cancer0
299897
    1DOPC   NC3    1   2.947   8.931  15.975  0.3226 -0.0168 -0.1697
    1DOPC   PO4    2   2.557   8.870  15.854  0.2543  0.0208 -0.2757
    1DOPC   GL1    3   2.412   9.029  15.595  0.0875  0.0667 -0.0195
    1DOPC   GL2    4   2.124   8.914  15.635 -0.1360  0.0971  0.4636
    1DOPC   C1A    5   2.458   9.102  15.151  0.0877  0.0552 -0.0848
    1DOPC   D2A    6   2.496   9.286  14.712 -0.3477  0.0108  0.2942
    1DOPC   C3A    7   2.211   9.559  14.432  0.0604  0.4658 -0.2601
    1DOPC   C4A    8   1.779   9.377  14.429  0.1170  0.0228  0.1226
    1DOPC   C1B    9   2.068   8.814  15.165 -0.0464 -0.1020 -0.1761
    1DOPC   D2B   10   2.354   8.798  14.755  0.2916 -0.0623 -0.1665
    1DOPC   C3B   11   2.174   8.828  14.356 -0.1465  0.0605  0.3703
    1DOPC   C4B   12   2.077   9.118  14.028 -0.2233  0.0362 -0.0540
    2DOPC   NC3   13   9.498   3.430  15.104  0.2979 -0.2777  0.1290
    2DOPC   PO4   14   9.869   3.387  14.975  0.0156  0.0083  0.1551
    2DOPC   GL1   15   9.889   3.215  14.561 -0.0984 -0.1711  0.1005
    2DOPC   GL2   16  10.087   3.410  14.456  0.1088 -0.0907 -0.2567
    2DOPC   C1A   17   9.662   3.271  14.145 -0.0261  0.1386  0.2471
    2DOPC   D2A   18   9.194   3.213  13.990  0.1527  0.1028 -0.1856
    2DOPC   C3A   19   9.071   3.033  13.566  0.0506  0.0975  0.0301
    2DOPC   C4A   20   9.112   2.915  13.090  0.0554 -0.2755  0.0619
    2DOPC   C1B   21  10.099   3.245  13.995 -0.0335 -0.0958  0.0742
    2DOPC   D2B   22  10.024   3.305  13.578 -0.0118  0.3201 -0.2355
    2DOPC   C3B   23   9.855   3.471  13.246  0.1045 -0.1959 -0.1632
    2DOPC   C4B   24   9.527   3.717  13.181 -0.2151 -0.2065 -0.0876
    3DOPE   NH3   25   9.688   9.088  15.536 -0.0231  0.1720 -0.3927
    3DOPE   PO4   26   9.457   9.260  15.495  0.1828  0.1708 -0.0905
    3DOPE   GL1   27   9.605   9.454  15.232  0.0887 -0.0414 -0.1421
    3DOPE   GL2   28   9.489   9.689  15.095 -0.1437 -0.3363  0.2589
    3DOPE   C1A   29   9.769   9.342  14.796  0.7369 -0.5169 -0.0137
    3DOPE   D2A   30   9.777   9.304  14.298  0.1294  0.1388  0.0094
    3DOPE   C3A   31   9.708   9.435  13.843  0.1831 -0.0226 -0.2817
    3DOPE   C4A   32   9.570   9.589  13.417  0.2095 -0.2253 -0.5909
    3DOPE   C1B   33   9.166   9.570  14.774 -0.4531 -0.2155 -0.0930
    3DOPE   D2B   34   9.051   9.408  14.391  0.1268  0.2090  0.0316
    3DOPE   C3B   35   8.738   9.678  14.126 -0.0240  0.3076  0.2166
    3DOPE   C4B   36   8.443   9.603  13.785  0.0061 -0.2132  0.2146
    4DOPE   NH3   37   0.946   8.976  16.230 -0.0553  0.0617 -0.1565
    4DOPE   PO4   38   1.184   9.184  16.182 -0.2346  0.1690 -0.0801
    4DOPE   GL1   39   1.206   9.222  15.819 -0.5625  0.2120  0.0120
    4DOPE   GL2   40   0.997   9.026  15.663  0.1160 -0.0634  0.2549
    4DOPE   C1A   41   1.361   9.525  15.447 -0.0373 -0.2015  0.0428
    4DOPE   D2A   42   1.435   9.560  14.988  0.0302 -0.2910  0.1044
    4DOPE   C3A   43   1.633   9.946  14.848  0.0570 -0.1431 -0.1616
    4DOPE   C4A   44   2.083   9.997  14.804  0.0662 -0.1678 -0.1997
    4DOPE   C1B   45   1.198   9.108  15.232  0.0700  0.0068  0.1077
    4DOPE   D2B   46   1.355   8.985  14.861  0.2056 -0.0440  0.0566
    4DOPE   C3B   47   1.268   9.259  14.432 -0.2061  0.3092  0.1173
    4DOPE   C4B   48   1.084   9.665  14.170 -0.3874 -0.1150  0.0060
    5DOPC   NC3   49   8.952  11.239  15.816  0.1222 -0.0122 -0.1064
    5DOPC   PO4   50   9.325  11.242  15.921 -0.0260  0.2239 -0.0205
    5DOPC   GL1   51   9.391  11.380  15.458 -0.1621  0.0888 -0.5404
    5DOPC   GL2   52   9.161  11.296  15.332  0.2313 -0.1761 -0.0027
    5DOPC   C1A   53   9.598  11.292  15.070  0.1286  0.1142  0.0915
    5DOPC   D2A   54   9.825  11.058  14.767  0.2074  0.0142  0.1089
    5DOPC   C3A   55   9.668  11.018  14.391  0.0211  0.0475 -0.0261
    5DOPC   C4A   56   9.591  11.273  13.985  0.1821  0.0884  0.1425
    5DOPC   C1B   57   9.125  11.345  14.867  0.2113  0.0172  0.2601
    5DOPC   D2B   58   8.846  11.223  14.511  0.0473 -0.1515 -0.0211
    5DOPC   C3B   59   8.739  11.094  14.115  0.4898  0.1216  0.2778
    5DOPC   C4B   60   8.430  10.912  13.876  0.0872  0.2873  0.1283
    6DOPC   NC3   61  10.611   9.508  15.738 -0.1366 -0.0344  0.0139
    6DOPC   PO4   62  10.732   9.151  15.648 -0.1846  0.0022  0.0054
    6DOPC   GL1   63  10.571   9.221  15.301  0.2129 -0.1883 -0.1063
    6DOPC   GL2   64  10.500   9.482  15.301  0.2185 -0.2535 -0.2849
    6DOPC   C1A   65  11.003   9.440  15.056 -0.1732  0.0675 -0.0036
    6DOPC   D2A   66  11.070   9.648  14.657 -0.1345 -0.4094  0.2250
    6DOPC   C3A   67  10.906  10.054  14.933 -0.0429  0.4457  0.0674
    6DOPC   C4A   68  11.134  10.413  15.190  0.1436 -0.1330  0.4618
    6DOPC   C1B   69  10.539   9.553  14.837 -0.2018  0.0770 -0.0477
    6DOPC   D2B   70  10.569   9.857  14.483  0.1228 -0.0284 -0.1105
    6DOPC   C3B   71  10.695   9.650  14.142  0.1555  0.3056  0.1832
    6DOPC   C4B   72  10.765   9.303  13.871 -0.1768 -0.1006 -0.0290
    7POSM   NC3   73   4.036   3.009  15.877 -0.1632  0.2311  0.2359
    7POSM   PO4   74   4.135   3.390  15.909  0.0649  0.0430  0.1447
    7POSM   AM1   75   3.867   3.417  15.733 -0.0596 -0.4623  0.0832
    7POSM   AM2   76   3.755   3.311  15.491 -0.2129 -0.1716 -0.1835
    7POSM   T1A   77   3.423   3.643  15.659 -0.0093  0.0714 -0.4965
    7POSM   C2A   78   3.005   3.876  15.687  0.0843 -0.2108 -0.0825
    7POSM   C3A   79   2.631   3.909  15.400  0.0468  0.0144  0.0975
    7POSM   C1B   80   3.911   3.434  15.215 -0.0380 -0.0783 -0.0149
    7POSM   D2B   81   4.006   3.675  14.809 -0.1814  0.4348 -0.1141
    7POSM   C3B   82   4.028   3.410  14.436 -0.1141 -0.1297  0.4297
    7POSM   C4B   83   3.969   2.996  14.257  0.0768  0.1378 -0.3465
    8DOPS   CNO   84   8.673   9.161  15.712 -0.1983  0.1157  0.0848
    8DOPS   PO4   85   8.533   9.531  15.783 -0.3415  0.2163 -0.1128
    8DOPS   GL1   86   8.407   9.442  15.413  0.0194 -0.0744  0.0573
    8DOPS   GL2   87   8.318   9.179  15.428  0.0882 -0.0495  0.1466
    8DOPS   C1A   88   8.336   9.710  15.042  0.1206  0.1827 -0.0109
    8DOPS   D2A   89   8.704   9.794  14.740  0.3273  0.2084 -0.0925
    8DOPS   C3A   90   8.642  10.276  14.724 -0.2081 -0.2487 -0.0092
    8DOPS   C4A   91   8.693  10.740  14.729  0.0633 -0.0296  0.1607
    8DOPS   C1B   92   8.186   9.044  14.951 -0.0733  0.1651  0.1588
    8DOPS   D2B   93   8.324   8.914  14.515  0.0003  0.1359 -0.2696
    8DOPS   C3B   94   8.126   8.888  14.119  0.0695 -0.3361 -0.1037
    8DOPS   C4B   95   7.966   8.590  13.817  0.0689  0.2710 -0.0296
    9DOPC   NC3   96   5.538   2.662  17.210 -0.4034 -0.1011  0.1976
    9DOPC   PO4   97   5.718   2.860  16.881 -0.2173  0.0858  0.1542
    9DOPC   GL1   98   5.605   2.941  16.430 -0.1497  0.2147 -0.2193
    9DOPC   GL2   99   5.738   3.119  16.279 -0.0727 -0.0146  0.1152
    9DOPC   C1A  100   5.798   2.651  16.110  0.2962 -0.1245 -0.1501
    9DOPC   D2A  101   6.173   2.475  15.947  0.3239  0.0852 -0.2896
    9DOPC   C3A  102   6.014   2.478  15.461 -0.0293 -0.1483 -0.0051
    9DOPC   C4A  103   5.985   2.871  15.211  0.0700 -0.1326  0.0997
    9DOPC   C1B  104   5.428   3.018  15.922 -0.0677 -0.2125  0.2694
    9DOPC   D2B  105   5.167   3.299  15.619  0.1192  0.0678  0.0507
    9DOPC   C3B  106   4.866   3.212  15.319 -0.1704  0.0818  0.0064
    9DOPC   C4B  107   4.640   3.034  14.942 -0.0921 -0.0286  0.1934
   10DOPE   NH3  108   3.171   5.195  16.579 -0.1509 -0.0546  0.2002
   10DOPE   PO4  109   3.402   5.353  16.557  0.1148  0.0389  0.2659
   10DOPE   GL1  110   3.362   5.542  16.212  0.0733 -0.0062  0.0841
   10DOPE   GL2  111   3.571   5.592  16.017 -0.1747  0.0359  0.0132
   10DOPE   C1A  112   3.118   5.528  15.843 -0.1071 -0.1204 -0.0648
   10DOPE   D2A  113   2.975   5.529  15.454 -0.2074  0.1911  0.0848
   10DOPE   C3A  114   2.711   5.320  15.116 -0.1620 -0.0332 -0.1555
   10DOPE   C4A  115   2.513   4.898  15.114  0.0707 -0.0381 -0.1261
   10DOPE   C1B  116   3.590   5.571  15.547  0.2174  0.1586 -0.1076
   10DOPE   D2B  117   3.410   5.826  15.243  0.0761  0.0567 -0.1471
   10DOPE   C3B  118   3.425   6.033  14.877 -0.2688  0.1705  0.0971
   10DOPE   C4B  119   3.409   6.403  14.614  0.3084 -0.2185  0.0737
   11POSM   NC3  120   8.901   8.213  15.661 -0.3520  0.0049  0.0430
   11POSM   PO4  121   8.855   8.602  15.787 -0.1975 -0.1375 -0.1618
   11POSM   AM1  122   8.859   8.702  15.487  0.0247 -0.1450 -0.1473
   11POSM   AM2  123   9.007   8.921  15.317  0.2832 -0.0071 -0.4624
   11POSM   T1A  124   8.929   8.432  15.109  0.0085  0.1670  0.2337
   11POSM   C2A  125   8.957   8.136  14.735 -0.0210  0.0735 -0.0760
   11POSM   C3A  126   8.863   7.725  14.583 -0.0179 -0.1237  0.0231
   11POSM   C1B  127   9.063   8.982  14.980  0.1017 -0.0587 -0.5742
   11POSM   D2B  128   8.872   8.949  14.540  0.1196 -0.0899 -0.0825
   11POSM   C3B  129   8.884   8.866  14.035  0.2199 -0.4085 -0.1326
   11POSM   C4B  130   8.971   8.825  13.573  0.0089 -0.1301 -0.1596
   12DOPS   CNO  131   5.656  10.509  16.380 -0.2441 -0.0311  0.1892
   12DOPS   PO4  132   5.854  10.691  16.074  0.1775 -0.2006  0.2963
   12DOPS   GL1  133   5.880  10.983  15.743 -0.0372  0.0968 -0.3415
   12DOPS   GL2  134   5.955  11.247  15.978 -0.0924  0.0501  0.0912
   12DOPS   C1A  135   5.804  11.038  15.280  0.0953  0.0017  0.0485
   12DOPS   D2A  136   5.664  10.874  14.872 -0.0680  0.3013 -0.4938
   12DOPS   C3A  137   5.881  10.859  14.453  0.0148 -0.2206 -0.3109
   12DOPS   C4A  138   6.055  10.990  14.066 -0.0263  0.0897 -0.2575
   12DOPS   C1B  139   5.715  11.423  15.640 -0.1917 -0.0639  0.1941
   12DOPS   D2B  140   5.420  11.577  15.378  0.1050 -0.1861 -0.0573
   12DOPS   C3B  141   5.428  11.465  14.902  0.0719  0.1186  0.1648
   12DOPS   C4B  142   5.508  11.289  14.501 -0.2135  0.0363 -0.0176
   13DOPC   NC3  143  10.139   2.984  14.891  0.1351 -0.0335 -0.0610
   13DOPC   PO4  144  10.483   2.731  14.824  0.1774  0.0256  0.2391
   13DOPC   GL1  145  10.472   2.772  14.384 -0.3978  0.2314  0.1536
   13DOPC   GL2  146  10.201   2.864  14.362  0.0960 -0.1904 -0.1548
   13DOPC   C1A  147  10.727   2.611  14.048  0.1742  0.0585 -0.0414
   13DOPC   D2A  148  10.747   2.163  13.987  0.0387 -0.0266  0.0099
   13DOPC   C3A  149  10.560   1.973  13.554 -0.1757  0.1082  0.0960
   13DOPC   C4A  150  10.845   1.891  13.170  0.0634 -0.0063 -0.2299
   13DOPC   C1B  151   9.852   2.544  14.228  0.0646 -0.1998 -0.0102
   13DOPC   D2B  152   9.739   2.141  14.019  0.0781 -0.2388 -0.2339
   13DOPC   C3B  153   9.769   1.964  13.562  0.0108 -0.3791  0.1252
   13DOPC   C4B  154  10.120   1.843  13.326 -0.0423  0.0766 -0.2221
   14DOPE   NH3  155   6.445   5.130  16.287 -0.2814  0.3593 -0.0618
   14DOPE   PO4  156   6.438   4.797  16.370 -0.1450  0.0076  0.1249
   14DOPE   GL1  157   6.287   4.752  16.007 -0.1157  0.2414  0.5096
   14DOPE   GL2  158   6.098   4.584  16.023  0.0453  0.2013 -0.1847
   14DOPE   C1A  159   6.434   4.640  15.609 -0.0358 -0.1420  0.0850
   14DOPE   D2A  160   6.195   4.429  15.282  0.0288  0.3079  0.1097
   14DOPE   C3A  161   6.534   4.357  14.962  0.2208 -0.2029 -0.0449
   14DOPE   C4A  162   6.644   4.209  14.527 -0.2108 -0.2286 -0.0730
   14DOPE   C1B  163   6.003   4.814  15.684  0.0115 -0.1151 -0.1739
   14DOPE   D2B  164   5.781   4.726  15.286  0.1146 -0.0980 -0.1911
   14DOPE   C3B  165   5.843   4.656  14.857  0.0815 -0.2049  0.0633
   14DOPE   C4B  166   5.906   4.623  14.395  0.0837  0.1083  0.1482
   15DOPE   NH3  167   4.567   5.357  15.848 -0.0671  0.2110 -0.1653
   15DOPE   PO4  168   4.762   5.076  15.954  0.1691 -0.2658 -0.0838
   15DOPE   GL1  169   5.102   5.125  15.720  0.2709 -0.2041 -0.6082
   15DOPE   GL2  170   4.998   5.424  15.616  0.2815 -0.0324  0.2076
   15DOPE   C1A  171   5.193   4.837  15.382 -0.4785  0.2000  0.1608
   15DOPE   D2A  172   5.341   4.796  14.994 -0.0169  0.1909 -0.1649
   15DOPE   C3A  173   5.394   4.773  14.479 -0.1814 -0.1296  0.1162
   15DOPE   C4A  174   5.526   4.770  14.011 -0.1872 -0.1125  0.0386
   15DOPE   C1B  175   5.181   5.310  15.235  0.0548 -0.1040  0.0247
   15DOPE   D2B  176   5.120   5.166  14.752 -0.0075 -0.1240  0.0156
   15DOPE   C3B  177   4.877   5.294  14.379 -0.0116  0.1165  0.1431
   15DOPE   C4B  178   4.822   5.601  14.060  0.1855  0.1465 -0.1429
   16DOPC   NC3  179   8.830   9.945  15.717  0.0624  0.1400 -0.1688
   16DOPC   PO4  180   8.879  10.100  16.061 -0.1960 -0.0529 -0.0011
   16DOPC   GL1  181   8.640  10.398  15.831  0.1673 -0.3188  0.0824
   16DOPC   GL2  182   8.820  10.400  15.517  0.0733  0.0213 -0.1971
   16DOPC   C1A  183   8.265  10.490  15.579 -0.0098 -0.1167  0.1426
   16DOPC   D2A  184   7.857  10.665  15.433  0.1250  0.1348  0.3660
   16DOPC   C3A  185   7.721  10.364  15.102  0.0162 -0.1025  0.1803
   16DOPC   C4A  186   7.762  10.363  14.676 -0.0189  0.2099  0.0363
   16DOPC   C1B  187   8.699  10.837  15.405  0.0517 -0.1236  0.1751
   16DOPC   D2B  188   8.659  11.306  15.186  0.1527 -0.3238 -0.0809
   16DOPC   C3B  189   8.503  11.749  15.240 -0.2785 -0.0199  0.0763
   16DOPC   C4B  190   8.217  12.086  15.435  0.4050 -0.1972  0.1854
   17POSM   NC3  191  10.384   6.654  15.489  0.0309  0.1527  0.1446
   17POSM   PO4  192  10.189   6.751  15.823  0.0799 -0.0621  0.2049
   17POSM   AM1  193   9.926   6.747  15.593 -0.3613 -0.2052  0.0669
   17POSM   AM2  194   9.679   6.547  15.580  0.3606  0.0715  0.1216
   17POSM   T1A  195   9.565   7.018  15.419 -0.0361 -0.3356 -0.0986
   17POSM   C2A  196   9.148   7.203  15.304 -0.0708 -0.2294  0.1865
   17POSM   C3A  197   8.683   7.104  15.286 -0.1741 -0.1899 -0.0696
   17POSM   C1B  198   9.559   6.443  15.243 -0.1437  0.2020 -0.1072
   17POSM   D2B  199   9.729   6.501  14.833 -0.1582  0.0253 -0.0627
   17POSM   C3B  200   9.898   6.870  14.624 -0.1873 -0.4043  0.0348
   17POSM   C4B  201  10.121   6.925  14.180 -0.1255 -0.0859  0.2671
   18DOPE   NH3  202   0.619   9.705  15.964 -0.1424 -0.0105 -0.0314
   18DOPE   PO4  203   0.871   9.491  15.914 -0.0740  0.1441  0.0825
   18DOPE   GL1  204   0.819   9.478  15.564 -0.6122 -0.0273 -0.1104
   18DOPE   GL2  205   0.577   9.357  15.508  0.0749  0.2938 -0.0782
   18DOPE   C1A  206   0.921   9.484  15.087 -0.2830 -0.0789 -0.2529
   18DOPE   D2A  207   1.054   9.644  14.693  0.3504 -0.1495  0.0603
   18DOPE   C3A  208   1.435   9.788  14.469  0.0759  0.1320  0.0436
   18DOPE   C4A  209   1.850   9.868  14.335  0.2054  0.0723  0.3360
   18DOPE   C1B  210   0.332   9.708  15.371  0.4833  0.0827  0.3652
   18DOPE   D2B  211   0.195   9.935  15.028  0.1863  0.1682 -0.1251
   18DOPE   C3B  212  -0.070   9.752  14.739  0.0947  0.1933 -0.0441
   18DOPE   C4B  213  -0.325   9.549  14.413 -0.0661  0.0121 -0.0515
   19DOPS   CNO  214   4.923   1.414  16.439 -0.3149 -0.1528 -0.1192
   19DOPS   PO4  215   4.909   1.400  16.085  0.2767 -0.1947 -0.0201
   19DOPS   GL1  216   4.721   1.582  15.802 -0.1737  0.5384 -0.0051
   19DOPS   GL2  217   4.522   1.785  16.013 -0.0777  0.1232 -0.1450
   19DOPS   C1A  218   4.546   1.633  15.378 -0.2047 -0.0091 -0.2933
   19DOPS   D2A  219   4.443   1.564  14.943  0.0571  0.0298 -0.3593
   19DOPS   C3A  220   4.563   1.407  14.629 -0.2287 -0.3617  0.0960
   19DOPS   C4A  221   4.567   1.278  14.169  0.1504  0.1019 -0.3464
   19DOPS   C1B  222   4.508   2.083  15.608 -0.1490 -0.0829  0.0750
   19DOPS   D2B  223   4.547   2.109  15.158 -0.4795 -0.1925 -0.1160
   19DOPS   C3B  224   4.362   2.453  14.934  0.0417  0.3634 -0.3287
   19DOPS   C4B  225   4.349   2.680  14.516  0.0627 -0.2595  0.0695
   20POSM   NC3  226   7.600   8.017  16.478  0.1557 -0.1397  0.0228
   20POSM   PO4  227   7.312   8.253  16.396 -0.2385  0.2323 -0.0789
   20POSM   AM1  228   7.138   8.294  16.147  0.0518  0.0099 -0.5084
   20POSM   AM2  229   7.115   8.345  15.892 -0.1825  0.1877  0.0805
   20POSM   T1A  230   6.785   8.047  15.873 -0.1669 -0.0441 -0.0838
   20POSM   C2A  231   6.846   7.653  15.676  0.0572  0.1377  0.1678
   20POSM   C3A  232   6.938   7.258  15.769  0.2580 -0.0299 -0.3594
   20POSM   C1B  233   7.206   8.106  15.650 -0.1039  0.1373 -0.0858
   20POSM   D2B  234   7.288   7.998  15.197 -0.1109 -0.3035 -0.2885
   20POSM   C3B  235   7.343   8.361  14.896 -0.2088  0.0954 -0.0268
   20POSM   C4B  236   7.303   8.750  14.639  0.3192  0.3279 -0.1506
   21POSM   NC3  237   5.432   8.407  15.855 -0.1331  0.2066 -0.2840
   21POSM   PO4  238   5.103   8.206  16.004  0.0191 -0.0942  0.0228
   21POSM   AM1  239   5.016   8.128  15.689  0.2140  0.0463 -0.0243
   21POSM   AM2  240   5.021   8.268  15.432  0.0714  0.0969 -0.0717
   21POSM   T1A  241   4.587   8.134  15.436  0.3009  0.0947  0.2321
   21POSM   C2A  242   4.307   8.339  15.174 -0.2362  0.1176 -0.2577
   21POSM   C3A  243   3.955   8.403  14.841  0.3260 -0.1550  0.2714
   21POSM   C1B  244   5.096   8.296  15.110  0.1347 -0.0219 -0.0033
   21POSM   D2B  245   5.129   8.442  14.661 -0.1379  0.1259  0.1244
   21POSM   C3B  246   4.859   8.659  14.459  0.1586 -0.0646  0.0617
   21POSM   C4B  247   4.685   8.744  14.022 -0.0116 -0.1036 -0.0531
   22DOPC   NC3  248   1.965   0.843  16.173 -0.2712  0.1445 -0.0853
   22DOPC   PO4  249   2.047   0.499  16.166 -0.3146 -0.2653  0.1961
   22DOPC   GL1  250   2.139   0.603  15.809 -0.0467 -0.1793 -0.1335
   22DOPC   GL2  251   2.382   0.782  15.805 -0.0317  0.2911 -0.2244
   22DOPC   C1A  252   2.308   0.690  15.371 -0.0619  0.2213 -0.0328
   22DOPC   D2A  253   2.417   0.876  14.922  0.2254  0.3134 -0.0896
   22DOPC   C3A  254   2.435   0.825  14.438 -0.3030  0.2593  0.0439
   22DOPC   C4A  255   2.466   0.547  14.030  0.0795 -0.0452  0.0699
   22DOPC   C1B  256   2.793   0.681  15.591 -0.0135 -0.2024 -0.1095
   22DOPC   D2B  257   3.060   0.392  15.324 -0.1373 -0.0113  0.1927
   22DOPC   C3B  258   3.085   0.405  14.855 -0.2223  0.0769  0.1771
   22DOPC   C4B  259   3.223   0.209  14.483 -0.1032  0.0550  0.1414
   23DOPS   CNO  260   8.200   4.290  16.445 -0.3342 -0.1762 -0.0534
   23DOPS   PO4  261   7.993   4.218  16.134  0.0881 -0.1053  0.0043
   23DOPS   GL1  262   8.085   4.418  15.764  0.1436  0.2444 -0.1877
   23DOPS   GL2  263   7.737   4.473  15.719 -0.1530  0.0932 -0.1782
   23DOPS   C1A  264   8.053   4.201  15.365  0.0154  0.1459 -0.0059
   23DOPS   D2A  265   7.970   4.311  14.969 -0.1424  0.1525 -0.0152
   23DOPS   C3A  266   7.983   3.992  14.696 -0.0330 -0.0879 -0.1554
   23DOPS   C4A  267   7.794   3.714  14.378  0.0880 -0.3083  0.1752
   23DOPS   C1B  268   7.831   4.692  15.314  0.0046  0.2806 -0.0110
   23DOPS   D2B  269   8.088   5.032  15.157 -0.2287  0.1774  0.0863
   23DOPS   C3B  270   8.000   5.071  14.730 -0.4225  0.0774  0.1421
   23DOPS   C4B  271   8.197   5.110  14.360  0.0316 -0.1490  0.3899
   24DOPE   NH3  272   9.320   9.800  16.146 -0.3987 -0.0518 -0.2303
   24DOPE   PO4  273   9.333  10.111  16.273 -0.0470  0.0606  0.1871
   24DOPE   GL1  274   9.462  10.160  15.870  0.3278 -0.4703  0.0256
   24DOPE   GL2  275   9.263  10.221  15.707 -0.3247 -0.0694 -0.1039
   24DOPE   C1A  276   9.721  10.447  15.583 -0.0106  0.3021 -0.0698
   24DOPE   D2A  277   9.683  10.698  15.157  0.1241  0.2216  0.2098
   24DOPE   C3A  278   9.565  10.565  14.726  0.2013 -0.5530 -0.1625
   24DOPE   C4A  279   9.563  10.295  14.343  0.2197  0.1323 -0.0976
   24DOPE   C1B  280   9.325  10.127  15.306  0.1681  0.1630 -0.2122
   24DOPE   D2B  281   9.098  10.322  14.935  0.2291  0.2940  0.1191
   24DOPE   C3B  282   9.143  10.048  14.549  0.1764 -0.2710  0.0984
   24DOPE   C4B  283   9.019  10.093  14.187 -0.2530 -0.1035  0.0666
   25POSM   NC3  284   9.757   5.685  15.678  0.1298  0.0441  0.0715
   25POSM   PO4  285  10.116   5.675  15.549  0.0361 -0.1242 -0.0792
   25POSM   AM1  286  10.098   5.606  15.223  0.0923  0.0043 -0.0385
   25POSM   AM2  287  10.112   5.778  14.954 -0.2743 -0.2222 -0.1382
   25POSM   T1A  288   9.989   5.346  14.818  0.0442  0.1598 -0.0451
   25POSM   C2A  289  10.064   5.429  14.381  0.2981  0.1206 -0.1212
   25POSM   C3A  290  10.125   5.649  13.946  0.0782  0.0719 -0.3262
   25POSM   C1B  291   9.988   5.848  14.645  0.0952 -0.1747  0.3020
   25POSM   D2B  292   9.946   6.036  14.264 -0.2459  0.1160  0.1689
   25POSM   C3B  293   9.830   6.186  13.868 -0.0700  0.1874 -0.0258
   25POSM   C4B  294   9.936   6.422  13.481 -0.1193 -0.1091 -0.1223
   26POSM   NC3  295  11.054   1.471  14.944 -0.0221  0.2005 -0.0632
   26POSM   PO4  296  11.046   1.864  14.986 -0.1588 -0.0207  0.0556
   26POSM   AM1  297  11.154   1.864  14.664  0.0260  0.0934 -0.2323
   26POSM   AM2  298  11.376   1.889  14.460  0.1772  0.1134 -0.4103
   26POSM   T1A  299  10.953   1.790  14.182 -0.2405  0.0333 -0.2625
   26POSM   C2A  300  11.001   1.782  13.761  0.0517 -0.0836 -0.0042
   26POSM   C3A  301  11.242   1.778  13.410  0.2044  0.2438 -0.1455
   26POSM   C1B  302  11.411   2.048  14.158 -0.0073  0.0186  0.0046
   26POSM   D2B  303  11.403   2.105  13.703 -0.2168 -0.1043 -0.1049
   26POSM   C3B  304  10.997   2.221  13.524  0.2355  0.0072  0.0456
   26POSM   C4B  305  10.642   2.334  13.190  0.1131  0.0371 -0.1486
   27DOPC   NC3  306   1.471   7.867  16.281  0.0123 -0.3445  0.2331
   27DOPC   PO4  307   1.761   7.817  15.989 -0.1612  0.2463 -0.0641
   27DOPC   GL1  308   1.539   7.917  15.628 -0.5308 -0.0048 -0.2661
   27DOPC   GL2  309   1.730   8.094  15.527 -0.0245 -0.0696 -0.3431
   27DOPC   C1A  310   1.220   7.858  15.283 -0.0376 -0.2925  0.0360
   27DOPC   D2A  311   1.132   7.844  14.835 -0.0253  0.0617  0.3120
   27DOPC   C3A  312   0.807   8.000  14.512 -0.3830  0.0620  0.0196
   27DOPC   C4A  313   0.827   8.185  14.103  0.2817  0.0105  0.3917
   27DOPC   C1B  314   1.769   8.561  15.571 -0.0764  0.3007  0.1675
   27DOPC   D2B  315   1.530   8.949  15.502 -0.1886  0.1087  0.0044
   27DOPC   C3B  316   1.763   9.272  15.402 -0.0060  0.2520 -0.2751
   27DOPC   C4B  317   2.200   9.446  15.390 -0.0612  0.2775  0.2073
   28DOPC   NC3  318   1.612   3.000  16.419  0.0196 -0.0976  0.0731
   28DOPC   PO4  319   1.518   2.632  16.267  0.1759  0.0126  0.0128
   28DOPC   GL1  320   1.475   2.848  15.790 -0.1688 -0.1729 -0.2352
   28DOPC   GL2  321   1.612   2.642  15.601 -0.0711 -0.0375 -0.0782
   28DOPC   C1A  322   1.466   3.081  15.403 -0.1322  0.1205  0.0357
   28DOPC   D2A  323   1.450   3.448  15.154  0.0728  0.0596  0.0205
   28DOPC   C3A  324   1.414   3.434  14.752  0.0031  0.1391 -0.0769
   28DOPC   C4A  325   1.745   3.435  14.408 -0.2974 -0.1013 -0.0777
   28DOPC   C1B  326   1.773   2.566  15.116 -0.1322  0.0524 -0.1537
   28DOPC   D2B  327   1.615   2.473  14.689  0.0026 -0.2203  0.0737
   28DOPC   C3B  328   1.285   2.767  14.444  0.0366 -0.0498  0.0962
   28DOPC   C4B  329   0.967   2.783  14.108 -0.1953  0.0009  0.2972
   29POSM   NC3  330   7.244   0.130  15.336 -0.0675 -0.1403 -0.0498
   29POSM   PO4  331   7.071   0.141  15.689 -0.1807 -0.3941 -0.3008
   29POSM   AM1  332   6.776   0.120  15.514 -0.1494 -0.2629  0.2887
   29POSM   AM2  333   6.513   0.259  15.526  0.1193  0.2139 -0.0478
   29POSM   T1A  334   6.500  -0.122  15.238 -0.1040  0.3462 -0.3137
   29POSM   C2A  335   6.269  -0.481  15.227  0.0159  0.1113  0.0026
   29POSM   C3A  336   6.194  -0.922  15.175 -0.1641  0.2634 -0.1952
   29POSM   C1B  337   6.362   0.508  15.426  0.1433 -0.2319 -0.1426
   29POSM   D2B  338   6.236   0.842  15.186 -0.0370  0.1823  0.0897
   29POSM   C3B  339   5.859   0.810  14.931 -0.0794  0.2775 -0.2240
   29POSM   C4B  340   5.771   0.728  14.471  0.0041 -0.2477  0.0128
   30POSM   NC3  341  11.557   4.823  15.584 -0.1310  0.1668  0.0585
   30POSM   PO4  342  11.338   5.178  15.599 -0.0750 -0.2288 -0.0319
   30POSM   AM1  343  11.271   5.092  15.279  0.1863  0.2198  0.1380
   30POSM   AM2  344  11.458   5.078  15.064 -0.0563 -0.0067 -0.0529
   30POSM   T1A  345  11.087   4.891  14.846 -0.1351  0.1325 -0.0163
   30POSM   C2A  346  10.938   4.508  14.674  0.0089  0.0443 -0.1075
   30POSM   C3A  347  11.084   4.090  14.560 -0.1564 -0.0937 -0.2975
   30POSM   C1B  348  11.513   5.071  14.729  0.0838 -0.2319 -0.0154
   30POSM   D2B  349  11.524   5.150  14.285 -0.5458  0.0283 -0.0643
   30POSM   C3B  350  11.644   5.520  14.035 -0.0038  0.1727  0.1198
   30POSM   C4B  351  11.387   5.692  13.671 -0.1026  0.0151  0.0161
   31DOPE   NH3  352  10.110  10.747  16.352  0.2819 -0.4481 -0.0909
   31DOPE   PO4  353  10.191  10.474  16.260 -0.0228 -0.1025  0.1130
   31DOPE   GL1  354  10.310  10.531  15.834  0.3154 -0.0117  0.1332
   31DOPE   GL2  355  10.121  10.290  15.829 -0.0466 -0.0925  0.0959
   31DOPE   C1A  356  10.671  10.667  15.512 -0.2923 -0.2179 -0.1665
   31DOPE   D2A  357  10.668  11.061  15.312 -0.0965 -0.1855 -0.4831
   31DOPE   C3A  358  10.738  11.004  14.859  0.2464 -0.2156 -0.0240
   31DOPE   C4A  359  10.896  11.093  14.452 -0.0548  0.0448  0.0033
   31DOPE   C1B  360  10.218  10.448  15.394  0.3240  0.1066  0.0971
   31DOPE   D2B  361  10.312  10.099  15.070 -0.2839 -0.1373 -0.3972
   31DOPE   C3B  362  10.354  10.274  14.672  0.2477  0.0717  0.2547
   31DOPE   C4B  363  10.772  10.403  14.602 -0.0596 -0.1250  0.0010
   32DOPC   NC3  364   6.489   9.368  15.971 -0.2337 -0.2637 -0.0312
   32DOPC   PO4  365   6.752   9.571  16.084  0.1316 -0.1013  0.1289
   32DOPC   GL1  366   6.751   9.581  15.662 -0.4365  0.0692 -0.0875
   32DOPC   GL2  367   6.845   9.294  15.658 -0.0128 -0.1962  0.1472
   32DOPC   C1A  368   6.447   9.756  15.303  0.1762  0.0154  0.1363
   32DOPC   D2A  369   6.323   9.856  14.880  0.1115 -0.2769 -0.1339
   32DOPC   C3A  370   6.402   9.580  14.541  0.1023  0.0959  0.1897
   32DOPC   C4A  371   6.583   9.136  14.373 -0.2091  0.0309  0.1241
   32DOPC   C1B  372   7.075   9.373  15.306 -0.1027  0.0626  0.0178
   32DOPC   D2B  373   7.356   9.143  15.053 -0.0380  0.2036  0.0011
   32DOPC   C3B  374   7.472   9.232  14.585 -0.1787  0.1251 -0.2728
   32DOPC   C4B  375   7.899   9.167  14.416  0.1403  0.1336 -0.3387
   33DOPE   NH3  376   7.348   6.010  16.121  0.0866  0.1955 -0.1269
   33DOPE   PO4  377   7.639   6.084  16.193  0.0749 -0.2364 -0.0326
   33DOPE   GL1  378   7.680   6.182  15.790  0.1719 -0.1273 -0.1434
   33DOPE   GL2  379   7.558   6.455  15.754 -0.0523  0.1591  0.1688
   33DOPE   C1A  380   7.780   5.983  15.411 -0.0809 -0.0605 -0.2153
   33DOPE   D2A  381   7.720   5.843  15.030  0.2997 -0.1387  0.2142
   33DOPE   C3A  382   7.632   6.281  14.895 -0.0373 -0.0416 -0.0826
   33DOPE   C4A  383   7.707   6.762  14.779 -0.1254  0.2691  0.2302
   33DOPE   C1B  384   7.748   6.573  15.327 -0.0838  0.1703  0.0663
   33DOPE   D2B  385   8.074   6.369  15.181  0.2912  0.1239  0.4783
   33DOPE   C3B  386   8.216   6.450  14.736 -0.3758  0.1231  0.3472
   33DOPE   C4B  387   8.208   6.616  14.313  0.3152  0.0044  0.0079
   34DOPE   NH3  388  10.786   3.171  14.660  0.0132  0.3970 -0.2893
   34DOPE   PO4  389  10.514   3.208  14.597  0.1389  0.1411 -0.0314
   34DOPE   GL1  390  10.530   3.223  14.153 -0.2031 -0.1568 -0.2000
   34DOPE   GL2  391  10.742   3.373  14.107 -0.0115  0.2788 -0.1249
   34DOPE   C1A  392  10.420   2.926  13.810 -0.0294 -0.0554  0.1515
   34DOPE   D2A  393   9.941   2.838  13.756 -0.0383 -0.1295 -0.0130
   34DOPE   C3A  394   9.702   2.498  13.536  0.4070  0.1531  0.0056
   34DOPE   C4A  395   9.716   2.288  13.151  0.3127  0.2025  0.1428
   34DOPE   C1B  396  10.524   3.539  13.765  0.2115  0.0306 -0.0940
   34DOPE   D2B  397  10.365   3.643  13.353 -0.1828  0.0072 -0.0975
   34DOPE   C3B  398  10.293   4.106  13.145 -0.3444 -0.0557  0.2931
   34DOPE   C4B  399  10.405   4.588  13.011  0.2846 -0.2320 -0.0285
   35DOPE   NH3  400   7.840   3.305  16.328 -0.0211 -0.1533 -0.1731
   35DOPE   PO4  401   8.007   3.102  16.181  0.1554  0.3698 -0.0259
   35DOPE   GL1  402   7.723   3.178  15.855 -0.1372  0.3286 -0.1401
   35DOPE   GL2  403   7.759   3.454  15.738  0.0476 -0.0516 -0.1339
   35DOPE   C1A  404   7.299   3.130  15.655  0.0849 -0.0071 -0.1441
   35DOPE   D2A  405   7.105   3.074  15.242 -0.0908  0.1583 -0.5019
   35DOPE   C3A  406   7.070   2.828  14.829 -0.0739  0.2082 -0.0521
   35DOPE   C4A  407   6.810   2.792  14.462 -0.0723  0.0249  0.0369
   35DOPE   C1B  408   7.513   3.452  15.298 -0.0026 -0.2612  0.0945
   35DOPE   D2B  409   7.275   3.459  14.890 -0.4187  0.2175 -0.1111
   35DOPE   C3B  410   6.966   3.330  14.627  0.0296 -0.2915 -0.5454
   35DOPE   C4B  411   6.614   3.618  14.578 -0.0825  0.1504 -0.0689
   36DOPS   CNO  412   1.255   5.144  15.753  0.2792 -0.2531  0.4515
   36DOPS   PO4  413   0.868   5.153  15.659  0.0986  0.3217  0.0782
   36DOPS   GL1  414   0.944   4.966  15.338 -0.1293 -0.0234 -0.2929
   36DOPS   GL2  415   0.810   5.147  15.153 -0.1667  0.1648  0.0654
   36DOPS   C1A  416   1.256   4.914  15.002  0.0493  0.1479  0.0518
   36DOPS   D2A  417   1.658   5.204  14.831  0.0491  0.1098  0.2397
   36DOPS   C3A  418   1.762   5.569  14.612 -0.0155 -0.0360  0.0203
   36DOPS   C4A  419   1.558   5.929  14.400 -0.3479 -0.1642 -0.1273
   36DOPS   C1B  420   1.171   5.386  15.075  0.3953  0.1137  0.0930
   36DOPS   D2B  421   1.323   5.651  14.730  0.0980  0.1072  0.2174
   36DOPS   C3B  422   1.430   5.466  14.283  0.1172  0.0526 -0.0347
   36DOPS   C4B  423   1.565   5.230  13.896 -0.0878 -0.0634 -0.1435
   37DOPE   NH3  424   6.241   5.976  16.095 -0.0277 -0.1040  0.2025
   37DOPE   PO4  425   6.382   6.286  16.055 -0.0009  0.1025  0.0822
   37DOPE   GL1  426   6.564   6.599  15.869  0.0751  0.2824  0.2552
   37DOPE   GL2  427   6.610   6.492  15.567  0.0986  0.1970  0.0375
   37DOPE   C1A  428   6.481   7.041  15.782  0.0152  0.2829  0.0858
   37DOPE   D2A  429   6.362   7.455  15.624 -0.2651  0.1551  0.1214
   37DOPE   C3A  430   6.590   7.278  15.248  0.0283 -0.3968 -0.1764
   37DOPE   C4A  431   6.966   7.179  14.960  0.0746  0.1529 -0.0658
   37DOPE   C1B  432   6.816   6.836  15.351 -0.0735  0.3761 -0.0715
   37DOPE   D2B  433   6.572   6.892  14.965  0.1325  0.2540 -0.1867
   37DOPE   C3B  434   6.679   7.130  14.556 -0.1382 -0.0925 -0.1046
   37DOPE   C4B  435   7.069   7.189  14.304 -0.0395  0.1425  0.1620
   38DOPE   NH3  436   3.716   6.771  16.074 -0.0218  0.4772  0.0686
   38DOPE   PO4  437   3.909   6.581  15.879  0.0609 -0.0765 -0.1273
   38DOPE   GL1  438   3.716   6.450  15.646 -0.3389 -0.0502 -0.2532
   38DOPE   GL2  439   3.769   6.597  15.368  0.0700 -0.1853 -0.0786
   38DOPE   C1A  440   3.361   6.328  15.378  0.3660 -0.1524 -0.0528
   38DOPE   D2A  441   2.959   6.099  15.268  0.2157 -0.0465 -0.1578
   38DOPE   C3A  442   3.028   5.705  14.953 -0.2235  0.0308  0.0458
   38DOPE   C4A  443   3.108   5.255  14.717 -0.1717  0.2278  0.0132
   38DOPE   C1B  444   3.864   6.416  14.953  0.2434  0.0878  0.1979
   38DOPE   D2B  445   3.847   6.201  14.514  0.1132 -0.0899 -0.2728
   38DOPE   C3B  446   4.166   6.341  14.174  0.0983  0.2055 -0.0616
   38DOPE   C4B  447   4.542   6.570  14.105  0.0842  0.1279  0.0075
   39POSM   NC3  448   3.652   1.113  16.406  0.0993  0.0953  0.0059
   39POSM   PO4  449   3.568   0.911  16.072 -0.0781 -0.1487  0.0111
   39POSM   AM1  450   3.750   0.705  15.875  0.1024 -0.1957 -0.4360
   39POSM   AM2  451   3.894   0.811  15.631 -0.0193 -0.0695 -0.0352
   39POSM   T1A  452   3.638   0.426  15.451 -0.0824 -0.1792 -0.1289
   39POSM   C2A  453   3.849   0.253  15.118 -0.0599  0.0441 -0.1432
   39POSM   C3A  454   4.042  -0.157  15.081 -0.2450 -0.0038 -0.1667
   39POSM   C1B  455   3.803   0.956  15.313 -0.3770 -0.2275  0.1564
   39POSM   D2B  456   4.007   1.137  14.960 -0.2878 -0.0771  0.3106
   39POSM   C3B  457   4.068   1.287  14.517 -0.0506  0.0788 -0.2765
   39POSM   C4B  458   4.173   1.706  14.368 -0.2339 -0.1967  0.1059
   40POSM   NC3  459   4.663   3.661  16.465 -0.0688 -0.0591 -0.0028
   40POSM   PO4  460   4.961   3.833  16.261  0.1492  0.3154 -0.1436
   40POSM   AM1  461   5.084   3.794  15.933  0.0600  0.1206  0.3224
   40POSM   AM2  462   5.028   3.737  15.713 -0.3007  0.1783 -0.0503
   40POSM   T1A  463   5.352   3.942  15.483 -0.0929 -0.4679 -0.0596
   40POSM   C2A  464   5.208   3.992  15.070 -0.0204  0.2385  0.0499
   40POSM   C3A  465   5.110   3.800  14.668  0.0076 -0.1877 -0.0551
   40POSM   C1B  466   4.886   3.739  15.408 -0.0750  0.0466  0.2880
   40POSM   D2B  467   4.782   3.573  14.973  0.2212 -0.0957  0.1838
   40POSM   C3B  468   5.075   3.219  14.840  0.0920  0.1662  0.1183
   40POSM   C4B  469   5.489   3.326  14.692  0.0570  0.2091  0.0286
   41DOPC   NC3  470   5.596   6.544  15.931 -0.0067 -0.0296 -0.0034
   41DOPC   PO4  471   5.875   6.299  15.978 -0.2005 -0.2110  0.0203
   41DOPC   GL1  472   5.909   6.314  15.659  0.1346 -0.3073 -0.2097
   41DOPC   GL2  473   6.096   6.514  15.523  0.0006  0.2553  0.0834
   41DOPC   C1A  474   5.931   6.174  15.221 -0.1821 -0.1263 -0.0556
   41DOPC   D2A  475   5.839   6.145  14.737 -0.2557  0.1872 -0.0297
   41DOPC   C3A  476   5.972   6.340  14.365 -0.2677  0.1909 -0.0730
   41DOPC   C4A  477   5.943   6.271  13.915  0.2037 -0.1151  0.0748
   41DOPC   C1B  478   6.249   6.574  15.050 -0.0315 -0.0103 -0.0747
   41DOPC   D2B  479   6.474   6.567  14.634 -0.0081 -0.2101 -0.1788
   41DOPC   C3B  480   6.423   6.491  14.208  0.0454 -0.2260 -0.2783
   41DOPC   C4B  481   6.476   6.420  13.774  0.0462  0.1313 -0.3956
   42DOPC   NC3  482   3.882   7.654  15.845 -0.1701  0.1162  0.1547
   42DOPC   PO4  483   3.651   7.967  15.844 -0.0612 -0.0919 -0.0391
   42DOPC   GL1  484   3.862   7.936  15.407 -0.1411 -0.1380  0.0344
   42DOPC   GL2  485   3.831   8.240  15.396  0.0057  0.2605  0.0093
   42DOPC   C1A  486   3.685   7.948  14.957 -0.0562 -0.2252  0.0630
   42DOPC   D2A  487   3.633   7.633  14.521 -0.0509 -0.5056  0.1683
   42DOPC   C3A  488   3.854   7.276  14.311  0.1365  0.1090  0.2152
   42DOPC   C4A  489   3.795   7.309  13.858 -0.0911 -0.1975 -0.0122
   42DOPC   C1B  490   3.808   8.691  15.286  0.0304 -0.1255  0.0068
   42DOPC   D2B  491   3.670   8.901  14.905 -0.1627  0.0903 -0.0353
   42DOPC   C3B  492   3.734   8.742  14.465 -0.0252  0.3657  0.2040
   42DOPC   C4B  493   3.461   8.575  14.168  0.0729  0.1316 -0.1817
   43POSM   NC3  494   2.449  10.319  16.469 -0.3449 -0.1338  0.1087
   43POSM   PO4  495   2.740  10.282  16.237  0.0398 -0.0376  0.1544
   43POSM   AM1  496   2.635  10.212  15.933  0.2734  0.3014 -0.1341
   43POSM   AM2  497   2.591   9.973  15.774 -0.1026  0.1370  0.1779
   43POSM   T1A  498   2.672  10.354  15.429 -0.1565 -0.0972  0.2178
   43POSM   C2A  499   2.623  10.322  14.978  0.0569  0.2468 -0.0017
   43POSM   C3A  500   2.969  10.498  14.772  0.2033 -0.1927  0.1529
   43POSM   C1B  501   2.823   9.882  15.501 -0.1219 -0.1848 -0.1860
   43POSM   D2B  502   2.996  10.049  15.073  0.1845  0.0564 -0.0729
   43POSM   C3B  503   3.088   9.926  14.619 -0.0125 -0.0946  0.0425
   43POSM   C4B  504   3.156   9.670  14.219 -0.1254  0.0255 -0.4077
   44DOPC   NC3  505   9.245   0.961  15.449  0.5050  0.1500  0.0032
   44DOPC   PO4  506   9.360   1.224  15.729  0.0689  0.1308 -0.2182
   44DOPC   GL1  507   9.253   1.390  15.344  0.1305 -0.0028 -0.1807
   44DOPC   GL2  508   9.271   1.705  15.305 -0.0183  0.0872  0.1901
   44DOPC   C1A  509   9.289   1.387  14.853 -0.0321 -0.2762  0.1604
   44DOPC   D2A  510   9.437   1.760  14.588 -0.1714  0.0944 -0.1969
   44DOPC   C3A  511   9.259   1.841  14.206 -0.0060 -0.3427 -0.1569
   44DOPC   C4A  512   8.886   2.066  14.039 -0.1134 -0.2071  0.2397
   44DOPC   C1B  513   9.148   1.903  14.918 -0.1290 -0.1053  0.1115
   44DOPC   D2B  514   8.969   2.116  14.546  0.1548  0.0151  0.2066
   44DOPC   C3B  515   8.883   2.537  14.377 -0.0285 -0.0438 -0.2849
   44DOPC   C4B  516   8.974   2.798  14.001 -0.1630  0.1141  0.0115
   45POSM   NC3  517  34.607   7.874  16.231 -0.0472 -0.2672  0.0410
   45POSM   PO4  518  34.846   8.218  16.139 -0.0498 -0.3837  0.0287
   45POSM   AM1  519  34.935   8.143  15.830  0.0305  0.2693  0.1408
   45POSM   AM2  520  35.091   8.281  15.639 -0.0536 -0.2697  0.0592
   45POSM   T1A  521  34.898   7.867  15.417  0.1493  0.1054 -0.2297
   45POSM   C2A  522  35.162   7.788  15.075  0.0254 -0.2513 -0.0020
   45POSM   C3A  523  35.347   7.551  14.772  0.3635 -0.2281  0.3196
   45POSM   C1B  524  35.077   8.383  15.335  0.2540 -0.0681 -0.1680
   45POSM   D2B  525  35.105   8.580  14.922 -0.0779  0.1297 -0.0611
   45POSM   C3B  526  35.394   8.472  14.540 -0.0057 -0.0785  0.3907
   45POSM   C4B  527  35.317   8.777  14.125 -0.0168  0.1406 -0.0779
   46DOPC   NC3  528   3.736   5.122  16.232  0.0588 -0.2203  0.0480
   46DOPC   PO4  529   3.452   4.882  16.154 -0.1910 -0.1308  0.2602
   46DOPC   GL1  530   3.301   5.065  16.031  0.2520 -0.4331 -0.0272
   46DOPC   GL2  531   2.958   5.054  15.994 -0.2413  0.1983  0.3417
   46DOPC   C1A  532   3.295   5.160  15.555 -0.3796 -0.1868  0.1420
   46DOPC   D2A  533   3.303   5.349  15.140 -0.0759  0.0970  0.0541
   46DOPC   C3A  534   3.734   5.389  15.119 -0.1084  0.0818  0.1814
   46DOPC   C4A  535   4.038   5.071  15.047  0.3121 -0.0026 -0.1667
   46DOPC   C1B  536   2.755   4.958  15.560 -0.2561 -0.1852  0.1194
   46DOPC   D2B  537   2.992   4.947  15.137 -0.0331 -0.1140  0.0511
   46DOPC   C3B  538   2.795   4.867  14.704 -0.1304 -0.0149 -0.1272
   46DOPC   C4B  539   2.812   4.451  14.481 -0.0293  0.0778  0.1851
   47POSM   NC3  540   1.586  10.483  16.009 -0.2815  0.3107 -0.0096
   47POSM   PO4  541   1.491  10.858  16.070 -0.1111  0.0876 -0.0096
   47POSM   AM1  542   1.383  10.802  15.748 -0.0447 -0.2830  0.2175
   47POSM   AM2  543   1.422  10.638  15.543 -0.1123 -0.2337 -0.1241
   47POSM   T1A  544   1.086  10.995  15.432 -0.0008 -0.2149  0.2087
   47POSM   C2A  545   0.762  11.081  15.093  0.1169  0.0016 -0.3095
   47POSM   C3A  546   0.315  11.127  15.039  0.3181  0.1702 -0.0021
   47POSM   C1B  547   1.324  10.573  15.196 -0.0560  0.0199  0.2382
   47POSM   D2B  548   1.441  10.537  14.753  0.0216 -0.0449 -0.2524
   47POSM   C3B  549   1.688  10.645  14.397  0.1604 -0.2169 -0.1454
   47POSM   C4B  550   1.924  10.646  13.994  0.3339 -0.0145  0.2455
   48DOPE   NH3  551   3.513   7.476  16.156 -0.1094 -0.3136 -0.0540
   48DOPE   PO4  552   3.688   7.251  15.968  0.4026  0.2153  0.3995
   48DOPE   GL1  553   3.870   6.975  15.695 -0.2100 -0.0787 -0.0514
   48DOPE   GL2  554   3.699   7.140  15.490 -0.0226 -0.0786  0.0237
   48DOPE   C1A  555   4.083   6.999  15.287 -0.2561  0.0111  0.5690
   48DOPE   D2A  556   4.375   7.206  15.036  0.2045 -0.0347 -0.2242
   48DOPE   C3A  557   4.641   7.302  14.706 -0.1588  0.1577 -0.3060
   48DOPE   C4A  558   4.939   7.252  14.400 -0.1268 -0.0600  0.0912
   48DOPE   C1B  559   3.568   6.975  15.087  0.0029 -0.1146  0.0212
   48DOPE   D2B  560   3.270   6.862  14.768 -0.1228 -0.1642  0.0679
   48DOPE   C3B  561   3.118   7.231  14.609  0.0291  0.0752 -0.1171
   48DOPE   C4B  562   3.113   7.663  14.581 -0.0399 -0.1362  0.0375
   49DOPC   NC3  563  10.326   2.320  14.987 -0.0177  0.1422 -0.1075
   49DOPC   PO4  564  10.049   2.096  15.003 -0.1427  0.0270  0.1255
   49DOPC   GL1  565   9.919   1.984  14.693  0.5582  0.0139 -0.0237
   49DOPC   GL2  566  10.052   2.132  14.486  0.1531 -0.1855  0.1628
   49DOPC   C1A  567   9.831   1.749  14.312  0.3749  0.2928 -0.4004
   49DOPC   D2A  568   9.681   1.541  13.903 -0.4640  0.2825 -0.1005
   49DOPC   C3A  569   9.268   1.532  13.788  0.0231 -0.4124 -0.0313
   49DOPC   C4A  570   9.041   1.649  13.377  0.0023 -0.0470 -0.4684
   49DOPC   C1B  571  10.261   2.339  14.075  0.1285 -0.1899  0.0896
   49DOPC   D2B  572  10.438   2.426  13.616 -0.0026 -0.1103 -0.1482
   49DOPC   C3B  573  10.367   2.731  13.362  0.0318 -0.4243  0.6120
   49DOPC   C4B  574  10.417   2.740  12.891  0.0297 -0.1679 -0.1356
   50DOPC   NC3  575   6.743   0.579  15.817  0.4213  0.0001  0.1173
   50DOPC   PO4  576   7.082   0.705  15.855  0.1201 -0.0305 -0.1517
   50DOPC   GL1  577   7.032   0.732  15.504  0.4366 -0.2572 -0.0181
   50DOPC   GL2  578   6.926   0.541  15.347 -0.1349 -0.1867  0.1943
   50DOPC   C1A  579   6.834   0.967  15.131  0.0969  0.2022 -0.2859
   50DOPC   D2A  580   6.709   0.818  14.720 -0.1606  0.0618  0.2068
   50DOPC   C3A  581   6.863   1.120  14.462  0.3524 -0.1007  0.0918
   50DOPC   C4A  582   6.961   1.534  14.256  0.1446  0.0017  0.2854
   50DOPC   C1B  583   6.673   0.332  15.001 -0.1501  0.1796  0.1939
   50DOPC   D2B  584   6.336   0.373  14.670  0.1001  0.2158  0.1372
   50DOPC   C3B  585   6.327   0.350  14.207 -0.2531 -0.0301 -0.0257
   50DOPC   C4B  586   6.284   0.259  13.746 -0.2036 -0.4650  0.1603
   51DOPC   NC3  587   3.936   4.773  15.917 -0.1252 -0.4075  0.0923
   51DOPC   PO4  588   4.263   4.985  16.033 -0.0896 -0.1124  0.3810
   51DOPC   GL1  589   4.324   5.008  15.660 -0.3893  0.2801 -0.1970
   51DOPC   GL2  590   4.210   4.800  15.484  0.2394  0.3997 -0.1157
   51DOPC   C1A  591   4.373   5.290  15.310 -0.0325  0.1244 -0.1035
   51DOPC   D2A  592   4.649   5.619  15.100 -0.1427  0.0993 -0.0756
   51DOPC   C3A  593   4.524   5.628  14.664 -0.0263  0.0308 -0.2482
   51DOPC   C4A  594   4.345   5.422  14.269  0.0592  0.0463 -0.0346
   51DOPC   C1B  595   3.861   4.549  15.301  0.1958  0.2737 -0.1309
   51DOPC   D2B  596   3.549   4.310  15.027 -0.1815  0.0306  0.0470
   51DOPC   C3B  597   3.661   4.376  14.596  0.0639  0.3554 -0.2160
   51DOPC   C4B  598   3.750   4.449  14.128  0.2834  0.3039  0.0166
   52DOPC   NC3  599  10.214   7.948  15.720  0.0515 -0.1935  0.2253
   52DOPC   PO4  600  10.340   8.290  15.586 -0.1681 -0.1011 -0.2763
   52DOPC   GL1  601  10.383   8.374  15.165 -0.3732  0.0175  0.0840
   52DOPC   GL2  602  10.417   8.095  15.156  0.2026 -0.1724  0.0471
   52DOPC   C1A  603  10.295   8.625  14.813 -0.1582 -0.1391  0.2315
   52DOPC   D2A  604  10.122   8.787  14.403 -0.1900 -0.1989  0.0327
   52DOPC   C3A  605   9.717   8.843  14.171 -0.2290 -0.2114 -0.0276
   52DOPC   C4A  606   9.354   9.077  14.047  0.1588 -0.2749  0.3443
   52DOPC   C1B  607  10.450   7.881  14.704 -0.2322  0.0801 -0.0741
   52DOPC   D2B  608  10.510   7.751  14.223 -0.1508  0.0030 -0.0026
   52DOPC   C3B  609  10.275   7.372  13.931 -0.2877 -0.2742  0.2101
   52DOPC   C4B  610  10.296   6.954  13.679 -0.0427  0.1244 -0.2300
   53DOPS   CNO  611   5.858   5.412  15.959  0.2372 -0.0602 -0.0985
   53DOPS   PO4  612   6.171   5.512  16.174 -0.1387  0.3061 -0.0435
   53DOPS   GL1  613   6.280   5.548  15.712  0.2630  0.0834  0.2744
   53DOPS   GL2  614   6.009   5.845  15.688 -0.0618 -0.0125  0.2544
   53DOPS   C1A  615   5.980   5.342  15.364 -0.0799 -0.1069 -0.4454
   53DOPS   D2A  616   5.767   5.216  15.063 -0.0379 -0.4631  0.2206
   53DOPS   C3A  617   6.077   5.036  14.720 -0.1690 -0.0032  0.1411
   53DOPS   C4A  618   6.202   5.015  14.319 -0.3563  0.1475 -0.2970
   53DOPS   C1B  619   6.231   5.749  15.276 -0.1159  0.1291  0.1774
   53DOPS   D2B  620   6.143   5.627  14.858 -0.1874  0.3145 -0.1278
   53DOPS   C3B  621   6.265   5.451  14.443 -0.2220 -0.0923  0.0830
   53DOPS   C4B  622   6.445   5.402  14.018 -0.2766  0.1326  0.0710
   54DOPC   NC3  623   6.671   4.432  16.083  0.1639  0.1420  0.0640
   54DOPC   PO4  624   6.987   4.264  16.244 -0.1014  0.2648  0.2708
   54DOPC   GL1  625   7.106   4.275  15.840  0.3056  0.0548  0.3337
   54DOPC   GL2  626   7.207   4.520  15.822  0.1432 -0.0533  0.1682
   54DOPC   C1A  627   7.331   4.223  15.433  0.0728 -0.1664 -0.2211
   54DOPC   D2A  628   7.496   4.391  15.034  0.0313  0.0681  0.0206
   54DOPC   C3A  629   7.490   4.211  14.617  0.1727 -0.1913 -0.3168
   54DOPC   C4A  630   7.164   3.884  14.396  0.1093 -0.0236  0.3540
   54DOPC   C1B  631   6.815   4.853  15.826 -0.0900 -0.0208 -0.4247
   54DOPC   D2B  632   6.458   5.168  15.729  0.3587 -0.1157  0.0891
   54DOPC   C3B  633   6.479   5.374  15.297 -0.1756 -0.2185 -0.0253
   54DOPC   C4B  634   6.464   5.247  14.825  0.0191  0.0908  0.0419
   55DOPS   CNO  635   7.520   7.280  16.212  0.1374  0.0341  0.1208
   55DOPS   PO4  636   7.699   7.600  16.151 -0.2083 -0.1048 -0.2410
   55DOPS   GL1  637   7.562   7.623  15.799  0.0772  0.0287  0.3914
   55DOPS   GL2  638   7.446   7.337  15.744 -0.1454 -0.0018  0.1444
   55DOPS   C1A  639   7.731   7.516  15.360  0.1175 -0.2557 -0.1785
   55DOPS   D2A  640   7.833   7.552  14.899  0.0025 -0.0773 -0.0416
   55DOPS   C3A  641   7.917   7.596  14.448 -0.2717 -0.0281 -0.2542
   55DOPS   C4A  642   8.174   7.466  14.044  0.1433  0.2933 -0.3450
   55DOPS   C1B  643   7.166   7.463  15.397  0.0458  0.2390  0.0433
   55DOPS   D2B  644   6.875   7.681  15.088 -0.4802 -0.1374  0.0154
   55DOPS   C3B  645   6.696   8.055  14.945  0.2873 -0.0322  0.2001
   55DOPS   C4B  646   6.882   8.405  14.725  0.0041 -0.1831 -0.0508
   56POSM   NC3  647  11.427   1.106  15.060  0.2944  0.0889 -0.1179
   56POSM   PO4  648  11.640   0.829  15.332  0.1166  0.0887 -0.2661
   56POSM   AM1  649  11.607   0.495  15.250  0.0202 -0.1337  0.0915
   56POSM   AM2  650  11.502   0.285  15.369  0.0850  0.1839  0.2609
   56POSM   T1A  651  11.764   0.233  14.846  0.1428 -0.2385 -0.4323
   56POSM   C2A  652  12.036   0.124  14.490 -0.0728 -0.3095 -0.2002
   56POSM   C3A  653  12.467   0.278  14.404 -0.0970 -0.1201  0.1327
   56POSM   C1B  654  11.289   0.124  15.169  0.1930  0.0057  0.1999
   56POSM   D2B  655  11.233  -0.162  14.824 -0.1975 -0.2164  0.3086
   56POSM   C3B  656  11.436  -0.016  14.468  0.1577 -0.1088 -0.0474
   56POSM   C4B  657  11.621   0.382  14.330  0.1594 -0.1368 -0.2334
   57DOPS   CNO  658   4.973   4.328  16.190 -0.1613  0.1421 -0.0006
   57DOPS   PO4  659   5.036   4.630  15.962  0.1490 -0.0109 -0.0669
   57DOPS   GL1  660   4.811   4.713  15.600  0.1403 -0.0956  0.1214
   57DOPS   GL2  661   4.634   4.579  15.420 -0.0584 -0.1740 -0.3407
   57DOPS   C1A  662   4.793   5.014  15.220  0.2048 -0.1454 -0.0920
   57DOPS   D2A  663   4.597   5.181  14.895  0.0660 -0.2381  0.3145
   57DOPS   C3A  664   4.290   5.009  14.564  0.0049 -0.2174  0.0295
   57DOPS   C4A  665   4.030   4.732  14.639  0.0018  0.0323 -0.0333
   57DOPS   C1B  666   4.470   4.669  15.018  0.2411 -0.0133  0.2314
   57DOPS   D2B  667   4.447   4.440  14.612  0.2991  0.4104  0.1167
   57DOPS   C3B  668   4.408   4.625  14.212  0.2595  0.2991  0.0607
   57DOPS   C4B  669   4.526   5.020  14.029 -0.0760  0.1711 -0.0929
   58DOPS   CNO  670   1.353   3.301  15.822  0.0288 -0.0838 -0.0614
   58DOPS   PO4  671   1.020   3.415  15.876  0.0014  0.1071 -0.1193
   58DOPS   GL1  672   1.074   3.531  15.491  0.3161  0.1461  0.2266
   58DOPS   GL2  673   0.836   3.618  15.359 -0.1288 -0.2761 -0.0878
   58DOPS   C1A  674   1.043   3.138  15.229  0.0611 -0.0363  0.3094
   58DOPS   D2A  675   0.962   3.077  14.785  0.0161 -0.3235  0.1130
   58DOPS   C3A  676   0.696   3.042  14.419  0.0251  0.4741  0.0233
   58DOPS   C4A  677   0.403   3.173  14.116  0.0502 -0.1166  0.0656
   58DOPS   C1B  678   0.901   3.521  14.852 -0.0193 -0.0845 -0.0350
   58DOPS   D2B  679   1.073   3.418  14.421  0.3035 -0.0054  0.2844
   58DOPS   C3B  680   1.252   3.181  14.106 -0.0000  0.2633 -0.0937
   58DOPS   C4B  681   1.262   2.994  13.661 -0.3910  0.1281 -0.0403
   59DOPE   NH3  682   3.399   4.438  16.398  0.1979 -0.0192 -0.0305
   59DOPE   PO4  683   3.673   4.482  16.251  0.1424  0.0482 -0.3904
   59DOPE   GL1  684   3.531   4.530  15.853  0.1133 -0.2334  0.2784
   59DOPE   GL2  685   3.478   4.739  15.673  0.2325  0.1354 -0.0088
   59DOPE   C1A  686   3.486   4.152  15.587 -0.3475 -0.0740  0.1980
   59DOPE   D2A  687   3.650   3.916  15.261  0.2894 -0.0984 -0.0982
   59DOPE   C3A  688   3.375   3.848  14.896 -0.0004 -0.1235  0.1590
   59DOPE   C4A  689   3.231   4.097  14.550 -0.0168 -0.1198  0.0024
   59DOPE   C1B  690   3.128   4.518  15.444 -0.1289  0.0416 -0.0342
   59DOPE   D2B  691   3.087   4.106  15.233 -0.2886  0.3833  0.4680
   59DOPE   C3B  692   2.839   4.018  14.824 -0.1089 -0.4091  0.4015
   59DOPE   C4B  693   2.796   3.942  14.364 -0.1261 -0.1505 -0.0494
   60DOPE   NH3  694   8.753   0.187  15.327  0.0670  0.2415 -0.1084
   60DOPE   PO4  695   8.489   0.365  15.459  0.1410 -0.0402 -0.0184
   60DOPE   GL1  696   8.440   0.500  15.094 -0.1146  0.1380  0.0151
   60DOPE   GL2  697   8.183   0.593  15.162  0.1858  0.2251 -0.0412
   60DOPE   C1A  698   8.709   0.606  14.683  0.0242 -0.0212 -0.0507
   60DOPE   D2A  699   8.906   0.913  14.397 -0.0758  0.1734 -0.0883
   60DOPE   C3A  700   8.852   1.011  13.982 -0.1216  0.1526 -0.2726
   60DOPE   C4A  701   8.955   0.985  13.532  0.1511 -0.1083  0.3420
   60DOPE   C1B  702   8.458   0.967  14.945 -0.1734 -0.0677 -0.1357
   60DOPE   D2B  703   8.994   0.997  14.899 -0.0254  0.1097 -0.1475
   60DOPE   C3B  704   9.378   0.939  14.674  0.0067  0.2208 -0.1809
   60DOPE   C4B  705   9.737   1.277  14.534  0.1946 -0.0253  0.0863
   61DOPE   NH3  706   7.189   9.260  16.009 -0.0249  0.0446  0.1615
   61DOPE   PO4  707   7.438   9.187  16.136 -0.1104  0.0000 -0.1578
   61DOPE   GL1  708   7.753   9.337  15.854 -0.0189 -0.0372 -0.2048
   61DOPE   GL2  709   7.530   9.345  15.671 -0.0029 -0.1530 -0.1474
   61DOPE   C1A  710   7.949   9.488  15.462  0.1702 -0.5093 -0.0248
   61DOPE   D2A  711   7.946   9.449  14.960  0.2335 -0.0217  0.1372
   61DOPE   C3A  712   8.107   9.850  14.645 -0.0975  0.0440 -0.1031
   61DOPE   C4A  713   7.968  10.135  14.280  0.1607 -0.1365 -0.0658
   61DOPE   C1B  714   7.487   9.586  15.215  0.1454 -0.3196  0.3055
   61DOPE   D2B  715   7.226   9.609  14.802  0.0341  0.0749 -0.1490
   61DOPE   C3B  716   7.091   9.457  14.400 -0.2053  0.2703  0.1995
   61DOPE   C4B  717   6.750   9.667  14.164 -0.0731  0.1412  0.0878
   62DOPC   NC3  718   4.952   7.718  15.937  0.1507  0.2241 -0.0260
   62DOPC   PO4  719   5.193   7.454  15.968 -0.1208  0.2994  0.1341
   62DOPC   GL1  720   5.088   7.496  15.565  0.0839 -0.0035 -0.1922
   62DOPC   GL2  721   5.195   7.646  15.301 -0.0641 -0.1764  0.1387
   62DOPC   C1A  722   4.821   7.180  15.389 -0.2230 -0.0639 -0.2141
   62DOPC   D2A  723   4.569   6.749  15.355  0.0314 -0.0132 -0.0185
   62DOPC   C3A  724   4.359   6.721  14.971 -0.3182 -0.0052 -0.0765
   62DOPC   C4A  725   4.397   6.392  14.659  0.2293  0.2124  0.0811
   62DOPC   C1B  726   5.047   7.344  14.997  0.0740  0.0573 -0.2315
   62DOPC   D2B  727   4.844   6.940  14.957  0.1372 -0.1197  0.0968
   62DOPC   C3B  728   5.259   6.731  14.796  0.2210 -0.2536 -0.1223
   62DOPC   C4B  729   5.541   6.650  14.408 -0.0694 -0.3350 -0.1422
   63DOPC   NC3  730  11.720   4.243  15.265  0.0801  0.0315 -0.0916
   63DOPC   PO4  731  11.355   4.092  15.271  0.1363  0.1947  0.1024
   63DOPC   GL1  732  11.355   4.263  14.829  0.0195  0.0342 -0.2457
   63DOPC   GL2  733  11.585   4.101  14.724  0.2343 -0.1178 -0.0503
   63DOPC   C1A  734  11.386   4.645  14.531  0.0538 -0.0205 -0.1271
   63DOPC   D2A  735  11.289   4.732  14.043  0.1091  0.1434  0.0002
   63DOPC   C3A  736  11.335   4.533  13.634  0.0810 -0.1595 -0.0938
   63DOPC   C4A  737  11.454   4.250  13.296 -0.2335  0.0783  0.1015
   63DOPC   C1B  738  11.615   3.805  14.473  0.2989  0.0798 -0.0698
   63DOPC   D2B  739  11.935   3.432  14.451 -0.0365 -0.0397 -0.0311
   63DOPC   C3B  740  12.347   3.449  14.146 -0.1096 -0.0887 -0.2158
   63DOPC   C4B  741  12.727   3.405  13.903  0.0532 -0.0670  0.1393
   64POSM   NC3  742   4.406   5.278  16.402 -0.2135 -0.2034  0.0690
   64POSM   PO4  743   4.090   5.457  16.281  0.2093 -0.1088 -0.3116
   64POSM   AM1  744   4.088   5.429  15.954  0.4087 -0.2832 -0.2600
   64POSM   AM2  745   3.952   5.225  15.764  0.0432  0.0937 -0.1895
   64POSM   T1A  746   4.073   5.684  15.520  0.0372 -0.0144  0.0459
   64POSM   C2A  747   4.315   5.958  15.315 -0.1513  0.0469  0.0387
   64POSM   C3A  748   4.239   6.400  15.285  0.0042  0.1165  0.0154
   64POSM   C1B  749   3.803   5.083  15.498  0.1888 -0.1133 -0.0135
   64POSM   D2B  750   3.501   4.852  15.181 -0.0564 -0.2199 -0.1168
   64POSM   C3B  751   3.563   4.995  14.755 -0.1207  0.1933  0.1248
   64POSM   C4B  752   3.443   5.237  14.390 -0.0840  0.1012  0.1957
   65POSM   NC3  753   1.286   9.698  15.975  0.0705  0.0423  0.0249
   65POSM   PO4  754   1.580   9.947  16.012 -0.0191  0.3523 -0.0432
   65POSM   AM1  755   1.638   9.996  15.693 -0.3232  0.2915  0.1638
   65POSM   AM2  756   1.675  10.178  15.484 -0.1390 -0.4092  0.1217
   65POSM   T1A  757   1.849   9.766  15.276  0.0319  0.0656 -0.0381
   65POSM   C2A  758   1.937   9.499  14.953 -0.0137 -0.0677  0.0540
   65POSM   C3A  759   1.865   9.029  14.723 -0.0408  0.0844 -0.2145
   65POSM   C1B  760   1.792  10.247  15.193 -0.0988  0.0442 -0.2159
   65POSM   D2B  761   1.986  10.500  14.854  0.0818 -0.0199 -0.0606
   65POSM   C3B  762   2.107  10.314  14.454 -0.0822 -0.1210  0.1417
   65POSM   C4B  763   2.226  10.049  14.055  0.2479 -0.1708 -0.0790
   66DOPE   NH3  764   2.564   2.890  15.888  0.1823  0.2340 -0.1167
   66DOPE   PO4  765   2.742   2.990  15.660 -0.2206 -0.2809 -0.4586
   66DOPE   GL1  766   2.881   3.134  15.330 -0.5014  0.0653  0.1334
   66DOPE   GL2  767   2.895   3.460  15.220  0.0562  0.0669  0.1974
   66DOPE   C1A  768   3.166   3.071  14.981  0.0470  0.2019 -0.2768
   66DOPE   D2A  769   3.339   3.013  14.521 -0.0343 -0.0582  0.3795
   66DOPE   C3A  770   3.549   3.301  14.188  0.2037  0.0672  0.2072
   66DOPE   C4A  771   3.814   3.225  13.825 -0.0589  0.0330  0.0259
   66DOPE   C1B  772   3.010   3.494  14.803  0.2044 -0.0080 -0.2557
   66DOPE   D2B  773   3.044   3.518  14.314 -0.0555  0.2746  0.0766
   66DOPE   C3B  774   3.088   3.333  13.937  0.2172  0.3853  0.3146
   66DOPE   C4B  775   3.351   2.983  13.763  0.2338 -0.0630  0.1503
   67DOPE   NH3  776   1.336   4.266  16.043 -0.1543 -0.1178 -0.1433
   67DOPE   PO4  777   1.685   4.244  15.964  0.3775 -0.2328  0.1001
   67DOPE   GL1  778   1.813   4.178  15.620 -0.3440  0.3049  0.0492
   67DOPE   GL2  779   1.759   3.884  15.483  0.2956 -0.1804 -0.3266
   67DOPE   C1A  780   2.271   4.213  15.536  0.1311  0.1719  0.0902
   67DOPE   D2A  781   2.689   4.355  15.489  0.0207 -0.1314 -0.1069
   67DOPE   C3A  782   2.792   4.432  15.033  0.0858 -0.0452  0.0790
   67DOPE   C4A  783   3.185   4.557  14.822 -0.2678  0.0557 -0.1026
   67DOPE   C1B  784   1.852   4.159  15.136 -0.0359  0.2643 -0.0247
   67DOPE   D2B  785   1.835   4.272  14.675 -0.1724  0.2396 -0.0521
   67DOPE   C3B  786   1.847   3.948  14.346  0.1114  0.1058 -0.0876
   67DOPE   C4B  787   1.751   4.087  13.971 -0.1188 -0.0131  0.5470
   68DOPE   NH3  788   5.329  11.205  15.941  0.0475  0.0704 -0.0396
   68DOPE   PO4  789   5.117  11.407  15.943  0.2493 -0.4349  0.1471
   68DOPE   GL1  790   4.888  11.516  15.575 -0.0024 -0.1232  0.0225
   68DOPE   GL2  791   4.920  11.807  15.582 -0.3597  0.0990 -0.0842
   68DOPE   C1A  792   4.914  11.587  15.099 -0.0220 -0.1432  0.1481
   68DOPE   D2A  793   4.920  11.976  14.741 -0.2659  0.1119  0.1774
   68DOPE   C3A  794   5.283  11.906  14.950  0.2583 -0.3257  0.2700
   68DOPE   C4A  795   5.698  12.160  14.946  0.2590 -0.0483 -0.0602
   68DOPE   C1B  796   4.512  11.796  15.394  0.0744 -0.0950 -0.3566
   68DOPE   D2B  797   4.462  11.795  14.967 -0.0711 -0.2003  0.1256
   68DOPE   C3B  798   4.560  11.684  14.493  0.1772 -0.1429  0.0975
   68DOPE   C4B  799   4.443  11.791  14.054 -0.0080  0.1773  0.1484
   69DOPC   NC3  800   0.884   1.638  15.736 -0.0585  0.0885 -0.0353
   69DOPC   PO4  801   1.185   1.837  15.889 -0.0899  0.1990  0.0640
   69DOPC   GL1  802   1.207   1.966  15.540  0.1513 -0.3727 -0.2550
   69DOPC   GL2  803   1.349   1.767  15.408 -0.1088 -0.1255  0.2676
   69DOPC   C1A  804   0.899   2.200  15.280 -0.1495 -0.1004  0.0638
   69DOPC   D2A  805   0.518   2.341  15.184  0.2188  0.0576  0.0535
   69DOPC   C3A  806   0.307   2.234  14.778  0.0992  0.1139  0.1230
   69DOPC   C4A  807   0.103   2.203  14.372  0.0741 -0.1477  0.1552
   69DOPC   C1B  808   1.042   1.617  15.125  0.2475 -0.1140  0.0359
   69DOPC   D2B  809   0.998   1.530  14.721 -0.0086 -0.2462  0.1482
   69DOPC   C3B  810   1.169   1.177  14.448  0.3134  0.0083  0.0614
   69DOPC   C4B  811   1.431   0.847  14.292  0.1856  0.1393  0.2714
   70DOPC   NC3  812   0.506   5.434  15.672 -0.0227  0.1462 -0.2044
   70DOPC   PO4  813   0.468   5.801  15.770  0.1600  0.3116 -0.0301
   70DOPC   GL1  814   0.476   5.726  15.328  0.0529 -0.2521  0.1436
   70DOPC   GL2  815   0.718   5.676  15.191 -0.0240  0.0880 -0.1051
   70DOPC   C1A  816   0.287   5.815  14.881 -0.3643  0.1825 -0.0912
   70DOPC   D2A  817   0.491   5.789  14.463 -0.0895 -0.1415 -0.1374
   70DOPC   C3A  818   0.608   6.226  14.426 -0.1358  0.2175 -0.0331
   70DOPC   C4A  819   0.902   6.529  14.633 -0.2259  0.1293  0.2202
   70DOPC   C1B  820   0.828   5.947  14.835  0.3803  0.2362  0.1397
   70DOPC   D2B  821   1.137   6.105  14.495 -0.0022  0.1191  0.1192
   70DOPC   C3B  822   0.976   6.334  14.120  0.1271  0.1198 -0.3209
   70DOPC   C4B  823   0.937   6.131  13.695 -0.0236 -0.5515  0.0626
   71POSM   NC3  824   5.336   1.603  16.703  0.1564 -0.2989  0.3106
   71POSM   PO4  825   5.610   1.876  16.581 -0.1533  0.1153  0.0042
   71POSM   AM1  826   5.408   2.033  16.357 -0.0562  0.0685  0.1358
   71POSM   AM2  827   5.415   2.315  16.263 -0.0062 -0.1096  0.3058
   71POSM   T1A  828   5.197   2.031  15.910  0.3410  0.2004  0.1433
   71POSM   C2A  829   5.061   2.314  15.533  0.0011 -0.0987  0.0841
   71POSM   C3A  830   4.981   2.260  15.114  0.0472 -0.1017 -0.2314
   71POSM   C1B  831   5.354   2.527  15.976  0.0607 -0.0065 -0.0179
   71POSM   D2B  832   5.511   2.705  15.512 -0.0277  0.0105  0.0111
   71POSM   C3B  833   5.381   3.067  15.181  0.0808 -0.1080 -0.1699
   71POSM   C4B  834   5.408   3.515  15.146 -0.1140 -0.0909 -0.0182
   72DOPC   NC3  835   1.957  10.864  15.872  0.0192 -0.1516 -0.0418
   72DOPC   PO4  836   2.224  11.163  15.940 -0.3626  0.2023  0.1380
   72DOPC   GL1  837   2.242  11.176  15.514  0.1436  0.1433 -0.0603
   72DOPC   GL2  838   2.334  10.903  15.450  0.1749 -0.0057  0.2109
   72DOPC   C1A  839   2.009  11.208  15.142  0.2811 -0.2248  0.0831
   72DOPC   D2A  840   1.737  11.489  14.913  0.0005 -0.0803 -0.1048
   72DOPC   C3A  841   1.476  11.784  15.143  0.1787 -0.0491 -0.1137
   72DOPC   C4A  842   1.476  11.939  15.575  0.1306  0.1434 -0.2475
   72DOPC   C1B  843   2.415  10.768  15.074 -0.1544  0.0385 -0.1494
   72DOPC   D2B  844   2.471  10.633  14.629 -0.5366 -0.0318 -0.0861
   72DOPC   C3B  845   2.708  10.284  14.450 -0.0999  0.2662 -0.1182
   72DOPC   C4B  846   2.980  10.150  14.071 -0.1941 -0.0990  0.1906
   73DOPE   NH3  847   8.473   2.605  15.569  0.0061 -0.1670 -0.2328
   73DOPE   PO4  848   8.804   2.495  15.562  0.0425 -0.0177 -0.1455
   73DOPE   GL1  849   8.659   2.257  15.227  0.0999  0.0162 -0.0566
   73DOPE   GL2  850   8.921   2.282  15.041  0.1179 -0.2011 -0.0667
   73DOPE   C1A  851   8.527   2.023  14.855  0.1199  0.0849 -0.1830
   73DOPE   D2A  852   8.505   1.915  14.407  0.1296 -0.1691 -0.0531
   73DOPE   C3A  853   8.710   1.541  14.139  0.1346  0.1210 -0.4722
   73DOPE   C4A  854   8.664   1.342  13.688  0.1864 -0.2308  0.4465
   73DOPE   C1B  855   8.577   2.498  14.826  0.1494  0.0306 -0.0376
   73DOPE   D2B  856   8.375   2.412  14.414 -0.2828 -0.0104 -0.3356
   73DOPE   C3B  857   8.478   2.587  13.995  0.0808  0.0956  0.0321
   73DOPE   C4B  858   8.274   2.614  13.560  0.0328 -0.0424  0.1490
   74DOPC   NC3  859   3.056   6.148  16.183  0.0457 -0.0124  0.1062
   74DOPC   PO4  860   3.179   6.550  16.236 -0.1046  0.0979 -0.0469
   74DOPC   GL1  861   3.284   6.481  15.861 -0.1591 -0.2475  0.2951
   74DOPC   GL2  862   3.270   6.742  15.752  0.1106  0.2867  0.0593
   74DOPC   C1A  863   2.918   6.456  15.605  0.2296 -0.0392 -0.1104
   74DOPC   D2A  864   2.525   6.335  15.369  0.0392  0.3912 -0.0762
   74DOPC   C3A  865   2.419   6.615  14.962  0.0901 -0.1320 -0.4629
   74DOPC   C4A  866   2.750   6.753  14.664  0.1562 -0.0383 -0.2322
   74DOPC   C1B  867   3.046   7.045  15.485 -0.3565  0.3359  0.1928
   74DOPC   D2B  868   3.088   7.377  15.164  0.1702  0.0814 -0.0295
   74DOPC   C3B  869   3.442   7.491  15.006 -0.0489 -0.0917  0.0564
   74DOPC   C4B  870   3.862   7.326  14.881  0.3393  0.1739  0.6002
   75DOPE   NH3  871   0.707   8.262  16.038 -0.0902 -0.0475 -0.1677
   75DOPE   PO4  872   0.764   8.557  15.918 -0.0587  0.0490  0.0442
   75DOPE   GL1  873   0.792   8.595  15.498 -0.3600  0.0415 -0.0996
   75DOPE   GL2  874   0.570   8.847  15.474 -0.0040  0.1600 -0.0067
   75DOPE   C1A  875   0.932   8.752  15.113  0.1243  0.1237  0.2912
   75DOPE   D2A  876   0.820   8.903  14.690  0.1163 -0.2200  0.0784
   75DOPE   C3A  877   1.165   8.770  14.478 -0.0051 -0.1410  0.0758
   75DOPE   C4A  878   1.275   8.698  14.014  0.2211  0.0696 -0.0474
   75DOPE   C1B  879   0.378   9.055  15.075 -0.0495 -0.0891  0.0354
   75DOPE   D2B  880   0.463   9.451  14.920  0.1058 -0.3063 -0.3914
   75DOPE   C3B  881   0.630   9.313  14.524 -0.2516  0.2639 -0.1221
   75DOPE   C4B  882   0.846   9.198  14.194 -0.0409  0.2231 -0.1842
   76DOPE   NH3  883   9.840   0.445  15.158  0.0290 -0.0703 -0.0143
   76DOPE   PO4  884  10.027   0.719  15.099 -0.0828 -0.0440 -0.0438
   76DOPE   GL1  885  10.004   0.803  14.724  0.0101  0.7189 -0.3259
   76DOPE   GL2  886   9.806   0.659  14.651 -0.1066 -0.3077  0.1423
   76DOPE   C1A  887  10.272   0.747  14.338 -0.0570 -0.0237 -0.0686
   76DOPE   D2A  888  10.279   0.786  13.922 -0.2071 -0.1012 -0.1223
   76DOPE   C3A  889   9.912   1.016  13.726  0.2008  0.0880  0.0261
   76DOPE   C4A  890   9.834   1.351  13.370 -0.2933  0.0850  0.1719
   76DOPE   C1B  891   9.661   0.774  14.221  0.5172 -0.3488  0.4342
   76DOPE   D2B  892   9.433   0.994  13.911  0.2676 -0.3089  0.2879
   76DOPE   C3B  893   9.574   0.810  13.522  0.0601  0.1733 -0.0267
   76DOPE   C4B  894   9.710   0.903  13.091  0.1679  0.1987  0.2445
   77DOPC   NC3  895   3.316   3.060  15.487  0.0877  0.0381 -0.3500
   77DOPC   PO4  896   3.583   2.747  15.588  0.2803  0.0032  0.1014
   77DOPC   GL1  897   3.581   2.812  15.256 -0.1029 -0.1343 -0.0805
   77DOPC   GL2  898   3.694   3.001  15.041  0.0817  0.0585  0.2557
   77DOPC   C1A  899   3.315   2.585  14.907  0.0190 -0.1237 -0.1903
   77DOPC   D2A  900   3.200   2.561  14.483  0.5428  0.2701 -0.2102
   77DOPC   C3A  901   3.029   2.908  14.179  0.2449 -0.2284  0.2077
   77DOPC   C4A  902   2.850   2.840  13.756  0.0167  0.3252 -0.1827
   77DOPC   C1B  903   3.556   3.348  14.822  0.0713  0.0128 -0.2887
   77DOPC   D2B  904   3.604   3.713  14.493 -0.1756  0.3374 -0.1811
   77DOPC   C3B  905   3.528   3.956  14.163 -0.0762  0.7139  0.1268
   77DOPC   C4B  906   3.607   4.209  13.739  0.1184 -0.0512  0.1684
   78DOPC   NC3  907   4.547   4.582  15.951 -0.2996 -0.0148 -0.2347
   78DOPC   PO4  908   4.281   4.350  15.838 -0.0253 -0.4255 -0.1372
   78DOPC   GL1  909   4.443   4.060  15.532 -0.0796 -0.1236  0.2265
   78DOPC   GL2  910   4.197   4.188  15.356  0.0683 -0.1555  0.0880
   78DOPC   C1A  911   4.720   4.151  15.162 -0.0635  0.0497  0.1763
   78DOPC   D2A  912   4.892   4.517  14.962 -0.1415  0.2280  0.3539
   78DOPC   C3A  913   4.829   4.705  14.563  0.0891 -0.5175  0.2091
   78DOPC   C4A  914   5.022   4.889  14.161 -0.4776 -0.0409 -0.2816
   78DOPC   C1B  915   4.025   4.215  14.917 -0.3179  0.1216  0.2924
   78DOPC   D2B  916   4.108   4.209  14.389  0.0196  0.3835  0.2720
   78DOPC   C3B  917   4.028   3.835  14.112  0.1625 -0.0644  0.0376
   78DOPC   C4B  918   4.218   3.427  14.018  0.1443  0.0796  0.0020
   79DOPC   NC3  919  11.540   9.263  15.876 -0.1443  0.1879 -0.0887
   79DOPC   PO4  920  11.364   8.987  16.002  0.0118  0.0489  0.3038
   79DOPC   GL1  921  11.359   8.902  15.588 -0.0697 -0.1678  0.2054
   79DOPC   GL2  922  11.562   8.704  15.515 -0.1816 -0.1239 -0.0878
   79DOPC   C1A  923  11.208   8.945  15.140 -0.3250  0.2228  0.2590
   79DOPC   D2A  924  11.213   8.710  14.788  0.3525  0.2347 -0.0048
   79DOPC   C3A  925  11.182   8.253  14.684 -0.1451 -0.0533  0.0311
   79DOPC   C4A  926  10.887   8.115  14.350  0.1408 -0.1267  0.1031
   79DOPC   C1B  927  11.831   8.896  15.200 -0.0996  0.3429  0.0466
   79DOPC   D2B  928  11.716   8.883  14.753  0.2030 -0.2579 -0.0215
   79DOPC   C3B  929  11.378   8.968  14.413 -0.1493 -0.1272 -0.1176
   79DOPC   C4B  930  11.230   9.373  14.223 -0.0473  0.0126 -0.0599
   80DOPC   NC3  931   0.873   2.176  15.804  0.1704 -0.1960  0.2521
   80DOPC   PO4  932   0.506   2.062  15.849  0.1311  0.0247  0.3049
   80DOPC   GL1  933   0.578   1.821  15.496  0.2419  0.2330 -0.1448
   80DOPC   GL2  934   0.546   1.537  15.433 -0.1807  0.1528 -0.0239
   80DOPC   C1A  935   0.566   1.890  15.072 -0.0945 -0.1414  0.1556
   80DOPC   D2A  936   0.473   1.681  14.670 -0.2499 -0.2345  0.0347
   80DOPC   C3A  937   0.262   1.586  14.324  0.2003 -0.2584  0.5739
   80DOPC   C4A  938   0.232   1.325  13.948 -0.1877 -0.1025 -0.0246
   80DOPC   C1B  939   0.492   1.328  15.025 -0.0651 -0.0912  0.3276
   80DOPC   D2B  940   0.133   1.304  14.726 -0.0037 -0.3218  0.1929
   80DOPC   C3B  941  -0.299   1.409  14.607 -0.1095  0.0059 -0.1415
   80DOPC   C4B  942  -0.690   1.663  14.469 -0.0229 -0.0300 -0.1809
   81DOPC   NC3  943   6.118   3.917  16.557 -0.1149  0.0991  0.1331
   81DOPC   PO4  944   6.249   4.285  16.448  0.1810 -0.1706  0.0828
   81DOPC   GL1  945   6.387   4.122  16.196  0.1024 -0.2406  0.2241
   81DOPC   GL2  946   6.431   3.852  16.138 -0.0682  0.0049  0.0438
   81DOPC   C1A  947   6.341   4.135  15.740 -0.0603 -0.2037 -0.0586
   81DOPC   D2A  948   6.411   3.891  15.283 -0.1395 -0.4778  0.4512
   81DOPC   C3A  949   6.704   3.861  14.978  0.0470  0.1099 -0.1978
   81DOPC   C4A  950   7.044   4.126  14.983 -0.0963  0.1026 -0.1962
   81DOPC   C1B  951   6.564   3.619  15.755  0.2069  0.2958 -0.2388
   81DOPC   D2B  952   6.822   3.236  15.826 -0.0043 -0.0466  0.1947
   81DOPC   C3B  953   6.452   2.973  15.858  0.0178 -0.1666 -0.0714
   81DOPC   C4B  954   5.974   2.888  15.735  0.0071  0.0705 -0.0675
   82DOPE   NH3  955  10.570   5.810  15.444  0.0654 -0.0043  0.0440
   82DOPE   PO4  956  10.371   6.032  15.323  0.0155  0.1975 -0.0100
   82DOPE   GL1  957  10.204   6.181  15.005 -0.0417 -0.1403 -0.0345
   82DOPE   GL2  958  10.050   6.375  15.169 -0.0858  0.0024 -0.0562
   82DOPE   C1A  959  10.133   6.327  14.574 -0.1472 -0.0336  0.1133
   82DOPE   D2A  960   9.816   6.471  14.330  0.0053 -0.1599 -0.1433
   82DOPE   C3A  961   9.711   6.672  13.875 -0.0471  0.0125  0.2636
   82DOPE   C4A  962   9.733   7.041  13.588  0.3080  0.1407  0.0462
   82DOPE   C1B  963   9.939   6.834  15.112  0.1812  0.0357 -0.0698
   82DOPE   D2B  964   9.805   7.234  14.985 -0.1580  0.2021  0.0085
   82DOPE   C3B  965   9.440   7.141  14.759  0.1929  0.3424  0.1457
   82DOPE   C4B  966   9.423   6.857  14.422 -0.1715  0.1898  0.0819
   83DOPE   NH3  967   9.262   5.324  16.361  0.2882  0.1484 -0.3290
   83DOPE   PO4  968   9.332   5.464  16.058  0.1163 -0.0748  0.0579
   83DOPE   GL1  969   9.216   5.822  15.842  0.1330  0.1918 -0.2205
   83DOPE   GL2  970   9.463   6.006  15.913  0.1128 -0.0899 -0.1730
   83DOPE   C1A  971   9.353   5.847  15.384  0.0886 -0.1066 -0.2761
   83DOPE   D2A  972   9.604   5.814  14.929  0.3034 -0.1049  0.2210
   83DOPE   C3A  973   9.569   5.561  14.550 -0.0114  0.1325 -0.3426
   83DOPE   C4A  974   9.619   5.737  14.087 -0.2420 -0.4392  0.1813
   83DOPE   C1B  975   9.211   6.364  15.717 -0.0970  0.4076  0.0135
   83DOPE   D2B  976   9.167   6.758  15.567 -0.2204  0.2197  0.1208
   83DOPE   C3B  977   9.238   6.730  15.092 -0.3430  0.0852 -0.0206
   83DOPE   C4B  978   9.234   6.480  14.713  0.3099  0.0096 -0.2534
   84POSM   NC3  979   4.831   8.993  15.818 -0.0937 -0.1106  0.1069
   84POSM   PO4  980   4.790   8.617  15.742  0.1254  0.2032  0.1327
   84POSM   AM1  981   5.113   8.693  15.617  0.0970  0.0812  0.1808
   84POSM   AM2  982   5.329   8.903  15.654 -0.0666 -0.1749 -0.2244
   84POSM   T1A  983   5.395   8.644  15.242 -0.1153 -0.1251  0.2167
   84POSM   C2A  984   5.770   8.504  15.042 -0.3139  0.1885  0.3010
   84POSM   C3A  985   6.064   8.084  15.050 -0.1357  0.0407  0.0280
   84POSM   C1B  986   5.598   9.049  15.457  0.2620  0.1877  0.2858
   84POSM   D2B  987   5.925   8.997  15.151 -0.1349  0.1890 -0.0841
   84POSM   C3B  988   5.719   8.912  14.725 -0.2770 -0.3681  0.0509
   84POSM   C4B  989   5.473   8.765  14.378 -0.1229  0.1159 -0.1365
   85DOPC   NC3  990   7.599   0.105  15.797  0.2068 -0.1781  0.1358
   85DOPC   PO4  991   7.731  -0.058  15.471 -0.0042  0.0419 -0.1765
   85DOPC   GL1  992   7.700   0.269  15.230 -0.1184  0.0720  0.1147
   85DOPC   GL2  993   7.583   0.040  15.001  0.2281  0.1892 -0.4023
   85DOPC   C1A  994   7.683   0.483  14.754  0.1084  0.0970  0.0967
   85DOPC   D2A  995   7.831   0.604  14.306 -0.1338  0.0953  0.1013
   85DOPC   C3A  996   8.105   0.596  13.935  0.2231  0.2244  0.1648
   85DOPC   C4A  997   8.400   0.769  13.628 -0.2167  0.1196  0.0871
   85DOPC   C1B  998   7.325   0.080  14.633 -0.1044  0.0853 -0.0473
   85DOPC   D2B  999   7.328   0.362  14.301  0.3131 -0.0867 -0.2703
   85DOPC   C3B 1000   7.720   0.179  14.108 -0.2822  0.0705  0.1362
   85DOPC   C4B 1001   7.951  -0.254  14.247 -0.1015 -0.1057 -0.1596
   86POSM   NC3 1002   3.390   2.379  15.913  0.1667 -0.0200  0.3535
   86POSM   PO4 1003   3.596   2.056  15.959 -0.1483  0.0634 -0.0368
   86POSM   AM1 1004   3.634   1.903  15.686 -0.0957 -0.0004  0.2323
   86POSM   AM2 1005   3.565   1.688  15.538 -0.4752  0.0479  0.3066
   86POSM   T1A 1006   3.859   2.039  15.264 -0.0573  0.0095 -0.3113
   86POSM   C2A 1007   4.078   1.970  14.883  0.0358 -0.0958 -0.1269
   86POSM   C3A 1008   4.397   2.109  14.585  0.1391  0.0902 -0.0634
   86POSM   C1B 1009   3.587   1.432  15.315  0.2429  0.1053  0.2227
   86POSM   D2B 1010   3.431   1.213  14.913  0.1529 -0.3692  0.2380
   86POSM   C3B 1011   3.556   1.205  14.448  0.0680  0.0777 -0.2072
   86POSM   C4B 1012   3.846   1.329  14.088  0.1765 -0.0506  0.0083
   87POSM   NC3 1013   1.210  10.224  16.312  0.1622 -0.3408  0.1228
   87POSM   PO4 1014   1.101  10.527  16.125 -0.0159  0.0976  0.1576
   87POSM   AM1 1015   0.975  10.579  15.859 -0.2549 -0.2887 -0.0398
   87POSM   AM2 1016   0.880  10.523  15.622  0.2820  0.0631  0.0749
   87POSM   T1A 1017   0.655  10.946  15.656  0.1113 -0.1732  0.3305
   87POSM   C2A 1018   0.331  11.158  15.602  0.1862  0.0308 -0.1352
   87POSM   C3A 1019   0.184  11.516  15.275  0.0091 -0.2929 -0.3971
   87POSM   C1B 1020   0.876  10.558  15.323 -0.1779 -0.1131 -0.1816
   87POSM   D2B 1021   0.940  10.627  14.900 -0.1556 -0.0840  0.0761
   87POSM   C3B 1022   0.866  10.535  14.464 -0.1726 -0.0919 -0.1214
   87POSM   C4B 1023   0.753  10.190  14.153  0.3686  0.1724 -0.0211
   88DOPS   CNO 1024   5.262   7.007  15.802 -0.2597  0.2632 -0.3641
   88DOPS   PO4 1025   5.589   7.042  15.995  0.0067  0.2511 -0.0284
   88DOPS   GL1 1026   5.812   6.843  15.659 -0.2439  0.1528  0.0822
   88DOPS   GL2 1027   5.695   6.672  15.391  0.0434 -0.1776 -0.1582
   88DOPS   C1A 1028   6.109   6.977  15.325 -0.0723 -0.2162 -0.1207
   88DOPS   D2A 1029   6.128   7.288  14.988 -0.3012  0.2393 -0.2490
   88DOPS   C3A 1030   6.357   7.563  14.654  0.0802  0.0933 -0.2771
   88DOPS   C4A 1031   6.797   7.570  14.558 -0.0862  0.2568  0.2758
   88DOPS   C1B 1032   5.736   6.639  14.905  0.1334  0.2486 -0.0701
   88DOPS   D2B 1033   6.060   6.793  14.561 -0.0820 -0.0166  0.1803
   88DOPS   C3B 1034   5.974   6.728  14.082 -0.1191  0.0790  0.0479
   88DOPS   C4B 1035   6.088   6.738  13.642 -0.1980  0.0144  0.4329
   89DOPC   NC3 1036   2.231   9.275  15.968 -0.2675  0.0432 -0.1212
   89DOPC   PO4 1037   2.614   9.392  15.966 -0.2057  0.1605 -0.0285
   89DOPC   GL1 1038   2.877   9.330  15.553 -0.0216  0.1162  0.3044
   89DOPC   GL2 1039   2.867   9.050  15.446 -0.1218 -0.0274  0.0383
   89DOPC   C1A 1040   2.861   9.509  15.091 -0.0222  0.3149 -0.2975
   89DOPC   D2A 1041   2.976   9.396  14.661 -0.4436  0.3452 -0.2009
   89DOPC   C3A 1042   2.876   9.206  14.265 -0.1218  0.0484 -0.1301
   89DOPC   C4A 1043   2.917   9.241  13.822  0.0245 -0.1128 -0.1646
   89DOPC   C1B 1044   3.261   8.905  15.451 -0.1285  0.1937  0.1493
   89DOPC   D2B 1045   3.296   8.529  15.262  0.1245 -0.0360 -0.0145
   89DOPC   C3B 1046   3.408   8.444  14.849 -0.3131 -0.1568 -0.1929
   89DOPC   C4B 1047   3.067   8.441  14.495  0.0788 -0.1668  0.1406
   90DOPE   NH3 1048   4.344   6.827  15.789  0.1713 -0.0321  0.2931
   90DOPE   PO4 1049   4.241   7.008  16.028 -0.2773  0.0562 -0.0476
   90DOPE   GL1 1050   4.184   7.313  15.763  0.1076 -0.0043  0.0879
   90DOPE   GL2 1051   4.431   7.328  15.631 -0.1479  0.1708 -0.1912
   90DOPE   C1A 1052   4.029   7.490  15.346  0.0785 -0.1116 -0.0333
   90DOPE   D2A 1053   4.183   7.736  15.018 -0.1094 -0.1266  0.0779
   90DOPE   C3A 1054   4.049   7.911  14.601 -0.1235 -0.2728 -0.1930
   90DOPE   C4A 1055   3.988   8.225  14.321 -0.0880  0.2508  0.1111
   90DOPE   C1B 1056   4.550   7.626  15.353 -0.0684 -0.4260  0.0711
   90DOPE   D2B 1057   4.676   7.828  14.927  0.2237 -0.1040  0.0172
   90DOPE   C3B 1058   5.054   7.805  14.690 -0.0649 -0.3549 -0.2933
   90DOPE   C4B 1059   5.368   7.465  14.653  0.1981  0.0789 -0.0321
   91DOPE   NH3 1060   6.459   1.181  16.161  0.1000  0.0244  0.2885
   91DOPE   PO4 1061   6.190   1.163  16.344 -0.0702 -0.0888 -0.2263
   91DOPE   GL1 1062   6.083   1.312  15.993  0.2832 -0.0456  0.2158
   91DOPE   GL2 1063   5.867   1.590  15.952 -0.0073  0.0296 -0.1192
   91DOPE   C1A 1064   5.676   1.131  15.863 -0.1984  0.0482  0.1264
   91DOPE   D2A 1065   5.271   1.141  15.713 -0.4012 -0.1910 -0.1606
   91DOPE   C3A 1066   5.122   1.431  15.416  0.0014  0.1848  0.2328
   91DOPE   C4A 1067   4.957   1.847  15.476  0.3225  0.0004  0.1590
   91DOPE   C1B 1068   5.584   1.753  15.639 -0.0467 -0.2068 -0.0913
   91DOPE   D2B 1069   5.367   1.984  15.301 -0.1162  0.0702  0.2095
   91DOPE   C3B 1070   5.445   2.392  15.077  0.0024 -0.0065  0.2254
   91DOPE   C4B 1071   5.657   2.767  14.845  0.1412 -0.1590  0.3708
   92DOPC   NC3 1072   7.019   3.652  16.748 -0.1821 -0.2975  0.1083
   92DOPC   PO4 1073   7.217   3.868  16.490  0.2309  0.1720 -0.1769
   92DOPC   GL1 1074   7.202   3.937  16.110 -0.1084  0.0515 -0.1347
   92DOPC   GL2 1075   6.916   3.873  15.983  0.0237 -0.3553 -0.0907
   92DOPC   C1A 1076   7.263   3.666  15.723 -0.3061  0.0178  0.2367
   92DOPC   D2A 1077   6.969   3.549  15.364 -0.1433  0.0834  0.0882
   92DOPC   C3A 1078   6.652   3.357  15.062  0.1658  0.2249 -0.1885
   92DOPC   C4A 1079   6.480   3.133  14.629  0.0081  0.1550  0.2419
   92DOPC   C1B 1080   6.777   4.087  15.549  0.0513 -0.2915  0.1667
   92DOPC   D2B 1081   6.864   4.470  15.341 -0.2814  0.2822  0.0222
   92DOPC   C3B 1082   6.648   4.813  15.164 -0.1696  0.1090 -0.0642
   92DOPC   C4B 1083   6.221   4.883  15.148 -0.1737  0.4103 -0.0395
   93POSM   NC3 1084   8.455   8.806  15.963 -0.1585 -0.1269 -0.0463
   93POSM   PO4 1085   8.200   8.595  16.142  0.0685  0.2126  0.0712
   93POSM   AM1 1086   8.172   8.397  15.875 -0.3496  0.5381  0.0902
   93POSM   AM2 1087   8.353   8.377  15.668  0.0904  0.2929 -0.4694
   93POSM   T1A 1088   7.909   8.227  15.483  0.0316  0.0015 -0.1373
   93POSM   C2A 1089   7.857   8.368  15.042 -0.2314  0.1831 -0.1944
   93POSM   C3A 1090   8.162   8.527  14.761 -0.2010  0.0982  0.0599
   93POSM   C1B 1091   8.386   8.329  15.307 -0.1726 -0.0629  0.3801
   93POSM   D2B 1092   8.425   8.114  14.940 -0.0916  0.1922 -0.4018
   93POSM   C3B 1093   8.045   8.035  14.726 -0.0400 -0.3411  0.1885
   93POSM   C4B 1094   7.642   7.969  14.814 -0.1261 -0.2529  0.0403
   94POSM   NC3 1095   2.072  10.012  15.824  0.3471  0.0388  0.2138
   94POSM   PO4 1096   2.076  10.365  15.994 -0.2474 -0.0216  0.0698
   94POSM   AM1 1097   2.051  10.431  15.667 -0.1995 -0.4423  0.3472
   94POSM   AM2 1098   2.179  10.378  15.406 -0.1371  0.0451  0.0904
   94POSM   T1A 1099   1.851  10.711  15.284  0.0698  0.2267 -0.0040
   94POSM   C2A 1100   1.532  10.976  14.985 -0.2019 -0.1518  0.0149
   94POSM   C3A 1101   1.683  11.164  14.587  0.2979 -0.0513 -0.0515
   94POSM   C1B 1102   2.291  10.054  15.291  0.1732 -0.4066 -0.1853
   94POSM   D2B 1103   2.409   9.705  15.054  0.0629 -0.0960 -0.1625
   94POSM   C3B 1104   2.612   9.803  14.694  0.0045  0.1664 -0.0295
   94POSM   C4B 1105   2.661   9.811  14.190  0.0794 -0.4072  0.2798
   95DOPC   NC3 1106   9.455   9.753  15.618 -0.1750 -0.1242 -0.1397
   95DOPC   PO4 1107   9.119   9.546  15.719 -0.3209 -0.1376 -0.1834
   95DOPC   GL1 1108   8.872   9.413  15.425 -0.2156  0.1701  0.0081
   95DOPC   GL2 1109   9.127   9.405  15.198 -0.2382 -0.2482  0.1752
   95DOPC   C1A 1110   8.625   9.281  15.045  0.1128 -0.1644  0.5464
   95DOPC   D2A 1111   8.381   9.406  14.657  0.1992  0.2968  0.0737
   95DOPC   C3A 1112   8.606   9.212  14.257  0.0441 -0.0548 -0.0122
   95DOPC   C4A 1113   8.736   9.238  13.780  0.0480  0.1223  0.0064
   95DOPC   C1B 1114   8.938   9.844  15.159 -0.2922 -0.2073 -0.1643
   95DOPC   D2B 1115   8.574  10.136  15.189 -0.0252  0.2610 -0.1951
   95DOPC   C3B 1116   8.112  10.125  15.054  0.0289 -0.2102 -0.1844
   95DOPC   C4B 1117   7.792   9.971  15.356 -0.3093 -0.0464  0.0726
   96DOPS   CNO 1118   5.113   6.612  15.991  0.3642 -0.1457  0.2257
   96DOPS   PO4 1119   4.778   6.614  15.824 -0.1923  0.0269 -0.2790
   96DOPS   GL1 1120   4.987   6.725  15.572 -0.1902  0.1201  0.4312
   96DOPS   GL2 1121   5.218   6.521  15.535 -0.0100  0.2920 -0.1135
   96DOPS   C1A 1122   5.260   6.888  15.242 -0.0988  0.0549  0.1451
   96DOPS   D2A 1123   5.625   7.156  15.175 -0.1409 -0.0318  0.0192
   96DOPS   C3A 1124   5.670   7.118  14.748 -0.1233 -0.0760  0.2587
   96DOPS   C4A 1125   5.632   7.113  14.286  0.1807 -0.1683  0.1676
   96DOPS   C1B 1126   4.902   6.458  15.153  0.1890 -0.1327  0.0312
   96DOPS   D2B 1127   4.839   6.490  14.671  0.3072  0.2731 -0.0634
   96DOPS   C3B 1128   4.631   6.856  14.515 -0.1354 -0.1668  0.1850
   96DOPS   C4B 1129   4.300   7.152  14.434 -0.0107  0.0374 -0.0109
   97DOPE   NH3 1130  10.363   4.057  15.324  0.0657  0.1029 -0.0328
   97DOPE   PO4 1131  10.482   4.320  15.281 -0.3812  0.0845 -0.3809
   97DOPE   GL1 1132  10.475   4.529  15.050 -0.3159 -0.4309  0.0469
   97DOPE   GL2 1133  10.493   4.778  15.073  0.0821  0.1864  0.1426
   97DOPE   C1A 1134  10.433   4.606  14.581 -0.1462  0.1873 -0.3272
   97DOPE   D2A 1135  10.450   4.687  14.140 -0.0334  0.0381  0.0728
   97DOPE   C3A 1136  10.419   4.804  13.720  0.1051  0.1358 -0.0430
   97DOPE   C4A 1137  10.162   5.087  13.498  0.0070 -0.2564 -0.0495
   97DOPE   C1B 1138  10.583   5.071  14.729  0.0859 -0.1522  0.0819
   97DOPE   D2B 1139  10.481   5.198  14.274  0.2146 -0.1721 -0.1208
   97DOPE   C3B 1140  10.495   5.322  13.819  0.3225 -0.0327 -0.1250
   97DOPE   C4B 1141  10.367   5.576  13.456 -0.0776 -0.1857  0.1411
   98DOPS   CNO 1142   5.344   9.348  16.408 -0.3210  0.0980 -0.3119
   98DOPS   PO4 1143   5.175   9.216  16.092 -0.0278 -0.0141  0.0307
   98DOPS   GL1 1144   5.359   9.378  15.735  0.4003 -0.2204 -0.0328
   98DOPS   GL2 1145   5.153   9.313  15.579 -0.1910  0.0003  0.0053
   98DOPS   C1A 1146   5.582   9.554  15.361 -0.0959 -0.0117  0.1087
   98DOPS   D2A 1147   5.685   9.408  14.932 -0.1289  0.1111  0.1619
   98DOPS   C3A 1148   5.452   9.372  14.604  0.1350 -0.2128 -0.0722
   98DOPS   C4A 1149   5.003   9.461  14.621 -0.0514 -0.3230  0.0094
   98DOPS   C1B 1150   5.252   9.176  15.128 -0.1173 -0.1774 -0.1098
   98DOPS   D2B 1151   5.196   8.976  14.762  0.1201  0.1419 -0.1808
   98DOPS   C3B 1152   5.074   9.089  14.351  0.0581  0.1163  0.2240
   98DOPS   C4B 1153   5.183   8.814  13.977  0.0113  0.0583 -0.2064
   99DOPS   CNO 1154   1.630   1.686  16.107 -0.2075 -0.1286 -0.2112
   99DOPS   PO4 1155   1.728   1.342  16.142 -0.1655  0.3172  0.1924
   99DOPS   GL1 1156   1.762   1.229  15.785  0.1243 -0.0192 -0.3075
   99DOPS   GL2 1157   1.939   1.013  15.733 -0.0823  0.1357 -0.0863
   99DOPS   C1A 1158   1.809   1.496  15.382  0.1631  0.3062  0.0923
   99DOPS   D2A 1159   1.735   1.595  14.896 -0.2650 -0.1450 -0.1196
   99DOPS   C3A 1160   1.498   1.564  14.502 -0.0656 -0.1426  0.1191
   99DOPS   C4A 1161   1.510   1.320  14.120  0.2105 -0.1580 -0.0630
   99DOPS   C1B 1162   2.227   1.271  15.468  0.2208 -0.1002 -0.0861
   99DOPS   D2B 1163   2.656   1.116  15.285 -0.1859  0.3147 -0.0153
   99DOPS   C3B 1164   2.764   1.439  14.951  0.0464  0.0405 -0.0397
   99DOPS   C4B 1165   3.126   1.622  14.708 -0.2245  0.0820  0.0992
  100POSM   NC3 1166   2.448   7.388  16.465 -0.1015 -0.3568  0.0159
  100POSM   PO4 1167   2.365   7.650  16.182  0.1447 -0.0458  0.0027
  100POSM   AM1 1168   2.254   7.610  15.858 -0.2300  0.0751  0.0560
  100POSM   AM2 1169   2.029   7.530  15.664 -0.0532 -0.1007 -0.0739
  100POSM   T1A 1170   2.395   7.844  15.434 -0.0092  0.0323  0.3338
  100POSM   C2A 1171   2.726   8.170  15.297 -0.2926 -0.1187  0.1111
  100POSM   C3A 1172   2.938   8.354  14.975  0.0810  0.0068  0.0687
  100POSM   C1B 1173   2.083   7.498  15.346 -0.0390  0.1685 -0.2312
  100POSM   D2B 1174   2.212   7.505  14.870 -0.0850 -0.1450  0.2063
  100POSM   C3B 1175   2.327   7.940  14.810  0.2839  0.0094 -0.0621
  100POSM   C4B 1176   2.526   8.338  14.763 -0.1379 -0.2108  0.0629
  101POSM   NC3 1177   8.526   5.264  15.566  0.3417 -0.0976 -0.0027
  101POSM   PO4 1178   8.859   5.406  15.750  0.1079 -0.0311 -0.2651
  101POSM   AM1 1179   8.632   5.683  15.675  0.0319 -0.2459  0.2506
  101POSM   AM2 1180   8.624   5.941  15.747  0.2000 -0.2030 -0.2149
  101POSM   T1A 1181   8.357   5.951  15.324 -0.3260 -0.0075  0.1419
  101POSM   C2A 1182   8.559   6.209  15.018  0.1542 -0.0794 -0.1389
  101POSM   C3A 1183   8.743   6.521  14.758 -0.1456 -0.0561  0.0508
  101POSM   C1B 1184   8.804   6.067  15.541  0.0153 -0.1764  0.0144
  101POSM   D2B 1185   9.014   6.274  15.251 -0.0594 -0.0268  0.2417
  101POSM   C3B 1186   9.144   6.007  14.914 -0.1433  0.1144  0.1118
  101POSM   C4B 1187   9.092   5.799  14.515 -0.1409 -0.0612  0.2292
  102DOPC   NC3 1188   2.588   1.654  15.590  0.0792 -0.2942  0.1178
  102DOPC   PO4 1189   2.629   2.077  15.605  0.0752  0.1624 -0.1087
  102DOPC   GL1 1190   2.604   1.995  15.218  0.1046  0.0146  0.1037
  102DOPC   GL2 1191   2.910   2.150  15.142 -0.0909 -0.1995 -0.2171
  102DOPC   C1A 1192   2.588   1.852  14.779 -0.0105 -0.2332  0.0285
  102DOPC   D2A 1193   2.715   1.483  14.450  0.2078  0.1939  0.0626
  102DOPC   C3A 1194   2.971   1.487  14.052 -0.1344 -0.2096  0.1581
  102DOPC   C4A 1195   3.034   1.750  13.668 -0.0384 -0.1377 -0.1097
  102DOPC   C1B 1196   3.009   2.125  14.681 -0.1574 -0.1128 -0.1875
  102DOPC   D2B 1197   3.014   1.987  14.262 -0.1618 -0.1165  0.0810
  102DOPC   C3B 1198   3.069   2.332  13.965 -0.0102  0.0649  0.0886
  102DOPC   C4B 1199   3.378   2.495  13.708 -0.1353 -0.2011  0.1276
  103POSM   NC3 1200   4.798  10.734  16.279  0.1760  0.3026  0.2737
  103POSM   PO4 1201   4.981  10.770  15.942 -0.0877 -0.0891 -0.1103
  103POSM   AM1 1202   5.163  10.881  15.687  0.1682 -0.0555 -0.0013
  103POSM   AM2 1203   5.472  10.857  15.662 -0.2663  0.0970  0.0814
  103POSM   T1A 1204   5.264  11.109  15.232 -0.1664  0.2979  0.2880
  103POSM   C2A 1205   5.158  11.030  14.826 -0.3428 -0.0220 -0.2062
  103POSM   C3A 1206   5.001  11.386  14.584  0.2824  0.3004 -0.1065
  103POSM   C1B 1207   5.548  10.572  15.471  0.1260  0.0298  0.0652
  103POSM   D2B 1208   5.776  10.424  15.068  0.1813 -0.3735 -0.0970
  103POSM   C3B 1209   6.129  10.546  14.771 -0.4189  0.2658  0.1704
  103POSM   C4B 1210   6.271  10.909  14.703  0.1629  0.0454  0.0904
  104DOPC   NC3 1211   6.847   6.465  16.223 -0.1199  0.1545 -0.0749
  104DOPC   PO4 1212   6.904   6.127  16.019 -0.0490 -0.0358 -0.1623
  104DOPC   GL1 1213   6.964   6.130  15.676  0.0776  0.2504 -0.0566
  104DOPC   GL2 1214   7.237   6.027  15.616  0.1089 -0.1451 -0.0109
  104DOPC   C1A 1215   6.719   6.075  15.300  0.2324  0.0060 -0.1580
  104DOPC   D2A 1216   6.565   6.156  14.908  0.3372 -0.0161  0.1786
  104DOPC   C3A 1217   6.338   6.039  14.511 -0.1923  0.1160  0.3620
  104DOPC   C4A 1218   6.407   6.009  14.036 -0.3548 -0.2144 -0.0709
  104DOPC   C1B 1219   7.225   5.973  15.172 -0.1646 -0.0053  0.3626
  104DOPC   D2B 1220   7.301   5.911  14.710  0.2496  0.1222 -0.0908
  104DOPC   C3B 1221   7.431   6.178  14.359 -0.0078 -0.0279  0.1661
  104DOPC   C4B 1222   7.474   6.604  14.202 -0.0306  0.1003 -0.2419
  105POSM   NC3 1223   7.762   5.553  16.421  0.0693  0.1529 -0.2409
  105POSM   PO4 1224   7.411   5.510  16.249  0.2888 -0.1559  0.1701
  105POSM   AM1 1225   7.279   5.533  15.951 -0.3279  0.1385 -0.2722
  105POSM   AM2 1226   7.049   5.608  15.807  0.3509 -0.5212 -0.2856
  105POSM   T1A 1227   7.381   5.479  15.503 -0.0646 -0.2835  0.1769
  105POSM   C2A 1228   7.331   5.518  15.013 -0.0619  0.2254 -0.3289
  105POSM   C3A 1229   7.272   5.419  14.583  0.0761 -0.0997  0.0568
  105POSM   C1B 1230   6.868   5.631  15.518 -0.0234 -0.2559  0.1102
  105POSM   D2B 1231   6.829   5.628  15.055  0.5712  0.2202  0.1801
  105POSM   C3B 1232   6.820   5.691  14.545 -0.1414  0.0071  0.1419
  105POSM   C4B 1233   6.967   5.711  14.143  0.2197  0.0903 -0.0180
  106POSM   NC3 1234   8.886   1.999  15.449  0.1327  0.0867  0.0686
  106POSM   PO4 1235   8.493   1.961  15.578  0.0254 -0.0323  0.1940
  106POSM   AM1 1236   8.401   1.801  15.294  0.1341 -0.0642  0.3495
  106POSM   AM2 1237   8.268   1.541  15.242  0.2074  0.1171 -0.0606
  106POSM   T1A 1238   8.662   1.555  14.968 -0.0172 -0.0237  0.2673
  106POSM   C2A 1239   8.948   1.599  14.560 -0.3450  0.0244 -0.0097
  106POSM   C3A 1240   9.266   1.340  14.247 -0.1351  0.2129  0.0518
  106POSM   C1B 1241   8.183   1.456  14.869 -0.1356 -0.0682  0.1002
  106POSM   D2B 1242   8.369   1.319  14.508  0.4810  0.0303  0.0522
  106POSM   C3B 1243   8.210   1.224  14.084  0.1746 -0.0500  0.0676
  106POSM   C4B 1244   7.797   1.440  13.971  0.2401 -0.1059 -0.2543
  107DOPC   NC3 1245   2.562   3.464  15.759 -0.1920  0.4531 -0.3116
  107DOPC   PO4 1246   2.277   3.298  15.984 -0.1645 -0.0057  0.0009
  107DOPC   GL1 1247   2.115   3.492  15.621 -0.0023  0.0114 -0.1296
  107DOPC   GL2 1248   1.876   3.373  15.549 -0.3570  0.1606  0.0706
  107DOPC   C1A 1249   2.181   3.781  15.250 -0.0768  0.2002  0.3185
  107DOPC   D2A 1250   2.407   4.171  14.995  0.1350 -0.0522 -0.2525
  107DOPC   C3A 1251   2.369   4.321  14.523 -0.0059  0.1543 -0.1285
  107DOPC   C4A 1252   2.137   4.305  14.121 -0.2877 -0.1000  0.0269
  107DOPC   C1B 1253   1.929   3.411  15.098 -0.1069 -0.0178 -0.3900
  107DOPC   D2B 1254   2.133   3.321  14.707  0.0183  0.1686 -0.0491
  107DOPC   C3B 1255   2.515   3.516  14.460  0.2504 -0.0752  0.1019
  107DOPC   C4B 1256   2.649   3.282  14.059 -0.0505  0.2593  0.2137
  108DOPE   NH3 1257   2.866   2.500  15.631  0.0827 -0.1347 -0.0407
  108DOPE   PO4 1258   3.116   2.620  15.478 -0.1096  0.1284 -0.2677
  108DOPE   GL1 1259   2.889   2.741  15.200  0.1781 -0.2869  0.1031
  108DOPE   GL2 1260   2.618   2.771  15.264  0.2085  0.0251  0.3167
  108DOPE   C1A 1261   2.782   2.627  14.775 -0.0140 -0.1259 -0.0881
  108DOPE   D2A 1262   2.702   2.505  14.331 -0.2768 -0.2033  0.2148
  108DOPE   C3A 1263   2.531   2.467  13.908  0.1225  0.5367  0.0102
  108DOPE   C4A 1264   2.343   2.686  13.560 -0.2880  0.2415  0.0699
  108DOPE   C1B 1265   2.272   2.835  14.954 -0.0254 -0.0922 -0.0994
  108DOPE   D2B 1266   2.259   2.807  14.494  0.0643 -0.1121 -0.0200
  108DOPE   C3B 1267   2.110   2.856  14.032  0.0270 -0.0292  0.3394
  108DOPE   C4B 1268   1.891   2.978  13.638 -0.1737  0.0744 -0.0872
  109DOPC   NC3 1269   0.777   4.640  15.634  0.1188 -0.2739 -0.1434
  109DOPC   PO4 1270   1.183   4.687  15.585 -0.3543  0.1350 -0.1079
  109DOPC   GL1 1271   1.489   4.459  15.351 -0.0691  0.2594  0.2980
  109DOPC   GL2 1272   1.716   4.629  15.444 -0.0944  0.0222 -0.1497
  109DOPC   C1A 1273   1.335   4.399  14.902 -0.1564 -0.0132 -0.1474
  109DOPC   D2A 1274   1.056   4.502  14.557  0.2284 -0.2977  0.1551
  109DOPC   C3A 1275   0.900   4.081  14.396  0.1031  0.0153  0.0303
  109DOPC   C4A 1276   0.739   3.760  14.077  0.1141 -0.0867 -0.0042
  109DOPC   C1B 1277   1.709   4.748  15.008 -0.4334  0.1518  0.4129
  109DOPC   D2B 1278   1.545   4.771  14.580  0.0388  0.0834  0.0042
  109DOPC   C3B 1279   1.536   4.400  14.300  0.3252  0.0980 -0.1714
  109DOPC   C4B 1280   1.296   4.194  13.956 -0.0118  0.4430 -0.0839
  110POSM   NC3 1281  10.119   7.613  16.114 -0.0942  0.2624  0.0241
  110POSM   PO4 1282   9.821   7.891  16.062  0.2148 -0.2683 -0.2097
  110POSM   AM1 1283   9.765   7.770  15.736 -0.0416 -0.1478  0.2291
  110POSM   AM2 1284   9.608   7.615  15.583 -0.0166 -0.0414  0.0893
  110POSM   T1A 1285  10.096   7.688  15.322  0.3867  0.0580  0.0583
  110POSM   C2A 1286  10.046   7.681  14.860 -0.1013  0.1025 -0.3805
  110POSM   C3A 1287  10.004   7.408  14.454  0.2071  0.0505 -0.2398
  110POSM   C1B 1288   9.510   7.571  15.272 -0.0445 -0.0984  0.0265
  110POSM   D2B 1289   9.340   7.616  14.838  0.3010 -0.0430 -0.0999
  110POSM   C3B 1290   9.447   7.468  14.414  0.2943  0.1268  0.3549
  110POSM   C4B 1291   9.739   7.350  13.998 -0.1187  0.1452  0.4298
  111POSM   NC3 1292   0.465  10.365  15.888  0.0097 -0.1404 -0.0906
  111POSM   PO4 1293   0.704  10.209  16.113 -0.0713  0.5284 -0.0997
  111POSM   AM1 1294   0.904  10.155  15.870  0.3253 -0.0123  0.0832
  111POSM   AM2 1295   1.156  10.106  15.753 -0.1602  0.3063  0.2133
  111POSM   T1A 1296   0.733   9.990  15.430 -0.3622 -0.0087  0.1389
  111POSM   C2A 1297   0.699  10.010  15.003  0.2437 -0.2932  0.0194
  111POSM   C3A 1298   0.681   9.914  14.534  0.1392 -0.3150 -0.2209
  111POSM   C1B 1299   1.181  10.195  15.455  0.3384  0.3173  0.0441
  111POSM   D2B 1300   1.180   9.988  15.092  0.2670  0.0829  0.3724
  111POSM   C3B 1301   1.108  10.148  14.647  0.1036 -0.3802 -0.1838
  111POSM   C4B 1302   1.294  10.322  14.290  0.1673  0.1611  0.1033
  112POSM   NC3 1303   4.330   5.855  16.003  0.0500  0.0377  0.0171
  112POSM   PO4 1304   4.009   6.031  16.140  0.2090 -0.2428 -0.1696
  112POSM   AM1 1305   3.854   6.055  15.843  0.1066  0.0512 -0.0124
  112POSM   AM2 1306   3.561   6.043  15.736 -0.2949 -0.2397  0.1508
  112POSM   T1A 1307   3.830   6.089  15.345  0.1185 -0.3368  0.0780
  112POSM   C2A 1308   3.981   5.920  14.920 -0.1835 -0.1534  0.1482
  112POSM   C3A 1309   4.203   5.905  14.495  0.0402  0.2046  0.1203
  112POSM   C1B 1310   3.229   6.003  15.719  0.0508 -0.0317  0.0579
  112POSM   D2B 1311   2.754   5.968  15.757  0.0888  0.2128  0.1251
  112POSM   C3B 1312   2.515   5.771  15.447  0.4156 -0.0645 -0.3217
  112POSM   C4B 1313   2.560   5.905  15.040 -0.0829 -0.1915 -0.2613
  113POSM   NC3 1314   2.672  10.694  15.881  0.1711  0.0911 -0.2034
  113POSM   PO4 1315   2.768  11.071  15.895  0.1583 -0.1024  0.2865
  113POSM   AM1 1316   2.749  11.208  15.607  0.0861 -0.0654 -0.0035
  113POSM   AM2 1317   2.956  11.315  15.403 -0.2054 -0.1744  0.0991
  113POSM   T1A 1318   2.525  11.257  15.112 -0.0581  0.0412  0.4699
  113POSM   C2A 1319   2.407  11.389  14.680  0.0115 -0.0787  0.3190
  113POSM   C3A 1320   2.076  11.370  14.345 -0.0687 -0.0689  0.1383
  113POSM   C1B 1321   3.293  11.190  15.330  0.1259  0.0236  0.1003
  113POSM   D2B 1322   3.526  10.865  15.122  0.3835  0.0240 -0.1212
  113POSM   C3B 1323   3.406  10.791  14.674 -0.1841  0.0291  0.1353
  113POSM   C4B 1324   3.089  10.720  14.251 -0.0589  0.0225 -0.2705
  114DOPC   NC3 1325  11.673   7.876  15.878 -0.1284  0.0362  0.3096
  114DOPC   PO4 1326  11.336   7.781  16.001 -0.0829  0.1744 -0.2702
  114DOPC   GL1 1327  11.356   7.578  15.659 -0.1288 -0.0160  0.2438
  114DOPC   GL2 1328  11.027   7.574  15.651 -0.0397 -0.0118  0.1163
  114DOPC   C1A 1329  11.609   7.615  15.259 -0.1281 -0.3260  0.2058
  114DOPC   D2A 1330  11.407   7.901  14.957  0.0890 -0.2178  0.2965
  114DOPC   C3A 1331  11.452   7.889  14.485 -0.1836  0.2530  0.1178
  114DOPC   C4A 1332  11.317   8.103  14.066  0.1525  0.1722  0.0950
  114DOPC   C1B 1333  11.135   7.529  15.179 -0.1156 -0.1180 -0.0406
  114DOPC   D2B 1334  11.422   7.448  14.787  0.3246  0.0429 -0.0981
  114DOPC   C3B 1335  11.766   7.523  14.480 -0.0725 -0.1529 -0.2997
  114DOPC   C4B 1336  12.098   7.820  14.328  0.1750 -0.2431 -0.3153
  115POSM   NC3 1337  10.995   8.190  16.095 -0.0845 -0.0158  0.0878
  115POSM   PO4 1338  10.593   8.084  16.054  0.3647  0.1399 -0.3580
  115POSM   AM1 1339  10.687   8.001  15.749 -0.1991  0.1238  0.1871
  115POSM   AM2 1340  10.919   8.085  15.619 -0.1142 -0.1495  0.1840
  115POSM   T1A 1341  10.689   7.711  15.367  0.1406  0.0124 -0.3402
  115POSM   C2A 1342  10.479   7.396  15.044  0.1926  0.0699 -0.1750
  115POSM   C3A 1343  10.420   6.902  15.014  0.2064 -0.0836  0.2826
  115POSM   C1B 1344  10.971   8.089  15.280 -0.1099  0.0510 -0.0045
  115POSM   D2B 1345  10.875   7.917  14.912  0.2049 -0.0858  0.2721
  115POSM   C3B 1346  10.879   7.595  14.550 -0.1184  0.4159 -0.2571
  115POSM   C4B 1347  11.253   7.469  14.212  0.2109  0.1705  0.1228
  116DOPS   CNO 1348   5.041   5.831  15.876  0.3076 -0.0252  0.1953
  116DOPS   PO4 1349   4.710   5.847  15.689 -0.2107 -0.0880 -0.3228
  116DOPS   GL1 1350   4.831   6.053  15.357 -0.2119  0.0845 -0.4046
  116DOPS   GL2 1351   5.095   5.868  15.317  0.1471  0.2606 -0.0900
  116DOPS   C1A 1352   4.712   6.041  14.859  0.3862  0.1381 -0.1556
  116DOPS   D2A 1353   4.879   5.900  14.435 -0.0182 -0.2242  0.3560
  116DOPS   C3A 1354   5.057   6.044  14.020 -0.1104  0.0984 -0.1116
  116DOPS   C4A 1355   5.313   5.973  13.655  0.0029  0.0711 -0.2977
  116DOPS   C1B 1356   5.117   5.652  14.917  0.0824 -0.0570 -0.0654
  116DOPS   D2B 1357   5.306   5.649  14.486 -0.0639 -0.0369  0.2324
  116DOPS   C3B 1358   5.355   5.659  14.022  0.1474  0.1109 -0.0496
  116DOPS   C4B 1359   5.755   5.744  13.774  0.0356 -0.2995  0.2735
  117DOPS   CNO 1360   0.406   7.672  16.105 -0.1355  0.2892 -0.1575
  117DOPS   PO4 1361   0.694   7.754  15.823  0.4132 -0.1972  0.2381
  117DOPS   GL1 1362   0.892   7.525  15.561 -0.1206  0.2114 -0.3938
  117DOPS   GL2 1363   1.033   7.329  15.638  0.1779  0.4581 -0.0804
  117DOPS   C1A 1364   1.142   7.361  15.182 -0.0631  0.3257 -0.4118
  117DOPS   D2A 1365   1.326   7.387  14.745 -0.0373 -0.1587 -0.2011
  117DOPS   C3A 1366   1.006   7.526  14.431 -0.0457 -0.2270  0.2956
  117DOPS   C4A 1367   1.170   7.657  14.001  0.1727 -0.2780 -0.0538
  117DOPS   C1B 1368   1.115   6.811  15.590 -0.1292  0.0101 -0.0477
  117DOPS   D2B 1369   1.159   6.459  15.282 -0.1263 -0.0009 -0.0030
  117DOPS   C3B 1370   0.709   6.472  15.171  0.0477  0.1397  0.0965
  117DOPS   C4B 1371   0.334   6.777  15.163  0.1448  0.1949  0.1873
  118DOPS   CNO 1372   5.885   8.435  16.093 -0.3235 -0.2571 -0.1190
  118DOPS   PO4 1373   5.720   8.104  16.113 -0.0929  0.0577  0.1630
  118DOPS   GL1 1374   5.815   8.152  15.680  0.0899  0.2292 -0.0367
  118DOPS   GL2 1375   5.974   7.890  15.552  0.2055  0.1665  0.1404
  118DOPS   C1A 1376   5.498   8.135  15.318 -0.0900 -0.1169 -0.0217
  118DOPS   D2A 1377   5.526   8.057  14.871 -0.0448 -0.0427  0.2128
  118DOPS   C3A 1378   5.590   7.945  14.470  0.2043 -0.0232  0.0251
  118DOPS   C4A 1379   5.199   7.875  14.212  0.0089  0.0331 -0.3234
  118DOPS   C1B 1380   5.819   7.630  15.196  0.0324 -0.1887  0.0430
  118DOPS   D2B 1381   5.915   7.716  14.756 -0.3727  0.1102  0.1414
  118DOPS   C3B 1382   6.193   8.005  14.517 -0.1664  0.0822 -0.0400
  118DOPS   C4B 1383   6.638   7.984  14.427 -0.0841 -0.2037 -0.1353
  119POSM   NC3 1384   8.442   3.394  16.261 -0.2970 -0.3157  0.1596
  119POSM   PO4 1385   8.169   3.627  16.146 -0.2421 -0.0962  0.0843
  119POSM   AM1 1386   8.029   3.802  15.940  0.0200  0.0112 -0.1962
  119POSM   AM2 1387   8.169   3.874  15.711  0.3729 -0.1376 -0.0383
  119POSM   T1A 1388   7.697   3.927  15.631 -0.1534 -0.1660 -0.0723
  119POSM   C2A 1389   7.675   3.921  15.163 -0.1575 -0.0490  0.1227
  119POSM   C3A 1390   7.791   3.597  14.854  0.0108 -0.5276 -0.1722
  119POSM   C1B 1391   8.149   3.689  15.428 -0.0948  0.0447  0.1593
  119POSM   D2B 1392   8.051   3.228  15.263 -0.2325  0.0939 -0.3848
  119POSM   C3B 1393   8.067   3.185  14.818 -0.1765  0.0261 -0.1885
  119POSM   C4B 1394   8.330   2.871  14.591  0.0087 -0.3348  0.2095
  120DOPE   NH3 1395   8.099  11.934  15.997 -0.0399  0.1875 -0.0892
  120DOPE   PO4 1396   8.366  11.736  16.109 -0.1059  0.3304  0.0443
  120DOPE   GL1 1397   8.231  11.619  15.677 -0.3887  0.1095  0.1118
  120DOPE   GL2 1398   8.372  11.392  15.565  0.1177 -0.2515 -0.3008
  120DOPE   C1A 1399   8.035  11.606  15.254 -0.1942 -0.1282  0.1631
  120DOPE   D2A 1400   7.842  11.321  14.963  0.2406  0.2011 -0.2667
  120DOPE   C3A 1401   8.086  11.466  14.608  0.3504  0.0712 -0.0460
  120DOPE   C4A 1402   8.293  11.373  14.204  0.2279 -0.0621  0.0434
  120DOPE   C1B 1403   8.123  11.093  15.273 -0.0967  0.0275  0.1951
  120DOPE   D2B 1404   8.166  10.640  15.068  0.2357 -0.1279  0.3160
  120DOPE   C3B 1405   8.222  10.549  14.611  0.2600 -0.0960 -0.0001
  120DOPE   C4B 1406   8.041  10.596  14.191 -0.0716 -0.4246 -0.0755
  121POSM   NC3 1407   5.395   0.703  15.909 -0.0335 -0.2743 -0.1652
  121POSM   PO4 1408   5.080   0.502  15.952  0.1561 -0.3861  0.1878
  121POSM   AM1 1409   4.936   0.560  15.677 -0.0246  0.2235 -0.1612
  121POSM   AM2 1410   5.003   0.793  15.483 -0.0289  0.2962  0.1427
  121POSM   T1A 1411   4.592   0.651  15.313  0.0479  0.3781 -0.1104
  121POSM   C2A 1412   4.155   0.680  15.113  0.0386 -0.1019  0.1747
  121POSM   C3A 1413   3.765   0.706  14.839 -0.0583 -0.0754 -0.0692
  121POSM   C1B 1414   5.245   0.909  15.255  0.1369  0.1418  0.0098
  121POSM   D2B 1415   5.335   1.024  14.821 -0.0454  0.0325  0.4637
  121POSM   C3B 1416   4.941   1.048  14.509  0.0039  0.0222 -0.2085
  121POSM   C4B 1417   4.645   0.799  14.268  0.1999 -0.1783  0.3454
  122DOPS   CNO 1418   7.293   6.979  16.565  0.0004 -0.0682  0.1219
  122DOPS   PO4 1419   7.145   6.829  16.217  0.0876  0.0623  0.0123
  122DOPS   GL1 1420   7.173   6.886  15.790 -0.0133  0.2467  0.5879
  122DOPS   GL2 1421   7.075   6.622  15.713 -0.0952  0.1895 -0.0033
  122DOPS   C1A 1422   7.314   6.985  15.334  0.1009  0.2399  0.3183
  122DOPS   D2A 1423   7.547   7.184  14.984 -0.1275  0.1350 -0.0076
  122DOPS   C3A 1424   7.331   7.581  14.844 -0.2858  0.0172  0.0017
  122DOPS   C4A 1425   7.129   7.944  14.672 -0.0657 -0.1971  0.0616
  122DOPS   C1B 1426   7.282   6.509  15.336  0.5555  0.1268 -0.1932
  122DOPS   D2B 1427   7.017   6.457  14.928 -0.1817  0.0523 -0.0171
  122DOPS   C3B 1428   6.973   6.169  14.521  0.3242 -0.1007  0.1119
  122DOPS   C4B 1429   6.915   6.187  14.040  0.0002 -0.1108  0.0232
  123POSM   NC3 1430  10.331   5.224  15.205  0.0879 -0.0238  0.2016
  123POSM   PO4 1431  10.078   4.893  15.354  0.1310 -0.2621 -0.0196
  123POSM   AM1 1432   9.965   4.938  15.042  0.2922  0.3138  0.1209
  123POSM   AM2 1433  10.089   4.898  14.806  0.1625  0.0858 -0.1282
  123POSM   T1A 1434   9.633   5.066  14.628  0.1970 -0.0242  0.0507
  123POSM   C2A 1435   9.638   5.180  14.168 -0.1181 -0.3116 -0.3079
  123POSM   C3A 1436   9.652   5.306  13.717 -0.2507  0.2138  0.0706
  123POSM   C1B 1437  10.077   4.901  14.464 -0.0404  0.0006  0.1566
  123POSM   D2B 1438  10.092   5.044  14.013  0.0250  0.2524 -0.0505
  123POSM   C3B 1439   9.813   4.800  13.731  0.1707  0.0670  0.2079
  123POSM   C4B 1440   9.631   4.874  13.344  0.1254 -0.0225 -0.1660
  124POSM   NC3 1441   5.504   3.980  16.316 -0.3766  0.0343  0.2205
  124POSM   PO4 1442   5.711   3.653  16.411 -0.0660 -0.3260  0.2143
  124POSM   AM1 1443   5.747   3.632  16.084 -0.0559 -0.3372  0.1190
  124POSM   AM2 1444   5.674   3.842  15.867  0.0905  0.1597 -0.1612
  124POSM   T1A 1445   6.062   3.577  15.721  0.1631 -0.0981 -0.0035
  124POSM   C2A 1446   6.242   3.305  15.398 -0.0568  0.0478  0.3752
  124POSM   C3A 1447   6.545   2.912  15.327 -0.0960 -0.3395 -0.2784
  124POSM   C1B 1448   5.552   3.596  15.685  0.1575  0.1343  0.0050
  124POSM   D2B 1449   5.712   3.247  15.499  0.0227 -0.0469 -0.1335
  124POSM   C3B 1450   5.867   3.309  15.054 -0.0238 -0.2935 -0.1835
  124POSM   C4B 1451   6.118   3.667  14.818  0.1685 -0.0251  0.4976
  125POSM   NC3 1452   2.139   8.078  15.855 -0.1081 -0.1258  0.1372
  125POSM   PO4 1453   2.261   8.435  16.020 -0.1295 -0.1588  0.1111
  125POSM   AM1 1454   2.298   8.513  15.671 -0.2749 -0.0406  0.1011
  125POSM   AM2 1455   2.487   8.541  15.522 -0.3430 -0.0513  0.0131
  125POSM   T1A 1456   2.227   8.353  15.198  0.1158 -0.1627  0.1031
  125POSM   C2A 1457   2.044   8.350  14.773 -0.0979  0.1339 -0.1147
  125POSM   C3A 1458   2.038   8.098  14.385  0.2407  0.1559 -0.0188
  125POSM   C1B 1459   2.619   8.650  15.181 -0.2129 -0.1427 -0.1043
  125POSM   D2B 1460   2.841   8.876  14.903  0.2494  0.3149 -0.1670
  125POSM   C3B 1461   2.699   8.784  14.429  0.4030 -0.1507 -0.0220
  125POSM   C4B 1462   2.581   8.934  13.999 -0.1859 -0.1087  0.0788
  126DOPE   NH3 1463  11.657   8.587  15.991 -0.1737 -0.0034  0.1294
  126DOPE   PO4 1464  11.392   8.449  15.897  0.1145 -0.2515  0.3050
  126DOPE   GL1 1465  11.329   8.239  15.606  0.3838  0.2972  0.1814
  126DOPE   GL2 1466  11.447   8.036  15.445  0.1421 -0.1233 -0.1641
  126DOPE   C1A 1467  11.297   8.419  15.176 -0.0252  0.0741 -0.0009
  126DOPE   D2A 1468  11.629   8.387  14.827  0.0931  0.3670  0.2721
  126DOPE   C3A 1469  11.764   8.444  14.359 -0.0172 -0.1274  0.1030
  126DOPE   C4A 1470  11.799   8.172  13.987  0.0918  0.1582 -0.0630
  126DOPE   C1B 1471  11.851   7.997  15.253  0.3771  0.1245  0.2066
  126DOPE   D2B 1472  11.927   7.992  14.769  0.3488 -0.0628 -0.0094
  126DOPE   C3B 1473  12.323   8.201  14.584  0.3335 -0.0449 -0.1038
  126DOPE   C4B 1474  12.692   8.403  14.745  0.1341  0.0107 -0.5068
  127DOPE   NH3 1475   1.191   7.738  15.895 -0.2557 -0.3769  0.2181
  127DOPE   PO4 1476   1.374   7.520  15.952  0.0620 -0.2613 -0.1591
  127DOPE   GL1 1477   1.614   7.453  15.565 -0.4065 -0.1873  0.4026
  127DOPE   GL2 1478   1.620   7.219  15.578 -0.1984 -0.0562 -0.0060
  127DOPE   C1A 1479   1.617   7.511  15.114  0.1132  0.2042  0.1650
  127DOPE   D2A 1480   1.703   7.659  14.736 -0.2197  0.1684  0.2278
  127DOPE   C3A 1481   1.440   7.886  14.468 -0.0561  0.2700 -0.2259
  127DOPE   C4A 1482   1.289   8.273  14.328  0.0394 -0.2886 -0.1490
  127DOPE   C1B 1483   1.491   7.025  15.188 -0.1301 -0.1527 -0.2715
  127DOPE   D2B 1484   1.308   6.821  14.874 -0.0261  0.0855  0.0224
  127DOPE   C3B 1485   1.348   6.986  14.426  0.1293 -0.0817  0.1810
  127DOPE   C4B 1486   1.117   7.145  14.030 -0.3422  0.3775 -0.1167
  128DOPS   CNO 1487  11.191   1.097  15.502  0.1369 -0.2671  0.2851
  128DOPS   PO4 1488  10.925   1.028  15.279 -0.1843 -0.1663  0.1801
  128DOPS   GL1 1489  10.779   1.004  14.883  0.1022  0.2682  0.0491
  128DOPS   GL2 1490  11.068   0.923  14.742 -0.3783  0.0895 -0.1930
  128DOPS   C1A 1491  10.597   0.641  14.672  0.2778  0.1469 -0.1293
  128DOPS   D2A 1492  10.617   0.148  14.665 -0.3297  0.0931  0.1442
  128DOPS   C3A 1493  10.412  -0.099  14.352  0.0159  0.1460  0.3439
  128DOPS   C4A 1494  10.285  -0.577  14.395  0.0172 -0.0281 -0.0019
  128DOPS   C1B 1495  11.104   0.641  14.315  0.1100  0.0701  0.3026
  128DOPS   D2B 1496  11.322   0.378  13.961  0.0210  0.2696 -0.0613
  128DOPS   C3B 1497  11.704   0.640  13.853  0.1294  0.2943  0.3809
  128DOPS   C4B 1498  11.988   0.873  13.614 -0.3515  0.1565 -0.1486
  129DOPS   CNO 1499   0.440   4.236  15.572  0.0200 -0.1813 -0.0548
  129DOPS   PO4 1500   0.287   4.560  15.723 -0.0388 -0.1711 -0.1979
  129DOPS   GL1 1501   0.133   4.545  15.322  0.2815  0.0530  0.0951
  129DOPS   GL2 1502  -0.082   4.790  15.331 -0.5099 -0.2617  0.1562
  129DOPS   C1A 1503   0.174   4.468  14.896  0.1052 -0.3326 -0.0185
  129DOPS   D2A 1504  -0.009   4.117  14.636 -0.4598  0.0151  0.0035
  129DOPS   C3A 1505  -0.427   3.919  14.591 -0.1016  0.0266 -0.1948
  129DOPS   C4A 1506  -0.896   3.827  14.565  0.1104 -0.5137 -0.3065
  129DOPS   C1B 1507   0.078   4.938  14.970  0.1136 -0.0708  0.0687
  129DOPS   D2B 1508   0.037   5.289  14.688  0.0880  0.0037  0.1970
  129DOPS   C3B 1509  -0.345   5.515  14.756  0.0233 -0.3679 -0.0536
  129DOPS   C4B 1510  -0.581   5.937  14.544  0.0271  0.1723 -0.1036
  130DOPE   NH3 1511   3.960   9.437  16.372  0.0847  0.3942 -0.0217
  130DOPE   PO4 1512   3.939   9.208  16.148  0.2068 -0.1194  0.0252
  130DOPE   GL1 1513   3.939   9.309  15.833  0.2141 -0.1854 -0.0371
  130DOPE   GL2 1514   3.677   9.211  15.617  0.1525 -0.1811 -0.1141
  130DOPE   C1A 1515   3.841   9.692  15.582  0.2197  0.0991 -0.1804
  130DOPE   D2A 1516   3.801   9.844  15.177 -0.0046  0.3369  0.3369
  130DOPE   C3A 1517   3.446   9.727  14.877  0.0350  0.0794  0.0200
  130DOPE   C4A 1518   3.459   9.388  14.562  0.1261 -0.1526 -0.1902
  130DOPE   C1B 1519   3.781   9.274  15.159 -0.0201 -0.0340  0.3212
  130DOPE   D2B 1520   4.145   9.367  14.805 -0.1175  0.0028  0.1586
  130DOPE   C3B 1521   4.012   9.338  14.392 -0.1722  0.2119  0.0326
  130DOPE   C4B 1522   3.910   9.364  13.995  0.1255 -0.0362 -0.1311
  131DOPC   NC3 1523   4.617  10.421  15.967  0.0734 -0.4423 -0.0347
  131DOPC   PO4 1524   4.944  10.190  15.907 -0.0745 -0.0351 -0.2492
  131DOPC   GL1 1525   4.995  10.217  15.605 -0.1944 -0.0271  0.0503
  131DOPC   GL2 1526   4.961  10.490  15.472 -0.1648 -0.0925 -0.1566
  131DOPC   C1A 1527   4.881  10.164  15.147  0.5014  0.2129 -0.2306
  131DOPC   D2A 1528   4.568  10.211  14.793  0.0849 -0.3827 -0.0965
  131DOPC   C3A 1529   4.192  10.436  14.931 -0.2447 -0.2558 -0.0670
  131DOPC   C4A 1530   3.853  10.487  15.207  0.2976 -0.1036  0.1125
  131DOPC   C1B 1531   5.181  10.511  15.079 -0.1952 -0.2349  0.1237
  131DOPC   D2B 1532   5.372  10.296  14.714  0.0866 -0.0675  0.1915
  131DOPC   C3B 1533   5.756  10.356  14.522 -0.0927 -0.1420  0.0715
  131DOPC   C4B 1534   6.079  10.465  14.202  0.0175 -0.0065  0.1024
  132DOPE   NH3 1535   5.797   9.269  15.981  0.1913  0.0699  0.0136
  132DOPE   PO4 1536   5.990   9.086  15.893  0.1014 -0.1548 -0.0775
  132DOPE   GL1 1537   6.142   9.017  15.627 -0.2466  0.2080  0.0756
  132DOPE   GL2 1538   6.476   8.961  15.581  0.1758 -0.0360 -0.2581
  132DOPE   C1A 1539   6.185   8.646  15.321 -0.0201 -0.0512 -0.2900
  132DOPE   D2A 1540   6.528   8.513  15.148 -0.2336 -0.0651 -0.1804
  132DOPE   C3A 1541   6.946   8.347  15.232 -0.2134 -0.0439  0.1632
  132DOPE   C4A 1542   7.413   8.465  15.393  0.3394  0.1856  0.0199
  132DOPE   C1B 1543   6.520   9.048  15.140  0.2971 -0.3578 -0.2804
  132DOPE   D2B 1544   6.519   8.837  14.760  0.0327  0.2537  0.0726
  132DOPE   C3B 1545   6.173   8.590  14.770  0.3833 -0.0288 -0.2125
  132DOPE   C4B 1546   5.890   8.376  14.512  0.2550  0.4169  0.0384
  133DOPC   NC3 1547  34.574   3.712  16.025 -0.1351 -0.0166 -0.1168
  133DOPC   PO4 1548  34.447   3.574  15.685  0.2168 -0.1441 -0.3224
  133DOPC   GL1 1549  34.255   3.426  15.289 -0.0972 -0.2536  0.4114
  133DOPC   GL2 1550  34.369   3.696  15.119  0.0656 -0.0118 -0.0967
  133DOPC   C1A 1551  34.105   3.065  14.988  0.1270  0.1753  0.1888
  133DOPC   D2A 1552  34.011   2.711  14.671 -0.3130  0.0521  0.1066
  133DOPC   C3A 1553  34.227   2.731  14.256 -0.0083  0.1562 -0.0366
  133DOPC   C4A 1554  34.491   2.503  13.985  0.0843  0.0302 -0.1027
  133DOPC   C1B 1555  34.737   3.689  14.775  0.0075 -0.1193  0.0220
  133DOPC   D2B 1556  35.157   3.853  14.639  0.0656  0.0973  0.0049
  133DOPC   C3B 1557  35.100   4.175  14.292  0.2472  0.0046  0.4331
  133DOPC   C4B 1558  34.862   4.456  13.973 -0.1076  0.1830  0.2092
  134DOPE   NH3 1559   9.945   4.443  15.050 -0.2306  0.2446  0.4501
  134DOPE   PO4 1560  10.037   4.209  14.929 -0.1126 -0.0670 -0.0159
  134DOPE   GL1 1561  10.048   4.451  14.593 -0.0751 -0.0076 -0.1261
  134DOPE   GL2 1562   9.789   4.533  14.573  0.1886  0.2589 -0.0560
  134DOPE   C1A 1563  10.076   4.436  14.133  0.1875 -0.0627  0.1236
  134DOPE   D2A 1564  10.385   4.293  13.821 -0.1831  0.1951  0.1380
  134DOPE   C3A 1565  10.594   4.088  13.526  0.0727 -0.0469  0.0826
  134DOPE   C4A 1566  11.028   4.066  13.512  0.0234  0.1007 -0.3935
  134DOPE   C1B 1567   9.562   4.699  14.179  0.1079 -0.0811  0.0689
  134DOPE   D2B 1568   9.337   4.883  13.807 -0.0707 -0.0906 -0.0119
  134DOPE   C3B 1569   8.948   4.840  13.737 -0.1050  0.0164  0.1556
  134DOPE   C4B 1570   8.650   4.943  14.018 -0.0629 -0.1313 -0.4986
  135DOPE   NH3 1571   9.884   8.382  15.794 -0.0826  0.0075  0.1182
  135DOPE   PO4 1572   9.854   8.571  15.576 -0.0787 -0.2425 -0.1737
  135DOPE   GL1 1573   9.903   8.332  15.232 -0.0946 -0.3352 -0.2582
  135DOPE   GL2 1574   9.847   8.121  15.379 -0.0242  0.0914 -0.1804
  135DOPE   C1A 1575  10.080   8.189  14.838 -0.0878  0.0867  0.2935
  135DOPE   D2A 1576  10.106   8.066  14.394 -0.4307  0.2138  0.0135
  135DOPE   C3A 1577   9.914   7.817  14.039  0.0853 -0.2295  0.0465
  135DOPE   C4A 1578   9.613   7.741  13.726  0.0271 -0.1145  0.0866
  135DOPE   C1B 1579   9.681   7.931  15.045 -0.0429  0.0637  0.0255
  135DOPE   D2B 1580   9.609   7.916  14.583  0.0644  0.2654  0.2051
  135DOPE   C3B 1581   9.218   7.897  14.305  0.1413  0.2390  0.2296
  135DOPE   C4B 1582   9.314   8.110  13.917 -0.0352  0.1890  0.1525
  136DOPC   NC3 1583   2.197   0.051  16.271  0.4833 -0.0206  0.3375
  136DOPC   PO4 1584   2.260  -0.187  15.955  0.1052  0.1512 -0.2280
  136DOPC   GL1 1585   2.212   0.123  15.803 -0.0877 -0.2946  0.1305
  136DOPC   GL2 1586   2.042   0.137  15.583  0.3057 -0.2027 -0.3946
  136DOPC   C1A 1587   2.552   0.283  15.494 -0.1107  0.0710 -0.2943
  136DOPC   D2A 1588   2.648   0.441  15.086  0.3377  0.0435 -0.0820
  136DOPC   C3A 1589   2.898   0.801  14.957 -0.2909 -0.1722 -0.1157
  136DOPC   C4A 1590   2.966   1.143  14.660  0.0684  0.3386  0.1191
  136DOPC   C1B 1591   1.768   0.178  15.231  0.0820 -0.0956  0.3162
  136DOPC   D2B 1592   1.785  -0.027  14.806 -0.0961 -0.1194  0.2882
  136DOPC   C3B 1593   2.008   0.197  14.468 -0.0653  0.3571 -0.2775
  136DOPC   C4B 1594   2.481   0.252  14.481  0.1528  0.1347 -0.3299
  137DOPC   NC3 1595  10.579   4.145  14.821 -0.1412  0.2297 -0.1545
  137DOPC   PO4 1596  10.775   3.837  15.040 -0.2942  0.3764 -0.1698
  137DOPC   GL1 1597  10.814   3.670  14.718 -0.1760 -0.1553 -0.1842
  137DOPC   GL2 1598  10.634   3.766  14.545  0.1135  0.3637 -0.1655
  137DOPC   C1A 1599  11.062   3.675  14.292  0.2595  0.3042 -0.3319
  137DOPC   D2A 1600  11.093   3.685  13.786  0.3082  0.1023 -0.0392
  137DOPC   C3A 1601  10.993   3.398  13.428 -0.1966  0.0765 -0.3094
  137DOPC   C4A 1602  10.607   3.162  13.219  0.0250 -0.1646 -0.0927
  137DOPC   C1B 1603  10.337   3.834  14.158 -0.0702  0.0538  0.1920
  137DOPC   D2B 1604  10.096   3.891  13.738  0.2254  0.2692  0.0323
  137DOPC   C3B 1605   9.683   4.049  13.764  0.0489  0.1471 -0.0236
  137DOPC   C4B 1606   9.379   4.428  13.700  0.2445 -0.2825  0.0774
  138DOPE   NH3 1607   7.000   1.660  15.948  0.0903 -0.1998 -0.0884
  138DOPE   PO4 1608   7.164   1.915  16.114 -0.2414  0.2055 -0.2143
  138DOPE   GL1 1609   7.134   2.276  15.867 -0.1676 -0.0147 -0.0571
  138DOPE   GL2 1610   7.305   2.171  15.665  0.2600 -0.1735 -0.2311
  138DOPE   C1A 1611   6.845   2.137  15.465 -0.1776  0.2316 -0.1207
  138DOPE   D2A 1612   6.847   1.876  15.020 -0.0559 -0.2220 -0.0510
  138DOPE   C3A 1613   7.142   1.882  14.650  0.3984 -0.0438  0.0516
  138DOPE   C4A 1614   7.460   1.703  14.299  0.1881 -0.0662 -0.3274
  138DOPE   C1B 1615   7.347   2.643  15.593 -0.0879 -0.0452 -0.3065
  138DOPE   D2B 1616   7.618   2.939  15.398 -0.2093 -0.0275  0.1756
  138DOPE   C3B 1617   7.572   3.069  14.926 -0.1691  0.0839 -0.1996
  138DOPE   C4B 1618   7.692   3.196  14.464  0.2199  0.2202 -0.0768
  139DOPE   NH3 1619  11.428   6.328  15.629  0.1682  0.0749  0.1073
  139DOPE   PO4 1620  11.287   6.608  15.630 -0.2942 -0.0621 -0.0329
  139DOPE   GL1 1621  11.140   6.547  15.248 -0.0960 -0.3864 -0.0617
  139DOPE   GL2 1622  10.863   6.744  15.335  0.0924  0.2143  0.1101
  139DOPE   C1A 1623  11.130   6.442  14.782 -0.0793  0.0014 -0.0229
  139DOPE   D2A 1624  11.054   6.286  14.409 -0.1571 -0.0857  0.1098
  139DOPE   C3A 1625  10.781   6.304  14.011  0.2145  0.3328 -0.1102
  139DOPE   C4A 1626  10.368   6.454  13.983 -0.0525  0.2577 -0.1845
  139DOPE   C1B 1627  10.980   7.030  14.981 -0.0025 -0.0498  0.0738
  139DOPE   D2B 1628  10.986   7.144  14.610  0.0532  0.0737  0.1271
  139DOPE   C3B 1629  11.194   6.937  14.188 -0.1571  0.0461 -0.3906
  139DOPE   C4B 1630  11.483   6.733  13.887  0.0179  0.1782  0.1816
  140DOPS   CNO 1631   2.835   4.355  16.282  0.0487 -0.4525 -0.0693
  140DOPS   PO4 1632   2.928   4.722  16.363 -0.0923 -0.0391  0.0790
  140DOPS   GL1 1633   2.572   4.759  16.112 -0.0782 -0.0474  0.1064
  140DOPS   GL2 1634   2.512   4.518  15.907  0.4513  0.1678 -0.1717
  140DOPS   C1A 1635   2.353   5.115  15.861 -0.1338 -0.2927 -0.3615
  140DOPS   D2A 1636   2.132   5.170  15.417  0.0407  0.5171 -0.1085
  140DOPS   C3A 1637   2.212   5.326  14.990 -0.0168  0.3177  0.1120
  140DOPS   C4A 1638   2.249   5.696  14.736 -0.0127 -0.0791  0.0612
  140DOPS   C1B 1639   2.305   4.718  15.498  0.5660 -0.1731 -0.3154
  140DOPS   D2B 1640   2.160   4.565  15.139 -0.1410 -0.1757 -0.1274
  140DOPS   C3B 1641   2.158   4.695  14.740  0.2034  0.2742  0.2490
  140DOPS   C4B 1642   2.136   5.105  14.544  0.0846  0.2960  0.2147
  141POSM   NC3 1643   4.189  11.209  16.331 -0.2284  0.2082  0.1599
  141POSM   PO4 1644   4.368  10.951  16.103 -0.1709 -0.1328  0.2649
  141POSM   AM1 1645   4.462  11.131  15.873 -0.0123  0.4573  0.2680
  141POSM   AM2 1646   4.679  11.131  15.652  0.2115 -0.0787 -0.1380
  141POSM   T1A 1647   4.321  11.307  15.431  0.1188 -0.2431 -0.0262
  141POSM   C2A 1648   4.160  11.395  15.051  0.0241 -0.3246  0.1308
  141POSM   C3A 1649   3.712  11.570  14.925 -0.1958  0.1737 -0.1057
  141POSM   C1B 1650   4.765  11.120  15.291 -0.1704  0.3221  0.0376
  141POSM   D2B 1651   4.659  11.214  14.864  0.0722 -0.0045  0.2547
  141POSM   C3B 1652   4.648  10.980  14.501  0.0126  0.0090 -0.0802
  141POSM   C4B 1653   4.825  10.707  14.086  0.0149 -0.2328 -0.0122
  142DOPC   NC3 1654   0.016   5.939  15.992  0.2711  0.0143  0.0732
  142DOPC   PO4 1655  -0.141   6.276  16.141 -0.0402 -0.3849  0.0721
  142DOPC   GL1 1656  -0.047   6.380  15.763  0.1331 -0.3938 -0.1736
  142DOPC   GL2 1657   0.227   6.281  15.665 -0.1798  0.0061 -0.2167
  142DOPC   C1A 1658  -0.169   6.351  15.291  0.2254  0.0564  0.1211
  142DOPC   D2A 1659  -0.297   6.587  14.957 -0.1503 -0.1832  0.1717
  142DOPC   C3A 1660  -0.192   6.508  14.492 -0.3251  0.1644 -0.1500
  142DOPC   C4A 1661   0.087   6.779  14.272 -0.0359 -0.2618  0.0885
  142DOPC   C1B 1662   0.277   6.217  15.219 -0.2716 -0.0334 -0.0467
  142DOPC   D2B 1663   0.176   6.305  14.718 -0.0779 -0.0540 -0.3222
  142DOPC   C3B 1664   0.432   6.711  14.640  0.0443  0.0048 -0.0061
  142DOPC   C4B 1665   0.396   7.120  14.835  0.1698  0.1969 -0.1831
  143DOPC   NC3 1666   4.518   3.703  15.789 -0.1657  0.0521  0.0955
  143DOPC   PO4 1667   4.736   3.466  16.039  0.0933 -0.2576 -0.2060
  143DOPC   GL1 1668   4.732   3.328  15.686 -0.0189 -0.3099  0.1872
  143DOPC   GL2 1669   4.508   3.075  15.660  0.2666  0.0353  0.0444
  143DOPC   C1A 1670   4.448   3.492  15.351  0.1858  0.0816 -0.0463
  143DOPC   D2A 1671   4.341   3.821  15.107  0.1907  0.4849 -0.0824
  143DOPC   C3A 1672   4.545   3.968  14.688 -0.0621  0.1937  0.2754
  143DOPC   C4A 1673   4.640   4.159  14.257 -0.3432  0.0706  0.1718
  143DOPC   C1B 1674   4.265   2.987  15.245 -0.1309 -0.1187 -0.4625
  143DOPC   D2B 1675   4.159   3.215  14.850  0.0750  0.0368 -0.1196
  143DOPC   C3B 1676   4.509   3.347  14.573 -0.4277 -0.0726 -0.0864
  143DOPC   C4B 1677   4.499   3.696  14.321  0.1637  0.2083  0.3032
  144DOPS   CNO 1678   2.996   1.662  16.164  0.0136 -0.3051 -0.0676
  144DOPS   PO4 1679   3.214   1.647  15.890 -0.1982 -0.3498  0.0568
  144DOPS   GL1 1680   3.085   1.523  15.539  0.0265  0.1268 -0.1342
  144DOPS   GL2 1681   3.115   1.611  15.300 -0.2776  0.1146  0.0851
  144DOPS   C1A 1682   3.200   1.136  15.344  0.0865 -0.1589  0.2597
  144DOPS   D2A 1683   3.358   0.748  15.133  0.1861  0.0954  0.0675
  144DOPS   C3A 1684   3.335   0.771  14.644 -0.1549 -0.1948 -0.0139
  144DOPS   C4A 1685   3.011   0.614  14.395  0.1800 -0.0917 -0.0217
  144DOPS   C1B 1686   3.407   1.946  15.187  0.1288  0.0059  0.1939
  144DOPS   D2B 1687   3.543   2.126  14.759  0.1758 -0.0040  0.0000
  144DOPS   C3B 1688   3.479   2.236  14.271  0.1013 -0.3031  0.1646
  144DOPS   C4B 1689   3.394   1.963  13.908  0.0666  0.1141  0.0790
  145DOPC   NC3 1690  10.762  11.602  15.600  0.1019 -0.0928 -0.0744
  145DOPC   PO4 1691  10.511  11.960  15.680  0.2198  0.4606  0.0188
  145DOPC   GL1 1692  10.370  11.765  15.337  0.0145  0.5586  0.0801
  145DOPC   GL2 1693  10.458  11.534  15.236 -0.1511 -0.1645  0.1822
  145DOPC   C1A 1694  10.441  11.928  14.915 -0.0015 -0.0616  0.4360
  145DOPC   D2A 1695  10.321  12.020  14.513  0.2145  0.0871  0.0946
  145DOPC   C3A 1696  10.439  11.832  14.115  0.0106  0.5929 -0.0303
  145DOPC   C4A 1697  10.289  11.881  13.709  0.0419 -0.1087  0.2634
  145DOPC   C1B 1698  10.081  11.514  14.902 -0.0149  0.1342  0.2290
  145DOPC   D2B 1699   9.998  11.461  14.413 -0.0707  0.0864 -0.1974
  145DOPC   C3B 1700   9.845  11.756  14.052  0.0903  0.2025  0.0794
  145DOPC   C4B 1701   9.814  12.092  13.717  0.2424 -0.3435  0.4804
  146POSM   NC3 1702   9.138   3.874  15.847 -0.2021 -0.0369  0.0796
  146POSM   PO4 1703   9.109   4.146  15.622  0.0143 -0.0772  0.1003
  146POSM   AM1 1704   9.092   4.127  15.304  0.0637  0.3725 -0.2271
  146POSM   AM2 1705   8.903   4.260  15.128 -0.1222  0.0783 -0.1697
  146POSM   T1A 1706   9.157   3.846  14.880  0.1005 -0.0232 -0.1713
  146POSM   C2A 1707   9.364   3.892  14.486  0.2418  0.1517  0.1244
  146POSM   C3A 1708   9.517   4.249  14.240 -0.4721  0.0858  0.2560
  146POSM   C1B 1709   8.858   4.602  14.999 -0.0041  0.0312 -0.0383
  146POSM   D2B 1710   8.931   4.984  14.757 -0.1745  0.1859 -0.3374
  146POSM   C3B 1711   8.736   5.241  14.458  0.3485 -0.0451 -0.1267
  146POSM   C4B 1712   8.502   5.484  14.126 -0.1822  0.1600  0.0058
  147DOPC   NC3 1713   7.304   1.153  15.466  0.1130 -0.1590 -0.2567
  147DOPC   PO4 1714   6.946   1.217  15.683  0.0588  0.1126  0.0945
  147DOPC   GL1 1715   6.842   1.362  15.309  0.1705 -0.1650  0.0141
  147DOPC   GL2 1716   6.745   1.592  15.465 -0.0137  0.2626  0.0058
  147DOPC   C1A 1717   6.393   1.378  15.203 -0.2713  0.2727  0.2276
  147DOPC   D2A 1718   5.959   1.307  15.040 -0.0020  0.0519  0.1026
  147DOPC   C3A 1719   5.706   1.271  14.659 -0.1840 -0.3980  0.1289
  147DOPC   C4A 1720   5.495   1.131  14.340  0.2289  0.0328 -0.2637
  147DOPC   C1B 1721   6.418   1.911  15.290 -0.1640 -0.1297  0.1666
  147DOPC   D2B 1722   6.204   1.709  14.876  0.0905  0.1397  0.1140
  147DOPC   C3B 1723   6.247   1.360  14.654 -0.1351 -0.2905  0.3503
  147DOPC   C4B 1724   6.244   0.835  14.603  0.1722  0.1796  0.0883
  148DOPC   NC3 1725   9.579   0.057  15.258 -0.0347 -0.2145  0.0768
  148DOPC   PO4 1726   9.203  -0.059  15.272  0.0090 -0.4115  0.0927
  148DOPC   GL1 1727   9.168   0.231  14.998  0.2192  0.2835 -0.0531
  148DOPC   GL2 1728   8.906   0.143  14.865 -0.1610  0.0084  0.4338
  148DOPC   C1A 1729   9.312   0.445  14.612  0.0958  0.1304 -0.4372
  148DOPC   D2A 1730   9.152   0.452  14.206 -0.0164 -0.2288  0.0326
  148DOPC   C3A 1731   9.156   0.037  14.042  0.1159 -0.0861 -0.0671
  148DOPC   C4A 1732   8.787  -0.156  13.954 -0.1333 -0.0940  0.0797
  148DOPC   C1B 1733   8.752   0.210  14.454  0.0685  0.3544 -0.0653
  148DOPC   D2B 1734   8.657   0.388  14.064 -0.0897 -0.1831 -0.2247
  148DOPC   C3B 1735   8.961   0.451  13.732 -0.1132 -0.0862  0.2463
  148DOPC   C4B 1736   9.132   0.538  13.306 -0.4570 -0.0240  0.0506
  149DOPE   NH3 1737   6.363  33.331  15.985  0.1343 -0.1107  0.1993
  149DOPE   PO4 1738   6.425  33.606  15.783  0.1381  0.1762 -0.0188
  149DOPE   GL1 1739   6.509  33.831  15.455 -0.0837 -0.3351  0.0506
  149DOPE   GL2 1740   6.710  34.104  15.561  0.1677 -0.2577  0.3114
  149DOPE   C1A 1741   6.697  33.938  15.076 -0.0339  0.0941 -0.2411
  149DOPE   D2A 1742   6.575  34.029  14.639 -0.2607  0.3577 -0.2986
  149DOPE   C3A 1743   6.325  34.016  14.180  0.1732 -0.0362  0.0077
  149DOPE   C4A 1744   6.224  34.088  13.734 -0.2164  0.1787 -0.1035
  149DOPE   C1B 1745   6.983  34.293  15.273  0.1268  0.0732  0.2026
  149DOPE   D2B 1746   6.971  34.685  14.987 -0.0174  0.1709  0.0824
  149DOPE   C3B 1747   6.722  34.666  14.602  0.1959  0.2036 -0.0403
  149DOPE   C4B 1748   6.312  34.576  14.339 -0.0889 -0.4541 -0.4916
  150POSM   NC3 1749  10.793   2.085  15.380  0.3738  0.1482 -0.1402
  150POSM   PO4 1750  10.557   1.899  15.105 -0.1585 -0.3481 -0.3045
  150POSM   AM1 1751  10.644   1.739  14.850  0.1243 -0.0373  0.0171
  150POSM   AM2 1752  10.606   1.857  14.595 -0.3747  0.0858  0.0478
  150POSM   T1A 1753  10.725   1.396  14.518 -0.1695  0.0356  0.2305
  150POSM   C2A 1754  10.718   1.017  14.293 -0.2731  0.1007  0.1117
  150POSM   C3A 1755  10.850   0.829  13.876  0.1243  0.1106  0.0344
  150POSM   C1B 1756  10.387   1.763  14.311 -0.0024 -0.1446 -0.1807
  150POSM   D2B 1757  10.181   1.726  13.877 -0.1864  0.1699 -0.1820
  150POSM   C3B 1758  10.352   1.444  13.577  0.1965  0.1884  0.0911
  150POSM   C4B 1759  10.553   0.997  13.544 -0.5420 -0.1659  0.3416
  151POSM   NC3 1760   1.760   7.245  16.064  0.2434 -0.2236  0.1264
  151POSM   PO4 1761   2.141   7.219  16.078 -0.0843  0.0080  0.1066
  151POSM   AM1 1762   2.170   7.115  15.785  0.0271  0.0889 -0.0344
  151POSM   AM2 1763   2.388   6.955  15.679  0.3665  0.0181  0.1835
  151POSM   T1A 1764   2.034   6.969  15.268  0.2185 -0.1123 -0.2432
  151POSM   C2A 1765   1.876   7.152  14.870 -0.0393  0.3635 -0.1347
  151POSM   C3A 1766   1.859   7.034  14.434 -0.3396  0.0223  0.0459
  151POSM   C1B 1767   2.540   6.902  15.382  0.1764 -0.0112 -0.0717
  151POSM   D2B 1768   2.921   6.848  15.073 -0.1394  0.0376 -0.0424
  151POSM   C3B 1769   3.008   6.394  14.872 -0.4594  0.3014  0.0735
  151POSM   C4B 1770   3.017   6.087  14.563  0.2827 -0.0055  0.0703
  152DOPE   NH3 1771   1.461   2.248  15.856  0.0199  0.2493  0.1535
  152DOPE   PO4 1772   1.691   2.010  15.720  0.2581 -0.2848 -0.0907
  152DOPE   GL1 1773   1.885   2.132  15.316  0.0540 -0.1079  0.0313
  152DOPE   GL2 1774   2.173   2.040  15.358  0.1245  0.2978 -0.2747
  152DOPE   C1A 1775   1.907   2.060  14.855  0.0120  0.0043  0.0729
  152DOPE   D2A 1776   2.103   1.824  14.554  0.2771  0.0927  0.0672
  152DOPE   C3A 1777   1.934   1.811  14.138 -0.2562 -0.3864 -0.0714
  152DOPE   C4A 1778   1.551   1.966  13.907  0.1578 -0.0600  0.0335
  152DOPE   C1B 1779   2.237   1.645  15.138  0.0565 -0.1337  0.3697
  152DOPE   D2B 1780   2.299   1.406  14.786  0.0199  0.0533 -0.1457
  152DOPE   C3B 1781   2.043   1.354  14.365 -0.0941  0.3387 -0.3055
  152DOPE   C4B 1782   2.049   1.174  13.945  0.0101  0.0871 -0.1102
  153POSM   NC3 1783   1.048   2.957  15.689 -0.1588 -0.0153 -0.5410
  153POSM   PO4 1784   1.030   2.603  15.860 -0.2648 -0.4149  0.0352
  153POSM   AM1 1785   1.102   2.494  15.549 -0.4152  0.0289 -0.1961
  153POSM   AM2 1786   1.197   2.597  15.298  0.1190 -0.2317 -0.0876
  153POSM   T1A 1787   1.421   2.204  15.199  0.2200 -0.1331  0.0745
  153POSM   C2A 1788   1.396   1.930  14.811 -0.0990  0.0497 -0.0487
  153POSM   C3A 1789   1.609   2.065  14.423  0.2014  0.0279 -0.2873
  153POSM   C1B 1790   1.327   2.789  15.015  0.2836 -0.0449 -0.2085
  153POSM   D2B 1791   1.673   2.996  14.859 -0.1456  0.0919 -0.0136
  153POSM   C3B 1792   1.725   2.953  14.428 -0.0737 -0.0548  0.0876
  153POSM   C4B 1793   1.602   2.674  14.060 -0.1393 -0.0162  0.0694
  154DOPE   NH3 1794   3.940  10.642  16.111  0.0991 -0.1747  0.1076
  154DOPE   PO4 1795   4.113  10.410  16.012 -0.2391 -0.1797  0.1903
  154DOPE   GL1 1796   4.282  10.531  15.691  0.4204 -0.0156  0.0481
  154DOPE   GL2 1797   4.225  10.795  15.657  0.0192  0.0565 -0.2055
  154DOPE   C1A 1798   4.539  10.508  15.298 -0.2697 -0.1122  0.1001
  154DOPE   D2A 1799   4.655  10.731  14.884  0.3406 -0.2868 -0.3437
  154DOPE   C3A 1800   4.951  10.580  14.550 -0.0589  0.2617  0.1609
  154DOPE   C4A 1801   5.381  10.717  14.469 -0.0089 -0.2518 -0.0839
  154DOPE   C1B 1802   4.199  10.882  15.212 -0.0632 -0.0797  0.0988
  154DOPE   D2B 1803   3.908  10.894  14.865  0.2099 -0.0851  0.2001
  154DOPE   C3B 1804   3.673  11.208  14.610 -0.4810  0.0343 -0.2197
  154DOPE   C4B 1805   3.541  11.628  14.407 -0.2285 -0.1288 -0.2639
  155POSM   NC3 1806  34.503   4.701  15.865  0.1236 -0.0950  0.0132
  155POSM   PO4 1807  34.727   5.017  15.837 -0.0874  0.1496 -0.0058
  155POSM   AM1 1808  34.883   5.085  15.537 -0.0976 -0.0783 -0.2414
  155POSM   AM2 1809  35.093   4.967  15.432  0.0898 -0.2111  0.0288
  155POSM   T1A 1810  35.057   5.335  15.113  0.1792  0.0563 -0.1459
  155POSM   C2A 1811  35.365   5.426  14.728 -0.0415  0.0637 -0.1283
  155POSM   C3A 1812  35.705   5.245  14.492 -0.0484  0.1286  0.1253
  155POSM   C1B 1813  35.185   4.840  15.142  0.3215 -0.2571 -0.2265
  155POSM   D2B 1814  35.384   4.947  14.687  0.4442  0.1041 -0.1452
  155POSM   C3B 1815  35.114   5.172  14.353 -0.1195 -0.1611  0.1748
  155POSM   C4B 1816  34.783   5.500  14.225 -0.0875 -0.2510 -0.4159
  156DOPS   CNO 1817  11.903   1.885  15.130 -0.1122  0.1681  0.0334
  156DOPS   PO4 1818  11.582   1.828  14.902  0.5378 -0.0529  0.0546
  156DOPS   GL1 1819  11.823   1.702  14.656 -0.0447 -0.0598  0.1849
  156DOPS   GL2 1820  12.121   1.658  14.604 -0.0529 -0.1524  0.0257
  156DOPS   C1A 1821  11.852   1.843  14.199  0.4548 -0.1079 -0.0509
  156DOPS   D2A 1822  11.861   1.962  13.742  0.0173 -0.0674 -0.0738
  156DOPS   C3A 1823  11.774   1.632  13.463  0.4206  0.0664 -0.2526
  156DOPS   C4A 1824  11.897   1.261  13.237 -0.0069  0.1748  0.0888
  156DOPS   C1B 1825  12.298   1.560  14.201 -0.2501  0.0568  0.3205
  156DOPS   D2B 1826  12.549   1.243  14.045  0.1823 -0.0076 -0.1118
  156DOPS   C3B 1827  12.422   0.889  13.844 -0.1613  0.1781 -0.1609
  156DOPS   C4B 1828  12.486   0.498  13.597  0.0660  0.1108  0.2396
  157DOPC   NC3 1829   6.097  10.261  16.189  0.0335 -0.1912  0.0376
  157DOPC   PO4 1830   5.748  10.116  16.050 -0.2627 -0.0640  0.2815
  157DOPC   GL1 1831   5.585  10.105  15.680  0.3928  0.0581 -0.4858
  157DOPC   GL2 1832   5.320   9.911  15.728  0.0424 -0.1711  0.2576
  157DOPC   C1A 1833   5.459  10.099  15.224 -0.1014  0.1925 -0.0522
  157DOPC   D2A 1834   5.275   9.788  14.857 -0.1618  0.0728  0.1808
  157DOPC   C3A 1835   5.491   9.831  14.440 -0.2345  0.1676  0.2078
  157DOPC   C4A 1836   5.649   9.952  14.063  0.1348  0.1894  0.0314
  157DOPC   C1B 1837   5.106   9.755  15.313  0.0175 -0.4080  0.0044
  157DOPC   D2B 1838   4.778   9.677  14.971 -0.1587 -0.0397  0.2428
  157DOPC   C3B 1839   4.510   9.749  14.604  0.0081  0.0563  0.0713
  157DOPC   C4B 1840   4.218  10.070  14.386 -0.2700 -0.1029 -0.1900
  158DOPS   CNO 1841   0.144   9.836  16.009 -0.0956 -0.0404 -0.1223
  158DOPS   PO4 1842   0.048  10.201  16.133 -0.0857 -0.1629 -0.0285
  158DOPS   GL1 1843   0.015  10.315  15.767 -0.3326  0.1615 -0.1508
  158DOPS   GL2 1844  -0.298  10.393  15.687  0.1517 -0.1292  0.2183
  158DOPS   C1A 1845   0.252  10.305  15.369 -0.3934  0.0071  0.0856
  158DOPS   D2A 1846   0.409  10.688  15.191 -0.2103 -0.0146 -0.2430
  158DOPS   C3A 1847   0.512  10.725  14.731  0.0650 -0.0723 -0.0793
  158DOPS   C4A 1848   0.382  10.546  14.299 -0.2572  0.0278 -0.1551
  158DOPS   C1B 1849  -0.030  10.719  15.523 -0.2008 -0.4448  0.3112
  158DOPS   D2B 1850  -0.152  11.128  15.402  0.3809 -0.0724 -0.3259
  158DOPS   C3B 1851  -0.188  11.276  14.930 -0.0815 -0.0008  0.2156
  158DOPS   C4B 1852  -0.089  11.699  14.770 -0.0815  0.2900  0.4638
  159DOPE   NH3 1853  10.305   8.781  15.707 -0.1145  0.3653  0.0169
  159DOPE   PO4 1854  10.198   9.110  15.644  0.1150  0.2933  0.2793
  159DOPE   GL1 1855  10.051   9.191  15.245 -0.1527 -0.3587  0.3972
  159DOPE   GL2 1856  10.182   8.916  15.184  0.2878 -0.1797  0.0909
  159DOPE   C1A 1857  10.229   9.174  14.809 -0.2284  0.0583  0.2163
  159DOPE   D2A 1858  10.321   9.241  14.348 -0.0716 -0.0066 -0.0600
  159DOPE   C3A 1859  10.286   9.168  13.908 -0.0748  0.2907  0.0462
  159DOPE   C4A 1860  10.138   9.231  13.478  0.2613 -0.1025  0.2834
  159DOPE   C1B 1861   9.788   8.811  14.930  0.1951  0.0042 -0.0512
  159DOPE   D2B 1862   9.492   9.008  14.607  0.1662  0.3429 -0.2247
  159DOPE   C3B 1863   9.255   8.703  14.310 -0.2416 -0.2108  0.0849
  159DOPE   C4B 1864   8.942   8.377  14.141  0.0316 -0.1407  0.0322
  160DOPC   NC3 1865   1.869   6.746  16.062 -0.3480  0.1738 -0.0663
  160DOPC   PO4 1866   1.658   6.503  16.272  0.0229  0.3436  0.1987
  160DOPC   GL1 1867   1.826   6.371  15.807 -0.1035 -0.1274 -0.2738
  160DOPC   GL2 1868   1.594   6.536  15.672  0.0078  0.0883 -0.3002
  160DOPC   C1A 1869   1.655   6.088  15.466 -0.2688 -0.0781 -0.0734
  160DOPC   D2A 1870   1.291   5.972  15.154 -0.0762 -0.0959  0.0264
  160DOPC   C3A 1871   1.393   6.306  14.869 -0.0497  0.1627  0.3281
  160DOPC   C4A 1872   1.468   6.460  14.425  0.1522 -0.3534  0.2297
  160DOPC   C1B 1873   1.654   6.595  15.239  0.1051  0.1331 -0.0539
  160DOPC   D2B 1874   1.763   6.652  14.811  0.0923 -0.1205  0.0168
  160DOPC   C3B 1875   2.114   6.435  14.622  0.1461 -0.0499  0.0896
  160DOPC   C4B 1876   2.490   6.244  14.547 -0.1798  0.1279  0.0242
  161DOPS   CNO 1877   0.503   3.538  15.964 -0.2803 -0.1162  0.0108
  161DOPS   PO4 1878   0.272   3.679  15.728  0.4741 -0.1806  0.3176
  161DOPS   GL1 1879   0.377   3.682  15.318 -0.1459  0.5013 -0.0630
  161DOPS   GL2 1880   0.126   3.531  15.239  0.4364 -0.1737 -0.1361
  161DOPS   C1A 1881   0.443   3.305  14.974 -0.1087 -0.0879  0.2494
  161DOPS   D2A 1882   0.194   3.266  14.531  0.1778  0.3077 -0.1907
  161DOPS   C3A 1883   0.185   3.651  14.252 -0.0505 -0.3395 -0.0835
  161DOPS   C4A 1884  -0.070   4.032  14.153  0.1709 -0.0604 -0.0934
  161DOPS   C1B 1885  -0.086   3.183  15.030  0.5591  0.1230  0.1005
  161DOPS   D2B 1886  -0.233   2.981  14.645 -0.2871  0.0918 -0.2616
  161DOPS   C3B 1887  -0.395   3.288  14.343 -0.1818 -0.1671 -0.1308
  161DOPS   C4B 1888  -0.588   3.679  14.193  0.0740 -0.5086 -0.0812
  162DOPC   NC3 1889   4.043   2.058  15.768 -0.2310 -0.1686 -0.0644
  162DOPC   PO4 1890   3.962   2.455  15.915  0.0852  0.1308  0.0312
  162DOPC   GL1 1891   3.941   2.438  15.558 -0.1975  0.6116  0.1040
  162DOPC   GL2 1892   4.208   2.504  15.435 -0.0509 -0.0759 -0.0044
  162DOPC   C1A 1893   3.891   2.492  15.070  0.1307  0.3163 -0.0548
  162DOPC   D2A 1894   3.715   2.640  14.606  0.0563  0.1575  0.0789
  162DOPC   C3A 1895   3.959   2.300  14.371  0.0331 -0.0879  0.0668
  162DOPC   C4A 1896   3.877   2.032  14.008 -0.1492  0.0604  0.0016
  162DOPC   C1B 1897   4.647   2.632  15.377 -0.2894  0.1790 -0.0641
  162DOPC   D2B 1898   5.067   2.741  15.282  0.4001  0.1821 -0.0030
  162DOPC   C3B 1899   5.176   2.716  14.857 -0.0582 -0.0797 -0.0145
  162DOPC   C4B 1900   5.188   2.515  14.457 -0.0890  0.1257 -0.1429
  163DOPE   NH3 1901  10.963   8.731  15.751  0.2224  0.0782 -0.0862
  163DOPE   PO4 1902  10.724   8.516  15.819 -0.0871 -0.0525  0.0696
  163DOPE   GL1 1903  10.715   8.473  15.452 -0.0536 -0.0127  0.1679
  163DOPE   GL2 1904  10.616   8.737  15.303 -0.4610 -0.1345  0.2129
  163DOPE   C1A 1905  10.811   8.463  14.988  0.4723 -0.3032 -0.3286
  163DOPE   D2A 1906  10.763   8.658  14.608  0.2892  0.3695  0.3476
  163DOPE   C3A 1907  10.476   8.392  14.315  0.2371  0.0866  0.0297
  163DOPE   C4A 1908  10.357   8.154  13.937 -0.1467 -0.0963  0.2309
  163DOPE   C1B 1909  10.732   9.014  14.944 -0.1770 -0.0707 -0.0100
  163DOPE   D2B 1910  10.825   9.204  14.512 -0.3521  0.2815 -0.2994
  163DOPE   C3B 1911  10.700   8.881  14.135 -0.2187  0.0182  0.0732
  163DOPE   C4B 1912  10.456   8.713  13.833 -0.3329  0.1154 -0.1826
  164POSM   NC3 1913   7.135   8.769  16.265  0.1135 -0.1919  0.1612
  164POSM   PO4 1914   6.851   8.969  16.206 -0.0597  0.0388 -0.0498
  164POSM   AM1 1915   6.831   8.854  15.927  0.1907  0.0756 -0.0572
  164POSM   AM2 1916   7.025   8.818  15.747  0.3796 -0.0266 -0.1190
  164POSM   T1A 1917   6.639   8.483  15.615 -0.0447  0.1385 -0.1689
  164POSM   C2A 1918   6.570   8.075  15.414 -0.2397 -0.0946  0.3454
  164POSM   C3A 1919   6.390   7.751  15.184 -0.0875 -0.0318 -0.2135
  164POSM   C1B 1920   6.952   8.876  15.433  0.0342  0.2287  0.2787
  164POSM   D2B 1921   7.007   8.796  15.009 -0.0429  0.1561 -0.1957
  164POSM   C3B 1922   6.885   9.197  14.784  0.2173  0.1615 -0.0841
  164POSM   C4B 1923   6.757   9.555  14.982 -0.3342  0.0056 -0.2134
  165DOPE   NH3 1924   4.995   9.735  16.159 -0.1062  0.0663  0.0428
  165DOPE   PO4 1925   4.855   9.606  15.973 -0.1002  0.2059  0.1336
  165DOPE   GL1 1926   4.815   9.633  15.634  0.0315  0.2060 -0.1711
  165DOPE   GL2 1927   4.597   9.831  15.450 -0.0477  0.0431  0.0155
  165DOPE   C1A 1928   4.663   9.281  15.360 -0.1018  0.1548  0.0185
  165DOPE   D2A 1929   4.859   8.894  15.303  0.0973 -0.0753 -0.2213
  165DOPE   C3A 1930   4.708   8.574  14.962 -0.1454  0.0569 -0.0069
  165DOPE   C4A 1931   4.454   8.288  14.666  0.2573  0.0483 -0.1169
  165DOPE   C1B 1932   4.265   9.522  15.388  0.0983  0.1504  0.0867
  165DOPE   D2B 1933   4.189   9.030  15.433 -0.0455 -0.1991  0.1726
  165DOPE   C3B 1934   4.213   8.897  14.993  0.0044  0.0982 -0.1569
  165DOPE   C4B 1935   4.221   8.720  14.574  0.2186 -0.2603  0.1845
  166POSM   NC3 1936   7.911   9.023  16.144 -0.1621 -0.1372 -0.1899
  166POSM   PO4 1937   8.220   9.218  15.946 -0.2399 -0.0519 -0.2209
  166POSM   AM1 1938   8.031   9.037  15.720  0.3043  0.1617  0.1769
  166POSM   AM2 1939   8.012   8.775  15.693 -0.2708 -0.5789  0.0043
  166POSM   T1A 1940   7.727   8.996  15.332  0.3771  0.1543 -0.0263
  166POSM   C2A 1941   7.742   8.828  14.885  0.0119 -0.1476  0.1563
  166POSM   C3A 1942   7.757   8.616  14.445  0.0955 -0.0403  0.1690
  166POSM   C1B 1943   8.137   8.736  15.358  0.2870 -0.1195 -0.1101
  166POSM   D2B 1944   8.524   8.757  15.143 -0.0364 -0.2471  0.0961
  166POSM   C3B 1945   8.627   8.537  14.720  0.2673 -0.2002  0.1235
  166POSM   C4B 1946   8.444   8.432  14.295 -0.1744  0.2577  0.1710
  167DOPC   NC3 1947   9.006   4.600  15.437 -0.1084  0.0606 -0.0402
  167DOPC   PO4 1948   8.897   4.584  15.823 -0.2326  0.2495 -0.1570
  167DOPC   GL1 1949   8.661   4.808  15.568  0.2452 -0.0863  0.2570
  167DOPC   GL2 1950   8.341   4.753  15.637 -0.0083  0.0722 -0.2961
  167DOPC   C1A 1951   8.606   5.030  15.152 -0.1006 -0.4194  0.0770
  167DOPC   D2A 1952   8.431   4.865  14.807 -0.0750 -0.1505  0.1514
  167DOPC   C3A 1953   8.675   4.702  14.414 -0.4161  0.2394  0.3120
  167DOPC   C4A 1954   9.094   4.560  14.198 -0.0609  0.2321  0.0606
  167DOPC   C1B 1955   8.349   4.542  15.160  0.0303 -0.3132 -0.0121
  167DOPC   D2B 1956   8.482   4.250  14.802  0.0318  0.0756 -0.3948
  167DOPC   C3B 1957   8.434   4.226  14.370 -0.0213 -0.0155 -0.0089
  167DOPC   C4B 1958   8.541   4.464  13.970 -0.3038 -0.1153  0.0952
  168DOPE   NH3 1959   7.225   9.681  16.276 -0.0158 -0.1336 -0.0592
  168DOPE   PO4 1960   7.525   9.731  16.141 -0.1329  0.1815  0.3985
  168DOPE   GL1 1961   7.207   9.704  15.797  0.1724  0.1430  0.0585
  168DOPE   GL2 1962   7.018   9.943  15.831 -0.2483 -0.0386 -0.3379
  168DOPE   C1A 1963   7.115   9.852  15.360  0.2708  0.1022  0.0082
  168DOPE   D2A 1964   7.326  10.042  15.033 -0.2119 -0.2720 -0.0755
  168DOPE   C3A 1965   7.617   9.913  14.702  0.1115 -0.0854 -0.2990
  168DOPE   C4A 1966   7.660   9.636  14.362 -0.0388 -0.3387 -0.1544
  168DOPE   C1B 1967   7.120  10.398  15.639  0.0674  0.1073 -0.1030
  168DOPE   D2B 1968   7.321  10.703  15.378  0.0349 -0.0282  0.0265
  168DOPE   C3B 1969   7.108  11.007  15.114  0.0823  0.0109  0.2658
  168DOPE   C4B 1970   6.931  11.474  14.981  0.1784 -0.1678 -0.0851
  169POSM   NC3 1971   7.728   0.737  15.420  0.1693  0.0347 -0.2313
  169POSM   PO4 1972   7.435   0.519  15.553 -0.0455 -0.0911  0.2801
  169POSM   AM1 1973   7.327   0.561  15.217  0.0302 -0.1489  0.1539
  169POSM   AM2 1974   7.290   0.804  15.084 -0.0982 -0.0906  0.2208
  169POSM   T1A 1975   7.106   0.458  14.798 -0.1289 -0.1139 -0.2452
  169POSM   C2A 1976   6.788   0.485  14.411  0.1344 -0.0911 -0.4510
  169POSM   C3A 1977   6.615   0.833  14.151 -0.1367 -0.0302  0.1275
  169POSM   C1B 1978   7.467   1.053  14.946  0.0161 -0.1266 -0.2855
  169POSM   D2B 1979   7.326   1.341  14.600  0.1055  0.1289  0.0764
  169POSM   C3B 1980   7.401   1.212  14.146  0.3787  0.1046 -0.0936
  169POSM   C4B 1981   7.751   0.958  13.928 -0.3440  0.1875  0.0190
  170DOPE   NH3 1982   9.898   9.993  16.285  0.2556 -0.0193  0.3028
  170DOPE   PO4 1983   9.818   9.785  16.044 -0.1706 -0.3410  0.0682
  170DOPE   GL1 1984   9.908   9.831  15.719  0.5189 -0.1673  0.2887
  170DOPE   GL2 1985   9.939   9.560  15.498 -0.1680 -0.1592  0.1479
  170DOPE   C1A 1986   9.835   9.998  15.317  0.0452 -0.2794  0.3484
  170DOPE   D2A 1987   9.772  10.167  14.908 -0.2511  0.0844  0.1397
  170DOPE   C3A 1988   9.623   9.847  14.611 -0.2482  0.1505  0.0897
  170DOPE   C4A 1989   9.416   9.715  14.213  0.0100 -0.2401 -0.1197
  170DOPE   C1B 1990  10.071   9.625  15.051 -0.1717  0.0996  0.1815
  170DOPE   D2B 1991  10.103   9.643  14.579 -0.2116 -0.0616 -0.0331
  170DOPE   C3B 1992  10.008  10.017  14.266 -0.2557 -0.1683 -0.2868
  170DOPE   C4B 1993  10.043  10.455  14.315 -0.1295 -0.1438 -0.1204
  171DOPE   NH3 1994   0.774   3.899  15.767  0.1219 -0.1537 -0.0830
  171DOPE   PO4 1995   0.871   4.176  15.826 -0.1576  0.0863  0.0234
  171DOPE   GL1 1996   0.950   4.267  15.441 -0.2105  0.3753 -0.0713
  171DOPE   GL2 1997   1.176   4.176  15.347  0.1640 -0.2452  0.3905
  171DOPE   C1A 1998   0.896   4.545  15.056  0.0204  0.2048  0.0400
  171DOPE   D2A 1999   0.630   4.432  14.778 -0.4367  0.0295 -0.3638
  171DOPE   C3A 2000   0.384   4.656  14.491  0.3962 -0.3747  0.0410
  171DOPE   C4A 2001   0.043   4.876  14.364  0.3125 -0.0310 -0.2565
  171DOPE   C1B 2002   1.429   3.934  15.083 -0.2585 -0.0349  0.3054
  171DOPE   D2B 2003   1.773   3.776  14.846  0.1407 -0.3938  0.1629
  171DOPE   C3B 2004   2.184   3.842  14.715 -0.0307  0.1309  0.0704
  171DOPE   C4B 2005   2.552   3.677  14.936 -0.0936 -0.0316 -0.0472
  172DOPE   NH3 2006   8.339   6.339  16.394  0.2367  0.3121 -0.0524
  172DOPE   PO4 2007   8.418   6.243  16.109  0.0650  0.0134 -0.2446
  172DOPE   GL1 2008   8.345   6.455  15.738  0.0755 -0.0117  0.1183
  172DOPE   GL2 2009   8.643   6.504  15.673 -0.2116  0.0214 -0.0774
  172DOPE   C1A 2010   8.189   6.839  15.442  0.0909  0.0203  0.0169
  172DOPE   D2A 2011   8.062   7.211  15.160  0.2339  0.0655 -0.1491
  172DOPE   C3A 2012   8.068   7.195  14.722  0.2182  0.0762  0.3001
  172DOPE   C4A 2013   8.439   7.367  14.492  0.2584  0.1736  0.1791
  172DOPE   C1B 2014   8.630   6.621  15.224  0.2030 -0.1674  0.3335
  172DOPE   D2B 2015   8.405   6.873  14.911 -0.2370  0.0070  0.0004
  172DOPE   C3B 2016   8.602   6.892  14.476 -0.1215 -0.0435  0.1162
  172DOPE   C4B 2017   8.419   7.009  14.046  0.1680 -0.1320  0.0870
  173DOPE   NH3 2018   1.264   1.371  16.167  0.1066  0.0980  0.0987
  173DOPE   PO4 2019   0.945   1.368  16.120  0.1350 -0.2961 -0.1010
  173DOPE   GL1 2020   1.089   1.207  15.752 -0.2088  0.2236 -0.0889
  173DOPE   GL2 2021   1.335   1.353  15.659  0.1502 -0.2357 -0.1212
  173DOPE   C1A 2022   1.261   0.869  15.456  0.0327  0.0047 -0.0953
  173DOPE   D2A 2023   1.190   0.518  15.131 -0.0589 -0.1541  0.1977
  173DOPE   C3A 2024   1.096   0.124  15.268  0.0898  0.3094 -0.0539
  173DOPE   C4A 2025   1.166  -0.210  15.533 -0.2883 -0.0650  0.1671
  173DOPE   C1B 2026   1.391   1.274  15.228 -0.0941  0.0634  0.0980
  173DOPE   D2B 2027   1.497   1.101  14.831 -0.1740  0.1020  0.3595
  173DOPE   C3B 2028   1.465   0.644  14.737 -0.3586  0.1981  0.1310
  173DOPE   C4B 2029   1.510   0.298  14.394  0.0967  0.1437  0.0242
  174POSM   NC3 2030   9.775   2.052  15.396 -0.0500  0.3152  0.0189
  174POSM   PO4 2031   9.761   2.429  15.484  0.3566 -0.2519  0.2012
  174POSM   AM1 2032   9.717   2.469  15.163 -0.1995 -0.1477  0.4428
  174POSM   AM2 2033   9.606   2.294  14.965 -0.0393 -0.2926 -0.5031
  174POSM   T1A 2034   9.544   2.783  14.792 -0.1181  0.2527 -0.1463
  174POSM   C2A 2035   9.363   2.830  14.356  0.4548 -0.3695 -0.0852
  174POSM   C3A 2036   9.482   2.820  13.925  0.2881 -0.0047 -0.0974
  174POSM   C1B 2037   9.500   2.245  14.591 -0.1019  0.1932  0.3797
  174POSM   D2B 2038   9.307   2.362  14.195  0.1148 -0.0886 -0.0580
  174POSM   C3B 2039   9.294   2.235  13.762  0.2658  0.0786 -0.0667
  174POSM   C4B 2040   9.235   2.617  13.452  0.0696 -0.3131  0.0319
  175DOPE   NH3 2041   9.161   9.045  15.829  0.1194  0.1953 -0.0272
  175DOPE   PO4 2042   9.323   8.805  15.697 -0.1749  0.2454 -0.0465
  175DOPE   GL1 2043   9.224   8.521  15.421  0.1119 -0.1034 -0.4120
  175DOPE   GL2 2044   9.443   8.471  15.251 -0.0224 -0.1366 -0.0722
  175DOPE   C1A 2045   9.236   8.019  15.349 -0.1228 -0.1213 -0.1249
  175DOPE   D2A 2046   9.132   7.759  15.704  0.1542  0.2284  0.0354
  175DOPE   C3A 2047   8.806   7.479  15.579  0.1333  0.1733  0.0283
  175DOPE   C4A 2048   8.357   7.390  15.530  0.1192  0.0694  0.1517
  175DOPE   C1B 2049   9.468   8.375  14.805  0.1299  0.0248  0.2263
  175DOPE   D2B 2050   9.769   8.458  14.467 -0.0590  0.0168 -0.0611
  175DOPE   C3B 2051   9.705   8.306  14.085  0.1127  0.1487 -0.0753
  175DOPE   C4B 2052   9.379   8.585  13.850  0.1587  0.1692  0.0097
  176DOPE   NH3 2053   9.102  10.542  16.106  0.1389  0.0968  0.2167
  176DOPE   PO4 2054   9.137  10.777  15.877  0.0323 -0.0718 -0.2779
  176DOPE   GL1 2055   9.152  10.925  15.509  0.2528  0.1609  0.3587
  176DOPE   GL2 2056   9.410  10.884  15.486  0.0565  0.2061  0.0501
  176DOPE   C1A 2057   9.107  10.844  15.054 -0.2248  0.0277 -0.0928
  176DOPE   D2A 2058   9.236  10.925  14.662  0.2957  0.0134  0.0872
  176DOPE   C3A 2059   9.029  10.579  14.404  0.1665  0.2134 -0.1766
  176DOPE   C4A 2060   8.615  10.614  14.219 -0.1269 -0.2419  0.0600
  176DOPE   C1B 2061   9.878  10.927  15.552  0.2733 -0.1827  0.2001
  176DOPE   D2B 2062  10.056  11.257  15.311 -0.2961  0.0356  0.2529
  176DOPE   C3B 2063  10.283  10.987  15.003 -0.1495  0.0179 -0.2000
  176DOPE   C4B 2064  10.301  10.810  14.597  0.2145  0.1420  0.0389
  177POSM   NC3 2065   8.473   4.016  16.099  0.3276 -0.1009  0.1798
  177POSM   PO4 2066   8.668   3.718  15.961 -0.0093 -0.1068  0.4961
  177POSM   AM1 2067   8.585   3.728  15.678 -0.0558  0.0406  0.1130
  177POSM   AM2 2068   8.608   3.883  15.421  0.2955 -0.0634 -0.3842
  177POSM   T1A 2069   8.694   3.417  15.259  0.2249  0.1215 -0.2551
  177POSM   C2A 2070   8.998   3.406  14.977  0.0016 -0.1370 -0.1884
  177POSM   C3A 2071   9.230   3.340  14.616 -0.0657  0.0863  0.0686
  177POSM   C1B 2072   8.631   3.836  15.063 -0.3555  0.0885  0.0634
  177POSM   D2B 2073   8.505   3.808  14.648  0.1043  0.0323  0.1781
  177POSM   C3B 2074   8.693   3.521  14.311 -0.1199  0.1461 -0.1751
  177POSM   C4B 2075   8.570   3.062  14.173 -0.1053  0.0806 -0.0306
  178DOPC   NC3 2076   2.710   8.489  16.053  0.2539 -0.0042  0.0110
  178DOPC   PO4 2077   2.948   8.462  15.756 -0.1201 -0.2531  0.1401
  178DOPC   GL1 2078   3.094   8.157  15.650  0.3148  0.0043 -0.0804
  178DOPC   GL2 2079   3.313   8.140  15.547  0.0144  0.1681 -0.2938
  178DOPC   C1A 2080   2.936   7.761  15.484  0.1055  0.2059 -0.0069
  178DOPC   D2A 2081   2.640   7.388  15.410 -0.2113  0.0335  0.0127
  178DOPC   C3A 2082   2.603   7.178  14.945  0.1529  0.1095  0.2369
  178DOPC   C4A 2083   2.279   6.988  14.667  0.0706 -0.3652  0.2445
  178DOPC   C1B 2084   3.240   8.010  15.138  0.4252 -0.0473 -0.1096
  178DOPC   D2B 2085   2.850   7.823  14.939  0.2044 -0.1401 -0.1217
  178DOPC   C3B 2086   2.727   7.990  14.532 -0.2630  0.2660  0.1762
  178DOPC   C4B 2087   2.532   7.784  14.174  0.2759  0.1607  0.1594
  179DOPE   NH3 2088   2.469   2.332  16.302 -0.3045 -0.0535  0.1068
  179DOPE   PO4 2089   2.460   2.383  16.011 -0.1195 -0.1594  0.1861
  179DOPE   GL1 2090   2.337   2.471  15.573  0.1551 -0.1149 -0.2602
  179DOPE   GL2 2091   2.074   2.407  15.683  0.0760  0.0436  0.4094
  179DOPE   C1A 2092   2.282   2.426  15.121  0.3949 -0.1042 -0.1588
  179DOPE   D2A 2093   2.348   2.383  14.643  0.0214 -0.1960  0.2663
  179DOPE   C3A 2094   2.027   2.416  14.321  0.0582  0.1587  0.1492
  179DOPE   C4A 2095   1.949   2.357  13.899 -0.1287  0.2527 -0.1113
  179DOPE   C1B 2096   2.119   2.820  15.444  0.0279 -0.5795  0.2239
  179DOPE   D2B 2097   2.349   3.279  15.333 -0.0287  0.1904  0.0261
  179DOPE   C3B 2098   2.633   3.173  14.959  0.0727  0.3682 -0.0099
  179DOPE   C4B 2099   2.797   3.116  14.556  0.2243 -0.1118  0.1276
  180DOPC   NC3 2100  11.124   5.645  15.462 -0.0993 -0.0774  0.1906
  180DOPC   PO4 2101  10.812   5.368  15.407  0.3042 -0.0548  0.3739
  180DOPC   GL1 2102  10.824   5.433  15.068  0.0595 -0.2232 -0.3318
  180DOPC   GL2 2103  11.131   5.466  15.018 -0.2689  0.2672 -0.3662
  180DOPC   C1A 2104  10.559   5.593  14.721 -0.0643 -0.0689 -0.3181
  180DOPC   D2A 2105  10.413   5.833  14.364  0.1024  0.1051  0.3400
  180DOPC   C3A 2106  10.613   5.824  13.943 -0.0277  0.1665 -0.0631
  180DOPC   C4A 2107  10.853   5.580  13.584 -0.1332 -0.1604  0.0172
  180DOPC   C1B 2108  11.172   5.341  14.534  0.0062  0.2455 -0.2788
  180DOPC   D2B 2109  10.918   4.924  14.343  0.1082 -0.1247  0.1518
  180DOPC   C3B 2110  10.828   4.937  13.934 -0.2709  0.1095  0.0880
  180DOPC   C4B 2111  10.755   5.107  13.481  0.0326  0.2243  0.0967
  181POSM   NC3 2112   1.854  34.428  16.158  0.0476  0.4302 -0.1703
  181POSM   PO4 2113   1.712  34.379  15.833  0.1512 -0.1714  0.1917
  181POSM   AM1 2114   1.696  34.401  15.487 -0.3377  0.0024  0.2065
  181POSM   AM2 2115   1.871  34.399  15.263 -0.0006 -0.0005  0.1695
  181POSM   T1A 2116   1.411  34.502  15.073  0.2735 -0.2638 -0.0406
  181POSM   C2A 2117   1.201  34.798  14.799 -0.2876 -0.2145  0.3135
  181POSM   C3A 2118   1.061  34.843  14.294  0.0848 -0.1365  0.2083
  181POSM   C1B 2119   1.817  34.184  14.971  0.4009 -0.1761 -0.0200
  181POSM   D2B 2120   1.950  33.928  14.584  0.2358 -0.0505  0.0884
  181POSM   C3B 2121   2.162  33.751  14.246 -0.2211  0.1187  0.1919
  181POSM   C4B 2122   2.259  33.411  13.929 -0.4434  0.2889  0.0336
  182DOPE   NH3 2123   9.325   2.782  15.469 -0.2034 -0.2694  0.0981
  182DOPE   PO4 2124   9.244   3.103  15.398  0.2047 -0.1571  0.2091
  182DOPE   GL1 2125   8.931   3.004  15.156 -0.0302 -0.1472  0.0710
  182DOPE   GL2 2126   8.969   2.743  14.989 -0.3099 -0.2629 -0.1086
  182DOPE   C1A 2127   8.498   2.967  15.210  0.0314  0.1485 -0.1358
  182DOPE   D2A 2128   8.171   2.665  15.154 -0.1232  0.0612 -0.0503
  182DOPE   C3A 2129   7.974   2.622  14.737  0.0757  0.0861 -0.0558
  182DOPE   C4A 2130   7.958   2.643  14.287 -0.0209 -0.0629 -0.1296
  182DOPE   C1B 2131   8.841   2.969  14.608 -0.0844 -0.0102 -0.1114
  182DOPE   D2B 2132   8.541   3.312  14.700 -0.3490 -0.0440 -0.0433
  182DOPE   C3B 2133   8.200   3.420  14.395  0.0115  0.0693 -0.0998
  182DOPE   C4B 2134   8.163   3.547  13.940 -0.1005 -0.1995  0.0985
  183DOPE   NH3 2135  10.392   3.506  15.008 -0.1331  0.1820  0.0278
  183DOPE   PO4 2136  10.256   3.715  14.848  0.0658 -0.0428 -0.0974
  183DOPE   GL1 2137  10.206   4.017  14.563  0.0435 -0.0289  0.0571
  183DOPE   GL2 2138   9.963   4.076  14.426 -0.0971 -0.1886  0.2335
  183DOPE   C1A 2139  10.564   4.213  14.300  0.2112  0.0387 -0.3062
  183DOPE   D2A 2140  10.909   4.459  14.215  0.0474 -0.0206 -0.0643
  183DOPE   C3A 2141  10.846   4.469  13.758  0.2536 -0.0450  0.2926
  183DOPE   C4A 2142  10.760   4.574  13.322 -0.1938 -0.3283  0.0826
  183DOPE   C1B 2143   9.775   3.772  14.150 -0.1158 -0.0452 -0.2778
  183DOPE   D2B 2144   9.688   3.566  13.772  0.3493 -0.1677  0.0338
  183DOPE   C3B 2145   9.538   3.204  13.590  0.1127  0.0023  0.2470
  183DOPE   C4B 2146   9.598   2.873  13.268 -0.0904 -0.2830 -0.1244
  184POSM   NC3 2147   3.975   1.890  16.254  0.1276  0.0722 -0.2696
  184POSM   PO4 2148   4.029   1.585  16.041 -0.2691  0.2296 -0.1560
  184POSM   AM1 2149   4.134   1.471  15.717  0.1381 -0.0112  0.2357
  184POSM   AM2 2150   4.190   1.224  15.576  0.0113  0.0601 -0.0076
  184POSM   T1A 2151   4.046   1.551  15.239 -0.2059 -0.4524  0.0722
  184POSM   C2A 2152   3.723   1.601  14.847 -0.1610 -0.0366 -0.0746
  184POSM   C3A 2153   3.544   1.716  14.421  0.0469  0.0232  0.1837
  184POSM   C1B 2154   4.356   1.113  15.301  0.0063 -0.3204 -0.1389
  184POSM   D2B 2155   4.537   1.011  14.863  0.1469  0.1186  0.1603
  184POSM   C3B 2156   4.247   0.803  14.582 -0.0940 -0.1008  0.1902
  184POSM   C4B 2157   3.846   0.791  14.270 -0.2262  0.0978 -0.0462
  185DOPS   CNO 2158   8.107   1.872  16.045  0.0137  0.1901 -0.0891
  185DOPS   PO4 2159   8.057   1.734  15.689  0.2596  0.1995 -0.1090
  185DOPS   GL1 2160   7.993   1.925  15.300 -0.0522 -0.0478  0.3257
  185DOPS   GL2 2161   8.178   2.198  15.224  0.1367  0.1764 -0.0613
  185DOPS   C1A 2162   8.031   2.026  14.861 -0.0661  0.3878  0.1909
  185DOPS   D2A 2163   7.949   2.145  14.475 -0.0041  0.2134 -0.1459
  185DOPS   C3A 2164   8.217   2.113  14.060 -0.0383  0.0062  0.1017
  185DOPS   C4A 2165   8.509   2.115  13.667  0.1576 -0.0606 -0.2822
  185DOPS   C1B 2166   7.793   2.372  15.159  0.0331 -0.0124 -0.0926
  185DOPS   D2B 2167   7.420   2.554  14.977  0.0164 -0.0184 -0.0919
  185DOPS   C3B 2168   7.513   2.728  14.532 -0.0967 -0.0147  0.0816
  185DOPS   C4B 2169   7.221   3.021  14.339 -0.1453 -0.1577  0.0379
  186DOPC   NC3 2170   3.203  11.336  15.954 -0.1300 -0.1089 -0.0767
  186DOPC   PO4 2171   3.288  10.954  15.889  0.2258 -0.0310 -0.1281
  186DOPC   GL1 2172   3.058  10.853  15.533  0.1325  0.1159  0.0090
  186DOPC   GL2 2173   2.845  10.802  15.385  0.0217 -0.0120 -0.0564
  186DOPC   C1A 2174   3.197  10.532  15.171 -0.2376 -0.0306 -0.4504
  186DOPC   D2A 2175   3.436  10.207  14.954  0.0428 -0.1850  0.1297
  186DOPC   C3A 2176   3.799  10.292  14.722  0.1037 -0.3966 -0.3016
  186DOPC   C4A 2177   3.893  10.526  14.375 -0.0842  0.1998 -0.0083
  186DOPC   C1B 2178   3.033  10.944  15.035  0.2409  0.0448  0.1130
  186DOPC   D2B 2179   2.880  10.995  14.607 -0.0476  0.0565 -0.0149
  186DOPC   C3B 2180   3.203  11.256  14.332 -0.2551  0.0858  0.2693
  186DOPC   C4B 2181   3.423  11.401  14.000  0.1333 -0.2140  0.0987
  187POSM   NC3 2182   5.425   5.688  15.597  0.0665  0.2148  0.1041
  187POSM   PO4 2183   5.498   6.075  15.664  0.0117  0.4850  0.4534
  187POSM   AM1 2184   5.502   6.036  15.344  0.5196 -0.4045  0.1311
  187POSM   AM2 2185   5.364   6.237  15.187 -0.4025 -0.2516  0.0766
  187POSM   T1A 2186   5.685   5.756  15.020  0.2043 -0.1889 -0.2273
  187POSM   C2A 2187   5.742   5.469  14.625  0.2246 -0.0667 -0.1718
  187POSM   C3A 2188   5.762   5.306  14.168  0.0610 -0.1668  0.0442
  187POSM   C1B 2189   5.318   6.207  14.871  0.0548 -0.1140 -0.2899
  187POSM   D2B 2190   5.221   6.205  14.446 -0.2232  0.2796  0.3637
  187POSM   C3B 2191   5.528   6.153  14.120  0.0450 -0.1182 -0.1048
  187POSM   C4B 2192   5.844   5.836  14.307  0.1189 -0.1496  0.1688
  188DOPE   NH3 2193   7.840   1.433  16.098 -0.2323 -0.0987  0.0971
  188DOPE   PO4 2194   7.667   1.660  15.947  0.2235 -0.1177 -0.1872
  188DOPE   GL1 2195   7.598   1.817  15.487  0.1541  0.1660  0.3454
  188DOPE   GL2 2196   7.282   1.647  15.506  0.0013 -0.1629 -0.1368
  188DOPE   C1A 2197   7.302   1.979  15.190 -0.2542  0.0949  0.0839
  188DOPE   D2A 2198   6.995   2.324  14.984  0.3976 -0.0608  0.0461
  188DOPE   C3A 2199   7.093   2.395  14.528 -0.2687  0.0279 -0.3385
  188DOPE   C4A 2200   7.012   2.120  14.202  0.0084 -0.1928  0.1328
  188DOPE   C1B 2201   7.173   1.522  15.081 -0.2974  0.1296  0.0246
  188DOPE   D2B 2202   6.748   1.445  14.833 -0.0734  0.2252 -0.1569
  188DOPE   C3B 2203   6.621   1.789  14.512 -0.4494  0.0395  0.0582
  188DOPE   C4B 2204   6.608   2.240  14.433  0.0619 -0.3816 -0.0024
  189DOPS   CNO 2205   5.787   0.345  16.679  0.0059  0.1539 -0.1747
  189DOPS   PO4 2206   5.832   0.357  16.279 -0.0038 -0.0436  0.0904
  189DOPS   GL1 2207   5.811   0.542  15.939  0.3870 -0.5061 -0.0870
  189DOPS   GL2 2208   5.979   0.754  15.739  0.1326  0.1084 -0.0711
  189DOPS   C1A 2209   5.895   0.284  15.550 -0.2131  0.3171 -0.0781
  189DOPS   D2A 2210   5.811   0.364  15.113  0.1894  0.0554 -0.2436
  189DOPS   C3A 2211   5.485   0.428  14.763 -0.2492  0.0630 -0.0601
  189DOPS   C4A 2212   5.443   0.263  14.302 -0.1899  0.3155 -0.0810
  189DOPS   C1B 2213   6.064   1.154  15.535  0.0701  0.0282  0.1422
  189DOPS   D2B 2214   6.049   1.617  15.502  0.0717 -0.0206 -0.1352
  189DOPS   C3B 2215   5.903   1.950  15.159  0.0207  0.1223  0.1076
  189DOPS   C4B 2216   5.991   2.291  14.883  0.2802 -0.1261  0.0251
  190DOPS   CNO 2217   6.339   9.711  16.382 -0.0053  0.1897 -0.1071
  190DOPS   PO4 2218   6.057   9.687  16.122  0.0147 -0.3059  0.1796
  190DOPS   GL1 2219   5.932   9.680  15.759 -0.3550  0.1751  0.0191
  190DOPS   GL2 2220   6.140   9.469  15.619 -0.0586 -0.3051  0.0325
  190DOPS   C1A 2221   5.945   9.935  15.369 -0.4103 -0.2162 -0.0858
  190DOPS   D2A 2222   5.759   9.940  14.905  0.0932  0.1540  0.1336
  190DOPS   C3A 2223   5.974   9.888  14.493  0.2185  0.1647 -0.1364
  190DOPS   C4A 2224   6.257   9.753  14.143 -0.1193 -0.1333 -0.0154
  190DOPS   C1B 2225   6.119   9.436  15.147  0.2628  0.0036  0.0720
  190DOPS   D2B 2226   6.190   9.205  14.727 -0.4043  0.2042  0.0355
  190DOPS   C3B 2227   5.954   9.385  14.339  0.0437  0.0275 -0.3448
  190DOPS   C4B 2228   5.842   9.510  13.886  0.3050 -0.0064  0.0355
  191DOPE   NH3 2229  10.705   0.644  15.548  0.2373 -0.0305  0.2753
  191DOPE   PO4 2230  10.725   0.305  15.473  0.3468 -0.2944 -0.0328
  191DOPE   GL1 2231  10.805   0.284  15.101  0.1728 -0.3347 -0.0914
  191DOPE   GL2 2232  10.806  -0.021  15.076  0.0976  0.1206  0.2377
  191DOPE   C1A 2233  11.128   0.350  14.692 -0.1452  0.0212 -0.1417
  191DOPE   D2A 2234  11.457   0.604  14.724  0.0299  0.0915  0.3744
  191DOPE   C3A 2235  11.519   0.973  14.443  0.0223 -0.0136 -0.0255
  191DOPE   C4A 2236  11.350   1.043  13.984 -0.2723  0.3173  0.2694
  191DOPE   C1B 2237  10.781  -0.301  14.759  0.1699 -0.3331  0.0727
  191DOPE   D2B 2238  10.763  -0.448  14.325  0.0875  0.1895 -0.0107
  191DOPE   C3B 2239  10.555  -0.413  13.911  0.5202  0.0773 -0.1156
  191DOPE   C4B 2240  10.330  -0.503  13.531 -0.1679  0.0282  0.1079
  192DOPC   NC3 2241   7.232   3.393  16.165  0.1561 -0.2202  0.0495
  192DOPC   PO4 2242   7.435   3.085  16.349  0.3685  0.1992 -0.0815
  192DOPC   GL1 2243   7.201   2.835  16.142  0.2647  0.1429 -0.0328
  192DOPC   GL2 2244   6.902   2.788  16.316  0.2360 -0.0976 -0.0673
  192DOPC   C1A 2245   6.918   2.725  15.785  0.3319 -0.3772 -0.0059
  192DOPC   D2A 2246   6.514   2.500  15.616 -0.1775  0.1055  0.1212
  192DOPC   C3A 2247   6.559   2.424  15.161 -0.0190 -0.3203 -0.0535
  192DOPC   C4A 2248   6.466   2.672  14.845 -0.1424  0.0442  0.3736
  192DOPC   C1B 2249   6.649   2.418  16.067  0.2888 -0.4401  0.1447
  192DOPC   D2B 2250   6.459   2.066  15.904  0.2402  0.4566 -0.0924
  192DOPC   C3B 2251   6.013   2.041  15.711  0.1082  0.0077  0.0131
  192DOPC   C4B 2252   5.635   2.243  15.618  0.1836  0.0307 -0.1719
  193DOPS   CNO 2253  10.710   6.245  15.650 -0.0006 -0.2076 -0.1140
  193DOPS   PO4 2254  11.006   6.138  15.493 -0.0350  0.0257  0.0681
  193DOPS   GL1 2255  11.039   6.101  15.121 -0.7576 -0.1762  0.3686
  193DOPS   GL2 2256  10.838   5.919  14.996  0.1807 -0.0855 -0.3692
  193DOPS   C1A 2257  11.282   5.945  14.733 -0.2189 -0.0444  0.0148
  193DOPS   D2A 2258  10.949   5.787  14.412 -0.4019 -0.2063  0.0415
  193DOPS   C3A 2259  10.955   5.429  14.046 -0.2547  0.0209  0.0882
  193DOPS   C4A 2260  11.235   5.193  13.768  0.2663  0.1585  0.1552
  193DOPS   C1B 2261  10.624   6.167  14.625  0.0684 -0.0727 -0.0151
  193DOPS   D2B 2262  10.593   6.583  14.652 -0.1744  0.2038  0.1284
  193DOPS   C3B 2263  10.775   6.791  14.284  0.1934 -0.2940 -0.0401
  193DOPS   C4B 2264  10.872   6.775  13.826 -0.0971  0.0173  0.1375
  194DOPE   NH3 2265   3.331  10.026  16.015 -0.1261 -0.0171 -0.0401
  194DOPE   PO4 2266   3.585  10.216  16.095 -0.1189  0.0399  0.0979
  194DOPE   GL1 2267   3.833  10.191  15.726 -0.3507  0.1175 -0.1363
  194DOPE   GL2 2268   3.554  10.206  15.526 -0.1128 -0.1481 -0.1420
  194DOPE   C1A 2269   4.177  10.132  15.435 -0.0929  0.0726 -0.0163
  194DOPE   D2A 2270   4.267   9.870  15.057  0.0948  0.2616  0.3232
  194DOPE   C3A 2271   3.946   9.786  14.694 -0.0517  0.0813  0.0321
  194DOPE   C4A 2272   3.661   9.769  14.307 -0.0657  0.1291  0.2625
  194DOPE   C1B 2273   3.326   9.827  15.400 -0.0183 -0.0015  0.1943
  194DOPE   D2B 2274   3.256   9.406  15.342 -0.1808 -0.1123  0.1137
  194DOPE   C3B 2275   3.273   9.176  14.988  0.3983 -0.0648 -0.2474
  194DOPE   C4B 2276   3.233   8.864  14.655 -0.2569 -0.2467  0.1551
  195DOPE   NH3 2277   8.073   7.308  16.291  0.3047  0.0377 -0.0210
  195DOPE   PO4 2278   8.383   7.349  16.193  0.0203  0.2126 -0.2415
  195DOPE   GL1 2279   8.223   7.725  16.027 -0.1773 -0.0849  0.0807
  195DOPE   GL2 2280   8.031   7.671  15.749 -0.1548  0.1970 -0.0406
  195DOPE   C1A 2281   8.523   7.838  15.644  0.1907  0.1510  0.3934
  195DOPE   D2A 2282   8.744   7.943  15.244  0.1270  0.4512 -0.2106
  195DOPE   C3A 2283   8.820   7.545  15.023 -0.5177 -0.1280 -0.0904
  195DOPE   C4A 2284   8.903   7.126  14.787  0.0676 -0.1971  0.2001
  195DOPE   C1B 2285   8.149   7.786  15.293  0.0204 -0.2913 -0.0561
  195DOPE   D2B 2286   8.351   7.622  14.885  0.1697  0.0921 -0.0421
  195DOPE   C3B 2287   8.415   7.866  14.485 -0.0464  0.1406  0.3940
  195DOPE   C4B 2288   8.782   7.873  14.136  0.1743 -0.2716  0.0479
  196DOPE   NH3 2289   7.516   4.301  16.163 -0.0850 -0.3980 -0.1715
  196DOPE   PO4 2290   7.573   4.626  16.174  0.0814 -0.2425 -0.0087
  196DOPE   GL1 2291   7.491   4.887  15.800  0.2472 -0.0784  0.0698
  196DOPE   GL2 2292   7.276   5.051  15.792 -0.2697 -0.1964 -0.0636
  196DOPE   C1A 2293   7.300   4.761  15.381  0.5680 -0.0452 -0.0999
  196DOPE   D2A 2294   7.099   4.660  14.940  0.0554 -0.3025  0.0602
  196DOPE   C3A 2295   6.819   4.700  14.643 -0.1811 -0.1674 -0.3210
  196DOPE   C4A 2296   6.381   4.626  14.555  0.0099  0.1540 -0.1155
  196DOPE   C1B 2297   6.963   5.096  15.416 -0.1770 -0.0843  0.2291
  196DOPE   D2B 2298   6.976   5.171  14.897  0.2358  0.3313 -0.4532
  196DOPE   C3B 2299   6.764   5.218  14.444 -0.1611  0.1294  0.0748
  196DOPE   C4B 2300   6.654   4.944  14.107 -0.0107  0.2794 -0.0828
  197DOPC   NC3 2301  10.918  10.862  16.115  0.3633 -0.3452  0.2030
  197DOPC   PO4 2302  10.796  11.234  16.031 -0.0430  0.2240  0.1001
  197DOPC   GL1 2303  10.884  11.024  15.700  0.0176 -0.0405 -0.2526
  197DOPC   GL2 2304  11.120  11.111  15.665  0.0578  0.0184 -0.2260
  197DOPC   C1A 2305  11.099  10.586  15.719 -0.1858 -0.1179  0.1065
  197DOPC   D2A 2306  11.382  10.250  15.555  0.1067 -0.2045  0.1911
  197DOPC   C3A 2307  11.621  10.582  15.350  0.3344  0.1483 -0.2817
  197DOPC   C4A 2308  12.006  10.605  15.142  0.3628 -0.3034 -0.0481
  197DOPC   C1B 2309  11.154  10.944  15.230  0.2220  0.3442  0.0745
  197DOPC   D2B 2310  11.160  10.730  14.769  0.2615  0.1130 -0.3480
  197DOPC   C3B 2311  11.290  10.354  14.585 -0.0236 -0.1531  0.1175
  197DOPC   C4B 2312  11.033  10.026  14.318  0.0730 -0.1400 -0.1645
  198POSM   NC3 2313   2.776   6.770  15.935 -0.2359 -0.0534 -0.0347
  198POSM   PO4 2314   2.409   6.799  16.115  0.1286 -0.0133 -0.0663
  198POSM   AM1 2315   2.320   6.548  15.892 -0.1033 -0.1315  0.1479
  198POSM   AM2 2316   2.301   6.274  15.825 -0.4336  0.0291 -0.1037
  198POSM   T1A 2317   2.064   6.530  15.482 -0.1372 -0.0375 -0.0080
  198POSM   C2A 2318   2.073   6.294  15.092 -0.1485  0.1282 -0.0683
  198POSM   C3A 2319   1.841   6.008  14.854 -0.0478 -0.3476  0.2933
  198POSM   C1B 2320   2.157   6.089  15.597 -0.0928 -0.0366 -0.1833
  198POSM   D2B 2321   2.065   5.824  15.267  0.0618 -0.3546  0.0633
  198POSM   C3B 2322   1.671   5.657  15.165 -0.0942 -0.2517  0.2285
  198POSM   C4B 2323   1.550   5.281  15.390 -0.0615 -0.2276  0.1059
  199POSM   NC3 2324   0.088   9.430  16.260 -0.1723 -0.2266 -0.0523
  199POSM   PO4 2325   0.224   9.389  15.927  0.2255  0.1913 -0.2164
  199POSM   AM1 2326  -0.029   9.496  15.715  0.1771 -0.1552 -0.2914
  199POSM   AM2 2327  -0.147   9.464  15.429  0.1603  0.1560  0.0792
  199POSM   T1A 2328  -0.149   9.933  15.519  0.2452 -0.2273  0.2187
  199POSM   C2A 2329  -0.374  10.174  15.211 -0.1967 -0.0083 -0.0088
  199POSM   C3A 2330  -0.797  10.235  15.027 -0.0217  0.0106 -0.2382
  199POSM   C1B 2331  -0.022   9.413  15.117  0.1033  0.0652  0.0284
  199POSM   D2B 2332   0.016   9.185  14.726 -0.0240 -0.0303 -0.0018
  199POSM   C3B 2333   0.320   8.908  14.531 -0.1538  0.2334  0.2198
  199POSM   C4B 2334   0.183   8.442  14.457 -0.0582  0.0605 -0.2724
  200DOPC   NC3 2335   5.854   4.566  16.453 -0.0361 -0.1369  0.2404
  200DOPC   PO4 2336   5.514   4.519  16.311  0.0901 -0.1919 -0.1245
  200DOPC   GL1 2337   5.651   4.583  15.928 -0.2513  0.1340 -0.1219
  200DOPC   GL2 2338   5.480   4.612  15.695 -0.2298  0.2479 -0.4314
  200DOPC   C1A 2339   5.815   4.244  15.612  0.1733  0.0670  0.2540
  200DOPC   D2A 2340   5.776   3.900  15.324 -0.0311  0.0230  0.0613
  200DOPC   C3A 2341   5.603   3.863  14.869 -0.3524 -0.1641  0.3242
  200DOPC   C4A 2342   5.647   3.768  14.436 -0.1110 -0.0311 -0.2191
  200DOPC   C1B 2343   5.181   4.377  15.428  0.1704 -0.3098  0.1871
  200DOPC   D2B 2344   5.570   4.310  15.124 -0.0252  0.0608  0.2234
  200DOPC   C3B 2345   5.572   4.283  14.623  0.0646 -0.2973 -0.0947
  200DOPC   C4B 2346   5.486   4.222  14.152 -0.1267  0.1925  0.2656
  201DOPC   NC3 2347   8.430   5.120  16.051 -0.1600 -0.1189 -0.1986
  201DOPC   PO4 2348   8.158   5.335  16.252 -0.1846 -0.0177  0.0399
  201DOPC   GL1 2349   8.056   5.339  15.829  0.3788 -0.0612  0.1455
  201DOPC   GL2 2350   8.020   5.089  15.681 -0.0520 -0.0284 -0.1743
  201DOPC   C1A 2351   8.121   5.544  15.442 -0.1325  0.2143  0.3705
  201DOPC   D2A 2352   8.057   5.523  14.942  0.0572  0.1233  0.0018
  201DOPC   C3A 2353   8.206   5.684  14.514  0.0286  0.0963  0.0205
  201DOPC   C4A 2354   8.348   6.088  14.267 -0.1705  0.0849  0.2543
  201DOPC   C1B 2355   7.698   5.188  15.358 -0.0034  0.0026  0.2065
  201DOPC   D2B 2356   7.502   5.053  14.986  0.1751 -0.0121  0.0899
  201DOPC   C3B 2357   7.561   4.732  14.660 -0.2770 -0.1264  0.1719
  201DOPC   C4B 2358   7.603   4.652  14.237 -0.0816  0.0753  0.0438
  202DOPS   CNO 2359   1.057   8.474  16.330 -0.1698 -0.3957 -0.0534
  202DOPS   PO4 2360   1.254   8.245  16.090 -0.1530  0.0989 -0.0120
  202DOPS   GL1 2361   1.140   8.372  15.746  0.1050  0.1679 -0.2611
  202DOPS   GL2 2362   0.999   8.132  15.604  0.2256 -0.0102  0.0997
  202DOPS   C1A 2363   1.290   8.502  15.324 -0.0378  0.0792 -0.3719
  202DOPS   D2A 2364   1.623   8.659  15.081  0.0599  0.3787  0.0860
  202DOPS   C3A 2365   1.601   8.596  14.615  0.2185  0.0792  0.2804
  202DOPS   C4A 2366   1.659   8.840  14.195 -0.2455  0.1946 -0.0167
  202DOPS   C1B 2367   0.851   8.256  15.173 -0.1248 -0.1213  0.1347
  202DOPS   D2B 2368   1.091   8.339  14.772 -0.0944  0.2121  0.0755
  202DOPS   C3B 2369   1.556   8.172  14.838  0.0336 -0.1127  0.1624
  202DOPS   C4B 2370   1.904   7.931  15.098 -0.2151  0.1719 -0.1769
  203DOPE   NH3 2371   8.478   1.440  15.736 -0.0706 -0.0995 -0.1453
  203DOPE   PO4 2372   8.315   1.265  15.977  0.1461  0.1065  0.0343
  203DOPE   GL1 2373   8.096   1.271  15.577  0.5028 -0.0651  0.0075
  203DOPE   GL2 2374   7.800   1.248  15.607  0.0106  0.1210  0.2822
  203DOPE   C1A 2375   8.015   1.063  15.168 -0.0254  0.2447 -0.2024
  203DOPE   D2A 2376   7.939   0.926  14.773  0.0680 -0.2809 -0.2523
  203DOPE   C3A 2377   7.854   1.228  14.449 -0.3271  0.2689  0.0597
  203DOPE   C4A 2378   7.990   1.671  14.477 -0.0934  0.2089 -0.1017
  203DOPE   C1B 2379   7.753   1.481  15.209  0.2463 -0.1145 -0.0223
  203DOPE   D2B 2380   7.650   1.741  14.930  0.1270 -0.3549  0.1158
  203DOPE   C3B 2381   7.553   2.132  14.702 -0.4225  0.0365 -0.4351
  203DOPE   C4B 2382   7.487   2.315  14.276 -0.1946  0.0717  0.0535
  204DOPS   CNO 2383   9.501   3.963  15.289 -0.3392  0.2433  0.1161
  204DOPS   PO4 2384   9.558   4.332  15.396  0.1653 -0.0892  0.0172
  204DOPS   GL1 2385   9.381   4.622  15.133 -0.0887 -0.2202  0.1847
  204DOPS   GL2 2386   9.527   4.752  14.963 -0.3059  0.1149  0.4711
  204DOPS   C1A 2387   9.157   5.007  15.213 -0.1449 -0.0508 -0.1776
  204DOPS   D2A 2388   9.273   5.439  15.082  0.1262 -0.1261  0.0940
  204DOPS   C3A 2389   8.840   5.613  15.115  0.2742 -0.1930  0.1808
  204DOPS   C4A 2390   8.512   5.410  14.876  0.0615  0.0660 -0.0317
  204DOPS   C1B 2391   9.328   4.634  14.676  0.1177  0.0995  0.1862
  204DOPS   D2B 2392   9.017   4.253  14.644  0.0832 -0.1986 -0.0577
  204DOPS   C3B 2393   8.887   4.072  14.278  0.0096 -0.2422 -0.2191
  204DOPS   C4B 2394   9.000   4.170  13.864  0.0230  0.0999 -0.0204
  205DOPE   NH3 2395  10.954   1.601  11.031  0.1562 -0.1826 -0.1767
  205DOPE   PO4 2396  11.012   1.441  11.336 -0.1243  0.1988 -0.0263
  205DOPE   GL1 2397  11.438   1.349  11.451  0.1319  0.2230  0.0172
  205DOPE   GL2 2398  11.531   1.557  11.232  0.0476  0.0054 -0.1468
  205DOPE   C1A 2399  11.722   1.290  11.831  0.5172 -0.0960 -0.1207
  205DOPE   D2A 2400  11.644   1.270  12.278 -0.0544  0.1157  0.1747
  205DOPE   C3A 2401  11.561   1.336  12.739  0.2140 -0.1120  0.2790
  205DOPE   C4A 2402  11.311   1.423  13.083 -0.0322 -0.0770 -0.1590
  205DOPE   C1B 2403  11.950   1.411  11.397  0.3760 -0.2154  0.1677
  205DOPE   D2B 2404  12.205   1.116  11.625 -0.0503  0.0035  0.1706
  205DOPE   C3B 2405  12.488   1.293  11.973  0.0214 -0.0230  0.0551
  205DOPE   C4B 2406  12.604   1.382  12.432  0.1393  0.0137  0.4134
  206DOPS   CNO 2407   1.577   3.640  12.142  0.2438 -0.1478 -0.1639
  206DOPS   PO4 2408   1.467   3.825  12.461  0.1153  0.0001 -0.0109
  206DOPS   GL1 2409   1.723   3.748  12.712 -0.0995  0.1878 -0.1499
  206DOPS   GL2 2410   1.774   3.455  12.605 -0.2437 -0.0147  0.3193
  206DOPS   C1A 2411   2.141   3.550  12.883 -0.0795 -0.2488  0.0549
  206DOPS   D2A 2412   2.440   3.243  12.937  0.2467  0.1943 -0.1729
  206DOPS   C3A 2413   2.349   2.846  13.088  0.0192 -0.0770  0.0237
  206DOPS   C4A 2414   2.063   2.533  13.041 -0.1689  0.1174  0.1403
  206DOPS   C1B 2415   1.512   3.402  12.982 -0.1349 -0.0293  0.0289
  206DOPS   D2B 2416   1.574   3.279  13.407 -0.0255  0.3133 -0.1632
  206DOPS   C3B 2417   1.666   3.436  13.859  0.0895 -0.0203 -0.1095
  206DOPS   C4B 2418   1.401   3.717  14.147 -0.0035  0.2171  0.1048
  207DOPE   NH3 2419   9.382   1.038  11.287 -0.3616 -0.1404  0.0617
  207DOPE   PO4 2420   9.314   0.792  11.464  0.1763  0.1647  0.5414
  207DOPE   GL1 2421   9.378   1.030  11.793  0.2305 -0.2253 -0.1815
  207DOPE   GL2 2422   9.544   1.127  11.753 -0.2263 -0.1592 -0.1237
  207DOPE   C1A 2423   9.254   1.417  11.988 -0.1215  0.3466  0.2528
  207DOPE   D2A 2424   9.123   1.863  11.949  0.0656  0.0108 -0.0999
  207DOPE   C3A 2425   8.912   2.221  12.248 -0.1646  0.0629 -0.0602
  207DOPE   C4A 2426   8.457   2.374  12.239  0.0552  0.1083  0.3324
  207DOPE   C1B 2427   9.673   1.601  11.748  0.0614  0.3762 -0.2848
  207DOPE   D2B 2428   9.654   1.956  11.956 -0.0126 -0.2995 -0.1251
  207DOPE   C3B 2429   9.834   1.997  12.368  0.0120 -0.0226 -0.1961
  207DOPE   C4B 2430   9.748   1.986  12.792 -0.1920  0.1937 -0.1807
  208DOPE   NH3 2431  10.569   1.292  11.095 -0.1703  0.0801  0.3482
  208DOPE   PO4 2432  10.280   1.192  11.168  0.2639  0.1758  0.1794
  208DOPE   GL1 2433  10.325   1.488  11.436  0.0735 -0.0118  0.2513
  208DOPE   GL2 2434  10.528   1.437  11.607 -0.0048  0.0338  0.3225
  208DOPE   C1A 2435  10.031   1.357  11.852 -0.3182 -0.3210  0.4431
  208DOPE   D2A 2436   9.754   1.484  12.226  0.4310  0.0862 -0.0803
  208DOPE   C3A 2437   9.383   1.731  12.392  0.2756  0.1645  0.0410
  208DOPE   C4A 2438   9.264   2.098  12.645 -0.0263  0.1328 -0.2848
  208DOPE   C1B 2439  10.571   1.517  12.053 -0.2319  0.0914  0.3527
  208DOPE   D2B 2440  10.768   1.840  12.257  0.3141 -0.0132  0.0182
  208DOPE   C3B 2441  10.652   2.122  12.664 -0.0770  0.1278 -0.2503
  208DOPE   C4B 2442  10.221   2.122  12.895  0.2518  0.1926  0.0906
  209DOPC   NC3 2443  10.891   1.776  11.676  0.1688  0.0610 -0.0826
  209DOPC   PO4 2444  10.628   1.869  11.378  0.0132 -0.3412  0.0335
  209DOPC   GL1 2445  10.372   1.949  11.658  0.2325 -0.3200  0.0692
  209DOPC   GL2 2446  10.547   2.090  11.922 -0.2485  0.1612  0.0777
  209DOPC   C1A 2447  10.170   1.816  12.084 -0.2597  0.1122 -0.1982
  209DOPC   D2A 2448  10.264   1.746  12.541  0.2081 -0.2346 -0.1449
  209DOPC   C3A 2449  10.334   1.335  12.743  0.0450  0.1343  0.0981
  209DOPC   C4A 2450  10.240   1.086  13.105  0.1514  0.0214 -0.1354
  209DOPC   C1B 2451  10.297   2.280  12.234 -0.0176  0.3834 -0.1072
  209DOPC   D2B 2452   9.995   2.529  12.406  0.1484  0.1267  0.2765
  209DOPC   C3B 2453   9.933   2.615  12.854  0.2422 -0.2140 -0.1803
  209DOPC   C4B 2454   9.968   3.066  12.993 -0.2821 -0.1291 -0.0696
  210DOPC   NC3 2455   3.118   7.558  13.054  0.1967 -0.1721  0.1100
  210DOPC   PO4 2456   3.191   7.569  12.659  0.2072 -0.1473 -0.3650
  210DOPC   GL1 2457   2.786   7.712  12.660 -0.0929 -0.1362  0.2403
  210DOPC   GL2 2458   2.658   7.701  12.941 -0.1785  0.1529  0.0595
  210DOPC   C1A 2459   2.651   8.161  12.588 -0.2625  0.0493  0.0568
  210DOPC   D2A 2460   2.717   8.591  12.827 -0.2289 -0.1436  0.1394
  210DOPC   C3A 2461   2.600   8.540  13.258 -0.0064 -0.0997  0.0012
  210DOPC   C4A 2462   2.644   8.532  13.749  0.2301  0.4756  0.1865
  210DOPC   C1B 2463   2.743   7.562  13.382  0.1844  0.1522  0.2052
  210DOPC   D2B 2464   2.905   7.330  13.708 -0.2248 -0.2220  0.1266
  210DOPC   C3B 2465   2.845   7.315  14.168 -0.0082 -0.1864  0.0238
  210DOPC   C4B 2466   2.637   7.406  14.548 -0.0872  0.2283  0.1056
  211DOPE   NH3 2467  33.635   7.273  12.217 -0.1436 -0.2651  0.1283
  211DOPE   PO4 2468  33.871   7.529  12.234  0.1978 -0.0293  0.0626
  211DOPE   GL1 2469  34.226   7.696  12.482  0.2036 -0.0036  0.2257
  211DOPE   GL2 2470  34.432   7.483  12.460 -0.0004  0.1751 -0.0246
  211DOPE   C1A 2471  34.324   7.974  12.840 -0.3570  0.2596  0.0508
  211DOPE   D2A 2472  34.281   7.859  13.280 -0.0293 -0.2236 -0.1701
  211DOPE   C3A 2473  34.424   8.175  13.603  0.1872  0.1585  0.2796
  211DOPE   C4A 2474  34.343   8.519  13.916 -0.0113 -0.1285 -0.0169
  211DOPE   C1B 2475  34.883   7.560  12.511  0.0039  0.1503 -0.0680
  211DOPE   D2B 2476  35.160   7.516  12.917 -0.0960 -0.2612  0.2105
  211DOPE   C3B 2477  35.219   7.747  13.316  0.0453  0.1038  0.1019
  211DOPE   C4B 2478  35.504   7.979  13.518 -0.1297  0.2076 -0.1963
  212DOPE   NH3 2479  12.137  10.310  12.278  0.1587  0.3937  0.0135
  212DOPE   PO4 2480  11.888  10.125  12.179 -0.0632  0.0329  0.0670
  212DOPE   GL1 2481  11.757   9.970  12.521  0.5275 -0.1604 -0.4063
  212DOPE   GL2 2482  11.426  10.079  12.629 -0.0727 -0.0180 -0.0347
  212DOPE   C1A 2483  11.760   9.602  12.757  0.2911  0.2217  0.0366
  212DOPE   D2A 2484  11.793   9.311  13.079  0.0442 -0.2557 -0.1526
  212DOPE   C3A 2485  12.132   9.358  13.371 -0.1142  0.1189 -0.1073
  212DOPE   C4A 2486  12.032   9.603  13.780  0.3047  0.0398 -0.0965
  212DOPE   C1B 2487  11.335   9.848  12.944 -0.2677  0.0831  0.5084
  212DOPE   D2B 2488  11.094   9.594  13.290  0.1334 -0.3056  0.0119
  212DOPE   C3B 2489  11.167   9.333  13.664  0.0842 -0.1355 -0.2460
  212DOPE   C4B 2490  11.111   8.932  13.849  0.0630  0.0957 -0.0085
  213DOPE   NH3 2491   7.615   5.964  12.637  0.1461  0.0378  0.0272
  213DOPE   PO4 2492   7.377   5.937  12.414 -0.1181  0.0371 -0.0706
  213DOPE   GL1 2493   7.231   5.812  12.841 -0.2718 -0.0128  0.1687
  213DOPE   GL2 2494   7.042   5.600  12.842 -0.1518 -0.1194 -0.0122
  213DOPE   C1A 2495   6.828   6.041  13.031 -0.1715 -0.1042  0.0022
  213DOPE   D2A 2496   6.479   6.211  13.298 -0.1412 -0.0479  0.0301
  213DOPE   C3A 2497   6.173   5.962  13.488 -0.2563 -0.0765 -0.3774
  213DOPE   C4A 2498   5.914   5.599  13.328  0.0788 -0.0067  0.2399
  213DOPE   C1B 2499   6.916   5.300  13.177  0.2454  0.1474  0.1931
  213DOPE   D2B 2500   6.890   4.987  13.538 -0.2264 -0.2056  0.1322
  213DOPE   C3B 2501   6.434   4.937  13.628 -0.3035  0.1805 -0.1645
  213DOPE   C4B 2502   6.064   5.245  13.723  0.0241 -0.3378 -0.1517
  214POSM   NC3 2503   1.221   8.436  12.873  0.0013  0.2135  0.2719
  214POSM   PO4 2504   1.438   8.246  12.641  0.1290  0.1814 -0.1696
  214POSM   AM1 2505   1.687   8.208  12.808 -0.0314 -0.0306 -0.1686
  214POSM   AM2 2506   1.711   8.211  13.100  0.1894  0.1626  0.0107
  214POSM   T1A 2507   2.176   8.180  13.047  0.0095 -0.1861  0.0158
  214POSM   C2A 2508   2.412   8.055  13.448 -0.0062 -0.1096 -0.0354
  214POSM   C3A 2509   2.301   8.110  13.884  0.1134 -0.3902 -0.0330
  214POSM   C1B 2510   1.726   8.571  13.130 -0.1564  0.0141 -0.0388
  214POSM   D2B 2511   1.820   8.918  13.312  0.2256  0.2675  0.0894
  214POSM   C3B 2512   1.707   9.019  13.728  0.1220 -0.0440 -0.3986
  214POSM   C4B 2513   1.725   9.489  13.907 -0.1839 -0.2699  0.1266
  215DOPE   NH3 2514   4.449   7.300  12.781 -0.1373  0.0001 -0.2283
  215DOPE   PO4 2515   4.228   7.463  12.580  0.0753 -0.3047  0.1107
  215DOPE   GL1 2516   4.153   7.725  12.927  0.1221 -0.0838 -0.3023
  215DOPE   GL2 2517   4.072   7.468  13.090 -0.0945  0.2168  0.3936
  215DOPE   C1A 2518   4.166   8.107  13.229 -0.4422  0.0043  0.1928
  215DOPE   D2A 2519   4.239   8.211  13.721  0.2489 -0.1723 -0.2249
  215DOPE   C3A 2520   4.454   8.254  14.082  0.2571  0.0613  0.0372
  215DOPE   C4A 2521   4.778   8.145  14.349 -0.0620 -0.0170  0.0506
  215DOPE   C1B 2522   4.079   7.663  13.519  0.0158  0.0856 -0.0374
  215DOPE   D2B 2523   4.141   7.735  14.017  0.0484  0.0670  0.0790
  215DOPE   C3B 2524   3.713   7.863  14.039  0.2313 -0.2259 -0.1636
  215DOPE   C4B 2525   3.480   8.102  14.374  0.0062 -0.0015 -0.1030
  216POSM   NC3 2526   7.655   6.935  12.742 -0.5079  0.0979  0.0910
  216POSM   PO4 2527   7.670   6.969  12.375 -0.0229 -0.2495 -0.0334
  216POSM   AM1 2528   7.751   7.264  12.418 -0.3084  0.2034  0.2747
  216POSM   AM2 2529   7.870   7.394  12.614 -0.2089 -0.1282  0.0241
  216POSM   T1A 2530   7.603   7.719  12.324 -0.1534  0.0015 -0.1593
  216POSM   C2A 2531   7.441   8.155  12.529 -0.2635  0.1359  0.0191
  216POSM   C3A 2532   7.102   8.220  12.791  0.0949 -0.0599  0.0385
  216POSM   C1B 2533   7.938   7.649  12.751  0.2931 -0.2449 -0.0419
  216POSM   D2B 2534   8.036   7.867  13.142 -0.1271  0.1720 -0.0694
  216POSM   C3B 2535   7.891   7.902  13.550  0.0500  0.0321  0.1695
  216POSM   C4B 2536   7.706   7.797  13.960  0.0599  0.3073  0.1712
  217POSM   NC3 2537   0.394  34.491  12.571  0.0306 -0.2586  0.3661
  217POSM   PO4 2538   0.631  34.732  12.404 -0.2771 -0.0110 -0.2364
  217POSM   AM1 2539   0.473  34.956  12.554 -0.1121 -0.4771 -0.2171
  217POSM   AM2 2540   0.519  35.144  12.744 -0.1696 -0.2097 -0.2687
  217POSM   T1A 2541   0.320  35.447  12.403 -0.0182 -0.1506  0.1916
  217POSM   C2A 2542   0.208  35.903  12.249 -0.0858  0.0623  0.1741
  217POSM   C3A 2543   0.187  36.307  12.407  0.0964 -0.0582  0.1076
  217POSM   C1B 2544   0.513  35.445  12.875 -0.2390  0.0410 -0.2794
  217POSM   D2B 2545   0.734  35.878  13.075  0.1158  0.1952  0.0513
  217POSM   C3B 2546   0.800  35.967  13.531 -0.1452  0.2465 -0.1611
  217POSM   C4B 2547   1.190  36.024  13.756  0.1111 -0.1733  0.0254
  218DOPC   NC3 2548  10.736  10.291  11.977 -0.1397 -0.0292  0.0678
  218DOPC   PO4 2549  10.917  10.021  12.191  0.1521  0.2186  0.2809
  218DOPC   GL1 2550  10.627   9.937  12.480  0.2488 -0.1649  0.0874
  218DOPC   GL2 2551  10.387  10.119  12.352  0.0189  0.2741  0.0285
  218DOPC   C1A 2552  10.530  10.022  12.918 -0.0968  0.1488  0.0711
  218DOPC   D2A 2553  10.395  10.053  13.384 -0.1319 -0.0858 -0.0621
  218DOPC   C3A 2554  10.036   9.984  13.704 -0.0598 -0.0929  0.1618
  218DOPC   C4A 2555   9.569   9.987  13.817  0.4125  0.1028  0.1351
  218DOPC   C1B 2556  10.303   9.786  12.017  0.1150  0.1166  0.0323
  218DOPC   D2B 2557  10.031   9.493  11.781 -0.2420 -0.0020  0.2046
  218DOPC   C3B 2558  10.031   9.056  11.642  0.0732 -0.0688  0.0986
  218DOPC   C4B 2559   9.990   8.627  11.552 -0.0790  0.1283  0.0887
  219DOPC   NC3 2560   7.803   8.783  12.378 -0.3757 -0.0672  0.1061
  219DOPC   PO4 2561   7.768   8.430  12.248 -0.1674 -0.3237  0.1655
  219DOPC   GL1 2562   8.068   8.431  12.510  0.0782  0.2436  0.0180
  219DOPC   GL2 2563   8.328   8.577  12.470 -0.0340 -0.0432  0.2610
  219DOPC   C1A 2564   8.304   8.464  12.939  0.1941  0.1630 -0.0421
  219DOPC   D2A 2565   8.655   8.568  13.262 -0.0711  0.1254 -0.1507
  219DOPC   C3A 2566   9.081   8.442  13.229 -0.1089  0.1492  0.2137
  219DOPC   C4A 2567   9.438   8.725  13.160 -0.0113  0.3205 -0.4154
  219DOPC   C1B 2568   8.212   9.028  12.407 -0.0796  0.0771  0.1569
  219DOPC   D2B 2569   8.235   9.506  12.547 -0.0245  0.0278  0.0564
  219DOPC   C3B 2570   8.280   9.655  12.993 -0.0450  0.2584  0.0782
  219DOPC   C4B 2571   8.148   9.872  13.362 -0.4609  0.0273  0.0556
  220DOPC   NC3 2572   3.567   5.416  12.975 -0.2393 -0.1689 -0.0938
  220DOPC   PO4 2573   3.675   5.477  12.630  0.1660 -0.3265 -0.0571
  220DOPC   GL1 2574   3.778   5.185  12.614 -0.0804 -0.1012 -0.3256
  220DOPC   GL2 2575   3.837   5.016  12.862  0.0056 -0.0184  0.0194
  220DOPC   C1A 2576   4.062   4.874  12.437  0.0756 -0.0071  0.0822
  220DOPC   D2A 2577   4.311   4.511  12.715 -0.0511 -0.0070 -0.0249
  220DOPC   C3A 2578   4.290   4.472  13.197  0.2239  0.1086  0.0166
  220DOPC   C4A 2579   4.425   4.792  13.484 -0.0235  0.2511 -0.1518
  220DOPC   C1B 2580   4.263   5.081  13.015  0.2056  0.2470  0.2241
  220DOPC   D2B 2581   4.706   5.184  12.862 -0.4273  0.1036 -0.2664
  220DOPC   C3B 2582   4.879   4.724  12.950 -0.1129 -0.1666  0.4166
  220DOPC   C4B 2583   4.767   4.273  12.984 -0.2260  0.1011 -0.0134
  221DOPE   NH3 2584   7.000   0.770  12.085  0.1615  0.3300 -0.0988
  221DOPE   PO4 2585   7.083   0.926  12.396  0.1514  0.0478  0.0716
  221DOPE   GL1 2586   7.030   0.782  12.656  0.0341 -0.1877  0.0880
  221DOPE   GL2 2587   7.124   0.932  12.904 -0.0474  0.0834 -0.2205
  221DOPE   C1A 2588   6.973   0.474  13.037  0.0602  0.0681 -0.2564
  221DOPE   D2A 2589   7.030   0.516  13.508  0.1568 -0.0810  0.1276
  221DOPE   C3A 2590   6.901   0.320  13.903 -0.0436  0.0008 -0.0281
  221DOPE   C4A 2591   7.019  -0.012  14.128  0.0501  0.2576  0.0472
  221DOPE   C1B 2592   6.878   1.033  13.290  0.0849 -0.3159 -0.1317
  221DOPE   D2B 2593   6.895   0.995  13.762 -0.2727 -0.0326  0.0048
  221DOPE   C3B 2594   7.150   0.763  14.115 -0.0162 -0.3890 -0.2206
  221DOPE   C4B 2595   7.399   0.784  14.495  0.0012  0.0281  0.0599
  222POSM   NC3 2596   6.036   0.314  11.952  0.2498 -0.2981 -0.0258
  222POSM   PO4 2597   6.007   0.178  12.333  0.1244 -0.1044 -0.0450
  222POSM   AM1 2598   6.115   0.203  12.626  0.0680 -0.0379  0.1336
  222POSM   AM2 2599   6.307   0.372  12.768 -0.0577 -0.1374 -0.0436
  222POSM   T1A 2600   6.239  -0.018  13.095  0.0287  0.1706 -0.1440
  222POSM   C2A 2601   6.384  -0.214  13.460  0.1399  0.2799  0.0956
  222POSM   C3A 2602   6.589  -0.158  13.888 -0.0906 -0.0523 -0.0283
  222POSM   C1B 2603   6.571   0.187  12.793  0.1145  0.0192 -0.1209
  222POSM   D2B 2604   6.719  -0.203  12.938 -0.0392  0.0074 -0.0085
  222POSM   C3B 2605   6.742  -0.417  13.294 -0.1041 -0.1642  0.0089
  222POSM   C4B 2606   6.767  -0.621  13.750 -0.2960 -0.0077 -0.0363
  223DOPE   NH3 2607   1.180   8.895  12.248  0.0865 -0.0594  0.4904
  223DOPE   PO4 2608   1.006   8.765  12.526 -0.2077 -0.1982 -0.1339
  223DOPE   GL1 2609   0.719   8.705  12.827 -0.1766 -0.3791 -0.2190
  223DOPE   GL2 2610   0.596   9.060  12.845  0.1021  0.2774 -0.1236
  223DOPE   C1A 2611   0.845   8.883  13.207  0.2818  0.2699 -0.1413
  223DOPE   D2A 2612   0.985   9.256  13.482 -0.0292  0.1801  0.3139
  223DOPE   C3A 2613   0.726   9.523  13.799  0.1910 -0.0979 -0.2354
  223DOPE   C4A 2614   0.418   9.739  14.085  0.1309  0.1320  0.2307
  223DOPE   C1B 2615   0.805   9.423  13.048 -0.0671 -0.0103  0.1315
  223DOPE   D2B 2616   1.156   9.628  13.242  0.0079  0.0388  0.0458
  223DOPE   C3B 2617   1.280   9.627  13.668  0.2979  0.2384  0.4292
  223DOPE   C4B 2618   1.246   9.226  13.870 -0.0561 -0.0245  0.0739
  224DOPC   NC3 2619   8.551   0.900  11.249  0.1592 -0.1376 -0.1164
  224DOPC   PO4 2620   8.841   0.704  11.370  0.1785 -0.0211  0.1761
  224DOPC   GL1 2621   8.978   0.565  11.732 -0.3036 -0.2670 -0.0631
  224DOPC   GL2 2622   9.296   0.507  11.856  0.0848  0.0495  0.0354
  224DOPC   C1A 2623   8.861   0.275  12.113  0.4017  0.3030 -0.1551
  224DOPC   D2A 2624   8.850  -0.174  12.258  0.1990 -0.0886  0.1483
  224DOPC   C3A 2625   8.854  -0.362  12.697 -0.3492 -0.1036  0.0204
  224DOPC   C4A 2626   9.035  -0.705  13.000 -0.1061  0.1832  0.0804
  224DOPC   C1B 2627   9.325   0.397  12.325  0.3247  0.0184 -0.1194
  224DOPC   D2B 2628   9.148   0.066  12.570  0.1756 -0.1154 -0.0751
  224DOPC   C3B 2629   8.964   0.153  12.975 -0.4433  0.0247  0.1037
  224DOPC   C4B 2630   9.015   0.003  13.393 -0.0826  0.0570 -0.0214
  225POSM   NC3 2631   7.774   0.773  11.838 -0.0281 -0.1351  0.2669
  225POSM   PO4 2632   7.452   0.566  11.881  0.0153 -0.2554  0.0796
  225POSM   AM1 2633   7.535   0.446  12.178  0.2242  0.3969 -0.0189
  225POSM   AM2 2634   7.296   0.417  12.367 -0.0511  0.0028  0.1007
  225POSM   T1A 2635   7.871   0.287  12.500  0.4699  0.0119  0.0401
  225POSM   C2A 2636   8.171   0.301  12.848  0.0840  0.1454  0.1404
  225POSM   C3A 2637   8.481   0.035  13.049 -0.2409 -0.1370 -0.1985
  225POSM   C1B 2638   7.434   0.412  12.698 -0.0148 -0.0269  0.3670
  225POSM   D2B 2639   7.723   0.401  13.112 -0.2371 -0.1480 -0.0122
  225POSM   C3B 2640   8.150   0.651  13.156 -0.1762 -0.0340 -0.1045
  225POSM   C4B 2641   8.590   0.543  13.130  0.1853  0.2286  0.3764
  226DOPE   NH3 2642   8.668   5.470  12.621 -0.0107 -0.1332 -0.0129
  226DOPE   PO4 2643   8.864   5.507  12.838  0.0911  0.2368  0.2385
  226DOPE   GL1 2644   8.520   5.536  13.028 -0.0172 -0.0727 -0.2167
  226DOPE   GL2 2645   8.340   5.360  13.003  0.1951 -0.2327  0.1576
  226DOPE   C1A 2646   8.312   5.885  13.281  0.4015  0.0052 -0.2958
  226DOPE   D2A 2647   8.222   6.376  13.406  0.0924 -0.2667 -0.0649
  226DOPE   C3A 2648   8.360   6.657  13.709 -0.3241  0.0172  0.0590
  226DOPE   C4A 2649   8.735   6.861  13.724  0.3216 -0.2344  0.1187
  226DOPE   C1B 2650   8.444   5.268  13.441 -0.3165  0.0472  0.3104
  226DOPE   D2B 2651   8.265   5.189  13.859 -0.1458 -0.0760 -0.1813
  226DOPE   C3B 2652   7.966   5.420  14.031 -0.2117 -0.4401  0.0633
  226DOPE   C4B 2653   7.696   5.745  14.150  0.2086 -0.2965  0.1375
  227DOPE   NH3 2654   0.097   4.218  12.399  0.2201 -0.1441  0.0326
  227DOPE   PO4 2655   0.111   4.031  12.641  0.1003 -0.1996  0.0853
  227DOPE   GL1 2656   0.189   4.252  12.932 -0.2345  0.1195  0.4535
  227DOPE   GL2 2657   0.200   4.503  12.842 -0.2745  0.1657  0.1171
  227DOPE   C1A 2658   0.090   4.277  13.386 -0.1696 -0.0109  0.2025
  227DOPE   D2A 2659  -0.217   4.215  13.701  0.1232 -0.1212 -0.0002
  227DOPE   C3A 2660  -0.362   4.677  13.605  0.3220  0.1391 -0.0672
  227DOPE   C4A 2661  -0.143   5.086  13.642  0.1037 -0.2187 -0.2180
  227DOPE   C1B 2662   0.345   4.960  12.812 -0.1358  0.0281  0.4190
  227DOPE   D2B 2663   0.611   5.365  12.889 -0.4915  0.2087  0.2023
  227DOPE   C3B 2664   0.578   5.760  12.603 -0.1021 -0.1332 -0.0425
  227DOPE   C4B 2665   0.650   6.202  12.433 -0.0107  0.1510 -0.0084
  228DOPC   NC3 2666   3.858   7.054  12.452  0.3528 -0.1791  0.2817
  228DOPC   PO4 2667   4.103   6.940  12.668  0.1088 -0.1518 -0.1170
  228DOPC   GL1 2668   4.454   6.792  12.827 -0.1975 -0.0431 -0.2655
  228DOPC   GL2 2669   4.281   6.748  13.073 -0.1711  0.2363  0.1096
  228DOPC   C1A 2670   4.731   6.525  13.100 -0.3120  0.1011 -0.0961
  228DOPC   D2A 2671   4.860   6.271  13.445  0.0652  0.1275  0.0052
  228DOPC   C3A 2672   4.914   6.593  13.763 -0.0593  0.1254  0.3989
  228DOPC   C4A 2673   4.688   7.009  13.867 -0.2510  0.1666 -0.1223
  228DOPC   C1B 2674   4.660   6.946  13.345  0.1056 -0.1717 -0.3084
  228DOPC   D2B 2675   5.085   7.019  13.581 -0.0738 -0.4236 -0.0532
  228DOPC   C3B 2676   5.229   6.997  14.023  0.2891 -0.0363  0.2144
  228DOPC   C4B 2677   5.082   6.615  14.242 -0.0010  0.1138 -0.2067
  229DOPE   NH3 2678   2.624   6.894  12.872 -0.0336  0.0675 -0.3441
  229DOPE   PO4 2679   2.793   7.159  12.924 -0.1182 -0.0841 -0.0151
  229DOPE   GL1 2680   2.449   7.318  13.057  0.2695 -0.2286  0.2396
  229DOPE   GL2 2681   2.235   7.138  13.050  0.2184 -0.0269  0.1405
  229DOPE   C1A 2682   2.168   7.604  13.191 -0.2821  0.0069  0.0033
  229DOPE   D2A 2683   1.852   7.848  13.373 -0.2789  0.0454  0.0591
  229DOPE   C3A 2684   1.808   8.223  13.592 -0.2044 -0.1816  0.0830
  229DOPE   C4A 2685   1.724   8.313  14.029  0.0072 -0.2130 -0.1311
  229DOPE   C1B 2686   1.868   7.129  13.416  0.2987  0.3203 -0.2021
  229DOPE   D2B 2687   1.528   7.403  13.655  0.3694 -0.0677  0.0375
  229DOPE   C3B 2688   1.571   7.858  13.865 -0.0499 -0.1851  0.3097
  229DOPE   C4B 2689   1.278   8.205  13.829 -0.0516 -0.0925 -0.2350
  230POSM   NC3 2690   8.175   4.924  12.778 -0.1150 -0.0352 -0.0844
  230POSM   PO4 2691   7.925   5.171  12.616  0.1353  0.3895 -0.1660
  230POSM   AM1 2692   7.775   5.192  12.909 -0.3779  0.0424  0.3229
  230POSM   AM2 2693   7.888   5.221  13.177  0.0912  0.0128 -0.0043
  230POSM   T1A 2694   7.435   5.124  13.276  0.2177  0.0848 -0.2590
  230POSM   C2A 2695   7.442   5.433  13.669 -0.1137 -0.2729  0.0653
  230POSM   C3A 2696   7.318   5.839  13.846 -0.2729  0.4005 -0.2035
  230POSM   C1B 2697   7.913   5.138  13.521  0.0224 -0.1693  0.3722
  230POSM   D2B 2698   7.722   5.013  13.935  0.2998 -0.3741  0.0781
  230POSM   C3B 2699   7.641   5.192  14.349  0.1359  0.1380  0.0793
  230POSM   C4B 2700   7.712   5.589  14.600 -0.0379  0.3055 -0.1997
  231DOPC   NC3 2701   8.077   6.689  12.123  0.1002  0.4007  0.0423
  231DOPC   PO4 2702   8.426   6.832  11.975  0.3127 -0.1872  0.1989
  231DOPC   GL1 2703   8.526   7.199  12.164  0.1965 -0.1140 -0.0442
  231DOPC   GL2 2704   8.607   7.309  12.418 -0.1875  0.1065 -0.0348
  231DOPC   C1A 2705   8.962   7.408  12.111 -0.0631  0.2074  0.0095
  231DOPC   D2A 2706   9.255   7.770  12.008  0.1461  0.3630 -0.1875
  231DOPC   C3A 2707   9.553   7.765  12.273  0.0227 -0.2483 -0.0736
  231DOPC   C4A 2708   9.682   7.552  12.688  0.0055 -0.0161 -0.0902
  231DOPC   C1B 2709   8.698   7.759  12.429  0.0159 -0.2093 -0.3035
  231DOPC   D2B 2710   8.661   8.221  12.386 -0.2078 -0.0429  0.1854
  231DOPC   C3B 2711   8.804   8.491  12.720 -0.0995 -0.0796  0.0877
  231DOPC   C4B 2712   9.100   8.866  12.771  0.3370 -0.2912  0.1967
  232POSM   NC3 2713   7.293  10.757  12.729  0.0853  0.2205  0.1205
  232POSM   PO4 2714   7.045  10.567  12.566 -0.0083 -0.1416 -0.1863
  232POSM   AM1 2715   6.883  10.559  12.858 -0.1914 -0.3604  0.4623
  232POSM   AM2 2716   6.983  10.687  13.124 -0.0724 -0.2514  0.0941
  232POSM   T1A 2717   6.665  10.348  13.229 -0.1304  0.0829 -0.3484
  232POSM   C2A 2718   6.628  10.099  13.615  0.0797 -0.1610 -0.1158
  232POSM   C3A 2719   6.581  10.171  14.119 -0.1109  0.0595 -0.0624
  232POSM   C1B 2720   7.257  10.781  13.340  0.1836  0.0402  0.0044
  232POSM   D2B 2721   7.628  10.968  13.547  0.1749  0.0590 -0.0343
  232POSM   C3B 2722   7.480  11.319  13.828  0.0155 -0.3270  0.4089
  232POSM   C4B 2723   7.133  11.651  13.772  0.0738  0.1223  0.2548
  233DOPE   NH3 2724   5.853   0.598  12.572  0.3552  0.3725  0.3231
  233DOPE   PO4 2725   5.690   0.515  12.797 -0.1976 -0.1179  0.3222
  233DOPE   GL1 2726   5.759   0.130  13.076  0.2708  0.2814  0.3616
  233DOPE   GL2 2727   5.547   0.021  13.191 -0.1006  0.1283 -0.1935
  233DOPE   C1A 2728   5.872  -0.146  13.474  0.1007 -0.4567 -0.1245
  233DOPE   D2A 2729   5.914  -0.228  13.941 -0.2902  0.0809  0.1970
  233DOPE   C3A 2730   5.884  -0.504  14.278  0.0622 -0.1409 -0.0495
  233DOPE   C4A 2731   6.033  -0.902  14.446  0.0949  0.1018 -0.0355
  233DOPE   C1B 2732   5.457  -0.345  13.438  0.0471  0.0348  0.1098
  233DOPE   D2B 2733   5.603  -0.566  13.856 -0.0269 -0.0808  0.0044
  233DOPE   C3B 2734   5.903  -0.936  13.961 -0.1804  0.2130  0.1492
  233DOPE   C4B 2735   6.217  -1.232  14.121  0.2953  0.1649 -0.3375
  234DOPC   NC3 2736   8.749   4.364  12.211  0.1190  0.2116  0.0535
  234DOPC   PO4 2737   8.402   4.316  11.995 -0.1627  0.2514 -0.0987
  234DOPC   GL1 2738   8.488   3.999  12.316 -0.0166 -0.0165 -0.1415
  234DOPC   GL2 2739   8.521   4.053  12.593  0.0249 -0.2278  0.1091
  234DOPC   C1A 2740   8.646   3.591  12.179  0.1357 -0.1788 -0.0636
  234DOPC   D2A 2741   9.023   3.247  12.010  0.2516 -0.1217 -0.3066
  234DOPC   C3A 2742   8.619   3.008  12.017  0.2956  0.3575 -0.2757
  234DOPC   C4A 2743   8.252   2.706  11.933  0.1135 -0.0860 -0.1453
  234DOPC   C1B 2744   8.647   3.711  12.921  0.1423  0.0905 -0.0611
  234DOPC   D2B 2745   8.771   3.447  13.274 -0.2837  0.0325  0.0476
  234DOPC   C3B 2746   9.115   3.536  13.627  0.3749 -0.1368  0.0249
  234DOPC   C4B 2747   9.205   3.770  14.007 -0.1044 -0.2402  0.3543
  235DOPE   NH3 2748  11.358   0.832  11.519  0.0431  0.1424  0.0127
  235DOPE   PO4 2749  11.565   0.691  11.321  0.3365  0.0198  0.0161
  235DOPE   GL1 2750  11.765   0.842  11.805 -0.3788 -0.2094 -0.0455
  235DOPE   GL2 2751  11.588   0.847  12.003  0.2653 -0.2134  0.0159
  235DOPE   C1A 2752  12.053   1.013  12.107 -0.0351 -0.1597 -0.1013
  235DOPE   D2A 2753  12.108   1.281  12.514 -0.0584  0.0818 -0.1173
  235DOPE   C3A 2754  12.385   1.295  12.846  0.3026 -0.1530  0.2482
  235DOPE   C4A 2755  12.380   1.031  13.254 -0.0755 -0.0007 -0.3155
  235DOPE   C1B 2756  11.642   0.730  12.479 -0.1991  0.1201  0.1578
  235DOPE   D2B 2757  12.033   0.673  12.721  0.2012  0.0139 -0.0498
  235DOPE   C3B 2758  12.128   0.484  13.110 -0.0751  0.0151 -0.0985
  235DOPE   C4B 2759  12.039   0.279  13.489  0.1412  0.1068  0.0876
  236POSM   NC3 2760   1.293   4.233  12.289 -0.2240  0.0759 -0.1284
  236POSM   PO4 2761   0.967   4.047  12.476  0.0369 -0.2114  0.2743
  236POSM   AM1 2762   1.112   4.114  12.758 -0.2297  0.1066  0.0460
  236POSM   AM2 2763   1.334   4.319  12.773  0.0870  0.2309  0.1615
  236POSM   T1A 2764   1.437   4.011  13.083 -0.0728  0.0459 -0.1138
  236POSM   C2A 2765   1.611   4.281  13.400  0.1183  0.0015  0.1050
  236POSM   C3A 2766   1.917   4.507  13.612  0.0135  0.1733  0.1836
  236POSM   C1B 2767   1.235   4.512  13.082 -0.2210  0.0796  0.1644
  236POSM   D2B 2768   1.299   4.752  13.422 -0.4484  0.1127  0.0948
  236POSM   C3B 2769   1.522   4.750  13.833 -0.0347 -0.1796  0.0846
  236POSM   C4B 2770   1.868   4.703  14.086  0.0819  0.0464 -0.1576
  237DOPC   NC3 2771   7.080   7.785  12.362 -0.1681 -0.2869  0.2380
  237DOPC   PO4 2772   6.908   7.583  12.621  0.1518 -0.1634  0.2606
  237DOPC   GL1 2773   6.987   7.483  12.981 -0.0380  0.1238 -0.0205
  237DOPC   GL2 2774   6.993   7.182  12.957 -0.1061 -0.1019  0.0740
  237DOPC   C1A 2775   6.835   7.413  13.401  0.1331  0.1756  0.2909
  237DOPC   D2A 2776   6.721   7.438  13.863  0.0282 -0.0670  0.1321
  237DOPC   C3A 2777   6.395   7.786  14.003 -0.5889 -0.0703 -0.3849
  237DOPC   C4A 2778   5.947   7.985  14.007  0.3115  0.2082  0.0678
  237DOPC   C1B 2779   7.320   7.284  13.258 -0.0578  0.0177  0.5009
  237DOPC   D2B 2780   7.578   7.050  13.483  0.0945 -0.1970  0.0528
  237DOPC   C3B 2781   7.745   7.431  13.616 -0.0333 -0.0342 -0.3649
  237DOPC   C4B 2782   8.209   7.540  13.553 -0.1413  0.1764  0.0569
  238POSM   NC3 2783   8.154   1.474  11.813  0.1295 -0.0036 -0.2936
  238POSM   PO4 2784   7.741   1.375  11.876 -0.3094 -0.0260 -0.0335
  238POSM   AM1 2785   7.849   1.453  12.167  0.0665 -0.3408  0.0681
  238POSM   AM2 2786   7.815   1.376  12.443  0.1689  0.0111 -0.0516
  238POSM   T1A 2787   8.256   1.410  12.445 -0.1498 -0.1062  0.0408
  238POSM   C2A 2788   8.425   1.594  12.849  0.0212  0.2213  0.1218
  238POSM   C3A 2789   8.503   1.620  13.301  0.2230  0.2474 -0.0693
  238POSM   C1B 2790   7.873   1.459  12.745  0.0205 -0.4800  0.1720
  238POSM   D2B 2791   8.010   1.567  13.185  0.1241  0.1542 -0.0720
  238POSM   C3B 2792   7.811   1.729  13.555 -0.2722 -0.4249 -0.0386
  238POSM   C4B 2793   7.772   1.938  13.949  0.1713  0.1241 -0.5076
  239POSM   NC3 2794   2.293   7.704  12.560  0.2506 -0.1048  0.0627
  239POSM   PO4 2795   2.382   7.292  12.619  0.0560  0.1075 -0.0472
  239POSM   AM1 2796   2.051   7.119  12.610 -0.1199 -0.3159  0.3074
  239POSM   AM2 2797   1.812   7.187  12.741 -0.0873  0.0065 -0.0609
  239POSM   T1A 2798   1.672   6.889  12.360 -0.1515 -0.0856 -0.2762
  239POSM   C2A 2799   1.214   6.877  12.359 -0.0962  0.0067  0.1850
  239POSM   C3A 2800   0.847   6.648  12.352  0.1285 -0.0162 -0.1527
  239POSM   C1B 2801   1.445   7.211  12.706 -0.0164 -0.2031 -0.0117
  239POSM   D2B 2802   1.034   7.053  12.878  0.2720  0.1990 -0.1328
  239POSM   C3B 2803   0.856   6.858  13.328 -0.0017  0.4035  0.0271
  239POSM   C4B 2804   0.881   6.749  13.812 -0.1454 -0.0154  0.1405
  240DOPC   NC3 2805   5.554   2.025  12.252  0.1311 -0.3951 -0.1819
  240DOPC   PO4 2806   5.642   2.160  12.624  0.2638 -0.0156  0.0648
  240DOPC   GL1 2807   5.469   2.138  12.928 -0.1066 -0.1329 -0.0228
  240DOPC   GL2 2808   5.664   2.264  13.149 -0.1805 -0.0592 -0.1698
  240DOPC   C1A 2809   5.050   2.037  13.142 -0.1146 -0.3280 -0.2249
  240DOPC   D2A 2810   5.041   1.709  13.468  0.2590  0.1714 -0.0672
  240DOPC   C3A 2811   4.686   1.690  13.779 -0.1617  0.3079  0.1405
  240DOPC   C4A 2812   4.243   1.557  13.906  0.1995 -0.1777 -0.1047
  240DOPC   C1B 2813   5.368   2.342  13.513 -0.0212  0.1588  0.1939
  240DOPC   D2B 2814   5.291   2.458  14.001  0.0623 -0.0154 -0.1946
  240DOPC   C3B 2815   5.120   2.103  14.192  0.0466 -0.1308 -0.0411
  240DOPC   C4B 2816   4.757   1.817  14.258  0.0668  0.0696 -0.1102
  241DOPE   NH3 2817   3.263   0.332  12.554 -0.2212  0.1707  0.0168
  241DOPE   PO4 2818   3.064   0.580  12.576  0.1311 -0.0629 -0.0149
  241DOPE   GL1 2819   3.253   0.892  12.828  0.0171  0.2581  0.3047
  241DOPE   GL2 2820   3.294   1.161  12.625  0.0506 -0.0169  0.2384
  241DOPE   C1A 2821   3.129   1.295  13.081 -0.3462 -0.1257 -0.0799
  241DOPE   D2A 2822   3.480   1.620  13.122  0.0790  0.0012 -0.1394
  241DOPE   C3A 2823   3.708   1.549  12.716 -0.1437  0.1396 -0.1996
  241DOPE   C4A 2824   3.755   1.209  12.354  0.0123 -0.0761  0.1452
  241DOPE   C1B 2825   3.207   1.591  12.632 -0.1837 -0.1972 -0.0872
  241DOPE   D2B 2826   3.237   2.022  12.754  0.1993  0.0260 -0.0763
  241DOPE   C3B 2827   3.311   2.168  13.204 -0.2247 -0.1091  0.0443
  241DOPE   C4B 2828   3.729   2.124  13.479  0.4103  0.0036  0.1005
  242POSM   NC3 2829   3.018  11.280  12.801  0.0366 -0.0647 -0.1476
  242POSM   PO4 2830   3.303  11.491  12.671  0.1324  0.4438  0.0162
  242POSM   AM1 2831   3.241  11.695  12.936  0.0830 -0.0554  0.2604
  242POSM   AM2 2832   3.002  11.693  13.080 -0.0129 -0.5092  0.0121
  242POSM   T1A 2833   3.442  11.748  13.414 -0.5380 -0.0357 -0.1499
  242POSM   C2A 2834   3.619  11.843  13.817  0.2551 -0.1268  0.2270
  242POSM   C3A 2835   3.929  11.784  14.129 -0.2327 -0.4029  0.2417
  242POSM   C1B 2836   2.801  11.575  13.334 -0.2372 -0.0870  0.2334
  242POSM   D2B 2837   2.630  11.298  13.649  0.1746  0.1224  0.2080
  242POSM   C3B 2838   2.305  11.563  13.849 -0.0772  0.2742  0.1328
  242POSM   C4B 2839   1.849  11.644  13.988 -0.0126  0.2934  0.1465
  243POSM   NC3 2840   3.647   2.401  12.551  0.0232 -0.2916 -0.0352
  243POSM   PO4 2841   3.734   2.799  12.602 -0.0004 -0.2668 -0.1290
  243POSM   AM1 2842   3.712   2.663  12.894  0.5068 -0.2304  0.5496
  243POSM   AM2 2843   3.502   2.583  13.055 -0.1647  0.2370  0.2475
  243POSM   T1A 2844   3.907   2.552  13.334 -0.3853  0.2190 -0.0573
  243POSM   C2A 2845   4.187   2.326  13.640 -0.2591  0.0797  0.0438
  243POSM   C3A 2846   4.378   2.034  13.952  0.2080  0.3057  0.0798
  243POSM   C1B 2847   3.234   2.705  13.240  0.0683 -0.1503 -0.1313
  243POSM   D2B 2848   2.797   2.606  13.289  0.1844  0.0170 -0.0990
  243POSM   C3B 2849   2.653   3.050  13.365  0.0184 -0.1219  0.0239
  243POSM   C4B 2850   2.712   3.447  13.585 -0.1246  0.0167 -0.0326
  244DOPS   CNO 2851   8.058   6.218  12.734 -0.0341 -0.0214  0.2314
  244DOPS   PO4 2852   7.854   6.477  12.551  0.3870 -0.2828 -0.5809
  244DOPS   GL1 2853   7.745   6.507  12.934  0.0681 -0.0251 -0.0027
  244DOPS   GL2 2854   7.601   6.206  13.071  0.0301  0.0745 -0.0685
  244DOPS   C1A 2855   7.828   6.674  13.353 -0.0056  0.1244 -0.2668
  244DOPS   D2A 2856   7.750   6.602  13.801 -0.1176  0.0814  0.2093
  244DOPS   C3A 2857   7.835   6.253  14.079  0.0388  0.1974 -0.0728
  244DOPS   C4A 2858   7.881   6.077  14.520 -0.3884  0.0032 -0.3278
  244DOPS   C1B 2859   7.304   6.277  13.453  0.0161 -0.0279  0.2586
  244DOPS   D2B 2860   6.906   6.059  13.606  0.0800  0.0882  0.3098
  244DOPS   C3B 2861   6.689   5.734  13.393  0.2650  0.1257  0.1327
  244DOPS   C4B 2862   6.377   5.408  13.387 -0.1313  0.0160 -0.0627
  245DOPC   NC3 2863   2.878  10.785  12.315 -0.5036  0.0930  0.1147
  245DOPC   PO4 2864   3.122  10.490  12.383 -0.0004 -0.2670 -0.2433
  245DOPC   GL1 2865   3.148  10.133  12.413  0.1038 -0.2740 -0.0141
  245DOPC   GL2 2866   3.261   9.909  12.232  0.0965 -0.1572 -0.0445
  245DOPC   C1A 2867   2.762   9.837  12.454  0.1856  0.0450  0.0503
  245DOPC   D2A 2868   2.527   9.668  12.840 -0.1495  0.3847 -0.3619
  245DOPC   C3A 2869   2.217   9.497  13.112  0.1633  0.0640  0.1999
  245DOPC   C4A 2870   2.037   9.449  13.531  0.1060 -0.1994 -0.1324
  245DOPC   C1B 2871   3.033   9.470  12.397 -0.1895  0.2796  0.0986
  245DOPC   D2B 2872   2.921   9.132  12.692  0.2145 -0.2758  0.0741
  245DOPC   C3B 2873   2.520   9.162  12.905 -0.0563  0.3336  0.0488
  245DOPC   C4B 2874   2.094   9.205  12.712  0.2458  0.0688  0.1189
  246POSM   NC3 2875  33.708   5.681  12.638  0.1816  0.1517  0.1524
  246POSM   PO4 2876  33.937   5.769  12.360  0.2093  0.0464  0.1237
  246POSM   AM1 2877  34.195   5.936  12.506  0.2795  0.0617 -0.1361
  246POSM   AM2 2878  34.238   5.919  12.803  0.0329  0.1009 -0.2029
  246POSM   T1A 2879  34.650   6.131  12.650 -0.0565 -0.0620 -0.2964
  246POSM   C2A 2880  34.980   6.209  12.921  0.0032 -0.0954 -0.0600
  246POSM   C3A 2881  35.176   5.852  13.166  0.2118 -0.2333 -0.0896
  246POSM   C1B 2882  34.408   5.720  13.018  0.2488  0.1769  0.0386
  246POSM   D2B 2883  34.747   5.564  13.282  0.0940  0.0188  0.2244
  246POSM   C3B 2884  34.909   5.127  13.271 -0.4856 -0.0585 -0.2361
  246POSM   C4B 2885  35.063   4.688  13.309 -0.1274  0.0386 -0.0283
  247DOPE   NH3 2886   5.909   3.143  13.156  0.0510  0.2035 -0.1921
  247DOPE   PO4 2887   5.670   3.263  12.983 -0.0489  0.1018  0.2124
  247DOPE   GL1 2888   5.710   3.392  13.454  0.1060 -0.1540 -0.0023
  247DOPE   GL2 2889   5.535   3.188  13.499  0.2692  0.0201 -0.0796
  247DOPE   C1A 2890   5.945   3.607  13.775  0.4938 -0.0698 -0.5193
  247DOPE   D2A 2891   5.958   4.016  13.933 -0.1087 -0.0121  0.0126
  247DOPE   C3A 2892   5.966   4.158  14.379  0.2986  0.2407 -0.0199
  247DOPE   C4A 2893   6.118   4.153  14.785 -0.0820  0.1183 -0.1584
  247DOPE   C1B 2894   5.617   3.265  13.961 -0.1283 -0.2803 -0.1252
  247DOPE   D2B 2895   6.017   3.216  14.251  0.2874 -0.1176 -0.0673
  247DOPE   C3B 2896   6.198   3.682  14.304 -0.1238 -0.0488 -0.0501
  247DOPE   C4B 2897   6.415   3.953  14.048 -0.4279  0.0104 -0.1151
  248POSM   NC3 2898   1.751   7.746  12.901  0.0922 -0.2427  0.0429
  248POSM   PO4 2899   1.691   7.763  12.510 -0.0024 -0.1631 -0.1356
  248POSM   AM1 2900   1.371   7.757  12.626 -0.1237 -0.1769 -0.0716
  248POSM   AM2 2901   1.236   7.818  12.872 -0.7126  0.0773 -0.0035
  248POSM   T1A 2902   0.943   7.520  12.646 -0.0512  0.0021 -0.0127
  248POSM   C2A 2903   0.665   7.136  12.592 -0.1843  0.3021  0.0527
  248POSM   C3A 2904   0.314   7.087  12.280 -0.1580 -0.0100  0.4357
  248POSM   C1B 2905   0.969   7.965  12.952  0.1357  0.2533 -0.2074
  248POSM   D2B 2906   0.743   8.326  13.144 -0.1170  0.0215 -0.0386
  248POSM   C3B 2907   0.716   8.479  13.588 -0.2298  0.0923  0.1960
  248POSM   C4B 2908   0.890   8.832  13.740 -0.2495 -0.1334 -0.3631
  249POSM   NC3 2909   3.702   7.526  12.500 -0.1305  0.2609 -0.1830
  249POSM   PO4 2910   3.644   7.354  12.876  0.1371  0.0187  0.0103
  249POSM   AM1 2911   3.552   7.537  13.095 -0.1010  0.3586 -0.0868
  249POSM   AM2 2912   3.554   7.859  13.079 -0.0451 -0.2256 -0.0919
  249POSM   T1A 2913   3.382   7.463  13.568  0.2576  0.4331  0.3375
  249POSM   C2A 2914   3.359   7.067  13.853  0.0489 -0.0121  0.0097
  249POSM   C3A 2915   3.545   6.647  13.983 -0.1762  0.1272 -0.0703
  249POSM   C1B 2916   3.530   8.014  13.363 -0.1498  0.0777  0.0727
  249POSM   D2B 2917   3.322   7.985  13.767 -0.1581 -0.2086  0.2426
  249POSM   C3B 2918   2.965   8.239  14.020 -0.0196 -0.0125  0.2920
  249POSM   C4B 2919   2.558   8.375  14.231  0.0787 -0.1005  0.0257
  250POSM   NC3 2920   2.446   6.259  12.340  0.1287  0.1327 -0.1357
  250POSM   PO4 2921   2.570   6.454  12.666 -0.0392  0.3320 -0.1091
  250POSM   AM1 2922   2.443   6.432  12.968 -0.2342  0.2158 -0.1408
  250POSM   AM2 2923   2.457   6.592  13.202 -0.0856 -0.2269  0.1332
  250POSM   T1A 2924   2.469   6.163  13.407  0.1655  0.3309  0.3478
  250POSM   C2A 2925   2.633   6.073  13.830 -0.0794 -0.1312  0.1835
  250POSM   C3A 2926   2.589   5.868  14.242  0.1076 -0.2542  0.0237
  250POSM   C1B 2927   2.140   6.661  13.356  0.0669  0.1554 -0.2524
  250POSM   D2B 2928   2.010   6.802  13.768  0.0084  0.1249 -0.0824
  250POSM   C3B 2929   1.944   7.196  13.945 -0.0076  0.1212  0.0577
  250POSM   C4B 2930   1.547   7.364  14.178  0.1644  0.2042  0.1330
  251DOPS   CNO 2931   8.606   4.833  12.052 -0.0658 -0.1923 -0.1282
  251DOPS   PO4 2932   8.979   4.728  11.998  0.2999  0.2824  0.1447
  251DOPS   GL1 2933   9.160   4.618  12.385 -0.2302 -0.0079  0.2406
  251DOPS   GL2 2934   9.419   4.493  12.221  0.0440  0.1525 -0.1328
  251DOPS   C1A 2935   9.234   4.222  12.680 -0.0960 -0.0918 -0.2920
  251DOPS   D2A 2936   9.654   4.050  12.830  0.1038  0.1466  0.2928
  251DOPS   C3A 2937   9.888   4.360  13.024  0.1699 -0.1127  0.0575
  251DOPS   C4A 2938  10.055   4.407  13.467  0.0299 -0.2596  0.0501
  251DOPS   C1B 2939   9.477   4.690  12.650  0.2458  0.1129 -0.1737
  251DOPS   D2B 2940   9.330   4.595  13.073  0.0353  0.1102 -0.1332
  251DOPS   C3B 2941   9.293   4.106  13.254 -0.0562  0.2710  0.2002
  251DOPS   C4B 2942   8.911   3.918  13.428  0.0379  0.0222  0.1785
  252POSM   NC3 2943   6.554   0.708  12.262  0.3736 -0.1072 -0.3081
  252POSM   PO4 2944   6.618   1.105  12.256 -0.1588  0.0568  0.2479
  252POSM   AM1 2945   6.663   1.017  12.583  0.1329 -0.1128  0.1371
  252POSM   AM2 2946   6.612   0.835  12.796 -0.0303 -0.0658  0.1299
  252POSM   T1A 2947   6.519   1.249  13.036 -0.0797  0.2100 -0.2024
  252POSM   C2A 2948   6.402   1.576  13.304 -0.3242 -0.4630 -0.0308
  252POSM   C3A 2949   6.197   1.726  13.716 -0.1679 -0.0395 -0.0819
  252POSM   C1B 2950   6.505   0.763  13.091 -0.2389 -0.1536  0.4773
  252POSM   D2B 2951   6.519   0.726  13.529 -0.2656 -0.2866  0.2017
  252POSM   C3B 2952   6.148   0.745  13.748 -0.1876 -0.1617 -0.0726
  252POSM   C4B 2953   5.687   0.889  13.771 -0.0172  0.0193 -0.1476
  253DOPE   NH3 2954  10.979   2.877  11.564  0.1366 -0.1098 -0.2772
  253DOPE   PO4 2955  11.003   2.936  11.257  0.0052 -0.3457 -0.0031
  253DOPE   GL1 2956  10.733   3.251  11.429  0.0220  0.3742 -0.2917
  253DOPE   GL2 2957  10.779   3.495  11.351 -0.0008  0.2192  0.1898
  253DOPE   C1A 2958  10.283   3.326  11.529 -0.1737  0.0805  0.1895
  253DOPE   D2A 2959  10.029   3.389  11.955  0.0610  0.0863 -0.1405
  253DOPE   C3A 2960  10.140   3.564  12.360  0.0011 -0.2577  0.2245
  253DOPE   C4A 2961  10.193   4.020  12.561  0.0072 -0.3081  0.1174
  253DOPE   C1B 2962  10.715   3.813  11.689 -0.0426 -0.0442  0.2627
  253DOPE   D2B 2963  10.525   3.868  12.134 -0.0804 -0.0793  0.0253
  253DOPE   C3B 2964  10.134   4.126  12.058 -0.1187 -0.1051 -0.0448
  253DOPE   C4B 2965   9.761   4.128  12.334 -0.0174 -0.0279  0.2850
  254DOPE   NH3 2966  10.809  10.814  12.481 -0.1390  0.0604 -0.3109
  254DOPE   PO4 2967  10.650  10.570  12.375  0.1011 -0.3993 -0.2046
  254DOPE   GL1 2968  10.454  10.564  12.611 -0.1721  0.2661  0.1321
  254DOPE   GL2 2969  10.164  10.641  12.469  0.1019  0.0068 -0.0813
  254DOPE   C1A 2970  10.201  10.497  13.005  0.2286 -0.2722  0.0528
  254DOPE   D2A 2971  10.049  10.479  13.410  0.1002 -0.0284 -0.0706
  254DOPE   C3A 2972  10.322  10.374  13.749 -0.0008  0.2466 -0.1097
  254DOPE   C4A 2973  10.534  10.093  14.024  0.1482  0.2199  0.2934
  254DOPE   C1B 2974   9.922  10.259  12.629  0.1348  0.2064  0.0687
  254DOPE   D2B 2975  10.038  10.045  12.997  0.0908 -0.0271  0.3082
  254DOPE   C3B 2976  10.032   9.604  13.206 -0.4705  0.1062  0.1387
  254DOPE   C4B 2977  10.295   9.214  12.991 -0.2669  0.2789  0.4274
  255DOPE   NH3 2978   4.495   7.921  12.653 -0.0487 -0.1120 -0.1492
  255DOPE   PO4 2979   4.724   7.802  12.492 -0.4969 -0.0437 -0.0240
  255DOPE   GL1 2980   4.805   7.569  12.897 -0.0014  0.0751 -0.2902
  255DOPE   GL2 2981   4.921   7.407  12.737  0.2628  0.1189  0.0624
  255DOPE   C1A 2982   4.490   7.588  13.235  0.1959  0.0997 -0.2194
  255DOPE   D2A 2983   4.588   7.517  13.664  0.0903 -0.1590 -0.0503
  255DOPE   C3A 2984   4.572   7.415  14.119 -0.0389  0.0410 -0.2415
  255DOPE   C4A 2985   4.538   7.760  14.434  0.1459 -0.1876  0.0351
  255DOPE   C1B 2986   5.259   7.356  12.420 -0.1263  0.3032 -0.0546
  255DOPE   D2B 2987   5.692   7.494  12.506  0.0003  0.0751 -0.2343
  255DOPE   C3B 2988   5.946   7.292  12.850  0.0697 -0.1046 -0.0318
  255DOPE   C4B 2989   6.007   7.014  13.249 -0.0709  0.0082 -0.1173
  256DOPE   NH3 2990   0.515   3.164  12.827  0.1640 -0.0899  0.0816
  256DOPE   PO4 2991   0.398   2.998  12.612  0.1750 -0.4964  0.0203
  256DOPE   GL1 2992   0.567   2.636  12.691 -0.1168 -0.2795 -0.1644
  256DOPE   GL2 2993   0.487   2.524  12.424  0.0392  0.2232 -0.0552
  256DOPE   C1A 2994   0.844   2.292  12.717  0.0446  0.1526  0.1040
  256DOPE   D2A 2995   1.259   2.212  12.951  0.1003 -0.0620  0.1228
  256DOPE   C3A 2996   1.639   2.341  13.096 -0.0318 -0.1499 -0.1369
  256DOPE   C4A 2997   1.944   2.150  13.350  0.0753 -0.1941 -0.0738
  256DOPE   C1B 2998   0.626   2.044  12.313 -0.0937 -0.1848 -0.0369
  256DOPE   D2B 2999   0.678   1.738  12.606  0.5377  0.0364 -0.2203
  256DOPE   C3B 3000   0.546   1.602  13.028  0.1933  0.1932 -0.1937
  256DOPE   C4B 3001   0.204   1.437  13.327  0.1967  0.1563 -0.1602
  257POSM   NC3 3002   0.608   3.091  12.201  0.1488  0.3912  0.0589
  257POSM   PO4 3003   0.961   2.943  12.426 -0.0817  0.1147  0.3693
  257POSM   AM1 3004   0.911   2.927  12.759  0.0999  0.2462 -0.3277
  257POSM   AM2 3005   1.023   3.123  12.936 -0.1812  0.4053 -0.0115
  257POSM   T1A 3006   0.820   2.599  13.188 -0.0068 -0.0261  0.3363
  257POSM   C2A 3007   0.748   2.624  13.646 -0.1175 -0.1590  0.0251
  257POSM   C3A 3008   0.451   2.691  14.038  0.0264 -0.0516  0.1036
  257POSM   C1B 3009   1.207   2.886  13.097 -0.0234 -0.3139  0.1455
  257POSM   D2B 3010   1.585   2.763  13.327  0.2976 -0.1200  0.1899
  257POSM   C3B 3011   1.498   2.464  13.611  0.0223  0.0337  0.0850
  257POSM   C4B 3012   1.158   2.366  13.972  0.2883  0.0812  0.2442
  258DOPC   NC3 3013  11.497   9.185  12.443  0.2826 -0.1696  0.1821
  258DOPC   PO4 3014  11.187   9.278  12.195 -0.3532  0.1274  0.0295
  258DOPC   GL1 3015  10.788   9.274  12.177  0.2276  0.0750 -0.1893
  258DOPC   GL2 3016  10.679   9.543  12.223  0.1963 -0.1582 -0.1328
  258DOPC   C1A 3017  10.609   9.116  12.574 -0.2125  0.0171 -0.0371
  258DOPC   D2A 3018  10.460   8.746  12.851 -0.3332 -0.1041  0.0797
  258DOPC   C3A 3019  10.740   8.523  13.106 -0.1390 -0.0960 -0.2505
  258DOPC   C4A 3020  10.933   8.725  13.460 -0.1001 -0.0568  0.0144
  258DOPC   C1B 3021  10.243   9.636  12.453  0.0139 -0.4301 -0.0789
  258DOPC   D2B 3022   9.779   9.554  12.354  0.0975 -0.1209 -0.0599
  258DOPC   C3B 3023   9.718   9.827  11.977  0.1987  0.2202 -0.0574
  258DOPC   C4B 3024   9.985  10.180  12.049  0.3025  0.3038 -0.1345
  259DOPC   NC3 3025   6.589  10.702  12.410 -0.0071  0.0948  0.1620
  259DOPC   PO4 3026   6.523  10.354  12.618  0.0863 -0.2459  0.0443
  259DOPC   GL1 3027   6.219  10.142  12.866  0.0799 -0.1978 -0.1949
  259DOPC   GL2 3028   6.434   9.898  12.827  0.0981  0.3049  0.0842
  259DOPC   C1A 3029   5.925   9.931  13.151 -0.3359  0.0539 -0.1550
  259DOPC   D2A 3030   5.689   9.896  13.557  0.0572 -0.0086  0.1598
  259DOPC   C3A 3031   5.444  10.214  13.740 -0.0761  0.0647  0.1948
  259DOPC   C4A 3032   5.196  10.346  14.091  0.2679  0.1577  0.2241
  259DOPC   C1B 3033   6.409   9.681  13.269 -0.1794  0.0069  0.1588
  259DOPC   D2B 3034   6.618   9.603  13.688 -0.1354 -0.0293 -0.2106
  259DOPC   C3B 3035   6.701   9.198  13.914  0.1868 -0.1817  0.2323
  259DOPC   C4B 3036   7.049   8.996  14.126 -0.1198 -0.1729 -0.0682
  260POSM   NC3 3037   2.728   5.366  12.403  0.1918  0.1617  0.2242
  260POSM   PO4 3038   2.358   5.401  12.508  0.3030 -0.0329 -0.2351
  260POSM   AM1 3039   2.246   5.456  12.788  0.2726 -0.4614 -0.1305
  260POSM   AM2 3040   2.193   5.409  13.061  0.0764 -0.0198 -0.1971
  260POSM   T1A 3041   1.866   5.768  12.985  0.2030  0.0183 -0.1625
  260POSM   C2A 3042   1.478   5.709  13.264 -0.1616  0.1789  0.1189
  260POSM   C3A 3043   1.023   5.798  13.350 -0.1016 -0.0926 -0.3225
  260POSM   C1B 3044   1.983   5.360  13.289 -0.0061  0.0056 -0.1896
  260POSM   D2B 3045   1.785   5.610  13.638  0.2071 -0.0056 -0.1200
  260POSM   C3B 3046   1.435   5.719  13.887  0.1907 -0.2083 -0.2947
  260POSM   C4B 3047   1.018   5.752  14.087  0.0771  0.0505  0.0090
  261POSM   NC3 3048   8.541   6.688  13.152  0.0711 -0.0484 -0.2052
  261POSM   PO4 3049   8.505   6.390  12.929  0.0783  0.0971 -0.1212
  261POSM   AM1 3050   8.681   6.255  13.150 -0.1248 -0.0439 -0.2338
  261POSM   AM2 3051   8.921   6.356  13.241  0.2430  0.1000 -0.3422
  261POSM   T1A 3052   8.855   5.845  13.435  0.0365  0.0745  0.2946
  261POSM   C2A 3053   8.945   5.413  13.360  0.0320 -0.0620 -0.0886
  261POSM   C3A 3054   9.078   4.985  13.304  0.0578 -0.0089 -0.2184
  261POSM   C1B 3055   8.782   6.386  13.590  0.0282 -0.0951  0.1939
  261POSM   D2B 3056   8.687   6.471  14.000 -0.2133 -0.3393  0.3728
  261POSM   C3B 3057   8.873   6.256  14.381 -0.0265 -0.0829 -0.1346
  261POSM   C4B 3058   8.629   5.925  14.648  0.0909 -0.2355  0.1441
  262DOPS   CNO 3059   7.073   1.933  12.204  0.1290  0.2316 -0.2539
  262DOPS   PO4 3060   7.361   1.715  12.026  0.0943  0.2916 -0.0664
  262DOPS   GL1 3061   7.664   1.946  12.026  0.1557  0.2478  0.2531
  262DOPS   GL2 3062   7.921   1.879  11.946  0.0893 -0.0159 -0.0321
  262DOPS   C1A 3063   7.919   2.339  12.128  0.2892  0.2177 -0.2842
  262DOPS   D2A 3064   7.808   2.767  12.177 -0.0784  0.0364  0.2704
  262DOPS   C3A 3065   7.599   2.776  12.622 -0.0972 -0.1897  0.1249
  262DOPS   C4A 3066   7.542   2.522  12.997  0.2206 -0.1234 -0.0079
  262DOPS   C1B 3067   8.263   2.117  11.769 -0.1757 -0.0811  0.1591
  262DOPS   D2B 3068   8.720   2.109  11.711 -0.2535  0.1020  0.3148
  262DOPS   C3B 3069   8.841   2.499  11.821  0.1682 -0.0174  0.0949
  262DOPS   C4B 3070   9.245   2.769  11.749  0.0403 -0.0640 -0.2204
  263DOPE   NH3 3071   7.977   7.142  12.012  0.1664  0.0349 -0.2319
  263DOPE   PO4 3072   8.125   7.384  12.164  0.0921 -0.4100 -0.2063
  263DOPE   GL1 3073   8.259   7.632  12.476 -0.2162  0.1747  0.1886
  263DOPE   GL2 3074   8.038   7.960  12.348  0.0940 -0.0621  0.2527
  263DOPE   C1A 3075   8.356   7.942  12.787 -0.1436  0.1106  0.0715
  263DOPE   D2A 3076   8.650   8.106  13.079 -0.0203 -0.1086  0.2234
  263DOPE   C3A 3077   8.345   8.142  13.383  0.1915 -0.0455 -0.2453
  263DOPE   C4A 3078   8.342   7.985  13.852  0.2615 -0.3325  0.1967
  263DOPE   C1B 3079   8.316   8.170  12.008 -0.2607  0.4310 -0.0052
  263DOPE   D2B 3080   8.569   8.617  12.064  0.0396 -0.1754 -0.0340
  263DOPE   C3B 3081   8.733   8.884  12.356 -0.0077  0.3827 -0.1240
  263DOPE   C4B 3082   8.836   9.350  12.479  0.1779  0.0464  0.0879
  264DOPC   NC3 3083   7.144   5.456  12.382  0.0701  0.2957  0.0469
  264DOPC   PO4 3084   7.426   5.382  12.649  0.0949 -0.1632  0.0553
  264DOPC   GL1 3085   7.325   5.030  12.821  0.1582  0.3164  0.1061
  264DOPC   GL2 3086   7.072   4.983  12.665  0.1522 -0.3024 -0.1950
  264DOPC   C1A 3087   7.131   4.759  13.150 -0.0717  0.0515 -0.0215
  264DOPC   D2A 3088   7.077   4.348  13.398 -0.1883  0.0389 -0.0044
  264DOPC   C3A 3089   7.411   4.120  13.554 -0.0916 -0.0630 -0.1651
  264DOPC   C4A 3090   7.703   3.903  13.831 -0.4513  0.0321  0.0818
  264DOPC   C1B 3091   6.643   4.923  12.902  0.1198  0.1648 -0.0327
  264DOPC   D2B 3092   6.229   4.999  13.172  0.2154  0.1950 -0.2125
  264DOPC   C3B 3093   5.862   5.141  12.956 -0.0842 -0.3550 -0.0640
  264DOPC   C4B 3094   5.434   5.323  12.993  0.0435 -0.3244 -0.0243
  265DOPC   NC3 3095   4.930   8.508  12.208  0.1523  0.1732  0.0881
  265DOPC   PO4 3096   4.860   8.300  12.553 -0.1443  0.3306  0.1679
  265DOPC   GL1 3097   5.035   8.025  12.754  0.0062 -0.5545 -0.3079
  265DOPC   GL2 3098   5.240   7.820  12.676  0.0486  0.0851 -0.1270
  265DOPC   C1A 3099   4.756   7.967  13.126 -0.2571  0.3612 -0.1688
  265DOPC   D2A 3100   4.668   8.085  13.513  0.1813 -0.3527  0.1262
  265DOPC   C3A 3101   4.940   8.256  13.857 -0.0617 -0.2231  0.3859
  265DOPC   C4A 3102   5.265   8.328  14.179 -0.0640 -0.0463  0.1697
  265DOPC   C1B 3103   5.255   7.598  13.076  0.0000 -0.0659  0.1290
  265DOPC   D2B 3104   5.399   7.140  13.185  0.2764 -0.1060  0.1430
  265DOPC   C3B 3105   5.636   6.961  13.578  0.0356 -0.3043  0.2821
  265DOPC   C4B 3106   5.977   7.172  13.809  0.0071 -0.0462  0.2421
  266DOPC   NC3 3107   4.472   9.867  12.596 -0.0048 -0.1107  0.1300
  266DOPC   PO4 3108   4.512   9.513  12.486  0.0233 -0.0058  0.0056
  266DOPC   GL1 3109   4.811   9.644  12.722 -0.2333  0.0604 -0.1134
  266DOPC   GL2 3110   4.731   9.761  12.995 -0.0523 -0.1023  0.0167
  266DOPC   C1A 3111   5.274   9.507  12.884 -0.0789 -0.0068 -0.1153
  266DOPC   D2A 3112   5.520   9.518  13.274 -0.1053 -0.0607 -0.0232
  266DOPC   C3A 3113   5.349   9.535  13.715  0.1356  0.0652 -0.1976
  266DOPC   C4A 3114   5.424   9.370  14.163  0.1512 -0.0856 -0.0560
  266DOPC   C1B 3115   5.013   9.501  13.315 -0.1522 -0.1260 -0.1400
  266DOPC   D2B 3116   4.807   9.498  13.775 -0.0006 -0.0579  0.2644
  266DOPC   C3B 3117   4.972   9.719  14.211  0.1835  0.0137 -0.1962
  266DOPC   C4B 3118   4.944  10.049  14.535  0.1303  0.0106  0.2632
  267DOPE   NH3 3119   7.457   1.155  12.181  0.1529  0.1632  0.0181
  267DOPE   PO4 3120   7.592   0.928  12.348  0.2459  0.1641 -0.1356
  267DOPE   GL1 3121   7.500   0.916  12.672  0.4609 -0.3141  0.0597
  267DOPE   GL2 3122   7.398   1.250  12.691 -0.3907 -0.1422 -0.0237
  267DOPE   C1A 3123   7.653   0.885  13.093 -0.0687  0.0328 -0.1989
  267DOPE   D2A 3124   7.713   0.729  13.508 -0.1450  0.1525 -0.2056
  267DOPE   C3A 3125   7.521   0.503  13.827  0.0122  0.0081  0.2004
  267DOPE   C4A 3126   7.389   0.100  13.778  0.0037  0.1939 -0.2022
  267DOPE   C1B 3127   7.412   1.346  13.122 -0.2430  0.1033  0.0591
  267DOPE   D2B 3128   7.622   1.268  13.502 -0.0404 -0.4438  0.0927
  267DOPE   C3B 3129   8.115   1.313  13.565  0.0885  0.3113  0.3239
  267DOPE   C4B 3130   8.217   1.699  13.808 -0.3078  0.2028 -0.1732
  268DOPC   NC3 3131  11.737   7.927  11.951  0.0456 -0.2020 -0.1439
  268DOPC   PO4 3132  11.329   7.867  11.997  0.0860 -0.1141  0.4193
  268DOPC   GL1 3133  10.947   7.949  12.156  0.1566  0.0720 -0.0233
  268DOPC   GL2 3134  10.848   7.979  11.829  0.0392  0.0028 -0.1528
  268DOPC   C1A 3135  10.800   7.934  12.563  0.1810 -0.2404 -0.0778
  268DOPC   D2A 3136  10.353   7.744  12.665 -0.2711  0.0031  0.0392
  268DOPC   C3A 3137  10.420   7.730  13.170  0.3486 -0.0439 -0.1780
  268DOPC   C4A 3138  10.573   7.771  13.613 -0.2584 -0.0407  0.1063
  268DOPC   C1B 3139  10.509   7.777  12.120 -0.0184  0.1175 -0.1860
  268DOPC   D2B 3140  10.019   7.688  12.141 -0.1284 -0.3796 -0.0300
  268DOPC   C3B 3141   9.990   8.008  12.515  0.1437 -0.4175 -0.3447
  268DOPC   C4B 3142   9.869   8.272  12.893  0.2108 -0.0881  0.1791
  269POSM   NC3 3143   1.770   4.152  12.382 -0.1199 -0.1374 -0.0004
  269POSM   PO4 3144   2.155   4.262  12.475 -0.0903  0.0522  0.2364
  269POSM   AM1 3145   2.433   4.087  12.547  0.0730 -0.1543  0.1843
  269POSM   AM2 3146   2.526   3.982  12.765 -0.0854  0.0360 -0.1387
  269POSM   T1A 3147   2.822   3.888  12.351 -0.0926  0.1097 -0.0446
  269POSM   C2A 3148   3.238   3.723  12.176  0.5535 -0.1780  0.0419
  269POSM   C3A 3149   3.637   3.757  12.088  0.1780  0.1574  0.2408
  269POSM   C1B 3150   2.746   3.719  12.848  0.0316 -0.1574  0.0119
  269POSM   D2B 3151   2.910   3.414  13.134 -0.3168 -0.2135 -0.0676
  269POSM   C3B 3152   3.250   3.532  13.420 -0.1655 -0.2668  0.0362
  269POSM   C4B 3153   3.543   3.637  13.797  0.2077  0.1059  0.0157
  270DOPS   CNO 3154   2.351  34.205  12.121  0.0614 -0.0415  0.0037
  270DOPS   PO4 3155   2.294  34.241  12.519 -0.2267 -0.0667  0.0745
  270DOPS   GL1 3156   2.593  33.952  12.532  0.0762 -0.0979 -0.2571
  270DOPS   GL2 3157   2.796  33.848  12.736  0.0587 -0.0145  0.3408
  270DOPS   C1A 3158   2.478  33.495  12.471  0.0306 -0.0367 -0.0965
  270DOPS   D2A 3159   2.428  32.994  12.562 -0.1572 -0.0395 -0.0954
  270DOPS   C3A 3160   2.324  32.652  12.871 -0.0227  0.0265  0.0447
  270DOPS   C4A 3161   1.993  32.342  12.970  0.0739 -0.0960  0.0654
  270DOPS   C1B 3162   2.931  33.449  12.663 -0.0426 -0.0322  0.0908
  270DOPS   D2B 3163   2.855  33.067  12.849 -0.0339 -0.1416 -0.2348
  270DOPS   C3B 3164   2.531  32.994  13.169 -0.1145 -0.0298 -0.6416
  270DOPS   C4B 3165   2.352  32.855  13.566 -0.0131  0.0332 -0.2940
  271DOPE   NH3 3166   2.756   6.068  12.952 -0.0073 -0.0462  0.1015
  271DOPE   PO4 3167   2.779   5.949  12.658  0.0796 -0.1926  0.1646
  271DOPE   GL1 3168   2.452   5.840  12.559 -0.0748  0.1718  0.1049
  271DOPE   GL2 3169   2.318   5.889  12.834  0.0531  0.0745  0.3144
  271DOPE   C1A 3170   1.994   5.914  12.414 -0.0707 -0.0180 -0.1414
  271DOPE   D2A 3171   1.569   5.748  12.432  0.3283  0.0547  0.3336
  271DOPE   C3A 3172   1.439   5.489  12.829 -0.1133 -0.0524 -0.0476
  271DOPE   C4A 3173   1.083   5.369  13.073  0.2068 -0.5510  0.0704
  271DOPE   C1B 3174   2.073   6.176  13.141 -0.0428  0.5086  0.1449
  271DOPE   D2B 3175   1.965   6.217  13.568  0.0381  0.0277  0.0827
  271DOPE   C3B 3176   1.623   6.562  13.499  0.0609  0.0099 -0.2052
  271DOPE   C4B 3177   1.291   6.917  13.594  0.1500 -0.0825 -0.2709
  272POSM   NC3 3178  34.363   2.660  12.086 -0.0060  0.0640 -0.0520
  272POSM   PO4 3179  34.726   2.711  12.238 -0.1336  0.7993 -0.4289
  272POSM   AM1 3180  34.704   2.466  12.454  0.2698 -0.2005 -0.1209
  272POSM   AM2 3181  34.746   2.171  12.439  0.3390 -0.0653  0.1942
  272POSM   T1A 3182  34.845   2.461  12.941  0.0698  0.2112 -0.0290
  272POSM   C2A 3183  35.054   2.803  13.159 -0.1766 -0.0224 -0.3611
  272POSM   C3A 3184  35.411   3.075  13.345 -0.2881 -0.2983  0.0878
  272POSM   C1B 3185  34.930   2.043  12.745 -0.1084 -0.0729  0.0765
  272POSM   D2B 3186  35.283   2.100  13.150  0.2766 -0.0226  0.0502
  272POSM   C3B 3187  35.215   1.897  13.566  0.1675  0.1539  0.2945
  272POSM   C4B 3188  35.303   1.678  13.951 -0.1793  0.0095  0.0891
  273DOPC   NC3 3189   5.581   5.125  12.500 -0.2314  0.1227  0.0385
  273DOPC   PO4 3190   5.894   5.125  12.273  0.2196  0.0162  0.3498
  273DOPC   GL1 3191   6.074   4.922  12.488 -0.0840  0.1479 -0.0525
  273DOPC   GL2 3192   6.229   5.081  12.698 -0.1511 -0.0169 -0.4648
  273DOPC   C1A 3193   5.957   4.659  12.873  0.1017 -0.0675 -0.1341
  273DOPC   D2A 3194   5.706   4.322  13.129  0.0317  0.0051  0.1068
  273DOPC   C3A 3195   5.248   4.446  13.151 -0.2821  0.3012 -0.0275
  273DOPC   C4A 3196   4.978   4.646  13.466  0.0992  0.0632 -0.1934
  273DOPC   C1B 3197   6.209   5.499  12.906 -0.2161  0.2594  0.0174
  273DOPC   D2B 3198   6.131   5.962  12.975  0.0014  0.3014  0.2339
  273DOPC   C3B 3199   5.812   6.179  12.613  0.0227  0.0403  0.0911
  273DOPC   C4B 3200   5.843   6.453  12.287  0.1120 -0.0849  0.0258
  274DOPS   CNO 3201   2.436   0.151  12.093  0.1426  0.0293  0.5008
  274DOPS   PO4 3202   2.667   0.205  12.393  0.0776  0.2846  0.0346
  274DOPS   GL1 3203   2.823   0.347  12.907  0.1538  0.1065  0.2113
  274DOPS   GL2 3204   3.084   0.239  13.064  0.1265 -0.1784  0.0771
  274DOPS   C1A 3205   2.936   0.730  13.186 -0.1492  0.0122  0.2401
  274DOPS   D2A 3206   2.942   0.945  13.571  0.1685  0.0297  0.0957
  274DOPS   C3A 3207   3.047   0.578  13.886  0.2022  0.1691 -0.1054
  274DOPS   C4A 3208   2.839   0.223  14.124  0.0998 -0.3515  0.1612
  274DOPS   C1B 3209   3.256   0.472  13.386 -0.1800  0.3937  0.5358
  274DOPS   D2B 3210   3.479   0.778  13.709  0.1810  0.2920  0.3639
  274DOPS   C3B 3211   3.504   0.538  14.102  0.1199  0.1522 -0.0511
  274DOPS   C4B 3212   3.711   0.309  14.465 -0.3185  0.0591 -0.2797
  275DOPC   NC3 3213   1.918   4.699  12.637 -0.0953 -0.0770  0.0756
  275DOPC   PO4 3214   1.972   5.036  12.762  0.3722 -0.1402  0.4535
  275DOPC   GL1 3215   1.691   5.019  12.938  0.1058  0.0664  0.1120
  275DOPC   GL2 3216   1.733   4.789  13.115  0.1976 -0.0499  0.1325
  275DOPC   C1A 3217   1.474   5.198  13.316  0.3652 -0.0647 -0.0661
  275DOPC   D2A 3218   1.173   5.353  13.576  0.0785  0.1171 -0.0983
  275DOPC   C3A 3219   1.016   5.277  14.003  0.1173 -0.1971  0.1650
  275DOPC   C4A 3220   1.147   4.865  14.203  0.1102  0.3946 -0.0796
  275DOPC   C1B 3221   1.783   4.385  12.980  0.1391  0.0905  0.0121
  275DOPC   D2B 3222   2.017   4.033  12.926 -0.0914 -0.0430 -0.0372
  275DOPC   C3B 3223   2.298   3.905  13.233 -0.4900 -0.0240 -0.1348
  275DOPC   C4B 3224   2.132   4.020  13.671 -0.0476 -0.0245 -0.1012
  276DOPC   NC3 3225   5.161   3.426  12.914  0.1219 -0.0652 -0.1078
  276DOPC   PO4 3226   5.198   3.069  13.008  0.1873 -0.3543 -0.0640
  276DOPC   GL1 3227   5.090   3.243  13.331 -0.0322  0.0755  0.1075
  276DOPC   GL2 3228   4.892   3.452  13.344  0.0413 -0.2545  0.0643
  276DOPC   C1A 3229   5.179   3.332  13.792 -0.1627 -0.2852 -0.1635
  276DOPC   D2A 3230   5.196   3.096  14.202  0.1461  0.0924 -0.2642
  276DOPC   C3A 3231   5.571   2.781  14.363  0.0062  0.0600  0.0708
  276DOPC   C4A 3232   6.038   2.651  14.566  0.2117 -0.1960 -0.4440
  276DOPC   C1B 3233   4.380   3.493  13.396 -0.0407 -0.0569  0.2024
  276DOPC   D2B 3234   3.985   3.822  13.545  0.1613 -0.0372  0.1920
  276DOPC   C3B 3235   3.845   4.190  13.250  0.3302  0.3384  0.0484
  276DOPC   C4B 3236   3.591   4.539  13.095 -0.1011  0.1547 -0.0444
  277DOPE   NH3 3237   6.463   2.979  12.990 -0.0428  0.2821  0.1073
  277DOPE   PO4 3238   6.557   2.735  12.888  0.0579  0.0817 -0.2506
  277DOPE   GL1 3239   6.676   2.391  13.001 -0.4072 -0.0994 -0.0419
  277DOPE   GL2 3240   6.552   2.136  13.043  0.4625 -0.2092 -0.0154
  277DOPE   C1A 3241   6.900   2.474  13.379  0.1897 -0.2148 -0.1893
  277DOPE   D2A 3242   6.693   2.852  13.620 -0.3204 -0.0926  0.2933
  277DOPE   C3A 3243   6.874   3.290  13.559 -0.1879  0.0631 -0.0203
  277DOPE   C4A 3244   7.137   3.688  13.695 -0.1804  0.0728 -0.3351
  277DOPE   C1B 3245   6.523   2.098  13.460  0.1188 -0.0587  0.0137
  277DOPE   D2B 3246   6.713   2.053  13.812 -0.1593 -0.1713  0.0499
  277DOPE   C3B 3247   6.384   2.044  14.077  0.1254 -0.2058  0.0391
  277DOPE   C4B 3248   6.142   2.117  14.444  0.2150  0.1456  0.0360
  278DOPC   NC3 3249   1.280   3.324  12.510  0.1401  0.0064 -0.1488
  278DOPC   PO4 3250   1.417   3.086  12.226  0.0036 -0.1550 -0.3404
  278DOPC   GL1 3251   1.360   2.856  12.596  0.1992  0.2356 -0.5288
  278DOPC   GL2 3252   1.586   2.967  12.732  0.1759 -0.0511  0.3107
  278DOPC   C1A 3253   1.601   2.468  12.625 -0.1287 -0.0664  0.1461
  278DOPC   D2A 3254   2.001   2.227  12.518 -0.0702 -0.3750 -0.0293
  278DOPC   C3A 3255   2.218   1.944  12.864 -0.0956 -0.2459  0.1287
  278DOPC   C4A 3256   2.266   1.740  13.272  0.3239  0.0834  0.1276
  278DOPC   C1B 3257   1.876   3.089  12.963  0.0213  0.1916 -0.0990
  278DOPC   D2B 3258   2.125   3.349  13.343 -0.1882  0.2796 -0.0705
  278DOPC   C3B 3259   2.169   3.524  13.805 -0.5038 -0.3634 -0.0500
  278DOPC   C4B 3260   2.148   3.306  14.226 -0.0684  0.0902 -0.0662
  279DOPC   NC3 3261   7.363  11.707  12.537  0.2759  0.0663  0.0865
  279DOPC   PO4 3262   6.976  11.609  12.615  0.0144 -0.0231  0.0833
  279DOPC   GL1 3263   7.137  11.468  12.997 -0.1250  0.0378  0.0646
  279DOPC   GL2 3264   7.353  11.374  12.938  0.1752  0.5300 -0.0152
  279DOPC   C1A 3265   7.072  11.267  13.397 -0.1251 -0.0476  0.2963
  279DOPC   D2A 3266   6.947  11.144  13.821 -0.0581  0.0282  0.0664
  279DOPC   C3A 3267   6.994  10.780  14.144  0.2681 -0.0847  0.2806
  279DOPC   C4A 3268   7.169  10.805  14.581 -0.1924 -0.3336  0.0657
  279DOPC   C1B 3269   7.633  11.405  13.374 -0.1574  0.0652 -0.1096
  279DOPC   D2B 3270   8.039  11.352  13.583  0.1681  0.0518  0.0239
  279DOPC   C3B 3271   7.911  11.134  13.972  0.2716 -0.0592 -0.1870
  279DOPC   C4B 3272   7.567  11.007  14.264  0.1879 -0.0051 -0.2550
  280POSM   NC3 3273   4.273  10.761  12.324  0.1349  0.3246 -0.0467
  280POSM   PO4 3274   4.423  10.397  12.353  0.1074 -0.1277  0.0286
  280POSM   AM1 3275   4.588  10.406  12.664 -0.0761 -0.3805 -0.1386
  280POSM   AM2 3276   4.822  10.582  12.743 -0.1305  0.2450 -0.4640
  280POSM   T1A 3277   4.736  10.208  13.147  0.0173  0.1061 -0.2629
  280POSM   C2A 3278   5.030  10.410  13.499 -0.0589 -0.0650  0.0518
  280POSM   C3A 3279   5.151  10.787  13.733 -0.0335 -0.4002  0.1591
  280POSM   C1B 3280   4.915  10.758  13.031 -0.0519  0.2620  0.1382
  280POSM   D2B 3281   4.885  10.979  13.422  0.2148 -0.4272  0.1203
  280POSM   C3B 3282   4.562  10.687  13.602 -0.0510  0.1884  0.0332
  280POSM   C4B 3283   4.339  10.828  14.010 -0.0651 -0.1271 -0.0671
  281DOPE   NH3 3284   5.986   3.703  12.408  0.1375 -0.0232  0.3890
  281DOPE   PO4 3285   5.707   3.587  12.534 -0.3620  0.1098 -0.0040
  281DOPE   GL1 3286   5.577   3.877  12.693  0.0150  0.1783 -0.1106
  281DOPE   GL2 3287   5.567   3.756  13.040 -0.0655  0.3492 -0.2690
  281DOPE   C1A 3288   5.509   4.391  12.614  0.1809  0.0983  0.0041
  281DOPE   D2A 3289   5.434   4.813  12.881  0.0923  0.1666  0.2089
  281DOPE   C3A 3290   5.279   4.982  13.276 -0.0750  0.0832 -0.1389
  281DOPE   C4A 3291   4.852   5.155  13.334 -0.4405  0.2506  0.1269
  281DOPE   C1B 3292   5.338   3.676  13.488 -0.1636  0.1264  0.1660
  281DOPE   D2B 3293   5.369   3.727  13.941  0.1813 -0.2139  0.1277
  281DOPE   C3B 3294   5.046   3.909  14.174 -0.0400  0.1389 -0.4944
  281DOPE   C4B 3295   5.083   4.240  14.524  0.0505  0.0400  0.1169
  282DOPS   CNO 3296   5.371   3.252  12.466 -0.2327  0.0332 -0.0043
  282DOPS   PO4 3297   4.981   3.351  12.466  0.3197 -0.3690 -0.1387
  282DOPS   GL1 3298   4.855   3.676  12.673  0.0548  0.0626  0.1026
  282DOPS   GL2 3299   5.085   3.949  12.654 -0.0711 -0.2358 -0.3313
  282DOPS   C1A 3300   4.601   3.820  13.040  0.3073  0.0067 -0.0065
  282DOPS   D2A 3301   4.501   4.087  13.402 -0.1518  0.2759 -0.1445
  282DOPS   C3A 3302   4.648   4.343  13.777  0.1507  0.4731 -0.1199
  282DOPS   C4A 3303   5.063   4.402  13.975  0.0028 -0.1514  0.0312
  282DOPS   C1B 3304   5.071   3.896  13.103 -0.3326  0.2403 -0.3268
  282DOPS   D2B 3305   5.071   4.151  13.533  0.0154  0.2343  0.0688
  282DOPS   C3B 3306   4.853   3.808  13.709 -0.0227  0.3602  0.2008
  282DOPS   C4B 3307   4.482   3.818  13.870  0.3837  0.0628  0.3192
  283DOPC   NC3 3308   3.536  10.566  12.650  0.1061  0.2511  0.1189
  283DOPC   PO4 3309   3.727  10.752  12.354  0.2157  0.0352  0.2587
  283DOPC   GL1 3310   3.863  10.868  12.721 -0.0061  0.1573 -0.1204
  283DOPC   GL2 3311   4.116  10.661  12.757 -0.0383  0.0608 -0.5257
  283DOPC   C1A 3312   3.983  11.103  13.117 -0.2142  0.2640  0.3655
  283DOPC   D2A 3313   4.339  11.352  13.312  0.0758  0.0341  0.2169
  283DOPC   C3A 3314   4.489  11.245  13.695  0.4583 -0.1659 -0.2614
  283DOPC   C4A 3315   4.649  11.343  14.120 -0.0802 -0.0504 -0.0600
  283DOPC   C1B 3316   3.865  10.605  13.142 -0.2038 -0.2963  0.1335
  283DOPC   D2B 3317   3.787  10.388  13.546 -0.0310 -0.2227 -0.0505
  283DOPC   C3B 3318   3.814  10.700  13.909  0.2374 -0.4948  0.0554
  283DOPC   C4B 3319   3.566  10.917  14.227  0.0609 -0.0429  0.1354
  284DOPE   NH3 3320   1.062   3.631  12.230 -0.2008 -0.0920  0.2611
  284DOPE   PO4 3321   0.833   3.447  12.393  0.2515 -0.3724  0.2742
  284DOPE   GL1 3322   0.881   3.486  12.773 -0.2026  0.3498 -0.1690
  284DOPE   GL2 3323   1.111   3.656  12.796 -0.2561 -0.1451 -0.0344
  284DOPE   C1A 3324   0.657   3.622  13.151 -0.0476 -0.1878  0.1344
  284DOPE   D2A 3325   0.482   3.989  13.380 -0.0231  0.0968  0.3328
  284DOPE   C3A 3326   0.555   4.304  13.720 -0.0582  0.3242 -0.3075
  284DOPE   C4A 3327   0.849   4.449  14.050  0.0013  0.0235  0.2739
  284DOPE   C1B 3328   1.142   3.539  13.278 -0.2383  0.0400  0.1747
  284DOPE   D2B 3329   0.924   3.387  13.696 -0.0913 -0.3724  0.0335
  284DOPE   C3B 3330   0.483   3.474  13.691  0.2038  0.0855  0.0214
  284DOPE   C4B 3331   0.221   3.914  13.753  0.1016  0.0279 -0.1403
  285DOPE   NH3 3332   6.994   6.275  12.210 -0.1735 -0.1805 -0.1072
  285DOPE   PO4 3333   6.949   6.612  12.233 -0.2201  0.0324  0.0454
  285DOPE   GL1 3334   6.635   6.487  12.429 -0.3375 -0.0687  0.1493
  285DOPE   GL2 3335   6.746   6.456  12.713  0.3327 -0.0994 -0.1095
  285DOPE   C1A 3336   6.370   6.127  12.432 -0.1467 -0.3281  0.0446
  285DOPE   D2A 3337   6.102   5.727  12.376  0.1937 -0.3598 -0.0446
  285DOPE   C3A 3338   5.759   5.688  12.670  0.3816 -0.6786  0.2416
  285DOPE   C4A 3339   5.540   5.874  13.072  0.0308  0.1872 -0.2142
  285DOPE   C1B 3340   6.452   6.803  12.782 -0.0188 -0.1837 -0.1805
  285DOPE   D2B 3341   6.535   7.264  12.963  0.1980 -0.2758 -0.1621
  285DOPE   C3B 3342   6.349   7.394  13.351 -0.0747  0.0618 -0.2550
  285DOPE   C4B 3343   6.072   7.647  13.627 -0.2759  0.1440  0.2985
  286POSM   NC3 3344   8.919   6.894  12.119 -0.4029 -0.0571 -0.4029
  286POSM   PO4 3345   9.133   6.749  12.426 -0.2667 -0.0781  0.0202
  286POSM   AM1 3346   9.274   7.018  12.571 -0.3640  0.3563  0.1230
  286POSM   AM2 3347   9.187   7.315  12.520  0.3489 -0.0677  0.1753
  286POSM   T1A 3348   9.333   7.289  12.998  0.2327 -0.4568  0.0871
  286POSM   C2A 3349   9.112   7.458  13.349  0.1795  0.1178 -0.4564
  286POSM   C3A 3350   9.197   7.899  13.450 -0.1029  0.2223 -0.1542
  286POSM   C1B 3351   9.236   7.591  12.561  0.2713 -0.0701  0.1277
  286POSM   D2B 3352   9.181   8.048  12.463 -0.3332 -0.0097  0.0484
  286POSM   C3B 3353   9.315   8.379  12.751  0.1325  0.3078  0.1022
  286POSM   C4B 3354   9.619   8.708  12.650  0.0493 -0.0675 -0.1678
  287POSM   NC3 3355   8.361  10.538  12.663  0.2022  0.1017  0.0084
  287POSM   PO4 3356   8.578  10.556  12.354 -0.0280  0.0242 -0.1691
  287POSM   AM1 3357   8.783  10.624  12.614 -0.0626  0.0063 -0.0491
  287POSM   AM2 3358   9.060  10.668  12.663 -0.1935 -0.0699  0.0774
  287POSM   T1A 3359   8.927  10.439  13.071 -0.1713  0.1562  0.2572
  287POSM   C2A 3360   9.165  10.459  13.490  0.1048  0.3127 -0.2745
  287POSM   C3A 3361   9.282  10.377  13.894 -0.1614  0.1824 -0.0307
  287POSM   C1B 3362   9.061  10.946  12.911  0.1477  0.0159 -0.2446
  287POSM   D2B 3363   9.074  11.265  13.293 -0.1121  0.0143 -0.3751
  287POSM   C3B 3364   9.446  11.265  13.529 -0.7271 -0.1426  0.2307
  287POSM   C4B 3365   9.816  11.613  13.475  0.0841 -0.1065 -0.0773
  288DOPC   NC3 3366   0.978   4.554  12.529 -0.0365  0.0116  0.0719
  288DOPC   PO4 3367   0.627   4.420  12.528 -0.3793  0.0594  0.3413
  288DOPC   GL1 3368   0.631   4.253  12.820 -0.0980  0.0681 -0.0586
  288DOPC   GL2 3369   0.701   4.465  12.997  0.1949  0.1764  0.2065
  288DOPC   C1A 3370   0.946   4.086  13.148 -0.1926  0.0342 -0.0933
  288DOPC   D2A 3371   1.019   3.907  13.582 -0.2044  0.0220  0.2101
  288DOPC   C3A 3372   1.475   3.838  13.570  0.2515  0.1062 -0.2543
  288DOPC   C4A 3373   1.808   3.717  13.329 -0.2921  0.0511  0.1905
  288DOPC   C1B 3374   0.842   4.511  13.413 -0.4045  0.2291  0.1520
  288DOPC   D2B 3375   0.886   4.825  13.698 -0.1826 -0.0281  0.0470
  288DOPC   C3B 3376   0.561   4.845  13.990 -0.2125 -0.1178  0.4200
  288DOPC   C4B 3377   0.362   5.250  13.869 -0.0697 -0.0261  0.5797
  289DOPC   NC3 3378   3.781  10.271  12.222 -0.1585  0.1846  0.1700
  289DOPC   PO4 3379   4.027  10.152  12.475 -0.0042  0.0488  0.1071
  289DOPC   GL1 3380   3.926  10.278  12.814 -0.2268  0.0176 -0.3654
  289DOPC   GL2 3381   4.234  10.155  12.977  0.0011  0.0962  0.2120
  289DOPC   C1A 3382   3.609  10.200  13.097 -0.4299  0.1347 -0.1895
  289DOPC   D2A 3383   3.355   9.906  13.294 -0.0076 -0.2728 -0.1115
  289DOPC   C3A 3384   3.268  10.154  13.651 -0.0982  0.1195  0.2577
  289DOPC   C4A 3385   3.308  10.472  13.882 -0.0920 -0.2145 -0.0969
  289DOPC   C1B 3386   4.231  10.211  13.431  0.2423 -0.0052  0.3822
  289DOPC   D2B 3387   4.222  10.267  13.885  0.2715 -0.0196 -0.1859
  289DOPC   C3B 3388   3.787  10.119  14.023 -0.2326 -0.2653 -0.4842
  289DOPC   C4B 3389   3.444  10.228  14.311  0.3590 -0.2804  0.0802
  290DOPC   NC3 3390   6.396   7.583  12.588 -0.3094 -0.0726 -0.0920
  290DOPC   PO4 3391   6.213   7.867  12.826  0.0079 -0.0007  0.1606
  290DOPC   GL1 3392   6.649   7.808  12.944  0.0513 -0.0989 -0.3837
  290DOPC   GL2 3393   6.551   7.789  13.208  0.0524 -0.0867 -0.2894
  290DOPC   C1A 3394   7.050   7.880  13.188 -0.3247 -0.0536  0.0749
  290DOPC   D2A 3395   7.333   7.739  13.545  0.1610  0.3242 -0.0676
  290DOPC   C3A 3396   7.225   7.313  13.737 -0.1806  0.1861 -0.0573
  290DOPC   C4A 3397   7.339   6.972  13.927 -0.0099 -0.2928  0.0787
  290DOPC   C1B 3398   6.674   7.967  13.603  0.2090  0.3030 -0.0412
  290DOPC   D2B 3399   6.849   7.941  13.994  0.1707  0.1667  0.0164
  290DOPC   C3B 3400   7.231   7.693  14.074  0.0969  0.0195  0.0241
  290DOPC   C4B 3401   7.455   7.452  14.377 -0.0626 -0.0069  0.0458
  291POSM   NC3 3402   3.180   2.941  12.493 -0.0349 -0.1133 -0.3002
  291POSM   PO4 3403   3.435   3.039  12.237 -0.3540  0.0774  0.1723
  291POSM   AM1 3404   3.609   3.202  12.517 -0.2380  0.0555 -0.1020
  291POSM   AM2 3405   3.604   3.231  12.806  0.1869  0.0955  0.0036
  291POSM   T1A 3406   3.810   3.654  12.609 -0.0707 -0.0050 -0.1913
  291POSM   C2A 3407   3.913   4.091  12.422  0.1511 -0.0144  0.0928
  291POSM   C3A 3408   4.108   4.405  12.124 -0.1674  0.1249  0.2599
  291POSM   C1B 3409   3.336   3.179  12.928 -0.1750 -0.2242 -0.3002
  291POSM   D2B 3410   2.922   2.944  12.920 -0.0438 -0.1152  0.2294
  291POSM   C3B 3411   3.060   2.524  12.766  0.0589  0.1399  0.0994
  291POSM   C4B 3412   3.129   2.303  12.337 -0.1837  0.0645 -0.1086
  292DOPC   NC3 3413   0.367  11.121  12.350  0.1121  0.1535  0.2494
  292DOPC   PO4 3414   0.454  10.745  12.323 -0.1146 -0.1027  0.2951
  292DOPC   GL1 3415   0.511  10.537  12.641  0.1610 -0.3081 -0.1727
  292DOPC   GL2 3416   0.693  10.571  12.827  0.0765 -0.3121  0.0526
  292DOPC   C1A 3417   0.864  10.197  12.687 -0.0406  0.1490  0.2088
  292DOPC   D2A 3418   1.106   9.839  12.815 -0.2306  0.0733  0.2334
  292DOPC   C3A 3419   1.575   9.818  12.761  0.1546 -0.4861 -0.0195
  292DOPC   C4A 3420   1.985   9.897  12.882  0.0424 -0.1184 -0.0632
  292DOPC   C1B 3421   1.074  10.644  13.005  0.2673  0.2216 -0.2725
  292DOPC   D2B 3422   1.547  10.696  13.136 -0.3051 -0.2170 -0.0856
  292DOPC   C3B 3423   1.735  11.100  13.108  0.0494  0.4544 -0.1391
  292DOPC   C4B 3424   1.792  11.580  13.259  0.3589 -0.0383  0.1491
  293POSM   NC3 3425  10.993   6.690  11.642  0.3478  0.0917 -0.0992
  293POSM   PO4 3426  11.046   6.262  11.704 -0.2620 -0.0276 -0.0335
  293POSM   AM1 3427  10.961   5.982  11.818 -0.2323  0.0979 -0.1906
  293POSM   AM2 3428  11.050   5.662  11.874 -0.0425 -0.2018 -0.0896
  293POSM   T1A 3429  10.590   5.718  12.063  0.0180  0.0808  0.3667
  293POSM   C2A 3430  10.102   5.686  12.126 -0.3767 -0.0822 -0.2688
  293POSM   C3A 3431   9.674   5.577  12.168 -0.4411  0.0099  0.0819
  293POSM   C1B 3432  10.985   5.311  11.861 -0.0665 -0.3425  0.2640
  293POSM   D2B 3433  10.647   5.051  12.015 -0.0724  0.0132  0.2213
  293POSM   C3B 3434  10.627   4.874  12.442 -0.2746  0.3126  0.0183
  293POSM   C4B 3435  10.767   4.872  12.907 -0.0141 -0.1405  0.0090
  294DOPS   CNO 3436   8.885   1.245  11.288 -0.2003  0.4591 -0.1315
  294DOPS   PO4 3437   8.771   1.481  11.584 -0.0844 -0.1567 -0.0475
  294DOPS   GL1 3438   8.680   1.481  11.965  0.0556  0.1321 -0.1532
  294DOPS   GL2 3439   8.557   1.737  12.032  0.2670 -0.0621  0.0988
  294DOPS   C1A 3440   8.883   1.507  12.392 -0.1972  0.0763  0.1480
  294DOPS   D2A 3441   8.804   1.905  12.658 -0.0455 -0.3621  0.2728
  294DOPS   C3A 3442   8.855   1.980  13.078 -0.1593 -0.0311 -0.0805
  294DOPS   C4A 3443   9.272   2.064  13.281  0.1320  0.1262 -0.0008
  294DOPS   C1B 3444   8.242   1.900  12.359 -0.0485 -0.0421 -0.2401
  294DOPS   D2B 3445   7.843   1.901  12.509  0.4726  0.1504 -0.0394
  294DOPS   C3B 3446   8.111   1.965  12.861  0.0757  0.3599 -0.0160
  294DOPS   C4B 3447   8.353   2.143  13.200  0.1496  0.3095  0.0535
  295DOPC   NC3 3448   4.465   6.721  12.339 -0.0253  0.0369 -0.1705
  295DOPC   PO4 3449   4.649   7.068  12.374  0.0210 -0.0092  0.1179
  295DOPC   GL1 3450   5.041   6.969  12.364 -0.0028  0.1653 -0.1474
  295DOPC   GL2 3451   5.106   6.961  12.650  0.0461 -0.0573  0.0392
  295DOPC   C1A 3452   5.306   6.645  12.338  0.1355  0.2853 -0.0730
  295DOPC   D2A 3453   5.374   6.187  12.329  0.3736  0.1456  0.0217
  295DOPC   C3A 3454   5.230   5.879  12.687 -0.2184 -0.1294 -0.0226
  295DOPC   C4A 3455   4.865   5.635  12.621  0.0627 -0.1006 -0.1888
  295DOPC   C1B 3456   5.553   6.888  12.794 -0.1909 -0.0179  0.0032
  295DOPC   D2B 3457   5.972   6.709  12.774 -0.1390  0.1489 -0.1290
  295DOPC   C3B 3458   6.029   6.522  13.167 -0.2127 -0.1101 -0.1566
  295DOPC   C4B 3459   5.757   6.305  13.429  0.0869  0.1181  0.1046
  296DOPS   CNO 3460  34.595  10.095  12.253  0.0112 -0.0270 -0.0597
  296DOPS   PO4 3461  34.782  10.334  12.485  0.0237 -0.0075 -0.3854
  296DOPS   GL1 3462  34.750  10.088  12.792 -0.0113  0.1027 -0.0978
  296DOPS   GL2 3463  35.087  10.044  12.830 -0.1082 -0.1730 -0.1426
  296DOPS   C1A 3464  34.708   9.881  13.244  0.4309  0.1749  0.0895
  296DOPS   D2A 3465  34.717   9.957  13.701 -0.1881  0.0641  0.0752
  296DOPS   C3A 3466  34.838   9.484  13.718 -0.0249  0.5647  0.1815
  296DOPS   C4A 3467  34.993   9.180  14.040 -0.1664  0.0293  0.2726
  296DOPS   C1B 3468  35.100  10.160  13.269 -0.0380 -0.1752  0.1578
  296DOPS   D2B 3469  35.217  10.118  13.718  0.3876  0.1759 -0.2907
  296DOPS   C3B 3470  35.661  10.044  13.706  0.2710  0.3347  0.0465
  296DOPS   C4B 3471  36.048  10.072  13.818 -0.1476  0.0157 -0.0771
  297DOPE   NH3 3472   4.323   8.990  12.703  0.1708  0.1088  0.2055
  297DOPE   PO4 3473   4.528   9.216  12.857 -0.2490 -0.0211 -0.0285
  297DOPE   GL1 3474   4.436   9.306  13.236 -0.0113  0.1446  0.0570
  297DOPE   GL2 3475   4.531   9.070  13.362 -0.3568  0.1934  0.2380
  297DOPE   C1A 3476   4.498   9.762  13.433 -0.2925  0.1224  0.0811
  297DOPE   D2A 3477   4.698  10.083  13.706 -0.2585  0.0463  0.3530
  297DOPE   C3A 3478   4.677  10.219  14.092 -0.5657  0.1149  0.2038
  297DOPE   C4A 3479   4.432  10.475  14.412 -0.2848 -0.1483 -0.2369
  297DOPE   C1B 3480   4.734   8.687  13.519 -0.2211 -0.1709 -0.2535
  297DOPE   D2B 3481   5.197   8.534  13.462  0.1469 -0.5078  0.1157
  297DOPE   C3B 3482   5.519   8.531  13.804 -0.0424 -0.1320  0.1604
  297DOPE   C4B 3483   5.913   8.481  14.061  0.1158 -0.1364 -0.3568
  298DOPE   NH3 3484  10.777   2.311  11.236 -0.2775  0.3128 -0.0325
  298DOPE   PO4 3485  10.820   2.420  11.516  0.0415  0.1121 -0.0807
  298DOPE   GL1 3486  10.857   2.422  11.940 -0.1076  0.1056 -0.0791
  298DOPE   GL2 3487  11.059   2.165  11.933  0.1395 -0.1903 -0.1597
  298DOPE   C1A 3488  10.817   2.504  12.376 -0.3882 -0.2589  0.1826
  298DOPE   D2A 3489  10.919   2.909  12.657  0.0681 -0.1528  0.0032
  298DOPE   C3A 3490  10.702   3.331  12.730 -0.0148 -0.2969  0.3215
  298DOPE   C4A 3491  10.303   3.461  12.882  0.0741 -0.0398 -0.1821
  298DOPE   C1B 3492  11.208   2.165  12.394 -0.0350 -0.2350 -0.1628
  298DOPE   D2B 3493  11.404   1.826  12.671  0.1296  0.0404  0.1663
  298DOPE   C3B 3494  11.610   1.989  13.056 -0.0048 -0.0564  0.0365
  298DOPE   C4B 3495  11.769   2.268  13.369  0.1593 -0.3141  0.0400
  299DOPE   NH3 3496   7.388   4.037  12.398  0.0543 -0.4403 -0.0324
  299DOPE   PO4 3497   7.500   4.349  12.324  0.0768  0.0225 -0.1922
  299DOPE   GL1 3498   7.284   4.518  12.696 -0.0649 -0.2312  0.3219
  299DOPE   GL2 3499   7.362   4.412  12.903  0.0627  0.2194 -0.0458
  299DOPE   C1A 3500   6.849   4.508  12.887  0.2851 -0.1189  0.1642
  299DOPE   D2A 3501   6.627   4.606  13.230 -0.0997 -0.0793 -0.1905
  299DOPE   C3A 3502   6.563   4.360  13.662  0.0288  0.1210  0.1042
  299DOPE   C4A 3503   6.432   4.453  14.040  0.5198  0.2834 -0.2348
  299DOPE   C1B 3504   7.521   3.986  12.929 -0.0470  0.2236 -0.0004
  299DOPE   D2B 3505   7.541   3.569  12.921 -0.1284  0.0386 -0.0574
  299DOPE   C3B 3506   7.407   3.371  13.322 -0.1019 -0.1926 -0.0224
  299DOPE   C4B 3507   7.372   3.096  13.743  0.1306 -0.0129  0.1812
  300DOPC   NC3 3508   6.095   2.149  12.274  0.1899 -0.0873  0.2949
  300DOPC   PO4 3509   6.014   1.810  12.465 -0.2637  0.0886 -0.0164
  300DOPC   GL1 3510   5.975   1.821  12.820  0.0970  0.0595 -0.3139
  300DOPC   GL2 3511   5.672   1.627  12.774  0.4338  0.2705  0.1209
  300DOPC   C1A 3512   6.073   1.975  13.207  0.3470  0.0292 -0.1221
  300DOPC   D2A 3513   5.953   2.212  13.597  0.3445  0.0373  0.1809
  300DOPC   C3A 3514   5.801   1.962  13.926 -0.1939 -0.0460 -0.1404
  300DOPC   C4A 3515   6.013   1.693  14.244 -0.2906 -0.1401 -0.2716
  300DOPC   C1B 3516   5.427   1.676  13.076  0.1698 -0.0436  0.0525
  300DOPC   D2B 3517   5.543   1.853  13.440 -0.2544  0.0192 -0.2342
  300DOPC   C3B 3518   5.351   1.877  13.807  0.0959 -0.1168 -0.2941
  300DOPC   C4B 3519   5.514   1.763  14.237  0.1229  0.0947  0.1753
  301DOPS   CNO 3520  11.647   7.543  12.258 -0.5156  0.0181 -0.0187
  301DOPS   PO4 3521  11.387   7.746  12.480  0.1376 -0.0335  0.0894
  301DOPS   GL1 3522  11.029   7.563  12.607 -0.0645  0.2773  0.0741
  301DOPS   GL2 3523  11.074   7.634  12.854  0.2927 -0.3664 -0.1274
  301DOPS   C1A 3524  10.589   7.348  12.799  0.1522 -0.0520 -0.0634
  301DOPS   D2A 3525  10.413   7.260  13.259  0.2206  0.0883 -0.0296
  301DOPS   C3A 3526  10.035   7.490  13.481 -0.0267 -0.0195  0.0230
  301DOPS   C4A 3527   9.643   7.521  13.283  0.1914  0.0826  0.2276
  301DOPS   C1B 3528  10.935   7.505  13.299  0.0476 -0.1937  0.0368
  301DOPS   D2B 3529  10.725   7.255  13.652  0.0872  0.1322 -0.1644
  301DOPS   C3B 3530  10.669   7.210  14.112 -0.0819 -0.0033 -0.0879
  301DOPS   C4B 3531  10.474   7.343  14.537 -0.1594 -0.0395 -0.2929
  302DOPS   CNO 3532   7.783  10.323  12.330 -0.2966  0.1027 -0.3472
  302DOPS   PO4 3533   7.535  10.373  12.568  0.0365  0.1372  0.1930
  302DOPS   GL1 3534   7.485  10.353  12.924  0.1972  0.1100  0.1561
  302DOPS   GL2 3535   7.235  10.297  13.019  0.0563 -0.0534 -0.4194
  302DOPS   C1A 3536   7.646  10.476  13.393 -0.0172  0.0243  0.1317
  302DOPS   D2A 3537   7.858  10.220  13.696  0.2026  0.1467 -0.2572
  302DOPS   C3A 3538   7.984   9.835  13.896  0.2399 -0.1797  0.3117
  302DOPS   C4A 3539   8.256   9.669  14.244  0.4528  0.0151  0.1563
  302DOPS   C1B 3540   7.176  10.297  13.478  0.0800  0.1275 -0.0064
  302DOPS   D2B 3541   7.064  10.152  13.907  0.0187 -0.5502 -0.3888
  302DOPS   C3B 3542   7.051  10.339  14.325  0.0289 -0.0839  0.0791
  302DOPS   C4B 3543   6.953   9.977  14.628  0.5538 -0.1068 -0.0395
  303DOPC   NC3 3544   7.263  10.217  12.118  0.2476  0.1063 -0.1754
  303DOPC   PO4 3545   6.899  10.180  12.187  0.0280 -0.1817  0.3639
  303DOPC   GL1 3546   7.124  10.006  12.549  0.1272  0.2579 -0.3025
  303DOPC   GL2 3547   6.906  10.059  12.703 -0.0620 -0.1348 -0.0830
  303DOPC   C1A 3548   7.302   9.833  12.931  0.1615 -0.0106  0.0118
  303DOPC   D2A 3549   7.375   9.537  13.248 -0.2709  0.0309 -0.0203
  303DOPC   C3A 3550   7.809   9.486  13.461  0.0597  0.0131 -0.0505
  303DOPC   C4A 3551   8.212   9.366  13.348 -0.1745  0.1928  0.1177
  303DOPC   C1B 3552   6.861   9.916  13.166 -0.2342 -0.1973  0.1062
  303DOPC   D2B 3553   7.083   9.809  13.530  0.0865  0.2111  0.2471
  303DOPC   C3B 3554   7.255   9.427  13.759 -0.1179 -0.2200 -0.2856
  303DOPC   C4B 3555   7.513   9.251  14.105  0.6096  0.1144 -0.0469
  304DOPS   CNO 3556   2.065   5.002  12.292  0.0770  0.0512  0.0933
  304DOPS   PO4 3557   2.361   4.778  12.374  0.1228  0.0278 -0.0133
  304DOPS   GL1 3558   2.541   4.548  12.630  0.1409 -0.3979 -0.0216
  304DOPS   GL2 3559   2.782   4.374  12.477  0.0321  0.0778  0.2100
  304DOPS   C1A 3560   2.303   4.468  13.053 -0.1710  0.0554 -0.1856
  304DOPS   D2A 3561   2.464   4.450  13.537 -0.0222 -0.2775 -0.1665
  304DOPS   C3A 3562   2.355   4.784  13.834  0.0621 -0.1303  0.0008
  304DOPS   C4A 3563   2.474   4.817  14.277  0.1673  0.2492  0.0106
  304DOPS   C1B 3564   3.209   4.172  12.525  0.3576 -0.0557 -0.2630
  304DOPS   D2B 3565   3.538   4.122  12.805 -0.2884 -0.2147  0.1769
  304DOPS   C3B 3566   3.375   4.092  13.184  0.2459 -0.3957 -0.3439
  304DOPS   C4B 3567   3.076   4.322  13.542  0.4095 -0.5092  0.0285
  305DOPS   CNO 3568   3.547   6.312  12.487  0.1645 -0.1794 -0.0828
  305DOPS   PO4 3569   3.498   6.675  12.664  0.1039  0.2430  0.0961
  305DOPS   GL1 3570   3.672   6.808  13.093  0.1549 -0.0570 -0.1006
  305DOPS   GL2 3571   3.872   7.039  13.119 -0.1932  0.2310 -0.0313
  305DOPS   C1A 3572   3.846   6.754  13.530  0.0259  0.2114  0.1350
  305DOPS   D2A 3573   4.302   6.648  13.650  0.1244 -0.0484  0.0563
  305DOPS   C3A 3574   4.412   6.208  13.628  0.0279  0.0650 -0.1931
  305DOPS   C4A 3575   4.689   5.839  13.668  0.0289  0.0284 -0.0017
  305DOPS   C1B 3576   4.202   7.159  13.447  0.0358  0.0531 -0.2811
  305DOPS   D2B 3577   4.211   7.124  13.936 -0.2139  0.0894 -0.0292
  305DOPS   C3B 3578   4.008   6.826  14.163 -0.2483 -0.0677 -0.2952
  305DOPS   C4B 3579   3.976   6.766  14.588 -0.0497 -0.2313 -0.3011
  306DOPC   NC3 3580   1.197   8.008  12.290 -0.0957 -0.3727 -0.2166
  306DOPC   PO4 3581   1.426   8.248  12.114  0.0177 -0.4707 -0.0475
  306DOPC   GL1 3582   1.739   8.439  12.362  0.0082  0.2103  0.1356
  306DOPC   GL2 3583   1.590   8.685  12.466 -0.2102  0.0080 -0.2418
  306DOPC   C1A 3584   2.032   8.464  12.704  0.2243 -0.0895  0.1314
  306DOPC   D2A 3585   2.207   8.717  13.028  0.2298 -0.0436 -0.0149
  306DOPC   C3A 3586   2.157   8.501  13.419 -0.2715  0.0248 -0.0650
  306DOPC   C4A 3587   2.105   8.587  13.921  0.0023  0.1538  0.5419
  306DOPC   C1B 3588   1.689   8.936  12.828 -0.0717  0.0014  0.2418
  306DOPC   D2B 3589   1.683   9.384  13.016  0.0214  0.2943 -0.1836
  306DOPC   C3B 3590   1.685   9.722  13.328 -0.2079 -0.1628  0.1425
  306DOPC   C4B 3591   1.826   9.973  13.700  0.1959 -0.4668 -0.1811
  307DOPE   NH3 3592  10.454  34.680  11.683  0.1633 -0.1864  0.0672
  307DOPE   PO4 3593  10.676  34.865  11.789 -0.0503 -0.1033  0.2771
  307DOPE   GL1 3594  10.742  34.974  12.166 -0.2391  0.1155 -0.1122
  307DOPE   GL2 3595  10.604  35.225  12.083 -0.0143  0.0383 -0.0437
  307DOPE   C1A 3596  10.611  34.738  12.570 -0.1862  0.1717  0.1538
  307DOPE   D2A 3597  10.571  34.440  12.916  0.3204 -0.0065  0.1409
  307DOPE   C3A 3598  10.731  34.191  13.265 -0.0962  0.0373  0.3756
  307DOPE   C4A 3599  10.787  33.856  13.619  0.1771  0.2982  0.2616
  307DOPE   C1B 3600  10.320  35.329  12.467 -0.1132  0.2425 -0.0548
  307DOPE   D2B 3601  10.010  35.252  12.802 -0.2533 -0.1257  0.3821
  307DOPE   C3B 3602  10.106  34.775  12.988  0.1252 -0.2137 -0.4769
  307DOPE   C4B 3603   9.985  34.345  13.143 -0.0198 -0.1762  0.0274
  308DOPE   NH3 3604  34.507  11.139  12.500  0.1757 -0.2004  0.3570
  308DOPE   PO4 3605  34.457  11.271  12.794  0.0867  0.1728 -0.1692
  308DOPE   GL1 3606  34.490  11.278  13.151  0.4013  0.2560 -0.0503
  308DOPE   GL2 3607  34.614  11.013  13.201 -0.3451  0.0926 -0.2401
  308DOPE   C1A 3608  34.521  11.495  13.551 -0.2673 -0.0085 -0.0358
  308DOPE   D2A 3609  34.573  11.353  13.983  0.0683  0.0458  0.3615
  308DOPE   C3A 3610  34.738  11.742  14.193 -0.0845  0.1611 -0.0065
  308DOPE   C4A 3611  35.052  11.765  14.567  0.4477 -0.2932 -0.0639
  308DOPE   C1B 3612  34.885  10.702  13.455 -0.0520 -0.1363  0.0149
  308DOPE   D2B 3613  35.185  10.683  13.806 -0.0864 -0.1671 -0.2832
  308DOPE   C3B 3614  35.607  10.577  13.906 -0.0235  0.0149  0.0312
  308DOPE   C4B 3615  36.014  10.711  13.941 -0.1171  0.0306  0.0692
  309POSM   NC3 3616   6.130   2.323  12.763 -0.1683  0.2552 -0.0270
  309POSM   PO4 3617   6.046   2.670  12.915  0.1440 -0.1482  0.1982
  309POSM   AM1 3618   6.136   2.756  13.250  0.1089 -0.1701  0.0090
  309POSM   AM2 3619   6.333   2.562  13.314 -0.3506  0.0500  0.0206
  309POSM   T1A 3620   6.081   2.996  13.650  0.0003  0.1246  0.2076
  309POSM   C2A 3621   6.370   2.958  14.032 -0.0466 -0.0403  0.3072
  309POSM   C3A 3622   6.863   3.118  14.053  0.3701  0.3245 -0.0977
  309POSM   C1B 3623   6.354   2.538  13.638 -0.0883  0.3854  0.1161
  309POSM   D2B 3624   6.669   2.519  14.026 -0.1663  0.1281  0.0494
  309POSM   C3B 3625   7.114   2.650  14.055  0.3063 -0.1201 -0.1054
  309POSM   C4B 3626   7.554   2.719  14.015 -0.3066 -0.4658  0.1322
  310DOPS   CNO 3627   8.997  10.399  12.117  0.1699 -0.1469 -0.2143
  310DOPS   PO4 3628   8.819  10.105  12.172 -0.1203 -0.1661  0.3348
  310DOPS   GL1 3629   9.190  10.085  12.460  0.3058 -0.1850 -0.5200
  310DOPS   GL2 3630   9.467  10.300  12.422 -0.0895  0.2512 -0.0533
  310DOPS   C1A 3631   9.190  10.020  12.936 -0.0667 -0.0130  0.1470
  310DOPS   D2A 3632   9.115   9.728  13.243  0.1306 -0.2577  0.0504
  310DOPS   C3A 3633   9.073  10.006  13.610  0.0977 -0.0577 -0.3226
  310DOPS   C4A 3634   8.790  10.284  13.803  0.0955 -0.0477  0.1788
  310DOPS   C1B 3635   9.625   9.883  12.669 -0.0184  0.0451  0.0759
  310DOPS   D2B 3636   9.515   9.601  12.923  0.0670 -0.1804 -0.2193
  310DOPS   C3B 3637   9.579   9.186  13.062  0.1264  0.1001  0.1108
  310DOPS   C4B 3638   9.536   9.059  13.540  0.0732 -0.2810  0.1610
  311DOPC   NC3 3639   7.150   1.318  11.809  0.5836  0.0205  0.3930
  311DOPC   PO4 3640   6.899   1.484  12.059 -0.0677 -0.0048  0.1009
  311DOPC   GL1 3641   7.101   1.453  12.458 -0.1058  0.0769 -0.0535
  311DOPC   GL2 3642   6.898   1.382  12.678 -0.0710  0.1605  0.1193
  311DOPC   C1A 3643   7.331   1.774  12.676 -0.0614 -0.2055 -0.3257
  311DOPC   D2A 3644   7.640   1.926  12.980 -0.1679 -0.0753 -0.0910
  311DOPC   C3A 3645   7.649   2.235  13.387  0.1564  0.0304 -0.4784
  311DOPC   C4A 3646   7.840   2.424  13.774  0.0489 -0.0698  0.2136
  311DOPC   C1B 3647   6.933   1.636  13.055  0.4262 -0.0936 -0.3038
  311DOPC   D2B 3648   6.935   1.657  13.535 -0.3643  0.1866  0.0992
  311DOPC   C3B 3649   6.639   1.454  13.714  0.1982  0.1862  0.2863
  311DOPC   C4B 3650   6.472   1.368  14.184  0.0076 -0.0984 -0.0913
  312DOPE   NH3 3651   0.566   3.782  12.648  0.0743  0.2853 -0.2480
  312DOPE   PO4 3652   0.307   3.576  12.520  0.1850 -0.1629  0.0347
  312DOPE   GL1 3653   0.312   3.546  12.908  0.1052 -0.0016  0.0472
  312DOPE   GL2 3654   0.068   3.635  12.950  0.0077 -0.0179  0.0370
  312DOPE   C1A 3655   0.226   3.251  13.281 -0.0945  0.1763  0.1264
  312DOPE   D2A 3656   0.329   2.984  13.654  0.3240 -0.0001 -0.0920
  312DOPE   C3A 3657   0.273   2.555  13.625 -0.1190  0.0792 -0.0879
  312DOPE   C4A 3658   0.280   2.176  13.902 -0.0444 -0.0597  0.1630
  312DOPE   C1B 3659  -0.069   3.713  13.357  0.0830  0.1189 -0.0042
  312DOPE   D2B 3660  -0.287   3.683  13.774 -0.1665  0.1245 -0.1113
  312DOPE   C3B 3661  -0.041   3.288  13.958  0.0282  0.0625  0.2118
  312DOPE   C4B 3662   0.000   2.944  14.204  0.2194 -0.1402  0.3747
  313DOPS   CNO 3663   6.320   2.757  12.343 -0.0910 -0.2313  0.1401
  313DOPS   PO4 3664   6.440   2.414  12.391 -0.1118 -0.1149 -0.0154
  313DOPS   GL1 3665   6.476   2.036  12.517  0.2773  0.2088  0.0115
  313DOPS   GL2 3666   6.565   1.838  12.364  0.0539  0.0138  0.4046
  313DOPS   C1A 3667   6.469   1.683  12.861  0.2477 -0.1312 -0.0356
  313DOPS   D2A 3668   6.083   1.390  12.960  0.2161  0.3157  0.0223
  313DOPS   C3A 3669   5.843   1.475  13.302 -0.2635  0.0773 -0.2236
  313DOPS   C4A 3670   5.711   1.473  13.718  0.0231  0.2484  0.3925
  313DOPS   C1B 3671   6.888   1.981  12.689 -0.0580  0.0005 -0.1220
  313DOPS   D2B 3672   7.214   2.141  13.033  0.1334 -0.1151  0.3246
  313DOPS   C3B 3673   7.328   1.873  13.369 -0.0330 -0.0748 -0.0036
  313DOPS   C4B 3674   7.396   1.628  13.785  0.2356  0.2131 -0.1619
  314DOPS   CNO 3675  10.651   9.389  11.733 -0.1957  0.1073 -0.1190
  314DOPS   PO4 3676  10.796   9.043  11.765 -0.0729 -0.2667 -0.1132
  314DOPS   GL1 3677  10.362   8.959  11.882 -0.2854 -0.4146  0.2125
  314DOPS   GL2 3678  10.373   8.692  11.849  0.2123  0.1135 -0.1750
  314DOPS   C1A 3679  10.135   9.187  12.207 -0.2180 -0.2891 -0.0385
  314DOPS   D2A 3680   9.875   9.149  12.604 -0.0500 -0.6075 -0.0706
  314DOPS   C3A 3681   9.414   9.261  12.511 -0.4543  0.2702  0.0365
  314DOPS   C4A 3682   9.219   9.682  12.340  0.0008 -0.1462  0.2083
  314DOPS   C1B 3683   9.924   8.729  12.035  0.0921 -0.1248  0.2291
  314DOPS   D2B 3684   9.487   8.910  12.110  0.1507 -0.0504 -0.0037
  314DOPS   C3B 3685   9.076   8.767  11.863  0.1169  0.3135 -0.1166
  314DOPS   C4B 3686   8.873   8.600  11.489 -0.1993  0.3726 -0.3549
  315DOPE   NH3 3687  34.373  10.629  12.646 -0.0405 -0.0247  0.2196
  315DOPE   PO4 3688  34.324  10.322  12.697  0.2216 -0.2689  0.0326
  315DOPE   GL1 3689  34.360  10.235  13.051  0.0242 -0.2157  0.1025
  315DOPE   GL2 3690  34.207   9.998  13.139 -0.2771 -0.2126  0.0740
  315DOPE   C1A 3691  34.554  10.320  13.451 -0.0993 -0.0352 -0.0235
  315DOPE   D2A 3692  34.793  10.390  13.868  0.0433 -0.1101  0.0246
  315DOPE   C3A 3693  34.473  10.527  14.179  0.0665 -0.1594  0.1110
  315DOPE   C4A 3694  34.247  10.867  14.398 -0.1419  0.2917 -0.1763
  315DOPE   C1B 3695  34.261   9.672  13.482  0.0559  0.1703 -0.2689
  315DOPE   D2B 3696  34.357   9.477  13.844 -0.4263 -0.0597  0.0725
  315DOPE   C3B 3697  34.032   9.324  14.131  0.1814 -0.1260 -0.0391
  315DOPE   C4B 3698  33.732   9.145  14.457  0.1780 -0.1066 -0.2811
  316DOPE   NH3 3699   3.930   6.396  12.765 -0.0625  0.3901  0.2321
  316DOPE   PO4 3700   4.048   6.472  12.481 -0.3347  0.1597  0.0962
  316DOPE   GL1 3701   4.481   6.362  12.642 -0.0505  0.1484 -0.0751
  316DOPE   GL2 3702   4.367   6.074  12.717  0.0428 -0.1187  0.1778
  316DOPE   C1A 3703   4.911   6.446  12.583 -0.0783  0.1102 -0.0585
  316DOPE   D2A 3704   5.305   6.456  12.825  0.1615  0.2385 -0.0200
  316DOPE   C3A 3705   5.321   6.609  13.292  0.1008  0.0168 -0.2832
  316DOPE   C4A 3706   5.363   6.549  13.785 -0.2967  0.1962  0.4066
  316DOPE   C1B 3707   4.604   5.956  13.084  0.1790 -0.0829  0.1106
  316DOPE   D2B 3708   5.017   5.823  13.169 -0.2822  0.2129  0.4493
  316DOPE   C3B 3709   5.206   5.517  13.455  0.2026 -0.0461 -0.2574
  316DOPE   C4B 3710   5.122   5.244  13.849  0.0408  0.1003 -0.1879
  317POSM   NC3 3711  11.652   0.366  11.764 -0.0275 -0.2962 -0.1444
  317POSM   PO4 3712  11.244   0.529  11.845  0.1014  0.1033  0.0111
  317POSM   AM1 3713  11.258   0.491  12.171 -0.1018  0.3095  0.2579
  317POSM   AM2 3714  11.029   0.631  12.331  0.0769  0.0792  0.1028
  317POSM   T1A 3715  11.339   0.417  12.682 -0.2187 -0.0199 -0.0135
  317POSM   C2A 3716  11.042   0.530  13.029  0.0924  0.1954 -0.2751
  317POSM   C3A 3717  11.055   0.500  13.496  0.0384  0.1308 -0.0050
  317POSM   C1B 3718  10.879   0.459  12.555  0.3200 -0.0998  0.0040
  317POSM   D2B 3719  10.591   0.419  12.910  0.0216  0.1223 -0.4446
  317POSM   C3B 3720  10.627   0.181  13.262 -0.0703 -0.0628 -0.2496
  317POSM   C4B 3721  10.394  -0.023  13.660  0.1798 -0.1341  0.1012
  318DOPC   NC3 3722   8.152   4.670  12.209  0.2458 -0.0440  0.2722
  318DOPC   PO4 3723   8.338   4.554  12.488 -0.1793 -0.0900  0.2190
  318DOPC   GL1 3724   8.184   4.342  12.785  0.0038 -0.1571 -0.2310
  318DOPC   GL2 3725   7.977   4.244  12.957  0.0276 -0.0634  0.1840
  318DOPC   C1A 3726   8.379   4.076  13.115  0.0366 -0.0463  0.2696
  318DOPC   D2A 3727   8.316   3.867  13.507  0.0664  0.0548 -0.0809
  318DOPC   C3A 3728   8.187   4.130  13.869 -0.0922  0.0019 -0.1962
  318DOPC   C4A 3729   7.935   4.173  14.211 -0.2715  0.1631 -0.2715
  318DOPC   C1B 3730   7.852   4.232  13.403  0.0003  0.0277 -0.3091
  318DOPC   D2B 3731   7.781   4.384  13.814 -0.0426 -0.2627  0.2363
  318DOPC   C3B 3732   7.353   4.312  13.970  0.1962  0.0907 -0.0800
  318DOPC   C4B 3733   7.137   4.443  14.342 -0.1502  0.1654 -0.1768
  319DOPC   NC3 3734   3.974   5.856  12.539  0.1283  0.1869  0.0394
  319DOPC   PO4 3735   3.742   5.943  12.862  0.1223 -0.0963  0.2544
  319DOPC   GL1 3736   3.958   5.654  12.962  0.0789 -0.0639 -0.0305
  319DOPC   GL2 3737   4.300   5.581  12.842  0.0036  0.0622  0.2231
  319DOPC   C1A 3738   3.932   5.375  13.331  0.1598 -0.1948 -0.0573
  319DOPC   D2A 3739   3.689   4.958  13.357  0.0845 -0.2314  0.0339
  319DOPC   C3A 3740   3.909   4.638  13.674 -0.1843  0.0618  0.1327
  319DOPC   C4A 3741   4.150   4.300  13.871  0.2382  0.0022  0.0708
  319DOPC   C1B 3742   4.505   5.473  13.262  0.0788 -0.0369  0.1257
  319DOPC   D2B 3743   4.366   5.409  13.676  0.1176 -0.0649  0.1007
  319DOPC   C3B 3744   4.265   5.765  13.913  0.1637 -0.2122 -0.2265
  319DOPC   C4B 3745   4.569   6.065  14.090 -0.2141 -0.0084  0.0816
  320DOPE   NH3 3746   7.461  10.911  12.293 -0.1663 -0.1924  0.1999
  320DOPE   PO4 3747   7.565  11.161  12.444  0.0843 -0.1747 -0.2099
  320DOPE   GL1 3748   7.899  11.250  12.651 -0.1299  0.3931 -0.2684
  320DOPE   GL2 3749   8.185  11.103  12.610  0.0078  0.1152  0.2295
  320DOPE   C1A 3750   8.221  11.623  12.760  0.1837  0.0484 -0.2360
  320DOPE   D2A 3751   8.601  11.899  12.763  0.0304 -0.1154  0.0181
  320DOPE   C3A 3752   8.744  12.213  12.429 -0.0231 -0.0651 -0.0955
  320DOPE   C4A 3753   9.145  12.376  12.205 -0.0164  0.2308  0.1182
  320DOPE   C1B 3754   8.525  10.986  12.908  0.1664 -0.1005  0.0888
  320DOPE   D2B 3755   8.654  10.891  13.368  0.0241  0.3601 -0.0768
  320DOPE   C3B 3756   8.990  10.903  13.687 -0.0234  0.3097  0.0615
  320DOPE   C4B 3757   9.268  10.867  14.070  0.4287 -0.0240 -0.1486
  321POSM   NC3 3758  10.281  11.087  12.287 -0.2434  0.0428 -0.0097
  321POSM   PO4 3759   9.993  11.326  12.184  0.1349  0.0417  0.0143
  321POSM   AM1 3760   9.834  11.136  12.390 -0.1315 -0.1342  0.0148
  321POSM   AM2 3761   9.897  11.109  12.695 -0.1563  0.2749 -0.0237
  321POSM   T1A 3762   9.588  10.754  12.685 -0.0997 -0.1545  0.1532
  321POSM   C2A 3763   9.594  10.385  12.952  0.0340 -0.3177  0.0896
  321POSM   C3A 3764   9.562  10.110  13.277  0.2054  0.0038  0.0735
  321POSM   C1B 3765  10.140  10.960  12.873 -0.4438 -0.1294  0.0149
  321POSM   D2B 3766  10.357  10.945  13.233 -0.0356 -0.1158  0.1589
  321POSM   C3B 3767  10.338  11.291  13.505  0.2814 -0.2064  0.3903
  321POSM   C4B 3768  10.116  11.340  13.883  0.0422  0.0941  0.0695
  322DOPE   NH3 3769   7.412   6.472  12.396  0.0370 -0.4535 -0.0572
  322DOPE   PO4 3770   7.275   6.333  12.682  0.2843 -0.0018  0.2141
  322DOPE   GL1 3771   7.203   6.442  13.036  0.1308  0.3593  0.2671
  322DOPE   GL2 3772   7.313   6.743  13.138 -0.0171  0.0988  0.1436
  322DOPE   C1A 3773   6.783   6.625  13.197  0.1386  0.2196  0.0586
  322DOPE   D2A 3774   6.431   6.879  13.333 -0.1377 -0.0976 -0.0370
  322DOPE   C3A 3775   6.463   7.015  13.776 -0.2163  0.2787  0.0052
  322DOPE   C4A 3776   6.311   7.099  14.230 -0.0153 -0.0680  0.3958
  322DOPE   C1B 3777   7.133   6.844  13.535  0.0898 -0.0688  0.2267
  322DOPE   D2B 3778   6.872   6.723  13.919 -0.0018 -0.4829 -0.3225
  322DOPE   C3B 3779   6.996   6.636  14.349  0.0802  0.4112 -0.1398
  322DOPE   C4B 3780   7.212   6.849  14.672 -0.0463 -0.0288 -0.2285
  323DOPC   NC3 3781   7.818   5.593  12.304  0.0280  0.1348 -0.1015
  323DOPC   PO4 3782   8.048   5.685  12.614 -0.1041  0.3113 -0.0856
  323DOPC   GL1 3783   7.809   5.646  12.935 -0.0315 -0.1908  0.0763
  323DOPC   GL2 3784   7.565   5.656  13.032  0.2000 -0.1227  0.0493
  323DOPC   C1A 3785   7.874   5.682  13.417 -0.1120  0.2950  0.2320
  323DOPC   D2A 3786   8.005   5.939  13.747  0.2311  0.2469 -0.1652
  323DOPC   C3A 3787   8.466   5.941  13.816 -0.0056 -0.2574  0.0306
  323DOPC   C4A 3788   8.926   5.930  13.981 -0.0890  0.0073 -0.1589
  323DOPC   C1B 3789   7.166   5.693  13.340  0.0822  0.3041 -0.2553
  323DOPC   D2B 3790   6.974   5.438  13.687  0.0020  0.1491  0.0128
  323DOPC   C3B 3791   7.194   5.280  14.123 -0.0407 -0.0371  0.1529
  323DOPC   C4B 3792   7.175   4.941  14.385  0.1276 -0.2851  0.1310
  324DOPS   CNO 3793   2.224   0.711  12.269  0.2097  0.3546 -0.1076
  324DOPS   PO4 3794   2.055   1.024  12.433  0.2348  0.0365  0.2935
  324DOPS   GL1 3795   1.671   1.055  12.723 -0.1414  0.1009 -0.1128
  324DOPS   GL2 3796   1.781   0.892  12.967  0.0441  0.0021 -0.1152
  324DOPS   C1A 3797   1.402   1.396  12.677  0.0455 -0.2212 -0.3636
  324DOPS   D2A 3798   1.046   1.584  12.879 -0.2418 -0.4281  0.2438
  324DOPS   C3A 3799   1.059   1.640  13.375 -0.1204  0.0066 -0.0576
  324DOPS   C4A 3800   1.045   1.836  13.800 -0.2374 -0.2559 -0.0565
  324DOPS   C1B 3801   1.879   0.698  13.381 -0.1754 -0.3092  0.2155
  324DOPS   D2B 3802   2.137   0.694  13.741  0.1142 -0.1531 -0.3167
  324DOPS   C3B 3803   1.945   0.676  14.189  0.0502  0.1959 -0.3444
  324DOPS   C4B 3804   1.969   0.844  14.617 -0.2408  0.1602  0.0218
  325DOPE   NH3 3805   4.236   9.642  12.935  0.1371  0.0485  0.1184
  325DOPE   PO4 3806   3.984   9.734  12.780 -0.2275 -0.0025  0.3501
  325DOPE   GL1 3807   3.804   9.704  13.070 -0.1143  0.2137 -0.0125
  325DOPE   GL2 3808   3.863   9.814  13.429 -0.0008  0.2760  0.1146
  325DOPE   C1A 3809   3.431   9.390  13.246 -0.1503  0.0994  0.3032
  325DOPE   D2A 3810   2.998   9.224  13.160  0.1047  0.1472  0.0211
  325DOPE   C3A 3811   2.624   9.384  13.462  0.0353 -0.1412 -0.1129
  325DOPE   C4A 3812   2.457   9.422  13.907  0.0994  0.3002  0.0779
  325DOPE   C1B 3813   4.073   9.779  13.845 -0.0702  0.1443  0.0423
  325DOPE   D2B 3814   4.506   9.788  14.122  0.2377  0.1932 -0.0688
  325DOPE   C3B 3815   4.581   9.327  14.377 -0.0728 -0.3029 -0.0904
  325DOPE   C4B 3816   4.684   9.052  14.787 -0.0697  0.0123 -0.2165
  326DOPE   NH3 3817   3.209   5.297  12.503 -0.1262  0.0442 -0.0118
  326DOPE   PO4 3818   3.292   5.065  12.699 -0.1652 -0.0988 -0.2870
  326DOPE   GL1 3819   3.263   4.806  12.933 -0.4308  0.3500 -0.0542
  326DOPE   GL2 3820   3.091   4.588  12.837  0.4560  0.0529  0.0141
  326DOPE   C1A 3821   3.208   4.843  13.396 -0.1085  0.0437  0.1218
  326DOPE   D2A 3822   3.358   4.710  13.811 -0.1483 -0.0239 -0.0700
  326DOPE   C3A 3823   3.176   4.332  14.038 -0.2599 -0.0999  0.0328
  326DOPE   C4A 3824   3.107   3.891  13.792 -0.3049 -0.0952  0.0129
  326DOPE   C1B 3825   2.887   4.245  13.024 -0.0590 -0.2383  0.1324
  326DOPE   D2B 3826   2.755   3.910  13.357 -0.1702  0.0425  0.1655
  326DOPE   C3B 3827   2.608   3.850  13.740 -0.0555  0.1133 -0.0508
  326DOPE   C4B 3828   2.331   3.849  14.158 -0.0756 -0.0810 -0.0322
  327DOPS   CNO 3829  10.772  10.912  11.991  0.0813 -0.0067  0.2701
  327DOPS   PO4 3830  10.889  11.220  12.184 -0.0706 -0.0289 -0.1468
  327DOPS   GL1 3831  10.908  11.249  12.599  0.0021  0.1617  0.2163
  327DOPS   GL2 3832  10.718  11.149  12.829  0.1510 -0.1270 -0.1559
  327DOPS   C1A 3833  11.036  11.488  12.954 -0.1843  0.0196 -0.2898
  327DOPS   D2A 3834  11.176  11.630  13.378 -0.0793  0.0605  0.0325
  327DOPS   C3A 3835  11.269  11.212  13.456 -0.3091 -0.2694  0.0517
  327DOPS   C4A 3836  11.258  10.751  13.717  0.0952  0.0010  0.0780
  327DOPS   C1B 3837  10.810  11.169  13.268  0.0233 -0.1484  0.0908
  327DOPS   D2B 3838  10.672  10.900  13.679  0.2956 -0.1430  0.2319
  327DOPS   C3B 3839  10.953  11.087  13.946  0.1405  0.0437 -0.0486
  327DOPS   C4B 3840  11.278  11.382  13.958 -0.1252  0.1605  0.0693
  328DOPE   NH3 3841  11.590   2.997  11.440  0.0407 -0.1752 -0.2315
  328DOPE   PO4 3842  11.549   2.762  11.657  0.1197 -0.1556 -0.2064
  328DOPE   GL1 3843  11.278   2.760  11.913 -0.2686 -0.2455  0.0887
  328DOPE   GL2 3844  11.281   2.615  12.133  0.1202  0.1221 -0.0980
  328DOPE   C1A 3845  10.864   2.923  12.122  0.0596  0.2128 -0.1258
  328DOPE   D2A 3846  10.446   2.855  12.394  0.0142  0.0700  0.1218
  328DOPE   C3A 3847  10.044   3.093  12.515  0.0379  0.2039 -0.0705
  328DOPE   C4A 3848   9.762   3.426  12.710 -0.2721  0.0853 -0.0866
  328DOPE   C1B 3849  11.583   2.247  12.003 -0.0107  0.3405  0.1097
  328DOPE   D2B 3850  11.709   1.849  12.157  0.2761  0.0203 -0.1021
  328DOPE   C3B 3851  11.850   1.695  12.560  0.1947 -0.0918 -0.1382
  328DOPE   C4B 3852  11.994   1.675  12.951  0.5282  0.0677 -0.1424
  329DOPS   CNO 3853   5.508   0.987  12.309 -0.0372 -0.1929  0.0080
  329DOPS   PO4 3854   5.694   1.151  12.612  0.2159 -0.0149 -0.2767
  329DOPS   GL1 3855   5.480   1.098  12.960 -0.5254 -0.1594  0.2293
  329DOPS   GL2 3856   5.231   0.846  12.909  0.0241  0.0530  0.1635
  329DOPS   C1A 3857   5.102   1.296  13.140 -0.0925  0.1064 -0.1540
  329DOPS   D2A 3858   4.822   1.212  13.478  0.0500  0.0155  0.1480
  329DOPS   C3A 3859   4.395   1.471  13.469  0.0692  0.2596 -0.1125
  329DOPS   C4A 3860   3.947   1.555  13.398 -0.0037  0.0610 -0.4168
  329DOPS   C1B 3861   5.369   0.645  13.280  0.1063 -0.0352 -0.0323
  329DOPS   D2B 3862   5.774   0.423  13.440 -0.0024 -0.1924  0.0089
  329DOPS   C3B 3863   6.179   0.453  13.278  0.1872  0.1138  0.1224
  329DOPS   C4B 3864   6.595   0.215  13.328  0.3634 -0.0311 -0.0494
  330DOPS   CNO 3865  10.805   0.697  11.604 -0.0642 -0.0928 -0.0704
  330DOPS   PO4 3866  10.832   0.986  11.360  0.2126  0.0805  0.1124
  330DOPS   GL1 3867  10.967   1.183  11.732  0.0350 -0.2032 -0.1349
  330DOPS   GL2 3868  10.698   1.053  11.912  0.1036 -0.2492 -0.1434
  330DOPS   C1A 3869  11.142   1.075  12.134  0.0243 -0.1691  0.1364
  330DOPS   D2A 3870  11.163   1.051  12.626  0.0022 -0.3808 -0.2155
  330DOPS   C3A 3871  11.430   0.884  12.901 -0.1300  0.0495 -0.4030
  330DOPS   C4A 3872  11.727   0.809  13.208  0.2568  0.1199 -0.2281
  330DOPS   C1B 3873  10.684   1.151  12.354 -0.0848 -0.0054  0.0922
  330DOPS   D2B 3874  10.637   0.889  12.706  0.0580 -0.2372  0.2779
  330DOPS   C3B 3875  10.815   1.086  13.070 -0.1390  0.1239 -0.1741
  330DOPS   C4B 3876  10.840   1.392  13.407  0.0123 -0.0131  0.0251
  331DOPC   NC3 3877   4.101   3.071  12.237 -0.1485  0.3201 -0.0725
  331DOPC   PO4 3878   4.408   2.861  12.138 -0.2490  0.0745 -0.2727
  331DOPC   GL1 3879   4.278   2.600  12.516  0.1252 -0.1016 -0.0416
  331DOPC   GL2 3880   4.197   2.716  12.808  0.0226  0.0999 -0.1346
  331DOPC   C1A 3881   4.105   2.252  12.294 -0.0264  0.3251  0.2140
  331DOPC   D2A 3882   3.850   1.888  12.434  0.1593 -0.0754 -0.2001
  331DOPC   C3A 3883   3.476   1.770  12.181  0.1388  0.1150  0.0545
  331DOPC   C4A 3884   3.093   1.589  11.994 -0.1216 -0.0869  0.1653
  331DOPC   C1B 3885   4.430   2.550  13.183  0.0047  0.1790  0.4957
  331DOPC   D2B 3886   4.513   2.150  13.340 -0.0334  0.4296 -0.0023
  331DOPC   C3B 3887   4.635   1.770  13.113 -0.0471 -0.3756  0.0851
  331DOPC   C4B 3888   4.679   1.352  12.867  0.1756  0.0569  0.2158
  332DOPC   NC3 3889  11.054   7.477  12.140 -0.1916 -0.1465 -0.1104
  332DOPC   PO4 3890  10.846   7.392  11.796  0.0514 -0.1013 -0.3375
  332DOPC   GL1 3891  10.567   7.147  11.999  0.2289  0.3032  0.1135
  332DOPC   GL2 3892  10.609   7.295  12.284 -0.3270 -0.3082 -0.0390
  332DOPC   C1A 3893  10.092   7.183  12.059 -0.2139 -0.2394  0.3868
  332DOPC   D2A 3894   9.739   7.133  12.390 -0.1030  0.0348 -0.1048
  332DOPC   C3A 3895   9.788   7.083  12.802  0.3596  0.0828  0.0150
  332DOPC   C4A 3896   9.576   6.863  13.151 -0.0785 -0.3887 -0.1596
  332DOPC   C1B 3897  10.193   7.267  12.504  0.2573 -0.1731 -0.0669
  332DOPC   D2B 3898  10.112   7.434  12.932  0.3686  0.0174 -0.0204
  332DOPC   C3B 3899   9.963   7.855  13.094  0.2944 -0.1698  0.2963
  332DOPC   C4B 3900   9.655   8.051  13.341 -0.2024  0.0559 -0.1023
  333DOPE   NH3 3901   6.546   3.167  12.505  0.1647 -0.0666  0.2001
  333DOPE   PO4 3902   6.464   3.464  12.388 -0.5173  0.2451  0.0471
  333DOPE   GL1 3903   6.599   3.596  12.735  0.4642  0.0355  0.4585
  333DOPE   GL2 3904   6.776   3.789  12.558 -0.2784  0.0360  0.0283
  333DOPE   C1A 3905   6.580   3.597  13.187  0.0175  0.1244 -0.1006
  333DOPE   D2A 3906   6.299   3.373  13.492  0.1521 -0.2094  0.0341
  333DOPE   C3A 3907   6.431   3.449  13.902 -0.0769 -0.1100 -0.3436
  333DOPE   C4A 3908   6.787   3.622  14.070 -0.0602  0.1354  0.3271
  333DOPE   C1B 3909   6.642   4.012  12.930 -0.1373 -0.2599  0.0937
  333DOPE   D2B 3910   6.344   4.248  13.186  0.0621 -0.1859 -0.2674
  333DOPE   C3B 3911   6.138   4.544  13.479  0.0028  0.0872  0.3728
  333DOPE   C4B 3912   6.077   4.731  13.878  0.1331  0.0805 -0.0808
  334DOPC   NC3 3913   9.323  10.756  12.197  0.1410 -0.1992  0.2879
  334DOPC   PO4 3914   9.095  11.110  12.257 -0.0834 -0.0398  0.4438
  334DOPC   GL1 3915   9.200  11.240  12.562 -0.5508  0.3227 -0.2081
  334DOPC   GL2 3916   9.461  11.248  12.524  0.1425 -0.3433  0.1084
  334DOPC   C1A 3917   9.169  11.555  12.893  0.2138 -0.0237  0.1521
  334DOPC   D2A 3918   8.979  11.763  13.274  0.0026 -0.3486 -0.0422
  334DOPC   C3A 3919   8.524  11.871  13.296 -0.1252 -0.3303 -0.1281
  334DOPC   C4A 3920   8.053  11.807  13.340 -0.3717  0.0865  0.1646
  334DOPC   C1B 3921   9.519  11.222  12.990 -0.1288  0.1736  0.0235
  334DOPC   D2B 3922   9.483  10.851  13.249  0.0281  0.2733 -0.1912
  334DOPC   C3B 3923   9.572  10.798  13.649  0.3129  0.0850  0.3244
  334DOPC   C4B 3924   9.849  10.427  13.826  0.1462  0.5394  0.2592
  335POSM   NC3 3925   5.703   2.666  12.574 -0.0493 -0.0126  0.1012
  335POSM   PO4 3926   5.604   2.761  12.947  0.1418  0.0952 -0.1008
  335POSM   AM1 3927   5.470   2.719  13.227  0.0496  0.1473 -0.0667
  335POSM   AM2 3928   5.662   2.744  13.421  0.1036  0.1608 -0.2691
  335POSM   T1A 3929   5.232   2.815  13.690 -0.1282  0.3187  0.1738
  335POSM   C2A 3930   4.841   2.734  13.886  0.0452 -0.1029 -0.1157
  335POSM   C3A 3931   4.370   2.666  13.931  0.3122  0.1776  0.3813
  335POSM   C1B 3932   5.772   2.630  13.734 -0.1067 -0.1072  0.3964
  335POSM   D2B 3933   5.875   2.443  14.131  0.1776  0.0539  0.4041
  335POSM   C3B 3934   5.599   2.295  14.450  0.4943 -0.1249  0.3002
  335POSM   C4B 3935   5.247   2.067  14.756  0.0667 -0.1337 -0.0707
  336DOPC   NC3 3936   3.777   9.167  12.270 -0.2337 -0.1077 -0.1566
  336DOPC   PO4 3937   4.036   8.874  12.259 -0.1165  0.2293 -0.2565
  336DOPC   GL1 3938   3.686   8.721  12.529  0.2859 -0.0041  0.0178
  336DOPC   GL2 3939   3.431   8.882  12.459 -0.2785 -0.1594 -0.0914
  336DOPC   C1A 3940   3.442   8.311  12.624 -0.1464 -0.0356 -0.1546
  336DOPC   D2A 3941   3.103   8.044  12.882  0.1982 -0.1569 -0.0614
  336DOPC   C3A 3942   2.998   8.068  13.343 -0.0431  0.1423  0.0146
  336DOPC   C4A 3943   2.853   7.858  13.737 -0.1908  0.2323  0.0803
  336DOPC   C1B 3944   3.356   8.832  12.909 -0.1122  0.0811 -0.0276
  336DOPC   D2B 3945   3.243   8.479  13.150  0.2008 -0.2071 -0.0593
  336DOPC   C3B 3946   3.178   8.497  13.636 -0.1888 -0.3536 -0.3549
  336DOPC   C4B 3947   3.028   8.733  13.980 -0.1121 -0.1069 -0.1322
  337DOPC   NC3 3948   6.326   9.235  12.370  0.3064  0.0242 -0.1275
  337DOPC   PO4 3949   6.709   9.233  12.472  0.2187  0.4192 -0.0044
  337DOPC   GL1 3950   6.937   9.414  12.649  0.3893  0.4976 -0.4173
  337DOPC   GL2 3951   7.216   9.557  12.568  0.0393  0.2448 -0.0278
  337DOPC   C1A 3952   6.917   9.325  13.083 -0.1291  0.3954 -0.0254
  337DOPC   D2A 3953   6.798   9.052  13.384 -0.1032 -0.0886 -0.0759
  337DOPC   C3A 3954   7.204   8.906  13.652  0.0685  0.1450 -0.0573
  337DOPC   C4A 3955   7.463   8.752  14.025 -0.1494 -0.1032 -0.0869
  337DOPC   C1B 3956   7.321   9.198  12.850  0.1382  0.5005  0.0141
  337DOPC   D2B 3957   7.237   8.817  13.143 -0.0194 -0.0318 -0.0097
  337DOPC   C3B 3958   7.599   8.608  13.379 -0.1471  0.0742  0.3652
  337DOPC   C4B 3959   7.905   8.308  13.300 -0.0588 -0.0099 -0.0265
  338DOPE   NH3 3960   4.043   9.646  12.302  0.2360 -0.3850 -0.1511
  338DOPE   PO4 3961   3.737   9.685  12.328  0.0756  0.4036  0.0597
  338DOPE   GL1 3962   3.509   9.802  12.653 -0.0429  0.2280 -0.0730
  338DOPE   GL2 3963   3.549  10.080  12.617  0.2534  0.1941  0.0909
  338DOPE   C1A 3964   3.090   9.617  12.840  0.2649 -0.0315  0.0528
  338DOPE   D2A 3965   2.845   9.720  13.226 -0.2191 -0.0563  0.2676
  338DOPE   C3A 3966   3.092   9.560  13.589 -0.0239 -0.0864 -0.2201
  338DOPE   C4A 3967   3.495   9.621  13.857  0.0049 -0.2240  0.0517
  338DOPE   C1B 3968   3.156  10.074  12.874  0.1747 -0.2194 -0.1070
  338DOPE   D2B 3969   2.738  10.265  12.835 -0.1583 -0.2177 -0.4124
  338DOPE   C3B 3970   2.369  10.195  13.056 -0.5096 -0.0982 -0.5527
  338DOPE   C4B 3971   2.204   9.900  13.352  0.3167  0.1660 -0.2235
  339DOPE   NH3 3972   0.714  11.021  12.669  0.1084 -0.2176 -0.4054
  339DOPE   PO4 3973   0.892  11.052  12.417 -0.3296 -0.2148 -0.2495
  339DOPE   GL1 3974   1.159  11.008  12.706 -0.4400 -0.1060  0.1513
  339DOPE   GL2 3975   1.362  11.233  12.503 -0.1578  0.0368  0.1273
  339DOPE   C1A 3976   1.612  10.816  12.660  0.0729 -0.0222 -0.1818
  339DOPE   D2A 3977   1.930  10.475  12.834  0.1024 -0.2470 -0.3289
  339DOPE   C3A 3978   1.865  10.290  13.228  0.3364  0.4292 -0.0509
  339DOPE   C4A 3979   2.123  10.319  13.618  0.4128 -0.1793  0.1115
  339DOPE   C1B 3980   1.350  11.350  12.917  0.2136  0.3212 -0.1556
  339DOPE   D2B 3981   1.249  11.557  13.314 -0.1758  0.0825 -0.0701
  339DOPE   C3B 3982   1.456  11.462  13.712 -0.0044  0.0917 -0.1354
  339DOPE   C4B 3983   1.592  11.199  14.000  0.2880  0.0759 -0.1448
  340DOPC   NC3 3984  34.233   6.429  12.373 -0.0199  0.0711  0.3641
  340DOPC   PO4 3985  33.960   6.678  12.438 -0.2183  0.1647  0.2199
  340DOPC   GL1 3986  33.979   6.991  12.846 -0.1892  0.1461  0.1227
  340DOPC   GL2 3987  33.825   6.840  13.049  0.3388 -0.0368 -0.1006
  340DOPC   C1A 3988  34.363   6.980  13.125 -0.0238 -0.0680 -0.1451
  340DOPC   D2A 3989  34.702   7.128  13.463  0.1260 -0.1501 -0.3402
  340DOPC   C3A 3990  35.102   7.178  13.724 -0.0031  0.2263 -0.0193
  340DOPC   C4A 3991  35.532   7.386  13.651 -0.1704 -0.3642  0.2081
  340DOPC   C1B 3992  34.065   6.720  13.448  0.0061 -0.3115 -0.0351
  340DOPC   D2B 3993  34.500   6.663  13.461  0.2710  0.3438  0.2052
  340DOPC   C3B 3994  34.746   6.473  13.834 -0.0984  0.0093 -0.1756
  340DOPC   C4B 3995  34.845   6.260  14.240  0.1179  0.2414 -0.1278
  341DOPE   NH3 3996   8.459   5.903  12.778 -0.0466 -0.0238 -0.2146
  341DOPE   PO4 3997   8.492   5.969  12.457 -0.0308 -0.0493  0.0994
  341DOPE   GL1 3998   8.960   6.000  12.333 -0.1206 -0.3783 -0.3313
  341DOPE   GL2 3999   9.100   5.685  12.343 -0.2562 -0.3445 -0.1317
  341DOPE   C1A 4000   9.289   6.083  12.002  0.1441  0.3148  0.4343
  341DOPE   D2A 4001   9.754   6.010  11.966  0.2409 -0.1515 -0.4064
  341DOPE   C3A 4002  10.033   6.299  12.173 -0.0150 -0.0255  0.0650
  341DOPE   C4A 4003  10.069   6.733  12.366  0.1557  0.2163 -0.0895
  341DOPE   C1B 4004   9.425   5.989  12.475  0.1147  0.0001 -0.1709
  341DOPE   D2B 4005   9.717   6.268  12.620  0.0973 -0.3695 -0.4742
  341DOPE   C3B 4006   9.940   6.508  12.983  0.1079 -0.0107  0.0603
  341DOPE   C4B 4007  10.084   6.856  13.171  0.1259 -0.1383 -0.1079
  342DOPS   CNO 4008   6.454  11.243  12.657 -0.1487  0.0255  0.2203
  342DOPS   PO4 4009   6.418  10.885  12.822  0.0157  0.0331  0.1386
  342DOPS   GL1 4010   6.183  10.548  12.961  0.2852 -0.0149 -0.1296
  342DOPS   GL2 4011   5.950  10.792  12.975  0.4609  0.0902 -0.0288
  342DOPS   C1A 4012   6.242  10.314  13.338 -0.3031  0.0062  0.0726
  342DOPS   D2A 4013   6.000  10.237  13.687 -0.0698  0.2935  0.1786
  342DOPS   C3A 4014   5.792  10.645  13.812 -0.2872 -0.2075  0.2388
  342DOPS   C4A 4015   5.590  11.013  14.016  0.5611 -0.2286  0.0259
  342DOPS   C1B 4016   6.064  10.737  13.451 -0.2993  0.2095 -0.1357
  342DOPS   D2B 4017   6.361  10.566  13.823 -0.3019 -0.1238  0.2801
  342DOPS   C3B 4018   6.499  10.768  14.240 -0.1352 -0.1838 -0.0223
  342DOPS   C4B 4019   6.749  11.016  14.511  0.2571  0.1112 -0.2624
  343DOPC   NC3 4020   3.539  11.217  12.238  0.2210  0.0640 -0.1903
  343DOPC   PO4 4021   3.301  10.976  12.492  0.2100  0.0224 -0.0747
  343DOPC   GL1 4022   3.363  10.996  12.918 -0.1635  0.0461 -0.6622
  343DOPC   GL2 4023   3.569  11.141  12.932 -0.3737  0.0215  0.0744
  343DOPC   C1A 4024   3.326  10.684  13.258 -0.3008 -0.1995  0.0045
  343DOPC   D2A 4025   2.997  10.355  13.246  0.1424  0.0934 -0.3410
  343DOPC   C3A 4026   2.731  10.254  13.583 -0.0998  0.1434 -0.2783
  343DOPC   C4A 4027   2.562   9.855  13.679  0.3711  0.0456  0.0012
  343DOPC   C1B 4028   3.333  11.249  13.269 -0.0951  0.0687 -0.0989
  343DOPC   D2B 4029   2.920  11.017  13.346 -0.2346 -0.0387 -0.0733
  343DOPC   C3B 4030   2.765  10.747  13.705  0.1496 -0.1373 -0.1417
  343DOPC   C4B 4031   2.486  10.501  14.081 -0.0245 -0.0993  0.0053
  344POSM   NC3 4032   8.408   6.464  12.447 -0.0227 -0.2151  0.2943
  344POSM   PO4 4033   8.590   6.794  12.499 -0.4769  0.0857 -0.0533
  344POSM   AM1 4034   8.825   6.915  12.671  0.1123  0.2751 -0.1004
  344POSM   AM2 4035   8.994   6.861  12.890  0.1942  0.1210  0.1376
  344POSM   T1A 4036   8.860   7.343  12.904 -0.0607  0.3356  0.0070
  344POSM   C2A 4037   9.018   7.772  13.011  0.3601 -0.2208  0.2249
  344POSM   C3A 4038   9.424   7.906  12.933  0.2273 -0.0110 -0.2463
  344POSM   C1B 4039   9.035   6.901  13.237 -0.1587  0.0753 -0.0878
  344POSM   D2B 4040   9.229   6.647  13.599  0.1925 -0.3803  0.2673
  344POSM   C3B 4041   9.257   7.110  13.792  0.2283 -0.0983 -0.1606
  344POSM   C4B 4042   9.167   7.560  13.875  0.1997 -0.0504  0.0901
  345DOPC   NC3 4043   2.909   6.827  12.458 -0.2431  0.0710 -0.0225
  345DOPC   PO4 4044   2.474   6.850  12.397 -0.2008  0.0086 -0.0851
  345DOPC   GL1 4045   2.203   6.717  12.766 -0.5543  0.3146  0.2093
  345DOPC   GL2 4046   2.058   6.548  12.619 -0.5169  0.0418 -0.0547
  345DOPC   C1A 4047   1.818   6.751  12.978  0.1438  0.1019 -0.3549
  345DOPC   D2A 4048   1.410   6.829  13.120  0.0037  0.0691  0.1641
  345DOPC   C3A 4049   1.079   6.426  13.194 -0.0643  0.0341 -0.1412
  345DOPC   C4A 4050   0.893   6.072  12.920  0.1909  0.3306 -0.3113
  345DOPC   C1B 4051   1.670   6.344  12.712  0.0770 -0.1515 -0.0539
  345DOPC   D2B 4052   1.421   6.138  13.029 -0.0789 -0.0029 -0.2709
  345DOPC   C3B 4053   1.452   6.104  13.528  0.0184 -0.5756  0.1697
  345DOPC   C4B 4054   1.623   6.232  13.916  0.1082  0.2153  0.0552
  346POSM   NC3 4055   5.288   8.018  12.204 -0.0236 -0.0224 -0.3430
  346POSM   PO4 4056   5.418   8.314  12.482  0.3201  0.2462 -0.0478
  346POSM   AM1 4057   5.413   8.281  12.821 -0.1225 -0.0860 -0.1770
  346POSM   AM2 4058   5.520   8.436  13.017  0.1558  0.0945 -0.0351
  346POSM   T1A 4059   5.248   8.098  13.270 -0.4141 -0.1650 -0.0842
  346POSM   C2A 4060   5.024   7.831  13.604  0.2162  0.1188 -0.0452
  346POSM   C3A 4061   4.752   7.830  13.963  0.0729 -0.2085 -0.1099
  346POSM   C1B 4062   5.730   8.592  13.209  0.1318 -0.1985  0.0474
  346POSM   D2B 4063   5.974   8.761  13.555  0.0118  0.1110  0.1346
  346POSM   C3B 4064   6.386   8.702  13.635  0.0041 -0.0322 -0.1631
  346POSM   C4B 4065   6.612   8.717  14.037 -0.3388 -0.1842 -0.0319
  347DOPE   NH3 4066   3.124   6.346  12.772  0.0300 -0.1249 -0.4345
  347DOPE   PO4 4067   2.960   6.550  12.950 -0.0414 -0.2603 -0.0007
  347DOPE   GL1 4068   2.819   6.380  13.308  0.2006  0.0307  0.3237
  347DOPE   GL2 4069   3.104   6.190  13.294 -0.1923 -0.2440  0.1193
  347DOPE   C1A 4070   2.611   6.558  13.681 -0.0328  0.0029 -0.0225
  347DOPE   D2A 4071   2.260   6.372  14.012 -0.2195  0.0706  0.0510
  347DOPE   C3A 4072   1.885   6.570  14.170  0.0602 -0.0731  0.0669
  347DOPE   C4A 4073   1.506   6.819  14.048  0.0824  0.0520  0.3614
  347DOPE   C1B 4074   3.032   6.284  13.710  0.0457  0.0649 -0.1176
  347DOPE   D2B 4075   2.781   6.377  14.148  0.4265 -0.2767 -0.0055
  347DOPE   C3B 4076   2.505   6.683  14.258  0.0292  0.3394 -0.0968
  347DOPE   C4B 4077   2.364   7.094  14.109 -0.0045 -0.1563  0.2367
  348DOPE   NH3 4078   8.906   6.375  12.643 -0.0577  0.1783 -0.2549
  348DOPE   PO4 4079   8.894   6.100  12.802 -0.4905 -0.1650  0.2264
  348DOPE   GL1 4080   9.299   6.178  12.867 -0.0308  0.1336 -0.1769
  348DOPE   GL2 4081   9.375   6.529  12.855  0.1201  0.0756  0.0618
  348DOPE   C1A 4082   9.380   5.896  13.241  0.1295 -0.0640  0.1113
  348DOPE   D2A 4083   9.315   5.695  13.691  0.2486 -0.0555 -0.0145
  348DOPE   C3A 4084   9.143   5.329  13.894  0.0561  0.2101  0.1563
  348DOPE   C4A 4085   9.195   5.036  14.300 -0.0286 -0.2058  0.0087
  348DOPE   C1B 4086   9.503   6.389  13.287  0.3510 -0.1869  0.1990
  348DOPE   D2B 4087   9.284   6.186  13.689 -0.0767  0.3536  0.0852
  348DOPE   C3B 4088   9.369   6.205  14.150  0.1652 -0.1469  0.1119
  348DOPE   C4B 4089   9.534   6.129  14.574  0.0899 -0.4282 -0.2619
  349DOPS   CNO 4090   6.669   0.903  11.768 -0.3232 -0.2886 -0.1957
  349DOPS   PO4 4091   6.556   0.553  11.803  0.2918 -0.1079 -0.1789
  349DOPS   GL1 4092   6.564   0.263  12.172 -0.0294 -0.0161 -0.2734
  349DOPS   GL2 4093   6.800   0.299  12.341 -0.1325  0.1270  0.0225
  349DOPS   C1A 4094   6.614  -0.147  12.353 -0.2305  0.3363  0.1455
  349DOPS   D2A 4095   6.745  -0.541  12.470  0.0566 -0.0518 -0.1445
  349DOPS   C3A 4096   7.088  -0.906  12.436 -0.0429 -0.3540 -0.0721
  349DOPS   C4A 4097   7.248  -1.261  12.630 -0.0841 -0.3045  0.1007
  349DOPS   C1B 4098   7.035   0.088  12.699  0.1679  0.1604 -0.2272
  349DOPS   D2B 4099   7.413  -0.016  12.971  0.1043  0.0291 -0.2242
  349DOPS   C3B 4100   7.653  -0.066  13.368 -0.0731  0.1034  0.3199
  349DOPS   C4B 4101   7.723  -0.217  13.781  0.0702 -0.0671  0.0429
  350DOPE   NH3 4102   1.747   0.604  12.566 -0.0638  0.4055 -0.1166
  350DOPE   PO4 4103   1.444   0.711  12.495  0.3068 -0.4129  0.1724
  350DOPE   GL1 4104   1.340   0.624  12.906  0.2298  0.0870 -0.2193
  350DOPE   GL2 4105   1.227   0.984  12.901 -0.1422 -0.0887  0.0953
  350DOPE   C1A 4106   1.408   0.694  13.368 -0.0921 -0.2786 -0.0549
  350DOPE   D2A 4107   1.593   0.966  13.731 -0.0853 -0.0881 -0.0085
  350DOPE   C3A 4108   1.737   1.433  13.654  0.0465 -0.3215 -0.1433
  350DOPE   C4A 4109   1.999   1.826  13.681  0.0183  0.0249 -0.0363
  350DOPE   C1B 4110   1.345   1.284  13.175 -0.0186 -0.1357  0.0198
  350DOPE   D2B 4111   1.648   1.660  13.204  0.0092 -0.2263  0.0805
  350DOPE   C3B 4112   1.487   1.964  13.443  0.0869  0.1295 -0.2518
  350DOPE   C4B 4113   1.074   2.186  13.453  0.0394 -0.1882 -0.0474
  351DOPE   NH3 4114  10.033   0.724  11.278  0.0244 -0.0507  0.0929
  351DOPE   PO4 4115   9.836   0.925  11.338  0.1697 -0.0091 -0.1582
  351DOPE   GL1 4116   9.919   0.946  11.781  0.1800 -0.2144 -0.0053
  351DOPE   GL2 4117   9.821   0.692  11.792 -0.0325  0.0421  0.2359
  351DOPE   C1A 4118  10.087   1.003  12.183  0.0795  0.2682  0.0438
  351DOPE   D2A 4119   9.933   1.034  12.623 -0.0312  0.0947 -0.4727
  351DOPE   C3A 4120   9.751   1.436  12.766 -0.2925  0.1940 -0.0267
  351DOPE   C4A 4121   9.642   1.703  13.136  0.1849 -0.0115 -0.1434
  351DOPE   C1B 4122   9.782   0.578  12.267  0.3135  0.1197 -0.2165
  351DOPE   D2B 4123   9.471   0.685  12.666 -0.2789 -0.5002 -0.1759
  351DOPE   C3B 4124   9.455   0.366  12.951 -0.1984 -0.2257  0.3291
  351DOPE   C4B 4125   9.592   0.213  13.333 -0.1526  0.0105  0.1994
  352POSM   NC3 4126  11.826   9.646  12.177  0.2252 -0.4387 -0.1305
  352POSM   PO4 4127  11.445   9.729  12.192 -0.0335  0.0981  0.0911
  352POSM   AM1 4128  11.283   9.634  12.452 -0.1716  0.3165  0.3354
  352POSM   AM2 4129  11.050   9.642  12.557  0.2702  0.0353 -0.3789
  352POSM   T1A 4130  11.193   9.344  12.892 -0.0279 -0.0101 -0.1640
  352POSM   C2A 4131  10.904   9.129  13.173 -0.1886  0.0504  0.0962
  352POSM   C3A 4132  10.485   8.928  13.341 -0.3101  0.1922  0.2728
  352POSM   C1B 4133  10.777   9.592  12.780  0.0686  0.1383  0.1713
  352POSM   D2B 4134  10.527   9.561  13.215 -0.2772 -0.0665 -0.0111
  352POSM   C3B 4135  10.439   9.609  13.664  0.1247  0.1715  0.0421
  352POSM   C4B 4136  10.178   9.617  14.036 -0.3027  0.0596  0.0540
  353DOPC   NC3 4137  11.282   8.859  11.882 -0.2343  0.0946 -0.1217
  353DOPC   PO4 4138  11.413   8.721  12.240  0.1909 -0.0180 -0.2630
  353DOPC   GL1 4139  11.257   8.619  12.557 -0.0883 -0.1850  0.0922
  353DOPC   GL2 4140  11.102   8.899  12.667 -0.1134  0.0276 -0.1786
  353DOPC   C1A 4141  10.841   8.412  12.532  0.0728  0.2161 -0.2460
  353DOPC   D2A 4142  10.419   8.273  12.553  0.2635  0.0667  0.2387
  353DOPC   C3A 4143  10.320   8.226  13.042  0.0995  0.0517  0.0394
  353DOPC   C4A 4144  10.166   8.191  13.510  0.1224 -0.4196  0.3310
  353DOPC   C1B 4145  11.314   8.783  13.051  0.2104 -0.1012  0.1799
  353DOPC   D2B 4146  11.480   8.796  13.415  0.0741  0.1042  0.1956
  353DOPC   C3B 4147  11.684   9.182  13.555  0.0562 -0.2152  0.0476
  353DOPC   C4B 4148  11.547   9.613  13.489 -0.0875 -0.0550 -0.1029
  354DOPC   NC3 4149   5.288   0.326  12.919  0.1116  0.0321 -0.0545
  354DOPC   PO4 4150   5.187   0.474  12.555 -0.2476  0.2299  0.0112
  354DOPC   GL1 4151   4.875   0.475  12.820  0.2237 -0.3653 -0.1745
  354DOPC   GL2 4152   4.739   0.752  12.735 -0.0179  0.0848 -0.1755
  354DOPC   C1A 4153   4.874   0.735  13.223  0.3133  0.3116 -0.1531
  354DOPC   D2A 4154   5.047   0.731  13.654 -0.1355  0.0168  0.2355
  354DOPC   C3A 4155   5.340   0.419  13.726  0.4407  0.1112 -0.1999
  354DOPC   C4A 4156   5.529  -0.009  13.827  0.3746 -0.1817 -0.1703
  354DOPC   C1B 4157   4.333   0.590  12.749 -0.2206 -0.1146 -0.2004
  354DOPC   D2B 4158   4.056   0.332  13.045 -0.1584  0.2221  0.1726
  354DOPC   C3B 4159   4.198   0.098  13.496  0.4022 -0.2605 -0.1723
  354DOPC   C4B 4160   4.553  -0.167  13.572 -0.3870 -0.2782 -0.0898
  355DOPE   NH3 4161   2.981   0.307  11.948  0.0339  0.0131  0.1176
  355DOPE   PO4 4162   3.297   0.272  12.072 -0.0502 -0.2866  0.0789
  355DOPE   GL1 4163   3.691   0.387  12.295 -0.4078 -0.3265  0.3128
  355DOPE   GL2 4164   3.835   0.249  12.546 -0.0141  0.2894  0.0517
  355DOPE   C1A 4165   3.972   0.746  12.312  0.0086 -0.1499 -0.1313
  355DOPE   D2A 4166   4.148   1.062  12.617  0.2135  0.4408 -0.0003
  355DOPE   C3A 4167   4.260   1.085  13.059 -0.2175  0.2028  0.3000
  355DOPE   C4A 4168   3.996   1.059  13.466  0.1322  0.1385  0.2087
  355DOPE   C1B 4169   3.716   0.674  12.775 -0.0439 -0.0188 -0.3208
  355DOPE   D2B 4170   3.769   1.091  12.991  0.1728  0.0023 -0.2466
  355DOPE   C3B 4171   3.522   1.160  13.391 -0.2878 -0.0917  0.1320
  355DOPE   C4B 4172   3.598   1.492  13.678  0.1809  0.3961 -0.0601
  356DOPE   NH3 4173   8.028   4.196  12.284  0.0776  0.2825 -0.2478
  356DOPE   PO4 4174   8.029   3.962  12.544 -0.2028 -0.1949 -0.0501
  356DOPE   GL1 4175   7.920   3.807  12.834  0.1456 -0.0364 -0.2205
  356DOPE   GL2 4176   8.137   3.692  13.003 -0.1593 -0.1313  0.4075
  356DOPE   C1A 4177   7.813   3.748  13.322  0.0751  0.2984  0.1534
  356DOPE   D2A 4178   7.816   3.406  13.612 -0.2492  0.2051  0.2154
  356DOPE   C3A 4179   7.636   3.385  13.972 -0.1100  0.2153 -0.0672
  356DOPE   C4A 4180   7.264   3.487  14.115  0.2274 -0.0057 -0.0301
  356DOPE   C1B 4181   8.294   3.321  13.248  0.0104  0.1816 -0.0243
  356DOPE   D2B 4182   8.521   3.056  13.587  0.0820  0.0072  0.1024
  356DOPE   C3B 4183   8.658   3.373  13.821 -0.4427  0.1871 -0.2003
  356DOPE   C4B 4184   8.610   3.794  13.905  0.1534  0.0618 -0.0088
  357POSM   NC3 4185   6.221   1.381  12.504 -0.2496  0.1755  0.2639
  357POSM   PO4 4186   6.175   0.960  12.532 -0.0305  0.0971  0.4747
  357POSM   AM1 4187   6.161   0.911  12.880  0.1816  0.0662  0.2005
  357POSM   AM2 4188   5.933   0.831  13.081  0.1196  0.1045  0.3597
  357POSM   T1A 4189   6.235   1.099  13.361  0.1118 -0.2043  0.0272
  357POSM   C2A 4190   6.167   1.256  13.847  0.0472  0.1830 -0.1233
  357POSM   C3A 4191   5.985   1.141  14.248  0.1621  0.0199  0.1377
  357POSM   C1B 4192   5.752   1.008  13.310 -0.1571 -0.0675  0.3514
  357POSM   D2B 4193   5.345   1.158  13.548 -0.1621  0.3207 -0.1423
  357POSM   C3B 4194   5.220   1.378  13.991  0.1765 -0.1270  0.3272
  357POSM   C4B 4195   5.105   1.486  14.459  0.0364  0.4437 -0.2063
  358POSM   NC3 4196   7.547   4.820  12.445  0.1394  0.1573  0.1670
  358POSM   PO4 4197   7.841   4.566  12.598  0.1381 -0.1880  0.1448
  358POSM   AM1 4198   7.823   4.680  12.900 -0.0243  0.3455 -0.2137
  358POSM   AM2 4199   7.700   4.633  13.119  0.2501  0.1966 -0.4479
  358POSM   T1A 4200   8.170   4.622  13.199 -0.2642  0.1249  0.1043
  358POSM   C2A 4201   8.451   4.360  13.505  0.0847  0.1639  0.1705
  358POSM   C3A 4202   8.920   4.432  13.409 -0.0134 -0.2857  0.1987
  358POSM   C1B 4203   7.594   4.719  13.449  0.2701 -0.1751 -0.2393
  358POSM   D2B 4204   7.304   4.946  13.785 -0.0120  0.1869 -0.0603
  358POSM   C3B 4205   6.970   4.591  13.878 -0.3097 -0.1114 -0.0742
  358POSM   C4B 4206   6.886   4.154  14.020  0.1685 -0.0943  0.1192
  359POSM   NC3 4207   0.677   9.509  12.607 -0.0383  0.0629  0.3695
  359POSM   PO4 4208   0.815   9.269  12.334  0.0513 -0.4236  0.0309
  359POSM   AM1 4209   1.066   9.245  12.527 -0.4276  0.0477  0.0609
  359POSM   AM2 4210   1.167   9.148  12.820  0.2389 -0.0443  0.2362
  359POSM   T1A 4211   1.527   9.372  12.554  0.0591  0.4430  0.0905
  359POSM   C2A 4212   1.938   9.611  12.473 -0.0463  0.0463 -0.1846
  359POSM   C3A 4213   2.341   9.509  12.347  0.0736 -0.1389 -0.0836
  359POSM   C1B 4214   1.358   9.068  13.141 -0.2539 -0.2432 -0.0050
  359POSM   D2B 4215   1.298   8.683  13.468 -0.4204  0.1046  0.1467
  359POSM   C3B 4216   1.296   8.234  13.341  0.2813 -0.0283 -0.1595
  359POSM   C4B 4217   1.238   7.803  13.448  0.0202  0.0597 -0.0519
  360POSM   NC3 4218   8.847   4.343  11.674 -0.0263  0.1112  0.0902
  360POSM   PO4 4219   9.106   4.211  11.962  0.3257 -0.1642  0.1275
  360POSM   AM1 4220   9.159   4.046  12.217  0.0033  0.0333 -0.2405
  360POSM   AM2 4221   9.036   3.879  12.395 -0.0369  0.0984  0.1614
  360POSM   T1A 4222   9.519   3.730  12.375 -0.1724  0.1890  0.2137
  360POSM   C2A 4223   9.571   3.309  12.301  0.0339  0.0191  0.1891
  360POSM   C3A 4224   9.650   2.920  12.037 -0.1943  0.2604 -0.1904
  360POSM   C1B 4225   9.026   3.515  12.484 -0.0680 -0.2345 -0.0670
  360POSM   D2B 4226   9.066   3.054  12.579  0.1706 -0.0795  0.1350
  360POSM   C3B 4227   8.671   2.823  12.465  0.1707 -0.1325 -0.0005
  360POSM   C4B 4228   8.212   2.793  12.440 -0.1096  0.3108 -0.1537
  361DOPC   NC3 4229   3.469   6.486  13.415  0.3433  0.0590  0.0424
  361DOPC   PO4 4230   3.506   6.331  13.055 -0.0425 -0.2265  0.0818
  361DOPC   GL1 4231   3.938   6.400  13.261  0.1370  0.0330 -0.1749
  361DOPC   GL2 4232   4.031   6.138  13.197  0.0750 -0.2351  0.1198
  361DOPC   C1A 4233   3.880   6.237  13.676 -0.1618 -0.4684  0.0563
  361DOPC   D2A 4234   3.827   5.948  14.073 -0.1097  0.5677  0.1058
  361DOPC   C3A 4235   3.860   5.483  14.244 -0.0258 -0.3280 -0.0774
  361DOPC   C4A 4236   4.042   5.429  14.684 -0.1379  0.0006 -0.2146
  361DOPC   C1B 4237   4.094   5.778  13.451  0.0427  0.0601 -0.1306
  361DOPC   D2B 4238   3.806   5.566  13.761 -0.1985 -0.5162 -0.2788
  361DOPC   C3B 4239   3.823   5.130  13.803  0.0487  0.2838  0.0690
  361DOPC   C4B 4240   3.932   4.979  14.207  0.3184 -0.1890  0.1965
  362DOPC   NC3 4241   8.943   1.012  11.756  0.2302  0.1260  0.2163
  362DOPC   PO4 4242   8.558   1.058  11.711 -0.0123  0.1136  0.1489
  362DOPC   GL1 4243   8.517   0.918  11.961  0.1532  0.0677 -0.4206
  362DOPC   GL2 4244   8.697   0.689  12.026  0.1718  0.2655 -0.0324
  362DOPC   C1A 4245   8.570   1.005  12.382 -0.1120 -0.3345 -0.1824
  362DOPC   D2A 4246   8.681   1.036  12.765  0.1064 -0.1342  0.0691
  362DOPC   C3A 4247   8.936   1.245  13.090  0.1133 -0.0579  0.2214
  362DOPC   C4A 4248   9.319   1.243  13.290  0.1285  0.1561 -0.2853
  362DOPC   C1B 4249   9.047   0.810  12.284  0.0742 -0.1387  0.1432
  362DOPC   D2B 4250   9.477   1.054  12.265 -0.1497  0.1346 -0.1142
  362DOPC   C3B 4251   9.320   1.149  12.660  0.1052 -0.0508 -0.2160
  362DOPC   C4B 4252   9.220   1.571  12.833  0.1104  0.0681  0.2001
  363DOPE   NH3 4253   8.155   7.004  12.536  0.0103 -0.0191 -0.0981
  363DOPE   PO4 4254   8.187   6.798  12.820  0.1519 -0.1604 -0.2038
  363DOPE   GL1 4255   8.465   7.078  12.920 -0.0436  0.1975 -0.0934
  363DOPE   GL2 4256   8.337   7.284  12.874  0.2468  0.1258 -0.0283
  363DOPE   C1A 4257   8.633   7.220  13.381 -0.3332 -0.3428  0.0435
  363DOPE   D2A 4258   8.662   7.488  13.832 -0.0388  0.0473  0.0298
  363DOPE   C3A 4259   8.876   7.271  14.155 -0.1778  0.2696 -0.2871
  363DOPE   C4A 4260   8.995   6.824  14.238 -0.0867  0.0075 -0.0724
  363DOPE   C1B 4261   8.489   7.619  13.151  0.1641 -0.0125  0.3537
  363DOPE   D2B 4262   8.720   7.786  13.447 -0.1410  0.0325  0.2734
  363DOPE   C3B 4263   8.784   8.192  13.658 -0.1761  0.3334 -0.0473
  363DOPE   C4B 4264   8.505   8.525  13.832 -0.0979  0.1741  0.2339
  364DOPC   NC3 4265   7.112   6.849  12.639  0.0323  0.0604 -0.1512
  364DOPC   PO4 4266   7.253   7.201  12.515  0.1348 -0.1651  0.1672
  364DOPC   GL1 4267   7.456   7.380  12.862 -0.4713  0.9489 -0.2160
  364DOPC   GL2 4268   7.426   7.603  12.766  0.1291  0.0099 -0.1540
  364DOPC   C1A 4269   7.869   7.307  13.074 -0.0028 -0.1593 -0.1461
  364DOPC   D2A 4270   8.136   7.071  13.327 -0.1842 -0.2375  0.0092
  364DOPC   C3A 4271   8.014   7.037  13.790  0.0476  0.0538  0.2541
  364DOPC   C4A 4272   7.892   7.117  14.208 -0.1475  0.2710 -0.1927
  364DOPC   C1B 4273   7.504   7.935  13.057 -0.0503 -0.1383  0.0216
  364DOPC   D2B 4274   7.312   8.229  13.349 -0.0848  0.1534 -0.0095
  364DOPC   C3B 4275   7.408   8.241  13.823  0.1495  0.1959 -0.0401
  364DOPC   C4B 4276   7.562   8.229  14.250  0.0280  0.3095 -0.1743
  365DOPC   NC3 4277  11.244   8.236  12.303 -0.2112  0.1057 -0.0749
  365DOPC   PO4 4278  11.130   8.358  11.944  0.0721 -0.0996 -0.0950
  365DOPC   GL1 4279  10.792   8.460  12.109  0.1483  0.1422  0.1472
  365DOPC   GL2 4280  10.917   8.750  12.225  0.2600 -0.1811  0.3357
  365DOPC   C1A 4281  10.385   8.244  12.078  0.1911  0.0567  0.2989
  365DOPC   D2A 4282   9.931   8.253  11.993  0.0006 -0.2618 -0.0223
  365DOPC   C3A 4283   9.533   8.411  12.232 -0.0159 -0.4115  0.1700
  365DOPC   C4A 4284   9.111   8.533  12.328 -0.2330  0.1081  0.0499
  365DOPC   C1B 4285  10.462   8.732  12.303  0.0313 -0.0746 -0.2873
  365DOPC   D2B 4286  10.061   8.618  12.503  0.0174 -0.3271 -0.0257
  365DOPC   C3B 4287  10.005   8.755  12.981 -0.0665 -0.1147  0.2356
  365DOPC   C4B 4288   9.952   8.758  13.419 -0.0859 -0.1153 -0.0527
  366DOPS   CNO 4289   6.946  12.133  12.433 -0.1442  0.2916  0.1619
  366DOPS   PO4 4290   7.191  12.391  12.478  0.1256 -0.0023  0.3335
  366DOPS   GL1 4291   7.546  12.323  12.699 -0.2643  0.2947  0.0400
  366DOPS   GL2 4292   7.592  12.078  12.770 -0.2374 -0.0690  0.0772
  366DOPS   C1A 4293   8.009  12.368  12.788  0.0562 -0.1979 -0.0465
  366DOPS   D2A 4294   8.267  12.253  13.107  0.1590  0.1946 -0.1597
  366DOPS   C3A 4295   8.443  12.554  13.392 -0.1211 -0.2785 -0.0649
  366DOPS   C4A 4296   8.566  12.573  13.831  0.1045 -0.1644 -0.0689
  366DOPS   C1B 4297   7.771  11.683  12.977  0.0616  0.0202 -0.0013
  366DOPS   D2B 4298   8.061  11.312  13.077 -0.0413  0.0240 -0.0102
  366DOPS   C3B 4299   8.140  10.918  13.285  0.0916 -0.0827  0.0277
  366DOPS   C4B 4300   8.009  10.715  13.690 -0.1706  0.0827 -0.1902
  367POSM   NC3 4301  11.559   5.800  11.926 -0.1331  0.1469 -0.1274
  367POSM   PO4 4302  11.400   5.617  12.200 -0.1478  0.0241 -0.2296
  367POSM   AM1 4303  11.138   5.674  12.410 -0.2814  0.0818  0.2767
  367POSM   AM2 4304  10.934   5.879  12.460 -0.1260 -0.0841  0.0568
  367POSM   T1A 4305  10.729   5.363  12.534 -0.1285  0.1919  0.3921
  367POSM   C2A 4306  10.328   5.307  12.350 -0.2491 -0.2384 -0.2388
  367POSM   C3A 4307   9.948   5.226  12.520  0.0124  0.0523 -0.2017
  367POSM   C1B 4308  10.653   5.912  12.522 -0.1374 -0.0318 -0.0126
  367POSM   D2B 4309  10.256   5.647  12.731 -0.0652  0.0275  0.1135
  367POSM   C3B 4310   9.977   5.559  13.146  0.2815 -0.2296 -0.2976
  367POSM   C4B 4311   9.554   5.449  13.146 -0.0321 -0.1792 -0.1153
  368DOPS   CNO 4312   7.185   9.681  12.120  0.0183 -0.2562  0.4618
  368DOPS   PO4 4313   7.558   9.797  12.169 -0.1164  0.1181 -0.1045
  368DOPS   GL1 4314   7.755   9.609  12.456 -0.0177  0.1245 -0.0399
  368DOPS   GL2 4315   7.779   9.861  12.610 -0.0029 -0.5302  0.0330
  368DOPS   C1A 4316   7.742   9.182  12.676  0.0980 -0.1495 -0.2225
  368DOPS   D2A 4317   7.894   8.786  12.874  0.1591  0.1446 -0.0086
  368DOPS   C3A 4318   8.097   8.738  13.356  0.0223  0.0787 -0.2576
  368DOPS   C4A 4319   8.329   8.956  13.681  0.3236 -0.1523  0.0270
  368DOPS   C1B 4320   7.773   9.547  12.932 -0.0118 -0.2145 -0.5094
  368DOPS   D2B 4321   7.686   9.114  13.152  0.0476  0.3898 -0.0893
  368DOPS   C3B 4322   7.719   9.018  13.625  0.2597  0.1854  0.1954
  368DOPS   C4B 4323   7.944   9.342  13.941  0.1722  0.0171 -0.3568
  369POSM   NC3 4324   3.077   5.349  13.044 -0.2422  0.2012  0.4528
  369POSM   PO4 4325   2.706   5.504  12.920 -0.0199 -0.0675  0.0154
  369POSM   AM1 4326   2.584   5.616  13.199 -0.0747  0.1761 -0.4603
  369POSM   AM2 4327   2.760   5.763  13.367 -0.0454  0.1414 -0.0518
  369POSM   T1A 4328   2.345   5.674  13.608  0.1592 -0.0652 -0.0747
  369POSM   C2A 4329   2.134   5.874  13.892 -0.3827  0.1728  0.0608
  369POSM   C3A 4330   2.039   6.041  14.320 -0.0987 -0.2665  0.0272
  369POSM   C1B 4331   2.951   5.639  13.620  0.0806 -0.2954 -0.1600
  369POSM   D2B 4332   3.278   5.543  13.951 -0.2394  0.1303 -0.0519
  369POSM   C3B 4333   2.984   5.537  14.271 -0.1101  0.5577 -0.4214
  369POSM   C4B 4334   2.675   5.424  14.536  0.0421 -0.2943 -0.0357
  370DOPC   NC3 4335   3.518   9.326  12.772 -0.1014  0.1094 -0.2939
  370DOPC   PO4 4336   3.919   9.259  12.730  0.1246 -0.0638  0.0661
  370DOPC   GL1 4337   3.934   9.293  13.017  0.1475 -0.0834 -0.0092
  370DOPC   GL2 4338   4.027   9.031  13.112 -0.4698  0.1009  0.0414
  370DOPC   C1A 4339   3.961   9.336  13.499 -0.0886  0.0595 -0.2294
  370DOPC   D2A 4340   4.344   9.337  13.762 -0.2205 -0.1507  0.2241
  370DOPC   C3A 4341   4.288   9.054  14.115 -0.0354  0.1356  0.1018
  370DOPC   C4A 4342   4.092   8.664  14.054  0.1153  0.2867  0.0634
  370DOPC   C1B 4343   3.610   8.930  13.349 -0.0967  0.3065  0.0099
  370DOPC   D2B 4344   3.219   9.024  13.519 -0.2015 -0.0411  0.0292
  370DOPC   C3B 4345   2.827   8.904  13.504 -0.0282  0.0409  0.0192
  370DOPC   C4B 4346   2.361   8.986  13.581  0.3782 -0.3418  0.1436
  371DOPC   NC3 4347   8.741   4.778  12.544  0.4674 -0.2396  0.1368
  371DOPC   PO4 4348   8.663   5.007  12.840  0.0743 -0.2537  0.0464
  371DOPC   GL1 4349   8.824   4.694  13.009 -0.0699 -0.4660  0.2144
  371DOPC   GL2 4350   8.563   4.501  12.971 -0.0137  0.1971  0.4116
  371DOPC   C1A 4351   8.536   4.802  13.470 -0.4168 -0.0174  0.2218
  371DOPC   D2A 4352   8.125   4.749  13.676  0.0526 -0.1128  0.1592
  371DOPC   C3A 4353   8.085   4.659  14.104  0.2142  0.0442 -0.1822
  371DOPC   C4A 4354   8.081   4.603  14.567  0.1242  0.3063  0.0508
  371DOPC   C1B 4355   8.860   4.151  12.988  0.1105  0.0672  0.2575
  371DOPC   D2B 4356   9.154   3.781  12.905 -0.2691 -0.0420 -0.2076
  371DOPC   C3B 4357   9.314   3.319  12.972 -0.0148 -0.2118 -0.0653
  371DOPC   C4B 4358   9.526   3.025  12.782  0.4333  0.4328  0.1035
  372DOPC   NC3 4359   2.453   0.025  12.766  0.3248 -0.1337  0.1445
  372DOPC   PO4 4360   2.109   0.299  12.692 -0.4106 -0.1942  0.0520
  372DOPC   GL1 4361   2.077   0.230  13.051  0.1343 -0.4339 -0.0780
  372DOPC   GL2 4362   2.290   0.408  13.173 -0.1518 -0.0010  0.0933
  372DOPC   C1A 4363   2.095   0.053  13.441 -0.2765 -0.1565 -0.0767
  372DOPC   D2A 4364   1.976   0.205  13.885 -0.0717  0.2029 -0.2567
  372DOPC   C3A 4365   1.623  -0.082  14.041 -0.1075 -0.0942 -0.2235
  372DOPC   C4A 4366   1.481  -0.235  14.449  0.1074 -0.0733 -0.3173
  372DOPC   C1B 4367   2.484   0.773  13.385 -0.0478 -0.0553 -0.0376
  372DOPC   D2B 4368   2.484   1.052  13.757 -0.0305 -0.2320  0.1375
  372DOPC   C3B 4369   2.785   0.940  14.101 -0.4103 -0.1209  0.2657
  372DOPC   C4B 4370   3.235   1.024  14.126  0.0425 -0.0801  0.2581
  373POSM   NC3 4371   7.609  10.937  13.040 -0.3025  0.3161 -0.1476
  373POSM   PO4 4372   7.839  10.772  12.697 -0.0296  0.2678 -0.1903
  373POSM   AM1 4373   7.915  10.513  12.916  0.2408  0.0012  0.2557
  373POSM   AM2 4374   7.960  10.257  12.850 -0.0487  0.0836  0.0369
  373POSM   T1A 4375   8.264  10.380  13.227  0.0103 -0.2532  0.0130
  373POSM   C2A 4376   8.346  10.223  13.590  0.0141  0.1919 -0.1257
  373POSM   C3A 4377   8.433  10.105  14.056  0.0578 -0.0831 -0.1382
  373POSM   C1B 4378   7.790  10.073  13.101  0.0635 -0.0659  0.0889
  373POSM   D2B 4379   7.534   9.963  13.435 -0.0400 -0.3006  0.0658
  373POSM   C3B 4380   7.471   9.904  13.890 -0.0550  0.0027 -0.1956
  373POSM   C4B 4381   7.279   9.885  14.307 -0.0906 -0.2155  0.0493
  374POSM   NC3 4382   2.322   4.135  12.041  0.3560  0.3585  0.2036
  374POSM   PO4 4383   1.946   4.035  11.928 -0.1794 -0.1690  0.1670
  374POSM   AM1 4384   2.050   3.794  12.157  0.2983 -0.1662 -0.1502
  374POSM   AM2 4385   2.073   3.753  12.440 -0.1551 -0.1575 -0.1259
  374POSM   T1A 4386   2.034   3.326  12.237  0.0503  0.0416 -0.1720
  374POSM   C2A 4387   2.208   2.944  12.447 -0.3712 -0.1305  0.1071
  374POSM   C3A 4388   2.627   2.722  12.465  0.1808 -0.0981 -0.2305
  374POSM   C1B 4389   2.429   3.595  12.464  0.2340 -0.0957 -0.1245
  374POSM   D2B 4390   2.656   3.215  12.513  0.1956  0.1368 -0.2523
  374POSM   C3B 4391   3.028   3.398  12.584 -0.3472  0.1043 -0.1000
  374POSM   C4B 4392   3.281   3.705  12.847 -0.0552 -0.0165 -0.0917
  375DOPE   NH3 4393   5.972   3.101  12.563  0.0464 -0.0673 -0.1873
  375DOPE   PO4 4394   6.167   3.330  12.750 -0.3964  0.0269  0.1921
  375DOPE   GL1 4395   5.987   3.572  12.938  0.0562  0.2308 -0.0797
  375DOPE   GL2 4396   6.053   3.665  13.218  0.2617 -0.1481 -0.1691
  375DOPE   C1A 4397   6.006   4.038  12.913  0.1052  0.2434 -0.0293
  375DOPE   D2A 4398   6.247   4.297  12.555 -0.1105  0.0196 -0.4197
  375DOPE   C3A 4399   6.543   4.687  12.497  0.4004  0.3487  0.0066
  375DOPE   C4A 4400   6.797   4.896  12.166  0.3620 -0.1698  0.0263
  375DOPE   C1B 4401   5.727   3.974  13.473  0.0289  0.0696  0.0771
  375DOPE   D2B 4402   5.624   4.497  13.576 -0.0071 -0.2436 -0.1068
  375DOPE   C3B 4403   5.769   4.911  13.498 -0.2554 -0.2255  0.0918
  375DOPE   C4B 4404   5.604   5.281  13.596  0.1897 -0.3408  0.1186
  376DOPS   CNO 4405  11.479   3.142  12.028  0.1202  0.2400 -0.0027
  376DOPS   PO4 4406  11.282   3.284  11.709  0.1324 -0.2734  0.1382
  376DOPS   GL1 4407  11.120   3.550  11.777  0.1780  0.0253  0.2328
  376DOPS   GL2 4408  11.188   3.835  11.615 -0.1948  0.1171 -0.0524
  376DOPS   C1A 4409  11.097   3.889  12.093 -0.2252 -0.0814  0.1560
  376DOPS   D2A 4410  11.247   4.324  12.155 -0.1488 -0.1272 -0.3176
  376DOPS   C3A 4411  11.077   4.447  12.608 -0.0660 -0.2905 -0.0275
  376DOPS   C4A 4412  10.830   4.270  12.974  0.0904  0.1877  0.3803
  376DOPS   C1B 4413  10.939   4.232  11.684 -0.2139 -0.3102  0.1972
  376DOPS   D2B 4414  10.669   4.401  12.075 -0.1900 -0.1633 -0.0502
  376DOPS   C3B 4415  10.660   4.210  12.471  0.2014  0.1553 -0.2759
  376DOPS   C4B 4416  10.585   3.825  12.653  0.2209  0.4243  0.0283
  377DOPE   NH3 4417  11.260  10.886  12.078 -0.1134  0.2838 -0.0921
  377DOPE   PO4 4418  11.257  10.859  12.394 -0.1023  0.0401  0.3319
  377DOPE   GL1 4419  11.391  10.798  12.788 -0.0833 -0.1575 -0.0667
  377DOPE   GL2 4420  11.207  10.973  12.867  0.2699 -0.2013  0.0983
  377DOPE   C1A 4421  11.469  10.826  13.286  0.0542  0.1465 -0.0458
  377DOPE   D2A 4422  11.750  10.611  13.652 -0.0232 -0.2075 -0.1262
  377DOPE   C3A 4423  11.632  10.694  14.117 -0.1060  0.1640  0.0570
  377DOPE   C4A 4424  11.393  10.995  14.416  0.2379 -0.0726  0.4460
  377DOPE   C1B 4425  10.918  10.626  12.997  0.3429  0.0963  0.2678
  377DOPE   D2B 4426  10.617  10.508  13.302  0.0024 -0.0257 -0.0199
  377DOPE   C3B 4427  10.818  10.456  13.783 -0.0372  0.0836  0.1640
  377DOPE   C4B 4428  10.604  10.650  14.170  0.1992 -0.0154  0.0042
  378DOPC   NC3 4429   1.554   5.128  12.461 -0.0330 -0.1538  0.1413
  378DOPC   PO4 4430   1.443   4.741  12.373 -0.1419 -0.0125  0.1514
  378DOPC   GL1 4431   1.091   4.985  12.470  0.0942  0.0976  0.4837
  378DOPC   GL2 4432   1.131   4.989  12.753  0.0016  0.2990  0.0200
  378DOPC   C1A 4433   1.015   5.437  12.539 -0.0794  0.1997  0.1260
  378DOPC   D2A 4434   1.106   5.911  12.424  0.4332 -0.0807  0.0618
  378DOPC   C3A 4435   1.387   6.263  12.278 -0.0522 -0.1298  0.1197
  378DOPC   C4A 4436   1.829   6.404  12.191 -0.3774 -0.0229  0.0080
  378DOPC   C1B 4437   0.810   4.956  13.086  0.0439  0.1527  0.1119
  378DOPC   D2B 4438   0.711   5.237  13.434 -0.0629  0.0904  0.1100
  378DOPC   C3B 4439   0.498   5.642  13.620 -0.0950 -0.2162  0.1696
  378DOPC   C4B 4440   0.580   5.951  13.959 -0.0037 -0.1852  0.1891
  379DOPC   NC3 4441   4.733   3.249  12.873  0.1514  0.0904  0.2950
  379DOPC   PO4 4442   4.612   2.987  12.601 -0.2046 -0.0062 -0.1622
  379DOPC   GL1 4443   4.406   3.287  12.501 -0.3698  0.1063 -0.0138
  379DOPC   GL2 4444   4.135   3.331  12.722 -0.1861  0.1646 -0.1910
  379DOPC   C1A 4445   4.287   3.768  12.565 -0.0002  0.1643 -0.1060
  379DOPC   D2A 4446   4.090   3.913  12.915  0.0372  0.1574  0.1581
  379DOPC   C3A 4447   3.879   3.583  13.092  0.2286 -0.1159  0.2608
  379DOPC   C4A 4448   3.829   3.209  13.355 -0.1660 -0.0918 -0.1180
  379DOPC   C1B 4449   4.273   3.078  13.130  0.3232 -0.3061  0.1689
  379DOPC   D2B 4450   4.210   2.948  13.592  0.0953  0.1084  0.0545
  379DOPC   C3B 4451   3.875   2.722  13.834  0.1777 -0.1510  0.1050
  379DOPC   C4B 4452   3.539   2.714  14.140 -0.1594 -0.1056  0.1303
  380POSM   NC3 4453  11.442   7.439  11.761  0.0898 -0.2540 -0.0205
  380POSM   PO4 4454  11.313   7.069  11.865 -0.0952 -0.1225 -0.1804
  380POSM   AM1 4455  11.056   6.940  12.039 -0.0223  0.1041 -0.4718
  380POSM   AM2 4456  10.965   6.965  12.290  0.1093  0.1442  0.0153
  380POSM   T1A 4457  10.619   6.660  12.022  0.0238  0.1352 -0.0822
  380POSM   C2A 4458  10.496   6.332  12.317  0.0168 -0.0620 -0.0787
  380POSM   C3A 4459  10.233   6.194  12.657 -0.1890  0.4172 -0.0666
  380POSM   C1B 4460  10.747   6.773  12.483  0.1522  0.0874 -0.0326
  380POSM   D2B 4461  10.419   6.844  12.794 -0.0614 -0.0845  0.1186
  380POSM   C3B 4462  10.427   6.445  13.101 -0.1308 -0.0192 -0.1812
  380POSM   C4B 4463  10.392   6.019  13.177  0.1902  0.1064 -0.2083
  381POSM   NC3 4464   0.431  10.012  12.310  0.0162  0.0345  0.1160
  381POSM   PO4 4465   0.220   9.685  12.399  0.0167 -0.1523 -0.0852
  381POSM   AM1 4466   0.173   9.385  12.493  0.3139 -0.1608  0.2166
  381POSM   AM2 4467   0.212   9.329  12.774 -0.2943 -0.2394 -0.0742
  381POSM   T1A 4468   0.273   8.904  12.520  0.1198  0.0384  0.0206
  381POSM   C2A 4469   0.331   8.469  12.489  0.0713  0.3420 -0.1098
  381POSM   C3A 4470   0.610   8.091  12.677 -0.2460  0.0173  0.2011
  381POSM   C1B 4471   0.314   9.532  13.022  0.0308 -0.1402  0.0617
  381POSM   D2B 4472   0.605   9.737  13.324 -0.1984  0.2552  0.0574
  381POSM   C3B 4473   0.919  10.105  13.194  0.0479 -0.1343  0.0951
  381POSM   C4B 4474   1.418  10.118  13.170  0.0430 -0.0630  0.2879
  382DOPS   CNO 4475   6.912   3.331  12.213 -0.1244 -0.3590  0.0646
  382DOPS   PO4 4476   7.182   3.542  12.366  0.1001  0.0312  0.0438
  382DOPS   GL1 4477   7.274   3.212  12.425 -0.1040  0.0766 -0.2103
  382DOPS   GL2 4478   7.309   2.996  12.211  0.0007  0.1848  0.0779
  382DOPS   C1A 4479   7.430   3.107  12.897  0.1666 -0.1032  0.0746
  382DOPS   D2A 4480   7.760   2.962  13.207 -0.0014  0.1510 -0.0699
  382DOPS   C3A 4481   7.762   2.931  13.585 -0.1019 -0.2153  0.1571
  382DOPS   C4A 4482   8.065   3.085  13.932 -0.0891  0.1710 -0.1884
  382DOPS   C1B 4483   7.385   2.557  12.163 -0.0273  0.6655 -0.0683
  382DOPS   D2B 4484   7.445   2.263  12.518  0.0585  0.0336  0.1297
  382DOPS   C3B 4485   7.884   2.391  12.676  0.1971 -0.1291 -0.0542
  382DOPS   C4B 4486   8.019   2.484  13.073 -0.1278 -0.1136  0.4407
  383POSM   NC3 4487   2.787  34.337  12.311 -0.1694 -0.0829 -0.0654
  383POSM   PO4 4488   3.059  34.558  12.518  0.3179  0.1982 -0.4493
  383POSM   AM1 4489   2.862  34.503  12.774 -0.2466 -0.3493 -0.0516
  383POSM   AM2 4490   2.692  34.310  12.848  0.0439  0.1006 -0.0562
  383POSM   T1A 4491   2.683  34.712  13.193 -0.2950 -0.0363  0.0700
  383POSM   C2A 4492   2.518  34.558  13.603  0.2044 -0.1497 -0.1577
  383POSM   C3A 4493   2.407  34.692  14.058  0.1528 -0.4112  0.1147
  383POSM   C1B 4494   2.884  34.229  13.110 -0.2356  0.1784 -0.3456
  383POSM   D2B 4495   2.841  34.116  13.594 -0.1039 -0.2739  0.2518
  383POSM   C3B 4496   2.963  34.397  13.947  0.1889 -0.0898 -0.0458
  383POSM   C4B 4497   3.258  34.709  13.995 -0.0428  0.1101  0.2500
  384DOPE   NH3 4498   6.725   9.720  12.382  0.2507  0.2211  0.0146
  384DOPE   PO4 4499   6.428   9.755  12.326  0.2270  0.0080  0.0939
  384DOPE   GL1 4500   6.076   9.603  12.481 -0.2721 -0.2413 -0.1064
  384DOPE   GL2 4501   5.910   9.836  12.413  0.1139  0.0073  0.2503
  384DOPE   C1A 4502   6.020   9.370  12.858  0.2008  0.2964  0.2829
  384DOPE   D2A 4503   5.831   9.085  13.130  0.1702  0.2272  0.0885
  384DOPE   C3A 4504   5.622   9.126  13.555  0.0276  0.2283 -0.0301
  384DOPE   C4A 4505   5.689   9.028  14.025 -0.2240 -0.0156  0.3380
  384DOPE   C1B 4506   5.590   9.483  12.524 -0.0441  0.0250  0.0621
  384DOPE   D2B 4507   5.507   9.055  12.750 -0.0948 -0.1131 -0.2428
  384DOPE   C3B 4508   5.246   8.957  13.130 -0.0415 -0.3886  0.1018
  384DOPE   C4B 4509   5.104   9.023  13.554 -0.0205 -0.0331 -0.1060
  385DOPE   NH3 4510   2.680   0.857  12.334  0.0490  0.1571  0.1488
  385DOPE   PO4 4511   2.939   1.011  12.299  0.4216 -0.1536 -0.0344
  385DOPE   GL1 4512   2.794   1.366  12.299 -0.1769  0.1365  0.3153
  385DOPE   GL2 4513   2.480   1.331  12.206  0.0536  0.1231  0.2668
  385DOPE   C1A 4514   2.758   1.842  12.327 -0.1625  0.1282  0.4540
  385DOPE   D2A 4515   2.511   2.184  12.456 -0.2793 -0.2910 -0.0519
  385DOPE   C3A 4516   2.525   2.434  12.888 -0.1271  0.1056  0.0047
  385DOPE   C4A 4517   2.404   2.259  13.304 -0.1469  0.0904  0.3649
  385DOPE   C1B 4518   2.207   1.686  12.334 -0.1820  0.4031  0.0755
  385DOPE   D2B 4519   1.859   1.725  12.568 -0.2102 -0.1457 -0.0285
  385DOPE   C3B 4520   1.960   1.497  12.900  0.1090  0.0544 -0.1082
  385DOPE   C4B 4521   2.000   1.263  13.288  0.2928 -0.4043 -0.3042
  386DOPE   NH3 4522   2.477   0.592  12.683  0.0925  0.0325 -0.0905
  386DOPE   PO4 4523   2.236   0.789  12.796 -0.0894  0.1127  0.0650
  386DOPE   GL1 4524   2.493   1.077  12.661  0.5398 -0.0555  0.4190
  386DOPE   GL2 4525   2.728   1.019  12.872 -0.2688  0.0518  0.0068
  386DOPE   C1A 4526   2.652   1.493  12.731 -0.1777  0.1436  0.0500
  386DOPE   D2A 4527   2.747   1.928  12.822  0.0114 -0.2277  0.0997
  386DOPE   C3A 4528   2.808   1.982  13.337  0.2709  0.0846 -0.0734
  386DOPE   C4A 4529   2.555   2.031  13.702  0.4418  0.0451  0.0011
  386DOPE   C1B 4530   2.515   1.304  13.203 -0.2270  0.3341  0.0527
  386DOPE   D2B 4531   2.525   1.502  13.616  0.2115 -0.3081  0.1129
  386DOPE   C3B 4532   2.377   1.647  14.008  0.1184  0.0115  0.0523
  386DOPE   C4B 4533   2.385   2.085  14.244 -0.0253  0.0315  0.5511
  387DOPS   CNO 4534   5.792   1.416  12.154  0.0510  0.1955  0.1314
  387DOPS   PO4 4535   5.411   1.450  12.041  0.0818  0.0721 -0.1452
  387DOPS   GL1 4536   5.327   1.635  12.444 -0.0709  0.1284 -0.3361
  387DOPS   GL2 4537   5.236   1.453  12.673  0.1270 -0.3040 -0.0699
  387DOPS   C1A 4538   4.915   1.831  12.667  0.2282  0.1920  0.2558
  387DOPS   D2A 4539   4.716   2.236  12.807 -0.0233 -0.0324 -0.2764
  387DOPS   C3A 4540   4.260   2.209  12.764 -0.2058 -0.0509 -0.0372
  387DOPS   C4A 4541   3.805   2.213  12.977  0.2153  0.2051 -0.0068
  387DOPS   C1B 4542   4.827   1.387  12.365 -0.0674  0.1350 -0.1375
  387DOPS   D2B 4543   4.364   1.505  12.415 -0.2358 -0.3077  0.0663
  387DOPS   C3B 4544   4.193   1.649  12.838 -0.0609 -0.2170 -0.0034
  387DOPS   C4B 4545   4.156   1.919  13.193  0.1342 -0.3638 -0.4278
  388POSM   NC3 4546   7.002   2.453  12.607 -0.0952 -0.3440 -0.3234
  388POSM   PO4 4547   6.839   2.749  12.401  0.1866  0.0588 -0.0055
  388POSM   AM1 4548   6.950   2.928  12.644  0.2571  0.5557 -0.1134
  388POSM   AM2 4549   6.962   3.209  12.740 -0.0889  0.0872  0.0605
  388POSM   T1A 4550   7.067   2.914  13.193  0.0231  0.2118  0.0426
  388POSM   C2A 4551   7.316   2.620  13.518 -0.0225  0.0936 -0.0322
  388POSM   C3A 4552   7.259   2.242  13.796  0.3693 -0.0521  0.0363
  388POSM   C1B 4553   6.998   3.425  13.013 -0.3751  0.1472  0.2606
  388POSM   D2B 4554   7.119   3.817  13.186  0.1445 -0.1678 -0.1217
  388POSM   C3B 4555   6.769   3.985  13.481  0.0844  0.2727  0.0923
  388POSM   C4B 4556   6.316   3.937  13.573  0.1222  0.0274  0.2963
  389POSM   NC3 4557   8.836   5.272  12.183  0.0115  0.0890  0.0807
  389POSM   PO4 4558   9.042   5.135  12.500  0.0622  0.0353  0.0608
  389POSM   AM1 4559   9.341   5.184  12.641  0.0884 -0.4719 -0.2860
  389POSM   AM2 4560   9.512   5.442  12.674  0.1000 -0.1615  0.0797
  389POSM   T1A 4561   9.724   5.078  12.899  0.0842 -0.0669  0.1649
  389POSM   C2A 4562  10.004   4.815  12.870  0.2324  0.1153 -0.0561
  389POSM   C3A 4563  10.197   4.518  12.535  0.1974 -0.0973 -0.0098
  389POSM   C1B 4564   9.715   5.707  12.758 -0.0381 -0.1739  0.2088
  389POSM   D2B 4565   9.855   6.047  13.050 -0.0146  0.1303 -0.0644
  389POSM   C3B 4566   9.949   5.928  13.476  0.0217  0.1526  0.0184
  389POSM   C4B 4567  10.343   6.082  13.653  0.0994  0.3447 -0.0663
  390DOPE   NH3 4568   7.805   3.330  12.160  0.1951 -0.0587 -0.1947
  390DOPE   PO4 4569   7.730   3.592  12.364  0.3601  0.1075  0.0904
  390DOPE   GL1 4570   8.055   3.437  12.586  0.3487 -0.1504  0.1768
  390DOPE   GL2 4571   7.914   3.158  12.745 -0.1922  0.2625 -0.2916
  390DOPE   C1A 4572   8.482   3.266  12.658  0.1828  0.0501  0.2424
  390DOPE   D2A 4573   8.653   2.990  13.048  0.1566 -0.1061  0.0961
  390DOPE   C3A 4574   8.804   2.594  13.294 -0.0587 -0.3420  0.2086
  390DOPE   C4A 4575   8.854   2.443  13.700 -0.1700  0.0680  0.1257
  390DOPE   C1B 4576   8.197   2.880  12.958  0.2249 -0.0312  0.1233
  390DOPE   D2B 4577   8.463   2.487  12.879  0.4647 -0.2083 -0.2072
  390DOPE   C3B 4578   8.932   2.478  12.748 -0.2254 -0.0812 -0.0316
  390DOPE   C4B 4579   9.423   2.527  12.831 -0.0528  0.2086  0.1982
  391DOPS   CNO 4580   0.346  11.675  12.224 -0.0587  0.1463  0.3851
  391DOPS   PO4 4581   0.650  11.488  12.406  0.0025  0.3545 -0.1378
  391DOPS   GL1 4582   0.941  11.480  12.741  0.2539 -0.1566  0.1359
  391DOPS   GL2 4583   0.708  11.632  12.890  0.0872 -0.0279  0.1079
  391DOPS   C1A 4584   0.913  11.193  13.146  0.0843  0.0594  0.0464
  391DOPS   D2A 4585   0.890  11.047  13.558  0.2450  0.0239 -0.2708
  391DOPS   C3A 4586   0.595  11.234  13.864  0.2457  0.0920  0.0460
  391DOPS   C4A 4587   0.375  11.373  14.232  0.1923  0.0768  0.2075
  391DOPS   C1B 4588   0.744  11.631  13.333 -0.1234  0.0487  0.1296
  391DOPS   D2B 4589   0.987  11.542  13.768  0.0970  0.0045 -0.4540
  391DOPS   C3B 4590   1.025  11.214  14.066  0.3361  0.5132 -0.2494
  391DOPS   C4B 4591   0.707  10.923  14.236 -0.0148 -0.2476  0.3190
  392DOPE   NH3 4592   6.190   8.042  12.367 -0.0694  0.0207 -0.1374
  392DOPE   PO4 4593   6.511   7.998  12.405  0.0275 -0.1553 -0.1844
  392DOPE   GL1 4594   6.710   8.221  12.573  0.0711 -0.0588 -0.3217
  392DOPE   GL2 4595   6.480   8.281  12.828  0.3874  0.1204 -0.0176
  392DOPE   C1A 4596   6.986   8.586  12.433 -0.1529  0.1998  0.0783
  392DOPE   D2A 4597   7.331   8.770  12.623  0.1208  0.1009  0.5201
  392DOPE   C3A 4598   7.535   8.473  12.914  0.2008  0.3027  0.1659
  392DOPE   C4A 4599   7.860   8.176  12.829 -0.3587 -0.0064  0.2726
  392DOPE   C1B 4600   6.249   8.422  13.223  0.2475  0.1476  0.0823
  392DOPE   D2B 4601   6.130   8.264  13.622  0.0056  0.2598  0.0311
  392DOPE   C3B 4602   6.461   8.268  13.939  0.0581  0.2319  0.2746
  392DOPE   C4B 4603   6.379   8.417  14.338 -0.1980 -0.2235 -0.1952
  393POSM   NC3 4604  34.315   2.452  12.857 -0.2910  0.4528  0.0277
  393POSM   PO4 4605  34.276   2.180  12.524 -0.2210 -0.2086 -0.2348
  393POSM   AM1 4606  34.375   2.026  12.805 -0.1107  0.0058 -0.0677
  393POSM   AM2 4607  34.177   1.907  13.031  0.2278 -0.3278  0.1161
  393POSM   T1A 4608  34.711   1.650  12.887  0.2188 -0.0309 -0.0701
  393POSM   C2A 4609  34.966   1.239  12.736  0.0220 -0.6140 -0.1992
  393POSM   C3A 4610  35.390   1.167  12.567  0.0278  0.0247  0.0235
  393POSM   C1B 4611  34.293   1.994  13.306  0.0781  0.1472  0.3307
  393POSM   D2B 4612  34.300   1.948  13.768 -0.1523  0.1371 -0.0314
  393POSM   C3B 4613  34.128   1.633  14.002  0.0315 -0.2651 -0.2449
  393POSM   C4B 4614  33.677   1.443  14.112 -0.0184 -0.1780 -0.1136
  394POSM   NC3 4615   0.048  10.545  12.950  0.0825 -0.1550  0.3161
  394POSM   PO4 4616   0.158  10.870  12.753  0.1934 -0.2089  0.2356
  394POSM   AM1 4617   0.384  10.847  12.969 -0.0802  0.0498 -0.2154
  394POSM   AM2 4618   0.439  11.027  13.164 -0.0860 -0.1965  0.2812
  394POSM   T1A 4619   0.699  10.572  13.323  0.0424  0.3559  0.1493
  394POSM   C2A 4620   1.180  10.546  13.476  0.0122  0.1512 -0.1366
  394POSM   C3A 4621   1.672  10.561  13.576  0.1614  0.0085  0.2667
  394POSM   C1B 4622   0.375  11.201  13.453  0.1550  0.1965 -0.3246
  394POSM   D2B 4623   0.333  11.614  13.716  0.1578 -0.1099 -0.0770
  394POSM   C3B 4624   0.448  11.890  14.082  0.1676 -0.2641 -0.2230
  394POSM   C4B 4625   0.682  12.158  14.399 -0.1688 -0.1904 -0.2416
  395DOPC   NC3 4626   5.143   8.657  12.740 -0.3324 -0.0189  0.0026
  395DOPC   PO4 4627   4.882   8.956  12.607 -0.0852  0.2024 -0.0449
  395DOPC   GL1 4628   4.659   8.678  12.740 -0.0137  0.3560 -0.0313
  395DOPC   GL2 4629   4.757   8.602  13.014  0.3375  0.0867  0.1816
  395DOPC   C1A 4630   4.265   8.387  12.774  0.0641 -0.0803 -0.4833
  395DOPC   D2A 4631   3.890   8.546  12.942  0.2189 -0.0618  0.3026
  395DOPC   C3A 4632   3.786   8.469  13.380  0.0808  0.1387  0.0005
  395DOPC   C4A 4633   3.797   8.340  13.820 -0.0833 -0.2960  0.3565
  395DOPC   C1B 4634   4.353   8.686  13.163  0.1306  0.2966 -0.1572
  395DOPC   D2B 4635   4.116   8.833  13.560 -0.1498 -0.0678  0.0924
  395DOPC   C3B 4636   3.718   8.939  13.859 -0.0514  0.3189  0.0264
  395DOPC   C4B 4637   3.342   9.172  13.987 -0.2577  0.0121 -0.2946
  396POSM   NC3 4638  34.117   7.120  12.428 -0.2073  0.0885 -0.0658
  396POSM   PO4 4639  34.391   6.867  12.295 -0.0950  0.2180  0.3186
  396POSM   AM1 4640  34.620   6.906  12.511 -0.2315 -0.1307  0.1204
  396POSM   AM2 4641  34.619   7.074  12.733 -0.0952  0.4152  0.1214
  396POSM   T1A 4642  35.076   6.657  12.567  0.0464  0.0501  0.1612
  396POSM   C2A 4643  35.446   6.548  12.820  0.0856  0.3429  0.1677
  396POSM   C3A 4644  35.882   6.489  12.676 -0.1738 -0.3126  0.0147
  396POSM   C1B 4645  34.901   7.129  12.866 -0.1331  0.2071  0.1797
  396POSM   D2B 4646  35.181   7.181  13.238  0.2646  0.1179  0.2635
  396POSM   C3B 4647  35.594   7.401  13.160  0.0734  0.2595 -0.1130
  396POSM   C4B 4648  36.093   7.393  13.140  0.0466  0.3109  0.0068
  397DOPE   NH3 4649   5.150   2.779  12.596 -0.2491 -0.0516 -0.1917
  397DOPE   PO4 4650   5.217   2.458  12.625 -0.2276  0.0070  0.2879
  397DOPE   GL1 4651   5.061   2.499  13.055  0.0698  0.2992 -0.0938
  397DOPE   GL2 4652   4.800   2.771  13.009 -0.2223 -0.0805  0.2735
  397DOPE   C1A 4653   4.837   2.490  13.432  0.2455  0.1135  0.2287
  397DOPE   D2A 4654   4.833   2.213  13.803  0.2633 -0.3351  0.1065
  397DOPE   C3A 4655   4.707   2.380  14.247 -0.4505 -0.1391  0.1756
  397DOPE   C4A 4656   4.776   2.381  14.679 -0.0459 -0.5093  0.0820
  397DOPE   C1B 4657   4.700   2.960  13.432  0.1517  0.1169  0.1138
  397DOPE   D2B 4658   4.608   3.267  13.754  0.1950  0.1577 -0.1485
  397DOPE   C3B 4659   4.531   3.062  14.136 -0.2614  0.3603  0.0633
  397DOPE   C4B 4660   4.802   2.909  14.464 -0.2032 -0.0178  0.0687
  398DOPS   CNO 4661   3.293   5.781  12.630  0.1064 -0.2762  0.1644
  398DOPS   PO4 4662   3.250   5.817  13.028 -0.0649  0.2490  0.2264
  398DOPS   GL1 4663   3.399   5.692  13.295  0.1730  0.0693  0.1001
  398DOPS   GL2 4664   3.628   5.890  13.349  0.3609 -0.1610  0.0726
  398DOPS   C1A 4665   3.392   5.308  13.526 -0.1031  0.0689  0.0428
  398DOPS   D2A 4666   3.004   5.130  13.746  0.2160  0.0336  0.0862
  398DOPS   C3A 4667   2.848   4.733  13.728  0.2218  0.2200 -0.2677
  398DOPS   C4A 4668   2.681   4.286  13.957 -0.2350  0.0381 -0.1681
  398DOPS   C1B 4669   3.416   5.992  13.703  0.0565 -0.2262 -0.1545
  398DOPS   D2B 4670   3.080   5.965  14.049 -0.0515 -0.1173  0.1704
  398DOPS   C3B 4671   3.423   5.843  14.370  0.1055 -0.2098 -0.1850
  398DOPS   C4B 4672   3.521   5.581  14.712 -0.1072  0.1447  0.0928
  399DOPC   NC3 4673   3.277   7.088  12.861  0.2880 -0.1744  0.0813
  399DOPC   PO4 4674   3.238   6.920  13.181 -0.1263 -0.2438  0.0972
  399DOPC   GL1 4675   2.959   6.688  13.484 -0.7159 -0.0666  0.2331
  399DOPC   GL2 4676   2.758   6.948  13.382  0.1468  0.4530 -0.2347
  399DOPC   C1A 4677   2.977   6.830  13.901  0.4870 -0.1496  0.0592
  399DOPC   D2A 4678   3.149   6.745  14.281  0.0736 -0.1344 -0.1352
  399DOPC   C3A 4679   3.505   6.979  14.377 -0.0201 -0.0537 -0.2261
  399DOPC   C4A 4680   3.368   7.417  14.206 -0.1963  0.1603  0.1424
  399DOPC   C1B 4681   2.401   7.149  13.619 -0.0115  0.0190  0.2441
  399DOPC   D2B 4682   2.317   7.583  13.671  0.1787 -0.1149  0.1997
  399DOPC   C3B 4683   2.021   7.697  13.986  0.1053 -0.0477 -0.0335
  399DOPC   C4B 4684   2.100   7.510  14.376  0.2743 -0.1265  0.2523
  400DOPC   NC3 4685   8.107   9.785  12.137 -0.2022 -0.0978  0.1385
  400DOPC   PO4 4686   8.328  10.010  12.401 -0.0224 -0.2488 -0.0107
  400DOPC   GL1 4687   8.506  10.132  12.847  0.0290  0.1451 -0.1372
  400DOPC   GL2 4688   8.722  10.159  12.673  0.1527  0.2601  0.1984
  400DOPC   C1A 4689   8.647  10.019  13.266 -0.4099 -0.3207 -0.1629
  400DOPC   D2A 4690   8.670   9.590  13.359 -0.0666 -0.1179 -0.0415
  400DOPC   C3A 4691   8.630   9.193  13.172 -0.0804 -0.0614  0.0113
  400DOPC   C4A 4692   8.524   8.925  12.807 -0.3560 -0.5118 -0.1776
  400DOPC   C1B 4693   8.794   9.716  12.876  0.1985 -0.3127  0.1485
  400DOPC   D2B 4694   9.070   9.358  12.947 -0.0822 -0.1422 -0.0114
  400DOPC   C3B 4695   9.128   9.245  13.359  0.0078  0.0314  0.0871
  400DOPC   C4B 4696   9.152   9.533  13.749 -0.4153  0.0606 -0.0953
  401DOPC   NC3 4697   2.427   4.974  12.859  0.3190 -0.5215 -0.0342
  401DOPC   PO4 4698   2.800   5.037  12.773  0.1981  0.4113 -0.4721
  401DOPC   GL1 4699   2.722   5.020  13.195 -0.2193 -0.2105 -0.2136
  401DOPC   GL2 4700   2.701   4.758  13.204 -0.5362 -0.2147  0.2554
  401DOPC   C1A 4701   2.534   5.205  13.560 -0.1832  0.0067 -0.1525
  401DOPC   D2A 4702   2.601   5.307  14.020 -0.0464  0.1418  0.0646
  401DOPC   C3A 4703   2.938   5.047  14.295 -0.0989 -0.0798  0.3527
  401DOPC   C4A 4704   3.311   4.675  14.400 -0.1576  0.3249  0.0780
  401DOPC   C1B 4705   2.275   4.840  13.331 -0.0137 -0.1796  0.2066
  401DOPC   D2B 4706   1.906   4.988  13.588  0.1148  0.0419  0.0865
  401DOPC   C3B 4707   2.101   5.268  13.874  0.1973  0.1298 -0.2629
  401DOPC   C4B 4708   2.245   5.530  14.265  0.0854  0.2942  0.2496
  402DOPS   CNO 4709   5.954   8.507  12.211  0.0199 -0.2271  0.1579
  402DOPS   PO4 4710   6.312   8.526  12.334 -0.1270 -0.1217  0.1996
  402DOPS   GL1 4711   6.451   8.754  12.594  0.2183 -0.2869 -0.0345
  402DOPS   GL2 4712   6.243   8.822  12.760  0.1080  0.2373 -0.1775
  402DOPS   C1A 4713   6.722   8.640  12.964 -0.1950  0.6552  0.1555
  402DOPS   D2A 4714   6.785   8.349  13.327  0.1455 -0.1951  0.0699
  402DOPS   C3A 4715   6.860   8.509  13.710  0.2528  0.0806  0.0665
  402DOPS   C4A 4716   7.027   8.439  14.183 -0.0274 -0.1374  0.0182
  402DOPS   C1B 4717   6.306   8.934  13.165  0.0909  0.2506  0.0077
  402DOPS   D2B 4718   6.262   9.255  13.496 -0.0605  0.2787 -0.0603
  402DOPS   C3B 4719   6.167   9.013  13.906 -0.0768  0.1755  0.1463
  402DOPS   C4B 4720   6.080   8.867  14.326  0.1052 -0.1565  0.1114
  403POSM   NC3 4721   0.970   0.444  12.523 -0.0752  0.1770  0.3638
  403POSM   PO4 4722   1.279   0.252  12.507  0.0127 -0.0915  0.2289
  403POSM   AM1 4723   1.542   0.223  12.769 -0.0916  0.2008  0.2204
  403POSM   AM2 4724   1.665   0.359  13.002  0.2546 -0.3782  0.0680
  403POSM   T1A 4725   1.784  -0.190  13.037  0.1781 -0.0419  0.4767
  403POSM   C2A 4726   2.231  -0.334  13.110  0.0513 -0.1659 -0.0089
  403POSM   C3A 4727   2.429  -0.677  13.326  0.0946  0.1937  0.1313
  403POSM   C1B 4728   1.470   0.241  13.251  0.2007  0.2697  0.1089
  403POSM   D2B 4729   1.054   0.096  13.413  0.2704  0.0250  0.2178
  403POSM   C3B 4730   1.117   0.330  13.771 -0.0703  0.1135 -0.2124
  403POSM   C4B 4731   1.555   0.463  13.832 -0.0032 -0.0239 -0.4799
  404POSM   NC3 4732   5.995  11.133  12.660  0.1868  0.1044  0.0822
  404POSM   PO4 4733   6.116  10.859  12.345 -0.2546  0.0374  0.2984
  404POSM   AM1 4734   5.906  10.698  12.543  0.0727 -0.1536 -0.1570
  404POSM   AM2 4735   5.885  10.375  12.521 -0.2030 -0.3832  0.1504
  404POSM   T1A 4736   5.450  10.648  12.766  0.2565 -0.2114  0.1782
  404POSM   C2A 4737   5.214  10.264  12.938  0.0504  0.0727 -0.0903
  404POSM   C3A 4738   5.223   9.995  13.342 -0.2297  0.3712 -0.0929
  404POSM   C1B 4739   5.776  10.301  12.778 -0.0303  0.0953  0.3842
  404POSM   D2B 4740   5.620  10.318  13.198 -0.1184  0.0446  0.0003
  404POSM   C3B 4741   5.374  10.699  13.287 -0.2462  0.1542  0.0600
  404POSM   C4B 4742   5.492  11.066  13.508  0.3842 -0.0293  0.0406
  405DOPE   NH3 4743  33.571   6.401  12.626 -0.2377 -0.0429  0.1825
  405DOPE   PO4 4744  33.802   6.212  12.592  0.3867 -0.0920 -0.0371
  405DOPE   GL1 4745  34.014   6.324  12.851  0.1452  0.2640 -0.0782
  405DOPE   GL2 4746  34.238   6.562  12.835 -0.1823 -0.0720  0.1340
  405DOPE   C1A 4747  34.399   6.198  13.130 -0.0389 -0.1050  0.0323
  405DOPE   D2A 4748  34.766   6.245  13.433  0.1348 -0.3053 -0.0140
  405DOPE   C3A 4749  34.750   5.915  13.717  0.1239  0.2244 -0.1603
  405DOPE   C4A 4750  34.337   5.642  13.741 -0.2385  0.0814 -0.1358
  405DOPE   C1B 4751  34.682   6.626  12.878 -0.0486  0.0991  0.1180
  405DOPE   D2B 4752  35.093   6.693  13.123 -0.1005  0.3121 -0.0864
  405DOPE   C3B 4753  35.131   6.657  13.595 -0.2154 -0.1135  0.2183
  405DOPE   C4B 4754  35.221   6.515  14.038 -0.3766 -0.1918  0.0655
  406DOPC   NC3 4755   5.185  34.271  12.746  0.1155 -0.0634  0.0570
  406DOPC   PO4 4756   5.117  34.646  12.628 -0.0249  0.0335 -0.0877
  406DOPC   GL1 4757   5.055  34.583  13.072  0.1706  0.0892 -0.1066
  406DOPC   GL2 4758   4.997  34.339  13.244 -0.1786 -0.2334  0.1208
  406DOPC   C1A 4759   5.013  34.900  13.409 -0.0930 -0.1545  0.0641
  406DOPC   D2A 4760   4.841  34.812  13.878 -0.3063  0.0457 -0.0576
  406DOPC   C3A 4761   4.383  34.719  13.989  0.1540 -0.0859  0.0038
  406DOPC   C4A 4762   3.953  34.716  14.161  0.0941  0.1017  0.0859
  406DOPC   C1B 4763   4.562  34.157  13.372  0.0526  0.3740  0.1704
  406DOPC   D2B 4764   4.279  34.101  13.734 -0.0450  0.2458 -0.2552
  406DOPC   C3B 4765   3.935  34.405  13.711  0.1649 -0.1595  0.2669
  406DOPC   C4B 4766   3.668  34.777  13.721 -0.0923 -0.3564  0.0749
  407POSM   NC3 4767  10.392   2.771  11.162 -0.0873 -0.0503  0.5669
  407POSM   PO4 4768  10.293   2.400  11.137  0.3985  0.3211 -0.0452
  407POSM   AM1 4769  10.256   2.393  11.455 -0.1589 -0.1199 -0.0104
  407POSM   AM2 4770  10.388   2.562  11.723  0.3063 -0.0168  0.2402
  407POSM   T1A 4771   9.891   2.409  11.805  0.0380  0.0664  0.0685
  407POSM   C2A 4772   9.532   2.429  12.055 -0.2078 -0.0860 -0.3251
  407POSM   C3A 4773   9.143   2.687  12.227  0.0200 -0.3046 -0.1184
  407POSM   C1B 4774  10.402   2.900  11.814  0.2555 -0.3262  0.1344
  407POSM   D2B 4775  10.593   3.363  11.946 -0.0279 -0.1765  0.3198
  407POSM   C3B 4776  10.947   3.437  12.256 -0.0329 -0.5981  0.0736
  407POSM   C4B 4777  11.385   3.527  12.453  0.0748 -0.0126  0.2136
  408POSM   NC3 4778   5.990   8.340  12.743 -0.0486  0.3217 -0.0003
  408POSM   PO4 4779   5.794   8.012  12.647  0.2340 -0.0815  0.0560
  408POSM   AM1 4780   5.781   7.908  12.937 -0.2080  0.4037 -0.0137
  408POSM   AM2 4781   5.867   8.005  13.187 -0.2267  0.1050  0.1975
  408POSM   T1A 4782   5.780   7.497  13.261  0.2221  0.0548  0.0275
  408POSM   C2A 4783   5.441   7.456  13.585 -0.1088 -0.0192  0.0620
  408POSM   C3A 4784   5.115   7.490  13.917 -0.2158  0.1444  0.0100
  408POSM   C1B 4785   5.713   8.006  13.457  0.3302 -0.2287  0.1118
  408POSM   D2B 4786   5.421   7.926  13.772 -0.1149  0.1668 -0.1155
  408POSM   C3B 4787   5.609   7.574  14.029  0.1237  0.0633  0.4341
  408POSM   C4B 4788   5.995   7.443  14.309  0.1189 -0.0411 -0.0201
  409DOPC   NC3 4789   2.184  20.683  16.474 -0.0385 -0.0487  0.0060
  409DOPC   PO4 4790   2.300  20.339  16.498 -0.0045 -0.2138  0.2199
  409DOPC   GL1 4791   2.274  20.468  16.095  0.0363  0.0174  0.1352
  409DOPC   GL2 4792   2.050  20.363  16.092  0.2931  0.0935 -0.2039
  409DOPC   C1A 4793   2.360  20.380  15.639  0.0159  0.2747 -0.2865
  409DOPC   D2A 4794   2.417  20.236  15.196  0.0028 -0.0637  0.2765
  409DOPC   C3A 4795   2.298  20.561  14.859 -0.0276  0.0945  0.1406
  409DOPC   C4A 4796   2.231  20.970  14.698 -0.1078 -0.2604  0.1976
  409DOPC   C1B 4797   1.928  20.665  15.709 -0.1615 -0.2582 -0.2615
  409DOPC   D2B 4798   2.069  20.580  15.271 -0.1445 -0.2007  0.0383
  409DOPC   C3B 4799   1.803  20.626  14.901 -0.1596 -0.2151 -0.1813
  409DOPC   C4B 4800   1.365  20.760  14.928  0.1234 -0.0879  0.1338
  410DOPC   NC3 4801   8.723  14.819  16.026 -0.3343  0.0127  0.3118
  410DOPC   PO4 4802   8.906  14.938  15.691  0.0972 -0.0115 -0.1548
  410DOPC   GL1 4803   8.991  15.056  15.359 -0.1749 -0.0182 -0.4342
  410DOPC   GL2 4804   9.223  14.886  15.319 -0.0225  0.0354 -0.0081
  410DOPC   C1A 4805   8.887  14.899  14.946 -0.0815 -0.0492  0.5160
  410DOPC   D2A 4806   8.550  14.777  14.666  0.0755 -0.3631 -0.1434
  410DOPC   C3A 4807   8.441  15.059  14.343 -0.1477 -0.1067  0.2057
  410DOPC   C4A 4808   8.010  15.095  14.149 -0.0088 -0.2235 -0.2779
  410DOPC   C1B 4809   9.558  15.063  15.163 -0.1746  0.1358 -0.0071
  410DOPC   D2B 4810   9.711  14.994  14.717 -0.1203  0.0787 -0.1096
  410DOPC   C3B 4811   9.553  14.720  14.352  0.1878 -0.0687  0.0206
  410DOPC   C4B 4812   9.265  14.812  13.957 -0.2928  0.2163  0.1112
  411DOPE   NH3 4813   8.650  21.246  15.484 -0.3444 -0.1965  0.3497
  411DOPE   PO4 4814   8.810  21.075  15.256  0.1495  0.0043  0.0221
  411DOPE   GL1 4815   8.846  21.023  14.814  0.1835  0.0803  0.1410
  411DOPE   GL2 4816   8.940  21.272  14.746 -0.0116  0.0342 -0.1537
  411DOPE   C1A 4817   9.226  20.928  14.591 -0.1662  0.1100 -0.1327
  411DOPE   D2A 4818   9.544  20.636  14.361 -0.1694 -0.0437 -0.1468
  411DOPE   C3A 4819   9.783  20.796  14.040 -0.2119 -0.0347 -0.1197
  411DOPE   C4A 4820   9.623  21.011  13.674  0.0600  0.1338  0.1236
  411DOPE   C1B 4821   8.904  21.240  14.291  0.1692 -0.2198 -0.0575
  411DOPE   D2B 4822   8.773  21.300  13.863  0.3723  0.0621 -0.3479
  411DOPE   C3B 4823   9.022  20.990  13.582 -0.0792  0.0883  0.3363
  411DOPE   C4B 4824   9.372  20.676  13.447 -0.1067 -0.2489 -0.0220
  412DOPE   NH3 4825   1.335  20.548  16.879  0.0041 -0.2939  0.1595
  412DOPE   PO4 4826   1.077  20.640  16.735  0.1994 -0.0060 -0.0922
  412DOPE   GL1 4827   1.002  20.867  16.408 -0.0776  0.0675  0.1798
  412DOPE   GL2 4828   0.850  20.849  16.135  0.0514 -0.4260 -0.0153
  412DOPE   C1A 4829   1.250  21.196  16.154  0.0847  0.2593  0.1774
  412DOPE   D2A 4830   1.604  21.480  16.039  0.0704 -0.1279  0.2435
  412DOPE   C3A 4831   2.008  21.535  15.835 -0.1822 -0.0168 -0.2509
  412DOPE   C4A 4832   2.390  21.533  15.540  0.0370  0.0527 -0.3513
  412DOPE   C1B 4833   0.838  20.811  15.693 -0.0140  0.0519 -0.3059
  412DOPE   D2B 4834   0.880  20.800  15.271  0.0994 -0.0216  0.4053
  412DOPE   C3B 4835   1.013  21.111  14.968  0.0071  0.2075  0.6026
  412DOPE   C4B 4836   1.212  21.347  14.587  0.1330  0.0907 -0.3264
  413DOPC   NC3 4837   8.964  23.038  15.737  0.2677 -0.2485 -0.4255
  413DOPC   PO4 4838   8.979  22.649  15.634 -0.0893  0.1261  0.0703
  413DOPC   GL1 4839   9.046  23.026  15.322 -0.1441 -0.0423  0.3058
  413DOPC   GL2 4840   8.801  23.001  15.184  0.1405  0.0263  0.0327
  413DOPC   C1A 4841   9.185  23.010  14.828  0.0968 -0.3524 -0.0971
  413DOPC   D2A 4842   9.025  22.864  14.444 -0.0301  0.1240  0.0737
  413DOPC   C3A 4843   9.315  23.081  14.183 -0.2215  0.0399  0.0800
  413DOPC   C4A 4844   9.351  23.507  14.246 -0.0024  0.0586 -0.0616
  413DOPC   C1B 4845   8.664  23.189  14.782  0.2341 -0.1576  0.0477
  413DOPC   D2B 4846   8.448  23.598  14.643  0.3181  0.1064 -0.1799
  413DOPC   C3B 4847   8.352  23.891  14.309  0.0735 -0.3115 -0.2475
  413DOPC   C4B 4848   8.100  24.217  14.074 -0.1442  0.0169 -0.1688
  414DOPC   NC3 4849   9.595  21.114  15.506  0.1105  0.0734 -0.3469
  414DOPC   PO4 4850   9.500  21.519  15.382  0.0341  0.0154  0.2866
  414DOPC   GL1 4851   9.949  21.503  15.276  0.1089 -0.0214 -0.1295
  414DOPC   GL2 4852   9.821  21.375  15.021  0.1154  0.0531  0.2492
  414DOPC   C1A 4853  10.387  21.378  15.267  0.0786 -0.2057  0.4253
  414DOPC   D2A 4854  10.689  21.127  15.052 -0.1692  0.0152  0.2614
  414DOPC   C3A 4855  10.578  21.079  14.595 -0.0238  0.1645  0.1618
  414DOPC   C4A 4856  10.532  21.250  14.214 -0.0986 -0.2916  0.2105
  414DOPC   C1B 4857  10.210  21.425  14.769 -0.0744 -0.2071 -0.2736
  414DOPC   D2B 4858  10.656  21.549  14.817  0.0480  0.2602  0.1578
  414DOPC   C3B 4859  10.725  21.912  14.526  0.3624  0.2226 -0.1510
  414DOPC   C4B 4860  10.604  22.038  14.071 -0.2428 -0.0720  0.1908
  415POSM   NC3 4861   3.149  14.277  16.680  0.2385 -0.2042  0.1284
  415POSM   PO4 4862   3.443  14.545  16.667  0.0445 -0.1308 -0.1672
  415POSM   AM1 4863   3.530  14.614  16.323  0.0723 -0.1810  0.2102
  415POSM   AM2 4864   3.746  14.786  16.166  0.1049 -0.4080  0.2899
  415POSM   T1A 4865   3.315  14.800  15.935  0.2913  0.0021  0.0695
  415POSM   C2A 4866   2.908  15.053  15.836 -0.0541  0.1387 -0.0629
  415POSM   C3A 4867   2.697  15.022  15.391 -0.1754 -0.0663 -0.0455
  415POSM   C1B 4868   3.712  14.524  15.934  0.2417  0.0427  0.0541
  415POSM   D2B 4869   3.479  14.515  15.547 -0.0190 -0.1486  0.0339
  415POSM   C3B 4870   3.461  14.255  15.162  0.0660 -0.1604  0.0427
  415POSM   C4B 4871   3.494  14.353  14.754  0.1874 -0.1678 -0.0106
  416DOPS   CNO 4872   8.155  20.929  15.267  0.0377  0.2141  0.0546
  416DOPS   PO4 4873   8.058  21.187  15.509  0.1132 -0.5797  0.2635
  416DOPS   GL1 4874   7.986  21.365  15.187 -0.0843  0.2179 -0.1111
  416DOPS   GL2 4875   7.789  21.176  15.095  0.0804  0.0910 -0.2373
  416DOPS   C1A 4876   8.060  21.534  14.752 -0.1349 -0.0412  0.1803
  416DOPS   D2A 4877   8.036  21.959  14.635 -0.1196  0.2329 -0.1735
  416DOPS   C3A 4878   7.786  22.179  14.288  0.1235  0.1195  0.0139
  416DOPS   C4A 4879   7.798  22.577  14.037  0.1159  0.2414 -0.3692
  416DOPS   C1B 4880   7.941  21.023  14.687  0.0050 -0.0769  0.0869
  416DOPS   D2B 4881   8.316  21.171  14.404  0.2774 -0.1117 -0.0561
  416DOPS   C3B 4882   8.438  20.933  14.012  0.0035 -0.1760 -0.1729
  416DOPS   C4B 4883   8.535  20.768  13.597 -0.0839 -0.0708 -0.1772
  417DOPC   NC3 4884   5.166  13.280  16.813  0.0672 -0.0713 -0.1263
  417DOPC   PO4 4885   5.209  13.375  16.454  0.2412  0.1635 -0.0274
  417DOPC   GL1 4886   5.186  13.700  16.220 -0.0660 -0.1539  0.3511
  417DOPC   GL2 4887   5.188  13.913  16.369 -0.0710 -0.1553  0.0026
  417DOPC   C1A 4888   5.460  13.870  15.848  0.0217 -0.1312  0.4092
  417DOPC   D2A 4889   5.559  13.805  15.415 -0.0634 -0.1797 -0.2925
  417DOPC   C3A 4890   5.499  14.098  15.030 -0.4132 -0.3460 -0.0617
  417DOPC   C4A 4891   5.450  14.470  14.750 -0.0711 -0.0722  0.1847
  417DOPC   C1B 4892   5.035  14.014  15.932 -0.0630 -0.2052 -0.2929
  417DOPC   D2B 4893   4.605  13.958  15.743 -0.2053  0.0062 -0.1024
  417DOPC   C3B 4894   4.290  13.857  16.065 -0.2657  0.1580  0.0059
  417DOPC   C4B 4895   4.036  14.214  16.240 -0.0437 -0.3336 -0.1708
  418DOPE   NH3 4896   1.968  16.679  16.323  0.0795  0.0862 -0.3507
  418DOPE   PO4 4897   1.983  16.665  16.042  0.2353  0.0991 -0.1983
  418DOPE   GL1 4898   1.950  16.559  15.638 -0.3276 -0.0866 -0.3351
  418DOPE   GL2 4899   2.247  16.550  15.644  0.5164 -0.2138  0.2075
  418DOPE   C1A 4900   1.941  16.748  15.191 -0.2768  0.0273  0.1232
  418DOPE   D2A 4901   2.088  16.962  14.826  0.0144 -0.1261 -0.0692
  418DOPE   C3A 4902   2.019  17.038  14.460  0.1217  0.0659 -0.2930
  418DOPE   C4A 4903   1.729  17.053  14.119  0.1357 -0.1230 -0.0066
  418DOPE   C1B 4904   2.405  16.887  15.421 -0.2836  0.1414 -0.0367
  418DOPE   D2B 4905   2.619  17.332  15.395 -0.1052 -0.2594  0.0162
  418DOPE   C3B 4906   2.647  17.545  14.995  0.4143  0.2390 -0.0667
  418DOPE   C4B 4907   2.482  17.830  14.703 -0.1941  0.0526  0.3534
  419POSM   NC3 4908   8.293  21.002  15.837 -0.0180 -0.2676 -0.0918
  419POSM   PO4 4909   8.459  20.706  15.641 -0.1629  0.0687  0.4768
  419POSM   AM1 4910   8.685  20.652  15.401 -0.2404 -0.3433  0.2607
  419POSM   AM2 4911   8.902  20.576  15.221 -0.0924 -0.1874  0.0711
  419POSM   T1A 4912   8.531  20.622  14.932  0.0572  0.2436 -0.0050
  419POSM   C2A 4913   8.499  20.277  14.590  0.0037  0.2044  0.0713
  419POSM   C3A 4914   8.502  19.911  14.314 -0.1064 -0.0550 -0.2493
  419POSM   C1B 4915   9.055  20.608  14.936  0.0979 -0.0434 -0.0434
  419POSM   D2B 4916   8.847  20.613  14.514  0.2769  0.0956 -0.0756
  419POSM   C3B 4917   8.950  20.737  14.074  0.0825 -0.0623  0.0107
  419POSM   C4B 4918   9.267  20.976  14.029 -0.1412 -0.3135 -0.2696
  420DOPS   CNO 4919   5.794  23.107  16.631 -0.4119 -0.1717 -0.0454
  420DOPS   PO4 4920   6.061  23.200  16.377  0.0360 -0.4347 -0.1312
  420DOPS   GL1 4921   5.946  23.182  16.058 -0.4216  0.2199 -0.0033
  420DOPS   GL2 4922   5.728  23.287  15.982 -0.1259  0.0346 -0.1214
  420DOPS   C1A 4923   6.169  23.425  15.709  0.0296 -0.2960  0.1124
  420DOPS   D2A 4924   6.522  23.473  15.429  0.0369  0.2271  0.1274
  420DOPS   C3A 4925   6.549  23.122  15.083  0.3237  0.1925  0.0895
  420DOPS   C4A 4926   6.683  22.869  14.716  0.0381  0.1826  0.1050
  420DOPS   C1B 4927   5.746  23.026  15.621 -0.0925 -0.2161 -0.1152
  420DOPS   D2B 4928   5.710  22.952  15.173 -0.0216  0.0161 -0.2624
  420DOPS   C3B 4929   5.611  22.722  14.827  0.0114 -0.2798 -0.0591
  420DOPS   C4B 4930   5.835  22.322  14.672  0.0011  0.0640  0.2414
  421DOPC   NC3 4931  10.199  14.003  15.425 -0.1126 -0.2593 -0.0036
  421DOPC   PO4 4932  10.249  14.365  15.618 -0.0378 -0.0042 -0.2638
  421DOPC   GL1 4933  10.413  14.422  15.235  0.2460 -0.1529  0.0048
  421DOPC   GL2 4934  10.179  14.390  15.119 -0.0682 -0.0673  0.2076
  421DOPC   C1A 4935  10.497  14.051  14.994  0.2300 -0.1464 -0.0842
  421DOPC   D2A 4936  10.816  13.911  14.669  0.2162 -0.0607 -0.1158
  421DOPC   C3A 4937  10.816  13.927  14.200 -0.1230  0.2826  0.0353
  421DOPC   C4A 4938  10.668  14.000  13.799  0.0934  0.2929  0.2399
  421DOPC   C1B 4939  10.011  14.068  14.855 -0.1450  0.0822  0.0239
  421DOPC   D2B 4940   9.810  13.808  14.583  0.2703 -0.0563  0.2012
  421DOPC   C3B 4941   9.908  13.317  14.697 -0.1327 -0.0054  0.1532
  421DOPC   C4B 4942   9.801  12.975  14.932 -0.0454 -0.2106  0.1911
  422DOPE   NH3 4943   6.244  16.097  16.918 -0.3588 -0.0649  0.0515
  422DOPE   PO4 4944   6.189  16.073  16.611 -0.0121 -0.0561 -0.0031
  422DOPE   GL1 4945   5.982  15.856  16.260  0.0035  0.2646 -0.2040
  422DOPE   GL2 4946   5.852  16.186  16.220  0.3535 -0.0850 -0.0076
  422DOPE   C1A 4947   5.852  15.430  16.001  0.2471  0.1413 -0.0197
  422DOPE   D2A 4948   5.939  15.160  15.620  0.0176 -0.0294 -0.2721
  422DOPE   C3A 4949   5.503  15.073  15.421 -0.0254  0.0869 -0.3185
  422DOPE   C4A 4950   5.493  14.656  15.224 -0.2363  0.5232  0.2226
  422DOPE   C1B 4951   5.653  16.472  15.891  0.2098  0.0022 -0.2115
  422DOPE   D2B 4952   5.454  16.822  15.603 -0.1864  0.1184  0.1328
  422DOPE   C3B 4953   5.480  16.809  15.121 -0.3053  0.0163 -0.0899
  422DOPE   C4B 4954   5.207  16.815  14.756 -0.2222 -0.3318  0.2802
  423DOPE   NH3 4955   4.463  17.074  16.520 -0.0601  0.0697  0.1435
  423DOPE   PO4 4956   4.482  16.815  16.355  0.1394 -0.2000  0.1657
  423DOPE   GL1 4957   4.533  16.565  16.027  0.0496 -0.0167  0.0297
  423DOPE   GL2 4958   4.411  16.797  15.856 -0.1415 -0.2582 -0.0400
  423DOPE   C1A 4959   4.744  16.514  15.616  0.0623  0.2094 -0.1820
  423DOPE   D2A 4960   4.775  16.117  15.410 -0.1144  0.2975  0.0775
  423DOPE   C3A 4961   5.032  15.943  15.057 -0.0582  0.0254  0.0152
  423DOPE   C4A 4962   5.263  15.908  14.659 -0.1820 -0.2208 -0.3039
  423DOPE   C1B 4963   4.395  16.781  15.334  0.1147  0.1815 -0.1354
  423DOPE   D2B 4964   4.262  16.783  14.917 -0.1234 -0.3960 -0.1502
  423DOPE   C3B 4965   4.278  17.083  14.541  0.1183 -0.1308  0.3039
  423DOPE   C4B 4966   4.215  17.368  14.164  0.1255 -0.3067 -0.1145
  424DOPC   NC3 4967   7.529  22.509  15.832  0.0832  0.1349 -0.0034
  424DOPC   PO4 4968   7.881  22.405  15.667 -0.0705 -0.0233  0.0390
  424DOPC   GL1 4969   7.979  22.392  15.296 -0.1872 -0.1815 -0.0124
  424DOPC   GL2 4970   8.152  22.655  15.168  0.1141 -0.0034 -0.0373
  424DOPC   C1A 4971   7.757  22.376  14.872 -0.0169 -0.2251  0.2961
  424DOPC   D2A 4972   7.565  22.618  14.534  0.0037 -0.0527 -0.3641
  424DOPC   C3A 4973   7.349  22.487  14.095  0.0337  0.0005 -0.1610
  424DOPC   C4A 4974   7.358  22.028  14.025 -0.0332  0.0012 -0.0122
  424DOPC   C1B 4975   8.234  23.073  15.252 -0.1335  0.2838  0.1867
  424DOPC   D2B 4976   8.495  23.446  15.266  0.3221 -0.1496  0.4865
  424DOPC   C3B 4977   8.290  23.858  15.054  0.2853 -0.0382 -0.0267
  424DOPC   C4B 4978   8.092  24.041  14.719  0.2296  0.0246 -0.1427
  425POSM   NC3 4979   8.365  18.266  15.913 -0.0354  0.0634 -0.2424
  425POSM   PO4 4980   8.657  18.442  15.880 -0.1542 -0.0039  0.2473
  425POSM   AM1 4981   8.579  18.409  15.530  0.0521  0.1599 -0.1200
  425POSM   AM2 4982   8.484  18.146  15.418 -0.0904 -0.5692  0.0728
  425POSM   T1A 4983   8.553  18.587  15.079  0.0946 -0.0491  0.2384
  425POSM   C2A 4984   8.426  18.598  14.662  0.1450 -0.1045 -0.2649
  425POSM   C3A 4985   8.242  18.462  14.281  0.2249 -0.3697 -0.1206
  425POSM   C1B 4986   8.655  18.114  15.111  0.1068 -0.0654  0.0743
  425POSM   D2B 4987   8.761  18.205  14.662 -0.0746  0.3121  0.2338
  425POSM   C3B 4988   9.228  18.333  14.604  0.0387  0.2972  0.2643
  425POSM   C4B 4989   9.443  18.714  14.755  0.0543  0.1065 -0.2678
  426DOPE   NH3 4990   0.372  20.716  16.382 -0.1505  0.0493  0.0300
  426DOPE   PO4 4991   0.203  20.964  16.486  0.0045 -0.2420  0.0410
  426DOPE   GL1 4992   0.443  21.201  16.224 -0.2122 -0.1923 -0.0657
  426DOPE   GL2 4993   0.233  21.291  16.074 -0.3120 -0.0186  0.0683
  426DOPE   C1A 4994   0.801  21.256  15.887  0.0008 -0.0055 -0.2051
  426DOPE   D2A 4995   1.218  21.273  15.666 -0.2523 -0.3794 -0.0615
  426DOPE   C3A 4996   1.690  21.191  15.619  0.0037  0.1596  0.1539
  426DOPE   C4A 4997   2.113  21.098  15.530 -0.5683  0.0862  0.0783
  426DOPE   C1B 4998   0.302  21.538  15.697  0.1767  0.0490  0.0054
  426DOPE   D2B 4999   0.169  21.799  15.274 -0.1223 -0.0074 -0.0518
  426DOPE   C3B 5000   0.479  22.120  15.257 -0.1897  0.0006  0.3266
  426DOPE   C4B 5001   0.648  22.425  14.980  0.0530  0.0094 -0.1946
  427DOPS   CNO 5002   4.658  12.542  16.602 -0.1892 -0.3225  0.0549
  427DOPS   PO4 5003   4.528  12.545  16.256  0.0866 -0.2367  0.4169
  427DOPS   GL1 5004   4.497  12.822  16.026  0.0938  0.2613 -0.1499
  427DOPS   GL2 5005   4.447  13.081  15.931 -0.3118  0.1584  0.0473
  427DOPS   C1A 5006   4.518  12.829  15.552  0.1744 -0.1490  0.1526
  427DOPS   D2A 5007   4.575  12.795  15.057 -0.1061  0.1924 -0.0103
  427DOPS   C3A 5008   4.272  12.639  14.850  0.0972  0.2685 -0.3657
  427DOPS   C4A 5009   4.243  12.238  14.666  0.1013 -0.1809  0.0223
  427DOPS   C1B 5010   4.361  13.488  15.768  0.5193  0.2578 -0.2417
  427DOPS   D2B 5011   4.075  13.748  15.594  0.1356  0.4530 -0.1132
  427DOPS   C3B 5012   3.973  13.768  15.112  0.0840 -0.1062  0.2477
  427DOPS   C4B 5013   4.190  13.909  14.726 -0.0724  0.1265  0.0743
  428POSM   NC3 5014   6.457  19.438  15.803  0.4046  0.2446 -0.2332
  428POSM   PO4 5015   6.807  19.602  15.772  0.0123  0.0866  0.1449
  428POSM   AM1 5016   6.902  19.326  15.620  0.0622  0.0496  0.2530
  428POSM   AM2 5017   7.048  19.342  15.373  0.0918 -0.1117 -0.1035
  428POSM   T1A 5018   6.864  18.869  15.401  0.0564 -0.2505 -0.3316
  428POSM   C2A 5019   6.580  18.556  15.372  0.0099 -0.1668 -0.2191
  428POSM   C3A 5020   6.228  18.446  15.626  0.2131 -0.0078 -0.1345
  428POSM   C1B 5021   6.912  19.239  15.057 -0.2048 -0.1634  0.0149
  428POSM   D2B 5022   6.461  19.311  14.872 -0.3194 -0.1118 -0.1165
  428POSM   C3B 5023   6.231  19.730  14.801 -0.0453  0.0014 -0.1478
  428POSM   C4B 5024   6.189  20.165  14.697  0.4691  0.0374 -0.0466
  429POSM   NC3 5025   4.661  20.542  16.521  0.2002  0.0145  0.0068
  429POSM   PO4 5026   4.875  20.228  16.511 -0.0235  0.0708  0.1413
  429POSM   AM1 5027   4.775  20.207  16.213  0.0104  0.3272  0.0665
  429POSM   AM2 5028   4.906  20.104  15.973 -0.0748  0.0378 -0.1333
  429POSM   T1A 5029   4.459  20.234  15.800  0.1096  0.1227  0.1345
  429POSM   C2A 5030   4.364  20.150  15.316  0.1308 -0.0105 -0.1143
  429POSM   C3A 5031   4.285  20.260  14.911 -0.0192 -0.0059  0.0802
  429POSM   C1B 5032   4.989  19.854  15.795  0.0282 -0.0643 -0.1296
  429POSM   D2B 5033   5.045  19.810  15.366  0.1274  0.1703 -0.2451
  429POSM   C3B 5034   4.706  19.877  15.071  0.1243 -0.1062  0.0345
  429POSM   C4B 5035   4.525  19.872  14.688 -0.1675  0.0957 -0.0787
  430DOPC   NC3 5036   2.566  11.536  16.068  0.2074  0.0790  0.1850
  430DOPC   PO4 5037   2.195  11.625  16.185 -0.0412  0.1530 -0.0344
  430DOPC   GL1 5038   2.172  11.869  15.846 -0.0159 -0.3983  0.1591
  430DOPC   GL2 5039   2.400  11.978  15.881  0.0740  0.1655 -0.0946
  430DOPC   C1A 5040   1.987  12.058  15.495 -0.1533 -0.0762  0.0678
  430DOPC   D2A 5041   1.902  11.990  15.068  0.0660  0.0469  0.1748
  430DOPC   C3A 5042   2.222  11.909  14.755 -0.2507  0.0408 -0.0085
  430DOPC   C4A 5043   2.669  11.856  14.616 -0.2561  0.0982 -0.1572
  430DOPC   C1B 5044   2.827  11.831  15.724  0.1415  0.0794  0.1419
  430DOPC   D2B 5045   3.016  12.006  15.397 -0.0614 -0.0586  0.0701
  430DOPC   C3B 5046   3.012  11.687  15.137  0.2800 -0.1071 -0.1015
  430DOPC   C4B 5047   3.240  11.364  14.828 -0.1212  0.2168 -0.0188
  431DOPS   CNO 5048   7.506  15.800  16.557  0.1207 -0.1269  0.3573
  431DOPS   PO4 5049   7.696  15.850  16.250 -0.1642 -0.1940 -0.0805
  431DOPS   GL1 5050   7.581  15.960  15.927 -0.2432 -0.1277 -0.1232
  431DOPS   GL2 5051   7.255  15.940  15.865 -0.0546  0.2124 -0.0066
  431DOPS   C1A 5052   7.570  15.674  15.552 -0.0146  0.0874 -0.3450
  431DOPS   D2A 5053   7.508  15.495  15.112  0.0575 -0.0184  0.1779
  431DOPS   C3A 5054   7.232  15.181  14.946  0.0145 -0.2577  0.2675
  431DOPS   C4A 5055   7.251  14.764  14.760 -0.1096  0.2231  0.3304
  431DOPS   C1B 5056   7.256  16.020  15.393  0.0166  0.0659  0.1463
  431DOPS   D2B 5057   7.072  16.264  15.036  0.0061 -0.2633  0.4531
  431DOPS   C3B 5058   7.019  16.367  14.581  0.2029  0.0186 -0.1550
  431DOPS   C4B 5059   7.022  16.638  14.209  0.0340 -0.1572  0.2043
  432DOPE   NH3 5060   8.862  21.679  15.104 -0.0704 -0.1921  0.2133
  432DOPE   PO4 5061   9.123  21.724  14.970  0.0684  0.2053 -0.0281
  432DOPE   GL1 5062   9.000  22.096  14.916  0.2107 -0.1093  0.0009
  432DOPE   GL2 5063   8.776  22.064  14.661 -0.2729 -0.2743  0.4118
  432DOPE   C1A 5064   9.210  22.427  14.724  0.2479 -0.3061  0.1759
  432DOPE   D2A 5065   9.500  22.741  14.562 -0.2828  0.0544 -0.0570
  432DOPE   C3A 5066   9.943  22.724  14.366  0.3762  0.0207  0.1036
  432DOPE   C4A 5067  10.298  22.856  14.654  0.0155  0.2201 -0.1810
  432DOPE   C1B 5068   8.515  22.102  14.321  0.2054 -0.0691 -0.0797
  432DOPE   D2B 5069   8.203  22.341  14.060 -0.0957  0.2309 -0.2006
  432DOPE   C3B 5070   7.887  22.161  13.776 -0.0551  0.1776 -0.1085
  432DOPE   C4B 5071   7.563  21.900  13.529 -0.2362  0.1522 -0.1789
  433POSM   NC3 5072   9.433  16.796  15.650  0.1473  0.1297  0.3607
  433POSM   PO4 5073   9.249  17.038  15.899  0.0283 -0.3013 -0.1541
  433POSM   AM1 5074   9.351  17.212  15.645 -0.0362  0.3474  0.3131
  433POSM   AM2 5075   9.414  17.468  15.518  0.1991  0.1439  0.1172
  433POSM   T1A 5076   9.544  17.122  15.200  0.0527 -0.3031  0.0451
  433POSM   C2A 5077   9.578  17.015  14.748 -0.2271  0.0135 -0.0507
  433POSM   C3A 5078   9.773  16.864  14.355 -0.2641  0.4874 -0.0726
  433POSM   C1B 5079   9.429  17.608  15.154 -0.2559 -0.0847  0.0666
  433POSM   D2B 5080   9.399  17.657  14.711  0.1097  0.0322 -0.1636
  433POSM   C3B 5081   9.119  17.881  14.473  0.0936 -0.1496  0.0305
  433POSM   C4B 5082   8.945  18.042  14.016 -0.2249 -0.0652  0.2994
  434POSM   NC3 5083  11.208  13.328  15.292  0.0328 -0.1260 -0.1000
  434POSM   PO4 5084  11.140  12.946  15.353 -0.2620  0.0267 -0.1189
  434POSM   AM1 5085  10.966  12.897  15.085 -0.0794 -0.1504  0.0305
  434POSM   AM2 5086  10.725  13.030  14.961  0.2332 -0.1895  0.3540
  434POSM   T1A 5087  10.933  12.731  14.543 -0.2499 -0.2626 -0.0260
  434POSM   C2A 5088  11.068  12.666  14.072 -0.1201  0.1961  0.3237
  434POSM   C3A 5089  10.959  12.642  13.616 -0.1266 -0.0912  0.0699
  434POSM   C1B 5090  10.745  13.286  14.703 -0.3421 -0.0680  0.0678
  434POSM   D2B 5091  10.682  13.485  14.335 -0.1831  0.0166 -0.4569
  434POSM   C3B 5092  10.508  13.473  13.937 -0.1865  0.2160 -0.0802
  434POSM   C4B 5093  10.816  13.559  13.621  0.1448 -0.2578  0.1647
  435DOPC   NC3 5094   1.795  20.046  16.360  0.0524 -0.1683  0.4152
  435DOPC   PO4 5095   1.781  20.358  16.595  0.0810  0.1170 -0.0115
  435DOPC   GL1 5096   1.632  20.530  16.245  0.0559 -0.1676  0.0722
  435DOPC   GL2 5097   1.446  20.749  16.434  0.2770  0.0037 -0.1164
  435DOPC   C1A 5098   1.588  20.337  15.773 -0.3436  0.3773 -0.0042
  435DOPC   D2A 5099   1.307  19.984  15.486  0.1271 -0.2048  0.4196
  435DOPC   C3A 5100   1.078  20.142  15.067 -0.0631 -0.0375 -0.0926
  435DOPC   C4A 5101   0.848  20.497  14.868 -0.0108 -0.2458 -0.2657
  435DOPC   C1B 5102   1.790  21.008  16.361  0.0004  0.0290  0.0974
  435DOPC   D2B 5103   2.012  21.035  16.055 -0.1179 -0.1078  0.0940
  435DOPC   C3B 5104   2.458  21.149  15.956  0.1881 -0.1187  0.1170
  435DOPC   C4B 5105   2.816  21.063  16.183  0.0089 -0.2947 -0.2133
  436DOPC   NC3 5106   1.311  14.179  16.111  0.1032  0.1044 -0.0549
  436DOPC   PO4 5107   0.925  14.335  16.123 -0.1452 -0.0226 -0.0350
  436DOPC   GL1 5108   0.949  14.355  15.720  0.4684 -0.1355 -0.2190
  436DOPC   GL2 5109   1.079  14.080  15.697  0.0878 -0.2642  0.0148
  436DOPC   C1A 5110   0.963  14.669  15.392 -0.1927  0.0180  0.0505
  436DOPC   D2A 5111   0.789  14.672  14.938  0.1305  0.1541  0.0946
  436DOPC   C3A 5112   0.591  15.054  14.817  0.1840  0.0439  0.0243
  436DOPC   C4A 5113   0.655  15.480  14.963 -0.2689  0.1999 -0.0352
  436DOPC   C1B 5114   1.220  14.039  15.281 -0.0794 -0.3257 -0.0378
  436DOPC   D2B 5115   1.552  13.828  15.208 -0.1928  0.1930  0.1882
  436DOPC   C3B 5116   1.655  13.694  14.785 -0.0332  0.1885  0.1641
  436DOPC   C4B 5117   1.448  13.706  14.328  0.0222  0.0990 -0.0716
  437POSM   NC3 5118   6.861  11.797  16.247 -0.1488 -0.0847  0.1323
  437POSM   PO4 5119   6.568  11.558  16.222 -0.1789 -0.2044 -0.1329
  437POSM   AM1 5120   6.370  11.546  15.941 -0.2750  0.2624 -0.2879
  437POSM   AM2 5121   6.299  11.729  15.723 -0.2644  0.0822 -0.2041
  437POSM   T1A 5122   6.272  11.216  15.581  0.1007  0.1196  0.0639
  437POSM   C2A 5123   6.318  10.785  15.444  0.2631 -0.3123  0.2884
  437POSM   C3A 5124   6.304  10.360  15.254 -0.0244 -0.1252  0.0780
  437POSM   C1B 5125   6.397  11.680  15.391 -0.0820 -0.0030 -0.0878
  437POSM   D2B 5126   6.439  11.800  14.936  0.0487  0.0143 -0.0955
  437POSM   C3B 5127   6.669  12.136  14.786  0.1623  0.2069 -0.0705
  437POSM   C4B 5128   6.475  12.603  14.788  0.1405  0.4104  0.2293
  438POSM   NC3 5129  10.938  16.072  15.345  0.1267  0.0945 -0.2459
  438POSM   PO4 5130  10.674  16.216  15.174  0.0293 -0.3147  0.1097
  438POSM   AM1 5131  10.633  16.372  14.878  0.1729  0.5661 -0.3005
  438POSM   AM2 5132  10.590  16.678  14.885  0.1234  0.0275  0.1511
  438POSM   T1A 5133  10.715  16.491  14.411 -0.4215  0.2632  0.0273
  438POSM   C2A 5134  10.989  16.423  14.050  0.3435 -0.1107  0.0711
  438POSM   C3A 5135  11.166  16.492  13.621 -0.1200 -0.1434 -0.4285
  438POSM   C1B 5136  10.720  16.961  14.782 -0.3703  0.2765 -0.0145
  438POSM   D2B 5137  11.090  17.236  14.675 -0.0063 -0.3352  0.1680
  438POSM   C3B 5138  11.140  17.325  14.226 -0.0136  0.2721 -0.0371
  438POSM   C4B 5139  11.324  17.627  13.876  0.1642  0.2593  0.1373
  439DOPE   NH3 5140  10.029  22.261  15.964  0.0451 -0.0134  0.3357
  439DOPE   PO4 5141   9.992  22.347  15.668 -0.0603  0.2923  0.1955
  439DOPE   GL1 5142  10.155  22.254  15.358  0.0880 -0.0289  0.0744
  439DOPE   GL2 5143  10.135  22.540  15.194 -0.1281 -0.2042  0.1431
  439DOPE   C1A 5144  10.329  21.913  15.120 -0.3699  0.1818  0.1418
  439DOPE   D2A 5145  10.086  21.969  14.779 -0.0516 -0.0070 -0.1800
  439DOPE   C3A 5146  10.073  22.197  14.405 -0.0326  0.0593 -0.1361
  439DOPE   C4A 5147   9.965  22.338  14.009  0.1401 -0.2424  0.0734
  439DOPE   C1B 5148   9.851  22.393  14.824 -0.1770  0.0246  0.0519
  439DOPE   D2B 5149   9.592  22.269  14.499 -0.2575 -0.0906 -0.1050
  439DOPE   C3B 5150   9.222  22.065  14.379 -0.2177 -0.1074 -0.1370
  439DOPE   C4B 5151   8.921  21.789  14.112  0.1685 -0.0885  0.0828
  440DOPC   NC3 5152   6.922  20.067  15.632  0.3179 -0.0435  0.0043
  440DOPC   PO4 5153   6.790  20.472  15.625 -0.0323  0.3143 -0.1026
  440DOPC   GL1 5154   6.905  20.623  15.282 -0.1021 -0.0529  0.1982
  440DOPC   GL2 5155   7.092  20.848  15.284  0.2765  0.4044  0.1505
  440DOPC   C1A 5156   6.701  20.987  15.028 -0.1887 -0.0882 -0.0564
  440DOPC   D2A 5157   6.385  21.053  14.605  0.3493 -0.1931  0.1016
  440DOPC   C3A 5158   6.432  21.363  14.213  0.0593  0.2540 -0.0319
  440DOPC   C4A 5159   6.839  21.600  14.118 -0.2223 -0.1113 -0.0093
  440DOPC   C1B 5160   7.187  21.045  14.916  0.3066 -0.0569 -0.0567
  440DOPC   D2B 5161   7.500  21.286  14.661  0.1217 -0.0458 -0.0389
  440DOPC   C3B 5162   7.664  21.184  14.239  0.0794  0.3946  0.0477
  440DOPC   C4B 5163   8.030  21.293  13.981 -0.1614 -0.0178  0.1246
  441DOPE   NH3 5164   7.733  17.036  15.918  0.2124 -0.0425 -0.1015
  441DOPE   PO4 5165   7.536  17.140  16.112 -0.0828  0.0186 -0.1807
  441DOPE   GL1 5166   7.360  17.268  15.720  0.3474 -0.0651 -0.0604
  441DOPE   GL2 5167   7.445  17.080  15.524  0.0670 -0.5219 -0.1280
  441DOPE   C1A 5168   7.278  17.553  15.379  0.2720  0.2825 -0.4352
  441DOPE   D2A 5169   7.314  17.911  15.179 -0.0839  0.0180  0.0734
  441DOPE   C3A 5170   7.737  18.150  15.174 -0.0691  0.3606 -0.2871
  441DOPE   C4A 5171   7.949  18.287  14.781  0.3427 -0.0866  0.0177
  441DOPE   C1B 5172   7.497  17.043  15.039  0.0711  0.0617  0.0705
  441DOPE   D2B 5173   7.520  17.310  14.665  0.1774 -0.0920 -0.5522
  441DOPE   C3B 5174   7.185  17.211  14.400  0.2708 -0.0280 -0.0273
  441DOPE   C4B 5175   6.934  17.251  13.991 -0.2368 -0.2199  0.3100
  442DOPE   NH3 5176  10.311  14.881  15.598  0.4377 -0.0831 -0.0320
  442DOPE   PO4 5177  10.325  14.930  15.281  0.1390  0.0541  0.0208
  442DOPE   GL1 5178  10.193  14.801  14.894  0.2511 -0.0604 -0.3180
  442DOPE   GL2 5179  10.189  14.937  14.554 -0.1353  0.0211 -0.0677
  442DOPE   C1A 5180   9.906  14.529  14.659  0.2206 -0.0309  0.1513
  442DOPE   D2A 5181   9.692  14.249  14.416 -0.2759  0.1580  0.0210
  442DOPE   C3A 5182   9.392  14.102  14.039 -0.2025 -0.1078  0.0787
  442DOPE   C4A 5183   9.068  14.379  13.825 -0.1987  0.2021 -0.3259
  442DOPE   C1B 5184   9.961  15.141  14.166  0.2545 -0.0274 -0.0454
  442DOPE   D2B 5185   9.711  15.018  13.771  0.0414 -0.2937  0.0207
  442DOPE   C3B 5186   9.361  15.229  13.526  0.3797 -0.4140  0.0875
  442DOPE   C4B 5187   8.903  15.409  13.629  0.2236  0.2161 -0.2390
  443DOPE   NH3 5188   7.845  14.875  16.371  0.0375  0.0294 -0.0713
  443DOPE   PO4 5189   7.684  15.047  16.148 -0.2013 -0.0552  0.0628
  443DOPE   GL1 5190   7.614  15.079  15.834 -0.2332 -0.2606 -0.3214
  443DOPE   GL2 5191   7.407  15.253  15.763  0.2227 -0.0810 -0.0431
  443DOPE   C1A 5192   7.558  14.734  15.541 -0.0373 -0.1227 -0.0070
  443DOPE   D2A 5193   7.451  14.339  15.542 -0.0084 -0.0776 -0.0531
  443DOPE   C3A 5194   7.234  14.264  15.144 -0.1527  0.1535  0.1080
  443DOPE   C4A 5195   7.041  13.957  14.777 -0.1081  0.0695 -0.0549
  443DOPE   C1B 5196   7.192  15.060  15.450  0.2149  0.0956  0.3786
  443DOPE   D2B 5197   7.045  14.728  15.156 -0.3164 -0.2147  0.3110
  443DOPE   C3B 5198   6.715  14.480  15.281 -0.1157  0.0634 -0.1466
  443DOPE   C4B 5199   6.313  14.318  15.261 -0.1889 -0.0509 -0.3564
  444DOPS   CNO 5200   1.025  16.796  16.645  0.2113  0.1192  0.0493
  444DOPS   PO4 5201   1.058  16.964  16.289  0.0272  0.2032  0.0121
  444DOPS   GL1 5202   1.056  17.123  15.943 -0.1796 -0.0678  0.0612
  444DOPS   GL2 5203   1.158  16.779  15.852 -0.0196 -0.5487  0.1903
  444DOPS   C1A 5204   1.181  17.517  15.732  0.2017 -0.1326  0.3737
  444DOPS   D2A 5205   1.234  17.677  15.321 -0.0707  0.0696 -0.1123
  444DOPS   C3A 5206   1.239  17.639  14.909 -0.0153 -0.1594 -0.0461
  444DOPS   C4A 5207   1.126  17.619  14.446  0.0340 -0.0174 -0.2726
  444DOPS   C1B 5208   1.095  17.035  15.436  0.0099 -0.0450  0.1178
  444DOPS   D2B 5209   1.031  17.163  14.969 -0.0118  0.1815 -0.1641
  444DOPS   C3B 5210   0.734  17.153  14.690 -0.0159  0.1757  0.0275
  444DOPS   C4B 5211   0.710  17.044  14.203 -0.2254 -0.2255 -0.0743
  445DOPE   NH3 5212   5.513  18.480  16.602  0.2504  0.2269  0.0101
  445DOPE   PO4 5213   5.808  18.378  16.518 -0.0917 -0.0171  0.0313
  445DOPE   GL1 5214   5.681  18.624  16.123  0.3092  0.6120  0.4818
  445DOPE   GL2 5215   5.490  18.431  16.020 -0.3172 -0.1237 -0.0040
  445DOPE   C1A 5216   5.892  18.809  15.742  0.0554  0.0133  0.1829
  445DOPE   D2A 5217   6.322  18.956  15.598 -0.3173 -0.0804 -0.3062
  445DOPE   C3A 5218   6.323  18.903  15.154 -0.1456 -0.0940  0.1092
  445DOPE   C4A 5219   6.663  18.669  14.868 -0.0901 -0.1828 -0.1201
  445DOPE   C1B 5220   5.707  18.168  15.686 -0.2618 -0.0246  0.1689
  445DOPE   D2B 5221   6.076  17.967  15.430  0.2673  0.2296 -0.0079
  445DOPE   C3B 5222   6.203  18.295  15.090  0.2508  0.1558 -0.1323
  445DOPE   C4B 5223   6.060  18.341  14.660 -0.2750 -0.2786  0.0970
  446DOPE   NH3 5224   3.333  17.823  16.082 -0.1064  0.2665 -0.0140
  446DOPE   PO4 5225   3.478  17.667  15.817  0.3670 -0.0973  0.1276
  446DOPE   GL1 5226   3.439  17.822  15.334  0.0865  0.1628 -0.0141
  446DOPE   GL2 5227   3.528  18.103  15.406  0.1351 -0.0373  0.1650
  446DOPE   C1A 5228   3.143  17.698  14.963  0.0972  0.4478  0.1129
  446DOPE   D2A 5229   2.984  17.386  14.629  0.0965 -0.0472  0.2131
  446DOPE   C3A 5230   2.991  17.419  14.169 -0.0355  0.0765 -0.1061
  446DOPE   C4A 5231   2.736  17.560  13.849  0.1886  0.0876  0.1197
  446DOPE   C1B 5232   3.705  17.982  14.977 -0.2770 -0.0938  0.1570
  446DOPE   D2B 5233   3.786  18.198  14.559 -0.1740 -0.0883 -0.0261
  446DOPE   C3B 5234   3.556  18.572  14.491 -0.1235  0.2257 -0.4055
  446DOPE   C4B 5235   3.420  18.918  14.223 -0.0237 -0.2085  0.2949
  447POSM   NC3 5236   2.121  12.369  16.010 -0.0720  0.2911 -0.0171
  447POSM   PO4 5237   2.306  12.538  16.356  0.0205 -0.0408  0.1576
  447POSM   AM1 5238   2.618  12.392  16.365  0.1298 -0.1204  0.1930
  447POSM   AM2 5239   2.852  12.455  16.504  0.2796  0.2536 -0.1702
  447POSM   T1A 5240   2.935  12.040  16.199 -0.0125 -0.4289  0.1936
  447POSM   C2A 5241   3.264  11.873  15.931  0.2222  0.1997  0.0551
  447POSM   C3A 5242   3.524  12.107  15.642  0.0801 -0.1854  0.3271
  447POSM   C1B 5243   3.174  12.449  16.370 -0.1883  0.0166  0.1094
  447POSM   D2B 5244   3.510  12.352  16.070  0.0356 -0.0027 -0.2020
  447POSM   C3B 5245   3.634  12.617  15.726 -0.1661 -0.0789  0.1691
  447POSM   C4B 5246   3.804  12.548  15.290 -0.0298  0.0899 -0.2962
  448POSM   NC3 5247   3.960  14.922  16.746 -0.4065  0.2007 -0.4095
  448POSM   PO4 5248   4.310  15.067  16.807 -0.0314  0.0452 -0.0526
  448POSM   AM1 5249   4.292  15.125  16.473 -0.1204 -0.1993 -0.0303
  448POSM   AM2 5250   4.196  15.041  16.200  0.1693  0.0779  0.0102
  448POSM   T1A 5251   4.594  15.292  16.104  0.0380 -0.1779  0.0136
  448POSM   C2A 5252   4.784  15.640  15.897 -0.2909 -0.0568  0.0397
  448POSM   C3A 5253   5.063  15.791  15.533 -0.0148  0.4823  0.0039
  448POSM   C1B 5254   4.182  14.779  15.943 -0.2580  0.0143 -0.2706
  448POSM   D2B 5255   4.308  14.567  15.550  0.5281 -0.1856  0.2481
  448POSM   C3B 5256   4.471  14.709  15.151 -0.1734  0.2822  0.2398
  448POSM   C4B 5257   4.610  15.188  14.978  0.1736  0.0379 -0.2996
  449DOPC   NC3 5258   5.041  17.438  16.455 -0.0862 -0.0426  0.2575
  449DOPC   PO4 5259   5.264  17.600  16.206  0.2009  0.1632  0.4178
  449DOPC   GL1 5260   5.367  17.677  15.838 -0.0717 -0.3523  0.3945
  449DOPC   GL2 5261   5.641  17.604  15.822  0.1077  0.2196  0.1033
  449DOPC   C1A 5262   5.224  17.904  15.428  0.0731 -0.0208  0.0074
  449DOPC   D2A 5263   5.203  17.915  14.949  0.1058  0.0357 -0.2363
  449DOPC   C3A 5264   4.949  17.628  14.688  0.2082 -0.0241 -0.3509
  449DOPC   C4A 5265   4.673  17.495  14.443  0.1076  0.1508 -0.0799
  449DOPC   C1B 5266   5.630  17.644  15.290 -0.0155 -0.1318 -0.1486
  449DOPC   D2B 5267   5.832  17.961  15.010 -0.1852  0.0082 -0.1614
  449DOPC   C3B 5268   5.584  18.184  14.670  0.1834  0.2244 -0.3115
  449DOPC   C4B 5269   5.244  18.010  14.391 -0.2049  0.3163 -0.1217
  450DOPC   NC3 5270   3.542  20.610  16.833  0.0731  0.1122  0.2157
  450DOPC   PO4 5271   3.483  20.313  16.641 -0.2734  0.1990 -0.2364
  450DOPC   GL1 5272   3.397  20.320  16.253  0.3575  0.1179  0.4105
  450DOPC   GL2 5273   3.655  20.410  16.169 -0.2681  0.1623 -0.3351
  450DOPC   C1A 5274   3.470  20.070  15.834  0.0017  0.2706  0.2941
  450DOPC   D2A 5275   3.628  19.928  15.443  0.1901  0.0337  0.2788
  450DOPC   C3A 5276   3.669  19.509  15.377  0.1164 -0.0458 -0.1208
  450DOPC   C4A 5277   3.535  19.069  15.514  0.2974 -0.1646  0.1058
  450DOPC   C1B 5278   3.963  20.291  15.851 -0.1776 -0.0897 -0.1148
  450DOPC   D2B 5279   3.998  20.462  15.444  0.2491  0.0975 -0.1281
  450DOPC   C3B 5280   3.781  20.411  15.008  0.0439 -0.3228 -0.1377
  450DOPC   C4B 5281   3.657  20.409  14.530 -0.1071  0.2381  0.0056
  451POSM   NC3 5282   2.575  21.481  16.692 -0.0976 -0.1832 -0.1778
  451POSM   PO4 5283   2.446  21.818  16.649 -0.0596 -0.1386 -0.0625
  451POSM   AM1 5284   2.463  21.829  16.345  0.1289 -0.2014 -0.1045
  451POSM   AM2 5285   2.399  21.641  16.135 -0.0448 -0.1029 -0.0534
  451POSM   T1A 5286   2.401  22.010  15.843 -0.0694 -0.1654  0.2451
  451POSM   C2A 5287   2.581  22.090  15.426 -0.0359  0.1046  0.2898
  451POSM   C3A 5288   2.750  22.047  14.971  0.0251  0.1160 -0.2777
  451POSM   C1B 5289   2.668  21.652  15.956  0.1348  0.2212  0.0117
  451POSM   D2B 5290   2.954  21.678  15.568  0.0984  0.0446  0.4090
  451POSM   C3B 5291   3.292  21.394  15.483  0.0408 -0.0024 -0.0942
  451POSM   C4B 5292   3.711  21.232  15.247  0.1330  0.0692  0.0633
  452DOPC   NC3 5293   8.866  13.944  15.971 -0.1747  0.2772  0.1261
  452DOPC   PO4 5294   8.821  13.635  15.740 -0.0929  0.2083 -0.2402
  452DOPC   GL1 5295   8.971  13.613  15.406 -0.2178 -0.0428  0.2832
  452DOPC   GL2 5296   8.836  13.427  15.294 -0.3387  0.2317  0.1600
  452DOPC   C1A 5297   9.187  13.699  15.032 -0.1282 -0.1026  0.0906
  452DOPC   D2A 5298   9.405  13.552  14.604  0.3002 -0.2244  0.1524
  452DOPC   C3A 5299   9.105  13.787  14.318  0.1965  0.0645 -0.1733
  452DOPC   C4A 5300   8.838  13.758  13.888  0.1011 -0.2809 -0.0553
  452DOPC   C1B 5301   8.825  13.201  14.894  0.0930  0.0932 -0.2352
  452DOPC   D2B 5302   8.693  13.031  14.486 -0.3137  0.0869  0.0543
  452DOPC   C3B 5303   8.673  13.426  14.297  0.0434 -0.2627  0.1919
  452DOPC   C4B 5304   8.352  13.681  14.072  0.7297 -0.5196  0.2251
  453POSM   NC3 5305   0.124  19.681  15.971 -0.3369  0.0775  0.0665
  453POSM   PO4 5306   0.439  19.778  16.214 -0.1284  0.0184  0.1533
  453POSM   AM1 5307   0.594  19.734  15.936  0.1416  0.2840  0.2858
  453POSM   AM2 5308   0.790  19.881  15.752  0.0395  0.2206  0.0012
  453POSM   T1A 5309   0.519  19.510  15.495 -0.4348 -0.0000  0.1771
  453POSM   C2A 5310   0.585  19.667  15.064  0.1318  0.1598  0.2348
  453POSM   C3A 5311   0.728  19.928  14.736  0.1605  0.0475 -0.1533
  453POSM   C1B 5312   0.742  20.024  15.474  0.0760 -0.0491 -0.2266
  453POSM   D2B 5313   0.487  20.165  15.142  0.0707  0.1860  0.2509
  453POSM   C3B 5314   0.367  20.441  14.787  0.1121 -0.1944  0.0135
  453POSM   C4B 5315   0.255  20.677  14.430 -0.0804  0.0606  0.0867
  454DOPC   NC3 5316   3.064  16.060  16.447 -0.1229 -0.0284  0.2476
  454DOPC   PO4 5317   2.691  16.084  16.315  0.1132  0.0615 -0.1542
  454DOPC   GL1 5318   2.677  16.132  15.934 -0.2561 -0.0714 -0.0771
  454DOPC   GL2 5319   2.723  15.897  15.819  0.3698 -0.0078  0.0503
  454DOPC   C1A 5320   2.740  16.442  15.524  0.1457 -0.0365 -0.1553
  454DOPC   D2A 5321   2.988  16.725  15.253 -0.0065 -0.0368 -0.0492
  454DOPC   C3A 5322   3.481  16.593  15.226  0.1477  0.0541  0.1021
  454DOPC   C4A 5323   3.903  16.347  15.327  0.0350  0.0751  0.1069
  454DOPC   C1B 5324   2.355  15.983  15.582  0.0315  0.0987  0.1139
  454DOPC   D2B 5325   2.202  16.277  15.245  0.1418 -0.0260  0.1837
  454DOPC   C3B 5326   2.460  16.555  14.996 -0.0609 -0.2173  0.3128
  454DOPC   C4B 5327   2.813  16.450  14.720 -0.0834  0.1482  0.2343
  455POSM   NC3 5328   1.731  22.778  16.709  0.0829  0.2498 -0.1793
  455POSM   PO4 5329   1.441  23.038  16.560  0.2115 -0.0027 -0.1324
  455POSM   AM1 5330   1.349  22.822  16.332  0.3014 -0.2261 -0.2116
  455POSM   AM2 5331   1.464  22.525  16.269 -0.0458  0.4155 -0.0423
  455POSM   T1A 5332   1.112  22.712  15.892  0.0744 -0.0256 -0.1249
  455POSM   C2A 5333   1.261  22.559  15.504 -0.0011 -0.1504 -0.0166
  455POSM   C3A 5334   1.159  22.599  15.093 -0.0036 -0.2088  0.0694
  455POSM   C1B 5335   1.534  22.416  16.001  0.0521  0.1809  0.1724
  455POSM   D2B 5336   1.785  22.433  15.598 -0.0655  0.2178 -0.3429
  455POSM   C3B 5337   1.673  22.497  15.128  0.0138 -0.1012  0.0912
  455POSM   C4B 5338   1.835  22.327  14.700 -0.1805 -0.4112 -0.1398
  456DOPE   NH3 5339   3.846  18.499  16.150 -0.0371  0.1981  0.0852
  456DOPE   PO4 5340   3.627  18.767  16.207 -0.2172 -0.2480 -0.0603
  456DOPE   GL1 5341   3.781  18.820  15.838  0.3955  0.1626  0.1010
  456DOPE   GL2 5342   3.612  18.593  15.699 -0.0298 -0.1678  0.2032
  456DOPE   C1A 5343   4.034  18.749  15.426  0.1825  0.0791 -0.0326
  456DOPE   D2A 5344   4.151  18.928  15.050 -0.3063 -0.0309 -0.2407
  456DOPE   C3A 5345   4.208  18.727  14.691  0.0529 -0.0455 -0.1597
  456DOPE   C4A 5346   4.317  18.516  14.282 -0.2635 -0.1723  0.0766
  456DOPE   C1B 5347   3.415  18.623  15.300 -0.2268  0.0753 -0.0349
  456DOPE   D2B 5348   3.062  18.592  14.953  0.0418 -0.1005  0.0094
  456DOPE   C3B 5349   2.670  18.884  15.109  0.3883  0.0692 -0.4315
  456DOPE   C4B 5350   2.315  18.922  15.430  0.2996 -0.2280  0.0727
  457DOPC   NC3 5351  10.643  13.190  15.426  0.1384  0.1524  0.1852
  457DOPC   PO4 5352  10.271  13.359  15.469  0.5826 -0.0433  0.0318
  457DOPC   GL1 5353  10.101  13.569  15.215 -0.3383  0.0166 -0.2499
  457DOPC   GL2 5354  10.369  13.498  15.006 -0.0142 -0.2128 -0.2728
  457DOPC   C1A 5355   9.637  13.515  15.107  0.1610  0.4856  0.1191
  457DOPC   D2A 5356   9.335  13.182  14.916  0.0276  0.1229  0.1586
  457DOPC   C3A 5357   9.406  12.720  14.999 -0.1929  0.1069 -0.0593
  457DOPC   C4A 5358   9.433  12.315  14.862 -0.1238 -0.1732  0.2439
  457DOPC   C1B 5359  10.295  13.674  14.583 -0.1239  0.3886  0.4772
  457DOPC   D2B 5360  10.176  13.813  14.149  0.1836  0.2735  0.0971
  457DOPC   C3B 5361  10.005  14.174  13.978 -0.1005  0.1936  0.0019
  457DOPC   C4B 5362  10.017  14.619  14.144 -0.1642 -0.3960 -0.4127
  458DOPC   NC3 5363   6.024  11.773  16.193  0.1078  0.1408 -0.3106
  458DOPC   PO4 5364   6.372  11.999  16.215  0.1056  0.2203 -0.0024
  458DOPC   GL1 5365   6.532  12.199  15.910 -0.3953 -0.2768 -0.0354
  458DOPC   GL2 5366   6.727  11.981  15.799 -0.0093  0.0178  0.1375
  458DOPC   C1A 5367   6.812  12.523  15.715  0.0491 -0.1523  0.1395
  458DOPC   D2A 5368   7.045  12.747  15.443  0.5708 -0.1444  0.0418
  458DOPC   C3A 5369   6.986  12.507  15.028  0.0127 -0.1810  0.0610
  458DOPC   C4A 5370   7.009  12.446  14.552 -0.1053 -0.0989 -0.1804
  458DOPC   C1B 5371   6.796  11.559  15.639  0.3477  0.0301 -0.1002
  458DOPC   D2B 5372   6.682  11.244  15.355 -0.1498  0.0533 -0.0955
  458DOPC   C3B 5373   6.302  11.327  15.041  0.0494 -0.3485  0.2197
  458DOPC   C4B 5374   5.904  11.285  14.813  0.0937 -0.1262 -0.0098
  459DOPC   NC3 5375   4.428  16.294  16.448  0.2139  0.0359  0.0870
  459DOPC   PO4 5376   4.050  16.404  16.368  0.2144  0.2696  0.0451
  459DOPC   GL1 5377   3.991  16.421  16.025 -0.0312 -0.3848 -0.0606
  459DOPC   GL2 5378   3.776  16.218  15.880 -0.1508  0.2073 -0.2911
  459DOPC   C1A 5379   3.893  16.710  15.663  0.3970 -0.0645  0.0447
  459DOPC   D2A 5380   3.954  16.985  15.278 -0.1248  0.0104 -0.1684
  459DOPC   C3A 5381   4.120  17.311  14.995 -0.0385  0.0299  0.0299
  459DOPC   C4A 5382   4.282  17.587  14.744 -0.1638  0.1870 -0.0277
  459DOPC   C1B 5383   3.557  16.062  15.524 -0.1163 -0.0585  0.1410
  459DOPC   D2B 5384   3.449  15.835  15.191 -0.1347  0.0028 -0.0675
  459DOPC   C3B 5385   3.474  15.855  14.747  0.0577 -0.0933  0.0748
  459DOPC   C4B 5386   3.880  15.789  14.478  0.2356 -0.1478  0.3544
  460DOPC   NC3 5387  10.113  19.119  15.322 -0.0064  0.1687  0.0449
  460DOPC   PO4 5388  10.038  19.437  15.543  0.2111  0.0398  0.1235
  460DOPC   GL1 5389   9.995  19.571  15.244  0.0341  0.3498 -0.1392
  460DOPC   GL2 5390  10.259  19.681  15.185  0.0741  0.0461  0.0781
  460DOPC   C1A 5391   9.979  19.745  14.846  0.0031  0.0988 -0.0263
  460DOPC   D2A 5392   9.938  20.221  14.744  0.3375  0.3623  0.0588
  460DOPC   C3A 5393   9.754  20.107  14.320 -0.1318  0.0946 -0.2551
  460DOPC   C4A 5394   9.482  19.939  14.016 -0.0956 -0.0912 -0.3021
  460DOPC   C1B 5395  10.365  19.374  14.828  0.2515 -0.0879 -0.1422
  460DOPC   D2B 5396  10.439  19.022  14.524  0.2278 -0.0201  0.1405
  460DOPC   C3B 5397  10.486  18.791  14.116 -0.3076 -0.1541  0.0304
  460DOPC   C4B 5398  10.353  18.567  13.713 -0.1454  0.0238 -0.0877
  461DOPS   CNO 5399   5.788  16.963  16.443 -0.2199  0.3415  0.0144
  461DOPS   PO4 5400   5.437  17.133  16.507 -0.0836  0.2396  0.0245
  461DOPS   GL1 5401   5.535  17.245  16.158 -0.2895 -0.0293 -0.0955
  461DOPS   GL2 5402   5.304  17.142  15.990  0.2219  0.4326  0.2844
  461DOPS   C1A 5403   5.788  17.129  15.751  0.2524 -0.0600  0.2056
  461DOPS   D2A 5404   5.977  16.780  15.541  0.0662 -0.3407  0.1434
  461DOPS   C3A 5405   5.748  16.466  15.348  0.0638 -0.1809 -0.1012
  461DOPS   C4A 5406   5.498  16.296  14.991  0.2530  0.2018 -0.2919
  461DOPS   C1B 5407   5.312  17.276  15.547 -0.0110  0.1285  0.4519
  461DOPS   D2B 5408   5.136  17.280  15.131 -0.2125  0.1928 -0.0138
  461DOPS   C3B 5409   5.501  17.263  14.871  0.4076 -0.2198 -0.0852
  461DOPS   C4B 5410   5.481  17.642  14.604  0.0031  0.1754 -0.3987
  462DOPC   NC3 5411   6.713  16.111  16.250 -0.1509  0.0737  0.4473
  462DOPC   PO4 5412   7.074  15.973  16.390 -0.0665  0.0488  0.2176
  462DOPC   GL1 5413   6.924  15.714  16.150  0.1430 -0.0931 -0.1728
  462DOPC   GL2 5414   6.672  15.515  16.128  0.0338  0.2288  0.0205
  462DOPC   C1A 5415   6.947  15.614  15.655 -0.1318  0.2078  0.0759
  462DOPC   D2A 5416   6.965  15.603  15.227 -0.1679  0.0765 -0.0834
  462DOPC   C3A 5417   7.250  15.846  14.948 -0.2022  0.1176 -0.1618
  462DOPC   C4A 5418   7.445  16.190  14.723 -0.0581 -0.1901 -0.2445
  462DOPC   C1B 5419   6.272  15.672  15.948 -0.0905  0.0674  0.1500
  462DOPC   D2B 5420   5.956  15.953  15.787  0.1941  0.0792 -0.2395
  462DOPC   C3B 5421   5.883  15.939  15.332  0.1345 -0.3758 -0.1316
  462DOPC   C4B 5422   5.978  15.928  14.893  0.0359  0.1553  0.0724
  463DOPS   CNO 5423   7.495  19.019  16.100  0.0055 -0.2116 -0.1979
  463DOPS   PO4 5424   7.690  19.277  15.936  0.0845  0.0059  0.1409
  463DOPS   GL1 5425   7.762  19.425  15.525 -0.0898 -0.2709 -0.4436
  463DOPS   GL2 5426   7.730  19.066  15.490 -0.3844  0.2248 -0.0058
  463DOPS   C1A 5427   7.586  19.512  15.145 -0.0277  0.1140 -0.0619
  463DOPS   D2A 5428   7.394  19.510  14.747 -0.1838 -0.1596  0.3176
  463DOPS   C3A 5429   7.696  19.569  14.468 -0.4484 -0.2384  0.2296
  463DOPS   C4A 5430   7.814  19.870  14.092 -0.1756 -0.2675  0.0004
  463DOPS   C1B 5431   7.477  19.040  15.182  0.0264  0.0884  0.3260
  463DOPS   D2B 5432   7.131  18.846  14.942  0.2504  0.0764 -0.0753
  463DOPS   C3B 5433   6.938  19.106  14.617  0.4052 -0.0346  0.1571
  463DOPS   C4B 5434   6.570  19.042  14.439 -0.0281  0.1386  0.2305
  464POSM   NC3 5435  11.655  12.723  15.429 -0.0191 -0.1152  0.1494
  464POSM   PO4 5436  11.906  12.456  15.574  0.2136  0.3410 -0.1812
  464POSM   AM1 5437  11.881  12.281  15.300 -0.0104 -0.1216 -0.2911
  464POSM   AM2 5438  11.829  12.014  15.197  0.0253  0.0389 -0.0055
  464POSM   T1A 5439  11.844  12.287  14.797 -0.0748  0.0425  0.0824
  464POSM   C2A 5440  11.909  12.271  14.377 -0.0641 -0.0108  0.3008
  464POSM   C3A 5441  12.225  12.143  14.141 -0.0334  0.0713 -0.3465
  464POSM   C1B 5442  11.810  11.784  14.927  0.3767 -0.3183  0.0043
  464POSM   D2B 5443  11.699  11.381  14.722  0.0947 -0.2290 -0.0255
  464POSM   C3B 5444  11.692  11.339  14.290 -0.1330  0.0701  0.0400
  464POSM   C4B 5445  11.737  11.447  13.815 -0.1480  0.0224  0.2796
  465DOPS   CNO 5446   4.821  15.960  16.610  0.1780 -0.1551  0.0746
  465DOPS   PO4 5447   4.792  16.051  16.231  0.0701  0.0097 -0.0814
  465DOPS   GL1 5448   4.436  16.125  15.978  0.2352 -0.2179 -0.0433
  465DOPS   GL2 5449   4.413  15.861  15.770 -0.2259 -0.3738  0.0459
  465DOPS   C1A 5450   4.285  16.339  15.602  0.5222  0.2504  0.0524
  465DOPS   D2A 5451   4.362  16.265  15.135 -0.1820  0.2993  0.2239
  465DOPS   C3A 5452   4.001  16.107  14.864 -0.0348 -0.0031  0.0445
  465DOPS   C4A 5453   3.788  16.266  14.470 -0.2001 -0.0974  0.1525
  465DOPS   C1B 5454   4.123  15.866  15.386 -0.0653  0.1096  0.2324
  465DOPS   D2B 5455   4.079  15.602  15.030  0.2251  0.0460 -0.1039
  465DOPS   C3B 5456   4.326  15.509  14.629 -0.3494  0.1980 -0.1285
  465DOPS   C4B 5457   4.428  15.490  14.197  0.1166 -0.0995 -0.1246
  466DOPS   CNO 5458   0.570  14.416  16.593  0.4265  0.3025 -0.3533
  466DOPS   PO4 5459   0.456  14.374  16.251  0.0698 -0.1378  0.1800
  466DOPS   GL1 5460   0.517  14.278  15.796  0.4909  0.0909  0.3647
  466DOPS   GL2 5461   0.477  14.527  15.584 -0.0008  0.2582 -0.0117
  466DOPS   C1A 5462   0.210  14.032  15.559  0.0552  0.0269  0.2376
  466DOPS   D2A 5463   0.192  13.893  15.120  0.2164 -0.0191 -0.2496
  466DOPS   C3A 5464  -0.060  14.027  14.671 -0.0735  0.2156  0.2677
  466DOPS   C4A 5465  -0.172  13.757  14.300 -0.2505  0.0649  0.3283
  466DOPS   C1B 5466   0.282  14.438  15.198 -0.2359  0.1013 -0.1107
  466DOPS   D2B 5467   0.354  14.256  14.768  0.0966 -0.1409 -0.3591
  466DOPS   C3B 5468   0.497  13.884  14.628  0.0382  0.1205 -0.1326
  466DOPS   C4B 5469   0.649  13.505  14.835 -0.2432 -0.2395 -0.1654
  467DOPE   NH3 5470   3.732  15.545  16.275 -0.2791 -0.4357  0.2984
  467DOPE   PO4 5471   3.440  15.727  16.267 -0.1695 -0.3713  0.0524
  467DOPE   GL1 5472   3.029  15.760  16.133 -0.0287 -0.1486  0.0516
  467DOPE   GL2 5473   2.896  15.520  16.150  0.2269 -0.0362  0.3030
  467DOPE   C1A 5474   3.146  15.708  15.693  0.0935 -0.0258  0.0645
  467DOPE   D2A 5475   3.042  15.444  15.328  0.0232 -0.4952  0.0701
  467DOPE   C3A 5476   2.932  15.762  15.009  0.2298  0.0171  0.3511
  467DOPE   C4A 5477   2.495  15.970  14.939 -0.1619 -0.0481  0.3102
  467DOPE   C1B 5478   2.549  15.411  15.814 -0.3911  0.0860 -0.0816
  467DOPE   D2B 5479   2.556  15.574  15.410  0.0350 -0.1410 -0.2052
  467DOPE   C3B 5480   2.152  15.567  15.162  0.2233 -0.1880  0.0218
  467DOPE   C4B 5481   1.778  15.357  14.880 -0.1285  0.2263 -0.2101
  468DOPE   NH3 5482   8.636  12.141  15.878 -0.3507  0.1112 -0.2012
  468DOPE   PO4 5483   8.933  12.203  15.738 -0.1209 -0.1054 -0.2517
  468DOPE   GL1 5484   8.703  12.213  15.370 -0.0489  0.2253  0.0070
  468DOPE   GL2 5485   8.607  12.479  15.359 -0.3792  0.2602 -0.1166
  468DOPE   C1A 5486   8.463  12.243  14.960  0.2161 -0.0385  0.0570
  468DOPE   D2A 5487   8.314  12.234  14.476  0.2033 -0.1299  0.3819
  468DOPE   C3A 5488   8.349  11.862  14.167  0.0504 -0.2881 -0.3118
  468DOPE   C4A 5489   8.525  11.589  13.778 -0.2233 -0.0261 -0.2507
  468DOPE   C1B 5490   8.920  12.716  15.121  0.2812  0.1231  0.0659
  468DOPE   D2B 5491   9.081  12.720  14.658  0.2746 -0.1757  0.0376
  468DOPE   C3B 5492   9.500  12.784  14.531  0.2065 -0.2093 -0.0717
  468DOPE   C4B 5493   9.928  12.866  14.430 -0.2299  0.3992 -0.0757
  469DOPE   NH3 5494   7.420  21.601  16.282 -0.0566 -0.1605  0.2518
  469DOPE   PO4 5495   7.291  21.445  16.017 -0.1754  0.0446 -0.4114
  469DOPE   GL1 5496   7.213  21.287  15.599  0.4749 -0.0427  0.4486
  469DOPE   GL2 5497   6.922  21.264  15.458 -0.1630  0.2075  0.0971
  469DOPE   C1A 5498   7.383  21.432  15.219  0.3841 -0.0800  0.2266
  469DOPE   D2A 5499   7.579  21.738  14.907  0.1175 -0.0311 -0.0795
  469DOPE   C3A 5500   7.610  21.742  14.442  0.0194  0.2015 -0.1292
  469DOPE   C4A 5501   7.706  21.649  13.946  0.1590 -0.0250 -0.0246
  469DOPE   C1B 5502   6.918  21.471  15.012 -0.2542 -0.0586 -0.0987
  469DOPE   D2B 5503   7.126  21.655  14.643  0.0675  0.0446 -0.1189
  469DOPE   C3B 5504   7.236  21.414  14.247  0.1239  0.1671 -0.0723
  469DOPE   C4B 5505   7.301  21.237  13.774  0.0383  0.1997  0.0351
  470DOPC   NC3 5506   3.981  19.557  16.389 -0.1005 -0.1948 -0.4937
  470DOPC   PO4 5507   4.329  19.373  16.369  0.0200  0.1531 -0.0883
  470DOPC   GL1 5508   4.264  19.203  16.092  0.2052  0.1551 -0.1525
  470DOPC   GL2 5509   4.492  19.269  15.856 -0.2874 -0.1278 -0.0320
  470DOPC   C1A 5510   4.276  18.816  15.866 -0.1450  0.1452  0.1867
  470DOPC   D2A 5511   4.109  18.344  15.746 -0.4180  0.0546  0.1576
  470DOPC   C3A 5512   4.010  18.282  15.331  0.0067  0.1671  0.2478
  470DOPC   C4A 5513   3.802  18.508  14.952 -0.2888 -0.3409  0.0336
  470DOPC   C1B 5514   4.490  19.033  15.455  0.3492  0.2622 -0.0710
  470DOPC   D2B 5515   4.696  18.918  15.037  0.1215 -0.1994  0.1558
  470DOPC   C3B 5516   4.502  19.089  14.633 -0.3499  0.0424 -0.0033
  470DOPC   C4B 5517   4.693  19.430  14.444 -0.1859 -0.0194  0.2463
  471DOPC   NC3 5518  11.015  15.279  14.927  0.0586  0.0009 -0.1511
  471DOPC   PO4 5519  10.961  15.633  15.098  0.1256 -0.1554  0.1224
  471DOPC   GL1 5520  10.956  15.839  14.867  0.0396 -0.0175 -0.0854
  471DOPC   GL2 5521  11.163  15.819  14.668 -0.0965 -0.1060 -0.2140
  471DOPC   C1A 5522  10.790  15.978  14.468  0.1563  0.6000 -0.4646
  471DOPC   D2A 5523  10.472  16.079  14.132  0.0407 -0.2444  0.1210
  471DOPC   C3A 5524  10.409  16.073  13.619  0.0323  0.2188 -0.0388
  471DOPC   C4A 5525  10.479  15.887  13.170 -0.0494  0.2840  0.1157
  471DOPC   C1B 5526  11.519  15.707  14.433  0.1598 -0.3075  0.3579
  471DOPC   D2B 5527  11.518  15.612  13.947 -0.0262 -0.1438  0.0366
  471DOPC   C3B 5528  11.821  15.377  13.798 -0.1191  0.2075 -0.0135
  471DOPC   C4B 5529  12.289  15.400  13.687 -0.0054 -0.1743  0.0104
  472POSM   NC3 5530   2.895  16.411  16.832  0.1466 -0.1324  0.3343
  472POSM   PO4 5531   3.148  16.548  16.542  0.1348  0.2812 -0.0690
  472POSM   AM1 5532   3.155  16.513  16.191  0.3832 -0.2916  0.2135
  472POSM   AM2 5533   3.175  16.267  16.017  0.2290 -0.3472 -0.0047
  472POSM   T1A 5534   3.191  16.744  15.737 -0.2375  0.2615 -0.0223
  472POSM   C2A 5535   3.514  17.039  15.501 -0.1362 -0.1103 -0.0669
  472POSM   C3A 5536   3.585  17.415  15.153  0.1113  0.2675  0.3272
  472POSM   C1B 5537   3.099  16.184  15.697 -0.1102  0.0019  0.1871
  472POSM   D2B 5538   3.069  16.183  15.227 -0.1679  0.1928  0.1813
  472POSM   C3B 5539   3.284  16.302  14.872  0.3742 -0.0461 -0.0866
  472POSM   C4B 5540   3.245  16.518  14.483  0.1710 -0.2325  0.0534
  473POSM   NC3 5541   2.047  22.257  16.869 -0.0849  0.1598  0.0022
  473POSM   PO4 5542   1.691  22.238  16.667  0.0920  0.0353 -0.0338
  473POSM   AM1 5543   1.669  22.122  16.350 -0.4233 -0.2984 -0.0389
  473POSM   AM2 5544   1.523  21.981  16.169 -0.2166  0.0321 -0.4658
  473POSM   T1A 5545   1.956  22.092  15.950 -0.1556  0.0169 -0.0199
  473POSM   C2A 5546   1.948  21.923  15.496  0.2777  0.0321  0.0085
  473POSM   C3A 5547   1.949  21.496  15.253 -0.0626  0.3207 -0.1254
  473POSM   C1B 5548   1.487  21.926  15.788  0.1875 -0.0722  0.3343
  473POSM   D2B 5549   1.476  22.074  15.355 -0.1059 -0.0814 -0.0910
  473POSM   C3B 5550   1.695  21.931  14.958 -0.1613  0.0104 -0.0202
  473POSM   C4B 5551   1.880  21.790  14.497  0.3355 -0.1098  0.2277
  474DOPE   NH3 5552   2.308  14.064  16.150  0.1437  0.0068  0.1302
  474DOPE   PO4 5553   2.217  14.328  16.107 -0.0578  0.1347 -0.1164
  474DOPE   GL1 5554   2.141  14.389  15.713 -0.1147  0.0679  0.1190
  474DOPE   GL2 5555   2.338  14.117  15.657 -0.2529  0.0567  0.2033
  474DOPE   C1A 5556   2.416  14.641  15.371  0.0584  0.2425  0.2783
  474DOPE   D2A 5557   2.589  14.737  14.951  0.0335 -0.0857  0.2804
  474DOPE   C3A 5558   2.611  15.050  14.542 -0.1013  0.0334 -0.0532
  474DOPE   C4A 5559   2.597  15.094  14.092  0.1050 -0.3270  0.0153
  474DOPE   C1B 5560   2.433  14.153  15.190  0.0734  0.3178  0.2243
  474DOPE   D2B 5561   2.618  14.026  14.732 -0.0150  0.1044  0.0180
  474DOPE   C3B 5562   3.103  13.964  14.679 -0.1510 -0.1058  0.0316
  474DOPE   C4B 5563   3.487  13.785  14.456  0.0117  0.0318  0.1119
  475DOPE   NH3 5564   0.740  14.762  15.897  0.0188  0.0327  0.0687
  475DOPE   PO4 5565   0.640  15.085  15.923  0.0409 -0.2258  0.0181
  475DOPE   GL1 5566   0.917  15.298  15.757  0.2938 -0.0126  0.2085
  475DOPE   GL2 5567   1.127  15.076  15.723  0.0876  0.0070 -0.2183
  475DOPE   C1A 5568   1.293  15.547  15.871  0.0876  0.1958  0.4534
  475DOPE   D2A 5569   1.769  15.627  16.008 -0.4338 -0.2232  0.0647
  475DOPE   C3A 5570   2.055  15.533  15.650 -0.0448 -0.5341 -0.0413
  475DOPE   C4A 5571   1.795  15.227  15.368  0.2738  0.1692  0.1548
  475DOPE   C1B 5572   1.337  15.285  15.382 -0.1096  0.3115  0.3835
  475DOPE   D2B 5573   1.289  15.515  14.981 -0.0254  0.2108  0.3119
  475DOPE   C3B 5574   1.060  15.439  14.574  0.0691  0.3466  0.0783
  475DOPE   C4B 5575   1.272  15.366  14.153 -0.2636 -0.1810 -0.1245
  476DOPE   NH3 5576   5.712  22.802  16.184  0.0634 -0.2468 -0.0829
  476DOPE   PO4 5577   5.404  22.906  16.296 -0.0444 -0.1105 -0.0681
  476DOPE   GL1 5578   5.357  23.041  15.906  0.0261  0.1057  0.0511
  476DOPE   GL2 5579   5.245  23.288  15.955 -0.1002  0.0138  0.1864
  476DOPE   C1A 5580   5.212  22.926  15.457 -0.3609 -0.0982  0.0075
  476DOPE   D2A 5581   4.997  23.098  15.043 -0.1556 -0.3253 -0.2810
  476DOPE   C3A 5582   5.048  23.427  14.764 -0.0137 -0.0038  0.2563
  476DOPE   C4A 5583   4.877  23.591  14.333  0.0509  0.1684  0.0504
  476DOPE   C1B 5584   5.428  23.445  15.538 -0.0194  0.3067  0.2455
  476DOPE   D2B 5585   5.230  23.741  15.263  0.4481  0.0355 -0.3131
  476DOPE   C3B 5586   5.350  23.928  14.790  0.1509 -0.1648  0.0825
  476DOPE   C4B 5587   5.203  24.117  14.374 -0.0192 -0.1193  0.0140
  477DOPC   NC3 5588   0.068  12.395  16.401  0.0285 -0.2336  0.0131
  477DOPC   PO4 5589  -0.309  12.339  16.290 -0.1997 -0.2337  0.0784
  477DOPC   GL1 5590  -0.231  12.351  15.972  0.0591  0.2956  0.1808
  477DOPC   GL2 5591  -0.117  12.008  15.986  0.2447 -0.0249 -0.0054
  477DOPC   C1A 5592  -0.006  12.662  15.686 -0.0091  0.1156 -0.0140
  477DOPC   D2A 5593  -0.218  12.963  15.429  0.1656  0.0337 -0.0736
  477DOPC   C3A 5594  -0.156  13.253  15.051  0.0368 -0.2761 -0.1055
  477DOPC   C4A 5595   0.061  13.569  14.800 -0.1244  0.0303  0.0343
  477DOPC   C1B 5596   0.045  12.135  15.571 -0.3095  0.3635 -0.2785
  477DOPC   D2B 5597   0.276  12.431  15.209  0.3644  0.2474  0.0743
  477DOPC   C3B 5598   0.294  12.537  14.783 -0.2123  0.2824 -0.2084
  477DOPC   C4B 5599   0.150  12.299  14.416 -0.1942  0.0051  0.1958
  478DOPC   NC3 5600   0.789  17.354  16.387 -0.0490 -0.1671 -0.1311
  478DOPC   PO4 5601   1.095  17.628  16.467  0.0385 -0.3565 -0.2349
  478DOPC   GL1 5602   1.060  17.685  16.134  0.3148 -0.1459  0.0360
  478DOPC   GL2 5603   0.974  17.951  15.969  0.2956 -0.2295 -0.0370
  478DOPC   C1A 5604   0.651  17.469  15.921 -0.2592 -0.0844  0.2961
  478DOPC   D2A 5605   0.663  17.162  15.586  0.0068  0.1080 -0.0050
  478DOPC   C3A 5606   0.700  17.450  15.188 -0.3237 -0.3103  0.0871
  478DOPC   C4A 5607   0.704  17.764  14.805  0.1282 -0.1604  0.0378
  478DOPC   C1B 5608   0.949  18.123  15.503 -0.1235  0.0635 -0.1452
  478DOPC   D2B 5609   1.100  18.304  15.076 -0.1151 -0.1545  0.1132
  478DOPC   C3B 5610   1.108  18.073  14.658 -0.0834  0.0806  0.2017
  478DOPC   C4B 5611   0.798  17.996  14.309  0.2476 -0.0768  0.1668
  479POSM   NC3 5612   4.977  12.650  16.127  0.2082 -0.4022 -0.2671
  479POSM   PO4 5613   4.990  12.894  16.481  0.1189  0.1708 -0.3124
  479POSM   AM1 5614   4.863  13.081  16.240  0.4006 -0.2036  0.1107
  479POSM   AM2 5615   4.800  13.314  16.111  0.0187  0.1931  0.2679
  479POSM   T1A 5616   4.913  13.044  15.737  0.0804 -0.2454 -0.0967
  479POSM   C2A 5617   4.654  13.287  15.459  0.1278 -0.1450  0.0104
  479POSM   C3A 5618   4.570  13.667  15.205 -0.3001 -0.2201 -0.0579
  479POSM   C1B 5619   4.934  13.547  15.875  0.2033  0.0607  0.1897
  479POSM   D2B 5620   5.062  13.528  15.499 -0.2972 -0.0164 -0.0427
  479POSM   C3B 5621   5.042  13.981  15.374  0.2621  0.1759 -0.2177
  479POSM   C4B 5622   5.290  14.351  15.592  0.0797 -0.0601  0.2490
  480DOPC   NC3 5623   2.413  23.011  16.155 -0.0666 -0.1419  0.3372
  480DOPC   PO4 5624   2.550  22.692  16.291 -0.1734  0.3415  0.0896
  480DOPC   GL1 5625   2.743  22.767  15.881 -0.2686 -0.1595  0.2420
  480DOPC   GL2 5626   2.753  22.448  15.790  0.1458  0.3343  0.4932
  480DOPC   C1A 5627   2.662  23.007  15.505  0.0845  0.1837 -0.2086
  480DOPC   D2A 5628   2.394  23.133  15.136 -0.4046 -0.0611  0.2466
  480DOPC   C3A 5629   2.332  23.524  14.905  0.0035 -0.1259  0.1267
  480DOPC   C4A 5630   2.062  23.740  14.646  0.2012  0.0579  0.0843
  480DOPC   C1B 5631   3.090  22.238  15.550  0.0136 -0.2344 -0.1629
  480DOPC   D2B 5632   3.376  21.985  15.336  0.3005 -0.3809 -0.1629
  480DOPC   C3B 5633   3.142  21.676  15.069  0.2596 -0.0266  0.0811
  480DOPC   C4B 5634   3.003  21.783  14.659 -0.1446 -0.3406  0.0770
  481DOPE   NH3 5635   8.199  13.483  16.105  0.2105  0.2161  0.0563
  481DOPE   PO4 5636   8.276  13.759  15.924  0.1005 -0.0006  0.0705
  481DOPE   GL1 5637   8.308  13.797  15.522 -0.3295  0.3600  0.0844
  481DOPE   GL2 5638   8.136  14.075  15.541  0.0052  0.2331 -0.0437
  481DOPE   C1A 5639   8.404  13.557  15.094 -0.2068  0.0487 -0.1200
  481DOPE   D2A 5640   8.362  13.343  14.675  0.4087  0.2620  0.0524
  481DOPE   C3A 5641   8.012  13.362  14.290 -0.0186 -0.2374  0.1478
  481DOPE   C4A 5642   7.945  13.243  13.821  0.0619 -0.1336  0.1480
  481DOPE   C1B 5643   7.983  13.784  15.182  0.0913 -0.0071  0.1231
  481DOPE   D2B 5644   7.927  13.501  14.858  0.0843 -0.1294 -0.2208
  481DOPE   C3B 5645   7.677  13.664  14.518  0.0748 -0.0325 -0.1678
  481DOPE   C4B 5646   7.555  13.567  14.088  0.2260 -0.1124  0.0515
  482DOPC   NC3 5647   3.098  18.557  16.217  0.1442 -0.1813  0.1505
  482DOPC   PO4 5648   3.373  18.359  16.045  0.2605  0.0098 -0.0688
  482DOPC   GL1 5649   3.144  18.470  15.673 -0.2246  0.2674 -0.0951
  482DOPC   GL2 5650   2.889  18.640  15.725 -0.1393 -0.0929 -0.2066
  482DOPC   C1A 5651   3.084  18.237  15.247  0.0444  0.1192  0.2826
  482DOPC   D2A 5652   2.837  18.144  14.882  0.3445  0.0796 -0.4694
  482DOPC   C3A 5653   2.410  18.341  14.977 -0.1582 -0.2736 -0.4439
  482DOPC   C4A 5654   2.029  18.629  15.079  0.1227  0.2632 -0.3138
  482DOPC   C1B 5655   3.032  18.973  15.456 -0.0532  0.0947  0.0549
  482DOPC   D2B 5656   3.260  19.240  15.080 -0.0139  0.0115  0.0800
  482DOPC   C3B 5657   3.134  19.260  14.620 -0.2298 -0.1108  0.0848
  482DOPC   C4B 5658   3.111  19.333  14.158  0.2148 -0.3850 -0.0433
  483DOPE   NH3 5659   0.794  20.318  16.456 -0.1370 -0.0745  0.0087
  483DOPE   PO4 5660   0.618  20.264  16.243  0.1440  0.4176  0.0530
  483DOPE   GL1 5661   0.532  20.526  15.981  0.0173  0.0520 -0.0359
  483DOPE   GL2 5662   0.234  20.639  15.904 -0.0352  0.2746  0.1775
  483DOPE   C1A 5663   0.510  20.474  15.501 -0.0345 -0.0331 -0.1461
  483DOPE   D2A 5664   0.347  20.754  15.179 -0.0857  0.1350  0.3524
  483DOPE   C3A 5665   0.527  21.047  14.843  0.1223  0.0696 -0.0268
  483DOPE   C4A 5666   0.683  21.397  14.630 -0.0236  0.3295  0.0992
  483DOPE   C1B 5667   0.361  21.030  15.630  0.1334  0.0585  0.1758
  483DOPE   D2B 5668   0.654  21.283  15.360 -0.2155  0.3082  0.1926
  483DOPE   C3B 5669   0.686  21.688  15.096 -0.1087  0.2628 -0.3690
  483DOPE   C4B 5670   0.540  21.851  14.687 -0.3748 -0.0844  0.0555
  484DOPE   NH3 5671  10.680  12.703  15.417  0.1918 -0.3006  0.1152
  484DOPE   PO4 5672  10.567  12.416  15.332 -0.0874 -0.1396  0.1683
  484DOPE   GL1 5673  10.273  12.181  15.225  0.2640 -0.3416  0.1300
  484DOPE   GL2 5674  10.086  12.202  15.472 -0.3432 -0.2720  0.0657
  484DOPE   C1A 5675   9.901  12.048  15.015  0.0446  0.1486 -0.0794
  484DOPE   D2A 5676   9.825  11.897  14.609 -0.2052  0.0075  0.2944
  484DOPE   C3A 5677   9.554  12.288  14.350 -0.0620  0.0491  0.2054
  484DOPE   C4A 5678   9.256  12.508  14.209  0.1584  0.0526 -0.1791
  484DOPE   C1B 5679   9.621  12.342  15.346  0.1379  0.1699 -0.0158
  484DOPE   D2B 5680   9.136  12.305  15.266  0.0862  0.0277 -0.1256
  484DOPE   C3B 5681   8.934  12.284  14.864  0.0508 -0.0737  0.1644
  484DOPE   C4B 5682   8.797  12.160  14.444  0.2407  0.2462 -0.0257
  485DOPC   NC3 5683   2.560  14.687  15.876 -0.0348  0.2537 -0.2172
  485DOPC   PO4 5684   2.732  14.320  15.895 -0.1064 -0.1562  0.0922
  485DOPC   GL1 5685   2.754  14.357  15.546  0.0357 -0.0038 -0.4512
  485DOPC   GL2 5686   2.931  14.561  15.545  0.2609 -0.0996 -0.2642
  485DOPC   C1A 5687   2.941  14.214  15.154 -0.0720  0.1502 -0.0193
  485DOPC   D2A 5688   2.914  14.414  14.789  0.4759  0.0981 -0.2521
  485DOPC   C3A 5689   3.057  14.308  14.321  0.1011  0.0805 -0.0025
  485DOPC   C4A 5690   3.251  14.530  13.921  0.0669 -0.0916  0.5485
  485DOPC   C1B 5691   3.133  14.686  15.212 -0.4206 -0.2130  0.0728
  485DOPC   D2B 5692   3.093  14.891  14.844 -0.0359  0.0500  0.0179
  485DOPC   C3B 5693   3.051  15.337  14.797  0.0681 -0.0182 -0.1910
  485DOPC   C4B 5694   3.106  15.734  14.515  0.0928  0.2247  0.1178
  486DOPC   NC3 5695   4.384  15.819  16.355  0.1777  0.0957 -0.2701
  486DOPC   PO4 5696   4.071  15.903  16.132  0.0655 -0.0573 -0.1708
  486DOPC   GL1 5697   4.065  15.602  15.875 -0.0105 -0.1266  0.5141
  486DOPC   GL2 5698   3.735  15.714  15.806 -0.0822 -0.1833  0.0096
  486DOPC   C1A 5699   4.373  15.471  15.541  0.1988  0.1100 -0.3329
  486DOPC   D2A 5700   4.633  15.665  15.212  0.1912 -0.2827  0.0641
  486DOPC   C3A 5701   4.630  15.887  14.797  0.0346  0.0118 -0.0542
  486DOPC   C4A 5702   4.360  15.966  14.456  0.1042  0.1344 -0.2086
  486DOPC   C1B 5703   3.757  15.486  15.381  0.1035 -0.1256  0.1962
  486DOPC   D2B 5704   3.544  15.323  15.034  0.3877 -0.1531  0.0194
  486DOPC   C3B 5705   3.452  15.371  14.550  0.2161 -0.0905  0.0664
  486DOPC   C4B 5706   3.093  15.156  14.354 -0.1883 -0.1956 -0.3452
  487DOPC   NC3 5707  10.540  20.645  15.294 -0.0712  0.1713  0.0345
  487DOPC   PO4 5708  10.604  20.250  15.317 -0.1018  0.1248 -0.1892
  487DOPC   GL1 5709  10.751  20.342  14.944 -0.1155  0.0129  0.3226
  487DOPC   GL2 5710  10.756  20.593  14.837  0.4608  0.4184  0.1818
  487DOPC   C1A 5711  10.891  20.128  14.562  0.0517 -0.1259 -0.0061
  487DOPC   D2A 5712  10.883  19.809  14.222  0.0252 -0.0984  0.0657
  487DOPC   C3A 5713  11.069  19.788  13.778 -0.1396 -0.0181 -0.1992
  487DOPC   C4A 5714  11.035  19.853  13.314 -0.1845 -0.2375  0.1352
  487DOPC   C1B 5715  10.618  20.634  14.413 -0.0005  0.2352 -0.1585
  487DOPC   D2B 5716  10.800  20.849  14.090 -0.3057  0.1059  0.2544
  487DOPC   C3B 5717  11.037  21.114  14.275  0.0443  0.1579  0.0657
  487DOPC   C4B 5718  11.393  21.397  14.103 -0.0125  0.1292  0.1539
  488DOPC   NC3 5719  34.360  12.790  16.070  0.1576 -0.4002 -0.3598
  488DOPC   PO4 5720  34.090  12.597  15.887 -0.3532  0.1196 -0.0131
  488DOPC   GL1 5721  33.979  12.634  15.452  0.0873 -0.0921 -0.1598
  488DOPC   GL2 5722  33.751  12.774  15.514 -0.0235  0.0202  0.0886
  488DOPC   C1A 5723  33.886  12.464  15.079  0.0302  0.0969 -0.1081
  488DOPC   D2A 5724  33.568  12.613  14.813  0.1080  0.1757  0.0854
  488DOPC   C3A 5725  33.830  12.940  14.638 -0.0294 -0.2364 -0.2860
  488DOPC   C4A 5726  34.209  12.976  14.339  0.0011  0.2167 -0.2107
  488DOPC   C1B 5727  33.639  12.976  15.107 -0.2035 -0.1521 -0.0295
  488DOPC   D2B 5728  33.354  13.097  14.771 -0.0315 -0.4171  0.3480
  488DOPC   C3B 5729  33.403  13.053  14.327  0.0226 -0.0965  0.2556
  488DOPC   C4B 5730  33.397  12.815  13.894  0.1876 -0.0356 -0.4004
  489DOPC   NC3 5731   6.884  14.955  16.857 -0.1818 -0.3361  0.1631
  489DOPC   PO4 5732   6.606  15.196  16.757  0.0539  0.1251 -0.0337
  489DOPC   GL1 5733   6.556  15.062  16.369  0.0731  0.3533 -0.2747
  489DOPC   GL2 5734   6.352  14.828  16.425  0.1220 -0.2980  0.0772
  489DOPC   C1A 5735   6.323  15.142  16.020 -0.1510  0.0762  0.4037
  489DOPC   D2A 5736   6.301  14.788  15.716 -0.0201 -0.0793  0.0753
  489DOPC   C3A 5737   6.481  14.921  15.347 -0.4474  0.1390  0.2839
  489DOPC   C4A 5738   6.757  15.177  15.047  0.2142 -0.1060 -0.4060
  489DOPC   C1B 5739   5.934  14.858  16.118  0.3482 -0.2478  0.0675
  489DOPC   D2B 5740   5.750  14.599  15.768 -0.1503 -0.0779 -0.0780
  489DOPC   C3B 5741   5.776  14.308  15.431 -0.0648 -0.1453  0.1860
  489DOPC   C4B 5742   5.937  13.936  15.160 -0.1963  0.0685 -0.0864
  490DOPE   NH3 5743   8.811  17.733  15.609  0.0526  0.4033  0.0538
  490DOPE   PO4 5744   8.732  17.942  15.767  0.1044  0.2589 -0.0931
  490DOPE   GL1 5745   9.001  18.108  15.408  0.1401 -0.1315  0.1152
  490DOPE   GL2 5746   9.098  18.346  15.504  0.0794 -0.4290 -0.1027
  490DOPE   C1A 5747   9.152  18.032  14.971  0.2317 -0.0232 -0.1293
  490DOPE   D2A 5748   9.589  18.136  14.846 -0.1241 -0.4338  0.1416
  490DOPE   C3A 5749   9.813  18.405  14.569 -0.0350 -0.0907  0.0381
  490DOPE   C4A 5750  10.038  18.720  14.293 -0.0634 -0.0677  0.1065
  490DOPE   C1B 5751   9.043  18.496  15.082 -0.2158 -0.1744  0.0513
  490DOPE   D2B 5752   8.897  18.735  14.716 -0.0431 -0.1794 -0.1395
  490DOPE   C3B 5753   9.211  18.771  14.355  0.0165 -0.2793 -0.1059
  490DOPE   C4B 5754   9.562  18.603  14.116  0.0327  0.0402 -0.1610
  491DOPE   NH3 5755   8.331  17.786  16.060  0.1191  0.1048  0.0586
  491DOPE   PO4 5756   8.311  17.656  15.738 -0.1136  0.2413  0.5204
  491DOPE   GL1 5757   8.454  17.654  15.330 -0.4315 -0.3182 -0.1119
  491DOPE   GL2 5758   8.440  17.358  15.332  0.1294 -0.0633  0.0700
  491DOPE   C1A 5759   8.747  17.647  15.000 -0.5966  0.0332 -0.0461
  491DOPE   D2A 5760   8.746  17.595  14.572  0.2212 -0.0971  0.3121
  491DOPE   C3A 5761   8.707  17.125  14.486 -0.4539  0.1522 -0.2243
  491DOPE   C4A 5762   8.495  16.849  14.207  0.0838  0.0441  0.0841
  491DOPE   C1B 5763   8.213  17.416  14.880  0.2890 -0.1342  0.1073
  491DOPE   D2B 5764   7.989  17.634  14.562  0.3168 -0.0488  0.0953
  491DOPE   C3B 5765   7.707  17.529  14.247 -0.0359 -0.0582  0.2478
  491DOPE   C4B 5766   7.421  17.778  13.953  0.6166  0.1743  0.0143
  492POSM   NC3 5767   5.265  20.403  16.174  0.0069 -0.1822  0.0994
  492POSM   PO4 5768   5.610  20.468  16.303 -0.0053 -0.0496 -0.1963
  492POSM   AM1 5769   5.714  20.298  16.028 -0.2118 -0.1851  0.5494
  492POSM   AM2 5770   5.962  20.260  15.856 -0.2870 -0.2088  0.3247
  492POSM   T1A 5771   5.573  19.995  15.763  0.1949  0.1367  0.1563
  492POSM   C2A 5772   5.747  19.589  15.572 -0.3469 -0.0197  0.3617
  492POSM   C3A 5773   5.794  19.198  15.395  0.0392  0.1987 -0.3128
  492POSM   C1B 5774   5.783  20.412  15.601  0.1668 -0.0327  0.2997
  492POSM   D2B 5775   5.771  20.497  15.161  0.0614  0.0877  0.3011
  492POSM   C3B 5776   5.710  20.155  14.843  0.0009 -0.0289  0.2009
  492POSM   C4B 5777   5.489  19.845  14.618  0.2446 -0.0082  0.2959
  493DOPC   NC3 5778   7.880  11.172  16.353  0.1883 -0.0688 -0.1233
  493DOPC   PO4 5779   7.864  11.502  16.199 -0.0350  0.4206 -0.1352
  493DOPC   GL1 5780   7.724  11.515  15.869 -0.1319 -0.0474  0.0808
  493DOPC   GL2 5781   7.860  11.330  15.705  0.1656 -0.0882  0.1985
  493DOPC   C1A 5782   7.661  11.828  15.559  0.0476 -0.0546 -0.5839
  493DOPC   D2A 5783   7.700  11.982  15.116  0.2303 -0.1335 -0.0658
  493DOPC   C3A 5784   8.057  11.903  14.818 -0.0371 -0.1708 -0.1463
  493DOPC   C4A 5785   8.548  11.797  14.681 -0.3560 -0.2690 -0.2400
  493DOPC   C1B 5786   7.614  11.104  15.393 -0.1323  0.1301  0.1456
  493DOPC   D2B 5787   7.701  10.826  14.942 -0.2544  0.1453  0.1615
  493DOPC   C3B 5788   7.959  11.020  14.582 -0.2599  0.2613  0.0598
  493DOPC   C4B 5789   8.408  11.098  14.779 -0.0838  0.0324 -0.4605
  494POSM   NC3 5790   3.228  13.739  16.113 -0.2289  0.2589 -0.3260
  494POSM   PO4 5791   3.201  13.338  16.172 -0.2114  0.0652 -0.1114
  494POSM   AM1 5792   3.360  13.311  15.905 -0.2436  0.2955 -0.0392
  494POSM   AM2 5793   3.307  13.248  15.624 -0.3121 -0.3416 -0.1184
  494POSM   T1A 5794   3.760  13.402  15.563  0.3571 -0.0471 -0.0315
  494POSM   C2A 5795   4.167  13.366  15.334 -0.1779 -0.0422 -0.1583
  494POSM   C3A 5796   4.401  13.227  14.935  0.2008  0.0291 -0.1087
  494POSM   C1B 5797   3.377  13.028  15.388  0.0013  0.2777  0.2318
  494POSM   D2B 5798   3.470  12.924  14.990 -0.0672 -0.0922 -0.3726
  494POSM   C3B 5799   3.786  12.668  14.737  0.4070  0.0484  0.0815
  494POSM   C4B 5800   3.796  12.245  14.453  0.2462 -0.1556 -0.1418
  495POSM   NC3 5801   1.508  21.820  16.650 -0.1547  0.0607 -0.0066
  495POSM   PO4 5802   1.250  22.033  16.891 -0.1072  0.2301  0.2989
  495POSM   AM1 5803   1.158  22.153  16.587  0.0113 -0.0747  0.0355
  495POSM   AM2 5804   1.061  22.025  16.338  0.2462 -0.2666 -0.1015
  495POSM   T1A 5805   0.980  22.523  16.329  0.1073  0.2248  0.4131
  495POSM   C2A 5806   0.898  22.989  16.265  0.3561 -0.1583 -0.0232
  495POSM   C3A 5807   0.960  23.423  16.269  0.4839 -0.2391  0.0703
  495POSM   C1B 5808   1.059  22.191  16.022  0.0902  0.0756  0.1296
  495POSM   D2B 5809   0.898  22.195  15.560 -0.0868  0.2266 -0.0459
  495POSM   C3B 5810   1.024  22.091  15.110 -0.1023 -0.0350 -0.2110
  495POSM   C4B 5811   1.110  21.783  14.773 -0.2398 -0.0815  0.2035
  496DOPS   CNO 5812   4.997  18.393  16.558  0.0089 -0.0997  0.0407
  496DOPS   PO4 5813   5.130  18.104  16.360  0.0227  0.2391  0.1145
  496DOPS   GL1 5814   5.056  18.216  16.048  0.2350 -0.1703 -0.0434
  496DOPS   GL2 5815   4.963  18.050  15.849  0.0592 -0.0676  0.2290
  496DOPS   C1A 5816   5.163  18.407  15.615 -0.1298  0.0430 -0.0826
  496DOPS   D2A 5817   5.468  18.306  15.263 -0.0849 -0.1966  0.0094
  496DOPS   C3A 5818   5.495  18.645  14.913  0.2212  0.0216 -0.3908
  496DOPS   C4A 5819   5.512  18.777  14.476  0.0647 -0.0773 -0.3290
  496DOPS   C1B 5820   4.752  17.996  15.442  0.0890  0.1345  0.0303
  496DOPS   D2B 5821   4.683  17.987  15.004 -0.2544  0.0524 -0.0789
  496DOPS   C3B 5822   4.742  18.103  14.487  0.1324  0.1018 -0.0890
  496DOPS   C4B 5823   4.858  18.204  14.039 -0.1169 -0.1729 -0.2022
  497DOPC   NC3 5824   3.203  20.793  16.371 -0.0274 -0.3896 -0.1992
  497DOPC   PO4 5825   3.005  20.467  16.476  0.0921  0.0512 -0.1684
  497DOPC   GL1 5826   2.700  20.566  16.217  0.3410  0.0009 -0.1642
  497DOPC   GL2 5827   2.649  20.280  16.174 -0.0077  0.0341  0.1096
  497DOPC   C1A 5828   2.680  20.713  15.810  0.0477 -0.1165  0.0556
  497DOPC   D2A 5829   2.574  20.723  15.330 -0.1793  0.1060  0.0076
  497DOPC   C3A 5830   2.466  21.140  15.111  0.1622  0.0638 -0.1633
  497DOPC   C4A 5831   2.627  21.566  15.162  0.1219  0.1733  0.0485
  497DOPC   C1B 5832   2.826  20.205  15.786  0.0858  0.2439 -0.1956
  497DOPC   D2B 5833   2.991  20.500  15.432  0.0020  0.4701 -0.2092
  497DOPC   C3B 5834   3.358  20.355  15.235  0.0745 -0.1073  0.1583
  497DOPC   C4B 5835   3.496  20.041  14.871  0.0727 -0.0881 -0.1698
  498DOPE   NH3 5836   3.459  18.955  16.715  0.1091 -0.4794 -0.3832
  498DOPE   PO4 5837   3.721  19.186  16.569  0.4854 -0.0289 -0.3530
  498DOPE   GL1 5838   3.790  19.188  16.113 -0.1875 -0.0428 -0.2084
  498DOPE   GL2 5839   3.569  19.321  16.108  0.0503  0.2402 -0.1649
  498DOPE   C1A 5840   4.017  19.195  15.685 -0.0056  0.0593  0.1340
  498DOPE   D2A 5841   4.201  19.394  15.320  0.3375  0.2010  0.0365
  498DOPE   C3A 5842   4.316  19.451  14.907 -0.0119  0.0378  0.4242
  498DOPE   C4A 5843   4.198  19.421  14.465 -0.2770 -0.0342  0.2318
  498DOPE   C1B 5844   3.705  19.658  15.900 -0.1066  0.1402  0.0152
  498DOPE   D2B 5845   4.084  19.824  15.700 -0.1928  0.2067 -0.2544
  498DOPE   C3B 5846   4.515  19.697  15.550  0.1572  0.0646 -0.0412
  498DOPE   C4B 5847   4.758  19.382  15.285  0.2687  0.0728  0.1113
  499DOPE   NH3 5848   4.960  11.854  16.097  0.0790  0.3524 -0.3166
  499DOPE   PO4 5849   5.050  12.148  16.096  0.2029 -0.4023 -0.1138
  499DOPE   GL1 5850   5.185  12.274  15.785  0.1500  0.0418  0.0932
  499DOPE   GL2 5851   5.459  12.321  15.862 -0.3717 -0.0071 -0.1107
  499DOPE   C1A 5852   4.949  12.591  15.593 -0.1053 -0.0186 -0.0142
  499DOPE   D2A 5853   5.109  12.891  15.307  0.4547 -0.0890 -0.3798
  499DOPE   C3A 5854   4.913  13.242  15.074  0.0378 -0.1319  0.1665
  499DOPE   C4A 5855   4.955  13.652  14.913  0.1392  0.0730  0.4777
  499DOPE   C1B 5856   5.356  12.721  15.749  0.0279 -0.2963 -0.0027
  499DOPE   D2B 5857   5.587  12.984  15.485 -0.2148  0.2133  0.0762
  499DOPE   C3B 5858   5.404  13.274  15.200 -0.1309  0.1680  0.1191
  499DOPE   C4B 5859   5.275  13.179  14.761 -0.1201  0.0860  0.1155
  500DOPC   NC3 5860   7.354  15.473  16.216 -0.1201 -0.1580  0.1612
  500DOPC   PO4 5861   7.063  15.211  16.171 -0.3437 -0.1185 -0.0672
  500DOPC   GL1 5862   7.036  14.973  15.816  0.1500  0.4155 -0.1000
  500DOPC   GL2 5863   6.736  15.031  15.783  0.0010 -0.1705  0.0126
  500DOPC   C1A 5864   7.027  14.517  15.650 -0.3257 -0.2471  0.0839
  500DOPC   D2A 5865   7.029  14.027  15.550  0.2290  0.0812  0.0211
  500DOPC   C3A 5866   6.791  13.916  15.238 -0.0924 -0.1258  0.1103
  500DOPC   C4A 5867   6.455  14.056  14.900  0.2621 -0.3814 -0.0921
  500DOPC   C1B 5868   6.487  15.344  15.585 -0.0777 -0.0570 -0.0933
  500DOPC   D2B 5869   6.220  15.597  15.409 -0.3833 -0.1820  0.2833
  500DOPC   C3B 5870   5.865  15.438  15.224 -0.0358 -0.0133 -0.1625
  500DOPC   C4B 5871   5.466  15.649  15.077 -0.0402 -0.3143  0.0740
  501POSM   NC3 5872   7.382  19.596  15.704  0.0540 -0.0035 -0.1314
  501POSM   PO4 5873   7.410  19.975  15.655 -0.0581  0.0950 -0.0773
  501POSM   AM1 5874   7.542  19.860  15.371  0.1375 -0.3763 -0.4005
  501POSM   AM2 5875   7.829  19.933  15.277 -0.3355  0.0625 -0.1370
  501POSM   T1A 5876   7.540  20.033  14.854 -0.2176  0.3095 -0.2981
  501POSM   C2A 5877   7.503  20.273  14.489  0.0146 -0.1500 -0.0428
  501POSM   C3A 5878   7.159  20.473  14.365 -0.0538  0.1779  0.0797
  501POSM   C1B 5879   8.051  19.958  15.038 -0.1926  0.0830 -0.2315
  501POSM   D2B 5880   8.083  19.958  14.532 -0.4556  0.0677  0.1291
  501POSM   C3B 5881   8.064  20.247  14.212 -0.1338 -0.0044 -0.1008
  501POSM   C4B 5882   8.048  20.583  13.926  0.2523  0.0819 -0.0923
  502POSM   NC3 5883   2.184  22.264  16.330 -0.0495 -0.1781 -0.2859
  502POSM   PO4 5884   2.023  22.570  16.389  0.0925 -0.0689 -0.0805
  502POSM   AM1 5885   2.139  22.669  16.074  0.0909 -0.2047 -0.0679
  502POSM   AM2 5886   2.260  22.506  15.879 -0.0507  0.1158 -0.3036
  502POSM   T1A 5887   2.085  22.928  15.694  0.0081 -0.2037 -0.0081
  502POSM   C2A 5888   1.927  22.964  15.263  0.0317 -0.2186 -0.0715
  502POSM   C3A 5889   1.787  22.841  14.841 -0.0118 -0.0705 -0.3360
  502POSM   C1B 5890   2.308  22.525  15.552 -0.0733 -0.1726  0.2024
  502POSM   D2B 5891   2.177  22.293  15.127 -0.0671 -0.2319 -0.2833
  502POSM   C3B 5892   2.272  21.871  15.012  0.0041  0.0578 -0.1009
  502POSM   C4B 5893   2.347  21.468  14.745 -0.5833 -0.0378 -0.0590
  503DOPC   NC3 5894   8.440  21.299  15.020 -0.0754 -0.1420 -0.0983
  503DOPC   PO4 5895   8.414  21.670  15.236 -0.1759 -0.3893  0.0619
  503DOPC   GL1 5896   8.445  21.825  14.978  0.1819 -0.4755  0.0651
  503DOPC   GL2 5897   8.295  22.126  15.064  0.3018 -0.1404  0.1466
  503DOPC   C1A 5898   8.562  21.587  14.559 -0.2010 -0.0483  0.1675
  503DOPC   D2A 5899   8.453  21.594  14.100 -0.0065 -0.0729  0.0963
  503DOPC   C3A 5900   8.451  21.946  13.836 -0.2061  0.0070  0.1605
  503DOPC   C4A 5901   8.251  21.984  13.364 -0.0508  0.1727  0.1618
  503DOPC   C1B 5902   8.283  22.425  14.674 -0.0942  0.2781 -0.0131
  503DOPC   D2B 5903   8.045  22.640  14.432  0.2169 -0.1614 -0.0204
  503DOPC   C3B 5904   7.892  23.043  14.265  0.1701 -0.0389  0.0092
  503DOPC   C4B 5905   7.813  23.157  13.826 -0.0732 -0.2551  0.0974
  504DOPS   CNO 5906   4.211  18.073  16.167  0.1762 -0.3714  0.2208
  504DOPS   PO4 5907   4.286  18.370  16.384  0.2919  0.3740 -0.2786
  504DOPS   GL1 5908   4.608  18.473  16.267 -0.2779 -0.1073  0.0719
  504DOPS   GL2 5909   4.572  18.331  15.981 -0.0208  0.1701  0.0877
  504DOPS   C1A 5910   4.812  18.730  15.907  0.3349 -0.4404  0.1320
  504DOPS   D2A 5911   4.994  18.884  15.512  0.1222 -0.6015  0.1139
  504DOPS   C3A 5912   5.043  18.595  15.109 -0.0573 -0.1999  0.3636
  504DOPS   C4A 5913   5.079  18.362  14.742  0.0511  0.1109 -0.1338
  504DOPS   C1B 5914   4.576  18.445  15.549  0.2709  0.0367 -0.0261
  504DOPS   D2B 5915   4.422  18.474  15.111 -0.3139 -0.0313 -0.0507
  504DOPS   C3B 5916   4.205  18.203  14.807  0.1367 -0.0319 -0.1104
  504DOPS   C4B 5917   4.234  18.035  14.377  0.0618 -0.0563 -0.0826
  505DOPE   NH3 5918  10.381  16.620  15.337  0.0849  0.2490 -0.1011
  505DOPE   PO4 5919  10.232  16.290  15.462  0.1171  0.0926  0.2287
  505DOPE   GL1 5920  10.173  16.262  15.040  0.1218  0.1528  0.0912
  505DOPE   GL2 5921   9.930  16.481  14.991  0.4538  0.1041  0.1383
  505DOPE   C1A 5922  10.221  16.446  14.574  0.1874 -0.1762  0.0238
  505DOPE   D2A 5923  10.017  16.439  14.151 -0.1743  0.1089 -0.1568
  505DOPE   C3A 5924   9.875  16.188  13.781  0.1147 -0.1588  0.3643
  505DOPE   C4A 5925   9.547  16.295  13.478 -0.2752  0.2891 -0.2777
  505DOPE   C1B 5926   9.626  16.466  14.661  0.1398  0.0127  0.3334
  505DOPE   D2B 5927   9.333  16.670  14.438  0.0672  0.3193  0.1584
  505DOPE   C3B 5928   8.892  16.646  14.407  0.0528  0.1589  0.4103
  505DOPE   C4B 5929   8.494  16.381  14.429 -0.3197  0.0495  0.5389
  506DOPS   CNO 5930   5.249  21.364  16.048  0.1548  0.1207  0.3495
  506DOPS   PO4 5931   5.615  21.247  16.024 -0.2978  0.1336 -0.1797
  506DOPS   GL1 5932   5.502  21.098  15.725 -0.0770 -0.3767  0.0155
  506DOPS   GL2 5933   5.349  20.874  15.756 -0.0338 -0.3692 -0.0234
  506DOPS   C1A 5934   5.391  21.175  15.271  0.0655  0.1379  0.3212
  506DOPS   D2A 5935   5.128  21.288  14.879 -0.0762 -0.1226  0.2260
  506DOPS   C3A 5936   5.349  21.208  14.459  0.0504 -0.0552  0.2133
  506DOPS   C4A 5937   5.468  20.797  14.285  0.1821  0.0334 -0.3029
  506DOPS   C1B 5938   5.312  20.405  15.650  0.2406  0.1255 -0.2562
  506DOPS   D2B 5939   5.499  20.107  15.306  0.1845  0.1669 -0.1557
  506DOPS   C3B 5940   5.211  19.999  14.986  0.0724 -0.0276  0.0565
  506DOPS   C4B 5941   5.080  19.667  14.728  0.0798 -0.0783 -0.1615
  507DOPS   CNO 5942   2.208  13.555  16.332 -0.0983 -0.1527  0.0056
  507DOPS   PO4 5943   2.048  13.309  16.102 -0.0375  0.0487  0.1729
  507DOPS   GL1 5944   2.043  13.055  15.823  0.0125 -0.1828 -0.3630
  507DOPS   GL2 5945   1.728  12.967  15.800  0.0898  0.0881 -0.0518
  507DOPS   C1A 5946   2.186  12.745  15.576  0.0477  0.0145 -0.2241
  507DOPS   D2A 5947   2.096  12.499  15.282  0.1281  0.0201 -0.1148
  507DOPS   C3A 5948   2.229  12.350  14.838  0.1570 -0.1084 -0.1521
  507DOPS   C4A 5949   2.426  12.306  14.457 -0.0530 -0.0143 -0.0658
  507DOPS   C1B 5950   1.827  12.940  15.342  0.0582 -0.0813  0.0494
  507DOPS   D2B 5951   2.133  12.880  14.982 -0.1290 -0.1079  0.1371
  507DOPS   C3B 5952   2.485  12.679  15.046  0.2776  0.1935 -0.0167
  507DOPS   C4B 5953   2.739  12.341  14.884 -0.0950  0.0470  0.1267
  508POSM   NC3 5954   1.716  19.307  16.211  0.0353  0.2184 -0.0581
  508POSM   PO4 5955   1.904  19.010  16.002  0.2678 -0.1304 -0.0380
  508POSM   AM1 5956   2.079  19.258  15.796 -0.0784  0.1955 -0.2538
  508POSM   AM2 5957   1.976  19.496  15.762 -0.0176  0.1011  0.3419
  508POSM   T1A 5958   2.271  19.483  15.377 -0.3256 -0.1660  0.0012
  508POSM   C2A 5959   2.434  19.716  14.987 -0.1963 -0.0037  0.2860
  508POSM   C3A 5960   2.579  20.035  14.741  0.1401 -0.0428  0.0977
  508POSM   C1B 5961   1.860  19.697  15.420 -0.3719 -0.1285  0.1912
  508POSM   D2B 5962   1.947  19.607  14.998 -0.0144  0.4581 -0.1279
  508POSM   C3B 5963   2.013  19.841  14.560 -0.1688 -0.0858  0.2381
  508POSM   C4B 5964   2.236  19.755  14.189  0.1249  0.0957  0.2226
  509POSM   NC3 5965   8.666  17.224  15.775 -0.0738 -0.2477 -0.1561
  509POSM   PO4 5966   8.308  17.193  15.971  0.0113 -0.0852  0.3387
  509POSM   AM1 5967   8.154  17.211  15.668  0.0656  0.0847  0.0424
  509POSM   AM2 5968   7.986  16.983  15.529  0.0396 -0.2717  0.1061
  509POSM   T1A 5969   7.854  17.399  15.357  0.3253  0.2463 -0.0147
  509POSM   C2A 5970   7.755  17.654  14.998 -0.1192 -0.0674  0.0409
  509POSM   C3A 5971   7.544  18.001  14.761 -0.1986 -0.1772 -0.1177
  509POSM   C1B 5972   8.079  16.999  15.194 -0.0736 -0.1332  0.0325
  509POSM   D2B 5973   7.956  17.042  14.750  0.0357  0.0171  0.1358
  509POSM   C3B 5974   8.178  17.262  14.397  0.0693  0.0549 -0.2217
  509POSM   C4B 5975   8.465  17.507  14.078 -0.2317  0.0120 -0.1422
  510DOPC   NC3 5976   2.746  13.892  15.552 -0.4752  0.3305  0.0916
  510DOPC   PO4 5977   2.914  13.587  15.753  0.4257 -0.1395  0.0987
  510DOPC   GL1 5978   2.676  13.451  15.457  0.1617 -0.0960 -0.2517
  510DOPC   GL2 5979   2.896  13.313  15.325 -0.3088 -0.2169  0.2400
  510DOPC   C1A 5980   2.291  13.242  15.318  0.0806 -0.0167  0.3253
  510DOPC   D2A 5981   1.891  13.320  15.073  0.1837  0.0360  0.2614
  510DOPC   C3A 5982   1.577  13.178  14.762  0.1817  0.1133 -0.2787
  510DOPC   C4A 5983   1.495  13.191  14.322 -0.2207 -0.0207  0.0667
  510DOPC   C1B 5984   2.643  13.173  14.896  0.1228  0.2112 -0.1773
  510DOPC   D2B 5985   2.519  12.895  14.535 -0.1145 -0.1172 -0.1118
  510DOPC   C3B 5986   2.829  12.703  14.308 -0.1310 -0.0750 -0.0320
  510DOPC   C4B 5987   2.855  12.362  14.009  0.1095 -0.0414 -0.1205
  511POSM   NC3 5988   6.295  22.227  16.346  0.0164  0.0346 -0.1913
  511POSM   PO4 5989   5.947  22.292  16.429  0.1276 -0.1504  0.2196
  511POSM   AM1 5990   5.913  22.365  16.123  0.0754 -0.4330 -0.1472
  511POSM   AM2 5991   6.131  22.374  15.904 -0.1089  0.0355  0.1483
  511POSM   T1A 5992   5.597  22.493  15.782 -0.0565 -0.0422 -0.1336
  511POSM   C2A 5993   5.500  22.514  15.335  0.2153 -0.0465 -0.3322
  511POSM   C3A 5994   5.406  22.216  15.022 -0.0277 -0.2856 -0.0022
  511POSM   C1B 5995   6.078  22.659  15.761 -0.0149 -0.2259  0.1272
  511POSM   D2B 5996   6.188  22.926  15.437 -0.1633  0.0908  0.1014
  511POSM   C3B 5997   6.095  23.321  15.228 -0.0360 -0.0060  0.1941
  511POSM   C4B 5998   6.197  23.781  15.236 -0.0985  0.0949  0.0949
  512DOPC   NC3 5999   5.642  18.021  16.274  0.1036 -0.0402  0.0583
  512DOPC   PO4 6000   6.060  17.869  16.278 -0.1639 -0.2273  0.0548
  512DOPC   GL1 6001   6.071  17.838  15.900 -0.1049  0.0027  0.0093
  512DOPC   GL2 6002   6.319  17.982  15.878 -0.1984 -0.1365 -0.5950
  512DOPC   C1A 6003   6.055  17.514  15.544 -0.0134  0.2170  0.1887
  512DOPC   D2A 6004   5.883  17.172  15.256  0.2630  0.1242 -0.2428
  512DOPC   C3A 6005   5.939  17.494  14.884  0.1526  0.3471  0.1184
  512DOPC   C4A 6006   5.921  17.284  14.452  0.1269  0.0277  0.1591
  512DOPC   C1B 6007   6.473  17.739  15.542  0.0769  0.0647 -0.0358
  512DOPC   D2B 6008   6.863  17.655  15.276  0.0571 -0.0081  0.3509
  512DOPC   C3B 6009   6.842  17.541  14.820  0.1031  0.2609 -0.1903
  512DOPC   C4B 6010   7.141  17.726  14.469 -0.1116 -0.0440  0.0631
  513POSM   NC3 6011   6.548  17.816  16.345  0.1836  0.1673  0.0140
  513POSM   PO4 6012   6.662  17.428  16.364 -0.0293 -0.1693 -0.1294
  513POSM   AM1 6013   6.625  17.439  16.031  0.1516 -0.1276  0.0966
  513POSM   AM2 6014   6.388  17.447  15.919 -0.1720 -0.0075 -0.3801
  513POSM   T1A 6015   6.813  17.336  15.596  0.0623  0.0452 -0.2462
  513POSM   C2A 6016   6.912  17.149  15.181  0.3170 -0.0190  0.0724
  513POSM   C3A 6017   6.693  16.999  14.806 -0.1740  0.4121  0.0473
  513POSM   C1B 6018   6.328  17.121  15.757 -0.3579  0.2136 -0.2142
  513POSM   D2B 6019   6.380  16.919  15.247 -0.2068 -0.0104  0.2147
  513POSM   C3B 6020   6.454  17.349  15.138  0.0369  0.0867  0.0027
  513POSM   C4B 6021   6.394  17.796  14.981  0.3852 -0.1497 -0.1878
  514POSM   NC3 6022   8.450  13.348  15.596  0.0288 -0.0447 -0.2681
  514POSM   PO4 6023   8.470  13.097  15.949  0.3150  0.0215 -0.4141
  514POSM   AM1 6024   8.429  12.910  15.681 -0.1690 -0.0315  0.3757
  514POSM   AM2 6025   8.195  12.753  15.599 -0.0146 -0.4848  0.2157
  514POSM   T1A 6026   8.475  12.978  15.194 -0.3644  0.2743  0.2828
  514POSM   C2A 6027   8.478  12.713  14.763 -0.0290 -0.0444  0.0691
  514POSM   C3A 6028   8.766  12.587  14.290  0.0454 -0.1256 -0.0696
  514POSM   C1B 6029   8.106  12.552  15.269 -0.2246 -0.0721 -0.0030
  514POSM   D2B 6030   7.935  12.529  14.886  0.1150  0.1413  0.0605
  514POSM   C3B 6031   7.858  12.379  14.495 -0.1508 -0.1063  0.5550
  514POSM   C4B 6032   7.890  11.967  14.298 -0.1559 -0.1038  0.2924
  515DOPC   NC3 6033   1.657  14.351  16.757 -0.2478 -0.2134  0.1641
  515DOPC   PO4 6034   1.705  14.488  16.366 -0.1461  0.0400 -0.2785
  515DOPC   GL1 6035   1.835  14.694  16.000 -0.2490 -0.2658  0.0948
  515DOPC   GL2 6036   1.677  14.508  15.786  0.3911 -0.2433  0.1535
  515DOPC   C1A 6037   2.030  14.817  15.580 -0.1413  0.0468  0.5627
  515DOPC   D2A 6038   2.209  15.053  15.192 -0.3596 -0.0186 -0.0241
  515DOPC   C3A 6039   2.128  15.017  14.726 -0.2580  0.0481 -0.2321
  515DOPC   C4A 6040   2.179  15.154  14.310  0.0628  0.0254 -0.1125
  515DOPC   C1B 6041   1.504  14.803  15.447 -0.2867 -0.2701  0.4140
  515DOPC   D2B 6042   1.733  14.839  15.030 -0.1648 -0.6496 -0.2284
  515DOPC   C3B 6043   1.735  14.624  14.638 -0.0990 -0.2173 -0.3201
  515DOPC   C4B 6044   1.805  14.778  14.231 -0.0003  0.0164  0.1193
  516DOPE   NH3 6045   2.506  13.348  15.862  0.3905  0.4941  0.0730
  516DOPE   PO4 6046   2.409  13.665  15.860  0.1412  0.2298 -0.0255
  516DOPE   GL1 6047   2.326  13.696  15.433 -0.1988  0.0367  0.2079
  516DOPE   GL2 6048   2.052  13.851  15.351  0.0978 -0.0777 -0.0304
  516DOPE   C1A 6049   2.611  13.629  15.061 -0.1738 -0.0739  0.3174
  516DOPE   D2A 6050   2.726  13.602  14.637  0.0227 -0.1249  0.3851
  516DOPE   C3A 6051   2.570  13.453  14.220 -0.3021 -0.0808 -0.4439
  516DOPE   C4A 6052   2.558  13.423  13.756  0.0596 -0.1463  0.1102
  516DOPE   C1B 6053   2.157  13.862  14.916 -0.1101  0.1453  0.1151
  516DOPE   D2B 6054   2.262  13.463  14.621  0.2166  0.1303 -0.0601
  516DOPE   C3B 6055   2.275  13.822  14.373 -0.1825 -0.1489 -0.0897
  516DOPE   C4B 6056   2.328  13.948  13.940  0.3234 -0.2895 -0.4550
  517DOPC   NC3 6057   0.451  16.042  16.082 -0.1409  0.0712 -0.1403
  517DOPC   PO4 6058   0.790  16.010  16.296  0.0004 -0.2063 -0.0428
  517DOPC   GL1 6059   0.893  15.991  15.940  0.4041  0.0029 -0.2788
  517DOPC   GL2 6060   0.793  15.715  15.847 -0.0159  0.0309 -0.1120
  517DOPC   C1A 6061   0.829  16.151  15.552  0.0752 -0.0812 -0.2709
  517DOPC   D2A 6062   0.772  16.590  15.385  0.1614 -0.0995  0.2378
  517DOPC   C3A 6063   1.129  16.672  15.077  0.2881 -0.2638  0.1724
  517DOPC   C4A 6064   1.524  16.855  14.953 -0.0718  0.0943 -0.3217
  517DOPC   C1B 6065   0.939  15.662  15.422  0.8030 -0.0306  0.0105
  517DOPC   D2B 6066   0.930  15.880  14.976  0.2784  0.0840  0.0752
  517DOPC   C3B 6067   1.154  16.214  15.166  0.2652 -0.2282  0.1923
  517DOPC   C4B 6068   1.241  16.413  15.551 -0.2050 -0.0576  0.2898
  518POSM   NC3 6069   8.145  19.360  15.793 -0.3241  0.0051 -0.0870
  518POSM   PO4 6070   8.537  19.321  15.844 -0.1630  0.3203 -0.1879
  518POSM   AM1 6071   8.789  19.106  15.746  0.1138 -0.3491 -0.2303
  518POSM   AM2 6072   8.719  18.880  15.552  0.2698 -0.0992  0.2648
  518POSM   T1A 6073   9.225  18.879  15.645 -0.3703 -0.3660  0.0655
  518POSM   C2A 6074   9.605  18.900  15.314  0.2784 -0.1815  0.2077
  518POSM   C3A 6075   9.915  18.778  14.974  0.1628 -0.0498  0.0797
  518POSM   C1B 6076   8.812  19.048  15.271  0.0826 -0.0107 -0.0838
  518POSM   D2B 6077   9.203  19.136  15.124 -0.1885 -0.1194 -0.0694
  518POSM   C3B 6078   9.337  19.186  14.672  0.0309  0.1398  0.0375
  518POSM   C4B 6079   9.132  19.246  14.248  0.0194 -0.4168  0.3360
  519POSM   NC3 6080   0.173  22.171  17.014  0.3241  0.2132 -0.0559
  519POSM   PO4 6081   0.301  21.846  16.870 -0.0096 -0.0889 -0.0737
  519POSM   AM1 6082   0.338  21.869  16.567  0.0008  0.0444 -0.1986
  519POSM   AM2 6083   0.536  21.665  16.432 -0.2772 -0.2598  0.0168
  519POSM   T1A 6084   0.554  22.160  16.240 -0.3591  0.1120  0.1452
  519POSM   C2A 6085   0.535  22.110  15.822 -0.5617 -0.1678  0.0334
  519POSM   C3A 6086   0.713  21.726  15.589 -0.2498 -0.2208  0.2125
  519POSM   C1B 6087   0.721  21.690  16.161 -0.0825 -0.2231 -0.2380
  519POSM   D2B 6088   1.051  21.700  15.917 -0.1240  0.0002 -0.0110
  519POSM   C3B 6089   1.155  21.707  15.436  0.3979  0.1030  0.0147
  519POSM   C4B 6090   1.425  21.500  15.107 -0.0573 -0.1458 -0.0106
  520POSM   NC3 6091   3.030  16.979  16.242  0.2903  0.0346 -0.0645
  520POSM   PO4 6092   3.033  17.300  15.958  0.0601  0.1322 -0.3714
  520POSM   AM1 6093   3.151  17.335  15.647  0.1297 -0.2979  0.2430
  520POSM   AM2 6094   3.052  17.574  15.464  0.0238  0.3354 -0.2990
  520POSM   T1A 6095   3.122  17.223  15.165 -0.0446  0.3689 -0.1011
  520POSM   C2A 6096   3.261  16.873  14.887 -0.0251 -0.0849  0.0960
  520POSM   C3A 6097   3.725  16.836  14.714  0.0290 -0.0832  0.0527
  520POSM   C1B 6098   2.817  17.806  15.424 -0.0450 -0.0977 -0.4411
  520POSM   D2B 6099   2.483  17.930  15.177 -0.0717 -0.2095 -0.2884
  520POSM   C3B 6100   2.047  17.916  14.901 -0.5393  0.1725 -0.0950
  520POSM   C4B 6101   1.619  18.015  14.884 -0.4423 -0.0458 -0.5332
  521POSM   NC3 6102   3.066  22.534  16.234 -0.0883 -0.0773  0.0538
  521POSM   PO4 6103   3.365  22.664  16.470  0.1170 -0.1815  0.4912
  521POSM   AM1 6104   3.410  22.826  16.209  0.5300 -0.4230  0.0738
  521POSM   AM2 6105   3.526  22.951  15.979 -0.3873 -0.0900  0.1480
  521POSM   T1A 6106   3.173  22.838  15.738 -0.0225  0.0594 -0.2412
  521POSM   C2A 6107   3.011  22.701  15.313 -0.1042  0.1340  0.4853
  521POSM   C3A 6108   2.582  22.650  15.094 -0.0403 -0.1482  0.2430
  521POSM   C1B 6109   3.772  22.901  15.723  0.1162  0.2174  0.1142
  521POSM   D2B 6110   3.951  22.715  15.328 -0.0883  0.1789 -0.0830
  521POSM   C3B 6111   3.686  22.558  14.910 -0.0854  0.1650  0.0269
  521POSM   C4B 6112   3.393  22.511  14.551 -0.0052 -0.3396 -0.0416
  522DOPC   NC3 6113  11.673  18.975  15.346  0.1470  0.0034 -0.1851
  522DOPC   PO4 6114  11.337  19.100  15.510 -0.0778 -0.0566 -0.0308
  522DOPC   GL1 6115  11.369  19.181  15.085 -0.1352  0.0987  0.1384
  522DOPC   GL2 6116  11.362  19.400  15.007  0.0026 -0.4466  0.0685
  522DOPC   C1A 6117  11.162  18.886  14.725 -0.1204  0.2483  0.2003
  522DOPC   D2A 6118  10.961  19.003  14.319 -0.2536 -0.1030  0.1375
  522DOPC   C3A 6119  11.036  18.942  13.907  0.1811 -0.1838 -0.0799
  522DOPC   C4A 6120  10.981  18.550  13.634 -0.0482  0.1109  0.2975
  522DOPC   C1B 6121  11.362  19.312  14.557 -0.3023 -0.1217 -0.0128
  522DOPC   D2B 6122  11.685  19.054  14.314 -0.1776 -0.1927  0.0202
  522DOPC   C3B 6123  11.588  18.735  13.946  0.0572 -0.4016 -0.1968
  522DOPC   C4B 6124  11.689  18.392  13.648 -0.3253 -0.1248  0.0624
  523POSM   NC3 6125  10.653  19.864  15.675  0.1047 -0.0441  0.0994
  523POSM   PO4 6126  11.000  19.672  15.638 -0.0254  0.1860 -0.0293
  523POSM   AM1 6127  10.904  19.628  15.353 -0.4735  0.0134 -0.2128
  523POSM   AM2 6128  10.751  19.777  15.165 -0.4415  0.4779  0.1009
  523POSM   T1A 6129  10.849  19.234  15.013 -0.0714 -0.2480 -0.0404
  523POSM   C2A 6130  10.595  18.767  15.007  0.0652 -0.0105  0.4435
  523POSM   C3A 6131  10.592  18.262  14.939  0.0985  0.0844  0.2410
  523POSM   C1B 6132  10.769  19.740  14.837  0.4436  0.6549  0.0732
  523POSM   D2B 6133  10.889  19.415  14.488 -0.0842 -0.1157 -0.1872
  523POSM   C3B 6134  11.178  19.415  14.126  0.1046 -0.1299 -0.0049
  523POSM   C4B 6135  11.276  19.346  13.692 -0.0120 -0.0494  0.2091
  524DOPS   CNO 6136   4.622  17.998  16.464 -0.0706  0.2578  0.0500
  524DOPS   PO4 6137   4.534  17.627  16.405 -0.0863 -0.0018  0.1373
  524DOPS   GL1 6138   4.763  17.635  16.059 -0.1230 -0.2338 -0.2506
  524DOPS   GL2 6139   4.566  17.820  15.958  0.1376 -0.0803  0.3549
  524DOPS   C1A 6140   4.838  17.558  15.607  0.0800  0.1218  0.1511
  524DOPS   D2A 6141   4.581  17.472  15.240 -0.4252  0.1000  0.4278
  524DOPS   C3A 6142   4.602  17.195  14.880  0.0887  0.1978  0.1572
  524DOPS   C4A 6143   4.748  16.908  14.580  0.1499  0.0991  0.1128
  524DOPS   C1B 6144   4.273  17.853  15.598  0.0076 -0.1268 -0.0373
  524DOPS   D2B 6145   3.869  17.729  15.464  0.0459  0.3664  0.1389
  524DOPS   C3B 6146   3.940  17.281  15.669  0.3783 -0.1773  0.0430
  524DOPS   C4B 6147   4.373  17.285  15.637  0.1614 -0.0796 -0.0605
  525DOPS   CNO 6148   0.868  18.660  16.282 -0.0934  0.1284 -0.2580
  525DOPS   PO4 6149   0.685  18.861  16.028 -0.1628  0.0012 -0.1896
  525DOPS   GL1 6150   0.731  18.854  15.577 -0.1723  0.0125  0.0535
  525DOPS   GL2 6151   0.942  18.680  15.523 -0.1315  0.2112  0.0813
  525DOPS   C1A 6152   0.689  19.141  15.202 -0.0034 -0.0241  0.0394
  525DOPS   D2A 6153   0.802  19.250  14.790 -0.1543  0.2045 -0.0466
  525DOPS   C3A 6154   1.198  19.126  14.584 -0.0538  0.1807  0.3613
  525DOPS   C4A 6155   1.603  19.209  14.342  0.0531  0.2137  0.0405
  525DOPS   C1B 6156   0.687  18.641  15.122 -0.1249  0.2181  0.3191
  525DOPS   D2B 6157   0.600  18.790  14.650 -0.0274 -0.2686  0.1010
  525DOPS   C3B 6158   0.213  18.534  14.508  0.3188  0.0832 -0.0632
  525DOPS   C4B 6159  -0.098  18.290  14.325 -0.1555 -0.4026  0.3641
  526DOPS   CNO 6160   5.229  18.822  16.382  0.0861  0.1691 -0.0273
  526DOPS   PO4 6161   5.576  19.002  16.412  0.0998  0.0284 -0.0479
  526DOPS   GL1 6162   5.517  19.002  15.979  0.2268  0.0279  0.2395
  526DOPS   GL2 6163   5.320  18.821  15.837  0.1598  0.3145 -0.3093
  526DOPS   C1A 6164   5.321  19.275  15.641  0.0031  0.0821  0.3064
  526DOPS   D2A 6165   5.229  19.348  15.212  0.0043 -0.0581  0.1993
  526DOPS   C3A 6166   5.462  19.180  14.900 -0.5035 -0.2069 -0.0908
  526DOPS   C4A 6167   5.540  19.250  14.460  0.1179  0.2576 -0.1905
  526DOPS   C1B 6168   5.489  18.812  15.431  0.1255  0.0518 -0.2607
  526DOPS   D2B 6169   5.858  18.660  15.259  0.2426 -0.1815 -0.0662
  526DOPS   C3B 6170   5.941  18.848  14.819  0.1991 -0.0484 -0.1463
  526DOPS   C4B 6171   6.046  18.797  14.374 -0.0019  0.0380 -0.0363
  527POSM   NC3 6172   8.479  15.153  15.775  0.1917 -0.0368  0.2014
  527POSM   PO4 6173   8.326  15.137  16.135  0.0713 -0.0992 -0.0050
  527POSM   AM1 6174   8.100  15.029  15.932 -0.0309  0.0983 -0.0204
  527POSM   AM2 6175   8.019  14.773  15.852  0.0901  0.1306 -0.0739
  527POSM   T1A 6176   7.863  15.146  15.470 -0.1560 -0.1843 -0.1693
  527POSM   C2A 6177   7.668  14.933  15.091 -0.1208 -0.1170 -0.0532
  527POSM   C3A 6178   7.625  14.499  14.974  0.0004 -0.2265 -0.0614
  527POSM   C1B 6179   8.123  14.718  15.558  0.4132  0.4261 -0.0845
  527POSM   D2B 6180   8.002  14.391  15.224  0.3203  0.0940 -0.2647
  527POSM   C3B 6181   8.355  14.301  14.954  0.2313 -0.1204 -0.1173
  527POSM   C4B 6182   8.746  14.401  14.885 -0.0499  0.0538 -0.2118
  528DOPE   NH3 6183   8.472  23.792  16.021  0.0993 -0.0132 -0.0354
  528DOPE   PO4 6184   8.217  23.677  15.869  0.1892 -0.0807 -0.0550
  528DOPE   GL1 6185   8.137  23.599  15.474 -0.1609  0.1237  0.2812
  528DOPE   GL2 6186   7.965  23.329  15.551  0.0698 -0.1620 -0.0769
  528DOPE   C1A 6187   7.901  23.433  15.092 -0.1384 -0.2039 -0.1581
  528DOPE   D2A 6188   7.718  23.565  14.723 -0.0254 -0.0771  0.2189
  528DOPE   C3A 6189   8.002  23.510  14.424  0.1757  0.0371  0.1999
  528DOPE   C4A 6190   8.208  23.499  14.011 -0.4801  0.0649  0.1656
  528DOPE   C1B 6191   7.716  22.993  15.397  0.0520  0.1820 -0.3417
  528DOPE   D2B 6192   7.497  22.646  15.252 -0.0656 -0.1274  0.3818
  528DOPE   C3B 6193   7.256  22.349  15.023  0.1228  0.2687 -0.1783
  528DOPE   C4B 6194   7.312  22.161  14.585  0.0095  0.0291 -0.0528
  529POSM   NC3 6195   4.366  12.125  16.666  0.1553  0.1194  0.0427
  529POSM   PO4 6196   4.651  12.108  16.431  0.2071 -0.1868  0.1404
  529POSM   AM1 6197   4.508  12.027  16.133 -0.1203 -0.0507  0.1015
  529POSM   AM2 6198   4.606  12.171  15.897 -0.1043  0.1044 -0.0674
  529POSM   T1A 6199   4.137  11.930  15.814  0.2758  0.2621 -0.0850
  529POSM   C2A 6200   3.937  11.682  15.467 -0.3810  0.0009 -0.3999
  529POSM   C3A 6201   3.738  11.337  15.399 -0.3109 -0.0899 -0.2248
  529POSM   C1B 6202   4.626  12.235  15.585 -0.0530 -0.0981 -0.0655
  529POSM   D2B 6203   4.775  12.215  15.166 -0.0393  0.0905  0.0367
  529POSM   C3B 6204   5.131  12.433  14.982  0.1830 -0.4506 -0.0792
  529POSM   C4B 6205   5.341  12.341  14.585 -0.3438 -0.3122  0.0658
  530DOPS   CNO 6206   7.096  18.723  16.055 -0.2214  0.2111 -0.0771
  530DOPS   PO4 6207   7.024  18.329  16.092 -0.0471 -0.1697  0.4393
  530DOPS   GL1 6208   7.084  18.409  15.734  0.3366  0.1073  0.1344
  530DOPS   GL2 6209   6.998  18.232  15.547  0.4138  0.0455  0.2553
  530DOPS   C1A 6210   7.360  18.513  15.387  0.0424 -0.0987  0.2188
  530DOPS   D2A 6211   7.586  18.554  14.999 -0.0062  0.0867  0.0433
  530DOPS   C3A 6212   7.529  18.898  14.644  0.2333 -0.3084 -0.1417
  530DOPS   C4A 6213   7.304  19.209  14.321 -0.1110 -0.3639 -0.0351
  530DOPS   C1B 6214   6.774  18.141  15.144  0.0727  0.0982  0.3101
  530DOPS   D2B 6215   6.735  18.079  14.676 -0.0491 -0.2288 -0.2798
  530DOPS   C3B 6216   6.380  17.991  14.483  0.1682 -0.1927  0.1624
  530DOPS   C4B 6217   6.010  17.771  14.449 -0.2287 -0.2056 -0.1017
  531POSM   NC3 6218   9.891  16.446  16.158 -0.1808  0.1344  0.1493
  531POSM   PO4 6219   9.753  16.420  15.827  0.0584  0.0587  0.0437
  531POSM   AM1 6220   9.665  16.402  15.507 -0.1761 -0.0573 -0.1415
  531POSM   AM2 6221   9.730  16.179  15.350 -0.0653 -0.0354  0.1127
  531POSM   T1A 6222   9.359  16.659  15.197 -0.2307 -0.2084  0.1375
  531POSM   C2A 6223   8.990  16.827  14.981  0.1220 -0.1294  0.2463
  531POSM   C3A 6224   8.609  17.112  14.929 -0.1825 -0.0685  0.0852
  531POSM   C1B 6225   9.611  16.132  14.998  0.2609 -0.2449  0.0103
  531POSM   D2B 6226   9.584  15.963  14.613 -0.0891  0.0024  0.1730
  531POSM   C3B 6227   9.554  16.119  14.145  0.1056 -0.0245  0.0141
  531POSM   C4B 6228   9.490  16.545  14.010 -0.1132 -0.2677  0.4544
  532POSM   NC3 6229   5.005  14.630  17.083 -0.1236  0.0179 -0.1079
  532POSM   PO4 6230   4.682  14.568  16.891  0.0746  0.1869  0.0881
  532POSM   AM1 6231   4.830  14.742  16.649  0.2308  0.0262 -0.2537
  532POSM   AM2 6232   4.709  14.925  16.461 -0.5426 -0.1611  0.1880
  532POSM   T1A 6233   5.081  14.659  16.214  0.0581 -0.3900 -0.1565
  532POSM   C2A 6234   5.478  14.368  16.176  0.0070  0.3502 -0.1697
  532POSM   C3A 6235   5.847  14.082  16.030 -0.2425 -0.1866 -0.0024
  532POSM   C1B 6236   4.626  14.774  16.188  0.2034 -0.0921 -0.1260
  532POSM   D2B 6237   4.478  14.408  15.962  0.5195  0.2827  0.0797
  532POSM   C3B 6238   4.793  14.480  15.607 -0.1495 -0.1543 -0.0200
  532POSM   C4B 6239   5.000  14.803  15.320 -0.0947 -0.1485 -0.2646
  533POSM   NC3 6240   2.319  19.560  16.566 -0.1059  0.1291 -0.2080
  533POSM   PO4 6241   1.925  19.572  16.536  0.0786 -0.0734  0.1873
  533POSM   AM1 6242   2.031  19.707  16.221  0.1034 -0.2860 -0.1454
  533POSM   AM2 6243   2.224  19.884  16.095  0.2113 -0.2560 -0.0446
  533POSM   T1A 6244   1.838  19.953  15.838  0.0073 -0.2790  0.1659
  533POSM   C2A 6245   1.928  20.166  15.427  0.1472 -0.0983  0.0720
  533POSM   C3A 6246   2.050  20.090  14.985 -0.2148 -0.2315 -0.0104
  533POSM   C1B 6247   2.296  19.929  15.749 -0.0039 -0.2400  0.1067
  533POSM   D2B 6248   2.614  19.893  15.401 -0.2067  0.0156  0.0205
  533POSM   C3B 6249   2.899  20.122  15.135  0.1229 -0.0269 -0.0892
  533POSM   C4B 6250   3.096  20.330  14.800 -0.0274 -0.1818 -0.0228
  534DOPE   NH3 6251  11.139  20.384  15.823  0.0403 -0.2937  0.2345
  534DOPE   PO4 6252  10.886  20.302  15.713  0.4075  0.0462 -0.3878
  534DOPE   GL1 6253  11.052  20.389  15.335  0.0048 -0.1421  0.1513
  534DOPE   GL2 6254  11.100  20.073  15.234 -0.0453  0.3873 -0.0342
  534DOPE   C1A 6255  11.201  20.428  14.845 -0.0451 -0.3890  0.1088
  534DOPE   D2A 6256  11.168  20.671  14.402 -0.2356 -0.1861  0.4834
  534DOPE   C3A 6257  10.989  20.395  14.113  0.0178 -0.1483 -0.1312
  534DOPE   C4A 6258  10.604  20.138  14.030 -0.2783 -0.1911  0.2721
  534DOPE   C1B 6259  11.234  19.873  14.895  0.0528  0.2731  0.0647
  534DOPE   D2B 6260  11.327  19.829  14.469  0.1660  0.0104  0.3038
  534DOPE   C3B 6261  11.405  20.107  14.120  0.2545  0.1600  0.0587
  534DOPE   C4B 6262  11.370  20.348  13.733  0.0885 -0.2940 -0.3752
  535DOPE   NH3 6263   0.538  19.306  16.089  0.3395 -0.0067  0.0559
  535DOPE   PO4 6264   0.808  19.417  16.207  0.2312  0.0877  0.1997
  535DOPE   GL1 6265   0.857  19.414  15.812 -0.2541  0.2345 -0.1177
  535DOPE   GL2 6266   0.976  19.179  15.727 -0.1220  0.0697  0.0303
  535DOPE   C1A 6267   1.023  19.572  15.381  0.4703  0.0663 -0.2361
  535DOPE   D2A 6268   1.108  19.686  14.936 -0.5308 -0.2604  0.3315
  535DOPE   C3A 6269   1.185  19.987  14.606  0.1601 -0.0581  0.0423
  535DOPE   C4A 6270   1.560  20.275  14.558  0.2102 -0.0541 -0.2096
  535DOPE   C1B 6271   1.213  19.073  15.322  0.0842  0.2647  0.1908
  535DOPE   D2B 6272   1.379  18.840  14.936  0.0713  0.0410  0.1503
  535DOPE   C3B 6273   1.125  18.629  14.580  0.0350 -0.2916  0.1988
  535DOPE   C4B 6274   1.118  18.451  14.191  0.2157 -0.0533 -0.0031
  536DOPS   CNO 6275  11.322  12.155  15.355  0.0072 -0.0844  0.2330
  536DOPS   PO4 6276  11.101  12.431  15.264 -0.2053  0.2247 -0.0863
  536DOPS   GL1 6277  10.860  12.464  14.952 -0.5009 -0.0400 -0.1140
  536DOPS   GL2 6278  10.558  12.496  14.822 -0.2459 -0.3291  0.1343
  536DOPS   C1A 6279  10.861  12.131  14.650 -0.3002  0.3811 -0.0566
  536DOPS   D2A 6280  10.852  11.716  14.758 -0.1087  0.1163 -0.0884
  536DOPS   C3A 6281  10.491  11.424  14.555 -0.1065  0.0518 -0.1840
  536DOPS   C4A 6282  10.523  11.208  14.155  0.1364  0.2275  0.0640
  536DOPS   C1B 6283  10.412  12.708  14.397 -0.2568  0.3730 -0.2145
  536DOPS   D2B 6284  10.160  12.751  13.968  0.3243 -0.1217  0.2282
  536DOPS   C3B 6285  10.225  12.411  13.666  0.0403 -0.5800 -0.1894
  536DOPS   C4B 6286  10.488  12.194  13.353 -0.2416  0.0599 -0.0463
  537DOPS   CNO 6287   0.287  16.517  16.364  0.2075 -0.0578 -0.0473
  537DOPS   PO4 6288  -0.031  16.330  16.454 -0.1107  0.1137 -0.0333
  537DOPS   GL1 6289  -0.117  16.246  16.093  0.0410 -0.2719  0.4251
  537DOPS   GL2 6290  -0.295  16.370  15.868  0.0144  0.0015 -0.1424
  537DOPS   C1A 6291  -0.024  15.946  15.768  0.1040 -0.2439 -0.4088
  537DOPS   D2A 6292   0.104  15.798  15.383 -0.1493 -0.1257  0.1004
  537DOPS   C3A 6293  -0.196  15.716  15.009  0.2366 -0.0582  0.2175
  537DOPS   C4A 6294  -0.591  15.601  14.855  0.0450  0.0067 -0.1986
  537DOPS   C1B 6295  -0.210  16.546  15.463 -0.0605  0.2669  0.0359
  537DOPS   D2B 6296  -0.232  16.819  15.068  0.1677 -0.0047 -0.1606
  537DOPS   C3B 6297  -0.576  16.717  14.853  0.2148  0.0071  0.1460
  537DOPS   C4B 6298  -0.683  16.528  14.450  0.1855 -0.0721  0.2759
  538DOPE   NH3 6299   4.380  21.581  16.416  0.2314  0.0757 -0.0241
  538DOPE   PO4 6300   4.063  21.496  16.501  0.0139  0.0557  0.0650
  538DOPE   GL1 6301   3.947  21.319  16.094 -0.0129 -0.3390 -0.0324
  538DOPE   GL2 6302   4.066  21.605  15.999  0.0018 -0.1695 -0.1266
  538DOPE   C1A 6303   3.823  21.007  15.727  0.3823  0.0090  0.1595
  538DOPE   D2A 6304   3.511  20.768  15.472 -0.0212 -0.5085  0.1713
  538DOPE   C3A 6305   3.171  20.923  15.191 -0.1465 -0.1047  0.2006
  538DOPE   C4A 6306   2.997  21.271  14.891 -0.0580 -0.1808 -0.0113
  538DOPE   C1B 6307   4.287  21.187  15.813 -0.0307 -0.3229  0.0415
  538DOPE   D2B 6308   4.298  20.737  15.686  0.1912  0.0845 -0.1412
  538DOPE   C3B 6309   4.376  20.652  15.209  0.1275  0.0678 -0.1574
  538DOPE   C4B 6310   4.139  20.841  14.855  0.0834 -0.0157  0.1339
  539DOPC   NC3 6311   4.786  22.231  16.131 -0.3483  0.4381 -0.2113
  539DOPC   PO4 6312   4.750  21.969  16.455  0.1925  0.0495  0.1406
  539DOPC   GL1 6313   4.838  21.759  16.010 -0.3502 -0.3285 -0.1143
  539DOPC   GL2 6314   5.130  21.835  15.949  0.1804  0.1842  0.0444
  539DOPC   C1A 6315   4.536  21.621  15.705  0.0503  0.2732 -0.0699
  539DOPC   D2A 6316   4.303  21.905  15.386 -0.0155 -0.0294  0.0820
  539DOPC   C3A 6317   4.585  22.044  15.035  0.1608 -0.1204  0.0103
  539DOPC   C4A 6318   4.915  22.182  14.769 -0.0293 -0.2049  0.0613
  539DOPC   C1B 6319   5.354  22.054  15.576 -0.0539  0.0020  0.1139
  539DOPC   D2B 6320   5.801  22.100  15.595 -0.4093 -0.0967  0.0665
  539DOPC   C3B 6321   5.909  22.292  15.170 -0.2213 -0.0052 -0.0268
  539DOPC   C4B 6322   6.143  22.649  14.917 -0.3217  0.1362  0.1519
  540DOPE   NH3 6323   6.603  19.956  16.064  0.1768  0.2987 -0.1185
  540DOPE   PO4 6324   6.472  20.202  16.030 -0.0319  0.0766 -0.1465
  540DOPE   GL1 6325   6.367  20.208  15.621 -0.2250 -0.1148  0.0852
  540DOPE   GL2 6326   6.410  19.910  15.595  0.0076  0.1581  0.0286
  540DOPE   C1A 6327   6.474  20.177  15.155 -0.2848  0.2286 -0.0564
  540DOPE   D2A 6328   6.673  20.291  14.781  0.0831  0.1416  0.1640
  540DOPE   C3A 6329   7.055  20.043  14.699  0.0805 -0.0548 -0.2363
  540DOPE   C4A 6330   7.194  19.848  14.327  0.1246 -0.1337 -0.1694
  540DOPE   C1B 6331   6.021  19.981  15.380  0.1557 -0.4592  0.0176
  540DOPE   D2B 6332   5.755  19.722  15.115 -0.0777  0.3560  0.2195
  540DOPE   C3B 6333   5.938  19.335  14.897  0.0899 -0.1373  0.2337
  540DOPE   C4B 6334   6.136  19.333  14.476  0.0651  0.0715  0.2437
  541DOPC   NC3 6335  34.371  14.684  15.753 -0.1925 -0.1499  0.0117
  541DOPC   PO4 6336  34.050  14.568  15.932 -0.0315  0.0903  0.0457
  541DOPC   GL1 6337  33.801  14.509  15.635 -0.1480 -0.2059  0.2308
  541DOPC   GL2 6338  34.016  14.551  15.397  0.0755  0.2455 -0.0629
  541DOPC   C1A 6339  33.657  14.255  15.271 -0.0154 -0.1703  0.2723
  541DOPC   D2A 6340  33.361  13.976  15.123 -0.2871 -0.2096 -0.1337
  541DOPC   C3A 6341  33.222  13.906  14.684  0.1211  0.0729  0.3634
  541DOPC   C4A 6342  33.049  13.987  14.229 -0.3301  0.1971  0.0555
  541DOPC   C1B 6343  34.367  14.758  15.251  0.0109 -0.1594 -0.1642
  541DOPC   D2B 6344  34.619  14.930  14.922 -0.1641  0.3180 -0.3876
  541DOPC   C3B 6345  34.383  15.112  14.575  0.0288 -0.3141  0.0433
  541DOPC   C4B 6346  33.929  15.223  14.502 -0.0085 -0.0651  0.1634
  542DOPE   NH3 6347   9.400  15.573  15.579  0.1426  0.2105 -0.0012
  542DOPE   PO4 6348   9.404  15.870  15.618  0.2475 -0.0788  0.2413
  542DOPE   GL1 6349   9.121  15.906  15.313 -0.1724 -0.0485  0.1388
  542DOPE   GL2 6350   9.113  16.203  15.217  0.0972 -0.0817 -0.0536
  542DOPE   C1A 6351   9.120  15.898  14.849 -0.2325  0.3452  0.0159
  542DOPE   D2A 6352   9.165  15.694  14.439 -0.0765 -0.1028 -0.2008
  542DOPE   C3A 6353   9.028  15.788  14.036  0.0580  0.1753 -0.1261
  542DOPE   C4A 6354   9.061  15.911  13.596  0.0529  0.0517 -0.1282
  542DOPE   C1B 6355   9.182  16.378  14.825 -0.0902  0.1677 -0.2594
  542DOPE   D2B 6356   9.121  16.192  14.372 -0.1018 -0.2952  0.2731
  542DOPE   C3B 6357   9.033  16.438  14.008 -0.0820 -0.0643 -0.1392
  542DOPE   C4B 6358   8.710  16.604  13.792 -0.2151  0.0538  0.2381
  543DOPE   NH3 6359   9.766  19.770  15.782 -0.1312  0.1424  0.2072
  543DOPE   PO4 6360   9.462  19.802  15.721 -0.0414  0.0834 -0.1802
  543DOPE   GL1 6361   9.367  19.673  15.384  0.1224  0.0716 -0.1018
  543DOPE   GL2 6362   9.557  19.494  15.297 -0.0382 -0.0149  0.0534
  543DOPE   C1A 6363   9.373  19.825  14.990 -0.1766 -0.3735  0.4323
  543DOPE   D2A 6364   9.433  19.707  14.578  0.3120 -0.3679  0.5120
  543DOPE   C3A 6365   9.874  19.603  14.399 -0.1585  0.0074  0.0303
  543DOPE   C4A 6366  10.322  19.709  14.411 -0.0815  0.0731 -0.2950
  543DOPE   C1B 6367   9.762  19.307  14.966  0.0445 -0.1023  0.0742
  543DOPE   D2B 6368   9.955  19.152  14.601  0.2167  0.0755  0.1484
  543DOPE   C3B 6369   9.599  19.007  14.331 -0.0015 -0.0864  0.1810
  543DOPE   C4B 6370   9.370  19.007  13.911  0.0849 -0.1435  0.0755
  544DOPC   NC3 6371   1.825  11.218  16.236 -0.0493 -0.0384  0.4350
  544DOPC   PO4 6372   1.698  11.608  16.220  0.2156 -0.1743  0.1521
  544DOPC   GL1 6373   1.994  11.517  15.766 -0.2900  0.2170 -0.4575
  544DOPC   GL2 6374   1.813  11.591  15.542  0.2310  0.0589  0.0071
  544DOPC   C1A 6375   2.278  11.634  15.420 -0.1725 -0.0146 -0.0088
  544DOPC   D2A 6376   2.433  12.018  15.148  0.1661  0.0067  0.1620
  544DOPC   C3A 6377   2.586  12.303  15.485 -0.1401 -0.2626  0.0625
  544DOPC   C4A 6378   2.971  12.333  15.805  0.0455  0.0960 -0.0489
  544DOPC   C1B 6379   1.483  11.323  15.296 -0.1893  0.1142 -0.0964
  544DOPC   D2B 6380   1.162  11.368  14.944 -0.0204 -0.2302  0.1183
  544DOPC   C3B 6381   1.255  11.455  14.489 -0.0050  0.0521  0.1057
  544DOPC   C4B 6382   1.359  11.682  14.130 -0.1530 -0.0683  0.0800
  545DOPC   NC3 6383  10.271  15.785  15.326 -0.3185 -0.1396  0.0302
  545DOPC   PO4 6384  10.438  15.458  15.138  0.4225  0.1126  0.0663
  545DOPC   GL1 6385  10.415  15.455  14.780  0.2853 -0.0785 -0.1591
  545DOPC   GL2 6386  10.106  15.412  14.718  0.0431 -0.1907 -0.1472
  545DOPC   C1A 6387  10.382  15.572  14.340 -0.0414  0.0675  0.0019
  545DOPC   D2A 6388  10.466  15.285  13.965  0.0906  0.1902  0.3139
  545DOPC   C3A 6389  10.523  14.864  14.130  0.3828 -0.0429 -0.2905
  545DOPC   C4A 6390  10.793  14.611  14.375  0.0931 -0.1186 -0.2873
  545DOPC   C1B 6391   9.768  15.515  14.418  0.2139  0.1790  0.0324
  545DOPC   D2B 6392   9.492  15.548  14.056 -0.1847 -0.0521  0.0531
  545DOPC   C3B 6393   9.575  15.821  13.670 -0.1667  0.1790  0.1854
  545DOPC   C4B 6394   9.578  15.894  13.212  0.1010 -0.2226 -0.1877
  546DOPE   NH3 6395   7.205  14.038  16.526 -0.0617 -0.0519 -0.1643
  546DOPE   PO4 6396   7.418  14.004  16.279  0.0468  0.2924 -0.1687
  546DOPE   GL1 6397   7.548  13.801  15.965 -0.2824  0.3692 -0.1437
  546DOPE   GL2 6398   7.711  13.949  15.815  0.0591  0.0796 -0.1191
  546DOPE   C1A 6399   7.239  13.606  15.722 -0.1638 -0.0842  0.1988
  546DOPE   D2A 6400   6.832  13.524  15.628  0.1449  0.5158 -0.0612
  546DOPE   C3A 6401   6.712  13.118  15.340  0.0078  0.4682 -0.1275
  546DOPE   C4A 6402   6.905  12.995  14.908  0.0939  0.1926  0.0663
  546DOPE   C1B 6403   7.574  13.914  15.393 -0.2077 -0.0129 -0.1179
  546DOPE   D2B 6404   7.489  13.877  14.906 -0.2735  0.3994  0.0170
  546DOPE   C3B 6405   7.392  14.250  14.637  0.0240  0.2855  0.0653
  546DOPE   C4B 6406   7.209  14.433  14.204 -0.0823 -0.3958 -0.0964
  547DOPE   NH3 6407  10.932  18.573  16.175  0.0144  0.2406 -0.0174
  547DOPE   PO4 6408  10.832  18.606  15.872 -0.0783  0.0273 -0.2082
  547DOPE   GL1 6409  11.044  18.682  15.518  0.1627 -0.0243 -0.3301
  547DOPE   GL2 6410  11.327  18.592  15.406  0.0881  0.1744 -0.0550
  547DOPE   C1A 6411  11.012  18.483  15.074 -0.2235 -0.1675  0.1254
  547DOPE   D2A 6412  11.061  18.279  14.689 -0.0027  0.1905  0.2362
  547DOPE   C3A 6413  10.720  18.076  14.438  0.1704  0.0191 -0.0747
  547DOPE   C4A 6414  10.349  18.201  14.219  0.1065  0.1038 -0.2379
  547DOPE   C1B 6415  11.460  18.606  14.975 -0.0495 -0.1340  0.0239
  547DOPE   D2B 6416  11.505  18.592  14.513  0.1481 -0.0296  0.1905
  547DOPE   C3B 6417  11.541  18.221  14.247 -0.2018  0.1130  0.1879
  547DOPE   C4B 6418  11.726  17.909  13.953 -0.2667 -0.1615  0.2793
  548DOPS   CNO 6419   1.475  16.611  16.469  0.0827 -0.0308  0.1142
  548DOPS   PO4 6420   1.647  16.312  16.404  0.0456  0.3689 -0.4031
  548DOPS   GL1 6421   1.777  16.110  16.046 -0.0726 -0.0977 -0.3023
  548DOPS   GL2 6422   1.594  16.354  15.915  0.2015  0.1159 -0.0929
  548DOPS   C1A 6423   1.843  16.042  15.575 -0.1140 -0.3869 -0.2735
  548DOPS   D2A 6424   1.664  16.285  15.266 -0.1013 -0.0329  0.2555
  548DOPS   C3A 6425   1.673  16.379  14.802 -0.4401 -0.0483 -0.0969
  548DOPS   C4A 6426   1.688  16.673  14.456 -0.1533 -0.1254 -0.1649
  548DOPS   C1B 6427   1.384  16.005  15.748 -0.3277  0.1374 -0.1190
  548DOPS   D2B 6428   1.394  15.780  15.370 -0.0029  0.0742  0.2942
  548DOPS   C3B 6429   1.720  15.842  15.076 -0.2521 -0.0288 -0.0810
  548DOPS   C4B 6430   1.998  15.904  14.705  0.1290  0.0688 -0.0585
  549POSM   NC3 6431   5.171  22.221  16.596 -0.0714 -0.1123 -0.1277
  549POSM   PO4 6432   5.048  22.570  16.532 -0.0165  0.2422 -0.1535
  549POSM   AM1 6433   5.010  22.672  16.221 -0.2194 -0.3319 -0.1510
  549POSM   AM2 6434   5.176  22.580  16.013 -0.0948  0.1757  0.1854
  549POSM   T1A 6435   4.904  22.979  15.851  0.2761  0.2512  0.0961
  549POSM   C2A 6436   4.901  23.362  15.552  0.0274  0.0989  0.2461
  549POSM   C3A 6437   4.665  23.568  15.242 -0.1037 -0.0188 -0.2696
  549POSM   C1B 6438   5.052  22.496  15.726 -0.0954 -0.1298  0.0134
  549POSM   D2B 6439   4.877  22.440  15.280 -0.1508 -0.1778 -0.0597
  549POSM   C3B 6440   5.116  22.648  14.960 -0.2130 -0.3211  0.4399
  549POSM   C4B 6441   5.253  22.967  14.604 -0.0232 -0.4139  0.0218
  550DOPC   NC3 6442   0.132  16.989  16.266  0.0401 -0.1220  0.3975
  550DOPC   PO4 6443  -0.165  17.204  16.248 -0.4477  0.3057 -0.2560
  550DOPC   GL1 6444  -0.132  17.377  15.859 -0.2110 -0.4201  0.2130
  550DOPC   GL2 6445   0.162  17.409  15.896  0.0956  0.3416  0.2236
  550DOPC   C1A 6446  -0.176  17.852  15.808 -0.1387 -0.0402  0.0780
  550DOPC   D2A 6447   0.061  18.045  15.451 -0.0642  0.0625 -0.3492
  550DOPC   C3A 6448   0.131  17.786  15.117 -0.6015 -0.2897 -0.0654
  550DOPC   C4A 6449   0.269  17.510  14.859 -0.4972 -0.1246 -0.0527
  550DOPC   C1B 6450   0.279  17.436  15.443 -0.0632 -0.3109 -0.1180
  550DOPC   D2B 6451   0.542  17.849  15.468  0.0557  0.2551 -0.1419
  550DOPC   C3B 6452   0.584  18.135  15.072 -0.1453 -0.2326  0.1977
  550DOPC   C4B 6453   0.690  18.316  14.671  0.0764  0.1387 -0.1920
  551DOPC   NC3 6454   3.177  15.212  16.445  0.2235  0.1925  0.0796
  551DOPC   PO4 6455   3.537  15.122  16.464 -0.4040  0.2147 -0.2524
  551DOPC   GL1 6456   3.539  15.191  16.092 -0.4901 -0.0090 -0.0211
  551DOPC   GL2 6457   3.340  15.344  15.987  0.1489  0.2639 -0.0484
  551DOPC   C1A 6458   3.858  15.190  15.776 -0.1286  0.3720 -0.0947
  551DOPC   D2A 6459   4.030  14.984  15.354 -0.0795  0.0296  0.2574
  551DOPC   C3A 6460   4.071  15.105  14.889 -0.3999 -0.0303  0.4007
  551DOPC   C4A 6461   3.911  15.243  14.479  0.0830  0.0044 -0.1795
  551DOPC   C1B 6462   3.418  15.127  15.572 -0.1462  0.0190  0.1389
  551DOPC   D2B 6463   3.613  14.824  15.201 -0.1101 -0.1567 -0.1150
  551DOPC   C3B 6464   3.583  14.886  14.754  0.2016 -0.4712 -0.2506
  551DOPC   C4B 6465   3.469  14.691  14.352 -0.0128 -0.3422 -0.3354
  552DOPS   CNO 6466   2.904  12.933  16.114 -0.1577  0.0617  0.0370
  552DOPS   PO4 6467   2.784  12.961  15.750 -0.1433  0.2011 -0.1330
  552DOPS   GL1 6468   2.952  12.719  15.612 -0.3731 -0.0875  0.1759
  552DOPS   GL2 6469   2.859  12.841  15.293  0.2771  0.2174  0.0459
  552DOPS   C1A 6470   3.275  12.487  15.341  0.0386 -0.0751 -0.1888
  552DOPS   D2A 6471   3.488  12.305  14.991 -0.0322 -0.1227 -0.3667
  552DOPS   C3A 6472   3.469  11.902  15.210 -0.2851 -0.2960 -0.0174
  552DOPS   C4A 6473   3.377  11.610  15.551 -0.2311 -0.0276  0.2404
  552DOPS   C1B 6474   2.984  12.803  14.853 -0.0778  0.2304 -0.0943
  552DOPS   D2B 6475   3.300  12.757  14.515  0.3108  0.1603  0.2279
  552DOPS   C3B 6476   3.536  13.170  14.554 -0.0368 -0.1069  0.0754
  552DOPS   C4B 6477   3.704  13.517  14.804 -0.2871  0.1188  0.1991
  553DOPC   NC3 6478  10.075  22.666  16.344  0.0526  0.1146 -0.0252
  553DOPC   PO4 6479   9.822  22.711  16.033 -0.2667  0.1672  0.1587
  553DOPC   GL1 6480   9.695  23.011  15.811 -0.3085 -0.1914 -0.2732
  553DOPC   GL2 6481   9.445  22.982  15.618 -0.1691 -0.3791  0.2106
  553DOPC   C1A 6482   9.982  23.215  15.470 -0.3555 -0.2586 -0.0760
  553DOPC   D2A 6483  10.126  23.554  15.337 -0.2855  0.0849  0.2195
  553DOPC   C3A 6484  10.515  23.581  15.068 -0.1556 -0.0201  0.3230
  553DOPC   C4A 6485  10.610  23.343  14.676  0.3952  0.2160  0.4011
  553DOPC   C1B 6486   9.559  23.217  15.212  0.0559  0.1786  0.0247
  553DOPC   D2B 6487   9.578  23.446  14.855  0.0108 -0.0728  0.2783
  553DOPC   C3B 6488   9.700  23.187  14.466  0.6856 -0.2143 -0.1631
  553DOPC   C4B 6489   9.801  23.254  14.039 -0.3683  0.1363  0.0011
  554POSM   NC3 6490   8.699  16.032  16.175  0.1427  0.3745 -0.4556
  554POSM   PO4 6491   8.436  16.343  16.038 -0.1545  0.0347  0.2774
  554POSM   AM1 6492   8.313  16.323  15.714  0.1174 -0.1974  0.2568
  554POSM   AM2 6493   8.123  16.401  15.511  0.1810  0.1317  0.2584
  554POSM   T1A 6494   8.268  16.062  15.251  0.2384 -0.0257  0.1179
  554POSM   C2A 6495   8.643  15.780  15.150 -0.1886 -0.3423 -0.3815
  554POSM   C3A 6496   8.991  15.506  15.119 -0.3002  0.0188  0.2224
  554POSM   C1B 6497   8.246  16.539  15.190  0.1137  0.3116  0.1240
  554POSM   D2B 6498   8.368  16.723  14.756  0.3207 -0.2520  0.0401
  554POSM   C3B 6499   8.065  16.669  14.456 -0.2430 -0.2554 -0.0075
  554POSM   C4B 6500   8.038  16.269  14.210  0.0232 -0.4719 -0.1358
  555DOPC   NC3 6501   6.043  12.752  16.573  0.1807  0.1168 -0.1442
  555DOPC   PO4 6502   6.187  13.019  16.344 -0.1136 -0.2049 -0.3069
  555DOPC   GL1 6503   6.069  12.775  16.016 -0.1995 -0.1973 -0.0021
  555DOPC   GL2 6504   5.753  12.652  16.096 -0.0719  0.0990  0.1618
  555DOPC   C1A 6505   6.301  12.515  15.766  0.2791 -0.1304 -0.1073
  555DOPC   D2A 6506   6.258  12.171  15.504 -0.1722  0.0192  0.2979
  555DOPC   C3A 6507   6.130  12.151  15.059 -0.0923 -0.1548  0.1123
  555DOPC   C4A 6508   6.143  12.219  14.575 -0.2938 -0.3241 -0.2803
  555DOPC   C1B 6509   5.810  12.542  15.653  0.0590 -0.2567 -0.0791
  555DOPC   D2B 6510   6.024  12.729  15.279 -0.0076 -0.1821 -0.2865
  555DOPC   C3B 6511   6.543  12.659  15.260  0.5603 -0.1906  0.0928
  555DOPC   C4B 6512   6.697  12.189  15.283  0.1518  0.2509  0.0891
  556DOPC   NC3 6513   9.834  11.710  15.407 -0.1161  0.1314 -0.0217
  556DOPC   PO4 6514   9.556  11.797  15.680  0.1058 -0.0013  0.1647
  556DOPC   GL1 6515   9.402  11.902  15.381  0.1241 -0.0364  0.4802
  556DOPC   GL2 6516   9.115  11.786  15.433  0.1944 -0.0834 -0.3381
  556DOPC   C1A 6517   9.468  11.842  14.952  0.1424  0.1108 -0.2749
  556DOPC   D2A 6518   9.503  11.457  14.591  0.1545 -0.2939  0.0982
  556DOPC   C3A 6519   9.210  11.398  14.279 -0.0088 -0.0339  0.0003
  556DOPC   C4A 6520   9.019  11.434  13.821  0.0796  0.3269  0.0347
  556DOPC   C1B 6521   8.992  11.822  14.957 -0.3895 -0.3169 -0.1870
  556DOPC   D2B 6522   9.136  11.772  14.592  0.2243  0.0144 -0.1871
  556DOPC   C3B 6523   8.838  11.696  14.210 -0.0545  0.3992 -0.3198
  556DOPC   C4B 6524   8.906  11.912  13.836  0.0978  0.2664 -0.2340
  557DOPE   NH3 6525   5.970  10.925  16.521  0.0272 -0.0383  0.0653
  557DOPE   PO4 6526   6.243  10.742  16.440  0.0324 -0.1002 -0.0453
  557DOPE   GL1 6527   6.362  10.907  16.066  0.2328  0.0489 -0.1588
  557DOPE   GL2 6528   6.538  11.102  16.078 -0.2737 -0.1111 -0.3013
  557DOPE   C1A 6529   6.468  10.487  15.790 -0.0443 -0.0208  0.1948
  557DOPE   D2A 6530   6.683  10.147  15.527 -0.2234 -0.0014 -0.1992
  557DOPE   C3A 6531   6.836  10.161  15.115 -0.3846 -0.0331  0.0730
  557DOPE   C4A 6532   7.145  10.467  14.943 -0.1813  0.0077  0.1686
  557DOPE   C1B 6533   6.786  10.879  15.763 -0.1595  0.0644  0.0924
  557DOPE   D2B 6534   6.782  10.611  15.371 -0.0403 -0.2291 -0.0698
  557DOPE   C3B 6535   6.693  10.754  14.947 -0.1174  0.3100  0.1021
  557DOPE   C4B 6536   6.623  10.432  14.588 -0.2090 -0.0828  0.0252
  558POSM   NC3 6537   9.754  12.660  15.712 -0.2663  0.3993 -0.0886
  558POSM   PO4 6538  10.060  12.888  15.759  0.1357  0.0422  0.1399
  558POSM   AM1 6539  10.176  12.795  15.466 -0.0141 -0.2054 -0.1297
  558POSM   AM2 6540  10.259  12.925  15.205 -0.1522 -0.0789 -0.0049
  558POSM   T1A 6541  10.023  12.507  15.062  0.0268 -0.1168  0.0350
  558POSM   C2A 6542   9.941  12.410  14.629 -0.2636 -0.1580  0.1992
  558POSM   C3A 6543  10.049  12.235  14.143 -0.1646  0.0979  0.0551
  558POSM   C1B 6544  10.282  12.932  14.907  0.0440  0.1847  0.0174
  558POSM   D2B 6545  10.344  13.151  14.498 -0.3574 -0.1914 -0.1590
  558POSM   C3B 6546  10.033  13.282  14.128 -0.2480  0.1421 -0.0231
  558POSM   C4B 6547   9.673  13.636  14.150  0.0727 -0.2112  0.0484
  559POSM   NC3 6548   1.321  19.839  15.938  0.0512  0.1394 -0.1024
  559POSM   PO4 6549   1.308  19.453  15.985  0.3121 -0.1015 -0.0293
  559POSM   AM1 6550   1.465  19.406  15.681 -0.0849  0.4484 -0.2375
  559POSM   AM2 6551   1.626  19.186  15.569  0.0201 -0.1437 -0.1927
  559POSM   T1A 6552   1.489  19.451  15.154 -0.0409  0.0771  0.2508
  559POSM   C2A 6553   1.740  19.165  14.849 -0.1039 -0.0010  0.2091
  559POSM   C3A 6554   2.090  19.316  14.531  0.3220  0.0107 -0.1726
  559POSM   C1B 6555   1.884  19.166  15.330  0.1130 -0.4014  0.2151
  559POSM   D2B 6556   2.223  19.205  15.004  0.1382 -0.0891  0.2186
  559POSM   C3B 6557   2.488  19.030  14.668  0.1024 -0.2751  0.2374
  559POSM   C4B 6558   2.884  18.880  14.388  0.4565 -0.1234  0.1454
  560DOPE   NH3 6559   1.078  13.485  16.378 -0.0824  0.0908 -0.1426
  560DOPE   PO4 6560   1.092  13.748  16.178 -0.0371  0.0435 -0.0202
  560DOPE   GL1 6561   1.297  13.735  15.917 -0.3913 -0.1574 -0.0135
  560DOPE   GL2 6562   1.487  13.510  15.823  0.1728 -0.0413  0.1407
  560DOPE   C1A 6563   1.096  13.612  15.497 -0.0475 -0.0289 -0.0949
  560DOPE   D2A 6564   1.127  13.620  14.992 -0.1092 -0.1187 -0.0601
  560DOPE   C3A 6565   1.136  13.341  14.627  0.0074  0.1241 -0.0229
  560DOPE   C4A 6566   1.044  13.274  14.174 -0.3616  0.0810 -0.0325
  560DOPE   C1B 6567   1.472  13.276  15.404  0.0658  0.2811 -0.0740
  560DOPE   D2B 6568   1.379  12.904  15.137  0.0771 -0.0411  0.2546
  560DOPE   C3B 6569   1.694  12.688  14.938 -0.1870  0.1246  0.1668
  560DOPE   C4B 6570   1.827  12.554  14.555  0.2702 -0.1882  0.0894
  561POSM   NC3 6571   0.616  13.949  16.076  0.2643 -0.1428  0.1490
  561POSM   PO4 6572   0.587  13.634  16.285 -0.2284 -0.1098  0.2496
  561POSM   AM1 6573   0.722  13.475  16.006  0.1985  0.0081 -0.0124
  561POSM   AM2 6574   0.644  13.522  15.743 -0.0001 -0.1401  0.2078
  561POSM   T1A 6575   0.970  13.146  15.709  0.1596  0.3078  0.4593
  561POSM   C2A 6576   1.074  12.728  15.597 -0.1178 -0.0004 -0.1233
  561POSM   C3A 6577   1.047  12.276  15.347  0.0011  0.0801  0.2022
  561POSM   C1B 6578   0.643  13.824  15.551 -0.1474  0.0090 -0.0569
  561POSM   D2B 6579   0.733  14.203  15.255  0.3960 -0.1475  0.0444
  561POSM   C3B 6580   0.891  14.161  14.867 -0.0068  0.2914  0.2454
  561POSM   C4B 6581   0.937  14.323  14.401  0.0292  0.1532 -0.0755
  562DOPE   NH3 6582   4.262  22.212  16.454  0.1017  0.2434  0.0766
  562DOPE   PO4 6583   4.344  22.027  16.172 -0.0789 -0.5275  0.1905
  562DOPE   GL1 6584   4.386  22.053  15.802  0.3863 -0.0137 -0.1512
  562DOPE   GL2 6585   4.399  22.364  15.737 -0.1564  0.3963  0.2738
  562DOPE   C1A 6586   4.768  22.034  15.565  0.1923 -0.3217 -0.2000
  562DOPE   D2A 6587   4.984  21.944  15.204  0.1607 -0.0828 -0.0438
  562DOPE   C3A 6588   5.382  21.699  15.072  0.0413 -0.0550 -0.0018
  562DOPE   C4A 6589   5.754  21.864  14.900 -0.0127 -0.0754  0.1904
  562DOPE   C1B 6590   4.336  22.387  15.288  0.1504 -0.0516 -0.1119
  562DOPE   D2B 6591   4.573  22.517  14.907  0.0310  0.0409  0.1160
  562DOPE   C3B 6592   4.573  22.978  14.805  0.3968  0.3732 -0.1737
  562DOPE   C4B 6593   4.538  23.388  14.661 -0.1752  0.3303 -0.0452
  563POSM   NC3 6594   1.128  16.381  16.188  0.1878  0.3044 -0.0410
  563POSM   PO4 6595   0.779  16.512  16.081  0.1663 -0.0818  0.1136
  563POSM   AM1 6596   0.496  16.560  15.912  0.3496 -0.2660 -0.1036
  563POSM   AM2 6597   0.218  16.464  15.866 -0.2160  0.1476  0.0073
  563POSM   T1A 6598   0.328  16.838  15.577  0.2142  0.0911  0.2229
  563POSM   C2A 6599   0.331  17.068  15.157  0.0555 -0.1761  0.1956
  563POSM   C3A 6600   0.275  17.035  14.670 -0.1110 -0.0617  0.0072
  563POSM   C1B 6601   0.235  16.334  15.543 -0.0545 -0.0104 -0.0047
  563POSM   D2B 6602   0.179  16.494  15.160  0.2049 -0.1178  0.2944
  563POSM   C3B 6603   0.574  16.669  14.933 -0.2732 -0.1199  0.0298
  563POSM   C4B 6604   0.597  16.637  14.448  0.0725  0.0552 -0.1836
  564DOPS   CNO 6605  11.282  14.177  15.256 -0.1135 -0.3190  0.3058
  564DOPS   PO4 6606  11.105  13.868  15.129  0.2301 -0.0234  0.2855
  564DOPS   GL1 6607  11.206  13.589  14.904 -0.5212  0.2005  0.0849
  564DOPS   GL2 6608  11.512  13.526  14.890  0.3424 -0.1868 -0.1687
  564DOPS   C1A 6609  11.175  13.622  14.460 -0.3071  0.1805 -0.1410
  564DOPS   D2A 6610  11.197  13.648  13.998 -0.2072 -0.1679  0.1408
  564DOPS   C3A 6611  11.580  13.872  13.932  0.0839  0.0516  0.0045
  564DOPS   C4A 6612  11.867  14.072  13.605 -0.1660 -0.2585 -0.1233
  564DOPS   C1B 6613  11.649  13.555  14.405  0.2346  0.1139  0.1419
  564DOPS   D2B 6614  12.032  13.474  14.185  0.0137 -0.3490  0.0128
  564DOPS   C3B 6615  12.246  13.189  13.971  0.0831 -0.3220 -0.0897
  564DOPS   C4B 6616  12.023  12.983  13.647  0.4156 -0.0621  0.1352
  565DOPC   NC3 6617   5.942  21.914  16.054 -0.2273  0.1884  0.1579
  565DOPC   PO4 6618   5.604  21.735  16.121  0.2283 -0.1709 -0.0229
  565DOPC   GL1 6619   5.742  21.618  15.784 -0.1506  0.1288  0.1710
  565DOPC   GL2 6620   5.505  21.600  15.578  0.2766 -0.2177 -0.1341
  565DOPC   C1A 6621   5.871  21.327  15.440  0.2160  0.2348 -0.0885
  565DOPC   D2A 6622   5.827  21.037  15.062 -0.1641  0.1864  0.1896
  565DOPC   C3A 6623   5.433  20.901  14.872 -0.0339 -0.0250  0.0109
  565DOPC   C4A 6624   5.102  20.720  14.613 -0.0053 -0.0460  0.1183
  565DOPC   C1B 6625   5.028  21.513  15.517  0.0982  0.1564  0.2510
  565DOPC   D2B 6626   4.702  21.514  15.143 -0.0720  0.0554 -0.2810
  565DOPC   C3B 6627   4.885  21.638  14.687 -0.0084 -0.0719  0.1167
  565DOPC   C4B 6628   4.661  21.769  14.287 -0.1360 -0.1246  0.0966
  566DOPS   CNO 6629   0.077  23.128  16.843  0.1773  0.0218  0.0776
  566DOPS   PO4 6630   0.096  22.772  16.726  0.1433 -0.2103 -0.1655
  566DOPS   GL1 6631  -0.096  22.616  16.308 -0.3844 -0.4097  0.1936
  566DOPS   GL2 6632  -0.440  22.625  16.212  0.2519 -0.0557 -0.1157
  566DOPS   C1A 6633   0.230  22.573  16.045  0.2692  0.0535 -0.3351
  566DOPS   D2A 6634   0.664  22.561  15.888 -0.2045  0.2290  0.0626
  566DOPS   C3A 6635   0.756  22.691  15.395  0.1105  0.1994  0.0904
  566DOPS   C4A 6636   0.788  22.896  14.942 -0.1054 -0.0863  0.0100
  566DOPS   C1B 6637  -0.242  22.899  15.951  0.0174  0.1568 -0.0340
  566DOPS   D2B 6638   0.159  23.032  15.778  0.0618  0.0430  0.0067
  566DOPS   C3B 6639   0.378  23.039  15.312 -0.1008 -0.0504  0.1877
  566DOPS   C4B 6640   0.311  22.896  14.869  0.2396  0.2618  0.2122
  567DOPE   NH3 6641   9.475  20.359  15.487  0.4925 -0.4531 -0.0880
  567DOPE   PO4 6642   9.668  20.583  15.409 -0.1771 -0.2698  0.0571
  567DOPE   GL1 6643   9.507  20.651  15.073 -0.0411 -0.0121  0.3506
  567DOPE   GL2 6644   9.571  20.414  14.953  0.1298  0.0939  0.1246
  567DOPE   C1A 6645   9.701  20.942  14.777 -0.1243 -0.1080 -0.2673
  567DOPE   D2A 6646   9.596  21.120  14.378 -0.2475  0.0115 -0.1024
  567DOPE   C3A 6647   9.961  21.316  14.277  0.1864 -0.1603 -0.2075
  567DOPE   C4A 6648  10.327  21.649  14.339 -0.1667 -0.1005 -0.2016
  567DOPE   C1B 6649   9.243  20.257  14.622  0.2923  0.1545  0.0132
  567DOPE   D2B 6650   9.194  20.324  14.189 -0.0773  0.1948  0.0664
  567DOPE   C3B 6651   9.541  20.406  13.853  0.1815  0.1337  0.0610
  567DOPE   C4B 6652   9.578  20.102  13.487  0.0924  0.2718 -0.1330
  568DOPC   NC3 6653   1.617  18.848  16.516  0.2340 -0.1003 -0.1702
  568DOPC   PO4 6654   1.262  18.688  16.628  0.0945  0.0847  0.1793
  568DOPC   GL1 6655   1.335  18.678  16.207 -0.1588  0.0121  0.0671
  568DOPC   GL2 6656   1.409  18.961  15.977  0.0226  0.0783  0.0480
  568DOPC   C1A 6657   1.290  18.330  15.880 -0.2034 -0.2054 -0.2186
  568DOPC   D2A 6658   1.458  17.914  15.667 -0.3167 -0.1909 -0.0666
  568DOPC   C3A 6659   1.748  17.803  15.331  0.4671 -0.1803  0.1090
  568DOPC   C4A 6660   1.663  17.484  14.987  0.0716 -0.0392 -0.1083
  568DOPC   C1B 6661   1.516  18.709  15.602  0.1976  0.2058 -0.1191
  568DOPC   D2B 6662   1.567  18.320  15.313 -0.2740 -0.0398 -0.0295
  568DOPC   C3B 6663   2.031  18.183  15.344 -0.0214  0.0793  0.0107
  568DOPC   C4B 6664   2.465  18.348  15.521  0.1017  0.1191  0.0686
  569DOPS   CNO 6665  34.352  13.787  16.292 -0.0687 -0.1767 -0.1533
  569DOPS   PO4 6666  34.299  14.131  16.205  0.1099  0.4091 -0.0212
  569DOPS   GL1 6667  34.306  14.160  15.795  0.0752 -0.0088 -0.1550
  569DOPS   GL2 6668  34.491  13.922  15.799 -0.0338 -0.3929 -0.0817
  569DOPS   C1A 6669  34.458  14.293  15.384 -0.2160 -0.0094 -0.3288
  569DOPS   D2A 6670  34.328  14.367  14.988 -0.0541 -0.1950 -0.0475
  569DOPS   C3A 6671  33.968  14.580  14.780  0.1251  0.1411  0.2722
  569DOPS   C4A 6672  33.658  14.748  14.442  0.1429 -0.2935 -0.1171
  569DOPS   C1B 6673  34.495  13.745  15.359  0.1020 -0.0526 -0.0661
  569DOPS   D2B 6674  34.293  13.785  14.965 -0.0334 -0.0398  0.1737
  569DOPS   C3B 6675  33.910  14.003  14.844  0.1937  0.0996  0.2237
  569DOPS   C4B 6676  33.537  14.274  14.719  0.2627  0.2642 -0.2084
  570DOPC   NC3 6677   3.944  13.380  16.050  0.4204 -0.0481 -0.1622
  570DOPC   PO4 6678   3.675  13.657  16.267  0.2736 -0.1739  0.1391
  570DOPC   GL1 6679   3.716  13.777  15.863 -0.2194  0.1273  0.1069
  570DOPC   GL2 6680   3.687  14.059  15.858  0.2388  0.1368 -0.3969
  570DOPC   C1A 6681   3.516  13.829  15.427 -0.0496  0.4778  0.2162
  570DOPC   D2A 6682   3.196  13.742  15.202 -0.1507 -0.1522  0.2317
  570DOPC   C3A 6683   3.198  13.436  14.811 -0.1829  0.0128 -0.0513
  570DOPC   C4A 6684   2.995  13.182  14.491  0.1473  0.1781 -0.0915
  570DOPC   C1B 6685   3.914  14.202  15.538 -0.1601  0.0078 -0.2131
  570DOPC   D2B 6686   4.344  14.108  15.347  0.0819 -0.3577  0.2117
  570DOPC   C3B 6687   4.637  14.201  14.991 -0.1121  0.1637  0.3620
  570DOPC   C4B 6688   5.013  14.372  15.092  0.1326  0.2311  0.1165
  571DOPE   NH3 6689   9.743  19.978  15.318  0.1336  0.0010  0.0401
  571DOPE   PO4 6690  10.036  20.010  15.463  0.0638 -0.2046 -0.1707
  571DOPE   GL1 6691  10.156  20.141  15.090  0.2491 -0.2206  0.1660
  571DOPE   GL2 6692  10.121  20.404  15.151  0.0320 -0.1217 -0.0657
  571DOPE   C1A 6693  10.386  20.218  14.672 -0.0125 -0.2150  0.0034
  571DOPE   D2A 6694  10.228  20.372  14.264 -0.1137  0.0539 -0.0552
  571DOPE   C3A 6695  10.033  20.237  13.904  0.0944 -0.0467 -0.0386
  571DOPE   C4A 6696   9.937  20.580  13.588 -0.2155  0.2622 -0.0080
  571DOPE   C1B 6697  10.151  20.703  14.900 -0.1262  0.1786  0.0054
  571DOPE   D2B 6698  10.129  20.931  14.492  0.0368 -0.1080 -0.1305
  571DOPE   C3B 6699  10.284  20.826  14.048  0.0934 -0.0101 -0.2480
  571DOPE   C4B 6700  10.495  20.534  13.767 -0.0182 -0.3670  0.3168
  572POSM   NC3 6701   7.145  20.847  15.752  0.1674  0.0242 -0.0353
  572POSM   PO4 6702   7.362  20.520  15.693  0.3909 -0.1934  0.3798
  572POSM   AM1 6703   7.248  20.380  15.355  0.2765  0.2558 -0.2966
  572POSM   AM2 6704   7.346  20.390  15.093  0.0575 -0.4244 -0.1208
  572POSM   T1A 6705   6.987  19.997  15.174 -0.1657  0.1866  0.1964
  572POSM   C2A 6706   6.655  19.681  15.159 -0.0296 -0.0844 -0.1065
  572POSM   C3A 6707   6.260  19.477  15.280 -0.3188 -0.2971  0.0906
  572POSM   C1B 6708   7.192  20.535  14.874 -0.1498 -0.1463 -0.2499
  572POSM   D2B 6709   6.882  20.745  14.632 -0.0258  0.0221 -0.0365
  572POSM   C3B 6710   6.844  21.212  14.529 -0.1064 -0.2175 -0.1426
  572POSM   C4B 6711   6.576  21.575  14.664 -0.2779 -0.0426 -0.1930
  573DOPE   NH3 6712   5.372  20.893  16.328 -0.0484 -0.4060 -0.0140
  573DOPE   PO4 6713   5.119  20.759  16.461  0.1007  0.1412  0.1033
  573DOPE   GL1 6714   4.924  20.871  16.212  0.4844 -0.0027  0.1445
  573DOPE   GL2 6715   4.843  20.632  16.042  0.0781 -0.0344 -0.0224
  573DOPE   C1A 6716   4.773  21.079  15.850  0.0372  0.3619  0.1876
  573DOPE   D2A 6717   4.677  21.049  15.395  0.1400  0.1971 -0.2289
  573DOPE   C3A 6718   4.874  20.737  15.139 -0.2000 -0.2932  0.3119
  573DOPE   C4A 6719   5.216  20.491  15.026  0.0385 -0.2776  0.1365
  573DOPE   C1B 6720   4.755  20.545  15.588 -0.0696 -0.0661  0.0561
  573DOPE   D2B 6721   4.834  20.242  15.290 -0.1302  0.0100  0.1652
  573DOPE   C3B 6722   4.790  20.343  14.849  0.3194 -0.0267 -0.0273
  573DOPE   C4B 6723   4.586  20.699  14.618 -0.0044  0.2087  0.1158
  574POSM   NC3 6724   7.744  20.391  15.403  0.1213  0.0063 -0.0830
  574POSM   PO4 6725   7.601  20.754  15.331 -0.2984  0.0705  0.2508
  574POSM   AM1 6726   7.634  20.739  15.021 -0.5428 -0.0878 -0.1472
  574POSM   AM2 6727   7.801  20.504  14.916 -0.2960  0.0793 -0.4402
  574POSM   T1A 6728   7.524  20.777  14.511  0.0481 -0.4637  0.0318
  574POSM   C2A 6729   7.612  20.676  14.094  0.0524 -0.0916  0.4682
  574POSM   C3A 6730   7.764  20.968  13.736  0.2649 -0.0875  0.1529
  574POSM   C1B 6731   7.979  20.522  14.641  0.2000  0.1295  0.2500
  574POSM   D2B 6732   8.292  20.682  14.383 -0.1201  0.3531  0.4753
  574POSM   C3B 6733   8.592  20.391  14.138  0.0015 -0.1752 -0.2409
  574POSM   C4B 6734   8.783  20.022  13.915 -0.2335 -0.0816  0.0499
  575DOPC   NC3 6735   8.397  16.782  15.729  0.0363 -0.2748 -0.0166
  575DOPC   PO4 6736   8.064  16.673  15.917  0.1620 -0.2941  0.0790
  575DOPC   GL1 6737   7.751  16.599  15.724  0.3201 -0.0078 -0.1414
  575DOPC   GL2 6738   7.704  16.373  15.698  0.3622  0.2795  0.3585
  575DOPC   C1A 6739   7.700  16.582  15.244 -0.0026 -0.0807  0.0188
  575DOPC   D2A 6740   7.837  16.507  14.800 -0.1182  0.2573 -0.0777
  575DOPC   C3A 6741   8.139  16.175  14.772  0.0451 -0.0033 -0.1350
  575DOPC   C4A 6742   8.278  15.725  14.788 -0.2585 -0.1029  0.0062
  575DOPC   C1B 6743   7.787  16.037  15.314 -0.1085  0.1537  0.0545
  575DOPC   D2B 6744   7.798  15.884  14.868  0.3476  0.4272 -0.1018
  575DOPC   C3B 6745   7.535  15.670  14.557  0.3534  0.1577  0.3940
  575DOPC   C4B 6746   7.312  15.965  14.323  0.2375  0.2839  0.2279
  576DOPE   NH3 6747   6.540  21.484  16.057 -0.0197  0.1398 -0.0668
  576DOPE   PO4 6748   6.430  21.766  16.171 -0.1458 -0.1962  0.2327
  576DOPE   GL1 6749   6.406  22.018  15.893  0.4152  0.1319  0.1095
  576DOPE   GL2 6750   6.612  22.180  15.815 -0.4303 -0.2718 -0.0991
  576DOPE   C1A 6751   6.333  22.066  15.434 -0.0542  0.0540  0.0126
  576DOPE   D2A 6752   6.476  21.819  15.087  0.3005 -0.3196  0.2415
  576DOPE   C3A 6753   6.271  22.100  14.823  0.1370 -0.3452  0.0332
  576DOPE   C4A 6754   6.333  22.048  14.405 -0.0151 -0.2198 -0.0804
  576DOPE   C1B 6755   6.854  22.159  15.425 -0.2751 -0.0674  0.1834
  576DOPE   D2B 6756   6.937  21.969  14.976 -0.1290  0.2527 -0.1000
  576DOPE   C3B 6757   6.842  22.055  14.505  0.0120 -0.2759 -0.2219
  576DOPE   C4B 6758   6.781  22.379  14.210  0.1359 -0.0343 -0.0941
  577POSM   NC3 6759   6.806  12.716  16.212  0.0334  0.0618  0.0657
  577POSM   PO4 6760   6.866  12.359  16.396 -0.1662 -0.3168  0.0910
  577POSM   AM1 6761   6.962  12.218  16.111 -0.2050 -0.1875 -0.7217
  577POSM   AM2 6762   7.141  12.252  15.873 -0.2273  0.2407  0.2789
  577POSM   T1A 6763   7.195  11.743  15.910 -0.5114  0.0350 -0.0124
  577POSM   C2A 6764   7.288  11.404  15.629  0.3396 -0.0426  0.1250
  577POSM   C3A 6765   7.422  11.570  15.205  0.2838  0.2138  0.5048
  577POSM   C1B 6766   7.194  12.250  15.557 -0.1474  0.0059 -0.2143
  577POSM   D2B 6767   7.139  12.025  15.156  0.3287 -0.1122 -0.0603
  577POSM   C3B 6768   7.099  11.838  14.733 -0.1158  0.0735 -0.2588
  577POSM   C4B 6769   7.023  11.828  14.293 -0.1041  0.2661  0.0935
  578DOPE   NH3 6770   9.502  22.078  15.127 -0.0662 -0.2115  0.1432
  578DOPE   PO4 6771   9.666  21.817  15.054  0.1858 -0.3002 -0.0496
  578DOPE   GL1 6772   9.524  21.851  14.710 -0.3486 -0.0494 -0.2104
  578DOPE   GL2 6773   9.772  21.699  14.508 -0.1369 -0.1972 -0.2056
  578DOPE   C1A 6774   9.297  21.543  14.408 -0.2203  0.1793 -0.2185
  578DOPE   D2A 6775   9.459  21.449  13.959  0.1585  0.0979 -0.0716
  578DOPE   C3A 6776   9.134  21.465  13.650 -0.0453 -0.0063 -0.1737
  578DOPE   C4A 6777   8.728  21.589  13.480  0.0314  0.1471  0.1149
  578DOPE   C1B 6778   9.678  21.982  14.118 -0.3234 -0.0917 -0.2005
  578DOPE   D2B 6779   9.692  21.983  13.686  0.0959 -0.3818  0.2296
  578DOPE   C3B 6780   9.801  22.421  13.577  0.0395 -0.1141 -0.0191
  578DOPE   C4B 6781   9.891  22.747  13.268  0.0067  0.1062  0.0451
  579DOPE   NH3 6782   0.241  14.741  16.003  0.0153 -0.0476  0.1927
  579DOPE   PO4 6783   0.042  14.946  16.027  0.3948 -0.1535  0.1330
  579DOPE   GL1 6784   0.248  15.099  15.675 -0.0768  0.2117 -0.4481
  579DOPE   GL2 6785   0.100  14.892  15.510  0.2624  0.1546  0.1267
  579DOPE   C1A 6786   0.459  15.488  15.531  0.1993  0.0363  0.0968
  579DOPE   D2A 6787   0.557  15.868  15.270  0.0557  0.2069 -0.0321
  579DOPE   C3A 6788   0.275  16.023  14.969  0.0046  0.0396  0.0413
  579DOPE   C4A 6789   0.167  16.393  14.688  0.0619  0.2765 -0.0408
  579DOPE   C1B 6790   0.526  14.933  15.269 -0.0282 -0.0612 -0.2885
  579DOPE   D2B 6791   0.911  15.112  15.268 -0.2405 -0.3399  0.1510
  579DOPE   C3B 6792   1.241  15.035  14.928  0.0709 -0.0346  0.2110
  579DOPE   C4B 6793   1.536  15.096  14.540 -0.1280 -0.0082  0.0903
  580DOPE   NH3 6794   7.819  17.936  16.242  0.1051 -0.1369 -0.0862
  580DOPE   PO4 6795   7.902  18.070  15.959  0.0538  0.1097 -0.1973
  580DOPE   GL1 6796   7.990  18.122  15.642  0.3742 -0.0492 -0.2906
  580DOPE   GL2 6797   8.025  17.890  15.459 -0.3340  0.2005  0.1468
  580DOPE   C1A 6798   8.080  18.455  15.324  0.0937  0.2181  0.2169
  580DOPE   D2A 6799   8.049  18.705  14.969 -0.1244 -0.1722  0.0337
  580DOPE   C3A 6800   7.965  18.798  14.527  0.1291  0.0212 -0.0049
  580DOPE   C4A 6801   7.795  19.113  14.259 -0.1448  0.0617  0.0529
  580DOPE   C1B 6802   8.199  17.913  15.056 -0.0107 -0.1836  0.0201
  580DOPE   D2B 6803   8.339  17.950  14.636 -0.3606  0.3097 -0.5256
  580DOPE   C3B 6804   8.445  17.971  14.221  0.1844 -0.0860  0.1445
  580DOPE   C4B 6805   8.468  18.209  13.862 -0.0947  0.0976  0.1146
  581DOPE   NH3 6806   1.951  12.869  16.362  0.1469  0.0495 -0.2179
  581DOPE   PO4 6807   1.803  12.661  16.196  0.2500  0.0072 -0.0121
  581DOPE   GL1 6808   1.497  12.607  15.968 -0.1486  0.1504 -0.2734
  581DOPE   GL2 6809   1.661  12.454  15.727  0.0260  0.0124  0.1240
  581DOPE   C1A 6810   1.198  12.279  15.835  0.1426 -0.3940  0.1086
  581DOPE   D2A 6811   0.777  12.001  15.783 -0.0822 -0.2970  0.2785
  581DOPE   C3A 6812   0.497  11.911  15.414 -0.1304  0.0081 -0.0686
  581DOPE   C4A 6813   0.239  11.936  15.047  0.0259  0.2922 -0.3066
  581DOPE   C1B 6814   1.569  12.366  15.264  0.0760  0.2948  0.4271
  581DOPE   D2B 6815   1.345  12.343  14.858 -0.0741  0.4336  0.2423
  581DOPE   C3B 6816   1.364  11.883  14.718  0.1311 -0.1148 -0.0830
  581DOPE   C4B 6817   1.714  11.748  14.477  0.1078 -0.0249 -0.1875
  582POSM   NC3 6818   9.299  13.220  15.541 -0.3619 -0.0254  0.3193
  582POSM   PO4 6819   9.348  13.530  15.760  0.1285  0.0078 -0.0238
  582POSM   AM1 6820   9.285  13.837  15.597  0.2357 -0.2180  0.0276
  582POSM   AM2 6821   9.167  14.059  15.497  0.0525 -0.5089  0.2975
  582POSM   T1A 6822   9.626  14.018  15.312  0.0759 -0.2163 -0.1490
  582POSM   C2A 6823   9.666  14.406  15.142  0.1173  0.1801 -0.3818
  582POSM   C3A 6824   9.422  14.669  14.868  0.2085 -0.0814 -0.1251
  582POSM   C1B 6825   9.168  14.178  15.147  0.0279  0.1439 -0.1366
  582POSM   D2B 6826   9.156  14.089  14.742  0.2709 -0.3678  0.0376
  582POSM   C3B 6827   9.086  14.399  14.374 -0.0068  0.1491 -0.0594
  582POSM   C4B 6828   8.893  14.834  14.336 -0.0627  0.0125  0.1044
  583DOPE   NH3 6829   8.960  20.414  15.689 -0.0037  0.2463  0.0914
  583DOPE   PO4 6830   9.141  20.223  15.878  0.1213  0.0307 -0.0748
  583DOPE   GL1 6831   9.001  19.910  15.557  0.1357 -0.2229 -0.1485
  583DOPE   GL2 6832   9.065  20.103  15.285  0.0366 -0.1144 -0.2025
  583DOPE   C1A 6833   8.946  19.663  15.179  0.0352  0.1189  0.4096
  583DOPE   D2A 6834   8.796  19.323  14.871  0.2810 -0.3611 -0.3289
  583DOPE   C3A 6835   8.463  19.076  14.891 -0.1727  0.2802  0.3068
  583DOPE   C4A 6836   8.270  18.972  15.293  0.1708  0.0448 -0.0384
  583DOPE   C1B 6837   8.879  20.071  14.915 -0.3342  0.3795 -0.0998
  583DOPE   D2B 6838   8.883  19.772  14.555 -0.0722  0.0662 -0.5617
  583DOPE   C3B 6839   9.111  19.737  14.191  0.2415 -0.2133  0.2721
  583DOPE   C4B 6840   9.199  19.567  13.769 -0.0504  0.0788 -0.3151
  584DOPE   NH3 6841   8.415  22.343  15.571  0.0209 -0.0476  0.1630
  584DOPE   PO4 6842   8.709  22.210  15.442 -0.3831 -0.4822  0.1413
  584DOPE   GL1 6843   8.781  22.486  15.179  0.0304 -0.0321 -0.5428
  584DOPE   GL2 6844   9.050  22.519  15.174 -0.1207 -0.3027  0.0483
  584DOPE   C1A 6845   8.669  22.663  14.803  0.2794  0.0815 -0.1232
  584DOPE   D2A 6846   8.688  22.556  14.350 -0.3515 -0.0219 -0.0314
  584DOPE   C3A 6847   9.146  22.539  14.181 -0.0551  0.0818  0.0252
  584DOPE   C4A 6848   9.455  22.344  13.890 -0.2668  0.1610  0.2286
  584DOPE   C1B 6849   9.518  22.655  15.133  0.1688 -0.2078 -0.3590
  584DOPE   D2B 6850   9.828  22.892  14.935  0.0273 -0.1790  0.1902
  584DOPE   C3B 6851  10.071  23.277  14.936 -0.0254  0.2117  0.1158
  584DOPE   C4B 6852   9.967  23.752  14.890  0.1366 -0.0291 -0.1049
  585POSM   NC3 6853   8.071  15.985  15.923  0.1786 -0.0277 -0.0664
  585POSM   PO4 6854   8.307  15.680  16.037  0.0852  0.0808  0.2942
  585POSM   AM1 6855   8.232  15.584  15.698  0.2921  0.3234  0.2674
  585POSM   AM2 6856   8.080  15.699  15.502 -0.1132  0.0731  0.0918
  585POSM   T1A 6857   8.386  15.269  15.310 -0.0234 -0.1117 -0.1832
  585POSM   C2A 6858   8.544  15.339  14.888  0.2052 -0.1128 -0.0956
  585POSM   C3A 6859   8.925  15.302  14.558  0.2099 -0.1461 -0.0845
  585POSM   C1B 6860   8.013  15.571  15.201  0.1377 -0.0299 -0.3598
  585POSM   D2B 6861   7.997  15.328  14.833 -0.2612 -0.0555  0.4707
  585POSM   C3B 6862   7.981  15.515  14.433  0.0655  0.3009 -0.1406
  585POSM   C4B 6863   7.640  15.447  14.024  0.1113  0.0869  0.2371
  586DOPC   NC3 6864   3.521  19.870  16.341  0.0560  0.1945 -0.0113
  586DOPC   PO4 6865   3.283  19.534  16.505  0.2597  0.2055 -0.2822
  586DOPC   GL1 6866   3.189  19.625  16.141  0.0823  0.0388 -0.2637
  586DOPC   GL2 6867   3.043  19.841  16.010  0.0723 -0.1281 -0.5378
  586DOPC   C1A 6868   3.177  19.443  15.731  0.0498 -0.2134 -0.1426
  586DOPC   D2A 6869   2.858  19.477  15.456  0.1252  0.3338  0.0281
  586DOPC   C3A 6870   2.825  19.434  15.035  0.0360 -0.1555  0.0930
  586DOPC   C4A 6871   2.571  19.482  14.591  0.0416 -0.0406 -0.1198
  586DOPC   C1B 6872   3.098  19.926  15.529  0.3457 -0.3619 -0.1583
  586DOPC   D2B 6873   3.210  19.764  15.163  0.4331  0.0408  0.2181
  586DOPC   C3B 6874   3.092  19.808  14.681 -0.3028  0.0928 -0.2077
  586DOPC   C4B 6875   2.866  19.723  14.333 -0.1575  0.0067 -0.1994
  587DOPE   NH3 6876   1.975  13.851  15.880 -0.1001 -0.0062 -0.1443
  587DOPE   PO4 6877   1.665  13.985  15.708 -0.0487  0.2108  0.0437
  587DOPE   GL1 6878   1.792  14.237  15.392 -0.1663 -0.0669  0.0875
  587DOPE   GL2 6879   2.023  14.357  15.321  0.3078  0.3550 -0.0349
  587DOPE   C1A 6880   1.766  14.188  14.907  0.2425 -0.1514  0.1174
  587DOPE   D2A 6881   2.019  14.227  14.498 -0.2179  0.2509  0.2020
  587DOPE   C3A 6882   1.843  14.033  14.078 -0.2611  0.2468 -0.2946
  587DOPE   C4A 6883   1.880  14.025  13.629  0.2380  0.0164  0.2313
  587DOPE   C1B 6884   2.150  14.506  14.870 -0.2370 -0.0562  0.3340
  587DOPE   D2B 6885   2.338  14.659  14.457  0.0221  0.0289 -0.1503
  587DOPE   C3B 6886   2.508  14.287  14.296 -0.2544  0.1181 -0.0225
  587DOPE   C4B 6887   2.765  13.919  14.208  0.3684  0.1716  0.1744
  588DOPC   NC3 6888  10.219  17.490  15.440  0.2152  0.0201  0.4132
  588DOPC   PO4 6889  10.241  17.113  15.408  0.1293  0.3087  0.0158
  588DOPC   GL1 6890  10.081  17.205  15.048 -0.1287  0.3142 -0.0541
  588DOPC   GL2 6891  10.170  16.920  14.896  0.0056 -0.0016 -0.0047
  588DOPC   C1A 6892   9.968  17.347  14.614  0.2975 -0.2631 -0.0603
  588DOPC   D2A 6893   9.685  17.369  14.266 -0.0797  0.2255  0.0858
  588DOPC   C3A 6894   9.572  17.074  13.882  0.1915  0.0088  0.0215
  588DOPC   C4A 6895   9.773  16.760  13.605 -0.2993 -0.1867  0.2586
  588DOPC   C1B 6896  10.249  16.926  14.459 -0.1627 -0.2109 -0.1763
  588DOPC   D2B 6897  10.204  16.832  13.978 -0.0833  0.3774  0.2163
  588DOPC   C3B 6898  10.282  16.627  13.539 -0.0312 -0.1184 -0.0062
  588DOPC   C4B 6899  10.630  16.679  13.191 -0.0453 -0.0431  0.0693
  589POSM   NC3 6900   0.488  11.634  16.526  0.2953 -0.1300 -0.2950
  589POSM   PO4 6901   0.796  11.576  16.292  0.0525  0.1975  0.3581
  589POSM   AM1 6902   0.852  11.462  15.971 -0.3761 -0.2376  0.3490
  589POSM   AM2 6903   0.699  11.479  15.733 -0.0929 -0.3040  0.1799
  589POSM   T1A 6904   1.115  11.570  15.543  0.0840 -0.2603 -0.1124
  589POSM   C2A 6905   0.978  11.847  15.131  0.0378 -0.2034  0.1256
  589POSM   C3A 6906   0.697  12.098  14.920 -0.0020  0.0990 -0.1796
  589POSM   C1B 6907   0.662  11.454  15.406 -0.0721 -0.0912 -0.0147
  589POSM   D2B 6908   0.577  11.551  14.952  0.2694 -0.0228 -0.0231
  589POSM   C3B 6909   0.770  11.311  14.586  0.0753  0.0797 -0.2368
  589POSM   C4B 6910   1.116  10.981  14.582  0.3986 -0.3404 -0.2982
  590DOPE   NH3 6911   8.179  14.264  16.026 -0.0023 -0.3166 -0.0846
  590DOPE   PO4 6912   8.484  14.257  15.928  0.4304  0.0824  0.1856
  590DOPE   GL1 6913   8.635  14.078  15.537  0.1311 -0.1532 -0.0772
  590DOPE   GL2 6914   8.578  14.316  15.410 -0.3888 -0.0554 -0.0045
  590DOPE   C1A 6915   8.748  13.916  15.121 -0.2272  0.1764  0.3414
  590DOPE   D2A 6916   8.754  13.774  14.696 -0.0464  0.0542 -0.2968
  590DOPE   C3A 6917   8.304  13.801  14.687 -0.0913 -0.1129 -0.1330
  590DOPE   C4A 6918   7.958  14.128  14.683 -0.1413 -0.0868 -0.2451
  590DOPE   C1B 6919   8.512  14.758  15.230  0.0240 -0.1483  0.0079
  590DOPE   D2B 6920   8.151  14.940  15.042 -0.1667  0.1292  0.1583
  590DOPE   C3B 6921   7.980  14.670  14.675  0.1369  0.0437  0.4337
  590DOPE   C4B 6922   8.099  14.581  14.194 -0.0882  0.0549 -0.1597
  591DOPE   NH3 6923   9.979  15.896  15.715 -0.1561  0.0488  0.0989
  591DOPE   PO4 6924   9.867  15.640  15.617 -0.1378 -0.2891  0.1345
  591DOPE   GL1 6925   9.777  15.742  15.287 -0.1245  0.0146  0.1443
  591DOPE   GL2 6926   9.574  15.665  15.078 -0.1513 -0.0312  0.0797
  591DOPE   C1A 6927  10.001  15.867  14.878  0.0346  0.0412 -0.0993
  591DOPE   D2A 6928  10.003  15.977  14.383  0.2813 -0.2195 -0.4871
  591DOPE   C3A 6929  10.090  15.738  13.975  0.1650 -0.0701 -0.0310
  591DOPE   C4A 6930  10.105  15.429  13.667 -0.0243  0.1279  0.2946
  591DOPE   C1B 6931   9.405  15.369  14.771 -0.3632  0.0174 -0.0056
  591DOPE   D2B 6932   9.375  15.170  14.359  0.0986 -0.0547 -0.1752
  591DOPE   C3B 6933   9.027  15.281  14.089 -0.1484 -0.0554  0.1014
  591DOPE   C4B 6934   8.732  14.988  13.855 -0.0980  0.0886  0.1177
  592POSM   NC3 6935   4.478  12.968  16.474  0.0299 -0.0899 -0.0338
  592POSM   PO4 6936   4.114  12.961  16.318 -0.2060  0.0890 -0.1857
  592POSM   AM1 6937   4.071  12.854  16.012 -0.1078 -0.0351 -0.2282
  592POSM   AM2 6938   4.082  12.588  15.876  0.0334 -0.1570 -0.1305
  592POSM   T1A 6939   4.002  12.914  15.532 -0.2797  0.1781  0.0240
  592POSM   C2A 6940   3.943  13.007  15.061  0.1494 -0.4352 -0.0288
  592POSM   C3A 6941   4.039  13.080  14.612 -0.0522 -0.1332 -0.3218
  592POSM   C1B 6942   4.171  12.407  15.591  0.0277  0.2388 -0.0529
  592POSM   D2B 6943   4.247  12.273  15.195  0.3263 -0.1929  0.1344
  592POSM   C3B 6944   3.960  11.951  15.039 -0.2733 -0.1322 -0.2970
  592POSM   C4B 6945   4.057  11.783  14.629 -0.0782 -0.0429  0.0689
  593DOPS   CNO 6946   7.867  12.843  16.353 -0.1140  0.0412 -0.0419
  593DOPS   PO4 6947   7.978  13.008  16.015  0.1501  0.0791 -0.2784
  593DOPS   GL1 6948   8.022  13.210  15.670  0.0843  0.1879  0.0719
  593DOPS   GL2 6949   7.816  13.424  15.693 -0.2484 -0.1247  0.0688
  593DOPS   C1A 6950   8.031  13.154  15.224 -0.0582 -0.2341  0.2296
  593DOPS   D2A 6951   7.886  13.059  14.712 -0.0349 -0.2421 -0.2261
  593DOPS   C3A 6952   7.477  13.174  14.403 -0.1402  0.4255 -0.2856
  593DOPS   C4A 6953   7.045  12.995  14.322  0.1113 -0.1057  0.0813
  593DOPS   C1B 6954   7.610  13.455  15.277  0.1440  0.1138  0.0996
  593DOPS   D2B 6955   7.433  13.260  14.891 -0.3159  0.0145  0.0721
  593DOPS   C3B 6956   7.150  13.523  14.613  0.1613  0.2227 -0.0711
  593DOPS   C4B 6957   7.235  13.897  14.274  0.2312  0.3628  0.0321
  594DOPC   NC3 6958   4.029  22.829  16.254  0.1393 -0.1018  0.0350
  594DOPC   PO4 6959   3.844  22.495  16.428 -0.1135 -0.2199 -0.0672
  594DOPC   GL1 6960   3.712  22.471  15.996 -0.1821  0.0967 -0.4154
  594DOPC   GL2 6961   3.440  22.402  15.911 -0.0556  0.0089  0.0523
  594DOPC   C1A 6962   3.890  22.220  15.665 -0.1564 -0.1471 -0.3333
  594DOPC   D2A 6963   3.894  22.115  15.225 -0.1074 -0.0230  0.3135
  594DOPC   C3A 6964   4.154  22.123  14.844 -0.1134  0.0228  0.1261
  594DOPC   C4A 6965   4.450  22.106  14.543  0.5819  0.3140 -0.3140
  594DOPC   C1B 6966   3.500  22.526  15.440  0.1133 -0.1006 -0.0917
  594DOPC   D2B 6967   3.524  22.983  15.321  0.0228  0.4602  0.1409
  594DOPC   C3B 6968   3.913  23.215  15.369 -0.0682  0.1975  0.2477
  594DOPC   C4B 6969   4.203  23.459  15.137 -0.1806 -0.0701 -0.2044
  595POSM   NC3 6970   4.933  16.535  16.454 -0.0090  0.1394 -0.1611
  595POSM   PO4 6971   4.929  16.909  16.612  0.1182 -0.0159 -0.1103
  595POSM   AM1 6972   4.955  16.985  16.297  0.2892  0.1660 -0.2280
  595POSM   AM2 6973   4.807  17.153  16.130 -0.1139  0.1622 -0.0790
  595POSM   T1A 6974   5.014  16.719  15.937  0.1838  0.1279  0.2689
  595POSM   C2A 6975   5.123  16.235  15.854  0.0552 -0.3566 -0.1383
  595POSM   C3A 6976   5.492  15.990  15.966  0.1610  0.0973 -0.0280
  595POSM   C1B 6977   4.828  17.142  15.760  0.0534  0.3950 -0.1363
  595POSM   D2B 6978   4.820  16.977  15.297 -0.1265 -0.2041  0.0942
  595POSM   C3B 6979   4.765  16.560  15.012  0.0555  0.0248 -0.0879
  595POSM   C4B 6980   4.417  16.380  14.666  0.0347 -0.1900 -0.0454
  596DOPE   NH3 6981   7.469  13.053  16.039  0.0173 -0.0610  0.0572
  596DOPE   PO4 6982   7.236  13.103  16.284 -0.1793 -0.3557  0.1608
  596DOPE   GL1 6983   7.068  13.212  15.879 -0.4220 -0.1660 -0.2107
  596DOPE   GL2 6984   6.912  13.027  15.793 -0.0974  0.0364 -0.0175
  596DOPE   C1A 6985   7.222  13.181  15.430  0.3279 -0.0296  0.1625
  596DOPE   D2A 6986   7.075  13.461  15.117  0.3523 -0.0315 -0.0029
  596DOPE   C3A 6987   6.682  13.473  14.897 -0.1576 -0.0919 -0.1522
  596DOPE   C4A 6988   6.315  13.141  15.044  0.2445 -0.0043 -0.0355
  596DOPE   C1B 6989   6.454  13.106  15.776 -0.2605 -0.0089 -0.2252
  596DOPE   D2B 6990   6.072  13.258  15.613  0.3014 -0.2301 -0.1334
  596DOPE   C3B 6991   5.899  13.381  15.216 -0.0167 -0.1307 -0.1748
  596DOPE   C4B 6992   5.792  13.168  14.848 -0.1671 -0.1555  0.1961
  597DOPS   CNO 6993   5.358  11.676  16.466  0.1378 -0.4383  0.0180
  597DOPS   PO4 6994   5.577  11.507  16.216  0.3727  0.5305  0.0287
  597DOPS   GL1 6995   5.651  11.797  15.924  0.3644  0.0972 -0.1410
  597DOPS   GL2 6996   5.424  11.806  15.848  0.3057  0.4122  0.0680
  597DOPS   C1A 6997   5.857  11.926  15.518 -0.2057  0.2095 -0.2871
  597DOPS   D2A 6998   5.898  11.648  15.176  0.1479 -0.2219 -0.1379
  597DOPS   C3A 6999   5.922  11.747  14.712 -0.0342  0.0256 -0.2936
  597DOPS   C4A 7000   5.760  11.963  14.393  0.1016 -0.1111  0.0190
  597DOPS   C1B 7001   5.434  12.077  15.443  0.0857  0.1200  0.0055
  597DOPS   D2B 7002   5.516  12.492  15.285  0.2774  0.0359 -0.3131
  597DOPS   C3B 7003   5.611  12.672  14.899 -0.1949  0.1164 -0.2151
  597DOPS   C4B 7004   5.611  12.746  14.456  0.0211  0.0623  0.1934
  598DOPS   CNO 7005   6.875  21.128  16.178  0.1312  0.0198 -0.2110
  598DOPS   PO4 7006   6.729  21.023  15.864  0.3366  0.1160 -0.0586
  598DOPS   GL1 7007   6.558  20.867  15.514  0.4127 -0.0298  0.4023
  598DOPS   GL2 7008   6.310  20.725  15.469  0.0639 -0.1013 -0.0382
  598DOPS   C1A 7009   6.403  21.270  15.304  0.0355 -0.0921 -0.1391
  598DOPS   D2A 7010   6.158  21.447  14.909 -0.0818  0.1882 -0.0095
  598DOPS   C3A 7011   6.069  21.661  14.489  0.0051  0.0627 -0.1255
  598DOPS   C4A 7012   6.096  21.736  14.069 -0.0972 -0.0326  0.2724
  598DOPS   C1B 7013   6.271  20.682  14.974 -0.1251 -0.0421 -0.1443
  598DOPS   D2B 7014   6.332  20.586  14.504 -0.0740  0.1426  0.0413
  598DOPS   C3B 7015   6.602  20.833  14.231 -0.0425  0.4312  0.0441
  598DOPS   C4B 7016   7.054  20.989  14.207 -0.2658  0.1598  0.1056
  599DOPE   NH3 7017  10.945  12.214  15.705  0.2503  0.0305  0.0372
  599DOPE   PO4 7018  11.145  11.946  15.763  0.1784 -0.0577 -0.5310
  599DOPE   GL1 7019  11.078  11.779  15.412  0.2560  0.1615 -0.0030
  599DOPE   GL2 7020  10.856  11.908  15.199  0.0795  0.1626  0.1259
  599DOPE   C1A 7021  11.268  11.770  14.978  0.2760 -0.0443 -0.2447
  599DOPE   D2A 7022  11.425  12.047  14.655 -0.1756  0.1423  0.0537
  599DOPE   C3A 7023  11.253  12.139  14.191  0.1180  0.0430  0.0117
  599DOPE   C4A 7024  11.310  11.877  13.856  0.2949  0.3179  0.0523
  599DOPE   C1B 7025  10.934  11.406  15.108 -0.2006 -0.1819 -0.0187
  599DOPE   D2B 7026  11.198  11.272  14.823  0.1990  0.0932 -0.1064
  599DOPE   C3B 7027  11.243  11.558  14.464  0.0706  0.1038 -0.0863
  599DOPE   C4B 7028  10.911  11.782  14.276 -0.2974  0.0373  0.1518
  600DOPC   NC3 7029   7.343  14.744  16.026  0.0138  0.1012 -0.0276
  600DOPC   PO4 7030   7.387  14.544  16.349  0.0700 -0.0679  0.0925
  600DOPC   GL1 7031   7.088  14.402  16.218 -0.1384  0.5481 -0.0906
  600DOPC   GL2 7032   7.029  14.205  16.073 -0.1282  0.0858 -0.1003
  600DOPC   C1A 7033   6.692  14.505  15.987 -0.2174  0.2899  0.0313
  600DOPC   D2A 7034   6.278  14.340  15.849  0.1473  0.3728  0.0901
  600DOPC   C3A 7035   6.257  13.972  15.577  0.0788  0.1246 -0.3237
  600DOPC   C4A 7036   6.385  13.573  15.323 -0.1167 -0.0030  0.0582
  600DOPC   C1B 7037   6.693  13.932  15.967  0.2477  0.2331 -0.2583
  600DOPC   D2B 7038   6.439  13.580  15.950  0.0902  0.0556 -0.0228
  600DOPC   C3B 7039   5.960  13.662  15.867  0.0850 -0.1898  0.2190
  600DOPC   C4B 7040   5.567  13.433  15.748 -0.1273 -0.5143  0.3449
  601DOPS   CNO 7041   9.792  17.797  15.670 -0.0090 -0.3057  0.0517
  601DOPS   PO4 7042  10.149  17.865  15.680 -0.1827  0.1575 -0.0542
  601DOPS   GL1 7043  10.187  17.935  15.267 -0.2014  0.2242 -0.2680
  601DOPS   GL2 7044   9.945  17.797  15.124 -0.0808  0.0868  0.0321
  601DOPS   C1A 7045  10.444  17.790  14.939  0.0086 -0.1442  0.0796
  601DOPS   D2A 7046  10.465  17.382  14.735  0.0871 -0.1684  0.0544
  601DOPS   C3A 7047  10.700  17.362  14.367 -0.0046 -0.2779  0.1832
  601DOPS   C4A 7048  10.639  16.985  14.124  0.0126  0.3052  0.1097
  601DOPS   C1B 7049  10.131  18.134  14.861  0.1451  0.1039  0.0095
  601DOPS   D2B 7050  10.273  18.584  14.696 -0.0533 -0.1841 -0.0604
  601DOPS   C3B 7051  10.721  18.624  14.526 -0.2125 -0.0012  0.0015
  601DOPS   C4B 7052  10.937  18.464  14.229  0.0632 -0.0687 -0.0551
  602DOPE   NH3 7053   3.409  21.964  16.583 -0.0032 -0.1290  0.5061
  602DOPE   PO4 7054   3.408  22.173  16.347 -0.3998  0.1790  0.0349
  602DOPE   GL1 7055   3.433  21.966  16.125  0.0983  0.0404  0.1444
  602DOPE   GL2 7056   3.168  21.945  15.982 -0.2030 -0.1316  0.3415
  602DOPE   C1A 7057   3.636  21.680  15.763  0.0336 -0.0637 -0.0834
  602DOPE   D2A 7058   3.999  21.525  15.523  0.0204 -0.0678 -0.0315
  602DOPE   C3A 7059   4.240  21.202  15.235 -0.2777  0.1298  0.1366
  602DOPE   C4A 7060   4.487  21.126  14.863 -0.0854  0.1319 -0.3902
  602DOPE   C1B 7061   3.228  21.499  16.026  0.1024 -0.1856 -0.4424
  602DOPE   D2B 7062   3.425  21.103  16.022  0.0678 -0.2465 -0.0714
  602DOPE   C3B 7063   3.137  21.008  15.706 -0.1180 -0.0167  0.0487
  602DOPE   C4B 7064   2.762  21.166  15.471 -0.2942  0.0226 -0.1322
  603DOPE   NH3 7065   8.237  20.213  15.681  0.0001 -0.0614 -0.1548
  603DOPE   PO4 7066   8.528  20.181  15.528 -0.2183  0.1632 -0.0827
  603DOPE   GL1 7067   8.452  19.888  15.272 -0.3085  0.1212  0.1761
  603DOPE   GL2 7068   8.516  19.594  15.405  0.3961 -0.3186  0.2499
  603DOPE   C1A 7069   8.457  19.671  14.809 -0.0323 -0.1460  0.0087
  603DOPE   D2A 7070   8.563  19.414  14.424 -0.1714 -0.1704  0.1170
  603DOPE   C3A 7071   8.581  18.936  14.341  0.0619  0.3578 -0.1591
  603DOPE   C4A 7072   8.769  18.523  14.241  0.2530  0.3640  0.0312
  603DOPE   C1B 7073   8.136  19.479  15.208 -0.1391 -0.0613  0.0100
  603DOPE   D2B 7074   7.916  19.171  14.996 -0.0221 -0.0344 -0.0554
  603DOPE   C3B 7075   8.152  19.318  14.619 -0.0378 -0.1627 -0.2869
  603DOPE   C4B 7076   8.136  19.418  14.161 -0.2442  0.0799  0.1326
  604DOPE   NH3 7077   7.195  16.832  16.391  0.5432 -0.3587 -0.3345
  604DOPE   PO4 7078   7.076  16.539  16.313  0.1845 -0.0500  0.2195
  604DOPE   GL1 7079   7.049  16.286  15.937 -0.0301  0.0281  0.0428
  604DOPE   GL2 7080   6.783  16.493  15.941 -0.0481  0.2586 -0.2442
  604DOPE   C1A 7081   6.788  16.162  15.592 -0.1972  0.3940  0.0686
  604DOPE   D2A 7082   6.716  15.994  15.166  0.0697  0.0856  0.2579
  604DOPE   C3A 7083   6.453  15.606  14.986  0.1818 -0.0131 -0.1607
  604DOPE   C4A 7084   6.240  15.214  15.050  0.0530  0.2259  0.2916
  604DOPE   C1B 7085   6.393  16.557  15.692 -0.3292  0.1519 -0.1886
  604DOPE   D2B 7086   6.203  16.333  15.307 -0.5508  0.1030  0.2840
  604DOPE   C3B 7087   6.068  16.612  15.019  0.0646  0.0845  0.0749
  604DOPE   C4B 7088   6.195  16.990  14.770 -0.1929  0.3215  0.0436
  605DOPC   NC3 7089  10.228  21.799  15.581 -0.0883 -0.2102 -0.2086
  605DOPC   PO4 7090  10.342  21.859  15.955 -0.1413 -0.0759 -0.2982
  605DOPC   GL1 7091  10.586  22.062  15.756  0.1555  0.1380 -0.1875
  605DOPC   GL2 7092  10.495  22.329  15.633 -0.1402  0.2503 -0.3310
  605DOPC   C1A 7093  10.983  22.131  15.531  0.3258 -0.0458  0.2373
  605DOPC   D2A 7094  11.138  22.328  15.142  0.4417  0.3657 -0.0335
  605DOPC   C3A 7095  10.923  22.333  14.693  0.0855  0.2777 -0.1244
  605DOPC   C4A 7096  11.007  22.271  14.275  0.2378 -0.0430  0.0783
  605DOPC   C1B 7097  10.643  22.335  15.149 -0.0530 -0.0200  0.1016
  605DOPC   D2B 7098  10.416  22.367  14.737  0.1397 -0.0951 -0.1303
  605DOPC   C3B 7099  10.542  22.528  14.295 -0.0865  0.2766  0.1336
  605DOPC   C4B 7100  10.399  22.557  13.829  0.2098  0.0384 -0.1448
  606POSM   NC3 7101   2.102  18.691  16.358 -0.3401  0.1730 -0.1050
  606POSM   PO4 7102   2.245  18.346  16.507 -0.1599  0.2150  0.2733
  606POSM   AM1 7103   2.265  18.238  16.191  0.0836  0.0161 -0.1450
  606POSM   AM2 7104   2.111  18.251  15.947  0.1546 -0.3986 -0.3864
  606POSM   T1A 7105   2.458  17.922  15.843  0.3467 -0.0929 -0.0788
  606POSM   C2A 7106   2.264  17.648  15.507  0.0876  0.0873 -0.0045
  606POSM   C3A 7107   2.152  17.396  15.082  0.1276  0.0184 -0.1181
  606POSM   C1B 7108   1.929  17.988  15.810  0.2204  0.1357  0.0322
  606POSM   D2B 7109   1.826  17.523  15.706 -0.1296  0.1020 -0.0377
  606POSM   C3B 7110   1.571  17.264  15.455 -0.4043 -0.0080 -0.1684
  606POSM   C4B 7111   1.541  16.820  15.506 -0.1770  0.0891 -0.0757
  607POSM   NC3 7112   0.114  21.445  16.496  0.0770  0.1911  0.1236
  607POSM   PO4 7113  -0.220  21.292  16.312  0.0796 -0.2436  0.2609
  607POSM   AM1 7114  -0.252  21.384  16.006  0.1261  0.0046 -0.1406
  607POSM   AM2 7115  -0.303  21.232  15.793  0.3654 -0.3338 -0.3371
  607POSM   T1A 7116  -0.227  21.701  15.643  0.1590 -0.0128  0.1174
  607POSM   C2A 7117   0.061  22.069  15.703 -0.1428 -0.1487  0.0084
  607POSM   C3A 7118   0.260  22.483  15.536  0.2675 -0.2150 -0.1713
  607POSM   C1B 7119  -0.062  21.268  15.558  0.1624 -0.0224 -0.2488
  607POSM   D2B 7120   0.145  21.328  15.222 -0.1123 -0.1356  0.0789
  607POSM   C3B 7121   0.132  21.526  14.783  0.2424 -0.0081  0.2133
  607POSM   C4B 7122   0.229  21.582  14.360  0.1376  0.3870  0.1120
  608DOPC   NC3 7123   5.285  15.661  16.416  0.2288  0.2106  0.0697
  608DOPC   PO4 7124   5.219  15.400  16.701  0.0388 -0.0403 -0.1125
  608DOPC   GL1 7125   5.264  15.064  16.474 -0.5327  0.1078 -0.1324
  608DOPC   GL2 7126   5.104  15.216  16.244  0.2601 -0.3234 -0.0330
  608DOPC   C1A 7127   5.474  14.976  16.101  0.1133  0.1713 -0.0803
  608DOPC   D2A 7128   5.237  14.806  15.736  0.0619 -0.1469 -0.1492
  608DOPC   C3A 7129   4.886  15.133  15.769  0.0798 -0.0423 -0.0036
  608DOPC   C4A 7130   4.524  14.980  15.559 -0.1086 -0.1722  0.1387
  608DOPC   C1B 7131   5.291  15.497  15.933 -0.0090 -0.2607 -0.3714
  608DOPC   D2B 7132   5.582  15.624  15.606 -0.0167 -0.1016  0.1503
  608DOPC   C3B 7133   5.404  16.060  15.426  0.1828  0.2435 -0.2063
  608DOPC   C4B 7134   5.164  16.457  15.340  0.2626  0.3076 -0.2705
  609DOPC   NC3 7135   7.460  16.264  16.210  0.0561 -0.0543 -0.1388
  609DOPC   PO4 7136   7.544  16.615  16.111 -0.0299 -0.0335 -0.2322
  609DOPC   GL1 7137   7.330  16.646  15.848 -0.1101  0.1105  0.2052
  609DOPC   GL2 7138   7.115  16.857  15.887 -0.4972 -0.0523 -0.0291
  609DOPC   C1A 7139   7.204  16.655  15.368  0.0796  0.1565 -0.2795
  609DOPC   D2A 7140   7.126  16.733  14.931 -0.3192 -0.3203  0.2569
  609DOPC   C3A 7141   7.364  16.781  14.591 -0.1985 -0.0696  0.0828
  609DOPC   C4A 7142   7.476  16.451  14.298 -0.0151 -0.1926 -0.3002
  609DOPC   C1B 7143   6.788  16.869  15.583  0.2415 -0.1187 -0.0404
  609DOPC   D2B 7144   6.690  16.518  15.274 -0.0190 -0.0235 -0.0173
  609DOPC   C3B 7145   6.492  16.461  14.865 -0.1285  0.2484  0.0800
  609DOPC   C4B 7146   6.084  16.294  14.620  0.0687 -0.3247 -0.1160
  610DOPS   CNO 7147   1.275  20.077  16.721 -0.2052  0.0879  0.3069
  610DOPS   PO4 7148   1.276  20.226  16.380 -0.3467 -0.1147  0.0198
  610DOPS   GL1 7149   1.188  20.489  16.135  0.2073  0.0821  0.0525
  610DOPS   GL2 7150   1.018  20.404  15.905  0.5961  0.1130 -0.1031
  610DOPS   C1A 7151   1.415  20.803  15.851 -0.0260  0.0629  0.0151
  610DOPS   D2A 7152   1.412  20.862  15.419  0.0148  0.1979 -0.2103
  610DOPS   C3A 7153   1.751  21.031  15.176  0.0562 -0.1814  0.1886
  610DOPS   C4A 7154   1.793  21.368  14.805 -0.2955  0.0352 -0.3346
  610DOPS   C1B 7155   1.129  20.413  15.479 -0.2414 -0.1845 -0.3644
  610DOPS   D2B 7156   1.497  20.337  15.208  0.0546  0.1005  0.0181
  610DOPS   C3B 7157   1.565  19.940  14.957 -0.1899  0.0284  0.0585
  610DOPS   C4B 7158   1.532  19.590  14.659  0.0851 -0.0894 -0.0440
  611DOPE   NH3 7159   8.347  12.668  16.143  0.2484  0.2055 -0.3435
  611DOPE   PO4 7160   8.210  12.431  15.990  0.1133  0.0801 -0.3753
  611DOPE   GL1 7161   7.876  12.318  15.796  0.0072 -0.0879 -0.0823
  611DOPE   GL2 7162   7.654  12.536  15.849  0.1714  0.3285  0.2920
  611DOPE   C1A 7163   7.666  12.396  15.382  0.0534  0.0260 -0.0581
  611DOPE   D2A 7164   7.507  12.368  14.927 -0.3634 -0.0499 -0.1570
  611DOPE   C3A 7165   7.466  12.107  14.515 -0.0139  0.1122  0.0479
  611DOPE   C4A 7166   7.456  12.019  14.056 -0.1645  0.0736 -0.0550
  611DOPE   C1B 7167   7.533  12.816  15.547 -0.2827 -0.2278  0.2125
  611DOPE   D2B 7168   7.480  12.834  15.102  0.3626  0.1276 -0.3272
  611DOPE   C3B 7169   7.318  12.792  14.685  0.2737  0.0692 -0.2009
  611DOPE   C4B 7170   7.461  12.599  14.303 -0.0679 -0.5478 -0.1470
  612DOPS   CNO 7171   8.560  15.920  15.650 -0.0288 -0.0808 -0.0902
  612DOPS   PO4 7172   8.914  15.976  15.748  0.3359  0.1776  0.1714
  612DOPS   GL1 7173   8.752  16.372  15.662  0.1176  0.0034 -0.0212
  612DOPS   GL2 7174   8.659  16.351  15.369 -0.2765  0.0748  0.1002
  612DOPS   C1A 7175   8.799  16.791  15.431 -0.3096 -0.4043  0.0641
  612DOPS   D2A 7176   8.934  17.248  15.365 -0.1819 -0.2441 -0.2353
  612DOPS   C3A 7177   9.097  17.298  14.902 -0.0490 -0.0187  0.2858
  612DOPS   C4A 7178   9.228  17.229  14.500 -0.1872  0.0331  0.2317
  612DOPS   C1B 7179   8.649  16.312  14.908 -0.0104  0.2693  0.1576
  612DOPS   D2B 7180   8.710  15.958  14.615 -0.2876  0.0411 -0.0444
  612DOPS   C3B 7181   8.394  15.843  14.325  0.2611  0.0410 -0.0099
  612DOPS   C4B 7182   8.490  15.506  13.999 -0.3018 -0.2095  0.0958
  613DOPE   NH3 7183  10.235  13.918  12.371  0.0330 -0.0261 -0.0211
  613DOPE   PO4 7184  10.209  13.927  12.033  0.3320 -0.1815 -0.1061
  613DOPE   GL1 7185  10.455  13.644  11.970  0.0270  0.3522  0.2272
  613DOPE   GL2 7186  10.591  13.666  11.734  0.0174 -0.0415 -0.0675
  613DOPE   C1A 7187  10.712  13.273  12.068 -0.1860  0.0289  0.1699
  613DOPE   D2A 7188  10.593  12.874  12.330 -0.0243 -0.0958 -0.2151
  613DOPE   C3A 7189  10.838  12.784  12.728 -0.0677  0.1265 -0.1690
  613DOPE   C4A 7190  11.182  12.487  12.765  0.2590 -0.2484 -0.2276
  613DOPE   C1B 7191  11.025  13.627  11.514  0.2034 -0.0397 -0.0641
  613DOPE   D2B 7192  11.483  13.770  11.609  0.1925 -0.1264  0.0918
  613DOPE   C3B 7193  11.938  13.799  11.407 -0.1325  0.2836 -0.2633
  613DOPE   C4B 7194  12.319  13.933  11.110 -0.0588  0.0566  0.3730
  614DOPS   CNO 7195   0.876  15.335  13.266 -0.1532 -0.4379  0.3160
  614DOPS   PO4 7196   1.193  15.285  13.040  0.0314 -0.0030 -0.2709
  614DOPS   GL1 7197   1.404  15.191  13.368  0.0305  0.2655 -0.0495
  614DOPS   GL2 7198   1.227  14.969  13.522  0.2505  0.0609 -0.0324
  614DOPS   C1A 7199   1.762  14.976  13.540 -0.3602  0.1703 -0.0196
  614DOPS   D2A 7200   2.013  14.593  13.557 -0.0959  0.1255 -0.4999
  614DOPS   C3A 7201   1.990  14.333  13.232 -0.0048  0.0389  0.1785
  614DOPS   C4A 7202   1.978  14.502  12.766  0.1927  0.4215  0.1649
  614DOPS   C1B 7203   1.275  14.809  13.968 -0.0062  0.2308  0.1595
  614DOPS   D2B 7204   1.000  14.873  14.327  0.0138 -0.4269 -0.2585
  614DOPS   C3B 7205   1.249  14.636  14.685 -0.1078  0.0973 -0.3319
  614DOPS   C4B 7206   1.362  14.509  15.115 -0.2085 -0.0007 -0.0624
  615DOPE   NH3 7207   9.128  13.061  12.251 -0.0978  0.0275  0.0754
  615DOPE   PO4 7208   8.990  13.347  12.214  0.0722 -0.0720  0.3395
  615DOPE   GL1 7209   9.087  13.518  12.558  0.1977  0.1546 -0.1896
  615DOPE   GL2 7210   9.143  13.857  12.574  0.0691 -0.3543  0.0015
  615DOPE   C1A 7211   9.329  13.212  12.836 -0.0301 -0.1616 -0.1091
  615DOPE   D2A 7212   9.460  12.970  13.240 -0.1353  0.0031  0.1328
  615DOPE   C3A 7213   9.323  13.294  13.560 -0.0456  0.1025  0.0322
  615DOPE   C4A 7214   9.236  13.512  13.922  0.1526 -0.3067 -0.4044
  615DOPE   C1B 7215   9.235  13.779  13.021  0.3412  0.1969  0.4479
  615DOPE   D2B 7216   9.237  13.876  13.476 -0.0372  0.0052 -0.0430
  615DOPE   C3B 7217   9.671  13.932  13.658  0.1392  0.0691  0.2110
  615DOPE   C4B 7218  10.055  13.627  13.671  0.2407  0.1267 -0.0312
  616DOPE   NH3 7219   9.722  13.813  11.885  0.1174  0.2473 -0.1393
  616DOPE   PO4 7220   9.660  13.567  11.754 -0.1084 -0.2324  0.1191
  616DOPE   GL1 7221   9.778  13.233  12.019 -0.4062  0.1868  0.0446
  616DOPE   GL2 7222  10.059  13.404  12.021  0.2163  0.0119  0.0038
  616DOPE   C1A 7223   9.670  13.009  12.415  0.0835 -0.0996  0.0336
  616DOPE   D2A 7224   9.813  12.741  12.714  0.0862 -0.0153 -0.0834
  616DOPE   C3A 7225   9.909  12.929  13.105  0.0769  0.2387 -0.0688
  616DOPE   C4A 7226   9.947  12.987  13.564  0.3472  0.2057 -0.1231
  616DOPE   C1B 7227  10.377  13.391  12.384 -0.4618  0.0121 -0.2658
  616DOPE   D2B 7228  10.435  13.659  12.732 -0.3584 -0.2148  0.0339
  616DOPE   C3B 7229  10.147  13.711  13.145  0.1619 -0.2059  0.1676
  616DOPE   C4B 7230   9.785  13.432  13.252 -0.0186 -0.1561 -0.1166
  617DOPC   NC3 7231   9.455  13.496  12.280 -0.0107 -0.1234 -0.0741
  617DOPC   PO4 7232   9.712  13.754  12.364  0.1380  0.0709  0.5048
  617DOPC   GL1 7233   9.943  13.706  12.670 -0.0337 -0.0765  0.0600
  617DOPC   GL2 7234   9.728  13.640  12.850 -0.0815  0.0311 -0.0556
  617DOPC   C1A 7235  10.107  13.292  12.848 -0.0244 -0.0316  0.1530
  617DOPC   D2A 7236  10.321  12.796  12.816 -0.0360 -0.1706  0.7018
  617DOPC   C3A 7237  10.082  12.429  13.020  0.3300  0.0402 -0.0355
  617DOPC   C4A 7238  10.035  12.017  13.221  0.1823  0.1784 -0.3707
  617DOPC   C1B 7239   9.769  14.015  13.151 -0.0587 -0.0572  0.2300
  617DOPC   D2B 7240  10.086  14.187  13.466 -0.1649 -0.1329 -0.2047
  617DOPC   C3B 7241  10.030  14.615  13.645  0.0832 -0.0459  0.0616
  617DOPC   C4B 7242  10.335  15.007  13.580  0.1328  0.1203  0.0273
  618DOPC   NC3 7243   1.409  19.394  12.491 -0.3441 -0.1077 -0.0603
  618DOPC   PO4 7244   1.688  19.103  12.553  0.2092 -0.1569  0.1398
  618DOPC   GL1 7245   1.864  19.357  12.855  0.0130  0.0546 -0.2151
  618DOPC   GL2 7246   1.741  19.636  12.835 -0.3087 -0.2531  0.2309
  618DOPC   C1A 7247   2.219  19.630  12.939  0.0278 -0.1304 -0.4119
  618DOPC   D2A 7248   2.373  19.903  13.274 -0.0696 -0.0919 -0.1437
  618DOPC   C3A 7249   2.737  19.802  13.518  0.1027 -0.0946 -0.0707
  618DOPC   C4A 7250   2.650  19.613  13.936  0.1401 -0.0717  0.1496
  618DOPC   C1B 7251   1.756  19.784  13.257  0.0869  0.0818 -0.0543
  618DOPC   D2B 7252   1.769  19.890  13.742  0.2327  0.0004  0.0481
  618DOPC   C3B 7253   1.760  20.311  13.912 -0.1800  0.0287 -0.0837
  618DOPC   C4B 7254   1.715  20.708  14.093 -0.3479 -0.1163  0.1858
  619DOPE   NH3 7255   0.134  20.635  12.720 -0.3409  0.1460 -0.2114
  619DOPE   PO4 7256   0.258  20.331  12.747  0.2187 -0.0876  0.2728
  619DOPE   GL1 7257   0.105  20.329  13.104  0.1652 -0.2598  0.0223
  619DOPE   GL2 7258   0.145  20.543  13.246 -0.0083  0.3305 -0.1153
  619DOPE   C1A 7259  -0.241  20.123  13.200  0.2776 -0.0023 -0.0872
  619DOPE   D2A 7260  -0.516  19.923  13.515  0.0982 -0.2054 -0.0226
  619DOPE   C3A 7261  -0.836  20.222  13.673 -0.2023  0.0470 -0.1356
  619DOPE   C4A 7262  -1.209  20.361  13.991 -0.0390 -0.0565  0.2254
  619DOPE   C1B 7263  -0.044  20.321  13.614 -0.1406 -0.1331 -0.1364
  619DOPE   D2B 7264  -0.425  20.250  13.943  0.2262 -0.0218 -0.1234
  619DOPE   C3B 7265  -0.296  19.959  14.322 -0.1790  0.4027 -0.1228
  619DOPE   C4B 7266   0.016  19.601  14.317 -0.1264  0.1320 -0.1380
  620DOPE   NH3 7267  10.724  21.783  12.427  0.1144  0.2472  0.0553
  620DOPE   PO4 7268  11.016  21.634  12.540 -0.2147  0.4049  0.2014
  620DOPE   GL1 7269  11.020  21.454  12.760  0.0806 -0.0368  0.1478
  620DOPE   GL2 7270  10.981  21.217  12.825 -0.1335 -0.0581 -0.2314
  620DOPE   C1A 7271  11.225  21.483  13.187  0.0094 -0.1680  0.0014
  620DOPE   D2A 7272  11.472  21.310  13.518 -0.2304  0.2022 -0.0190
  620DOPE   C3A 7273  11.867  21.374  13.466 -0.0320 -0.1533 -0.2935
  620DOPE   C4A 7274  12.213  21.301  13.682 -0.0491  0.0152 -0.1145
  620DOPE   C1B 7275  10.592  21.029  12.975  0.0425  0.2561  0.2181
  620DOPE   D2B 7276  10.207  20.802  13.129  0.0237  0.1702 -0.1651
  620DOPE   C3B 7277   9.966  21.091  13.312  0.2434  0.2047 -0.1004
  620DOPE   C4B 7278   9.781  21.494  13.570  0.0250  0.2944  0.1377
  621DOPE   NH3 7279   6.274  15.728  12.763  0.2348 -0.0287 -0.0035
  621DOPE   PO4 7280   6.107  16.019  12.691  0.2494  0.1285 -0.2869
  621DOPE   GL1 7281   6.164  16.418  12.727 -0.1152  0.0399 -0.1748
  621DOPE   GL2 7282   6.166  16.529  13.024 -0.3293  0.2081  0.4321
  621DOPE   C1A 7283   5.763  16.586  12.600  0.0603  0.0246 -0.1702
  621DOPE   D2A 7284   5.471  16.980  12.502  0.1765  0.4447  0.2873
  621DOPE   C3A 7285   5.450  17.234  12.900  0.0594 -0.0489 -0.0423
  621DOPE   C4A 7286   5.742  17.452  13.181  0.0026  0.2159 -0.2633
  621DOPE   C1B 7287   6.182  16.443  13.502 -0.1000  0.0391  0.1856
  621DOPE   D2B 7288   6.152  16.579  14.025  0.0715  0.1087  0.0324
  621DOPE   C3B 7289   5.920  16.813  14.277 -0.2392  0.0382  0.2829
  621DOPE   C4B 7290   5.707  16.815  14.664  0.2985 -0.3086 -0.3208
  622POSM   NC3 7291   0.581  20.222  13.166 -0.3387 -0.0507  0.0854
  622POSM   PO4 7292   0.746  20.131  12.845 -0.3274 -0.1774  0.1441
  622POSM   AM1 7293   1.061  20.108  12.906 -0.3199 -0.3719 -0.0542
  622POSM   AM2 7294   1.188  20.024  13.173  0.0673  0.0015  0.1805
  622POSM   T1A 7295   1.563  20.250  12.826 -0.1046  0.3730 -0.2506
  622POSM   C2A 7296   2.003  20.087  12.884  0.0032 -0.1919  0.0586
  622POSM   C3A 7297   2.392  20.324  12.888 -0.1227  0.2404  0.2130
  622POSM   C1B 7298   1.439  20.182  13.314  0.2072 -0.3721  0.0433
  622POSM   D2B 7299   1.888  20.322  13.307  0.2912 -0.2511 -0.0357
  622POSM   C3B 7300   1.979  20.684  13.589 -0.2811 -0.2346 -0.1211
  622POSM   C4B 7301   1.744  21.060  13.732 -0.1801 -0.0492 -0.3287
  623DOPE   NH3 7302   3.968  19.192  12.941  0.3951  0.2897 -0.1852
  623DOPE   PO4 7303   3.827  19.474  13.040  0.2181  0.0362 -0.2598
  623DOPE   GL1 7304   4.014  19.597  13.458 -0.2476 -0.2050 -0.1567
  623DOPE   GL2 7305   3.942  19.262  13.548  0.2671 -0.2378  0.1359
  623DOPE   C1A 7306   3.928  19.758  13.870  0.1365  0.1631  0.0669
  623DOPE   D2A 7307   3.815  20.027  14.225 -0.0114 -0.0987  0.2661
  623DOPE   C3A 7308   4.003  20.005  14.658 -0.1657 -0.2376 -0.0325
  623DOPE   C4A 7309   3.987  19.867  15.102 -0.3719 -0.0611  0.1250
  623DOPE   C1B 7310   4.041  19.128  14.016  0.1459  0.0295  0.5390
  623DOPE   D2B 7311   3.915  18.850  14.281  0.1970 -0.0581  0.2205
  623DOPE   C3B 7312   3.847  19.095  14.651 -0.0165 -0.1103  0.0032
  623DOPE   C4B 7313   3.692  19.028  15.040 -0.0489  0.1135 -0.0003
  624POSM   NC3 7314   6.819  18.651  12.271  0.1668 -0.1629 -0.1147
  624POSM   PO4 7315   6.977  18.755  12.613  0.2407 -0.2132  0.0220
  624POSM   AM1 7316   7.082  18.812  12.914 -0.3098  0.2277 -0.1162
  624POSM   AM2 7317   7.316  18.744  13.043 -0.2468 -0.0241  0.2174
  624POSM   T1A 7318   7.110  19.016  13.386 -0.0948 -0.2687 -0.2169
  624POSM   C2A 7319   7.015  19.377  13.679  0.0310 -0.0885 -0.2144
  624POSM   C3A 7320   7.331  19.609  13.900 -0.0522 -0.0704  0.2796
  624POSM   C1B 7321   7.477  18.667  13.335 -0.2960 -0.3135 -0.0211
  624POSM   D2B 7322   7.847  18.610  13.525  0.0746 -0.0736 -0.3546
  624POSM   C3B 7323   7.587  18.219  13.733  0.0321 -0.1624 -0.1193
  624POSM   C4B 7324   7.315  18.213  14.163 -0.1697 -0.0486 -0.1645
  625POSM   NC3 7325   0.184  11.499  13.088 -0.0601  0.2285 -0.1265
  625POSM   PO4 7326   0.248  11.479  12.698 -0.2320  0.1544  0.0294
  625POSM   AM1 7327   0.294  11.812  12.706 -0.5783 -0.1714 -0.4397
  625POSM   AM2 7328   0.375  12.011  12.898 -0.1171  0.0051 -0.3043
  625POSM   T1A 7329   0.369  12.248  12.507 -0.0642 -0.1100  0.4917
  625POSM   C2A 7330   0.770  12.523  12.507 -0.0650  0.0524  0.0795
  625POSM   C3A 7331   0.951  12.759  12.182  0.1589 -0.1199  0.0398
  625POSM   C1B 7332   0.407  12.037  13.268 -0.2627 -0.0170 -0.0758
  625POSM   D2B 7333   0.605  12.026  13.658  0.0729  0.4665 -0.1524
  625POSM   C3B 7334   0.279  12.317  13.844 -0.0935 -0.0239  0.1357
  625POSM   C4B 7335   0.176  12.721  13.707  0.0263 -0.2576  0.0445
  626DOPC   NC3 7336  10.100  22.769  12.241  0.1604  0.0281 -0.0379
  626DOPC   PO4 7337   9.818  22.726  11.983  0.0508  0.0745  0.1204
  626DOPC   GL1 7338  10.059  22.363  12.070 -0.1706 -0.0144 -0.6063
  626DOPC   GL2 7339  10.138  22.182  11.875 -0.0204  0.1092  0.1830
  626DOPC   C1A 7340  10.533  22.447  12.135  0.1541 -0.0919 -0.0596
  626DOPC   D2A 7341  10.797  22.309  12.538  0.1291  0.0408  0.0660
  626DOPC   C3A 7342  10.682  22.421  12.987 -0.1799 -0.3502  0.1067
  626DOPC   C4A 7343  10.663  22.293  13.452  0.0345 -0.0295 -0.0191
  626DOPC   C1B 7344  10.163  21.771  12.068 -0.2680 -0.0695  0.1014
  626DOPC   D2B 7345   9.713  21.761  12.271  0.2526 -0.2969 -0.1058
  626DOPC   C3B 7346   9.376  21.549  12.057 -0.0436 -0.3999 -0.2928
  626DOPC   C4B 7347   9.243  21.113  12.041 -0.1090 -0.1622  0.1445
  627DOPC   NC3 7348   6.571  19.598  12.203  0.2097  0.0102 -0.3910
  627DOPC   PO4 7349   6.673  19.685  12.591 -0.2711  0.1179 -0.2046
  627DOPC   GL1 7350   6.955  19.945  12.571  0.6386 -0.3959  0.0180
  627DOPC   GL2 7351   6.953  20.044  12.246 -0.2628 -0.0006 -0.1494
  627DOPC   C1A 7352   7.077  20.162  12.970 -0.2446  0.3345 -0.0282
  627DOPC   D2A 7353   7.449  20.280  13.271  0.1976  0.1762  0.2814
  627DOPC   C3A 7354   7.652  20.693  13.313 -0.1368  0.0049  0.1014
  627DOPC   C4A 7355   8.129  20.878  13.316  0.0966  0.0195  0.3376
  627DOPC   C1B 7356   6.791  20.434  12.018  0.5229 -0.1861  0.0318
  627DOPC   D2B 7357   6.559  20.814  12.173  0.3561 -0.5007 -0.1894
  627DOPC   C3B 7358   6.717  21.075  12.547  0.0240  0.0692  0.4605
  627DOPC   C4B 7359   6.621  21.131  12.964 -0.2175  0.1446 -0.2619
  628DOPC   NC3 7360   2.468  15.734  12.800  0.1787 -0.3390  0.0625
  628DOPC   PO4 7361   2.415  16.115  12.763  0.0131  0.3171 -0.4415
  628DOPC   GL1 7362   2.823  16.085  12.986  0.3856  0.0256  0.1414
  628DOPC   GL2 7363   2.939  15.978  12.747  0.0013 -0.2942  0.1278
  628DOPC   C1A 7364   3.246  16.185  13.179 -0.1182  0.1488  0.1422
  628DOPC   D2A 7365   3.417  16.378  13.543 -0.1225  0.0668 -0.0793
  628DOPC   C3A 7366   3.794  16.362  13.781  0.0720 -0.3630  0.0843
  628DOPC   C4A 7367   4.049  16.142  14.068  0.1185  0.0506 -0.1069
  628DOPC   C1B 7368   3.427  15.986  12.678 -0.0171 -0.0929  0.0836
  628DOPC   D2B 7369   3.714  16.203  12.981 -0.1356  0.0436 -0.0579
  628DOPC   C3B 7370   4.023  15.841  13.135 -0.1002 -0.1845  0.1879
  628DOPC   C4B 7371   3.960  15.448  13.317 -0.3626  0.0402 -0.1119
  629DOPE   NH3 7372   6.703  12.538  12.681  0.1543  0.0218 -0.1240
  629DOPE   PO4 7373   6.805  12.373  12.932 -0.1728  0.0195  0.0815
  629DOPE   GL1 7374   6.699  12.365  13.294  0.1603 -0.3304  0.0054
  629DOPE   GL2 7375   6.633  12.680  13.304  0.0685 -0.1220  0.0969
  629DOPE   C1A 7376   6.526  11.935  13.462  0.2081 -0.3738  0.2036
  629DOPE   D2A 7377   6.228  11.637  13.475 -0.1508  0.0911 -0.2699
  629DOPE   C3A 7378   6.198  11.465  13.888 -0.1354  0.1249 -0.2467
  629DOPE   C4A 7379   5.923  11.462  14.265  0.1894  0.1952  0.1761
  629DOPE   C1B 7380   6.711  12.543  13.707  0.1118 -0.3078 -0.1119
  629DOPE   D2B 7381   6.675  12.711  14.156  0.0154  0.0997  0.0647
  629DOPE   C3B 7382   6.595  12.257  14.290 -0.0328 -0.0333  0.0518
  629DOPE   C4B 7383   6.354  11.869  14.163 -0.1635  0.1782  0.0888
  630POSM   NC3 7384   6.106  11.969  13.176 -0.1380 -0.3031  0.0735
  630POSM   PO4 7385   6.189  11.668  12.913  0.0581  0.0390  0.2277
  630POSM   AM1 7386   6.027  11.393  13.012  0.1278  0.2115  0.2103
  630POSM   AM2 7387   6.032  11.230  13.266 -0.0519 -0.1235  0.0412
  630POSM   T1A 7388   5.626  11.110  13.018  0.2048  0.1218  0.0866
  630POSM   C2A 7389   5.178  11.161  12.851  0.0491 -0.0610  0.2411
  630POSM   C3A 7390   4.764  11.281  13.076 -0.1162 -0.1131 -0.0225
  630POSM   C1B 7391   6.271  11.143  13.503 -0.2432  0.0700  0.2429
  630POSM   D2B 7392   6.489  11.059  13.835 -0.0165  0.3626 -0.1050
  630POSM   C3B 7393   6.381  11.232  14.292 -0.4255  0.0278  0.4596
  630POSM   C4B 7394   6.602  11.489  14.591 -0.0680 -0.0646  0.0041
  631DOPE   NH3 7395   0.671  20.552  12.552 -0.0524 -0.3198 -0.0230
  631DOPE   PO4 7396   0.615  20.665  12.864  0.1666 -0.2022 -0.0578
  631DOPE   GL1 7397   0.894  20.660  13.085 -0.5330 -0.2579  0.1946
  631DOPE   GL2 7398   1.254  20.548  13.045 -0.1565 -0.2704 -0.0241
  631DOPE   C1A 7399   1.156  20.894  13.355 -0.1396  0.2815 -0.1741
  631DOPE   D2A 7400   1.184  21.057  13.766 -0.1816  0.1449 -0.1136
  631DOPE   C3A 7401   1.307  20.988  14.184 -0.2883  0.0793  0.2704
  631DOPE   C4A 7402   1.639  20.953  14.500 -0.1610  0.2401 -0.1352
  631DOPE   C1B 7403   1.028  20.403  13.467  0.0755  0.2160  0.2288
  631DOPE   D2B 7404   0.819  20.326  13.837  0.0471  0.3922  0.2430
  631DOPE   C3B 7405   0.788  20.706  14.081  0.0213  0.4302  0.2496
  631DOPE   C4B 7406   0.858  20.908  14.495 -0.4276  0.0566 -0.0276
  632DOPC   NC3 7407  10.066  12.325  12.507 -0.3892 -0.2672  0.2406
  632DOPC   PO4 7408   9.843  12.286  12.201  0.2560 -0.0522  0.0972
  632DOPC   GL1 7409   9.669  11.949  12.312 -0.0382 -0.1026  0.0091
  632DOPC   GL2 7410   9.595  12.077  12.591 -0.1676 -0.2395 -0.0301
  632DOPC   C1A 7411   9.286  11.715  12.402  0.1193  0.1487 -0.1176
  632DOPC   D2A 7412   8.857  11.558  12.522  0.0774  0.0124 -0.0780
  632DOPC   C3A 7413   8.697  11.424  12.926 -0.2921  0.1675 -0.0236
  632DOPC   C4A 7414   8.519  11.388  13.317 -0.1912  0.2843  0.0389
  632DOPC   C1B 7415   9.152  12.114  12.771 -0.0198 -0.3262 -0.0526
  632DOPC   D2B 7416   8.787  12.338  12.986  0.0319  0.0392  0.1333
  632DOPC   C3B 7417   8.857  12.240  13.475 -0.1233  0.1670  0.0651
  632DOPC   C4B 7418   9.197  12.287  13.754 -0.0472 -0.0461 -0.2874
  633POSM   NC3 7419   6.989  11.797  13.296  0.0367 -0.1871  0.1701
  633POSM   PO4 7420   7.090  11.968  12.970 -0.2336  0.0125  0.1117
  633POSM   AM1 7421   7.329  12.077  13.155  0.1858 -0.1602  0.3727
  633POSM   AM2 7422   7.469  11.952  13.324  0.0516  0.5064 -0.0856
  633POSM   T1A 7423   7.717  12.352  13.287 -0.0822 -0.2576  0.1247
  633POSM   C2A 7424   8.067  12.266  13.560 -0.4527 -0.0385 -0.1542
  633POSM   C3A 7425   8.430  12.119  13.784 -0.0719 -0.0914  0.3406
  633POSM   C1B 7426   7.619  11.904  13.620 -0.0502 -0.2269 -0.0489
  633POSM   D2B 7427   7.865  11.665  13.943 -0.1886  0.1868  0.0438
  633POSM   C3B 7428   7.558  11.544  14.304  0.1104  0.0019 -0.1750
  633POSM   C4B 7429   7.563  11.654  14.722  0.2446 -0.0446 -0.2017
  634DOPE   NH3 7430   8.434  18.634  12.304 -0.0122  0.0081 -0.0585
  634DOPE   PO4 7431   8.207  18.397  12.188  0.0492 -0.2399  0.1868
  634DOPE   GL1 7432   7.967  18.182  12.344 -0.0316  0.4346  0.1870
  634DOPE   GL2 7433   8.001  17.943  12.591  0.0318  0.0911 -0.0059
  634DOPE   C1A 7434   7.694  17.856  12.144 -0.1380  0.3835  0.1814
  634DOPE   D2A 7435   7.314  17.687  12.267  0.2525 -0.5221  0.1643
  634DOPE   C3A 7436   7.265  17.492  12.723 -0.2580  0.2823  0.2648
  634DOPE   C4A 7437   7.418  17.301  13.106  0.2679 -0.2226 -0.0750
  634DOPE   C1B 7438   8.228  17.559  12.381 -0.2759 -0.0158 -0.1053
  634DOPE   D2B 7439   8.370  17.066  12.397  0.3013 -0.2413  0.2380
  634DOPE   C3B 7440   8.336  17.027  12.873  0.1665 -0.0646 -0.1735
  634DOPE   C4B 7441   7.985  17.009  13.233  0.0825 -0.1035 -0.0175
  635DOPE   NH3 7442  34.628  15.730  12.643 -0.0028 -0.1804  0.1161
  635DOPE   PO4 7443  34.574  15.440  12.789 -0.0184  0.0774 -0.2017
  635DOPE   GL1 7444  34.299  15.438  13.137 -0.2317  0.0473  0.3912
  635DOPE   GL2 7445  34.411  15.637  13.377 -0.0806  0.2947  0.1649
  635DOPE   C1A 7446  33.961  15.516  13.448  0.2854  0.1922  0.2206
  635DOPE   D2A 7447  33.835  15.509  13.881 -0.0424  0.2005 -0.0232
  635DOPE   C3A 7448  33.509  15.844  14.092 -0.0273  0.0234 -0.0501
  635DOPE   C4A 7449  33.195  16.133  14.305 -0.0558  0.0289  0.1492
  635DOPE   C1B 7450  34.630  15.576  13.804 -0.0618  0.1331 -0.0131
  635DOPE   D2B 7451  34.444  15.898  14.043  0.1211 -0.2297  0.0694
  635DOPE   C3B 7452  34.225  16.290  13.936 -0.2082 -0.2212  0.0389
  635DOPE   C4B 7453  34.029  16.532  13.625 -0.1508  0.0594 -0.0541
  636DOPC   NC3 7454   3.631  17.656  12.693  0.0785  0.2555  0.3610
  636DOPC   PO4 7455   3.495  17.984  12.786  0.3732 -0.1197 -0.0681
  636DOPC   GL1 7456   3.739  18.031  13.070 -0.5168 -0.6868 -0.0159
  636DOPC   GL2 7457   3.716  18.345  13.068  0.3425  0.3490 -0.1190
  636DOPC   C1A 7458   3.788  18.030  13.551  0.2237  0.1380 -0.1515
  636DOPC   D2A 7459   3.799  17.986  13.999  0.1982 -0.2415  0.0429
  636DOPC   C3A 7460   3.782  18.455  14.023 -0.2345 -0.0176 -0.1454
  636DOPC   C4A 7461   3.616  18.819  13.781 -0.1149  0.1111  0.0247
  636DOPC   C1B 7462   3.876  18.566  13.427  0.2247  0.0323 -0.0269
  636DOPC   D2B 7463   4.166  18.362  13.795 -0.2069 -0.2499  0.2248
  636DOPC   C3B 7464   4.454  17.999  13.760  0.0092 -0.2558  0.3081
  636DOPC   C4B 7465   4.591  17.602  13.917 -0.2060 -0.0924  0.1122
  637DOPE   NH3 7466   1.077  19.784  12.511 -0.3119 -0.2091  0.2443
  637DOPE   PO4 7467   1.201  19.674  12.817 -0.1073  0.0713  0.1275
  637DOPE   GL1 7468   1.358  19.401  13.010  0.2995  0.2696 -0.3402
  637DOPE   GL2 7469   1.136  19.339  13.196 -0.1421 -0.0342 -0.1283
  637DOPE   C1A 7470   1.719  19.223  13.264  0.2188 -0.1483  0.1312
  637DOPE   D2A 7471   1.712  19.059  13.641 -0.2003  0.0479 -0.1775
  637DOPE   C3A 7472   1.708  19.393  13.911 -0.1132 -0.1145 -0.0446
  637DOPE   C4A 7473   1.592  19.764  14.203 -0.1386  0.0450 -0.1655
  637DOPE   C1B 7474   1.282  19.521  13.588  0.1668  0.1607 -0.3289
  637DOPE   D2B 7475   1.203  19.352  14.028 -0.1263 -0.0125  0.0948
  637DOPE   C3B 7476   0.844  19.398  14.283  0.2455 -0.1292  0.1335
  637DOPE   C4B 7477   0.522  19.655  14.355  0.0929  0.1661  0.3492
  638POSM   NC3 7478   7.251  15.835  12.834 -0.1868 -0.1136 -0.0582
  638POSM   PO4 7479   7.064  16.159  12.719 -0.1022  0.3855 -0.1184
  638POSM   AM1 7480   7.180  16.446  12.883 -0.2998  0.1429  0.1329
  638POSM   AM2 7481   7.116  16.491  13.158 -0.2086 -0.4532  0.0906
  638POSM   T1A 7482   7.432  16.852  13.087  0.2676  0.2561  0.0111
  638POSM   C2A 7483   7.565  17.007  13.483  0.1890  0.0661 -0.0528
  638POSM   C3A 7484   7.380  16.762  13.854  0.1406 -0.0339  0.0267
  638POSM   C1B 7485   7.364  16.472  13.388  0.0938 -0.0670 -0.2603
  638POSM   D2B 7486   7.731  16.463  13.641 -0.1527  0.2974 -0.1843
  638POSM   C3B 7487   7.861  16.729  13.998  0.1251 -0.0227  0.2651
  638POSM   C4B 7488   7.702  17.049  14.282  0.0643 -0.0517 -0.3023
  639DOPC   NC3 7489   7.795  18.711  12.252 -0.3055 -0.0655 -0.1567
  639DOPC   PO4 7490   7.719  19.024  12.026 -0.1436  0.2935  0.2275
  639DOPC   GL1 7491   7.815  19.339  12.296  0.0871 -0.2925  0.0131
  639DOPC   GL2 7492   7.774  19.313  12.622  0.0606 -0.0001 -0.0392
  639DOPC   C1A 7493   8.071  19.714  12.483 -0.1285  0.1326 -0.1211
  639DOPC   D2A 7494   8.146  19.994  12.813 -0.0572 -0.0118 -0.1227
  639DOPC   C3A 7495   8.365  19.915  13.258 -0.1316 -0.1459 -0.1925
  639DOPC   C4A 7496   8.666  20.213  13.408  0.0121  0.1409  0.0847
  639DOPC   C1B 7497   7.635  19.621  12.896 -0.3164 -0.1561  0.1220
  639DOPC   D2B 7498   7.769  19.915  13.104 -0.4062 -0.1703 -0.1529
  639DOPC   C3B 7499   7.905  20.408  13.008 -0.0212 -0.1203 -0.0667
  639DOPC   C4B 7500   7.823  20.790  12.789  0.1306  0.1129  0.0700
  640POSM   NC3 7501   6.682  22.495  12.208 -0.0007  0.1650 -0.1905
  640POSM   PO4 7502   6.425  22.378  12.463  0.2748  0.0691  0.1395
  640POSM   AM1 7503   6.658  22.479  12.651  0.1554  0.0699  0.2221
  640POSM   AM2 7504   6.932  22.523  12.638 -0.1095  0.0296 -0.1727
  640POSM   T1A 7505   6.825  22.345  13.128  0.2446  0.2048  0.1009
  640POSM   C2A 7506   6.961  22.122  13.461 -0.0345  0.1725 -0.0653
  640POSM   C3A 7507   7.085  21.687  13.647 -0.1705 -0.3043  0.1208
  640POSM   C1B 7508   7.073  22.703  12.945 -0.1826 -0.1727 -0.0294
  640POSM   D2B 7509   7.293  22.760  13.351  0.1813 -0.0834  0.0632
  640POSM   C3B 7510   7.423  23.186  13.372  0.1006  0.1265 -0.0733
  640POSM   C4B 7511   7.811  23.381  13.397 -0.1481 -0.0986 -0.0779
  641DOPE   NH3 7512   6.225  11.680  12.422  0.2923 -0.0824 -0.0192
  641DOPE   PO4 7513   5.918  11.618  12.339  0.1094 -0.0409 -0.3897
  641DOPE   GL1 7514   5.730  11.646  12.787  0.1568 -0.1199  0.3136
  641DOPE   GL2 7515   5.454  11.789  12.685 -0.0370 -0.0007  0.2257
  641DOPE   C1A 7516   5.710  11.646  13.277  0.0591  0.0578  0.0647
  641DOPE   D2A 7517   5.773  11.407  13.701  0.0389  0.1171  0.1048
  641DOPE   C3A 7518   5.508  11.598  14.071  0.2091  0.1160  0.1203
  641DOPE   C4A 7519   5.289  11.780  14.479  0.2082  0.0452  0.1704
  641DOPE   C1B 7520   5.288  11.575  13.029  0.1795  0.1510 -0.1414
  641DOPE   D2B 7521   5.121  11.382  13.395 -0.0098  0.1379  0.1989
  641DOPE   C3B 7522   5.125  11.303  13.858 -0.0394  0.0697 -0.0389
  641DOPE   C4B 7523   5.130  11.029  14.216 -0.0816 -0.1730 -0.2649
  642DOPC   NC3 7524   6.924  14.876  12.571  0.1020 -0.1186  0.2452
  642DOPC   PO4 7525   7.137  14.722  12.300 -0.2949 -0.1113  0.0818
  642DOPC   GL1 7526   7.435  14.897  12.579  0.2296 -0.0883  0.1664
  642DOPC   GL2 7527   7.441  14.814  12.807 -0.2502 -0.0443 -0.0692
  642DOPC   C1A 7528   7.882  14.824  12.625 -0.0782 -0.2990 -0.0853
  642DOPC   D2A 7529   8.340  14.866  12.728  0.1115  0.0665 -0.1473
  642DOPC   C3A 7530   8.550  14.887  13.107 -0.0862  0.1735  0.2749
  642DOPC   C4A 7531   8.850  14.696  13.413 -0.3894 -0.3170 -0.0016
  642DOPC   C1B 7532   7.803  15.000  13.071 -0.0836 -0.4359  0.0653
  642DOPC   D2B 7533   7.882  15.475  13.247 -0.0807  0.0856  0.1221
  642DOPC   C3B 7534   8.262  15.660  13.068  0.4314 -0.1156 -0.3057
  642DOPC   C4B 7535   8.696  15.864  13.115 -0.1955  0.0760 -0.2563
  643DOPE   NH3 7536  11.860  11.302  12.090  0.1807  0.3118 -0.1647
  643DOPE   PO4 7537  11.650  11.541  12.063 -0.1125 -0.0463  0.1951
  643DOPE   GL1 7538  11.565  11.886  12.306  0.3880  0.1594  0.2494
  643DOPE   GL2 7539  11.735  11.803  12.511 -0.1170 -0.1096  0.2321
  643DOPE   C1A 7540  11.531  12.315  12.379  0.1653 -0.2469 -0.0725
  643DOPE   D2A 7541  11.571  12.760  12.514 -0.1859 -0.0687  0.2880
  643DOPE   C3A 7542  11.319  12.963  12.888 -0.1352 -0.1292 -0.2741
  643DOPE   C4A 7543  11.013  13.037  13.269 -0.1508  0.2073 -0.1786
  643DOPE   C1B 7544  11.926  11.963  12.877  0.4233  0.1591  0.3250
  643DOPE   D2B 7545  12.266  12.096  13.185 -0.0075 -0.0024  0.0984
  643DOPE   C3B 7546  12.663  11.918  13.258  0.1011  0.3132  0.1931
  643DOPE   C4B 7547  13.091  11.879  13.184 -0.1119  0.0078 -0.1568
  644POSM   NC3 7548   0.198  15.515  13.163  0.0569  0.0653 -0.2747
  644POSM   PO4 7549   0.432  15.685  12.885 -0.3120  0.0882  0.1794
  644POSM   AM1 7550   0.578  15.699  13.201  0.4317  0.4068  0.1865
  644POSM   AM2 7551   0.787  15.841  13.288 -0.2353  0.5317 -0.1764
  644POSM   T1A 7552   0.455  15.437  13.626 -0.3322 -0.0080  0.2457
  644POSM   C2A 7553   0.540  15.603  14.074  0.0509 -0.2713 -0.2536
  644POSM   C3A 7554   0.545  15.695  14.553 -0.3138  0.0609  0.1833
  644POSM   C1B 7555   0.917  16.049  13.490  0.0708  0.2961  0.0057
  644POSM   D2B 7556   0.854  16.119  13.948  0.2545 -0.0911 -0.2559
  644POSM   C3B 7557   1.061  15.928  14.375 -0.1728 -0.0178 -0.0114
  644POSM   C4B 7558   1.529  15.814  14.499 -0.0860  0.2346  0.2091
  645DOPC   NC3 7559   7.098  18.290  12.470 -0.2767  0.0081  0.2675
  645DOPC   PO4 7560   6.772  18.181  12.355 -0.0382 -0.0697  0.1776
  645DOPC   GL1 7561   6.477  18.419  12.574  0.2712  0.1562  0.2610
  645DOPC   GL2 7562   6.665  18.385  12.848  0.1310  0.3228 -0.2509
  645DOPC   C1A 7563   6.171  18.420  12.995  0.0160  0.0351  0.0029
  645DOPC   D2A 7564   5.880  18.601  13.233  0.2580 -0.0936 -0.0595
  645DOPC   C3A 7565   6.202  18.723  13.563 -0.0864  0.3341  0.0269
  645DOPC   C4A 7566   6.105  19.037  13.935  0.0588  0.1503 -0.3928
  645DOPC   C1B 7567   6.560  18.030  13.138 -0.1788  0.0341  0.3087
  645DOPC   D2B 7568   6.708  17.857  13.540 -0.1787  0.1172 -0.3235
  645DOPC   C3B 7569   7.146  18.029  13.600  0.3092  0.1010 -0.0118
  645DOPC   C4B 7570   7.518  18.188  13.268 -0.4385  0.0569 -0.1763
  646POSM   NC3 7571   8.094  13.677  12.770  0.3709  0.0739 -0.0460
  646POSM   PO4 7572   7.825  13.555  12.584  0.3507  0.1383  0.0165
  646POSM   AM1 7573   7.652  13.380  12.812 -0.1194 -0.0785  0.1583
  646POSM   AM2 7574   7.399  13.291  12.805  0.0665  0.0057 -0.0097
  646POSM   T1A 7575   7.755  13.206  13.295 -0.1004 -0.0488  0.1678
  646POSM   C2A 7576   7.631  12.840  13.542 -0.1599 -0.0474 -0.0217
  646POSM   C3A 7577   7.622  12.434  13.767  0.1669  0.2010  0.0624
  646POSM   C1B 7578   7.315  13.415  13.131  0.2159  0.2522  0.0265
  646POSM   D2B 7579   7.375  13.369  13.548  0.0320  0.0001  0.1431
  646POSM   C3B 7580   7.479  13.132  13.909  0.0442  0.2794  0.0620
  646POSM   C4B 7581   7.822  12.813  14.109 -0.1084  0.0212  0.2035
  647POSM   NC3 7582   0.292  18.843  12.522 -0.0099 -0.0007 -0.0538
  647POSM   PO4 7583   0.047  18.508  12.524  0.2170 -0.1142  0.0250
  647POSM   AM1 7584   0.020  18.455  12.861 -0.0049 -0.3143  0.3855
  647POSM   AM2 7585   0.103  18.284  13.086  0.0066  0.2296 -0.0276
  647POSM   T1A 7586  -0.025  18.634  13.373  0.0147 -0.1297  0.3758
  647POSM   C2A 7587  -0.287  18.619  13.770 -0.2386  0.0852  0.0694
  647POSM   C3A 7588  -0.212  18.773  14.210  0.2140  0.1592 -0.1985
  647POSM   C1B 7589   0.427  18.331  13.110  0.4803  0.0689 -0.1341
  647POSM   D2B 7590   0.775  18.567  12.957 -0.2542  0.1008 -0.0226
  647POSM   C3B 7591   1.059  18.696  13.262  0.2366  0.3692 -0.1437
  647POSM   C4B 7592   1.099  18.944  13.638  0.0646  0.3246 -0.2159
  648DOPC   NC3 7593   5.266  13.522  12.672  0.0086 -0.1509 -0.1219
  648DOPC   PO4 7594   5.141  13.800  12.906  0.3515  0.0018  0.0665
  648DOPC   GL1 7595   4.923  13.671  13.249  0.2339  0.3294 -0.0007
  648DOPC   GL2 7596   5.097  13.430  13.541  0.0688 -0.0674  0.0314
  648DOPC   C1A 7597   4.513  13.428  13.402  0.1622  0.0387 -0.0484
  648DOPC   D2A 7598   4.315  13.462  13.837 -0.0948  0.0385  0.2038
  648DOPC   C3A 7599   4.341  13.116  14.103  0.0064 -0.2561 -0.0470
  648DOPC   C4A 7600   4.503  12.994  14.484  0.0066  0.1524  0.0116
  648DOPC   C1B 7601   5.262  13.106  13.792  0.1993  0.0178  0.4175
  648DOPC   D2B 7602   5.280  12.731  14.054 -0.0345  0.1980 -0.2197
  648DOPC   C3B 7603   4.977  12.739  14.412  0.0291 -0.3148  0.0570
  648DOPC   C4B 7604   4.692  12.453  14.642 -0.2207 -0.0912 -0.1279
  649DOPE   NH3 7605   3.070  12.181  12.920 -0.5999 -0.1117 -0.2865
  649DOPE   PO4 7606   3.033  12.518  12.926  0.1155 -0.0963 -0.1208
  649DOPE   GL1 7607   2.958  12.838  13.252  0.2035  0.1535  0.0707
  649DOPE   GL2 7608   3.092  13.044  13.080 -0.0407 -0.2769  0.2986
  649DOPE   C1A 7609   3.005  12.685  13.662 -0.2072 -0.2733  0.4493
  649DOPE   D2A 7610   3.368  12.782  13.955 -0.0932  0.1013  0.0540
  649DOPE   C3A 7611   3.381  13.209  14.093  0.0700  0.1144 -0.2535
  649DOPE   C4A 7612   3.128  13.551  14.227  0.2983 -0.2041 -0.2050
  649DOPE   C1B 7613   3.184  13.465  13.037 -0.0052 -0.0613  0.2433
  649DOPE   D2B 7614   3.016  13.886  13.063  0.0214 -0.0628 -0.2062
  649DOPE   C3B 7615   2.866  14.161  12.685 -0.1291  0.3357 -0.0785
  649DOPE   C4B 7616   3.106  14.424  12.344 -0.1291 -0.0202 -0.4031
  650POSM   NC3 7617   3.806  22.927  13.003 -0.1917  0.0762 -0.0288
  650POSM   PO4 7618   3.445  23.036  13.042  0.1072 -0.1510 -0.4323
  650POSM   AM1 7619   3.482  23.086  13.356 -0.0269  0.0948 -0.0586
  650POSM   AM2 7620   3.256  23.016  13.521 -0.0886  0.2335 -0.1029
  650POSM   T1A 7621   3.662  23.180  13.820 -0.1779  0.2576  0.1765
  650POSM   C2A 7622   3.842  23.100  14.277  0.0276  0.3660  0.3299
  650POSM   C3A 7623   4.133  22.991  14.604  0.0098  0.0310 -0.0338
  650POSM   C1B 7624   3.007  23.104  13.819 -0.3578  0.1697  0.3791
  650POSM   D2B 7625   2.983  23.465  14.108  0.0694  0.0653 -0.2186
  650POSM   C3B 7626   2.573  23.445  14.278  0.1779  0.0225  0.0639
  650POSM   C4B 7627   2.088  23.460  14.239  0.1472  0.1982  0.1571
  651POSM   NC3 7628   4.322  14.836  12.721 -0.0204 -0.2211 -0.1297
  651POSM   PO4 7629   4.288  14.420  12.708  0.1264  0.1949  0.1077
  651POSM   AM1 7630   4.077  14.269  12.879 -0.1651 -0.5540 -0.2987
  651POSM   AM2 7631   3.796  14.184  12.765 -0.0013  0.2028  0.1722
  651POSM   T1A 7632   3.806  14.046  13.278 -0.1331  0.2422  0.1973
  651POSM   C2A 7633   3.733  14.063  13.782 -0.0302  0.1144  0.1559
  651POSM   C3A 7634   3.570  14.160  14.204  0.0944  0.1945  0.0358
  651POSM   C1B 7635   3.445  14.179  12.839  0.3467  0.1636  0.2101
  651POSM   D2B 7636   3.137  14.511  12.955  0.2670  0.0343  0.4417
  651POSM   C3B 7637   2.891  14.771  12.644  0.1434  0.0194  0.1830
  651POSM   C4B 7638   2.641  14.950  12.314  0.2645  0.1711  0.2409
  652DOPS   CNO 7639   6.292  16.846  12.518 -0.0748 -0.2164 -0.4263
  652DOPS   PO4 7640   6.451  17.109  12.738  0.0629  0.1256  0.3254
  652DOPS   GL1 7641   6.308  16.999  12.961  0.0916  0.0861 -0.0025
  652DOPS   GL2 7642   6.094  17.144  13.085 -0.0761 -0.1151 -0.0954
  652DOPS   C1A 7643   6.449  16.826  13.344 -0.3574 -0.2542 -0.0504
  652DOPS   D2A 7644   6.380  16.999  13.798 -0.2294 -0.0417  0.0117
  652DOPS   C3A 7645   6.381  17.077  14.215  0.3126 -0.1086  0.2430
  652DOPS   C4A 7646   6.362  17.432  14.512 -0.3376 -0.1496 -0.3442
  652DOPS   C1B 7647   6.093  17.237  13.521 -0.0259 -0.3393  0.0250
  652DOPS   D2B 7648   5.911  17.150  13.938 -0.1169  0.0567  0.3268
  652DOPS   C3B 7649   5.484  17.207  14.186 -0.0565 -0.1035 -0.0484
  652DOPS   C4B 7650   5.139  17.156  14.447 -0.0640  0.1026  0.0823
  653DOPC   NC3 7651   3.692  20.920  13.661 -0.2943 -0.1489 -0.0023
  653DOPC   PO4 7652   3.777  20.919  13.272  0.0059 -0.0153  0.0563
  653DOPC   GL1 7653   3.437  21.175  13.224 -0.2207  0.1272 -0.0973
  653DOPC   GL2 7654   3.584  21.327  12.982 -0.0008  0.0951  0.0549
  653DOPC   C1A 7655   3.039  20.957  13.329  0.0267  0.5612 -0.0963
  653DOPC   D2A 7656   2.583  21.044  13.354 -0.2704 -0.2548 -0.1801
  653DOPC   C3A 7657   2.340  21.006  13.769  0.2292 -0.2223 -0.0730
  653DOPC   C4A 7658   2.084  21.153  14.141  0.0751 -0.3639 -0.0591
  653DOPC   C1B 7659   3.150  21.093  12.863 -0.0604  0.1678 -0.1680
  653DOPC   D2B 7660   3.136  20.614  12.894  0.1909 -0.2832  0.1384
  653DOPC   C3B 7661   2.775  20.542  13.146  0.2478  0.1865 -0.1057
  653DOPC   C4B 7662   2.325  20.484  13.333  0.0503 -0.0440 -0.0795
  654POSM   NC3 7663  34.358  17.576  12.643 -0.0575  0.1518  0.1871
  654POSM   PO4 7664  34.273  17.206  12.719  0.0672  0.0551  0.1064
  654POSM   AM1 7665  34.345  17.306  13.050  0.0793  0.1095 -0.1183
  654POSM   AM2 7666  34.269  17.506  13.214  0.0062 -0.3238 -0.3376
  654POSM   T1A 7667  34.631  17.414  13.481 -0.0160  0.0886 -0.0352
  654POSM   C2A 7668  34.691  17.696  13.841 -0.2674 -0.3187 -0.0737
  654POSM   C3A 7669  34.883  18.099  13.985 -0.0328  0.0275 -0.0705
  654POSM   C1B 7670  34.115  17.380  13.492 -0.1815 -0.0996  0.2246
  654POSM   D2B 7671  33.991  17.166  13.885  0.1718  0.0607 -0.2021
  654POSM   C3B 7672  34.209  16.766  14.085 -0.2292  0.0522 -0.1823
  654POSM   C4B 7673  34.443  16.749  14.479 -0.1086 -0.1210  0.0576
  655DOPE   NH3 7674   5.285  14.720  12.919 -0.1714 -0.1323 -0.0191
  655DOPE   PO4 7675   5.215  14.779  13.217  0.0343  0.2324  0.0280
  655DOPE   GL1 7676   5.171  14.736  13.654  0.3090 -0.0851 -0.2249
  655DOPE   GL2 7677   5.276  14.450  13.636 -0.1348  0.0460  0.1630
  655DOPE   C1A 7678   5.552  14.729  13.967  0.1566 -0.3131  0.1393
  655DOPE   D2A 7679   5.784  14.734  14.379 -0.0714 -0.1161  0.1011
  655DOPE   C3A 7680   5.787  14.863  14.855  0.1080  0.2030  0.3931
  655DOPE   C4A 7681   6.042  14.831  15.266  0.3264  0.1438  0.2410
  655DOPE   C1B 7682   5.139  14.492  14.044  0.2442  0.3308  0.1820
  655DOPE   D2B 7683   4.859  14.423  14.442  0.2818 -0.0788  0.0455
  655DOPE   C3B 7684   4.838  14.784  14.738 -0.0700 -0.0480 -0.2222
  655DOPE   C4B 7685   5.215  14.986  14.890 -0.0055 -0.3718  0.0119
  656POSM   NC3 7686   1.064  19.101  12.738 -0.0444  0.1239  0.0962
  656POSM   PO4 7687   0.799  19.339  12.601 -0.0137  0.0888  0.1863
  656POSM   AM1 7688   0.784  19.416  12.912  0.0753 -0.1195  0.1222
  656POSM   AM2 7689   0.748  19.680  13.079 -0.3256  0.1508  0.0391
  656POSM   T1A 7690   0.718  19.180  13.356 -0.0838  0.2238 -0.4553
  656POSM   C2A 7691   0.640  19.154  13.794 -0.3193  0.0657  0.2578
  656POSM   C3A 7692   0.772  18.904  14.178 -0.3947 -0.1963 -0.2939
  656POSM   C1B 7693   0.840  19.696  13.422 -0.0203  0.2065 -0.1599
  656POSM   D2B 7694   1.151  19.955  13.687  0.3191 -0.0030  0.2589
  656POSM   C3B 7695   1.005  19.967  14.138 -0.0314  0.2102  0.2424
  656POSM   C4B 7696   1.060  20.409  14.403 -0.0543 -0.3176  0.1327
  657POSM   NC3 7697   3.264  18.495  12.890 -0.0416  0.1038  0.2534
  657POSM   PO4 7698   3.264  18.644  13.234 -0.1094  0.2701  0.0393
  657POSM   AM1 7699   3.081  18.536  13.456 -0.0850  0.1329  0.1436
  657POSM   AM2 7700   3.027  18.689  13.668  0.0337 -0.1907 -0.3657
  657POSM   T1A 7701   2.898  18.185  13.775  0.1845 -0.1289 -0.1416
  657POSM   C2A 7702   3.089  17.969  14.142  0.0651 -0.2687 -0.1691
  657POSM   C3A 7703   3.478  17.841  14.437 -0.0758  0.0126  0.2221
  657POSM   C1B 7704   3.170  19.031  13.793  0.1263  0.0730 -0.0163
  657POSM   D2B 7705   3.547  19.297  13.901  0.1021 -0.1599 -0.1558
  657POSM   C3B 7706   3.756  19.513  14.267  0.0917 -0.1025  0.1311
  657POSM   C4B 7707   3.717  19.612  14.754 -0.2531 -0.0199 -0.0643
  658POSM   NC3 7708   1.866  17.829  12.978  0.0863  0.0116  0.1183
  658POSM   PO4 7709   2.179  17.663  13.160 -0.2348 -0.0447  0.0692
  658POSM   AM1 7710   2.051  17.810  13.394  0.1459 -0.1083 -0.1977
  658POSM   AM2 7711   1.894  18.013  13.462 -0.1597  0.2219 -0.1652
  658POSM   T1A 7712   1.919  17.859  13.877 -0.2918  0.4532  0.0606
  658POSM   C2A 7713   2.112  17.994  14.268  0.0758  0.0911 -0.1183
  658POSM   C3A 7714   2.055  18.323  14.617 -0.0433  0.1489 -0.2071
  658POSM   C1B 7715   1.887  18.390  13.541  0.1259  0.1434  0.1083
  658POSM   D2B 7716   2.167  18.767  13.634  0.0489  0.0901 -0.0405
  658POSM   C3B 7717   1.929  18.818  14.055  0.1033 -0.2325  0.1064
  658POSM   C4B 7718   1.995  18.836  14.505  0.2359  0.1140 -0.0235
  659DOPS   CNO 7719   6.745  15.903  12.446  0.2746  0.1765 -0.2274
  659DOPS   PO4 7720   7.102  15.764  12.407  0.2221 -0.1336  0.4817
  659DOPS   GL1 7721   7.488  15.721  12.474  0.0039  0.0605 -0.1491
  659DOPS   GL2 7722   7.535  16.003  12.460  0.0291 -0.1112 -0.2622
  659DOPS   C1A 7723   7.839  15.778  12.136  0.0437 -0.2780 -0.1599
  659DOPS   D2A 7724   8.192  16.015  12.088  0.1227 -0.5825  0.0292
  659DOPS   C3A 7725   8.378  16.177  12.424  0.0223  0.3118 -0.1459
  659DOPS   C4A 7726   8.494  16.476  12.684 -0.1866 -0.0390  0.1835
  659DOPS   C1B 7727   7.922  16.207  12.577  0.3684 -0.1890  0.0860
  659DOPS   D2B 7728   8.183  16.155  12.975 -0.3822  0.1319  0.2421
  659DOPS   C3B 7729   8.540  16.349  13.170 -0.1233 -0.3158 -0.0275
  659DOPS   C4B 7730   8.850  16.693  12.971 -0.1762 -0.1667 -0.0447
  660POSM   NC3 7731   6.634  11.921  12.848 -0.0033 -0.0175  0.2015
  660POSM   PO4 7732   6.444  12.128  12.592  0.4595  0.0670  0.1479
  660POSM   AM1 7733   6.268  12.260  12.819 -0.0471 -0.4356  0.3255
  660POSM   AM2 7734   6.333  12.365  13.044 -0.4091 -0.0313  0.0033
  660POSM   T1A 7735   6.040  12.717  12.952 -0.0295  0.2295 -0.1750
  660POSM   C2A 7736   5.954  13.128  12.931 -0.1153  0.1385 -0.1822
  660POSM   C3A 7737   6.246  13.509  12.985  0.0554 -0.0657  0.0349
  660POSM   C1B 7738   6.293  12.395  13.385 -0.0150 -0.0093  0.0241
  660POSM   D2B 7739   6.281  12.255  13.820  0.2141  0.1314  0.1180
  660POSM   C3B 7740   5.910  12.356  14.128 -0.0219 -0.1678  0.0943
  660POSM   C4B 7741   5.497  12.234  14.096  0.0136  0.0764 -0.0986
  661DOPE   NH3 7742  10.677  15.027  12.410  0.2286 -0.1188 -0.1917
  661DOPE   PO4 7743  10.427  14.829  12.322 -0.0668 -0.2105  0.1917
  661DOPE   GL1 7744  10.109  14.962  12.084 -0.0590  0.0461 -0.0793
  661DOPE   GL2 7745  10.202  15.198  11.954 -0.1247 -0.0790  0.3045
  661DOPE   C1A 7746   9.655  14.815  12.109 -0.1572  0.0734  0.3644
  661DOPE   D2A 7747   9.318  14.654  12.330  0.1217 -0.3375 -0.2523
  661DOPE   C3A 7748   9.386  14.908  12.717 -0.0411  0.5027 -0.0266
  661DOPE   C4A 7749   9.156  14.928  13.088  0.1938  0.1898  0.1053
  661DOPE   C1B 7750   9.726  15.312  11.951 -0.0312 -0.2008 -0.1331
  661DOPE   D2B 7751   9.465  15.183  12.320  0.1777  0.1200  0.0847
  661DOPE   C3B 7752   9.723  15.262  12.698 -0.1613 -0.0432  0.5106
  661DOPE   C4B 7753   9.714  15.378  13.154  0.0288 -0.0097  0.1175
  662DOPE   NH3 7754  10.804  23.260  12.720  0.0975  0.4952 -0.0847
  662DOPE   PO4 7755  10.604  23.258  12.458 -0.2099  0.0839  0.0040
  662DOPE   GL1 7756  10.462  22.981  12.754  0.1151 -0.0120  0.1783
  662DOPE   GL2 7757  10.494  22.738  12.587  0.0043 -0.0458 -0.0551
  662DOPE   C1A 7758  10.427  22.808  13.141 -0.0279 -0.3729  0.0197
  662DOPE   D2A 7759  10.236  22.370  13.214 -0.0790  0.1546  0.1204
  662DOPE   C3A 7760  10.206  22.109  13.573  0.1242  0.0738  0.0484
  662DOPE   C4A 7761  10.147  21.804  13.922 -0.1491 -0.0605 -0.0716
  662DOPE   C1B 7762  10.216  22.398  12.628  0.1940 -0.0357  0.0298
  662DOPE   D2B 7763  10.387  21.962  12.751  0.3002 -0.1911 -0.0371
  662DOPE   C3B 7764  10.148  21.637  12.562  0.1830 -0.0000 -0.0843
  662DOPE   C4B 7765   9.919  21.327  12.318  0.0883  0.0680 -0.0420
  663DOPE   NH3 7766   3.569  19.062  13.297  0.0898  0.2390  0.2607
  663DOPE   PO4 7767   3.526  18.957  12.985  0.1080 -0.1224  0.1064
  663DOPE   GL1 7768   3.882  18.752  12.932 -0.0931  0.1320  0.4025
  663DOPE   GL2 7769   4.107  18.734  12.693 -0.0075 -0.2446 -0.1961
  663DOPE   C1A 7770   4.262  18.777  13.243  0.1230  0.2868 -0.0551
  663DOPE   D2A 7771   4.422  19.021  13.629  0.1581 -0.3061  0.1007
  663DOPE   C3A 7772   4.500  18.897  14.084  0.1831  0.0457  0.0330
  663DOPE   C4A 7773   4.757  18.693  14.427  0.0014  0.0224  0.0654
  663DOPE   C1B 7774   4.305  18.346  12.755 -0.1092  0.3106  0.3254
  663DOPE   D2B 7775   4.697  18.145  12.985  0.1610 -0.3073  0.0866
  663DOPE   C3B 7776   4.814  18.054  13.418  0.0540 -0.0661  0.2182
  663DOPE   C4B 7777   5.047  17.849  13.721  0.0014 -0.0571 -0.5506
  664DOPE   NH3 7778   0.011  14.326  12.799 -0.1313  0.2485  0.1950
  664DOPE   PO4 7779  -0.117  14.396  12.532  0.1162 -0.1657 -0.0573
  664DOPE   GL1 7780   0.412  14.295  12.628  0.0398  0.3586 -0.0051
  664DOPE   GL2 7781   0.556  14.277  12.883  0.2140 -0.1248 -0.3018
  664DOPE   C1A 7782   0.815  14.045  12.516 -0.0387 -0.3835 -0.0605
  664DOPE   D2A 7783   1.272  13.993  12.421 -0.3144  0.0941  0.0947
  664DOPE   C3A 7784   1.511  14.137  12.868 -0.1473 -0.1787 -0.1503
  664DOPE   C4A 7785   1.771  13.900  13.099 -0.0371 -0.3764 -0.2186
  664DOPE   C1B 7786   0.619  13.851  13.057  0.2444 -0.2179 -0.1506
  664DOPE   D2B 7787   0.773  13.439  13.214 -0.1503 -0.1026  0.1034
  664DOPE   C3B 7788   0.704  13.175  13.568  0.0810  0.0331 -0.0393
  664DOPE   C4B 7789   0.586  13.125  14.012 -0.1643 -0.5305 -0.2924
  665POSM   NC3 7790   0.319  14.630  13.175 -0.1226  0.1679 -0.1634
  665POSM   PO4 7791   0.337  14.716  12.801  0.2645  0.1872 -0.2473
  665POSM   AM1 7792   0.680  14.722  12.864 -0.0643  0.1702  0.2583
  665POSM   AM2 7793   0.769  14.779  13.131  0.1963 -0.3108 -0.0036
  665POSM   T1A 7794   1.062  14.406  12.853 -0.1256  0.1095  0.2206
  665POSM   C2A 7795   1.101  14.056  13.120  0.0936  0.2468  0.2962
  665POSM   C3A 7796   0.889  13.926  13.498 -0.1629 -0.1006  0.1965
  665POSM   C1B 7797   0.959  14.548  13.366 -0.0926  0.1637  0.0471
  665POSM   D2B 7798   1.093  14.360  13.790 -0.1315 -0.1888  0.2194
  665POSM   C3B 7799   1.382  13.965  13.562 -0.2113 -0.2370 -0.1855
  665POSM   C4B 7800   1.292  13.619  13.268 -0.0252 -0.1638 -0.1571
  666DOPC   NC3 7801   9.550  20.037  12.676 -0.2625  0.0434  0.3003
  666DOPC   PO4 7802   9.749  20.144  12.316 -0.0021 -0.0671  0.0957
  666DOPC   GL1 7803   9.911  20.297  12.577 -0.2854 -0.0092 -0.6359
  666DOPC   GL2 7804  10.123  20.479  12.480  0.0114 -0.0925  0.0271
  666DOPC   C1A 7805  10.151  20.266  12.978  0.2911  0.2122  0.1126
  666DOPC   D2A 7806  10.338  20.399  13.313  0.0372  0.0178  0.4108
  666DOPC   C3A 7807  10.690  20.675  13.309 -0.0082  0.0782  0.0725
  666DOPC   C4A 7808  11.022  20.713  13.668 -0.1911  0.1813  0.3375
  666DOPC   C1B 7809   9.833  20.791  12.372  0.2178  0.0304 -0.1663
  666DOPC   D2B 7810   9.479  21.052  12.476 -0.1876 -0.2021 -0.1621
  666DOPC   C3B 7811   9.611  21.441  12.728 -0.2547  0.1416  0.1270
  666DOPC   C4B 7812   9.896  21.552  13.042  0.1995 -0.1123 -0.0714
  667DOPC   NC3 7813   5.938  22.121  12.348 -0.3080  0.2453  0.2201
  667DOPC   PO4 7814   5.707  22.056  12.676 -0.0032  0.0147  0.4140
  667DOPC   GL1 7815   5.671  21.807  12.985 -0.2555 -0.0811 -0.3179
  667DOPC   GL2 7816   5.843  21.584  12.830  0.3224 -0.2860 -0.2061
  667DOPC   C1A 7817   5.912  21.540  13.336  0.0746  0.0860  0.1743
  667DOPC   D2A 7818   6.029  21.285  13.728 -0.0411 -0.0466 -0.1861
  667DOPC   C3A 7819   5.925  21.268  14.162 -0.0512 -0.0897  0.0704
  667DOPC   C4A 7820   5.848  21.234  14.635  0.1939 -0.1330 -0.1191
  667DOPC   C1B 7821   5.997  21.141  12.973  0.2528  0.0241 -0.0876
  667DOPC   D2B 7822   5.940  20.773  13.280 -0.1747 -0.0179 -0.0008
  667DOPC   C3B 7823   6.199  20.721  13.722 -0.2316  0.0488  0.0458
  667DOPC   C4B 7824   6.135  20.868  14.103 -0.3134 -0.2739 -0.1271
  668POSM   NC3 7825   1.644  16.852  12.633  0.2577  0.1970  0.3068
  668POSM   PO4 7826   1.224  16.784  12.560  0.0166  0.2054  0.0922
  668POSM   AM1 7827   1.176  16.834  12.903 -0.0262  0.0772  0.1081
  668POSM   AM2 7828   1.296  17.055  13.055 -0.0332  0.1370  0.1569
  668POSM   T1A 7829   0.875  16.878  13.283 -0.0822  0.0458 -0.0059
  668POSM   C2A 7830   0.835  16.751  13.750 -0.1255  0.0762 -0.0155
  668POSM   C3A 7831   1.015  16.620  14.098 -0.1690  0.2727  0.1846
  668POSM   C1B 7832   1.257  17.184  13.353 -0.0663 -0.0203 -0.5441
  668POSM   D2B 7833   0.952  17.459  13.569 -0.0884  0.4190  0.1398
  668POSM   C3B 7834   0.778  17.497  14.026  0.2130  0.0848  0.1012
  668POSM   C4B 7835   0.489  17.455  14.376 -0.2546 -0.2232  0.0395
  669POSM   NC3 7836   7.966  18.482  13.054  0.3935 -0.0886  0.3932
  669POSM   PO4 7837   8.108  18.412  12.698 -0.2204 -0.0691 -0.4241
  669POSM   AM1 7838   8.245  18.189  12.930  0.1512  0.0070  0.0270
  669POSM   AM2 7839   8.448  18.139  13.089  0.0186  0.0203 -0.1765
  669POSM   T1A 7840   8.379  17.718  12.955  0.2096 -0.1380 -0.3355
  669POSM   C2A 7841   8.402  17.397  13.216  0.3285  0.1400  0.0463
  669POSM   C3A 7842   8.615  16.971  13.292  0.0836  0.2236 -0.1594
  669POSM   C1B 7843   8.519  18.004  13.323 -0.1529  0.0769  0.2120
  669POSM   D2B 7844   8.275  17.708  13.572 -0.2882 -0.2991  0.0327
  669POSM   C3B 7845   7.987  17.816  13.906  0.3872 -0.0085 -0.0328
  669POSM   C4B 7846   7.810  18.110  14.208 -0.2581 -0.3402 -0.0904
  670DOPS   CNO 7847   8.207  13.968  12.376 -0.1256  0.1178  0.1576
  670DOPS   PO4 7848   8.554  14.114  12.343  0.2467 -0.1290  0.0667
  670DOPS   GL1 7849   8.567  14.001  12.716 -0.2084  0.3404 -0.2159
  670DOPS   GL2 7850   8.783  14.213  12.804  0.3222 -0.1174  0.2075
  670DOPS   C1A 7851   8.250  13.981  13.132 -0.0640  0.0663 -0.0723
  670DOPS   D2A 7852   8.150  13.892  13.633 -0.0994  0.0556 -0.0184
  670DOPS   C3A 7853   7.718  13.806  13.691 -0.0583 -0.2751  0.0471
  670DOPS   C4A 7854   7.261  13.921  13.737  0.0656 -0.1525  0.0230
  670DOPS   C1B 7855   8.803  14.637  12.674 -0.0065  0.1084  0.0068
  670DOPS   D2B 7856   8.882  15.082  12.701  0.0768  0.0615 -0.2281
  670DOPS   C3B 7857   9.143  15.509  12.624  0.1352  0.2157 -0.1437
  670DOPS   C4B 7858   9.521  15.773  12.688 -0.0092  0.1320 -0.1336
  671DOPE   NH3 7859   6.795  19.189  12.748  0.2323  0.0516 -0.1347
  671DOPE   PO4 7860   6.833  19.194  12.466  0.0060 -0.0443  0.1197
  671DOPE   GL1 7861   7.108  19.498  12.512  0.1377 -0.2514  0.1013
  671DOPE   GL2 7862   7.337  19.620  12.414 -0.4065  0.3199  0.0546
  671DOPE   C1A 7863   7.135  19.623  12.929  0.0125 -0.2059  0.0210
  671DOPE   D2A 7864   7.252  19.769  13.397 -0.0409 -0.0555 -0.0345
  671DOPE   C3A 7865   7.629  19.864  13.644  0.1232 -0.1775  0.2069
  671DOPE   C4A 7866   7.823  20.229  13.675 -0.0355 -0.1826  0.1838
  671DOPE   C1B 7867   7.653  19.880  12.286 -0.2631 -0.0656 -0.0919
  671DOPE   D2B 7868   7.792  20.261  12.554 -0.1776 -0.4398 -0.3114
  671DOPE   C3B 7869   7.903  20.568  12.315 -0.1224 -0.4079  0.0904
  671DOPE   C4B 7870   7.954  20.817  11.903  0.2333 -0.0958 -0.0092
  672DOPC   NC3 7871   6.627  16.451  13.075  0.0776  0.0044  0.0511
  672DOPC   PO4 7872   6.539  16.083  12.962 -0.0900 -0.3112 -0.0842
  672DOPC   GL1 7873   6.182  16.069  13.266  0.1737 -0.4380  0.1583
  672DOPC   GL2 7874   6.020  15.843  13.299 -0.2344 -0.2681  0.0569
  672DOPC   C1A 7875   6.130  15.978  13.731 -0.1332  0.0850 -0.2372
  672DOPC   D2A 7876   6.175  15.621  14.061  0.1048  0.2419  0.0291
  672DOPC   C3A 7877   6.347  15.476  14.457 -0.2993  0.1907  0.0951
  672DOPC   C4A 7878   6.784  15.443  14.631 -0.2411  0.3514 -0.0010
  672DOPC   C1B 7879   5.636  16.096  13.462 -0.2309 -0.2594 -0.0421
  672DOPC   D2B 7880   5.539  16.275  13.882  0.1532  0.2757 -0.1392
  672DOPC   C3B 7881   5.170  16.285  14.194 -0.0061 -0.1057  0.2620
  672DOPC   C4B 7882   5.030  16.376  14.612 -0.3301  0.4464 -0.4485
  673DOPC   NC3 7883   5.062  19.786  13.053  0.1288  0.2165 -0.0191
  673DOPC   PO4 7884   4.865  19.670  12.744  0.1954  0.0473 -0.1432
  673DOPC   GL1 7885   4.646  19.474  13.091  0.1557 -0.0302 -0.3453
  673DOPC   GL2 7886   4.394  19.329  13.012 -0.1958 -0.2001  0.1053
  673DOPC   C1A 7887   4.461  19.471  13.530 -0.0696 -0.4242  0.0265
  673DOPC   D2A 7888   4.445  19.430  14.010  0.1789  0.1572 -0.1715
  673DOPC   C3A 7889   4.331  19.803  14.271 -0.1198 -0.0630  0.1096
  673DOPC   C4A 7890   4.330  20.234  14.379 -0.0650 -0.1099  0.2745
  673DOPC   C1B 7891   4.661  18.971  13.025 -0.1168  0.1133 -0.1697
  673DOPC   D2B 7892   4.876  18.604  13.244  0.0972 -0.0522  0.2638
  673DOPC   C3B 7893   5.078  18.471  13.702  0.0570 -0.1931  0.2200
  673DOPC   C4B 7894   5.257  18.481  14.135  0.0171 -0.2848  0.1837
  674DOPC   NC3 7895   4.257  21.593  12.692  0.2566  0.0728  0.0021
  674DOPC   PO4 7896   4.487  21.311  12.842  0.0137  0.1969 -0.2107
  674DOPC   GL1 7897   4.530  21.304  13.148  0.0269 -0.3264  0.0539
  674DOPC   GL2 7898   4.419  21.086  13.315 -0.1042 -0.4084 -0.0655
  674DOPC   C1A 7899   4.969  21.251  13.213  0.0256 -0.0902 -0.1065
  674DOPC   D2A 7900   5.183  21.322  13.622 -0.1401  0.3803 -0.1696
  674DOPC   C3A 7901   4.963  21.209  14.049  0.2651  0.3234  0.0569
  674DOPC   C4A 7902   4.755  21.211  14.458 -0.0120  0.0021  0.2348
  674DOPC   C1B 7903   4.656  21.431  13.573  0.0559 -0.2657 -0.0641
  674DOPC   D2B 7904   4.971  21.798  13.627  0.1897  0.1346 -0.2878
  674DOPC   C3B 7905   5.092  21.756  14.045 -0.0835 -0.5005  0.0845
  674DOPC   C4B 7906   5.250  21.875  14.439  0.1900 -0.0715 -0.1183
  675DOPE   NH3 7907   7.509  13.187  12.347  0.2269 -0.0847  0.3999
  675DOPE   PO4 7908   7.781  13.030  12.496  0.1543  0.3423 -0.0863
  675DOPE   GL1 7909   7.565  12.775  12.648 -0.1031 -0.0324 -0.1075
  675DOPE   GL2 7910   7.274  12.870  12.627 -0.2569 -0.4446 -0.2236
  675DOPE   C1A 7911   7.502  12.727  13.057  0.0719 -0.1698  0.0717
  675DOPE   D2A 7912   7.157  12.632  13.336  0.0506 -0.1695 -0.0163
  675DOPE   C3A 7913   7.173  12.215  13.550 -0.2928  0.2748 -0.4713
  675DOPE   C4A 7914   6.843  12.033  13.776 -0.0898 -0.2081 -0.0166
  675DOPE   C1B 7915   7.002  13.017  13.001  0.2199  0.2394 -0.3525
  675DOPE   D2B 7916   6.972  13.053  13.449  0.1521  0.1501 -0.3535
  675DOPE   C3B 7917   7.135  12.803  13.815  0.1808  0.2253  0.1689
  675DOPE   C4B 7918   7.101  12.443  14.014 -0.2256  0.2083  0.1419
  676DOPC   NC3 7919   9.430  19.153  12.147  0.2570 -0.2548 -0.0093
  676DOPC   PO4 7920   9.282  19.125  12.561 -0.0248  0.1417 -0.1825
  676DOPC   GL1 7921   9.170  19.167  12.993 -0.4167 -0.1871  0.1786
  676DOPC   GL2 7922   8.940  19.038  13.092 -0.1534 -0.1361  0.2104
  676DOPC   C1A 7923   9.500  19.379  13.271  0.0579  0.2279  0.0660
  676DOPC   D2A 7924   9.744  19.637  13.546  0.0444 -0.1247  0.4279
  676DOPC   C3A 7925  10.001  19.721  13.912  0.0510  0.1160  0.1093
  676DOPC   C4A 7926  10.482  19.640  13.986  0.1966 -0.1320  0.1632
  676DOPC   C1B 7927   8.948  19.287  13.444 -0.5323  0.1337 -0.4495
  676DOPC   D2B 7928   8.773  19.687  13.483  0.2835  0.3298 -0.3278
  676DOPC   C3B 7929   9.081  19.996  13.562  0.1787 -0.1349  0.0104
  676DOPC   C4B 7930   9.018  20.409  13.679  0.0310 -0.1168 -0.0643
  677POSM   NC3 7931   1.637  15.510  12.985 -0.3657 -0.3948 -0.1501
  677POSM   PO4 7932   1.977  15.620  12.754 -0.1532 -0.2391  0.2215
  677POSM   AM1 7933   2.167  15.345  12.823 -0.2696 -0.3217 -0.0791
  677POSM   AM2 7934   2.156  15.264  13.088 -0.1511  0.2024 -0.2107
  677POSM   T1A 7935   2.600  15.074  12.837 -0.0810 -0.2230 -0.1891
  677POSM   C2A 7936   2.817  14.838  13.123  0.2621  0.0673  0.1704
  677POSM   C3A 7937   3.140  14.739  13.476  0.1749 -0.2218 -0.2922
  677POSM   C1B 7938   2.430  15.371  13.256 -0.0892  0.3716  0.0783
  677POSM   D2B 7939   2.761  15.329  13.572 -0.2666 -0.2198  0.0775
  677POSM   C3B 7940   2.861  15.560  13.931 -0.1097 -0.0334 -0.1268
  677POSM   C4B 7941   2.975  15.975  14.053  0.2094  0.1975 -0.2903
  678DOPS   CNO 7942   3.065  11.422  12.220  0.1861 -0.0129 -0.0892
  678DOPS   PO4 7943   2.751  11.298  12.398  0.0643  0.0026 -0.1634
  678DOPS   GL1 7944   2.623  10.954  12.620 -0.1283  0.2167 -0.2917
  678DOPS   GL2 7945   2.928  10.791  12.826  0.1800 -0.1949 -0.1188
  678DOPS   C1A 7946   2.403  10.545  12.594 -0.0847  0.2606  0.3003
  678DOPS   D2A 7947   2.283  10.127  12.563  0.3018 -0.0468 -0.0337
  678DOPS   C3A 7948   1.828  10.127  12.438  0.1743  0.0328  0.3860
  678DOPS   C4A 7949   1.367  10.285  12.606 -0.2490 -0.1026 -0.2890
  678DOPS   C1B 7950   2.517  10.740  13.109  0.1107 -0.0080  0.0680
  678DOPS   D2B 7951   2.249  10.835  13.472 -0.4157  0.2646  0.0128
  678DOPS   C3B 7952   2.266  11.003  13.940  0.3952 -0.0623  0.2288
  678DOPS   C4B 7953   2.173  10.880  14.364 -0.0810 -0.2549 -0.0390
  679DOPE   NH3 7954   2.124  17.139  13.195  0.2569  0.0468 -0.2223
  679DOPE   PO4 7955   2.094  17.210  12.868 -0.1236 -0.0373  0.0154
  679DOPE   GL1 7956   1.702  17.290  12.966  0.0853  0.0333 -0.1163
  679DOPE   GL2 7957   1.675  17.416  13.237 -0.1544 -0.2314 -0.1483
  679DOPE   C1A 7958   1.334  17.494  12.831 -0.0128 -0.2025  0.0692
  679DOPE   D2A 7959   0.875  17.297  12.810  0.2938  0.1517  0.2191
  679DOPE   C3A 7960   0.643  17.323  13.195 -0.2531 -0.0887 -0.0732
  679DOPE   C4A 7961   0.429  17.397  13.595  0.3466 -0.2524  0.3388
  679DOPE   C1B 7962   1.396  17.811  13.311  0.1283  0.3157  0.1705
  679DOPE   D2B 7963   1.243  18.097  13.631  0.1237  0.1228  0.0476
  679DOPE   C3B 7964   1.423  18.533  13.746 -0.0026 -0.3146  0.2691
  679DOPE   C4B 7965   1.366  18.918  14.044 -0.1351  0.1813  0.0778
  680POSM   NC3 7966   0.030  13.589  12.397  0.0181  0.0954  0.4041
  680POSM   PO4 7967   0.145  13.928  12.522 -0.3834  0.0425 -0.0149
  680POSM   AM1 7968   0.201  13.897  12.865  0.0873  0.2402 -0.1378
  680POSM   AM2 7969   0.109  13.768  13.124  0.0820 -0.0389 -0.3119
  680POSM   T1A 7970   0.289  14.149  13.282  0.1086 -0.0290  0.0515
  680POSM   C2A 7971   0.593  14.284  13.600 -0.0728 -0.0835 -0.1078
  680POSM   C3A 7972   0.555  14.574  13.987 -0.1974 -0.1852  0.0772
  680POSM   C1B 7973   0.328  13.617  13.340  0.1275  0.1192 -0.4187
  680POSM   D2B 7974   0.597  13.600  13.748 -0.0576  0.0484  0.2224
  680POSM   C3B 7975   0.616  13.586  14.148  0.1713  0.1352  0.1495
  680POSM   C4B 7976   0.265  13.438  14.372  0.1130 -0.0311  0.0318
  681DOPC   NC3 7977   5.592  15.589  13.167 -0.2961 -0.1103 -0.2195
  681DOPC   PO4 7978   5.752  15.697  12.796  0.0185  0.2105 -0.1119
  681DOPC   GL1 7979   5.541  16.033  12.995  0.1472 -0.0865  0.3400
  681DOPC   GL2 7980   5.742  16.221  12.995  0.0022 -0.1478 -0.1986
  681DOPC   C1A 7981   5.121  16.170  13.181  0.0488 -0.0902  0.0907
  681DOPC   D2A 7982   4.748  16.271  13.454  0.1084  0.0774  0.0000
  681DOPC   C3A 7983   4.809  16.626  13.707 -0.0009 -0.1473 -0.0360
  681DOPC   C4A 7984   4.805  16.673  14.162  0.2925 -0.1893 -0.0965
  681DOPC   C1B 7985   5.661  16.564  13.303  0.0369  0.1634  0.1059
  681DOPC   D2B 7986   5.878  16.825  13.601  0.0857 -0.0731  0.0913
  681DOPC   C3B 7987   5.505  16.825  13.923 -0.1407  0.0938 -0.3129
  681DOPC   C4B 7988   5.338  16.721  14.315 -0.0721  0.0905  0.0554
  682DOPS   CNO 7989   2.794  12.361  12.467  0.0511  0.1832 -0.1306
  682DOPS   PO4 7990   2.581  12.148  12.772  0.1044  0.0222  0.4072
  682DOPS   GL1 7991   2.552  12.125  13.238 -0.3136  0.2005  0.1718
  682DOPS   GL2 7992   2.734  12.388  13.347 -0.0707 -0.1211  0.0279
  682DOPS   C1A 7993   2.619  11.940  13.641  0.4624  0.1103  0.0807
  682DOPS   D2A 7994   2.616  11.929  14.126  0.2324 -0.0801  0.1529
  682DOPS   C3A 7995   2.710  11.486  14.194  0.2185 -0.0197 -0.1177
  682DOPS   C4A 7996   2.715  11.029  14.124 -0.3321 -0.1074  0.0158
  682DOPS   C1B 7997   3.080  12.130  13.531 -0.1884 -0.0775 -0.1892
  682DOPS   D2B 7998   3.037  11.746  13.831  0.0213  0.1008  0.3072
  682DOPS   C3B 7999   3.078  11.819  14.354 -0.0281  0.2210 -0.1358
  682DOPS   C4B 8000   3.252  11.898  14.724  0.1484  0.0427  0.3069
  683DOPC   NC3 8001   0.913  15.550  12.770 -0.3870 -0.0105 -0.0937
  683DOPC   PO4 8002   1.173  15.768  12.948 -0.0693 -0.2644  0.1040
  683DOPC   GL1 8003   1.185  15.660  13.282 -0.0436 -0.0439 -0.1069
  683DOPC   GL2 8004   1.479  15.793  13.369  0.0072  0.0777 -0.2634
  683DOPC   C1A 8005   1.106  15.662  13.748 -0.1014  0.3095  0.0718
  683DOPC   D2A 8006   1.423  15.914  14.041  0.1387  0.4211 -0.0920
  683DOPC   C3A 8007   1.362  16.279  14.209 -0.1687  0.1825  0.4602
  683DOPC   C4A 8008   1.201  16.512  14.592  0.1548 -0.0318 -0.3246
  683DOPC   C1B 8009   1.588  15.616  13.749 -0.0021  0.2364  0.1763
  683DOPC   D2B 8010   1.875  15.316  13.993  0.1794  0.0471 -0.1679
  683DOPC   C3B 8011   2.206  15.048  13.828  0.2295 -0.1184  0.1974
  683DOPC   C4B 8012   2.286  14.549  13.926 -0.0293  0.0556  0.4018
  684DOPC   NC3 8013   4.713  15.245  13.774  0.2737 -0.2009 -0.0835
  684DOPC   PO4 8014   4.854  15.040  13.444 -0.0831 -0.3267  0.2897
  684DOPC   GL1 8015   4.749  14.764  13.680 -0.1817 -0.0104  0.0138
  684DOPC   GL2 8016   4.459  14.713  13.620  0.0083  0.0283  0.4085
  684DOPC   C1A 8017   4.675  14.350  13.918  0.1193  0.1422  0.0229
  684DOPC   D2A 8018   4.356  14.267  14.187  0.1970  0.0443 -0.0613
  684DOPC   C3A 8019   4.406  14.599  14.499  0.0615  0.0842 -0.3448
  684DOPC   C4A 8020   4.360  15.058  14.423 -0.2440 -0.0426  0.0138
  684DOPC   C1B 8021   4.054  14.927  13.471 -0.1548 -0.1824  0.2968
  684DOPC   D2B 8022   3.888  14.885  13.005 -0.1088  0.5277  0.2500
  684DOPC   C3B 8023   3.583  14.679  12.692 -0.0192 -0.0424  0.1850
  684DOPC   C4B 8024   3.301  14.920  12.372 -0.3458 -0.0898  0.0424
  685DOPE   NH3 8025   6.335  14.441  13.161  0.0498 -0.0243 -0.0116
  685DOPE   PO4 8026   6.032  14.434  13.245 -0.0433 -0.1328  0.2768
  685DOPE   GL1 8027   6.243  14.190  13.549 -0.0299  0.4714 -0.1162
  685DOPE   GL2 8028   6.467  14.032  13.396 -0.1114  0.0333  0.2777
  685DOPE   C1A 8029   6.571  14.228  13.879 -0.0069 -0.2675  0.1845
  685DOPE   D2A 8030   6.791  14.108  14.286  0.2018  0.1230  0.1749
  685DOPE   C3A 8031   6.437  13.828  14.458  0.3943  0.0674  0.2730
  685DOPE   C4A 8032   6.182  13.563  14.785 -0.0322  0.0328  0.0205
  685DOPE   C1B 8033   6.253  13.635  13.473 -0.0943 -0.1553  0.1926
  685DOPE   D2B 8034   6.069  13.375  13.835  0.0165 -0.0999 -0.2738
  685DOPE   C3B 8035   6.404  13.331  14.207  0.0666 -0.1453 -0.0825
  685DOPE   C4B 8036   6.627  13.064  14.542  0.0592  0.0061  0.0849
  686DOPC   NC3 8037   0.723  14.747  12.411 -0.3131  0.3022  0.1484
  686DOPC   PO4 8038   0.839  15.086  12.611  0.0646 -0.1270  0.0223
  686DOPC   GL1 8039   1.118  14.830  12.815 -0.0143  0.3641  0.0989
  686DOPC   GL2 8040   1.355  14.802  13.056 -0.0109  0.1651  0.0576
  686DOPC   C1A 8041   1.467  14.553  12.620 -0.3112  0.1295 -0.1573
  686DOPC   D2A 8042   1.778  14.288  12.374 -0.0600  0.0510 -0.0105
  686DOPC   C3A 8043   1.847  13.857  12.550 -0.2581 -0.2248  0.0146
  686DOPC   C4A 8044   1.530  13.619  12.793  0.0204 -0.0163  0.1871
  686DOPC   C1B 8045   1.504  14.420  13.277  0.3755  0.0989  0.2224
  686DOPC   D2B 8046   1.609  14.441  13.774  0.0333 -0.0415 -0.0841
  686DOPC   C3B 8047   1.493  14.382  14.206  0.0170  0.1845  0.0073
  686DOPC   C4B 8048   1.467  14.123  14.588 -0.0248  0.1013 -0.0604
  687DOPC   NC3 8049   6.347  22.865  12.623  0.0271 -0.0555  0.2038
  687DOPC   PO4 8050   6.666  22.961  12.447  0.0759  0.1337 -0.3032
  687DOPC   GL1 8051   6.888  23.011  12.719  0.0359  0.1583  0.0432
  687DOPC   GL2 8052   7.111  23.157  12.544 -0.1494  0.1772 -0.2407
  687DOPC   C1A 8053   7.026  23.195  13.077  0.1320  0.0761  0.1799
  687DOPC   D2A 8054   7.084  23.508  13.468  0.0288  0.1932  0.2438
  687DOPC   C3A 8055   7.399  23.529  13.785  0.1988 -0.2517 -0.1072
  687DOPC   C4A 8056   7.567  23.464  14.151  0.0994 -0.2570 -0.2434
  687DOPC   C1B 8057   7.469  23.089  12.877 -0.3512 -0.1089  0.0010
  687DOPC   D2B 8058   7.788  22.889  13.246 -0.0594  0.1861  0.0071
  687DOPC   C3B 8059   8.171  22.846  13.541  0.0508  0.1584  0.0398
  687DOPC   C4B 8060   8.348  22.800  13.935 -0.3864 -0.2052  0.0995
  688POSM   NC3 8061   4.440  22.143  12.773  0.3207  0.2912  0.3411
  688POSM   PO4 8062   4.781  22.029  13.005  0.3006 -0.0607 -0.0908
  688POSM   AM1 8063   4.778  22.176  13.294 -0.1309  0.0594  0.0008
  688POSM   AM2 8064   4.561  22.309  13.407 -0.0002 -0.0461 -0.3604
  688POSM   T1A 8065   5.028  22.301  13.709  0.4003  0.1314 -0.0653
  688POSM   C2A 8066   5.380  22.130  14.003 -0.0145 -0.0395 -0.1289
  688POSM   C3A 8067   5.699  21.901  14.312 -0.0654  0.0365 -0.0525
  688POSM   C1B 8068   4.515  22.262  13.715  0.0593 -0.0241  0.2860
  688POSM   D2B 8069   4.760  22.275  14.156 -0.0101 -0.1319  0.4192
  688POSM   C3B 8070   4.808  22.638  14.427 -0.0300  0.0008 -0.1860
  688POSM   C4B 8071   4.896  23.085  14.329 -0.1020 -0.1241  0.1844
  689DOPE   NH3 8072   5.220  15.252  13.098 -0.1248  0.1684  0.0658
  689DOPE   PO4 8073   5.409  15.191  12.833  0.2579  0.2447  0.1311
  689DOPE   GL1 8074   5.134  15.477  12.664 -0.2242  0.1605 -0.1262
  689DOPE   GL2 8075   5.227  15.726  12.867 -0.0472  0.0436 -0.2551
  689DOPE   C1A 8076   4.725  15.706  12.736  0.0314 -0.0137 -0.1928
  689DOPE   D2A 8077   4.413  16.025  12.889 -0.2871  0.1492 -0.1662
  689DOPE   C3A 8078   4.639  16.454  12.990 -0.2139  0.0329 -0.1468
  689DOPE   C4A 8079   4.869  16.856  13.167  0.1426  0.0999  0.2014
  689DOPE   C1B 8080   4.885  15.670  13.188  0.0590  0.3254  0.3667
  689DOPE   D2B 8081   4.630  15.770  13.512 -0.1360  0.0891  0.0530
  689DOPE   C3B 8082   4.843  15.754  13.906 -0.0188 -0.1430 -0.1999
  689DOPE   C4B 8083   4.819  15.824  14.374 -0.3482  0.1108  0.0178
  690DOPS   CNO 8084   4.678  15.189  12.570  0.2272  0.1950  0.2347
  690DOPS   PO4 8085   4.844  15.021  12.862  0.0345 -0.1277  0.1761
  690DOPS   GL1 8086   4.482  15.191  13.051  0.3070 -0.1971  0.1853
  690DOPS   GL2 8087   4.486  15.368  13.291 -0.1394 -0.0318 -0.1364
  690DOPS   C1A 8088   4.148  15.411  12.781  0.0512 -0.2572  0.0408
  690DOPS   D2A 8089   3.674  15.427  12.856  0.1811 -0.0954 -0.0124
  690DOPS   C3A 8090   3.518  15.708  13.202 -0.2385  0.1055  0.0975
  690DOPS   C4A 8091   3.634  15.908  13.604 -0.0928  0.0495 -0.1193
  690DOPS   C1B 8092   4.223  15.310  13.741  0.2141  0.0678  0.1400
  690DOPS   D2B 8093   3.944  15.026  14.037  0.1392  0.2579  0.0796
  690DOPS   C3B 8094   3.486  15.133  14.089 -0.0846  0.1997  0.1028
  690DOPS   C4B 8095   3.104  15.100  13.852 -0.0542 -0.0421 -0.0989
  691DOPC   NC3 8096   4.774  22.566  13.028 -0.1565  0.0481 -0.0535
  691DOPC   PO4 8097   4.596  22.626  12.677  0.0008  0.0576  0.1907
  691DOPC   GL1 8098   4.318  22.728  12.926 -0.1174 -0.2649 -0.2577
  691DOPC   GL2 8099   4.206  22.465  13.084  0.2168 -0.2954  0.0790
  691DOPC   C1A 8100   4.455  22.920  13.299  0.0261 -0.0715  0.3041
  691DOPC   D2A 8101   4.531  23.154  13.641  0.1619  0.1077 -0.2254
  691DOPC   C3A 8102   4.132  23.397  13.810 -0.1464 -0.1288 -0.1440
  691DOPC   C4A 8103   3.992  23.776  14.038  0.0096  0.1779 -0.0916
  691DOPC   C1B 8104   4.121  22.536  13.511  0.1508  0.3108  0.1448
  691DOPC   D2B 8105   3.859  22.387  13.818  0.2739  0.1497 -0.3434
  691DOPC   C3B 8106   3.854  22.568  14.277 -0.6461  0.0977  0.1590
  691DOPC   C4B 8107   4.274  22.537  14.549  0.0818 -0.1272 -0.2671
  692DOPE   NH3 8108   0.312  15.201  12.754  0.0523  0.0769  0.1636
  692DOPE   PO4 8109   0.462  15.135  13.050 -0.2488 -0.2091 -0.1978
  692DOPE   GL1 8110   0.413  15.052  13.406 -0.0771 -0.0020 -0.0227
  692DOPE   GL2 8111   0.613  14.896  13.573  0.0071  0.0910  0.0520
  692DOPE   C1A 8112   0.259  15.048  13.847  0.0969  0.1664 -0.2177
  692DOPE   D2A 8113  -0.153  15.044  14.109  0.3961  0.1108  0.0137
  692DOPE   C3A 8114  -0.401  15.436  14.211 -0.2771 -0.1458 -0.0059
  692DOPE   C4A 8115  -0.701  15.726  14.255 -0.1877 -0.0046 -0.0587
  692DOPE   C1B 8116   0.816  15.137  13.913  0.1755  0.1192 -0.0894
  692DOPE   D2B 8117   0.604  15.157  14.345 -0.1686  0.2797  0.0931
  692DOPE   C3B 8118   0.233  14.858  14.446  0.1111 -0.0937 -0.2734
  692DOPE   C4B 8119  -0.059  14.542  14.626  0.1051  0.2004 -0.2182
  693DOPE   NH3 8120   6.225  17.982  12.608  0.2749  0.1897 -0.0560
  693DOPE   PO4 8121   5.954  17.913  12.426  0.1806  0.0117 -0.2343
  693DOPE   GL1 8122   5.724  17.899  12.792 -0.0292 -0.0298  0.0681
  693DOPE   GL2 8123   5.809  17.963  13.019 -0.0152 -0.0106  0.0386
  693DOPE   C1A 8124   5.288  17.752  12.872  0.1692 -0.2241 -0.1158
  693DOPE   D2A 8125   4.917  17.606  13.053 -0.3382  0.0701 -0.1566
  693DOPE   C3A 8126   5.129  17.427  13.435 -0.1897  0.3572 -0.1673
  693DOPE   C4A 8127   5.517  17.252  13.641  0.1406  0.0657  0.1179
  693DOPE   C1B 8128   5.624  17.865  13.455  0.0679  0.4613  0.2073
  693DOPE   D2B 8129   5.865  17.627  13.777  0.0087 -0.0085 -0.1109
  693DOPE   C3B 8130   5.545  17.713  14.109 -0.4827  0.0672  0.3078
  693DOPE   C4B 8131   5.065  17.546  14.161 -0.1891 -0.1030  0.0747
  694POSM   NC3 8132   8.954  18.789  12.701 -0.1359 -0.0173  0.0385
  694POSM   PO4 8133   8.587  18.993  12.592  0.2485  0.3929  0.0316
  694POSM   AM1 8134   8.558  19.273  12.758  0.3328  0.0268  0.0459
  694POSM   AM2 8135   8.409  19.555  12.793 -0.0237  0.0460 -0.1541
  694POSM   T1A 8136   8.512  19.272  13.244  0.1819 -0.0813 -0.0958
  694POSM   C2A 8137   8.523  19.082  13.611 -0.1202  0.0805  0.1969
  694POSM   C3A 8138   8.845  18.960  13.935  0.0252 -0.0586  0.1053
  694POSM   C1B 8139   8.111  19.484  12.953  0.1016 -0.0481 -0.1623
  694POSM   D2B 8140   7.941  19.521  13.389 -0.3264  0.1444 -0.0507
  694POSM   C3B 8141   8.312  19.634  13.703 -0.1115  0.1088 -0.2233
  694POSM   C4B 8142   8.714  19.464  13.957 -0.0449 -0.3312 -0.1156
  695POSM   NC3 8143   9.610  22.618  12.441 -0.3185  0.1147 -0.2234
  695POSM   PO4 8144   9.635  22.273  12.213  0.2141 -0.2083 -0.1182
  695POSM   AM1 8145   9.398  22.138  12.410 -0.1575  0.3502 -0.1642
  695POSM   AM2 8146   9.170  22.233  12.515  0.0085  0.1508 -0.1403
  695POSM   T1A 8147   9.141  21.755  12.500  0.1356 -0.0057  0.0839
  695POSM   C2A 8148   8.948  21.399  12.675  0.2867  0.1435 -0.0000
  695POSM   C3A 8149   8.960  21.330  13.121  0.2652 -0.3494 -0.1264
  695POSM   C1B 8150   9.117  22.404  12.762  0.0974  0.0612 -0.0698
  695POSM   D2B 8151   8.755  22.537  13.018 -0.1864  0.0386 -0.1571
  695POSM   C3B 8152   8.814  22.222  13.298  0.1389 -0.0089  0.0615
  695POSM   C4B 8153   9.068  22.083  13.643 -0.1946 -0.1718  0.0865
  696DOPC   NC3 8154   0.296  16.372  12.803  0.1392  0.0955 -0.0263
  696DOPC   PO4 8155   0.135  16.059  13.020  0.0400 -0.0914 -0.0562
  696DOPC   GL1 8156   0.479  16.222  13.209 -0.0579 -0.4896  0.0111
  696DOPC   GL2 8157   0.608  16.438  13.201  0.1980 -0.2013  0.0548
  696DOPC   C1A 8158   0.401  15.979  13.619  0.0564  0.3796 -0.0450
  696DOPC   D2A 8159   0.232  15.980  14.001 -0.0717 -0.1453 -0.0430
  696DOPC   C3A 8160   0.532  16.121  14.331 -0.3165 -0.0117 -0.1720
  696DOPC   C4A 8161   0.711  16.247  14.743  0.2709  0.0849 -0.0752
  696DOPC   C1B 8162   0.462  16.484  13.615  0.0162 -0.1453 -0.2097
  696DOPC   D2B 8163   0.389  16.505  14.034  0.1061  0.2260  0.0639
  696DOPC   C3B 8164   0.218  16.871  14.245  0.0038  0.1853  0.4023
  696DOPC   C4B 8165   0.240  17.242  13.971  0.1802 -0.1112  0.0943
  697DOPC   NC3 8166   4.479  21.743  13.229 -0.0890 -0.1192 -0.0210
  697DOPC   PO4 8167   4.158  21.917  13.137  0.1080 -0.0772  0.1844
  697DOPC   GL1 8168   4.109  21.927  13.530  0.1674 -0.1259  0.3386
  697DOPC   GL2 8169   3.871  21.862  13.620 -0.1220 -0.0365 -0.1888
  697DOPC   C1A 8170   4.383  21.774  13.856 -0.0289 -0.0009  0.0211
  697DOPC   D2A 8171   4.488  21.335  14.051 -0.3305 -0.3265 -0.0689
  697DOPC   C3A 8172   4.251  21.189  14.418 -0.0662  0.1687  0.1057
  697DOPC   C4A 8173   3.833  21.252  14.691  0.1360  0.2418 -0.0361
  697DOPC   C1B 8174   3.717  21.841  14.063  0.1842 -0.0648 -0.3336
  697DOPC   D2B 8175   3.771  21.953  14.477  0.0479 -0.3296 -0.2139
  697DOPC   C3B 8176   3.454  22.024  14.794  0.0599  0.0132 -0.1795
  697DOPC   C4B 8177   3.165  22.280  14.975  0.2681 -0.0651 -0.1284
  698DOPC   NC3 8178   6.089  18.844  12.794  0.1934 -0.1837  0.0003
  698DOPC   PO4 8179   6.445  18.867  12.546 -0.1810 -0.0850  0.2819
  698DOPC   GL1 8180   6.477  18.777  13.017  0.1132 -0.1525 -0.3986
  698DOPC   GL2 8181   6.717  18.938  13.159  0.2448 -0.1844  0.3180
  698DOPC   C1A 8182   6.565  18.445  13.344  0.2512  0.0927  0.1513
  698DOPC   D2A 8183   6.604  18.303  13.762  0.0682 -0.0704 -0.3986
  698DOPC   C3A 8184   6.845  17.970  14.016 -0.1479  0.4029 -0.2274
  698DOPC   C4A 8185   6.758  17.609  14.256 -0.0826  0.2011 -0.0656
  698DOPC   C1B 8186   6.665  18.847  13.644 -0.3132 -0.1733 -0.0079
  698DOPC   D2B 8187   6.560  18.710  14.086 -0.0404 -0.1354  0.3945
  698DOPC   C3B 8188   6.881  18.488  14.306  0.0626 -0.2353 -0.4000
  698DOPC   C4B 8189   7.210  18.420  14.617 -0.3451  0.2724 -0.0936
  699POSM   NC3 8190   1.825  15.713  12.202  0.1650 -0.1039  0.0662
  699POSM   PO4 8191   2.105  15.963  12.298 -0.1080  0.2663  0.0556
  699POSM   AM1 8192   2.277  15.684  12.411  0.5714  0.1769  0.2149
  699POSM   AM2 8193   2.211  15.410  12.340 -0.1501 -0.1237 -0.1491
  699POSM   T1A 8194   2.787  15.534  12.441 -0.1231  0.1640  0.2026
  699POSM   C2A 8195   3.052  15.265  12.721 -0.0457 -0.0970  0.1770
  699POSM   C3A 8196   3.341  14.983  12.971  0.3411  0.0236 -0.0510
  699POSM   C1B 8197   2.098  15.136  12.210  0.0870  0.1738  0.1458
  699POSM   D2B 8198   1.789  14.796  12.254  0.0728  0.0513 -0.2471
  699POSM   C3B 8199   1.463  14.507  12.068  0.2519 -0.0625 -0.1236
  699POSM   C4B 8200   1.447  14.066  11.933 -0.1227  0.4709 -0.0572
  700DOPC   NC3 8201   2.546  22.349  13.400 -0.0705  0.1525 -0.1015
  700DOPC   PO4 8202   2.295  22.176  13.112 -0.1427  0.0595 -0.1321
  700DOPC   GL1 8203   2.118  21.832  13.246 -0.2291 -0.4507 -0.1671
  700DOPC   GL2 8204   2.263  21.795  13.531  0.1738  0.2395  0.2280
  700DOPC   C1A 8205   1.668  21.660  13.203 -0.1080  0.1665 -0.0402
  700DOPC   D2A 8206   1.426  21.383  13.523  0.1475 -0.2535 -0.0738
  700DOPC   C3A 8207   1.479  21.432  13.974  0.0927  0.4380  0.0050
  700DOPC   C4A 8208   1.389  21.689  14.331 -0.1929 -0.1487  0.2477
  700DOPC   C1B 8209   2.057  21.908  13.971  0.1344 -0.0650 -0.0121
  700DOPC   D2B 8210   2.207  22.310  14.210  0.1580  0.1959  0.2090
  700DOPC   C3B 8211   2.470  22.662  14.148 -0.2324 -0.1365  0.0396
  700DOPC   C4B 8212   2.721  22.997  14.360 -0.0197 -0.1203  0.0822
  701POSM   NC3 8213  10.598  16.520  12.179  0.0424  0.1546 -0.3467
  701POSM   PO4 8214  10.293  16.386  11.960  0.1811  0.0871 -0.3020
  701POSM   AM1 8215  10.128  16.307  12.246 -0.0885  0.1560 -0.0161
  701POSM   AM2 8216  10.011  16.362  12.510 -0.2047  0.1335  0.2528
  701POSM   T1A 8217  10.240  15.925  12.628 -0.0730  0.0033  0.0316
  701POSM   C2A 8218  10.056  15.687  12.987  0.0952 -0.1777  0.1417
  701POSM   C3A 8219  10.036  15.820  13.419 -0.2452 -0.1452  0.2167
  701POSM   C1B 8220   9.722  16.208  12.487  0.1807  0.1896 -0.0157
  701POSM   D2B 8221   9.207  16.257  12.421 -0.1754  0.0290  0.0263
  701POSM   C3B 8222   8.977  16.158  12.769  0.0332  0.3522 -0.1509
  701POSM   C4B 8223   9.153  16.215  13.208 -0.1748 -0.1466  0.1236
  702DOPS   CNO 8224   8.495  13.528  12.097  0.0050  0.1578  0.2922
  702DOPS   PO4 8225   8.624  13.594  12.456  0.0124  0.1018  0.1681
  702DOPS   GL1 8226   8.826  13.641  12.846  0.3531  0.2581  0.5619
  702DOPS   GL2 8227   8.552  13.557  13.009  0.1516  0.2445 -0.1331
  702DOPS   C1A 8228   9.010  13.414  13.215 -0.1186  0.0706 -0.0673
  702DOPS   D2A 8229   8.915  13.056  13.507 -0.1387  0.0139 -0.1175
  702DOPS   C3A 8230   8.891  13.185  13.955  0.1463 -0.2187  0.4281
  702DOPS   C4A 8231   9.128  13.104  14.320  0.4338 -0.0724  0.1986
  702DOPS   C1B 8232   8.796  13.874  13.217  0.0429 -0.1414  0.2714
  702DOPS   D2B 8233   8.692  14.155  13.536  0.2201  0.3520 -0.3618
  702DOPS   C3B 8234   8.469  14.391  13.279 -0.0455 -0.1733 -0.0838
  702DOPS   C4B 8235   8.239  14.396  12.851  0.0403  0.1101  0.0481
  703DOPC   NC3 8236   3.511  16.590  12.634  0.1140 -0.0520 -0.1050
  703DOPC   PO4 8237   3.594  16.957  12.748  0.6494 -0.0898  0.3586
  703DOPC   GL1 8238   3.954  16.774  12.948 -0.1654 -0.3737  0.3292
  703DOPC   GL2 8239   4.158  16.491  12.850  0.1059 -0.3023 -0.0837
  703DOPC   C1A 8240   3.915  16.526  13.339 -0.0729  0.0592  0.3665
  703DOPC   D2A 8241   4.243  16.188  13.457 -0.0906  0.0875  0.1615
  703DOPC   C3A 8242   4.111  15.823  13.711  0.1212 -0.0789  0.0249
  703DOPC   C4A 8243   3.867  15.561  13.968  0.1550  0.0424 -0.1701
  703DOPC   C1B 8244   4.387  16.928  12.914 -0.0224  0.0094 -0.1897
  703DOPC   D2B 8245   4.554  17.268  13.214 -0.1453 -0.2250  0.0685
  703DOPC   C3B 8246   4.740  17.197  13.691  0.0975  0.0632 -0.4939
  703DOPC   C4B 8247   5.080  17.056  13.936  0.2177  0.1262  0.0489
  704DOPS   CNO 8248   0.262  21.170  12.548  0.2537  0.1220 -0.4943
  704DOPS   PO4 8249   0.320  21.500  12.749 -0.1823 -0.0447 -0.0020
  704DOPS   GL1 8250   0.363  21.630  13.082 -0.1739  0.0340  0.4727
  704DOPS   GL2 8251   0.457  21.881  13.195 -0.0578 -0.1707  0.2065
  704DOPS   C1A 8252   0.414  21.435  13.475 -0.0632  0.0120 -0.1055
  704DOPS   D2A 8253   0.106  21.338  13.852  0.2581 -0.0031  0.0162
  704DOPS   C3A 8254  -0.167  21.665  13.997 -0.2651 -0.0757 -0.4019
  704DOPS   C4A 8255  -0.083  21.970  14.237 -0.1565 -0.0552  0.3554
  704DOPS   C1B 8256   0.636  21.812  13.605  0.3813 -0.0300 -0.1136
  704DOPS   D2B 8257   0.596  21.970  14.009  0.3776 -0.1181 -0.0164
  704DOPS   C3B 8258   0.887  21.749  14.339 -0.0888  0.0946 -0.0017
  704DOPS   C4B 8259   0.913  21.282  14.221 -0.2721  0.3822  0.1143
  705DOPE   NH3 8260   4.029  19.969  13.175 -0.0696  0.0541 -0.4536
  705DOPE   PO4 8261   4.222  19.827  12.999  0.1617  0.4207  0.2331
  705DOPE   GL1 8262   4.514  19.925  13.163  0.2854  0.0220  0.0886
  705DOPE   GL2 8263   4.628  20.055  13.329  0.1472  0.0115  0.0691
  705DOPE   C1A 8264   4.647  20.283  12.844 -0.0475  0.1021 -0.3049
  705DOPE   D2A 8265   4.746  20.713  12.697  0.1923 -0.1538  0.2852
  705DOPE   C3A 8266   5.127  20.825  12.916 -0.0312 -0.0553  0.0635
  705DOPE   C4A 8267   5.538  20.648  13.050 -0.1468  0.0645  0.0356
  705DOPE   C1B 8268   4.884  19.743  13.540  0.0271  0.1732  0.2406
  705DOPE   D2B 8269   5.272  19.759  13.755  0.0594 -0.2181 -0.1261
  705DOPE   C3B 8270   5.359  20.206  13.926  0.3574  0.0586 -0.0318
  705DOPE   C4B 8271   5.309  20.285  14.400 -0.1028 -0.0024 -0.0141
  706DOPE   NH3 8272   9.936  14.337  12.149  0.0506 -0.0244  0.1561
  706DOPE   PO4 8273  10.199  14.484  12.017  0.1078 -0.0716 -0.0941
  706DOPE   GL1 8274  10.310  14.376  12.348  0.1482 -0.0866  0.0076
  706DOPE   GL2 8275  10.174  14.461  12.551  0.1807  0.3151  0.0373
  706DOPE   C1A 8276  10.683  14.273  12.670 -0.0838 -0.0594  0.1134
  706DOPE   D2A 8277  11.015  14.266  12.940 -0.0109 -0.0228  0.0255
  706DOPE   C3A 8278  11.377  13.999  13.144 -0.0542 -0.0023  0.0534
  706DOPE   C4A 8279  11.775  13.680  13.227  0.2878 -0.0802 -0.0165
  706DOPE   C1B 8280  10.184  14.145  12.907 -0.2451 -0.1160  0.0143
  706DOPE   D2B 8281  10.503  14.049  13.200  0.1455 -0.3010 -0.1122
  706DOPE   C3B 8282  10.773  13.631  13.133 -0.0300  0.3491 -0.2563
  706DOPE   C4B 8283  11.184  13.433  12.943 -0.0367 -0.0204  0.2822
  707DOPE   NH3 8284   5.954  15.264  12.878  0.0325 -0.1796  0.2707
  707DOPE   PO4 8285   6.130  15.413  13.061  0.3213 -0.1673 -0.0749
  707DOPE   GL1 8286   6.033  15.410  13.373  0.1306  0.1873 -0.2721
  707DOPE   GL2 8287   6.230  15.482  13.610 -0.2820 -0.1562 -0.3114
  707DOPE   C1A 8288   5.724  15.661  13.668  0.4577 -0.1354 -0.1439
  707DOPE   D2A 8289   5.517  15.805  14.081  0.1142  0.2487  0.2110
  707DOPE   C3A 8290   5.695  15.715  14.477 -0.0818 -0.3297 -0.1900
  707DOPE   C4A 8291   5.908  15.414  14.690 -0.0183  0.0974  0.0059
  707DOPE   C1B 8292   6.576  15.345  13.844 -0.1013  0.1074 -0.1078
  707DOPE   D2B 8293   6.790  15.058  14.150  0.1189  0.0177 -0.1774
  707DOPE   C3B 8294   7.255  14.917  14.148  0.1804 -0.2333 -0.3366
  707DOPE   C4B 8295   7.600  14.652  14.355  0.0189  0.1047  0.0879
  708DOPC   NC3 8296   4.948  13.114  12.592  0.0760 -0.1248  0.1188
  708DOPC   PO4 8297   4.896  13.329  12.930 -0.1639  0.1943 -0.0926
  708DOPC   GL1 8298   5.047  13.078  13.124  0.0737 -0.5794  0.0255
  708DOPC   GL2 8299   4.916  13.040  13.341  0.0099  0.1427  0.3210
  708DOPC   C1A 8300   5.349  12.795  13.413 -0.2394 -0.1520 -0.1286
  708DOPC   D2A 8301   5.620  12.612  13.712  0.3934  0.0142  0.0367
  708DOPC   C3A 8302   5.734  12.144  13.622 -0.1537  0.0466  0.0053
  708DOPC   C4A 8303   5.921  11.895  13.897  0.0273  0.0113  0.0889
  708DOPC   C1B 8304   4.957  12.615  13.191 -0.2972 -0.1177 -0.0254
  708DOPC   D2B 8305   4.759  12.279  13.467  0.1815 -0.0844  0.1412
  708DOPC   C3B 8306   4.735  12.257  13.883 -0.1232 -0.1023 -0.0159
  708DOPC   C4B 8307   4.975  12.197  14.267  0.0064  0.2633 -0.3142
  709DOPS   CNO 8308   9.339  18.679  12.355  0.3477 -0.0567  0.4937
  709DOPS   PO4 8309   9.692  18.791  12.411  0.2377  0.2270  0.1220
  709DOPS   GL1 8310  10.145  18.834  12.544  0.1380 -0.2568  0.1391
  709DOPS   GL2 8311  10.125  18.921  12.829  0.0850  0.0495  0.0156
  709DOPS   C1A 8312  10.598  18.682  12.520  0.5331 -0.0227 -0.0541
  709DOPS   D2A 8313  10.791  18.387  12.868  0.3115 -0.0914  0.1298
  709DOPS   C3A 8314  10.768  18.288  13.312 -0.1305 -0.0275 -0.4291
  709DOPS   C4A 8315  10.691  18.197  13.795  0.1965 -0.0483  0.0961
  709DOPS   C1B 8316  10.191  19.295  13.072  0.1946  0.2040  0.1145
  709DOPS   D2B 8317  10.226  19.567  13.454  0.0294  0.1926  0.0698
  709DOPS   C3B 8318  10.664  19.518  13.424  0.2174 -0.0779  0.3650
  709DOPS   C4B 8319  11.016  19.407  13.114 -0.0235 -0.1722  0.0989
  710DOPS   CNO 8320   7.319  22.210  11.753 -0.0983 -0.0504 -0.1407
  710DOPS   PO4 8321   7.369  22.367  12.071  0.1206 -0.0420 -0.0896
  710DOPS   GL1 8322   7.196  22.179  12.299  0.1987 -0.3295  0.1738
  710DOPS   GL2 8323   6.956  22.071  12.173  0.1933  0.0947 -0.3863
  710DOPS   C1A 8324   7.410  21.973  12.586 -0.1241  0.0017  0.2440
  710DOPS   D2A 8325   7.552  21.614  12.757 -0.1928  0.4861  0.0008
  710DOPS   C3A 8326   7.782  21.653  13.128 -0.3778  0.0274  0.0435
  710DOPS   C4A 8327   7.866  21.418  13.493  0.1794  0.2731  0.0307
  710DOPS   C1B 8328   6.876  21.990  12.568  0.0911  0.0107 -0.1871
  710DOPS   D2B 8329   6.640  21.923  12.967 -0.0742  0.0834  0.3273
  710DOPS   C3B 8330   6.758  21.675  13.330  0.2721  0.3675  0.1008
  710DOPS   C4B 8331   6.870  21.235  13.425  0.2199  0.0906  0.5633
  711DOPC   NC3 8332   5.495  21.673  12.436 -0.2102  0.2724  0.0193
  711DOPC   PO4 8333   5.867  21.575  12.349  0.2839 -0.1062 -0.1611
  711DOPC   GL1 8334   6.224  21.749  12.436  0.1491  0.0391  0.3862
  711DOPC   GL2 8335   6.228  21.846  12.725  0.0005 -0.0005  0.2880
  711DOPC   C1A 8336   6.635  21.590  12.599  0.3645  0.0625  0.0646
  711DOPC   D2A 8337   6.977  21.523  12.927 -0.0441 -0.2773 -0.0748
  711DOPC   C3A 8338   7.199  21.913  13.037  0.4382 -0.3397  0.0365
  711DOPC   C4A 8339   7.411  22.310  13.004 -0.1282 -0.1356 -0.0709
  711DOPC   C1B 8340   6.309  21.506  13.042 -0.2340  0.1565  0.3125
  711DOPC   D2B 8341   6.373  21.105  13.375 -0.0070 -0.1536 -0.0017
  711DOPC   C3B 8342   6.662  20.754  13.498 -0.0255 -0.2459  0.1615
  711DOPC   C4B 8343   7.035  20.433  13.438 -0.0641  0.0147 -0.4009
  712DOPS   CNO 8344   1.597  15.920  12.653 -0.4187 -0.1401 -0.1765
  712DOPS   PO4 8345   1.725  16.027  13.009 -0.1758  0.0892 -0.0657
  712DOPS   GL1 8346   1.898  16.036  13.423 -0.1021  0.0408  0.4888
  712DOPS   GL2 8347   2.142  16.158  13.279 -0.0223  0.2811  0.2989
  712DOPS   C1A 8348   1.983  15.919  13.875  0.1761  0.3213  0.0272
  712DOPS   D2A 8349   2.235  15.676  14.250 -0.0695  0.1447  0.2281
  712DOPS   C3A 8350   2.289  15.479  14.682 -0.2592 -0.0597 -0.0140
  712DOPS   C4A 8351   2.592  15.282  14.974 -0.1990  0.0331 -0.3199
  712DOPS   C1B 8352   2.507  15.856  13.341 -0.1192  0.2450  0.3284
  712DOPS   D2B 8353   2.894  15.567  13.136  0.1845 -0.1502 -0.1062
  712DOPS   C3B 8354   3.178  15.280  13.299  0.0629  0.2099  0.1561
  712DOPS   C4B 8355   3.517  15.062  13.570 -0.1332  0.2616 -0.2860
  713DOPS   CNO 8356   3.004  17.811  12.742 -0.0279  0.2333 -0.0584
  713DOPS   PO4 8357   3.005  18.072  12.997  0.2045 -0.0318  0.0762
  713DOPS   GL1 8358   3.107  18.076  13.354  0.1125 -0.0373 -0.0385
  713DOPS   GL2 8359   3.364  18.158  13.332 -0.2385  0.3666  0.0517
  713DOPS   C1A 8360   3.300  17.840  13.721  0.4616 -0.2226  0.1075
  713DOPS   D2A 8361   3.430  17.525  14.000 -0.0816 -0.3904 -0.5607
  713DOPS   C3A 8362   3.794  17.522  13.681  0.0511 -0.1231  0.1057
  713DOPS   C4A 8363   4.213  17.387  13.681 -0.2365  0.2051  0.2035
  713DOPS   C1B 8364   3.414  18.338  13.753 -0.0526  0.0570 -0.0111
  713DOPS   D2B 8365   3.183  18.535  14.083  0.1237 -0.0743  0.0588
  713DOPS   C3B 8366   3.096  18.340  14.440 -0.0359 -0.1007  0.0973
  713DOPS   C4B 8367   3.272  18.199  14.826 -0.0618 -0.0550 -0.0908
  714DOPC   NC3 8368   0.646  21.183  12.930 -0.1383  0.2410  0.0254
  714DOPC   PO4 8369   0.841  21.046  12.600 -0.0933 -0.0456 -0.2082
  714DOPC   GL1 8370   1.124  20.741  12.663 -0.3013 -0.2678  0.0465
  714DOPC   GL2 8371   1.419  20.759  12.582  0.0431  0.0117 -0.1650
  714DOPC   C1A 8372   1.213  20.344  12.378 -0.1001 -0.1623  0.2442
  714DOPC   D2A 8373   1.256  19.995  12.056  0.0193  0.0138 -0.1073
  714DOPC   C3A 8374   1.629  19.769  12.245 -0.0276  0.0128 -0.1395
  714DOPC   C4A 8375   2.029  19.695  12.470  0.0174  0.2121 -0.0878
  714DOPC   C1B 8376   1.820  20.764  12.797  0.0261 -0.2058 -0.2437
  714DOPC   D2B 8377   2.136  20.905  13.092  0.1237  0.0099  0.1323
  714DOPC   C3B 8378   2.120  21.304  13.332 -0.3361 -0.1847 -0.0450
  714DOPC   C4B 8379   1.990  21.477  13.795 -0.0641 -0.0409 -0.3072
  715DOPE   NH3 8380  10.142  11.789  12.274  0.1221 -0.2085 -0.0738
  715DOPE   PO4 8381  10.276  11.946  12.564  0.4601  0.0627 -0.0193
  715DOPE   GL1 8382  10.075  11.746  12.786  0.0275 -0.2473 -0.0775
  715DOPE   GL2 8383   9.812  11.623  12.653 -0.0662 -0.1060 -0.1087
  715DOPE   C1A 8384  10.082  11.443  13.097 -0.1691 -0.2622 -0.0921
  715DOPE   D2A 8385   9.905  11.106  13.359  0.0097  0.1527  0.1652
  715DOPE   C3A 8386  10.131  10.888  13.662  0.2688  0.1822 -0.3735
  715DOPE   C4A 8387  10.126  10.882  14.080 -0.0882  0.2907  0.0922
  715DOPE   C1B 8388   9.573  11.825  13.022 -0.4776 -0.0390  0.0898
  715DOPE   D2B 8389   9.379  12.037  13.379  0.0295  0.3886  0.1395
  715DOPE   C3B 8390   9.401  11.733  13.736  0.1677  0.0737  0.1052
  715DOPE   C4B 8391   9.366  11.830  14.154  0.2024 -0.3250  0.5422
  716DOPE   NH3 8392   0.589  23.026  12.802  0.3534  0.2841  0.1059
  716DOPE   PO4 8393   0.847  23.124  12.931 -0.2458  0.0065  0.1022
  716DOPE   GL1 8394   0.618  22.983  13.244 -0.0481  0.0230 -0.3758
  716DOPE   GL2 8395   0.584  22.755  13.176  0.1210 -0.0168  0.2758
  716DOPE   C1A 8396   0.779  23.106  13.630  0.0944 -0.1014  0.4095
  716DOPE   D2A 8397   0.862  23.355  13.990  0.0636  0.1279  0.0134
  716DOPE   C3A 8398   1.064  23.088  14.331  0.2434  0.0564  0.1152
  716DOPE   C4A 8399   1.191  22.817  14.650 -0.1817 -0.2451  0.0674
  716DOPE   C1B 8400   0.899  22.628  13.479 -0.0892  0.0082  0.2184
  716DOPE   D2B 8401   0.950  22.176  13.674 -0.0777  0.1131 -0.2029
  716DOPE   C3B 8402   1.182  22.106  14.087 -0.0785  0.0720  0.0165
  716DOPE   C4B 8403   1.373  22.231  14.481  0.1913  0.3414  0.1927
  717POSM   NC3 8404   5.354  14.230  12.834 -0.0816 -0.1764  0.0559
  717POSM   PO4 8405   5.491  14.331  13.193 -0.1824  0.0992  0.0288
  717POSM   AM1 8406   5.668  14.193  13.458 -0.0182  0.1542  0.0380
  717POSM   AM2 8407   5.871  14.015  13.481  0.0894 -0.1531  0.1430
  717POSM   T1A 8408   5.642  14.220  13.941 -0.3413  0.2159  0.3874
  717POSM   C2A 8409   5.499  13.969  14.315 -0.0399  0.2808 -0.0978
  717POSM   C3A 8410   5.126  14.114  14.642 -0.2249  0.0569 -0.1699
  717POSM   C1B 8411   6.004  13.920  13.833 -0.1687  0.0782 -0.1758
  717POSM   D2B 8412   5.941  13.689  14.250  0.1162  0.0623  0.1647
  717POSM   C3B 8413   5.977  13.948  14.645  0.2323 -0.1560 -0.3175
  717POSM   C4B 8414   6.005  14.359  14.898  0.2521 -0.0497  0.0573
  718DOPS   CNO 8415   8.793  22.838  11.904 -0.0317 -0.0479 -0.0905
  718DOPS   PO4 8416   8.750  22.593  12.202  0.1739  0.0135 -0.0653
  718DOPS   GL1 8417   8.722  22.174  12.206  0.0987  0.0328 -0.0532
  718DOPS   GL2 8418   8.901  22.009  12.066  0.1755  0.3189  0.1380
  718DOPS   C1A 8419   8.483  21.823  12.443  0.7354  0.1198  0.4411
  718DOPS   D2A 8420   8.327  21.792  12.895 -0.0008  0.0977  0.2922
  718DOPS   C3A 8421   8.250  21.508  13.223  0.6141  0.0440 -0.1077
  718DOPS   C4A 8422   8.323  21.262  13.590 -0.0619  0.3345 -0.1404
  718DOPS   C1B 8423   8.831  21.638  11.865 -0.0011 -0.0286  0.1105
  718DOPS   D2B 8424   8.804  21.151  11.792  0.1456  0.0094  0.2909
  718DOPS   C3B 8425   8.753  21.125  12.286 -0.2915  0.1853  0.3477
  718DOPS   C4B 8426   8.450  21.281  12.568  0.1561 -0.1289  0.4761
  719DOPC   NC3 8427   7.413  13.844  12.786 -0.2099  0.1336  0.4299
  719DOPC   PO4 8428   7.155  13.744  12.513  0.0842  0.1076  0.0810
  719DOPC   GL1 8429   6.940  13.374  12.625 -0.0746 -0.1208 -0.0740
  719DOPC   GL2 8430   6.621  13.294  12.570  0.0220 -0.1845  0.1102
  719DOPC   C1A 8431   6.808  13.487  13.086  0.1445  0.1453 -0.1969
  719DOPC   D2A 8432   6.744  13.600  13.506 -0.0461  0.1202  0.2902
  719DOPC   C3A 8433   6.627  13.691  13.919 -0.1975 -0.1874 -0.0421
  719DOPC   C4A 8434   6.814  13.560  14.302 -0.0432  0.0900  0.1237
  719DOPC   C1B 8435   6.518  13.058  12.951 -0.1767 -0.1335 -0.0032
  719DOPC   D2B 8436   6.399  13.104  13.377  0.0225  0.1720  0.2937
  719DOPC   C3B 8437   6.587  13.213  13.774 -0.0205 -0.1441  0.1534
  719DOPC   C4B 8438   7.067  13.320  13.909  0.3354 -0.0125 -0.0464
  720DOPE   NH3 8439  34.576  14.957  12.687  0.3756  0.0319  0.1672
  720DOPE   PO4 8440  34.631  14.983  13.031  0.2569 -0.4170 -0.2993
  720DOPE   GL1 8441  34.652  14.955  13.402  0.1984  0.1963  0.1163
  720DOPE   GL2 8442  34.647  15.223  13.482  0.0213  0.0791 -0.0184
  720DOPE   C1A 8443  34.734  14.550  13.660  0.1534 -0.0373 -0.2368
  720DOPE   D2A 8444  34.860  14.142  13.801 -0.2222 -0.1174  0.2473
  720DOPE   C3A 8445  35.269  14.065  14.042 -0.0557  0.0029 -0.3684
  720DOPE   C4A 8446  35.694  13.891  14.140  0.1417 -0.2003  0.1295
  720DOPE   C1B 8447  34.243  15.204  13.703 -0.1404  0.3112 -0.0777
  720DOPE   D2B 8448  33.974  15.074  14.034 -0.2360  0.1672 -0.0579
  720DOPE   C3B 8449  34.196  14.697  14.176  0.0288 -0.2268 -0.3672
  720DOPE   C4B 8450  34.598  14.498  14.140  0.1249 -0.0871  0.2210
  721DOPS   CNO 8451   5.808  14.802  12.838 -0.0719  0.1217 -0.1939
  721DOPS   PO4 8452   5.753  14.449  12.800  0.0344  0.2455  0.2511
  721DOPS   GL1 8453   5.919  14.129  12.977  0.0355  0.0952 -0.3470
  721DOPS   GL2 8454   6.179  14.035  12.877 -0.0738 -0.0253  0.1437
  721DOPS   C1A 8455   5.794  13.669  13.098 -0.1373  0.1229  0.0076
  721DOPS   D2A 8456   5.461  13.420  13.100  0.1725 -0.0860  0.2327
  721DOPS   C3A 8457   5.398  12.949  12.901  0.0805 -0.0142  0.1443
  721DOPS   C4A 8458   5.389  12.479  12.821  0.1373  0.1866  0.1900
  721DOPS   C1B 8459   5.870  13.776  12.652  0.3398  0.0329  0.0637
  721DOPS   D2B 8460   5.717  13.406  12.405  0.1767  0.1459  0.1148
  721DOPS   C3B 8461   5.967  13.008  12.425 -0.0288 -0.1206 -0.0033
  721DOPS   C4B 8462   6.322  12.892  12.511  0.0487 -0.2207  0.1160
  722DOPS   CNO 8463   8.790  19.114  12.050 -0.3522 -0.0775 -0.2027
  722DOPS   PO4 8464   9.002  19.453  12.009 -0.1222  0.2009 -0.1252
  722DOPS   GL1 8465   8.824  19.800  12.264  0.4572 -0.2399  0.3163
  722DOPS   GL2 8466   8.611  19.698  12.318 -0.2483  0.1710 -0.0416
  722DOPS   C1A 8467   8.938  20.200  12.492 -0.0353 -0.2364 -0.3049
  722DOPS   D2A 8468   9.171  20.591  12.239  0.1108 -0.1231 -0.2663
  722DOPS   C3A 8469   9.575  20.718  11.972  0.3207 -0.3206  0.1492
  722DOPS   C4A 8470   9.991  20.968  11.884 -0.0353  0.0615 -0.1085
  722DOPS   C1B 8471   8.407  20.114  12.288  0.0692  0.0007 -0.0128
  722DOPS   D2B 8472   8.527  20.567  12.323  0.3223 -0.1439 -0.2147
  722DOPS   C3B 8473   8.833  20.632  12.677  0.2999 -0.1619  0.0418
  722DOPS   C4B 8474   8.823  20.683  13.143 -0.0405 -0.0172 -0.2005
  723DOPE   NH3 8475   0.364  22.056  12.699 -0.2076 -0.1963  0.0949
  723DOPE   PO4 8476   0.093  21.918  12.797 -0.0923 -0.3176  0.1350
  723DOPE   GL1 8477  -0.050  21.768  13.158 -0.0025 -0.1855  0.1781
  723DOPE   GL2 8478  -0.049  21.484  13.262  0.2263 -0.1115 -0.0210
  723DOPE   C1A 8479   0.121  21.898  13.580  0.3741  0.0029  0.0663
  723DOPE   D2A 8480   0.149  22.259  13.886  0.1765 -0.1140 -0.1215
  723DOPE   C3A 8481   0.320  22.229  14.328 -0.0671 -0.0715 -0.1418
  723DOPE   C4A 8482   0.784  22.297  14.559  0.0117  0.1514  0.1602
  723DOPE   C1B 8483  -0.400  21.666  13.539  0.1791  0.0226  0.3048
  723DOPE   D2B 8484  -0.682  21.636  13.873  0.0758  0.0697  0.1757
  723DOPE   C3B 8485  -0.637  21.456  14.312 -0.3444  0.0891  0.1653
  723DOPE   C4B 8486  -0.731  21.369  14.788 -0.3577  0.1112 -0.2097
  724DOPE   NH3 8487   3.176  17.171  13.056 -0.0372 -0.2497  0.1554
  724DOPE   PO4 8488   3.268  17.377  12.826  0.1907 -0.3046 -0.3292
  724DOPE   GL1 8489   3.614  17.353  13.043 -0.2357  0.2589  0.1238
  724DOPE   GL2 8490   3.672  17.159  13.255 -0.1622 -0.0715  0.2716
  724DOPE   C1A 8491   3.938  17.629  13.179  0.0826  0.0225  0.0241
  724DOPE   D2A 8492   4.342  17.824  13.297  0.0755  0.0166 -0.0156
  724DOPE   C3A 8493   4.274  18.236  13.288 -0.1080  0.1360  0.1597
  724DOPE   C4A 8494   4.545  18.474  13.558 -0.3107 -0.0007 -0.0114
  724DOPE   C1B 8495   4.080  17.064  13.321 -0.0226  0.2569  0.0487
  724DOPE   D2B 8496   4.369  16.764  13.469 -0.3413 -0.1066 -0.2925
  724DOPE   C3B 8497   4.319  16.492  13.799  0.0310 -0.2249 -0.0978
  724DOPE   C4B 8498   4.576  16.204  14.028 -0.1586 -0.1531 -0.3270
  725POSM   NC3 8499  10.665  11.683  12.370  0.1037 -0.0562 -0.1937
  725POSM   PO4 8500  10.379  11.440  12.555 -0.4210  0.2097 -0.3717
  725POSM   AM1 8501  10.560  11.594  12.826 -0.2604  0.0675 -0.3350
  725POSM   AM2 8502  10.456  11.778  13.016  0.0513 -0.1637  0.0147
  725POSM   T1A 8503  10.859  11.961  12.936 -0.0913 -0.0146 -0.2526
  725POSM   C2A 8504  11.073  12.169  13.295  0.1927  0.2005  0.0589
  725POSM   C3A 8505  11.356  12.363  13.601 -0.1201 -0.1080 -0.0357
  725POSM   C1B 8506  10.620  11.658  13.279 -0.1261 -0.0471 -0.2643
  725POSM   D2B 8507  10.705  11.612  13.738 -0.1354 -0.0278 -0.0847
  725POSM   C3B 8508  10.829  12.062  13.775 -0.0372 -0.0991  0.3031
  725POSM   C4B 8509  10.673  12.320  14.130 -0.0017 -0.1949  0.4757
  726DOPC   NC3 8510   6.875  15.354  12.492  0.4188  0.1581  0.1128
  726DOPC   PO4 8511   7.211  15.306  12.705  0.0579  0.1370 -0.2160
  726DOPC   GL1 8512   7.420  15.395  13.126 -0.1028  0.0494 -0.0127
  726DOPC   GL2 8513   7.176  15.513  13.267  0.2837  0.1876 -0.0040
  726DOPC   C1A 8514   7.528  15.568  13.576 -0.0256 -0.1709  0.0087
  726DOPC   D2A 8515   7.616  15.906  13.880  0.0317 -0.1518 -0.2483
  726DOPC   C3A 8516   7.231  16.186  13.834  0.1979  0.4807 -0.5473
  726DOPC   C4A 8517   6.894  16.191  14.141 -0.0581  0.2046 -0.0631
  726DOPC   C1B 8518   6.976  15.704  13.679 -0.0214 -0.0659  0.2650
  726DOPC   D2B 8519   6.873  15.632  14.174  0.0896 -0.0117 -0.2626
  726DOPC   C3B 8520   6.892  15.902  14.522  0.3024 -0.2782  0.2091
  726DOPC   C4B 8521   6.480  16.018  14.719 -0.2181  0.0031  0.3945
  727DOPC   NC3 8522   2.657  16.553  12.826  0.0883  0.2637  0.1575
  727DOPC   PO4 8523   2.984  16.694  12.645 -0.0211  0.2366 -0.1304
  727DOPC   GL1 8524   3.076  16.714  13.056 -0.3245 -0.0333  0.1130
  727DOPC   GL2 8525   3.385  16.712  13.144 -0.0518  0.3265  0.0554
  727DOPC   C1A 8526   3.054  16.738  13.544 -0.1399 -0.1007  0.0856
  727DOPC   D2A 8527   3.131  16.605  13.960 -0.1866 -0.1379 -0.0708
  727DOPC   C3A 8528   3.383  16.208  14.039 -0.0794  0.1431 -0.0224
  727DOPC   C4A 8529   3.458  15.778  14.193 -0.0697  0.2405 -0.1717
  727DOPC   C1B 8530   3.584  16.847  13.561 -0.1276 -0.2421 -0.0827
  727DOPC   D2B 8531   3.961  16.813  13.811  0.2085 -0.0416  0.0138
  727DOPC   C3B 8532   3.820  17.112  14.195  0.1250  0.2161  0.0023
  727DOPC   C4B 8533   3.885  17.576  14.418  0.0980  0.0113  0.0600
  728DOPE   NH3 8534   8.351  22.877  12.102 -0.1732 -0.1804  0.1595
  728DOPE   PO4 8535   8.239  22.570  12.156  0.2297  0.0121  0.0015
  728DOPE   GL1 8536   8.367  22.592  12.560 -0.2207  0.0545 -0.4480
  728DOPE   GL2 8537   8.299  22.291  12.582  0.1400 -0.0036  0.2038
  728DOPE   C1A 8538   8.277  23.066  12.643 -0.0556  0.1417 -0.1226
  728DOPE   D2A 8539   8.126  23.257  12.985  0.1415  0.0494  0.2978
  728DOPE   C3A 8540   8.352  23.357  13.378  0.3420 -0.0737 -0.0675
  728DOPE   C4A 8541   8.521  23.246  13.751  0.0924 -0.1526 -0.1896
  728DOPE   C1B 8542   8.698  22.086  12.751  0.0839  0.0838 -0.0917
  728DOPE   D2B 8543   9.025  21.860  12.960  0.0827 -0.2448 -0.0816
  728DOPE   C3B 8544   9.450  21.963  12.802 -0.1059  0.1469  0.3491
  728DOPE   C4B 8545   9.877  21.984  12.749 -0.0236  0.1843  0.0307
  729POSM   NC3 8546   9.927  23.668  12.262 -0.2284  0.1026 -0.0438
  729POSM   PO4 8547  10.136  23.327  12.136 -0.2103  0.1348 -0.3648
  729POSM   AM1 8548  10.051  23.202  12.439  0.3764 -0.0635  0.0868
  729POSM   AM2 8549   9.989  23.321  12.647 -0.2721 -0.0656  0.1799
  729POSM   T1A 8550   9.995  22.798  12.748  0.0484 -0.0079  0.0715
  729POSM   C2A 8551   9.746  22.407  12.921  0.0152  0.2355 -0.2080
  729POSM   C3A 8552   9.874  22.032  13.229  0.1971  0.0938 -0.2326
  729POSM   C1B 8553  10.118  23.321  12.980  0.0570  0.0426 -0.0772
  729POSM   D2B 8554  10.401  23.325  13.340 -0.0203 -0.1415 -0.0686
  729POSM   C3B 8555  10.347  23.409  13.824 -0.0292  0.0381 -0.1742
  729POSM   C4B 8556  10.648  23.530  14.154 -0.1273  0.0958 -0.1282
  730DOPE   NH3 8557   5.891  17.236  12.609  0.2333 -0.1455  0.2191
  730DOPE   PO4 8558   6.116  17.492  12.609  0.0397  0.1543  0.1820
  730DOPE   GL1 8559   6.186  17.659  12.962  0.0068  0.2526  0.3813
  730DOPE   GL2 8560   6.451  17.551  13.064  0.0369  0.0194 -0.1650
  730DOPE   C1A 8561   6.129  17.834  13.439  0.1167  0.0754  0.1918
  730DOPE   D2A 8562   5.956  18.228  13.599 -0.1215 -0.2255  0.0926
  730DOPE   C3A 8563   5.550  18.421  13.622 -0.1672  0.1851 -0.0089
  730DOPE   C4A 8564   5.282  18.338  13.278 -0.0182 -0.0513  0.2224
  730DOPE   C1B 8565   6.619  17.415  13.493 -0.0475  0.5746  0.0058
  730DOPE   D2B 8566   6.365  17.470  13.912 -0.1581 -0.0361 -0.1941
  730DOPE   C3B 8567   6.195  17.956  13.962 -0.2749  0.1494  0.0395
  730DOPE   C4B 8568   6.143  18.405  14.116  0.0212  0.3003 -0.1899
  731DOPC   NC3 8569   6.562  16.365  12.509 -0.1632 -0.2700  0.2389
  731DOPC   PO4 8570   6.857  16.635  12.611 -0.4566  0.1950 -0.1729
  731DOPC   GL1 8571   7.114  16.858  12.680 -0.0800  0.0050 -0.3468
  731DOPC   GL2 8572   6.995  17.059  12.917  0.2034 -0.3870  0.2323
  731DOPC   C1A 8573   7.587  17.084  12.654  0.2140 -0.0526  0.0239
  731DOPC   D2A 8574   7.932  17.393  12.816 -0.1023 -0.0519 -0.0241
  731DOPC   C3A 8575   7.876  17.492  13.264  0.2310  0.0003 -0.1587
  731DOPC   C4A 8576   7.570  17.747  13.470 -0.1081  0.1328  0.0522
  731DOPC   C1B 8577   6.958  17.032  13.324  0.0700  0.0770 -0.1432
  731DOPC   D2B 8578   6.831  16.707  13.631 -0.1990  0.0544  0.1293
  731DOPC   C3B 8579   6.601  16.496  13.953  0.1569 -0.0779 -0.3660
  731DOPC   C4B 8580   6.579  16.569  14.410  0.2181 -0.0030  0.1566
  732DOPS   CNO 8581   1.515  12.662  12.147  0.1205  0.0803  0.2581
  732DOPS   PO4 8582   1.832  12.818  12.293  0.2803 -0.0602 -0.1526
  732DOPS   GL1 8583   1.589  12.686  12.624 -0.3006 -0.0474  0.3215
  732DOPS   GL2 8584   1.800  12.784  12.795 -0.0603 -0.2223  0.0178
  732DOPS   C1A 8585   1.151  12.775  12.688  0.0834  0.1707 -0.2060
  732DOPS   D2A 8586   0.801  12.878  13.002 -0.1108  0.0305  0.0758
  732DOPS   C3A 8587   1.101  12.946  13.323  0.2268  0.1373 -0.0214
  732DOPS   C4A 8588   1.180  12.826  13.762 -0.1515 -0.1122 -0.1480
  732DOPS   C1B 8589   1.801  12.788  13.290 -0.2795 -0.0567  0.2813
  732DOPS   D2B 8590   1.927  12.669  13.716 -0.2124  0.0829  0.1116
  732DOPS   C3B 8591   1.900  12.262  14.011 -0.2235  0.1435 -0.2918
  732DOPS   C4B 8592   2.142  11.951  14.257  0.2061 -0.2012 -0.0004
  733DOPE   NH3 8593   4.180  20.664  12.655  0.2161  0.0865 -0.3601
  733DOPE   PO4 8594   4.161  20.840  12.935  0.2589  0.1658  0.2136
  733DOPE   GL1 8595   4.128  20.605  13.246  0.1469 -0.0556  0.0301
  733DOPE   GL2 8596   4.302  20.391  13.183 -0.0366 -0.2128 -0.1661
  733DOPE   C1A 8597   4.143  20.647  13.735 -0.0631 -0.1486  0.0017
  733DOPE   D2A 8598   4.045  21.031  13.961 -0.1784 -0.0971  0.0875
  733DOPE   C3A 8599   3.860  20.877  14.411  0.1061 -0.1378  0.1472
  733DOPE   C4A 8600   3.547  20.833  14.805  0.0287  0.1971  0.0337
  733DOPE   C1B 8601   4.721  20.642  13.242 -0.0984 -0.3944  0.2420
  733DOPE   D2B 8602   5.149  20.683  13.396 -0.3320  0.1925 -0.1278
  733DOPE   C3B 8603   5.145  20.668  13.866 -0.1984 -0.0351 -0.0968
  733DOPE   C4B 8604   4.844  20.545  14.190  0.0248 -0.0585 -0.1408
  734DOPE   NH3 8605   1.975  16.441  12.747  0.0030 -0.0481 -0.2588
  734DOPE   PO4 8606   2.137  16.728  12.809  0.4197  0.0476 -0.3217
  734DOPE   GL1 8607   2.275  16.585  13.078  0.4125  0.0925 -0.0320
  734DOPE   GL2 8608   2.241  16.647  13.369 -0.1893 -0.0086  0.2325
  734DOPE   C1A 8609   2.619  16.374  13.345 -0.1193 -0.1116 -0.1716
  734DOPE   D2A 8610   2.852  16.242  13.664  0.1434  0.0767  0.2589
  734DOPE   C3A 8611   3.048  15.848  13.551  0.2851  0.2351 -0.0957
  734DOPE   C4A 8612   3.327  15.512  13.750  0.0631  0.3740 -0.0679
  734DOPE   C1B 8613   2.281  16.314  13.723  0.0361  0.0510  0.1205
  734DOPE   D2B 8614   2.526  15.915  13.834 -0.0825 -0.0762  0.3026
  734DOPE   C3B 8615   2.325  15.546  13.779  0.1667  0.0261  0.4067
  734DOPE   C4B 8616   2.035  15.559  13.501  0.1880  0.0934  0.1225
  735DOPS   CNO 8617  10.940  23.604  12.230 -0.2084 -0.0842  0.0977
  735DOPS   PO4 8618  11.056  23.703  12.563  0.0218  0.3438 -0.0880
  735DOPS   GL1 8619  11.066  23.669  12.960  0.0506  0.2066 -0.1732
  735DOPS   GL2 8620  11.070  23.416  13.078 -0.0596 -0.2561  0.1999
  735DOPS   C1A 8621  10.763  23.657  13.319  0.2339  0.1537 -0.1810
  735DOPS   D2A 8622  10.832  23.756  13.745  0.1501 -0.3276  0.1064
  735DOPS   C3A 8623  11.126  23.486  13.981  0.1477  0.1799  0.3389
  735DOPS   C4A 8624  11.230  23.086  13.958 -0.0840 -0.2557  0.0436
  735DOPS   C1B 8625  10.975  23.240  13.468  0.1391  0.0639 -0.0458
  735DOPS   D2B 8626  10.616  23.046  13.707  0.1385 -0.0360 -0.0137
  735DOPS   C3B 8627  10.447  23.046  14.136 -0.5984 -0.0696  0.1652
  735DOPS   C4B 8628  10.174  23.299  14.497  0.0114  0.2055  0.1552
  736DOPE   NH3 8629  10.684  14.541  11.993 -0.0793  0.2284  0.2870
  736DOPE   PO4 8630  10.964  14.709  12.072  0.1579  0.0358 -0.1760
  736DOPE   GL1 8631  11.009  14.709  12.346  0.1597 -0.1468 -0.0377
  736DOPE   GL2 8632  11.147  14.396  12.437  0.2438 -0.0830 -0.0582
  736DOPE   C1A 8633  10.846  14.700  12.812 -0.1175  0.1780  0.1387
  736DOPE   D2A 8634  10.578  14.800  13.139  0.2111 -0.3700 -0.1179
  736DOPE   C3A 8635  10.161  14.592  13.154  0.2491 -0.2102 -0.1401
  736DOPE   C4A 8636   9.724  14.727  13.210  0.2566  0.1126 -0.2999
  736DOPE   C1B 8637  11.221  13.914  12.461  0.1573 -0.2371  0.1163
  736DOPE   D2B 8638  11.360  13.498  12.498  0.0510 -0.3859 -0.0478
  736DOPE   C3B 8639  11.237  13.086  12.295  0.2646 -0.0788 -0.1697
  736DOPE   C4B 8640  11.086  12.632  12.212 -0.1158 -0.2627 -0.0141
  737DOPS   CNO 8641   4.775  13.589  12.512  0.1181 -0.0265 -0.0502
  737DOPS   PO4 8642   4.480  13.385  12.616 -0.1580 -0.0977 -0.2570
  737DOPS   GL1 8643   4.455  13.204  12.975  0.2818 -0.0388  0.0078
  737DOPS   GL2 8644   4.609  12.950  12.909  0.2006 -0.3494 -0.0839
  737DOPS   C1A 8645   4.076  12.921  13.017 -0.1931 -0.4654  0.0979
  737DOPS   D2A 8646   3.901  12.648  13.379 -0.1581  0.0962  0.0444
  737DOPS   C3A 8647   4.159  12.636  13.818  0.0983  0.0248 -0.1210
  737DOPS   C4A 8648   4.536  12.685  14.079  0.0011  0.1940 -0.3076
  737DOPS   C1B 8649   4.881  12.649  12.671 -0.3172  0.2061  0.1577
  737DOPS   D2B 8650   5.094  12.223  12.531  0.0927 -0.4097 -0.0091
  737DOPS   C3B 8651   4.996  11.807  12.439 -0.0463 -0.1061  0.0849
  737DOPS   C4B 8652   4.867  11.393  12.549 -0.0034 -0.1513 -0.0085
  738DOPS   CNO 8653  10.374  12.462  12.097  0.2889  0.2387 -0.2297
  738DOPS   PO4 8654  10.535  12.087  12.147 -0.0908  0.4008  0.0914
  738DOPS   GL1 8655  10.870  12.187  12.348 -0.1695  0.5089  0.0174
  738DOPS   GL2 8656  10.724  12.325  12.585 -0.0646  0.3260 -0.1326
  738DOPS   C1A 8657  11.167  11.930  12.565  0.0517  0.0197 -0.0655
  738DOPS   D2A 8658  11.434  11.887  12.950 -0.1637  0.0070  0.2267
  738DOPS   C3A 8659  11.595  12.287  13.064  0.0188 -0.0760  0.2199
  738DOPS   C4A 8660  11.352  12.647  13.233 -0.1617  0.1305 -0.2730
  738DOPS   C1B 8661  10.727  12.432  13.017  0.1759  0.2319  0.0941
  738DOPS   D2B 8662  10.528  12.794  13.239  0.0668 -0.2114 -0.0718
  738DOPS   C3B 8663  10.609  13.018  13.624 -0.0850 -0.0796  0.0066
  738DOPS   C4B 8664  10.604  12.997  14.069 -0.0596 -0.2170  0.1876
  739DOPC   NC3 8665   4.701  14.120  12.576  0.0026 -0.2533  0.1078
  739DOPC   PO4 8666   4.360  13.935  12.494  0.0200 -0.1510  0.0554
  739DOPC   GL1 8667   4.066  13.732  12.686  0.0747  0.0807 -0.0734
  739DOPC   GL2 8668   4.138  13.561  12.875 -0.0572 -0.0802 -0.5267
  739DOPC   C1A 8669   3.649  13.734  12.905  0.1510  0.2783  0.0097
  739DOPC   D2A 8670   3.457  13.743  13.367  0.2002  0.2870  0.3506
  739DOPC   C3A 8671   3.084  13.627  13.512  0.0514  0.1793  0.1109
  739DOPC   C4A 8672   2.750  13.399  13.284 -0.3047 -0.0626  0.2878
  739DOPC   C1B 8673   4.020  13.583  13.373  0.1406  0.3601  0.1303
  739DOPC   D2B 8674   3.827  13.502  13.728 -0.1654  0.0563 -0.0850
  739DOPC   C3B 8675   3.464  13.681  13.889 -0.0367 -0.3764  0.0410
  739DOPC   C4B 8676   3.159  13.996  13.844  0.4234  0.3576  0.2058
  740DOPC   NC3 8677   9.969  18.389  12.410  0.0527 -0.0900 -0.2611
  740DOPC   PO4 8678   9.715  18.312  12.699  0.0900  0.2596 -0.4529
  740DOPC   GL1 8679   9.943  18.496  12.879  0.1687  0.1240  0.0696
  740DOPC   GL2 8680  10.202  18.419  12.847  0.1087  0.2263 -0.0651
  740DOPC   C1A 8681  10.007  18.776  13.251 -0.0892 -0.0098  0.4433
  740DOPC   D2A 8682  10.162  19.067  13.545  0.1835 -0.0584  0.0196
  740DOPC   C3A 8683   9.806  19.169  13.842  0.2362  0.0228 -0.3558
  740DOPC   C4A 8684   9.545  19.445  14.113 -0.0427  0.1840  0.0186
  740DOPC   C1B 8685  10.465  18.672  13.084  0.0626  0.1484  0.0274
  740DOPC   D2B 8686  10.726  18.954  13.417 -0.2562 -0.1682  0.0741
  740DOPC   C3B 8687  10.637  19.199  13.819  0.0349  0.2862  0.0482
  740DOPC   C4B 8688  10.218  19.217  14.065 -0.2420 -0.1166 -0.2028
  741DOPE   NH3 8689   6.433  15.110  13.348 -0.2557 -0.3235 -0.0674
  741DOPE   PO4 8690   6.156  14.938  13.285 -0.4983 -0.2280 -0.0889
  741DOPE   GL1 8691   6.073  14.918  13.604  0.1643  0.2016  0.1662
  741DOPE   GL2 8692   5.881  15.151  13.710  0.0330  0.2532 -0.0374
  741DOPE   C1A 8693   6.042  14.524  13.869  0.0830 -0.0891  0.2900
  741DOPE   D2A 8694   6.101  14.216  14.234 -0.0691  0.1340  0.1153
  741DOPE   C3A 8695   6.339  14.391  14.481  0.3337  0.0194  0.2820
  741DOPE   C4A 8696   6.773  14.367  14.757 -0.0900 -0.1937  0.1287
  741DOPE   C1B 8697   5.630  15.309  14.084 -0.0992  0.1556 -0.0592
  741DOPE   D2B 8698   5.411  15.261  14.535  0.1166 -0.1648 -0.0531
  741DOPE   C3B 8699   5.174  14.879  14.406  0.2292  0.1032 -0.0991
  741DOPE   C4B 8700   4.773  14.846  14.153  0.0406 -0.0473 -0.2919
  742DOPC   NC3 8701   9.608  23.241  12.015 -0.1105  0.2166  0.0450
  742DOPC   PO4 8702   9.389  23.519  12.114 -0.2919 -0.0932  0.3014
  742DOPC   GL1 8703   9.536  23.452  12.503 -0.2301 -0.1638 -0.3662
  742DOPC   GL2 8704   9.518  23.145  12.491 -0.2332 -0.0089 -0.2305
  742DOPC   C1A 8705   9.207  23.377  12.820  0.2027  0.1248  0.0023
  742DOPC   D2A 8706   9.077  23.048  13.185 -0.1150  0.0251  0.2851
  742DOPC   C3A 8707   9.419  23.044  13.501 -0.0636  0.0490  0.0438
  742DOPC   C4A 8708   9.546  22.831  13.867  0.0406 -0.0380  0.2081
  742DOPC   C1B 8709   9.469  22.866  12.859  0.0071  0.1691  0.1430
  742DOPC   D2B 8710   9.332  22.614  13.181 -0.0308 -0.3305 -0.0929
  742DOPC   C3B 8711   9.400  22.176  13.306 -0.1941  0.1649 -0.0419
  742DOPC   C4B 8712   9.437  21.730  13.284  0.2873 -0.1523 -0.0418
  743POSM   NC3 8713   4.818  14.397  13.457  0.0898 -0.0952  0.2979
  743POSM   PO4 8714   5.013  14.176  13.190 -0.0980 -0.1624 -0.0402
  743POSM   AM1 8715   5.152  13.989  13.369 -0.0001  0.2761  0.4329
  743POSM   AM2 8716   5.410  13.815  13.340  0.0094 -0.0030  0.1714
  743POSM   T1A 8717   5.239  13.942  13.808  0.0137  0.0275 -0.3979
  743POSM   C2A 8718   5.034  13.936  14.220 -0.0150  0.0307  0.0389
  743POSM   C3A 8719   4.684  13.744  14.482  0.2755  0.0656 -0.0818
  743POSM   C1B 8720   5.549  13.631  13.620 -0.0369  0.1797  0.1082
  743POSM   D2B 8721   5.582  13.375  14.009 -0.0092 -0.0221  0.1917
  743POSM   C3B 8722   5.799  12.950  14.071  0.0457 -0.0745 -0.0338
  743POSM   C4B 8723   6.148  12.737  14.280  0.0872 -0.1850  0.0416
  744DOPC   NC3 8724   3.625  19.960  12.852 -0.0748  0.1888 -0.2135
  744DOPC   PO4 8725   3.372  20.205  13.014 -0.0594 -0.1576  0.0338
  744DOPC   GL1 8726   2.983  20.153  13.207 -0.0099  0.0402  0.3547
  744DOPC   GL2 8727   3.118  20.118  13.466 -0.2682  0.0630  0.3270
  744DOPC   C1A 8728   2.701  19.903  12.908  0.1798 -0.2634  0.4482
  744DOPC   D2A 8729   2.684  19.455  13.024 -0.2440 -0.1445 -0.4051
  744DOPC   C3A 8730   2.776  19.341  13.454 -0.0239  0.0929  0.2633
  744DOPC   C4A 8731   2.647  19.022  13.686  0.3326  0.1051 -0.1689
  744DOPC   C1B 8732   2.905  20.095  13.871  0.1077 -0.1196 -0.3390
  744DOPC   D2B 8733   2.607  20.172  14.211  0.0077 -0.2702  0.0275
  744DOPC   C3B 8734   2.709  20.455  14.547 -0.0217 -0.1428  0.1274
  744DOPC   C4B 8735   2.862  20.752  14.810 -0.1657  0.2737  0.0032
  745DOPC   NC3 8736   6.147  20.470  12.651 -0.1065 -0.2796  0.1996
  745DOPC   PO4 8737   5.964  20.138  12.792  0.2351 -0.0027 -0.2333
  745DOPC   GL1 8738   5.923  19.886  13.108  0.2713  0.0236 -0.0003
  745DOPC   GL2 8739   5.830  19.546  13.211  0.1659  0.1293 -0.2214
  745DOPC   C1A 8740   6.315  19.748  13.347 -0.2057  0.6004 -0.0803
  745DOPC   D2A 8741   6.632  19.683  13.728  0.2200 -0.1682 -0.2195
  745DOPC   C3A 8742   6.966  19.976  13.877 -0.0035 -0.2083  0.0238
  745DOPC   C4A 8743   7.362  20.275  13.914 -0.1315 -0.0524  0.1508
  745DOPC   C1B 8744   5.998  19.476  13.622  0.3057  0.0565 -0.2979
  745DOPC   D2B 8745   6.170  19.558  14.020 -0.3047  0.0380 -0.1129
  745DOPC   C3B 8746   6.414  19.876  14.236 -0.1020 -0.4650 -0.0662
  745DOPC   C4B 8747   6.731  20.165  14.328 -0.0054 -0.1977  0.0086
  746DOPE   NH3 8748   4.052  21.338  13.080 -0.0060  0.4948  0.3181
  746DOPE   PO4 8749   4.073  21.478  13.372  0.2099 -0.2886 -0.3731
  746DOPE   GL1 8750   4.079  21.483  13.816  0.1880  0.2611  0.1705
  746DOPE   GL2 8751   3.748  21.388  13.762 -0.2162 -0.1848  0.0118
  746DOPE   C1A 8752   4.090  21.626  14.278 -0.0333 -0.1388 -0.2909
  746DOPE   D2A 8753   4.388  21.651  14.667  0.2969 -0.1645 -0.3516
  746DOPE   C3A 8754   4.118  21.651  15.004 -0.0090 -0.4019  0.3002
  746DOPE   C4A 8755   3.646  21.641  15.020 -0.1045  0.0091  0.0252
  746DOPE   C1B 8756   3.469  21.362  14.085 -0.0365  0.1600  0.2036
  746DOPE   D2B 8757   3.064  21.438  14.253 -0.1002 -0.1610  0.1336
  746DOPE   C3B 8758   2.651  21.212  14.408 -0.1534 -0.2605 -0.0812
  746DOPE   C4B 8759   2.472  20.835  14.267 -0.4326 -0.0450  0.1986
  747DOPE   NH3 8760   3.657  21.940  13.063 -0.0995  0.1408 -0.0816
  747DOPE   PO4 8761   3.682  21.776  12.800 -0.0724 -0.1292 -0.0311
  747DOPE   GL1 8762   3.301  21.672  12.938 -0.0462 -0.1375 -0.1818
  747DOPE   GL2 8763   3.055  21.725  12.801 -0.2346 -0.1155  0.1697
  747DOPE   C1A 8764   2.947  21.508  13.249 -0.2001  0.2192  0.4622
  747DOPE   D2A 8765   2.781  21.592  13.660 -0.0894 -0.0842 -0.2568
  747DOPE   C3A 8766   2.508  21.520  13.988 -0.1734 -0.0462  0.3732
  747DOPE   C4A 8767   2.508  21.720  14.403 -0.1564 -0.1000  0.0378
  747DOPE   C1B 8768   3.045  22.188  12.684 -0.0168  0.0854  0.0517
  747DOPE   D2B 8769   2.703  22.496  12.725 -0.1667 -0.1319  0.2081
  747DOPE   C3B 8770   2.306  22.527  12.530  0.2821 -0.0610 -0.2548
  747DOPE   C4B 8771   1.868  22.645  12.739  0.5250  0.0237  0.2818
  748DOPC   NC3 8772  34.579  19.152  13.035 -0.1670 -0.1892  0.0200
  748DOPC   PO4 8773  34.212  19.242  12.895  0.1559  0.0727 -0.0640
  748DOPC   GL1 8774  34.142  19.002  13.251 -0.0310 -0.0666 -0.0650
  748DOPC   GL2 8775  34.174  18.702  13.291 -0.0053  0.2932 -0.1361
  748DOPC   C1A 8776  34.516  19.056  13.527 -0.0752  0.0444  0.0824
  748DOPC   D2A 8777  34.867  18.991  13.752 -0.0740 -0.0369 -0.4093
  748DOPC   C3A 8778  34.905  18.561  13.861  0.2582 -0.1918 -0.3454
  748DOPC   C4A 8779  35.231  18.392  14.179 -0.0540  0.0093 -0.0137
  748DOPC   C1B 8780  33.963  18.437  13.609  0.0301  0.0766  0.2441
  748DOPC   D2B 8781  33.785  18.003  13.838 -0.1467 -0.0583  0.1178
  748DOPC   C3B 8782  33.588  17.855  14.145 -0.0489  0.1196  0.1913
  748DOPC   C4B 8783  33.383  17.643  14.458  0.2032 -0.2951  0.5058
  749DOPE   NH3 8784   9.554  18.864  12.942  0.0336  0.1852 -0.4019
  749DOPE   PO4 8785   9.398  18.607  12.880  0.1622  0.1957 -0.2106
  749DOPE   GL1 8786   9.449  18.455  13.279  0.1184 -0.2538 -0.1109
  749DOPE   GL2 8787   9.691  18.374  13.246 -0.1661 -0.1020  0.1718
  749DOPE   C1A 8788   9.358  18.347  13.752 -0.4606 -0.0763  0.1273
  749DOPE   D2A 8789   9.379  18.168  14.159 -0.0960 -0.0619 -0.3278
  749DOPE   C3A 8790   9.747  17.919  14.363 -0.0107  0.0611 -0.1036
  749DOPE   C4A 8791  10.165  17.699  14.351  0.0155  0.4129 -0.2061
  749DOPE   C1B 8792   9.700  18.012  13.506  0.2933 -0.1912  0.1572
  749DOPE   D2B 8793   9.727  17.701  13.869 -0.1044  0.1187  0.0101
  749DOPE   C3B 8794   9.312  17.663  14.084 -0.3087  0.3989 -0.0083
  749DOPE   C4B 8795   8.953  17.496  14.151 -0.0515  0.1895 -0.2119
  750DOPS   CNO 8796   5.599  22.499  12.471 -0.0093  0.1403  0.3563
  750DOPS   PO4 8797   5.951  22.485  12.657  0.1707  0.0430  0.1604
  750DOPS   GL1 8798   6.080  22.299  12.891  0.1006 -0.1776  0.1087
  750DOPS   GL2 8799   6.351  22.372  12.977 -0.0641 -0.1392 -0.2325
  750DOPS   C1A 8800   6.081  21.964  13.246  0.1633  0.2839 -0.1400
  750DOPS   D2A 8801   6.254  21.882  13.638 -0.0332  0.1019  0.1880
  750DOPS   C3A 8802   6.467  21.501  13.700 -0.1722 -0.1670  0.1090
  750DOPS   C4A 8803   6.666  21.142  13.853  0.2756 -0.1598 -0.2075
  750DOPS   C1B 8804   6.063  22.434  13.334  0.0444 -0.1626  0.4192
  750DOPS   D2B 8805   6.085  22.588  13.740 -0.0277  0.0489 -0.1928
  750DOPS   C3B 8806   6.453  22.312  13.827  0.0554 -0.0678 -0.1679
  750DOPS   C4B 8807   6.729  21.983  13.824  0.0006 -0.1556 -0.2833
  751DOPC   NC3 8808   3.335  22.576  12.956  0.0536 -0.0265  0.1415
  751DOPC   PO4 8809   3.698  22.406  12.838 -0.0224 -0.1986  0.3121
  751DOPC   GL1 8810   3.730  22.365  13.290  0.0322 -0.0486  0.1516
  751DOPC   GL2 8811   3.625  22.630  13.475 -0.0247 -0.0144 -0.1433
  751DOPC   C1A 8812   3.493  22.158  13.636  0.0445 -0.3629  0.0709
  751DOPC   D2A 8813   3.373  22.236  14.056 -0.4168 -0.0324  0.0041
  751DOPC   C3A 8814   3.280  21.887  14.285 -0.2641  0.0731  0.1797
  751DOPC   C4A 8815   3.482  21.563  14.569 -0.1961 -0.0724 -0.3687
  751DOPC   C1B 8816   3.422  22.706  13.931  0.0503 -0.0135  0.2691
  751DOPC   D2B 8817   3.367  23.064  14.215  0.0314 -0.1484  0.2256
  751DOPC   C3B 8818   3.444  23.152  14.641 -0.0321 -0.0147  0.1490
  751DOPC   C4B 8819   3.782  23.274  14.925  0.0811 -0.2823  0.0716
  752POSM   NC3 8820   8.302  19.231  12.212 -0.0864 -0.1287 -0.0040
  752POSM   PO4 8821   8.122  18.998  12.498  0.0357 -0.0459 -0.0792
  752POSM   AM1 8822   8.178  18.954  12.847  0.0049  0.3828 -0.0381
  752POSM   AM2 8823   8.402  18.823  13.021 -0.0939  0.1068  0.2151
  752POSM   T1A 8824   8.079  18.991  13.313 -0.0551 -0.0065 -0.0678
  752POSM   C2A 8825   8.053  19.163  13.719 -0.0834 -0.1320  0.1592
  752POSM   C3A 8826   7.762  19.441  13.887 -0.2424 -0.4250  0.1921
  752POSM   C1B 8827   8.409  18.628  13.275 -0.0768 -0.1644 -0.1700
  752POSM   D2B 8828   8.633  18.611  13.624  0.1092 -0.0129  0.0752
  752POSM   C3B 8829   8.249  18.768  13.903 -0.1922 -0.0103 -0.2812
  752POSM   C4B 8830   7.873  18.668  14.026  0.1377 -0.0497  0.2052
  753DOPC   NC3 8831   2.611  17.903  13.335  0.0314  0.2601 -0.0377
  753DOPC   PO4 8832   2.528  17.969  12.957 -0.2037 -0.0438  0.1637
  753DOPC   GL1 8833   2.300  18.235  12.973  0.1684  0.1293  0.2183
  753DOPC   GL2 8834   2.260  18.317  13.262  0.0319  0.2151  0.0033
  753DOPC   C1A 8835   1.883  18.336  12.936 -0.0765 -0.1260  0.2558
  753DOPC   D2A 8836   1.495  18.312  13.202 -0.1613  0.4754  0.0228
  753DOPC   C3A 8837   1.042  18.185  13.126  0.1832  0.3217 -0.3192
  753DOPC   C4A 8838   0.941  17.699  13.147  0.0565  0.1388  0.3139
  753DOPC   C1B 8839   2.005  18.718  13.177  0.0630 -0.0222 -0.1240
  753DOPC   D2B 8840   1.634  18.797  13.002 -0.1402  0.0453 -0.2074
  753DOPC   C3B 8841   1.429  18.482  12.781  0.0570  0.0440  0.0132
  753DOPC   C4B 8842   1.199  18.091  12.645 -0.0844 -0.0014  0.0185
  754POSM   NC3 8843   5.426  18.983  12.623 -0.2148  0.1993  0.0270
  754POSM   PO4 8844   5.249  19.351  12.746 -0.1175  0.0936  0.0709
  754POSM   AM1 8845   5.219  19.344  13.049 -0.0657  0.5593  0.2943
  754POSM   AM2 8846   5.357  19.455  13.253  0.1857  0.1349 -0.3283
  754POSM   T1A 8847   4.949  19.256  13.402  0.3269  0.0041  0.0356
  754POSM   C2A 8848   4.971  19.300  13.813  0.2501  0.0812  0.0300
  754POSM   C3A 8849   5.119  19.542  14.225 -0.3784  0.1448 -0.1263
  754POSM   C1B 8850   5.454  19.351  13.540  0.1011 -0.0162 -0.3598
  754POSM   D2B 8851   5.630  19.324  13.959  0.2486 -0.0341  0.1203
  754POSM   C3B 8852   5.600  19.686  14.172 -0.2817  0.1352 -0.0838
  754POSM   C4B 8853   5.922  19.860  14.387 -0.0089  0.0470  0.1591
  755DOPE   NH3 8854   2.608  17.482  12.917  0.1195 -0.3381 -0.1403
  755DOPE   PO4 8855   2.581  17.403  13.241 -0.0047  0.1991  0.0426
  755DOPE   GL1 8856   2.362  17.556  13.634  0.0045 -0.4081 -0.2500
  755DOPE   GL2 8857   2.089  17.391  13.661  0.4952  0.1019  0.1365
  755DOPE   C1A 8858   2.426  18.009  13.867  0.0956 -0.0913 -0.1513
  755DOPE   D2A 8859   2.248  18.437  14.019  0.1373 -0.0889 -0.1210
  755DOPE   C3A 8860   1.792  18.353  14.017 -0.2135 -0.1783 -0.2210
  755DOPE   C4A 8861   1.536  18.398  14.403 -0.3649  0.0754  0.2820
  755DOPE   C1B 8862   2.243  17.556  14.090  0.2318 -0.2060 -0.0739
  755DOPE   D2B 8863   2.622  17.729  14.264 -0.2481 -0.4141 -0.2996
  755DOPE   C3B 8864   2.616  18.170  14.297 -0.1605 -0.0953  0.1520
  755DOPE   C4B 8865   2.565  18.528  14.555 -0.0013  0.1823 -0.1745
  756DOPE   NH3 8866   8.491  18.141  12.561 -0.0826 -0.0876 -0.1307
  756DOPE   PO4 8867   8.609  18.438  12.726 -0.3114  0.1779  0.0321
  756DOPE   GL1 8868   9.013  18.391  12.970 -0.0138 -0.0478 -0.2126
  756DOPE   GL2 8869   8.883  18.579  13.155  0.3529  0.6518 -0.1226
  756DOPE   C1A 8870   8.968  18.161  13.399 -0.0776 -0.0829  0.1835
  756DOPE   D2A 8871   9.169  17.773  13.580  0.2586 -0.1332  0.0646
  756DOPE   C3A 8872   8.733  17.511  13.625  0.1706  0.2432  0.1500
  756DOPE   C4A 8873   8.521  17.122  13.773 -0.0127  0.3407 -0.0070
  756DOPE   C1B 8874   9.099  18.748  13.499  0.1113  0.2348  0.4143
  756DOPE   D2B 8875   9.544  18.854  13.440  0.1066 -0.1709 -0.1760
  756DOPE   C3B 8876   9.839  18.566  13.693  0.0667 -0.2802 -0.1407
  756DOPE   C4B 8877   9.913  18.283  13.989 -0.2861  0.1945  0.2983
  757DOPS   CNO 8878   7.020  11.098  12.460 -0.1424 -0.3745 -0.2646
  757DOPS   PO4 8879   6.940  11.085  12.788  0.0884 -0.1078  0.2222
  757DOPS   GL1 8880   6.719  11.125  13.134 -0.0657 -0.3676  0.0004
  757DOPS   GL2 8881   6.564  11.361  13.146  0.1454 -0.0065  0.1746
  757DOPS   C1A 8882   6.654  10.828  13.451 -0.0747 -0.1992  0.0954
  757DOPS   D2A 8883   6.941  10.622  13.715  0.1938  0.1208 -0.1830
  757DOPS   C3A 8884   7.372  10.626  13.803 -0.1143  0.1486  0.2532
  757DOPS   C4A 8885   7.579  10.435  14.189  0.0459 -0.0637 -0.2453
  757DOPS   C1B 8886   6.656  11.452  13.565  0.1058  0.2087  0.1648
  757DOPS   D2B 8887   6.689  11.562  14.006 -0.0407 -0.1852  0.1834
  757DOPS   C3B 8888   7.003  11.329  14.247 -0.1098  0.1213 -0.1285
  757DOPS   C4B 8889   7.281  11.256  14.629 -0.1454 -0.1152 -0.3379
  758DOPE   NH3 8890   1.605  12.160  12.350 -0.0853 -0.2159  0.1874
  758DOPE   PO4 8891   1.305  12.279  12.437  0.0023  0.3840  0.0944
  758DOPE   GL1 8892   1.295  12.287  12.792 -0.0975 -0.0741 -0.4258
  758DOPE   GL2 8893   1.409  12.551  12.989  0.0412  0.1041 -0.0446
  758DOPE   C1A 8894   0.936  12.364  13.062  0.1349  0.1233 -0.2159
  758DOPE   D2A 8895   0.650  12.506  13.404  0.2423  0.0653 -0.1686
  758DOPE   C3A 8896   0.710  12.616  13.836  0.0576  0.4189 -0.0262
  758DOPE   C4A 8897   0.988  12.595  14.235 -0.0444  0.0382  0.0921
  758DOPE   C1B 8898   1.439  13.027  12.975 -0.2118 -0.0243 -0.0228
  758DOPE   D2B 8899   1.085  13.287  12.852  0.0155  0.4050  0.1114
  758DOPE   C3B 8900   0.702  13.075  12.524  0.3054 -0.0051  0.1160
  758DOPE   C4B 8901   0.318  13.149  12.258 -0.0653 -0.0408  0.1472
  759DOPE   NH3 8902   8.581  13.035  12.252  0.3780  0.0040  0.1468
  759DOPE   PO4 8903   8.710  12.800  12.102 -0.0364 -0.1500 -0.2569
  759DOPE   GL1 8904   8.927  12.720  12.456 -0.1595 -0.0379  0.0775
  759DOPE   GL2 8905   8.699  12.681  12.601 -0.0022  0.1612  0.3056
  759DOPE   C1A 8906   9.257  12.660  12.740 -0.0383  0.2045 -0.3309
  759DOPE   D2A 8907   9.545  12.396  13.011 -0.0516 -0.0345  0.0329
  759DOPE   C3A 8908   9.609  12.477  13.434  0.0034  0.0481 -0.0786
  759DOPE   C4A 8909   9.662  12.524  13.869 -0.0946 -0.1420  0.2001
  759DOPE   C1B 8910   8.349  12.741  12.932 -0.1184  0.1097  0.0403
  759DOPE   D2B 8911   8.018  12.758  13.224 -0.1037 -0.3013 -0.0841
  759DOPE   C3B 8912   8.076  12.743  13.716 -0.0731  0.2760 -0.0582
  759DOPE   C4B 8913   8.149  12.434  14.043  0.0317  0.0722  0.0471
  760POSM   NC3 8914  11.098  20.965  12.375 -0.0521 -0.0190  0.3910
  760POSM   PO4 8915  10.784  21.234  12.321 -0.2236  0.2639 -0.0685
  760POSM   AM1 8916  10.607  21.281  12.573 -0.2558 -0.0056 -0.1433
  760POSM   AM2 8917  10.541  21.459  12.759  0.2528 -0.0507  0.0894
  760POSM   T1A 8918  10.163  21.166  12.738  0.1504 -0.1805 -0.0493
  760POSM   C2A 8919   9.809  20.900  12.855 -0.0881 -0.0860  0.2745
  760POSM   C3A 8920   9.751  20.527  13.124 -0.2005 -0.2589  0.0492
  760POSM   C1B 8921  10.366  21.520  13.031  0.0278 -0.2095 -0.4426
  760POSM   D2B 8922  10.240  21.612  13.459  0.0855  0.0698  0.3598
  760POSM   C3B 8923  10.554  21.503  13.785  0.0707 -0.1352  0.4286
  760POSM   C4B 8924  11.004  21.366  13.728 -0.0860  0.1136 -0.1067
  761DOPC   NC3 8925   9.284  19.798  12.187  0.1130  0.0585 -0.1095
  761DOPC   PO4 8926   9.647  19.616  12.208  0.2326 -0.1734 -0.2046
  761DOPC   GL1 8927   9.877  19.722  12.534  0.0567 -0.0512  0.2446
  761DOPC   GL2 8928  10.163  19.700  12.335  0.1139 -0.2057  0.1548
  761DOPC   C1A 8929   9.947  19.708  12.994  0.6265 -0.0455  0.0236
  761DOPC   D2A 8930  10.056  19.991  13.338  0.1131 -0.0205  0.1756
  761DOPC   C3A 8931  10.432  19.942  13.598  0.0009 -0.2613  0.0895
  761DOPC   C4A 8932  10.807  20.208  13.536 -0.0721  0.0576 -0.0471
  761DOPC   C1B 8933  10.451  20.049  12.599  0.4894  0.0543 -0.0760
  761DOPC   D2B 8934  10.552  20.512  12.818  0.1469 -0.0493 -0.2848
  761DOPC   C3B 8935  10.977  20.697  12.836 -0.0606 -0.2629  0.0216
  761DOPC   C4B 8936  11.111  20.927  13.189  0.0991 -0.0415 -0.2629
  762DOPC   NC3 8937   3.757  12.143  12.309 -0.2840  0.0100 -0.2919
  762DOPC   PO4 8938   3.633  11.757  12.284  0.1223  0.0734 -0.0692
  762DOPC   GL1 8939   4.078  11.815  12.440  0.2519  0.1033 -0.1893
  762DOPC   GL2 8940   3.970  11.903  12.783 -0.3180  0.0508 -0.0781
  762DOPC   C1A 8941   4.468  12.068  12.603  0.2073  0.1187  0.0444
  762DOPC   D2A 8942   4.759  12.116  12.896  0.0284 -0.0498 -0.1922
  762DOPC   C3A 8943   4.999  11.887  13.261 -0.1446  0.0726  0.1846
  762DOPC   C4A 8944   5.331  11.829  13.622 -0.1216  0.0012  0.2014
  762DOPC   C1B 8945   3.837  11.586  13.111  0.1679 -0.0627 -0.0217
  762DOPC   D2B 8946   3.973  11.516  13.556 -0.1235  0.1136 -0.0825
  762DOPC   C3B 8947   3.918  11.289  13.973  0.0240 -0.1832  0.1187
  762DOPC   C4B 8948   4.146  11.167  14.381  0.3831 -0.1434  0.1868
  763DOPE   NH3 8949   3.262  11.951  12.515 -0.0132 -0.2028 -0.6163
  763DOPE   PO4 8950   3.519  12.034  12.714  0.3035  0.2121 -0.2861
  763DOPE   GL1 8951   3.620  12.029  13.088 -0.0970 -0.5141 -0.0129
  763DOPE   GL2 8952   3.517  12.281  13.180 -0.0529  0.3346  0.2294
  763DOPE   C1A 8953   3.909  12.044  13.449  0.1019 -0.0029  0.3290
  763DOPE   D2A 8954   4.282  12.185  13.700  0.1106  0.4720  0.0224
  763DOPE   C3A 8955   4.278  12.261  14.138  0.0021  0.2213  0.0567
  763DOPE   C4A 8956   4.135  12.653  14.343 -0.0555  0.1569  0.2253
  763DOPE   C1B 8957   3.487  12.465  13.562  0.0097  0.1793  0.0520
  763DOPE   D2B 8958   3.738  12.348  13.888  0.2583 -0.1087 -0.0850
  763DOPE   C3B 8959   3.369  12.163  14.134 -0.3656  0.0537 -0.1753
  763DOPE   C4B 8960   3.021  12.284  14.498  0.2518  0.1308  0.0381
  764DOPE   NH3 8961   6.353  14.887  12.807 -0.1926 -0.4044  0.1603
  764DOPE   PO4 8962   6.519  15.189  12.860 -0.3449 -0.2481 -0.0115
  764DOPE   GL1 8963   6.868  15.169  13.173  0.0321 -0.6651  0.1922
  764DOPE   GL2 8964   7.128  14.997  13.083 -0.0078  0.4168 -0.2035
  764DOPE   C1A 8965   6.957  15.166  13.603 -0.1537 -0.4214 -0.3520
  764DOPE   D2A 8966   7.201  15.339  13.990  0.0879  0.0628 -0.2510
  764DOPE   C3A 8967   7.240  15.329  14.452  0.0395  0.0455  0.3293
  764DOPE   C4A 8968   7.628  15.124  14.601  0.0814  0.3619 -0.1001
  764DOPE   C1B 8969   7.457  14.923  13.389  0.0585 -0.4707 -0.3406
  764DOPE   D2B 8970   7.780  15.103  13.674 -0.0477  0.0901  0.0096
  764DOPE   C3B 8971   8.022  15.466  13.708 -0.0150 -0.2384 -0.0557
  764DOPE   C4B 8972   8.137  15.862  13.953 -0.2623 -0.0306  0.3040
  765POSM   NC3 8973   5.812  12.429  12.530 -0.1239  0.1441 -0.0164
  765POSM   PO4 8974   5.894  12.034  12.627 -0.0865 -0.0160  0.2729
  765POSM   AM1 8975   5.775  12.159  12.894 -0.1196 -0.0102  0.1758
  765POSM   AM2 8976   5.561  12.135  13.078 -0.1163 -0.1245 -0.1019
  765POSM   T1A 8977   5.799  12.469  13.276 -0.1618  0.1883  0.0762
  765POSM   C2A 8978   5.886  12.882  13.407 -0.0650 -0.0224 -0.1246
  765POSM   C3A 8979   6.241  12.823  13.776  0.3819 -0.0784  0.4143
  765POSM   C1B 8980   5.355  12.218  13.322 -0.0443  0.1560 -0.3489
  765POSM   D2B 8981   5.187  12.352  13.684 -0.0374 -0.3598 -0.2795
  765POSM   C3B 8982   4.893  12.685  13.717  0.0635 -0.1595  0.1702
  765POSM   C4B 8983   4.683  13.102  13.751 -0.1534 -0.0439 -0.0111
  766POSM   NC3 8984   6.784  15.643  12.878 -0.0802  0.1590  0.1279
  766POSM   PO4 8985   6.583  15.598  13.214  0.0397  0.0816 -0.3476
  766POSM   AM1 8986   6.760  15.848  13.290 -0.0606 -0.0816  0.1452
  766POSM   AM2 8987   6.714  16.095  13.461 -0.0734 -0.0117 -0.1658
  766POSM   T1A 8988   7.231  16.004  13.349 -0.1369  0.1199 -0.1887
  766POSM   C2A 8989   7.674  16.051  13.428  0.0802 -0.2059 -0.1174
  766POSM   C3A 8990   8.103  15.939  13.451 -0.1049 -0.1240 -0.0621
  766POSM   C1B 8991   6.593  16.027  13.728 -0.0639  0.1814  0.1184
  766POSM   D2B 8992   6.408  16.078  14.134 -0.1037  0.2216 -0.0148
  766POSM   C3B 8993   5.936  16.116  14.143  0.0496  0.2084 -0.1948
  766POSM   C4B 8994   5.601  16.232  14.465 -0.1452 -0.1245  0.1824
  767POSM   NC3 8995   0.730  21.749  12.782 -0.0888 -0.0991  0.3018
  767POSM   PO4 8996   0.813  21.515  12.449  0.0496  0.2238  0.1560
  767POSM   AM1 8997   1.098  21.491  12.657 -0.0271 -0.1450 -0.2994
  767POSM   AM2 8998   1.130  21.366  12.902 -0.0475 -0.0355  0.0369
  767POSM   T1A 8999   1.569  21.508  12.733 -0.2322  0.3054 -0.2702
  767POSM   C2A 9000   1.994  21.542  12.840  0.0586  0.1563  0.0749
  767POSM   C3A 9001   2.435  21.582  13.054 -0.0063  0.0121  0.0939
  767POSM   C1B 9002   1.358  21.169  13.001 -0.1046 -0.0218 -0.6308
  767POSM   D2B 9003   1.627  20.901  13.229 -0.1783  0.1344 -0.2788
  767POSM   C3B 9004   1.507  20.646  13.624  0.0623 -0.0149  0.0020
  767POSM   C4B 9005   1.276  20.473  13.899  0.2354 -0.1413 -0.2572
  768POSM   NC3 9006   7.347  15.527  12.022 -0.1505  0.2825 -0.3438
  768POSM   PO4 9007   7.276  15.176  12.205 -0.1838 -0.0435  0.2768
  768POSM   AM1 9008   7.585  15.236  12.397  0.0745  0.0297  0.1335
  768POSM   AM2 9009   7.696  15.267  12.666 -0.1818  0.1941  0.1056
  768POSM   T1A 9010   8.035  15.293  12.210  0.3869 -0.1242  0.0802
  768POSM   C2A 9011   8.524  15.172  12.250 -0.0140  0.2414 -0.3734
  768POSM   C3A 9012   8.965  15.264  12.236  0.0922  0.2694 -0.1910
  768POSM   C1B 9013   8.034  15.305  12.783  0.3010  0.2526 -0.2425
  768POSM   D2B 9014   8.473  15.350  12.756  0.0139  0.3452 -0.1822
  768POSM   C3B 9015   8.823  15.371  13.094  0.2881 -0.0023  0.3479
  768POSM   C4B 9016   9.191  15.613  13.122  0.3307  0.1872  0.3427
  769DOPC   NC3 9017   3.416  17.693  13.281 -0.0256 -0.0588  0.0522
  769DOPC   PO4 9018   3.022  17.631  13.231 -0.1453  0.0686  0.0733
  769DOPC   GL1 9019   2.975  17.309  13.481  0.1330  0.0188 -0.2455
  769DOPC   GL2 9020   3.241  17.283  13.624 -0.1234  0.0335  0.1117
  769DOPC   C1A 9021   2.852  17.086  13.849  0.4041 -0.0210 -0.0986
  769DOPC   D2A 9022   2.865  16.910  14.305 -0.1196 -0.3277  0.3829
  769DOPC   C3A 9023   3.276  17.072  14.436 -0.0332 -0.1747 -0.4279
  769DOPC   C4A 9024   3.584  17.328  14.660  0.3455  0.1403 -0.0136
  769DOPC   C1B 9025   3.422  17.021  13.966 -0.2903  0.1911 -0.0030
  769DOPC   D2B 9026   3.602  16.657  14.192 -0.0783  0.0372 -0.2190
  769DOPC   C3B 9027   4.093  16.656  14.285 -0.2613  0.0229  0.0673
  769DOPC   C4B 9028   4.401  16.904  14.087 -0.2039  0.2269  0.3028
  770DOPC   NC3 9029   8.105  13.140  12.875  0.0006 -0.4283  0.0321
  770DOPC   PO4 9030   8.230  13.284  12.509  0.2534 -0.0306 -0.2670
  770DOPC   GL1 9031   8.530  13.183  12.730  0.1792 -0.1073 -0.2413
  770DOPC   GL2 9032   8.806  13.170  12.699  0.2570  0.1945 -0.0082
  770DOPC   C1A 9033   8.484  13.148  13.207 -0.0208 -0.0121  0.0045
  770DOPC   D2A 9034   8.394  13.063  13.575 -0.0090 -0.1747 -0.2133
  770DOPC   C3A 9035   8.361  13.088  14.012 -0.1073  0.1755  0.1390
  770DOPC   C4A 9036   8.212  12.911  14.385  0.0492  0.0737 -0.0028
  770DOPC   C1B 9037   8.881  12.898  13.011 -0.0803  0.1898 -0.0851
  770DOPC   D2B 9038   9.116  12.582  13.245  0.0944  0.4716  0.1615
  770DOPC   C3B 9039   9.282  12.779  13.673 -0.1035 -0.1300 -0.2763
  770DOPC   C4B 9040   9.521  12.965  14.031 -0.0476 -0.2217 -0.0952
  771DOPE   NH3 9041   7.361  19.094  12.401 -0.1484 -0.2440 -0.0668
  771DOPE   PO4 9042   7.330  18.793  12.276 -0.0983  0.1661  0.4259
  771DOPE   GL1 9043   7.441  18.660  12.591  0.0724  0.2219  0.2069
  771DOPE   GL2 9044   7.737  18.770  12.741 -0.0039 -0.0791 -0.1030
  771DOPE   C1A 9045   7.550  18.213  12.731  0.1466  0.1230 -0.4535
  771DOPE   D2A 9046   7.617  17.832  12.944 -0.0929  0.0030 -0.2773
  771DOPE   C3A 9047   7.921  17.961  13.176  0.0675 -0.0851 -0.2291
  771DOPE   C4A 9048   8.058  18.146  13.551  0.0528 -0.1514  0.2486
  771DOPE   C1B 9049   7.693  19.137  13.055  0.1693  0.0728  0.0864
  771DOPE   D2B 9050   7.499  19.313  13.465  0.2552 -0.1187  0.0602
  771DOPE   C3B 9051   7.438  19.048  13.782 -0.1338  0.2240 -0.0205
  771DOPE   C4B 9052   6.978  18.966  14.029  0.0439  0.0425  0.1900
  772DOPC   NC3 9053   6.800  17.216  12.400  0.1232  0.1074  0.2490
  772DOPC   PO4 9054   6.591  17.579  12.410  0.2160 -0.1896 -0.1278
  772DOPC   GL1 9055   6.800  17.525  12.747  0.0223  0.1707  0.2546
  772DOPC   GL2 9056   6.886  17.851  12.727  0.2477 -0.0030 -0.1920
  772DOPC   C1A 9057   6.986  17.538  13.145  0.2781  0.2045  0.0043
  772DOPC   D2A 9058   7.169  17.468  13.614  0.1838 -0.4493 -0.1607
  772DOPC   C3A 9059   7.523  17.307  13.836  0.1669 -0.1526  0.1206
  772DOPC   C4A 9060   7.960  17.177  13.868 -0.1247 -0.2317  0.2464
  772DOPC   C1B 9061   7.099  18.191  13.016 -0.0357 -0.1674 -0.1313
  772DOPC   D2B 9062   7.017  18.487  13.372 -0.1069  0.3340  0.2057
  772DOPC   C3B 9063   7.182  18.549  13.821 -0.1166 -0.0136  0.0192
  772DOPC   C4B 9064   7.353  18.710  14.231  0.1869 -0.1239 -0.0700
  773DOPC   NC3 9065   8.955  19.440  12.611  0.0493  0.1525 -0.2919
  773DOPC   PO4 9066   9.293  19.568  12.718  0.2537 -0.0292 -0.0595
  773DOPC   GL1 9067   8.985  19.737  12.966  0.0129 -0.1707 -0.1729
  773DOPC   GL2 9068   9.215  19.777  13.163 -0.0881  0.3135 -0.1093
  773DOPC   C1A 9069   8.655  20.083  12.866 -0.0993  0.3690 -0.0268
  773DOPC   D2A 9070   8.422  20.418  13.014 -0.0364  0.1147 -0.1767
  773DOPC   C3A 9071   8.228  20.417  13.432 -0.4977  0.0834 -0.0247
  773DOPC   C4A 9072   8.272  20.100  13.768  0.1150  0.1811  0.1767
  773DOPC   C1B 9073   9.225  20.226  13.000  0.0275  0.0522 -0.0181
  773DOPC   D2B 9074   9.416  20.507  12.695  0.4784 -0.1255  0.3086
  773DOPC   C3B 9075   9.311  20.900  12.879  0.1285  0.0208  0.2435
  773DOPC   C4B 9076   9.410  21.164  13.207 -0.4112  0.1746 -0.1757
  774DOPS   CNO 9077   7.369  23.017  12.060  0.2090 -0.3007 -0.0117
  774DOPS   PO4 9078   7.064  22.823  12.181 -0.0167  0.1714  0.0517
  774DOPS   GL1 9079   7.368  22.652  12.449 -0.0294  0.4214 -0.0858
  774DOPS   GL2 9080   7.541  22.475  12.539 -0.3874 -0.2712  0.1550
  774DOPS   C1A 9081   7.738  22.953  12.461 -0.2243 -0.0948 -0.0006
  774DOPS   D2A 9082   8.047  23.349  12.351 -0.2229  0.1951  0.1141
  774DOPS   C3A 9083   8.266  23.699  12.634 -0.0976 -0.0381 -0.0931
  774DOPS   C4A 9084   8.604  23.960  12.796  0.0619 -0.0257  0.3971
  774DOPS   C1B 9085   7.899  22.609  12.831 -0.2598  0.2210 -0.1680
  774DOPS   D2B 9086   8.264  22.503  13.060 -0.0783 -0.1339 -0.2662
  774DOPS   C3B 9087   8.438  22.415  13.508 -0.1366  0.2083  0.3710
  774DOPS   C4B 9088   8.739  22.392  13.831 -0.2461 -0.1483  0.2268
  775POSM   NC3 9089  10.313  16.889  11.919  0.0214 -0.0278  0.1303
  775POSM   PO4 9090  10.090  16.799  12.226  0.3184 -0.3030  0.4674
  775POSM   AM1 9091   9.949  16.885  12.486 -0.0776 -0.0285 -0.0745
  775POSM   AM2 9092  10.052  16.894  12.738 -0.0427  0.1213 -0.1535
  775POSM   T1A 9093   9.597  17.132  12.734 -0.0921 -0.2143  0.1084
  775POSM   C2A 9094   9.581  17.489  13.049 -0.1072 -0.1795  0.1918
  775POSM   C3A 9095   9.542  17.480  13.480 -0.1723 -0.0228  0.0210
  775POSM   C1B 9096   9.860  16.653  12.877 -0.0674 -0.2354  0.4646
  775POSM   D2B 9097   9.462  16.417  12.817 -0.0471 -0.0306  0.0943
  775POSM   C3B 9098   9.437  16.668  13.201  0.0544  0.2394 -0.1831
  775POSM   C4B 9099   9.157  16.825  13.507  0.3717 -0.1412  0.2434
  776DOPS   CNO 9100   6.297  20.044  12.051 -0.1670 -0.0068 -0.3468
  776DOPS   PO4 9101   6.204  19.845  12.393  0.1650  0.3092 -0.0043
  776DOPS   GL1 9102   6.412  20.111  12.486 -0.4522 -0.1713 -0.2723
  776DOPS   GL2 9103   6.490  20.090  12.776  0.0998 -0.3609 -0.0081
  776DOPS   C1A 9104   6.744  20.417  12.533 -0.2250 -0.1361 -0.1199
  776DOPS   D2A 9105   7.208  20.455  12.412 -0.0004 -0.0246  0.0986
  776DOPS   C3A 9106   7.417  20.862  12.208  0.3877  0.0076 -0.0520
  776DOPS   C4A 9107   7.655  21.283  12.304  0.1609 -0.3360 -0.2442
  776DOPS   C1B 9108   6.547  20.493  13.009 -0.0894 -0.3267 -0.0577
  776DOPS   D2B 9109   6.903  20.775  12.901 -0.0122  0.5782  0.0524
  776DOPS   C3B 9110   7.165  20.904  13.285  0.0071 -0.1189 -0.2793
  776DOPS   C4B 9111   7.303  20.757  13.754  0.1632  0.0203  0.0885
  777POSM   NC3 9112   1.774  16.528  13.283 -0.0777  0.0957 -0.1027
  777POSM   PO4 9113   1.753  16.856  13.096 -0.0527  0.0859  0.0004
  777POSM   AM1 9114   1.693  16.951  13.388  0.2164 -0.0231 -0.0209
  777POSM   AM2 9115   1.856  16.953  13.609 -0.2466 -0.1954  0.0770
  777POSM   T1A 9116   1.619  17.346  13.716  0.1076  0.0405  0.1426
  777POSM   C2A 9117   1.398  17.657  13.881 -0.2444 -0.0102  0.1139
  777POSM   C3A 9118   1.465  17.919  14.212 -0.3235 -0.0258 -0.0180
  777POSM   C1B 9119   2.048  16.788  13.789  0.2011 -0.2154  0.1276
  777POSM   D2B 9120   2.122  16.616  14.200 -0.2815  0.0845 -0.2296
  777POSM   C3B 9121   2.455  16.740  14.486  0.2300 -0.0090  0.2273
  777POSM   C4B 9122   2.746  17.003  14.833 -0.0874  0.0385  0.1200
  778DOPC   NC3 9123   3.611  20.706  12.880  0.0404 -0.3831  0.2689
  778DOPC   PO4 9124   3.826  20.389  13.006 -0.2977  0.1559 -0.1567
  778DOPC   GL1 9125   3.705  20.374  13.383 -0.0810  0.0665 -0.2908
  778DOPC   GL2 9126   3.426  20.591  13.380  0.1266 -0.0930  0.4384
  778DOPC   C1A 9127   4.029  20.186  13.673  0.1501  0.0567  0.2755
  778DOPC   D2A 9128   4.396  19.899  13.769  0.0622  0.1268  0.3173
  778DOPC   C3A 9129   4.831  19.986  13.966  0.0750  0.0192 -0.2589
  778DOPC   C4A 9130   4.946  19.998  14.388 -0.1522 -0.1688 -0.0701
  778DOPC   C1B 9131   3.039  20.591  13.717  0.0797 -0.0209 -0.1815
  778DOPC   D2B 9132   2.582  20.585  13.831 -0.2848 -0.0870  0.1714
  778DOPC   C3B 9133   2.200  20.484  14.044  0.1502  0.1351  0.1995
  778DOPC   C4B 9134   1.995  20.373  14.422 -0.0146  0.2762  0.0746
  779DOPC   NC3 9135   7.101  16.253  12.266  0.0484 -0.2786  0.2216
  779DOPC   PO4 9136   7.374  16.484  12.447  0.3084  0.2185 -0.1500
  779DOPC   GL1 9137   7.559  16.375  12.753 -0.0464 -0.2392 -0.1867
  779DOPC   GL2 9138   7.588  16.164  12.956 -0.0720  0.1397  0.2346
  779DOPC   C1A 9139   7.951  16.554  13.028  0.1014  0.2953 -0.2117
  779DOPC   D2A 9140   8.213  16.605  13.425 -0.1526  0.3787  0.0777
  779DOPC   C3A 9141   8.315  16.311  13.758 -0.3062  0.2864  0.0185
  779DOPC   C4A 9142   8.638  16.073  13.924 -0.1602  0.1825 -0.1448
  779DOPC   C1B 9143   7.781  15.791  12.842  0.1968 -0.4182 -0.0740
  779DOPC   D2B 9144   8.167  15.715  12.567 -0.2032 -0.3301 -0.2258
  779DOPC   C3B 9145   8.546  15.644  12.312  0.0935  0.0599 -0.0606
  779DOPC   C4B 9146   8.958  15.838  12.236  0.1439  0.2615  0.1484
  780DOPC   NC3 9147   2.073  11.926  12.910 -0.1398  0.3351 -0.0425
  780DOPC   PO4 9148   2.053  11.995  12.507 -0.1703 -0.2166  0.1559
  780DOPC   GL1 9149   1.877  12.326  12.758 -0.0451  0.4226  0.2307
  780DOPC   GL2 9150   2.095  12.407  12.964 -0.0746  0.1638  0.1626
  780DOPC   C1A 9151   1.718  12.213  13.201 -0.0899  0.0922  0.3377
  780DOPC   D2A 9152   1.496  12.496  13.499  0.2115 -0.0306 -0.0424
  780DOPC   C3A 9153   1.250  12.391  13.863  0.1115 -0.0223 -0.2138
  780DOPC   C4A 9154   1.377  12.196  14.272  0.0581  0.1421 -0.1931
  780DOPC   C1B 9155   2.157  12.407  13.410 -0.1598 -0.1957  0.0202
  780DOPC   D2B 9156   2.351  12.367  13.822  0.1137  0.1322  0.0643
  780DOPC   C3B 9157   2.116  12.664  14.158  0.0544 -0.0531  0.0165
  780DOPC   C4B 9158   2.029  13.028  14.465  0.1830  0.1363 -0.0239
  781POSM   NC3 9159   7.782  22.715  11.917 -0.1312 -0.0420 -0.2693
  781POSM   PO4 9160   7.812  22.335  11.758  0.2621  0.1544 -0.2772
  781POSM   AM1 9161   7.805  22.086  11.969  0.3736  0.2166 -0.0234
  781POSM   AM2 9162   7.620  21.885  12.068  0.2791 -0.0548  0.3356
  781POSM   T1A 9163   7.882  22.082  12.470 -0.0441 -0.1182 -0.1662
  781POSM   C2A 9164   7.932  22.094  12.952 -0.1965 -0.1705  0.1146
  781POSM   C3A 9165   7.886  22.345  13.327 -0.2066  0.1048  0.3993
  781POSM   C1B 9166   7.384  21.734  12.101  0.3757  0.0085  0.0808
  781POSM   D2B 9167   7.152  21.528  12.450  0.0821  0.1177  0.2153
  781POSM   C3B 9168   7.287  21.120  12.702 -0.1000  0.4442  0.1487
  781POSM   C4B 9169   7.369  20.659  12.810  0.2004 -0.1371 -0.1580
  782POSM   NC3 9170   1.355  15.070  12.450 -0.1384 -0.2276 -0.2335
  782POSM   PO4 9171   1.509  15.401  12.547  0.1844  0.1878  0.4121
  782POSM   AM1 9172   1.768  15.215  12.683  0.1504  0.0401 -0.1338
  782POSM   AM2 9173   1.782  15.034  12.904 -0.0029 -0.2524 -0.1454
  782POSM   T1A 9174   2.192  14.937  12.645  0.1707  0.3092 -0.1707
  782POSM   C2A 9175   2.464  14.555  12.853  0.0986 -0.0169 -0.0603
  782POSM   C3A 9176   2.412  14.084  12.948  0.1982 -0.0456 -0.0006
  782POSM   C1B 9177   1.956  14.810  13.111  0.2666  0.2034  0.0804
  782POSM   D2B 9178   2.379  14.821  13.335 -0.1980  0.0405 -0.2609
  782POSM   C3B 9179   2.692  14.775  13.716 -0.2475 -0.4285  0.0382
  782POSM   C4B 9180   2.807  14.652  14.182  0.1579 -0.0919  0.0221
  783DOPE   NH3 9181   5.663  14.822  13.436 -0.0597 -0.3043 -0.0063
  783DOPE   PO4 9182   5.650  15.064  13.267 -0.0758 -0.0253 -0.1508
  783DOPE   GL1 9183   5.523  15.303  13.497  0.0487  0.0152  0.0650
  783DOPE   GL2 9184   5.300  15.197  13.700  0.0963  0.0211 -0.0056
  783DOPE   C1A 9185   5.257  15.661  13.647 -0.3334  0.2487  0.2201
  783DOPE   D2A 9186   5.168  16.048  13.691  0.0702  0.2772  0.0602
  783DOPE   C3A 9187   5.226  16.501  13.511 -0.0312 -0.1577 -0.4039
  783DOPE   C4A 9188   5.294  16.887  13.318 -0.2767  0.1113 -0.1673
  783DOPE   C1B 9189   5.063  15.290  14.129  0.0969 -0.1654  0.3568
  783DOPE   D2B 9190   4.823  15.258  14.521  0.1968  0.2549 -0.3206
  783DOPE   C3B 9191   5.007  15.500  14.895  0.0217  0.1494  0.0835
  783DOPE   C4B 9192   5.106  15.315  15.304  0.4339 -0.3226  0.0009
  784DOPS   CNO 9193  10.689  15.062  11.925  0.1138 -0.2196 -0.0115
  784DOPS   PO4 9194  10.849  15.387  12.011 -0.1890  0.2921 -0.1102
  784DOPS   GL1 9195  10.741  15.579  12.371 -0.0996  0.1339  0.0118
  784DOPS   GL2 9196  10.932  15.413  12.591 -0.1986  0.2107  0.0490
  784DOPS   C1A 9197  10.708  16.026  12.446  0.4483  0.3858 -0.0414
  784DOPS   D2A 9198  10.502  16.416  12.664 -0.1343  0.1762  0.2093
  784DOPS   C3A 9199  10.288  16.349  13.050  0.5037 -0.2469  0.0245
  784DOPS   C4A 9200   9.912  16.154  12.907  0.0064  0.1080 -0.4100
  784DOPS   C1B 9201  10.501  15.422  12.755  0.0656  0.1778  0.0497
  784DOPS   D2B 9202  10.120  15.328  12.427 -0.1417  0.1543  0.3723
  784DOPS   C3B 9203   9.838  15.649  12.314  0.0169  0.0373 -0.1286
  784DOPS   C4B 9204   9.474  15.738  12.112 -0.0460  0.0078 -0.3019
  785DOPE   NH3 9205  11.122  23.029  12.335 -0.1952 -0.0756 -0.0057
  785DOPE   PO4 9206  10.961  22.795  12.479 -0.0882 -0.3091  0.0420
  785DOPE   GL1 9207  11.006  22.714  12.844 -0.0157 -0.0149  0.1381
  785DOPE   GL2 9208  10.899  22.904  13.017 -0.0761  0.0551 -0.1411
  785DOPE   C1A 9209  11.221  22.433  13.150  0.2673  0.0183 -0.0040
  785DOPE   D2A 9210  11.655  22.269  13.256  0.0847 -0.3612  0.1071
  785DOPE   C3A 9211  11.806  22.280  13.674 -0.0164  0.0396 -0.0615
  785DOPE   C4A 9212  12.103  22.183  13.986 -0.2420  0.1246  0.0139
  785DOPE   C1B 9213  10.984  22.756  13.457 -0.3670  0.1071  0.1859
  785DOPE   D2B 9214  11.159  22.511  13.875 -0.2299  0.0925  0.0841
  785DOPE   C3B 9215  11.546  22.627  14.062  0.1013 -0.2587 -0.0967
  785DOPE   C4B 9216  12.002  22.709  13.940 -0.3163 -0.1798  0.0816
  786DOPC   NC3 9217   0.735  16.083  12.835  0.0215 -0.1914  0.1423
  786DOPC   PO4 9218   0.842  16.503  12.790  0.1665  0.1809 -0.0348
  786DOPC   GL1 9219   0.637  16.875  12.788  0.0001  0.0216 -0.0037
  786DOPC   GL2 9220   0.456  16.889  13.002 -0.0236  0.0227  0.0424
  786DOPC   C1A 9221   0.355  17.237  12.696  0.0252 -0.2093 -0.2174
  786DOPC   D2A 9222   0.128  17.597  12.891 -0.0428 -0.2016  0.1672
  786DOPC   C3A 9223   0.288  17.796  13.337 -0.2344 -0.0446 -0.0546
  786DOPC   C4A 9224   0.713  18.009  13.483 -0.2291  0.4206  0.1577
  786DOPC   C1B 9225   0.071  17.145  13.086  0.0101 -0.0154  0.1054
  786DOPC   D2B 9226  -0.217  16.922  13.353 -0.1230 -0.2063  0.1105
  786DOPC   C3B 9227  -0.207  17.029  13.796 -0.1890  0.2916 -0.1382
  786DOPC   C4B 9228  -0.150  17.216  14.248 -0.2078 -0.3647 -0.1620
  787DOPC   NC3 9229   4.787  14.546  12.890  0.0397  0.1737 -0.3300
  787DOPC   PO4 9230   4.557  14.701  13.127 -0.1682  0.2278  0.0527
  787DOPC   GL1 9231   4.074  14.526  13.197  0.1948 -0.3745 -0.1391
  787DOPC   GL2 9232   4.219  14.356  13.381  0.0597 -0.1164 -0.3601
  787DOPC   C1A 9233   3.619  14.607  13.333 -0.0616 -0.0663 -0.0514
  787DOPC   D2A 9234   3.298  14.250  13.372  0.1451 -0.2893  0.0117
  787DOPC   C3A 9235   2.850  14.325  13.298 -0.1098 -0.1491  0.1634
  787DOPC   C4A 9236   2.484  14.323  13.447  0.2687  0.1927  0.0723
  787DOPC   C1B 9237   4.083  14.420  13.815  0.1308  0.1442 -0.0711
  787DOPC   D2B 9238   3.856  14.521  14.175 -0.2418  0.4105  0.0152
  787DOPC   C3B 9239   3.959  14.432  14.594  0.2748 -0.2396  0.4339
  787DOPC   C4B 9240   3.973  14.401  15.049 -0.0237  0.2443  0.3917
  788POSM   NC3 9241   9.362  18.086  12.942 -0.2082 -0.1249 -0.1981
  788POSM   PO4 9242   9.461  17.810  12.715 -0.1109  0.1216 -0.1783
  788POSM   AM1 9243   9.754  17.850  12.921  0.2792 -0.1454 -0.1437
  788POSM   AM2 9244   9.993  18.007  13.019  0.2953  0.1643  0.0742
  788POSM   T1A 9245  10.004  17.615  13.282  0.2265  0.3168  0.1631
  788POSM   C2A 9246  10.007  17.286  13.655 -0.2641 -0.0285 -0.2059
  788POSM   C3A 9247  10.261  17.301  14.015  0.1684  0.0477  0.0480
  788POSM   C1B 9248  10.188  18.132  13.298  0.0504 -0.2378  0.0557
  788POSM   D2B 9249  10.188  17.929  13.710 -0.0116  0.0355 -0.1356
  788POSM   C3B 9250  10.572  17.656  13.794  0.0459 -0.0047 -0.0544
  788POSM   C4B 9251  10.919  17.331  13.753  0.1459 -0.0097 -0.0086
  789POSM   NC3 9252  34.550  21.018  12.924  0.3719  0.1398  0.0266
  789POSM   PO4 9253  34.918  21.000  13.072  0.1369 -0.0593 -0.0098
  789POSM   AM1 9254  35.122  20.872  13.312  0.0148  0.0908 -0.0729
  789POSM   AM2 9255  35.327  20.933  13.476  0.2986 -0.0318 -0.0204
  789POSM   T1A 9256  35.132  20.506  13.692  0.1617 -0.0605 -0.0562
  789POSM   C2A 9257  35.102  20.042  13.850 -0.0095 -0.0013 -0.0069
  789POSM   C3A 9258  35.350  19.692  13.873 -0.1970  0.1441  0.1106
  789POSM   C1B 9259  35.376  21.083  13.747 -0.1813  0.0938  0.4154
  789POSM   D2B 9260  35.283  21.498  13.960 -0.0114  0.2565  0.1233
  789POSM   C3B 9261  35.747  21.650  13.845  0.0699 -0.0253  0.0405
  789POSM   C4B 9262  36.156  21.869  13.723 -0.0486 -0.0377 -0.3185
  790DOPS   CNO 9263   6.824  14.267  12.517  0.2259 -0.0414 -0.2117
  790DOPS   PO4 9264   6.543  14.428  12.728 -0.2638 -0.1432  0.1595
  790DOPS   GL1 9265   6.686  14.211  13.052  0.0056 -0.0268 -0.0292
  790DOPS   GL2 9266   6.916  14.035  12.973 -0.2418  0.0021  0.0394
  790DOPS   C1A 9267   6.933  14.264  13.461  0.0111  0.0826  0.0351
  790DOPS   D2A 9268   7.374  14.382  13.563 -0.3152  0.0990 -0.1104
  790DOPS   C3A 9269   7.658  14.303  13.925  0.0882  0.2549  0.0303
  790DOPS   C4A 9270   7.873  14.003  14.174  0.2495  0.2597  0.2639
  790DOPS   C1B 9271   7.303  13.937  13.239 -0.2425  0.1855 -0.0786
  790DOPS   D2B 9272   7.771  13.734  13.131 -0.1835  0.1739 -0.0543
  790DOPS   C3B 9273   8.164  13.509  13.284 -0.0078  0.0700  0.0091
  790DOPS   C4B 9274   8.534  13.564  13.573 -0.0192  0.0412  0.1682
  791POSM   NC3 9275   2.528  11.768  12.345 -0.2936  0.1853 -0.4932
  791POSM   PO4 9276   2.831  11.774  12.598  0.1165  0.1346 -0.3135
  791POSM   AM1 9277   2.613  11.677  12.837  0.0275  0.1423  0.0177
  791POSM   AM2 9278   2.540  11.442  12.919  0.0010 -0.3553 -0.0019
  791POSM   T1A 9279   2.324  11.754  13.276 -0.2730  0.2930  0.2004
  791POSM   C2A 9280   2.026  11.948  13.561  0.0087  0.2092 -0.0636
  791POSM   C3A 9281   1.581  11.973  13.682  0.0010 -0.1553 -0.0169
  791POSM   C1B 9282   2.469  11.254  13.159  0.1152  0.0275 -0.0238
  791POSM   D2B 9283   2.107  11.286  13.460 -0.3027 -0.0356 -0.4067
  791POSM   C3B 9284   1.840  11.015  13.626 -0.2049 -0.0057  0.0666
  791POSM   C4B 9285   1.404  10.983  13.500  0.2400  0.0087 -0.3896
  792DOPE   NH3 9286   5.769  20.113  12.353 -0.0232  0.0856 -0.0193
  792DOPE   PO4 9287   5.855  20.399  12.259 -0.2090 -0.2894  0.1334
  792DOPE   GL1 9288   5.678  20.525  12.598 -0.3122 -0.0783  0.5540
  792DOPE   GL2 9289   5.502  20.326  12.717 -0.0863  0.0599  0.2155
  792DOPE   C1A 9290   5.456  20.955  12.585 -0.1721  0.1062 -0.2156
  792DOPE   D2A 9291   5.354  21.312  12.915  0.0380  0.1011  0.0847
  792DOPE   C3A 9292   5.510  21.125  13.301  0.0539 -0.0789  0.2304
  792DOPE   C4A 9293   5.579  20.937  13.709 -0.2049 -0.0667  0.0637
  792DOPE   C1B 9294   5.119  20.360  13.034  0.1171  0.0123 -0.0086
  792DOPE   D2B 9295   5.104  20.197  13.478 -0.0357 -0.1511 -0.3744
  792DOPE   C3B 9296   4.727  20.441  13.656  0.0369 -0.3604  0.3932
  792DOPE   C4B 9297   4.639  20.859  13.767 -0.1783  0.0046 -0.5719
  793DOPE   NH3 9298   2.252  12.521  12.502  0.2237 -0.2344  0.0630
  793DOPE   PO4 9299   2.207  12.838  12.580 -0.0874 -0.1413 -0.0515
  793DOPE   GL1 9300   2.175  13.299  12.672 -0.1671 -0.2287 -0.1097
  793DOPE   GL2 9301   1.868  13.297  12.626  0.0242 -0.1063 -0.1403
  793DOPE   C1A 9302   2.169  13.605  12.979 -0.1328  0.1838  0.0488
  793DOPE   D2A 9303   2.307  13.798  13.386  0.0595 -0.4003  0.1529
  793DOPE   C3A 9304   2.718  13.930  13.646  0.2393 -0.5306  0.1446
  793DOPE   C4A 9305   2.781  14.303  13.867 -0.0395  0.0050  0.0615
  793DOPE   C1B 9306   1.806  13.282  13.089 -0.0893  0.1290 -0.0139
  793DOPE   D2B 9307   1.560  13.195  13.460 -0.3097 -0.0340  0.2885
  793DOPE   C3B 9308   1.719  13.070  13.857 -0.0001 -0.2139  0.1082
  793DOPE   C4B 9309   1.628  12.688  14.087  0.2941  0.1378  0.0327
  794DOPE   NH3 9310   2.556  12.622  12.921 -0.0009  0.0179  0.0680
  794DOPE   PO4 9311   2.708  12.877  12.764 -0.1429  0.5255 -0.1777
  794DOPE   GL1 9312   2.479  13.067  13.033  0.1979 -0.0332  0.0821
  794DOPE   GL2 9313   2.214  12.939  13.055 -0.2154  0.1648  0.0929
  794DOPE   C1A 9314   2.558  12.931  13.479 -0.1618  0.1812 -0.0093
  794DOPE   D2A 9315   2.513  12.855  13.945  0.1028 -0.1426 -0.2199
  794DOPE   C3A 9316   2.203  13.194  14.042 -0.2468  0.0249  0.2067
  794DOPE   C4A 9317   1.921  13.476  14.246 -0.3208 -0.4592  0.1426
  794DOPE   C1B 9318   2.212  13.255  13.408  0.2432 -0.0927 -0.0396
  794DOPE   D2B 9319   2.059  13.540  13.733 -0.1287 -0.2574  0.2421
  794DOPE   C3B 9320   1.579  13.598  13.823 -0.0682  0.4464  0.0736
  794DOPE   C4B 9321   1.120  13.502  13.710 -0.0458 -0.1400  0.0245
  795DOPS   CNO 9322   3.227  12.726  12.472  0.0685  0.1493  0.5313
  795DOPS   PO4 9323   3.316  12.413  12.326  0.2078 -0.0417 -0.3367
  795DOPS   GL1 9324   3.435  12.472  12.760  0.4011 -0.0607 -0.0121
  795DOPS   GL2 9325   3.723  12.476  12.690  0.0339  0.1965 -0.2170
  795DOPS   C1A 9326   3.577  12.819  13.007 -0.3368  0.0438 -0.0390
  795DOPS   D2A 9327   3.681  13.129  13.306  0.2287  0.3404  0.2172
  795DOPS   C3A 9328   3.220  13.127  13.590 -0.1675 -0.3581  0.0252
  795DOPS   C4A 9329   2.932  13.025  13.988  0.2566 -0.0012  0.0118
  795DOPS   C1B 9330   4.005  12.329  12.978  0.1788 -0.4995  0.1468
  795DOPS   D2B 9331   4.449  12.486  13.019 -0.1741  0.1858  0.1796
  795DOPS   C3B 9332   4.369  12.750  13.375 -0.1911 -0.2885 -0.2353
  795DOPS   C4B 9333   4.122  13.113  13.546  0.0393  0.1336  0.0539
  796POSM   NC3 9334   7.020  14.527  12.966  0.3399  0.0048  0.1753
  796POSM   PO4 9335   6.732  14.742  13.089  0.4064 -0.1896  0.1033
  796POSM   AM1 9336   6.688  14.640  13.404 -0.0670  0.1696 -0.1652
  796POSM   AM2 9337   6.440  14.592  13.582 -0.1907  0.3306 -0.0880
  796POSM   T1A 9338   6.937  14.645  13.849  0.2553 -0.4442 -0.2671
  796POSM   C2A 9339   6.743  14.587  14.267  0.1871 -0.1096 -0.3459
  796POSM   C3A 9340   6.770  14.901  14.621 -0.2535  0.1054  0.4878
  796POSM   C1B 9341   6.451  14.803  13.812 -0.0443  0.0424 -0.2824
  796POSM   D2B 9342   6.280  15.058  14.135  0.0362 -0.1250 -0.2222
  796POSM   C3B 9343   6.260  14.926  14.580  0.1245 -0.0550  0.1881
  796POSM   C4B 9344   6.406  14.662  14.904 -0.1008  0.0222  0.3430
  797POSM   NC3 9345   9.407  18.165  12.329  0.2074  0.1859 -0.1774
  797POSM   PO4 9346   9.060  18.307  12.512  0.1390 -0.1417  0.0869
  797POSM   AM1 9347   8.906  18.039  12.631 -0.1700  0.0852  0.0201
  797POSM   AM2 9348   8.903  17.975  12.900  0.1268  0.0846 -0.0641
  797POSM   T1A 9349   8.749  17.564  12.583  0.3653 -0.1940  0.4161
  797POSM   C2A 9350   8.785  17.090  12.708  0.2080 -0.1381 -0.1031
  797POSM   C3A 9351   8.808  16.694  12.444 -0.0747  0.0212 -0.1499
  797POSM   C1B 9352   8.862  17.711  13.077  0.0534 -0.0960  0.3077
  797POSM   D2B 9353   9.059  17.331  13.272  0.0981 -0.1036 -0.1132
  797POSM   C3B 9354   9.114  17.238  13.765  0.1776 -0.0335 -0.2813
  797POSM   C4B 9355   9.073  16.986  14.115 -0.0404 -0.2208  0.2301
  798DOPE   NH3 9356   7.367  14.232  12.359  0.0106 -0.1532 -0.0319
  798DOPE   PO4 9357   7.325  14.347  12.687 -0.0005 -0.2771  0.2061
  798DOPE   GL1 9358   7.727  14.486  12.896 -0.3296 -0.0359  0.0286
  798DOPE   GL2 9359   7.793  14.196  12.931  0.0231 -0.0628  0.1125
  798DOPE   C1A 9360   7.979  14.623  13.319 -0.0120 -0.1364 -0.0005
  798DOPE   D2A 9361   8.352  14.782  13.579  0.0330  0.0319 -0.0474
  798DOPE   C3A 9362   8.356  15.274  13.490 -0.2970 -0.1242  0.1509
  798DOPE   C4A 9363   8.523  15.733  13.552 -0.2744  0.0827  0.2803
  798DOPE   C1B 9364   7.871  14.174  13.343  0.1303 -0.0667 -0.0009
  798DOPE   D2B 9365   8.108  14.386  13.741  0.4204 -0.0638  0.0852
  798DOPE   C3B 9366   8.499  14.193  13.970 -0.1548 -0.1548  0.2489
  798DOPE   C4B 9367   8.566  14.225  14.445  0.0568 -0.2827 -0.1945
  799DOPS   CNO 9368   0.524  22.127  12.247  0.1451 -0.2209 -0.2251
  799DOPS   PO4 9369   0.818  22.186  12.502  0.1148 -0.0329  0.2259
  799DOPS   GL1 9370   1.114  22.208  12.824  0.2369  0.0792 -0.0256
  799DOPS   GL2 9371   1.277  21.895  12.802 -0.2970 -0.2809 -0.1803
  799DOPS   C1A 9372   1.333  22.218  13.225  0.2816 -0.2351 -0.1210
  799DOPS   D2A 9373   1.353  22.509  13.617  0.3610 -0.0275 -0.0753
  799DOPS   C3A 9374   1.671  22.723  13.812 -0.0963  0.0879 -0.1906
  799DOPS   C4A 9375   1.591  23.091  14.083 -0.0023  0.0109 -0.2793
  799DOPS   C1B 9376   1.699  22.035  12.825  0.0271 -0.1800 -0.2304
  799DOPS   D2B 9377   1.783  22.355  13.106 -0.1004 -0.0656 -0.1649
  799DOPS   C3B 9378   1.791  22.147  13.497  0.3147 -0.6926 -0.1884
  799DOPS   C4B 9379   1.779  22.268  13.951 -0.1076 -0.1140 -0.0187
  800DOPE   NH3 9380   6.211  19.609  12.865 -0.1142 -0.2975  0.3622
  800DOPE   PO4 9381   6.233  19.289  12.684 -0.2573 -0.0238 -0.1199
  800DOPE   GL1 9382   6.379  19.205  13.019 -0.0289  0.1950 -0.0122
  800DOPE   GL2 9383   6.171  19.128  13.173  0.0764 -0.2085  0.0900
  800DOPE   C1A 9384   6.711  19.451  13.201 -0.1775 -0.0246  0.0516
  800DOPE   D2A 9385   6.787  19.886  13.273  0.0873 -0.2263 -0.0198
  800DOPE   C3A 9386   6.490  20.262  13.454 -0.0403  0.2606  0.2359
  800DOPE   C4A 9387   6.020  20.293  13.418 -0.0333 -0.0932 -0.1940
  800DOPE   C1B 9388   6.412  19.223  13.500 -0.0207  0.1535 -0.1030
  800DOPE   D2B 9389   6.558  19.266  13.950  0.0240  0.0052  0.2377
  800DOPE   C3B 9390   6.811  19.457  14.256 -0.2453  0.0445  0.0611
  800DOPE   C4B 9391   6.716  19.594  14.640  0.0862 -0.3370 -0.0151
  801POSM   NC3 9392  34.291  13.854  12.486  0.0319  0.0382  0.1478
  801POSM   PO4 9393  34.429  13.871  12.837 -0.0412 -0.1694 -0.1930
  801POSM   AM1 9394  34.354  13.684  13.096 -0.0066  0.2026 -0.2578
  801POSM   AM2 9395  34.157  13.742  13.257 -0.1234  0.0353  0.0808
  801POSM   T1A 9396  34.514  13.310  13.343 -0.3402 -0.0232 -0.0741
  801POSM   C2A 9397  34.349  12.924  13.560  0.0509 -0.1854  0.0610
  801POSM   C3A 9398  34.152  12.502  13.513  0.1182  0.0245 -0.0487
  801POSM   C1B 9399  33.939  13.504  13.409 -0.1875 -0.1425  0.2396
  801POSM   D2B 9400  33.796  13.224  13.797  0.1046 -0.3370 -0.1549
  801POSM   C3B 9401  33.911  13.332  14.164 -0.0231  0.0331  0.2572
  801POSM   C4B 9402  34.020  13.653  14.508  0.1723  0.1794  0.2013
  802POSM   NC3 9403   1.263  22.538  12.565 -0.1531  0.2451  0.0504
  802POSM   PO4 9404   0.921  22.767  12.500  0.0478  0.3441  0.1090
  802POSM   AM1 9405   0.895  22.648  12.812  0.0647  0.1037  0.2028
  802POSM   AM2 9406   1.076  22.685  13.060  0.2338 -0.2332  0.2883
  802POSM   T1A 9407   0.820  22.245  13.128 -0.2777 -0.0918 -0.0432
  802POSM   C2A 9408   0.942  21.836  13.242 -0.0740 -0.0434  0.2687
  802POSM   C3A 9409   0.895  21.388  13.422 -0.2785 -0.0335 -0.1821
  802POSM   C1B 9410   1.408  22.699  13.066 -0.1788 -0.0884 -0.3115
  802POSM   D2B 9411   1.815  22.924  13.172  0.0749  0.2450 -0.2477
  802POSM   C3B 9412   1.659  23.171  13.503 -0.1151  0.0885  0.1161
  802POSM   C4B 9413   1.288  22.980  13.726 -0.0476  0.1139 -0.2665
  803DOPC   NC3 9414   3.109  19.137  13.151 -0.1714  0.2037  0.1174
  803DOPC   PO4 9415   3.338  19.444  12.962 -0.1315 -0.0431  0.2583
  803DOPC   GL1 9416   3.388  19.613  13.342  0.2271  0.0491  0.1136
  803DOPC   GL2 9417   3.603  19.823  13.410 -0.0953 -0.0263 -0.1289
  803DOPC   C1A 9418   3.241  19.681  13.766  0.0238 -0.0846  0.2274
  803DOPC   D2A 9419   3.325  19.854  14.182 -0.0560 -0.3130 -0.2392
  803DOPC   C3A 9420   3.229  20.333  14.291  0.1088  0.2936  0.1479
  803DOPC   C4A 9421   3.354  20.788  14.233 -0.0123 -0.1468 -0.1627
  803DOPC   C1B 9422   3.498  20.052  13.787 -0.1309  0.2917  0.1329
  803DOPC   D2B 9423   3.550  20.502  13.865 -0.0261  0.0977  0.2782
  803DOPC   C3B 9424   3.947  20.474  14.132 -0.1900 -0.2198  0.0048
  803DOPC   C4B 9425   4.353  20.677  14.199 -0.2654  0.3399 -0.3372
  804POSM   NC3 9426   0.502  19.705  12.639 -0.2057 -0.0790 -0.0223
  804POSM   PO4 9427   0.274  19.355  12.507  0.2981 -0.1058  0.2448
  804POSM   AM1 9428   0.317  19.239  12.806 -0.0226 -0.0462  0.1371
  804POSM   AM2 9429   0.370  19.343  13.021  0.1100  0.2398 -0.0791
  804POSM   T1A 9430   0.325  18.814  13.085 -0.0400 -0.4923  0.2216
  804POSM   C2A 9431   0.500  18.666  13.444 -0.0840  0.0027  0.2719
  804POSM   C3A 9432   0.877  18.496  13.689 -0.1752  0.2444  0.0160
  804POSM   C1B 9433   0.269  19.434  13.338  0.2120 -0.0436 -0.0404
  804POSM   D2B 9434   0.182  19.460  13.827 -0.4321  0.0899  0.1369
  804POSM   C3B 9435  -0.175  19.218  13.989  0.0405  0.3107  0.0286
  804POSM   C4B 9436  -0.559  19.071  14.176  0.0672 -0.1182 -0.0218
  805DOPE   NH3 9437   4.577  13.761  12.948 -0.0704 -0.0832  0.0244
  805DOPE   PO4 9438   4.541  14.096  13.049 -0.3865 -0.1925 -0.0069
  805DOPE   GL1 9439   4.529  14.010  13.433 -0.0971  0.2566 -0.3493
  805DOPE   GL2 9440   4.763  13.938  13.606  0.0122 -0.0969 -0.1293
  805DOPE   C1A 9441   4.224  13.929  13.750 -0.4789  0.2105 -0.1371
  805DOPE   D2A 9442   3.986  13.824  14.167  0.0880  0.1853  0.2296
  805DOPE   C3A 9443   3.874  13.419  14.205  0.2772  0.3192 -0.2052
  805DOPE   C4A 9444   3.843  12.967  14.078 -0.0219  0.0590  0.3559
  805DOPE   C1B 9445   4.778  13.592  13.944  0.0112 -0.1238 -0.1854
  805DOPE   D2B 9446   4.952  13.367  14.315  0.1214  0.2730  0.1288
  805DOPE   C3B 9447   5.328  13.541  14.441 -0.0469 -0.0408  0.2774
  805DOPE   C4B 9448   5.529  13.598  14.881  0.1102 -0.1047  0.1481
  806DOPS   CNO 9449   2.540  17.088  12.648  0.1590 -0.1735  0.2758
  806DOPS   PO4 9450   2.600  16.994  12.988 -0.1268 -0.5391  0.0077
  806DOPS   GL1 9451   2.665  16.886  13.366 -0.0224 -0.0899  0.4228
  806DOPS   GL2 9452   2.472  17.044  13.548 -0.0016 -0.0856  0.0165
  806DOPS   C1A 9453   2.607  16.641  13.782 -0.3695  0.3395  0.0127
  806DOPS   D2A 9454   2.547  16.327  14.158 -0.2567  0.0482  0.0855
  806DOPS   C3A 9455   2.641  15.969  14.422  0.1590 -0.3452 -0.1368
  806DOPS   C4A 9456   2.689  15.486  14.406 -0.0256  0.0095  0.0246
  806DOPS   C1B 9457   2.395  17.033  14.040  0.2296 -0.1942 -0.2900
  806DOPS   D2B 9458   2.506  17.268  14.464  0.1084 -0.0322 -0.1062
  806DOPS   C3B 9459   2.129  17.503  14.602  0.1613  0.1856 -0.3994
  806DOPS   C4B 9460   1.791  17.584  14.326  0.0174  0.0760 -0.1828
  807DOPC   NC3 9461   2.373  18.256  12.538 -0.0794  0.0786  0.1294
  807DOPC   PO4 9462   2.630  18.480  12.794  0.0859  0.3182 -0.1942
  807DOPC   GL1 9463   2.694  18.421  13.180  0.1721 -0.1286 -0.0968
  807DOPC   GL2 9464   2.728  18.724  13.230  0.2786 -0.1396  0.2591
  807DOPC   C1A 9465   2.522  18.470  13.610 -0.1676  0.2911 -0.2870
  807DOPC   D2A 9466   2.720  18.624  14.028  0.0098 -0.4295  0.0429
  807DOPC   C3A 9467   2.468  18.928  14.149  0.0829  0.1528  0.0020
  807DOPC   C4A 9468   2.224  19.271  14.036  0.0173 -0.2775 -0.1164
  807DOPC   C1B 9469   2.407  19.009  13.192  0.0526 -0.2064 -0.0894
  807DOPC   D2B 9470   2.127  19.254  13.546  0.1323 -0.0690 -0.0230
  807DOPC   C3B 9471   2.227  19.672  13.696  0.2366 -0.0001  0.1326
  807DOPC   C4B 9472   2.346  20.109  13.672 -0.0151  0.1358 -0.1825
  808DOPC   NC3 9473   8.551  22.393  11.748  0.0549 -0.1451  0.0694
  808DOPC   PO4 9474   8.309  22.094  11.862  0.3998 -0.0767 -0.0943
  808DOPC   GL1 9475   8.111  21.857  12.136 -0.0683 -0.1347  0.3350
  808DOPC   GL2 9476   8.033  21.660  11.887 -0.2757  0.0703  0.4770
  808DOPC   C1A 9477   8.051  21.528  12.515  0.2491  0.1189 -0.1775
  808DOPC   D2A 9478   8.047  21.235  12.872 -0.4577  0.0411  0.0275
  808DOPC   C3A 9479   7.673  21.156  13.122  0.3370  0.1980 -0.3272
  808DOPC   C4A 9480   7.321  21.392  13.289 -0.1793 -0.0094 -0.2645
  808DOPC   C1B 9481   8.317  21.295  12.089  0.3382 -0.0745 -0.1164
  808DOPC   D2B 9482   8.100  20.987  12.411 -0.0377 -0.1667  0.0505
  808DOPC   C3B 9483   8.336  20.848  12.783 -0.0790  0.0315 -0.0413
  808DOPC   C4B 9484   8.529  21.101  13.114 -0.1110  0.0601 -0.0844
  809DOPC   NC3 9485   1.237  16.220  12.715 -0.2832  0.0512  0.0785
  809DOPC   PO4 9486   1.483  16.473  12.872 -0.0599  0.1370 -0.1383
  809DOPC   GL1 9487   1.304  16.245  13.157 -0.1894 -0.0748  0.4129
  809DOPC   GL2 9488   1.166  16.505  13.237  0.1526 -0.3316 -0.1607
  809DOPC   C1A 9489   1.419  16.226  13.599  0.0742 -0.1352  0.1276
  809DOPC   D2A 9490   1.709  16.429  13.883 -0.2215 -0.0421 -0.0349
  809DOPC   C3A 9491   1.901  16.197  14.269  0.2171  0.1612  0.1494
  809DOPC   C4A 9492   2.210  16.325  14.595  0.3517  0.1282 -0.0784
  809DOPC   C1B 9493   1.365  16.725  13.608  0.1252 -0.0458  0.2205
  809DOPC   D2B 9494   1.250  17.057  13.941  0.2694 -0.0634 -0.1167
  809DOPC   C3B 9495   1.191  17.035  14.374  0.0839 -0.1158 -0.0213
  809DOPC   C4B 9496   1.560  17.182  14.588 -0.2599  0.1909 -0.3151
  810DOPS   CNO 9497   5.324  19.864  12.567  0.1060 -0.0373  0.0908
  810DOPS   PO4 9498   5.546  19.816  12.893  0.0207 -0.0389 -0.4681
  810DOPS   GL1 9499   5.536  19.865  13.267 -0.0869  0.0335  0.0230
  810DOPS   GL2 9500   5.589  20.146  13.282  0.2390  0.1760  0.1312
  810DOPS   C1A 9501   5.756  19.945  13.720 -0.0873 -0.1391  0.1086
  810DOPS   D2A 9502   6.205  19.984  13.758  0.1707  0.2708  0.0163
  810DOPS   C3A 9503   6.466  20.286  13.949 -0.0318  0.0236 -0.0441
  810DOPS   C4A 9504   6.856  20.530  13.949  0.1824  0.2434 -0.2035
  810DOPS   C1B 9505   5.594  20.458  13.591  0.0788 -0.3126 -0.0911
  810DOPS   D2B 9506   5.913  20.386  13.901  0.0881 -0.0350  0.2296
  810DOPS   C3B 9507   5.876  20.387  14.371 -0.2595 -0.0979 -0.2282
  810DOPS   C4B 9508   5.834  20.705  14.660 -0.0589  0.0165 -0.0341
  811POSM   NC3 9509   0.844  11.954  12.516 -0.0550  0.2235 -0.0598
  811POSM   PO4 9510   1.120  11.715  12.268 -0.2399  0.0903  0.2081
  811POSM   AM1 9511   1.316  11.725  12.507  0.5446  0.3233 -0.4365
  811POSM   AM2 9512   1.248  11.823  12.793  0.0772 -0.0097  0.2162
  811POSM   T1A 9513   1.700  11.536  12.702 -0.2588  0.0920  0.2309
  811POSM   C2A 9514   2.052  11.395  12.868 -0.2227 -0.2354 -0.0775
  811POSM   C3A 9515   2.207  10.989  12.807  0.0489  0.1350  0.0184
  811POSM   C1B 9516   1.297  11.953  13.105  0.0779 -0.0694 -0.6086
  811POSM   D2B 9517   1.113  12.051  13.534  0.0480  0.3145  0.0292
  811POSM   C3B 9518   0.958  11.971  13.972 -0.0046  0.1863 -0.0237
  811POSM   C4B 9519   0.882  11.657  14.266  0.0092 -0.0230 -0.1085
  812POSM   NC3 9520   5.065  22.546  12.493  0.3843 -0.0430  0.2247
  812POSM   PO4 9521   5.156  22.236  12.724  0.0888  0.2131  0.1535
  812POSM   AM1 9522   5.257  22.039  12.967 -0.0007 -0.0053 -0.1290
  812POSM   AM2 9523   5.246  22.158  13.252 -0.2101  0.0924  0.2324
  812POSM   T1A 9524   5.413  21.706  13.304  0.2999 -0.2669 -0.1540
  812POSM   C2A 9525   5.598  21.684  13.707  0.2070  0.0940 -0.1495
  812POSM   C3A 9526   5.499  21.397  14.027  0.2087 -0.3332 -0.1361
  812POSM   C1B 9527   5.454  22.270  13.475 -0.1327  0.0786 -0.2134
  812POSM   D2B 9528   5.826  22.181  13.720 -0.1246  0.2398  0.2477
  812POSM   C3B 9529   5.964  22.284  14.127  0.0638  0.1057  0.0710
  812POSM   C4B 9530   6.197  22.572  14.375  0.0053  0.0126 -0.1432
  813DOPE   NH3 9531  34.301  18.263  13.060 -0.1941 -0.0441  0.2003
  813DOPE   PO4 9532  34.390  17.958  13.034 -0.0139  0.2094 -0.2104
  813DOPE   GL1 9533  34.540  17.914  13.376 -0.3225  0.2890  0.2351
  813DOPE   GL2 9534  34.627  18.130  13.550 -0.0059  0.1602 -0.0188
  813DOPE   C1A 9535  34.232  17.795  13.637 -0.1722  0.4022 -0.4080
  813DOPE   D2A 9536  34.157  17.609  14.034  0.0802  0.1975  0.4719
  813DOPE   C3A 9537  33.976  17.647  14.458 -0.2146  0.0651 -0.2924
  813DOPE   C4A 9538  33.794  17.806  14.857 -0.1011  0.0153 -0.2274
  813DOPE   C1B 9539  34.351  18.146  13.949 -0.2656 -0.4494  0.2663
  813DOPE   D2B 9540  33.979  18.162  14.262  0.0937 -0.3491  0.4159
  813DOPE   C3B 9541  34.238  18.024  14.648  0.1155 -0.0325  0.1523
  813DOPE   C4B 9542  34.380  17.947  15.084 -0.3274 -0.1762  0.1837
  814DOPC   NC3 9543   3.840  11.456  12.610  0.0651 -0.2522 -0.1672
  814DOPC   PO4 9544   4.069  11.175  12.451 -0.0823  0.0074  0.3949
  814DOPC   GL1 9545   4.225  11.220  12.803  0.4833 -0.2923 -0.3844
  814DOPC   GL2 9546   4.470  11.058  12.750  0.1243 -0.0428  0.0072
  814DOPC   C1A 9547   4.432  11.674  12.899  0.1766 -0.2007 -0.0584
  814DOPC   D2A 9548   4.432  11.870  13.344  0.1426 -0.1135  0.0441
  814DOPC   C3A 9549   4.775  11.735  13.694 -0.1418  0.0072 -0.0643
  814DOPC   C4A 9550   5.059  11.748  14.060 -0.0039 -0.0261  0.4814
  814DOPC   C1B 9551   4.414  10.873  13.161  0.1091 -0.0192  0.0201
  814DOPC   D2B 9552   4.128  10.839  13.548 -0.0777  0.1691  0.0901
  814DOPC   C3B 9553   3.662  11.038  13.538 -0.3643 -0.0427 -0.2217
  814DOPC   C4B 9554   3.305  10.942  13.817 -0.2882 -0.3834 -0.1431
  815POSM   NC3 9555   9.014  13.862  12.091  0.1984  0.1826  0.0819
  815POSM   PO4 9556   9.372  14.087  12.176 -0.0830 -0.1968  0.0829
  815POSM   AM1 9557   9.491  14.162  12.460 -0.0329  0.2135 -0.2990
  815POSM   AM2 9558   9.542  14.117  12.727  0.0171  0.2002  0.0759
  815POSM   T1A 9559   9.254  14.450  12.827 -0.2000  0.2916 -0.0901
  815POSM   C2A 9560   9.269  14.454  13.273  0.1177 -0.1214  0.0306
  815POSM   C3A 9561   9.503  14.487  13.681 -0.2614 -0.4453 -0.0570
  815POSM   C1B 9562   9.745  14.355  12.786 -0.0873 -0.0950  0.1139
  815POSM   D2B 9563   9.851  14.759  12.590 -0.1096 -0.3607 -0.1811
  815POSM   C3B 9564  10.112  15.019  12.927 -0.1000 -0.2153  0.2607
  815POSM   C4B 9565  10.269  15.334  13.219  0.1773 -0.0630  0.0306
  816POSM   NC3 9566   5.671  19.502  12.568 -0.1418  0.2111  0.0284
  816POSM   PO4 9567   5.762  19.217  12.862 -0.1400  0.2042 -0.1312
  816POSM   AM1 9568   5.678  19.061  13.146 -0.2552 -0.0850  0.1705
  816POSM   AM2 9569   5.411  18.927  13.235 -0.3595  0.0982  0.1449
  816POSM   T1A 9570   5.733  18.915  13.600  0.0208 -0.0757  0.2347
  816POSM   C2A 9571   5.766  18.648  13.992  0.2642 -0.1293 -0.1944
  816POSM   C3A 9572   5.690  18.204  14.144  0.1066  0.3061 -0.0621
  816POSM   C1B 9573   5.237  18.875  13.448 -0.2787  0.0082  0.3129
  816POSM   D2B 9574   5.264  18.917  13.913  0.0492 -0.0262 -0.0258
  816POSM   C3B 9575   5.099  19.047  14.291  0.3382  0.0532 -0.1322
  816POSM   C4B 9576   5.012  19.131  14.731 -0.0359  0.0217 -0.3407
  817DOPC   NC3 9577   2.251  32.263  15.807  0.0020  0.3207 -0.0104
  817DOPC   PO4 9578   2.611  32.186  15.922 -0.2129  0.1683 -0.1300
  817DOPC   GL1 9579   2.615  31.948  15.600 -0.0003  0.0933  0.1857
  817DOPC   GL2 9580   2.388  31.804  15.531 -0.1415  0.1708  0.0260
  817DOPC   C1A 9581   2.645  32.147  15.169 -0.1032 -0.1595 -0.0463
  817DOPC   D2A 9582   2.450  32.073  14.729 -0.0640 -0.0503  0.2541
  817DOPC   C3A 9583   2.529  32.400  14.417 -0.0429  0.1286  0.2194
  817DOPC   C4A 9584   2.332  32.504  13.950 -0.0473 -0.0969 -0.0871
  817DOPC   C1B 9585   2.319  31.719  15.063 -0.2915 -0.1376 -0.0462
  817DOPC   D2B 9586   2.414  31.561  14.677 -0.2998  0.0147  0.2343
  817DOPC   C3B 9587   2.697  31.773  14.367 -0.0869  0.2249 -0.1291
  817DOPC   C4B 9588   2.980  32.022  14.145  0.1950 -0.1912  0.0873
  818DOPC   NC3 9589   9.737  26.479  15.919 -0.1220 -0.0360  0.1128
  818DOPC   PO4 9590  10.044  26.693  15.714  0.0336 -0.1346 -0.0378
  818DOPC   GL1 9591   9.877  26.460  15.411  0.0002 -0.2535 -0.1283
  818DOPC   GL2 9592  10.026  26.283  15.188  0.0354 -0.2374  0.2298
  818DOPC   C1A 9593   9.583  26.446  15.037  0.0210 -0.0326 -0.0435
  818DOPC   D2A 9594   9.253  26.753  14.992  0.1546  0.1100 -0.1666
  818DOPC   C3A 9595   9.126  26.863  14.568  0.0714  0.4606  0.0103
  818DOPC   C4A 9596   9.209  26.984  14.156 -0.0068  0.1154 -0.1054
  818DOPC   C1B 9597  10.081  26.403  14.789 -0.2259 -0.0389 -0.1171
  818DOPC   D2B 9598  10.245  26.734  14.538  0.2054 -0.2311 -0.1218
  818DOPC   C3B 9599  10.196  26.834  14.145  0.1717 -0.1594  0.1373
  818DOPC   C4B 9600  10.433  26.646  13.787  0.0244 -0.0856  0.1816
  819DOPE   NH3 9601   8.494  32.751  14.577  0.2729  0.1312  0.3711
  819DOPE   PO4 9602   8.783  32.714  14.648  0.0396 -0.0601 -0.2451
  819DOPE   GL1 9603   8.825  32.683  14.255  0.2575 -0.1951  0.0337
  819DOPE   GL2 9604   8.663  32.874  14.037  0.3019 -0.3983  0.1793
  819DOPE   C1A 9605   9.193  32.741  13.996 -0.0897  0.3536 -0.1839
  819DOPE   D2A 9606   9.517  32.913  13.720 -0.2642  0.0304 -0.1243
  819DOPE   C3A 9607   9.703  32.721  13.348 -0.0469  0.0907  0.2375
  819DOPE   C4A 9608   9.794  32.620  12.857  0.1013 -0.0733 -0.0421
  819DOPE   C1B 9609   8.860  32.944  13.644  0.2187 -0.2117 -0.0994
  819DOPE   D2B 9610   9.242  32.982  13.345 -0.3244 -0.0079 -0.2125
  819DOPE   C3B 9611   9.299  32.850  12.899 -0.0597 -0.3829  0.1359
  819DOPE   C4B 9612   9.134  32.915  12.462 -0.1376 -0.2741 -0.2015
  820DOPE   NH3 9613   0.960  31.797  16.166  0.1900 -0.0499 -0.0172
  820DOPE   PO4 9614   0.994  32.046  16.326 -0.0738 -0.0375 -0.0251
  820DOPE   GL1 9615   1.029  32.225  16.001  0.2350  0.0857 -0.0797
  820DOPE   GL2 9616   0.783  32.090  15.782 -0.1219 -0.1409 -0.1403
  820DOPE   C1A 9617   0.920  32.608  15.750 -0.0838  0.2691 -0.1391
  820DOPE   D2A 9618   1.042  32.956  15.497  0.0311  0.3374  0.1192
  820DOPE   C3A 9619   1.422  32.783  15.272  0.2595  0.0417  0.0017
  820DOPE   C4A 9620   1.661  32.416  15.138  0.0989 -0.0043  0.3107
  820DOPE   C1B 9621   0.789  32.263  15.343 -0.1761  0.2953 -0.2201
  820DOPE   D2B 9622   0.708  32.266  14.842 -0.0399 -0.1903 -0.2253
  820DOPE   C3B 9623   0.870  32.614  14.630  0.2238  0.1008  0.2398
  820DOPE   C4B 9624   0.871  32.795  14.208 -0.3980 -0.1619 -0.0424
  821DOPC   NC3 9625   9.108  34.177  14.996  0.2709 -0.2122  0.1008
  821DOPC   PO4 9626   9.495  34.317  15.006  0.2308 -0.0881  0.2350
  821DOPC   GL1 9627   9.312  34.406  14.581 -0.2796 -0.2997 -0.3215
  821DOPC   GL2 9628   9.269  34.668  14.477  0.0158 -0.0429  0.1039
  821DOPC   C1A 9629   9.502  34.422  14.155 -0.0637  0.0491 -0.0570
  821DOPC   D2A 9630   9.397  34.501  13.692  0.0140  0.1876  0.2041
  821DOPC   C3A 9631   9.434  34.323  13.235  0.2599 -0.2170 -0.1446
  821DOPC   C4A 9632   9.428  34.368  12.821 -0.1680 -0.2251  0.0694
  821DOPC   C1B 9633   8.892  34.373  14.398  0.1083  0.1966  0.0594
  821DOPC   D2B 9634   8.446  34.361  14.294 -0.0817  0.1642  0.0085
  821DOPC   C3B 9635   8.263  34.330  13.855 -0.0697 -0.0966 -0.0718
  821DOPC   C4B 9636   8.504  34.412  13.481 -0.0632  0.2997  0.3359
  822DOPC   NC3 9637  10.018  32.475  14.457 -0.2274 -0.1813  0.1949
  822DOPC   PO4 9638  10.190  32.757  14.702  0.1696 -0.1437  0.2237
  822DOPC   GL1 9639  10.455  32.786  14.331  0.1433 -0.0466  0.4604
  822DOPC   GL2 9640  10.575  32.963  14.225  0.0807 -0.0469  0.1492
  822DOPC   C1A 9641  10.640  32.529  13.986  0.0903  0.4318 -0.0976
  822DOPC   D2A 9642  10.764  32.374  13.591 -0.0652  0.2003  0.0576
  822DOPC   C3A 9643  10.980  32.696  13.385  0.0102  0.0387  0.1974
  822DOPC   C4A 9644  10.929  33.142  13.444  0.1747 -0.0608  0.1240
  822DOPC   C1B 9645  10.587  32.966  13.755  0.2308 -0.0526 -0.0085
  822DOPC   D2B 9646  10.506  32.980  13.311 -0.0576  0.0430  0.0043
  822DOPC   C3B 9647  10.785  33.024  12.953  0.0442  0.1012 -0.0281
  822DOPC   C4B 9648  10.981  33.352  12.740 -0.1824 -0.2106  0.0819
  823POSM   NC3 9649   4.060  26.014  16.028  0.0201  0.2391  0.0790
  823POSM   PO4 9650   3.822  26.316  16.019 -0.4058 -0.0833 -0.3184
  823POSM   AM1 9651   3.749  26.430  15.744  0.2249 -0.2239  0.1132
  823POSM   AM2 9652   3.630  26.343  15.537 -0.1260 -0.0047  0.1339
  823POSM   T1A 9653   3.620  26.818  15.410 -0.0046  0.0775  0.1160
  823POSM   C2A 9654   3.195  27.013  15.294 -0.0775 -0.0451  0.2995
  823POSM   C3A 9655   2.888  27.390  15.275  0.0282  0.2748 -0.0584
  823POSM   C1B 9656   3.779  26.290  15.276  0.0933  0.1852 -0.0903
  823POSM   D2B 9657   3.755  26.145  14.816  0.0765 -0.1748 -0.1302
  823POSM   C3B 9658   4.158  25.952  14.580  0.0247 -0.1589 -0.3927
  823POSM   C4B 9659   4.309  25.661  14.295 -0.4171  0.1202  0.0018
  824DOPS   CNO 9660   8.047  32.731  14.745  0.2511 -0.0280 -0.1769
  824DOPS   PO4 9661   8.219  33.053  14.898 -0.3167  0.0749 -0.1808
  824DOPS   GL1 9662   8.036  33.237  14.559  0.2023  0.4139  0.0853
  824DOPS   GL2 9663   8.111  33.061  14.390 -0.0435 -0.0763 -0.4100
  824DOPS   C1A 9664   7.951  33.508  14.208  0.0945 -0.0334  0.0671
  824DOPS   D2A 9665   7.626  33.473  13.842 -0.1572  0.0617 -0.0587
  824DOPS   C3A 9666   7.666  33.539  13.385  0.1378 -0.3286 -0.0456
  824DOPS   C4A 9667   7.622  33.458  12.949 -0.1674 -0.0915 -0.1578
  824DOPS   C1B 9668   7.869  32.962  14.009 -0.0995 -0.0005 -0.0905
  824DOPS   D2B 9669   7.807  33.070  13.540 -0.1325  0.1010  0.1207
  824DOPS   C3B 9670   7.996  32.785  13.189 -0.2352 -0.1240 -0.0954
  824DOPS   C4B 9671   8.112  32.503  12.905  0.0867 -0.0333  0.2980
  825DOPC   NC3 9672   5.334  25.674  16.452 -0.0346 -0.1647  0.0452
  825DOPC   PO4 9673   5.483  26.016  16.364 -0.1724 -0.0507  0.0949
  825DOPC   GL1 9674   5.732  26.008  16.029 -0.4701 -0.0026  0.0291
  825DOPC   GL2 9675   5.602  25.726  15.977 -0.0311  0.2972  0.0669
  825DOPC   C1A 9676   5.582  25.990  15.587  0.1281  0.0661  0.2089
  825DOPC   D2A 9677   5.703  26.022  15.204 -0.0957  0.1276 -0.1747
  825DOPC   C3A 9678   5.462  26.169  14.872 -0.1456  0.0401  0.1344
  825DOPC   C4A 9679   5.451  26.047  14.431 -0.2052 -0.1309  0.0993
  825DOPC   C1B 9680   5.180  25.748  15.797 -0.1000  0.1615  0.0294
  825DOPC   D2B 9681   4.742  25.889  15.864  0.0692  0.5190  0.0871
  825DOPC   C3B 9682   4.455  26.171  15.653  0.1527  0.2679 -0.0801
  825DOPC   C4B 9683   4.174  26.528  15.424  0.1596  0.2610  0.0240
  826DOPE   NH3 9684   2.150  28.613  16.056 -0.3555 -0.0293 -0.2287
  826DOPE   PO4 9685   2.380  28.451  15.941  0.0564 -0.2290  0.1529
  826DOPE   GL1 9686   2.533  28.480  15.541 -0.2257  0.2038  0.3020
  826DOPE   GL2 9687   2.871  28.555  15.592 -0.3132 -0.0132 -0.1086
  826DOPE   C1A 9688   2.362  28.356  15.113 -0.1031  0.1070 -0.0028
  826DOPE   D2A 9689   2.283  27.969  14.816 -0.0778 -0.2129  0.1914
  826DOPE   C3A 9690   2.545  27.878  14.468  0.2067 -0.2375 -0.0615
  826DOPE   C4A 9691   2.829  27.680  14.154  0.1656 -0.1481  0.1260
  826DOPE   C1B 9692   2.751  28.646  15.156  0.1590 -0.1129  0.3184
  826DOPE   D2B 9693   2.609  28.582  14.684  0.1639  0.1749 -0.0482
  826DOPE   C3B 9694   2.483  28.827  14.301 -0.2589  0.1468 -0.0068
  826DOPE   C4B 9695   2.535  29.125  14.008  0.1150  0.0126  0.0952
  827POSM   NC3 9696   7.907  32.318  14.948 -0.3628  0.1678 -0.0088
  827POSM   PO4 9697   8.251  32.186  14.898 -0.2702  0.1579 -0.0411
  827POSM   AM1 9698   8.180  32.243  14.573  0.1865  0.0163  0.4256
  827POSM   AM2 9699   8.076  32.453  14.322  0.0075 -0.1010  0.1170
  827POSM   T1A 9700   8.272  32.060  14.106  0.0083  0.0697 -0.0886
  827POSM   C2A 9701   8.382  31.909  13.728  0.0630 -0.1207  0.2445
  827POSM   C3A 9702   8.348  31.674  13.302 -0.2125 -0.0205 -0.0524
  827POSM   C1B 9703   8.243  32.649  14.052  0.0476  0.2434 -0.0350
  827POSM   D2B 9704   8.256  32.821  13.646  0.0154 -0.2047  0.1019
  827POSM   C3B 9705   8.504  32.736  13.276 -0.0560 -0.1486  0.2607
  827POSM   C4B 9706   8.782  32.709  12.900 -0.1935  0.1953  0.1023
  828DOPS   CNO 9707   5.530  33.998  16.240  0.1142  0.1378  0.1320
  828DOPS   PO4 9708   5.560  34.244  15.961 -0.0616 -0.0644  0.1348
  828DOPS   GL1 9709   5.686  34.454  15.637  0.0946 -0.0379 -0.0090
  828DOPS   GL2 9710   5.488  34.572  15.506  0.0438 -0.1702 -0.2243
  828DOPS   C1A 9711   5.794  34.520  15.165  0.0331 -0.3495  0.0755
  828DOPS   D2A 9712   5.611  34.649  14.713  0.4018  0.5313  0.2697
  828DOPS   C3A 9713   5.869  34.783  14.396  0.0507 -0.2055 -0.0171
  828DOPS   C4A 9714   5.838  35.128  14.044 -0.0932  0.4939 -0.0352
  828DOPS   C1B 9715   5.356  34.767  15.137 -0.0728 -0.2737  0.1752
  828DOPS   D2B 9716   5.092  34.864  14.725  0.1937  0.1440 -0.0170
  828DOPS   C3B 9717   5.094  35.243  14.448  0.2827  0.1433 -0.0613
  828DOPS   C4B 9718   5.354  35.410  14.135  0.0209 -0.0364  0.1161
  829DOPC   NC3 9719  10.470  26.457  15.305  0.0400 -0.0657 -0.1976
  829DOPC   PO4 9720  10.452  26.092  15.470  0.0030 -0.0166 -0.1488
  829DOPC   GL1 9721  10.371  26.027  15.025 -0.1427  0.2374  0.1220
  829DOPC   GL2 9722  10.335  25.747  15.060 -0.1718 -0.2545  0.4013
  829DOPC   C1A 9723  10.735  25.783  14.798 -0.2034 -0.1503  0.2053
  829DOPC   D2A 9724  10.936  25.395  14.597 -0.1826  0.2282 -0.2676
  829DOPC   C3A 9725  10.853  25.345  14.107  0.1665  0.1402  0.3703
  829DOPC   C4A 9726  10.959  25.315  13.654 -0.0287 -0.3049  0.1032
  829DOPC   C1B 9727   9.906  25.542  14.935  0.0653 -0.0389  0.1745
  829DOPC   D2B 9728   9.780  25.109  14.764 -0.0899 -0.0314 -0.0996
  829DOPC   C3B 9729   9.798  24.677  14.708  0.1840 -0.1116  0.0048
  829DOPC   C4B 9730   9.628  24.313  14.935 -0.1771 -0.2800 -0.1717
  830DOPE   NH3 9731   5.916  28.322  15.812 -0.1423 -0.0334  0.0197
  830DOPE   PO4 9732   5.935  28.614  15.643 -0.1434  0.1088 -0.3010
  830DOPE   GL1 9733   6.047  28.425  15.384  0.5102 -0.2196  0.1361
  830DOPE   GL2 9734   5.827  28.451  15.155 -0.5922  0.0971 -0.0150
  830DOPE   C1A 9735   6.091  27.992  15.167 -0.0908 -0.0878  0.0202
  830DOPE   D2A 9736   6.056  27.831  14.727 -0.2730  0.2556 -0.0690
  830DOPE   C3A 9737   5.764  27.537  14.663 -0.1120  0.0411  0.0639
  830DOPE   C4A 9738   5.757  27.091  14.678 -0.1527 -0.1156 -0.3046
  830DOPE   C1B 9739   6.097  28.410  14.714  0.0807  0.1231  0.0797
  830DOPE   D2B 9740   6.298  28.419  14.332 -0.3695 -0.2942  0.1381
  830DOPE   C3B 9741   6.091  28.029  14.185 -0.2263  0.0041 -0.1392
  830DOPE   C4B 9742   5.713  27.834  14.201 -0.0386  0.2904  0.0094
  831DOPE   NH3 9743   5.657  28.857  15.941 -0.4184  0.0442 -0.1326
  831DOPE   PO4 9744   5.514  28.589  15.997 -0.0436  0.1422  0.0574
  831DOPE   GL1 9745   5.396  28.315  15.666 -0.0517 -0.1264 -0.2454
  831DOPE   GL2 9746   5.228  28.456  15.575 -0.1609  0.3526  0.1133
  831DOPE   C1A 9747   5.215  28.063  15.298 -0.1523  0.0719 -0.1341
  831DOPE   D2A 9748   5.043  28.088  14.884 -0.1777 -0.1546  0.0562
  831DOPE   C3A 9749   5.191  27.871  14.447 -0.2315  0.2265 -0.0735
  831DOPE   C4A 9750   5.235  27.772  14.010 -0.1376 -0.2111  0.1528
  831DOPE   C1B 9751   5.235  28.547  15.150 -0.0297  0.1817 -0.0417
  831DOPE   D2B 9752   5.020  28.527  14.718  0.1727  0.2563  0.2109
  831DOPE   C3B 9753   4.756  28.717  14.405 -0.0064  0.1804  0.1973
  831DOPE   C4B 9754   4.952  28.789  13.983 -0.0745  0.0867  0.1688
  832DOPC   NC3 9755   8.470  33.498  15.285  0.0970  0.0148 -0.0401
  832DOPC   PO4 9756   8.319  33.854  15.240 -0.1621 -0.0619 -0.1219
  832DOPC   GL1 9757   8.395  33.895  14.906 -0.0768  0.0501 -0.2731
  832DOPC   GL2 9758   8.622  33.959  14.776 -0.0589  0.0152 -0.0323
  832DOPC   C1A 9759   8.111  33.972  14.579  0.0377 -0.0308 -0.1752
  832DOPC   D2A 9760   7.714  33.878  14.438 -0.1243  0.2200 -0.1204
  832DOPC   C3A 9761   7.704  33.989  13.969  0.2956  0.2436 -0.4549
  832DOPC   C4A 9762   7.634  34.039  13.462  0.2580 -0.2030 -0.1325
  832DOPC   C1B 9763   8.386  34.355  14.765 -0.3014 -0.0106 -0.2522
  832DOPC   D2B 9764   8.362  34.790  14.823 -0.0870 -0.2611 -0.0786
  832DOPC   C3B 9765   8.212  35.179  14.639 -0.0069  0.1105 -0.0748
  832DOPC   C4B 9766   8.383  35.480  14.303 -0.2771 -0.0654 -0.0317
  833POSM   NC3 9767   9.435  29.950  15.469 -0.0355 -0.1121  0.1205
  833POSM   PO4 9768   9.096  30.143  15.528 -0.2449  0.1431 -0.3009
  833POSM   AM1 9769   9.096  30.152  15.233 -0.0685  0.0723 -0.2340
  833POSM   AM2 9770   9.329  30.154  15.037 -0.1252  0.1748  0.0777
  833POSM   T1A 9771   8.945  30.284  14.767 -0.2288 -0.0038  0.2218
  833POSM   C2A 9772   8.712  30.274  14.356 -0.0247 -0.1851  0.1123
  833POSM   C3A 9773   8.365  30.332  13.972 -0.0769  0.2400  0.1311
  833POSM   C1B 9774   9.448  30.277  14.690  0.0166  0.0444 -0.1068
  833POSM   D2B 9775   9.228  30.239  14.259 -0.1047 -0.0088  0.0391
  833POSM   C3B 9776   9.450  30.531  14.000 -0.1201 -0.1555 -0.1620
  833POSM   C4B 9777   9.546  30.927  13.834 -0.0013  0.1692 -0.0547
  834DOPE   NH3 9778   0.121  32.365  16.301  0.1735  0.0711  0.2042
  834DOPE   PO4 9779   0.016  32.635  16.163  0.0493 -0.1080 -0.1258
  834DOPE   GL1 9780   0.164  32.765  15.717  0.3260  0.2209 -0.4282
  834DOPE   GL2 9781  -0.062  32.952  15.620  0.0217  0.1811 -0.3272
  834DOPE   C1A 9782   0.483  32.707  15.362 -0.1171 -0.2217 -0.1729
  834DOPE   D2A 9783   0.879  32.717  15.089 -0.0769  0.1030 -0.2212
  834DOPE   C3A 9784   1.191  32.394  14.929  0.3305 -0.2476 -0.2059
  834DOPE   C4A 9785   1.439  32.459  14.583  0.0792  0.2036 -0.0252
  834DOPE   C1B 9786   0.059  33.026  15.188  0.0922  0.2156 -0.0502
  834DOPE   D2B 9787   0.148  33.366  14.958 -0.0091  0.2370 -0.3166
  834DOPE   C3B 9788   0.425  33.492  14.679  0.1443 -0.3760 -0.0491
  834DOPE   C4B 9789   0.280  33.463  14.222  0.4692  0.0996  0.0835
  835DOPS   CNO 9790   4.363  24.414  16.122 -0.0617  0.0613  0.0559
  835DOPS   PO4 9791   4.560  24.739  16.231  0.0090 -0.0937  0.2723
  835DOPS   GL1 9792   4.539  24.754  15.832  0.4609  0.0186  0.0248
  835DOPS   GL2 9793   4.206  24.770  15.694 -0.0548 -0.1242 -0.3277
  835DOPS   C1A 9794   4.593  24.466  15.552 -0.0370  0.0123  0.1574
  835DOPS   D2A 9795   4.644  24.344  15.074  0.2563  0.3045  0.1414
  835DOPS   C3A 9796   4.387  24.372  14.685  0.0498  0.0172  0.4080
  835DOPS   C4A 9797   4.146  24.584  14.347 -0.1066  0.3146 -0.2602
  835DOPS   C1B 9798   4.526  24.937  15.402  0.0173 -0.0569  0.1664
  835DOPS   D2B 9799   4.662  25.368  15.284 -0.2305 -0.0394  0.0366
  835DOPS   C3B 9800   4.674  25.755  15.064  0.2185  0.1434 -0.2660
  835DOPS   C4B 9801   4.937  26.177  15.024  0.3966  0.1236 -0.3421
  836POSM   NC3 9802   7.432  31.113  15.117  0.1740  0.4599  0.0745
  836POSM   PO4 9803   7.561  31.433  15.313 -0.3250  0.4165 -0.0364
  836POSM   AM1 9804   7.306  31.547  15.136  0.0324 -0.0915 -0.0096
  836POSM   AM2 9805   7.236  31.654  14.918 -0.0631  0.1246 -0.1931
  836POSM   T1A 9806   7.060  31.187  14.806 -0.1437 -0.3499  0.2783
  836POSM   C2A 9807   6.695  30.962  14.640 -0.1001 -0.1319 -0.1137
  836POSM   C3A 9808   6.491  30.622  14.422  0.1384  0.0553  0.1954
  836POSM   C1B 9809   7.036  31.740  14.694  0.1002 -0.1127  0.3715
  836POSM   D2B 9810   6.833  32.049  14.411 -0.0151 -0.0139  0.4403
  836POSM   C3B 9811   6.685  32.134  13.949 -0.0059 -0.1098 -0.0849
  836POSM   C4B 9812   6.344  32.018  13.657 -0.2240  0.0846  0.1324
  837POSM   NC3 9813   5.013  31.760  16.273  0.1143  0.0053  0.1726
  837POSM   PO4 9814   4.719  31.592  16.054  0.0233  0.0073 -0.0445
  837POSM   AM1 9815   4.801  31.425  15.780  0.1249  0.3772  0.1975
  837POSM   AM2 9816   5.001  31.280  15.645  0.1279 -0.1870  0.2399
  837POSM   T1A 9817   4.545  31.257  15.381 -0.2808  0.0241 -0.0483
  837POSM   C2A 9818   4.303  31.121  14.995 -0.1138 -0.0347 -0.0622
  837POSM   C3A 9819   4.194  30.743  14.810 -0.1551 -0.1792 -0.3523
  837POSM   C1B 9820   5.025  31.389  15.292 -0.1384  0.1878 -0.0515
  837POSM   D2B 9821   4.920  31.733  15.023 -0.1969 -0.0257  0.2135
  837POSM   C3B 9822   4.864  31.695  14.595 -0.1854 -0.2451  0.1828
  837POSM   C4B 9823   4.926  31.358  14.243 -0.1478  0.1601  0.1335
  838DOPC   NC3 9824   1.978  24.471  15.644 -0.1918 -0.2043  0.4162
  838DOPC   PO4 9825   2.247  24.303  15.782 -0.1019  0.4184 -0.1673
  838DOPC   GL1 9826   2.422  24.121  15.458  0.0717  0.0822 -0.3186
  838DOPC   GL2 9827   2.716  24.141  15.420  0.3421 -0.0250  0.0533
  838DOPC   C1A 9828   2.319  24.059  15.033 -0.0044 -0.0953  0.0323
  838DOPC   D2A 9829   2.486  24.005  14.638 -0.1373  0.4206  0.0988
  838DOPC   C3A 9830   2.423  23.900  14.168 -0.2821  0.1193  0.0172
  838DOPC   C4A 9831   2.547  23.686  13.789 -0.1139 -0.3169  0.0706
  838DOPC   C1B 9832   3.025  23.762  15.383  0.0190  0.1888  0.4033
  838DOPC   D2B 9833   3.095  23.280  15.414  0.2827 -0.1201  0.1650
  838DOPC   C3B 9834   2.861  23.213  15.060  0.0474 -0.0346  0.1821
  838DOPC   C4B 9835   2.957  23.353  14.705 -0.0470  0.1989 -0.1828
  839DOPS   CNO 9836   7.272  28.141  15.703 -0.0033 -0.2973 -0.1734
  839DOPS   PO4 9837   7.300  27.879  15.433  0.5245  0.1589 -0.0193
  839DOPS   GL1 9838   7.487  27.673  15.129 -0.2589 -0.2538 -0.0165
  839DOPS   GL2 9839   7.729  27.845  15.133 -0.1445 -0.0549  0.0598
  839DOPS   C1A 9840   7.760  27.353  14.925  0.0148 -0.0122  0.0925
  839DOPS   D2A 9841   8.112  27.240  14.647 -0.0715  0.0655  0.2516
  839DOPS   C3A 9842   8.061  27.308  14.235 -0.0656  0.3354  0.2480
  839DOPS   C4A 9843   8.266  27.022  13.959 -0.0878  0.1439 -0.0002
  839DOPS   C1B 9844   7.779  28.175  14.778 -0.0193 -0.0560 -0.1979
  839DOPS   D2B 9845   7.912  28.257  14.344  0.1760 -0.0771 -0.3262
  839DOPS   C3B 9846   8.003  28.691  14.266  0.2460  0.2127  0.1114
  839DOPS   C4B 9847   8.202  29.127  14.197 -0.3860 -0.2289 -0.0699
  840DOPE   NH3 9848   9.284  33.087  14.894  0.0211  0.0906  0.0791
  840DOPE   PO4 9849   9.320  33.356  14.840 -0.0655 -0.1480  0.0349
  840DOPE   GL1 9850   9.472  33.319  14.440  0.1341 -0.3931 -0.3949
  840DOPE   GL2 9851   9.343  33.158  14.257  0.1474 -0.4665 -0.1081
  840DOPE   C1A 9852   9.537  33.678  14.142 -0.2434 -0.5534 -0.1879
  840DOPE   D2A 9853   9.357  33.984  13.925 -0.2401  0.1976 -0.0521
  840DOPE   C3A 9854   9.262  33.779  13.520  0.0721  0.0145 -0.4002
  840DOPE   C4A 9855   9.265  33.464  13.155  0.3104 -0.3392 -0.0148
  840DOPE   C1B 9856   9.069  33.307  13.918 -0.5315  0.1016 -0.3033
  840DOPE   D2B 9857   8.728  33.482  13.743 -0.1740  0.0007 -0.2514
  840DOPE   C3B 9858   8.780  33.570  13.294  0.1814  0.2958  0.3183
  840DOPE   C4B 9859   8.823  33.200  12.998  0.0321 -0.0332 -0.0187
  841POSM   NC3 9860   9.929  30.451  15.040 -0.1202 -0.0265 -0.1678
  841POSM   PO4 9861   9.668  30.343  15.301 -0.0735  0.3305  0.1886
  841POSM   AM1 9862   9.771  30.041  15.200 -0.0543 -0.2088  0.2233
  841POSM   AM2 9863   9.897  29.967  14.970 -0.0256 -0.0343  0.0056
  841POSM   T1A 9864   9.887  29.573  15.210 -0.0124  0.1693 -0.1653
  841POSM   C2A 9865  10.031  29.315  14.947  0.2444 -0.0670 -0.1990
  841POSM   C3A 9866  10.050  29.346  14.464  0.0932 -0.1352  0.0307
  841POSM   C1B 9867   9.873  30.052  14.631  0.1256 -0.1787 -0.0219
  841POSM   D2B 9868   9.830  29.840  14.184 -0.0079  0.1887  0.0671
  841POSM   C3B 9869   9.444  29.836  13.956 -0.1309 -0.2858  0.0850
  841POSM   C4B 9870   9.188  30.106  13.628  0.0472 -0.1382 -0.2364
  842POSM   NC3 9871  10.789  24.929  15.826 -0.1126 -0.0661  0.4472
  842POSM   PO4 9872  10.468  25.029  15.576  0.0150  0.0013  0.2345
  842POSM   AM1 9873  10.669  25.090  15.291  0.1921  0.0000 -0.0615
  842POSM   AM2 9874  10.736  25.329  15.157 -0.3546  0.2539  0.4743
  842POSM   T1A 9875  10.774  24.955  14.753  0.1714  0.0220 -0.2864
  842POSM   C2A 9876  11.129  24.919  14.444 -0.2256  0.0909 -0.1516
  842POSM   C3A 9877  11.212  24.952  13.971  0.0081 -0.1760  0.1513
  842POSM   C1B 9878  11.060  25.330  15.078  0.1818 -0.0341  0.0274
  842POSM   D2B 9879  11.431  25.420  14.815  0.1916  0.0684  0.1309
  842POSM   C3B 9880  11.430  25.874  14.856  0.0358 -0.0834 -0.1561
  842POSM   C4B 9881  11.053  26.196  14.905  0.1434 -0.3716 -0.0412
  843DOPC   NC3 9882   1.888  31.707  15.764  0.2973 -0.1931  0.2956
  843DOPC   PO4 9883   1.820  32.045  15.871  0.0795  0.0429 -0.0275
  843DOPC   GL1 9884   1.667  31.982  15.452 -0.3879  0.0990  0.2353
  843DOPC   GL2 9885   1.920  32.119  15.394 -0.3104  0.0699 -0.2779
  843DOPC   C1A 9886   1.475  31.570  15.322  0.1274 -0.5580 -0.0217
  843DOPC   D2A 9887   1.188  31.180  15.440 -0.1051 -0.0911 -0.0482
  843DOPC   C3A 9888   0.793  31.191  15.259 -0.0951  0.0975 -0.1514
  843DOPC   C4A 9889   0.404  30.921  15.159  0.0938 -0.5279  0.0124
  843DOPC   C1B 9890   1.841  31.841  15.066  0.2372  0.0007  0.0677
  843DOPC   D2B 9891   1.950  31.873  14.662 -0.1526  0.1806  0.0368
  843DOPC   C3B 9892   2.075  32.274  14.881 -0.2890  0.0090 -0.3214
  843DOPC   C4B 9893   2.245  32.450  15.256  0.1482  0.0434 -0.2007
  844DOPC   NC3 9894   0.899  25.671  16.170 -0.0217  0.1123  0.1481
  844DOPC   PO4 9895   1.207  25.721  15.851 -0.1638 -0.1515 -0.1011
  844DOPC   GL1 9896   1.363  25.695  15.549  0.0594  0.0496  0.1607
  844DOPC   GL2 9897   1.424  25.530  15.267 -0.1941  0.0061  0.2617
  844DOPC   C1A 9898   1.426  26.002  15.213  0.4686 -0.1221 -0.2391
  844DOPC   D2A 9899   1.449  26.216  14.822 -0.0461  0.0117 -0.0933
  844DOPC   C3A 9900   1.080  26.429  14.569 -0.3217  0.1142  0.0950
  844DOPC   C4A 9901   0.749  26.515  14.277  0.1781  0.1399 -0.0619
  844DOPC   C1B 9902   1.336  25.616  14.839  0.0337 -0.1441  0.0495
  844DOPC   D2B 9903   1.546  25.687  14.422 -0.2015 -0.0003  0.0288
  844DOPC   C3B 9904   1.375  25.605  13.977  0.0398  0.0687 -0.0186
  844DOPC   C4B 9905   1.348  25.504  13.481 -0.0569 -0.1856  0.0406
  845POSM   NC3 9906   7.361  23.465  15.854  0.1355  0.0737 -0.0650
  845POSM   PO4 9907   7.210  23.812  15.869 -0.1118 -0.2569 -0.1211
  845POSM   AM1 9908   7.074  23.711  15.613  0.2668  0.0852  0.2452
  845POSM   AM2 9909   6.919  23.822  15.414 -0.2145  0.0660  0.0971
  845POSM   T1A 9910   6.960  23.430  15.185 -0.1180  0.0883  0.0092
  845POSM   C2A 9911   6.752  23.454  14.786  0.3281 -0.1877  0.0305
  845POSM   C3A 9912   6.297  23.487  14.791 -0.0036 -0.0225  0.0936
  845POSM   C1B 9913   6.765  23.867  15.094  0.1323  0.1634 -0.1867
  845POSM   D2B 9914   6.450  23.984  14.788  0.3909 -0.3013 -0.0060
  845POSM   C3B 9915   6.132  23.828  14.470  0.1707  0.0180  0.0760
  845POSM   C4B 9916   5.973  23.434  14.226  0.0762  0.0897 -0.1508
  846POSM   NC3 9917  11.048  28.155  15.941  0.2463  0.4466 -0.0956
  846POSM   PO4 9918  10.908  28.499  15.779  0.0219  0.0356  0.1632
  846POSM   AM1 9919  10.858  28.553  15.434 -0.3902 -0.2939  0.0772
  846POSM   AM2 9920  10.969  28.693  15.225 -0.0804 -0.0263  0.0224
  846POSM   T1A 9921  10.753  28.268  14.991  0.0083 -0.1225  0.3031
  846POSM   C2A 9922  10.627  28.133  14.550  0.2477 -0.1309 -0.1378
  846POSM   C3A 9923  10.690  27.907  14.182 -0.0178 -0.0165  0.2170
  846POSM   C1B 9924  10.969  28.834  14.934  0.0498 -0.1521  0.1572
  846POSM   D2B 9925  11.036  28.987  14.471  0.3147  0.1490 -0.0398
  846POSM   C3B 9926  11.200  29.123  14.118 -0.0923 -0.1831 -0.0947
  846POSM   C4B 9927  11.400  29.340  13.789  0.2427  0.0031  0.0214
  847DOPE   NH3 9928   9.844  33.938  15.112 -0.3632 -0.1468 -0.0088
  847DOPE   PO4 9929  10.062  33.727  14.999  0.1545  0.4221 -0.0251
  847DOPE   GL1 9930  10.135  33.778  14.622 -0.0040  0.0550 -0.3268
  847DOPE   GL2 9931  10.421  33.567  14.647 -0.1733 -0.3199  0.1896
  847DOPE   C1A 9932  10.007  33.741  14.197 -0.1256 -0.1090 -0.1133
  847DOPE   D2A 9933   9.992  34.140  14.000 -0.2127  0.1277 -0.1728
  847DOPE   C3A 9934   9.806  34.092  13.577 -0.0740  0.0802  0.1349
  847DOPE   C4A 9935   9.785  33.751  13.224  0.1723  0.2445 -0.0092
  847DOPE   C1B 9936  10.520  33.689  14.240  0.0147 -0.3186  0.0829
  847DOPE   D2B 9937  10.368  33.837  13.848  0.3155  0.2530 -0.1459
  847DOPE   C3B 9938   9.950  33.639  13.707  0.1464  0.1523 -0.1832
  847DOPE   C4B 9939   9.557  33.401  13.510  0.0078 -0.0907  0.2949
  848DOPC   NC3 9940   6.669  32.095  15.645 -0.0116  0.0648  0.0006
  848DOPC   PO4 9941   6.673  32.465  15.535 -0.2143 -0.0778 -0.2191
  848DOPC   GL1 9942   6.548  32.586  15.195 -0.0073 -0.1981  0.2671
  848DOPC   GL2 9943   6.857  32.641  15.032  0.1114 -0.0356  0.0515
  848DOPC   C1A 9944   6.408  32.939  14.889  0.0298  0.0374  0.2438
  848DOPC   D2A 9945   6.182  33.116  14.520  0.0257  0.2109  0.0611
  848DOPC   C3A 9946   5.761  33.272  14.322 -0.1637 -0.2226  0.1270
  848DOPC   C4A 9947   5.284  33.316  14.259  0.0891  0.2146 -0.3010
  848DOPC   C1B 9948   6.894  32.486  14.631 -0.0327 -0.2634 -0.2276
  848DOPC   D2B 9949   6.724  32.622  14.219 -0.0041  0.2589  0.3874
  848DOPC   C3B 9950   7.035  32.941  14.060  0.1158 -0.0590 -0.2270
  848DOPC   C4B 9951   7.405  33.023  13.783  0.0948 -0.1857  0.0789
  849DOPE   NH3 9952   7.508  29.778  15.262 -0.0037  0.2666 -0.0841
  849DOPE   PO4 9953   7.810  29.791  15.313  0.5423  0.3127 -0.0683
  849DOPE   GL1 9954   7.990  29.644  15.049  0.0762  0.0806 -0.0851
  849DOPE   GL2 9955   8.157  29.390  15.124 -0.0776 -0.1041  0.0453
  849DOPE   C1A 9956   7.843  29.859  14.656 -0.2603  0.1301 -0.2350
  849DOPE   D2A 9957   7.818  30.315  14.597 -0.1701 -0.1449 -0.0736
  849DOPE   C3A 9958   7.480  30.429  14.322  0.1527 -0.1414 -0.2356
  849DOPE   C4A 9959   7.045  30.613  14.410  0.0990  0.0730 -0.0791
  849DOPE   C1B 9960   7.993  29.285  14.724 -0.4447 -0.0314 -0.0568
  849DOPE   D2B 9961   7.780  29.454  14.334  0.1852  0.1288  0.1353
  849DOPE   C3B 9962   7.896  29.515  13.868 -0.3130 -0.0630  0.3108
  849DOPE   C4B 9963   7.687  29.329  13.496  0.2069 -0.2120 -0.1778
  850DOPE   NH3 9964  11.214  26.486  15.343  0.1398  0.1909  0.0616
  850DOPE   PO4 9965  10.980  26.382  15.508  0.2653 -0.2171  0.0344
  850DOPE   GL1 9966  10.846  26.510  15.061 -0.0681  0.0101 -0.0598
  850DOPE   GL2 9967  10.689  26.712  14.898 -0.1064  0.0246 -0.1886
  850DOPE   C1A 9968  10.593  26.267  14.734  0.2491 -0.1766 -0.3043
  850DOPE   D2A 9969  10.330  26.228  14.379 -0.0986 -0.0795 -0.1545
  850DOPE   C3A 9970  10.201  26.183  13.904  0.1120 -0.2026 -0.2081
  850DOPE   C4A 9971   9.905  26.017  13.544 -0.0112  0.2135 -0.3255
  850DOPE   C1B 9972  10.687  27.087  14.722  0.2299 -0.3845  0.2515
  850DOPE   D2B 9973  10.449  27.226  14.392 -0.1330 -0.1280  0.2185
  850DOPE   C3B 9974  10.721  27.395  14.099  0.0076  0.1541  0.1533
  850DOPE   C4B 9975  10.676  27.667  13.724  0.1225 -0.2678 -0.0988
  851DOPE   NH3 9976   6.886  26.943  15.869  0.0116  0.0045  0.2206
  851DOPE   PO4 9977   7.178  26.997  15.887  0.0029  0.2803  0.0196
  851DOPE   GL1 9978   7.380  26.873  15.543 -0.2839 -0.1985 -0.4445
  851DOPE   GL2 9979   7.122  26.934  15.380 -0.0344 -0.4640  0.3135
  851DOPE   C1A 9980   7.462  26.496  15.246  0.1253  0.1373  0.0871
  851DOPE   D2A 9981   7.392  26.296  14.867  0.2153 -0.0175 -0.0288
  851DOPE   C3A 9982   7.429  26.151  14.434 -0.3052 -0.2577 -0.1149
  851DOPE   C4A 9983   7.237  26.149  14.041 -0.1917  0.0223 -0.2911
  851DOPE   C1B 9984   7.109  26.753  14.976  0.0478 -0.0762  0.2098
  851DOPE   D2B 9985   7.045  26.760  14.518 -0.0167  0.0945 -0.2059
  851DOPE   C3B 9986   7.124  26.737  14.068 -0.0117 -0.1400  0.0009
  851DOPE   C4B 9987   6.981  26.730  13.624 -0.0757 -0.1000 -0.0804
  852DOPS   CNO 9988   1.132  28.302  16.168  0.1105 -0.1559  0.0276
  852DOPS   PO4 9989   1.126  28.524  15.876 -0.0023 -0.3861  0.4035
  852DOPS   GL1 9990   0.835  28.716  15.623 -0.3246  0.1892 -0.0296
  852DOPS   GL2 9991   0.689  28.438  15.568 -0.1748 -0.1625 -0.1316
  852DOPS   C1A 9992   0.716  28.810  15.195  0.0378  0.0538  0.1204
  852DOPS   D2A 9993   0.672  28.799  14.777 -0.1605  0.2242  0.3892
  852DOPS   C3A 9994   0.743  28.904  14.316 -0.1136  0.2447 -0.0605
  852DOPS   C4A 9995   0.839  29.199  14.012  0.0114 -0.2780 -0.1101
  852DOPS   C1B 9996   0.942  28.293  15.180 -0.1359  0.2596 -0.1017
  852DOPS   D2B 9997   0.987  28.322  14.650 -0.0871  0.5892  0.4118
  852DOPS   C3B 9998   1.346  28.223  14.300 -0.0367 -0.2181  0.2964
  852DOPS   C4B 9999   1.223  28.107  13.831  0.1073  0.1886 -0.2177
  853DOPE   NH310000   6.696  30.013  15.805  0.0109  0.1398  0.0599
  853DOPE   PO410001   6.558  30.282  15.658  0.0325  0.0563  0.2777
  853DOPE   GL110002   6.387  30.212  15.313  0.2802 -0.2439 -0.0797
  853DOPE   GL210003   6.558  30.068  15.090 -0.1430  0.2086  0.1200
  853DOPE   C1A10004   6.168  30.299  14.906  0.0865 -0.1017 -0.1383
  853DOPE   D2A10005   6.031  30.218  14.479  0.0201  0.0251  0.0950
  853DOPE   C3A10006   6.243  30.327  14.072 -0.3319 -0.0409  0.0269
  853DOPE   C4A10007   6.162  30.481  13.652 -0.1780  0.0640 -0.1778
  853DOPE   C1B10008   6.348  29.784  14.854  0.2226  0.0472  0.0904
  853DOPE   D2B10009   6.098  29.725  14.404  0.1257  0.1362  0.1284
  853DOPE   C3B10010   6.202  29.784  13.980 -0.2205 -0.0210 -0.0457
  853DOPE   C4B10011   6.215  29.963  13.550  0.1095  0.1023 -0.2198
  854DOPE   NH310012   3.627  29.716  15.764  0.0434  0.1372  0.1715
  854DOPE   PO410013   3.355  29.811  15.957  0.0132 -0.1614 -0.0761
  854DOPE   GL110014   2.963  29.773  15.817 -0.2173  0.1453 -0.0313
  854DOPE   GL210015   3.157  29.555  15.627  0.2773  0.0151 -0.2838
  854DOPE   C1A10016   2.844  29.880  15.368  0.1679  0.1647  0.1869
  854DOPE   D2A10017   2.930  29.760  14.932 -0.3115 -0.0281  0.0394
  854DOPE   C3A10018   2.760  29.810  14.519  0.0642 -0.2117  0.0635
  854DOPE   C4A10019   2.599  29.631  14.115 -0.0404 -0.1706 -0.2306
  854DOPE   C1B10020   3.340  29.610  15.208 -0.0852 -0.1629  0.1291
  854DOPE   D2B10021   3.506  29.446  14.791 -0.1968  0.0241  0.1545
  854DOPE   C3B10022   3.603  29.644  14.331  0.1476  0.3734 -0.0151
  854DOPE   C4B10023   3.559  30.018  14.093  0.2171  0.2734 -0.1946
  855POSM   NC310024   3.709  22.882  16.709  0.1509 -0.0379 -0.0698
  855POSM   PO410025   3.715  23.193  16.437 -0.1117  0.2814  0.1296
  855POSM   AM110026   3.763  23.326  16.154 -0.1096 -0.1552 -0.0944
  855POSM   AM210027   4.047  23.314  16.001  0.0149  0.4645  0.3214
  855POSM   T1A10028   3.570  23.461  15.704 -0.1708 -0.3074 -0.0159
  855POSM   C2A10029   3.543  23.490  15.264 -0.1020 -0.1162  0.0323
  855POSM   C3A10030   3.311  23.638  14.843 -0.1618 -0.1426 -0.2431
  855POSM   C1B10031   4.020  23.617  15.796 -0.2107  0.1564  0.2048
  855POSM   D2B10032   3.792  23.843  15.453 -0.0515 -0.0733 -0.0691
  855POSM   C3B10033   3.789  24.259  15.256  0.0348 -0.2000  0.2249
  855POSM   C4B10034   3.727  24.670  15.203  0.0436 -0.1624  0.1343
  856POSM   NC310035   4.697  26.574  16.387  0.1318  0.0692  0.1487
  856POSM   PO410036   5.103  26.597  16.248 -0.0439  0.0996 -0.1914
  856POSM   AM110037   4.989  26.822  16.007 -0.1269 -0.1797 -0.0241
  856POSM   AM210038   4.691  26.850  15.931 -0.4001 -0.2519  0.0912
  856POSM   T1A10039   4.952  27.237  15.681 -0.2662 -0.0086 -0.0253
  856POSM   C2A10040   5.155  27.550  15.370  0.1071  0.0063  0.1267
  856POSM   C3A10041   5.313  27.635  14.964  0.0089 -0.1074 -0.4393
  856POSM   C1B10042   4.636  26.767  15.623 -0.0347 -0.4141 -0.0877
  856POSM   D2B10043   4.648  26.567  15.218  0.3045 -0.0837  0.1970
  856POSM   C3B10044   4.847  26.691  14.770  0.1721 -0.1330 -0.0951
  856POSM   C4B10045   5.120  26.910  14.404  0.1256  0.2574 -0.0864
  857DOPC   NC310046   6.077  30.087  15.677  0.0184  0.1370  0.3552
  857DOPC   PO410047   6.304  29.796  15.489 -0.0369  0.0699  0.4084
  857DOPC   GL110048   6.060  29.690  15.218  0.3000  0.0635 -0.0536
  857DOPC   GL210049   5.850  29.889  15.222 -0.1896 -0.2550  0.1705
  857DOPC   C1A10050   5.941  29.422  14.864  0.0677  0.3945  0.4219
  857DOPC   D2A10051   5.557  29.297  14.540 -0.2167  0.0051  0.0013
  857DOPC   C3A10052   5.838  29.108  14.221  0.0312 -0.0104 -0.0378
  857DOPC   C4A10053   6.111  28.892  13.940 -0.0154 -0.1329  0.0138
  857DOPC   C1B10054   5.810  29.895  14.774 -0.1655  0.0923  0.0874
  857DOPC   D2B10055   5.512  29.785  14.394  0.1948  0.0446 -0.0919
  857DOPC   C3B10056   5.742  29.554  14.061 -0.1517  0.2316 -0.1819
  857DOPC   C4B10057   6.011  29.326  13.794 -0.4258  0.1167 -0.1065
  858DOPC   NC310058   4.260  32.469  16.067  0.0214  0.1605  0.0866
  858DOPC   PO410059   4.075  32.151  15.898  0.2702 -0.0883  0.2073
  858DOPC   GL110060   4.186  32.051  15.556 -0.1703 -0.0438 -0.2463
  858DOPC   GL210061   4.052  32.136  15.332 -0.1673 -0.0307  0.2065
  858DOPC   C1A10062   4.238  31.675  15.221  0.2162 -0.2025 -0.1687
  858DOPC   D2A10063   3.814  31.518  14.994 -0.1999  0.0651  0.0836
  858DOPC   C3A10064   3.941  31.251  14.664 -0.1225  0.1814  0.1437
  858DOPC   C4A10065   4.082  30.968  14.359  0.1069 -0.2833  0.0489
  858DOPC   C1B10066   4.008  32.107  14.890 -0.2392 -0.0804  0.0247
  858DOPC   D2B10067   3.714  31.844  14.604 -0.2094  0.3679  0.1075
  858DOPC   C3B10068   3.917  31.636  14.205 -0.1480  0.1067 -0.0556
  858DOPC   C4B10069   3.918  31.285  13.989  0.2208  0.2331 -0.0675
  859POSM   NC310070   2.807  32.753  15.996  0.6367  0.2958 -0.3342
  859POSM   PO410071   2.519  33.015  15.969  0.0754  0.0086 -0.0778
  859POSM   AM110072   2.522  33.087  15.653  0.2706  0.0278  0.2567
  859POSM   AM210073   2.727  33.234  15.475  0.0304  0.2307 -0.0382
  859POSM   T1A10074   2.373  32.940  15.249 -0.0582 -0.1853 -0.2049
  859POSM   C2A10075   2.374  32.705  14.858  0.1855 -0.1660 -0.1058
  859POSM   C3A10076   2.369  32.863  14.413 -0.3518 -0.2774 -0.0595
  859POSM   C1B10077   2.960  33.234  15.188 -0.0762  0.1903 -0.2723
  859POSM   D2B10078   3.127  33.137  14.738  0.0763 -0.3645 -0.1795
  859POSM   C3B10079   2.859  32.855  14.421  0.1591 -0.0638 -0.0891
  859POSM   C4B10080   2.675  32.813  14.056  0.0133 -0.3926  0.2340
  860DOPC   NC310081   9.205  25.695  15.655 -0.3291 -0.1492  0.1283
  860DOPC   PO410082   8.899  25.429  15.675  0.5734 -0.2786  0.1489
  860DOPC   GL110083   8.846  25.139  15.425 -0.2233 -0.0037 -0.0288
  860DOPC   GL210084   8.664  25.350  15.242 -0.1452  0.3585  0.1520
  860DOPC   C1A10085   9.002  25.096  14.978  0.4602 -0.0333  0.0154
  860DOPC   D2A10086   9.191  25.277  14.628 -0.3121 -0.1184  0.2742
  860DOPC   C3A10087   9.387  25.231  14.221  0.0457  0.1798  0.2101
  860DOPC   C4A10088   9.671  25.535  13.980  0.1819 -0.1229  0.0671
  860DOPC   C1B10089   8.793  25.678  15.013  0.1232 -0.3089 -0.0466
  860DOPC   D2B10090   8.755  26.032  14.742  0.0256 -0.3108 -0.2778
  860DOPC   C3B10091   9.111  26.308  14.594 -0.2709 -0.2598 -0.0656
  860DOPC   C4B10092   9.338  26.458  14.212  0.2515  0.0050 -0.3345
  861POSM   NC310093   0.370  30.314  16.378 -0.1593  0.3122 -0.0954
  861POSM   PO410094   0.310  30.694  16.247 -0.2854  0.2280 -0.1981
  861POSM   AM110095   0.307  30.765  15.918 -0.1516 -0.0911  0.0735
  861POSM   AM210096   0.457  30.808  15.699 -0.1407 -0.0807  0.2210
  861POSM   T1A10097  -0.054  30.836  15.566 -0.1514  0.0959 -0.0042
  861POSM   C2A10098  -0.071  30.967  15.075 -0.1634 -0.0680 -0.0393
  861POSM   C3A10099  -0.105  31.204  14.658  0.1011 -0.1858  0.0893
  861POSM   C1B10100   0.356  31.163  15.637  0.1318  0.2387  0.2128
  861POSM   D2B10101   0.012  31.396  15.397 -0.1951 -0.1408  0.2193
  861POSM   C3B10102   0.281  31.365  15.016  0.2251 -0.2288 -0.0263
  861POSM   C4B10103   0.609  31.177  14.752 -0.2492 -0.0771  0.1508
  862DOPC   NC310104   2.812  28.084  15.935 -0.0853  0.1111 -0.1828
  862DOPC   PO410105   2.557  27.770  15.975 -0.0503  0.1867  0.0229
  862DOPC   GL110106   2.520  27.789  15.664  0.0086  0.1371  0.2921
  862DOPC   GL210107   2.268  28.034  15.658 -0.0007 -0.2700  0.3584
  862DOPC   C1A10108   2.743  27.954  15.332 -0.0779  0.0953 -0.1042
  862DOPC   D2A10109   2.716  28.173  14.908  0.4116 -0.2488 -0.1815
  862DOPC   C3A10110   3.114  28.465  14.783 -0.2537  0.0778  0.1523
  862DOPC   C4A10111   2.988  28.901  14.692  0.1071  0.2572  0.3191
  862DOPC   C1B10112   2.252  27.700  15.329 -0.0465  0.0878 -0.2610
  862DOPC   D2B10113   2.474  27.534  14.943  0.1901 -0.3337  0.1139
  862DOPC   C3B10114   2.624  27.391  14.541 -0.0077  0.1128 -0.1742
  862DOPC   C4B10115   2.815  27.179  14.253 -0.0230 -0.0682 -0.2046
  863POSM   NC310116   1.465  34.108  16.434 -0.0051  0.6281 -0.0444
  863POSM   PO410117   1.366  34.084  16.037  0.0081  0.1706 -0.1385
  863POSM   AM110118   1.446  34.004  15.748 -0.3510  0.0817  0.1820
  863POSM   AM210119   1.630  33.829  15.628  0.0906  0.0319 -0.2216
  863POSM   T1A10120   1.352  34.083  15.296 -0.0763 -0.0602 -0.2323
  863POSM   C2A10121   1.189  34.118  14.859 -0.1076 -0.1864  0.2201
  863POSM   C3A10122   0.980  34.352  14.515 -0.1611  0.3746 -0.1186
  863POSM   C1B10123   1.828  33.819  15.348 -0.0187 -0.0121  0.1022
  863POSM   D2B10124   2.032  33.657  14.994 -0.0628 -0.2159  0.1443
  863POSM   C3B10125   2.407  33.667  14.760  0.0661 -0.0438  0.1267
  863POSM   C4B10126   2.561  34.070  14.501 -0.2500  0.0962 -0.2262
  864DOPE   NH310127   3.076  30.189  16.139 -0.1272 -0.0440 -0.1854
  864DOPE   PO410128   3.355  30.266  16.084 -0.0450 -0.2118 -0.0162
  864DOPE   GL110129   3.557  30.398  15.778  0.2180  0.0051  0.2763
  864DOPE   GL210130   3.408  30.206  15.608  0.2483 -0.1009 -0.1531
  864DOPE   C1A10131   3.664  30.503  15.282 -0.1088 -0.6179  0.0443
  864DOPE   D2A10132   4.015  30.344  15.049 -0.0851  0.2050 -0.2803
  864DOPE   C3A10133   3.958  30.384  14.577 -0.4143  0.0926 -0.1337
  864DOPE   C4A10134   3.966  30.443  14.104 -0.1197 -0.2185 -0.0836
  864DOPE   C1B10135   3.304  30.122  15.132 -0.2374 -0.0687  0.0730
  864DOPE   D2B10136   2.921  30.325  14.980 -0.1423  0.0962  0.0798
  864DOPE   C3B10137   2.931  30.378  14.542 -0.0686  0.2046 -0.3125
  864DOPE   C4B10138   3.050  30.113  14.194 -0.0978 -0.0432  0.0139
  865DOPC   NC310139  10.386  25.543  15.532  0.1108  0.0441 -0.0690
  865DOPC   PO410140  10.105  25.363  15.706  0.2743 -0.1649  0.2340
  865DOPC   GL110141   9.999  25.167  15.390  0.2653 -0.0470  0.1128
  865DOPC   GL210142  10.222  25.223  15.180  0.0864  0.0349  0.1648
  865DOPC   C1A10143   9.800  24.806  15.141  0.0795 -0.0111 -0.1288
  865DOPC   D2A10144   9.395  24.794  15.088  0.2539 -0.0150  0.1133
  865DOPC   C3A10145   9.271  24.794  14.649 -0.3136 -0.1219  0.0654
  865DOPC   C4A10146   9.276  24.717  14.143 -0.0708  0.0434  0.1072
  865DOPC   C1B10147  10.418  25.322  14.774  0.0875  0.0324 -0.1945
  865DOPC   D2B10148  10.417  25.496  14.337  0.0060  0.0316  0.0905
  865DOPC   C3B10149  10.589  25.900  14.115  0.0225 -0.2454 -0.0433
  865DOPC   C4B10150  10.797  26.328  14.022  0.1965  0.4509  0.0973
  866DOPC   NC310151   6.713  24.029  16.195 -0.1267 -0.0570  0.1640
  866DOPC   PO410152   6.356  24.139  16.361  0.0250 -0.1667 -0.2846
  866DOPC   GL110153   6.406  24.356  16.008  0.0104 -0.0360  0.0450
  866DOPC   GL210154   6.597  24.212  15.746  0.1152  0.0978  0.1696
  866DOPC   C1A10155   6.442  24.621  15.621 -0.0683 -0.0905  0.0739
  866DOPC   D2A10156   6.525  24.748  15.144  0.0473 -0.3929 -0.0342
  866DOPC   C3A10157   6.389  24.536  14.752 -0.1523  0.0782 -0.0514
  866DOPC   C4A10158   6.073  24.336  14.440 -0.2740 -0.0789  0.0270
  866DOPC   C1B10159   6.570  24.302  15.287 -0.0115 -0.4728 -0.0907
  866DOPC   D2B10160   6.823  24.435  14.932  0.2530 -0.1817  0.1785
  866DOPC   C3B10161   7.072  24.081  14.650 -0.2184 -0.0401  0.0284
  866DOPC   C4B10162   6.774  23.857  14.449 -0.0387 -0.0738  0.1859
  867DOPC   NC310163   4.414  28.562  16.067  0.4248 -0.4920 -0.1766
  867DOPC   PO410164   4.131  28.293  16.188 -0.2141 -0.2966 -0.3879
  867DOPC   GL110165   3.962  28.399  15.818 -0.0987  0.1337  0.2941
  867DOPC   GL210166   3.786  28.222  15.738  0.2124 -0.3339  0.1206
  867DOPC   C1A10167   4.091  28.533  15.349 -0.0035 -0.1859 -0.3038
  867DOPC   D2A10168   3.996  28.523  14.930 -0.2162  0.2289  0.2045
  867DOPC   C3A10169   4.117  28.751  14.577 -0.0044  0.0935  0.1693
  867DOPC   C4A10170   4.454  29.090  14.568 -0.1955 -0.2863  0.0690
  867DOPC   C1B10171   3.718  28.077  15.330 -0.0915 -0.0814 -0.0267
  867DOPC   D2B10172   3.876  27.733  15.001  0.0116  0.0150  0.0530
  867DOPC   C3B10173   3.552  27.770  14.662  0.3458 -0.0636 -0.0303
  867DOPC   C4B10174   3.352  27.847  14.291  0.0726 -0.0274 -0.1247
  868DOPC   NC310175   9.969  31.596  14.600  0.2825  0.0329 -0.0041
  868DOPC   PO410176   9.933  31.967  14.632  0.1200 -0.2600  0.2309
  868DOPC   GL110177   9.690  32.079  14.367  0.4857 -0.1835  0.0559
  868DOPC   GL210178   9.888  32.124  14.161  0.1003  0.1766  0.0263
  868DOPC   C1A10179   9.465  32.246  13.966  0.2500 -0.2153  0.0772
  868DOPC   D2A10180   9.136  32.275  13.607  0.2901 -0.5011 -0.2633
  868DOPC   C3A10181   9.195  32.480  13.206 -0.1122 -0.3627 -0.1443
  868DOPC   C4A10182   9.219  32.404  12.764 -0.3484  0.2298  0.3484
  868DOPC   C1B10183   9.881  31.720  13.863 -0.0874 -0.1429 -0.3318
  868DOPC   D2B10184   9.779  31.412  13.535 -0.0274  0.0383  0.3384
  868DOPC   C3B10185   9.631  30.986  13.338 -0.0557  0.1353  0.0069
  868DOPC   C4B10186   9.552  30.636  13.060  0.0003  0.1131  0.1804
  869DOPS   CNO10187   5.543  28.832  15.458  0.0332  0.0030 -0.0465
  869DOPS   PO410188   5.866  29.012  15.371 -0.1656 -0.1409  0.1126
  869DOPS   GL110189   6.157  29.155  15.146  0.1250  0.2161  0.0151
  869DOPS   GL210190   6.351  29.297  15.258 -0.2064 -0.1447  0.1268
  869DOPS   C1A10191   6.330  28.793  14.986 -0.2042 -0.1903 -0.1159
  869DOPS   D2A10192   6.640  28.776  14.646  0.2915 -0.1568  0.0570
  869DOPS   C3A10193   6.669  28.708  14.171 -0.0831  0.1952 -0.1246
  869DOPS   C4A10194   6.461  28.582  13.783  0.1686 -0.1646  0.0783
  869DOPS   C1B10195   6.462  29.260  14.794 -0.1799  0.1117  0.0581
  869DOPS   D2B10196   6.309  29.049  14.369 -0.3272  0.0976  0.1413
  869DOPS   C3B10197   6.026  28.987  14.697  0.3423 -0.0029  0.1517
  869DOPS   C4B10198   5.614  28.785  14.810  0.0702 -0.0179 -0.3326
  870DOPC   NC310199   6.812  27.834  15.688 -0.0048 -0.2530 -0.0749
  870DOPC   PO410200   6.499  28.096  15.705 -0.0202  0.0460 -0.0871
  870DOPC   GL110201   6.536  28.079  15.302  0.2136 -0.1967  0.0197
  870DOPC   GL210202   6.461  28.327  15.119 -0.2615  0.4456  0.3164
  870DOPC   C1A10203   6.889  28.042  14.980  0.2449 -0.0880 -0.3373
  870DOPC   D2A10204   7.311  28.007  14.826 -0.2752 -0.1510 -0.2724
  870DOPC   C3A10205   7.467  27.989  14.378  0.3989 -0.3614 -0.2060
  870DOPC   C4A10206   7.142  28.025  14.025 -0.2241 -0.0616 -0.0397
  870DOPC   C1B10207   6.510  28.111  14.667  0.0181  0.0079 -0.2866
  870DOPC   D2B10208   6.622  28.039  14.260 -0.5290 -0.1070  0.0991
  870DOPC   C3B10209   6.413  27.928  13.834  0.1981 -0.1857  0.0867
  870DOPC   C4B10210   6.467  28.143  13.425 -0.1680 -0.1405  0.2761
  871DOPS   CNO10211   8.291  30.906  15.186 -0.0184 -0.0259  0.0973
  871DOPS   PO410212   8.062  31.248  15.218  0.0522 -0.0788 -0.0105
  871DOPS   GL110213   7.896  31.203  14.888  0.2445 -0.0431 -0.2110
  871DOPS   GL210214   7.775  31.449  14.829  0.0392 -0.2945 -0.0586
  871DOPS   C1A10215   7.969  30.917  14.551 -0.0976 -0.2438 -0.2935
  871DOPS   D2A10216   7.975  30.591  14.131 -0.1578  0.0232  0.2406
  871DOPS   C3A10217   7.709  30.634  13.759 -0.0707  0.2099 -0.0999
  871DOPS   C4A10218   7.390  30.773  13.450 -0.0522  0.0932  0.0508
  871DOPS   C1B10219   7.394  31.448  14.536 -0.2407  0.0408  0.0897
  871DOPS   D2B10220   7.090  31.212  14.365 -0.1405 -0.3383  0.0892
  871DOPS   C3B10221   6.726  31.519  14.275 -0.1932 -0.1376  0.2231
  871DOPS   C4B10222   6.416  31.676  14.006  0.1646 -0.4887 -0.1079
  872POSM   NC310223  11.277  24.015  15.922  0.0438  0.0196 -0.2169
  872POSM   PO410224  11.540  23.891  16.270  0.2893  0.1920  0.1192
  872POSM   AM110225  11.773  23.963  16.059 -0.2176  0.0471 -0.4687
  872POSM   AM210226  11.869  23.877  15.847 -0.1378  0.1840 -0.0324
  872POSM   T1A10227  11.973  24.300  15.710  0.0097  0.1392  0.1446
  872POSM   C2A10228  12.077  24.325  15.287  0.4515 -0.2602 -0.2328
  872POSM   C3A10229  12.083  24.069  14.932  0.1371  0.1568  0.2106
  872POSM   C1B10230  11.694  23.575  15.712 -0.0376  0.3387 -0.1570
  872POSM   D2B10231  11.644  23.237  15.373  0.1412  0.0973 -0.1417
  872POSM   C3B10232  11.437  23.134  15.004 -0.2302 -0.1451 -0.3950
  872POSM   C4B10233  11.312  23.113  14.564 -0.1090 -0.2571  0.0155
  873DOPS   CNO10234   4.667  28.109  16.224 -0.1324 -0.0485 -0.1190
  873DOPS   PO410235   4.737  28.264  15.902  0.1167 -0.2822  0.2890
  873DOPS   GL110236   4.809  28.314  15.528 -0.2516  0.4031  0.1625
  873DOPS   GL210237   4.714  28.038  15.374 -0.1714  0.0835 -0.0035
  873DOPS   C1A10238   4.698  28.366  15.077  0.0252  0.0480  0.3025
  873DOPS   D2A10239   4.473  28.331  14.684  0.0760  0.2189 -0.0961
  873DOPS   C3A10240   4.315  28.466  14.241 -0.0058 -0.0401  0.0877
  873DOPS   C4A10241   4.317  28.885  14.101  0.2553 -0.0121 -0.1229
  873DOPS   C1B10242   4.290  28.024  15.078 -0.2421  0.0229  0.2249
  873DOPS   D2B10243   4.174  27.850  14.668  0.2527  0.1468  0.0521
  873DOPS   C3B10244   4.314  27.984  14.234 -0.0966  0.2115 -0.1726
  873DOPS   C4B10245   4.386  28.167  13.845  0.1497 -0.0098 -0.0033
  874DOPS   CNO10246   0.419  25.837  16.083 -0.0348  0.1136  0.3983
  874DOPS   PO410247   0.557  25.805  15.739 -0.2586 -0.3835 -0.0596
  874DOPS   GL110248   0.670  26.014  15.480  0.2194  0.0578 -0.1075
  874DOPS   GL210249   1.043  26.088  15.516  0.4593  0.1687 -0.1980
  874DOPS   C1A10250   0.500  26.032  15.027  0.1769  0.0306 -0.2121
  874DOPS   D2A10251   0.271  25.924  14.643  0.2344  0.0466  0.1124
  874DOPS   C3A10252   0.573  25.926  14.244 -0.0575  0.2503  0.1955
  874DOPS   C4A10253   0.623  25.715  13.844 -0.1761  0.0648 -0.0162
  874DOPS   C1B10254   1.025  26.259  15.084  0.0149 -0.0826  0.0306
  874DOPS   D2B10255   0.717  26.545  14.881  0.1712 -0.0857 -0.2396
  874DOPS   C3B10256   0.322  26.481  14.691 -0.2224 -0.0437 -0.2697
  874DOPS   C4B10257   0.127  26.308  14.291  0.0479  0.1365 -0.0177
  875DOPE   NH310258   3.477  28.766  15.998 -0.2803 -0.3271  0.1056
  875DOPE   PO410259   3.292  28.495  15.852 -0.0860  0.0190  0.3188
  875DOPE   GL110260   3.337  28.193  15.466 -0.1235  0.1421  0.1156
  875DOPE   GL210261   3.097  28.275  15.274 -0.0257  0.0836 -0.1098
  875DOPE   C1A10262   3.311  27.707  15.388  0.2165 -0.1841  0.0509
  875DOPE   D2A10263   3.313  27.444  15.016  0.0432 -0.0660  0.3066
  875DOPE   C3A10264   3.011  27.134  14.829 -0.0204 -0.0028 -0.1832
  875DOPE   C4A10265   2.636  26.898  14.898 -0.0740  0.0034  0.0318
  875DOPE   C1B10266   3.229  28.003  14.993  0.1303  0.1378  0.0881
  875DOPE   D2B10267   2.979  27.704  14.698 -0.1547  0.0138  0.3930
  875DOPE   C3B10268   3.198  27.367  14.481  0.1951 -0.2351  0.1049
  875DOPE   C4B10269   3.288  27.002  14.255  0.0860  0.1334 -0.1461
  876DOPE   NH310270   8.144  24.200  15.840 -0.2508 -0.0324 -0.0396
  876DOPE   PO410271   8.438  24.333  15.813  0.1838  0.3044  0.0529
  876DOPE   GL110272   8.491  24.356  15.443 -0.3210  0.1179  0.0842
  876DOPE   GL210273   8.747  24.374  15.429  0.2526  0.2441  0.2872
  876DOPE   C1A10274   8.284  24.372  15.022 -0.1152  0.0500  0.2634
  876DOPE   D2A10275   8.339  24.509  14.547 -0.1310  0.2602  0.2743
  876DOPE   C3A10276   8.585  24.297  14.226  0.1792 -0.5221  0.3682
  876DOPE   C4A10277   8.540  24.016  13.822  0.0985 -0.0862 -0.1494
  876DOPE   C1B10278   9.049  24.727  15.436 -0.1260  0.1751 -0.1380
  876DOPE   D2B10279   9.486  24.941  15.538  0.3029  0.3963  0.3857
  876DOPE   C3B10280   9.524  25.237  15.189  0.0089  0.0252  0.2837
  876DOPE   C4B10281   9.231  25.502  15.089  0.3054 -0.0714  0.0454
  877DOPE   NH310282   7.782  33.159  15.031  0.0866  0.0820 -0.0860
  877DOPE   PO410283   7.745  32.872  15.112  0.2068  0.0288 -0.1838
  877DOPE   GL110284   7.582  32.921  14.691 -0.3799 -0.1177  0.0875
  877DOPE   GL210285   7.299  32.889  14.846  0.1743  0.0476 -0.1977
  877DOPE   C1A10286   7.444  33.126  14.291  0.0903 -0.0707  0.2004
  877DOPE   D2A10287   7.163  33.400  14.199 -0.2476  0.1052 -0.0245
  877DOPE   C3A10288   6.948  33.359  13.743 -0.1396  0.2269  0.0413
  877DOPE   C4A10289   6.752  33.388  13.323  0.1202  0.0327  0.1628
  877DOPE   C1B10290   6.952  33.029  14.550 -0.1857  0.1004  0.0818
  877DOPE   D2B10291   6.565  33.129  14.274 -0.0951  0.2330 -0.2080
  877DOPE   C3B10292   6.539  32.998  13.821 -0.0654  0.0731  0.1352
  877DOPE   C4B10293   6.403  32.832  13.489 -0.1183 -0.0199 -0.1352
  878DOPC   NC310294   4.237  30.273  16.314  0.2668 -0.1856  0.1452
  878DOPC   PO410295   4.253  30.685  16.272 -0.1606  0.0127 -0.0456
  878DOPC   GL110296   4.115  30.505  15.905  0.1586  0.3064 -0.1353
  878DOPC   GL210297   3.978  30.716  15.763  0.0150  0.0471 -0.0979
  878DOPC   C1A10298   3.965  30.230  15.539  0.2693 -0.4129 -0.2343
  878DOPC   D2A10299   3.715  29.932  15.315  0.0208 -0.2667  0.0363
  878DOPC   C3A10300   3.834  29.530  15.198 -0.0846 -0.3778  0.3637
  878DOPC   C4A10301   4.237  29.467  15.355  0.0568  0.0785 -0.0393
  878DOPC   C1B10302   4.286  30.665  15.465  0.3186  0.0562 -0.0137
  878DOPC   D2B10303   4.591  30.629  15.126  0.0539 -0.0547  0.0831
  878DOPC   C3B10304   4.524  30.329  14.819  0.0523 -0.3670  0.1298
  878DOPC   C4B10305   4.409  30.194  14.395 -0.1760  0.2451  0.1717
  879DOPC   NC310306  11.470  27.626  15.380  0.3705 -0.0568  0.3512
  879DOPC   PO410307  11.112  27.743  15.569 -0.1709 -0.0950  0.0822
  879DOPC   GL110308  11.049  27.889  15.204 -0.1240 -0.0152  0.4846
  879DOPC   GL210309  10.905  27.661  15.101 -0.0319  0.1690 -0.3221
  879DOPC   C1A10310  11.140  27.943  14.743  0.0309  0.1429  0.1410
  879DOPC   D2A10311  11.085  28.266  14.425  0.0446  0.2187  0.2192
  879DOPC   C3A10312  11.197  28.079  14.069 -0.0466 -0.3279  0.1539
  879DOPC   C4A10313  11.588  27.914  13.883  0.1147  0.5130  0.1907
  879DOPC   C1B10314  11.331  27.522  14.893  0.1307 -0.1987  0.3164
  879DOPC   D2B10315  11.730  27.464  15.022 -0.3340 -0.0370  0.0470
  879DOPC   C3B10316  11.976  27.141  14.818  0.0193 -0.0675 -0.2927
  879DOPC   C4B10317  12.142  27.089  14.385  0.3447  0.1784  0.2509
  880POSM   NC310318   4.259  28.990  15.683  0.0113  0.3834 -0.1075
  880POSM   PO410319   3.951  28.889  15.935  0.1549  0.1514 -0.1423
  880POSM   AM110320   3.834  28.859  15.626  0.3717  0.4569  0.6049
  880POSM   AM210321   3.622  28.728  15.519 -0.3433  0.2269  0.0144
  880POSM   T1A10322   3.869  28.964  15.132  0.2487 -0.3127 -0.0486
  880POSM   C2A10323   3.946  29.228  14.775 -0.1883 -0.0885 -0.0781
  880POSM   C3A10324   4.136  29.454  14.428 -0.2332  0.0039 -0.1327
  880POSM   C1B10325   3.566  28.539  15.172  0.0224  0.2655  0.2717
  880POSM   D2B10326   3.671  28.198  14.837  0.3133  0.1693  0.1646
  880POSM   C3B10327   3.921  28.233  14.451 -0.2233 -0.1904 -0.0485
  880POSM   C4B10328   3.926  28.179  13.966 -0.0601  0.0797  0.1863
  881POSM   NC310329   2.518  33.473  15.968 -0.0825  0.0030 -0.1485
  881POSM   PO410330   2.143  33.416  15.861  0.2056  0.2392 -0.0192
  881POSM   AM110331   2.040  33.222  15.594  0.2925  0.2737 -0.0834
  881POSM   AM210332   1.855  33.349  15.421  0.1211  0.0468  0.0948
  881POSM   T1A10333   1.900  32.885  15.230  0.3581 -0.0913 -0.0221
  881POSM   C2A10334   1.867  32.790  14.796 -0.2330 -0.0231 -0.1463
  881POSM   C3A10335   1.970  32.576  14.381 -0.0289 -0.2783  0.2403
  881POSM   C1B10336   1.648  33.279  15.156  0.0151 -0.1087 -0.1043
  881POSM   D2B10337   1.648  33.367  14.681  0.2265  0.0346 -0.1021
  881POSM   C3B10338   1.187  33.376  14.532  0.2380  0.1625 -0.2771
  881POSM   C4B10339   0.750  33.363  14.250  0.1757 -0.1033  0.1931
  882DOPE   NH310340   2.667  26.091  15.807  0.1231  0.1601  0.2407
  882DOPE   PO410341   2.608  26.382  15.698  0.2389  0.1644  0.1011
  882DOPE   GL110342   2.603  26.449  15.302  0.1028  0.1372 -0.2726
  882DOPE   GL210343   2.354  26.388  15.153  0.3245 -0.1867  0.2404
  882DOPE   C1A10344   2.814  26.431  14.855 -0.1700 -0.0726  0.2338
  882DOPE   D2A10345   3.064  26.623  14.518  0.0947 -0.0395 -0.0760
  882DOPE   C3A10346   3.486  26.439  14.491  0.2204  0.2519  0.0367
  882DOPE   C4A10347   3.870  26.381  14.372  0.0098  0.2508  0.1410
  882DOPE   C1B10348   2.273  26.328  14.752 -0.4013  0.2817 -0.0579
  882DOPE   D2B10349   2.440  26.206  14.366 -0.1135  0.1219  0.3404
  882DOPE   C3B10350   2.397  26.287  13.908  0.2274 -0.0612  0.0401
  882DOPE   C4B10351   2.584  26.555  13.612 -0.1512  0.2960 -0.0541
  883DOPE   NH310352   0.703  27.012  16.062 -0.0476  0.0678 -0.3278
  883DOPE   PO410353   0.813  26.737  16.047  0.2318  0.2166 -0.0776
  883DOPE   GL110354   1.134  26.593  15.841  0.4639 -0.1756 -0.0329
  883DOPE   GL210355   1.032  26.553  15.589 -0.0459 -0.1196  0.1689
  883DOPE   C1A10356   1.600  26.648  15.869  0.0704  0.3761 -0.1635
  883DOPE   D2A10357   1.833  27.046  15.828 -0.0303  0.0141  0.0331
  883DOPE   C3A10358   1.970  27.299  15.479 -0.0806 -0.2773  0.1328
  883DOPE   C4A10359   2.409  27.262  15.368  0.0660 -0.0573 -0.4143
  883DOPE   C1B10360   1.431  26.445  15.438 -0.1839 -0.2955  0.0272
  883DOPE   D2B10361   1.758  26.799  15.400 -0.1066  0.1274  0.2265
  883DOPE   C3B10362   1.678  27.104  15.054 -0.0641 -0.2836  0.1207
  883DOPE   C4B10363   1.680  26.994  14.572 -0.0155 -0.4113 -0.1232
  884DOPE   NH310364   4.966  34.690  15.718  0.1038  0.0465  0.1960
  884DOPE   PO410365   5.203  34.734  15.867  0.0537 -0.1188 -0.3473
  884DOPE   GL110366   5.493  34.973  15.708  0.1324  0.2875  0.2107
  884DOPE   GL210367   5.295  35.061  15.506 -0.3516  0.1640 -0.0741
  884DOPE   C1A10368   5.628  35.423  15.439 -0.4886  0.2232  0.0318
  884DOPE   D2A10369   5.584  35.877  15.337 -0.1329 -0.2113  0.1177
  884DOPE   C3A10370   5.531  36.253  15.089 -0.0974 -0.0588  0.0338
  884DOPE   C4A10371   5.685  36.533  14.747 -0.0117 -0.1531 -0.0889
  884DOPE   C1B10372   5.008  35.120  15.187 -0.1392  0.4629  0.2007
  884DOPE   D2B10373   4.930  35.441  14.907  0.2951 -0.1464 -0.1780
  884DOPE   C3B10374   4.882  35.954  14.997 -0.1643 -0.2753 -0.0106
  884DOPE   C4B10375   4.907  36.448  14.979  0.1898  0.0264 -0.2193
  885DOPC   NC310376   0.997  24.801  16.025 -0.1749 -0.3479 -0.0864
  885DOPC   PO410377   0.794  24.814  15.706 -0.3163  0.3264  0.2901
  885DOPC   GL110378   0.760  24.777  15.376 -0.0149 -0.0321 -0.1669
  885DOPC   GL210379   0.582  24.537  15.362 -0.0088  0.3663 -0.1240
  885DOPC   C1A10380   0.608  24.843  14.935  0.0976 -0.0630 -0.2790
  885DOPC   D2A10381   0.238  25.092  14.880  0.3059  0.0909  0.2327
  885DOPC   C3A10382  -0.148  24.979  14.613 -0.0773  0.2010 -0.0519
  885DOPC   C4A10383  -0.334  24.972  14.201  0.0567  0.0099 -0.1670
  885DOPC   C1B10384   0.539  24.139  15.110  0.0756  0.1392  0.0019
  885DOPC   D2B10385   0.456  23.983  14.637  0.1653 -0.0335 -0.1904
  885DOPC   C3B10386   0.585  23.623  14.341  0.0789  0.0003 -0.0748
  885DOPC   C4B10387   0.604  23.203  14.533 -0.2092  0.1960 -0.3243
  886DOPC   NC310388   0.644  28.395  16.066 -0.1073 -0.1278 -0.2367
  886DOPC   PO410389   0.246  28.340  16.076  0.0961  0.1703  0.3296
  886DOPC   GL110390   0.300  28.545  15.753  0.0918  0.0161  0.1941
  886DOPC   GL210391   0.386  28.812  15.797  0.0561 -0.0218 -0.2718
  886DOPC   C1A10392   0.251  28.446  15.275  0.0871 -0.3524 -0.0127
  886DOPC   D2A10393   0.199  28.661  14.790 -0.1797  0.4095  0.0189
  886DOPC   C3A10394  -0.071  28.802  14.401  0.1693  0.1190 -0.3991
  886DOPC   C4A10395  -0.143  28.749  13.916 -0.2320 -0.1788 -0.1560
  886DOPC   C1B10396   0.551  29.227  15.607  0.1051  0.3191  0.2636
  886DOPC   D2B10397   0.591  29.476  15.189 -0.1465 -0.1027  0.1829
  886DOPC   C3B10398   0.845  29.349  14.840  0.2412 -0.1448  0.0700
  886DOPC   C4B10399   1.136  29.351  14.501  0.0158  0.1621 -0.1578
  887POSM   NC310400   5.021  24.701  15.958 -0.0380 -0.2575 -0.2239
  887POSM   PO410401   4.989  25.050  16.249 -0.3894  0.0282 -0.0540
  887POSM   AM110402   5.115  25.174  15.974 -0.2783  0.0297 -0.1224
  887POSM   AM210403   5.335  25.218  15.895 -0.1164  0.1348  0.0832
  887POSM   T1A10404   5.087  25.208  15.458  0.2121  0.2305  0.1234
  887POSM   C2A10405   5.152  25.342  14.970  0.0218 -0.1917 -0.1106
  887POSM   C3A10406   5.181  25.710  14.697  0.0487  0.1856  0.2776
  887POSM   C1B10407   5.428  24.942  15.695  0.1422  0.1645  0.0688
  887POSM   D2B10408   5.449  24.833  15.247  0.3086  0.0950 -0.0613
  887POSM   C3B10409   5.654  25.195  14.979 -0.0870  0.2268 -0.1627
  887POSM   C4B10410   5.554  25.581  14.948 -0.3660  0.1609  0.1945
  888DOPC   NC310411   2.060  34.111  15.703 -0.1508  0.0150  0.0710
  888DOPC   PO410412   2.322  33.978  15.893 -0.1392  0.0258 -0.3348
  888DOPC   GL110413   2.563  34.259  15.641  0.0754  0.1762 -0.0030
  888DOPC   GL210414   2.815  34.162  15.459 -0.3088 -0.3189 -0.1885
  888DOPC   C1A10415   2.372  34.531  15.361 -0.0895 -0.1650  0.2604
  888DOPC   D2A10416   2.273  34.836  15.048 -0.0613 -0.0361  0.4239
  888DOPC   C3A10417   2.007  35.244  14.967  0.0887  0.1617 -0.1638
  888DOPC   C4A10418   1.854  35.608  15.202  0.1943 -0.3143  0.0209
  888DOPC   C1B10419   2.826  33.989  15.020  0.3227 -0.1100  0.1595
  888DOPC   D2B10420   3.064  33.675  14.725 -0.1513  0.2752  0.0800
  888DOPC   C3B10421   3.127  33.477  14.357  0.3677  0.1456  0.2041
  888DOPC   C4B10422   2.915  33.299  14.003  0.1423  0.2146  0.3036
  889DOPE   NH310423   7.696  25.272  16.013  0.1215  0.1400 -0.1158
  889DOPE   PO410424   7.965  25.355  15.915  0.0837 -0.0563 -0.0566
  889DOPE   GL110425   7.906  25.407  15.481 -0.2300 -0.1159 -0.0432
  889DOPE   GL210426   7.686  25.575  15.509  0.1043 -0.1449  0.0730
  889DOPE   C1A10427   8.192  25.375  15.117  0.1864  0.3726  0.2768
  889DOPE   D2A10428   8.437  25.088  14.848  0.0145 -0.0363  0.1583
  889DOPE   C3A10429   8.774  25.115  14.497 -0.0496 -0.2396 -0.2446
  889DOPE   C4A10430   8.840  25.024  14.009  0.0161 -0.0983 -0.0772
  889DOPE   C1B10431   7.740  25.579  15.037  0.1981  0.0393  0.0337
  889DOPE   D2B10432   7.766  25.308  14.724  0.0150 -0.1564 -0.2320
  889DOPE   C3B10433   8.167  25.339  14.554 -0.0462 -0.2020 -0.0915
  889DOPE   C4B10434   8.143  25.565  14.138 -0.0959  0.1882  0.0266
  890DOPC   NC310435   2.396  29.850  16.460 -0.0781 -0.0234  0.3181
  890DOPC   PO410436   2.524  30.079  16.201  0.4368  0.4897  0.1009
  890DOPC   GL110437   2.636  30.127  15.890 -0.3924 -0.1153 -0.2753
  890DOPC   GL210438   2.868  30.266  15.664 -0.1625 -0.0500  0.0288
  890DOPC   C1A10439   2.364  29.979  15.532  0.0660 -0.0630 -0.1282
  890DOPC   D2A10440   2.004  30.012  15.295  0.0118  0.0697 -0.1182
  890DOPC   C3A10441   1.734  29.670  15.411  0.2700  0.0388  0.1056
  890DOPC   C4A10442   1.695  29.212  15.381  0.0530  0.2831  0.0867
  890DOPC   C1B10443   3.139  30.601  15.397  0.3415 -0.1878  0.0957
  890DOPC   D2B10444   3.219  30.789  14.972  0.0562  0.0514  0.0242
  890DOPC   C3B10445   3.390  30.514  14.702 -0.1595  0.0797  0.2115
  890DOPC   C4B10446   3.472  30.470  14.263 -0.0624 -0.0855  0.1193
  891DOPE   NH310447   0.246  31.753  15.958 -0.1158 -0.1540 -0.2092
  891DOPE   PO410448   0.390  32.008  16.034  0.0463 -0.0437 -0.2134
  891DOPE   GL110449   0.221  32.296  15.805  0.2630 -0.2453  0.2673
  891DOPE   GL210450  -0.027  32.240  15.874  0.3109  0.1374 -0.0298
  891DOPE   C1A10451   0.334  32.165  15.377  0.0291 -0.1326  0.3287
  891DOPE   D2A10452   0.270  31.995  14.982  0.0231  0.1389  0.0865
  891DOPE   C3A10453   0.306  32.199  14.540 -0.1682 -0.2014 -0.0887
  891DOPE   C4A10454   0.199  32.036  14.109 -0.0464  0.0634 -0.1026
  891DOPE   C1B10455  -0.086  32.448  15.418  0.1670  0.0512  0.0308
  891DOPE   D2B10456   0.157  32.505  15.036 -0.2075 -0.0013  0.0985
  891DOPE   C3B10457   0.415  32.792  14.809  0.0653 -0.0331  0.0668
  891DOPE   C4B10458   0.454  33.003  14.383  0.0727  0.0126 -0.1793
  892DOPE   NH310459   9.489  23.707  16.382 -0.0332 -0.0443 -0.0818
  892DOPE   PO410460   9.363  23.956  16.192 -0.0158 -0.0014  0.0181
  892DOPE   GL110461   9.458  23.966  15.789 -0.1156 -0.2220  0.1531
  892DOPE   GL210462   9.596  24.239  15.793  0.1490  0.0027  0.0384
  892DOPE   C1A10463   9.560  23.907  15.386 -0.1443  0.2273  0.2641
  892DOPE   D2A10464   9.287  23.918  15.034  0.0516 -0.0003  0.1869
  892DOPE   C3A10465   9.453  23.887  14.570 -0.0341  0.1320 -0.1905
  892DOPE   C4A10466   9.532  24.046  14.071  0.0257 -0.0078  0.1639
  892DOPE   C1B10467   9.409  24.364  15.355 -0.2025  0.3707  0.0704
  892DOPE   D2B10468   9.087  24.408  15.034  0.1598 -0.0135 -0.1252
  892DOPE   C3B10469   9.164  24.281  14.626  0.1103  0.2976  0.2711
  892DOPE   C4B10470   9.522  24.373  14.409 -0.2371 -0.0866  0.1542
  893DOPC   NC310471   3.014  26.569  15.456 -0.0773 -0.0606 -0.1223
  893DOPC   PO410472   3.096  26.263  15.674  0.1460 -0.0168 -0.0426
  893DOPC   GL110473   3.192  26.103  15.343 -0.2622 -0.1091  0.5485
  893DOPC   GL210474   3.300  26.267  15.137 -0.2758  0.3429 -0.0106
  893DOPC   C1A10475   3.415  25.812  15.063 -0.0874  0.0048  0.1407
  893DOPC   D2A10476   3.418  25.803  14.591  0.1824 -0.0826  0.1573
  893DOPC   C3A10477   3.385  26.008  14.157  0.2451  0.0234  0.2166
  893DOPC   C4A10478   3.221  25.854  13.734  0.2225  0.0042  0.0917
  893DOPC   C1B10479   3.525  26.643  14.921  0.2185 -0.2918 -0.3842
  893DOPC   D2B10480   3.468  27.063  14.721 -0.0394 -0.0475  0.3575
  893DOPC   C3B10481   3.689  27.343  14.433 -0.1566  0.4542  0.1174
  893DOPC   C4B10482   3.886  27.690  14.279  0.1067  0.0905 -0.2481
  894DOPC   NC310483   4.198  27.875  15.962 -0.0497 -0.2090  0.1488
  894DOPC   PO410484   4.595  27.790  15.839 -0.0072  0.0958 -0.1371
  894DOPC   GL110485   4.681  27.624  15.533 -0.0557  0.1280  0.2573
  894DOPC   GL210486   4.579  27.388  15.381  0.0323  0.4685  0.0804
  894DOPC   C1A10487   4.766  27.662  15.032  0.0655  0.2871  0.1119
  894DOPC   D2A10488   4.665  27.835  14.561  0.2803 -0.0058  0.0920
  894DOPC   C3A10489   4.864  28.241  14.343 -0.0700 -0.0595 -0.2599
  894DOPC   C4A10490   5.292  28.342  14.111  0.0870 -0.1070  0.1809
  894DOPC   C1B10491   4.262  27.546  15.124 -0.1235  0.2631 -0.0291
  894DOPC   D2B10492   4.081  27.356  14.707  0.2520  0.2434  0.0832
  894DOPC   C3B10493   4.014  26.941  14.577 -0.0709  0.0646  0.0503
  894DOPC   C4B10494   3.732  26.794  14.204  0.0167  0.1688  0.2373
  895DOPC   NC310495  10.737  31.925  14.578  0.0667 -0.0534 -0.0861
  895DOPC   PO410496  10.842  32.205  14.838 -0.1921  0.0727  0.1141
  895DOPC   GL110497  10.935  32.295  14.370 -0.0227 -0.0418 -0.0345
  895DOPC   GL210498  11.245  32.314  14.254  0.0608 -0.0963 -0.1917
  895DOPC   C1A10499  10.812  32.067  14.018  0.2695  0.0897  0.1371
  895DOPC   D2A10500  10.692  31.888  13.595 -0.0875  0.1599 -0.0307
  895DOPC   C3A10501  10.781  31.494  13.454  0.2023 -0.1083 -0.1910
  895DOPC   C4A10502  10.847  31.218  13.066 -0.3760 -0.0907  0.0726
  895DOPC   C1B10503  11.237  32.412  13.807 -0.1607  0.1669  0.2900
  895DOPC   D2B10504  11.508  32.181  13.516  0.2335 -0.0199  0.0953
  895DOPC   C3B10505  11.561  32.468  13.156 -0.1562  0.0326 -0.3238
  895DOPC   C4B10506  11.654  32.626  12.724  0.1215 -0.2401 -0.2762
  896DOPC   NC310507   0.409  25.143  15.360  0.2629 -0.0145  0.0989
  896DOPC   PO410508   0.305  24.916  15.662  0.1262  0.1440  0.1510
  896DOPC   GL110509   0.086  24.676  15.462 -0.0799 -0.2152 -0.1202
  896DOPC   GL210510  -0.055  24.466  15.702  0.2207  0.0755  0.3882
  896DOPC   C1A10511   0.179  24.610  14.987  0.1060  0.1698 -0.0704
  896DOPC   D2A10512   0.296  24.541  14.580  0.0282  0.1119 -0.1403
  896DOPC   C3A10513   0.371  24.880  14.225 -0.1203 -0.1440 -0.0961
  896DOPC   C4A10514   0.750  24.771  14.044  0.1304 -0.3731  0.0224
  896DOPC   C1B10515   0.109  24.243  15.360 -0.1370 -0.1999 -0.0100
  896DOPC   D2B10516   0.066  24.099  14.948 -0.2958  0.2412 -0.1861
  896DOPC   C3B10517  -0.238  23.880  14.626  0.1220  0.0813  0.0417
  896DOPC   C4B10518  -0.452  23.774  14.232  0.0038  0.0726 -0.0155
  897DOPC   NC310519   5.771  27.381  15.984 -0.1763 -0.0809  0.0797
  897DOPC   PO410520   6.149  27.359  15.857  0.4641 -0.1561 -0.1431
  897DOPC   GL110521   6.073  27.094  15.549 -0.0687 -0.0728  0.3502
  897DOPC   GL210522   5.895  26.945  15.714  0.1167 -0.0262  0.2715
  897DOPC   C1A10523   6.040  27.130  15.092 -0.2146 -0.0227  0.0233
  897DOPC   D2A10524   6.239  27.290  14.722  0.0939 -0.1213 -0.0229
  897DOPC   C3A10525   6.621  27.103  14.592 -0.5280  0.0656 -0.1415
  897DOPC   C4A10526   6.981  27.245  14.308 -0.2016  0.0300  0.1791
  897DOPC   C1B10527   6.091  26.648  15.420 -0.2384 -0.3243 -0.5701
  897DOPC   D2B10528   6.357  26.696  15.028  0.0018  0.1418  0.0921
  897DOPC   C3B10529   6.499  26.541  14.616  0.0654  0.2388 -0.0974
  897DOPC   C4B10530   6.479  26.137  14.347 -0.3417 -0.0985  0.0462
  898DOPE   NH310531  10.004  30.934  15.290 -0.0349 -0.0496 -0.2134
  898DOPE   PO410532   9.713  30.835  15.194  0.0509 -0.0875  0.1133
  898DOPE   GL110533   9.504  30.691  14.874  0.0671  0.0355 -0.1334
  898DOPE   GL210534   9.249  30.761  14.901 -0.0082 -0.0268 -0.3493
  898DOPE   C1A10535   9.789  30.602  14.508  0.0881  0.3266 -0.0243
  898DOPE   D2A10536   9.931  30.657  14.073 -0.3303  0.0793  0.0106
  898DOPE   C3A10537  10.311  30.875  13.789  0.1115  0.3380 -0.1431
  898DOPE   C4A10538  10.477  31.019  13.373 -0.0257  0.2647 -0.0814
  898DOPE   C1B10539   8.938  30.790  14.519 -0.1823 -0.3696 -0.3826
  898DOPE   D2B10540   9.013  30.666  14.144  0.0545 -0.1406 -0.1712
  898DOPE   C3B10541   8.788  30.497  13.768  0.2081 -0.0189 -0.0781
  898DOPE   C4B10542   8.628  30.134  13.519  0.2839 -0.1705 -0.1774
  899DOPE   NH310543   8.258  29.565  15.550 -0.0838  0.1274  0.0723
  899DOPE   PO410544   8.537  29.592  15.360  0.0104  0.1923 -0.1365
  899DOPE   GL110545   8.874  29.727  15.147 -0.2817  0.0594  0.0338
  899DOPE   GL210546   8.888  29.871  14.915  0.0890 -0.2938  0.3136
  899DOPE   C1A10547   9.356  29.625  15.044  0.1058 -0.1383 -0.0335
  899DOPE   D2A10548   9.690  29.590  14.708 -0.0909 -0.0015  0.1898
  899DOPE   C3A10549   9.493  29.480  14.246 -0.1645  0.2726 -0.2977
  899DOPE   C4A10550   9.062  29.460  14.035  0.1230 -0.1150  0.1930
  899DOPE   C1B10551   8.757  29.737  14.469  0.2265 -0.0902  0.1878
  899DOPE   D2B10552   8.865  29.925  14.018 -0.0448  0.0938  0.1219
  899DOPE   C3B10553   8.782  29.675  13.669 -0.1019  0.3165  0.2116
  899DOPE   C4B10554   8.492  29.690  13.324 -0.2748  0.1489  0.1089
  900POSM   NC310555   4.670  31.748  15.487  0.0244  0.0798  0.0644
  900POSM   PO410556   4.986  31.872  15.744  0.3881 -0.0296 -0.3428
  900POSM   AM110557   5.246  31.742  15.502  0.0135 -0.0382 -0.2142
  900POSM   AM210558   5.435  31.943  15.379  0.3139  0.1322 -0.3092
  900POSM   T1A10559   5.578  31.460  15.241  0.1869  0.2442 -0.1805
  900POSM   C2A10560   6.047  31.464  15.188  0.0475 -0.1884 -0.2472
  900POSM   C3A10561   6.449  31.200  15.252  0.2239 -0.0253 -0.2690
  900POSM   C1B10562   5.360  31.987  15.046 -0.1806  0.0305 -0.1057
  900POSM   D2B10563   5.325  31.894  14.629  0.0171  0.2011  0.4692
  900POSM   C3B10564   5.072  32.098  14.292  0.1875  0.1036  0.4510
  900POSM   C4B10565   4.766  32.393  14.107 -0.1674 -0.1613 -0.2262
  901DOPC   NC310566   7.573  24.175  15.651  0.4844  0.1533  0.2867
  901DOPC   PO410567   7.762  23.858  15.826  0.2991  0.1382  0.2400
  901DOPC   GL110568   7.703  23.721  15.500 -0.1494 -0.2513  0.0561
  901DOPC   GL210569   7.438  23.583  15.385 -0.0057 -0.1068 -0.0172
  901DOPC   C1A10570   7.751  23.913  15.092  0.1120  0.0517 -0.2027
  901DOPC   D2A10571   7.566  24.070  14.715  0.3029 -0.1931 -0.0931
  901DOPC   C3A10572   7.734  23.944  14.319 -0.0797 -0.1735 -0.0234
  901DOPC   C4A10573   7.708  23.945  13.839  0.1554  0.2604  0.1339
  901DOPC   C1B10574   7.453  23.236  15.088 -0.0062 -0.4702 -0.2090
  901DOPC   D2B10575   7.732  22.960  14.843 -0.1104  0.1741  0.2964
  901DOPC   C3B10576   8.210  23.009  14.672  0.1271  0.0793  0.0577
  901DOPC   C4B10577   8.454  23.176  14.269  0.1085  0.1168 -0.0869
  902POSM   NC310578   3.563  25.310  15.872  0.0057  0.0618  0.0861
  902POSM   PO410579   3.776  24.988  15.895 -0.1399 -0.0052 -0.0687
  902POSM   AM110580   3.843  25.090  15.616  0.2155 -0.3462 -0.0998
  902POSM   AM210581   3.702  25.230  15.391 -0.0388  0.1309 -0.0511
  902POSM   T1A10582   4.121  25.130  15.200  0.0338 -0.0765 -0.0510
  902POSM   C2A10583   4.252  25.374  14.878 -0.2585  0.2759 -0.2567
  902POSM   C3A10584   4.692  25.446  14.655  0.2176  0.1822 -0.3991
  902POSM   C1B10585   3.664  25.119  15.045  0.0491 -0.0059 -0.3231
  902POSM   D2B10586   3.819  24.983  14.645 -0.5197 -0.1294 -0.0881
  902POSM   C3B10587   3.769  24.499  14.694  0.0874  0.0018  0.0814
  902POSM   C4B10588   3.993  24.133  14.467  0.2795  0.0690  0.0570
  903POSM   NC310589   1.686  33.366  16.028 -0.2460 -0.0491 -0.0803
  903POSM   PO410590   1.401  33.606  16.224  0.2414  0.0578 -0.2348
  903POSM   AM110591   1.280  33.601  15.918  0.6033  0.0124 -0.0455
  903POSM   AM210592   1.270  33.400  15.688  0.0669 -0.0955 -0.0196
  903POSM   T1A10593   0.896  33.833  15.610  0.2163  0.2862 -0.0670
  903POSM   C2A10594   0.823  34.102  15.228 -0.2834 -0.0847 -0.1590
  903POSM   C3A10595   0.894  34.496  14.970  0.1444  0.0748 -0.2005
  903POSM   C1B10596   1.311  33.568  15.402 -0.0656 -0.0286 -0.2373
  903POSM   D2B10597   1.471  33.758  14.986  0.2807 -0.1132 -0.1382
  903POSM   C3B10598   1.367  33.837  14.526 -0.0027  0.0298 -0.0641
  903POSM   C4B10599   1.153  33.862  14.123  0.0646  0.3304 -0.0276
  904DOPS   CNO10600   5.359  30.621  15.585  0.4650 -0.0222  0.0611
  904DOPS   PO410601   5.605  30.326  15.667  0.2643 -0.1849 -0.1670
  904DOPS   GL110602   5.587  30.342  15.312  0.0662  0.4453 -0.1919
  904DOPS   GL210603   5.390  30.112  15.165  0.0468  0.0460  0.1848
  904DOPS   C1A10604   5.695  30.552  14.948  0.2698  0.2282  0.1546
  904DOPS   D2A10605   5.509  30.753  14.588  0.1550 -0.1209  0.1978
  904DOPS   C3A10606   5.675  30.478  14.196  0.0176 -0.0434 -0.0119
  904DOPS   C4A10607   5.831  30.070  14.083 -0.0163 -0.0172 -0.1398
  904DOPS   C1B10608   5.345  30.281  14.726 -0.2452 -0.3206  0.1711
  904DOPS   D2B10609   5.273  30.193  14.258 -0.2855  0.3273 -0.0662
  904DOPS   C3B10610   5.178  29.971  13.849 -0.0457  0.0199  0.0451
  904DOPS   C4B10611   5.224  29.855  13.375 -0.2463 -0.1698  0.0279
  905DOPC   NC310612   3.829  31.699  15.598  0.1882 -0.2625 -0.1694
  905DOPC   PO410613   3.636  32.061  15.633  0.3662  0.1098 -0.0258
  905DOPC   GL110614   3.311  32.060  15.370  0.2361 -0.3221  0.1416
  905DOPC   GL210615   3.083  31.950  15.366 -0.2455  0.1494  0.1271
  905DOPC   C1A10616   3.079  32.397  15.200  0.2431 -0.3551  0.1425
  905DOPC   D2A10617   2.774  32.742  15.087  0.2023 -0.0875 -0.0244
  905DOPC   C3A10618   2.607  33.143  14.785  0.2617  0.2281  0.0526
  905DOPC   C4A10619   2.561  33.336  14.389 -0.3330 -0.0217 -0.2319
  905DOPC   C1B10620   3.337  31.723  15.017  0.3757  0.0050  0.2235
  905DOPC   D2B10621   3.412  31.356  14.727 -0.0223 -0.1093  0.1533
  905DOPC   C3B10622   3.318  31.357  14.260 -0.2770 -0.0189 -0.0564
  905DOPC   C4B10623   3.232  31.044  13.970  0.0331 -0.1405  0.2862
  906DOPE   NH310624   3.512  30.832  16.126  0.0138  0.3658  0.2629
  906DOPE   PO410625   3.834  30.931  16.148  0.2206  0.3136 -0.0042
  906DOPE   GL110626   4.147  31.067  15.967 -0.0888 -0.4006  0.0975
  906DOPE   GL210627   4.421  31.163  16.054 -0.3412 -0.0901  0.0148
  906DOPE   C1A10628   4.089  31.219  15.537 -0.1400 -0.1251 -0.1610
  906DOPE   D2A10629   3.779  31.029  15.228  0.0512  0.0584  0.1333
  906DOPE   C3A10630   3.737  30.830  14.816 -0.1108 -0.1492 -0.1114
  906DOPE   C4A10631   3.600  30.955  14.412  0.0112  0.0763  0.3770
  906DOPE   C1B10632   4.678  30.919  15.764  0.1888  0.0837 -0.3517
  906DOPE   D2B10633   4.944  30.902  15.364 -0.0830  0.0328  0.0169
  906DOPE   C3B10634   4.854  31.081  14.936 -0.2242  0.2568  0.1574
  906DOPE   C4B10635   4.593  31.101  14.565 -0.0981  0.0208  0.3705
  907DOPE   NH310636   5.601  24.296  16.023  0.3462  0.1268  0.3945
  907DOPE   PO410637   5.268  24.283  16.111 -0.0332 -0.0804 -0.1975
  907DOPE   GL110638   5.109  24.334  15.763  0.0419 -0.0272 -0.1431
  907DOPE   GL210639   5.275  24.168  15.599 -0.0196 -0.0246  0.3515
  907DOPE   C1A10640   5.024  24.706  15.396  0.0631 -0.0144  0.0741
  907DOPE   D2A10641   4.930  24.893  14.939 -0.0261 -0.2429 -0.2620
  907DOPE   C3A10642   4.874  24.836  14.492  0.1789  0.2639  0.0060
  907DOPE   C4A10643   5.146  24.760  14.136 -0.1376  0.0198  0.2801
  907DOPE   C1B10644   5.177  24.234  15.148  0.1200  0.0010 -0.1525
  907DOPE   D2B10645   5.135  24.465  14.777  0.0609 -0.0971 -0.0748
  907DOPE   C3B10646   5.378  24.865  14.684  0.1220  0.1095  0.0192
  907DOPE   C4B10647   5.655  25.128  14.455  0.1258  0.2571  0.1147
  908DOPC   NC310648   6.405  26.934  15.885  0.2560 -0.1632 -0.2107
  908DOPC   PO410649   6.565  26.563  15.992  0.2263  0.0500 -0.2276
  908DOPC   GL110650   6.500  26.548  15.607  0.1698 -0.0324 -0.0113
  908DOPC   GL210651   6.643  26.791  15.434 -0.1757 -0.0026  0.1120
  908DOPC   C1A10652   6.642  26.248  15.278 -0.1450 -0.0926  0.3801
  908DOPC   D2A10653   6.876  26.251  14.844 -0.0257  0.1085  0.0239
  908DOPC   C3A10654   6.929  26.308  14.370 -0.0790 -0.3507  0.1389
  908DOPC   C4A10655   6.740  26.426  13.980 -0.1110 -0.1016  0.0070
  908DOPC   C1B10656   6.622  27.143  15.101 -0.0066  0.3869 -0.0629
  908DOPC   D2B10657   6.668  27.610  14.994 -0.0586  0.0524  0.1927
  908DOPC   C3B10658   6.590  27.588  14.533  0.1510  0.3166  0.4785
  908DOPC   C4B10659   6.450  27.328  14.153  0.2273  0.2733  0.1123
  909POSM   NC310660   7.974  31.790  15.144  0.1095 -0.1717  0.1552
  909POSM   PO410661   7.620  31.962  15.180 -0.2910  0.3119  0.1925
  909POSM   AM110662   7.591  31.947  14.886 -0.0880 -0.1993  0.1254
  909POSM   AM210663   7.814  31.918  14.685 -0.0158  0.2315  0.2463
  909POSM   T1A10664   7.365  31.974  14.451  0.2476 -0.2000  0.3586
  909POSM   C2A10665   7.158  31.865  14.052  0.2475  0.0040  0.0566
  909POSM   C3A10666   6.933  31.705  13.647  0.1691 -0.1186  0.0083
  909POSM   C1B10667   7.854  31.961  14.360 -0.0597  0.0690  0.1090
  909POSM   D2B10668   7.691  31.992  13.923  0.0196  0.2247 -0.1088
  909POSM   C3B10669   7.455  31.655  13.738  0.1052 -0.2756 -0.1481
  909POSM   C4B10670   7.237  31.309  13.532 -0.2597 -0.1674 -0.1706
  910POSM   NC310671   3.068  33.677  15.402 -0.0736  0.3029 -0.1021
  910POSM   PO410672   2.806  33.727  15.679 -0.1643 -0.3201  0.3595
  910POSM   AM110673   2.517  33.768  15.549  0.0658  0.2308 -0.0119
  910POSM   AM210674   2.382  33.571  15.415 -0.0309 -0.1027 -0.2089
  910POSM   T1A10675   2.288  34.011  15.180  0.0640 -0.2546  0.1480
  910POSM   C2A10676   2.318  34.317  14.838  0.1044 -0.2500  0.0250
  910POSM   C3A10677   2.157  34.375  14.386 -0.0054  0.0411 -0.0211
  910POSM   C1B10678   2.357  33.398  15.168  0.0382  0.1874 -0.0978
  910POSM   D2B10679   2.121  33.224  14.837 -0.0399  0.1598  0.0050
  910POSM   C3B10680   2.051  33.293  14.427  0.0032 -0.0489 -0.2325
  910POSM   C4B10681   2.017  32.993  14.114 -0.2388 -0.1609 -0.3375
  911DOPC   NC310682   9.059  33.517  14.395 -0.3031  0.1055  0.2316
  911DOPC   PO410683   8.872  33.160  14.485  0.3654 -0.0071 -0.0483
  911DOPC   GL110684   8.542  33.360  14.342  0.0952  0.3419 -0.1764
  911DOPC   GL210685   8.425  33.641  14.352  0.3758  0.2290 -0.1911
  911DOPC   C1A10686   8.287  33.238  13.931 -0.2656 -0.2278  0.0090
  911DOPC   D2A10687   8.162  33.420  13.554 -0.0109 -0.0904 -0.0843
  911DOPC   C3A10688   8.357  33.171  13.266  0.2249 -0.2216  0.1071
  911DOPC   C4A10689   8.398  33.033  12.823 -0.1359  0.3804 -0.2091
  911DOPC   C1B10690   8.220  33.865  13.986  0.0632 -0.1133  0.4035
  911DOPC   D2B10691   8.094  33.906  13.549 -0.2714  0.1990  0.0080
  911DOPC   C3B10692   8.020  34.317  13.316 -0.1904 -0.3662 -0.0373
  911DOPC   C4B10693   8.113  34.808  13.297  0.1174  0.1674 -0.2593
  912DOPS   CNO10694   4.210  29.773  16.221 -0.3115  0.0095  0.0243
  912DOPS   PO410695   4.572  29.869  16.135  0.1654 -0.1040  0.1569
  912DOPS   GL110696   4.474  29.988  15.818 -0.2389  0.2236 -0.1182
  912DOPS   GL210697   4.189  29.790  15.748  0.4460  0.2173  0.0963
  912DOPS   C1A10698   4.696  30.211  15.449 -0.4338 -0.1345 -0.1599
  912DOPS   D2A10699   5.020  30.419  15.208  0.2389 -0.0120  0.0112
  912DOPS   C3A10700   4.944  30.588  14.777 -0.0333 -0.3220  0.2018
  912DOPS   C4A10701   4.998  30.703  14.352 -0.2449  0.0921  0.1372
  912DOPS   C1B10702   4.303  29.939  15.347 -0.1040  0.1199  0.1002
  912DOPS   D2B10703   4.211  29.791  14.915  0.2595 -0.1060 -0.1345
  912DOPS   C3B10704   3.777  29.982  14.794  0.1938  0.0508  0.1263
  912DOPS   C4B10705   3.324  29.923  14.602  0.1403  0.3312  0.1515
  913DOPE   NH310706  10.838  29.015  15.575  0.1357 -0.1026 -0.0983
  913DOPE   PO410707  10.551  28.972  15.422 -0.0963 -0.2397  0.1462
  913DOPE   GL110708  10.353  28.737  15.113  0.3340 -0.0055  0.2799
  913DOPE   GL210709  10.033  28.744  15.107  0.1005 -0.0951  0.4692
  913DOPE   C1A10710  10.528  28.615  14.667  0.2807  0.1224  0.1098
  913DOPE   D2A10711  10.655  28.538  14.227  0.1097 -0.1067 -0.2518
  913DOPE   C3A10712  10.424  28.709  13.840 -0.0167  0.1543  0.1604
  913DOPE   C4A10713  10.154  28.736  13.463  0.0484 -0.1828  0.1672
  913DOPE   C1B10714  10.087  28.822  14.667 -0.1777  0.2924  0.0412
  913DOPE   D2B10715  10.209  28.710  14.251  0.1753  0.1716  0.0810
  913DOPE   C3B10716   9.918  28.563  13.945 -0.1123 -0.1481 -0.1234
  913DOPE   C4B10717   9.449  28.627  13.899 -0.0652 -0.4037  0.1263
  914DOPS   CNO10718   4.985  32.330  16.053 -0.0380  0.2881 -0.0871
  914DOPS   PO410719   5.168  32.367  15.711  0.0424 -0.0363  0.1522
  914DOPS   GL110720   5.011  32.498  15.381 -0.3119 -0.0266 -0.0535
  914DOPS   GL210721   4.965  32.172  15.296 -0.1896 -0.2696  0.1551
  914DOPS   C1A10722   4.862  32.756  14.996  0.1492  0.0889  0.0048
  914DOPS   D2A10723   4.697  32.650  14.581 -0.0063  0.1692  0.1324
  914DOPS   C3A10724   4.589  32.873  14.186 -0.0131 -0.1123 -0.1909
  914DOPS   C4A10725   4.429  32.690  13.797  0.2597  0.4148 -0.2328
  914DOPS   C1B10726   4.979  32.218  14.863 -0.2366  0.0934  0.0180
  914DOPS   D2B10727   4.670  32.148  14.559  0.6043 -0.4234 -0.2509
  914DOPS   C3B10728   4.608  31.891  14.186 -0.0056 -0.1890 -0.1598
  914DOPS   C4B10729   4.315  31.662  13.878  0.4082 -0.1141  0.1673
  915DOPS   CNO10730   2.758  24.413  15.907 -0.3336  0.1513 -0.4628
  915DOPS   PO410731   2.656  24.631  15.629  0.2080 -0.1015 -0.0028
  915DOPS   GL110732   2.352  24.527  15.351  0.1669  0.3010 -0.2051
  915DOPS   GL210733   2.326  24.769  15.156  0.5831  0.1198  0.0532
  915DOPS   C1A10734   1.912  24.409  15.158  0.0197 -0.0337  0.1938
  915DOPS   D2A10735   1.488  24.525  15.005  0.0761 -0.3352 -0.0792
  915DOPS   C3A10736   1.315  24.250  14.694  0.2537 -0.1758 -0.1150
  915DOPS   C4A10737   0.896  24.099  14.487  0.1213 -0.2526 -0.0447
  915DOPS   C1B10738   2.684  24.659  14.995 -0.2486 -0.3418 -0.1511
  915DOPS   D2B10739   2.883  24.886  14.610 -0.2878 -0.1561 -0.0160
  915DOPS   C3B10740   3.380  24.805  14.552 -0.0348 -0.1095  0.0013
  915DOPS   C4B10741   3.633  24.612  14.225  0.0578  0.1540  0.0152
  916POSM   NC310742   1.564  30.166  16.165  0.1229  0.2037  0.3199
  916POSM   PO410743   1.733  30.465  15.968 -0.0350 -0.0720 -0.1755
  916POSM   AM110744   1.775  30.692  15.739  0.2436  0.0690 -0.2873
  916POSM   AM210745   1.863  30.940  15.688 -0.0968  0.1595  0.1544
  916POSM   T1A10746   1.954  30.627  15.305  0.0875  0.0146  0.0871
  916POSM   C2A10747   2.082  30.852  14.957  0.2754 -0.0153  0.0553
  916POSM   C3A10748   2.478  31.096  14.804 -0.1306  0.0187  0.1232
  916POSM   C1B10749   1.699  31.062  15.418 -0.0485 -0.0145 -0.1266
  916POSM   D2B10750   1.502  31.083  14.966 -0.0631 -0.0438 -0.0775
  916POSM   C3B10751   1.688  31.050  14.534  0.1609  0.0259  0.0609
  916POSM   C4B10752   2.099  31.106  14.370 -0.3660 -0.0713 -0.1244
  917POSM   NC310753   9.041  29.119  15.276  0.0645  0.0337  0.3249
  917POSM   PO410754   8.698  28.973  15.145  0.0798  0.4111 -0.4931
  917POSM   AM110755   8.681  29.154  14.871  0.0551 -0.0725  0.0076
  917POSM   AM210756   8.830  29.376  14.852 -0.0976 -0.2853  0.2979
  917POSM   T1A10757   8.678  29.268  14.356  0.2632 -0.2847 -0.1394
  917POSM   C2A10758   8.617  29.275  13.927 -0.0798  0.1888  0.0339
  917POSM   C3A10759   8.293  29.388  13.630 -0.4136 -0.0356 -0.2075
  917POSM   C1B10760   9.078  29.272  14.658 -0.0396 -0.0494  0.0843
  917POSM   D2B10761   9.159  28.986  14.269 -0.3168 -0.1136 -0.0096
  917POSM   C3B10762   9.116  29.007  13.785  0.2447  0.2315 -0.0352
  917POSM   C4B10763   8.798  28.760  13.598 -0.1396  0.1037  0.0033
  918DOPC   NC310764   3.298  25.575  15.479 -0.1935 -0.3979  0.2016
  918DOPC   PO410765   2.947  25.732  15.524  0.3785 -0.0477 -0.2789
  918DOPC   GL110766   2.796  25.583  15.171 -0.2366  0.4418 -0.0099
  918DOPC   GL210767   2.968  25.670  15.052  0.3135  0.2927  0.1229
  918DOPC   C1A10768   2.635  25.186  14.998 -0.0062  0.1511 -0.3786
  918DOPC   D2A10769   2.352  24.976  14.658 -0.0295  0.0096 -0.3321
  918DOPC   C3A10770   2.574  25.209  14.283 -0.1353 -0.1981 -0.0058
  918DOPC   C4A10771   2.610  25.180  13.848  0.1489 -0.0825  0.1876
  918DOPC   C1B10772   2.883  25.540  14.619 -0.1626 -0.0503 -0.1086
  918DOPC   D2B10773   3.102  25.505  14.231  0.0367 -0.3145 -0.1929
  918DOPC   C3B10774   2.915  25.522  13.772 -0.5773  0.1571 -0.1119
  918DOPC   C4B10775   2.707  25.379  13.375 -0.3814 -0.1968  0.1536
  919POSM   NC310776   5.191  34.444  16.265  0.0805 -0.0811  0.0025
  919POSM   PO410777   4.948  34.232  16.050  0.1603  0.1139  0.1570
  919POSM   AM110778   5.100  34.250  15.745  0.0885  0.0056 -0.2592
  919POSM   AM210779   5.180  34.048  15.578  0.1795  0.2708 -0.0793
  919POSM   T1A10780   4.983  34.412  15.298 -0.0576 -0.3240  0.0615
  919POSM   C2A10781   5.228  34.328  14.878 -0.3950 -0.4269  0.1671
  919POSM   C3A10782   5.291  34.377  14.427  0.0626  0.2074 -0.0911
  919POSM   C1B10783   5.419  34.131  15.302  0.1016  0.1181 -0.1564
  919POSM   D2B10784   5.715  33.970  15.010  0.1441 -0.1307 -0.0626
  919POSM   C3B10785   5.996  34.149  14.765  0.0233  0.0134 -0.1071
  919POSM   C4B10786   6.132  34.555  14.781  0.0693  0.2436  0.0896
  920DOPC   NC310787   6.948  30.255  15.310 -0.0009  0.3191  0.3448
  920DOPC   PO410788   7.018  29.892  15.445  0.0516 -0.0079  0.4177
  920DOPC   GL110789   7.102  29.891  15.029  0.0047  0.0858 -0.0439
  920DOPC   GL210790   7.294  29.899  14.836  0.0024 -0.1080  0.1971
  920DOPC   C1A10791   6.847  29.659  14.741  0.2312 -0.0057 -0.1525
  920DOPC   D2A10792   6.575  29.530  14.378 -0.0617  0.0073  0.0794
  920DOPC   C3A10793   6.611  29.266  13.988 -0.0168 -0.2034  0.1564
  920DOPC   C4A10794   6.440  29.037  13.613 -0.0098 -0.1993 -0.1468
  920DOPC   C1B10795   7.456  29.935  14.351  0.1144  0.0929 -0.0612
  920DOPC   D2B10796   7.457  29.737  13.988 -0.0541  0.3064  0.3959
  920DOPC   C3B10797   7.574  29.800  13.554 -0.2215  0.4201  0.2684
  920DOPC   C4B10798   7.618  30.203  13.389  0.4140  0.0346 -0.0923
  921POSM   NC310799   7.889  28.951  15.318 -0.1300  0.2080 -0.0277
  921POSM   PO410800   7.696  29.305  15.406  0.1012  0.0709  0.2059
  921POSM   AM110801   7.615  29.262  15.046  0.1150  0.2002  0.2677
  921POSM   AM210802   7.529  29.476  14.862  0.0026 -0.0359  0.1520
  921POSM   T1A10803   7.574  29.042  14.577  0.2179  0.3700 -0.3138
  921POSM   C2A10804   7.639  28.965  14.144 -0.2389 -0.0392  0.0825
  921POSM   C3A10805   7.448  28.933  13.753  0.3589 -0.0095 -0.2270
  921POSM   C1B10806   7.369  29.487  14.583  0.1517  0.2625 -0.1451
  921POSM   D2B10807   7.024  29.738  14.293 -0.0075 -0.3580  0.0119
  921POSM   C3B10808   6.955  30.159  14.187 -0.0287 -0.0120  0.1555
  921POSM   C4B10809   6.701  30.477  13.970  0.1129  0.0813  0.1287
  922POSM   NC310810   8.302  25.519  15.621 -0.0261  0.0279 -0.0405
  922POSM   PO410811   8.459  25.224  15.781  0.0293 -0.2510  0.0604
  922POSM   AM110812   8.381  24.981  15.578  0.1513 -0.0880 -0.4598
  922POSM   AM210813   8.202  24.749  15.472  0.2111  0.0429  0.0841
  922POSM   T1A10814   8.559  24.740  15.207 -0.3753 -0.0164  0.1367
  922POSM   C2A10815   8.696  24.625  14.807 -0.0462 -0.1667 -0.1789
  922POSM   C3A10816   8.867  24.657  14.390 -0.0651 -0.2242  0.0306
  922POSM   C1B10817   8.033  24.798  15.150 -0.1542  0.0921 -0.0682
  922POSM   D2B10818   8.017  24.898  14.714  0.1575  0.1358  0.0254
  922POSM   C3B10819   8.310  24.915  14.305 -0.0688  0.3566 -0.2266
  922POSM   C4B10820   8.439  24.666  13.951 -0.0888 -0.0429 -0.1047
  923DOPC   NC310821   2.104  26.691  16.242 -0.1966 -0.0778  0.0724
  923DOPC   PO410822   2.267  26.375  16.042 -0.1087 -0.3171  0.0896
  923DOPC   GL110823   2.193  26.605  15.724  0.1558  0.0801 -0.0062
  923DOPC   GL210824   1.970  26.392  15.616 -0.0440  0.0051  0.1268
  923DOPC   C1A10825   2.245  26.821  15.338 -0.1856 -0.0625 -0.1054
  923DOPC   D2A10826   2.133  27.077  14.991 -0.0704  0.2367 -0.1174
  923DOPC   C3A10827   2.197  26.972  14.580 -0.2104  0.2631  0.1019
  923DOPC   C4A10828   2.530  26.700  14.421 -0.0197 -0.0095  0.1468
  923DOPC   C1B10829   1.838  26.382  15.185 -0.0486 -0.2490  0.1037
  923DOPC   D2B10830   1.863  26.598  14.795  0.1621 -0.1712  0.2450
  923DOPC   C3B10831   1.567  26.513  14.429 -0.1209 -0.0349  0.4488
  923DOPC   C4B10832   1.259  26.538  14.113 -0.0093  0.0162  0.1203
  924DOPE   NH310833   2.402  25.541  15.497  0.2585  0.0159 -0.3379
  924DOPE   PO410834   2.337  25.886  15.485  0.0121 -0.2146  0.1723
  924DOPE   GL110835   2.328  25.893  15.087 -0.2359  0.0398  0.0357
  924DOPE   GL210836   2.380  25.603  15.014 -0.1637  0.0488  0.0468
  924DOPE   C1A10837   2.610  25.971  14.741  0.0589 -0.3411  0.0589
  924DOPE   D2A10838   2.980  26.097  14.468  0.1954  0.0222 -0.2549
  924DOPE   C3A10839   2.896  26.160  13.998  0.0677 -0.4009  0.2565
  924DOPE   C4A10840   2.749  26.073  13.441  0.2374 -0.3059 -0.2759
  924DOPE   C1B10841   2.377  25.562  14.559 -0.0217 -0.0264 -0.0231
  924DOPE   D2B10842   2.637  25.728  14.216  0.2569  0.0251 -0.1815
  924DOPE   C3B10843   2.503  25.760  13.743 -0.2346  0.3000  0.3549
  924DOPE   C4B10844   2.337  25.840  13.341 -0.0318 -0.4404  0.0195
  925DOPC   NC310845   0.596  27.550  15.620  0.0516  0.0829  0.1245
  925DOPC   PO410846   0.862  27.463  15.926  0.0678 -0.0474 -0.0311
  925DOPC   GL110847   1.199  27.500  15.727  0.3915  0.0328 -0.1553
  925DOPC   GL210848   1.376  27.334  15.723  0.2270 -0.0493  0.2128
  925DOPC   C1A10849   1.109  27.807  15.398  0.1561  0.0163  0.0993
  925DOPC   D2A10850   1.348  27.930  15.011 -0.0357  0.1322 -0.0736
  925DOPC   C3A10851   1.199  27.775  14.585  0.0765 -0.1319 -0.0814
  925DOPC   C4A10852   1.329  27.719  14.128  0.0214 -0.1137  0.2833
  925DOPC   C1B10853   1.272  27.360  15.251 -0.2957  0.3967  0.0685
  925DOPC   D2B10854   1.344  27.326  14.818 -0.0369 -0.2815  0.1324
  925DOPC   C3B10855   1.563  27.462  14.450 -0.1675  0.1116 -0.1554
  925DOPC   C4B10856   1.873  27.259  14.202  0.1854  0.0689  0.3313
  926POSM   NC310857   8.809  31.168  15.071 -0.0637 -0.2558  0.4428
  926POSM   PO410858   9.155  31.136  15.239  0.1410  0.0487 -0.1686
  926POSM   AM110859   9.316  31.252  14.930 -0.1474  0.1344 -0.1884
  926POSM   AM210860   9.191  31.360  14.734  0.2345 -0.0506  0.3856
  926POSM   T1A10861   9.641  31.189  14.542  0.1291 -0.1782  0.0106
  926POSM   C2A10862   9.869  31.277  14.171 -0.1726  0.0020  0.2634
  926POSM   C3A10863  10.327  31.159  14.153  0.0020 -0.0263 -0.2751
  926POSM   C1B10864   9.093  31.257  14.409 -0.0314 -0.0657  0.1429
  926POSM   D2B10865   8.924  31.227  13.990 -0.3638 -0.1130  0.1142
  926POSM   C3B10866   9.043  30.892  13.711  0.1190 -0.1975 -0.0499
  926POSM   C4B10867   9.269  30.598  13.467  0.1608 -0.0031  0.0396
  927POSM   NC310868   0.458  33.537  16.335  0.0445 -0.2253 -0.2226
  927POSM   PO410869   0.620  33.187  16.286 -0.1276  0.3713  0.2234
  927POSM   AM110870   0.614  33.276  15.985 -0.0952 -0.1519  0.2122
  927POSM   AM210871   0.740  33.402  15.784  0.2874  0.5061 -0.0749
  927POSM   T1A10872   0.385  33.136  15.572  0.1317 -0.1264  0.0032
  927POSM   C2A10873   0.552  33.118  15.108 -0.2078 -0.1541 -0.1115
  927POSM   C3A10874   0.784  33.133  14.701 -0.0166 -0.0366 -0.1414
  927POSM   C1B10875   0.850  33.367  15.443  0.0357 -0.0286  0.0833
  927POSM   D2B10876   1.160  33.238  15.057  0.1344  0.1678 -0.1064
  927POSM   C3B10877   1.374  32.915  14.789  0.0206  0.0083  0.1031
  927POSM   C4B10878   1.599  32.964  14.440  0.2926 -0.4169 -0.2351
  928POSM   NC310879   2.876  29.209  15.965  0.2507 -0.1129  0.1660
  928POSM   PO410880   3.125  28.983  15.724 -0.2381 -0.0498 -0.1873
  928POSM   AM110881   3.093  28.932  15.418 -0.1447  0.0907 -0.1993
  928POSM   AM210882   2.961  29.097  15.229 -0.2106  0.1184  0.0298
  928POSM   T1A10883   3.386  28.975  15.025  0.1765  0.1227 -0.2468
  928POSM   C2A10884   3.617  28.843  14.661  0.0531 -0.1311  0.3180
  928POSM   C3A10885   3.741  28.698  14.194 -0.2367 -0.1161 -0.2290
  928POSM   C1B10886   2.933  29.293  15.004  0.1149 -0.0470 -0.2357
  928POSM   D2B10887   2.725  29.365  14.577 -0.1171 -0.0213 -0.0672
  928POSM   C3B10888   2.295  29.345  14.489 -0.1519  0.1166  0.0257
  928POSM   C4B10889   1.900  29.220  14.336 -0.1935 -0.1175  0.1319
  929POSM   NC310890   2.750  34.639  15.801 -0.1687 -0.3853  0.1019
  929POSM   PO410891   3.083  34.486  15.920 -0.0796  0.3077  0.2048
  929POSM   AM110892   3.150  34.531  15.605 -0.2596  0.1853 -0.0668
  929POSM   AM210893   3.308  34.736  15.467 -0.0057  0.1313 -0.3856
  929POSM   T1A10894   2.835  34.652  15.200 -0.1673  0.1485  0.1711
  929POSM   C2A10895   2.696  34.705  14.818 -0.1889  0.2207  0.1221
  929POSM   C3A10896   2.938  34.532  14.423 -0.0992  0.0556 -0.0088
  929POSM   C1B10897   3.418  34.760  15.160 -0.0113  0.0360 -0.2872
  929POSM   D2B10898   3.622  34.561  14.834 -0.3032  0.3409 -0.0375
  929POSM   C3B10899   3.698  34.344  14.421 -0.1175  0.0809  0.0123
  929POSM   C4B10900   3.586  34.132  13.965 -0.0459  0.1813  0.0036
  930DOPC   NC310901  11.145  30.998  14.822  0.3972  0.2743 -0.2206
  930DOPC   PO410902  10.949  31.182  15.085 -0.0168  0.0482  0.0913
  930DOPC   GL110903  10.702  30.964  14.714  0.5209  0.0506 -0.2930
  930DOPC   GL210904  10.762  30.675  14.679 -0.1016  0.1013  0.0071
  930DOPC   C1A10905  10.926  31.053  14.285 -0.1601 -0.1386 -0.1072
  930DOPC   D2A10906  11.121  30.775  13.994  0.1379 -0.0516 -0.0729
  930DOPC   C3A10907  10.781  30.694  13.635  0.2549  0.0403 -0.0842
  930DOPC   C4A10908  10.422  30.419  13.542  0.0713 -0.1753 -0.3121
  930DOPC   C1B10909  11.192  30.639  14.473  0.0088  0.1407  0.2510
  930DOPC   D2B10910  11.548  30.822  14.176 -0.1033 -0.0378  0.2131
  930DOPC   C3B10911  11.558  30.757  13.726 -0.4931  0.0553 -0.0834
  930DOPC   C4B10912  11.797  30.957  13.356 -0.1091 -0.1937  0.2731
  931POSM   NC310913  10.506  31.615  15.334  0.0462  0.0824  0.0589
  931POSM   PO410914  10.141  31.498  15.303  0.1855 -0.0304  0.0505
  931POSM   AM110915  10.256  31.333  15.006  0.2289  0.2404 -0.0128
  931POSM   AM210916  10.439  31.385  14.798 -0.0384 -0.0067  0.0316
  931POSM   T1A10917  10.153  31.029  14.635 -0.2015 -0.1718 -0.3981
  931POSM   C2A10918  10.309  30.695  14.395  0.0762  0.2774  0.0470
  931POSM   C3A10919  10.694  30.523  14.217 -0.2251 -0.0477 -0.2444
  931POSM   C1B10920  10.567  31.438  14.541 -0.0617  0.1258  0.1991
  931POSM   D2B10921  10.857  31.543  14.176 -0.0055 -0.2149 -0.2141
  931POSM   C3B10922  10.926  31.208  13.825 -0.0910 -0.0833  0.1869
  931POSM   C4B10923  11.145  31.056  13.462  0.1562 -0.0029  0.1679
  932DOPS   CNO10924   4.484  29.445  15.947 -0.1760 -0.4196  0.0343
  932DOPS   PO410925   4.701  29.124  15.915  0.3259  0.1680  0.0176
  932DOPS   GL110926   4.550  29.285  15.572  0.4490 -0.0555 -0.0991
  932DOPS   GL210927   4.584  29.152  15.289 -0.3085  0.1842  0.1777
  932DOPS   C1A10928   4.730  29.654  15.384  0.1106  0.2766 -0.0347
  932DOPS   D2A10929   4.895  29.957  15.022 -0.0968  0.1289  0.0176
  932DOPS   C3A10930   4.858  30.052  14.550 -0.2374  0.0766 -0.0932
  932DOPS   C4A10931   4.906  29.774  14.218  0.2384  0.0862 -0.1996
  932DOPS   C1B10932   4.607  29.435  14.904  0.1112 -0.0508  0.0890
  932DOPS   D2B10933   4.590  29.617  14.484  0.0334  0.1219 -0.1635
  932DOPS   C3B10934   4.580  29.339  14.149  0.1993 -0.2342 -0.1084
  932DOPS   C4B10935   4.713  29.171  13.699 -0.2636 -0.0095 -0.1546
  933DOPS   CNO10936   0.075  29.862  16.324 -0.1335  0.1864 -0.0324
  933DOPS   PO410937   0.173  30.071  16.005 -0.1354  0.0180 -0.0619
  933DOPS   GL110938   0.152  30.369  15.775  0.3571  0.1453  0.2501
  933DOPS   GL210939  -0.102  30.330  15.620  0.1711 -0.0360  0.0054
  933DOPS   C1A10940   0.286  30.475  15.335  0.2160  0.2753 -0.0822
  933DOPS   D2A10941   0.661  30.395  15.115 -0.0684  0.0203  0.1850
  933DOPS   C3A10942   0.787  30.000  14.834  0.1006 -0.0027 -0.0430
  933DOPS   C4A10943   1.220  29.870  14.711  0.0410  0.2697  0.0505
  933DOPS   C1B10944  -0.131  30.268  15.125 -0.0175 -0.3055 -0.0739
  933DOPS   D2B10945  -0.262  30.369  14.725 -0.4127  0.1607 -0.0458
  933DOPS   C3B10946  -0.356  30.726  14.520 -0.4108 -0.4007  0.0420
  933DOPS   C4B10947  -0.577  31.079  14.594  0.0289  0.0891  0.3691
  934DOPS   CNO10948   6.258  30.960  16.115  0.1172 -0.0314  0.1268
  934DOPS   PO410949   6.310  30.643  15.953  0.1928 -0.0258 -0.2380
  934DOPS   GL110950   6.167  30.764  15.539 -0.1918  0.0014 -0.4892
  934DOPS   GL210951   6.229  30.658  15.320 -0.1490  0.3845  0.3849
  934DOPS   C1A10952   5.801  30.898  15.314  0.0814 -0.1770  0.0702
  934DOPS   D2A10953   5.385  30.950  15.103  0.2833  0.0298 -0.1034
  934DOPS   C3A10954   5.310  31.302  14.804 -0.0608  0.3273  0.0427
  934DOPS   C4A10955   5.484  31.428  14.334 -0.0730 -0.0837 -0.1141
  934DOPS   C1B10956   6.210  30.774  14.843  0.1833 -0.3275  0.2147
  934DOPS   D2B10957   6.026  30.732  14.457  0.0027 -0.0439  0.0092
  934DOPS   C3B10958   5.821  31.066  14.193 -0.1928 -0.0776 -0.3678
  934DOPS   C4B10959   5.933  31.287  13.814 -0.4610  0.0282  0.2220
  935POSM   NC310960   8.302  26.152  16.229  0.1765  0.0553  0.2783
  935POSM   PO410961   7.955  26.292  16.048 -0.1337  0.2188 -0.1133
  935POSM   AM110962   7.742  26.328  15.830  0.0579  0.0222  0.0203
  935POSM   AM210963   7.736  26.229  15.566 -0.0517 -0.1856  0.2751
  935POSM   T1A10964   7.773  26.744  15.541 -0.0286  0.2651 -0.2619
  935POSM   C2A10965   7.713  26.951  15.164  0.1173  0.1082  0.0626
  935POSM   C3A10966   7.281  27.205  15.004  0.1468 -0.0666  0.0238
  935POSM   C1B10967   7.933  26.303  15.310  0.2414 -0.0322  0.0952
  935POSM   D2B10968   8.011  26.595  14.894 -0.2216  0.0519  0.2950
  935POSM   C3B10969   7.591  26.693  14.712  0.0573  0.0582 -0.2876
  935POSM   C4B10970   7.457  27.059  14.537  0.1671 -0.0551 -0.0402
  936DOPE   NH310971   8.194  34.313  15.472 -0.3957 -0.3908 -0.1363
  936DOPE   PO410972   8.225  34.609  15.344 -0.4327  0.2197  0.0805
  936DOPE   GL110973   7.972  34.554  15.069 -0.0290  0.0896  0.1137
  936DOPE   GL210974   7.968  34.252  14.978 -0.0617  0.2926  0.0956
  936DOPE   C1A10975   7.908  34.724  14.638  0.0723  0.1171 -0.0503
  936DOPE   D2A10976   8.220  34.872  14.288  0.0838  0.0490  0.3638
  936DOPE   C3A10977   8.229  34.812  13.787  0.0934  0.1125 -0.0630
  936DOPE   C4A10978   8.566  34.909  13.544 -0.0734  0.0897  0.0880
  936DOPE   C1B10979   7.637  34.311  14.638  0.1356 -0.3098 -0.0413
  936DOPE   D2B10980   7.422  34.453  14.259  0.0030 -0.2537 -0.1854
  936DOPE   C3B10981   7.258  34.324  13.818  0.3479 -0.2657 -0.3493
  936DOPE   C4B10982   7.016  34.720  13.493 -0.6196 -0.0652 -0.1074
  937POSM   NC310983   4.618  24.212  16.575  0.1899  0.2453 -0.2103
  937POSM   PO410984   4.629  23.845  16.479 -0.0701 -0.0413 -0.0976
  937POSM   AM110985   4.726  23.789  16.199  0.3700  0.2575  0.0710
  937POSM   AM210986   4.916  23.686  16.034 -0.1444 -0.0507 -0.0165
  937POSM   T1A10987   4.543  23.670  15.736  0.0790 -0.2962 -0.1377
  937POSM   C2A10988   4.389  23.278  15.559 -0.2154 -0.1478  0.0739
  937POSM   C3A10989   4.606  22.979  15.335  0.1760 -0.3211 -0.0616
  937POSM   C1B10990   4.986  23.795  15.726 -0.1183  0.0184  0.2536
  937POSM   D2B10991   4.782  24.020  15.399 -0.3047  0.0463 -0.1416
  937POSM   C3B10992   4.871  23.882  14.951  0.0596  0.1475  0.0055
  937POSM   C4B10993   4.620  23.969  14.552  0.1243  0.2891  0.0425
  938DOPS   CNO10994   7.892  30.370  15.051  0.0628  0.2366 -0.2203
  938DOPS   PO410995   7.504  30.264  15.118  0.1265 -0.3764  0.0387
  938DOPS   GL110996   7.346  30.605  14.879  0.0632 -0.4346  0.0914
  938DOPS   GL210997   7.083  30.508  14.850 -0.1892  0.1026 -0.1609
  938DOPS   C1A10998   7.473  30.890  14.531  0.1607  0.0033 -0.0318
  938DOPS   D2A10999   7.653  31.039  14.152  0.0118 -0.1080  0.3275
  938DOPS   C3A11000   7.286  31.071  13.941 -0.2307 -0.0140  0.5073
  938DOPS   C4A11001   6.828  30.945  14.056 -0.2993  0.1622  0.0826
  938DOPS   C1B11002   6.795  30.169  14.675  0.1603  0.1282 -0.2270
  938DOPS   D2B11003   6.501  30.033  14.376  0.0901  0.0730 -0.0219
  938DOPS   C3B11004   6.610  29.996  13.919 -0.3352 -0.2060 -0.1169
  938DOPS   C4B11005   6.684  29.622  13.670  0.0339 -0.0888 -0.0289
  939POSM   NC311006  10.174  27.532  15.565  0.0610 -0.0508 -0.4321
  939POSM   PO411007  10.135  27.770  15.872  0.1014  0.2517  0.2054
  939POSM   AM111008  10.136  28.002  15.638 -0.1193 -0.1258  0.1514
  939POSM   AM211009  10.268  28.059  15.442 -0.0570  0.2478  0.1109
  939POSM   T1A11010   9.933  28.400  15.378  0.1706 -0.1182 -0.1249
  939POSM   C2A11011   9.571  28.680  15.293  0.0776 -0.0498  0.0708
  939POSM   C3A11012   9.558  29.154  15.271 -0.0083  0.1723  0.0274
  939POSM   C1B11013  10.240  28.004  15.137 -0.0151  0.0621  0.0365
  939POSM   D2B11014  10.159  28.209  14.728 -0.0398 -0.1955  0.1101
  939POSM   C3B11015  10.182  28.207  14.308  0.0404 -0.2442  0.0304
  939POSM   C4B11016  10.259  28.193  13.841 -0.0643 -0.0335 -0.0437
  940POSM   NC311017   5.320  26.947  16.500 -0.0099 -0.2586  0.3621
  940POSM   PO411018   5.414  27.035  16.058 -0.2345 -0.0704  0.0599
  940POSM   AM111019   5.373  26.828  15.773 -0.3107 -0.0648  0.3444
  940POSM   AM211020   5.201  26.596  15.683  0.0023  0.3703  0.1455
  940POSM   T1A11021   5.597  26.607  15.374  0.0546  0.1201  0.0628
  940POSM   C2A11022   5.842  26.596  15.005 -0.1243  0.0915 -0.1508
  940POSM   C3A11023   6.019  26.519  14.635  0.0055  0.3120  0.2056
  940POSM   C1B11024   5.095  26.752  15.400  0.2527 -0.2265  0.1086
  940POSM   D2B11025   4.917  27.138  15.167 -0.0015 -0.2802  0.1172
  940POSM   C3B11026   5.026  27.234  14.759  0.0710 -0.1269  0.0512
  940POSM   C4B11027   4.922  27.398  14.374 -0.1844  0.2820  0.0626
  941POSM   NC311028   2.110  31.124  16.469  0.0079 -0.0537 -0.1665
  941POSM   PO411029   2.198  31.263  16.119 -0.0541  0.1330 -0.0180
  941POSM   AM111030   2.194  31.272  15.799  0.2818  0.3865 -0.2167
  941POSM   AM211031   2.412  31.203  15.616 -0.0477 -0.0009  0.4713
  941POSM   T1A11032   2.065  31.313  15.327  0.0632  0.1351  0.0442
  941POSM   C2A11033   1.929  31.384  14.864 -0.1486  0.2721  0.1200
  941POSM   C3A11034   1.876  31.521  14.391  0.0692 -0.1172 -0.2402
  941POSM   C1B11035   2.582  31.373  15.371 -0.0627 -0.0950  0.0050
  941POSM   D2B11036   2.796  31.666  15.048  0.2672 -0.0113  0.0477
  941POSM   C3B11037   2.940  31.462  14.647 -0.1368  0.0777 -0.2362
  941POSM   C4B11038   3.061  31.018  14.566 -0.0432 -0.4290  0.0564
  942DOPE   NH311039  11.336  32.238  14.798 -0.1347  0.3780  0.0818
  942DOPE   PO411040  11.356  31.943  14.939 -0.1768 -0.0462  0.0329
  942DOPE   GL111041  11.153  31.824  14.592  0.1041  0.2825  0.0322
  942DOPE   GL211042  11.106  31.499  14.639  0.1697 -0.0185  0.1427
  942DOPE   C1A11043  11.289  31.832  14.134 -0.0257 -0.1754 -0.0312
  942DOPE   D2A11044  11.086  31.663  13.757  0.1438  0.1743 -0.1953
  942DOPE   C3A11045  11.133  31.873  13.374 -0.2744  0.2275 -0.0372
  942DOPE   C4A11046  11.206  32.151  12.986  0.2625  0.2213  0.1163
  942DOPE   C1B11047  11.383  31.380  14.276 -0.0963  0.1299  0.3539
  942DOPE   D2B11048  11.550  31.234  13.869  0.1130 -0.0251 -0.0715
  942DOPE   C3B11049  11.469  31.448  13.441 -0.0708  0.2370 -0.0239
  942DOPE   C4B11050  11.282  31.428  13.025  0.0679 -0.2232  0.1324
  943DOPE   NH311051   0.791  30.795  16.133  0.2305 -0.0977 -0.2677
  943DOPE   PO411052   0.869  31.053  15.935  0.5205  0.0964  0.0730
  943DOPE   GL111053   0.926  30.802  15.526 -0.1525  0.0922  0.0594
  943DOPE   GL211054   0.896  30.503  15.621 -0.0723  0.0734 -0.0845
  943DOPE   C1A11055   0.954  30.766  15.064 -0.1235  0.3497 -0.1606
  943DOPE   D2A11056   1.116  30.807  14.681 -0.0489 -0.1727  0.1516
  943DOPE   C3A11057   1.280  31.263  14.427  0.2412  0.0185 -0.1540
  943DOPE   C4A11058   1.477  31.526  14.083  0.0825 -0.1238  0.0151
  943DOPE   C1B11059   0.645  30.147  15.494 -0.0543  0.0266  0.0177
  943DOPE   D2B11060   0.371  29.953  15.178 -0.0048 -0.1914  0.2909
  943DOPE   C3B11061   0.262  30.146  14.753  0.0632  0.0663  0.2334
  943DOPE   C4B11062   0.455  30.114  14.362  0.1171  0.0717 -0.0311
  944DOPS   CNO11063  10.710  24.555  16.183  0.3876  0.1029  0.0804
  944DOPS   PO411064  10.836  24.270  16.008 -0.5102 -0.2268 -0.2204
  944DOPS   GL111065  10.846  24.222  15.582 -0.1096 -0.0631 -0.1540
  944DOPS   GL211066  10.634  24.249  15.421  0.2862  0.0523 -0.3345
  944DOPS   C1A11067  11.189  24.311  15.220  0.0982  0.0155  0.0149
  944DOPS   D2A11068  11.501  24.162  14.908  0.1286 -0.0420  0.0898
  944DOPS   C3A11069  11.378  23.669  14.918  0.1609 -0.2131 -0.1559
  944DOPS   C4A11070  11.016  23.356  15.025 -0.0972  0.1840  0.2270
  944DOPS   C1B11071  10.780  23.976  15.099  0.0485 -0.0994  0.1259
  944DOPS   D2B11072  10.482  23.937  14.753 -0.2987 -0.1654 -0.0885
  944DOPS   C3B11073  10.340  23.801  14.402  0.0338 -0.2814 -0.1275
  944DOPS   C4B11074   9.846  23.646  14.350  0.2564 -0.1868  0.1360
  945DOPS   CNO11075   0.053  27.152  16.191  0.1259 -0.0746 -0.0315
  945DOPS   PO411076   0.335  27.363  15.994 -0.2018  0.2330  0.1410
  945DOPS   GL111077   0.170  27.397  15.646  0.0238  0.1954  0.2647
  945DOPS   GL211078  -0.078  27.549  15.531  0.0785  0.1414  0.1730
  945DOPS   C1A11079   0.275  27.410  15.167 -0.1238 -0.2151  0.0645
  945DOPS   D2A11080   0.209  27.269  14.716 -0.1949  0.0387  0.0868
  945DOPS   C3A11081  -0.228  27.159  14.637 -0.1072  0.0476 -0.2025
  945DOPS   C4A11082  -0.688  27.301  14.543  0.0265 -0.1772 -0.0425
  945DOPS   C1B11083  -0.144  27.579  15.021  0.2221  0.1173 -0.1420
  945DOPS   D2B11084  -0.041  27.704  14.555  0.1142  0.2628  0.0422
  945DOPS   C3B11085  -0.276  27.877  14.164  0.0121 -0.2732  0.1165
  945DOPS   C4B11086  -0.679  28.108  14.091 -0.0045  0.2614 -0.4986
  946DOPE   NH311087   4.568  33.225  15.977 -0.0928  0.2568 -0.1395
  946DOPE   PO411088   4.381  32.989  15.986  0.0861  0.1272  0.1636
  946DOPE   GL111089   4.172  32.857  15.669 -0.4601  0.1453  0.6957
  946DOPE   GL211090   4.145  32.619  15.495  0.0275  0.0299 -0.2209
  946DOPE   C1A11091   3.844  33.006  15.334  0.1516 -0.0834 -0.1682
  946DOPE   D2A11092   3.668  32.974  14.944 -0.2673 -0.0950  0.0660
  946DOPE   C3A11093   3.242  32.697  14.805 -0.5377  0.1475  0.1730
  946DOPE   C4A11094   2.976  32.289  14.737  0.1050  0.2598 -0.2380
  946DOPE   C1B11095   4.103  32.584  15.067  0.3947  0.0484 -0.0819
  946DOPE   D2B11096   3.817  32.479  14.685 -0.0119 -0.0029  0.0181
  946DOPE   C3B11097   3.671  32.865  14.410 -0.3158 -0.1277 -0.2100
  946DOPE   C4B11098   3.428  33.006  14.033 -0.1285 -0.2827 -0.2974
  947DOPC   NC311099   3.930  33.733  15.759 -0.1377 -0.0873  0.0525
  947DOPC   PO411100   4.323  33.696  15.812 -0.0428  0.0554 -0.0615
  947DOPC   GL111101   4.572  33.592  15.457  0.2476  0.0783 -0.1340
  947DOPC   GL211102   4.879  33.741  15.397  0.2310  0.4131 -0.1252
  947DOPC   C1A11103   4.609  33.598  14.942 -0.1946 -0.0403  0.4126
  947DOPC   D2A11104   4.455  33.726  14.532  0.1416 -0.4043 -0.2249
  947DOPC   C3A11105   4.043  33.840  14.415  0.0610  0.1781 -0.0192
  947DOPC   C4A11106   3.545  33.866  14.421  0.2836  0.2205 -0.2912
  947DOPC   C1B11107   5.160  33.752  15.035  0.1187 -0.3653 -0.0246
  947DOPC   D2B11108   5.421  33.490  14.733  0.0932 -0.1515  0.2594
  947DOPC   C3B11109   5.861  33.389  14.810  0.1927 -0.1220 -0.2482
  947DOPC   C4B11110   6.035  33.306  15.210  0.3057  0.3654  0.2609
  948DOPE   NH311111   6.116  32.068  16.127 -0.2254  0.0822  0.1130
  948DOPE   PO411112   6.187  32.077  15.797 -0.0689 -0.1796 -0.1046
  948DOPE   GL111113   6.298  32.074  15.419  0.0241  0.1814 -0.3777
  948DOPE   GL211114   6.167  32.299  15.278  0.1703  0.1001  0.0233
  948DOPE   C1A11115   6.310  31.848  15.013 -0.0620  0.1033  0.3941
  948DOPE   D2A11116   6.255  31.863  14.556  0.0704 -0.3777  0.0238
  948DOPE   C3A11117   6.207  32.094  14.145 -0.0693  0.0902 -0.0420
  948DOPE   C4A11118   6.362  32.461  13.901 -0.1759  0.1753  0.1636
  948DOPE   C1B11119   5.827  32.263  14.973  0.3229  0.0872 -0.1005
  948DOPE   D2B11120   5.787  32.102  14.548  0.0990 -0.0528 -0.0743
  948DOPE   C3B11121   5.800  31.621  14.715  0.0307 -0.0285 -0.0493
  948DOPE   C4B11122   5.851  31.181  14.690  0.1481 -0.2180 -0.1999
  949DOPC   NC311123  33.849  26.625  15.716  0.1053 -0.2223  0.0055
  949DOPC   PO411124  34.214  26.642  15.632 -0.1532  0.1842  0.0261
  949DOPC   GL111125  34.065  26.586  15.291  0.1765 -0.2934  0.0796
  949DOPC   GL211126  34.302  26.462  15.165  0.0089  0.1021 -0.2330
  949DOPC   C1A11127  33.923  26.333  14.906 -0.3223  0.0572 -0.1136
  949DOPC   D2A11128  34.029  25.975  14.647  0.5062  0.0487  0.1827
  949DOPC   C3A11129  34.050  25.870  14.181 -0.0782 -0.2582  0.2453
  949DOPC   C4A11130  33.949  25.806  13.745  0.0940  0.0037  0.0937
  949DOPC   C1B11131  34.507  26.543  14.764  0.1362  0.0290  0.0555
  949DOPC   D2B11132  34.685  26.777  14.451  0.0290  0.0264 -0.1784
  949DOPC   C3B11133  34.561  27.121  14.151 -0.0760  0.2788 -0.2386
  949DOPC   C4B11134  34.805  27.544  14.110  0.1765  0.3217 -0.0853
  950DOPE   NH311135   9.620  27.589  15.982  0.1012 -0.1583 -0.0040
  950DOPE   PO411136   9.457  27.533  15.733  0.0163  0.0847  0.0022
  950DOPE   GL111137   9.632  27.608  15.446 -0.1483 -0.0882  0.1740
  950DOPE   GL211138   9.767  27.898  15.416  0.0299  0.1389  0.1962
  950DOPE   C1A11139   9.467  27.740  14.974  0.1723  0.0464 -0.1241
  950DOPE   D2A11140   9.656  27.945  14.586 -0.0662 -0.3015 -0.1792
  950DOPE   C3A11141   9.510  27.588  14.337 -0.1654 -0.0055  0.0098
  950DOPE   C4A11142   9.477  27.528  13.879 -0.2285  0.1156  0.1819
  950DOPE   C1B11143   9.658  28.178  15.027  0.2431  0.1920  0.0311
  950DOPE   D2B11144   9.696  28.497  14.758 -0.0586  0.3787 -0.0453
  950DOPE   C3B11145   9.643  28.348  14.307  0.0218 -0.0294  0.3260
  950DOPE   C4B11146   9.751  27.995  14.021  0.1296  0.3100  0.1812
  951DOPE   NH311147   9.188  31.860  14.830 -0.0302 -0.2760 -0.0721
  951DOPE   PO411148   9.483  31.737  14.752  0.0556 -0.0137  0.0655
  951DOPE   GL111149   9.180  31.697  14.362 -0.0401 -0.0180 -0.1029
  951DOPE   GL211150   9.473  31.628  14.308  0.0236  0.1403 -0.0378
  951DOPE   C1A11151   9.156  31.880  13.967  0.1677  0.0240  0.1887
  951DOPE   D2A11152   9.399  31.802  13.512  0.0365  0.0046  0.1663
  951DOPE   C3A11153   9.196  31.795  13.134  0.1083  0.4360 -0.1392
  951DOPE   C4A11154   8.775  31.560  13.113  0.2486  0.0480 -0.1669
  951DOPE   C1B11155   9.410  31.407  13.864  0.1141 -0.0950  0.3954
  951DOPE   D2B11156   9.250  31.277  13.474 -0.0136 -0.1595  0.0870
  951DOPE   C3B11157   9.135  30.953  13.110 -0.5089  0.1738 -0.0509
  951DOPE   C4B11158   9.099  30.454  13.013 -0.0469  0.1038  0.0848
  952DOPC   NC311159   3.101  23.442  15.900 -0.2134  0.0161 -0.0748
  952DOPC   PO411160   2.757  23.440  16.117 -0.1530 -0.2626  0.2979
  952DOPC   GL111161   2.631  23.398  15.716 -0.0704  0.0805  0.1374
  952DOPC   GL211162   2.373  23.317  15.762  0.1543  0.2356  0.2135
  952DOPC   C1A11163   2.523  23.647  15.347  0.0501 -0.0877 -0.0542
  952DOPC   D2A11164   2.772  23.700  14.979  0.2036 -0.0711  0.0393
  952DOPC   C3A11165   2.982  24.137  14.919 -0.2566 -0.0685  0.0749
  952DOPC   C4A11166   3.320  24.496  14.968  0.1518 -0.0373 -0.0818
  952DOPC   C1B11167   2.057  23.522  15.459 -0.3474  0.1381 -0.2615
  952DOPC   D2B11168   1.900  23.506  15.073 -0.1556  0.1437  0.0926
  952DOPC   C3B11169   2.009  23.261  14.695  0.1963  0.0683 -0.1577
  952DOPC   C4B11170   2.331  22.937  14.619 -0.1753  0.3000 -0.0288
  953DOPC   NC311171  10.763  28.083  15.486 -0.1751  0.1102  0.0300
  953DOPC   PO411172  10.597  27.732  15.522 -0.3812 -0.3841 -0.0764
  953DOPC   GL111173  10.413  27.642  15.186 -0.2774  0.2556 -0.2506
  953DOPC   GL211174  10.467  27.344  15.163  0.1333 -0.0074  0.1978
  953DOPC   C1A11175  10.575  27.643  14.738 -0.0718 -0.0051  0.1997
  953DOPC   D2A11176  10.965  27.496  14.513 -0.2014  0.0668 -0.0033
  953DOPC   C3A11177  11.029  27.089  14.354 -0.0289 -0.0042  0.2682
  953DOPC   C4A11178  10.665  26.789  14.278  0.0996 -0.1691  0.1153
  953DOPC   C1B11179  10.196  27.232  14.821 -0.0007  0.0881  0.0479
  953DOPC   D2B11180   9.870  27.173  14.541 -0.0442  0.1963 -0.1822
  953DOPC   C3B11181   9.934  27.301  14.083 -0.0794 -0.2486 -0.1602
  953DOPC   C4B11182   9.837  27.196  13.681 -0.0852 -0.2392 -0.0242
  954DOPE   NH311183   6.920  26.227  16.206 -0.0478 -0.2194 -0.0440
  954DOPE   PO411184   7.081  26.049  15.989 -0.0443 -0.0437 -0.0181
  954DOPE   GL111185   6.970  25.838  15.661 -0.1100 -0.1538  0.3197
  954DOPE   GL211186   7.216  25.734  15.551 -0.0835 -0.0475 -0.3318
  954DOPE   C1A11187   6.795  25.688  15.258  0.1487  0.0276  0.0087
  954DOPE   D2A11188   6.543  25.877  14.898  0.1500  0.1527  0.2275
  954DOPE   C3A11189   6.410  25.695  14.514  0.0597  0.1152 -0.1719
  954DOPE   C4A11190   6.595  25.474  14.119  0.2730  0.1706  0.0371
  954DOPE   C1B11191   7.456  25.946  15.205 -0.3413  0.0126 -0.2092
  954DOPE   D2B11192   7.795  26.068  14.863 -0.2910  0.4527  0.0568
  954DOPE   C3B11193   7.810  25.824  14.468 -0.1024 -0.1161  0.1601
  954DOPE   C4B11194   7.696  25.941  14.057 -0.4126 -0.1663  0.1363
  955DOPE   NH311195  10.819  30.742  15.171  0.0426 -0.0492  0.2765
  955DOPE   PO411196  11.114  30.573  15.164  0.0014 -0.1171  0.0988
  955DOPE   GL111197  11.354  30.433  14.875 -0.1232 -0.0889  0.3157
  955DOPE   GL211198  11.646  30.408  14.920  0.2458 -0.0783  0.2618
  955DOPE   C1A11199  11.195  30.089  14.534  0.0702  0.0946  0.2228
  955DOPE   D2A11200  10.812  29.931  14.359  0.0687 -0.0580 -0.1941
  955DOPE   C3A11201  10.795  30.102  13.974  0.1989  0.1582  0.0931
  955DOPE   C4A11202  10.766  30.063  13.556 -0.3371  0.4336  0.3128
  955DOPE   C1B11203  11.595  30.403  14.460 -0.0876  0.0924  0.1417
  955DOPE   D2B11204  11.382  30.317  14.068  0.1127 -0.0570 -0.0072
  955DOPE   C3B11205  11.235  29.918  13.871 -0.0681  0.1083 -0.0837
  955DOPE   C4B11206  11.173  29.720  13.426 -0.2985 -0.1727 -0.1891
  956DOPS   CNO11207   1.687  28.687  15.845  0.1572 -0.1579 -0.0767
  956DOPS   PO411208   1.614  28.513  16.144 -0.2085  0.0516 -0.1201
  956DOPS   GL111209   1.502  28.241  15.876  0.4216 -0.1207  0.0808
  956DOPS   GL211210   1.417  27.974  15.896 -0.0402  0.0390  0.1400
  956DOPS   C1A11211   1.497  28.247  15.419  0.1574  0.2169  0.0892
  956DOPS   D2A11212   1.843  28.155  15.131 -0.1939  0.1580  0.0378
  956DOPS   C3A11213   1.985  28.439  14.814  0.1140  0.2844  0.0393
  956DOPS   C4A11214   2.062  28.835  14.635  0.4213  0.3222 -0.0475
  956DOPS   C1B11215   1.688  27.819  15.564  0.1459  0.1165  0.0407
  956DOPS   D2B11216   1.698  27.613  15.144 -0.0873 -0.0609  0.0630
  956DOPS   C3B11217   2.024  27.560  14.807  0.1221  0.2030  0.2069
  956DOPS   C4B11218   2.104  27.666  14.408 -0.0110  0.2473  0.1829
  957POSM   NC311219   4.563  34.135  15.706  0.6974  0.0556 -0.1002
  957POSM   PO411220   4.500  34.533  15.818 -0.1430  0.4922  0.0474
  957POSM   AM111221   4.435  34.609  15.512  0.2852  0.0036  0.0707
  957POSM   AM211222   4.471  34.475  15.303  0.0444 -0.0314  0.0273
  957POSM   T1A11223   4.332  34.910  15.106 -0.1800  0.2029 -0.2172
  957POSM   C2A11224   4.643  35.089  14.816 -0.1734  0.0187  0.2400
  957POSM   C3A11225   4.679  35.024  14.371  0.0636 -0.1522 -0.0983
  957POSM   C1B11226   4.561  34.458  15.012 -0.1763 -0.1262 -0.1881
  957POSM   D2B11227   4.820  34.496  14.611 -0.1780  0.1312  0.2510
  957POSM   C3B11228   4.740  34.399  14.154 -0.0913 -0.1790  0.1772
  957POSM   C4B11229   4.968  34.331  13.731 -0.1753  0.3261 -0.0313
  958DOPC   NC311230   0.102  28.933  16.310  0.1398  0.1101  0.0133
  958DOPC   PO411231  -0.256  28.832  16.206  0.3275  0.1960 -0.2738
  958DOPC   GL111232  -0.065  28.804  15.847  0.4127  0.2423 -0.1240
  958DOPC   GL211233  -0.219  28.839  15.628 -0.0195 -0.1640  0.0067
  958DOPC   C1A11234  -0.024  29.290  15.673  0.0084 -0.1110  0.2603
  958DOPC   D2A11235   0.079  29.483  15.257 -0.3884 -0.1480  0.1790
  958DOPC   C3A11236  -0.129  29.288  14.946  0.0358 -0.0902 -0.3426
  958DOPC   C4A11237  -0.347  29.319  14.543  0.1879  0.1742  0.1612
  958DOPC   C1B11238   0.023  28.951  15.292 -0.2391 -0.1521  0.0780
  958DOPC   D2B11239   0.346  29.097  14.987 -0.1092 -0.2865  0.0389
  958DOPC   C3B11240   0.217  29.183  14.551  0.1926  0.0636  0.1610
  958DOPC   C4B11241   0.120  29.601  14.307  0.1096 -0.2653 -0.0871
  959DOPC   NC311242   3.586  27.589  15.749 -0.3308  0.3273 -0.1945
  959DOPC   PO411243   3.838  27.370  15.947 -0.0726 -0.1051  0.0630
  959DOPC   GL111244   3.887  27.157  15.554  0.2492 -0.0575  0.2992
  959DOPC   GL211245   3.806  27.333  15.335  0.1495 -0.1223  0.2758
  959DOPC   C1A11246   4.282  27.027  15.386 -0.0774  0.0022  0.2927
  959DOPC   D2A11247   4.505  26.977  15.002  0.1784  0.0470  0.1063
  959DOPC   C3A11248   4.561  27.365  14.698  0.0176 -0.0452 -0.1284
  959DOPC   C4A11249   4.363  27.489  14.306  0.0536 -0.1914 -0.0250
  959DOPC   C1B11250   3.931  27.017  15.014  0.0593  0.0055  0.1291
  959DOPC   D2B11251   4.148  26.573  14.971 -0.1018  0.1938 -0.0339
  959DOPC   C3B11252   4.307  26.576  14.549  0.0939  0.3701 -0.3548
  959DOPC   C4B11253   4.615  26.475  14.249 -0.1507 -0.1310 -0.4105
  960DOPS   CNO11254   3.098  25.754  16.025 -0.0971  0.0180  0.1856
  960DOPS   PO411255   3.072  25.400  15.883  0.0419  0.2400 -0.1805
  960DOPS   GL111256   3.091  25.196  15.526 -0.1572  0.2290 -0.0085
  960DOPS   GL211257   2.835  25.177  15.460 -0.1404  0.0097 -0.0142
  960DOPS   C1A11258   3.274  24.773  15.359 -0.0238  0.1263  0.0931
  960DOPS   D2A11259   3.189  24.306  15.493 -0.2432  0.2506 -0.0189
  960DOPS   C3A11260   3.378  24.011  15.173 -0.3129  0.0361  0.1084
  960DOPS   C4A11261   3.780  23.899  14.888  0.1312 -0.0711  0.2205
  960DOPS   C1B11262   3.136  25.175  15.096  0.0805  0.2071  0.0737
  960DOPS   D2B11263   3.327  25.274  14.678  0.3341  0.0533  0.2935
  960DOPS   C3B11264   3.564  25.195  14.244  0.0442  0.0940 -0.3080
  960DOPS   C4B11265   3.882  25.395  13.918  0.1621  0.1347 -0.1146
  961DOPC   NC311266  10.295  34.475  14.858 -0.0650 -0.3963  0.1616
  961DOPC   PO411267   9.958  34.512  15.026 -0.2610  0.0559 -0.0023
  961DOPC   GL111268   9.925  34.867  14.828  0.1862 -0.1317 -0.4062
  961DOPC   GL211269   9.639  34.870  14.776  0.1212  0.2348 -0.0676
  961DOPC   C1A11270  10.166  35.000  14.478  0.1780 -0.3409 -0.0370
  961DOPC   D2A11271  10.252  35.035  14.024  0.2862  0.0596 -0.1045
  961DOPC   C3A11272  10.688  35.038  14.147 -0.0703  0.1428 -0.4256
  961DOPC   C4A11273  10.983  34.676  14.240 -0.1237 -0.2720  0.1556
  961DOPC   C1B11274   9.662  34.937  14.296 -0.0896 -0.0174 -0.0947
  961DOPC   D2B11275   9.575  34.939  13.840  0.0707  0.3302 -0.2577
  961DOPC   C3B11276   9.938  35.099  13.643 -0.1859  0.0481 -0.0669
  961DOPC   C4B11277  10.167  35.155  13.291  0.3257  0.0065 -0.1408
  962POSM   NC311278   8.200  28.211  15.769  0.1582  0.0557  0.1623
  962POSM   PO411279   8.137  27.862  15.724 -0.1172  0.2943 -0.0666
  962POSM   AM111280   8.380  27.811  15.492  0.2363  0.1199 -0.1176
  962POSM   AM211281   8.557  27.940  15.289  0.0878 -0.2031  0.0469
  962POSM   T1A11282   8.676  27.407  15.352  0.0627 -0.3287 -0.2045
  962POSM   C2A11283   9.021  27.298  15.108 -0.1835  0.0080  0.2395
  962POSM   C3A11284   9.355  27.291  14.771 -0.2080  0.1584 -0.3417
  962POSM   C1B11285   8.640  28.094  15.005 -0.4918  0.0652  0.1195
  962POSM   D2B11286   8.774  28.353  14.602 -0.0657  0.0105  0.1820
  962POSM   C3B11287   8.499  28.376  14.230 -0.2349  0.5180 -0.1643
  962POSM   C4B11288   8.476  28.693  13.908 -0.1369 -0.0915 -0.1480
  963DOPC   NC311289   6.402  24.763  16.228  0.2133  0.1150 -0.2939
  963DOPC   PO411290   6.110  25.024  16.358  0.0776  0.2250  0.4354
  963DOPC   GL111291   5.924  24.937  16.011  0.3365 -0.2968 -0.4485
  963DOPC   GL211292   5.867  25.232  15.944  0.1842  0.2104 -0.2899
  963DOPC   C1A11293   5.978  24.641  15.653 -0.3963 -0.1113  0.3438
  963DOPC   D2A11294   6.078  24.610  15.216  0.2410  0.1402  0.0666
  963DOPC   C3A11295   6.087  24.267  15.042  0.0357 -0.2686 -0.0444
  963DOPC   C4A11296   5.843  24.012  14.779  0.1587  0.4132 -0.1067
  963DOPC   C1B11297   5.914  25.133  15.492 -0.2861 -0.1081  0.1289
  963DOPC   D2B11298   6.091  25.075  15.077  0.1875  0.0742 -0.1952
  963DOPC   C3B11299   5.965  24.796  14.767 -0.1404  0.1375 -0.1138
  963DOPC   C4B11300   6.022  24.761  14.348 -0.0914 -0.0984  0.2802
  964DOPC   NC311301   9.634  23.549  15.725 -0.1073 -0.0325 -0.0930
  964DOPC   PO411302   9.305  23.418  15.899  0.3841  0.1784  0.2027
  964DOPC   GL111303   9.218  23.673  15.547 -0.1637 -0.1982  0.2900
  964DOPC   GL211304   9.038  23.934  15.517  0.2544  0.0291  0.1273
  964DOPC   C1A11305   8.982  23.512  15.177 -0.1160  0.1604 -0.1252
  964DOPC   D2A11306   8.969  23.601  14.714 -0.4175 -0.2416  0.0538
  964DOPC   C3A11307   8.842  23.432  14.274 -0.1156  0.1872 -0.1970
  964DOPC   C4A11308   8.848  23.014  14.010 -0.0863  0.1489 -0.1379
  964DOPC   C1B11309   8.802  23.931  15.144  0.0681  0.0869  0.1419
  964DOPC   D2B11310   8.643  24.050  14.721 -0.2311  0.1127  0.0044
  964DOPC   C3B11311   8.905  23.901  14.352 -0.1084  0.2687 -0.2319
  964DOPC   C4B11312   9.034  23.802  13.955 -0.1415 -0.2809  0.1839
  965DOPE   NH311313   6.281  23.717  16.558  0.2287  0.4218 -0.0430
  965DOPE   PO411314   6.498  23.598  16.396 -0.1479  0.0196 -0.1145
  965DOPE   GL111315   6.358  23.447  16.075 -0.0952 -0.3754  0.0210
  965DOPE   GL211316   6.639  23.494  15.950  0.0363  0.1019  0.1162
  965DOPE   C1A11317   6.495  23.070  15.820  0.0198  0.3783  0.0169
  965DOPE   D2A11318   6.574  22.665  15.704 -0.4810 -0.0218 -0.2406
  965DOPE   C3A11319   6.467  22.543  15.323 -0.0707  0.1947 -0.1542
  965DOPE   C4A11320   6.667  22.433  14.923  0.0681 -0.1224 -0.0545
  965DOPE   C1B11321   6.954  23.289  15.637  0.2096 -0.0306  0.1182
  965DOPE   D2B11322   7.128  22.952  15.394 -0.0819 -0.0199 -0.1179
  965DOPE   C3B11323   7.148  22.899  14.892  0.0492 -0.2077  0.5222
  965DOPE   C4B11324   7.082  22.593  14.522 -0.0054  0.1713  0.3031
  966POSM   NC311325  10.336  24.834  16.010 -0.0347  0.1616  0.1026
  966POSM   PO411326  10.408  24.567  15.758 -0.3316 -0.0944  0.0167
  966POSM   AM111327  10.304  24.593  15.423  0.1647  0.2635 -0.3477
  966POSM   AM211328  10.428  24.702  15.189  0.3981 -0.3721  0.1267
  966POSM   T1A11329  10.129  24.322  15.067 -0.0343 -0.1864 -0.1536
  966POSM   C2A11330  10.130  24.366  14.616 -0.1347 -0.0807  0.0587
  966POSM   C3A11331  10.375  24.468  14.244 -0.3378  0.2121  0.3601
  966POSM   C1B11332  10.315  24.835  14.881  0.1181 -0.0178  0.1574
  966POSM   D2B11333  10.395  24.979  14.454  0.1504  0.3418  0.2075
  966POSM   C3B11334  10.020  24.813  14.224 -0.0183 -0.0136  0.0270
  966POSM   C4B11335   9.674  24.976  13.946  0.0499 -0.2557  0.0735
  967POSM   NC311336   1.305  30.856  15.834 -0.3045 -0.0562  0.0192
  967POSM   PO411337   1.203  30.505  16.024  0.2068 -0.2709 -0.1330
  967POSM   AM111338   1.342  30.382  15.743 -0.0198  0.2782 -0.0573
  967POSM   AM211339   1.409  30.501  15.492  0.2394  0.1181 -0.2961
  967POSM   T1A11340   1.409  30.041  15.390  0.1917  0.0460 -0.2004
  967POSM   C2A11341   1.633  29.947  15.002  0.1345  0.1517  0.0009
  967POSM   C3A11342   1.659  30.089  14.548  0.1787 -0.0534 -0.2116
  967POSM   C1B11343   1.439  30.602  15.240  0.0435  0.1824 -0.1798
  967POSM   D2B11344   1.673  30.551  14.821  0.1772  0.1917 -0.0308
  967POSM   C3B11345   2.008  30.256  14.904  0.1307  0.1756 -0.0121
  967POSM   C4B11346   2.081  29.790  14.798  0.3642 -0.3399  0.0284
  968DOPE   NH311347   1.163  25.232  15.738  0.1033 -0.1189 -0.1715
  968DOPE   PO411348   1.418  25.078  15.834 -0.4975  0.3018  0.2168
  968DOPE   GL111349   1.555  25.156  15.431  0.2900  0.2226  0.1448
  968DOPE   GL211350   1.841  24.976  15.416  0.4020 -0.0145  0.0073
  968DOPE   C1A11351   1.451  25.124  14.984 -0.0129  0.1682  0.1790
  968DOPE   D2A11352   1.396  25.040  14.495 -0.0797  0.2672  0.0120
  968DOPE   C3A11353   1.257  24.914  14.049  0.0315  0.0559 -0.2728
  968DOPE   C4A11354   1.061  24.922  13.694  0.1225  0.2208  0.1595
  968DOPE   C1B11355   1.874  24.916  14.933 -0.1271  0.0748 -0.0769
  968DOPE   D2B11356   1.748  24.669  14.592  0.2631 -0.0057  0.1172
  968DOPE   C3B11357   1.703  24.706  14.152  0.2014 -0.1006  0.1873
  968DOPE   C4B11358   1.613  24.683  13.694  0.3015 -0.2115 -0.2187
  969POSM   NC311359   0.279  25.429  15.746 -0.0395  0.0322  0.0313
  969POSM   PO411360   0.651  25.342  15.929 -0.0143  0.0185  0.2344
  969POSM   AM111361   0.747  25.396  15.613  0.2934 -0.0525 -0.1144
  969POSM   AM211362   0.902  25.582  15.431 -0.0893  0.0839  0.0056
  969POSM   T1A11363   0.920  25.171  15.188 -0.4117 -0.1324 -0.1556
  969POSM   C2A11364   1.099  24.792  14.986  0.0184  0.0681 -0.1110
  969POSM   C3A11365   0.987  24.370  15.074  0.0308 -0.0199  0.0309
  969POSM   C1B11366   0.965  25.728  15.128  0.1685  0.1414  0.2780
  969POSM   D2B11367   0.894  25.901  14.712  0.1329 -0.2605  0.0669
  969POSM   C3B11368   1.095  25.790  14.353 -0.2110  0.1920  0.1927
  969POSM   C4B11369   0.979  26.014  13.954 -0.0270 -0.3773  0.0833
  970DOPE   NH311370   3.973  34.479  16.046  0.1820  0.3291 -0.0336
  970DOPE   PO411371   4.067  34.232  15.848 -0.1430 -0.0669 -0.0696
  970DOPE   GL111372   4.017  34.205  15.430 -0.2267 -0.2419 -0.4129
  970DOPE   GL211373   3.828  33.987  15.390 -0.3008  0.0596 -0.0195
  970DOPE   C1A11374   4.319  34.026  15.129 -0.1830 -0.2001  0.1321
  970DOPE   D2A11375   4.779  34.037  14.965  0.0813 -0.0185 -0.2195
  970DOPE   C3A11376   4.915  33.998  14.469 -0.2481  0.0796 -0.0481
  970DOPE   C4A11377   4.976  33.718  14.099  0.1556 -0.3680 -0.2269
  970DOPE   C1B11378   3.836  34.088  14.921 -0.2358  0.1176 -0.1833
  970DOPE   D2B11379   4.207  34.296  14.662 -0.5688  0.2589 -0.0465
  970DOPE   C3B11380   4.286  34.775  14.552 -0.0602 -0.0933  0.0080
  970DOPE   C4B11381   4.211  35.134  14.253  0.2014 -0.0295  0.0925
  971POSM   NC311382   0.066  27.972  16.454 -0.2928  0.0235 -0.3721
  971POSM   PO411383   0.085  27.812  16.099  0.3346 -0.0489 -0.2735
  971POSM   AM111384   0.156  27.893  15.792  0.0248 -0.0007  0.2373
  971POSM   AM211385   0.437  28.032  15.746  0.3062  0.2075 -0.0259
  971POSM   T1A11386  -0.074  28.042  15.323  0.1790  0.2818  0.1314
  971POSM   C2A11387  -0.116  28.191  14.869  0.1393  0.2254 -0.4996
  971POSM   C3A11388   0.034  28.332  14.424  0.2285 -0.0472  0.0091
  971POSM   C1B11389   0.393  27.972  15.397 -0.0570 -0.0886  0.0283
  971POSM   D2B11390   0.256  27.874  14.963  0.1040 -0.0912 -0.3632
  971POSM   C3B11391   0.516  28.242  14.820  0.0822 -0.0414 -0.0713
  971POSM   C4B11392   0.592  28.395  14.372  0.0085 -0.2634  0.1267
  972DOPS   CNO11393  11.604  25.886  16.020 -0.0340 -0.1463 -0.0846
  972DOPS   PO411394  11.790  25.762  15.762  0.3494  0.0814  0.4325
  972DOPS   GL111395  12.000  25.814  15.342  0.1144 -0.1124 -0.2342
  972DOPS   GL211396  12.051  25.572  15.304  0.0545  0.0820 -0.3094
  972DOPS   C1A11397  12.012  25.836  14.923  0.2485 -0.2336 -0.2841
  972DOPS   D2A11398  11.814  25.603  14.579 -0.3250  0.1077 -0.0638
  972DOPS   C3A11399  11.971  25.456  14.091 -0.0006 -0.0115  0.1045
  972DOPS   C4A11400  12.265  25.284  13.791 -0.1436  0.1760 -0.1072
  972DOPS   C1B11401  12.129  25.313  14.876  0.3833  0.1162 -0.2876
  972DOPS   D2B11402  12.233  25.019  14.532  0.0182  0.1746 -0.1177
  972DOPS   C3B11403  12.097  24.860  14.139  0.1331 -0.2325 -0.1844
  972DOPS   C4B11404  12.082  24.418  13.876 -0.0281  0.2059 -0.0729
  973DOPC   NC311405   4.932  33.715  15.920 -0.0612  0.1770  0.0628
  973DOPC   PO411406   5.010  33.345  15.850 -0.0552 -0.0527  0.1108
  973DOPC   GL111407   5.014  33.161  15.534 -0.1049  0.0919 -0.3664
  973DOPC   GL211408   4.792  33.188  15.362 -0.2443 -0.2897  0.2675
  973DOPC   C1A11409   5.264  32.851  15.320 -0.2268  0.1949 -0.0468
  973DOPC   D2A11410   5.407  32.485  15.154 -0.0982 -0.0465 -0.0442
  973DOPC   C3A11411   5.405  32.434  14.714 -0.0452 -0.1768 -0.1106
  973DOPC   C4A11412   5.134  32.592  14.350  0.1958 -0.1202  0.1059
  973DOPC   C1B11413   5.008  33.269  14.974 -0.1911  0.3996 -0.0607
  973DOPC   D2B11414   4.937  33.489  14.558 -0.0214 -0.1195  0.0796
  973DOPC   C3B11415   4.611  33.394  14.231 -0.1095  0.1608 -0.0216
  973DOPC   C4B11416   4.275  33.585  13.985  0.2715 -0.3959  0.0075
  974DOPS   CNO11417  34.521  33.432  15.787  0.0068  0.0050  0.1151
  974DOPS   PO411418  34.738  33.584  16.054  0.0726 -0.0355  0.0109
  974DOPS   GL111419  35.000  33.652  15.759  0.0369  0.2240  0.0057
  974DOPS   GL211420  35.146  33.830  15.951 -0.0577 -0.1408  0.3311
  974DOPS   C1A11421  35.134  33.576  15.339 -0.1808  0.0232  0.0649
  974DOPS   D2A11422  35.536  33.641  15.056  0.1824  0.0572 -0.3799
  974DOPS   C3A11423  35.486  33.896  14.678  0.0578 -0.0288 -0.0389
  974DOPS   C4A11424  35.203  34.197  14.558  0.1988 -0.2164  0.2481
  974DOPS   C1B11425  35.108  34.117  15.601  0.0792  0.1429 -0.1894
  974DOPS   D2B11426  34.960  34.358  15.247  0.1690 -0.0421 -0.2923
  974DOPS   C3B11427  35.175  34.731  15.256  0.3621  0.0456 -0.1132
  974DOPS   C4B11428  35.397  34.998  15.031  0.2251  0.0747  0.0573
  975DOPE   NH311429   8.584  32.275  14.438  0.3003  0.0110 -0.1481
  975DOPE   PO411430   8.833  32.194  14.667 -0.1748  0.0747  0.0290
  975DOPE   GL111431   9.231  32.129  14.422 -0.1911 -0.2719 -0.2481
  975DOPE   GL211432   9.066  32.330  14.259 -0.2765 -0.0711  0.0310
  975DOPE   C1A11433   9.537  32.482  14.378  0.0876  0.3653 -0.1253
  975DOPE   D2A11434   9.760  32.881  14.456  0.0887 -0.2726 -0.2427
  975DOPE   C3A11435  10.065  32.832  14.107 -0.1270  0.0530  0.0222
  975DOPE   C4A11436  10.094  32.715  13.665 -0.1021  0.2505  0.2139
  975DOPE   C1B11437   8.712  32.260  13.945  0.0954  0.1360  0.1025
  975DOPE   D2B11438   8.458  32.379  13.598 -0.1896 -0.1498  0.0327
  975DOPE   C3B11439   8.333  32.178  13.228 -0.2630 -0.1241 -0.0703
  975DOPE   C4B11440   7.998  31.996  12.961 -0.0424 -0.0804 -0.1700
  976DOPC   NC311441   1.458  29.437  16.100 -0.1342  0.5154  0.3206
  976DOPC   PO411442   1.264  29.797  16.243  0.1705  0.0749 -0.2250
  976DOPC   GL111443   1.358  29.781  15.868 -0.0133  0.1334 -0.2779
  976DOPC   GL211444   1.128  29.985  15.808 -0.0686 -0.3114  0.3096
  976DOPC   C1A11445   1.316  29.429  15.590 -0.1538 -0.0062  0.0521
  976DOPC   D2A11446   1.051  29.113  15.385 -0.2119  0.1521  0.2600
  976DOPC   C3A11447   1.205  28.964  14.979  0.1945  0.3144 -0.1169
  976DOPC   C4A11448   1.201  28.731  14.572 -0.1297 -0.3330  0.0108
  976DOPC   C1B11449   0.979  29.734  15.439  0.0706  0.0176  0.1078
  976DOPC   D2B11450   1.244  29.542  15.126 -0.2279  0.0158 -0.0644
  976DOPC   C3B11451   1.612  29.391  14.861  0.0637  0.3568  0.4306
  976DOPC   C4B11452   1.991  29.229  15.014  0.3843 -0.2813  0.0935
  977DOPS   CNO11453   0.253  26.416  15.297 -0.3501 -0.1710 -0.1713
  977DOPS   PO411454   0.025  26.450  15.602 -0.1507 -0.2139 -0.1975
  977DOPS   GL111455  -0.177  26.195  15.422 -0.2966  0.3235  0.1189
  977DOPS   GL211456  -0.372  26.023  15.465  0.0227  0.0327 -0.2275
  977DOPS   C1A11457  -0.131  26.029  14.931  0.2381  0.0404  0.2131
  977DOPS   D2A11458  -0.194  25.901  14.508 -0.1225 -0.0449 -0.2538
  977DOPS   C3A11459  -0.411  26.314  14.376 -0.1754  0.0463 -0.0342
  977DOPS   C4A11460  -0.579  26.727  14.343  0.1532 -0.0272  0.0038
  977DOPS   C1B11461  -0.661  25.788  15.156 -0.1683  0.1770  0.2978
  977DOPS   D2B11462  -0.721  25.434  14.855 -0.1621  0.0128 -0.1619
  977DOPS   C3B11463  -0.439  25.436  14.558 -0.0289 -0.0815  0.0144
  977DOPS   C4B11464  -0.303  25.485  14.173 -0.0652  0.3349 -0.0863
  978DOPC   NC311465   4.316  25.493  15.624  0.0329  0.2041 -0.1739
  978DOPC   PO411466   3.987  25.519  15.768 -0.0122 -0.0809  0.0744
  978DOPC   GL111467   3.800  25.732  15.496  0.1456 -0.0286  0.0432
  978DOPC   GL211468   4.049  25.945  15.536  0.0701  0.0446 -0.3650
  978DOPC   C1A11469   3.944  25.660  15.035  0.0297  0.0415  0.1058
  978DOPC   D2A11470   3.843  25.556  14.596  0.1896  0.3092 -0.0292
  978DOPC   C3A11471   3.810  25.772  14.224  0.2601  0.1050  0.3201
  978DOPC   C4A11472   3.801  25.850  13.751  0.2390 -0.0256  0.0274
  978DOPC   C1B11473   4.277  26.071  15.116  0.0273  0.2070  0.4864
  978DOPC   D2B11474   4.500  26.231  14.865 -0.0235  0.0969 -0.3759
  978DOPC   C3B11475   4.728  25.932  14.566 -0.1855  0.1708  0.3102
  978DOPC   C4B11476   4.770  25.880  14.114 -0.1109 -0.0606  0.1548
  979DOPE   NH311477  10.073  32.312  15.009 -0.2055 -0.2281 -0.0279
  979DOPE   PO411478  10.325  32.289  14.800 -0.1354 -0.3247  0.5254
  979DOPE   GL111479  10.334  32.031  14.467 -0.1981  0.0432 -0.3448
  979DOPE   GL211480  10.464  32.231  14.320  0.0287 -0.2961 -0.0265
  979DOPE   C1A11481  10.301  31.646  14.215 -0.2905 -0.1914 -0.1543
  979DOPE   D2A11482  10.352  31.492  13.746 -0.2416  0.5361 -0.1112
  979DOPE   C3A11483  10.274  31.837  13.381 -0.1608 -0.0092  0.0746
  979DOPE   C4A11484  10.074  31.856  12.946  0.2071 -0.1430 -0.1243
  979DOPE   C1B11485  10.279  32.238  13.808  0.0917 -0.0319 -0.2156
  979DOPE   D2B11486   9.836  32.225  13.582 -0.0724  0.0362  0.1947
  979DOPE   C3B11487  10.034  32.396  13.256  0.1914  0.2100  0.1416
  979DOPE   C4B11488  10.403  32.571  13.052 -0.0849  0.1122  0.5475
  980POSM   NC311489   7.492  32.080  15.634 -0.1087  0.2642  0.0891
  980POSM   PO411490   7.241  31.806  15.488 -0.0021 -0.1150 -0.1317
  980POSM   AM111491   6.981  31.791  15.264  0.1212  0.3365 -0.1590
  980POSM   AM211492   6.815  31.994  15.194 -0.3918  0.0332  0.2171
  980POSM   T1A11493   6.696  31.500  14.978 -0.1191  0.0868  0.0101
  980POSM   C2A11494   6.342  31.255  14.735  0.3390  0.1942 -0.0138
  980POSM   C3A11495   6.307  31.198  14.298 -0.1355 -0.1158  0.1836
  980POSM   C1B11496   6.709  32.155  14.895 -0.0000 -0.1273  0.0891
  980POSM   D2B11497   6.384  32.405  14.821  0.1066 -0.1925  0.0562
  980POSM   C3B11498   6.282  32.599  14.387  0.3271 -0.3183  0.0229
  980POSM   C4B11499   6.069  32.874  14.090  0.0861 -0.0137  0.0695
  981DOPE   NH311500   5.012  32.857  15.848  0.0927 -0.1035  0.3930
  981DOPE   PO411501   4.699  32.766  15.693  0.0486  0.2757 -0.0372
  981DOPE   GL111502   4.555  32.791  15.350 -0.2095 -0.2478 -0.3703
  981DOPE   GL211503   4.550  32.451  15.185  0.0095 -0.1798 -0.0281
  981DOPE   C1A11504   4.243  33.036  15.009  0.2285  0.0745 -0.0115
  981DOPE   D2A11505   4.202  32.865  14.560  0.3160 -0.1286 -0.1825
  981DOPE   C3A11506   4.299  32.440  14.374  0.1086 -0.0688 -0.4456
  981DOPE   C4A11507   4.135  32.020  14.359 -0.2435  0.1897  0.1323
  981DOPE   C1B11508   4.503  32.029  15.057 -0.0216 -0.3235 -0.2169
  981DOPE   D2B11509   4.340  31.664  14.763 -0.3543 -0.0357 -0.1628
  981DOPE   C3B11510   4.342  31.448  14.324  0.0445  0.1908  0.0970
  981DOPE   C4B11511   4.462  31.153  13.991  0.0672 -0.0440  0.2696
  982POSM   NC311512   7.209  32.150  14.949  0.2311 -0.1155  0.0115
  982POSM   PO411513   7.449  32.450  15.009 -0.1900  0.1059 -0.2095
  982POSM   AM111514   7.394  32.474  14.669 -0.0679  0.2195  0.0020
  982POSM   AM211515   7.566  32.532  14.442  0.2561 -0.2354  0.4031
  982POSM   T1A11516   7.147  32.413  14.174  0.0787 -0.2383 -0.2492
  982POSM   C2A11517   6.966  32.528  13.811 -0.0994 -0.0634 -0.0077
  982POSM   C3A11518   6.920  32.898  13.519  0.1064 -0.1430 -0.0520
  982POSM   C1B11519   7.657  32.493  14.103 -0.0683  0.1400 -0.0416
  982POSM   D2B11520   7.991  32.379  13.750 -0.0117  0.2405 -0.0027
  982POSM   C3B11521   7.796  32.354  13.325 -0.2438  0.0711 -0.0052
  982POSM   C4B11522   7.509  32.250  12.925  0.0408  0.0926 -0.2424
  983DOPC   NC311523   8.606  28.529  15.277  0.1932 -0.0822 -0.1180
  983DOPC   PO411524   8.263  28.588  15.461 -0.0575 -0.3607  0.0325
  983DOPC   GL111525   8.119  28.458  15.178 -0.0936 -0.1797 -0.2886
  983DOPC   GL211526   8.084  28.203  15.190 -0.0773  0.0648  0.1209
  983DOPC   C1A11527   8.288  28.369  14.762 -0.0468 -0.3575 -0.0760
  983DOPC   D2A11528   8.455  28.003  14.534  0.1935  0.3733  0.2191
  983DOPC   C3A11529   8.768  27.899  14.195 -0.0025 -0.1382 -0.2158
  983DOPC   C4A11530   9.213  28.066  14.274  0.0159 -0.3234 -0.1397
  983DOPC   C1B11531   8.129  27.860  14.880  0.0273  0.0768 -0.0101
  983DOPC   D2B11532   7.910  27.790  14.493  0.1554 -0.0454 -0.1295
  983DOPC   C3B11533   8.201  27.901  14.130 -0.2520  0.0870  0.3024
  983DOPC   C4B11534   8.185  28.255  13.829 -0.0857 -0.0300 -0.0328
  984DOPE   NH311535   7.290  32.994  15.342 -0.0148 -0.4322 -0.1597
  984DOPE   PO411536   7.043  32.822  15.449 -0.0416 -0.1620  0.2871
  984DOPE   GL111537   6.733  33.025  15.214 -0.0952  0.0211 -0.1129
  984DOPE   GL211538   6.973  33.234  15.052  0.0658  0.2436  0.2254
  984DOPE   C1A11539   6.534  33.434  15.095 -0.2873  0.1625 -0.2640
  984DOPE   D2A11540   6.398  33.536  14.662  0.0087 -0.1987  0.1246
  984DOPE   C3A11541   6.689  33.656  14.298 -0.2291  0.0244  0.2298
  984DOPE   C4A11542   7.026  33.872  14.094 -0.1083 -0.0596 -0.2145
  984DOPE   C1B11543   6.985  33.613  14.803 -0.1417 -0.0763 -0.1174
  984DOPE   D2B11544   7.289  33.951  14.753  0.0554 -0.2125 -0.2471
  984DOPE   C3B11545   7.093  34.332  14.581  0.0051 -0.0345 -0.1114
  984DOPE   C4B11546   6.769  34.245  14.261  0.1184  0.0084 -0.2768
  985POSM   NC311547   6.933  24.608  15.531  0.1643  0.1335  0.1466
  985POSM   PO411548   7.094  24.247  15.621 -0.0426  0.1036  0.2329
  985POSM   AM111549   7.171  24.167  15.316  0.1761  0.5409 -0.2474
  985POSM   AM211550   7.336  24.237  15.140  0.2797  0.0219 -0.0237
  985POSM   T1A11551   7.251  23.803  14.991  0.0037 -0.0162  0.3217
  985POSM   C2A11552   7.213  23.596  14.585  0.0536 -0.1005 -0.0869
  985POSM   C3A11553   7.276  23.841  14.228 -0.1864 -0.0863  0.1730
  985POSM   C1B11554   7.293  24.486  14.863  0.2557 -0.0616  0.0073
  985POSM   D2B11555   7.226  24.502  14.461 -0.0762 -0.2307  0.0842
  985POSM   C3B11556   6.919  24.233  14.159 -0.2209 -0.1299 -0.0322
  985POSM   C4B11557   6.481  24.071  14.058 -0.0696  0.0907 -0.0538
  986DOPE   NH311558  10.100  33.235  14.915 -0.1222 -0.0175 -0.3495
  986DOPE   PO411559   9.795  33.185  14.894  0.1371 -0.1395 -0.1055
  986DOPE   GL111560   9.888  33.348  14.409 -0.0413 -0.1051 -0.1298
  986DOPE   GL211561  10.172  33.215  14.380 -0.1089 -0.0244 -0.0118
  986DOPE   C1A11562   9.764  33.293  14.009 -0.1688 -0.0154  0.1675
  986DOPE   D2A11563   9.986  33.163  13.593 -0.0199 -0.1020 -0.4768
  986DOPE   C3A11564  10.069  33.303  13.222  0.0006  0.2771  0.0267
  986DOPE   C4A11565   9.681  33.295  12.984  0.0973 -0.2531 -0.1899
  986DOPE   C1B11566  10.250  33.358  13.938  0.0330 -0.2465  0.1996
  986DOPE   D2B11567  10.515  33.378  13.556  0.0143 -0.1017 -0.2160
  986DOPE   C3B11568  10.309  33.757  13.347  0.0642 -0.0482 -0.1427
  986DOPE   C4B11569  10.343  33.996  12.959  0.1766  0.1729 -0.1419
  987DOPE   NH311570   0.530  26.472  15.738 -0.2526  0.0314  0.1562
  987DOPE   PO411571   0.560  26.693  15.520 -0.0680  0.2233 -0.1512
  987DOPE   GL111572   0.640  27.104  15.543 -0.1961 -0.0195  0.1887
  987DOPE   GL211573   0.982  27.061  15.623  0.0899  0.2124 -0.3784
  987DOPE   C1A11574   0.835  27.364  15.226 -0.1657  0.3572 -0.2578
  987DOPE   D2A11575   0.802  27.676  14.912 -0.0212  0.0209 -0.1020
  987DOPE   C3A11576   0.558  27.644  14.583  0.1231  0.1841  0.0087
  987DOPE   C4A11577   0.351  27.957  14.292 -0.0258  0.1596 -0.1517
  987DOPE   C1B11578   1.156  26.867  15.231  0.4146 -0.0706 -0.0425
  987DOPE   D2B11579   1.353  26.688  14.868 -0.0143  0.2584 -0.0866
  987DOPE   C3B11580   1.197  26.929  14.458 -0.1466 -0.1000 -0.3824
  987DOPE   C4B11581   1.487  26.995  14.097  0.2077 -0.0895 -0.3318
  988DOPE   NH311582   8.600  30.117  15.279 -0.0863  0.1491 -0.1474
  988DOPE   PO411583   8.267  30.076  15.318 -0.0491  0.0593 -0.0366
  988DOPE   GL111584   8.311  29.957  14.915  0.3191 -0.2335 -0.0094
  988DOPE   GL211585   8.425  29.761  14.936  0.2051 -0.2146  0.2169
  988DOPE   C1A11586   8.231  30.130  14.446  0.0762 -0.1067  0.0093
  988DOPE   D2A11587   7.932  29.991  14.106 -0.1105 -0.1605  0.1442
  988DOPE   C3A11588   7.636  30.175  13.853 -0.1945  0.0627  0.0042
  988DOPE   C4A11589   7.221  30.463  13.789  0.1026 -0.0286 -0.1088
  988DOPE   C1B11590   8.262  29.652  14.482  0.3832 -0.1368  0.0199
  988DOPE   D2B11591   8.376  29.734  14.016 -0.0314 -0.6372  0.0567
  988DOPE   C3B11592   8.203  29.892  13.658  0.0458  0.0203 -0.2407
  988DOPE   C4B11593   8.051  30.332  13.555  0.0822  0.0547 -0.1499
  989DOPE   NH311594   1.498  24.564  15.882 -0.0389 -0.3729  0.3600
  989DOPE   PO411595   1.367  24.396  16.152  0.1409 -0.0703  0.0452
  989DOPE   GL111596   1.222  24.235  15.898  0.0841 -0.3019  0.2637
  989DOPE   GL211597   1.087  24.360  15.694  0.0016 -0.0295 -0.1503
  989DOPE   C1A11598   1.105  23.826  15.748 -0.0127  0.2242 -0.3245
  989DOPE   D2A11599   1.012  23.331  15.659 -0.0926 -0.1837 -0.1839
  989DOPE   C3A11600   1.005  23.212  15.267 -0.0830 -0.1058 -0.0715
  989DOPE   C4A11601   1.029  23.321  14.783  0.0442  0.0389 -0.2353
  989DOPE   C1B11602   1.442  24.225  15.432 -0.0074  0.0469  0.1504
  989DOPE   D2B11603   1.666  24.007  15.080  0.2777 -0.1577 -0.0250
  989DOPE   C3B11604   1.881  24.167  14.675  0.4518 -0.0355 -0.3359
  989DOPE   C4B11605   2.218  24.490  14.589 -0.0908  0.0601  0.2336
  990POSM   NC311606  10.019  26.134  15.702  0.2241  0.3226 -0.2063
  990POSM   PO411607   9.676  25.958  15.828 -0.0637 -0.1803  0.2844
  990POSM   AM111608   9.550  26.034  15.539  0.0524  0.4031 -0.0565
  990POSM   AM211609   9.348  26.104  15.384  0.1289  0.2358  0.1459
  990POSM   T1A11610   9.673  25.951  15.073  0.1278 -0.1950  0.2408
  990POSM   C2A11611   9.687  26.149  14.623 -0.0096 -0.1526  0.0548
  990POSM   C3A11612   9.857  26.378  14.253 -0.1838  0.1282  0.1119
  990POSM   C1B11613   9.166  26.020  15.081  0.0284 -0.1547 -0.4024
  990POSM   D2B11614   9.207  25.748  14.680 -0.0696 -0.0849  0.1899
  990POSM   C3B11615   9.665  25.618  14.544 -0.1369 -0.1863 -0.0580
  990POSM   C4B11616   9.952  25.297  14.306 -0.2177  0.1372 -0.3105
  991DOPE   NH311617   8.720  31.897  15.054 -0.1935 -0.1901 -0.4761
  991DOPE   PO411618   8.817  31.613  15.088  0.0249  0.1009 -0.0852
  991DOPE   GL111619   8.772  31.570  14.669 -0.1206 -0.1029  0.0656
  991DOPE   GL211620   8.786  31.779  14.527 -0.2473 -0.1146  0.2612
  991DOPE   C1A11621   8.583  31.330  14.320 -0.1378 -0.0417  0.1235
  991DOPE   D2A11622   8.604  30.928  14.118  0.1844  0.2688  0.3573
  991DOPE   C3A11623   8.429  30.648  14.394  0.2879  0.2112 -0.2481
  991DOPE   C4A11624   8.477  30.438  14.828 -0.1311  0.0527  0.1067
  991DOPE   C1B11625   8.686  31.712  14.070  0.1825  0.1252  0.1709
  991DOPE   D2B11626   8.811  31.577  13.607  0.0056  0.2885  0.3107
  991DOPE   C3B11627   8.780  32.006  13.378  0.1190 -0.1939 -0.1262
  991DOPE   C4B11628   8.779  32.197  13.001  0.0067  0.2811  0.0891
  992DOPE   NH311629   9.605  33.504  15.219 -0.0905 -0.1517 -0.1638
  992DOPE   PO411630   9.385  33.754  15.217  0.3447  0.0978  0.2018
  992DOPE   GL111631   9.480  33.921  14.822  0.1313  0.2057  0.0516
  992DOPE   GL211632   9.642  33.698  14.688  0.3351  0.2880 -0.2485
  992DOPE   C1A11633   9.189  33.958  14.495 -0.1295 -0.0249  0.5013
  992DOPE   D2A11634   8.803  33.923  14.265  0.1434  0.2574  0.0992
  992DOPE   C3A11635   8.693  33.997  13.831  0.0412  0.1943 -0.3467
  992DOPE   C4A11636   9.005  34.176  13.517  0.2312 -0.1599  0.3475
  992DOPE   C1B11637   9.702  34.096  14.461 -0.0719 -0.2413 -0.2447
  992DOPE   D2B11638   9.882  34.531  14.481  0.2057 -0.1105  0.2056
  992DOPE   C3B11639  10.041  34.571  14.037  0.0632  0.0904 -0.0314
  992DOPE   C4B11640   9.926  34.583  13.589 -0.2621  0.1570 -0.2445
  993POSM   NC311641   7.489  27.365  15.475 -0.3938  0.1748  0.1352
  993POSM   PO411642   7.820  27.572  15.522  0.0936  0.2278  0.0535
  993POSM   AM111643   8.045  27.423  15.397 -0.0133  0.1987 -0.2961
  993POSM   AM211644   8.207  27.503  15.168 -0.1032  0.0659  0.1286
  993POSM   T1A11645   8.176  26.970  15.205 -0.2339  0.1046 -0.2529
  993POSM   C2A11646   8.554  26.743  15.173  0.1581  0.0702  0.2039
  993POSM   C3A11647   8.863  26.366  15.088  0.0826 -0.0910  0.5137
  993POSM   C1B11648   8.481  27.412  14.925  0.3038  0.0365  0.0493
  993POSM   D2B11649   8.775  27.172  14.697  0.0368  0.1567  0.2009
  993POSM   C3B11650   8.445  26.821  14.668  0.3114 -0.2551 -0.2183
  993POSM   C4B11651   8.084  26.816  14.413 -0.0765 -0.1884 -0.3715
  994DOPC   NC311652   3.152  31.882  16.023 -0.0252 -0.0807 -0.0178
  994DOPC   PO411653   3.338  31.690  15.722  0.1200  0.2002  0.0784
  994DOPC   GL111654   3.063  31.426  15.505 -0.2190 -0.1028 -0.2691
  994DOPC   GL211655   3.353  31.304  15.386  0.1180 -0.0544  0.1801
  994DOPC   C1A11656   2.898  31.020  15.552  0.2232 -0.1638  0.1347
  994DOPC   D2A11657   2.607  30.717  15.663 -0.0053 -0.1042  0.2462
  994DOPC   C3A11658   2.556  30.362  15.292  0.1143 -0.0301  0.0585
  994DOPC   C4A11659   2.512  30.017  15.029 -0.2222 -0.0877  0.1495
  994DOPC   C1B11660   2.967  31.183  15.061 -0.0937  0.2086  0.0196
  994DOPC   D2B11661   2.753  30.777  15.134  0.1862 -0.2719 -0.2371
  994DOPC   C3B11662   2.494  30.471  14.835  0.1424  0.1677 -0.0705
  994DOPC   C4B11663   2.497  30.271  14.434 -0.0828  0.0734  0.0825
  995DOPE   NH311664   1.713  25.453  15.718  0.2834  0.3628  0.2274
  995DOPE   PO411665   2.011  25.448  15.759  0.1675  0.0300 -0.2482
  995DOPE   GL111666   1.955  25.485  15.315 -0.7772  0.2933 -0.2246
  995DOPE   GL211667   1.899  25.738  15.288 -0.2548 -0.1071  0.2439
  995DOPE   C1A11668   1.875  25.430  14.879  0.0141 -0.2761 -0.1186
  995DOPE   D2A11669   1.877  25.237  14.439 -0.2475 -0.2959 -0.0554
  995DOPE   C3A11670   2.131  25.381  14.094 -0.0049 -0.1063  0.1732
  995DOPE   C4A11671   2.157  25.853  14.109  0.0527 -0.0512  0.1264
  995DOPE   C1B11672   1.933  25.984  14.889  0.0390  0.0525  0.1218
  995DOPE   D2B11673   1.955  26.125  14.428  0.0864 -0.0132  0.0706
  995DOPE   C3B11674   2.079  26.542  14.283  0.2454  0.2021 -0.2100
  995DOPE   C4B11675   2.373  26.838  13.963 -0.0423 -0.2079  0.1059
  996DOPC   NC311676  10.708  29.798  15.435 -0.1934 -0.1447  0.2100
  996DOPC   PO411677  10.593  29.472  15.630 -0.2739  0.1222 -0.1955
  996DOPC   GL111678  10.470  29.467  15.172 -0.2306  0.1044 -0.5739
  996DOPC   GL211679  10.749  29.366  15.105 -0.0550 -0.0724  0.0274
  996DOPC   C1A11680  10.340  29.619  14.750  0.0818  0.0936 -0.0643
  996DOPC   D2A11681  10.331  29.789  14.302 -0.1012 -0.1034  0.1125
  996DOPC   C3A11682  10.244  29.574  13.964 -0.1734  0.1756 -0.1899
  996DOPC   C4A11683   9.851  29.625  13.702  0.1147  0.1136  0.4123
  996DOPC   C1B11684  10.582  29.172  14.686  0.2151  0.0199 -0.2414
  996DOPC   D2B11685  10.593  29.050  14.195 -0.0133 -0.0086 -0.0512
  996DOPC   C3B11686  10.849  28.931  13.798  0.1005 -0.0277 -0.0588
  996DOPC   C4B11687  11.210  28.964  13.528  0.0041 -0.0666  0.2328
  997POSM   NC311688   2.359  23.846  15.813 -0.0130  0.0030  0.0445
  997POSM   PO411689   2.079  23.862  16.101  0.2488  0.1122 -0.0930
  997POSM   AM111690   1.914  23.641  15.933  0.1133  0.2044  0.1113
  997POSM   AM211691   1.872  23.387  15.894  0.1421 -0.0544  0.2560
  997POSM   T1A11692   1.561  23.679  15.584 -0.0732  0.1469  0.0044
  997POSM   C2A11693   1.281  23.596  15.221  0.2057  0.2436 -0.2352
  997POSM   C3A11694   1.405  23.632  14.788 -0.0297  0.2911 -0.2432
  997POSM   C1B11695   1.700  23.177  15.749  0.2938  0.0175  0.1192
  997POSM   D2B11696   1.419  23.037  15.480 -0.1251 -0.1571  0.1246
  997POSM   C3B11697   1.434  23.085  15.033  0.0142  0.5227  0.0904
  997POSM   C4B11698   1.529  23.185  14.579 -0.1000 -0.0378 -0.0240
  998DOPE   NH311699   7.619  25.885  15.922 -0.0543 -0.1373  0.1696
  998DOPE   PO411700   7.789  25.796  16.199  0.2922  0.2940  0.1250
  998DOPE   GL111701   8.008  25.860  15.745 -0.1046 -0.1729 -0.2908
  998DOPE   GL211702   8.225  26.077  15.652  0.1200  0.0325  0.1476
  998DOPE   C1A11703   8.081  25.840  15.269  0.2387  0.1177 -0.2721
  998DOPE   D2A11704   8.264  25.833  14.840 -0.1060 -0.2408 -0.0256
  998DOPE   C3A11705   8.503  25.658  14.501 -0.2120  0.1794 -0.2023
  998DOPE   C4A11706   8.685  25.503  14.140 -0.0303 -0.0273  0.0124
  998DOPE   C1B11707   8.401  26.219  15.214  0.2994 -0.1579 -0.0101
  998DOPE   D2B11708   8.385  26.338  14.756  0.1208  0.0295 -0.1261
  998DOPE   C3B11709   8.278  26.131  14.352  0.0326 -0.1373  0.1340
  998DOPE   C4B11710   8.514  25.950  13.951 -0.0586 -0.2775 -0.1205
  999DOPE   NH311711  10.581  26.899  15.807 -0.0877  0.0920 -0.0380
  999DOPE   PO411712  10.426  27.066  15.601 -0.0978  0.1067 -0.0549
  999DOPE   GL111713  10.110  26.981  15.365 -0.0980 -0.1806  0.3020
  999DOPE   GL211714  10.264  26.877  15.135 -0.0050 -0.1546 -0.1330
  999DOPE   C1A11715   9.848  27.303  15.162  0.3817  0.2390  0.2380
  999DOPE   D2A11716  10.011  27.691  14.907  0.0808 -0.0612  0.0950
  999DOPE   C3A11717  10.088  27.631  14.490  0.2419  0.1639 -0.1904
  999DOPE   C4A11718  10.206  27.709  14.060 -0.0663 -0.0862  0.0516
  999DOPE   C1B11719   9.861  26.867  14.935  0.1543  0.3221 -0.0960
  999DOPE   D2B11720   9.667  26.682  14.558 -0.3942 -0.2935 -0.0062
  999DOPE   C3B11721   9.706  26.865  14.125  0.0730  0.0326  0.1134
  999DOPE   C4B11722   9.480  26.886  13.671  0.1531 -0.0114  0.2081
 1000POSM   NC311723   3.702  24.514  15.745 -0.2707 -0.2676  0.0576
 1000POSM   PO411724   3.906  24.253  15.966  0.1699  0.0181  0.0847
 1000POSM   AM111725   4.096  24.316  15.691  0.0515 -0.1653  0.4047
 1000POSM   AM211726   4.280  24.114  15.636  0.0837 -0.4936 -0.1034
 1000POSM   T1A11727   4.200  24.545  15.224 -0.1634  0.0809  0.0451
 1000POSM   C2A11728   4.400  24.835  14.885 -0.1310 -0.1515 -0.1480
 1000POSM   C3A11729   4.298  25.076  14.427 -0.2302  0.0233  0.0880
 1000POSM   C1B11730   4.255  24.059  15.299  0.1182 -0.0508 -0.0070
 1000POSM   D2B11731   4.276  23.952  14.866 -0.0234  0.1170 -0.3018
 1000POSM   C3B11732   4.050  23.610  14.633 -0.0382  0.0461 -0.4111
 1000POSM   C4B11733   3.618  23.595  14.457 -0.3743 -0.0229  0.2155
 1001DOPS   CNO11734   7.327  24.648  15.889  0.2353 -0.0414  0.0483
 1001DOPS   PO411735   7.291  25.025  15.948  0.0835  0.0414 -0.2073
 1001DOPS   GL111736   7.437  25.253  15.649 -0.0537  0.0307 -0.0014
 1001DOPS   GL211737   7.190  25.226  15.483  0.2632 -0.3620  0.1510
 1001DOPS   C1A11738   7.583  25.110  15.205 -0.0387 -0.1337 -0.0299
 1001DOPS   D2A11739   7.537  24.870  14.843  0.1500 -0.3051  0.0176
 1001DOPS   C3A11740   7.285  25.173  14.603  0.1052  0.5046  0.3390
 1001DOPS   C4A11741   6.984  25.228  14.226 -0.0110  0.0028  0.2006
 1001DOPS   C1B11742   7.239  25.434  15.087 -0.0767  0.1098  0.1205
 1001DOPS   D2B11743   7.411  25.705  14.750  0.0592  0.0023  0.1522
 1001DOPS   C3B11744   7.364  25.573  14.320  0.1996  0.0575 -0.1645
 1001DOPS   C4B11745   7.178  25.583  13.891 -0.0996  0.1269 -0.0661
 1002DOPC   NC311746   3.514   0.046  15.909  0.0209  0.0594 -0.4550
 1002DOPC   PO411747   3.614  -0.315  15.750  0.3796  0.1769  0.1967
 1002DOPC   GL111748   3.477  -0.382  15.365  0.1194  0.1214  0.1543
 1002DOPC   GL211749   3.205  -0.370  15.195 -0.0635  0.2024  0.0922
 1002DOPC   C1A11750   3.441  -0.768  15.043 -0.3317 -0.0723 -0.1091
 1002DOPC   D2A11751   3.491  -1.233  14.952  0.2122  0.0086  0.2035
 1002DOPC   C3A11752   3.586  -1.356  14.501  0.1049 -0.2002 -0.0398
 1002DOPC   C4A11753   3.751  -1.307  14.060 -0.1153  0.2624  0.0179
 1002DOPC   C1B11754   3.250  -0.417  14.750 -0.0140 -0.0123 -0.1456
 1002DOPC   D2B11755   3.078  -0.654  14.397  0.2605 -0.0545  0.2810
 1002DOPC   C3B11756   3.109  -0.752  13.973 -0.0302  0.0272  0.0955
 1002DOPC   C4B11757   3.354  -0.762  13.531 -0.0089 -0.1911 -0.0314
 1003POSM   NC311758   5.181  29.128  16.026  0.1616  0.0910 -0.0450
 1003POSM   PO411759   5.465  29.271  15.773  0.1662  0.2298 -0.0944
 1003POSM   AM111760   5.475  29.292  15.412 -0.2272  0.0884 -0.0777
 1003POSM   AM211761   5.605  29.454  15.203 -0.3005 -0.1497 -0.2218
 1003POSM   T1A11762   5.239  29.129  15.012 -0.1390  0.0619  0.1421
 1003POSM   C2A11763   4.809  28.961  14.866 -0.0358 -0.1176 -0.0727
 1003POSM   C3A11764   4.389  28.780  14.996  0.1444 -0.1003 -0.1469
 1003POSM   C1B11765   5.468  29.633  14.971  0.0466  0.0471 -0.2460
 1003POSM   D2B11766   5.136  29.598  14.681 -0.4299  0.0661  0.2216
 1003POSM   C3B11767   4.971  29.191  14.505  0.3521 -0.0750  0.0120
 1003POSM   C4B11768   5.290  28.823  14.417 -0.1318  0.0081  0.0778
 1004DOPE   NH311769   6.771  25.663  16.052 -0.0041 -0.2533 -0.0530
 1004DOPE   PO411770   6.802  25.464  16.305  0.0735  0.2813 -0.0107
 1004DOPE   GL111771   6.872  25.200  15.942  0.1226  0.1409  0.1438
 1004DOPE   GL211772   6.643  25.106  15.967 -0.0600 -0.0836 -0.0203
 1004DOPE   C1A11773   6.685  25.131  15.463  0.3567  0.0888 -0.3290
 1004DOPE   D2A11774   6.569  25.274  15.013 -0.0564 -0.2227  0.2730
 1004DOPE   C3A11775   6.881  25.403  14.701  0.2980  0.0501  0.2375
 1004DOPE   C4A11776   6.925  25.758  14.469 -0.1214  0.1513  0.4273
 1004DOPE   C1B11777   6.307  25.303  15.718 -0.2766 -0.3517 -0.0166
 1004DOPE   D2B11778   6.403  25.725  15.493  0.1608 -0.0850  0.1316
 1004DOPE   C3B11779   6.138  25.630  15.107  0.1486  0.0992 -0.4124
 1004DOPE   C4B11780   6.007  25.404  14.724 -0.2195 -0.2213 -0.0260
 1005DOPS   CNO11781   5.879  23.651  16.235 -0.1212  0.1075  0.0969
 1005DOPS   PO411782   5.821  23.978  16.404  0.4029  0.0136  0.0625
 1005DOPS   GL111783   6.007  24.072  16.052 -0.3700 -0.0182  0.0367
 1005DOPS   GL211784   6.227  23.900  15.947  0.2082  0.5164  0.3500
 1005DOPS   C1A11785   5.791  23.815  15.694 -0.0907 -0.0640 -0.0454
 1005DOPS   D2A11786   5.710  23.836  15.218 -0.0151 -0.0455 -0.0505
 1005DOPS   C3A11787   5.534  23.465  15.019  0.1486 -0.0753 -0.1914
 1005DOPS   C4A11788   5.753  23.180  14.695 -0.3176 -0.0784 -0.0058
 1005DOPS   C1B11789   6.084  24.185  15.612  0.1675 -0.4651  0.0346
 1005DOPS   D2B11790   5.692  24.340  15.428  0.2416  0.2321 -0.0833
 1005DOPS   C3B11791   5.574  24.425  14.976  0.1475  0.1090 -0.2968
 1005DOPS   C4B11792   5.588  24.434  14.519  0.4774 -0.3410  0.0599
 1006DOPS   CNO11793   5.807  32.969  16.041 -0.2155  0.0640  0.2196
 1006DOPS   PO411794   5.484  33.060  15.922  0.0913 -0.0728 -0.0828
 1006DOPS   GL111795   5.536  33.090  15.541 -0.0201  0.0900  0.5513
 1006DOPS   GL211796   5.799  32.848  15.424 -0.2602 -0.2675 -0.1975
 1006DOPS   C1A11797   5.511  33.155  15.073  0.1166 -0.3062  0.1381
 1006DOPS   D2A11798   5.436  33.006  14.641  0.1245  0.0192 -0.1644
 1006DOPS   C3A11799   4.995  32.995  14.546  0.0989  0.1828  0.1479
 1006DOPS   C4A11800   4.571  33.131  14.674 -0.1529  0.2535 -0.1016
 1006DOPS   C1B11801   5.890  32.833  14.999 -0.0548 -0.0674 -0.1896
 1006DOPS   D2B11802   5.860  32.748  14.562 -0.2245  0.0978  0.0666
 1006DOPS   C3B11803   5.527  32.846  14.204 -0.1841 -0.2877 -0.0051
 1006DOPS   C4B11804   5.438  32.984  13.762 -0.2686  0.1934 -0.0145
 1007DOPE   NH311805  10.423  24.059  15.905 -0.0852 -0.0720  0.0606
 1007DOPE   PO411806  10.643  23.836  15.739  0.0878  0.2497 -0.0259
 1007DOPE   GL111807  10.943  23.616  15.650 -0.0397 -0.0580 -0.1253
 1007DOPE   GL211808  10.840  23.509  15.422  0.2847  0.3412 -0.0103
 1007DOPE   C1A11809  11.285  23.847  15.408  0.0999 -0.2360 -0.0744
 1007DOPE   D2A11810  11.752  23.956  15.321  0.1092  0.2119  0.2517
 1007DOPE   C3A11811  11.864  23.602  15.067  0.4511  0.0132 -0.1603
 1007DOPE   C4A11812  11.849  23.328  14.687 -0.0678 -0.0470 -0.4374
 1007DOPE   C1B11813  10.489  23.235  15.474 -0.2225 -0.0991 -0.0332
 1007DOPE   D2B11814  10.404  22.930  15.146 -0.1186  0.0183 -0.1043
 1007DOPE   C3B11815  10.746  22.818  14.800  0.3266 -0.2625  0.1309
 1007DOPE   C4B11816  10.918  22.900  14.375 -0.1920  0.1042  0.3157
 1008DOPC   NC311817   6.563  26.077  15.784 -0.0345 -0.0582 -0.3458
 1008DOPC   PO411818   6.437  26.019  16.172 -0.2472 -0.3006 -0.0725
 1008DOPC   GL111819   6.138  25.943  15.862  0.2323 -0.1535  0.1541
 1008DOPC   GL211820   6.124  25.691  15.942  0.2782  0.2070  0.2357
 1008DOPC   C1A11821   6.102  26.130  15.450  0.4063 -0.1599  0.0055
 1008DOPC   D2A11822   6.128  26.150  14.999 -0.0422 -0.0283  0.1755
 1008DOPC   C3A11823   5.931  25.930  14.674  0.3321 -0.1717 -0.0577
 1008DOPC   C4A11824   6.016  25.780  14.257 -0.0672 -0.1214 -0.0185
 1008DOPC   C1B11825   5.897  25.633  15.545  0.0339  0.1453  0.0817
 1008DOPC   D2B11826   5.495  25.491  15.455  0.3896 -0.2599  0.1179
 1008DOPC   C3B11827   5.152  25.806  15.285  0.0292  0.0194  0.1209
 1008DOPC   C4B11828   4.936  26.177  15.508  0.0785  0.2062 -0.1521
 1009DOPS   CNO11829  10.224  30.503  15.439 -0.0486  0.0082 -0.1983
 1009DOPS   PO411830  10.220  30.106  15.406 -0.0752  0.1724 -0.2559
 1009DOPS   GL111831  10.445  30.104  15.076 -0.1290 -0.2123 -0.3818
 1009DOPS   GL211832  10.638  30.338  14.992  0.0750 -0.3632 -0.0249
 1009DOPS   C1A11833  10.757  29.855  14.845  0.0332 -0.2664  0.0734
 1009DOPS   D2A11834  11.015  29.487  14.705 -0.0022 -0.2667  0.4063
 1009DOPS   C3A11835  10.982  29.495  14.240  0.0162  0.1280 -0.2849
 1009DOPS   C4A11836  10.909  29.493  13.785 -0.1471  0.0417 -0.2641
 1009DOPS   C1B11837  10.429  30.247  14.591  0.0431 -0.1553 -0.0428
 1009DOPS   D2B11838  10.192  30.242  14.174  0.3964  0.1058 -0.0904
 1009DOPS   C3B11839  10.303  30.026  13.796  0.1456  0.0964 -0.1243
 1009DOPS   C4B11840  10.035  30.027  13.366 -0.0080 -0.3872 -0.2791
 1010DOPE   NH311841   3.225  34.042  15.674  0.0905  0.0627  0.3034
 1010DOPE   PO411842   3.458  33.819  15.695 -0.0239 -0.3184  0.0984
 1010DOPE   GL111843   3.600  33.448  15.568  0.1262  0.5293  0.0906
 1010DOPE   GL211844   3.376  33.154  15.513 -0.0355 -0.3396  0.2098
 1010DOPE   C1A11845   3.876  33.514  15.202 -0.0010  0.0470 -0.0616
 1010DOPE   D2A11846   4.145  33.489  14.827  0.0278 -0.0053 -0.0533
 1010DOPE   C3A11847   4.176  33.343  14.404  0.0768  0.1301 -0.2783
 1010DOPE   C4A11848   4.137  33.047  14.083  0.3271 -0.0836 -0.0649
 1010DOPE   C1B11849   3.401  32.725  15.349 -0.3359 -0.2063  0.0284
 1010DOPE   D2B11850   3.637  32.369  15.187  0.2067  0.2548 -0.0842
 1010DOPE   C3B11851   3.483  32.169  14.866  0.0062  0.0699 -0.2121
 1010DOPE   C4B11852   3.223  31.886  14.572  0.1509  0.2988  0.4417
 1011DOPE   NH311853   8.392  31.465  14.965 -0.3160 -0.0266 -0.1457
 1011DOPE   PO411854   8.326  31.721  14.723 -0.2537 -0.0517 -0.0286
 1011DOPE   GL111855   8.166  31.425  14.434 -0.2185 -0.1920 -0.0438
 1011DOPE   GL211856   8.089  31.608  14.170 -0.2199  0.1530 -0.1478
 1011DOPE   C1A11857   8.117  31.099  14.106 -0.1320 -0.2991 -0.5618
 1011DOPE   D2A11858   8.205  30.965  13.725  0.0048  0.4431  0.1436
 1011DOPE   C3A11859   8.308  31.099  13.285  0.0698  0.0064  0.0382
 1011DOPE   C4A11860   8.502  30.893  12.910  0.3482  0.0376  0.1126
 1011DOPE   C1B11861   8.404  31.412  13.822 -0.0850 -0.1130 -0.1994
 1011DOPE   D2B11862   8.650  31.084  13.566  0.3274 -0.1037  0.0454
 1011DOPE   C3B11863   8.511  30.678  13.410  0.0989  0.2604  0.0671
 1011DOPE   C4B11864   8.499  30.361  13.033  0.1890  0.4223  0.0715
 1012DOPE   NH311865   6.831  28.388  15.469 -0.1132  0.1561  0.0735
 1012DOPE   PO411866   6.819  28.690  15.616 -0.2004  0.0133  0.2140
 1012DOPE   GL111867   7.100  28.732  15.268 -0.5549  0.0026  0.3139
 1012DOPE   GL211868   7.360  28.882  15.376 -0.0342  0.1571  0.0599
 1012DOPE   C1A11869   6.944  28.523  14.913  0.0695 -0.2485  0.2000
 1012DOPE   D2A11870   6.901  28.343  14.515 -0.1360  0.0211  0.0292
 1012DOPE   C3A11871   7.019  27.878  14.517  0.1593  0.2864 -0.2313
 1012DOPE   C4A11872   7.297  27.536  14.613 -0.0329 -0.1638 -0.1403
 1012DOPE   C1B11873   7.190  29.103  14.928  0.1646  0.0036 -0.0470
 1012DOPE   D2B11874   6.957  29.132  14.495  0.0682 -0.1337 -0.0647
 1012DOPE   C3B11875   7.188  29.286  14.074  0.1764  0.1752 -0.1510
 1012DOPE   C4B11876   7.167  29.414  13.599  0.2562  0.1269  0.3710
 1013DOPC   NC311877  10.412  33.780  15.313  0.2293 -0.0221 -0.1778
 1013DOPC   PO411878  10.529  33.448  15.116 -0.0194 -0.0082  0.0749
 1013DOPC   GL111879  10.974  33.496  15.006  0.2266  0.0146  0.1850
 1013DOPC   GL211880  10.933  33.796  15.149 -0.0812 -0.2277 -0.1278
 1013DOPC   C1A11881  11.285  33.504  14.597 -0.2082  0.2630  0.2080
 1013DOPC   D2A11882  11.354  33.446  14.133  0.0344 -0.3150  0.0830
 1013DOPC   C3A11883  11.341  33.565  13.690 -0.0415  0.0391 -0.1418
 1013DOPC   C4A11884  11.330  33.438  13.262 -0.0096  0.1374  0.2040
 1013DOPC   C1B11885  10.907  33.880  14.672 -0.0150 -0.1111  0.0035
 1013DOPC   D2B11886  11.040  33.850  14.238 -0.0511 -0.0397 -0.5176
 1013DOPC   C3B11887  11.096  34.177  13.924 -0.3775  0.1541  0.1036
 1013DOPC   C4B11888  11.264  34.072  13.493  0.0851  0.0841  0.0759
 1014POSM   NC311889   1.783  30.094  15.707 -0.3189  0.0268  0.1569
 1014POSM   PO411890   1.882  29.856  16.017  0.2301  0.0561 -0.0226
 1014POSM   AM111891   2.035  29.632  15.787  0.1183  0.0662  0.0696
 1014POSM   AM211892   2.124  29.366  15.757 -0.0718  0.4065  0.1956
 1014POSM   T1A11893   2.194  29.564  15.319 -0.2701 -0.1695 -0.1379
 1014POSM   C2A11894   2.407  29.424  14.939 -0.0353 -0.1607 -0.1501
 1014POSM   C3A11895   2.482  28.999  14.897  0.0050 -0.0287 -0.1180
 1014POSM   C1B11896   2.135  29.113  15.536 -0.0642  0.0231 -0.0670
 1014POSM   D2B11897   2.187  28.808  15.269 -0.0591 -0.2833 -0.0099
 1014POSM   C3B11898   1.760  28.700  15.160  0.0436  0.1168  0.0669
 1014POSM   C4B11899   1.435  28.444  14.897 -0.1631 -0.2297  0.1630
 1015POSM   NC311900  34.387  33.010  16.143 -0.2074 -0.0335  0.0220
 1015POSM   PO411901  34.032  33.002  15.945 -0.2484  0.0238 -0.0245
 1015POSM   AM111902  34.108  33.039  15.601  0.4172  0.3824  0.0193
 1015POSM   AM211903  34.178  32.891  15.383  0.0629 -0.3497  0.1799
 1015POSM   T1A11904  34.314  33.361  15.289 -0.0099 -0.1341 -0.0775
 1015POSM   C2A11905  34.128  33.798  15.102 -0.0235  0.1027  0.0207
 1015POSM   C3A11906  34.198  34.192  14.860  0.1319 -0.0956  0.0290
 1015POSM   C1B11907  34.259  32.857  15.017  0.2431 -0.1349  0.1735
 1015POSM   D2B11908  34.475  32.611  14.721  0.0845  0.0440  0.2599
 1015POSM   C3B11909  34.796  32.641  14.381 -0.0162  0.1446  0.2058
 1015POSM   C4B11910  35.151  32.532  14.183  0.2667 -0.0550  0.0255
 1016DOPC   NC311911   5.060  27.861  15.772  0.0801 -0.1136  0.0664
 1016DOPC   PO411912   5.436  27.799  15.812 -0.0572 -0.1308 -0.3588
 1016DOPC   GL111913   5.465  27.349  15.637 -0.1702  0.1314 -0.0436
 1016DOPC   GL211914   5.750  27.410  15.487 -0.2401  0.1300 -0.2206
 1016DOPC   C1A11915   5.449  27.110  15.240  0.4010 -0.0649  0.2335
 1016DOPC   D2A11916   5.362  26.821  14.900 -0.1241  0.0465  0.1558
 1016DOPC   C3A11917   5.534  26.664  14.513 -0.0330  0.0372  0.0533
 1016DOPC   C4A11918   5.487  26.577  14.080  0.4703  0.0008 -0.2688
 1016DOPC   C1B11919   5.772  27.649  15.153  0.2648  0.1482  0.1722
 1016DOPC   D2B11920   5.634  28.010  14.929 -0.0339  0.1733 -0.0445
 1016DOPC   C3B11921   5.574  28.217  14.550  0.3881  0.0497  0.0598
 1016DOPC   C4B11922   5.766  28.598  14.309 -0.1147  0.2868 -0.2220
 1017DOPC   NC311923   7.720  28.130  15.543 -0.1066 -0.1251  0.0788
 1017DOPC   PO411924   7.658  28.507  15.638 -0.0922 -0.2849 -0.1409
 1017DOPC   GL111925   7.711  28.516  15.218  0.0549 -0.3905  0.2813
 1017DOPC   GL211926   7.379  28.338  15.231  0.1064  0.0228  0.0619
 1017DOPC   C1A11927   7.926  28.748  14.876 -0.1448 -0.0155  0.0064
 1017DOPC   D2A11928   8.351  28.833  14.739  0.0262  0.0572 -0.1151
 1017DOPC   C3A11929   8.782  28.794  14.500 -0.1839  0.0917 -0.0603
 1017DOPC   C4A11930   9.210  28.554  14.491  0.2614 -0.2453  0.2256
 1017DOPC   C1B11931   7.443  28.657  14.910 -0.0778  0.0241  0.1611
 1017DOPC   D2B11932   7.226  28.717  14.443 -0.1767  0.2488 -0.0866
 1017DOPC   C3B11933   7.441  28.512  14.054  0.0449  0.1018  0.0985
 1017DOPC   C4B11934   7.531  28.454  13.616  0.1356  0.3251  0.3893
 1018DOPS   CNO11935   1.538  31.369  15.816  0.0475  0.1229 -0.1512
 1018DOPS   PO411936   1.253  31.378  16.059  0.0028  0.0083  0.1088
 1018DOPS   GL111937   1.070  31.525  15.751  0.2520  0.1392  0.1895
 1018DOPS   GL211938   0.752  31.496  15.755  0.1260 -0.0740  0.0859
 1018DOPS   C1A11939   1.015  31.767  15.352  0.1480 -0.1712 -0.1538
 1018DOPS   D2A11940   1.079  31.905  14.923  0.0834  0.2335  0.1892
 1018DOPS   C3A11941   1.061  31.717  14.504 -0.2405 -0.2364  0.1714
 1018DOPS   C4A11942   1.102  31.856  14.106 -0.3570  0.3643 -0.0072
 1018DOPS   C1B11943   0.540  31.607  15.381  0.0924 -0.1386  0.1138
 1018DOPS   D2B11944   0.666  31.672  14.960  0.0847  0.0619 -0.1799
 1018DOPS   C3B11945   1.129  31.386  14.913 -0.1988 -0.0005  0.0416
 1018DOPS   C4B11946   1.514  31.602  14.752  0.0277 -0.0694  0.0004
 1019DOPE   NH311947   7.763  24.868  15.679  0.3134 -0.0659 -0.4552
 1019DOPE   PO411948   7.837  24.563  15.736  0.1281 -0.0222  0.1678
 1019DOPE   GL111949   7.649  24.529  15.372  0.1025  0.0719 -0.0023
 1019DOPE   GL211950   7.370  24.686  15.374  0.2086  0.0734  0.0737
 1019DOPE   C1A11951   7.791  24.445  14.947 -0.0723  0.0492 -0.0120
 1019DOPE   D2A11952   7.766  24.442  14.444 -0.0470 -0.1196 -0.3118
 1019DOPE   C3A11953   7.631  24.895  14.318  0.0095 -0.1287  0.2165
 1019DOPE   C4A11954   7.722  25.304  14.055  0.1877 -0.0348  0.0298
 1019DOPE   C1B11955   7.032  24.881  15.122 -0.0815 -0.2262 -0.0605
 1019DOPE   D2B11956   6.806  24.857  14.685  0.2160 -0.1901  0.0658
 1019DOPE   C3B11957   6.408  25.119  14.471  0.0387 -0.0893 -0.0578
 1019DOPE   C4B11958   6.158  25.223  14.183  0.0446 -0.2379 -0.1206
 1020DOPS   CNO11959   9.309  28.198  15.421  0.4418  0.2725  0.1449
 1020DOPS   PO411960   9.164  28.436  15.639  0.1520 -0.0170  0.1660
 1020DOPS   GL111961   9.089  28.620  15.255  0.2627  0.3851  0.1563
 1020DOPS   GL211962   9.038  28.476  15.006  0.4436 -0.2569 -0.0298
 1020DOPS   C1A11963   9.393  28.888  14.930  0.0967 -0.1150  0.2149
 1020DOPS   D2A11964   9.645  29.051  14.581 -0.1125  0.0864 -0.4267
 1020DOPS   C3A11965   9.669  29.018  14.117  0.0415  0.0147  0.3061
 1020DOPS   C4A11966  10.011  29.091  13.774 -0.0754  0.1482 -0.0892
 1020DOPS   C1B11967   9.165  28.130  14.809  0.0277  0.5334 -0.3037
 1020DOPS   D2B11968   8.945  27.737  14.767 -0.4070  0.0903  0.1296
 1020DOPS   C3B11969   9.027  27.447  14.371  0.0499 -0.1759 -0.3780
 1020DOPS   C4B11970   8.943  27.440  13.904  0.1870 -0.2366 -0.0429
 1021DOPE   NH311971  10.225  25.161  12.543  0.0073  0.0668  0.0174
 1021DOPE   PO411972  10.554  25.332  12.546  0.1181  0.2183 -0.2031
 1021DOPE   GL111973  10.857  25.333  12.563 -0.1213 -0.0255 -0.0793
 1021DOPE   GL211974  10.942  25.226  12.273 -0.1336  0.1194  0.3634
 1021DOPE   C1A11975  11.099  24.999  12.710 -0.1695 -0.1460  0.0106
 1021DOPE   D2A11976  11.442  24.916  13.005 -0.0322 -0.1980  0.1782
 1021DOPE   C3A11977  11.796  25.029  13.273 -0.2009  0.1962 -0.0233
 1021DOPE   C4A11978  12.111  24.817  13.587  0.0796 -0.2145 -0.0302
 1021DOPE   C1B11979  11.341  24.979  12.202 -0.0027  0.0126  0.0327
 1021DOPE   D2B11980  11.699  24.911  11.990  0.1956 -0.1048 -0.2863
 1021DOPE   C3B11981  11.973  24.527  12.137  0.1544 -0.1415  0.1150
 1021DOPE   C4B11982  12.125  24.094  12.155  0.2079  0.0682  0.0814
 1022DOPS   CNO11983   1.828  27.439  12.112  0.1997 -0.2990  0.2073
 1022DOPS   PO411984   1.742  27.341  12.474  0.1544 -0.3371 -0.1609
 1022DOPS   GL111985   1.779  27.158  12.710  0.0861 -0.3551  0.0162
 1022DOPS   GL211986   1.581  26.941  12.729 -0.1570 -0.4163  0.2608
 1022DOPS   C1A11987   1.984  26.843  12.971 -0.1956 -0.0333  0.1195
 1022DOPS   D2A11988   2.081  26.658  13.380 -0.0253 -0.0924 -0.0206
 1022DOPS   C3A11989   2.322  26.349  13.189 -0.2867  0.2592  0.0672
 1022DOPS   C4A11990   2.362  26.174  12.725 -0.1110 -0.1494 -0.3353
 1022DOPS   C1B11991   1.509  26.727  13.084 -0.1011  0.0426 -0.0032
 1022DOPS   D2B11992   1.598  26.524  13.490 -0.0122 -0.0174 -0.2337
 1022DOPS   C3B11993   1.269  26.812  13.715 -0.1097 -0.0659 -0.0314
 1022DOPS   C4B11994   1.062  27.205  13.826 -0.0719 -0.0285 -0.2457
 1023DOPE   NH311995   9.613  25.320  12.245 -0.0162 -0.1368  0.1155
 1023DOPE   PO411996   9.766  25.477  12.467  0.1116 -0.0580  0.1425
 1023DOPE   GL111997   9.654  25.568  12.829 -0.3544  0.5557  0.1482
 1023DOPE   GL211998   9.883  25.393  12.985  0.0549  0.1347 -0.2170
 1023DOPE   C1A11999   9.611  25.849  13.156 -0.0361 -0.0916  0.1832
 1023DOPE   D2A12000   9.381  25.948  13.550 -0.0609  0.1249 -0.0534
 1023DOPE   C3A12001   9.589  26.258  13.889 -0.0763  0.0661 -0.0811
 1023DOPE   C4A12002   9.924  26.599  13.698  0.1672 -0.0019  0.1363
 1023DOPE   C1B12003   9.966  25.549  13.429  0.4722 -0.2141 -0.1403
 1023DOPE   D2B12004  10.141  25.657  13.778 -0.2304 -0.1453  0.0728
 1023DOPE   C3B12005  10.018  25.807  14.202  0.2183  0.0075  0.0905
 1023DOPE   C4B12006  10.112  25.898  14.639  0.2091  0.3827  0.0974
 1024DOPE   NH312007  10.206  24.671  12.331 -0.0075  0.1680  0.1830
 1024DOPE   PO412008  10.223  24.661  12.671  0.0636  0.2960 -0.2079
 1024DOPE   GL112009  10.078  24.839  12.926 -0.1672 -0.0249 -0.0672
 1024DOPE   GL212010  10.282  25.089  13.011 -0.1962  0.0519  0.0123
 1024DOPE   C1A12011  10.103  24.624  13.348 -0.0242  0.1490 -0.1493
 1024DOPE   D2A12012  10.330  24.560  13.778  0.0994 -0.1734 -0.2200
 1024DOPE   C3A12013  10.644  24.247  13.838 -0.0270  0.4709 -0.3862
 1024DOPE   C4A12014  10.934  24.052  14.133  0.0007 -0.0164 -0.1880
 1024DOPE   C1B12015  10.734  25.229  13.115  0.2396  0.1445  0.0843
 1024DOPE   D2B12016  11.069  25.002  13.301 -0.0742 -0.0354  0.1289
 1024DOPE   C3B12017  10.930  24.719  13.653 -0.2265 -0.1135  0.2411
 1024DOPE   C4B12018  10.727  24.855  14.087  0.2660 -0.0389 -0.0703
 1025DOPC   NC312019   9.992  25.920  12.159 -0.3172  0.2616 -0.3532
 1025DOPC   PO412020  10.206  25.615  12.234  0.0160 -0.3279 -0.0844
 1025DOPC   GL112021  10.205  25.622  12.649 -0.0553 -0.0056 -0.0915
 1025DOPC   GL212022   9.963  25.873  12.652  0.1659  0.1376  0.0170
 1025DOPC   C1A12023  10.349  25.666  13.072  0.0528  0.0278  0.0008
 1025DOPC   D2A12024  10.505  25.430  13.479 -0.3349  0.3098  0.2361
 1025DOPC   C3A12025  10.493  24.967  13.485 -0.0252  0.3513 -0.0672
 1025DOPC   C4A12026  10.574  24.461  13.355  0.2033 -0.0033  0.1463
 1025DOPC   C1B12027  10.075  26.134  13.051  0.0883  0.0942  0.1330
 1025DOPC   D2B12028  10.271  26.298  13.438 -0.1274  0.1605 -0.0010
 1025DOPC   C3B12029  10.589  25.964  13.606  0.1274 -0.2254 -0.1624
 1025DOPC   C4B12030  11.019  25.810  13.762 -0.0464 -0.1714  0.1815
 1026DOPC   NC312031   2.005  30.404  12.615 -0.5373  0.2984 -0.3899
 1026DOPC   PO412032   1.682  30.508  12.802  0.1722  0.0216 -0.0875
 1026DOPC   GL112033   1.606  30.389  13.165 -0.2896  0.4354 -0.1679
 1026DOPC   GL212034   1.537  30.615  13.365  0.2490  0.1060 -0.1306
 1026DOPC   C1A12035   2.009  30.353  13.389  0.1131 -0.0475  0.1681
 1026DOPC   D2A12036   2.175  30.752  13.571 -0.0638  0.3254 -0.2348
 1026DOPC   C3A12037   2.292  30.650  14.052  0.0065 -0.0620 -0.0499
 1026DOPC   C4A12038   2.139  30.580  14.501 -0.0557  0.4790 -0.0098
 1026DOPC   C1B12039   1.678  30.617  13.775  0.1600  0.0750  0.1628
 1026DOPC   D2B12040   1.746  30.477  14.201 -0.0230  0.1526  0.1271
 1026DOPC   C3B12041   2.015  30.127  14.239 -0.3420 -0.3147 -0.0567
 1026DOPC   C4B12042   2.103  29.671  14.162 -0.3544  0.0747  0.0410
 1027DOPE   NH312043   0.803  31.389  12.569  0.0816  0.0476  0.0041
 1027DOPE   PO412044   0.579  31.463  12.803 -0.0769 -0.0110 -0.0591
 1027DOPE   GL112045   0.308  31.655  13.100  0.0684  0.2177 -0.2269
 1027DOPE   GL212046   0.217  31.335  13.160  0.1825  0.0457  0.2177
 1027DOPE   C1A12047  -0.094  31.643  13.334  0.1505  0.4049 -0.2509
 1027DOPE   D2A12048  -0.233  31.523  13.760  0.0231  0.0983  0.3126
 1027DOPE   C3A12049  -0.353  31.900  14.063 -0.2242 -0.1415 -0.1150
 1027DOPE   C4A12050  -0.300  32.288  14.329  0.2826 -0.2715 -0.0959
 1027DOPE   C1B12051   0.223  31.307  13.622 -0.0678 -0.3417 -0.0903
 1027DOPE   D2B12052   0.212  31.539  14.027  0.0359 -0.0089  0.0662
 1027DOPE   C3B12053  -0.149  31.470  14.268 -0.1678 -0.2337  0.1101
 1027DOPE   C4B12054  -0.491  31.555  14.456  0.1717 -0.2468 -0.1327
 1028DOPE   NH312055  11.310  33.499  11.213 -0.0206  0.5252 -0.1809
 1028DOPE   PO412056  11.370  33.168  11.287 -0.0539 -0.2018  0.0903
 1028DOPE   GL112057  11.438  32.935  11.664  0.1996  0.0929  0.1570
 1028DOPE   GL212058  11.266  32.693  11.530 -0.0693 -0.2527 -0.0765
 1028DOPE   C1A12059  11.806  32.668  11.785 -0.0275 -0.1633 -0.0917
 1028DOPE   D2A12060  11.796  32.180  11.959  0.1044 -0.2348 -0.0576
 1028DOPE   C3A12061  11.866  32.181  12.380 -0.3218 -0.0159  0.2779
 1028DOPE   C4A12062  11.613  32.010  12.723 -0.1991  0.2627 -0.0637
 1028DOPE   C1B12063  11.375  32.277  11.759 -0.0708 -0.1413  0.1070
 1028DOPE   D2B12064  11.052  32.034  11.844  0.2002  0.1037  0.0075
 1028DOPE   C3B12065  10.856  31.976  12.229 -0.2405 -0.0130  0.2932
 1028DOPE   C4B12066  11.066  31.836  12.641 -0.1065 -0.2854  0.4293
 1029DOPE   NH312067   6.371  27.315  12.168  0.0173 -0.0136  0.0557
 1029DOPE   PO412068   6.612  27.528  12.105  0.2067  0.1468  0.0864
 1029DOPE   GL112069   6.655  27.967  12.235  0.0403  0.0363  0.1106
 1029DOPE   GL212070   6.902  27.981  12.427  0.1767  0.1771  0.1934
 1029DOPE   C1A12071   6.572  28.343  12.534 -0.1360 -0.1811  0.0480
 1029DOPE   D2A12072   6.997  28.449  12.715  0.1298  0.0729 -0.2417
 1029DOPE   C3A12073   7.203  28.821  12.743 -0.3812  0.2319  0.1613
 1029DOPE   C4A12074   7.295  29.101  13.061  0.1610 -0.1804  0.0758
 1029DOPE   C1B12075   6.938  28.013  12.908 -0.1031  0.0330  0.2332
 1029DOPE   D2B12076   7.029  28.191  13.342 -0.0697 -0.1008 -0.3803
 1029DOPE   C3B12077   7.002  28.495  13.671  0.0781  0.1687 -0.0750
 1029DOPE   C4B12078   6.939  28.925  13.806  0.2865 -0.2699 -0.3090
 1030POSM   NC312079   0.855  31.628  13.189  0.2542 -0.0232 -0.0239
 1030POSM   PO412080   1.125  31.445  12.991  0.1757  0.2091 -0.0033
 1030POSM   AM112081   1.271  31.332  13.235 -0.2328  0.1022 -0.0851
 1030POSM   AM212082   1.309  31.112  13.422  0.1766  0.0903  0.4439
 1030POSM   T1A12083   1.587  31.596  13.576  0.1435 -0.0794  0.1109
 1030POSM   C2A12084   1.958  31.409  13.844  0.0649 -0.2340 -0.0895
 1030POSM   C3A12085   2.294  31.114  13.925  0.1311  0.0251 -0.0062
 1030POSM   C1B12086   1.223  30.925  13.700 -0.0842  0.1030 -0.1331
 1030POSM   D2B12087   0.987  30.965  14.120 -0.3159  0.0213  0.0241
 1030POSM   C3B12088   0.739  31.376  14.298 -0.1641  0.0663 -0.1473
 1030POSM   C4B12089   0.518  31.709  14.506 -0.1622 -0.0266  0.3563
 1031DOPE   NH312090   4.260  29.758  12.525  0.1698 -0.2390 -0.2540
 1031DOPE   PO412091   4.085  30.021  12.544  0.0202  0.0779  0.0390
 1031DOPE   GL112092   4.126  30.152  12.966 -0.1761  0.3912 -0.1064
 1031DOPE   GL212093   4.384  30.252  12.922 -0.0443 -0.1326 -0.1196
 1031DOPE   C1A12094   3.985  30.530  13.279  0.0893 -0.0895  0.0376
 1031DOPE   D2A12095   3.992  30.945  13.281  0.0906 -0.0010  0.2648
 1031DOPE   C3A12096   4.202  31.292  13.521 -0.2049 -0.1171  0.1689
 1031DOPE   C4A12097   4.440  31.676  13.393 -0.2089  0.0075  0.3668
 1031DOPE   C1B12098   4.310  30.217  13.370 -0.1243 -0.0797 -0.2350
 1031DOPE   D2B12099   4.373  30.463  13.754  0.0991 -0.1143 -0.0715
 1031DOPE   C3B12100   4.109  30.828  13.790 -0.2760  0.2059 -0.1107
 1031DOPE   C4B12101   3.675  30.873  13.882 -0.1016 -0.0807 -0.1203
 1032POSM   NC312102   6.273  30.890  11.907  0.2622 -0.0977  0.1004
 1032POSM   PO412103   6.398  30.840  12.284  0.0604  0.1416 -0.0157
 1032POSM   AM112104   6.485  30.905  12.619 -0.0724  0.0125  0.0511
 1032POSM   AM212105   6.705  30.913  12.761  0.1331  0.0414  0.1512
 1032POSM   T1A12106   6.313  30.791  13.062 -0.0333  0.1266 -0.2238
 1032POSM   C2A12107   6.370  30.939  13.513 -0.3642  0.2309  0.1816
 1032POSM   C3A12108   6.203  30.900  13.936  0.0426  0.0055  0.1145
 1032POSM   C1B12109   7.067  30.875  12.727 -0.2694 -0.3183  0.1314
 1032POSM   D2B12110   7.415  30.657  12.915 -0.0907  0.2454  0.2484
 1032POSM   C3B12111   7.661  30.301  12.890  0.0794 -0.0711  0.0685
 1032POSM   C4B12112   7.764  29.966  12.663  0.1821  0.0741  0.0145
 1033POSM   NC312113   0.954  23.573  13.017 -0.0886  0.0703 -0.0331
 1033POSM   PO412114   1.088  23.665  12.645  0.1462 -0.1790  0.1637
 1033POSM   AM112115   0.906  23.941  12.619 -0.3541 -0.2606 -0.1629
 1033POSM   AM212116   0.641  23.973  12.610  0.1981 -0.0925  0.1130
 1033POSM   T1A12117   0.785  24.380  12.411  0.1499 -0.3128 -0.1341
 1033POSM   C2A12118   0.530  24.754  12.336 -0.1776 -0.2497  0.4508
 1033POSM   C3A12119   0.107  24.916  12.381 -0.2772 -0.1574 -0.0558
 1033POSM   C1B12120   0.623  24.042  12.968  0.0910 -0.1351 -0.1168
 1033POSM   D2B12121   0.692  23.998  13.433  0.1666  0.1023  0.1632
 1033POSM   C3B12122   0.778  24.316  13.716 -0.0852 -0.3804 -0.3352
 1033POSM   C4B12123   1.091  24.421  14.030 -0.2438 -0.2019 -0.3398
 1034DOPC   NC312124   9.765  32.933  11.303  0.2058 -0.2159  0.0960
 1034DOPC   PO412125   9.999  33.268  11.198  0.1273 -0.0086  0.1994
 1034DOPC   GL112126   9.990  33.554  11.533  0.0666  0.1132 -0.2147
 1034DOPC   GL212127   9.711  33.388  11.628  0.1377 -0.2052 -0.0206
 1034DOPC   C1A12128  10.325  33.669  11.844  0.2117  0.0746 -0.0786
 1034DOPC   D2A12129  10.604  33.362  12.011  0.4571  0.1191 -0.0894
 1034DOPC   C3A12130  10.692  33.094  12.362  0.1033  0.0354  0.2372
 1034DOPC   C4A12131  10.608  32.750  12.612  0.2166  0.1463  0.0923
 1034DOPC   C1B12132   9.472  33.131  11.906  0.2604  0.1561 -0.0847
 1034DOPC   D2B12133   9.598  33.014  12.327  0.0628  0.1892  0.1374
 1034DOPC   C3B12134  10.032  33.040  12.466  0.0853 -0.0038  0.4038
 1034DOPC   C4B12135  10.282  33.102  12.842 -0.0220 -0.1493 -0.0213
 1035DOPC   NC312136   6.435  31.502  11.740  0.3377  0.1358 -0.0981
 1035DOPC   PO412137   6.832  31.508  11.751  0.3365  0.0565 -0.0460
 1035DOPC   GL112138   7.242  31.499  11.912 -0.1290 -0.0629 -0.1863
 1035DOPC   GL212139   7.358  31.670  11.677 -0.0467 -0.1473  0.2908
 1035DOPC   C1A12140   7.391  31.517  12.381  0.3550  0.1659 -0.4694
 1035DOPC   D2A12141   7.329  31.665  12.824  0.3064 -0.2683  0.2264
 1035DOPC   C3A12142   7.595  31.585  13.226 -0.2862 -0.2219  0.1912
 1035DOPC   C4A12143   7.904  31.839  13.454  0.2007  0.1178  0.4871
 1035DOPC   C1B12144   7.636  32.006  11.534 -0.0698  0.3139 -0.0221
 1035DOPC   D2B12145   7.748  32.483  11.531 -0.2387  0.2160 -0.1291
 1035DOPC   C3B12146   7.430  32.568  11.838 -0.0774  0.0439  0.1212
 1035DOPC   C4B12147   7.024  32.525  12.112  0.1886  0.2251 -0.1181
 1036DOPC   NC312148   4.995  28.638  12.160 -0.2882  0.1854 -0.0076
 1036DOPC   PO412149   4.632  28.485  12.061 -0.1599 -0.0026  0.0907
 1036DOPC   GL112150   4.532  28.198  12.339 -0.2066 -0.0299 -0.1694
 1036DOPC   GL212151   4.513  27.896  12.186 -0.0737 -0.1419 -0.0717
 1036DOPC   C1A12152   4.195  28.154  12.613 -0.0017 -0.1120 -0.3292
 1036DOPC   D2A12153   3.993  28.266  12.993  0.3408 -0.0334  0.1864
 1036DOPC   C3A12154   4.057  28.145  13.427  0.0358 -0.1823 -0.2934
 1036DOPC   C4A12155   4.043  27.719  13.765 -0.1530 -0.1604 -0.2258
 1036DOPC   C1B12156   4.527  27.679  12.602  0.0863  0.2488 -0.0905
 1036DOPC   D2B12157   4.523  27.323  12.980  0.1147  0.1143 -0.4279
 1036DOPC   C3B12158   4.172  27.369  13.230 -0.1155 -0.1573  0.2862
 1036DOPC   C4B12159   4.124  27.111  13.592  0.0916 -0.2066 -0.0641
 1037DOPE   NH312160   6.876  24.090  12.224 -0.0832  0.0021 -0.1680
 1037DOPE   PO412161   7.054  24.207  12.429 -0.0769  0.0998  0.0753
 1037DOPE   GL112162   6.925  23.930  12.683 -0.2659  0.1861 -0.2329
 1037DOPE   GL212163   6.689  24.012  12.720 -0.0070 -0.0598 -0.0079
 1037DOPE   C1A12164   6.805  23.785  13.124 -0.0693 -0.0952  0.0453
 1037DOPE   D2A12165   6.708  23.942  13.523  0.1739  0.1237  0.3748
 1037DOPE   C3A12166   6.857  23.745  13.876  0.1409  0.0899  0.1113
 1037DOPE   C4A12167   6.998  23.444  14.165 -0.0210  0.1936  0.1889
 1037DOPE   C1B12168   6.746  24.301  13.112 -0.0373 -0.0016  0.3877
 1037DOPE   D2B12169   6.935  24.574  13.477 -0.0099  0.1426  0.1603
 1037DOPE   C3B12170   6.622  24.476  13.765 -0.4696 -0.1002  0.1102
 1037DOPE   C4B12171   6.237  24.481  13.934 -0.0006  0.0050 -0.0444
 1038POSM   NC312172   5.436  23.080  12.444  0.1929  0.1286 -0.1044
 1038POSM   PO412173   5.749  22.961  12.636  0.3039  0.0909 -0.2169
 1038POSM   AM112174   5.850  22.954  12.926  0.1158 -0.4075  0.0730
 1038POSM   AM212175   6.075  22.876  13.063 -0.2375 -0.1663  0.2198
 1038POSM   T1A12176   5.729  22.784  13.388 -0.0591 -0.1111 -0.3020
 1038POSM   C2A12177   5.581  22.619  13.787  0.1057  0.1908  0.3666
 1038POSM   C3A12178   5.190  22.672  14.028  0.0605  0.1407 -0.1093
 1038POSM   C1B12179   6.192  22.982  13.350  0.0281 -0.0122  0.1570
 1038POSM   D2B12180   6.306  23.107  13.764 -0.0697  0.2759 -0.1299
 1038POSM   C3B12181   6.536  22.977  14.059  0.3862 -0.2190 -0.0704
 1038POSM   C4B12182   6.906  22.958  14.278  0.0184 -0.3079  0.2348
 1039DOPE   NH312183   1.176  31.903  12.719  0.0031  0.1074 -0.2092
 1039DOPE   PO412184   0.868  31.890  12.642 -0.2663  0.2344  0.1378
 1039DOPE   GL112185   0.956  32.243  12.902 -0.1912  0.0277  0.6281
 1039DOPE   GL212186   1.042  32.088  13.192 -0.1281  0.3239  0.0571
 1039DOPE   C1A12187   0.877  32.511  13.271  0.0197 -0.0840 -0.1565
 1039DOPE   D2A12188   0.658  32.576  13.670 -0.4090 -0.3195  0.0906
 1039DOPE   C3A12189   0.665  32.165  13.847  0.0614 -0.1214  0.0785
 1039DOPE   C4A12190   0.785  32.156  14.331  0.2084  0.0494 -0.0341
 1039DOPE   C1B12191   0.622  32.021  13.320 -0.1850 -0.1421 -0.1770
 1039DOPE   D2B12192   0.281  32.355  13.330 -0.1291  0.0753  0.1504
 1039DOPE   C3B12193   0.150  32.603  13.666  0.1094 -0.0056 -0.2240
 1039DOPE   C4B12194  -0.249  32.530  13.903 -0.2784  0.0257  0.0892
 1040DOPC   NC312195   9.187  22.501  12.063  0.0536 -0.1739  0.1217
 1040DOPC   PO412196   9.287  22.860  12.121 -0.0893  0.1475 -0.0818
 1040DOPC   GL112197   8.947  23.014  12.312  0.0151 -0.0678  0.1844
 1040DOPC   GL212198   8.931  23.290  12.138  0.0573  0.0430 -0.2096
 1040DOPC   C1A12199   8.814  23.059  12.731  0.1037 -0.1271  0.5264
 1040DOPC   D2A12200   8.550  22.999  13.091  0.0588  0.1605 -0.4969
 1040DOPC   C3A12201   8.729  22.876  13.466  0.2944  0.1556  0.2153
 1040DOPC   C4A12202   9.121  22.623  13.639 -0.2536 -0.0452  0.3805
 1040DOPC   C1B12203   8.727  23.512  12.509 -0.1510  0.0515  0.0849
 1040DOPC   D2B12204   8.782  23.589  12.988  0.1977  0.0675  0.1571
 1040DOPC   C3B12205   8.894  23.448  13.405  0.1189  0.2661 -0.1958
 1040DOPC   C4B12206   9.124  23.313  13.751  0.0001  0.3918  0.0564
 1041POSM   NC312207   6.904  23.316  12.151  0.1481 -0.1826 -0.3383
 1041POSM   PO412208   7.151  23.642  12.257  0.2914 -0.0625 -0.0029
 1041POSM   AM112209   7.303  23.630  12.543  0.1515  0.0327 -0.0719
 1041POSM   AM212210   7.231  23.602  12.830  0.1889 -0.4885  0.2120
 1041POSM   T1A12211   7.735  23.586  12.798  0.0058  0.3040 -0.2161
 1041POSM   C2A12212   8.041  23.813  13.117 -0.1203 -0.0428 -0.1505
 1041POSM   C3A12213   8.188  23.858  13.498  0.1460 -0.1655  0.0528
 1041POSM   C1B12214   7.341  23.768  13.093 -0.1894  0.0003  0.2467
 1041POSM   D2B12215   7.564  23.807  13.395  0.1442 -0.1325  0.1167
 1041POSM   C3B12216   7.687  24.249  13.427  0.1051  0.2563 -0.4775
 1041POSM   C4B12217   8.096  24.438  13.558  0.0115  0.3239 -0.0193
 1042DOPE   NH312218   9.507  29.516  11.688  0.2381  0.0282  0.2134
 1042DOPE   PO412219   9.551  29.248  11.505 -0.0706 -0.1693  0.0485
 1042DOPE   GL112220   9.123  29.228  11.610  0.0278 -0.0087 -0.2705
 1042DOPE   GL212221   8.991  28.990  11.633  0.0426  0.0307  0.1293
 1042DOPE   C1A12222   8.735  29.373  11.872  0.1031 -0.0676 -0.0862
 1042DOPE   D2A12223   8.420  29.342  12.283 -0.1167  0.2237 -0.1176
 1042DOPE   C3A12224   8.275  29.033  12.669  0.2307 -0.0717  0.0055
 1042DOPE   C4A12225   8.256  28.653  12.960 -0.2259 -0.0555  0.1998
 1042DOPE   C1B12226   8.940  28.531  11.941  0.0506 -0.1759 -0.1823
 1042DOPE   D2B12227   8.963  28.200  12.293 -0.0426 -0.2625  0.0737
 1042DOPE   C3B12228   8.861  28.187  12.742 -0.1583 -0.3197 -0.3356
 1042DOPE   C4B12229   8.738  28.491  13.055  0.3890 -0.1645  0.2630
 1043DOPE   NH312230   0.213  26.553  12.645  0.0523  0.2426 -0.0202
 1043DOPE   PO412231  -0.054  26.713  12.554  0.0994  0.0231 -0.0082
 1043DOPE   GL112232  -0.249  26.947  12.824  0.0657 -0.2128 -0.6097
 1043DOPE   GL212233  -0.283  27.184  12.668 -0.3794 -0.1053 -0.0710
 1043DOPE   C1A12234  -0.340  27.234  13.165 -0.1837 -0.2297  0.2424
 1043DOPE   D2A12235  -0.382  27.287  13.640  0.2197  0.0301 -0.1418
 1043DOPE   C3A12236  -0.469  27.737  13.664 -0.0185  0.2039  0.1714
 1043DOPE   C4A12237  -0.784  28.063  13.526  0.1444  0.2763 -0.4353
 1043DOPE   C1B12238   0.001  27.429  12.890  0.2558 -0.3555 -0.2016
 1043DOPE   D2B12239  -0.052  27.622  13.299 -0.2874  0.1559  0.1274
 1043DOPE   C3B12240  -0.213  28.086  13.343 -0.1822 -0.0777 -0.3272
 1043DOPE   C4B12241   0.009  28.444  13.437 -0.1708  0.0623  0.0261
 1044DOPC   NC312242   4.672  29.321  12.765 -0.1137  0.0370 -0.0064
 1044DOPC   PO412243   4.724  29.604  12.447  0.1170  0.1323  0.0878
 1044DOPC   GL112244   4.669  29.818  12.835  0.5031  0.0744  0.0888
 1044DOPC   GL212245   4.970  29.763  12.984 -0.0556 -0.1110 -0.0533
 1044DOPC   C1A12246   4.317  29.734  13.083 -0.1981  0.0319 -0.1373
 1044DOPC   D2A12247   4.173  29.668  13.539 -0.0337 -0.0186  0.1732
 1044DOPC   C3A12248   4.037  30.026  13.726  0.1817 -0.0679 -0.3402
 1044DOPC   C4A12249   3.749  30.418  13.673  0.0844  0.3038  0.1033
 1044DOPC   C1B12250   4.692  29.923  13.367  0.0303  0.0180 -0.0122
 1044DOPC   D2B12251   4.646  29.761  13.747 -0.3122  0.3109 -0.2483
 1044DOPC   C3B12252   4.303  29.686  13.997  0.0292 -0.1663 -0.2359
 1044DOPC   C4B12253   4.033  29.899  14.297 -0.1214  0.2272  0.1037
 1045DOPE   NH312254   1.115  31.048  12.709 -0.0968 -0.1543  0.0690
 1045DOPE   PO412255   1.071  30.941  12.978  0.2542 -0.4191  0.4617
 1045DOPE   GL112256   0.966  30.830  13.295 -0.1038  0.2048  0.0119
 1045DOPE   GL212257   0.743  30.652  13.271 -0.1662 -0.2533  0.0337
 1045DOPE   C1A12258   1.052  30.475  13.641 -0.3432 -0.2199  0.1391
 1045DOPE   D2A12259   1.284  30.319  14.041  0.3642 -0.2757 -0.0635
 1045DOPE   C3A12260   1.262  30.380  14.498 -0.1399 -0.2182 -0.0011
 1045DOPE   C4A12261   1.147  30.347  14.957 -0.3915  0.2162  0.0264
 1045DOPE   C1B12262   0.594  30.710  13.693 -0.2994  0.0150  0.0438
 1045DOPE   D2B12263   0.539  31.039  13.955 -0.1749 -0.1425  0.1779
 1045DOPE   C3B12264   0.352  30.923  14.333  0.2452 -0.2040 -0.4148
 1045DOPE   C4B12265   0.330  30.694  14.713  0.2309  0.2422  0.0691
 1046POSM   NC312266   8.551  27.285  11.935  0.0851 -0.1442 -0.1985
 1046POSM   PO412267   8.508  27.645  12.121 -0.0279  0.2534  0.0624
 1046POSM   AM112268   8.472  27.958  12.170  0.0147 -0.3745 -0.0349
 1046POSM   AM212269   8.399  28.060  12.466 -0.2580  0.0320  0.0319
 1046POSM   T1A12270   8.553  28.469  12.286  0.3348  0.0834 -0.2665
 1046POSM   C2A12271   8.701  28.793  12.584 -0.0257  0.2192 -0.0130
 1046POSM   C3A12272   8.776  28.973  13.009 -0.0130  0.0713  0.0843
 1046POSM   C1B12273   8.368  28.210  12.755 -0.0014 -0.1440  0.0052
 1046POSM   D2B12274   8.442  28.150  13.260  0.3438 -0.1707  0.0580
 1046POSM   C3B12275   8.416  28.525  13.460  0.1881 -0.0473 -0.0402
 1046POSM   C4B12276   8.424  29.000  13.385  0.1846  0.3437  0.1570
 1047DOPC   NC312277   8.162  30.173  11.862  0.0724 -0.0295 -0.0455
 1047DOPC   PO412278   8.459  30.266  11.643 -0.0910  0.0554 -0.2164
 1047DOPC   GL112279   8.481  30.643  11.923  0.1848  0.1736 -0.1892
 1047DOPC   GL212280   8.195  30.652  11.953  0.0094 -0.2272  0.0930
 1047DOPC   C1A12281   8.577  31.107  12.101  0.0634  0.2027 -0.0013
 1047DOPC   D2A12282   8.823  31.510  12.188  0.0650 -0.2524 -0.0947
 1047DOPC   C3A12283   8.539  31.897  12.221 -0.2439  0.1189  0.1783
 1047DOPC   C4A12284   8.118  32.054  12.283 -0.0024 -0.2059  0.0190
 1047DOPC   C1B12285   8.140  31.144  12.087  0.0212 -0.2865 -0.0540
 1047DOPC   D2B12286   8.238  31.521  12.256 -0.0435 -0.0624  0.1023
 1047DOPC   C3B12287   7.853  31.614  12.527  0.2473 -0.2726 -0.0818
 1047DOPC   C4B12288   7.652  31.997  12.471 -0.1521 -0.3411 -0.3001
 1048POSM   NC312289   7.487   0.077  11.653  0.3270  0.1701 -0.2748
 1048POSM   PO412290   7.239  -0.135  11.391 -0.1408 -0.2795  0.0674
 1048POSM   AM112291   7.173  -0.264  11.662 -0.0787 -0.0999 -0.3301
 1048POSM   AM212292   7.274  -0.394  11.847 -0.4514  0.3175 -0.1484
 1048POSM   T1A12293   6.815  -0.533  11.857 -0.0434  0.2577  0.0932
 1048POSM   C2A12294   6.637  -0.882  12.117  0.2904 -0.1184  0.0491
 1048POSM   C3A12295   6.390  -0.932  12.574 -0.1848  0.4281  0.1039
 1048POSM   C1B12296   7.375  -0.564  12.160  0.1093  0.0654  0.2747
 1048POSM   D2B12297   7.620  -0.756  12.517 -0.0353  0.0984  0.0548
 1048POSM   C3B12298   7.537  -0.593  12.983 -0.3686 -0.1939  0.0778
 1048POSM   C4B12299   7.257  -0.362  13.320 -0.1417 -0.0187 -0.1315
 1049DOPE   NH312300   5.700  23.582  12.543 -0.1719 -0.0821 -0.3157
 1049DOPE   PO412301   5.751  23.463  12.837  0.0359  0.3925  0.0282
 1049DOPE   GL112302   5.948  23.342  13.139 -0.0018  0.0907 -0.2631
 1049DOPE   GL212303   5.765  23.339  13.335 -0.0684 -0.0927  0.0488
 1049DOPE   C1A12304   6.138  23.555  13.465 -0.1397 -0.1985  0.0930
 1049DOPE   D2A12305   6.341  23.584  13.883 -0.1384  0.2508  0.0653
 1049DOPE   C3A12306   6.473  23.374  14.311 -0.0368 -0.1241  0.1482
 1049DOPE   C4A12307   6.238  23.036  14.534 -0.2391 -0.2205 -0.0364
 1049DOPE   C1B12308   5.778  23.180  13.755  0.0887  0.0739  0.2123
 1049DOPE   D2B12309   5.973  22.920  14.121 -0.0258 -0.0582 -0.3437
 1049DOPE   C3B12310   5.660  22.639  14.307 -0.1351  0.2692  0.0827
 1049DOPE   C4B12311   5.271  22.483  14.488 -0.1266 -0.2355 -0.0090
 1050DOPC   NC312312   8.855  27.709  12.460  0.3147  0.2462  0.0228
 1050DOPC   PO412313   8.754  27.335  12.443 -0.1008 -0.0815  0.1415
 1050DOPC   GL112314   8.786  27.261  12.748 -0.2773 -0.0503 -0.3427
 1050DOPC   GL212315   9.031  27.457  12.881  0.0819 -0.3870 -0.0240
 1050DOPC   C1A12316   9.058  26.961  12.929  0.2650 -0.1843  0.0826
 1050DOPC   D2A12317   9.288  26.604  12.744 -0.0220 -0.0262 -0.0972
 1050DOPC   C3A12318   9.229  26.276  13.107  0.2241 -0.0195  0.0848
 1050DOPC   C4A12319   8.945  26.173  13.406 -0.0553 -0.0133  0.1146
 1050DOPC   C1B12320   9.351  27.773  13.058  0.2677 -0.2214  0.1800
 1050DOPC   D2B12321   9.521  27.961  13.466 -0.0727 -0.0141  0.0760
 1050DOPC   C3B12322   9.283  28.159  13.809 -0.2905 -0.2813 -0.2000
 1050DOPC   C4B12323   9.009  28.493  14.018  0.1320 -0.1484 -0.0844
 1051DOPE   NH312324  11.714  23.240  12.324  0.2414  0.0249 -0.1800
 1051DOPE   PO412325  11.489  23.372  12.152 -0.3646 -0.2981  0.0863
 1051DOPE   GL112326  11.552  23.752  12.313  0.3867 -0.1122  0.1545
 1051DOPE   GL212327  11.860  23.691  12.349 -0.1450 -0.1783  0.2365
 1051DOPE   C1A12328  11.585  24.201  12.354  0.2061  0.2741 -0.1771
 1051DOPE   D2A12329  11.490  24.545  12.563 -0.1788 -0.1881  0.2071
 1051DOPE   C3A12330  11.701  24.530  13.018  0.1663 -0.3760  0.0279
 1051DOPE   C4A12331  11.859  24.416  13.390  0.3861  0.3847 -0.0798
 1051DOPE   C1B12332  11.684  23.740  12.796  0.0157 -0.1717  0.2131
 1051DOPE   D2B12333  11.700  23.936  13.221  0.1802 -0.2885  0.0484
 1051DOPE   C3B12334  11.785  23.829  13.626 -0.1324  0.3071 -0.0975
 1051DOPE   C4B12335  11.683  23.745  14.105  0.1585  0.1984 -0.1669
 1052POSM   NC312336   0.865  27.155  12.679  0.0833  0.0226  0.1359
 1052POSM   PO412337   1.218  27.293  12.535 -0.3073 -0.0092  0.1258
 1052POSM   AM112338   1.359  27.439  12.789  0.0219  0.2812 -0.1399
 1052POSM   AM212339   1.423  27.693  12.952  0.0641 -0.4206  0.0526
 1052POSM   T1A12340   1.710  27.271  13.159  0.2202  0.1698 -0.0532
 1052POSM   C2A12341   1.753  27.026  13.536  0.0814 -0.0542  0.4011
 1052POSM   C3A12342   1.864  26.714  13.897  0.0836  0.0102  0.0054
 1052POSM   C1B12343   1.350  27.614  13.314 -0.0430 -0.0121 -0.0445
 1052POSM   D2B12344   1.487  27.419  13.677  0.2601  0.0531  0.0816
 1052POSM   C3B12345   1.963  27.518  13.682 -0.0364  0.2564  0.2214
 1052POSM   C4B12346   2.322  27.639  13.568  0.1876  0.0924 -0.1293
 1053DOPC   NC312347   6.853  30.606  12.215  0.3149  0.1113 -0.0142
 1053DOPC   PO412348   6.660  30.556  11.917  0.3342  0.1703  0.1820
 1053DOPC   GL112349   6.583  30.197  11.907  0.1196 -0.2761 -0.2193
 1053DOPC   GL212350   6.837  30.092  11.783 -0.1952  0.2106  0.1656
 1053DOPC   C1A12351   6.376  29.827  12.145 -0.4333 -0.0686 -0.1599
 1053DOPC   D2A12352   5.959  29.612  12.338  0.0397  0.1956  0.0648
 1053DOPC   C3A12353   5.790  29.843  12.707  0.3007  0.2971 -0.1703
 1053DOPC   C4A12354   5.844  29.904  13.157 -0.1611  0.0279 -0.0345
 1053DOPC   C1B12355   7.087  29.820  12.033  0.1411 -0.2108  0.1564
 1053DOPC   D2B12356   7.423  29.686  12.334  0.1639  0.0457 -0.1727
 1053DOPC   C3B12357   7.173  29.756  12.723  0.0345 -0.0138  0.2014
 1053DOPC   C4B12358   7.266  30.063  13.062 -0.0589  0.1907  0.1463
 1054POSM   NC312359   9.102  25.587  12.233  0.0923 -0.0192  0.2896
 1054POSM   PO412360   8.762  25.439  12.445  0.0973  0.1610  0.1498
 1054POSM   AM112361   8.783  25.257  12.701 -0.0444 -0.3595  0.0621
 1054POSM   AM212362   8.822  25.299  12.976 -0.2824 -0.0757  0.0113
 1054POSM   T1A12363   8.426  25.004  12.907  0.1904 -0.2629  0.2119
 1054POSM   C2A12364   8.166  24.673  13.024  0.4502  0.0832 -0.4524
 1054POSM   C3A12365   8.245  24.235  13.086  0.1979  0.0698 -0.1182
 1054POSM   C1B12366   8.783  25.151  13.287  0.1574 -0.0687 -0.0318
 1054POSM   D2B12367   8.516  24.922  13.534 -0.1091  0.4122 -0.0364
 1054POSM   C3B12368   8.095  25.024  13.387  0.2491  0.1723  0.1889
 1054POSM   C4B12369   7.651  24.995  13.209 -0.1168 -0.0532 -0.0002
 1055POSM   NC312370   1.016  30.149  12.233  0.0304  0.2571 -0.0854
 1055POSM   PO412371   0.776  30.154  12.533  0.2562 -0.1081  0.0555
 1055POSM   AM112372   0.647  30.067  12.833 -0.0643 -0.4769 -0.1244
 1055POSM   AM212373   0.702  30.196  13.087  0.0163  0.3718  0.1022
 1055POSM   T1A12374   0.429  29.791  13.217 -0.1802 -0.2111 -0.0924
 1055POSM   C2A12375   0.375  29.408  13.491  0.0918 -0.1668 -0.1793
 1055POSM   C3A12376   0.348  29.175  13.975  0.1133  0.0774  0.2596
 1055POSM   C1B12377   0.728  30.214  13.423 -0.1235 -0.0220  0.1852
 1055POSM   D2B12378   0.612  30.180  13.869 -0.0130 -0.3549  0.1310
 1055POSM   C3B12379   0.793  30.489  14.183  0.2610  0.0204 -0.0431
 1055POSM   C4B12380   0.740  30.449  14.649 -0.1796  0.2194  0.2039
 1056DOPC   NC312381   5.331  25.195  12.320  0.0821 -0.1242  0.0544
 1056DOPC   PO412382   5.304  25.558  12.479 -0.2096  0.1913  0.2283
 1056DOPC   GL112383   5.336  25.308  12.825  0.2678 -0.0086 -0.0903
 1056DOPC   GL212384   5.615  25.209  12.838  0.0104  0.0872  0.2693
 1056DOPC   C1A12385   5.067  24.955  12.674  0.0730 -0.0854 -0.0304
 1056DOPC   D2A12386   4.695  24.712  12.689  0.0011 -0.0144  0.1244
 1056DOPC   C3A12387   4.403  24.942  12.975  0.1272 -0.0539 -0.1792
 1056DOPC   C4A12388   4.488  25.350  13.140 -0.2451 -0.0083 -0.1519
 1056DOPC   C1B12389   5.300  24.985  13.137 -0.0657 -0.1511  0.4831
 1056DOPC   D2B12390   5.144  24.973  13.591  0.1423 -0.2236 -0.1298
 1056DOPC   C3B12391   5.457  24.666  13.790 -0.1986 -0.2084 -0.1898
 1056DOPC   C4B12392   5.736  24.362  14.036 -0.5465  0.1725  0.0852
 1057DOPE   NH312393   2.845  24.086  12.671 -0.3887  0.1511  0.2520
 1057DOPE   PO412394   3.096  24.109  12.488  0.4281 -0.1045  0.0599
 1057DOPE   GL112395   3.127  24.450  12.651  0.1297 -0.0136  0.0979
 1057DOPE   GL212396   3.048  24.677  12.463  0.1064 -0.1237 -0.2735
 1057DOPE   C1A12397   2.982  24.471  13.158  0.2140 -0.1999  0.3859
 1057DOPE   D2A12398   3.069  24.907  13.388 -0.0582  0.2832  0.0968
 1057DOPE   C3A12399   3.539  25.010  13.375 -0.2022  0.0624 -0.0174
 1057DOPE   C4A12400   3.914  25.347  13.409  0.4642 -0.0588  0.2260
 1057DOPE   C1B12401   3.336  25.061  12.435  0.2230  0.0175  0.1471
 1057DOPE   D2B12402   3.694  25.339  12.564  0.1675 -0.1698 -0.2665
 1057DOPE   C3B12403   3.532  25.407  12.982  0.3677  0.1041  0.0417
 1057DOPE   C4B12404   3.293  25.548  13.343 -0.0182  0.0483 -0.0845
 1058POSM   NC312405   3.865  34.596  12.209  0.0168 -0.1074  0.4717
 1058POSM   PO412406   3.518  34.558  12.308 -0.2673  0.0181 -0.3380
 1058POSM   AM112407   3.502  34.615  12.600  0.4468 -0.4499 -0.0308
 1058POSM   AM212408   3.471  34.482  12.826 -0.0526  0.1231  0.0475
 1058POSM   T1A12409   3.557  34.959  12.988 -0.2120  0.1015 -0.2562
 1058POSM   C2A12410   3.751  35.320  13.283 -0.0784  0.0801  0.1794
 1058POSM   C3A12411   3.975  35.236  13.726 -0.0600  0.0033  0.4892
 1058POSM   C1B12412   3.306  34.509  13.131  0.4605  0.0463 -0.3379
 1058POSM   D2B12413   3.227  34.446  13.538 -0.0558  0.4070 -0.0657
 1058POSM   C3B12414   2.991  34.842  13.602  0.3353 -0.0797 -0.1836
 1058POSM   C4B12415   2.621  35.055  13.607  0.0544 -0.3654  0.1925
 1059POSM   NC312416   4.547  25.830  12.788 -0.2306 -0.1153 -0.0351
 1059POSM   PO412417   4.487  25.914  12.369 -0.4182  0.1556  0.1460
 1059POSM   AM112418   4.266  26.051  12.553  0.0695  0.4016 -0.0076
 1059POSM   AM212419   4.095  25.862  12.687  0.1112 -0.0348  0.2556
 1059POSM   T1A12420   4.099  26.237  12.990 -0.3778  0.0563 -0.0159
 1059POSM   C2A12421   4.190  26.249  13.447 -0.0228  0.1071  0.2338
 1059POSM   C3A12422   4.503  26.242  13.817 -0.3441 -0.0215  0.0669
 1059POSM   C1B12423   3.770  25.814  12.765  0.1874 -0.2342 -0.2292
 1059POSM   D2B12424   3.326  25.875  12.958  0.1159 -0.0311  0.0757
 1059POSM   C3B12425   3.255  26.166  13.284  0.0008  0.2078  0.2228
 1059POSM   C4B12426   3.101  26.430  13.613 -0.2843 -0.1440 -0.0188
 1060DOPS   CNO12427   7.565  27.860  11.666  0.0933  0.0877  0.0363
 1060DOPS   PO412428   7.513  27.578  11.870  0.1648 -0.0012  0.3470
 1060DOPS   GL112429   7.473  27.817  12.210  0.1005 -0.0987 -0.1216
 1060DOPS   GL212430   7.376  27.740  12.529  0.0484  0.0728  0.1129
 1060DOPS   C1A12431   7.299  28.250  12.346 -0.2022  0.1769  0.1692
 1060DOPS   D2A12432   7.281  28.637  12.064 -0.1155 -0.3520 -0.0163
 1060DOPS   C3A12433   7.487  29.010  12.294  0.2077  0.3575 -0.1725
 1060DOPS   C4A12434   7.150  29.260  12.481  0.2053  0.3607 -0.0270
 1060DOPS   C1B12435   7.410  28.095  12.788 -0.1220 -0.0308 -0.1249
 1060DOPS   D2B12436   7.440  28.413  13.109 -0.3433 -0.1099  0.2185
 1060DOPS   C3B12437   7.080  28.693  13.252  0.1918 -0.2018 -0.0907
 1060DOPS   C4B12438   6.682  28.630  13.322 -0.1248  0.2294 -0.0645
 1061DOPC   NC312439   2.676  31.380  12.283 -0.0821  0.4870 -0.0928
 1061DOPC   PO412440   2.563  31.198  12.628 -0.0564  0.3015 -0.0091
 1061DOPC   GL112441   2.605  31.537  12.917  0.2167 -0.3383  0.3320
 1061DOPC   GL212442   2.332  31.475  13.025 -0.3316 -0.3204  0.0914
 1061DOPC   C1A12443   2.768  31.748  13.277 -0.4662  0.3289  0.0170
 1061DOPC   D2A12444   2.927  32.144  13.297  0.3579 -0.3637  0.2486
 1061DOPC   C3A12445   3.089  32.295  13.746 -0.1537  0.1728 -0.0402
 1061DOPC   C4A12446   2.997  32.511  14.140 -0.2952  0.0811 -0.1210
 1061DOPC   C1B12447   2.279  31.762  13.436 -0.2400 -0.0803  0.1162
 1061DOPC   D2B12448   2.081  32.036  13.763  0.4295  0.0226 -0.0482
 1061DOPC   C3B12449   1.660  31.927  13.913 -0.0984  0.1780 -0.1607
 1061DOPC   C4B12450   1.492  31.973  14.362  0.0881  0.0885 -0.2336
 1062POSM   NC312451  34.270  29.376  12.307  0.2639 -0.3897  0.0591
 1062POSM   PO412452  34.583  29.644  12.353 -0.2192  0.3463  0.3544
 1062POSM   AM112453  34.580  29.508  12.682  0.2046  0.1030  0.3025
 1062POSM   AM212454  34.631  29.231  12.768 -0.0670 -0.0576  0.2950
 1062POSM   T1A12455  34.684  29.501  13.162 -0.0564  0.0121  0.0244
 1062POSM   C2A12456  34.556  29.277  13.568  0.0156  0.0835 -0.2245
 1062POSM   C3A12457  34.462  29.311  14.034  0.1322  0.1036  0.2160
 1062POSM   C1B12458  34.436  29.113  13.057 -0.0736 -0.0313  0.1839
 1062POSM   D2B12459  34.208  28.737  13.187  0.1834 -0.0749  0.1382
 1062POSM   C3B12460  34.202  28.522  13.611  0.5176 -0.0479 -0.1520
 1062POSM   C4B12461  34.430  28.263  13.862 -0.1512  0.0326  0.0871
 1063DOPE   NH312462   5.463  26.070  12.545  0.0668  0.0015 -0.2942
 1063DOPE   PO412463   5.637  26.167  12.805  0.0672 -0.1421  0.2484
 1063DOPE   GL112464   5.580  26.321  13.119 -0.2018  0.0824 -0.1155
 1063DOPE   GL212465   5.393  26.165  13.306  0.0161 -0.1129 -0.0325
 1063DOPE   C1A12466   5.897  26.302  13.462  0.1491  0.0659  0.3937
 1063DOPE   D2A12467   5.964  26.599  13.882 -0.2485  0.0937  0.0693
 1063DOPE   C3A12468   6.254  26.563  14.205  0.1864  0.2622  0.1591
 1063DOPE   C4A12469   6.630  26.848  14.186 -0.0451 -0.0950 -0.0855
 1063DOPE   C1B12470   5.440  26.430  13.639  0.1496 -0.1241  0.0361
 1063DOPE   D2B12471   5.369  26.855  13.677 -0.0466  0.1993 -0.0377
 1063DOPE   C3B12472   5.784  27.087  13.822  0.1463  0.0718 -0.1355
 1063DOPE   C4B12473   5.938  27.445  14.075 -0.1655  0.0711  0.1130
 1064POSM   NC312474   0.821  30.611  12.733 -0.3163 -0.4374  0.2171
 1064POSM   PO412475   0.632  30.913  12.605 -0.0977  0.2896  0.1739
 1064POSM   AM112476   0.559  30.948  12.943  0.0998  0.1343 -0.0289
 1064POSM   AM212477   0.636  31.125  13.170  0.0675  0.1752 -0.0036
 1064POSM   T1A12478   0.241  30.884  13.320 -0.1163  0.1488  0.2283
 1064POSM   C2A12479   0.074  30.696  13.727 -0.3266 -0.2891  0.2170
 1064POSM   C3A12480  -0.175  31.039  13.940 -0.2221  0.2059 -0.3691
 1064POSM   C1B12481   0.723  31.232  13.484  0.1301  0.0206  0.1820
 1064POSM   D2B12482   0.666  31.605  13.805 -0.1538  0.2200  0.1888
 1064POSM   C3B12483   0.296  31.795  13.623 -0.2844 -0.0804  0.2314
 1064POSM   C4B12484  -0.075  32.070  13.667  0.2208  0.0145  0.2088
 1065POSM   NC312485   3.817  29.569  12.302 -0.2633 -0.1909  0.5226
 1065POSM   PO412486   3.629  29.844  12.550 -0.2440 -0.0904  0.1197
 1065POSM   AM112487   3.668  29.748  12.839  0.1285 -0.1989 -0.3774
 1065POSM   AM212488   3.792  29.843  13.068 -0.3586 -0.1191 -0.0411
 1065POSM   T1A12489   3.410  29.519  13.177  0.1894  0.1943  0.0524
 1065POSM   C2A12490   3.357  29.232  13.509  0.0853 -0.2792 -0.0810
 1065POSM   C3A12491   3.590  28.956  13.772  0.0210 -0.2618 -0.3489
 1065POSM   C1B12492   3.604  30.042  13.346 -0.2731  0.0992  0.2821
 1065POSM   D2B12493   3.299  30.242  13.616  0.0149  0.1414 -0.0071
 1065POSM   C3B12494   3.228  30.706  13.588  0.1870 -0.1235 -0.0038
 1065POSM   C4B12495   3.022  31.181  13.483  0.1335 -0.0562  0.1803
 1066POSM   NC312496   1.241  29.444  13.037  0.1796 -0.0072  0.1830
 1066POSM   PO412497   1.461  29.545  12.739  0.3785 -0.1937  0.3742
 1066POSM   AM112498   1.677  29.461  12.947 -0.2823  0.1313 -0.0798
 1066POSM   AM212499   1.699  29.621  13.209 -0.0500  0.0137  0.0149
 1066POSM   T1A12500   1.989  29.206  13.286 -0.0734 -0.3786  0.0392
 1066POSM   C2A12501   2.160  28.859  13.475  0.2644  0.2675 -0.1810
 1066POSM   C3A12502   2.099  28.790  13.947 -0.1528 -0.1210 -0.2213
 1066POSM   C1B12503   1.690  29.921  13.337 -0.0424  0.0940  0.1978
 1066POSM   D2B12504   1.508  30.183  13.636  0.0384  0.1221 -0.3527
 1066POSM   C3B12505   1.594  29.936  14.056  0.3585 -0.1696  0.0330
 1066POSM   C4B12506   1.566  29.589  14.428 -0.1335  0.1637 -0.1184
 1067DOPS   CNO12507  10.030  27.128  11.780  0.1912  0.0810  0.2430
 1067DOPS   PO412508  10.351  27.330  11.649 -0.1016 -0.3465 -0.1939
 1067DOPS   GL112509  10.465  27.611  11.862 -0.0747  0.4388 -0.1631
 1067DOPS   GL212510  10.490  27.809  11.647  0.1270  0.1868 -0.2051
 1067DOPS   C1A12511  10.239  27.843  12.216  0.0910 -0.2327 -0.4085
 1067DOPS   D2A12512   9.843  27.663  12.317 -0.0127 -0.2226 -0.1578
 1067DOPS   C3A12513   9.814  27.550  12.773  0.1102 -0.0936 -0.0289
 1067DOPS   C4A12514   9.636  27.353  13.199  0.1023  0.4005 -0.2825
 1067DOPS   C1B12515  10.153  28.121  11.787  0.1476 -0.0925  0.1038
 1067DOPS   D2B12516   9.969  28.299  12.184 -0.1923  0.4373 -0.0594
 1067DOPS   C3B12517   9.882  28.080  12.573  0.0102  0.0248  0.0614
 1067DOPS   C4B12518   9.801  27.981  13.032 -0.1822  0.3730 -0.0379
 1068POSM   NC312519   6.697  23.463  12.683 -0.1282 -0.0430 -0.1908
 1068POSM   PO412520   6.604  23.638  12.374  0.0036 -0.0049  0.1149
 1068POSM   AM112521   6.336  23.750  12.523 -0.0068  0.2559  0.2215
 1068POSM   AM212522   6.244  23.776  12.795  0.0082 -0.4005 -0.1538
 1068POSM   T1A12523   5.936  24.040  12.531  0.0923 -0.0186 -0.0285
 1068POSM   C2A12524   5.549  24.228  12.697  0.0091 -0.0085 -0.1480
 1068POSM   C3A12525   5.313  24.577  12.862 -0.0688  0.1833  0.1423
 1068POSM   C1B12526   6.344  23.959  13.070  0.0049  0.0298 -0.0811
 1068POSM   D2B12527   6.379  24.327  13.406  0.0878  0.0293 -0.1316
 1068POSM   C3B12528   6.234  24.812  13.392 -0.0393 -0.3798  0.0090
 1068POSM   C4B12529   6.286  25.091  13.755 -0.1043  0.2531 -0.0446
 1069DOPE   NH312530  10.504  26.518  12.217 -0.1096  0.2773  0.2099
 1069DOPE   PO412531  10.824  26.568  12.189 -0.2072 -0.5336  0.1715
 1069DOPE   GL112532  10.626  26.892  12.371 -0.1189 -0.1051 -0.0219
 1069DOPE   GL212533  10.723  27.119  12.334 -0.0329  0.1158  0.1484
 1069DOPE   C1A12534  10.360  26.747  12.712  0.1519 -0.0787 -0.0461
 1069DOPE   D2A12535  10.390  26.652  13.147 -0.1076  0.1816 -0.0020
 1069DOPE   C3A12536  10.502  26.939  13.419 -0.2495  0.0606  0.0701
 1069DOPE   C4A12537  10.408  27.225  13.782  0.2533 -0.0049  0.6327
 1069DOPE   C1B12538  10.537  27.534  12.486 -0.2886  0.0321  0.1484
 1069DOPE   D2B12539  10.273  27.767  12.736 -0.1513 -0.2887  0.0563
 1069DOPE   C3B12540  10.275  27.932  13.168  0.1690 -0.2473 -0.3003
 1069DOPE   C4B12541  10.018  28.112  13.442 -0.1282 -0.2362 -0.0260
 1070DOPE   NH312542  11.310  34.315  11.198 -0.1054 -0.0005  0.0042
 1070DOPE   PO412543  11.338  34.014  11.314 -0.2765  0.0877  0.1270
 1070DOPE   GL112544  11.205  34.112  11.665  0.2454 -0.0044  0.3710
 1070DOPE   GL212545  10.931  34.125  11.596 -0.2733  0.0845  0.0291
 1070DOPE   C1A12546  11.123  34.232  12.093 -0.2458  0.1337 -0.2396
 1070DOPE   D2A12547  11.067  34.246  12.526  0.2655 -0.4612 -0.0600
 1070DOPE   C3A12548  10.817  33.940  12.793 -0.2679  0.0663 -0.1201
 1070DOPE   C4A12549  10.724  33.579  13.156 -0.0618 -0.0744  0.1194
 1070DOPE   C1B12550  10.819  33.878  12.025  0.2104 -0.1490 -0.2828
 1070DOPE   D2B12551  10.939  33.630  12.359 -0.2791 -0.1029 -0.0508
 1070DOPE   C3B12552  11.259  33.759  12.747  0.2092  0.0936  0.0395
 1070DOPE   C4B12553  11.545  33.963  13.045 -0.0348  0.3932  0.2339
 1071DOPE   NH312554   4.357  30.391  12.255 -0.0564  0.2291  0.1120
 1071DOPE   PO412555   4.549  30.137  12.115 -0.3258 -0.2783  0.1115
 1071DOPE   GL112556   4.705  30.149  12.489 -0.2725 -0.1967  0.0455
 1071DOPE   GL212557   4.972  30.066  12.452  0.2164  0.2618 -0.2782
 1071DOPE   C1A12558   4.871  30.285  12.889  0.2613  0.0986  0.0575
 1071DOPE   D2A12559   4.881  30.547  13.231 -0.2821 -0.1409 -0.3118
 1071DOPE   C3A12560   4.825  30.375  13.626  0.0227  0.1028  0.1207
 1071DOPE   C4A12561   4.767  30.256  14.023 -0.3815  0.2574  0.0854
 1071DOPE   C1B12562   5.325  29.737  12.452 -0.1526 -0.1299 -0.1715
 1071DOPE   D2B12563   5.364  29.428  12.093  0.0654 -0.1342  0.1364
 1071DOPE   C3B12564   5.576  29.055  12.237  0.2142 -0.0472  0.2408
 1071DOPE   C4B12565   5.650  28.618  12.359  0.0475  0.0496 -0.3350
 1072DOPE   NH312566   0.445  26.693  12.235 -0.1971  0.4390  0.0821
 1072DOPE   PO412567   0.599  26.556  11.978 -0.0027 -0.1543 -0.0336
 1072DOPE   GL112568   0.679  26.239  12.220  0.0639 -0.8245 -0.0763
 1072DOPE   GL212569   0.540  26.190  12.455  0.1799  0.0561 -0.0990
 1072DOPE   C1A12570   1.118  26.086  12.360  0.1606  0.1617 -0.1898
 1072DOPE   D2A12571   1.576  26.148  12.486  0.2050 -0.0942 -0.2419
 1072DOPE   C3A12572   1.946  25.902  12.748  0.3524  0.2677  0.2909
 1072DOPE   C4A12573   2.064  25.527  13.035  0.0620 -0.1228  0.3914
 1072DOPE   C1B12574   0.676  25.787  12.583  0.2042 -0.0917  0.0394
 1072DOPE   D2B12575   1.059  25.564  12.471  0.0983  0.4165  0.0433
 1072DOPE   C3B12576   1.447  25.606  12.633  0.0726  0.0155 -0.1100
 1072DOPE   C4B12577   1.588  25.405  13.008  0.0390  0.3529  0.0006
 1073POSM   NC312578   0.580  26.631  13.109  0.1710 -0.2076  0.1503
 1073POSM   PO412579   0.683  26.651  12.721 -0.1738 -0.1364 -0.2239
 1073POSM   AM112580   0.953  26.407  12.721 -0.3024  0.2761 -0.0246
 1073POSM   AM212581   1.239  26.428  12.823 -0.0039  0.0124  0.1545
 1073POSM   T1A12582   1.110  25.944  12.799  0.1568  0.0813 -0.1367
 1073POSM   C2A12583   1.065  25.537  13.025  0.0154 -0.1180 -0.0128
 1073POSM   C3A12584   1.207  25.141  12.793 -0.1389  0.1174  0.2573
 1073POSM   C1B12585   1.357  26.237  13.084 -0.0947 -0.0396 -0.5024
 1073POSM   D2B12586   1.481  26.083  13.457  0.2247  0.0589  0.1109
 1073POSM   C3B12587   1.826  25.745  13.603 -0.1985 -0.4080 -0.1543
 1073POSM   C4B12588   2.176  25.371  13.593 -0.0149 -0.2606  0.1324
 1074DOPC   NC312589  10.446  33.107  11.101 -0.2793  0.2903  0.0153
 1074DOPC   PO412590  10.452  32.749  11.004 -0.2767 -0.1518  0.3645
 1074DOPC   GL112591  10.163  32.718  11.349  0.0216  0.1318  0.2102
 1074DOPC   GL212592  10.253  32.907  11.537  0.2282  0.1073 -0.1690
 1074DOPC   C1A12593  10.209  32.383  11.632 -0.0607 -0.0968 -0.3321
 1074DOPC   D2A12594  10.618  32.249  11.851 -0.0332 -0.2606 -0.0582
 1074DOPC   C3A12595  10.935  32.481  12.037  0.0615 -0.2831  0.1958
 1074DOPC   C4A12596  11.097  32.780  12.299  0.3485 -0.1530  0.0845
 1074DOPC   C1B12597  10.210  33.085  11.961  0.1078  0.0445 -0.0178
 1074DOPC   D2B12598   9.943  33.383  12.134  0.0071 -0.2870  0.3882
 1074DOPC   C3B12599  10.035  33.758  12.394 -0.0434 -0.1838  0.0333
 1074DOPC   C4B12600  10.032  33.623  12.820 -0.0311 -0.3920 -0.4461
 1075DOPC   NC312601   5.614  33.955  12.592 -0.1669  0.0543 -0.0574
 1075DOPC   PO412602   5.607  33.572  12.768 -0.0026 -0.1227 -0.0145
 1075DOPC   GL112603   5.482  33.291  12.883  0.0734  0.5163  0.1270
 1075DOPC   GL212604   5.686  33.073  12.796 -0.0622 -0.1518 -0.1723
 1075DOPC   C1A12605   5.098  33.130  13.076 -0.3379 -0.0729  0.1234
 1075DOPC   D2A12606   4.768  32.975  13.424  0.0284  0.0320 -0.0483
 1075DOPC   C3A12607   4.959  32.800  13.805  0.2923 -0.1862 -0.3223
 1075DOPC   C4A12608   5.244  32.491  13.826 -0.1632 -0.0309  0.0236
 1075DOPC   C1B12609   5.506  32.719  13.025  0.0461 -0.0662 -0.4296
 1075DOPC   D2B12610   5.613  32.404  13.335 -0.0704  0.1890 -0.0123
 1075DOPC   C3B12611   5.683  32.270  13.783 -0.3204 -0.1833  0.2020
 1075DOPC   C4B12612   5.510  32.331  14.208 -0.5284  0.0394  0.1170
 1076POSM   NC312613   2.211  28.185  12.465 -0.0560  0.3207  0.0578
 1076POSM   PO412614   1.854  28.308  12.370 -0.2647 -0.3664 -0.0377
 1076POSM   AM112615   1.591  28.260  12.606  0.0415  0.2644 -0.3794
 1076POSM   AM212616   1.580  28.306  12.872  0.2138 -0.1512  0.0509
 1076POSM   T1A12617   1.154  28.010  12.712  0.2458 -0.1811  0.2295
 1076POSM   C2A12618   0.858  27.768  12.790  0.0085 -0.2170 -0.0679
 1076POSM   C3A12619   0.800  27.438  13.132  0.3100 -0.2367 -0.0261
 1076POSM   C1B12620   1.396  28.321  13.111  0.2207  0.0009 -0.1088
 1076POSM   D2B12621   1.081  28.440  13.463 -0.1336  0.0847 -0.2714
 1076POSM   C3B12622   0.745  28.223  13.699  0.0359 -0.2024  0.2821
 1076POSM   C4B12623   0.350  28.352  13.900 -0.0076  0.0540 -0.1432
 1077POSM   NC312624   8.767  29.848  11.587  0.2783  0.0665  0.0139
 1077POSM   PO412625   9.182  29.863  11.579  0.2573  0.2053  0.2962
 1077POSM   AM112626   9.100  29.629  11.818 -0.3242  0.1160 -0.1939
 1077POSM   AM212627   9.003  29.662  12.109  0.0185  0.0242 -0.1314
 1077POSM   T1A12628   9.303  29.268  12.119 -0.0649  0.0853 -0.2912
 1077POSM   C2A12629   9.230  28.829  12.287  0.0964 -0.2923 -0.0412
 1077POSM   C3A12630   9.351  28.452  12.417  0.1376 -0.1791  0.0615
 1077POSM   C1B12631   8.907  29.437  12.355  0.0801  0.0133 -0.3575
 1077POSM   D2B12632   8.684  29.438  12.752  0.2234  0.3677 -0.0651
 1077POSM   C3B12633   8.252  29.632  12.777  0.0262  0.2302  0.1610
 1077POSM   C4B12634   7.895  29.395  12.705 -0.0807 -0.0249 -0.0132
 1078DOPS   CNO12635   8.777  25.973  12.138  0.4084 -0.1386 -0.2544
 1078DOPS   PO412636   8.599  26.295  12.117 -0.1293 -0.0086  0.0271
 1078DOPS   GL112637   8.618  26.203  12.529  0.0767 -0.0843 -0.0587
 1078DOPS   GL212638   8.778  26.385  12.566 -0.1728 -0.1816  0.0876
 1078DOPS   C1A12639   8.618  25.975  12.959  0.1260  0.0177 -0.1118
 1078DOPS   D2A12640   8.515  25.946  13.415  0.0344 -0.0126  0.1156
 1078DOPS   C3A12641   8.115  25.813  13.520 -0.1105  0.2370 -0.3067
 1078DOPS   C4A12642   7.608  25.893  13.493 -0.0136  0.3685 -0.0017
 1078DOPS   C1B12643   9.101  26.116  12.550 -0.3753 -0.1144 -0.0231
 1078DOPS   D2B12644   9.525  26.018  12.452  0.1735  0.3881 -0.0554
 1078DOPS   C3B12645   9.638  26.240  12.851  0.0729 -0.2605  0.2564
 1078DOPS   C4B12646   9.749  26.407  13.294  0.1004  0.0493  0.0902
 1079DOPE   NH312647   6.610  31.248  12.162 -0.2601  0.2241 -0.0663
 1079DOPE   PO412648   6.778  31.050  11.980 -0.0386  0.0345 -0.0512
 1079DOPE   GL112649   7.003  31.057  12.311  0.2190 -0.1952 -0.4091
 1079DOPE   GL212650   7.215  31.072  12.226 -0.0315 -0.0715  0.3217
 1079DOPE   C1A12651   6.982  31.425  12.616  0.1421 -0.0735  0.1714
 1079DOPE   D2A12652   6.771  31.793  12.866 -0.1958  0.0855 -0.2575
 1079DOPE   C3A12653   7.062  31.947  13.192  0.1108 -0.0216 -0.3244
 1079DOPE   C4A12654   7.334  32.078  13.533 -0.1295 -0.3225  0.0166
 1079DOPE   C1B12655   7.651  31.187  12.116  0.0327 -0.1643 -0.2039
 1079DOPE   D2B12656   7.799  31.577  11.902 -0.0110  0.2136  0.0817
 1079DOPE   C3B12657   8.182  31.791  11.856  0.1607 -0.2302  0.1429
 1079DOPE   C4B12658   8.522  31.470  11.718 -0.0311  0.0385  0.1127
 1080DOPC   NC312659   7.073  27.725  12.010  0.0219 -0.1807 -0.1403
 1080DOPC   PO412660   7.093  27.426  12.291  0.0946 -0.0913 -0.0759
 1080DOPC   GL112661   7.120  27.449  12.713 -0.1956  0.4252  0.1262
 1080DOPC   GL212662   6.850  27.584  12.708  0.1941  0.0268  0.0185
 1080DOPC   C1A12663   7.332  27.642  13.053 -0.4008  0.0650 -0.1957
 1080DOPC   D2A12664   7.674  27.515  13.368  0.1286 -0.1480 -0.2274
 1080DOPC   C3A12665   7.682  27.195  13.728 -0.4340 -0.4200  0.2019
 1080DOPC   C4A12666   7.678  26.946  14.106  0.2923 -0.0433 -0.0776
 1080DOPC   C1B12667   6.839  27.523  13.168 -0.1342 -0.1762  0.2134
 1080DOPC   D2B12668   6.949  27.796  13.565 -0.1171 -0.1639  0.0386
 1080DOPC   C3B12669   7.345  27.653  13.783 -0.2155 -0.1213 -0.2097
 1080DOPC   C4B12670   7.588  27.489  14.156  0.0212 -0.2625 -0.0515
 1081DOPC   NC312671   4.757  30.986  12.017  0.1160  0.1153  0.0832
 1081DOPC   PO412672   4.757  30.632  12.213  0.1322 -0.0032 -0.2500
 1081DOPC   GL112673   4.632  30.573  12.589 -0.2252 -0.0906  0.4811
 1081DOPC   GL212674   4.892  30.695  12.711  0.3196 -0.0852  0.1412
 1081DOPC   C1A12675   4.437  30.722  12.984  0.5744  0.1437  0.2137
 1081DOPC   D2A12676   4.527  30.873  13.444 -0.4003 -0.2239  0.0806
 1081DOPC   C3A12677   4.703  31.238  13.448 -0.0452  0.1328  0.1302
 1081DOPC   C4A12678   4.996  31.533  13.705 -0.2478 -0.0109  0.0430
 1081DOPC   C1B12679   4.878  30.984  13.032  0.1216 -0.0242 -0.1274
 1081DOPC   D2B12680   5.064  30.961  13.527 -0.0044  0.2826 -0.1894
 1081DOPC   C3B12681   4.813  30.805  13.903  0.0194  0.0261 -0.1076
 1081DOPC   C4B12682   4.480  30.655  14.264 -0.1023  0.2545  0.0679
 1082DOPC   NC312683   4.837  34.338  12.150 -0.4114  0.0671  0.3587
 1082DOPC   PO412684   4.819  34.110  12.479 -0.0682  0.4043 -0.3376
 1082DOPC   GL112685   4.635  33.831  12.698 -0.0911  0.3498 -0.0075
 1082DOPC   GL212686   4.808  33.953  13.006  0.2324  0.0140 -0.3231
 1082DOPC   C1A12687   4.426  33.408  12.642  0.2669  0.1249 -0.1595
 1082DOPC   D2A12688   4.498  33.082  12.994  0.2071  0.0404 -0.1493
 1082DOPC   C3A12689   4.233  32.796  13.283  0.0217 -0.2968 -0.0348
 1082DOPC   C4A12690   3.974  32.676  13.662  0.3307  0.0938 -0.2875
 1082DOPC   C1B12691   4.665  33.538  13.127  0.1524 -0.0091 -0.2806
 1082DOPC   D2B12692   4.332  33.342  13.397  0.1591  0.2360 -0.0747
 1082DOPC   C3B12693   4.563  33.220  13.771  0.0375 -0.3558 -0.2551
 1082DOPC   C4B12694   4.998  33.276  13.911 -0.1287  0.0440 -0.3403
 1083DOPE   NH312695   8.495  24.496  12.659  0.1181  0.0901 -0.0239
 1083DOPE   PO412696   8.408  24.493  12.338  0.2616 -0.3156  0.0811
 1083DOPE   GL112697   8.057  24.449  12.649 -0.2698 -0.1472 -0.1354
 1083DOPE   GL212698   7.885  24.596  12.450 -0.0172 -0.3887 -0.0570
 1083DOPE   C1A12699   7.673  24.200  12.721  0.3084 -0.1295  0.0085
 1083DOPE   D2A12700   7.252  24.233  12.897 -0.4098  0.0526  0.0596
 1083DOPE   C3A12701   7.192  24.216  13.324 -0.0588 -0.0180 -0.0140
 1083DOPE   C4A12702   7.226  24.089  13.786 -0.2538 -0.2441 -0.1318
 1083DOPE   C1B12703   7.628  24.636  12.809  0.0451 -0.1594 -0.4406
 1083DOPE   D2B12704   7.345  24.632  13.162  0.2510  0.0107  0.2650
 1083DOPE   C3B12705   7.436  24.693  13.642 -0.0636  0.1648 -0.2147
 1083DOPE   C4B12706   7.468  24.455  14.030  0.0240  0.1905  0.0742
 1084DOPC   NC312707   9.511  31.262  11.468 -0.1169 -0.1790 -0.0520
 1084DOPC   PO412708   9.675  30.891  11.576  0.3576  0.0770 -0.1320
 1084DOPC   GL112709   9.920  31.203  11.859  0.1673  0.3349 -0.0481
 1084DOPC   GL212710   9.953  31.470  11.664 -0.2296 -0.0389 -0.1959
 1084DOPC   C1A12711  10.330  31.316  12.001  0.3531 -0.2846  0.0911
 1084DOPC   D2A12712  10.564  31.599  12.310 -0.0763  0.2939 -0.1009
 1084DOPC   C3A12713  10.242  31.540  12.644 -0.5904 -0.1533  0.0668
 1084DOPC   C4A12714  10.129  31.386  13.088  0.1087 -0.0537  0.1628
 1084DOPC   C1B12715   9.886  31.655  12.070  0.3506  0.1909 -0.0105
 1084DOPC   D2B12716   9.688  31.928  12.335  0.0479  0.3128  0.0897
 1084DOPC   C3B12717   9.577  32.043  12.747  0.1172  0.3905  0.0844
 1084DOPC   C4B12718   9.621  32.147  13.176  0.2283  0.0902  0.3096
 1085POSM   NC312719   2.247  27.187  12.749  0.1598 -0.2661  0.0792
 1085POSM   PO412720   2.252  27.197  12.350 -0.0653 -0.4604 -0.1736
 1085POSM   AM112721   2.585  27.247  12.355  0.1690  0.0432  0.0898
 1085POSM   AM212722   2.798  27.205  12.504  0.1008  0.0501 -0.0136
 1085POSM   T1A12723   2.995  27.439  12.070 -0.0333  0.0933 -0.0373
 1085POSM   C2A12724   3.114  27.830  11.869  0.1549  0.0923  0.1229
 1085POSM   C3A12725   3.187  28.308  11.930  0.1354 -0.0341  0.2400
 1085POSM   C1B12726   3.069  27.067  12.345  0.1405 -0.1301  0.1732
 1085POSM   D2B12727   3.468  27.064  12.217  0.2174 -0.1326  0.1235
 1085POSM   C3B12728   3.619  27.176  12.675 -0.1571  0.0050  0.1819
 1085POSM   C4B12729   3.701  27.189  13.164 -0.1635  0.2074 -0.2473
 1086DOPS   CNO12730   3.032  23.037  12.738 -0.1075  0.0652  0.1102
 1086DOPS   PO412731   2.939  22.852  13.061  0.1094  0.2803  0.2402
 1086DOPS   GL112732   2.939  22.525  13.235 -0.1847  0.0254 -0.1666
 1086DOPS   GL212733   3.142  22.549  13.440  0.2072  0.1391 -0.2730
 1086DOPS   C1A12734   3.149  22.050  13.193 -0.1018  0.0435  0.0254
 1086DOPS   D2A12735   3.350  21.691  13.488  0.0496  0.2423 -0.1217
 1086DOPS   C3A12736   3.201  21.294  13.696 -0.3223  0.1481 -0.6321
 1086DOPS   C4A12737   2.874  21.034  13.886  0.3411  0.1465  0.1678
 1086DOPS   C1B12738   3.037  22.162  13.701 -0.0755  0.2629 -0.0853
 1086DOPS   D2B12739   2.829  21.943  14.067  0.3131 -0.2274  0.0252
 1086DOPS   C3B12740   2.728  22.155  14.457 -0.1580 -0.0732 -0.3548
 1086DOPS   C4B12741   2.492  22.470  14.642  0.0109 -0.1051  0.2251
 1087DOPE   NH312742   1.606  28.737  12.543  0.1583 -0.0145  0.2185
 1087DOPE   PO412743   1.674  29.047  12.510  0.0173  0.2238 -0.2045
 1087DOPE   GL112744   1.539  29.051  12.882 -0.1907  0.0282  0.5191
 1087DOPE   GL212745   1.693  28.885  13.087 -0.0364  0.1509 -0.0078
 1087DOPE   C1A12746   1.228  28.740  12.973  0.2239 -0.1225  0.0099
 1087DOPE   D2A12747   0.886  28.403  12.956 -0.3313  0.1388  0.0525
 1087DOPE   C3A12748   0.866  28.066  13.216  0.0035  0.1381  0.0858
 1087DOPE   C4A12749   0.918  27.787  13.574 -0.1822  0.1027  0.1657
 1087DOPE   C1B12750   1.495  29.195  13.366  0.2687 -0.1607 -0.2039
 1087DOPE   D2B12751   1.341  29.560  13.615 -0.2146 -0.1891 -0.2284
 1087DOPE   C3B12752   1.171  29.621  14.050 -0.1982  0.3797 -0.3334
 1087DOPE   C4B12753   0.953  29.984  14.286  0.1264 -0.1243 -0.0667
 1088POSM   NC312754  34.393  26.335  12.186 -0.1195  0.0703  0.2308
 1088POSM   PO412755  34.774  26.342  12.222 -0.1102 -0.0881 -0.0037
 1088POSM   AM112756  34.731  26.183  12.513 -0.3908  0.0074  0.4721
 1088POSM   AM212757  34.550  25.993  12.598 -0.1555  0.2708  0.0861
 1088POSM   T1A12758  34.995  25.975  12.890  0.0523  0.2441 -0.2116
 1088POSM   C2A12759  35.412  26.154  13.085 -0.2187 -0.0233  0.2246
 1088POSM   C3A12760  35.705  25.977  13.392  0.3000 -0.0841 -0.6317
 1088POSM   C1B12761  34.749  25.716  12.508 -0.1400  0.2068 -0.2270
 1088POSM   D2B12762  35.091  25.363  12.548  0.1595  0.1245  0.0885
 1088POSM   C3B12763  35.378  25.203  12.861  0.0230 -0.1432  0.1490
 1088POSM   C4B12764  35.557  25.114  13.295 -0.3191  0.1652 -0.1247
 1089DOPC   NC312765   5.892  27.186  12.928 -0.2652  0.0988  0.1052
 1089DOPC   PO412766   6.012  27.341  12.564  0.3672 -0.0645  0.1319
 1089DOPC   GL112767   6.096  27.580  12.900 -0.0739 -0.3301  0.1075
 1089DOPC   GL212768   6.388  27.415  12.807 -0.0934 -0.3508 -0.1440
 1089DOPC   C1A12769   5.689  27.603  13.173 -0.2633 -0.0157  0.0432
 1089DOPC   D2A12770   5.440  27.951  13.389  0.4266 -0.0072  0.4367
 1089DOPC   C3A12771   5.606  28.176  13.706 -0.0376 -0.1626  0.1118
 1089DOPC   C4A12772   5.662  28.570  13.831  0.1192 -0.2478  0.0167
 1089DOPC   C1B12773   6.427  27.843  12.945  0.0146 -0.0883  0.1492
 1089DOPC   D2B12774   6.386  28.333  13.020 -0.0504  0.0236  0.0531
 1089DOPC   C3B12775   6.149  28.618  13.354  0.1784 -0.0334  0.1156
 1089DOPC   C4B12776   5.812  28.906  13.512  0.3002 -0.1661 -0.1270
 1090DOPS   CNO12777   2.941  23.621  12.358  0.0587  0.1463 -0.0722
 1090DOPS   PO412778   2.870  23.530  12.707 -0.0653  0.3895  0.0069
 1090DOPS   GL112779   2.843  23.799  13.031 -0.0449  0.1248  0.0026
 1090DOPS   GL212780   2.717  23.833  13.314 -0.0220 -0.0980  0.0500
 1090DOPS   C1A12781   3.184  24.010  13.281  0.1965 -0.1392  0.1871
 1090DOPS   D2A12782   2.990  24.190  13.570 -0.0173  0.3090  0.0987
 1090DOPS   C3A12783   2.858  23.988  13.986  0.0640 -0.2472  0.0065
 1090DOPS   C4A12784   2.972  23.932  14.436  0.0708  0.0654  0.0727
 1090DOPS   C1B12785   3.040  23.631  13.628  0.1647 -0.1533 -0.2483
 1090DOPS   D2B12786   3.405  23.636  13.929  0.1532 -0.3287  0.0493
 1090DOPS   C3B12787   3.471  24.030  14.178 -0.4185  0.1720  0.3035
 1090DOPS   C4B12788   3.397  24.156  14.599  0.2452  0.0766  0.1246
 1091DOPC   NC312789   1.452  27.780  12.357 -0.0083 -0.1445  0.2888
 1091DOPC   PO412790   1.775  27.798  12.602  0.0034  0.0490  0.3658
 1091DOPC   GL112791   1.881  27.572  12.947  0.1646 -0.3033 -0.3205
 1091DOPC   GL212792   2.166  27.525  13.125  0.1043 -0.0397 -0.1050
 1091DOPC   C1A12793   1.759  27.897  13.250 -0.0865 -0.1885  0.0666
 1091DOPC   D2A12794   1.698  27.946  13.729 -0.3409 -0.1776 -0.0109
 1091DOPC   C3A12795   1.794  27.950  14.192  0.2016  0.3144 -0.3436
 1091DOPC   C4A12796   1.695  27.903  14.648 -0.1505 -0.3311  0.0067
 1091DOPC   C1B12797   2.212  27.175  13.329  0.0399  0.1456  0.2516
 1091DOPC   D2B12798   2.486  26.817  13.123 -0.0257  0.2279 -0.0606
 1091DOPC   C3B12799   2.820  26.485  13.127 -0.2434 -0.2552 -0.1750
 1091DOPC   C4B12800   3.050  26.237  12.787 -0.1677 -0.0768 -0.1524
 1092DOPC   NC312801   4.932  26.713  12.721  0.0495  0.2437  0.1259
 1092DOPC   PO412802   5.171  26.403  12.888  0.2464 -0.0027  0.0367
 1092DOPC   GL112803   5.079  26.523  13.287  0.0135 -0.0961  0.1998
 1092DOPC   GL212804   4.820  26.644  13.185 -0.1575 -0.1829 -0.0105
 1092DOPC   C1A12805   4.856  26.581  13.701  0.2121  0.0662 -0.2189
 1092DOPC   D2A12806   4.807  26.849  13.996 -0.0772 -0.0245  0.1338
 1092DOPC   C3A12807   4.361  26.954  14.170  0.2445  0.0607 -0.0326
 1092DOPC   C4A12808   4.012  27.253  14.118  0.0570  0.1362  0.1206
 1092DOPC   C1B12809   4.352  26.759  13.117 -0.1125  0.1162 -0.0866
 1092DOPC   D2B12810   3.989  26.678  13.350 -0.0861  0.2381 -0.1193
 1092DOPC   C3B12811   3.710  26.411  13.655 -0.0334 -0.2801  0.2404
 1092DOPC   C4B12812   3.400  26.480  14.006  0.3128  0.1863 -0.3080
 1093DOPE   NH312813   6.193  26.054  12.050 -0.0769 -0.0804  0.0603
 1093DOPE   PO412814   6.456  26.029  12.268 -0.2382  0.3466 -0.1888
 1093DOPE   GL112815   6.583  25.746  12.688  0.0888  0.2980  0.0251
 1093DOPE   GL212816   6.322  25.620  12.713  0.2412  0.0830 -0.2195
 1093DOPE   C1A12817   6.796  25.875  13.111  0.0017  0.2516  0.1245
 1093DOPE   D2A12818   7.094  25.950  13.474 -0.3381  0.3619 -0.0393
 1093DOPE   C3A12819   7.317  26.347  13.518  0.0974  0.0046  0.0249
 1093DOPE   C4A12820   7.475  26.763  13.560 -0.1879 -0.1909  0.1826
 1093DOPE   C1B12821   6.687  25.309  12.874  0.0381 -0.0673  0.2584
 1093DOPE   D2B12822   6.987  25.231  13.265 -0.2200  0.0243  0.2393
 1093DOPE   C3B12823   6.823  25.032  13.596  0.2550 -0.1584  0.1544
 1093DOPE   C4B12824   6.586  24.923  14.047  0.2303  0.1720 -0.1587
 1094DOPC   NC312825   1.747  26.959  12.143  0.3335 -0.0010 -0.0274
 1094DOPC   PO412826   1.532  26.633  12.184 -0.2232  0.0646 -0.1323
 1094DOPC   GL112827   1.916  26.548  12.271  0.1107 -0.1739  0.0293
 1094DOPC   GL212828   1.990  26.662  12.501 -0.1504  0.0371 -0.0583
 1094DOPC   C1A12829   2.023  26.072  12.316  0.2004  0.2180  0.1379
 1094DOPC   D2A12830   1.855  25.593  12.320  0.2418 -0.1661 -0.1220
 1094DOPC   C3A12831   2.154  25.306  12.518 -0.0215  0.1000  0.0401
 1094DOPC   C4A12832   2.259  24.841  12.513 -0.0611  0.0693  0.1304
 1094DOPC   C1B12833   1.865  26.373  12.883  0.1717  0.0237 -0.4363
 1094DOPC   D2B12834   1.925  26.120  13.228  0.0527  0.0259 -0.2587
 1094DOPC   C3B12835   1.916  26.251  13.696  0.1657 -0.1634 -0.0096
 1094DOPC   C4B12836   1.579  26.113  14.021  0.0701  0.1467 -0.0235
 1095DOPC   NC312837   6.853  34.631  11.956 -0.0057  0.0804 -0.0612
 1095DOPC   PO412838   7.087  34.929  11.949 -0.0470 -0.0252  0.0922
 1095DOPC   GL112839   7.223  34.606  12.195 -0.3110 -0.1904  0.1524
 1095DOPC   GL212840   7.463  34.687  12.152  0.0947 -0.0592 -0.2222
 1095DOPC   C1A12841   7.183  34.290  12.559  0.2399 -0.1563  0.1589
 1095DOPC   D2A12842   7.004  34.054  12.893 -0.1224 -0.2337  0.2227
 1095DOPC   C3A12843   7.219  33.780  13.175 -0.0037  0.3090 -0.3758
 1095DOPC   C4A12844   7.219  33.783  13.643  0.0213  0.2822 -0.0664
 1095DOPC   C1B12845   7.647  34.467  12.492  0.0668  0.0025  0.0013
 1095DOPC   D2B12846   7.948  34.565  12.847  0.3107 -0.3218  0.1023
 1095DOPC   C3B12847   8.311  34.193  12.870 -0.0943 -0.3652 -0.1400
 1095DOPC   C4B12848   8.549  33.974  13.144 -0.1307 -0.2804 -0.3366
 1096POSM   NC312849   4.925  33.414  12.678  0.0193 -0.0811  0.0467
 1096POSM   PO412850   5.164  33.711  12.652  0.0279  0.2070 -0.2357
 1096POSM   AM112851   5.209  33.712  12.988  0.0614  0.1539  0.0691
 1096POSM   AM212852   5.236  33.945  13.159 -0.0582  0.1039 -0.1863
 1096POSM   T1A12853   5.375  33.436  13.391  0.3843  0.1406 -0.0510
 1096POSM   C2A12854   5.421  33.674  13.806 -0.3113  0.0206  0.0567
 1096POSM   C3A12855   5.460  33.804  14.227  0.0602  0.0476 -0.2049
 1096POSM   C1B12856   5.085  33.824  13.452  0.1267 -0.0104  0.2022
 1096POSM   D2B12857   4.685  33.763  13.678  0.2419  0.2964 -0.1439
 1096POSM   C3B12858   4.558  33.974  14.120  0.2399  0.1905 -0.0694
 1096POSM   C4B12859   4.175  34.269  14.181  0.1218  0.0716 -0.0266
 1097DOPE   NH312860   4.935  27.506  12.223 -0.0328  0.0656  0.0569
 1097DOPE   PO412861   5.247  27.463  12.253  0.0310 -0.0147 -0.0238
 1097DOPE   GL112862   5.339  27.583  12.636 -0.4108 -0.1257 -0.0309
 1097DOPE   GL212863   5.398  27.340  12.830 -0.2368  0.2198  0.1601
 1097DOPE   C1A12864   5.247  27.871  12.957  0.4595  0.0094 -0.3575
 1097DOPE   D2A12865   5.038  28.158  13.214 -0.1682 -0.0432  0.0323
 1097DOPE   C3A12866   4.917  27.857  13.581  0.2949  0.1216 -0.0286
 1097DOPE   C4A12867   4.735  27.742  14.039  0.1639 -0.0396 -0.1747
 1097DOPE   C1B12868   5.208  27.483  13.233  0.0889 -0.0985  0.0915
 1097DOPE   D2B12869   5.020  27.348  13.607 -0.0073  0.0855  0.2663
 1097DOPE   C3B12870   5.206  27.263  13.949 -0.2553  0.2310  0.0599
 1097DOPE   C4B12871   5.482  27.354  14.309 -0.4067 -0.2193  0.0585
 1098DOPS   CNO12872   5.088  26.892  12.022  0.1758  0.0798 -0.3968
 1098DOPS   PO412873   5.144  26.994  12.375  0.0632 -0.2443  0.0795
 1098DOPS   GL112874   4.845  27.173  12.586 -0.3404  0.2204  0.1207
 1098DOPS   GL212875   4.955  27.299  12.745  0.1154 -0.0165  0.0779
 1098DOPS   C1A12876   4.409  27.266  12.401 -0.0604 -0.0293 -0.3069
 1098DOPS   D2A12877   4.332  27.436  12.000  0.0372 -0.2488 -0.0147
 1098DOPS   C3A12878   4.025  27.764  11.973 -0.0882  0.1095 -0.0823
 1098DOPS   C4A12879   3.788  28.144  12.155  0.2623 -0.0991  0.0272
 1098DOPS   C1B12880   4.919  27.093  13.136 -0.0737  0.1562  0.1233
 1098DOPS   D2B12881   4.681  27.026  13.544 -0.1490  0.1409 -0.2795
 1098DOPS   C3B12882   4.359  26.700  13.642 -0.1842 -0.0701  0.2398
 1098DOPS   C4B12883   4.090  26.479  13.963 -0.1163  0.3809 -0.1004
 1099DOPC   NC312884   5.032   0.180  12.217  0.2038 -0.1520  0.0311
 1099DOPC   PO412885   4.698   0.093  12.416 -0.1852 -0.1347  0.0467
 1099DOPC   GL112886   4.668   0.020  12.770  0.3374  0.3939  0.1962
 1099DOPC   GL212887   4.644  -0.243  12.906 -0.1920 -0.1495  0.2012
 1099DOPC   C1A12888   4.556   0.295  13.102 -0.2792 -0.2528 -0.1478
 1099DOPC   D2A12889   4.592   0.437  13.572  0.0256 -0.0455 -0.1209
 1099DOPC   C3A12890   4.422   0.834  13.501 -0.2968 -0.0880 -0.1439
 1099DOPC   C4A12891   4.207   0.992  13.930  0.3738 -0.0170  0.0599
 1099DOPC   C1B12892   4.214  -0.174  13.024  0.1748  0.1543  0.0254
 1099DOPC   D2B12893   3.828  -0.078  13.174  0.4344 -0.0785 -0.1750
 1099DOPC   C3B12894   3.620  -0.466  13.302 -0.1291  0.2871  0.1838
 1099DOPC   C4B12895   3.838  -0.777  13.599 -0.1333 -0.3694  0.3525
 1100DOPE   NH312896   1.009  26.630  12.256  0.1243 -0.0443 -0.0197
 1100DOPE   PO412897   1.166  26.806  12.500 -0.1323  0.0286 -0.0370
 1100DOPE   GL112898   1.099  26.874  12.996  0.1801 -0.3240  0.2281
 1100DOPE   GL212899   1.172  27.085  13.230 -0.2023  0.0437 -0.0166
 1100DOPE   C1A12900   1.077  26.583  13.330  0.1211  0.3584  0.1796
 1100DOPE   D2A12901   1.104  26.390  13.702  0.1317  0.3779 -0.0802
 1100DOPE   C3A12902   0.791  26.699  13.808  0.0986  0.1720 -0.0717
 1100DOPE   C4A12903   0.385  26.737  14.096 -0.0291 -0.1213 -0.0185
 1100DOPE   C1B12904   0.732  27.038  13.416 -0.2075 -0.1669 -0.0728
 1100DOPE   D2B12905   0.521  27.151  13.791  0.0305  0.0949 -0.1804
 1100DOPE   C3B12906   0.505  27.238  14.198  0.0001  0.0720  0.0177
 1100DOPE   C4B12907   0.524  26.898  14.553  0.1172  0.0616  0.1941
 1101DOPE   NH312908   5.673  27.635  12.222 -0.2003  0.3615  0.3790
 1101DOPE   PO412909   5.603  27.953  12.177 -0.0532 -0.0410 -0.1709
 1101DOPE   GL112910   5.539  28.009  12.597 -0.1064  0.1214 -0.1794
 1101DOPE   GL212911   5.733  27.782  12.675  0.2769  0.2848 -0.1579
 1101DOPE   C1A12912   5.454  28.330  12.898  0.1774  0.0427 -0.2470
 1101DOPE   D2A12913   5.587  28.466  13.329 -0.1869  0.1469  0.0827
 1101DOPE   C3A12914   5.236  28.518  13.610  0.2950  0.2170  0.3532
 1101DOPE   C4A12915   4.873  28.336  13.799 -0.4054 -0.2484 -0.2896
 1101DOPE   C1B12916   5.951  28.179  12.741 -0.0397  0.1561  0.2941
 1101DOPE   D2B12917   6.004  28.615  12.857 -0.0368  0.2014  0.2717
 1101DOPE   C3B12918   5.658  28.929  12.819 -0.2061 -0.2739 -0.1088
 1101DOPE   C4B12919   5.683  29.343  12.661 -0.0701  0.1468 -0.1552
 1102POSM   NC312920   9.388  30.434  11.446 -0.0325  0.2637  0.1463
 1102POSM   PO412921   9.402  30.543  11.834  0.1070 -0.2705 -0.3158
 1102POSM   AM112922   9.479  30.768  12.051  0.1479  0.1422 -0.0771
 1102POSM   AM212923   9.437  31.035  11.987  0.4006  0.2616  0.0577
 1102POSM   T1A12924   9.502  30.917  12.509  0.0589 -0.2953 -0.0364
 1102POSM   C2A12925   9.475  31.220  12.825 -0.2205 -0.0262  0.0399
 1102POSM   C3A12926   9.610  31.558  13.094 -0.0020  0.2097 -0.0334
 1102POSM   C1B12927   9.205  31.143  12.191  0.2252 -0.1048  0.1726
 1102POSM   D2B12928   8.983  31.137  12.616  0.3755  0.0873  0.1793
 1102POSM   C3B12929   8.585  31.338  12.602 -0.1796 -0.2335 -0.0592
 1102POSM   C4B12930   8.317  31.687  12.751 -0.1723 -0.0335  0.0697
 1103POSM   NC312931   8.718   0.227  11.193  0.2769 -0.4124 -0.2076
 1103POSM   PO412932   8.822  -0.075  11.047 -0.0921 -0.0040  0.0197
 1103POSM   AM112933   8.716  -0.274  11.317  0.2278  0.0296  0.2302
 1103POSM   AM212934   8.597  -0.210  11.529  0.0975  0.2027 -0.0053
 1103POSM   T1A12935   8.813  -0.687  11.591 -0.1855 -0.2672 -0.1374
 1103POSM   C2A12936   8.674  -1.027  11.892  0.0787  0.0346  0.1226
 1103POSM   C3A12937   8.707  -1.468  11.943 -0.1422  0.3295  0.2106
 1103POSM   C1B12938   8.877  -0.088  11.732  0.1154  0.0712 -0.1533
 1103POSM   D2B12939   9.254  -0.010  11.996  0.1600 -0.0105  0.0082
 1103POSM   C3B12940   9.674   0.010  12.154  0.2395  0.0249 -0.0444
 1103POSM   C4B12941   9.750   0.159  12.625  0.2279  0.1684 -0.1032
 1104DOPC   NC312942   0.851  27.719  12.336  0.2568 -0.1988  0.3854
 1104DOPC   PO412943   0.552  27.459  12.248  0.1941 -0.2833  0.0152
 1104DOPC   GL112944   0.383  27.518  12.655 -0.0719  0.1235  0.3402
 1104DOPC   GL212945   0.383  27.827  12.553  0.1079 -0.1158 -0.1333
 1104DOPC   C1A12946   0.404  27.673  13.096 -0.2853 -0.1138 -0.3357
 1104DOPC   D2A12947   0.425  27.600  13.565 -0.2412 -0.0068 -0.2561
 1104DOPC   C3A12948   0.661  27.684  13.966  0.0227  0.0831 -0.1573
 1104DOPC   C4A12949   0.894  27.993  14.253 -0.0074  0.1325  0.2355
 1104DOPC   C1B12950   0.491  28.128  12.814  0.0256  0.0215 -0.1352
 1104DOPC   D2B12951   0.382  28.395  13.126 -0.3054 -0.1590  0.1632
 1104DOPC   C3B12952   0.326  28.108  13.466  0.0820  0.1119 -0.2615
 1104DOPC   C4B12953   0.035  27.814  13.722  0.4393 -0.1547 -0.5044
 1105DOPC   NC312954   4.234  34.671  12.541  0.0899 -0.0205  0.2006
 1105DOPC   PO412955   4.377  34.385  12.334 -0.2528  0.1277 -0.2353
 1105DOPC   GL112956   4.331  34.084  12.530 -0.1442  0.0731  0.0622
 1105DOPC   GL212957   4.244  34.098  12.804 -0.1556  0.1801  0.0687
 1105DOPC   C1A12958   4.006  33.721  12.464  0.1006 -0.1149  0.5914
 1105DOPC   D2A12959   3.949  33.307  12.640  0.1681 -0.1943 -0.1419
 1105DOPC   C3A12960   3.863  33.182  13.095  0.2629 -0.2254 -0.2178
 1105DOPC   C4A12961   3.725  32.825  13.234 -0.1203  0.0070 -0.1622
 1105DOPC   C1B12962   4.065  33.902  13.114 -0.0657  0.0578 -0.1881
 1105DOPC   D2B12963   3.648  33.667  13.152  0.1547  0.1381 -0.0747
 1105DOPC   C3B12964   3.599  33.399  13.546  0.2246  0.0468  0.0352
 1105DOPC   C4B12965   3.320  33.518  13.886 -0.1692 -0.1478  0.0057
 1106DOPC   NC312966   5.883  30.777  12.306 -0.3446 -0.0030 -0.1406
 1106DOPC   PO412967   6.086  30.488  12.167 -0.0684  0.1120 -0.1264
 1106DOPC   GL112968   6.473  30.377  12.300  0.3633 -0.0594 -0.0917
 1106DOPC   GL212969   6.477  30.458  12.626 -0.2514  0.0519  0.2835
 1106DOPC   C1A12970   6.762  30.023  12.406 -0.2022 -0.1531  0.5608
 1106DOPC   D2A12971   6.743  29.558  12.434  0.0558 -0.1940 -0.0760
 1106DOPC   C3A12972   6.788  29.303  12.852  0.1235  0.1611 -0.3174
 1106DOPC   C4A12973   6.850  29.143  13.255  0.2688  0.3625  0.2487
 1106DOPC   C1B12974   6.326  30.064  12.646  0.0911  0.1573  0.0263
 1106DOPC   D2B12975   6.510  29.713  12.932  0.1680 -0.0062 -0.0570
 1106DOPC   C3B12976   6.875  29.775  13.237 -0.1876 -0.1404  0.0311
 1106DOPC   C4B12977   7.118  29.953  13.567 -0.0558  0.2281  0.1620
 1107POSM   NC312978   2.341  26.348  11.969  0.2473 -0.2391  0.1482
 1107POSM   PO412979   2.487  26.588  11.666 -0.0958 -0.2842  0.3419
 1107POSM   AM112980   2.672  26.679  11.921 -0.0201  0.0753  0.0962
 1107POSM   AM212981   2.766  26.938  11.944  0.3737 -0.2083 -0.1493
 1107POSM   T1A12982   3.030  26.537  12.233 -0.0579 -0.1768  0.1508
 1107POSM   C2A12983   3.476  26.540  12.420 -0.1006 -0.0711  0.2871
 1107POSM   C3A12984   3.900  26.367  12.476  0.1124  0.0158 -0.0578
 1107POSM   C1B12985   3.099  26.869  11.895  0.3818 -0.0349 -0.0177
 1107POSM   D2B12986   3.496  26.616  11.843  0.1194 -0.2053 -0.0850
 1107POSM   C3B12987   3.419  26.223  12.010  0.0093 -0.0999  0.1845
 1107POSM   C4B12988   3.467  26.039  12.443 -0.0489 -0.0662  0.1795
 1108DOPC   NC312989   1.468  32.416  12.146 -0.0803 -0.1978  0.1262
 1108DOPC   PO412990   1.750  32.590  12.390 -0.1423 -0.1611 -0.1166
 1108DOPC   GL112991   1.727  32.830  12.758 -0.0322 -0.0367 -0.0480
 1108DOPC   GL212992   1.875  33.031  12.748  0.1544 -0.0756  0.1001
 1108DOPC   C1A12993   1.915  32.849  13.244 -0.2858 -0.1558  0.1401
 1108DOPC   D2A12994   1.670  32.810  13.713  0.1167  0.0318  0.0716
 1108DOPC   C3A12995   1.695  32.437  13.978  0.0737  0.0451 -0.0670
 1108DOPC   C4A12996   1.967  32.108  14.253  0.2046 -0.0641  0.1029
 1108DOPC   C1B12997   1.907  33.390  12.962  0.2512 -0.0201 -0.0868
 1108DOPC   D2B12998   1.912  33.613  13.362  0.2763  0.0193 -0.0201
 1108DOPC   C3B12999   2.123  33.864  13.783 -0.4216 -0.0236 -0.1570
 1108DOPC   C4B13000   2.437  34.146  13.978  0.0464  0.0376  0.0758
 1109POSM   NC313001  11.113  28.598  11.487 -0.0725 -0.1149 -0.0296
 1109POSM   PO413002  10.730  28.512  11.632  0.0918 -0.0033  0.3327
 1109POSM   AM113003  10.783  28.362  11.912  0.0733  0.3119  0.2875
 1109POSM   AM213004  10.595  28.368  12.167  0.0379 -0.1610  0.3755
 1109POSM   T1A13005  10.850  27.962  12.186 -0.3940  0.0329  0.1956
 1109POSM   C2A13006  11.020  27.814  12.610 -0.2155  0.0653 -0.0422
 1109POSM   C3A13007  11.180  27.715  13.023 -0.1614  0.4075  0.0651
 1109POSM   C1B13008  10.625  28.298  12.487 -0.1801  0.0388  0.3563
 1109POSM   D2B13009  10.970  28.263  12.792  0.0311 -0.1976 -0.1998
 1109POSM   C3B13010  10.830  28.051  13.135 -0.1946 -0.0070 -0.1974
 1109POSM   C4B13011  10.752  28.153  13.646 -0.0411 -0.1484  0.1258
 1110DOPS   CNO13012   9.295  24.919  12.140  0.1285  0.0172 -0.4930
 1110DOPS   PO413013   9.213  25.132  12.441  0.0413 -0.2109  0.1163
 1110DOPS   GL113014   9.262  25.360  12.737  0.0578  0.2634  0.1192
 1110DOPS   GL213015   9.172  25.601  12.735  0.2845  0.0365 -0.2462
 1110DOPS   C1A13016   9.347  25.215  13.140  0.2061  0.2541  0.2112
 1110DOPS   D2A13017   9.738  25.005  13.348 -0.1866  0.2715  0.0039
 1110DOPS   C3A13018  10.090  25.072  13.640 -0.0732 -0.0121  0.3769
 1110DOPS   C4A13019  10.351  25.107  13.974  0.1489  0.1243  0.0844
 1110DOPS   C1B13020   9.116  25.683  13.142 -0.2542  0.0532  0.1185
 1110DOPS   D2B13021   8.954  25.564  13.521  0.1706  0.2783  0.1524
 1110DOPS   C3B13022   9.134  25.609  13.955  0.1178 -0.2022 -0.1797
 1110DOPS   C4B13023   9.408  25.906  14.200 -0.0654  0.2964  0.1465
 1111DOPC   NC313024   4.909  28.080  11.982 -0.1968 -0.2556 -0.2717
 1111DOPC   PO413025   5.062  27.941  12.339  0.1078 -0.0900 -0.2028
 1111DOPC   GL113026   4.855  28.061  12.667  0.2604  0.1434  0.3181
 1111DOPC   GL213027   5.034  28.321  12.668  0.0690 -0.0330 -0.4145
 1111DOPC   C1A13028   4.679  27.854  13.033 -0.0570  0.1988 -0.0891
 1111DOPC   D2A13029   4.226  27.837  13.068  0.2859 -0.1522 -0.0274
 1111DOPC   C3A13030   4.045  27.551  12.768 -0.1748  0.0823 -0.0113
 1111DOPC   C4A13031   4.087  27.145  12.802  0.4324 -0.0949 -0.0376
 1111DOPC   C1B13032   5.204  28.772  12.613 -0.0744 -0.0555  0.1097
 1111DOPC   D2B13033   5.148  29.224  12.765 -0.1787 -0.3698 -0.0015
 1111DOPC   C3B13034   5.375  29.290  13.129  0.2395 -0.1746 -0.0374
 1111DOPC   C4B13035   5.820  29.276  13.211  0.1368 -0.1191 -0.2514
 1112DOPS   CNO13036   0.096  33.679  12.302 -0.2192  0.1140 -0.0447
 1112DOPS   PO413037   0.102  33.523  12.642 -0.1141 -0.1167  0.2187
 1112DOPS   GL113038   0.323  33.492  12.875 -0.1459 -0.0345 -0.0867
 1112DOPS   GL213039   0.534  33.597  12.911 -0.0622 -0.0261  0.4861
 1112DOPS   C1A13040   0.306  33.423  13.314  0.0043 -0.1340  0.2721
 1112DOPS   D2A13041   0.154  33.319  13.686 -0.0264 -0.0536  0.2494
 1112DOPS   C3A13042  -0.216  33.521  13.944 -0.1135 -0.0878  0.0417
 1112DOPS   C4A13043  -0.428  33.456  14.308  0.1000  0.2624 -0.1466
 1112DOPS   C1B13044   0.681  33.732  13.365 -0.0257  0.1025 -0.3438
 1112DOPS   D2B13045   0.569  33.487  13.724  0.0270 -0.1179  0.4501
 1112DOPS   C3B13046   0.947  33.194  13.823 -0.2554 -0.3842 -0.0977
 1112DOPS   C4B13047   1.369  33.061  14.002 -0.1031  0.1670 -0.2059
 1113DOPE   NH313048   4.549  31.055  12.526  0.2950 -0.1922  0.1392
 1113DOPE   PO413049   4.338  31.014  12.304 -0.0683  0.0398 -0.0287
 1113DOPE   GL113050   4.001  31.430  12.514 -0.0858 -0.3306  0.1987
 1113DOPE   GL213051   4.023  31.160  12.704 -0.2039 -0.3217  0.2545
 1113DOPE   C1A13052   4.033  31.896  12.541  0.1108  0.0974  0.3106
 1113DOPE   D2A13053   4.360  32.308  12.490 -0.0013  0.1389 -0.0117
 1113DOPE   C3A13054   4.133  32.586  12.182  0.2459  0.1600 -0.1577
 1113DOPE   C4A13055   4.028  33.078  12.248  0.0411  0.1789  0.2990
 1113DOPE   C1B13056   4.326  31.242  13.023  0.0301  0.0815 -0.1406
 1113DOPE   D2B13057   4.737  31.508  12.894  0.2319 -0.0436 -0.2552
 1113DOPE   C3B13058   4.833  31.852  13.177 -0.1055 -0.3091 -0.3579
 1113DOPE   C4B13059   4.866  32.058  13.618  0.3066  0.0752 -0.1885
 1114DOPE   NH313060  10.891  26.205  11.688 -0.1511  0.2437  0.0379
 1114DOPE   PO413061  11.002  26.147  11.965 -0.2743 -0.1004  0.3272
 1114DOPE   GL113062  10.947  26.144  12.378  0.0874  0.4164 -0.3303
 1114DOPE   GL213063  11.035  25.844  12.397 -0.1337  0.1050  0.0325
 1114DOPE   C1A13064  11.173  26.238  12.799 -0.0857  0.0567 -0.1253
 1114DOPE   D2A13065  11.246  26.387  13.236 -0.1977  0.4072 -0.1336
 1114DOPE   C3A13066  11.445  26.566  13.573  0.0873  0.3698  0.3341
 1114DOPE   C4A13067  11.637  26.891  13.866 -0.1098  0.1374 -0.0704
 1114DOPE   C1B13068  10.891  25.745  12.796  0.1463  0.1707  0.0031
 1114DOPE   D2B13069  10.940  25.766  13.247  0.1470 -0.1155 -0.0710
 1114DOPE   C3B13070  11.371  25.831  13.328 -0.3919  0.2511 -0.2826
 1114DOPE   C4B13071  11.791  26.094  13.406  0.0711  0.1294 -0.2298
 1115DOPE   NH313072   5.661  27.119  12.225  0.1964 -0.0591  0.3170
 1115DOPE   PO413073   5.956  27.022  12.176  0.0497  0.2134 -0.0472
 1115DOPE   GL113074   6.299  26.966  12.470  0.2962 -0.1817 -0.3239
 1115DOPE   GL213075   6.604  27.102  12.513 -0.1589  0.1404  0.1493
 1115DOPE   C1A13076   6.380  26.962  12.968 -0.1496  0.1715 -0.1775
 1115DOPE   D2A13077   6.733  26.997  13.269  0.3473  0.0750  0.1014
 1115DOPE   C3A13078   6.715  27.249  13.715 -0.2485  0.3463 -0.3105
 1115DOPE   C4A13079   6.820  27.606  14.015 -0.0750 -0.0691 -0.1835
 1115DOPE   C1B13080   6.942  27.007  12.778 -0.3093 -0.1354 -0.1913
 1115DOPE   D2B13081   7.302  27.155  13.057  0.0426 -0.0358 -0.0406
 1115DOPE   C3B13082   7.195  27.275  13.457 -0.0449 -0.0036 -0.0857
 1115DOPE   C4B13083   7.225  27.137  13.870 -0.1047 -0.0233  0.0972
 1116DOPC   NC313084   5.067  23.556  12.321 -0.1369 -0.0058  0.1743
 1116DOPC   PO413085   5.375  23.833  12.253 -0.0164  0.3042 -0.0212
 1116DOPC   GL113086   5.316  23.869  12.669 -0.2140  0.2270  0.2446
 1116DOPC   GL213087   5.016  23.835  12.758  0.1288  0.1784  0.0213
 1116DOPC   C1A13088   5.231  24.087  13.094 -0.1607 -0.1237 -0.2688
 1116DOPC   D2A13089   5.315  24.453  13.328  0.1860  0.2705  0.2883
 1116DOPC   C3A13090   5.763  24.339  13.540 -0.2345  0.2753 -0.3725
 1116DOPC   C4A13091   6.046  24.045  13.760 -0.0024 -0.3067 -0.2340
 1116DOPC   C1B13092   4.797  24.267  12.898 -0.0603 -0.1080 -0.0816
 1116DOPC   D2B13093   4.907  24.671  13.117 -0.3393  0.0775 -0.0638
 1116DOPC   C3B13094   4.705  24.945  13.396  0.0427  0.1927  0.0282
 1116DOPC   C4B13095   4.268  25.055  13.487  0.2348 -0.0833 -0.0574
 1117DOPS   CNO13096  10.450  30.201  11.529  0.0193 -0.3627  0.1665
 1117DOPS   PO413097  10.278  29.846  11.587  0.3145  0.0300  0.1129
 1117DOPS   GL113098  10.258  30.082  12.033 -0.0829 -0.1257  0.0166
 1117DOPS   GL213099  10.375  30.376  12.111 -0.0011 -0.0950 -0.1742
 1117DOPS   C1A13100  10.037  30.003  12.381  0.0273  0.3605  0.0339
 1117DOPS   D2A13101   9.914  30.189  12.770 -0.0823 -0.0433  0.2498
 1117DOPS   C3A13102  10.123  30.405  13.114 -0.0529 -0.0653  0.1229
 1117DOPS   C4A13103   9.903  30.607  13.499 -0.0841  0.3252  0.3656
 1117DOPS   C1B13104  10.438  30.792  12.151 -0.1112 -0.0000  0.0004
 1117DOPS   D2B13105  10.373  31.095  12.508 -0.1481 -0.2373  0.3800
 1117DOPS   C3B13106  10.704  30.878  12.776  0.1987 -0.2047 -0.1185
 1117DOPS   C4B13107  11.011  30.697  13.110 -0.2093 -0.0666 -0.1196
 1118DOPS   CNO13108   7.533  34.186  11.273 -0.0339 -0.3556  0.2286
 1118DOPS   PO413109   7.708  34.315  11.571 -0.1843  0.2043  0.0323
 1118DOPS   GL113110   7.628  33.918  11.800  0.0585  0.1236  0.0752
 1118DOPS   GL213111   7.439  33.800  11.677  0.4048 -0.0069  0.0721
 1118DOPS   C1A13112   7.518  33.591  12.111 -0.1181 -0.3532 -0.1252
 1118DOPS   D2A13113   7.737  33.366  12.427  0.0088 -0.2076  0.2438
 1118DOPS   C3A13114   8.171  33.338  12.338  0.1664 -0.0107  0.2883
 1118DOPS   C4A13115   8.574  33.533  12.345  0.2442  0.1018  0.1493
 1118DOPS   C1B13116   7.108  33.738  11.940 -0.1505 -0.0602  0.0736
 1118DOPS   D2B13117   6.988  33.313  12.054 -0.0998 -0.0896  0.1158
 1118DOPS   C3B13118   6.793  33.411  12.427  0.2758 -0.1568  0.1617
 1118DOPS   C4B13119   6.812  33.561  12.852  0.0513  0.0559 -0.3931
 1119DOPC   NC313120   5.860  32.589  12.184 -0.1316 -0.1686  0.0636
 1119DOPC   PO413121   5.743  32.934  12.228 -0.0543 -0.1754  0.2821
 1119DOPC   GL113122   6.108  32.907  12.510  0.1543  0.1583  0.1217
 1119DOPC   GL213123   6.080  32.659  12.608  0.0417  0.3297 -0.1486
 1119DOPC   C1A13124   6.546  32.896  12.397  0.0227 -0.1315  0.2359
 1119DOPC   D2A13125   6.974  32.882  12.537  0.1300 -0.0436 -0.1460
 1119DOPC   C3A13126   6.968  33.062  12.927 -0.0223  0.0189 -0.5014
 1119DOPC   C4A13127   7.246  33.251  13.299  0.3883  0.1251 -0.1208
 1119DOPC   C1B13128   6.062  32.569  13.057 -0.2056  0.1723 -0.0299
 1119DOPC   D2B13129   6.191  32.372  13.427  0.1530  0.2026  0.1918
 1119DOPC   C3B13130   6.662  32.348  13.399  0.0784 -0.0458  0.1882
 1119DOPC   C4B13131   7.084  32.484  13.255 -0.0610 -0.2722 -0.1087
 1120DOPS   CNO13132   2.183  27.694  12.299  0.2014 -0.0551 -0.0928
 1120DOPS   PO413133   2.252  27.662  12.641 -0.0213  0.2053 -0.1630
 1120DOPS   GL113134   2.632  27.452  12.850 -0.0469  0.1655 -0.0428
 1120DOPS   GL213135   2.852  27.648  12.821 -0.0172 -0.3167  0.0934
 1120DOPS   C1A13136   2.685  27.351  13.257 -0.2068 -0.1359  0.0576
 1120DOPS   D2A13137   2.695  27.224  13.683  0.0391  0.2171  0.0327
 1120DOPS   C3A13138   2.397  27.433  14.029  0.0318  0.0057 -0.0824
 1120DOPS   C4A13139   2.278  27.865  14.026  0.1056 -0.0143 -0.2669
 1120DOPS   C1B13140   3.183  27.532  12.518 -0.4443 -0.1006  0.1337
 1120DOPS   D2B13141   3.583  27.667  12.285 -0.1931  0.0217  0.0042
 1120DOPS   C3B13142   3.938  27.383  12.320 -0.0831  0.0079 -0.2733
 1120DOPS   C4B13143   3.991  26.879  12.370 -0.1913 -0.0980 -0.2008
 1121DOPS   CNO13144   4.329  29.484  12.099  0.0490  0.0492 -0.1322
 1121DOPS   PO413145   4.292  29.261  12.439 -0.0075  0.0964 -0.0378
 1121DOPS   GL113146   4.204  29.109  12.846 -0.2669 -0.0182 -0.1933
 1121DOPS   GL213147   3.925  29.312  12.862 -0.1512 -0.0184 -0.0963
 1121DOPS   C1A13148   4.403  29.243  13.241 -0.1346  0.1060 -0.1181
 1121DOPS   D2A13149   4.844  29.374  13.231 -0.3550 -0.1577 -0.1419
 1121DOPS   C3A13150   5.093  29.445  13.608  0.0380  0.2386 -0.4062
 1121DOPS   C4A13151   5.217  29.413  14.060  0.1350  0.2159  0.0396
 1121DOPS   C1B13152   3.820  29.323  13.289  0.0911 -0.2651 -0.2749
 1121DOPS   D2B13153   3.755  29.486  13.694  0.2228 -0.1223 -0.1721
 1121DOPS   C3B13154   3.396  29.739  13.730 -0.1085  0.0839 -0.0396
 1121DOPS   C4B13155   3.139  29.644  14.140 -0.0638 -0.2755  0.0929
 1122DOPC   NC313156   1.605  31.081  12.967  0.1466 -0.2664  0.1964
 1122DOPC   PO413157   1.548  31.284  12.632  0.3967 -0.2266  0.1038
 1122DOPC   GL113158   1.747  31.553  12.983 -0.2701  0.2378 -0.0126
 1122DOPC   GL213159   1.526  31.757  13.070 -0.2370 -0.1377 -0.3159
 1122DOPC   C1A13160   1.987  31.386  13.365 -0.2341  0.1745  0.2294
 1122DOPC   D2A13161   1.730  31.045  13.613  0.1052 -0.1227 -0.1359
 1122DOPC   C3A13162   1.734  30.993  14.069  0.0211  0.1941  0.2545
 1122DOPC   C4A13163   1.415  30.797  14.273 -0.0386 -0.1043 -0.2833
 1122DOPC   C1B13164   1.798  31.978  13.279  0.0898  0.0093 -0.0118
 1122DOPC   D2B13165   1.931  32.395  13.507  0.0946 -0.1369  0.1957
 1122DOPC   C3B13166   2.391  32.409  13.382  0.2394  0.1827  0.0726
 1122DOPC   C4B13167   2.643  32.197  13.699  0.0617  0.0308  0.0754
 1123DOPE   NH313168  10.596  23.695  12.756  0.3210 -0.1614 -0.1876
 1123DOPE   PO413169  10.371  23.717  12.543  0.0860 -0.5551  0.0343
 1123DOPE   GL113170  10.047  23.874  12.642  0.2729 -0.0971 -0.3539
 1123DOPE   GL213171  10.022  24.198  12.484 -0.1320 -0.0021  0.1729
 1123DOPE   C1A13172   9.719  23.671  12.905  0.1898 -0.0228 -0.4155
 1123DOPE   D2A13173   9.647  23.251  13.093  0.0769  0.3361 -0.1715
 1123DOPE   C3A13174   9.908  23.215  13.483  0.0337  0.2499  0.3296
 1123DOPE   C4A13175  10.058  22.919  13.757 -0.0881 -0.0145 -0.2744
 1123DOPE   C1B13176   9.608  24.112  12.628 -0.2632 -0.0509  0.2364
 1123DOPE   D2B13177   9.271  23.899  12.818 -0.0556 -0.1689  0.0076
 1123DOPE   C3B13178   9.325  23.817  13.313  0.3036  0.0079  0.0467
 1123DOPE   C4B13179   9.532  23.588  13.610  0.1892  0.1050  0.0855
 1124DOPE   NH313180  34.199   0.210  12.690 -0.1553  0.4462  0.0347
 1124DOPE   PO413181  34.325  -0.113  12.679 -0.2150  0.0283  0.1527
 1124DOPE   GL113182  34.545  -0.137  12.990 -0.4456 -0.3513  0.3263
 1124DOPE   GL213183  34.775  -0.295  12.963 -0.1177  0.1266 -0.0701
 1124DOPE   C1A13184  34.689   0.031  13.404 -0.1872 -0.2099  0.0758
 1124DOPE   D2A13185  34.966   0.013  13.765 -0.2694  0.0832 -0.0077
 1124DOPE   C3A13186  35.418  -0.099  13.757 -0.3571  0.1521 -0.0744
 1124DOPE   C4A13187  35.797  -0.200  13.989  0.4001  0.3241  0.2819
 1124DOPE   C1B13188  35.127  -0.212  13.250 -0.1410 -0.0119  0.5660
 1124DOPE   D2B13189  35.501  -0.469  13.338 -0.3818  0.2637 -0.2177
 1124DOPE   C3B13190  35.556  -0.657  13.755  0.1088 -0.0752 -0.0361
 1124DOPE   C4B13191  35.295  -0.803  14.134  0.0438 -0.0969 -0.1700
 1125POSM   NC313192   5.962  25.948  12.525  0.0083 -0.0773  0.0648
 1125POSM   PO413193   5.770  25.657  12.702  0.2859  0.1093 -0.0597
 1125POSM   AM113194   5.823  25.814  13.010 -0.2272 -0.1821  0.1461
 1125POSM   AM213195   6.112  25.938  13.092  0.0758  0.3207 -0.0696
 1125POSM   T1A13196   5.775  25.790  13.524  0.2092 -0.2505  0.2077
 1125POSM   C2A13197   5.648  26.012  13.872  0.0323 -0.4424 -0.2870
 1125POSM   C3A13198   5.845  26.290  14.244 -0.1559 -0.1883  0.1925
 1125POSM   C1B13199   6.225  25.793  13.361 -0.0804  0.0640 -0.2071
 1125POSM   D2B13200   6.217  25.595  13.766 -0.0530 -0.2529 -0.1381
 1125POSM   C3B13201   5.762  25.472  13.887 -0.3781 -0.3027  0.0186
 1125POSM   C4B13202   5.392  25.185  13.989 -0.1254 -0.0362  0.1002
 1126DOPS   CNO13203   9.883   0.244  11.006 -0.0083  0.2142  0.0389
 1126DOPS   PO413204  10.079   0.220  11.279  0.0940  0.2392  0.0559
 1126DOPS   GL113205   9.843  -0.216  11.347 -0.4620  0.2988  0.1936
 1126DOPS   GL213206  10.103  -0.384  11.497  0.3814  0.0596  0.2084
 1126DOPS   C1A13207   9.494  -0.464  11.250 -0.0502  0.0482 -0.0459
 1126DOPS   D2A13208   9.189  -0.838  11.319 -0.2022 -0.0309  0.1090
 1126DOPS   C3A13209   9.200  -1.088  11.717  0.2505 -0.0222 -0.0861
 1126DOPS   C4A13210   9.091  -1.135  12.194 -0.3455  0.0684  0.1149
 1126DOPS   C1B13211   9.796  -0.635  11.753 -0.2078  0.1834 -0.0225
 1126DOPS   D2B13212   9.547  -0.879  12.088 -0.0775  0.1701 -0.0550
 1126DOPS   C3B13213   9.569  -1.169  12.431  0.2108 -0.0017 -0.0965
 1126DOPS   C4B13214   9.223  -1.307  12.701  0.0205  0.1763  0.1248
 1127DOPC   NC313215   8.316  25.613  12.667 -0.1259  0.2421  0.2066
 1127DOPC   PO413216   8.205  25.350  12.422  0.1704  0.0320  0.1341
 1127DOPC   GL113217   8.015  25.236  12.819 -0.0268 -0.2326 -0.0183
 1127DOPC   GL213218   7.771  25.451  12.778 -0.2557  0.1738  0.0771
 1127DOPC   C1A13219   7.920  25.456  13.245 -0.0241 -0.1726  0.1936
 1127DOPC   D2A13220   7.566  25.375  13.557 -0.1873 -0.1298 -0.0435
 1127DOPC   C3A13221   7.293  25.113  13.820  0.0030  0.1850  0.1060
 1127DOPC   C4A13222   7.038  24.735  13.994  0.3493 -0.2136  0.1731
 1127DOPC   C1B13223   7.371  25.154  12.766  0.0777 -0.1894  0.0526
 1127DOPC   D2B13224   6.986  24.896  12.862  0.1774  0.0414 -0.0567
 1127DOPC   C3B13225   6.512  24.832  12.949 -0.0186 -0.1745 -0.2709
 1127DOPC   C4B13226   6.167  25.183  12.950 -0.2810 -0.0064  0.0578
 1128DOPE   NH313227   0.151  27.149  12.355 -0.0602  0.2944  0.3732
 1128DOPE   PO413228   0.389  27.041  12.550 -0.4496 -0.4909  0.1136
 1128DOPE   GL113229   0.145  27.033  12.883  0.0400 -0.0710  0.0562
 1128DOPE   GL213230   0.367  27.121  13.048  0.0399 -0.1029  0.1346
 1128DOPE   C1A13231   0.096  26.714  13.230 -0.3043 -0.0726 -0.2303
 1128DOPE   D2A13232   0.038  26.274  13.273  0.1922 -0.1148 -0.1326
 1128DOPE   C3A13233   0.306  25.927  13.402  0.2204 -0.0048 -0.0865
 1128DOPE   C4A13234   0.654  25.590  13.326 -0.1087 -0.0628  0.0335
 1128DOPE   C1B13235   0.105  27.183  13.384  0.0169  0.1392 -0.0176
 1128DOPE   D2B13236   0.064  26.970  13.747 -0.0886  0.1136 -0.1438
 1128DOPE   C3B13237   0.321  26.551  13.597  0.1672  0.1868  0.3122
 1128DOPE   C4B13238   0.577  26.225  13.783  0.2171 -0.1727 -0.0413
 1129DOPS   CNO13239   5.596  26.202  12.064 -0.2675 -0.0196 -0.2458
 1129DOPS   PO413240   5.659  25.839  12.137 -0.1473 -0.4990  0.0598
 1129DOPS   GL113241   5.878  25.489  12.251 -0.2025  0.0781  0.2365
 1129DOPS   GL213242   6.155  25.551  12.210  0.0823  0.2273 -0.1014
 1129DOPS   C1A13243   5.971  25.029  12.350 -0.1925 -0.1788 -0.1300
 1129DOPS   D2A13244   5.848  24.677  12.674  0.4149 -0.0830  0.2197
 1129DOPS   C3A13245   5.804  24.853  13.106 -0.0565 -0.2453  0.2536
 1129DOPS   C4A13246   5.768  24.901  13.574 -0.1162 -0.1530 -0.1383
 1129DOPS   C1B13247   6.473  25.268  12.264 -0.0916 -0.0642  0.1896
 1129DOPS   D2B13248   6.946  25.333  12.384 -0.1822 -0.0153  0.2794
 1129DOPS   C3B13249   7.248  25.617  12.621 -0.0471  0.0724 -0.1115
 1129DOPS   C4B13250   7.439  25.762  13.055  0.3622  0.3669  0.1864
 1130DOPS   CNO13251   9.149  31.359  11.163 -0.1435 -0.2554 -0.1979
 1130DOPS   PO413252   9.463  31.372  10.941  0.2458 -0.0315 -0.0505
 1130DOPS   GL113253   9.429  31.763  11.182 -0.2179  0.2106  0.3101
 1130DOPS   GL213254   9.143  31.798  11.232 -0.4184 -0.0114  0.1351
 1130DOPS   C1A13255   9.669  31.856  11.587  0.2317 -0.1232 -0.0848
 1130DOPS   D2A13256   9.478  32.115  11.901  0.0835  0.1628  0.0296
 1130DOPS   C3A13257   9.843  32.339  11.915 -0.1039 -0.0070 -0.1171
 1130DOPS   C4A13258   9.809  32.760  11.817 -0.3163  0.3184 -0.0782
 1130DOPS   C1B13259   9.271  32.202  11.319 -0.0623  0.1284  0.0485
 1130DOPS   D2B13260   9.434  32.516  11.647  0.4151 -0.2196 -0.1702
 1130DOPS   C3B13261   9.124  32.808  11.875 -0.1670  0.0930  0.3511
 1130DOPS   C4B13262   8.773  32.784  12.163  0.0357  0.0470 -0.2222
 1131DOPE   NH313263  34.280  33.688  12.539 -0.3363  0.0633  0.0527
 1131DOPE   PO413264  34.239  33.734  12.841  0.2198  0.2293 -0.1914
 1131DOPE   GL113265  34.339  33.676  13.157  0.1649 -0.1390  0.2331
 1131DOPE   GL213266  34.539  33.450  13.105 -0.2636  0.0260 -0.2644
 1131DOPE   C1A13267  34.643  33.758  13.503  0.1863 -0.4831  0.1968
 1131DOPE   D2A13268  34.893  33.804  13.848  0.0853  0.0651 -0.0611
 1131DOPE   C3A13269  34.798  33.927  14.306 -0.0964 -0.2628  0.1434
 1131DOPE   C4A13270  34.698  34.149  14.660 -0.0738 -0.4336  0.0935
 1131DOPE   C1B13271  34.369  33.391  13.516  0.2588 -0.1495 -0.0526
 1131DOPE   D2B13272  34.326  33.037  13.809  0.0691  0.3281 -0.0573
 1131DOPE   C3B13273  34.695  32.987  14.019  0.0722  0.2050  0.2960
 1131DOPE   C4B13274  35.197  33.035  13.868 -0.1716 -0.0664  0.0085
 1132DOPE   NH313275   4.497  29.009  12.034  0.4067 -0.0023 -0.1992
 1132DOPE   PO413276   4.739  29.119  12.254 -0.1794 -0.1067 -0.2154
 1132DOPE   GL113277   4.528  28.932  12.547 -0.3402  0.4990 -0.3478
 1132DOPE   GL213278   4.608  28.663  12.525 -0.3206 -0.0263 -0.0205
 1132DOPE   C1A13279   4.708  28.806  12.979 -0.0375 -0.1959 -0.1800
 1132DOPE   D2A13280   5.163  28.774  13.139  0.0136 -0.0890  0.1972
 1132DOPE   C3A13281   5.235  28.970  13.549 -0.0719  0.1048  0.0709
 1132DOPE   C4A13282   5.530  29.066  13.862  0.0464 -0.0071 -0.2723
 1132DOPE   C1B13283   4.526  28.371  12.931 -0.0522 -0.0380  0.0997
 1132DOPE   D2B13284   4.542  28.149  13.333 -0.0239  0.0660  0.0944
 1132DOPE   C3B13285   4.438  27.705  13.475  0.0659 -0.1913 -0.0816
 1132DOPE   C4B13286   4.490  27.390  13.847  0.1667 -0.1296  0.1063
 1133POSM   NC313287  10.488  23.861  12.076 -0.1562 -0.1089 -0.0844
 1133POSM   PO413288  10.456  24.200  12.305  0.1879 -0.0333  0.0399
 1133POSM   AM113289  10.500  24.201  12.616 -0.0187 -0.4192  0.3612
 1133POSM   AM213290  10.324  24.169  12.853  0.0445  0.3653 -0.4002
 1133POSM   T1A13291  10.781  24.103  13.033  0.4295  0.1012  0.0117
 1133POSM   C2A13292  10.959  24.142  13.475 -0.1072 -0.0919 -0.1424
 1133POSM   C3A13293  11.241  24.236  13.776 -0.1735 -0.1724 -0.0132
 1133POSM   C1B13294  10.063  24.057  13.084  0.0110 -0.0455  0.2740
 1133POSM   D2B13295   9.946  23.734  13.367  0.2047 -0.3207  0.2545
 1133POSM   C3B13296   9.971  23.742  13.823 -0.0886 -0.3690 -0.0696
 1133POSM   C4B13297  10.336  23.910  13.940 -0.2526 -0.2287 -0.1722
 1134DOPC   NC313298   8.177  27.270  12.362  0.0120 -0.0054  0.2883
 1134DOPC   PO413299   8.020  26.906  12.268 -0.1019  0.0963 -0.0319
 1134DOPC   GL113300   8.069  26.917  12.660  0.1907  0.3275 -0.2016
 1134DOPC   GL213301   7.844  26.939  12.751 -0.0680  0.0343  0.1471
 1134DOPC   C1A13302   8.182  27.301  12.911  0.0738 -0.0718  0.0163
 1134DOPC   D2A13303   8.293  27.645  13.235  0.1435 -0.0693  0.0180
 1134DOPC   C3A13304   8.015  27.979  13.427  0.0267 -0.0398  0.1272
 1134DOPC   C4A13305   7.506  27.986  13.454 -0.1402  0.0616 -0.0722
 1134DOPC   C1B13306   7.811  26.990  13.212 -0.0710 -0.1686 -0.2115
 1134DOPC   D2B13307   8.134  27.220  13.503  0.1722 -0.0191  0.0445
 1134DOPC   C3B13308   7.965  27.600  13.750  0.0765  0.1047  0.0917
 1134DOPC   C4B13309   7.694  27.970  13.919  0.1335  0.2083  0.0147
 1135DOPC   NC313310   3.635  28.740  12.079 -0.0509 -0.1647  0.1521
 1135DOPC   PO413311   3.817  29.123  12.070 -0.0336  0.2004  0.4661
 1135DOPC   GL113312   3.893  28.964  12.445  0.2171  0.1913  0.3489
 1135DOPC   GL213313   4.127  28.772  12.347  0.0981  0.3284 -0.0304
 1135DOPC   C1A13314   3.755  28.518  12.565  0.1414 -0.0111  0.0726
 1135DOPC   D2A13315   3.414  28.408  12.908  0.3028 -0.2340 -0.0514
 1135DOPC   C3A13316   3.469  28.307  13.365  0.0857 -0.1394 -0.1612
 1135DOPC   C4A13317   3.550  27.987  13.613  0.0903 -0.1268  0.1477
 1135DOPC   C1B13318   4.201  28.670  12.763 -0.2514 -0.0159  0.2671
 1135DOPC   D2B13319   4.170  28.812  13.238  0.0070 -0.0766 -0.1925
 1135DOPC   C3B13320   4.151  29.095  13.647  0.1301  0.0925  0.1859
 1135DOPC   C4B13321   3.947  29.232  14.064 -0.2858 -0.0067 -0.2251
 1136DOPE   NH313322   8.231   0.190  11.394  0.2100  0.0356 -0.3439
 1136DOPE   PO413323   8.236  -0.052  11.225  0.0783  0.0180 -0.0056
 1136DOPE   GL113324   8.090  -0.110  11.661  0.0884  0.1778 -0.1755
 1136DOPE   GL213325   8.182  -0.345  11.742  0.0692  0.1373  0.0151
 1136DOPE   C1A13326   8.372   0.031  11.990  0.2208 -0.0143  0.1008
 1136DOPE   D2A13327   8.478   0.095  12.475 -0.1087  0.0789 -0.0466
 1136DOPE   C3A13328   8.657   0.534  12.562  0.0893 -0.0857 -0.1404
 1136DOPE   C4A13329   9.029   0.725  12.828  0.1877  0.1620 -0.1831
 1136DOPE   C1B13330   8.548  -0.488  11.980  0.1495 -0.1712 -0.0790
 1136DOPE   D2B13331   9.006  -0.632  12.028 -0.1888 -0.2425  0.0861
 1136DOPE   C3B13332   9.269  -0.429  11.755  0.2775  0.1433  0.0004
 1136DOPE   C4B13333   9.450  -0.058  11.488 -0.4146 -0.1478  0.1178
 1137POSM   NC313334  11.067   0.257  11.498 -0.1848 -0.0335  0.0094
 1137POSM   PO413335  10.981  -0.108  11.465 -0.4587 -0.0223  0.1714
 1137POSM   AM113336  10.985  -0.130  11.803 -0.1637 -0.0534 -0.2679
 1137POSM   AM213337  11.138   0.063  12.000 -0.1346  0.0924 -0.2698
 1137POSM   T1A13338  10.665  -0.266  12.195  0.2566  0.1167  0.1053
 1137POSM   C2A13339  10.524  -0.652  12.418  0.2906 -0.3005  0.0625
 1137POSM   C3A13340  10.491  -1.121  12.537 -0.2707  0.0432 -0.2887
 1137POSM   C1B13341  11.066   0.049  12.353 -0.0244 -0.3041  0.1050
 1137POSM   D2B13342  11.045   0.018  12.793 -0.0733 -0.2230 -0.2636
 1137POSM   C3B13343  11.324   0.153  13.140  0.1350  0.3285  0.1507
 1137POSM   C4B13344  11.525   0.314  13.535 -0.2052 -0.3190 -0.0939
 1138DOPE   NH313345   6.256  27.831  12.451 -0.0714 -0.2019 -0.3122
 1138DOPE   PO413346   6.157  27.813  12.184 -0.1431 -0.0107 -0.2772
 1138DOPE   GL113347   6.070  28.213  12.144  0.2645  0.1828 -0.1051
 1138DOPE   GL213348   6.321  28.263  12.016  0.2658 -0.1788 -0.0682
 1138DOPE   C1A13349   6.125  28.634  12.302 -0.0353  0.0102  0.4293
 1138DOPE   D2A13350   6.080  28.992  12.516  0.0188 -0.3101 -0.1212
 1138DOPE   C3A13351   6.211  29.367  12.791 -0.0021  0.0499  0.1450
 1138DOPE   C4A13352   6.302  29.455  13.300 -0.3613  0.2605  0.5009
 1138DOPE   C1B13353   6.729  28.455  12.031 -0.1467 -0.0074 -0.2885
 1138DOPE   D2B13354   6.830  28.813  12.303 -0.2949 -0.1731  0.1078
 1138DOPE   C3B13355   6.613  28.850  12.672  0.0081  0.1689 -0.1158
 1138DOPE   C4B13356   6.424  28.998  13.082 -0.2014 -0.0983  0.0770
 1139DOPC   NC313357   7.840  27.182  11.903 -0.1794 -0.3250  0.4128
 1139DOPC   PO413358   8.094  27.462  11.785  0.0355 -0.2326  0.2297
 1139DOPC   GL113359   7.909  27.734  11.997 -0.0707  0.0481  0.0887
 1139DOPC   GL213360   8.017  27.732  12.271 -0.1674  0.0169 -0.1734
 1139DOPC   C1A13361   7.929  28.195  11.963  0.5348  0.0845 -0.6406
 1139DOPC   D2A13362   8.271  28.471  11.867 -0.1739 -0.0130 -0.1368
 1139DOPC   C3A13363   8.443  28.864  11.899  0.0028 -0.1985  0.3416
 1139DOPC   C4A13364   8.821  28.961  12.117 -0.0215 -0.1442  0.1987
 1139DOPC   C1B13365   7.813  28.020  12.520 -0.3372 -0.0235  0.0518
 1139DOPC   D2B13366   7.713  28.487  12.614 -0.3146  0.2019 -0.0425
 1139DOPC   C3B13367   7.764  28.922  12.789  0.3524 -0.2731  0.1598
 1139DOPC   C4B13368   8.033  29.165  13.165 -0.0796  0.3579  0.3081
 1140DOPS   CNO13369   1.951  23.403  12.317 -0.0934 -0.3969 -0.1567
 1140DOPS   PO413370   1.949  23.650  12.595  0.0817 -0.0748  0.0002
 1140DOPS   GL113371   1.602  23.911  12.650 -0.1660 -0.1680  0.1906
 1140DOPS   GL213372   1.484  23.793  12.854  0.0897  0.0457 -0.1740
 1140DOPS   C1A13373   1.343  24.289  12.606 -0.1113  0.0249 -0.0595
 1140DOPS   D2A13374   1.151  24.600  12.872  0.1429 -0.0446 -0.0043
 1140DOPS   C3A13375   0.795  24.511  13.179  0.0078 -0.1701  0.0800
 1140DOPS   C4A13376   0.637  24.759  13.557 -0.2741 -0.2131  0.1224
 1140DOPS   C1B13377   1.395  24.197  13.107  0.2270 -0.3935 -0.2276
 1140DOPS   D2B13378   1.703  24.607  13.170 -0.1624 -0.0367  0.1756
 1140DOPS   C3B13379   2.051  24.513  13.516 -0.0108 -0.0304 -0.1173
 1140DOPS   C4B13380   2.064  24.405  14.004  0.0404 -0.1234 -0.0037
 1141DOPE   NH313381   3.741  31.135  12.251  0.2789  0.1462 -0.1139
 1141DOPE   PO413382   3.502  31.340  12.328  0.0850 -0.0246 -0.3184
 1141DOPE   GL113383   3.668  31.693  12.320 -0.1028 -0.1705  0.1520
 1141DOPE   GL213384   3.737  31.836  12.120  0.1115  0.0613 -0.0956
 1141DOPE   C1A13385   3.559  31.992  12.703  0.3125 -0.1467 -0.3461
 1141DOPE   D2A13386   3.378  32.005  13.132 -0.2571 -0.0228 -0.2477
 1141DOPE   C3A13387   3.494  32.040  13.568 -0.2876  0.0819  0.1167
 1141DOPE   C4A13388   3.465  32.031  14.009  0.0048  0.0553  0.0434
 1141DOPE   C1B13389   3.754  32.317  12.345  0.1039  0.2790 -0.0347
 1141DOPE   D2B13390   3.665  32.674  12.662  0.3176  0.0351  0.0054
 1141DOPE   C3B13391   4.048  32.800  12.767  0.0307  0.0056  0.0469
 1141DOPE   C4B13392   4.473  32.906  12.556  0.0037 -0.0430  0.4103
 1142DOPE   NH313393   2.665  27.811  12.399  0.0131 -0.1018  0.1269
 1142DOPE   PO413394   2.606  28.035  12.223  0.0528 -0.3999  0.3231
 1142DOPE   GL113395   2.841  28.163  12.541 -0.0888 -0.2653 -0.2323
 1142DOPE   GL213396   2.946  28.282  12.820 -0.1026  0.1032 -0.1252
 1142DOPE   C1A13397   3.316  28.187  12.491  0.1769 -0.1500  0.3880
 1142DOPE   D2A13398   3.657  27.937  12.687 -0.1856 -0.2899  0.2585
 1142DOPE   C3A13399   3.755  27.822  13.098  0.2118 -0.1018 -0.1648
 1142DOPE   C4A13400   3.724  27.565  13.481 -0.1499  0.0092 -0.0365
 1142DOPE   C1B13401   3.206  27.955  12.922 -0.0968 -0.0092  0.1806
 1142DOPE   D2B13402   3.343  27.542  13.017  0.2841  0.2763  0.0495
 1142DOPE   C3B13403   3.055  27.207  12.954  0.0099  0.0237 -0.0240
 1142DOPE   C4B13404   2.989  26.938  13.312 -0.0214 -0.0022  0.0518
 1143DOPS   CNO13405  11.586   0.195  11.266 -0.2692 -0.3033 -0.1728
 1143DOPS   PO413406  11.477  -0.031  11.553  0.0543 -0.1078 -0.0299
 1143DOPS   GL113407  11.554  -0.005  12.008  0.0343 -0.1181  0.1051
 1143DOPS   GL213408  11.575  -0.223  12.267  0.2206  0.4094 -0.1022
 1143DOPS   C1A13409  11.771   0.235  12.367  0.2892  0.3955 -0.1581
 1143DOPS   D2A13410  11.765   0.218  12.869 -0.0883 -0.1811  0.2344
 1143DOPS   C3A13411  11.779  -0.117  13.140 -0.1147  0.3562 -0.0083
 1143DOPS   C4A13412  11.573  -0.222  13.461  0.2749  0.0108  0.1889
 1143DOPS   C1B13413  11.470  -0.091  12.693 -0.0035  0.1858 -0.1473
 1143DOPS   D2B13414  11.186  -0.378  13.041  0.0753 -0.3663  0.0126
 1143DOPS   C3B13415  11.071  -0.158  13.428  0.0456 -0.1319  0.1899
 1143DOPS   C4B13416  10.917   0.130  13.789 -0.0967 -0.3699 -0.2714
 1144DOPE   NH313417  11.263  26.718  11.943 -0.0269 -0.1436  0.1971
 1144DOPE   PO413418  11.120  26.976  12.002  0.0155  0.1246 -0.0557
 1144DOPE   GL113419  11.119  26.996  12.344 -0.2741  0.4117  0.1346
 1144DOPE   GL213420  11.056  26.812  12.519  0.1659  0.5657  0.1975
 1144DOPE   C1A13421  11.239  27.280  12.689  0.1196  0.1197 -0.1213
 1144DOPE   D2A13422  11.300  27.236  13.124 -0.0714 -0.0373  0.0612
 1144DOPE   C3A13423  11.043  26.889  13.375  0.2047 -0.0330  0.2065
 1144DOPE   C4A13424  10.863  26.482  13.508 -0.1823  0.1033 -0.2306
 1144DOPE   C1B13425  11.306  26.790  12.909 -0.1418 -0.1901 -0.0038
 1144DOPE   D2B13426  11.684  26.549  13.025 -0.0626  0.2713 -0.0962
 1144DOPE   C3B13427  11.725  26.155  12.844  0.0885 -0.1995 -0.3396
 1144DOPE   C4B13428  11.825  25.706  12.935  0.0012 -0.1473 -0.1577
 1145DOPS   CNO13429   4.934  23.021  12.783 -0.2181 -0.0961 -0.1680
 1145DOPS   PO413430   4.849  23.133  12.420 -0.2226  0.1255  0.0482
 1145DOPS   GL113431   4.684  23.459  12.712  0.1468  0.1648 -0.0410
 1145DOPS   GL213432   4.803  23.435  13.012  0.2131 -0.1615  0.0429
 1145DOPS   C1A13433   4.508  23.893  12.673  0.0849 -0.1304  0.1913
 1145DOPS   D2A13434   4.337  24.329  12.607  0.1938  0.3545  0.1379
 1145DOPS   C3A13435   4.046  24.593  12.964 -0.0917 -0.0140  0.2021
 1145DOPS   C4A13436   3.758  24.937  12.954 -0.1378  0.0170 -0.0008
 1145DOPS   C1B13437   4.905  23.274  13.394 -0.0775  0.2787  0.3356
 1145DOPS   D2B13438   4.948  23.241  13.872 -0.3898 -0.2827 -0.0061
 1145DOPS   C3B13439   5.292  23.529  13.863 -0.0537  0.0872 -0.0724
 1145DOPS   C4B13440   5.730  23.649  13.879 -0.0698 -0.3084  0.2851
 1146DOPS   CNO13441  10.051  25.100  12.028 -0.2475  0.1196 -0.2060
 1146DOPS   PO413442  10.442  25.124  12.125 -0.1170 -0.1322  0.0430
 1146DOPS   GL113443  10.645  24.813  12.288 -0.0280  0.4362  0.4092
 1146DOPS   GL213444  10.659  24.853  12.546 -0.3133 -0.0040 -0.1075
 1146DOPS   C1A13445  11.041  24.539  12.354  0.1952  0.2027 -0.1017
 1146DOPS   D2A13446  11.128  24.175  12.659 -0.1739 -0.3748 -0.1413
 1146DOPS   C3A13447  11.284  24.064  13.063  0.1808  0.0593 -0.2005
 1146DOPS   C4A13448  11.305  23.807  13.501 -0.0123 -0.2067  0.1330
 1146DOPS   C1B13449  10.802  24.699  12.967 -0.0743 -0.1916 -0.2893
 1146DOPS   D2B13450  11.194  24.517  13.224 -0.0865  0.0968 -0.0016
 1146DOPS   C3B13451  11.506  24.716  13.596 -0.4156 -0.1237  0.2132
 1146DOPS   C4B13452  11.687  25.052  13.866 -0.0615  0.0924 -0.4085
 1147DOPC   NC313453   3.934  25.913  12.201  0.2156 -0.0888  0.0078
 1147DOPC   PO413454   4.094  25.564  12.211  0.1818 -0.2669  0.2117
 1147DOPC   GL113455   4.373  25.315  12.339 -0.0394  0.2504 -0.2611
 1147DOPC   GL213456   4.446  25.336  12.631 -0.0898 -0.1616  0.0365
 1147DOPC   C1A13457   4.132  24.981  12.491 -0.1784  0.3287  0.0469
 1147DOPC   D2A13458   3.765  24.730  12.481 -0.0280 -0.0514 -0.2148
 1147DOPC   C3A13459   3.609  24.431  12.823 -0.0319  0.1756  0.0287
 1147DOPC   C4A13460   3.464  24.439  13.316  0.3708 -0.1795 -0.0376
 1147DOPC   C1B13461   4.060  25.416  12.892 -0.0488 -0.1360 -0.1482
 1147DOPC   D2B13462   4.156  25.757  13.208 -0.3619  0.1369  0.1160
 1147DOPC   C3B13463   4.273  25.630  13.656  0.1789  0.0319  0.3236
 1147DOPC   C4B13464   4.408  25.318  13.992 -0.0368  0.0175  0.4109
 1148DOPC   NC313465  10.092  30.755  11.761  0.1256 -0.2578 -0.1672
 1148DOPC   PO413466  10.039  30.383  11.696  0.0913 -0.0255 -0.0984
 1148DOPC   GL113467   9.749  30.434  12.091 -0.1696  0.1438 -0.0024
 1148DOPC   GL213468   9.915  30.652  12.243 -0.1568  0.2373 -0.6351
 1148DOPC   C1A13469   9.516  30.428  12.525 -0.3679  0.1889 -0.3095
 1148DOPC   D2A13470   9.422  30.106  12.860 -0.1586  0.1098  0.1506
 1148DOPC   C3A13471   9.578  30.145  13.299 -0.0198  0.1038 -0.0353
 1148DOPC   C4A13472   9.772  30.175  13.766 -0.1014  0.3727  0.2871
 1148DOPC   C1B13473   9.891  31.133  12.278 -0.1229  0.0429 -0.0287
 1148DOPC   D2B13474   9.768  31.496  12.540 -0.1239 -0.0605  0.2688
 1148DOPC   C3B13475   9.350  31.660  12.571  0.1407  0.0514  0.2055
 1148DOPC   C4B13476   8.910  31.765  12.706 -0.1195  0.0447  0.0643
 1149DOPE   NH313477   6.140  26.576  12.271 -0.0294  0.1435 -0.0463
 1149DOPE   PO413478   5.907  26.402  12.380 -0.0130 -0.0358 -0.3059
 1149DOPE   GL113479   6.098  26.345  12.663  0.3609 -0.2271 -0.0940
 1149DOPE   GL213480   6.086  26.599  12.809 -0.0961  0.0632 -0.2284
 1149DOPE   C1A13481   6.488  26.160  12.838 -0.0854  0.1078 -0.1658
 1149DOPE   D2A13482   6.934  26.029  12.690 -0.0491  0.4215  0.1599
 1149DOPE   C3A13483   7.173  26.220  12.942 -0.1103  0.1177  0.1617
 1149DOPE   C4A13484   7.166  26.661  13.044  0.1599 -0.0507  0.0494
 1149DOPE   C1B13485   6.337  26.521  13.196  0.1860 -0.1375 -0.3277
 1149DOPE   D2B13486   6.411  26.668  13.648  0.4166 -0.1882  0.0398
 1149DOPE   C3B13487   6.259  26.982  13.882 -0.0944  0.1709 -0.1722
 1149DOPE   C4B13488   6.031  26.991  14.301 -0.1141  0.0819  0.0465
 1150DOPC   NC313489  10.370   0.943  11.584 -0.1918  0.1060  0.1576
 1150DOPC   PO413490  10.338   0.516  11.636  0.3452 -0.0299  0.0277
 1150DOPC   GL113491  10.125   0.250  11.863 -0.3212 -0.0984  0.2061
 1150DOPC   GL213492   9.953   0.094  11.746  0.2707  0.0520  0.1710
 1150DOPC   C1A13493  10.134   0.155  12.344  0.0494 -0.0040 -0.1596
 1150DOPC   D2A13494  10.119  -0.265  12.592  0.2764 -0.0292 -0.1609
 1150DOPC   C3A13495   9.840  -0.577  12.727 -0.2005 -0.0657  0.3662
 1150DOPC   C4A13496   9.525  -0.928  12.843  0.0979 -0.2970 -0.0180
 1150DOPC   C1B13497  10.091  -0.271  12.039  0.0774 -0.0104 -0.2113
 1150DOPC   D2B13498   9.879  -0.517  12.251  0.1961 -0.0169  0.2283
 1150DOPC   C3B13499   9.413  -0.465  12.293 -0.3331  0.0707  0.0883
 1150DOPC   C4B13500   9.166  -0.760  12.535  0.0234  0.2175 -0.0200
 1151POSM   NC313501   4.975  25.919  13.029  0.0449  0.0615  0.5509
 1151POSM   PO413502   5.332  25.800  12.925 -0.0296  0.1800  0.2233
 1151POSM   AM113503   5.453  25.630  13.183  0.0563  0.1440  0.2173
 1151POSM   AM213504   5.629  25.423  13.273  0.0229 -0.1055  0.1520
 1151POSM   T1A13505   5.302  25.547  13.647 -0.1478 -0.4630 -0.1019
 1151POSM   C2A13506   5.340  25.672  14.066 -0.1474 -0.0980 -0.0740
 1151POSM   C3A13507   5.590  25.598  14.423 -0.1307 -0.1342 -0.2014
 1151POSM   C1B13508   5.956  25.357  13.381  0.0582  0.3031  0.0515
 1151POSM   D2B13509   6.410  25.327  13.342  0.2650 -0.1152  0.3095
 1151POSM   C3B13510   6.697  25.571  13.659  0.1057  0.0747 -0.1954
 1151POSM   C4B13511   6.783  25.936  13.969 -0.1130  0.1264 -0.3017
 1152DOPC   NC313512   2.037  31.298  12.652 -0.0937 -0.1075 -0.0042
 1152DOPC   PO413513   2.022  30.916  12.559 -0.4700 -0.0605  0.1870
 1152DOPC   GL113514   2.085  30.809  12.927  0.0640  0.2655  0.1608
 1152DOPC   GL213515   1.973  30.814  13.161 -0.0871  0.3096 -0.1620
 1152DOPC   C1A13516   2.406  30.524  13.103  0.1354 -0.0730  0.2308
 1152DOPC   D2A13517   2.478  30.272  13.482 -0.3590  0.1575  0.2480
 1152DOPC   C3A13518   2.851  30.376  13.741 -0.0085 -0.1927  0.0307
 1152DOPC   C4A13519   3.009  30.579  14.120  0.0144 -0.0225  0.0893
 1152DOPC   C1B13520   2.356  31.046  13.271 -0.1281  0.2078  0.3776
 1152DOPC   D2B13521   2.566  31.296  13.565 -0.0366  0.0351 -0.1206
 1152DOPC   C3B13522   2.844  31.319  13.930 -0.0212 -0.0902  0.2671
 1152DOPC   C4B13523   2.658  31.108  14.258  0.0937 -0.3514  0.2575
 1153DOPC   NC313524   6.571  32.204  12.369  0.1086  0.0964  0.0487
 1153DOPC   PO413525   6.213  32.144  12.280 -0.1755  0.0767  0.0827
 1153DOPC   GL113526   5.849  32.120  12.498  0.0395  0.2895  0.0615
 1153DOPC   GL213527   5.795  31.805  12.494 -0.1838 -0.0988 -0.3215
 1153DOPC   C1A13528   5.861  32.138  12.969 -0.0360 -0.1489 -0.1431
 1153DOPC   D2A13529   5.874  31.930  13.401  0.1637 -0.0061 -0.2297
 1153DOPC   C3A13530   5.931  31.835  13.826  0.2375  0.1341  0.0417
 1153DOPC   C4A13531   5.928  31.581  14.217 -0.0164  0.0555  0.3050
 1153DOPC   C1B13532   5.878  31.623  12.954 -0.2696 -0.0053  0.0735
 1153DOPC   D2B13533   5.948  31.429  13.350 -0.2779 -0.0356  0.3515
 1153DOPC   C3B13534   6.339  31.488  13.523 -0.0756 -0.0003 -0.1914
 1153DOPC   C4B13535   6.640  31.285  13.774 -0.1352  0.1026 -0.2747
 1154DOPE   NH313536   2.995  31.230  12.924  0.1009 -0.0469  0.0637
 1154DOPE   PO413537   3.054  31.323  12.635 -0.2288 -0.0926  0.0034
 1154DOPE   GL113538   3.030  31.607  12.602 -0.0062  0.2726 -0.0569
 1154DOPE   GL213539   3.262  31.763  12.438  0.1503  0.0757  0.1134
 1154DOPE   C1A13540   2.995  31.985  12.834  0.0604  0.0604 -0.3793
 1154DOPE   D2A13541   3.273  32.380  12.867 -0.3281  0.1442 -0.1896
 1154DOPE   C3A13542   3.261  32.515  13.309 -0.0623  0.1757  0.2271
 1154DOPE   C4A13543   3.506  32.650  13.693 -0.1748  0.1648 -0.0117
 1154DOPE   C1B13544   3.132  32.243  12.375 -0.1369 -0.0507 -0.2959
 1154DOPE   D2B13545   2.837  32.584  12.595 -0.0159  0.0536  0.0323
 1154DOPE   C3B13546   2.852  32.558  13.053 -0.2033 -0.0715 -0.4320
 1154DOPE   C4B13547   2.835  32.654  13.534  0.1577 -0.4105  0.2225
 1155DOPE   NH313548   1.278  32.831  12.547  0.0170  0.1481 -0.0860
 1155DOPE   PO413549   1.453  32.974  12.288 -0.0074  0.1792 -0.1030
 1155DOPE   GL113550   1.588  33.322  12.468  0.1456 -0.0938 -0.6848
 1155DOPE   GL213551   1.420  33.549  12.360  0.1348  0.1136  0.2545
 1155DOPE   C1A13552   1.913  33.622  12.509 -0.0710 -0.0274  0.0712
 1155DOPE   D2A13553   2.205  33.812  12.805 -0.0683  0.0511 -0.0072
 1155DOPE   C3A13554   2.415  33.486  13.035 -0.0166 -0.1565  0.4018
 1155DOPE   C4A13555   2.281  33.321  13.449  0.2260  0.1826  0.0147
 1155DOPE   C1B13556   1.310  33.973  12.441  0.1681 -0.0933 -0.0070
 1155DOPE   D2B13557   1.333  34.383  12.635 -0.1346 -0.1299  0.1069
 1155DOPE   C3B13558   1.322  34.455  13.108  0.1614  0.0607  0.1986
 1155DOPE   C4B13559   1.529  34.510  13.535  0.2120 -0.2827 -0.0298
 1156DOPC   NC313560   0.170  29.830  12.760 -0.4963 -0.3496  0.1212
 1156DOPC   PO413561  -0.168  29.993  12.813  0.3352  0.1806 -0.1150
 1156DOPC   GL113562  -0.362  30.022  13.051 -0.0121  0.2838  0.1150
 1156DOPC   GL213563  -0.629  30.028  13.034 -0.0017  0.0972  0.1396
 1156DOPC   C1A13564  -0.383  30.191  13.512 -0.0545  0.0614 -0.0454
 1156DOPC   D2A13565  -0.396  30.656  13.703  0.2817  0.1390  0.1075
 1156DOPC   C3A13566  -0.162  30.515  14.147 -0.3305 -0.3071 -0.1600
 1156DOPC   C4A13567   0.286  30.517  14.095 -0.3592  0.2983  0.0798
 1156DOPC   C1B13568  -0.879  30.060  13.446  0.2542  0.0743 -0.0814
 1156DOPC   D2B13569  -1.030  29.859  13.781 -0.0864 -0.0342 -0.0608
 1156DOPC   C3B13570  -1.124  29.796  14.229  0.4403 -0.0931  0.0041
 1156DOPC   C4B13571  -0.948  29.572  14.586 -0.1076 -0.0037 -0.0438
 1157DOPE   NH313572   9.198  30.092  12.076 -0.0006 -0.0292  0.2577
 1157DOPE   PO413573   9.490  29.991  11.941 -0.1353  0.2598 -0.2503
 1157DOPE   GL113574   9.520  29.720  12.251  0.1725 -0.1014  0.3074
 1157DOPE   GL213575   9.731  29.504  12.215  0.0432 -0.1423 -0.2401
 1157DOPE   C1A13576   9.665  29.722  12.672 -0.2457 -0.1103 -0.1324
 1157DOPE   D2A13577   9.682  29.682  13.160  0.0510  0.2312 -0.0117
 1157DOPE   C3A13578   9.844  29.295  13.356 -0.1359 -0.1051  0.1675
 1157DOPE   C4A13579   9.579  28.925  13.481 -0.0702 -0.1314  0.0234
 1157DOPE   C1B13580   9.579  29.218  12.535  0.1992  0.3098  0.2697
 1157DOPE   D2B13581   9.575  28.950  12.898  0.2660 -0.0017 -0.2281
 1157DOPE   C3B13582   9.257  29.127  13.206  0.4237  0.0493 -0.0391
 1157DOPE   C4B13583   8.830  29.260  13.432 -0.2179  0.2533 -0.1321
 1158DOPS   CNO13584   5.311  34.026  12.205  0.1677  0.1703  0.2418
 1158DOPS   PO413585   5.315  34.375  12.287 -0.3708  0.0253 -0.0447
 1158DOPS   GL113586   5.719  34.238  12.198  0.0467  0.0433  0.1918
 1158DOPS   GL213587   5.965  34.359  12.306  0.1829  0.0630 -0.1428
 1158DOPS   C1A13588   5.980  33.858  12.248 -0.1579  0.0842 -0.3650
 1158DOPS   D2A13589   6.108  33.401  12.316 -0.3888 -0.0628  0.0647
 1158DOPS   C3A13590   6.314  33.243  12.737 -0.3276 -0.1629 -0.0044
 1158DOPS   C4A13591   6.494  32.951  13.023  0.0570 -0.1777 -0.1456
 1158DOPS   C1B13592   6.257  34.415  12.658 -0.1474 -0.1115 -0.0099
 1158DOPS   D2B13593   6.476  34.070  12.916 -0.0187 -0.1158  0.1709
 1158DOPS   C3B13594   6.518  33.822  13.346  0.1021  0.3812  0.3296
 1158DOPS   C4B13595   6.542  33.649  13.794  0.0870 -0.1477 -0.2463
 1159DOPC   NC313596   3.650  34.034  12.834 -0.1750  0.0993  0.1740
 1159DOPC   PO413597   3.843  34.305  12.591 -0.3402  0.0349  0.1062
 1159DOPC   GL113598   3.487  34.070  12.401  0.0501 -0.0915  0.1925
 1159DOPC   GL213599   3.214  34.093  12.614  0.0457 -0.2098  0.0417
 1159DOPC   C1A13600   3.417  33.632  12.604  0.1532 -0.1336  0.1265
 1159DOPC   D2A13601   3.452  33.192  12.752 -0.3932 -0.1855 -0.2674
 1159DOPC   C3A13602   3.259  33.026  13.142  0.1473 -0.1440 -0.2652
 1159DOPC   C4A13603   3.142  33.041  13.635 -0.0271  0.0604  0.4563
 1159DOPC   C1B13604   3.199  33.845  13.018 -0.1357 -0.2629  0.2920
 1159DOPC   D2B13605   2.862  33.645  13.320 -0.3817 -0.3332 -0.3177
 1159DOPC   C3B13606   2.563  33.702  13.669 -0.1310  0.0866 -0.3951
 1159DOPC   C4B13607   2.636  33.727  14.155 -0.0969 -0.1631 -0.1870
 1160POSM   NC313608   8.625  29.872  12.395  0.1474 -0.6167  0.0497
 1160POSM   PO413609   8.716  30.120  12.087 -0.1607  0.0215  0.1180
 1160POSM   AM113610   8.506  30.368  12.208 -0.2619 -0.2061  0.0884
 1160POSM   AM213611   8.275  30.313  12.370 -0.1694  0.1104 -0.0198
 1160POSM   T1A13612   8.386  30.777  12.478  0.0135 -0.2071  0.2814
 1160POSM   C2A13613   8.061  31.119  12.629  0.1382  0.2124 -0.1184
 1160POSM   C3A13614   7.912  31.316  13.045  0.3302 -0.1160  0.1404
 1160POSM   C1B13615   8.201  30.281  12.702  0.1694  0.0289 -0.0079
 1160POSM   D2B13616   8.138  30.079  13.140 -0.2443 -0.2114 -0.1945
 1160POSM   C3B13617   7.952  29.671  13.145  0.3485 -0.1046  0.2239
 1160POSM   C4B13618   7.463  29.583  13.083  0.1174  0.1912 -0.0348
 1161DOPC   NC313619   1.276  30.271  12.699  0.0429 -0.0163  0.1540
 1161DOPC   PO413620   1.173  30.458  13.028 -0.1976 -0.0554  0.1786
 1161DOPC   GL113621   1.217  30.150  13.307  0.0936  0.0954 -0.1923
 1161DOPC   GL213622   1.211  29.935  13.101  0.1902 -0.3395  0.1380
 1161DOPC   C1A13623   1.030  29.978  13.709  0.0807  0.0605  0.0609
 1161DOPC   D2A13624   0.718  29.653  13.855 -0.2091  0.1277  0.2809
 1161DOPC   C3A13625   0.299  29.763  13.894 -0.0314  0.2900  0.0639
 1161DOPC   C4A13626  -0.049  29.812  13.613  0.1072  0.1396  0.0703
 1161DOPC   C1B13627   0.913  29.725  13.304 -0.1364  0.2339 -0.0437
 1161DOPC   D2B13628   0.916  29.285  13.485  0.0708  0.3357  0.0710
 1161DOPC   C3B13629   1.214  29.082  13.743  0.1320 -0.2192 -0.0694
 1161DOPC   C4B13630   1.191  28.686  13.994  0.0865 -0.3977 -0.1429
 1162POSM   NC313631   5.208  30.808  12.259 -0.0478 -0.0823 -0.0643
 1162POSM   PO413632   5.021  31.119  12.414 -0.1495  0.0405 -0.3644
 1162POSM   AM113633   5.152  31.293  12.705  0.0060  0.0443  0.1897
 1162POSM   AM213634   5.419  31.381  12.794 -0.1050  0.4308 -0.2427
 1162POSM   T1A13635   5.159  31.410  13.208  0.4498 -0.1575  0.4428
 1162POSM   C2A13636   5.437  31.307  13.587 -0.3201  0.2272 -0.0621
 1162POSM   C3A13637   5.312  31.056  13.949 -0.0917  0.1606 -0.0774
 1162POSM   C1B13638   5.608  31.168  13.056 -0.1482  0.1916 -0.5046
 1162POSM   D2B13639   5.869  30.943  13.351  0.0691  0.0931 -0.1477
 1162POSM   C3B13640   5.733  30.664  13.736 -0.3341 -0.1342 -0.2297
 1162POSM   C4B13641   5.323  30.567  13.892  0.1718 -0.1723 -0.1079
 1163DOPE   NH313642   2.993  28.622  12.511 -0.2472 -0.2560 -0.1894
 1163DOPE   PO413643   2.873  28.867  12.314  0.1267  0.1603  0.6477
 1163DOPE   GL113644   2.833  29.171  12.526 -0.1658  0.2112  0.3532
 1163DOPE   GL213645   3.016  29.110  12.746 -0.1728 -0.0980 -0.1395
 1163DOPE   C1A13646   2.409  29.328  12.601  0.2704 -0.0970  0.2060
 1163DOPE   D2A13647   2.192  29.538  12.923 -0.0834  0.0702  0.0229
 1163DOPE   C3A13648   2.133  29.809  13.288 -0.0038  0.1670 -0.1962
 1163DOPE   C4A13649   1.962  29.959  13.698  0.2180 -0.3597 -0.1794
 1163DOPE   C1B13650   2.735  29.259  13.074 -0.2564 -0.1601 -0.3226
 1163DOPE   D2B13651   2.443  29.417  13.357 -0.3863  0.0516  0.0893
 1163DOPE   C3B13652   2.135  29.447  13.699 -0.0749  0.2081 -0.2498
 1163DOPE   C4B13653   1.710  29.403  13.877 -0.1728  0.1087 -0.1042
 1164DOPE   NH313654   8.926  30.763  11.992  0.1366  0.0017  0.1051
 1164DOPE   PO413655   9.011  30.530  12.195  0.2988  0.2180  0.1186
 1164DOPE   GL113656   9.032  30.282  12.487  0.0868 -0.1898  0.1268
 1164DOPE   GL213657   8.746  30.409  12.612  0.2608 -0.0021  0.0840
 1164DOPE   C1A13658   9.175  29.831  12.556  0.2679  0.1333  0.1608
 1164DOPE   D2A13659   9.241  29.565  12.885  0.0472  0.0185 -0.0044
 1164DOPE   C3A13660   9.126  29.145  12.695 -0.0579  0.0875  0.1332
 1164DOPE   C4A13661   9.150  28.677  12.839 -0.1039 -0.0735 -0.0994
 1164DOPE   C1B13662   8.809  30.015  12.852 -0.3184 -0.2339  0.1492
 1164DOPE   D2B13663   9.022  29.921  13.249  0.2890 -0.0742 -0.0291
 1164DOPE   C3B13664   9.265  29.582  13.438  0.0816 -0.0569 -0.0957
 1164DOPE   C4B13665   9.515  29.303  13.769  0.3135 -0.1380  0.0706
 1165DOPS   CNO13666   6.171  23.296  12.244  0.0124 -0.1535  0.2328
 1165DOPS   PO413667   6.196  23.298  12.632  0.0264  0.1004 -0.2205
 1165DOPS   GL113668   6.382  23.267  12.960 -0.2504  0.1592  0.1203
 1165DOPS   GL213669   6.433  23.423  13.084  0.2019  0.2468 -0.2247
 1165DOPS   C1A13670   6.577  22.877  13.093  0.1566  0.2605 -0.2923
 1165DOPS   D2A13671   6.585  22.670  13.522 -0.2466 -0.2083 -0.0860
 1165DOPS   C3A13672   7.027  22.591  13.768  0.0435  0.1013  0.0677
 1165DOPS   C4A13673   7.427  22.363  13.612 -0.2758  0.2466  0.1529
 1165DOPS   C1B13674   6.598  23.228  13.441  0.1057 -0.3005  0.1521
 1165DOPS   D2B13675   6.939  23.068  13.704 -0.0471  0.2295 -0.0258
 1165DOPS   C3B13676   7.312  22.967  13.984  0.0746  0.0147  0.0112
 1165DOPS   C4B13677   7.367  23.060  14.418  0.1688  0.0166 -0.0546
 1166DOPE   NH313678   1.678  23.248  12.732  0.0509  0.1490 -0.0313
 1166DOPE   PO413679   1.319  23.229  12.761 -0.0122 -0.1339  0.1204
 1166DOPE   GL113680   1.405  23.206  13.162 -0.3456 -0.0813 -0.0315
 1166DOPE   GL213681   1.156  23.207  13.320 -0.0196 -0.1634  0.0072
 1166DOPE   C1A13682   1.457  23.683  13.327  0.1716 -0.1994  0.0471
 1166DOPE   D2A13683   1.698  24.056  13.453 -0.0012 -0.1329  0.0610
 1166DOPE   C3A13684   1.536  24.228  13.887  0.4184 -0.0768  0.0850
 1166DOPE   C4A13685   1.357  24.065  14.274  0.2422  0.1175  0.1753
 1166DOPE   C1B13686   0.982  23.583  13.547  0.0874  0.1506  0.1507
 1166DOPE   D2B13687   1.171  24.001  13.586 -0.0510 -0.1646  0.1601
 1166DOPE   C3B13688   1.213  24.478  13.497 -0.0918 -0.1125  0.0639
 1166DOPE   C4B13689   1.323  24.899  13.231 -0.3205 -0.0137  0.0663
 1167DOPE   NH313690   9.609  25.049  12.753 -0.0749 -0.1052  0.2222
 1167DOPE   PO413691   9.738  24.883  12.516 -0.1680 -0.2770  0.0368
 1167DOPE   GL113692   9.588  24.576  12.659  0.1116 -0.2109  0.0998
 1167DOPE   GL213693   9.318  24.574  12.551 -0.0417 -0.1061  0.1587
 1167DOPE   C1A13694   9.627  24.343  13.056 -0.0991 -0.3994 -0.3264
 1167DOPE   D2A13695   9.657  24.137  13.490  0.0489 -0.1250 -0.2469
 1167DOPE   C3A13696  10.086  24.178  13.629 -0.0536  0.1708 -0.0112
 1167DOPE   C4A13697  10.423  23.992  13.428 -0.0427  0.2809  0.0395
 1167DOPE   C1B13698   9.013  24.342  12.870 -0.1671 -0.2987  0.1479
 1167DOPE   D2B13699   8.893  24.045  13.205  0.0190 -0.0223 -0.2567
 1167DOPE   C3B13700   9.017  24.198  13.641 -0.2903 -0.0338 -0.4718
 1167DOPE   C4B13701   9.105  24.314  14.064  0.3238 -0.1390 -0.0799
 1168POSM   NC313702  11.309  32.703  10.967  0.5086 -0.0393  0.2737
 1168POSM   PO413703  10.934  32.911  11.062  0.0747 -0.1140  0.0197
 1168POSM   AM113704  10.846  33.008  11.388  0.0418 -0.2012 -0.0907
 1168POSM   AM213705  10.965  33.091  11.599 -0.4988  0.0552 -0.1153
 1168POSM   T1A13706  10.638  32.854  11.878  0.1634  0.0317  0.0718
 1168POSM   C2A13707  10.362  32.632  12.203 -0.0657 -0.0268 -0.4222
 1168POSM   C3A13708  10.203  32.461  12.586 -0.1060  0.1818 -0.1340
 1168POSM   C1B13709  11.068  33.119  11.936 -0.1748 -0.0208  0.0093
 1168POSM   D2B13710  11.302  33.300  12.348 -0.2945 -0.3814  0.0157
 1168POSM   C3B13711  11.342  33.006  12.703  0.1932 -0.0298  0.0426
 1168POSM   C4B13712  11.138  32.638  12.900  0.0210 -0.0651 -0.0876
 1169DOPC   NC313713   9.908  31.567  11.095  0.0981 -0.1707  0.1409
 1169DOPC   PO413714  10.209  31.794  10.961 -0.2708  0.2033 -0.2022
 1169DOPC   GL113715  10.279  31.749  11.412 -0.1435  0.1988 -0.2678
 1169DOPC   GL213716  10.362  31.494  11.348 -0.7324  0.0024  0.0762
 1169DOPC   C1A13717  10.289  31.882  11.857 -0.2521 -0.0672  0.6641
 1169DOPC   D2A13718  10.145  32.075  12.280 -0.1010 -0.0547 -0.0775
 1169DOPC   C3A13719  10.502  32.033  12.636  0.0191  0.2889  0.0237
 1169DOPC   C4A13720  10.671  31.633  12.872  0.1428 -0.0214 -0.1572
 1169DOPC   C1B13721  10.464  31.098  11.554  0.1852 -0.0424 -0.4775
 1169DOPC   D2B13722  10.773  30.858  11.606 -0.1108  0.4120  0.1288
 1169DOPC   C3B13723  10.970  31.266  11.411  0.0044  0.3016 -0.0160
 1169DOPC   C4B13724  11.037  31.703  11.294  0.1576  0.1191  0.1931
 1170DOPC   NC313725   4.323  23.483  12.424 -0.0251 -0.3732  0.1420
 1170DOPC   PO413726   4.338  23.154  12.592  0.0744  0.1177 -0.2641
 1170DOPC   GL113727   4.361  23.309  12.959 -0.1635 -0.3149 -0.1532
 1170DOPC   GL213728   4.140  23.263  13.096  0.2094  0.0305  0.2150
 1170DOPC   C1A13729   4.502  23.601  13.288 -0.0187 -0.2885  0.1929
 1170DOPC   D2A13730   4.623  23.617  13.776 -0.0394 -0.0114  0.0085
 1170DOPC   C3A13731   4.938  23.901  13.973  0.0194 -0.0370 -0.1876
 1170DOPC   C4A13732   5.311  24.077  13.750  0.2165  0.0609  0.1069
 1170DOPC   C1B13733   3.979  23.045  13.464 -0.0048  0.3805 -0.2561
 1170DOPC   D2B13734   4.067  22.879  13.866  0.2937  0.1590 -0.3489
 1170DOPC   C3B13735   4.387  23.102  14.185 -0.1256 -0.1637  0.1209
 1170DOPC   C4B13736   4.377  23.619  14.236  0.0589 -0.1567  0.1679
 1171DOPE   NH313737   3.343  23.423  12.705 -0.0337 -0.0638 -0.0065
 1171DOPE   PO413738   3.430  23.714  12.705  0.0885 -0.1299  0.0317
 1171DOPE   GL113739   3.647  23.575  13.095  0.1327  0.1958  0.4548
 1171DOPE   GL213740   3.533  23.568  13.338  0.0601  0.0541 -0.2168
 1171DOPE   C1A13741   3.976  23.665  13.444 -0.1105 -0.0650  0.2997
 1171DOPE   D2A13742   4.281  23.954  13.580 -0.1275 -0.0994  0.2673
 1171DOPE   C3A13743   4.396  24.070  14.003  0.0775  0.0857 -0.0603
 1171DOPE   C4A13744   4.741  24.351  14.153 -0.0457 -0.3688  0.4533
 1171DOPE   C1B13745   3.562  23.985  13.590 -0.2795 -0.3421 -0.0831
 1171DOPE   D2B13746   3.499  24.342  13.835 -0.3040  0.1432  0.0424
 1171DOPE   C3B13747   3.123  24.402  14.095  0.2503  0.0657 -0.1632
 1171DOPE   C4B13748   2.808  24.423  14.475 -0.3632 -0.0360 -0.2590
 1172DOPE   NH313749   8.521  26.740  12.237 -0.0825 -0.2393  0.2161
 1172DOPE   PO413750   8.539  26.828  12.552  0.2121 -0.0059 -0.2239
 1172DOPE   GL113751   8.432  26.911  12.949  0.1879  0.0342 -0.0514
 1172DOPE   GL213752   8.608  27.103  13.122  0.1142 -0.0148  0.3940
 1172DOPE   C1A13753   8.211  26.774  13.344  0.2340  0.2458  0.0355
 1172DOPE   D2A13754   7.911  26.757  13.746 -0.0200 -0.0926 -0.0599
 1172DOPE   C3A13755   7.661  26.446  14.013 -0.0054  0.0334  0.0657
 1172DOPE   C4A13756   7.861  26.333  14.412  0.1610 -0.0285 -0.0475
 1172DOPE   C1B13757   8.612  27.043  13.562 -0.0159  0.2589 -0.0516
 1172DOPE   D2B13758   8.462  27.408  13.813 -0.2183  0.0332  0.1249
 1172DOPE   C3B13759   8.519  27.843  13.703  0.0851 -0.0484 -0.0188
 1172DOPE   C4B13760   8.796  28.257  13.629 -0.1478 -0.3820 -0.2851
 1173POSM   NC313761   5.419  23.166  13.026 -0.2531 -0.0789  0.0634
 1173POSM   PO413762   5.256  23.420  12.763 -0.3621  0.0585 -0.1249
 1173POSM   AM113763   5.345  23.641  13.012 -0.6450 -0.1455  0.1286
 1173POSM   AM213764   5.336  23.593  13.309  0.0844  0.1106  0.0637
 1173POSM   T1A13765   5.740  23.914  13.217  0.2229  0.0412  0.0182
 1173POSM   C2A13766   5.978  24.295  13.040  0.0450 -0.5554 -0.2814
 1173POSM   C3A13767   6.307  24.362  12.782 -0.0288 -0.0327 -0.3971
 1173POSM   C1B13768   5.054  23.746  13.410 -0.1303  0.1174 -0.2640
 1173POSM   D2B13769   4.802  24.128  13.554  0.0812  0.2297 -0.0096
 1173POSM   C3B13770   4.838  24.564  13.686  0.1694 -0.4159  0.0968
 1173POSM   C4B13771   4.729  24.900  13.988  0.2093  0.1089 -0.2071
 1174POSM   NC313772   7.460  27.099  12.511  0.4264  0.0350  0.1386
 1174POSM   PO413773   7.677  27.352  12.313  0.0730 -0.1356 -0.0365
 1174POSM   AM113774   7.829  27.421  12.600  0.0925  0.0262  0.3582
 1174POSM   AM213775   7.729  27.484  12.843  0.1439  0.5147 -0.3327
 1174POSM   T1A13776   8.260  27.714  12.698 -0.0705  0.0198  0.1628
 1174POSM   C2A13777   8.603  27.818  12.935 -0.0581  0.2479  0.0635
 1174POSM   C3A13778   8.920  28.028  13.220  0.4270  0.0871 -0.1084
 1174POSM   C1B13779   7.808  27.798  13.002 -0.0108 -0.0654  0.1649
 1174POSM   D2B13780   7.912  28.285  13.057  0.1862 -0.1198 -0.0067
 1174POSM   C3B13781   7.835  28.698  13.301  0.3872  0.2264 -0.3396
 1174POSM   C4B13782   7.978  28.842  13.691  0.0690 -0.1173  0.0433
 1175POSM   NC313783   0.667  32.126  12.248 -0.0529 -0.2252 -0.1250
 1175POSM   PO413784   0.981  32.338  12.349 -0.0957  0.1906  0.0182
 1175POSM   AM113785   1.288  32.329  12.547  0.0700 -0.0607 -0.1238
 1175POSM   AM213786   1.401  32.360  12.802 -0.0507  0.2732  0.1191
 1175POSM   T1A13787   1.708  31.999  12.626 -0.0874  0.1282  0.2592
 1175POSM   C2A13788   2.137  31.852  12.772 -0.0685 -0.6378  0.2144
 1175POSM   C3A13789   2.470  32.100  13.021  0.0281  0.2113 -0.1259
 1175POSM   C1B13790   1.469  32.346  13.130  0.1113  0.1580 -0.1457
 1175POSM   D2B13791   1.409  32.131  13.513 -0.0997 -0.3075  0.0475
 1175POSM   C3B13792   1.161  31.797  13.643  0.0954 -0.0761  0.2071
 1175POSM   C4B13793   1.114  31.341  13.849  0.0658  0.0436 -0.2387
 1176POSM   NC313794  10.724  27.231  11.880 -0.4437 -0.1349 -0.2473
 1176POSM   PO413795  10.620  26.831  11.832 -0.0363  0.2343 -0.2142
 1176POSM   AM113796  10.365  26.928  12.044 -0.4114  0.0701 -0.1098
 1176POSM   AM213797  10.284  27.178  12.175 -0.0793  0.0488  0.0601
 1176POSM   T1A13798   9.983  26.765  12.319  0.0985  0.1835  0.0732
 1176POSM   C2A13799   9.575  26.531  12.191 -0.0823 -0.0770 -0.3521
 1176POSM   C3A13800   9.300  26.134  12.050  0.2990  0.1811  0.0652
 1176POSM   C1B13801  10.186  27.191  12.496  0.2926  0.0826  0.0769
 1176POSM   D2B13802  10.336  27.276  12.907  0.1961 -0.0639  0.2090
 1176POSM   C3B13803  10.180  27.411  13.244 -0.4444 -0.2203  0.0325
 1176POSM   C4B13804  10.078  27.633  13.579 -0.0571 -0.1357 -0.0720
 1177DOPC   NC313805   3.466  29.341  12.613 -0.1931 -0.1855  0.0372
 1177DOPC   PO413806   3.430  29.034  12.401  0.2065  0.1179 -0.0094
 1177DOPC   GL113807   3.418  28.837  12.765  0.3878  0.4302  0.2338
 1177DOPC   GL213808   3.662  28.947  12.887  0.0246 -0.0692 -0.2733
 1177DOPC   C1A13809   3.161  28.761  13.161  0.0952  0.1713  0.2219
 1177DOPC   D2A13810   3.188  28.715  13.585 -0.1106  0.0764 -0.2352
 1177DOPC   C3A13811   3.444  28.411  13.896  0.1891  0.1931 -0.1813
 1177DOPC   C4A13812   3.414  28.350  14.360 -0.0149 -0.2947  0.2307
 1177DOPC   C1B13813   3.671  28.827  13.335 -0.0869  0.0571  0.1112
 1177DOPC   D2B13814   3.946  28.561  13.633 -0.0541 -0.1945 -0.0801
 1177DOPC   C3B13815   4.372  28.606  13.612  0.0562 -0.0232 -0.3062
 1177DOPC   C4B13816   4.739  28.665  13.450 -0.1184 -0.0425 -0.2090
 1178DOPC   NC313817   8.541  24.973  12.369 -0.0250  0.2823 -0.1916
 1178DOPC   PO413818   8.880  24.772  12.395  0.2772 -0.2231  0.0752
 1178DOPC   GL113819   8.856  24.773  12.811 -0.1850  0.3780 -0.1778
 1178DOPC   GL213820   9.088  24.885  12.912  0.4799 -0.2414 -0.3183
 1178DOPC   C1A13821   8.836  24.567  13.260  0.0242 -0.0293 -0.2677
 1178DOPC   D2A13822   8.988  24.682  13.677 -0.1964  0.2498 -0.1407
 1178DOPC   C3A13823   9.184  25.133  13.682  0.3097  0.2567 -0.1588
 1178DOPC   C4A13824   9.473  25.410  13.512  0.1968 -0.3732 -0.1914
 1178DOPC   C1B13825   9.307  24.676  13.237  0.1978  0.0661  0.1143
 1178DOPC   D2B13826   9.521  24.616  13.633  0.0864  0.1396  0.0413
 1178DOPC   C3B13827   9.805  24.435  13.909  0.0854 -0.0285  0.3573
 1178DOPC   C4B13828   9.975  24.113  14.251  0.3458 -0.1423 -0.0399
 1179DOPE   NH313829   7.262  31.006  11.733  0.1451  0.2070 -0.2111
 1179DOPE   PO413830   7.282  30.707  11.871 -0.0694  0.1620  0.1931
 1179DOPE   GL113831   7.544  30.740  12.149 -0.1126 -0.1289  0.0244
 1179DOPE   GL213832   7.363  30.605  12.326 -0.0345 -0.1226 -0.0558
 1179DOPE   C1A13833   7.850  30.580  12.481  0.3609 -0.3538 -0.0245
 1179DOPE   D2A13834   8.013  30.649  12.913 -0.3488 -0.1212 -0.3041
 1179DOPE   C3A13835   7.897  30.853  13.330  0.0910 -0.0648 -0.1528
 1179DOPE   C4A13836   7.750  31.238  13.575 -0.2973 -0.3624  0.2851
 1179DOPE   C1B13837   7.580  30.963  12.568  0.4914  0.2079 -0.2892
 1179DOPE   D2B13838   7.462  31.200  12.965 -0.0964  0.0584  0.0277
 1179DOPE   C3B13839   7.073  31.114  13.141  0.0114  0.0015 -0.0314
 1179DOPE   C4B13840   6.724  31.285  13.301 -0.0894 -0.4045 -0.0927
 1180DOPC   NC313841   7.454  30.232  11.634 -0.2557 -0.1417  0.2083
 1180DOPC   PO413842   7.720  30.463  11.803 -0.2436 -0.0665 -0.0148
 1180DOPC   GL113843   7.860  30.324  12.115 -0.2605 -0.1231 -0.0133
 1180DOPC   GL213844   7.549  30.175  12.177  0.1179 -0.1997 -0.0382
 1180DOPC   C1A13845   7.981  29.894  12.220 -0.0312 -0.1002  0.0882
 1180DOPC   D2A13846   7.817  29.484  12.110  0.1320 -0.3641 -0.1049
 1180DOPC   C3A13847   8.009  29.063  12.225  0.0882 -0.1831 -0.0062
 1180DOPC   C4A13848   8.117  28.679  12.373 -0.2914 -0.1129 -0.0401
 1180DOPC   C1B13849   7.264  30.197  12.534  0.0801  0.2558  0.1716
 1180DOPC   D2B13850   6.926  30.403  12.825 -0.0583  0.1614  0.2135
 1180DOPC   C3B13851   7.026  30.502  13.264  0.0186 -0.0936  0.1574
 1180DOPC   C4B13852   6.859  30.810  13.556 -0.0020 -0.2200 -0.1487
 1181DOPC   NC313853   8.792  31.062  11.486  0.2092  0.2296 -0.1114
 1181DOPC   PO413854   9.165  30.920  11.572  0.1368 -0.0772 -0.0669
 1181DOPC   GL113855   9.133  31.260  11.712 -0.1850  0.2525 -0.0442
 1181DOPC   GL213856   8.982  31.479  11.614 -0.5014  0.1954 -0.1297
 1181DOPC   C1A13857   9.311  31.614  11.947  0.0201 -0.0056 -0.1879
 1181DOPC   D2A13858   9.157  31.973  12.255 -0.0426  0.1211  0.0481
 1181DOPC   C3A13859   8.828  32.309  12.468  0.1515  0.1920 -0.1193
 1181DOPC   C4A13860   8.420  32.573  12.490 -0.0418  0.0187 -0.0246
 1181DOPC   C1B13861   8.888  31.904  11.813  0.1149 -0.0866  0.0029
 1181DOPC   D2B13862   9.025  32.344  11.899  0.1283  0.1452  0.0589
 1181DOPC   C3B13863   9.310  32.481  12.268  0.3186  0.1227  0.0174
 1181DOPC   C4B13864   9.729  32.496  12.373  0.1560 -0.0369 -0.1714
 1182DOPS   CNO13865   8.608   0.379  11.647 -0.0167  0.1703 -0.1582
 1182DOPS   PO413866   8.306   0.610  11.605 -0.1938  0.2821  0.0818
 1182DOPS   GL113867   8.151   0.507  11.893  0.2310 -0.0808 -0.3636
 1182DOPS   GL213868   7.937   0.263  11.900 -0.1125 -0.0890  0.3449
 1182DOPS   C1A13869   8.209   0.593  12.340  0.0818  0.0941 -0.1041
 1182DOPS   D2A13870   7.963   0.787  12.712  0.0007 -0.0682  0.2483
 1182DOPS   C3A13871   8.173   1.103  12.939  0.0300 -0.0699 -0.0898
 1182DOPS   C4A13872   8.457   1.098  13.282 -0.0578  0.1274 -0.0995
 1182DOPS   C1B13873   7.931  -0.121  12.121 -0.0466 -0.1000  0.2400
 1182DOPS   D2B13874   8.244  -0.345  12.388  0.0538 -0.1447 -0.1048
 1182DOPS   C3B13875   8.593  -0.673  12.449  0.0509  0.1135 -0.2237
 1182DOPS   C4B13876   8.718  -0.990  12.737 -0.1183 -0.1973  0.0662
 1183POSM   NC313877  11.142  29.181  11.858 -0.2216  0.0010 -0.0359
 1183POSM   PO413878  10.865  28.980  11.720 -0.2420  0.2319 -0.1722
 1183POSM   AM113879  10.710  28.873  12.033  0.0061 -0.2045  0.0069
 1183POSM   AM213880  10.812  28.787  12.259  0.0911 -0.1641  0.0961
 1183POSM   T1A13881  10.304  28.691  12.354  0.1307  0.1897  0.0758
 1183POSM   C2A13882  10.033  29.008  12.550 -0.3917 -0.0187  0.1619
 1183POSM   C3A13883   9.921  29.349  12.847  0.1538 -0.0967  0.1657
 1183POSM   C1B13884  10.964  28.760  12.553 -0.0553  0.2912  0.1603
 1183POSM   D2B13885  11.155  28.829  12.969  0.3584 -0.1264 -0.0442
 1183POSM   C3B13886  10.885  28.547  13.233  0.0391  0.0234  0.4303
 1183POSM   C4B13887  10.440  28.378  13.323 -0.1528 -0.0570  0.2059
 1184DOPS   CNO13888   6.381  31.574  12.473 -0.2203  0.0839 -0.0546
 1184DOPS   PO413889   6.574  31.740  12.191  0.0384 -0.3276 -0.1437
 1184DOPS   GL113890   6.968  31.791  12.242 -0.1230 -0.1120 -0.2548
 1184DOPS   GL213891   7.095  31.952  12.467  0.0726 -0.0617 -0.2065
 1184DOPS   C1A13892   7.266  32.062  11.984 -0.3345 -0.4477  0.0130
 1184DOPS   D2A13893   7.704  32.154  12.017 -0.1570  0.1638  0.1680
 1184DOPS   C3A13894   8.052  32.419  11.999  0.1915  0.1534  0.1620
 1184DOPS   C4A13895   8.517  32.263  11.891  0.2945 -0.2733  0.0556
 1184DOPS   C1B13896   7.196  32.382  12.578  0.0273  0.1018  0.0800
 1184DOPS   D2B13897   7.549  32.690  12.828  0.0580  0.1896  0.0814
 1184DOPS   C3B13898   7.471  32.825  13.261 -0.1888 -0.2188  0.2113
 1184DOPS   C4B13899   7.574  32.627  13.640 -0.2815 -0.1022 -0.0227
 1185POSM   NC313900   2.139  28.841  12.691 -0.2899 -0.0047 -0.1052
 1185POSM   PO413901   2.045  28.497  12.859 -0.6503  0.0112 -0.1907
 1185POSM   AM113902   1.946  28.415  13.173 -0.0719 -0.0135  0.0276
 1185POSM   AM213903   2.096  28.243  13.389 -0.2045  0.2247 -0.1564
 1185POSM   T1A13904   1.708  28.490  13.622  0.1717 -0.2526 -0.1757
 1185POSM   C2A13905   1.644  28.879  13.844 -0.0194  0.0495  0.1021
 1185POSM   C3A13906   1.411  29.083  14.189  0.0011  0.1602 -0.2610
 1185POSM   C1B13907   2.222  28.416  13.654  0.0679 -0.0869 -0.2336
 1185POSM   D2B13908   2.571  28.655  13.810 -0.0865  0.2929 -0.0601
 1185POSM   C3B13909   2.905  28.560  14.160 -0.2769  0.1060  0.0731
 1185POSM   C4B13910   2.981  28.166  14.423  0.2169 -0.1882 -0.0214
 1186DOPC   NC313911   3.234  30.927  12.529  0.3122  0.0400 -0.1938
 1186DOPC   PO413912   3.579  30.996  12.759 -0.0153 -0.3522  0.3072
 1186DOPC   GL113913   3.687  31.458  12.815 -0.1362 -0.0071  0.0089
 1186DOPC   GL213914   3.420  31.532  12.852 -0.0066 -0.3050  0.1065
 1186DOPC   C1A13915   3.808  31.703  13.219 -0.1917 -0.1817 -0.1107
 1186DOPC   D2A13916   3.976  31.972  13.538 -0.0683 -0.2202 -0.4279
 1186DOPC   C3A13917   3.932  32.249  13.918 -0.1215  0.0331 -0.1603
 1186DOPC   C4A13918   3.648  32.460  14.211  0.4984  0.0045  0.2672
 1186DOPC   C1B13919   3.276  31.562  13.325 -0.2158  0.2240 -0.0976
 1186DOPC   D2B13920   3.098  31.741  13.672  0.3663 -0.0582 -0.0627
 1186DOPC   C3B13921   2.637  31.713  13.826  0.1957 -0.1123  0.2768
 1186DOPC   C4B13922   2.271  31.721  14.065  0.1982  0.0819 -0.1662
 1187DOPC   NC313923   9.004  26.550  12.065 -0.0749  0.3353  0.1082
 1187DOPC   PO413924   8.991  26.889  12.303 -0.1184  0.0509  0.2422
 1187DOPC   GL113925   9.315  27.042  12.445  0.2769  0.3203  0.2518
 1187DOPC   GL213926   9.638  27.150  12.315 -0.1334 -0.1682 -0.0659
 1187DOPC   C1A13927   9.377  27.502  12.479 -0.1145 -0.0859  0.1764
 1187DOPC   D2A13928   9.407  27.977  12.513  0.0432  0.0210 -0.1688
 1187DOPC   C3A13929   9.334  28.238  12.906  0.0115 -0.1247 -0.1689
 1187DOPC   C4A13930   9.245  28.429  13.348 -0.2394 -0.2314 -0.0390
 1187DOPC   C1B13931   9.596  27.048  12.763  0.1282 -0.1925 -0.0035
 1187DOPC   D2B13932   9.441  26.864  13.178  0.1284  0.1157 -0.1916
 1187DOPC   C3B13933   9.181  27.145  13.354  0.5082  0.0566 -0.1822
 1187DOPC   C4B13934   8.867  27.519  13.326  0.0854  0.4860 -0.1128
 1188DOPC   NC313935   1.895  23.512  13.111 -0.0995  0.1816  0.0646
 1188DOPC   PO413936   1.970  23.888  13.057  0.1850  0.1685 -0.1398
 1188DOPC   GL113937   2.250  23.852  13.343 -0.4822 -0.1328  0.1889
 1188DOPC   GL213938   2.337  24.120  13.408 -0.1954 -0.1760 -0.0655
 1188DOPC   C1A13939   2.030  23.938  13.769  0.4036  0.0136 -0.1472
 1188DOPC   D2A13940   1.892  23.926  14.180 -0.1661 -0.2664  0.0052
 1188DOPC   C3A13941   1.623  23.651  14.369 -0.0642 -0.2079  0.0792
 1188DOPC   C4A13942   1.184  23.560  14.389 -0.0537  0.0787 -0.0551
 1188DOPC   C1B13943   2.497  24.324  13.858  0.1291 -0.0102 -0.0120
 1188DOPC   D2B13944   2.727  24.697  14.070  0.1942  0.1825 -0.1268
 1188DOPC   C3B13945   3.063  25.076  14.013 -0.2137 -0.0488  0.1086
 1188DOPC   C4B13946   3.386  25.282  13.757 -0.0636  0.0420 -0.2918
 1189POSM   NC313947   8.062  34.172  11.268 -0.1465 -0.2203  0.2444
 1189POSM   PO413948   7.884  33.840  11.415  0.1096 -0.0428  0.0206
 1189POSM   AM113949   8.034  33.839  11.711  0.1094 -0.2517  0.4282
 1189POSM   AM213950   8.185  33.619  11.847  0.4040  0.0335  0.6405
 1189POSM   T1A13951   7.964  34.040  12.138  0.1988 -0.1377  0.1704
 1189POSM   C2A13952   8.135  33.885  12.527 -0.1485  0.1513  0.3353
 1189POSM   C3A13953   8.149  33.502  12.860  0.1888  0.0607  0.4638
 1189POSM   C1B13954   7.901  33.408  11.912  0.1355 -0.3738 -0.0968
 1189POSM   D2B13955   7.504  33.098  11.982 -0.2073 -0.2120 -0.1527
 1189POSM   C3B13956   7.461  32.769  12.317  0.1157 -0.0185  0.1974
 1189POSM   C4B13957   7.794  32.421  12.428 -0.1392 -0.0921 -0.0594
 1190POSM   NC313958   2.313  27.148  11.835 -0.0707  0.2329  0.4045
 1190POSM   PO413959   2.206  26.826  12.033 -0.4071  0.3474 -0.0724
 1190POSM   AM113960   2.413  26.700  12.271  0.3751  0.4652  0.0624
 1190POSM   AM213961   2.491  26.790  12.522  0.0599 -0.1338  0.2039
 1190POSM   T1A13962   2.642  26.254  12.318  0.2351  0.0629  0.0096
 1190POSM   C2A13963   2.933  25.901  12.393 -0.2053 -0.1208  0.1441
 1190POSM   C3A13964   3.163  25.570  12.582 -0.0627  0.1342 -0.0186
 1190POSM   C1B13965   2.810  26.723  12.623 -0.0144  0.0664 -0.0754
 1190POSM   D2B13966   3.255  26.714  12.859  0.1748 -0.1361 -0.0418
 1190POSM   C3B13967   3.479  26.709  13.293  0.1358  0.1473 -0.0005
 1190POSM   C4B13968   3.667  26.945  13.684 -0.1786  0.1041 -0.0815
 1191DOPE   NH313969   5.525  26.622  12.614  0.0243  0.3234 -0.0341
 1191DOPE   PO413970   5.747  26.841  12.630 -0.0502 -0.0575  0.0857
 1191DOPE   GL113971   5.672  26.728  13.053  0.0817  0.2100 -0.1657
 1191DOPE   GL213972   5.430  26.808  13.105  0.1369 -0.0046 -0.2569
 1191DOPE   C1A13973   5.982  26.827  13.411 -0.3084 -0.0859 -0.2899
 1191DOPE   D2A13974   6.248  27.236  13.415  0.1575  0.0299  0.3365
 1191DOPE   C3A13975   6.255  27.666  13.376 -0.0074 -0.0570 -0.2215
 1191DOPE   C4A13976   5.967  28.030  13.264 -0.0711  0.0224  0.0553
 1191DOPE   C1B13977   5.633  27.176  13.373  0.2024 -0.1230  0.0776
 1191DOPE   D2B13978   5.565  27.542  13.645  0.2407 -0.0663  0.2415
 1191DOPE   C3B13979   5.905  27.822  13.699 -0.1017 -0.0127  0.0377
 1191DOPE   C4B13980   6.075  28.269  13.717  0.2245 -0.0707 -0.0632
 1192DOPS   CNO13981  11.517  28.953  11.608  0.0731  0.1238  0.2208
 1192DOPS   PO413982  11.435  28.790  11.954  0.0042 -0.3558  0.2126
 1192DOPS   GL113983  11.386  28.470  12.120  0.1867 -0.0349 -0.1966
 1192DOPS   GL213984  11.169  28.399  12.117  0.0405 -0.4390  0.0704
 1192DOPS   C1A13985  11.456  28.462  12.566  0.4342  0.2276 -0.0875
 1192DOPS   D2A13986  11.375  28.424  13.049  0.2037 -0.0381 -0.0403
 1192DOPS   C3A13987  11.328  28.075  13.300 -0.3018 -0.0738  0.0627
 1192DOPS   C4A13988  11.181  27.789  13.578  0.0211  0.2979 -0.0607
 1192DOPS   C1B13989  11.368  27.996  12.226  0.1186 -0.2096 -0.0047
 1192DOPS   D2B13990  11.174  27.580  12.111  0.1601  0.0278 -0.1380
 1192DOPS   C3B13991  11.149  27.866  11.776  0.2459 -0.1520  0.1737
 1192DOPS   C4B13992  11.448  28.174  11.701  0.0196  0.0202 -0.1363
 1193DOPE   NH313993  11.538  33.395  11.689 -0.0943 -0.0217 -0.1577
 1193DOPE   PO413994  11.464  33.689  11.792  0.0567  0.2453  0.1310
 1193DOPE   GL113995  11.587  33.681  12.125  0.3449  0.1178  0.5223
 1193DOPE   GL213996  11.443  33.880  12.243 -0.2127  0.0558  0.0722
 1193DOPE   C1A13997  11.712  33.504  12.546 -0.0916  0.2124  0.0374
 1193DOPE   D2A13998  12.140  33.659  12.765 -0.1505 -0.0988 -0.1141
 1193DOPE   C3A13999  12.265  33.748  13.187 -0.2505  0.2316 -0.2228
 1193DOPE   C4A14000  12.408  33.954  13.586 -0.2443 -0.0784  0.3245
 1193DOPE   C1B14001  11.761  33.979  12.550 -0.1730  0.0296 -0.1753
 1193DOPE   D2B14002  12.103  34.118  12.897  0.0482  0.1830  0.0407
 1193DOPE   C3B14003  12.147  34.287  13.312 -0.2583  0.2392  0.0797
 1193DOPE   C4B14004  12.004  34.384  13.742 -0.0573  0.2176  0.3163
 1194DOPC   NC314005   1.567  29.553  12.136 -0.1408  0.0575  0.0525
 1194DOPC   PO414006   1.430  29.849  12.358 -0.1154 -0.4285  0.1506
 1194DOPC   GL114007   1.106  29.612  12.244  0.0793  0.3507  0.0591
 1194DOPC   GL214008   1.012  29.678  12.542 -0.2287 -0.0705  0.0746
 1194DOPC   C1A14009   0.939  29.227  12.509 -0.2396 -0.3279 -0.0257
 1194DOPC   D2A14010   0.826  29.043  12.921  0.1319 -0.0121  0.1356
 1194DOPC   C3A14011   0.676  28.817  13.273  0.0336  0.2606 -0.1132
 1194DOPC   C4A14012   0.732  28.783  13.732  0.2092 -0.2324 -0.0786
 1194DOPC   C1B14013   0.704  29.550  12.870  0.1550 -0.1301 -0.1493
 1194DOPC   D2B14014   0.355  29.257  12.885 -0.1348  0.0824  0.1216
 1194DOPC   C3B14015   0.181  29.076  13.215  0.2634 -0.0075  0.0882
 1194DOPC   C4B14016   0.167  28.872  13.593 -0.1097 -0.0172 -0.2109
 1195DOPC   NC314017   4.801  26.275  12.131 -0.0827 -0.0873  0.2627
 1195DOPC   PO414018   5.095  26.375  12.385 -0.3932  0.1046 -0.0605
 1195DOPC   GL114019   4.639  26.333  12.588 -0.5606  0.2221  0.3973
 1195DOPC   GL214020   4.653  26.300  12.902 -0.3419 -0.2372 -0.3979
 1195DOPC   C1A14021   4.302  26.581  12.704  0.1704  0.3755 -0.0778
 1195DOPC   D2A14022   3.836  26.656  12.857 -0.2493 -0.1095  0.0254
 1195DOPC   C3A14023   3.608  26.319  12.898  0.0987  0.2215  0.1905
 1195DOPC   C4A14024   3.703  26.031  13.235  0.0100  0.1529 -0.2831
 1195DOPC   C1B14025   4.700  26.167  13.327  0.0616 -0.3668 -0.0463
 1195DOPC   D2B14026   4.921  25.978  13.663 -0.1716  0.2867  0.1943
 1195DOPC   C3B14027   5.133  26.197  14.012 -0.2578  0.2395 -0.0705
 1195DOPC   C4B14028   5.056  26.372  14.396  0.3016  0.1940  0.1250
 1196POSM   NC314029  10.325  28.658  11.836 -0.0948 -0.0509  0.1257
 1196POSM   PO414030  10.345  29.038  11.814  0.2635 -0.1217  0.0222
 1196POSM   AM114031  10.322  29.134  12.109  0.0497  0.1146  0.1991
 1196POSM   AM214032  10.261  29.361  12.229  0.0367  0.0077  0.3760
 1196POSM   T1A14033  10.539  29.074  12.574 -0.3298 -0.3872 -0.1433
 1196POSM   C2A14034  10.553  28.632  12.800  0.2036  0.2931  0.0823
 1196POSM   C3A14035  10.208  28.324  12.823 -0.3242 -0.3172  0.0044
 1196POSM   C1B14036  10.261  29.529  12.523  0.0882 -0.3503 -0.2631
 1196POSM   D2B14037  10.161  29.775  12.906  0.1620 -0.2640  0.2232
 1196POSM   C3B14038  10.476  30.074  13.069  0.1908  0.0793 -0.5367
 1196POSM   C4B14039  10.585  30.463  13.073 -0.1148  0.1177 -0.1850
 1197POSM   NC314040   0.787  33.788  12.532  0.1957  0.2513 -0.2122
 1197POSM   PO414041   0.553  33.467  12.424  0.1011 -0.0605  0.1517
 1197POSM   AM114042   0.570  33.179  12.622  0.1020  0.0310  0.3088
 1197POSM   AM214043   0.763  33.118  12.859 -0.1355  0.0095  0.0461
 1197POSM   T1A14044   0.501  32.706  12.707 -0.0467 -0.3178  0.0460
 1197POSM   C2A14045   0.487  32.260  12.794  0.2250 -0.0705  0.4200
 1197POSM   C3A14046   0.100  32.043  12.990 -0.1485  0.1885 -0.0031
 1197POSM   C1B14047   0.958  32.897  12.978  0.0095  0.0298  0.1544
 1197POSM   D2B14048   1.301  32.814  13.310  0.0721 -0.1385  0.2159
 1197POSM   C3B14049   1.193  32.643  13.696  0.0507  0.1506  0.0137
 1197POSM   C4B14050   1.137  32.424  14.076 -0.0596  0.2497 -0.0967
 1198DOPS   CNO14051   8.098  26.008  12.318  0.1455  0.4702  0.3517
 1198DOPS   PO414052   7.908  26.035  12.603  0.2965  0.0050 -0.2062
 1198DOPS   GL114053   7.994  26.085  13.014 -0.0782 -0.0629  0.0777
 1198DOPS   GL214054   8.127  25.917  13.060 -0.3396 -0.1119 -0.1250
 1198DOPS   C1A14055   7.997  26.276  13.418 -0.2527  0.1264 -0.4108
 1198DOPS   D2A14056   8.088  26.241  13.876  0.1118  0.1614  0.0818
 1198DOPS   C3A14057   8.316  26.519  14.065 -0.1279  0.0059 -0.0463
 1198DOPS   C4A14058   8.709  26.488  14.348  0.2226  0.0199  0.0224
 1198DOPS   C1B14059   8.373  25.537  13.162 -0.0903  0.0944  0.0888
 1198DOPS   D2B14060   8.418  25.413  13.599 -0.0315 -0.0754  0.1605
 1198DOPS   C3B14061   8.183  25.143  13.856  0.1047  0.0057  0.3176
 1198DOPS   C4B14062   7.889  24.804  13.896 -0.0158 -0.0466 -0.0607
 1199POSM   NC314063   3.073  23.334  13.094 -0.2046  0.1826  0.0233
 1199POSM   PO414064   2.721  23.308  13.145 -0.1562 -0.0243  0.0470
 1199POSM   AM114065   2.741  23.143  13.395  0.1279 -0.0391  0.3646
 1199POSM   AM214066   2.662  22.863  13.480  0.1044 -0.0196 -0.0987
 1199POSM   T1A14067   2.501  23.114  13.853  0.1960 -0.2933  0.1553
 1199POSM   C2A14068   2.110  23.031  13.995  0.3503 -0.0493  0.0058
 1199POSM   C3A14069   1.895  22.734  14.329 -0.2013  0.0349 -0.1555
 1199POSM   C1B14070   2.788  22.666  13.764  0.1620 -0.0365  0.1961
 1199POSM   D2B14071   2.950  22.581  14.162  0.3002  0.2241  0.1438
 1199POSM   C3B14072   2.932  22.646  14.636  0.3393 -0.1441 -0.0493
 1199POSM   C4B14073   3.277  22.825  14.963  0.0057  0.1513  0.0386
 1200DOPE   NH314074   5.566  33.461  12.301  0.2833 -0.0463  0.1931
 1200DOPE   PO414075   5.292  33.293  12.392 -0.0772 -0.1112 -0.0558
 1200DOPE   GL114076   5.220  32.943  12.652 -0.2463  0.0199 -0.0426
 1200DOPE   GL214077   4.975  32.906  12.426 -0.1081 -0.2834  0.2909
 1200DOPE   C1A14078   4.900  32.721  12.935  0.0858  0.1616  0.1917
 1200DOPE   D2A14079   4.589  32.426  13.012  0.0196 -0.4212  0.2137
 1200DOPE   C3A14080   4.341  32.290  13.384  0.0083  0.1780  0.0668
 1200DOPE   C4A14081   4.442  32.173  13.825 -0.0425  0.2360  0.0175
 1200DOPE   C1B14082   4.944  32.437  12.554  0.3499  0.1402 -0.0827
 1200DOPE   D2B14083   4.724  32.023  12.708 -0.2476  0.0666  0.1253
 1200DOPE   C3B14084   4.333  31.925  12.988  0.0843 -0.1176 -0.0034
 1200DOPE   C4B14085   3.903  32.172  13.005 -0.0258 -0.0815 -0.1440
 1201DOPE   NH314086   2.418  23.530  12.447  0.0135  0.1736 -0.2359
 1201DOPE   PO414087   2.394  23.676  12.152  0.2629 -0.1694  0.4226
 1201DOPE   GL114088   2.461  24.009  12.393  0.2946  0.2278  0.2323
 1201DOPE   GL214089   2.188  24.112  12.402  0.0659 -0.0686 -0.2484
 1201DOPE   C1A14090   2.579  24.449  12.271 -0.0928 -0.1061 -0.1094
 1201DOPE   D2A14091   2.638  24.910  12.183 -0.0355 -0.2490 -0.0711
 1201DOPE   C3A14092   2.799  25.122  12.602 -0.2972  0.4202  0.0842
 1201DOPE   C4A14093   3.171  25.088  12.892  0.0923 -0.1098 -0.0938
 1201DOPE   C1B14094   1.789  24.384  12.420  0.2184  0.2216 -0.0113
 1201DOPE   D2B14095   1.687  24.820  12.398 -0.0375 -0.1555  0.1760
 1201DOPE   C3B14096   1.813  25.000  12.824 -0.1382  0.0152  0.2759
 1201DOPE   C4B14097   1.954  25.057  13.265 -0.1310 -0.0546 -0.6321
 1202DOPE   NH314098   2.388  23.630  12.963 -0.0674 -0.3342  0.1658
 1202DOPE   PO414099   2.387  23.930  12.850 -0.1781 -0.2064 -0.3450
 1202DOPE   GL114100   2.363  24.296  12.779 -0.1240  0.3064  0.1495
 1202DOPE   GL214101   2.104  24.343  12.841  0.2113 -0.0402 -0.2241
 1202DOPE   C1A14102   2.664  24.677  12.771 -0.2377  0.0081 -0.2760
 1202DOPE   D2A14103   2.597  25.052  13.073 -0.0638 -0.1596 -0.1356
 1202DOPE   C3A14104   2.655  25.470  12.886 -0.1109 -0.1595 -0.0197
 1202DOPE   C4A14105   2.754  25.881  12.957  0.0606 -0.4005 -0.0186
 1202DOPE   C1B14106   2.318  24.642  13.105 -0.1970 -0.0940  0.2838
 1202DOPE   D2B14107   2.420  24.767  13.571 -0.1847  0.0724  0.1162
 1202DOPE   C3B14108   2.072  24.910  13.856 -0.0560  0.4374  0.1119
 1202DOPE   C4B14109   1.613  25.184  13.846  0.1162  0.2287  0.0139
 1203DOPS   CNO14110   3.653  23.039  12.516 -0.1455  0.1090  0.0475
 1203DOPS   PO414111   3.857  23.358  12.693  0.2318  0.0777  0.0342
 1203DOPS   GL114112   3.934  23.754  12.772 -0.0098  0.1047  0.2876
 1203DOPS   GL214113   4.107  23.763  12.957  0.1109 -0.0317  0.3868
 1203DOPS   C1A14114   3.770  24.023  13.138  0.2352  0.1259 -0.1412
 1203DOPS   D2A14115   3.996  24.313  13.445 -0.1861  0.4644  0.0617
 1203DOPS   C3A14116   3.897  24.704  13.629 -0.1974  0.0119  0.2083
 1203DOPS   C4A14117   3.546  24.858  13.831 -0.3205  0.1007  0.1998
 1203DOPS   C1B14118   4.288  24.129  13.097  0.0102  0.0956  0.0782
 1203DOPS   D2B14119   4.434  24.474  13.355 -0.0528 -0.3582 -0.1373
 1203DOPS   C3B14120   4.318  24.522  13.802  0.2303  0.1115 -0.0076
 1203DOPS   C4B14121   4.131  24.937  13.962 -0.0786  0.2313  0.2699
 1204POSM   NC314122   6.790  27.065  12.044  0.4063  0.1052 -0.3052
 1204POSM   PO414123   6.526  26.767  12.028  0.0600 -0.2161  0.2357
 1204POSM   AM114124   6.639  26.679  12.325 -0.1329  0.1732 -0.1365
 1204POSM   AM214125   6.543  26.589  12.570 -0.1697  0.4185 -0.0811
 1204POSM   T1A14126   7.054  26.464  12.497 -0.0369 -0.1932  0.0676
 1204POSM   C2A14127   7.471  26.567  12.655 -0.3413 -0.0686 -0.2802
 1204POSM   C3A14128   7.653  26.499  13.093  0.3678 -0.0332  0.2977
 1204POSM   C1B14129   6.722  26.562  12.871 -0.2764 -0.0862 -0.0681
 1204POSM   D2B14130   6.833  26.374  13.298  0.3202  0.0620  0.1957
 1204POSM   C3B14131   6.522  26.192  13.546  0.0485 -0.1543 -0.1148
 1204POSM   C4B14132   6.164  26.098  13.865 -0.2357 -0.0003 -0.1310
 1205POSM   NC314133   9.915  29.806  11.889  0.1845 -0.2116 -0.1049
 1205POSM   PO414134  10.029  29.431  11.762 -0.2111 -0.2161  0.0115
 1205POSM   AM114135   9.915  29.135  11.854 -0.2230 -0.6412 -0.2516
 1205POSM   AM214136   9.843  28.999  12.069  0.0550 -0.0687 -0.0767
 1205POSM   T1A14137   9.809  28.619  11.812 -0.2804 -0.0378  0.1699
 1205POSM   C2A14138   9.548  28.239  11.974  0.1392  0.1298  0.1226
 1205POSM   C3A14139   9.257  27.865  11.991 -0.0930 -0.0942 -0.2012
 1205POSM   C1B14140   9.720  28.765  12.281  0.0818  0.2602  0.0586
 1205POSM   D2B14141   9.782  28.520  12.689 -0.1807  0.3347 -0.1425
 1205POSM   C3B14142   9.867  28.597  13.129 -0.1054 -0.0787 -0.1061
 1205POSM   C4B14143   9.696  28.461  13.528 -0.0024 -0.0477 -0.1561
 1206DOPE   NH314144   8.219  26.461  12.464 -0.1766 -0.0314  0.1116
 1206DOPE   PO414145   8.223  26.447  12.787 -0.0852  0.1086  0.2572
 1206DOPE   GL114146   8.372  26.429  13.137 -0.0453  0.1470  0.2009
 1206DOPE   GL214147   8.656  26.541  13.055  0.4770  0.1518 -0.0150
 1206DOPE   C1A14148   8.538  26.448  13.617 -0.1401  0.0903  0.0890
 1206DOPE   D2A14149   8.828  26.688  13.879 -0.4254  0.2575 -0.0151
 1206DOPE   C3A14150   8.739  27.052  14.192  0.0436 -0.5641 -0.4730
 1206DOPE   C4A14151   8.536  27.481  14.331  0.4342 -0.0733  0.0579
 1206DOPE   C1B14152   8.988  26.684  13.365  0.1403  0.0078 -0.1759
 1206DOPE   D2B14153   9.262  26.453  13.625  0.0249 -0.0129  0.1362
 1206DOPE   C3B14154   8.995  26.181  13.926  0.0166 -0.1045  0.4236
 1206DOPE   C4B14155   8.925  25.923  14.327 -0.1163 -0.0896  0.1273
 1207DOPS   CNO14156   0.944  32.977  12.137  0.5388 -0.0377 -0.0929
 1207DOPS   PO414157   1.002  33.252  12.403 -0.2004 -0.5402 -0.1063
 1207DOPS   GL114158   1.143  33.352  12.766  0.2672 -0.1196 -0.1611
 1207DOPS   GL214159   1.421  33.151  12.901 -0.1392 -0.1578 -0.0459
 1207DOPS   C1A14160   1.461  33.658  12.955  0.2565  0.0275  0.1869
 1207DOPS   D2A14161   1.769  34.046  12.989  0.0106  0.3071 -0.0678
 1207DOPS   C3A14162   1.870  34.082  13.431 -0.2030 -0.0979 -0.2512
 1207DOPS   C4A14163   2.004  34.368  13.770 -0.0859 -0.0511  0.0637
 1207DOPS   C1B14164   1.594  33.221  13.349  0.4819 -0.2323 -0.0019
 1207DOPS   D2B14165   1.869  33.262  13.738  0.0572 -0.2675 -0.1136
 1207DOPS   C3B14166   1.677  33.556  14.045 -0.0249  0.0822 -0.1541
 1207DOPS   C4B14167   1.729  34.027  14.065  0.0473  0.0585 -0.0193
 1208DOPE   NH314168   5.972  31.679  12.021  0.0338 -0.2071  0.1990
 1208DOPE   PO414169   6.053  31.381  12.126 -0.2227 -0.4109 -0.0940
 1208DOPE   GL114170   6.199  31.198  12.533  0.2687 -0.0612 -0.2121
 1208DOPE   GL214171   5.940  31.123  12.709  0.2846 -0.1652 -0.1374
 1208DOPE   C1A14172   6.316  31.373  12.965 -0.0477 -0.3468 -0.2859
 1208DOPE   D2A14173   6.354  31.793  13.142  0.1762  0.3635  0.3181
 1208DOPE   C3A14174   6.337  32.186  12.920  0.0821  0.4082 -0.1670
 1208DOPE   C4A14175   6.579  32.549  12.780 -0.2225 -0.1159 -0.1168
 1208DOPE   C1B14176   5.882  30.712  12.848  0.1755  0.0681 -0.1404
 1208DOPE   D2B14177   5.871  30.403  13.183 -0.1724  0.3204  0.0704
 1208DOPE   C3B14178   6.344  30.311  13.208  0.2306 -0.2986  0.0428
 1208DOPE   C4B14179   6.653  30.222  13.460  0.3572  0.2028 -0.1283
 1209POSM   NC314180  33.688  26.517  12.493 -0.0295  0.3605  0.1771
 1209POSM   PO414181  33.840  26.214  12.293 -0.1186 -0.1667  0.2129
 1209POSM   AM114182  34.040  25.943  12.326  0.0318 -0.2168  0.0835
 1209POSM   AM214183  34.088  25.712  12.514  0.3801  0.0082  0.2692
 1209POSM   T1A14184  34.471  25.747  12.097  0.1983 -0.2301 -0.0200
 1209POSM   C2A14185  34.918  25.812  12.064  0.2880  0.1712 -0.2565
 1209POSM   C3A14186  35.386  25.851  11.968  0.3541  0.1899 -0.2201
 1209POSM   C1B14187  34.284  25.558  12.758  0.2446 -0.2145  0.0125
 1209POSM   D2B14188  34.614  25.272  12.694  0.0029  0.4017  0.1921
 1209POSM   C3B14189  34.801  24.973  12.985  0.0562  0.0632  0.4824
 1209POSM   C4B14190  34.858  24.782  13.418 -0.0067 -0.0163  0.0168
 1210POSM   NC314191   0.115  33.899  12.991 -0.0012  0.0455 -0.2106
 1210POSM   PO414192   0.372  34.051  12.714  0.1809  0.0344  0.0179
 1210POSM   AM114193   0.660  34.144  12.813 -0.3528  0.2646 -0.1913
 1210POSM   AM214194   0.835  34.363  12.764 -0.1653 -0.1551 -0.2948
 1210POSM   T1A14195   1.079  33.996  12.977  0.0532  0.2059  0.0061
 1210POSM   C2A14196   1.322  33.913  13.403 -0.1336  0.3675  0.0174
 1210POSM   C3A14197   1.295  33.547  13.667  0.0478  0.0314  0.3183
 1210POSM   C1B14198   0.849  34.672  12.995  0.2168  0.2875  0.0957
 1210POSM   D2B14199   0.944  35.073  13.054 -0.1364 -0.0923 -0.1304
 1210POSM   C3B14200   0.878  35.383  13.387  0.1196 -0.0826 -0.2062
 1210POSM   C4B14201   1.111  35.537  13.738  0.1405 -0.1090  0.0258
 1211DOPC   NC314202   4.022  30.587  12.715 -0.2793  0.0658  0.0154
 1211DOPC   PO414203   3.789  30.603  12.349  0.0479  0.0796  0.0175
 1211DOPC   GL114204   3.601  30.505  12.717 -0.0655 -0.1085  0.1395
 1211DOPC   GL214205   3.705  30.248  12.831 -0.0287  0.1597 -0.1626
 1211DOPC   C1A14206   3.176  30.453  12.731  0.2342  0.2794  0.0045
 1211DOPC   D2A14207   2.808  30.715  12.842  0.1693  0.0478 -0.1704
 1211DOPC   C3A14208   2.866  30.742  13.283  0.0068  0.0170 -0.1284
 1211DOPC   C4A14209   2.683  30.836  13.690  0.1131 -0.1519  0.2198
 1211DOPC   C1B14210   3.443  30.523  13.143  0.2672 -0.1475  0.1325
 1211DOPC   D2B14211   3.391  30.988  13.225 -0.0449 -0.5279 -0.1001
 1211DOPC   C3B14212   3.649  31.212  13.548 -0.1248  0.1420 -0.1372
 1211DOPC   C4B14213   3.629  31.631  13.773  0.0410 -0.0105 -0.0856
 1212POSM   NC314214   0.150  30.760  12.791 -0.1381  0.1518  0.1103
 1212POSM   PO414215   0.324  30.382  12.820  0.2580 -0.1931  0.2170
 1212POSM   AM114216   0.191  30.276  13.073 -0.2507 -0.0650 -0.2045
 1212POSM   AM214217  -0.071  30.391  13.121  0.0267  0.5608 -0.1669
 1212POSM   T1A14218   0.182  30.218  13.534 -0.0622 -0.1279 -0.0808
 1212POSM   C2A14219   0.054  30.114  13.976  0.1120 -0.1406  0.0672
 1212POSM   C3A14220  -0.127  30.016  14.363  0.1625 -0.1158 -0.2074
 1212POSM   C1B14221  -0.228  30.675  13.247 -0.0968  0.2635  0.0875
 1212POSM   D2B14222  -0.328  31.114  13.298  0.3063  0.2391  0.0363
 1212POSM   C3B14223  -0.589  31.227  13.657  0.0606  0.0024  0.1791
 1212POSM   C4B14224  -0.664  31.100  14.115 -0.2282  0.0203  0.1462
 1213DOPE   NH314225   4.966  25.808  12.195  0.2192  0.0732 -0.0671
 1213DOPE   PO414226   4.981  25.884  12.522 -0.1618  0.0757  0.0838
 1213DOPE   GL114227   4.872  25.422  12.532 -0.1065 -0.4047 -0.2704
 1213DOPE   GL214228   4.899  25.473  12.821  0.3123  0.3766 -0.0610
 1213DOPE   C1A14229   4.709  25.050  12.252 -0.1945  0.3139  0.1937
 1213DOPE   D2A14230   4.486  24.616  12.203  0.1926 -0.1883  0.0156
 1213DOPE   C3A14231   4.158  24.261  12.176 -0.1955  0.1703  0.0988
 1213DOPE   C4A14232   3.884  24.138  12.505 -0.0446  0.1303  0.3822
 1213DOPE   C1B14233   4.983  25.373  13.244 -0.2533 -0.2919  0.0093
 1213DOPE   D2B14234   4.766  25.477  13.642 -0.0420  0.2008  0.0688
 1213DOPE   C3B14235   4.945  25.375  14.071 -0.1897 -0.1518 -0.0661
 1213DOPE   C4B14236   5.167  25.253  14.428 -0.0543  0.0155  0.0579
 1214DOPS   CNO14237   2.444  28.590  12.287 -0.0225 -0.4541 -0.0276
 1214DOPS   PO414238   2.531  28.543  12.658  0.1194 -0.2434  0.1916
 1214DOPS   GL114239   2.670  28.584  12.948 -0.0511  0.3124  0.3184
 1214DOPS   GL214240   2.498  28.491  13.158 -0.2439  0.1688 -0.0192
 1214DOPS   C1A14241   2.932  28.321  13.291 -0.1003 -0.0590  0.0752
 1214DOPS   D2A14242   3.065  28.156  13.657  0.2116 -0.0474  0.0332
 1214DOPS   C3A14243   3.215  27.781  13.845  0.0297 -0.0703  0.0757
 1214DOPS   C4A14244   3.537  27.510  13.931  0.1222 -0.0725 -0.2010
 1214DOPS   C1B14245   2.656  28.870  13.376 -0.4287  0.0883  0.2917
 1214DOPS   D2B14246   2.896  29.197  13.663  0.0681 -0.0701 -0.2462
 1214DOPS   C3B14247   2.981  29.187  14.146 -0.0770  0.2092 -0.4588
 1214DOPS   C4B14248   3.341  29.123  14.422  0.2731 -0.1360  0.3396
 1215DOPC   NC314249   1.679  29.981  12.860 -0.2355 -0.2161  0.0269
 1215DOPC   PO414250   1.907  29.886  12.561 -0.3717 -0.0191  0.1663
 1215DOPC   GL114251   2.332  29.956  12.586  0.0938  0.2974 -0.3511
 1215DOPC   GL214252   2.361  30.061  12.819 -0.0858 -0.1417 -0.1160
 1215DOPC   C1A14253   2.687  29.674  12.534  0.1877 -0.4543  0.0143
 1215DOPC   D2A14254   3.078  29.651  12.795 -0.1500  0.0116  0.0366
 1215DOPC   C3A14255   3.256  29.981  12.984 -0.0457  0.0243 -0.0571
 1215DOPC   C4A14256   2.902  30.161  13.240 -0.1040 -0.0677  0.1225
 1215DOPC   C1B14257   2.642  29.757  13.016 -0.1701 -0.0785  0.1145
 1215DOPC   D2B14258   2.851  29.631  13.408 -0.1983 -0.4362 -0.0639
 1215DOPC   C3B14259   2.760  29.881  13.725  0.1638  0.0711  0.3429
 1215DOPC   C4B14260   2.428  30.088  13.911 -0.1671  0.0072  0.2724
 1216DOPC   NC314261   8.729  33.847  10.982 -0.1913 -0.0788 -0.2349
 1216DOPC   PO414262   8.658  33.471  10.917  0.1682 -0.1495 -0.1908
 1216DOPC   GL114263   8.536  33.373  11.299  0.1814  0.3034  0.1070
 1216DOPC   GL214264   8.829  33.536  11.377  0.2395 -0.0202 -0.0823
 1216DOPC   C1A14265   8.197  33.246  11.467 -0.0558 -0.0577  0.0345
 1216DOPC   D2A14266   7.955  32.860  11.727 -0.1954 -0.3296 -0.2161
 1216DOPC   C3A14267   7.967  32.859  12.187  0.0055  0.0930 -0.0043
 1216DOPC   C4A14268   7.921  33.006  12.653 -0.0425  0.1924  0.0511
 1216DOPC   C1B14269   8.763  33.069  11.503  0.2140 -0.1779  0.1454
 1216DOPC   D2B14270   8.439  32.825  11.700  0.0378 -0.0637  0.2196
 1216DOPC   C3B14271   8.218  32.540  11.453 -0.1243 -0.2252 -0.0538
 1216DOPC   C4B14272   8.202  32.138  11.142  0.0521  0.0354 -0.2413
 1217DOPC   NC314273   2.134  28.011  12.938 -0.1117  0.1722 -0.1948
 1217DOPC   PO414274   2.494  28.071  12.843 -0.1561  0.1007 -0.3253
 1217DOPC   GL114275   2.577  27.837  13.118 -0.1006 -0.1511 -0.1294
 1217DOPC   GL214276   2.507  28.017  13.346  0.0959  0.1744  0.1862
 1217DOPC   C1A14277   2.953  27.776  13.411  0.0289 -0.1395 -0.1677
 1217DOPC   D2A14278   3.224  27.391  13.549 -0.1329 -0.2658 -0.1386
 1217DOPC   C3A14279   3.139  27.003  13.802  0.3730 -0.1477  0.0889
 1217DOPC   C4A14280   2.886  26.661  14.059  0.1653 -0.2339 -0.3095
 1217DOPC   C1B14281   2.616  28.125  13.790 -0.0285 -0.2347  0.0324
 1217DOPC   D2B14282   2.488  28.315  14.212  0.0827 -0.1398 -0.1022
 1217DOPC   C3B14283   2.035  28.407  14.309  0.0648  0.1784 -0.0106
 1217DOPC   C4B14284   1.671  28.645  14.372 -0.0622 -0.1872  0.1053
 1218DOPS   CNO14285   4.507  31.528  12.068  0.2331 -0.0005 -0.1193
 1218DOPS   PO414286   4.542  31.545  12.416  0.1941 -0.3649 -0.2345
 1218DOPS   GL114287   4.866  31.616  12.417  0.2618 -0.0406 -0.0949
 1218DOPS   GL214288   4.922  31.795  12.229  0.1935  0.0121  0.2689
 1218DOPS   C1A14289   5.199  31.808  12.720  0.3306  0.6306  0.2992
 1218DOPS   D2A14290   5.442  31.838  13.102  0.4922  0.4074 -0.3963
 1218DOPS   C3A14291   5.386  31.812  13.557 -0.1419 -0.0669  0.1283
 1218DOPS   C4A14292   5.405  31.734  14.013 -0.0562 -0.2978  0.0813
 1218DOPS   C1B14293   5.329  32.036  12.278 -0.0145 -0.1995  0.3932
 1218DOPS   D2B14294   5.464  32.273  12.629 -0.1502 -0.1336  0.0630
 1218DOPS   C3B14295   5.245  32.285  13.021  0.0530 -0.2285  0.3510
 1218DOPS   C4B14296   5.011  32.467  13.302  0.1201  0.1642 -0.2325
 1219POSM   NC314297   2.533  22.975  12.811  0.3240 -0.0597 -0.1264
 1219POSM   PO414298   2.212  23.198  12.761  0.3995  0.2008 -0.0089
 1219POSM   AM114299   2.197  23.154  13.102 -0.1083  0.2868  0.3919
 1219POSM   AM214300   2.284  23.317  13.333 -0.0804 -0.0069 -0.3453
 1219POSM   T1A14301   2.140  22.901  13.543  0.3931  0.0123  0.0367
 1219POSM   C2A14302   2.193  22.510  13.779 -0.0802  0.0959  0.2132
 1219POSM   C3A14303   2.459  22.123  13.844  0.0972  0.1623 -0.2387
 1219POSM   C1B14304   2.109  23.444  13.567  0.2953  0.0896 -0.0255
 1219POSM   D2B14305   1.739  23.496  13.838 -0.1302 -0.0402 -0.2491
 1219POSM   C3B14306   1.304  23.662  13.912 -0.3111 -0.1488  0.0145
 1219POSM   C4B14307   0.903  23.915  14.008  0.3255  0.0459  0.0550
 1220POSM   NC314308   5.564   0.074  12.535 -0.2840  0.0107 -0.0823
 1220POSM   PO414309   5.636  -0.213  12.766 -0.1360  0.0545  0.2463
 1220POSM   AM114310   5.763  -0.399  13.028 -0.2681 -0.1587  0.0649
 1220POSM   AM214311   6.019  -0.476  13.103 -0.1228 -0.1631 -0.3049
 1220POSM   T1A14312   5.647  -0.797  13.375  0.2462 -0.2122  0.1027
 1220POSM   C2A14313   5.833  -1.202  13.573  0.1941  0.0102 -0.2245
 1220POSM   C3A14314   6.102  -1.517  13.751 -0.0083  0.0548 -0.3243
 1220POSM   C1B14315   6.097  -0.810  13.149 -0.2206  0.0617  0.0238
 1220POSM   D2B14316   6.211  -1.291  13.292 -0.1723 -0.0709 -0.0762
 1220POSM   C3B14317   5.929  -1.686  13.299  0.0320  0.1116  0.0369
 1220POSM   C4B14318   5.849  -1.948  13.648  0.0166  0.0275  0.1783
 1221DOPE   NH314319  34.289  30.056  12.408  0.2342  0.0730  0.0297
 1221DOPE   PO414320  34.131  29.788  12.531 -0.0265 -0.1419 -0.1116
 1221DOPE   GL114321  34.149  29.443  12.762 -0.0561  0.2816 -0.0908
 1221DOPE   GL214322  34.245  29.564  13.011 -0.0061  0.1947  0.0695
 1221DOPE   C1A14323  33.932  28.990  12.833 -0.1211 -0.1292  0.2210
 1221DOPE   D2A14324  33.737  28.588  13.045 -0.0300 -0.3590 -0.0452
 1221DOPE   C3A14325  34.072  28.201  13.066  0.0685  0.2494 -0.0663
 1221DOPE   C4A14326  34.230  27.749  12.947  0.0714 -0.1773  0.1312
 1221DOPE   C1B14327  34.201  29.674  13.482 -0.2145 -0.4870  0.3041
 1221DOPE   D2B14328  34.160  29.900  13.897  0.0118  0.1856  0.2634
 1221DOPE   C3B14329  33.999  30.331  13.954 -0.1712 -0.1410 -0.3699
 1221DOPE   C4B14330  33.883  30.696  14.304 -0.3229 -0.1054  0.1017
 1222DOPC   NC314331   5.597  22.435  12.977 -0.6814 -0.0171 -0.2343
 1222DOPC   PO414332   5.370  22.674  12.862 -0.1353  0.0590  0.0923
 1222DOPC   GL114333   5.099  22.889  13.199 -0.2375  0.0426 -0.3356
 1222DOPC   GL214334   5.241  22.662  13.362 -0.0238 -0.0552  0.3753
 1222DOPC   C1A14335   5.330  23.073  13.597 -0.2422 -0.1633  0.0114
 1222DOPC   D2A14336   5.443  23.120  14.093 -0.4157  0.2120  0.0618
 1222DOPC   C3A14337   5.406  23.532  14.367  0.0229  0.1538  0.2444
 1222DOPC   C4A14338   5.641  23.889  14.322  0.1615 -0.2056 -0.2445
 1222DOPC   C1B14339   4.854  22.767  13.620  0.2609 -0.0054  0.2479
 1222DOPC   D2B14340   4.700  22.731  13.989 -0.1444 -0.1843 -0.0637
 1222DOPC   C3B14341   4.324  22.547  14.080  0.1235 -0.0715  0.1479
 1222DOPC   C4B14342   4.160  22.159  14.139  0.0621 -0.0970 -0.0689
 1223POSM   NC314343  10.642  25.658  12.129  0.1322  0.4548  0.0949
 1223POSM   PO414344  10.491  26.026  12.006 -0.1407  0.0855 -0.1391
 1223POSM   AM114345  10.405  26.059  12.343 -0.2037  0.1485  0.1507
 1223POSM   AM214346  10.487  25.981  12.612 -0.0591 -0.0098 -0.0476
 1223POSM   T1A14347  10.104  26.401  12.565  0.1197  0.1560  0.0181
 1223POSM   C2A14348   9.931  26.693  12.846 -0.1055 -0.0318  0.0068
 1223POSM   C3A14349   9.980  26.917  13.252  0.0420  0.0999  0.0725
 1223POSM   C1B14350  10.576  26.287  12.838 -0.3477 -0.1738  0.0589
 1223POSM   D2B14351  10.896  26.574  12.959  0.0249  0.1912  0.2030
 1223POSM   C3B14352  10.770  26.972  12.984  0.1931 -0.2209  0.1418
 1223POSM   C4B14353  10.795  27.428  13.135 -0.3326  0.0215  0.1133
 1224POSM   NC314354   5.390  31.502  12.327 -0.2148  0.1579 -0.0415
 1224POSM   PO414355   5.549  31.161  12.346  0.3295 -0.1476  0.1025
 1224POSM   AM114356   5.504  30.932  12.562 -0.4607 -0.0125  0.0442
 1224POSM   AM214357   5.365  30.889  12.773 -0.1132 -0.0547  0.0443
 1224POSM   T1A14358   5.396  30.455  12.582  0.0618 -0.1557 -0.4298
 1224POSM   C2A14359   5.366  30.112  12.876  0.0091 -0.0797  0.2129
 1224POSM   C3A14360   5.409  29.705  12.945 -0.1538  0.1420 -0.1010
 1224POSM   C1B14361   5.375  30.700  13.066 -0.2977 -0.4057  0.2027
 1224POSM   D2B14362   5.346  30.435  13.452  0.4757  0.0621 -0.0103
 1224POSM   C3B14363   5.676  30.128  13.570 -0.0693  0.2808  0.1978
 1224POSM   C4B14364   5.685  29.654  13.551  0.0650  0.2174 -0.0359
 1225DOPC   NC314365  13.983   8.525  16.156 -0.2390 -0.0192  0.0311
 1225DOPC   PO414366  14.279   8.395  15.920  0.0351  0.0530  0.0432
 1225DOPC   GL114367  14.409   8.444  15.493  0.0376 -0.2849 -0.2356
 1225DOPC   GL214368  14.132   8.641  15.508  0.2804  0.0705 -0.3199
 1225DOPC   C1A14369  14.682   8.383  15.092 -0.0867  0.1825  0.1252
 1225DOPC   D2A14370  14.421   8.166  14.758 -0.1601 -0.1281  0.3023
 1225DOPC   C3A14371  14.520   8.368  14.355  0.1537 -0.1841  0.0625
 1225DOPC   C4A14372  14.630   8.567  13.968 -0.1853 -0.1057 -0.0541
 1225DOPC   C1B14373  14.199   8.583  15.083  0.1636  0.0045 -0.0846
 1225DOPC   D2B14374  13.977   8.606  14.637  0.1191 -0.1466 -0.5099
 1225DOPC   C3B14375  13.683   8.915  14.437  0.0039 -0.4659 -0.2857
 1225DOPC   C4B14376  13.397   8.807  14.085 -0.0690 -0.0711  0.1672
 1226DOPC   NC314377  21.062   2.356  15.687  0.0862  0.2406  0.2870
 1226DOPC   PO414378  21.026   2.679  15.862  0.1055 -0.1832  0.3447
 1226DOPC   GL114379  21.173   2.679  15.380  0.1789 -0.1246 -0.0859
 1226DOPC   GL214380  21.419   2.810  15.276  0.1518 -0.2183 -0.3187
 1226DOPC   C1A14381  20.886   2.947  15.073 -0.2638  0.1976  0.1013
 1226DOPC   D2A14382  20.699   3.341  15.198 -0.0446 -0.2298  0.1362
 1226DOPC   C3A14383  20.338   3.510  14.973  0.0325 -0.0139  0.1790
 1226DOPC   C4A14384  20.077   3.524  14.606 -0.0608 -0.1076 -0.0621
 1226DOPC   C1B14385  21.648   3.089  14.970  0.1326  0.5135  0.0165
 1226DOPC   D2B14386  21.467   3.405  14.711  0.0004  0.2216 -0.1744
 1226DOPC   C3B14387  21.283   3.222  14.322  0.2318  0.0645  0.0035
 1226DOPC   C4B14388  21.046   3.069  13.976 -0.3122  0.2150 -0.1721
 1227DOPE   NH314389  20.749   9.251  15.545 -0.1017 -0.0435  0.1361
 1227DOPE   PO414390  20.434   9.389  15.545  0.2008 -0.1852  0.2383
 1227DOPE   GL114391  20.589   9.545  15.192 -0.1488 -0.0519  0.1708
 1227DOPE   GL214392  20.400   9.694  15.120 -0.1350  0.2554  0.0162
 1227DOPE   C1A14393  20.916   9.443  14.875  0.1384  0.1103 -0.0904
 1227DOPE   D2A14394  21.136   9.200  14.613 -0.0630 -0.0056  0.3021
 1227DOPE   C3A14395  21.377   9.404  14.298 -0.0200  0.0086 -0.0472
 1227DOPE   C4A14396  21.518   9.834  14.198 -0.0772  0.0496  0.0735
 1227DOPE   C1B14397  20.414   9.455  14.717  0.0353  0.2113 -0.0968
 1227DOPE   D2B14398  20.694   9.290  14.398 -0.0454 -0.4379  0.2948
 1227DOPE   C3B14399  20.714   9.588  13.983 -0.1620  0.0870  0.2326
 1227DOPE   C4B14400  20.837   9.545  13.548  0.1500 -0.1578 -0.0112
 1228DOPE   NH314401  12.962   8.345  16.463  0.1988  0.0420 -0.0500
 1228DOPE   PO414402  12.688   8.492  16.377  0.2069 -0.2574  0.1484
 1228DOPE   GL114403  12.726   8.701  15.876  0.1607 -0.1313  0.2644
 1228DOPE   GL214404  12.558   8.813  15.650  0.1742  0.2544  0.4988
 1228DOPE   C1A14405  13.041   8.871  15.615  0.0567  0.0595 -0.2163
 1228DOPE   D2A14406  13.283   8.993  15.277 -0.0864 -0.0307 -0.2242
 1228DOPE   C3A14407  13.602   9.327  15.184 -0.1703  0.1149 -0.2344
 1228DOPE   C4A14408  13.581   9.710  14.934  0.1739 -0.2948  0.1333
 1228DOPE   C1B14409  12.285   9.045  15.338  0.1156  0.3005  0.0083
 1228DOPE   D2B14410  12.289   9.058  14.836 -0.1647  0.0339  0.3072
 1228DOPE   C3B14411  12.296   9.280  14.469 -0.2269 -0.1483  0.2996
 1228DOPE   C4B14412  12.096   9.645  14.252 -0.0555 -0.1647 -0.0654
 1229DOPC   NC314413  20.547  10.878  15.542  0.2491  0.1370 -0.1362
 1229DOPC   PO414414  20.637  11.194  15.747 -0.2288  0.2746  0.1201
 1229DOPC   GL114415  20.828  11.312  15.324 -0.0649 -0.1581  0.0289
 1229DOPC   GL214416  20.578  11.394  15.267 -0.1449  0.0686  0.0052
 1229DOPC   C1A14417  21.147  11.144  15.030 -0.1317  0.0469 -0.3976
 1229DOPC   D2A14418  21.417  11.114  14.691  0.1521  0.0175 -0.2608
 1229DOPC   C3A14419  21.250  11.212  14.252 -0.0794  0.0016  0.2859
 1229DOPC   C4A14420  20.780  11.175  14.175  0.2309  0.2643 -0.3734
 1229DOPC   C1B14421  20.390  11.478  14.809  0.0611  0.1894  0.3108
 1229DOPC   D2B14422  20.006  11.553  14.550  0.0270  0.0006 -0.0444
 1229DOPC   C3B14423  19.944  11.792  14.166 -0.2694  0.4794 -0.1365
 1229DOPC   C4B14424  20.148  12.039  13.895 -0.3802 -0.3444 -0.1429
 1230DOPC   NC314425  21.995   9.326  15.210  0.1048  0.0559  0.2431
 1230DOPC   PO414426  21.917   9.259  15.581  0.0639 -0.1832  0.0197
 1230DOPC   GL114427  22.283   9.117  15.435  0.1444 -0.0036  0.0832
 1230DOPC   GL214428  22.579   9.346  15.437  0.0644  0.1312 -0.3472
 1230DOPC   C1A14429  22.332   9.138  14.939  0.0442  0.4650  0.1169
 1230DOPC   D2A14430  22.413   9.085  14.506 -0.1022 -0.0109  0.1854
 1230DOPC   C3A14431  22.382   9.479  14.194 -0.1578  0.1271  0.2113
 1230DOPC   C4A14432  22.503   9.762  13.833  0.0514  0.0074  0.0101
 1230DOPC   C1B14433  22.961   9.280  15.129 -0.3730 -0.0629  0.0839
 1230DOPC   D2B14434  22.944   9.286  14.724  0.3220 -0.2519  0.1754
 1230DOPC   C3B14435  22.572   9.592  14.676  0.0355 -0.0640 -0.1746
 1230DOPC   C4B14436  22.102   9.687  14.650 -0.4013  0.3928  0.1326
 1231POSM   NC314437  14.481   2.875  15.771  0.0002 -0.2298  0.1244
 1231POSM   PO414438  14.679   3.199  15.723 -0.3071  0.0942 -0.3416
 1231POSM   AM114439  14.709   3.272  15.434  0.0053  0.1242 -0.2562
 1231POSM   AM214440  14.879   3.267  15.176 -0.0287  0.2348  0.1964
 1231POSM   T1A14441  14.428   3.538  15.133 -0.1717  0.0412  0.0452
 1231POSM   C2A14442  14.024   3.717  14.997 -0.0644  0.1327  0.0384
 1231POSM   C3A14443  13.570   3.515  14.939 -0.0362 -0.1939 -0.0942
 1231POSM   C1B14444  15.037   3.075  14.987  0.0736 -0.1382 -0.1418
 1231POSM   D2B14445  15.312   2.945  14.607 -0.3035  0.3064 -0.2218
 1231POSM   C3B14446  15.394   2.482  14.653  0.1534 -0.0995 -0.3025
 1231POSM   C4B14447  15.443   2.082  14.905 -0.0597  0.0439  0.2883
 1232DOPS   CNO14448  19.033   9.760  16.117  0.0330  0.1576 -0.0771
 1232DOPS   PO414449  19.264   9.467  16.103 -0.1228 -0.0318 -0.3565
 1232DOPS   GL114450  19.450   9.776  15.794  0.3286  0.5165 -0.0088
 1232DOPS   GL214451  19.651   9.556  15.675  0.1301  0.2158  0.2118
 1232DOPS   C1A14452  19.506   9.947  15.338 -0.0472  0.1741 -0.1071
 1232DOPS   D2A14453  19.685  10.065  14.936  0.0889 -0.1412 -0.2089
 1232DOPS   C3A14454  19.855  10.498  14.773  0.0550  0.1833  0.0251
 1232DOPS   C4A14455  20.137  10.785  15.081 -0.0251 -0.0076  0.2558
 1232DOPS   C1B14456  19.258   9.525  15.372  0.0379  0.2946 -0.0735
 1232DOPS   D2B14457  19.085   9.800  15.049  0.1015  0.0914  0.2556
 1232DOPS   C3B14458  19.100   9.584  14.623  0.3456  0.2387 -0.0101
 1232DOPS   C4B14459  19.189   9.536  14.165 -0.2979  0.2834 -0.1129
 1233DOPC   NC314460  16.953   2.808  16.294  0.0209 -0.0490 -0.3924
 1233DOPC   PO414461  16.812   2.464  16.088 -0.2377  0.0959  0.1589
 1233DOPC   GL114462  16.909   2.581  15.733 -0.1144 -0.0791 -0.0618
 1233DOPC   GL214463  16.939   2.344  15.597 -0.0907  0.0883 -0.1048
 1233DOPC   C1A14464  16.800   2.786  15.305  0.0354 -0.0051 -0.2355
 1233DOPC   D2A14465  16.896   2.900  14.856  0.1820  0.0217  0.1110
 1233DOPC   C3A14466  16.829   2.584  14.540  0.2226 -0.0295 -0.1484
 1233DOPC   C4A14467  16.746   2.379  14.130 -0.0959  0.0065  0.0850
 1233DOPC   C1B14468  16.558   2.317  15.466 -0.1159 -0.1183  0.0519
 1233DOPC   D2B14469  16.187   2.401  15.273  0.1043  0.2891  0.2201
 1233DOPC   C3B14470  16.120   2.899  15.290  0.1153 -0.1786 -0.5081
 1233DOPC   C4B14471  15.915   3.287  15.106  0.2577 -0.2780 -0.2947
 1234DOPE   NH314472  13.621   4.687  15.658  0.0245  0.1094  0.3936
 1234DOPE   PO414473  13.940   4.873  15.644 -0.2533  0.0785  0.0996
 1234DOPE   GL114474  14.126   5.064  15.223 -0.2665  0.3511  0.1369
 1234DOPE   GL214475  14.343   5.339  15.291 -0.1021 -0.0748 -0.2638
 1234DOPE   C1A14476  14.235   5.317  14.828 -0.2048 -0.2512  0.2387
 1234DOPE   D2A14477  14.124   5.384  14.345 -0.5660 -0.1860 -0.2204
 1234DOPE   C3A14478  14.175   5.769  14.147 -0.1074 -0.3922 -0.2614
 1234DOPE   C4A14479  14.528   5.956  13.897 -0.1414  0.3170  0.2158
 1234DOPE   C1B14480  14.655   5.654  15.159  0.1202 -0.1924 -0.0437
 1234DOPE   D2B14481  14.792   5.917  14.800  0.3914 -0.1375  0.2043
 1234DOPE   C3B14482  15.103   5.886  14.445 -0.1818 -0.4663 -0.0300
 1234DOPE   C4B14483  15.495   6.031  14.260  0.4888  0.2184 -0.0422
 1235POSM   NC314484  19.978   9.231  15.503  0.0789  0.2084 -0.1459
 1235POSM   PO414485  20.217   8.982  15.697 -0.1092  0.0151 -0.2091
 1235POSM   AM114486  20.341   8.884  15.419  0.0386 -0.1737  0.0489
 1235POSM   AM214487  20.350   9.061  15.189 -0.1942  0.1511 -0.2123
 1235POSM   T1A14488  20.105   8.687  15.012 -0.1030  0.0201 -0.1656
 1235POSM   C2A14489  19.930   8.371  14.740 -0.2735 -0.0482 -0.1793
 1235POSM   C3A14490  20.000   7.874  14.671  0.3609 -0.0267  0.1359
 1235POSM   C1B14491  20.096   9.171  14.990  0.0478 -0.0972 -0.1580
 1235POSM   D2B14492  19.916   9.410  14.591  0.0475  0.0026  0.0266
 1235POSM   C3B14493  20.180   9.183  14.255 -0.0281  0.0639 -0.0220
 1235POSM   C4B14494  20.353   9.158  13.739  0.4711 -0.0989 -0.0259
 1236DOPS   CNO14495  17.313  10.850  16.207  0.1138 -0.2316 -0.1460
 1236DOPS   PO414496  17.243  10.998  15.856 -0.3051  0.2369  0.1052
 1236DOPS   GL114497  17.286  11.003  15.456 -0.1395 -0.1275 -0.0424
 1236DOPS   GL214498  17.086  11.216  15.396 -0.0959 -0.3437  0.1007
 1236DOPS   C1A14499  17.544  11.259  15.190 -0.2380 -0.0882  0.2958
 1236DOPS   D2A14500  17.643  11.193  14.708 -0.0721 -0.1284 -0.1150
 1236DOPS   C3A14501  18.001  11.238  14.434  0.2898  0.2941  0.1365
 1236DOPS   C4A14502  18.053  11.420  14.048  0.2240  0.2583 -0.0832
 1236DOPS   C1B14503  17.033  11.322  14.956 -0.0977 -0.1894 -0.2360
 1236DOPS   D2B14504  17.310  11.539  14.676  0.0534 -0.2156  0.1403
 1236DOPS   C3B14505  16.990  11.677  14.305 -0.1239 -0.2742 -0.3233
 1236DOPS   C4B14506  16.664  11.502  14.005  0.1712  0.5984 -0.1928
 1237DOPC   NC314507  21.510   2.699  15.769  0.0772 -0.0317  0.1836
 1237DOPC   PO414508  21.565   2.364  15.533 -0.2286 -0.4568  0.1959
 1237DOPC   GL114509  21.619   2.314  15.167 -0.1532 -0.1954  0.1509
 1237DOPC   GL214510  21.344   2.320  15.083  0.0175  0.3747  0.1250
 1237DOPC   C1A14511  21.781   2.125  14.803 -0.0712  0.0198  0.1569
 1237DOPC   D2A14512  21.872   2.097  14.358 -0.1422  0.2647 -0.2355
 1237DOPC   C3A14513  21.677   1.807  14.036 -0.0641  0.1427  0.3433
 1237DOPC   C4A14514  21.647   1.421  13.897 -0.1536  0.3186  0.0515
 1237DOPC   C1B14515  21.109   2.023  14.816 -0.0508 -0.3418 -0.1686
 1237DOPC   D2B14516  20.970   1.667  14.530 -0.2477  0.0575  0.1178
 1237DOPC   C3B14517  20.652   1.576  14.224 -0.2274  0.1757  0.0272
 1237DOPC   C4B14518  20.349   1.832  14.009 -0.1269 -0.0196  0.1823
 1238DOPE   NH314519  18.083   4.389  16.662  0.2341  0.2162 -0.2295
 1238DOPE   PO414520  18.002   4.165  16.474  0.0755  0.0016  0.0096
 1238DOPE   GL114521  17.989   4.165  16.046 -0.1207  0.1279  0.1562
 1238DOPE   GL214522  17.810   4.288  15.892 -0.0432  0.0792 -0.1348
 1238DOPE   C1A14523  17.758   3.810  15.844  0.1660 -0.0002 -0.2695
 1238DOPE   D2A14524  17.329   3.803  15.714  0.2474 -0.0389 -0.1915
 1238DOPE   C3A14525  17.146   3.656  15.260 -0.1789  0.3152  0.1958
 1238DOPE   C4A14526  16.855   3.527  14.950  0.1371  0.1262 -0.0543
 1238DOPE   C1B14527  17.554   4.245  15.494 -0.0705 -0.1745  0.3362
 1238DOPE   D2B14528  17.427   4.574  15.141 -0.0060 -0.1374  0.0159
 1238DOPE   C3B14529  17.495   4.995  15.289 -0.0595  0.1627  0.0980
 1238DOPE   C4B14530  17.473   5.359  15.567 -0.0578  0.0275  0.1763
 1239DOPE   NH314531  16.403   4.917  16.551  0.0676 -0.0429 -0.0127
 1239DOPE   PO414532  16.507   4.752  16.225  0.0465  0.0910 -0.0730
 1239DOPE   GL114533  16.611   4.761  15.822  0.0828 -0.0948 -0.1831
 1239DOPE   GL214534  16.872   4.614  15.821 -0.0530  0.1153  0.0580
 1239DOPE   C1A14535  16.588   4.692  15.388 -0.0433  0.0991  0.3959
 1239DOPE   D2A14536  16.756   4.650  15.001 -0.6005 -0.0132 -0.2693
 1239DOPE   C3A14537  16.669   4.964  14.652 -0.0990  0.1138  0.1743
 1239DOPE   C4A14538  16.486   5.260  14.384 -0.1359  0.0811  0.0599
 1239DOPE   C1B14539  17.096   4.787  15.393 -0.0502  0.0224  0.0765
 1239DOPE   D2B14540  17.048   5.065  15.045 -0.0077 -0.1979 -0.1788
 1239DOPE   C3B14541  17.093   5.229  14.596 -0.0169 -0.4422 -0.0755
 1239DOPE   C4B14542  16.943   5.543  14.299  0.2370 -0.1753  0.1125
 1240DOPC   NC314543  19.368  11.042  16.341  0.0517 -0.2437 -0.1780
 1240DOPC   PO414544  19.104  10.780  16.229  0.0233  0.1220 -0.0108
 1240DOPC   GL114545  19.149  10.689  15.870  0.3635  0.0275  0.0001
 1240DOPC   GL214546  19.344  10.912  15.650  0.2129  0.1065  0.2454
 1240DOPC   C1A14547  18.968  10.565  15.417  0.0721  0.2204 -0.0609
 1240DOPC   D2A14548  18.885  10.436  15.006  0.0130 -0.0105  0.1491
 1240DOPC   C3A14549  18.912  10.685  14.649  0.1330  0.0324 -0.2770
 1240DOPC   C4A14550  18.999  11.146  14.479 -0.0903  0.1829  0.0348
 1240DOPC   C1B14551  19.780  10.856  15.426  0.1676  0.0012  0.2336
 1240DOPC   D2B14552  20.103  11.225  15.316 -0.0338  0.2673  0.1928
 1240DOPC   C3B14553  19.861  11.470  15.029 -0.1168 -0.1968  0.1042
 1240DOPC   C4B14554  19.710  11.914  14.916 -0.1222  0.3801  0.2324
 1241POSM   NC314555  20.470   6.321  16.460 -0.0013  0.0547  0.1035
 1241POSM   PO414556  20.861   6.385  16.572 -0.2666 -0.1613 -0.5217
 1241POSM   AM114557  20.907   6.519  16.267  0.0943  0.0020  0.3004
 1241POSM   AM214558  21.113   6.490  16.059  0.0378  0.2781  0.0899
 1241POSM   T1A14559  20.712   6.826  15.955 -0.0174 -0.2221 -0.3517
 1241POSM   C2A14560  20.672   7.081  15.563 -0.1618  0.0364 -0.0836
 1241POSM   C3A14561  20.542   7.356  15.203  0.4600  0.2431  0.0020
 1241POSM   C1B14562  21.241   6.381  15.747 -0.0587 -0.0334 -0.0480
 1241POSM   D2B14563  21.474   6.487  15.393  0.1972  0.0140 -0.2933
 1241POSM   C3B14564  21.614   6.909  15.402  0.1305  0.3616  0.1615
 1241POSM   C4B14565  21.991   7.223  15.427  0.1810  0.2673 -0.1936
 1242DOPE   NH314566  12.326   8.938  16.424 -0.1269 -0.4481  0.0245
 1242DOPE   PO414567  12.544   9.114  16.272 -0.0994  0.0911  0.0796
 1242DOPE   GL114568  12.322   9.138  15.901 -0.0657 -0.1956  0.4299
 1242DOPE   GL214569  12.129   9.347  15.953  0.2225  0.0180  0.0530
 1242DOPE   C1A14570  12.423   9.412  15.576  0.2636  0.1542  0.3228
 1242DOPE   D2A14571  12.707   9.303  15.212 -0.2638 -0.2225 -0.0015
 1242DOPE   C3A14572  13.073   9.393  15.008 -0.0136  0.0329 -0.1349
 1242DOPE   C4A14573  13.433   9.270  14.687 -0.4239 -0.1952  0.0721
 1242DOPE   C1B14574  11.937   9.762  15.836  0.5163 -0.0364 -0.0363
 1242DOPE   D2B14575  11.525   9.741  15.624  0.0869  0.0173  0.3108
 1242DOPE   C3B14576  11.338   9.886  15.228 -0.2066 -0.1163  0.1711
 1242DOPE   C4B14577  11.618  10.270  14.980 -0.0413 -0.0519 -0.0138
 1243DOPS   CNO14578  16.376   1.242  15.641  0.1306  0.0738 -0.2894
 1243DOPS   PO414579  16.123   1.377  15.894 -0.0289  0.0501  0.0389
 1243DOPS   GL114580  15.865   1.314  15.563  0.2464  0.2092  0.3149
 1243DOPS   GL214581  15.874   1.591  15.467 -0.2193  0.0548 -0.3189
 1243DOPS   C1A14582  15.869   1.264  15.066 -0.0125 -0.3532  0.1527
 1243DOPS   D2A14583  15.551   1.110  14.723 -0.0026 -0.0589 -0.2481
 1243DOPS   C3A14584  15.578   1.070  14.265  0.0018 -0.0984  0.1218
 1243DOPS   C4A14585  15.592   0.747  13.923 -0.3306  0.1109  0.3146
 1243DOPS   C1B14586  15.991   1.755  15.041  0.2421  0.1340 -0.2895
 1243DOPS   D2B14587  15.955   2.143  14.777  0.1849 -0.2765 -0.2343
 1243DOPS   C3B14588  15.755   2.250  14.369 -0.0086 -0.2340 -0.2703
 1243DOPS   C4B14589  15.739   2.314  13.916 -0.0566  0.2166 -0.1785
 1244POSM   NC314590  19.145   8.567  16.453  0.0069 -0.1665  0.0691
 1244POSM   PO414591  19.147   8.336  16.134  0.3055 -0.1062  0.0687
 1244POSM   AM114592  19.084   8.167  15.805  0.0443  0.2752  0.3788
 1244POSM   AM214593  19.171   8.076  15.531  0.2101  0.0793  0.2916
 1244POSM   T1A14594  18.686   8.100  15.531  0.0474  0.3311  0.0208
 1244POSM   C2A14595  18.360   7.850  15.332 -0.0675 -0.0579 -0.0536
 1244POSM   C3A14596  18.371   7.432  15.222  0.4038  0.2023  0.1200
 1244POSM   C1B14597  19.091   8.106  15.161 -0.3474  0.2201  0.2632
 1244POSM   D2B14598  19.041   8.310  14.752 -0.1847  0.0968  0.0707
 1244POSM   C3B14599  18.707   8.247  14.365  0.3490  0.0584  0.1846
 1244POSM   C4B14600  18.614   8.298  13.883 -0.0993 -0.2839  0.3240
 1245POSM   NC314601  16.362   8.682  15.628 -0.1799 -0.2709 -0.0268
 1245POSM   PO414602  16.004   8.723  15.664  0.3134  0.0885  0.0178
 1245POSM   AM114603  16.029   8.751  15.332  0.2362 -0.1001  0.1478
 1245POSM   AM214604  16.271   8.716  15.153  0.0345  0.0902 -0.0892
 1245POSM   T1A14605  15.819   8.720  14.897  0.0869  0.0448 -0.0481
 1245POSM   C2A14606  15.918   8.734  14.443  0.1489 -0.0209 -0.3539
 1245POSM   C3A14607  15.732   8.780  14.020  0.0356 -0.0697  0.0819
 1245POSM   C1B14608  16.375   8.606  14.853 -0.0480 -0.1838  0.2697
 1245POSM   D2B14609  16.395   8.605  14.403 -0.1657  0.8680  0.0750
 1245POSM   C3B14610  16.511   8.269  14.100 -0.1670 -0.1517 -0.0551
 1245POSM   C4B14611  16.451   8.188  13.635 -0.1798 -0.0606  0.0515
 1246DOPC   NC314612  13.850   0.972  15.731  0.2447 -0.0139  0.2681
 1246DOPC   PO414613  14.245   0.939  15.598  0.3013 -0.3707 -0.2487
 1246DOPC   GL114614  14.323   0.648  15.260 -0.1911 -0.4945  0.1199
 1246DOPC   GL214615  14.157   0.418  15.378  0.0367 -0.1876 -0.2955
 1246DOPC   C1A14616  14.088   0.628  14.862  0.2656 -0.1540 -0.2967
 1246DOPC   D2A14617  14.115   0.748  14.459 -0.1386  0.1690 -0.4237
 1246DOPC   C3A14618  13.952   0.480  14.084  0.2325 -0.0837  0.0950
 1246DOPC   C4A14619  13.710   0.261  13.753  0.0318  0.3878 -0.3552
 1246DOPC   C1B14620  14.430   0.207  15.099 -0.0902  0.1567  0.1853
 1246DOPC   D2B14621  14.679   0.034  14.754  0.1756  0.3490 -0.3450
 1246DOPC   C3B14622  14.567  -0.307  14.449 -0.0089 -0.5107 -0.0628
 1246DOPC   C4B14623  14.480  -0.717  14.528  0.0006 -0.0947  0.0961
 1247DOPS   CNO14624  18.973   3.753  16.479  0.1449  0.0650  0.2077
 1247DOPS   PO414625  19.149   3.665  16.114  0.1932  0.1434 -0.0965
 1247DOPS   GL114626  19.104   3.545  15.774 -0.3096  0.0883 -0.2331
 1247DOPS   GL214627  18.967   3.664  15.609  0.4227  0.1414  0.0416
 1247DOPS   C1A14628  19.283   3.397  15.334  0.2926  0.2073 -0.3367
 1247DOPS   D2A14629  19.196   3.153  14.956  0.2629 -0.3216 -0.0393
 1247DOPS   C3A14630  19.487   3.287  14.576  0.5063 -0.2259  0.1292
 1247DOPS   C4A14631  19.696   3.677  14.344 -0.1219  0.1477  0.0246
 1247DOPS   C1B14632  18.977   3.871  15.177 -0.0699 -0.1898 -0.1163
 1247DOPS   D2B14633  18.764   4.179  14.888  0.0655  0.0307  0.2007
 1247DOPS   C3B14634  18.713   4.080  14.457  0.0198 -0.1503  0.2514
 1247DOPS   C4B14635  18.738   3.776  14.093 -0.4292  0.0192  0.0441
 1248DOPE   NH314636  20.652   9.900  15.473  0.2250  0.1161  0.2859
 1248DOPE   PO414637  20.745  10.182  15.649 -0.0364 -0.3023 -0.2339
 1248DOPE   GL114638  20.840  10.195  15.163  0.1888  0.3521 -0.0489
 1248DOPE   GL214639  20.585  10.381  15.192 -0.1236  0.4657 -0.0405
 1248DOPE   C1A14640  21.107  10.465  14.878  0.1270  0.4631 -0.2706
 1248DOPE   D2A14641  21.007  10.842  14.623  0.1435 -0.3280  0.0016
 1248DOPE   C3A14642  20.979  10.730  14.219 -0.4288  0.1811  0.1589
 1248DOPE   C4A14643  21.127  10.407  13.954 -0.2409 -0.1671  0.1792
 1248DOPE   C1B14644  20.332  10.146  14.948  0.0525  0.1786 -0.0716
 1248DOPE   D2B14645  20.090   9.903  14.643 -0.1638 -0.1832 -0.0904
 1248DOPE   C3B14646  19.905  10.243  14.343 -0.0786  0.0439 -0.2310
 1248DOPE   C4B14647  20.073  10.359  13.911  0.1537 -0.2488 -0.1463
 1249POSM   NC314648  20.911   5.035  15.812 -0.4452  0.0020 -0.2682
 1249POSM   PO414649  21.105   5.319  15.957  0.0209 -0.0197  0.0148
 1249POSM   AM114650  21.280   5.397  15.659 -0.2566  0.0341  0.0873
 1249POSM   AM214651  21.416   5.606  15.596  0.0721  0.3090  0.0814
 1249POSM   T1A14652  21.491   5.283  15.225 -0.2558  0.2177 -0.0918
 1249POSM   C2A14653  21.240   5.176  14.814 -0.0270 -0.2262 -0.1634
 1249POSM   C3A14654  21.261   5.272  14.355 -0.0929 -0.0161 -0.1391
 1249POSM   C1B14655  21.224   5.725  15.315  0.1184 -0.2274  0.3126
 1249POSM   D2B14656  21.271   6.021  14.931  0.0958  0.0483  0.0970
 1249POSM   C3B14657  21.729   6.064  14.820 -0.3609  0.1872  0.1231
 1249POSM   C4B14658  21.828   6.147  14.400  0.2482  0.1107  0.3035
 1250POSM   NC314659  22.010   1.191  15.609 -0.0808 -0.1536 -0.0749
 1250POSM   PO414660  22.112   1.495  15.370  0.0136 -0.2049  0.3083
 1250POSM   AM114661  22.160   1.650  15.125  0.1286  0.1460  0.0796
 1250POSM   AM214662  22.244   1.879  14.934 -0.3860 -0.0080  0.0176
 1250POSM   T1A14663  21.900   1.650  14.702  0.0146  0.2370 -0.0421
 1250POSM   C2A14664  21.977   1.412  14.266  0.0428  0.1736 -0.1970
 1250POSM   C3A14665  22.139   1.221  13.948  0.2054  0.5239  0.2446
 1250POSM   C1B14666  22.259   2.176  14.681 -0.0365  0.0418 -0.4893
 1250POSM   D2B14667  22.390   2.293  14.265  0.0564  0.2284  0.0581
 1250POSM   C3B14668  22.206   2.129  13.915 -0.0795  0.1207  0.0343
 1250POSM   C4B14669  22.096   1.674  13.736  0.0161 -0.2651 -0.0902
 1251DOPC   NC314670  13.141   7.918  15.714 -0.2816  0.0759 -0.2446
 1251DOPC   PO414671  13.370   8.022  16.004 -0.5914  0.1823  0.0049
 1251DOPC   GL114672  13.558   8.045  15.636  0.0916  0.1239  0.0149
 1251DOPC   GL214673  13.856   8.141  15.549  0.1828  0.2347 -0.0182
 1251DOPC   C1A14674  13.264   7.940  15.230  0.0877 -0.1322 -0.2270
 1251DOPC   D2A14675  12.818   7.775  15.328  0.0046  0.0990  0.0286
 1251DOPC   C3A14676  12.637   7.552  14.996  0.0479 -0.0599  0.1158
 1251DOPC   C4A14677  12.293   7.528  14.652 -0.0407  0.0199  0.1284
 1251DOPC   C1B14678  13.538   8.454  15.363 -0.2145 -0.1901 -0.0309
 1251DOPC   D2B14679  13.640   8.625  14.981 -0.1102  0.0164 -0.0188
 1251DOPC   C3B14680  13.822   9.027  14.894 -0.1796  0.0962 -0.0482
 1251DOPC   C4B14681  14.295   9.138  15.039  0.2922  0.0427  0.3675
 1252DOPC   NC314682  12.791   2.339  14.921 -0.1050  0.0050  0.0686
 1252DOPC   PO414683  12.638   2.698  14.818  0.0283  0.3421 -0.0956
 1252DOPC   GL114684  12.820   2.546  14.476  0.0230 -0.4972  0.1319
 1252DOPC   GL214685  12.859   2.274  14.422  0.2488  0.0808  0.0277
 1252DOPC   C1A14686  12.752   2.853  14.121  0.0295 -0.1265  0.0178
 1252DOPC   D2A14687  12.910   2.943  13.700 -0.0856  0.0260 -0.1114
 1252DOPC   C3A14688  12.694   2.910  13.296 -0.0367  0.0786  0.2176
 1252DOPC   C4A14689  12.268   2.673  13.184 -0.2261  0.0355  0.0027
 1252DOPC   C1B14690  12.992   2.409  13.993 -0.1597  0.2189 -0.0074
 1252DOPC   D2B14691  13.089   2.494  13.538 -0.1060  0.0010 -0.2353
 1252DOPC   C3B14692  13.075   2.214  13.252 -0.2868  0.0352  0.0611
 1252DOPC   C4B14693  12.864   2.044  12.831 -0.0870  0.1310  0.0280
 1253POSM   NC314694  17.620   0.163  15.806  0.0019  0.2175  0.0398
 1253POSM   PO414695  17.718  -0.186  15.950  0.1006 -0.0625  0.3596
 1253POSM   AM114696  17.837  -0.256  15.643 -0.4212 -0.1369 -0.1428
 1253POSM   AM214697  17.982  -0.117  15.429 -0.2191 -0.1967 -0.3453
 1253POSM   T1A14698  17.844  -0.496  15.170  0.0759 -0.0935  0.1902
 1253POSM   C2A14699  17.625  -0.858  14.927 -0.1108  0.2443 -0.0569
 1253POSM   C3A14700  17.541  -1.297  14.926  0.1822  0.1366 -0.2943
 1253POSM   C1B14701  17.729   0.030  15.241  0.2017 -0.3368  0.1926
 1253POSM   D2B14702  17.448   0.151  14.898  0.0498  0.5489  0.1951
 1253POSM   C3B14703  17.539   0.304  14.453 -0.0629  0.2180  0.0261
 1253POSM   C4B14704  17.575   0.494  14.037  0.0358 -0.0124  0.0488
 1254POSM   NC314705  22.554   5.064  16.125  0.0668  0.2125  0.0735
 1254POSM   PO414706  22.319   5.338  16.300 -0.1803  0.1180  0.2406
 1254POSM   AM114707  22.306   5.442  16.000 -0.1715 -0.0769 -0.1071
 1254POSM   AM214708  22.247   5.732  15.888 -0.1082 -0.2129 -0.1779
 1254POSM   T1A14709  22.325   5.194  15.587 -0.1809  0.2356 -0.1331
 1254POSM   C2A14710  22.234   4.833  15.279  0.1530  0.1268 -0.1090
 1254POSM   C3A14711  22.230   4.545  14.882  0.0380  0.1514  0.4261
 1254POSM   C1B14712  22.524   5.732  15.651  0.1209  0.0673 -0.2112
 1254POSM   D2B14713  22.808   5.727  15.332  0.1901  0.0820 -0.0016
 1254POSM   C3B14714  22.642   6.023  15.032 -0.1329 -0.1199 -0.0459
 1254POSM   C4B14715  22.888   6.261  14.698 -0.2182 -0.2516  0.0057
 1255DOPE   NH314716  21.230  10.217  15.488  0.1359 -0.1562 -0.1781
 1255DOPE   PO414717  21.527  10.280  15.611 -0.2480  0.2071 -0.3741
 1255DOPE   GL114718  21.715  10.526  15.344 -0.1607  0.2258  0.0243
 1255DOPE   GL214719  21.635  10.286  15.128  0.1870  0.1962  0.1179
 1255DOPE   C1A14720  22.084  10.418  15.069  0.1399 -0.0691 -0.1063
 1255DOPE   D2A14721  22.138  10.197  14.705 -0.0458 -0.2514 -0.2884
 1255DOPE   C3A14722  22.126  10.458  14.307 -0.1552 -0.1021 -0.1954
 1255DOPE   C4A14723  21.950  10.747  13.956  0.0246  0.2691 -0.0445
 1255DOPE   C1B14724  21.662  10.219  14.708 -0.0771 -0.0118  0.3022
 1255DOPE   D2B14725  21.319  10.264  14.370  0.2640  0.3781  0.0279
 1255DOPE   C3B14726  20.858  10.259  14.448 -0.0462 -0.0073  0.0550
 1255DOPE   C4B14727  20.471  10.522  14.642 -0.0141  0.1077 -0.2561
 1256DOPC   NC314728  18.059   9.284  15.791  0.0945  0.2190 -0.0409
 1256DOPC   PO414729  17.693   9.313  15.615  0.1701  0.2704  0.1290
 1256DOPC   GL114730  17.686   9.459  15.272 -0.2022  0.3330 -0.2500
 1256DOPC   GL214731  17.768   9.159  15.074  0.1592  0.0795  0.1134
 1256DOPC   C1A14732  17.955   9.862  15.128  0.0936  0.1894 -0.0947
 1256DOPC   D2A14733  18.167  10.307  15.068  0.0117  0.3062 -0.0209
 1256DOPC   C3A14734  18.341  10.326  14.670 -0.1644  0.0749 -0.1127
 1256DOPC   C4A14735  18.295  10.193  14.259 -0.2507 -0.0706 -0.0579
 1256DOPC   C1B14736  18.178   9.146  14.940 -0.1645  0.0185  0.0385
 1256DOPC   D2B14737  18.415   9.102  14.559  0.3154  0.2429  0.2252
 1256DOPC   C3B14738  18.557   8.760  14.236 -0.1029 -0.1687  0.0078
 1256DOPC   C4B14739  18.937   8.646  14.065  0.0933 -0.0995  0.3511
 1257DOPE   NH314740  19.745   5.032  16.128 -0.2171 -0.0138  0.0433
 1257DOPE   PO414741  19.748   5.292  16.353 -0.0797 -0.1590 -0.0889
 1257DOPE   GL114742  19.680   5.512  15.945  0.2109 -0.5285  0.2063
 1257DOPE   GL214743  19.674   5.328  15.737 -0.1042 -0.2200 -0.0399
 1257DOPE   C1A14744  19.359   5.801  15.689 -0.0318 -0.0006 -0.4028
 1257DOPE   D2A14745  19.301   6.241  15.443  0.1476  0.1756 -0.2610
 1257DOPE   C3A14746  19.051   6.330  15.149 -0.1686 -0.0027 -0.2342
 1257DOPE   C4A14747  18.827   6.463  14.793 -0.0315 -0.0549 -0.0966
 1257DOPE   C1B14748  19.298   5.186  15.442 -0.2456 -0.0410  0.1675
 1257DOPE   D2B14749  19.114   5.108  15.059  0.1748  0.1820 -0.3004
 1257DOPE   C3B14750  19.262   5.334  14.671  0.2926  0.3446 -0.0133
 1257DOPE   C4B14751  19.691   5.347  14.469  0.2193 -0.4615 -0.2507
 1258DOPE   NH314752  22.319   2.612  15.525 -0.2602  0.0312  0.0190
 1258DOPE   PO414753  21.992   2.740  15.525  0.0304 -0.1295  0.1932
 1258DOPE   GL114754  21.959   2.838  15.106  0.3230  0.2932  0.1392
 1258DOPE   GL214755  22.123   3.121  15.135  0.5532 -0.2516  0.0656
 1258DOPE   C1A14756  21.690   2.640  14.825 -0.4998 -0.0378  0.2121
 1258DOPE   D2A14757  21.451   2.380  14.429 -0.1332  0.3676 -0.1680
 1258DOPE   C3A14758  21.080   2.580  14.297 -0.0854  0.2756  0.0372
 1258DOPE   C4A14759  20.688   2.536  14.085 -0.2175  0.3087 -0.0582
 1258DOPE   C1B14760  22.000   3.479  14.774  0.2179 -0.0423 -0.2114
 1258DOPE   D2B14761  21.782   3.642  14.370  0.0144 -0.1518 -0.0584
 1258DOPE   C3B14762  21.295   3.730  14.259  0.1524  0.0960 -0.0598
 1258DOPE   C4B14763  20.950   4.027  14.142 -0.1545  0.0709  0.1774
 1259DOPE   NH314764  18.621   2.222  16.167 -0.0796  0.0987 -0.4376
 1259DOPE   PO414765  18.792   2.375  16.003 -0.0973  0.3746  0.1662
 1259DOPE   GL114766  18.925   2.433  15.598 -0.2637 -0.2247  0.1416
 1259DOPE   GL214767  18.647   2.552  15.536  0.1884  0.0962 -0.1210
 1259DOPE   C1A14768  18.843   2.322  15.163 -0.2998 -0.0325  0.0326
 1259DOPE   D2A14769  18.833   2.334  14.692  0.3318  0.0127 -0.2144
 1259DOPE   C3A14770  19.125   2.459  14.378  0.0699 -0.0257 -0.0280
 1259DOPE   C4A14771  19.303   2.378  13.968  0.0318 -0.2104  0.1280
 1259DOPE   C1B14772  18.423   2.551  15.216 -0.1951 -0.0616 -0.1458
 1259DOPE   D2B14773  18.380   2.647  14.758 -0.2050  0.0249 -0.4522
 1259DOPE   C3B14774  18.404   2.409  14.416  0.4159 -0.0514  0.2124
 1259DOPE   C4B14775  18.336   2.090  14.078 -0.3580 -0.1764  0.2827
 1260DOPS   CNO14776  12.782   4.396  15.678 -0.1288  0.0018 -0.1268
 1260DOPS   PO414777  12.579   4.481  15.389  0.1708  0.1953  0.0782
 1260DOPS   GL114778  12.890   4.711  15.135 -0.0706 -0.2780  0.1534
 1260DOPS   GL214779  13.136   4.576  14.946 -0.0799 -0.0395  0.1874
 1260DOPS   C1A14780  12.826   5.162  14.898  0.1303 -0.0678 -0.1176
 1260DOPS   D2A14781  12.731   5.558  14.699  0.2018 -0.0615 -0.0324
 1260DOPS   C3A14782  12.832   5.833  14.321 -0.1815 -0.1797 -0.0602
 1260DOPS   C4A14783  13.165   5.968  13.973 -0.0505  0.2307 -0.3093
 1260DOPS   C1B14784  12.888   4.723  14.703 -0.1542 -0.0586 -0.1315
 1260DOPS   D2B14785  12.918   5.080  14.366 -0.1057 -0.1086 -0.1861
 1260DOPS   C3B14786  13.165   5.197  14.007 -0.0344  0.0704  0.0598
 1260DOPS   C4B14787  13.310   5.509  13.669 -0.0347 -0.1481  0.3756
 1261DOPE   NH314788  17.961   6.750  16.339  0.2101 -0.1955 -0.4393
 1261DOPE   PO414789  18.020   6.968  16.088 -0.2681  0.0514 -0.1331
 1261DOPE   GL114790  17.857   6.837  15.712  0.2922  0.1522  0.1013
 1261DOPE   GL214791  18.049   6.982  15.488  0.2092 -0.5069 -0.2801
 1261DOPE   C1A14792  17.471   7.010  15.512 -0.2294 -0.2731  0.0062
 1261DOPE   D2A14793  17.340   6.934  15.123  0.1680  0.0212  0.0874
 1261DOPE   C3A14794  17.353   7.112  14.687  0.0001 -0.1342 -0.1950
 1261DOPE   C4A14795  17.232   7.521  14.437 -0.0056  0.0274 -0.0786
 1261DOPE   C1B14796  17.907   7.209  15.081 -0.0139 -0.0840  0.0415
 1261DOPE   D2B14797  17.977   6.921  14.755  0.1248 -0.3604  0.0948
 1261DOPE   C3B14798  18.048   6.717  14.327 -0.0594  0.2893  0.1450
 1261DOPE   C4B14799  17.976   6.964  13.896 -0.3492  0.0412 -0.2553
 1262DOPE   NH314800  14.790   6.565  15.699 -0.0367  0.2483  0.1481
 1262DOPE   PO414801  14.835   6.322  15.922  0.2580  0.0373 -0.0148
 1262DOPE   GL114802  15.209   6.318  15.751 -0.4578 -0.1293  0.0846
 1262DOPE   GL214803  15.322   6.055  15.629  0.3025 -0.0151 -0.2964
 1262DOPE   C1A14804  15.173   6.415  15.274 -0.0456 -0.0840 -0.0958
 1262DOPE   D2A14805  14.981   6.391  14.865 -0.2149 -0.2501  0.1479
 1262DOPE   C3A14806  15.245   6.387  14.522 -0.1228 -0.0810  0.1470
 1262DOPE   C4A14807  15.353   6.643  14.087  0.3928 -0.1934 -0.2089
 1262DOPE   C1B14808  15.616   6.299  15.582  0.0132 -0.0077  0.3215
 1262DOPE   D2B14809  15.699   6.445  15.216  0.2523  0.3154  0.3011
 1262DOPE   C3B14810  15.499   6.682  14.940  0.1376 -0.2137 -0.1623
 1262DOPE   C4B14811  15.636   6.708  14.533 -0.3784 -0.0339  0.0701
 1263POSM   NC314812  14.404   0.169  16.367  0.0510  0.1854  0.2144
 1263POSM   PO414813  14.693   0.180  16.047  0.1476 -0.0638  0.0234
 1263POSM   AM114814  14.765   0.241  15.723 -0.3335 -0.1780 -0.0412
 1263POSM   AM214815  14.647   0.420  15.554 -0.0393  0.0156 -0.0507
 1263POSM   T1A14816  14.889  -0.021  15.287  0.0645 -0.1034 -0.3726
 1263POSM   C2A14817  15.113  -0.151  14.941  0.3142 -0.1003  0.2068
 1263POSM   C3A14818  15.069  -0.252  14.500 -0.1409 -0.1209 -0.1694
 1263POSM   C1B14819  14.736   0.594  15.296 -0.2466 -0.1437 -0.0894
 1263POSM   D2B14820  15.034   0.834  15.013 -0.2824  0.1274  0.1503
 1263POSM   C3B14821  14.990   1.147  14.595 -0.1164 -0.0798  0.1138
 1263POSM   C4B14822  14.989   1.107  14.126  0.0425 -0.2294  0.2120
 1264POSM   NC314823  15.831   4.010  16.223  0.1116  0.1459 -0.1048
 1264POSM   PO414824  15.868   3.687  16.036  0.0630  0.5128 -0.1434
 1264POSM   AM114825  15.965   3.797  15.776  0.2954  0.2091  0.3630
 1264POSM   AM214826  16.005   4.056  15.634 -0.1459 -0.1373 -0.0631
 1264POSM   T1A14827  16.245   3.612  15.413 -0.1512 -0.0852  0.2547
 1264POSM   C2A14828  16.382   3.707  15.006 -0.2559 -0.3468 -0.1077
 1264POSM   C3A14829  16.516   3.732  14.604  0.1007  0.1127  0.1331
 1264POSM   C1B14830  15.949   3.983  15.306 -0.0023  0.0741 -0.0464
 1264POSM   D2B14831  15.927   3.782  14.907 -0.1684  0.0438  0.0973
 1264POSM   C3B14832  16.061   3.433  14.576 -0.2065 -0.3018  0.0107
 1264POSM   C4B14833  15.973   3.111  14.256 -0.0449  0.0512 -0.1388
 1265DOPC   NC314834  18.011   5.409  16.440  0.0700 -0.0209  0.0750
 1265DOPC   PO414835  18.159   5.795  16.337 -0.1686 -0.2047 -0.0557
 1265DOPC   GL114836  18.100   5.836  16.016  0.3831 -0.0666  0.0584
 1265DOPC   GL214837  18.152   6.155  15.889  0.0924 -0.2248 -0.3319
 1265DOPC   C1A14838  17.872   5.796  15.581  0.2072  0.1359  0.2052
 1265DOPC   D2A14839  17.610   5.834  15.186 -0.1778 -0.0821 -0.1354
 1265DOPC   C3A14840  17.472   6.031  14.821  0.0177 -0.0099  0.1702
 1265DOPC   C4A14841  17.338   6.101  14.434 -0.1644  0.3329 -0.0155
 1265DOPC   C1B14842  17.926   6.303  15.474  0.0354 -0.0421 -0.1556
 1265DOPC   D2B14843  17.831   6.351  15.020  0.0129 -0.1226 -0.0791
 1265DOPC   C3B14844  17.893   6.283  14.601  0.0657 -0.1468  0.2020
 1265DOPC   C4B14845  17.852   5.827  14.486 -0.1440  0.0875  0.1344
 1266DOPC   NC314846  15.848   9.649  15.018  0.2171 -0.2459 -0.2123
 1266DOPC   PO414847  15.543   9.516  15.190  0.0964  0.1117 -0.0731
 1266DOPC   GL114848  15.513   9.199  14.938 -0.2533  0.2207  0.2521
 1266DOPC   GL214849  15.630   9.229  14.695  0.1693 -0.0819 -0.1896
 1266DOPC   C1A14850  15.399   8.775  14.730  0.3375  0.0062  0.1164
 1266DOPC   D2A14851  15.366   8.562  14.328 -0.2906  0.2774 -0.1368
 1266DOPC   C3A14852  15.512   8.375  13.963 -0.0215  0.1482  0.1693
 1266DOPC   C4A14853  15.551   8.386  13.478 -0.1342 -0.2047  0.0463
 1266DOPC   C1B14854  15.454   9.080  14.325  0.3407  0.1767 -0.0404
 1266DOPC   D2B14855  15.180   8.863  14.007 -0.2066 -0.1608 -0.0009
 1266DOPC   C3B14856  15.402   8.822  13.639  0.0449  0.0207 -0.0780
 1266DOPC   C4B14857  15.636   9.119  13.363 -0.0935 -0.1894 -0.1199
 1267POSM   NC314858  14.428   9.842  15.848  0.2263 -0.0135 -0.1495
 1267POSM   PO414859  14.623   9.930  15.524  0.0284 -0.1436  0.0591
 1267POSM   AM114860  14.515   9.948  15.252 -0.2415  0.0146  0.8511
 1267POSM   AM214861  14.538   9.712  15.034  0.0136 -0.0081 -0.2044
 1267POSM   T1A14862  14.592  10.112  14.765 -0.1023 -0.0551 -0.1076
 1267POSM   C2A14863  14.367  10.292  14.433 -0.0129 -0.0090 -0.3471
 1267POSM   C3A14864  14.056  10.043  14.080 -0.1907 -0.1188 -0.2038
 1267POSM   C1B14865  14.551   9.463  14.768  0.0982  0.1048  0.0203
 1267POSM   D2B14866  14.599   9.284  14.363 -0.0138 -0.1805  0.1387
 1267POSM   C3B14867  14.864   8.889  14.389 -0.0135  0.0905 -0.0282
 1267POSM   C4B14868  14.940   8.517  14.674  0.0435  0.0050  0.1990
 1268DOPC   NC314869  19.889   1.131  15.723  0.1163  0.0793 -0.4508
 1268DOPC   PO414870  19.929   1.490  15.946 -0.0535  0.2574 -0.1570
 1268DOPC   GL114871  20.160   1.465  15.558 -0.0450  0.2483 -0.2434
 1268DOPC   GL214872  20.167   1.707  15.473  0.1971 -0.1684 -0.2174
 1268DOPC   C1A14873  20.253   1.456  15.083 -0.0716  0.1208  0.0840
 1268DOPC   D2A14874  20.198   1.611  14.630 -0.0367 -0.2084  0.0269
 1268DOPC   C3A14875  19.825   1.571  14.313 -0.4287 -0.0482  0.0794
 1268DOPC   C4A14876  19.474   1.395  14.082 -0.0332  0.1624  0.1091
 1268DOPC   C1B14877  20.086   1.964  15.076 -0.3367  0.1252 -0.0789
 1268DOPC   D2B14878  20.169   2.147  14.650 -0.1860  0.0247  0.3112
 1268DOPC   C3B14879  20.294   2.319  14.248 -0.1683  0.0336 -0.1834
 1268DOPC   C4B14880  20.198   2.566  13.887  0.0148  0.0216 -0.0701
 1269POSM   NC314881  12.118   7.537  16.024 -0.0641 -0.2244  0.0664
 1269POSM   PO414882  12.216   7.905  15.873 -0.1277 -0.2464  0.0096
 1269POSM   AM114883  12.222   7.894  15.534  0.0734 -0.1117  0.2691
 1269POSM   AM214884  12.333   8.122  15.392  0.3121 -0.0211  0.0411
 1269POSM   T1A14885  12.102   7.624  15.136  0.0662  0.0466 -0.3266
 1269POSM   C2A14886  11.883   7.279  14.943 -0.2450  0.1966 -0.1100
 1269POSM   C3A14887  11.974   6.768  14.904  0.0908 -0.1138 -0.0779
 1269POSM   C1B14888  12.506   8.055  15.106 -0.3295  0.1227  0.0724
 1269POSM   D2B14889  12.905   7.939  14.866  0.0308 -0.0402 -0.4581
 1269POSM   C3B14890  13.168   8.101  14.471  0.2402 -0.1788 -0.1544
 1269POSM   C4B14891  13.518   8.389  14.304  0.0532 -0.0769 -0.1056
 1270DOPC   NC314892  14.287   5.404  15.868 -0.0667  0.1938  0.0046
 1270DOPC   PO414893  14.427   5.054  15.762 -0.2903 -0.1574 -0.0610
 1270DOPC   GL114894  14.551   4.866  15.469  0.0889 -0.1746 -0.0316
 1270DOPC   GL214895  14.351   4.695  15.363 -0.0724  0.0214 -0.2380
 1270DOPC   C1A14896  14.564   5.021  15.026 -0.1560  0.1002 -0.0678
 1270DOPC   D2A14897  14.722   5.262  14.635  0.0196  0.1490 -0.0477
 1270DOPC   C3A14898  15.060   5.520  14.838 -0.0957 -0.1064  0.1055
 1270DOPC   C4A14899  15.450   5.531  15.059  0.0942  0.2455 -0.0504
 1270DOPC   C1B14900  14.115   4.649  15.007  0.1675 -0.0571  0.3322
 1270DOPC   D2B14901  13.767   4.582  14.684  0.3554 -0.2853  0.2493
 1270DOPC   C3B14902  14.004   4.805  14.330  0.1961  0.2990 -0.2280
 1270DOPC   C4B14903  14.327   4.617  14.089  0.0181  0.0828  0.0368
 1271POSM   NC314904  13.577  10.382  15.747  0.0411  0.2851 -0.2798
 1271POSM   PO414905  13.595  10.728  15.820  0.3283 -0.2964 -0.1435
 1271POSM   AM114906  13.423  10.821  15.574 -0.1664 -0.1199  0.0917
 1271POSM   AM214907  13.459  10.826  15.314  0.0762 -0.0698 -0.1770
 1271POSM   T1A14908  12.929  11.000  15.417 -0.0416  0.1574 -0.1592
 1271POSM   C2A14909  12.496  10.790  15.346  0.1336  0.0701 -0.0037
 1271POSM   C3A14910  12.124  11.092  15.352 -0.1325  0.2677  0.2012
 1271POSM   C1B14911  13.236  10.736  15.098  0.1441  0.0913  0.2223
 1271POSM   D2B14912  13.091  10.536  14.663 -0.0011  0.1342  0.0638
 1271POSM   C3B14913  12.749  10.310  14.423  0.0104  0.1897 -0.1713
 1271POSM   C4B14914  12.424  10.029  14.348 -0.3693 -0.1919  0.0647
 1272DOPE   NH314915  15.190   7.467  16.080  0.0944  0.0802  0.0333
 1272DOPE   PO414916  15.293   7.179  15.986  0.3108  0.1491  0.0333
 1272DOPE   GL114917  15.436   6.996  15.784  0.0726  0.1198 -0.0768
 1272DOPE   GL214918  15.262   6.836  15.604  0.0090 -0.0988  0.2100
 1272DOPE   C1A14919  15.710   6.930  15.447 -0.2117 -0.2705  0.3294
 1272DOPE   D2A14920  16.011   6.858  15.151 -0.1720 -0.1594  0.0891
 1272DOPE   C3A14921  15.975   7.073  14.751 -0.1881 -0.1541  0.0737
 1272DOPE   C4A14922  15.719   7.183  14.341  0.2517 -0.1042  0.0511
 1272DOPE   C1B14923  15.166   6.958  15.164 -0.2957 -0.1065 -0.0329
 1272DOPE   D2B14924  15.057   7.380  14.954  0.1008 -0.0167  0.1220
 1272DOPE   C3B14925  14.867   7.237  14.516 -0.2392 -0.1563 -0.2318
 1272DOPE   C4B14926  14.488   7.099  14.259 -0.1366  0.2020  0.2530
 1273DOPC   NC314927  21.821   1.897  15.334 -0.0844  0.0384  0.2590
 1273DOPC   PO414928  21.552   1.634  15.514  0.0847 -0.3280 -0.0425
 1273DOPC   GL114929  21.449   1.538  15.153  0.3526 -0.0868 -0.0111
 1273DOPC   GL214930  21.453   1.731  14.940  0.1120  0.1615  0.0777
 1273DOPC   C1A14931  20.972   1.529  15.041 -0.1312 -0.2090  0.0309
 1273DOPC   D2A14932  20.620   1.335  14.784  0.3590  0.0151  0.1446
 1273DOPC   C3A14933  20.755   0.921  14.760 -0.1307  0.1406  0.1482
 1273DOPC   C4A14934  21.112   0.666  14.712 -0.1738  0.0419 -0.0876
 1273DOPC   C1B14935  21.451   1.749  14.485 -0.1378  0.0671 -0.0444
 1273DOPC   D2B14936  21.186   1.903  14.133  0.0263 -0.1204 -0.2030
 1273DOPC   C3B14937  21.223   2.307  13.930  0.1650  0.0261  0.0636
 1273DOPC   C4B14938  20.953   2.670  13.676 -0.1296  0.1378 -0.4548
 1274DOPC   NC314939  17.766   1.458  15.814  0.0880 -0.3409  0.0539
 1274DOPC   PO414940  17.912   1.155  15.937  0.1121 -0.0730 -0.0099
 1274DOPC   GL114941  18.026   1.093  15.602 -0.1505 -0.4813  0.0499
 1274DOPC   GL214942  17.932   0.867  15.488 -0.0392 -0.1402  0.1753
 1274DOPC   C1A14943  18.267   1.238  15.226  0.3141 -0.0765  0.1498
 1274DOPC   D2A14944  18.182   1.604  14.883 -0.1237  0.2307 -0.0718
 1274DOPC   C3A14945  17.765   1.651  14.765  0.0722  0.3551  0.2608
 1274DOPC   C4A14946  17.441   1.614  14.438 -0.1954 -0.3149  0.0798
 1274DOPC   C1B14947  17.860   0.555  15.106  0.0705 -0.2319  0.0229
 1274DOPC   D2B14948  17.929   0.292  14.769  0.1139  0.2136 -0.3033
 1274DOPC   C3B14949  18.188  -0.006  14.523  0.0130 -0.0122  0.0233
 1274DOPC   C4B14950  18.236  -0.228  14.100 -0.1486  0.2677  0.0456
 1275DOPC   NC314951  14.911   4.938  15.735  0.0683 -0.1046  0.0179
 1275DOPC   PO414952  15.160   4.907  16.012 -0.0852  0.2448  0.0322
 1275DOPC   GL114953  15.400   5.143  15.712 -0.1966 -0.2463 -0.1587
 1275DOPC   GL214954  15.452   4.971  15.534  0.1624 -0.0812  0.2054
 1275DOPC   C1A14955  15.693   5.362  15.468 -0.1309 -0.5675 -0.4503
 1275DOPC   D2A14956  15.729   5.793  15.325  0.0385 -0.2865  0.3114
 1275DOPC   C3A14957  15.884   5.770  14.926 -0.0478  0.0410 -0.1201
 1275DOPC   C4A14958  16.164   5.508  14.649 -0.1313  0.4901 -0.0947
 1275DOPC   C1B14959  15.639   4.830  15.098 -0.3130  0.2551  0.3577
 1275DOPC   D2B14960  15.656   4.668  14.636 -0.1881  0.1056  0.0656
 1275DOPC   C3B14961  15.294   4.751  14.367  0.1726  0.3290  0.0535
 1275DOPC   C4B14962  14.922   4.402  14.246 -0.0819 -0.0816 -0.5130
 1276DOPC   NC314963  21.499   8.118  16.006 -0.1416 -0.1676  0.1423
 1276DOPC   PO414964  21.506   8.490  15.829  0.0014 -0.1301 -0.0181
 1276DOPC   GL114965  21.434   8.478  15.504 -0.1621  0.0830 -0.1255
 1276DOPC   GL214966  21.546   8.185  15.429 -0.0458  0.1983 -0.1233
 1276DOPC   C1A14967  21.452   8.543  15.038 -0.1559  0.0111 -0.1498
 1276DOPC   D2A14968  21.112   8.685  14.803 -0.0404 -0.1916  0.0244
 1276DOPC   C3A14969  20.870   8.784  14.449  0.2051  0.1481  0.1158
 1276DOPC   C4A14970  20.581   8.907  14.081  0.0726 -0.0663 -0.4483
 1276DOPC   C1B14971  21.484   8.069  15.011 -0.1377  0.0602 -0.0770
 1276DOPC   D2B14972  21.701   7.730  14.852  0.2662  0.0695 -0.1332
 1276DOPC   C3B14973  21.431   7.553  14.541 -0.2433 -0.0246 -0.4994
 1276DOPC   C4B14974  21.068   7.533  14.254  0.0237 -0.0321 -0.1305
 1277DOPS   CNO14975  17.003   4.867  16.242  0.1321 -0.2219 -0.3036
 1277DOPS   PO414976  17.353   4.928  16.309 -0.0723  0.2618  0.1522
 1277DOPS   GL114977  17.530   4.996  15.979  0.2981  0.2859 -0.3047
 1277DOPS   GL214978  17.807   4.951  16.015  0.1106  0.2173 -0.0738
 1277DOPS   C1A14979  17.591   4.708  15.646  0.3096  0.0155 -0.0580
 1277DOPS   D2A14980  18.014   4.608  15.484 -0.1531  0.1525 -0.3962
 1277DOPS   C3A14981  18.081   4.920  15.185 -0.1271 -0.2148 -0.3694
 1277DOPS   C4A14982  18.033   5.024  14.768  0.0224 -0.0312 -0.2399
 1277DOPS   C1B14983  17.904   5.099  15.600  0.0757  0.0669  0.2657
 1277DOPS   D2B14984  17.856   5.402  15.257 -0.2818 -0.1224  0.1308
 1277DOPS   C3B14985  17.701   5.542  14.811  0.0289 -0.0515 -0.1167
 1277DOPS   C4B14986  17.426   5.605  14.440 -0.1075  0.0574  0.1620
 1278DOPC   NC314987  18.745   3.390  15.968  0.1113 -0.2482  0.0263
 1278DOPC   PO414988  18.512   3.576  16.248 -0.0454  0.0082  0.0692
 1278DOPC   GL114989  18.397   3.731  15.856 -0.1670  0.2884  0.0638
 1278DOPC   GL214990  18.218   3.780  15.789 -0.1254  0.0313  0.1468
 1278DOPC   C1A14991  18.496   3.464  15.483 -0.0773 -0.0902 -0.2207
 1278DOPC   D2A14992  18.221   3.276  15.111 -0.0962  0.2711 -0.0407
 1278DOPC   C3A14993  18.512   3.175  14.688 -0.1119  0.0880  0.2429
 1278DOPC   C4A14994  18.817   2.806  14.509  0.0088 -0.2325 -0.2336
 1278DOPC   C1B14995  18.009   4.111  15.511 -0.2987 -0.0085  0.0682
 1278DOPC   D2B14996  18.036   4.239  15.059  0.0500  0.4085 -0.3483
 1278DOPC   C3B14997  17.843   4.537  14.819 -0.0342 -0.2206 -0.0426
 1278DOPC   C4B14998  17.715   4.657  14.365 -0.0776 -0.1283 -0.3999
 1279DOPS   CNO14999  19.041   7.756  16.184  0.6122  0.1504  0.3192
 1279DOPS   PO415000  19.265   7.500  16.033 -0.1132 -0.1395  0.0028
 1279DOPS   GL115001  19.259   7.351  15.559  0.0471 -0.2555  0.0237
 1279DOPS   GL215002  19.056   7.286  15.327  0.2973  0.1105  0.0939
 1279DOPS   C1A15003  19.436   7.687  15.324  0.0690 -0.0764  0.0402
 1279DOPS   D2A15004  19.620   7.988  15.115 -0.0490 -0.1608 -0.2813
 1279DOPS   C3A15005  19.475   8.033  14.687 -0.2230  0.3439 -0.1832
 1279DOPS   C4A15006  19.591   7.846  14.323  0.2677 -0.0673  0.0684
 1279DOPS   C1B15007  18.840   7.570  15.095 -0.1212  0.0523  0.3273
 1279DOPS   D2B15008  18.684   7.621  14.655  0.0154 -0.0924 -0.1498
 1279DOPS   C3B15009  18.422   7.768  14.286 -0.0628  0.3289 -0.0580
 1279DOPS   C4B15010  18.446   7.839  13.785  0.0134 -0.1336 -0.1620
 1280POSM   NC315011  22.874   0.917  15.626  0.1514  0.1110 -0.0824
 1280POSM   PO415012  23.133   0.611  15.724  0.2959 -0.1390 -0.1062
 1280POSM   AM115013  23.173   0.681  15.404  0.2884  0.1043 -0.1252
 1280POSM   AM215014  22.996   0.693  15.218  0.2711 -0.0826 -0.1017
 1280POSM   T1A15015  23.405   0.486  14.992 -0.0264 -0.1002  0.0523
 1280POSM   C2A15016  23.676   0.582  14.581  0.2255  0.4630  0.0257
 1280POSM   C3A15017  24.060   0.755  14.353  0.1374 -0.0167 -0.0395
 1280POSM   C1B15018  22.932   0.399  15.000 -0.0372 -0.0882 -0.0211
 1280POSM   D2B15019  22.801   0.026  14.770 -0.0440 -0.1214 -0.0316
 1280POSM   C3B15020  22.780  -0.263  14.377 -0.0410  0.0763 -0.0523
 1280POSM   C4B15021  22.515  -0.467  14.140  0.1672 -0.0214  0.0063
 1281DOPS   CNO15022  15.959   5.172  16.426 -0.1020 -0.2636  0.1979
 1281DOPS   PO415023  15.922   4.793  16.403 -0.1367 -0.3494  0.2439
 1281DOPS   GL115024  16.077   4.955  16.064  0.0659  0.1862 -0.0177
 1281DOPS   GL215025  16.180   4.822  15.825  0.1887 -0.0751 -0.0116
 1281DOPS   C1A15026  16.115   5.261  15.682 -0.1002 -0.3248  0.3641
 1281DOPS   D2A15027  16.134   5.493  15.275  0.3821  0.2175 -0.0343
 1281DOPS   C3A15028  15.889   5.208  14.983  0.1353  0.2884  0.1850
 1281DOPS   C4A15029  15.499   5.112  14.719  0.0467 -0.0130 -0.1701
 1281DOPS   C1B15030  16.136   4.917  15.357  0.0808 -0.0121  0.0333
 1281DOPS   D2B15031  16.289   4.885  14.887 -0.0333  0.2938 -0.0848
 1281DOPS   C3B15032  15.963   5.040  14.510 -0.0117 -0.0065  0.0706
 1281DOPS   C4B15033  15.668   5.196  14.185 -0.2856 -0.1316 -0.3094
 1282DOPS   CNO15034  12.043   2.947  15.181 -0.3106  0.5291 -0.0468
 1282DOPS   PO415035  12.098   2.698  14.922  0.2466  0.0986  0.0660
 1282DOPS   GL115036  12.097   2.521  14.642 -0.3874  0.0630 -0.2249
 1282DOPS   GL215037  12.341   2.472  14.454  0.1547  0.1751 -0.0878
 1282DOPS   C1A15038  11.853   2.439  14.267  0.2452  0.1165  0.2049
 1282DOPS   D2A15039  11.805   2.453  13.838 -0.0408  0.0743  0.1279
 1282DOPS   C3A15040  11.923   2.770  13.526 -0.3423 -0.0574  0.0414
 1282DOPS   C4A15041  11.843   3.203  13.396  0.2511 -0.0376  0.0431
 1282DOPS   C1B15042  12.199   2.815  14.215 -0.0469 -0.0243  0.0896
 1282DOPS   D2B15043  12.009   3.145  13.913 -0.1087 -0.1860  0.1645
 1282DOPS   C3B15044  12.179   3.488  13.642  0.1211 -0.3979 -0.0664
 1282DOPS   C4B15045  12.434   3.887  13.630 -0.1578 -0.0255 -0.0918
 1283DOPE   NH315046  14.923   4.187  15.789 -0.1985 -0.3475  0.2010
 1283DOPE   PO415047  15.130   4.479  15.725  0.0317  0.0922 -0.2484
 1283DOPE   GL115048  15.217   4.559  15.302 -0.1825  0.0946  0.0147
 1283DOPE   GL215049  14.938   4.651  15.297  0.0728 -0.2182  0.2855
 1283DOPE   C1A15050  15.185   4.415  14.815 -0.3188  0.1398  0.0663
 1283DOPE   D2A15051  14.932   4.080  14.656 -0.1555 -0.1320  0.1660
 1283DOPE   C3A15052  14.654   3.983  14.955 -0.1937  0.2687 -0.0325
 1283DOPE   C4A15053  14.282   4.165  15.132 -0.6466  0.1190 -0.0472
 1283DOPE   C1B15054  14.674   4.491  14.900 -0.1890  0.1937 -0.0158
 1283DOPE   D2B15055  14.292   4.384  14.580 -0.1222 -0.1901 -0.0619
 1283DOPE   C3B15056  14.456   4.153  14.276  0.0781 -0.1881  0.1509
 1283DOPE   C4B15057  14.439   4.006  13.833 -0.2843  0.1477  0.1220
 1284DOPE   NH315058  19.627   0.103  15.420  0.1481 -0.1504 -0.1051
 1284DOPE   PO415059  19.862   0.145  15.589  0.0464 -0.1831 -0.5132
 1284DOPE   GL115060  20.146   0.357  15.420 -0.2852  0.5884  0.0293
 1284DOPE   GL215061  20.363   0.543  15.517  0.0294  0.1890  0.0310
 1284DOPE   C1A15062  20.061   0.499  14.990 -0.2540  0.0790 -0.2261
 1284DOPE   D2A15063  20.239   0.593  14.575  0.2084 -0.0788 -0.0896
 1284DOPE   C3A15064  20.125   0.570  14.106 -0.2687  0.0541 -0.2693
 1284DOPE   C4A15065  20.150   0.777  13.668  0.1381  0.0624 -0.1922
 1284DOPE   C1B15066  20.596   0.900  15.289 -0.1803 -0.0190 -0.2058
 1284DOPE   D2B15067  20.618   1.374  15.451  0.1655  0.0802 -0.1544
 1284DOPE   C3B15068  20.598   1.788  15.217 -0.1612 -0.0967 -0.1815
 1284DOPE   C4B15069  20.589   1.967  14.811 -0.2497 -0.2041  0.0225
 1285DOPE   NH315070  18.826   9.343  15.820 -0.1117 -0.1205  0.3289
 1285DOPE   PO415071  18.536   9.343  15.670 -0.0811 -0.3331  0.0815
 1285DOPE   GL115072  18.663   9.690  15.330  0.3065  0.1869 -0.0579
 1285DOPE   GL215073  18.666   9.461  15.212 -0.0945 -0.0079 -0.2779
 1285DOPE   C1A15074  18.576  10.033  15.081 -0.1220  0.0412 -0.5763
 1285DOPE   D2A15075  18.709  10.023  14.648 -0.1033  0.1921 -0.4152
 1285DOPE   C3A15076  19.164  10.014  14.467  0.2748  0.0229 -0.0999
 1285DOPE   C4A15077  19.598   9.775  14.495  0.1889  0.2798  0.0612
 1285DOPE   C1B15078  18.589   9.510  14.745  0.0919  0.0228  0.0381
 1285DOPE   D2B15079  18.602   9.562  14.312 -0.3181 -0.0405 -0.0586
 1285DOPE   C3B15080  18.220   9.515  14.186 -0.1721 -0.1468 -0.0494
 1285DOPE   C4B15081  17.807   9.606  14.074  0.1145  0.1562 -0.0493
 1286DOPC   NC315082  15.003   6.899  16.532  0.3206 -0.0874 -0.0018
 1286DOPC   PO415083  15.420   6.934  16.554  0.1234 -0.2284  0.2867
 1286DOPC   GL115084  15.724   6.862  16.317 -0.2145 -0.1326  0.3456
 1286DOPC   GL215085  15.738   6.716  16.006  0.1391  0.2091  0.4053
 1286DOPC   C1A15086  16.167   6.618  16.223 -0.2819  0.1489 -0.1225
 1286DOPC   D2A15087  16.490   6.430  15.969 -0.0497  0.1223 -0.2276
 1286DOPC   C3A15088  16.170   6.170  15.702 -0.2212 -0.3518 -0.1292
 1286DOPC   C4A15089  16.186   5.977  15.273 -0.0653  0.1268 -0.2576
 1286DOPC   C1B15090  16.072   6.795  15.740 -0.1358 -0.1225  0.2900
 1286DOPC   D2B15091  16.342   7.162  15.524 -0.0307 -0.4332 -0.3127
 1286DOPC   C3B15092  16.479   6.976  15.094 -0.0179  0.1128 -0.1659
 1286DOPC   C4B15093  16.435   6.861  14.651 -0.1915 -0.0024 -0.2224
 1287DOPC   NC315094  22.088   4.191  15.178  0.5367  0.2484  0.2019
 1287DOPC   PO415095  22.152   4.120  15.561  0.2715 -0.0012  0.0192
 1287DOPC   GL115096  22.512   3.987  15.349 -0.0155 -0.6631  0.4036
 1287DOPC   GL215097  22.724   4.095  15.414  0.3373  0.0677  0.0366
 1287DOPC   C1A15098  22.631   4.133  14.943  0.0806 -0.0717  0.2221
 1287DOPC   D2A15099  22.710   4.201  14.511  0.0578  0.3572 -0.2068
 1287DOPC   C3A15100  22.444   4.002  14.141 -0.1155  0.3771 -0.3737
 1287DOPC   C4A15101  22.031   3.860  13.965  0.3088 -0.0438  0.1510
 1287DOPC   C1B15102  22.924   3.754  15.150  0.0998 -0.0399 -0.1565
 1287DOPC   D2B15103  23.371   3.605  15.065  0.0706 -0.3311 -0.1488
 1287DOPC   C3B15104  23.548   3.227  14.844 -0.0483 -0.1112 -0.0218
 1287DOPC   C4B15105  23.753   3.216  14.440 -0.2056  0.0042  0.1135
 1288POSM   NC315106  14.585   4.962  16.216 -0.3029  0.0401 -0.0714
 1288POSM   PO415107  14.735   5.284  16.085  0.1637  0.1409  0.1320
 1288POSM   AM115108  14.856   5.394  15.824 -0.4610  0.1240  0.1182
 1288POSM   AM215109  14.769   5.438  15.597 -0.0888  0.0178 -0.1620
 1288POSM   T1A15110  15.265   5.559  15.573  0.3240  0.3006 -0.1043
 1288POSM   C2A15111  15.619   5.726  15.825  0.0276  0.1148  0.0070
 1288POSM   C3A15112  16.052   5.730  15.818  0.4883  0.2693  0.1080
 1288POSM   C1B15113  14.879   5.277  15.339  0.0459  0.3087  0.1540
 1288POSM   D2B15114  15.169   5.034  15.115 -0.2489  0.0803  0.0345
 1288POSM   C3B15115  14.962   4.860  14.745  0.1293  0.1880 -0.0293
 1288POSM   C4B15116  14.670   4.764  14.436 -0.0496 -0.3903  0.1787
 1289POSM   NC315117  13.660  10.014  16.197  0.0812  0.3479  0.1179
 1289POSM   PO415118  13.952   9.997  15.945  0.1469 -0.1852 -0.0242
 1289POSM   AM115119  14.061  10.083  15.624  0.3145  0.1430 -0.0650
 1289POSM   AM215120  14.167  10.280  15.473 -0.0756 -0.3295 -0.0626
 1289POSM   T1A15121  14.060   9.924  15.164  0.0348  0.2390  0.1471
 1289POSM   C2A15122  13.999   9.565  14.836  0.1793 -0.1728 -0.2905
 1289POSM   C3A15123  14.142   9.194  14.538 -0.1331  0.0509 -0.1863
 1289POSM   C1B15124  13.857  10.398  15.284 -0.3345  0.3904  0.1432
 1289POSM   D2B15125  13.537  10.380  14.985 -0.2102 -0.1327  0.0139
 1289POSM   C3B15126  13.502  10.382  14.575 -0.1177  0.2381 -0.0413
 1289POSM   C4B15127  13.272  10.443  14.192  0.0524 -0.1534 -0.1363
 1290DOPE   NH315128  13.270   2.801  15.364 -0.1282  0.1363 -0.1720
 1290DOPE   PO415129  13.529   2.645  15.285  0.2531  0.2543  0.3864
 1290DOPE   GL115130  13.653   2.777  14.922 -0.1679  0.2897 -0.1774
 1290DOPE   GL215131  13.764   2.739  14.645 -0.0700  0.0371  0.2195
 1290DOPE   C1A15132  13.935   3.186  14.786 -0.1193  0.2304 -0.0505
 1290DOPE   D2A15133  14.213   3.224  14.412  0.0849  0.0792 -0.0356
 1290DOPE   C3A15134  14.383   3.174  14.013 -0.0886 -0.1402  0.0910
 1290DOPE   C4A15135  14.685   3.271  13.702  0.3068 -0.0240  0.3765
 1290DOPE   C1B15136  13.819   2.829  14.236  0.0035 -0.1778 -0.2211
 1290DOPE   D2B15137  13.887   3.207  14.000  0.1443  0.1885 -0.0109
 1290DOPE   C3B15138  14.128   3.620  13.848 -0.0961 -0.1669  0.1207
 1290DOPE   C4B15139  14.191   3.828  13.437 -0.0598 -0.1454 -0.1017
 1291DOPE   NH315140  12.470   3.206  15.306 -0.0739 -0.1279  0.1592
 1291DOPE   PO415141  12.665   3.144  15.065 -0.0166  0.1454 -0.0294
 1291DOPE   GL115142  12.797   3.281  14.763 -0.0014 -0.1741 -0.0281
 1291DOPE   GL215143  12.776   3.089  14.549 -0.1672 -0.3155 -0.1260
 1291DOPE   C1A15144  12.993   3.692  14.840  0.1426  0.0700  0.2154
 1291DOPE   D2A15145  13.318   4.077  14.840  0.0911  0.0760  0.0904
 1291DOPE   C3A15146  13.604   4.058  14.459 -0.1358  0.2251 -0.1863
 1291DOPE   C4A15147  13.923   4.328  14.242 -0.0928 -0.0615 -0.0416
 1291DOPE   C1B15148  13.059   3.342  14.254  0.0542 -0.2285 -0.2314
 1291DOPE   D2B15149  13.398   3.654  14.249 -0.0662  0.0709  0.0950
 1291DOPE   C3B15150  13.630   3.656  13.854  0.0107  0.1528 -0.1462
 1291DOPE   C4B15151  13.643   3.520  13.410  0.1346 -0.2297  0.1271
 1292DOPE   NH315152  16.813  11.363  15.780  0.1977 -0.0333  0.0498
 1292DOPE   PO415153  16.646  11.442  15.505 -0.0043 -0.1304 -0.1443
 1292DOPE   GL115154  16.714  11.657  15.177 -0.3079  0.0119 -0.0281
 1292DOPE   GL215155  16.539  11.886  15.232 -0.0200 -0.0688  0.1506
 1292DOPE   C1A15156  16.622  11.570  14.711  0.1439  0.0577 -0.1174
 1292DOPE   D2A15157  16.261  11.561  14.335 -0.3840 -0.0806  0.1419
 1292DOPE   C3A15158  16.005  11.849  14.218  0.0031  0.1214  0.0649
 1292DOPE   C4A15159  16.012  11.961  13.755  0.0504  0.0527 -0.1970
 1292DOPE   C1B15160  16.587  12.055  14.815 -0.0179  0.3032 -0.2462
 1292DOPE   D2B15161  16.374  12.205  14.433  0.0548 -0.1404  0.0335
 1292DOPE   C3B15162  16.190  12.582  14.391 -0.0784  0.0816 -0.0253
 1292DOPE   C4B15163  15.818  12.753  14.209  0.2002 -0.0093  0.0349
 1293DOPC   NC315164  12.108   1.073  15.406 -0.0873  0.0640 -0.2004
 1293DOPC   PO415165  12.473   1.112  15.261  0.3930  0.2045 -0.0779
 1293DOPC   GL115166  12.333   0.899  14.930 -0.0814 -0.1363  0.2592
 1293DOPC   GL215167  11.972   0.897  14.957  0.0440  0.0356 -0.0984
 1293DOPC   C1A15168  12.153   1.115  14.538  0.1168  0.1327 -0.0380
 1293DOPC   D2A15169  12.036   1.015  14.129 -0.0114  0.0907 -0.1108
 1293DOPC   C3A15170  11.975   1.374  13.857 -0.2945  0.3661 -0.0187
 1293DOPC   C4A15171  12.317   1.462  13.574  0.0144  0.1169  0.0918
 1293DOPC   C1B15172  12.002   0.641  14.558  0.1596 -0.2550 -0.0167
 1293DOPC   D2B15173  12.117   0.487  14.128 -0.1970  0.1297  0.0890
 1293DOPC   C3B15174  11.856   0.147  13.961  0.1513 -0.0832 -0.1159
 1293DOPC   C4B15175  11.500  -0.192  13.954 -0.1885 -0.0878 -0.2405
 1294DOPC   NC315176  12.553   5.736  15.641 -0.1524 -0.3024  0.0303
 1294DOPC   PO415177  12.311   5.939  15.379  0.1850 -0.0518  0.2939
 1294DOPC   GL115178  12.152   5.919  15.000  0.1062  0.3663 -0.0743
 1294DOPC   GL215179  12.192   6.248  14.960 -0.1035 -0.1295 -0.3130
 1294DOPC   C1A15180  12.174   5.697  14.597  0.0436  0.2463  0.0466
 1294DOPC   D2A15181  12.428   5.480  14.260 -0.2133 -0.4852 -0.2258
 1294DOPC   C3A15182  12.287   5.638  13.807 -0.1759 -0.1345 -0.0445
 1294DOPC   C4A15183  11.870   5.762  13.531 -0.0947 -0.0568 -0.0070
 1294DOPC   C1B15184  12.509   6.014  14.736 -0.0063 -0.1575 -0.1907
 1294DOPC   D2B15185  12.928   6.179  14.619  0.2151  0.3543  0.1288
 1294DOPC   C3B15186  12.829   6.324  14.225 -0.1140 -0.2727 -0.0269
 1294DOPC   C4B15187  13.058   6.490  13.881 -0.1019  0.3293  0.2213
 1295POSM   NC315188  16.069   1.858  15.913  0.0775  0.0783  0.5926
 1295POSM   PO415189  15.955   2.131  15.650  0.2381  0.0485 -0.1612
 1295POSM   AM115190  16.213   1.964  15.488  0.0874 -0.4924 -0.1297
 1295POSM   AM215191  16.390   1.716  15.524 -0.2346 -0.1193  0.1950
 1295POSM   T1A15192  16.457   2.001  15.030  0.1595 -0.4590 -0.1569
 1295POSM   C2A15193  16.390   2.210  14.551  0.2875  0.3250 -0.1315
 1295POSM   C3A15194  16.272   2.535  14.282 -0.1545 -0.1754  0.0452
 1295POSM   C1B15195  16.704   1.855  15.423 -0.0703 -0.0361  0.1480
 1295POSM   D2B15196  16.976   2.120  15.175  0.1337  0.1501  0.0350
 1295POSM   C3B15197  16.705   2.410  14.988  0.2363 -0.2265 -0.1327
 1295POSM   C4B15198  16.395   2.715  14.861  0.0759  0.1382 -0.4051
 1296DOPC   NC315199  14.036  11.434  15.803  0.0750  0.2284  0.1129
 1296DOPC   PO415200  13.966  11.503  15.440 -0.1679 -0.1517  0.2092
 1296DOPC   GL115201  13.926  11.567  15.037 -0.2400 -0.1901 -0.2179
 1296DOPC   GL215202  14.114  11.568  14.913  0.1426 -0.0794 -0.1556
 1296DOPC   C1A15203  13.666  11.414  14.708 -0.0816 -0.4115  0.0628
 1296DOPC   D2A15204  13.541  11.437  14.283 -0.0865  0.0389 -0.1368
 1296DOPC   C3A15205  13.623  11.875  14.086 -0.0554  0.1658  0.2063
 1296DOPC   C4A15206  13.882  12.255  14.192 -0.0059 -0.1279 -0.2894
 1296DOPC   C1B15207  14.136  11.130  14.776  0.1797 -0.2089 -0.1503
 1296DOPC   D2B15208  14.004  10.738  14.536 -0.2654 -0.1826 -0.2315
 1296DOPC   C3B15209  14.072  10.619  14.125 -0.4665 -0.4743  0.3562
 1296DOPC   C4B15210  14.341  10.381  13.812 -0.4610  0.1966 -0.2511
 1297DOPE   NH315211  19.273   1.159  16.294  0.1029 -0.0144  0.0284
 1297DOPE   PO415212  19.522   1.263  16.083  0.1176 -0.2634  0.1602
 1297DOPE   GL115213  19.543   1.414  15.692  0.0335  0.0921  0.0872
 1297DOPE   GL215214  19.585   1.728  15.626  0.1511  0.0214 -0.2344
 1297DOPE   C1A15215  19.724   1.341  15.301 -0.1604  0.1771  0.2086
 1297DOPE   D2A15216  19.773   1.401  14.893 -0.0735 -0.0504  0.0592
 1297DOPE   C3A15217  19.896   1.126  14.506  0.0145 -0.4748  0.2931
 1297DOPE   C4A15218  20.081   1.021  14.079  0.1480  0.1250 -0.0823
 1297DOPE   C1B15219  19.575   1.842  15.141  0.0618  0.3695  0.0091
 1297DOPE   D2B15220  19.658   1.974  14.709  0.0165 -0.2318 -0.2549
 1297DOPE   C3B15221  19.529   1.932  14.200  0.3559  0.0231  0.0807
 1297DOPE   C4B15222  19.309   1.825  13.786  0.2666  0.2899  0.0538
 1298DOPC   NC315223  14.427   7.204  16.008 -0.0850  0.5705 -0.0991
 1298DOPC   PO415224  14.783   7.208  16.187 -0.0327 -0.1076 -0.2118
 1298DOPC   GL115225  14.855   7.146  15.821  0.3447 -0.0681  0.1502
 1298DOPC   GL215226  15.032   7.346  15.610  0.1330 -0.0138  0.0869
 1298DOPC   C1A15227  14.705   7.006  15.392 -0.0114 -0.2157 -0.1151
 1298DOPC   D2A15228  14.418   6.701  15.187 -0.0419  0.0436  0.2023
 1298DOPC   C3A15229  14.050   6.697  14.963 -0.1585 -0.2139  0.1336
 1298DOPC   C4A15230  13.641   6.757  14.899  0.0386 -0.2701  0.1932
 1298DOPC   C1B15231  15.394   7.328  15.364  0.0170  0.0822  0.1861
 1298DOPC   D2B15232  15.548   7.178  14.900  0.0378  0.0947  0.0884
 1298DOPC   C3B15233  15.193   6.918  14.665  0.1270  0.1091  0.3977
 1298DOPC   C4B15234  14.774   6.806  14.881  0.1491 -0.1557  0.3433
 1299DOPE   NH315235  12.343   8.432  15.979  0.0185  0.1356  0.0956
 1299DOPE   PO415236  12.146   8.667  16.059 -0.1731  0.0318  0.1597
 1299DOPE   GL115237  11.998   8.756  15.775  0.1671 -0.1943  0.0171
 1299DOPE   GL215238  11.923   8.953  15.696 -0.4679 -0.5042 -0.4131
 1299DOPE   C1A15239  12.217   8.582  15.415  0.2492  0.1979  0.1336
 1299DOPE   D2A15240  12.165   8.398  15.013 -0.0082  0.1570  0.1760
 1299DOPE   C3A15241  12.112   8.635  14.617 -0.0828 -0.2389 -0.1682
 1299DOPE   C4A15242  11.984   8.925  14.334 -0.1410  0.0990 -0.2138
 1299DOPE   C1B15243  11.942   9.331  15.487 -0.1406 -0.1640  0.1264
 1299DOPE   D2B15244  11.952   9.736  15.262 -0.0910 -0.0606  0.3034
 1299DOPE   C3B15245  11.660   9.768  14.902  0.0246 -0.1410 -0.2031
 1299DOPE   C4B15246  11.514   9.861  14.489  0.0216 -0.1761  0.0227
 1300DOPE   NH315247  20.390  34.618  15.550  0.2482 -0.2089  0.1163
 1300DOPE   PO415248  20.601  34.824  15.737 -0.0778  0.1688  0.2103
 1300DOPE   GL115249  20.721  34.897  15.381 -0.2619  0.0311 -0.0430
 1300DOPE   GL215250  20.847  35.215  15.456 -0.0659  0.0495  0.3084
 1300DOPE   C1A15251  21.082  34.951  15.128  0.0538  0.1702  0.2915
 1300DOPE   D2A15252  21.340  34.800  14.798 -0.1466  0.1216  0.3145
 1300DOPE   C3A15253  21.203  34.936  14.356 -0.1475 -0.1194 -0.0609
 1300DOPE   C4A15254  20.906  34.904  13.942 -0.1266  0.1634 -0.1912
 1300DOPE   C1B15255  20.614  35.191  14.995 -0.5080  0.1519  0.0379
 1300DOPE   D2B15256  20.754  35.097  14.572  0.4527 -0.0457 -0.1392
 1300DOPE   C3B15257  20.587  35.070  14.242 -0.1993 -0.0955 -0.0893
 1300DOPE   C4B15258  20.372  34.844  13.918 -0.1940 -0.0178 -0.2302
 1301DOPC   NC315259  14.771   2.222  15.514  0.0084 -0.0660  0.1262
 1301DOPC   PO415260  14.540   2.527  15.375  0.1211  0.0770 -0.1443
 1301DOPC   GL115261  14.608   2.740  15.026  0.1974 -0.0816 -0.1443
 1301DOPC   GL215262  14.439   3.002  15.158  0.1586  0.1817  0.2224
 1301DOPC   C1A15263  14.892   2.650  14.680  0.0022  0.1467  0.1303
 1301DOPC   D2A15264  15.076   2.451  14.329 -0.1809  0.0589 -0.0933
 1301DOPC   C3A15265  15.103   2.471  13.858 -0.1507 -0.0276  0.1712
 1301DOPC   C4A15266  14.884   2.716  13.501 -0.1493 -0.0392 -0.1891
 1301DOPC   C1B15267  14.532   3.220  14.786 -0.0206 -0.2091  0.3014
 1301DOPC   D2B15268  14.325   3.637  14.633 -0.1118  0.0562  0.3231
 1301DOPC   C3B15269  14.507   3.673  14.227 -0.2639  0.1280 -0.1239
 1301DOPC   C4B15270  14.860   3.803  13.954 -0.1951 -0.0829 -0.1894
 1302DOPC   NC315271  15.648   4.756  16.003  0.0800 -0.2996 -0.1706
 1302DOPC   PO415272  15.884   4.424  15.923 -0.0653  0.1193  0.1196
 1302DOPC   GL115273  15.904   4.569  15.587 -0.2522 -0.1421  0.1296
 1302DOPC   GL215274  15.649   4.526  15.498 -0.1557 -0.0033  0.0364
 1302DOPC   C1A15275  16.047   4.447  15.145 -0.3949 -0.2774  0.5265
 1302DOPC   D2A15276  15.995   4.269  14.704  0.1862 -0.0047  0.2044
 1302DOPC   C3A15277  15.877   3.893  14.448  0.0805  0.3192  0.4122
 1302DOPC   C4A15278  16.046   3.604  14.105  0.0090 -0.2069 -0.0096
 1302DOPC   C1B15279  15.550   4.198  15.146 -0.1680  0.1457  0.0844
 1302DOPC   D2B15280  15.487   4.088  14.729 -0.2966 -0.1873  0.0829
 1302DOPC   C3B15281  15.368   4.073  14.284 -0.0704  0.2072  0.1030
 1302DOPC   C4B15282  15.604   4.235  13.905 -0.3635 -0.1639 -0.1439
 1303DOPC   NC315283  22.853   9.054  16.291 -0.3219 -0.0978 -0.2895
 1303DOPC   PO415284  22.707   8.975  15.955 -0.2168  0.1254  0.1210
 1303DOPC   GL115285  22.822   8.935  15.536 -0.3139 -0.0085 -0.2166
 1303DOPC   GL215286  23.062   8.963  15.420 -0.0456  0.2313 -0.1181
 1303DOPC   C1A15287  22.621   8.810  15.180 -0.1308  0.1405 -0.0341
 1303DOPC   D2A15288  22.394   8.584  14.784  0.2482  0.0142 -0.2008
 1303DOPC   C3A15289  22.416   8.228  14.512 -0.2843 -0.0388 -0.0024
 1303DOPC   C4A15290  22.592   8.182  14.095  0.1957 -0.0843  0.3511
 1303DOPC   C1B15291  23.103   8.845  14.976  0.3490  0.0079 -0.0441
 1303DOPC   D2B15292  22.805   8.773  14.594 -0.1042  0.3368  0.2012
 1303DOPC   C3B15293  22.880   9.025  14.169 -0.1222  0.2010 -0.1468
 1303DOPC   C4B15294  23.137   9.279  13.846  0.4866  0.2865  0.2672
 1304DOPC   NC315295  12.177   1.433  15.068 -0.0633 -0.1459 -0.0365
 1304DOPC   PO415296  11.790   1.393  15.058  0.0527 -0.2107 -0.0593
 1304DOPC   GL115297  11.732   1.234  14.746  0.2632  0.4072  0.0370
 1304DOPC   GL215298  11.450   1.399  14.652 -0.1077  0.0104 -0.2327
 1304DOPC   C1A15299  11.756   1.406  14.317 -0.0456  0.0694 -0.1116
 1304DOPC   D2A15300  11.527   1.526  13.961 -0.2568 -0.1303 -0.3407
 1304DOPC   C3A15301  11.496   1.195  13.556  0.1632  0.0077 -0.2839
 1304DOPC   C4A15302  11.193   0.988  13.329 -0.2323  0.2176 -0.0705
 1304DOPC   C1B15303  11.140   1.369  14.322  0.0574 -0.1050  0.0542
 1304DOPC   D2B15304  10.911   1.326  13.949 -0.0806  0.1981  0.0781
 1304DOPC   C3B15305  10.443   1.325  14.026  0.0110  0.3475  0.1984
 1304DOPC   C4B15306  10.038   1.265  14.171  0.0098 -0.1511 -0.5445
 1305DOPC   NC315307  17.546   3.574  16.565  0.2342 -0.1252  0.0913
 1305DOPC   PO415308  17.665   3.212  16.479  0.0989  0.1821 -0.3399
 1305DOPC   GL115309  17.798   3.218  16.129  0.1432  0.0597 -0.0114
 1305DOPC   GL215310  17.896   2.941  16.146 -0.1900  0.3583  0.0636
 1305DOPC   C1A15311  17.541   3.296  15.759 -0.3238  0.4166  0.1939
 1305DOPC   D2A15312  17.580   3.493  15.331 -0.0399 -0.2639  0.1100
 1305DOPC   C3A15313  17.752   3.442  14.882  0.0956  0.0773  0.2037
 1305DOPC   C4A15314  17.725   3.130  14.574 -0.0981 -0.0882  0.2022
 1305DOPC   C1B15315  17.722   2.768  15.651 -0.3623 -0.1106 -0.0980
 1305DOPC   D2B15316  17.339   2.640  15.339 -0.2173 -0.4549  0.0185
 1305DOPC   C3B15317  17.207   2.508  14.896 -0.1549  0.1058 -0.0101
 1305DOPC   C4B15318  16.984   2.146  14.650 -0.0499  0.3300 -0.1008
 1306DOPE   NH315319  21.315   6.487  16.554  0.1028  0.1203 -0.1072
 1306DOPE   PO415320  21.552   6.654  16.436 -0.0107  0.0995  0.1477
 1306DOPE   GL115321  21.555   6.618  16.040  0.1608  0.1835 -0.0664
 1306DOPE   GL215322  21.457   6.842  15.900 -0.0001  0.1585 -0.2088
 1306DOPE   C1A15323  21.865   6.612  15.677  0.0229  0.1519  0.0919
 1306DOPE   D2A15324  21.989   6.497  15.214 -0.3927 -0.0058 -0.0137
 1306DOPE   C3A15325  21.886   6.921  14.982  0.1413 -0.0891 -0.2073
 1306DOPE   C4A15326  22.022   7.327  14.958 -0.1291  0.0047 -0.0677
 1306DOPE   C1B15327  21.126   6.834  15.616  0.1792 -0.2628  0.1576
 1306DOPE   D2B15328  20.935   6.615  15.266 -0.1234  0.0137 -0.2001
 1306DOPE   C3B15329  20.473   6.636  15.327  0.0274 -0.2619  0.2104
 1306DOPE   C4B15330  20.203   6.955  15.166 -0.1041 -0.0845  0.0388
 1307DOPE   NH315331  19.933   5.754  16.252  0.1756  0.1610  0.2899
 1307DOPE   PO415332  20.015   6.076  16.229 -0.4096  0.1162 -0.2569
 1307DOPE   GL115333  20.351   6.291  16.027  0.0715 -0.1234 -0.1607
 1307DOPE   GL215334  20.182   6.368  15.824  0.0769 -0.0209  0.1750
 1307DOPE   C1A15335  20.764   6.277  15.790  0.0585  0.0410 -0.2222
 1307DOPE   D2A15336  20.852   6.070  15.366 -0.2924 -0.0623 -0.1773
 1307DOPE   C3A15337  20.713   6.212  14.923  0.0425  0.0110 -0.0420
 1307DOPE   C4A15338  20.624   6.142  14.468 -0.0944  0.1794 -0.2700
 1307DOPE   C1B15339  19.921   6.346  15.451  0.0008 -0.2607 -0.2102
 1307DOPE   D2B15340  19.647   6.521  15.210 -0.1468 -0.1109 -0.0032
 1307DOPE   C3B15341  19.819   6.455  14.775  0.2004 -0.3595 -0.3232
 1307DOPE   C4B15342  20.085   6.205  14.501 -0.1741 -0.0060  0.1526
 1308POSM   NC315343  15.966   9.293  15.560  0.2320  0.3304  0.0106
 1308POSM   PO415344  16.327   9.117  15.521  0.1658 -0.4956  0.1160
 1308POSM   AM115345  16.558   9.067  15.305 -0.1490 -0.0160 -0.1523
 1308POSM   AM215346  16.770   9.197  15.121  0.3125 -0.1557  0.1408
 1308POSM   T1A15347  16.857   8.742  15.045 -0.0088  0.0695 -0.1320
 1308POSM   C2A15348  17.061   8.392  14.794 -0.1336 -0.0803  0.2902
 1308POSM   C3A15349  17.183   8.003  14.699  0.0532  0.0164 -0.2371
 1308POSM   C1B15350  16.839   9.273  14.816 -0.1565  0.0113 -0.3825
 1308POSM   D2B15351  17.116   9.254  14.447 -0.3957  0.1246 -0.1141
 1308POSM   C3B15352  17.042   9.129  13.971  0.2118  0.2483  0.0164
 1308POSM   C4B15353  17.347   9.180  13.660  0.0360  0.1890  0.0789
 1309DOPC   NC315354  18.697  34.526  16.321  0.0427  0.2440 -0.2161
 1309DOPC   PO415355  18.556  34.764  16.051  0.4223  0.1273  0.0922
 1309DOPC   GL115356  18.452  34.751  15.627 -0.0416 -0.0792  0.2453
 1309DOPC   GL215357  18.706  34.529  15.449 -0.0030 -0.0896 -0.3348
 1309DOPC   C1A15358  18.720  35.039  15.326  0.1710  0.0710 -0.0525
 1309DOPC   D2A15359  18.812  35.079  14.871  0.1916 -0.0273  0.0705
 1309DOPC   C3A15360  18.659  34.748  14.529 -0.1836 -0.1659  0.2086
 1309DOPC   C4A15361  18.661  34.826  14.112 -0.3795 -0.0990  0.0538
 1309DOPC   C1B15362  18.761  34.574  14.977 -0.1468 -0.1053 -0.1329
 1309DOPC   D2B15363  19.130  34.408  14.786  0.0684  0.2440 -0.2327
 1309DOPC   C3B15364  19.310  34.152  14.426  0.0558 -0.0488 -0.0870
 1309DOPC   C4B15365  19.309  33.847  14.053  0.2338 -0.0975  0.0849
 1310POSM   NC315366  15.302   1.596  15.903 -0.0848  0.0246  0.2308
 1310POSM   PO415367  15.572   1.854  15.839 -0.0936  0.0546  0.1938
 1310POSM   AM115368  15.460   1.794  15.520  0.2906 -0.0562 -0.0584
 1310POSM   AM215369  15.212   1.841  15.429  0.3914 -0.1767  0.0195
 1310POSM   T1A15370  15.437   1.636  15.064 -0.1795  0.0888 -0.0003
 1310POSM   C2A15371  15.598   1.610  14.652 -0.1015 -0.0001 -0.3210
 1310POSM   C3A15372  15.623   1.755  14.191  0.0770  0.2481 -0.2343
 1310POSM   C1B15373  14.956   1.880  15.209 -0.1659  0.0606 -0.0514
 1310POSM   D2B15374  14.606   1.863  14.863 -0.1497 -0.2412  0.3457
 1310POSM   C3B15375  14.546   1.432  14.717 -0.0292 -0.0747  0.0176
 1310POSM   C4B15376  14.531   1.072  14.388  0.3313  0.0381 -0.1192
 1311POSM   NC315377  13.473  10.811  16.320 -0.0213  0.2691 -0.1590
 1311POSM   PO415378  13.342  10.479  16.157  0.0265 -0.1372 -0.0799
 1311POSM   AM115379  13.107  10.575  15.899  0.3664  0.0939 -0.0469
 1311POSM   AM215380  13.085  10.509  15.606  0.5477 -0.0529  0.5564
 1311POSM   T1A15381  12.632  10.523  15.731 -0.0648 -0.1906  0.0700
 1311POSM   C2A15382  12.165  10.457  15.719 -0.1533 -0.0643  0.1983
 1311POSM   C3A15383  11.881  10.189  15.564 -0.0061  0.3163  0.4108
 1311POSM   C1B15384  12.893  10.466  15.317 -0.1268 -0.1068 -0.2353
 1311POSM   D2B15385  12.671  10.452  14.940 -0.3736 -0.0972  0.0108
 1311POSM   C3B15386  12.598  10.021  14.858 -0.3556 -0.0797  0.4129
 1311POSM   C4B15387  12.652   9.603  14.609  0.3207  0.1215  0.2849
 1312DOPS   CNO15388  17.195   7.160  16.443 -0.3337  0.1883  0.0023
 1312DOPS   PO415389  17.506   6.921  16.502  0.0594  0.0388 -0.1386
 1312DOPS   GL115390  17.472   6.654  16.224 -0.4182  0.2246  0.1266
 1312DOPS   GL215391  17.211   6.442  16.173  0.0683  0.1692 -0.0998
 1312DOPS   C1A15392  17.457   6.504  15.766 -0.2920  0.0225  0.1140
 1312DOPS   D2A15393  17.466   6.319  15.305 -0.2948  0.3018  0.0806
 1312DOPS   C3A15394  17.265   6.514  14.898  0.0750  0.2158  0.0233
 1312DOPS   C4A15395  17.013   6.805  14.746 -0.0360  0.1009 -0.1743
 1312DOPS   C1B15396  16.859   6.134  16.092 -0.1299 -0.2113 -0.1448
 1312DOPS   D2B15397  16.771   6.089  15.695 -0.1513 -0.2407 -0.3582
 1312DOPS   C3B15398  17.008   6.458  15.497 -0.1483 -0.0411 -0.2373
 1312DOPS   C4B15399  16.902   6.810  15.270 -0.1765 -0.1444 -0.0594
 1313DOPC   NC315400  15.635   9.002  15.314 -0.0802  0.1226  0.0504
 1313DOPC   PO415401  15.441   8.878  15.654  0.0130 -0.2300 -0.1279
 1313DOPC   GL115402  15.413   8.602  15.405  0.1132 -0.5311 -0.0027
 1313DOPC   GL215403  15.605   8.496  15.276 -0.0639  0.0503 -0.2122
 1313DOPC   C1A15404  15.066   8.696  15.099 -0.1415  0.0006 -0.3259
 1313DOPC   D2A15405  14.797   9.028  14.888 -0.2909  0.0370  0.3605
 1313DOPC   C3A15406  14.507   8.747  14.697  0.1481  0.0499 -0.0058
 1313DOPC   C4A15407  14.298   8.811  14.287  0.4322  0.0645 -0.3136
 1313DOPC   C1B15408  15.558   8.193  14.913 -0.1412 -0.0115 -0.0537
 1313DOPC   D2B15409  15.508   8.099  14.461 -0.0166  0.1564  0.0491
 1313DOPC   C3B15410  15.027   8.196  14.285  0.0244  0.0783  0.0364
 1313DOPC   C4B15411  14.652   8.016  13.947 -0.0188  0.0009  0.0992
 1314DOPE   NH315412  15.638   7.323  16.324  0.3690  0.0521  0.2380
 1314DOPE   PO415413  15.771   7.304  16.046 -0.0526 -0.1041 -0.4221
 1314DOPE   GL115414  15.750   7.383  15.675 -0.0168 -0.0368 -0.1022
 1314DOPE   GL215415  15.998   7.588  15.683 -0.0418 -0.1355  0.1431
 1314DOPE   C1A15416  15.900   7.367  15.220  0.4869 -0.1033 -0.2029
 1314DOPE   D2A15417  16.230   7.460  14.954 -0.1602  0.1219  0.2669
 1314DOPE   C3A15418  16.245   7.770  14.641 -0.0389  0.3938 -0.1850
 1314DOPE   C4A15419  16.185   7.831  14.164  0.0311  0.0970  0.2963
 1314DOPE   C1B15420  16.088   7.825  15.266 -0.2156  0.2934 -0.2894
 1314DOPE   D2B15421  16.012   8.256  15.146  0.3009 -0.0628 -0.1449
 1314DOPE   C3B15422  15.998   8.286  14.713 -0.0784  0.1158 -0.1767
 1314DOPE   C4B15423  16.023   8.281  14.291  0.1748  0.3782  0.1008
 1315DOPE   NH315424  16.441   0.840  16.051 -0.1146  0.0614 -0.1784
 1315DOPE   PO415425  16.557   0.676  15.824 -0.1033 -0.1781 -0.0496
 1315DOPE   GL115426  16.705   0.719  15.466 -0.2410 -0.0394  0.0376
 1315DOPE   GL215427  16.943   0.860  15.480  0.0295  0.1442 -0.1560
 1315DOPE   C1A15428  16.615   1.044  15.174  0.2672  0.2403 -0.0651
 1315DOPE   D2A15429  16.458   1.473  15.093 -0.1805  0.1282 -0.0500
 1315DOPE   C3A15430  16.340   1.686  14.647  0.1012  0.0533 -0.3119
 1315DOPE   C4A15431  16.614   1.862  14.257  0.1537  0.5001 -0.0872
 1315DOPE   C1B15432  17.047   1.248  15.285  0.2340 -0.0677 -0.0757
 1315DOPE   D2B15433  16.955   1.650  15.010 -0.0465  0.2530  0.0261
 1315DOPE   C3B15434  16.946   1.651  14.542 -0.2087 -0.2478 -0.0191
 1315DOPE   C4B15435  17.155   1.953  14.174  0.1132  0.0614 -0.1816
 1316DOPC   NC315436  18.835   2.865  16.015 -0.0478  0.1586  0.0998
 1316DOPC   PO415437  18.520   2.946  16.182 -0.1185  0.0007 -0.2113
 1316DOPC   GL115438  18.442   3.059  15.839  0.1812 -0.2456 -0.0364
 1316DOPC   GL215439  18.230   3.239  15.878  0.1069 -0.1944 -0.5359
 1316DOPC   C1A15440  18.205   2.890  15.522  0.0954 -0.0181  0.1676
 1316DOPC   D2A15441  17.834   2.978  15.251  0.0642  0.0500  0.0586
 1316DOPC   C3A15442  17.853   2.672  14.823  0.2952  0.2158 -0.0233
 1316DOPC   C4A15443  17.715   2.622  14.376 -0.3438  0.1666 -0.0249
 1316DOPC   C1B15444  17.992   3.399  15.548 -0.0237 -0.4577 -0.1684
 1316DOPC   D2B15445  17.992   3.738  15.179 -0.2365 -0.1106 -0.0191
 1316DOPC   C3B15446  17.624   3.897  15.052  0.0301  0.1732 -0.0745
 1316DOPC   C4B15447  17.288   3.734  14.805 -0.0428  0.2640 -0.0625
 1317POSM   NC315448  19.387   9.071  15.704  0.0554  0.1631 -0.1936
 1317POSM   PO415449  19.398   8.707  15.892 -0.1334 -0.4279  0.1292
 1317POSM   AM115450  19.347   8.568  15.615 -0.2845 -0.5495 -0.0070
 1317POSM   AM215451  19.447   8.457  15.397  0.4662  0.1434  0.2035
 1317POSM   T1A15452  19.063   8.736  15.214 -0.1931 -0.2484  0.0842
 1317POSM   C2A15453  19.020   8.834  14.759  0.0730 -0.1817  0.1333
 1317POSM   C3A15454  18.905   9.116  14.382  0.5344  0.0455  0.1161
 1317POSM   C1B15455  19.442   8.440  15.047  0.3894  0.0689 -0.2363
 1317POSM   D2B15456  19.413   8.576  14.586  0.1303 -0.0801 -0.0790
 1317POSM   C3B15457  19.239   8.268  14.275 -0.2095 -0.0406  0.1900
 1317POSM   C4B15458  19.094   7.873  14.372 -0.1321  0.0655  0.0357
 1318POSM   NC315459  14.579  10.420  15.212  0.1134 -0.0534  0.2602
 1318POSM   PO415460  14.517  10.714  15.424  0.0811  0.2283  0.0740
 1318POSM   AM115461  14.262  10.807  15.191  0.2205 -0.3200 -0.0819
 1318POSM   AM215462  14.295  10.703  14.938  0.2243 -0.0490 -0.0189
 1318POSM   T1A15463  13.808  10.861  15.031 -0.2317  0.1370 -0.0086
 1318POSM   C2A15464  13.535  10.876  14.674  0.2121  0.0475 -0.1056
 1318POSM   C3A15465  13.617  10.933  14.210 -0.1496  0.1269 -0.1916
 1318POSM   C1B15466  14.185  10.406  14.880 -0.2151  0.1422  0.0335
 1318POSM   D2B15467  13.945  10.064  14.684 -0.1664 -0.1141  0.2298
 1318POSM   C3B15468  14.257   9.771  14.454 -0.0377  0.0713 -0.1737
 1318POSM   C4B15469  14.213   9.527  14.093 -0.3387  0.0204 -0.0557
 1319DOPC   NC315470  20.363  10.050  15.905 -0.0208 -0.1331 -0.0618
 1319DOPC   PO415471  20.191   9.695  15.840  0.0453  0.2886  0.3349
 1319DOPC   GL115472  20.062   9.682  15.486 -0.3317 -0.1671  0.0101
 1319DOPC   GL215473  20.174   9.989  15.427  0.0677  0.0646  0.5535
 1319DOPC   C1A15474  19.881   9.636  15.082 -0.2652 -0.0172 -0.4001
 1319DOPC   D2A15475  19.488   9.497  14.926 -0.1361  0.2879  0.0271
 1319DOPC   C3A15476  19.453   9.226  14.556  0.2379  0.2410  0.0882
 1319DOPC   C4A15477  19.638   8.830  14.253  0.2130 -0.0440  0.0922
 1319DOPC   C1B15478  19.805  10.308  15.382 -0.0070 -0.0407 -0.0939
 1319DOPC   D2B15479  19.377  10.487  15.116 -0.0769  0.3600 -0.1266
 1319DOPC   C3B15480  19.402  10.388  14.671 -0.2657 -0.1708 -0.1198
 1319DOPC   C4B15481  19.467  10.688  14.324  0.0862 -0.3007  0.2265
 1320DOPS   CNO15482  16.737   7.215  16.660 -0.3436 -0.0016  0.0145
 1320DOPS   PO415483  16.751   7.196  16.296 -0.2172 -0.1800  0.1226
 1320DOPS   GL115484  16.833   7.139  15.856  0.0003 -0.0153 -0.0152
 1320DOPS   GL215485  16.921   6.888  15.836 -0.1043  0.1777 -0.3367
 1320DOPS   C1A15486  16.796   7.310  15.444 -0.0763 -0.0509 -0.0275
 1320DOPS   D2A15487  16.576   7.670  15.265  0.2983  0.1478  0.2674
 1320DOPS   C3A15488  16.682   7.733  14.843  0.1444  0.1587  0.2309
 1320DOPS   C4A15489  16.740   7.657  14.429 -0.2724 -0.1046 -0.2115
 1320DOPS   C1B15490  16.524   6.723  15.557  0.1586  0.2098 -0.3138
 1320DOPS   D2B15491  16.389   6.383  15.280  0.1155  0.3108  0.2275
 1320DOPS   C3B15492  16.252   6.362  14.849 -0.1357 -0.0173 -0.0311
 1320DOPS   C4B15493  16.369   6.364  14.329 -0.1585 -0.1886 -0.1832
 1321DOPE   NH315494  22.230   4.565  15.774  0.2314  0.2409  0.0469
 1321DOPE   PO415495  21.931   4.636  15.662 -0.0412  0.0727 -0.0988
 1321DOPE   GL115496  21.753   4.458  15.306  0.1682 -0.0306 -0.2399
 1321DOPE   GL215497  21.658   4.732  15.262  0.1664 -0.1087  0.0941
 1321DOPE   C1A15498  21.709   4.409  14.876  0.0191  0.0303  0.0604
 1321DOPE   D2A15499  21.836   4.423  14.413 -0.2930  0.2097 -0.0797
 1321DOPE   C3A15500  21.968   4.660  14.020 -0.0478 -0.0880  0.0542
 1321DOPE   C4A15501  21.883   4.784  13.592 -0.1396 -0.0582 -0.1777
 1321DOPE   C1B15502  21.795   4.940  14.872  0.0934  0.0349 -0.0438
 1321DOPE   D2B15503  21.741   5.321  14.601  0.1134  0.0376 -0.2322
 1321DOPE   C3B15504  22.146   5.354  14.291  0.4000  0.2597 -0.0201
 1321DOPE   C4B15505  22.590   5.199  14.488  0.2674 -0.1472  0.2211
 1322DOPS   CNO15506  16.330   9.928  15.596 -0.0323  0.2337  0.0910
 1322DOPS   PO415507  16.270   9.675  15.325 -0.0235 -0.2629  0.1718
 1322DOPS   GL115508  16.277   9.477  14.950  0.1084  0.2734  0.0919
 1322DOPS   GL215509  16.076   9.217  15.047 -0.1592  0.0752 -0.1984
 1322DOPS   C1A15510  16.430   9.589  14.515  0.1132 -0.0167 -0.2511
 1322DOPS   D2A15511  16.813   9.603  14.248  0.0673  0.0420 -0.4499
 1322DOPS   C3A15512  16.794   9.513  13.756 -0.0928  0.2693  0.1040
 1322DOPS   C4A15513  16.875   9.124  13.510  0.2953  0.0225 -0.1090
 1322DOPS   C1B15514  16.331   9.107  14.655  0.2526  0.0376  0.0215
 1322DOPS   D2B15515  16.697   8.972  14.412 -0.0048  0.2122 -0.1867
 1322DOPS   C3B15516  16.772   8.660  14.072  0.1439  0.0296  0.0213
 1322DOPS   C4B15517  16.954   8.287  13.853  0.1038  0.2430  0.2280
 1323DOPS   CNO15518  13.521   1.735  15.664  0.2825 -0.1223  0.2602
 1323DOPS   PO415519  13.579   1.996  15.389 -0.1612 -0.1192 -0.0446
 1323DOPS   GL115520  13.435   1.771  15.052  0.2493 -0.2278  0.0574
 1323DOPS   GL215521  13.709   1.683  14.923  0.2596  0.2062  0.0181
 1323DOPS   C1A15522  13.268   1.335  15.032 -0.1473  0.0196  0.0334
 1323DOPS   D2A15523  13.157   1.213  14.600  0.1634  0.0363 -0.0864
 1323DOPS   C3A15524  13.064   1.230  14.166  0.0828  0.0362 -0.3137
 1323DOPS   C4A15525  12.900   1.058  13.734  0.1472  0.2055 -0.2542
 1323DOPS   C1B15526  13.603   1.410  14.604  0.1141  0.1634  0.1842
 1323DOPS   D2B15527  13.570   1.164  14.192 -0.1192 -0.1124 -0.0170
 1323DOPS   C3B15528  13.855   0.940  13.973  0.1827 -0.1920 -0.2801
 1323DOPS   C4B15529  14.330   0.808  13.967  0.2941 -0.0199 -0.0665
 1324POSM   NC315530  13.698   7.061  15.907 -0.1924  0.0921  0.0644
 1324POSM   PO415531  14.025   7.189  15.754 -0.1564 -0.1848  0.1648
 1324POSM   AM115532  14.050   7.455  15.524 -0.0232  0.0089 -0.1800
 1324POSM   AM215533  13.898   7.671  15.412 -0.0253 -0.0984 -0.0064
 1324POSM   T1A15534  14.189   7.542  15.044  0.1357  0.0191 -0.0848
 1324POSM   C2A15535  14.319   7.547  14.596 -0.0882  0.3164  0.1185
 1324POSM   C3A15536  14.291   7.919  14.340 -0.0661  0.0522 -0.4022
 1324POSM   C1B15537  13.711   7.744  15.199  0.1309 -0.0069 -0.1004
 1324POSM   D2B15538  13.646   7.683  14.750  0.3158 -0.0021  0.2396
 1324POSM   C3B15539  13.773   8.036  14.507  0.1299  0.0920 -0.2324
 1324POSM   C4B15540  14.048   8.359  14.229  0.1617 -0.1017  0.0544
 1325POSM   NC315541  20.636   5.528  16.111  0.1498  0.0345 -0.0434
 1325POSM   PO415542  20.443   5.821  16.216 -0.2367  0.3464  0.0893
 1325POSM   AM115543  20.289   5.874  15.887 -0.1554 -0.1650  0.0955
 1325POSM   AM215544  20.465   5.889  15.696  0.0372 -0.1399  0.0913
 1325POSM   T1A15545  19.857   5.819  15.600 -0.0128  0.0875 -0.3179
 1325POSM   C2A15546  19.635   5.907  15.209  0.0444  0.1877 -0.0455
 1325POSM   C3A15547  19.701   5.932  14.715  0.3776 -0.0486  0.1799
 1325POSM   C1B15548  20.356   6.095  15.405 -0.3182 -0.0427  0.0441
 1325POSM   D2B15549  20.098   6.091  15.017  0.0642  0.4926 -0.0290
 1325POSM   C3B15550  19.960   5.625  14.968 -0.0846  0.1367 -0.2080
 1325POSM   C4B15551  19.608   5.354  14.998  0.1775 -0.2346 -0.0667
 1326DOPC   NC315552  14.062   1.722  15.289 -0.2701 -0.0089  0.0162
 1326DOPC   PO415553  14.349   1.993  15.445  0.4423 -0.0124  0.0511
 1326DOPC   GL115554  14.331   2.175  15.122 -0.3556  0.1314 -0.1104
 1326DOPC   GL215555  14.493   2.337  14.904  0.0887 -0.0963  0.1221
 1326DOPC   C1A15556  14.140   1.963  14.742 -0.0556  0.0706  0.0529
 1326DOPC   D2A15557  13.677   1.947  14.499 -0.2378  0.0612 -0.0507
 1326DOPC   C3A15558  13.908   1.874  14.058 -0.0317 -0.0823  0.0020
 1326DOPC   C4A15559  14.343   1.885  13.779  0.1656  0.0326  0.1819
 1326DOPC   C1B15560  14.547   2.348  14.428 -0.1397 -0.0112 -0.0325
 1326DOPC   D2B15561  14.657   2.134  14.040  0.0327 -0.1652 -0.3193
 1326DOPC   C3B15562  14.761   1.612  13.955  0.3225  0.0239  0.1080
 1326DOPC   C4B15563  14.530   1.208  13.787  0.0353  0.0394 -0.0085
 1327POSM   NC315564  16.945  10.517  15.940  0.1162  0.0907  0.3283
 1327POSM   PO415565  17.305  10.442  15.909  0.0262  0.0465  0.0090
 1327POSM   AM115566  17.401  10.350  15.614 -0.3587 -0.0282 -0.2202
 1327POSM   AM215567  17.619  10.440  15.472 -0.0637 -0.1054 -0.0979
 1327POSM   T1A15568  17.208  10.282  15.134  0.2050  0.0281  0.0888
 1327POSM   C2A15569  16.921  10.492  14.918 -0.3034 -0.1342 -0.1971
 1327POSM   C3A15570  16.753  10.907  14.897  0.1477  0.4218 -0.0447
 1327POSM   C1B15571  17.732  10.476  15.137  0.2281  0.0536  0.0092
 1327POSM   D2B15572  17.694  10.667  14.708 -0.0032  0.1442  0.0863
 1327POSM   C3B15573  17.638  10.890  14.299  0.1807  0.1125  0.1598
 1327POSM   C4B15574  17.865  10.908  13.916  0.0400 -0.2325  0.1620
 1328DOPC   NC315575  18.406   6.412  16.243 -0.5849 -0.0630  0.3650
 1328DOPC   PO415576  18.738   6.534  16.102 -0.0229 -0.3205 -0.1239
 1328DOPC   GL115577  18.681   6.206  15.859 -0.0626  0.1164 -0.1420
 1328DOPC   GL215578  18.894   6.295  15.663 -0.2215  0.2108  0.2130
 1328DOPC   C1A15579  18.418   6.018  15.533  0.0479 -0.3055  0.0930
 1328DOPC   D2A15580  18.165   5.886  15.188  0.1328 -0.1532  0.0048
 1328DOPC   C3A15581  18.269   5.617  14.831  0.0106 -0.1567  0.0249
 1328DOPC   C4A15582  18.119   5.393  14.470 -0.0108 -0.0457  0.1153
 1328DOPC   C1B15583  18.987   5.866  15.412  0.0131 -0.0438  0.0304
 1328DOPC   D2B15584  19.126   5.687  14.988  0.0522 -0.0870  0.3425
 1328DOPC   C3B15585  19.009   5.974  14.687 -0.1243  0.1553  0.4928
 1328DOPC   C4B15586  18.919   6.173  14.266 -0.2642  0.4742 -0.0646
 1329POSM   NC315587  18.964   4.731  16.538  0.3138 -0.0655  0.0558
 1329POSM   PO415588  18.937   5.141  16.517 -0.0273  0.4532 -0.0702
 1329POSM   AM115589  19.118   5.113  16.230  0.3120 -0.2789 -0.0023
 1329POSM   AM215590  19.290   5.246  16.044 -0.1310 -0.0598 -0.0769
 1329POSM   T1A15591  18.853   5.079  15.803 -0.0931 -0.1279  0.1652
 1329POSM   C2A15592  18.778   4.953  15.354 -0.1069 -0.2211 -0.1251
 1329POSM   C3A15593  18.472   4.660  15.104  0.0022 -0.1581 -0.1414
 1329POSM   C1B15594  19.082   5.499  15.985  0.4366 -0.0012  0.0684
 1329POSM   D2B15595  18.663   5.591  15.784  0.0362 -0.0138 -0.0219
 1329POSM   C3B15596  18.629   5.607  15.280  0.2515  0.1350  0.3356
 1329POSM   C4B15597  18.631   5.993  15.002 -0.4506  0.0078 -0.0730
 1330POSM   NC315598  20.199   0.234  16.013 -0.1395 -0.0612  0.2221
 1330POSM   PO415599  20.020   0.605  15.993 -0.0640 -0.3088  0.0830
 1330POSM   AM115600  19.928   0.610  15.682 -0.2016  0.0131 -0.1489
 1330POSM   AM215601  19.672   0.644  15.493 -0.0412  0.1245 -0.1983
 1330POSM   T1A15602  20.065   0.928  15.284  0.2727  0.1057 -0.1732
 1330POSM   C2A15603  20.197   0.968  14.861  0.0073  0.3422 -0.0639
 1330POSM   C3A15604  20.434   1.026  14.432 -0.0330  0.1917  0.3415
 1330POSM   C1B15605  19.596   0.661  15.205 -0.2898  0.0738 -0.4149
 1330POSM   D2B15606  19.689   0.726  14.751 -0.2806 -0.2303  0.1122
 1330POSM   C3B15607  19.397   1.026  14.497  0.2437 -0.0178  0.0754
 1330POSM   C4B15608  19.103   0.984  14.203  0.1984 -0.1169  0.1457
 1331DOPC   NC315609  12.436   2.687  15.242  0.1001 -0.1330  0.0737
 1331DOPC   PO415610  12.804   2.707  15.351  0.1802  0.0293 -0.1360
 1331DOPC   GL115611  13.093   2.694  14.941  0.1085 -0.0899  0.0967
 1331DOPC   GL215612  13.192   2.627  14.703 -0.0037  0.4384  0.0697
 1331DOPC   C1A15613  13.255   3.129  14.752  0.0791 -0.4353 -0.1158
 1331DOPC   D2A15614  13.523   3.213  14.432 -0.0062 -0.0598 -0.0693
 1331DOPC   C3A15615  13.824   3.562  14.473 -0.0981  0.2908  0.0720
 1331DOPC   C4A15616  14.047   3.853  14.232 -0.0440 -0.3237 -0.0492
 1331DOPC   C1B15617  13.221   2.825  14.266 -0.1220  0.1661 -0.4235
 1331DOPC   D2B15618  13.344   3.100  13.933 -0.0268  0.2125 -0.2569
 1331DOPC   C3B15619  13.221   3.357  13.524 -0.1241 -0.2445 -0.0397
 1331DOPC   C4B15620  13.052   3.210  13.097 -0.2053  0.0830 -0.1434
 1332DOPE   NH315621  14.002   2.384  15.404 -0.0194  0.1624 -0.1604
 1332DOPE   PO415622  13.971   2.696  15.447  0.0288  0.0539 -0.0247
 1332DOPE   GL115623  14.065   2.704  15.091 -0.2326 -0.1410 -0.1244
 1332DOPE   GL215624  14.017   2.439  14.916 -0.0407  0.0969 -0.0297
 1332DOPE   C1A15625  14.270   2.804  14.702 -0.0787 -0.2274 -0.1652
 1332DOPE   D2A15626  14.495   2.831  14.360  0.0566  0.0569  0.1789
 1332DOPE   C3A15627  14.647   2.677  13.986 -0.4330 -0.2222 -0.0813
 1332DOPE   C4A15628  14.533   2.408  13.645 -0.0286 -0.3355  0.0130
 1332DOPE   C1B15629  14.030   2.349  14.453  0.3265 -0.0252  0.1965
 1332DOPE   D2B15630  14.193   2.311  14.073 -0.2791 -0.3845  0.0494
 1332DOPE   C3B15631  14.150   2.648  13.820  0.1844  0.0152  0.2175
 1332DOPE   C4B15632  14.446   2.882  13.577  0.1558 -0.0705 -0.0052
 1333DOPC   NC315633  12.242   4.447  14.999 -0.0658  0.0499  0.2100
 1333DOPC   PO415634  12.168   4.069  15.124  0.0476 -0.3312 -0.0375
 1333DOPC   GL115635  12.483   4.088  14.884 -0.0973 -0.0475 -0.2487
 1333DOPC   GL215636  12.755   4.259  14.949  0.1531  0.3230 -0.2751
 1333DOPC   C1A15637  12.448   4.385  14.488  0.1085  0.2986 -0.1324
 1333DOPC   D2A15638  12.659   4.383  14.066 -0.0241 -0.2317 -0.0858
 1333DOPC   C3A15639  12.862   4.762  13.914  0.2079 -0.3797 -0.1017
 1333DOPC   C4A15640  13.021   4.981  13.535 -0.0094  0.1025 -0.1079
 1333DOPC   C1B15641  12.938   4.213  14.536  0.0854  0.1541  0.0828
 1333DOPC   D2B15642  13.123   4.192  14.114 -0.3459 -0.0469  0.0709
 1333DOPC   C3B15643  13.498   4.164  13.992 -0.1507  0.0834  0.3812
 1333DOPC   C4B15644  13.834   4.049  13.706  0.3585  0.1160  0.1896
 1334POSM   NC315645  21.966   7.358  15.963 -0.1788  0.1088 -0.0916
 1334POSM   PO415646  21.709   7.604  16.063  0.1429 -0.0184 -0.1741
 1334POSM   AM115647  21.549   7.465  15.777 -0.1089 -0.1995 -0.2308
 1334POSM   AM215648  21.399   7.291  15.647 -0.1952 -0.2170 -0.2872
 1334POSM   T1A15649  21.601   7.563  15.260  0.0245 -0.0040 -0.2165
 1334POSM   C2A15650  21.510   7.227  14.916  0.3086  0.2855 -0.0493
 1334POSM   C3A15651  21.674   6.986  14.524 -0.1608  0.0821 -0.0401
 1334POSM   C1B15652  21.253   7.208  15.335  0.0026 -0.2200 -0.0504
 1334POSM   D2B15653  20.967   7.274  15.025  0.0005  0.1412 -0.0987
 1334POSM   C3B15654  20.736   6.883  14.839 -0.0295  0.3907  0.0601
 1334POSM   C4B15655  20.391   6.595  14.819 -0.3716  0.3420  0.0058
 1335POSM   NC315656  13.121   9.761  16.015 -0.2412 -0.1476  0.2310
 1335POSM   PO415657  13.263  10.052  15.859 -0.0989  0.0350  0.2818
 1335POSM   AM115658  13.160  10.058  15.546  0.3849 -0.2690  0.0036
 1335POSM   AM215659  13.212  10.056  15.263  0.1219 -0.4144  0.2062
 1335POSM   T1A15660  12.817   9.783  15.232 -0.1011 -0.2791  0.0329
 1335POSM   C2A15661  12.409   9.626  15.075 -0.1007 -0.0855  0.0538
 1335POSM   C3A15662  12.019   9.398  14.966  0.0565 -0.0107 -0.1005
 1335POSM   C1B15663  13.106  10.120  14.950  0.1738  0.1594 -0.0584
 1335POSM   D2B15664  13.198  10.010  14.541 -0.0906 -0.4406 -0.3231
 1335POSM   C3B15665  13.265   9.585  14.313  0.0280 -0.0641 -0.1780
 1335POSM   C4B15666  13.699   9.416  14.324  0.0433 -0.1937 -0.1214
 1336POSM   NC315667  15.161   5.894  16.060 -0.2128  0.0514  0.0678
 1336POSM   PO415668  14.795   5.802  15.928  0.1605  0.0892  0.3593
 1336POSM   AM115669  14.898   5.895  15.629  0.0110  0.0468  0.1901
 1336POSM   AM215670  14.797   6.107  15.488 -0.0160 -0.1012  0.0760
 1336POSM   T1A15671  15.151   5.930  15.176 -0.3607 -0.2288  0.1198
 1336POSM   C2A15672  15.447   6.015  14.859  0.1826 -0.3401  0.0980
 1336POSM   C3A15673  15.820   6.243  14.639 -0.0051 -0.1783  0.2620
 1336POSM   C1B15674  14.676   6.264  15.233 -0.0015  0.2665 -0.1854
 1336POSM   D2B15675  14.458   6.317  14.817  0.2029 -0.0571 -0.0678
 1336POSM   C3B15676  14.403   6.622  14.583  0.1150 -0.0270 -0.1282
 1336POSM   C4B15677  14.030   6.807  14.407  0.0566 -0.0897 -0.3113
 1337POSM   NC315678  14.385  11.289  15.211 -0.1519  0.1257 -0.0999
 1337POSM   PO415679  14.761  11.483  15.216 -0.1051 -0.0199  0.0743
 1337POSM   AM115680  14.751  11.550  14.925 -0.3516  0.0150 -0.1873
 1337POSM   AM215681  14.864  11.754  14.774  0.0029 -0.2634  0.0481
 1337POSM   T1A15682  14.427  11.501  14.553 -0.0187 -0.2434 -0.3112
 1337POSM   C2A15683  14.469  11.498  14.043 -0.1920 -0.0250  0.0648
 1337POSM   C3A15684  14.416  11.606  13.600  0.0840  0.2698 -0.2209
 1337POSM   C1B15685  14.944  11.533  14.562 -0.3426  0.0872 -0.0462
 1337POSM   D2B15686  14.795  11.224  14.293 -0.0552 -0.0551 -0.0742
 1337POSM   C3B15687  14.906  10.771  14.188 -0.0215 -0.0110  0.0926
 1337POSM   C4B15688  14.954  10.377  13.923  0.0857  0.0118  0.0560
 1338DOPC   NC315689  23.445   7.300  16.239  0.0473  0.4266  0.0301
 1338DOPC   PO415690  23.068   7.294  16.234  0.1973  0.0869 -0.0426
 1338DOPC   GL115691  23.008   7.284  15.860  0.1462  0.3585 -0.2707
 1338DOPC   GL215692  22.858   7.132  15.653  0.1600 -0.1678 -0.1527
 1338DOPC   C1A15693  22.895   7.639  15.587 -0.0568 -0.3209  0.1715
 1338DOPC   D2A15694  22.697   7.905  15.273 -0.2053 -0.2067  0.2718
 1338DOPC   C3A15695  22.831   7.758  14.812 -0.2700 -0.2750  0.0374
 1338DOPC   C4A15696  22.763   7.747  14.386 -0.0300  0.1369  0.2468
 1338DOPC   C1B15697  23.247   7.217  15.428  0.0977 -0.1406  0.0934
 1338DOPC   D2B15698  23.572   7.268  15.098  0.3706 -0.2385 -0.0171
 1338DOPC   C3B15699  23.694   7.598  14.837  0.1037 -0.1497 -0.0510
 1338DOPC   C4B15700  23.903   7.556  14.389  0.0662  0.2476  0.0884
 1339POSM   NC315701  22.416   7.806  16.193  0.3496  0.1503  0.0826
 1339POSM   PO415702  22.063   7.948  16.049  0.1502  0.0388 -0.0788
 1339POSM   AM115703  22.085   7.760  15.777 -0.0504 -0.0538 -0.0636
 1339POSM   AM215704  21.984   7.783  15.553  0.1296  0.0616  0.1729
 1339POSM   T1A15705  22.393   7.425  15.509  0.1669  0.0024  0.0318
 1339POSM   C2A15706  22.754   7.408  15.184 -0.0138 -0.0008  0.0341
 1339POSM   C3A15707  23.089   7.287  14.905 -0.0220 -0.1574  0.1480
 1339POSM   C1B15708  22.093   7.827  15.258 -0.0966 -0.0780 -0.0923
 1339POSM   D2B15709  22.273   7.870  14.853  0.0142 -0.2549  0.0772
 1339POSM   C3B15710  22.492   7.457  14.749 -0.3889  0.1996 -0.0209
 1339POSM   C4B15711  22.805   7.219  14.455 -0.1148  0.1711 -0.0222
 1340DOPS   CNO15712  16.336   5.644  16.917 -0.0108 -0.0311  0.1569
 1340DOPS   PO415713  16.243   5.664  16.520 -0.4572 -0.0769  0.0595
 1340DOPS   GL115714  16.226   5.489  16.148  0.1052 -0.3270 -0.2006
 1340DOPS   GL215715  16.450   5.292  16.102  0.0108 -0.2224 -0.0972
 1340DOPS   C1A15716  16.530   5.640  15.764  0.0325 -0.2165  0.0153
 1340DOPS   D2A15717  16.610   5.672  15.310  0.0940  0.0752  0.0357
 1340DOPS   C3A15718  16.557   5.977  14.954  0.0976  0.2904 -0.3407
 1340DOPS   C4A15719  16.818   6.267  14.710  0.3524 -0.0399  0.1642
 1340DOPS   C1B15720  16.584   5.160  15.626 -0.0695  0.0023 -0.1715
 1340DOPS   D2B15721  16.556   5.173  15.200  0.1753 -0.1516  0.0908
 1340DOPS   C3B15722  16.643   5.475  14.821 -0.0730  0.1336  0.3368
 1340DOPS   C4B15723  16.519   5.797  14.495 -0.1446 -0.2682  0.1347
 1341DOPS   CNO15724  12.663   6.866  15.619  0.3161  0.1294  0.0119
 1341DOPS   PO415725  12.579   7.156  15.848 -0.1140 -0.1185  0.3052
 1341DOPS   GL115726  12.254   7.182  15.624  0.0353  0.0258 -0.0894
 1341DOPS   GL215727  12.275   7.443  15.528  0.0542  0.0325  0.0128
 1341DOPS   C1A15728  12.351   7.034  15.201 -0.0622  0.0970  0.0563
 1341DOPS   D2A15729  12.363   7.012  14.798 -0.0278 -0.0515 -0.3262
 1341DOPS   C3A15730  12.541   7.217  14.406  0.3610  0.0567  0.0995
 1341DOPS   C4A15731  12.630   7.164  13.909 -0.0645  0.2094  0.0725
 1341DOPS   C1B15732  11.912   7.203  15.437 -0.1542 -0.1101  0.0242
 1341DOPS   D2B15733  11.513   7.012  15.159 -0.3937 -0.4893 -0.0745
 1341DOPS   C3B15734  11.518   6.840  14.694 -0.0186  0.0712 -0.2735
 1341DOPS   C4B15735  11.559   6.506  14.385 -0.0609 -0.1185  0.0856
 1342DOPS   CNO15736  16.896   8.472  16.064 -0.0504  0.0428  0.1795
 1342DOPS   PO415737  16.617   8.358  15.852 -0.1835 -0.3588  0.3140
 1342DOPS   GL115738  16.712   8.457  15.422  0.1482  0.0208 -0.1244
 1342DOPS   GL215739  17.010   8.409  15.403  0.0704 -0.1423  0.0874
 1342DOPS   C1A15740  16.625   8.232  15.055  0.2632  0.3243 -0.0084
 1342DOPS   D2A15741  16.613   8.144  14.607 -0.0208 -0.0934 -0.0582
 1342DOPS   C3A15742  16.973   8.264  14.354  0.1565  0.0194 -0.0919
 1342DOPS   C4A15743  17.240   7.935  14.131 -0.3008  0.0773 -0.0678
 1342DOPS   C1B15744  17.033   7.975  15.223 -0.1076  0.2729 -0.0341
 1342DOPS   D2B15745  17.071   7.542  15.122 -0.1590  0.1892  0.0554
 1342DOPS   C3B15746  16.839   7.218  14.879  0.2432 -0.1632 -0.1249
 1342DOPS   C4B15747  16.742   7.155  14.439 -0.1893 -0.2404  0.0124
 1343POSM   NC315748  19.281   2.244  15.945  0.1716  0.0868  0.1108
 1343POSM   PO415749  19.257   2.617  15.966  0.1727  0.0340 -0.1260
 1343POSM   AM115750  19.161   2.836  15.739  0.3784  0.0016  0.1608
 1343POSM   AM215751  19.316   3.039  15.609 -0.1492  0.1781 -0.0303
 1343POSM   T1A15752  18.815   3.071  15.444  0.1590  0.0308  0.2594
 1343POSM   C2A15753  18.788   3.417  15.117 -0.0368  0.2901 -0.0294
 1343POSM   C3A15754  18.665   3.635  14.718  0.3528 -0.0270 -0.1849
 1343POSM   C1B15755  19.566   2.995  15.445 -0.2811  0.0284 -0.0961
 1343POSM   D2B15756  19.650   2.932  14.999  0.1426 -0.0149  0.0198
 1343POSM   C3B15757  20.006   2.992  14.704  0.1217 -0.0398  0.1227
 1343POSM   C4B15758  20.124   2.759  14.341 -0.0836 -0.3416  0.1648
 1344DOPE   NH315759  19.687  12.559  15.876  0.2742 -0.0650  0.0952
 1344DOPE   PO415760  19.920  12.338  15.985 -0.2509  0.3257 -0.3439
 1344DOPE   GL115761  19.887  12.104  15.712  0.0819 -0.0568  0.1150
 1344DOPE   GL215762  20.242  12.064  15.628 -0.0057  0.3755  0.1340
 1344DOPE   C1A15763  19.669  12.210  15.358 -0.4491 -0.1136  0.0340
 1344DOPE   D2A15764  19.188  12.138  15.177  0.2318  0.0888  0.0756
 1344DOPE   C3A15765  19.250  11.984  14.726 -0.2884  0.1612 -0.3789
 1344DOPE   C4A15766  19.014  11.623  14.454 -0.3373  0.3707  0.3371
 1344DOPE   C1B15767  20.022  11.710  15.472  0.0391  0.2636 -0.0410
 1344DOPE   D2B15768  19.653  11.435  15.475  0.1640 -0.0642 -0.1664
 1344DOPE   C3B15769  19.500  11.133  15.126 -0.0348  0.0360 -0.0797
 1344DOPE   C4B15770  19.334  10.937  14.764  0.0488 -0.1044  0.2388
 1345POSM   NC315771  15.803   0.244  15.630 -0.0526 -0.3499 -0.0187
 1345POSM   PO415772  16.036   0.401  15.895  0.3554 -0.4170 -0.0591
 1345POSM   AM115773  16.052   0.608  15.642 -0.0160 -0.0416 -0.0220
 1345POSM   AM215774  16.190   0.765  15.465  0.1295 -0.1354 -0.1292
 1345POSM   T1A15775  15.972   0.397  15.190  0.0223 -0.0455 -0.1121
 1345POSM   C2A15776  15.715   0.186  14.858  0.1571 -0.0138 -0.0926
 1345POSM   C3A15777  15.423   0.125  14.545  0.0403 -0.2030 -0.2073
 1345POSM   C1B15778  16.168   0.846  15.121  0.3119 -0.0815  0.2487
 1345POSM   D2B15779  16.510   0.849  14.737  0.0992  0.1029  0.1778
 1345POSM   C3B15780  16.516   0.819  14.273  0.0946 -0.1794 -0.0653
 1345POSM   C4B15781  16.259   0.563  14.035  0.3112  0.2994  0.2806
 1346DOPS   CNO15782  18.330   7.347  16.323 -0.2078  0.2921 -0.2952
 1346DOPS   PO415783  18.446   6.998  16.314  0.1240  0.0430 -0.1010
 1346DOPS   GL115784  18.447   6.826  15.898 -0.1277 -0.2290  0.1876
 1346DOPS   GL215785  18.309   6.660  15.772  0.0544  0.0493 -0.0405
 1346DOPS   C1A15786  18.559   6.976  15.442 -0.1159  0.0014 -0.1715
 1346DOPS   D2A15787  18.488   6.992  15.000  0.0387  0.0265  0.0158
 1346DOPS   C3A15788  18.448   6.830  14.576  0.3449  0.1479 -0.2102
 1346DOPS   C4A15789  18.464   6.950  14.142 -0.1049 -0.0038 -0.1387
 1346DOPS   C1B15790  18.359   6.572  15.310 -0.1262  0.1345 -0.2843
 1346DOPS   D2B15791  18.320   6.484  14.869  0.3155 -0.0828 -0.1144
 1346DOPS   C3B15792  18.353   6.102  14.580  0.0002  0.0110 -0.0948
 1346DOPS   C4B15793  18.392   5.799  14.215  0.2410  0.0015  0.0247
 1347POSM   NC315794  21.703   5.177  15.704 -0.2428  0.1313 -0.0127
 1347POSM   PO415795  21.433   4.943  15.829  0.0815  0.0715  0.2579
 1347POSM   AM115796  21.253   4.985  15.538 -0.0463 -0.0469  0.2015
 1347POSM   AM215797  21.183   4.855  15.304  0.2151  0.1022  0.3031
 1347POSM   T1A15798  20.972   5.304  15.243 -0.1444 -0.3149  0.0263
 1347POSM   C2A15799  20.968   5.566  14.851 -0.3942  0.1367 -0.0164
 1347POSM   C3A15800  20.838   5.589  14.422 -0.0311 -0.0216 -0.0021
 1347POSM   C1B15801  21.264   4.672  15.021 -0.1847  0.0367  0.2374
 1347POSM   D2B15802  21.409   4.768  14.582 -0.0559 -0.3422 -0.2459
 1347POSM   C3B15803  21.443   4.811  14.152 -0.1547 -0.1604  0.0636
 1347POSM   C4B15804  21.414   4.573  13.698  0.2278  0.2304 -0.0922
 1348POSM   NC315805  16.679   3.622  16.139  0.1674  0.0556  0.1427
 1348POSM   PO415806  16.690   3.322  16.411 -0.2878  0.1768  0.1986
 1348POSM   AM115807  16.742   3.172  16.100  0.0906 -0.2012 -0.1836
 1348POSM   AM215808  16.636   3.015  15.900 -0.0261  0.3276  0.0660
 1348POSM   T1A15809  17.106   2.983  15.791  0.0288 -0.1799 -0.0775
 1348POSM   C2A15810  17.165   3.157  15.365 -0.3125 -0.0489  0.0764
 1348POSM   C3A15811  17.365   3.060  14.974 -0.3017  0.0424 -0.0056
 1348POSM   C1B15812  16.507   3.150  15.634 -0.0576  0.1911 -0.2275
 1348POSM   D2B15813  16.537   3.191  15.206 -0.0230 -0.0001 -0.0941
 1348POSM   C3B15814  16.513   3.198  14.748 -0.2025 -0.1844  0.3300
 1348POSM   C4B15815  16.426   3.320  14.281  0.1335 -0.1112 -0.0192
 1349POSM   NC315816  13.801   7.695  15.899  0.1009 -0.1683  0.0388
 1349POSM   PO415817  14.174   7.625  15.947  0.1945 -0.3761  0.0418
 1349POSM   AM115818  14.334   7.878  15.759  0.0798 -0.1876  0.1507
 1349POSM   AM215819  14.567   8.008  15.659  0.2308  0.1196  0.1850
 1349POSM   T1A15820  14.221   8.044  15.247 -0.0059  0.0725  0.1071
 1349POSM   C2A15821  13.943   8.145  14.915  0.1200  0.0403 -0.0756
 1349POSM   C3A15822  13.508   8.209  14.897 -0.1507  0.1422  0.0877
 1349POSM   C1B15823  14.844   8.128  15.537 -0.0524 -0.1213 -0.5938
 1349POSM   D2B15824  15.159   8.247  15.285  0.0552  0.0238 -0.1044
 1349POSM   C3B15825  15.106   8.014  14.892  0.1769 -0.0983 -0.0006
 1349POSM   C4B15826  15.180   7.637  14.545  0.1781  0.2197 -0.2534
 1350DOPE   NH315827  23.261   8.081  16.236 -0.0407 -0.0372  0.0664
 1350DOPE   PO415828  23.318   7.783  16.251  0.1279 -0.4299 -0.0019
 1350DOPE   GL115829  23.259   7.707  15.944  0.1193  0.0049 -0.0146
 1350DOPE   GL215830  23.454   7.592  15.804  0.1909 -0.0860  0.0469
 1350DOPE   C1A15831  23.202   8.009  15.641 -0.0903 -0.0788 -0.1763
 1350DOPE   D2A15832  22.922   8.357  15.380  0.0584  0.1875  0.1711
 1350DOPE   C3A15833  22.955   8.356  14.907  0.0032 -0.2335 -0.0363
 1350DOPE   C4A15834  22.939   8.197  14.504 -0.1671  0.0408 -0.1376
 1350DOPE   C1B15835  23.478   7.730  15.352 -0.1910 -0.2003 -0.0878
 1350DOPE   D2B15836  23.274   7.857  14.960 -0.0761  0.1933 -0.3382
 1350DOPE   C3B15837  23.507   7.979  14.526  0.2033 -0.1562 -0.1762
 1350DOPE   C4B15838  23.335   8.124  14.105  0.1394 -0.0598 -0.1021
 1351DOPE   NH315839  12.999   7.301  16.048  0.0344 -0.1394  0.1924
 1351DOPE   PO415840  13.219   7.373  15.832 -0.1055  0.1201 -0.1359
 1351DOPE   GL115841  13.076   7.490  15.484 -0.0503 -0.6010  0.1429
 1351DOPE   GL215842  12.848   7.331  15.431 -0.1292 -0.1265 -0.3106
 1351DOPE   C1A15843  13.229   7.510  15.016 -0.0084  0.2228 -0.1717
 1351DOPE   D2A15844  13.036   7.525  14.646  0.0264  0.1746 -0.2657
 1351DOPE   C3A15845  12.922   7.460  14.263 -0.0079  0.1378 -0.0803
 1351DOPE   C4A15846  13.290   7.458  13.976  0.2222  0.2165  0.1209
 1351DOPE   C1B15847  12.807   7.054  15.107 -0.0885  0.3366 -0.0276
 1351DOPE   D2B15848  12.728   6.624  14.933 -0.1203 -0.0383  0.1707
 1351DOPE   C3B15849  12.509   6.590  14.513  0.1398  0.0409  0.1008
 1351DOPE   C4B15850  12.338   6.660  14.087 -0.1835 -0.0213 -0.2087
 1352DOPS   CNO15851  22.588   1.093  16.005  0.0470 -0.1164 -0.2899
 1352DOPS   PO415852  22.400   0.852  15.720  0.0421  0.0315  0.0846
 1352DOPS   GL115853  22.306   0.593  15.508 -0.0227  0.0014  0.0390
 1352DOPS   GL215854  22.436   0.684  15.228 -0.0010  0.1152 -0.1870
 1352DOPS   C1A15855  22.079   0.185  15.420 -0.1873 -0.0243  0.2375
 1352DOPS   D2A15856  22.159  -0.244  15.228 -0.0667  0.0389  0.1835
 1352DOPS   C3A15857  21.889  -0.343  14.861  0.1380 -0.0093 -0.0857
 1352DOPS   C4A15858  21.476  -0.360  14.701 -0.0716 -0.0689  0.2398
 1352DOPS   C1B15859  22.410   0.791  14.784  0.4614 -0.0787 -0.0149
 1352DOPS   D2B15860  22.265   1.009  14.388 -0.0894  0.1258 -0.2024
 1352DOPS   C3B15861  22.057   0.726  14.117  0.1398 -0.0159 -0.5638
 1352DOPS   C4B15862  22.030   0.328  14.023 -0.0261  0.1087 -0.0416
 1353DOPS   CNO15863  11.921   5.045  15.306  0.0917  0.0727 -0.2013
 1353DOPS   PO415864  11.967   4.664  15.355  0.2443  0.4169 -0.2295
 1353DOPS   GL115865  11.823   4.683  15.003  0.0355  0.1787  0.3639
 1353DOPS   GL215866  11.960   4.832  14.746  0.0725  0.1297 -0.0234
 1353DOPS   C1A15867  11.900   4.406  14.564  0.1434  0.2596 -0.0111
 1353DOPS   D2A15868  11.575   4.321  14.210 -0.0188  0.1323 -0.1338
 1353DOPS   C3A15869  11.211   4.171  14.041  0.3151 -0.0141  0.0934
 1353DOPS   C4A15870  10.813   4.011  13.983  0.1747 -0.3726  0.0169
 1353DOPS   C1B15871  11.900   4.800  14.270  0.0534  0.2692  0.1233
 1353DOPS   D2B15872  11.712   4.893  13.822 -0.0094  0.0641  0.0696
 1353DOPS   C3B15873  11.685   5.313  13.562 -0.1680 -0.0766  0.1319
 1353DOPS   C4B15874  11.613   5.522  13.187  0.0309  0.2413  0.2304
 1354DOPE   NH315875  15.431   9.996  15.252 -0.0139 -0.1073 -0.3274
 1354DOPE   PO415876  15.419  10.269  15.123  0.0247 -0.1918  0.0052
 1354DOPE   GL115877  15.291  10.176  14.774  0.2371 -0.1865  0.4458
 1354DOPE   GL215878  15.439   9.893  14.744  0.0251 -0.2161 -0.1523
 1354DOPE   C1A15879  15.234  10.082  14.314  0.0407  0.2831  0.3706
 1354DOPE   D2A15880  15.081   9.769  13.977  0.2132 -0.4117 -0.2789
 1354DOPE   C3A15881  14.692   9.512  13.923 -0.0426 -0.1452 -0.1133
 1354DOPE   C4A15882  14.545   9.104  13.780  0.1043  0.4032 -0.4289
 1354DOPE   C1B15883  15.427   9.589  14.344 -0.1246 -0.0049  0.1020
 1354DOPE   D2B15884  15.574   9.365  13.906 -0.0017  0.1687  0.0418
 1354DOPE   C3B15885  15.899   9.442  13.687 -0.1200 -0.0629 -0.4071
 1354DOPE   C4B15886  16.262   9.700  13.585  0.2779 -0.0063  0.0469
 1355DOPC   NC315887  16.446  10.173  15.153 -0.0518  0.1257  0.0164
 1355DOPC   PO415888  16.298  10.521  15.259  0.1041  0.2455 -0.2153
 1355DOPC   GL115889  16.146  10.436  14.865 -0.1281 -0.1882  0.0613
 1355DOPC   GL215890  16.431  10.469  14.769  0.2863 -0.1350 -0.1651
 1355DOPC   C1A15891  16.076  10.557  14.386  0.1945 -0.1563  0.1247
 1355DOPC   D2A15892  15.957  10.555  13.945  0.3239 -0.2862  0.1042
 1355DOPC   C3A15893  16.209  10.602  13.570  0.1352  0.4562  0.1822
 1355DOPC   C4A15894  16.587  10.578  13.319 -0.1963 -0.0459  0.0525
 1355DOPC   C1B15895  16.721  10.584  14.433  0.1196 -0.2981  0.1261
 1355DOPC   D2B15896  17.043  10.709  14.183 -0.0378  0.0324  0.0627
 1355DOPC   C3B15897  17.448  10.455  14.143 -0.2994 -0.0149 -0.0099
 1355DOPC   C4B15898  17.744  10.146  14.347  0.0343  0.4672  0.3417
 1356DOPE   NH315899  17.341   8.630  15.681  0.1423  0.0439 -0.0437
 1356DOPE   PO415900  17.486   8.816  15.475 -0.2122 -0.1542 -0.2699
 1356DOPE   GL115901  17.295   8.588  15.096 -0.0613 -0.6190 -0.3948
 1356DOPE   GL215902  17.382   8.785  14.919  0.2987  0.4039  0.0583
 1356DOPE   C1A15903  17.577   8.312  14.814 -0.1928  0.0524 -0.0393
 1356DOPE   D2A15904  17.843   7.968  14.601 -0.2208  0.4186 -0.3206
 1356DOPE   C3A15905  18.245   8.183  14.567 -0.3375 -0.1172 -0.3900
 1356DOPE   C4A15906  18.573   8.082  14.855 -0.0530  0.0650  0.1855
 1356DOPE   C1B15907  17.536   8.688  14.478  0.0058 -0.0819 -0.1446
 1356DOPE   D2B15908  17.266   8.644  14.119 -0.0370 -0.1328  0.0179
 1356DOPE   C3B15909  17.227   8.748  13.689 -0.0221  0.2227 -0.0268
 1356DOPE   C4B15910  16.934   8.575  13.435 -0.0833 -0.2888  0.2152
 1357DOPC   NC315911  11.277   3.726  14.904  0.3901 -0.0715 -0.2293
 1357DOPC   PO415912  11.165   3.350  14.976  0.2172  0.1290  0.2377
 1357DOPC   GL115913  11.213   3.275  14.604 -0.1036  0.1113  0.1336
 1357DOPC   GL215914  11.428   3.360  14.556  0.0689  0.0320  0.0539
 1357DOPC   C1A15915  11.189   3.096  14.186 -0.0965  0.1612  0.0246
 1357DOPC   D2A15916  11.006   3.059  13.790 -0.0643 -0.0253  0.1461
 1357DOPC   C3A15917  10.889   2.702  13.561  0.2318 -0.1747  0.1900
 1357DOPC   C4A15918  10.928   2.746  13.138 -0.1189  0.2456  0.2901
 1357DOPC   C1B15919  11.601   3.508  14.122 -0.0161 -0.1850 -0.1085
 1357DOPC   D2B15920  11.767   3.908  13.976  0.0245 -0.0331  0.0875
 1357DOPC   C3B15921  11.886   4.044  13.543  0.1480  0.1279 -0.1607
 1357DOPC   C4B15922  12.036   4.193  13.112  0.2288  0.2774 -0.1354
 1358DOPE   NH315923  21.380   4.483  15.621  0.1180 -0.0466  0.1165
 1358DOPE   PO415924  21.113   4.589  15.747  0.2153  0.1420  0.2301
 1358DOPE   GL115925  20.912   4.476  15.485 -0.1376 -0.3415  0.2149
 1358DOPE   GL215926  20.737   4.664  15.309 -0.0227  0.0207  0.2077
 1358DOPE   C1A15927  20.891   4.269  15.072 -0.0351 -0.1571  0.1107
 1358DOPE   D2A15928  20.947   4.371  14.548  0.2330 -0.0056 -0.1554
 1358DOPE   C3A15929  21.305   4.314  14.244 -0.1814  0.2523 -0.1424
 1358DOPE   C4A15930  21.532   4.058  13.902 -0.0102  0.0381  0.2515
 1358DOPE   C1B15931  20.756   4.823  14.868 -0.2074 -0.2708  0.2010
 1358DOPE   D2B15932  20.631   5.220  14.634 -0.0430 -0.2281 -0.0033
 1358DOPE   C3B15933  20.516   5.071  14.163 -0.2915  0.1476  0.3138
 1358DOPE   C4B15934  20.514   4.995  13.752 -0.1369 -0.2020  0.0209
 1359DOPE   NH315935  21.014   8.512  15.905 -0.0884  0.2244 -0.0026
 1359DOPE   PO415936  20.916   8.234  15.977  0.2681 -0.0728  0.0851
 1359DOPE   GL115937  21.166   8.086  15.676 -0.0628  0.2278 -0.2561
 1359DOPE   GL215938  21.292   7.791  15.720 -0.3853 -0.4061  0.2583
 1359DOPE   C1A15939  21.111   8.346  15.292 -0.1082  0.2410 -0.2840
 1359DOPE   D2A15940  20.906   8.216  14.908  0.1151 -0.1304 -0.3316
 1359DOPE   C3A15941  21.060   8.271  14.479 -0.2798 -0.2154 -0.2000
 1359DOPE   C4A15942  21.380   7.991  14.274 -0.1485  0.1322  0.1059
 1359DOPE   C1B15943  21.143   7.749  15.262 -0.0733 -0.0190 -0.3768
 1359DOPE   D2B15944  21.034   7.740  14.817  0.3109 -0.0735 -0.0746
 1359DOPE   C3B15945  20.726   7.929  14.473  0.3077  0.1562 -0.3004
 1359DOPE   C4B15946  20.918   7.986  14.006 -0.3621  0.0484 -0.2802
 1360DOPC   NC315947  14.335  34.636  15.519  0.1330  0.0191 -0.1613
 1360DOPC   PO415948  13.951  34.593  15.360  0.1981 -0.1011 -0.0120
 1360DOPC   GL115949  13.832  34.790  15.057  0.2872  0.1046 -0.6629
 1360DOPC   GL215950  13.581  34.953  15.143 -0.2684  0.1273  0.0121
 1360DOPC   C1A15951  14.136  34.828  14.690  0.2060 -0.1700  0.1152
 1360DOPC   D2A15952  14.376  34.847  14.294 -0.1323  0.4428  0.1384
 1360DOPC   C3A15953  14.698  34.620  14.021  0.0019  0.1310  0.1072
 1360DOPC   C4A15954  15.057  34.352  13.790 -0.1786  0.1443  0.1948
 1360DOPC   C1B15955  13.306  34.694  14.813  0.4429  0.0017  0.0734
 1360DOPC   D2B15956  13.163  34.414  14.489 -0.0114 -0.2306  0.0152
 1360DOPC   C3B15957  13.382  34.449  14.119  0.3431  0.1891 -0.1737
 1360DOPC   C4B15958  13.574  34.479  13.715 -0.1076  0.2793  0.1341
 1361DOPC   NC315959  21.784   3.751  16.104 -0.1969 -0.3678  0.3884
 1361DOPC   PO415960  21.989   3.647  15.780 -0.2533  0.0040 -0.0434
 1361DOPC   GL115961  22.113   3.708  15.449 -0.1261 -0.1432 -0.0844
 1361DOPC   GL215962  21.881   3.772  15.283  0.0469  0.2431  0.1219
 1361DOPC   C1A15963  22.302   3.727  15.034 -0.1652 -0.1919  0.4240
 1361DOPC   D2A15964  22.443   3.728  14.587 -0.0511  0.1242 -0.1829
 1361DOPC   C3A15965  22.390   3.506  14.186 -0.0537  0.1779  0.1221
 1361DOPC   C4A15966  22.488   3.092  14.059 -0.1171  0.0083  0.2883
 1361DOPC   C1B15967  21.486   3.610  15.161 -0.3462  0.3509 -0.0659
 1361DOPC   D2B15968  21.180   3.292  15.085 -0.0454 -0.0016 -0.1530
 1361DOPC   C3B15969  20.931   3.369  14.732  0.1396 -0.1476 -0.3326
 1361DOPC   C4B15970  20.842   3.464  14.302  0.0088  0.0138 -0.0178
 1362DOPE   NH315971  19.291   1.707  16.130  0.3721  0.1221  0.0191
 1362DOPE   PO415972  19.030   1.865  16.160 -0.1704 -0.2119 -0.2438
 1362DOPE   GL115973  18.874   1.971  15.797  0.2161 -0.0912 -0.3578
 1362DOPE   GL215974  19.018   1.808  15.634  0.5922  0.0394 -0.0563
 1362DOPE   C1A15975  18.582   1.983  15.420  0.0480 -0.1719  0.4784
 1362DOPE   D2A15976  18.450   2.042  14.990  0.2643 -0.3057 -0.1750
 1362DOPE   C3A15977  18.605   1.806  14.592 -0.1883 -0.0329 -0.0165
 1362DOPE   C4A15978  18.444   1.483  14.289  0.0454 -0.0166  0.0280
 1362DOPE   C1B15979  19.199   2.133  15.443  0.4455 -0.2501 -0.0968
 1362DOPE   D2B15980  19.432   2.475  15.522 -0.2291  0.1894  0.0840
 1362DOPE   C3B15981  19.128   2.737  15.291 -0.2808  0.1552 -0.3263
 1362DOPE   C4B15982  18.776   2.840  14.974 -0.2472  0.3069 -0.1085
 1363DOPE   NH315983  22.971   6.601  16.447 -0.0761 -0.3027  0.3791
 1363DOPE   PO415984  23.228   6.777  16.447 -0.2246  0.0370  0.0786
 1363DOPE   GL115985  23.145   6.871  16.031  0.0685 -0.0582  0.2935
 1363DOPE   GL215986  23.351   7.004  15.878  0.2093  0.2062 -0.1432
 1363DOPE   C1A15987  22.785   6.661  15.790 -0.0332  0.2362  0.3935
 1363DOPE   D2A15988  22.637   6.403  15.409 -0.1877  0.0152 -0.0393
 1363DOPE   C3A15989  23.003   6.473  15.130  0.0030  0.0723  0.0615
 1363DOPE   C4A15990  23.274   6.802  14.947 -0.0450  0.0284 -0.0424
 1363DOPE   C1B15991  23.193   6.733  15.521  0.0616  0.0544 -0.2052
 1363DOPE   D2B15992  22.855   6.913  15.233  0.2189 -0.1157  0.0989
 1363DOPE   C3B15993  22.837   6.782  14.744  0.2584 -0.1516 -0.1986
 1363DOPE   C4B15994  22.521   6.685  14.441  0.1641 -0.1726 -0.1475
 1364DOPS   CNO15995  13.320   5.041  15.825 -0.1090 -0.1827  0.0379
 1364DOPS   PO415996  13.497   5.134  15.492 -0.3059  0.2205  0.0923
 1364DOPS   GL115997  13.626   5.097  15.068 -0.0202  0.0056 -0.0162
 1364DOPS   GL215998  13.324   5.015  15.044  0.1431 -0.2045 -0.3472
 1364DOPS   C1A15999  13.777   5.129  14.629 -0.1718 -0.1088 -0.4840
 1364DOPS   D2A16000  13.619   5.065  14.231  0.1421  0.0500  0.1519
 1364DOPS   C3A16001  13.614   5.495  13.998 -0.1639  0.0793  0.3554
 1364DOPS   C4A16002  13.694   5.959  14.080 -0.0596 -0.2287  0.0715
 1364DOPS   C1B16003  13.305   4.944  14.569 -0.3140 -0.0898 -0.1293
 1364DOPS   D2B16004  13.315   4.555  14.405  0.1740  0.1060 -0.0243
 1364DOPS   C3B16005  13.369   4.617  13.989  0.3089 -0.0341 -0.0116
 1364DOPS   C4B16006  13.479   4.895  13.593  0.0366  0.1063 -0.0860
 1365POSM   NC316007  15.710  10.470  14.738  0.0398  0.2136 -0.4580
 1365POSM   PO416008  15.821  10.639  15.073 -0.2736 -0.2822 -0.0684
 1365POSM   AM116009  16.073  10.837  14.955  0.0566  0.1158 -0.2705
 1365POSM   AM216010  16.160  10.898  14.716 -0.1549  0.1275  0.0498
 1365POSM   T1A16011  16.319  11.267  15.006 -0.0872  0.1475  0.2059
 1365POSM   C2A16012  16.108  11.655  14.839 -0.0093  0.0345 -0.1065
 1365POSM   C3A16013  15.741  11.886  14.716 -0.2651 -0.0460  0.0251
 1365POSM   C1B16014  16.414  11.062  14.549 -0.0942  0.2952 -0.0304
 1365POSM   D2B16015  16.809  11.202  14.447 -0.2726  0.3510  0.1697
 1365POSM   C3B16016  17.179  10.935  14.648  0.3008  0.2710 -0.3046
 1365POSM   C4B16017  17.354  10.866  15.044 -0.0225  0.2705 -0.1126
 1366DOPC   NC316018  11.901   5.633  15.397 -0.0128  0.0279  0.0183
 1366DOPC   PO416019  11.585   5.506  15.297 -0.2180 -0.2576  0.0041
 1366DOPC   GL116020  11.759   5.590  14.971  0.1184  0.3764 -0.2984
 1366DOPC   GL216021  11.720   5.897  14.943 -0.0492 -0.1680 -0.1532
 1366DOPC   C1A16022  11.644   5.654  14.535  0.1115 -0.1385  0.1170
 1366DOPC   D2A16023  11.588   6.019  14.255 -0.0503  0.3127 -0.1359
 1366DOPC   C3A16024  11.966   5.956  14.051  0.0512 -0.1089  0.1633
 1366DOPC   C4A16025  12.370   6.101  14.178  0.1266 -0.1632 -0.1089
 1366DOPC   C1B16026  11.749   6.279  14.787 -0.0522 -0.0568  0.2672
 1366DOPC   D2B16027  12.056   6.331  14.437  0.0142  0.0138 -0.2739
 1366DOPC   C3B16028  12.012   6.811  14.362 -0.2338 -0.3256 -0.3093
 1366DOPC   C4B16029  11.700   7.142  14.189  0.3158  0.3143 -0.0848
 1367DOPC   NC316030  15.138   3.323  15.631 -0.1843 -0.2962  0.1220
 1367DOPC   PO416031  15.208   3.666  15.430  0.1815  0.0234 -0.1664
 1367DOPC   GL116032  15.376   3.748  15.150  0.4375  0.2133 -0.0726
 1367DOPC   GL216033  15.072   3.658  14.947  0.4862  0.0123  0.0538
 1367DOPC   C1A16034  15.502   3.590  14.725  0.0161  0.2789  0.0434
 1367DOPC   D2A16035  15.451   3.324  14.298  0.0185 -0.0978  0.0178
 1367DOPC   C3A16036  15.328   3.668  14.034  0.0922 -0.0109 -0.0686
 1367DOPC   C4A16037  15.290   3.689  13.620 -0.0711  0.0298  0.2788
 1367DOPC   C1B16038  15.010   3.600  14.468 -0.0402 -0.2259 -0.1101
 1367DOPC   D2B16039  14.782   3.280  14.213 -0.2781 -0.0739 -0.1948
 1367DOPC   C3B16040  15.009   2.980  13.960 -0.0681 -0.0522  0.0515
 1367DOPC   C4B16041  15.442   2.982  13.866  0.0266 -0.3631  0.0140
 1368DOPS   CNO16042  13.984   1.476  15.726 -0.0811 -0.2665 -0.1052
 1368DOPS   PO416043  14.331   1.449  15.588  0.3550 -0.2520 -0.1602
 1368DOPS   GL116044  14.332   1.283  15.284  0.2980 -0.3408  0.3188
 1368DOPS   GL216045  14.118   1.202  15.178 -0.0397 -0.1077  0.1030
 1368DOPS   C1A16046  14.566   1.022  15.010  0.5079 -0.2450 -0.3077
 1368DOPS   D2A16047  14.614   0.605  14.815  0.0625  0.1435 -0.2026
 1368DOPS   C3A16048  15.033   0.368  14.895  0.0998 -0.2054  0.0871
 1368DOPS   C4A16049  15.275   0.332  15.281 -0.1227 -0.1493 -0.0270
 1368DOPS   C1B16050  14.043   1.171  14.778 -0.0701 -0.2123  0.0247
 1368DOPS   D2B16051  14.026   1.320  14.344  0.0868 -0.0204 -0.0463
 1368DOPS   C3B16052  14.335   1.632  14.300 -0.1706  0.0794  0.2207
 1368DOPS   C4B16053  14.770   1.782  14.396  0.0733  0.1206  0.0388
 1369DOPC   NC316054  21.824  10.821  15.918 -0.0573  0.0841  0.0233
 1369DOPC   PO416055  21.493  10.824  15.721  0.1371  0.1776 -0.0589
 1369DOPC   GL116056  21.638  11.045  15.458 -0.2882 -0.2965 -0.1202
 1369DOPC   GL216057  21.674  11.345  15.579 -0.0301  0.3185  0.2508
 1369DOPC   C1A16058  21.625  11.322  15.113 -0.1913 -0.1799 -0.0586
 1369DOPC   D2A16059  21.734  11.696  14.839 -0.0720 -0.2376 -0.3042
 1369DOPC   C3A16060  21.517  11.564  14.485  0.0618 -0.2526  0.0956
 1369DOPC   C4A16061  21.511  11.665  14.067  0.3048 -0.1531  0.0968
 1369DOPC   C1B16062  21.264  11.551  15.342 -0.3031  0.1320 -0.1732
 1369DOPC   D2B16063  20.985  11.668  14.981  0.0764  0.1223 -0.1465
 1369DOPC   C3B16064  20.958  11.435  14.621 -0.0845  0.0683  0.0936
 1369DOPC   C4B16065  20.956  11.655  14.180 -0.3251  0.0630 -0.0145
 1370POSM   NC316066  19.963   4.099  15.949 -0.4512  0.1288 -0.0281
 1370POSM   PO416067  20.260   4.371  16.048 -0.1655  0.3974 -0.0156
 1370POSM   AM116068  20.256   4.413  15.704 -0.1362 -0.4730  0.1105
 1370POSM   AM216069  19.984   4.465  15.536 -0.1091  0.0876 -0.2149
 1370POSM   T1A16070  20.405   4.204  15.274 -0.1836  0.0377  0.0655
 1370POSM   C2A16071  20.577   3.783  15.328 -0.2230  0.1090  0.0375
 1370POSM   C3A16072  20.476   3.483  15.640 -0.2657  0.3742  0.2698
 1370POSM   C1B16073  19.870   4.400  15.216 -0.0037 -0.2420  0.3134
 1370POSM   D2B16074  19.766   4.515  14.773  0.2865 -0.1893  0.0472
 1370POSM   C3B16075  20.042   4.838  14.587  0.0143  0.1452  0.2542
 1370POSM   C4B16076  20.172   5.294  14.477  0.2102 -0.0068  0.0007
 1371DOPC   NC316077  17.481   0.726  16.372 -0.2766 -0.2767  0.0556
 1371DOPC   PO416078  17.439   1.010  16.078 -0.1164 -0.1278  0.0951
 1371DOPC   GL116079  17.499   0.946  15.680  0.0813 -0.0021 -0.1430
 1371DOPC   GL216080  17.399   1.226  15.625  0.1598  0.0592  0.2157
 1371DOPC   C1A16081  17.384   0.819  15.242 -0.0405 -0.1146 -0.3436
 1371DOPC   D2A16082  17.386   0.702  14.777  0.0249  0.1701  0.0531
 1371DOPC   C3A16083  17.346   1.065  14.424 -0.4144 -0.0000 -0.2362
 1371DOPC   C4A16084  17.122   1.367  14.107  0.1343 -0.1941 -0.1592
 1371DOPC   C1B16085  17.668   1.203  15.248  0.0048 -0.2311  0.0005
 1371DOPC   D2B16086  17.747   1.154  14.794 -0.0497  0.3618 -0.0598
 1371DOPC   C3B16087  17.864   0.835  14.470  0.1491  0.1242  0.0605
 1371DOPC   C4B16088  18.123   0.970  14.156 -0.3015 -0.0392  0.3698
 1372DOPC   NC316089  21.307  33.868  15.485 -0.2766  0.1439  0.4773
 1372DOPC   PO416090  21.119  34.106  15.215  0.2158  0.0743 -0.2586
 1372DOPC   GL116091  21.007  34.477  14.968 -0.2577 -0.0765  0.3142
 1372DOPC   GL216092  20.728  34.645  15.005 -0.0096 -0.2477  0.0596
 1372DOPC   C1A16093  20.932  34.600  14.527 -0.1114  0.1648 -0.0576
 1372DOPC   D2A16094  20.558  34.600  14.317  0.2450 -0.0788 -0.2064
 1372DOPC   C3A16095  20.179  34.273  14.254 -0.0836  0.0954  0.0065
 1372DOPC   C4A16096  20.018  33.984  13.957 -0.1377 -0.2110  0.1729
 1372DOPC   C1B16097  20.334  34.840  14.725 -0.4423 -0.2326 -0.0040
 1372DOPC   D2B16098  20.074  34.889  14.342  0.4659  0.0567 -0.2677
 1372DOPC   C3B16099  19.684  35.158  14.255  0.1577 -0.1058  0.0080
 1372DOPC   C4B16100  19.539  35.577  14.016 -0.1556 -0.0432  0.2636
 1373DOPE   NH316101  17.012  33.944  16.126  0.0751 -0.0937 -0.0174
 1373DOPE   PO416102  17.066  33.680  15.946 -0.3540  0.1230 -0.1313
 1373DOPE   GL116103  17.029  33.732  15.540 -0.1715  0.0692  0.1377
 1373DOPE   GL216104  17.314  33.795  15.480 -0.1993 -0.0517  0.2420
 1373DOPE   C1A16105  17.135  33.584  15.088 -0.3434 -0.0491 -0.1756
 1373DOPE   D2A16106  17.096  33.356  14.711  0.0405 -0.0821 -0.1651
 1373DOPE   C3A16107  17.409  33.201  14.456  0.2177  0.4009  0.2642
 1373DOPE   C4A16108  17.636  33.251  14.101 -0.3655 -0.1341  0.0524
 1373DOPE   C1B16109  17.733  33.618  15.425 -0.2919 -0.3032 -0.0191
 1373DOPE   D2B16110  18.114  33.745  15.161 -0.0076 -0.1763 -0.0114
 1373DOPE   C3B16111  18.128  33.980  14.784  0.2931  0.0637  0.0134
 1373DOPE   C4B16112  18.005  34.147  14.378  0.0433  0.1654 -0.0690
 1374POSM   NC316113  21.942   0.627  15.784 -0.2168 -0.1168 -0.1716
 1374POSM   PO416114  21.658   0.871  15.664 -0.1311 -0.0261 -0.1422
 1374POSM   AM116115  21.531   1.072  15.403  0.1134  0.0568  0.3506
 1374POSM   AM216116  21.698   1.206  15.230  0.4757 -0.0494  0.0400
 1374POSM   T1A16117  21.206   1.098  15.058 -0.2779 -0.0614  0.1212
 1374POSM   C2A16118  21.106   1.221  14.636  0.0817 -0.1239 -0.1250
 1374POSM   C3A16119  20.978   0.917  14.254 -0.0072  0.0916 -0.2013
 1374POSM   C1B16120  21.679   1.201  14.914 -0.2072 -0.0241 -0.3362
 1374POSM   D2B16121  21.526   1.170  14.465  0.3422 -0.0073  0.3018
 1374POSM   C3B16122  21.287   1.405  14.209  0.0295  0.1762 -0.4675
 1374POSM   C4B16123  21.017   1.395  13.869  0.1012 -0.1699  0.2865
 1375POSM   NC316124  13.400   6.568  15.675 -0.1691 -0.3231  0.1328
 1375POSM   PO416125  13.183   6.899  15.715  0.1333  0.0113 -0.1353
 1375POSM   AM116126  13.363   6.998  15.477 -0.0347 -0.1760 -0.2110
 1375POSM   AM216127  13.472   7.282  15.433  0.0321  0.2063  0.3209
 1375POSM   T1A16128  13.268   7.019  14.997 -0.0834  0.3163 -0.2319
 1375POSM   C2A16129  12.951   6.999  14.602 -0.4170 -0.3431 -0.3515
 1375POSM   C3A16130  12.861   6.820  14.184  0.2791  0.4823  0.0317
 1375POSM   C1B16131  13.671   7.218  15.158 -0.0088 -0.2356  0.1288
 1375POSM   D2B16132  13.785   7.204  14.722 -0.2432 -0.1204  0.2325
 1375POSM   C3B16133  14.232   7.090  14.735 -0.0182  0.0021 -0.1759
 1375POSM   C4B16134  14.575   7.212  14.948 -0.0129 -0.0849 -0.4402
 1376DOPE   NH316135  13.015   1.723  15.335  0.0139  0.1113  0.1020
 1376DOPE   PO416136  12.968   1.901  15.086  0.2521  0.0834 -0.0170
 1376DOPE   GL116137  13.078   1.719  14.666  0.0206  0.2161 -0.2361
 1376DOPE   GL216138  13.252   1.692  14.587 -0.0285  0.4399  0.0278
 1376DOPE   C1A16139  12.882   1.800  14.233 -0.2615  0.0764 -0.2737
 1376DOPE   D2A16140  13.047   1.615  13.834 -0.1404 -0.1136  0.2209
 1376DOPE   C3A16141  13.080   1.768  13.419 -0.3221 -0.0861 -0.0575
 1376DOPE   C4A16142  13.373   1.796  13.081  0.0020 -0.0393  0.2374
 1376DOPE   C1B16143  13.452   1.657  14.189  0.3079  0.0066 -0.1725
 1376DOPE   D2B16144  13.570   1.587  13.760 -0.2417 -0.0365 -0.0880
 1376DOPE   C3B16145  14.058   1.472  13.703 -0.0140  0.1588 -0.1308
 1376DOPE   C4B16146  14.415   1.544  13.417 -0.0524 -0.4677 -0.0688
 1377POSM   NC316147  12.348   2.225  14.878  0.3671  0.3255 -0.1928
 1377POSM   PO416148  12.393   1.942  15.127 -0.3387 -0.1061  0.0105
 1377POSM   AM116149  12.553   1.765  14.859 -0.1446 -0.5069 -0.2960
 1377POSM   AM216150  12.694   1.887  14.655  0.0082  0.1665  0.0027
 1377POSM   T1A16151  12.721   1.448  14.490  0.0806  0.0079 -0.0076
 1377POSM   C2A16152  12.688   1.023  14.477 -0.1978 -0.0357 -0.3220
 1377POSM   C3A16153  12.776   0.726  14.182  0.1550  0.1216  0.0630
 1377POSM   C1B16154  12.461   1.997  14.450  0.0585 -0.1261 -0.3100
 1377POSM   D2B16155  12.226   2.131  14.110 -0.1261 -0.2128  0.0108
 1377POSM   C3B16156  12.426   2.491  13.898 -0.0700 -0.0005  0.1790
 1377POSM   C4B16157  12.410   2.933  13.748 -0.1076 -0.1478  0.0167
 1378DOPE   NH316158  15.358  10.803  15.062 -0.0027  0.0908 -0.2116
 1378DOPE   PO416159  15.489  11.019  15.265  0.0549  0.0692  0.0321
 1378DOPE   GL116160  15.682  11.020  14.865 -0.0867 -0.0446 -0.0514
 1378DOPE   GL216161  15.723  11.289  14.799  0.2817  0.1691  0.2034
 1378DOPE   C1A16162  15.725  10.903  14.429 -0.1317  0.1472 -0.0567
 1378DOPE   D2A16163  16.081  10.993  14.150  0.1759 -0.0946 -0.2543
 1378DOPE   C3A16164  16.546  10.956  14.098 -0.3838  0.0241  0.0353
 1378DOPE   C4A16165  16.836  11.081  13.791  0.0567  0.4307 -0.0351
 1378DOPE   C1B16166  15.791  11.395  14.426  0.2684  0.0674 -0.2020
 1378DOPE   D2B16167  15.840  11.403  13.963  0.0335 -0.0499 -0.2887
 1378DOPE   C3B16168  16.243  11.497  13.725  0.2605  0.2728  0.1214
 1378DOPE   C4B16169  16.209  11.823  13.339 -0.0037 -0.1061  0.1957
 1379POSM   NC316170  12.738   4.914  15.710 -0.3939 -0.1493  0.0958
 1379POSM   PO416171  12.543   5.257  15.620 -0.4120 -0.0330  0.2413
 1379POSM   AM116172  12.413   5.138  15.305  0.0424  0.0841 -0.2506
 1379POSM   AM216173  12.360   4.927  15.144  0.1083 -0.0795 -0.2135
 1379POSM   T1A16174  12.145   5.278  14.905  0.1064 -0.0079  0.2056
 1379POSM   C2A16175  12.066   5.225  14.458  0.0756  0.2398  0.0186
 1379POSM   C3A16176  12.062   5.212  13.966  0.1759  0.0425 -0.1583
 1379POSM   C1B16177  12.440   4.895  14.850  0.1798 -0.1759 -0.0227
 1379POSM   D2B16178  12.400   4.869  14.396  0.1576  0.0542  0.2029
 1379POSM   C3B16179  12.330   4.784  13.973  0.3013  0.1628  0.0881
 1379POSM   C4B16180  12.195   4.965  13.538 -0.0153 -0.0184  0.0332
 1380DOPS   CNO16181  22.584   2.421  15.914 -0.0638  0.3095  0.1819
 1380DOPS   PO416182  22.758   2.387  15.550 -0.3231  0.2887 -0.0234
 1380DOPS   GL116183  22.814   2.431  15.097  0.1736  0.3414 -0.0029
 1380DOPS   GL216184  22.621   2.206  15.062 -0.1687  0.0500 -0.0095
 1380DOPS   C1A16185  22.751   2.429  14.615 -0.1466  0.0150  0.1358
 1380DOPS   D2A16186  22.808   2.526  14.213  0.0260  0.2496  0.0692
 1380DOPS   C3A16187  22.782   2.128  13.989  0.0986 -0.0600  0.2443
 1380DOPS   C4A16188  23.025   1.786  13.822  0.6207 -0.1357  0.2234
 1380DOPS   C1B16189  22.827   1.961  14.788 -0.0307 -0.0348  0.1680
 1380DOPS   D2B16190  23.003   1.800  14.431 -0.2391  0.2840  0.2262
 1380DOPS   C3B16191  23.469   1.704  14.370  0.2617 -0.1521  0.2158
 1380DOPS   C4B16192  23.747   1.543  14.063  0.3097  0.2807  0.2257
 1381DOPC   NC316193  16.723   9.389  15.622  0.1381 -0.1247  0.1813
 1381DOPC   PO416194  16.828   9.715  15.400 -0.0249 -0.4340 -0.2149
 1381DOPC   GL116195  16.863   9.925  15.129  0.0371 -0.2530  0.0241
 1381DOPC   GL216196  16.703   9.675  14.930 -0.2762 -0.2795  0.0877
 1381DOPC   C1A16197  17.143   9.855  14.719 -0.3765  0.0936  0.0926
 1381DOPC   D2A16198  17.405   9.790  14.323  0.3036  0.0116  0.0524
 1381DOPC   C3A16199  17.320   9.668  13.905  0.0955 -0.1641  0.0081
 1381DOPC   C4A16200  17.347   9.684  13.444  0.1491  0.2288  0.0820
 1381DOPC   C1B16201  16.690  10.033  14.667 -0.0387  0.2691  0.3459
 1381DOPC   D2B16202  16.431  10.030  14.303 -0.0671  0.0756 -0.0858
 1381DOPC   C3B16203  16.703  10.032  13.909  0.1136  0.1853 -0.3574
 1381DOPC   C4B16204  17.087  10.094  13.723  0.2544  0.0730  0.3209
 1382DOPS   CNO16205  12.429   9.790  16.477  0.5124  0.3018 -0.1939
 1382DOPS   PO416206  12.677   9.726  16.233 -0.2108  0.0338 -0.1682
 1382DOPS   GL116207  12.391   9.739  15.984  0.1829  0.1849  0.1456
 1382DOPS   GL216208  12.291  10.003  16.008  0.0361 -0.2764 -0.0406
 1382DOPS   C1A16209  12.303   9.881  15.522 -0.1364  0.2123 -0.2061
 1382DOPS   D2A16210  12.400  10.277  15.319  0.1114  0.2297 -0.1732
 1382DOPS   C3A16211  12.086  10.157  14.985  0.0528 -0.1035  0.1761
 1382DOPS   C4A16212  12.141   9.812  14.721 -0.0742  0.2390  0.2132
 1382DOPS   C1B16213  11.915  10.292  16.080 -0.1506 -0.0796  0.2216
 1382DOPS   D2B16214  11.632  10.678  15.948  0.0229  0.2861 -0.4318
 1382DOPS   C3B16215  11.655  11.046  15.628 -0.2057  0.0328 -0.0627
 1382DOPS   C4B16216  11.495  11.300  15.267 -0.0860  0.0904 -0.2212
 1383DOPE   NH316217  21.460   8.964  15.719  0.0577 -0.0122 -0.0273
 1383DOPE   PO416218  21.143   8.949  15.712  0.0054 -0.0050  0.3302
 1383DOPE   GL116219  21.249   8.872  15.297 -0.0452 -0.1503  0.1142
 1383DOPE   GL216220  21.024   9.055  15.178  0.3231 -0.0249 -0.2924
 1383DOPE   C1A16221  21.547   8.989  14.965 -0.2884 -0.3699 -0.2658
 1383DOPE   D2A16222  21.892   9.140  14.685 -0.1377 -0.1241  0.0972
 1383DOPE   C3A16223  21.870   9.428  14.296  0.0940 -0.0227  0.0153
 1383DOPE   C4A16224  21.807   9.507  13.872  0.1369  0.0047  0.2294
 1383DOPE   C1B16225  20.671   9.033  14.863 -0.1083  0.1480  0.1750
 1383DOPE   D2B16226  20.377   8.808  14.554 -0.2518  0.2227  0.0290
 1383DOPE   C3B16227  20.159   8.582  14.257  0.1188 -0.0798  0.0519
 1383DOPE   C4B16228  19.751   8.286  14.282 -0.0095  0.0147 -0.2289
 1384DOPC   NC316229  13.918   5.959  15.648  0.3478 -0.1762  0.1411
 1384DOPC   PO416230  13.491   6.088  15.730 -0.2416  0.0423 -0.0888
 1384DOPC   GL116231  13.311   6.234  15.351  0.0335 -0.2512 -0.0154
 1384DOPC   GL216232  13.594   6.184  15.246 -0.2372  0.0635  0.0912
 1384DOPC   C1A16233  13.269   6.438  14.922 -0.2267  0.3132  0.3140
 1384DOPC   D2A16234  13.178   6.591  14.480 -0.1359 -0.0273  0.0937
 1384DOPC   C3A16235  13.496   6.830  14.267  0.0918 -0.0558 -0.1151
 1384DOPC   C4A16236  13.797   7.173  14.088  0.1152 -0.1840 -0.0268
 1384DOPC   C1B16237  13.449   5.996  14.877  0.0496 -0.0580 -0.0680
 1384DOPC   D2B16238  13.413   6.011  14.446  0.1937  0.3390 -0.3823
 1384DOPC   C3B16239  13.844   5.852  14.508  0.3328  0.2705 -0.0197
 1384DOPC   C4B16240  14.268   5.879  14.640 -0.0000  0.3118  0.0972
 1385DOPS   CNO16241  11.371   2.933  15.256  0.0165  0.2509 -0.0256
 1385DOPS   PO416242  11.619   2.639  15.103  0.0487 -0.2101 -0.0965
 1385DOPS   GL116243  11.631   2.677  14.733 -0.0247 -0.1467 -0.0935
 1385DOPS   GL216244  11.352   2.887  14.693 -0.3510 -0.1208  0.2468
 1385DOPS   C1A16245  11.704   2.950  14.331  0.2207 -0.0178 -0.0153
 1385DOPS   D2A16246  11.528   2.895  13.884  0.1492  0.1427 -0.0886
 1385DOPS   C3A16247  11.430   3.262  13.685 -0.1091  0.0092 -0.1255
 1385DOPS   C4A16248  11.492   3.622  13.432  0.3552 -0.0276  0.2019
 1385DOPS   C1B16249  11.341   2.562  14.375  0.0611  0.2412 -0.2168
 1385DOPS   D2B16250  11.260   2.498  13.962  0.0726  0.0920  0.1998
 1385DOPS   C3B16251  11.361   2.610  13.540  0.0555  0.0113  0.0012
 1385DOPS   C4B16252  11.468   2.785  13.153 -0.0265  0.1493  0.2757
 1386DOPC   NC316253  15.556   2.188  15.411 -0.1517  0.2946  0.2061
 1386DOPC   PO416254  15.260   2.366  15.542  0.0082  0.2272  0.0750
 1386DOPC   GL116255  14.989   2.463  15.158 -0.2043 -0.2628 -0.3650
 1386DOPC   GL216256  15.218   2.596  15.088  0.0504 -0.1260 -0.1831
 1386DOPC   C1A16257  14.960   2.166  14.783  0.2540 -0.3636  0.0199
 1386DOPC   D2A16258  15.264   2.011  14.483  0.0182  0.1970 -0.2311
 1386DOPC   C3A16259  15.253   2.044  14.031 -0.1052 -0.1394 -0.0535
 1386DOPC   C4A16260  15.368   2.208  13.573  0.1871 -0.0652  0.1313
 1386DOPC   C1B16261  15.596   2.819  15.015 -0.0213  0.1239 -0.0777
 1386DOPC   D2B16262  15.881   2.750  14.660  0.0403 -0.2146 -0.0977
 1386DOPC   C3B16263  15.708   2.710  14.229 -0.3069 -0.2189 -0.2994
 1386DOPC   C4B16264  15.937   2.840  13.821 -0.0662  0.1879  0.2617
 1387DOPE   NH316265  22.376   8.708  15.669 -0.0120  0.1395  0.0810
 1387DOPE   PO416266  22.049   8.770  15.757  0.1161  0.0343 -0.0415
 1387DOPE   GL116267  21.906   8.608  15.429 -0.1753  0.4982  0.2814
 1387DOPE   GL216268  21.907   8.798  15.262 -0.0283  0.1120 -0.0949
 1387DOPE   C1A16269  21.930   8.273  15.112 -0.3145 -0.1129 -0.1181
 1387DOPE   D2A16270  21.809   8.179  14.656 -0.1479  0.0248 -0.0674
 1387DOPE   C3A16271  21.533   8.477  14.492  0.0517  0.0416 -0.0187
 1387DOPE   C4A16272  21.493   8.924  14.305 -0.0736 -0.1335  0.1298
 1387DOPE   C1B16273  21.884   8.677  14.787  0.0293  0.0341 -0.2151
 1387DOPE   D2B16274  22.110   8.736  14.367 -0.3074  0.0083  0.4550
 1387DOPE   C3B16275  21.851   8.693  14.011 -0.1196 -0.5029 -0.1476
 1387DOPE   C4B16276  21.446   8.807  13.774 -0.1807 -0.0310 -0.0498
 1388POSM   NC316277  18.010   8.715  16.001  0.0179 -0.1146 -0.0678
 1388POSM   PO416278  17.824   8.509  15.747 -0.2742 -0.0763 -0.0611
 1388POSM   AM116279  17.912   8.463  15.389  0.0305  0.2455 -0.5367
 1388POSM   AM216280  17.816   8.581  15.167  0.1828  0.2531 -0.0177
 1388POSM   T1A16281  18.040   8.087  15.051 -0.1295 -0.0905  0.2170
 1388POSM   C2A16282  18.181   7.718  14.789 -0.3813 -0.1090  0.1977
 1388POSM   C3A16283  17.789   7.446  14.658 -0.3304 -0.0865  0.0037
 1388POSM   C1B16284  17.886   8.706  14.877 -0.1656  0.0610 -0.0126
 1388POSM   D2B16285  17.917   9.066  14.526 -0.3175  0.1456 -0.2041
 1388POSM   C3B16286  17.998   9.527  14.666  0.1987  0.0254 -0.4964
 1388POSM   C4B16287  18.041   9.976  14.705  0.1860  0.0365  0.2579
 1389DOPE   NH316288  15.932  10.260  15.447 -0.0294  0.3744 -0.0876
 1389DOPE   PO416289  15.952  10.129  15.136  0.0837  0.2686 -0.1517
 1389DOPE   GL116290  15.902  10.083  14.836  0.2841 -0.2488 -0.2936
 1389DOPE   GL216291  16.173   9.891  14.747 -0.0015 -0.1772  0.0568
 1389DOPE   C1A16292  15.817  10.080  14.389 -0.0146  0.2405  0.1042
 1389DOPE   D2A16293  15.838   9.850  14.026  0.1356 -0.1460 -0.2396
 1389DOPE   C3A16294  16.216   9.578  14.092 -0.0123 -0.1556  0.0184
 1389DOPE   C4A16295  16.538   9.270  14.059  0.2860  0.1999 -0.0822
 1389DOPE   C1B16296  15.923   9.609  14.484  0.2379  0.1799 -0.1734
 1389DOPE   D2B16297  15.929   9.198  14.191  0.0932  0.2768 -0.3083
 1389DOPE   C3B16298  16.204   8.843  14.025 -0.0533  0.0917 -0.0121
 1389DOPE   C4B16299  16.494   8.676  13.678 -0.2625  0.0550  0.1484
 1390POSM   NC316300  18.597   8.561  16.107 -0.2049 -0.3017 -0.1839
 1390POSM   PO416301  18.478   8.880  15.898  0.1161 -0.0949  0.1339
 1390POSM   AM116302  18.513   8.799  15.573 -0.0993  0.1355  0.0795
 1390POSM   AM216303  18.498   8.941  15.326  0.1634 -0.3398  0.1651
 1390POSM   T1A16304  18.353   8.474  15.223 -0.0814 -0.0744 -0.0534
 1390POSM   C2A16305  18.408   8.576  14.761 -0.0636 -0.2031  0.1390
 1390POSM   C3A16306  18.111   8.619  14.395  0.2166  0.1488  0.3186
 1390POSM   C1B16307  18.685   9.019  15.060  0.0228  0.2130 -0.3230
 1390POSM   D2B16308  19.086   9.264  14.998 -0.0688 -0.3053 -0.0262
 1390POSM   C3B16309  19.477   8.980  15.090 -0.0821 -0.2058  0.1542
 1390POSM   C4B16310  19.785   8.910  14.716 -0.0510  0.1030  0.0900
 1391DOPC   NC316311  19.464   4.311  15.811 -0.2170  0.0859  0.0822
 1391DOPC   PO416312  19.493   3.913  15.754 -0.0006  0.2307  0.2537
 1391DOPC   GL116313  19.361   4.113  15.379  0.0014  0.3885  0.0680
 1391DOPC   GL216314  19.510   3.896  15.190  0.1065 -0.0335 -0.0602
 1391DOPC   C1A16315  19.292   4.258  14.905 -0.3197 -0.3026  0.2651
 1391DOPC   D2A16316  19.203   4.121  14.550  0.3309 -0.1421  0.4152
 1391DOPC   C3A16317  19.612   4.180  14.305 -0.2527  0.1230 -0.1731
 1391DOPC   C4A16318  19.998   4.445  14.284 -0.0377  0.0881  0.0223
 1391DOPC   C1B16319  19.257   3.672  14.837  0.1309  0.2119  0.4170
 1391DOPC   D2B16320  19.100   3.674  14.428  0.2027  0.0532  0.0287
 1391DOPC   C3B16321  19.040   3.278  14.303 -0.1097  0.1928 -0.5933
 1391DOPC   C4B16322  18.953   2.927  14.023  0.3668  0.0761  0.0781
 1392DOPE   NH316323  18.102   9.594  16.362  0.2215 -0.0046 -0.1866
 1392DOPE   PO416324  18.035   9.690  16.124 -0.0996  0.0985  0.1836
 1392DOPE   GL116325  18.171   9.734  15.726 -0.4791 -0.0824  0.1057
 1392DOPE   GL216326  18.355   9.883  15.676  0.0262  0.0505  0.1982
 1392DOPE   C1A16327  18.053  10.191  15.547  0.1200  0.0359 -0.1031
 1392DOPE   D2A16328  18.156  10.599  15.542  0.0699  0.1756 -0.0998
 1392DOPE   C3A16329  18.446  10.716  15.263  0.3437  0.3104  0.1140
 1392DOPE   C4A16330  18.769  10.926  15.090  0.0722 -0.2402 -0.0221
 1392DOPE   C1B16331  18.509  10.264  15.497 -0.0967 -0.0990 -0.0119
 1392DOPE   D2B16332  18.691  10.596  15.802 -0.0780  0.1010  0.1972
 1392DOPE   C3B16333  18.787  10.986  15.641 -0.0516 -0.1269 -0.2140
 1392DOPE   C4B16334  19.047  11.242  15.378 -0.1502  0.1870  0.2095
 1393POSM   NC316335  18.359   0.969  16.134  0.1304 -0.1821 -0.1266
 1393POSM   PO416336  18.281   0.579  16.299  0.0597  0.1372 -0.2232
 1393POSM   AM116337  18.285   0.570  15.971  0.1145  0.1126 -0.2029
 1393POSM   AM216338  18.493   0.584  15.799 -0.0067  0.0469  0.1449
 1393POSM   T1A16339  18.084   0.425  15.519  0.1480 -0.0054 -0.2630
 1393POSM   C2A16340  18.240   0.212  15.142 -0.2521 -0.0932  0.0876
 1393POSM   C3A16341  18.187  -0.192  14.972  0.1663  0.0420  0.0765
 1393POSM   C1B16342  18.438   0.775  15.554 -0.0379 -0.0811 -0.0210
 1393POSM   D2B16343  18.340   0.717  15.093  0.2844 -0.3951  0.0321
 1393POSM   C3B16344  18.376   0.513  14.677 -0.0779  0.1164  0.0157
 1393POSM   C4B16345  18.063   0.399  14.321 -0.2087 -0.0880 -0.0130
 1394DOPE   NH316346  21.204   9.417  15.690  0.1012 -0.0216  0.1578
 1394DOPE   PO416347  21.097   9.632  15.468 -0.2265  0.0155  0.1337
 1394DOPE   GL116348  21.092   9.767  15.164 -0.2694 -0.0922  0.0936
 1394DOPE   GL216349  21.346   9.886  15.101  0.1918 -0.3084 -0.5021
 1394DOPE   C1A16350  20.844   9.937  14.830 -0.0953  0.1851  0.0464
 1394DOPE   D2A16351  20.577   9.842  14.434  0.0694 -0.0947 -0.1058
 1394DOPE   C3A16352  20.475  10.156  14.146 -0.1637 -0.0835 -0.0610
 1394DOPE   C4A16353  20.579  10.054  13.728 -0.1845 -0.1401 -0.1798
 1394DOPE   C1B16354  21.352   9.859  14.650  0.0851  0.2625 -0.2374
 1394DOPE   D2B16355  21.049   9.810  14.370  0.2365 -0.0226  0.2447
 1394DOPE   C3B16356  21.109   9.922  13.871  0.1726  0.2032  0.2205
 1394DOPE   C4B16357  21.001  10.159  13.467  0.0144 -0.0361  0.0983
 1395DOPE   NH316358  12.275   3.171  14.754  0.1328 -0.1644  0.2324
 1395DOPE   PO416359  12.099   3.422  14.929 -0.1547 -0.0068  0.1416
 1395DOPE   GL116360  12.237   3.709  14.855 -0.3318  0.0184 -0.1183
 1395DOPE   GL216361  12.519   3.648  14.982 -0.2447 -0.0965  0.4136
 1395DOPE   C1A16362  12.170   3.935  14.467  0.0238 -0.0290  0.3459
 1395DOPE   D2A16363  12.264   4.092  14.001  0.2285 -0.0694 -0.1148
 1395DOPE   C3A16364  11.958   4.430  13.907 -0.0731  0.0854  0.0075
 1395DOPE   C4A16365  11.857   4.525  13.423 -0.0055  0.0605  0.0814
 1395DOPE   C1B16366  12.563   3.703  14.557 -0.0235 -0.1336  0.0539
 1395DOPE   D2B16367  12.720   3.870  14.100 -0.2414  0.3378  0.1308
 1395DOPE   C3B16368  13.092   3.831  13.826 -0.0542  0.0766 -0.0096
 1395DOPE   C4B16369  13.352   3.967  13.481  0.0269  0.0225  0.0182
 1396DOPE   NH316370  19.126   6.779  16.356 -0.0116 -0.1775  0.0436
 1396DOPE   PO416371  19.388   6.952  16.296  0.0456 -0.0525 -0.0547
 1396DOPE   GL116372  19.450   6.702  15.986 -0.2528 -0.2281 -0.3116
 1396DOPE   GL216373  19.626   6.885  15.872  0.2810 -0.1482  0.0783
 1396DOPE   C1A16374  19.270   6.738  15.494 -0.1223  0.1604  0.1309
 1396DOPE   D2A16375  18.953   6.816  15.181 -0.1082 -0.1012  0.1201
 1396DOPE   C3A16376  19.061   7.149  14.850  0.1087 -0.1778  0.1820
 1396DOPE   C4A16377  19.202   7.565  14.769 -0.0734  0.2758  0.2513
 1396DOPE   C1B16378  19.709   7.058  15.442 -0.0475  0.3798 -0.1696
 1396DOPE   D2B16379  19.558   7.162  15.101  0.2939  0.0214  0.2892
 1396DOPE   C3B16380  19.445   6.789  14.858 -0.3163 -0.0029 -0.1217
 1396DOPE   C4B16381  19.298   6.364  14.637  0.1474 -0.1704  0.0020
 1397DOPE   NH316382  13.014   0.929  15.417 -0.0378 -0.1319  0.2294
 1397DOPE   PO416383  12.848   0.647  15.494 -0.0165  0.2435 -0.0028
 1397DOPE   GL116384  12.713   0.553  15.166  0.3487 -0.3318  0.0562
 1397DOPE   GL216385  12.886   0.774  14.874  0.4981  0.1499 -0.1884
 1397DOPE   C1A16386  12.357   0.291  15.035 -0.1669 -0.1915  0.2366
 1397DOPE   D2A16387  12.242  -0.099  14.918 -0.1842  0.3601  0.0281
 1397DOPE   C3A16388  11.893  -0.316  14.639  0.2710  0.1139 -0.2485
 1397DOPE   C4A16389  11.846  -0.366  14.241 -0.2390  0.1961 -0.1350
 1397DOPE   C1B16390  13.211   0.737  14.550 -0.1116 -0.1869 -0.1262
 1397DOPE   D2B16391  13.485   0.633  14.192  0.2489 -0.2025 -0.1141
 1397DOPE   C3B16392  13.450   0.735  13.726  0.0821  0.4354  0.1000
 1397DOPE   C4B16393  13.753   1.085  13.546  0.1010  0.0475 -0.0531
 1398POSM   NC316394  20.313   2.150  15.836 -0.2545 -0.5025  0.0499
 1398POSM   PO416395  20.567   2.433  15.944  0.1111 -0.0315  0.0869
 1398POSM   AM116396  20.618   2.492  15.635  0.0794 -0.1756 -0.2652
 1398POSM   AM216397  20.679   2.745  15.500  0.0373  0.1938 -0.0194
 1398POSM   T1A16398  20.817   2.319  15.174 -0.1274  0.0751  0.0432
 1398POSM   C2A16399  21.006   2.495  14.751 -0.0662  0.2270 -0.1986
 1398POSM   C3A16400  21.256   2.890  14.704  0.0176  0.1865 -0.0668
 1398POSM   C1B16401  20.465   2.707  15.299  0.4886 -0.2627 -0.0455
 1398POSM   D2B16402  20.308   2.465  15.025 -0.1775 -0.3732 -0.1267
 1398POSM   C3B16403  20.536   2.460  14.628 -0.0119 -0.4676  0.3254
 1398POSM   C4B16404  20.885   2.150  14.394  0.3252 -0.0452  0.3592
 1399DOPE   NH316405  20.652   8.859  15.933 -0.0029 -0.1102 -0.0275
 1399DOPE   PO416406  20.493   8.591  15.904 -0.0124 -0.2451 -0.0714
 1399DOPE   GL116407  20.718   8.443  15.588 -0.1894  0.1146  0.1085
 1399DOPE   GL216408  20.769   8.736  15.466 -0.0735  0.3138  0.2860
 1399DOPE   C1A16409  20.701   8.041  15.418 -0.0803  0.0133  0.2750
 1399DOPE   D2A16410  20.388   7.700  15.535 -0.3883 -0.3542  0.1786
 1399DOPE   C3A16411  20.178   7.271  15.565 -0.0361 -0.0949  0.1884
 1399DOPE   C4A16412  20.101   6.807  15.636  0.1367 -0.1674 -0.2040
 1399DOPE   C1B16413  20.573   8.574  15.090 -0.1595  0.2386 -0.0373
 1399DOPE   D2B16414  20.441   8.330  14.691 -0.0665 -0.3458  0.1179
 1399DOPE   C3B16415  20.627   8.414  14.271 -0.2491  0.1063  0.0716
 1399DOPE   C4B16416  20.814   8.477  13.817  0.0445  0.0953 -0.2119
 1400DOPE   NH316417  20.995  10.855  15.913  0.0266 -0.0675  0.2222
 1400DOPE   PO416418  20.997  10.655  15.705  0.0431  0.0870 -0.0399
 1400DOPE   GL116419  20.978  10.735  15.256 -0.0039 -0.1162  0.1750
 1400DOPE   GL216420  21.273  10.651  15.287 -0.0509  0.0362  0.3668
 1400DOPE   C1A16421  20.658  10.894  14.942  0.1648  0.2844 -0.1292
 1400DOPE   D2A16422  20.434  11.023  14.571 -0.1236  0.2243  0.0918
 1400DOPE   C3A16423  20.446  10.748  14.206  0.0387 -0.1153  0.1070
 1400DOPE   C4A16424  20.657  10.554  13.830  0.0140 -0.1293 -0.1196
 1400DOPE   C1B16425  21.605  10.803  15.010  0.0474 -0.1082 -0.2604
 1400DOPE   D2B16426  21.840  10.669  14.675  0.0372 -0.1045  0.1969
 1400DOPE   C3B16427  21.562  10.722  14.327 -0.0832 -0.0529  0.3286
 1400DOPE   C4B16428  21.408  10.882  13.911 -0.0700 -0.1613 -0.0872
 1401POSM   NC316429  19.631   3.427  15.893  0.0392  0.0492 -0.1816
 1401POSM   PO416430  19.892   3.623  16.132  0.2120 -0.1373  0.1027
 1401POSM   AM116431  19.974   3.624  15.798 -0.0191  0.0002 -0.0392
 1401POSM   AM216432  20.111   3.769  15.562 -0.0024  0.0211 -0.2655
 1401POSM   T1A16433  19.816   3.380  15.394  0.1727 -0.1511  0.0477
 1401POSM   C2A16434  19.730   3.470  14.956 -0.2774 -0.5159  0.1714
 1401POSM   C3A16435  19.758   3.924  14.760 -0.0236  0.5404  0.0242
 1401POSM   C1B16436  20.090   3.792  15.236 -0.0145  0.0948 -0.0943
 1401POSM   D2B16437  20.232   4.002  14.809  0.1900  0.2900  0.3374
 1401POSM   C3B16438  20.118   3.957  14.314 -0.1491  0.0505 -0.1393
 1401POSM   C4B16439  19.876   3.754  13.923 -0.0744 -0.0862  0.1065
 1402DOPC   NC316440  15.859   8.039  16.136  0.3013 -0.2659 -0.3669
 1402DOPC   PO416441  15.608   7.792  16.016 -0.0265 -0.2392 -0.1100
 1402DOPC   GL116442  15.488   7.764  15.611  0.1840 -0.0881  0.3047
 1402DOPC   GL216443  15.602   7.868  15.317  0.0156  0.2449 -0.1559
 1402DOPC   C1A16444  15.072   7.731  15.289 -0.4593 -0.0186  0.0218
 1402DOPC   D2A16445  14.659   7.767  15.130 -0.0966  0.0732  0.1646
 1402DOPC   C3A16446  14.722   7.728  14.688 -0.0065  0.0232 -0.1998
 1402DOPC   C4A16447  14.844   7.721  14.240  0.0423 -0.1946  0.0473
 1402DOPC   C1B16448  15.699   7.725  14.831  0.0463  0.2851 -0.1790
 1402DOPC   D2B16449  15.802   7.734  14.394  0.1884 -0.0572  0.2685
 1402DOPC   C3B16450  15.475   7.732  14.104  0.0918  0.1036 -0.1879
 1402DOPC   C4B16451  15.214   7.359  14.134 -0.0572 -0.1148  0.4823
 1403DOPE   NH316452  13.555   2.321  14.869 -0.1109  0.1089 -0.0512
 1403DOPE   PO416453  13.331   2.131  14.792 -0.2439 -0.1077 -0.1447
 1403DOPE   GL116454  13.285   2.198  14.369  0.1729 -0.0619  0.0750
 1403DOPE   GL216455  13.555   2.367  14.320 -0.2912 -0.2902 -0.0561
 1403DOPE   C1A16456  13.407   2.089  13.933  0.0297  0.3001  0.2518
 1403DOPE   D2A16457  13.593   2.292  13.548 -0.0012  0.4415 -0.0249
 1403DOPE   C3A16458  13.595   2.264  13.081 -0.1798  0.1270  0.1470
 1403DOPE   C4A16459  13.304   2.271  12.678 -0.1539 -0.0359  0.0291
 1403DOPE   C1B16460  13.487   2.572  13.959 -0.3258 -0.3300  0.0273
 1403DOPE   D2B16461  13.580   2.854  13.611  0.0070  0.0496  0.2502
 1403DOPE   C3B16462  13.890   3.138  13.558 -0.0417  0.0799 -0.2801
 1403DOPE   C4B16463  14.273   3.348  13.384 -0.4082  0.0527 -0.1733
 1404DOPC   NC316464  21.907   6.399  16.132 -0.1854 -0.0176  0.3547
 1404DOPC   PO416465  21.570   6.198  16.193  0.2522 -0.2293 -0.5493
 1404DOPC   GL116466  21.651   6.138  15.793  0.3460  0.0849  0.1635
 1404DOPC   GL216467  21.782   5.927  15.853 -0.1790 -0.0778  0.1657
 1404DOPC   C1A16468  21.631   5.971  15.305 -0.4239 -0.1575  0.0573
 1404DOPC   D2A16469  21.769   5.634  14.966  0.1110  0.0101 -0.2151
 1404DOPC   C3A16470  22.119   5.738  14.655  0.1862  0.1997  0.0519
 1404DOPC   C4A16471  22.221   5.851  14.214  0.2673  0.0577 -0.0764
 1404DOPC   C1B16472  21.911   5.566  15.494  0.1447  0.0727 -0.2326
 1404DOPC   D2B16473  21.987   5.236  15.180  0.0684 -0.0781  0.1367
 1404DOPC   C3B16474  22.194   5.185  14.788 -0.1392  0.2028 -0.0957
 1404DOPC   C4B16475  22.040   4.860  14.467 -0.0293  0.3664 -0.0506
 1405POSM   NC316476  12.429   0.324  15.532 -0.4834 -0.0893 -0.0485
 1405POSM   PO416477  12.738   0.079  15.495 -0.3979 -0.1049  0.2023
 1405POSM   AM116478  12.745   0.060  15.173  0.1769  0.0004  0.2903
 1405POSM   AM216479  12.749  -0.125  14.944  0.3433  0.0125  0.0237
 1405POSM   T1A16480  12.899   0.283  14.767  0.0783 -0.2237 -0.0044
 1405POSM   C2A16481  12.946   0.198  14.363 -0.4264  0.1377 -0.0114
 1405POSM   C3A16482  12.687   0.244  13.971 -0.1345 -0.4050  0.2351
 1405POSM   C1B16483  12.700  -0.190  14.632 -0.0756 -0.1275 -0.1174
 1405POSM   D2B16484  12.825  -0.291  14.138 -0.2686  0.1454 -0.2961
 1405POSM   C3B16485  13.027  -0.163  13.784 -0.1972  0.2324 -0.0187
 1405POSM   C4B16486  13.154   0.278  13.781  0.1281 -0.0669 -0.0307
 1406DOPE   NH316487  19.894   1.976  15.987 -0.0747  0.2110  0.3093
 1406DOPE   PO416488  19.810   2.246  15.906  0.1941 -0.1246 -0.1123
 1406DOPE   GL116489  19.886   2.066  15.528  0.3345  0.1623 -0.1142
 1406DOPE   GL216490  20.066   2.237  15.447  0.1632  0.0208 -0.2735
 1406DOPE   C1A16491  19.724   2.298  15.119  0.1774 -0.1853 -0.1385
 1406DOPE   D2A16492  19.755   2.488  14.709 -0.1210  0.0214  0.0604
 1406DOPE   C3A16493  19.796   2.385  14.273  0.2027 -0.0146 -0.1060
 1406DOPE   C4A16494  19.835   2.229  13.855 -0.2501  0.0224  0.1174
 1406DOPE   C1B16495  19.942   2.644  15.349  0.2034  0.1215  0.1354
 1406DOPE   D2B16496  20.198   3.051  15.156  0.3841  0.1227  0.0685
 1406DOPE   C3B16497  20.512   3.052  14.811  0.0774 -0.2381  0.1010
 1406DOPE   C4B16498  20.716   2.983  14.352 -0.0109 -0.1390  0.3712
 1407DOPE   NH316499  21.637   3.331  15.587  0.0611  0.1195  0.3061
 1407DOPE   PO416500  21.496   3.550  15.798  0.3059  0.1267  0.1884
 1407DOPE   GL116501  21.255   3.732  15.509  0.1997 -0.1335  0.0465
 1407DOPE   GL216502  21.049   3.509  15.530  0.0185  0.3207 -0.0770
 1407DOPE   C1A16503  21.353   4.088  15.174 -0.0345 -0.1138  0.1137
 1407DOPE   D2A16504  21.501   3.962  14.732  0.2595  0.0935 -0.1995
 1407DOPE   C3A16505  21.954   3.952  14.649  0.0640 -0.3510 -0.2646
 1407DOPE   C4A16506  22.235   4.234  14.522  0.2265  0.1442 -0.0995
 1407DOPE   C1B16507  21.019   3.741  15.107  0.3550  0.0794 -0.1476
 1407DOPE   D2B16508  20.758   3.894  14.729  0.0368 -0.1330  0.1299
 1407DOPE   C3B16509  20.495   3.691  14.499 -0.3691  0.0225  0.1509
 1407DOPE   C4B16510  20.366   3.457  14.095  0.0601  0.0089  0.1467
 1408POSM   NC316511  14.571   1.285  15.961  0.4350 -0.0798 -0.1382
 1408POSM   PO416512  14.941   1.272  15.871 -0.0505 -0.1502 -0.0896
 1408POSM   AM116513  15.082   1.305  15.566 -0.2799 -0.0191 -0.2066
 1408POSM   AM216514  15.333   1.358  15.421 -0.0680 -0.1364  0.1011
 1408POSM   T1A16515  14.970   1.343  15.141  0.2917  0.0511 -0.0954
 1408POSM   C2A16516  15.037   1.599  14.790  0.0331 -0.0203  0.1664
 1408POSM   C3A16517  15.204   1.544  14.362  0.1660 -0.1767  0.0426
 1408POSM   C1B16518  15.403   1.083  15.255  0.1322  0.3039  0.2069
 1408POSM   D2B16519  15.631   0.672  15.036  0.0769 -0.3642 -0.2953
 1408POSM   C3B16520  15.539   0.649  14.590  0.0804 -0.5388 -0.2835
 1408POSM   C4B16521  15.247   0.693  14.260  0.3298 -0.0230  0.1785
 1409DOPS   CNO16522  18.808   0.561  16.179  0.0258  0.2943 -0.1479
 1409DOPS   PO416523  18.875   0.928  16.129 -0.3252  0.4891  0.3105
 1409DOPS   GL116524  19.185   1.034  15.870 -0.2697 -0.8722 -0.2259
 1409DOPS   GL216525  19.094   1.318  15.779  0.0649 -0.3040 -0.1478
 1409DOPS   C1A16526  19.359   1.045  15.440  0.0537 -0.0002 -0.1016
 1409DOPS   D2A16527  19.337   1.138  14.988 -0.1711  0.0110  0.1752
 1409DOPS   C3A16528  19.343   1.474  14.666 -0.3067  0.0761  0.1767
 1409DOPS   C4A16529  19.115   1.861  14.573 -0.1299  0.0832  0.1560
 1409DOPS   C1B16530  19.190   1.467  15.335  0.0249 -0.2002  0.0251
 1409DOPS   D2B16531  19.070   1.819  15.081 -0.0053  0.0800  0.0630
 1409DOPS   C3B16532  19.260   2.235  14.917 -0.0692  0.1927  0.2825
 1409DOPS   C4B16533  19.219   2.669  14.798 -0.2782 -0.3547 -0.0982
 1410DOPC   NC316534  14.820  11.085  15.482  0.3933 -0.3667 -0.2518
 1410DOPC   PO416535  14.873  10.956  15.135  0.0932  0.1842 -0.4810
 1410DOPC   GL116536  14.888  11.090  14.815  0.2272  0.2548  0.0821
 1410DOPC   GL216537  14.608  11.122  14.770 -0.0302 -0.2561  0.2862
 1410DOPC   C1A16538  15.234  11.031  14.548 -0.2931 -0.0056 -0.2175
 1410DOPC   D2A16539  15.305  11.088  14.086 -0.3398 -0.2250  0.3022
 1410DOPC   C3A16540  15.644  10.948  13.768  0.1793  0.2331 -0.1147
 1410DOPC   C4A16541  15.714  10.689  13.350 -0.1457 -0.0000 -0.2154
 1410DOPC   C1B16542  14.509  10.886  14.416 -0.2806  0.6059  0.0801
 1410DOPC   D2B16543  14.449  10.946  13.931  0.3022 -0.1960  0.1006
 1410DOPC   C3B16544  14.811  11.093  13.786 -0.0520  0.1386  0.2264
 1410DOPC   C4B16545  15.184  10.856  13.621  0.1724  0.0156  0.1093
 1411POSM   NC316546  17.321   5.800  17.141 -0.4013  0.0386 -0.2074
 1411POSM   PO416547  17.229   5.664  16.770  0.0731 -0.0890  0.2547
 1411POSM   AM116548  17.164   5.704  16.458 -0.0384  0.4952 -0.0549
 1411POSM   AM216549  17.308   5.846  16.231  0.1745  0.1664 -0.3814
 1411POSM   T1A16550  16.972   5.508  16.025  0.3068 -0.2603 -0.1458
 1411POSM   C2A16551  16.998   5.495  15.564 -0.2015  0.2394  0.1274
 1411POSM   C3A16552  17.173   5.525  15.155 -0.1351  0.2040 -0.0877
 1411POSM   C1B16553  17.333   5.982  15.948  0.0298  0.0220  0.2462
 1411POSM   D2B16554  17.222   5.946  15.521 -0.1160  0.3288  0.0090
 1411POSM   C3B16555  17.013   6.003  15.158 -0.1452  0.3874 -0.2075
 1411POSM   C4B16556  16.978   5.856  14.766  0.0784  0.1871  0.2638
 1412DOPE   NH316557  18.620   1.288  16.436 -0.3140  0.3235  0.0523
 1412DOPE   PO416558  18.829   1.421  16.197  0.0511 -0.0578  0.0348
 1412DOPE   GL116559  18.630   1.270  15.886 -0.2580  0.1397 -0.0643
 1412DOPE   GL216560  18.393   1.334  15.763 -0.1801  0.0177  0.0156
 1412DOPE   C1A16561  18.717   1.445  15.448 -0.0742 -0.3169  0.1263
 1412DOPE   D2A16562  18.804   1.395  14.962 -0.2370  0.0093  0.0693
 1412DOPE   C3A16563  18.850   1.293  14.541  0.0268 -0.1357 -0.0347
 1412DOPE   C4A16564  18.614   1.028  14.244 -0.0779  0.2199 -0.1639
 1412DOPE   C1B16565  18.208   1.671  15.525 -0.2920 -0.0936  0.0377
 1412DOPE   D2B16566  17.843   1.835  15.289 -0.0145  0.0195  0.1017
 1412DOPE   C3B16567  17.440   1.607  15.149 -0.0028  0.0569 -0.3556
 1412DOPE   C4B16568  17.281   1.365  14.798  0.0689  0.1338  0.1036
 1413DOPS   CNO16569  17.047  34.227  15.644  0.2455  0.0550  0.0763
 1413DOPS   PO416570  17.029  34.515  15.862  0.0810  0.0623  0.1693
 1413DOPS   GL116571  17.387  34.501  15.603 -0.0668 -0.1416 -0.2137
 1413DOPS   GL216572  17.297  34.660  15.415  0.2716 -0.1564  0.1749
 1413DOPS   C1A16573  17.344  34.226  15.217  0.1797 -0.0212  0.2234
 1413DOPS   D2A16574  17.433  34.304  14.826 -0.1074  0.1475  0.1030
 1413DOPS   C3A16575  17.731  34.496  14.641 -0.1904 -0.0051  0.0808
 1413DOPS   C4A16576  17.812  34.649  14.157 -0.1711  0.2328 -0.0247
 1413DOPS   C1B16577  17.192  35.095  15.409  0.3510 -0.0565 -0.0497
 1413DOPS   D2B16578  16.918  35.276  15.069  0.2215 -0.0158  0.2013
 1413DOPS   C3B16579  16.973  35.654  14.798  0.2573  0.2927  0.0776
 1413DOPS   C4B16580  16.675  35.951  14.539  0.3371  0.0215 -0.0056
 1414DOPS   CNO16581  17.165   9.952  15.645 -0.0309  0.2316 -0.1513
 1414DOPS   PO416582  17.192   9.625  15.847  0.0411 -0.0033  0.1046
 1414DOPS   GL116583  17.287   9.564  15.464  0.1257 -0.1156 -0.1557
 1414DOPS   GL216584  17.231   9.266  15.417  0.1459  0.1831 -0.2265
 1414DOPS   C1A16585  17.476   9.866  15.216  0.0598 -0.0845  0.1733
 1414DOPS   D2A16586  17.585  10.093  14.842 -0.0157 -0.3048  0.0304
 1414DOPS   C3A16587  17.232  10.337  14.606 -0.0361 -0.2072  0.0057
 1414DOPS   C4A16588  17.005  10.180  14.260 -0.0061 -0.0317 -0.0008
 1414DOPS   C1B16589  17.344   9.427  14.989 -0.1396  0.1506 -0.0142
 1414DOPS   D2B16590  17.547   9.410  14.587 -0.0612  0.0748  0.0765
 1414DOPS   C3B16591  17.551   9.140  14.216  0.1881  0.2420 -0.0040
 1414DOPS   C4B16592  17.675   8.846  13.918  0.0584 -0.0146 -0.1639
 1415DOPE   NH316593  22.709   0.384  15.593  0.2364 -0.1275  0.1365
 1415DOPE   PO416594  22.706   0.050  15.604  0.2471  0.0786  0.1469
 1415DOPE   GL116595  22.554   0.128  15.259 -0.3330 -0.0755 -0.4107
 1415DOPE   GL216596  22.642  -0.182  15.162 -0.0754 -0.4395  0.1656
 1415DOPE   C1A16597  22.329   0.138  14.913 -0.0568  0.2531 -0.0049
 1415DOPE   D2A16598  22.299  -0.021  14.452 -0.2232 -0.1801 -0.3980
 1415DOPE   C3A16599  22.471   0.131  14.068  0.0163 -0.0309 -0.0595
 1415DOPE   C4A16600  22.461   0.462  13.786  0.1240 -0.3581  0.1148
 1415DOPE   C1B16601  22.364  -0.410  14.847  0.0470  0.1916  0.0863
 1415DOPE   D2B16602  22.300  -0.829  14.649  0.3676  0.4077  0.1813
 1415DOPE   C3B16603  21.884  -0.880  14.486  0.0787 -0.1637  0.2878
 1415DOPE   C4B16604  21.548  -0.831  14.200  0.1007  0.2417  0.1490
 1416DOPC   NC316605  17.825   2.479  16.072 -0.2460  0.1347  0.0256
 1416DOPC   PO416606  18.097   2.254  16.258  0.1163  0.1186  0.1916
 1416DOPC   GL116607  18.269   2.107  15.907  0.0414  0.1158  0.5361
 1416DOPC   GL216608  18.059   1.881  15.932 -0.1666 -0.0770 -0.1009
 1416DOPC   C1A16609  18.102   2.278  15.520  0.1023  0.1050 -0.0310
 1416DOPC   D2A16610  17.836   2.384  15.196 -0.3728  0.2607  0.3506
 1416DOPC   C3A16611  17.923   2.088  14.836  0.1222 -0.2299 -0.1337
 1416DOPC   C4A16612  18.068   1.899  14.469  0.3202  0.1986  0.1235
 1416DOPC   C1B16613  17.730   2.116  15.724 -0.0956  0.0954 -0.2580
 1416DOPC   D2B16614  17.451   2.153  15.420 -0.0966 -0.0372  0.0741
 1416DOPC   C3B16615  17.436   2.079  14.955  0.4768 -0.0406  0.0963
 1416DOPC   C4B16616  17.465   2.152  14.490  0.0903  0.5083  0.1334
 1417DOPS   CNO16617  22.206   6.673  16.527  0.1271  0.2297  0.2739
 1417DOPS   PO416618  22.480   6.409  16.419 -0.1685 -0.1106  0.2243
 1417DOPS   GL116619  22.408   6.552  16.083 -0.0777 -0.3226 -0.0099
 1417DOPS   GL216620  22.224   6.855  16.003 -0.0435 -0.1037  0.2687
 1417DOPS   C1A16621  22.363   6.217  15.745  0.1646 -0.1029  0.1830
 1417DOPS   D2A16622  22.058   6.060  15.472  0.0590  0.2530 -0.1338
 1417DOPS   C3A16623  22.256   5.756  15.176  0.1196 -0.1030  0.1250
 1417DOPS   C4A16624  22.565   5.546  14.932 -0.0691 -0.3367  0.0153
 1417DOPS   C1B16625  22.319   6.841  15.559 -0.0939  0.0083  0.2372
 1417DOPS   D2B16626  22.358   7.036  15.131 -0.0255 -0.1601  0.0753
 1417DOPS   C3B16627  22.414   6.590  15.022 -0.2803  0.2423  0.0231
 1417DOPS   C4B16628  22.314   6.219  14.709 -0.0202 -0.0327  0.3231
 1418DOPE   NH316629  15.078  10.390  15.611  0.0937  0.0366 -0.1614
 1418DOPE   PO416630  14.999  10.529  15.376 -0.1419  0.1952 -0.1935
 1418DOPE   GL116631  14.995  10.460  14.972  0.1801  0.0500 -0.1340
 1418DOPE   GL216632  14.757  10.587  14.780 -0.1715  0.2674  0.1200
 1418DOPE   C1A16633  15.230  10.556  14.598 -0.3425  0.1332  0.0318
 1418DOPE   D2A16634  15.420  10.565  14.138 -0.1504 -0.0564 -0.0445
 1418DOPE   C3A16635  15.557  10.286  13.791  0.2278 -0.1567 -0.2262
 1418DOPE   C4A16636  15.312  10.108  13.453  0.3437 -0.3705  0.3373
 1418DOPE   C1B16637  14.844  10.333  14.395  0.0219 -0.3034  0.2082
 1418DOPE   D2B16638  14.666   9.975  14.185 -0.0259  0.2739  0.2168
 1418DOPE   C3B16639  14.880   9.725  14.475  0.0188  0.1893 -0.0087
 1418DOPE   C4B16640  15.064   9.278  14.590 -0.1036 -0.1340  0.1175
 1419DOPE   NH316641  19.481   7.896  15.875  0.2670  0.0411 -0.2569
 1419DOPE   PO416642  19.576   8.182  15.787 -0.0248 -0.2555  0.0269
 1419DOPE   GL116643  19.823   8.265  15.522 -0.1345  0.0266 -0.0004
 1419DOPE   GL216644  19.983   7.972  15.548  0.2269  0.0302 -0.1484
 1419DOPE   C1A16645  20.128   8.180  15.126 -0.0133  0.4311 -0.4780
 1419DOPE   D2A16646  20.430   7.846  14.980 -0.4228 -0.0769  0.2510
 1419DOPE   C3A16647  20.578   7.522  14.735  0.0207  0.0350  0.0078
 1419DOPE   C4A16648  20.456   7.171  14.458  0.1337 -0.2323 -0.1870
 1419DOPE   C1B16649  19.953   7.641  15.230  0.1242 -0.0019 -0.1673
 1419DOPE   D2B16650  20.152   7.409  14.883  0.0604 -0.1182 -0.0281
 1419DOPE   C3B16651  19.973   7.060  14.692  0.2433 -0.1651  0.0187
 1419DOPE   C4B16652  19.731   6.777  14.385  0.5500 -0.0858 -0.2576
 1420DOPE   NH316653  18.673   4.035  16.151 -0.1869  0.1181  0.3408
 1420DOPE   PO416654  18.392   4.063  16.171  0.0043  0.0843  0.2191
 1420DOPE   GL116655  18.445   4.316  15.819 -0.1528 -0.0236 -0.3782
 1420DOPE   GL216656  18.618   4.495  15.648  0.1560  0.1332  0.2646
 1420DOPE   C1A16657  18.635   3.996  15.535 -0.2910 -0.1648 -0.1327
 1420DOPE   D2A16658  18.498   3.803  15.158 -0.0380 -0.1914 -0.0261
 1420DOPE   C3A16659  18.287   3.941  14.732 -0.3184 -0.1795  0.1283
 1420DOPE   C4A16660  18.162   4.365  14.508 -0.5546 -0.4072 -0.1445
 1420DOPE   C1B16661  18.384   4.853  15.664 -0.0636 -0.1067  0.0480
 1420DOPE   D2B16662  18.407   5.228  15.443 -0.1344 -0.0274 -0.0647
 1420DOPE   C3B16663  18.475   5.220  15.044  0.0383 -0.1705 -0.0247
 1420DOPE   C4B16664  18.523   5.075  14.651  0.0909 -0.1099 -0.0133
 1421DOPC   NC316665  22.717  10.027  15.967  0.1379 -0.0692 -0.0648
 1421DOPC   PO416666  22.479  10.370  15.915  0.2575 -0.1207  0.2509
 1421DOPC   GL116667  22.568  10.446  15.509 -0.2595  0.1060  0.0472
 1421DOPC   GL216668  22.359  10.536  15.426 -0.0983 -0.2808 -0.1470
 1421DOPC   C1A16669  22.773  10.685  15.188 -0.0240  0.2873  0.0068
 1421DOPC   D2A16670  22.883  10.902  14.784  0.3060  0.0869  0.2509
 1421DOPC   C3A16671  22.946  10.674  14.337  0.0061  0.2773  0.0577
 1421DOPC   C4A16672  23.299  10.387  14.228 -0.0998  0.0222  0.1161
 1421DOPC   C1B16673  22.523  10.284  15.057  0.0381 -0.1002 -0.0286
 1421DOPC   D2B16674  22.619  10.291  14.597  0.1120 -0.1420 -0.0053
 1421DOPC   C3B16675  22.380   9.978  14.371  0.0135 -0.0117 -0.1580
 1421DOPC   C4B16676  22.066   9.884  14.156  0.1820 -0.3839  0.1117
 1422POSM   NC316677  14.344   6.271  15.688  0.0245 -0.0429 -0.1341
 1422POSM   PO416678  13.967   6.447  15.663  0.1033  0.2373  0.1884
 1422POSM   AM116679  14.031   6.308  15.374  0.2065 -0.1379  0.0802
 1422POSM   AM216680  14.200   6.056  15.267 -0.0596 -0.1339  0.1295
 1422POSM   T1A16681  13.914   6.218  14.863  0.1978 -0.2145 -0.2095
 1422POSM   C2A16682  13.731   6.422  14.486  0.0534  0.1178 -0.0551
 1422POSM   C3A16683  13.661   6.440  14.027 -0.1248 -0.0228 -0.2031
 1422POSM   C1B16684  14.016   5.775  15.178 -0.0942 -0.0851  0.1712
 1422POSM   D2B16685  13.793   5.461  14.955  0.0068 -0.2901 -0.1114
 1422POSM   C3B16686  13.366   5.458  14.761  0.1475  0.1152  0.2232
 1422POSM   C4B16687  13.204   5.538  14.373  0.0271  0.0623 -0.0043
 1423POSM   NC316688  11.544   9.480  16.303 -0.0782  0.0993  0.2072
 1423POSM   PO416689  11.219   9.430  16.203  0.1199  0.1321  0.2581
 1423POSM   AM116690  11.111   9.446  15.876 -0.0115  0.0071  0.2154
 1423POSM   AM216691  11.155   9.415  15.568  0.2203  0.1536 -0.1121
 1423POSM   T1A16692  10.941   9.855  15.584  0.0177  0.1561  0.3137
 1423POSM   C2A16693  10.704  10.180  15.412 -0.2815  0.1097  0.2488
 1423POSM   C3A16694  10.615  10.482  15.079  0.0924  0.0643 -0.2419
 1423POSM   C1B16695  11.448   9.318  15.372 -0.0325 -0.0663 -0.2732
 1423POSM   D2B16696  11.521   9.261  14.916  0.0060 -0.0539 -0.4289
 1423POSM   C3B16697  11.762   9.376  14.575 -0.2428  0.4708  0.3250
 1423POSM   C4B16698  11.737   9.264  14.106  0.1433 -0.2536 -0.3398
 1424DOPC   NC316699  16.452   4.327  15.832  0.1369  0.1100  0.0687
 1424DOPC   PO416700  16.310   3.980  16.006  0.0263  0.0472  0.0603
 1424DOPC   GL116701  16.523   3.835  15.698  0.0929  0.0135 -0.3313
 1424DOPC   GL216702  16.760   3.896  15.621 -0.0616 -0.0105  0.0289
 1424DOPC   C1A16703  16.470   4.134  15.312 -0.0416 -0.0844  0.0558
 1424DOPC   D2A16704  16.536   4.234  14.800  0.4962  0.1265  0.1888
 1424DOPC   C3A16705  16.792   4.486  14.504  0.0686 -0.0409 -0.1362
 1424DOPC   C4A16706  16.704   4.778  14.174 -0.0422 -0.0887  0.2065
 1424DOPC   C1B16707  17.042   4.191  15.340 -0.4776  0.0247 -0.2287
 1424DOPC   D2B16708  17.106   4.258  14.864 -0.0382 -0.1073  0.2905
 1424DOPC   C3B16709  17.240   4.713  14.690 -0.0963 -0.1821  0.1865
 1424DOPC   C4B16710  17.543   5.071  14.781 -0.0914 -0.0348  0.2231
 1425DOPC   NC316711  19.519   4.038  16.202  0.1221  0.1695  0.1711
 1425DOPC   PO416712  19.164   4.185  16.259  0.4693 -0.0112  0.0147
 1425DOPC   GL116713  18.951   4.420  15.949  0.2338 -0.0667 -0.2678
 1425DOPC   GL216714  19.029   4.213  15.734  0.2594 -0.1189 -0.1836
 1425DOPC   C1A16715  19.149   4.706  15.593 -0.0153 -0.1103  0.1784
 1425DOPC   D2A16716  19.378   4.634  15.182  0.0394 -0.2268 -0.0650
 1425DOPC   C3A16717  19.785   4.877  15.077  0.1031  0.0724  0.1308
 1425DOPC   C4A16718  20.209   5.165  14.963  0.0548 -0.2179 -0.0035
 1425DOPC   C1B16719  18.921   4.401  15.286  0.0900 -0.2088  0.1723
 1425DOPC   D2B16720  18.932   4.687  14.900 -0.2935  0.1136 -0.1924
 1425DOPC   C3B16721  19.306   4.821  14.694  0.0991 -0.1766  0.0004
 1425DOPC   C4B16722  19.622   4.751  14.357  0.2972 -0.1136  0.1038
 1426DOPS   CNO16723  12.655   7.667  15.754 -0.0108 -0.0721 -0.2468
 1426DOPS   PO416724  12.668   8.059  15.767  0.1444  0.2709  0.3159
 1426DOPS   GL116725  12.653   8.375  15.540  0.0809  0.0828  0.0209
 1426DOPS   GL216726  12.971   8.395  15.474 -0.2062  0.0156 -0.2025
 1426DOPS   C1A16727  12.620   8.675  15.157 -0.1787 -0.0181 -0.0482
 1426DOPS   D2A16728  12.818   8.972  14.858  0.1582 -0.0912  0.0537
 1426DOPS   C3A16729  12.571   8.862  14.463 -0.1778  0.0685  0.1421
 1426DOPS   C4A16730  12.621   8.833  14.034 -0.0222  0.2404 -0.4098
 1426DOPS   C1B16731  13.123   8.522  15.103  0.0549  0.0316 -0.2312
 1426DOPS   D2B16732  13.251   8.708  14.653 -0.1022  0.0007  0.0261
 1426DOPS   C3B16733  12.990   8.542  14.295  0.3396  0.0020  0.0212
 1426DOPS   C4B16734  12.875   8.317  13.924  0.0624  0.2213  0.0571
 1427DOPE   NH316735  19.580   0.778  15.973  0.1903 -0.0203 -0.0553
 1427DOPE   PO416736  19.301   0.635  16.095 -0.3222 -0.5037  0.0247
 1427DOPE   GL116737  19.246   0.659  15.666  0.0415 -0.0210 -0.0109
 1427DOPE   GL216738  18.955   0.693  15.649  0.0311 -0.1317  0.0063
 1427DOPE   C1A16739  19.139   0.603  15.206 -0.1298 -0.0204  0.2700
 1427DOPE   D2A16740  19.136   0.726  14.738 -0.0545 -0.1221  0.0568
 1427DOPE   C3A16741  18.812   0.586  14.387  0.0294  0.1215  0.0967
 1427DOPE   C4A16742  18.549   0.602  14.036  0.0923 -0.1327 -0.0759
 1427DOPE   C1B16743  18.866   0.970  15.284 -0.0458  0.1085 -0.1018
 1427DOPE   D2B16744  18.664   0.931  14.814 -0.1628 -0.1541  0.1022
 1427DOPE   C3B16745  18.259   1.177  14.694 -0.2374 -0.1735  0.2615
 1427DOPE   C4B16746  17.939   1.413  14.417  0.2701  0.3894 -0.2072
 1428DOPS   CNO16747  20.426   4.968  16.025 -0.1474 -0.2517 -0.0500
 1428DOPS   PO416748  20.132   4.807  15.877  0.0341  0.1677 -0.1002
 1428DOPS   GL116749  20.429   4.913  15.570 -0.1225 -0.1414 -0.1855
 1428DOPS   GL216750  20.236   4.868  15.375 -0.1155  0.0795 -0.1055
 1428DOPS   C1A16751  20.555   5.294  15.504  0.3544 -0.1747  0.0287
 1428DOPS   D2A16752  20.625   5.622  15.248  0.1600  0.0701  0.1764
 1428DOPS   C3A16753  20.476   5.763  14.895  0.0813 -0.0194  0.0518
 1428DOPS   C4A16754  20.387   5.755  14.452 -0.0049  0.3971  0.1265
 1428DOPS   C1B16755  20.327   4.683  15.003 -0.1531  0.0724  0.1387
 1428DOPS   D2B16756  20.490   4.602  14.549  0.0456  0.1191 -0.0722
 1428DOPS   C3B16757  20.510   4.213  14.325  0.1754 -0.3121 -0.1143
 1428DOPS   C4B16758  20.478   3.930  13.957 -0.3616 -0.1842  0.0455
 1429DOPE   NH316759  22.039   1.847  11.824 -0.1534 -0.0805  0.2076
 1429DOPE   PO416760  22.252   2.085  11.933 -0.0415 -0.2299  0.2106
 1429DOPE   GL116761  22.425   1.806  12.153  0.1875 -0.4612  0.4204
 1429DOPE   GL216762  22.476   1.591  11.914  0.1160 -0.0663  0.4502
 1429DOPE   C1A16763  22.587   1.721  12.609 -0.0938 -0.0550 -0.0647
 1429DOPE   D2A16764  22.548   1.837  13.061 -0.0046 -0.2028 -0.1173
 1429DOPE   C3A16765  22.851   1.500  13.294 -0.0221  0.1031 -0.0123
 1429DOPE   C4A16766  22.984   1.251  13.630 -0.1445 -0.1329  0.0678
 1429DOPE   C1B16767  22.895   1.827  11.789 -0.0107  0.0110 -0.0176
 1429DOPE   D2B16768  23.343   1.748  12.004 -0.1224  0.0061 -0.2450
 1429DOPE   C3B16769  23.472   1.697  12.462 -0.0954 -0.0104 -0.0811
 1429DOPE   C4B16770  23.819   1.543  12.611 -0.0052 -0.0819 -0.1464
 1430DOPS   CNO16771  13.538   4.166  11.922 -0.1299  0.2723  0.1940
 1430DOPS   PO416772  13.386   3.975  12.219  0.1074  0.3674 -0.0044
 1430DOPS   GL116773  13.592   3.969  12.597 -0.0438 -0.0994 -0.1589
 1430DOPS   GL216774  13.446   3.692  12.676  0.0014 -0.0722  0.3298
 1430DOPS   C1A16775  13.941   3.795  12.817  0.0386  0.1224  0.0702
 1430DOPS   D2A16776  14.310   3.578  12.960 -0.2945 -0.2709 -0.1146
 1430DOPS   C3A16777  14.192   3.125  12.946 -0.0823 -0.0641 -0.0654
 1430DOPS   C4A16778  14.144   2.836  12.611  0.1658 -0.2506 -0.2649
 1430DOPS   C1B16779  13.268   3.683  13.049  0.0981  0.0565  0.1585
 1430DOPS   D2B16780  12.935   3.711  13.393  0.0532 -0.0400  0.1965
 1430DOPS   C3B16781  12.645   3.401  13.321 -0.2588 -0.1634 -0.3221
 1430DOPS   C4B16782  12.276   3.157  13.220  0.1978 -0.2285 -0.0826
 1431DOPE   NH316783  19.280   1.105  12.370  0.3029  0.3252 -0.1134
 1431DOPE   PO416784  19.359   0.792  12.216 -0.1209  0.1628 -0.0128
 1431DOPE   GL116785  19.712   1.053  12.153 -0.0077  0.2332 -0.2140
 1431DOPE   GL216786  19.949   0.896  12.236 -0.1612 -0.1598 -0.1258
 1431DOPE   C1A16787  19.750   1.455  12.291  0.1212  0.3174  0.1023
 1431DOPE   D2A16788  19.683   1.879  12.468  0.1732 -0.5385  0.3303
 1431DOPE   C3A16789  19.971   2.135  12.709  0.0210  0.0024 -0.5125
 1431DOPE   C4A16790  20.211   2.399  13.003  0.0369 -0.2710  0.2507
 1431DOPE   C1B16791  20.240   1.194  12.034 -0.1882  0.2062  0.2178
 1431DOPE   D2B16792  20.509   1.530  12.123  0.1269 -0.3295  0.3598
 1431DOPE   C3B16793  20.184   1.873  12.317 -0.2361 -0.3708 -0.0255
 1431DOPE   C4B16794  20.245   2.319  12.372 -0.2519 -0.0394  0.3027
 1432DOPE   NH316795  21.886   2.449  12.027 -0.1378 -0.1045 -0.1240
 1432DOPE   PO416796  21.754   2.325  11.768 -0.0241 -0.6633  0.1318
 1432DOPE   GL116797  21.386   2.250  12.001 -0.3376  0.1819 -0.0773
 1432DOPE   GL216798  21.531   1.954  12.017 -0.2138  0.0979 -0.1915
 1432DOPE   C1A16799  20.961   2.163  12.080 -0.0440 -0.1975 -0.3090
 1432DOPE   D2A16800  20.663   1.940  12.294  0.1131 -0.1212  0.0459
 1432DOPE   C3A16801  20.447   1.868  12.714  0.0829 -0.2584  0.0374
 1432DOPE   C4A16802  20.542   1.907  13.162  0.1759 -0.3774 -0.0140
 1432DOPE   C1B16803  21.474   1.900  12.468  0.2124  0.0137  0.2082
 1432DOPE   D2B16804  21.561   1.690  12.875  0.1788  0.1758 -0.2753
 1432DOPE   C3B16805  21.339   1.910  13.199 -0.0993 -0.0381  0.1158
 1432DOPE   C4B16806  21.294   1.839  13.632 -0.0895  0.2471  0.2696
 1433DOPC   NC316807  21.585   2.728  12.343 -0.3368 -0.0823  0.0393
 1433DOPC   PO416808  21.419   2.718  11.972  0.0755  0.1506 -0.2824
 1433DOPC   GL116809  20.992   2.634  12.227 -0.4159 -0.2338  0.2722
 1433DOPC   GL216810  21.119   2.800  12.485  0.1431  0.1581  0.0224
 1433DOPC   C1A16811  20.673   2.408  12.558  0.2434 -0.0497 -0.0827
 1433DOPC   D2A16812  20.830   2.159  12.885 -0.0528  0.3067  0.0608
 1433DOPC   C3A16813  20.955   1.748  12.673 -0.0912 -0.2134  0.1485
 1433DOPC   C4A16814  21.145   1.492  12.427 -0.0230  0.0343  0.1901
 1433DOPC   C1B16815  20.815   2.794  12.879 -0.0762  0.1827 -0.1873
 1433DOPC   D2B16816  20.724   2.516  13.260  0.1071  0.3266 -0.1212
 1433DOPC   C3B16817  20.977   2.169  13.444 -0.1338 -0.1698  0.0850
 1433DOPC   C4B16818  20.823   1.834  13.800 -0.1144  0.1461 -0.2064
 1434DOPC   NC316819  13.453   7.662  12.676  0.0342  0.1434  0.0490
 1434DOPC   PO416820  13.606   7.577  12.336 -0.3639  0.0447 -0.0413
 1434DOPC   GL116821  13.863   7.883  12.448 -0.2519  0.2042 -0.0496
 1434DOPC   GL216822  13.796   8.139  12.277  0.0701 -0.0722 -0.4496
 1434DOPC   C1A16823  14.284   7.982  12.658  0.0663  0.2159  0.1622
 1434DOPC   D2A16824  14.536   8.350  12.696 -0.3539 -0.0285 -0.2696
 1434DOPC   C3A16825  14.296   8.661  12.974  0.1867 -0.1641  0.0595
 1434DOPC   C4A16826  14.399   8.915  13.364 -0.0696  0.1006  0.0101
 1434DOPC   C1B16827  13.837   8.226  12.744 -0.0722 -0.0636 -0.0457
 1434DOPC   D2B16828  14.007   7.952  13.067 -0.0288 -0.0489  0.0949
 1434DOPC   C3B16829  13.968   7.981  13.491 -0.4023 -0.2021 -0.0248
 1434DOPC   C4B16830  14.160   8.185  13.827 -0.1710  0.1687 -0.0636
 1435DOPE   NH316831  11.724   8.143  12.375 -0.0376  0.0690 -0.1346
 1435DOPE   PO416832  11.917   8.395  12.281  0.1516 -0.1966  0.2277
 1435DOPE   GL116833  11.672   8.553  12.588 -0.2227  0.1127 -0.1478
 1435DOPE   GL216834  11.717   8.825  12.751  0.2644  0.2844 -0.0941
 1435DOPE   C1A16835  11.354   8.310  12.855  0.3443 -0.0168 -0.0413
 1435DOPE   D2A16836  11.147   8.029  13.145  0.1059  0.0235  0.0231
 1435DOPE   C3A16837  11.044   8.195  13.530 -0.0006  0.1451  0.1368
 1435DOPE   C4A16838  10.808   8.300  13.911 -0.1625  0.2764 -0.4002
 1435DOPE   C1B16839  11.786   8.492  13.096 -0.1227  0.1462 -0.2679
 1435DOPE   D2B16840  11.546   8.256  13.466 -0.2073  0.4517  0.0764
 1435DOPE   C3B16841  11.329   8.486  13.795  0.1027 -0.1711 -0.2026
 1435DOPE   C4B16842  11.163   8.552  14.170  0.1149  0.1183 -0.0720
 1436DOPE   NH316843  22.702  10.243  12.303 -0.2155  0.1189  0.1904
 1436DOPE   PO416844  22.867  10.008  12.434 -0.0618 -0.1489  0.0320
 1436DOPE   GL116845  22.673   9.826  12.816  0.0188  0.0835 -0.0251
 1436DOPE   GL216846  22.507  10.037  12.838  0.2734  0.2953 -0.2850
 1436DOPE   C1A16847  22.696   9.375  13.001  0.2392 -0.2896  0.4164
 1436DOPE   D2A16848  23.034   9.065  13.020  0.1356  0.0324  0.0908
 1436DOPE   C3A16849  23.394   9.039  13.382 -0.0473  0.1948  0.2141
 1436DOPE   C4A16850  23.310   8.817  13.819  0.0438 -0.1621 -0.0582
 1436DOPE   C1B16851  22.286   9.717  13.063  0.1219 -0.1820 -0.0277
 1436DOPE   D2B16852  22.148   9.425  13.409  0.0421 -0.0590 -0.2226
 1436DOPE   C3B16853  22.085   9.874  13.564  0.1822  0.3405 -0.0606
 1436DOPE   C4B16854  22.209  10.228  13.735  0.0732 -0.0856 -0.0187
 1437DOPE   NH316855  18.226   5.525  12.544 -0.2446 -0.0304  0.0199
 1437DOPE   PO416856  17.941   5.376  12.468  0.1178 -0.0457  0.0831
 1437DOPE   GL116857  18.007   5.243  12.919  0.0513 -0.0164 -0.1666
 1437DOPE   GL216858  18.213   5.158  13.034 -0.2002  0.0846 -0.0686
 1437DOPE   C1A16859  18.038   5.536  13.306  0.0013 -0.2308 -0.0869
 1437DOPE   D2A16860  18.167   5.726  13.725  0.1565  0.0396 -0.0204
 1437DOPE   C3A16861  18.650   5.777  13.768  0.2568  0.0322 -0.1137
 1437DOPE   C4A16862  18.977   5.644  13.429 -0.1370  0.1067 -0.2585
 1437DOPE   C1B16863  18.544   4.912  13.225  0.3681 -0.1314  0.0010
 1437DOPE   D2B16864  18.698   4.721  13.615 -0.1802 -0.2360 -0.4010
 1437DOPE   C3B16865  18.560   4.679  14.043  0.3335 -0.3019 -0.2010
 1437DOPE   C4B16866  18.619   4.622  14.517 -0.0694 -0.1468  0.3330
 1438POSM   NC316867  12.352   8.130  12.281  0.0208 -0.1282  0.0445
 1438POSM   PO416868  12.479   8.543  12.182  0.1613  0.0744 -0.1280
 1438POSM   AM116869  12.656   8.580  12.457  0.2530 -0.0232  0.1970
 1438POSM   AM216870  12.624   8.459  12.761 -0.3947 -0.1880  0.0032
 1438POSM   T1A16871  13.071   8.701  12.724 -0.1538 -0.1164  0.0132
 1438POSM   C2A16872  13.320   8.824  13.116 -0.0490  0.0565 -0.1083
 1438POSM   C3A16873  13.731   8.908  13.346  0.1322  0.1665 -0.1364
 1438POSM   C1B16874  12.761   8.306  12.986  0.1442 -0.2188  0.3198
 1438POSM   D2B16875  12.899   8.080  13.355  0.2879 -0.0643 -0.2956
 1438POSM   C3B16876  13.290   8.375  13.583 -0.0454  0.2930  0.3917
 1438POSM   C4B16877  13.717   8.521  13.776  0.0366  0.0447 -0.0142
 1439DOPE   NH316878  16.564   7.235  12.144 -0.0920 -0.0186  0.1773
 1439DOPE   PO416879  16.512   6.901  12.143 -0.2078  0.1800 -0.0537
 1439DOPE   GL116880  16.203   6.977  12.304  0.0291 -0.2812 -0.1541
 1439DOPE   GL216881  15.998   6.858  12.487  0.2205 -0.2097 -0.2151
 1439DOPE   C1A16882  16.073   7.444  12.494  0.1979  0.0087  0.0422
 1439DOPE   D2A16883  15.927   7.874  12.684  0.1549 -0.1631 -0.2113
 1439DOPE   C3A16884  15.906   7.815  13.152 -0.1214  0.2476  0.1668
 1439DOPE   C4A16885  15.678   7.908  13.522 -0.1448 -0.1620 -0.0082
 1439DOPE   C1B16886  15.711   7.072  12.772  0.1663  0.0090  0.0480
 1439DOPE   D2B16887  15.597   7.471  12.932 -0.3334 -0.0775 -0.2922
 1439DOPE   C3B16888  15.281   7.676  13.211 -0.1035 -0.1552  0.0350
 1439DOPE   C4B16889  15.017   8.038  13.229  0.1416 -0.0245 -0.0839
 1440POSM   NC316890  19.456   6.563  12.476 -0.2680  0.2768 -0.0184
 1440POSM   PO416891  19.349   6.733  12.810 -0.2258 -0.5672  0.1572
 1440POSM   AM116892  19.214   6.928  13.045  0.0779 -0.1974  0.2801
 1440POSM   AM216893  19.380   7.000  13.260  0.2008 -0.0632 -0.3143
 1440POSM   T1A16894  18.890   7.167  13.372  0.0995  0.1445  0.4140
 1440POSM   C2A16895  18.748   7.537  13.569 -0.0669 -0.1805 -0.0146
 1440POSM   C3A16896  18.921   7.863  13.854 -0.2872  0.2073 -0.1049
 1440POSM   C1B16897  19.231   6.894  13.532 -0.2142  0.0425 -0.1342
 1440POSM   D2B16898  19.002   7.008  13.922  0.3135  0.0500  0.1452
 1440POSM   C3B16899  18.836   6.646  14.250  0.1828 -0.2355  0.0020
 1440POSM   C4B16900  18.444   6.371  14.150 -0.1199 -0.0772 -0.0358
 1441POSM   NC316901  12.260  34.639  11.513 -0.3163  0.1466  0.0911
 1441POSM   PO416902  11.950  34.641  11.775 -0.3536  0.0581 -0.1410
 1441POSM   AM116903  12.142  34.835  11.930  0.1232  0.0026  0.0660
 1441POSM   AM216904  12.294  34.967  12.133 -0.3204 -0.0362  0.0076
 1441POSM   T1A16905  12.420  35.197  11.726 -0.0971 -0.0377  0.0097
 1441POSM   C2A16906  12.690  35.546  11.745 -0.2897  0.1415 -0.3633
 1441POSM   C3A16907  13.010  35.876  11.793  0.0300 -0.1644 -0.0832
 1441POSM   C1B16908  12.381  35.284  12.284 -0.0114 -0.1337  0.1238
 1441POSM   D2B16909  12.499  35.552  12.641 -0.0258  0.0242 -0.0721
 1441POSM   C3B16910  12.838  35.582  13.015  0.2560 -0.3777  0.2484
 1441POSM   C4B16911  12.894  35.228  13.329 -0.1497 -0.2475 -0.0294
 1442DOPC   NC316912  20.322  10.899  12.400 -0.3792  0.2995 -0.2502
 1442DOPC   PO416913  20.237  10.791  12.033  0.0154 -0.3497 -0.1073
 1442DOPC   GL116914  20.383  10.480  12.066  0.0020  0.0403 -0.4984
 1442DOPC   GL216915  20.278  10.244  11.949  0.3470 -0.2464  0.3242
 1442DOPC   C1A16916  20.857  10.490  11.885 -0.0869  0.0701  0.1243
 1442DOPC   D2A16917  21.345  10.547  11.760  0.1915 -0.0489 -0.1768
 1442DOPC   C3A16918  21.617  10.261  12.098  0.0622 -0.4542 -0.1382
 1442DOPC   C4A16919  21.918   9.912  11.942  0.1238 -0.0597  0.0302
 1442DOPC   C1B16920  20.440   9.856  12.154  0.2210  0.0394  0.1459
 1442DOPC   D2B16921  20.814   9.539  12.135  0.3155  0.1320  0.0591
 1442DOPC   C3B16922  21.025   9.438  12.542  0.2022 -0.0895 -0.2885
 1442DOPC   C4B16923  21.281   9.194  12.853 -0.2079  0.0770 -0.5233
 1443DOPC   NC316924  19.343  10.105  12.231  0.1460 -0.0485  0.1926
 1443DOPC   PO416925  19.266   9.770  12.092 -0.0670  0.0407  0.0645
 1443DOPC   GL116926  19.482   9.688  12.285 -0.0195 -0.1296  0.2210
 1443DOPC   GL216927  19.519   9.749  12.559  0.0232  0.2294  0.0317
 1443DOPC   C1A16928  19.390   9.244  12.414 -0.0253 -0.2649 -0.0425
 1443DOPC   D2A16929  19.049   9.132  12.702  0.3461 -0.0201  0.1490
 1443DOPC   C3A16930  19.268   8.846  12.998  0.2450  0.1119  0.0161
 1443DOPC   C4A16931  19.464   8.467  13.106  0.3320  0.1921 -0.0440
 1443DOPC   C1B16932  19.774   9.811  12.964  0.0765  0.3569 -0.2207
 1443DOPC   D2B16933  19.893   9.903  13.412 -0.3536 -0.2736  0.1426
 1443DOPC   C3B16934  20.220   9.734  13.741  0.0834  0.1102 -0.5235
 1443DOPC   C4B16935  20.190   9.679  14.243 -0.1518 -0.2899 -0.2289
 1444DOPC   NC316936  16.430   5.518  12.448 -0.0508 -0.0869 -0.1372
 1444DOPC   PO416937  16.142   5.283  12.277  0.0664  0.2449 -0.2062
 1444DOPC   GL116938  15.982   5.089  12.612  0.2440  0.0389 -0.2017
 1444DOPC   GL216939  16.284   5.071  12.700  0.1088 -0.1210  0.0818
 1444DOPC   C1A16940  15.872   4.907  12.974  0.1231  0.0248  0.3437
 1444DOPC   D2A16941  15.586   4.990  13.380 -0.0469 -0.0580  0.1146
 1444DOPC   C3A16942  15.437   4.538  13.527 -0.1390 -0.0019 -0.2291
 1444DOPC   C4A16943  15.134   4.215  13.793 -0.0584  0.1986 -0.3782
 1444DOPC   C1B16944  16.324   4.670  12.967  0.0339 -0.0291 -0.3253
 1444DOPC   D2B16945  16.393   4.461  13.369 -0.1107 -0.2245  0.0296
 1444DOPC   C3B16946  16.760   4.378  13.651  0.0788 -0.2722  0.4029
 1444DOPC   C4B16947  16.923   4.314  14.067  0.1366 -0.1458 -0.2799
 1445DOPE   NH316948  19.050   0.620  12.620 -0.0230 -0.1513  0.2536
 1445DOPE   PO416949  18.821   0.491  12.485  0.0920 -0.1701  0.1222
 1445DOPE   GL116950  18.627   0.368  12.827  0.0452  0.0199 -0.1010
 1445DOPE   GL216951  18.354   0.506  12.804  0.1182 -0.0398 -0.0837
 1445DOPE   C1A16952  18.800   0.183  13.158  0.2728 -0.0361  0.1066
 1445DOPE   D2A16953  18.594   0.277  13.571 -0.3251 -0.4455  0.0916
 1445DOPE   C3A16954  18.198   0.168  13.740  0.2368 -0.0145 -0.2363
 1445DOPE   C4A16955  17.892  -0.184  13.618  0.1067  0.0715 -0.1990
 1445DOPE   C1B16956  18.281   0.445  13.251 -0.2381 -0.0288 -0.2875
 1445DOPE   D2B16957  18.166   0.705  13.650 -0.0017  0.1211  0.0169
 1445DOPE   C3B16958  17.782   0.890  13.824 -0.0324  0.2848 -0.0922
 1445DOPE   C4B16959  17.585   1.293  13.960  0.1246  0.2187  0.1813
 1446POSM   NC316960  18.014   0.217  12.612  0.2720  0.2263 -0.1040
 1446POSM   PO416961  17.992  -0.183  12.553 -0.0609 -0.2582 -0.0975
 1446POSM   AM116962  17.922  -0.348  12.837 -0.3844  0.2696  0.3558
 1446POSM   AM216963  18.007  -0.414  13.068 -0.0302 -0.0211  0.2943
 1446POSM   T1A16964  17.646  -0.778  12.938 -0.3367  0.0722  0.2307
 1446POSM   C2A16965  17.424  -1.207  12.875  0.2038 -0.1804  0.1399
 1446POSM   C3A16966  17.317  -1.589  13.035  0.2934  0.4885  0.2716
 1446POSM   C1B16967  17.881  -0.618  13.355  0.1830 -0.1465 -0.0871
 1446POSM   D2B16968  17.750  -0.942  13.665  0.1545  0.2808  0.1480
 1446POSM   C3B16969  17.840  -1.011  14.105  0.2339 -0.1402  0.0696
 1446POSM   C4B16970  17.561  -0.992  14.463 -0.0104  0.0903  0.3666
 1447DOPE   NH316971  12.456   9.376  12.416 -0.2670  0.0583 -0.1935
 1447DOPE   PO416972  12.501   9.089  12.302  0.3121 -0.1761 -0.3164
 1447DOPE   GL116973  12.717   9.012  12.618 -0.1915  0.1464  0.0623
 1447DOPE   GL216974  12.534   8.957  12.787  0.3306 -0.4549 -0.0816
 1447DOPE   C1A16975  12.954   9.197  12.969 -0.0332  0.2124  0.1475
 1447DOPE   D2A16976  12.974   9.263  13.445  0.1199 -0.0577  0.1614
 1447DOPE   C3A16977  12.967   9.189  13.941  0.1876 -0.0449  0.0671
 1447DOPE   C4A16978  13.075   9.083  14.410 -0.1655  0.0233  0.1776
 1447DOPE   C1B16979  12.531   9.104  13.229  0.0988  0.0165 -0.1681
 1447DOPE   D2B16980  12.517   9.033  13.658 -0.1967  0.2165  0.0054
 1447DOPE   C3B16981  12.109   9.061  13.878  0.1074  0.0063  0.2230
 1447DOPE   C4B16982  11.782   8.726  13.900  0.0807  0.0738  0.2207
 1448DOPC   NC316983  20.640  34.288  12.326 -0.1139 -0.0151  0.0572
 1448DOPC   PO416984  20.545  34.675  12.259 -0.0231  0.1710  0.0031
 1448DOPC   GL116985  20.695  34.739  12.622  0.0065  0.1031 -0.1729
 1448DOPC   GL216986  20.809  34.965  12.590  0.6638 -0.0808  0.2931
 1448DOPC   C1A16987  20.727  34.442  13.026  0.2552  0.3059 -0.2696
 1448DOPC   D2A16988  20.784  33.994  13.118  0.1974 -0.1666 -0.1442
 1448DOPC   C3A16989  20.820  34.012  13.547  0.0349  0.2348  0.1935
 1448DOPC   C4A16990  20.561  33.786  13.846  0.1550 -0.0996  0.1224
 1448DOPC   C1B16991  21.119  35.316  12.737 -0.0281 -0.0713 -0.1791
 1448DOPC   D2B16992  21.590  35.432  12.740 -0.2406 -0.1787  0.1964
 1448DOPC   C3B16993  21.623  35.637  13.148  0.1537 -0.1074 -0.1286
 1448DOPC   C4B16994  21.879  35.686  13.520 -0.1386  0.0163  0.1686
 1449POSM   NC316995  18.971   0.526  11.973  0.1878 -0.0586  0.2787
 1449POSM   PO416996  19.230   0.312  12.165 -0.2051  0.2392  0.2046
 1449POSM   AM116997  19.185   0.185  12.472 -0.0606  0.2695 -0.3168
 1449POSM   AM216998  18.984   0.026  12.584  0.0397  0.3661 -0.0211
 1449POSM   T1A16999  19.266   0.268  12.986  0.1564 -0.1768 -0.0684
 1449POSM   C2A17000  19.492   0.090  13.340  0.1285 -0.4466  0.0264
 1449POSM   C3A17001  19.750   0.367  13.620 -0.1143 -0.0678  0.0745
 1449POSM   C1B17002  18.990  -0.149  12.876  0.1222 -0.2804 -0.2037
 1449POSM   D2B17003  18.873  -0.257  13.294 -0.3354 -0.1108 -0.0541
 1449POSM   C3B17004  19.172  -0.530  13.546  0.1868 -0.0206  0.2585
 1449POSM   C4B17005  19.461  -0.408  13.927  0.3405  0.1932 -0.0182
 1450DOPE   NH317006  20.397   6.706  12.530 -0.0321 -0.0821 -0.2064
 1450DOPE   PO417007  20.371   6.415  12.464 -0.1229 -0.3153 -0.0416
 1450DOPE   GL117008  20.317   6.076  12.763  0.1382 -0.0423  0.0342
 1450DOPE   GL217009  20.059   5.937  12.638  0.1146 -0.2701 -0.1558
 1450DOPE   C1A17010  20.200   6.117  13.233 -0.0907 -0.4794  0.3323
 1450DOPE   D2A17011  20.026   6.382  13.549 -0.2326 -0.2518 -0.1790
 1450DOPE   C3A17012  19.671   6.210  13.831 -0.0776 -0.0071 -0.1836
 1450DOPE   C4A17013  19.646   6.259  14.301  0.3447 -0.0263 -0.0557
 1450DOPE   C1B17014  19.931   5.700  13.048 -0.1220  0.0590 -0.2981
 1450DOPE   D2B17015  19.802   5.492  13.412  0.0125  0.2334  0.0381
 1450DOPE   C3B17016  19.693   5.636  13.864  0.2077 -0.0417 -0.1670
 1450DOPE   C4B17017  19.891   5.746  14.233  0.3632  0.0247  0.2718
 1451DOPE   NH317018  11.841   3.279  11.750  0.3014 -0.2931  0.3250
 1451DOPE   PO417019  11.736   3.511  11.544 -0.1797  0.0046  0.2880
 1451DOPE   GL117020  11.647   3.783  11.729  0.0809  0.0167  0.0409
 1451DOPE   GL217021  11.551   3.702  11.986 -0.0671  0.3069 -0.2855
 1451DOPE   C1A17022  11.562   4.222  11.764 -0.0378  0.0585 -0.0110
 1451DOPE   D2A17023  11.698   4.589  12.096  0.0899  0.0196  0.2824
 1451DOPE   C3A17024  11.446   4.871  12.283 -0.1600  0.1904 -0.1187
 1451DOPE   C4A17025  11.107   5.059  12.499 -0.0087 -0.0110 -0.3589
 1451DOPE   C1B17026  11.629   3.928  12.337 -0.0614 -0.2700 -0.0030
 1451DOPE   D2B17027  11.992   4.240  12.164  0.0237  0.1619 -0.2679
 1451DOPE   C3B17028  12.112   4.616  12.404  0.1789 -0.1694 -0.2630
 1451DOPE   C4B17029  12.078   5.047  12.536  0.0329  0.2818 -0.0399
 1452DOPC   NC317030  16.174   5.873  12.043  0.1248  0.0332  0.2238
 1452DOPC   PO417031  16.147   5.950  12.422 -0.2480 -0.1284  0.5057
 1452DOPC   GL117032  16.267   6.263  12.745  0.2060 -0.1136 -0.1432
 1452DOPC   GL217033  16.582   6.297  12.737  0.2515 -0.0379  0.0271
 1452DOPC   C1A17034  16.073   6.541  13.061  0.1731  0.2782 -0.2382
 1452DOPC   D2A17035  15.690   6.798  13.150  0.0905  0.0052  0.0582
 1452DOPC   C3A17036  15.365   7.130  13.343 -0.0162 -0.4989  0.1441
 1452DOPC   C4A17037  14.937   7.225  13.523 -0.1655  0.0105 -0.0725
 1452DOPC   C1B17038  16.686   6.620  13.109 -0.1935  0.1387  0.0939
 1452DOPC   D2B17039  16.618   6.999  13.332  0.1078 -0.2627  0.0626
 1452DOPC   C3B17040  16.153   6.970  13.403 -0.2160  0.1555  0.1255
 1452DOPC   C4B17041  15.870   6.891  13.804 -0.0723  0.1450 -0.0615
 1453DOPE   NH317042  12.986   7.744  12.419  0.1568  0.1020 -0.0979
 1453DOPE   PO417043  12.742   7.509  12.385  0.0022  0.0034  0.2934
 1453DOPE   GL117044  12.664   7.662  12.772  0.2300  0.2451  0.1450
 1453DOPE   GL217045  12.581   7.934  12.712  0.1402 -0.2433  0.1334
 1453DOPE   C1A17046  13.066   7.878  12.917 -0.0608  0.1211  0.0647
 1453DOPE   D2A17047  13.474   7.835  13.126 -0.2381  0.1845  0.2833
 1453DOPE   C3A17048  13.474   7.910  13.594 -0.1495 -0.1030 -0.1858
 1453DOPE   C4A17049  13.745   7.950  13.972 -0.2300  0.0389  0.0563
 1453DOPE   C1B17050  12.484   7.867  13.168  0.2208  0.1067 -0.2440
 1453DOPE   D2B17051  12.376   7.923  13.585  0.0493  0.0377 -0.0244
 1453DOPE   C3B17052  12.323   8.131  13.966  0.1737  0.0857  0.0377
 1453DOPE   C4B17053  12.218   8.536  14.109 -0.1297  0.1376 -0.0058
 1454POSM   NC317054  19.329   4.880  12.402  0.2249  0.0189 -0.1010
 1454POSM   PO417055  19.637   4.768  12.613  0.0222 -0.0234 -0.1212
 1454POSM   AM117056  19.486   4.883  12.842  0.0616 -0.0559 -0.0756
 1454POSM   AM217057  19.546   4.870  13.124  0.1415  0.1958 -0.2622
 1454POSM   T1A17058  19.359   5.315  13.110  0.1222  0.1834  0.1841
 1454POSM   C2A17059  19.325   5.358  13.639  0.1977  0.1028  0.1524
 1454POSM   C3A17060  19.287   5.285  14.071 -0.2804 -0.1032  0.2817
 1454POSM   C1B17061  19.510   4.926  13.443 -0.1060 -0.1474  0.3089
 1454POSM   D2B17062  19.671   5.033  13.903  0.1107  0.0039 -0.3568
 1454POSM   C3B17063  20.077   4.902  14.098  0.3574 -0.1285 -0.1806
 1454POSM   C4B17064  20.421   4.581  14.050  0.3682  0.3679  0.1150
 1455DOPC   NC317065  19.769   7.310  12.090 -0.0486 -0.0699  0.0673
 1455DOPC   PO417066  20.105   7.129  12.193 -0.3254  0.1413 -0.2085
 1455DOPC   GL117067  20.153   7.478  12.388 -0.0114  0.4742 -0.2592
 1455DOPC   GL217068  20.046   7.698  12.295  0.1115  0.1465 -0.2118
 1455DOPC   C1A17069  20.352   7.721  12.709  0.1949 -0.0885  0.0936
 1455DOPC   D2A17070  20.665   8.069  12.760 -0.3243  0.0319  0.1540
 1455DOPC   C3A17071  20.734   8.320  13.119  0.1803  0.1520  0.0286
 1455DOPC   C4A17072  20.859   8.119  13.512 -0.1650 -0.2070  0.3717
 1455DOPC   C1B17073  19.840   7.730  12.748  0.0409  0.1291 -0.0670
 1455DOPC   D2B17074  19.606   7.930  13.113 -0.1306  0.1139 -0.0568
 1455DOPC   C3B17075  19.643   8.208  13.478  0.2276 -0.3889 -0.1859
 1455DOPC   C4B17076  19.925   8.386  13.804 -0.0661  0.1772  0.0358
 1456POSM   NC317077  18.541  10.790  12.118 -0.1775  0.1481 -0.1996
 1456POSM   PO417078  18.501  10.488  12.395 -0.1348 -0.0806  0.2537
 1456POSM   AM117079  18.611  10.500  12.712  0.5287  0.4553  0.0751
 1456POSM   AM217080  18.816  10.585  12.909  0.0807 -0.2427 -0.0848
 1456POSM   T1A17081  18.416  10.382  13.123 -0.2395 -0.1866  0.0353
 1456POSM   C2A17082  18.221  10.191  13.490  0.3915  0.0778 -0.2999
 1456POSM   C3A17083  18.208   9.932  13.830  0.2509  0.2601 -0.0099
 1456POSM   C1B17084  19.020  10.509  13.182 -0.3685  0.1277  0.1956
 1456POSM   D2B17085  19.370  10.693  13.443  0.1919 -0.1506 -0.0861
 1456POSM   C3B17086  19.430  10.919  13.804  0.0694  0.2490  0.0982
 1456POSM   C4B17087  19.202  11.285  14.061  0.2058  0.1042  0.0726
 1457DOPE   NH317088  17.339   0.230  12.183  0.0406 -0.1952  0.2313
 1457DOPE   PO417089  17.548   0.189  12.413 -0.1865  0.1124  0.0858
 1457DOPE   GL117090  17.600  -0.058  12.745  0.0987  0.0826  0.0375
 1457DOPE   GL217091  17.317   0.031  12.884 -0.1196 -0.0155 -0.2381
 1457DOPE   C1A17092  17.861   0.094  13.121 -0.0292  0.2493 -0.2018
 1457DOPE   D2A17093  17.831   0.423  13.512  0.1135 -0.2362  0.0981
 1457DOPE   C3A17094  17.522   0.162  13.685  0.1330  0.3697  0.0245
 1457DOPE   C4A17095  17.226  -0.182  13.813  0.1800 -0.0678  0.0278
 1457DOPE   C1B17096  17.494  -0.271  13.210  0.1402  0.0325 -0.0511
 1457DOPE   D2B17097  17.410  -0.607  13.490  0.3481  0.0384  0.0142
 1457DOPE   C3B17098  17.356  -1.108  13.366  0.1983 -0.0526  0.2038
 1457DOPE   C4B17099  17.393  -1.573  13.530 -0.1519 -0.0436  0.0743
 1458DOPC   NC317100  20.008   4.405  12.417  0.1023 -0.1047  0.2287
 1458DOPC   PO417101  20.135   4.628  12.744  0.0224  0.0662  0.3159
 1458DOPC   GL117102  20.332   4.252  12.862  0.0243  0.3735  0.4773
 1458DOPC   GL217103  20.217   4.265  13.193  0.0310 -0.2478  0.2071
 1458DOPC   C1A17104  20.732   4.021  12.754  0.1700 -0.2401  0.2444
 1458DOPC   D2A17105  20.803   3.520  12.739  0.1198  0.2361  0.2852
 1458DOPC   C3A17106  20.395   3.373  12.796 -0.2971  0.0374  0.0753
 1458DOPC   C4A17107  20.011   3.176  12.662  0.3386  0.1284  0.3462
 1458DOPC   C1B17108  20.516   4.411  13.536  0.2305 -0.1636 -0.0974
 1458DOPC   D2B17109  20.930   4.331  13.729  0.2111 -0.0846  0.0722
 1458DOPC   C3B17110  20.945   4.638  14.105  0.2259  0.0550 -0.0884
 1458DOPC   C4B17111  20.926   4.966  14.407  0.0517  0.0699  0.2243
 1459DOPE   NH317112  22.743  34.417  12.135 -0.0075 -0.1902 -0.1546
 1459DOPE   PO417113  22.452  34.381  12.231  0.1142  0.0239  0.1307
 1459DOPE   GL117114  22.543  34.616  12.538 -0.1145 -0.0605  0.7052
 1459DOPE   GL217115  22.691  34.442  12.712 -0.2099 -0.2213  0.0771
 1459DOPE   C1A17116  22.857  34.917  12.315 -0.1805  0.0767 -0.1370
 1459DOPE   D2A17117  23.148  35.215  12.377 -0.0100  0.0164 -0.3009
 1459DOPE   C3A17118  23.086  35.510  12.722  0.0785 -0.1433 -0.0362
 1459DOPE   C4A17119  23.017  35.737  13.124  0.1598 -0.3670  0.0773
 1459DOPE   C1B17120  23.022  34.789  12.767 -0.3480 -0.0266 -0.2301
 1459DOPE   D2B17121  22.932  35.061  13.071  0.5481 -0.1740 -0.2232
 1459DOPE   C3B17122  22.745  34.711  13.379  0.0944  0.0696  0.2535
 1459DOPE   C4B17123  22.813  34.566  13.814 -0.3354 -0.1639 -0.1663
 1460POSM   NC317124  12.973   3.977  11.760  0.1998  0.2964 -0.0729
 1460POSM   PO417125  12.876   3.957  12.137 -0.4335  0.1418  0.3417
 1460POSM   AM117126  12.942   3.970  12.417 -0.0182 -0.2007 -0.0275
 1460POSM   AM217127  13.088   4.155  12.599  0.3843  0.1503  0.0379
 1460POSM   T1A17128  12.790   3.937  12.900  0.1274 -0.0789  0.1627
 1460POSM   C2A17129  12.502   4.196  13.144 -0.4243  0.1546 -0.2558
 1460POSM   C3A17130  12.360   4.470  13.524 -0.0676 -0.1217  0.0868
 1460POSM   C1B17131  12.955   4.452  12.544  0.2332 -0.0288 -0.2910
 1460POSM   D2B17132  12.820   4.706  12.884  0.2358 -0.5119 -0.0813
 1460POSM   C3B17133  12.772   4.615  13.359 -0.0923  0.0846 -0.1937
 1460POSM   C4B17134  12.914   4.230  13.604  0.2263 -0.1988 -0.0077
 1461DOPC   NC317135  17.741   6.542  12.665  0.0073 -0.1287 -0.0946
 1461DOPC   PO417136  17.944   6.865  12.623 -0.3266 -0.1602 -0.0996
 1461DOPC   GL117137  18.082   6.953  12.917 -0.3782  0.0642 -0.1492
 1461DOPC   GL217138  18.279   6.735  12.989 -0.1080  0.1345 -0.2274
 1461DOPC   C1A17139  17.917   7.200  13.307  0.1553  0.0069  0.0127
 1461DOPC   D2A17140  17.490   7.386  13.492  0.1648  0.5951  0.1813
 1461DOPC   C3A17141  17.533   7.225  13.905  0.3254 -0.1151 -0.2562
 1461DOPC   C4A17142  17.653   7.074  14.335 -0.1938  0.1758 -0.0780
 1461DOPC   C1B17143  18.363   6.394  13.254  0.2137  0.1233 -0.3689
 1461DOPC   D2B17144  18.530   6.279  13.597 -0.2755 -0.0019 -0.1427
 1461DOPC   C3B17145  18.932   6.449  13.757  0.3431  0.0038  0.1203
 1461DOPC   C4B17146  19.319   6.532  13.971  0.0667 -0.1212 -0.0025
 1462POSM   NC317147  18.978   1.102  11.857  0.1141 -0.0335  0.0355
 1462POSM   PO417148  18.841   0.928  12.202  0.2374 -0.2367  0.2167
 1462POSM   AM117149  18.835   1.009  12.513 -0.0281  0.0489  0.0141
 1462POSM   AM217150  18.746   1.212  12.636  0.0557 -0.2544  0.0355
 1462POSM   T1A17151  19.162   1.116  12.872 -0.1389 -0.0271  0.1931
 1462POSM   C2A17152  18.992   1.135  13.290 -0.1086 -0.0388 -0.1269
 1462POSM   C3A17153  19.319   1.242  13.618 -0.2813  0.0365 -0.1143
 1462POSM   C1B17154  18.676   1.337  12.949 -0.4742  0.3299  0.0605
 1462POSM   D2B17155  18.697   1.581  13.346 -0.1701 -0.1337 -0.1306
 1462POSM   C3B17156  18.826   1.485  13.767  0.0404  0.0127  0.0922
 1462POSM   C4B17157  19.006   1.563  14.171  0.1933  0.1298 -0.1162
 1463POSM   NC317158  11.826   6.328  12.200 -0.0730  0.1453 -0.1019
 1463POSM   PO417159  11.987   6.666  12.142  0.1566 -0.3353  0.0152
 1463POSM   AM117160  12.098   6.729  12.458 -0.1633  0.1968  0.3588
 1463POSM   AM217161  12.292   6.830  12.607 -0.3176  0.0393 -0.2122
 1463POSM   T1A17162  11.839   6.583  12.843 -0.0513  0.1713 -0.0111
 1463POSM   C2A17163  11.415   6.651  13.068  0.0024  0.0496  0.1250
 1463POSM   C3A17164  11.248   6.565  13.462  0.1597 -0.2624 -0.0364
 1463POSM   C1B17165  12.182   7.007  12.865 -0.2004  0.1051  0.1365
 1463POSM   D2B17166  12.273   7.374  13.130 -0.0341  0.1285 -0.1597
 1463POSM   C3B17167  12.076   7.424  13.597  0.0461  0.3874  0.0584
 1463POSM   C4B17168  12.143   7.381  14.077 -0.2366 -0.0123 -0.0253
 1464DOPC   NC317169  16.911   2.490  12.135 -0.0493 -0.0862 -0.0464
 1464DOPC   PO417170  17.074   2.391  12.485  0.3948 -0.1978  0.0861
 1464DOPC   GL117171  17.104   2.154  12.722 -0.0228  0.0461 -0.2422
 1464DOPC   GL217172  17.403   2.130  12.761 -0.1498 -0.2332 -0.0807
 1464DOPC   C1A17173  16.830   1.844  12.966  0.0883 -0.0768  0.1572
 1464DOPC   D2A17174  16.372   1.833  13.006 -0.1330  0.2144  0.1162
 1464DOPC   C3A17175  16.046   1.835  13.381 -0.1386  0.0812  0.1209
 1464DOPC   C4A17176  15.754   1.797  13.727 -0.2738  0.1131  0.0259
 1464DOPC   C1B17177  17.227   1.999  13.181 -0.0117  0.0164  0.2349
 1464DOPC   D2B17178  16.888   2.011  13.535  0.1574 -0.0522 -0.1754
 1464DOPC   C3B17179  16.830   1.675  13.853  0.0835 -0.0713 -0.0393
 1464DOPC   C4B17180  16.641   1.234  13.953 -0.1276 -0.0639 -0.1696
 1465DOPE   NH317181  14.590   0.896  11.824 -0.0780 -0.2932 -0.0961
 1465DOPE   PO417182  14.885   1.064  11.856  0.2349  0.2626 -0.0418
 1465DOPE   GL117183  14.920   1.107  12.300  0.3341  0.0400  0.2438
 1465DOPE   GL217184  15.043   1.329  12.253  0.0715  0.2076 -0.2283
 1465DOPE   C1A17185  14.900   1.107  12.774  0.1506 -0.0194  0.0297
 1465DOPE   D2A17186  14.871   1.191  13.243  0.0897 -0.1624  0.0340
 1465DOPE   C3A17187  15.039   1.337  13.620  0.1401 -0.2731  0.0666
 1465DOPE   C4A17188  15.462   1.427  13.818  0.0663 -0.3080  0.1441
 1465DOPE   C1B17189  15.016   1.771  12.302  0.0935 -0.3244 -0.1310
 1465DOPE   D2B17190  15.017   2.161  12.663 -0.1476  0.2775  0.0346
 1465DOPE   C3B17191  15.293   2.167  13.020  0.1882 -0.0799 -0.0886
 1465DOPE   C4B17192  15.517   1.791  13.268 -0.2173 -0.1938  0.2761
 1466POSM   NC317193  14.647  11.415  11.781  0.0787 -0.0344 -0.1697
 1466POSM   PO417194  14.247  11.473  11.850 -0.1653  0.1247  0.2205
 1466POSM   AM117195  14.320  11.476  12.170 -0.1497  0.3151 -0.0333
 1466POSM   AM217196  14.158  11.445  12.369  0.0342 -0.0189  0.1663
 1466POSM   T1A17197  14.778  11.489  12.408 -0.1317  0.1070 -0.2895
 1466POSM   C2A17198  15.104  11.683  12.650  0.1076  0.1272  0.1206
 1466POSM   C3A17199  15.341  11.566  13.023 -0.1131  0.3789  0.1923
 1466POSM   C1B17200  14.224  11.508  12.705  0.1019  0.1517 -0.0152
 1466POSM   D2B17201  14.179  11.564  13.179  0.2999 -0.0211  0.2765
 1466POSM   C3B17202  14.400  11.970  13.259  0.2255  0.3517  0.0415
 1466POSM   C4B17203  14.637  12.347  13.090 -0.0045 -0.0887  0.0940
 1467POSM   NC317204  16.568   1.518  11.953  0.2205 -0.2504 -0.2382
 1467POSM   PO417205  16.264   1.773  11.902 -0.3470 -0.3521 -0.6150
 1467POSM   AM117206  16.069   2.011  12.096  0.1067 -0.2475  0.0141
 1467POSM   AM217207  16.017   2.265  11.970 -0.1342  0.0534  0.1539
 1467POSM   T1A17208  16.049   2.299  12.539 -0.1209  0.1514 -0.0899
 1467POSM   C2A17209  15.991   2.174  12.979 -0.0028 -0.0207 -0.1541
 1467POSM   C3A17210  15.862   2.303  13.403  0.2711  0.1408  0.0891
 1467POSM   C1B17211  15.703   2.323  12.083 -0.1446  0.1015 -0.3759
 1467POSM   D2B17212  15.540   2.216  12.467  0.0052  0.2128 -0.2145
 1467POSM   C3B17213  15.441   1.821  12.729  0.0498 -0.0790  0.2777
 1467POSM   C4B17214  15.034   1.621  12.904  0.3721 -0.0746  0.0743
 1468DOPS   CNO17215  18.610   6.022  12.415  0.2256  0.2032 -0.1046
 1468DOPS   PO417216  18.331   5.963  12.693  0.0132 -0.0424  0.1305
 1468DOPS   GL117217  18.499   5.971  13.060 -0.1039 -0.0794 -0.0092
 1468DOPS   GL217218  18.419   5.835  13.306 -0.0130 -0.1384  0.2633
 1468DOPS   C1A17219  18.887   6.083  13.296 -0.1050 -0.0066  0.3128
 1468DOPS   D2A17220  19.237   6.106  13.605  0.1690  0.2429 -0.0891
 1468DOPS   C3A17221  19.251   5.900  13.987  0.0934  0.1562  0.2516
 1468DOPS   C4A17222  19.376   5.733  14.377  0.1103 -0.3614  0.1525
 1468DOPS   C1B17223  18.463   5.366  13.436 -0.0282 -0.0694  0.0797
 1468DOPS   D2B17224  18.119   5.010  13.572  0.0766 -0.1059 -0.1802
 1468DOPS   C3B17225  17.960   5.300  13.952 -0.0857  0.3826  0.0051
 1468DOPS   C4B17226  17.711   5.625  14.061 -0.1396 -0.0023  0.3172
 1469DOPC   NC317227  14.994   8.544  12.218 -0.0496  0.0942  0.3579
 1469DOPC   PO417228  14.767   8.877  12.116  0.0665 -0.0236 -0.0254
 1469DOPC   GL117229  14.599   9.087  12.468  0.1484 -0.2063  0.0011
 1469DOPC   GL217230  14.601   8.820  12.649 -0.1411  0.1975  0.1037
 1469DOPC   C1A17231  14.228   9.121  12.751  0.1182 -0.6378 -0.2014
 1469DOPC   D2A17232  13.834   9.329  12.944  0.2428  0.2285  0.2092
 1469DOPC   C3A17233  13.851   9.650  13.293 -0.1143 -0.1154 -0.2811
 1469DOPC   C4A17234  13.897   9.657  13.760  0.1091 -0.0923  0.2344
 1469DOPC   C1B17235  14.629   9.159  12.992  0.1152  0.3237 -0.0160
 1469DOPC   D2B17236  14.326   9.377  13.201 -0.0180 -0.4416 -0.1305
 1469DOPC   C3B17237  14.055   9.250  13.549 -0.0575 -0.2053 -0.3753
 1469DOPC   C4B17238  13.937   9.139  13.976 -0.5221 -0.3891  0.0894
 1470POSM   NC317239  10.962   6.371  12.166  0.0001  0.3431 -0.1211
 1470POSM   PO417240  11.309   6.130  12.209 -0.2444  0.2665 -0.2562
 1470POSM   AM117241  11.470   6.009  12.457 -0.3126  0.0601  0.1407
 1470POSM   AM217242  11.537   5.801  12.631  0.1431  0.1678 -0.1011
 1470POSM   T1A17243  11.939   6.025  12.663 -0.2653  0.1763 -0.0425
 1470POSM   C2A17244  12.156   5.991  13.097 -0.1236  0.1888  0.0306
 1470POSM   C3A17245  12.249   6.078  13.519 -0.1807 -0.0043 -0.0124
 1470POSM   C1B17246  11.302   5.677  12.830 -0.0981 -0.1376  0.1451
 1470POSM   D2B17247  11.165   5.357  13.164 -0.1564  0.1331 -0.1182
 1470POSM   C3B17248  11.168   4.899  13.315 -0.1796  0.0247 -0.1705
 1470POSM   C4B17249  11.241   4.614  13.003  0.0494 -0.1251 -0.0393
 1471DOPE   NH317250  16.928   3.284  12.786  0.2550 -0.2071 -0.0787
 1471DOPE   PO417251  17.146   3.465  12.943  0.1580 -0.0868 -0.5215
 1471DOPE   GL117252  16.887   3.625  13.234 -0.2761  0.1525 -0.0471
 1471DOPE   GL217253  16.725   3.417  13.275  0.0965  0.0848 -0.1202
 1471DOPE   C1A17254  17.030   3.896  13.616 -0.1626  0.0097  0.4466
 1471DOPE   D2A17255  17.281   3.925  13.988  0.3753 -0.2064  0.2150
 1471DOPE   C3A17256  17.388   3.605  14.284  0.4178 -0.0954  0.1456
 1471DOPE   C4A17257  17.557   3.183  14.138 -0.0032 -0.0373  0.0242
 1471DOPE   C1B17258  16.734   3.396  13.743 -0.1483  0.1347  0.0276
 1471DOPE   D2B17259  16.899   3.507  14.160  0.1338  0.0584  0.4750
 1471DOPE   C3B17260  17.078   3.225  14.460 -0.2088 -0.0950  0.1298
 1471DOPE   C4B17261  17.277   2.856  14.543 -0.1937 -0.3336 -0.0140
 1472POSM   NC317262  12.284   7.471  12.578  0.1974 -0.2247 -0.1725
 1472POSM   PO417263  12.082   7.759  12.419 -0.1161 -0.2350 -0.3342
 1472POSM   AM117264  12.057   7.991  12.701  0.0692  0.2032  0.1344
 1472POSM   AM217265  12.124   8.256  12.723  0.1606  0.0474  0.1012
 1472POSM   T1A17266  11.903   7.999  13.183 -0.0689  0.2055  0.1756
 1472POSM   C2A17267  11.823   7.833  13.606 -0.1674 -0.1698  0.2113
 1472POSM   C3A17268  11.697   7.712  14.015 -0.1083  0.1665 -0.0364
 1472POSM   C1B17269  12.268   8.331  13.021 -0.0881 -0.1525  0.1257
 1472POSM   D2B17270  12.544   8.398  13.441 -0.1688 -0.2026  0.0329
 1472POSM   C3B17271  12.881   8.733  13.515 -0.0391  0.1445 -0.0974
 1472POSM   C4B17272  13.294   8.936  13.604 -0.6240  0.1092 -0.0414
 1473POSM   NC317273  14.395   6.229  12.565 -0.2779  0.0586 -0.0973
 1473POSM   PO417274  14.709   6.196  12.310 -0.2602  0.1575  0.3810
 1473POSM   AM117275  14.817   6.353  12.608 -0.0002  0.0879  0.3477
 1473POSM   AM217276  14.849   6.606  12.676 -0.1205 -0.0451  0.1074
 1473POSM   T1A17277  15.027   6.280  13.047 -0.0230  0.1047 -0.0216
 1473POSM   C2A17278  15.173   6.148  13.445 -0.1379  0.2370  0.0695
 1473POSM   C3A17279  15.109   6.166  13.929  0.1185 -0.0952 -0.0742
 1473POSM   C1B17280  14.971   6.817  12.444  0.0202  0.0281  0.2200
 1473POSM   D2B17281  15.300   7.001  12.205 -0.1052  0.1671 -0.1558
 1473POSM   C3B17282  15.261   7.374  12.437 -0.2272  0.1395 -0.1946
 1473POSM   C4B17283  15.057   7.259  12.821  0.2616 -0.0826 -0.3493
 1474POSM   NC317284  12.849   6.643  12.513 -0.0741 -0.2542  0.1131
 1474POSM   PO417285  13.166   6.723  12.294 -0.1247  0.1959  0.1757
 1474POSM   AM117286  13.360   6.825  12.580  0.1204 -0.1086  0.5171
 1474POSM   AM217287  13.435   7.046  12.727  0.0638  0.2358 -0.0326
 1474POSM   T1A17288  13.510   6.665  13.066 -0.1039  0.0034 -0.2367
 1474POSM   C2A17289  13.470   6.400  13.444  0.0717  0.0417 -0.0646
 1474POSM   C3A17290  13.460   6.008  13.595  0.0707 -0.0672  0.0204
 1474POSM   C1B17291  13.391   7.154  13.033  0.3593 -0.0170  0.1150
 1474POSM   D2B17292  13.424   7.330  13.484  0.1790 -0.3943 -0.4089
 1474POSM   C3B17293  13.756   7.469  13.617 -0.0730  0.1666 -0.0287
 1474POSM   C4B17294  14.138   7.600  13.872 -0.1772  0.1530 -0.0588
 1475DOPS   CNO17295  21.713   4.022  11.880  0.0162 -0.0552 -0.0037
 1475DOPS   PO417296  21.832   4.069  12.244 -0.0994  0.1716  0.1906
 1475DOPS   GL117297  21.696   4.063  12.674 -0.0538 -0.0996  0.1289
 1475DOPS   GL217298  21.858   4.395  12.713  0.0508  0.1861  0.0514
 1475DOPS   C1A17299  21.375   4.269  12.973 -0.0091 -0.2471 -0.0466
 1475DOPS   D2A17300  21.297   4.211  13.428 -0.1302  0.1193  0.1888
 1475DOPS   C3A17301  21.200   3.822  13.628 -0.1454 -0.0336  0.0490
 1475DOPS   C4A17302  20.869   3.556  13.792  0.0369 -0.0564  0.2624
 1475DOPS   C1B17303  21.463   4.680  12.659 -0.1889 -0.2247 -0.0875
 1475DOPS   D2B17304  21.071   4.987  12.615  0.1443  0.4865  0.2396
 1475DOPS   C3B17305  20.912   4.991  13.043 -0.1197  0.2840 -0.0274
 1475DOPS   C4B17306  20.566   5.188  13.219 -0.1713 -0.0970  0.0898
 1476POSM   NC317307  18.076   0.023  12.039 -0.2619 -0.2080 -0.2717
 1476POSM   PO417308  17.914   0.393  12.109 -0.2126  0.0035  0.0507
 1476POSM   AM117309  17.950   0.671  12.304  0.2455  0.3000  0.2231
 1476POSM   AM217310  17.927   0.729  12.594  0.0489  0.1189  0.4629
 1476POSM   T1A17311  17.865   1.140  12.380 -0.2703 -0.2967  0.1176
 1476POSM   C2A17312  17.793   1.507  12.653  0.2875 -0.0512 -0.1678
 1476POSM   C3A17313  17.794   1.869  12.944  0.2459  0.0104  0.0180
 1476POSM   C1B17314  17.818   0.608  12.884  0.0966  0.1785  0.1610
 1476POSM   D2B17315  17.439   0.438  13.157  0.0025  0.1341 -0.2751
 1476POSM   C3B17316  17.372   0.651  13.549  0.2208 -0.0749  0.0526
 1476POSM   C4B17317  17.206   0.866  13.965 -0.2331 -0.3115  0.0335
 1477DOPE   NH317318  22.457   3.265  12.624  0.0693 -0.2538 -0.0244
 1477DOPE   PO417319  22.291   3.316  12.359  0.0686 -0.2294 -0.1440
 1477DOPE   GL117320  22.072   3.585  12.505  0.1213 -0.0377  0.0294
 1477DOPE   GL217321  22.175   3.631  12.847  0.1396  0.0640  0.2479
 1477DOPE   C1A17322  21.703   3.552  12.821  0.2241 -0.1584  0.2512
 1477DOPE   D2A17323  21.630   3.876  13.155  0.3201  0.1107 -0.0096
 1477DOPE   C3A17324  21.778   3.763  13.551 -0.3085  0.0182  0.2927
 1477DOPE   C4A17325  21.660   3.462  13.861  0.0066 -0.0232  0.0140
 1477DOPE   C1B17326  22.131   4.125  13.077 -0.0888 -0.1579 -0.2710
 1477DOPE   D2B17327  22.193   4.590  13.083  0.0309  0.1868  0.0946
 1477DOPE   C3B17328  22.342   4.667  13.488 -0.1454 -0.1035 -0.1412
 1477DOPE   C4B17329  22.394   4.431  13.920  0.2122  0.1095  0.0020
 1478DOPE   NH317330  22.734  10.792  12.346  0.2617  0.2796 -0.2758
 1478DOPE   PO417331  22.573  10.690  12.054  0.3341  0.2786  0.0167
 1478DOPE   GL117332  22.304  10.572  12.359 -0.2054 -0.2754 -0.1832
 1478DOPE   GL217333  22.255  10.333  12.387 -0.2774  0.1821 -0.0100
 1478DOPE   C1A17334  22.411  10.547  12.853  0.0526  0.1009  0.4116
 1478DOPE   D2A17335  22.564  10.717  13.246 -0.1855  0.2431  0.2401
 1478DOPE   C3A17336  22.676  10.483  13.670 -0.1559 -0.0206 -0.0068
 1478DOPE   C4A17337  22.569  10.493  14.090 -0.0098  0.0128 -0.0272
 1478DOPE   C1B17338  21.832  10.443  12.533  0.0424  0.3785  0.3161
 1478DOPE   D2B17339  21.364  10.314  12.695 -0.0536  0.1527  0.0980
 1478DOPE   C3B17340  21.440  10.086  13.078 -0.0560  0.0598  0.2235
 1478DOPE   C4B17341  21.524   9.904  13.533  0.2233 -0.0376 -0.0273
 1479DOPE   NH317342  16.168   6.443  12.262  0.3054 -0.1612  0.2423
 1479DOPE   PO417343  16.479   6.391  12.288  0.1295 -0.0714 -0.2211
 1479DOPE   GL117344  16.400   6.669  12.564  0.0812 -0.0747 -0.2235
 1479DOPE   GL217345  16.667   6.777  12.596 -0.0039 -0.1896  0.1352
 1479DOPE   C1A17346  16.342   6.945  12.936  0.2763  0.2847  0.4518
 1479DOPE   D2A17347  16.075   7.324  13.066 -0.2225 -0.1493 -0.3785
 1479DOPE   C3A17348  15.794   7.383  13.411  0.1922 -0.0578  0.2331
 1479DOPE   C4A17349  15.514   7.494  13.701  0.1060 -0.1016  0.0265
 1479DOPE   C1B17350  17.023   6.507  12.727 -0.1244  0.0034 -0.0437
 1479DOPE   D2B17351  17.054   6.183  12.972  0.1964  0.2568  0.1035
 1479DOPE   C3B17352  16.946   6.215  13.423  0.0450  0.1941  0.1017
 1479DOPE   C4B17353  16.829   6.643  13.585 -0.1755 -0.3203 -0.1690
 1480DOPE   NH317354  12.606   3.630  11.833 -0.1226 -0.0015  0.4141
 1480DOPE   PO417355  12.895   3.421  11.874 -0.0574  0.1550  0.1424
 1480DOPE   GL117356  12.998   2.995  12.031 -0.1100 -0.3298 -0.0812
 1480DOPE   GL217357  13.198   2.828  11.863 -0.1468 -0.3288  0.2260
 1480DOPE   C1A17358  13.333   2.680  12.285  0.2927  0.1984  0.0815
 1480DOPE   D2A17359  13.704   2.489  12.490 -0.1016  0.1320  0.1117
 1480DOPE   C3A17360  13.769   2.061  12.667 -0.2255  0.3910 -0.2664
 1480DOPE   C4A17361  13.828   1.609  12.696 -0.0054  0.1177  0.0520
 1480DOPE   C1B17362  12.867   2.533  11.882 -0.0980  0.0142  0.0327
 1480DOPE   D2B17363  12.420   2.479  11.659 -0.2423  0.2323  0.0534
 1480DOPE   C3B17364  12.050   2.291  11.849 -0.0252  0.1215  0.2391
 1480DOPE   C4B17365  12.057   2.161  12.302 -0.0334  0.2089 -0.1641
 1481POSM   NC317366  12.283   3.139  12.480 -0.2062 -0.3382 -0.0212
 1481POSM   PO417367  12.681   3.056  12.454  0.2739  0.0637 -0.1997
 1481POSM   AM117368  12.725   2.726  12.469  0.1968 -0.0844  0.0271
 1481POSM   AM217369  12.885   2.518  12.372 -0.0245  0.0287 -0.1802
 1481POSM   T1A17370  12.480   2.266  12.532 -0.0613 -0.1166 -0.0011
 1481POSM   C2A17371  12.348   1.804  12.587 -0.1040  0.4133  0.2766
 1481POSM   C3A17372  12.224   1.643  12.136 -0.0801  0.1859  0.3518
 1481POSM   C1B17373  12.982   2.178  12.337  0.0810 -0.2722  0.2181
 1481POSM   D2B17374  12.905   1.735  12.361  0.0197 -0.4301  0.0704
 1481POSM   C3B17375  13.249   1.587  12.578  0.3781  0.1247 -0.0528
 1481POSM   C4B17376  13.452   1.226  12.833  0.0399 -0.1204  0.1535
 1482DOPC   NC317377  22.744   9.630  12.096  0.0750  0.0407  0.1069
 1482DOPC   PO417378  22.371   9.484  12.039 -0.0439  0.3923 -0.0478
 1482DOPC   GL117379  22.223   9.261  12.325  0.1722  0.1405  0.0602
 1482DOPC   GL217380  21.937   9.401  12.259 -0.1422  0.2216 -0.5417
 1482DOPC   C1A17381  22.092   8.889  12.602 -0.0201 -0.0128  0.0283
 1482DOPC   D2A17382  22.079   8.513  12.847 -0.3375  0.0871 -0.1335
 1482DOPC   C3A17383  22.142   8.577  13.296  0.1466  0.0346 -0.2490
 1482DOPC   C4A17384  21.942   8.909  13.575 -0.0467  0.2560  0.0227
 1482DOPC   C1B17385  21.759   9.482  12.715  0.2385  0.1014  0.1537
 1482DOPC   D2B17386  21.765   9.691  13.129  0.1981 -0.0349 -0.0127
 1482DOPC   C3B17387  21.629   9.329  13.408 -0.3489 -0.0707 -0.0114
 1482DOPC   C4B17388  21.358   9.402  13.780 -0.1482 -0.0053 -0.1958
 1483DOPC   NC317389  18.370   9.871  12.530  0.0185 -0.4328  0.1199
 1483DOPC   PO417390  18.076   9.808  12.191  0.0806  0.1293  0.0469
 1483DOPC   GL117391  17.847   9.582  12.402  0.3541  0.0451 -0.0950
 1483DOPC   GL217392  18.009   9.549  12.643 -0.3737 -0.2080 -0.1289
 1483DOPC   C1A17393  17.464   9.428  12.527  0.1438 -0.1586  0.1694
 1483DOPC   D2A17394  17.182   9.135  12.747 -0.1070 -0.0410 -0.0177
 1483DOPC   C3A17395  17.025   9.415  13.054 -0.2316  0.0323  0.0527
 1483DOPC   C4A17396  16.627   9.514  13.248  0.1657 -0.3131  0.3758
 1483DOPC   C1B17397  18.168   9.346  13.028  0.6840 -0.0400 -0.0709
 1483DOPC   D2B17398  18.093   9.018  13.416  0.0627  0.0687  0.0434
 1483DOPC   C3B17399  17.672   8.942  13.289  0.0083  0.1291  0.2156
 1483DOPC   C4B17400  17.299   8.722  13.135  0.3853  0.2376 -0.1861
 1484POSM   NC317401  14.056   5.820  11.799  0.0709 -0.0373  0.2277
 1484POSM   PO417402  13.676   6.012  11.818 -0.2541  0.4191  0.0540
 1484POSM   AM117403  13.572   5.800  12.068  0.1212 -0.3857 -0.0161
 1484POSM   AM217404  13.504   5.794  12.344  0.1406  0.0739  0.2300
 1484POSM   T1A17405  13.184   5.437  11.994 -0.0219 -0.0550 -0.0830
 1484POSM   C2A17406  13.029   5.002  12.002  0.0302 -0.3917  0.1726
 1484POSM   C3A17407  12.835   4.870  12.355 -0.1172 -0.3856  0.1225
 1484POSM   C1B17408  13.268   5.651  12.472 -0.0312  0.0226  0.2984
 1484POSM   D2B17409  12.932   5.667  12.809  0.0264  0.0635  0.3105
 1484POSM   C3B17410  12.891   5.420  13.203  0.0598 -0.3153  0.2542
 1484POSM   C4B17411  12.586   5.303  13.590  0.0991 -0.0075  0.0431
 1485POSM   NC317412  19.717   6.296  12.952 -0.0867  0.0145  0.0190
 1485POSM   PO417413  19.943   6.529  12.734  0.1383 -0.0650  0.1649
 1485POSM   AM117414  20.209   6.535  12.939 -0.5404  0.2245  0.0522
 1485POSM   AM217415  20.330   6.702  13.114  0.3281 -0.2480 -0.0255
 1485POSM   T1A17416  20.594   6.273  13.022 -0.0056 -0.1067  0.1760
 1485POSM   C2A17417  20.869   5.881  12.973 -0.0839 -0.1102  0.0066
 1485POSM   C3A17418  21.012   5.444  12.881 -0.2958 -0.3167 -0.0581
 1485POSM   C1B17419  20.260   6.784  13.408 -0.0368  0.1020 -0.3107
 1485POSM   D2B17420  20.369   6.677  13.857 -0.3033 -0.0639 -0.0969
 1485POSM   C3B17421  20.186   6.302  14.015 -0.2467  0.3614 -0.2031
 1485POSM   C4B17422  20.148   5.911  13.799  0.0130 -0.4610  0.4081
 1486DOPS   CNO17423  18.635   1.743  12.611 -0.0446  0.3627  0.2755
 1486DOPS   PO417424  18.860   1.977  12.380  0.0748  0.0757 -0.1237
 1486DOPS   GL117425  18.981   2.239  12.672  0.2206  0.3118  0.1998
 1486DOPS   GL217426  19.247   2.374  12.687 -0.2616 -0.2680 -0.3427
 1486DOPS   C1A17427  19.051   2.398  13.138 -0.1360  0.1797  0.2041
 1486DOPS   D2A17428  18.974   2.502  13.583 -0.1227 -0.1899 -0.3435
 1486DOPS   C3A17429  18.698   2.474  13.990 -0.1051 -0.0218  0.0233
 1486DOPS   C4A17430  18.790   2.103  14.270  0.1083  0.2091 -0.0188
 1486DOPS   C1B17431  19.576   2.435  13.013 -0.1498 -0.1465 -0.2288
 1486DOPS   D2B17432  19.833   2.602  13.393  0.0049 -0.0030  0.1530
 1486DOPS   C3B17433  20.252   2.709  13.416  0.2318  0.1648  0.2484
 1486DOPS   C4B17434  20.357   3.025  13.747 -0.0984  0.2688 -0.0535
 1487DOPE   NH317435  19.106   7.315  11.954  0.0236 -0.0690  0.2376
 1487DOPE   PO417436  19.287   7.089  12.091  0.1675 -0.0955 -0.3892
 1487DOPE   GL117437  19.308   7.401  12.375  0.3714  0.3175 -0.2136
 1487DOPE   GL217438  19.396   7.638  12.201  0.0786  0.2084  0.1155
 1487DOPE   C1A17439  19.221   7.728  12.736 -0.1650 -0.4007 -0.0656
 1487DOPE   D2A17440  19.106   8.107  12.970 -0.0299  0.1380 -0.4071
 1487DOPE   C3A17441  19.212   7.988  13.422 -0.0573  0.1585 -0.1996
 1487DOPE   C4A17442  19.387   8.061  13.860 -0.2455 -0.3907  0.5081
 1487DOPE   C1B17443  19.671   8.042  12.177  0.0407 -0.1652 -0.3554
 1487DOPE   D2B17444  19.854   8.459  12.244 -0.1853 -0.0159 -0.2700
 1487DOPE   C3B17445  19.748   8.893  12.394 -0.0080  0.0901  0.1097
 1487DOPE   C4B17446  19.908   9.283  12.569 -0.2101 -0.3179 -0.0679
 1488DOPC   NC317447  18.231   4.764  12.260 -0.1403  0.0370  0.0807
 1488DOPC   PO417448  18.293   4.999  12.586  0.2317 -0.0173 -0.0352
 1488DOPC   GL117449  18.269   4.632  12.879  0.1375 -0.3379  0.1630
 1488DOPC   GL217450  18.123   4.646  13.078 -0.3622  0.0602  0.0585
 1488DOPC   C1A17451  18.682   4.465  13.120  0.2782  0.1442  0.2817
 1488DOPC   D2A17452  18.877   4.084  13.200 -0.0877  0.4131  0.1882
 1488DOPC   C3A17453  18.649   3.749  13.291 -0.0108  0.0273 -0.1874
 1488DOPC   C4A17454  18.409   3.588  13.683  0.0561  0.1495 -0.0685
 1488DOPC   C1B17455  18.262   4.551  13.569 -0.0843 -0.1412  0.0561
 1488DOPC   D2B17456  18.058   4.510  14.062  0.0639  0.0605 -0.3747
 1488DOPC   C3B17457  18.145   4.960  14.243 -0.3058  0.0753 -0.0237
 1488DOPC   C4B17458  18.502   5.235  14.142  0.1117  0.0556  0.0242
 1489DOPC   NC317459  17.206   7.795  12.294  0.2305 -0.2072 -0.0350
 1489DOPC   PO417460  16.821   7.655  12.173  0.2177  0.4216  0.1107
 1489DOPC   GL117461  16.755   7.561  12.568 -0.1717 -0.2375  0.3508
 1489DOPC   GL217462  16.572   7.342  12.641 -0.0346 -0.1785  0.0236
 1489DOPC   C1A17463  16.449   7.872  12.685 -0.1603  0.2262  0.0127
 1489DOPC   D2A17464  16.220   8.271  12.624  0.0686  0.0809  0.2953
 1489DOPC   C3A17465  16.574   8.601  12.738  0.1755 -0.0225  0.0616
 1489DOPC   C4A17466  16.802   8.876  12.967 -0.0992  0.0994 -0.0662
 1489DOPC   C1B17467  16.561   7.458  13.087 -0.1163 -0.0387 -0.0059
 1489DOPC   D2B17468  16.387   7.419  13.578  0.1443  0.0676 -0.0369
 1489DOPC   C3B17469  16.076   7.319  13.929  0.0875  0.1307  0.0231
 1489DOPC   C4B17470  16.193   7.356  14.340  0.1241 -0.2428 -0.0773
 1490DOPC   NC317471  14.901   9.879  12.315  0.2725 -0.2592  0.1462
 1490DOPC   PO417472  15.076   9.871  11.951  0.1985 -0.2298  0.0368
 1490DOPC   GL117473  15.390  10.055  12.193 -0.1351  0.1992  0.0927
 1490DOPC   GL217474  15.656   9.983  12.127  0.3033 -0.1289 -0.0600
 1490DOPC   C1A17475  15.619  10.464  12.158 -0.0504  0.0445 -0.3815
 1490DOPC   D2A17476  16.006  10.659  12.344 -0.1380 -0.1383 -0.0624
 1490DOPC   C3A17477  16.314  10.346  12.439 -0.1095  0.0246  0.0468
 1490DOPC   C4A17478  16.629  10.117  12.227  0.0371  0.3186 -0.1179
 1490DOPC   C1B17479  15.828  10.198  12.499  0.1055 -0.1039 -0.0665
 1490DOPC   D2B17480  15.955  10.463  12.846  0.5373 -0.1633  0.4479
 1490DOPC   C3B17481  16.265  10.287  13.096 -0.0883 -0.1922  0.0433
 1490DOPC   C4B17482  16.603  10.020  13.396  0.2768 -0.1059 -0.2204
 1491DOPE   NH317483  18.416   0.548  12.221  0.0598  0.1974  0.0736
 1491DOPE   PO417484  18.392   0.825  12.437 -0.1040 -0.2741  0.3130
 1491DOPE   GL117485  18.646   0.834  12.821  0.1547  0.0967  0.0960
 1491DOPE   GL217486  18.539   0.833  13.103  0.1024 -0.4468 -0.2644
 1491DOPE   C1A17487  18.982   0.667  13.128  0.3275  0.1463  0.2802
 1491DOPE   D2A17488  19.198   0.435  13.475  0.0676  0.0598  0.0438
 1491DOPE   C3A17489  19.042   0.037  13.621  0.1039  0.1708 -0.2401
 1491DOPE   C4A17490  18.729  -0.297  13.767 -0.1041  0.1199  0.1122
 1491DOPE   C1B17491  18.662   0.789  13.496 -0.0970 -0.0076 -0.1904
 1491DOPE   D2B17492  19.028   0.836  13.730  0.1299  0.1187 -0.1654
 1491DOPE   C3B17493  19.157   0.503  14.028  0.0907 -0.2581 -0.4492
 1491DOPE   C4B17494  19.396   0.113  13.973 -0.1830  0.1471  0.1177
 1492DOPC   NC317495  21.166   6.592  13.091 -0.0195 -0.0173  0.0714
 1492DOPC   PO417496  21.355   6.906  12.893  0.0269 -0.0266 -0.3803
 1492DOPC   GL117497  21.648   7.161  13.138 -0.0596  0.3670  0.0786
 1492DOPC   GL217498  21.619   6.993  13.337 -0.0361 -0.2398 -0.0218
 1492DOPC   C1A17499  21.911   7.519  13.157 -0.2502 -0.2120 -0.3058
 1492DOPC   D2A17500  22.023   7.941  13.402 -0.2495  0.0852 -0.2183
 1492DOPC   C3A17501  22.387   8.177  13.648 -0.1024 -0.3150 -0.0042
 1492DOPC   C4A17502  22.348   8.568  13.862  0.0621 -0.2533  0.0935
 1492DOPC   C1B17503  21.567   7.366  13.548  0.2349  0.2620  0.0374
 1492DOPC   D2B17504  21.554   7.784  13.357 -0.1417  0.2582 -0.1991
 1492DOPC   C3B17505  21.364   8.122  13.575 -0.4680 -0.0167 -0.1522
 1492DOPC   C4B17506  21.343   8.346  13.907  0.0429  0.1809  0.2230
 1493POSM   NC317507  13.954   4.515  12.372  0.2943  0.0816  0.1153
 1493POSM   PO417508  13.923   4.146  12.283 -0.2410  0.0337  0.1184
 1493POSM   AM117509  14.252   4.124  12.319 -0.2302 -0.1462  0.3030
 1493POSM   AM217510  14.480   4.291  12.415 -0.0791 -0.2261 -0.1376
 1493POSM   T1A17511  14.617   3.897  12.101 -0.0699 -0.2224  0.2006
 1493POSM   C2A17512  15.042   3.768  11.952  0.0553  0.0505 -0.0318
 1493POSM   C3A17513  15.511   3.722  12.086  0.0686  0.0896  0.0649
 1493POSM   C1B17514  14.742   4.274  12.601 -0.1764  0.0621  0.4918
 1493POSM   D2B17515  15.084   4.181  12.922  0.0205  0.2524  0.1551
 1493POSM   C3B17516  14.949   4.040  13.313 -0.0505  0.1129 -0.0717
 1493POSM   C4B17517  14.683   3.721  13.434 -0.1393 -0.3361 -0.2792
 1494DOPS   CNO17518  14.757  34.650  11.808 -0.1356 -0.0015 -0.4876
 1494DOPS   PO417519  14.480  34.540  11.994 -0.0756 -0.1091  0.1663
 1494DOPS   GL117520  14.683  34.141  12.117  0.1348 -0.2545 -0.3159
 1494DOPS   GL217521  14.927  34.356  12.196  0.3570  0.2823 -0.2267
 1494DOPS   C1A17522  14.722  33.879  12.534 -0.1291 -0.3172  0.0072
 1494DOPS   D2A17523  14.497  33.515  12.692  0.3301 -0.0095  0.0423
 1494DOPS   C3A17524  14.113  33.629  12.419 -0.1630 -0.0086  0.0655
 1494DOPS   C4A17525  14.116  33.909  11.982 -0.0834 -0.3633 -0.2689
 1494DOPS   C1B17526  15.055  33.859  12.182  0.1228  0.1750  0.1026
 1494DOPS   D2B17527  15.218  33.512  12.412 -0.0243 -0.0070  0.4211
 1494DOPS   C3B17528  15.689  33.424  12.446 -0.1385  0.1037  0.1438
 1494DOPS   C4B17529  15.798  33.021  12.661  0.1133 -0.0619  0.4369
 1495DOPE   NH317530  13.572   6.459  12.021 -0.1514  0.1797  0.2347
 1495DOPE   PO417531  13.427   6.264  12.208 -0.0469 -0.1913 -0.0970
 1495DOPE   GL117532  13.211   6.200  12.479  0.0813 -0.1566 -0.1656
 1495DOPE   GL217533  13.276   6.416  12.746  0.2559  0.1595  0.2445
 1495DOPE   C1A17534  12.813   6.163  12.714 -0.0277 -0.0800  0.1185
 1495DOPE   D2A17535  12.423   5.960  12.725 -0.5003 -0.2439  0.1541
 1495DOPE   C3A17536  12.430   5.497  12.918 -0.0210 -0.1546 -0.1834
 1495DOPE   C4A17537  12.478   5.076  13.026  0.0326  0.0421  0.1204
 1495DOPE   C1B17538  12.942   6.541  13.049  0.2418 -0.0364  0.0049
 1495DOPE   D2B17539  12.947   6.697  13.443  0.0338  0.0918 -0.0781
 1495DOPE   C3B17540  12.923   7.129  13.541  0.4139 -0.2723  0.0778
 1495DOPE   C4B17541  13.075   7.606  13.594  0.1410 -0.2437  0.1773
 1496POSM   NC317542  11.962   2.649  11.425 -0.1669 -0.0164  0.0599
 1496POSM   PO417543  12.225   2.918  11.483 -0.0305 -0.1753 -0.2875
 1496POSM   AM117544  12.182   2.816  11.802 -0.2941  0.0583 -0.0982
 1496POSM   AM217545  12.007   2.850  12.038  0.0110  0.0477 -0.3008
 1496POSM   T1A17546  12.398   2.556  12.160 -0.2194 -0.1808  0.2282
 1496POSM   C2A17547  12.170   2.686  12.594 -0.2932  0.0078  0.0207
 1496POSM   C3A17548  11.857   2.888  12.833  0.0101 -0.1153 -0.3453
 1496POSM   C1B17549  11.783   2.680  12.261 -0.4601 -0.0801 -0.0669
 1496POSM   D2B17550  11.675   2.261  12.536 -0.1189 -0.1629  0.0074
 1496POSM   C3B17551  11.946   2.287  12.906 -0.0346 -0.0054  0.1351
 1496POSM   C4B17552  12.187   2.096  13.262 -0.1442  0.0517  0.0120
 1497DOPC   NC317553  17.320   5.145  12.617 -0.0050 -0.0175  0.1269
 1497DOPC   PO417554  17.700   5.005  12.702  0.2633  0.1564  0.2329
 1497DOPC   GL117555  17.683   4.927  13.099 -0.2435 -0.0826  0.2101
 1497DOPC   GL217556  17.749   5.121  13.296 -0.1962 -0.3088 -0.3694
 1497DOPC   C1A17557  17.391   4.819  13.426 -0.1474  0.3282 -0.1537
 1497DOPC   D2A17558  17.114   4.775  13.754 -0.1680 -0.3420  0.0049
 1497DOPC   C3A17559  17.295   4.949  14.170 -0.0227 -0.2284 -0.0128
 1497DOPC   C4A17560  17.680   5.141  14.323  0.0120  0.2008 -0.0924
 1497DOPC   C1B17561  17.536   5.532  13.428  0.1846  0.1190 -0.0745
 1497DOPC   D2B17562  17.181   5.788  13.368 -0.0158  0.3253  0.0500
 1497DOPC   C3B17563  16.807   5.738  13.565 -0.1451  0.0426 -0.1040
 1497DOPC   C4B17564  16.403   5.774  13.792  0.1556 -0.3422  0.3579
 1498DOPS   CNO17565  15.149   0.414  11.971  0.1152  0.1657 -0.2730
 1498DOPS   PO417566  14.870   0.640  12.164  0.0995 -0.0838 -0.1264
 1498DOPS   GL117567  14.762   0.583  12.612  0.1883 -0.0272  0.2819
 1498DOPS   GL217568  14.575   0.408  12.642  0.0171  0.0156 -0.0192
 1498DOPS   C1A17569  14.732   0.659  13.046 -0.0365 -0.3544 -0.2679
 1498DOPS   D2A17570  14.480   0.431  13.388  0.2331 -0.0839  0.0099
 1498DOPS   C3A17571  14.569  -0.014  13.434 -0.0638  0.0555 -0.4572
 1498DOPS   C4A17572  14.323  -0.317  13.717  0.0646  0.2279  0.2572
 1498DOPS   C1B17573  14.836   0.170  12.979  0.2281  0.1148  0.2263
 1498DOPS   D2B17574  15.136  -0.120  13.233  0.0270 -0.2353  0.2603
 1498DOPS   C3B17575  14.857  -0.470  13.373  0.1933 -0.0663 -0.1869
 1498DOPS   C4B17576  14.569  -0.715  13.593 -0.2706 -0.2572  0.5129
 1499DOPC   NC317577  12.999   4.489  11.964  0.0827 -0.0090 -0.0318
 1499DOPC   PO417578  13.351   4.613  11.758 -0.2906  0.1844  0.2937
 1499DOPC   GL117579  13.404   4.697  12.117  0.1019 -0.2317 -0.4447
 1499DOPC   GL217580  13.465   4.456  12.300  0.4052  0.2935  0.2977
 1499DOPC   C1A17581  13.308   4.911  12.508  0.2455  0.2736 -0.2848
 1499DOPC   D2A17582  13.158   5.086  12.905  0.0716 -0.0830  0.2183
 1499DOPC   C3A17583  13.295   4.741  13.164  0.1742  0.0525  0.0020
 1499DOPC   C4A17584  13.127   4.323  13.153 -0.1285 -0.0742 -0.1514
 1499DOPC   C1B17585  13.548   4.381  12.799 -0.1566  0.4757  0.4974
 1499DOPC   D2B17586  13.749   4.139  13.204  0.0132  0.1124  0.1556
 1499DOPC   C3B17587  14.161   4.330  13.472  0.1939  0.1343 -0.1688
 1499DOPC   C4B17588  14.559   4.457  13.649  0.0596 -0.0963  0.0559
 1500DOPC   NC317589  17.265   3.909  13.114 -0.3611  0.1310  0.1307
 1500DOPC   PO417590  17.254   4.036  12.750 -0.1936 -0.2673 -0.4916
 1500DOPC   GL117591  16.891   3.738  12.648  0.1266  0.0516  0.5391
 1500DOPC   GL217592  16.745   3.701  12.458 -0.1777  0.0288 -0.2844
 1500DOPC   C1A17593  16.513   3.756  12.934 -0.3622  0.1470 -0.1419
 1500DOPC   D2A17594  16.163   3.629  13.225 -0.0288  0.0257  0.0501
 1500DOPC   C3A17595  15.720   3.732  13.331  0.0779 -0.1188  0.1677
 1500DOPC   C4A17596  15.424   4.075  13.371  0.0057  0.1031  0.0195
 1500DOPC   C1B17597  16.289   3.732  12.500  0.0107  0.2611  0.0278
 1500DOPC   D2B17598  15.874   3.466  12.549 -0.0054  0.2602 -0.0969
 1500DOPC   C3B17599  15.475   3.649  12.584  0.1378  0.0919 -0.1452
 1500DOPC   C4B17600  15.085   3.788  12.438 -0.1521  0.0554  0.1985
 1501DOPE   NH317601  17.859   3.079  12.803 -0.0598 -0.0115  0.0889
 1501DOPE   PO417602  17.839   2.914  12.588  0.1578 -0.1780  0.1957
 1501DOPE   GL117603  17.994   2.647  12.916  0.1994 -0.0775 -0.1094
 1501DOPE   GL217604  17.793   2.542  13.022  0.0277 -0.1129 -0.0013
 1501DOPE   C1A17605  18.138   2.779  13.309 -0.1749  0.0402 -0.1882
 1501DOPE   D2A17606  18.475   2.877  13.651  0.1405 -0.0135  0.0537
 1501DOPE   C3A17607  18.479   2.976  14.102  0.1624 -0.3362 -0.0493
 1501DOPE   C4A17608  18.129   2.875  14.418  0.5346 -0.0188  0.3994
 1501DOPE   C1B17609  17.646   2.219  13.312 -0.1287 -0.2252  0.1917
 1501DOPE   D2B17610  17.634   1.797  13.407 -0.0542 -0.0315 -0.0146
 1501DOPE   C3B17611  17.266   1.587  13.617  0.3401  0.1342 -0.0265
 1501DOPE   C4B17612  17.067   1.193  13.612 -0.1390 -0.1788 -0.0467
 1502DOPC   NC317613  13.349   3.575  11.810  0.1770  0.1609 -0.0068
 1502DOPC   PO417614  13.298   3.450  12.198  0.0823 -0.1914  0.1039
 1502DOPC   GL117615  13.400   3.217  12.571  0.0516 -0.1099  0.0975
 1502DOPC   GL217616  13.161   3.064  12.614 -0.0220 -0.2491 -0.3480
 1502DOPC   C1A17617  13.650   2.944  12.909 -0.1828  0.0614  0.0363
 1502DOPC   D2A17618  13.934   2.639  13.063  0.3498 -0.0121 -0.2670
 1502DOPC   C3A17619  14.361   2.663  13.160  0.0997  0.2892 -0.0177
 1502DOPC   C4A17620  14.714   2.425  13.098 -0.0446 -0.2005  0.0048
 1502DOPC   C1B17621  13.009   2.631  12.852 -0.1586  0.1089  0.0597
 1502DOPC   D2B17622  12.647   2.416  13.030  0.6554 -0.2745 -0.2944
 1502DOPC   C3B17623  12.639   2.259  13.472  0.2878 -0.0750 -0.3406
 1502DOPC   C4B17624  12.596   1.973  13.864 -0.0592  0.0820 -0.1955
 1503DOPC   NC317625  18.372  10.921  12.596 -0.2404 -0.3671 -0.0777
 1503DOPC   PO417626  18.747  10.953  12.587  0.0824  0.2965  0.4013
 1503DOPC   GL117627  18.867  11.105  13.011  0.0077 -0.2687  0.2902
 1503DOPC   GL217628  19.143  11.135  13.055 -0.3015  0.1560  0.1504
 1503DOPC   C1A17629  18.922  10.967  13.488  0.0238  0.0193  0.0931
 1503DOPC   D2A17630  18.939  10.850  14.007  0.2519  0.1779 -0.0069
 1503DOPC   C3A17631  18.906  10.386  14.099 -0.0318 -0.0925 -0.1135
 1503DOPC   C4A17632  18.851   9.890  14.032  0.1941 -0.1089  0.0893
 1503DOPC   C1B17633  19.430  11.222  13.448 -0.1084 -0.1071  0.0490
 1503DOPC   D2B17634  19.660  11.387  13.826  0.2611 -0.0779  0.2065
 1503DOPC   C3B17635  19.696  11.161  14.250 -0.4054  0.2030  0.1329
 1503DOPC   C4B17636  19.844  11.072  14.652  0.1120  0.1447 -0.2368
 1504POSM   NC317637  17.153  10.305  12.045 -0.1732 -0.0713 -0.0248
 1504POSM   PO417638  17.065  10.624  12.245 -0.1183  0.0505 -0.1324
 1504POSM   AM117639  16.883  10.736  12.517 -0.3243  0.0674 -0.1880
 1504POSM   AM217640  17.037  10.831  12.744 -0.0019  0.1823  0.0242
 1504POSM   T1A17641  16.485  10.712  12.801  0.1177 -0.1038  0.1219
 1504POSM   C2A17642  16.166  10.885  13.115 -0.0456  0.0469  0.0387
 1504POSM   C3A17643  16.080  11.064  13.523 -0.0958  0.1370 -0.0368
 1504POSM   C1B17644  16.934  10.894  13.062  0.1907 -0.0079  0.0414
 1504POSM   D2B17645  16.576  11.125  13.375  0.1865  0.0932  0.0156
 1504POSM   C3B17646  16.357  11.360  13.003 -0.0696  0.1208 -0.0330
 1504POSM   C4B17647  15.915  11.530  13.061  0.1635  0.1436 -0.0734
 1505DOPE   NH317648  17.438   4.512  12.643  0.0049 -0.1355  0.2692
 1505DOPE   PO417649  17.220   4.693  12.827  0.0200 -0.1744 -0.2046
 1505DOPE   GL117650  17.001   4.609  13.130  0.4950 -0.1882 -0.0811
 1505DOPE   GL217651  16.799   4.473  12.923  0.2942  0.1433 -0.3438
 1505DOPE   C1A17652  16.788   4.912  13.316  0.4296 -0.0890  0.2067
 1505DOPE   D2A17653  16.511   4.913  13.679 -0.0791  0.0766  0.1618
 1505DOPE   C3A17654  16.355   4.547  13.875  0.0103  0.0499 -0.0034
 1505DOPE   C4A17655  16.084   4.184  13.692 -0.0065  0.0071 -0.1596
 1505DOPE   C1B17656  16.795   4.128  13.215 -0.1705  0.1253 -0.2996
 1505DOPE   D2B17657  16.510   3.851  13.462  0.1467  0.1899  0.1358
 1505DOPE   C3B17658  16.550   3.918  13.921 -0.0410  0.2219  0.0679
 1505DOPE   C4B17659  16.359   4.164  14.278  0.3659 -0.1530 -0.0232
 1506DOPS   CNO17660  17.523   4.538  12.193  0.0064  0.1993  0.1724
 1506DOPS   PO417661  17.330   4.238  12.241  0.3870 -0.0526 -0.1641
 1506DOPS   GL117662  17.022   4.396  12.449 -0.1665  0.1160 -0.0654
 1506DOPS   GL217663  16.805   4.198  12.494  0.0015 -0.0925 -0.1850
 1506DOPS   C1A17664  16.646   4.591  12.316 -0.1554  0.0998 -0.3837
 1506DOPS   D2A17665  16.174   4.575  12.385 -0.1823  0.0327  0.0026
 1506DOPS   C3A17666  15.896   4.433  12.753 -0.0985 -0.0549 -0.5198
 1506DOPS   C4A17667  15.520   4.478  12.974 -0.0218 -0.0070  0.0057
 1506DOPS   C1B17668  16.462   4.199  12.728 -0.0513  0.4106  0.0231
 1506DOPS   D2B17669  16.058   4.047  13.000 -0.0893  0.2442 -0.0810
 1506DOPS   C3B17670  15.598   3.978  12.898 -0.2137 -0.2808 -0.0372
 1506DOPS   C4B17671  15.340   3.680  13.079  0.0570  0.0836 -0.0721
 1507DOPC   NC317672  16.480  10.774  12.238 -0.0046 -0.1185 -0.2539
 1507DOPC   PO417673  16.397  11.025  11.919  0.1066  0.0197  0.1795
 1507DOPC   GL117674  16.312  11.359  12.120 -0.0556  0.1602 -0.1592
 1507DOPC   GL217675  15.998  11.387  12.008 -0.1117  0.0749  0.6267
 1507DOPC   C1A17676  16.019  11.543  12.480  0.0504  0.0730 -0.0856
 1507DOPC   D2A17677  16.108  11.898  12.738  0.4145 -0.1007  0.0313
 1507DOPC   C3A17678  15.789  12.245  12.724  0.4048  0.1223  0.1796
 1507DOPC   C4A17679  15.466  12.492  12.932  0.1452  0.1379 -0.1117
 1507DOPC   C1B17680  15.778  11.070  12.178 -0.2578 -0.1478  0.0177
 1507DOPC   D2B17681  15.566  10.805  12.577 -0.1378  0.2064  0.3462
 1507DOPC   C3B17682  15.391  10.938  12.958 -0.0549  0.0048 -0.1152
 1507DOPC   C4B17683  15.626  11.174  13.289 -0.0115  0.2122 -0.5384
 1508DOPE   NH317684  12.873   3.511  12.461  0.1634 -0.0796  0.2564
 1508DOPE   PO417685  12.534   3.573  12.304 -0.0791  0.1738 -0.0748
 1508DOPE   GL117686  12.406   3.644  12.616 -0.0073 -0.0188  0.0835
 1508DOPE   GL217687  12.529   3.447  12.837 -0.0876  0.0704 -0.2290
 1508DOPE   C1A17688  12.030   3.938  12.666 -0.1896 -0.0091 -0.2518
 1508DOPE   D2A17689  11.837   4.367  12.697  0.2792  0.3376  0.0528
 1508DOPE   C3A17690  11.595   4.732  12.749 -0.0669 -0.2458  0.3245
 1508DOPE   C4A17691  11.523   5.202  12.758  0.4937 -0.0306 -0.3625
 1508DOPE   C1B17692  12.299   3.748  13.118 -0.0625  0.0213  0.0969
 1508DOPE   D2B17693  11.883   3.741  13.188  0.1380 -0.1646 -0.1595
 1508DOPE   C3B17694  11.548   3.926  12.917  0.3329  0.2738 -0.0626
 1508DOPE   C4B17695  11.101   3.940  12.676 -0.0206  0.1182 -0.1061
 1509DOPE   NH317696  18.024   6.017  12.248  0.3080 -0.2837 -0.1896
 1509DOPE   PO417697  17.830   6.087  12.504  0.3003 -0.0332  0.1635
 1509DOPE   GL117698  17.575   5.829  12.683 -0.0375  0.1070 -0.1011
 1509DOPE   GL217699  17.778   5.660  12.890 -0.0590 -0.0539 -0.2065
 1509DOPE   C1A17700  17.292   5.587  12.893  0.2443  0.2976 -0.0134
 1509DOPE   D2A17701  17.259   5.173  13.134 -0.0203  0.3629  0.0478
 1509DOPE   C3A17702  17.089   5.308  13.543 -0.2037  0.0087  0.0869
 1509DOPE   C4A17703  16.842   5.238  13.903  0.1082  0.2982 -0.1769
 1509DOPE   C1B17704  17.593   5.997  13.170  0.2122 -0.1767  0.4588
 1509DOPE   D2B17705  17.446   6.277  13.471  0.1848  0.1782  0.0759
 1509DOPE   C3B17706  17.657   6.509  13.798  0.3477 -0.0951  0.1728
 1509DOPE   C4B17707  17.521   6.593  14.238 -0.1626  0.0531 -0.1924
 1510POSM   NC317708  21.290   7.093  12.385  0.1727  0.3012 -0.0768
 1510POSM   PO417709  21.118   7.292  12.650  0.2224 -0.0331 -0.1121
 1510POSM   AM117710  20.986   7.515  12.894  0.0558  0.0189  0.0229
 1510POSM   AM217711  20.759   7.502  13.045  0.4602  0.0661 -0.0898
 1510POSM   T1A17712  21.025   7.687  13.357 -0.1616 -0.1135 -0.0887
 1510POSM   C2A17713  21.325   7.698  13.826  0.1938 -0.0838 -0.1631
 1510POSM   C3A17714  21.727   7.865  13.950  0.2669  0.2240 -0.0476
 1510POSM   C1B17715  20.570   7.751  13.171  0.0559 -0.0612 -0.0190
 1510POSM   D2B17716  20.297   8.051  13.397 -0.0605  0.1845 -0.3729
 1510POSM   C3B17717  20.418   8.134  13.834  0.3661  0.0219 -0.2118
 1510POSM   C4B17718  20.244   8.078  14.299  0.0225 -0.5204 -0.0820
 1511POSM   NC317719  20.967  11.017  12.002 -0.1945 -0.1612 -0.0700
 1511POSM   PO417720  20.646  11.206  12.146 -0.0825 -0.2584  0.4579
 1511POSM   AM117721  20.787  11.152  12.431 -0.3042 -0.1326  0.2873
 1511POSM   AM217722  21.025  11.099  12.570 -0.1061 -0.0044  0.0537
 1511POSM   T1A17723  20.613  10.853  12.823 -0.0239 -0.2270 -0.1883
 1511POSM   C2A17724  20.288  10.523  12.913 -0.1783  0.2133  0.0159
 1511POSM   C3A17725  20.264  10.058  12.882  0.1168  0.0518 -0.1924
 1511POSM   C1B17726  21.079  10.924  12.898  0.0451 -0.1750  0.2802
 1511POSM   D2B17727  21.102  10.535  13.158 -0.0170  0.2341  0.1066
 1511POSM   C3B17728  21.388  10.481  13.517 -0.0374 -0.1216 -0.1126
 1511POSM   C4B17729  21.683  10.300  13.918 -0.0292  0.1812 -0.1644
 1512DOPC   NC317730  12.058   3.876  11.390 -0.0226  0.1085 -0.0511
 1512DOPC   PO417731  12.109   3.772  11.775  0.2277  0.1358  0.1867
 1512DOPC   GL117732  12.431   4.005  12.050  0.1370  0.3017  0.0810
 1512DOPC   GL217733  12.484   4.152  11.814 -0.0631  0.0403  0.1818
 1512DOPC   C1A17734  12.443   4.253  12.459  0.1850  0.2735  0.3448
 1512DOPC   D2A17735  12.372   4.525  12.819  0.3194 -0.1017 -0.0530
 1512DOPC   C3A17736  12.048   4.755  13.009  0.5522 -0.1737 -0.1467
 1512DOPC   C4A17737  11.783   5.028  13.183  0.0772  0.1248  0.0892
 1512DOPC   C1B17738  12.449   4.575  11.944 -0.0912 -0.4265 -0.1315
 1512DOPC   D2B17739  12.360   5.019  11.931  0.0036  0.2591 -0.2078
 1512DOPC   C3B17740  12.425   5.302  12.304  0.2581  0.0739  0.1189
 1512DOPC   C4B17741  12.849   5.386  12.402  0.0270  0.2498  0.0239
 1513DOPC   NC317742  15.154  10.668  12.151 -0.3975  0.1383 -0.1043
 1513DOPC   PO417743  15.022  10.369  12.253  0.2371  0.0783  0.0609
 1513DOPC   GL117744  15.137  10.181  12.518 -0.1113  0.4481 -0.2229
 1513DOPC   GL217745  15.369  10.276  12.679 -0.0842 -0.3340  0.0563
 1513DOPC   C1A17746  15.062  10.113  12.995 -0.0349 -0.0420  0.0630
 1513DOPC   D2A17747  15.165   9.719  13.250  0.3001  0.1327 -0.0977
 1513DOPC   C3A17748  15.602   9.626  13.282 -0.0125  0.1463  0.0381
 1513DOPC   C4A17749  16.014   9.485  13.110  0.2150 -0.1120 -0.2537
 1513DOPC   C1B17750  15.400  10.414  13.089  0.1757 -0.0041  0.1484
 1513DOPC   D2B17751  14.975  10.486  13.370 -0.2167 -0.0770  0.3959
 1513DOPC   C3B17752  14.737  10.090  13.564 -0.2452 -0.0848  0.0001
 1513DOPC   C4B17753  14.391   9.767  13.589  0.1648  0.0630  0.3145
 1514DOPC   NC317754  18.972   6.826  12.465  0.1981 -0.1793  0.2134
 1514DOPC   PO417755  18.769   6.819  12.813  0.0436  0.0408  0.4552
 1514DOPC   GL117756  18.812   7.076  12.956 -0.0660  0.4535 -0.2422
 1514DOPC   GL217757  18.950   7.298  12.830  0.1451 -0.4099  0.0435
 1514DOPC   C1A17758  18.398   7.114  13.235  0.3922 -0.2337  0.1278
 1514DOPC   D2A17759  18.146   6.815  13.454 -0.1961 -0.2126 -0.0475
 1514DOPC   C3A17760  18.157   6.507  13.790  0.1200  0.0647 -0.2467
 1514DOPC   C4A17761  17.969   6.127  14.093 -0.2138 -0.2354  0.3451
 1514DOPC   C1B17762  18.852   7.667  13.108 -0.0312  0.0666  0.4054
 1514DOPC   D2B17763  18.740   8.079  13.320 -0.0730  0.0328  0.0221
 1514DOPC   C3B17764  18.313   8.145  13.427  0.1772 -0.2385 -0.2880
 1514DOPC   C4B17765  17.990   7.977  13.730 -0.0260  0.1835  0.1604
 1515POSM   NC317766  13.596   3.105  12.021  0.0261 -0.0149 -0.0764
 1515POSM   PO417767  13.894   3.364  11.894  0.0634 -0.0319  0.1684
 1515POSM   AM117768  14.181   3.286  12.016 -0.0325  0.1607 -0.5503
 1515POSM   AM217769  14.279   3.145  12.209  0.0579 -0.1743  0.1576
 1515POSM   T1A17770  14.677   3.439  12.127  0.0615 -0.0143  0.2528
 1515POSM   C2A17771  15.009   3.162  12.059  0.1074  0.1483 -0.0541
 1515POSM   C3A17772  15.432   3.166  12.300 -0.0218  0.5607  0.0106
 1515POSM   C1B17773  14.508   2.886  12.271 -0.0563 -0.1364  0.0185
 1515POSM   D2B17774  14.840   2.577  12.251  0.1236 -0.0045  0.1784
 1515POSM   C3B17775  14.712   2.136  12.287 -0.0571  0.1212  0.4682
 1515POSM   C4B17776  14.575   1.753  12.054 -0.0143 -0.1382  0.1458
 1516DOPC   NC317777  12.311  10.497  12.791  0.3391  0.1895  0.0305
 1516DOPC   PO417778  12.506  10.206  12.621 -0.1946 -0.0991  0.0839
 1516DOPC   GL117779  12.875  10.201  12.760  0.2973  0.0092  0.2197
 1516DOPC   GL217780  13.031  10.417  12.685  0.2453  0.1195  0.0077
 1516DOPC   C1A17781  13.198   9.848  12.774  0.2319  0.0321  0.2403
 1516DOPC   D2A17782  13.359   9.448  12.911 -0.0363  0.1111 -0.0876
 1516DOPC   C3A17783  13.488   9.344  13.357 -0.0801  0.1288  0.3357
 1516DOPC   C4A17784  13.442   9.347  13.837 -0.0551 -0.0744 -0.0710
 1516DOPC   C1B17785  13.096  10.201  13.150 -0.3156 -0.1676  0.2424
 1516DOPC   D2B17786  13.278   9.825  13.322  0.0266 -0.1591 -0.0506
 1516DOPC   C3B17787  13.413   9.898  13.833  0.0293  0.0861  0.1280
 1516DOPC   C4B17788  13.613   9.951  14.264  0.2099 -0.2126 -0.1843
 1517POSM   NC317789  21.796   5.384  12.618  0.0607 -0.0039  0.0366
 1517POSM   PO417790  22.089   5.605  12.812  0.0165 -0.0833 -0.0128
 1517POSM   AM117791  22.056   5.294  12.959  0.4259  0.0195 -0.2124
 1517POSM   AM217792  21.877   5.072  13.010  0.0537 -0.6945 -0.1137
 1517POSM   T1A17793  22.367   5.053  13.217 -0.0080 -0.2566  0.1612
 1517POSM   C2A17794  22.751   4.835  13.232  0.1770 -0.0456 -0.0167
 1517POSM   C3A17795  23.072   4.652  12.908  0.2782  0.1231 -0.2347
 1517POSM   C1B17796  21.684   4.839  13.135  0.1968  0.4180 -0.0960
 1517POSM   D2B17797  21.208   4.657  13.245 -0.0838  0.0801 -0.0073
 1517POSM   C3B17798  20.945   4.852  13.582  0.0807 -0.1248 -0.0253
 1517POSM   C4B17799  21.149   5.117  13.861  0.0592 -0.1605  0.0003
 1518DOPS   CNO17800  18.728   1.635  11.989 -0.4315 -0.0325  0.2705
 1518DOPS   PO417801  18.957   1.443  12.282  0.1016 -0.0602  0.1126
 1518DOPS   GL117802  19.121   1.672  12.636 -0.3924 -0.1492 -0.2529
 1518DOPS   GL217803  19.053   1.706  12.854  0.2014 -0.2335 -0.1297
 1518DOPS   C1A17804  19.510   1.524  12.742 -0.1122  0.2472  0.0067
 1518DOPS   D2A17805  19.984   1.597  12.812  0.1128 -0.2699  0.2884
 1518DOPS   C3A17806  20.120   1.563  13.278 -0.3804 -0.1872 -0.0488
 1518DOPS   C4A17807  20.476   1.616  13.541 -0.0163 -0.1984  0.0487
 1518DOPS   C1B17808  19.427   1.980  12.931 -0.2544 -0.1666 -0.0108
 1518DOPS   D2B17809  19.843   2.026  13.190  0.1948  0.0136  0.1565
 1518DOPS   C3B17810  20.192   2.173  13.468 -0.1036  0.0827  0.1920
 1518DOPS   C4B17811  20.564   2.221  13.744 -0.1631 -0.1149 -0.0499
 1519DOPC   NC317812  16.824   5.048  12.840  0.0226  0.2494 -0.2185
 1519DOPC   PO417813  16.835   5.213  12.510 -0.3384 -0.0333  0.0086
 1519DOPC   GL117814  16.739   5.522  12.787  0.3084  0.0200  0.1267
 1519DOPC   GL217815  16.761   5.828  12.687  0.1289  0.2862  0.1178
 1519DOPC   C1A17816  16.609   5.370  13.174  0.2252  0.0683  0.2675
 1519DOPC   D2A17817  16.204   5.114  13.234  0.0439  0.1761 -0.1580
 1519DOPC   C3A17818  16.069   4.787  13.447  0.1551  0.2764 -0.1884
 1519DOPC   C4A17819  15.900   4.429  13.312 -0.0232 -0.0706  0.4201
 1519DOPC   C1B17820  16.605   5.891  13.106 -0.2756  0.1489 -0.0475
 1519DOPC   D2B17821  16.452   6.195  13.399  0.1882 -0.0233  0.2377
 1519DOPC   C3B17822  16.611   6.220  13.858 -0.0242  0.1450  0.2313
 1519DOPC   C4B17823  16.808   6.005  14.196  0.0947  0.0698 -0.1176
 1520DOPS   CNO17824  11.710  10.677  12.135 -0.2407  0.3366 -0.3606
 1520DOPS   PO417825  11.664  10.502  12.440  0.1767 -0.1709 -0.0837
 1520DOPS   GL117826  11.860  10.426  12.738  0.0325 -0.1214 -0.0212
 1520DOPS   GL217827  11.851  10.569  12.981  0.1637  0.2016 -0.0792
 1520DOPS   C1A17828  11.803  10.053  13.040 -0.0406 -0.2604  0.0741
 1520DOPS   D2A17829  11.855   9.998  13.497 -0.3394  0.0094 -0.2053
 1520DOPS   C3A17830  11.827  10.174  13.885  0.3854  0.3031  0.1088
 1520DOPS   C4A17831  11.876  10.171  14.335 -0.1040  0.2806 -0.1190
 1520DOPS   C1B17832  12.132  10.328  13.325 -0.0041 -0.4204 -0.1436
 1520DOPS   D2B17833  12.270   9.859  13.238  0.4001 -0.1627  0.0649
 1520DOPS   C3B17834  12.529   9.591  13.501  0.2812  0.1893  0.4001
 1520DOPS   C4B17835  12.493   9.522  14.018  0.1331  0.3224 -0.1587
 1521DOPE   NH317836  15.391   9.574  12.275  0.1603 -0.2704  0.1921
 1521DOPE   PO417837  15.419   9.421  12.010  0.0297 -0.1400  0.2069
 1521DOPE   GL117838  15.754   9.257  12.131  0.3678  0.1894 -0.2529
 1521DOPE   GL217839  15.764   9.005  12.316 -0.3521  0.3495  0.1398
 1521DOPE   C1A17840  16.077   9.608  12.192  0.2923 -0.2976  0.1988
 1521DOPE   D2A17841  16.197   9.844  12.580  0.1688  0.1013 -0.2427
 1521DOPE   C3A17842  16.471   9.883  12.873  0.3778  0.0833  0.1802
 1521DOPE   C4A17843  16.704  10.290  12.897 -0.2011 -0.0478  0.3772
 1521DOPE   C1B17844  16.129   8.695  12.298  0.3228 -0.1900  0.2248
 1521DOPE   D2B17845  16.481   8.392  12.149  0.1393 -0.0671  0.0833
 1521DOPE   C3B17846  16.836   8.290  12.448  0.1971  0.0010 -0.0890
 1521DOPE   C4B17847  17.112   8.348  12.756  0.1350  0.1236  0.0719
 1522DOPE   NH317848  22.369   2.810  12.475  0.0117  0.0034  0.1802
 1522DOPE   PO417849  22.070   2.625  12.458  0.2350 -0.0331  0.0285
 1522DOPE   GL117850  21.777   2.316  12.492  0.0378 -0.5132  0.3200
 1522DOPE   GL217851  21.782   2.295  12.789  0.3422 -0.3428 -0.1319
 1522DOPE   C1A17852  21.301   2.304  12.632 -0.3732  0.0423 -0.1802
 1522DOPE   D2A17853  21.230   2.384  13.083 -0.1829 -0.0634 -0.0675
 1522DOPE   C3A17854  21.640   2.439  13.314 -0.0127  0.0166 -0.0315
 1522DOPE   C4A17855  22.041   2.488  13.505 -0.1323  0.0783 -0.1934
 1522DOPE   C1B17856  21.554   2.742  12.865  0.0794 -0.2106  0.1860
 1522DOPE   D2B17857  21.298   2.845  13.226  0.0086 -0.2386 -0.2429
 1522DOPE   C3B17858  21.431   2.797  13.686  0.0006 -0.0896  0.4076
 1522DOPE   C4B17859  21.463   2.809  14.158 -0.0198  0.1102  0.2352
 1523DOPE   NH317860  17.899   4.529  12.585  0.1586 -0.4308 -0.1661
 1523DOPE   PO417861  18.164   4.316  12.450 -0.2132  0.0533 -0.3093
 1523DOPE   GL117862  18.213   4.128  12.832  0.4265  0.2119 -0.1638
 1523DOPE   GL217863  18.489   4.144  12.850  0.1757  0.0458  0.2420
 1523DOPE   C1A17864  18.297   4.081  13.282  0.1299  0.1096  0.1397
 1523DOPE   D2A17865  18.605   4.156  13.627 -0.2807  0.0594 -0.0974
 1523DOPE   C3A17866  18.397   4.216  14.032  0.1398  0.0619 -0.1365
 1523DOPE   C4A17867  18.252   3.885  14.245  0.1645  0.3848  0.2509
 1523DOPE   C1B17868  18.664   3.721  12.713  0.1241 -0.0181 -0.3373
 1523DOPE   D2B17869  18.784   3.244  12.849 -0.0423  0.2216  0.5350
 1523DOPE   C3B17870  19.252   3.250  12.876  0.1373  0.1058 -0.5181
 1523DOPE   C4B17871  19.561   3.518  13.068  0.1434  0.0195 -0.1574
 1524DOPC   NC317872  17.293   1.980  12.262  0.2381  0.2875 -0.2324
 1524DOPC   PO417873  16.930   1.934  12.060 -0.1636 -0.1509 -0.2006
 1524DOPC   GL117874  16.895   1.772  12.351  0.0643  0.3275 -0.0174
 1524DOPC   GL217875  16.864   1.463  12.366 -0.1969 -0.1054 -0.0565
 1524DOPC   C1A17876  17.240   1.675  12.680  0.0486  0.2200  0.2509
 1524DOPC   D2A17877  17.291   1.506  13.125  0.1794 -0.1689  0.1486
 1524DOPC   C3A17878  17.408   1.096  13.248 -0.2229 -0.4101  0.5279
 1524DOPC   C4A17879  17.788   0.881  13.328 -0.0688 -0.2332  0.2990
 1524DOPC   C1B17880  16.798   1.412  12.804  0.0795 -0.0097  0.1519
 1524DOPC   D2B17881  16.817   1.486  13.317 -0.2408  0.1385 -0.1229
 1524DOPC   C3B17882  16.367   1.513  13.495 -0.0057  0.1186  0.1158
 1524DOPC   C4B17883  16.230   1.501  13.895 -0.1027  0.2655 -0.3530
 1525DOPS   CNO17884  22.235   6.833  12.451 -0.0751  0.1245 -0.0196
 1525DOPS   PO417885  22.312   6.920  12.811 -0.1132 -0.0488 -0.0590
 1525DOPS   GL117886  22.109   6.995  13.136  0.1937  0.1696  0.2303
 1525DOPS   GL217887  22.312   7.215  13.208  0.0884 -0.0188 -0.1712
 1525DOPS   C1A17888  22.028   7.058  13.536 -0.0416 -0.1467  0.1374
 1525DOPS   D2A17889  22.199   7.046  13.917  0.0694  0.1282 -0.2203
 1525DOPS   C3A17890  21.954   6.710  14.198  0.3724  0.2004  0.0002
 1525DOPS   C4A17891  22.013   6.574  14.655  0.2209 -0.2343 -0.0454
 1525DOPS   C1B17892  22.217   7.516  13.571 -0.1084 -0.2166 -0.1026
 1525DOPS   D2B17893  22.260   7.784  13.949  0.1128  0.0965  0.0003
 1525DOPS   C3B17894  22.412   7.431  14.213  0.1153 -0.1467  0.1187
 1525DOPS   C4B17895  22.228   7.104  14.432  0.2642 -0.0987  0.3156
 1526DOPS   CNO17896  19.035  10.551  12.185 -0.3499  0.2099  0.0567
 1526DOPS   PO417897  19.010  10.390  12.506 -0.2206 -0.0624 -0.0145
 1526DOPS   GL117898  18.996  10.187  12.891 -0.0684  0.0148  0.1516
 1526DOPS   GL217899  18.737  10.108  12.851  0.2810 -0.1760 -0.3477
 1526DOPS   C1A17900  18.954   9.973  13.316  0.0548  0.1158  0.1282
 1526DOPS   D2A17901  19.149  10.149  13.687  0.0240 -0.1697  0.1747
 1526DOPS   C3A17902  19.354  10.018  14.026  0.1544  0.0396 -0.1184
 1526DOPS   C4A17903  19.770   9.793  13.827  0.2971 -0.0531 -0.1267
 1526DOPS   C1B17904  18.564   9.767  13.074  0.0389 -0.3103  0.0303
 1526DOPS   D2B17905  18.583   9.357  13.316  0.2713  0.4805  0.4577
 1526DOPS   C3B17906  18.279   9.450  13.670  0.0065  0.0986  0.0868
 1526DOPS   C4B17907  17.816   9.342  13.687 -0.2376  0.1964  0.0788
 1527DOPC   NC317908  18.669   9.462  12.726  0.2563 -0.1622  0.0510
 1527DOPC   PO417909  18.429   9.413  12.393  0.1057 -0.4061  0.3401
 1527DOPC   GL117910  18.297   9.102  12.662 -0.2134  0.1896  0.0232
 1527DOPC   GL217911  18.536   8.886  12.638 -0.0105  0.1553  0.1135
 1527DOPC   C1A17912  18.202   8.798  12.992  0.0717  0.2266  0.1644
 1527DOPC   D2A17913  18.418   8.566  13.310 -0.4551 -0.0640  0.0177
 1527DOPC   C3A17914  18.538   8.830  13.656  0.0216 -0.0065  0.0373
 1527DOPC   C4A17915  18.176   8.931  13.953  0.3031 -0.1248 -0.0502
 1527DOPC   C1B17916  18.733   8.863  13.045  0.3285 -0.1476 -0.0985
 1527DOPC   D2B17917  18.947   8.529  13.193 -0.1617  0.0705  0.1242
 1527DOPC   C3B17918  18.993   8.437  13.624  0.0674 -0.1519 -0.0710
 1527DOPC   C4B17919  19.406   8.577  13.836 -0.2585  0.1642  0.1693
 1528DOPS   CNO17920  14.478   5.495  11.720 -0.0108 -0.0328 -0.2799
 1528DOPS   PO417921  14.225   5.344  11.976 -0.3226  0.2387  0.2811
 1528DOPS   GL117922  14.319   5.010  12.245 -0.1458 -0.3877  0.0095
 1528DOPS   GL217923  14.385   4.814  12.054  0.0066 -0.2339  0.4171
 1528DOPS   C1A17924  14.369   4.754  12.660  0.2319  0.0362  0.2378
 1528DOPS   D2A17925  14.067   4.445  12.871  0.1797  0.1288 -0.2167
 1528DOPS   C3A17926  13.788   4.625  13.211 -0.0440 -0.4683 -0.0639
 1528DOPS   C4A17927  13.575   4.410  13.556  0.1585 -0.2467  0.2043
 1528DOPS   C1B17928  14.767   4.728  12.320  0.2081 -0.1256  0.1791
 1528DOPS   D2B17929  15.157   4.504  12.539  0.0818  0.2152  0.1670
 1528DOPS   C3B17930  15.430   4.147  12.482 -0.1900 -0.0768 -0.4264
 1528DOPS   C4B17931  15.860   3.939  12.409 -0.2374  0.0669 -0.0281
 1529DOPS   CNO17932  15.654   6.151  12.085  0.0756  0.1758 -0.0546
 1529DOPS   PO417933  15.680   6.346  12.428  0.1585  0.0047  0.0141
 1529DOPS   GL117934  15.390   6.451  12.716  0.0306 -0.0538  0.0983
 1529DOPS   GL217935  15.384   6.720  12.675  0.1552 -0.0496  0.0583
 1529DOPS   C1A17936  15.530   6.341  13.162  0.1296  0.3673  0.0114
 1529DOPS   D2A17937  15.580   6.411  13.655  0.0083 -0.1265 -0.1677
 1529DOPS   C3A17938  15.798   6.414  14.068  0.0022 -0.2193  0.1588
 1529DOPS   C4A17939  16.062   6.775  14.250 -0.1488 -0.4012 -0.3483
 1529DOPS   C1B17940  15.208   6.781  13.077  0.0352 -0.1789 -0.2795
 1529DOPS   D2B17941  15.179   6.675  13.575  0.0303  0.1858  0.1099
 1529DOPS   C3B17942  14.925   6.828  13.933  0.0095  0.4888 -0.1104
 1529DOPS   C4B17943  14.885   6.713  14.376  0.0273 -0.1389  0.0037
 1530DOPC   NC317944  13.046   8.509  12.211  0.0799 -0.0895  0.1377
 1530DOPC   PO417945  12.861   8.203  12.352  0.1958  0.1729  0.0372
 1530DOPC   GL117946  13.090   8.249  12.622 -0.4923 -0.1353 -0.3472
 1530DOPC   GL217947  13.342   8.131  12.570  0.1431  0.0528  0.0732
 1530DOPC   C1A17948  13.250   8.335  13.033 -0.1651 -0.0883 -0.1777
 1530DOPC   D2A17949  13.656   8.385  13.274  0.0636  0.2304 -0.0782
 1530DOPC   C3A17950  14.048   8.457  13.408 -0.1516 -0.2445 -0.0119
 1530DOPC   C4A17951  14.236   8.716  13.803 -0.3378 -0.1739 -0.2319
 1530DOPC   C1B17952  13.545   8.562  12.436  0.0562 -0.1390  0.0066
 1530DOPC   D2B17953  13.775   8.949  12.219 -0.0849 -0.1332  0.1595
 1530DOPC   C3B17954  13.735   9.342  12.429 -0.0228 -0.2057  0.2356
 1530DOPC   C4B17955  13.741   9.763  12.756 -0.0061  0.1048 -0.3264
 1531DOPE   NH317956  21.012  34.595  12.113 -0.0525 -0.2321 -0.0061
 1531DOPE   PO417957  21.215  34.764  12.281 -0.2913  0.3531 -0.2084
 1531DOPE   GL117958  21.362  34.545  12.619  0.2764 -0.1072  0.2434
 1531DOPE   GL217959  21.689  34.530  12.506  0.1960 -0.0641 -0.0875
 1531DOPE   C1A17960  21.556  34.448  13.038 -0.2549  0.0601  0.3190
 1531DOPE   D2A17961  21.339  34.370  13.423  0.4699 -0.0182  0.3516
 1531DOPE   C3A17962  21.366  33.996  13.719 -0.0208 -0.1757  0.1120
 1531DOPE   C4A17963  21.073  33.769  13.954 -0.2399 -0.3188 -0.1314
 1531DOPE   C1B17964  21.615  34.890  12.800  0.0797 -0.0335  0.1434
 1531DOPE   D2B17965  21.495  35.168  13.170  0.3412  0.3421 -0.1335
 1531DOPE   C3B17966  21.607  35.201  13.619 -0.0649  0.0637  0.1527
 1531DOPE   C4B17967  21.550  35.037  14.021 -0.0487 -0.1283 -0.0340
 1532DOPE   NH317968  11.329  11.354  12.392 -0.0824 -0.2562  0.1325
 1532DOPE   PO417969  11.566  11.297  12.546 -0.2910  0.1341  0.0856
 1532DOPE   GL117970  11.799  11.491  12.834 -0.0775  0.1112 -0.1912
 1532DOPE   GL217971  11.841  11.203  13.031 -0.1688  0.1440  0.4009
 1532DOPE   C1A17972  11.703  11.588  13.288  0.2551  0.0057 -0.0565
 1532DOPE   D2A17973  11.617  11.985  13.467  0.4481  0.1837 -0.0806
 1532DOPE   C3A17974  11.805  12.035  13.873 -0.0017 -0.7049  0.1151
 1532DOPE   C4A17975  11.681  11.826  14.268 -0.0257  0.1409  0.2037
 1532DOPE   C1B17976  11.888  11.124  13.490  0.2560 -0.0354 -0.2825
 1532DOPE   D2B17977  12.070  11.035  13.948  0.0150 -0.1702  0.4332
 1532DOPE   C3B17978  11.969  10.945  14.376 -0.0353 -0.4479 -0.1284
 1532DOPE   C4B17979  11.730  10.635  14.693  0.2314 -0.0757 -0.1809
 1533POSM   NC317980  17.438   2.649  12.711  0.2071  0.1359 -0.1432
 1533POSM   PO417981  17.364   3.034  12.646 -0.1879  0.2127  0.3274
 1533POSM   AM117982  17.315   2.991  12.955 -0.0657  0.0194 -0.1763
 1533POSM   AM217983  17.484   2.923  13.138 -0.1523  0.2003  0.4013
 1533POSM   T1A17984  17.048   2.989  13.364 -0.0492  0.0460  0.2532
 1533POSM   C2A17985  16.654   2.877  13.663 -0.2972  0.3641  0.0249
 1533POSM   C3A17986  16.313   2.598  13.712  0.2521  0.1160  0.0294
 1533POSM   C1B17987  17.590   2.724  13.437 -0.2050  0.0744 -0.0349
 1533POSM   D2B17988  17.626   2.715  13.890 -0.1403 -0.1352  0.2438
 1533POSM   C3B17989  17.215   2.576  14.142 -0.3256 -0.2166 -0.0190
 1533POSM   C4B17990  16.866   2.833  14.138 -0.0324 -0.3454  0.1524
 1534DOPS   CNO17991  19.924  10.747  12.608 -0.1814 -0.2903  0.1106
 1534DOPS   PO417992  20.048  10.461  12.424  0.2604  0.0858 -0.2545
 1534DOPS   GL117993  20.373  10.177  12.455  0.3111  0.0563  0.1116
 1534DOPS   GL217994  20.590  10.289  12.529 -0.2552 -0.2045 -0.2980
 1534DOPS   C1A17995  20.616   9.775  12.592 -0.1057 -0.1848 -0.0542
 1534DOPS   D2A17996  20.744   9.566  12.997 -0.2787  0.1427  0.0223
 1534DOPS   C3A17997  20.424   9.835  13.259  0.0058 -0.2793 -0.1918
 1534DOPS   C4A17998  20.234  10.210  13.359  0.2887  0.0454 -0.0261
 1534DOPS   C1B17999  20.961  10.137  12.287  0.0219 -0.0036  0.0472
 1534DOPS   D2B18000  21.256   9.792  12.334  0.0983 -0.1511 -0.3299
 1534DOPS   C3B18001  21.340   9.725  12.762  0.2785  0.0126  0.0639
 1534DOPS   C4B18002  21.192   9.659  13.217 -0.1951  0.0353 -0.2887
 1535DOPC   NC318003  18.307   1.608  12.264 -0.0510 -0.1803 -0.0639
 1535DOPC   PO418004  18.456   1.253  12.212 -0.3564 -0.1693  0.1496
 1535DOPC   GL118005  18.202   1.286  12.587  0.1110 -0.3682  0.2836
 1535DOPC   GL218006  18.236   1.114  12.806 -0.0586  0.2278  0.0118
 1535DOPC   C1A18007  18.214   1.603  12.934  0.1728  0.2821  0.1195
 1535DOPC   D2A18008  18.115   1.689  13.391  0.0240 -0.3018  0.1670
 1535DOPC   C3A18009  18.425   1.893  13.617 -0.1913 -0.2192 -0.3275
 1535DOPC   C4A18010  18.802   2.004  13.770 -0.1657  0.0396 -0.1463
 1535DOPC   C1B18011  18.275   1.210  13.249  0.2409  0.2450  0.0235
 1535DOPC   D2B18012  18.263   1.263  13.686  0.2165 -0.2026 -0.1738
 1535DOPC   C3B18013  18.016   1.656  13.879 -0.1688  0.1027  0.0005
 1535DOPC   C4B18014  17.696   1.850  14.098  0.0357  0.0657 -0.1029
 1536DOPE   NH318015  12.526   3.028  12.013 -0.3173 -0.0624  0.3017
 1536DOPE   PO418016  12.276   3.240  11.968  0.0016 -0.3708 -0.1856
 1536DOPE   GL118017  12.057   3.458  12.094 -0.4740  0.2746 -0.0051
 1536DOPE   GL218018  12.042   3.583  12.371  0.1672 -0.0584  0.0354
 1536DOPE   C1A18019  11.789   3.189  12.433 -0.3039 -0.3123  0.1602
 1536DOPE   D2A18020  11.361   3.077  12.546  0.1332  0.0204 -0.0344
 1536DOPE   C3A18021  11.273   2.609  12.666  0.2125  0.3587 -0.1088
 1536DOPE   C4A18022  11.147   2.301  13.002 -0.0210  0.3937 -0.1198
 1536DOPE   C1B18023  11.925   3.482  12.793  0.1549 -0.1348 -0.0141
 1536DOPE   D2B18024  11.515   3.317  12.972  0.0450 -0.0813 -0.0842
 1536DOPE   C3B18025  11.105   3.494  13.000  0.1889 -0.2323  0.1730
 1536DOPE   C4B18026  10.704   3.791  13.106 -0.1908  0.3936 -0.2323
 1537DOPS   CNO18027  17.405   2.728  12.191  0.0117  0.1571 -0.0769
 1537DOPS   PO418028  17.647   2.448  12.350 -0.2809  0.2153 -0.1149
 1537DOPS   GL118029  17.756   2.006  12.463 -0.1547  0.1615  0.1485
 1537DOPS   GL218030  17.967   2.082  12.327 -0.0814  0.2082  0.0760
 1537DOPS   C1A18031  17.720   1.633  12.195 -0.1312 -0.0148  0.2627
 1537DOPS   D2A18032  17.417   1.312  12.129 -0.1745 -0.1449  0.2056
 1537DOPS   C3A18033  17.171   1.106  12.447  0.2442  0.1297 -0.2151
 1537DOPS   C4A18034  16.907   0.719  12.405  0.2582  0.1144 -0.2100
 1537DOPS   C1B18035  18.151   2.254  12.719 -0.1457 -0.0968  0.1585
 1537DOPS   D2B18036  18.181   2.158  13.166  0.1190  0.1733  0.0383
 1537DOPS   C3B18037  18.343   2.403  13.546  0.0137 -0.1170  0.0200
 1537DOPS   C4B18038  18.178   2.574  13.949 -0.0608  0.1143 -0.3403
 1538DOPS   CNO18039  20.593   7.091  12.079 -0.2401  0.0056 -0.3668
 1538DOPS   PO418040  20.591   7.456  12.132  0.0581 -0.3865 -0.0917
 1538DOPS   GL118041  20.586   7.857  12.253 -0.1713 -0.1713  0.0991
 1538DOPS   GL218042  20.358   7.937  12.029 -0.0692  0.0430 -0.0180
 1538DOPS   C1A18043  20.707   8.299  12.225 -0.0444  0.0871 -0.4117
 1538DOPS   D2A18044  20.721   8.746  12.177  0.1372  0.0679 -0.0566
 1538DOPS   C3A18045  21.065   8.915  12.406  0.0662 -0.1127 -0.0911
 1538DOPS   C4A18046  21.414   8.760  12.706 -0.0561  0.1113 -0.5183
 1538DOPS   C1B18047  20.245   8.131  12.450 -0.2976  0.0628 -0.0379
 1538DOPS   D2B18048  20.125   8.133  12.945 -0.0939  0.0107 -0.1555
 1538DOPS   C3B18049  19.998   8.445  13.235  0.0213  0.3320  0.1536
 1538DOPS   C4B18050  19.846   8.826  13.503 -0.0892 -0.0277 -0.2563
 1539DOPE   NH318051  11.410  10.190  12.094  0.0829 -0.1327 -0.0251
 1539DOPE   PO418052  11.189  10.393  12.282 -0.2539  0.2250 -0.2404
 1539DOPE   GL118053  11.149  10.473  12.665  0.1902  0.1923 -0.0821
 1539DOPE   GL218054  10.977  10.160  12.689 -0.2039 -0.0777 -0.1279
 1539DOPE   C1A18055  11.289  10.342  13.113 -0.2511 -0.1320  0.2333
 1539DOPE   D2A18056  11.356  10.170  13.498  0.2212  0.3487  0.0182
 1539DOPE   C3A18057  11.319  10.299  13.969  0.1483  0.0361  0.0633
 1539DOPE   C4A18058  11.099  10.610  14.240  0.2286 -0.0397  0.2586
 1539DOPE   C1B18059  10.921  10.016  13.129  0.1954  0.3533  0.2353
 1539DOPE   D2B18060  10.863   9.953  13.564  0.0063  0.0370  0.0508
 1539DOPE   C3B18061  11.161   9.802  13.895 -0.0535 -0.4712 -0.1507
 1539DOPE   C4B18062  11.599   9.776  14.006 -0.0252  0.0319  0.1049
 1540DOPE   NH318063  15.442   5.744  12.368  0.0172  0.3266  0.2213
 1540DOPE   PO418064  15.764   5.601  12.413  0.3158  0.1203  0.1576
 1540DOPE   GL118065  15.890   5.669  12.837 -0.1366 -0.0372 -0.0425
 1540DOPE   GL218066  16.188   5.653  12.886  0.1078 -0.2676 -0.2102
 1540DOPE   C1A18067  16.001   6.064  13.135 -0.3323 -0.2233  0.2733
 1540DOPE   D2A18068  16.017   6.058  13.612  0.0244 -0.0073  0.0251
 1540DOPE   C3A18069  16.162   6.515  13.726 -0.3587  0.0939  0.0506
 1540DOPE   C4A18070  16.429   6.870  13.880  0.0720 -0.1833  0.3867
 1540DOPE   C1B18071  16.228   5.693  13.342  0.3492 -0.0085 -0.0682
 1540DOPE   D2B18072  16.267   5.350  13.660  0.0085 -0.1444  0.0355
 1540DOPE   C3B18073  16.156   5.001  14.030 -0.0558 -0.1141  0.0695
 1540DOPE   C4B18074  16.065   4.574  14.228  0.2248  0.1187  0.0544
 1541POSM   NC318075  21.917  34.192  12.209 -0.3029  0.1828 -0.3675
 1541POSM   PO418076  22.099  34.006  12.464  0.0337  0.0916  0.2326
 1541POSM   AM118077  22.074  34.279  12.647 -0.1682  0.0688 -0.2569
 1541POSM   AM218078  22.241  34.336  12.869  0.1586  0.0341 -0.4086
 1541POSM   T1A18079  22.085  34.793  12.636  0.0691  0.0411  0.0461
 1541POSM   C2A18080  22.004  35.201  12.769  0.0234  0.1010  0.1177
 1541POSM   C3A18081  22.103  35.608  13.061 -0.0299  0.1541  0.0200
 1541POSM   C1B18082  22.231  34.438  13.242  0.4556 -0.0040  0.2470
 1541POSM   D2B18083  22.298  34.694  13.619  0.0947  0.0705 -0.1726
 1541POSM   C3B18084  21.979  34.522  13.952  0.0789  0.0353 -0.0544
 1541POSM   C4B18085  21.965  34.272  14.362 -0.0099 -0.0339 -0.1692
 1542DOPC   NC318086  19.581   4.494  12.032  0.1466 -0.1881  0.1976
 1542DOPC   PO418087  19.541   4.324  12.429  0.0418  0.3667  0.1859
 1542DOPC   GL118088  19.496   4.012  12.735 -0.1935 -0.0519  0.0672
 1542DOPC   GL218089  19.492   3.736  12.554  0.0216 -0.0605  0.2115
 1542DOPC   C1A18090  19.484   4.028  13.199  0.0565  0.0334  0.1844
 1542DOPC   D2A18091  19.630   4.130  13.597 -0.1660 -0.1946 -0.3126
 1542DOPC   C3A18092  19.448   4.503  13.844 -0.0159  0.1881  0.0990
 1542DOPC   C4A18093  19.148   4.860  13.857  0.0710 -0.0256 -0.2495
 1542DOPC   C1B18094  19.163   3.738  12.871 -0.0195 -0.1232 -0.0684
 1542DOPC   D2B18095  19.080   3.570  13.269 -0.1612  0.1675 -0.0479
 1542DOPC   C3B18096  19.124   3.875  13.582  0.2116 -0.0996  0.0208
 1542DOPC   C4B18097  19.325   3.936  14.033  0.0286  0.4154  0.1028
 1543DOPC   NC318098  15.541   5.198  12.271 -0.0811 -0.0993 -0.1250
 1543DOPC   PO418099  15.167   5.261  12.255 -0.1888 -0.2089  0.0499
 1543DOPC   GL118100  15.370   5.388  12.651  0.4525 -0.0779 -0.3260
 1543DOPC   GL218101  15.665   5.298  12.829 -0.0156  0.0530  0.5069
 1543DOPC   C1A18102  15.218   5.251  13.112 -0.3387 -0.1686 -0.0449
 1543DOPC   D2A18103  15.316   5.415  13.518 -0.2864 -0.1860 -0.1674
 1543DOPC   C3A18104  15.351   5.045  13.838  0.4599  0.2809 -0.3464
 1543DOPC   C4A18105  15.630   4.743  13.893  0.0819  0.2291 -0.2375
 1543DOPC   C1B18106  15.819   5.416  13.265 -0.0287 -0.3209  0.3292
 1543DOPC   D2B18107  15.835   5.209  13.701 -0.2193  0.1378 -0.0841
 1543DOPC   C3B18108  15.935   5.550  13.972 -0.1032  0.3912  0.2282
 1543DOPC   C4B18109  15.938   5.814  14.335 -0.0169  0.4058 -0.3330
 1544DOPE   NH318110  19.389  10.795  12.859  0.1230  0.2425  0.0685
 1544DOPE   PO418111  19.516  11.042  12.734  0.2234  0.0298 -0.0813
 1544DOPE   GL118112  19.833  11.031  12.988 -0.0851  0.2075 -0.0579
 1544DOPE   GL218113  19.779  10.831  13.189 -0.0850 -0.1474 -0.2123
 1544DOPE   C1A18114  20.207  11.179  13.008 -0.1617  0.1741 -0.1592
 1544DOPE   D2A18115  20.208  11.616  13.069 -0.0736 -0.1161 -0.2566
 1544DOPE   C3A18116  20.533  11.650  13.329 -0.1938  0.0914  0.0708
 1544DOPE   C4A18117  20.713  11.475  13.698 -0.0951 -0.4038  0.0206
 1544DOPE   C1B18118  20.176  10.735  13.365  0.0967  0.0902 -0.1436
 1544DOPE   D2B18119  20.635  10.636  13.352  0.2111  0.2676  0.1662
 1544DOPE   C3B18120  20.659  10.236  13.115  0.0636 -0.0523  0.1342
 1544DOPE   C4B18121  20.960  10.066  12.825  0.0263  0.1062 -0.1447
 1545POSM   NC318122  22.641  10.960  11.627 -0.0138  0.2538 -0.2182
 1545POSM   PO418123  22.320  11.142  11.750 -0.0261  0.1037  0.3880
 1545POSM   AM118124  22.153  11.066  12.034 -0.1999 -0.0224 -0.0552
 1545POSM   AM218125  22.220  11.032  12.311 -0.1960  0.1087  0.2925
 1545POSM   T1A18126  21.726  10.778  12.142  0.0812 -0.1224 -0.1346
 1545POSM   C2A18127  21.282  10.716  12.256 -0.4223 -0.3500  0.3918
 1545POSM   C3A18128  20.921  10.634  12.473  0.2401  0.0146  0.1554
 1545POSM   C1B18129  22.044  11.042  12.617  0.0104  0.1321 -0.1229
 1545POSM   D2B18130  21.957  10.964  13.096  0.2052 -0.1042  0.3093
 1545POSM   C3B18131  21.969  11.324  13.386 -0.2322 -0.1454  0.2011
 1545POSM   C4B18132  21.977  11.601  13.784 -0.1817 -0.0193  0.2926
 1546DOPE   NH318133  18.545   6.580  12.429  0.1444 -0.0762 -0.2513
 1546DOPE   PO418134  18.252   6.466  12.557 -0.0901 -0.1152 -0.3493
 1546DOPE   GL118135  18.042   6.358  12.912 -0.2332  0.5039 -0.5124
 1546DOPE   GL218136  18.035   6.111  13.053  0.1473  0.1592  0.0025
 1546DOPE   C1A18137  17.740   6.559  13.226  0.1531 -0.4746 -0.1852
 1546DOPE   D2A18138  17.578   6.890  13.539 -0.1827  0.2576  0.2693
 1546DOPE   C3A18139  17.264   6.784  13.818  0.2406  0.0791 -0.0686
 1546DOPE   C4A18140  17.152   7.010  14.238 -0.2469  0.0044  0.2908
 1546DOPE   C1B18141  17.928   6.109  13.513  0.0892  0.2038 -0.3178
 1546DOPE   D2B18142  17.548   6.035  13.855 -0.0455  0.0517 -0.0325
 1546DOPE   C3B18143  17.138   6.285  13.858 -0.0967 -0.1003  0.0623
 1546DOPE   C4B18144  16.901   6.610  14.109  0.1302  0.0212 -0.0513
 1547DOPC   NC318145  18.667   4.560  12.602 -0.0503  0.0892  0.3726
 1547DOPC   PO418146  18.789   4.947  12.408 -0.3023  0.0964 -0.4111
 1547DOPC   GL118147  18.690   5.083  12.853 -0.1288 -0.2056  0.2854
 1547DOPC   GL218148  18.940   4.906  12.899 -0.0405 -0.0285  0.1433
 1547DOPC   C1A18149  18.793   5.478  12.944  0.0291  0.0021  0.1977
 1547DOPC   D2A18150  18.968   5.867  12.788 -0.0486 -0.0219  0.1795
 1547DOPC   C3A18151  19.341   5.946  13.053 -0.1067 -0.1613 -0.4597
 1547DOPC   C4A18152  19.711   5.997  13.383  0.1049 -0.1732 -0.2409
 1547DOPC   C1B18153  19.002   5.070  13.346  0.1635  0.1266  0.2319
 1547DOPC   D2B18154  18.883   5.272  13.762 -0.2817  0.0086 -0.1722
 1547DOPC   C3B18155  18.908   5.579  14.121  0.2021  0.0531  0.0805
 1547DOPC   C4B18156  18.714   5.552  14.572 -0.2447  0.1289 -0.1446
 1548DOPS   CNO18157  14.100   0.321  11.695  0.2414  0.3954  0.0489
 1548DOPS   PO418158  13.991   0.647  11.837  0.0683  0.0980 -0.0246
 1548DOPS   GL118159  13.787   0.794  12.082  0.0838  0.2620  0.1633
 1548DOPS   GL218160  13.854   0.743  12.351 -0.1646  0.0737 -0.0672
 1548DOPS   C1A18161  13.564   1.200  11.915 -0.0525  0.1725 -0.0797
 1548DOPS   D2A18162  13.259   1.547  11.942 -0.2430  0.0311 -0.2273
 1548DOPS   C3A18163  13.041   1.941  11.923 -0.0756 -0.4447  0.4801
 1548DOPS   C4A18164  12.614   2.079  11.897 -0.2746  0.1561 -0.1660
 1548DOPS   C1B18165  13.733   0.706  12.818 -0.0256 -0.0128  0.1869
 1548DOPS   D2B18166  13.793   0.709  13.270 -0.4091  0.0778  0.1068
 1548DOPS   C3B18167  14.027   0.463  13.525  0.2811 -0.3148 -0.2582
 1548DOPS   C4B18168  14.341   0.266  13.837  0.2040 -0.1455  0.1682
 1549DOPE   NH318169  14.958   9.332  12.108  0.0095  0.0588  0.0332
 1549DOPE   PO418170  14.913   9.387  12.458 -0.1544  0.0115  0.2291
 1549DOPE   GL118171  15.066   9.454  12.884 -0.1854 -0.0613 -0.2390
 1549DOPE   GL218172  15.202   9.714  12.705 -0.0971 -0.1272  0.1571
 1549DOPE   C1A18173  15.122   9.143  13.190 -0.0277  0.1779 -0.0219
 1549DOPE   D2A18174  14.934   8.790  13.444 -0.2936 -0.4089 -0.1580
 1549DOPE   C3A18175  15.076   8.397  13.616  0.4442 -0.0718 -0.3910
 1549DOPE   C4A18176  15.189   7.942  13.709 -0.2875  0.0761 -0.0216
 1549DOPE   C1B18177  15.610   9.809  12.808  0.3437  0.0408 -0.1427
 1549DOPE   D2B18178  15.913  10.007  12.998 -0.0138 -0.3164  0.0192
 1549DOPE   C3B18179  15.877  10.117  13.452 -0.3281  0.0670 -0.0183
 1549DOPE   C4B18180  16.216  10.168  13.768  0.0168 -0.0767  0.0434
 1550DOPE   NH318181  14.846   5.648  12.105 -0.1407  0.3866 -0.0682
 1550DOPE   PO418182  14.917   5.760  12.389  0.2990  0.0372 -0.2347
 1550DOPE   GL118183  14.895   5.413  12.550 -0.0390  0.2887  0.2157
 1550DOPE   GL218184  14.644   5.313  12.381  0.5195 -0.1534  0.3995
 1550DOPE   C1A18185  14.860   4.959  12.802 -0.0223  0.0489  0.1342
 1550DOPE   D2A18186  15.095   4.742  13.110  0.0883 -0.1311 -0.0120
 1550DOPE   C3A18187  14.974   4.680  13.545 -0.1508  0.2278  0.0914
 1550DOPE   C4A18188  14.923   4.844  14.022 -0.0901  0.2923  0.1086
 1550DOPE   C1B18189  14.402   5.214  12.792  0.5124 -0.3696 -0.0440
 1550DOPE   D2B18190  14.276   4.927  13.105  0.1932  0.3817  0.1528
 1550DOPE   C3B18191  14.518   4.539  13.091  0.1805 -0.2176 -0.3256
 1550DOPE   C4B18192  14.432   4.059  13.057  0.0135 -0.0103 -0.0043
 1551DOPS   CNO18193  22.927  11.515  12.167  0.1037 -0.2019  0.3221
 1551DOPS   PO418194  22.696  11.232  12.088 -0.0496 -0.0168  0.0106
 1551DOPS   GL118195  22.649  11.215  12.517  0.0713 -0.1978 -0.3101
 1551DOPS   GL218196  22.772  11.414  12.723 -0.1777 -0.1683 -0.4487
 1551DOPS   C1A18197  22.396  11.180  12.923 -0.3874  0.1982  0.1791
 1551DOPS   D2A18198  22.428  11.194  13.396 -0.4781  0.4470  0.3646
 1551DOPS   C3A18199  22.843  11.430  13.615 -0.0536  0.1142 -0.2476
 1551DOPS   C4A18200  23.243  11.341  13.793  0.2557 -0.1732  0.0589
 1551DOPS   C1B18201  22.849  11.178  13.115  0.1171  0.0095  0.3794
 1551DOPS   D2B18202  22.862  10.951  13.510 -0.2109  0.2234 -0.0806
 1551DOPS   C3B18203  23.095  10.859  13.931 -0.1173 -0.0070  0.1313
 1551DOPS   C4B18204  23.336  11.109  14.168  0.2010 -0.1226  0.0063
 1552DOPE   NH318205  22.644   3.051  12.166 -0.0290  0.1556  0.2570
 1552DOPE   PO418206  22.881   3.071  12.367  0.0482 -0.2249  0.1632
 1552DOPE   GL118207  22.777   2.810  12.631 -0.1389  0.0968 -0.0745
 1552DOPE   GL218208  22.804   2.483  12.561  0.0875 -0.1038 -0.1069
 1552DOPE   C1A18209  22.511   2.610  12.919 -0.2082  0.0171 -0.2238
 1552DOPE   D2A18210  22.076   2.593  12.991 -0.2587 -0.0492 -0.3323
 1552DOPE   C3A18211  21.830   2.886  13.293  0.3744  0.1203  0.1525
 1552DOPE   C4A18212  21.567   3.279  13.296  0.2828 -0.1570 -0.0280
 1552DOPE   C1B18213  22.838   2.145  12.838  0.1692  0.1550  0.0599
 1552DOPE   D2B18214  23.048   1.709  12.784  0.0315 -0.1302  0.3385
 1552DOPE   C3B18215  22.834   1.313  12.773 -0.0479 -0.1168  0.2786
 1552DOPE   C4B18216  22.603   0.922  12.905 -0.1569 -0.0016  0.3954
 1553DOPS   CNO18217  17.428   0.235  11.639 -0.0214 -0.0848  0.1092
 1553DOPS   PO418218  17.110   0.098  11.825  0.1948 -0.1014  0.3271
 1553DOPS   GL118219  16.857   0.265  12.102 -0.1928 -0.2713  0.1139
 1553DOPS   GL218220  16.769   0.274  12.359 -0.0924 -0.1289  0.1449
 1553DOPS   C1A18221  16.671   0.663  11.923 -0.0196  0.0432  0.1388
 1553DOPS   D2A18222  16.282   0.903  11.915 -0.1469 -0.3307 -0.3584
 1553DOPS   C3A18223  16.304   1.159  12.290  0.1071  0.0068  0.0806
 1553DOPS   C4A18224  16.280   1.282  12.778  0.2187  0.1075 -0.2793
 1553DOPS   C1B18225  16.924   0.338  12.765 -0.2174 -0.3459  0.0673
 1553DOPS   D2B18226  16.807   0.291  13.236 -0.2377 -0.3114  0.0587
 1553DOPS   C3B18227  17.032   0.295  13.661  0.1107  0.2303  0.2692
 1553DOPS   C4B18228  17.162   0.224  14.111 -0.0235  0.1345 -0.0634
 1554DOPS   CNO18229  22.001   1.866  12.342  0.1397  0.1502 -0.1210
 1554DOPS   PO418230  21.949   1.507  12.251 -0.2813  0.2303 -0.1264
 1554DOPS   GL118231  22.198   1.469  12.492 -0.1480  0.1302  0.0090
 1554DOPS   GL218232  22.062   1.403  12.770  0.0983 -0.3625  0.1525
 1554DOPS   C1A18233  22.578   1.212  12.354 -0.2817  0.3216  0.0677
 1554DOPS   D2A18234  22.631   0.709  12.356  0.2789  0.0456  0.2501
 1554DOPS   C3A18235  22.554   0.424  12.698  0.0849 -0.1747  0.3762
 1554DOPS   C4A18236  22.492   0.073  12.959  0.0591 -0.1288  0.0466
 1554DOPS   C1B18237  21.899   1.447  13.224  0.0031 -0.0507 -0.1203
 1554DOPS   D2B18238  21.463   1.424  13.368 -0.0218  0.0400  0.0889
 1554DOPS   C3B18239  21.232   1.037  13.550  0.0264 -0.1914  0.1750
 1554DOPS   C4B18240  21.107   0.573  13.618 -0.0645  0.2593  0.1670
 1555DOPC   NC318241  16.640   2.092  12.540 -0.1020  0.3632  0.1467
 1555DOPC   PO418242  16.438   1.821  12.389  0.0163  0.3592  0.1395
 1555DOPC   GL118243  16.098   1.671  12.328  0.0235  0.2079  0.4466
 1555DOPC   GL218244  15.920   1.821  12.565  0.1582  0.1971 -0.0086
 1555DOPC   C1A18245  15.754   1.364  12.446 -0.1615  0.3731  0.3676
 1555DOPC   D2A18246  15.357   1.231  12.628 -0.1251  0.0572  0.1863
 1555DOPC   C3A18247  15.394   1.292  13.145 -0.2372  0.1525 -0.0900
 1555DOPC   C4A18248  15.504   1.018  13.496 -0.1740  0.1430  0.0730
 1555DOPC   C1B18249  15.884   1.600  12.951 -0.2492 -0.0037  0.1356
 1555DOPC   D2B18250  15.889   1.371  13.386 -0.2709 -0.2489  0.2147
 1555DOPC   C3B18251  15.897   1.157  13.743 -0.2357 -0.1738  0.1035
 1555DOPC   C4B18252  16.119   1.067  14.118 -0.3471 -0.5392 -0.0249
 1556DOPC   NC318253  21.806   6.699  12.772  0.0391 -0.0451 -0.0644
 1556DOPC   PO418254  22.127   6.492  12.885  0.0586 -0.0926 -0.0440
 1556DOPC   GL118255  21.880   6.499  13.236  0.2322  0.0562  0.1336
 1556DOPC   GL218256  22.094   6.353  13.411 -0.1052  0.0953 -0.0689
 1556DOPC   C1A18257  21.494   6.590  13.538  0.1171 -0.1233  0.1463
 1556DOPC   D2A18258  21.162   6.697  13.851 -0.0655 -0.1843 -0.1059
 1556DOPC   C3A18259  21.236   6.916  14.201 -0.0090  0.0889  0.0853
 1556DOPC   C4A18260  21.100   7.093  14.564  0.0526 -0.0529  0.2537
 1556DOPC   C1B18261  21.963   6.560  13.749  0.1563  0.1401  0.0509
 1556DOPC   D2B18262  21.659   6.932  13.854  0.0360 -0.1195 -0.2207
 1556DOPC   C3B18263  21.772   7.292  14.113  0.1245  0.1026 -0.1642
 1556DOPC   C4B18264  21.945   7.560  14.420  0.2229 -0.1833 -0.0319
 1557DOPE   NH318265  17.287   3.554  12.477  0.1187 -0.1686  0.2308
 1557DOPE   PO418266  17.551   3.508  12.671  0.0285  0.0516 -0.1969
 1557DOPE   GL118267  17.575   3.366  12.998  0.0096  0.3608 -0.1387
 1557DOPE   GL218268  17.600   3.543  13.266 -0.0656 -0.2041 -0.3230
 1557DOPE   C1A18269  17.865   3.189  13.338  0.3641 -0.0766 -0.1882
 1557DOPE   D2A18270  18.052   3.118  13.778 -0.2826  0.2226 -0.1572
 1557DOPE   C3A18271  18.095   3.390  14.149  0.0707  0.0383  0.1559
 1557DOPE   C4A18272  18.160   3.511  14.563 -0.1394  0.0430 -0.2207
 1557DOPE   C1B18273  17.639   3.948  13.417  0.2155 -0.1908  0.2166
 1557DOPE   D2B18274  17.995   4.084  13.701  0.0970  0.0859 -0.3340
 1557DOPE   C3B18275  17.782   4.131  14.121 -0.3444 -0.1087  0.2123
 1557DOPE   C4B18276  17.790   4.046  14.565 -0.1940 -0.1360 -0.0752
 1558DOPC   NC318277  20.966  11.786  12.388 -0.1382 -0.0541  0.2467
 1558DOPC   PO418278  21.030  11.593  12.011 -0.0207  0.0383  0.0424
 1558DOPC   GL118279  21.240  11.408  12.217 -0.0916 -0.5119 -0.0988
 1558DOPC   GL218280  21.466  11.307  12.027 -0.0616 -0.1143 -0.4211
 1558DOPC   C1A18281  21.237  11.506  12.699 -0.1685  0.1836  0.0823
 1558DOPC   D2A18282  21.101  11.549  13.133  0.0399  0.0618  0.1893
 1558DOPC   C3A18283  20.940  11.844  13.462 -0.1046  0.1871  0.0472
 1558DOPC   C4A18284  20.703  11.931  13.871  0.0424 -0.0606 -0.0476
 1558DOPC   C1B18285  21.563  11.139  12.454  0.0217  0.3991 -0.0694
 1558DOPC   D2B18286  21.604  10.818  12.757  0.2898  0.0252  0.0646
 1558DOPC   C3B18287  21.706  10.538  13.024 -0.0768  0.0609 -0.1681
 1558DOPC   C4B18288  21.852  10.275  13.423  0.2395  0.1991  0.1898
 1559POSM   NC318289  17.038   3.193  12.222 -0.1463  0.0913  0.0566
 1559POSM   PO418290  16.935   2.890  12.455  0.0532  0.0354 -0.2635
 1559POSM   AM118291  16.951   2.831  12.768 -0.1386 -0.2497 -0.1514
 1559POSM   AM218292  16.985   2.601  12.902 -0.0665 -0.0990 -0.3044
 1559POSM   T1A18293  16.581   2.925  13.056 -0.1932  0.0838 -0.2109
 1559POSM   C2A18294  16.281   3.127  13.288  0.0344 -0.1127  0.0619
 1559POSM   C3A18295  16.215   3.399  13.695  0.2965 -0.2236  0.5177
 1559POSM   C1B18296  17.232   2.523  13.139  0.1003  0.0180 -0.1530
 1559POSM   D2B18297  17.186   2.417  13.632  0.2181  0.0131 -0.1367
 1559POSM   C3B18298  17.431   2.117  13.772 -0.2419  0.2434  0.3044
 1559POSM   C4B18299  17.936   2.097  13.671  0.0776  0.2126  0.2800
 1560DOPC   NC318300  14.116   8.639  12.494 -0.3215  0.0749  0.0414
 1560DOPC   PO418301  14.274   8.563  12.185  0.0005  0.0288 -0.1402
 1560DOPC   GL118302  14.559   8.234  12.192 -0.4137  0.0197  0.3491
 1560DOPC   GL218303  14.806   8.168  11.947 -0.0479  0.0227 -0.1158
 1560DOPC   C1A18304  14.553   7.770  12.292  0.0480  0.2673 -0.1071
 1560DOPC   D2A18305  14.782   7.406  12.463 -0.0566 -0.2164 -0.0105
 1560DOPC   C3A18306  14.561   7.087  12.716 -0.2212  0.3629 -0.0304
 1560DOPC   C4A18307  14.477   7.139  13.153 -0.1161 -0.0532  0.0383
 1560DOPC   C1B18308  15.006   8.018  12.339 -0.1905 -0.2832 -0.0329
 1560DOPC   D2B18309  15.109   7.749  12.718 -0.0340  0.0578  0.1459
 1560DOPC   C3B18310  14.774   7.574  13.061  0.2112 -0.4068 -0.1886
 1560DOPC   C4B18311  14.575   7.767  13.486  0.0186 -0.1046  0.0607
 1561DOPC   NC318312  17.894   7.414  12.594  0.1845  0.0778  0.0134
 1561DOPC   PO418313  18.235   7.533  12.484  0.0625 -0.1267 -0.0650
 1561DOPC   GL118314  18.102   7.927  12.572 -0.1306 -0.3802  0.1751
 1561DOPC   GL218315  17.973   7.859  12.845  0.3280  0.0203  0.0946
 1561DOPC   C1A18316  17.994   8.325  12.826 -0.0988 -0.2307  0.1436
 1561DOPC   D2A18317  17.853   8.408  13.239 -0.1780 -0.5397  0.1227
 1561DOPC   C3A18318  18.015   8.585  13.603  0.3188 -0.0767  0.2034
 1561DOPC   C4A18319  18.126   8.356  13.988  0.0799 -0.2053 -0.2131
 1561DOPC   C1B18320  18.367   8.009  12.960  0.1721  0.1418 -0.0534
 1561DOPC   D2B18321  18.579   8.395  12.876 -0.4430 -0.1243 -0.0472
 1561DOPC   C3B18322  18.983   8.561  12.675 -0.2131 -0.0928  0.0240
 1561DOPC   C4B18323  19.364   8.646  12.558  0.0089  0.0048  0.0467
 1562DOPE   NH318324  14.671  10.616  11.948  0.0386 -0.2433 -0.1040
 1562DOPE   PO418325  14.651  10.278  11.879  0.0837  0.2459  0.1421
 1562DOPE   GL118326  14.469  10.173  12.285  0.0095  0.1721  0.2258
 1562DOPE   GL218327  14.462  10.436  12.390  0.0414  0.2384 -0.0468
 1562DOPE   C1A18328  14.564   9.974  12.677 -0.1389 -0.0516 -0.4491
 1562DOPE   D2A18329  14.628   9.780  13.128  0.1871 -0.2354 -0.2146
 1562DOPE   C3A18330  14.808   9.406  13.414  0.0204 -0.2765  0.0683
 1562DOPE   C4A18331  15.169   9.426  13.641 -0.1815 -0.0503  0.4627
 1562DOPE   C1B18332  14.508  10.504  12.857  0.1933  0.3156 -0.2986
 1562DOPE   D2B18333  14.393  10.269  13.270 -0.0583  0.0986  0.2068
 1562DOPE   C3B18334  14.027  10.104  13.522  0.0397  0.1294  0.1217
 1562DOPE   C4B18335  13.660  10.317  13.776 -0.1428  0.1697 -0.2102
 1563DOPE   NH318336  12.809  10.992  12.091 -0.1667  0.0631  0.2471
 1563DOPE   PO418337  13.076  10.863  12.053  0.1344 -0.3285 -0.1961
 1563DOPE   GL118338  12.973  10.829  12.503 -0.0843  0.1002  0.0290
 1563DOPE   GL218339  12.958  11.031  12.715  0.0988 -0.2399  0.1246
 1563DOPE   C1A18340  13.355  10.792  12.764  0.1525  0.1365 -0.0629
 1563DOPE   D2A18341  13.426  10.532  13.109  0.0541  0.0744  0.1323
 1563DOPE   C3A18342  13.671  10.138  13.128  0.0072  0.2132  0.0605
 1563DOPE   C4A18343  14.167   9.956  12.989 -0.0456 -0.1329 -0.1537
 1563DOPE   C1B18344  13.153  11.054  13.115 -0.0316  0.3212 -0.1566
 1563DOPE   D2B18345  13.143  11.124  13.550  0.0560 -0.4335 -0.1927
 1563DOPE   C3B18346  12.818  10.954  13.835  0.1408  0.1486  0.0622
 1563DOPE   C4B18347  12.607  10.862  14.245 -0.0698 -0.0717  0.0907
 1564DOPC   NC318348  11.642   6.911  12.462  0.2561  0.0551  0.3922
 1564DOPC   PO418349  11.358   7.170  12.381 -0.0591  0.3174  0.1960
 1564DOPC   GL118350  11.324   7.047  12.769 -0.1588  0.1695 -0.0353
 1564DOPC   GL218351  11.052   7.065  12.766 -0.1549 -0.0465 -0.0954
 1564DOPC   C1A18352  11.156   7.060  13.241 -0.3979  0.1470 -0.0246
 1564DOPC   D2A18353  11.212   7.130  13.701  0.0788  0.0794  0.2499
 1564DOPC   C3A18354  11.653   7.232  13.684 -0.0354 -0.0884  0.0377
 1564DOPC   C4A18355  12.017   6.964  13.789 -0.0063 -0.2284  0.1483
 1564DOPC   C1B18356  10.780   6.772  13.099 -0.4819  0.0830 -0.2924
 1564DOPC   D2B18357  10.790   6.414  13.395 -0.0877  0.1555  0.0207
 1564DOPC   C3B18358  10.964   6.038  13.582 -0.0572  0.2803  0.1858
 1564DOPC   C4B18359  11.169   5.965  13.980  0.2569  0.0366 -0.0699
 1565DOPE   NH318360  21.760   6.055  12.985 -0.2105 -0.1552 -0.1453
 1565DOPE   PO418361  21.561   6.280  12.876 -0.0532 -0.3032 -0.1104
 1565DOPE   GL118362  21.466   6.284  13.260 -0.0119 -0.0393 -0.1365
 1565DOPE   GL218363  21.629   6.049  13.493  0.1651 -0.0701 -0.0934
 1565DOPE   C1A18364  21.154   6.245  13.606  0.1863 -0.1208  0.0806
 1565DOPE   D2A18365  20.795   6.373  13.999 -0.1121 -0.0711 -0.1529
 1565DOPE   C3A18366  20.739   5.931  14.017 -0.0562  0.0116 -0.1455
 1565DOPE   C4A18367  20.753   5.435  13.866 -0.1561  0.0689 -0.2259
 1565DOPE   C1B18368  21.555   6.149  13.954  0.0480 -0.2732  0.2559
 1565DOPE   D2B18369  21.456   6.500  14.241  0.0366  0.0485 -0.1512
 1565DOPE   C3B18370  21.522   6.538  14.677  0.1434 -0.0351  0.0078
 1565DOPE   C4B18371  21.329   6.769  14.950 -0.0995 -0.1517 -0.0969
 1566DOPS   CNO18372  18.092  10.952  12.074  0.0922  0.3152  0.0910
 1566DOPS   PO418373  17.967  10.831  12.422 -0.0761 -0.3739 -0.1278
 1566DOPS   GL118374  18.096  10.567  12.723  0.0403 -0.0520 -0.0508
 1566DOPS   GL218375  18.026  10.646  12.988  0.0234  0.0923 -0.3162
 1566DOPS   C1A18376  18.101  10.103  12.879 -0.0377 -0.0646  0.0835
 1566DOPS   D2A18377  18.008   9.737  13.157 -0.1191  0.1855 -0.0195
 1566DOPS   C3A18378  17.859   9.792  13.568  0.3020 -0.0510  0.0129
 1566DOPS   C4A18379  17.609  10.073  13.804 -0.1011 -0.1075 -0.0177
 1566DOPS   C1B18380  18.032  10.672  13.461 -0.0618  0.0194 -0.0302
 1566DOPS   D2B18381  17.973  10.391  13.856 -0.0239  0.0643  0.1310
 1566DOPS   C3B18382  18.009  10.577  14.278  0.1710  0.0091 -0.0804
 1566DOPS   C4B18383  18.157  10.826  14.660 -0.3268  0.2144 -0.1364
 1567DOPC   NC318384  14.010  11.011  12.053 -0.0901  0.2076 -0.1809
 1567DOPC   PO418385  14.298  10.930  11.813 -0.0437 -0.3584  0.2705
 1567DOPC   GL118386  14.535  11.095  12.116 -0.0535 -0.0343  0.3002
 1567DOPC   GL218387  14.836  11.064  12.094  0.0271  0.0637  0.1473
 1567DOPC   C1A18388  14.698  10.868  12.520 -0.1656  0.2952 -0.2808
 1567DOPC   D2A18389  15.004  10.649  12.743 -0.2839  0.1271  0.3626
 1567DOPC   C3A18390  14.821  10.866  13.139 -0.3199  0.1782  0.0548
 1567DOPC   C4A18391  14.548  10.700  13.509 -0.1669  0.0226  0.0170
 1567DOPC   C1B18392  15.126  11.107  12.430 -0.4212  0.0042  0.0143
 1567DOPC   D2B18393  14.966  11.260  12.913  0.2746 -0.0566  0.1180
 1567DOPC   C3B18394  14.497  11.155  12.905  0.0833 -0.1576  0.2155
 1567DOPC   C4B18395  14.252  10.975  12.540  0.0680 -0.0016  0.0937
 1568POSM   NC318396  19.868   6.955  13.016  0.2454  0.0514  0.0876
 1568POSM   PO418397  20.114   7.030  12.727  0.1466 -0.0449  0.1101
 1568POSM   AM118398  20.213   7.245  12.958 -0.0622 -0.2657  0.0662
 1568POSM   AM218399  20.359   7.189  13.174  0.0156  0.0464 -0.1411
 1568POSM   T1A18400  20.080   7.587  13.224  0.0988 -0.4423  0.1823
 1568POSM   C2A18401  19.865   7.799  13.573 -0.1296  0.0663  0.1310
 1568POSM   C3A18402  19.681   7.526  13.934  0.5310  0.0454  0.1198
 1568POSM   C1B18403  20.518   7.322  13.446  0.0828  0.1375 -0.3676
 1568POSM   D2B18404  20.658   7.650  13.688  0.2577 -0.0742  0.3796
 1568POSM   C3B18405  20.292   7.631  13.943  0.2554  0.0807  0.0549
 1568POSM   C4B18406  20.082   7.529  14.374 -0.0585 -0.4896  0.1825
 1569DOPC   NC318407  13.076   7.386  12.035  0.1826 -0.1533  0.0983
 1569DOPC   PO418408  13.209   7.304  12.383  0.1764  0.1953 -0.0074
 1569DOPC   GL118409  13.083   7.382  12.731  0.2929  0.3062 -0.0948
 1569DOPC   GL218410  12.872   7.117  12.742 -0.2985 -0.2633  0.2213
 1569DOPC   C1A18411  12.795   7.474  13.161 -0.0255  0.5121  0.2618
 1569DOPC   D2A18412  12.591   7.489  13.549  0.2031 -0.0093 -0.1104
 1569DOPC   C3A18413  12.684   7.775  13.943  0.0885  0.1612  0.0969
 1569DOPC   C4A18414  12.629   7.858  14.375  0.0012 -0.4108  0.0446
 1569DOPC   C1B18415  12.629   6.929  13.148  0.0044  0.0639  0.1327
 1569DOPC   D2B18416  12.399   6.841  13.514  0.2504 -0.1709  0.1530
 1569DOPC   C3B18417  12.598   6.429  13.632 -0.1300 -0.0247 -0.0195
 1569DOPC   C4B18418  12.713   5.964  13.802 -0.1180 -0.2187  0.1086
 1570POSM   NC318419  17.125   6.768  12.345 -0.0087 -0.0727  0.0606
 1570POSM   PO418420  17.030   7.152  12.335 -0.0183  0.3140  0.2605
 1570POSM   AM118421  17.157   7.397  12.529  0.0944  0.2299  0.1754
 1570POSM   AM218422  17.404   7.508  12.694 -0.0013 -0.1886 -0.0700
 1570POSM   T1A18423  17.072   7.815  12.802 -0.1774 -0.4979 -0.2066
 1570POSM   C2A18424  16.775   8.120  13.031 -0.0765  0.0091 -0.3065
 1570POSM   C3A18425  16.401   7.995  13.162  0.4987  0.0100  0.1926
 1570POSM   C1B18426  17.574   7.574  12.989  0.0031  0.2216 -0.2050
 1570POSM   D2B18427  17.729   7.809  13.345 -0.1813  0.2697 -0.1957
 1570POSM   C3B18428  17.526   7.831  13.703  0.0329 -0.1672  0.0284
 1570POSM   C4B18429  17.695   7.644  14.116  0.0886  0.0744  0.2754
 1571DOPE   NH318430  13.933   6.116  12.250 -0.1636 -0.1398  0.0022
 1571DOPE   PO418431  14.122   6.322  12.109  0.2215  0.0044 -0.1253
 1571DOPE   GL118432  14.006   6.497  12.470 -0.1495  0.2064 -0.0742
 1571DOPE   GL218433  13.746   6.372  12.623  0.0483 -0.0657 -0.0597
 1571DOPE   C1A18434  13.885   6.843  12.765 -0.0936 -0.2051 -0.3341
 1571DOPE   D2A18435  13.820   7.026  13.211  0.3339  0.1252 -0.0061
 1571DOPE   C3A18436  13.593   6.872  13.617 -0.3107 -0.0497 -0.1732
 1571DOPE   C4A18437  13.210   6.961  13.870 -0.1128 -0.0228 -0.0110
 1571DOPE   C1B18438  13.972   6.289  13.007  0.0366 -0.1343 -0.1520
 1571DOPE   D2B18439  14.205   6.349  13.397  0.1002 -0.5639  0.2607
 1571DOPE   C3B18440  14.050   6.251  13.830  0.0248  0.1343 -0.3523
 1571DOPE   C4B18441  14.162   6.226  14.303  0.1870  0.1131  0.2132
 1572DOPE   NH318442  20.583   7.233  12.612 -0.1240 -0.2076 -0.1164
 1572DOPE   PO418443  20.685   7.005  12.849  0.4408  0.0438 -0.1815
 1572DOPE   GL118444  20.885   7.078  13.203 -0.1585 -0.3785 -0.4504
 1572DOPE   GL218445  21.161   7.211  13.209  0.0215 -0.2053  0.0068
 1572DOPE   C1A18446  20.780   6.692  13.522  0.1994 -0.3260  0.0171
 1572DOPE   D2A18447  20.543   6.245  13.540  0.2056  0.0251 -0.2417
 1572DOPE   C3A18448  20.807   5.833  13.493  0.0352  0.0260 -0.0108
 1572DOPE   C4A18449  20.985   5.389  13.478 -0.0787 -0.0192  0.1126
 1572DOPE   C1B18450  21.031   7.198  13.715  0.2685  0.1990 -0.0140
 1572DOPE   D2B18451  20.725   7.208  14.021 -0.1949  0.0022 -0.0318
 1572DOPE   C3B18452  20.722   6.794  14.255  0.0474  0.2935 -0.1672
 1572DOPE   C4B18453  21.027   6.514  14.518  0.3377 -0.0176 -0.0872
 1573DOPS   CNO18454  18.649   0.167  12.073 -0.0008 -0.0083  0.2589
 1573DOPS   PO418455  18.491   0.051  12.402  0.1102  0.1885  0.3223
 1573DOPS   GL118456  18.511  -0.108  12.696 -0.0492  0.0880 -0.0838
 1573DOPS   GL218457  18.301  -0.003  12.929 -0.2264 -0.1637  0.0491
 1573DOPS   C1A18458  18.540  -0.461  13.000  0.0891 -0.1147  0.0960
 1573DOPS   D2A18459  18.677  -0.885  12.764  0.1337  0.1241 -0.1744
 1573DOPS   C3A18460  18.819  -1.321  12.897  0.1604  0.2750  0.0376
 1573DOPS   C4A18461  18.998  -1.555  13.245  0.3512 -0.0694  0.0543
 1573DOPS   C1B18462  18.391  -0.135  13.346 -0.1475  0.0765  0.1802
 1573DOPS   D2B18463  18.445  -0.603  13.514 -0.2272  0.4078 -0.3714
 1573DOPS   C3B18464  18.234  -0.673  13.966  0.0111  0.0150 -0.1484
 1573DOPS   C4B18465  18.375  -0.907  14.431 -0.0160  0.4564 -0.0563
 1574DOPE   NH318466  13.496   0.474  11.638  0.0189 -0.3063 -0.1637
 1574DOPE   PO418467  13.196   0.309  11.670  0.1639  0.2186 -0.3078
 1574DOPE   GL118468  13.107   0.622  11.970 -0.0081 -0.1000  0.0585
 1574DOPE   GL218469  13.249   0.557  12.207  0.1859 -0.1520  0.1592
 1574DOPE   C1A18470  12.951   0.972  12.204  0.1887 -0.1442 -0.0996
 1574DOPE   D2A18471  12.991   1.192  12.631 -0.2065 -0.2681 -0.0554
 1574DOPE   C3A18472  12.877   1.506  12.943 -0.2070  0.0943  0.1369
 1574DOPE   C4A18473  12.522   1.690  13.184  0.1568 -0.2807  0.0783
 1574DOPE   C1B18474  13.419   0.883  12.482  0.1752  0.0043 -0.0472
 1574DOPE   D2B18475  13.596   1.259  12.400 -0.4000  0.3283 -0.1772
 1574DOPE   C3B18476  13.720   1.649  12.130 -0.2528 -0.3166  0.1530
 1574DOPE   C4B18477  13.411   1.984  12.216 -0.1982 -0.0604 -0.1844
 1575DOPE   NH318478  20.070   0.009  12.237  0.0321  0.0534  0.1139
 1575DOPE   PO418479  20.057   0.149  11.906  0.2684  0.1330 -0.1148
 1575DOPE   GL118480  20.124   0.452  12.294  0.1774 -0.2641  0.0427
 1575DOPE   GL218481  20.205   0.376  12.580  0.2474  0.1240  0.1048
 1575DOPE   C1A18482  20.482   0.702  12.350  0.1619 -0.1236 -0.0952
 1575DOPE   D2A18483  20.836   1.025  12.279  0.2474  0.2733 -0.1243
 1575DOPE   C3A18484  20.896   1.098  12.703  0.0649 -0.2085 -0.0826
 1575DOPE   C4A18485  21.093   1.003  13.089  0.2757  0.2203 -0.0973
 1575DOPE   C1B18486  20.436   0.519  12.899 -0.0315  0.1816 -0.0778
 1575DOPE   D2B18487  20.484   0.910  13.107 -0.2051 -0.0081 -0.4921
 1575DOPE   C3B18488  20.613   1.088  13.513  0.0710  0.0992  0.1954
 1575DOPE   C4B18489  20.561   1.151  13.967  0.1978 -0.2178 -0.1975
 1576POSM   NC318490  23.006   9.156  12.515 -0.0261 -0.4389 -0.1415
 1576POSM   PO418491  22.669   9.200  12.314 -0.0465 -0.2252  0.1215
 1576POSM   AM118492  22.565   9.377  12.541 -0.1303  0.2151 -0.3426
 1576POSM   AM218493  22.441   9.606  12.506  0.2965  0.2877 -0.1712
 1576POSM   T1A18494  22.203   9.254  12.908 -0.0025 -0.0616  0.0104
 1576POSM   C2A18495  21.847   9.030  13.059 -0.1394 -0.0794 -0.1088
 1576POSM   C3A18496  21.458   8.894  13.280  0.1775  0.1597  0.0227
 1576POSM   C1B18497  22.118   9.796  12.510 -0.4229  0.0618  0.0188
 1576POSM   D2B18498  21.776   9.998  12.678 -0.3107 -0.1592 -0.0398
 1576POSM   C3B18499  22.024  10.179  12.994  0.1591 -0.0539  0.1052
 1576POSM   C4B18500  22.364  10.245  13.283  0.0830 -0.0044 -0.0475
 1577DOPC   NC318501  21.440   7.492  12.903 -0.1807 -0.4289 -0.5177
 1577DOPC   PO418502  21.654   7.282  12.665  0.0605 -0.2086  0.1005
 1577DOPC   GL118503  21.835   7.634  12.599 -0.0995 -0.1723  0.3460
 1577DOPC   GL218504  22.074   7.855  12.548 -0.0073 -0.0681  0.2487
 1577DOPC   C1A18505  21.751   7.967  12.920 -0.3811  0.1395 -0.1340
 1577DOPC   D2A18506  21.707   8.356  13.218 -0.2826  0.0604  0.1443
 1577DOPC   C3A18507  21.832   8.335  13.696 -0.0144  0.2678  0.2645
 1577DOPC   C4A18508  22.043   8.239  14.139 -0.0488 -0.2128  0.2544
 1577DOPC   C1B18509  22.422   8.166  12.592 -0.2893  0.6023 -0.2302
 1577DOPC   D2B18510  22.540   8.616  12.531  0.0929 -0.0470 -0.1244
 1577DOPC   C3B18511  22.587   8.852  12.922 -0.0467 -0.2036 -0.2488
 1577DOPC   C4B18512  22.372   8.992  13.313 -0.2675 -0.2216 -0.0289
 1578DOPC   NC318513  16.577   0.006  11.800 -0.0015  0.0103  0.1146
 1578DOPC   PO418514  16.346   0.147  12.067  0.0902 -0.1946 -0.2008
 1578DOPC   GL118515  16.386   0.038  12.448  0.3260  0.1638 -0.2081
 1578DOPC   GL218516  16.206  -0.128  12.591 -0.0042 -0.0593 -0.3684
 1578DOPC   C1A18517  16.494   0.177  12.890  0.0215  0.0126 -0.2619
 1578DOPC   D2A18518  16.445  -0.124  13.257  0.1971 -0.2930  0.0069
 1578DOPC   C3A18519  16.074  -0.061  13.480 -0.0309 -0.0284  0.3158
 1578DOPC   C4A18520  15.985  -0.029  13.920  0.0707  0.0320 -0.2263
 1578DOPC   C1B18521  15.914  -0.088  12.922 -0.2745  0.1485 -0.1184
 1578DOPC   D2B18522  15.507  -0.305  12.961 -0.0845 -0.0909  0.0204
 1578DOPC   C3B18523  15.338  -0.632  13.241  0.0563 -0.1997 -0.1871
 1578DOPC   C4B18524  15.156  -1.068  13.272  0.0843 -0.1214 -0.1269
 1579DOPE   NH318525  15.339   0.880  12.113  0.2816  0.0440  0.4717
 1579DOPE   PO418526  15.306   0.743  12.397  0.0888  0.4513  0.0550
 1579DOPE   GL118527  15.585   0.606  12.632 -0.2704  0.2307 -0.1642
 1579DOPE   GL218528  15.492   0.753  12.820  0.1706 -0.0516 -0.0536
 1579DOPE   C1A18529  15.949   0.491  12.880 -0.0386 -0.1712  0.0632
 1579DOPE   D2A18530  16.323   0.518  13.223  0.1097  0.0752  0.0186
 1579DOPE   C3A18531  16.436   0.290  13.625  0.2513 -0.1297  0.0425
 1579DOPE   C4A18532  16.637   0.157  13.988 -0.0535 -0.2978 -0.2504
 1579DOPE   C1B18533  15.398   0.639  13.206 -0.1466 -0.0787 -0.3341
 1579DOPE   D2B18534  15.159   0.401  13.498 -0.2732  0.1413 -0.1669
 1579DOPE   C3B18535  14.916   0.461  13.959 -0.0043  0.3569 -0.0139
 1579DOPE   C4B18536  14.990   0.240  14.349 -0.1487 -0.0414  0.2376
 1580DOPE   NH318537  19.829   4.231  12.855 -0.1944  0.3459  0.1229
 1580DOPE   PO418538  19.973   4.013  12.755  0.0220 -0.1191 -0.1816
 1580DOPE   GL118539  19.957   3.838  13.104 -0.3779 -0.0210 -0.0369
 1580DOPE   GL218540  20.279   3.783  13.136 -0.2564 -0.0445 -0.0304
 1580DOPE   C1A18541  19.859   3.616  13.490  0.0997 -0.1144  0.0706
 1580DOPE   D2A18542  19.412   3.507  13.665  0.2038 -0.2594  0.1743
 1580DOPE   C3A18543  19.439   3.194  14.003  0.2544  0.1930 -0.1889
 1580DOPE   C4A18544  19.367   2.827  14.256 -0.1568 -0.1148  0.2422
 1580DOPE   C1B18545  20.198   3.942  13.560  0.0681 -0.3386  0.1960
 1580DOPE   D2B18546  20.110   4.206  13.889  0.0821  0.2920  0.3985
 1580DOPE   C3B18547  19.919   4.616  13.741 -0.1220  0.1387  0.1350
 1580DOPE   C4B18548  20.007   5.060  13.583 -0.3634 -0.0634 -0.3441
 1581POSM   NC318549  17.167   0.801  11.892  0.0704 -0.1418 -0.0272
 1581POSM   PO418550  17.503   0.688  12.030 -0.0615 -0.0020 -0.1718
 1581POSM   AM118551  17.466   0.715  12.370 -0.1680 -0.1739  0.6033
 1581POSM   AM218552  17.329   0.628  12.614 -0.0629 -0.0387  0.2934
 1581POSM   T1A18553  17.573   1.038  12.768 -0.0931 -0.0569 -0.1296
 1581POSM   C2A18554  17.837   1.297  13.064 -0.0772 -0.0610 -0.1575
 1581POSM   C3A18555  17.822   1.359  13.551  0.0024 -0.2032  0.1443
 1581POSM   C1B18556  17.205   0.782  12.862 -0.1321  0.1124  0.0576
 1581POSM   D2B18557  16.932   1.020  13.160 -0.2012 -0.6570 -0.2541
 1581POSM   C3B18558  16.828   0.703  13.472  0.0833  0.1660 -0.3853
 1581POSM   C4B18559  16.777   0.693  13.890  0.0485 -0.1935 -0.0365
 1582POSM   NC318560  19.005   4.159  12.690 -0.0212 -0.0944 -0.0391
 1582POSM   PO418561  19.211   4.514  12.747  0.0485 -0.0401 -0.0898
 1582POSM   AM118562  19.365   4.425  13.032  0.4081  0.0658  0.1618
 1582POSM   AM218563  19.303   4.440  13.304  0.0988  0.0642 -0.2650
 1582POSM   T1A18564  19.770   4.481  13.334 -0.0625 -0.2375 -0.0103
 1582POSM   C2A18565  20.175   4.776  13.226  0.1611  0.2289 -0.1398
 1582POSM   C3A18566  20.110   5.177  13.007 -0.0392 -0.1196  0.0184
 1582POSM   C1B18567  19.058   4.369  13.546  0.4297 -0.0378  0.2707
 1582POSM   D2B18568  18.948   4.275  14.001  0.1732 -0.0095  0.1686
 1582POSM   C3B18569  19.118   4.569  14.327 -0.0030 -0.1408  0.1921
 1582POSM   C4B18570  18.986   5.005  14.324 -0.0627  0.1767  0.1788
 1583POSM   NC318571  12.240   9.789  12.593  0.2607  0.1419  0.1127
 1583POSM   PO418572  12.386   9.839  12.214  0.4125  0.1455  0.0503
 1583POSM   AM118573  12.649   9.861  12.387 -0.2090 -0.2529 -0.0370
 1583POSM   AM218574  12.765   9.743  12.585 -0.1943 -0.0034 -0.1893
 1583POSM   T1A18575  13.094  10.008  12.301 -0.1875 -0.2914  0.0075
 1583POSM   C2A18576  13.540   9.932  12.347 -0.1072 -0.2396 -0.3648
 1583POSM   C3A18577  13.909  10.028  12.053 -0.1625  0.1276 -0.3512
 1583POSM   C1B18578  12.936   9.488  12.556 -0.0835  0.3055 -0.1285
 1583POSM   D2B18579  13.091   9.073  12.390 -0.1022 -0.2484  0.3127
 1583POSM   C3B18580  13.495   8.974  12.631 -0.3458  0.0873 -0.4802
 1583POSM   C4B18581  13.764   8.659  12.840  0.2189 -0.2669 -0.1457
 1584POSM   NC318582  22.190   3.718  12.097  0.1004  0.0384  0.0125
 1584POSM   PO418583  21.833   3.531  12.109 -0.1393 -0.0500  0.0658
 1584POSM   AM118584  21.546   3.636  12.153  0.1476 -0.0551  0.5813
 1584POSM   AM218585  21.441   3.745  12.428 -0.0693 -0.1996 -0.1113
 1584POSM   T1A18586  21.107   3.359  12.194  0.2741 -0.1222 -0.1028
 1584POSM   C2A18587  20.755   3.144  12.404  0.1864  0.1170  0.1905
 1584POSM   C3A18588  20.411   2.873  12.521  0.1631  0.1242  0.2271
 1584POSM   C1B18589  21.259   3.751  12.720  0.1516  0.2559 -0.3184
 1584POSM   D2B18590  21.035   3.758  13.115  0.3295 -0.1041  0.0473
 1584POSM   C3B18591  20.741   3.441  13.198 -0.0432  0.0716  0.0638
 1584POSM   C4B18592  20.685   3.039  13.331  0.2314 -0.1491  0.2366
 1585DOPC   NC318593  15.241   6.486  12.207 -0.1419 -0.0458 -0.2407
 1585DOPC   PO418594  15.199   6.153  12.424 -0.0399 -0.1674  0.0064
 1585DOPC   GL118595  15.231   6.013  12.792 -0.2010  0.2790  0.2816
 1585DOPC   GL218596  15.552   6.006  12.775  0.3637  0.1537 -0.1046
 1585DOPC   C1A18597  15.086   5.754  13.129  0.2498  0.6232  0.0430
 1585DOPC   D2A18598  14.921   5.756  13.624  0.1973  0.0220 -0.1800
 1585DOPC   C3A18599  14.964   5.437  13.952 -0.0708  0.0112  0.2965
 1585DOPC   C4A18600  15.166   5.237  14.328 -0.3605 -0.0490  0.2224
 1585DOPC   C1B18601  15.550   5.854  13.228 -0.1342  0.0026  0.0668
 1585DOPC   D2B18602  15.528   5.904  13.705  0.2018  0.2024  0.3652
 1585DOPC   C3B18603  15.459   5.604  14.036  0.0330 -0.1135 -0.2030
 1585DOPC   C4B18604  15.466   5.579  14.509  0.2247  0.1254  0.1323
 1586DOPC   NC318605  19.731   0.531  11.973  0.0371 -0.0791 -0.0641
 1586DOPC   PO418606  19.684   0.428  12.385  0.2548 -0.2962 -0.2153
 1586DOPC   GL118607  19.528   0.647  12.635 -0.1198 -0.0135 -0.2521
 1586DOPC   GL218608  19.682   0.893  12.686 -0.0199 -0.1562 -0.0178
 1586DOPC   C1A18609  19.542   0.633  13.090  0.0254 -0.1321  0.0425
 1586DOPC   D2A18610  19.594   0.830  13.497 -0.0282  0.3532  0.2380
 1586DOPC   C3A18611  19.781   1.192  13.758  0.2335 -0.0943 -0.1255
 1586DOPC   C4A18612  20.126   1.449  13.865  0.0459 -0.1925 -0.0798
 1586DOPC   C1B18613  20.143   0.967  12.750  0.1777  0.3513 -0.5106
 1586DOPC   D2B18614  20.452   1.285  12.707 -0.3865  0.0364 -0.1154
 1586DOPC   C3B18615  20.673   1.383  13.080 -0.0904  0.2349  0.2256
 1586DOPC   C4B18616  20.941   1.642  13.304 -0.1578  0.1282 -0.2759
 1587DOPE   NH318617  19.631   7.060  12.482  0.0182  0.1817  0.0209
 1587DOPE   PO418618  19.539   7.199  12.757  0.0635 -0.0825  0.1752
 1587DOPE   GL118619  19.538   7.454  13.053  0.3977  0.4556  0.1565
 1587DOPE   GL218620  19.249   7.465  13.225 -0.4395 -0.1854  0.0312
 1587DOPE   C1A18621  19.712   7.322  13.474 -0.2487  0.1535 -0.0936
 1587DOPE   D2A18622  20.100   7.154  13.664 -0.0902 -0.1301 -0.1769
 1587DOPE   C3A18623  20.115   7.062  14.037  0.1528 -0.2571 -0.0723
 1587DOPE   C4A18624  20.218   6.721  14.304  0.0923  0.0635  0.2388
 1587DOPE   C1B18625  19.217   7.411  13.660 -0.0960 -0.1683 -0.1344
 1587DOPE   D2B18626  19.265   7.355  14.127  0.0282  0.1072 -0.2097
 1587DOPE   C3B18627  19.635   7.280  14.391  0.1237 -0.3974  0.0963
 1587DOPE   C4B18628  19.685   7.536  14.743  0.1662 -0.0132  0.2771
 1588DOPC   NC318629  18.666   6.291  12.827 -0.1660  0.2603 -0.0059
 1588DOPC   PO418630  19.026   6.393  12.651  0.1384  0.2565  0.1374
 1588DOPC   GL118631  19.150   6.384  13.075  0.4328 -0.2265  0.2826
 1588DOPC   GL218632  18.933   6.563  13.175  0.1335  0.0863  0.2142
 1588DOPC   C1A18633  19.559   6.505  13.332  0.1322  0.0627  0.0188
 1588DOPC   D2A18634  19.729   6.782  13.663  0.4043  0.1907  0.3070
 1588DOPC   C3A18635  19.542   7.006  13.987 -0.0309 -0.2112 -0.0578
 1588DOPC   C4A18636  19.279   6.869  14.327  0.2593 -0.0437  0.2909
 1588DOPC   C1B18637  18.629   6.775  13.498 -0.2695  0.1344  0.0284
 1588DOPC   D2B18638  18.469   7.148  13.711  0.1416  0.3676  0.1649
 1588DOPC   C3B18639  18.682   7.395  14.014  0.2829 -0.0285 -0.0013
 1588DOPC   C4B18640  18.796   7.193  14.419 -0.0049 -0.0894 -0.0018
 1589DOPC   NC318641  20.970   7.705  12.447  0.0557 -0.4241  0.2110
 1589DOPC   PO418642  21.357   7.701  12.453  0.2971  0.2500 -0.4573
 1589DOPC   GL118643  21.177   7.902  12.770 -0.2025 -0.0405 -0.0158
 1589DOPC   GL218644  21.236   8.155  12.553  0.3303 -0.3836  0.2341
 1589DOPC   C1A18645  21.187   8.171  13.139  0.2078 -0.1385 -0.2127
 1589DOPC   D2A18646  21.083   8.574  13.381 -0.2364  0.1327  0.2782
 1589DOPC   C3A18647  20.680   8.727  13.399  0.0927  0.3612 -0.1062
 1589DOPC   C4A18648  20.331   8.617  13.672 -0.1158 -0.1022 -0.0743
 1589DOPC   C1B18649  20.936   8.498  12.719  0.2433  0.1259 -0.2040
 1589DOPC   D2B18650  20.947   8.849  12.992 -0.0168  0.2818  0.0125
 1589DOPC   C3B18651  21.014   9.120  13.310  0.0394 -0.3318  0.0561
 1589DOPC   C4B18652  20.949   8.985  13.720  0.0051 -0.0828 -0.0941
 1590DOPS   CNO18653  19.713  11.078  12.248 -0.1825 -0.2149 -0.2508
 1590DOPS   PO418654  19.424  11.332  12.232  0.0664 -0.1839  0.1756
 1590DOPS   GL118655  19.429  11.559  12.637 -0.0719  0.2997 -0.1247
 1590DOPS   GL218656  19.624  11.715  12.714  0.1924  0.1977  0.5636
 1590DOPS   C1A18657  19.299  11.845  13.006 -0.0034 -0.3027 -0.0618
 1590DOPS   D2A18658  19.618  12.007  13.325 -0.0520 -0.5262 -0.0022
 1590DOPS   C3A18659  19.900  11.737  13.558  0.0087 -0.1168 -0.1697
 1590DOPS   C4A18660  20.195  11.506  13.781 -0.0232 -0.4316 -0.0115
 1590DOPS   C1B18661  19.693  11.497  13.087  0.0324  0.0173 -0.0327
 1590DOPS   D2B18662  19.885  11.228  13.418  0.2214  0.1427 -0.0774
 1590DOPS   C3B18663  19.947  10.875  13.782  0.0130 -0.0877  0.2267
 1590DOPS   C4B18664  19.959  10.726  14.263 -0.0211 -0.0330  0.0717
 1591POSM   NC318665  22.479   5.650  13.137  0.0221 -0.1184 -0.2362
 1591POSM   PO418666  22.235   5.965  13.109  0.1481 -0.0433 -0.2507
 1591POSM   AM118667  22.064   5.886  13.358  0.0218  0.1562  0.1695
 1591POSM   AM218668  21.879   5.638  13.359 -0.2906 -0.1095  0.1368
 1591POSM   T1A18669  21.964   5.742  13.827  0.0730  0.1539  0.0180
 1591POSM   C2A18670  21.688   5.638  14.225  0.1689  0.0059  0.0510
 1591POSM   C3A18671  21.406   5.701  14.581 -0.2193  0.1776  0.2743
 1591POSM   C1B18672  21.993   5.317  13.437  0.0685  0.1938  0.0465
 1591POSM   D2B18673  22.323   5.137  13.690  0.1552  0.2055 -0.1770
 1591POSM   C3B18674  22.369   4.922  14.086 -0.0667 -0.1278  0.2395
 1591POSM   C4B18675  22.558   4.637  14.397 -0.2900  0.1177  0.0477
 1592DOPS   CNO18676  18.769   9.896  12.249  0.0459  0.0531  0.2551
 1592DOPS   PO418677  19.042   9.854  12.533 -0.1492 -0.0291 -0.1442
 1592DOPS   GL118678  19.180   9.541  12.733  0.0569  0.2174  0.3590
 1592DOPS   GL218679  19.099   9.581  13.017 -0.0150 -0.0257  0.1844
 1592DOPS   C1A18680  19.552   9.318  12.952  0.3205 -0.2145 -0.2401
 1592DOPS   D2A18681  19.780   8.952  12.890  0.1708 -0.0381  0.0746
 1592DOPS   C3A18682  20.217   8.951  13.100 -0.0697  0.1175  0.0562
 1592DOPS   C4A18683  20.539   9.219  13.294 -0.1576  0.3110  0.1384
 1592DOPS   C1B18684  19.044   9.298  13.356  0.1742 -0.1422 -0.2259
 1592DOPS   D2B18685  19.095   8.909  13.557 -0.0939 -0.1083 -0.1204
 1592DOPS   C3B18686  19.358   9.055  13.887  0.0771  0.1257 -0.1752
 1592DOPS   C4B18687  19.693   9.307  14.141  0.1413 -0.0179 -0.1943
 1593POSM   NC318688  14.091   5.338  12.453 -0.1648 -0.0585  0.1342
 1593POSM   PO418689  13.941   5.626  12.267 -0.2105 -0.1450  0.0208
 1593POSM   AM118690  13.926   5.780  12.550 -0.0401  0.3014 -0.0931
 1593POSM   AM218691  14.018   5.778  12.808  0.0477  0.0559 -0.0894
 1593POSM   T1A18692  13.556   5.970  12.842  0.2507  0.0295 -0.1202
 1593POSM   C2A18693  13.176   6.084  13.130  0.0777 -0.0230 -0.2848
 1593POSM   C3A18694  13.010   5.828  13.460 -0.1429 -0.2118 -0.4487
 1593POSM   C1B18695  14.077   5.520  13.020  0.0488  0.0013 -0.1109
 1593POSM   D2B18696  14.266   5.377  13.444 -0.4092 -0.1803  0.0038
 1593POSM   C3B18697  14.452   5.488  13.860  0.0302  0.2265  0.1276
 1593POSM   C4B18698  14.632   5.684  14.301  0.3247 -0.0930  0.1664
 1594DOPC   NC318699  15.140   8.931  12.693  0.2075  0.2587  0.1280
 1594DOPC   PO418700  15.245   9.033  12.333 -0.0493 -0.0468  0.3275
 1594DOPC   GL118701  15.468   9.256  12.575 -0.3003  0.1368  0.4346
 1594DOPC   GL218702  15.535   9.198  12.873 -0.0136  0.2119 -0.0413
 1594DOPC   C1A18703  15.955   9.287  12.605 -0.0386  0.1194 -0.0145
 1594DOPC   D2A18704  16.298   9.191  12.815 -0.1761  0.0562  0.0206
 1594DOPC   C3A18705  16.426   9.004  13.265  0.0551  0.0052  0.1789
 1594DOPC   C4A18706  16.330   9.175  13.626  0.1474 -0.1236  0.0654
 1594DOPC   C1B18707  15.479   8.767  13.039  0.0026 -0.0731  0.0869
 1594DOPC   D2B18708  15.186   8.456  13.113  0.1110 -0.3251 -0.1104
 1594DOPC   C3B18709  14.732   8.439  13.174  0.1338  0.0393 -0.1876
 1594DOPC   C4B18710  14.537   8.327  13.541  0.2957 -0.3012 -0.2680
 1595DOPC   NC318711  19.821   5.226  12.508  0.0184 -0.0104  0.0752
 1595DOPC   PO418712  20.032   4.963  12.327 -0.3318  0.0535  0.3914
 1595DOPC   GL118713  20.370   5.080  12.554 -0.3602  0.1259  0.2491
 1595DOPC   GL218714  20.531   4.926  12.694 -0.0608 -0.0906 -0.1320
 1595DOPC   C1A18715  20.502   5.484  12.744 -0.2083 -0.1931  0.2224
 1595DOPC   D2A18716  20.430   5.723  13.138 -0.1331  0.2455 -0.0986
 1595DOPC   C3A18717  20.280   5.535  13.528 -0.1194 -0.1248 -0.1477
 1595DOPC   C4A18718  20.147   5.391  13.947 -0.2169 -0.1831 -0.2578
 1595DOPC   C1B18719  20.736   4.547  12.909  0.1817 -0.0144  0.3962
 1595DOPC   D2B18720  20.862   4.249  13.241 -0.2356 -0.1496  0.2985
 1595DOPC   C3B18721  20.678   3.907  13.479 -0.5574 -0.1221 -0.2015
 1595DOPC   C4B18722  20.446   3.538  13.627  0.2334  0.3616  0.0094
 1596DOPC   NC318723  13.713   0.279  12.140 -0.0092  0.0676 -0.1289
 1596DOPC   PO418724  14.021   0.049  12.199  0.0977 -0.1536  0.0134
 1596DOPC   GL118725  13.892   0.078  12.525 -0.3099  0.0616  0.0482
 1596DOPC   GL218726  14.077   0.357  12.572  0.1876 -0.1874 -0.1600
 1596DOPC   C1A18727  13.463   0.325  12.541  0.0011 -0.2120 -0.0114
 1596DOPC   D2A18728  13.205   0.534  12.914 -0.0183 -0.0302  0.0017
 1596DOPC   C3A18729  13.301   0.871  13.213  0.1851  0.2615  0.5103
 1596DOPC   C4A18730  13.217   1.305  13.334  0.0278  0.0027 -0.1873
 1596DOPC   C1B18731  14.198   0.593  12.963  0.3894 -0.0188 -0.5401
 1596DOPC   D2B18732  14.296   0.885  13.322  0.1781 -0.0904  0.0165
 1596DOPC   C3B18733  14.742   0.807  13.481 -0.3599  0.0460  0.1194
 1596DOPC   C4B18734  15.150   0.843  13.714 -0.0928 -0.0453  0.0117
 1597POSM   NC318735  19.223  10.912  12.393 -0.0439  0.2176  0.1098
 1597POSM   PO418736  19.484  10.607  12.379  0.1767  0.0086  0.5595
 1597POSM   AM118737  19.552  10.437  12.654 -0.3403 -0.3129 -0.1744
 1597POSM   AM218738  19.422  10.219  12.797  0.1326 -0.2912 -0.0888
 1597POSM   T1A18739  19.833  10.337  13.037 -0.1058 -0.2793  0.1415
 1597POSM   C2A18740  19.767  10.387  13.517  0.0696 -0.0575 -0.1439
 1597POSM   C3A18741  19.630  10.421  13.919  0.0059  0.0901  0.0717
 1597POSM   C1B18742  19.411  10.159  13.141  0.1579  0.1542 -0.0719
 1597POSM   D2B18743  19.413   9.810  13.400 -0.1706  0.0560  0.1837
 1597POSM   C3B18744  19.108   9.654  13.668 -0.0221 -0.0061 -0.1611
 1597POSM   C4B18745  18.827   9.345  13.883  0.0569  0.0203  0.0091
 1598POSM   NC318746  13.745   3.681  12.263  0.1514 -0.1643  0.0594
 1598POSM   PO418747  13.815   3.340  12.392  0.0233  0.2617 -0.1161
 1598POSM   AM118748  14.096   3.455  12.475 -0.2371 -0.1652 -0.0418
 1598POSM   AM218749  14.320   3.663  12.428  0.2093 -0.0342 -0.0403
 1598POSM   T1A18750  14.603   3.314  12.604  0.0036 -0.0877  0.2733
 1598POSM   C2A18751  14.966   3.060  12.545  0.0018 -0.0435 -0.0405
 1598POSM   C3A18752  15.230   2.671  12.559 -0.3298 -0.0790  0.1720
 1598POSM   C1B18753  14.597   3.818  12.569  0.2429  0.0901 -0.1446
 1598POSM   D2B18754  14.887   3.765  12.870 -0.0583 -0.1622  0.0592
 1598POSM   C3B18755  14.923   3.382  13.154  0.1068  0.1628  0.0378
 1598POSM   C4B18756  15.111   3.158  13.466 -0.0464  0.0895 -0.0330
 1599DOPE   NH318757  17.674   3.995  12.473 -0.0492 -0.0113  0.0490
 1599DOPE   PO418758  17.721   4.036  12.771 -0.0122  0.1263  0.1664
 1599DOPE   GL118759  17.706   4.356  13.011  0.0819  0.0807 -0.1300
 1599DOPE   GL218760  17.406   4.369  13.126 -0.1463  0.2491  0.1618
 1599DOPE   C1A18761  17.751   4.483  13.444  0.0647 -0.0814  0.2285
 1599DOPE   D2A18762  17.687   4.808  13.834 -0.0643  0.1543 -0.1029
 1599DOPE   C3A18763  17.487   5.191  13.778 -0.0675  0.2455 -0.1098
 1599DOPE   C4A18764  17.199   5.601  13.905 -0.0444 -0.3535  0.3041
 1599DOPE   C1B18765  17.277   4.316  13.576  0.1593  0.0756  0.0827
 1599DOPE   D2B18766  17.442   4.432  13.984  0.4275 -0.2472 -0.0950
 1599DOPE   C3B18767  17.308   4.225  14.388  0.2708  0.0439  0.3417
 1599DOPE   C4B18768  16.909   3.968  14.472 -0.0696 -0.0669  0.0028
 1600DOPS   CNO18769  22.589   3.504  11.909 -0.3022 -0.0487 -0.1359
 1600DOPS   PO418770  22.699   3.604  12.272 -0.0800  0.3256  0.1094
 1600DOPS   GL118771  22.534   3.780  12.527 -0.0294 -0.0912 -0.5517
 1600DOPS   GL218772  22.656   3.669  12.799  0.0426  0.0815 -0.1011
 1600DOPS   C1A18773  22.355   4.137  12.631 -0.3550 -0.1230  0.0622
 1600DOPS   D2A18774  22.384   4.595  12.555 -0.3523  0.3688 -0.0272
 1600DOPS   C3A18775  22.602   4.921  12.748  0.0353  0.3915 -0.0822
 1600DOPS   C4A18776  22.814   5.290  12.976  0.3286  0.0666  0.0986
 1600DOPS   C1B18777  22.447   3.677  13.223 -0.0628  0.1577 -0.1186
 1600DOPS   D2B18778  22.404   4.018  13.566 -0.1563 -0.1642  0.2914
 1600DOPS   C3B18779  22.011   4.226  13.597 -0.0207  0.0799 -0.2278
 1600DOPS   C4B18780  21.746   4.374  13.305 -0.4570 -0.3753  0.0796
 1601DOPE   NH318781  23.078  11.151  12.460  0.2996 -0.0997 -0.1403
 1601DOPE   PO418782  23.255  10.881  12.468  0.0105 -0.0243 -0.1190
 1601DOPE   GL118783  23.295  10.803  12.811  0.2380  0.2796  0.0964
 1601DOPE   GL218784  22.954  10.761  12.924 -0.2540  0.0966  0.2373
 1601DOPE   C1A18785  23.302  10.969  13.251  0.0554 -0.0608  0.1648
 1601DOPE   D2A18786  23.639  10.948  13.554  0.0619  0.1188 -0.1151
 1601DOPE   C3A18787  23.977  10.710  13.705 -0.1488  0.0453  0.1962
 1601DOPE   C4A18788  24.394  10.622  13.926 -0.4471  0.0104  0.2468
 1601DOPE   C1B18789  23.060  10.514  13.353  0.1559 -0.1086  0.1964
 1601DOPE   D2B18790  23.468  10.501  13.645 -0.1427  0.1949  0.1228
 1601DOPE   C3B18791  23.574  10.693  14.007 -0.3391  0.1428  0.0862
 1601DOPE   C4B18792  23.834  11.005  14.156  0.2013  0.1076 -0.0155
 1602DOPC   NC318793  12.779   5.926  12.313  0.0056 -0.0827  0.1076
 1602DOPC   PO418794  12.935   6.218  12.140 -0.0935 -0.0216 -0.0854
 1602DOPC   GL118795  12.575   6.275  12.344 -0.2483 -0.3242 -0.0451
 1602DOPC   GL218796  12.361   6.312  12.163  0.0128  0.2965 -0.0394
 1602DOPC   C1A18797  12.316   6.388  12.710  0.2931 -0.0985  0.3823
 1602DOPC   D2A18798  12.436   6.485  13.153  0.1401 -0.2711 -0.4794
 1602DOPC   C3A18799  12.690   6.136  13.224  0.0519 -0.0508  0.0171
 1602DOPC   C4A18800  12.575   5.730  13.367 -0.1997 -0.1691 -0.0462
 1602DOPC   C1B18801  12.126   5.903  12.156 -0.0673 -0.1615  0.1940
 1602DOPC   D2B18802  11.939   5.537  12.389 -0.1465  0.2036  0.2024
 1602DOPC   C3B18803  11.907   5.475  12.839  0.2088  0.1325  0.0877
 1602DOPC   C4B18804  12.122   5.402  13.263 -0.3463 -0.1961 -0.1765
 1603DOPC   NC318805  16.757   2.603  11.671  0.0985 -0.1481  0.0464
 1603DOPC   PO418806  16.718   2.885  11.897 -0.2519 -0.1341  0.1338
 1603DOPC   GL118807  16.498   3.008  12.270 -0.1517  0.3010 -0.0120
 1603DOPC   GL218808  16.536   3.297  12.379 -0.1184 -0.1612  0.1005
 1603DOPC   C1A18809  16.063   3.048  12.367 -0.0647  0.2134  0.0707
 1603DOPC   D2A18810  15.708   2.781  12.476  0.0452 -0.2280  0.0475
 1603DOPC   C3A18811  15.611   2.586  12.956  0.1270  0.2252 -0.2356
 1603DOPC   C4A18812  15.413   2.703  13.411 -0.1291 -0.2503  0.3106
 1603DOPC   C1B18813  16.288   3.221  12.769 -0.0532 -0.1084 -0.0260
 1603DOPC   D2B18814  15.839   3.050  12.906 -0.0657  0.1843 -0.1363
 1603DOPC   C3B18815  15.382   3.054  12.880 -0.2512  0.2278  0.0690
 1603DOPC   C4B18816  15.025   2.849  13.034 -0.0053 -0.2448 -0.1879
 1604POSM   NC318817  22.727   6.880  12.469  0.0108  0.1294  0.1267
 1604POSM   PO418818  22.723   6.625  12.748  0.1958  0.3408  0.1651
 1604POSM   AM118819  22.648   6.656  13.057  0.1189 -0.1165  0.2416
 1604POSM   AM218820  22.436   6.731  13.242 -0.4430 -0.2879  0.3744
 1604POSM   T1A18821  22.618   6.329  13.517  0.1154 -0.0667 -0.2821
 1604POSM   C2A18822  22.424   5.998  13.711 -0.4449  0.0936 -0.1283
 1604POSM   C3A18823  22.483   5.607  13.923 -0.0494  0.2329  0.0639
 1604POSM   C1B18824  22.452   6.775  13.589 -0.2398  0.2210  0.2584
 1604POSM   D2B18825  22.424   6.550  13.976  0.0827  0.1623  0.2917
 1604POSM   C3B18826  22.729   6.192  14.057 -0.1550  0.1729 -0.0880
 1604POSM   C4B18827  23.092   5.931  14.217  0.0985 -0.1941 -0.0179
 1605POSM   NC318828  12.184   8.719  12.520 -0.0098 -0.0501 -0.0734
 1605POSM   PO418829  12.016   9.082  12.410  0.3290 -0.2528 -0.3324
 1605POSM   AM118830  12.138   9.169  12.705 -0.2163  0.2008 -0.1281
 1605POSM   AM218831  12.221   9.361  12.891 -0.3317  0.0725 -0.0324
 1605POSM   T1A18832  12.082   8.901  13.105  0.0593  0.0134 -0.1902
 1605POSM   C2A18833  12.096   8.782  13.499  0.4794  0.1762  0.2829
 1605POSM   C3A18834  12.040   8.334  13.525  0.2520  0.0011 -0.2238
 1605POSM   C1B18835  12.543   9.496  12.951  0.0860 -0.0900  0.0113
 1605POSM   D2B18836  12.807   9.808  13.157  0.0933 -0.1303 -0.0368
 1605POSM   C3B18837  12.887   9.893  13.657  0.1492 -0.1254  0.3213
 1605POSM   C4B18838  12.893   9.939  14.112  0.2050  0.5239 -0.0796
 1606DOPS   CNO18839  18.660   3.054  12.403 -0.1464 -0.0162  0.0525
 1606DOPS   PO418840  18.381   2.972  12.613  0.1378  0.0872  0.3972
 1606DOPS   GL118841  18.401   2.772  12.906 -0.1253  0.1333  0.4581
 1606DOPS   GL218842  18.494   2.483  12.922  0.0294 -0.3332 -0.0170
 1606DOPS   C1A18843  18.714   2.778  13.244  0.1835 -0.1719 -0.0196
 1606DOPS   D2A18844  19.043   2.998  13.531  0.1463 -0.1200 -0.3150
 1606DOPS   C3A18845  19.385   2.733  13.599 -0.0421 -0.2664 -0.0653
 1606DOPS   C4A18846  19.418   2.274  13.512  0.1378 -0.0505 -0.0929
 1606DOPS   C1B18847  18.693   2.085  13.054  0.4446 -0.1294  0.1971
 1606DOPS   D2B18848  19.066   1.978  13.361 -0.3176 -0.1948  0.3544
 1606DOPS   C3B18849  19.444   1.747  13.344 -0.0669  0.0855 -0.3079
 1606DOPS   C4B18850  19.764   1.678  13.682  0.2090 -0.1699  0.1267
 1607POSM   NC318851  15.073   0.318  12.454  0.0521 -0.2673 -0.2612
 1607POSM   PO418852  14.779   0.113  12.314  0.0232 -0.0495  0.0608
 1607POSM   AM118853  14.618  -0.030  12.545 -0.0528  0.1439 -0.0078
 1607POSM   AM218854  14.375  -0.179  12.472  0.0072 -0.0083  0.0456
 1607POSM   T1A18855  14.348   0.105  12.951  0.1924  0.1205  0.0099
 1607POSM   C2A18856  13.842   0.247  13.039 -0.0909  0.0500  0.2312
 1607POSM   C3A18857  13.477   0.151  13.318 -0.0611 -0.0277  0.3706
 1607POSM   C1B18858  14.217  -0.366  12.656  0.0554 -0.0065 -0.0776
 1607POSM   D2B18859  14.032  -0.702  12.905 -0.0449 -0.2516  0.1790
 1607POSM   C3B18860  14.207  -0.821  13.280 -0.1970  0.1622  0.0519
 1607POSM   C4B18861  14.320  -1.144  13.638 -0.3483 -0.3101 -0.1617
 1608DOPE   NH318862  18.028  10.277  12.398  0.1340  0.1173  0.1239
 1608DOPE   PO418863  17.897  10.289  12.149  0.2443  0.0723 -0.2860
 1608DOPE   GL118864  17.564   9.936  12.107 -0.3313 -0.0404  0.2707
 1608DOPE   GL218865  17.438   9.863  12.292  0.0559  0.1064 -0.0106
 1608DOPE   C1A18866  17.556   9.523  11.971  0.0179 -0.1122 -0.0137
 1608DOPE   D2A18867  17.310   9.113  11.893 -0.1750  0.2383  0.0539
 1608DOPE   C3A18868  16.931   9.185  12.162 -0.1918  0.1472  0.4755
 1608DOPE   C4A18869  16.555   9.069  12.375  0.0845 -0.4047  0.1475
 1608DOPE   C1B18870  16.992   9.761  12.267  0.0527 -0.3027  0.0420
 1608DOPE   D2B18871  16.559   9.544  12.154  0.0221  0.0747  0.2493
 1608DOPE   C3B18872  16.332   9.838  11.839  0.1032 -0.1214  0.1295
 1608DOPE   C4B18873  16.055  10.259  12.050  0.0048 -0.2641 -0.2855
 1609DOPE   NH318874  13.831   1.394  11.450  0.0242  0.2451 -0.1350
 1609DOPE   PO418875  14.141   1.351  11.574  0.0489 -0.1344  0.1753
 1609DOPE   GL118876  14.040   1.363  12.005  0.0830  0.1713 -0.1764
 1609DOPE   GL218877  14.152   1.110  12.059  0.0709 -0.0519 -0.5575
 1609DOPE   C1A18878  14.176   1.656  12.332  0.0733  0.4806 -0.3714
 1609DOPE   D2A18879  14.203   2.079  12.455  0.2151  0.0974 -0.4766
 1609DOPE   C3A18880  14.319   2.406  12.742  0.0838 -0.4937  0.1831
 1609DOPE   C4A18881  14.625   2.796  12.757 -0.1370 -0.0921 -0.1955
 1609DOPE   C1B18882  14.106   1.205  12.510  0.1069 -0.0749 -0.0116
 1609DOPE   D2B18883  13.941   1.159  12.906  0.0109 -0.0167  0.2749
 1609DOPE   C3B18884  13.900   1.453  13.235  0.2278 -0.1132 -0.1422
 1609DOPE   C4B18885  13.809   1.867  13.400  0.0777  0.1260 -0.2517
 1610DOPE   NH318886  14.430   0.358  12.047  0.0575 -0.2086  0.2140
 1610DOPE   PO418887  14.363   0.582  12.204 -0.2120  0.1834  0.0259
 1610DOPE   GL118888  14.557   0.928  12.312  0.1944 -0.2737  0.2032
 1610DOPE   GL218889  14.454   0.893  12.622  0.0926  0.0793 -0.3056
 1610DOPE   C1A18890  14.548   1.404  12.457 -0.2706 -0.3561 -0.2762
 1610DOPE   D2A18891  14.627   1.815  12.671 -0.3536  0.2499  0.2011
 1610DOPE   C3A18892  14.683   1.907  13.140  0.0587  0.0138  0.1691
 1610DOPE   C4A18893  14.842   2.048  13.552 -0.2238 -0.0956  0.2214
 1610DOPE   C1B18894  14.412   1.246  12.963 -0.1412  0.0968  0.1981
 1610DOPE   D2B18895  14.253   1.667  12.914 -0.0678 -0.0433  0.0848
 1610DOPE   C3B18896  14.161   2.106  13.093  0.1175 -0.1228 -0.0200
 1610DOPE   C4B18897  14.110   2.295  13.514 -0.2138 -0.1597  0.1863
 1611DOPS   CNO18898  15.624   0.421  12.211  0.0504 -0.3855 -0.0292
 1611DOPS   PO418899  15.777   0.636  11.902 -0.2721  0.0880 -0.1005
 1611DOPS   GL118900  16.032   0.629  12.244 -0.1257  0.1710  0.0891
 1611DOPS   GL218901  16.039   0.365  12.419 -0.1329 -0.1577  0.1641
 1611DOPS   C1A18902  15.998   0.909  12.629  0.1284  0.0322  0.0425
 1611DOPS   D2A18903  15.890   1.059  13.058  0.0623  0.1525 -0.1816
 1611DOPS   C3A18904  15.853   0.671  13.322 -0.2486  0.1160  0.1620
 1611DOPS   C4A18905  15.839   0.393  13.697 -0.1758  0.5330  0.0243
 1611DOPS   C1B18906  16.431   0.642  12.503  0.2499 -0.3338  0.0893
 1611DOPS   D2B18907  16.651   0.907  12.816 -0.0457  0.0982  0.2629
 1611DOPS   C3B18908  16.410   0.999  13.199  0.0189 -0.0797  0.0380
 1611DOPS   C4B18909  16.439   0.919  13.630  0.0441  0.1692  0.1967
 1612POSM   NC318910  18.134   3.210  12.303  0.2895 -0.0248  0.0287
 1612POSM   PO418911  18.025   3.599  12.358 -0.1064  0.1090  0.2554
 1612POSM   AM118912  18.025   3.551  12.718  0.1472 -0.4346  0.2332
 1612POSM   AM218913  17.972   3.674  12.955  0.2833 -0.2168  0.0843
 1612POSM   T1A18914  18.296   3.334  13.103  0.0804  0.0644  0.1207
 1612POSM   C2A18915  18.646   3.279  13.369 -0.3530 -0.0322 -0.2485
 1612POSM   C3A18916  18.939   3.446  13.810  0.1360  0.0919  0.1341
 1612POSM   C1B18917  18.056   3.689  13.330 -0.4056 -0.0926  0.0310
 1612POSM   D2B18918  17.827   3.540  13.734 -0.0540 -0.4868  0.2449
 1612POSM   C3B18919  17.340   3.516  13.725  0.1468  0.2285  0.1738
 1612POSM   C4B18920  17.154   3.114  13.878  0.1605  0.1052  0.2713
 1613POSM   NC318921  22.080   6.051  12.558 -0.3401  0.3064  0.3424
 1613POSM   PO418922  21.743   5.846  12.507 -0.2157 -0.0327 -0.2819
 1613POSM   AM118923  21.574   5.727  12.755 -0.0272 -0.0176 -0.3098
 1613POSM   AM218924  21.375   5.801  12.968  0.0076  0.3236  0.1619
 1613POSM   T1A18925  21.504   5.333  13.070  0.0166  0.1166  0.2771
 1613POSM   C2A18926  21.478   5.159  13.530 -0.2827 -0.1053  0.2003
 1613POSM   C3A18927  21.755   5.203  13.932 -0.3268 -0.2143  0.1080
 1613POSM   C1B18928  21.297   5.762  13.322 -0.1401  0.0072 -0.1300
 1613POSM   D2B18929  21.450   5.615  13.680 -0.2979 -0.1425  0.0045
 1613POSM   C3B18930  21.229   5.779  14.070  0.2597 -0.3015  0.0422
 1613POSM   C4B18931  21.143   6.073  14.357 -0.0699 -0.0827  0.3046
 1614DOPE   NH318932  18.949   2.463  12.280 -0.1968  0.1462 -0.1385
 1614DOPE   PO418933  18.677   2.541  12.471  0.0190  0.0945 -0.0387
 1614DOPE   GL118934  18.906   2.780  12.786  0.1929  0.3314  0.0311
 1614DOPE   GL218935  19.095   2.840  12.543  0.0672  0.0066  0.1528
 1614DOPE   C1A18936  19.269   2.857  13.158 -0.1383 -0.1660 -0.0122
 1614DOPE   D2A18937  19.641   3.049  13.180  0.1491  0.0768 -0.3304
 1614DOPE   C3A18938  19.730   3.091  13.612 -0.1155  0.1483 -0.1233
 1614DOPE   C4A18939  19.897   3.040  14.014  0.0905 -0.2110 -0.0386
 1614DOPE   C1B18940  19.551   2.853  12.691  0.1978 -0.0456 -0.0077
 1614DOPE   D2B18941  19.948   2.689  12.647  0.1082 -0.0228 -0.1879
 1614DOPE   C3B18942  20.148   2.903  13.002 -0.1857 -0.1126 -0.1664
 1614DOPE   C4B18943  20.209   3.242  13.321 -0.0855  0.0963  0.1683
 1615DOPS   CNO18944  12.250  10.979  12.219 -0.0400 -0.1458 -0.1172
 1615DOPS   PO418945  12.433  10.860  12.529  0.0214 -0.1130  0.2342
 1615DOPS   GL118946  12.605  10.875  12.950  0.2068 -0.2385 -0.0930
 1615DOPS   GL218947  12.759  10.610  13.021  0.0945 -0.0952 -0.0090
 1615DOPS   C1A18948  12.687  11.044  13.372 -0.1184  0.0837  0.0189
 1615DOPS   D2A18949  12.381  11.284  13.644 -0.2166  0.0562  0.1296
 1615DOPS   C3A18950  12.550  11.305  14.078 -0.0417 -0.2740 -0.0848
 1615DOPS   C4A18951  12.704  11.410  14.529  0.0899 -0.0112 -0.0954
 1615DOPS   C1B18952  13.013  10.639  13.431 -0.2193  0.1937  0.0718
 1615DOPS   D2B18953  13.115  10.364  13.741  0.0113  0.1957  0.2538
 1615DOPS   C3B18954  12.656  10.403  13.921  0.1542  0.2068  0.3169
 1615DOPS   C4B18955  12.374  10.022  13.845  0.1801 -0.0091 -0.2947
 1616DOPE   NH318956  18.418   7.061  12.630  0.0851 -0.1843  0.0131
 1616DOPE   PO418957  18.608   7.217  12.446 -0.1290  0.0958 -0.4039
 1616DOPE   GL118958  18.667   7.596  12.680  0.1143 -0.4497 -0.1413
 1616DOPE   GL218959  18.461   7.457  12.906 -0.2579  0.1274 -0.0030
 1616DOPE   C1A18960  18.788   8.078  12.586  0.3036 -0.1355 -0.0603
 1616DOPE   D2A18961  19.250   8.149  12.421 -0.0620 -0.1845 -0.0609
 1616DOPE   C3A18962  19.637   8.208  12.714  0.2774  0.0985  0.2197
 1616DOPE   C4A18963  19.953   8.540  12.733  0.3232  0.3191  0.0270
 1616DOPE   C1B18964  18.295   7.603  13.295  0.3654  0.1490 -0.1279
 1616DOPE   D2B18965  18.001   7.512  13.662 -0.0261  0.0883 -0.5120
 1616DOPE   C3B18966  18.147   7.375  14.055  0.1970  0.0581  0.3982
 1616DOPE   C4B18967  18.268   7.299  14.484  0.2106  0.0494 -0.0583
 1617POSM   NC318968  11.289   2.403  11.449 -0.1660  0.3611 -0.3817
 1617POSM   PO418969  11.231   1.993  11.305  0.2412  0.0364 -0.0399
 1617POSM   AM118970  11.468   1.908  11.494 -0.3059 -0.2974 -0.0428
 1617POSM   AM218971  11.419   1.766  11.743 -0.2134 -0.0744  0.2008
 1617POSM   T1A18972  11.926   1.840  11.701 -0.0137 -0.1214 -0.0664
 1617POSM   C2A18973  12.355   1.660  11.682 -0.1303 -0.0262  0.0403
 1617POSM   C3A18974  12.736   1.428  11.528  0.3925  0.1181  0.0586
 1617POSM   C1B18975  11.295   1.655  12.064  0.1787 -0.1398  0.1877
 1617POSM   D2B18976  11.128   1.538  12.393 -0.0561 -0.0264 -0.1297
 1617POSM   C3B18977  10.853   1.592  12.802  0.1429 -0.1651  0.3960
 1617POSM   C4B18978  10.464   1.656  13.044  0.0811 -0.3530 -0.2623
 1618POSM   NC318979  11.914  10.962  12.593  0.0935 -0.0561 -0.0783
 1618POSM   PO418980  12.082  11.333  12.511  0.2511  0.1168 -0.0153
 1618POSM   AM118981  12.286  11.205  12.718  0.1212 -0.3444 -0.0692
 1618POSM   AM218982  12.387  11.312  12.920 -0.2487 -0.2827  0.2641
 1618POSM   T1A18983  12.187  10.896  13.136 -0.0514 -0.1613  0.0742
 1618POSM   C2A18984  12.416  10.707  13.472 -0.1010 -0.1281 -0.0545
 1618POSM   C3A18985  12.638  10.270  13.422 -0.2447  0.5303  0.3668
 1618POSM   C1B18986  12.250  11.537  13.184 -0.2098  0.1731 -0.4321
 1618POSM   D2B18987  12.057  11.667  13.586  0.0187 -0.0914 -0.1366
 1618POSM   C3B18988  12.111  11.626  14.052 -0.1357 -0.0342  0.2136
 1618POSM   C4B18989  12.179  11.574  14.479 -0.1570  0.1145 -0.2617
 1619DOPC   NC318990  15.188   8.885  11.862  0.1031  0.2262 -0.1594
 1619DOPC   PO418991  15.569   8.762  11.895 -0.2261 -0.1924 -0.0480
 1619DOPC   GL118992  15.480   8.397  12.165  0.0068 -0.0095  0.5715
 1619DOPC   GL218993  15.477   8.568  12.393  0.0571  0.0875  0.0422
 1619DOPC   C1A18994  15.531   8.122  12.518  0.1776  0.0017  0.0284
 1619DOPC   D2A18995  15.534   8.114  13.018 -0.0352 -0.3964 -0.0055
 1619DOPC   C3A18996  15.852   8.333  13.131 -0.2686  0.0206 -0.0770
 1619DOPC   C4A18997  16.282   8.456  13.232  0.4767  0.1678 -0.2699
 1619DOPC   C1B18998  15.832   8.732  12.702 -0.2395 -0.1229 -0.1692
 1619DOPC   D2B18999  16.021   8.884  13.097 -0.0855 -0.1661  0.1058
 1619DOPC   C3B19000  15.905   8.715  13.457  0.1332  0.2966 -0.0862
 1619DOPC   C4B19001  15.963   8.430  13.749 -0.0686  0.2939 -0.3283
 1620POSM   NC319002  12.352   7.043  12.109  0.1100 -0.1148 -0.3437
 1620POSM   PO419003  12.047   7.214  12.291 -0.2939  0.0470 -0.1044
 1620POSM   AM119004  11.899   7.213  12.592 -0.1217  0.0315  0.0977
 1620POSM   AM219005  11.772   7.433  12.728  0.0062  0.0613  0.2581
 1620POSM   T1A19006  11.681   7.083  13.041 -0.1052  0.1116 -0.1222
 1620POSM   C2A19007  11.697   6.820  13.441  0.1974  0.0406  0.0543
 1620POSM   C3A19008  12.037   6.477  13.538 -0.1418 -0.1404  0.1876
 1620POSM   C1B19009  11.718   7.540  12.982  0.0809 -0.0214  0.1600
 1620POSM   D2B19010  11.465   7.526  13.331 -0.0702 -0.0615  0.3457
 1620POSM   C3B19011  11.281   7.798  13.619  0.1560 -0.0642 -0.0821
 1620POSM   C4B19012  10.986   7.749  13.908  0.0575 -0.2993  0.1345
 1621DOPE   NH319013  16.493   2.224  12.039 -0.3408 -0.0229  0.1188
 1621DOPE   PO419014  16.454   2.541  12.138 -0.1496  0.2541  0.0291
 1621DOPE   GL119015  16.647   2.540  12.574 -0.0689 -0.2664  0.3520
 1621DOPE   GL219016  16.419   2.763  12.629 -0.1183 -0.1397 -0.4226
 1621DOPE   C1A19017  16.533   2.311  12.960  0.1904 -0.0219 -0.4103
 1621DOPE   D2A19018  16.429   2.168  13.403 -0.2479 -0.1529  0.0334
 1621DOPE   C3A19019  16.334   2.044  13.846  0.3481  0.0158  0.0269
 1621DOPE   C4A19020  16.093   1.967  14.228  0.1419  0.0579 -0.0490
 1621DOPE   C1B19021  16.148   2.650  12.961 -0.1379  0.2875  0.4960
 1621DOPE   D2B19022  15.947   2.783  13.352 -0.1154  0.0300  0.2013
 1621DOPE   C3B19023  15.731   3.211  13.378 -0.1824 -0.1194  0.0670
 1621DOPE   C4B19024  15.771   3.327  13.829  0.0615  0.0194 -0.2102
 1622DOPS   CNO19025  14.409   5.854  12.082 -0.0591 -0.4510 -0.1867
 1622DOPS   PO419026  14.421   5.739  12.442  0.0105 -0.1575  0.4708
 1622DOPS   GL119027  14.571   5.654  12.712 -0.2419  0.1625  0.0811
 1622DOPS   GL219028  14.700   5.905  12.829  0.3779 -0.2747 -0.1299
 1622DOPS   C1A19029  14.693   5.459  13.097  0.2208 -0.1181 -0.1182
 1622DOPS   D2A19030  14.778   5.091  13.318  0.3579 -0.1341 -0.3063
 1622DOPS   C3A19031  14.415   4.914  13.615  0.0709 -0.3665 -0.0618
 1622DOPS   C4A19032  13.979   4.757  13.672 -0.0188  0.2493 -0.0897
 1622DOPS   C1B19033  14.578   6.141  13.214  0.1300  0.1356  0.2901
 1622DOPS   D2B19034  14.753   6.377  13.587  0.1581  0.2715  0.1371
 1622DOPS   C3B19035  14.603   6.480  13.996  0.1198  0.0742 -0.0457
 1622DOPS   C4B19036  14.693   6.192  14.355  0.2629  0.3762  0.6282
 1623DOPC   NC319037  13.691   7.009  12.274 -0.0216  0.0306  0.0181
 1623DOPC   PO419038  14.007   6.822  12.110 -0.0559 -0.2123  0.1083
 1623DOPC   GL119039  14.204   6.954  12.447 -0.0262  0.4047 -0.4072
 1623DOPC   GL219040  14.049   7.296  12.462  0.1231 -0.0254  0.0157
 1623DOPC   C1A19041  14.324   6.640  12.760  0.0352 -0.0316 -0.0688
 1623DOPC   D2A19042  14.655   6.612  13.110 -0.1085 -0.2172 -0.3414
 1623DOPC   C3A19043  14.579   6.836  13.554  0.1603 -0.1476 -0.1750
 1623DOPC   C4A19044  14.514   7.235  13.805  0.0787  0.0172 -0.3376
 1623DOPC   C1B19045  14.075   7.444  12.906  0.1822 -0.0192  0.1119
 1623DOPC   D2B19046  14.190   7.467  13.356  0.0691 -0.0473  0.1770
 1623DOPC   C3B19047  14.093   7.130  13.655 -0.0561 -0.0068  0.1544
 1623DOPC   C4B19048  14.104   6.698  13.675  0.1198  0.2959 -0.2692
 1624DOPC   NC319049  19.734  10.690  11.958 -0.0091  0.0415  0.3651
 1624DOPC   PO419050  19.726  10.330  12.009 -0.1805  0.0421 -0.1589
 1624DOPC   GL119051  19.826  10.078  12.275 -0.0704  0.0644  0.3198
 1624DOPC   GL219052  19.878   9.836  12.066 -0.0155 -0.0777  0.1375
 1624DOPC   C1A19053  20.130   9.833  12.526 -0.0056  0.1285 -0.0486
 1624DOPC   D2A19054  20.251   9.548  12.852  0.4542 -0.3828  0.0492
 1624DOPC   C3A19055  20.009   9.355  13.204 -0.0406 -0.0297 -0.1573
 1624DOPC   C4A19056  19.877   9.342  13.626 -0.1111  0.2529 -0.0150
 1624DOPC   C1B19057  20.130   9.431  12.148 -0.0794 -0.1207 -0.1801
 1624DOPC   D2B19058  20.456   9.285  12.428  0.0151 -0.2043  0.0530
 1624DOPC   C3B19059  20.549   8.967  12.697  0.2561 -0.0241  0.0847
 1624DOPC   C4B19060  20.462   8.496  12.725 -0.0407  0.3754  0.0818
 1625DOPC   NC319061  13.984   4.400  11.805  0.2890 -0.0428  0.0494
 1625DOPC   PO419062  13.849   4.760  11.903  0.3020 -0.0140  0.1069
 1625DOPC   GL119063  13.720   4.939  12.302  0.3066 -0.0743 -0.0239
 1625DOPC   GL219064  13.587   5.237  12.308 -0.1363  0.0424 -0.2301
 1625DOPC   C1A19065  13.830   4.877  12.735  0.2236 -0.1248 -0.0899
 1625DOPC   D2A19066  13.715   5.092  13.114 -0.1036 -0.0058 -0.0408
 1625DOPC   C3A19067  13.841   5.182  13.542 -0.0504 -0.0507 -0.0772
 1625DOPC   C4A19068  14.079   5.123  13.947 -0.2002  0.1879  0.1274
 1625DOPC   C1B19069  13.568   5.348  12.726  0.0482 -0.2421 -0.2910
 1625DOPC   D2B19070  13.418   5.506  13.123 -0.0659 -0.0843  0.1453
 1625DOPC   C3B19071  13.726   5.742  13.342 -0.0926  0.1967 -0.0010
 1625DOPC   C4B19072  14.165   5.846  13.557  0.1762  0.1014  0.1791
 1626DOPS   CNO19073  17.929   7.611  12.047 -0.4393 -0.1593 -0.2793
 1626DOPS   PO419074  17.766   7.804  12.296  0.2397  0.0098  0.1948
 1626DOPS   GL119075  17.574   7.885  12.606  0.0480  0.1460  0.0931
 1626DOPS   GL219076  17.586   8.195  12.558  0.0597  0.2724 -0.0742
 1626DOPS   C1A19077  17.537   8.103  13.005  0.4754  0.0859 -0.0608
 1626DOPS   D2A19078  17.300   8.214  13.386 -0.1559 -0.3305  0.1465
 1626DOPS   C3A19079  17.562   8.366  13.728 -0.0879 -0.1941 -0.0440
 1626DOPS   C4A19080  17.659   8.157  14.110 -0.1542  0.3236 -0.0924
 1626DOPS   C1B19081  17.590   8.620  12.780  0.1204 -0.1819  0.1095
 1626DOPS   D2B19082  17.746   9.070  12.757 -0.0480  0.2087 -0.2896
 1626DOPS   C3B19083  17.575   9.367  13.070 -0.1793  0.0926 -0.0531
 1626DOPS   C4B19084  17.515   9.823  13.003 -0.0828 -0.0628  0.1476
 1627POSM   NC319085  14.036  34.529  11.689 -0.0457 -0.0974 -0.2301
 1627POSM   PO419086  13.626  34.617  11.762  0.0330 -0.5115  0.1340
 1627POSM   AM119087  13.374  34.599  11.964 -0.2475 -0.0535 -0.0482
 1627POSM   AM219088  13.191  34.736  12.113  0.0793  0.0252 -0.1482
 1627POSM   T1A19089  13.359  34.331  12.447  0.1417 -0.1839  0.2871
 1627POSM   C2A19090  13.701  34.430  12.705  0.4361  0.0693 -0.1016
 1627POSM   C3A19091  13.747  34.345  13.145  0.3830 -0.1179 -0.0989
 1627POSM   C1B19092  13.075  34.739  12.419 -0.1273  0.2196  0.0680
 1627POSM   D2B19093  13.142  34.674  12.832 -0.2747  0.3881  0.2946
 1627POSM   C3B19094  12.877  34.667  13.222  0.2710  0.0322 -0.2122
 1627POSM   C4B19095  12.474  34.658  13.439 -0.0047 -0.1072 -0.0112
 1628POSM   NC319096  17.629  11.056  11.869 -0.0592 -0.2047 -0.4017
 1628POSM   PO419097  17.520  10.726  12.051  0.0179  0.1691 -0.2911
 1628POSM   AM119098  17.516  10.488  12.282 -0.3748  0.2212 -0.0513
 1628POSM   AM219099  17.616  10.472  12.546 -0.2669  0.0160 -0.1495
 1628POSM   T1A19100  17.258  10.169  12.635  0.0933  0.2911 -0.2016
 1628POSM   C2A19101  16.975   9.835  12.754  0.4233  0.1158  0.1813
 1628POSM   C3A19102  16.707   9.461  12.685 -0.1206 -0.1948 -0.0973
 1628POSM   C1B19103  17.654  10.390  12.852 -0.1557 -0.1370  0.1340
 1628POSM   D2B19104  17.695  10.195  13.271 -0.1003  0.2013  0.2623
 1628POSM   C3B19105  17.512  10.501  13.636 -0.1149  0.3461 -0.0079
 1628POSM   C4B19106  17.373  10.859  13.870 -0.3200 -0.0966  0.1398
 1629DOPE   NH319107  11.496   6.559  11.842 -0.0139 -0.2623 -0.3541
 1629DOPE   PO419108  11.385   6.634  12.164  0.4872 -0.1514 -0.1189
 1629DOPE   GL119109  11.281   6.642  12.599 -0.0917  0.0687 -0.1310
 1629DOPE   GL219110  11.443   6.415  12.637  0.1996 -0.0748 -0.1080
 1629DOPE   C1A19111  10.961   6.374  12.804  0.0827 -0.0811 -0.0311
 1629DOPE   D2A19112  10.879   5.949  13.092 -0.0370  0.0387 -0.1215
 1629DOPE   C3A19113  10.676   5.521  13.011  0.2439  0.0783 -0.1194
 1629DOPE   C4A19114  10.348   5.206  13.026 -0.0323  0.0370 -0.1859
 1629DOPE   C1B19115  11.531   6.153  13.025 -0.1503 -0.0074 -0.2739
 1629DOPE   D2B19116  11.423   6.090  13.445 -0.0716  0.1929  0.0705
 1629DOPE   C3B19117  11.533   6.263  13.811  0.3841  0.2401 -0.1183
 1629DOPE   C4B19118  11.906   6.462  14.011 -0.1387 -0.2296  0.2627
 1630DOPC   NC319119  17.071  34.586  12.396  0.3387 -0.1075 -0.2706
 1630DOPC   PO419120  16.749  34.513  12.214 -0.1143 -0.6597 -0.0210
 1630DOPC   GL119121  16.584  34.340  12.563  0.2623  0.0001 -0.2230
 1630DOPC   GL219122  16.600  34.044  12.476 -0.0562 -0.0486  0.4081
 1630DOPC   C1A19123  16.850  34.505  12.885  0.4774  0.2308  0.0782
 1630DOPC   D2A19124  17.024  34.578  13.348  0.3385 -0.1042  0.4640
 1630DOPC   C3A19125  16.910  34.190  13.638 -0.2260 -0.0770  0.1513
 1630DOPC   C4A19126  16.604  33.842  13.750  0.1601  0.1232  0.0878
 1630DOPC   C1B19127  16.618  34.015  12.921 -0.3276  0.0870  0.0398
 1630DOPC   D2B19128  16.371  33.644  13.146 -0.1035 -0.0868 -0.1712
 1630DOPC   C3B19129  15.995  33.723  13.322 -0.0227 -0.2280 -0.0807
 1630DOPC   C4B19130  15.647  33.736  13.635 -0.0444  0.3806  0.1902
 1631POSM   NC319131  22.191   3.220  11.870 -0.0594  0.0582  0.1005
 1631POSM   PO419132  21.961   2.952  12.077 -0.0485  0.2827  0.2266
 1631POSM   AM119133  21.849   3.100  12.348  0.5315 -0.2107  0.1976
 1631POSM   AM219134  21.896   3.040  12.607 -0.2800 -0.1036 -0.4176
 1631POSM   T1A19135  21.398   3.223  12.573  0.3393 -0.0867 -0.2994
 1631POSM   C2A19136  21.176   3.267  12.956 -0.0146 -0.3063 -0.1280
 1631POSM   C3A19137  21.113   3.226  13.411 -0.0056  0.0013 -0.1505
 1631POSM   C1B19138  22.007   3.139  12.905  0.1765  0.1189  0.0031
 1631POSM   D2B19139  22.110   3.296  13.316 -0.3614  0.2482  0.2404
 1631POSM   C3B19140  22.386   3.473  13.676 -0.2745  0.1612  0.1578
 1631POSM   C4B19141  22.752   3.767  13.855 -0.2217  0.1511  0.4179
 1632POSM   NC319142  17.549   7.303  12.227 -0.4030  0.1436  0.0554
 1632POSM   PO419143  17.488   7.021  12.514 -0.1936 -0.0802  0.0928
 1632POSM   AM119144  17.221   6.966  12.749 -0.0973  0.1550 -0.0915
 1632POSM   AM219145  16.998   7.126  12.836  0.3499  0.0906 -0.1689
 1632POSM   T1A19146  17.130   6.872  13.274  0.0325 -0.1044 -0.1821
 1632POSM   C2A19147  17.053   7.180  13.596 -0.0654  0.2759 -0.0057
 1632POSM   C3A19148  16.824   7.303  13.968  0.1208 -0.1631 -0.0892
 1632POSM   C1B19149  17.136   7.304  13.087  0.1687  0.0722  0.2962
 1632POSM   D2B19150  17.178   7.748  13.291  0.0293  0.0414  0.2586
 1632POSM   C3B19151  16.911   7.735  13.654  0.2487  0.0266 -0.0229
 1632POSM   C4B19152  16.642   7.786  13.992 -0.0672 -0.1304  0.2399
 1633DOPC   NC319153  13.094  20.527  16.484  0.2776  0.1781  0.0331
 1633DOPC   PO419154  13.300  20.652  16.132 -0.1028  0.2308 -0.2056
 1633DOPC   GL119155  13.280  20.809  15.689 -0.0143 -0.1965  0.0619
 1633DOPC   GL219156  13.026  20.599  15.621 -0.0240  0.1613  0.1191
 1633DOPC   C1A19157  13.466  20.597  15.354  0.1595 -0.0771 -0.1916
 1633DOPC   D2A19158  13.527  20.520  14.941 -0.1436 -0.0807  0.2059
 1633DOPC   C3A19159  13.784  20.690  14.610 -0.2507  0.5185 -0.0906
 1633DOPC   C4A19160  13.526  20.699  14.281 -0.0973 -0.1481  0.3994
 1633DOPC   C1B19161  13.045  20.747  15.110  0.3157  0.0032  0.1226
 1633DOPC   D2B19162  13.173  20.904  14.667  0.1102  0.2210 -0.1472
 1633DOPC   C3B19163  12.878  21.183  14.390 -0.1195 -0.1734 -0.1570
 1633DOPC   C4B19164  12.904  21.427  14.028 -0.2361 -0.2071 -0.1017
 1634DOPC   NC319165  21.281  14.809  15.127 -0.0207 -0.2115  0.1464
 1634DOPC   PO419166  21.349  15.131  14.921  0.0344 -0.0639 -0.0309
 1634DOPC   GL119167  21.187  15.071  14.540  0.0423 -0.2269  0.2434
 1634DOPC   GL219168  21.393  15.153  14.430  0.1882 -0.1003  0.0519
 1634DOPC   C1A19169  21.075  14.711  14.293 -0.1065 -0.1244 -0.2218
 1634DOPC   D2A19170  20.774  14.690  13.953  0.0433  0.2490 -0.0523
 1634DOPC   C3A19171  20.689  14.654  13.526 -0.0221  0.2108 -0.1008
 1634DOPC   C4A19172  20.631  14.299  13.241 -0.0258  0.3023  0.0449
 1634DOPC   C1B19173  21.304  15.011  13.933  0.0814  0.1601  0.0008
 1634DOPC   D2B19174  21.267  14.743  13.594 -0.1994  0.3482 -0.1296
 1634DOPC   C3B19175  21.059  14.676  13.226  0.1308 -0.0312  0.0144
 1634DOPC   C4B19176  21.249  14.798  12.790  0.0381  0.1320  0.1859
 1635DOPE   NH319177  20.478  20.701  14.754 -0.0650 -0.0600  0.2455
 1635DOPE   PO419178  20.635  20.927  14.797  0.0618 -0.0084  0.0160
 1635DOPE   GL119179  20.832  21.174  14.468  0.0494  0.2473 -0.1594
 1635DOPE   GL219180  20.795  21.218  14.211  0.2862  0.0858 -0.0234
 1635DOPE   C1A19181  21.290  21.239  14.332 -0.0136  0.0875  0.1625
 1635DOPE   D2A19182  21.658  21.207  14.052 -0.0475 -0.1949  0.0726
 1635DOPE   C3A19183  21.776  21.088  13.618 -0.2246 -0.1137 -0.0333
 1635DOPE   C4A19184  21.807  20.936  13.146 -0.0681 -0.0580 -0.4401
 1635DOPE   C1B19185  20.736  20.934  13.879 -0.1517  0.2423 -0.2248
 1635DOPE   D2B19186  20.918  20.548  13.656 -0.0793  0.1585 -0.1485
 1635DOPE   C3B19187  21.160  20.337  13.390  0.1224 -0.1771  0.1164
 1635DOPE   C4B19188  21.548  20.493  13.213 -0.0558 -0.1828  0.0663
 1636DOPE   NH319189  11.988  20.512  15.963 -0.1398  0.1882 -0.0403
 1636DOPE   PO419190  12.097  20.790  16.097 -0.0908 -0.0279 -0.0058
 1636DOPE   GL119191  11.985  21.040  15.957 -0.1859 -0.3477 -0.0186
 1636DOPE   GL219192  11.972  20.936  15.644 -0.1389  0.0837 -0.0328
 1636DOPE   C1A19193  12.272  21.380  15.735 -0.1956 -0.0617 -0.0609
 1636DOPE   D2A19194  12.564  21.758  15.731  0.1040  0.0018 -0.0274
 1636DOPE   C3A19195  12.882  21.698  15.489  0.3847 -0.1017 -0.5207
 1636DOPE   C4A19196  13.067  21.546  15.049  0.0876 -0.1102  0.1573
 1636DOPE   C1B19197  12.123  21.021  15.209  0.0650 -0.0936 -0.1890
 1636DOPE   D2B19198  12.210  21.187  14.777  0.3452 -0.0623  0.1903
 1636DOPE   C3B19199  12.172  21.554  14.560  0.1715 -0.0717 -0.0465
 1636DOPE   C4B19200  12.347  21.963  14.401 -0.4473 -0.1560 -0.2558
 1637DOPC   NC319201  20.673  22.971  16.094  0.2701 -0.2483 -0.0382
 1637DOPC   PO419202  20.530  22.920  15.720 -0.2644 -0.1925  0.2878
 1637DOPC   GL119203  20.798  22.669  15.471  0.0448  0.4436  0.1651
 1637DOPC   GL219204  20.723  22.671  15.197  0.0674 -0.1249  0.0899
 1637DOPC   C1A19205  21.216  22.673  15.233 -0.2858 -0.0162 -0.1077
 1637DOPC   D2A19206  21.650  22.870  15.166  0.1904 -0.1531 -0.1267
 1637DOPC   C3A19207  21.769  23.045  14.762  0.0218  0.0224 -0.0741
 1637DOPC   C4A19208  21.803  23.352  14.379  0.0794  0.0612 -0.2620
 1637DOPC   C1B19209  20.522  22.570  14.821  0.0182 -0.0188 -0.1039
 1637DOPC   D2B19210  20.481  22.659  14.376  0.3061  0.1084 -0.0515
 1637DOPC   C3B19211  20.289  22.541  13.982  0.2931  0.1372  0.3010
 1637DOPC   C4B19212  20.185  22.307  13.609 -0.3314 -0.3780  0.1370
 1638DOPC   NC319213  22.133  21.087  15.095  0.0577  0.1053  0.2160
 1638DOPC   PO419214  22.293  21.176  15.467 -0.0478 -0.1270 -0.1307
 1638DOPC   GL119215  22.588  21.213  15.215  0.0247 -0.1564 -0.3575
 1638DOPC   GL219216  22.562  21.464  15.079 -0.1013 -0.0070  0.0649
 1638DOPC   C1A19217  22.635  21.042  14.751 -0.2865  0.0845  0.2614
 1638DOPC   D2A19218  22.512  21.309  14.344 -0.0152 -0.4421  0.0064
 1638DOPC   C3A19219  22.675  21.507  13.993 -0.1174 -0.3440 -0.0027
 1638DOPC   C4A19220  22.940  21.532  13.669  0.0821  0.0634  0.2192
 1638DOPC   C1B19221  22.290  21.374  14.750  0.1186 -0.1145 -0.3611
 1638DOPC   D2B19222  22.016  21.500  14.383  0.0155 -0.0843 -0.0183
 1638DOPC   C3B19223  22.128  21.408  13.962 -0.1772  0.1827 -0.1019
 1638DOPC   C4B19224  22.215  21.312  13.551  0.1376  0.0341 -0.2775
 1639POSM   NC319225  15.109  15.107  15.575  0.0108  0.0568 -0.0016
 1639POSM   PO419226  14.860  15.217  15.211  0.1778 -0.0462 -0.0918
 1639POSM   AM119227  14.979  15.223  14.911 -0.0716 -0.0323  0.1279
 1639POSM   AM219228  15.079  15.044  14.729 -0.1021 -0.1972  0.2062
 1639POSM   T1A19229  14.879  15.487  14.544 -0.0235  0.0181 -0.0580
 1639POSM   C2A19230  14.640  15.847  14.386 -0.2566 -0.2097 -0.0976
 1639POSM   C3A19231  14.242  15.839  14.271 -0.0317  0.1656  0.1157
 1639POSM   C1B19232  15.287  14.806  14.583  0.2433  0.3062  0.2437
 1639POSM   D2B19233  15.476  14.709  14.171  0.1168 -0.0974  0.0953
 1639POSM   C3B19234  15.279  14.495  13.844 -0.0429 -0.0434 -0.2587
 1639POSM   C4B19235  15.363  14.052  13.737 -0.1147 -0.1128  0.1802
 1640DOPS   CNO19236  19.815  20.584  14.584  0.4470  0.1334  0.0103
 1640DOPS   PO419237  19.973  20.748  14.881  0.0760 -0.0371 -0.2426
 1640DOPS   GL119238  20.120  21.040  14.614  0.0525 -0.0059 -0.0731
 1640DOPS   GL219239  20.213  20.806  14.352 -0.0442 -0.0333  0.1243
 1640DOPS   C1A19240  20.073  21.239  14.142 -0.4997  0.0629 -0.1277
 1640DOPS   D2A19241  19.882  21.165  13.718  0.2938 -0.1354 -0.0551
 1640DOPS   C3A19242  19.983  21.352  13.285 -0.2421 -0.0539 -0.2725
 1640DOPS   C4A19243  19.897  21.377  12.778 -0.0558  0.2074 -0.0698
 1640DOPS   C1B19244  20.234  20.794  13.858 -0.0222 -0.0587  0.0986
 1640DOPS   D2B19245  20.214  20.727  13.439 -0.0156 -0.0492 -0.1158
 1640DOPS   C3B19246  20.045  20.946  13.034 -0.2789 -0.2262  0.1738
 1640DOPS   C4B19247  19.674  20.969  12.680 -0.2079  0.2049 -0.1242
 1641DOPC   NC319248  17.378  14.746  15.090 -0.1173 -0.1868  0.1586
 1641DOPC   PO419249  17.634  14.447  15.059  0.1524 -0.0171 -0.2545
 1641DOPC   GL119250  17.315  14.395  14.823 -0.1892  0.4641 -0.1708
 1641DOPC   GL219251  17.229  14.141  14.993 -0.2456  0.0868 -0.0956
 1641DOPC   C1A19252  17.194  14.142  14.431  0.0227 -0.1317  0.0924
 1641DOPC   D2A19253  17.371  14.251  14.008  0.1832  0.1090  0.1301
 1641DOPC   C3A19254  17.445  13.916  13.636 -0.1588  0.0165  0.2509
 1641DOPC   C4A19255  17.469  13.444  13.458 -0.1265  0.0382  0.2591
 1641DOPC   C1B19256  16.798  13.941  14.962  0.0412 -0.1359 -0.1032
 1641DOPC   D2B19257  16.449  13.901  14.721  0.2118 -0.0245 -0.0849
 1641DOPC   C3B19258  16.005  14.102  14.760 -0.3723 -0.0749  0.0194
 1641DOPC   C4B19259  15.680  14.480  14.770  0.2153 -0.0248  0.0891
 1642DOPE   NH319260  14.602  17.426  15.447 -0.0550  0.0379 -0.0266
 1642DOPE   PO419261  14.596  17.750  15.495  0.0194  0.1879 -0.0075
 1642DOPE   GL119262  14.538  17.630  15.071 -0.1862  0.1897 -0.0720
 1642DOPE   GL219263  14.725  17.602  14.933  0.3728  0.0926 -0.0153
 1642DOPE   C1A19264  14.175  17.686  14.779 -0.2239  0.1206 -0.0332
 1642DOPE   D2A19265  13.843  17.619  14.431 -0.2877  0.1293 -0.1184
 1642DOPE   C3A19266  13.713  17.251  14.249  0.1335  0.0985  0.1808
 1642DOPE   C4A19267  13.623  17.118  13.848  0.1029 -0.1593 -0.1911
 1642DOPE   C1B19268  14.654  17.624  14.462  0.1526 -0.1810 -0.2298
 1642DOPE   D2B19269  14.736  17.808  14.068 -0.2919 -0.1147 -0.3715
 1642DOPE   C3B19270  15.057  18.006  13.817  0.1058  0.0362 -0.0265
 1642DOPE   C4B19271  15.565  18.124  13.858 -0.0189 -0.0066 -0.1117
 1643POSM   NC319272  19.946  20.392  15.364 -0.1363 -0.1757 -0.0750
 1643POSM   PO419273  20.225  20.340  15.055  0.0055 -0.1996 -0.0277
 1643POSM   AM119274  20.225  20.282  14.753 -0.1243  0.3673 -0.0095
 1643POSM   AM219275  20.316  20.348  14.482  0.0029 -0.0965 -0.2369
 1643POSM   T1A19276  19.883  20.071  14.389 -0.1790 -0.0148  0.0690
 1643POSM   C2A19277  19.850  19.934  13.914 -0.2794 -0.2928  0.1547
 1643POSM   C3A19278  19.705  19.858  13.472 -0.0724 -0.0325 -0.0756
 1643POSM   C1B19279  20.161  20.346  14.102  0.2087  0.0170  0.0553
 1643POSM   D2B19280  19.937  20.395  13.725 -0.2303  0.0225 -0.0333
 1643POSM   C3B19281  20.057  20.221  13.350 -0.2005 -0.4292 -0.3100
 1643POSM   C4B19282  19.944  19.914  13.022  0.1666  0.1430  0.2873
 1644DOPS   CNO19283  17.680  22.332  15.631 -0.1275 -0.1126  0.1316
 1644DOPS   PO419284  17.777  22.132  15.293 -0.0311  0.2536  0.0947
 1644DOPS   GL119285  17.688  22.531  15.088  0.3319  0.4365  0.0113
 1644DOPS   GL219286  17.788  22.333  14.832 -0.0066 -0.1048 -0.0003
 1644DOPS   C1A19287  17.612  22.830  14.698  0.1538  0.0744 -0.0524
 1644DOPS   D2A19288  17.756  23.042  14.288 -0.1062 -0.0550 -0.1629
 1644DOPS   C3A19289  18.065  22.841  14.025 -0.2127  0.0064 -0.1715
 1644DOPS   C4A19290  18.423  22.914  13.737  0.2174  0.0114 -0.1998
 1644DOPS   C1B19291  17.576  22.423  14.457 -0.0086 -0.2341  0.0873
 1644DOPS   D2B19292  17.241  22.341  14.114 -0.1435 -0.0234 -0.2842
 1644DOPS   C3B19293  17.186  22.571  13.683  0.1269 -0.1539 -0.2618
 1644DOPS   C4B19294  17.249  22.683  13.230  0.1335  0.1798 -0.1331
 1645DOPC   NC319295  22.141  14.493  15.688  0.2299 -0.0110 -0.1283
 1645DOPC   PO419296  22.035  14.496  15.312 -0.0504 -0.1435  0.0985
 1645DOPC   GL119297  22.089  14.471  14.908 -0.3066  0.1632 -0.1490
 1645DOPC   GL219298  21.840  14.553  14.827  0.4205 -0.3296  0.3640
 1645DOPC   C1A19299  22.309  14.115  14.755 -0.2650  0.2289  0.2567
 1645DOPC   D2A19300  22.773  13.872  14.699 -0.0324  0.1918 -0.1685
 1645DOPC   C3A19301  22.568  13.594  14.418 -0.2407 -0.0037 -0.0284
 1645DOPC   C4A19302  22.160  13.541  14.161  0.2998  0.1317  0.0860
 1645DOPC   C1B19303  21.944  14.360  14.451 -0.0563 -0.2327  0.1887
 1645DOPC   D2B19304  21.930  14.325  14.006 -0.3010  0.1730  0.3286
 1645DOPC   C3B19305  21.722  14.006  13.704 -0.1337 -0.3659 -0.0835
 1645DOPC   C4B19306  21.758  13.655  13.342  0.0888  0.1476 -0.0798
 1646DOPE   NH319307  18.050  16.420  14.962  0.1574  0.1566 -0.2428
 1646DOPE   PO419308  17.848  16.630  14.949  0.3684 -0.1527  0.1840
 1646DOPE   GL119309  17.552  16.497  14.871 -0.5102  0.2228  0.1940
 1646DOPE   GL219310  17.434  16.513  14.616 -0.1267  0.1055 -0.1413
 1646DOPE   C1A19311  17.355  16.072  14.845  0.2231 -0.2460 -0.2544
 1646DOPE   D2A19312  16.999  15.835  14.770  0.3306 -0.1247  0.0431
 1646DOPE   C3A19313  16.920  15.792  14.306  0.0609 -0.1003  0.0233
 1646DOPE   C4A19314  16.927  15.853  13.842 -0.2239  0.0130 -0.3915
 1646DOPE   C1B19315  17.462  16.494  14.156 -0.1110 -0.1272 -0.1675
 1646DOPE   D2B19316  17.321  16.602  13.728 -0.1192 -0.0489  0.2983
 1646DOPE   C3B19317  17.423  16.447  13.368  0.0387 -0.2229  0.2326
 1646DOPE   C4B19318  17.661  16.191  13.060 -0.0172 -0.2925 -0.3016
 1647DOPE   NH319319  16.476  16.502  15.120  0.1884  0.5068  0.1735
 1647DOPE   PO419320  16.616  16.752  14.971  0.0722  0.1257  0.0078
 1647DOPE   GL119321  16.520  16.818  14.608  0.3660  0.2451  0.0621
 1647DOPE   GL219322  16.296  16.972  14.473  0.1538 -0.0099 -0.1636
 1647DOPE   C1A19323  16.439  16.590  14.186  0.1341  0.0551 -0.1299
 1647DOPE   D2A19324  16.117  16.423  13.903 -0.0599 -0.1879 -0.0958
 1647DOPE   C3A19325  16.266  16.424  13.461 -0.2399 -0.1871  0.2709
 1647DOPE   C4A19326  16.162  16.314  13.014 -0.0076  0.4484  0.3028
 1647DOPE   C1B19327  15.955  16.802  14.213  0.0834 -0.1448 -0.4048
 1647DOPE   D2B19328  15.803  16.830  13.722  0.2424 -0.0590 -0.2120
 1647DOPE   C3B19329  16.087  16.873  13.419 -0.1539 -0.4073  0.0946
 1647DOPE   C4B19330  16.496  16.796  13.222 -0.2069  0.1142 -0.0844
 1648DOPC   NC319331  19.828  21.284  15.019 -0.1644 -0.1717  0.2734
 1648DOPC   PO419332  19.900  21.515  15.342 -0.2768  0.3230 -0.2773
 1648DOPC   GL119333  19.883  21.784  14.939  0.3906  0.0892 -0.0014
 1648DOPC   GL219334  20.009  22.038  14.765  0.1452  0.1735  0.0632
 1648DOPC   C1A19335  19.762  21.516  14.579 -0.4362 -0.2485 -0.2333
 1648DOPC   D2A19336  19.608  21.512  14.126  0.3286 -0.2045  0.0405
 1648DOPC   C3A19337  19.244  21.696  13.911  0.0589 -0.3105  0.1888
 1648DOPC   C4A19338  18.857  21.655  13.638 -0.4243  0.1834 -0.0146
 1648DOPC   C1B19339  20.093  22.363  15.137 -0.3338  0.0686 -0.1308
 1648DOPC   D2B19340  20.260  22.779  15.204 -0.3116  0.0446  0.4704
 1648DOPC   C3B19341  20.085  23.195  15.032  0.2511  0.2101  0.0204
 1648DOPC   C4B19342  19.800  23.544  14.984 -0.1148  0.0080 -0.0582
 1649POSM   NC319343  19.988  19.014  14.709 -0.0671  0.0701  0.0702
 1649POSM   PO419344  20.032  18.687  14.925  0.3097  0.3050  0.5288
 1649POSM   AM119345  20.304  18.633  14.719 -0.2086  0.2742  0.5856
 1649POSM   AM219346  20.541  18.490  14.640 -0.2705  0.1881  0.4435
 1649POSM   T1A19347  20.305  18.639  14.226 -0.1761 -0.2675 -0.1388
 1649POSM   C2A19348  20.117  18.693  13.802  0.1147  0.0032  0.0193
 1649POSM   C3A19349  19.662  18.583  13.616  0.0377  0.1593  0.2806
 1649POSM   C1B19350  20.717  18.322  14.462  0.0685  0.2415 -0.2660
 1649POSM   D2B19351  20.810  18.068  14.115 -0.4479 -0.3740 -0.1479
 1649POSM   C3B19352  21.070  18.240  13.793 -0.1816 -0.1162  0.1192
 1649POSM   C4B19353  21.404  18.393  13.512 -0.0623  0.0007  0.1125
 1650DOPE   NH319354  11.627  20.951  16.187  0.0340  0.2436 -0.1386
 1650DOPE   PO419355  11.555  20.763  15.979 -0.0807 -0.2589 -0.2172
 1650DOPE   GL119356  11.605  21.141  15.746 -0.1511 -0.1618 -0.3981
 1650DOPE   GL219357  11.418  21.264  15.850  0.2029  0.4453 -0.2347
 1650DOPE   C1A19358  11.834  21.432  15.463 -0.0029  0.1428 -0.0659
 1650DOPE   D2A19359  12.238  21.636  15.335 -0.1631 -0.1895 -0.2275
 1650DOPE   C3A19360  12.593  21.375  15.223 -0.0550  0.1287 -0.3878
 1650DOPE   C4A19361  12.715  21.134  14.856  0.0886 -0.1738 -0.1439
 1650DOPE   C1B19362  11.343  21.310  15.431 -0.2228 -0.0804 -0.3091
 1650DOPE   D2B19363  11.114  21.374  15.074  0.0102  0.1919 -0.0545
 1650DOPE   C3B19364  11.106  21.445  14.630 -0.2485 -0.1165 -0.0426
 1650DOPE   C4B19365  10.947  21.595  14.169  0.0994 -0.1356  0.0972
 1651DOPS   CNO19366  15.887  12.720  15.105  0.0598 -0.2531  0.0842
 1651DOPS   PO419367  15.789  13.078  15.115 -0.0130 -0.0014 -0.0487
 1651DOPS   GL119368  15.791  13.316  14.745 -0.1083 -0.0657 -0.1022
 1651DOPS   GL219369  15.606  13.547  14.816 -0.0789  0.1086 -0.1194
 1651DOPS   C1A19370  15.689  13.228  14.295 -0.1552 -0.1104 -0.0124
 1651DOPS   D2A19371  15.495  13.090  13.910  0.2344 -0.5393 -0.0426
 1651DOPS   C3A19372  15.413  12.733  13.661 -0.2573 -0.2751 -0.1606
 1651DOPS   C4A19373  15.167  12.470  13.335 -0.0701  0.1735 -0.4043
 1651DOPS   C1B19374  15.748  13.772  14.367  0.0406 -0.1475 -0.1703
 1651DOPS   D2B19375  15.697  13.601  13.882  0.1309  0.0709 -0.0183
 1651DOPS   C3B19376  15.659  13.787  13.443  0.2867  0.1745  0.0707
 1651DOPS   C4B19377  15.459  13.928  13.019 -0.1213  0.0551 -0.0119
 1652POSM   NC319378  18.518  19.337  15.105 -0.1961 -0.2437  0.1265
 1652POSM   PO419379  18.177  19.335  15.256  0.1962  0.3280 -0.0091
 1652POSM   AM119380  18.089  19.317  14.937 -0.1254 -0.0864  0.0338
 1652POSM   AM219381  18.168  19.452  14.710 -0.1144 -0.0141 -0.1860
 1652POSM   T1A19382  17.929  19.025  14.581  0.1843 -0.1352  0.2554
 1652POSM   C2A19383  17.945  18.708  14.282  0.2103 -0.0205 -0.0837
 1652POSM   C3A19384  17.973  18.298  14.331 -0.2579 -0.0174  0.1303
 1652POSM   C1B19385  18.073  19.551  14.421  0.0585  0.0215  0.1774
 1652POSM   D2B19386  18.094  19.638  13.937  0.1462  0.1458  0.0332
 1652POSM   C3B19387  18.314  20.002  13.716 -0.1193  0.2786  0.3585
 1652POSM   C4B19388  18.489  19.916  13.266 -0.1438  0.5228  0.1373
 1653POSM   NC319389  16.321  19.471  15.031 -0.4706 -0.0116  0.0318
 1653POSM   PO419390  16.395  19.694  15.359 -0.2779  0.1885 -0.3120
 1653POSM   AM119391  16.266  19.977  15.203 -0.3563 -0.0769  0.0022
 1653POSM   AM219392  16.390  20.102  14.949  0.1092  0.1164 -0.0520
 1653POSM   T1A19393  15.915  20.324  15.137  0.0466 -0.2884 -0.0666
 1653POSM   C2A19394  15.489  20.354  14.949 -0.0766 -0.0557 -0.0225
 1653POSM   C3A19395  15.330  20.622  14.635 -0.1302  0.2099 -0.0798
 1653POSM   C1B19396  16.280  19.831  14.707 -0.0291 -0.1525 -0.1827
 1653POSM   D2B19397  16.038  19.633  14.365  0.2010 -0.0450 -0.0469
 1653POSM   C3B19398  16.095  20.010  14.109 -0.2356 -0.3095  0.5031
 1653POSM   C4B19399  15.844  20.225  13.845 -0.0347 -0.0766  0.2156
 1654DOPC   NC319400  14.723  11.947  15.332  0.0123 -0.0577  0.0506
 1654DOPC   PO419401  14.355  11.978  15.264  0.2603 -0.1265  0.4288
 1654DOPC   GL119402  14.110  12.021  14.897 -0.0566 -0.2945 -0.1688
 1654DOPC   GL219403  14.300  12.027  14.704  0.1160  0.1725 -0.1451
 1654DOPC   C1A19404  13.986  12.418  14.673 -0.1846  0.1888  0.2879
 1654DOPC   D2A19405  13.774  12.691  14.362  0.0451 -0.0744  0.0616
 1654DOPC   C3A19406  13.961  12.713  13.949 -0.0611  0.0577  0.1049
 1654DOPC   C4A19407  13.831  12.782  13.478  0.1714 -0.1076 -0.3457
 1654DOPC   C1B19408  14.580  11.952  14.333  0.2609  0.0825  0.1852
 1654DOPC   D2B19409  14.924  11.891  14.035 -0.3237 -0.0111  0.2371
 1654DOPC   C3B19410  14.915  11.535  13.826 -0.0123  0.1890 -0.0297
 1654DOPC   C4B19411  15.144  11.349  13.519 -0.0419 -0.1987  0.2508
 1655DOPS   CNO19412  18.899  15.631  14.732 -0.3792  0.1271 -0.1894
 1655DOPS   PO419413  19.138  15.882  14.877 -0.0188  0.0523  0.2749
 1655DOPS   GL119414  19.256  15.713  14.449  0.1515 -0.3821 -0.0622
 1655DOPS   GL219415  19.432  15.509  14.350  0.1427 -0.1274  0.3774
 1655DOPS   C1A19416  19.114  15.882  14.048  0.3598  0.1192 -0.2489
 1655DOPS   D2A19417  19.112  15.852  13.608 -0.1917 -0.0742  0.0995
 1655DOPS   C3A19418  19.103  15.391  13.556  0.0782  0.0199 -0.0879
 1655DOPS   C4A19419  18.984  14.911  13.535 -0.0160 -0.0309  0.1358
 1655DOPS   C1B19420  19.646  15.496  13.967  0.0243 -0.1889  0.2238
 1655DOPS   D2B19421  19.561  15.675  13.521 -0.2707 -0.0291 -0.1321
 1655DOPS   C3B19422  19.718  15.488  13.095 -0.1631 -0.2339  0.0977
 1655DOPS   C4B19423  19.895  15.471  12.674  0.2328 -0.1313  0.0010
 1656DOPE   NH319424  20.862  21.398  14.960 -0.0983 -0.1057  0.2400
 1656DOPE   PO419425  20.792  21.722  15.100  0.0218  0.0657  0.2778
 1656DOPE   GL119426  20.792  21.914  14.812 -0.1916  0.0788 -0.1369
 1656DOPE   GL219427  20.540  21.917  14.682  0.0792  0.1566 -0.0712
 1656DOPE   C1A19428  21.125  22.090  14.533 -0.0235 -0.1032  0.1527
 1656DOPE   D2A19429  21.367  22.155  14.177  0.4592  0.0773  0.1516
 1656DOPE   C3A19430  21.565  22.510  14.387  0.2405  0.0537  0.1980
 1656DOPE   C4A19431  21.404  22.722  14.700 -0.4723  0.2118  0.1591
 1656DOPE   C1B19432  20.589  22.025  14.229  0.0343 -0.2202 -0.0188
 1656DOPE   D2B19433  20.616  21.914  13.802 -0.0245 -0.0442  0.0422
 1656DOPE   C3B19434  20.871  21.779  13.415 -0.1533  0.0379 -0.0351
 1656DOPE   C4B19435  20.996  21.469  13.015  0.0550 -0.2834 -0.1358
 1657POSM   NC319436  20.135  17.389  14.266  0.0901 -0.0490 -0.3525
 1657POSM   PO419437  20.534  17.340  14.276 -0.0766 -0.4277  0.1344
 1657POSM   AM119438  20.821  17.408  14.082  0.1492 -0.1237 -0.0070
 1657POSM   AM219439  21.056  17.516  14.160  0.1734  0.2480  0.4426
 1657POSM   T1A19440  21.051  17.551  13.680  0.2299  0.0784  0.2938
 1657POSM   C2A19441  21.084  17.496  13.197 -0.1878 -0.2234 -0.1211
 1657POSM   C3A19442  21.346  17.523  12.790  0.1909 -0.2039 -0.1472
 1657POSM   C1B19443  21.237  17.780  14.145  0.1396 -0.2087 -0.2707
 1657POSM   D2B19444  21.519  17.961  13.805 -0.0574 -0.1086 -0.1377
 1657POSM   C3B19445  21.247  17.944  13.419 -0.1746  0.2166  0.0098
 1657POSM   C4B19446  21.391  18.004  12.961 -0.2420  0.1503 -0.1024
 1658POSM   NC319447  22.767  12.468  15.464 -0.1900 -0.2176 -0.2103
 1658POSM   PO419448  22.511  12.742  15.368 -0.2365 -0.4639 -0.0579
 1658POSM   AM119449  22.565  12.871  15.065 -0.0734  0.0701  0.1278
 1658POSM   AM219450  22.666  13.126  15.019  0.2742  0.0704  0.0992
 1658POSM   T1A19451  22.341  12.797  14.619  0.0644 -0.1667 -0.2980
 1658POSM   C2A19452  22.296  12.979  14.186  0.0582  0.2652  0.0430
 1658POSM   C3A19453  21.908  12.905  13.908 -0.1668  0.0589 -0.0013
 1658POSM   C1B19454  22.656  13.210  14.656  0.3539 -0.3081  0.3707
 1658POSM   D2B19455  22.800  13.154  14.223  0.2397  0.3030 -0.0649
 1658POSM   C3B19456  22.579  13.258  13.894  0.2148  0.2579  0.2044
 1658POSM   C4B19457  22.334  13.447  13.524 -0.3573 -0.1569 -0.2702
 1659DOPC   NC319458  12.952  20.092  15.655 -0.0668 -0.3579  0.1552
 1659DOPC   PO419459  12.840  19.767  15.870  0.0696 -0.0485  0.0153
 1659DOPC   GL119460  12.580  19.798  15.468 -0.0274  0.1916  0.1004
 1659DOPC   GL219461  12.514  19.989  15.345 -0.2400  0.0319 -0.1467
 1659DOPC   C1A19462  12.383  19.581  15.100  0.1443  0.1179 -0.0486
 1659DOPC   D2A19463  12.347  19.708  14.674  0.0449  0.1135 -0.0175
 1659DOPC   C3A19464  12.006  19.425  14.507 -0.2868  0.1262  0.1948
 1659DOPC   C4A19465  11.722  19.615  14.190  0.2672 -0.2627  0.1674
 1659DOPC   C1B19466  12.669  20.455  15.305  0.2524  0.1965  0.3115
 1659DOPC   D2B19467  12.639  20.893  15.368 -0.2106  0.2515  0.2106
 1659DOPC   C3B19468  12.982  21.112  15.459  0.0275  0.2657 -0.0201
 1659DOPC   C4B19469  13.415  21.214  15.622 -0.0050  0.0789 -0.1908
 1660DOPC   NC319470  12.404  14.570  14.993 -0.0439 -0.2125  0.0376
 1660DOPC   PO419471  12.695  14.393  14.823  0.5152 -0.1534  0.3014
 1660DOPC   GL119472  12.977  14.549  14.634 -0.0819 -0.0061  0.0208
 1660DOPC   GL219473  13.071  14.235  14.548 -0.2179  0.0606 -0.0138
 1660DOPC   C1A19474  12.839  14.827  14.318  0.4342 -0.0500  0.0608
 1660DOPC   D2A19475  12.737  15.080  13.923 -0.2109 -0.0018  0.1186
 1660DOPC   C3A19476  12.667  15.032  13.488 -0.2158  0.1067 -0.1938
 1660DOPC   C4A19477  12.782  14.928  13.060  0.0955 -0.0723  0.0150
 1660DOPC   C1B19478  12.909  14.204  14.136  0.0639 -0.0954 -0.0320
 1660DOPC   D2B19479  12.863  14.079  13.700  0.2267  0.2847 -0.2080
 1660DOPC   C3B19480  13.050  14.067  13.259 -0.1639  0.2646  0.0935
 1660DOPC   C4B19481  12.990  13.743  12.936 -0.0577 -0.0642 -0.1060
 1661POSM   NC319482  17.541  12.288  16.003 -0.1608 -0.0627  0.4317
 1661POSM   PO419483  17.194  12.096  15.963  0.3271  0.1728  0.1695
 1661POSM   AM119484  17.406  11.976  15.740 -0.0812  0.4111 -0.1125
 1661POSM   AM219485  17.510  12.145  15.500  0.1363 -0.0487  0.0719
 1661POSM   T1A19486  17.880  11.849  15.592 -0.1049 -0.1669 -0.0401
 1661POSM   C2A19487  18.019  11.520  15.428  0.3098  0.0532  0.2558
 1661POSM   C3A19488  18.303  11.159  15.511  0.0938 -0.1877  0.0289
 1661POSM   C1B19489  17.702  12.118  15.237 -0.0604  0.0218  0.2592
 1661POSM   D2B19490  18.006  12.120  14.831 -0.4000  0.1953  0.0701
 1661POSM   C3B19491  17.924  12.214  14.368 -0.0999 -0.1969  0.0578
 1661POSM   C4B19492  17.641  12.343  14.020 -0.0069 -0.0857  0.1540
 1662POSM   NC319493  22.658  17.214  14.040  0.1185  0.1304 -0.1029
 1662POSM   PO419494  22.456  17.023  14.361  0.0844  0.0290  0.3206
 1662POSM   AM119495  22.568  16.753  14.208  0.0813  0.0029 -0.2053
 1662POSM   AM219496  22.817  16.587  14.119  0.0062  0.0410 -0.0923
 1662POSM   T1A19497  22.423  16.236  14.227 -0.0031  0.1651 -0.0844
 1662POSM   C2A19498  22.247  15.848  14.176  0.0278  0.0339 -0.1739
 1662POSM   C3A19499  22.348  15.465  13.947 -0.1436 -0.4365 -0.1125
 1662POSM   C1B19500  22.945  16.758  13.882 -0.0208 -0.1412 -0.5026
 1662POSM   D2B19501  22.901  17.090  13.624 -0.0727  0.0619 -0.0964
 1662POSM   C3B19502  23.157  17.025  13.260  0.3251  0.0663 -0.0279
 1662POSM   C4B19503  23.427  16.866  12.933 -0.2240  0.0450  0.2547
 1663DOPE   NH319504  21.762  22.136  15.828  0.0306 -0.0670 -0.0719
 1663DOPE   PO419505  21.515  22.350  15.741 -0.1299 -0.3380 -0.1096
 1663DOPE   GL119506  21.732  22.441  15.394  0.0384  0.1090 -0.0621
 1663DOPE   GL219507  21.875  22.130  15.287  0.6295 -0.1161 -0.1101
 1663DOPE   C1A19508  22.179  22.485  15.263 -0.0537 -0.1938  0.1148
 1663DOPE   D2A19509  22.486  22.441  14.921  0.3248 -0.0706  0.3370
 1663DOPE   C3A19510  22.435  22.205  14.490  0.2600  0.0823 -0.0752
 1663DOPE   C4A19511  22.335  21.834  14.211  0.1387 -0.1922  0.0473
 1663DOPE   C1B19512  22.106  21.993  14.902  0.1946  0.0618  0.1508
 1663DOPE   D2B19513  21.872  22.046  14.484 -0.0895 -0.1970  0.2297
 1663DOPE   C3B19514  21.853  22.281  14.088 -0.0767 -0.0493 -0.2723
 1663DOPE   C4B19515  21.505  22.573  13.923  0.2355  0.0356 -0.1204
 1664DOPC   NC319516  17.864  20.605  14.974  0.0609 -0.0630 -0.2402
 1664DOPC   PO419517  18.212  20.734  15.121 -0.3113  0.1652  0.1882
 1664DOPC   GL119518  18.332  21.005  14.747  0.0586 -0.0513  0.3566
 1664DOPC   GL219519  18.599  20.923  14.730 -0.2457  0.0554  0.1403
 1664DOPC   C1A19520  18.139  21.293  14.471 -0.2010  0.1108 -0.0411
 1664DOPC   D2A19521  18.347  21.648  14.246  0.0563  0.0586 -0.1095
 1664DOPC   C3A19522  18.290  21.616  13.766 -0.0836 -0.0565 -0.1547
 1664DOPC   C4A19523  18.536  21.440  13.353 -0.0353 -0.0431 -0.1971
 1664DOPC   C1B19524  18.848  20.943  14.323  0.0119 -0.4790 -0.2189
 1664DOPC   D2B19525  18.975  20.740  13.918 -0.1858  0.2602  0.2132
 1664DOPC   C3B19526  19.114  20.302  13.866 -0.4300 -0.0621 -0.0048
 1664DOPC   C4B19527  19.310  20.118  13.522 -0.0417 -0.2546  0.1301
 1665DOPE   NH319528  19.187  17.141  15.001  0.0329 -0.1801 -0.0676
 1665DOPE   PO419529  19.341  17.351  14.847 -0.0329 -0.0089  0.0681
 1665DOPE   GL119530  19.039  17.489  14.647 -0.0155  0.1372 -0.0717
 1665DOPE   GL219531  19.193  17.492  14.423  0.0692 -0.2355  0.1545
 1665DOPE   C1A19532  18.869  17.838  14.409 -0.1889  0.2450  0.2926
 1665DOPE   D2A19533  18.934  18.231  14.138  0.2764  0.1151 -0.0308
 1665DOPE   C3A19534  18.468  18.266  14.077  0.0913  0.1276  0.0416
 1665DOPE   C4A19535  18.064  18.132  13.800  0.0513 -0.0221 -0.2634
 1665DOPE   C1B19536  19.091  17.178  14.093 -0.2005  0.0574 -0.0333
 1665DOPE   D2B19537  19.133  16.775  13.843  0.1053 -0.1513  0.0645
 1665DOPE   C3B19538  18.909  16.763  13.478  0.3177  0.0248 -0.1967
 1665DOPE   C4B19539  18.728  16.994  13.132  0.1792 -0.3480 -0.0011
 1666DOPE   NH319540  22.220  14.869  15.028 -0.3071  0.0437  0.1323
 1666DOPE   PO419541  22.231  15.055  14.787  0.2413  0.1274  0.1924
 1666DOPE   GL119542  22.040  14.868  14.500 -0.0639 -0.1505  0.0492
 1666DOPE   GL219543  22.213  14.736  14.303 -0.3081  0.2086  0.3981
 1666DOPE   C1A19544  21.709  14.800  14.143 -0.3554 -0.2477  0.1933
 1666DOPE   D2A19545  21.824  14.696  13.704 -0.0434 -0.1965  0.1479
 1666DOPE   C3A19546  21.536  14.391  13.428  0.0266  0.2394 -0.0609
 1666DOPE   C4A19547  21.474  14.061  13.031  0.0692 -0.2834  0.0925
 1666DOPE   C1B19548  22.180  14.940  13.899  0.2428 -0.2403  0.1108
 1666DOPE   D2B19549  22.177  15.106  13.561  0.0293  0.2114  0.1446
 1666DOPE   C3B19550  22.119  15.579  13.517  0.0409  0.1801 -0.2103
 1666DOPE   C4B19551  21.866  16.006  13.506 -0.4338 -0.0210 -0.0435
 1667DOPE   NH319552  19.072  14.261  15.087 -0.0616 -0.1502 -0.0027
 1667DOPE   PO419553  19.070  14.562  15.148  0.0340 -0.0799  0.1081
 1667DOPE   GL119554  18.774  14.668  14.846 -0.0736 -0.1315  0.1505
 1667DOPE   GL219555  18.901  14.863  14.698 -0.1089 -0.1354  0.2033
 1667DOPE   C1A19556  18.468  14.547  14.502  0.2134 -0.2729 -0.0199
 1667DOPE   D2A19557  18.330  14.407  14.070  0.2513 -0.1142  0.0100
 1667DOPE   C3A19558  18.426  14.425  13.572  0.0764 -0.2177  0.0645
 1667DOPE   C4A19559  18.268  14.092  13.260  0.2087  0.0838 -0.0842
 1667DOPE   C1B19560  18.866  14.738  14.275  0.3806  0.1773 -0.1351
 1667DOPE   D2B19561  18.549  14.811  13.939 -0.0752  0.0527  0.0913
 1667DOPE   C3B19562  18.528  15.004  13.505 -0.2689 -0.4363 -0.0410
 1667DOPE   C4B19563  18.738  15.232  13.142 -0.0477 -0.0941 -0.2840
 1668DOPS   CNO19564  12.561  16.161  15.554  0.0614  0.0505  0.0479
 1668DOPS   PO419565  12.572  16.339  15.217  0.2130 -0.0420 -0.0980
 1668DOPS   GL119566  12.386  16.640  15.151  0.0131 -0.0797  0.4104
 1668DOPS   GL219567  12.081  16.715  15.042 -0.0478 -0.1351 -0.2464
 1668DOPS   C1A19568  12.495  17.010  14.876  0.2096  0.5414 -0.0944
 1668DOPS   D2A19569  12.665  17.103  14.452 -0.1397  0.0290 -0.2754
 1668DOPS   C3A19570  12.778  16.724  14.259 -0.1069 -0.0714 -0.0051
 1668DOPS   C4A19571  12.779  16.302  14.000  0.0104  0.0420 -0.0240
 1668DOPS   C1B19572  12.091  16.936  14.609  0.0633 -0.0341 -0.3233
 1668DOPS   D2B19573  12.223  16.847  14.185  0.0148 -0.0682  0.0465
 1668DOPS   C3B19574  12.359  17.070  13.825  0.0992  0.1507  0.0312
 1668DOPS   C4B19575  12.445  16.987  13.386 -0.0293 -0.2448  0.2076
 1669DOPE   NH319576  17.643  18.491  15.243  0.1581 -0.1062  0.1751
 1669DOPE   PO419577  17.502  18.752  15.141 -0.4816 -0.0823  0.0326
 1669DOPE   GL119578  17.568  19.084  14.909  0.1045 -0.1912  0.1528
 1669DOPE   GL219579  17.395  19.033  14.603  0.1831 -0.1020 -0.3953
 1669DOPE   C1A19580  17.640  19.457  14.601 -0.3814  0.0103  0.1103
 1669DOPE   D2A19581  17.528  19.325  14.215 -0.3015  0.0142 -0.0145
 1669DOPE   C3A19582  17.127  19.250  13.979 -0.1305  0.0609 -0.1236
 1669DOPE   C4A19583  16.709  19.336  13.929 -0.0175 -0.0463 -0.0988
 1669DOPE   C1B19584  17.438  18.843  14.227  0.2002  0.1963 -0.0361
 1669DOPE   D2B19585  17.474  18.398  14.180  0.2725  0.0315 -0.2242
 1669DOPE   C3B19586  17.579  18.259  13.709 -0.0473  0.2293 -0.1781
 1669DOPE   C4B19587  17.873  18.274  13.332 -0.0375  0.0217 -0.0829
 1670DOPE   NH319588  14.425  18.236  15.634 -0.0944  0.0908  0.4604
 1670DOPE   PO419589  14.265  18.432  15.533  0.2532 -0.0886  0.0928
 1670DOPE   GL119590  14.300  18.626  15.181 -0.3650  0.1355 -0.0951
 1670DOPE   GL219591  14.611  18.694  15.106  0.0540 -0.0009  0.0652
 1670DOPE   C1A19592  14.268  18.520  14.719  0.2041  0.1072 -0.4508
 1670DOPE   D2A19593  14.248  18.511  14.238 -0.0266 -0.0131 -0.2058
 1670DOPE   C3A19594  14.523  18.282  13.918  0.0084  0.0637  0.0388
 1670DOPE   C4A19595  14.675  18.181  13.508  0.1832  0.0200  0.1927
 1670DOPE   C1B19596  14.809  18.521  14.719  0.3006 -0.1629 -0.1000
 1670DOPE   D2B19597  15.088  18.452  14.404  0.0730  0.0790  0.3995
 1670DOPE   C3B19598  15.244  18.468  13.966 -0.1298  0.0781  0.1601
 1670DOPE   C4B19599  15.379  18.419  13.524  0.0787 -0.0007  0.0694
 1671POSM   NC319600  15.169  11.958  15.653 -0.1336 -0.0987  0.0731
 1671POSM   PO419601  15.198  11.896  15.256  0.0824  0.0593  0.0096
 1671POSM   AM119602  15.279  11.876  14.923  0.0914 -0.0852  0.2292
 1671POSM   AM219603  15.343  12.098  14.750  0.0040  0.2153  0.2793
 1671POSM   T1A19604  15.394  11.730  14.425  0.1204 -0.2194 -0.0380
 1671POSM   C2A19605  15.400  11.732  13.982 -0.2372 -0.0344 -0.0440
 1671POSM   C3A19606  15.633  11.578  13.551 -0.0564  0.0858  0.0212
 1671POSM   C1B19607  15.102  12.237  14.542 -0.3048 -0.0105 -0.2160
 1671POSM   D2B19608  14.813  12.399  14.230 -0.3152  0.0641 -0.1314
 1671POSM   C3B19609  14.819  12.431  13.801  0.0581  0.0091  0.3315
 1671POSM   C4B19610  14.705  12.109  13.551 -0.1957  0.3235 -0.0392
 1672POSM   NC319611  16.299  14.335  15.152  0.2804  0.1716 -0.0984
 1672POSM   PO419612  16.370  14.764  15.021  0.4895 -0.1088 -0.3560
 1672POSM   AM119613  16.364  14.863  14.663  0.1244  0.1449 -0.1986
 1672POSM   AM219614  16.594  14.914  14.513 -0.0563  0.1132  0.2222
 1672POSM   T1A19615  16.286  15.211  14.298 -0.0857 -0.1632  0.2977
 1672POSM   C2A19616  16.407  15.630  14.029  0.1981  0.0737  0.0803
 1672POSM   C3A19617  16.438  16.061  13.827  0.3107  0.1300  0.2247
 1672POSM   C1B19618  16.515  14.783  14.203  0.3626 -0.1057 -0.0800
 1672POSM   D2B19619  16.226  14.558  13.951  0.1956 -0.0496  0.1138
 1672POSM   C3B19620  16.470  14.307  13.637 -0.1235 -0.1419 -0.2113
 1672POSM   C4B19621  16.508  14.215  13.172  0.0028 -0.1039 -0.1120
 1673DOPC   NC319622  17.031  17.925  14.898  0.0823 -0.2145 -0.1131
 1673DOPC   PO419623  17.401  18.065  14.943 -0.1451 -0.0928 -0.2391
 1673DOPC   GL119624  17.216  17.937  14.502  0.0936 -0.0921  0.0181
 1673DOPC   GL219625  17.512  17.900  14.459 -0.2891 -0.0690 -0.2206
 1673DOPC   C1A19626  17.244  18.012  14.020  0.0735  0.1753 -0.2629
 1673DOPC   D2A19627  17.215  17.797  13.586 -0.1564 -0.1206  0.0835
 1673DOPC   C3A19628  17.020  17.470  13.383  0.2205 -0.0027  0.1079
 1673DOPC   C4A19629  17.054  17.362  12.917 -0.2061  0.0226  0.1546
 1673DOPC   C1B19630  17.751  17.893  14.074  0.0092 -0.2184  0.1788
 1673DOPC   D2B19631  17.808  17.703  13.666  0.0022 -0.0706  0.1752
 1673DOPC   C3B19632  17.555  17.898  13.262 -0.0820 -0.0920 -0.1156
 1673DOPC   C4B19633  17.431  18.291  13.126 -0.1253  0.0531 -0.0101
 1674DOPC   NC319634  15.425  20.849  15.087  0.5938  0.1218  0.0833
 1674DOPC   PO419635  15.398  20.890  15.476  0.1261  0.2901  0.0324
 1674DOPC   GL119636  15.090  20.685  15.375 -0.0359  0.0283 -0.0792
 1674DOPC   GL219637  14.836  20.824  15.268  0.0285  0.1034  0.2990
 1674DOPC   C1A19638  15.030  20.309  15.152 -0.1440  0.0337  0.1292
 1674DOPC   D2A19639  15.001  20.105  14.774  0.1289  0.1241 -0.2546
 1674DOPC   C3A19640  15.365  20.146  14.479 -0.1418  0.0363  0.1458
 1674DOPC   C4A19641  15.654  19.940  14.228  0.1237  0.0725  0.0685
 1674DOPC   C1B19642  14.902  20.680  14.828 -0.4505 -0.1363  0.1929
 1674DOPC   D2B19643  14.913  20.484  14.418  0.0033  0.0736  0.0186
 1674DOPC   C3B19644  15.180  20.476  14.157 -0.0379  0.3216 -0.2561
 1674DOPC   C4B19645  15.217  20.461  13.730  0.0796 -0.0162  0.1756
 1675POSM   NC319646  14.219  21.639  15.997  0.0665 -0.0627  0.0484
 1675POSM   PO419647  14.463  21.906  15.849  0.0863 -0.0433  0.1321
 1675POSM   AM119648  14.500  22.089  15.586  0.1698 -0.2170 -0.1724
 1675POSM   AM219649  14.598  22.113  15.342 -0.0269 -0.0583  0.0033
 1675POSM   T1A19650  14.128  22.200  15.234 -0.3553  0.2379  0.0492
 1675POSM   C2A19651  13.911  22.230  14.862 -0.0640 -0.2150 -0.0886
 1675POSM   C3A19652  13.973  22.598  14.525  0.0164  0.1354  0.1192
 1675POSM   C1B19653  14.508  21.995  15.028 -0.0781 -0.1941  0.1360
 1675POSM   D2B19654  14.442  21.799  14.625 -0.0930  0.1639 -0.0405
 1675POSM   C3B19655  14.126  21.479  14.495 -0.2137  0.1388  0.0653
 1675POSM   C4B19656  13.869  21.165  14.714  0.1055 -0.1167 -0.1321
 1676DOPC   NC319657  20.944  13.658  15.205  0.0778  0.3102 -0.3684
 1676DOPC   PO419658  20.561  13.743  15.209  0.2393 -0.2776  0.0749
 1676DOPC   GL119659  20.415  13.698  14.867  0.4025 -0.2383 -0.1356
 1676DOPC   GL219660  20.524  13.909  14.711 -0.0404  0.0294  0.0026
 1676DOPC   C1A19661  20.826  13.548  14.637  0.0714 -0.1964 -0.0057
 1676DOPC   D2A19662  21.135  13.715  14.326 -0.0566  0.2095  0.2910
 1676DOPC   C3A19663  21.079  13.815  13.842  0.0762  0.1253  0.0638
 1676DOPC   C4A19664  21.348  13.732  13.501 -0.0142  0.0075  0.4983
 1676DOPC   C1B19665  20.631  13.831  14.261  0.0416  0.1046 -0.1460
 1676DOPC   D2B19666  20.429  13.803  13.891 -0.0116 -0.1693  0.0005
 1676DOPC   C3B19667  20.681  13.889  13.520  0.2193  0.1167  0.0361
 1676DOPC   C4B19668  20.965  13.960  13.122 -0.3484  0.0737 -0.1601
 1677POSM   NC319669  11.512  19.838  15.334 -0.2183  0.0169 -0.0880
 1677POSM   PO419670  11.592  19.520  15.520  0.1279  0.2755  0.1251
 1677POSM   AM119671  11.756  19.411  15.252  0.0024 -0.1602  0.4318
 1677POSM   AM219672  11.874  19.576  15.058 -0.0882 -0.0745  0.0691
 1677POSM   T1A19673  11.768  19.114  14.784  0.0862 -0.0496 -0.2245
 1677POSM   C2A19674  12.054  18.833  14.555 -0.2077  0.0658  0.0921
 1677POSM   C3A19675  12.346  18.927  14.223 -0.0558  0.4988  0.1707
 1677POSM   C1B19676  11.766  19.827  14.898  0.2288 -0.2204  0.0121
 1677POSM   D2B19677  11.931  20.060  14.548 -0.0752  0.1684 -0.2859
 1677POSM   C3B19678  12.184  19.836  14.211 -0.0570  0.1924 -0.0040
 1677POSM   C4B19679  12.242  19.400  14.005  0.0308 -0.0312 -0.0460
 1678DOPC   NC319680  14.074  17.516  15.776  0.0284 -0.1514  0.1751
 1678DOPC   PO419681  14.200  17.158  15.712  0.0566 -0.3089 -0.2623
 1678DOPC   GL119682  14.212  17.108  15.368 -0.2158  0.1224  0.2053
 1678DOPC   GL219683  14.128  17.438  15.270 -0.2230  0.2364  0.0061
 1678DOPC   C1A19684  14.460  17.162  14.963  0.1383 -0.0090  0.0732
 1678DOPC   D2A19685  14.708  17.111  14.595 -0.1256 -0.0596  0.0865
 1678DOPC   C3A19686  15.056  17.383  14.366 -0.2345 -0.0885  0.0402
 1678DOPC   C4A19687  15.148  17.562  13.915 -0.1740 -0.0474 -0.2670
 1678DOPC   C1B19688  14.018  17.234  14.866 -0.0085 -0.0557 -0.0382
 1678DOPC   D2B19689  14.212  17.245  14.496 -0.2725  0.1652 -0.1209
 1678DOPC   C3B19690  14.082  16.830  14.328  0.0305 -0.1089  0.0808
 1678DOPC   C4B19691  14.337  16.681  13.967  0.2303  0.5048  0.0622
 1679POSM   NC319692  13.797  22.386  16.068  0.0735 -0.1158  0.2164
 1679POSM   PO419693  13.547  22.668  15.960  0.0020  0.0816 -0.0762
 1679POSM   AM119694  13.359  22.806  15.717  0.0384  0.2955 -0.3864
 1679POSM   AM219695  13.194  22.613  15.512  0.0318 -0.0040  0.1499
 1679POSM   T1A19696  12.944  22.991  15.445  0.0586 -0.1678  0.2271
 1679POSM   C2A19697  12.674  23.329  15.249  0.0512  0.0737 -0.0139
 1679POSM   C3A19698  12.420  23.577  14.940  0.1233 -0.4271 -0.0890
 1679POSM   C1B19699  13.229  22.602  15.164 -0.0015  0.2937  0.1329
 1679POSM   D2B19700  13.459  22.444  14.769  0.2630 -0.1279 -0.1637
 1679POSM   C3B19701  13.135  22.512  14.440  0.1305  0.1330  0.0264
 1679POSM   C4B19702  12.989  22.691  14.029  0.1617  0.0396 -0.0269
 1680DOPE   NH319703  15.081  18.933  15.797  0.1160 -0.2017  0.0541
 1680DOPE   PO419704  15.333  19.160  15.789  0.0942 -0.1622  0.0120
 1680DOPE   GL119705  15.247  19.105  15.430  0.0082  0.0866  0.0196
 1680DOPE   GL219706  14.982  19.116  15.264  0.1687  0.1370  0.0985
 1680DOPE   C1A19707  15.333  19.372  15.034 -0.0897  0.1269 -0.1275
 1680DOPE   D2A19708  15.090  19.558  14.654 -0.1173 -0.0305  0.2373
 1680DOPE   C3A19709  15.198  19.430  14.163 -0.0344  0.1074  0.0663
 1680DOPE   C4A19710  15.403  19.540  13.778  0.1730  0.2541  0.3130
 1680DOPE   C1B19711  14.803  19.053  14.797  0.1278  0.3327 -0.1603
 1680DOPE   D2B19712  14.668  18.831  14.396  0.2075 -0.0229 -0.0642
 1680DOPE   C3B19713  14.316  18.985  14.177  0.0762  0.0993  0.1011
 1680DOPE   C4B19714  14.217  19.343  13.989  0.0979 -0.2610 -0.0815
 1681DOPC   NC319715  22.468  13.676  15.470 -0.2557 -0.0720 -0.0937
 1681DOPC   PO419716  22.121  13.564  15.487 -0.0957 -0.3674 -0.0095
 1681DOPC   GL119717  21.863  13.650  15.077 -0.1348  0.1793 -0.1187
 1681DOPC   GL219718  21.980  13.897  15.069 -0.0498 -0.1461 -0.3808
 1681DOPC   C1A19719  21.684  13.245  14.904 -0.3616  0.2704  0.1518
 1681DOPC   D2A19720  21.584  12.904  14.639 -0.2518 -0.0803  0.0191
 1681DOPC   C3A19721  21.293  13.011  14.265  0.0768 -0.1913 -0.2931
 1681DOPC   C4A19722  20.914  13.330  14.198 -0.0970  0.1470  0.2896
 1681DOPC   C1B19723  22.003  13.668  14.599 -0.2459 -0.0027 -0.1121
 1681DOPC   D2B19724  22.272  13.985  14.325 -0.1894  0.0539 -0.0119
 1681DOPC   C3B19725  22.317  13.950  13.857 -0.2716  0.0187 -0.0893
 1681DOPC   C4B19726  22.573  14.014  13.469  0.1197  0.2422 -0.0883
 1682DOPC   NC319727  17.644  13.534  15.594 -0.1090  0.4119  0.0627
 1682DOPC   PO419728  17.670  13.146  15.459 -0.2157 -0.3105  0.1882
 1682DOPC   GL119729  17.852  13.059  15.166 -0.0558 -0.1747  0.3205
 1682DOPC   GL219730  17.786  12.720  15.125 -0.1567 -0.2163  0.2858
 1682DOPC   C1A19731  17.770  13.167  14.724  0.1325 -0.1552  0.0122
 1682DOPC   D2A19732  17.520  13.110  14.279  0.1029  0.1563 -0.1637
 1682DOPC   C3A19733  17.532  12.899  13.865  0.0425 -0.2349 -0.2185
 1682DOPC   C4A19734  17.309  12.966  13.446 -0.1189 -0.0019 -0.0612
 1682DOPC   C1B19735  18.040  12.599  14.729 -0.1944 -0.1227 -0.0111
 1682DOPC   D2B19736  18.329  12.500  14.436 -0.2135 -0.0118  0.3126
 1682DOPC   C3B19737  18.289  12.265  14.016 -0.3824  0.0531 -0.0088
 1682DOPC   C4B19738  17.978  12.243  13.641  0.0729 -0.0301 -0.1084
 1683DOPC   NC319739  15.538  16.639  14.955 -0.0937 -0.1158 -0.6320
 1683DOPC   PO419740  15.678  17.034  14.881 -0.0168 -0.2782 -0.3734
 1683DOPC   GL119741  15.498  17.100  14.642  0.4552 -0.0306  0.0474
 1683DOPC   GL219742  15.212  16.967  14.658 -0.0433  0.0751  0.2292
 1683DOPC   C1A19743  15.547  17.167  14.188  0.0189 -0.3664  0.2569
 1683DOPC   D2A19744  15.497  17.206  13.736 -0.2209 -0.0738  0.0440
 1683DOPC   C3A19745  15.790  17.348  13.410 -0.1669  0.2694  0.0268
 1683DOPC   C4A19746  15.943  17.233  13.003  0.1854  0.1009 -0.0736
 1683DOPC   C1B19747  15.178  16.515  14.522  0.1070 -0.0242 -0.1504
 1683DOPC   D2B19748  15.003  16.249  14.192 -0.1141 -0.0436  0.0273
 1683DOPC   C3B19749  15.038  16.134  13.734  0.2138  0.0685  0.0966
 1683DOPC   C4B19750  15.135  15.881  13.337 -0.0094  0.2662  0.0603
 1684DOPC   NC319751  21.703  20.413  14.837 -0.2970 -0.2862 -0.1608
 1684DOPC   PO419752  21.522  20.170  15.127 -0.1281  0.3267 -0.0610
 1684DOPC   GL119753  21.457  20.021  14.732 -0.0254  0.0848  0.1787
 1684DOPC   GL219754  21.620  19.830  14.630  0.1099 -0.0198  0.2649
 1684DOPC   C1A19755  21.559  20.226  14.317 -0.3308  0.1676 -0.0527
 1684DOPC   D2A19756  21.241  20.407  14.044 -0.0046  0.0311 -0.0831
 1684DOPC   C3A19757  21.245  20.869  14.022  0.0402 -0.0128  0.0675
 1684DOPC   C4A19758  21.241  21.213  13.771  0.0733 -0.1079 -0.2880
 1684DOPC   C1B19759  21.610  19.621  14.172 -0.1641  0.1355  0.0711
 1684DOPC   D2B19760  21.300  19.444  13.855  0.1285  0.0745  0.3464
 1684DOPC   C3B19761  21.087  19.084  13.891  0.1497 -0.2674  0.1690
 1684DOPC   C4B19762  20.973  18.761  13.662 -0.4304 -0.1241 -0.1351
 1685DOPS   CNO19763  17.427  16.643  15.286  0.2030  0.0007  0.2352
 1685DOPS   PO419764  17.161  16.787  15.061  0.0223  0.1314  0.4017
 1685DOPS   GL119765  17.133  16.984  14.716 -0.2206  0.2689 -0.1188
 1685DOPS   GL219766  17.014  16.760  14.555 -0.0239  0.0579 -0.1215
 1685DOPS   C1A19767  17.472  17.008  14.374 -0.4039 -0.0332 -0.3512
 1685DOPS   D2A19768  17.691  16.930  14.024  0.0544 -0.0766 -0.1531
 1685DOPS   C3A19769  17.769  16.722  13.613  0.2191 -0.1774  0.0208
 1685DOPS   C4A19770  17.968  16.473  13.371  0.0624 -0.1595  0.0358
 1685DOPS   C1B19771  17.036  16.825  14.106  0.2414 -0.1361 -0.1251
 1685DOPS   D2B19772  16.917  16.916  13.655  0.1796 -0.0130 -0.0026
 1685DOPS   C3B19773  16.587  17.245  13.539  0.2250 -0.0558  0.2575
 1685DOPS   C4B19774  16.439  17.443  13.103 -0.1185 -0.2477  0.1446
 1686DOPC   NC319775  18.101  15.513  15.125  0.0260 -0.2882 -0.1372
 1686DOPC   PO419776  18.477  15.642  15.153 -0.1208  0.0719 -0.0854
 1686DOPC   GL119777  18.428  15.842  14.878  0.4279  0.0935  0.0001
 1686DOPC   GL219778  18.180  15.958  14.812  0.0104 -0.1451  0.0892
 1686DOPC   C1A19779  18.417  15.556  14.519 -0.0427 -0.0213 -0.1588
 1686DOPC   D2A19780  18.826  15.439  14.243  0.0417 -0.0446 -0.0862
 1686DOPC   C3A19781  18.670  15.352  13.833  0.0951 -0.3065  0.1728
 1686DOPC   C4A19782  18.405  15.509  13.447  0.0896  0.1686 -0.1075
 1686DOPC   C1B19783  18.159  15.965  14.379  0.1499  0.0256  0.0617
 1686DOPC   D2B19784  18.173  16.187  13.971  0.0122  0.0226 -0.1214
 1686DOPC   C3B19785  17.729  16.218  13.795  0.0751  0.0929  0.2394
 1686DOPC   C4B19786  17.286  16.158  13.816  0.1845 -0.0080  0.3089
 1687DOPS   CNO19787  19.780  19.380  15.130  0.0538  0.1733  0.3006
 1687DOPS   PO419788  19.409  19.408  15.230 -0.2036 -0.0091  0.0227
 1687DOPS   GL119789  19.291  19.397  14.819 -0.0242 -0.3677 -0.1840
 1687DOPS   GL219790  18.987  19.406  14.847 -0.0485 -0.0771 -0.0217
 1687DOPS   C1A19791  19.086  19.010  14.602  0.0531 -0.3509  0.1958
 1687DOPS   D2A19792  18.910  18.731  14.257 -0.5240  0.1110 -0.1167
 1687DOPS   C3A19793  18.694  18.916  13.926 -0.0256  0.1055 -0.2929
 1687DOPS   C4A19794  18.865  19.004  13.528 -0.2508 -0.1452  0.1779
 1687DOPS   C1B19795  18.634  19.156  14.590 -0.0124  0.0792  0.2431
 1687DOPS   D2B19796  18.368  19.178  14.234  0.3291 -0.1425  0.1678
 1687DOPS   C3B19797  17.919  19.180  14.008  0.2122 -0.3461  0.2138
 1687DOPS   C4B19798  17.595  18.921  13.819  0.4541  0.1109  0.0609
 1688POSM   NC319799  22.686  11.674  15.911 -0.1455  0.2450  0.0868
 1688POSM   PO419800  23.093  11.666  15.947 -0.1402  0.1789 -0.0276
 1688POSM   AM119801  23.035  11.560  15.627  0.1651  0.1253 -0.1395
 1688POSM   AM219802  22.964  11.401  15.467  0.0893 -0.1446  0.1241
 1688POSM   T1A19803  23.139  11.789  15.142 -0.0570 -0.0192 -0.2616
 1688POSM   C2A19804  23.327  11.655  14.742 -0.0147 -0.1911  0.0436
 1688POSM   C3A19805  23.775  11.742  14.586 -0.0819  0.2834  0.0511
 1688POSM   C1B19806  22.882  11.313  15.122 -0.0974  0.0837 -0.3316
 1688POSM   D2B19807  22.774  11.442  14.644  0.1828  0.0584 -0.2791
 1688POSM   C3B19808  22.318  11.461  14.735 -0.0404 -0.0709  0.1012
 1688POSM   C4B19809  21.958  11.164  14.790  0.3349  0.0443 -0.0462
 1689DOPS   CNO19810  15.850  16.667  15.344  0.1587  0.1620 -0.0371
 1689DOPS   PO419811  16.000  16.323  15.194 -0.1280 -0.2678 -0.1390
 1689DOPS   GL119812  15.974  16.374  14.846 -0.4517 -0.0411  0.3507
 1689DOPS   GL219813  16.221  16.440  14.635 -0.2552  0.1752  0.2574
 1689DOPS   C1A19814  15.694  16.460  14.530 -0.0528  0.1782  0.1231
 1689DOPS   D2A19815  15.482  16.648  14.191 -0.1590  0.1656  0.2239
 1689DOPS   C3A19816  15.041  16.900  14.094  0.1339 -0.1131 -0.0238
 1689DOPS   C4A19817  14.646  17.096  14.041  0.0213 -0.1748 -0.3737
 1689DOPS   C1B19818  16.194  16.107  14.279  0.1149  0.2690 -0.3836
 1689DOPS   D2B19819  15.964  15.927  13.959 -0.1790 -0.1259 -0.0158
 1689DOPS   C3B19820  16.132  16.009  13.496 -0.0521  0.0607  0.0821
 1689DOPS   C4B19821  16.281  15.769  13.079 -0.4278 -0.1238 -0.1608
 1690DOPS   CNO19822  11.863  14.838  14.776 -0.1183  0.2345  0.0703
 1690DOPS   PO419823  12.213  14.976  14.852 -0.0801 -0.2950  0.2053
 1690DOPS   GL119824  12.409  15.041  14.460 -0.2833  0.2890 -0.2067
 1690DOPS   GL219825  12.524  15.257  14.311 -0.2245 -0.2674 -0.1173
 1690DOPS   C1A19826  12.236  14.877  14.019 -0.0948  0.0916 -0.1155
 1690DOPS   D2A19827  11.820  14.906  13.779  0.2041  0.0849 -0.1106
 1690DOPS   C3A19828  11.811  14.612  13.368 -0.0384  0.1946  0.1116
 1690DOPS   C4A19829  11.819  14.234  13.094  0.0242 -0.0462  0.0927
 1690DOPS   C1B19830  12.125  15.362  14.205  0.5162 -0.4883  0.0358
 1690DOPS   D2B19831  11.752  15.230  14.407 -0.0563 -0.0325 -0.2133
 1690DOPS   C3B19832  11.597  14.833  14.234  0.1312  0.0130  0.0777
 1690DOPS   C4B19833  11.215  14.564  14.106 -0.3176  0.1947  0.0958
 1691DOPE   NH319834  15.209  16.309  15.524  0.3066 -0.0504  0.1307
 1691DOPE   PO419835  15.490  16.352  15.360  0.0346 -0.0848  0.2869
 1691DOPE   GL119836  15.187  16.075  15.113  0.2433  0.2103  0.1034
 1691DOPE   GL219837  15.051  16.392  15.035 -0.0463  0.0467  0.1425
 1691DOPE   C1A19838  15.153  15.997  14.623  0.0998  0.1182  0.3356
 1691DOPE   D2A19839  15.106  15.757  14.185  0.1863 -0.3884 -0.2291
 1691DOPE   C3A19840  14.718  15.728  13.930 -0.0394 -0.1240 -0.0334
 1691DOPE   C4A19841  14.367  15.520  13.801  0.1209 -0.3705 -0.0823
 1691DOPE   C1B19842  14.725  16.105  14.837 -0.0426 -0.2189  0.1758
 1691DOPE   D2B19843  14.408  16.259  14.516 -0.0489 -0.1570  0.2481
 1691DOPE   C3B19844  14.495  16.214  14.041  0.2067  0.1846  0.3120
 1691DOPE   C4B19845  14.528  16.084  13.593 -0.0530  0.0402 -0.0406
 1692DOPE   NH319846  20.518  12.508  15.564  0.0045  0.1345 -0.1153
 1692DOPE   PO419847  20.408  12.845  15.549  0.1958 -0.1745 -0.1469
 1692DOPE   GL119848  20.310  12.614  15.154  0.0717 -0.0102  0.2609
 1692DOPE   GL219849  20.547  12.719  15.092 -0.1017  0.0326  0.0988
 1692DOPE   C1A19850  20.220  12.631  14.696  0.0576 -0.1519 -0.1292
 1692DOPE   D2A19851  20.197  12.789  14.256 -0.2327 -0.1429 -0.1465
 1692DOPE   C3A19852  20.356  12.583  13.892  0.1565  0.4068 -0.1741
 1692DOPE   C4A19853  20.506  12.535  13.414  0.1728  0.2502 -0.0628
 1692DOPE   C1B19854  20.780  13.088  14.924  0.0528 -0.1848  0.0610
 1692DOPE   D2B19855  21.188  13.194  14.748 -0.1333  0.2254 -0.0284
 1692DOPE   C3B19856  21.502  13.535  14.563 -0.0148 -0.1637 -0.3048
 1692DOPE   C4B19857  21.685  13.844  14.238  0.1944  0.0281 -0.2153
 1693DOPE   NH319858  18.991  21.453  14.870 -0.0675 -0.3123  0.0900
 1693DOPE   PO419859  19.035  21.136  14.963  0.0848  0.3768 -0.1986
 1693DOPE   GL119860  19.407  21.165  14.786 -0.0269  0.1557 -0.1689
 1693DOPE   GL219861  19.250  21.288  14.499  0.0275  0.0107  0.0954
 1693DOPE   C1A19862  19.696  21.039  14.420  0.3870  0.2143  0.1172
 1693DOPE   D2A19863  19.782  20.761  14.027  0.0719 -0.2223  0.1378
 1693DOPE   C3A19864  19.446  20.685  13.717 -0.0578  0.1176 -0.0697
 1693DOPE   C4A19865  19.096  20.612  13.352 -0.0621 -0.0571 -0.2402
 1693DOPE   C1B19866  19.273  21.144  14.076  0.0582 -0.2160  0.2900
 1693DOPE   D2B19867  19.183  21.101  13.648 -0.1132 -0.0475  0.2495
 1693DOPE   C3B19868  18.797  20.980  13.479 -0.1581 -0.0009  0.0182
 1693DOPE   C4B19869  18.326  20.885  13.517  0.0664 -0.0430  0.0674
 1694DOPC   NC319870  15.602  18.834  15.993 -0.2607  0.0357 -0.0768
 1694DOPC   PO419871  15.870  19.069  15.815 -0.1257  0.0266  0.2905
 1694DOPC   GL119872  15.761  19.156  15.544 -0.0040  0.2048 -0.2091
 1694DOPC   GL219873  15.682  19.417  15.362  0.2213 -0.2688 -0.4483
 1694DOPC   C1A19874  15.618  18.937  15.146  0.2339  0.1975 -0.1125
 1694DOPC   D2A19875  15.389  18.931  14.798  0.1656 -0.1205  0.2032
 1694DOPC   C3A19876  15.283  18.534  14.842 -0.0816  0.0223 -0.3047
 1694DOPC   C4A19877  15.474  18.131  14.727  0.0780  0.1011 -0.1469
 1694DOPC   C1B19878  15.827  19.362  14.934 -0.1255  0.0465  0.0210
 1694DOPC   D2B19879  16.070  19.103  14.646 -0.0722 -0.0465 -0.1644
 1694DOPC   C3B19880  16.124  18.665  14.470  0.4401 -0.1811  0.1992
 1694DOPC   C4B19881  15.909  18.286  14.411 -0.1600  0.0166 -0.2608
 1695DOPC   NC319882  23.203  14.957  14.923  0.0272  0.2896 -0.0133
 1695DOPC   PO419883  23.159  15.365  14.993  0.1491  0.0975 -0.0935
 1695DOPC   GL119884  23.075  15.594  14.618 -0.3687 -0.2405 -0.1411
 1695DOPC   GL219885  23.381  15.704  14.605 -0.2151  0.1514 -0.0888
 1695DOPC   C1A19886  22.911  15.513  14.150  0.1962 -0.3490  0.0897
 1695DOPC   D2A19887  22.796  15.868  13.823  0.3816  0.2792  0.2420
 1695DOPC   C3A19888  22.520  15.984  13.501 -0.1539  0.0399 -0.0485
 1695DOPC   C4A19889  22.336  16.053  13.037  0.1822 -0.0344  0.0356
 1695DOPC   C1B19890  23.763  15.515  14.569  0.0621  0.1678 -0.0074
 1695DOPC   D2B19891  23.941  15.241  14.207  0.1110  0.0749 -0.2957
 1695DOPC   C3B19892  24.397  15.286  14.079 -0.3240  0.0246  0.0438
 1695DOPC   C4B19893  24.836  15.182  13.882 -0.1006 -0.1837  0.0343
 1696POSM   NC319894  15.342  17.606  15.615  0.5059  0.2050 -0.0903
 1696POSM   PO419895  15.119  17.302  15.629  0.0595 -0.1015 -0.1620
 1696POSM   AM119896  15.032  17.273  15.336 -0.0941  0.2978  0.1549
 1696POSM   AM219897  15.023  17.111  15.120  0.0802  0.0248  0.0470
 1696POSM   T1A19898  15.211  17.489  14.871  0.1229  0.4154 -0.1482
 1696POSM   C2A19899  15.628  17.512  14.746 -0.2584 -0.1225  0.1226
 1696POSM   C3A19900  15.981  17.837  14.638 -0.2453 -0.0872  0.2043
 1696POSM   C1B19901  14.823  16.847  15.005  0.1137 -0.0470 -0.2745
 1696POSM   D2B19902  14.485  16.675  14.730 -0.1547 -0.0670 -0.2075
 1696POSM   C3B19903  14.725  16.630  14.335  0.0476 -0.0703 -0.0590
 1696POSM   C4B19904  14.788  16.545  13.812 -0.1760 -0.1558  0.1090
 1697POSM   NC319905  13.692  21.564  16.013 -0.1404  0.0066 -0.0724
 1697POSM   PO419906  13.659  21.949  16.187 -0.0016  0.0290 -0.2820
 1697POSM   AM119907  13.519  21.992  15.902 -0.1561 -0.1335 -0.0771
 1697POSM   AM219908  13.332  22.198  15.821  0.0661  0.3796 -0.1565
 1697POSM   T1A19909  13.472  21.690  15.492  0.2045  0.1990 -0.2714
 1697POSM   C2A19910  13.569  21.513  15.119 -0.0388  0.2127 -0.0534
 1697POSM   C3A19911  13.389  21.411  14.709 -0.0421  0.1743  0.2240
 1697POSM   C1B19912  13.131  22.113  15.527 -0.1394 -0.0597 -0.1380
 1697POSM   D2B19913  12.831  22.131  15.198 -0.0673 -0.0058  0.0580
 1697POSM   C3B19914  12.693  22.332  14.766 -0.1517 -0.2374 -0.2664
 1697POSM   C4B19915  12.645  22.639  14.479 -0.0688 -0.0559  0.4318
 1698DOPE   NH319916  14.188  14.049  15.275  0.2249 -0.1464 -0.1005
 1698DOPE   PO419917  14.428  14.205  15.113 -0.1807  0.1755  0.0086
 1698DOPE   GL119918  14.534  14.213  14.742 -0.0130  0.2618  0.1889
 1698DOPE   GL219919  14.242  14.090  14.669 -0.2850  0.0529 -0.1993
 1698DOPE   C1A19920  14.494  14.162  14.293  0.0691 -0.0758  0.3371
 1698DOPE   D2A19921  14.408  14.494  13.964 -0.0679  0.1324 -0.1104
 1698DOPE   C3A19922  14.762  14.637  13.708  0.0281 -0.0831  0.1124
 1698DOPE   C4A19923  15.043  14.840  13.415  0.0812 -0.0143  0.0728
 1698DOPE   C1B19924  14.174  14.526  14.415  0.0901  0.0976 -0.2893
 1698DOPE   D2B19925  14.332  14.945  14.241  0.0207  0.0908 -0.2425
 1698DOPE   C3B19926  14.311  14.945  13.785 -0.2817 -0.2864 -0.0373
 1698DOPE   C4B19927  14.649  15.194  13.522  0.1546 -0.0043 -0.2135
 1699DOPE   NH319928  12.673  15.636  15.430 -0.4527  0.0124 -0.1037
 1699DOPE   PO419929  12.772  15.499  15.122  0.4282  0.0698 -0.1449
 1699DOPE   GL119930  12.834  15.776  14.782 -0.2155  0.0384  0.6751
 1699DOPE   GL219931  12.684  15.836  14.534  0.4680  0.0543 -0.0102
 1699DOPE   C1A19932  13.270  15.937  14.699 -0.1662  0.1166  0.1065
 1699DOPE   D2A19933  13.552  16.266  14.602  0.1698 -0.0906 -0.3922
 1699DOPE   C3A19934  13.917  16.402  14.816  0.3176 -0.3654  0.1007
 1699DOPE   C4A19935  14.040  16.813  15.052  0.1003 -0.2802  0.0307
 1699DOPE   C1B19936  13.106  15.741  14.286  0.6298  0.2717  0.3728
 1699DOPE   D2B19937  13.148  15.900  13.822 -0.1250 -0.0595 -0.0107
 1699DOPE   C3B19938  12.744  15.965  13.641 -0.1770  0.0283 -0.1303
 1699DOPE   C4B19939  12.325  16.091  13.467 -0.1287 -0.0169 -0.2345
 1700DOPE   NH319940  17.306  22.744  15.478  0.3283  0.1634 -0.2213
 1700DOPE   PO419941  17.283  23.059  15.472 -0.0858  0.3901 -0.0909
 1700DOPE   GL119942  17.099  23.187  15.149  0.1281 -0.1874  0.3672
 1700DOPE   GL219943  17.116  22.925  15.040 -0.5000  0.1259 -0.1227
 1700DOPE   C1A19944  17.239  23.260  14.686  0.1993  0.1875  0.0510
 1700DOPE   D2A19945  17.434  23.476  14.290  0.3039  0.2334  0.0170
 1700DOPE   C3A19946  17.083  23.576  14.032  0.2008  0.1481  0.0825
 1700DOPE   C4A19947  16.791  23.325  13.736  0.0251 -0.1826 -0.0381
 1700DOPE   C1B19948  16.768  22.928  14.744  0.0594  0.2673  0.4380
 1700DOPE   D2B19949  16.847  23.121  14.321  0.0006  0.0343  0.1058
 1700DOPE   C3B19950  16.478  23.333  14.130  0.0327 -0.0688 -0.1595
 1700DOPE   C4B19951  16.356  23.792  14.279 -0.6021  0.3375 -0.0273
 1701DOPC   NC319952  12.406  12.727  15.581  0.0818  0.1552  0.0482
 1701DOPC   PO419953  12.147  13.019  15.490  0.0057 -0.1747  0.0248
 1701DOPC   GL119954  11.940  12.889  15.092 -0.2178  0.3087  0.0088
 1701DOPC   GL219955  12.059  12.637  15.077 -0.0751 -0.1946  0.0687
 1701DOPC   C1A19956  11.743  13.060  14.663  0.1746  0.1317  0.1304
 1701DOPC   D2A19957  11.524  13.020  14.257  0.1038  0.0194  0.0743
 1701DOPC   C3A19958  11.663  13.333  13.929 -0.0128  0.2480  0.0845
 1701DOPC   C4A19959  11.900  13.597  13.693  0.2128 -0.0306  0.1894
 1701DOPC   C1B19960  12.207  12.659  14.636  0.0116 -0.0060  0.1822
 1701DOPC   D2B19961  11.990  12.852  14.245  0.1003  0.3209  0.3075
 1701DOPC   C3B19962  12.032  12.608  13.924 -0.0870  0.0440 -0.1258
 1701DOPC   C4B19963  11.831  12.434  13.563 -0.0708 -0.0735  0.1147
 1702DOPC   NC319964  12.467  17.359  15.245 -0.1712  0.2094  0.0569
 1702DOPC   PO419965  12.441  17.728  15.452 -0.1617  0.2861  0.2947
 1702DOPC   GL119966  12.301  17.746  15.090  0.1083 -0.0934  0.1416
 1702DOPC   GL219967  12.221  17.967  15.021 -0.0855  0.2697  0.3312
 1702DOPC   C1A19968  12.292  17.514  14.700 -0.1390  0.0258  0.3698
 1702DOPC   D2A19969  12.136  17.317  14.273 -0.4782  0.1501  0.2112
 1702DOPC   C3A19970  11.981  17.522  13.874 -0.1735 -0.1183  0.1626
 1702DOPC   C4A19971  12.077  17.572  13.448 -0.0849  0.0055 -0.1735
 1702DOPC   C1B19972  12.636  17.936  14.776 -0.0145 -0.1146  0.1110
 1702DOPC   D2B19973  12.984  17.886  14.455 -0.1901  0.0691 -0.0806
 1702DOPC   C3B19974  12.903  17.734  13.976  0.0778 -0.1736 -0.1521
 1702DOPC   C4B19975  12.792  17.293  13.956  0.0738 -0.2707 -0.2237
 1703POSM   NC319976  16.203  13.746  15.680  0.2029  0.0666  0.0139
 1703POSM   PO419977  16.514  13.515  15.643  0.1356  0.0576  0.2393
 1703POSM   AM119978  16.594  13.400  15.325 -0.3364 -0.4523 -0.0861
 1703POSM   AM219979  16.806  13.414  15.122  0.2698  0.0590  0.0445
 1703POSM   T1A19980  16.279  13.528  14.935  0.0837  0.2671  0.0500
 1703POSM   C2A19981  16.213  13.494  14.517  0.4537 -0.2685  0.0419
 1703POSM   C3A19982  16.131  13.554  14.088  0.1120  0.1329  0.0400
 1703POSM   C1B19983  16.760  13.482  14.728 -0.0134  0.2344 -0.1646
 1703POSM   D2B19984  16.711  13.613  14.230 -0.2338 -0.1078  0.5128
 1703POSM   C3B19985  16.428  13.974  14.167  0.0660 -0.1986 -0.1458
 1703POSM   C4B19986  16.358  14.366  14.409 -0.0941  0.0920  0.0706
 1704DOPC   NC319987  14.127  23.191  15.759 -0.3403 -0.3037 -0.0415
 1704DOPC   PO419988  14.007  22.858  15.942 -0.0019  0.3384 -0.1222
 1704DOPC   GL119989  13.947  22.818  15.594 -0.0850  0.2462 -0.2742
 1704DOPC   GL219990  14.205  22.779  15.445  0.2469  0.0058  0.0962
 1704DOPC   C1A19991  13.862  23.120  15.280  0.0327 -0.2836 -0.2074
 1704DOPC   D2A19992  13.708  23.390  14.944 -0.1048  0.2473  0.1935
 1704DOPC   C3A19993  13.631  23.779  15.203  0.0521 -0.1087 -0.0017
 1704DOPC   C4A19994  13.584  23.916  15.593  0.2576 -0.1950 -0.1906
 1704DOPC   C1B19995  14.253  22.651  15.003  0.0465  0.2534  0.0925
 1704DOPC   D2B19996  14.434  22.345  14.661  0.2495  0.0541  0.0959
 1704DOPC   C3B19997  14.140  22.092  14.426  0.0314  0.1350  0.0605
 1704DOPC   C4B19998  13.947  22.141  14.022 -0.0925  0.1703 -0.0028
 1705DOPE   NH319999  19.873  14.459  15.032 -0.0385 -0.1568  0.2380
 1705DOPE   PO420000  19.597  14.317  15.087 -0.0829 -0.2245  0.2468
 1705DOPE   GL120001  19.707  14.033  14.899 -0.5726  0.1584 -0.1938
 1705DOPE   GL220002  19.639  14.171  14.620 -0.2136  0.2518  0.0310
 1705DOPE   C1A20003  19.890  13.699  14.688  0.0339 -0.0193 -0.0166
 1705DOPE   D2A20004  19.879  13.442  14.296 -0.1427 -0.2779  0.2718
 1705DOPE   C3A20005  19.763  13.629  13.837  0.2284 -0.1175 -0.2731
 1705DOPE   C4A20006  19.571  13.536  13.359 -0.0126  0.1102  0.4351
 1705DOPE   C1B20007  19.595  13.958  14.228 -0.1545  0.2119 -0.2579
 1705DOPE   D2B20008  19.409  14.209  13.850  0.1807  0.3743  0.1048
 1705DOPE   C3B20009  19.525  14.015  13.471  0.2847 -0.2523  0.0704
 1705DOPE   C4B20010  19.652  13.897  13.051  0.0387  0.1538 -0.2097
 1706DOPC   NC320011  14.596  18.837  15.573 -0.1664  0.0972  0.1942
 1706DOPC   PO420012  14.551  19.225  15.647  0.1049  0.3880  0.0720
 1706DOPC   GL120013  14.488  19.127  15.241  0.1513 -0.2980 -0.3473
 1706DOPC   GL220014  14.496  19.423  15.176 -0.1062  0.1675  0.3889
 1706DOPC   C1A20015  14.144  18.981  14.952 -0.0470 -0.1998  0.2583
 1706DOPC   D2A20016  13.841  18.647  14.960 -0.2981  0.3161  0.0365
 1706DOPC   C3A20017  13.500  18.659  14.610 -0.1026 -0.2194  0.0815
 1706DOPC   C4A20018  13.397  18.823  14.181  0.0213 -0.0440 -0.1181
 1706DOPC   C1B20019  14.416  19.398  14.718 -0.3503  0.0482  0.1662
 1706DOPC   D2B20020  14.731  19.313  14.391  0.1342 -0.1979 -0.0847
 1706DOPC   C3B20021  14.817  19.082  14.011  0.0364  0.4168  0.0713
 1706DOPC   C4B20022  14.854  18.720  13.822 -0.1152 -0.3731 -0.0023
 1707DOPE   NH320023  11.433  19.906  15.799  0.3223 -0.1303  0.0400
 1707DOPE   PO420024  11.590  20.145  15.844  0.1640  0.1087 -0.1438
 1707DOPE   GL120025  11.500  20.351  15.468 -0.1471 -0.2598  0.2244
 1707DOPE   GL220026  11.692  20.546  15.577  0.1279 -0.0896 -0.2265
 1707DOPE   C1A20027  11.621  20.415  15.003 -0.1058  0.1318 -0.2886
 1707DOPE   D2A20028  11.529  20.336  14.507 -0.1269  0.0577 -0.1567
 1707DOPE   C3A20029  11.843  20.539  14.208 -0.2608  0.1007 -0.0372
 1707DOPE   C4A20030  11.925  20.793  13.858  0.2362 -0.0163 -0.1394
 1707DOPE   C1B20031  11.655  20.917  15.201 -0.0086  0.0334 -0.3749
 1707DOPE   D2B20032  11.653  21.339  14.959 -0.0838  0.1295  0.0676
 1707DOPE   C3B20033  11.634  21.501  14.542  0.1215 -0.5352  0.1254
 1707DOPE   C4B20034  11.810  21.840  14.314 -0.0620 -0.2552  0.0721
 1708DOPE   NH320035  21.213  12.853  15.965 -0.0680 -0.0739  0.3176
 1708DOPE   PO420036  21.370  12.943  15.696 -0.2238  0.3576  0.1903
 1708DOPE   GL120037  21.577  12.731  15.373 -0.0318 -0.3111  0.3079
 1708DOPE   GL220038  21.387  12.790  15.103  0.0385  0.1406 -0.0013
 1708DOPE   C1A20039  21.645  12.306  15.248  0.1415  0.1142  0.4231
 1708DOPE   D2A20040  21.276  12.043  15.078 -0.1208  0.1287  0.0440
 1708DOPE   C3A20041  21.074  12.059  14.642 -0.0137  0.0664  0.1196
 1708DOPE   C4A20042  20.813  12.240  14.286 -0.0110 -0.0382 -0.0758
 1708DOPE   C1B20043  21.100  12.714  14.776 -0.2780 -0.1256  0.0513
 1708DOPE   D2B20044  20.689  12.752  14.526  0.0260  0.0202  0.0422
 1708DOPE   C3B20045  20.781  12.869  14.092 -0.2234  0.1744 -0.2613
 1708DOPE   C4B20046  20.653  13.067  13.649 -0.3791 -0.2064 -0.2668
 1709DOPC   NC320047  14.407  14.604  14.868  0.1397 -0.2740 -0.1116
 1709DOPC   PO420048  14.603  14.957  14.851  0.0664 -0.3882  0.1013
 1709DOPC   GL120049  14.823  14.695  14.642 -0.2322  0.1515  0.0794
 1709DOPC   GL220050  14.800  14.886  14.373  0.0010  0.0016  0.1871
 1709DOPC   C1A20051  14.966  14.442  14.264  0.2638  0.0614 -0.1077
 1709DOPC   D2A20052  14.805  14.163  13.918 -0.0286 -0.2397 -0.0707
 1709DOPC   C3A20053  14.559  14.203  13.586 -0.0588 -0.0990  0.1341
 1709DOPC   C4A20054  14.432  14.259  13.157 -0.5495 -0.1540  0.0133
 1709DOPC   C1B20055  14.825  15.128  13.978  0.0480 -0.4108 -0.1868
 1709DOPC   D2B20056  15.124  15.440  13.766  0.0738  0.3182  0.0703
 1709DOPC   C3B20057  15.535  15.563  13.650  0.1412 -0.0742 -0.3369
 1709DOPC   C4B20058  15.833  15.515  13.248  0.0637 -0.1116  0.1433
 1710DOPC   NC320059  15.969  15.781  15.232 -0.0038  0.3036  0.1965
 1710DOPC   PO420060  15.792  15.521  15.008  0.3097  0.2186 -0.2203
 1710DOPC   GL120061  15.946  15.606  14.691  0.3236 -0.4156  0.1043
 1710DOPC   GL220062  15.991  15.888  14.713 -0.1790  0.1805 -0.0548
 1710DOPC   C1A20063  15.821  15.508  14.245  0.1923  0.0085 -0.1627
 1710DOPC   D2A20064  16.005  15.355  13.848 -0.0655  0.0080 -0.3034
 1710DOPC   C3A20065  16.257  15.329  13.455 -0.1583 -0.5123 -0.3336
 1710DOPC   C4A20066  16.328  15.259  12.939 -0.3124  0.2073 -0.2615
 1710DOPC   C1B20067  15.642  15.963  14.419 -0.3938  0.0344  0.2745
 1710DOPC   D2B20068  15.496  16.195  14.034 -0.0941  0.4079  0.1681
 1710DOPC   C3B20069  15.596  16.086  13.623 -0.1787  0.3133 -0.1059
 1710DOPC   C4B20070  15.787  16.471  13.356 -0.1460 -0.0170  0.1194
 1711DOPC   NC320071  22.160  20.319  15.231  0.2991  0.0224  0.2501
 1711DOPC   PO420072  22.056  20.639  14.967  0.0337  0.0270 -0.1304
 1711DOPC   GL120073  22.413  20.551  14.742  0.0386  0.0910  0.1901
 1711DOPC   GL220074  22.621  20.572  14.808 -0.1757 -0.5759 -0.0622
 1711DOPC   C1A20075  22.582  20.279  14.407  0.0000  0.1093 -0.2581
 1711DOPC   D2A20076  22.455  20.108  14.046  0.1954  0.2866  0.0533
 1711DOPC   C3A20077  22.208  20.259  13.662 -0.3234 -0.0624  0.2116
 1711DOPC   C4A20078  21.929  20.615  13.539  0.1153  0.1402 -0.1046
 1711DOPC   C1B20079  22.932  20.702  14.475  0.1268 -0.2539  0.0896
 1711DOPC   D2B20080  23.355  20.635  14.257 -0.0844 -0.3627  0.1087
 1711DOPC   C3B20081  23.152  20.586  13.807  0.2669  0.1106 -0.2711
 1711DOPC   C4B20082  22.760  20.608  13.552  0.0994 -0.0080  0.0187
 1712DOPC   NC320083  11.960  13.358  15.160 -0.2782  0.0304 -0.1408
 1712DOPC   PO420084  11.675  13.214  15.385 -0.1239 -0.2682  0.2395
 1712DOPC   GL120085  11.511  13.050  15.088 -0.0507  0.1850 -0.0744
 1712DOPC   GL220086  11.441  12.787  14.955 -0.0938 -0.2876 -0.2176
 1712DOPC   C1A20087  11.222  13.150  14.738 -0.1258  0.0802  0.1734
 1712DOPC   D2A20088  11.032  13.149  14.322 -0.1858  0.0664 -0.1098
 1712DOPC   C3A20089  11.050  13.178  13.871 -0.0233  0.2200  0.1234
 1712DOPC   C4A20090  11.317  13.335  13.533  0.0623  0.1555  0.3331
 1712DOPC   C1B20091  11.512  12.550  14.518  0.1163 -0.0734 -0.2919
 1712DOPC   D2B20092  11.559  12.554  14.063  0.0269 -0.1817  0.1079
 1712DOPC   C3B20093  11.537  12.828  13.728  0.0187  0.0919  0.0416
 1712DOPC   C4B20094  11.644  13.056  13.357  0.3174  0.2483 -0.1239
 1713DOPC   NC320095  17.277  15.642  15.131  0.0241  0.5694  0.2001
 1713DOPC   PO420096  17.619  15.477  15.157 -0.2118 -0.1153 -0.1798
 1713DOPC   GL120097  17.684  15.487  14.855 -0.0747 -0.0221 -0.1208
 1713DOPC   GL220098  17.844  15.637  14.696 -0.1116  0.1410 -0.0938
 1713DOPC   C1A20099  17.378  15.482  14.497 -0.2107 -0.0768  0.1749
 1713DOPC   D2A20100  17.340  15.590  14.055  0.0573 -0.0222 -0.0213
 1713DOPC   C3A20101  17.669  15.652  13.724  0.0614  0.0175 -0.3124
 1713DOPC   C4A20102  17.963  15.849  13.404 -0.0932 -0.1259  0.0572
 1713DOPC   C1B20103  17.921  15.290  14.417  0.2967  0.1924 -0.1803
 1713DOPC   D2B20104  17.520  15.079  14.225 -0.1550 -0.1297  0.3451
 1713DOPC   C3B20105  17.476  15.191  13.750 -0.1642 -0.2711 -0.1267
 1713DOPC   C4B20106  17.386  14.946  13.405  0.0640 -0.1757 -0.0677
 1714DOPE   NH320107  21.781  17.879  14.989 -0.1334  0.1274 -0.1778
 1714DOPE   PO420108  21.653  18.089  14.827  0.1749 -0.0408 -0.0406
 1714DOPE   GL120109  21.758  18.140  14.496 -0.0481 -0.3405  0.0006
 1714DOPE   GL220110  21.642  18.455  14.439 -0.0405  0.0928  0.3101
 1714DOPE   C1A20111  22.016  18.278  14.093  0.0325  0.1512 -0.0808
 1714DOPE   D2A20112  22.041  18.257  13.638 -0.1733 -0.4256 -0.3889
 1714DOPE   C3A20113  21.907  18.636  13.361 -0.1173  0.2042  0.3027
 1714DOPE   C4A20114  21.532  18.828  13.163 -0.0242  0.0895  0.0461
 1714DOPE   C1B20115  21.207  18.479  14.188  0.2266  0.0725 -0.0938
 1714DOPE   D2B20116  20.821  18.725  14.193  0.2024  0.2007 -0.4864
 1714DOPE   C3B20117  20.589  18.462  13.877 -0.2099 -0.1818  0.0419
 1714DOPE   C4B20118  20.620  18.424  13.400 -0.0159  0.0814  0.1457
 1715DOPE   NH320119  20.306  18.416  15.187 -0.0668 -0.0352  0.3165
 1715DOPE   PO420120  20.179  18.191  14.922 -0.0922 -0.1259 -0.1362
 1715DOPE   GL120121  20.099  18.168  14.530 -0.1825  0.4260 -0.2587
 1715DOPE   GL220122  19.952  18.458  14.483  0.0917 -0.1339  0.0038
 1715DOPE   C1A20123  20.318  17.991  14.129  0.1867 -0.1815  0.1792
 1715DOPE   D2A20124  20.562  17.831  13.693 -0.1639 -0.3482 -0.0871
 1715DOPE   C3A20125  20.781  17.985  13.289 -0.1145 -0.1265 -0.0643
 1715DOPE   C4A20126  21.068  18.341  13.172  0.0385  0.2195  0.1937
 1715DOPE   C1B20127  19.956  18.257  13.986  0.0873  0.1077  0.2405
 1715DOPE   D2B20128  20.209  18.227  13.644  0.1068 -0.3080 -0.0439
 1715DOPE   C3B20129  20.202  17.851  13.353  0.0023 -0.2313  0.3083
 1715DOPE   C4B20130  20.112  17.401  13.256  0.2255 -0.0287 -0.0745
 1716POSM   NC320131  16.511  20.398  15.339 -0.0691  0.0929  0.2156
 1716POSM   PO420132  16.759  20.102  15.332 -0.0655 -0.0963  0.0209
 1716POSM   AM120133  16.796  20.195  14.996  0.0409 -0.2437 -0.3182
 1716POSM   AM220134  16.968  20.352  14.798 -0.1440 -0.0351  0.0901
 1716POSM   T1A20135  16.722  19.959  14.589 -0.0341 -0.0293 -0.1009
 1716POSM   C2A20136  16.536  19.741  14.234 -0.1796 -0.3593 -0.1373
 1716POSM   C3A20137  16.511  19.771  13.739  0.0484 -0.1268 -0.0087
 1716POSM   C1B20138  17.177  20.561  14.565  0.2691  0.4074 -0.1131
 1716POSM   D2B20139  17.200  20.756  14.128 -0.1561  0.4384 -0.1264
 1716POSM   C3B20140  17.481  20.644  13.769 -0.0937 -0.1042 -0.1155
 1716POSM   C4B20141  17.734  20.619  13.360 -0.3836  0.0770 -0.0026
 1717DOPC   NC320142  19.261  12.968  15.331  0.2501  0.1751  0.3042
 1717DOPC   PO420143  18.885  12.938  15.496  0.2256  0.3746 -0.2129
 1717DOPC   GL120144  18.717  12.751  15.218  0.3343  0.0137  0.4200
 1717DOPC   GL220145  18.723  12.523  15.290  0.2971 -0.0725  0.0913
 1717DOPC   C1A20146  18.730  12.699  14.768  0.3901 -0.0715  0.1861
 1717DOPC   D2A20147  18.890  12.597  14.334  0.2163  0.2912 -0.1399
 1717DOPC   C3A20148  19.258  12.300  14.362 -0.0785 -0.2329 -0.2116
 1717DOPC   C4A20149  19.592  12.344  14.693 -0.3546  0.1797  0.2715
 1717DOPC   C1B20150  18.715  12.061  15.371 -0.1844  0.2473 -0.0942
 1717DOPC   D2B20151  19.069  11.770  15.502  0.2893  0.0015 -0.1212
 1717DOPC   C3B20152  19.291  11.657  15.171  0.3285 -0.5175 -0.2109
 1717DOPC   C4B20153  19.456  11.461  14.702 -0.1468 -0.3634  0.1395
 1718POSM   NC320154  14.335  13.225  14.993 -0.2544 -0.2604 -0.2399
 1718POSM   PO420155  14.694  13.265  15.188  0.1173  0.1709  0.1009
 1718POSM   AM120156  14.894  13.236  14.902  0.2512  0.4105  0.0589
 1718POSM   AM220157  14.786  13.209  14.657 -0.3346 -0.1473 -0.0301
 1718POSM   T1A20158  15.206  13.366  14.524 -0.2583 -0.1072 -0.4432
 1718POSM   C2A20159  15.269  13.589  14.117  0.0574  0.0725  0.1303
 1718POSM   C3A20160  15.262  13.522  13.624  0.1941  0.2380  0.2657
 1718POSM   C1B20161  14.573  13.372  14.463 -0.0718 -0.0813 -0.0682
 1718POSM   D2B20162  14.519  13.256  14.001 -0.4162 -0.2379  0.1904
 1718POSM   C3B20163  14.574  12.898  13.755  0.1863  0.2302  0.2690
 1718POSM   C4B20164  14.473  12.585  13.466  0.1441  0.0380 -0.0786
 1719POSM   NC320165  13.254  22.079  16.404 -0.3055 -0.0531 -0.0753
 1719POSM   PO420166  12.887  22.088  16.215 -0.2643 -0.0005 -0.0707
 1719POSM   AM120167  12.830  22.340  15.982 -0.0997  0.1680  0.1151
 1719POSM   AM220168  12.628  22.374  15.746  0.2012  0.0084  0.2545
 1719POSM   T1A20169  12.789  22.828  15.876  0.1309 -0.0480  0.1250
 1719POSM   C2A20170  12.421  22.939  15.658  0.1708 -0.0315  0.3741
 1719POSM   C3A20171  12.106  22.646  15.432 -0.1013 -0.3764 -0.0621
 1719POSM   C1B20172  12.689  22.544  15.412  0.1407 -0.2282  0.2125
 1719POSM   D2B20173  12.771  22.761  15.022  0.3796  0.0561 -0.1429
 1719POSM   C3B20174  12.341  22.606  14.997 -0.0456  0.2012  0.2894
 1719POSM   C4B20175  11.855  22.539  14.908 -0.1027 -0.0652  0.0144
 1720DOPS   CNO20176  16.662  18.589  15.301 -0.1103 -0.0072 -0.0462
 1720DOPS   PO420177  16.855  18.346  15.036  0.2524 -0.3353  0.0349
 1720DOPS   GL120178  16.702  18.298  14.758 -0.2157  0.1882 -0.0358
 1720DOPS   GL220179  16.545  18.067  14.747  0.1055 -0.3229 -0.2161
 1720DOPS   C1A20180  16.923  18.345  14.364 -0.0962  0.1045 -0.0138
 1720DOPS   D2A20181  17.001  18.498  13.919 -0.1860 -0.1860 -0.2362
 1720DOPS   C3A20182  17.002  18.312  13.458 -0.0304  0.0536  0.1942
 1720DOPS   C4A20183  16.788  18.292  13.008 -0.1481 -0.0414  0.2341
 1720DOPS   C1B20184  16.365  18.153  14.270 -0.0159  0.0164  0.2260
 1720DOPS   D2B20185  16.162  18.398  13.987  0.4272  0.1281 -0.2232
 1720DOPS   C3B20186  15.926  18.341  13.610 -0.1858  0.0709  0.0181
 1720DOPS   C4B20187  15.693  18.147  13.291 -0.0615  0.2978  0.1289
 1721DOPC   NC320188  15.533  20.368  15.538  0.1132 -0.1401  0.4992
 1721DOPC   PO420189  15.216  20.492  15.783 -0.0383  0.0443 -0.1521
 1721DOPC   GL120190  14.788  20.519  15.721 -0.0334  0.3220  0.2508
 1721DOPC   GL220191  14.774  20.220  15.562  0.2197 -0.2276  0.0765
 1721DOPC   C1A20192  14.420  20.535  15.401 -0.1195 -0.2837  0.0731
 1721DOPC   D2A20193  14.306  20.899  15.069  0.1152  0.0997 -0.1567
 1721DOPC   C3A20194  13.839  20.896  15.120  0.5168  0.4784  0.0281
 1721DOPC   C4A20195  13.427  21.052  15.151  0.3402  0.2726 -0.1035
 1721DOPC   C1B20196  14.548  20.116  15.127 -0.2348 -0.0582 -0.2608
 1721DOPC   D2B20197  14.551  19.980  14.666  0.0108 -0.1192  0.1890
 1721DOPC   C3B20198  14.813  19.879  14.278 -0.3489  0.1651  0.1471
 1721DOPC   C4B20199  14.737  20.057  13.900 -0.1475 -0.3489  0.2856
 1722DOPE   NH320200  14.820  19.767  15.888  0.1358 -0.0094  0.0497
 1722DOPE   PO420201  14.930  19.449  15.924 -0.0117  0.1090  0.1488
 1722DOPE   GL120202  14.897  19.527  15.505  0.0094  0.5786  0.0853
 1722DOPE   GL220203  15.246  19.531  15.486  0.2332  0.5972  0.1578
 1722DOPE   C1A20204  15.046  19.799  15.135 -0.1747 -0.1914  0.3158
 1722DOPE   D2A20205  15.430  19.840  14.849  0.0567 -0.1967  0.0794
 1722DOPE   C3A20206  15.581  19.536  14.535  0.1899  0.0219  0.3630
 1722DOPE   C4A20207  15.675  19.156  14.345  0.0927 -0.2420  0.1284
 1722DOPE   C1B20208  15.530  19.883  15.297 -0.0388  0.1544 -0.1591
 1722DOPE   D2B20209  15.894  19.843  15.031 -0.2169 -0.2627  0.1476
 1722DOPE   C3B20210  15.840  20.129  14.682 -0.0187  0.1964  0.1390
 1722DOPE   C4B20211  15.703  20.473  14.334  0.1176  0.0828 -0.1132
 1723DOPE   NH320212  16.176  12.709  15.535 -0.0204 -0.0257  0.3236
 1723DOPE   PO420213  16.302  12.999  15.648  0.2857 -0.0917  0.1023
 1723DOPE   GL120214  16.427  13.008  15.302 -0.0219  0.1020 -0.1782
 1723DOPE   GL220215  16.672  12.940  15.264 -0.1224  0.0790 -0.1862
 1723DOPE   C1A20216  16.397  13.049  14.848 -0.0304  0.1687  0.1243
 1723DOPE   D2A20217  16.337  13.048  14.345 -0.0883 -0.1496  0.3665
 1723DOPE   C3A20218  16.174  12.950  13.911  0.0405  0.0904 -0.1316
 1723DOPE   C4A20219  15.932  12.606  13.742  0.0540 -0.0865 -0.0792
 1723DOPE   C1B20220  16.901  12.998  14.844 -0.1478  0.0248 -0.1209
 1723DOPE   D2B20221  17.004  13.076  14.389 -0.4813 -0.2051  0.2785
 1723DOPE   C3B20222  16.723  13.159  14.045 -0.1684  0.1841 -0.0416
 1723DOPE   C4B20223  16.502  13.426  13.832 -0.0370 -0.1597  0.1557
 1724DOPC   NC320224  18.569  15.228  14.892 -0.3247 -0.1802  0.2443
 1724DOPC   PO420225  18.250  15.096  15.026  0.1792 -0.3146 -0.1717
 1724DOPC   GL120226  18.231  14.998  14.608 -0.1607 -0.1281  0.0656
 1724DOPC   GL220227  18.507  15.051  14.407  0.1139 -0.4795  0.0628
 1724DOPC   C1A20228  18.012  14.835  14.209  0.0482  0.0526 -0.3197
 1724DOPC   D2A20229  18.062  14.743  13.788 -0.2513  0.1517 -0.0829
 1724DOPC   C3A20230  17.942  14.361  13.503 -0.1640  0.2037  0.3387
 1724DOPC   C4A20231  17.794  13.949  13.264 -0.2709 -0.0962  0.0105
 1724DOPC   C1B20232  18.285  15.252  14.097 -0.2441  0.1278 -0.0651
 1724DOPC   D2B20233  18.102  15.617  13.931  0.2290  0.1669 -0.1734
 1724DOPC   C3B20234  17.740  15.850  14.171  0.4536 -0.1361  0.0811
 1724DOPC   C4B20235  17.352  16.033  14.343  0.2625 -0.0317 -0.0548
 1725POSM   NC320236  18.514  19.827  14.747  0.1742  0.2186 -0.1660
 1725POSM   PO420237  18.841  20.010  14.969  0.1197 -0.0105  0.3369
 1725POSM   AM120238  18.843  20.081  14.662 -0.0107  0.0623  0.3374
 1725POSM   AM220239  19.007  19.867  14.535  0.2237  0.0367  0.1195
 1725POSM   T1A20240  18.823  20.004  14.144 -0.1102  0.0993 -0.0499
 1725POSM   C2A20241  18.846  19.925  13.637  0.2396 -0.2784  0.0689
 1725POSM   C3A20242  18.909  20.168  13.197 -0.2158 -0.1887 -0.1603
 1725POSM   C1B20243  19.094  19.582  14.395  0.2944 -0.0407  0.0871
 1725POSM   D2B20244  18.917  19.320  14.130 -0.2234 -0.2852  0.2402
 1725POSM   C3B20245  18.658  19.510  13.754 -0.0071  0.0905  0.0186
 1725POSM   C4B20246  18.383  19.468  13.427 -0.0174 -0.2020  0.4735
 1726POSM   NC320247  14.565  22.550  15.596  0.1798 -0.0739  0.1296
 1726POSM   PO420248  14.209  22.399  15.811  0.1565 -0.1244  0.3009
 1726POSM   AM120249  13.950  22.411  15.588  0.1950  0.3182 -0.2267
 1726POSM   AM220250  13.677  22.453  15.549 -0.1778 -0.1318  0.2104
 1726POSM   T1A20251  13.813  22.654  15.148 -0.1964 -0.2204  0.3708
 1726POSM   C2A20252  13.655  22.907  14.830  0.2335 -0.4714  0.3515
 1726POSM   C3A20253  13.534  22.800  14.400 -0.0287  0.2084 -0.3399
 1726POSM   C1B20254  13.610  22.199  15.338  0.1525 -0.1834 -0.3085
 1726POSM   D2B20255  13.322  21.991  15.032  0.0912  0.0568 -0.0533
 1726POSM   C3B20256  13.051  21.998  14.689 -0.1891 -0.0745  0.0426
 1726POSM   C4B20257  12.864  22.111  14.325 -0.2303 -0.1148  0.1394
 1727DOPC   NC320258  20.310  21.720  15.055  0.4613  0.0786  0.0992
 1727DOPC   PO420259  20.284  21.403  14.839 -0.0330  0.0641 -0.0272
 1727DOPC   GL120260  20.402  21.469  14.433 -0.6790  0.1858  0.2358
 1727DOPC   GL220261  20.185  21.693  14.437 -0.0199  0.0550  0.4939
 1727DOPC   C1A20262  20.444  21.456  13.929  0.1442 -0.1477 -0.3333
 1727DOPC   D2A20263  20.763  21.344  13.589  0.0443  0.0431  0.2111
 1727DOPC   C3A20264  20.536  21.373  13.219 -0.1121  0.0822  0.1745
 1727DOPC   C4A20265  20.594  21.322  12.757  0.0097 -0.1201 -0.1444
 1727DOPC   C1B20266  20.116  21.884  14.036 -0.0586  0.3124  0.1414
 1727DOPC   D2B20267  19.752  21.881  13.717  0.0274 -0.2739  0.2370
 1727DOPC   C3B20268  19.494  21.553  13.512 -0.1288  0.2335  0.2322
 1727DOPC   C4B20269  19.098  21.466  13.245  0.0781  0.0349  0.4788
 1728DOPS   CNO20270  15.987  17.449  15.827  0.4540  0.3564 -0.0410
 1728DOPS   PO420271  15.781  17.780  15.776  0.0137  0.1249 -0.1135
 1728DOPS   GL120272  15.767  17.962  15.399  0.1174 -0.1652 -0.2996
 1728DOPS   GL220273  15.679  17.843  15.096 -0.1202 -0.1324  0.0338
 1728DOPS   C1A20274  16.098  18.129  15.099 -0.1677 -0.3129  0.0850
 1728DOPS   D2A20275  16.285  18.560  14.907 -0.1143  0.0571  0.2563
 1728DOPS   C3A20276  16.627  18.811  14.648 -0.1368  0.0320 -0.2492
 1728DOPS   C4A20277  16.949  18.855  14.339 -0.4112 -0.3347 -0.1749
 1728DOPS   C1B20278  15.653  18.308  15.142 -0.1919 -0.3532  0.3107
 1728DOPS   D2B20279  15.803  18.632  14.820 -0.1361 -0.3869 -0.2807
 1728DOPS   C3B20280  15.561  18.627  14.404  0.3542  0.1929 -0.0445
 1728DOPS   C4B20281  15.154  18.923  14.326  0.0715  0.0996 -0.1067
 1729DOPE   NH320282  22.258  17.272  14.778  0.1533  0.3024  0.1258
 1729DOPE   PO420283  21.950  17.392  14.808  0.1009 -0.1599 -0.0732
 1729DOPE   GL120284  22.062  17.343  14.381 -0.1239 -0.1940 -0.0903
 1729DOPE   GL220285  21.776  17.392  14.319  0.1217 -0.0282 -0.1933
 1729DOPE   C1A20286  21.991  17.158  13.966 -0.0468 -0.1574 -0.3349
 1729DOPE   D2A20287  21.884  17.124  13.544 -0.3768  0.1739 -0.0879
 1729DOPE   C3A20288  22.132  17.008  13.166 -0.0258  0.0650 -0.0272
 1729DOPE   C4A20289  21.978  16.960  12.726  0.1355  0.0915  0.0898
 1729DOPE   C1B20290  21.523  17.435  13.914  0.0118  0.1634 -0.1137
 1729DOPE   D2B20291  21.369  17.169  13.467  0.0689 -0.0558 -0.1242
 1729DOPE   C3B20292  21.279  16.700  13.653 -0.2275 -0.0240 -0.2609
 1729DOPE   C4B20293  21.005  16.485  13.436 -0.0824  0.1993  0.0787
 1730DOPS   CNO20294  17.144  20.427  15.336  0.2535 -0.1711 -0.3569
 1730DOPS   PO420295  17.065  20.814  15.350 -0.0023 -0.0847  0.1012
 1730DOPS   GL120296  16.861  20.810  14.913  0.4619  0.0328 -0.0336
 1730DOPS   GL220297  16.606  20.797  15.095  0.0314  0.1010  0.1118
 1730DOPS   C1A20298  16.770  20.952  14.488 -0.1445  0.0104  0.0753
 1730DOPS   D2A20299  16.906  21.194  14.137  0.0788  0.0967  0.1940
 1730DOPS   C3A20300  17.012  21.167  13.663 -0.0266 -0.0924 -0.3636
 1730DOPS   C4A20301  17.019  21.068  13.160  0.1085 -0.0315 -0.2330
 1730DOPS   C1B20302  16.540  20.543  14.712  0.0885  0.2454 -0.0930
 1730DOPS   D2B20303  16.755  20.488  14.257 -0.1039 -0.0509  0.0663
 1730DOPS   C3B20304  16.587  20.207  13.956 -0.1032  0.2477  0.2937
 1730DOPS   C4B20305  16.287  20.288  13.577  0.1884  0.1178  0.2228
 1731DOPS   CNO20306  13.063  13.298  15.627  0.1804 -0.1828  0.0362
 1731DOPS   PO420307  13.081  13.594  15.351 -0.2605 -0.3506  0.1772
 1731DOPS   GL120308  13.204  13.506  14.982  0.1228  0.2334  0.3282
 1731DOPS   GL220309  13.468  13.535  14.772  0.1001  0.1944  0.1260
 1731DOPS   C1A20310  13.187  13.174  14.625 -0.1900 -0.0642 -0.1722
 1731DOPS   D2A20311  13.271  12.774  14.386 -0.0124 -0.0087 -0.2506
 1731DOPS   C3A20312  13.027  12.512  14.029 -0.2364 -0.1017 -0.2655
 1731DOPS   C4A20313  12.699  12.242  14.055  0.2816 -0.0362 -0.0293
 1731DOPS   C1B20314  13.176  13.723  14.511 -0.1221 -0.1022 -0.2399
 1731DOPS   D2B20315  12.987  13.752  14.103 -0.0592  0.0350 -0.0123
 1731DOPS   C3B20316  13.311  13.517  13.853  0.0320  0.1544 -0.1305
 1731DOPS   C4B20317  13.616  13.246  13.667  0.0650  0.1337  0.0270
 1732POSM   NC320318  13.638  18.858  15.442 -0.0027  0.0290  0.1214
 1732POSM   PO420319  13.620  19.221  15.626  0.1008  0.0104  0.0961
 1732POSM   AM120320  13.439  19.444  15.442  0.2994 -0.0266 -0.0999
 1732POSM   AM220321  13.162  19.535  15.422 -0.1059  0.0892  0.1530
 1732POSM   T1A20322  13.337  19.565  14.923 -0.0564 -0.0097  0.1197
 1732POSM   C2A20323  13.566  19.646  14.495 -0.3705  0.2117 -0.1237
 1732POSM   C3A20324  13.701  19.806  14.114 -0.0859  0.0199 -0.0686
 1732POSM   C1B20325  12.956  19.730  15.238 -0.0894 -0.0789  0.1495
 1732POSM   D2B20326  12.741  19.979  14.917  0.3981  0.2983  0.2264
 1732POSM   C3B20327  13.135  19.958  14.655 -0.2310  0.0461 -0.2603
 1732POSM   C4B20328  13.518  20.195  14.482  0.0306 -0.0090  0.2095
 1733POSM   NC320329  19.760  17.910  14.704  0.3057  0.2307  0.0432
 1733POSM   PO420330  19.792  17.555  14.677  0.1972  0.3261  0.2171
 1733POSM   AM120331  19.738  17.626  14.360  0.1785  0.0548 -0.1025
 1733POSM   AM220332  19.833  17.756  14.142  0.1022  0.1609 -0.0638
 1733POSM   T1A20333  19.476  17.506  13.931  0.0711 -0.2457 -0.1627
 1733POSM   C2A20334  19.333  17.521  13.527  0.4809 -0.2041 -0.1241
 1733POSM   C3A20335  18.970  17.692  13.276  0.0718 -0.1220 -0.1209
 1733POSM   C1B20336  19.825  17.821  13.778  0.2026 -0.1567 -0.3208
 1733POSM   D2B20337  19.621  18.142  13.444  0.0130  0.0439  0.2918
 1733POSM   C3B20338  19.823  18.188  13.031  0.0745 -0.1458  0.2655
 1733POSM   C4B20339  19.697  18.109  12.660  0.0168  0.1374  0.0094
 1734DOPC   NC320340  14.224  13.483  15.399 -0.3261 -0.0475  0.3190
 1734DOPC   PO420341  13.954  13.640  15.118 -0.1445 -0.0611  0.0570
 1734DOPC   GL120342  13.907  13.669  14.717 -0.0036 -0.0332  0.3133
 1734DOPC   GL220343  14.147  13.533  14.616  0.0062  0.0589 -0.4253
 1734DOPC   C1A20344  13.698  13.617  14.313  0.0172  0.1917  0.0284
 1734DOPC   D2A20345  13.826  13.805  13.919 -0.0187  0.1691  0.3613
 1734DOPC   C3A20346  13.565  13.890  13.579  0.0440 -0.1368  0.1141
 1734DOPC   C4A20347  13.595  13.930  13.103  0.1504  0.1868 -0.1181
 1734DOPC   C1B20348  14.242  13.617  14.211  0.1328 -0.2613 -0.1187
 1734DOPC   D2B20349  14.287  13.933  13.895 -0.2006  0.1516 -0.1131
 1734DOPC   C3B20350  14.099  13.992  13.452 -0.0475 -0.1507 -0.1852
 1734DOPC   C4B20351  14.075  13.924  12.991  0.1911  0.1584  0.0716
 1735POSM   NC320352  16.877  22.066  15.693  0.1105 -0.0418 -0.1193
 1735POSM   PO420353  17.199  22.230  15.551  0.3499  0.1676  0.2151
 1735POSM   AM120354  17.271  22.278  15.233 -0.1962 -0.1377  0.1684
 1735POSM   AM220355  17.304  22.111  15.020  0.2635  0.0985 -0.0534
 1735POSM   T1A20356  17.221  22.531  14.736 -0.0390 -0.1741 -0.4853
 1735POSM   C2A20357  17.226  22.869  14.404 -0.2771 -0.3817 -0.0657
 1735POSM   C3A20358  17.251  23.036  13.928  0.2561 -0.0223  0.2244
 1735POSM   C1B20359  17.398  21.981  14.708 -0.0245 -0.0373 -0.0967
 1735POSM   D2B20360  17.477  21.912  14.220  0.0868 -0.1238 -0.0925
 1735POSM   C3B20361  17.712  22.206  13.950 -0.1436  0.1536 -0.3181
 1735POSM   C4B20362  18.043  22.448  13.699 -0.0520 -0.0739 -0.0827
 1736DOPC   NC320363  18.410  17.972  15.069  0.0994 -0.0670  0.1562
 1736DOPC   PO420364  18.091  17.720  15.067  0.1095 -0.1930 -0.1723
 1736DOPC   GL120365  18.100  17.684  14.650 -0.2268  0.0137 -0.0309
 1736DOPC   GL220366  18.270  17.433  14.583 -0.1195  0.0144  0.1794
 1736DOPC   C1A20367  17.799  17.492  14.374 -0.0256  0.3157 -0.1271
 1736DOPC   D2A20368  17.539  17.406  13.979 -0.1808 -0.4357  0.3232
 1736DOPC   C3A20369  17.328  17.177  13.722 -0.3898 -0.0547  0.1016
 1736DOPC   C4A20370  17.327  16.942  13.329 -0.3633 -0.2934 -0.1265
 1736DOPC   C1B20371  18.613  17.439  14.233 -0.2509 -0.1697 -0.1729
 1736DOPC   D2B20372  18.921  17.614  13.939  0.0606  0.2677 -0.1391
 1736DOPC   C3B20373  18.660  17.927  13.675  0.2348  0.1519 -0.2347
 1736DOPC   C4B20374  18.685  18.399  13.622 -0.2849 -0.0833 -0.2097
 1737POSM   NC320375  18.032  17.192  15.024 -0.0977 -0.0515  0.1703
 1737POSM   PO420376  18.261  16.904  15.091  0.0840  0.3258  0.1565
 1737POSM   AM120377  18.353  16.889  14.772 -0.5176 -0.1925 -0.1469
 1737POSM   AM220378  18.209  16.955  14.563 -0.0209  0.1441  0.0670
 1737POSM   T1A20379  18.655  16.855  14.346 -0.0283  0.1004 -0.0140
 1737POSM   C2A20380  18.643  16.927  13.868 -0.0171  0.2054 -0.1577
 1737POSM   C3A20381  18.805  17.286  13.609 -0.1082 -0.1165  0.2728
 1737POSM   C1B20382  18.115  17.099  14.241  0.2018  0.3216  0.1311
 1737POSM   D2B20383  18.024  17.241  13.810 -0.0397  0.1011 -0.0371
 1737POSM   C3B20384  17.783  17.179  13.444  0.2045 -0.3443  0.0047
 1737POSM   C4B20385  17.503  17.392  13.186  0.1442  0.1674 -0.3939
 1738POSM   NC320386  20.317  13.294  15.732  0.0319  0.1013 -0.1830
 1738POSM   PO420387  20.211  13.434  15.382 -0.3560  0.1480  0.1433
 1738POSM   AM120388  20.197  13.361  15.066 -0.1073 -0.1649 -0.4478
 1738POSM   AM220389  20.032  13.199  14.900 -0.2132 -0.0203 -0.0412
 1738POSM   T1A20390  20.351  13.409  14.578  0.1330  0.2255  0.1291
 1738POSM   C2A20391  20.466  13.342  14.135  0.2126 -0.0577  0.1991
 1738POSM   C3A20392  20.126  13.140  13.900 -0.2467 -0.0543  0.1785
 1738POSM   C1B20393  19.857  13.031  14.624 -0.0917 -0.0506 -0.2976
 1738POSM   D2B20394  19.723  12.748  14.321  0.0759  0.0927 -0.2536
 1738POSM   C3B20395  19.595  13.042  14.012  0.0317 -0.1016  0.2708
 1738POSM   C4B20396  19.284  13.180  13.618 -0.6904 -0.2100  0.0112
 1739DOPC   NC320397  13.287  14.910  14.602  0.0609  0.2837 -0.1220
 1739DOPC   PO420398  13.251  15.016  14.982  0.0386 -0.0867 -0.0691
 1739DOPC   GL120399  13.106  15.439  14.786 -0.4274  0.0392 -0.1947
 1739DOPC   GL220400  12.955  15.351  14.613  0.3866 -0.1542 -0.0711
 1739DOPC   C1A20401  13.563  15.545  14.616  0.0172 -0.0575  0.1839
 1739DOPC   D2A20402  13.879  15.889  14.585 -0.2183  0.0248 -0.3312
 1739DOPC   C3A20403  14.014  16.228  14.198  0.0883 -0.2031  0.1549
 1739DOPC   C4A20404  14.059  16.302  13.732 -0.0069 -0.2534 -0.3458
 1739DOPC   C1B20405  13.110  15.267  14.204  0.1747 -0.1063  0.0925
 1739DOPC   D2B20406  13.495  15.149  13.971  0.1213  0.1008 -0.2333
 1739DOPC   C3B20407  13.591  15.537  13.828  0.0730  0.0982 -0.0702
 1739DOPC   C4B20408  13.958  15.841  13.730 -0.1166 -0.0326 -0.0117
 1740DOPE   NH320409  13.398  13.959  15.314  0.1061 -0.0890  0.0328
 1740DOPE   PO420410  13.653  14.089  15.181  0.3949  0.2070  0.3050
 1740DOPE   GL120411  13.797  14.155  14.774 -0.3124  0.1131 -0.1920
 1740DOPE   GL220412  13.550  14.048  14.633 -0.1380 -0.1437  0.0670
 1740DOPE   C1A20413  13.921  14.070  14.308 -0.1774  0.0048  0.1158
 1740DOPE   D2A20414  13.780  14.266  13.905  0.1174 -0.1687  0.1994
 1740DOPE   C3A20415  14.018  14.558  13.548  0.0703  0.2341 -0.0416
 1740DOPE   C4A20416  14.399  14.755  13.334  0.1197  0.0841 -0.0619
 1740DOPE   C1B20417  13.436  14.076  14.182  0.1055 -0.2101  0.1917
 1740DOPE   D2B20418  13.284  14.290  13.775 -0.0778  0.1848 -0.0813
 1740DOPE   C3B20419  13.466  14.611  13.511  0.2855  0.0379  0.3605
 1740DOPE   C4B20420  13.719  14.980  13.533 -0.1642 -0.0835  0.0844
 1741DOPC   NC320421  11.453  15.597  15.042 -0.0415  0.1586 -0.0341
 1741DOPC   PO420422  11.449  15.999  15.099  0.1575  0.2754 -0.3078
 1741DOPC   GL120423  11.664  16.140  14.764 -0.6320 -0.2578 -0.0649
 1741DOPC   GL220424  11.967  16.207  14.973  0.1634 -0.0882  0.2401
 1741DOPC   C1A20425  11.665  16.157  14.317  0.2282  0.2041 -0.1070
 1741DOPC   D2A20426  11.546  16.384  13.958 -0.1141 -0.3068  0.0567
 1741DOPC   C3A20427  11.752  16.731  13.784 -0.1271 -0.0024  0.0914
 1741DOPC   C4A20428  11.993  17.050  13.554  0.1857 -0.1376  0.0434
 1741DOPC   C1B20429  12.021  16.442  14.558 -0.0214  0.0063 -0.1416
 1741DOPC   D2B20430  12.065  16.385  14.072  0.0137  0.0894 -0.4846
 1741DOPC   C3B20431  12.318  16.563  13.758 -0.0601 -0.1283 -0.2541
 1741DOPC   C4B20432  12.746  16.740  13.727  0.0527 -0.0183 -0.1121
 1742POSM   NC320433  20.775  19.645  14.709  0.0355  0.3334 -0.0065
 1742POSM   PO420434  20.762  19.471  15.057  0.1800 -0.0975 -0.0179
 1742POSM   AM120435  20.816  19.198  14.786 -0.5407 -0.2246 -0.1185
 1742POSM   AM220436  20.699  19.062  14.549  0.1927 -0.0316 -0.2142
 1742POSM   T1A20437  21.182  18.950  14.512  0.2887  0.1114 -0.0976
 1742POSM   C2A20438  21.469  18.908  14.171  0.0603 -0.0142  0.1412
 1742POSM   C3A20439  21.649  18.534  13.918  0.1423 -0.3428 -0.1419
 1742POSM   C1B20440  20.473  19.145  14.318  0.0279 -0.0190 -0.1627
 1742POSM   D2B20441  20.349  19.175  13.920  0.0824  0.3247 -0.0503
 1742POSM   C3B20442  20.538  18.916  13.571 -0.2529 -0.0773 -0.1059
 1742POSM   C4B20443  20.805  18.895  13.244 -0.0972  0.2195  0.2132
 1743POSM   NC320444  12.262  21.442  16.340  0.1143 -0.0640  0.2600
 1743POSM   PO420445  11.895  21.403  16.275  0.1065  0.1940  0.0271
 1743POSM   AM120446  11.742  21.578  16.017  0.0241  0.0756  0.0996
 1743POSM   AM220447  11.871  21.726  15.854 -0.1713  0.2942  0.2106
 1743POSM   T1A20448  11.405  21.778  15.656  0.0740 -0.0809 -0.0651
 1743POSM   C2A20449  11.434  21.721  15.155 -0.0036 -0.1414 -0.0795
 1743POSM   C3A20450  11.911  21.771  14.920 -0.0464 -0.0324 -0.0429
 1743POSM   C1B20451  11.914  21.897  15.630 -0.2139  0.0025 -0.1910
 1743POSM   D2B20452  12.155  22.143  15.302 -0.0759  0.0344  0.0594
 1743POSM   C3B20453  12.364  21.972  14.914  0.1232  0.0878 -0.0345
 1743POSM   C4B20454  12.636  21.643  14.690 -0.1518  0.1746  0.0953
 1744POSM   NC320455  15.179  18.620  15.259  0.0904  0.4089 -0.2872
 1744POSM   PO420456  14.918  18.453  15.528  0.1244  0.1167  0.2272
 1744POSM   AM120457  14.826  18.307  15.259 -0.3405  0.0395 -0.0795
 1744POSM   AM220458  14.647  18.131  15.125  0.3988  0.2000  0.1696
 1744POSM   T1A20459  15.018  18.059  14.855 -0.2732  0.3481  0.1110
 1744POSM   C2A20460  15.110  17.936  14.414 -0.0931  0.0046  0.0730
 1744POSM   C3A20461  15.525  17.761  14.268 -0.2159 -0.0488 -0.0585
 1744POSM   C1B20462  14.539  18.079  14.819  0.1968 -0.1983  0.0787
 1744POSM   D2B20463  14.534  18.151  14.395 -0.0305 -0.4151  0.0893
 1744POSM   C3B20464  14.145  17.961  14.137 -0.1668  0.0994 -0.2507
 1744POSM   C4B20465  13.899  17.635  13.935  0.2755 -0.3203 -0.1229
 1745POSM   NC320466  14.523  23.442  15.987  0.0899 -0.2240  0.1822
 1745POSM   PO420467  14.839  23.445  15.723  0.1812  0.1506  0.2130
 1745POSM   AM120468  14.676  23.267  15.493  0.0201  0.2272 -0.0309
 1745POSM   AM220469  14.752  23.095  15.283  0.2995 -0.2624  0.0505
 1745POSM   T1A20470  14.361  23.275  15.112  0.2711 -0.0641 -0.1027
 1745POSM   C2A20471  14.292  23.314  14.630 -0.2898  0.0613 -0.1468
 1745POSM   C3A20472  14.244  23.312  14.178  0.3000 -0.5452 -0.3094
 1745POSM   C1B20473  15.010  23.117  15.021  0.1689 -0.0085  0.0658
 1745POSM   D2B20474  15.353  22.997  14.813  0.0141 -0.0768  0.0636
 1745POSM   C3B20475  15.224  22.898  14.359 -0.2924 -0.0567 -0.1030
 1745POSM   C4B20476  15.460  22.797  13.976  0.1272 -0.1076  0.3554
 1746DOPC   NC320477  23.414  18.827  15.310  0.0161  0.0255 -0.0463
 1746DOPC   PO420478  23.121  18.717  15.018 -0.2756 -0.4284 -0.0713
 1746DOPC   GL120479  23.078  18.778  14.654 -0.1862  0.0183 -0.0055
 1746DOPC   GL220480  23.311  18.607  14.547  0.1402 -0.0834  0.0329
 1746DOPC   C1A20481  22.857  19.154  14.539 -0.0132 -0.4703  0.0525
 1746DOPC   D2A20482  22.587  19.501  14.351 -0.1626  0.0319  0.0071
 1746DOPC   C3A20483  22.776  19.709  13.969  0.1844  0.1854 -0.0289
 1746DOPC   C4A20484  22.736  20.087  13.686  0.1587  0.1596 -0.0237
 1746DOPC   C1B20485  22.936  18.755  14.237  0.2698 -0.0931  0.1278
 1746DOPC   D2B20486  22.880  19.080  13.900  0.1144 -0.2601  0.2112
 1746DOPC   C3B20487  23.161  19.139  13.500  0.0554  0.3710  0.1642
 1746DOPC   C4B20488  23.603  19.077  13.376 -0.1606  0.0358  0.1481
 1747POSM   NC320489  22.042  19.115  15.355  0.2260  0.1296  0.0836
 1747POSM   PO420490  22.055  19.534  15.255  0.1552 -0.0797  0.0246
 1747POSM   AM120491  22.037  19.332  14.944 -0.0564  0.0569 -0.1582
 1747POSM   AM220492  21.836  19.159  14.784 -0.1375  0.0484 -0.0755
 1747POSM   T1A20493  22.322  19.106  14.587 -0.1069 -0.0408  0.1414
 1747POSM   C2A20494  22.426  19.092  14.137 -0.1229 -0.1581  0.0367
 1747POSM   C3A20495  22.461  19.401  13.786  0.2790 -0.0108  0.2062
 1747POSM   C1B20496  21.854  19.183  14.443 -0.1000 -0.2823 -0.0105
 1747POSM   D2B20497  21.874  19.288  13.940 -0.0504 -0.5238  0.1256
 1747POSM   C3B20498  21.559  19.046  13.696  0.2387 -0.0457  0.0321
 1747POSM   C4B20499  21.215  19.115  13.427 -0.2384 -0.0497 -0.2852
 1748DOPS   CNO20500  16.643  16.989  15.406  0.1548  0.1721  0.0720
 1748DOPS   PO420501  16.473  17.286  15.263 -0.4380 -0.1892 -0.2202
 1748DOPS   GL120502  16.450  17.314  14.778 -0.1649  0.0487 -0.2218
 1748DOPS   GL220503  16.082  17.375  14.812 -0.1049  0.0936  0.0028
 1748DOPS   C1A20504  16.409  17.665  14.480 -0.1623 -0.0653 -0.2228
 1748DOPS   D2A20505  16.743  17.829  14.253 -0.1752 -0.1370  0.0038
 1748DOPS   C3A20506  16.758  17.981  13.839  0.0971  0.2629  0.0824
 1748DOPS   C4A20507  16.616  17.890  13.361 -0.1471 -0.0971  0.1569
 1748DOPS   C1B20508  15.907  17.438  14.398 -0.4571 -0.1891 -0.0817
 1748DOPS   D2B20509  15.979  17.797  14.133 -0.1062  0.3907 -0.1808
 1748DOPS   C3B20510  16.128  17.897  13.731 -0.0018 -0.0595  0.0017
 1748DOPS   C4B20511  16.103  17.816  13.285  0.1266  0.1280 -0.1157
 1749DOPS   CNO20512  12.454  18.960  15.889  0.1497 -0.3068  0.2210
 1749DOPS   PO420513  12.207  18.678  15.842  0.0821 -0.0531  0.0337
 1749DOPS   GL120514  12.147  18.772  15.497  0.1336 -0.0569  0.1607
 1749DOPS   GL220515  12.290  18.611  15.325  0.0108  0.2614 -0.3363
 1749DOPS   C1A20516  12.203  19.078  15.167  0.1179 -0.2769  0.0250
 1749DOPS   D2A20517  12.366  19.158  14.747 -0.3731 -0.1973 -0.2368
 1749DOPS   C3A20518  12.711  19.024  14.519  0.1594  0.1912 -0.0696
 1749DOPS   C4A20519  12.856  18.841  14.126 -0.2186 -0.0624 -0.1769
 1749DOPS   C1B20520  12.035  18.562  14.948 -0.4208  0.2255 -0.2142
 1749DOPS   D2B20521  11.872  18.263  14.599 -0.0939 -0.0891 -0.1796
 1749DOPS   C3B20522  12.183  17.954  14.427 -0.3207  0.0708 -0.0058
 1749DOPS   C4B20523  12.565  17.724  14.266  0.2225  0.1803  0.0291
 1750DOPS   CNO20524  17.761  19.843  15.561  0.1466 -0.1844 -0.0014
 1750DOPS   PO420525  17.443  19.616  15.479 -0.1547 -0.0354  0.2890
 1750DOPS   GL120526  17.308  19.433  15.173 -0.1770  0.1827 -0.0599
 1750DOPS   GL220527  17.287  19.583  14.987  0.1376 -0.0299  0.1814
 1750DOPS   C1A20528  16.988  19.230  14.864 -0.1773  0.1711 -0.1667
 1750DOPS   D2A20529  16.592  19.352  14.613  0.0043 -0.1581  0.0304
 1750DOPS   C3A20530  16.438  19.076  14.309 -0.0729 -0.2246  0.2931
 1750DOPS   C4A20531  16.570  18.666  14.139  0.0480  0.0444  0.1034
 1750DOPS   C1B20532  17.090  19.571  14.552 -0.2698 -0.1922  0.0680
 1750DOPS   D2B20533  17.048  19.753  14.139  0.1029 -0.1066  0.0853
 1750DOPS   C3B20534  17.028  19.678  13.665 -0.0161 -0.1008 -0.1463
 1750DOPS   C4B20535  16.748  19.446  13.336  0.1481  0.1438  0.0471
 1751POSM   NC320536  19.643  14.740  15.491 -0.0746 -0.1015  0.0889
 1751POSM   PO420537  19.538  14.913  15.162 -0.4624  0.3449  0.1594
 1751POSM   AM120538  19.448  14.878  14.862 -0.2108  0.0188  0.2936
 1751POSM   AM220539  19.572  14.719  14.636 -0.0450  0.0067 -0.0157
 1751POSM   T1A20540  19.231  15.087  14.492 -0.2382  0.2962 -0.1844
 1751POSM   C2A20541  19.256  15.232  13.992 -0.1964  0.0407 -0.1931
 1751POSM   C3A20542  19.497  15.078  13.569  0.1665  0.2233 -0.0192
 1751POSM   C1B20543  19.721  14.694  14.413 -0.2695  0.2634  0.0609
 1751POSM   D2B20544  19.870  14.422  14.115 -0.0646 -0.0218 -0.3440
 1751POSM   C3B20545  19.764  14.516  13.703 -0.5979 -0.3502 -0.1826
 1751POSM   C4B20546  19.358  14.573  13.475 -0.0461 -0.0688  0.1033
 1752DOPE   NH320547  19.850  22.840  15.863  0.1523  0.0132 -0.4823
 1752DOPE   PO420548  20.047  22.653  15.672  0.1107 -0.0573  0.1329
 1752DOPE   GL120549  19.781  22.763  15.380  0.1262 -0.1279 -0.0917
 1752DOPE   GL220550  19.672  22.461  15.339  0.2348 -0.2206  0.1595
 1752DOPE   C1A20551  19.789  22.663  14.929 -0.2926 -0.0860  0.0509
 1752DOPE   D2A20552  20.027  22.779  14.519  0.2267 -0.0925 -0.2929
 1752DOPE   C3A20553  19.851  22.902  14.101  0.0928 -0.2633 -0.3056
 1752DOPE   C4A20554  19.873  22.821  13.690  0.0198 -0.2719  0.0934
 1752DOPE   C1B20555  19.598  22.161  14.989 -0.0952  0.1321  0.0707
 1752DOPE   D2B20556  19.440  21.884  14.629  0.1802  0.0272  0.0064
 1752DOPE   C3B20557  19.650  21.998  14.231  0.1716 -0.0649 -0.1174
 1752DOPE   C4B20558  19.831  22.353  14.027 -0.0235 -0.2160  0.1190
 1753POSM   NC320559  16.740  12.257  15.903  0.1115 -0.0044  0.1417
 1753POSM   PO420560  16.583  12.408  15.546  0.2744 -0.1622  0.1821
 1753POSM   AM120561  16.454  12.414  15.224  0.1026 -0.1236 -0.0967
 1753POSM   AM220562  16.592  12.569  14.988  0.0490 -0.0551  0.0491
 1753POSM   T1A20563  16.109  12.297  14.863 -0.1169  0.0816 -0.0244
 1753POSM   C2A20564  15.808  12.353  14.549  0.2304  0.1040 -0.2377
 1753POSM   C3A20565  15.784  12.268  14.143 -0.0078 -0.3420 -0.0745
 1753POSM   C1B20566  16.622  12.628  14.640  0.1296 -0.1055 -0.2627
 1753POSM   D2B20567  16.665  12.692  14.147 -0.5046 -0.2104 -0.1597
 1753POSM   C3B20568  16.443  12.387  13.912  0.4166  0.0788  0.1107
 1753POSM   C4B20569  16.350  12.264  13.490  0.0077  0.0669  0.1796
 1754DOPS   CNO20570  18.506  18.418  15.239  0.1937 -0.1510 -0.1374
 1754DOPS   PO420571  18.185  18.417  15.019 -0.2317  0.4457 -0.3189
 1754DOPS   GL120572  18.299  18.419  14.659  0.2672 -0.1358  0.0846
 1754DOPS   GL220573  18.379  18.148  14.571 -0.3190  0.0015  0.0605
 1754DOPS   C1A20574  18.417  18.668  14.288  0.0657 -0.1442  0.2442
 1754DOPS   D2A20575  18.218  18.653  13.840  0.0419  0.0819  0.1243
 1754DOPS   C3A20576  18.204  19.032  13.602 -0.1523  0.0134 -0.1573
 1754DOPS   C4A20577  17.847  19.271  13.403  0.2571 -0.1978  0.2716
 1754DOPS   C1B20578  18.191  17.876  14.219 -0.1577 -0.2232 -0.1036
 1754DOPS   D2B20579  18.267  17.633  13.817 -0.0704 -0.0071 -0.1171
 1754DOPS   C3B20580  18.258  17.871  13.384  0.1666 -0.1413 -0.0854
 1754DOPS   C4B20581  18.141  18.047  12.992 -0.0916 -0.2063 -0.1720
 1755POSM   NC320582  20.755  16.936  14.334 -0.1474 -0.0592 -0.3050
 1755POSM   PO420583  21.011  16.900  14.673 -0.0919  0.0988  0.1658
 1755POSM   AM120584  21.207  16.973  14.416 -0.1322 -0.1641  0.2692
 1755POSM   AM220585  21.404  16.979  14.232 -0.1941 -0.2595  0.0444
 1755POSM   T1A20586  21.058  17.080  13.908  0.2568  0.1208  0.2261
 1755POSM   C2A20587  20.770  16.967  13.493  0.0917 -0.2567  0.0977
 1755POSM   C3A20588  20.488  17.077  13.153 -0.0836  0.4199  0.0159
 1755POSM   C1B20589  21.580  16.948  13.946 -0.0474  0.0892 -0.0697
 1755POSM   D2B20590  21.785  16.638  13.659 -0.0639  0.0531 -0.0014
 1755POSM   C3B20591  21.576  16.399  13.288  0.0598 -0.1300 -0.3012
 1755POSM   C4B20592  21.287  16.447  12.866 -0.0581  0.2919  0.2093
 1756POSM   NC320593  16.637  15.184  14.978 -0.2410  0.3872  0.3336
 1756POSM   PO420594  16.856  14.915  15.221 -0.2979 -0.1069  0.2180
 1756POSM   AM120595  16.929  14.756  14.944  0.3426  0.0927 -0.1304
 1756POSM   AM220596  16.794  14.553  14.806 -0.0526 -0.2710 -0.1023
 1756POSM   T1A20597  17.266  14.779  14.554 -0.0512 -0.1838  0.2305
 1756POSM   C2A20598  17.207  14.708  14.070 -0.0904 -0.1163  0.1945
 1756POSM   C3A20599  17.599  14.708  13.813  0.2461 -0.2147  0.1704
 1756POSM   C1B20600  16.857  14.466  14.446  0.1107  0.1119 -0.0753
 1756POSM   D2B20601  16.823  14.303  14.048  0.0753 -0.0702  0.0208
 1756POSM   C3B20602  16.782  14.639  13.796 -0.2147  0.1739 -0.2581
 1756POSM   C4B20603  16.544  15.081  13.836  0.0052 -0.0208 -0.1367
 1757POSM   NC320604  13.744  19.714  15.636  0.2300 -0.1992  0.2254
 1757POSM   PO420605  13.427  19.841  15.809 -0.1326 -0.0639 -0.0057
 1757POSM   AM120606  13.359  19.921  15.485 -0.1237 -0.2226 -0.0242
 1757POSM   AM220607  13.514  19.966  15.259  0.0224  0.1292 -0.3212
 1757POSM   T1A20608  13.121  20.253  15.163 -0.0367 -0.1762  0.2320
 1757POSM   C2A20609  12.907  20.398  14.733 -0.0957  0.1804  0.1148
 1757POSM   C3A20610  12.888  20.621  14.340 -0.3204 -0.2261  0.1834
 1757POSM   C1B20611  13.712  20.005  14.962 -0.1453 -0.1678  0.0690
 1757POSM   D2B20612  13.959  20.049  14.535 -0.2248  0.0604 -0.1527
 1757POSM   C3B20613  13.953  20.369  14.168  0.0058 -0.0064  0.3014
 1757POSM   C4B20614  13.858  20.150  13.744 -0.0502  0.1772 -0.1222
 1758DOPE   NH320615  22.948  20.483  15.167 -0.1670 -0.1275 -0.0962
 1758DOPE   PO420616  22.873  20.183  15.332  0.2229  0.1259  0.2736
 1758DOPE   GL120617  22.977  20.059  14.941 -0.1217 -0.2169  0.3669
 1758DOPE   GL220618  22.740  20.053  14.855  0.0172 -0.0379  0.0081
 1758DOPE   C1A20619  23.203  20.259  14.559  0.1312 -0.0873 -0.1618
 1758DOPE   D2A20620  23.061  20.217  14.134 -0.0574 -0.4673 -0.2273
 1758DOPE   C3A20621  23.233  19.967  13.771 -0.0155 -0.1696  0.1415
 1758DOPE   C4A20622  23.087  20.105  13.313  0.0714 -0.0505  0.0581
 1758DOPE   C1B20623  22.883  19.902  14.486 -0.1621 -0.0501  0.0812
 1758DOPE   D2B20624  23.162  19.542  14.275  0.0293  0.0300  0.1863
 1758DOPE   C3B20625  23.338  19.491  13.841 -0.0596 -0.2070  0.1042
 1758DOPE   C4B20626  23.444  19.564  13.392  0.0322 -0.0835 -0.4157
 1759DOPE   NH320627  12.397  19.560  15.853  0.0863 -0.1005  0.3078
 1759DOPE   PO420628  12.568  19.406  15.706  0.0693 -0.0619  0.2771
 1759DOPE   GL120629  12.738  19.324  15.443 -0.6782 -0.3198 -0.1605
 1759DOPE   GL220630  12.657  19.032  15.426 -0.0235  0.1055  0.1463
 1759DOPE   C1A20631  12.858  19.328  14.960 -0.0197 -0.1516 -0.0423
 1759DOPE   D2A20632  12.910  19.551  14.589 -0.2726  0.1729 -0.1165
 1759DOPE   C3A20633  12.642  19.582  14.229  0.1617 -0.0346  0.2543
 1759DOPE   C4A20634  12.638  19.799  13.808 -0.2897 -0.0366 -0.0718
 1759DOPE   C1B20635  12.636  18.829  15.004  0.2603 -0.0409  0.1725
 1759DOPE   D2B20636  12.493  18.458  14.824  0.2564 -0.0720 -0.0762
 1759DOPE   C3B20637  12.310  18.444  14.402  0.1617  0.2008  0.0512
 1759DOPE   C4B20638  12.016  18.346  14.035  0.0439 -0.2102  0.0341
 1760DOPS   CNO20639  22.385  12.477  15.789  0.0313 -0.0295  0.3122
 1760DOPS   PO420640  22.453  12.115  15.803  0.1315 -0.0310 -0.0090
 1760DOPS   GL120641  22.275  12.041  15.513 -0.3989 -0.0188 -0.4262
 1760DOPS   GL220642  22.290  12.218  15.326 -0.1021  0.2896 -0.3712
 1760DOPS   C1A20643  21.930  11.850  15.365 -0.1622  0.0618 -0.0321
 1760DOPS   D2A20644  22.053  11.467  15.206 -0.0714  0.1959 -0.0096
 1760DOPS   C3A20645  22.069  11.098  15.534  0.0726 -0.0083 -0.0327
 1760DOPS   C4A20646  22.223  11.194  15.946 -0.2171 -0.0080  0.1878
 1760DOPS   C1B20647  22.097  12.078  14.936  0.0634 -0.1066 -0.4223
 1760DOPS   D2B20648  22.052  12.060  14.506  0.2454 -0.2606 -0.3337
 1760DOPS   C3B20649  21.994  11.608  14.335 -0.0474  0.1475 -0.0219
 1760DOPS   C4B20650  21.800  11.238  14.105 -0.1936 -0.1347  0.0075
 1761DOPS   CNO20651  11.128  16.719  15.599  0.3018 -0.0688 -0.2809
 1761DOPS   PO420652  11.123  16.524  15.306  0.2451 -0.2260  0.1261
 1761DOPS   GL120653  11.152  16.354  15.021 -0.0529  0.0599  0.1698
 1761DOPS   GL220654  11.042  16.605  14.810 -0.2345  0.0657 -0.3937
 1761DOPS   C1A20655  11.213  16.257  14.507  0.0879  0.1409 -0.2953
 1761DOPS   D2A20656  11.172  15.979  14.154  0.0604 -0.2209  0.1138
 1761DOPS   C3A20657  10.866  15.941  13.770 -0.1341  0.2006 -0.3444
 1761DOPS   C4A20658  10.626  15.614  13.627 -0.0388  0.2976  0.1148
 1761DOPS   C1B20659  11.170  16.800  14.429  0.0275  0.0475  0.4205
 1761DOPS   D2B20660  11.061  16.895  13.914 -0.0292  0.0957  0.0969
 1761DOPS   C3B20661  11.244  17.002  13.503  0.2469 -0.2971 -0.1257
 1761DOPS   C4B20662  11.164  17.390  13.318  0.0795  0.2367 -0.0340
 1762DOPE   NH320663  16.028  21.919  15.398  0.0356  0.3528  0.0799
 1762DOPE   PO420664  16.139  21.633  15.541  0.1424  0.1988 -0.0592
 1762DOPE   GL120665  15.934  21.452  15.258 -0.0112  0.0563  0.2975
 1762DOPE   GL220666  16.105  21.500  15.027 -0.1841  0.0536  0.0611
 1762DOPE   C1A20667  15.687  21.744  14.992 -0.1415 -0.2237  0.1645
 1762DOPE   D2A20668  15.337  21.731  14.806 -0.0010 -0.4320  0.1913
 1762DOPE   C3A20669  14.984  21.448  14.777 -0.0596  0.2665 -0.2469
 1762DOPE   C4A20670  14.568  21.192  14.684 -0.0992 -0.0982 -0.0745
 1762DOPE   C1B20671  15.802  21.296  14.767 -0.0093  0.0880 -0.1263
 1762DOPE   D2B20672  15.336  21.161  14.729 -0.0092 -0.0320 -0.0920
 1762DOPE   C3B20673  15.063  21.005  14.401  0.1171 -0.1459 -0.1664
 1762DOPE   C4B20674  14.939  20.867  13.996  0.1759 -0.2511  0.1722
 1763DOPC   NC320675  16.690  22.890  15.265  0.0491  0.0540  0.1879
 1763DOPC   PO420676  16.824  22.561  15.436 -0.3806 -0.4015  0.1311
 1763DOPC   GL120677  16.591  22.232  15.269  0.2937  0.2119  0.1624
 1763DOPC   GL220678  16.846  22.099  15.189  0.3581 -0.2430  0.3440
 1763DOPC   C1A20679  16.402  22.055  14.897 -0.1184 -0.2827 -0.2178
 1763DOPC   D2A20680  16.056  21.866  14.672 -0.1434  0.1293  0.0501
 1763DOPC   C3A20681  15.612  22.062  14.567  0.0156 -0.0767  0.2067
 1763DOPC   C4A20682  15.476  22.464  14.446 -0.1847  0.1047 -0.1772
 1763DOPC   C1B20683  16.904  22.007  14.751  0.3491  0.2900 -0.0523
 1763DOPC   D2B20684  17.038  21.661  14.444 -0.0290  0.3646  0.0992
 1763DOPC   C3B20685  17.100  21.616  14.002 -0.1283  0.0275  0.0436
 1763DOPC   C4B20686  17.307  21.931  13.746 -0.1724  0.1691  0.1571
 1764DOPE   NH320687  17.244  19.981  15.215  0.2273 -0.0038  0.0659
 1764DOPE   PO420688  17.523  20.163  15.119 -0.0830  0.3687  0.3492
 1764DOPE   GL120689  17.464  20.286  14.775  0.1779  0.3211  0.4534
 1764DOPE   GL220690  17.308  20.027  14.687 -0.2756  0.2146 -0.2007
 1764DOPE   C1A20691  17.656  20.412  14.396  0.1869  0.0465 -0.0466
 1764DOPE   D2A20692  17.965  20.270  14.125 -0.0210  0.2448 -0.1264
 1764DOPE   C3A20693  18.350  20.014  14.250 -0.0670  0.0668 -0.1085
 1764DOPE   C4A20694  18.560  19.606  14.299 -0.0950  0.2943  0.0299
 1764DOPE   C1B20695  17.206  20.190  14.269 -0.0470  0.1355  0.0299
 1764DOPE   D2B20696  17.355  20.056  13.840 -0.0017  0.0541 -0.0643
 1764DOPE   C3B20697  17.785  20.201  13.629 -0.2283 -0.2516 -0.2487
 1764DOPE   C4B20698  18.120  20.511  13.741  0.1233  0.1735 -0.1744
 1765DOPC   NC320699  10.782  14.693  15.356  0.4345 -0.0702  0.0976
 1765DOPC   PO420700  11.089  14.820  15.197 -0.0048 -0.2053 -0.0380
 1765DOPC   GL120701  10.781  14.842  14.917  0.0406 -0.0837  0.0837
 1765DOPC   GL220702  10.586  15.029  14.877 -0.2678  0.0414  0.0876
 1765DOPC   C1A20703  10.474  14.544  14.739 -0.1145  0.0008  0.1498
 1765DOPC   D2A20704  10.318  14.231  14.425 -0.1142  0.2820 -0.2898
 1765DOPC   C3A20705  10.453  14.380  13.986 -0.1591  0.1220 -0.0993
 1765DOPC   C4A20706  10.547  14.476  13.504  0.0653 -0.1144  0.3822
 1765DOPC   C1B20707  10.746  15.255  14.491  0.1286 -0.0278 -0.0123
 1765DOPC   D2B20708  10.843  15.553  14.125 -0.1400  0.0597  0.2948
 1765DOPC   C3B20709  11.109  15.411  13.775  0.2450  0.1367 -0.3379
 1765DOPC   C4B20710  11.304  15.549  13.426  0.1524  0.2994  0.2392
 1766DOPE   NH320711  20.899  16.418  14.734  0.2353  0.3553  0.0767
 1766DOPE   PO420712  21.103  16.377  14.465  0.1889 -0.0404 -0.0513
 1766DOPE   GL120713  21.294  16.468  14.097 -0.0656 -0.0377  0.5140
 1766DOPE   GL220714  21.042  16.593  14.010  0.2484 -0.1591  0.1530
 1766DOPE   C1A20715  21.448  16.260  13.761  0.1993  0.2711 -0.2005
 1766DOPE   D2A20716  21.394  15.797  13.643 -0.3115 -0.0143  0.0189
 1766DOPE   C3A20717  21.303  15.736  13.173 -0.0803 -0.0523 -0.0210
 1766DOPE   C4A20718  21.300  15.780  12.709 -0.2018 -0.1876 -0.0689
 1766DOPE   C1B20719  20.986  16.128  13.799 -0.1541  0.0123 -0.0623
 1766DOPE   D2B20720  20.884  15.753  13.484 -0.0767 -0.0803  0.3149
 1766DOPE   C3B20721  20.800  15.536  13.021 -0.2165  0.1544 -0.2055
 1766DOPE   C4B20722  20.803  15.681  12.591 -0.3889 -0.1954  0.0372
 1767DOPE   NH320723  21.583  19.569  15.106 -0.4376 -0.0766 -0.2065
 1767DOPE   PO420724  21.274  19.451  15.122  0.0399  0.1331 -0.1157
 1767DOPE   GL120725  21.244  19.622  14.773  0.0021 -0.1746  0.2498
 1767DOPE   GL220726  21.381  19.389  14.648  0.1598  0.0440 -0.0233
 1767DOPE   C1A20727  21.206  19.802  14.312  0.2772  0.0949  0.1817
 1767DOPE   D2A20728  21.239  19.950  13.830 -0.0566 -0.3158  0.3217
 1767DOPE   C3A20729  21.645  19.750  13.605 -0.0279  0.1041 -0.1562
 1767DOPE   C4A20730  22.036  19.625  13.438  0.0149 -0.0639 -0.3179
 1767DOPE   C1B20731  21.017  19.375  14.347  0.2429 -0.2559  0.1573
 1767DOPE   D2B20732  20.751  19.545  13.959 -0.4171  0.0194  0.1108
 1767DOPE   C3B20733  20.635  19.359  13.532  0.0985 -0.0431  0.2828
 1767DOPE   C4B20734  20.280  19.186  13.214 -0.2041 -0.0323  0.1873
 1768DOPC   NC320735  13.793  12.489  15.227  0.1294  0.0926  0.0593
 1768DOPC   PO420736  13.412  12.423  15.299 -0.0533 -0.3619 -0.0799
 1768DOPC   GL120737  13.392  12.091  15.047 -0.1190  0.4228  0.0158
 1768DOPC   GL220738  13.139  12.082  14.981 -0.0697 -0.1019 -0.1436
 1768DOPC   C1A20739  13.635  11.979  14.673  0.1941 -0.2849 -0.1343
 1768DOPC   D2A20740  13.943  11.742  14.434 -0.0278 -0.0679  0.2591
 1768DOPC   C3A20741  14.116  11.830  14.027 -0.0005  0.1891  0.1311
 1768DOPC   C4A20742  13.907  11.684  13.675  0.2190 -0.4331 -0.1938
 1768DOPC   C1B20743  13.221  11.678  14.688  0.3184 -0.1008 -0.2673
 1768DOPC   D2B20744  13.208  11.240  14.598  0.4309  0.2594  0.2373
 1768DOPC   C3B20745  13.111  10.906  14.283 -0.1043 -0.1127  0.0399
 1768DOPC   C4B20746  13.303  10.799  13.877  0.0148  0.4253  0.1607
 1769DOPC   NC320747  22.239  15.964  14.661  0.1985 -0.3375 -0.1633
 1769DOPC   PO420748  22.165  15.558  14.750  0.0197  0.0761 -0.1463
 1769DOPC   GL120749  22.145  15.291  14.395 -0.1171 -0.3565  0.0524
 1769DOPC   GL220750  21.934  15.340  14.219 -0.1853 -0.2826  0.1595
 1769DOPC   C1A20751  22.548  15.113  14.251  0.0013  0.2370 -0.0597
 1769DOPC   D2A20752  22.644  14.709  14.068  0.1181 -0.4161  0.1469
 1769DOPC   C3A20753  22.411  14.507  13.715 -0.0339 -0.1588  0.1773
 1769DOPC   C4A20754  22.089  14.246  13.496  0.3971  0.1232  0.0381
 1769DOPC   C1B20755  21.742  15.224  13.801 -0.4009  0.2477  0.0569
 1769DOPC   D2B20756  21.377  15.306  13.487 -0.1311  0.1614 -0.3642
 1769DOPC   C3B20757  21.221  15.261  13.046  0.3673  0.0251  0.3195
 1769DOPC   C4B20758  21.173  15.304  12.595 -0.1663 -0.1426 -0.2036
 1770DOPE   NH320759  18.570  14.693  15.326  0.3531  0.0534  0.0948
 1770DOPE   PO420760  18.283  14.602  15.321 -0.2164 -0.0559 -0.2142
 1770DOPE   GL120761  18.179  14.268  15.049  0.2829 -0.1566  0.1233
 1770DOPE   GL220762  18.474  14.221  15.028 -0.0520 -0.0127 -0.1441
 1770DOPE   C1A20763  18.222  14.132  14.601 -0.0583 -0.4206 -0.2936
 1770DOPE   D2A20764  18.253  13.929  14.160  0.0447  0.0694  0.2171
 1770DOPE   C3A20765  18.290  13.467  14.106 -0.1031  0.1933  0.3501
 1770DOPE   C4A20766  18.572  13.299  13.754 -0.1422  0.3707  0.0899
 1770DOPE   C1B20767  18.757  14.161  14.676 -0.2853  0.0378  0.0642
 1770DOPE   D2B20768  19.185  14.426  14.656 -0.0073  0.0741  0.0049
 1770DOPE   C3B20769  19.366  14.484  14.234  0.1153 -0.1325 -0.2471
 1770DOPE   C4B20770  19.507  14.823  13.971 -0.0465 -0.0781 -0.3820
 1771DOPE   NH320771  23.616  18.084  14.623  0.1077 -0.1298  0.2146
 1771DOPE   PO420772  23.334  18.133  14.727 -0.2310  0.1174 -0.1670
 1771DOPE   GL120773  23.256  17.994  14.325 -0.1620  0.3077  0.4158
 1771DOPE   GL220774  23.120  18.194  14.204  0.2124 -0.2001 -0.1793
 1771DOPE   C1A20775  23.092  17.730  13.966 -0.1451 -0.1083  0.0433
 1771DOPE   D2A20776  23.093  17.661  13.544 -0.2247  0.0164 -0.1052
 1771DOPE   C3A20777  23.015  17.719  13.153  0.0418 -0.0566 -0.0421
 1771DOPE   C4A20778  23.267  17.406  12.906 -0.1059 -0.5693 -0.1312
 1771DOPE   C1B20779  22.948  18.223  13.785 -0.3300 -0.2325  0.0141
 1771DOPE   D2B20780  23.065  18.227  13.321  0.3152  0.0696  0.0733
 1771DOPE   C3B20781  22.787  18.183  12.968  0.5242  0.1819  0.0675
 1771DOPE   C4B20782  22.421  17.951  12.784  0.3051 -0.0417  0.1546
 1772DOPS   CNO20783  13.006  17.108  15.698  0.1157  0.0967  0.0871
 1772DOPS   PO420784  12.917  17.371  15.435 -0.1296 -0.0775  0.2202
 1772DOPS   GL120785  13.101  17.351  15.023 -0.3059  0.0366 -0.3241
 1772DOPS   GL220786  12.919  17.231  14.959  0.1103 -0.2924  0.0420
 1772DOPS   C1A20787  13.527  17.231  14.867  0.0818 -0.1082 -0.0103
 1772DOPS   D2A20788  13.580  16.782  14.700 -0.0144 -0.3229  0.0415
 1772DOPS   C3A20789  13.573  16.683  14.253 -0.0066  0.2968 -0.2378
 1772DOPS   C4A20790  13.803  16.719  13.882 -0.0983 -0.1831  0.1096
 1772DOPS   C1B20791  13.123  16.951  14.685  0.0767 -0.1506  0.0312
 1772DOPS   D2B20792  13.115  16.519  14.569  0.2896  0.1003  0.2549
 1772DOPS   C3B20793  13.259  16.215  14.232 -0.0885  0.3180  0.0015
 1772DOPS   C4B20794  13.592  15.911  14.147  0.0728  0.1359  0.0765
 1773POSM   NC320795  16.428  22.831  15.702  0.0439 -0.2625 -0.0219
 1773POSM   PO420796  16.315  22.474  15.552  0.1800 -0.1183 -0.0766
 1773POSM   AM120797  16.314  22.614  15.230 -0.0278 -0.0521 -0.1619
 1773POSM   AM220798  16.453  22.557  14.974 -0.3095 -0.0034  0.2669
 1773POSM   T1A20799  16.241  23.015  14.878  0.0320  0.1129  0.3199
 1773POSM   C2A20800  16.492  23.343  14.657  0.0076 -0.1519 -0.1936
 1773POSM   C3A20801  16.790  23.662  14.614 -0.0270 -0.3364  0.1186
 1773POSM   C1B20802  16.502  22.513  14.649 -0.1244 -0.0040 -0.0143
 1773POSM   D2B20803  16.404  22.771  14.258 -0.1473 -0.1792 -0.0756
 1773POSM   C3B20804  16.345  22.925  13.916 -0.0889 -0.0930  0.0744
 1773POSM   C4B20805  16.309  23.195  13.568  0.1021  0.2963  0.0872
 1774DOPC   NC320806  11.246  17.063  15.141  0.2253  0.2437  0.2209
 1774DOPC   PO420807  11.186  17.211  15.484  0.1409 -0.0309 -0.1592
 1774DOPC   GL120808  11.109  17.532  15.201  0.3176  0.3170  0.1563
 1774DOPC   GL220809  10.836  17.449  15.104 -0.0877  0.2303  0.2336
 1774DOPC   C1A20810  11.430  17.612  14.884  0.1189 -0.0122 -0.0269
 1774DOPC   D2A20811  11.833  17.740  14.743  0.4684  0.0589  0.3917
 1774DOPC   C3A20812  11.642  18.074  15.014 -0.0114  0.1647 -0.4411
 1774DOPC   C4A20813  11.237  18.019  15.171 -0.0842 -0.2146 -0.3677
 1774DOPC   C1B20814  10.951  17.747  14.767  0.0179 -0.3893 -0.0443
 1774DOPC   D2B20815  11.277  17.880  14.444  0.3365  0.1643  0.0435
 1774DOPC   C3B20816  11.124  18.017  14.033 -0.0614  0.0897 -0.1642
 1774DOPC   C4B20817  11.228  18.160  13.660  0.2655 -0.2582  0.1557
 1775DOPC   NC320818  15.176  15.649  14.944  0.1796 -0.1164 -0.2650
 1775DOPC   PO420819  15.340  15.360  15.204 -0.0464 -0.1207  0.2839
 1775DOPC   GL120820  15.494  15.219  14.807  0.2133  0.3387  0.0206
 1775DOPC   GL220821  15.447  15.410  14.585 -0.0490  0.1330  0.0133
 1775DOPC   C1A20822  15.827  15.036  14.528 -0.0075  0.0660 -0.0898
 1775DOPC   D2A20823  15.896  14.841  14.092  0.1376 -0.0888  0.3007
 1775DOPC   C3A20824  15.900  14.915  13.649 -0.0282  0.1207 -0.2297
 1775DOPC   C4A20825  15.969  15.009  13.193  0.0801 -0.2297 -0.0956
 1775DOPC   C1B20826  15.337  15.218  14.174 -0.1045  0.1759  0.1517
 1775DOPC   D2B20827  15.384  15.027  13.762  0.0766  0.1328  0.0016
 1775DOPC   C3B20828  15.460  15.178  13.296  0.1154 -0.1685  0.0336
 1775DOPC   C4B20829  15.439  15.590  13.049 -0.0826 -0.2084 -0.3696
 1776DOPS   CNO20830  13.827  12.808  15.642 -0.3228  0.0242  0.0262
 1776DOPS   PO420831  13.962  13.044  15.400 -0.0653  0.1178  0.1973
 1776DOPS   GL120832  13.809  12.938  14.954  0.0633 -0.1008  0.0736
 1776DOPS   GL220833  13.743  13.234  14.979 -0.0919 -0.0168  0.1051
 1776DOPS   C1A20834  14.127  12.919  14.647 -0.2365  0.1894 -0.1419
 1776DOPS   D2A20835  14.473  12.847  14.333  0.1031  0.3776 -0.0259
 1776DOPS   C3A20836  14.371  12.437  14.044  0.2478 -0.0008  0.3424
 1776DOPS   C4A20837  14.198  12.241  13.667  0.2841 -0.0257 -0.1161
 1776DOPS   C1B20838  13.759  13.199  14.484 -0.1000  0.0819  0.3169
 1776DOPS   D2B20839  14.084  13.126  14.148 -0.3822 -0.0677 -0.0524
 1776DOPS   C3B20840  14.120  13.203  13.702 -0.0946  0.0372 -0.0077
 1776DOPS   C4B20841  14.215  12.996  13.269  0.2007  0.3057 -0.1577
 1777DOPC   NC320842  22.127  23.597  16.019  0.1395 -0.1631 -0.0651
 1777DOPC   PO420843  21.770  23.404  15.848  0.3880  0.0188 -0.0107
 1777DOPC   GL120844  22.011  23.430  15.520 -0.3785  0.0995  0.3536
 1777DOPC   GL220845  21.707  23.322  15.373 -0.0414 -0.0331  0.0658
 1777DOPC   C1A20846  22.110  23.041  15.275 -0.2502  0.2014  0.0439
 1777DOPC   D2A20847  22.385  22.931  14.962 -0.1586  0.1713  0.0209
 1777DOPC   C3A20848  22.687  23.334  14.779  0.0919 -0.1362 -0.0097
 1777DOPC   C4A20849  22.748  23.783  14.653  0.1272  0.0086  0.1068
 1777DOPC   C1B20850  21.596  23.525  14.896 -0.1103 -0.0211 -0.0864
 1777DOPC   D2B20851  21.798  23.790  14.578 -0.2078 -0.2501 -0.0326
 1777DOPC   C3B20852  21.734  23.768  14.128 -0.2838 -0.1835  0.0992
 1777DOPC   C4B20853  21.836  23.913  13.675  0.3133  0.3748 -0.0975
 1778POSM   NC320854  20.100  15.854  14.878  0.0118  0.3089 -0.1028
 1778POSM   PO420855  20.398  16.119  14.824 -0.2000  0.1048  0.0383
 1778POSM   AM120856  20.388  15.966  14.531  0.3699  0.1303  0.4089
 1778POSM   AM220857  20.325  16.033  14.234  0.1738  0.0495  0.0643
 1778POSM   T1A20858  20.559  15.659  14.166 -0.1067  0.1871  0.1485
 1778POSM   C2A20859  20.373  15.215  14.184  0.1318 -0.0796  0.3427
 1778POSM   C3A20860  20.335  14.748  14.183  0.0870  0.0785  0.0157
 1778POSM   C1B20861  20.164  16.249  14.006  0.1317 -0.0707 -0.1490
 1778POSM   D2B20862  20.071  16.494  13.635 -0.1719 -0.1635 -0.2390
 1778POSM   C3B20863  20.195  16.916  13.594 -0.1173  0.2184 -0.0483
 1778POSM   C4B20864  20.034  17.361  13.781 -0.0811  0.3156 -0.0583
 1779DOPC   NC320865  17.271  13.067  15.722  0.0443 -0.1686  0.1934
 1779DOPC   PO420866  17.152  13.359  15.464 -0.1413 -0.0897 -0.0464
 1779DOPC   GL120867  17.129  12.892  15.299  0.0298  0.1962 -0.0728
 1779DOPC   GL220868  17.359  13.028  15.123 -0.0625 -0.2643  0.5726
 1779DOPC   C1A20869  17.299  12.527  15.107 -0.1244 -0.1550  0.2118
 1779DOPC   D2A20870  17.508  12.314  14.784 -0.1730 -0.3317 -0.1151
 1779DOPC   C3A20871  17.424  12.009  14.417  0.0370  0.2920 -0.1262
 1779DOPC   C4A20872  17.299  11.909  13.994  0.0110  0.3778 -0.0554
 1779DOPC   C1B20873  17.342  12.785  14.702  0.1384 -0.1282 -0.3072
 1779DOPC   D2B20874  17.638  12.638  14.420  0.2368 -0.0698  0.2266
 1779DOPC   C3B20875  17.977  12.787  14.136 -0.0151 -0.1616 -0.0885
 1779DOPC   C4B20876  17.936  13.196  13.936  0.1604 -0.0564 -0.2215
 1780DOPC   NC320877  20.519  11.679  15.730  0.2818  0.0996  0.2054
 1780DOPC   PO420878  20.657  12.014  15.871 -0.0569 -0.1991 -0.1300
 1780DOPC   GL120879  20.874  12.163  15.543  0.0049 -0.2913 -0.3170
 1780DOPC   GL220880  20.869  11.876  15.413 -0.0533  0.2296  0.1395
 1780DOPC   C1A20881  20.922  12.343  15.118  0.0930  0.2783 -0.1934
 1780DOPC   D2A20882  20.669  12.315  14.760 -0.3966 -0.0618  0.1090
 1780DOPC   C3A20883  20.595  11.856  14.605  0.3260 -0.4493  0.0498
 1780DOPC   C4A20884  20.494  11.605  14.248  0.1757  0.3485  0.2070
 1780DOPC   C1B20885  20.516  11.980  15.133  0.1032 -0.1759 -0.1464
 1780DOPC   D2B20886  20.129  12.219  15.070 -0.1086  0.1856 -0.0220
 1780DOPC   C3B20887  20.137  12.082  14.656  0.3730  0.0688  0.2650
 1780DOPC   C4B20888  20.330  12.282  14.272  0.0083  0.0669 -0.1901
 1781DOPE   NH320889  18.475  11.807  16.300  0.2317 -0.3064 -0.2898
 1781DOPE   PO420890  18.685  11.745  16.082 -0.4423  0.0894 -0.0203
 1781DOPE   GL120891  18.524  11.735  15.677 -0.0017 -0.1626 -0.1151
 1781DOPE   GL220892  18.388  11.982  15.727 -0.1465  0.0824  0.1623
 1781DOPE   C1A20893  18.663  11.528  15.291  0.3870  0.0049 -0.0786
 1781DOPE   D2A20894  18.750  11.436  14.874 -0.0232 -0.2848  0.0983
 1781DOPE   C3A20895  18.497  11.139  14.621  0.1146  0.1270  0.1874
 1781DOPE   C4A20896  18.367  10.922  14.197 -0.1935 -0.0629  0.1734
 1781DOPE   C1B20897  18.264  11.910  15.297 -0.0184  0.1583 -0.0620
 1781DOPE   D2B20898  18.268  11.710  14.933 -0.2263 -0.1274  0.0459
 1781DOPE   C3B20899  18.129  11.297  15.005 -0.1193 -0.0961 -0.1641
 1781DOPE   C4B20900  17.930  10.872  15.195 -0.0387 -0.1545  0.2832
 1782POSM   NC320901  22.481  13.210  15.457  0.2062  0.2643  0.2368
 1782POSM   PO420902  22.176  13.046  15.601  0.0749  0.3903  0.2231
 1782POSM   AM120903  22.097  13.009  15.285 -0.1342 -0.0098 -0.1291
 1782POSM   AM220904  22.156  13.232  15.071 -0.2009 -0.1957  0.1240
 1782POSM   T1A20905  21.941  12.656  14.963 -0.1942 -0.3269 -0.2133
 1782POSM   C2A20906  21.591  12.390  14.744 -0.0728  0.1667  0.0425
 1782POSM   C3A20907  21.522  12.036  14.386  0.0207  0.0120 -0.2246
 1782POSM   C1B20908  22.087  13.180  14.690  0.3064 -0.1296  0.0310
 1782POSM   D2B20909  21.792  13.234  14.272 -0.1076  0.2618  0.1942
 1782POSM   C3B20910  21.469  13.402  13.994 -0.1763  0.1785  0.0144
 1782POSM   C4B20911  21.128  13.292  13.740  0.3025 -0.0174 -0.0961
 1783POSM   NC320912  13.097  19.300  15.815 -0.3303 -0.0001 -0.0329
 1783POSM   PO420913  13.164  19.040  15.516 -0.0885  0.2525  0.3482
 1783POSM   AM120914  13.313  19.084  15.190  0.0847  0.0157  0.1650
 1783POSM   AM220915  13.558  19.151  15.050 -0.0559 -0.1924 -0.0285
 1783POSM   T1A20916  13.181  19.103  14.672 -0.0522 -0.1225  0.0100
 1783POSM   C2A20917  13.050  19.273  14.228 -0.1435  0.0835 -0.0113
 1783POSM   C3A20918  13.145  19.665  14.025 -0.0437  0.2200 -0.0728
 1783POSM   C1B20919  13.740  19.126  14.779  0.1284  0.1130  0.1207
 1783POSM   D2B20920  13.950  18.851  14.498  0.0036  0.1306  0.2066
 1783POSM   C3B20921  13.861  18.761  14.028  0.0740  0.2592 -0.1173
 1783POSM   C4B20922  13.670  18.578  13.679  0.1735 -0.1960 -0.2216
 1784DOPE   NH320923  12.648  14.109  15.303  0.0632 -0.0826 -0.0039
 1784DOPE   PO420924  12.932  14.100  15.196  0.0670  0.0858  0.1072
 1784DOPE   GL120925  12.809  13.932  14.874  0.2678  0.0418  0.3550
 1784DOPE   GL220926  12.743  13.693  14.977  0.1006 -0.2353  0.2372
 1784DOPE   C1A20927  12.587  13.863  14.457 -0.2320  0.3356  0.0764
 1784DOPE   D2A20928  12.460  13.726  14.067 -0.0514  0.1045 -0.2023
 1784DOPE   C3A20929  12.366  13.878  13.595 -0.0068  0.1528 -0.0102
 1784DOPE   C4A20930  12.504  13.935  13.149 -0.0464  0.3916  0.0267
 1784DOPE   C1B20931  12.740  13.435  14.570  0.1750  0.2304  0.4527
 1784DOPE   D2B20932  12.966  13.244  14.137 -0.0586 -0.0186  0.0090
 1784DOPE   C3B20933  13.413  13.078  14.096  0.0063  0.0265  0.0529
 1784DOPE   C4B20934  13.430  12.710  13.889  0.1068 -0.2281  0.2263
 1785POSM   NC320935  11.343  14.060  14.766 -0.1597  0.1568  0.1671
 1785POSM   PO420936  11.652  14.033  14.954 -0.1463 -0.2396 -0.1603
 1785POSM   AM120937  11.817  13.877  14.743 -0.4154  0.0704 -0.0295
 1785POSM   AM220938  11.824  13.954  14.466  0.2283 -0.1082 -0.0770
 1785POSM   T1A20939  12.178  13.556  14.658 -0.2817 -0.0743 -0.0383
 1785POSM   C2A20940  12.323  13.131  14.470  0.1354 -0.0512  0.1425
 1785POSM   C3A20941  12.607  12.844  14.181 -0.2841 -0.0120 -0.0792
 1785POSM   C1B20942  12.081  14.107  14.300 -0.1935 -0.4140  0.0622
 1785POSM   D2B20943  12.299  14.272  13.895 -0.1647  0.2212  0.0907
 1785POSM   C3B20944  12.396  14.553  13.532  0.1902  0.2213 -0.0438
 1785POSM   C4B20945  12.247  14.594  13.049 -0.2073 -0.1738 -0.2347
 1786DOPE   NH320946  15.493  22.560  15.517 -0.1127 -0.1508  0.2257
 1786DOPE   PO420947  15.707  22.348  15.674 -0.3045 -0.3490 -0.2265
 1786DOPE   GL120948  15.751  22.235  15.173  0.4012 -0.1966 -0.3632
 1786DOPE   GL220949  15.559  22.186  15.019  0.0284  0.2268  0.3049
 1786DOPE   C1A20950  16.005  22.345  14.807  0.0685 -0.0492  0.3043
 1786DOPE   D2A20951  16.062  22.354  14.369  0.0314 -0.2755  0.1847
 1786DOPE   C3A20952  15.960  22.606  14.014  0.2025  0.1325 -0.1091
 1786DOPE   C4A20953  15.881  22.952  13.772 -0.3826 -0.0406  0.1475
 1786DOPE   C1B20954  15.662  22.673  14.935 -0.2182  0.0374  0.1797
 1786DOPE   D2B20955  15.778  22.868  14.530 -0.1008  0.1031  0.0677
 1786DOPE   C3B20956  16.036  23.169  14.317 -0.0723  0.2125 -0.1871
 1786DOPE   C4B20957  16.045  23.406  13.899  0.2713  0.0816  0.0085
 1787POSM   NC320958  12.103  16.469  15.466 -0.2243 -0.2207 -0.3978
 1787POSM   PO420959  11.731  16.575  15.601 -0.1895  0.3299  0.0068
 1787POSM   AM120960  11.715  16.725  15.329  0.0647  0.3335 -0.2191
 1787POSM   AM220961  11.606  16.577  15.099 -0.0510  0.1982  0.1792
 1787POSM   T1A20962  11.761  17.143  15.032 -0.0702  0.0336 -0.0962
 1787POSM   C2A20963  11.659  17.278  14.630 -0.0205 -0.1630  0.1443
 1787POSM   C3A20964  11.672  17.573  14.279 -0.1759  0.1348 -0.3002
 1787POSM   C1B20965  11.592  16.761  14.787  0.2192 -0.1970 -0.2478
 1787POSM   D2B20966  11.601  16.762  14.304 -0.1950  0.2057  0.0273
 1787POSM   C3B20967  11.561  17.148  13.992  0.3300 -0.1970 -0.2496
 1787POSM   C4B20968  11.606  17.379  13.536 -0.2642  0.1405 -0.0853
 1788DOPS   CNO20969  23.006  13.015  15.418  0.0499  0.0201  0.1285
 1788DOPS   PO420970  23.014  13.377  15.238 -0.1920  0.0341  0.0252
 1788DOPS   GL120971  23.096  13.566  14.928 -0.2687 -0.3604 -0.1525
 1788DOPS   GL220972  23.146  13.406  14.704 -0.1492  0.1871  0.1098
 1788DOPS   C1A20973  23.377  13.807  14.626 -0.1941  0.1205 -0.1621
 1788DOPS   D2A20974  23.093  13.863  14.275 -0.0150 -0.0086 -0.0006
 1788DOPS   C3A20975  23.099  13.437  14.014 -0.2111 -0.1163  0.1082
 1788DOPS   C4A20976  23.086  13.015  13.808  0.0794 -0.0430 -0.0625
 1788DOPS   C1B20977  23.281  13.117  14.385  0.0312  0.1533 -0.0137
 1788DOPS   D2B20978  23.589  12.888  14.120  0.1387 -0.0961 -0.2611
 1788DOPS   C3B20979  23.948  12.627  14.235  0.0817 -0.1203 -0.0548
 1788DOPS   C4B20980  24.239  12.452  13.951  0.0131  0.1961 -0.0018
 1789DOPC   NC320981  17.384  21.745  15.411 -0.1591 -0.0607 -0.0164
 1789DOPC   PO420982  17.049  21.537  15.453  0.1846 -0.0826  0.0384
 1789DOPC   GL120983  16.942  21.218  15.106 -0.0572 -0.1010  0.5148
 1789DOPC   GL220984  16.703  21.375  14.977  0.3385 -0.7425 -0.0709
 1789DOPC   C1A20985  17.152  21.188  14.722  0.0513  0.0876  0.2771
 1789DOPC   D2A20986  17.434  21.140  14.393 -0.0355 -0.0267 -0.0152
 1789DOPC   C3A20987  17.492  21.128  13.920  0.0123 -0.1360  0.2078
 1789DOPC   C4A20988  17.481  21.062  13.428  0.0414  0.1280  0.1252
 1789DOPC   C1B20989  16.520  21.610  14.644 -0.2110 -0.1581  0.3362
 1789DOPC   D2B20990  16.619  21.611  14.191 -0.2054 -0.1908 -0.4375
 1789DOPC   C3B20991  16.859  22.012  14.131  0.0815 -0.1472  0.0904
 1789DOPC   C4B20992  16.857  22.384  14.401 -0.2045  0.1004  0.5024
 1790DOPS   CNO20993  11.818  21.985  16.290  0.1743 -0.2365  0.3236
 1790DOPS   PO420994  11.763  22.315  16.455 -0.0598  0.1786  0.1493
 1790DOPS   GL120995  11.779  22.378  16.048 -0.0287  0.2220  0.0010
 1790DOPS   GL220996  11.917  22.618  15.981 -0.0985  0.0923  0.1692
 1790DOPS   C1A20997  11.630  22.269  15.585  0.1217  0.1623  0.0300
 1790DOPS   D2A20998  11.697  22.144  15.202 -0.1448 -0.3717  0.1221
 1790DOPS   C3A20999  11.539  22.057  14.760  0.2330 -0.0114  0.0814
 1790DOPS   C4A21000  11.212  21.906  14.484  0.0617  0.0504 -0.1088
 1790DOPS   C1B21001  11.506  22.766  15.828 -0.2494  0.0349  0.2473
 1790DOPS   D2B21002  11.204  22.812  15.371  0.1329 -0.0088 -0.1616
 1790DOPS   C3B21003  11.230  22.720  14.907 -0.1019 -0.1428 -0.0011
 1790DOPS   C4B21004  11.318  22.646  14.495 -0.2604  0.0974  0.0107
 1791DOPE   NH321005  21.159  20.467  15.100 -0.2522 -0.0899  0.2299
 1791DOPE   PO421006  20.903  20.536  14.908 -0.5116 -0.0479 -0.1547
 1791DOPE   GL121007  21.025  20.708  14.630  0.1120 -0.2507  0.0968
 1791DOPE   GL221008  20.959  20.754  14.379  0.1562  0.0244  0.2357
 1791DOPE   C1A21009  21.471  20.730  14.493  0.2382  0.3055 -0.1905
 1791DOPE   D2A21010  21.951  20.905  14.420 -0.2240  0.0844 -0.1108
 1791DOPE   C3A21011  22.397  20.815  14.349  0.0278 -0.2826  0.1947
 1791DOPE   C4A21012  22.714  20.588  14.027 -0.1702  0.3757  0.1823
 1791DOPE   C1B21013  20.591  20.540  14.112 -0.1792  0.2003 -0.2622
 1791DOPE   D2B21014  20.478  20.367  13.691  0.0327 -0.0624  0.3322
 1791DOPE   C3B21015  20.281  19.988  13.745  0.0282  0.1143  0.2148
 1791DOPE   C4B21016  20.153  19.627  13.646 -0.3039 -0.0125  0.0642
 1792DOPC   NC321017  12.635  18.585  15.664 -0.1867 -0.0961  0.1300
 1792DOPC   PO421018  12.940  18.396  15.475 -0.1713 -0.1715  0.0649
 1792DOPC   GL121019  12.916  18.399  15.120  0.0228  0.0878 -0.3532
 1792DOPC   GL221020  13.088  18.649  15.043  0.0867 -0.1385 -0.1927
 1792DOPC   C1A21021  13.232  18.207  14.847 -0.1018 -0.1363  0.3549
 1792DOPC   D2A21022  13.465  18.014  14.467  0.3349 -0.0091  0.2192
 1792DOPC   C3A21023  13.335  17.710  14.148 -0.0513 -0.1986  0.1456
 1792DOPC   C4A21024  13.392  17.670  13.665  0.1741 -0.0230 -0.2426
 1792DOPC   C1B21025  12.929  18.597  14.643  0.0455  0.0520 -0.0421
 1792DOPC   D2B21026  12.764  18.325  14.258 -0.1221 -0.3218 -0.0398
 1792DOPC   C3B21027  13.202  18.222  14.093  0.3333  0.1911 -0.0460
 1792DOPC   C4B21028  13.365  18.192  13.679 -0.1148  0.1647  0.0028
 1793DOPS   CNO21029  11.317  15.254  15.401 -0.1617 -0.0335 -0.0176
 1793DOPS   PO421030  11.586  15.117  15.136  0.0870  0.0966 -0.0278
 1793DOPS   GL121031  11.462  15.107  14.799 -0.4213  0.2843  0.1219
 1793DOPS   GL221032  11.251  14.896  14.747  0.0869 -0.0972  0.1913
 1793DOPS   C1A21033  11.260  15.306  14.402 -0.1086 -0.0247  0.0013
 1793DOPS   D2A21034  11.011  15.010  14.166  0.0233 -0.2109 -0.0608
 1793DOPS   C3A21035  11.357  14.991  13.821 -0.0218 -0.2513 -0.1641
 1793DOPS   C4A21036  11.511  15.105  13.394 -0.3785  0.2588 -0.0003
 1793DOPS   C1B21037  11.289  14.496  14.568 -0.0787  0.1813 -0.1859
 1793DOPS   D2B21038  11.372  14.126  14.268 -0.0421 -0.0754 -0.1746
 1793DOPS   C3B21039  11.143  14.176  13.822  0.0780  0.2476 -0.2021
 1793DOPS   C4B21040  10.972  14.212  13.443  0.0443 -0.1712 -0.1846
 1794DOPC   NC321041  14.961  13.732  14.922  0.0373 -0.0957  0.3871
 1794DOPC   PO421042  14.908  14.074  15.101  0.1808  0.0935  0.3641
 1794DOPC   GL121043  15.002  14.198  14.722  0.4100  0.1456  0.0146
 1794DOPC   GL221044  15.208  14.355  14.796  0.2145 -0.2160 -0.0578
 1794DOPC   C1A21045  14.924  13.895  14.412  0.0839  0.2142  0.1586
 1794DOPC   D2A21046  14.790  13.678  14.048 -0.0036  0.2134  0.0105
 1794DOPC   C3A21047  14.778  13.785  13.626  0.2652 -0.0704  0.0457
 1794DOPC   C4A21048  14.926  13.732  13.163  0.0783 -0.1582 -0.1917
 1794DOPC   C1B21049  15.414  14.254  14.404 -0.0392 -0.2585 -0.0548
 1794DOPC   D2B21050  15.838  14.291  14.218 -0.1292 -0.0729 -0.1581
 1794DOPC   C3B21051  16.012  13.992  13.915  0.0717 -0.2117  0.4193
 1794DOPC   C4B21052  16.081  14.043  13.438  0.1138  0.3087 -0.3422
 1795DOPE   NH321053  22.549  19.897  15.639 -0.2511  0.0050 -0.0229
 1795DOPE   PO421054  22.451  19.917  15.332  0.1606  0.2781 -0.0940
 1795DOPE   GL121055  22.353  19.901  14.968 -0.2587 -0.0124 -0.0893
 1795DOPE   GL221056  22.005  19.976  14.957  0.0018 -0.2729  0.1108
 1795DOPE   C1A21057  22.176  19.589  14.647  0.1048 -0.3509 -0.1776
 1795DOPE   D2A21058  22.171  19.644  14.159 -0.2208 -0.0895  0.3001
 1795DOPE   C3A21059  21.964  19.974  13.935  0.3386  0.2418 -0.1026
 1795DOPE   C4A21060  21.694  20.234  13.670  0.2519  0.1232  0.3603
 1795DOPE   C1B21061  22.026  20.211  14.504  0.0451  0.4794 -0.1363
 1795DOPE   D2B21062  22.064  20.454  14.089  0.1982  0.1893  0.3813
 1795DOPE   C3B21063  21.731  20.697  14.002 -0.0092  0.0738 -0.1069
 1795DOPE   C4B21064  21.439  20.644  13.634 -0.1556 -0.0970 -0.2094
 1796POSM   NC321065  18.467  20.245  15.262 -0.1753 -0.0266 -0.0008
 1796POSM   PO421066  18.235  19.908  15.270  0.0419  0.1183 -0.0995
 1796POSM   AM121067  18.097  20.053  15.028 -0.4343 -0.3621 -0.3343
 1796POSM   AM221068  18.202  20.231  14.809 -0.0202  0.0936  0.1487
 1796POSM   T1A21069  17.835  19.993  14.584  0.1904 -0.0456  0.1391
 1796POSM   C2A21070  17.673  19.801  14.201 -0.2022  0.0046  0.2396
 1796POSM   C3A21071  17.618  19.518  13.791 -0.0149 -0.0415 -0.2048
 1796POSM   C1B21072  18.218  20.415  14.527 -0.0541  0.1401 -0.3146
 1796POSM   D2B21073  18.356  20.751  14.216 -0.1011 -0.0934 -0.0041
 1796POSM   C3B21074  18.422  21.183  14.021 -0.0343 -0.3138  0.1873
 1796POSM   C4B21075  18.794  21.499  14.073 -0.0052 -0.2313 -0.2349
 1797DOPE   NH321076  16.675  21.138  15.489  0.0692 -0.2522 -0.4103
 1797DOPE   PO421077  16.402  21.162  15.379 -0.1921 -0.2992  0.2571
 1797DOPE   GL121078  16.222  20.995  14.951  0.2507 -0.0584 -0.3405
 1797DOPE   GL221079  15.991  20.955  15.079 -0.0826  0.2127  0.3245
 1797DOPE   C1A21080  16.268  20.975  14.487 -0.0503 -0.1574 -0.0774
 1797DOPE   D2A21081  16.479  21.049  14.029 -0.1936 -0.1278 -0.0960
 1797DOPE   C3A21082  16.649  20.731  13.707  0.0464  0.0524  0.0514
 1797DOPE   C4A21083  17.022  20.446  13.725  0.3348  0.1095  0.1561
 1797DOPE   C1B21084  15.895  20.638  14.765 -0.0618  0.0953  0.0350
 1797DOPE   D2B21085  16.145  20.437  14.440  0.0821 -0.2510 -0.0918
 1797DOPE   C3B21086  16.199  20.544  13.987  0.4749  0.1450 -0.1001
 1797DOPE   C4B21087  16.085  20.787  13.610 -0.0038 -0.0138  0.1662
 1798POSM   NC321088  19.476  20.687  15.045  0.1575 -0.2068 -0.1493
 1798POSM   PO421089  19.204  20.327  15.055  0.1645 -0.1558  0.0992
 1798POSM   AM121090  19.097  20.500  14.810 -0.0832 -0.2026  0.2612
 1798POSM   AM221091  19.093  20.740  14.673  0.0717 -0.2163 -0.2400
 1798POSM   T1A21092  18.771  20.468  14.399  0.1072  0.1736  0.1400
 1798POSM   C2A21093  18.575  20.372  13.938  0.0572  0.1857  0.0356
 1798POSM   C3A21094  18.660  20.435  13.538 -0.1925  0.0072 -0.1598
 1798POSM   C1B21095  19.304  20.718  14.400  0.0640  0.1212  0.0020
 1798POSM   D2B21096  19.560  20.366  14.139 -0.0187  0.1880  0.0867
 1798POSM   C3B21097  19.376  19.937  14.180 -0.3614 -0.0373 -0.1406
 1798POSM   C4B21098  19.222  19.671  13.847  0.0691  0.0713  0.1546
 1799DOPC   NC321099  20.133  16.466  14.486  0.2279 -0.1945 -0.0945
 1799DOPC   PO421100  19.823  16.236  14.546 -0.2565 -0.1965 -0.2087
 1799DOPC   GL121101  19.728  16.296  14.182  0.2212 -0.0245 -0.2682
 1799DOPC   GL221102  19.703  15.955  14.132 -0.0324  0.3732  0.0819
 1799DOPC   C1A21103  19.356  16.263  13.948  0.1011 -0.4068 -0.0056
 1799DOPC   D2A21104  19.441  16.469  13.509  0.1698  0.2546  0.1132
 1799DOPC   C3A21105  19.681  16.244  13.182  0.0700  0.0801  0.4197
 1799DOPC   C4A21106  20.006  16.115  12.967  0.2619  0.2406 -0.1376
 1799DOPC   C1B21107  19.808  16.103  13.721 -0.0752  0.1514 -0.0044
 1799DOPC   D2B21108  20.087  15.933  13.436  0.1599  0.1363 -0.0791
 1799DOPC   C3B21109  20.440  16.122  13.228 -0.2443 -0.2578 -0.2821
 1799DOPC   C4B21110  20.858  16.076  12.985 -0.3583  0.1239  0.0920
 1800DOPE   NH321111  18.532  21.074  15.243 -0.1951 -0.1294 -0.3449
 1800DOPE   PO421112  18.561  21.389  15.194  0.3209 -0.2350  0.0375
 1800DOPE   GL121113  18.571  21.609  14.874 -0.0326  0.0766  0.0179
 1800DOPE   GL221114  18.569  21.420  14.623  0.2784  0.0709 -0.5044
 1800DOPE   C1A21115  18.263  21.981  14.755 -0.1264 -0.0519  0.1974
 1800DOPE   D2A21116  18.009  22.090  14.379 -0.0828  0.2905  0.1318
 1800DOPE   C3A21117  18.239  22.077  13.986  0.2967 -0.1531 -0.1043
 1800DOPE   C4A21118  18.651  21.987  13.970 -0.0187  0.0616  0.0440
 1800DOPE   C1B21119  18.810  21.778  14.470 -0.4422 -0.1303 -0.2992
 1800DOPE   D2B21120  19.011  22.161  14.310  0.0421 -0.0712  0.1602
 1800DOPE   C3B21121  19.168  22.246  13.850  0.1392 -0.1015  0.2743
 1800DOPE   C4B21122  19.583  22.340  13.627  0.0510 -0.1550 -0.1320
 1801POSM   NC321123  18.033  13.143  15.759  0.0436 -0.0241  0.3588
 1801POSM   PO421124  18.003  12.755  15.841  0.0110  0.1926  0.1357
 1801POSM   AM121125  18.058  12.743  15.505  0.4844  0.0237 -0.3572
 1801POSM   AM221126  18.225  12.897  15.365  0.1698  0.2718 -0.0511
 1801POSM   T1A21127  18.242  12.458  15.194 -0.2403 -0.1994  0.0387
 1801POSM   C2A21128  18.524  12.283  14.882 -0.0916 -0.0655 -0.1473
 1801POSM   C3A21129  18.824  11.931  14.909 -0.3630  0.1819  0.3214
 1801POSM   C1B21130  18.252  13.003  15.040 -0.0287  0.3552 -0.0491
 1801POSM   D2B21131  18.344  13.110  14.558  0.1638 -0.0263  0.1003
 1801POSM   C3B21132  18.469  12.943  14.123 -0.0893 -0.0345  0.1157
 1801POSM   C4B21133  18.483  12.780  13.724 -0.0588  0.0803 -0.0660
 1802DOPE   NH321134  21.151  21.578  15.420  0.1097 -0.1586 -0.0532
 1802DOPE   PO421135  21.389  21.476  15.200 -0.2474 -0.2082 -0.1474
 1802DOPE   GL121136  21.252  21.470  14.776 -0.1803  0.0507 -0.2345
 1802DOPE   GL221137  21.443  21.695  14.583 -0.1075 -0.0006 -0.0650
 1802DOPE   C1A21138  20.982  21.621  14.449  0.1080  0.0931 -0.0775
 1802DOPE   D2A21139  21.000  21.631  13.963 -0.0784 -0.2632  0.0477
 1802DOPE   C3A21140  21.346  21.698  13.678  0.1789 -0.0617  0.0073
 1802DOPE   C4A21141  21.586  21.703  13.317  0.0881 -0.2398  0.1125
 1802DOPE   C1B21142  21.527  21.675  14.131  0.1862 -0.1101  0.0920
 1802DOPE   D2B21143  21.845  21.774  13.803 -0.0518  0.3101  0.0315
 1802DOPE   C3B21144  21.684  22.210  13.635 -0.0163 -0.1019 -0.0099
 1802DOPE   C4B21145  21.513  22.572  13.395 -0.4325  0.2100 -0.0180
 1803DOPE   NH321146  11.888  15.412  14.889  0.0980  0.4350 -0.2723
 1803DOPE   PO421147  11.988  15.730  14.999  0.1153 -0.2793  0.4155
 1803DOPE   GL121148  11.942  15.840  14.567 -0.1417 -0.0764 -0.1486
 1803DOPE   GL221149  12.208  15.874  14.504 -0.2182 -0.1760 -0.3112
 1803DOPE   C1A21150  11.935  15.817  14.119  0.0603 -0.1802 -0.0212
 1803DOPE   D2A21151  11.870  15.891  13.658  0.5063  0.1026 -0.0801
 1803DOPE   C3A21152  11.768  16.321  13.505  0.1917  0.0538 -0.0735
 1803DOPE   C4A21153  11.403  16.496  13.234  0.0483 -0.0525 -0.1482
 1803DOPE   C1B21154  12.420  15.897  14.097 -0.2098  0.1567  0.2203
 1803DOPE   D2B21155  12.702  15.563  13.969 -0.2208  0.3216 -0.1723
 1803DOPE   C3B21156  12.929  15.498  13.590  0.1348  0.1915 -0.1021
 1803DOPE   C4B21157  13.354  15.586  13.420  0.0073 -0.0899 -0.0229
 1804DOPE   NH321158  19.599  18.382  14.896  0.1419 -0.1739  0.2403
 1804DOPE   PO421159  19.423  18.333  14.680  0.0709  0.2001 -0.0982
 1804DOPE   GL121160  19.327  18.403  14.295  0.0005  0.2313 -0.0460
 1804DOPE   GL221161  19.514  18.326  14.158  0.0237  0.1632 -0.0671
 1804DOPE   C1A21162  19.176  18.524  13.864  0.0051  0.4368 -0.0038
 1804DOPE   D2A21163  19.174  18.668  13.436  0.0685 -0.2317  0.1032
 1804DOPE   C3A21164  18.811  18.494  13.197 -0.0518 -0.1701  0.1531
 1804DOPE   C4A21165  18.622  18.105  13.138  0.2014  0.0169 -0.2350
 1804DOPE   C1B21166  19.381  18.037  13.832 -0.2086 -0.2528  0.1923
 1804DOPE   D2B21167  19.095  18.121  13.533  0.0907 -0.1811 -0.0221
 1804DOPE   C3B21168  19.313  18.262  13.118  0.2075  0.0205 -0.2528
 1804DOPE   C4B21169  19.542  18.687  13.070 -0.0337 -0.0835  0.2213
 1805DOPE   NH321170  12.947  13.188  15.171  0.2699  0.1383  0.1542
 1805DOPE   PO421171  12.835  12.898  15.350 -0.1368 -0.0378  0.3307
 1805DOPE   GL121172  12.613  12.740  15.126  0.2253  0.2813  0.3081
 1805DOPE   GL221173  12.609  12.903  14.864  0.1524 -0.0211  0.1150
 1805DOPE   C1A21174  12.470  12.311  14.972 -0.0229 -0.2938  0.1592
 1805DOPE   D2A21175  12.219  12.017  14.814 -0.0957  0.1400  0.0369
 1805DOPE   C3A21176  12.298  11.588  14.975 -0.1876  0.3130 -0.1405
 1805DOPE   C4A21177  12.482  11.466  15.366 -0.0184  0.1859  0.0137
 1805DOPE   C1B21178  12.817  12.619  14.567  0.3113 -0.3073 -0.1424
 1805DOPE   D2B21179  13.199  12.306  14.449  0.2368  0.0332  0.1230
 1805DOPE   C3B21180  13.140  11.949  14.121  0.1854 -0.3491  0.3033
 1805DOPE   C4B21181  13.104  11.520  14.092  0.2081 -0.1084 -0.2411
 1806POSM   NC321182  21.679  13.637  15.506  0.0496  0.1218  0.1518
 1806POSM   PO421183  21.535  14.024  15.539 -0.3112 -0.0090  0.1375
 1806POSM   AM121184  21.457  13.977  15.227 -0.0132 -0.1575 -0.1982
 1806POSM   AM221185  21.382  13.771  15.033  0.2277 -0.1830 -0.1725
 1806POSM   T1A21186  21.663  14.120  14.775 -0.5696  0.0172  0.1392
 1806POSM   C2A21187  21.378  14.165  14.401 -0.1499 -0.2777  0.1245
 1806POSM   C3A21188  21.448  14.338  13.987  0.1955 -0.3630 -0.0606
 1806POSM   C1B21189  21.168  13.860  14.813 -0.1997  0.1234 -0.2668
 1806POSM   D2B21190  20.938  14.194  14.574 -0.2454 -0.1949 -0.0335
 1806POSM   C3B21191  20.941  14.280  14.115  0.0547  0.1082 -0.0311
 1806POSM   C4B21192  21.079  14.237  13.590 -0.0585  0.1550 -0.0193
 1807DOPE   NH321193  21.022  20.007  15.296  0.0399  0.2106  0.3006
 1807DOPE   PO421194  20.989  20.016  14.975 -0.0058 -0.0342 -0.0398
 1807DOPE   GL121195  20.657  20.191  14.723 -0.0756 -0.2920  0.2488
 1807DOPE   GL221196  20.738  20.088  14.439 -0.0986 -0.1746 -0.3632
 1807DOPE   C1A21197  20.333  19.837  14.532  0.0529  0.0044 -0.0147
 1807DOPE   D2A21198  20.079  19.566  14.229  0.0156 -0.0593  0.3173
 1807DOPE   C3A21199  19.946  19.152  14.249  0.0196 -0.1366 -0.1278
 1807DOPE   C4A21200  19.708  18.762  14.085  0.1427 -0.0871  0.1072
 1807DOPE   C1B21201  20.732  20.066  13.995  0.1673  0.0828  0.0769
 1807DOPE   D2B21202  20.789  19.978  13.543  0.1119  0.3173  0.0929
 1807DOPE   C3B21203  20.612  20.286  13.242 -0.0279 -0.1683  0.2152
 1807DOPE   C4B21204  20.598  20.711  13.070  0.0578 -0.0823  0.2335
 1808DOPE   NH321205  20.892  22.279  15.715  0.0146 -0.4799  0.2645
 1808DOPE   PO421206  20.936  22.033  15.520 -0.1280 -0.1189  0.2422
 1808DOPE   GL121207  21.116  22.144  15.201 -0.1474  0.0854 -0.3282
 1808DOPE   GL221208  21.221  21.912  14.996 -0.1787 -0.1829  0.4352
 1808DOPE   C1A21209  20.997  22.431  14.841 -0.0547  0.0094 -0.0307
 1808DOPE   D2A21210  21.069  22.587  14.345 -0.0035  0.0023 -0.0157
 1808DOPE   C3A21211  20.788  22.463  13.979 -0.2034  0.1702 -0.3253
 1808DOPE   C4A21212  20.607  22.614  13.619  0.2605 -0.0651 -0.1155
 1808DOPE   C1B21213  21.568  22.212  14.868 -0.0360  0.0372  0.0080
 1808DOPE   D2B21214  21.901  22.499  14.811  0.1760  0.2023 -0.0719
 1808DOPE   C3B21215  22.039  22.610  14.392  0.3463  0.0890  0.0463
 1808DOPE   C4B21216  22.429  22.619  14.161  0.0810  0.0484 -0.0189
 1809POSM   NC321217  19.401  15.410  14.860 -0.4349  0.0835 -0.0274
 1809POSM   PO421218  19.746  15.384  15.066 -0.0395  0.0739 -0.0566
 1809POSM   AM121219  19.857  15.353  14.759 -0.2404  0.2536  0.0068
 1809POSM   AM221220  20.040  15.417  14.605 -0.1474  0.0314  0.1167
 1809POSM   T1A21221  19.752  15.161  14.302 -0.1355  0.3134  0.0040
 1809POSM   C2A21222  19.959  14.989  13.952 -0.0690  0.0267 -0.0666
 1809POSM   C3A21223  20.374  15.074  13.714 -0.5339 -0.1080 -0.0408
 1809POSM   C1B21224  20.021  15.611  14.333 -0.3591 -0.0548 -0.0249
 1809POSM   D2B21225  20.083  15.684  13.860 -0.0031 -0.0426 -0.0213
 1809POSM   C3B21226  19.953  15.354  13.575 -0.0586 -0.0644 -0.2126
 1809POSM   C4B21227  19.917  14.912  13.466  0.2811 -0.0230  0.1110
 1810DOPC   NC321228  14.187  19.789  16.363 -0.0103 -0.2588 -0.1637
 1810DOPC   PO421229  14.092  19.865  15.961  0.1532  0.1472 -0.1437
 1810DOPC   GL121230  14.333  19.717  15.600 -0.1292 -0.1659  0.3196
 1810DOPC   GL221231  14.293  20.019  15.571  0.0551 -0.1071  0.0045
 1810DOPC   C1A21232  14.177  19.791  15.170  0.1199 -0.0367 -0.0374
 1810DOPC   D2A21233  13.965  19.541  14.832  0.2166  0.1648 -0.1472
 1810DOPC   C3A21234  13.979  19.396  14.399 -0.1356  0.1051  0.2370
 1810DOPC   C4A21235  13.616  19.250  14.101  0.1273  0.1575  0.0531
 1810DOPC   C1B21236  13.972  20.305  15.397  0.3605 -0.0513  0.2274
 1810DOPC   D2B21237  14.044  20.385  15.004  0.3695 -0.1092  0.2140
 1810DOPC   C3B21238  14.473  20.494  14.717  0.2247 -0.2505 -0.0552
 1810DOPC   C4B21239  14.433  20.380  14.296 -0.0554 -0.1034  0.1838
 1811DOPE   NH321240  13.258  14.406  14.963  0.1224  0.0700  0.2973
 1811DOPE   PO421241  13.527  14.578  14.817 -0.0290  0.1435  0.4723
 1811DOPE   GL121242  13.448  14.443  14.485 -0.1054 -0.0198  0.0714
 1811DOPE   GL221243  13.639  14.498  14.325 -0.1017 -0.2469  0.0988
 1811DOPE   C1A21244  13.231  14.628  14.101  0.1115 -0.0976 -0.2180
 1811DOPE   D2A21245  12.886  14.597  13.806  0.1046 -0.2488  0.1097
 1811DOPE   C3A21246  12.899  14.575  13.369  0.1011  0.1003  0.0559
 1811DOPE   C4A21247  12.732  14.377  12.986 -0.2090 -0.0261 -0.0111
 1811DOPE   C1B21248  13.859  14.783  14.018 -0.1888 -0.1943  0.0715
 1811DOPE   D2B21249  13.981  15.248  14.006 -0.2427  0.0508 -0.1158
 1811DOPE   C3B21250  14.020  15.397  13.510 -0.1997  0.2405 -0.1758
 1811DOPE   C4B21251  14.410  15.519  13.234  0.1843 -0.1937  0.0870
 1812DOPC   NC321252  22.392  17.959  14.142  0.1164  0.1522 -0.2086
 1812DOPC   PO421253  22.445  17.559  14.263  0.1261  0.0063  0.2183
 1812DOPC   GL121254  22.264  17.536  13.955 -0.0344 -0.1917  0.4257
 1812DOPC   GL221255  22.523  17.622  13.750 -0.1148 -0.1070  0.2166
 1812DOPC   C1A21256  21.948  17.600  13.633 -0.2476  0.0523  0.0200
 1812DOPC   D2A21257  21.608  17.591  13.332 -0.1078 -0.3600  0.1308
 1812DOPC   C3A21258  21.712  17.246  13.092 -0.2289  0.0212 -0.0908
 1812DOPC   C4A21259  21.710  16.827  13.152 -0.2782 -0.2285 -0.0365
 1812DOPC   C1B21260  22.331  17.241  13.629 -0.1680  0.3974  0.1096
 1812DOPC   D2B21261  22.390  16.779  13.750  0.0765  0.1388 -0.2254
 1812DOPC   C3B21262  22.716  16.554  13.502  0.0022 -0.2737  0.2028
 1812DOPC   C4B21263  23.053  16.532  13.186  0.1252  0.1848  0.2660
 1813POSM   NC321264  13.549  11.242  15.587 -0.0501 -0.3050  0.2619
 1813POSM   PO421265  13.222  11.508  15.584  0.0344 -0.1100  0.2153
 1813POSM   AM121266  13.094  11.523  15.284 -0.4329 -0.2011 -0.2410
 1813POSM   AM221267  13.041  11.365  15.049  0.0013 -0.2410 -0.0438
 1813POSM   T1A21268  12.750  11.758  14.963 -0.0589 -0.1471  0.0276
 1813POSM   C2A21269  12.774  11.975  14.548 -0.0968 -0.0305  0.0090
 1813POSM   C3A21270  12.671  11.809  14.189  0.2085 -0.2191 -0.0121
 1813POSM   C1B21271  12.758  11.172  15.015 -0.1595 -0.2885 -0.0988
 1813POSM   D2B21272  12.363  10.939  14.884 -0.1523  0.0771 -0.0084
 1813POSM   C3B21273  12.275  10.619  14.613  0.1253  0.2408 -0.2606
 1813POSM   C4B21274  12.235  10.590  14.160  0.0498  0.3151  0.2092
 1814DOPE   NH321275  20.044  13.816  15.153  0.0566 -0.2056 -0.0188
 1814DOPE   PO421276  20.198  14.085  15.070  0.3423 -0.1616 -0.0390
 1814DOPE   GL121277  20.107  14.168  14.694 -0.1732 -0.0852  0.2705
 1814DOPE   GL221278  20.158  14.494  14.588 -0.1687  0.0511  0.0204
 1814DOPE   C1A21279  20.066  13.979  14.268  0.0888 -0.0717  0.4308
 1814DOPE   D2A21280  20.011  14.039  13.815  0.2241 -0.0948 -0.3875
 1814DOPE   C3A21281  20.194  14.064  13.447  0.1235 -0.3913  0.0531
 1814DOPE   C4A21282  20.159  14.201  13.051 -0.0204 -0.0560 -0.0404
 1814DOPE   C1B21283  20.452  14.298  14.302  0.2284  0.2048  0.0536
 1814DOPE   D2B21284  20.508  14.302  13.866  0.3582 -0.0493 -0.1158
 1814DOPE   C3B21285  20.215  14.541  13.539 -0.1899  0.1966 -0.0177
 1814DOPE   C4B21286  20.337  14.760  13.159  0.0836 -0.1325 -0.0582
 1815DOPE   NH321287  21.578  15.641  14.993 -0.3861  0.0167 -0.0807
 1815DOPE   PO421288  21.769  15.846  14.852  0.0790 -0.0464  0.2073
 1815DOPE   GL121289  21.836  15.685  14.447  0.1649 -0.0463 -0.1496
 1815DOPE   GL221290  21.540  15.706  14.459 -0.2223 -0.0449  0.1218
 1815DOPE   C1A21291  21.769  15.950  14.042  0.2424 -0.0042  0.0779
 1815DOPE   D2A21292  22.147  16.212  13.823 -0.0923 -0.1910  0.1571
 1815DOPE   C3A21293  22.104  16.396  13.375  0.0805 -0.1520  0.1106
 1815DOPE   C4A21294  22.023  16.427  12.896  0.0899 -0.2613 -0.0566
 1815DOPE   C1B21295  21.335  15.513  14.032 -0.1359 -0.0106  0.0271
 1815DOPE   D2B21296  20.944  15.311  13.876  0.0575 -0.4457 -0.0687
 1815DOPE   C3B21297  20.872  15.145  13.461  0.2621  0.0006  0.1098
 1815DOPE   C4B21298  20.792  15.011  12.991  0.1011 -0.1126 -0.1371
 1816POSM   NC321299  14.621  12.790  14.853 -0.2753 -0.2278 -0.0965
 1816POSM   PO421300  15.017  12.758  14.884  0.1305 -0.1549 -0.1721
 1816POSM   AM121301  15.100  12.828  14.577  0.2169  0.1285 -0.1040
 1816POSM   AM221302  15.294  12.756  14.434 -0.2997  0.0767  0.0865
 1816POSM   T1A21303  15.012  13.008  14.131 -0.0547 -0.1292 -0.0125
 1816POSM   C2A21304  14.983  13.179  13.746 -0.2266 -0.1011 -0.0483
 1816POSM   C3A21305  14.906  13.252  13.336  0.1220  0.1818  0.0864
 1816POSM   C1B21306  15.373  12.612  14.160 -0.1409  0.3657  0.0032
 1816POSM   D2B21307  15.305  12.291  13.894  0.0917  0.3425 -0.0149
 1816POSM   C3B21308  15.603  12.220  13.541 -0.2248 -0.1137  0.0957
 1816POSM   C4B21309  15.577  11.987  13.112 -0.0349 -0.1308 -0.2717
 1817DOPS   CNO21310  19.573  13.864  15.706  0.2953  0.2303 -0.3495
 1817DOPS   PO421311  19.562  13.844  15.338 -0.0415  0.1772  0.0511
 1817DOPS   GL121312  19.362  13.739  14.959  0.0781  0.0993 -0.1198
 1817DOPS   GL221313  19.255  13.951  14.775 -0.3544  0.1609 -0.0657
 1817DOPS   C1A21314  19.463  13.540  14.516 -0.0736 -0.0116  0.0018
 1817DOPS   D2A21315  19.290  13.526  14.113  0.0170 -0.2926 -0.0289
 1817DOPS   C3A21316  19.156  13.737  13.702  0.3003 -0.5657  0.1543
 1817DOPS   C4A21317  18.976  13.635  13.296  0.0157 -0.2641 -0.0568
 1817DOPS   C1B21318  19.112  14.033  14.327  0.0258  0.0566 -0.0028
 1817DOPS   D2B21319  18.795  14.262  14.010 -0.1021  0.3075  0.0188
 1817DOPS   C3B21320  18.952  14.272  13.551 -0.0773  0.2021  0.1712
 1817DOPS   C4B21321  18.837  14.554  13.195  0.1962 -0.1188 -0.1033
 1818DOPC   NC321322  15.169  23.108  15.528 -0.1573 -0.1404 -0.4673
 1818DOPC   PO421323  14.993  22.747  15.554  0.1137 -0.0790  0.4054
 1818DOPC   GL121324  15.042  22.649  15.256  0.0286 -0.5807  0.0453
 1818DOPC   GL221325  14.759  22.619  15.123  0.1288  0.0013  0.2289
 1818DOPC   C1A21326  15.100  22.507  14.791  0.1825  0.1073  0.0860
 1818DOPC   D2A21327  14.834  22.649  14.418 -0.0394 -0.2612 -0.0372
 1818DOPC   C3A21328  14.921  22.446  13.992 -0.2032 -0.0289 -0.0201
 1818DOPC   C4A21329  15.040  22.445  13.531 -0.1623  0.4490  0.2596
 1818DOPC   C1B21330  14.621  22.930  14.823 -0.1813 -0.0802  0.3097
 1818DOPC   D2B21331  14.839  23.277  14.512 -0.2317  0.2641 -0.0266
 1818DOPC   C3B21332  14.949  23.279  14.069 -0.1721 -0.1706  0.3430
 1818DOPC   C4B21333  14.864  23.399  13.633  0.0344  0.0540  0.0708
 1819POSM   NC321334  17.648  17.651  14.940 -0.1034  0.0387 -0.0430
 1819POSM   PO421335  17.290  17.584  15.104 -0.1978 -0.1005 -0.0118
 1819POSM   AM121336  17.200  17.444  14.794 -0.3525  0.0690  0.0804
 1819POSM   AM221337  17.277  17.440  14.502 -0.0393  0.3257 -0.2516
 1819POSM   T1A21338  16.779  17.303  14.503  0.1943 -0.1656 -0.0978
 1819POSM   C2A21339  16.582  17.070  14.097  0.1378  0.0645 -0.1129
 1819POSM   C3A21340  16.429  16.824  13.742 -0.2555 -0.2413  0.3241
 1819POSM   C1B21341  17.140  17.526  14.233  0.2465 -0.2856 -0.3417
 1819POSM   D2B21342  16.893  17.440  13.854  0.1693  0.0317  0.1956
 1819POSM   C3B21343  16.459  17.552  13.920 -0.0842  0.0803 -0.0519
 1819POSM   C4B21344  15.968  17.375  13.897 -0.0609 -0.1281  0.0864
 1820DOPE   NH321345  18.634  13.783  15.423 -0.0605  0.0156 -0.1123
 1820DOPE   PO421346  18.324  13.800  15.264 -0.0250  0.2224 -0.0598
 1820DOPE   GL121347  18.413  13.773  14.932  0.0021  0.1939 -0.1287
 1820DOPE   GL221348  18.262  13.501  14.837 -0.1273 -0.1643 -0.1443
 1820DOPE   C1A21349  18.558  13.715  14.532 -0.1761  0.2344  0.1662
 1820DOPE   D2A21350  18.776  13.717  14.126  0.2816 -0.0786 -0.0634
 1820DOPE   C3A21351  18.540  13.849  13.781 -0.0420 -0.2414  0.2559
 1820DOPE   C4A21352  18.400  13.631  13.368  0.0550 -0.1738 -0.3091
 1820DOPE   C1B21353  17.961  13.622  14.529  0.0657 -0.0359  0.1640
 1820DOPE   D2B21354  17.788  13.647  14.116  0.0354 -0.0381 -0.1155
 1820DOPE   C3B21355  17.430  13.443  13.893 -0.2895  0.1154 -0.1396
 1820DOPE   C4B21356  16.997  13.389  13.677 -0.0743 -0.0777  0.3989
 1821DOPS   CNO21357  17.623  11.348  15.713 -0.0648  0.0652  0.0403
 1821DOPS   PO421358  17.312  11.538  15.778 -0.1329  0.0309 -0.0549
 1821DOPS   GL121359  17.422  11.652  15.379 -0.1315 -0.0874 -0.2944
 1821DOPS   GL221360  17.299  11.807  15.236  0.3189  0.0304 -0.1215
 1821DOPS   C1A21361  17.788  11.648  15.054 -0.1286  0.0510  0.2088
 1821DOPS   D2A21362  17.886  11.738  14.591 -0.3906 -0.0438 -0.1424
 1821DOPS   C3A21363  17.604  11.608  14.233  0.1685 -0.2541 -0.3676
 1821DOPS   C4A21364  17.318  11.282  14.227  0.1011 -0.2973 -0.1926
 1821DOPS   C1B21365  17.102  11.920  14.851  0.2374 -0.2031  0.0505
 1821DOPS   D2B21366  16.961  12.281  14.565  0.3572  0.2061 -0.2267
 1821DOPS   C3B21367  17.187  12.461  14.229 -0.1842  0.0127  0.0893
 1821DOPS   C4B21368  17.098  12.690  13.914 -0.0094 -0.1127  0.0728
 1822DOPS   CNO21369  17.431  21.171  15.278  0.0517 -0.2887  0.1111
 1822DOPS   PO421370  17.690  21.427  15.255  0.0640  0.5228 -0.0032
 1822DOPS   GL121371  17.527  21.341  14.867  0.3030  0.0616 -0.3241
 1822DOPS   GL221372  17.695  21.053  14.887 -0.1895 -0.2103 -0.0433
 1822DOPS   C1A21373  17.683  21.578  14.530 -0.0110  0.1903  0.1811
 1822DOPS   D2A21374  17.781  21.508  14.087 -0.1547  0.0506  0.2459
 1822DOPS   C3A21375  17.814  21.727  13.649 -0.1908  0.0678 -0.0820
 1822DOPS   C4A21376  17.647  22.120  13.444 -0.1906  0.0891  0.1182
 1822DOPS   C1B21377  17.900  20.825  14.533  0.0732  0.1147  0.0159
 1822DOPS   D2B21378  17.865  20.752  14.088  0.2223  0.1528  0.1457
 1822DOPS   C3B21379  17.927  21.084  13.724 -0.0896 -0.0597  0.0891
 1822DOPS   C4B21380  18.046  21.263  13.344  0.0178  0.1372  0.4800
 1823DOPE   NH321381  22.958  10.935  16.191  0.1680  0.2075  0.1136
 1823DOPE   PO421382  22.914  11.154  15.901 -0.4196 -0.2614 -0.0048
 1823DOPE   GL121383  22.646  11.249  15.764  0.0586  0.0231 -0.0520
 1823DOPE   GL221384  22.603  11.046  15.510 -0.1807 -0.1284  0.2781
 1823DOPE   C1A21385  22.534  11.567  15.452  0.1381  0.0361  0.2443
 1823DOPE   D2A21386  22.676  11.900  15.151 -0.1404 -0.1689 -0.1072
 1823DOPE   C3A21387  22.768  11.956  14.703 -0.2292  0.0676  0.1066
 1823DOPE   C4A21388  22.575  11.881  14.297 -0.1290  0.0568 -0.3140
 1823DOPE   C1B21389  22.468  11.088  15.077 -0.1521  0.0497  0.3033
 1823DOPE   D2B21390  22.343  10.851  14.745 -0.0295 -0.2534 -0.2251
 1823DOPE   C3B21391  22.249  11.088  14.340  0.2038  0.1657 -0.0604
 1823DOPE   C4B21392  22.338  11.013  13.859 -0.1338 -0.0234  0.0282
 1824DOPC   NC321393  17.642  13.501  15.011 -0.3284  0.0058 -0.1522
 1824DOPC   PO421394  17.373  13.694  15.199 -0.0160 -0.2862  0.2597
 1824DOPC   GL121395  17.217  13.666  14.832 -0.2698 -0.1315 -0.0473
 1824DOPC   GL221396  17.272  13.337  14.747 -0.3115 -0.0543  0.1461
 1824DOPC   C1A21397  17.566  13.874  14.555  0.0663 -0.2481  0.0489
 1824DOPC   D2A21398  17.862  14.193  14.316 -0.2136  0.0064 -0.0997
 1824DOPC   C3A21399  17.856  14.091  13.867  0.2564 -0.0330 -0.0790
 1824DOPC   C4A21400  17.945  13.678  13.652  0.2033  0.0929  0.4253
 1824DOPC   C1B21401  17.223  13.586  14.294 -0.0294  0.0954 -0.1376
 1824DOPC   D2B21402  17.070  13.866  13.945  0.0905 -0.4278 -0.0411
 1824DOPC   C3B21403  16.655  13.894  13.733 -0.4251 -0.2739  0.0221
 1824DOPC   C4B21404  16.457  13.729  13.393 -0.1273 -0.1451  0.1930
 1825DOPS   CNO21405  22.800  17.884  14.500  0.3174 -0.2735  0.0062
 1825DOPS   PO421406  22.541  17.988  14.732  0.0776  0.1023 -0.3896
 1825DOPS   GL121407  22.381  18.316  14.477  0.2869  0.0550 -0.0816
 1825DOPS   GL221408  22.382  18.541  14.654 -0.0883  0.1817 -0.0752
 1825DOPS   C1A21409  22.481  18.462  14.012 -0.2779 -0.1908  0.0009
 1825DOPS   D2A21410  22.513  18.402  13.544 -0.3074 -0.0771  0.2620
 1825DOPS   C3A21411  22.633  17.986  13.380 -0.1112 -0.1841 -0.1817
 1825DOPS   C4A21412  22.261  17.694  13.229 -0.2477  0.3399 -0.0445
 1825DOPS   C1B21413  22.041  18.735  14.336 -0.2153 -0.0364  0.0907
 1825DOPS   D2B21414  21.997  18.831  13.822 -0.3033  0.1993 -0.0467
 1825DOPS   C3B21415  22.383  18.869  13.554  0.2365 -0.1523  0.0389
 1825DOPS   C4B21416  22.646  19.093  13.220  0.1377  0.3164  0.1383
 1826DOPE   NH321417  14.980  22.092  15.655  0.0008  0.0313 -0.2169
 1826DOPE   PO421418  15.179  22.196  15.418  0.1576 -0.1593 -0.0239
 1826DOPE   GL121419  15.071  21.987  15.138  0.2382  0.2035 -0.0030
 1826DOPE   GL221420  15.122  21.725  15.254  0.2439  0.2983  0.0586
 1826DOPE   C1A21421  14.948  22.022  14.722 -0.0100 -0.1288 -0.1625
 1826DOPE   D2A21422  14.817  22.104  14.322 -0.2466 -0.0313 -0.1965
 1826DOPE   C3A21423  15.247  22.148  14.135  0.1327 -0.0344  0.0901
 1826DOPE   C4A21424  15.673  22.242  14.006 -0.0609 -0.2627 -0.0451
 1826DOPE   C1B21425  14.688  21.590  15.144 -0.1292  0.1022 -0.4024
 1826DOPE   D2B21426  14.237  21.398  15.095 -0.0185  0.4246 -0.1334
 1826DOPE   C3B21427  14.013  21.708  14.899  0.1795  0.1661 -0.1927
 1826DOPE   C4B21428  13.635  21.847  14.678 -0.2978  0.0543 -0.1380
 1827DOPE   NH321429  19.304  19.848  15.001 -0.1124 -0.2919 -0.0716
 1827DOPE   PO421430  19.536  19.777  14.796  0.1726  0.3704 -0.0647
 1827DOPE   GL121431  19.543  19.576  14.441  0.4635  0.4313  0.1548
 1827DOPE   GL221432  19.644  19.297  14.565  0.2145  0.1288  0.2771
 1827DOPE   C1A21433  19.679  19.497  13.978  0.0369 -0.2367  0.0285
 1827DOPE   D2A21434  19.860  19.170  13.751 -0.1928  0.0452  0.0521
 1827DOPE   C3A21435  19.881  18.928  13.360  0.0339  0.0489 -0.1537
 1827DOPE   C4A21436  20.135  18.556  13.253  0.2502 -0.2766  0.0137
 1827DOPE   C1B21437  19.391  19.214  14.221  0.0214  0.0733 -0.2994
 1827DOPE   D2B21438  19.323  19.001  13.848  0.0150  0.0332  0.1435
 1827DOPE   C3B21439  19.431  19.173  13.435 -0.0725  0.1960  0.0535
 1827DOPE   C4B21440  19.832  19.397  13.321  0.0097  0.1170 -0.3098
 1828DOPE   NH321441  18.789  16.036  15.259 -0.0575  0.0024  0.0805
 1828DOPE   PO421442  18.596  16.214  15.126 -0.0498  0.3179  0.0699
 1828DOPE   GL121443  18.795  16.283  14.749  0.3603  0.0530 -0.2021
 1828DOPE   GL221444  18.525  16.464  14.668  0.0587 -0.0403  0.4652
 1828DOPE   C1A21445  18.700  16.060  14.358  0.1432 -0.0824 -0.2024
 1828DOPE   D2A21446  18.525  15.869  14.037  0.1807  0.0954 -0.1595
 1828DOPE   C3A21447  18.439  15.977  13.572  0.1000  0.1443  0.0541
 1828DOPE   C4A21448  18.285  16.142  13.119  0.1087  0.0739 -0.2032
 1828DOPE   C1B21449  18.196  16.471  14.360 -0.1793 -0.0161 -0.1727
 1828DOPE   D2B21450  18.169  16.692  13.906 -0.0106  0.0841 -0.3560
 1828DOPE   C3B21451  18.286  16.953  13.526 -0.0460 -0.4396 -0.0300
 1828DOPE   C4B21452  18.380  17.339  13.265  0.1194  0.1602 -0.0502
 1829DOPC   NC321453  22.498  21.339  15.894 -0.2100 -0.1096 -0.1128
 1829DOPC   PO421454  22.479  21.705  15.758 -0.2310 -0.1205  0.2996
 1829DOPC   GL121455  22.657  21.762  15.401  0.1387  0.2578  0.5373
 1829DOPC   GL221456  22.718  22.073  15.463 -0.0704  0.0114 -0.2810
 1829DOPC   C1A21457  23.083  21.821  15.253  0.1043  0.1615 -0.2773
 1829DOPC   D2A21458  23.512  22.013  15.197  0.2575  0.1758  0.3214
 1829DOPC   C3A21459  23.774  22.064  14.878 -0.1204 -0.2222 -0.0950
 1829DOPC   C4A21460  24.259  22.065  14.685  0.0933  0.1538  0.0946
 1829DOPC   C1B21461  22.600  21.976  15.010 -0.2164  0.0040  0.0423
 1829DOPC   D2B21462  22.579  21.730  14.619  0.2194  0.0333 -0.0681
 1829DOPC   C3B21463  22.812  21.950  14.271  0.0605  0.2264  0.0353
 1829DOPC   C4B21464  22.888  22.336  14.036 -0.0789 -0.3334  0.0087
 1830POSM   NC321465  13.375  17.465  15.377 -0.4324 -0.0497  0.1377
 1830POSM   PO421466  13.706  17.647  15.517  0.0814 -0.0313 -0.1901
 1830POSM   AM121467  13.763  17.761  15.234 -0.2354 -0.2876 -0.1208
 1830POSM   AM221468  13.717  17.681  14.966 -0.1676  0.2086  0.0541
 1830POSM   T1A21469  13.830  18.155  14.898 -0.1789 -0.1413 -0.4612
 1830POSM   C2A21470  13.841  18.277  14.504 -0.1826  0.2411 -0.0035
 1830POSM   C3A21471  13.668  18.247  14.059 -0.4219  0.0214  0.0457
 1830POSM   C1B21472  13.386  17.628  14.706  0.1273  0.2094 -0.0916
 1830POSM   D2B21473  13.079  17.418  14.482 -0.1919 -0.1391  0.1688
 1830POSM   C3B21474  13.248  17.063  14.222 -0.4037  0.1194  0.1913
 1830POSM   C4B21475  13.207  16.683  13.974 -0.2623 -0.1291  0.0655
 1831POSM   NC321476  10.962  21.243  16.138  0.2101  0.3142 -0.1155
 1831POSM   PO421477  11.096  20.864  16.122 -0.3421 -0.0033  0.1238
 1831POSM   AM121478  11.089  20.948  15.813  0.0988 -0.0109  0.0865
 1831POSM   AM221479  11.196  20.847  15.564  0.1029 -0.2839 -0.0473
 1831POSM   T1A21480  10.871  21.270  15.460 -0.1949 -0.3383 -0.0120
 1831POSM   C2A21481  10.809  21.675  15.273  0.0658  0.1911 -0.1313
 1831POSM   C3A21482  10.979  21.902  14.962 -0.2616  0.0613  0.2148
 1831POSM   C1B21483  11.033  20.801  15.242 -0.2271 -0.0660 -0.2094
 1831POSM   D2B21484  11.102  20.973  14.777 -0.2775 -0.0965 -0.0685
 1831POSM   C3B21485  11.577  20.946  14.669 -0.2261  0.2472 -0.1353
 1831POSM   C4B21486  11.966  20.652  14.691 -0.0419 -0.0252  0.1183
 1832DOPC   NC321487  16.185  15.268  14.816 -0.1129  0.3842  0.1894
 1832DOPC   PO421488  16.352  15.533  15.047  0.1961  0.0041 -0.0967
 1832DOPC   GL121489  16.579  15.493  14.629  0.3271  0.3256 -0.3159
 1832DOPC   GL221490  16.450  15.719  14.534  0.1949  0.2037  0.3105
 1832DOPC   C1A21491  16.817  15.276  14.243 -0.0350  0.1847 -0.0153
 1832DOPC   D2A21492  17.065  15.137  13.930  0.0210 -0.2344 -0.0739
 1832DOPC   C3A21493  16.942  15.140  13.448  0.1551 -0.3041 -0.3180
 1832DOPC   C4A21494  16.518  14.901  13.283  0.0098 -0.0853  0.1460
 1832DOPC   C1B21495  16.622  16.149  14.514  0.0296  0.2895 -0.1559
 1832DOPC   D2B21496  16.880  16.335  14.114  0.1815  0.1609 -0.1055
 1832DOPC   C3B21497  16.722  16.451  13.684 -0.2347 -0.2546  0.0295
 1832DOPC   C4B21498  16.933  16.601  13.296 -0.0140  0.1759 -0.0799
 1833DOPC   NC321499  19.609  16.350  15.019  0.4061  0.0076  0.1324
 1833DOPC   PO421500  19.483  16.702  14.891 -0.0872  0.0032  0.2126
 1833DOPC   GL121501  19.470  16.509  14.518 -0.1303 -0.1173 -0.3043
 1833DOPC   GL221502  19.348  16.254  14.568  0.1002  0.1285 -0.3242
 1833DOPC   C1A21503  19.486  16.758  14.137  0.1059 -0.1157 -0.1733
 1833DOPC   D2A21504  19.646  16.919  13.700 -0.2027  0.4282 -0.0086
 1833DOPC   C3A21505  19.375  17.067  13.388  0.0798  0.0123  0.1300
 1833DOPC   C4A21506  19.181  17.276  13.064  0.2455 -0.1693 -0.1434
 1833DOPC   C1B21507  19.043  16.528  14.319 -0.2155 -0.1006 -0.1366
 1833DOPC   D2B21508  18.709  16.407  14.030  0.0021 -0.2843  0.1613
 1833DOPC   C3B21509  18.908  16.291  13.663 -0.1211 -0.2655 -0.0662
 1833DOPC   C4B21510  19.098  16.211  13.232  0.2252  0.1068  0.2016
 1834DOPS   CNO21511  12.598  20.147  16.018 -0.2075 -0.2847 -0.0208
 1834DOPS   PO421512  12.242  20.088  15.866 -0.0707  0.1389 -0.0542
 1834DOPS   GL121513  12.135  20.290  15.529  0.2285 -0.2757  0.6369
 1834DOPS   GL221514  11.889  20.138  15.357  0.3818 -0.1640  0.0684
 1834DOPS   C1A21515  12.063  20.575  15.208  0.0032  0.0671  0.2194
 1834DOPS   D2A21516  12.402  20.757  14.936  0.1977 -0.1130 -0.3171
 1834DOPS   C3A21517  12.422  20.819  14.447 -0.0867 -0.3537  0.0170
 1834DOPS   C4A21518  12.569  20.833  13.997 -0.1857  0.1204 -0.0997
 1834DOPS   C1B21519  12.199  20.085  14.999 -0.1702 -0.2687 -0.0712
 1834DOPS   D2B21520  12.394  20.296  14.635  0.4989 -0.1622  0.0183
 1834DOPS   C3B21521  12.687  20.043  14.313  0.1396 -0.0587 -0.2329
 1834DOPS   C4B21522  13.166  20.195  14.134 -0.1507 -0.1302 -0.5099
 1835DOPE   NH321523  20.012  12.962  15.333 -0.1761 -0.2761 -0.2179
 1835DOPE   PO421524  19.752  12.943  15.483 -0.0348 -0.2698 -0.0749
 1835DOPE   GL121525  19.560  12.660  15.216  0.0375  0.2062 -0.0866
 1835DOPE   GL221526  19.780  12.648  15.021  0.2006  0.3518 -0.4611
 1835DOPE   C1A21527  19.224  12.669  14.844  0.2767  0.1725 -0.0026
 1835DOPE   D2A21528  19.264  12.910  14.440 -0.3218 -0.0742  0.0782
 1835DOPE   C3A21529  19.329  12.657  14.059 -0.4294 -0.2326  0.1273
 1835DOPE   C4A21530  18.919  12.514  13.848 -0.0395 -0.1029 -0.1438
 1835DOPE   C1B21531  19.468  13.066  14.892 -0.1534  0.2927  0.0174
 1835DOPE   D2B21532  19.090  13.361  14.815  0.0454  0.0959 -0.0105
 1835DOPE   C3B21533  18.828  13.197  14.395 -0.3487  0.1931  0.2324
 1835DOPE   C4B21534  19.012  12.992  14.022 -0.0514  0.0036  0.1512
 1836DOPS   CNO21535  19.976  16.742  14.105  0.0732  0.1163  0.0943
 1836DOPS   PO421536  20.232  16.934  14.282 -0.1996  0.1422  0.0242
 1836DOPS   GL121537  20.437  17.039  13.915 -0.1593 -0.0345 -0.0084
 1836DOPS   GL221538  20.577  16.756  13.905  0.0777  0.1516 -0.0841
 1836DOPS   C1A21539  20.475  17.395  13.604 -0.1092  0.3568 -0.1313
 1836DOPS   D2A21540  20.600  17.551  13.178  0.0473 -0.0754 -0.2237
 1836DOPS   C3A21541  20.401  17.453  12.759 -0.1262  0.1915  0.0418
 1836DOPS   C4A21542  20.123  17.366  12.416 -0.1533 -0.0726  0.3651
 1836DOPS   C1B21543  20.531  16.358  13.702  0.1083  0.3386  0.1328
 1836DOPS   D2B21544  20.551  15.897  13.731 -0.1831 -0.2933  0.2872
 1836DOPS   C3B21545  20.471  15.533  13.489 -0.2115 -0.3356 -0.0761
 1836DOPS   C4B21546  20.288  15.235  13.207 -0.2654  0.2483  0.0844
 1837DOPE   NH321547  21.888  11.911  11.755  0.0170 -0.0677  0.0726
 1837DOPE   PO421548  22.033  12.252  11.671  0.1339 -0.1469  0.1190
 1837DOPE   GL121549  21.994  12.614  11.854 -0.0789 -0.0768  0.2039
 1837DOPE   GL221550  22.149  12.540  12.076 -0.2981 -0.1228  0.0744
 1837DOPE   C1A21551  22.224  13.024  11.910 -0.0937  0.2242 -0.0054
 1837DOPE   D2A21552  22.639  13.175  12.147 -0.0870  0.0935 -0.3968
 1837DOPE   C3A21553  22.721  13.170  12.601 -0.0737 -0.1558  0.0622
 1837DOPE   C4A21554  22.744  12.886  12.960 -0.0639  0.0630  0.2235
 1837DOPE   C1B21555  22.667  12.469  12.147  0.1363 -0.0065 -0.1390
 1837DOPE   D2B21556  23.049  12.284  12.329 -0.2040  0.3355 -0.1525
 1837DOPE   C3B21557  23.457  12.488  12.220  0.0394  0.2568 -0.2073
 1837DOPE   C4B21558  23.522  12.986  12.083  0.2572 -0.4581 -0.1003
 1838DOPS   CNO21559  13.260  16.189  11.466 -0.2526  0.1318  0.1892
 1838DOPS   PO421560  13.081  16.058  11.745  0.3021  0.2705 -0.0957
 1838DOPS   GL121561  13.231  15.661  11.899  0.1428 -0.0397 -0.0346
 1838DOPS   GL221562  13.170  15.406  12.100 -0.1261 -0.2115  0.0008
 1838DOPS   C1A21563  13.539  15.625  12.277 -0.0885  0.0369  0.3165
 1838DOPS   D2A21564  13.704  15.360  12.610  0.0452  0.0190 -0.1713
 1838DOPS   C3A21565  13.600  14.979  12.819 -0.0335 -0.1695 -0.2510
 1838DOPS   C4A21566  13.265  14.644  13.027 -0.3073 -0.1134 -0.1196
 1838DOPS   C1B21567  12.910  15.526  12.500  0.0803  0.1998  0.1073
 1838DOPS   D2B21568  12.785  15.387  12.881 -0.1452  0.1040  0.0619
 1838DOPS   C3B21569  12.352  15.241  13.007 -0.2093  0.0785  0.2205
 1838DOPS   C4B21570  12.161  14.974  13.393  0.1120  0.3104 -0.4029
 1839DOPE   NH321571  20.540  11.744  12.101  0.0304 -0.3517  0.0599
 1839DOPE   PO421572  20.325  11.958  12.042 -0.0253 -0.0233 -0.2773
 1839DOPE   GL121573  20.142  12.350  12.012 -0.0807 -0.0015  0.2995
 1839DOPE   GL221574  20.436  12.463  11.957  0.0544 -0.0619  0.0542
 1839DOPE   C1A21575  20.136  12.767  12.255 -0.1503 -0.0537  0.1410
 1839DOPE   D2A21576  20.044  13.234  12.355  0.0013 -0.0527  0.2933
 1839DOPE   C3A21577  20.413  13.486  12.469 -0.1086  0.0090  0.0119
 1839DOPE   C4A21578  20.617  13.846  12.469  0.0131 -0.0871  0.0699
 1839DOPE   C1B21579  20.711  12.806  12.189  0.1663 -0.4006 -0.0721
 1839DOPE   D2B21580  20.855  13.153  12.459  0.2434 -0.2889  0.0599
 1839DOPE   C3B21581  21.133  13.466  12.652 -0.4353  0.0233  0.0903
 1839DOPE   C4B21582  21.447  13.621  12.967 -0.2369  0.0933  0.0789
 1840DOPE   NH321583  21.445  11.836  12.165 -0.0611  0.0209 -0.1032
 1840DOPE   PO421584  21.291  12.108  12.329 -0.0929  0.2316  0.1330
 1840DOPE   GL121585  21.393  12.386  12.674 -0.0466 -0.0381  0.0145
 1840DOPE   GL221586  21.552  12.562  12.509  0.2270  0.0534  0.0516
 1840DOPE   C1A21587  21.332  12.759  12.960  0.3809  0.3055 -0.0710
 1840DOPE   D2A21588  21.319  13.183  13.170 -0.0839  0.0163  0.1646
 1840DOPE   C3A21589  21.554  13.027  13.548 -0.0391 -0.1616  0.1071
 1840DOPE   C4A21590  21.594  12.561  13.671  0.1809 -0.1409  0.1281
 1840DOPE   C1B21591  21.950  12.579  12.619 -0.0856  0.2478  0.0544
 1840DOPE   D2B21592  22.339  12.737  12.535 -0.4771  0.0716  0.1366
 1840DOPE   C3B21593  22.195  13.141  12.743  0.3634  0.3137  0.0491
 1840DOPE   C4B21594  22.031  13.296  13.135  0.1844  0.0904 -0.4433
 1841DOPC   NC321595  21.135  12.514  12.143 -0.0656  0.1050 -0.1763
 1841DOPC   PO421596  21.205  12.646  11.766 -0.1139 -0.0176 -0.1859
 1841DOPC   GL121597  21.164  12.984  12.061  0.5077  0.0953  0.2227
 1841DOPC   GL221598  20.981  13.244  12.002 -0.1530  0.1883  0.0514
 1841DOPC   C1A21599  21.358  13.024  12.444  0.1201 -0.0765  0.1762
 1841DOPC   D2A21600  21.726  13.061  12.841 -0.0594 -0.3642  0.2953
 1841DOPC   C3A21601  21.837  12.715  13.191  0.2069 -0.2846  0.1454
 1841DOPC   C4A21602  21.665  12.273  13.129  0.0142 -0.1925  0.2499
 1841DOPC   C1B21603  20.934  13.700  12.123  0.0326  0.0358  0.1841
 1841DOPC   D2B21604  21.036  14.100  12.341  0.0032 -0.1443 -0.3870
 1841DOPC   C3B21605  21.473  14.165  12.532 -0.0572 -0.1214 -0.0786
 1841DOPC   C4B21606  21.768  14.500  12.472 -0.0314  0.2422 -0.0978
 1842DOPC   NC321607  13.025  19.333  12.286 -0.2310 -0.0111  0.0512
 1842DOPC   PO421608  13.283  19.500  12.539  0.0327 -0.1326 -0.0193
 1842DOPC   GL121609  13.522  19.622  12.777  0.2695 -0.2934  0.0059
 1842DOPC   GL221610  13.313  19.823  12.923  0.1344  0.2623 -0.1023
 1842DOPC   C1A21611  13.810  19.848  13.156  0.0859  0.0566  0.1161
 1842DOPC   D2A21612  14.188  20.074  13.321  0.1487  0.0604 -0.0790
 1842DOPC   C3A21613  14.458  19.803  13.600  0.1002  0.1898 -0.2019
 1842DOPC   C4A21614  14.827  19.565  13.797  0.1828 -0.1244 -0.1223
 1842DOPC   C1B21615  13.414  19.745  13.399 -0.0039  0.2910 -0.4435
 1842DOPC   D2B21616  13.554  19.468  13.719  0.2018 -0.1133  0.1568
 1842DOPC   C3B21617  13.963  19.650  13.635 -0.0347  0.1605 -0.0652
 1842DOPC   C4B21618  14.198  19.847  14.012  0.0372  0.2562 -0.1742
 1843DOPE   NH321619   9.780  19.243  12.627  0.3608 -0.1615 -0.3302
 1843DOPE   PO421620   9.977  19.239  12.365 -0.2790  0.1760 -0.4469
 1843DOPE   GL121621  10.284  19.358  12.629 -0.2420  0.0631  0.0975
 1843DOPE   GL221622  10.477  19.239  12.496  0.2410  0.1217 -0.2455
 1843DOPE   C1A21623  10.579  19.572  12.911  0.1342 -0.1845 -0.0351
 1843DOPE   D2A21624  10.544  19.998  13.109 -0.3517 -0.0141  0.2760
 1843DOPE   C3A21625  10.940  20.299  13.060  0.0956 -0.1600 -0.1603
 1843DOPE   C4A21626  11.288  20.348  13.287 -0.0413  0.1190 -0.1838
 1843DOPE   C1B21627  10.905  19.315  12.297  0.1534  0.1777 -0.0496
 1843DOPE   D2B21628  11.335  19.571  12.397  0.1667  0.0096 -0.2010
 1843DOPE   C3B21629  11.382  19.696  12.843  0.1364 -0.0035 -0.1376
 1843DOPE   C4B21630  11.523  19.501  13.230  0.0461 -0.2966  0.0759
 1844DOPE   NH321631  23.411  21.950  11.885 -0.1718 -0.1424 -0.0490
 1844DOPE   PO421632  23.364  21.802  12.170 -0.0209 -0.2729  0.2724
 1844DOPE   GL121633  23.462  21.436  12.333  0.0113 -0.1469  0.0411
 1844DOPE   GL221634  23.158  21.244  12.324 -0.2005  0.2966  0.0470
 1844DOPE   C1A21635  23.390  21.221  12.770 -0.1374 -0.0900  0.0837
 1844DOPE   D2A21636  23.471  21.186  13.232 -0.0408  0.2123 -0.1520
 1844DOPE   C3A21637  23.221  21.135  13.645  0.2172 -0.1411 -0.2545
 1844DOPE   C4A21638  22.947  21.079  14.044  0.2044 -0.0585  0.0700
 1844DOPE   C1B21639  22.852  21.213  12.679  0.2194  0.1842 -0.0125
 1844DOPE   D2B21640  22.608  20.829  12.760 -0.1957  0.0402 -0.0466
 1844DOPE   C3B21641  22.219  20.917  12.837 -0.0509  0.0317 -0.0874
 1844DOPE   C4B21642  21.923  21.298  12.809 -0.2290  0.0131  0.0035
 1845DOPE   NH321643  18.147  16.592  11.285 -0.0363 -0.0705 -0.1736
 1845DOPE   PO421644  18.055  16.828  11.421  0.2091 -0.0655  0.1374
 1845DOPE   GL121645  18.245  16.982  11.740  0.0257  0.3521 -0.0822
 1845DOPE   GL221646  18.514  17.183  11.793 -0.0206 -0.1060  0.4797
 1845DOPE   C1A21647  18.095  17.200  12.116  0.0969  0.2221  0.2372
 1845DOPE   D2A21648  17.887  17.446  12.408 -0.0389 -0.3404  0.3469
 1845DOPE   C3A21649  17.770  17.224  12.790  0.0305 -0.4110  0.1658
 1845DOPE   C4A21650  17.757  16.831  13.045  0.1736  0.0970  0.1964
 1845DOPE   C1B21651  18.500  16.765  12.066 -0.0937 -0.1764  0.0574
 1845DOPE   D2B21652  18.534  16.369  12.267  0.2199  0.1815  0.0965
 1845DOPE   C3B21653  18.473  16.155  12.643  0.0804 -0.0920 -0.1479
 1845DOPE   C4B21654  18.747  15.942  13.001  0.2943  0.0692 -0.0723
 1846POSM   NC321655  12.200  20.675  12.119 -0.0310 -0.2421 -0.0680
 1846POSM   PO421656  12.426  20.864  12.369 -0.1310 -0.1172 -0.1086
 1846POSM   AM121657  12.462  20.565  12.497  0.1100  0.0556  0.0954
 1846POSM   AM221658  12.393  20.273  12.460  0.2794 -0.1631 -0.0535
 1846POSM   T1A21659  12.675  20.348  12.936  0.0023  0.0796  0.0687
 1846POSM   C2A21660  13.096  20.248  13.069  0.0146 -0.0395  0.1971
 1846POSM   C3A21661  13.536  20.281  13.227  0.1540  0.2167 -0.1387
 1846POSM   C1B21662  12.230  20.276  12.780 -0.0301  0.2131 -0.2835
 1846POSM   D2B21663  12.215  20.195  13.232  0.1469 -0.0126  0.0299
 1846POSM   C3B21664  12.625  20.176  13.454 -0.2196 -0.2876 -0.2113
 1846POSM   C4B21665  12.766  20.361  13.865 -0.0501 -0.0576 -0.0539
 1847DOPE   NH321666  16.041  19.327  11.983  0.1361  0.0007  0.1304
 1847DOPE   PO421667  15.782  19.539  11.971  0.3684 -0.0735 -0.2588
 1847DOPE   GL121668  15.593  19.591  12.308  0.3005  0.3331 -0.4762
 1847DOPE   GL221669  15.348  19.583  12.285 -0.1013 -0.1718 -0.0165
 1847DOPE   C1A21670  15.521  19.777  12.735  0.1969  0.3199 -0.0638
 1847DOPE   D2A21671  15.422  20.065  13.042  0.1407 -0.1646 -0.3697
 1847DOPE   C3A21672  15.447  20.051  13.512 -0.1923 -0.0701 -0.3846
 1847DOPE   C4A21673  15.208  19.996  13.931 -0.0728 -0.1690  0.0984
 1847DOPE   C1B21674  14.943  19.516  12.492 -0.0317 -0.1659 -0.1092
 1847DOPE   D2B21675  14.597  19.664  12.725  0.0074  0.1904  0.2216
 1847DOPE   C3B21676  14.665  19.544  13.178  0.3339 -0.0400 -0.3364
 1847DOPE   C4B21677  14.606  19.235  13.455 -0.0758  0.3086  0.3119
 1848POSM   NC321678  17.935  19.629  11.694  0.1278 -0.1280  0.0329
 1848POSM   PO421679  18.128  19.406  11.946  0.0143  0.0249 -0.1998
 1848POSM   AM121680  18.163  19.342  12.223 -0.5362 -0.0867 -0.1094
 1848POSM   AM221681  18.306  19.186  12.434  0.1165 -0.2519  0.2079
 1848POSM   T1A21682  17.922  19.500  12.646 -0.0435  0.0691  0.0803
 1848POSM   C2A21683  17.939  19.698  13.022 -0.0283 -0.0016 -0.0536
 1848POSM   C3A21684  17.952  19.732  13.456  0.3058  0.0999  0.1534
 1848POSM   C1B21685  18.551  18.983  12.593 -0.0346 -0.1018  0.0150
 1848POSM   D2B21686  18.824  18.589  12.611  0.1590  0.0798 -0.0878
 1848POSM   C3B21687  18.526  18.176  12.620  0.1783  0.2465  0.2551
 1848POSM   C4B21688  18.193  17.887  12.430  0.1455  0.2734  0.1374
 1849POSM   NC321689  12.814  11.552  11.956  0.1760 -0.2122 -0.2387
 1849POSM   PO421690  12.504  11.307  11.945 -0.0332  0.2329 -0.3797
 1849POSM   AM121691  12.339  11.602  12.015 -0.0526 -0.1587  0.0827
 1849POSM   AM221692  12.183  11.717  12.229  0.1247  0.0371 -0.0451
 1849POSM   T1A21693  12.279  12.017  11.782 -0.1237 -0.3120 -0.0904
 1849POSM   C2A21694  12.128  12.439  11.830  0.3095  0.0499  0.0824
 1849POSM   C3A21695  12.270  12.840  11.686  0.1533  0.1783 -0.2561
 1849POSM   C1B21696  12.155  12.068  12.310  0.0309 -0.2551  0.0859
 1849POSM   D2B21697  11.986  12.398  12.586 -0.1764  0.1695  0.0127
 1849POSM   C3B21698  11.849  12.687  12.957 -0.0135  0.0199  0.0235
 1849POSM   C4B21699  12.054  13.122  13.132  0.0069  0.0859  0.0072
 1850DOPC   NC321700  23.037  20.822  11.491 -0.2015 -0.1982 -0.1461
 1850DOPC   PO421701  22.726  20.586  11.482 -0.2340 -0.0781 -0.1944
 1850DOPC   GL121702  22.436  20.865  11.532 -0.1132  0.0667 -0.1268
 1850DOPC   GL221703  22.168  20.841  11.346  0.2322 -0.3261  0.1858
 1850DOPC   C1A21704  22.590  21.351  11.650 -0.2404 -0.1634 -0.1815
 1850DOPC   D2A21705  22.851  21.701  11.801 -0.1631 -0.1250 -0.1100
 1850DOPC   C3A21706  22.683  21.736  12.302 -0.2181 -0.1000 -0.0116
 1850DOPC   C4A21707  22.763  21.752  12.812  0.1323  0.2037  0.0349
 1850DOPC   C1B21708  21.809  20.989  11.645 -0.0455  0.0803 -0.3249
 1850DOPC   D2B21709  21.496  21.015  11.973  0.2742  0.2160  0.2521
 1850DOPC   C3B21710  21.084  20.816  12.133  0.2150 -0.0752 -0.0081
 1850DOPC   C4B21711  20.893  20.454  12.379  0.1541  0.3110 -0.1602
 1851DOPC   NC321712  19.174  19.732  11.827  0.0803 -0.0872  0.3872
 1851DOPC   PO421713  19.169  20.014  11.542 -0.3689 -0.1016  0.0273
 1851DOPC   GL121714  19.077  20.276  11.843  0.0930  0.1286  0.1959
 1851DOPC   GL221715  18.944  20.471  11.741 -0.0944  0.0883 -0.2071
 1851DOPC   C1A21716  19.285  20.262  12.222  0.0649 -0.5486 -0.1696
 1851DOPC   D2A21717  19.271  19.899  12.470 -0.0253 -0.0657  0.1414
 1851DOPC   C3A21718  19.372  19.537  12.768  0.2539 -0.0036 -0.0419
 1851DOPC   C4A21719  19.292  19.679  13.257 -0.0123  0.2153  0.1060
 1851DOPC   C1B21720  19.339  20.687  11.887  0.2002  0.0676  0.0372
 1851DOPC   D2B21721  19.543  20.976  12.200 -0.1786  0.2837 -0.0646
 1851DOPC   C3B21722  19.355  21.265  12.526  0.1295 -0.0770  0.0092
 1851DOPC   C4B21723  19.418  21.561  12.891 -0.0717 -0.0732  0.1296
 1852DOPC   NC321724  14.623  16.750  11.783  0.0971  0.1121  0.3444
 1852DOPC   PO421725  14.512  16.500  12.057  0.0334 -0.2078 -0.0955
 1852DOPC   GL121726  14.868  16.507  12.259  0.0417  0.0090  0.2757
 1852DOPC   GL221727  15.146  16.525  12.084  0.1201  0.0621  0.0857
 1852DOPC   C1A21728  15.104  16.171  12.400 -0.1859 -0.1264 -0.0311
 1852DOPC   D2A21729  15.246  16.136  12.842 -0.2277  0.1810  0.1239
 1852DOPC   C3A21730  15.314  16.345  13.300 -0.1240  0.2015 -0.1708
 1852DOPC   C4A21731  15.322  16.630  13.645  0.1088 -0.0321  0.3361
 1852DOPC   C1B21732  15.499  16.300  11.904  0.0939  0.0699 -0.1793
 1852DOPC   D2B21733  15.877  16.026  11.824 -0.2530 -0.3568 -0.2078
 1852DOPC   C3B21734  16.186  16.300  11.988  0.2944 -0.4338 -0.0374
 1852DOPC   C4B21735  16.114  16.627  12.287  0.1770  0.1970 -0.0723
 1853DOPE   NH321736  18.883  11.819  12.462  0.4358 -0.0779  0.1502
 1853DOPE   PO421737  18.842  11.839  12.137  0.5204  0.1257  0.0317
 1853DOPE   GL121738  18.436  11.916  12.375  0.0754 -0.0119 -0.1042
 1853DOPE   GL221739  18.512  12.185  12.363 -0.1318  0.1996 -0.0902
 1853DOPE   C1A21740  18.329  12.074  12.815 -0.0877  0.2432  0.2290
 1853DOPE   D2A21741  18.110  11.919  13.164 -0.1431  0.2062  0.1128
 1853DOPE   C3A21742  17.776  11.571  13.214 -0.1926  0.2344  0.1836
 1853DOPE   C4A21743  17.555  11.340  13.582  0.0040 -0.2818  0.0627
 1853DOPE   C1B21744  18.327  12.533  12.610  0.1044  0.1550  0.1683
 1853DOPE   D2B21745  18.196  12.512  13.048 -0.1071 -0.1236  0.1054
 1853DOPE   C3B21746  18.265  12.875  13.295 -0.1693  0.1385 -0.1373
 1853DOPE   C4B21747  18.153  13.207  13.500 -0.0327  0.0670 -0.2024
 1854POSM   NC321748  18.096  11.623  12.542  0.0492 -0.0167 -0.0233
 1854POSM   PO421749  18.023  11.256  12.682  0.0638 -0.1024  0.1248
 1854POSM   AM121750  17.852  11.180  12.966  0.0864 -0.1398  0.3738
 1854POSM   AM221751  17.922  11.100  13.245  0.2602 -0.0162 -0.3660
 1854POSM   T1A21752  17.581  10.783  13.144 -0.0161 -0.1506  0.1843
 1854POSM   C2A21753  17.252  10.473  13.094 -0.1742  0.0349 -0.2292
 1854POSM   C3A21754  17.083  10.065  13.221 -0.1623 -0.0363  0.0366
 1854POSM   C1B21755  18.126  11.151  13.490 -0.0962 -0.0833  0.0231
 1854POSM   D2B21756  18.498  11.119  13.719 -0.2470  0.1102  0.1599
 1854POSM   C3B21757  18.593  11.309  14.171 -0.2622  0.1597 -0.1276
 1854POSM   C4B21758  18.451  11.648  14.456 -0.2529  0.2567  0.0926
 1855DOPE   NH321759  12.013  21.197  12.597  0.3154  0.0096 -0.0554
 1855DOPE   PO421760  11.847  21.003  12.363  0.0682  0.0748 -0.2448
 1855DOPE   GL121761  11.934  20.752  12.643  0.1109 -0.2518  0.0867
 1855DOPE   GL221762  11.925  20.504  12.526  0.0469 -0.0310  0.2923
 1855DOPE   C1A21763  12.322  20.701  12.952 -0.1816 -0.1994  0.1440
 1855DOPE   D2A21764  12.523  20.741  13.377 -0.2161 -0.0232 -0.0173
 1855DOPE   C3A21765  12.306  20.505  13.720  0.1913  0.1476 -0.1882
 1855DOPE   C4A21766  12.323  20.312  14.142  0.0688  0.4926  0.0364
 1855DOPE   C1B21767  11.744  20.405  12.980  0.1232  0.1199 -0.0053
 1855DOPE   D2B21768  11.797  20.405  13.462 -0.0295  0.0591 -0.0729
 1855DOPE   C3B21769  11.540  20.787  13.555 -0.0358  0.3658  0.4234
 1855DOPE   C4B21770  11.366  20.891  13.991 -0.0299 -0.0002 -0.1734
 1856DOPC   NC321771  19.902  11.325  12.602 -0.1352  0.2868  0.1973
 1856DOPC   PO421772  20.136  11.336  12.231 -0.0029  0.2326 -0.1600
 1856DOPC   GL121773  20.372  11.468  12.588  0.0513 -0.6122  0.1026
 1856DOPC   GL221774  20.522  11.782  12.719  0.0792  0.0637 -0.1141
 1856DOPC   C1A21775  20.692  11.325  12.955  0.2998 -0.2348 -0.2230
 1856DOPC   D2A21776  20.533  11.119  13.366 -0.1201 -0.2527  0.0216
 1856DOPC   C3A21777  20.390  11.079  13.823 -0.0493 -0.0970 -0.1246
 1856DOPC   C4A21778  20.178  11.237  14.205  0.1115  0.3016 -0.1697
 1856DOPC   C1B21779  20.922  11.948  12.871  0.3318  0.1508  0.1848
 1856DOPC   D2B21780  21.186  12.256  13.052  0.0049 -0.1121 -0.0725
 1856DOPC   C3B21781  20.966  12.387  13.429 -0.2518  0.1315  0.1945
 1856DOPC   C4B21782  20.860  12.406  13.869  0.1937  0.0379 -0.1100
 1857POSM   NC321783  18.932  11.372  12.241  0.1645 -0.1030 -0.0385
 1857POSM   PO421784  19.037  11.352  12.608  0.0253 -0.0262 -0.3419
 1857POSM   AM121785  18.965  11.508  12.920  0.1448 -0.1190  0.3896
 1857POSM   AM221786  18.796  11.713  12.957  0.0053 -0.2862  0.1848
 1857POSM   T1A21787  19.095  11.580  13.417  0.1005 -0.0474 -0.1964
 1857POSM   C2A21788  19.301  11.742  13.844  0.2754  0.1964 -0.1621
 1857POSM   C3A21789  19.434  11.847  14.272 -0.0231  0.1298  0.3968
 1857POSM   C1B21790  18.818  11.934  13.191  0.2979 -0.1489  0.1793
 1857POSM   D2B21791  19.138  12.103  13.481  0.3980 -0.0889 -0.3188
 1857POSM   C3B21792  19.473  12.184  13.807  0.4183 -0.0078 -0.3241
 1857POSM   C4B21793  19.809  12.307  14.097  0.1112  0.0218 -0.0093
 1858DOPE   NH321794  20.599  16.950  11.787 -0.2173  0.2292  0.1250
 1858DOPE   PO421795  20.312  17.054  11.762 -0.0252 -0.0390  0.0270
 1858DOPE   GL121796  20.119  17.149  11.957  0.1086 -0.2558 -0.0941
 1858DOPE   GL221797  20.040  16.962  12.227  0.0809 -0.2531 -0.0359
 1858DOPE   C1A21798  20.048  17.623  11.898 -0.1619 -0.2985 -0.1556
 1858DOPE   D2A21799  20.042  17.909  11.542  0.2273  0.0956 -0.3195
 1858DOPE   C3A21800  19.678  18.136  11.577  0.1601  0.1552 -0.1130
 1858DOPE   C4A21801  19.238  18.110  11.671 -0.5002 -0.1104  0.0477
 1858DOPE   C1B21802  19.681  17.190  12.482 -0.0586 -0.2951 -0.5089
 1858DOPE   D2B21803  19.239  17.283  12.519 -0.0278 -0.0234  0.1487
 1858DOPE   C3B21804  19.137  17.658  12.795  0.2834 -0.1598  0.2202
 1858DOPE   C4B21805  19.027  18.083  12.735 -0.4275 -0.1943 -0.0187
 1859DOPE   NH321806  11.238  15.102  11.912  0.0858 -0.1914  0.0954
 1859DOPE   PO421807  11.179  15.103  12.264  0.1802  0.1338 -0.0481
 1859DOPE   GL121808  11.284  15.536  12.265 -0.1119  0.4558 -0.4326
 1859DOPE   GL221809  11.118  15.788  12.145 -0.2102  0.0165 -0.1574
 1859DOPE   C1A21810  11.509  15.850  12.491  0.1335 -0.0353 -0.0951
 1859DOPE   D2A21811  11.423  16.192  12.862 -0.1302  0.1543 -0.0926
 1859DOPE   C3A21812  11.549  15.942  13.253 -0.5414  0.1065  0.0249
 1859DOPE   C4A21813  11.359  16.013  13.671  0.0970  0.2825  0.0955
 1859DOPE   C1B21814  11.133  16.217  12.117  0.0283 -0.1800 -0.0872
 1859DOPE   D2B21815  11.233  16.551  12.479 -0.0605  0.0183  0.2095
 1859DOPE   C3B21816  10.989  16.359  12.860 -0.1243 -0.0383  0.2863
 1859DOPE   C4B21817  11.076  16.145  13.227  0.1116  0.0856  0.1573
 1860DOPC   NC321818  15.284  18.712  12.050  0.0535  0.1549 -0.1641
 1860DOPC   PO421819  15.427  18.547  11.705  0.0478 -0.0668 -0.0774
 1860DOPC   GL121820  15.616  18.371  11.901 -0.0272  0.4095  0.0263
 1860DOPC   GL221821  15.563  18.061  11.741 -0.0918  0.2960  0.4727
 1860DOPC   C1A21822  15.539  18.428  12.376  0.1219  0.0225 -0.1453
 1860DOPC   D2A21823  15.308  18.757  12.623 -0.1965  0.0818  0.0477
 1860DOPC   C3A21824  14.981  19.022  12.464  0.2629 -0.1161  0.0438
 1860DOPC   C4A21825  14.757  19.189  12.056 -0.0682  0.1752 -0.1409
 1860DOPC   C1B21826  15.941  18.132  12.041  0.1153 -0.2754 -0.0866
 1860DOPC   D2B21827  16.132  18.488  12.368 -0.1024  0.3180  0.0877
 1860DOPC   C3B21828  15.875  18.643  12.708  0.1715  0.2071 -0.0056
 1860DOPC   C4B21829  15.527  18.477  12.973 -0.1670 -0.2365 -0.0427
 1861DOPE   NH321830  13.086  19.990  12.493 -0.0096  0.0139 -0.0325
 1861DOPE   PO421831  12.875  19.873  12.258 -0.1558 -0.3253  0.1501
 1861DOPE   GL121832  12.690  19.802  12.600  0.1751  0.2410 -0.1449
 1861DOPE   GL221833  12.872  19.603  12.743 -0.0891  0.0287 -0.1338
 1861DOPE   C1A21834  12.578  19.872  13.042  0.0078  0.0348  0.1110
 1861DOPE   D2A21835  12.885  19.777  13.332  0.0731  0.2722 -0.2302
 1861DOPE   C3A21836  13.107  20.087  13.630 -0.1025 -0.1069 -0.1807
 1861DOPE   C4A21837  13.357  20.477  13.697  0.1184  0.0948  0.0462
 1861DOPE   C1B21838  12.634  19.372  13.096  0.0071  0.1136 -0.1166
 1861DOPE   D2B21839  12.419  19.570  13.460  0.3400  0.1202  0.3549
 1861DOPE   C3B21840  12.128  19.839  13.648 -0.1653 -0.0865  0.0246
 1861DOPE   C4B21841  11.934  20.134  13.897 -0.2823  0.1156 -0.1046
 1862POSM   NC321842  19.854  16.758  11.762  0.3014  0.2435  0.0040
 1862POSM   PO421843  19.821  17.066  11.485 -0.0067  0.3448 -0.0234
 1862POSM   AM121844  19.588  17.217  11.704 -0.1958 -0.0910 -0.2083
 1862POSM   AM221845  19.689  17.241  11.975  0.1975 -0.0657  0.4123
 1862POSM   T1A21846  19.139  17.357  11.891 -0.2637 -0.1523  0.0531
 1862POSM   C2A21847  18.814  17.341  12.230  0.0061  0.0962 -0.0156
 1862POSM   C3A21848  18.782  17.289  12.722  0.0757 -0.0917  0.0465
 1862POSM   C1B21849  19.452  16.958  12.057  0.2535  0.2652  0.2551
 1862POSM   D2B21850  19.285  16.811  12.490  0.0476 -0.2175 -0.0833
 1862POSM   C3B21851  19.718  16.715  12.747 -0.2573 -0.0938  0.0354
 1862POSM   C4B21852  19.853  16.730  13.218  0.1752  0.4005  0.5131
 1863DOPC   NC321853  20.645  18.578  11.043  0.2139 -0.0618 -0.2840
 1863DOPC   PO421854  20.494  18.916  11.203 -0.2961  0.2320 -0.2066
 1863DOPC   GL121855  20.565  19.097  11.629  0.1129 -0.0379  0.1436
 1863DOPC   GL221856  20.469  18.824  11.689 -0.0432 -0.1776 -0.0763
 1863DOPC   C1A21857  20.771  19.204  12.101  0.1457 -0.0199 -0.1332
 1863DOPC   D2A21858  20.883  19.472  12.445 -0.1618  0.0216 -0.0993
 1863DOPC   C3A21859  20.543  19.676  12.780  0.0525 -0.1912  0.0853
 1863DOPC   C4A21860  20.412  19.786  13.206  0.0613 -0.2319  0.2158
 1863DOPC   C1B21861  20.076  19.115  11.802  0.1729 -0.3604 -0.0258
 1863DOPC   D2B21862  19.785  19.421  11.989 -0.1056  0.1544  0.1154
 1863DOPC   C3B21863  19.824  19.862  11.817  0.0571 -0.0024  0.0067
 1863DOPC   C4B21864  19.822  20.310  11.877 -0.0158  0.0333  0.0687
 1864POSM   NC321865  19.518  22.556  12.258 -0.1712  0.0954 -0.1795
 1864POSM   PO421866  19.326  22.632  11.970 -0.4191 -0.2619 -0.1279
 1864POSM   AM121867  19.043  22.470  12.065 -0.0998  0.1667 -0.0209
 1864POSM   AM221868  18.948  22.329  12.274 -0.0253  0.1891 -0.3596
 1864POSM   T1A21869  18.547  22.325  12.018  0.2685 -0.0422  0.0005
 1864POSM   C2A21870  18.193  22.337  12.288  0.3214 -0.0134 -0.1054
 1864POSM   C3A21871  17.989  22.095  12.683  0.1973 -0.0561 -0.2361
 1864POSM   C1B21872  19.060  22.252  12.557 -0.0708 -0.0580  0.0983
 1864POSM   D2B21873  19.380  22.156  12.916  0.1260  0.0993  0.0084
 1864POSM   C3B21874  19.295  22.434  13.230 -0.1698 -0.2553 -0.2428
 1864POSM   C4B21875  18.951  22.581  13.562 -0.1691  0.0989  0.0690
 1865DOPE   NH321876  17.777  11.296  12.284 -0.1936  0.2658  0.2243
 1865DOPE   PO421877  17.937  11.488  12.119 -0.0061  0.0849  0.3409
 1865DOPE   GL121878  17.657  11.729  12.419 -0.2082  0.1513 -0.1516
 1865DOPE   GL221879  17.530  11.508  12.653 -0.1557  0.1363  0.1496
 1865DOPE   C1A21880  17.723  11.913  12.826  0.0737 -0.0967  0.3365
 1865DOPE   D2A21881  17.564  12.079  13.201  0.2339 -0.2512 -0.2847
 1865DOPE   C3A21882  17.616  11.856  13.601 -0.1531  0.2393 -0.0150
 1865DOPE   C4A21883  17.950  11.916  13.964 -0.0932  0.1550  0.0200
 1865DOPE   C1B21884  17.335  11.237  12.990  0.1974 -0.2237 -0.0160
 1865DOPE   D2B21885  17.185  11.106  13.400  0.2266 -0.0056  0.1613
 1865DOPE   C3B21886  17.051  10.676  13.532  0.3515  0.0858 -0.2829
 1865DOPE   C4B21887  16.688  10.526  13.835  0.0109  0.2243 -0.1152
 1866DOPC   NC321888  20.489  16.193  11.619 -0.0640  0.0956  0.2486
 1866DOPC   PO421889  20.267  15.941  11.460 -0.0559 -0.1021 -0.0149
 1866DOPC   GL121890  20.328  15.713  11.853  0.2176 -0.0134 -0.0599
 1866DOPC   GL221891  20.181  15.867  12.006  0.0748 -0.0839  0.0358
 1866DOPC   C1A21892  20.513  15.276  11.805 -0.1767  0.1624  0.0603
 1866DOPC   D2A21893  20.629  14.892  11.475  0.3169 -0.2240  0.1404
 1866DOPC   C3A21894  20.556  14.493  11.676  0.0048  0.2323 -0.0695
 1866DOPC   C4A21895  20.631  14.176  12.039  0.0402  0.0266  0.3220
 1866DOPC   C1B21896  20.379  15.586  12.260  0.2442 -0.0199  0.1202
 1866DOPC   D2B21897  20.651  15.256  12.307 -0.0650  0.1129 -0.1958
 1866DOPC   C3B21898  20.955  15.083  12.002 -0.0473  0.0790  0.1470
 1866DOPC   C4B21899  21.134  15.074  11.587  0.0179  0.1252  0.0987
 1867DOPE   NH321900  23.291  11.412  12.776 -0.4815  0.1313 -0.2086
 1867DOPE   PO421901  23.185  11.649  12.577 -0.0382  0.0079 -0.0274
 1867DOPE   GL121902  23.274  11.935  12.857  0.0909 -0.2546  0.1111
 1867DOPE   GL221903  23.046  12.120  12.843  0.0833 -0.0609  0.4338
 1867DOPE   C1A21904  23.313  12.145  13.271  0.0279  0.1924  0.1577
 1867DOPE   D2A21905  23.186  12.609  13.402  0.0982 -0.0677  0.0387
 1867DOPE   C3A21906  23.470  12.902  13.474  0.0143  0.0733 -0.0557
 1867DOPE   C4A21907  23.893  12.942  13.661 -0.1012 -0.0920 -0.2024
 1867DOPE   C1B21908  22.991  11.806  13.160  0.0209 -0.0976 -0.0531
 1867DOPE   D2B21909  22.871  11.986  13.596 -0.2659 -0.3136  0.1883
 1867DOPE   C3B21910  23.291  12.056  13.766  0.1140  0.0972  0.2691
 1867DOPE   C4B21911  23.672  12.107  14.095  0.0203 -0.0687  0.1839
 1868POSM   NC321912  12.926  15.703  11.404  0.4585 -0.1466  0.2830
 1868POSM   PO421913  12.620  15.946  11.543 -0.0810  0.2769  0.1389
 1868POSM   AM121914  12.642  15.908  11.878 -0.0993  0.0261 -0.0317
 1868POSM   AM221915  12.786  16.031  12.144  0.1513 -0.0170  0.1996
 1868POSM   T1A21916  12.471  15.788  12.365 -0.2582  0.5382  0.0493
 1868POSM   C2A21917  12.347  15.726  12.811  0.0624 -0.1579  0.1477
 1868POSM   C3A21918  12.506  15.630  13.261  0.1481 -0.1427  0.3363
 1868POSM   C1B21919  12.659  16.177  12.480 -0.1471  0.0003 -0.0823
 1868POSM   D2B21920  12.447  16.178  12.924 -0.1197  0.3733 -0.0493
 1868POSM   C3B21921  12.720  16.396  13.285 -0.3633  0.1101  0.0384
 1868POSM   C4B21922  13.100  16.381  13.497  0.0962  0.0877 -0.2386
 1869DOPC   NC321923  18.221  18.881  11.958  0.0290 -0.1615 -0.0951
 1869DOPC   PO421924  18.244  18.984  11.588 -0.0431  0.0490  0.1707
 1869DOPC   GL121925  18.102  18.536  11.616  0.0583  0.0449  0.2083
 1869DOPC   GL221926  18.297  18.286  11.710  0.1282  0.2206  0.3717
 1869DOPC   C1A21927  17.787  18.210  11.604  0.4403  0.0848  0.3407
 1869DOPC   D2A21928  17.400  18.167  11.839  0.0477 -0.2867  0.1873
 1869DOPC   C3A21929  17.185  18.530  12.035  0.1785  0.0508  0.1305
 1869DOPC   C4A21930  16.927  18.855  11.799  0.2496 -0.1731  0.0182
 1869DOPC   C1B21931  18.551  18.132  12.014  0.0837 -0.0808 -0.2031
 1869DOPC   D2B21932  18.981  18.167  12.228 -0.2702 -0.0322  0.0166
 1869DOPC   C3B21933  19.438  18.132  12.098 -0.2682  0.0257 -0.2250
 1869DOPC   C4B21934  19.864  18.155  12.058  0.0360 -0.0493  0.2413
 1870POSM   NC321935  19.255  11.716  11.935 -0.0533  0.0140 -0.2061
 1870POSM   PO421936  19.352  11.914  12.266 -0.2792  0.0794 -0.1339
 1870POSM   AM121937  19.396  12.072  12.575 -0.3418  0.0757  0.2036
 1870POSM   AM221938  19.525  12.321  12.612 -0.1936  0.0735  0.0867
 1870POSM   T1A21939  19.186  12.337  12.917  0.1539 -0.3678 -0.2261
 1870POSM   C2A21940  19.100  12.777  12.982  0.0425 -0.2284  0.0185
 1870POSM   C3A21941  19.177  13.213  13.145 -0.2244  0.2899 -0.3007
 1870POSM   C1B21942  19.365  12.612  12.535  0.0716  0.1210  0.1909
 1870POSM   D2B21943  19.344  13.061  12.641 -0.1587 -0.0396 -0.0755
 1870POSM   C3B21944  19.055  13.443  12.720  0.0773  0.2710  0.1656
 1870POSM   C4B21945  18.656  13.567  12.884  0.0770  0.3334 -0.2416
 1871POSM   NC321946  12.863  18.924  12.492  0.8245 -0.1529  0.2469
 1871POSM   PO421947  12.555  19.010  12.285 -0.2268  0.1138  0.1761
 1871POSM   AM121948  12.371  19.014  12.537  0.0123  0.4554  0.0567
 1871POSM   AM221949  12.359  19.055  12.811 -0.2114 -0.2781  0.1970
 1871POSM   T1A21950  11.950  18.831  12.693  0.2903  0.2267 -0.0801
 1871POSM   C2A21951  11.729  18.527  13.001 -0.1039 -0.1160 -0.2827
 1871POSM   C3A21952  11.343  18.312  13.221  0.4430  0.0742  0.1349
 1871POSM   C1B21953  12.241  18.880  13.093 -0.2350  0.1167  0.0144
 1871POSM   D2B21954  12.071  18.642  13.343 -0.2084 -0.0137 -0.3508
 1871POSM   C3B21955  12.024  18.173  13.285 -0.0147  0.2193 -0.0742
 1871POSM   C4B21956  11.689  17.901  13.447 -0.3091  0.1491 -0.0229
 1872DOPC   NC321957  16.906  13.698  11.904 -0.0158  0.2049 -0.2081
 1872DOPC   PO421958  16.556  13.927  11.838 -0.0844 -0.1744  0.0148
 1872DOPC   GL121959  16.160  13.730  11.932 -0.1799  0.0136  0.0944
 1872DOPC   GL221960  16.137  13.986  12.130  0.1230  0.1777  0.1281
 1872DOPC   C1A21961  15.839  13.640  12.299 -0.0316 -0.1594  0.3030
 1872DOPC   D2A21962  15.505  13.562  12.599  0.0042  0.1828 -0.6242
 1872DOPC   C3A21963  15.464  13.425  13.034 -0.0496 -0.1236 -0.0222
 1872DOPC   C4A21964  15.519  13.174  13.415  0.1085  0.0074  0.0794
 1872DOPC   C1B21965  16.328  13.652  12.425  0.1173  0.3313  0.0127
 1872DOPC   D2B21966  16.396  13.474  12.856 -0.1301  0.2344  0.2050
 1872DOPC   C3B21967  16.356  13.158  13.169  0.0681 -0.1534 -0.0141
 1872DOPC   C4B21968  16.300  12.735  13.332  0.1128  0.1430 -0.1144
 1873DOPE   NH321969  13.948  12.438  11.847 -0.0675  0.0459 -0.1368
 1873DOPE   PO421970  14.080  12.621  11.583  0.0540  0.3015  0.0348
 1873DOPE   GL121971  14.261  12.865  11.899  0.0874 -0.0911 -0.0604
 1873DOPE   GL221972  14.259  12.643  12.146  0.0735  0.3826  0.0857
 1873DOPE   C1A21973  14.399  13.319  12.055  0.0030  0.0557  0.1623
 1873DOPE   D2A21974  14.432  13.674  12.465  0.0595  0.0895 -0.0771
 1873DOPE   C3A21975  14.455  13.648  12.961  0.1683 -0.0660  0.2664
 1873DOPE   C4A21976  14.394  13.449  13.349  0.0845  0.1114 -0.3893
 1873DOPE   C1B21977  14.664  12.911  12.239  0.3814 -0.1184 -0.0859
 1873DOPE   D2B21978  14.710  13.239  12.501  0.0907 -0.0486 -0.0712
 1873DOPE   C3B21979  14.949  13.603  12.688 -0.0533 -0.1347  0.0278
 1873DOPE   C4B21980  15.276  13.951  12.552  0.1040  0.0464  0.2574
 1874POSM   NC321981  14.402  22.488  12.329 -0.1063  0.1868  0.0815
 1874POSM   PO421982  14.372  22.885  12.378 -0.0294 -0.1614  0.4318
 1874POSM   AM121983  14.460  23.042  12.645  0.2763 -0.3528 -0.0570
 1874POSM   AM221984  14.305  23.037  12.882  0.0813 -0.0758  0.0150
 1874POSM   T1A21985  14.708  23.380  12.884 -0.4096  0.4057  0.1750
 1874POSM   C2A21986  15.004  23.556  13.199  0.2150  0.0331 -0.4225
 1874POSM   C3A21987  15.186  23.750  13.586 -0.0989  0.0361  0.3801
 1874POSM   C1B21988  14.327  23.236  13.188 -0.2618 -0.1827 -0.0609
 1874POSM   D2B21989  14.332  23.373  13.661  0.3126  0.0735 -0.2461
 1874POSM   C3B21990  13.938  23.515  13.861 -0.1509 -0.2491  0.1965
 1874POSM   C4B21991  13.610  23.601  14.138 -0.0606  0.1851 -0.2211
 1875POSM   NC321992  16.643  14.231  11.435  0.0389  0.0675 -0.2777
 1875POSM   PO421993  16.241  14.307  11.498  0.1032  0.2741 -0.0210
 1875POSM   AM121994  16.040  14.241  11.752 -0.1011  0.3229  0.2376
 1875POSM   AM221995  15.822  14.062  11.690 -0.0924 -0.1222  0.2369
 1875POSM   T1A21996  15.786  14.463  12.131 -0.3028  0.0805  0.0341
 1875POSM   C2A21997  15.505  14.512  12.450 -0.0732 -0.0650 -0.4405
 1875POSM   C3A21998  15.216  14.424  12.765 -0.2574  0.1145  0.0163
 1875POSM   C1B21999  15.542  14.175  11.791  0.3674 -0.0339  0.3262
 1875POSM   D2B22000  15.205  14.292  12.093  0.0542  0.0356  0.1617
 1875POSM   C3B22001  14.842  14.412  12.330 -0.0502 -0.3133 -0.0217
 1875POSM   C4B22002  14.437  14.732  12.268 -0.1146  0.4198  0.1251
 1876DOPS   CNO22003  18.096  17.897  11.223 -0.2435 -0.0839  0.0995
 1876DOPS   PO422004  18.438  17.745  11.137  0.2064 -0.2875 -0.0081
 1876DOPS   GL122005  18.694  17.667  11.475  0.1351  0.2801 -0.4637
 1876DOPS   GL222006  18.471  17.725  11.655 -0.2630 -0.0292 -0.0344
 1876DOPS   C1A22007  18.917  17.804  11.881 -0.2541  0.0953 -0.2279
 1876DOPS   D2A22008  19.164  17.715  12.238  0.0226  0.0424  0.1034
 1876DOPS   C3A22009  18.734  17.733  12.468 -0.5308 -0.0764  0.2695
 1876DOPS   C4A22010  18.439  17.671  12.817 -0.3085  0.1162 -0.0508
 1876DOPS   C1B22011  18.412  17.618  12.086  0.0764  0.0225  0.0992
 1876DOPS   D2B22012  18.380  17.296  12.491 -0.1556 -0.1773 -0.0050
 1876DOPS   C3B22013  18.252  17.088  12.854  0.2043 -0.3369  0.1506
 1876DOPS   C4B22014  18.199  16.644  12.792 -0.0915 -0.1966 -0.0639
 1877DOPC   NC322015  14.410  21.430  12.613  0.2913  0.1379  0.1361
 1877DOPC   PO422016  14.071  21.430  12.364 -0.1852  0.4254 -0.1200
 1877DOPC   GL122017  13.991  21.418  12.755  0.2141 -0.1567  0.1116
 1877DOPC   GL222018  13.959  21.094  12.718 -0.2573  0.0196  0.1907
 1877DOPC   C1A22019  13.736  21.253  13.138  0.0473  0.0750 -0.1298
 1877DOPC   D2A22020  13.703  20.985  13.492 -0.1369 -0.1610 -0.1276
 1877DOPC   C3A22021  13.785  20.944  13.955 -0.0896 -0.0049  0.2824
 1877DOPC   C4A22022  13.531  21.185  14.285 -0.2027  0.0252 -0.2552
 1877DOPC   C1B22023  13.662  20.808  12.905 -0.0802  0.2761  0.0674
 1877DOPC   D2B22024  13.305  20.684  13.109  0.1303  0.0146 -0.1730
 1877DOPC   C3B22025  13.194  21.116  13.312  0.1879  0.1926  0.1359
 1877DOPC   C4B22026  12.852  21.180  13.646  0.2298  0.1345  0.0124
 1878POSM   NC322027  10.055  17.404  12.767 -0.0009  0.3603 -0.1400
 1878POSM   PO422028  10.123  17.358  12.368  0.0402  0.0607 -0.3472
 1878POSM   AM122029  10.364  17.148  12.354  0.0153  0.0849  0.3247
 1878POSM   AM222030  10.520  16.959  12.494 -0.2881  0.2271  0.3609
 1878POSM   T1A22031  10.854  17.094  12.189 -0.1247 -0.0638 -0.4387
 1878POSM   C2A22032  11.243  17.306  12.232 -0.0763  0.0326 -0.0844
 1878POSM   C3A22033  11.427  17.621  12.547 -0.2109  0.1540  0.1332
 1878POSM   C1B22034  10.749  16.827  12.693 -0.0261 -0.0367  0.2194
 1878POSM   D2B22035  11.153  16.833  12.945  0.4171  0.2964 -0.1754
 1878POSM   C3B22036  11.417  17.126  12.686  0.1199  0.1314  0.2571
 1878POSM   C4B22037  11.723  17.048  12.326  0.4585 -0.1777 -0.1813
 1879DOPE   NH322038  17.294  14.791  11.593  0.1407 -0.0340 -0.1619
 1879DOPE   PO422039  17.444  14.930  11.854 -0.0754 -0.1318  0.0381
 1879DOPE   GL122040  17.327  15.113  12.208 -0.1869  0.2352 -0.4689
 1879DOPE   GL222041  17.059  15.222  12.137  0.1763 -0.4327 -0.1203
 1879DOPE   C1A22042  17.384  15.316  12.619 -0.0404  0.0630  0.1812
 1879DOPE   D2A22043  17.107  15.636  12.754  0.1347 -0.1654 -0.2952
 1879DOPE   C3A22044  17.097  15.937  13.109  0.0177  0.4279 -0.1090
 1879DOPE   C4A22045  17.455  15.924  13.365  0.1216 -0.2337  0.0806
 1879DOPE   C1B22046  17.086  14.876  12.515  0.0655 -0.1172  0.0797
 1879DOPE   D2B22047  17.051  15.119  12.946 -0.2963  0.0996  0.1300
 1879DOPE   C3B22048  17.267  15.439  13.161  0.0833  0.3807  0.0505
 1879DOPE   C4B22049  17.194  15.530  13.594 -0.1123  0.0771 -0.1058
 1880POSM   NC322050  12.329  19.782  12.225  0.2036 -0.2150 -0.1482
 1880POSM   PO422051  12.446  19.489  12.407  0.0530 -0.1395 -0.2831
 1880POSM   AM122052  12.325  19.518  12.707 -0.0715 -0.3302  0.2131
 1880POSM   AM222053  12.123  19.720  12.772 -0.1158  0.0050 -0.1090
 1880POSM   T1A22054  12.089  19.380  13.137  0.1585 -0.0189 -0.2787
 1880POSM   C2A22055  12.217  19.133  13.543  0.3429 -0.2073 -0.1573
 1880POSM   C3A22056  12.037  18.850  13.826 -0.0666 -0.2558  0.0208
 1880POSM   C1B22057  11.884  19.895  12.974 -0.1393  0.2313  0.0597
 1880POSM   D2B22058  11.620  19.989  13.350 -0.1107  0.5846  0.0977
 1880POSM   C3B22059  11.613  19.760  13.751  0.0519 -0.2015 -0.0695
 1880POSM   C4B22060  11.796  19.301  13.777 -0.0478 -0.1372 -0.0553
 1881POSM   NC322061  14.202  17.936  11.560 -0.2256 -0.0939 -0.2578
 1881POSM   PO422062  14.000  17.678  11.838 -0.3445  0.2638 -0.2157
 1881POSM   AM122063  13.983  17.890  12.110 -0.1387  0.1097  0.3004
 1881POSM   AM222064  14.120  18.149  12.058  0.1589 -0.0427 -0.2434
 1881POSM   T1A22065  14.194  18.069  12.549  0.1324  0.0617 -0.1333
 1881POSM   C2A22066  14.427  18.314  12.888  0.1567  0.0215 -0.2655
 1881POSM   C3A22067  14.648  18.722  12.781 -0.2288  0.1727 -0.1362
 1881POSM   C1B22068  14.086  18.435  12.280 -0.1008  0.1555  0.0098
 1881POSM   D2B22069  14.108  18.738  12.633 -0.0648 -0.0492 -0.0121
 1881POSM   C3B22070  14.256  19.102  13.010 -0.0537 -0.3249  0.0719
 1881POSM   C4B22071  14.184  19.502  13.029 -0.0001 -0.0055  0.0460
 1882POSM   NC322072  13.106  18.418  11.938 -0.2552 -0.0563  0.1628
 1882POSM   PO422073  12.950  18.090  12.039  0.3710 -0.1377  0.0824
 1882POSM   AM122074  13.037  18.167  12.356  0.1487  0.0287 -0.4250
 1882POSM   AM222075  13.167  18.438  12.412  0.2364  0.3076 -0.3165
 1882POSM   T1A22076  13.162  18.080  12.846  0.1432  0.0265  0.0389
 1882POSM   C2A22077  13.431  18.120  13.193  0.0047 -0.1692  0.0089
 1882POSM   C3A22078  13.839  18.301  13.250  0.0438 -0.3558  0.1496
 1882POSM   C1B22079  13.132  18.579  12.729  0.0228 -0.0590 -0.0397
 1882POSM   D2B22080  12.817  18.827  12.992  0.0431 -0.1515 -0.1178
 1882POSM   C3B22081  12.735  18.975  13.406 -0.0452 -0.0440 -0.2941
 1882POSM   C4B22082  12.659  19.193  13.814  0.3235  0.1335  0.4893
 1883DOPS   CNO22083  20.634  16.482  11.200  0.0609 -0.0435  0.0104
 1883DOPS   PO422084  20.841  16.590  11.536  0.2788  0.0714 -0.1980
 1883DOPS   GL122085  21.092  16.510  11.795 -0.1357  0.0274 -0.1383
 1883DOPS   GL222086  21.105  16.732  11.971 -0.0118  0.1100 -0.0274
 1883DOPS   C1A22087  21.537  16.369  11.960 -0.0766  0.0478  0.1172
 1883DOPS   D2A22088  21.760  15.990  12.085  0.0069  0.3913  0.0606
 1883DOPS   C3A22089  21.833  15.656  11.839  0.2960 -0.0887  0.0870
 1883DOPS   C4A22090  21.441  15.423  11.753 -0.0563  0.1929 -0.0843
 1883DOPS   C1B22091  21.050  16.262  12.108  0.0930 -0.1824 -0.0734
 1883DOPS   D2B22092  20.849  16.184  12.501 -0.1218 -0.0636 -0.1188
 1883DOPS   C3B22093  20.574  16.423  12.805  0.1864  0.0526  0.1493
 1883DOPS   C4B22094  20.305  16.601  13.126 -0.1553 -0.1918  0.0434
 1884POSM   NC322095  18.650  11.661  11.635 -0.0009  0.0374 -0.1057
 1884POSM   PO422096  18.410  11.664  11.938  0.5591  0.2277  0.1964
 1884POSM   AM122097  18.178  11.921  12.014 -0.1197  0.0880  0.1632
 1884POSM   AM222098  18.036  12.042  12.258 -0.0732 -0.1063 -0.1084
 1884POSM   T1A22099  18.051  12.404  11.913  0.1320  0.2215  0.0592
 1884POSM   C2A22100  17.786  12.775  11.789 -0.3386 -0.1806  0.2412
 1884POSM   C3A22101  17.572  13.082  11.990 -0.0557  0.2504 -0.2221
 1884POSM   C1B22102  17.944  12.255  12.494 -0.1706  0.1432  0.1707
 1884POSM   D2B22103  17.723  12.483  12.857  0.3248  0.0895 -0.0373
 1884POSM   C3B22104  17.724  12.560  13.302 -0.0549  0.1145  0.2332
 1884POSM   C4B22105  17.473  12.456  13.593  0.1151 -0.2219  0.2119
 1885DOPE   NH322106  23.317  15.128  12.398  0.1602  0.1185 -0.0680
 1885DOPE   PO422107  23.195  15.104  12.113 -0.3890 -0.3162  0.2129
 1885DOPE   GL122108  22.886  15.268  12.318  0.1719 -0.1292  0.1435
 1885DOPE   GL222109  22.744  15.296  12.036  0.1170  0.1250 -0.0446
 1885DOPE   C1A22110  22.451  15.181  12.545  0.4187 -0.2434  0.0728
 1885DOPE   D2A22111  22.168  14.850  12.411  0.2036 -0.0758 -0.1213
 1885DOPE   C3A22112  22.354  14.495  12.499 -0.1571 -0.0917  0.4435
 1885DOPE   C4A22113  22.444  14.087  12.800  0.2851 -0.0257 -0.0268
 1885DOPE   C1B22114  22.356  15.469  12.137  0.0278 -0.0018 -0.1961
 1885DOPE   D2B22115  22.005  15.497  12.418 -0.1000  0.0478 -0.0202
 1885DOPE   C3B22116  21.686  15.498  12.715  0.1889 -0.2783  0.1846
 1885DOPE   C4B22117  21.707  15.262  13.147  0.2391 -0.2313  0.1513
 1886DOPE   NH322118  23.277  22.484  11.893 -0.2105  0.2203  0.4416
 1886DOPE   PO422119  23.025  22.280  11.906 -0.0494  0.2558  0.0263
 1886DOPE   GL122120  22.700  22.425  12.079  0.1349 -0.3198  0.1114
 1886DOPE   GL222121  22.414  22.418  11.871  0.2831  0.1658  0.0803
 1886DOPE   C1A22122  22.525  22.217  12.488 -0.1191  0.3400 -0.0786
 1886DOPE   D2A22123  22.772  22.224  12.860 -0.0102 -0.0031  0.1829
 1886DOPE   C3A22124  22.700  22.320  13.309  0.0502  0.1372  0.1879
 1886DOPE   C4A22125  22.437  22.260  13.759 -0.0597 -0.0366  0.0564
 1886DOPE   C1B22126  22.302  21.981  12.031 -0.0984 -0.4830  0.2898
 1886DOPE   D2B22127  22.126  21.717  12.350  0.2571 -0.0954 -0.1097
 1886DOPE   C3B22128  22.225  21.799  12.787 -0.0263  0.0790 -0.1403
 1886DOPE   C4B22129  22.046  21.660  13.189 -0.1123  0.0207  0.2432
 1887DOPE   NH322130  15.668  19.011  11.748  0.3814  0.1019 -0.0311
 1887DOPE   PO422131  15.414  19.226  11.844  0.0735 -0.2264  0.0269
 1887DOPE   GL122132  15.617  19.144  12.199 -0.2178 -0.0249 -0.2670
 1887DOPE   GL222133  15.834  18.890  12.205 -0.0235 -0.3645 -0.1740
 1887DOPE   C1A22134  15.564  19.196  12.639  0.0640  0.0357  0.2427
 1887DOPE   D2A22135  15.560  19.015  13.031  0.1174  0.4142  0.0653
 1887DOPE   C3A22136  15.483  19.007  13.453  0.1197  0.2699  0.4552
 1887DOPE   C4A22137  15.398  18.957  13.918 -0.2013 -0.2186  0.0109
 1887DOPE   C1B22138  16.140  18.617  11.931 -0.4035  0.1687  0.1869
 1887DOPE   D2B22139  16.500  18.389  12.078  0.0046 -0.0184 -0.1253
 1887DOPE   C3B22140  16.441  18.024  12.318 -0.1360 -0.2080 -0.0123
 1887DOPE   C4B22141  16.139  17.646  12.232 -0.1000 -0.2538 -0.0018
 1888DOPE   NH322142  11.469  14.636  11.915 -0.1063 -0.0022 -0.0478
 1888DOPE   PO422143  11.624  14.843  11.671 -0.0999  0.1786 -0.1002
 1888DOPE   GL122144  12.085  14.786  11.745  0.3837 -0.1209  0.0865
 1888DOPE   GL222145  11.975  14.508  11.890  0.1565 -0.1587 -0.1407
 1888DOPE   C1A22146  12.393  14.465  11.603  0.0754  0.0300 -0.1195
 1888DOPE   D2A22147  12.642  14.038  11.670 -0.1542  0.1222 -0.3970
 1888DOPE   C3A22148  12.799  14.027  12.157 -0.1951 -0.1146 -0.1108
 1888DOPE   C4A22149  12.775  13.768  12.505  0.2187 -0.2123  0.0807
 1888DOPE   C1B22150  12.172  14.071  11.959 -0.4274  0.0583 -0.0050
 1888DOPE   D2B22151  12.424  13.680  12.034 -0.2277 -0.1697  0.2132
 1888DOPE   C3B22152  12.216  13.338  12.262  0.1633  0.2333 -0.1317
 1888DOPE   C4B22153  11.807  13.163  12.265  0.2287 -0.1127  0.0701
 1889POSM   NC322154  11.906  15.680  11.551  0.1428 -0.1617  0.0280
 1889POSM   PO422155  11.947  15.304  11.745  0.1236  0.0085  0.0219
 1889POSM   AM122156  12.165  15.206  11.985  0.0790  0.1851  0.0596
 1889POSM   AM222157  12.226  15.318  12.265  0.0163  0.0618  0.2075
 1889POSM   T1A22158  12.407  14.780  12.042 -0.0542  0.2420  0.1383
 1889POSM   C2A22159  12.342  14.392  12.249 -0.2361 -0.3844 -0.2352
 1889POSM   C3A22160  12.249  14.073  12.616  0.3072 -0.0726 -0.2788
 1889POSM   C1B22161  12.413  15.142  12.442  0.0718  0.0416 -0.2166
 1889POSM   D2B22162  12.550  14.770  12.605 -0.2180  0.0815 -0.3760
 1889POSM   C3B22163  12.823  14.448  12.384 -0.1651 -0.5249 -0.0051
 1889POSM   C4B22164  13.146  14.211  12.559  0.0826 -0.0516  0.2706
 1890DOPC   NC322165  22.342  20.184  11.243  0.1086 -0.2835 -0.3000
 1890DOPC   PO422166  22.642  20.060  11.509  0.2179 -0.3452  0.1202
 1890DOPC   GL122167  22.468  20.251  11.911 -0.1533 -0.0779  0.0074
 1890DOPC   GL222168  22.440  20.540  11.844  0.1322 -0.0963 -0.1145
 1890DOPC   C1A22169  22.128  20.222  12.261 -0.2539  0.0406  0.0189
 1890DOPC   D2A22170  21.900  20.276  12.723  0.0452 -0.0755  0.0645
 1890DOPC   C3A22171  22.100  20.513  13.072 -0.0189  0.1334 -0.1394
 1890DOPC   C4A22172  22.393  20.782  13.285  0.0018  0.1614  0.4206
 1890DOPC   C1B22173  22.220  20.970  11.947 -0.3727  0.2012 -0.0294
 1890DOPC   D2B22174  21.938  21.296  12.054  0.0064 -0.1313  0.0720
 1890DOPC   C3B22175  21.750  21.144  12.390 -0.0875  0.0576  0.2415
 1890DOPC   C4B22176  21.494  20.884  12.655  0.1603 -0.1291 -0.0032
 1891DOPC   NC322177  16.501  21.711  11.828 -0.0165 -0.0984 -0.1578
 1891DOPC   PO422178  16.775  21.602  12.050  0.1456  0.0996 -0.0505
 1891DOPC   GL122179  16.588  21.706  12.451  0.2787 -0.1000  0.1768
 1891DOPC   GL222180  16.854  21.830  12.484  0.1539 -0.0317 -0.0610
 1891DOPC   C1A22181  16.737  21.722  12.950 -0.1725 -0.0057 -0.2596
 1891DOPC   D2A22182  16.914  21.551  13.345 -0.2402  0.3750 -0.0738
 1891DOPC   C3A22183  16.763  21.735  13.676  0.1075  0.2872  0.2366
 1891DOPC   C4A22184  16.422  21.908  13.840  0.0684 -0.0887 -0.3470
 1891DOPC   C1B22185  17.183  21.895  12.839  0.0905 -0.1920  0.2284
 1891DOPC   D2B22186  17.605  21.725  12.702  0.0554 -0.2671 -0.0356
 1891DOPC   C3B22187  17.793  21.292  12.856 -0.0918  0.1075  0.2802
 1891DOPC   C4B22188  17.967  20.895  12.935  0.1417  0.0882 -0.0726
 1892POSM   NC322189  13.441  17.395  11.956  0.2536  0.1746  0.2988
 1892POSM   PO422190  13.385  17.208  12.291  0.0085  0.0005  0.1566
 1892POSM   AM122191  13.175  17.099  12.508 -0.0537 -0.0017  0.1298
 1892POSM   AM222192  13.032  17.136  12.759 -0.0510  0.0154 -0.2755
 1892POSM   T1A22193  12.778  16.745  12.446  0.2631 -0.1848 -0.2206
 1892POSM   C2A22194  12.622  16.514  12.063  0.1718  0.0257  0.1004
 1892POSM   C3A22195  12.316  16.577  11.785  0.2489  0.0747  0.0156
 1892POSM   C1B22196  12.724  17.249  12.822  0.1767 -0.1465 -0.0925
 1892POSM   D2B22197  12.290  17.327  12.999 -0.1045 -0.1930 -0.1948
 1892POSM   C3B22198  12.089  17.737  12.955  0.1905 -0.0993  0.2660
 1892POSM   C4B22199  11.698  17.952  12.893  0.0985  0.1561 -0.1879
 1893POSM   NC322200  20.521  17.731  11.578 -0.1423 -0.1285  0.1101
 1893POSM   PO422201  20.712  17.367  11.528 -0.0923 -0.0785 -0.3226
 1893POSM   AM122202  20.745  17.410  11.856  0.2855  0.1450  0.0864
 1893POSM   AM222203  20.510  17.386  12.055 -0.5711 -0.0786  0.0671
 1893POSM   T1A22204  20.907  17.092  12.233 -0.1420  0.0299 -0.2696
 1893POSM   C2A22205  20.932  16.714  12.544  0.0870  0.0363  0.2435
 1893POSM   C3A22206  20.902  16.761  13.003 -0.1691 -0.1592  0.2593
 1893POSM   C1B22207  20.456  17.683  12.228  0.0790 -0.0811 -0.1763
 1893POSM   D2B22208  20.133  17.916  12.468  0.4072  0.4986  0.2261
 1893POSM   C3B22209  19.968  17.675  12.823 -0.2609 -0.1347 -0.1651
 1893POSM   C4B22210  19.668  17.721  13.162  0.1522  0.1806 -0.1737
 1894DOPS   CNO22211  19.181  12.152  11.616 -0.0463  0.1637 -0.2842
 1894DOPS   PO422212  19.508  12.293  11.602  0.2265 -0.0050  0.1187
 1894DOPS   GL122213  19.662  12.666  11.706  0.1330 -0.0820 -0.2683
 1894DOPS   GL222214  19.917  12.638  11.765 -0.2711  0.4521  0.1225
 1894DOPS   C1A22215  19.701  13.101  11.711  0.1339 -0.0034 -0.0381
 1894DOPS   D2A22216  19.514  13.466  11.834 -0.2290 -0.1543 -0.0713
 1894DOPS   C3A22217  19.598  13.891  11.664  0.3931 -0.0226 -0.2294
 1894DOPS   C4A22218  19.531  14.342  11.663  0.0188 -0.1434 -0.0731
 1894DOPS   C1B22219  20.253  12.951  11.796 -0.0937 -0.0937 -0.0513
 1894DOPS   D2B22220  20.477  13.334  11.945 -0.2102 -0.1343  0.2929
 1894DOPS   C3B22221  20.314  13.775  11.996  0.1906  0.4192  0.0438
 1894DOPS   C4B22222  19.936  14.009  12.094  0.0113  0.3886 -0.0054
 1895DOPE   NH322223  18.542  19.631  12.100  0.0218 -0.1740  0.3078
 1895DOPE   PO422224  18.834  19.700  12.171 -0.3155  0.0730 -0.0296
 1895DOPE   GL122225  19.026  19.407  12.176 -0.0474  0.1535 -0.1800
 1895DOPE   GL222226  19.349  19.438  12.269  0.2038 -0.1029  0.2040
 1895DOPE   C1A22227  18.951  19.323  12.642  0.0008  0.0052  0.0372
 1895DOPE   D2A22228  18.556  19.338  12.919  0.3707 -0.0153 -0.0127
 1895DOPE   C3A22229  18.566  18.903  13.078  0.0474 -0.1435 -0.2781
 1895DOPE   C4A22230  18.305  18.519  12.978  0.1990 -0.0502 -0.2620
 1895DOPE   C1B22231  19.733  19.692  12.402 -0.0842  0.0611  0.2506
 1895DOPE   D2B22232  20.054  20.018  12.526  0.0283  0.2404 -0.0726
 1895DOPE   C3B22233  20.396  20.007  12.236 -0.0570 -0.1439  0.0167
 1895DOPE   C4B22234  20.639  19.991  11.842 -0.0075 -0.2875  0.1793
 1896DOPC   NC322235  19.271  15.937  11.029  0.1014 -0.0426 -0.0138
 1896DOPC   PO422236  19.155  16.285  11.211  0.0085 -0.1115  0.4441
 1896DOPC   GL122237  18.874  16.231  11.509 -0.0601 -0.4619  0.0242
 1896DOPC   GL222238  18.994  16.418  11.698 -0.1820  0.1622 -0.1133
 1896DOPC   C1A22239  18.694  15.944  11.779 -0.3603 -0.0651  0.1084
 1896DOPC   D2A22240  18.561  15.608  12.052 -0.3187 -0.0644 -0.1490
 1896DOPC   C3A22241  18.472  15.653  12.510 -0.0411 -0.2715 -0.0108
 1896DOPC   C4A22242  18.281  15.655  12.987 -0.0985 -0.0607  0.0560
 1896DOPC   C1B22243  18.537  16.393  11.743 -0.1808  0.1330 -0.0142
 1896DOPC   D2B22244  18.077  16.530  11.888  0.0460 -0.2310  0.1783
 1896DOPC   C3B22245  17.815  16.678  12.216  0.1992  0.1419  0.0067
 1896DOPC   C4B22246  17.660  16.558  12.655 -0.2694 -0.0616 -0.0168
 1897DOPC   NC322247  16.078  20.407  12.553  0.2587 -0.1226 -0.0674
 1897DOPC   PO422248  15.982  20.071  12.440  0.0381  0.2841 -0.0340
 1897DOPC   GL122249  15.923  19.801  12.616 -0.4668 -0.4723 -0.2453
 1897DOPC   GL222250  16.001  19.505  12.509 -0.0010  0.2073 -0.1884
 1897DOPC   C1A22251  15.852  19.524  12.981 -0.0737  0.0654 -0.0795
 1897DOPC   D2A22252  15.792  19.358  13.362 -0.3531  0.1972 -0.0997
 1897DOPC   C3A22253  15.899  19.056  13.698 -0.0513  0.1964 -0.1490
 1897DOPC   C4A22254  15.839  18.754  14.033  0.2335  0.0560 -0.5133
 1897DOPC   C1B22255  16.086  19.097  12.737 -0.1152 -0.0236  0.4706
 1897DOPC   D2B22256  16.483  18.796  12.779  0.0803 -0.1324 -0.0006
 1897DOPC   C3B22257  16.638  18.690  13.214  0.3117 -0.0700  0.1893
 1897DOPC   C4B22258  16.875  18.842  13.538 -0.0820 -0.0997 -0.1985
 1898DOPC   NC322259  15.519  21.067  12.136  0.2496  0.0233 -0.0950
 1898DOPC   PO422260  15.800  21.286  12.339  0.0330  0.1350  0.2802
 1898DOPC   GL122261  16.025  21.647  12.527 -0.2660  0.2638 -0.0025
 1898DOPC   GL222262  16.087  21.484  12.707  0.4510  0.0240 -0.1317
 1898DOPC   C1A22263  15.850  21.868  12.888  0.0088 -0.1506  0.0804
 1898DOPC   D2A22264  15.997  21.912  13.308 -0.1933 -0.0194 -0.1205
 1898DOPC   C3A22265  16.388  21.691  13.377 -0.1341  0.2461  0.1314
 1898DOPC   C4A22266  16.505  21.307  13.615 -0.1342  0.0376  0.0987
 1898DOPC   C1B22267  15.781  21.445  13.102 -0.1278 -0.1763 -0.0597
 1898DOPC   D2B22268  15.587  21.398  13.573  0.1255  0.1409  0.4063
 1898DOPC   C3B22269  15.934  21.609  13.785 -0.1070  0.1710  0.1805
 1898DOPC   C4B22270  16.041  21.885  14.178  0.0623 -0.2197 -0.1682
 1899DOPE   NH322271  19.328  12.385  12.055 -0.3384  0.3451  0.1513
 1899DOPE   PO422272  19.003  12.305  12.078  0.1911  0.3145  0.0854
 1899DOPE   GL122273  19.007  12.354  12.447 -0.2320 -0.0055 -0.0589
 1899DOPE   GL222274  18.849  12.617  12.517  0.0995 -0.0063  0.0263
 1899DOPE   C1A22275  18.755  12.251  12.812  0.4013 -0.0877 -0.4038
 1899DOPE   D2A22276  18.723  12.455  13.218  0.0183  0.1257  0.2279
 1899DOPE   C3A22277  18.461  12.233  13.508 -0.1366 -0.1161 -0.0088
 1899DOPE   C4A22278  18.322  11.798  13.636  0.1096 -0.0578  0.1749
 1899DOPE   C1B22279  18.610  12.973  12.708  0.0797  0.0741  0.3315
 1899DOPE   D2B22280  18.643  13.152  13.171  0.1185 -0.1040  0.1078
 1899DOPE   C3B22281  18.902  12.903  13.429 -0.3679  0.2120  0.3853
 1899DOPE   C4B22282  19.247  12.542  13.405 -0.0688  0.5062  0.0006
 1900DOPC   NC322283  21.577  18.940  11.123 -0.0677  0.2117 -0.1050
 1900DOPC   PO422284  21.902  19.047  11.386  0.4336 -0.2173 -0.0605
 1900DOPC   GL122285  21.935  19.273  11.764  0.1639  0.3385  0.0116
 1900DOPC   GL222286  21.729  19.438  11.640 -0.1483 -0.0676  0.0368
 1900DOPC   C1A22287  22.243  19.119  12.082  0.1891 -0.0235  0.1122
 1900DOPC   D2A22288  22.395  19.147  12.527 -0.0147  0.1335  0.0736
 1900DOPC   C3A22289  22.169  19.032  12.919  0.4018  0.1589 -0.0681
 1900DOPC   C4A22290  21.985  19.102  13.366 -0.1972 -0.1336 -0.3426
 1900DOPC   C1B22291  21.414  19.705  11.849  0.4018 -0.0088 -0.0916
 1900DOPC   D2B22292  20.990  19.696  12.004  0.3775  0.0182 -0.1026
 1900DOPC   C3B22293  21.027  19.956  12.383 -0.0912 -0.0156 -0.2317
 1900DOPC   C4B22294  20.871  20.044  12.844 -0.0276  0.0610  0.1172
 1901POSM   NC322295  13.424  15.447  11.545  0.0643 -0.5438  0.2441
 1901POSM   PO422296  13.741  15.189  11.406 -0.2268  0.2485  0.1071
 1901POSM   AM122297  13.946  15.316  11.645  0.2441 -0.0410  0.2509
 1901POSM   AM222298  13.837  15.380  11.912  0.0998  0.2777 -0.0794
 1901POSM   T1A22299  14.428  15.515  11.743  0.2841  0.0215  0.3257
 1901POSM   C2A22300  14.871  15.661  11.834 -0.0779 -0.1417 -0.1672
 1901POSM   C3A22301  15.315  15.849  11.873 -0.1312 -0.1907  0.0595
 1901POSM   C1B22302  14.010  15.448  12.118 -0.2432 -0.3386  0.0398
 1901POSM   D2B22303  14.050  15.692  12.458  0.0473 -0.1300 -0.0285
 1901POSM   C3B22304  14.407  15.736  12.741 -0.0235 -0.4412 -0.0576
 1901POSM   C4B22305  14.712  15.941  13.077 -0.0866  0.1969 -0.1615
 1902DOPS   CNO22306  13.340  11.228  11.763  0.2032  0.1805  0.0888
 1902DOPS   PO422307  13.639  10.951  11.757 -0.3884  0.2730 -0.0212
 1902DOPS   GL122308  13.590  10.723  12.084  0.1633 -0.1579 -0.0226
 1902DOPS   GL222309  13.402  10.560  12.301 -0.0276 -0.2659 -0.2044
 1902DOPS   C1A22310  13.961  10.494  12.286 -0.2977 -0.2287  0.1145
 1902DOPS   D2A22311  14.075  10.114  12.527  0.0722  0.0771 -0.0418
 1902DOPS   C3A22312  14.059   9.697  12.340 -0.0267  0.1498 -0.2625
 1902DOPS   C4A22313  14.267   9.276  12.174  0.1936 -0.0565  0.0292
 1902DOPS   C1B22314  13.562  10.324  12.671 -0.0689 -0.1246  0.5749
 1902DOPS   D2B22315  13.910  10.528  12.841  0.0752 -0.1309  0.1413
 1902DOPS   C3B22316  14.076  10.670  13.282 -0.1602 -0.1155  0.1905
 1902DOPS   C4B22317  13.676  10.799  13.534 -0.1234  0.3291  0.1140
 1903DOPE   NH322318  13.330  17.783  12.449 -0.0578 -0.2714 -0.3766
 1903DOPE   PO422319  13.171  17.647  12.256 -0.1286  0.0573  0.3087
 1903DOPE   GL122320  12.828  17.739  12.396 -0.3583 -0.0675  0.0025
 1903DOPE   GL222321  12.856  17.673  12.648 -0.1079 -0.1711  0.2654
 1903DOPE   C1A22322  12.405  17.517  12.535 -0.3836 -0.1359 -0.2518
 1903DOPE   D2A22323  12.308  17.126  12.561 -0.2466 -0.0948 -0.0989
 1903DOPE   C3A22324  11.966  16.966  12.889 -0.3508 -0.0114 -0.2747
 1903DOPE   C4A22325  11.675  16.919  13.230 -0.1212  0.0768 -0.0540
 1903DOPE   C1B22326  12.860  17.732  13.090  0.1387 -0.1252  0.0365
 1903DOPE   D2B22327  13.025  17.987  13.425  0.1419 -0.0771 -0.4598
 1903DOPE   C3B22328  12.745  18.232  13.719  0.2223  0.0192 -0.0083
 1903DOPE   C4B22329  12.512  18.669  13.803 -0.2894 -0.2218  0.0188
 1904POSM   NC322330  11.162  14.127  11.402 -0.1701 -0.1404 -0.1910
 1904POSM   PO422331  11.086  14.262  11.763  0.1472 -0.0860  0.0822
 1904POSM   AM122332  11.313  14.210  12.042 -0.1604 -0.3146  0.0217
 1904POSM   AM222333  11.436  13.960  12.062  0.1414  0.0461 -0.3287
 1904POSM   T1A22334  11.724  14.330  12.306 -0.0120 -0.2575 -0.2113
 1904POSM   C2A22335  11.876  14.602  12.647  0.1143 -0.2168 -0.1751
 1904POSM   C3A22336  11.925  14.969  12.914  0.0047  0.0467 -0.3157
 1904POSM   C1B22337  11.708  13.824  12.170 -0.1070 -0.1535 -0.0582
 1904POSM   D2B22338  11.971  13.681  12.506 -0.2129 -0.1841 -0.0665
 1904POSM   C3B22339  12.197  13.605  12.861 -0.2332  0.2327 -0.1224
 1904POSM   C4B22340  12.382  13.465  13.293 -0.5485  0.0393 -0.0596
 1905DOPC   NC322341  17.269  16.766  11.390  0.0793  0.0603  0.4400
 1905DOPC   PO422342  17.626  16.527  11.412  0.0069 -0.0630 -0.0057
 1905DOPC   GL122343  17.633  16.618  11.796  0.0948  0.2991 -0.0301
 1905DOPC   GL222344  17.728  16.873  11.813  0.2466 -0.2143  0.2560
 1905DOPC   C1A22345  17.229  16.749  11.897  0.1614  0.0602  0.1191
 1905DOPC   D2A22346  16.781  16.668  11.880  0.1116  0.0013 -0.1632
 1905DOPC   C3A22347  16.300  16.714  11.668 -0.3485  0.4180  0.0538
 1905DOPC   C4A22348  15.820  16.708  11.875  0.3906  0.1310  0.1194
 1905DOPC   C1B22349  17.533  17.091  12.163 -0.0123  0.0587  0.3392
 1905DOPC   D2B22350  17.367  17.047  12.590  0.1754 -0.0420 -0.0641
 1905DOPC   C3B22351  16.970  16.880  12.829  0.1472  0.3798 -0.0129
 1905DOPC   C4B22352  16.520  16.867  12.732  0.3596  0.0956 -0.0686
 1906DOPS   CNO22353  13.804  11.906  11.649  0.2511  0.2508  0.2567
 1906DOPS   PO422354  13.963  11.898  11.996 -0.2017  0.0702  0.0116
 1906DOPS   GL122355  13.898  12.092  12.270  0.2332  0.0748  0.1512
 1906DOPS   GL222356  13.842  11.893  12.493 -0.1812  0.3215  0.1194
 1906DOPS   C1A22357  13.976  12.461  12.517  0.0010  0.3117 -0.0246
 1906DOPS   D2A22358  14.087  12.561  12.964  0.1418  0.3575  0.0131
 1906DOPS   C3A22359  13.910  12.363  13.291  0.2674  0.1735  0.1304
 1906DOPS   C4A22360  13.689  12.251  13.661 -0.2450 -0.1981 -0.1076
 1906DOPS   C1B22361  14.164  12.073  12.856 -0.0526  0.2114  0.0101
 1906DOPS   D2B22362  14.622  11.921  12.834  0.1737 -0.1227  0.0058
 1906DOPS   C3B22363  14.766  11.631  13.207  0.2642  0.1187  0.0903
 1906DOPS   C4B22364  14.632  11.256  13.360  0.1666  0.0992 -0.1326
 1907DOPC   NC322365  13.208  16.646  11.666  0.3190 -0.2072 -0.0183
 1907DOPC   PO422366  13.413  16.420  11.905 -0.1728 -0.0014  0.3632
 1907DOPC   GL122367  13.177  16.263  12.148  0.0753 -0.0682  0.0335
 1907DOPC   GL222368  13.287  16.066  12.221  0.1101 -0.3034  0.0508
 1907DOPC   C1A22369  13.139  16.397  12.559  0.1340 -0.1399 -0.0917
 1907DOPC   D2A22370  12.891  16.605  12.884 -0.0635  0.0393 -0.3098
 1907DOPC   C3A22371  12.962  16.811  13.272  0.1146 -0.0479 -0.0369
 1907DOPC   C4A22372  13.151  17.034  13.682  0.2836  0.0201 -0.0921
 1907DOPC   C1B22373  13.372  15.928  12.636  0.1720  0.3804 -0.2175
 1907DOPC   D2B22374  13.596  15.762  13.035  0.1497  0.4129  0.3489
 1907DOPC   C3B22375  13.641  16.012  13.350  0.2026 -0.1794  0.1209
 1907DOPC   C4B22376  13.486  16.216  13.743  0.0358  0.2314  0.0337
 1908DOPC   NC322377  16.592  14.731  11.593  0.1909  0.0558  0.1558
 1908DOPC   PO422378  16.716  14.973  11.872 -0.0047  0.0897  0.2734
 1908DOPC   GL122379  16.536  14.937  12.218 -0.3383  0.1145  0.0235
 1908DOPC   GL222380  16.442  15.201  12.274 -0.2171  0.0233  0.2384
 1908DOPC   C1A22381  16.648  14.962  12.659 -0.1357 -0.0424 -0.0448
 1908DOPC   D2A22382  16.791  14.630  12.870 -0.2712  0.0581 -0.1578
 1908DOPC   C3A22383  16.879  14.590  13.302  0.2888 -0.1057 -0.0418
 1908DOPC   C4A22384  17.196  14.399  13.586 -0.0939  0.1985  0.1168
 1908DOPC   C1B22385  16.081  15.508  12.258 -0.3774  0.1043  0.2449
 1908DOPC   D2B22386  15.643  15.411  12.333  0.0526  0.0834  0.0416
 1908DOPC   C3B22387  15.442  15.004  12.455 -0.1336 -0.0249  0.2099
 1908DOPC   C4B22388  15.604  14.756  12.863  0.0839 -0.2141  0.1408
 1909DOPE   NH322389  18.035  14.327  11.669 -0.4440  0.2088 -0.0402
 1909DOPE   PO422390  18.263  14.504  11.887  0.1585 -0.0258 -0.0571
 1909DOPE   GL122391  18.149  14.481  12.212 -0.2781  0.1027 -0.0028
 1909DOPE   GL222392  17.887  14.273  12.144  0.2921 -0.2917 -0.1093
 1909DOPE   C1A22393  18.214  14.371  12.689 -0.0963  0.2061 -0.2134
 1909DOPE   D2A22394  18.279  14.630  13.102  0.0705 -0.1077  0.1255
 1909DOPE   C3A22395  18.133  15.053  13.205  0.0447 -0.1339 -0.0631
 1909DOPE   C4A22396  17.774  15.366  13.285  0.3545  0.0557 -0.0966
 1909DOPE   C1B22397  17.881  14.030  12.544  0.2533 -0.0297  0.1826
 1909DOPE   D2B22398  18.203  13.782  12.795 -0.2771  0.2210 -0.0869
 1909DOPE   C3B22399  17.970  13.556  13.066  0.0858  0.1695 -0.1616
 1909DOPE   C4B22400  17.761  13.175  13.137 -0.2297  0.4419  0.1922
 1910DOPC   NC322401  12.556  14.966  11.625  0.0671  0.0632 -0.1064
 1910DOPC   PO422402  12.902  15.155  11.620 -0.3327  0.0767  0.1543
 1910DOPC   GL122403  13.013  14.912  11.866  0.3125  0.1610  0.3591
 1910DOPC   GL222404  12.932  14.961  12.162 -0.1696  0.0681  0.2766
 1910DOPC   C1A22405  13.117  14.439  11.904  0.0150  0.3843  0.0168
 1910DOPC   D2A22406  13.391  14.037  11.872 -0.1344 -0.1123  0.1172
 1910DOPC   C3A22407  13.467  13.800  12.241 -0.3906 -0.0990 -0.1352
 1910DOPC   C4A22408  13.342  13.515  12.557  0.0858 -0.0273 -0.1748
 1910DOPC   C1B22409  13.111  15.098  12.549 -0.2551 -0.0611 -0.4551
 1910DOPC   D2B22410  13.297  15.422  12.853 -0.1077 -0.1198  0.1409
 1910DOPC   C3B22411  13.355  15.101  13.202 -0.2638  0.0171 -0.1497
 1910DOPC   C4B22412  13.158  14.996  13.613  0.1423  0.2844 -0.0647
 1911DOPC   NC322413  19.122  23.092  12.029  0.0659 -0.2059  0.2371
 1911DOPC   PO422414  19.073  22.820  12.340 -0.2474  0.0639  0.4135
 1911DOPC   GL122415  19.036  22.635  12.738  0.3005 -0.1795  0.1091
 1911DOPC   GL222416  19.361  22.653  12.746  0.0532  0.1148  0.2472
 1911DOPC   C1A22417  18.881  22.283  13.059 -0.0815 -0.2243 -0.0756
 1911DOPC   D2A22418  18.716  21.813  13.103 -0.2024 -0.2598  0.0541
 1911DOPC   C3A22419  18.653  21.416  12.888  0.1987  0.1675 -0.0038
 1911DOPC   C4A22420  18.454  21.016  13.067 -0.2350  0.1083  0.2563
 1911DOPC   C1B22421  19.806  22.499  12.692  0.1690 -0.2008  0.1175
 1911DOPC   D2B22422  20.195  22.412  12.882  0.3002  0.0259  0.1723
 1911DOPC   C3B22423  20.354  22.696  13.195 -0.2719  0.2466  0.0472
 1911DOPC   C4B22424  20.282  23.038  13.533  0.0896 -0.0599 -0.2945
 1912POSM   NC322425  15.377  21.549  12.173 -0.1696 -0.2230 -0.0269
 1912POSM   PO422426  15.652  21.828  12.320  0.1969 -0.0261 -0.1098
 1912POSM   AM122427  15.864  22.118  12.415  0.0808 -0.0968 -0.1499
 1912POSM   AM222428  15.820  22.386  12.347  0.0087  0.0994 -0.0565
 1912POSM   T1A22429  16.041  22.343  12.794 -0.1805 -0.0694 -0.2691
 1912POSM   C2A22430  16.104  22.383  13.221 -0.0187 -0.1216  0.0109
 1912POSM   C3A22431  16.365  22.662  13.452 -0.0049 -0.0352 -0.2399
 1912POSM   C1B22432  16.025  22.624  12.404  0.0789  0.2564  0.0167
 1912POSM   D2B22433  16.458  22.844  12.505  0.0612  0.1244 -0.2037
 1912POSM   C3B22434  16.421  22.842  12.959  0.1316  0.0483  0.0757
 1912POSM   C4B22435  16.034  22.867  13.171 -0.0339  0.0110  0.1409
 1913DOPE   NH322436  17.222  15.236  11.351  0.0388 -0.1579 -0.1008
 1913DOPE   PO422437  17.133  15.350  11.619  0.1255 -0.1002 -0.1424
 1913DOPE   GL122438  17.066  15.671  11.599  0.0114 -0.0797  0.5494
 1913DOPE   GL222439  17.058  15.726  11.941  0.1768 -0.1720  0.0852
 1913DOPE   C1A22440  16.749  15.962  11.498  0.3422  0.3182 -0.0569
 1913DOPE   D2A22441  16.279  15.947  11.630  0.2279 -0.1952  0.2759
 1913DOPE   C3A22442  16.093  16.235  11.293 -0.0615  0.0040 -0.0359
 1913DOPE   C4A22443  15.731  16.146  10.971  0.1934 -0.0893  0.1310
 1913DOPE   C1B22444  16.890  15.720  12.315 -0.0518 -0.0638 -0.2762
 1913DOPE   D2B22445  16.591  15.535  12.601  0.2633  0.0061 -0.3174
 1913DOPE   C3B22446  16.729  15.519  13.037  0.2271 -0.0914  0.0175
 1913DOPE   C4B22447  16.625  15.599  13.487 -0.0631 -0.2087 -0.0950
 1914DOPS   CNO22448  16.799  15.475  11.175 -0.5520 -0.1407  0.0809
 1914DOPS   PO422449  16.746  15.070  11.265 -0.0147 -0.1912 -0.0922
 1914DOPS   GL122450  16.565  15.256  11.584 -0.0914  0.2129  0.0996
 1914DOPS   GL222451  16.640  15.443  11.826 -0.1283 -0.1252  0.1735
 1914DOPS   C1A22452  16.141  15.455  11.737  0.0806  0.0849 -0.1516
 1914DOPS   D2A22453  15.649  15.533  11.687  0.5043  0.2542  0.0410
 1914DOPS   C3A22454  15.597  15.805  11.332  0.1357  0.0817  0.0388
 1914DOPS   C4A22455  15.431  16.275  11.446  0.3243 -0.1908  0.4915
 1914DOPS   C1B22456  16.438  15.806  12.079  0.0554 -0.3016 -0.0222
 1914DOPS   D2B22457  16.208  16.000  12.404  0.1406 -0.1294 -0.2755
 1914DOPS   C3B22458  15.929  15.697  12.709 -0.0604  0.0349  0.0732
 1914DOPS   C4B22459  15.763  15.255  12.796  0.1419 -0.0720 -0.1258
 1915DOPC   NC322460  15.364  22.190  12.178  0.0267 -0.3872  0.1640
 1915DOPC   PO422461  15.410  22.586  12.069  0.2628 -0.1781  0.2294
 1915DOPC   GL122462  15.431  22.677  12.366 -0.2282 -0.1622  0.3896
 1915DOPC   GL222463  15.266  22.630  12.633  0.0757 -0.3529 -0.2182
 1915DOPC   C1A22464  15.501  23.130  12.414 -0.1046 -0.1843 -0.3298
 1915DOPC   D2A22465  15.515  23.476  12.618  0.1479 -0.0885 -0.1304
 1915DOPC   C3A22466  15.876  23.612  12.825  0.0885 -0.1058  0.0470
 1915DOPC   C4A22467  16.159  23.418  13.136 -0.2216 -0.0537  0.4159
 1915DOPC   C1B22468  15.222  22.630  13.116 -0.0334 -0.0654  0.0493
 1915DOPC   D2B22469  15.339  22.845  13.495 -0.2430  0.3586 -0.2317
 1915DOPC   C3B22470  15.361  23.310  13.649 -0.2244 -0.0613 -0.1947
 1915DOPC   C4B22471  15.582  23.707  13.838  0.0647 -0.0619  0.1807
 1916DOPE   NH322472  12.637  15.429  11.920  0.2237  0.0078 -0.1039
 1916DOPE   PO422473  12.415  15.489  11.661 -0.3526 -0.1658 -0.1135
 1916DOPE   GL122474  12.255  15.655  11.894  0.0539 -0.2203  0.0999
 1916DOPE   GL222475  12.170  15.975  11.834 -0.3585 -0.2810  0.0242
 1916DOPE   C1A22476  11.978  15.767  12.253  0.2905 -0.1885  0.0609
 1916DOPE   D2A22477  11.875  15.591  12.623 -0.1036  0.2386  0.0067
 1916DOPE   C3A22478  11.522  15.520  12.914  0.2910 -0.4004 -0.2515
 1916DOPE   C4A22479  11.159  15.767  12.830 -0.0643 -0.2226 -0.1174
 1916DOPE   C1B22480  12.243  16.214  12.216 -0.6471  0.0420  0.0723
 1916DOPE   D2B22481  12.050  16.096  12.641 -0.0554  0.3506  0.1477
 1916DOPE   C3B22482  11.947  15.885  13.026 -0.0898 -0.1076  0.2473
 1916DOPE   C4B22483  11.979  15.462  13.270  0.2369 -0.0602 -0.0694
 1917DOPE   NH322484  17.797  17.118  11.124  0.1201 -0.3823 -0.0691
 1917DOPE   PO422485  17.619  17.143  11.409  0.2300 -0.0171  0.2269
 1917DOPE   GL122486  17.320  17.264  11.549 -0.3529 -0.3525 -0.2623
 1917DOPE   GL222487  17.134  17.353  11.326 -0.1572  0.3104 -0.0142
 1917DOPE   C1A22488  16.910  17.215  11.734  0.0724 -0.1545  0.1694
 1917DOPE   D2A22489  16.477  17.133  11.764  0.0279 -0.0045 -0.2934
 1917DOPE   C3A22490  16.436  17.198  12.215 -0.3966  0.2221  0.1172
 1917DOPE   C4A22491  16.548  17.485  12.546  0.0849  0.1259  0.1171
 1917DOPE   C1B22492  17.029  17.692  11.535  0.1590  0.1106 -0.3932
 1917DOPE   D2B22493  16.965  18.042  11.904  0.4044 -0.1119  0.2974
 1917DOPE   C3B22494  16.895  18.026  12.344 -0.1713  0.0907 -0.3072
 1917DOPE   C4B22495  16.703  17.888  12.783  0.3053  0.0806 -0.3053
 1918POSM   NC322496  20.899  18.838  11.484  0.0579 -0.1172  0.1785
 1918POSM   PO422497  20.953  18.458  11.549 -0.1339 -0.0519 -0.2318
 1918POSM   AM122498  20.851  18.598  11.859 -0.1744 -0.0880  0.0760
 1918POSM   AM222499  20.760  18.612  12.112 -0.1557 -0.1140  0.4252
 1918POSM   T1A22500  21.138  18.836  12.192  0.0309  0.1615 -0.0241
 1918POSM   C2A22501  21.197  19.001  12.633  0.1857 -0.1002  0.1160
 1918POSM   C3A22502  21.222  19.463  12.833 -0.1417 -0.0914  0.0838
 1918POSM   C1B22503  20.592  18.748  12.342  0.0019  0.5087 -0.1589
 1918POSM   D2B22504  20.631  19.086  12.614  0.1607 -0.0798 -0.0682
 1918POSM   C3B22505  20.796  19.305  12.985 -0.3707 -0.1763 -0.0136
 1918POSM   C4B22506  21.013  19.588  13.264  0.1257 -0.2888 -0.2423
 1919POSM   NC322507  22.137  22.863  11.919  0.1787  0.1567 -0.2121
 1919POSM   PO422508  21.790  23.045  12.003  0.1804 -0.1884 -0.2831
 1919POSM   AM122509  21.635  22.762  12.027  0.3827 -0.3156  0.0288
 1919POSM   AM222510  21.722  22.551  12.182  0.2741 -0.2244  0.2192
 1919POSM   T1A22511  21.199  22.579  11.998  0.0591  0.0548  0.0137
 1919POSM   C2A22512  20.950  22.211  12.146 -0.1023 -0.1480  0.1191
 1919POSM   C3A22513  20.626  22.163  12.460  0.3565  0.0103 -0.1130
 1919POSM   C1B22514  21.489  22.429  12.395 -0.0475 -0.3591  0.2094
 1919POSM   D2B22515  21.202  22.129  12.576 -0.2935  0.0755  0.1869
 1919POSM   C3B22516  20.901  21.801  12.695  0.0931 -0.2379  0.2509
 1919POSM   C4B22517  20.537  21.811  12.978  0.3780  0.1755  0.5143
 1920DOPC   NC322518  11.106  15.660  11.622 -0.0050  0.0059 -0.0250
 1920DOPC   PO422519  11.493  15.559  11.808  0.4001  0.2328  0.3658
 1920DOPC   GL122520  11.667  15.896  11.969 -0.4902 -0.0157  0.0569
 1920DOPC   GL222521  11.500  16.078  11.804  0.0470 -0.1669  0.0544
 1920DOPC   C1A22522  11.622  16.291  12.271  0.3904 -0.0881 -0.1086
 1920DOPC   D2A22523  11.721  16.510  12.636  0.1720  0.2774 -0.0379
 1920DOPC   C3A22524  11.890  16.411  13.049  0.0365 -0.1274  0.2092
 1920DOPC   C4A22525  12.171  16.598  13.300  0.0348  0.4225  0.0791
 1920DOPC   C1B22526  11.854  16.408  11.827 -0.1530  0.2151 -0.0927
 1920DOPC   D2B22527  12.031  16.719  12.191 -0.2217  0.0475  0.1346
 1920DOPC   C3B22528  12.222  16.566  12.569 -0.2332 -0.0431 -0.0835
 1920DOPC   C4B22529  12.455  16.749  12.923 -0.2054  0.0308 -0.2248
 1921DOPC   NC322530  15.041  22.106  12.788 -0.0142 -0.0272 -0.2763
 1921DOPC   PO422531  15.151  21.869  12.485 -0.1355  0.1122  0.3194
 1921DOPC   GL122532  15.441  21.898  12.706  0.0852  0.1907 -0.1580
 1921DOPC   GL222533  15.481  22.217  12.641 -0.0280  0.1785 -0.1844
 1921DOPC   C1A22534  15.423  21.808  13.173  0.4598 -0.0462 -0.1773
 1921DOPC   D2A22535  15.384  21.965  13.609  0.2086  0.3742 -0.0863
 1921DOPC   C3A22536  15.488  21.743  13.997  0.0102 -0.0040  0.3297
 1921DOPC   C4A22537  15.666  21.574  14.430 -0.1426 -0.0079  0.2558
 1921DOPC   C1B22538  15.598  22.324  13.063  0.0668  0.1481 -0.1354
 1921DOPC   D2B22539  15.719  22.539  13.543  0.0227  0.1169  0.0724
 1921DOPC   C3B22540  16.094  22.273  13.684 -0.0458 -0.0656 -0.0495
 1921DOPC   C4B22541  16.479  22.390  13.937 -0.1865  0.1669  0.0637
 1922DOPC   NC322542  16.931  19.615  12.342  0.3467  0.0242 -0.1585
 1922DOPC   PO422543  17.220  19.723  12.148  0.0130 -0.1218 -0.0640
 1922DOPC   GL122544  17.472  19.423  12.178  0.1899  0.1225  0.1178
 1922DOPC   GL222545  17.675  19.383  12.257  0.0922 -0.0511 -0.0790
 1922DOPC   C1A22546  17.552  19.132  11.821 -0.2797  0.0280 -0.1102
 1922DOPC   D2A22547  17.661  18.704  11.806  0.0327  0.0349  0.1018
 1922DOPC   C3A22548  17.998  18.433  12.066 -0.2160 -0.0681 -0.1551
 1922DOPC   C4A22549  17.991  18.271  12.528 -0.2963 -0.1811  0.2049
 1922DOPC   C1B22550  17.551  18.919  12.306  0.0254 -0.4000 -0.3292
 1922DOPC   D2B22551  17.622  18.515  12.448  0.0337  0.1017  0.1536
 1922DOPC   C3B22552  17.763  18.575  12.904 -0.0743  0.1347 -0.0782
 1922DOPC   C4B22553  17.792  18.804  13.252  0.2526 -0.4126  0.2329
 1923POSM   NC322554  13.950  14.138  11.648 -0.2036  0.0868 -0.2243
 1923POSM   PO422555  13.691  14.387  11.490 -0.0643 -0.0163  0.0808
 1923POSM   AM122556  13.857  14.706  11.568 -0.0354  0.0544 -0.2776
 1923POSM   AM222557  13.808  14.754  11.848  0.0327 -0.0665 -0.0468
 1923POSM   T1A22558  14.274  14.963  11.768  0.0696  0.2238 -0.4669
 1923POSM   C2A22559  14.668  15.128  11.992 -0.1273 -0.0017 -0.1642
 1923POSM   C3A22560  15.059  15.205  12.176  0.1551 -0.4476  0.3556
 1923POSM   C1B22561  13.866  14.544  12.135 -0.0951 -0.1318  0.1027
 1923POSM   D2B22562  14.069  14.528  12.551 -0.1268  0.3891  0.1277
 1923POSM   C3B22563  14.441  14.163  12.610  0.0269  0.1723 -0.1677
 1923POSM   C4B22564  14.820  14.115  12.811  0.3024  0.0647 -0.1912
 1924DOPC   NC322565  13.048  22.542  12.538 -0.2416  0.0912 -0.0858
 1924DOPC   PO422566  12.939  22.627  12.165  0.0124 -0.2057 -0.1298
 1924DOPC   GL122567  12.869  22.178  12.389  0.0779 -0.0986  0.0018
 1924DOPC   GL222568  12.694  22.221  12.674  0.0199  0.1223 -0.2413
 1924DOPC   C1A22569  12.952  21.802  12.649  0.1232  0.4014  0.1631
 1924DOPC   D2A22570  13.230  21.690  13.029 -0.1243 -0.2639  0.0115
 1924DOPC   C3A22571  13.164  21.583  13.483 -0.0372 -0.1713  0.1269
 1924DOPC   C4A22572  13.334  21.284  13.864  0.0001 -0.1264  0.1812
 1924DOPC   C1B22573  13.089  22.273  12.961 -0.0581 -0.2482 -0.0617
 1924DOPC   D2B22574  13.340  22.418  13.310  0.1522  0.1712  0.2011
 1924DOPC   C3B22575  13.336  22.427  13.766  0.1401  0.1541  0.0216
 1924DOPC   C4B22576  13.366  22.180  14.176  0.1265 -0.0233  0.0615
 1925POSM   NC322577  23.636  16.069  11.807 -0.0440  0.2889  0.2665
 1925POSM   PO422578  23.424  16.080  12.143  0.0537  0.1981 -0.1240
 1925POSM   AM122579  23.179  16.081  12.382 -0.2746 -0.1584  0.0411
 1925POSM   AM222580  22.911  16.120  12.379  0.1648  0.0244  0.0225
 1925POSM   T1A22581  23.110  16.017  12.885 -0.0884 -0.0298 -0.1954
 1925POSM   C2A22582  22.997  15.994  13.292 -0.2498 -0.0080 -0.0031
 1925POSM   C3A22583  23.150  16.159  13.642  0.0844  0.1539 -0.1084
 1925POSM   C1B22584  22.638  15.981  12.380  0.2797  0.0256  0.4174
 1925POSM   D2B22585  22.212  15.991  12.269 -0.1933 -0.0804 -0.1343
 1925POSM   C3B22586  21.892  15.953  12.583  0.0468 -0.0336  0.1480
 1925POSM   C4B22587  21.580  16.063  12.945  0.1799 -0.2955  0.0112
 1926DOPS   CNO22588  19.761  11.976  11.876  0.1378  0.1711 -0.0519
 1926DOPS   PO422589  19.782  12.164  12.207 -0.2194 -0.2116  0.2373
 1926DOPS   GL122590  19.718  12.626  12.244  0.1250 -0.2559  0.1213
 1926DOPS   GL222591  19.638  12.881  12.153 -0.0793 -0.0554  0.0238
 1926DOPS   C1A22592  19.829  12.875  12.671  0.0206  0.1675 -0.2521
 1926DOPS   D2A22593  19.805  13.262  12.915  0.4211  0.0660  0.3033
 1926DOPS   C3A22594  20.108  13.603  12.969  0.3865  0.1807  0.1848
 1926DOPS   C4A22595  20.497  13.865  12.962  0.1456  0.4260 -0.0295
 1926DOPS   C1B22596  19.581  13.329  12.321  0.0681  0.2788  0.0073
 1926DOPS   D2B22597  19.535  13.631  12.662  0.1289 -0.0420  0.0807
 1926DOPS   C3B22598  19.895  13.909  12.634  0.1541 -0.2162  0.2616
 1926DOPS   C4B22599  20.265  14.175  12.451  0.2591 -0.0814 -0.1598
 1927DOPC   NC322600  14.717  17.578  11.573  0.0677  0.2716 -0.1363
 1927DOPC   PO422601  15.114  17.691  11.595  0.1083  0.1491 -0.1621
 1927DOPC   GL122602  15.383  17.444  11.830 -0.0057  0.2620  0.0745
 1927DOPC   GL222603  15.609  17.354  11.680  0.0058  0.3181  0.2522
 1927DOPC   C1A22604  15.374  17.223  12.246  0.0731  0.2339  0.1053
 1927DOPC   D2A22605  15.580  16.797  12.375  0.0277 -0.0132 -0.0148
 1927DOPC   C3A22606  15.573  16.342  12.431  0.0580 -0.0597  0.2832
 1927DOPC   C4A22607  15.573  15.900  12.369  0.1834  0.4284 -0.0710
 1927DOPC   C1B22608  16.051  17.458  11.730 -0.2194 -0.0590 -0.0478
 1927DOPC   D2B22609  16.480  17.773  11.807  0.0824 -0.3280  0.0511
 1927DOPC   C3B22610  16.741  17.596  12.136  0.1364 -0.1341  0.4827
 1927DOPC   C4B22611  16.986  17.302  12.397 -0.0957  0.0285 -0.2096
 1928DOPS   CNO22612  11.831  21.748  12.391  0.1244 -0.1289 -0.1283
 1928DOPS   PO422613  11.749  22.049  12.680 -0.2769  0.0211 -0.2986
 1928DOPS   GL122614  11.789  21.873  12.929 -0.0769  0.0301 -0.1923
 1928DOPS   GL222615  12.001  21.703  12.875  0.3887  0.0031 -0.1585
 1928DOPS   C1A22616  11.624  21.755  13.306 -0.4394 -0.1144 -0.2927
 1928DOPS   D2A22617  11.590  21.724  13.780 -0.2452  0.1293  0.0356
 1928DOPS   C3A22618  11.846  21.433  13.984  0.2864  0.1439  0.1264
 1928DOPS   C4A22619  11.992  21.083  14.319  0.2218  0.1217  0.0139
 1928DOPS   C1B22620  12.276  21.685  13.238  0.3149  0.0246 -0.4019
 1928DOPS   D2B22621  12.074  21.838  13.631  0.1073 -0.0876  0.1726
 1928DOPS   C3B22622  12.263  21.725  13.994 -0.1399 -0.0006 -0.2379
 1928DOPS   C4B22623  12.457  21.353  14.189 -0.0776 -0.2125 -0.1691
 1929DOPE   NH322624  16.095  20.843  12.029  0.2298 -0.2001 -0.2634
 1929DOPE   PO422625  16.061  20.812  12.341  0.1290 -0.0304 -0.2050
 1929DOPE   GL122626  15.861  21.004  12.707 -0.0923 -0.0461  0.1928
 1929DOPE   GL222627  15.578  20.917  12.698 -0.0554  0.0287  0.0303
 1929DOPE   C1A22628  15.883  20.958  13.169 -0.0261 -0.0817 -0.0484
 1929DOPE   D2A22629  16.065  21.230  13.539 -0.2619 -0.0660  0.0109
 1929DOPE   C3A22630  16.002  21.136  13.975  0.0549 -0.2388 -0.1557
 1929DOPE   C4A22631  16.140  21.419  14.313 -0.0350 -0.2924 -0.0989
 1929DOPE   C1B22632  15.680  20.570  12.916 -0.0050 -0.0115  0.3225
 1929DOPE   D2B22633  15.842  20.149  12.901 -0.0215 -0.1998  0.3351
 1929DOPE   C3B22634  15.844  19.890  13.244 -0.0604 -0.1197 -0.1094
 1929DOPE   C4B22635  15.869  19.713  13.699  0.4076  0.0135  0.1584
 1930DOPE   NH322636  21.801  12.168  12.250  0.0821 -0.3028  0.0456
 1930DOPE   PO422637  21.641  12.307  11.978  0.0655  0.4476  0.2778
 1930DOPE   GL122638  21.628  12.648  12.076  0.0174  0.0278 -0.2769
 1930DOPE   GL222639  21.642  12.981  11.901 -0.0728  0.0977 -0.0165
 1930DOPE   C1A22640  21.940  12.930  12.281  0.1831 -0.0928 -0.1785
 1930DOPE   D2A22641  22.178  13.353  12.307 -0.2374  0.0338  0.2217
 1930DOPE   C3A22642  22.396  13.616  12.668  0.0675  0.0111 -0.3480
 1930DOPE   C4A22643  22.169  13.739  13.084  0.0554  0.0142  0.1181
 1930DOPE   C1B22644  21.766  13.373  12.097 -0.1506 -0.2763 -0.4398
 1930DOPE   D2B22645  21.723  13.536  12.580 -0.0027  0.1432  0.0195
 1930DOPE   C3B22646  21.943  14.003  12.684  0.0954 -0.1136 -0.0512
 1930DOPE   C4B22647  21.901  14.306  12.991  0.2347 -0.0602 -0.0191
 1931DOPE   NH322648  18.330  15.381  11.534 -0.0991 -0.0979  0.1014
 1931DOPE   PO422649  18.054  15.544  11.408  0.0344  0.0311 -0.0818
 1931DOPE   GL122650  18.073  15.828  11.668  0.0656  0.3190 -0.0893
 1931DOPE   GL222651  18.167  16.072  11.457  0.3807  0.0262  0.1730
 1931DOPE   C1A22652  18.157  16.037  12.078  0.1819  0.0699  0.3908
 1931DOPE   D2A22653  18.056  16.335  12.407  0.0986 -0.1416 -0.3559
 1931DOPE   C3A22654  17.815  16.024  12.643  0.0629 -0.1588 -0.2281
 1931DOPE   C4A22655  17.603  15.689  12.890  0.1401 -0.0238 -0.1099
 1931DOPE   C1B22656  18.580  15.966  11.293 -0.3433  0.0161 -0.0964
 1931DOPE   D2B22657  18.895  15.604  11.370 -0.0177  0.3777 -0.1119
 1931DOPE   C3B22658  18.975  15.360  11.764 -0.2839 -0.1334  0.1324
 1931DOPE   C4B22659  18.972  15.230  12.177  0.2169 -0.1074  0.0653
 1932DOPC   NC322660  16.227  13.290  11.522  0.2109  0.2086 -0.2629
 1932DOPC   PO422661  16.561  13.457  11.631 -0.3811 -0.2175 -0.3947
 1932DOPC   GL122662  16.466  13.378  11.961  0.0262  0.0354  0.1356
 1932DOPC   GL222663  16.234  13.285  12.063 -0.1777  0.1871  0.0071
 1932DOPC   C1A22664  16.746  13.421  12.305  0.1573  0.1848  0.1735
 1932DOPC   D2A22665  16.970  13.385  12.702  0.0752 -0.1973 -0.1369
 1932DOPC   C3A22666  17.180  12.983  12.788 -0.0869 -0.3283  0.0292
 1932DOPC   C4A22667  17.286  12.656  13.102 -0.1409 -0.0414 -0.0369
 1932DOPC   C1B22668  16.483  12.998  12.349  0.0852 -0.1936  0.1764
 1932DOPC   D2B22669  16.661  12.982  12.798  0.0880 -0.0677  0.2971
 1932DOPC   C3B22670  16.716  12.797  13.155  0.2061 -0.2112 -0.2193
 1932DOPC   C4B22671  16.696  12.917  13.618  0.1336  0.1441 -0.1079
 1933DOPS   CNO22672  22.618  19.545  11.371 -0.0188 -0.0736  0.2022
 1933DOPS   PO422673  22.517  19.202  11.430 -0.1313  0.0472 -0.1417
 1933DOPS   GL122674  22.627  18.957  11.692  0.0013 -0.2854  0.5489
 1933DOPS   GL222675  22.893  18.925  11.860 -0.0029  0.0051  0.1440
 1933DOPS   C1A22676  22.452  18.647  12.008  0.3867 -0.4025 -0.1866
 1933DOPS   D2A22677  22.045  18.670  12.306  0.0629 -0.1538 -0.0312
 1933DOPS   C3A22678  21.618  18.514  12.261 -0.1267 -0.1041 -0.0168
 1933DOPS   C4A22679  21.217  18.342  12.293 -0.1900 -0.4550 -0.0589
 1933DOPS   C1B22680  22.818  18.898  12.326 -0.2734  0.0339  0.0189
 1933DOPS   D2B22681  22.856  18.944  12.790  0.0696 -0.2406  0.0579
 1933DOPS   C3B22682  23.017  18.736  13.158  0.3839 -0.1594  0.2507
 1933DOPS   C4B22683  23.399  18.623  13.422 -0.2964  0.1372  0.0165
 1934DOPS   CNO22684  18.997  22.839  11.666  0.4083  0.0785 -0.0052
 1934DOPS   PO422685  19.121  22.523  11.530 -0.1248 -0.2715  0.0722
 1934DOPS   GL122686  19.056  22.231  11.768  0.4067  0.3731 -0.2211
 1934DOPS   GL222687  18.844  22.028  11.796  0.0687 -0.1253 -0.1874
 1934DOPS   C1A22688  19.298  21.961  12.091 -0.2699 -0.2103 -0.0510
 1934DOPS   D2A22689  19.554  21.982  12.491  0.4091  0.0190  0.1878
 1934DOPS   C3A22690  19.892  21.677  12.408  0.0238  0.1722  0.1403
 1934DOPS   C4A22691  20.337  21.667  12.506  0.0782  0.0817  0.2942
 1934DOPS   C1B22692  18.853  21.787  12.179 -0.0450 -0.1070  0.1502
 1934DOPS   D2B22693  18.888  21.411  12.416 -0.2537  0.2572  0.2347
 1934DOPS   C3B22694  18.499  21.220  12.410  0.0975  0.2759 -0.2525
 1934DOPS   C4B22695  18.325  20.788  12.382  0.1883 -0.1126 -0.0808
 1935DOPC   NC322696  18.522  20.360  12.523  0.0928 -0.1625 -0.2895
 1935DOPC   PO422697  18.530  20.101  12.225 -0.1271 -0.0829  0.0502
 1935DOPC   GL122698  18.638  20.410  12.117  0.0355  0.0997  0.6128
 1935DOPC   GL222699  18.459  20.423  11.829 -0.1995 -0.2474 -0.3393
 1935DOPC   C1A22700  18.960  20.685  12.303 -0.2684  0.0584  0.2620
 1935DOPC   D2A22701  18.914  21.005  12.696  0.0173  0.0823 -0.1727
 1935DOPC   C3A22702  19.311  20.987  12.996 -0.0446 -0.2074 -0.1194
 1935DOPC   C4A22703  19.593  20.931  13.352  0.0625 -0.1524 -0.2205
 1935DOPC   C1B22704  18.193  20.852  11.898  0.0167 -0.1329 -0.0683
 1935DOPC   D2B22705  18.016  21.164  12.217  0.0514 -0.0052 -0.2959
 1935DOPC   C3B22706  17.830  20.801  12.401  0.2292  0.0649  0.1367
 1935DOPC   C4B22707  17.913  20.412  12.711  0.1703  0.2361  0.1455
 1936DOPS   CNO22708  13.910  15.710  11.481 -0.1125  0.0413 -0.0228
 1936DOPS   PO422709  13.704  15.941  11.645 -0.0935 -0.1614  0.0176
 1936DOPS   GL122710  13.873  15.883  11.986  0.7276 -0.1453 -0.0544
 1936DOPS   GL222711  14.228  15.899  11.945 -0.0791  0.3133  0.0461
 1936DOPS   C1A22712  13.759  16.106  12.405  0.3118  0.1993  0.2777
 1936DOPS   D2A22713  13.616  16.294  12.840 -0.0875 -0.0135  0.1015
 1936DOPS   C3A22714  13.262  16.176  13.049 -0.1136  0.0596 -0.2145
 1936DOPS   C4A22715  12.928  15.907  13.039 -0.4346  0.0132 -0.0437
 1936DOPS   C1B22716  14.541  15.722  12.222 -0.1918  0.1767  0.2658
 1936DOPS   D2B22717  15.007  15.675  12.379  0.0458  0.1502  0.3070
 1936DOPS   C3B22718  15.222  15.425  12.644 -0.0013  0.1064  0.0383
 1936DOPS   C4B22719  15.180  15.078  12.946 -0.0973 -0.0881  0.1313
 1937DOPS   CNO22720  15.016  18.937  11.575 -0.0856 -0.1139 -0.0191
 1937DOPS   PO422721  14.864  18.594  11.582  0.0328  0.0070  0.1759
 1937DOPS   GL122722  14.639  18.582  11.971  0.0430  0.0319 -0.0658
 1937DOPS   GL222723  14.407  18.558  11.855  0.0218  0.1167  0.0475
 1937DOPS   C1A22724  14.879  18.576  12.380  0.0665 -0.0641  0.1903
 1937DOPS   D2A22725  15.024  18.247  12.688  0.1173  0.2930  0.3175
 1937DOPS   C3A22726  15.415  18.007  12.835  0.0083 -0.1202 -0.3774
 1937DOPS   C4A22727  15.661  17.682  13.068  0.0717 -0.1214 -0.0309
 1937DOPS   C1B22728  14.347  18.846  12.154  0.1265 -0.0278 -0.1453
 1937DOPS   D2B22729  14.428  19.123  12.561 -0.1447  0.1974 -0.0957
 1937DOPS   C3B22730  14.764  19.213  12.860  0.3938 -0.1692 -0.3183
 1937DOPS   C4B22731  15.020  19.068  13.241 -0.0125  0.0613  0.0337
 1938DOPC   NC322732  12.889  20.724  11.986 -0.2978  0.2239 -0.2943
 1938DOPC   PO422733  12.811  20.393  12.248 -0.1998  0.1169 -0.0233
 1938DOPC   GL122734  13.141  20.634  12.370  0.1237 -0.0075  0.0437
 1938DOPC   GL222735  12.948  20.751  12.538 -0.1937 -0.2830 -0.2483
 1938DOPC   C1A22736  13.481  20.406  12.507 -0.1969 -0.0352 -0.1000
 1938DOPC   D2A22737  13.731  20.112  12.737 -0.0730  0.0994 -0.4481
 1938DOPC   C3A22738  13.946  20.405  13.001 -0.0261 -0.0146  0.2785
 1938DOPC   C4A22739  13.957  20.557  13.454  0.1281 -0.1215  0.1975
 1938DOPC   C1B22740  13.206  21.102  12.741 -0.1371  0.2437 -0.2230
 1938DOPC   D2B22741  13.577  21.427  12.677 -0.1129 -0.0095 -0.1432
 1938DOPC   C3B22742  13.570  21.859  12.637  0.1538 -0.2393 -0.0172
 1938DOPC   C4B22743  13.477  22.234  12.404  0.1596 -0.2706  0.2387
 1939DOPE   NH322744  21.987  11.565  12.085  0.0103  0.0554 -0.2037
 1939DOPE   PO422745  21.939  11.708  12.364 -0.1279  0.0269  0.1072
 1939DOPE   GL122746  21.686  11.612  12.515  0.0223 -0.0522 -0.2872
 1939DOPE   GL222747  21.591  11.927  12.676  0.0019  0.1703  0.0269
 1939DOPE   C1A22748  21.632  11.298  12.896  0.1026 -0.1598  0.0631
 1939DOPE   D2A22749  21.455  11.012  13.237 -0.3385 -0.0449 -0.0509
 1939DOPE   C3A22750  21.754  10.869  13.533  0.0069  0.2154 -0.0417
 1939DOPE   C4A22751  22.183  10.648  13.537  0.0391 -0.2336  0.1499
 1939DOPE   C1B22752  21.448  11.804  13.038 -0.0864 -0.1535 -0.3334
 1939DOPE   D2B22753  21.546  11.629  13.469 -0.0483  0.0440 -0.0690
 1939DOPE   C3B22754  21.201  11.361  13.625  0.0922 -0.1243  0.0792
 1939DOPE   C4B22755  20.904  10.970  13.731  0.4445  0.1509  0.1249
 1940DOPE   NH322756  11.356  23.291  12.692  0.3329  0.1205  0.2458
 1940DOPE   PO422757  11.330  23.039  12.784 -0.4271 -0.0228  0.2848
 1940DOPE   GL122758  11.319  22.845  13.079  0.0446 -0.1154  0.3451
 1940DOPE   GL222759  11.609  22.796  13.129  0.1284 -0.2870  0.2246
 1940DOPE   C1A22760  11.443  23.021  13.490  0.1479 -0.1193 -0.2090
 1940DOPE   D2A22761  11.597  23.349  13.782  0.1698 -0.1057 -0.0903
 1940DOPE   C3A22762  11.831  23.224  14.155  0.0723  0.0509 -0.1965
 1940DOPE   C4A22763  11.730  22.857  14.508  0.0729 -0.0185 -0.2212
 1940DOPE   C1B22764  11.912  22.725  13.408 -0.0501  0.0257 -0.1497
 1940DOPE   D2B22765  12.312  22.402  13.555 -0.2135  0.3318 -0.1663
 1940DOPE   C3B22766  12.524  22.078  13.732  0.4612 -0.0128 -0.2103
 1940DOPE   C4B22767  12.602  21.656  13.654 -0.2606  0.0206 -0.2888
 1941POSM   NC322768  17.340  14.005  11.680  0.2113  0.0426 -0.0078
 1941POSM   PO422769  17.525  14.318  11.813 -0.0180  0.3370 -0.2878
 1941POSM   AM122770  17.439  14.468  12.092  0.2763  0.2137 -0.2017
 1941POSM   AM222771  17.531  14.683  12.265 -0.1618  0.0969 -0.0613
 1941POSM   T1A22772  17.175  14.345  12.508 -0.2672 -0.0456  0.1204
 1941POSM   C2A22773  17.055  14.266  12.893 -0.2261  0.0424  0.3640
 1941POSM   C3A22774  17.406  14.249  13.201  0.0962 -0.2221 -0.1494
 1941POSM   C1B22775  17.677  14.511  12.530  0.0458 -0.0331  0.2823
 1941POSM   D2B22776  17.804  14.470  13.017  0.2231 -0.0122  0.4500
 1941POSM   C3B22777  17.821  14.806  13.377 -0.3963  0.1316 -0.1897
 1941POSM   C4B22778  17.961  15.213  13.687  0.1403 -0.0342 -0.1334
 1942DOPS   CNO22779  22.343  22.848  11.432  0.0162  0.0286 -0.2264
 1942DOPS   PO422780  22.006  23.004  11.463  0.2045  0.1542 -0.0797
 1942DOPS   GL122781  21.884  22.623  11.644  0.0608  0.2745  0.0643
 1942DOPS   GL222782  21.613  22.618  11.535 -0.2046  0.0634 -0.0368
 1942DOPS   C1A22783  21.948  22.184  11.662 -0.0339 -0.1710 -0.0136
 1942DOPS   D2A22784  21.960  21.766  11.743 -0.0633 -0.1045  0.6302
 1942DOPS   C3A22785  21.559  21.580  11.779 -0.1628  0.3532  0.3648
 1942DOPS   C4A22786  21.247  21.836  11.472 -0.1311 -0.0612 -0.0222
 1942DOPS   C1B22787  21.456  22.243  11.767 -0.0636  0.1530 -0.2644
 1942DOPS   D2B22788  21.422  21.990  12.129 -0.2237  0.0191  0.1922
 1942DOPS   C3B22789  21.453  21.552  12.309  0.1612  0.0485  0.0920
 1942DOPS   C4B22790  21.333  21.353  12.660  0.0212  0.1382 -0.1890
 1943DOPC   NC322791  18.576  12.184  11.858 -0.0002  0.0165  0.3358
 1943DOPC   PO422792  18.731  12.471  11.579 -0.0015  0.1907  0.0486
 1943DOPC   GL122793  18.758  12.662  11.915  0.1565 -0.0152 -0.0885
 1943DOPC   GL222794  18.570  12.624  12.136 -0.1616 -0.1098  0.1196
 1943DOPC   C1A22795  19.080  12.910  12.171 -0.2106  0.0322 -0.0240
 1943DOPC   D2A22796  19.098  13.344  12.266  0.0485 -0.1843 -0.0960
 1943DOPC   C3A22797  18.770  13.618  12.326  0.1031 -0.1385  0.1783
 1943DOPC   C4A22798  18.357  13.415  12.486  0.0171 -0.0352  0.0205
 1943DOPC   C1B22799  18.248  12.906  12.229  0.1239  0.0186 -0.0568
 1943DOPC   D2B22800  18.066  13.278  12.104  0.2082 -0.0702 -0.0686
 1943DOPC   C3B22801  17.808  13.431  12.432 -0.2622 -0.0333 -0.2253
 1943DOPC   C4B22802  17.514  13.289  12.714  0.5747 -0.1390 -0.0437
 1944DOPE   NH322803  11.667  15.213  12.145  0.1795  0.1566 -0.0787
 1944DOPE   PO422804  11.736  14.924  12.208  0.1976  0.0134  0.0721
 1944DOPE   GL122805  11.466  14.773  12.481 -0.0978  0.0236  0.1075
 1944DOPE   GL222806  11.440  15.035  12.673  0.0534 -0.1145 -0.1651
 1944DOPE   C1A22807  11.400  14.643  12.937 -0.0972  0.0077  0.3891
 1944DOPE   D2A22808  11.096  14.728  13.276  0.0444 -0.0617 -0.0298
 1944DOPE   C3A22809  11.332  14.563  13.585  0.2660  0.2883 -0.1501
 1944DOPE   C4A22810  11.649  14.369  13.886  0.2629  0.1143  0.0260
 1944DOPE   C1B22811  11.174  15.149  13.031  0.0919 -0.0363 -0.3007
 1944DOPE   D2B22812  10.886  15.456  13.219 -0.1590  0.2211  0.5233
 1944DOPE   C3B22813  10.796  15.130  13.530  0.0913  0.2008 -0.2011
 1944DOPE   C4B22814  10.885  14.712  13.751 -0.1135 -0.1360  0.1307
 1945DOPS   CNO22815  17.482  14.517  11.178  0.0624  0.1853  0.3703
 1945DOPS   PO422816  17.664  14.199  11.335 -0.2806 -0.1954  0.1184
 1945DOPS   GL122817  17.718  13.845  11.552  0.2313  0.0349 -0.1141
 1945DOPS   GL222818  17.979  13.751  11.603 -0.0653 -0.0617  0.0020
 1945DOPS   C1A22819  17.576  13.594  11.969 -0.0431 -0.1017  0.1433
 1945DOPS   D2A22820  17.242  13.439  12.259 -0.0191  0.0738 -0.0224
 1945DOPS   C3A22821  17.139  13.026  12.290  0.1256 -0.0065  0.4513
 1945DOPS   C4A22822  16.833  12.680  12.214 -0.0065 -0.0230 -0.1846
 1945DOPS   C1B22823  18.121  13.765  12.024 -0.2251  0.0175 -0.2940
 1945DOPS   D2B22824  18.377  13.988  12.284 -0.0724  0.2747 -0.4996
 1945DOPS   C3B22825  18.662  14.063  12.678  0.0877 -0.0410 -0.3509
 1945DOPS   C4B22826  18.768  14.076  13.140 -0.2961  0.0144  0.0001
 1946DOPS   CNO22827  21.126  18.469  11.121  0.1306 -0.0680  0.0391
 1946DOPS   PO422828  21.101  18.840  11.063  0.3666  0.0084  0.2199
 1946DOPS   GL122829  21.211  19.146  11.316  0.0067  0.0014  0.2871
 1946DOPS   GL222830  20.968  19.316  11.140  0.3509  0.0756  0.1555
 1946DOPS   C1A22831  21.355  19.598  11.330 -0.2616  0.1924 -0.2778
 1946DOPS   D2A22832  21.462  20.069  11.303 -0.0467  0.4150 -0.0541
 1946DOPS   C3A22833  21.601  20.425  11.586  0.1198  0.4955  0.0963
 1946DOPS   C4A22834  21.859  20.582  11.918 -0.2452 -0.0214 -0.0016
 1946DOPS   C1B22835  20.820  19.609  11.511  0.1420 -0.0460 -0.0146
 1946DOPS   D2B22836  20.480  19.525  11.791  0.5783 -0.2427  0.2638
 1946DOPS   C3B22837  20.372  19.466  12.245 -0.2096 -0.1391 -0.1869
 1946DOPS   C4B22838  20.086  19.336  12.619  0.1186  0.0802  0.2379
 1947DOPE   NH322839  11.374  21.981  12.310  0.0513 -0.2353 -0.2743
 1947DOPE   PO422840  11.213  22.077  12.611 -0.0025  0.0388  0.1089
 1947DOPE   GL122841  11.159  21.915  12.960 -0.1956  0.1581 -0.0926
 1947DOPE   GL222842  10.884  21.894  12.929 -0.0886  0.1923 -0.2956
 1947DOPE   C1A22843  11.133  21.912  13.435 -0.3798 -0.4439 -0.3057
 1947DOPE   D2A22844  11.090  21.990  13.875  0.0431 -0.4060  0.0647
 1947DOPE   C3A22845  11.452  22.147  14.071 -0.0878 -0.0692  0.1540
 1947DOPE   C4A22846  11.746  22.304  14.403  0.3437  0.1723 -0.1468
 1947DOPE   C1B22847  10.700  21.778  13.330 -0.4288  0.0107  0.2017
 1947DOPE   D2B22848  10.735  21.332  13.322  0.2081  0.1458 -0.1651
 1947DOPE   C3B22849  10.417  21.034  13.512  0.0730  0.2599 -0.0148
 1947DOPE   C4B22850  10.130  21.198  13.797 -0.0516  0.0509  0.0257
 1948DOPE   NH322851  15.079  18.220  11.864 -0.0797  0.1317 -0.1934
 1948DOPE   PO422852  15.163  18.004  12.083  0.0233  0.0517  0.0309
 1948DOPE   GL122853  15.392  17.991  12.313 -0.2768 -0.1407  0.1920
 1948DOPE   GL222854  15.363  17.684  12.389  0.2478 -0.0638  0.3740
 1948DOPE   C1A22855  15.833  18.017  12.523  0.1376 -0.0423  0.3159
 1948DOPE   D2A22856  16.209  18.245  12.775 -0.2204 -0.0803  0.2792
 1948DOPE   C3A22857  16.232  18.349  13.223 -0.0881 -0.2549 -0.1338
 1948DOPE   C4A22858  16.496  18.371  13.625 -0.0629  0.2859  0.0563
 1948DOPE   C1B22859  15.700  17.598  12.093 -0.0264  0.1281 -0.4737
 1948DOPE   D2B22860  15.861  17.114  12.140  0.0516 -0.3072  0.1438
 1948DOPE   C3B22861  16.095  17.098  12.528 -0.0694 -0.0375 -0.2298
 1948DOPE   C4B22862  15.971  16.729  12.810  0.0225 -0.1491  0.1063
 1949POSM   NC322863  22.684  11.874  12.637  0.0732  0.0056  0.1495
 1949POSM   PO422864  22.468  11.653  12.361 -0.0042 -0.5084  0.1633
 1949POSM   AM122865  22.320  11.563  12.640 -0.0176 -0.1908  0.2812
 1949POSM   AM222866  22.100  11.573  12.816  0.1652 -0.0045  0.0228
 1949POSM   T1A22867  22.472  11.751  13.066  0.3343 -0.3548  0.0736
 1949POSM   C2A22868  22.454  11.699  13.546  0.0466 -0.1216  0.3977
 1949POSM   C3A22869  22.485  11.461  14.014 -0.1597  0.2488  0.4815
 1949POSM   C1B22870  21.950  11.791  13.018  0.2889  0.0047 -0.0771
 1949POSM   D2B22871  21.951  12.019  13.423  0.0642 -0.1236  0.0044
 1949POSM   C3B22872  21.455  12.108  13.513 -0.3483 -0.0237 -0.0348
 1949POSM   C4B22873  21.243  12.073  13.944 -0.0168  0.0706  0.1010
 1950DOPC   NC322874  19.869  16.321  11.249 -0.0068 -0.2230  0.0847
 1950DOPC   PO422875  19.813  16.121  11.602  0.2088 -0.1649 -0.0679
 1950DOPC   GL122876  19.608  15.989  11.964  0.1470 -0.2067 -0.0321
 1950DOPC   GL222877  19.482  15.717  11.998  0.2418  0.0178 -0.0225
 1950DOPC   C1A22878  19.802  15.984  12.355  0.2043 -0.1206 -0.2018
 1950DOPC   D2A22879  19.619  15.926  12.736  0.1980  0.1368 -0.2892
 1950DOPC   C3A22880  19.318  16.334  12.772  0.2351 -0.3360  0.1396
 1950DOPC   C4A22881  19.214  16.675  13.062 -0.0515  0.2366  0.0774
 1950DOPC   C1B22882  19.464  15.548  12.385  0.0903 -0.3091 -0.0256
 1950DOPC   D2B22883  19.424  15.227  12.732  0.0087 -0.2567  0.2159
 1950DOPC   C3B22884  19.655  14.900  12.995 -0.0090 -0.2277  0.1285
 1950DOPC   C4B22885  19.779  14.516  13.219  0.0616 -0.0487 -0.0408
 1951DOPC   NC322886  14.311  17.615  12.242  0.1139 -0.2417 -0.1062
 1951DOPC   PO422887  14.367  17.368  11.970  0.1293 -0.1460  0.1857
 1951DOPC   GL122888  14.571  17.237  12.338  0.2523  0.1346  0.4504
 1951DOPC   GL222889  14.630  16.963  12.264  0.2658 -0.2844  0.5140
 1951DOPC   C1A22890  14.542  17.382  12.789  0.0437  0.0376 -0.3815
 1951DOPC   D2A22891  14.849  17.182  13.086  0.0550  0.0586 -0.2101
 1951DOPC   C3A22892  15.100  16.832  13.136 -0.1841 -0.4639 -0.1823
 1951DOPC   C4A22893  15.480  16.631  12.895 -0.3122  0.1102  0.2427
 1951DOPC   C1B22894  15.031  16.884  12.540  0.1431 -0.1320  0.0358
 1951DOPC   D2B22895  15.408  17.078  12.754  0.3043  0.1415  0.0862
 1951DOPC   C3B22896  15.695  17.380  12.615 -0.0995  0.3035 -0.4023
 1951DOPC   C4B22897  16.020  17.660  12.733  0.0274 -0.0741 -0.2196
 1952DOPE   NH322898  20.455  23.240  11.974  0.0718  0.4520 -0.2495
 1952DOPE   PO422899  20.356  23.513  12.171 -0.2232 -0.2064  0.0522
 1952DOPE   GL122900  20.333  23.344  12.577 -0.0206 -0.0673  0.0250
 1952DOPE   GL222901  20.526  23.050  12.457  0.0611  0.0451  0.1120
 1952DOPE   C1A22902  20.566  23.129  12.932  0.2115  0.2496  0.4032
 1952DOPE   D2A22903  20.816  23.061  13.377 -0.0266  0.0534 -0.0140
 1952DOPE   C3A22904  20.694  23.449  13.589 -0.4501  0.0970  0.1012
 1952DOPE   C4A22905  20.732  23.563  14.006 -0.4287  0.0521 -0.1570
 1952DOPE   C1B22906  20.719  22.693  12.194 -0.1090 -0.0279 -0.0201
 1952DOPE   D2B22907  20.467  22.336  11.989  0.1236 -0.1278 -0.1319
 1952DOPE   C3B22908  20.412  21.916  12.023 -0.4169  0.1049 -0.4541
 1952DOPE   C4B22909  20.393  21.429  11.909 -0.1202 -0.3449  0.1030
 1953POSM   NC322910  22.818  22.610  11.579 -0.1686 -0.0391  0.0971
 1953POSM   PO422911  22.697  22.826  11.867 -0.0592 -0.2661 -0.0705
 1953POSM   AM122912  22.568  22.789  12.153  0.0956  0.0452  0.0250
 1953POSM   AM222913  22.564  22.784  12.433 -0.1827 -0.1129  0.1665
 1953POSM   T1A22914  22.177  22.503  12.324  0.0044  0.1366  0.0813
 1953POSM   C2A22915  21.885  22.141  12.283  0.0938 -0.2275  0.3573
 1953POSM   C3A22916  21.683  21.984  12.621  0.1689 -0.2688  0.1665
 1953POSM   C1B22917  22.520  22.656  12.752 -0.1029  0.0219  0.4097
 1953POSM   D2B22918  22.579  22.851  13.144 -0.0326 -0.0996  0.2826
 1953POSM   C3B22919  22.385  22.656  13.475 -0.1086 -0.2380  0.0977
 1953POSM   C4B22920  22.001  22.635  13.729 -0.2888 -0.6289  0.1123
 1954DOPE   NH322921  18.240  17.334  11.402  0.0019  0.0010  0.0072
 1954DOPE   PO422922  17.979  17.478  11.529  0.4234  0.1510  0.1417
 1954DOPE   GL122923  17.805  17.489  11.866 -0.2505 -0.2737  0.2090
 1954DOPE   GL222924  17.530  17.654  11.731  0.2302 -0.0689 -0.1552
 1954DOPE   C1A22925  17.770  17.848  12.174  0.1044 -0.0688  0.0812
 1954DOPE   D2A22926  17.408  18.035  12.319 -0.0010 -0.3520 -0.1893
 1954DOPE   C3A22927  17.222  18.046  12.738  0.2408 -0.4002  0.1283
 1954DOPE   C4A22928  17.092  17.841  13.109 -0.1648 -0.0090  0.3123
 1954DOPE   C1B22929  17.306  17.570  12.137  0.0914  0.0279 -0.2393
 1954DOPE   D2B22930  17.387  17.556  12.564 -0.2234  0.0706  0.0486
 1954DOPE   C3B22931  17.708  17.780  12.759  0.5457 -0.1352  0.0804
 1954DOPE   C4B22932  17.999  17.559  13.066 -0.0386  0.2559 -0.0697
 1955DOPC   NC322933  18.659  16.553  11.289  0.0481 -0.0588 -0.4111
 1955DOPC   PO422934  18.547  16.920  11.361  0.0184  0.4331  0.1091
 1955DOPC   GL122935  18.855  17.123  11.541  0.3748 -0.0403 -0.3171
 1955DOPC   GL222936  18.926  16.915  11.736  0.0408 -0.0314 -0.2866
 1955DOPC   C1A22937  19.182  17.415  11.331 -0.3000  0.2274  0.1163
 1955DOPC   D2A22938  19.635  17.554  11.388  0.1003  0.1228 -0.2921
 1955DOPC   C3A22939  19.556  17.662  11.790 -0.0083  0.0137 -0.1907
 1955DOPC   C4A22940  19.706  17.657  12.231 -0.3395  0.3736  0.0632
 1955DOPC   C1B22941  18.932  16.664  12.195 -0.0773 -0.0156 -0.1488
 1955DOPC   D2B22942  18.827  16.669  12.702 -0.4314  0.2182  0.2889
 1955DOPC   C3B22943  18.648  16.466  13.101 -0.1780  0.1359  0.0744
 1955DOPC   C4B22944  18.456  16.474  13.564 -0.2072 -0.1680  0.3311
 1956DOPS   CNO22945  13.303  11.745  11.776 -0.1162 -0.0801  0.4093
 1956DOPS   PO422946  13.005  11.999  11.852 -0.2022 -0.0540  0.0098
 1956DOPS   GL122947  12.942  12.284  12.131  0.0813 -0.0743 -0.1051
 1956DOPS   GL222948  13.073  12.559  12.067 -0.4252  0.2178 -0.1026
 1956DOPS   C1A22949  12.570  12.509  12.184  0.0306  0.3164 -0.1365
 1956DOPS   D2A22950  12.156  12.734  12.233 -0.0826 -0.2194  0.0210
 1956DOPS   C3A22951  12.133  13.007  12.671 -0.2193 -0.2967  0.0217
 1956DOPS   C4A22952  11.668  13.250  12.794 -0.0087  0.0924 -0.2574
 1956DOPS   C1B22953  12.967  12.597  12.519  0.1962  0.1963  0.1098
 1956DOPS   D2B22954  12.851  12.811  12.888  0.1620  0.0707 -0.2017
 1956DOPS   C3B22955  12.954  12.692  13.356  0.1079 -0.1148  0.2301
 1956DOPS   C4B22956  13.125  13.054  13.638  0.3096 -0.1479  0.2837
 1957DOPE   NH322957  15.481  21.468  12.663  0.0411  0.1326 -0.0988
 1957DOPE   PO422958  15.251  21.249  12.559 -0.3206 -0.1355  0.1085
 1957DOPE   GL122959  15.050  21.313  12.830  0.1059 -0.0959 -0.1032
 1957DOPE   GL222960  15.057  21.609  12.967 -0.0144 -0.0855  0.1405
 1957DOPE   C1A22961  14.598  21.317  13.047  0.1383 -0.1938  0.1634
 1957DOPE   D2A22962  14.207  21.173  13.179  0.0376 -0.1254  0.0201
 1957DOPE   C3A22963  14.197  21.060  13.598  0.1224  0.3611  0.0074
 1957DOPE   C4A22964  14.123  21.287  14.036 -0.0450 -0.4362  0.1004
 1957DOPE   C1B22965  15.026  21.450  13.374  0.0762  0.0194 -0.1137
 1957DOPE   D2B22966  15.067  21.360  13.813  0.0320  0.0946 -0.0214
 1957DOPE   C3B22967  15.437  21.228  14.096 -0.1728  0.0841 -0.2369
 1957DOPE   C4B22968  15.675  21.013  14.404  0.1889  0.0782  0.2813
 1958DOPE   NH322969  13.895  16.486  12.012 -0.0026 -0.4549 -0.0635
 1958DOPE   PO422970  14.081  16.319  11.837 -0.0313 -0.0901 -0.1837
 1958DOPE   GL122971  14.195  16.210  12.298 -0.2169  0.2923 -0.1593
 1958DOPE   GL222972  14.123  16.500  12.442  0.1725 -0.1480 -0.2352
 1958DOPE   C1A22973  14.607  16.177  12.585  0.2924 -0.2566  0.1468
 1958DOPE   D2A22974  14.886  16.456  12.855 -0.0885  0.0922  0.2702
 1958DOPE   C3A22975  14.817  16.430  13.308  0.1042  0.0155  0.0710
 1958DOPE   C4A22976  14.385  16.545  13.491 -0.1586 -0.1664  0.1524
 1958DOPE   C1B22977  14.108  16.171  12.775  0.5893  0.1459 -0.1201
 1958DOPE   D2B22978  14.106  15.886  13.125  0.0462  0.0620 -0.1910
 1958DOPE   C3B22979  14.029  15.471  12.931  0.1492  0.1241 -0.2134
 1958DOPE   C4B22980  14.097  15.021  12.864 -0.1495  0.2423 -0.0044
 1959DOPS   CNO22981  22.785  23.322  11.783  0.1106  0.3432 -0.0404
 1959DOPS   PO422982  22.575  23.306  12.089  0.0644 -0.4208 -0.1034
 1959DOPS   GL122983  22.785  23.434  12.435  0.1150 -0.3261  0.4666
 1959DOPS   GL222984  22.629  23.283  12.581 -0.4641 -0.0486 -0.0381
 1959DOPS   C1A22985  22.860  23.784  12.685 -0.1527  0.0037 -0.1935
 1959DOPS   D2A22986  23.117  23.835  13.058  0.0325  0.1965 -0.0239
 1959DOPS   C3A22987  23.002  23.504  13.359 -0.3251 -0.3251 -0.3503
 1959DOPS   C4A22988  22.677  23.238  13.573  0.0725 -0.0461 -0.1793
 1959DOPS   C1B22989  22.695  23.383  12.991 -0.1250 -0.0192  0.0359
 1959DOPS   D2B22990  22.615  23.786  13.145 -0.0675  0.1979 -0.0119
 1959DOPS   C3B22991  22.734  23.799  13.618 -0.1443  0.2984 -0.0055
 1959DOPS   C4B22992  23.128  23.812  13.735 -0.0587 -0.0111  0.1834
 1960DOPE   NH322993  23.469  14.275  11.737 -0.0618 -0.0695  0.1068
 1960DOPE   PO422994  23.370  14.353  12.040 -0.1534 -0.1350 -0.0553
 1960DOPE   GL122995  23.122  14.228  12.305 -0.1397  0.0898  0.0721
 1960DOPE   GL222996  23.321  14.044  12.400 -0.0284  0.0200  0.2007
 1960DOPE   C1A22997  22.667  14.169  12.366 -0.1369 -0.1086 -0.0543
 1960DOPE   D2A22998  22.351  13.916  12.176  0.2538  0.0942  0.0263
 1960DOPE   C3A22999  21.928  13.898  12.181  0.2503 -0.0276  0.3280
 1960DOPE   C4A23000  21.456  13.910  12.033 -0.0857  0.0326  0.0102
 1960DOPE   C1B23001  23.376  13.634  12.572  0.2461  0.1256 -0.0475
 1960DOPE   D2B23002  23.399  13.148  12.735  0.2723 -0.1179  0.2661
 1960DOPE   C3B23003  23.715  12.831  12.926  0.1070  0.0521  0.0780
 1960DOPE   C4B23004  23.671  12.484  13.235  0.1732  0.1371  0.0720
 1961DOPS   CNO23005  17.643  11.523  11.739 -0.0751 -0.0977  0.1265
 1961DOPS   PO423006  17.391  11.345  11.548 -0.1068 -0.2588 -0.3058
 1961DOPS   GL123007  17.103  11.529  11.842  0.2348 -0.3381 -0.3062
 1961DOPS   GL223008  17.242  11.516  12.116  0.1822 -0.0284 -0.0260
 1961DOPS   C1A23009  16.861  11.887  12.037 -0.1121 -0.1200  0.1792
 1961DOPS   D2A23010  16.591  12.129  12.359  0.0523  0.0153  0.2778
 1961DOPS   C3A23011  16.301  12.423  12.419  0.2694 -0.1747  0.3069
 1961DOPS   C4A23012  16.040  12.696  12.703 -0.3216  0.1860 -0.1672
 1961DOPS   C1B23013  17.101  11.751  12.503 -0.1044 -0.0905 -0.1460
 1961DOPS   D2B23014  17.198  11.781  13.003  0.2894 -0.1721  0.0296
 1961DOPS   C3B23015  17.166  11.652  13.387  0.3281 -0.0773 -0.2849
 1961DOPS   C4B23016  17.096  11.451  13.779  0.0645 -0.0860  0.1135
 1962DOPS   CNO23017  22.400  11.812  11.831  0.3419 -0.2707 -0.1234
 1962DOPS   PO423018  22.227  12.015  12.114  0.0301  0.0169 -0.0204
 1962DOPS   GL123019  22.309  12.218  12.454 -0.3412  0.0197  0.3388
 1962DOPS   GL223020  22.130  12.066  12.652  0.1154  0.1604 -0.1382
 1962DOPS   C1A23021  22.655  12.370  12.691 -0.2268  0.0344 -0.0186
 1962DOPS   D2A23022  22.795  12.424  13.138  0.0165  0.3796  0.0595
 1962DOPS   C3A23023  22.478  12.344  13.475 -0.1127  0.0018 -0.1136
 1962DOPS   C4A23024  22.122  12.448  13.681  0.1556 -0.2680 -0.0993
 1962DOPS   C1B23025  22.267  12.333  12.956  0.3141  0.0322  0.1021
 1962DOPS   D2B23026  22.342  12.741  13.145 -0.1702 -0.0271  0.1153
 1962DOPS   C3B23027  22.151  12.983  13.505 -0.2118 -0.0141  0.0603
 1962DOPS   C4B23028  21.946  13.359  13.761  0.0863  0.3246  0.0148
 1963DOPC   NC323029  16.164  13.812  11.454 -0.1722  0.1048  0.0022
 1963DOPC   PO423030  15.848  13.598  11.341  0.2288  0.0415 -0.0960
 1963DOPC   GL123031  15.675  13.634  11.735 -0.0169 -0.2241  0.0137
 1963DOPC   GL223032  15.776  13.433  11.827 -0.2669  0.1290 -0.0586
 1963DOPC   C1A23033  15.355  13.815  12.035 -0.0114  0.0573  0.2468
 1963DOPC   D2A23034  14.906  13.838  12.199 -0.2690  0.1084 -0.3468
 1963DOPC   C3A23035  14.496  14.004  12.043  0.0618  0.3579 -0.2058
 1963DOPC   C4A23036  14.338  14.438  11.805  0.1664  0.2459 -0.2386
 1963DOPC   C1B23037  15.438  13.245  12.083 -0.1472  0.1661 -0.0546
 1963DOPC   D2B23038  15.268  12.973  12.385  0.1091  0.0521 -0.0444
 1963DOPC   C3B23039  15.544  12.978  12.758 -0.0644 -0.2264  0.0531
 1963DOPC   C4B23040  15.856  12.962  13.123 -0.0426 -0.0264  0.1996
 1964DOPC   NC323041  21.345  18.490  11.827 -0.0909  0.3268  0.1597
 1964DOPC   PO423042  21.397  18.742  11.525 -0.0210  0.0100  0.1969
 1964DOPC   GL123043  21.555  19.051  11.684  0.6238  0.2095 -0.2073
 1964DOPC   GL223044  21.302  19.215  11.762  0.0136  0.0208  0.1256
 1964DOPC   C1A23045  21.695  19.104  12.113 -0.1246  0.0998  0.0550
 1964DOPC   D2A23046  21.875  19.149  12.503  0.1441  0.1828  0.0867
 1964DOPC   C3A23047  21.669  19.193  12.884  0.1455  0.0734  0.0595
 1964DOPC   C4A23048  21.592  19.395  13.253 -0.1416  0.0148  0.0257
 1964DOPC   C1B23049  21.290  19.371  12.214 -0.0332  0.0474 -0.0542
 1964DOPC   D2B23050  21.612  19.538  12.449  0.0578 -0.1619  0.2800
 1964DOPC   C3B23051  21.632  19.776  12.827  0.1943  0.0349 -0.0859
 1964DOPC   C4B23052  21.396  19.916  13.233  0.0379  0.0445 -0.0643
 1965DOPE   NH323053  17.761  15.189  11.238 -0.0390  0.1969 -0.1926
 1965DOPE   PO423054  17.666  15.218  11.523  0.1242  0.0491  0.3479
 1965DOPE   GL123055  17.704  15.269  11.946 -0.0834 -0.1115 -0.0847
 1965DOPE   GL223056  17.960  15.369  11.973  0.0260  0.0115  0.0907
 1965DOPE   C1A23057  17.723  15.103  12.394  0.1411  0.2675 -0.4466
 1965DOPE   D2A23058  18.080  14.840  12.561  0.2646  0.2956  0.2009
 1965DOPE   C3A23059  18.490  15.047  12.771  0.0732  0.1490 -0.0066
 1965DOPE   C4A23060  18.902  15.271  12.680  0.0317  0.4478 -0.0871
 1965DOPE   C1B23061  17.809  15.652  12.244  0.0069  0.0916 -0.0586
 1965DOPE   D2B23062  17.387  15.725  12.381 -0.1559  0.0093  0.0496
 1965DOPE   C3B23063  17.362  16.070  12.711  0.3472  0.2535  0.2662
 1965DOPE   C4B23064  17.195  16.452  12.911  0.0324  0.0675 -0.0078
 1966DOPC   NC323065  21.321  23.126  12.186  0.1198 -0.0596 -0.0403
 1966DOPC   PO423066  21.537  23.414  12.371 -0.1766 -0.3255 -0.2257
 1966DOPC   GL123067  21.585  23.194  12.671  0.1609 -0.1593 -0.1389
 1966DOPC   GL223068  21.779  22.929  12.508  0.0053 -0.1114 -0.0042
 1966DOPC   C1A23069  21.544  22.936  13.036 -0.1845 -0.0423  0.0852
 1966DOPC   D2A23070  21.321  23.045  13.360  0.0332 -0.1111 -0.0254
 1966DOPC   C3A23071  21.546  23.019  13.724  0.0441  0.1244  0.0080
 1966DOPC   C4A23072  21.850  22.942  14.084  0.2802  0.0004 -0.3048
 1966DOPC   C1B23073  21.844  22.551  12.747  0.0323  0.0658  0.0954
 1966DOPC   D2B23074  22.171  22.259  12.831  0.1070  0.0882  0.1001
 1966DOPC   C3B23075  22.321  22.053  13.192  0.3864  0.1589 -0.0271
 1966DOPC   C4B23076  22.380  21.829  13.631  0.2319 -0.3747  0.1968
 1967POSM   NC323077  16.958  14.604  12.097 -0.1691  0.2018  0.1216
 1967POSM   PO423078  17.020  14.333  11.806  0.2458 -0.0456  0.1767
 1967POSM   AM123079  17.015  14.144  12.070 -0.2598  0.0488 -0.1183
 1967POSM   AM223080  17.266  14.024  12.167  0.2280  0.0783  0.1176
 1967POSM   T1A23081  16.962  13.865  12.501 -0.1444 -0.0855  0.0173
 1967POSM   C2A23082  16.786  13.742  12.920 -0.0709 -0.0218 -0.0203
 1967POSM   C3A23083  16.812  13.363  13.215  0.0274  0.1267 -0.3918
 1967POSM   C1B23084  17.447  13.884  12.430 -0.1505 -0.0314 -0.0240
 1967POSM   D2B23085  17.585  13.754  12.819  0.2653  0.0876  0.2535
 1967POSM   C3B23086  17.321  13.806  13.132 -0.0435  0.0113 -0.1619
 1967POSM   C4B23087  16.987  14.031  13.325 -0.0774 -0.0952  0.2363
 1968DOPC   NC323088  14.758  20.239  12.615 -0.0363  0.0193  0.1512
 1968DOPC   PO423089  14.580  20.564  12.430  0.1947  0.0548  0.0597
 1968DOPC   GL123090  14.233  20.222  12.525 -0.1999  0.1977  0.0379
 1968DOPC   GL223091  14.288  20.129  12.826 -0.2629 -0.1220 -0.0421
 1968DOPC   C1A23092  14.064  19.777  12.574 -0.1587  0.3660 -0.0621
 1968DOPC   D2A23093  13.883  19.316  12.695 -0.0159 -0.0652  0.0060
 1968DOPC   C3A23094  13.722  19.338  13.131 -0.1847  0.0651 -0.0361
 1968DOPC   C4A23095  13.911  19.171  13.529  0.0309 -0.1819  0.1906
 1968DOPC   C1B23096  14.671  20.189  13.099 -0.1629  0.1643 -0.0453
 1968DOPC   D2B23097  14.916  20.065  13.423 -0.0003  0.0608 -0.0314
 1968DOPC   C3B23098  15.162  19.678  13.356 -0.1436  0.2616  0.4269
 1968DOPC   C4B23099  15.289  19.402  12.962 -0.0408 -0.1035  0.2530
 1969DOPC   NC323100  16.742  19.980  12.051 -0.0489  0.1542  0.3340
 1969DOPC   PO423101  17.043  20.172  11.912  0.0437 -0.0457  0.3190
 1969DOPC   GL123102  17.255  20.131  12.271 -0.1631  0.1978 -0.5740
 1969DOPC   GL223103  17.078  20.259  12.435 -0.3141 -0.0757  0.1154
 1969DOPC   C1A23104  17.468  20.209  12.704 -0.1476  0.1686  0.1360
 1969DOPC   D2A23105  17.701  20.212  13.082  0.1918  0.0664 -0.2123
 1969DOPC   C3A23106  18.133  20.269  13.247  0.2352 -0.3382 -0.1158
 1969DOPC   C4A23107  18.456  20.507  12.987 -0.0438  0.0829 -0.1130
 1969DOPC   C1B23108  17.029  19.990  12.775  0.1145 -0.2390  0.0912
 1969DOPC   D2B23109  16.898  19.561  12.846  0.0557 -0.0467 -0.2525
 1969DOPC   C3B23110  17.215  19.442  13.181  0.0783 -0.1067 -0.0762
 1969DOPC   C4B23111  17.296  19.193  13.546  0.2230  0.3046 -0.3725
 1970DOPE   NH323112  14.791  21.163  12.473  0.0033  0.2181 -0.1089
 1970DOPE   PO423113  14.779  21.422  12.259 -0.1371 -0.2837  0.0311
 1970DOPE   GL123114  14.738  21.697  12.569 -0.0916 -0.1237 -0.1506
 1970DOPE   GL223115  14.646  21.959  12.427  0.3076 -0.1888 -0.2344
 1970DOPE   C1A23116  14.568  21.807  12.968  0.0141 -0.1624  0.0380
 1970DOPE   D2A23117  14.448  21.735  13.401  0.0497  0.4499 -0.2288
 1970DOPE   C3A23118  14.530  21.473  13.795 -0.0143 -0.1106  0.0514
 1970DOPE   C4A23119  14.616  21.203  14.159  0.1238 -0.0683  0.0316
 1970DOPE   C1B23120  14.390  22.189  12.748  0.2075 -0.0758  0.0136
 1970DOPE   D2B23121  14.137  22.115  13.151  0.1751  0.1135 -0.0058
 1970DOPE   C3B23122  14.196  22.110  13.608  0.4799 -0.1385 -0.4061
 1970DOPE   C4B23123  14.420  21.974  13.957  0.2109  0.1506  0.0759
 1971DOPE   NH323124  13.418  23.168  12.496  0.2077  0.2037 -0.0688
 1971DOPE   PO423125  13.446  22.862  12.462 -0.0433  0.1204  0.2196
 1971DOPE   GL123126  13.507  22.680  12.754  0.0887  0.0536 -0.0302
 1971DOPE   GL223127  13.280  22.788  12.947  0.0004 -0.0152  0.1546
 1971DOPE   C1A23128  13.640  22.284  12.961  0.0889  0.0575  0.1699
 1971DOPE   D2A23129  13.604  21.922  13.300 -0.1288 -0.2912 -0.0138
 1971DOPE   C3A23130  13.473  21.842  13.759 -0.0123  0.0112  0.3629
 1971DOPE   C4A23131  13.646  21.712  14.190 -0.2820  0.1467 -0.2452
 1971DOPE   C1B23132  13.024  22.791  13.327 -0.0577  0.0560  0.1301
 1971DOPE   D2B23133  12.717  22.616  13.637  0.1490  0.0471  0.1065
 1971DOPE   C3B23134  12.535  22.474  14.041  0.2165 -0.2033 -0.5335
 1971DOPE   C4B23135  12.214  22.538  14.308 -0.2160  0.1249 -0.0196
 1972DOPC   NC323136  10.285  17.472  11.903  0.1330 -0.1441  0.3385
 1972DOPC   PO423137  10.185  17.854  11.986 -0.1311  0.0137  0.0476
 1972DOPC   GL123138  10.487  18.086  12.075 -0.4573 -0.1382  0.5822
 1972DOPC   GL223139  10.528  18.115  12.426 -0.1327 -0.0731 -0.1301
 1972DOPC   C1A23140  10.967  18.127  12.069  0.1885  0.2053  0.1732
 1972DOPC   D2A23141  11.129  18.547  12.245 -0.0348 -0.1607  0.2016
 1972DOPC   C3A23142  11.238  18.604  12.726  0.0877 -0.1405 -0.0153
 1972DOPC   C4A23143  11.059  18.731  13.111 -0.0882 -0.0707  0.0159
 1972DOPC   C1B23144  10.647  17.932  12.859 -0.0134 -0.1514  0.4780
 1972DOPC   D2B23145  10.576  17.666  13.168  0.0062  0.1193 -0.0813
 1972DOPC   C3B23146  10.482  17.255  13.435 -0.0374  0.2433 -0.0963
 1972DOPC   C4B23147  10.726  16.918  13.621  0.1277 -0.1886 -0.0796
 1973DOPE   NH323148  21.079  17.075  11.645  0.1305 -0.1809  0.1249
 1973DOPE   PO423149  21.199  17.421  11.709 -0.3688 -0.6210  0.2041
 1973DOPE   GL123150  21.197  17.537  12.103  0.1255 -0.1455 -0.1918
 1973DOPE   GL223151  21.294  17.338  12.257  0.1974  0.3878 -0.1103
 1973DOPE   C1A23152  21.480  17.812  12.332  0.1145  0.0808  0.2257
 1973DOPE   D2A23153  21.874  18.104  12.389  0.0847  0.0469  0.0334
 1973DOPE   C3A23154  22.037  18.294  12.757 -0.0036 -0.0124  0.0207
 1973DOPE   C4A23155  22.272  18.259  13.145  0.2141 -0.1965 -0.3701
 1973DOPE   C1B23156  21.735  17.411  12.378  0.2246 -0.2092 -0.0992
 1973DOPE   D2B23157  22.089  17.656  12.531 -0.0325 -0.0582  0.1367
 1973DOPE   C3B23158  21.806  17.792  12.871  0.0157 -0.0177  0.1018
 1973DOPE   C4B23159  21.806  18.070  13.260 -0.0806 -0.0028  0.2323
 1974DOPS   CNO23160  16.992  22.534  12.247  0.2161  0.2956 -0.0739
 1974DOPS   PO423161  16.956  22.206  12.061  0.0064 -0.1601 -0.1841
 1974DOPS   GL123162  17.345  22.086  12.134  0.0296 -0.0689  0.3915
 1974DOPS   GL223163  17.290  21.834  12.226 -0.0744  0.1820 -0.0499
 1974DOPS   C1A23164  17.783  21.930  12.085  0.0440  0.0573 -0.0765
 1974DOPS   D2A23165  18.199  21.834  12.216 -0.0343  0.2150  0.2019
 1974DOPS   C3A23166  18.219  21.593  12.628 -0.2026  0.2066  0.0459
 1974DOPS   C4A23167  18.001  21.689  13.048  0.2261 -0.0727  0.0895
 1974DOPS   C1B23168  17.441  22.179  12.517 -0.4248 -0.0083 -0.0590
 1974DOPS   D2B23169  17.540  22.236  12.948  0.1648  0.1616  0.2549
 1974DOPS   C3B23170  17.963  22.344  13.138  0.2441 -0.2221  0.1261
 1974DOPS   C4B23171  18.219  22.052  13.411  0.0253  0.3207 -0.1693
 1975DOPC   NC323172  14.888  22.730  12.224  0.1673 -0.1235  0.2287
 1975DOPC   PO423173  14.933  22.351  12.320  0.2566 -0.1405 -0.1697
 1975DOPC   GL123174  14.769  22.426  12.659 -0.0016 -0.1248 -0.1407
 1975DOPC   GL223175  14.711  22.673  12.727  0.0367 -0.0401 -0.2070
 1975DOPC   C1A23176  14.728  22.295  13.101 -0.1227 -0.0523 -0.0621
 1975DOPC   D2A23177  14.878  21.960  13.443 -0.2322  0.0151  0.0219
 1975DOPC   C3A23178  14.974  21.822  13.845 -0.3114 -0.4955  0.1053
 1975DOPC   C4A23179  14.880  21.609  14.270 -0.0345  0.0574  0.0450
 1975DOPC   C1B23180  14.792  22.905  13.063 -0.1090  0.0943 -0.1069
 1975DOPC   D2B23181  14.756  22.911  13.525  0.1931  0.0537  0.1266
 1975DOPC   C3B23182  14.620  22.935  13.935 -0.1537  0.5138  0.1053
 1975DOPC   C4B23183  14.456  22.924  14.331 -0.3604 -0.0244 -0.0101
 1976POSM   NC323184  21.091  18.003  11.078 -0.1265 -0.0038 -0.1179
 1976POSM   PO423185  20.701  18.087  11.174  0.0173  0.1063  0.3505
 1976POSM   AM123186  20.494  18.241  11.327 -0.1791  0.1410  0.1492
 1976POSM   AM223187  20.508  18.293  11.644  0.0262 -0.0721  0.0463
 1976POSM   T1A23188  20.083  18.487  11.526 -0.3676  0.0348 -0.2719
 1976POSM   C2A23189  19.926  18.633  11.948 -0.1267  0.1188 -0.0468
 1976POSM   C3A23190  20.077  18.976  12.289 -0.1767  0.3153  0.1714
 1976POSM   C1B23191  20.331  18.388  11.956  0.1116 -0.2429  0.0389
 1976POSM   D2B23192  20.182  18.450  12.408 -0.2759  0.0820  0.1853
 1976POSM   C3B23193  19.985  18.749  12.713 -0.1040  0.2047 -0.2608
 1976POSM   C4B23194  19.699  19.093  12.872  0.2578  0.0586 -0.2013
 1977DOPC   NC323195  12.442  18.785  11.740 -0.4189 -0.0240  0.0364
 1977DOPC   PO423196  12.808  18.794  11.936  0.2193 -0.1817  0.0801
 1977DOPC   GL123197  12.706  18.571  12.241 -0.3870  0.2847 -0.1882
 1977DOPC   GL223198  12.543  18.400  12.098 -0.0951  0.0938  0.2776
 1977DOPC   C1A23199  12.544  18.567  12.654 -0.2188 -0.0244 -0.0214
 1977DOPC   D2A23200  12.197  18.441  12.879  0.0857  0.0501  0.0106
 1977DOPC   C3A23201  11.897  18.231  12.553  0.1416  0.3054  0.2659
 1977DOPC   C4A23202  11.501  18.097  12.300  0.2392  0.0690  0.2271
 1977DOPC   C1B23203  12.503  18.096  12.478 -0.0341 -0.3026  0.0448
 1977DOPC   D2B23204  12.535  18.127  12.961  0.0608  0.1267 -0.0533
 1977DOPC   C3B23205  12.469  17.958  13.403 -0.3917  0.0886  0.4988
 1977DOPC   C4B23206  12.349  17.952  13.865  0.0459  0.0242 -0.1429
 1978POSM   NC323207  16.268  19.935  11.859  0.0404 -0.0224  0.0871
 1978POSM   PO423208  16.316  19.752  12.190 -0.0175 -0.0793 -0.1330
 1978POSM   AM123209  16.356  19.817  12.490 -0.0497 -0.1931 -0.0970
 1978POSM   AM223210  16.498  20.067  12.604 -0.0853 -0.1479  0.5041
 1978POSM   T1A23211  16.378  19.513  12.920  0.2112 -0.0527  0.1855
 1978POSM   C2A23212  16.404  19.139  13.123 -0.1125  0.1749 -0.0058
 1978POSM   C3A23213  16.077  18.840  13.226 -0.2568 -0.0271  0.2380
 1978POSM   C1B23214  16.460  19.995  12.953 -0.0644 -0.1572 -0.0239
 1978POSM   D2B23215  16.303  19.780  13.330  0.0802 -0.1009  0.1162
 1978POSM   C3B23216  16.262  19.374  13.542  0.2058  0.1016 -0.1405
 1978POSM   C4B23217  16.372  18.913  13.629 -0.1738  0.0771  0.0827
 1979DOPE   NH323218  13.561  17.882  12.023  0.1037 -0.0901  0.0053
 1979DOPE   PO423219  13.477  18.144  12.181 -0.2288 -0.0406  0.2572
 1979DOPE   GL123220  13.727  18.190  12.484  0.1166  0.3025  0.0104
 1979DOPE   GL223221  13.711  17.941  12.699 -0.1372 -0.0831  0.0047
 1979DOPE   C1A23222  13.644  18.428  12.823  0.1864  0.2970  0.0558
 1979DOPE   D2A23223  13.368  18.700  13.163 -0.1166 -0.2425 -0.0722
 1979DOPE   C3A23224  13.002  18.451  13.287  0.1086  0.2129 -0.0336
 1979DOPE   C4A23225  12.541  18.500  13.331  0.1110 -0.0487 -0.0165
 1979DOPE   C1B23226  13.780  17.813  13.134  0.1981 -0.1507  0.1122
 1979DOPE   D2B23227  13.801  17.952  13.550 -0.1597 -0.0401  0.1161
 1979DOPE   C3B23228  14.048  18.345  13.753 -0.3615 -0.1212 -0.0499
 1979DOPE   C4B23229  14.245  18.745  13.725  0.2857 -0.1128  0.0572
 1980DOPE   NH323230  21.046  17.877  11.552 -0.1655 -0.4072 -0.0923
 1980DOPE   PO423231  21.323  17.917  11.749  0.0132 -0.1264 -0.0925
 1980DOPE   GL123232  21.063  17.985  12.011 -0.1607  0.3209 -0.0604
 1980DOPE   GL223233  20.861  18.134  11.960  0.0285 -0.0082  0.1812
 1980DOPE   C1A23234  20.938  17.759  12.408  0.1646 -0.0100 -0.1281
 1980DOPE   D2A23235  20.657  17.911  12.788 -0.0155  0.1160 -0.1965
 1980DOPE   C3A23236  20.421  18.243  12.933  0.2970  0.2396 -0.0781
 1980DOPE   C4A23237  20.447  18.725  12.884  0.1597 -0.0194 -0.0285
 1980DOPE   C1B23238  20.680  18.227  12.388 -0.2359 -0.2399  0.0652
 1980DOPE   D2B23239  20.843  18.446  12.751  0.2475  0.1231  0.0128
 1980DOPE   C3B23240  21.322  18.561  12.772 -0.2306 -0.1545 -0.3382
 1980DOPE   C4B23241  21.735  18.746  12.720 -0.2265 -0.2454  0.0407
 1981DOPS   CNO23242  18.382  11.294  12.290 -0.0028 -0.0025  0.1876
 1981DOPS   PO423243  18.577  11.433  12.570 -0.1234 -0.1040 -0.1636
 1981DOPS   GL123244  18.428  11.285  12.874 -0.0478  0.2617  0.6852
 1981DOPS   GL223245  18.331  11.436  13.047  0.2452  0.4776  0.0113
 1981DOPS   C1A23246  18.493  10.887  13.173  0.1305 -0.2708 -0.0842
 1981DOPS   D2A23247  18.552  10.621  13.544  0.0654 -0.0998  0.0335
 1981DOPS   C3A23248  18.644  10.252  13.700 -0.1152 -0.2735  0.2050
 1981DOPS   C4A23249  18.593   9.796  13.608  0.2986  0.0141  0.1592
 1981DOPS   C1B23250  18.606  11.421  13.326  0.2058  0.0429  0.1217
 1981DOPS   D2B23251  18.797  11.461  13.733 -0.0261  0.2337 -0.3801
 1981DOPS   C3B23252  18.743  11.859  13.999  0.3327  0.0024 -0.2942
 1981DOPS   C4B23253  18.774  12.090  14.430  0.0220  0.3300 -0.1356
 1982DOPE   NH323254  12.590  11.362  12.449 -0.1479  0.1327  0.0512
 1982DOPE   PO423255  12.496  11.638  12.601 -0.3282  0.3179 -0.3018
 1982DOPE   GL123256  12.620  11.973  12.823  0.2366 -0.0158  0.1204
 1982DOPE   GL223257  12.632  12.163  12.622  0.2321  0.3229 -0.0601
 1982DOPE   C1A23258  12.618  12.387  13.082 -0.0301 -0.2992  0.0658
 1982DOPE   D2A23259  12.338  12.641  13.349 -0.3322  0.1200 -0.0311
 1982DOPE   C3A23260  12.481  12.975  13.612 -0.2780  0.1171  0.3614
 1982DOPE   C4A23261  12.675  13.372  13.754 -0.2678 -0.1755  0.2456
 1982DOPE   C1B23262  12.426  12.541  12.630  0.1512  0.1713 -0.0915
 1982DOPE   D2B23263  12.604  12.908  12.430  0.5294  0.0820 -0.0847
 1982DOPE   C3B23264  12.679  12.932  11.991  0.4103 -0.3201  0.2721
 1982DOPE   C4B23265  12.786  12.545  11.691  0.1657 -0.5267  0.0649
 1983DOPE   NH323266  21.119  12.126  11.856  0.2459  0.1044 -0.1344
 1983DOPE   PO423267  20.838  12.125  12.044  0.1190 -0.0458  0.0103
 1983DOPE   GL123268  20.760  12.245  12.389 -0.0162 -0.2472  0.0139
 1983DOPE   GL223269  20.504  12.319  12.419  0.0903  0.2588 -0.2745
 1983DOPE   C1A23270  20.906  12.617  12.613 -0.1248  0.3118  0.0656
 1983DOPE   D2A23271  20.817  12.818  13.076 -0.3204  0.0581 -0.1157
 1983DOPE   C3A23272  21.067  12.890  13.445 -0.2604  0.4343  0.0968
 1983DOPE   C4A23273  21.219  12.813  13.837 -0.1709  0.1094  0.0067
 1983DOPE   C1B23274  20.460  12.291  12.871  0.1061 -0.0292 -0.3247
 1983DOPE   D2B23275  20.265  12.115  13.228  0.0133 -0.4490  0.0641
 1983DOPE   C3B23276  20.036  12.494  13.422 -0.0461  0.1793 -0.2296
 1983DOPE   C4B23277  19.748  12.628  13.745  0.1533  0.0163 -0.1277
 1984POSM   NC323278  23.050  20.253  11.784 -0.2153 -0.2495 -0.1060
 1984POSM   PO423279  23.223  20.605  11.913 -0.0107  0.1385 -0.0834
 1984POSM   AM123280  22.914  20.733  11.992 -0.1361 -0.2920 -0.4367
 1984POSM   AM223281  22.738  20.967  11.938  0.0701  0.2006 -0.2355
 1984POSM   T1A23282  22.470  20.664  12.289 -0.1369 -0.1345 -0.3690
 1984POSM   C2A23283  22.006  20.668  12.455  0.2517  0.1757  0.3307
 1984POSM   C3A23284  21.618  20.533  12.307  0.2097 -0.0018  0.5099
 1984POSM   C1B23285  22.704  21.191  12.178 -0.2395  0.1420 -0.1188
 1984POSM   D2B23286  22.401  21.317  12.491 -0.0791  0.0192 -0.1266
 1984POSM   C3B23287  22.413  21.333  12.966  0.2750  0.2083  0.2305
 1984POSM   C4B23288  22.596  21.566  13.278  0.1567 -0.1701  0.1557
 1985DOPC   NC323289  22.776  19.402  11.867  0.1943  0.1150 -0.1479
 1985DOPC   PO423290  22.966  19.683  11.665  0.1842  0.3189 -0.1482
 1985DOPC   GL123291  22.654  19.872  11.958 -0.2824 -0.1342 -0.0017
 1985DOPC   GL223292  22.935  19.798  12.171 -0.0201  0.1661  0.3167
 1985DOPC   C1A23293  22.427  19.635  12.265 -0.2717  0.0170  0.1877
 1985DOPC   D2A23294  22.159  19.677  12.601  0.0516  0.2246 -0.0339
 1985DOPC   C3A23295  22.337  19.473  13.024 -0.2354 -0.2606 -0.0083
 1985DOPC   C4A23296  22.586  19.652  13.409  0.1501 -0.4372  0.3953
 1985DOPC   C1B23297  22.792  20.244  12.265  0.4050  0.1539  0.2174
 1985DOPC   D2B23298  22.946  20.653  12.427  0.0541  0.1278 -0.2739
 1985DOPC   C3B23299  23.212  20.736  12.857 -0.1722  0.1331  0.1093
 1985DOPC   C4B23300  23.194  20.676  13.331  0.0697  0.0441  0.0065
 1986DOPC   NC323301  17.111  11.042  11.889  0.1576 -0.2348 -0.0387
 1986DOPC   PO423302  16.835  11.112  12.154  0.1323  0.2334  0.0778
 1986DOPC   GL123303  16.732  11.501  12.106  0.0966  0.2489 -0.0651
 1986DOPC   GL223304  16.663  11.473  11.812  0.1956  0.2201  0.0081
 1986DOPC   C1A23305  16.581  11.673  12.561  0.2535 -0.0708 -0.0352
 1986DOPC   D2A23306  16.610  11.804  12.963 -0.1655  0.2954 -0.2619
 1986DOPC   C3A23307  16.869  12.114  13.152 -0.1400 -0.2617  0.1241
 1986DOPC   C4A23308  16.959  12.473  13.524 -0.1845  0.0190 -0.2656
 1986DOPC   C1B23309  16.270  11.726  11.621 -0.0571 -0.0613  0.1412
 1986DOPC   D2B23310  15.967  12.031  11.790 -0.1910 -0.0846 -0.1382
 1986DOPC   C3B23311  15.565  11.971  11.989  0.0209  0.2186  0.0738
 1986DOPC   C4B23312  15.482  11.952  12.463 -0.0835  0.1866  0.1105
 1987DOPE   NH323313  14.326  11.969  11.668  0.0736  0.0235  0.0579
 1987DOPE   PO423314  14.473  12.241  11.800 -0.1105 -0.3162 -0.1415
 1987DOPE   GL123315  14.548  11.857  12.077 -0.3591 -0.2671 -0.0393
 1987DOPE   GL223316  14.354  11.872  12.302 -0.1031 -0.3028 -0.2146
 1987DOPE   C1A23317  14.848  12.010  12.412  0.2080 -0.2508  0.0031
 1987DOPE   D2A23318  14.952  12.310  12.734  0.0991  0.0134  0.0651
 1987DOPE   C3A23319  15.042  12.036  13.148  0.0108 -0.3092 -0.2403
 1987DOPE   C4A23320  15.160  11.849  13.550 -0.3825  0.0271  0.1069
 1987DOPE   C1B23321  14.460  12.327  12.481 -0.0815 -0.2383  0.0312
 1987DOPE   D2B23322  14.452  12.749  12.717  0.2847  0.4441  0.1351
 1987DOPE   C3B23323  14.883  12.789  12.888 -0.1629 -0.1249 -0.1415
 1987DOPE   C4B23324  15.241  12.902  13.134  0.0927  0.1111  0.2103
 1988DOPE   NH323325  19.290  16.008  11.597  0.1289  0.0226 -0.0060
 1988DOPE   PO423326  19.448  15.796  11.488 -0.2070  0.0249 -0.0916
 1988DOPE   GL123327  19.648  15.464  11.641  0.1720 -0.0695 -0.0436
 1988DOPE   GL223328  19.898  15.554  11.674  0.0990 -0.1245  0.0652
 1988DOPE   C1A23329  19.518  15.149  11.982 -0.1961  0.1030 -0.1668
 1988DOPE   D2A23330  19.351  14.875  12.354 -0.0131 -0.2620 -0.0518
 1988DOPE   C3A23331  19.405  14.601  12.664  0.1803  0.0818  0.2819
 1988DOPE   C4A23332  19.198  14.276  12.877  0.0152 -0.0045  0.1557
 1988DOPE   C1B23333  19.936  15.325  12.123 -0.1255 -0.4180  0.2745
 1988DOPE   D2B23334  19.964  15.020  12.469  0.0905  0.0747  0.2862
 1988DOPE   C3B23335  20.299  15.217  12.674 -0.0628  0.2141 -0.1260
 1988DOPE   C4B23336  20.347  15.649  12.852 -0.0928  0.1078 -0.3618
 1989POSM   NC323337  17.819  11.923  11.809 -0.1877  0.1437 -0.0267
 1989POSM   PO423338  17.479  11.965  12.001 -0.1966 -0.3357 -0.1896
 1989POSM   AM123339  17.461  12.149  12.273  0.1089  0.0546 -0.4114
 1989POSM   AM223340  17.426  12.212  12.555 -0.1231  0.1675 -0.2597
 1989POSM   T1A23341  17.500  12.656  12.389  0.0417  0.1765  0.4544
 1989POSM   C2A23342  17.811  12.928  12.571 -0.2022  0.1017  0.2622
 1989POSM   C3A23343  18.139  13.078  12.794  0.0898 -0.0561  0.1670
 1989POSM   C1B23344  17.122  12.284  12.699 -0.1117 -0.2161  0.1332
 1989POSM   D2B23345  16.738  12.464  12.754 -0.0843 -0.3254  0.2411
 1989POSM   C3B23346  16.366  12.273  12.910 -0.3311 -0.0772 -0.1220
 1989POSM   C4B23347  16.001  12.313  13.155 -0.1543 -0.1896  0.1212
 1990POSM   NC323348  19.188  16.758  11.307 -0.0432  0.3317  0.3045
 1990POSM   PO423349  19.490  16.550  11.481  0.0720 -0.3165 -0.3161
 1990POSM   AM123350  19.490  16.457  11.782 -0.1266  0.1891  0.1499
 1990POSM   AM223351  19.361  16.329  11.995 -0.2802  0.0344 -0.0845
 1990POSM   T1A23352  19.729  16.541  12.238  0.2199  0.5747  0.1436
 1990POSM   C2A23353  20.129  16.502  12.491 -0.0377 -0.2316  0.0451
 1990POSM   C3A23354  20.311  16.100  12.494 -0.0471 -0.2068 -0.3382
 1990POSM   C1B23355  19.151  16.179  12.125 -0.2530  0.1555  0.0299
 1990POSM   D2B23356  18.858  15.910  12.337  0.1039 -0.3307  0.2068
 1990POSM   C3B23357  19.107  15.824  12.712 -0.0757  0.0973  0.2297
 1990POSM   C4B23358  19.177  15.547  13.061 -0.0547  0.2415  0.4315
 1991POSM   NC323359  12.169  22.298  12.436  0.3687 -0.1231  0.3908
 1991POSM   PO423360  12.298  21.924  12.505 -0.1389 -0.0177  0.0431
 1991POSM   AM123361  12.473  21.632  12.468 -0.0691 -0.0353  0.2527
 1991POSM   AM223362  12.579  21.511  12.720  0.4213  0.1989  0.2012
 1991POSM   T1A23363  12.903  21.470  12.228 -0.0236  0.1128 -0.0671
 1991POSM   C2A23364  13.199  21.156  12.241  0.3440  0.0677  0.2222
 1991POSM   C3A23365  13.519  20.878  12.434 -0.2280  0.0800 -0.0304
 1991POSM   C1B23366  12.674  21.203  12.801 -0.1046  0.1696 -0.1588
 1991POSM   D2B23367  12.877  20.892  13.048  0.0961  0.0977 -0.0258
 1991POSM   C3B23368  12.961  20.710  13.502  0.0954 -0.3022 -0.0621
 1991POSM   C4B23369  13.163  20.829  13.971 -0.2019 -0.0063  0.0366
 1992POSM   NC323370  22.956  15.836  11.171 -0.0567  0.0245 -0.3379
 1992POSM   PO423371  22.942  15.548  11.433  0.0818 -0.0455  0.0693
 1992POSM   AM123372  22.698  15.381  11.440  0.1096  0.1151 -0.3131
 1992POSM   AM223373  22.437  15.410  11.553 -0.2212  0.2848  0.3213
 1992POSM   T1A23374  22.526  14.922  11.520 -0.1550  0.1945  0.0831
 1992POSM   C2A23375  22.627  14.528  11.692  0.0211 -0.0092  0.1661
 1992POSM   C3A23376  22.360  14.348  12.004  0.1800 -0.0003  0.0930
 1992POSM   C1B23377  22.162  15.237  11.711 -0.1104 -0.0294 -0.0081
 1992POSM   D2B23378  21.823  15.120  12.046  0.1534 -0.1799 -0.0082
 1992POSM   C3B23379  21.434  14.897  12.188  0.0962 -0.2581 -0.0417
 1992POSM   C4B23380  21.261  14.550  12.313 -0.1417  0.0613  0.1999
 1993DOPC   NC323381  14.648  18.145  12.194 -0.3564 -0.0354 -0.1708
 1993DOPC   PO423382  14.573  17.891  11.931  0.0267  0.0247 -0.1074
 1993DOPC   GL123383  14.755  17.665  12.179  0.0593  0.4220 -0.2528
 1993DOPC   GL223384  14.952  17.431  12.061 -0.0755  0.0720  0.0662
 1993DOPC   C1A23385  14.640  17.837  12.599  0.1279 -0.2170  0.2084
 1993DOPC   D2A23386  14.767  17.874  13.041 -0.0208  0.0754 -0.1195
 1993DOPC   C3A23387  15.144  18.015  13.265  0.1993 -0.1718  0.4196
 1993DOPC   C4A23388  15.421  17.759  13.488  0.0035 -0.0409  0.1091
 1993DOPC   C1B23389  14.953  17.441  12.504 -0.0305 -0.1733 -0.3027
 1993DOPC   D2B23390  15.151  17.541  12.887  0.2639 -0.1295  0.0827
 1993DOPC   C3B23391  15.319  17.337  13.290 -0.0082 -0.2357  0.1551
 1993DOPC   C4B23392  15.553  16.914  13.271 -0.1695 -0.1359  0.0746
 1994DOPC   NC323393  19.790  11.675  12.260 -0.0872  0.1252  0.2091
 1994DOPC   PO423394  20.105  11.827  12.486  0.3452  0.0680  0.0248
 1994DOPC   GL123395  19.967  12.132  12.795 -0.0193  0.2013 -0.0892
 1994DOPC   GL223396  20.037  12.382  12.560  0.3251  0.2361  0.2142
 1994DOPC   C1A23397  19.791  12.520  12.988  0.1465  0.1904  0.1162
 1994DOPC   D2A23398  19.545  12.857  13.182 -0.0652  0.1588 -0.1355
 1994DOPC   C3A23399  19.850  13.082  13.454  0.1586 -0.3271 -0.0530
 1994DOPC   C4A23400  20.235  13.318  13.401 -0.1241 -0.3087 -0.1543
 1994DOPC   C1B23401  20.325  12.725  12.731  0.0974 -0.1082  0.0586
 1994DOPC   D2B23402  20.310  13.176  12.805 -0.0474 -0.1393  0.0890
 1994DOPC   C3B23403  20.752  13.366  12.946 -0.3026 -0.1679  0.3896
 1994DOPC   C4B23404  20.907  13.472  13.365 -0.2887 -0.0425  0.2646
 1995DOPE   NH323405  18.466  19.446  11.537 -0.2937  0.3025  0.1470
 1995DOPE   PO423406  18.797  19.430  11.558  0.1671 -0.0836  0.0243
 1995DOPE   GL123407  18.833  19.130  11.815 -0.1782  0.2045 -0.2181
 1995DOPE   GL223408  18.650  19.173  11.997 -0.1347  0.1127  0.3835
 1995DOPE   C1A23409  19.282  19.088  11.913  0.1040 -0.0110 -0.1916
 1995DOPE   D2A23410  19.594  19.015  12.217 -0.1281  0.0711 -0.3018
 1995DOPE   C3A23411  19.651  18.577  12.346  0.0795 -0.1734  0.0540
 1995DOPE   C4A23412  19.310  18.430  12.525 -0.0897 -0.0034  0.0131
 1995DOPE   C1B23413  18.904  18.932  12.301 -0.0316 -0.2887  0.4732
 1995DOPE   D2B23414  19.246  18.895  12.671  0.0057 -0.0619  0.2814
 1995DOPE   C3B23415  19.113  19.068  13.063 -0.0984 -0.1825 -0.0158
 1995DOPE   C4B23416  18.875  19.471  13.260 -0.1102 -0.1650 -0.0443
 1996DOPC   NC323417  18.759  18.252  11.590  0.5502 -0.2218 -0.3218
 1996DOPC   PO423418  18.604  18.547  11.372  0.0537  0.2347 -0.0342
 1996DOPC   GL123419  18.841  18.692  11.685  0.0753  0.2796  0.2809
 1996DOPC   GL223420  18.727  18.643  11.904  0.1796 -0.0720 -0.3674
 1996DOPC   C1A23421  19.266  18.575  11.881 -0.1478 -0.0542  0.2957
 1996DOPC   D2A23422  19.603  18.658  11.574 -0.0842 -0.2581 -0.2026
 1996DOPC   C3A23423  19.629  19.140  11.598 -0.1721 -0.1392  0.0322
 1996DOPC   C4A23424  19.417  19.373  11.359  0.1536 -0.0964 -0.2475
 1996DOPC   C1B23425  18.450  18.537  12.286 -0.1238  0.0299  0.0091
 1996DOPC   D2B23426  18.075  18.730  12.395 -0.1086 -0.0409  0.1091
 1996DOPC   C3B23427  18.031  18.981  12.805 -0.1612  0.2275  0.1424
 1996DOPC   C4B23428  17.648  19.216  12.948 -0.1493  0.1343  0.2914
 1997DOPC   NC323429  22.298  19.553  11.725 -0.3166  0.1852  0.0980
 1997DOPC   PO423430  22.158  19.941  11.595  0.0169  0.2826  0.0148
 1997DOPC   GL123431  21.777  20.122  11.895 -0.0459  0.0035  0.2914
 1997DOPC   GL223432  21.776  19.869  12.095 -0.2660 -0.0816  0.1385
 1997DOPC   C1A23433  21.305  20.180  11.911 -0.1165 -0.0967 -0.1745
 1997DOPC   D2A23434  20.906  20.432  11.765 -0.0856  0.3011 -0.1257
 1997DOPC   C3A23435  20.569  20.633  12.022  0.0714 -0.1533  0.1735
 1997DOPC   C4A23436  20.186  20.638  11.758  0.0307  0.2169  0.2837
 1997DOPC   C1B23437  21.486  20.058  12.407  0.0731  0.0246 -0.0988
 1997DOPC   D2B23438  21.383  20.205  12.853  0.0648  0.2087 -0.0036
 1997DOPC   C3B23439  21.123  20.625  12.939 -0.0557  0.1392  0.1994
 1997DOPC   C4B23440  21.101  20.954  13.201 -0.0224  0.0011 -0.1029
 1998DOPS   CNO23441  19.683  23.083  11.849  0.2091  0.1375  0.1369
 1998DOPS   PO423442  19.908  23.087  12.185  0.2618  0.1458 -0.0210
 1998DOPS   GL123443  19.919  22.820  12.426 -0.0254 -0.0416 -0.1944
 1998DOPS   GL223444  20.242  22.645  12.416 -0.0333  0.1592  0.0700
 1998DOPS   C1A23445  20.079  22.975  12.832  0.0500 -0.1001  0.0529
 1998DOPS   D2A23446  20.139  23.371  13.081  0.1314  0.3775  0.0377
 1998DOPS   C3A23447  20.094  23.678  13.445 -0.1137 -0.2122 -0.1065
 1998DOPS   C4A23448  20.380  23.774  13.798 -0.1301 -0.1859 -0.3201
 1998DOPS   C1B23449  20.575  22.645  12.711 -0.2952 -0.1038  0.1458
 1998DOPS   D2B23450  20.758  22.395  12.990 -0.0991 -0.0553  0.1619
 1998DOPS   C3B23451  20.580  22.178  13.323 -0.0244  0.2858 -0.1330
 1998DOPS   C4B23452  20.326  21.817  13.426  0.1360  0.3643  0.2246
 1999POSM   NC323453  22.884  15.821  11.937  0.1480  0.1185 -0.0043
 1999POSM   PO423454  23.091  15.992  11.647  0.0203  0.0914  0.0276
 1999POSM   AM123455  22.936  16.267  11.739  0.0972 -0.0327 -0.2834
 1999POSM   AM223456  22.900  16.424  11.984 -0.3374 -0.0551 -0.2957
 1999POSM   T1A23457  22.716  16.666  11.571 -0.1857 -0.3549 -0.1624
 1999POSM   C2A23458  22.422  17.051  11.739  0.1715  0.0123  0.0178
 1999POSM   C3A23459  22.146  17.289  12.089 -0.3053  0.0532 -0.0107
 1999POSM   C1B23460  22.557  16.457  12.033 -0.0717 -0.0905  0.5219
 1999POSM   D2B23461  22.236  16.684  12.276 -0.2016 -0.2603 -0.0047
 1999POSM   C3B23462  21.881  16.416  12.376 -0.0334  0.2678 -0.1332
 1999POSM   C4B23463  21.436  16.159  12.480  0.1121 -0.2303  0.2105
 2000DOPS   CNO23464  18.207  19.965  12.718 -0.0892 -0.0779  0.0552
 2000DOPS   PO423465  18.512  19.741  12.636 -0.0721  0.1971  0.1224
 2000DOPS   GL123466  18.734  20.001  12.820  0.0091  0.2797  0.1837
 2000DOPS   GL223467  18.971  19.856  12.798 -0.0806 -0.0569 -0.0217
 2000DOPS   C1A23468  18.949  20.389  12.716  0.0430 -0.2170 -0.0047
 2000DOPS   D2A23469  19.309  20.614  12.607 -0.3416 -0.0480 -0.2071
 2000DOPS   C3A23470  19.658  20.503  12.404  0.0746  0.3688  0.4765
 2000DOPS   C4A23471  20.077  20.573  12.287 -0.0014  0.0877  0.2073
 2000DOPS   C1B23472  19.342  20.069  12.928  0.3882 -0.1774  0.3121
 2000DOPS   D2B23473  19.649  20.439  13.036 -0.0749  0.0112 -0.1614
 2000DOPS   C3B23474  20.042  20.407  12.841 -0.0969  0.0924 -0.1446
 2000DOPS   C4B23475  20.512  20.355  12.714 -0.0784 -0.0048 -0.0916
 2001POSM   NC323476  13.883  17.269  12.170  0.1890  0.2827 -0.3801
 2001POSM   PO423477  13.785  17.596  12.355 -0.0189 -0.2031  0.2753
 2001POSM   AM123478  13.635  17.477  12.639  0.1055  0.0304 -0.0613
 2001POSM   AM223479  13.595  17.227  12.785 -0.1622  0.3131 -0.0170
 2001POSM   T1A23480  13.315  17.534  13.034 -0.0488  0.2235  0.3294
 2001POSM   C2A23481  12.952  17.324  13.300  0.0036 -0.0731  0.2905
 2001POSM   C3A23482  12.601  17.477  13.523  0.2536 -0.0889  0.1803
 2001POSM   C1B23483  13.783  17.324  13.075  0.4389  0.1490  0.2725
 2001POSM   D2B23484  13.986  17.514  13.449 -0.1854  0.0938  0.2707
 2001POSM   C3B23485  14.403  17.459  13.384 -0.2815 -0.1380  0.0264
 2001POSM   C4B23486  14.864  17.620  13.495  0.0539  0.1233  0.0274
 2002DOPC   NC323487  14.068  20.707  12.322  0.2394 -0.3796 -0.1469
 2002DOPC   PO423488  14.340  21.007  12.285 -0.1746  0.2389 -0.3137
 2002DOPC   GL123489  14.446  20.933  12.665  0.6215  0.2081  0.2082
 2002DOPC   GL223490  14.259  20.712  12.803  0.0220 -0.2900  0.2741
 2002DOPC   C1A23491  14.857  20.898  12.930  0.3842  0.1115  0.3835
 2002DOPC   D2A23492  15.267  20.962  13.095  0.2297  0.0270  0.2249
 2002DOPC   C3A23493  15.429  20.858  13.494 -0.0508  0.3693 -0.1125
 2002DOPC   C4A23494  15.607  20.782  13.899 -0.1386 -0.0278 -0.1392
 2002DOPC   C1B23495  14.443  20.627  13.195  0.0035  0.0559 -0.0382
 2002DOPC   D2B23496  14.409  20.409  13.640 -0.1174 -0.0709  0.0312
 2002DOPC   C3B23497  14.250  20.714  13.981  0.3027  0.1942 -0.2059
 2002DOPC   C4B23498  14.162  20.906  14.380  0.0041  0.1224 -0.0482
 2003DOPC   NC323499  20.301  16.881  11.322 -0.0662 -0.0796 -0.1899
 2003DOPC   PO423500  20.211  16.548  11.499  0.1295 -0.1086 -0.1216
 2003DOPC   GL123501  20.291  16.606  11.918 -0.3431 -0.0381  0.1265
 2003DOPC   GL223502  20.158  16.424  12.013 -0.0433  0.1704 -0.2427
 2003DOPC   C1A23503  20.505  16.779  12.277 -0.1012 -0.0222 -0.0459
 2003DOPC   D2A23504  20.510  16.917  12.710  0.0077 -0.0364  0.0473
 2003DOPC   C3A23505  20.116  17.010  12.820 -0.1530  0.1675  0.0591
 2003DOPC   C4A23506  19.718  17.231  12.989  0.0020 -0.1269 -0.1505
 2003DOPC   C1B23507  20.571  16.221  12.123 -0.0325 -0.0187 -0.2222
 2003DOPC   D2B23508  20.770  15.842  12.030 -0.0410 -0.2550 -0.0045
 2003DOPC   C3B23509  21.181  15.752  12.197  0.0327 -0.0483  0.0660
 2003DOPC   C4B23510  21.524  15.442  12.249 -0.2154 -0.0413 -0.0021
 2004DOPC   NC323511  12.620  11.936  12.190  0.1454  0.0105  0.0623
 2004DOPC   PO423512  12.977  11.845  12.371 -0.2960  0.3331 -0.0068
 2004DOPC   GL123513  13.116  12.074  12.677 -0.2004 -0.3856  0.0510
 2004DOPC   GL223514  13.345  11.848  12.733  0.0799  0.1955  0.0092
 2004DOPC   C1A23515  13.191  12.407  12.923  0.2272 -0.1387  0.0216
 2004DOPC   D2A23516  13.377  12.503  13.356  0.0671 -0.0357 -0.1495
 2004DOPC   C3A23517  13.139  12.214  13.563 -0.0747 -0.1503 -0.1622
 2004DOPC   C4A23518  12.729  12.294  13.579  0.1251 -0.4058  0.2109
 2004DOPC   C1B23519  13.641  12.190  12.814  0.1792  0.3493  0.0831
 2004DOPC   D2B23520  13.620  12.645  12.856  0.1119 -0.1310 -0.2558
 2004DOPC   C3B23521  13.854  12.991  12.727  0.0399  0.3118 -0.3986
 2004DOPC   C4B23522  14.196  13.283  12.656 -0.0962 -0.1848 -0.0202
 2005POSM   NC323523  20.096  22.505  11.543 -0.2236 -0.4302 -0.1385
 2005POSM   PO423524  20.085  22.716  11.914 -0.2207  0.1285  0.3345
 2005POSM   AM123525  19.973  22.486  12.094  0.0733 -0.1404  0.2022
 2005POSM   AM223526  19.904  22.232  11.975  0.1108  0.2258  0.0445
 2005POSM   T1A23527  20.097  22.134  12.412  0.1888 -0.2580 -0.1366
 2005POSM   C2A23528  19.958  22.001  12.846  0.1473 -0.1550  0.1708
 2005POSM   C3A23529  19.681  21.940  13.212  0.2354  0.1723  0.2165
 2005POSM   C1B23530  19.774  21.912  12.009  0.0085 -0.0473  0.1222
 2005POSM   D2B23531  19.597  21.500  12.054 -0.0506  0.1919  0.1088
 2005POSM   C3B23532  19.142  21.273  12.002  0.0155 -0.0211 -0.1709
 2005POSM   C4B23533  18.749  21.303  11.754  0.1508  0.2997 -0.1774
 2006POSM   NC323534  13.389  14.791  11.546 -0.0807 -0.1772 -0.0047
 2006POSM   PO423535  13.434  15.068  11.818  0.0105  0.3149 -0.1242
 2006POSM   AM123536  13.449  14.949  12.081 -0.0071 -0.2861 -0.0923
 2006POSM   AM223537  13.575  15.032  12.305  0.0517 -0.2289  0.0461
 2006POSM   T1A23538  13.383  14.622  12.416 -0.0619  0.0309  0.1804
 2006POSM   C2A23539  13.637  14.325  12.656 -0.0136  0.2030 -0.3603
 2006POSM   C3A23540  13.895  14.488  13.063  0.2487 -0.1436  0.1308
 2006POSM   C1B23541  13.914  15.014  12.355  0.1115 -0.0078  0.2246
 2006POSM   D2B23542  14.352  15.210  12.482  0.2039  0.1014 -0.1076
 2006POSM   C3B23543  14.734  15.200  12.838  0.2378 -0.0251  0.0145
 2006POSM   C4B23544  14.983  15.414  13.198 -0.2405  0.0055  0.2910
 2007DOPE   NH323545  17.565  15.680  11.716  0.1717 -0.2123  0.2656
 2007DOPE   PO423546  17.478  15.699  11.405  0.1270 -0.0320  0.2873
 2007DOPE   GL123547  17.539  16.100  11.530  0.2044  0.3136 -0.0408
 2007DOPE   GL223548  17.280  16.161  11.689 -0.3158  0.1862 -0.0013
 2007DOPE   C1A23549  17.706  16.204  11.950  0.0725  0.1879 -0.1180
 2007DOPE   D2A23550  17.469  16.246  12.280 -0.1137  0.1701  0.3383
 2007DOPE   C3A23551  17.191  16.581  12.418  0.0303  0.0002 -0.5125
 2007DOPE   C4A23552  16.843  16.870  12.353  0.2185 -0.0397  0.0978
 2007DOPE   C1B23553  16.835  16.208  11.939 -0.1412  0.2443 -0.1576
 2007DOPE   D2B23554  16.675  16.395  12.288  0.1041  0.0493 -0.2944
 2007DOPE   C3B23555  16.675  16.309  12.736  0.3633  0.0595  0.1490
 2007DOPE   C4B23556  16.647  16.171  13.207 -0.3788  0.0750 -0.0430
 2008DOPS   CNO23557  23.385  15.627  11.869 -0.1546  0.1495  0.1345
 2008DOPS   PO423558  23.259  15.605  12.228  0.1904 -0.0218  0.1018
 2008DOPS   GL123559  23.294  15.702  12.589  0.1807 -0.2824 -0.0195
 2008DOPS   GL223560  23.062  15.588  12.680 -0.4582 -0.1513 -0.1333
 2008DOPS   C1A23561  23.625  15.992  12.714 -0.0415 -0.0701  0.2713
 2008DOPS   D2A23562  23.530  16.453  12.692 -0.0529  0.1608  0.2885
 2008DOPS   C3A23563  23.072  16.585  12.704  0.1698 -0.0794  0.3351
 2008DOPS   C4A23564  22.681  16.344  12.773  0.1062 -0.0382  0.0007
 2008DOPS   C1B23565  22.672  15.590  12.882  0.0486 -0.0457 -0.2148
 2008DOPS   D2B23566  22.194  15.530  13.002  0.4085  0.0695 -0.0177
 2008DOPS   C3B23567  22.079  15.105  12.819  0.1323 -0.1707  0.0483
 2008DOPS   C4B23568  21.641  15.005  12.648 -0.0265  0.0960  0.5160
 2009DOPE   NH323569  22.948  23.036  12.262 -0.0009 -0.1490 -0.0539
 2009DOPE   PO423570  23.022  22.751  12.253 -0.1350  0.2168 -0.3849
 2009DOPE   GL123571  23.052  22.720  12.668 -0.1213 -0.0456 -0.3393
 2009DOPE   GL223572  22.981  22.995  12.799 -0.1107  0.0842 -0.0303
 2009DOPE   C1A23573  23.126  22.509  13.060 -0.5159 -0.0676  0.0545
 2009DOPE   D2A23574  23.288  22.450  13.479 -0.1635  0.3004 -0.0561
 2009DOPE   C3A23575  23.669  22.524  13.687  0.1104 -0.0109 -0.0448
 2009DOPE   C4A23576  24.011  22.278  13.719  0.2636  0.3701  0.0588
 2009DOPE   C1B23577  23.021  23.064  13.223 -0.4130  0.4417  0.1610
 2009DOPE   D2B23578  22.911  22.766  13.547 -0.2941 -0.1453  0.0359
 2009DOPE   C3B23579  22.833  22.959  13.951 -0.2560  0.1432 -0.0180
 2009DOPE   C4B23580  22.682  23.349  14.150  0.0901 -0.1511 -0.1778
 2010DOPC   NC323581  13.162  16.859  12.126  0.1547  0.0801  0.0234
 2010DOPC   PO423582  13.074  17.120  11.824  0.1087  0.2134  0.0683
 2010DOPC   GL123583  12.891  17.363  12.047 -0.0211  0.3967  0.1005
 2010DOPC   GL223584  12.761  17.259  12.255 -0.1557  0.0614 -0.2447
 2010DOPC   C1A23585  12.493  17.630  12.104 -0.0109  0.1427 -0.1886
 2010DOPC   D2A23586  12.018  17.615  12.215  0.0464  0.2838  0.2907
 2010DOPC   C3A23587  11.895  17.467  12.625  0.0705  0.1657 -0.1557
 2010DOPC   C4A23588  11.696  17.420  13.014 -0.3413  0.0494  0.2039
 2010DOPC   C1B23589  12.392  17.051  12.078  0.2714 -0.2022  0.2057
 2010DOPC   D2B23590  12.057  17.031  11.776 -0.1801  0.2355  0.2335
 2010DOPC   C3B23591  11.625  16.909  11.832 -0.0470 -0.1823 -0.0361
 2010DOPC   C4B23592  11.369  16.612  11.975  0.1541  0.2000  0.1415
 2011DOPC   NC323593  16.189  15.070  11.271 -0.5651 -0.1145  0.0565
 2011DOPC   PO423594  16.148  14.783  11.545  0.1170  0.0330 -0.1865
 2011DOPC   GL123595  15.865  14.969  11.823 -0.2387  0.0204 -0.3730
 2011DOPC   GL223596  15.997  15.008  12.115  0.0454  0.0124 -0.0961
 2011DOPC   C1A23597  15.460  14.973  11.959 -0.1103  0.0001  0.0139
 2011DOPC   D2A23598  15.134  14.781  12.078  0.2800  0.0492  0.0989
 2011DOPC   C3A23599  14.945  14.874  12.533 -0.1617 -0.2243  0.2220
 2011DOPC   C4A23600  14.656  14.661  12.838 -0.0690 -0.0784 -0.2307
 2011DOPC   C1B23601  16.120  14.764  12.463 -0.2904 -0.0259 -0.0996
 2011DOPC   D2B23602  16.251  14.664  12.939 -0.0743  0.2981 -0.2305
 2011DOPC   C3B23603  16.136  14.581  13.421  0.1594 -0.0120  0.0104
 2011DOPC   C4B23604  15.815  14.416  13.740 -0.4022  0.0896 -0.0569
 2012POSM   NC323605  23.269  16.530  12.250 -0.1230 -0.2845  0.1093
 2012POSM   PO423606  23.306  16.699  11.897 -0.0962 -0.0861  0.2699
 2012POSM   AM123607  23.102  16.939  12.041  0.0879  0.5326  0.0958
 2012POSM   AM223608  23.120  17.196  12.032 -0.0876 -0.1820 -0.0011
 2012POSM   T1A23609  22.713  16.949  12.316 -0.0117 -0.2059  0.0263
 2012POSM   C2A23610  22.393  17.140  12.510  0.1052 -0.2497  0.1173
 2012POSM   C3A23611  22.309  17.340  12.874  0.2885  0.0684 -0.0378
 2012POSM   C1B23612  22.867  17.302  11.832  0.0279 -0.1237  0.1963
 2012POSM   D2B23613  22.508  17.604  11.688  0.0483  0.0211  0.1370
 2012POSM   C3B23614  22.176  17.822  11.948  0.2445  0.2899  0.1862
 2012POSM   C4B23615  21.918  18.216  11.814  0.1582  0.0670 -0.0307
 2013POSM   NC323616  11.481  21.623  12.684 -0.1509  0.1554  0.3467
 2013POSM   PO423617  11.486  21.391  12.381 -0.1443  0.1184 -0.1487
 2013POSM   AM123618  11.434  21.151  12.604  0.3883  0.1910 -0.3855
 2013POSM   AM223619  11.545  21.105  12.875  0.1619  0.1934  0.2234
 2013POSM   T1A23620  11.423  20.598  12.620  0.2363 -0.0383  0.2012
 2013POSM   C2A23621  11.113  20.247  12.601  0.0711 -0.0945  0.3137
 2013POSM   C3A23622  10.906  19.841  12.676  0.2535 -0.1139  0.1309
 2013POSM   C1B23623  11.707  20.895  13.119  0.1223  0.1855  0.1651
 2013POSM   D2B23624  12.057  20.850  13.389 -0.1494 -0.0650  0.2626
 2013POSM   C3B23625  12.364  21.133  13.180  0.0151  0.0530  0.0031
 2013POSM   C4B23626  12.746  21.430  13.214 -0.2473  0.1238  0.1052
 2014DOPS   CNO23627  17.787  14.714  11.514 -0.2307 -0.0094  0.0690
 2014DOPS   PO423628  18.111  14.701  11.314  0.0352  0.0876  0.0016
 2014DOPS   GL123629  18.449  14.687  11.540  0.1637 -0.6114  0.1286
 2014DOPS   GL223630  18.579  14.907  11.519  0.1821 -0.4013  0.2623
 2014DOPS   C1A23631  18.836  14.488  11.461 -0.3704  0.1270 -0.1633
 2014DOPS   D2A23632  18.984  14.141  11.716 -0.1009  0.1814  0.1193
 2014DOPS   C3A23633  19.304  13.956  12.055  0.0032  0.2867  0.1180
 2014DOPS   C4A23634  19.543  14.190  12.430 -0.0640 -0.0054 -0.1235
 2014DOPS   C1B23635  18.831  14.807  11.877 -0.4690 -0.0565  0.0260
 2014DOPS   D2B23636  19.190  14.552  11.939  0.1139 -0.2761 -0.1518
 2014DOPS   C3B23637  19.085  14.362  12.354 -0.0255  0.0042  0.3893
 2014DOPS   C4B23638  19.112  13.935  12.505 -0.1315 -0.1071 -0.1356
 2015POSM   NC323639  13.780  11.411  11.956  0.2312 -0.0540 -0.0248
 2015POSM   PO423640  13.542  11.602  12.171  0.2466  0.1366 -0.0365
 2015POSM   AM123641  13.696  11.522  12.469 -0.2647 -0.2607  0.2267
 2015POSM   AM223642  13.706  11.293  12.687 -0.0024  0.0798  0.0928
 2015POSM   T1A23643  13.765  11.693  12.942 -0.2240 -0.2437 -0.0887
 2015POSM   C2A23644  13.618  11.916  13.296  0.2138  0.1521  0.0261
 2015POSM   C3A23645  13.384  11.815  13.655 -0.4737 -0.0187  0.2411
 2015POSM   C1B23646  13.774  11.155  12.990 -0.1656  0.0079 -0.2282
 2015POSM   D2B23647  14.061  11.138  13.292 -0.1736  0.0333 -0.0297
 2015POSM   C3B23648  14.050  11.237  13.724  0.0394 -0.0123  0.2780
 2015POSM   C4B23649  14.119  11.153  14.188  0.2639 -0.0230  0.1716
 2016DOPE   NH323650  16.224  21.481  12.140  0.0727 -0.1335 -0.0975
 2016DOPE   PO423651  16.326  21.246  12.325  0.1812 -0.0387  0.1329
 2016DOPE   GL123652  16.521  21.324  12.632 -0.3270  0.2213  0.0605
 2016DOPE   GL223653  16.838  21.360  12.562  0.1286 -0.0077  0.0530
 2016DOPE   C1A23654  16.496  21.261  13.055  0.0059 -0.3602 -0.2595
 2016DOPE   D2A23655  16.536  20.829  13.215 -0.0911 -0.1180  0.1913
 2016DOPE   C3A23656  16.674  20.396  13.298  0.2359  0.1273  0.2916
 2016DOPE   C4A23657  16.828  19.975  13.320  0.0422  0.0351  0.1744
 2016DOPE   C1B23658  16.754  20.924  12.739  0.2110 -0.0683  0.2384
 2016DOPE   D2B23659  16.296  20.860  12.819  0.2700 -0.1647 -0.0998
 2016DOPE   C3B23660  16.148  20.505  13.107 -0.3146 -0.3671  0.2334
 2016DOPE   C4B23661  15.745  20.472  13.386 -0.1457 -0.0959 -0.0449
 2017DOPE   NH323662  13.307  12.415  11.544  0.0493 -0.2619  0.4908
 2017DOPE   PO423663  13.616  12.366  11.442 -0.1955 -0.2543  0.1227
 2017DOPE   GL123664  13.591  12.788  11.579  0.2565 -0.0328  0.1575
 2017DOPE   GL223665  13.523  12.781  11.880 -0.0343  0.1362  0.1595
 2017DOPE   C1A23666  13.778  13.173  11.707 -0.1011  0.1456 -0.0770
 2017DOPE   D2A23667  13.666  13.599  11.781 -0.2264  0.1318 -0.0674
 2017DOPE   C3A23668  13.963  13.819  12.071  0.1651 -0.0244 -0.0696
 2017DOPE   C4A23669  13.945  13.982  12.515 -0.2182 -0.5241  0.0100
 2017DOPE   C1B23670  13.333  13.135  12.123 -0.2072  0.1639  0.0103
 2017DOPE   D2B23671  12.971  13.300  12.332 -0.2216 -0.1353  0.0607
 2017DOPE   C3B23672  12.818  13.287  12.752 -0.1447  0.1391  0.1655
 2017DOPE   C4B23673  12.847  13.219  13.219  0.0497  0.2702  0.0324
 2018DOPE   NH323674  13.443  12.095  12.285  0.2856 -0.0408  0.0980
 2018DOPE   PO423675  13.514  12.275  12.065  0.0057  0.2006  0.1139
 2018DOPE   GL123676  13.634  12.499  12.209 -0.2270 -0.3203  0.0409
 2018DOPE   GL223677  13.424  12.645  12.399 -0.4550  0.1614  0.0092
 2018DOPE   C1A23678  13.861  12.903  12.204  0.0991 -0.1599  0.2332
 2018DOPE   D2A23679  13.788  13.368  12.335  0.1692  0.0162  0.2101
 2018DOPE   C3A23680  13.794  13.556  12.798  0.1165 -0.1892 -0.0574
 2018DOPE   C4A23681  13.876  13.539  13.264  0.0972  0.2884  0.1057
 2018DOPE   C1B23682  13.320  13.031  12.640  0.0091  0.3390  0.1770
 2018DOPE   D2B23683  13.525  13.149  13.030  0.1493 -0.0980 -0.3652
 2018DOPE   C3B23684  13.288  13.471  13.320 -0.0616 -0.1081 -0.0621
 2018DOPE   C4B23685  12.911  13.636  13.465  0.0418  0.0498  0.0579
 2019DOPS   CNO23686  14.800  11.730  11.462 -0.0900  0.0229  0.2335
 2019DOPS   PO423687  14.931  11.921  11.767 -0.1214  0.1493 -0.1549
 2019DOPS   GL123688  15.006  12.316  11.806 -0.4763 -0.1463  0.0542
 2019DOPS   GL223689  14.836  12.376  12.087  0.1220 -0.0127  0.1469
 2019DOPS   C1A23690  15.418  12.601  11.865 -0.2335 -0.1336 -0.1068
 2019DOPS   D2A23691  15.802  12.911  11.962  0.1305 -0.0818 -0.1392
 2019DOPS   C3A23692  15.868  13.062  12.397 -0.1488  0.0237 -0.2181
 2019DOPS   C4A23693  15.977  13.379  12.669 -0.1754 -0.3825 -0.3477
 2019DOPS   C1B23694  15.262  12.391  12.292  0.0907 -0.0738  0.1020
 2019DOPS   D2B23695  15.732  12.422  12.249 -0.0810  0.3360 -0.0240
 2019DOPS   C3B23696  16.025  12.076  12.254  0.1352 -0.0512 -0.1199
 2019DOPS   C4B23697  16.323  11.770  12.134  0.0244 -0.0466  0.2789
 2020POSM   NC323698  17.935  14.866  12.029 -0.0069 -0.3317  0.4903
 2020POSM   PO423699  18.094  15.002  11.719  0.0008 -0.1027  0.1104
 2020POSM   AM123700  18.372  14.986  11.936  0.6381 -0.0003  0.0055
 2020POSM   AM223701  18.424  15.137  12.152 -0.2271 -0.0944  0.3153
 2020POSM   T1A23702  18.664  14.742  12.317 -0.2170  0.0025  0.1049
 2020POSM   C2A23703  18.929  14.739  12.724 -0.0101 -0.1317  0.1206
 2020POSM   C3A23704  19.148  14.933  13.058 -0.0463  0.2839  0.1966
 2020POSM   C1B23705  18.218  15.248  12.377 -0.2732  0.0175 -0.2365
 2020POSM   D2B23706  17.967  15.336  12.759 -0.0382 -0.1012 -0.1541
 2020POSM   C3B23707  17.697  14.983  12.906  0.1106  0.2239 -0.0667
 2020POSM   C4B23708  17.310  14.684  12.900  0.1540 -0.1292  0.2328
 2021POSM   NC323709  21.677  17.606  11.915  0.1817  0.4932 -0.0187
 2021POSM   PO423710  21.696  17.539  11.550 -0.1649 -0.1203 -0.0022
 2021POSM   AM123711  21.763  17.209  11.723 -0.2132  0.0782 -0.1652
 2021POSM   AM223712  21.579  17.107  11.862  0.1343  0.2607 -0.3533
 2021POSM   T1A23713  21.972  16.732  11.787 -0.1470  0.1779  0.3156
 2021POSM   C2A23714  22.113  16.287  11.785 -0.0128  0.2512  0.4320
 2021POSM   C3A23715  22.427  15.935  11.816 -0.4030  0.0146 -0.2525
 2021POSM   C1B23716  21.516  16.863  12.097 -0.1281 -0.5033  0.0201
 2021POSM   D2B23717  21.510  16.770  12.557 -0.1368 -0.0911 -0.0772
 2021POSM   C3B23718  21.287  17.037  12.859  0.0737 -0.0513  0.1275
 2021POSM   C4B23719  20.879  17.221  12.787  0.1677 -0.3062 -0.1010
 2022DOPE   NH323720  19.378  15.126  11.419 -0.0486  0.3872 -0.0159
 2022DOPE   PO423721  19.635  14.939  11.360  0.0362  0.2910  0.5032
 2022DOPE   GL123722  19.759  14.885  11.770 -0.1129  0.0405  0.2750
 2022DOPE   GL223723  20.050  15.046  11.755  0.0903 -0.0248 -0.0840
 2022DOPE   C1A23724  19.793  14.585  12.104 -0.0737 -0.1535 -0.1765
 2022DOPE   D2A23725  19.907  14.519  12.562  0.1762  0.0711  0.0371
 2022DOPE   C3A23726  20.328  14.632  12.674  0.3950  0.0324 -0.0979
 2022DOPE   C4A23727  20.730  14.377  12.732 -0.2512  0.0115  0.3348
 2022DOPE   C1B23728  20.367  14.868  12.105 -0.1043 -0.0060  0.0222
 2022DOPE   D2B23729  20.776  14.641  12.256 -0.0664  0.1357  0.1852
 2022DOPE   C3B23730  21.058  14.593  11.870 -0.3090 -0.2353 -0.0982
 2022DOPE   C4B23731  21.499  14.455  11.915 -0.1056 -0.0783  0.0054
 2023DOPS   CNO23732  12.154  22.821  12.322 -0.2225 -0.0862  0.1652
 2023DOPS   PO423733  12.503  22.670  12.475 -0.0216 -0.1014  0.3014
 2023DOPS   GL123734  12.612  22.639  12.861  0.3023  0.1201 -0.3262
 2023DOPS   GL223735  12.814  22.776  12.881  0.2689 -0.1116 -0.2253
 2023DOPS   C1A23736  12.504  22.884  13.258  0.1260  0.2050 -0.0233
 2023DOPS   D2A23737  12.414  22.980  13.697 -0.4034  0.3137  0.0900
 2023DOPS   C3A23738  12.329  23.049  14.161  0.3347 -0.1641  0.0356
 2023DOPS   C4A23739  12.386  23.130  14.661 -0.0589 -0.1751  0.3215
 2023DOPS   C1B23740  12.731  22.413  13.222  0.4048 -0.1574  0.0252
 2023DOPS   D2B23741  12.960  22.135  13.484 -0.0445  0.0080 -0.0208
 2023DOPS   C3B23742  12.991  21.926  13.901  0.2246  0.0251  0.0565
 2023DOPS   C4B23743  13.194  21.704  14.291 -0.0099  0.1175 -0.3680
 2024DOPE   NH323744  18.700  19.969  11.740  0.0290 -0.1531  0.0360
 2024DOPE   PO423745  18.395  19.893  11.729  0.1723  0.1794 -0.2306
 2024DOPE   GL123746  18.127  19.967  11.988 -0.1923 -0.0205  0.2468
 2024DOPE   GL223747  18.108  19.834  12.249 -0.0466 -0.2214 -0.0578
 2024DOPE   C1A23748  17.832  20.305  12.157 -0.0832  0.0989 -0.2106
 2024DOPE   D2A23749  17.435  20.549  12.182 -0.1249 -0.1255  0.3674
 2024DOPE   C3A23750  17.408  20.657  12.635 -0.0607 -0.0989  0.0401
 2024DOPE   C4A23751  17.474  20.879  12.940 -0.0977  0.3529 -0.1148
 2024DOPE   C1B23752  17.742  19.901  12.483  0.1090  0.2020  0.1489
 2024DOPE   D2B23753  17.418  19.690  12.699  0.1983  0.0515 -0.1461
 2024DOPE   C3B23754  17.266  19.218  12.594  0.0402  0.0016  0.0913
 2024DOPE   C4B23755  17.051  19.003  12.249 -0.1269  0.0737  0.1190
 2025POSM   NC323756  10.570  14.482  11.545 -0.0400  0.2002  0.1914
 2025POSM   PO423757  10.515  14.160  11.723 -0.0719  0.0637 -0.2410
 2025POSM   AM123758  10.724  14.052  11.933  0.2463  0.0168  0.1827
 2025POSM   AM223759  10.739  14.113  12.216 -0.0962 -0.1307  0.3292
 2025POSM   T1A23760  11.055  13.660  12.029  0.0739 -0.2267 -0.3649
 2025POSM   C2A23761  11.445  13.501  11.985  0.3085 -0.0777  0.3023
 2025POSM   C3A23762  11.917  13.510  11.845  0.0118  0.0464  0.0547
 2025POSM   C1B23763  10.740  13.862  12.390 -0.2377  0.0682 -0.2808
 2025POSM   D2B23764  10.839  13.438  12.530  0.0236 -0.0004  0.1885
 2025POSM   C3B23765  10.628  13.204  12.859  0.0697 -0.1452 -0.5230
 2025POSM   C4B23766  10.361  13.258  13.280  0.1374  0.1913  0.3700
 2026POSM   NC323767  11.421  22.562  12.703 -0.0017  0.1912  0.2004
 2026POSM   PO423768  11.604  22.730  12.354  0.0038  0.1225  0.1697
 2026POSM   AM123769  11.820  22.782  12.621 -0.1774  0.1531 -0.0226
 2026POSM   AM223770  11.896  23.027  12.744 -0.1215  0.0034 -0.1010
 2026POSM   T1A23771  12.093  22.567  12.972  0.1338  0.2211  0.0722
 2026POSM   C2A23772  12.318  22.124  13.092 -0.1990 -0.6103  0.0674
 2026POSM   C3A23773  12.699  21.901  13.087  0.2188  0.1704  0.2159
 2026POSM   C1B23774  12.016  23.140  12.988  0.0150 -0.0460 -0.3066
 2026POSM   D2B23775  12.038  23.243  13.397 -0.0976  0.0999 -0.0349
 2026POSM   C3B23776  12.114  23.513  13.757  0.0931 -0.1227  0.0926
 2026POSM   C4B23777  12.500  23.498  13.908 -0.3278  0.1162 -0.0010
 2027DOPC   NC323778  15.609  20.013  12.114  0.1772 -0.0061 -0.1325
 2027DOPC   PO423779  15.857  20.292  11.988 -0.1548  0.1510 -0.2082
 2027DOPC   GL123780  15.667  20.579  12.275  0.1686  0.0604 -0.4940
 2027DOPC   GL223781  15.573  20.437  12.420  0.1049  0.3381 -0.0469
 2027DOPC   C1A23782  15.188  20.595  12.164  0.3383 -0.0266  0.0046
 2027DOPC   D2A23783  15.006  20.244  12.058  0.0209  0.1393  0.0017
 2027DOPC   C3A23784  15.162  20.009  12.462  0.0539 -0.1478  0.5425
 2027DOPC   C4A23785  15.033  19.842  12.865 -0.1030  0.2570 -0.3705
 2027DOPC   C1B23786  15.198  20.461  12.696  0.0507 -0.0048  0.2223
 2027DOPC   D2B23787  15.153  20.507  13.143  0.0332  0.0358  0.0858
 2027DOPC   C3B23788  14.899  20.688  13.425  0.0690 -0.0939 -0.0820
 2027DOPC   C4B23789  14.718  21.060  13.581  0.2122 -0.0259  0.1203
 2028POSM   NC323790  11.585  20.078  12.554 -0.0139  0.3478  0.2236
 2028POSM   PO423791  11.828  19.943  12.272 -0.0359 -0.0924  0.1085
 2028POSM   AM123792  11.923  19.616  12.397  0.1478  0.4368 -0.2481
 2028POSM   AM223793  11.971  19.350  12.301  0.0449  0.0805  0.0228
 2028POSM   T1A23794  11.812  19.329  12.763  0.0897 -0.1249 -0.0863
 2028POSM   C2A23795  11.729  19.011  13.115  0.2311  0.2014 -0.2370
 2028POSM   C3A23796  11.414  18.854  13.413 -0.2164  0.3005 -0.0114
 2028POSM   C1B23797  11.681  19.172  12.311  0.0399  0.0138  0.1835
 2028POSM   D2B23798  11.414  18.893  12.369 -0.2243 -0.4168  0.0224
 2028POSM   C3B23799  11.175  19.144  12.662 -0.1007 -0.2320 -0.2834
 2028POSM   C4B23800  10.758  19.077  12.877 -0.0767  0.0877  0.0007
 2029DOPE   NH323801  16.302  14.634  11.990 -0.4624 -0.1580 -0.1898
 2029DOPE   PO423802  16.515  14.426  11.947  0.1279 -0.3397  0.1077
 2029DOPE   GL123803  16.415  14.338  12.341  0.1723  0.1144  0.1542
 2029DOPE   GL223804  16.716  14.285  12.393 -0.3017  0.2478 -0.1111
 2029DOPE   C1A23805  15.992  14.275  12.533  0.2145  0.1827 -0.1299
 2029DOPE   D2A23806  15.888  14.267  13.032 -0.0934  0.2853 -0.1730
 2029DOPE   C3A23807  15.481  14.320  13.320 -0.0427 -0.2243 -0.0069
 2029DOPE   C4A23808  15.029  14.269  13.409 -0.2283 -0.2889 -0.0134
 2029DOPE   C1B23809  16.425  14.087  12.712  0.1163  0.0719  0.0878
 2029DOPE   D2B23810  16.054  13.833  12.859  0.2747 -0.2037  0.0270
 2029DOPE   C3B23811  15.987  13.506  13.220  0.0200 -0.2097  0.1871
 2029DOPE   C4B23812  16.008  13.207  13.559 -0.0456  0.1051 -0.0093
 2030DOPS   CNO23813  14.154  16.850  11.738 -0.3802  0.1553  0.1200
 2030DOPS   PO423814  14.163  16.875  12.089  0.3800 -0.0792 -0.3507
 2030DOPS   GL123815  14.195  17.083  12.456 -0.2437 -0.0338  0.0927
 2030DOPS   GL223816  14.057  17.330  12.653  0.0732 -0.0901 -0.1464
 2030DOPS   C1A23817  14.448  16.842  12.724  0.1832  0.0031 -0.3174
 2030DOPS   D2A23818  14.425  16.461  13.001 -0.1785  0.1079 -0.1056
 2030DOPS   C3A23819  13.985  16.466  13.202 -0.2966  0.1445  0.1856
 2030DOPS   C4A23820  13.537  16.638  13.388  0.3114 -0.2260  0.0813
 2030DOPS   C1B23821  14.162  17.651  12.977 -0.1102 -0.2053 -0.0891
 2030DOPS   D2B23822  14.257  18.032  13.227  0.3274  0.2753 -0.0595
 2030DOPS   C3B23823  14.306  17.896  13.670 -0.0914 -0.0924  0.0259
 2030DOPS   C4B23824  14.373  17.533  13.891  0.2011  0.1367  0.0817
 2031DOPC   NC323825  13.696  18.842  12.353 -0.1409  0.0107 -0.3013
 2031DOPC   PO423826  13.310  18.911  12.266  0.1555 -0.1630 -0.3040
 2031DOPC   GL123827  13.447  18.921  12.726 -0.2254 -0.0084  0.3484
 2031DOPC   GL223828  13.255  19.086  12.804 -0.1769  0.4346  0.1186
 2031DOPC   C1A23829  13.828  18.856  13.028  0.0094  0.2875  0.3234
 2031DOPC   D2A23830  14.182  18.648  13.244  0.1273  0.1528  0.3491
 2031DOPC   C3A23831  14.644  18.644  13.269 -0.0200  0.0712  0.1318
 2031DOPC   C4A23832  15.043  18.590  13.050 -0.1228 -0.0975 -0.1034
 2031DOPC   C1B23833  13.213  19.389  13.154 -0.0674 -0.0051 -0.0164
 2031DOPC   D2B23834  13.056  19.422  13.599 -0.2278 -0.1580  0.0498
 2031DOPC   C3B23835  13.283  19.062  13.788  0.1226  0.1638 -0.1297
 2031DOPC   C4B23836  13.150  18.656  13.756  0.1597 -0.0734 -0.2030
 2032DOPC   NC323837  19.544  22.322  11.640 -0.2118 -0.1603  0.1287
 2032DOPC   PO423838  19.360  22.143  11.295 -0.2300  0.1221  0.3797
 2032DOPC   GL123839  19.615  21.871  11.449  0.2053  0.3942  0.1427
 2032DOPC   GL223840  19.411  21.784  11.631 -0.2421  0.0220 -0.3120
 2032DOPC   C1A23841  20.072  21.975  11.519 -0.0275 -0.0339  0.1614
 2032DOPC   D2A23842  20.491  22.137  11.565 -0.3199  0.2910  0.0115
 2032DOPC   C3A23843  20.828  21.843  11.837  0.3667 -0.1138 -0.2692
 2032DOPC   C4A23844  20.940  21.614  12.216 -0.1032 -0.1508  0.0628
 2032DOPC   C1B23845  19.848  21.538  11.611  0.0540 -0.1496 -0.1047
 2032DOPC   D2B23846  19.894  21.113  11.856  0.2204  0.3214  0.0034
 2032DOPC   C3B23847  19.954  21.189  12.298  0.0580  0.1036  0.1890
 2032DOPC   C4B23848  20.291  20.978  12.637 -0.0884 -0.3843 -0.0440
 2033DOPC   NC323849  13.807  17.157  11.643  0.0019  0.0872  0.1528
 2033DOPC   PO423850  13.584  16.926  11.908 -0.1419  0.2004 -0.1937
 2033DOPC   GL123851  13.758  16.882  12.335  0.0810 -0.3331  0.2271
 2033DOPC   GL223852  13.597  16.729  12.454  0.2305  0.2274 -0.0584
 2033DOPC   C1A23853  13.949  16.827  12.815 -0.1948  0.0213 -0.2132
 2033DOPC   D2A23854  14.257  17.045  13.129 -0.1399  0.3894  0.2446
 2033DOPC   C3A23855  14.569  16.965  13.480 -0.0224  0.1080  0.0980
 2033DOPC   C4A23856  14.999  17.043  13.611 -0.1749 -0.3202  0.0309
 2033DOPC   C1B23857  13.409  16.784  12.909 -0.3476  0.0904  0.0021
 2033DOPC   D2B23858  13.408  17.088  13.275  0.1988  0.1936 -0.0018
 2033DOPC   C3B23859  13.854  17.031  13.462  0.1092 -0.1449  0.0367
 2033DOPC   C4B23860  14.129  17.118  13.839  0.1797  0.1454  0.0409
 2034DOPS   CNO23861  16.604  20.453  11.908 -0.1840  0.0610 -0.1637
 2034DOPS   PO423862  16.375  20.320  12.175 -0.2017 -0.1227  0.0536
 2034DOPS   GL123863  16.586  20.548  12.379 -0.0755  0.2834  0.2117
 2034DOPS   GL223864  16.566  20.815  12.295  0.1819  0.1255  0.4306
 2034DOPS   C1A23865  16.764  20.427  12.809  0.1215 -0.0659  0.2083
 2034DOPS   D2A23866  17.162  20.511  13.026  0.2088  0.3192 -0.1653
 2034DOPS   C3A23867  17.257  20.175  13.269 -0.0421  0.1657 -0.0729
 2034DOPS   C4A23868  17.483  19.814  13.296 -0.2901  0.1482 -0.1141
 2034DOPS   C1B23869  17.015  20.947  12.321 -0.0784 -0.1593  0.0090
 2034DOPS   D2B23870  17.349  21.211  12.533  0.0038  0.0475 -0.0379
 2034DOPS   C3B23871  17.184  21.424  12.909 -0.0632  0.1363 -0.0719
 2034DOPS   C4B23872  17.384  21.653  13.250  0.2647 -0.0581 -0.4523
 2035POSM   NC323873  13.359  11.075  12.396 -0.2531  0.0486 -0.2295
 2035POSM   PO423874  13.091  11.347  12.281 -0.0071  0.1930 -0.1180
 2035POSM   AM123875  13.112  11.460  12.631  0.3378 -0.1676 -0.3296
 2035POSM   AM223876  12.933  11.575  12.810 -0.1198 -0.0020 -0.3450
 2035POSM   T1A23877  13.364  11.504  13.088  0.1536 -0.0466 -0.1556
 2035POSM   C2A23878  13.639  11.342  13.413 -0.1061 -0.2347 -0.3799
 2035POSM   C3A23879  13.525  11.234  13.810 -0.0971  0.2872 -0.0410
 2035POSM   C1B23880  12.826  11.467  13.108 -0.2341 -0.0495 -0.0924
 2035POSM   D2B23881  12.866  11.601  13.570 -0.3186  0.2482 -0.0602
 2035POSM   C3B23882  12.543  11.828  13.752  0.0544  0.5070  0.1308
 2035POSM   C4B23883  12.264  12.212  13.690  0.1588  0.1184  0.0253
 2036POSM   NC323884  16.157  22.395  11.960  0.2859  0.0245  0.1017
 2036POSM   PO423885  16.085  21.993  12.041  0.0283 -0.0717  0.0516
 2036POSM   AM123886  16.301  22.005  12.285 -0.0513  0.2923 -0.1766
 2036POSM   AM223887  16.438  22.233  12.403  0.0808 -0.2591 -0.1073
 2036POSM   T1A23888  16.328  21.892  12.755 -0.0020 -0.2162  0.1267
 2036POSM   C2A23889  16.561  22.156  13.091  0.1165 -0.0976 -0.2789
 2036POSM   C3A23890  16.786  22.515  13.213  0.1248 -0.0940  0.0032
 2036POSM   C1B23891  16.670  22.364  12.661  0.3733 -0.0000 -0.0393
 2036POSM   D2B23892  17.074  22.351  12.870  0.5591 -0.1012 -0.0309
 2036POSM   C3B23893  17.080  22.135  13.287  0.1920 -0.2948 -0.0463
 2036POSM   C4B23894  16.846  22.215  13.643  0.0745  0.3181  0.0614
 2037DOPE   NH323895   9.827  17.896  12.372 -0.1295 -0.1154  0.2018
 2037DOPE   PO423896  10.131  17.834  12.526 -0.1765 -0.4209 -0.3511
 2037DOPE   GL123897  10.476  17.638  12.403  0.1681 -0.4874 -0.3311
 2037DOPE   GL223898  10.680  17.609  12.207  0.0470 -0.0851  0.0149
 2037DOPE   C1A23899  10.727  17.405  12.705  0.0621 -0.0876  0.0808
 2037DOPE   D2A23900  10.746  17.158  13.051 -0.0661 -0.1684 -0.0584
 2037DOPE   C3A23901  10.313  17.041  13.072 -0.0988 -0.1865  0.3921
 2037DOPE   C4A23902   9.849  17.102  13.201  0.2479 -0.0602 -0.4119
 2037DOPE   C1B23903  10.992  17.836  12.472  0.1951 -0.3251  0.2075
 2037DOPE   D2B23904  11.157  18.103  12.696 -0.0933 -0.0054  0.2261
 2037DOPE   C3B23905  11.257  17.835  13.081  0.5051 -0.1899 -0.1556
 2037DOPE   C4B23906  10.989  17.813  13.471 -0.0561  0.0681 -0.0060
 2038DOPC   NC323907  17.556  10.983  12.632 -0.2162  0.1656 -0.1627
 2038DOPC   PO423908  17.317  11.124  12.363  0.1561  0.1888 -0.3571
 2038DOPC   GL123909  17.039  11.338  12.625 -0.2678  0.0720 -0.0371
 2038DOPC   GL223910  16.746  11.249  12.620 -0.1116 -0.0489 -0.1332
 2038DOPC   C1A23911  16.885  11.391  13.048  0.1419 -0.1062  0.0890
 2038DOPC   D2A23912  16.671  11.562  13.480  0.4206  0.4297 -0.0364
 2038DOPC   C3A23913  16.532  11.901  13.752 -0.2167 -0.0170 -0.1013
 2038DOPC   C4A23914  16.801  12.116  14.037 -0.1192  0.2219 -0.3850
 2038DOPC   C1B23915  16.305  11.150  12.555  0.3276  0.0651 -0.0677
 2038DOPC   D2B23916  15.882  11.134  12.786  0.2267 -0.1438  0.1783
 2038DOPC   C3B23917  15.554  11.380  12.529 -0.1785  0.2887  0.0629
 2038DOPC   C4B23918  15.314  11.487  12.154  0.2077 -0.1223 -0.1743
 2039POSM   NC323919  23.076  15.105  11.625  0.1897  0.0013 -0.4199
 2039POSM   PO423920  23.188  14.719  11.711  0.2736 -0.2031 -0.0819
 2039POSM   AM123921  22.950  14.763  11.948  0.6092  0.1662 -0.2728
 2039POSM   AM223922  22.852  14.574  12.154 -0.0979  0.1340  0.0263
 2039POSM   T1A23923  22.467  14.863  12.010 -0.0221  0.2836  0.1398
 2039POSM   C2A23924  22.018  14.687  11.935 -0.0371 -0.0397 -0.1632
 2039POSM   C3A23925  21.649  14.812  11.604 -0.0308  0.0101  0.0227
 2039POSM   C1B23926  22.763  14.754  12.479  0.0573 -0.2608  0.2182
 2039POSM   D2B23927  22.528  14.795  12.880 -0.1691  0.0958  0.3041
 2039POSM   C3B23928  22.200  14.663  13.165  0.0087  0.1801 -0.0989
 2039POSM   C4B23929  21.714  14.767  13.135  0.1264 -0.0599 -0.0495
 2040POSM   NC323930  17.003  19.365  11.904 -0.0236  0.1360  0.0627
 2040POSM   PO423931  16.630  19.532  11.862  0.1286 -0.1199  0.2879
 2040POSM   AM123932  16.523  19.343  12.151 -0.2981  0.0201  0.0995
 2040POSM   AM223933  16.483  19.307  12.406 -0.2888 -0.0653  0.1804
 2040POSM   T1A23934  16.605  18.844  12.233 -0.0559  0.0735  0.0310
 2040POSM   C2A23935  16.722  18.483  12.545 -0.0489 -0.0200 -0.0620
 2040POSM   C3A23936  17.167  18.538  12.701  0.2905 -0.0495  0.1012
 2040POSM   C1B23937  16.699  19.207  12.604  0.3808 -0.0686  0.3266
 2040POSM   D2B23938  16.891  19.034  12.985 -0.2670 -0.1889  0.2715
 2040POSM   C3B23939  17.301  18.827  13.129 -0.1144  0.0999 -0.0044
 2040POSM   C4B23940  17.359  18.630  13.509 -0.0466 -0.0416 -0.0489
 2041DOPC   NC323941  14.122  31.854  15.764 -0.2414  0.0023  0.2130
 2041DOPC   PO423942  13.692  31.912  15.674  0.2255  0.1915  0.2812
 2041DOPC   GL123943  13.809  31.786  15.310 -0.2875  0.0836  0.1077
 2041DOPC   GL223944  13.529  31.826  15.188  0.1627  0.0716 -0.0522
 2041DOPC   C1A23945  14.027  31.698  14.928  0.0681  0.1950  0.2711
 2041DOPC   D2A23946  13.850  31.800  14.508 -0.0588  0.2588  0.0482
 2041DOPC   C3A23947  13.812  31.990  14.105 -0.2355  0.0093  0.0445
 2041DOPC   C4A23948  13.881  32.276  13.760  0.2410 -0.3527  0.1998
 2041DOPC   C1B23949  13.461  31.790  14.743  0.1053 -0.2646 -0.3391
 2041DOPC   D2B23950  13.344  31.758  14.288 -0.1698  0.0919 -0.1108
 2041DOPC   C3B23951  13.353  31.877  13.845 -0.1136 -0.0243 -0.0867
 2041DOPC   C4B23952  13.368  32.233  13.472  0.2343 -0.0545  0.2684
 2042DOPC   NC323953  20.679  26.543  16.116  0.3818 -0.1476 -0.1037
 2042DOPC   PO423954  21.083  26.469  16.081 -0.2586  0.1908  0.1747
 2042DOPC   GL123955  20.935  26.399  15.706  0.0296 -0.3320  0.2904
 2042DOPC   GL223956  21.097  26.357  15.513 -0.1519  0.3278  0.1749
 2042DOPC   C1A23957  20.730  26.223  15.273 -0.4865 -0.3607  0.0632
 2042DOPC   D2A23958  20.949  26.095  14.912  0.0298 -0.5003 -0.1365
 2042DOPC   C3A23959  20.660  26.324  14.523  0.0154  0.3273 -0.2458
 2042DOPC   C4A23960  20.379  26.569  14.265 -0.1651 -0.1989  0.2385
 2042DOPC   C1B23961  21.360  26.283  15.094  0.0511  0.1243  0.2495
 2042DOPC   D2B23962  21.497  26.099  14.748 -0.2185  0.1503  0.2389
 2042DOPC   C3B23963  21.596  26.328  14.359 -0.1764 -0.2025 -0.0025
 2042DOPC   C4B23964  21.669  26.579  13.986 -0.2291  0.0529 -0.2505
 2043DOPE   NH323965  20.400  32.585  15.575 -0.2313  0.1117 -0.1811
 2043DOPE   PO423966  20.678  32.511  15.738 -0.2894 -0.1478 -0.0315
 2043DOPE   GL123967  20.786  32.720  15.322  0.1159 -0.0415 -0.0030
 2043DOPE   GL223968  20.509  32.660  15.131  0.2066 -0.0085  0.1074
 2043DOPE   C1A23969  21.203  32.582  15.137  0.0298  0.1857 -0.2578
 2043DOPE   D2A23970  21.629  32.677  14.932  0.2559 -0.2056  0.2287
 2043DOPE   C3A23971  21.726  32.300  14.665 -0.0769  0.2352 -0.0848
 2043DOPE   C4A23972  21.655  31.936  14.469  0.1827  0.2902  0.0535
 2043DOPE   C1B23973  20.378  32.817  14.702 -0.3778  0.0465  0.3232
 2043DOPE   D2B23974  20.221  32.661  14.232 -0.0708  0.0035 -0.2280
 2043DOPE   C3B23975  20.044  32.837  13.836  0.1826  0.2494 -0.1717
 2043DOPE   C4B23976  19.977  32.826  13.375 -0.0201  0.1178  0.0254
 2044DOPE   NH323977  12.459  32.087  15.362 -0.2727  0.1234  0.0676
 2044DOPE   PO423978  12.745  32.197  15.400  0.1663  0.1713  0.0727
 2044DOPE   GL123979  12.468  32.286  14.955  0.0324 -0.0513 -0.0193
 2044DOPE   GL223980  12.564  32.089  14.798 -0.1255 -0.2063  0.0361
 2044DOPE   C1A23981  12.806  32.536  14.759  0.2556  0.0435 -0.0151
 2044DOPE   D2A23982  13.251  32.786  14.681 -0.2661  0.0218  0.0400
 2044DOPE   C3A23983  13.534  33.071  14.376 -0.1350 -0.0470 -0.0356
 2044DOPE   C4A23984  13.730  32.872  14.001  0.1089  0.1151  0.0661
 2044DOPE   C1B23985  12.449  32.259  14.375  0.1364 -0.2618 -0.2870
 2044DOPE   D2B23986  12.500  32.151  13.931 -0.2567 -0.2799  0.2048
 2044DOPE   C3B23987  12.661  32.303  13.533 -0.2565  0.1960  0.2946
 2044DOPE   C4B23988  12.884  32.585  13.197 -0.1017 -0.1763 -0.0828
 2045DOPC   NC323989  20.630  34.070  15.161 -0.0142 -0.0448  0.3252
 2045DOPC   PO423990  20.390  34.119  15.458  0.1660  0.0792  0.1360
 2045DOPC   GL123991  20.236  34.269  15.073  0.3315  0.3190 -0.4775
 2045DOPC   GL223992  20.224  34.615  15.116 -0.2292 -0.1436  0.0128
 2045DOPC   C1A23993  20.500  34.242  14.666 -0.1516 -0.1166 -0.0705
 2045DOPC   D2A23994  20.673  34.056  14.251  0.0789 -0.1209 -0.3683
 2045DOPC   C3A23995  20.925  34.364  14.011 -0.0888  0.0667 -0.4717
 2045DOPC   C4A23996  21.321  34.622  13.826 -0.1180 -0.1896  0.0611
 2045DOPC   C1B23997  20.035  34.419  14.715 -0.0717 -0.1229 -0.0132
 2045DOPC   D2B23998  19.732  34.553  14.389 -0.2531  0.1990  0.3693
 2045DOPC   C3B23999  19.867  34.604  13.934 -0.1105 -0.2811  0.2554
 2045DOPC   C4B24000  19.897  34.274  13.579 -0.2578 -0.1343  0.2018
 2046DOPC   NC324001  22.208  32.270  15.858  0.0772 -0.0944  0.1497
 2046DOPC   PO424002  22.143  32.648  16.003  0.2468  0.2383 -0.0122
 2046DOPC   GL124003  22.192  32.714  15.621  0.0908 -0.2926  0.0402
 2046DOPC   GL224004  21.977  32.933  15.690  0.0795  0.0458 -0.0173
 2046DOPC   C1A24005  22.422  32.488  15.273 -0.1186  0.0033  0.0754
 2046DOPC   D2A24006  22.733  32.574  14.924  0.0706 -0.1272 -0.0928
 2046DOPC   C3A24007  22.746  33.066  14.889  0.0533  0.0848 -0.2241
 2046DOPC   C4A24008  22.540  33.493  14.905  0.1883  0.2195 -0.0601
 2046DOPC   C1B24009  22.088  32.887  15.241 -0.0482  0.0058  0.0978
 2046DOPC   D2B24010  22.098  32.980  14.807 -0.1850 -0.1869 -0.0319
 2046DOPC   C3B24011  21.870  32.761  14.470 -0.0439 -0.0752 -0.1444
 2046DOPC   C4B24012  21.686  32.864  14.090  0.1943  0.0705  0.6649
 2047POSM   NC324013  15.422  26.640  15.457  0.1329 -0.1919  0.3187
 2047POSM   PO424014  15.220  26.497  15.771 -0.1023  0.1147 -0.0774
 2047POSM   AM124015  14.961  26.498  15.551  0.1253  0.2327  0.3134
 2047POSM   AM224016  15.012  26.467  15.263 -0.0451 -0.1475  0.1296
 2047POSM   T1A24017  14.573  26.756  15.453 -0.2776  0.2354  0.3284
 2047POSM   C2A24018  14.122  26.894  15.515 -0.1532  0.1017 -0.1130
 2047POSM   C3A24019  13.793  27.212  15.420 -0.1201 -0.2294 -0.1039
 2047POSM   C1B24020  15.065  26.232  15.020 -0.4209  0.0119 -0.0350
 2047POSM   D2B24021  15.147  25.808  14.861 -0.0677 -0.0776  0.0239
 2047POSM   C3B24022  15.078  25.525  14.461  0.0720  0.1221  0.0067
 2047POSM   C4B24023  15.279  25.395  14.076  0.2816  0.0323 -0.5040
 2048DOPS   CNO24024  19.563  33.174  16.133 -0.0792 -0.0952 -0.4973
 2048DOPS   PO424025  19.566  32.974  15.798 -0.0625 -0.0496 -0.1680
 2048DOPS   GL124026  19.534  32.810  15.514  0.0689 -0.2038  0.3794
 2048DOPS   GL224027  19.300  32.540  15.482  0.0667  0.0630 -0.1271
 2048DOPS   C1A24028  19.487  32.881  15.055  0.2492 -0.1139  0.3355
 2048DOPS   D2A24029  19.773  33.100  14.750 -0.0757 -0.1487 -0.0053
 2048DOPS   C3A24030  19.728  33.519  14.483  0.3577  0.1307  0.1706
 2048DOPS   C4A24031  19.758  34.017  14.382 -0.1843 -0.1956 -0.0562
 2048DOPS   C1B24032  19.546  32.423  15.143  0.0281 -0.2299  0.1021
 2048DOPS   D2B24033  19.624  32.156  14.698 -0.1156  0.1764 -0.0843
 2048DOPS   C3B24034  19.907  32.131  14.308 -0.1263  0.3676  0.1285
 2048DOPS   C4B24035  19.867  31.860  13.976 -0.2670 -0.2878  0.2060
 2049DOPC   NC324036  16.852  25.605  15.878  0.2262 -0.0366  0.0265
 2049DOPC   PO424037  16.967  25.964  16.002 -0.0115  0.2814 -0.3044
 2049DOPC   GL124038  16.923  26.101  15.586  0.1236  0.3127 -0.2076
 2049DOPC   GL224039  16.733  25.902  15.470 -0.0507 -0.2334 -0.2540
 2049DOPC   C1A24040  17.141  26.033  15.181 -0.1537  0.0347 -0.0443
 2049DOPC   D2A24041  17.325  26.020  14.745  0.3493  0.3378  0.0082
 2049DOPC   C3A24042  17.638  25.715  14.551 -0.0846 -0.0032  0.2921
 2049DOPC   C4A24043  17.944  25.534  14.274  0.3166  0.1117  0.4796
 2049DOPC   C1B24044  16.487  25.870  15.093 -0.0995 -0.2748  0.1337
 2049DOPC   D2B24045  16.008  25.761  14.995 -0.0677  0.0363  0.2777
 2049DOPC   C3B24046  15.647  26.001  14.904  0.1485  0.1174  0.0086
 2049DOPC   C4B24047  15.556  26.401  15.018 -0.1618  0.0474 -0.1255
 2050DOPE   NH324048  13.909  28.684  16.070  0.0751  0.1264  0.3091
 2050DOPE   PO424049  14.078  28.916  15.910 -0.1580  0.1898 -0.0564
 2050DOPE   GL124050  14.058  28.784  15.532  0.1622 -0.1314 -0.0335
 2050DOPE   GL224051  14.131  29.060  15.401 -0.1918 -0.3867  0.0646
 2050DOPE   C1A24052  13.722  28.820  15.206 -0.2657 -0.0906 -0.3524
 2050DOPE   D2A24053  13.682  28.886  14.777 -0.0074 -0.0822 -0.0050
 2050DOPE   C3A24054  13.433  28.781  14.418 -0.0846 -0.2284 -0.0277
 2050DOPE   C4A24055  13.360  28.995  14.004 -0.2316 -0.2194  0.2469
 2050DOPE   C1B24056  14.108  29.117  14.948  0.3446 -0.2013 -0.3924
 2050DOPE   D2B24057  14.252  29.099  14.567  0.0984 -0.1873  0.2218
 2050DOPE   C3B24058  14.607  28.831  14.384  0.0276 -0.1724  0.0299
 2050DOPE   C4B24059  14.986  28.697  14.165 -0.1764  0.1745  0.1782
 2051POSM   NC324060  20.066  31.918  16.224  0.0022 -0.1421 -0.0607
 2051POSM   PO424061  19.801  31.876  15.907 -0.1618 -0.2311 -0.2406
 2051POSM   AM124062  20.042  31.886  15.659  0.2115  0.4433  0.2751
 2051POSM   AM224063  20.081  32.165  15.525  0.2041 -0.1025 -0.2554
 2051POSM   T1A24064  20.278  31.650  15.333 -0.3723 -0.2031 -0.0286
 2051POSM   C2A24065  20.355  31.496  14.904 -0.4803 -0.0483 -0.1164
 2051POSM   C3A24066  20.391  31.409  14.455 -0.2837  0.0168 -0.0669
 2051POSM   C1B24067  20.094  32.207  15.171  0.1724  0.2135  0.4157
 2051POSM   D2B24068  20.137  32.319  14.732  0.1266  0.0302 -0.0841
 2051POSM   C3B24069  20.596  32.320  14.534 -0.0955  0.1039 -0.1707
 2051POSM   C4B24070  20.880  32.355  14.166 -0.0942 -0.3071  0.0019
 2052DOPS   CNO24071  16.554  33.861  15.924 -0.1945 -0.3600 -0.1405
 2052DOPS   PO424072  16.524  34.212  15.729 -0.1262  0.1078 -0.2149
 2052DOPS   GL124073  16.639  34.356  15.323  0.1392 -0.0884 -0.4717
 2052DOPS   GL224074  16.698  34.611  15.401 -0.2243 -0.3208  0.0814
 2052DOPS   C1A24075  16.883  34.164  14.980 -0.0410 -0.2007  0.0115
 2052DOPS   D2A24076  17.126  33.921  14.614 -0.0514 -0.1918  0.1169
 2052DOPS   C3A24077  17.374  34.198  14.343  0.0695  0.3389  0.4151
 2052DOPS   C4A24078  17.648  34.199  13.951  0.1337  0.0807 -0.1634
 2052DOPS   C1B24079  17.029  34.648  15.051  0.1462 -0.0162 -0.1445
 2052DOPS   D2B24080  17.068  34.722  14.631 -0.1160 -0.3023  0.1242
 2052DOPS   C3B24081  16.905  34.351  14.419 -0.0983 -0.0822  0.2503
 2052DOPS   C4B24082  16.888  34.092  14.105 -0.0776 -0.2205  0.1676
 2053DOPC   NC324083  21.713  26.200  15.483  0.0672 -0.0642  0.1903
 2053DOPC   PO424084  21.584  25.935  15.692 -0.4714  0.3947 -0.0889
 2053DOPC   GL124085  21.783  25.650  15.392 -0.2300 -0.0511 -0.1068
 2053DOPC   GL224086  21.665  25.427  15.270  0.2769  0.3781  0.1018
 2053DOPC   C1A24087  22.174  25.502  15.166  0.0767  0.2660  0.2311
 2053DOPC   D2A24088  22.474  25.343  14.868  0.0235 -0.2479 -0.1318
 2053DOPC   C3A24089  22.227  25.079  14.591 -0.2105  0.0620 -0.0810
 2053DOPC   C4A24090  21.959  24.798  14.281  0.1752 -0.1889  0.0129
 2053DOPC   C1B24091  21.454  25.184  15.001  0.1602 -0.2057  0.0651
 2053DOPC   D2B24092  21.320  25.246  14.589  0.0066 -0.1664  0.2854
 2053DOPC   C3B24093  21.516  25.284  14.167  0.1126 -0.0566  0.1934
 2053DOPC   C4B24094  21.472  25.257  13.711 -0.2063 -0.1871 -0.4454
 2054DOPE   NH324095  17.871  28.232  16.296 -0.0287  0.1037 -0.1145
 2054DOPE   PO424096  17.800  27.951  16.415  0.0947  0.0215 -0.0521
 2054DOPE   GL124097  17.611  27.867  16.034 -0.2112 -0.1244 -0.4419
 2054DOPE   GL224098  17.501  28.054  15.824  0.2249 -0.2448  0.0628
 2054DOPE   C1A24099  17.468  27.566  15.691 -0.0483  0.2492 -0.0396
 2054DOPE   D2A24100  17.207  27.483  15.270 -0.2137  0.0542  0.0750
 2054DOPE   C3A24101  17.470  27.287  14.944  0.0238 -0.1293 -0.0013
 2054DOPE   C4A24102  17.484  26.945  14.657 -0.3894  0.0641 -0.1889
 2054DOPE   C1B24103  17.404  28.268  15.392 -0.0162  0.1174 -0.1091
 2054DOPE   D2B24104  17.623  28.410  14.984  0.0575  0.4770 -0.1877
 2054DOPE   C3B24105  17.847  28.508  14.605 -0.1635  0.2324 -0.2022
 2054DOPE   C4B24106  18.077  28.816  14.387  0.0136  0.1326 -0.1948
 2055DOPE   NH324107  16.834  28.311  16.382 -0.1618 -0.1582 -0.1284
 2055DOPE   PO424108  16.669  28.284  16.126  0.1499 -0.2679 -0.1565
 2055DOPE   GL124109  16.657  28.281  15.633  0.1201  0.2232  0.1851
 2055DOPE   GL224110  16.361  28.277  15.380  0.0113  0.0505  0.0612
 2055DOPE   C1A24111  16.967  28.343  15.226 -0.1038 -0.1156  0.2384
 2055DOPE   D2A24112  17.065  28.466  14.769  0.0381 -0.0253  0.3723
 2055DOPE   C3A24113  17.020  28.404  14.364  0.0933  0.2452  0.0870
 2055DOPE   C4A24114  16.875  28.200  13.939 -0.5016  0.3820  0.1108
 2055DOPE   C1B24115  16.446  28.408  14.961 -0.1109  0.1000  0.0505
 2055DOPE   D2B24116  16.236  28.457  14.513 -0.1314 -0.2946  0.0566
 2055DOPE   C3B24117  16.597  28.527  14.151 -0.0762  0.0848  0.3694
 2055DOPE   C4B24118  16.835  28.779  13.823  0.0672  0.2276 -0.0363
 2056DOPC   NC324119  19.076  33.202  15.921 -0.0585 -0.3400 -0.1473
 2056DOPC   PO424120  18.989  33.551  15.823 -0.0817 -0.0682 -0.1312
 2056DOPC   GL124121  19.073  33.413  15.422  0.2021 -0.0134  0.1348
 2056DOPC   GL224122  19.320  33.273  15.424 -0.2243  0.0867  0.0880
 2056DOPC   C1A24123  18.848  33.457  15.038 -0.1086  0.0046  0.1492
 2056DOPC   D2A24124  18.487  33.452  14.799  0.1044  0.1945  0.0565
 2056DOPC   C3A24125  18.660  33.255  14.433 -0.3453 -0.0079 -0.0451
 2056DOPC   C4A24126  18.851  32.938  14.197  0.0028  0.0033  0.0101
 2056DOPC   C1B24127  19.442  33.730  15.371  0.0568  0.2286 -0.0371
 2056DOPC   D2B24128  19.576  33.996  14.973 -0.1554 -0.3510 -0.1000
 2056DOPC   C3B24129  19.574  34.487  14.952 -0.0413  0.3095  0.0219
 2056DOPC   C4B24130  19.702  34.875  14.779  0.1314 -0.1676 -0.3020
 2057POSM   NC324131  20.954  29.344  15.888  0.0327 -0.1577 -0.0429
 2057POSM   PO424132  21.019  29.687  16.129  0.0152 -0.0563  0.1027
 2057POSM   AM124133  20.723  29.722  15.968  0.0071  0.3546 -0.1122
 2057POSM   AM224134  20.558  29.589  15.748  0.3501 -0.0404 -0.0458
 2057POSM   T1A24135  20.614  30.047  15.573 -0.1041  0.2448  0.0693
 2057POSM   C2A24136  20.647  30.225  15.197  0.2574  0.0803  0.2515
 2057POSM   C3A24137  20.581  29.938  14.905  0.4547 -0.1495 -0.1521
 2057POSM   C1B24138  20.614  29.551  15.390 -0.2038  0.0769 -0.1114
 2057POSM   D2B24139  20.877  29.514  14.994 -0.1039  0.0734 -0.1526
 2057POSM   C3B24140  21.198  29.831  14.983 -0.1053 -0.0508 -0.1088
 2057POSM   C4B24141  21.572  30.032  15.206 -0.1725  0.2292  0.1869
 2058DOPE   NH324142  12.550  32.657  15.187 -0.0804 -0.1453  0.1391
 2058DOPE   PO424143  12.234  32.597  15.225  0.3429 -0.2222  0.2933
 2058DOPE   GL124144  12.242  32.736  14.859  0.1556  0.1593 -0.3875
 2058DOPE   GL224145  12.048  32.541  14.719 -0.4388 -0.3272  0.1325
 2058DOPE   C1A24146  12.427  32.752  14.444  0.0929 -0.1229 -0.3504
 2058DOPE   D2A24147  12.829  32.549  14.235 -0.2512  0.0136 -0.2999
 2058DOPE   C3A24148  13.214  32.247  14.416 -0.0630 -0.0435 -0.2365
 2058DOPE   C4A24149  13.693  32.327  14.479 -0.2859  0.0660  0.2329
 2058DOPE   C1B24150  11.915  32.825  14.409  0.1534  0.3955  0.2843
 2058DOPE   D2B24151  11.662  33.011  14.016 -0.1011 -0.3271  0.0514
 2058DOPE   C3B24152  11.712  33.223  13.591 -0.1703 -0.2102  0.0366
 2058DOPE   C4B24153  11.813  33.466  13.265 -0.0190 -0.3583  0.0650
 2059DOPS   CNO24154  16.821  24.614  15.645 -0.0513  0.2750  0.0939
 2059DOPS   PO424155  16.578  24.322  15.649 -0.1936 -0.3304  0.1336
 2059DOPS   GL124156  16.458  24.512  15.327  0.1803 -0.0548  0.1769
 2059DOPS   GL224157  16.439  24.849  15.352 -0.1031 -0.2596  0.2185
 2059DOPS   C1A24158  16.264  24.425  14.973  0.0189 -0.2954 -0.1250
 2059DOPS   D2A24159  16.346  24.566  14.552  0.1280  0.2813 -0.1819
 2059DOPS   C3A24160  16.273  24.305  14.173  0.1819 -0.1405  0.0536
 2059DOPS   C4A24161  16.398  24.341  13.740 -0.0116 -0.1604 -0.0922
 2059DOPS   C1B24162  16.372  24.964  14.900 -0.0617  0.2221  0.3994
 2059DOPS   D2B24163  16.367  25.102  14.432  0.0207  0.2125  0.1983
 2059DOPS   C3B24164  16.320  24.847  14.055 -0.0580  0.1348  0.2087
 2059DOPS   C4B24165  16.018  24.725  13.725 -0.0931 -0.2207  0.1674
 2060POSM   NC324166  18.993  31.063  15.979  0.1060  0.3212 -0.0498
 2060POSM   PO424167  18.987  31.372  16.231  0.2694 -0.0682  0.1420
 2060POSM   AM124168  18.838  31.497  15.921 -0.2893 -0.0906  0.2240
 2060POSM   AM224169  18.952  31.640  15.726  0.0699 -0.1369  0.1572
 2060POSM   T1A24170  18.649  31.235  15.553 -0.1378  0.3766 -0.0395
 2060POSM   C2A24171  18.808  30.801  15.577 -0.2230 -0.0308  0.0405
 2060POSM   C3A24172  18.667  30.330  15.457  0.1279  0.2623 -0.3676
 2060POSM   C1B24173  18.871  31.646  15.424  0.1117 -0.2805 -0.1802
 2060POSM   D2B24174  18.931  31.609  14.936  0.0069 -0.2554 -0.1307
 2060POSM   C3B24175  18.663  31.666  14.545 -0.0413  0.1711  0.2536
 2060POSM   C4B24176  18.415  31.653  14.200 -0.1360 -0.3888 -0.0552
 2061POSM   NC324177  16.365  31.391  15.463  0.1139  0.2412 -0.2758
 2061POSM   PO424178  16.461  31.673  15.689 -0.1761 -0.2372  0.0298
 2061POSM   AM124179  16.351  31.849  15.476 -0.0468 -0.0790 -0.1762
 2061POSM   AM224180  16.489  32.033  15.310 -0.0927 -0.1010  0.0862
 2061POSM   T1A24181  16.128  31.750  15.046  0.2068  0.1073  0.0820
 2061POSM   C2A24182  15.898  31.511  14.751  0.1979 -0.0395  0.1925
 2061POSM   C3A24183  15.444  31.332  14.880 -0.3327  0.5373 -0.6190
 2061POSM   C1B24184  16.470  32.095  14.979 -0.1294  0.0758  0.0966
 2061POSM   D2B24185  16.709  31.894  14.613 -0.3145 -0.0426 -0.2370
 2061POSM   C3B24186  16.641  31.869  14.188 -0.1619  0.1405 -0.3324
 2061POSM   C4B24187  16.738  31.636  13.772 -0.0273  0.2595 -0.2459
 2062DOPC   NC324188  14.412  24.206  16.506  0.1653 -0.1175  0.1960
 2062DOPC   PO424189  14.249  24.165  16.123 -0.0213 -0.0838  0.2197
 2062DOPC   GL124190  14.297  24.119  15.708  0.1357  0.2728 -0.2438
 2062DOPC   GL224191  14.437  23.854  15.691 -0.0880  0.1020  0.1804
 2062DOPC   C1A24192  13.989  24.077  15.406 -0.1812  0.2627  0.1391
 2062DOPC   D2A24193  13.733  24.258  15.119 -0.2864 -0.3305 -0.0967
 2062DOPC   C3A24194  13.800  24.047  14.656  0.0413 -0.2184  0.0200
 2062DOPC   C4A24195  14.035  23.707  14.483  0.0602  0.0417  0.2689
 2062DOPC   C1B24196  14.572  23.886  15.209  0.3166 -0.2021  0.4133
 2062DOPC   D2B24197  14.628  23.665  14.820  0.0464 -0.1767  0.1678
 2062DOPC   C3B24198  14.557  23.662  14.383 -0.1663  0.2616 -0.2176
 2062DOPC   C4B24199  14.311  23.846  14.044 -0.3925  0.1060  0.2359
 2063DOPS   CNO24200  19.608  27.425  16.231 -0.0471  0.1326  0.3989
 2063DOPS   PO424201  19.507  27.085  16.177 -0.1307  0.4642  0.1386
 2063DOPS   GL124202  19.328  26.989  15.918  0.1080  0.0183 -0.3679
 2063DOPS   GL224203  19.085  26.772  15.998 -0.0833  0.2355 -0.0491
 2063DOPS   C1A24204  19.292  26.709  15.536 -0.2444  0.1217 -0.0956
 2063DOPS   D2A24205  18.926  26.734  15.172  0.0149 -0.4167 -0.2748
 2063DOPS   C3A24206  18.881  26.523  14.740 -0.0021 -0.1180 -0.1808
 2063DOPS   C4A24207  19.084  26.162  14.564  0.0038  0.1593 -0.1576
 2063DOPS   C1B24208  18.905  26.999  15.628  0.3569 -0.0509 -0.1879
 2063DOPS   D2B24209  18.960  27.363  15.394 -0.1153 -0.0339 -0.0925
 2063DOPS   C3B24210  19.283  27.559  15.231  0.0187  0.1253  0.1321
 2063DOPS   C4B24211  19.533  27.897  15.036 -0.2064  0.2380 -0.1084
 2064DOPE   NH324212  20.624  33.054  15.801 -0.4169 -0.1354 -0.3304
 2064DOPE   PO424213  20.540  33.075  15.533 -0.0979 -0.0527  0.1387
 2064DOPE   GL124214  20.595  33.113  15.098 -0.3582  0.3598 -0.2266
 2064DOPE   GL224215  20.328  33.194  15.010  0.2489  0.3771 -0.0102
 2064DOPE   C1A24216  20.850  33.328  14.752 -0.0459  0.2327  0.2139
 2064DOPE   D2A24217  20.712  33.597  14.316  0.1567  0.0735  0.0351
 2064DOPE   C3A24218  20.794  33.329  13.924  0.1117 -0.1900  0.1098
 2064DOPE   C4A24219  20.939  33.308  13.514 -0.0486 -0.3580 -0.1707
 2064DOPE   C1B24220  20.200  33.272  14.582 -0.1209 -0.1508 -0.2911
 2064DOPE   D2B24221  19.846  33.065  14.242  0.2594  0.3516  0.3672
 2064DOPE   C3B24222  19.534  33.049  13.877  0.0542 -0.2517  0.0586
 2064DOPE   C4B24223  19.402  32.972  13.475 -0.3195  0.1097  0.0528
 2065POSM   NC324224  21.926  28.513  15.977 -0.0176  0.0913 -0.1674
 2065POSM   PO424225  21.608  28.726  15.790 -0.3120  0.0819 -0.1059
 2065POSM   AM124226  21.733  28.797  15.492  0.0537  0.0361 -0.1610
 2065POSM   AM224227  21.668  29.053  15.385  0.0174 -0.1054  0.0932
 2065POSM   T1A24228  21.533  28.714  14.999 -0.0974  0.2639 -0.1912
 2065POSM   C2A24229  21.700  28.448  14.655  0.3186 -0.2258 -0.0503
 2065POSM   C3A24230  21.942  28.233  14.383  0.2319  0.1003  0.1775
 2065POSM   C1B24231  21.835  29.140  15.100 -0.0778 -0.2959 -0.2745
 2065POSM   D2B24232  22.018  29.379  14.746  0.1287 -0.3774 -0.1605
 2065POSM   C3B24233  22.196  29.323  14.327 -0.1168 -0.1834  0.1463
 2065POSM   C4B24234  21.916  29.038  14.075  0.0497 -0.0815 -0.0463
 2066POSM   NC324235  22.980  24.900  15.730 -0.2296 -0.0196 -0.1562
 2066POSM   PO424236  22.602  24.972  15.758 -0.2131  0.1805  0.0619
 2066POSM   AM124237  22.582  24.816  15.472 -0.0384 -0.0478  0.0670
 2066POSM   AM224238  22.706  24.879  15.243 -0.1320  0.1454 -0.0501
 2066POSM   T1A24239  22.275  24.570  15.132 -0.0105  0.1150 -0.1049
 2066POSM   C2A24240  22.251  24.540  14.713  0.1105 -0.0170  0.1357
 2066POSM   C3A24241  22.647  24.306  14.579 -0.0814 -0.1767 -0.1565
 2066POSM   C1B24242  22.665  24.856  14.926  0.2446 -0.2868 -0.3962
 2066POSM   D2B24243  22.640  24.843  14.441  0.2600 -0.0590 -0.0058
 2066POSM   C3B24244  22.425  24.572  14.072 -0.0401  0.1587 -0.0281
 2066POSM   C4B24245  22.028  24.404  13.902 -0.0618 -0.2718  0.0482
 2067DOPC   NC324246  13.257  32.242  15.595  0.2341  0.1647 -0.1162
 2067DOPC   PO424247  13.192  31.830  15.579  0.2953 -0.1396  0.2419
 2067DOPC   GL124248  13.086  31.704  15.188 -0.0659 -0.2364  0.2881
 2067DOPC   GL224249  12.802  31.752  15.135  0.0482  0.1189 -0.1580
 2067DOPC   C1A24250  12.986  31.400  14.819  0.1451 -0.2585  0.2651
 2067DOPC   D2A24251  13.180  31.315  14.414 -0.2452 -0.0737 -0.1842
 2067DOPC   C3A24252  12.761  31.344  14.173 -0.0454  0.3598  0.0174
 2067DOPC   C4A24253  12.335  31.296  14.053 -0.3240 -0.1862 -0.0577
 2067DOPC   C1B24254  13.018  32.015  14.803 -0.0661 -0.3100  0.0750
 2067DOPC   D2B24255  13.357  32.297  14.978  0.0277 -0.2611  0.0528
 2067DOPC   C3B24256  13.808  32.198  14.942 -0.2173 -0.2014  0.2583
 2067DOPC   C4B24257  14.175  32.115  15.201  0.4880  0.0971 -0.1059
 2068DOPC   NC324258  12.796  25.549  15.891 -0.0793 -0.2289 -0.0108
 2068DOPC   PO424259  13.041  25.492  15.638  0.1962  0.0080  0.3711
 2068DOPC   GL124260  13.110  25.469  15.246  0.1270 -0.1709  0.2630
 2068DOPC   GL224261  13.191  25.347  15.026  0.1991 -0.0382  0.0536
 2068DOPC   C1A24262  13.084  25.838  14.935  0.1780 -0.1084 -0.0954
 2068DOPC   D2A24263  12.970  26.274  14.734 -0.0037  0.0712 -0.1915
 2068DOPC   C3A24264  12.717  26.631  14.853 -0.0775  0.1926 -0.0327
 2068DOPC   C4A24265  12.294  26.742  14.735  0.2594 -0.0113 -0.1466
 2068DOPC   C1B24266  13.267  25.044  14.697  0.1332  0.3537 -0.1826
 2068DOPC   D2B24267  13.323  24.922  14.202  0.1032  0.2268 -0.3051
 2068DOPC   C3B24268  12.934  25.046  13.893 -0.0323  0.2449  0.2033
 2068DOPC   C4B24269  12.697  25.277  13.603  0.0246  0.2334  0.0115
 2069POSM   NC324270  18.608  23.235  15.790 -0.0364  0.0375 -0.3285
 2069POSM   PO424271  18.219  23.372  15.832 -0.3232 -0.0745  0.0245
 2069POSM   AM124272  18.204  23.220  15.553  0.1373  0.0055  0.0029
 2069POSM   AM224273  18.118  23.335  15.350 -0.0303 -0.1180  0.0823
 2069POSM   T1A24274  18.431  23.002  15.149  0.2936 -0.2334  0.0750
 2069POSM   C2A24275  18.187  22.836  14.844  0.0523  0.1558  0.2077
 2069POSM   C3A24276  18.066  22.579  14.460 -0.1614 -0.1141  0.1181
 2069POSM   C1B24277  18.285  23.477  15.088 -0.0479  0.1833  0.2139
 2069POSM   D2B24278  18.371  23.599  14.625 -0.1602  0.2966  0.2353
 2069POSM   C3B24279  18.384  23.650  14.168  0.2170 -0.1969  0.0000
 2069POSM   C4B24280  18.165  23.551  13.723  0.1243 -0.2241  0.2186
 2070POSM   NC324281  23.378  28.081  15.723  0.1558 -0.0787  0.1273
 2070POSM   PO424282  22.985  28.154  15.842  0.0278 -0.4393 -0.0693
 2070POSM   AM124283  22.979  28.234  15.529 -0.2037  0.0085 -0.0643
 2070POSM   AM224284  22.979  28.501  15.424  0.1032  0.0379  0.2449
 2070POSM   T1A24285  22.762  28.102  15.081 -0.1141 -0.0484  0.1099
 2070POSM   C2A24286  22.486  27.754  15.003 -0.0910  0.1653  0.1185
 2070POSM   C3A24287  22.315  27.362  14.801  0.0869 -0.0925 -0.0313
 2070POSM   C1B24288  23.109  28.561  15.120 -0.1119  0.2944  0.2125
 2070POSM   D2B24289  23.205  28.742  14.725 -0.2327  0.0389 -0.0337
 2070POSM   C3B24290  23.093  28.901  14.309 -0.0732 -0.0871  0.4106
 2070POSM   C4B24291  23.035  29.168  13.920  0.1408 -0.2689 -0.0135
 2071DOPE   NH324292  21.388  34.507  15.278 -0.0223  0.4059  0.0620
 2071DOPE   PO424293  21.577  34.437  15.529 -0.0713 -0.0930 -0.2531
 2071DOPE   GL124294  21.800  34.116  15.333  0.1022 -0.1932 -0.1243
 2071DOPE   GL224295  21.798  33.920  15.565 -0.0039  0.0856 -0.3313
 2071DOPE   C1A24296  22.138  33.863  15.115 -0.1151 -0.0530  0.0592
 2071DOPE   D2A24297  22.067  33.432  14.891  0.0604  0.0181 -0.1527
 2071DOPE   C3A24298  22.244  33.388  14.480  0.0807  0.3705 -0.1275
 2071DOPE   C4A24299  22.217  33.026  14.222  0.0272 -0.2079  0.1553
 2071DOPE   C1B24300  21.691  33.633  15.234  0.2039 -0.0577  0.1093
 2071DOPE   D2B24301  21.547  33.860  14.831 -0.1675 -0.2758  0.0026
 2071DOPE   C3B24302  21.291  33.519  14.580 -0.0125 -0.3692  0.0058
 2071DOPE   C4B24303  21.060  33.294  14.304 -0.0638 -0.0308 -0.4322
 2072DOPC   NC324304  18.285  32.768  15.857 -0.0297  0.1669 -0.1715
 2072DOPC   PO424305  18.263  32.421  15.670 -0.2275 -0.6189  0.1124
 2072DOPC   GL124306  18.187  32.398  15.265  0.0124  0.1453  0.1992
 2072DOPC   GL224307  18.466  32.451  15.234 -0.1103 -0.1266 -0.0008
 2072DOPC   C1A24308  18.202  32.754  14.985 -0.0437 -0.0994 -0.2323
 2072DOPC   D2A24309  18.282  33.030  14.659  0.0093  0.1275  0.2816
 2072DOPC   C3A24310  18.324  32.822  14.250 -0.1042 -0.1317  0.1454
 2072DOPC   C4A24311  18.275  32.823  13.778  0.1188  0.2195 -0.0330
 2072DOPC   C1B24312  18.872  32.395  15.054 -0.4618 -0.0790  0.2863
 2072DOPC   D2B24313  19.204  32.501  14.744  0.2219  0.0470 -0.1463
 2072DOPC   C3B24314  19.359  32.369  14.332  0.1530 -0.2857 -0.0876
 2072DOPC   C4B24315  19.497  32.261  13.828 -0.2525  0.0382  0.1993
 2073DOPE   NH324316  19.825  28.839  16.244 -0.3816  0.0017 -0.0844
 2073DOPE   PO424317  19.533  28.838  16.199  0.4886  0.5650 -0.2383
 2073DOPE   GL124318  19.630  28.890  15.790 -0.0137  0.1827  0.0959
 2073DOPE   GL224319  19.305  28.724  15.633  0.2620  0.2643  0.1645
 2073DOPE   C1A24320  19.437  29.275  15.579 -0.1687  0.0139 -0.1256
 2073DOPE   D2A24321  19.392  29.682  15.394 -0.2269  0.0486  0.2409
 2073DOPE   C3A24322  19.309  29.670  14.924 -0.0516  0.1251 -0.3843
 2073DOPE   C4A24323  19.075  29.846  14.626 -0.1355 -0.1084  0.3267
 2073DOPE   C1B24324  18.943  28.969  15.397  0.0177  0.3696  0.0461
 2073DOPE   D2B24325  18.609  29.049  15.143 -0.0557 -0.0105 -0.0230
 2073DOPE   C3B24326  18.679  28.992  14.657  0.0767  0.3339  0.1181
 2073DOPE   C4B24327  18.558  28.952  14.231 -0.3967  0.1810 -0.2626
 2074DOPE   NH324328  22.699  26.516  15.616  0.1158  0.0736  0.3221
 2074DOPE   PO424329  22.420  26.341  15.597  0.1701  0.2101 -0.0344
 2074DOPE   GL124330  22.457  26.285  15.220  0.1067  0.1120  0.0225
 2074DOPE   GL224331  22.782  26.263  15.173  0.2491 -0.0932 -0.3871
 2074DOPE   C1A24332  22.076  26.011  15.064 -0.2535  0.1930 -0.2410
 2074DOPE   D2A24333  21.774  25.686  14.848 -0.2951  0.1699  0.0701
 2074DOPE   C3A24334  21.646  25.723  14.398 -0.0290  0.0007  0.0801
 2074DOPE   C4A24335  21.346  25.753  14.001 -0.1508  0.2352  0.1980
 2074DOPE   C1B24336  22.621  25.974  14.901  0.2748 -0.4514 -0.0079
 2074DOPE   D2B24337  22.277  25.803  14.697  0.2892  0.1081 -0.2764
 2074DOPE   C3B24338  22.019  26.119  14.565  0.0236  0.1515  0.1323
 2074DOPE   C4B24339  22.053  26.545  14.314  0.0586 -0.1662  0.1183
 2075DOPE   NH324340  18.800  26.014  16.474  0.3262  0.1094  0.0118
 2075DOPE   PO424341  18.563  25.830  16.374  0.1753 -0.4722 -0.1711
 2075DOPE   GL124342  18.704  25.899  15.981 -0.1543  0.5774 -0.2485
 2075DOPE   GL224343  18.852  26.155  15.979 -0.0438 -0.0189  0.2250
 2075DOPE   C1A24344  18.576  26.029  15.543  0.1406  0.0259  0.3121
 2075DOPE   D2A24345  18.709  26.195  15.129  0.2141  0.0684  0.1366
 2075DOPE   C3A24346  18.460  26.092  14.747  0.1759 -0.1754  0.0950
 2075DOPE   C4A24347  18.203  25.916  14.447  0.2479 -0.2942 -0.0184
 2075DOPE   C1B24348  18.897  26.484  15.613 -0.1314  0.0568  0.3322
 2075DOPE   D2B24349  18.528  26.702  15.500  0.0536 -0.0158  0.1982
 2075DOPE   C3B24350  18.421  26.637  15.012  0.1588  0.0562  0.1153
 2075DOPE   C4B24351  18.182  26.488  14.674  0.0120  0.0413  0.0345
 2076DOPS   CNO24352  11.742  29.117  15.531 -0.0262  0.2689 -0.1865
 2076DOPS   PO424353  11.824  28.772  15.702  0.2066  0.0155  0.0033
 2076DOPS   GL124354  12.144  28.818  15.513 -0.0002 -0.2687  0.1604
 2076DOPS   GL224355  12.305  28.583  15.446 -0.3060 -0.1238 -0.0701
 2076DOPS   C1A24356  12.452  29.051  15.207 -0.1874 -0.0275  0.0883
 2076DOPS   D2A24357  12.722  29.378  15.113 -0.2577  0.0115 -0.0928
 2076DOPS   C3A24358  12.795  29.370  14.654  0.0340  0.0658 -0.0077
 2076DOPS   C4A24359  13.038  29.136  14.341 -0.1660 -0.3525  0.2417
 2076DOPS   C1B24360  12.121  28.673  15.031 -0.1249 -0.0107  0.2968
 2076DOPS   D2B24361  12.143  28.942  14.687 -0.0824  0.0490 -0.3499
 2076DOPS   C3B24362  12.548  28.915  14.406 -0.0730  0.2878  0.0817
 2076DOPS   C4B24363  12.881  28.586  14.377  0.0335  0.0652  0.0411
 2077DOPE   NH324364  18.062  29.393  16.274  0.2204 -0.3645 -0.0733
 2077DOPE   PO424365  18.210  29.631  16.264  0.2093 -0.1815  0.1740
 2077DOPE   GL124366  18.041  29.989  16.098 -0.0747  0.4085  0.0932
 2077DOPE   GL224367  17.754  30.109  15.993 -0.0126  0.1918  0.1662
 2077DOPE   C1A24368  18.141  30.318  15.794 -0.0982 -0.0336  0.2424
 2077DOPE   D2A24369  18.349  30.723  15.691 -0.0916  0.3433  0.0013
 2077DOPE   C3A24370  18.467  30.896  15.239  0.2891 -0.1300 -0.3176
 2077DOPE   C4A24371  18.554  30.522  14.968  0.1327 -0.1416  0.2475
 2077DOPE   C1B24372  17.535  30.532  16.065  0.1326 -0.0937 -0.3986
 2077DOPE   D2B24373  17.146  30.581  15.867  0.1281 -0.0110  0.3837
 2077DOPE   C3B24374  17.301  30.330  15.521 -0.1276  0.1720 -0.3507
 2077DOPE   C4B24375  17.563  30.368  15.110 -0.2040 -0.0599 -0.0145
 2078DOPE   NH324376  14.437  29.191  15.717 -0.1326  0.0713  0.0840
 2078DOPE   PO424377  14.441  29.499  15.646 -0.0505  0.2073 -0.0662
 2078DOPE   GL124378  14.475  29.447  15.285  0.3174 -0.1513 -0.2336
 2078DOPE   GL224379  14.740  29.626  15.270  0.1241  0.2094  0.1528
 2078DOPE   C1A24380  14.341  29.656  14.881 -0.1157  0.1258  0.0156
 2078DOPE   D2A24381  14.463  30.026  14.597  0.0524 -0.0925 -0.2412
 2078DOPE   C3A24382  14.924  29.890  14.439 -0.0333 -0.0358 -0.0265
 2078DOPE   C4A24383  15.314  29.585  14.353 -0.3028 -0.1496 -0.1263
 2078DOPE   C1B24384  14.977  29.786  14.917  0.1396 -0.0011 -0.0061
 2078DOPE   D2B24385  15.435  29.907  14.904 -0.1469  0.0086 -0.3138
 2078DOPE   C3B24386  15.670  29.576  14.723 -0.0250 -0.2421 -0.2297
 2078DOPE   C4B24387  15.669  29.264  14.427 -0.0352 -0.0874  0.2509
 2079POSM   NC324388  15.626  23.481  15.902 -0.3247  0.1001  0.0430
 2079POSM   PO424389  15.625  23.126  15.709  0.0370  0.1597  0.1246
 2079POSM   AM124390  15.608  23.298  15.399  0.0073  0.0107  0.0101
 2079POSM   AM224391  15.532  23.588  15.329 -0.0453  0.0802  0.1199
 2079POSM   T1A24392  15.755  23.269  14.979 -0.2524  0.1804 -0.1340
 2079POSM   C2A24393  15.604  23.361  14.558 -0.0296 -0.0534  0.3116
 2079POSM   C3A24394  15.549  23.281  14.132 -0.1143  0.2198 -0.2747
 2079POSM   C1B24395  15.504  23.755  15.059  0.2039  0.2756 -0.1896
 2079POSM   D2B24396  15.416  24.007  14.655  0.0691 -0.3488 -0.2348
 2079POSM   C3B24397  15.492  24.094  14.242  0.2464 -0.1392  0.2725
 2079POSM   C4B24398  15.735  24.370  13.961 -0.2831  0.1550 -0.0122
 2080POSM   NC324399  16.175  27.572  16.123 -0.1112  0.1447  0.1987
 2080POSM   PO424400  15.925  27.395  15.882  0.0200 -0.2286 -0.1923
 2080POSM   AM124401  15.921  27.251  15.585 -0.1295  0.1911  0.0973
 2080POSM   AM224402  15.822  26.975  15.452 -0.2088  0.1149  0.2323
 2080POSM   T1A24403  16.196  27.236  15.196  0.3450  0.3265  0.0157
 2080POSM   C2A24404  16.574  27.256  14.974  0.2309 -0.0846  0.1137
 2080POSM   C3A24405  16.671  27.506  14.656 -0.2157 -0.0200  0.4000
 2080POSM   C1B24406  15.853  26.810  15.161  0.0190 -0.1954  0.0907
 2080POSM   D2B24407  15.731  26.765  14.700  0.0399  0.1436  0.0526
 2080POSM   C3B24408  15.965  26.350  14.496  0.2969  0.1064 -0.2468
 2080POSM   C4B24409  15.929  25.910  14.353 -0.0854 -0.1209 -0.3721
 2081DOPC   NC324410  17.084  30.082  16.062 -0.0286 -0.6050 -0.2573
 2081DOPC   PO424411  16.940  29.733  15.943 -0.0860 -0.0562 -0.1570
 2081DOPC   GL124412  17.023  29.867  15.564  0.2253 -0.0146 -0.3926
 2081DOPC   GL224413  17.337  29.882  15.677 -0.1852  0.2324  0.2856
 2081DOPC   C1A24414  17.290  29.723  15.242 -0.0255  0.2067  0.3412
 2081DOPC   D2A24415  17.438  29.526  14.835 -0.1051 -0.1695  0.0395
 2081DOPC   C3A24416  17.180  29.149  14.830  0.0187  0.3504 -0.0982
 2081DOPC   C4A24417  17.094  28.883  14.482 -0.0722  0.1603 -0.2005
 2081DOPC   C1B24418  17.751  29.822  15.406 -0.1196  0.0712  0.2285
 2081DOPC   D2B24419  17.828  29.974  14.958  0.0784  0.1716 -0.2426
 2081DOPC   C3B24420  18.147  29.756  14.670 -0.0143 -0.0331 -0.1468
 2081DOPC   C4B24421  18.447  29.458  14.649 -0.3175 -0.1107  0.1134
 2082DOPC   NC324422  16.222  32.017  15.979  0.0743 -0.1007  0.1420
 2082DOPC   PO424423  16.003  32.115  15.629  0.0185 -0.5049 -0.0327
 2082DOPC   GL124424  15.998  32.159  15.269 -0.1928  0.0490  0.0999
 2082DOPC   GL224425  16.085  32.397  15.066 -0.1930 -0.0525 -0.2342
 2082DOPC   C1A24426  15.730  32.041  14.907  0.0175 -0.1082  0.0401
 2082DOPC   D2A24427  15.497  31.814  14.532  0.0909  0.4078  0.2823
 2082DOPC   C3A24428  15.314  31.388  14.363  0.2048 -0.0129  0.1532
 2082DOPC   C4A24429  15.461  30.993  14.426  0.0480 -0.3693  0.0706
 2082DOPC   C1B24430  16.137  32.187  14.627  0.0147  0.2816  0.2690
 2082DOPC   D2B24431  16.145  31.858  14.335  0.2034  0.0050  0.0277
 2082DOPC   C3B24432  15.990  31.767  13.915 -0.0464 -0.3008  0.1574
 2082DOPC   C4B24433  15.774  31.497  13.623 -0.0995 -0.1667  0.0253
 2083POSM   NC324434  13.748  33.340  15.216  0.2077  0.0769 -0.0746
 2083POSM   PO424435  14.065  33.167  15.297  0.4849  0.0636 -0.0715
 2083POSM   AM124436  14.155  33.141  14.972  0.0172 -0.0158  0.1270
 2083POSM   AM224437  14.379  33.034  14.827  0.1571  0.2331  0.0353
 2083POSM   T1A24438  13.969  33.227  14.553 -0.1666 -0.2061  0.0917
 2083POSM   C2A24439  14.043  33.377  14.110 -0.1268  0.2670 -0.1096
 2083POSM   C3A24440  14.016  33.169  13.711  0.2648 -0.0376 -0.1691
 2083POSM   C1B24441  14.504  32.913  14.560 -0.2209  0.1877  0.1031
 2083POSM   D2B24442  14.498  32.651  14.213  0.1837  0.1045  0.1614
 2083POSM   C3B24443  14.228  32.715  13.836  0.0725 -0.0243 -0.0526
 2083POSM   C4B24444  13.976  32.736  13.495 -0.1698 -0.2213  0.0862
 2084DOPC   NC324445  21.014  24.422  15.618 -0.0036 -0.1326  0.3818
 2084DOPC   PO424446  20.734  24.636  15.771 -0.0392 -0.1330 -0.4280
 2084DOPC   GL124447  20.707  24.856  15.465  0.3271  0.0898 -0.0483
 2084DOPC   GL224448  20.469  25.013  15.526  0.0360 -0.1557  0.0900
 2084DOPC   C1A24449  20.874  25.247  15.200  0.1287  0.3846 -0.0956
 2084DOPC   D2A24450  20.829  25.313  14.731 -0.0816  0.4259  0.0422
 2084DOPC   C3A24451  20.923  25.236  14.309  0.1323  0.0090 -0.3167
 2084DOPC   C4A24452  21.026  24.929  14.002 -0.0816 -0.3161  0.1987
 2084DOPC   C1B24453  20.410  25.174  15.069  0.0870 -0.1374 -0.0598
 2084DOPC   D2B24454  20.228  25.442  14.783 -0.0562  0.0596  0.3206
 2084DOPC   C3B24455  20.202  25.394  14.277  0.1696 -0.1397 -0.0711
 2084DOPC   C4B24456  20.259  25.694  13.924 -0.2763 -0.1586 -0.1514
 2085POSM   NC324457  11.788  31.720  15.601 -0.0993  0.1586  0.0952
 2085POSM   PO424458  11.757  31.705  15.168  0.0263  0.4553 -0.1651
 2085POSM   AM124459  11.806  31.643  14.836 -0.1710 -0.1072  0.2713
 2085POSM   AM224460  11.678  31.710  14.616 -0.2735 -0.1832 -0.1153
 2085POSM   T1A24461  11.898  31.290  14.479  0.0547 -0.1982 -0.2473
 2085POSM   C2A24462  11.979  31.003  14.090  0.0915 -0.1899 -0.0593
 2085POSM   C3A24463  12.188  30.971  13.671  0.3070 -0.0319 -0.1286
 2085POSM   C1B24464  11.774  31.767  14.284  0.1166  0.1022 -0.2139
 2085POSM   D2B24465  11.759  31.846  13.858  0.1326  0.0014 -0.3259
 2085POSM   C3B24466  11.933  31.502  13.664 -0.0337 -0.0455  0.1316
 2085POSM   C4B24467  12.301  31.329  13.404  0.0930  0.0641  0.1520
 2086DOPC   NC324468  14.855  28.902  15.801  0.3607  0.0223  0.1913
 2086DOPC   PO424469  14.548  28.741  15.571  0.0516 -0.1329 -0.1001
 2086DOPC   GL124470  14.489  28.693  15.265  0.0833 -0.0003 -0.2266
 2086DOPC   GL224471  14.223  28.515  15.247  0.0403 -0.1028 -0.0623
 2086DOPC   C1A24472  14.571  28.641  14.831 -0.1353  0.2271  0.3783
 2086DOPC   D2A24473  14.416  28.378  14.508 -0.1003  0.1036  0.1122
 2086DOPC   C3A24474  14.714  28.208  14.201  0.0511  0.1212  0.0190
 2086DOPC   C4A24475  15.070  28.084  14.040  0.2041  0.2671  0.3947
 2086DOPC   C1B24476  14.096  28.631  14.758  0.1782 -0.0193  0.0239
 2086DOPC   D2B24477  13.975  28.673  14.343  0.2158  0.2885 -0.2562
 2086DOPC   C3B24478  13.933  28.186  14.139  0.1667 -0.1541 -0.1758
 2086DOPC   C4B24479  13.810  27.769  14.356  0.1939  0.4611  0.0711
 2087POSM   NC324480  12.922  34.223  15.398 -0.1157 -0.3186 -0.1889
 2087POSM   PO424481  12.723  33.864  15.435  0.2316 -0.2157 -0.0978
 2087POSM   AM124482  12.679  33.942  15.135 -0.3023 -0.5131  0.3017
 2087POSM   AM224483  12.798  34.001  14.912 -0.1070 -0.1009  0.0431
 2087POSM   T1A24484  12.313  34.100  14.806 -0.1527 -0.1293 -0.1332
 2087POSM   C2A24485  12.302  34.290  14.420 -0.1210 -0.2275 -0.0084
 2087POSM   C3A24486  12.279  34.569  14.107  0.0952 -0.0202  0.1437
 2087POSM   C1B24487  12.727  33.959  14.573  0.0674  0.3653  0.1066
 2087POSM   D2B24488  12.543  33.902  14.150 -0.1013  0.1520  0.0583
 2087POSM   C3B24489  12.807  33.766  13.785  0.1934 -0.0935  0.2152
 2087POSM   C4B24490  13.200  33.622  13.698  0.3356 -0.0454 -0.2143
 2088DOPE   NH324491  14.643  29.915  15.698 -0.2150  0.2138  0.1020
 2088DOPE   PO424492  14.905  29.973  15.857 -0.1915 -0.2738 -0.2809
 2088DOPE   GL124493  15.124  30.258  15.531 -0.1812 -0.0732  0.2266
 2088DOPE   GL224494  14.951  30.127  15.349 -0.2284 -0.0663  0.0866
 2088DOPE   C1A24495  15.322  30.337  15.084 -0.1109  0.0199 -0.5016
 2088DOPE   D2A24496  15.266  30.301  14.651 -0.0365 -0.4000  0.2362
 2088DOPE   C3A24497  14.884  30.362  14.389  0.1014 -0.1065  0.1070
 2088DOPE   C4A24498  14.546  30.158  14.108  0.1984 -0.1235 -0.3513
 2088DOPE   C1B24499  14.826  30.359  14.959 -0.0525 -0.1532  0.0596
 2088DOPE   D2B24500  14.984  30.742  14.703 -0.1406  0.0351  0.1828
 2088DOPE   C3B24501  14.985  31.223  14.681  0.0031  0.0998 -0.4773
 2088DOPE   C4B24502  14.855  31.596  14.806  0.0250  0.3219 -0.0736
 2089DOPC   NC324503  22.463  25.459  15.658 -0.0410  0.2375 -0.2662
 2089DOPC   PO424504  22.126  25.345  15.897  0.1116  0.2005  0.1534
 2089DOPC   GL124505  22.008  25.234  15.576  0.4447  0.1784 -0.1530
 2089DOPC   GL224506  22.128  25.013  15.380  0.3149 -0.1941 -0.1051
 2089DOPC   C1A24507  21.599  24.979  15.507 -0.0374 -0.2437  0.2462
 2089DOPC   D2A24508  21.209  24.875  15.283  0.0189 -0.3606  0.0550
 2089DOPC   C3A24509  21.221  24.580  14.997  0.1096 -0.2690  0.1807
 2089DOPC   C4A24510  21.323  24.386  14.599  0.1754  0.0499 -0.3847
 2089DOPC   C1B24511  21.923  25.075  14.968  0.0453 -0.0992 -0.1127
 2089DOPC   D2B24512  21.771  25.256  14.577 -0.0623 -0.2674  0.2100
 2089DOPC   C3B24513  22.086  25.441  14.232  0.2492  0.0010  0.1041
 2089DOPC   C4B24514  22.366  25.752  14.046  0.3785  0.3576 -0.2922
 2090DOPC   NC324515  18.236  23.845  16.003 -0.1852 -0.2807  0.0007
 2090DOPC   PO424516  18.488  23.785  15.737 -0.1205  0.1731  0.1057
 2090DOPC   GL124517  18.410  23.644  15.443 -0.2871 -0.0757 -0.1169
 2090DOPC   GL224518  18.646  23.477  15.398  0.1480  0.1456 -0.0142
 2090DOPC   C1A24519  18.398  23.931  15.026  0.0394 -0.0822  0.1310
 2090DOPC   D2A24520  18.302  24.068  14.565  0.0499  0.3224  0.1502
 2090DOPC   C3A24521  18.511  24.394  14.366  0.0112 -0.0008 -0.0729
 2090DOPC   C4A24522  18.996  24.429  14.330 -0.1163  0.0313  0.3619
 2090DOPC   C1B24523  18.825  23.580  14.928 -0.0107  0.0372 -0.3861
 2090DOPC   D2B24524  18.811  23.485  14.468  0.0286 -0.0558 -0.3573
 2090DOPC   C3B24525  19.105  23.226  14.259 -0.0679  0.1773  0.0369
 2090DOPC   C4B24526  19.144  22.969  13.865 -0.0027 -0.2476 -0.2504
 2091DOPC   NC324527  14.454  27.700  15.489  0.0626  0.1502 -0.1243
 2091DOPC   PO424528  14.587  27.833  15.798  0.0379  0.0493 -0.0384
 2091DOPC   GL124529  14.734  28.078  15.497  0.0679  0.2466  0.2969
 2091DOPC   GL224530  14.622  28.275  15.374 -0.1096 -0.4473 -0.1196
 2091DOPC   C1A24531  15.128  28.183  15.251  0.1135 -0.2065 -0.0712
 2091DOPC   D2A24532  15.601  28.204  15.108  0.1148  0.1777 -0.3546
 2091DOPC   C3A24533  15.885  28.536  15.016 -0.0883 -0.3301 -0.0085
 2091DOPC   C4A24534  16.033  28.868  14.710 -0.1595 -0.0243 -0.3797
 2091DOPC   C1B24535  14.675  28.183  14.915 -0.3257 -0.1934  0.0499
 2091DOPC   D2B24536  14.741  27.858  14.568 -0.0554 -0.2490  0.0083
 2091DOPC   C3B24537  14.314  27.865  14.381 -0.1925 -0.0344  0.3542
 2091DOPC   C4B24538  14.023  28.123  14.662 -0.0056  0.1605 -0.1443
 2092DOPC   NC324539  22.110  31.402  16.134  0.3708  0.0962  0.0191
 2092DOPC   PO424540  22.317  31.718  16.289  0.3528 -0.1542  0.0904
 2092DOPC   GL124541  22.104  31.785  15.837  0.5515 -0.1841  0.0147
 2092DOPC   GL224542  22.214  31.615  15.643 -0.0561 -0.3939  0.2034
 2092DOPC   C1A24543  21.772  32.028  15.557  0.0402 -0.0164  0.0395
 2092DOPC   D2A24544  21.700  31.982  15.122  0.1224  0.1167 -0.2423
 2092DOPC   C3A24545  21.284  32.050  14.964  0.1932 -0.1054  0.2363
 2092DOPC   C4A24546  20.880  32.275  14.956 -0.1469  0.0260 -0.3508
 2092DOPC   C1B24547  21.920  31.228  15.533 -0.2075 -0.2834  0.0201
 2092DOPC   D2B24548  21.564  30.979  15.505 -0.3033  0.0194 -0.1791
 2092DOPC   C3B24549  21.338  30.706  15.133  0.0013  0.3974  0.1090
 2092DOPC   C4B24550  21.254  30.732  14.679 -0.0540 -0.1230 -0.1217
 2093DOPS   CNO24551  17.355  28.349  16.167  0.1382  0.1044 -0.1052
 2093DOPS   PO424552  17.527  28.641  16.363  0.1471 -0.0277 -0.3640
 2093DOPS   GL124553  17.666  28.677  15.974 -0.1094 -0.0188  0.0718
 2093DOPS   GL224554  17.906  28.738  16.055  0.1616 -0.0747 -0.0276
 2093DOPS   C1A24555  17.803  28.400  15.648 -0.1508 -0.1895  0.2400
 2093DOPS   D2A24556  18.013  28.113  15.373  0.2110  0.1982  0.1847
 2093DOPS   C3A24557  18.106  28.243  15.000 -0.2148 -0.0326 -0.0857
 2093DOPS   C4A24558  18.456  27.986  14.828 -0.1398 -0.2107  0.2257
 2093DOPS   C1B24559  18.210  28.849  15.698 -0.0023 -0.0372 -0.1621
 2093DOPS   D2B24560  18.178  28.785  15.234 -0.1213  0.1473  0.1046
 2093DOPS   C3B24561  18.308  28.611  14.782 -0.1909  0.0400 -0.0392
 2093DOPS   C4B24562  18.335  28.406  14.345  0.4025  0.0635  0.0577
 2094DOPC   NC324563  18.126  27.065  16.288  0.0083  0.1027 -0.1442
 2094DOPC   PO424564  18.472  27.270  16.338 -0.1838  0.0072  0.0195
 2094DOPC   GL124565  18.483  27.336  15.965  0.0009 -0.1055  0.2119
 2094DOPC   GL224566  18.229  27.491  15.929  0.1569 -0.0146 -0.2101
 2094DOPC   C1A24567  18.426  27.295  15.529 -0.0485 -0.0813  0.0058
 2094DOPC   D2A24568  18.580  27.061  15.167  0.0787 -0.1351 -0.0112
 2094DOPC   C3A24569  18.895  27.119  14.789  0.0995 -0.1065  0.0501
 2094DOPC   C4A24570  18.910  27.137  14.331 -0.0877 -0.2672 -0.1117
 2094DOPC   C1B24571  17.905  27.751  15.651 -0.1146  0.0438  0.1549
 2094DOPC   D2B24572  17.602  27.822  15.296  0.2153  0.1391  0.2980
 2094DOPC   C3B24573  17.494  27.826  14.881 -0.0736 -0.1183 -0.2382
 2094DOPC   C4B24574  17.560  27.743  14.468  0.0306  0.2404  0.0799
 2095DOPS   CNO24575  19.796  30.833  16.162 -0.1038 -0.1791  0.5028
 2095DOPS   PO424576  19.595  31.038  15.905  0.1596  0.0239 -0.1776
 2095DOPS   GL124577  19.404  30.964  15.579  0.2176  0.5106 -0.1570
 2095DOPS   GL224578  19.229  31.247  15.564 -0.0054  0.0333  0.1372
 2095DOPS   C1A24579  19.447  30.974  15.112  0.2008 -0.2193  0.0161
 2095DOPS   D2A24580  19.339  30.766  14.786 -0.0636  0.0057 -0.1600
 2095DOPS   C3A24581  19.233  30.923  14.352  0.0137  0.0006 -0.1046
 2095DOPS   C4A24582  19.203  31.104  13.926  0.0965 -0.3129  0.1443
 2095DOPS   C1B24583  18.951  31.109  15.193 -0.0250  0.0437  0.1541
 2095DOPS   D2B24584  18.928  31.151  14.735 -0.1218 -0.1077 -0.0702
 2095DOPS   C3B24585  18.742  30.929  14.350  0.0993  0.0924  0.1179
 2095DOPS   C4B24586  18.680  31.066  13.826  0.0944 -0.1465  0.0152
 2096POSM   NC324587  23.450  24.208  16.091  0.2319  0.2911  0.3549
 2096POSM   PO424588  23.303  23.871  15.950 -0.1439  0.1672 -0.1032
 2096POSM   AM124589  23.392  23.734  15.658  0.3827 -0.1289 -0.0722
 2096POSM   AM224590  23.497  23.491  15.521 -0.0708 -0.0953  0.0681
 2096POSM   T1A24591  23.669  23.846  15.198 -0.2305 -0.3369 -0.1180
 2096POSM   C2A24592  23.637  23.614  14.835 -0.0474 -0.0093 -0.2071
 2096POSM   C3A24593  23.547  23.460  14.464  0.0890  0.1402 -0.3409
 2096POSM   C1B24594  23.335  23.453  15.233 -0.2668 -0.1830  0.0678
 2096POSM   D2B24595  23.142  23.461  14.855 -0.1416  0.1598  0.1902
 2096POSM   C3B24596  23.120  23.157  14.499  0.1294 -0.0876 -0.2867
 2096POSM   C4B24597  23.184  23.316  14.074 -0.1462  0.1546 -0.0608
 2097DOPS   CNO24598  15.778  28.185  15.580  0.1556  0.1630 -0.1742
 2097DOPS   PO424599  16.028  27.928  15.676 -0.0863 -0.2608 -0.0968
 2097DOPS   GL124600  16.126  27.868  15.312  0.0104  0.1279 -0.0034
 2097DOPS   GL224601  15.942  27.662  15.226  0.0337 -0.1539  0.0361
 2097DOPS   C1A24602  16.031  28.086  14.893  0.1393  0.2336  0.1981
 2097DOPS   D2A24603  15.797  28.279  14.599  0.2649  0.2804  0.0066
 2097DOPS   C3A24604  15.498  28.584  14.730 -0.1127  0.0274  0.2465
 2097DOPS   C4A24605  15.655  29.017  14.890  0.2474 -0.1007 -0.1679
 2097DOPS   C1B24606  16.252  27.668  14.879  0.2606  0.1084 -0.0026
 2097DOPS   D2B24607  16.437  27.990  14.635 -0.1063 -0.2314 -0.2846
 2097DOPS   C3B24608  16.424  28.072  14.205 -0.0899 -0.2770 -0.0359
 2097DOPS   C4B24609  16.212  28.100  13.871 -0.1101  0.1209 -0.0699
 2098DOPS   CNO24610  12.191  26.573  15.576  0.4000  0.0894 -0.1862
 2098DOPS   PO424611  12.497  26.787  15.532  0.0510 -0.5952 -0.1406
 2098DOPS   GL124612  12.472  26.431  15.226 -0.0661  0.2232 -0.0333
 2098DOPS   GL224613  12.143  26.315  15.167 -0.2089 -0.0071 -0.1547
 2098DOPS   C1A24614  12.522  26.024  15.020 -0.1056 -0.1220  0.1764
 2098DOPS   D2A24615  12.399  25.815  14.649 -0.2776  0.0099 -0.2619
 2098DOPS   C3A24616  12.563  25.625  14.303  0.1788 -0.1386 -0.1580
 2098DOPS   C4A24617  12.662  25.732  13.948  0.0334 -0.0563  0.0501
 2098DOPS   C1B24618  12.167  26.272  14.670  0.2727  0.0570  0.1002
 2098DOPS   D2B24619  12.570  26.312  14.459 -0.3777  0.4467 -0.0128
 2098DOPS   C3B24620  12.653  26.738  14.296  0.2686 -0.2919  0.0284
 2098DOPS   C4B24621  12.817  26.944  13.913 -0.0860 -0.0618 -0.0050
 2099DOPE   NH324622  15.328  28.147  15.774  0.0611 -0.1394  0.0382
 2099DOPE   PO424623  15.093  27.918  15.820 -0.0420  0.0744  0.3401
 2099DOPE   GL124624  15.064  27.724  15.466  0.3353 -0.3017 -0.2054
 2099DOPE   GL224625  14.904  27.464  15.517  0.2049  0.2160 -0.0711
 2099DOPE   C1A24626  14.784  27.722  15.107 -0.3111  0.0525  0.3403
 2099DOPE   D2A24627  14.387  27.650  14.901 -0.2434 -0.1349  0.0628
 2099DOPE   C3A24628  14.109  27.465  14.602 -0.1412  0.1336 -0.2290
 2099DOPE   C4A24629  13.889  27.067  14.584 -0.0616 -0.3301  0.1210
 2099DOPE   C1B24630  14.503  27.234  15.287 -0.1966 -0.0042  0.0293
 2099DOPE   D2B24631  14.078  27.376  15.076  0.3243  0.1736  0.1428
 2099DOPE   C3B24632  13.848  27.771  14.900 -0.2708 -0.1442 -0.1371
 2099DOPE   C4B24633  13.477  27.953  14.647  0.0412  0.0421  0.1951
 2100DOPE   NH324634  20.901  23.369  15.845  0.2054 -0.1028 -0.1548
 2100DOPE   PO424635  20.619  23.440  15.849 -0.0185 -0.3387 -0.0292
 2100DOPE   GL124636  20.498  23.373  15.521  0.2469  0.0754 -0.1649
 2100DOPE   GL224637  20.715  23.538  15.372 -0.1739 -0.1213  0.2158
 2100DOPE   C1A24638  20.314  23.654  15.151  0.1291  0.0359  0.1723
 2100DOPE   D2A24639  20.216  23.747  14.666  0.0755  0.1580 -0.2934
 2100DOPE   C3A24640  20.194  24.204  14.426 -0.0717 -0.0423 -0.2805
 2100DOPE   C4A24641  20.289  24.376  13.970  0.2655 -0.2202  0.0141
 2100DOPE   C1B24642  20.676  23.948  15.257 -0.0062  0.3214 -0.3436
 2100DOPE   D2B24643  20.717  24.446  15.265 -0.0079 -0.0623  0.0884
 2100DOPE   C3B24644  20.774  24.797  14.977  0.0526 -0.1531  0.1104
 2100DOPE   C4B24645  20.988  24.784  14.583 -0.0565 -0.3410  0.1972
 2101DOPE   NH324646  18.769  32.610  15.607 -0.0110 -0.0183  0.0741
 2101DOPE   PO424647  18.888  32.882  15.558 -0.4481 -0.1180  0.2702
 2101DOPE   GL124648  18.961  32.815  15.171  0.1249  0.2122 -0.1541
 2101DOPE   GL224649  18.678  32.885  15.110  0.0930  0.3838  0.0533
 2101DOPE   C1A24650  19.130  33.062  14.786 -0.0214 -0.0940 -0.0731
 2101DOPE   D2A24651  19.296  32.941  14.406  0.2534  0.1864  0.2181
 2101DOPE   C3A24652  19.214  32.693  14.006  0.0074  0.0071  0.1969
 2101DOPE   C4A24653  19.063  32.333  13.714  0.2495  0.0164  0.1956
 2101DOPE   C1B24654  18.690  32.712  14.655  0.4310 -0.2115  0.0400
 2101DOPE   D2B24655  18.866  32.420  14.283 -0.0440  0.0434 -0.3304
 2101DOPE   C3B24656  18.648  32.594  13.936  0.0629 -0.3020  0.0223
 2101DOPE   C4B24657  18.867  32.940  13.706  0.2186 -0.1711  0.0008
 2102DOPC   NC324658  16.091  30.477  16.121 -0.3111  0.0126  0.2166
 2102DOPC   PO424659  15.716  30.385  16.172  0.2069  0.2948 -0.0965
 2102DOPC   GL124660  15.607  30.321  15.722 -0.0259  0.3409  0.0283
 2102DOPC   GL224661  15.519  30.544  15.551  0.1646 -0.0938  0.0775
 2102DOPC   C1A24662  15.534  29.960  15.421  0.0178  0.1060 -0.1585
 2102DOPC   D2A24663  15.631  29.550  15.209  0.0669 -0.4246  0.1328
 2102DOPC   C3A24664  16.056  29.397  15.028  0.1757 -0.2239 -0.0229
 2102DOPC   C4A24665  16.458  29.220  14.801  0.0571 -0.2887 -0.1278
 2102DOPC   C1B24666  15.896  30.530  15.266  0.1869 -0.1364 -0.0992
 2102DOPC   D2B24667  16.178  30.566  14.910  0.2797  0.1818 -0.6056
 2102DOPC   C3B24668  16.179  30.300  14.580  0.2571  0.0527  0.0315
 2102DOPC   C4B24669  16.283  29.925  14.323 -0.0516 -0.0874  0.1431
 2103DOPC   NC324670  22.754  27.350  15.747  0.1033  0.0655 -0.1317
 2103DOPC   PO424671  22.996  27.678  15.711  0.1926  0.1262 -0.2602
 2103DOPC   GL124672  22.961  27.719  15.282  0.1773 -0.4314  0.0851
 2103DOPC   GL224673  22.835  27.447  15.276  0.0751  0.2333 -0.1259
 2103DOPC   C1A24674  22.982  27.749  14.848 -0.4203  0.1125 -0.0049
 2103DOPC   D2A24675  23.114  27.830  14.407 -0.0149 -0.1998 -0.2467
 2103DOPC   C3A24676  22.816  28.015  14.094 -0.0409 -0.2046 -0.1292
 2103DOPC   C4A24677  22.618  27.701  13.816 -0.0911  0.2941  0.4246
 2103DOPC   C1B24678  23.236  27.404  15.056 -0.2885 -0.3408  0.0718
 2103DOPC   D2B24679  23.663  27.233  14.886  0.1613 -0.0305  0.0491
 2103DOPC   C3B24680  23.920  27.476  14.606  0.3367  0.2968  0.3889
 2103DOPC   C4B24681  24.228  27.780  14.663 -0.2664  0.2899 -0.1116
 2104POSM   NC324682  14.788  28.205  16.168 -0.0019  0.0695  0.1973
 2104POSM   PO424683  14.881  28.381  15.853  0.1824 -0.1821  0.1241
 2104POSM   AM124684  15.055  28.461  15.570 -0.2723 -0.2812  0.0813
 2104POSM   AM224685  14.966  28.643  15.349 -0.0458 -0.0300  0.3147
 2104POSM   T1A24686  15.473  28.703  15.350  0.1357  0.3130  0.3574
 2104POSM   C2A24687  15.795  29.056  15.348 -0.0247  0.0935  0.0307
 2104POSM   C3A24688  16.212  28.897  15.196  0.1114 -0.2182 -0.1647
 2104POSM   C1B24689  15.058  28.627  15.028  0.2035 -0.5126 -0.1303
 2104POSM   D2B24690  15.006  28.404  14.608 -0.2892  0.0672 -0.1741
 2104POSM   C3B24691  15.293  28.063  14.689  0.3666 -0.0110 -0.1871
 2104POSM   C4B24692  15.268  27.631  14.536  0.0466  0.0916  0.1484
 2105POSM   NC324693  13.209  33.752  15.290 -0.1387  0.2815  0.0153
 2105POSM   PO424694  13.344  33.473  15.485 -0.1451  0.0527 -0.1185
 2105POSM   AM124695  13.300  33.329  15.205  0.2850 -0.1435 -0.0418
 2105POSM   AM224696  13.156  33.339  14.921  0.1957  0.0219 -0.0869
 2105POSM   T1A24697  13.492  32.913  15.058 -0.0032 -0.4677 -0.1111
 2105POSM   C2A24698  13.784  32.698  14.813 -0.0915 -0.1383  0.1976
 2105POSM   C3A24699  14.248  32.511  14.782 -0.0052  0.0509  0.1647
 2105POSM   C1B24700  13.188  33.331  14.622  0.1017 -0.0559  0.1192
 2105POSM   D2B24701  13.136  33.435  14.162  0.0619  0.0563  0.1474
 2105POSM   C3B24702  12.951  33.199  13.778  0.2386  0.1035  0.0456
 2105POSM   C4B24703  12.995  33.017  13.414 -0.3521  0.0972 -0.2684
 2106DOPE   NH324704  13.732  26.222  15.847 -0.1076  0.1153 -0.1009
 2106DOPE   PO424705  13.949  26.210  15.606  0.5420  0.1872  0.2796
 2106DOPE   GL124706  13.975  26.497  15.361 -0.0619  0.5297 -0.2232
 2106DOPE   GL224707  13.805  26.380  15.086  0.0762 -0.2920 -0.1054
 2106DOPE   C1A24708  14.154  26.776  15.040 -0.1228  0.0119 -0.0988
 2106DOPE   D2A24709  14.297  26.713  14.607  0.0707 -0.1989 -0.2588
 2106DOPE   C3A24710  14.723  26.742  14.469  0.0660 -0.1990 -0.0975
 2106DOPE   C4A24711  14.898  26.583  14.094  0.0311 -0.0659 -0.0204
 2106DOPE   C1B24712  13.840  26.379  14.636 -0.0068  0.1501  0.0304
 2106DOPE   D2B24713  14.090  26.161  14.298 -0.3709  0.0793 -0.1105
 2106DOPE   C3B24714  14.420  26.378  14.023 -0.4125  0.1823  0.0141
 2106DOPE   C4B24715  14.777  26.173  13.780  0.1219 -0.2759 -0.0863
 2107DOPE   NH324716  12.291  27.428  15.717  0.2922 -0.3483 -0.0778
 2107DOPE   PO424717  12.475  27.499  15.991  0.2687  0.3568  0.0942
 2107DOPE   GL124718  12.769  27.525  15.675  0.2778 -0.0983 -0.1977
 2107DOPE   GL224719  12.765  27.283  15.537 -0.0262  0.1165 -0.0549
 2107DOPE   C1A24720  13.027  27.874  15.573  0.0958  0.1368  0.1783
 2107DOPE   D2A24721  13.514  27.955  15.576 -0.1426  0.1324  0.0407
 2107DOPE   C3A24722  13.869  27.811  15.351 -0.0584  0.3302  0.1582
 2107DOPE   C4A24723  14.240  28.056  15.146  0.4531  0.0794  0.1179
 2107DOPE   C1B24724  12.965  27.587  15.168  0.0022  0.1072 -0.0427
 2107DOPE   D2B24725  13.038  27.635  14.712 -0.1393 -0.2557 -0.0738
 2107DOPE   C3B24726  12.802  27.626  14.292 -0.3702  0.2727 -0.0477
 2107DOPE   C4B24727  12.407  27.457  14.178 -0.0991 -0.1756  0.0764
 2108DOPE   NH324728  16.536  34.673  15.874 -0.2337  0.1786 -0.2023
 2108DOPE   PO424729  16.162  34.598  15.851  0.0601 -0.0824  0.0437
 2108DOPE   GL124730  16.188  34.767  15.485  0.1859  0.3554  0.5757
 2108DOPE   GL224731  16.353  34.968  15.513 -0.0337 -0.2280  0.0193
 2108DOPE   C1A24732  16.184  34.681  15.014  0.0702  0.1234  0.0867
 2108DOPE   D2A24733  16.492  34.691  14.698 -0.2327  0.2153 -0.1395
 2108DOPE   C3A24734  16.682  35.095  14.598  0.0021  0.1832  0.0070
 2108DOPE   C4A24735  16.989  35.334  14.422  0.0866 -0.0578 -0.1629
 2108DOPE   C1B24736  16.446  35.086  15.061 -0.2289  0.4678  0.1627
 2108DOPE   D2B24737  16.172  35.019  14.697  0.1692 -0.0109  0.0495
 2108DOPE   C3B24738  16.055  35.450  14.562  0.1073 -0.1484  0.3808
 2108DOPE   C4B24739  16.053  35.897  14.596 -0.0622  0.0214  0.1602
 2109DOPC   NC324740  11.280  24.804  16.170 -0.0397 -0.0522  0.0002
 2109DOPC   PO424741  11.625  24.900  15.997 -0.1327 -0.0107  0.2546
 2109DOPC   GL124742  11.758  24.929  15.597 -0.1688 -0.3130  0.5078
 2109DOPC   GL224743  11.692  24.595  15.476  0.1761 -0.1511 -0.2742
 2109DOPC   C1A24744  11.647  25.090  15.152  0.3241 -0.1212 -0.2780
 2109DOPC   D2A24745  11.752  24.984  14.668 -0.2506 -0.0578  0.0352
 2109DOPC   C3A24746  11.474  25.239  14.339  0.0131 -0.2449 -0.2198
 2109DOPC   C4A24747  11.356  25.711  14.359  0.0983 -0.2163  0.1064
 2109DOPC   C1B24748  11.732  24.614  15.018  0.0405 -0.3159  0.0934
 2109DOPC   D2B24749  11.973  24.528  14.614 -0.0432 -0.0438 -0.3993
 2109DOPC   C3B24750  11.771  24.212  14.431  0.2389  0.2168  0.0927
 2109DOPC   C4B24751  11.367  24.086  14.271 -0.1744 -0.0123  0.0923
 2110DOPC   NC324752  11.578  29.510  15.796  0.2171 -0.0831  0.2445
 2110DOPC   PO424753  11.915  29.726  15.793  0.1936  0.2241  0.3530
 2110DOPC   GL124754  11.996  29.505  15.507  0.2311  0.0155  0.0788
 2110DOPC   GL224755  12.307  29.569  15.423 -0.2792  0.4581  0.2439
 2110DOPC   C1A24756  12.019  29.435  15.015  0.0224 -0.1915 -0.1006
 2110DOPC   D2A24757  12.075  29.428  14.521  0.0532  0.0873 -0.2857
 2110DOPC   C3A24758  12.111  29.126  14.182 -0.1316 -0.3630 -0.1712
 2110DOPC   C4A24759  12.394  29.069  13.758  0.2053 -0.0067 -0.1696
 2110DOPC   C1B24760  12.277  29.859  15.107  0.2378  0.2981 -0.3654
 2110DOPC   D2B24761  12.344  30.032  14.678  0.2337  0.0444  0.1776
 2110DOPC   C3B24762  12.447  29.664  14.400 -0.1831 -0.2506  0.0355
 2110DOPC   C4B24763  12.591  29.374  14.150 -0.2290 -0.0850  0.0278
 2111POSM   NC324764  16.358  24.778  15.850  0.1218  0.2132  0.0916
 2111POSM   PO424765  16.566  25.103  15.822 -0.2044  0.1082  0.0614
 2111POSM   AM124766  16.539  25.281  15.577  0.0349 -0.0919  0.0818
 2111POSM   AM224767  16.715  25.334  15.382 -0.0286 -0.0412  0.0180
 2111POSM   T1A24768  16.281  25.406  15.204  0.3650  0.0400 -0.0784
 2111POSM   C2A24769  16.053  25.310  14.775 -0.0107  0.0185  0.0135
 2111POSM   C3A24770  15.993  25.358  14.302  0.0895 -0.1331  0.1708
 2111POSM   C1B24771  16.818  25.151  15.118 -0.0885 -0.0400 -0.1857
 2111POSM   D2B24772  16.916  24.980  14.733 -0.0578  0.2891 -0.3428
 2111POSM   C3B24773  16.907  25.331  14.440  0.0387  0.0424  0.0766
 2111POSM   C4B24774  16.925  25.287  13.947 -0.1214  0.3941 -0.1828
 2112DOPC   NC324775  13.524  34.642  15.595 -0.0022 -0.0227  0.0299
 2112DOPC   PO424776  13.466  34.283  15.543  0.0404  0.1062  0.0415
 2112DOPC   GL124777  13.632  34.330  15.094  0.1261 -0.3241  0.0851
 2112DOPC   GL224778  13.358  34.182  14.953 -0.0437  0.0913 -0.3079
 2112DOPC   C1A24779  13.704  34.498  14.667  0.2007  0.0335 -0.1538
 2112DOPC   D2A24780  13.528  34.825  14.367 -0.2134  0.4736 -0.2862
 2112DOPC   C3A24781  13.580  35.110  14.672 -0.2429  0.0181  0.1730
 2112DOPC   C4A24782  13.686  35.599  14.627  0.3513  0.0956  0.0402
 2112DOPC   C1B24783  13.655  34.020  14.580  0.1574 -0.0224  0.0154
 2112DOPC   D2B24784  13.764  34.183  14.134  0.1067  0.0943 -0.1408
 2112DOPC   C3B24785  13.936  33.887  13.764 -0.0817 -0.1540  0.1671
 2112DOPC   C4B24786  13.774  33.625  13.423  0.0196 -0.1424  0.1882
 2113DOPE   NH324787  19.745  24.507  16.069  0.0854  0.0630 -0.2352
 2113DOPE   PO424788  19.837  24.737  15.869  0.1954 -0.1635  0.2574
 2113DOPE   GL124789  20.051  24.835  15.613 -0.1844 -0.1545  0.4035
 2113DOPE   GL224790  19.861  24.956  15.412  0.0845 -0.2119 -0.2550
 2113DOPE   C1A24791  20.210  24.651  15.202 -0.3030  0.4565  0.0915
 2113DOPE   D2A24792  20.380  24.676  14.763 -0.1611 -0.3676  0.0929
 2113DOPE   C3A24793  20.429  25.036  14.543 -0.1636 -0.0415  0.0802
 2113DOPE   C4A24794  20.454  25.065  14.051 -0.0472  0.0249  0.2089
 2113DOPE   C1B24795  19.905  25.050  14.972  0.0921 -0.0682 -0.0836
 2113DOPE   D2B24796  19.872  25.164  14.546 -0.2631  0.1913 -0.1698
 2113DOPE   C3B24797  19.854  25.151  14.043  0.1612  0.0996  0.1164
 2113DOPE   C4B24798  19.849  25.438  13.678 -0.0472  0.1794  0.2660
 2114DOPC   NC324799  13.784  29.720  16.073  0.2870 -0.4375 -0.3217
 2114DOPC   PO424800  14.127  29.855  16.000  0.1135  0.1088  0.1505
 2114DOPC   GL124801  14.158  29.901  15.609  0.0757  0.1404  0.0398
 2114DOPC   GL224802  14.019  29.745  15.436  0.0361  0.1368 -0.0263
 2114DOPC   C1A24803  13.940  30.267  15.377 -0.0210 -0.5053  0.1876
 2114DOPC   D2A24804  13.982  30.421  14.937 -0.3445 -0.1233  0.2427
 2114DOPC   C3A24805  13.920  30.030  14.709 -0.0222  0.1378 -0.1109
 2114DOPC   C4A24806  14.009  29.649  14.498  0.1399 -0.0218  0.0358
 2114DOPC   C1B24807  14.364  30.002  15.215 -0.0813  0.0980 -0.3230
 2114DOPC   D2B24808  14.557  30.420  15.361 -0.3969 -0.1887  0.3734
 2114DOPC   C3B24809  14.935  30.662  15.285 -0.0215 -0.0119  0.1544
 2114DOPC   C4B24810  15.201  30.993  15.130  0.2937  0.0600  0.1926
 2115DOPE   NH324811  12.025  32.096  14.978 -0.2720  0.1785  0.1730
 2115DOPE   PO424812  11.765  32.219  14.980  0.0827  0.1510 -0.0869
 2115DOPE   GL124813  11.883  32.134  14.561  0.1897  0.1039 -0.0507
 2115DOPE   GL224814  11.728  32.360  14.410  0.0515  0.1469  0.0547
 2115DOPE   C1A24815  12.068  32.158  14.106  0.1862  0.0718 -0.1715
 2115DOPE   D2A24816  12.039  32.159  13.671 -0.2768  0.2624  0.3014
 2115DOPE   C3A24817  12.295  31.980  13.328 -0.0604 -0.0508  0.0285
 2115DOPE   C4A24818  12.275  31.806  12.875 -0.1313  0.1355  0.1383
 2115DOPE   C1B24819  11.654  32.497  14.032  0.0110  0.0844 -0.1804
 2115DOPE   D2B24820  11.717  32.670  13.629 -0.2010 -0.0404 -0.2089
 2115DOPE   C3B24821  12.065  32.511  13.249  0.0155  0.1881 -0.1476
 2115DOPE   C4B24822  12.018  32.285  12.833 -0.0019 -0.0907  0.2173
 2116DOPE   NH324823  21.329  23.608  15.821 -0.1341  0.0549  0.0692
 2116DOPE   PO424824  21.222  23.903  15.827  0.3073  0.2694  0.0219
 2116DOPE   GL124825  21.152  23.875  15.487  0.1421 -0.1902 -0.1465
 2116DOPE   GL224826  21.266  23.646  15.238 -0.3714 -0.1708  0.0157
 2116DOPE   C1A24827  21.167  24.128  15.097  0.0655  0.0794  0.2615
 2116DOPE   D2A24828  21.324  23.914  14.742 -0.0204  0.1794 -0.0229
 2116DOPE   C3A24829  21.132  23.920  14.294 -0.2099  0.0613 -0.1849
 2116DOPE   C4A24830  20.720  24.004  14.231 -0.0541 -0.0606  0.0534
 2116DOPE   C1B24831  20.936  23.667  14.952  0.1459 -0.1625  0.0710
 2116DOPE   D2B24832  20.707  23.542  14.561 -0.1024 -0.1534 -0.0253
 2116DOPE   C3B24833  20.347  23.505  14.285 -0.2169 -0.1006 -0.4627
 2116DOPE   C4B24834  20.065  23.349  13.967  0.0822  0.0916  0.1021
 2117DOPC   NC324835  14.581  26.375  15.763 -0.0194 -0.2907 -0.1199
 2117DOPC   PO424836  14.551  25.976  15.789  0.0606 -0.1692  0.2456
 2117DOPC   GL124837  14.578  26.067  15.419 -0.0251  0.2599 -0.0158
 2117DOPC   GL224838  14.396  26.300  15.231  0.1232 -0.1488  0.0848
 2117DOPC   C1A24839  14.686  25.924  15.028 -0.0656  0.2949  0.1706
 2117DOPC   D2A24840  14.555  25.719  14.615  0.1146 -0.0852 -0.3640
 2117DOPC   C3A24841  14.696  25.806  14.187  0.0987 -0.1910  0.3355
 2117DOPC   C4A24842  14.905  25.680  13.797 -0.0464 -0.0850  0.2951
 2117DOPC   C1B24843  14.630  26.447  14.914 -0.2147  0.2067  0.3379
 2117DOPC   D2B24844  14.761  26.884  14.969  0.0374  0.1818  0.0913
 2117DOPC   C3B24845  14.589  27.211  14.754  0.3660  0.2435  0.1484
 2117DOPC   C4B24846  14.574  27.453  14.378 -0.0376 -0.3022  0.0359
 2118DOPC   NC324847  15.383  27.434  15.760  0.1998 -0.0074  0.1083
 2118DOPC   PO424848  15.515  27.737  15.530 -0.0964 -0.0132 -0.1997
 2118DOPC   GL124849  15.492  27.812  15.161  0.1160  0.0461 -0.1022
 2118DOPC   GL224850  15.260  27.738  15.072  0.1551  0.3218 -0.1546
 2118DOPC   C1A24851  15.695  27.749  14.755  0.0408  0.0261 -0.0293
 2118DOPC   D2A24852  16.003  27.851  14.401  0.3173 -0.0738 -0.0912
 2118DOPC   C3A24853  16.312  27.561  14.288 -0.1408 -0.2346 -0.1073
 2118DOPC   C4A24854  16.465  27.118  14.349 -0.0268 -0.0109  0.2345
 2118DOPC   C1B24855  15.051  27.363  14.946 -0.2483 -0.0819 -0.3309
 2118DOPC   D2B24856  15.064  27.123  14.595 -0.0830  0.1465  0.2299
 2118DOPC   C3B24857  15.053  27.216  14.149 -0.0431  0.2759  0.0336
 2118DOPC   C4B24858  14.930  27.562  13.948  0.0374 -0.1032 -0.0326
 2119DOPC   NC324859  22.748  32.038  16.102  0.1352  0.0112  0.0855
 2119DOPC   PO424860  23.030  32.120  15.838  0.1365  0.2065  0.0143
 2119DOPC   GL124861  23.099  32.058  15.497 -0.4229 -0.0309 -0.1834
 2119DOPC   GL224862  23.200  31.725  15.489  0.3597  0.0399  0.2062
 2119DOPC   C1A24863  22.824  32.159  15.173  0.0041 -0.0215  0.1389
 2119DOPC   D2A24864  22.528  32.060  14.899 -0.1214  0.2928 -0.2671
 2119DOPC   C3A24865  22.669  31.769  14.566  0.1746 -0.1238  0.0793
 2119DOPC   C4A24866  22.925  31.433  14.301 -0.1873  0.1146 -0.0709
 2119DOPC   C1B24867  23.016  31.670  15.136  0.3230  0.4950  0.1072
 2119DOPC   D2B24868  23.146  31.637  14.708 -0.0075  0.1735 -0.2956
 2119DOPC   C3B24869  23.086  31.925  14.348 -0.3037  0.0488 -0.1564
 2119DOPC   C4B24870  23.136  32.217  13.961  0.1800  0.1670 -0.0522
 2120DOPC   NC324871  11.528  25.366  15.812 -0.0930  0.1715 -0.0509
 2120DOPC   PO424872  11.218  25.173  15.784 -0.1325 -0.0143  0.2011
 2120DOPC   GL124873  11.098  24.927  15.460  0.0574 -0.2576 -0.1961
 2120DOPC   GL224874  10.894  24.687  15.398 -0.1821  0.2053  0.4038
 2120DOPC   C1A24875  11.244  24.858  15.027 -0.4653  0.0127  0.1406
 2120DOPC   D2A24876  11.239  24.501  14.689  0.0211  0.0083  0.1376
 2120DOPC   C3A24877  11.069  24.053  14.704  0.1099 -0.0304  0.2819
 2120DOPC   C4A24878  10.973  23.624  14.554 -0.2119 -0.2659  0.1919
 2120DOPC   C1B24879  10.812  24.487  14.965  0.0862 -0.2207  0.3567
 2120DOPC   D2B24880  10.783  24.474  14.528  0.1674 -0.0203  0.0063
 2120DOPC   C3B24881  11.083  24.510  14.174  0.0966 -0.2059 -0.2313
 2120DOPC   C4B24882  11.541  24.631  14.142  0.2762 -0.0671  0.0178
 2121DOPC   NC324883  17.372  26.537  16.105  0.1611  0.2245 -0.1210
 2121DOPC   PO424884  17.178  26.769  16.245  0.0341 -0.3224  0.1174
 2121DOPC   GL124885  17.344  26.912  15.773 -0.0249  0.2153  0.1802
 2121DOPC   GL224886  17.607  26.911  15.921 -0.1081  0.1230  0.1059
 2121DOPC   C1A24887  17.565  26.926  15.369  0.0041  0.1667 -0.2115
 2121DOPC   D2A24888  18.003  26.807  15.247 -0.0269  0.1501 -0.3250
 2121DOPC   C3A24889  18.028  26.947  14.817 -0.2559 -0.1595  0.2044
 2121DOPC   C4A24890  18.158  27.328  14.698 -0.0259  0.1832  0.0245
 2121DOPC   C1B24891  17.634  26.559  15.655  0.3640 -0.1020 -0.1665
 2121DOPC   D2B24892  17.353  26.372  15.406 -0.1474 -0.1804 -0.1981
 2121DOPC   C3B24893  17.166  26.661  15.049  0.1521 -0.0794 -0.1529
 2121DOPC   C4B24894  17.058  27.053  14.872  0.0764 -0.0552 -0.1012
 2122DOPE   NH324895  21.459  29.453  15.979  0.2583 -0.0474  0.0404
 2122DOPE   PO424896  21.416  29.134  15.917 -0.0863 -0.0435 -0.1702
 2122DOPE   GL124897  21.449  29.414  15.499 -0.0378  0.2956 -0.1078
 2122DOPE   GL224898  21.135  29.305  15.416 -0.0190  0.2349  0.1599
 2122DOPE   C1A24899  21.448  29.446  15.078 -0.2343  0.2635  0.0119
 2122DOPE   D2A24900  21.615  29.728  14.763 -0.3988 -0.0560  0.0465
 2122DOPE   C3A24901  21.444  30.164  14.642  0.1042 -0.3307 -0.2550
 2122DOPE   C4A24902  21.196  30.390  14.342 -0.0758  0.0009 -0.1037
 2122DOPE   C1B24903  21.103  29.793  15.479 -0.3442 -0.0614  0.1262
 2122DOPE   D2B24904  21.169  30.231  15.309 -0.0437 -0.1227 -0.1602
 2122DOPE   C3B24905  21.046  30.300  14.837  0.0758  0.2037  0.0221
 2122DOPE   C4B24906  20.776  30.175  14.451  0.3123  0.1393 -0.0659
 2123DOPE   NH324907  20.190  29.173  16.052  0.0569 -0.3640  0.0755
 2123DOPE   PO424908  20.477  29.128  16.021 -0.0177 -0.3920 -0.0046
 2123DOPE   GL124909  20.380  29.111  15.575 -0.0298 -0.0362  0.5140
 2123DOPE   GL224910  20.069  29.046  15.580  0.0579 -0.2701  0.1149
 2123DOPE   C1A24911  20.690  29.038  15.280 -0.0105  0.1771 -0.3437
 2123DOPE   D2A24912  20.542  28.948  14.893  0.1090 -0.0937 -0.0366
 2123DOPE   C3A24913  20.745  29.204  14.542 -0.0097 -0.3852  0.2943
 2123DOPE   C4A24914  20.671  29.691  14.448  0.0973 -0.1221 -0.0054
 2123DOPE   C1B24915  20.210  29.233  15.183  0.0693  0.1398 -0.0408
 2123DOPE   D2B24916  20.339  29.532  14.830  0.0101  0.2334 -0.2240
 2123DOPE   C3B24917  20.186  29.774  14.464  0.0614  0.1172  0.2765
 2123DOPE   C4B24918  20.327  29.784  14.028 -0.0228  0.0847 -0.1647
 2124POSM   NC324919  16.885  32.326  15.528 -0.3672 -0.2636 -0.0187
 2124POSM   PO424920  16.777  32.055  15.756 -0.0021 -0.2584 -0.3774
 2124POSM   AM124921  16.841  31.849  15.490 -0.1936  0.3082 -0.2543
 2124POSM   AM224922  17.029  31.907  15.324  0.2124  0.1897 -0.1671
 2124POSM   T1A24923  16.666  31.613  15.071 -0.1287 -0.0997  0.0526
 2124POSM   C2A24924  16.968  31.427  14.767  0.1134  0.2503  0.2240
 2124POSM   C3A24925  17.008  31.031  14.544  0.1605 -0.0458 -0.1708
 2124POSM   C1B24926  17.065  31.903  14.976 -0.0486 -0.2965 -0.0195
 2124POSM   D2B24927  17.329  31.803  14.617 -0.1864 -0.2036 -0.2018
 2124POSM   C3B24928  17.355  31.590  14.198 -0.0125 -0.0468 -0.3108
 2124POSM   C4B24929  17.178  31.759  13.794  0.1218 -0.0829  0.1764
 2125DOPC   NC324930  19.076  22.522  15.919  0.0825 -0.2632 -0.1519
 2125DOPC   PO424931  19.366  22.861  15.950  0.1928 -0.2734 -0.1930
 2125DOPC   GL124932  19.198  22.938  15.612  0.1682  0.0134  0.0258
 2125DOPC   GL224933  19.222  22.753  15.414  0.1246 -0.3140 -0.0643
 2125DOPC   C1A24934  19.453  23.163  15.248 -0.0704  0.2397  0.3568
 2125DOPC   D2A24935  19.599  23.138  14.802 -0.0836  0.1243  0.0905
 2125DOPC   C3A24936  19.432  22.861  14.490  0.0877 -0.0301  0.3252
 2125DOPC   C4A24937  19.345  22.546  14.209  0.1277 -0.1557 -0.3056
 2125DOPC   C1B24938  19.288  22.753  14.973  0.1303 -0.1225  0.3287
 2125DOPC   D2B24939  19.264  22.356  14.685  0.2133  0.0732 -0.0864
 2125DOPC   C3B24940  19.683  22.398  14.531  0.0630  0.0205  0.0155
 2125DOPC   C4B24941  20.176  22.301  14.419 -0.0292  0.1825 -0.1943
 2126POSM   NC324942  15.604  25.140  15.596 -0.2159 -0.3388  0.3418
 2126POSM   PO424943  15.367  24.878  15.635  0.1782 -0.3545 -0.2946
 2126POSM   AM124944  15.451  24.791  15.292  0.0180  0.2092 -0.0341
 2126POSM   AM224945  15.518  24.526  15.199  0.0755  0.1913  0.1155
 2126POSM   T1A24946  15.399  24.981  14.816 -0.0412 -0.0488 -0.0617
 2126POSM   C2A24947  15.548  25.085  14.370 -0.3213  0.0108  0.3169
 2126POSM   C3A24948  15.685  25.094  13.932  0.1715  0.1280  0.3029
 2126POSM   C1B24949  15.288  24.516  14.909  0.0056 -0.0720 -0.3610
 2126POSM   D2B24950  15.004  24.410  14.615  0.0267 -0.0811 -0.2034
 2126POSM   C3B24951  14.901  23.949  14.537 -0.3095 -0.1261  0.0533
 2126POSM   C4B24952  15.230  23.679  14.335  0.0578 -0.1902 -0.0860
 2127POSM   NC324953  13.090  33.120  15.561  0.0225 -0.1547 -0.2273
 2127POSM   PO424954  12.850  33.382  15.341 -0.4007  0.1567 -0.0708
 2127POSM   AM124955  12.679  33.501  15.122 -0.1754  0.0992 -0.3898
 2127POSM   AM224956  12.717  33.536  14.828 -0.1507  0.0462  0.4349
 2127POSM   T1A24957  12.217  33.571  14.859  0.0787 -0.3287  0.0036
 2127POSM   C2A24958  12.088  33.836  14.439  0.2758  0.0589 -0.1235
 2127POSM   C3A24959  12.069  33.943  14.015 -0.1358  0.0340  0.2918
 2127POSM   C1B24960  12.563  33.494  14.472  0.0737  0.0723 -0.2063
 2127POSM   D2B24961  12.600  33.327  14.058 -0.1174 -0.2191 -0.1517
 2127POSM   C3B24962  12.570  32.865  13.923 -0.2155  0.0342  0.0943
 2127POSM   C4B24963  12.243  32.573  13.834  0.0484  0.2896 -0.1579
 2128DOPS   CNO24964  16.441  29.534  16.541 -0.2654  0.0464  0.0735
 2128DOPS   PO424965  16.453  29.766  16.237  0.1083 -0.1465 -0.1767
 2128DOPS   GL124966  16.441  30.089  15.976  0.2315  0.2103  0.1107
 2128DOPS   GL224967  16.513  29.918  15.684  0.0474 -0.0897 -0.0805
 2128DOPS   C1A24968  16.754  30.337  15.758 -0.2211  0.1398  0.1508
 2128DOPS   D2A24969  16.856  30.642  15.390  0.1066 -0.0023  0.0707
 2128DOPS   C3A24970  17.272  30.784  15.317  0.2740  0.1085 -0.3015
 2128DOPS   C4A24971  17.720  30.687  15.499  0.1707  0.1923 -0.0764
 2128DOPS   C1B24972  16.630  30.171  15.328  0.0543  0.2299 -0.1717
 2128DOPS   D2B24973  16.629  30.280  14.858  0.0492  0.2177  0.1009
 2128DOPS   C3B24974  16.619  30.482  14.404 -0.0085  0.1194 -0.0664
 2128DOPS   C4B24975  16.450  30.925  14.338  0.3055 -0.0909  0.0005
 2129DOPC   NC324976  15.127  31.815  15.659 -0.1046 -0.0723 -0.4375
 2129DOPC   PO424977  15.151  32.163  15.488 -0.1081  0.2080 -0.0007
 2129DOPC   GL124978  14.930  31.986  15.224 -0.5049  0.3477  0.0504
 2129DOPC   GL224979  14.711  31.828  15.275  0.1419 -0.1896 -0.1289
 2129DOPC   C1A24980  14.587  32.096  14.914  0.0614 -0.1880  0.3036
 2129DOPC   D2A24981  14.329  31.950  14.484 -0.3630  0.1662 -0.2492
 2129DOPC   C3A24982  14.172  32.310  14.247  0.1732  0.4553 -0.2712
 2129DOPC   C4A24983  13.996  32.697  14.363  0.2212  0.0085  0.0020
 2129DOPC   C1B24984  14.841  31.448  15.523 -0.3686  0.1438 -0.1945
 2129DOPC   D2B24985  15.277  31.476  15.341 -0.1061 -0.2736 -0.0055
 2129DOPC   C3B24986  15.268  31.757  15.001  0.1435  0.0003  0.0615
 2129DOPC   C4B24987  15.209  32.210  14.797 -0.0905 -0.4059 -0.0633
 2130DOPE   NH324988  15.302  30.642  16.371  0.0440  0.0900 -0.1832
 2130DOPE   PO424989  15.213  30.959  16.304 -0.0974 -0.0589  0.0851
 2130DOPE   GL124990  15.453  30.867  15.871 -0.1218 -0.0562 -0.0529
 2130DOPE   GL224991  15.756  30.862  15.880  0.0944  0.1803 -0.1280
 2130DOPE   C1A24992  15.541  31.066  15.475  0.2009 -0.1252  0.1647
 2130DOPE   D2A24993  15.777  31.061  15.087 -0.0095 -0.3021 -0.0046
 2130DOPE   C3A24994  15.594  30.735  14.862 -0.1212  0.3844 -0.1249
 2130DOPE   C4A24995  15.752  30.281  14.847  0.1590 -0.1919 -0.1444
 2130DOPE   C1B24996  16.077  30.960  15.527 -0.1867 -0.1006  0.0341
 2130DOPE   D2B24997  16.425  30.866  15.198  0.0208  0.0066  0.0321
 2130DOPE   C3B24998  16.497  31.224  14.932 -0.0442  0.0750  0.4383
 2130DOPE   C4B24999  16.343  31.440  14.538  0.1868  0.0581 -0.1567
 2131DOPE   NH325000  17.094  24.901  16.057  0.2893 -0.1687 -0.1226
 2131DOPE   PO425001  17.054  25.182  15.887 -0.2425 -0.0435  0.0657
 2131DOPE   GL125002  16.962  24.987  15.531 -0.0556 -0.0466 -0.1047
 2131DOPE   GL225003  17.202  24.882  15.442 -0.4563  0.1079 -0.3570
 2131DOPE   C1A25004  16.876  24.655  15.151 -0.4019 -0.1528  0.2247
 2131DOPE   D2A25005  16.802  24.407  14.731 -0.0266 -0.1126  0.1525
 2131DOPE   C3A25006  16.882  24.658  14.329 -0.0944 -0.0864 -0.4222
 2131DOPE   C4A25007  16.801  24.647  13.858  0.2683 -0.1338  0.0797
 2131DOPE   C1B25008  17.385  25.003  15.013  0.0524  0.0453 -0.1189
 2131DOPE   D2B25009  17.270  25.342  14.699  0.0561  0.1895  0.1788
 2131DOPE   C3B25010  17.336  25.037  14.380 -0.0837  0.1212  0.0592
 2131DOPE   C4B25011  17.271  24.910  13.923 -0.0832 -0.0560 -0.2464
 2132DOPC   NC325012  18.110  26.114  16.379 -0.4619 -0.1508 -0.1576
 2132DOPC   PO425013  18.453  26.332  16.377 -0.3076 -0.2080  0.2288
 2132DOPC   GL125014  18.459  26.461  15.989  0.2652  0.0204 -0.0291
 2132DOPC   GL225015  18.570  26.769  16.079 -0.0721  0.0397  0.1509
 2132DOPC   C1A25016  18.113  26.388  15.664  0.1393 -0.2055 -0.4027
 2132DOPC   D2A25017  18.205  26.260  15.285  0.0969 -0.0834  0.2332
 2132DOPC   C3A25018  17.991  26.083  14.960 -0.3682  0.2344  0.0131
 2132DOPC   C4A25019  17.751  26.179  14.568  0.1045  0.0851 -0.2883
 2132DOPC   C1B25020  18.216  26.964  15.830  0.1136  0.1701  0.0473
 2132DOPC   D2B25021  17.912  27.234  15.639  0.0643  0.1935  0.0265
 2132DOPC   C3B25022  17.893  27.348  15.175  0.0385  0.1481 -0.2522
 2132DOPC   C4B25023  18.025  27.732  14.898  0.3217  0.0894 -0.1513
 2133POSM   NC325024  19.323  31.890  16.057  0.0773  0.2038 -0.1001
 2133POSM   PO425025  19.363  31.490  15.996  0.1040 -0.2215 -0.1643
 2133POSM   AM125026  19.500  31.593  15.702 -0.0797 -0.0933 -0.2537
 2133POSM   AM225027  19.757  31.503  15.568  0.1756  0.0160 -0.2626
 2133POSM   T1A25028  19.378  31.562  15.187 -0.1425  0.1137 -0.0714
 2133POSM   C2A25029  19.454  31.642  14.744  0.1981  0.0121  0.0494
 2133POSM   C3A25030  19.443  31.819  14.309 -0.0380  0.1429 -0.0026
 2133POSM   C1B25031  19.826  31.422  15.238 -0.0139 -0.0163 -0.2610
 2133POSM   D2B25032  19.776  31.200  14.851 -0.0847 -0.3418  0.1739
 2133POSM   C3B25033  19.567  31.298  14.406  0.3070  0.4362  0.1165
 2133POSM   C4B25034  19.148  31.447  14.394  0.2126  0.2494 -0.2927
 2134POSM   NC325035  14.018  34.115  15.181  0.1730  0.0347 -0.1088
 2134POSM   PO425036  13.708  33.877  15.257 -0.0535 -0.2508 -0.2828
 2134POSM   AM125037  13.563  33.792  14.975 -0.0880  0.0833 -0.5090
 2134POSM   AM225038  13.574  33.565  14.797 -0.1310 -0.0970  0.1726
 2134POSM   T1A25039  13.176  33.805  14.665 -0.0878  0.4075 -0.0914
 2134POSM   C2A25040  13.114  33.991  14.229  0.0657  0.1845  0.2413
 2134POSM   C3A25041  13.424  33.990  13.844  0.0614 -0.1525 -0.2767
 2134POSM   C1B25042  13.555  33.562  14.447 -0.0244  0.1464 -0.0783
 2134POSM   D2B25043  13.626  33.544  13.973 -0.1464  0.0457  0.2877
 2134POSM   C3B25044  13.503  33.183  13.683  0.0445  0.1587 -0.1277
 2134POSM   C4B25045  13.427  32.756  13.440  0.0514  0.2642  0.0532
 2135DOPC   NC325046  19.697  32.376  15.794 -0.0469  0.1629 -0.0911
 2135DOPC   PO425047  19.988  32.627  15.908 -0.0399  0.3391  0.1141
 2135DOPC   GL125048  19.967  32.648  15.507 -0.0994  0.0005  0.3671
 2135DOPC   GL225049  20.101  32.899  15.417  0.2027  0.0990 -0.2370
 2135DOPC   C1A25050  19.945  32.697  15.031  0.1539  0.1338  0.1812
 2135DOPC   D2A25051  19.772  32.630  14.582 -0.0318 -0.4095  0.1379
 2135DOPC   C3A25052  19.788  32.564  14.136  0.1774  0.0296 -0.3343
 2135DOPC   C4A25053  19.998  32.357  13.797  0.0965  0.0189  0.1048
 2135DOPC   C1B25054  19.779  33.210  15.256 -0.3282  0.1750  0.1276
 2135DOPC   D2B25055  19.480  33.474  14.961 -0.2109 -0.2034  0.0156
 2135DOPC   C3B25056  19.218  33.513  14.561 -0.0859 -0.0934  0.2779
 2135DOPC   C4B25057  19.093  33.369  14.145 -0.0022  0.0425 -0.0576
 2136DOPS   CNO25058  15.778  29.080  16.324  0.1790 -0.2156  0.1409
 2136DOPS   PO425059  15.845  28.955  15.959  0.1684 -0.0692  0.0253
 2136DOPS   GL125060  16.055  29.120  15.694 -0.0641  0.2308  0.3809
 2136DOPS   GL225061  16.352  28.955  15.658 -0.0559  0.4040  0.0994
 2136DOPS   C1A25062  16.045  29.577  15.558 -0.0409 -0.0016 -0.1745
 2136DOPS   D2A25063  16.074  30.076  15.371 -0.2950 -0.0197 -0.0006
 2136DOPS   C3A25064  16.258  30.454  15.641  0.1020 -0.1842 -0.0706
 2136DOPS   C4A25065  16.544  30.812  15.729  0.0103 -0.0009 -0.2000
 2136DOPS   C1B25066  16.509  29.299  15.290 -0.1770 -0.0643  0.0211
 2136DOPS   D2B25067  16.446  29.725  15.110  0.0407  0.4629 -0.0896
 2136DOPS   C3B25068  16.120  29.842  14.787 -0.1472  0.3172 -0.0748
 2136DOPS   C4B25069  15.789  29.935  14.455  0.0737 -0.0365 -0.4151
 2137DOPE   NH325070  22.525  27.737  15.501  0.2344  0.2442 -0.0436
 2137DOPE   PO425071  22.348  27.477  15.455 -0.4486 -0.0623 -0.0082
 2137DOPE   GL125072  22.103  27.501  15.209 -0.2612 -0.0706  0.0779
 2137DOPE   GL225073  22.046  27.840  15.294 -0.3324 -0.0993 -0.1117
 2137DOPE   C1A25074  21.800  27.575  14.865 -0.2528 -0.3890 -0.0567
 2137DOPE   D2A25075  21.695  27.757  14.467  0.3550 -0.2863  0.4565
 2137DOPE   C3A25076  21.345  27.976  14.213  0.1022  0.0485 -0.0512
 2137DOPE   C4A25077  21.159  28.128  13.877 -0.1118 -0.2828  0.2642
 2137DOPE   C1B25078  21.752  28.075  15.045  0.3866 -0.0395  0.2235
 2137DOPE   D2B25079  21.388  27.982  14.811  0.0811  0.1163  0.1857
 2137DOPE   C3B25080  21.157  28.338  14.553 -0.0770 -0.1420 -0.1864
 2137DOPE   C4B25081  20.748  28.236  14.212 -0.1540  0.2014 -0.2189
 2138DOPS   CNO25082  16.645  32.886  15.711 -0.0223  0.1389  0.0072
 2138DOPS   PO425083  16.622  32.743  15.367 -0.0896 -0.2877  0.0505
 2138DOPS   GL125084  16.891  32.766  15.042 -0.1391 -0.3197 -0.1659
 2138DOPS   GL225085  16.862  32.493  14.954  0.0412 -0.2827  0.1053
 2138DOPS   C1A25086  16.895  32.843  14.557 -0.0808  0.0296  0.0432
 2138DOPS   D2A25087  17.000  33.064  14.192 -0.2568 -0.2582  0.1266
 2138DOPS   C3A25088  17.332  32.943  13.933  0.1673  0.0375 -0.1765
 2138DOPS   C4A25089  17.769  32.733  13.772 -0.1119  0.0813  0.0568
 2138DOPS   C1B25090  17.043  32.273  14.595 -0.1344 -0.1653 -0.0459
 2138DOPS   D2B25091  17.112  32.109  14.203 -0.1368 -0.0919 -0.0565
 2138DOPS   C3B25092  16.966  32.207  13.795  0.1154 -0.0788 -0.1562
 2138DOPS   C4B25093  16.704  32.390  13.483  0.0935 -0.1159  0.2100
 2139DOPS   CNO25094  13.739  24.688  15.918  0.0355  0.1067  0.0822
 2139DOPS   PO425095  13.574  24.587  15.564 -0.2356 -0.0705  0.5302
 2139DOPS   GL125096  13.533  24.768  15.265 -0.2334 -0.2085 -0.0876
 2139DOPS   GL225097  13.811  24.777  15.119 -0.2318 -0.0356  0.0237
 2139DOPS   C1A25098  13.452  24.587  14.829  0.0315 -0.0214 -0.0991
 2139DOPS   D2A25099  13.570  24.456  14.405 -0.1410  0.0054  0.3246
 2139DOPS   C3A25100  13.854  24.664  14.160 -0.2041  0.0233 -0.0781
 2139DOPS   C4A25101  13.905  24.758  13.681  0.1682  0.0427 -0.2547
 2139DOPS   C1B25102  13.944  24.644  14.664 -0.2261  0.1218  0.1828
 2139DOPS   D2B25103  14.162  24.304  14.411 -0.0844 -0.3224  0.2592
 2139DOPS   C3B25104  14.592  24.331  14.326 -0.0432 -0.0759  0.1913
 2139DOPS   C4B25105  14.977  24.200  14.105 -0.2815 -0.0620  0.1849
 2140POSM   NC325106  12.944  30.416  15.847  0.2428  0.4075 -0.0003
 2140POSM   PO425107  12.965  30.806  15.794  0.0283  0.2797 -0.5405
 2140POSM   AM125108  13.098  30.868  15.524  0.0057 -0.2412  0.1530
 2140POSM   AM225109  13.020  30.750  15.244 -0.3252  0.2478 -0.0713
 2140POSM   T1A25110  13.494  30.883  15.236  0.2060  0.0457  0.2391
 2140POSM   C2A25111  13.776  30.859  14.889  0.0515 -0.0960  0.0306
 2140POSM   C3A25112  13.893  30.768  14.476  0.1022 -0.0826 -0.1635
 2140POSM   C1B25113  13.112  30.812  14.920 -0.0237 -0.1927 -0.3518
 2140POSM   D2B25114  13.384  30.919  14.555  0.1328  0.1717 -0.1268
 2140POSM   C3B25115  13.516  31.036  14.111 -0.2408  0.0213  0.0261
 2140POSM   C4B25116  13.580  31.407  13.868 -0.1272  0.0257  0.0150
 2141POSM   NC325117  20.364  28.693  15.828 -0.1316  0.1113 -0.3774
 2141POSM   PO425118  20.060  28.470  15.970  0.0834  0.1999 -0.1036
 2141POSM   AM125119  19.914  28.493  15.668  0.1079 -0.0271 -0.1443
 2141POSM   AM225120  20.097  28.561  15.424 -0.3452  0.1960  0.2072
 2141POSM   T1A25121  19.734  28.832  15.322 -0.0663  0.5414  0.3177
 2141POSM   C2A25122  19.379  29.005  15.142 -0.1788 -0.0845  0.1645
 2141POSM   C3A25123  19.013  28.838  14.906  0.5004  0.2596  0.0016
 2141POSM   C1B25124  20.188  28.712  15.157 -0.1084 -0.0048 -0.2320
 2141POSM   D2B25125  19.971  28.855  14.820  0.0235 -0.0180 -0.0158
 2141POSM   C3B25126  19.808  28.850  14.340  0.5649  0.0156 -0.0266
 2141POSM   C4B25127  19.766  28.692  13.882  0.0356 -0.2861 -0.0229
 2142DOPC   NC325128  14.403  25.023  15.812  0.1090 -0.1927 -0.1556
 2142DOPC   PO425129  14.415  25.362  15.629 -0.3067  0.1744  0.0814
 2142DOPC   GL125130  14.171  25.275  15.311  0.3398 -0.3406 -0.0471
 2142DOPC   GL225131  14.256  25.454  15.038  0.2389  0.0173  0.0132
 2142DOPC   C1A25132  14.222  25.026  14.849 -0.3817  0.1189  0.1057
 2142DOPC   D2A25133  14.268  24.938  14.385  0.2099 -0.0029  0.0903
 2142DOPC   C3A25134  14.018  25.184  14.038  0.3454  0.0513  0.1551
 2142DOPC   C4A25135  13.940  25.282  13.569 -0.0035  0.0024 -0.2721
 2142DOPC   C1B25136  14.133  25.490  14.622 -0.0358  0.2216  0.2867
 2142DOPC   D2B25137  14.235  25.654  14.199 -0.2149 -0.0278  0.1813
 2142DOPC   C3B25138  14.286  25.897  13.821 -0.2261  0.0961  0.1755
 2142DOPC   C4B25139  14.366  26.209  13.488  0.1758  0.2660  0.2504
 2143POSM   NC325140  16.072  34.056  15.840  0.3871 -0.1625 -0.2435
 2143POSM   PO425141  16.121  33.653  15.762 -0.2751  0.3449  0.0741
 2143POSM   AM125142  16.291  33.743  15.512 -0.3340 -0.4608  0.0852
 2143POSM   AM225143  16.576  33.697  15.427  0.3130  0.0904 -0.0682
 2143POSM   T1A25144  16.392  34.054  15.102  0.2602 -0.0457  0.3879
 2143POSM   C2A25145  16.551  34.069  14.640  0.2396  0.2038 -0.2722
 2143POSM   C3A25146  16.394  33.883  14.226  0.0365  0.0578  0.1949
 2143POSM   C1B25147  16.646  33.643  15.058 -0.0553  0.0691  0.0323
 2143POSM   D2B25148  16.628  33.549  14.570 -0.1682  0.2734  0.0276
 2143POSM   C3B25149  17.033  33.576  14.223 -0.0101  0.2573 -0.3453
 2143POSM   C4B25150  17.271  33.789  13.931  0.1006 -0.2509 -0.0493
 2144DOPC   NC325151  19.296  29.568  16.027  0.1103 -0.0124  0.1946
 2144DOPC   PO425152  18.992  29.695  16.296 -0.0972  0.0752 -0.0164
 2144DOPC   GL125153  18.689  29.703  15.960 -0.2652 -0.2859  0.0174
 2144DOPC   GL225154  18.903  29.676  15.725  0.0933  0.0681 -0.3738
 2144DOPC   C1A25155  18.367  29.808  15.667 -0.2222  0.3478 -0.4080
 2144DOPC   D2A25156  18.078  29.492  15.485 -0.1003  0.0869 -0.2419
 2144DOPC   C3A25157  18.072  29.464  15.051 -0.1794 -0.3249  0.1563
 2144DOPC   C4A25158  18.180  29.104  14.830  0.0448 -0.0140  0.0261
 2144DOPC   C1B25159  18.991  29.474  15.333 -0.0525  0.1268 -0.0477
 2144DOPC   D2B25160  18.878  29.382  14.916 -0.3334 -0.0159  0.0467
 2144DOPC   C3B25161  19.105  29.315  14.503  0.1075  0.0893  0.1787
 2144DOPC   C4B25162  19.238  28.920  14.230 -0.0407 -0.0335 -0.2382
 2145POSM   NC325163  18.649  29.403  16.396  0.3432  0.0381 -0.0117
 2145POSM   PO425164  18.560  29.027  16.541  0.1000  0.0902 -0.0352
 2145POSM   AM125165  18.542  28.968  16.218  0.0916  0.3528 -0.0130
 2145POSM   AM225166  18.545  29.170  15.988  0.2472 -0.0996  0.0169
 2145POSM   T1A25167  18.684  28.685  15.825  0.1211  0.0009 -0.0538
 2145POSM   C2A25168  18.933  28.350  15.600  0.0858  0.1802 -0.1420
 2145POSM   C3A25169  19.127  28.232  15.213  0.0102  0.2725 -0.0908
 2145POSM   C1B25170  18.567  29.294  15.609  0.2684  0.1803 -0.0245
 2145POSM   D2B25171  18.552  29.650  15.258 -0.1089 -0.0481  0.0268
 2145POSM   C3B25172  18.214  29.952  15.204 -0.1831  0.1439  0.1410
 2145POSM   C4B25173  18.131  30.419  15.239  0.0431  0.3212  0.1695
 2146POSM   NC325174  20.353  24.283  15.713 -0.0446 -0.2158 -0.0701
 2146POSM   PO425175  20.088  24.168  15.992  0.2626 -0.1521 -0.0976
 2146POSM   AM125176  19.916  24.114  15.728  0.0435  0.2675  0.4601
 2146POSM   AM225177  19.790  24.329  15.576  0.0579 -0.2409  0.3278
 2146POSM   T1A25178  20.093  24.064  15.270  0.1012  0.0635 -0.0539
 2146POSM   C2A25179  20.348  24.177  14.893  0.1710  0.1312 -0.0480
 2146POSM   C3A25180  20.809  24.313  14.787  0.1271 -0.2431 -0.0408
 2146POSM   C1B25181  19.770  24.452  15.173  0.0974  0.0851 -0.1321
 2146POSM   D2B25182  19.860  24.555  14.704  0.0640  0.2359 -0.0218
 2146POSM   C3B25183  19.697  24.261  14.354  0.4422  0.2220  0.0484
 2146POSM   C4B25184  19.336  23.985  14.382 -0.2325 -0.1245 -0.1580
 2147DOPC   NC325185  13.635  26.694  15.604 -0.0877  0.1269  0.1488
 2147DOPC   PO425186  13.446  26.390  15.488  0.0489 -0.1900 -0.0651
 2147DOPC   GL125187  13.371  26.659  15.186 -0.0516 -0.3771 -0.2230
 2147DOPC   GL225188  13.344  26.594  14.895  0.3485  0.1753  0.1749
 2147DOPC   C1A25189  13.613  27.057  15.008  0.2079  0.1033  0.1174
 2147DOPC   D2A25190  13.453  27.507  14.941  0.2458 -0.2315  0.1448
 2147DOPC   C3A25191  13.408  27.406  14.526 -0.0214 -0.0853  0.1458
 2147DOPC   C4A25192  13.702  27.357  14.173  0.2122  0.0206  0.2665
 2147DOPC   C1B25193  13.168  26.780  14.461  0.0551 -0.0266  0.0004
 2147DOPC   D2B25194  13.074  26.548  14.046 -0.0044  0.0343  0.2816
 2147DOPC   C3B25195  12.912  26.115  14.112 -0.0953 -0.1228 -0.0762
 2147DOPC   C4B25196  12.991  25.813  14.461 -0.1680 -0.0497 -0.1349
 2148DOPE   NH325197  14.136  25.724  15.537 -0.1865 -0.1771  0.1664
 2148DOPE   PO425198  13.896  25.706  15.367  0.1872 -0.0722  0.2543
 2148DOPE   GL125199  13.963  25.985  15.157 -0.3975 -0.1312 -0.1072
 2148DOPE   GL225200  13.849  25.817  14.891 -0.4130 -0.3659 -0.0722
 2148DOPE   C1A25201  14.252  26.104  14.791  0.3852  0.0601  0.0034
 2148DOPE   D2A25202  14.581  26.235  14.479  0.0299  0.0171  0.3315
 2148DOPE   C3A25203  15.014  26.216  14.357  0.2435 -0.2250  0.2937
 2148DOPE   C4A25204  15.482  26.270  14.424  0.0509  0.2664 -0.2188
 2148DOPE   C1B25205  13.695  25.827  14.447  0.1138  0.1769 -0.1222
 2148DOPE   D2B25206  13.820  25.690  14.025 -0.0305 -0.0983 -0.0488
 2148DOPE   C3B25207  13.522  25.705  13.688 -0.0790 -0.3271 -0.5156
 2148DOPE   C4B25208  13.398  25.914  13.278 -0.0079  0.1431 -0.0066
 2149DOPC   NC325209  11.957  28.174  15.502  0.1714  0.0826 -0.2108
 2149DOPC   PO425210  11.988  27.776  15.601 -0.0200 -0.0611  0.1605
 2149DOPC   GL125211  12.176  27.804  15.300  0.2155  0.3578 -0.0721
 2149DOPC   GL225212  12.487  27.638  15.300 -0.3125 -0.1028  0.0195
 2149DOPC   C1A25213  12.193  28.132  14.918 -0.0058  0.1030 -0.0490
 2149DOPC   D2A25214  12.080  28.411  14.535  0.0767 -0.0838 -0.0029
 2149DOPC   C3A25215  12.364  28.409  14.238  0.0767  0.2115  0.0176
 2149DOPC   C4A25216  12.613  28.436  13.864  0.0499  0.1686  0.0701
 2149DOPC   C1B25217  12.664  27.923  14.919  0.2917 -0.0256  0.1121
 2149DOPC   D2B25218  12.577  28.452  14.770  0.1584 -0.1590  0.1105
 2149DOPC   C3B25219  12.860  28.837  14.935  0.0744 -0.2313  0.0117
 2149DOPC   C4B25220  13.215  29.077  14.818 -0.3824  0.1462  0.2228
 2150POSM   NC325221  21.282  30.587  16.648  0.4245 -0.2591  0.1123
 2150POSM   PO425222  21.088  30.563  16.263 -0.0086  0.1804 -0.1189
 2150POSM   AM125223  21.203  30.574  15.978 -0.1637 -0.2421 -0.0856
 2150POSM   AM225224  21.153  30.698  15.742 -0.0556  0.1294  0.2163
 2150POSM   T1A25225  21.536  30.455  15.581  0.0401 -0.0267  0.1608
 2150POSM   C2A25226  21.910  30.442  15.362  0.2742 -0.0179  0.0818
 2150POSM   C3A25227  22.147  30.674  15.023  0.1086  0.0612  0.1235
 2150POSM   C1B25228  20.937  30.717  15.465  0.0417 -0.0805  0.1119
 2150POSM   D2B25229  20.772  30.733  15.010 -0.2084  0.2218  0.0698
 2150POSM   C3B25230  20.491  30.474  14.730 -0.0669  0.1556  0.2349
 2150POSM   C4B25231  20.049  30.178  14.725 -0.3049 -0.4876 -0.0941
 2151POSM   NC325232  12.446  33.474  15.582 -0.1893  0.1129 -0.2269
 2151POSM   PO425233  12.222  33.138  15.462 -0.2216 -0.2789 -0.0567
 2151POSM   AM125234  12.334  33.174  15.135 -0.2820 -0.2586 -0.0265
 2151POSM   AM225235  12.546  33.108  15.027  0.1877 -0.1174 -0.2669
 2151POSM   T1A25236  12.251  33.147  14.614  0.1666  0.1335  0.0818
 2151POSM   C2A25237  12.148  33.180  14.168  0.2007  0.1876  0.4006
 2151POSM   C3A25238  12.186  33.101  13.707  0.1328 -0.0293 -0.0873
 2151POSM   C1B25239  12.743  33.045  14.745 -0.1010 -0.1264  0.1091
 2151POSM   D2B25240  12.926  33.052  14.331  0.0895 -0.0695  0.0402
 2151POSM   C3B25241  13.214  32.770  14.131  0.1497  0.1040  0.0935
 2151POSM   C4B25242  13.450  32.428  13.971  0.3105  0.3901  0.0106
 2152POSM   NC325243  15.144  29.633  15.553 -0.0642  0.0763 -0.0276
 2152POSM   PO425244  14.913  29.401  15.729 -0.0996 -0.1237  0.0985
 2152POSM   AM125245  14.914  29.241  15.448 -0.0905  0.0744 -0.0813
 2152POSM   AM225246  14.733  29.090  15.298 -0.2048 -0.1019  0.1300
 2152POSM   T1A25247  15.093  29.264  14.964 -0.3840 -0.0411 -0.0050
 2152POSM   C2A25248  15.143  29.061  14.579 -0.0728 -0.0365  0.0831
 2152POSM   C3A25249  15.468  28.873  14.297 -0.4805 -0.0135  0.2002
 2152POSM   C1B25250  14.619  29.169  15.024 -0.0920  0.1406  0.1312
 2152POSM   D2B25251  14.721  29.360  14.645  0.2558  0.1505  0.2036
 2152POSM   C3B25252  14.505  29.631  14.289  0.1960 -0.1053 -0.0112
 2152POSM   C4B25253  14.251  29.750  13.932 -0.0763 -0.1748 -0.1123
 2153POSM   NC325254  14.736  33.977  15.844 -0.2339 -0.0674 -0.6895
 2153POSM   PO425255  14.494  34.150  15.558 -0.0552 -0.1121 -0.0485
 2153POSM   AM125256  14.515  34.265  15.258 -0.3595 -0.0284 -0.3065
 2153POSM   AM225257  14.668  34.291  15.059  0.3773 -0.2917 -0.3567
 2153POSM   T1A25258  14.277  34.388  14.848 -0.0591  0.2403 -0.1466
 2153POSM   C2A25259  14.123  34.343  14.413 -0.1401  0.1239 -0.3242
 2153POSM   C3A25260  13.974  34.694  14.129  0.0046  0.2897 -0.0818
 2153POSM   C1B25261  14.836  34.074  14.807 -0.1523 -0.1120 -0.0980
 2153POSM   D2B25262  14.953  33.758  14.453  0.0887 -0.0393  0.1390
 2153POSM   C3B25263  14.748  33.563  14.108 -0.1067 -0.2766  0.4023
 2153POSM   C4B25264  14.799  33.378  13.678 -0.0758 -0.2259 -0.2107
 2154DOPC   NC325265  22.934  30.230  16.018  0.1772  0.0154 -0.0140
 2154DOPC   PO425266  22.835  30.600  16.044  0.1112  0.1516 -0.5460
 2154DOPC   GL125267  22.913  30.429  15.602  0.0883  0.4968 -0.0426
 2154DOPC   GL225268  23.119  30.585  15.512 -0.0314  0.2716  0.0831
 2154DOPC   C1A25269  22.772  30.607  15.150 -0.1392 -0.1294 -0.0572
 2154DOPC   D2A25270  22.975  30.663  14.694 -0.0826  0.0901  0.1428
 2154DOPC   C3A25271  22.841  30.427  14.360 -0.0981 -0.1687 -0.1723
 2154DOPC   C4A25272  22.643  30.407  13.903 -0.0165 -0.0796 -0.0619
 2154DOPC   C1B25273  23.262  30.743  15.124 -0.8345  0.1444  0.0695
 2154DOPC   D2B25274  23.372  31.067  14.797  0.0199  0.1018 -0.2614
 2154DOPC   C3B25275  23.198  30.993  14.342  0.0649 -0.0365  0.0814
 2154DOPC   C4B25276  23.400  31.031  13.882  0.2475  0.1536  0.1986
 2155POSM   NC325277  21.643  30.396  16.091  0.2819 -0.2417 -0.1414
 2155POSM   PO425278  21.991  30.231  15.972  0.0581 -0.0328  0.1987
 2155POSM   AM125279  22.186  30.275  15.720  0.3059  0.2110  0.0434
 2155POSM   AM225280  22.448  30.401  15.705  0.0092  0.0257 -0.1200
 2155POSM   T1A25281  22.349  30.191  15.236  0.1982  0.4213  0.1685
 2155POSM   C2A25282  22.445  30.304  14.787 -0.0784  0.0640  0.2781
 2155POSM   C3A25283  22.314  30.557  14.400  0.0395 -0.3189 -0.1429
 2155POSM   C1B25284  22.400  30.647  15.485  0.0817  0.1696 -0.0546
 2155POSM   D2B25285  22.388  31.034  15.222 -0.0028  0.1574 -0.0671
 2155POSM   C3B25286  22.549  30.889  14.770  0.0804  0.0288 -0.0393
 2155POSM   C4B25287  22.716  30.944  14.327  0.1205  0.1959  0.2028
 2156DOPS   CNO25288  17.072  28.756  16.213  0.2749  0.1750  0.0331
 2156DOPS   PO425289  17.262  28.848  15.925 -0.2259  0.0429 -0.0244
 2156DOPS   GL125290  17.084  28.875  15.572  0.1376  0.3435  0.0896
 2156DOPS   GL225291  16.804  28.745  15.643 -0.0234  0.1089 -0.0579
 2156DOPS   C1A25292  17.022  29.215  15.267 -0.1222 -0.0809 -0.0632
 2156DOPS   D2A25293  16.847  29.482  14.996  0.0964 -0.2252 -0.0945
 2156DOPS   C3A25294  16.945  29.867  14.800  0.1645 -0.1624  0.0056
 2156DOPS   C4A25295  17.104  30.309  15.016 -0.0714 -0.1740 -0.0321
 2156DOPS   C1B25296  16.706  28.838  15.164 -0.1625  0.1244 -0.2654
 2156DOPS   D2B25297  16.650  28.750  14.662  0.0253  0.0173  0.1523
 2156DOPS   C3B25298  16.434  28.932  14.350  0.0358 -0.4773 -0.0615
 2156DOPS   C4B25299  16.365  28.839  13.905  0.0059  0.0539  0.5654
 2157DOPS   CNO25300  12.007  30.464  15.430 -0.0650 -0.5382 -0.2181
 2157DOPS   PO425301  11.858  30.736  15.228  0.2101  0.0220  0.1639
 2157DOPS   GL125302  12.066  30.806  14.816 -0.1489 -0.0490  0.4849
 2157DOPS   GL225303  12.007  30.601  14.636  0.2240 -0.0101 -0.0768
 2157DOPS   C1A25304  12.320  30.932  14.464 -0.3527 -0.3540 -0.3109
 2157DOPS   D2A25305  12.462  30.729  14.094  0.0791  0.3396 -0.2180
 2157DOPS   C3A25306  12.753  30.305  14.031  0.1085 -0.0291 -0.0275
 2157DOPS   C4A25307  13.082  30.009  14.133  0.0148  0.1036  0.1356
 2157DOPS   C1B25308  11.995  30.480  14.171 -0.1853 -0.1503 -0.1242
 2157DOPS   D2B25309  11.907  30.489  13.752 -0.3313 -0.1097  0.1006
 2157DOPS   C3B25310  11.660  30.250  13.482 -0.1311  0.0670  0.2618
 2157DOPS   C4B25311  11.242  30.394  13.528  0.1289 -0.1134  0.2276
 2158DOPS   CNO25312  17.760  31.921  15.961 -0.1835 -0.0889  0.1336
 2158DOPS   PO425313  17.442  31.758  16.143 -0.1508  0.1572  0.0590
 2158DOPS   GL125314  17.514  31.411  15.973  0.4608  0.1687 -0.1168
 2158DOPS   GL225315  17.670  31.177  15.948  0.0250  0.1871 -0.2276
 2158DOPS   C1A25316  17.240  31.134  15.742  0.0499 -0.1858  0.2852
 2158DOPS   D2A25317  16.890  31.255  15.448 -0.1015  0.2453  0.0985
 2158DOPS   C3A25318  16.925  31.045  15.028 -0.2951 -0.0404 -0.0232
 2158DOPS   C4A25319  16.629  30.727  14.814 -0.0845  0.0021 -0.0757
 2158DOPS   C1B25320  17.652  31.325  15.503  0.1413 -0.0057  0.1111
 2158DOPS   D2B25321  17.317  31.439  15.217 -0.4695  0.2137 -0.1947
 2158DOPS   C3B25322  17.451  31.075  14.979  0.0917 -0.0175  0.0002
 2158DOPS   C4B25323  17.307  30.735  14.749 -0.1324  0.1952 -0.0005
 2159POSM   NC325324  18.949  26.500  16.450  0.0483  0.1891  0.0725
 2159POSM   PO425325  19.207  26.280  16.653 -0.3149  0.1054  0.1753
 2159POSM   AM125326  19.276  26.171  16.332 -0.2713  0.3519  0.1853
 2159POSM   AM225327  19.267  25.887  16.247  0.2055 -0.0848 -0.2866
 2159POSM   T1A25328  19.369  26.343  15.815 -0.4652 -0.0455  0.0376
 2159POSM   C2A25329  19.287  26.211  15.418  0.0075 -0.1235  0.0359
 2159POSM   C3A25330  19.236  25.964  15.009  0.0184  0.2535  0.1117
 2159POSM   C1B25331  19.301  25.792  15.900  0.2501  0.2253 -0.1664
 2159POSM   D2B25332  19.585  25.676  15.527 -0.0640  0.2792  0.1484
 2159POSM   C3B25333  19.750  26.048  15.337  0.1642  0.0376 -0.0042
 2159POSM   C4B25334  19.978  26.372  15.511  0.1065  0.2144 -0.0837
 2160DOPE   NH325335  18.990   0.244  15.816  0.0275  0.0063 -0.1279
 2160DOPE   PO425336  19.283   0.218  15.790 -0.2391  0.0822  0.1140
 2160DOPE   GL125337  19.189   0.083  15.455 -0.0322  0.0573 -0.6094
 2160DOPE   GL225338  19.192  -0.225  15.513 -0.2297 -0.0797  0.3200
 2160DOPE   C1A25339  19.222   0.181  15.014  0.1639  0.0376 -0.2315
 2160DOPE   D2A25340  19.238   0.198  14.525  0.2474  0.2882 -0.1835
 2160DOPE   C3A25341  19.048  -0.164  14.282 -0.0485 -0.0954  0.0846
 2160DOPE   C4A25342  18.657  -0.432  14.247 -0.2472 -0.3239  0.1762
 2160DOPE   C1B25343  19.099  -0.604  15.236 -0.1942  0.0676  0.0701
 2160DOPE   D2B25344  19.046  -0.788  14.793  0.0909 -0.1050  0.2353
 2160DOPE   C3B25345  18.885  -0.917  14.404  0.1586 -0.1105  0.2893
 2160DOPE   C4B25346  18.694  -0.838  13.994 -0.0586  0.2528 -0.0980
 2161POSM   NC325347  16.810  23.780  15.493 -0.0953 -0.2918 -0.3259
 2161POSM   PO425348  16.412  23.796  15.493 -0.0048  0.0612 -0.1367
 2161POSM   AM125349  16.290  23.804  15.220 -0.0900  0.0864  0.2483
 2161POSM   AM225350  16.456  23.915  14.989 -0.0339  0.0483 -0.5811
 2161POSM   T1A25351  16.098  23.648  14.822  0.2120  0.0077 -0.3017
 2161POSM   C2A25352  15.867  23.784  14.446  0.0218  0.0848  0.1791
 2161POSM   C3A25353  15.956  23.922  14.006 -0.1198  0.1779 -0.0737
 2161POSM   C1B25354  16.439  24.002  14.682 -0.0896  0.2900  0.1112
 2161POSM   D2B25355  16.701  24.140  14.315  0.0589 -0.1001 -0.3556
 2161POSM   C3B25356  16.685  23.921  13.943  0.3090 -0.1038  0.0049
 2161POSM   C4B25357  16.397  23.799  13.699  0.1016 -0.1202  0.0935
 2162DOPS   CNO25358  19.356  30.024  16.138 -0.0926 -0.0788  0.0114
 2162DOPS   PO425359  19.564  30.343  16.113  0.3833 -0.0832  0.0138
 2162DOPS   GL125360  19.489  30.217  15.705 -0.4776 -0.2040  0.0659
 2162DOPS   GL225361  19.176  30.127  15.585 -0.0867  0.2605  0.0273
 2162DOPS   C1A25362  19.366  30.546  15.384  0.0066 -0.0608  0.0268
 2162DOPS   D2A25363  19.007  30.598  15.140  0.1290  0.3484 -0.0320
 2162DOPS   C3A25364  18.966  30.303  14.812  0.1434  0.2222 -0.1635
 2162DOPS   C4A25365  18.659  30.363  14.480  0.1115 -0.4350  0.0746
 2162DOPS   C1B25366  18.982  29.963  15.160 -0.1763 -0.3147 -0.0229
 2162DOPS   D2B25367  18.635  29.887  14.863  0.1492  0.1334 -0.2532
 2162DOPS   C3B25368  18.588  29.844  14.396  0.0914  0.2211  0.0215
 2162DOPS   C4B25369  18.269  29.639  14.138  0.0842  0.2833  0.2964
 2163POSM   NC325370  22.546  28.271  15.791 -0.2520 -0.0394  0.3655
 2163POSM   PO425371  22.198  28.058  15.789  0.0877  0.2760 -0.1030
 2163POSM   AM125372  21.882  27.901  15.737  0.3270 -0.3479  0.0276
 2163POSM   AM225373  21.793  27.624  15.738 -0.2429 -0.1531 -0.2059
 2163POSM   T1A25374  21.445  28.005  15.542 -0.0601  0.1287 -0.1545
 2163POSM   C2A25375  21.274  28.292  15.250 -0.0181  0.2943  0.4012
 2163POSM   C3A25376  20.938  28.500  14.990 -0.1664  0.0232 -0.3688
 2163POSM   C1B25377  21.686  27.531  15.420  0.1347 -0.3586 -0.0361
 2163POSM   D2B25378  21.466  27.309  15.109 -0.0189 -0.0958 -0.1265
 2163POSM   C3B25379  21.448  27.372  14.644 -0.2229 -0.2127  0.2634
 2163POSM   C4B25380  21.834  27.305  14.359  0.0448 -0.2497 -0.1201
 2164POSM   NC325381  16.163  25.934  16.249  0.0955 -0.2317 -0.1241
 2164POSM   PO425382  15.948  26.042  15.933  0.2313  0.1697 -0.0747
 2164POSM   AM125383  16.099  26.267  15.757 -0.0434 -0.1742  0.1628
 2164POSM   AM225384  16.055  26.513  15.608  0.0708  0.0245  0.0006
 2164POSM   T1A25385  16.491  26.363  15.536 -0.2308 -0.0314  0.0606
 2164POSM   C2A25386  16.806  26.367  15.221  0.2579 -0.1400 -0.3688
 2164POSM   C3A25387  16.888  26.288  14.793 -0.1500  0.0099  0.3151
 2164POSM   C1B25388  16.054  26.328  15.335  0.0754  0.3132  0.0430
 2164POSM   D2B25389  16.249  26.282  14.919  0.1492  0.1118 -0.1695
 2164POSM   C3B25390  16.207  26.697  14.743  0.0765 -0.1258  0.0964
 2164POSM   C4B25391  16.090  27.127  14.662  0.2444 -0.0909 -0.0930
 2165POSM   NC325392  12.853  31.231  15.273 -0.3433 -0.1006 -0.1069
 2165POSM   PO425393  13.054  31.320  15.615 -0.0245 -0.2157 -0.0503
 2165POSM   AM125394  13.284  31.306  15.419  0.0912  0.2612 -0.0747
 2165POSM   AM225395  13.576  31.356  15.438 -0.1536  0.0897 -0.1375
 2165POSM   T1A25396  13.463  31.285  14.921  0.1620  0.0806  0.2300
 2165POSM   C2A25397  13.689  31.311  14.507  0.2558  0.2088 -0.2404
 2165POSM   C3A25398  14.159  31.349  14.354  0.1281  0.2278 -0.2150
 2165POSM   C1B25399  13.834  31.275  15.271 -0.3030  0.1257 -0.1538
 2165POSM   D2B25400  14.104  31.201  14.877  0.1335 -0.0553  0.2369
 2165POSM   C3B25401  14.385  31.519  14.714 -0.1372  0.1262 -0.0176
 2165POSM   C4B25402  14.710  31.523  14.334  0.1588 -0.1744 -0.0870
 2166DOPE   NH325403  23.112  31.566  16.007  0.1983 -0.0253  0.1630
 2166DOPE   PO425404  23.191  31.309  15.810 -0.4141  0.2457 -0.0876
 2166DOPE   GL125405  23.184  31.176  15.451  0.1298 -0.1501  0.0682
 2166DOPE   GL225406  23.398  31.217  15.275  0.2064 -0.0473 -0.2663
 2166DOPE   C1A25407  22.864  31.128  15.115  0.0340 -0.0320  0.0437
 2166DOPE   D2A25408  22.772  31.309  14.728  0.0143 -0.0064  0.3199
 2166DOPE   C3A25409  22.307  31.472  14.660  0.0226  0.0528  0.3354
 2166DOPE   C4A25410  21.954  31.538  14.325  0.2294  0.1332 -0.1091
 2166DOPE   C1B25411  23.830  31.199  15.021  0.1402 -0.1184 -0.0205
 2166DOPE   D2B25412  24.048  31.057  14.608 -0.1751  0.0051 -0.2293
 2166DOPE   C3B25413  23.841  31.243  14.263  0.3430  0.2962 -0.1015
 2166DOPE   C4B25414  23.445  31.456  14.246  0.0966 -0.0932  0.0587
 2167DOPE   NH325415  11.981  31.244  15.076  0.0052 -0.0639 -0.0844
 2167DOPE   PO425416  12.310  31.180  15.043 -0.0839 -0.0799 -0.0811
 2167DOPE   GL125417  12.637  31.027  14.899 -0.4078 -0.2197 -0.1606
 2167DOPE   GL225418  12.498  30.742  14.857 -0.5573  0.4553  0.2961
 2167DOPE   C1A25419  12.833  30.952  14.498  0.0500  0.1330  0.0716
 2167DOPE   D2A25420  12.957  30.850  14.086  0.0213  0.1950  0.2631
 2167DOPE   C3A25421  12.666  31.036  13.689 -0.0751 -0.0914  0.1267
 2167DOPE   C4A25422  12.812  31.230  13.287 -0.1121 -0.0272  0.2250
 2167DOPE   C1B25423  12.494  30.475  14.518 -0.0150 -0.3486 -0.1034
 2167DOPE   D2B25424  12.354  30.130  14.193 -0.3238 -0.0629 -0.1239
 2167DOPE   C3B25425  12.639  29.836  13.954  0.2609 -0.1861  0.1188
 2167DOPE   C4B25426  12.515  29.556  13.579  0.1323 -0.2582  0.4130
 2168DOPS   CNO25427  22.734  23.981  15.660  0.1490  0.0432  0.1148
 2168DOPS   PO425428  22.472  23.958  15.935 -0.0875  0.0525  0.3700
 2168DOPS   GL125429  22.339  23.817  15.561  0.0975 -0.0677 -0.0669
 2168DOPS   GL225430  22.193  23.963  15.453 -0.2395 -0.1418 -0.1100
 2168DOPS   C1A25431  22.452  23.434  15.290 -0.0285 -0.1980  0.0036
 2168DOPS   D2A25432  22.603  23.050  15.394  0.1951 -0.2223  0.0600
 2168DOPS   C3A25433  22.746  22.624  15.300 -0.4104 -0.0964  0.1480
 2168DOPS   C4A25434  22.994  22.300  15.140  0.0716  0.2067  0.2959
 2168DOPS   C1B25435  22.007  23.673  15.170  0.2965  0.0785  0.1429
 2168DOPS   D2B25436  22.156  23.384  14.855  0.2234 -0.1855 -0.1020
 2168DOPS   C3B25437  22.352  23.576  14.492  0.0138  0.1529  0.0623
 2168DOPS   C4B25438  22.636  23.832  14.203 -0.1524  0.0050 -0.0655
 2169DOPS   CNO25439  11.777  27.967  16.074  0.1118  0.1973  0.3219
 2169DOPS   PO425440  11.505  27.911  15.827  0.0086 -0.3024 -0.0719
 2169DOPS   GL125441  11.471  28.100  15.464  0.1613  0.0071  0.3327
 2169DOPS   GL225442  11.251  28.278  15.491  0.0455  0.2651  0.0076
 2169DOPS   C1A25443  11.685  27.963  15.056  0.1031  0.1463  0.1480
 2169DOPS   D2A25444  11.884  27.834  14.648 -0.4445 -0.5181  0.1132
 2169DOPS   C3A25445  11.531  27.709  14.394 -0.0432 -0.0766 -0.0215
 2169DOPS   C4A25446  11.256  27.556  14.050  0.0858  0.1336 -0.1245
 2169DOPS   C1B25447  11.194  28.343  15.014  0.1255 -0.3600  0.0671
 2169DOPS   D2B25448  11.322  28.585  14.638  0.3363 -0.1944  0.1970
 2169DOPS   C3B25449  11.288  28.588  14.160 -0.1596 -0.1654 -0.0052
 2169DOPS   C4B25450  11.089  28.477  13.730  0.2415 -0.2656 -0.2617
 2170DOPE   NH325451  15.523  33.236  15.187 -0.0044 -0.2185  0.3366
 2170DOPE   PO425452  15.284  33.033  15.278  0.0201 -0.0298 -0.0870
 2170DOPE   GL125453  15.468  32.854  14.863 -0.2734  0.1262 -0.0335
 2170DOPE   GL225454  15.630  32.545  14.859 -0.1200  0.0403 -0.0230
 2170DOPE   C1A25455  15.443  32.774  14.409 -0.2152  0.0031 -0.0905
 2170DOPE   D2A25456  15.436  32.485  14.041  0.0873  0.0301 -0.0815
 2170DOPE   C3A25457  15.187  32.135  14.212  0.0995  0.1617  0.1456
 2170DOPE   C4A25458  14.804  32.099  14.472  0.2331  0.2459  0.1383
 2170DOPE   C1B25459  15.690  32.279  14.474 -0.0147 -0.0982 -0.3380
 2170DOPE   D2B25460  15.657  32.054  14.115  0.1746  0.2393 -0.0078
 2170DOPE   C3B25461  15.478  31.651  14.012 -0.1642 -0.2289 -0.4961
 2170DOPE   C4B25462  15.576  31.221  13.957 -0.1373 -0.2295 -0.0024
 2171DOPC   NC325463  16.331  33.253  15.462 -0.0569  0.4212 -0.2302
 2171DOPC   PO425464  15.941  33.141  15.523  0.2156 -0.0208  0.2169
 2171DOPC   GL125465  15.967  33.328  15.138 -0.3429  0.0206 -0.1393
 2171DOPC   GL225466  16.154  33.611  15.122 -0.0733  0.2777  0.2217
 2171DOPC   C1A25467  15.853  33.245  14.697 -0.0315  0.0277  0.1689
 2171DOPC   D2A25468  15.620  33.233  14.271 -0.0907  0.0358 -0.0155
 2171DOPC   C3A25469  15.391  33.543  14.003  0.0630  0.2742 -0.2715
 2171DOPC   C4A25470  15.106  33.801  13.794 -0.2284  0.0536 -0.3510
 2171DOPC   C1B25471  16.156  33.673  14.691 -0.5187 -0.1675  0.4332
 2171DOPC   D2B25472  16.216  33.358  14.381 -0.2614  0.1186  0.3133
 2171DOPC   C3B25473  16.565  33.463  14.098  0.0291  0.2019 -0.0013
 2171DOPC   C4B25474  16.927  33.374  13.814 -0.3223 -0.0334 -0.0710
 2172DOPE   NH325475  17.400  32.271  16.143 -0.0323  0.3293 -0.1900
 2172DOPE   PO425476  17.288  32.174  15.833  0.0606  0.1709  0.1034
 2172DOPE   GL125477  17.639  32.176  15.485  0.3549  0.1763 -0.0422
 2172DOPE   GL225478  17.970  32.056  15.515  0.0377 -0.0140 -0.0563
 2172DOPE   C1A25479  17.598  31.868  15.095  0.0467  0.0447  0.2422
 2172DOPE   D2A25480  17.742  31.511  14.849 -0.0825  0.0700 -0.2253
 2172DOPE   C3A25481  18.104  31.503  15.138  0.0334 -0.2147 -0.2412
 2172DOPE   C4A25482  18.535  31.401  15.085 -0.1308  0.0876 -0.0573
 2172DOPE   C1B25483  18.074  32.041  15.074 -0.2080  0.1485  0.0150
 2172DOPE   D2B25484  18.217  31.826  14.694 -0.1500  0.3280 -0.2351
 2172DOPE   C3B25485  18.252  31.348  14.610 -0.1495 -0.0915 -0.1835
 2172DOPE   C4B25486  18.286  30.947  14.783  0.1193  0.3483  0.1166
 2173DOPC   NC325487  11.162  27.225  15.315 -0.0433 -0.0564  0.0176
 2173DOPC   PO425488  10.929  26.906  15.315  0.1689 -0.0386  0.2666
 2173DOPC   GL125489  11.188  26.827  15.034 -0.5347 -0.1250  0.0540
 2173DOPC   GL225490  11.503  26.855  15.086  0.1809 -0.1027  0.0080
 2173DOPC   C1A25491  11.135  26.617  14.631 -0.0116  0.2048 -0.2301
 2173DOPC   D2A25492  11.156  26.201  14.422 -0.0106  0.0161 -0.2963
 2173DOPC   C3A25493  11.379  26.125  14.001  0.1444 -0.0734 -0.0675
 2173DOPC   C4A25494  11.809  26.324  13.940 -0.0506 -0.0599  0.2340
 2173DOPC   C1B25495  11.357  27.031  14.690 -0.2260 -0.1257  0.0381
 2173DOPC   D2B25496  11.496  27.194  14.296  0.1076 -0.0712 -0.0844
 2173DOPC   C3B25497  11.803  27.424  14.088 -0.3934 -0.1284  0.2279
 2173DOPC   C4B25498  12.101  27.612  13.816 -0.2402 -0.0867  0.2395
 2174DOPE   NH325499  21.215  27.468  16.174 -0.0933  0.1812 -0.0823
 2174DOPE   PO425500  20.938  27.495  16.057 -0.0068 -0.0864  0.1613
 2174DOPE   GL125501  21.090  27.300  15.773  0.2519 -0.0223 -0.3076
 2174DOPE   GL225502  21.258  27.459  15.631 -0.0439 -0.1990 -0.4818
 2174DOPE   C1A25503  20.885  27.254  15.367  0.0936  0.1305  0.1253
 2174DOPE   D2A25504  20.954  27.100  14.955 -0.1552  0.0751  0.1096
 2174DOPE   C3A25505  20.954  27.362  14.510  0.2844  0.0295  0.0382
 2174DOPE   C4A25506  21.200  27.388  14.167 -0.2137  0.1947 -0.1275
 2174DOPE   C1B25507  21.140  27.733  15.237  0.1099  0.1513 -0.1489
 2174DOPE   D2B25508  20.888  28.010  14.946 -0.0114  0.3768  0.0925
 2174DOPE   C3B25509  20.919  27.859  14.540  0.0569  0.3045  0.2851
 2174DOPE   C4B25510  20.864  27.714  14.102  0.2369 -0.1372  0.0489
 2175DOPE   NH325511  21.012  31.676  16.115 -0.2507  0.0828  0.0206
 2175DOPE   PO425512  21.248  31.505  16.169  0.3822 -0.2657 -0.2955
 2175DOPE   GL125513  21.327  31.442  15.653  0.2179  0.1523  0.2405
 2175DOPE   GL225514  21.077  31.374  15.661  0.2398  0.1466  0.2506
 2175DOPE   C1A25515  21.449  31.434  15.210 -0.3436 -0.1338 -0.0765
 2175DOPE   D2A25516  21.480  31.092  14.882  0.1003 -0.0221 -0.0210
 2175DOPE   C3A25517  21.470  31.148  14.415 -0.0192 -0.0100 -0.1171
 2175DOPE   C4A25518  21.442  31.483  14.085 -0.0235 -0.4868  0.2598
 2175DOPE   C1B25519  20.848  31.177  15.254 -0.2006 -0.2581 -0.2456
 2175DOPE   D2B25520  20.973  31.164  14.808  0.0199 -0.1462 -0.3517
 2175DOPE   C3B25521  20.887  31.362  14.420 -0.1520 -0.1162  0.1315
 2175DOPE   C4B25522  20.884  31.675  14.072  0.0531 -0.0043  0.0515
 2176DOPC   NC325523  13.559  23.863  16.134  0.1174 -0.1866  0.2318
 2176DOPC   PO425524  13.694  23.507  16.226 -0.0995 -0.0663 -0.0603
 2176DOPC   GL125525  13.753  23.423  15.836 -0.1340  0.0325 -0.3211
 2176DOPC   GL225526  13.633  23.135  15.736 -0.2283  0.1000  0.1992
 2176DOPC   C1A25527  13.977  23.541  15.456 -0.0825 -0.1515 -0.1453
 2176DOPC   D2A25528  14.081  23.757  15.024 -0.1309  0.2989 -0.2877
 2176DOPC   C3A25529  14.289  24.138  14.905 -0.0384  0.2737 -0.1622
 2176DOPC   C4A25530  14.472  24.609  14.780 -0.0277  0.1673  0.3762
 2176DOPC   C1B25531  13.442  23.015  15.322 -0.1224  0.0360  0.0556
 2176DOPC   D2B25532  13.211  23.087  14.961 -0.2944 -0.0556 -0.0218
 2176DOPC   C3B25533  13.425  23.294  14.599 -0.1944 -0.1222  0.0053
 2176DOPC   C4B25534  13.851  23.168  14.401 -0.1479  0.0988 -0.0896
 2177DOPC   NC325535  21.987  27.119  15.634  0.1722 -0.3592 -0.1379
 2177DOPC   PO425536  22.368  26.992  15.787  0.2703  0.4224 -0.0505
 2177DOPC   GL125537  22.387  26.750  15.385 -0.1890  0.2902  0.1058
 2177DOPC   GL225538  22.279  27.000  15.286  0.1051  0.1484  0.0392
 2177DOPC   C1A25539  22.628  26.724  14.999 -0.3054 -0.1999  0.1447
 2177DOPC   D2A25540  22.507  26.455  14.662  0.2419 -0.1033 -0.2343
 2177DOPC   C3A25541  22.630  26.106  14.410  0.0211 -0.0444 -0.0074
 2177DOPC   C4A25542  22.837  25.731  14.305 -0.1261 -0.2187 -0.0570
 2177DOPC   C1B25543  22.146  26.664  15.005 -0.0179 -0.2061  0.1987
 2177DOPC   D2B25544  21.752  26.518  14.826 -0.4256  0.1391  0.3223
 2177DOPC   C3B25545  21.412  26.775  14.832  0.0928 -0.0226 -0.0143
 2177DOPC   C4B25546  21.090  26.877  14.519 -0.0480 -0.0263 -0.1945
 2178DOPE   NH325547  19.224  25.407  16.314 -0.2908 -0.1339 -0.1500
 2178DOPE   PO425548  18.892  25.439  16.264 -0.1889  0.0750 -0.0335
 2178DOPE   GL125549  18.795  25.323  15.881 -0.1421 -0.2102 -0.0018
 2178DOPE   GL225550  19.014  25.364  15.722 -0.1402  0.2012 -0.0998
 2178DOPE   C1A25551  18.561  25.462  15.460  0.0447 -0.1237  0.1112
 2178DOPE   D2A25552  18.453  25.308  15.023 -0.1313  0.3552  0.0703
 2178DOPE   C3A25553  18.524  24.871  14.825  0.2137 -0.0117 -0.0683
 2178DOPE   C4A25554  18.318  24.418  14.851 -0.2244 -0.1556  0.0394
 2178DOPE   C1B25555  19.072  25.709  15.427  0.4296  0.1207  0.0598
 2178DOPE   D2B25556  18.815  25.637  15.037 -0.2049  0.2043  0.0662
 2178DOPE   C3B25557  19.054  25.636  14.625 -0.2216 -0.1085 -0.2270
 2178DOPE   C4B25558  19.226  25.772  14.211 -0.2797 -0.1400  0.1929
 2179DOPE   NH325559  22.250  29.753  16.164 -0.0041  0.2632  0.1248
 2179DOPE   PO425560  22.479  29.945  16.042  0.1426 -0.1163 -0.0191
 2179DOPE   GL125561  22.570  29.988  15.586  0.4006 -0.1214 -0.3595
 2179DOPE   GL225562  22.832  30.014  15.460  0.0326  0.2769  0.0413
 2179DOPE   C1A25563  22.490  29.680  15.207 -0.0419  0.1656 -0.1005
 2179DOPE   D2A25564  22.622  29.509  14.809 -0.0615 -0.2491 -0.3263
 2179DOPE   C3A25565  22.516  29.137  14.649  0.0283 -0.1008 -0.0196
 2179DOPE   C4A25566  22.606  28.911  14.278 -0.1036 -0.2259 -0.2708
 2179DOPE   C1B25567  22.861  30.058  15.011 -0.1035 -0.1285  0.0355
 2179DOPE   D2B25568  22.782  29.890  14.591  0.0999  0.2116  0.0631
 2179DOPE   C3B25569  23.083  29.806  14.234  0.1092 -0.0242  0.0203
 2179DOPE   C4B25570  23.143  30.193  13.901  0.3896 -0.1008 -0.0753
 2180DOPS   CNO25571  13.521  28.312  16.401 -0.0442  0.2048 -0.1381
 2180DOPS   PO425572  13.737  28.169  16.132 -0.2431 -0.0571 -0.1117
 2180DOPS   GL125573  13.589  28.428  15.877  0.0636 -0.1852 -0.1925
 2180DOPS   GL225574  13.790  28.392  15.621  0.1035  0.0790  0.2926
 2180DOPS   C1A25575  13.348  28.487  15.490  0.0947 -0.1042 -0.3379
 2180DOPS   D2A25576  13.276  28.634  15.057 -0.1753 -0.2766 -0.0605
 2180DOPS   C3A25577  13.105  28.353  14.765  0.1903 -0.0282 -0.1873
 2180DOPS   C4A25578  12.814  28.116  14.491  0.1528 -0.0544  0.1525
 2180DOPS   C1B25579  13.742  28.344  15.165 -0.3631  0.0145 -0.2116
 2180DOPS   D2B25580  13.640  28.418  14.645  0.1025  0.1982 -0.0235
 2180DOPS   C3B25581  13.421  28.251  14.229  0.1546 -0.0261 -0.3417
 2180DOPS   C4B25582  13.522  28.050  13.858  0.1285  0.3613 -0.2684
 2181POSM   NC325583  15.828  33.835  15.426  0.2796  0.2255  0.1032
 2181POSM   PO425584  15.605  34.164  15.475  0.0074  0.0332  0.0703
 2181POSM   AM125585  15.657  34.140  15.118 -0.2336 -0.1747 -0.1246
 2181POSM   AM225586  15.895  34.096  14.944 -0.2063  0.0780  0.1179
 2181POSM   T1A25587  15.628  34.405  14.702  0.2419 -0.1840  0.0619
 2181POSM   C2A25588  15.878  34.662  14.407 -0.1497  0.1343  0.2742
 2181POSM   C3A25589  15.826  35.101  14.254  0.0822 -0.3715 -0.0293
 2181POSM   C1B25590  16.106  34.264  14.685 -0.0789 -0.2338 -0.1921
 2181POSM   D2B25591  16.377  34.434  14.310  0.0851 -0.0611  0.1114
 2181POSM   C3B25592  16.234  34.255  13.878 -0.1216 -0.0548 -0.2460
 2181POSM   C4B25593  16.298  34.136  13.433 -0.2385  0.4621 -0.2033
 2182DOPC   NC325594  11.331  29.101  15.219 -0.0373  0.1828 -0.0693
 2182DOPC   PO425595  11.189  29.387  15.471  0.1300  0.0220 -0.1056
 2182DOPC   GL125596  11.329  29.604  15.088  0.1405  0.0942 -0.1843
 2182DOPC   GL225597  11.581  29.531  15.248 -0.1364 -0.2063 -0.2737
 2182DOPC   C1A25598  11.593  29.889  14.855 -0.1175  0.3433  0.2172
 2182DOPC   D2A25599  11.819  29.961  14.482 -0.4365  0.1741  0.1044
 2182DOPC   C3A25600  11.777  29.944  14.004  0.2914 -0.2900  0.0518
 2182DOPC   C4A25601  11.629  29.753  13.605 -0.0714  0.2482  0.6146
 2182DOPC   C1B25602  11.561  29.380  14.830  0.0655  0.1594 -0.0220
 2182DOPC   D2B25603  11.454  29.639  14.432  0.2585  0.1316  0.0334
 2182DOPC   C3B25604  11.765  29.468  14.134 -0.1709 -0.2603 -0.1857
 2182DOPC   C4B25605  12.168  29.563  14.016 -0.2759 -0.0588 -0.0054
 2183DOPC   NC325606  15.356  26.737  16.192  0.1002 -0.1028  0.0820
 2183DOPC   PO425607  15.501  26.966  15.884 -0.0046  0.1833 -0.1052
 2183DOPC   GL125608  15.419  27.135  15.409 -0.4287 -0.1092 -0.1808
 2183DOPC   GL225609  15.153  27.085  15.454 -0.0360 -0.1749 -0.0329
 2183DOPC   C1A25610  15.556  27.309  15.001  0.0105  0.1183  0.1683
 2183DOPC   D2A25611  15.560  27.158  14.536 -0.1232 -0.1536 -0.1533
 2183DOPC   C3A25612  15.598  27.456  14.186  0.1477  0.3300  0.1400
 2183DOPC   C4A25613  15.912  27.731  13.966  0.2427  0.2442 -0.0109
 2183DOPC   C1B25614  15.264  26.876  15.021  0.0734  0.0494  0.0645
 2183DOPC   D2B25615  15.146  26.556  14.679  0.0550  0.1142  0.0963
 2183DOPC   C3B25616  15.301  26.775  14.302 -0.3203  0.2431 -0.0039
 2183DOPC   C4B25617  15.728  26.881  14.154 -0.1028 -0.2284 -0.0812
 2184DOPS   CNO25618  13.844  25.258  15.816  0.2040  0.0650 -0.1300
 2184DOPS   PO425619  13.981  24.987  15.578 -0.4055  0.0115 -0.1282
 2184DOPS   GL125620  14.327  24.872  15.400  0.0461  0.1231  0.4508
 2184DOPS   GL225621  14.559  24.974  15.237 -0.1797 -0.0474  0.0815
 2184DOPS   C1A25622  14.386  24.404  15.346  0.1093 -0.0890 -0.0329
 2184DOPS   D2A25623  14.774  24.329  15.132 -0.0891  0.3125 -0.1179
 2184DOPS   C3A25624  15.040  23.978  15.044 -0.0278  0.1858  0.0678
 2184DOPS   C4A25625  15.159  23.561  14.813 -0.0380  0.1727 -0.1113
 2184DOPS   C1B25626  14.890  24.865  14.910 -0.3905 -0.0597 -0.1923
 2184DOPS   D2B25627  15.059  24.877  14.454 -0.0543  0.1852  0.0724
 2184DOPS   C3B25628  14.763  24.774  14.153  0.1309 -0.0942 -0.3041
 2184DOPS   C4B25629  14.309  24.769  13.939  0.0176  0.2033  0.0307
 2185DOPC   NC325630  21.221   0.699  15.785  0.0035  0.2083  0.0301
 2185DOPC   PO425631  21.494   0.409  15.847 -0.1377  0.0663  0.3612
 2185DOPC   GL125632  21.405   0.481  15.445 -0.1191  0.4918  0.1319
 2185DOPC   GL225633  21.552   0.256  15.335  0.1114 -0.1962  0.0546
 2185DOPC   C1A25634  21.556   0.617  15.039 -0.0405 -0.2145  0.1204
 2185DOPC   D2A25635  21.853   0.745  14.734  0.2509 -0.0250 -0.2377
 2185DOPC   C3A25636  22.199   0.442  14.533 -0.1071  0.1077  0.1310
 2185DOPC   C4A25637  22.558   0.548  14.271  0.3334 -0.0882  0.1973
 2185DOPC   C1B25638  21.795   0.155  14.888  0.2054 -0.0709 -0.0526
 2185DOPC   D2B25639  21.730   0.269  14.478 -0.1790 -0.4415 -0.4184
 2185DOPC   C3B25640  21.468   0.668  14.372  0.0958  0.3236 -0.0647
 2185DOPC   C4B25641  21.541   0.913  13.961  0.1630 -0.2135  0.2708
 2186POSM   NC325642  19.873  27.218  15.869 -0.0472 -0.0889 -0.0760
 2186POSM   PO425643  20.054  27.518  16.057 -0.4099 -0.1407  0.0696
 2186POSM   AM125644  20.102  27.628  15.722 -0.3890  0.1818 -0.3520
 2186POSM   AM225645  20.190  27.779  15.529 -0.5044  0.2661  0.1478
 2186POSM   T1A25646  20.294  27.374  15.297 -0.2237  0.0463 -0.0603
 2186POSM   C2A25647  20.378  27.145  14.905 -0.0978 -0.1081  0.1520
 2186POSM   C3A25648  20.618  26.898  14.607 -0.1968  0.0306  0.0335
 2186POSM   C1B25649  19.951  27.992  15.410 -0.1185 -0.1352 -0.2910
 2186POSM   D2B25650  19.908  28.282  15.024 -0.0399  0.1832  0.1533
 2186POSM   C3B25651  19.833  28.050  14.681 -0.2804  0.1355 -0.1667
 2186POSM   C4B25652  19.692  27.614  14.578  0.0556  0.1329 -0.0005
 2187DOPC   NC325653  18.477  24.606  15.890 -0.0199 -0.1342  0.0797
 2187DOPC   PO425654  18.071  24.644  15.916  0.2286 -0.0024 -0.1828
 2187DOPC   GL125655  18.023  24.585  15.520 -0.0734 -0.0903 -0.3380
 2187DOPC   GL225656  18.225  24.627  15.335 -0.1703 -0.4546 -0.0480
 2187DOPC   C1A25657  17.914  24.260  15.177  0.0492 -0.1048 -0.0917
 2187DOPC   D2A25658  17.796  24.145  14.739 -0.0102 -0.3086 -0.1888
 2187DOPC   C3A25659  17.859  23.661  14.592 -0.0685  0.1658 -0.1946
 2187DOPC   C4A25660  17.824  23.307  14.902  0.0056  0.1637  0.0882
 2187DOPC   C1B25661  18.079  24.911  15.046  0.3385 -0.2816  0.0999
 2187DOPC   D2B25662  17.774  24.661  14.817 -0.2557 -0.0521 -0.1773
 2187DOPC   C3B25663  18.032  24.621  14.430  0.1090  0.0379 -0.0459
 2187DOPC   C4B25664  18.170  24.565  13.938 -0.0541 -0.1052 -0.1101
 2188DOPC   NC325665  21.617  22.865  15.707 -0.2722 -0.0328  0.0692
 2188DOPC   PO425666  21.292  23.093  15.712 -0.0395  0.0322 -0.1714
 2188DOPC   GL125667  21.096  23.272  15.457  0.2810  0.2172  0.0343
 2188DOPC   GL225668  20.916  23.108  15.444 -0.2028  0.1149  0.0518
 2188DOPC   C1A25669  21.133  23.204  15.001 -0.1460 -0.2086 -0.1866
 2188DOPC   D2A25670  20.932  22.904  14.665  0.1992 -0.1134 -0.2557
 2188DOPC   C3A25671  20.920  23.105  14.258  0.0279  0.1718  0.1878
 2188DOPC   C4A25672  20.536  23.048  13.984 -0.3135 -0.1619 -0.2430
 2188DOPC   C1B25673  20.606  23.147  15.088  0.2874  0.0334  0.0575
 2188DOPC   D2B25674  20.458  23.127  14.654  0.2377  0.0067  0.1065
 2188DOPC   C3B25675  20.012  23.256  14.553 -0.2405  0.0922 -0.1807
 2188DOPC   C4B25676  19.630  23.337  14.270 -0.0200 -0.1951 -0.0571
 2189DOPE   NH325677  17.669  23.245  15.747 -0.1880  0.0136  0.2391
 2189DOPE   PO425678  17.834  22.975  15.719 -0.1515 -0.3756 -0.0077
 2189DOPE   GL125679  17.995  22.754  15.466 -0.0917  0.2898 -0.0050
 2189DOPE   GL225680  18.309  22.749  15.612  0.2585  0.0484 -0.1660
 2189DOPE   C1A25681  18.313  22.493  15.188  0.0182 -0.0693  0.0755
 2189DOPE   D2A25682  18.595  22.302  14.846 -0.0122 -0.0599  0.1442
 2189DOPE   C3A25683  18.517  22.378  14.417 -0.0190  0.3098  0.0771
 2189DOPE   C4A25684  18.648  22.536  13.998 -0.0296  0.1544  0.0993
 2189DOPE   C1B25685  18.713  22.781  15.447 -0.0631 -0.0771  0.2408
 2189DOPE   D2B25686  18.805  22.701  15.039  0.0564  0.0911 -0.3778
 2189DOPE   C3B25687  18.601  23.001  14.683 -0.1198  0.0428 -0.0820
 2189DOPE   C4B25688  18.216  23.187  14.407 -0.2385 -0.1865 -0.0665
 2190POSM   NC325689  22.203  24.421  15.637 -0.3649 -0.2612 -0.0255
 2190POSM   PO425690  21.918  24.220  15.866  0.0568  0.0087  0.2463
 2190POSM   AM125691  21.778  24.281  15.577  0.0244  0.1865  0.0481
 2190POSM   AM225692  21.620  24.461  15.465 -0.0474 -0.3705  0.3512
 2190POSM   T1A25693  21.718  24.085  15.120  0.1863  0.1833  0.0652
 2190POSM   C2A25694  21.810  24.253  14.740 -0.3028 -0.1351  0.0835
 2190POSM   C3A25695  21.695  24.340  14.289 -0.0023  0.1973  0.1074
 2190POSM   C1B25696  21.698  24.638  15.136 -0.3721  0.0358 -0.3193
 2190POSM   D2B25697  21.689  24.732  14.702 -0.0493 -0.1449  0.4498
 2190POSM   C3B25698  21.440  24.801  14.341  0.2128 -0.1956  0.1178
 2190POSM   C4B25699  21.530  24.582  13.918 -0.1489 -0.2954  0.1334
 2191POSM   NC325700  12.246  30.103  15.687 -0.3774  0.2404 -0.0266
 2191POSM   PO425701  12.517  30.376  15.562 -0.1599 -0.2083 -0.0280
 2191POSM   AM125702  12.800  30.348  15.382 -0.3353  0.3273  0.2845
 2191POSM   AM225703  13.090  30.284  15.354  0.1567 -0.0425  0.3839
 2191POSM   T1A25704  12.887  30.381  14.887  0.1684 -0.0563  0.0897
 2191POSM   C2A25705  12.983  30.449  14.474  0.2166  0.0783  0.3231
 2191POSM   C3A25706  13.330  30.497  14.164 -0.0996  0.3151 -0.0433
 2191POSM   C1B25707  13.316  30.311  15.126 -0.1442  0.1526 -0.1783
 2191POSM   D2B25708  13.473  30.425  14.747 -0.0084  0.0431  0.0506
 2191POSM   C3B25709  13.672  30.307  14.408  0.0202  0.2676  0.0697
 2191POSM   C4B25710  13.960  30.060  14.173 -0.1129  0.2558  0.0543
 2192DOPE   NH325711  12.458  25.087  15.883 -0.3512 -0.2472  0.1844
 2192DOPE   PO425712  12.695  24.961  15.777  0.1936  0.1731  0.0088
 2192DOPE   GL125713  12.596  24.915  15.363  0.0480  0.1575 -0.2989
 2192DOPE   GL225714  12.932  24.934  15.303 -0.1575 -0.1132 -0.1401
 2192DOPE   C1A25715  12.612  25.001  14.900  0.0184  0.1325 -0.2024
 2192DOPE   D2A25716  12.719  24.871  14.439  0.2235 -0.1593  0.0730
 2192DOPE   C3A25717  12.986  24.600  14.170  0.1598 -0.0196  0.1071
 2192DOPE   C4A25718  13.056  24.601  13.713 -0.0586  0.0362 -0.1996
 2192DOPE   C1B25719  12.975  24.622  14.930 -0.0339  0.3307  0.2858
 2192DOPE   D2B25720  12.984  24.233  14.658  0.0312 -0.2021  0.3181
 2192DOPE   C3B25721  12.970  24.026  14.206 -0.2510 -0.0343  0.3046
 2192DOPE   C4B25722  12.771  24.186  13.827  0.1669  0.1430  0.1184
 2193POSM   NC325723  12.301  26.033  15.609 -0.0981 -0.3956  0.1005
 2193POSM   PO425724  12.345  25.715  15.822 -0.2694 -0.3531  0.1095
 2193POSM   AM125725  12.402  25.474  15.614  0.1176  0.1961 -0.1699
 2193POSM   AM225726  12.604  25.353  15.427  0.2430 -0.1829  0.1201
 2193POSM   T1A25727  12.108  25.105  15.414 -0.0066  0.2176 -0.4114
 2193POSM   C2A25728  12.184  24.793  15.067 -0.2699  0.1542 -0.0415
 2193POSM   C3A25729  12.442  24.484  14.766  0.1873 -0.2062 -0.0891
 2193POSM   C1B25730  12.666  25.461  15.089 -0.0707 -0.1770 -0.2206
 2193POSM   D2B25731  12.814  25.378  14.657 -0.2788  0.1753  0.0251
 2193POSM   C3B25732  13.080  25.345  14.289  0.0381  0.0537 -0.0601
 2193POSM   C4B25733  13.288  25.664  14.099 -0.0324 -0.0037 -0.4047
 2194DOPE   NH325734  15.002  33.203  15.684  0.3806  0.3301 -0.0565
 2194DOPE   PO425735  14.985  33.426  15.455 -0.0606 -0.0950  0.2033
 2194DOPE   GL125736  15.010  33.436  15.069  0.2529  0.0185  0.2757
 2194DOPE   GL225737  15.071  33.688  15.050 -0.1558 -0.0895 -0.0257
 2194DOPE   C1A25738  15.263  33.424  14.679  0.1547  0.1686  0.2007
 2194DOPE   D2A25739  15.575  33.674  14.531  0.0862  0.2121  0.3227
 2194DOPE   C3A25740  15.920  33.746  14.236  0.1601 -0.0487 -0.2917
 2194DOPE   C4A25741  16.105  33.635  13.831  0.1305  0.0284 -0.2842
 2194DOPE   C1B25742  15.321  33.957  14.766  0.0292 -0.0881  0.3147
 2194DOPE   D2B25743  15.323  34.054  14.310 -0.1413 -0.1291  0.1989
 2194DOPE   C3B25744  15.460  34.505  14.154  0.1285 -0.3522  0.4173
 2194DOPE   C4B25745  15.437  34.938  14.039 -0.0888 -0.1322  0.0386
 2195POSM   NC325746  11.445  28.470  15.873 -0.1939  0.0876 -0.2094
 2195POSM   PO425747  11.331  28.757  15.570  0.2356 -0.0276 -0.1165
 2195POSM   AM125748  11.495  28.683  15.304  0.0677  0.3453  0.3870
 2195POSM   AM225749  11.698  28.476  15.203  0.0535 -0.1712 -0.1146
 2195POSM   T1A25750  11.620  28.913  14.870  0.0877  0.0655  0.0838
 2195POSM   C2A25751  11.689  29.070  14.453  0.0091  0.0126 -0.1918
 2195POSM   C3A25752  11.689  28.888  13.940 -0.1527  0.1171  0.1644
 2195POSM   C1B25753  11.729  28.410  14.911 -0.4435  0.3555 -0.1104
 2195POSM   D2B25754  11.639  28.222  14.488  0.0942 -0.2070  0.0398
 2195POSM   C3B25755  11.787  28.334  14.141 -0.0409 -0.2006 -0.2326
 2195POSM   C4B25756  12.130  28.675  13.888 -0.4004  0.1259  0.2307
 2196DOPS   CNO25757  23.123  26.020  15.556 -0.3025 -0.0621  0.2195
 2196DOPS   PO425758  23.253  25.737  15.352 -0.0644 -0.2927 -0.2067
 2196DOPS   GL125759  23.504  25.556  15.132  0.2279 -0.0789 -0.0857
 2196DOPS   GL225760  23.676  25.399  15.365  0.2029  0.2278 -0.0716
 2196DOPS   C1A25761  23.477  25.294  14.771  0.0894 -0.1743  0.0717
 2196DOPS   D2A25762  23.691  25.187  14.356  0.1333  0.2879 -0.0857
 2196DOPS   C3A25763  23.623  25.243  13.881 -0.1774  0.2180 -0.0735
 2196DOPS   C4A25764  23.743  25.126  13.453 -0.1081 -0.0701 -0.1813
 2196DOPS   C1B25765  23.803  25.136  15.032  0.1610  0.0605 -0.0252
 2196DOPS   D2B25766  24.127  25.022  14.708  0.0096 -0.1762  0.0283
 2196DOPS   C3B25767  24.082  24.913  14.240  0.1684 -0.2765  0.1590
 2196DOPS   C4B25768  23.868  24.825  13.799 -0.0147  0.0483 -0.1393
 2197DOPC   NC325769  17.104  33.111  15.926 -0.0063  0.1149  0.0463
 2197DOPC   PO425770  16.952  33.291  15.603  0.0907  0.0596  0.1113
 2197DOPC   GL125771  17.041  33.174  15.225  0.0204 -0.0060  0.0326
 2197DOPC   GL225772  16.760  33.175  15.104 -0.0285 -0.2323 -0.5382
 2197DOPC   C1A25773  17.342  32.877  14.984 -0.3736  0.2356 -0.0107
 2197DOPC   D2A25774  17.471  32.554  14.650  0.1641 -0.0545 -0.0385
 2197DOPC   C3A25775  17.277  32.591  14.257  0.0418  0.3786  0.0603
 2197DOPC   C4A25776  16.922  32.624  14.029 -0.0918 -0.1041  0.5852
 2197DOPC   C1B25777  16.542  33.122  14.719  0.1017 -0.2826  0.0501
 2197DOPC   D2B25778  16.396  32.870  14.321  0.0195  0.2311  0.0640
 2197DOPC   C3B25779  16.592  32.944  13.885 -0.0312  0.0389  0.1407
 2197DOPC   C4B25780  16.472  33.302  13.605 -0.1224  0.0821 -0.1446
 2198DOPS   CNO25781  11.933  34.272  15.366  0.1600  0.1162  0.1912
 2198DOPS   PO425782  11.758  34.003  15.607  0.0399  0.1066  0.2038
 2198DOPS   GL125783  11.691  33.985  15.159  0.0949 -0.3676 -0.2721
 2198DOPS   GL225784  11.418  34.015  15.146  0.1162  0.2080 -0.2829
 2198DOPS   C1A25785  11.772  33.738  14.793 -0.0561  0.0366 -0.2307
 2198DOPS   D2A25786  11.763  33.303  14.520  0.1965  0.1474 -0.3473
 2198DOPS   C3A25787  11.802  33.501  14.091  0.1441  0.1220  0.2615
 2198DOPS   C4A25788  12.063  33.568  13.679  0.0437  0.1017  0.0460
 2198DOPS   C1B25789  11.360  34.054  14.684 -0.0154  0.1360  0.0097
 2198DOPS   D2B25790  11.562  33.904  14.288  0.1363 -0.0524 -0.1527
 2198DOPS   C3B25791  11.624  34.022  13.812  0.0181 -0.0193 -0.0136
 2198DOPS   C4B25792  11.841  33.992  13.476 -0.2948 -0.1995 -0.1668
 2199DOPE   NH325793  20.395  32.154  15.993 -0.2132 -0.3535  0.0275
 2199DOPE   PO425794  20.698  32.076  16.100 -0.1372 -0.1465  0.0987
 2199DOPE   GL125795  20.831  32.060  15.691  0.2768  0.1447  0.4103
 2199DOPE   GL225796  20.578  32.103  15.429  0.2285  0.1760  0.0069
 2199DOPE   C1A25797  21.229  32.212  15.414 -0.0313  0.1219  0.0378
 2199DOPE   D2A25798  21.559  32.518  15.497 -0.1953 -0.1677 -0.2009
 2199DOPE   C3A25799  21.920  32.410  15.295  0.0117  0.2130 -0.2090
 2199DOPE   C4A25800  22.137  32.426  14.887 -0.2034  0.0366 -0.1932
 2199DOPE   C1B25801  20.492  31.979  15.008 -0.1673 -0.4924 -0.0899
 2199DOPE   D2B25802  20.375  31.859  14.581 -0.1165 -0.1444 -0.4819
 2199DOPE   C3B25803  20.417  32.060  14.109  0.1419  0.0734  0.2225
 2199DOPE   C4B25804  20.481  32.398  13.803 -0.1560  0.0105 -0.2653
 2200DOPC   NC325805  13.518  29.782  15.539  0.2656  0.0632 -0.0738
 2200DOPC   PO425806  13.193  29.943  15.691 -0.1720 -0.0680  0.0125
 2200DOPC   GL125807  13.000  29.779  15.328 -0.1664  0.0017 -0.1436
 2200DOPC   GL225808  12.708  29.882  15.419  0.0938  0.1953  0.1604
 2200DOPC   C1A25809  13.135  29.563  14.974 -0.2306 -0.1469  0.0232
 2200DOPC   D2A25810  13.238  29.608  14.494  0.1552  0.0243 -0.2839
 2200DOPC   C3A25811  13.543  29.844  14.322 -0.0134  0.0949 -0.0089
 2200DOPC   C4A25812  13.534  30.053  13.923 -0.4720  0.2288 -0.1553
 2200DOPC   C1B25813  12.767  29.896  14.950  0.0077 -0.1775 -0.1632
 2200DOPC   D2B25814  12.832  29.875  14.532 -0.1356  0.1755 -0.0893
 2200DOPC   C3B25815  13.241  29.977  14.766  0.2985 -0.0024 -0.0133
 2200DOPC   C4B25816  13.602  29.929  15.047  0.0813 -0.0304  0.2719
 2201DOPS   CNO25817  11.681  26.139  15.280 -0.2743 -0.1289  0.1046
 2201DOPS   PO425818  11.698  26.513  15.390 -0.3927  0.0231  0.1618
 2201DOPS   GL125819  11.785  26.482  14.989  0.0265 -0.3098 -0.1455
 2201DOPS   GL225820  11.525  26.386  14.870  0.3852  0.0951  0.0279
 2201DOPS   C1A25821  11.811  26.742  14.616  0.0456 -0.0838 -0.2007
 2201DOPS   D2A25822  11.540  26.594  14.232 -0.5142 -0.0279 -0.0851
 2201DOPS   C3A25823  11.115  26.738  14.045  0.1030 -0.2187 -0.0569
 2201DOPS   C4A25824  10.999  27.085  13.820 -0.0873 -0.1770  0.0208
 2201DOPS   C1B25825  11.655  26.135  14.495 -0.0301  0.2251 -0.0086
 2201DOPS   D2B25826  12.039  25.909  14.204 -0.0256 -0.0641 -0.0210
 2201DOPS   C3B25827  12.388  26.139  14.022  0.0475  0.0020  0.0623
 2201DOPS   C4B25828  12.568  26.545  13.846  0.0078  0.0431  0.2547
 2202DOPC   NC325829  15.097  26.020  15.509 -0.1028 -0.0905  0.2260
 2202DOPC   PO425830  15.355  25.677  15.516 -0.1706 -0.1349 -0.0062
 2202DOPC   GL125831  15.166  25.528  15.237 -0.0639 -0.0721 -0.1608
 2202DOPC   GL225832  15.249  25.282  15.171 -0.4008  0.2090  0.0272
 2202DOPC   C1A25833  14.816  25.429  14.983 -0.1236  0.1862 -0.0485
 2202DOPC   D2A25834  14.673  25.222  14.586 -0.2694  0.1304  0.2915
 2202DOPC   C3A25835  14.587  25.344  14.149 -0.0158  0.2331  0.1385
 2202DOPC   C4A25836  14.445  25.389  13.734 -0.1160 -0.1134 -0.0383
 2202DOPC   C1B25837  15.517  25.465  14.843 -0.2684 -0.0132  0.0246
 2202DOPC   D2B25838  15.552  25.633  14.403  0.0562  0.1470 -0.0361
 2202DOPC   C3B25839  15.352  25.893  14.037 -0.1461  0.2898 -0.1346
 2202DOPC   C4B25840  15.266  26.314  13.910 -0.1630  0.0827  0.0661
 2203DOPE   NH325841  22.717  31.429  15.684 -0.0230  0.1080 -0.0449
 2203DOPE   PO425842  22.605  31.614  15.907 -0.0198 -0.0971 -0.2480
 2203DOPE   GL125843  22.749  31.816  15.507 -0.1134 -0.3801 -0.1860
 2203DOPE   GL225844  22.565  31.992  15.544  0.2957  0.1834 -0.1254
 2203DOPE   C1A25845  22.488  31.547  15.176 -0.0730 -0.2214 -0.1297
 2203DOPE   D2A25846  22.047  31.527  15.159  0.0930  0.2117  0.1757
 2203DOPE   C3A25847  21.739  31.492  14.800  0.0653 -0.0611 -0.1005
 2203DOPE   C4A25848  21.319  31.599  14.627 -0.1508  0.0494  0.1500
 2203DOPE   C1B25849  22.212  31.977  15.286  0.3962  0.0938  0.1318
 2203DOPE   D2B25850  22.084  31.873  14.807  0.1305  0.2639 -0.1067
 2203DOPE   C3B25851  22.246  32.038  14.428  0.2361  0.0189  0.1915
 2203DOPE   C4B25852  22.028  32.424  14.176 -0.3493  0.0012  0.1768
 2204POSM   NC325853  18.346  31.703  16.336  0.0074  0.2397  0.1301
 2204POSM   PO425854  18.018  31.511  16.236 -0.0259  0.1400 -0.0763
 2204POSM   AM125855  18.129  31.450  15.925 -0.0611 -0.0387  0.1989
 2204POSM   AM225856  18.364  31.629  15.816  0.0795 -0.3606  0.2771
 2204POSM   T1A25857  18.158  31.205  15.521  0.5345  0.1184  0.0314
 2204POSM   C2A25858  17.948  30.996  15.162 -0.0667 -0.0787  0.4381
 2204POSM   C3A25859  17.832  30.678  14.869  0.0691 -0.1332  0.0235
 2204POSM   C1B25860  18.392  31.753  15.506 -0.0771  0.2362 -0.1245
 2204POSM   D2B25861  18.552  31.910  15.129  0.2020 -0.0857  0.0617
 2204POSM   C3B25862  18.484  32.229  14.738  0.0115 -0.1543 -0.1561
 2204POSM   C4B25863  18.077  32.460  14.569 -0.0742 -0.3425  0.2630
 2205DOPE   NH325864  15.610  32.439  15.413 -0.0838  0.1590 -0.0727
 2205DOPE   PO425865  15.695  32.735  15.267 -0.0279  0.2149 -0.0239
 2205DOPE   GL125866  15.940  32.897  14.962 -0.3406 -0.0646 -0.0097
 2205DOPE   GL225867  16.178  32.907  15.117 -0.1332 -0.2255 -0.3073
 2205DOPE   C1A25868  16.002  32.738  14.567  0.3516 -0.2008 -0.3404
 2205DOPE   D2A25869  16.072  32.428  14.191  0.1975 -0.0761  0.0580
 2205DOPE   C3A25870  16.113  32.511  13.748 -0.2053 -0.2302 -0.1801
 2205DOPE   C4A25871  16.182  32.803  13.464  0.0990  0.3644  0.1511
 2205DOPE   C1B25872  16.407  32.653  14.829  0.0988  0.0325 -0.0665
 2205DOPE   D2B25873  16.602  32.435  14.444  0.1461  0.3160 -0.1943
 2205DOPE   C3B25874  16.527  32.358  13.947 -0.1303 -0.0315 -0.1768
 2205DOPE   C4B25875  16.403  32.032  13.756  0.1059  0.1050  0.1712
 2206POSM   NC325876  18.683  32.123  15.645  0.2629 -0.1692 -0.1324
 2206POSM   PO425877  19.019  32.209  15.809 -0.3245  0.0432  0.4275
 2206POSM   AM125878  19.188  32.090  15.581 -0.1270 -0.0343  0.4032
 2206POSM   AM225879  19.463  32.009  15.532  0.3700 -0.0015 -0.0970
 2206POSM   T1A25880  19.179  31.994  15.085 -0.0505  0.2485 -0.2250
 2206POSM   C2A25881  19.045  32.053  14.652 -0.1675 -0.1571  0.4611
 2206POSM   C3A25882  18.924  31.928  14.175  0.1247  0.4673  0.0914
 2206POSM   C1B25883  19.672  31.934  15.278  0.5278 -0.1984  0.0809
 2206POSM   D2B25884  19.936  31.831  14.886  0.2611 -0.0954  0.1708
 2206POSM   C3B25885  19.937  31.604  14.550 -0.3267  0.1412  0.0552
 2206POSM   C4B25886  20.036  31.372  14.162  0.1942  0.0802 -0.0887
 2207DOPC   NC325887  19.941  28.038  15.902  0.0847  0.0414  0.0280
 2207DOPC   PO425888  19.663  27.927  16.148 -0.2276 -0.1722  0.2984
 2207DOPC   GL125889  19.640  27.714  15.801 -0.4111 -0.0254  0.0770
 2207DOPC   GL225890  19.442  27.451  15.757  0.0464 -0.3295  0.0189
 2207DOPC   C1A25891  19.762  27.527  15.374  0.2846  0.2117  0.0292
 2207DOPC   D2A25892  19.906  27.450  14.976 -0.1524  0.1652  0.0426
 2207DOPC   C3A25893  20.136  27.782  14.965 -0.3827 -0.0142  0.0280
 2207DOPC   C4A25894  20.443  27.988  14.673  0.1608  0.2655  0.4006
 2207DOPC   C1B25895  19.448  27.146  15.409 -0.2857  0.0719  0.2014
 2207DOPC   D2B25896  19.428  27.090  14.954 -0.0774 -0.0059  0.0571
 2207DOPC   C3B25897  19.787  27.018  14.700 -0.1630  0.3391 -0.0658
 2207DOPC   C4B25898  20.182  27.013  14.445 -0.3166  0.4480  0.1822
 2208DOPE   NH325899  17.758  33.199  16.108  0.5191  0.2584  0.3123
 2208DOPE   PO425900  17.963  33.114  15.880  0.0266  0.1326  0.0411
 2208DOPE   GL125901  18.016  33.165  15.551  0.2941 -0.4907  0.0303
 2208DOPE   GL225902  18.224  32.917  15.428 -0.1517 -0.1049  0.4022
 2208DOPE   C1A25903  18.066  33.258  15.085  0.0116  0.1693  0.2976
 2208DOPE   D2A25904  18.027  33.492  14.655  0.0757  0.2208 -0.0257
 2208DOPE   C3A25905  18.123  33.308  14.237 -0.2386  0.1652 -0.1954
 2208DOPE   C4A25906  18.524  33.260  13.948 -0.0054 -0.1219  0.0852
 2208DOPE   C1B25907  18.465  33.280  15.327 -0.0116  0.2457  0.0301
 2208DOPE   D2B25908  18.675  33.668  15.440  0.2604  0.3871 -0.1447
 2208DOPE   C3B25909  18.590  33.981  15.127  0.4825 -0.0468 -0.0444
 2208DOPE   C4B25910  18.556  34.186  14.736  0.0417 -0.2745 -0.0008
 2209POSM   NC325911  19.032  23.678  15.940  0.0545  0.1086 -0.0394
 2209POSM   PO425912  19.119  23.311  15.908  0.2292 -0.0327  0.1576
 2209POSM   AM125913  19.095  23.393  15.589  0.3468 -0.0363 -0.0587
 2209POSM   AM225914  19.121  23.593  15.388 -0.4701 -0.0272 -0.0459
 2209POSM   T1A25915  18.961  23.194  15.183  0.0808  0.0772 -0.0599
 2209POSM   C2A25916  19.088  23.158  14.728  0.1809 -0.2983  0.3551
 2209POSM   C3A25917  18.961  22.756  14.458 -0.1216  0.0076  0.2782
 2209POSM   C1B25918  19.293  23.620  15.151  0.0576 -0.2238  0.0602
 2209POSM   D2B25919  19.415  23.601  14.695 -0.2061 -0.0677  0.3652
 2209POSM   C3B25920  19.789  23.721  14.473 -0.1030  0.0259  0.1628
 2209POSM   C4B25921  20.039  23.876  14.129 -0.0365 -0.0672 -0.1323
 2210DOPE   NH325922  21.084  33.247  15.926  0.1563 -0.3225 -0.0851
 2210DOPE   PO425923  20.996  33.400  15.676 -0.1013 -0.3209 -0.3006
 2210DOPE   GL125924  20.895  33.307  15.307 -0.0918  0.2445  0.0846
 2210DOPE   GL225925  20.908  33.587  15.215 -0.0808  0.0053  0.0595
 2210DOPE   C1A25926  21.034  32.978  15.044  0.1575  0.1910 -0.0269
 2210DOPE   D2A25927  20.873  32.800  14.625 -0.1992 -0.1129  0.2103
 2210DOPE   C3A25928  21.219  32.465  14.568 -0.3439  0.0002 -0.1163
 2210DOPE   C4A25929  21.477  32.418  14.183 -0.0149 -0.2509 -0.0737
 2210DOPE   C1B25930  21.306  33.448  15.050 -0.1891  0.0641 -0.2587
 2210DOPE   D2B25931  21.463  33.150  14.824 -0.0681  0.3881  0.1364
 2210DOPE   C3B25932  21.344  32.931  14.457 -0.0407  0.1119 -0.1464
 2210DOPE   C4B25933  21.126  32.861  14.057  0.1132  0.2958  0.1349
 2211DOPE   NH325934  12.048  27.050  15.528 -0.1377 -0.1234 -0.0710
 2211DOPE   PO425935  11.811  27.293  15.502  0.1309 -0.0632  0.2361
 2211DOPE   GL125936  12.101  27.373  15.200  0.3208  0.2366  0.0874
 2211DOPE   GL225937  12.385  27.171  15.160  0.2293 -0.0796  0.2572
 2211DOPE   C1A25938  12.267  27.606  14.839  0.0767  0.0316  0.2273
 2211DOPE   D2A25939  12.372  27.908  14.473 -0.1031  0.0117 -0.4135
 2211DOPE   C3A25940  12.549  27.949  14.062  0.0661 -0.3119  0.3258
 2211DOPE   C4A25941  12.551  27.862  13.615  0.2296 -0.2817 -0.2416
 2211DOPE   C1B25942  12.607  27.271  14.735 -0.0634  0.1321  0.1279
 2211DOPE   D2B25943  12.885  27.141  14.431  0.1596  0.3893 -0.2124
 2211DOPE   C3B25944  13.162  27.279  14.046  0.1046  0.0601  0.1379
 2211DOPE   C4B25945  13.214  27.611  13.722 -0.0796 -0.0855 -0.0364
 2212DOPE   NH325946  20.340  29.658  16.222  0.1626  0.0470 -0.0269
 2212DOPE   PO425947  20.120  29.672  16.012 -0.0724  0.0656  0.2047
 2212DOPE   GL125948  20.121  29.808  15.619 -0.0945  0.0704 -0.3115
 2212DOPE   GL225949  19.919  29.554  15.536 -0.0245  0.1717 -0.1130
 2212DOPE   C1A25950  20.130  29.830  15.172 -0.0259  0.3220 -0.0574
 2212DOPE   D2A25951  19.791  29.782  14.872  0.0466  0.0565 -0.1195
 2212DOPE   C3A25952  19.533  30.158  14.806 -0.1641  0.2166 -0.3450
 2212DOPE   C4A25953  19.390  30.408  14.457 -0.2193 -0.1641  0.1774
 2212DOPE   C1B25954  19.705  29.376  15.182 -0.0863 -0.2185 -0.1246
 2212DOPE   D2B25955  19.829  29.306  14.758 -0.2930  0.2995  0.1422
 2212DOPE   C3B25956  19.646  29.328  14.304  0.1948  0.0780  0.1288
 2212DOPE   C4B25957  19.395  29.751  14.253  0.1071 -0.2404  0.0747
 2213DOPE   NH325958  12.879  24.573  16.133 -0.1092  0.3005  0.0411
 2213DOPE   PO425959  12.559  24.644  16.176  0.0118  0.1604 -0.0053
 2213DOPE   GL125960  12.455  24.564  15.840  0.1600  0.3100 -0.4845
 2213DOPE   GL225961  12.312  24.637  15.574  0.1922  0.0066 -0.0010
 2213DOPE   C1A25962  12.449  24.132  15.622 -0.3165 -0.2197 -0.3294
 2213DOPE   D2A25963  12.196  23.787  15.387 -0.1507  0.1605  0.0144
 2213DOPE   C3A25964  12.152  23.313  15.392  0.2168  0.0087 -0.1221
 2213DOPE   C4A25965  12.018  22.988  15.088  0.0926  0.0482 -0.0491
 2213DOPE   C1B25966  12.652  24.427  15.280  0.1003 -0.1997 -0.1129
 2213DOPE   D2B25967  13.127  24.361  15.305 -0.0460  0.1693  0.3639
 2213DOPE   C3B25968  13.285  24.087  15.005 -0.2137  0.0014  0.4525
 2213DOPE   C4B25969  13.333  23.905  14.557  0.0382  0.0275 -0.1223
 2214POSM   NC325970  21.158  25.855  15.990  0.0654  0.2879  0.2878
 2214POSM   PO425971  20.881  25.607  16.113 -0.1997 -0.0079  0.2060
 2214POSM   AM125972  20.834  25.568  15.798 -0.2999  0.3178  0.1981
 2214POSM   AM225973  20.586  25.480  15.669 -0.1632 -0.1102 -0.4093
 2214POSM   T1A25974  21.021  25.767  15.377 -0.0483  0.1234 -0.2579
 2214POSM   C2A25975  21.237  25.732  14.960 -0.0085 -0.2189  0.2012
 2214POSM   C3A25976  21.138  25.749  14.546 -0.2311  0.0467 -0.1830
 2214POSM   C1B25977  20.491  25.596  15.339  0.3601  0.0742  0.0333
 2214POSM   D2B25978  20.559  25.791  14.894 -0.0647 -0.0287  0.1224
 2214POSM   C3B25979  20.637  25.687  14.472  0.2304  0.0283  0.1982
 2214POSM   C4B25980  20.756  25.631  14.009 -0.0544 -0.0928 -0.0931
 2215DOPE   NH325981  20.686  31.435  16.398  0.1394 -0.1301 -0.1366
 2215DOPE   PO425982  20.498  31.652  16.247  0.0887  0.0445 -0.1582
 2215DOPE   GL125983  20.639  31.440  15.899  0.5070 -0.0352  0.2413
 2215DOPE   GL225984  20.481  31.719  15.762 -0.2460 -0.0155 -0.0520
 2215DOPE   C1A25985  20.577  31.034  15.678 -0.0885  0.1048 -0.0815
 2215DOPE   D2A25986  20.449  30.632  15.459 -0.2334  0.1526 -0.1090
 2215DOPE   C3A25987  20.171  30.337  15.285 -0.0120 -0.0029 -0.1257
 2215DOPE   C4A25988  19.809  30.186  15.352  0.1056  0.0861  0.2893
 2215DOPE   C1B25989  20.812  31.678  15.454 -0.0904  0.0707  0.1159
 2215DOPE   D2B25990  20.951  31.619  15.009  0.1255  0.4104  0.0848
 2215DOPE   C3B25991  20.880  31.813  14.579  0.1442 -0.0942 -0.0494
 2215DOPE   C4B25992  21.181  31.996  14.272 -0.1136  0.2483  0.1227
 2216DOPE   NH325993  20.065  33.194  15.862  0.0013 -0.1324  0.1152
 2216DOPE   PO425994  20.270  33.433  15.797 -0.0011  0.1321  0.0471
 2216DOPE   GL125995  20.169  33.461  15.416  0.2778 -0.2170 -0.1223
 2216DOPE   GL225996  20.423  33.581  15.308 -0.3538 -0.2992 -0.0885
 2216DOPE   C1A25997  19.983  33.616  15.045  0.0020 -0.0975 -0.4161
 2216DOPE   D2A25998  20.065  33.929  14.758 -0.0449  0.0659 -0.1549
 2216DOPE   C3A25999  20.269  33.739  14.362 -0.1260 -0.1801 -0.0123
 2216DOPE   C4A26000  20.277  33.395  14.097  0.1570  0.0654  0.0682
 2216DOPE   C1B26001  20.512  33.661  14.886  0.4944 -0.2499 -0.0266
 2216DOPE   D2B26002  20.923  33.827  14.731 -0.1222  0.1354 -0.0827
 2216DOPE   C3B26003  21.139  34.113  14.401 -0.1362  0.1914  0.1992
 2216DOPE   C4B26004  21.468  34.336  14.181 -0.3062  0.3865 -0.1084
 2217POSM   NC326005  19.862  26.216  16.355  0.3734 -0.3193  0.0323
 2217POSM   PO426006  19.988  26.570  16.217  0.1705 -0.3170 -0.1453
 2217POSM   AM126007  20.185  26.691  16.008 -0.2431 -0.1187  0.1162
 2217POSM   AM226008  20.373  26.917  16.000  0.0408  0.3632  0.1911
 2217POSM   T1A26009  20.448  26.559  15.650 -0.1967  0.1567  0.1990
 2217POSM   C2A26010  20.390  26.667  15.226  0.2036  0.2775  0.1399
 2217POSM   C3A26011  20.155  26.687  14.875  0.0493 -0.2133  0.2848
 2217POSM   C1B26012  20.263  27.013  15.659  0.0770  0.1964 -0.1976
 2217POSM   D2B26013  19.933  27.044  15.321 -0.2226 -0.2346 -0.1405
 2217POSM   C3B26014  19.702  26.692  15.194  0.0990  0.0324 -0.4062
 2217POSM   C4B26015  19.494  26.483  14.885  0.0286  0.0923 -0.2369
 2218DOPC   NC326016  13.962  30.845  15.570 -0.0393  0.0531 -0.1993
 2218DOPC   PO426017  14.265  30.881  15.841  0.1739  0.1786  0.0208
 2218DOPC   GL126018  14.350  31.091  15.481 -0.1850 -0.5933  0.0422
 2218DOPC   GL226019  14.625  31.035  15.447 -0.3181 -0.1802 -0.0118
 2218DOPC   C1A26020  14.256  30.797  15.099  0.0810 -0.1784 -0.1924
 2218DOPC   D2A26021  14.466  30.589  14.684  0.3485  0.1073 -0.1029
 2218DOPC   C3A26022  14.402  30.692  14.218 -0.2504 -0.3361 -0.1512
 2218DOPC   C4A26023  14.310  30.708  13.779  0.0219  0.0418  0.1240
 2218DOPC   C1B26024  14.687  30.987  14.996 -0.0512  0.1925 -0.1597
 2218DOPC   D2B26025  14.570  31.057  14.530  0.2506 -0.0445 -0.0364
 2218DOPC   C3B26026  14.602  31.130  14.030 -0.0579  0.2283 -0.2436
 2218DOPC   C4B26027  14.624  31.365  13.634  0.0269  0.1600  0.2695
 2219DOPE   NH326028  13.343  25.070  15.590 -0.0335 -0.0639  0.2868
 2219DOPE   PO426029  13.524  25.306  15.448  0.0410 -0.1622 -0.0350
 2219DOPE   GL126030  13.490  25.703  15.100  0.3232  0.1262  0.3672
 2219DOPE   GL226031  13.420  25.902  15.293  0.0914 -0.1306  0.3310
 2219DOPE   C1A26032  13.421  25.524  14.688 -0.1348  0.0532  0.1725
 2219DOPE   D2A26033  13.655  25.299  14.360 -0.2272  0.0792  0.2896
 2219DOPE   C3A26034  13.488  25.262  13.923  0.0662  0.0685  0.0473
 2219DOPE   C4A26035  13.453  24.878  13.697  0.0840 -0.2480 -0.0725
 2219DOPE   C1B26036  13.474  26.102  14.869  0.1762  0.3397 -0.1483
 2219DOPE   D2B26037  13.339  26.190  14.431 -0.1745 -0.1360 -0.0761
 2219DOPE   C3B26038  13.568  26.179  14.033  0.1506  0.0202 -0.1189
 2219DOPE   C4B26039  13.963  26.271  13.754  0.4824  0.1398 -0.0128
 2220DOPC   NC326040  22.481  29.000  15.586 -0.1048 -0.1287  0.0494
 2220DOPC   PO426041  22.295  28.718  15.725 -0.0177  0.0167  0.0829
 2220DOPC   GL126042  22.164  28.640  15.375 -0.3022  0.0093  0.0630
 2220DOPC   GL226043  22.363  28.416  15.256 -0.1369  0.0696  0.2380
 2220DOPC   C1A26044  22.169  28.791  14.906  0.0559  0.1333 -0.1901
 2220DOPC   D2A26045  22.165  28.722  14.443 -0.0818 -0.0902  0.1442
 2220DOPC   C3A26046  22.507  28.396  14.256 -0.1547 -0.2341 -0.0191
 2220DOPC   C4A26047  22.896  28.462  14.058 -0.4004 -0.1024 -0.0890
 2220DOPC   C1B26048  22.242  28.186  14.814  0.2072 -0.2002 -0.1116
 2220DOPC   D2B26049  22.219  27.778  14.585  0.1262  0.0883 -0.0536
 2220DOPC   C3B26050  22.586  27.588  14.462  0.3079 -0.0016  0.3929
 2220DOPC   C4B26051  22.824  27.314  14.664  0.2366  0.2066  0.0596
 2221POSM   NC326052  13.179  23.455  16.335  0.1037 -0.3419 -0.1047
 2221POSM   PO426053  13.072  23.862  16.229  0.2476 -0.0855 -0.2707
 2221POSM   AM126054  13.157  23.743  15.903 -0.1334 -0.3119 -0.1262
 2221POSM   AM226055  13.282  23.496  15.787 -0.1494 -0.1137 -0.0355
 2221POSM   T1A26056  12.993  23.901  15.457  0.1273 -0.2543  0.3018
 2221POSM   C2A26057  12.674  23.930  15.163  0.1717  0.0620 -0.1888
 2221POSM   C3A26058  12.538  23.981  14.694 -0.0585 -0.1604 -0.1031
 2221POSM   C1B26059  13.257  23.458  15.452 -0.1354  0.1927  0.1608
 2221POSM   D2B26060  13.165  23.571  15.064  0.2870 -0.0411 -0.0233
 2221POSM   C3B26061  12.901  23.439  14.725  0.0872 -0.0067  0.4328
 2221POSM   C4B26062  12.990  22.988  14.559  0.2453  0.0610 -0.0969
 2222DOPE   NH326063  20.438  25.092  16.047 -0.0008  0.1016 -0.1373
 2222DOPE   PO426064  20.117  25.166  16.021 -0.0555 -0.0416 -0.0477
 2222DOPE   GL126065  19.992  25.337  15.673 -0.0149 -0.1110 -0.0364
 2222DOPE   GL226066  20.037  25.613  15.741  0.1311 -0.3371  0.3288
 2222DOPE   C1A26067  19.990  25.554  15.246  0.0232 -0.0418  0.1156
 2222DOPE   D2A26068  19.829  25.753  14.925 -0.2937  0.0187 -0.0133
 2222DOPE   C3A26069  19.747  25.606  14.511 -0.0441 -0.1959 -0.0399
 2222DOPE   C4A26070  19.758  25.739  14.078 -0.0202  0.1372 -0.0722
 2222DOPE   C1B26071  20.249  25.987  15.413 -0.2192 -0.0001  0.1250
 2222DOPE   D2B26072  20.289  26.226  15.028 -0.0350  0.1623 -0.0983
 2222DOPE   C3B26073  20.176  26.054  14.625  0.0640  0.2241 -0.0798
 2222DOPE   C4B26074  20.139  26.145  14.141  0.1754 -0.2231  0.1617
 2223DOPE   NH326075  21.249  26.976  16.080 -0.1167  0.2043  0.6916
 2223DOPE   PO426076  21.525  27.102  16.037 -0.1082 -0.1059 -0.0450
 2223DOPE   GL126077  21.487  27.051  15.540 -0.0198  0.1035 -0.1403
 2223DOPE   GL226078  21.313  26.827  15.513  0.0508  0.0445  0.1907
 2223DOPE   C1A26079  21.772  26.936  15.181  0.2685  0.0384  0.1720
 2223DOPE   D2A26080  21.883  27.038  14.758  0.1838  0.2788  0.3323
 2223DOPE   C3A26081  22.356  26.938  14.493 -0.1952 -0.1640  0.5768
 2223DOPE   C4A26082  22.833  26.844  14.435 -0.2626  0.3017 -0.3701
 2223DOPE   C1B26083  20.963  26.735  15.266  0.0956  0.0978 -0.2796
 2223DOPE   D2B26084  20.881  26.600  14.877 -0.1792 -0.2596 -0.0160
 2223DOPE   C3B26085  21.134  26.400  14.563  0.1022 -0.0884  0.2042
 2223DOPE   C4B26086  21.178  26.230  14.140  0.0848 -0.1015 -0.1720
 2224POSM   NC326087  15.569  24.955  16.276  0.1560 -0.0124 -0.1538
 2224POSM   PO426088  15.749  24.830  15.962  0.0480  0.0193  0.3070
 2224POSM   AM126089  15.876  24.805  15.661 -0.2070 -0.0308 -0.1944
 2224POSM   AM226090  16.042  24.636  15.486 -0.0961 -0.2192  0.1287
 2224POSM   T1A26091  15.926  24.982  15.182  0.3250 -0.0989 -0.1064
 2224POSM   C2A26092  15.817  24.688  14.809  0.0623 -0.0642  0.1043
 2224POSM   C3A26093  15.513  24.554  14.486  0.3132 -0.0471  0.3834
 2224POSM   C1B26094  15.998  24.340  15.373 -0.3581  0.2778  0.4267
 2224POSM   D2B26095  15.906  24.120  14.933  0.1186 -0.0178  0.0401
 2224POSM   C3B26096  15.890  24.266  14.492  0.0025  0.1322  0.1285
 2224POSM   C4B26097  15.885  24.735  14.307 -0.2147 -0.1704 -0.1938
 2225DOPS   CNO26098  18.909  24.574  16.318  0.5517 -0.0124 -0.0798
 2225DOPS   PO426099  19.175  24.452  16.065 -0.2142 -0.3910  0.2765
 2225DOPS   GL126100  19.392  24.576  15.692 -0.2273  0.0017  0.1893
 2225DOPS   GL226101  19.410  24.859  15.661 -0.2824  0.0250 -0.0058
 2225DOPS   C1A26102  19.344  24.669  15.218  0.1778  0.1656  0.2429
 2225DOPS   D2A26103  19.450  24.881  14.779  0.1988 -0.0775  0.0614
 2225DOPS   C3A26104  19.360  24.836  14.351 -0.3066  0.0733  0.1480
 2225DOPS   C4A26105  19.070  24.938  14.001 -0.0789 -0.5253  0.1562
 2225DOPS   C1B26106  19.412  25.235  15.317 -0.1729 -0.0651 -0.1389
 2225DOPS   D2B26107  19.499  25.391  14.854  0.1017  0.2584 -0.0731
 2225DOPS   C3B26108  19.390  25.308  14.384 -0.1391 -0.1950  0.2313
 2225DOPS   C4B26109  19.386  25.356  13.880  0.1248  0.3981 -0.1078
 2226DOPC   NC326110  15.118  34.204  15.292 -0.0657 -0.1018  0.1473
 2226DOPC   PO426111  14.878  33.900  15.393  0.1225  0.0133  0.0795
 2226DOPC   GL126112  14.637  33.720  15.184  0.3151 -0.4231 -0.2380
 2226DOPC   GL226113  14.450  33.855  15.083 -0.1164  0.1642 -0.0284
 2226DOPC   C1A26114  14.638  33.503  14.803  0.5589 -0.0382  0.1423
 2226DOPC   D2A26115  14.443  33.411  14.429 -0.0097 -0.1202  0.0939
 2226DOPC   C3A26116  14.448  33.127  14.096  0.3420 -0.0897 -0.1581
 2226DOPC   C4A26117  14.751  32.907  13.839  0.0959 -0.2599  0.0714
 2226DOPC   C1B26118  14.117  33.766  14.790  0.1465 -0.2395  0.0247
 2226DOPC   D2B26119  13.993  33.784  14.352 -0.0812  0.1200  0.0950
 2226DOPC   C3B26120  14.275  33.956  14.088 -0.1102  0.2870 -0.1805
 2226DOPC   C4B26121  14.770  34.087  14.021  0.0514 -0.1382 -0.1094
 2227POSM   NC326122  17.189  29.429  16.299  0.1065 -0.2796  0.2872
 2227POSM   PO426123  17.456  29.721  16.124 -0.1191 -0.1682 -0.0205
 2227POSM   AM126124  17.419  29.457  15.911  0.2118 -0.1093  0.1512
 2227POSM   AM226125  17.371  29.406  15.665  0.0094  0.0562 -0.0391
 2227POSM   T1A26126  17.773  29.152  15.690 -0.0555  0.1562  0.1860
 2227POSM   C2A26127  17.658  28.865  15.381  0.1134 -0.3181 -0.4574
 2227POSM   C3A26128  17.270  28.699  15.178  0.0475 -0.0350 -0.3213
 2227POSM   C1B26129  17.493  29.340  15.359 -0.1180  0.4372  0.0681
 2227POSM   D2B26130  17.720  29.154  15.018 -0.2218  0.3319 -0.0640
 2227POSM   C3B26131  17.588  28.988  14.615 -0.3339  0.0888 -0.1606
 2227POSM   C4B26132  17.495  28.692  14.237 -0.0311  0.1375 -0.1338
 2228DOPE   NH326133  18.356  24.885  16.352 -0.1099  0.1366  0.0670
 2228DOPE   PO426134  18.520  25.065  16.130  0.1200  0.4571  0.0836
 2228DOPE   GL126135  18.511  24.997  15.675 -0.0195  0.4236 -0.2021
 2228DOPE   GL226136  18.275  25.139  15.651  0.0627  0.1885 -0.0219
 2228DOPE   C1A26137  18.804  25.011  15.292  0.0579 -0.2290  0.0115
 2228DOPE   D2A26138  19.090  25.197  14.932  0.0350  0.2713 -0.1864
 2228DOPE   C3A26139  18.948  25.093  14.531 -0.0404  0.0366 -0.0429
 2228DOPE   C4A26140  18.906  25.391  14.113 -0.1250  0.1359 -0.2383
 2228DOPE   C1B26141  18.015  25.362  15.376  0.1265  0.1798  0.2167
 2228DOPE   D2B26142  17.733  25.342  14.988 -0.1586  0.0696  0.1395
 2228DOPE   C3B26143  17.773  25.134  14.595 -0.1160 -0.0226 -0.1766
 2228DOPE   C4B26144  17.899  25.002  14.183 -0.1271  0.1181 -0.0648
 2229DOPS   CNO26145  16.970  23.751  16.011  0.0286 -0.1856  0.1299
 2229DOPS   PO426146  17.121  23.524  15.754 -0.3243 -0.2350  0.1554
 2229DOPS   GL126147  17.258  23.576  15.430  0.1181  0.0068  0.2145
 2229DOPS   GL226148  17.512  23.509  15.321 -0.1907  0.3139  0.0035
 2229DOPS   C1A26149  17.136  23.670  14.958 -0.0598  0.0526 -0.1025
 2229DOPS   D2A26150  17.217  24.010  14.600  0.1661 -0.2977  0.1528
 2229DOPS   C3A26151  17.562  24.022  14.301 -0.2862  0.4813  0.1138
 2229DOPS   C4A26152  17.979  24.191  14.219 -0.0843  0.1868 -0.2693
 2229DOPS   C1B26153  17.502  23.929  15.191 -0.1405  0.2389 -0.0068
 2229DOPS   D2B26154  17.339  24.323  15.006  0.1747 -0.1610  0.1132
 2229DOPS   C3B26155  17.308  24.544  14.610  0.0265 -0.0287  0.1240
 2229DOPS   C4B26156  17.631  24.501  14.210 -0.1085  0.1136 -0.0545
 2230DOPS   CNO26157  17.790  32.632  16.078  0.0818  0.1204  0.0160
 2230DOPS   PO426158  17.519  32.715  15.880  0.1662  0.2113  0.3613
 2230DOPS   GL126159  17.557  32.605  15.547  0.0065 -0.1940 -0.1131
 2230DOPS   GL226160  17.855  32.589  15.509  0.0828 -0.2323  0.3835
 2230DOPS   C1A26161  17.744  32.944  15.216 -0.0003 -0.2299 -0.0378
 2230DOPS   D2A26162  17.773  32.978  14.713 -0.0161  0.1691 -0.0692
 2230DOPS   C3A26163  17.853  32.840  14.267 -0.0816 -0.1873 -0.1912
 2230DOPS   C4A26164  18.064  32.414  14.053  0.0822 -0.1628 -0.2327
 2230DOPS   C1B26165  17.784  32.456  15.064  0.1642  0.1286  0.0709
 2230DOPS   D2B26166  17.762  32.114  14.718 -0.3258 -0.0907 -0.2132
 2230DOPS   C3B26167  17.590  32.213  14.333 -0.0804 -0.0844 -0.2250
 2230DOPS   C4B26168  17.587  32.218  13.849  0.0663  0.0892 -0.1728
 2231DOPE   NH326169  22.905  23.724  16.114 -0.0314 -0.0737 -0.0166
 2231DOPE   PO426170  22.823  23.410  16.190 -0.0521 -0.0718  0.0745
 2231DOPE   GL126171  22.984  23.469  15.677  0.1506 -0.2865  0.0297
 2231DOPE   GL226172  23.094  23.242  15.617 -0.3432 -0.2830 -0.1278
 2231DOPE   C1A26173  22.990  23.740  15.259  0.1178  0.0691  0.0691
 2231DOPE   D2A26174  23.079  24.022  14.894  0.3282  0.4181  0.0540
 2231DOPE   C3A26175  23.456  24.231  14.738 -0.1624  0.0669  0.1335
 2231DOPE   C4A26176  23.851  24.291  14.539  0.1126  0.1444  0.2443
 2231DOPE   C1B26177  23.035  23.026  15.172 -0.1070 -0.0569  0.0764
 2231DOPE   D2B26178  22.953  22.719  14.826  0.0901 -0.1590 -0.2120
 2231DOPE   C3B26179  22.656  22.783  14.566  0.1904 -0.0024  0.2666
 2231DOPE   C4B26180  22.277  23.052  14.373 -0.0889  0.1244  0.1308
 2232DOPC   NC326181  18.386  25.507  15.990 -0.3598 -0.1522 -0.0484
 2232DOPC   PO426182  18.090  25.738  16.103  0.0698  0.3392  0.1122
 2232DOPC   GL126183  18.169  25.736  15.624 -0.2162 -0.2317  0.0695
 2232DOPC   GL226184  17.915  25.935  15.564 -0.3059  0.0737 -0.2189
 2232DOPC   C1A26185  18.308  25.780  15.174 -0.1837 -0.0522 -0.1061
 2232DOPC   D2A26186  18.123  25.612  14.805 -0.0291 -0.2947 -0.0789
 2232DOPC   C3A26187  18.246  25.208  14.593 -0.4585 -0.1939  0.1331
 2232DOPC   C4A26188  18.471  24.979  14.279 -0.3146  0.1298 -0.0947
 2232DOPC   C1B26189  17.603  25.814  15.207  0.1309 -0.2346  0.0077
 2232DOPC   D2B26190  17.229  25.516  15.168  0.1740  0.1503  0.0900
 2232DOPC   C3B26191  16.940  25.710  14.860  0.0827 -0.0225  0.1441
 2232DOPC   C4B26192  16.522  25.546  14.724  0.0502 -0.3135 -0.0837
 2233DOPS   CNO26193  22.127  29.865  15.606 -0.1207  0.2744  0.3596
 2233DOPS   PO426194  21.875  29.594  15.667 -0.0904 -0.2430 -0.1131
 2233DOPS   GL126195  22.084  29.320  15.407 -0.3308 -0.2540 -0.0820
 2233DOPS   GL226196  22.017  29.577  15.206  0.1208 -0.0407  0.1132
 2233DOPS   C1A26197  22.421  29.172  15.111 -0.0040  0.2509  0.2181
 2233DOPS   D2A26198  22.729  28.837  15.115 -0.1164 -0.1328 -0.1385
 2233DOPS   C3A26199  22.684  28.561  14.751 -0.1257 -0.1402  0.4382
 2233DOPS   C4A26200  22.706  28.080  14.613  0.3523  0.2653 -0.0580
 2233DOPS   C1B26201  22.038  29.951  14.955  0.2047  0.2114  0.2074
 2233DOPS   D2B26202  22.039  30.017  14.508 -0.4611  0.0943 -0.1051
 2233DOPS   C3B26203  22.417  29.869  14.293  0.0686  0.2333 -0.0837
 2233DOPS   C4B26204  22.540  29.822  13.856  0.0051 -0.1022 -0.1189
 2234DOPE   NH326205  14.553  33.210  15.226  0.0758 -0.1928 -0.0363
 2234DOPE   PO426206  14.802  32.999  15.151 -0.4168  0.2640 -0.3180
 2234DOPE   GL126207  14.823  33.072  14.804  0.0808  0.0408  0.1995
 2234DOPE   GL226208  15.023  32.835  14.675 -0.1682  0.0931  0.2350
 2234DOPE   C1A26209  14.860  33.164  14.338  0.4915 -0.2089 -0.0928
 2234DOPE   D2A26210  15.207  33.048  14.012 -0.0336  0.3178  0.3002
 2234DOPE   C3A26211  15.185  32.735  13.667  0.2237  0.0917 -0.0994
 2234DOPE   C4A26212  15.507  32.472  13.579  0.0307  0.0332 -0.3589
 2234DOPE   C1B26213  14.990  32.606  14.268  0.0746  0.1596  0.0405
 2234DOPE   D2B26214  14.893  32.345  13.899 -0.1435 -0.0346  0.0069
 2234DOPE   C3B26215  14.558  32.098  13.963 -0.0816  0.2995  0.3295
 2234DOPE   C4B26216  14.270  31.781  13.988  0.1201  0.2246  0.2009
 2235DOPE   NH326217  19.860  31.327  16.152  0.0687  0.2847  0.0068
 2235DOPE   PO426218  20.124  31.435  15.971 -0.1281 -0.1229 -0.3670
 2235DOPE   GL126219  20.206  31.342  15.634 -0.0032 -0.0929 -0.1254
 2235DOPE   GL226220  20.085  31.035  15.654  0.0541 -0.0631 -0.0971
 2235DOPE   C1A26221  20.328  31.137  15.225  0.1440 -0.0541  0.1137
 2235DOPE   D2A26222  20.239  30.789  14.981 -0.1193 -0.0317 -0.0979
 2235DOPE   C3A26223  20.501  30.969  14.609 -0.0751 -0.0515  0.4338
 2235DOPE   C4A26224  20.237  30.876  14.258 -0.2114  0.0494  0.2001
 2235DOPE   C1B26225  19.888  30.846  15.307  0.0589  0.4070 -0.2636
 2235DOPE   D2B26226  19.810  30.562  14.967 -0.1368 -0.0196 -0.2988
 2235DOPE   C3B26227  19.862  30.760  14.562  0.0785 -0.2766 -0.3172
 2235DOPE   C4B26228  19.694  30.876  14.133  0.2691  0.0108 -0.0929
 2236DOPE   NH326229  18.199  28.013  16.684  0.0415  0.3964 -0.0908
 2236DOPE   PO426230  18.429  28.088  16.469 -0.0126 -0.2277  0.0626
 2236DOPE   GL126231  18.222  28.014  16.052 -0.1738 -0.2333 -0.3878
 2236DOPE   GL226232  18.206  28.309  15.954 -0.1679  0.0639 -0.1497
 2236DOPE   C1A26233  18.387  27.869  15.686 -0.0896  0.0306  0.3492
 2236DOPE   D2A26234  18.308  27.681  15.294  0.1185  0.1300  0.3440
 2236DOPE   C3A26235  18.617  27.506  15.018  0.2202 -0.0728  0.2061
 2236DOPE   C4A26236  18.644  27.548  14.574  0.2081  0.0349  0.4084
 2236DOPE   C1B26237  18.437  28.333  15.548  0.1430 -0.1425  0.4412
 2236DOPE   D2B26238  18.607  28.473  15.161 -0.0734  0.1140  0.0820
 2236DOPE   C3B26239  18.765  28.433  14.761  0.1423  0.0737 -0.1313
 2236DOPE   C4B26240  19.173  28.543  14.553 -0.1428 -0.1461 -0.0248
 2237DOPC   NC326241  21.950  33.218  16.060  0.2092  0.1171 -0.0326
 2237DOPC   PO426242  22.114  33.517  15.893  0.1879  0.2293 -0.1290
 2237DOPC   GL126243  22.426  33.630  15.473  0.1819  0.0261 -0.0150
 2237DOPC   GL226244  22.348  33.938  15.573 -0.2744 -0.1501  0.0768
 2237DOPC   C1A26245  22.874  33.466  15.282 -0.0138 -0.1100 -0.0057
 2237DOPC   D2A26246  23.135  33.328  14.911 -0.2224  0.1810  0.1341
 2237DOPC   C3A26247  23.347  33.571  14.567 -0.3977 -0.2092 -0.1086
 2237DOPC   C4A26248  23.827  33.757  14.651 -0.0324  0.0468 -0.0408
 2237DOPC   C1B26249  22.634  33.884  15.171 -0.3149 -0.0931  0.0665
 2237DOPC   D2B26250  22.974  33.811  14.849  0.1692  0.1382  0.0761
 2237DOPC   C3B26251  22.847  33.529  14.520 -0.1267 -0.1303 -0.1620
 2237DOPC   C4B26252  22.664  33.157  14.377 -0.1408 -0.0201 -0.2422
 2238POSM   NC326253  13.167  29.199  16.322  0.3396  0.0829 -0.2089
 2238POSM   PO426254  13.365  29.437  16.065 -0.2147 -0.2862  0.2628
 2238POSM   AM126255  13.368  29.371  15.685  0.0780  0.2075 -0.1796
 2238POSM   AM226256  13.215  29.402  15.463 -0.0275  0.4651 -0.1012
 2238POSM   T1A26257  13.656  29.388  15.253  0.1363 -0.1643  0.0480
 2238POSM   C2A26258  13.679  29.499  14.801 -0.1245 -0.0703 -0.0359
 2238POSM   C3A26259  13.618  29.267  14.429 -0.3296 -0.0746  0.0081
 2238POSM   C1B26260  13.109  29.071  15.351  0.0294  0.0954  0.2993
 2238POSM   D2B26261  12.832  28.714  15.481  0.2603 -0.0585 -0.0287
 2238POSM   C3B26262  12.928  28.290  15.284 -0.1075  0.2918 -0.0505
 2238POSM   C4B26263  13.215  28.046  15.110 -0.5144  0.1793 -0.0379
 2239POSM   NC326264  11.913  33.035  14.996  0.1026 -0.2074 -0.2282
 2239POSM   PO426265  11.716  32.727  15.151  0.2176 -0.0782 -0.0028
 2239POSM   AM126266  11.489  32.767  14.957  0.0347  0.1419 -0.1503
 2239POSM   AM226267  11.475  32.739  14.657  0.3558 -0.0274  0.2015
 2239POSM   T1A26268  11.093  33.039  14.692  0.1176 -0.0213  0.1170
 2239POSM   C2A26269  10.870  33.376  14.395 -0.3635 -0.0829 -0.0737
 2239POSM   C3A26270  10.824  33.431  13.967 -0.0072 -0.0899  0.2298
 2239POSM   C1B26271  11.384  32.761  14.358 -0.2037 -0.1271 -0.1136
 2239POSM   D2B26272  11.033  32.811  14.057  0.2747 -0.1067  0.0488
 2239POSM   C3B26273  11.303  32.937  13.701 -0.3241 -0.1901  0.1922
 2239POSM   C4B26274  11.482  32.911  13.227  0.2400  0.2976 -0.2157
 2240DOPC   NC326275  16.515  27.905  15.852 -0.1952  0.1061 -0.2461
 2240DOPC   PO426276  16.663  27.552  16.025  0.3316  0.0743 -0.0327
 2240DOPC   GL126277  16.438  27.282  15.820 -0.3014 -0.3374  0.0511
 2240DOPC   GL226278  16.339  27.442  15.611 -0.0715 -0.0620 -0.1421
 2240DOPC   C1A26279  16.610  27.140  15.425  0.0343 -0.1778 -0.2030
 2240DOPC   D2A26280  16.419  26.794  15.209 -0.2657  0.4734  0.2099
 2240DOPC   C3A26281  16.688  26.753  14.806 -0.1480 -0.1855  0.0985
 2240DOPC   C4A26282  16.888  26.825  14.440 -0.2525  0.0406 -0.0193
 2240DOPC   C1B26283  16.550  27.717  15.277  0.4842 -0.1447  0.0000
 2240DOPC   D2B26284  16.873  27.892  14.974  0.0025  0.0381  0.1148
 2240DOPC   C3B26285  17.021  27.873  14.517 -0.0594  0.4236 -0.1818
 2240DOPC   C4B26286  16.835  27.706  14.168  0.0486 -0.0453 -0.1096
 2241DOPC   NC326287  18.937  27.343  16.096 -0.1888  0.1059 -0.0809
 2241DOPC   PO426288  19.044  27.531  16.373 -0.1534 -0.0252  0.0935
 2241DOPC   GL126289  19.259  27.744  16.040  0.0037 -0.0433 -0.2061
 2241DOPC   GL226290  19.158  27.987  16.085 -0.2882 -0.1190 -0.1269
 2241DOPC   C1A26291  19.324  27.995  15.611  0.0072 -0.2135  0.1393
 2241DOPC   D2A26292  19.588  28.367  15.372  0.0453  0.0129 -0.0594
 2241DOPC   C3A26293  19.509  28.547  14.966  0.2008  0.1281 -0.4787
 2241DOPC   C4A26294  19.487  28.955  14.695 -0.0609  0.1193 -0.1327
 2241DOPC   C1B26295  18.910  27.790  15.692  0.0072 -0.1780  0.0196
 2241DOPC   D2B26296  18.773  27.900  15.284 -0.0158 -0.0320  0.0519
 2241DOPC   C3B26297  19.009  27.840  14.885 -0.0204  0.3187  0.1222
 2241DOPC   C4B26298  19.265  28.024  14.589 -0.0626  0.0446  0.0444
 2242DOPS   CNO26299  12.208  31.431  15.522  0.0018  0.0853  0.2257
 2242DOPS   PO426300  12.265  31.666  15.264  0.1012 -0.0971 -0.0451
 2242DOPS   GL126301  12.324  31.613  14.852 -0.0958  0.0896 -0.1193
 2242DOPS   GL226302  12.203  31.749  14.621  0.3769 -0.1413 -0.1554
 2242DOPS   C1A26303  12.692  31.677  14.591 -0.2231  0.4044 -0.1787
 2242DOPS   D2A26304  12.883  31.920  14.268  0.3248 -0.0985  0.0474
 2242DOPS   C3A26305  12.994  32.221  13.906 -0.2306  0.0515  0.0591
 2242DOPS   C4A26306  13.058  32.624  13.705 -0.0427 -0.0409 -0.1564
 2242DOPS   C1B26307  12.401  31.773  14.220 -0.0022  0.3040 -0.2526
 2242DOPS   D2B26308  12.608  31.592  13.803 -0.1907  0.2660 -0.0084
 2242DOPS   C3B26309  12.971  31.410  13.727 -0.0382  0.1674  0.0190
 2242DOPS   C4B26310  13.239  31.042  13.672 -0.2420  0.6658  0.0627
 2243DOPE   NH326311  19.496  23.790  15.721 -0.3239  0.1589 -0.0594
 2243DOPE   PO426312  19.318  24.095  15.761  0.3066 -0.2598  0.2328
 2243DOPE   GL126313  18.985  24.046  15.588 -0.2590  0.0440  0.2091
 2243DOPE   GL226314  18.787  24.226  15.574  0.0985 -0.0001 -0.0388
 2243DOPE   C1A26315  18.949  24.065  15.126 -0.3422 -0.0786 -0.2774
 2243DOPE   D2A26316  18.829  24.090  14.662  0.0065 -0.3158 -0.0314
 2243DOPE   C3A26317  18.848  24.013  14.166  0.0443 -0.1268  0.0426
 2243DOPE   C4A26318  19.059  23.963  13.722 -0.0232  0.2789 -0.0548
 2243DOPE   C1B26319  18.743  24.476  15.219  0.2438  0.4818 -0.1888
 2243DOPE   D2B26320  18.999  24.614  14.835 -0.1508 -0.0794 -0.0060
 2243DOPE   C3B26321  19.359  24.316  14.875 -0.0004 -0.2452  0.1112
 2243DOPE   C4B26322  19.804  24.071  14.863 -0.2689  0.1008  0.0519
 2244DOPS   CNO26323  20.732  28.553  16.196 -0.2316  0.0690 -0.1920
 2244DOPS   PO426324  20.755  28.311  15.919  0.3771 -0.1732  0.0889
 2244DOPS   GL126325  20.865  28.434  15.467 -0.2696 -0.4323  0.0743
 2244DOPS   GL226326  20.599  28.540  15.353 -0.0377 -0.0720  0.1111
 2244DOPS   C1A26327  21.108  28.779  15.346 -0.1885 -0.1636  0.2528
 2244DOPS   D2A26328  21.118  29.020  14.943 -0.1312 -0.3660 -0.0261
 2244DOPS   C3A26329  21.222  28.855  14.500 -0.1881  0.3050  0.0559
 2244DOPS   C4A26330  21.425  28.679  14.157 -0.1661 -0.1481 -0.0713
 2244DOPS   C1B26331  20.463  28.200  15.130  0.0254  0.2283  0.1648
 2244DOPS   D2B26332  20.639  27.790  15.260 -0.3678  0.1801 -0.3268
 2244DOPS   C3B26333  20.715  27.534  14.894 -0.0222  0.3163  0.2456
 2244DOPS   C4B26334  20.422  27.508  14.548 -0.0160 -0.1612 -0.4820
 2245DOPE   NH326335  21.226  23.670  12.038 -0.0629 -0.2103 -0.1936
 2245DOPE   PO426336  21.264  23.960  12.012  0.0262 -0.0653 -0.0056
 2245DOPE   GL126337  21.586  24.267  12.067  0.3121 -0.0223  0.4002
 2245DOPE   GL226338  21.630  24.393  12.310 -0.1909  0.2078 -0.0082
 2245DOPE   C1A26339  21.866  24.551  11.828  0.0716  0.2201  0.1745
 2245DOPE   D2A26340  22.308  24.765  11.897 -0.0989  0.2500  0.2773
 2245DOPE   C3A26341  22.669  24.681  11.670  0.1042  0.0133  0.0512
 2245DOPE   C4A26342  23.068  24.457  11.670 -0.1380  0.2496  0.2647
 2245DOPE   C1B26343  21.974  24.741  12.323  0.1200  0.1090 -0.0829
 2245DOPE   D2B26344  22.099  25.166  12.317 -0.2365 -0.2044  0.0963
 2245DOPE   C3B26345  21.860  25.524  12.522 -0.2275  0.1121  0.0808
 2245DOPE   C4B26346  21.605  25.880  12.322 -0.1443  0.0618 -0.0492
 2246DOPS   CNO26347  13.201  27.152  12.283 -0.1854  0.2194 -0.0633
 2246DOPS   PO426348  13.582  27.123  12.258  0.0012 -0.3122  0.1743
 2246DOPS   GL126349  13.707  27.039  12.593  0.0233 -0.0575  0.2578
 2246DOPS   GL226350  13.513  27.161  12.765  0.2425 -0.1106  0.2244
 2246DOPS   C1A26351  13.921  26.738  12.894  0.1561 -0.0133 -0.1741
 2246DOPS   D2A26352  13.947  26.351  13.164 -0.2084  0.2158 -0.0089
 2246DOPS   C3A26353  13.602  26.312  13.428  0.0736 -0.0042  0.0833
 2246DOPS   C4A26354  13.171  26.153  13.676  0.1151 -0.0916  0.1417
 2246DOPS   C1B26355  13.371  26.741  12.770 -0.5114 -0.1258 -0.1864
 2246DOPS   D2B26356  13.284  26.387  13.037  0.3508  0.3244  0.2725
 2246DOPS   C3B26357  12.923  26.190  13.231 -0.5721  0.3771  0.1140
 2246DOPS   C4B26358  12.675  26.152  13.592 -0.2767  0.0478 -0.0509
 2247DOPE   NH326359  20.911  24.388  12.115  0.2536  0.4191 -0.0080
 2247DOPE   PO426360  21.124  24.314  12.342  0.0153  0.0822  0.0324
 2247DOPE   GL126361  20.845  24.599  12.478  0.1654  0.2170 -0.2191
 2247DOPE   GL226362  20.764  24.525  12.730  0.3962  0.0619  0.1710
 2247DOPE   C1A26363  20.765  25.058  12.498 -0.0067  0.1445  0.0663
 2247DOPE   D2A26364  20.805  25.518  12.497  0.1962 -0.3807 -0.1470
 2247DOPE   C3A26365  20.451  25.813  12.438  0.1050 -0.0400 -0.2182
 2247DOPE   C4A26366  20.007  25.885  12.288  0.0387 -0.0690 -0.0376
 2247DOPE   C1B26367  20.920  24.860  12.944  0.3964  0.1461 -0.0369
 2247DOPE   D2B26368  21.196  25.154  12.782 -0.1614  0.1662 -0.2223
 2247DOPE   C3B26369  21.423  25.345  13.132 -0.0271 -0.0640 -0.1356
 2247DOPE   C4B26370  21.792  25.288  13.363  0.0793 -0.0580 -0.4497
 2248DOPE   NH326371  21.416  23.929  12.583  0.2247 -0.3036 -0.0706
 2248DOPE   PO426372  21.248  23.669  12.671  0.1622  0.0060  0.0750
 2248DOPE   GL126373  21.287  23.832  13.033 -0.2204  0.4387 -0.3859
 2248DOPE   GL226374  21.157  24.104  12.992  0.4688 -0.1737  0.6458
 2248DOPE   C1A26375  21.323  23.979  13.464 -0.0482 -0.3389 -0.1824
 2248DOPE   D2A26376  21.318  24.115  13.864  0.0859 -0.1623  0.2283
 2248DOPE   C3A26377  21.064  24.403  14.179  0.2113 -0.3542  0.4704
 2248DOPE   C4A26378  20.652  24.586  14.257  0.0932 -0.0988  0.2284
 2248DOPE   C1B26379  21.493  24.419  12.885  0.1779  0.1712  0.0178
 2248DOPE   D2B26380  21.925  24.535  13.009 -0.3894  0.2661  0.1678
 2248DOPE   C3B26381  21.874  24.648  13.476  0.3633 -0.0195  0.1002
 2248DOPE   C4B26382  21.839  24.974  13.833 -0.0421 -0.2259 -0.2368
 2249DOPC   NC326383  21.311  24.799  12.415 -0.1277  0.0950  0.0331
 2249DOPC   PO426384  21.344  24.825  12.045  0.0651 -0.0377 -0.0937
 2249DOPC   GL126385  21.634  25.137  12.353 -0.2890 -0.0598 -0.2127
 2249DOPC   GL226386  21.450  25.375  12.410  0.1021  0.1501 -0.3479
 2249DOPC   C1A26387  21.689  24.952  12.752  0.1205 -0.0791 -0.0951
 2249DOPC   D2A26388  21.530  24.843  13.214  0.1564  0.0550  0.0797
 2249DOPC   C3A26389  21.488  24.407  13.386  0.2148  0.1362  0.1177
 2249DOPC   C4A26390  21.699  24.045  13.162 -0.3104 -0.3452 -0.3352
 2249DOPC   C1B26391  21.347  25.653  12.716 -0.0315 -0.2803  0.4349
 2249DOPC   D2B26392  21.328  25.876  13.147 -0.2725 -0.3910  0.0852
 2249DOPC   C3B26393  21.198  26.288  13.101  0.0063 -0.0856 -0.0196
 2249DOPC   C4B26394  21.192  26.771  13.098 -0.1823  0.1987 -0.1469
 2250DOPC   NC326395  13.590  30.338  12.547 -0.1300  0.0166  0.3629
 2250DOPC   PO426396  13.579  30.504  12.207 -0.3757  0.1973 -0.1397
 2250DOPC   GL126397  13.652  30.787  12.413 -0.1545 -0.0529 -0.0667
 2250DOPC   GL226398  13.382  30.802  12.566  0.4467  0.2934 -0.1060
 2250DOPC   C1A26399  13.747  31.195  12.562 -0.2540  0.2110  0.1521
 2250DOPC   D2A26400  13.777  31.462  12.913  0.0258  0.0977 -0.2082
 2250DOPC   C3A26401  13.766  31.359  13.398 -0.0875 -0.1098  0.3638
 2250DOPC   C4A26402  13.920  31.714  13.626 -0.0177 -0.0753 -0.1005
 2250DOPC   C1B26403  13.707  30.742  12.833  0.1982 -0.3251 -0.0772
 2250DOPC   D2B26404  14.052  30.478  12.814  0.0162  0.0074 -0.1045
 2250DOPC   C3B26405  14.129  30.181  12.490  0.0539 -0.2983  0.1302
 2250DOPC   C4B26406  14.279  29.856  12.172 -0.0343 -0.0032 -0.1705
 2251DOPE   NH326407  12.216  30.389  11.524  0.3115  0.1569  0.0069
 2251DOPE   PO426408  12.274  30.592  11.251 -0.0626  0.0380 -0.1268
 2251DOPE   GL126409  11.971  30.769  11.358 -0.2996  0.3812 -0.1859
 2251DOPE   GL226410  11.943  30.838  11.661 -0.0141 -0.0412 -0.4874
 2251DOPE   C1A26411  11.539  30.892  11.369 -0.3716 -0.2596  0.3293
 2251DOPE   D2A26412  11.383  30.745  11.732 -0.0968 -0.0449  0.0050
 2251DOPE   C3A26413  11.208  31.052  11.999  0.1576  0.1107 -0.0549
 2251DOPE   C4A26414  10.798  31.156  12.206 -0.0871 -0.1747  0.1803
 2251DOPE   C1B26415  11.697  31.240  11.666  0.2034 -0.0156  0.0346
 2251DOPE   D2B26416  11.647  31.688  11.737  0.0280  0.5452 -0.2272
 2251DOPE   C3B26417  11.198  31.557  11.792  0.2985  0.0898 -0.0988
 2251DOPE   C4B26418  10.752  31.591  11.738  0.0728 -0.1935 -0.0671
 2252DOPE   NH326419  22.955  32.614  12.218  0.2177 -0.3082 -0.0704
 2252DOPE   PO426420  22.811  32.449  12.493  0.0495 -0.0022 -0.0545
 2252DOPE   GL126421  22.882  32.516  12.919 -0.0576 -0.2600 -0.0442
 2252DOPE   GL226422  22.783  32.292  12.998 -0.0735  0.3496 -0.3358
 2252DOPE   C1A26423  23.211  32.420  13.210  0.0657  0.1304 -0.0077
 2252DOPE   D2A26424  23.483  32.433  13.621  0.0718  0.0802  0.1096
 2252DOPE   C3A26425  23.883  32.146  13.545  0.0838 -0.2119 -0.1374
 2252DOPE   C4A26426  24.039  31.803  13.234 -0.0540  0.0280  0.1242
 2252DOPE   C1B26427  22.398  32.379  13.207 -0.0641 -0.0700 -0.1006
 2252DOPE   D2B26428  22.293  32.309  13.631 -0.1736  0.2593  0.1738
 2252DOPE   C3B26429  22.163  32.700  13.802 -0.2130 -0.0667 -0.0129
 2252DOPE   C4B26430  22.042  33.115  13.775  0.1136  0.0082 -0.3310
 2253DOPE   NH326431  18.593  27.302  12.409 -0.1951  0.1669  0.0971
 2253DOPE   PO426432  18.509  27.606  12.485 -0.4087  0.1263 -0.2458
 2253DOPE   GL126433  18.402  28.016  12.610 -0.3729  0.0066 -0.0193
 2253DOPE   GL226434  18.635  27.940  12.796 -0.0490  0.1436 -0.0074
 2253DOPE   C1A26435  18.113  28.340  12.486  0.3441  0.2177  0.0374
 2253DOPE   D2A26436  18.155  28.769  12.595  0.0871 -0.1158  0.1563
 2253DOPE   C3A26437  18.224  28.811  13.047  0.1301 -0.0741 -0.0033
 2253DOPE   C4A26438  18.518  28.730  13.372 -0.2911  0.0626 -0.0620
 2253DOPE   C1B26439  18.707  27.972  13.244 -0.1859 -0.1064 -0.2168
 2253DOPE   D2B26440  18.826  28.146  13.628  0.3069  0.3421  0.1816
 2253DOPE   C3B26441  18.422  28.245  13.891  0.0544 -0.1382  0.0266
 2253DOPE   C4B26442  17.932  28.223  13.961 -0.2970  0.4299  0.1840
 2254POSM   NC326443  12.705  30.297  11.583 -0.1673 -0.2694  0.0206
 2254POSM   PO426444  12.696  30.618  11.789 -0.4328 -0.1344 -0.5043
 2254POSM   AM126445  12.618  30.722  12.129  0.0792 -0.0220  0.2207
 2254POSM   AM226446  12.470  30.943  12.206  0.1825  0.0815 -0.0561
 2254POSM   T1A26447  12.852  30.935  12.480 -0.1524 -0.0245  0.0676
 2254POSM   C2A26448  13.017  30.997  12.854  0.1735 -0.0359  0.0308
 2254POSM   C3A26449  13.435  31.043  13.135  0.1472 -0.2712 -0.2656
 2254POSM   C1B26450  12.385  31.143  12.460 -0.1551  0.1443  0.3044
 2254POSM   D2B26451  12.616  31.352  12.801  0.0713  0.1878  0.4402
 2254POSM   C3B26452  12.719  31.685  13.096 -0.0855 -0.0603 -0.1043
 2254POSM   C4B26453  12.909  31.895  13.468  0.1156 -0.1634 -0.0514
 2255DOPE   NH326454  16.083  30.891  12.445 -0.1503  0.1587 -0.0500
 2255DOPE   PO426455  15.965  30.555  12.455  0.1463 -0.3188 -0.2470
 2255DOPE   GL126456  15.749  30.694  12.817 -0.2431 -0.0060 -0.0294
 2255DOPE   GL226457  15.531  30.586  12.856 -0.0321  0.0838 -0.1309
 2255DOPE   C1A26458  15.778  30.814  13.270  0.1448  0.0761 -0.0014
 2255DOPE   D2A26459  15.936  31.060  13.641  0.3012  0.2610 -0.1294
 2255DOPE   C3A26460  15.908  30.904  14.097  0.1907 -0.0084 -0.2823
 2255DOPE   C4A26461  16.025  30.944  14.527 -0.2097 -0.1612  0.1999
 2255DOPE   C1B26462  15.820  30.327  13.107  0.2376 -0.1929  0.2047
 2255DOPE   D2B26463  15.660  30.153  13.434 -0.3346 -0.0069 -0.4363
 2255DOPE   C3B26464  15.658  30.416  13.783 -0.0229  0.2762  0.0178
 2255DOPE   C4B26465  15.375  30.676  14.021  0.1517  0.0797 -0.1688
 2256POSM   NC326466  19.074  30.469  12.280  0.0144  0.0507  0.1702
 2256POSM   PO426467  19.202  30.479  12.652  0.0016  0.0810 -0.1503
 2256POSM   AM126468  19.226  30.470  12.987  0.1885  0.0511 -0.0255
 2256POSM   AM226469  19.358  30.252  13.108  0.0323 -0.0065 -0.1003
 2256POSM   T1A26470  19.233  30.663  13.492  0.1635  0.2769  0.0447
 2256POSM   C2A26471  18.920  30.603  13.791  0.0794  0.3820  0.1604
 2256POSM   C3A26472  18.554  30.605  14.088 -0.3079  0.0358  0.3398
 2256POSM   C1B26473  19.316  30.155  13.408 -0.2338  0.2506  0.1631
 2256POSM   D2B26474  19.379  29.813  13.729 -0.1358 -0.3291 -0.1041
 2256POSM   C3B26475  19.017  29.607  13.922 -0.2578  0.1687 -0.2607
 2256POSM   C4B26476  18.719  29.393  14.222 -0.0677 -0.1689  0.0444
 2257POSM   NC326477  12.433  23.068  12.722  0.0242 -0.4005  0.0012
 2257POSM   PO426478  12.279  23.348  12.465  0.1766 -0.0991 -0.1246
 2257POSM   AM126479  12.230  23.591  12.721  0.0953  0.0389  0.2376
 2257POSM   AM226480  12.248  23.690  13.005  0.0026 -0.1452  0.2939
 2257POSM   T1A26481  12.076  24.047  12.748 -0.0137  0.3770 -0.2031
 2257POSM   C2A26482  12.049  24.495  12.597 -0.2434  0.0508  0.0221
 2257POSM   C3A26483  12.106  24.907  12.433 -0.0453 -0.1258 -0.1986
 2257POSM   C1B26484  12.179  23.767  13.293 -0.1907  0.1843  0.2405
 2257POSM   D2B26485  12.297  23.937  13.722  0.1559 -0.4361 -0.1272
 2257POSM   C3B26486  12.228  23.878  14.170  0.2545  0.0463  0.1631
 2257POSM   C4B26487  12.117  23.661  14.539 -0.2230  0.1255  0.1910
 2258DOPC   NC326488  22.449  31.546  12.210  0.0576  0.3639 -0.0436
 2258DOPC   PO426489  22.379  31.735  11.876 -0.2102  0.1289 -0.1089
 2258DOPC   GL126490  22.033  31.832  12.083  0.1701 -0.1126  0.1465
 2258DOPC   GL226491  21.947  31.647  12.180 -0.2092  0.0613  0.0236
 2258DOPC   C1A26492  21.653  31.758  11.815  0.1458  0.1892  0.0512
 2258DOPC   D2A26493  21.258  31.549  11.770  0.0860 -0.2428  0.0595
 2258DOPC   C3A26494  20.965  31.782  11.986 -0.2742  0.1799  0.0436
 2258DOPC   C4A26495  20.976  32.271  11.874 -0.3613  0.3293  0.0460
 2258DOPC   C1B26496  21.656  31.989  12.284  0.0003 -0.1687 -0.1694
 2258DOPC   D2B26497  21.225  32.171  12.340  0.0273 -0.0448  0.1031
 2258DOPC   C3B26498  20.918  32.075  12.684  0.3647  0.0934 -0.3056
 2258DOPC   C4B26499  20.509  32.017  12.904 -0.0024 -0.2510 -0.4259
 2259DOPC   NC326500  19.061  31.658  12.092  0.1295 -0.1307 -0.2299
 2259DOPC   PO426501  19.296  31.318  12.091  0.1812  0.0184  0.3038
 2259DOPC   GL126502  19.484  31.477  12.425  0.0190  0.1063 -0.0682
 2259DOPC   GL226503  19.340  31.666  12.542 -0.1177 -0.0124  0.2147
 2259DOPC   C1A26504  19.860  31.455  12.782  0.0659  0.0159  0.2767
 2259DOPC   D2A26505  20.154  31.483  13.114  0.0163  0.0538 -0.1774
 2259DOPC   C3A26506  20.055  31.411  13.561  0.0332 -0.0120 -0.1255
 2259DOPC   C4A26507  20.017  31.016  13.769 -0.0558 -0.1314 -0.0453
 2259DOPC   C1B26508  19.147  32.102  12.503  0.1890  0.1834 -0.0713
 2259DOPC   D2B26509  19.044  32.549  12.653 -0.2059  0.0903  0.0600
 2259DOPC   C3B26510  19.276  32.367  12.984  0.0255  0.4505 -0.3182
 2259DOPC   C4B26511  19.597  32.395  13.286 -0.1730  0.2826 -0.0003
 2260DOPC   NC326512  15.119  28.181  12.462  0.3556  0.0107  0.0926
 2260DOPC   PO426513  15.315  28.399  12.205  0.0880  0.1084  0.0786
 2260DOPC   GL126514  15.564  28.261  12.645 -0.2500  0.0011  0.0142
 2260DOPC   GL226515  15.880  28.197  12.623  0.2581  0.1429  0.0110
 2260DOPC   C1A26516  15.507  28.034  13.050 -0.1447  0.0028  0.0964
 2260DOPC   D2A26517  15.628  28.340  13.464 -0.2447 -0.0179  0.0445
 2260DOPC   C3A26518  15.602  28.062  13.833 -0.2261 -0.1683  0.1415
 2260DOPC   C4A26519  15.510  27.913  14.254 -0.0753  0.0849 -0.0606
 2260DOPC   C1B26520  16.257  28.003  12.776  0.2233 -0.0682 -0.1529
 2260DOPC   D2B26521  16.573  27.762  12.992 -0.0818 -0.1070 -0.1747
 2260DOPC   C3B26522  16.360  27.831  13.394 -0.0102  0.3863  0.0767
 2260DOPC   C4B26523  16.440  27.584  13.799 -0.0857  0.2125  0.3082
 2261DOPE   NH326524  19.404  23.920  12.239 -0.3510  0.0906 -0.1382
 2261DOPE   PO426525  19.198  23.718  12.407 -0.1403 -0.1474  0.0935
 2261DOPE   GL126526  18.937  23.886  12.663 -0.2150 -0.0330 -0.0129
 2261DOPE   GL226527  18.808  23.615  12.699  0.4593 -0.2407  0.2989
 2261DOPE   C1A26528  18.635  23.962  13.060 -0.4201  0.0057 -0.0328
 2261DOPE   D2A26529  18.275  23.799  13.327  0.1649  0.4303 -0.0035
 2261DOPE   C3A26530  17.842  23.842  13.425 -0.0869  0.0791 -0.1070
 2261DOPE   C4A26531  17.489  23.639  13.665 -0.0375  0.2470  0.1860
 2261DOPE   C1B26532  18.797  23.493  13.097  0.1705 -0.0743 -0.0856
 2261DOPE   D2B26533  18.754  23.636  13.486  0.1742  0.0836  0.0128
 2261DOPE   C3B26534  18.709  23.426  13.907  0.0134 -0.0460  0.2548
 2261DOPE   C4B26535  18.621  23.034  14.188  0.0415  0.1795  0.0318
 2262POSM   NC326536  18.631  22.806  12.047 -0.2648  0.0182  0.1587
 2262POSM   PO426537  18.226  22.932  12.108 -0.1349 -0.1192  0.1736
 2262POSM   AM126538  18.169  22.887  12.387 -0.1229 -0.1002  0.3203
 2262POSM   AM226539  18.155  23.044  12.644  0.1299  0.0329  0.2063
 2262POSM   T1A26540  17.825  22.607  12.620  0.1205 -0.2217  0.2029
 2262POSM   C2A26541  17.402  22.631  12.659 -0.0290 -0.0169  0.4110
 2262POSM   C3A26542  16.986  22.803  12.808  0.2082 -0.0525 -0.3072
 2262POSM   C1B26543  18.185  22.905  12.949  0.1462  0.1178 -0.0157
 2262POSM   D2B26544  18.040  22.773  13.334 -0.1876  0.1876 -0.0312
 2262POSM   C3B26545  17.643  22.740  13.573  0.0918 -0.1813 -0.3622
 2262POSM   C4B26546  17.581  22.677  13.997  0.0286 -0.1212  0.1249
 2263DOPE   NH326547  12.484  31.040  11.291 -0.0517 -0.0497 -0.1374
 2263DOPE   PO426548  12.446  30.974  11.578  0.0566  0.0781 -0.1841
 2263DOPE   GL126549  12.585  31.221  11.784  0.3360 -0.4575  0.0070
 2263DOPE   GL226550  12.834  31.094  11.905 -0.0906  0.0214 -0.0092
 2263DOPE   C1A26551  12.709  31.650  11.874 -0.0238 -0.0005  0.1524
 2263DOPE   D2A26552  12.585  32.054  12.116 -0.2809  0.2235  0.0904
 2263DOPE   C3A26553  12.650  32.145  12.598  0.0571 -0.3259 -0.3016
 2263DOPE   C4A26554  12.572  32.216  13.018  0.1006  0.1751 -0.1744
 2263DOPE   C1B26555  12.754  31.370  12.225  0.4017  0.1417  0.2644
 2263DOPE   D2B26556  12.481  31.652  12.478  0.1908 -0.2881  0.0137
 2263DOPE   C3B26557  11.999  31.721  12.498  0.0102  0.1996 -0.1298
 2263DOPE   C4B26558  11.691  31.532  12.722 -0.0996 -0.0020  0.2872
 2264DOPC   NC326559  20.760  23.556  12.633  0.1429 -0.0000  0.0987
 2264DOPC   PO426560  20.931  23.383  12.292 -0.0475  0.4669  0.2070
 2264DOPC   GL126561  21.063  23.190  12.553  0.1013 -0.2145 -0.0068
 2264DOPC   GL226562  21.119  23.211  12.829  0.0387 -0.0589  0.3260
 2264DOPC   C1A26563  21.313  22.792  12.595  0.1397 -0.2063 -0.1394
 2264DOPC   D2A26564  21.317  22.438  12.906 -0.0267  0.0662  0.1761
 2264DOPC   C3A26565  21.232  22.130  13.249  0.2673 -0.0398  0.0114
 2264DOPC   C4A26566  21.084  22.175  13.667 -0.1495 -0.0604 -0.1689
 2264DOPC   C1B26567  21.011  22.833  12.992  0.0779  0.0558  0.0456
 2264DOPC   D2B26568  21.033  22.610  13.409  0.3788  0.1389 -0.1188
 2264DOPC   C3B26569  21.067  22.878  13.805 -0.2531 -0.1237  0.2435
 2264DOPC   C4B26570  21.357  22.991  14.168  0.0870 -0.1490  0.1464
 2265POSM   NC326571  19.911  23.532  11.984 -0.2856  0.0770 -0.1350
 2265POSM   PO426572  19.524  23.461  12.094  0.1506  0.0989  0.1095
 2265POSM   AM126573  19.436  23.247  12.366  0.0760 -0.1238 -0.0732
 2265POSM   AM226574  19.198  23.258  12.529  0.1068 -0.0291  0.3867
 2265POSM   T1A26575  19.631  23.086  12.783  0.3385  0.1007  0.0794
 2265POSM   C2A26576  19.719  22.770  13.078  0.0133 -0.2346 -0.0244
 2265POSM   C3A26577  19.880  22.417  13.258  0.1726 -0.2484 -0.0164
 2265POSM   C1B26578  19.131  23.240  12.867 -0.1358  0.1572  0.1622
 2265POSM   D2B26579  19.122  22.900  13.142  0.2062  0.1828  0.0781
 2265POSM   C3B26580  19.375  22.856  13.456 -0.1309 -0.0222 -0.0871
 2265POSM   C4B26581  19.589  23.237  13.611 -0.2135 -0.2388 -0.2242
 2266DOPE   NH326582  21.000  28.774  12.299  0.0158 -0.0592  0.0741
 2266DOPE   PO426583  20.909  28.660  12.561 -0.0722  0.1363  0.2032
 2266DOPE   GL126584  20.555  28.516  12.605 -0.0490  0.3192  0.3724
 2266DOPE   GL226585  20.618  28.390  12.898 -0.0005 -0.2532 -0.0325
 2266DOPE   C1A26586  20.189  28.659  12.433  0.0326 -0.2785  0.2966
 2266DOPE   D2A26587  19.975  29.140  12.441 -0.2493 -0.0357  0.0915
 2266DOPE   C3A26588  19.882  29.571  12.429  0.3327  0.1065  0.0370
 2266DOPE   C4A26589  19.761  30.018  12.369 -0.0325 -0.1488  0.1872
 2266DOPE   C1B26590  20.166  28.377  13.111  0.1079  0.2545  0.0887
 2266DOPE   D2B26591  20.132  28.611  13.518  0.1810  0.2800  0.1073
 2266DOPE   C3B26592  20.267  29.077  13.706  0.0093  0.1678  0.4080
 2266DOPE   C4B26593  20.054  29.400  13.981  0.1379  0.2656  0.2193
 2267DOPE   NH326594  11.548  27.093  12.202  0.1549  0.0094 -0.1985
 2267DOPE   PO426595  11.534  27.186  11.928 -0.3866 -0.1504  0.1410
 2267DOPE   GL126596  11.610  27.572  12.113 -0.0894 -0.0510  0.0807
 2267DOPE   GL226597  11.705  27.726  11.878 -0.0858  0.2950  0.0800
 2267DOPE   C1A26598  11.543  27.657  12.536 -0.0396 -0.0232  0.0749
 2267DOPE   D2A26599  11.625  28.036  12.859  0.0636  0.0116 -0.1044
 2267DOPE   C3A26600  11.927  28.379  12.771 -0.0413  0.0874 -0.0510
 2267DOPE   C4A26601  12.313  28.517  12.723 -0.0800  0.0182 -0.2094
 2267DOPE   C1B26602  12.024  28.102  11.987  0.1918 -0.1458  0.2224
 2267DOPE   D2B26603  12.147  28.447  12.275  0.1126 -0.0997 -0.2138
 2267DOPE   C3B26604  11.889  28.849  12.411 -0.1657 -0.3329  0.1690
 2267DOPE   C4B26605  11.894  29.231  12.582  0.0002  0.2719  0.1231
 2268DOPC   NC326606  16.631  29.354  12.694  0.0368  0.2618 -0.0269
 2268DOPC   PO426607  16.618  29.747  12.697 -0.1751 -0.1666  0.0028
 2268DOPC   GL126608  16.505  29.686  13.043 -0.0321  0.0446  0.3130
 2268DOPC   GL226609  16.606  29.909  13.185  0.0774  0.0896  0.1529
 2268DOPC   C1A26610  16.202  29.567  13.374  0.4488 -0.2034  0.1123
 2268DOPC   D2A26611  15.887  29.516  13.635  0.5760  0.3526  0.0336
 2268DOPC   C3A26612  15.864  29.623  14.098 -0.0501  0.2079  0.0767
 2268DOPC   C4A26613  16.149  29.465  14.460 -0.0039  0.1262 -0.2089
 2268DOPC   C1B26614  16.591  29.792  13.651  0.1522  0.0334  0.0477
 2268DOPC   D2B26615  16.369  29.579  13.998 -0.0032  0.2174 -0.4502
 2268DOPC   C3B26616  16.149  29.209  14.028  0.0919  0.1532  0.4200
 2268DOPC   C4B26617  15.954  28.883  14.222  0.1334  0.0263 -0.1279
 2269DOPE   NH326618  13.057  30.521  12.179 -0.2314 -0.1594 -0.0599
 2269DOPE   PO426619  13.065  30.309  12.437 -0.1848  0.1333  0.0140
 2269DOPE   GL126620  12.970  30.533  12.788  0.0598 -0.2208 -0.4796
 2269DOPE   GL226621  12.682  30.518  12.710 -0.0660 -0.0149  0.0306
 2269DOPE   C1A26622  13.159  30.601  13.174 -0.0275 -0.4077 -0.0884
 2269DOPE   D2A26623  13.489  30.625  13.534 -0.0409 -0.3429  0.0439
 2269DOPE   C3A26624  13.743  30.970  13.630 -0.1623 -0.0746 -0.0775
 2269DOPE   C4A26625  14.124  31.206  13.772  0.2226 -0.2434 -0.1448
 2269DOPE   C1B26626  12.412  30.917  12.934  0.1439  0.4846 -0.0309
 2269DOPE   D2B26627  12.154  31.270  12.874 -0.0015  0.0480 -0.1349
 2269DOPE   C3B26628  11.868  31.462  13.147 -0.1605  0.0275  0.0611
 2269DOPE   C4B26629  11.677  31.858  13.180 -0.2577  0.0552 -0.1788
 2270POSM   NC326630  19.893  27.720  12.705  0.1162 -0.1762 -0.1126
 2270POSM   PO426631  19.845  28.103  12.562  0.0180 -0.2684 -0.0061
 2270POSM   AM126632  19.730  28.173  12.869 -0.1603 -0.2861 -0.2148
 2270POSM   AM226633  19.734  27.997  13.116  0.0006 -0.4998  0.0293
 2270POSM   T1A26634  19.653  28.528  13.255  0.2461  0.0320 -0.0531
 2270POSM   C2A26635  19.512  28.947  13.258 -0.0038 -0.1692 -0.0878
 2270POSM   C3A26636  19.586  29.468  13.322  0.2650  0.0840 -0.1948
 2270POSM   C1B26637  19.702  28.011  13.418 -0.0822 -0.0566 -0.2078
 2270POSM   D2B26638  19.607  27.771  13.797  0.0163 -0.1798 -0.1660
 2270POSM   C3B26639  19.670  28.094  14.160 -0.0875  0.3007 -0.2640
 2270POSM   C4B26640  19.643  28.442  14.460  0.2932 -0.1655 -0.0386
 2271DOPC   NC326641  21.601  29.696  12.357 -0.3393  0.0334 -0.0645
 2271DOPC   PO426642  21.755  30.052  12.422  0.2186 -0.1805 -0.2315
 2271DOPC   GL126643  21.536  30.397  12.667 -0.1770 -0.1580  0.2615
 2271DOPC   GL226644  21.318  30.481  12.481  0.0789  0.2881  0.1940
 2271DOPC   C1A26645  21.264  30.573  12.985 -0.1355  0.1665 -0.3211
 2271DOPC   D2A26646  20.917  30.833  13.078  0.1374 -0.2079 -0.0368
 2271DOPC   C3A26647  20.839  30.942  13.567 -0.0717 -0.1199  0.0726
 2271DOPC   C4A26648  20.584  31.082  13.940  0.2538  0.1467  0.1664
 2271DOPC   C1B26649  20.952  30.670  12.330  0.2625 -0.1311  0.4217
 2271DOPC   D2B26650  20.574  30.953  12.300 -0.0108  0.1546 -0.3728
 2271DOPC   C3B26651  20.426  31.176  11.881  0.0406  0.0390  0.0464
 2271DOPC   C4B26652  20.638  31.556  11.697  0.1116 -0.0836  0.0048
 2272POSM   NC326653  19.106  34.512  12.106  0.2060 -0.1017 -0.2059
 2272POSM   PO426654  18.896  34.346  11.804 -0.0131  0.1107  0.1054
 2272POSM   AM126655  18.947  34.096  12.009  0.1607  0.2712  0.2298
 2272POSM   AM226656  19.089  33.972  12.218  0.1367  0.0542  0.0230
 2272POSM   T1A26657  18.698  33.700  12.178  0.0441  0.2786 -0.0227
 2272POSM   C2A26658  18.538  33.382  12.466 -0.0673 -0.0728 -0.1563
 2272POSM   C3A26659  18.357  33.310  12.964  0.0286 -0.0264 -0.0613
 2272POSM   C1B26660  19.127  33.719  12.427  0.0466 -0.2690  0.0153
 2272POSM   D2B26661  19.481  33.503  12.719 -0.2685 -0.0567  0.0000
 2272POSM   C3B26662  19.340  33.503  13.211 -0.0013  0.0917  0.4473
 2272POSM   C4B26663  19.232  33.531  13.652  0.1224 -0.3091  0.2606
 2273DOPE   NH326664  18.194  23.471  12.134 -0.3722 -0.0251 -0.2996
 2273DOPE   PO426665  17.927  23.402  12.312  0.5302  0.1810 -0.0730
 2273DOPE   GL126666  17.708  23.115  12.558  0.2706  0.1167  0.2528
 2273DOPE   GL226667  17.468  23.295  12.568 -0.0293  0.1319  0.1647
 2273DOPE   C1A26668  17.684  23.021  13.019 -0.2221 -0.3965 -0.3330
 2273DOPE   D2A26669  17.445  23.173  13.458  0.0571 -0.3269 -0.0109
 2273DOPE   C3A26670  17.779  23.253  13.871 -0.0574 -0.0480  0.0283
 2273DOPE   C4A26671  17.876  23.646  14.115  0.2819  0.1324  0.1388
 2273DOPE   C1B26672  17.191  23.303  12.954 -0.0682  0.0890 -0.0768
 2273DOPE   D2B26673  16.833  23.125  13.250 -0.1130 -0.0492  0.4415
 2273DOPE   C3B26674  16.792  22.806  13.591 -0.0567  0.4508 -0.1055
 2273DOPE   C4B26675  16.851  22.719  14.037 -0.2392 -0.0634 -0.1713
 2274DOPC   NC326676  19.872  27.814  12.147 -0.1319  0.2325 -0.0016
 2274DOPC   PO426677  19.788  27.473  12.296  0.2235  0.2880  0.0593
 2274DOPC   GL126678  20.033  27.242  12.522  0.1907 -0.2401  0.4081
 2274DOPC   GL226679  19.799  27.082  12.643 -0.2754  0.0221  0.3580
 2274DOPC   C1A26680  20.349  26.937  12.527  0.0031  0.1767 -0.2123
 2274DOPC   D2A26681  20.312  26.522  12.288  0.0491 -0.1947  0.0608
 2274DOPC   C3A26682  20.738  26.316  12.170 -0.1613  0.0316 -0.1849
 2274DOPC   C4A26683  20.819  25.854  12.027 -0.2867 -0.1447  0.0446
 2274DOPC   C1B26684  20.103  27.095  13.043  0.2163  0.0160  0.2086
 2274DOPC   D2B26685  20.316  26.926  13.434 -0.1444  0.2049  0.0040
 2274DOPC   C3B26686  20.273  27.001  13.893 -0.0698  0.1812 -0.2869
 2274DOPC   C4B26687  20.669  27.098  14.159  0.0196 -0.4397  0.3429
 2275DOPE   NH326688  22.958  23.691  12.070  0.0409  0.2154  0.0710
 2275DOPE   PO426689  23.192  23.464  12.115  0.2351  0.2089  0.1703
 2275DOPE   GL126690  23.384  23.567  12.478 -0.0418 -0.3884  0.3626
 2275DOPE   GL226691  23.217  23.421  12.665 -0.1313 -0.3583 -0.1469
 2275DOPE   C1A26692  23.459  23.944  12.726  0.0125  0.1506  0.0005
 2275DOPE   D2A26693  23.797  24.302  12.741 -0.1199 -0.0842  0.2330
 2275DOPE   C3A26694  23.728  24.723  12.876  0.1459  0.0816  0.1468
 2275DOPE   C4A26695  23.655  25.149  12.922 -0.3319  0.1870  0.0332
 2275DOPE   C1B26696  23.433  23.404  13.137 -0.1618  0.3819 -0.2148
 2275DOPE   D2B26697  23.600  23.529  13.566  0.1487  0.0163  0.0588
 2275DOPE   C3B26698  23.849  23.893  13.637 -0.2850 -0.0361  0.0423
 2275DOPE   C4B26699  24.239  24.201  13.607 -0.1404  0.4391 -0.0526
 2276POSM   NC326700  13.432  27.998  12.008  0.0074 -0.1035 -0.1695
 2276POSM   PO426701  13.123  27.759  12.103 -0.2236 -0.1479  0.2033
 2276POSM   AM126702  13.045  27.613  12.427 -0.0507 -0.2529  0.0256
 2276POSM   AM226703  12.863  27.726  12.579 -0.0352  0.0950 -0.0366
 2276POSM   T1A26704  12.953  27.257  12.831  0.0624 -0.0447  0.0743
 2276POSM   C2A26705  12.957  26.876  13.088  0.3331 -0.1502 -0.0689
 2276POSM   C3A26706  13.091  26.593  13.432 -0.0133  0.1460  0.0160
 2276POSM   C1B26707  12.609  27.643  12.828 -0.0904  0.3477 -0.0752
 2276POSM   D2B26708  12.476  27.413  13.213 -0.1130 -0.0360 -0.0795
 2276POSM   C3B26709  12.882  27.379  13.401  0.0607  0.0919  0.0723
 2276POSM   C4B26710  13.182  27.055  13.507 -0.1568 -0.0425 -0.0838
 2277DOPC   NC326711  18.006  30.246  12.186  0.1310  0.1601  0.0891
 2277DOPC   PO426712  17.882  30.280  12.616  0.1113  0.2244  0.1412
 2277DOPC   GL126713  17.929  30.050  12.985  0.1043 -0.3048  0.2620
 2277DOPC   GL226714  17.594  29.853  13.072  0.0418  0.1906 -0.1669
 2277DOPC   C1A26715  17.940  30.228  13.432 -0.1293 -0.2471  0.2183
 2277DOPC   D2A26716  17.986  30.374  13.902  0.2903 -0.1084  0.1590
 2277DOPC   C3A26717  17.571  30.453  14.012  0.2983  0.1831 -0.1754
 2277DOPC   C4A26718  17.328  30.816  14.169 -0.1253 -0.0501  0.1739
 2277DOPC   C1B26719  17.978  29.618  13.120 -0.1574 -0.0971 -0.0743
 2277DOPC   D2B26720  18.335  29.511  12.932  0.0704 -0.0141 -0.3056
 2277DOPC   C3B26721  18.750  29.518  13.152  0.4192 -0.2398  0.0240
 2277DOPC   C4B26722  19.029  29.719  13.389 -0.0657  0.4404  0.3369
 2278POSM   NC326723  19.945  24.500  12.250 -0.2230  0.2183 -0.2522
 2278POSM   PO426724  19.924  24.082  12.407 -0.1745  0.0035 -0.3914
 2278POSM   AM126725  19.873  24.136  12.712 -0.2644 -0.0483  0.0990
 2278POSM   AM226726  19.821  24.426  12.810  0.3543  0.1155 -0.0946
 2278POSM   T1A26727  19.724  24.048  13.173  0.2679 -0.1227 -0.0622
 2278POSM   C2A26728  19.529  23.726  13.500  0.1137 -0.0098 -0.0035
 2278POSM   C3A26729  19.283  23.492  13.859 -0.1174 -0.0778  0.3606
 2278POSM   C1B26730  19.766  24.602  13.132 -0.0970  0.3024  0.1640
 2278POSM   D2B26731  19.662  25.004  13.385  0.0439  0.1988 -0.2469
 2278POSM   C3B26732  19.459  24.841  13.729  0.3215  0.0261 -0.3132
 2278POSM   C4B26733  19.299  24.479  13.957 -0.1403  0.0200  0.2825
 2279POSM   NC326734  12.826  29.302  12.370 -0.2743 -0.1139  0.2556
 2279POSM   PO426735  12.807  29.554  12.074  0.2255 -0.3135 -0.3306
 2279POSM   AM126736  12.536  29.729  12.179  0.1248 -0.0736 -0.0944
 2279POSM   AM226737  12.491  29.927  12.405 -0.0858 -0.0510  0.2925
 2279POSM   T1A26738  12.018  29.696  12.264  0.0557  0.1496 -0.1331
 2279POSM   C2A26739  11.592  29.815  12.174 -0.2608 -0.2101 -0.2081
 2279POSM   C3A26740  11.391  30.267  12.280 -0.0464  0.2075  0.0964
 2279POSM   C1B26741  12.292  30.080  12.631  0.0007 -0.0947 -0.0422
 2279POSM   D2B26742  12.112  30.160  13.018  0.0014 -0.2424 -0.0805
 2279POSM   C3B26743  12.336  30.531  13.302 -0.1163  0.0433  0.0308
 2279POSM   C4B26744  12.521  30.553  13.685 -0.0710  0.1734  0.2680
 2280DOPC   NC326745  16.615  25.722  12.198  0.0835  0.1357 -0.2260
 2280DOPC   PO426746  16.754  25.941  12.496  0.0770 -0.2452 -0.4866
 2280DOPC   GL126747  16.660  25.606  12.744 -0.2997  0.2450  0.0441
 2280DOPC   GL226748  16.921  25.462  12.731  0.3994 -0.1293 -0.0100
 2280DOPC   C1A26749  16.410  25.386  13.054  0.0828  0.1490  0.0882
 2280DOPC   D2A26750  16.242  25.336  13.417 -0.0601 -0.1931 -0.0853
 2280DOPC   C3A26751  15.834  25.466  13.557 -0.2602 -0.2106  0.1034
 2280DOPC   C4A26752  15.426  25.588  13.482 -0.1015  0.3439  0.0400
 2280DOPC   C1B26753  17.154  25.226  13.066  0.2109 -0.2051 -0.1628
 2280DOPC   D2B26754  17.139  24.933  13.443  0.0048  0.1629  0.2278
 2280DOPC   C3B26755  16.960  24.521  13.343  0.6077  0.0246  0.0965
 2280DOPC   C4B26756  16.751  24.086  13.405  0.2100 -0.1373  0.1251
 2281DOPE   NH326757  13.919  24.448  12.009  0.0424 -0.1266  0.0105
 2281DOPE   PO426758  14.067  24.168  11.959  0.0834  0.1510  0.1429
 2281DOPE   GL126759  14.242  24.186  12.336  0.2644 -0.1057  0.3473
 2281DOPE   GL226760  14.220  24.470  12.425 -0.1620 -0.0305 -0.2486
 2281DOPE   C1A26761  14.716  24.255  12.490  0.1491 -0.0386 -0.1913
 2281DOPE   D2A26762  15.022  24.336  12.794  0.2901 -0.0484  0.1889
 2281DOPE   C3A26763  15.072  24.626  13.215 -0.2379  0.1980 -0.0065
 2281DOPE   C4A26764  15.378  24.786  13.520  0.2187  0.1075 -0.2245
 2281DOPE   C1B26765  14.361  24.876  12.282 -0.1201  0.2356  0.1447
 2281DOPE   D2B26766  14.677  25.263  12.409  0.4509  0.3405  0.4304
 2281DOPE   C3B26767  14.942  25.350  12.836  0.1711  0.0776  0.5473
 2281DOPE   C4B26768  15.373  25.348  12.975  0.1421  0.3209 -0.2439
 2282POSM   NC326769  15.572   0.167  11.774  0.0353 -0.2493  0.0926
 2282POSM   PO426770  15.384  -0.093  11.961  0.2601  0.0322  0.0496
 2282POSM   AM126771  15.317  -0.013  12.292  0.1625  0.4114  0.2762
 2282POSM   AM226772  15.229  -0.133  12.518  0.2159  0.0968  0.1900
 2282POSM   T1A26773  15.542   0.173  12.737  0.0036 -0.0942  0.3212
 2282POSM   C2A26774  15.636   0.224  13.214  0.1485  0.0830 -0.0061
 2282POSM   C3A26775  15.460  -0.028  13.604 -0.3233  0.5346 -0.4716
 2282POSM   C1B26776  15.008  -0.368  12.707  0.5360  0.0416  0.0742
 2282POSM   D2B26777  14.615  -0.400  12.992  0.1592 -0.0058 -0.1611
 2282POSM   C3B26778  14.234  -0.339  13.151  0.1081 -0.0513  0.0433
 2282POSM   C4B26779  14.000  -0.028  13.432  0.0995 -0.1169 -0.0118
 2283POSM   NC326780  15.002  26.300  12.322 -0.2705  0.0378  0.0965
 2283POSM   PO426781  15.397  26.297  12.300  0.4348  0.1957  0.0063
 2283POSM   AM126782  15.408  26.171  12.597  0.0458  0.4994 -0.4117
 2283POSM   AM226783  15.371  25.884  12.706  0.2758  0.1468 -0.0519
 2283POSM   T1A26784  15.491  26.174  13.131 -0.1623 -0.3619  0.0247
 2283POSM   C2A26785  15.703  26.239  13.544  0.2816 -0.0259 -0.1071
 2283POSM   C3A26786  15.768  26.288  14.004 -0.1014  0.3225 -0.1513
 2283POSM   C1B26787  15.204  25.803  13.039  0.0596 -0.2535 -0.0524
 2283POSM   D2B26788  14.887  25.612  13.280 -0.4790 -0.0074 -0.0476
 2283POSM   C3B26789  14.411  25.725  13.320 -0.0206 -0.2535  0.1787
 2283POSM   C4B26790  14.278  25.998  13.028 -0.2977 -0.1944 -0.3848
 2284DOPS   CNO26791  18.826  27.837  12.071  0.2885  0.0101  0.1516
 2284DOPS   PO426792  18.793  28.100  12.364 -0.0494 -0.0272 -0.1780
 2284DOPS   GL126793  18.898  28.309  12.623  0.2069 -0.0559  0.0419
 2284DOPS   GL226794  18.623  28.504  12.581 -0.0957 -0.1807 -0.4170
 2284DOPS   C1A26795  18.919  28.478  13.013  0.1720  0.3505 -0.2502
 2284DOPS   D2A26796  19.033  28.604  13.435 -0.1361 -0.2912 -0.2017
 2284DOPS   C3A26797  19.243  28.852  13.732 -0.2580  0.0707  0.1025
 2284DOPS   C4A26798  19.615  29.181  13.708  0.3819 -0.2902  0.0435
 2284DOPS   C1B26799  18.345  28.331  12.951 -0.1087  0.3077  0.0551
 2284DOPS   D2B26800  18.272  28.305  13.418 -0.0655  0.2419 -0.2647
 2284DOPS   C3B26801  18.096  28.723  13.609 -0.1798 -0.2444 -0.0596
 2284DOPS   C4B26802  18.168  29.093  13.914 -0.2111 -0.0007 -0.1171
 2285DOPC   NC326803  14.637  31.542  11.902  0.0146  0.0946 -0.1522
 2285DOPC   PO426804  14.855  31.433  12.276 -0.3431 -0.3434  0.1123
 2285DOPC   GL126805  14.528  31.584  12.531 -0.0582  0.1033  0.2812
 2285DOPC   GL226806  14.331  31.470  12.627 -0.7157 -0.0690 -0.2875
 2285DOPC   C1A26807  14.451  31.886  12.840  0.3125 -0.1048 -0.0899
 2285DOPC   D2A26808  14.592  32.363  12.812  0.3740  0.1328  0.3884
 2285DOPC   C3A26809  14.203  32.533  12.995 -0.0016  0.2798  0.1160
 2285DOPC   C4A26810  13.827  32.416  13.217  0.1342 -0.2873  0.3613
 2285DOPC   C1B26811  13.917  31.687  12.497 -0.1397  0.1094  0.2408
 2285DOPC   D2B26812  13.507  31.902  12.371  0.0225  0.1786 -0.0558
 2285DOPC   C3B26813  13.343  32.144  12.730 -0.1263 -0.3474 -0.3864
 2285DOPC   C4B26814  13.041  32.127  13.030  0.2088 -0.1007 -0.1771
 2286POSM   NC326815  11.937  28.998  11.932 -0.3328 -0.0189  0.0859
 2286POSM   PO426816  11.668  29.300  11.929 -0.0867  0.0545  0.1230
 2286POSM   AM126817  11.543  29.321  12.184 -0.1037  0.2111 -0.2576
 2286POSM   AM226818  11.326  29.141  12.322  0.1445  0.0657 -0.2337
 2286POSM   T1A26819  11.572  29.562  12.648 -0.0456 -0.2186  0.1724
 2286POSM   C2A26820  11.224  29.760  12.821  0.1420  0.1339  0.0116
 2286POSM   C3A26821  10.962  30.155  12.995 -0.0365 -0.2040  0.2478
 2286POSM   C1B26822  11.445  29.066  12.643  0.3187 -0.0014  0.0760
 2286POSM   D2B26823  11.708  28.825  12.944  0.1093  0.1862 -0.0328
 2286POSM   C3B26824  11.797  28.846  13.401 -0.0278  0.1526  0.0101
 2286POSM   C4B26825  11.936  29.273  13.651 -0.1159  0.0762  0.0156
 2287DOPE   NH326826  17.543  26.083  12.931  0.4207  0.1076 -0.1959
 2287DOPE   PO426827  17.724  26.308  12.963 -0.0975 -0.1416 -0.2648
 2287DOPE   GL126828  17.594  26.391  13.269 -0.0302  0.0833 -0.0190
 2287DOPE   GL226829  17.291  26.204  13.405 -0.0976 -0.0901  0.1596
 2287DOPE   C1A26830  17.411  26.843  13.423  0.0599 -0.1394  0.0434
 2287DOPE   D2A26831  17.249  27.036  13.801 -0.0540  0.0401  0.0092
 2287DOPE   C3A26832  17.459  27.302  14.094 -0.2551 -0.0665 -0.1201
 2287DOPE   C4A26833  17.765  27.305  14.409  0.2285  0.2604  0.2523
 2287DOPE   C1B26834  17.330  26.433  13.843 -0.2757 -0.1041  0.1496
 2287DOPE   D2B26835  17.286  26.742  14.193 -0.0279  0.0032  0.3799
 2287DOPE   C3B26836  17.387  26.476  14.559 -0.1679 -0.1735 -0.1961
 2287DOPE   C4B26837  17.636  26.405  14.971  0.0522  0.1992 -0.3945
 2288POSM   NC326838  12.994  30.051  11.943  0.0133  0.1311  0.0925
 2288POSM   PO426839  12.680  30.236  12.111  0.1083  0.0339  0.1306
 2288POSM   AM126840  12.374  30.332  12.128 -0.2076 -0.2136  0.1141
 2288POSM   AM226841  12.236  30.562  12.021  0.2499  0.0326 -0.1093
 2288POSM   T1A26842  12.226  30.579  12.526 -0.0714 -0.0366 -0.1806
 2288POSM   C2A26843  11.822  30.675  12.745  0.0069  0.1296 -0.1364
 2288POSM   C3A26844  11.591  31.079  12.915 -0.0936 -0.1372 -0.0646
 2288POSM   C1B26845  12.014  30.813  12.149  0.3158 -0.0886  0.1880
 2288POSM   D2B26846  11.834  31.091  12.481  0.1972  0.0183 -0.1805
 2288POSM   C3B26847  11.476  31.354  12.293 -0.4040 -0.1043  0.0112
 2288POSM   C4B26848  11.462  31.799  12.289  0.3024 -0.2239 -0.1778
 2289POSM   NC326849  15.725  30.178  12.606  0.1031  0.2623 -0.1813
 2289POSM   PO426850  15.770  29.804  12.521 -0.2512  0.2564  0.0829
 2289POSM   AM126851  15.511  29.750  12.708 -0.1542  0.1614 -0.3467
 2289POSM   AM226852  15.279  29.933  12.745  0.0051  0.0665 -0.1547
 2289POSM   T1A26853  15.247  29.533  13.035  0.2348  0.2826  0.0410
 2289POSM   C2A26854  15.078  29.256  13.372  0.1306  0.3155  0.2983
 2289POSM   C3A26855  15.045  29.007  13.751 -0.1456  0.3192 -0.0059
 2289POSM   C1B26856  15.360  30.050  13.066  0.0047 -0.1033 -0.1225
 2289POSM   D2B26857  15.340  30.425  13.323  0.0389 -0.2863 -0.1935
 2289POSM   C3B26858  15.076  30.395  13.673  0.3924 -0.1979 -0.0132
 2289POSM   C4B26859  14.809  30.615  13.989  0.3316  0.2209 -0.0514
 2290POSM   NC326860  13.314  29.535  12.145  0.2068  0.1273  0.0865
 2290POSM   PO426861  13.704  29.571  12.078 -0.0406 -0.0836  0.1200
 2290POSM   AM126862  13.731  29.609  12.397 -0.0235  0.1912  0.0782
 2290POSM   AM226863  13.790  29.814  12.568  0.0915 -0.1952  0.0339
 2290POSM   T1A26864  13.907  29.426  12.795  0.0043  0.0122  0.1675
 2290POSM   C2A26865  13.947  29.582  13.240 -0.0047 -0.0358  0.1138
 2290POSM   C3A26866  14.156  29.396  13.624  0.2402 -0.0467  0.1244
 2290POSM   C1B26867  13.748  29.954  12.885  0.1776 -0.0532  0.0398
 2290POSM   D2B26868  13.813  30.289  13.207  0.0168 -0.0586 -0.1115
 2290POSM   C3B26869  13.928  30.406  13.643 -0.2118 -0.0300  0.3151
 2290POSM   C4B26870  13.874  30.657  14.040  0.2778 -0.0765 -0.1367
 2291DOPS   CNO26871  21.083  28.213  12.778  0.0864  0.0785 -0.1522
 2291DOPS   PO426872  21.322  28.120  12.517 -0.4212 -0.0575 -0.0421
 2291DOPS   GL126873  21.244  27.719  12.695  0.0129  0.5512 -0.0206
 2291DOPS   GL226874  20.977  27.762  12.873 -0.1461  0.1537 -0.0014
 2291DOPS   C1A26875  21.135  27.302  12.929  0.2112 -0.1822  0.2568
 2291DOPS   D2A26876  20.878  27.160  13.282 -0.0226  0.1050  0.0572
 2291DOPS   C3A26877  20.870  26.948  13.684  0.2914 -0.0544 -0.0144
 2291DOPS   C4A26878  20.985  26.667  14.011 -0.0837 -0.1362 -0.1037
 2291DOPS   C1B26879  20.800  27.716  13.289  0.0503 -0.0315 -0.2009
 2291DOPS   D2B26880  20.495  27.408  13.468  0.0732  0.1227 -0.2304
 2291DOPS   C3B26881  20.466  27.469  13.903  0.0437  0.0595 -0.2479
 2291DOPS   C4B26882  20.370  27.832  14.157  0.3835 -0.1714 -0.1557
 2292POSM   NC326883  18.010  23.518  12.807 -0.0752 -0.1098  0.0369
 2292POSM   PO426884  18.348  23.559  12.623  0.0655 -0.6513 -0.1477
 2292POSM   AM126885  18.362  23.878  12.665 -0.4316  0.1329  0.2469
 2292POSM   AM226886  18.161  24.048  12.846  0.1082  0.1410  0.0199
 2292POSM   T1A26887  18.468  24.323  12.478  0.2176  0.0445  0.0158
 2292POSM   C2A26888  18.175  24.667  12.201  0.0453  0.1039 -0.0160
 2292POSM   C3A26889  18.074  25.019  12.449 -0.5023  0.1557 -0.2736
 2292POSM   C1B26890  17.976  24.186  13.064  0.2908 -0.1467  0.1625
 2292POSM   D2B26891  18.010  24.324  13.476 -0.0669  0.0361  0.1002
 2292POSM   C3B26892  17.715  24.193  13.814  0.0539  0.3643  0.0818
 2292POSM   C4B26893  17.249  24.077  13.892 -0.0272 -0.3894 -0.1594
 2293DOPE   NH326894  22.360  26.356  12.696 -0.3521  0.1670 -0.0163
 2293DOPE   PO426895  22.285  26.639  12.799  0.0561  0.1169 -0.2107
 2293DOPE   GL126896  21.979  26.930  12.883  0.1753 -0.3018  0.0082
 2293DOPE   GL226897  21.780  27.090  12.749  0.0572  0.1083 -0.1475
 2293DOPE   C1A26898  21.640  26.615  12.959 -0.5096  0.0064  0.2016
 2293DOPE   D2A26899  21.695  26.267  13.252 -0.2969 -0.2992 -0.0213
 2293DOPE   C3A26900  22.027  26.381  13.626 -0.1295 -0.2089  0.1553
 2293DOPE   C4A26901  22.283  26.769  13.591 -0.3015  0.0767  0.1018
 2293DOPE   C1B26902  21.602  27.124  13.163  0.2672 -0.1664 -0.1635
 2293DOPE   D2B26903  21.280  27.066  13.500  0.0138 -0.2104 -0.1812
 2293DOPE   C3B26904  21.373  26.983  13.936  0.2233  0.1448 -0.2388
 2293DOPE   C4B26905  21.590  26.909  14.367  0.1873 -0.0128 -0.0317
 2294DOPE   NH326906  21.966  33.441  12.519 -0.2021 -0.1564 -0.2926
 2294DOPE   PO426907  22.066  33.141  12.499  0.0470  0.0874 -0.1216
 2294DOPE   GL126908  22.243  33.163  12.845  0.2129 -0.1518  0.1427
 2294DOPE   GL226909  21.957  33.171  12.964  0.0436  0.2532  0.0400
 2294DOPE   C1A26910  22.269  33.330  13.301 -0.0564  0.0216  0.0835
 2294DOPE   D2A26911  22.079  33.603  13.605  0.3943  0.0531  0.0990
 2294DOPE   C3A26912  21.891  33.483  14.063  0.0170 -0.0297 -0.1896
 2294DOPE   C4A26913  21.730  33.235  14.427  0.0103  0.0086  0.0712
 2294DOPE   C1B26914  21.551  32.976  12.940 -0.2268  0.0307 -0.1955
 2294DOPE   D2B26915  21.358  32.634  13.171 -0.1699 -0.0159  0.0914
 2294DOPE   C3B26916  21.390  32.914  13.588 -0.1403  0.1790 -0.0389
 2294DOPE   C4B26917  21.389  33.292  13.863  0.0541  0.0807  0.1094
 2295DOPE   NH326918  16.246  30.067  12.388  0.0274 -0.0143 -0.2641
 2295DOPE   PO426919  16.282  30.179  12.686 -0.1914  0.0347 -0.0274
 2295DOPE   GL126920  16.348  30.270  13.000 -0.1260  0.1140 -0.0637
 2295DOPE   GL226921  16.628  30.384  13.001  0.0207  0.0329 -0.0484
 2295DOPE   C1A26922  16.175  30.085  13.376  0.1453  0.0291  0.0165
 2295DOPE   D2A26923  16.074  29.969  13.794  0.2252 -0.0481  0.1537
 2295DOPE   C3A26924  16.043  30.280  14.106 -0.2419 -0.2675 -0.0294
 2295DOPE   C4A26925  15.733  30.472  14.363  0.1565 -0.0422  0.0987
 2295DOPE   C1B26926  16.748  30.399  13.471 -0.0411 -0.1343 -0.1495
 2295DOPE   D2B26927  16.993  30.091  13.756  0.1231  0.2410 -0.1280
 2295DOPE   C3B26928  17.059  29.646  13.975 -0.1085  0.1355  0.1244
 2295DOPE   C4B26929  17.144  29.433  14.332  0.0080 -0.1596 -0.4162
 2296DOPE   NH326930  11.850  26.593  11.824  0.3108 -0.2180  0.2003
 2296DOPE   PO426931  12.049  26.533  11.976 -0.1830  0.0863  0.2244
 2296DOPE   GL126932  12.015  26.121  11.932  0.2987 -0.0365 -0.0609
 2296DOPE   GL226933  11.874  25.927  12.100  0.0342 -0.1764 -0.1348
 2296DOPE   C1A26934  12.387  25.893  12.058 -0.0501  0.0607  0.0409
 2296DOPE   D2A26935  12.629  26.314  12.157 -0.1502  0.0195 -0.3597
 2296DOPE   C3A26936  13.020  26.147  12.179  0.2244  0.2193 -0.0767
 2296DOPE   C4A26937  13.329  25.823  12.325 -0.0799 -0.1539  0.2351
 2296DOPE   C1B26938  11.916  25.579  12.402 -0.1757  0.2314  0.1312
 2296DOPE   D2B26939  12.347  25.355  12.398 -0.1491 -0.0086 -0.1002
 2296DOPE   C3B26940  12.375  25.121  12.810  0.0352  0.0808 -0.1928
 2296DOPE   C4B26941  12.159  24.783  13.076  0.2374 -0.0179  0.7344
 2297POSM   NC326942  12.304  26.679  12.399  0.0010  0.2179 -0.0130
 2297POSM   PO426943  12.436  26.912  12.141 -0.2295 -0.3015  0.6115
 2297POSM   AM126944  12.716  26.856  12.231 -0.1957  0.0306  0.3353
 2297POSM   AM226945  12.862  26.854  12.463 -0.1815 -0.0147  0.4786
 2297POSM   T1A26946  13.158  26.611  12.073  0.1382  0.0284 -0.0186
 2297POSM   C2A26947  13.516  26.396  11.892  0.2574  0.0815  0.2265
 2297POSM   C3A26948  13.802  26.103  12.153  0.0647  0.0281 -0.0757
 2297POSM   C1B26949  12.874  26.527  12.594  0.3645  0.0930  0.2077
 2297POSM   D2B26950  12.631  26.199  12.749 -0.1819  0.2880  0.0836
 2297POSM   C3B26951  12.691  25.806  12.526  0.1840  0.1082  0.0405
 2297POSM   C4B26952  12.856  25.418  12.673  0.1886  0.1143  0.0046
 2298DOPC   NC326953  22.498  32.419  12.097 -0.1385  0.0231  0.2957
 2298DOPC   PO426954  22.494  32.064  12.254 -0.2601 -0.3606  0.0745
 2298DOPC   GL126955  22.303  32.360  12.490  0.1853 -0.6480 -0.1528
 2298DOPC   GL226956  21.974  32.410  12.455  0.0087 -0.3830 -0.5447
 2298DOPC   C1A26957  22.126  32.162  12.891  0.4789  0.0401  0.1865
 2298DOPC   D2A26958  21.811  31.899  13.092  0.0793 -0.3138  0.1974
 2298DOPC   C3A26959  21.884  32.003  13.519  0.0449 -0.0687  0.2669
 2298DOPC   C4A26960  22.128  31.935  13.929 -0.1070 -0.0865  0.1184
 2298DOPC   C1B26961  21.524  32.438  12.652 -0.2270  0.0198 -0.0788
 2298DOPC   D2B26962  21.334  32.168  12.987 -0.0259  0.0792 -0.3363
 2298DOPC   C3B26963  21.430  32.141  13.435 -0.1887 -0.0413  0.0624
 2298DOPC   C4B26964  21.229  32.425  13.756 -0.4049  0.0427  0.0004
 2299DOPC   NC326965  17.608  31.234  12.453  0.0863 -0.1983  0.1379
 2299DOPC   PO426966  17.955  31.180  12.298 -0.2178  0.1572 -0.1433
 2299DOPC   GL126967  17.943  31.602  12.339  0.3072  0.1406  0.0358
 2299DOPC   GL226968  18.179  31.640  12.426 -0.3353 -0.2226  0.1592
 2299DOPC   C1A26969  17.955  32.067  12.255 -0.0514  0.0114  0.3329
 2299DOPC   D2A26970  17.930  32.408  12.591  0.0332 -0.1779 -0.1042
 2299DOPC   C3A26971  17.668  32.582  12.911  0.1320 -0.0803  0.1208
 2299DOPC   C4A26972  17.833  32.856  13.292 -0.2385 -0.0498 -0.0672
 2299DOPC   C1B26973  18.190  31.955  12.768 -0.1870  0.1650 -0.0280
 2299DOPC   D2B26974  18.003  32.263  13.080 -0.2624 -0.3315  0.2958
 2299DOPC   C3B26975  17.907  32.130  13.491  0.0009 -0.1012  0.0062
 2299DOPC   C4B26976  18.077  31.909  13.874 -0.1129 -0.3037  0.1156
 2300POSM   NC326977  13.956  28.492  12.702 -0.1370 -0.0866 -0.0712
 2300POSM   PO426978  13.675  28.337  12.453 -0.2157 -0.0005  0.0913
 2300POSM   AM126979  13.468  28.424  12.697  0.1559 -0.3075  0.3868
 2300POSM   AM226980  13.427  28.719  12.756 -0.1992  0.0225 -0.0288
 2300POSM   T1A26981  13.076  28.478  13.052  0.0238  0.3598  0.2591
 2300POSM   C2A26982  12.669  28.614  13.122 -0.0889  0.1051 -0.0391
 2300POSM   C3A26983  12.303  28.776  13.358  0.0177 -0.2359 -0.1592
 2300POSM   C1B26984  13.309  28.912  12.998 -0.0758 -0.1152 -0.2085
 2300POSM   D2B26985  13.252  29.269  13.284  0.0569 -0.0252  0.1324
 2300POSM   C3B26986  13.006  29.164  13.701  0.0082  0.1281 -0.3829
 2300POSM   C4B26987  12.856  28.861  13.967 -0.0304 -0.2485 -0.0578
 2301POSM   NC326988  20.391  29.379  12.698  0.1055 -0.3559  0.1188
 2301POSM   PO426989  20.747  29.182  12.631 -0.0179 -0.0591  0.0386
 2301POSM   AM126990  20.712  28.990  12.952  0.2957 -0.2862  0.1254
 2301POSM   AM226991  20.750  29.231  13.136  0.0507 -0.2133  0.1347
 2301POSM   T1A26992  20.486  28.737  13.219  0.1269 -0.1544  0.0085
 2301POSM   C2A26993  20.510  28.318  13.442  0.2862 -0.0029 -0.3547
 2301POSM   C3A26994  20.633  27.937  13.697  0.0552  0.3025 -0.0933
 2301POSM   C1B26995  20.435  29.259  13.161 -0.1679  0.2323  0.2268
 2301POSM   D2B26996  19.989  29.192  13.211  0.4789  0.0590 -0.0311
 2301POSM   C3B26997  19.778  29.461  12.891  0.0325 -0.0993 -0.2036
 2301POSM   C4B26998  19.440  29.768  12.805  0.0309 -0.2292 -0.0228
 2302DOPS   CNO26999  19.447  24.886  12.266  0.1136  0.0057 -0.1052
 2302DOPS   PO427000  19.780  24.892  12.474  0.1861  0.1048 -0.2474
 2302DOPS   GL127001  19.919  25.226  12.308 -0.2122 -0.1564  0.0351
 2302DOPS   GL227002  20.182  25.054  12.199 -0.1827 -0.0951 -0.0844
 2302DOPS   C1A27003  19.772  25.587  12.562  0.0340 -0.2137  0.0777
 2302DOPS   D2A27004  19.442  25.737  12.899  0.1935  0.0444  0.0047
 2302DOPS   C3A27005  19.789  25.679  13.172 -0.1605  0.3342  0.1460
 2302DOPS   C4A27006  20.012  25.263  13.225 -0.0586 -0.1091 -0.1310
 2302DOPS   C1B27007  20.556  25.250  12.061  0.1199  0.0390 -0.0287
 2302DOPS   D2B27008  20.948  25.225  11.883 -0.1412  0.2147 -0.1533
 2302DOPS   C3B27009  21.295  25.497  11.908 -0.0323  0.1175 -0.0300
 2302DOPS   C4B27010  21.713  25.681  11.886 -0.0131 -0.0910  0.0038
 2303DOPE   NH327011  19.398  30.975  12.637 -0.1574  0.0250 -0.2481
 2303DOPE   PO427012  19.125  30.903  12.865  0.1758 -0.1526  0.0232
 2303DOPE   GL127013  19.354  30.917  13.122 -0.0226  0.2288  0.1099
 2303DOPE   GL227014  19.659  30.718  13.060  0.2541 -0.1016 -0.2748
 2303DOPE   C1A27015  19.575  31.121  13.496  0.1251  0.2791 -0.1551
 2303DOPE   D2A27016  19.623  31.410  13.830  0.1677  0.0498  0.0266
 2303DOPE   C3A27017  19.227  31.611  13.861 -0.1531 -0.0846  0.0938
 2303DOPE   C4A27018  18.777  31.575  13.779  0.0975 -0.1858 -0.2658
 2303DOPE   C1B27019  19.996  30.986  12.899  0.2047 -0.0033  0.2420
 2303DOPE   D2B27020  20.139  31.018  12.498 -0.0175 -0.3195  0.0823
 2303DOPE   C3B27021  20.041  31.361  12.266  0.0075 -0.1386 -0.0775
 2303DOPE   C4B27022  20.291  31.716  12.063 -0.0845 -0.2617  0.4749
 2304DOPC   NC327023  19.011  27.548  13.039  0.1987  0.0341  0.1248
 2304DOPC   PO427024  18.701  27.323  12.908  0.1654 -0.2447 -0.2469
 2304DOPC   GL127025  18.503  27.565  13.176  0.0004  0.3958  0.0744
 2304DOPC   GL227026  18.242  27.647  13.054 -0.0119  0.3702 -0.0970
 2304DOPC   C1A27027  18.818  27.617  13.538 -0.2001 -0.0594  0.0611
 2304DOPC   D2A27028  18.927  27.374  13.876 -0.4176  0.1356  0.0098
 2304DOPC   C3A27029  19.004  26.909  13.869 -0.2225  0.1217 -0.3696
 2304DOPC   C4A27030  19.299  26.605  13.959  0.0724 -0.0701 -0.1261
 2304DOPC   C1B27031  18.133  27.696  13.423 -0.0962 -0.1446  0.1258
 2304DOPC   D2B27032  17.744  27.868  13.646 -0.3254 -0.0495  0.0876
 2304DOPC   C3B27033  17.846  27.696  14.050 -0.3655 -0.2775 -0.1673
 2304DOPC   C4B27034  18.168  27.821  14.398  0.2699  0.2496 -0.2340
 2305DOPC   NC327035  16.702  30.845  12.803 -0.1597 -0.0073 -0.0803
 2305DOPC   PO427036  16.507  30.644  12.557  0.1538  0.3075 -0.1707
 2305DOPC   GL127037  16.262  30.999  12.844  0.1738  0.4823 -0.1683
 2305DOPC   GL227038  16.172  30.708  12.991  0.1511 -0.2769 -0.0555
 2305DOPC   C1A27039  16.489  31.111  13.228  0.1315 -0.0533 -0.0249
 2305DOPC   D2A27040  16.396  31.308  13.595 -0.0908  0.1789 -0.0118
 2305DOPC   C3A27041  16.220  31.291  14.022  0.0911 -0.0753 -0.0435
 2305DOPC   C4A27042  15.862  31.426  14.254  0.1827  0.1270 -0.1595
 2305DOPC   C1B27043  16.297  30.623  13.410  0.1786 -0.2642  0.0419
 2305DOPC   D2B27044  16.394  30.688  13.813  0.0807 -0.3016 -0.1514
 2305DOPC   C3B27045  16.486  30.237  13.892 -0.1630 -0.1198  0.3638
 2305DOPC   C4B27046  16.786  30.001  14.165 -0.0594  0.2671  0.0042
 2306DOPC   NC327047  15.511  32.106  12.073 -0.0693  0.0649  0.0098
 2306DOPC   PO427048  15.795  31.900  11.857 -0.0961 -0.0653  0.0374
 2306DOPC   GL127049  16.086  32.132  12.068  0.1128  0.1112 -0.3433
 2306DOPC   GL227050  16.208  31.896  12.295  0.2719  0.0286 -0.2727
 2306DOPC   C1A27051  16.415  32.451  11.958 -0.0716  0.2427 -0.0053
 2306DOPC   D2A27052  16.832  32.581  11.980  0.2090 -0.0103 -0.2608
 2306DOPC   C3A27053  16.990  32.869  12.258  0.1409 -0.0803 -0.1015
 2306DOPC   C4A27054  17.191  32.742  12.682  0.1138 -0.2082  0.0256
 2306DOPC   C1B27055  16.548  32.118  12.299 -0.0766  0.2140  0.0175
 2306DOPC   D2B27056  16.703  32.542  12.433 -0.0356  0.2141 -0.0702
 2306DOPC   C3B27057  16.540  32.598  12.853  0.0287  0.1616 -0.0391
 2306DOPC   C4B27058  16.562  32.940  13.153  0.5446 -0.3526 -0.1489
 2307DOPE   NH327059  19.847  23.506  12.472  0.2661  0.1068 -0.0965
 2307DOPE   PO427060  19.643  23.677  12.631  0.4518  0.0171 -0.2212
 2307DOPE   GL127061  19.470  23.491  12.860 -0.1243  0.2190  0.1216
 2307DOPE   GL227062  19.601  23.523  13.074  0.0324 -0.0615 -0.1117
 2307DOPE   C1A27063  19.225  23.350  13.328  0.2329 -0.1498 -0.1440
 2307DOPE   D2A27064  18.845  23.124  13.483 -0.0589  0.1872  0.1188
 2307DOPE   C3A27065  18.432  23.265  13.408 -0.3748 -0.1997 -0.1387
 2307DOPE   C4A27066  17.987  23.315  13.282  0.2023  0.1211  0.0427
 2307DOPE   C1B27067  19.208  23.821  13.081  0.0183 -0.5846  0.1540
 2307DOPE   D2B27068  19.262  24.248  13.173 -0.3432 -0.1396  0.2546
 2307DOPE   C3B27069  19.517  24.290  13.562  0.0163 -0.2434  0.1572
 2307DOPE   C4B27070  19.543  24.024  13.905 -0.0551 -0.0708  0.0222
 2308DOPC   NC327071  22.958  30.468  12.775 -0.1021 -0.0651 -0.3196
 2308DOPC   PO427072  22.771  30.785  12.695 -0.1784  0.0558  0.1877
 2308DOPC   GL127073  22.536  30.797  12.950 -0.1494 -0.3114  0.0521
 2308DOPC   GL227074  22.337  30.969  12.881 -0.0995  0.0662  0.1290
 2308DOPC   C1A27075  22.224  30.719  13.355  0.2539  0.0961  0.0622
 2308DOPC   D2A27076  22.114  30.719  13.845 -0.0639 -0.0328  0.2631
 2308DOPC   C3A27077  22.156  31.110  14.136  0.0787  0.1594 -0.0860
 2308DOPC   C4A27078  22.059  31.098  14.567  0.0163 -0.0167 -0.0746
 2308DOPC   C1B27079  21.883  30.995  12.879  0.0236  0.3972 -0.0772
 2308DOPC   D2B27080  21.447  30.990  13.068 -0.2141 -0.3829 -0.1118
 2308DOPC   C3B27081  21.303  30.762  13.465  0.0759  0.0481  0.0859
 2308DOPC   C4B27082  20.984  30.516  13.728 -0.2438 -0.0342 -0.1421
 2309POSM   NC327083  14.342  26.875  12.629 -0.2568 -0.0498 -0.0265
 2309POSM   PO427084  14.484  27.193  12.437 -0.3059 -0.0033  0.2558
 2309POSM   AM127085  14.731  27.123  12.657  0.0215  0.1736 -0.2709
 2309POSM   AM227086  14.782  26.911  12.848  0.2777 -0.1757  0.0236
 2309POSM   T1A27087  14.962  27.307  13.127  0.0058  0.2318  0.2642
 2309POSM   C2A27088  15.298  27.508  13.350 -0.0223  0.0109 -0.2928
 2309POSM   C3A27089  15.744  27.721  13.460  0.0319 -0.0426 -0.2805
 2309POSM   C1B27090  14.776  26.740  13.109  0.0606  0.0392 -0.2948
 2309POSM   D2B27091  14.682  26.673  13.605  0.3577 -0.0318  0.0152
 2309POSM   C3B27092  14.564  27.002  13.973 -0.0429 -0.1027  0.0482
 2309POSM   C4B27093  14.191  27.166  14.152 -0.2012  0.0488  0.2710
 2310DOPS   CNO27094  13.329  22.983  11.993  0.0819  0.0429  0.1414
 2310DOPS   PO427095  13.665  22.785  12.042  0.0682  0.1674 -0.0266
 2310DOPS   GL127096  13.837  22.532  12.277  0.1806  0.2296 -0.1014
 2310DOPS   GL227097  13.940  22.577  12.559  0.0735 -0.1282 -0.2354
 2310DOPS   C1A27098  14.046  22.136  12.364  0.0695 -0.1350 -0.2443
 2310DOPS   D2A27099  14.063  21.821  12.750 -0.2069 -0.1151 -0.1868
 2310DOPS   C3A27100  14.054  21.630  13.160  0.0181  0.0924  0.2409
 2310DOPS   C4A27101  13.969  21.577  13.647  0.0119 -0.0256 -0.1958
 2310DOPS   C1B27102  13.972  22.695  12.967  0.4270 -0.0118 -0.1832
 2310DOPS   D2B27103  14.389  22.638  13.226  0.0678 -0.0924  0.3511
 2310DOPS   C3B27104  14.453  22.528  13.674 -0.0461 -0.1528  0.0882
 2310DOPS   C4B27105  14.408  22.473  14.136  0.3346 -0.1593  0.1017
 2311DOPE   NH327106  13.380  28.811  12.255 -0.1569 -0.1561 -0.2064
 2311DOPE   PO427107  13.091  28.896  12.228 -0.0650  0.1189 -0.0518
 2311DOPE   GL127108  13.191  29.036  12.575 -0.0386  0.1526 -0.3898
 2311DOPE   GL227109  13.406  29.256  12.540  0.0450  0.1891  0.0301
 2311DOPE   C1A27110  12.952  29.303  12.887  0.0379 -0.4333  0.2026
 2311DOPE   D2A27111  12.730  29.117  13.277  0.0637  0.1357  0.2703
 2311DOPE   C3A27112  12.978  28.766  13.448  0.1468  0.0549 -0.0709
 2311DOPE   C4A27113  13.181  28.516  13.815  0.1868 -0.1674 -0.0717
 2311DOPE   C1B27114  13.358  29.574  12.894  0.1567 -0.0166 -0.0242
 2311DOPE   D2B27115  13.450  29.773  13.291 -0.1474 -0.2251 -0.0245
 2311DOPE   C3B27116  13.238  30.157  13.471  0.1612 -0.3411  0.1632
 2311DOPE   C4B27117  13.053  30.511  13.668  0.2981  0.0211 -0.3499
 2312POSM   NC327118  11.303  26.411  12.391 -0.1586  0.2541 -0.0980
 2312POSM   PO427119  11.615  26.623  12.308 -0.2878 -0.0630 -0.1954
 2312POSM   AM127120  11.886  26.495  12.475  0.0475 -0.3773 -0.0112
 2312POSM   AM227121  12.006  26.264  12.476 -0.2433 -0.3365  0.1236
 2312POSM   T1A27122  12.201  26.373  12.887 -0.1111  0.0689 -0.0976
 2312POSM   C2A27123  12.413  26.075  13.190  0.2533  0.1882  0.0401
 2312POSM   C3A27124  12.550  25.641  13.358 -0.4890 -0.1194  0.0783
 2312POSM   C1B27125  12.163  25.988  12.560  0.1153 -0.1861 -0.0729
 2312POSM   D2B27126  12.362  25.632  12.877 -0.0995 -0.4804 -0.0440
 2312POSM   C3B27127  12.190  25.341  13.207  0.0666 -0.0387  0.2526
 2312POSM   C4B27128  11.856  25.457  13.552  0.0659  0.1834  0.2407
 2313DOPC   NC327129  17.410  27.208  12.224  0.0436 -0.2624  0.2009
 2313DOPC   PO427130  17.836  27.253  12.170  0.2718 -0.0082  0.1097
 2313DOPC   GL127131  17.768  27.287  12.569  0.2013 -0.2097 -0.1107
 2313DOPC   GL227132  17.887  27.609  12.525 -0.1096 -0.0257 -0.0405
 2313DOPC   C1A27133  17.401  27.541  12.659 -0.4280  0.1486  0.0897
 2313DOPC   D2A27134  17.140  27.898  12.876  0.1406  0.0194 -0.0884
 2313DOPC   C3A27135  17.368  27.982  13.273 -0.1455 -0.0714 -0.3531
 2313DOPC   C4A27136  17.267  28.295  13.611 -0.1221  0.0085 -0.1728
 2313DOPC   C1B27137  17.704  28.022  12.732  0.3104  0.2484 -0.3352
 2313DOPC   D2B27138  17.776  28.498  12.921 -0.1433  0.2598 -0.0410
 2313DOPC   C3B27139  17.447  28.712  13.102  0.1852 -0.1750  0.2285
 2313DOPC   C4B27140  17.088  28.734  13.385 -0.0341  0.0311 -0.2236
 2314DOPS   CNO27141  13.677  23.422  12.059 -0.0125 -0.0836 -0.2939
 2314DOPS   PO427142  13.699  23.572  12.432 -0.0704 -0.0730  0.0198
 2314DOPS   GL127143  14.045  23.804  12.637  0.2116 -0.1208 -0.1050
 2314DOPS   GL227144  13.890  23.877  12.866  0.0507  0.1320 -0.0226
 2314DOPS   C1A27145  14.298  24.155  12.826  0.0379  0.1396  0.0451
 2314DOPS   D2A27146  14.438  24.120  13.283 -0.1482 -0.1303  0.1950
 2314DOPS   C3A27147  14.048  23.943  13.582  0.2227  0.0919 -0.3058
 2314DOPS   C4A27148  13.877  24.172  13.841  0.0993 -0.0925 -0.2818
 2314DOPS   C1B27149  14.277  23.679  13.036 -0.1251  0.0662  0.2994
 2314DOPS   D2B27150  14.571  23.644  13.320  0.1490 -0.3985  0.2756
 2314DOPS   C3B27151  14.633  23.948  13.694 -0.2430 -0.0442  0.0651
 2314DOPS   C4B27152  14.358  24.315  13.850  0.0822 -0.2968  0.1536
 2315DOPC   NC327153  13.505  27.572  12.408 -0.1342  0.0585  0.1314
 2315DOPC   PO427154  13.431  27.902  12.562 -0.3132  0.0216 -0.1718
 2315DOPC   GL127155  13.260  27.574  12.839  0.0837 -0.0111  0.3058
 2315DOPC   GL227156  13.383  27.607  13.114  0.0613 -0.1882 -0.1964
 2315DOPC   C1A27157  12.949  27.818  13.101  0.0502 -0.0252 -0.0323
 2315DOPC   D2A27158  12.979  28.159  13.476 -0.3678  0.0842  0.1053
 2315DOPC   C3A27159  13.000  28.076  13.928 -0.1556  0.0051 -0.1595
 2315DOPC   C4A27160  13.245  27.788  14.222 -0.0783 -0.2826 -0.0379
 2315DOPC   C1B27161  13.708  27.264  13.300 -0.0863  0.1240  0.0845
 2315DOPC   D2B27162  13.786  26.803  13.399  0.2168  0.0959  0.0344
 2315DOPC   C3B27163  13.523  26.661  13.823 -0.0189  0.2320  0.1456
 2315DOPC   C4B27164  13.602  26.809  14.253  0.1922  0.1577 -0.2622
 2316DOPC   NC327165  17.521  26.419  12.503  0.1086 -0.1312 -0.0573
 2316DOPC   PO427166  17.287  26.478  12.791 -0.1591 -0.1450  0.0480
 2316DOPC   GL127167  17.065  26.415  13.056  0.0916 -0.1182 -0.1498
 2316DOPC   GL227168  16.897  26.238  12.917  0.2524 -0.2539 -0.1113
 2316DOPC   C1A27169  16.960  26.576  13.485 -0.0799 -0.1033 -0.1846
 2316DOPC   D2A27170  16.859  26.777  13.906 -0.0721  0.3220  0.0478
 2316DOPC   C3A27171  16.481  27.026  13.882 -0.6035 -0.2767  0.0619
 2316DOPC   C4A27172  16.100  27.222  13.976 -0.1166  0.0712  0.1348
 2316DOPC   C1B27173  16.613  26.532  13.207 -0.0956 -0.0236  0.4519
 2316DOPC   D2B27174  16.507  26.803  13.508 -0.0139  0.0502  0.0839
 2316DOPC   C3B27175  16.143  26.946  13.295 -0.0086  0.3064  0.0987
 2316DOPC   C4B27176  15.741  27.126  13.231  0.0752 -0.2487  0.0914
 2317DOPE   NH327177  18.358  26.197  12.817  0.2813  0.0200 -0.1594
 2317DOPE   PO427178  18.216  26.111  13.104 -0.0854 -0.2038 -0.1345
 2317DOPE   GL127179  18.251  25.863  13.402 -0.0339  0.5842  0.2071
 2317DOPE   GL227180  18.289  25.614  13.235  0.0660  0.0829 -0.0798
 2317DOPE   C1A27181  18.146  25.820  13.891  0.0335 -0.2721 -0.0378
 2317DOPE   D2A27182  17.738  25.889  14.041 -0.1317  0.1074 -0.1948
 2317DOPE   C3A27183  17.703  26.357  14.159  0.1248 -0.1916  0.0648
 2317DOPE   C4A27184  17.838  26.682  14.435 -0.2223 -0.0459  0.1749
 2317DOPE   C1B27185  17.983  25.380  13.532 -0.2094 -0.1631 -0.1601
 2317DOPE   D2B27186  18.171  25.047  13.796 -0.0115  0.1346 -0.1851
 2317DOPE   C3B27187  18.535  24.756  13.627 -0.1098 -0.1308 -0.1060
 2317DOPE   C4B27188  18.869  24.508  13.776  0.0463 -0.0380  0.1507
 2318DOPC   NC327189  14.054  26.978  12.203  0.0061  0.3773 -0.1466
 2318DOPC   PO427190  14.231  26.612  12.188  0.1186 -0.0336  0.1104
 2318DOPC   GL127191  14.003  26.562  12.467  0.3804  0.2964  0.1864
 2318DOPC   GL227192  13.668  26.600  12.325  0.0573  0.2411  0.1264
 2318DOPC   C1A27193  13.930  26.159  12.658 -0.1482 -0.4108  0.0204
 2318DOPC   D2A27194  13.634  25.917  12.862  0.0770  0.1068  0.1088
 2318DOPC   C3A27195  13.352  25.542  12.815  0.0583  0.3736 -0.3049
 2318DOPC   C4A27196  13.202  25.184  12.522 -0.3423  0.0914 -0.0314
 2318DOPC   C1B27197  13.393  26.299  12.489  0.4610  0.0652 -0.3682
 2318DOPC   D2B27198  13.092  26.025  12.735  0.2194 -0.3153 -0.1479
 2318DOPC   C3B27199  12.916  25.736  13.019 -0.2111  0.0734  0.0489
 2318DOPC   C4B27200  13.098  25.555  13.400  0.1315 -0.2323 -0.0224
 2319DOPC   NC327201  18.402  34.247  12.334 -0.0040 -0.1290 -0.0746
 2319DOPC   PO427202  18.753  34.319  12.342 -0.0710  0.0233  0.0333
 2319DOPC   GL127203  19.066  34.162  12.657  0.0206  0.0079 -0.3232
 2319DOPC   GL227204  19.331  34.278  12.458 -0.2866  0.1567 -0.2780
 2319DOPC   C1A27205  19.082  33.886  13.045  0.0156 -0.2444  0.0578
 2319DOPC   D2A27206  18.835  33.751  13.405  0.0849 -0.0054  0.1115
 2319DOPC   C3A27207  18.604  33.358  13.400 -0.0149  0.3283 -0.1162
 2319DOPC   C4A27208  18.438  32.941  13.311 -0.2064  0.1990 -0.1709
 2319DOPC   C1B27209  19.572  34.038  12.793  0.0041  0.1182  0.1264
 2319DOPC   D2B27210  19.627  34.113  13.228 -0.0103 -0.1771 -0.1103
 2319DOPC   C3B27211  19.643  33.869  13.608 -0.1069 -0.0627  0.0535
 2319DOPC   C4B27212  19.766  33.539  13.940  0.1925  0.2314 -0.1588
 2320POSM   NC327213  17.794  34.079  12.433  0.1966  0.0875  0.3437
 2320POSM   PO427214  17.522  34.359  12.396  0.1249 -0.1928  0.1258
 2320POSM   AM127215  17.304  34.141  12.483 -0.2200  0.2313 -0.0077
 2320POSM   AM227216  17.210  34.205  12.764 -0.0142 -0.2425 -0.2379
 2320POSM   T1A27217  17.053  33.716  12.569 -0.1122  0.1265  0.2296
 2320POSM   C2A27218  16.628  33.462  12.694 -0.2131  0.0826 -0.1543
 2320POSM   C3A27219  16.757  33.028  12.688 -0.1259  0.2360  0.1103
 2320POSM   C1B27220  17.114  34.036  13.043 -0.0561 -0.1960  0.0209
 2320POSM   D2B27221  16.889  33.752  13.343  0.5284  0.1816  0.2124
 2320POSM   C3B27222  16.882  33.305  13.257  0.1861 -0.1741 -0.1255
 2320POSM   C4B27223  16.945  32.921  13.469  0.0954  0.1689 -0.2285
 2321DOPE   NH327224  17.887  26.802  12.560  0.1161 -0.2179 -0.0464
 2321DOPE   PO427225  17.687  26.862  12.767  0.1872 -0.2553  0.0349
 2321DOPE   GL127226  17.245  26.998  12.757  0.0010  0.1555 -0.4060
 2321DOPE   GL227227  17.091  26.913  13.036  0.1719  0.1513  0.0439
 2321DOPE   C1A27228  16.952  27.341  12.807  0.1449  0.2914  0.0707
 2321DOPE   D2A27229  16.898  27.682  12.493 -0.1886  0.0970  0.0976
 2321DOPE   C3A27230  17.174  27.779  12.186 -0.2289 -0.0493 -0.4463
 2321DOPE   C4A27231  17.523  27.749  11.889  0.1138  0.0644  0.2554
 2321DOPE   C1B27232  16.941  27.102  13.456 -0.1570 -0.1421 -0.0369
 2321DOPE   D2B27233  16.875  27.410  13.764 -0.0755 -0.4797  0.1348
 2321DOPE   C3B27234  16.952  27.226  14.161 -0.0962  0.4188  0.0359
 2321DOPE   C4B27235  17.175  27.383  14.521 -0.2298 -0.0186  0.0064
 2322DOPS   CNO27236  17.572  26.779  12.100 -0.3290 -0.0684 -0.1276
 2322DOPS   PO427237  17.264  26.760  12.326  0.2987  0.1660  0.1891
 2322DOPS   GL127238  16.948  26.908  12.406 -0.0840  0.4091 -0.1579
 2322DOPS   GL227239  16.877  26.775  12.595 -0.1738  0.2984  0.0242
 2322DOPS   C1A27240  16.620  27.269  12.398  0.0821 -0.0882 -0.2555
 2322DOPS   D2A27241  16.312  27.343  12.731 -0.0689 -0.1982 -0.1417
 2322DOPS   C3A27242  15.864  27.536  12.568  0.1211 -0.1033  0.0833
 2322DOPS   C4A27243  15.514  27.812  12.471 -0.1032 -0.0364 -0.1355
 2322DOPS   C1B27244  16.625  26.959  12.962 -0.2067 -0.1794  0.2001
 2322DOPS   D2B27245  16.539  27.290  13.290  0.0577 -0.2173  0.0115
 2322DOPS   C3B27246  16.081  27.410  13.487 -0.2644  0.1147 -0.1198
 2322DOPS   C4B27247  15.661  27.276  13.714  0.2164  0.1386  0.1390
 2323DOPC   NC327248  16.408  33.989  11.991  0.3794  0.0472  0.1348
 2323DOPC   PO427249  16.271  34.306  12.165 -0.1609 -0.2400  0.1863
 2323DOPC   GL127250  16.160  34.134  12.483 -0.0552  0.1584  0.1914
 2323DOPC   GL227251  16.128  33.854  12.414 -0.1462 -0.2906 -0.1547
 2323DOPC   C1A27252  16.088  34.169  12.976 -0.2897 -0.0510  0.0149
 2323DOPC   D2A27253  15.797  34.201  13.341  0.0425 -0.1942 -0.0907
 2323DOPC   C3A27254  15.760  34.155  13.807 -0.1824  0.0900  0.1832
 2323DOPC   C4A27255  15.834  34.223  14.218  0.1014  0.2612 -0.5084
 2323DOPC   C1B27256  16.074  33.620  12.783 -0.0093 -0.2783  0.1778
 2323DOPC   D2B27257  16.031  33.268  13.056  0.0708  0.2878  0.0773
 2323DOPC   C3B27258  15.622  33.319  13.308 -0.2026 -0.1333  0.1655
 2323DOPC   C4B27259  15.138  33.150  13.322  0.3623 -0.0981 -0.1549
 2324DOPE   NH327260  12.669  27.341  12.248  0.0988  0.1332  0.0560
 2324DOPE   PO427261  12.446  27.554  12.224  0.2897 -0.1137  0.4086
 2324DOPE   GL127262  12.364  27.407  12.521  0.0499 -0.1218 -0.1222
 2324DOPE   GL227263  12.452  27.139  12.648 -0.1732 -0.3615  0.0859
 2324DOPE   C1A27264  12.109  27.441  12.917  0.1902 -0.3917  0.0764
 2324DOPE   D2A27265  11.707  27.592  13.024  0.2059 -0.1373  0.3213
 2324DOPE   C3A27266  11.674  27.519  13.478 -0.1804 -0.0425 -0.2889
 2324DOPE   C4A27267  11.382  27.287  13.623  0.3186 -0.1370 -0.0129
 2324DOPE   C1B27268  12.507  26.747  12.845 -0.0589 -0.3380 -0.0474
 2324DOPE   D2B27269  12.484  26.576  13.274  0.0039 -0.0976 -0.0282
 2324DOPE   C3B27270  12.544  26.981  13.474 -0.1490  0.2837  0.2000
 2324DOPE   C4B27271  12.497  27.321  13.692 -0.0246 -0.1724  0.1123
 2325DOPE   NH327272  16.969  29.752  12.215  0.1094 -0.2814  0.0110
 2325DOPE   PO427273  17.046  29.517  12.433  0.4224  0.2908  0.2496
 2325DOPE   GL127274  17.457  29.454  12.515 -0.2461 -0.1492 -0.3714
 2325DOPE   GL227275  17.436  29.432  12.786 -0.2883  0.0229  0.0531
 2325DOPE   C1A27276  17.629  29.027  12.493 -0.1297  0.3903  0.0608
 2325DOPE   D2A27277  17.430  28.678  12.311 -0.0292 -0.1768  0.4682
 2325DOPE   C3A27278  17.318  28.357  12.622 -0.0299  0.1350  0.0597
 2325DOPE   C4A27279  17.102  28.326  13.033 -0.0113 -0.3962 -0.1930
 2325DOPE   C1B27280  17.401  29.334  13.223 -0.2636  0.0644 -0.2400
 2325DOPE   D2B27281  17.528  29.399  13.659  0.1939 -0.0336  0.1071
 2325DOPE   C3B27282  17.691  29.660  14.025 -0.0608  0.1784 -0.0417
 2325DOPE   C4B27283  17.622  29.817  14.473 -0.2781 -0.0783 -0.3132
 2326POSM   NC327284  21.565  30.062  13.000  0.2231 -0.1425 -0.1995
 2326POSM   PO427285  21.342  29.936  12.736  0.0916  0.1240  0.0793
 2326POSM   AM127286  21.081  30.118  12.796  0.0603  0.0780 -0.4265
 2326POSM   AM227287  20.855  30.193  12.675  0.0993  0.1840  0.1642
 2326POSM   T1A27288  20.835  30.317  13.206  0.0118 -0.1858  0.2779
 2326POSM   C2A27289  20.545  30.641  13.312  0.1082  0.2194 -0.2458
 2326POSM   C3A27290  20.463  30.610  13.743  0.3895 -0.1916 -0.2136
 2326POSM   C1B27291  20.662  30.526  12.729 -0.4403 -0.2055  0.1186
 2326POSM   D2B27292  20.497  30.917  12.832 -0.4967  0.1716 -0.2376
 2326POSM   C3B27293  20.485  31.175  13.239 -0.3155 -0.1263  0.2747
 2326POSM   C4B27294  20.610  31.417  13.605  0.1330  0.1646  0.1539
 2327POSM   NC327295  21.120  33.720  12.581  0.0881 -0.0943  0.1429
 2327POSM   PO427296  20.787  33.942  12.626 -0.1222  0.0209 -0.2129
 2327POSM   AM127297  20.673  33.613  12.711 -0.1209  0.3967  0.2149
 2327POSM   AM227298  20.810  33.371  12.771  0.1604 -0.1501 -0.2145
 2327POSM   T1A27299  20.345  33.309  12.502 -0.1004  0.0374 -0.1032
 2327POSM   C2A27300  19.916  33.242  12.608 -0.2522  0.0457 -0.0589
 2327POSM   C3A27301  19.699  33.006  12.926  0.2358 -0.0732  0.2986
 2327POSM   C1B27302  20.638  33.267  13.080  0.2151 -0.0489  0.0249
 2327POSM   D2B27303  20.505  32.985  13.422 -0.0171 -0.1201 -0.0442
 2327POSM   C3B27304  20.492  32.940  13.891  0.2408  0.0318 -0.0290
 2327POSM   C4B27305  20.595  33.072  14.327 -0.4139  0.0185  0.3612
 2328DOPC   NC327306  12.682  28.400  12.080  0.0820 -0.0127 -0.0384
 2328DOPC   PO427307  12.713  28.021  12.213  0.1986 -0.3161  0.0356
 2328DOPC   GL127308  12.518  28.133  12.496 -0.1882  0.1542  0.1382
 2328DOPC   GL227309  12.296  27.927  12.517 -0.0338 -0.2637 -0.0510
 2328DOPC   C1A27310  12.621  28.187  12.972  0.1491 -0.0868 -0.0056
 2328DOPC   D2A27311  12.404  28.299  13.364  0.1515 -0.1169 -0.4304
 2328DOPC   C3A27312  12.212  28.157  13.809  0.0797 -0.2266 -0.0806
 2328DOPC   C4A27313  12.019  27.926  14.137 -0.0283 -0.1110 -0.0949
 2328DOPC   C1B27314  12.217  27.995  12.963 -0.0520 -0.3000 -0.1551
 2328DOPC   D2B27315  12.148  27.738  13.338  0.3761 -0.2617 -0.0132
 2328DOPC   C3B27316  11.790  27.999  13.451  0.1624 -0.3405  0.1418
 2328DOPC   C4B27317  11.573  28.418  13.685  0.1546  0.3350 -0.2645
 2329DOPC   NC327318  17.158  34.284  12.046  0.0753 -0.0855  0.0739
 2329DOPC   PO427319  16.880  34.300  11.743 -0.1337 -0.0437 -0.3397
 2329DOPC   GL127320  16.849  33.943  11.771 -0.1038  0.0723 -0.2707
 2329DOPC   GL227321  16.888  33.823  12.036 -0.0836 -0.1035  0.2383
 2329DOPC   C1A27322  16.637  33.528  11.726 -0.0485 -0.2281 -0.1016
 2329DOPC   D2A27323  16.749  33.097  11.872 -0.0341 -0.2389 -0.1971
 2329DOPC   C3A27324  16.449  32.911  12.192  0.3765  0.1818  0.0164
 2329DOPC   C4A27325  16.289  32.936  12.631  0.2317 -0.1177 -0.0500
 2329DOPC   C1B27326  16.665  33.444  12.241 -0.4617  0.2037 -0.0201
 2329DOPC   D2B27327  16.248  33.447  12.114 -0.2326 -0.2356  0.0322
 2329DOPC   C3B27328  15.998  33.149  12.024  0.1170 -0.1984 -0.1927
 2329DOPC   C4B27329  15.716  32.860  11.820  0.4036  0.0228 -0.0825
 2330DOPC   NC327330  18.757  30.270  12.613  0.2422 -0.1544  0.0743
 2330DOPC   PO427331  18.414  30.333  12.579 -0.1840 -0.2732  0.0262
 2330DOPC   GL127332  18.455  30.075  12.989 -0.5232  0.1388  0.0008
 2330DOPC   GL227333  18.310  30.319  13.067 -0.1063  0.1864  0.1798
 2330DOPC   C1A27334  18.413  29.823  13.325 -0.0132 -0.0474 -0.3108
 2330DOPC   D2A27335  18.566  29.547  13.640 -0.0642  0.0553  0.0923
 2330DOPC   C3A27336  18.811  29.164  13.761  0.0031  0.0250 -0.1208
 2330DOPC   C4A27337  18.750  28.713  13.798 -0.2051  0.3191  0.1255
 2330DOPC   C1B27338  18.386  30.300  13.566 -0.1753 -0.1404  0.0846
 2330DOPC   D2B27339  18.400  30.160  14.036  0.0182  0.0268 -0.0790
 2330DOPC   C3B27340  18.000  30.082  14.313 -0.3749  0.0232  0.1032
 2330DOPC   C4B27341  17.672  30.323  14.571  0.0015  0.1410  0.1433
 2331POSM   NC327342  15.058  27.142  12.270  0.3006  0.3966  0.1089
 2331POSM   PO427343  15.191  26.797  12.105 -0.1310 -0.1383 -0.1221
 2331POSM   AM127344  15.235  26.736  12.411  0.4045 -0.2711  0.0428
 2331POSM   AM227345  15.142  26.618  12.662 -0.2125  0.0854  0.0423
 2331POSM   T1A27346  15.485  26.997  12.802  0.1047 -0.1215 -0.2724
 2331POSM   C2A27347  15.920  27.036  12.759  0.2882  0.1299  0.2733
 2331POSM   C3A27348  16.263  26.808  12.477 -0.0538 -0.0718 -0.1000
 2331POSM   C1B27349  15.058  26.357  12.865  0.1628 -0.0260 -0.1267
 2331POSM   D2B27350  14.758  26.173  13.136  0.1670 -0.5094  0.1424
 2331POSM   C3B27351  14.741  25.828  12.762  0.0525 -0.2998 -0.0059
 2331POSM   C4B27352  14.847  25.711  12.339 -0.0565 -0.1735  0.0533
 2332DOPC   NC327353  13.552  33.621  11.603 -0.0166  0.0553  0.2339
 2332DOPC   PO427354  13.324  33.299  11.570  0.1728 -0.1276 -0.0532
 2332DOPC   GL127355  13.319  33.243  12.046 -0.2587  0.2131 -0.0671
 2332DOPC   GL227356  13.059  33.353  12.179 -0.1241 -0.0161  0.3118
 2332DOPC   C1A27357  13.581  32.858  12.218  0.0389  0.2317 -0.1389
 2332DOPC   D2A27358  13.660  32.706  12.654 -0.1157  0.1193 -0.1633
 2332DOPC   C3A27359  13.755  32.894  13.078 -0.1270 -0.1287 -0.1430
 2332DOPC   C4A27360  14.000  33.258  13.200  0.1919  0.0325 -0.0290
 2332DOPC   C1B27361  13.158  33.026  12.467 -0.1798  0.2811 -0.0937
 2332DOPC   D2B27362  13.295  32.984  12.913  0.4846  0.1806 -0.0007
 2332DOPC   C3B27363  13.490  33.368  13.137 -0.1431  0.2646  0.1301
 2332DOPC   C4B27364  13.323  33.809  13.260  0.2159 -0.2420  0.1877
 2333POSM   NC327365  22.468  27.574  12.725  0.3316  0.0046 -0.0974
 2333POSM   PO427366  22.150  27.411  12.872 -0.0772 -0.1243 -0.1165
 2333POSM   AM127367  22.037  27.547  13.156 -0.0399  0.0470  0.2269
 2333POSM   AM227368  22.122  27.738  13.342 -0.0441  0.2773  0.1420
 2333POSM   T1A27369  21.714  27.522  13.490  0.0397  0.1287 -0.4933
 2333POSM   C2A27370  21.769  27.284  13.852  0.0030 -0.0278  0.2432
 2333POSM   C3A27371  22.009  26.925  14.020 -0.1108 -0.2151  0.0199
 2333POSM   C1B27372  22.062  27.866  13.611  0.5976  0.0666 -0.0666
 2333POSM   D2B27373  21.790  27.826  13.967  0.1088 -0.1741  0.3002
 2333POSM   C3B27374  21.348  27.664  13.746  0.3032  0.1975  0.1102
 2333POSM   C4B27375  20.948  27.444  13.706 -0.1237 -0.2177  0.0910
 2334DOPS   CNO27376  20.479  24.609  12.144  0.1537  0.0691 -0.1487
 2334DOPS   PO427377  20.362  24.243  12.225 -0.1778 -0.0550  0.1991
 2334DOPS   GL127378  20.285  24.392  12.564 -0.3991 -0.1292 -0.0347
 2334DOPS   GL227379  20.295  24.694  12.577 -0.0678 -0.0121  0.3425
 2334DOPS   C1A27380  20.242  24.549  13.022  0.0217  0.1749 -0.0292
 2334DOPS   D2A27381  20.503  24.863  13.253 -0.4425  0.4715 -0.1075
 2334DOPS   C3A27382  20.668  25.250  13.119 -0.0773  0.1548  0.0369
 2334DOPS   C4A27383  20.996  25.565  13.019  0.0869 -0.1471  0.0639
 2334DOPS   C1B27384  20.278  25.084  12.777  0.2505  0.1669  0.1364
 2334DOPS   D2B27385  20.242  25.585  12.846 -0.1157 -0.1598  0.1639
 2334DOPS   C3B27386  20.379  25.595  13.320  0.0875 -0.2218 -0.0674
 2334DOPS   C4B27387  20.638  25.318  13.623 -0.1041 -0.1069 -0.1279
 2335DOPC   NC327388  17.087  30.113  13.133  0.2198  0.0125 -0.1820
 2335DOPC   PO427389  17.079  29.870  12.856  0.1162 -0.2073 -0.1444
 2335DOPC   GL127390  16.944  29.503  13.023 -0.1433 -0.3552  0.1258
 2335DOPC   GL227391  17.009  29.610  13.310 -0.1977  0.0719 -0.4381
 2335DOPC   C1A27392  17.054  29.150  12.959  0.2270 -0.1587 -0.2238
 2335DOPC   D2A27393  17.015  28.728  12.680 -0.0064  0.0140 -0.1422
 2335DOPC   C3A27394  16.720  28.328  12.568  0.0026 -0.0351  0.0185
 2335DOPC   C4A27395  16.573  27.983  12.250  0.3702 -0.1472  0.0731
 2335DOPC   C1B27396  17.016  29.293  13.600  0.2127  0.0546  0.0356
 2335DOPC   D2B27397  17.210  29.059  13.948 -0.0247 -0.1548  0.0248
 2335DOPC   C3B27398  17.705  29.082  14.121 -0.2426  0.2912 -0.3009
 2335DOPC   C4B27399  17.950  29.344  14.377  0.2291  0.0209 -0.0695
 2336DOPS   CNO27400  12.298  33.094  11.115 -0.1159 -0.0189 -0.1516
 2336DOPS   PO427401  12.258  33.439  11.282  0.2712 -0.2556 -0.1576
 2336DOPS   GL127402  12.455  33.238  11.589 -0.0809 -0.2159 -0.2219
 2336DOPS   GL227403  12.492  33.249  11.912 -0.1274  0.0054  0.0916
 2336DOPS   C1A27404  12.349  32.789  11.606  0.1492 -0.0102  0.1969
 2336DOPS   D2A27405  12.238  32.404  11.880  0.1529 -0.1628 -0.3648
 2336DOPS   C3A27406  12.318  32.443  12.325 -0.1913 -0.1751 -0.1215
 2336DOPS   C4A27407  12.481  32.667  12.713 -0.2181 -0.3443 -0.2498
 2336DOPS   C1B27408  12.406  32.877  12.073 -0.1886 -0.0133 -0.1397
 2336DOPS   D2B27409  12.766  32.641  12.272  0.0672 -0.1031  0.0834
 2336DOPS   C3B27410  13.017  32.534  12.630 -0.1625  0.0348  0.0049
 2336DOPS   C4B27411  13.343  32.507  13.028  0.1499 -0.0448 -0.1884
 2337DOPE   NH327412  15.922  31.456  11.948  0.0195  0.3385 -0.1081
 2337DOPE   PO427413  15.855  31.185  12.109 -0.5353  0.1917  0.0312
 2337DOPE   GL127414  15.980  31.474  12.434 -0.0548  0.2254 -0.0084
 2337DOPE   GL227415  16.294  31.425  12.394  0.1600  0.2287 -0.1268
 2337DOPE   C1A27416  16.169  31.700  12.822 -0.0085 -0.2017 -0.0151
 2337DOPE   D2A27417  16.317  32.053  13.009 -0.3109  0.1385 -0.0599
 2337DOPE   C3A27418  16.162  32.282  12.703  0.3907  0.1829  0.3945
 2337DOPE   C4A27419  15.965  32.586  12.423 -0.0754  0.2072 -0.1850
 2337DOPE   C1B27420  16.575  31.330  12.734 -0.2040  0.0268  0.0398
 2337DOPE   D2B27421  16.992  31.280  12.952  0.0291 -0.0845  0.2056
 2337DOPE   C3B27422  17.166  31.607  12.679  0.1482  0.1225 -0.2085
 2337DOPE   C4B27423  17.448  31.672  12.335  0.2376  0.0120 -0.4657
 2338DOPE   NH327424  22.760  26.291  12.381  0.0680  0.2444  0.0608
 2338DOPE   PO427425  22.904  26.147  12.607 -0.0033  0.0010  0.0198
 2338DOPE   GL127426  22.658  25.958  12.803 -0.4252  0.3261  0.1353
 2338DOPE   GL227427  22.474  25.834  12.596  0.1272  0.2831  0.0370
 2338DOPE   C1A27428  22.802  25.477  12.985  0.0406  0.0290  0.0655
 2338DOPE   D2A27429  22.666  25.198  13.358 -0.0058 -0.1556  0.1466
 2338DOPE   C3A27430  22.769  25.284  13.769  0.2557  0.4600 -0.0046
 2338DOPE   C4A27431  22.668  25.305  14.266  0.3753  0.3320 -0.0886
 2338DOPE   C1B27432  22.294  25.499  12.776 -0.0227 -0.3232 -0.0551
 2338DOPE   D2B27433  22.165  25.112  12.988 -0.2970 -0.1743  0.1884
 2338DOPE   C3B27434  22.216  24.981  13.416 -0.2849  0.1121  0.0686
 2338DOPE   C4B27435  22.528  24.718  13.653 -0.1570  0.0653  0.0729
 2339DOPE   NH327436  18.412  26.822  12.648  0.0998  0.1171 -0.1062
 2339DOPE   PO427437  18.558  26.649  12.881 -0.2614  0.0247  0.0508
 2339DOPE   GL127438  18.792  26.833  13.113 -0.5105  0.1615 -0.0962
 2339DOPE   GL227439  18.989  26.658  13.277 -0.1978 -0.0252  0.1129
 2339DOPE   C1A27440  18.714  27.080  13.479  0.3304 -0.1301 -0.2383
 2339DOPE   D2A27441  18.388  27.382  13.696  0.3558 -0.2299 -0.1153
 2339DOPE   C3A27442  18.485  27.735  13.941 -0.0538 -0.3100  0.0314
 2339DOPE   C4A27443  18.657  27.994  14.253 -0.2716 -0.2970 -0.2645
 2339DOPE   C1B27444  19.035  26.360  13.597  0.0337 -0.1900  0.0098
 2339DOPE   D2B27445  18.914  26.197  14.027 -0.0027 -0.2602  0.1583
 2339DOPE   C3B27446  18.684  25.917  14.293  0.2640  0.0329  0.4107
 2339DOPE   C4B27447  18.605  25.547  14.537 -0.1324 -0.3416  0.2172
 2340DOPC   NC327448  16.585  24.852  12.348  0.0720  0.1577  0.3815
 2340DOPC   PO427449  16.809  25.121  12.259  0.3234  0.0768 -0.1526
 2340DOPC   GL127450  17.028  25.095  12.573  0.0304  0.5321 -0.0814
 2340DOPC   GL227451  16.834  24.923  12.799  0.4565  0.2760  0.1868
 2340DOPC   C1A27452  17.402  24.938  12.805 -0.1637 -0.0657  0.0196
 2340DOPC   D2A27453  17.378  24.562  13.031  0.0788  0.3908  0.0699
 2340DOPC   C3A27454  17.102  24.226  12.821  0.1822 -0.0152  0.0198
 2340DOPC   C4A27455  16.810  23.975  12.616 -0.2772  0.5567 -0.4190
 2340DOPC   C1B27456  16.663  24.944  13.227 -0.1587  0.1302  0.2702
 2340DOPC   D2B27457  16.491  24.950  13.638 -0.0870 -0.1713  0.3600
 2340DOPC   C3B27458  16.420  25.294  13.968  0.2218 -0.3865 -0.0676
 2340DOPC   C4B27459  16.357  25.646  14.161 -0.0566 -0.0422  0.2258
 2341DOPS   CNO27460  22.259  30.261  12.447 -0.3708 -0.0777  0.2961
 2341DOPS   PO427461  22.496  30.360  12.727 -0.2499  0.0877 -0.0786
 2341DOPS   GL127462  22.402  30.272  13.080 -0.1132 -0.0405 -0.0426
 2341DOPS   GL227463  22.596  30.430  13.229 -0.1201 -0.2742 -0.1846
 2341DOPS   C1A27464  22.309  30.214  13.562 -0.1675 -0.1399 -0.1756
 2341DOPS   D2A27465  22.067  30.211  13.962  0.0610 -0.0447 -0.0825
 2341DOPS   C3A27466  21.730  29.964  14.032 -0.2533 -0.2171 -0.1610
 2341DOPS   C4A27467  21.825  29.607  14.336  0.0955  0.0289  0.3597
 2341DOPS   C1B27468  22.709  30.861  13.408  0.0665 -0.2243  0.2356
 2341DOPS   D2B27469  22.813  31.089  13.871 -0.1192  0.1728 -0.0976
 2341DOPS   C3B27470  23.017  30.658  13.975 -0.1072 -0.1198 -0.0228
 2341DOPS   C4B27471  23.308  30.504  14.243 -0.0525 -0.0992 -0.0530
 2342DOPS   CNO27472  19.377  34.324  11.668 -0.1326  0.0658  0.0864
 2342DOPS   PO427473  19.465  34.147  11.975  0.0258  0.0716 -0.1214
 2342DOPS   GL127474  19.311  33.831  11.721  0.1788 -0.0128 -0.2016
 2342DOPS   GL227475  19.565  33.679  11.774  0.0397 -0.0689 -0.2200
 2342DOPS   C1A27476  19.106  33.458  11.881  0.0610  0.0933 -0.2489
 2342DOPS   D2A27477  18.737  33.238  11.987 -0.1032  0.1199  0.1335
 2342DOPS   C3A27478  18.942  32.975  12.336  0.3711  0.0379 -0.1592
 2342DOPS   C4A27479  19.198  33.030  12.724  0.1477 -0.0966  0.0317
 2342DOPS   C1B27480  19.827  33.282  11.828 -0.0572  0.0165  0.0738
 2342DOPS   D2B27481  19.994  33.033  12.198 -0.0057  0.0490  0.2987
 2342DOPS   C3B27482  19.830  32.665  12.055  0.1577  0.0613 -0.0445
 2342DOPS   C4B27483  19.603  32.251  12.153 -0.0606  0.1250 -0.0235
 2343DOPC   NC327484  18.464  31.243  12.475  0.0132 -0.3174  0.6260
 2343DOPC   PO427485  18.629  31.497  12.218  0.0318 -0.3129 -0.3049
 2343DOPC   GL127486  18.714  31.651  12.506  0.4126  0.0439 -0.2015
 2343DOPC   GL227487  18.576  31.912  12.478  0.2699  0.0374 -0.1555
 2343DOPC   C1A27488  18.854  31.937  12.910  0.2683 -0.5136  0.2156
 2343DOPC   D2A27489  18.949  32.152  13.275  0.0796 -0.0416 -0.4153
 2343DOPC   C3A27490  18.861  32.612  13.246  0.1323  0.2159 -0.0201
 2343DOPC   C4A27491  18.722  32.865  12.861  0.1153  0.0730 -0.0260
 2343DOPC   C1B27492  18.536  32.306  12.693  0.0049 -0.1080 -0.0563
 2343DOPC   D2B27493  18.507  32.302  13.130  0.1051  0.0071 -0.2646
 2343DOPC   C3B27494  18.417  32.337  13.595 -0.0638 -0.0764  0.0725
 2343DOPC   C4B27495  18.571  32.058  13.880  0.0479  0.2922  0.1409
 2344DOPS   CNO27496  14.025  27.542  12.048 -0.0278  0.1175  0.0685
 2344DOPS   PO427497  13.973  27.436  12.401 -0.0628  0.1371  0.4601
 2344DOPS   GL127498  14.208  27.375  12.756  0.0466 -0.2011 -0.0454
 2344DOPS   GL227499  14.129  27.166  12.993 -0.0891  0.0582 -0.0383
 2344DOPS   C1A27500  14.112  27.545  13.236  0.0052 -0.0348  0.2593
 2344DOPS   D2A27501  13.846  27.858  13.362 -0.0470  0.1224  0.2944
 2344DOPS   C3A27502  13.681  27.569  13.734  0.1694 -0.1753  0.2850
 2344DOPS   C4A27503  13.603  27.158  13.723  0.3009  0.0327  0.0733
 2344DOPS   C1B27504  14.501  27.206  13.217  0.0194  0.1985  0.2154
 2344DOPS   D2B27505  14.882  27.125  13.552  0.2313 -0.1208 -0.1359
 2344DOPS   C3B27506  15.166  26.870  13.796 -0.1804 -0.0028  0.1741
 2344DOPS   C4B27507  15.520  26.697  13.708 -0.1730 -0.0224 -0.0712
 2345DOPS   CNO27508  16.512  29.527  12.219 -0.2366 -0.1239  0.2042
 2345DOPS   PO427509  16.233  29.534  12.452  0.0142 -0.1774 -0.0367
 2345DOPS   GL127510  16.141  29.507  12.859  0.0839 -0.0770 -0.0484
 2345DOPS   GL227511  16.088  29.801  12.949 -0.1208  0.2680 -0.1763
 2345DOPS   C1A27512  16.144  29.111  13.116  0.3515 -0.0105 -0.1269
 2345DOPS   D2A27513  16.392  28.829  13.422  0.5175 -0.1571 -0.0690
 2345DOPS   C3A27514  16.100  28.485  13.607 -0.0710  0.0239  0.0057
 2345DOPS   C4A27515  15.932  28.434  14.070 -0.0740 -0.1385  0.4319
 2345DOPS   C1B27516  15.743  29.695  13.187 -0.1054 -0.1416  0.1808
 2345DOPS   D2B27517  15.420  29.686  13.481  0.0422 -0.0319 -0.2574
 2345DOPS   C3B27518  15.465  29.925  13.789 -0.2858 -0.0267 -0.1425
 2345DOPS   C4B27519  15.400  30.074  14.254  0.4707  0.1074  0.0240
 2346DOPC   NC327520  13.593  30.476  11.615  0.2858  0.1783 -0.0783
 2346DOPC   PO427521  13.221  30.404  11.690 -0.0249  0.1425  0.0114
 2346DOPC   GL127522  13.259  30.828  11.785  0.2542  0.3413  0.1472
 2346DOPC   GL227523  13.313  30.923  11.484 -0.1959 -0.0424 -0.0770
 2346DOPC   C1A27524  13.292  31.085  12.140 -0.1611 -0.1648  0.0286
 2346DOPC   D2A27525  13.311  31.402  12.478  0.1770 -0.0115  0.0723
 2346DOPC   C3A27526  13.202  31.562  12.911 -0.3729  0.0285 -0.1217
 2346DOPC   C4A27527  13.297  31.455  13.360  0.3569  0.1768 -0.2718
 2346DOPC   C1B27528  13.454  31.281  11.722 -0.3622  0.2280 -0.1714
 2346DOPC   D2B27529  13.616  31.526  12.049  0.2700 -0.0662 -0.1919
 2346DOPC   C3B27530  13.770  31.993  11.973 -0.2685  0.1682  0.0477
 2346DOPC   C4B27531  13.629  32.371  11.716 -0.2467  0.1256 -0.1144
 2347DOPE   NH327532  22.082  23.447  12.191  0.3360 -0.3534  0.2288
 2347DOPE   PO427533  22.180  23.166  12.356  0.0091 -0.0453 -0.1156
 2347DOPE   GL127534  22.026  23.331  12.643  0.1174 -0.1792  0.1134
 2347DOPE   GL227535  21.911  23.608  12.611 -0.0363 -0.0045 -0.2334
 2347DOPE   C1A27536  22.198  23.269  13.039 -0.0238 -0.2040  0.1132
 2347DOPE   D2A27537  22.007  23.019  13.409 -0.0181  0.0429  0.4891
 2347DOPE   C3A27538  21.979  22.524  13.234 -0.2659 -0.0585 -0.4296
 2347DOPE   C4A27539  21.740  22.169  13.116  0.0478  0.0373  0.1494
 2347DOPE   C1B27540  21.760  23.471  13.034  0.1294  0.0092 -0.3179
 2347DOPE   D2B27541  21.597  23.540  13.458  0.5870 -0.1187 -0.0351
 2347DOPE   C3B27542  21.832  23.403  13.847 -0.0484  0.1218  0.0463
 2347DOPE   C4B27543  22.220  23.155  13.870  0.0724 -0.0751 -0.0914
 2348DOPE   NH327544  11.661  34.197  11.669 -0.1497  0.2897  0.3066
 2348DOPE   PO427545  11.813  34.069  11.907  0.0391  0.1154  0.2211
 2348DOPE   GL127546  12.007  34.172  12.247  0.1409 -0.2742  0.1117
 2348DOPE   GL227547  12.186  34.414  12.168 -0.1345  0.0268  0.0935
 2348DOPE   C1A27548  11.977  34.485  12.611  0.2211 -0.0693  0.0464
 2348DOPE   D2A27549  12.246  34.633  12.935  0.2117  0.0144  0.5139
 2348DOPE   C3A27550  12.545  34.337  13.020 -0.1753  0.2058 -0.2566
 2348DOPE   C4A27551  12.844  34.040  13.255  0.3962 -0.1116  0.3193
 2348DOPE   C1B27552  12.405  34.110  12.492  0.0776 -0.0389 -0.1330
 2348DOPE   D2B27553  12.706  33.911  12.775 -0.1783 -0.3970 -0.1185
 2348DOPE   C3B27554  12.594  33.521  12.798 -0.1889  0.0015  0.0496
 2348DOPE   C4B27555  12.666  33.047  13.028 -0.0426 -0.1275 -0.2508
 2349POSM   NC327556  17.873  26.229  13.634  0.2817  0.2528  0.0457
 2349POSM   PO427557  17.813  25.936  13.347 -0.0446  0.0959 -0.0797
 2349POSM   AM127558  17.523  25.744  13.385  0.0920  0.1380  0.1498
 2349POSM   AM227559  17.386  25.488  13.361 -0.3302  0.1590  0.0459
 2349POSM   T1A27560  17.158  25.823  13.712 -0.3025  0.0461 -0.0371
 2349POSM   C2A27561  16.794  25.841  14.023  0.2061 -0.2948  0.0366
 2349POSM   C3A27562  16.653  25.932  14.452 -0.5234 -0.0224  0.0586
 2349POSM   C1B27563  17.488  25.441  13.704 -0.3325  0.0008 -0.1428
 2349POSM   D2B27564  17.321  25.576  14.130  0.1353  0.3546 -0.0765
 2349POSM   C3B27565  17.324  26.048  14.208  0.0511  0.1797 -0.0926
 2349POSM   C4B27566  16.955  26.323  14.201 -0.0842 -0.0315 -0.0568
 2350DOPS   CNO27567  22.188  33.171  11.942 -0.2572 -0.0404 -0.0147
 2350DOPS   PO427568  21.846  33.331  12.036  0.0530  0.0316 -0.2003
 2350DOPS   GL127569  21.390  33.253  12.026  0.0920  0.2486 -0.3339
 2350DOPS   GL227570  21.290  33.303  12.375 -0.2478 -0.1965 -0.2458
 2350DOPS   C1A27571  21.027  32.969  12.135 -0.2376  0.0453  0.1961
 2350DOPS   D2A27572  20.893  32.545  12.255 -0.2164  0.0584 -0.1345
 2350DOPS   C3A27573  20.545  32.433  12.621 -0.1612  0.0037  0.2603
 2350DOPS   C4A27574  20.180  32.427  12.916 -0.0978  0.0148 -0.1650
 2350DOPS   C1B27575  21.154  32.972  12.646  0.2917  0.1408  0.0713
 2350DOPS   D2B27576  21.053  32.556  12.730  0.0306 -0.2384 -0.0570
 2350DOPS   C3B27577  20.784  32.440  13.126 -0.0199 -0.3558  0.0584
 2350DOPS   C4B27578  20.530  32.268  13.331 -0.0823  0.2878 -0.0337
 2351DOPC   NC327579  19.400  24.172  12.727 -0.1541  0.2495 -0.1412
 2351DOPC   PO427580  19.470  24.396  12.400  0.2225 -0.1604  0.0742
 2351DOPC   GL127581  19.145  24.551  12.304 -0.0052 -0.5362  0.1374
 2351DOPC   GL227582  18.934  24.315  12.335 -0.1963 -0.1914  0.2787
 2351DOPC   C1A27583  18.818  24.831  12.467 -0.0407  0.2724  0.3440
 2351DOPC   D2A27584  18.461  24.903  12.829 -0.1125  0.1691 -0.3512
 2351DOPC   C3A27585  18.541  25.166  13.173  0.0385 -0.3964  0.1773
 2351DOPC   C4A27586  18.858  25.313  13.560  0.0963  0.1853 -0.0321
 2351DOPC   C1B27587  18.860  24.370  12.783 -0.3244  0.1493  0.1271
 2351DOPC   D2B27588  18.775  24.421  13.209  0.1313  0.4697 -0.1611
 2351DOPC   C3B27589  18.572  24.215  13.569 -0.2342 -0.1356  0.0196
 2351DOPC   C4B27590  18.301  24.030  13.822  0.0014 -0.0473 -0.1192
 2352DOPE   NH327591  11.991  27.297  12.278  0.5927 -0.1658 -0.0723
 2352DOPE   PO427592  12.010  27.030  12.392  0.1275  0.3666 -0.0924
 2352DOPE   GL127593  11.961  26.903  12.705 -0.4381 -0.2447 -0.2867
 2352DOPE   GL227594  11.688  27.105  12.836 -0.1773 -0.3755 -0.0860
 2352DOPE   C1A27595  12.091  26.911  13.131  0.0590  0.4997 -0.3519
 2352DOPE   D2A27596  11.958  26.663  13.496 -0.0229  0.2964  0.0632
 2352DOPE   C3A27597  12.182  26.290  13.628 -0.2634 -0.1859 -0.0956
 2352DOPE   C4A27598  12.183  25.825  13.662 -0.1086  0.1216 -0.0912
 2352DOPE   C1B27599  11.695  27.047  13.289 -0.1563  0.3269 -0.0895
 2352DOPE   D2B27600  12.047  27.142  13.629  0.1071 -0.0875  0.3374
 2352DOPE   C3B27601  12.194  26.888  13.885  0.0070 -0.4058 -0.0381
 2352DOPE   C4B27602  12.140  26.563  14.228 -0.2973  0.3626  0.0155
 2353DOPS   CNO27603  18.220  26.504  12.220  0.0711  0.0743  0.3179
 2353DOPS   PO427604  18.000  26.319  12.474 -0.1956 -0.2319  0.3658
 2353DOPS   GL127605  17.986  25.939  12.521 -0.1637  0.0666  0.1370
 2353DOPS   GL227606  17.923  25.810  12.825  0.0973  0.1851  0.1185
 2353DOPS   C1A27607  17.788  25.557  12.389  0.0241  0.1051 -0.0096
 2353DOPS   D2A27608  17.307  25.408  12.432 -0.3311  0.1081  0.1498
 2353DOPS   C3A27609  17.405  24.932  12.320  0.0230 -0.0726  0.2169
 2353DOPS   C4A27610  17.494  24.527  12.558  0.0018 -0.0826  0.3190
 2353DOPS   C1B27611  18.235  25.455  12.666 -0.4022  0.2640  0.0073
 2353DOPS   D2B27612  18.661  25.265  12.571  0.0858 -0.0203  0.3945
 2353DOPS   C3B27613  18.997  25.361  12.922 -0.4904  0.0991 -0.0660
 2353DOPS   C4B27614  19.315  25.399  13.273 -0.1568 -0.3580  0.1773
 2354DOPS   CNO27615  22.656  31.187  11.878  0.2083  0.0258 -0.0655
 2354DOPS   PO427616  22.257  31.068  11.967  0.0336 -0.0615  0.0392
 2354DOPS   GL127617  21.808  31.224  12.004  0.0806 -0.5502 -0.2734
 2354DOPS   GL227618  21.691  30.976  11.877  0.2425  0.0090  0.1010
 2354DOPS   C1A27619  21.522  31.491  12.218  0.1636 -0.0562  0.3008
 2354DOPS   D2A27620  21.077  31.582  12.468  0.0509  0.1946 -0.1169
 2354DOPS   C3A27621  20.764  31.535  12.841 -0.0391  0.0833  0.0585
 2354DOPS   C4A27622  20.598  31.688  13.247 -0.0868  0.2582  0.0433
 2354DOPS   C1B27623  21.304  31.046  12.067 -0.1139  0.1849 -0.1222
 2354DOPS   D2B27624  20.876  31.291  12.063  0.1182 -0.0503 -0.0205
 2354DOPS   C3B27625  20.622  31.533  12.339  0.0237 -0.0712  0.1159
 2354DOPS   C4B27626  20.288  31.615  12.587 -0.2244  0.1511 -0.1183
 2355DOPE   NH327627  12.130  33.659  12.126  0.0128  0.4188  0.0260
 2355DOPE   PO427628  12.015  33.509  11.825 -0.0928  0.3086  0.0291
 2355DOPE   GL127629  12.018  33.183  12.013 -0.1937  0.1104 -0.2952
 2355DOPE   GL227630  11.738  33.095  12.021 -0.1394  0.1181  0.2784
 2355DOPE   C1A27631  12.013  32.951  12.459  0.0525 -0.3152  0.4925
 2355DOPE   D2A27632  11.845  33.127  12.901 -0.1771  0.0801  0.3738
 2355DOPE   C3A27633  12.168  33.080  13.254  0.1032  0.3821 -0.0343
 2355DOPE   C4A27634  12.471  32.814  13.431 -0.0294 -0.1243  0.2375
 2355DOPE   C1B27635  11.635  32.702  12.236 -0.2408  0.0053 -0.3877
 2355DOPE   D2B27636  11.318  32.366  12.368 -0.1034 -0.1245  0.1464
 2355DOPE   C3B27637  10.949  32.335  12.598 -0.2756  0.1184 -0.0617
 2355DOPE   C4B27638  10.730  32.234  13.022  0.3502 -0.1449  0.1062
 2356DOPE   NH327639  16.122  29.085  12.587 -0.1375 -0.0096  0.1781
 2356DOPE   PO427640  16.433  28.894  12.532  0.2061 -0.2757 -0.0950
 2356DOPE   GL127641  16.537  28.931  12.898 -0.1353  0.3119  0.0238
 2356DOPE   GL227642  16.606  28.624  12.957 -0.0307  0.2572 -0.3822
 2356DOPE   C1A27643  16.612  29.247  13.242  0.0264 -0.0759 -0.2012
 2356DOPE   D2A27644  16.538  29.277  13.706  0.0446 -0.0931 -0.0724
 2356DOPE   C3A27645  16.736  29.249  14.105 -0.1227 -0.1150  0.1442
 2356DOPE   C4A27646  16.675  29.558  14.474  0.2179 -0.3023  0.0247
 2356DOPE   C1B27647  16.316  28.352  13.129 -0.4668  0.3967 -0.0140
 2356DOPE   D2B27648  15.959  28.085  13.176  0.0474  0.0178  0.0745
 2356DOPE   C3B27649  15.960  27.645  13.050 -0.1864  0.0490  0.0926
 2356DOPE   C4B27650  15.540  27.452  12.899  0.0633  0.1778  0.1331
 2357POSM   NC327651  22.134  23.823  11.811 -0.0121 -0.1957 -0.2076
 2357POSM   PO427652  22.510  23.744  11.847 -0.1470  0.2669 -0.3704
 2357POSM   AM127653  22.458  23.874  12.144  0.1774  0.0242  0.3628
 2357POSM   AM227654  22.436  23.723  12.390  0.2219  0.0819  0.0244
 2357POSM   T1A27655  22.575  24.167  12.512  0.0719  0.0153 -0.0139
 2357POSM   C2A27656  22.756  24.214  12.949  0.1580  0.1230 -0.0874
 2357POSM   C3A27657  22.587  24.310  13.349  0.3137  0.2200 -0.1646
 2357POSM   C1B27658  22.381  23.721  12.746 -0.0071  0.1540 -0.2001
 2357POSM   D2B27659  22.117  23.735  13.134  0.1039  0.0397  0.1399
 2357POSM   C3B27660  22.256  23.529  13.515 -0.0624 -0.0923 -0.0163
 2357POSM   C4B27661  22.242  23.632  13.968 -0.1136  0.0687  0.0491
 2358DOPC   NC327662  19.349  27.206  12.279 -0.1837  0.0551  0.3502
 2358DOPC   PO427663  19.071  27.131  12.507 -0.2020  0.2326  0.0649
 2358DOPC   GL127664  19.395  27.031  12.825 -0.3048 -0.1492 -0.4327
 2358DOPC   GL227665  19.144  27.087  13.022 -0.0013  0.4248 -0.0778
 2358DOPC   C1A27666  19.637  27.069  13.220  0.1535  0.1369  0.0840
 2358DOPC   D2A27667  19.825  26.908  13.605 -0.0363  0.0941  0.0805
 2358DOPC   C3A27668  19.777  26.805  14.079 -0.0703 -0.1264 -0.0400
 2358DOPC   C4A27669  19.795  26.526  14.464  0.2217 -0.2102 -0.0560
 2358DOPC   C1B27670  19.227  27.224  13.471  0.0645 -0.2830  0.3564
 2358DOPC   D2B27671  19.437  27.195  13.813  0.3197 -0.4394 -0.2790
 2358DOPC   C3B27672  19.379  27.054  14.266  0.0849  0.0921  0.0608
 2358DOPC   C4B27673  19.276  26.721  14.527 -0.2672 -0.1620 -0.0453
 2359DOPC   NC327674  15.345  28.866  12.298  0.1202 -0.1239  0.1001
 2359DOPC   PO427675  15.757  28.807  12.331 -0.1043  0.2447 -0.0162
 2359DOPC   GL127676  15.766  28.807  12.737 -0.4489  0.3071 -0.1929
 2359DOPC   GL227677  16.002  28.630  12.875  0.0332  0.0822  0.3641
 2359DOPC   C1A27678  15.428  28.582  12.906  0.1699  0.1793  0.2251
 2359DOPC   D2A27679  15.030  28.314  12.906  0.0862 -0.1593  0.0382
 2359DOPC   C3A27680  15.033  27.850  12.852  0.0877  0.0438 -0.1388
 2359DOPC   C4A27681  15.111  27.490  12.617  0.1657  0.0595  0.0564
 2359DOPC   C1B27682  15.818  28.747  13.291 -0.2939 -0.1524 -0.2866
 2359DOPC   D2B27683  15.842  28.890  13.719  0.3131  0.0011  0.1792
 2359DOPC   C3B27684  15.501  29.192  13.874  0.1821  0.0432 -0.2006
 2359DOPC   C4B27685  15.170  29.525  13.885 -0.0508 -0.4566 -0.0710
 2360DOPE   NH327686  19.877  34.237  12.321 -0.0330 -0.3044 -0.1380
 2360DOPE   PO427687  20.170  34.206  12.203  0.0996  0.1303  0.0634
 2360DOPE   GL127688  20.282  34.385  12.551 -0.0245  0.0755  0.2339
 2360DOPE   GL227689  20.330  34.175  12.687 -0.1760  0.3959 -0.3038
 2360DOPE   C1A27690  20.285  34.677  12.891  0.2313  0.0632 -0.1445
 2360DOPE   D2A27691  20.138  34.744  13.328  0.0878  0.2198  0.0194
 2360DOPE   C3A27692  20.444  35.044  13.456  0.0805 -0.2123 -0.1120
 2360DOPE   C4A27693  20.569  35.334  13.826 -0.0991  0.2455 -0.2264
 2360DOPE   C1B27694  20.342  33.761  12.948 -0.0419 -0.0756 -0.3210
 2360DOPE   D2B27695  20.149  33.311  13.044 -0.2544 -0.0622 -0.2099
 2360DOPE   C3B27696  20.365  32.928  12.856 -0.0828 -0.1278 -0.1596
 2360DOPE   C4B27697  20.657  32.895  12.525 -0.2055  0.0050  0.0064
 2361POSM   NC327698  21.638  34.060  12.665  0.2240  0.0218 -0.2178
 2361POSM   PO427699  21.619  33.766  12.413  0.1062  0.1520 -0.2552
 2361POSM   AM127700  21.600  33.622  12.695  0.0395  0.0803  0.2710
 2361POSM   AM227701  21.640  33.669  12.987 -0.1232 -0.2582  0.0580
 2361POSM   T1A27702  21.237  33.409  12.967  0.3153 -0.1135 -0.1100
 2361POSM   C2A27703  21.066  33.036  13.161 -0.3349  0.2930 -0.0337
 2361POSM   C3A27704  20.932  32.777  13.489  0.2849  0.4017 -0.0303
 2361POSM   C1B27705  21.757  34.003  13.125  0.0332  0.1192  0.3695
 2361POSM   D2B27706  21.832  34.304  13.504 -0.2798  0.0857  0.0823
 2361POSM   C3B27707  21.798  34.748  13.359  0.0316 -0.1697  0.2691
 2361POSM   C4B27708  22.037  35.166  13.366 -0.1936  0.2138 -0.0379
 2362DOPE   NH327709  17.466  29.989  12.544  0.1061  0.2933 -0.1877
 2362DOPE   PO427710  17.701  29.818  12.479  0.0098 -0.0216 -0.2017
 2362DOPE   GL127711  17.914  29.592  12.673 -0.4589 -0.1503 -0.2634
 2362DOPE   GL227712  18.054  29.454  12.510 -0.3349  0.0346 -0.0321
 2362DOPE   C1A27713  18.020  29.173  12.875  0.0257  0.1879 -0.0801
 2362DOPE   D2A27714  17.829  29.083  13.320 -0.0632 -0.1371  0.0000
 2362DOPE   C3A27715  18.073  29.398  13.603  0.0490 -0.3398  0.0194
 2362DOPE   C4A27716  18.034  29.851  13.723 -0.0008 -0.0799  0.1339
 2362DOPE   C1B27717  18.426  29.140  12.439  0.3785 -0.3219 -0.0262
 2362DOPE   D2B27718  18.805  29.025  12.653  0.0179  0.1479 -0.0175
 2362DOPE   C3B27719  18.770  29.051  13.095  0.1858  0.1816 -0.0641
 2362DOPE   C4B27720  18.427  29.178  13.366  0.0496 -0.2801  0.2707
 2363DOPC   NC327721  19.311  28.227  12.224  0.0936  0.2866  0.4159
 2363DOPC   PO427722  19.404  27.840  12.309  0.2354 -0.0568 -0.2160
 2363DOPC   GL127723  19.367  28.039  12.660  0.1176  0.0321  0.0100
 2363DOPC   GL227724  19.199  27.984  12.878  0.0586 -0.1175  0.0093
 2363DOPC   C1A27725  19.379  28.486  12.836 -0.0902  0.0733 -0.1430
 2363DOPC   D2A27726  19.303  28.920  12.776 -0.0573  0.2711  0.1235
 2363DOPC   C3A27727  19.726  28.840  12.669  0.0874 -0.0016 -0.0294
 2363DOPC   C4A27728  20.167  28.887  12.840  0.1335 -0.3625  0.2051
 2363DOPC   C1B27729  19.279  28.183  13.254  0.0954  0.0832 -0.0451
 2363DOPC   D2B27730  19.400  28.277  13.717  0.2564  0.2107 -0.1248
 2363DOPC   C3B27731  19.143  28.443  14.006  0.1305  0.5351  0.2310
 2363DOPC   C4B27732  18.789  28.519  14.280 -0.1584 -0.1518 -0.0765
 2364DOPS   CNO27733  13.033  23.756  11.940 -0.0281 -0.0186  0.0688
 2364DOPS   PO427734  13.211  23.552  12.199  0.0527  0.0822 -0.2287
 2364DOPS   GL127735  13.144  23.945  12.277 -0.0885 -0.4094 -0.1506
 2364DOPS   GL227736  13.014  24.014  12.518 -0.0477 -0.2063  0.0710
 2364DOPS   C1A27737  12.776  24.221  12.039 -0.1183 -0.1942  0.0779
 2364DOPS   D2A27738  12.437  24.447  12.112 -0.1388  0.0183 -0.0587
 2364DOPS   C3A27739  12.304  24.887  12.011 -0.2737 -0.0092 -0.0953
 2364DOPS   C4A27740  12.366  25.316  11.908 -0.2144  0.1121 -0.0552
 2364DOPS   C1B27741  13.015  24.314  12.839  0.0504 -0.0413 -0.2064
 2364DOPS   D2B27742  13.249  24.616  13.160  0.2517 -0.1494 -0.2720
 2364DOPS   C3B27743  13.532  24.404  13.525 -0.0822 -0.4443  0.0719
 2364DOPS   C4B27744  13.428  24.423  13.946 -0.0794  0.0316  0.2742
 2365DOPE   NH327745  15.511  31.448  12.402  0.0506 -0.2337  0.4999
 2365DOPE   PO427746  15.657  31.712  12.300 -0.0625  0.2234  0.0122
 2365DOPE   GL127747  15.495  31.938  12.610 -0.0737 -0.0219  0.0212
 2365DOPE   GL227748  15.696  32.178  12.542  0.2662 -0.2252  0.1895
 2365DOPE   C1A27749  15.256  32.168  12.948 -0.3532 -0.0602  0.3309
 2365DOPE   D2A27750  15.023  32.345  13.378  0.0360 -0.0065 -0.3759
 2365DOPE   C3A27751  14.867  31.945  13.584 -0.3589 -0.1621  0.2152
 2365DOPE   C4A27752  14.911  31.759  13.945 -0.2901  0.1857 -0.1665
 2365DOPE   C1B27753  15.708  32.482  12.880  0.0022  0.2887 -0.1663
 2365DOPE   D2B27754  15.570  32.803  13.167 -0.0204  0.1256 -0.0598
 2365DOPE   C3B27755  15.737  32.948  13.631 -0.2319  0.0352  0.0349
 2365DOPE   C4B27756  16.110  33.016  13.919  0.0083  0.0262  0.0499
 2366DOPE   NH327757  13.895  27.903  12.351  0.1650 -0.0359 -0.0699
 2366DOPE   PO427758  14.117  28.140  12.265  0.1291 -0.2856 -0.2239
 2366DOPE   GL127759  14.267  27.887  12.594  0.0489 -0.2183  0.0606
 2366DOPE   GL227760  14.480  27.772  12.467  0.2554 -0.2375  0.3514
 2366DOPE   C1A27761  14.571  28.162  12.885  0.2494  0.2434 -0.2291
 2366DOPE   D2A27762  14.645  28.195  13.360  0.1341  0.0370  0.2445
 2366DOPE   C3A27763  14.309  28.041  13.641  0.0733  0.0706  0.0686
 2366DOPE   C4A27764  14.129  27.764  13.905 -0.2898  0.0080 -0.1990
 2366DOPE   C1B27765  14.508  27.644  12.915  0.3247 -0.0357  0.1042
 2366DOPE   D2B27766  14.581  27.679  13.335  0.0023  0.1819  0.1593
 2366DOPE   C3B27767  14.463  27.458  13.727 -0.2005 -0.4113  0.1556
 2366DOPE   C4B27768  14.122  27.254  13.614  0.0177 -0.1318  0.1102
 2367DOPS   CNO27769  22.402  33.773  12.042  0.0456 -0.3394  0.0979
 2367DOPS   PO427770  22.387  33.558  12.306  0.2664 -0.3006  0.2004
 2367DOPS   GL127771  22.359  33.716  12.691 -0.1610  0.0787 -0.1439
 2367DOPS   GL227772  22.140  33.685  12.893  0.0181  0.1324 -0.1069
 2367DOPS   C1A27773  22.604  34.011  12.929 -0.1629 -0.1028  0.1047
 2367DOPS   D2A27774  22.678  34.201  13.343  0.1654  0.0280 -0.1277
 2367DOPS   C3A27775  22.319  34.166  13.701  0.1957 -0.0413 -0.3175
 2367DOPS   C4A27776  21.993  34.006  13.981 -0.2745 -0.2364  0.0196
 2367DOPS   C1B27777  22.257  33.898  13.284  0.1336 -0.3371 -0.3825
 2367DOPS   D2B27778  22.586  33.708  13.500  0.0770  0.3045  0.1710
 2367DOPS   C3B27779  22.904  33.988  13.767 -0.3582  0.0497  0.0063
 2367DOPS   C4B27780  23.155  34.066  14.157  0.1107  0.0910  0.0914
 2368DOPE   NH327781  22.814  26.762  12.590  0.1037  0.1178  0.0524
 2368DOPE   PO427782  22.833  26.536  12.856  0.1356 -0.0021  0.1179
 2368DOPE   GL127783  22.702  26.292  13.078  0.2205  0.1121 -0.1397
 2368DOPE   GL227784  22.988  26.097  13.104  0.0680  0.0394 -0.1638
 2368DOPE   C1A27785  22.381  25.955  13.120 -0.0375  0.0788  0.1704
 2368DOPE   D2A27786  22.290  25.539  13.263  0.2367  0.0118 -0.0144
 2368DOPE   C3A27787  22.201  25.429  13.675 -0.0589  0.1702  0.0362
 2368DOPE   C4A27788  22.335  25.077  13.953 -0.3191  0.1893  0.1979
 2368DOPE   C1B27789  23.158  25.682  13.273 -0.1975 -0.3916 -0.0845
 2368DOPE   D2B27790  23.266  25.261  13.351  0.0986  0.2177 -0.1220
 2368DOPE   C3B27791  23.225  25.035  13.718  0.0522 -0.0618  0.1657
 2368DOPE   C4B27792  23.062  24.586  13.739  0.1255  0.1729  0.2705
 2369DOPS   CNO27793  16.611  24.164  12.024  0.1950 -0.0728 -0.2692
 2369DOPS   PO427794  16.806  24.530  11.999  0.2043  0.2264 -0.1864
 2369DOPS   GL127795  16.826  24.409  12.468  0.1166 -0.0584 -0.1278
 2369DOPS   GL227796  17.059  24.568  12.441 -0.0817 -0.0504 -0.0033
 2369DOPS   C1A27797  16.620  24.441  12.856 -0.2147  0.0120 -0.1862
 2369DOPS   D2A27798  16.366  24.534  13.232 -0.1172  0.2156 -0.4894
 2369DOPS   C3A27799  15.927  24.352  13.332 -0.0539 -0.2915  0.3030
 2369DOPS   C4A27800  15.497  24.315  13.204 -0.0986 -0.4796 -0.1664
 2369DOPS   C1B27801  17.197  24.154  12.322  0.1667 -0.2305 -0.1439
 2369DOPS   D2B27802  17.273  23.757  12.581  0.0200  0.1685 -0.0984
 2369DOPS   C3B27803  17.030  23.743  13.011 -0.1859 -0.2683  0.1003
 2369DOPS   C4B27804  17.053  23.746  13.492  0.1118 -0.0113 -0.0333
 2370DOPS   CNO27805  21.686  23.563  11.843 -0.2598 -0.0389 -0.1891
 2370DOPS   PO427806  21.721  23.790  12.132  0.0574 -0.0902 -0.1972
 2370DOPS   GL127807  21.976  23.987  12.338  0.1114  0.2258  0.1794
 2370DOPS   GL227808  22.017  24.174  12.549  0.0383 -0.1385 -0.0038
 2370DOPS   C1A27809  22.311  24.259  12.092  0.0153  0.0610 -0.2433
 2370DOPS   D2A27810  22.578  24.647  12.306 -0.3485 -0.0406 -0.2257
 2370DOPS   C3A27811  22.867  24.584  12.614 -0.1802 -0.0423 -0.0313
 2370DOPS   C4A27812  23.263  24.431  12.883  0.0175  0.2530 -0.0709
 2370DOPS   C1B27813  22.223  24.164  12.982  0.2470 -0.0466  0.4579
 2370DOPS   D2B27814  22.108  24.216  13.417  0.1476  0.2291  0.1412
 2370DOPS   C3B27815  22.417  24.127  13.771 -0.1452  0.0812 -0.1260
 2370DOPS   C4B27816  22.796  24.252  13.887 -0.2149  0.0024 -0.2424
 2371DOPC   NC327817  15.606  25.872  12.252  0.0461  0.0925 -0.1732
 2371DOPC   PO427818  15.988  25.821  12.103  0.0830 -0.0570 -0.1061
 2371DOPC   GL127819  15.889  25.540  12.336  0.1360 -0.2457 -0.0075
 2371DOPC   GL227820  15.811  25.586  12.605  0.1189 -0.2022  0.2707
 2371DOPC   C1A27821  15.727  25.137  12.137 -0.1999 -0.0916  0.3247
 2371DOPC   D2A27822  15.652  24.681  12.287  0.0134  0.5693  0.0454
 2371DOPC   C3A27823  15.190  24.467  12.274  0.1023  0.0449  0.1878
 2371DOPC   C4A27824  14.715  24.488  12.121  0.0881 -0.2641 -0.1618
 2371DOPC   C1B27825  15.396  25.351  12.459  0.4702  0.1056 -0.1521
 2371DOPC   D2B27826  15.260  24.979  12.380 -0.1201  0.1020 -0.0953
 2371DOPC   C3B27827  14.864  24.867  12.612 -0.3825 -0.2113  0.0277
 2371DOPC   C4B27828  14.543  24.654  12.843 -0.0016  0.1127  0.1288
 2372DOPC   NC327829  22.038  30.579  12.760  0.0444 -0.5762  0.0783
 2372DOPC   PO427830  22.001  30.226  12.864  0.1286 -0.0099  0.2290
 2372DOPC   GL127831  21.910  30.312  13.188  0.2621  0.0633  0.1448
 2372DOPC   GL227832  21.764  30.584  13.179 -0.0673 -0.1179 -0.2308
 2372DOPC   C1A27833  21.703  30.202  13.590 -0.0236 -0.1418  0.0187
 2372DOPC   D2A27834  21.496  30.472  13.911 -0.0765  0.1738 -0.0480
 2372DOPC   C3A27835  21.677  30.675  14.373  0.1505  0.1728  0.1966
 2372DOPC   C4A27836  21.693  30.566  14.806  0.2541 -0.0872 -0.3430
 2372DOPC   C1B27837  21.756  30.912  13.507 -0.1322  0.1313 -0.0655
 2372DOPC   D2B27838  21.542  31.004  13.937  0.0554 -0.0491 -0.0257
 2372DOPC   C3B27839  21.075  30.930  14.086  0.2934 -0.2448  0.1174
 2372DOPC   C4B27840  20.734  30.636  14.260  0.0494 -0.0248  0.0601
 2373DOPE   NH327841  18.074  26.661  13.011 -0.0548  0.2844  0.0521
 2373DOPE   PO427842  18.014  26.530  13.284 -0.2161 -0.1259 -0.2603
 2373DOPE   GL127843  18.195  26.643  13.625  0.0180  0.1074 -0.1335
 2373DOPE   GL227844  18.210  26.929  13.586  0.2556 -0.0453  0.0410
 2373DOPE   C1A27845  18.214  26.465  14.033 -0.2138  0.1845  0.0172
 2373DOPE   D2A27846  18.557  26.518  14.324  0.0170  0.1640 -0.1333
 2373DOPE   C3A27847  18.486  26.935  14.470 -0.1972  0.2852  0.0172
 2373DOPE   C4A27848  18.283  27.380  14.242  0.0000  0.0132  0.2464
 2373DOPE   C1B27849  17.825  27.247  13.669  0.3859 -0.0587 -0.0721
 2373DOPE   D2B27850  17.393  27.485  13.660  0.1048 -0.0358  0.0081
 2373DOPE   C3B27851  17.278  27.813  13.934 -0.1859 -0.0325 -0.1792
 2373DOPE   C4B27852  17.404  28.138  14.127  0.0376  0.0200 -0.0877
 2374DOPC   NC327853  21.245  33.883  12.106  0.1782 -0.0704  0.0601
 2374DOPC   PO427854  21.141  34.181  12.310  0.2108 -0.2309 -0.0231
 2374DOPC   GL127855  20.974  34.422  12.630 -0.3039  0.1341  0.0752
 2374DOPC   GL227856  21.132  34.229  12.858 -0.1624 -0.0562  0.0036
 2374DOPC   C1A27857  21.130  34.748  12.934 -0.3673 -0.1710 -0.1074
 2374DOPC   D2A27858  20.965  34.843  13.392  0.0708  0.0332  0.1285
 2374DOPC   C3A27859  20.647  34.613  13.524  0.0197  0.2159  0.1744
 2374DOPC   C4A27860  20.392  34.279  13.756  0.1721 -0.3311  0.0279
 2374DOPC   C1B27861  21.235  33.921  13.152  0.1164 -0.0729 -0.0998
 2374DOPC   D2B27862  21.453  33.650  13.447  0.0987  0.1283 -0.1036
 2374DOPC   C3B27863  21.727  33.278  13.362 -0.1341  0.2147  0.1370
 2374DOPC   C4B27864  21.896  32.877  13.376  0.2548  0.0238 -0.2115
 2375POSM   NC327865  17.100  26.296  12.319  0.1578 -0.2611 -0.1414
 2375POSM   PO427866  17.277  25.994  12.543  0.4328  0.0290  0.1059
 2375POSM   AM127867  17.187  25.787  12.756 -0.1743  0.0381 -0.1687
 2375POSM   AM227868  17.371  25.608  12.879 -0.3073 -0.0061  0.3601
 2375POSM   T1A27869  16.959  25.680  13.175 -0.1574  0.0212  0.0237
 2375POSM   C2A27870  16.694  25.591  13.544  0.2677  0.0070  0.1792
 2375POSM   C3A27871  16.323  25.802  13.689 -0.0043  0.1574 -0.2035
 2375POSM   C1B27872  17.665  25.382  12.829 -0.1515  0.2058 -0.4167
 2375POSM   D2B27873  18.002  25.167  12.974 -0.0661  0.0526 -0.0251
 2375POSM   C3B27874  17.673  25.024  13.282  0.0645 -0.0203 -0.2425
 2375POSM   C4B27875  17.718  24.942  13.723 -0.2431  0.1551 -0.3585
 2376DOPC   NC327876  14.134  31.429  12.172 -0.0957  0.1451 -0.1848
 2376DOPC   PO427877  14.397  31.178  12.248 -0.2193 -0.1748  0.0671
 2376DOPC   GL127878  14.616  30.997  12.514 -0.2263 -0.1551 -0.0881
 2376DOPC   GL227879  14.720  31.190  12.718  0.1550 -0.0614 -0.1270
 2376DOPC   C1A27880  14.502  30.805  12.928  0.1215  0.1070  0.0936
 2376DOPC   D2A27881  14.458  30.980  13.376 -0.2625  0.1924  0.0450
 2376DOPC   C3A27882  14.882  30.890  13.525 -0.1257  0.0211  0.0137
 2376DOPC   C4A27883  15.314  30.944  13.590  0.0261 -0.3169  0.1073
 2376DOPC   C1B27884  14.471  31.345  13.063 -0.3489  0.0609  0.0355
 2376DOPC   D2B27885  14.190  31.652  13.180 -0.3484  0.0211 -0.1559
 2376DOPC   C3B27886  14.319  32.106  13.316  0.0521  0.0916  0.5483
 2376DOPC   C4B27887  14.532  32.515  13.417 -0.0069 -0.3959 -0.1372
 2377DOPC   NC327888  18.789  30.571  12.974 -0.2171 -0.0363  0.1773
 2377DOPC   PO427889  18.687  30.786  12.665  0.5041 -0.1456 -0.0725
 2377DOPC   GL127890  18.579  31.075  12.928 -0.2696  0.1250  0.2392
 2377DOPC   GL227891  18.772  31.223  13.000  0.1365  0.0873 -0.0229
 2377DOPC   C1A27892  18.403  31.528  12.916  0.1201 -0.4613  0.0962
 2377DOPC   D2A27893  18.116  31.713  13.222 -0.0348  0.2068  0.1613
 2377DOPC   C3A27894  17.939  31.375  13.466 -0.1091 -0.2632  0.2564
 2377DOPC   C4A27895  17.526  31.318  13.720  0.1170 -0.1974 -0.0521
 2377DOPC   C1B27896  18.519  31.343  13.385 -0.0569  0.1635 -0.2277
 2377DOPC   D2B27897  18.329  31.385  13.829  0.1102 -0.0005 -0.1416
 2377DOPC   C3B27898  17.956  31.405  14.082 -0.1120 -0.0145  0.0486
 2377DOPC   C4B27899  17.832  31.753  14.398  0.1032 -0.0653 -0.3211
 2378DOPE   NH327900  15.481  31.463  11.779 -0.0636 -0.0084 -0.1304
 2378DOPE   PO427901  15.255  31.611  12.001  0.0904 -0.1663 -0.2482
 2378DOPE   GL127902  15.150  31.843  12.290 -0.1141 -0.0731  0.0971
 2378DOPE   GL227903  14.842  31.910  12.202 -0.0480  0.0491 -0.0582
 2378DOPE   C1A27904  15.095  32.341  12.436 -0.0601 -0.1401 -0.1282
 2378DOPE   D2A27905  15.249  32.763  12.597 -0.2645 -0.2217  0.1604
 2378DOPE   C3A27906  15.487  32.978  12.279  0.1145 -0.0246 -0.0400
 2378DOPE   C4A27907  15.522  33.385  11.982  0.0106 -0.0448 -0.2272
 2378DOPE   C1B27908  14.421  32.039  12.353  0.2624 -0.0310 -0.0350
 2378DOPE   D2B27909  14.032  32.220  12.590 -0.2141  0.1325 -0.0218
 2378DOPE   C3B27910  13.843  31.962  12.907  0.0192 -0.0654  0.0149
 2378DOPE   C4B27911  13.610  31.861  13.277 -0.0199  0.1936 -0.2011
 2379DOPE   NH327912  13.230  34.388  11.573 -0.0728 -0.2482  0.0702
 2379DOPE   PO427913  13.474  34.161  11.527 -0.1838 -0.2195 -0.1416
 2379DOPE   GL127914  13.546  34.105  11.933  0.1452  0.1099  0.0403
 2379DOPE   GL227915  13.775  34.264  12.042  0.0304  0.1980  0.0303
 2379DOPE   C1A27916  13.619  33.698  12.175  0.1727  0.0849  0.0383
 2379DOPE   D2A27917  13.624  33.370  12.528 -0.3221 -0.0069  0.0223
 2379DOPE   C3A27918  14.054  33.049  12.513  0.4620  0.3440 -0.1894
 2379DOPE   C4A27919  14.089  32.661  12.323 -0.1304  0.0485  0.0551
 2379DOPE   C1B27920  13.835  34.055  12.437 -0.0245 -0.0949 -0.0798
 2379DOPE   D2B27921  13.530  33.932  12.742 -0.0366 -0.1904  0.0123
 2379DOPE   C3B27922  13.194  34.199  12.901  0.1771  0.2315  0.1457
 2379DOPE   C4B27923  13.264  34.319  13.345  0.0625  0.1537  0.0910
 2380DOPC   NC327924  11.262  30.019  11.849 -0.2356  0.0702 -0.1131
 2380DOPC   PO427925  11.116  29.631  11.850  0.0866 -0.1134  0.1257
 2380DOPC   GL127926  10.810  29.916  11.936  0.1539 -0.1405 -0.0804
 2380DOPC   GL227927  10.636  29.837  12.199 -0.0039  0.2343  0.0899
 2380DOPC   C1A27928  10.860  30.381  11.927 -0.0473 -0.1898  0.1629
 2380DOPC   D2A27929  10.958  30.634  12.254 -0.2195 -0.1111  0.0151
 2380DOPC   C3A27930  11.170  30.568  12.671  0.0381 -0.4732 -0.0832
 2380DOPC   C4A27931  11.426  30.484  13.063  0.1980  0.0724  0.1158
 2380DOPC   C1B27932  10.661  29.808  12.676  0.0579  0.0491 -0.0132
 2380DOPC   D2B27933  10.736  29.688  13.143 -0.2361 -0.0019  0.1168
 2380DOPC   C3B27934  10.394  29.371  13.028  0.0777  0.0207 -0.0427
 2380DOPC   C4B27935  10.181  28.941  13.016  0.0607 -0.0667  0.0341
 2381DOPE   NH327936  21.174  29.211  12.824  0.2078  0.0492  0.4887
 2381DOPE   PO427937  21.383  29.437  12.720  0.1342 -0.0142  0.1218
 2381DOPE   GL127938  21.541  29.530  13.083  0.4313 -0.4456 -0.4174
 2381DOPE   GL227939  21.531  29.313  13.183 -0.3865  0.0862 -0.2497
 2381DOPE   C1A27940  21.561  29.752  13.528  0.0076  0.3990  0.0599
 2381DOPE   D2A27941  21.376  29.575  13.922  0.0223  0.0007  0.2619
 2381DOPE   C3A27942  21.435  29.259  14.220 -0.0186  0.1282 -0.0188
 2381DOPE   C4A27943  21.626  29.133  14.625  0.0762 -0.0036  0.0794
 2381DOPE   C1B27944  21.194  29.017  13.310  0.1298 -0.0268  0.1247
 2381DOPE   D2B27945  20.799  29.030  13.552 -0.2443 -0.1485  0.1143
 2381DOPE   C3B27946  20.932  29.008  13.997 -0.2380  0.1654  0.0123
 2381DOPE   C4B27947  20.753  28.733  14.314  0.4386  0.0421 -0.1324
 2382DOPS   CNO27948  17.581  34.545  11.979  0.2314  0.0657 -0.0109
 2382DOPS   PO427949  17.812  34.290  11.864  0.2391  0.0449  0.3165
 2382DOPS   GL127950  17.812  33.910  11.939  0.2674  0.1361  0.1403
 2382DOPS   GL227951  18.137  33.867  11.905  0.3494 -0.1112 -0.0046
 2382DOPS   C1A27952  17.723  33.480  11.920  0.2281 -0.0934  0.1004
 2382DOPS   D2A27953  17.914  33.048  12.113  0.0805  0.1471 -0.2060
 2382DOPS   C3A27954  18.183  32.972  12.492 -0.1491  0.1620  0.0879
 2382DOPS   C4A27955  18.251  32.648  12.855  0.0388  0.1715 -0.1018
 2382DOPS   C1B27956  18.134  33.711  12.328  0.0527  0.1263 -0.1478
 2382DOPS   D2B27957  18.196  33.903  12.719  0.1386 -0.0327  0.2560
 2382DOPS   C3B27958  18.245  33.775  13.161 -0.2567  0.0701 -0.1662
 2382DOPS   C4B27959  18.319  33.627  13.623  0.1487 -0.0997  0.0578
 2383DOPC   NC327960  15.869  34.656  12.202  0.0063 -0.0035  0.1935
 2383DOPC   PO427961  15.774  34.302  12.391  0.1164 -0.0352 -0.0106
 2383DOPC   GL127962  15.620  34.099  12.659 -0.3011  0.1963  0.0692
 2383DOPC   GL227963  15.373  34.048  12.557 -0.0094  0.1945 -0.2110
 2383DOPC   C1A27964  15.562  33.707  12.920  0.1317 -0.0752 -0.0142
 2383DOPC   D2A27965  15.368  33.237  12.860  0.0642 -0.0121 -0.2524
 2383DOPC   C3A27966  14.921  33.193  12.746 -0.4262 -0.2414  0.1406
 2383DOPC   C4A27967  14.550  32.979  12.868  0.0239  0.0680  0.2943
 2383DOPC   C1B27968  15.089  33.790  12.844 -0.2917 -0.0337  0.0452
 2383DOPC   D2B27969  14.707  33.776  13.088  0.2124  0.0452  0.2382
 2383DOPC   C3B27970  14.557  33.370  13.196  0.0104  0.4627  0.0484
 2383DOPC   C4B27971  14.437  32.992  13.370 -0.2440 -0.3117 -0.2565
 2384POSM   NC327972  20.458  30.204  12.327 -0.2666  0.1807 -0.2736
 2384POSM   PO427973  20.455  29.882  12.609  0.2598 -0.0036 -0.2889
 2384POSM   AM127974  20.517  29.953  12.944 -0.0490 -0.1054 -0.2379
 2384POSM   AM227975  20.522  29.820  13.226  0.0419  0.2524  0.0375
 2384POSM   T1A27976  20.298  30.200  13.331 -0.0732 -0.0082  0.1172
 2384POSM   C2A27977  20.080  30.263  13.724 -0.1947  0.2587  0.0422
 2384POSM   C3A27978  19.856  29.872  13.918 -0.1043 -0.2140 -0.1310
 2384POSM   C1B27979  20.726  29.954  13.498  0.1446  0.1604 -0.1199
 2384POSM   D2B27980  20.718  30.147  13.945 -0.1604 -0.1575 -0.0209
 2384POSM   C3B27981  20.310  30.291  14.160  0.0059  0.1646  0.2504
 2384POSM   C4B27982  19.863  30.245  14.307 -0.1228  0.1236  0.0719
 2385DOPC   NC327983  13.835  30.091  12.108 -0.3639 -0.3046  0.0329
 2385DOPC   PO427984  13.466  29.992  12.244  0.1889  0.0294 -0.2801
 2385DOPC   GL127985  13.261  29.910  12.537  0.4240 -0.0930  0.1099
 2385DOPC   GL227986  12.999  29.750  12.524  0.1410 -0.1382  0.2661
 2385DOPC   C1A27987  13.153  30.081  12.960  0.3821 -0.1482 -0.2834
 2385DOPC   D2A27988  12.809  30.230  13.141  0.0677  0.0600  0.0007
 2385DOPC   C3A27989  12.511  30.025  13.434 -0.3238 -0.0298  0.3243
 2385DOPC   C4A27990  12.155  30.034  13.773  0.2172  0.0446  0.1668
 2385DOPC   C1B27991  12.765  29.830  12.867  0.2384 -0.0344  0.0983
 2385DOPC   D2B27992  12.927  29.606  13.312 -0.2149 -0.1093 -0.2874
 2385DOPC   C3B27993  13.082  29.716  13.683  0.0845  0.1433 -0.0977
 2385DOPC   C4B27994  13.268  29.534  14.045  0.2120  0.0161 -0.2141
 2386POSM   NC327995  16.745  30.211  12.560  0.4277 -0.1712  0.1857
 2386POSM   PO427996  17.009  30.423  12.717  0.1061 -0.2676  0.1826
 2386POSM   AM127997  17.066  30.576  13.024  0.2903 -0.0755 -0.4344
 2386POSM   AM227998  17.230  30.787  13.049  0.0334  0.3207  0.0269
 2386POSM   T1A27999  16.887  30.889  13.443  0.2348 -0.1110 -0.0569
 2386POSM   C2A28000  17.045  31.298  13.439  0.1680  0.0196  0.0057
 2386POSM   C3A28001  17.023  31.718  13.144 -0.0529  0.1066  0.0321
 2386POSM   C1B28002  17.398  30.923  13.278 -0.2007  0.1304  0.3253
 2386POSM   D2B28003  17.712  30.850  13.650 -0.2569  0.1549  0.0731
 2386POSM   C3B28004  17.833  30.923  14.101 -0.1604 -0.3948 -0.2229
 2386POSM   C4B28005  17.833  31.079  14.560 -0.1583  0.2244  0.0924
 2387DOPE   NH328006  14.342  28.595  12.403 -0.1470  0.1398  0.0496
 2387DOPE   PO428007  14.348  28.942  12.428 -0.0425  0.0135  0.1430
 2387DOPE   GL128008  14.337  29.320  12.635 -0.1090  0.2675  0.0784
 2387DOPE   GL228009  14.545  29.394  12.498 -0.1860  0.0830 -0.2506
 2387DOPE   C1A28010  14.351  29.763  12.784 -0.0743 -0.0424  0.0408
 2387DOPE   D2A28011  14.438  30.175  12.990 -0.2637 -0.1810  0.2600
 2387DOPE   C3A28012  14.308  29.961  13.319 -0.3306 -0.1774 -0.1377
 2387DOPE   C4A28013  13.922  29.950  13.615 -0.4479  0.3612  0.2511
 2387DOPE   C1B28014  14.824  29.664  12.622  0.1124  0.0650 -0.1012
 2387DOPE   D2B28015  14.856  29.901  13.027  0.1807  0.4289  0.0066
 2387DOPE   C3B28016  14.989  29.874  13.499 -0.0701  0.0412  0.4109
 2387DOPE   C4B28017  14.951  29.994  13.960  0.0237  0.4504 -0.0294
 2388DOPE   NH328018  20.860  29.668  12.484  0.0690 -0.2185  0.2722
 2388DOPE   PO428019  20.874  29.635  12.805  0.0297  0.0785 -0.0193
 2388DOPE   GL128020  21.100  29.550  13.163  0.0624  0.0703 -0.0144
 2388DOPE   GL228021  21.113  29.812  13.187  0.0905  0.1672 -0.2676
 2388DOPE   C1A28022  21.043  29.486  13.630  0.1965  0.1191  0.0806
 2388DOPE   D2A28023  20.836  29.640  13.957  0.0771  0.3235 -0.1244
 2388DOPE   C3A28024  20.546  29.312  14.069 -0.3192 -0.1448  0.0066
 2388DOPE   C4A28025  20.217  29.254  14.407  0.0455 -0.0612 -0.1568
 2388DOPE   C1B28026  21.213  30.092  13.497 -0.1913 -0.2116 -0.3623
 2388DOPE   D2B28027  21.225  30.055  13.937  0.1596 -0.2444 -0.0182
 2388DOPE   C3B28028  21.205  29.793  14.351 -0.2557  0.0675 -0.2364
 2388DOPE   C4B28029  21.238  29.445  14.642 -0.1662  0.2281  0.1127
 2389DOPS   CNO28030  18.552  23.261  11.799  0.0522  0.1541  0.0578
 2389DOPS   PO428031  18.671  23.286  12.184 -0.1027 -0.4893  0.2371
 2389DOPS   GL128032  18.623  23.012  12.442  0.2182 -0.2241 -0.2795
 2389DOPS   GL228033  18.615  23.143  12.722 -0.1005  0.2423 -0.1116
 2389DOPS   C1A28034  18.554  22.626  12.600  0.2500  0.2004  0.1450
 2389DOPS   D2A28035  18.470  22.261  12.784  0.2593  0.0761  0.0148
 2389DOPS   C3A28036  18.663  21.895  12.578 -0.0060 -0.0372 -0.1969
 2389DOPS   C4A28037  19.068  21.793  12.672  0.0956  0.1712  0.1676
 2389DOPS   C1B28038  18.677  22.859  13.004 -0.0094 -0.3610  0.1123
 2389DOPS   D2B28039  18.536  22.506  13.273  0.1476  0.4037  0.3519
 2389DOPS   C3B28040  18.729  22.153  13.484 -0.0114  0.1309  0.1924
 2389DOPS   C4B28041  19.199  21.945  13.478 -0.1693 -0.0225 -0.1632
 2390DOPE   NH328042  12.692  23.620  12.309  0.2487  0.1122 -0.2082
 2390DOPE   PO428043  12.709  23.655  12.626  0.2225  0.0411 -0.3771
 2390DOPE   GL128044  12.536  23.925  12.675  0.0783  0.0195  0.2909
 2390DOPE   GL228045  12.440  24.043  12.438 -0.1555 -0.2769 -0.1934
 2390DOPE   C1A28046  12.445  24.245  13.020 -0.0262  0.1745 -0.0110
 2390DOPE   D2A28047  12.328  24.390  13.435  0.0798  0.2158 -0.0590
 2390DOPE   C3A28048  12.507  24.626  13.813  0.1469 -0.0671  0.2529
 2390DOPE   C4A28049  12.532  24.404  14.230  0.0562 -0.1394 -0.1653
 2390DOPE   C1B28050  12.529  24.472  12.606 -0.1365 -0.1847 -0.1688
 2390DOPE   D2B28051  12.672  24.874  12.377 -0.1272  0.1687 -0.0309
 2390DOPE   C3B28052  12.816  25.307  12.178  0.1741 -0.0610  0.3656
 2390DOPE   C4B28053  12.913  25.675  12.019 -0.0167 -0.2255  0.1535
 2391DOPE   NH328054  20.829  23.885  12.282 -0.0859  0.1104 -0.0200
 2391DOPE   PO428055  20.834  24.026  12.597  0.2821  0.0462  0.1047
 2391DOPE   GL128056  20.800  23.774  13.021  0.0210  0.2491  0.2077
 2391DOPE   GL228057  20.603  23.583  13.148 -0.3191 -0.0953  0.0770
 2391DOPE   C1A28058  21.071  23.506  13.277 -0.0028  0.0842 -0.0215
 2391DOPE   D2A28059  21.136  23.380  13.777 -0.2533 -0.0330  0.0214
 2391DOPE   C3A28060  21.352  23.469  14.208  0.1153  0.0539 -0.2039
 2391DOPE   C4A28061  21.340  23.256  14.588  0.1870 -0.0723  0.2639
 2391DOPE   C1B28062  20.721  23.933  13.463 -0.1914 -0.0301 -0.0925
 2391DOPE   D2B28063  20.765  24.257  13.805  0.0128 -0.2895  0.0656
 2391DOPE   C3B28064  20.573  24.717  13.689 -0.2935 -0.0847 -0.0060
 2391DOPE   C4B28065  20.101  24.817  13.578  0.1685 -0.0431 -0.0634
 2392POSM   NC328066  22.091  32.762  12.184 -0.0273 -0.2466  0.2176
 2392POSM   PO428067  22.440  32.830  12.295  0.3064 -0.3114 -0.1463
 2392POSM   AM128068  22.319  32.772  12.604 -0.3837  0.0497 -0.0829
 2392POSM   AM228069  22.452  32.667  12.842 -0.2588 -0.0131  0.1133
 2392POSM   T1A28070  21.970  32.690  12.898  0.0621 -0.1683  0.1155
 2392POSM   C2A28071  21.811  32.432  13.289 -0.3390  0.1636 -0.1543
 2392POSM   C3A28072  21.701  32.507  13.752  0.0045  0.1909 -0.0534
 2392POSM   C1B28073  22.395  32.846  13.100  0.0826 -0.1033 -0.1489
 2392POSM   D2B28074  22.500  32.950  13.570 -0.1856 -0.1060 -0.1380
 2392POSM   C3B28075  22.485  33.339  13.774 -0.3733 -0.1170 -0.2063
 2392POSM   C4B28076  22.478  33.683  14.028  0.1142  0.2496 -0.1718
 2393DOPC   NC328077  22.422  30.827  12.375 -0.0487  0.2088 -0.0524
 2393DOPC   PO428078  22.646  31.192  12.467  0.2840  0.0208 -0.1737
 2393DOPC   GL128079  22.377  31.452  12.703  0.3657  0.1233  0.1247
 2393DOPC   GL228080  22.258  31.734  12.639 -0.0835 -0.0691  0.3847
 2393DOPC   C1A28081  22.131  31.524  13.098 -0.0804  0.2994  0.0192
 2393DOPC   D2A28082  21.745  31.362  13.241 -0.2613  0.0836 -0.0639
 2393DOPC   C3A28083  21.667  31.584  13.625  0.0203 -0.1479  0.0604
 2393DOPC   C4A28084  21.572  31.934  13.952  0.0056 -0.0114  0.2878
 2393DOPC   C1B28085  22.462  31.839  13.060 -0.0932  0.2252 -0.2884
 2393DOPC   D2B28086  22.586  31.783  13.515  0.1860 -0.0164  0.0836
 2393DOPC   C3B28087  22.928  32.054  13.505 -0.0484 -0.0850  0.0438
 2393DOPC   C4B28088  23.399  31.984  13.390  0.1812 -0.0870 -0.4214
 2394DOPC   NC328089  14.431  23.016  11.888 -0.0446 -0.1123 -0.0637
 2394DOPC   PO428090  14.536  23.392  11.729  0.1763  0.2729 -0.2291
 2394DOPC   GL128091  14.888  23.391  12.040 -0.0165 -0.1226  0.2950
 2394DOPC   GL228092  14.629  23.323  12.286  0.1945  0.1078 -0.1914
 2394DOPC   C1A28093  15.297  23.517  12.228  0.3456  0.1403 -0.2627
 2394DOPC   D2A28094  15.728  23.503  12.175  0.3796  0.1408  0.1251
 2394DOPC   C3A28095  15.998  23.839  12.370  0.1265 -0.2932 -0.1053
 2394DOPC   C4A28096  16.303  24.166  12.493 -0.3074  0.0548  0.4118
 2394DOPC   C1B28097  15.036  23.165  12.519 -0.1346 -0.1171 -0.2570
 2394DOPC   D2B28098  15.243  23.071  12.905 -0.0502  0.1452 -0.1735
 2394DOPC   C3B28099  15.590  23.244  13.065 -0.3972  0.0100 -0.0313
 2394DOPC   C4B28100  15.823  23.268  13.416  0.0448 -0.0137 -0.2345
 2395DOPE   NH328101  14.109  23.621  12.060  0.3560  0.1077  0.1167
 2395DOPE   PO428102  14.376  23.741  12.132  0.1309  0.0443  0.0557
 2395DOPE   GL128103  14.690  23.778  12.372  0.1113 -0.0833 -0.0318
 2395DOPE   GL228104  14.516  23.741  12.627 -0.1110  0.1434  0.1863
 2395DOPE   C1A28105  15.032  23.671  12.648  0.4139  0.1369 -0.0619
 2395DOPE   D2A28106  15.303  23.937  12.935 -0.0925  0.1315 -0.2259
 2395DOPE   C3A28107  15.574  23.777  13.252  0.0146 -0.2940  0.0943
 2395DOPE   C4A28108  15.964  23.786  13.514 -0.1030 -0.2330  0.1848
 2395DOPE   C1B28109  14.723  23.921  12.915  0.1956  0.0226 -0.0440
 2395DOPE   D2B28110  14.909  24.161  13.278 -0.1181 -0.3085  0.1228
 2395DOPE   C3B28111  15.227  24.299  13.620 -0.0475  0.1815  0.3151
 2395DOPE   C4B28112  15.300  24.604  14.007  0.1231 -0.2289  0.1148
 2396DOPE   NH328113  19.092  26.676  12.710 -0.3603  0.0009  0.0608
 2396DOPE   PO428114  19.357  26.670  12.539  0.0711  0.0865  0.2773
 2396DOPE   GL128115  19.486  26.561  12.942  0.2647  0.1506 -0.1477
 2396DOPE   GL228116  19.829  26.645  12.938  0.1839  0.2748  0.0127
 2396DOPE   C1A28117  19.467  26.581  13.396  0.1393  0.1231  0.0193
 2396DOPE   D2A28118  19.678  26.316  13.727  0.0129 -0.0011  0.0195
 2396DOPE   C3A28119  19.575  26.182  14.153  0.2219 -0.1159 -0.2569
 2396DOPE   C4A28120  19.533  26.064  14.570 -0.3421 -0.1738 -0.1385
 2396DOPE   C1B28121  20.306  26.658  12.992 -0.1551  0.0416 -0.1172
 2396DOPE   D2B28122  20.655  26.446  13.191  0.0726  0.0891 -0.1889
 2396DOPE   C3B28123  20.582  26.528  13.681 -0.0092  0.0782  0.0398
 2396DOPE   C4B28124  20.140  26.546  13.811  0.1222 -0.1877  0.0241
 2397POSM   NC328125  18.680  23.828  12.263  0.0362 -0.0362  0.1990
 2397POSM   PO428126  18.416  23.876  12.023 -0.1112 -0.1333 -0.0226
 2397POSM   AM128127  18.196  23.947  12.280 -0.3702  0.3767  0.0865
 2397POSM   AM228128  17.906  23.910  12.315  0.4227 -0.1970 -0.1219
 2397POSM   T1A28129  17.970  24.352  12.562 -0.2461 -0.5462  0.2629
 2397POSM   C2A28130  17.991  24.708  12.869 -0.1799  0.0527 -0.1666
 2397POSM   C3A28131  18.147  24.730  13.251  0.0147  0.2420 -0.1892
 2397POSM   C1B28132  17.726  23.941  12.625 -0.0568  0.2100  0.1017
 2397POSM   D2B28133  17.545  23.742  13.035 -0.0584 -0.0926 -0.1975
 2397POSM   C3B28134  17.446  24.078  13.330  0.2040  0.1793  0.1177
 2397POSM   C4B28135  17.523  24.516  13.497  0.0998 -0.1632 -0.1570
 2398POSM   NC328136  19.024  27.617  12.543 -0.0070 -0.0797 -0.4348
 2398POSM   PO428137  19.370  27.526  12.768 -0.2331 -0.1839 -0.1531
 2398POSM   AM128138  19.521  27.532  13.031 -0.1147 -0.2496 -0.2052
 2398POSM   AM228139  19.466  27.611  13.280  0.0545 -0.0211 -0.1494
 2398POSM   T1A28140  19.958  27.561  13.269 -0.0693 -0.0698 -0.2014
 2398POSM   C2A28141  19.986  27.471  13.714  0.2396 -0.2706  0.1113
 2398POSM   C3A28142  19.880  27.337  14.142  0.3278 -0.0404 -0.2899
 2398POSM   C1B28143  19.254  27.717  13.495 -0.1019 -0.0881 -0.1185
 2398POSM   D2B28144  19.136  27.933  13.926 -0.0481  0.2167  0.2659
 2398POSM   C3B28145  19.270  27.642  14.256 -0.0617 -0.1678 -0.0048
 2398POSM   C4B28146  19.265  27.407  14.650  0.2767 -0.1985  0.0240
 2399POSM   NC328147  12.858  33.480  11.698  0.1766 -0.0262  0.2086
 2399POSM   PO428148  12.846  33.239  11.375  0.2844  0.2225  0.1012
 2399POSM   AM128149  12.870  32.995  11.577 -0.1656  0.3221 -0.0799
 2399POSM   AM228150  12.963  33.001  11.849  0.2987  0.2137  0.2564
 2399POSM   T1A28151  12.740  32.539  11.750  0.0056 -0.2910  0.0137
 2399POSM   C2A28152  12.921  32.159  11.740  0.1165 -0.1213  0.0385
 2399POSM   C3A28153  13.313  31.981  11.876 -0.2054 -0.0346 -0.1497
 2399POSM   C1B28154  13.150  32.804  11.970 -0.2839 -0.2503  0.3236
 2399POSM   D2B28155  13.286  32.419  12.165  0.2990  0.2008  0.3304
 2399POSM   C3B28156  13.045  32.094  12.346 -0.0765  0.0697  0.0716
 2399POSM   C4B28157  12.913  31.761  12.606 -0.2671  0.0389  0.0175
 2400POSM   NC328158  22.391  27.070  12.514 -0.2075  0.0894 -0.1176
 2400POSM   PO428159  22.350  26.725  12.310 -0.1243  0.0220 -0.0085
 2400POSM   AM128160  22.062  26.582  12.388 -0.0697  0.2192 -0.0034
 2400POSM   AM228161  21.882  26.567  12.547  0.0369  0.3604 -0.1193
 2400POSM   T1A28162  21.679  26.319  12.112  0.1484  0.2194 -0.0509
 2400POSM   C2A28163  21.220  26.258  12.208  0.1985  0.0344  0.2181
 2400POSM   C3A28164  21.005  25.953  12.463 -0.1439  0.1110 -0.0726
 2400POSM   C1B28165  21.604  26.678  12.440  0.1104  0.3054 -0.3145
 2400POSM   D2B28166  21.280  26.764  12.108  0.0078 -0.2607  0.4080
 2400POSM   C3B28167  20.942  26.868  12.411 -0.2008  0.2125  0.0653
 2400POSM   C4B28168  20.743  26.888  12.867  0.1625  0.4980  0.0023
 2401DOPC   NC328169  15.770  29.372  12.269 -0.0276 -0.1522  0.0171
 2401DOPC   PO428170  15.439  29.377  12.469 -0.3319  0.0403 -0.1822
 2401DOPC   GL128171  15.487  29.190  12.749  0.0980  0.1247  0.1853
 2401DOPC   GL228172  15.719  29.266  12.898  0.0690  0.4841  0.0832
 2401DOPC   C1A28173  15.157  29.020  12.983 -0.2949  0.1165 -0.1323
 2401DOPC   D2A28174  14.843  28.735  13.201  0.4302  0.0131  0.0764
 2401DOPC   C3A28175  15.087  28.405  13.343  0.2090  0.0869 -0.0343
 2401DOPC   C4A28176  15.064  27.912  13.519 -0.1557 -0.1136  0.2136
 2401DOPC   C1B28177  15.592  29.185  13.326 -0.0567 -0.1773  0.3702
 2401DOPC   D2B28178  15.359  28.821  13.440  0.1091 -0.2236 -0.2842
 2401DOPC   C3B28179  15.436  28.658  13.861 -0.0730  0.1043  0.2550
 2401DOPC   C4B28180  15.393  28.396  14.251  0.0477  0.3116  0.3207
 2402DOPC   NC328181  20.360  23.916  12.540  0.1368  0.2244  0.2485
 2402DOPC   PO428182  20.137  23.736  12.787  0.0795 -0.1700 -0.2604
 2402DOPC   GL128183  20.223  24.110  12.954 -0.1299 -0.0367  0.3293
 2402DOPC   GL228184  20.529  24.093  12.999 -0.1277 -0.2987  0.1916
 2402DOPC   C1A28185  20.266  24.234  13.417 -0.0357  0.3562 -0.0014
 2402DOPC   D2A28186  19.980  24.146  13.717  0.2121 -0.1863  0.1322
 2402DOPC   C3A28187  19.860  24.524  13.952  0.0774  0.2053  0.1225
 2402DOPC   C4A28188  20.062  24.762  14.265 -0.3486 -0.2611  0.0831
 2402DOPC   C1B28189  20.779  24.426  13.219  0.2762 -0.1227  0.1231
 2402DOPC   D2B28190  21.015  24.633  13.541  0.1596  0.2443  0.0652
 2402DOPC   C3B28191  21.048  25.096  13.382 -0.2355 -0.1058 -0.2564
 2402DOPC   C4B28192  21.077  25.579  13.510 -0.1238 -0.0063 -0.0061
 2403DOPE   NH328193  19.631  30.990  12.098  0.1560 -0.1571 -0.1689
 2403DOPE   PO428194  19.495  30.706  12.218  0.0123  0.3473 -0.2484
 2403DOPE   GL128195  19.671  30.546  12.557 -0.0624  0.2503  0.3095
 2403DOPE   GL228196  19.981  30.527  12.543  0.0949  0.0034 -0.1187
 2403DOPE   C1A28197  19.805  30.206  12.902  0.3694 -0.3019  0.2610
 2403DOPE   D2A28198  19.802  30.017  13.304  0.0755  0.1957  0.1139
 2403DOPE   C3A28199  20.109  29.709  13.405  0.1527 -0.2317  0.0318
 2403DOPE   C4A28200  20.504  29.496  13.605  0.0679 -0.1343 -0.3631
 2403DOPE   C1B28201  20.165  30.482  13.001 -0.1956 -0.3654  0.0319
 2403DOPE   D2B28202  20.091  30.715  13.405  0.2697  0.0327  0.2023
 2403DOPE   C3B28203  19.677  30.575  13.705 -0.2428 -0.0817  0.1512
 2403DOPE   C4B28204  19.361  30.476  14.007  0.2700 -0.0234  0.3762
 2404DOPC   NC328205  18.238  29.921  12.667 -0.0098  0.0632  0.0944
 2404DOPC   PO428206  18.331  29.864  12.313 -0.2183 -0.0240  0.1204
 2404DOPC   GL128207  18.687  29.849  12.326  0.1415 -0.2266 -0.4974
 2404DOPC   GL228208  18.836  29.797  12.623 -0.0084 -0.1680  0.0529
 2404DOPC   C1A28209  19.003  29.495  12.317  0.4608 -0.0652  0.0267
 2404DOPC   D2A28210  19.353  29.348  12.541  0.1446 -0.0898  0.1273
 2404DOPC   C3A28211  19.131  29.424  12.905 -0.1543  0.0953  0.1946
 2404DOPC   C4A28212  19.131  29.230  13.391 -0.0045 -0.1441  0.0900
 2404DOPC   C1B28213  18.942  30.047  13.041  0.0481 -0.1872  0.2956
 2404DOPC   D2B28214  18.842  30.284  13.394  0.0321 -0.1147  0.1108
 2404DOPC   C3B28215  18.938  30.070  13.757  0.0067  0.2350 -0.0192
 2404DOPC   C4B28216  18.977  30.135  14.199  0.2621 -0.3898 -0.1776
 2405DOPC   NC328217  21.945  30.380  12.063  0.0228  0.0442 -0.0184
 2405DOPC   PO428218  21.943  30.710  12.285  0.1596 -0.2451 -0.0142
 2405DOPC   GL128219  21.924  30.925  12.471 -0.1456 -0.3736 -0.0641
 2405DOPC   GL228220  22.075  31.214  12.397  0.0571  0.2862  0.1907
 2405DOPC   C1A28221  21.505  31.065  12.517 -0.3213  0.0524 -0.0364
 2405DOPC   D2A28222  21.061  31.124  12.735 -0.0014 -0.1527  0.0902
 2405DOPC   C3A28223  21.007  31.277  13.174  0.0438 -0.0979 -0.0908
 2405DOPC   C4A28224  21.148  31.326  13.602 -0.1324 -0.0662 -0.1130
 2405DOPC   C1B28225  21.842  31.481  12.697 -0.1267  0.0989  0.0716
 2405DOPC   D2B28226  21.434  31.482  12.850  0.1628  0.0613 -0.0186
 2405DOPC   C3B28227  21.237  31.728  13.230  0.0252 -0.0764 -0.0162
 2405DOPC   C4B28228  21.168  31.793  13.704  0.0423 -0.1557 -0.1668
 2406DOPS   CNO28229  19.580   0.031  11.812  0.0716  0.2170  0.1607
 2406DOPS   PO428230  19.593  -0.061  12.202  0.1219  0.0973  0.2012
 2406DOPS   GL128231  19.749  -0.101  12.616 -0.0536  0.2812  0.0513
 2406DOPS   GL228232  19.544  -0.145  12.799 -0.1395 -0.2400  0.1852
 2406DOPS   C1A28233  19.837   0.245  12.978  0.2744 -0.2089 -0.0384
 2406DOPS   D2A28234  20.068   0.550  13.179  0.1332  0.1656  0.0707
 2406DOPS   C3A28235  19.984   0.963  13.200  0.1513  0.0972  0.1314
 2406DOPS   C4A28236  19.672   1.311  13.267 -0.1408 -0.0312  0.3475
 2406DOPS   C1B28237  19.947  -0.335  12.974 -0.1961 -0.0527 -0.0147
 2406DOPS   D2B28238  20.345  -0.475  13.168  0.1140  0.2319 -0.1037
 2406DOPS   C3B28239  20.251  -0.833  13.423 -0.0699  0.0866  0.0273
 2406DOPS   C4B28240  20.402  -1.256  13.533 -0.1672  0.0813 -0.0979
 2407POSM   NC328241  21.741  27.587  12.692  0.2807  0.0208 -0.0068
 2407POSM   PO428242  22.061  27.702  12.446  0.1406  0.0224 -0.1977
 2407POSM   AM128243  22.117  27.912  12.727 -0.2030  0.3496  0.1997
 2407POSM   AM228244  22.284  27.987  12.951 -0.0523  0.1321 -0.0004
 2407POSM   T1A28245  22.083  28.406  12.695  0.0034 -0.2681 -0.2551
 2407POSM   C2A28246  21.880  28.775  12.853  0.1051  0.0944  0.0014
 2407POSM   C3A28247  21.627  28.819  13.247 -0.1076  0.2192  0.3116
 2407POSM   C1B28248  22.102  28.185  13.166  0.3399  0.1069 -0.0568
 2407POSM   D2B28249  21.927  28.450  13.476 -0.0514  0.0816  0.0041
 2407POSM   C3B28250  21.452  28.396  13.503  0.0266 -0.4834 -0.1170
 2407POSM   C4B28251  21.023  28.151  13.375 -0.1641  0.4329 -0.1350
 2408DOPS   CNO28252  19.006  30.951  12.306  0.1311 -0.0821 -0.0357
 2408DOPS   PO428253  19.023  31.302  12.505  0.1324  0.2154  0.1954
 2408DOPS   GL128254  19.101  31.508  12.873  0.1718 -0.2566  0.1863
 2408DOPS   GL228255  19.345  31.372  13.003 -0.1868  0.1814  0.0666
 2408DOPS   C1A28256  19.311  31.914  13.076  0.0816  0.0075  0.0619
 2408DOPS   D2A28257  19.677  32.080  12.825  0.1491  0.1085  0.1818
 2408DOPS   C3A28258  19.685  32.539  12.764 -0.2233  0.3517  0.1292
 2408DOPS   C4A28259  19.525  32.835  12.395 -0.1089 -0.1424 -0.3226
 2408DOPS   C1B28260  19.654  31.620  13.270  0.0760  0.0830  0.0174
 2408DOPS   D2B28261  19.911  31.915  13.505 -0.2122  0.3860  0.0797
 2408DOPS   C3B28262  20.293  31.901  13.640 -0.0624  0.0736  0.3146
 2408DOPS   C4B28263  20.708  31.955  13.689  0.1645  0.2068 -0.0145
 2409POSM   NC328264  13.970  29.191  12.288  0.3328 -0.0138 -0.0326
 2409POSM   PO428265  13.813  28.878  12.438  0.1762 -0.1668  0.2277
 2409POSM   AM128266  13.855  28.998  12.717  0.2182  0.0025  0.1811
 2409POSM   AM228267  14.076  28.962  12.871  0.2072 -0.2873  0.1163
 2409POSM   T1A28268  13.736  29.157  13.206  0.0048  0.1173  0.1555
 2409POSM   C2A28269  13.570  29.419  13.580 -0.2135  0.0287 -0.1498
 2409POSM   C3A28270  13.787  29.545  13.960  0.3559  0.0839 -0.0171
 2409POSM   C1B28271  14.201  29.172  13.116 -0.2860  0.1361 -0.2228
 2409POSM   D2B28272  14.500  29.072  13.468  0.2550  0.4156 -0.1705
 2409POSM   C3B28273  14.484  28.917  13.860  0.1667  0.0130 -0.2996
 2409POSM   C4B28274  14.353  28.509  14.050  0.2556 -0.1071  0.0678
 2410DOPC   NC328275  14.833  30.876  12.110 -0.0908 -0.4004 -0.2180
 2410DOPC   PO428276  15.206  31.019  12.126 -0.0189  0.0113  0.1170
 2410DOPC   GL128277  15.098  31.124  12.506  0.4126  0.1196  0.3076
 2410DOPC   GL228278  15.102  30.892  12.609  0.2135 -0.1884  0.1972
 2410DOPC   C1A28279  15.217  31.416  12.863 -0.0142 -0.1154  0.1270
 2410DOPC   D2A28280  15.602  31.626  12.958  0.2813 -0.0068 -0.2397
 2410DOPC   C3A28281  15.833  32.042  13.006  0.1189  0.1715 -0.0666
 2410DOPC   C4A28282  16.073  32.402  13.226 -0.0897  0.0085  0.0535
 2410DOPC   C1B28283  15.051  30.932  13.048  0.2266  0.0080 -0.1559
 2410DOPC   D2B28284  14.904  31.323  13.265  0.0378 -0.0267  0.2620
 2410DOPC   C3B28285  14.840  31.707  13.075 -0.0598 -0.1870 -0.1427
 2410DOPC   C4B28286  14.908  31.919  12.668  0.0609 -0.0343  0.2945
 2411DOPC   NC328287  20.694  28.094  12.421 -0.2563 -0.3917 -0.0741
 2411DOPC   PO428288  20.316  27.904  12.542  0.1758  0.0582  0.3509
 2411DOPC   GL128289  20.384  27.897  13.027 -0.3732 -0.3260 -0.1885
 2411DOPC   GL228290  20.402  27.610  13.006 -0.1596  0.1064  0.2578
 2411DOPC   C1A28291  20.219  27.946  13.437 -0.1638 -0.2135 -0.3040
 2411DOPC   D2A28292  20.009  28.188  13.755  0.0082  0.0432  0.1507
 2411DOPC   C3A28293  20.206  28.310  14.205 -0.0531 -0.3491 -0.0792
 2411DOPC   C4A28294  20.247  28.445  14.622  0.2577  0.0830  0.0924
 2411DOPC   C1B28295  20.623  27.355  12.702 -0.0332 -0.0270 -0.0580
 2411DOPC   D2B28296  20.893  27.424  12.306  0.1359  0.0264 -0.4239
 2411DOPC   C3B28297  21.405  27.344  12.342 -0.0606 -0.4995  0.1665
 2411DOPC   C4B28298  21.778  27.106  12.211  0.0283 -0.1688  0.0144
 2412DOPC   NC328299  13.004  23.813  12.975  0.1639 -0.1098  0.0382
 2412DOPC   PO428300  13.266  23.654  12.719  0.0206  0.0749  0.1494
 2412DOPC   GL128301  13.496  23.786  13.050  0.0499  0.3233  0.2674
 2412DOPC   GL228302  13.415  24.060  13.020  0.3443 -0.0293 -0.0040
 2412DOPC   C1A28303  13.574  23.863  13.509  0.0429  0.1966 -0.2172
 2412DOPC   D2A28304  13.333  23.907  13.833  0.0759 -0.0142  0.2043
 2412DOPC   C3A28305  12.921  23.728  13.702  0.0317 -0.0388  0.2129
 2412DOPC   C4A28306  12.618  23.893  13.357  0.2020  0.0391  0.2038
 2412DOPC   C1B28307  13.846  24.229  13.199  0.2112  0.4182  0.2498
 2412DOPC   D2B28308  14.099  24.561  13.277  0.0751 -0.1748  0.0276
 2412DOPC   C3B28309  14.522  24.564  13.482 -0.0410  0.1383 -0.0655
 2412DOPC   C4B28310  14.748  24.887  13.674  0.0968 -0.3918  0.1438
 2413POSM   NC328311  19.906  34.281  11.755 -0.0506 -0.1360 -0.1671
 2413POSM   PO428312  20.014  33.911  11.854  0.4098 -0.2694  0.0710
 2413POSM   AM128313  19.897  33.740  12.126  0.2752  0.0188  0.0553
 2413POSM   AM228314  19.635  33.755  12.279  0.2075 -0.2359  0.1240
 2413POSM   T1A28315  19.958  33.756  12.643  0.1218 -0.2326  0.3328
 2413POSM   C2A28316  19.781  33.669  13.021  0.0603  0.2188 -0.1752
 2413POSM   C3A28317  19.819  33.378  13.414  0.0177  0.0153 -0.3437
 2413POSM   C1B28318  19.525  33.431  12.207 -0.1913 -0.1635  0.1189
 2413POSM   D2B28319  19.366  33.051  11.995 -0.4088  0.0821  0.0336
 2413POSM   C3B28320  19.186  32.578  12.144  0.2262 -0.0060  0.1992
 2413POSM   C4B28321  18.742  32.401  12.224  0.1019 -0.0596  0.2934
 2414POSM   NC328322  14.589  26.905  12.001  0.6194 -0.2360 -0.2803
 2414POSM   PO428323  14.724  26.782  12.335  0.0475  0.0761  0.1831
 2414POSM   AM128324  14.589  26.517  12.429  0.3331  0.3159 -0.1519
 2414POSM   AM228325  14.656  26.431  12.695 -0.0244  0.0772  0.2232
 2414POSM   T1A28326  14.434  26.057  12.379  0.0235 -0.2810  0.0397
 2414POSM   C2A28327  14.354  25.638  12.549 -0.1116 -0.1005 -0.3450
 2414POSM   C3A28328  14.401  25.249  12.811 -0.1022 -0.0144 -0.0752
 2414POSM   C1B28329  14.357  26.472  12.896 -0.1853 -0.0062  0.1466
 2414POSM   D2B28330  14.255  26.716  13.238  0.1963  0.2234 -0.1497
 2414POSM   C3B28331  14.193  26.683  13.667 -0.1735 -0.0476 -0.1880
 2414POSM   C4B28332  14.022  26.666  14.079 -0.1075  0.1043 -0.1508
 2415DOPE   NH328333  18.288  27.095  13.129 -0.0291  0.0697  0.0811
 2415DOPE   PO428334  18.174  27.197  12.818 -0.2474 -0.0280  0.0574
 2415DOPE   GL128335  17.895  27.285  13.032  0.0055 -0.1335  0.0482
 2415DOPE   GL228336  17.798  27.006  13.211  0.0026  0.3563  0.2962
 2415DOPE   C1A28337  17.707  27.672  13.160 -0.1782  0.0163  0.1646
 2415DOPE   D2A28338  17.862  28.083  13.191  0.4460  0.4319  0.1341
 2415DOPE   C3A28339  17.703  28.385  13.416  0.1035  0.0266  0.1483
 2415DOPE   C4A28340  17.547  28.745  13.687  0.2525 -0.1707  0.0005
 2415DOPE   C1B28341  17.373  27.350  13.170  0.4192  0.4272 -0.0686
 2415DOPE   D2B28342  16.999  27.622  13.277 -0.0493  0.2596  0.1921
 2415DOPE   C3B28343  16.869  28.026  13.492 -0.0291 -0.0631 -0.1731
 2415DOPE   C4B28344  16.628  28.427  13.455  0.1450  0.2098 -0.0028
 2416DOPS   CNO28345  22.893  27.298  12.525  0.0165  0.0396 -0.0824
 2416DOPS   PO428346  22.968  27.487  12.820 -0.0704 -0.0257  0.2889
 2416DOPS   GL128347  22.803  27.753  13.055 -0.1391  0.3378 -0.0269
 2416DOPS   GL228348  22.551  27.567  13.222 -0.2517 -0.1056 -0.0204
 2416DOPS   C1A28349  22.563  28.032  13.373 -0.2816  0.1755  0.0506
 2416DOPS   D2A28350  22.477  28.352  13.740  0.1719 -0.0550  0.0958
 2416DOPS   C3A28351  22.140  28.553  13.938  0.0338 -0.1212  0.4085
 2416DOPS   C4A28352  21.696  28.366  13.957 -0.0160 -0.3182  0.1749
 2416DOPS   C1B28353  22.291  27.365  13.613  0.2856 -0.1725  0.1495
 2416DOPS   D2B28354  21.985  27.088  13.458  0.0061  0.2253  0.1598
 2416DOPS   C3B28355  21.711  26.808  13.596  0.0317  0.0854 -0.0418
 2416DOPS   C4B28356  21.280  26.590  13.600 -0.0282  0.0897  0.0708
 2417DOPE   NH328357  22.892  33.565  12.304 -0.1066  0.0283 -0.1014
 2417DOPE   PO428358  22.928  33.549  12.611  0.2112 -0.1570 -0.0550
 2417DOPE   GL128359  22.929  33.481  12.922  0.3345  0.0424  0.0163
 2417DOPE   GL228360  22.626  33.504  12.981  0.0933  0.0727 -0.1210
 2417DOPE   C1A28361  23.033  33.890  13.186 -0.0653  0.0865 -0.0686
 2417DOPE   D2A28362  23.486  34.043  13.156  0.1998 -0.1172  0.1331
 2417DOPE   C3A28363  23.612  34.376  13.452 -0.3525 -0.1539  0.1909
 2417DOPE   C4A28364  23.651  34.756  13.755  0.0646 -0.1143 -0.2013
 2417DOPE   C1B28365  22.857  33.309  13.310  0.0671 -0.3786 -0.1299
 2417DOPE   D2B28366  22.974  33.417  13.733  0.2245 -0.1829  0.2338
 2417DOPE   C3B28367  23.194  33.583  14.079 -0.2077 -0.1051  0.0832
 2417DOPE   C4B28368  23.675  33.788  14.050  0.2107 -0.1059 -0.0120
 2418DOPC   NC328369  13.044  28.132  12.712 -0.2006 -0.0309 -0.2337
 2418DOPC   PO428370  13.097  28.303  12.402 -0.2795  0.2670 -0.0825
 2418DOPC   GL128371  12.732  28.484  12.566  0.2858 -0.0574  0.0852
 2418DOPC   GL228372  12.849  28.682  12.666  0.1048 -0.0090  0.2032
 2418DOPC   C1A28373  12.495  28.828  12.344 -0.3645  0.4422  0.1627
 2418DOPC   D2A28374  12.367  29.282  12.191  0.0190 -0.2556 -0.1782
 2418DOPC   C3A28375  12.319  29.516  12.577 -0.0533 -0.3267 -0.0122
 2418DOPC   C4A28376  12.256  29.533  13.050  0.1771 -0.0300  0.1956
 2418DOPC   C1B28377  12.568  29.048  12.751 -0.0951 -0.2884  0.1718
 2418DOPC   D2B28378  12.176  29.001  12.910  0.2623  0.1566 -0.3243
 2418DOPC   C3B28379  11.847  29.287  13.122 -0.1285 -0.1157 -0.1277
 2418DOPC   C4B28380  11.407  29.354  13.040 -0.0573  0.1343 -0.1648
 2419DOPC   NC328381  15.716  26.545  12.591 -0.0210  0.2504 -0.3527
 2419DOPC   PO428382  15.862  26.157  12.566  0.0562 -0.1558  0.1057
 2419DOPC   GL128383  15.883  26.319  12.945  0.1669  0.2662 -0.1277
 2419DOPC   GL228384  16.178  26.570  12.930  0.1846  0.3994 -0.0796
 2419DOPC   C1A28385  15.668  26.650  13.108  0.1317 -0.1687 -0.1493
 2419DOPC   D2A28386  15.276  26.886  13.243  0.0209  0.1900  0.0355
 2419DOPC   C3A28387  15.132  26.494  13.452  0.0393 -0.1448  0.1433
 2419DOPC   C4A28388  15.232  25.995  13.490 -0.1210 -0.0391  0.0310
 2419DOPC   C1B28389  16.092  26.451  13.347 -0.3023  0.1832 -0.2058
 2419DOPC   D2B28390  16.059  26.674  13.760 -0.1078 -0.0314 -0.1854
 2419DOPC   C3B28391  16.232  26.737  14.191 -0.2274 -0.0257 -0.2543
 2419DOPC   C4B28392  16.543  26.412  14.433  0.1918  0.0900 -0.3012
 2420POSM   NC328393  21.850  29.282  12.786  0.0043 -0.0359 -0.2820
 2420POSM   PO428394  21.872  29.704  12.773 -0.0494  0.1656  0.1151
 2420POSM   AM128395  21.986  29.647  13.076 -0.1053  0.0211  0.2211
 2420POSM   AM228396  22.060  29.864  13.240  0.1159 -0.5003  0.2244
 2420POSM   T1A28397  22.000  29.240  13.332  0.0056  0.2730 -0.0021
 2420POSM   C2A28398  22.247  29.007  13.652 -0.0390  0.1225  0.3175
 2420POSM   C3A28399  22.660  28.814  13.775 -0.0053 -0.1538 -0.3350
 2420POSM   C1B28400  22.187  29.728  13.463  0.1172  0.0856 -0.2178
 2420POSM   D2B28401  22.124  29.533  13.833  0.4441  0.0317 -0.1371
 2420POSM   C3B28402  21.733  29.290  13.729  0.1633 -0.2021 -0.1201
 2420POSM   C4B28403  21.359  29.047  13.753  0.0297  0.1147  0.0401
 2421POSM   NC328404  11.865  33.145  11.472 -0.2077  0.0772  0.1092
 2421POSM   PO428405  11.846  32.893  11.167  0.0709  0.2607 -0.1834
 2421POSM   AM128406  12.025  32.648  11.236  0.0395 -0.1529  0.2650
 2421POSM   AM228407  12.278  32.552  11.125 -0.0724  0.3360 -0.2072
 2421POSM   T1A28408  11.948  32.138  11.374  0.0125 -0.2495  0.0720
 2421POSM   C2A28409  12.160  31.747  11.359  0.0718  0.0755 -0.0499
 2421POSM   C3A28410  12.592  31.649  11.297  0.1414  0.2245 -0.1397
 2421POSM   C1B28411  12.453  32.331  11.336 -0.1297  0.2487 -0.0774
 2421POSM   D2B28412  12.446  32.008  11.643 -0.4731  0.0699 -0.1214
 2421POSM   C3B28413  12.174  31.795  11.945 -0.2967  0.2361  0.1638
 2421POSM   C4B28414  12.061  31.350  12.020 -0.1064 -0.1038 -0.0498
 2422DOPS   CNO28415  18.770  26.748  12.259  0.1690 -0.1829  0.1463
 2422DOPS   PO428416  18.713  26.403  12.406  0.2276  0.0672  0.4221
 2422DOPS   GL128417  18.805  26.041  12.579  0.0102  0.3657 -0.2056
 2422DOPS   GL228418  18.934  25.926  12.252 -0.2163 -0.1869 -0.1257
 2422DOPS   C1A28419  18.673  25.691  12.832  0.1400 -0.0432 -0.1951
 2422DOPS   D2A28420  18.818  25.758  13.265  0.1617 -0.1213 -0.2557
 2422DOPS   C3A28421  19.056  25.785  13.693  0.1676 -0.1007  0.2011
 2422DOPS   C4A28422  19.465  25.882  13.714  0.0321 -0.2195 -0.1616
 2422DOPS   C1B28423  19.142  25.508  12.468  0.2715  0.4085 -0.0665
 2422DOPS   D2B28424  19.455  25.257  12.747  0.0774 -0.0162 -0.1492
 2422DOPS   C3B28425  19.224  24.955  13.016 -0.0311  0.1711  0.1606
 2422DOPS   C4B28426  19.049  24.819  13.415  0.0508  0.0767  0.0582
 2423POSM   NC328427  13.941  23.091  12.469  0.0458 -0.2796  0.0794
 2423POSM   PO428428  14.144  23.382  12.508  0.4313  0.1781 -0.2055
 2423POSM   AM128429  13.988  23.398  12.794 -0.0443 -0.0259  0.0965
 2423POSM   AM228430  13.692  23.388  12.866 -0.2373 -0.0796  0.2664
 2423POSM   T1A28431  13.927  23.484  13.340  0.1813  0.0137 -0.0235
 2423POSM   C2A28432  13.543  23.389  13.637  0.1063  0.0211  0.1290
 2423POSM   C3A28433  13.512  23.032  13.963  0.2519 -0.1913 -0.1204
 2423POSM   C1B28434  13.768  23.084  13.090 -0.2096 -0.3465 -0.1985
 2423POSM   D2B28435  14.037  23.012  13.478  0.0448  0.2479 -0.4056
 2423POSM   C3B28436  14.057  22.834  13.895  0.2352  0.0180  0.1086
 2423POSM   C4B28437  13.726  22.552  14.041  0.2356  0.0643  0.2288
 2424DOPE   NH328438  17.124  30.256  12.243  0.0659 -0.0915 -0.0971
 2424DOPE   PO428439  17.370  30.433  12.214  0.0224  0.0861  0.1419
 2424DOPE   GL128440  17.007  30.671  12.051 -0.2658  0.0468 -0.0820
 2424DOPE   GL228441  17.002  30.839  12.343 -0.0977  0.1761  0.1855
 2424DOPE   C1A28442  16.593  30.891  11.996  0.2591 -0.1690 -0.0393
 2424DOPE   D2A28443  16.419  31.344  11.869  0.1287 -0.0412 -0.0694
 2424DOPE   C3A28444  16.525  31.762  11.793 -0.0814  0.2889 -0.2068
 2424DOPE   C4A28445  16.909  32.031  11.943  0.1063  0.0690 -0.2221
 2424DOPE   C1B28446  16.985  31.271  12.334 -0.1173 -0.4476  0.1592
 2424DOPE   D2B28447  16.756  31.670  12.318 -0.1301  0.1088  0.1672
 2424DOPE   C3B28448  16.671  31.785  12.771  0.0750  0.1153 -0.1545
 2424DOPE   C4B28449  16.551  31.610  13.164 -0.0122 -0.2057 -0.1566
 2425DOPE   NH328450  13.569  23.958  11.947 -0.1983  0.1117 -0.1105
 2425DOPE   PO428451  13.427  24.234  12.010  0.0429  0.2406 -0.1342
 2425DOPE   GL128452  13.513  24.592  12.252  0.0384 -0.0472  0.2894
 2425DOPE   GL228453  13.266  24.573  12.430  0.1593 -0.1562 -0.2274
 2425DOPE   C1A28454  13.657  24.939  12.537 -0.0160 -0.3908  0.0948
 2425DOPE   D2A28455  13.937  25.301  12.681  0.2182 -0.1404 -0.1004
 2425DOPE   C3A28456  13.955  25.460  13.113 -0.0906  0.2284  0.1293
 2425DOPE   C4A28457  13.915  25.778  13.358 -0.1735 -0.1771  0.0228
 2425DOPE   C1B28458  13.028  24.802  12.721  0.1387  0.1532 -0.1538
 2425DOPE   D2B28459  12.713  24.720  13.028  0.2077  0.1806  0.2792
 2425DOPE   C3B28460  12.795  24.392  13.315 -0.1824  0.0879  0.0149
 2425DOPE   C4B28461  13.096  24.106  13.447  0.1980  0.0608  0.2395
 2426DOPE   NH328462  13.504  24.067  12.555 -0.3312  0.1467  0.1924
 2426DOPE   PO428463  13.763  24.107  12.396 -0.3597  0.2690 -0.0693
 2426DOPE   GL128464  13.836  24.453  12.646 -0.1548  0.0334  0.0823
 2426DOPE   GL228465  13.604  24.522  12.803 -0.1288 -0.1394  0.1686
 2426DOPE   C1A28466  14.106  24.833  12.851  0.0597 -0.1013 -0.1607
 2426DOPE   D2A28467  14.337  24.994  13.244  0.3240 -0.1552  0.0580
 2426DOPE   C3A28468  14.787  25.112  13.215  0.2673  0.1018  0.0687
 2426DOPE   C4A28469  15.116  25.216  13.521 -0.1856 -0.4071  0.0602
 2426DOPE   C1B28470  13.649  24.858  13.154  0.0970  0.2892  0.0862
 2426DOPE   D2B28471  13.477  25.231  13.363 -0.0323 -0.1919 -0.0876
 2426DOPE   C3B28472  13.175  25.129  13.046 -0.2331 -0.0376 -0.0367
 2426DOPE   C4B28473  12.731  25.192  13.124  0.1075 -0.3277  0.0475
 2427DOPS   CNO28474  16.266  25.240  12.070  0.0109 -0.2637 -0.0179
 2427DOPS   PO428475  16.330  25.376  12.439 -0.2949  0.0785 -0.0882
 2427DOPS   GL128476  16.061  25.160  12.666 -0.2694  0.2645  0.3755
 2427DOPS   GL228477  16.287  24.936  12.730 -0.1223 -0.0499  0.1505
 2427DOPS   C1A28478  15.668  25.022  12.719 -0.1910  0.2030 -0.0829
 2427DOPS   D2A28479  15.335  24.819  12.861 -0.2935 -0.1676 -0.0901
 2427DOPS   C3A28480  15.501  24.432  12.670  0.6073  0.1102  0.0858
 2427DOPS   C4A28481  15.477  23.974  12.485  0.0703 -0.3857 -0.0272
 2427DOPS   C1B28482  16.064  24.580  12.730 -0.1164 -0.2521  0.1338
 2427DOPS   D2B28483  15.914  24.157  12.842 -0.0055 -0.1448  0.2034
 2427DOPS   C3B28484  16.319  23.938  13.025 -0.4008  0.1102 -0.0600
 2427DOPS   C4B28485  16.607  23.637  13.195 -0.0227 -0.1090 -0.2597
 2428POSM   NC328486  19.197  26.179  13.158 -0.2228 -0.1796 -0.1688
 2428POSM   PO428487  18.858  26.267  12.953  0.1160 -0.2724  0.3512
 2428POSM   AM128488  18.708  26.269  13.265 -0.0151 -0.0478  0.0811
 2428POSM   AM228489  18.553  26.488  13.369  0.3512 -0.2111 -0.0773
 2428POSM   T1A28490  18.528  26.103  13.653  0.4089  0.2030 -0.0776
 2428POSM   C2A28491  18.545  25.657  13.725  0.0642 -0.0062 -0.1535
 2428POSM   C3A28492  18.449  25.429  14.048  0.2495 -0.1015 -0.2182
 2428POSM   C1B28493  18.612  26.665  13.715  0.0414 -0.0164  0.0128
 2428POSM   D2B28494  18.539  27.006  13.984 -0.0061  0.0910 -0.1741
 2428POSM   C3B28495  18.088  26.944  14.111 -0.0501 -0.2380  0.0721
 2428POSM   C4B28496  17.694  26.831  13.995 -0.2729  0.0996  0.2716
 2429POSM   NC328497  21.468  28.553  12.501 -0.0391  0.1525 -0.0285
 2429POSM   PO428498  21.487  28.975  12.548  0.1622  0.2956  0.1904
 2429POSM   AM128499  21.435  28.850  12.838 -0.4373  0.0129  0.0210
 2429POSM   AM228500  21.234  28.713  12.950 -0.1060 -0.0304 -0.0206
 2429POSM   T1A28501  21.642  28.376  13.063  0.0142 -0.0449  0.2071
 2429POSM   C2A28502  21.591  27.975  13.304  0.0319 -0.0418  0.0704
 2429POSM   C3A28503  21.298  27.626  13.294 -0.0415 -0.0284  0.1352
 2429POSM   C1B28504  21.016  28.587  13.202 -0.0089  0.1707 -0.0925
 2429POSM   D2B28505  20.964  28.531  13.638 -0.1866  0.0976 -0.2321
 2429POSM   C3B28506  20.549  28.641  13.853  0.1447  0.3390  0.0094
 2429POSM   C4B28507  20.246  28.858  14.166  0.2206  0.0055 -0.1185
 2430DOPE   NH328508  19.452  26.098  12.337  0.1254 -0.1602 -0.2224
 2430DOPE   PO428509  19.248  26.159  12.618  0.0733 -0.2536 -0.2094
 2430DOPE   GL128510  19.611  26.146  12.806  0.0237 -0.1392 -0.1370
 2430DOPE   GL228511  19.855  26.307  12.607  0.1671 -0.1944  0.3413
 2430DOPE   C1A28512  19.763  26.154  13.207 -0.1297 -0.0923  0.0499
 2430DOPE   D2A28513  20.177  26.246  13.359  0.1029 -0.0343 -0.1353
 2430DOPE   C3A28514  20.371  26.101  13.709  0.1087 -0.0608 -0.1475
 2430DOPE   C4A28515  20.729  26.120  13.971 -0.2666  0.0802  0.0987
 2430DOPE   C1B28516  20.196  26.083  12.856  0.4048  0.0338  0.0724
 2430DOPE   D2B28517  20.637  25.940  12.953 -0.1151 -0.0675 -0.1353
 2430DOPE   C3B28518  20.778  25.944  13.343 -0.0898 -0.1728  0.1306
 2430DOPE   C4B28519  21.065  26.135  13.648  0.0868  0.0164 -0.2057
 2431DOPS   CNO28520  13.125  33.781  11.285  0.1293  0.1821  0.0496
 2431DOPS   PO428521  12.895  34.039  11.368 -0.0261 -0.0482  0.0934
 2431DOPS   GL128522  12.992  34.000  11.742 -0.0071 -0.0393 -0.1185
 2431DOPS   GL228523  13.188  33.783  11.936  0.1146  0.0796 -0.0410
 2431DOPS   C1A28524  13.030  34.304  12.096  0.1152  0.1376 -0.1400
 2431DOPS   D2A28525  12.834  34.333  12.517  0.2497  0.2176  0.0928
 2431DOPS   C3A28526  12.532  34.697  12.486  0.0052 -0.2103  0.1014
 2431DOPS   C4A28527  12.228  34.952  12.637 -0.2707  0.0246  0.0559
 2431DOPS   C1B28528  13.101  33.807  12.387 -0.1873 -0.0533 -0.3406
 2431DOPS   D2B28529  13.107  33.534  12.770  0.2413  0.2018 -0.1060
 2431DOPS   C3B28530  12.889  33.486  13.183  0.0898 -0.1117 -0.1336
 2431DOPS   C4B28531  12.566  33.390  13.503  0.2775 -0.0821  0.1737
 2432DOPE   NH328532  18.218  30.775  12.464 -0.0653 -0.2858  0.2586
 2432DOPE   PO428533  18.154  30.767  12.787 -0.0889 -0.0297  0.1599
 2432DOPE   GL128534  18.247  30.778  13.122  0.1040  0.5144 -0.0069
 2432DOPE   GL228535  18.101  30.937  13.274  0.0745 -0.0320 -0.1097
 2432DOPE   C1A28536  18.681  30.863  13.349 -0.1444 -0.0773 -0.2185
 2432DOPE   D2A28537  19.033  31.198  13.443 -0.0981  0.0853  0.2068
 2432DOPE   C3A28538  18.925  31.620  13.293  0.1969 -0.0663 -0.0485
 2432DOPE   C4A28539  18.537  31.876  13.378  0.1847 -0.1122  0.2210
 2432DOPE   C1B28540  18.192  30.900  13.714  0.1268  0.1107  0.1189
 2432DOPE   D2B28541  18.297  31.016  14.174 -0.1422  0.2094  0.1983
 2432DOPE   C3B28542  18.171  30.606  14.453 -0.0059 -0.1033  0.2055
 2432DOPE   C4B28543  18.196  30.238  14.729  0.3104 -0.2010  0.0614
 2433POSM   NC328544  11.415  25.957  11.705 -0.0740  0.0731  0.0907
 2433POSM   PO428545  11.523  26.282  11.926  0.1224 -0.0023  0.2155
 2433POSM   AM128546  11.443  26.025  12.172  0.4669 -0.2306 -0.2442
 2433POSM   AM228547  11.542  25.957  12.451  0.0839  0.2931 -0.1808
 2433POSM   T1A28548  11.418  25.540  12.207 -0.0149  0.1841  0.2966
 2433POSM   C2A28549  11.514  25.275  12.519 -0.2781 -0.1880 -0.1051
 2433POSM   C3A28550  11.853  25.225  12.827 -0.1384  0.4640  0.1025
 2433POSM   C1B28551  11.446  25.720  12.657 -0.1957  0.0806 -0.1757
 2433POSM   D2B28552  11.253  25.432  12.924  0.2730 -0.2120 -0.0509
 2433POSM   C3B28553  11.388  25.373  13.378  0.1886  0.3751  0.4060
 2433POSM   C4B28554  11.396  25.429  13.871 -0.0190  0.0544  0.4341
 2434POSM   NC328555  12.394  33.832  11.558 -0.1037  0.3651 -0.2650
 2434POSM   PO428556  12.188  34.146  11.564  0.2254 -0.0258 -0.2088
 2434POSM   AM128557  12.360  34.217  11.823 -0.2493 -0.1567  0.0546
 2434POSM   AM228558  12.597  34.351  11.762 -0.2832 -0.2172 -0.3289
 2434POSM   T1A28559  12.653  33.922  12.091 -0.0965 -0.1171  0.1975
 2434POSM   C2A28560  12.625  33.558  12.318 -0.1636  0.0033  0.3679
 2434POSM   C3A28561  12.674  33.103  12.519  0.0129  0.3580  0.0136
 2434POSM   C1B28562  12.614  34.553  12.000  0.1300 -0.3720  0.2601
 2434POSM   D2B28563  12.762  35.009  12.108  0.1176 -0.0572  0.0552
 2434POSM   C3B28564  12.817  35.210  12.569  0.0105  0.1415 -0.1848
 2434POSM   C4B28565  12.639  35.042  12.901  0.2633 -0.2968  0.0333
 2435DOPC   NC328566  15.440  30.610  12.198  0.1293  0.0926 -0.1842
 2435DOPC   PO428567  15.556  30.903  12.469  0.0023 -0.2241 -0.0767
 2435DOPC   GL128568  15.546  31.142  12.791 -0.2734  0.1093  0.2416
 2435DOPC   GL228569  15.803  31.213  12.791  0.1637  0.2612  0.0765
 2435DOPC   C1A28570  15.511  31.221  13.237  0.0330 -0.2692  0.1640
 2435DOPC   D2A28571  15.328  31.549  13.471 -0.1998  0.0075 -0.0701
 2435DOPC   C3A28572  15.066  31.340  13.844  0.2326 -0.2114  0.0965
 2435DOPC   C4A28573  15.055  31.046  14.167  0.0484 -0.1536  0.2596
 2435DOPC   C1B28574  15.983  31.448  13.178  0.0183  0.0217  0.0039
 2435DOPC   D2B28575  16.132  31.847  13.409 -0.1783  0.2554 -0.0755
 2435DOPC   C3B28576  15.728  32.059  13.468 -0.0043 -0.0137 -0.2456
 2435DOPC   C4B28577  15.337  32.048  13.719 -0.0683 -0.2276  0.0956
 2436POSM   NC328578  12.409  29.472  11.769  0.1240 -0.1410 -0.0040
 2436POSM   PO428579  12.369  29.864  11.783  0.1078 -0.0987 -0.0729
 2436POSM   AM128580  12.111  30.052  11.925  0.1150 -0.0861  0.2002
 2436POSM   AM228581  11.845  30.102  11.886  0.0589  0.0633  0.1124
 2436POSM   T1A28582  11.888  30.178  12.363  0.1681  0.1633 -0.0029
 2436POSM   C2A28583  11.621  30.123  12.747 -0.2589 -0.0303  0.2113
 2436POSM   C3A28584  11.621  29.834  13.123 -0.0427  0.0707 -0.0473
 2436POSM   C1B28585  11.661  30.355  11.919  0.0623 -0.2244  0.0942
 2436POSM   D2B28586  11.510  30.710  12.249 -0.1436  0.0156 -0.1970
 2436POSM   C3B28587  11.237  31.034  12.542  0.2068  0.0888 -0.2739
 2436POSM   C4B28588  10.929  31.329  12.614  0.0155  0.1304 -0.1101
 2437DOPE   NH328589  16.243  25.820  12.635 -0.0573  0.0825  0.0033
 2437DOPE   PO428590  16.342  26.129  12.658 -0.2465 -0.1625  0.3732
 2437DOPE   GL128591  16.428  26.182  13.005 -0.1377 -0.0855  0.0607
 2437DOPE   GL228592  16.520  25.905  13.086 -0.3331 -0.1083  0.1736
 2437DOPE   C1A28593  16.067  25.993  13.228 -0.2596  0.2664  0.1936
 2437DOPE   D2A28594  15.767  25.772  13.065 -0.0465  0.0949 -0.2903
 2437DOPE   C3A28595  15.885  25.321  13.075  0.3252  0.0986 -0.1525
 2437DOPE   C4A28596  16.076  24.930  13.119 -0.3224 -0.0935  0.0981
 2437DOPE   C1B28597  16.645  26.152  13.462 -0.0912 -0.0041  0.0190
 2437DOPE   D2B28598  16.533  26.407  13.844  0.0014  0.0782  0.2675
 2437DOPE   C3B28599  16.257  26.150  14.068  0.0431 -0.3435  0.0499
 2437DOPE   C4B28600  15.919  25.839  13.916  0.1995 -0.1313  0.0648
 2438DOPS   CNO28601  14.744  28.545  12.073 -0.1167 -0.0488  0.0945
 2438DOPS   PO428602  14.833  28.572  12.440  0.2218  0.1103 -0.0509
 2438DOPS   GL128603  14.689  28.629  12.794  0.0477  0.3205 -0.1757
 2438DOPS   GL228604  14.587  28.952  12.833  0.1658 -0.1558 -0.1536
 2438DOPS   C1A28605  14.364  28.642  13.090  0.0506  0.1463 -0.1222
 2438DOPS   D2A28606  14.103  28.305  13.240 -0.3001  0.1379 -0.1240
 2438DOPS   C3A28607  13.914  28.310  13.663 -0.0590  0.0187 -0.1119
 2438DOPS   C4A28608  13.670  28.574  13.926  0.3581 -0.1424 -0.3836
 2438DOPS   C1B28609  14.736  29.292  13.048 -0.1470 -0.3176  0.2899
 2438DOPS   D2B28610  14.636  29.548  13.376  0.0073  0.1674  0.1364
 2438DOPS   C3B28611  14.710  29.446  13.809 -0.3152  0.2164  0.3250
 2438DOPS   C4B28612  14.899  29.253  14.170  0.1171  0.0389  0.3221
 2439DOPC   NC328613  13.813  30.897  11.971 -0.1546 -0.1338  0.0479
 2439DOPC   PO428614  14.043  30.579  11.956 -0.1320  0.0599 -0.2091
 2439DOPC   GL128615  14.040  30.595  12.313  0.1452 -0.3517 -0.0262
 2439DOPC   GL228616  14.089  30.837  12.439 -0.0274 -0.1132  0.0387
 2439DOPC   C1A28617  14.484  30.554  12.507  0.2208  0.0897 -0.2120
 2439DOPC   D2A28618  14.966  30.434  12.456  0.1754 -0.0764 -0.0569
 2439DOPC   C3A28619  15.065  30.378  12.871 -0.1737  0.0098  0.0529
 2439DOPC   C4A28620  14.806  30.533  13.237  0.0638  0.0121  0.0137
 2439DOPC   C1B28621  14.098  31.063  12.895 -0.1616 -0.0306  0.2118
 2439DOPC   D2B28622  14.010  30.825  13.230 -0.0535  0.2352  0.0542
 2439DOPC   C3B28623  14.277  30.499  13.330 -0.1846  0.1473  0.4700
 2439DOPC   C4B28624  14.619  30.253  13.597  0.2948 -0.0569 -0.2440
 2440DOPC   NC328625  20.416  33.780  12.269  0.1089  0.0756  0.1967
 2440DOPC   PO428626  20.794  33.657  12.194  0.1206  0.4411 -0.2362
 2440DOPC   GL128627  20.535  33.380  12.008 -0.1548  0.4877  0.5918
 2440DOPC   GL228628  20.329  33.509  11.871 -0.2800 -0.5008 -0.1061
 2440DOPC   C1A28629  20.477  32.925  12.123 -0.1326 -0.2331  0.0615
 2440DOPC   D2A28630  20.202  32.584  12.330  0.3409 -0.2523 -0.1569
 2440DOPC   C3A28631  20.049  32.179  12.474  0.0378  0.2503  0.0751
 2440DOPC   C4A28632  19.788  31.808  12.310 -0.3801 -0.1837  0.1414
 2440DOPC   C1B28633  20.229  33.106  11.669 -0.0929 -0.0811 -0.2212
 2440DOPC   D2B28634  20.383  32.653  11.635  0.3774 -0.3777  0.0705
 2440DOPC   C3B28635  20.454  32.361  11.916  0.1121  0.1233 -0.0797
 2440DOPC   C4B28636  20.575  32.013  12.271 -0.0455 -0.0979 -0.2357
 2441DOPC   NC328637  13.831  27.621  12.826  0.2191  0.1729 -0.1326
 2441DOPC   PO428638  13.892  28.023  12.834 -0.0537  0.0958  0.2777
 2441DOPC   GL128639  13.622  28.163  13.058  0.0962 -0.0066 -0.1100
 2441DOPC   GL228640  13.343  28.104  13.139  0.3914  0.1587  0.0312
 2441DOPC   C1A28641  13.753  28.610  13.122  0.1386 -0.2292 -0.3511
 2441DOPC   D2A28642  14.022  28.780  13.473  0.1446  0.0190 -0.0577
 2441DOPC   C3A28643  14.365  28.577  13.577 -0.0959  0.0288 -0.0396
 2441DOPC   C4A28644  14.786  28.507  13.758 -0.0868 -0.1862  0.0924
 2441DOPC   C1B28645  13.471  28.394  13.487 -0.1469  0.2443 -0.2552
 2441DOPC   D2B28646  13.458  28.855  13.539 -0.2053  0.2727  0.0945
 2441DOPC   C3B28647  13.842  29.034  13.813 -0.3302  0.1292 -0.1381
 2441DOPC   C4B28648  14.191  29.286  14.113  0.0843 -0.1632 -0.1519
 2442DOPS   CNO28649  17.368  30.725  12.622  0.1556 -0.1031  0.2394
 2442DOPS   PO428650  17.718  30.719  12.457  0.3612  0.0696  0.1964
 2442DOPS   GL128651  17.735  31.028  12.850 -0.1541 -0.1792  0.3845
 2442DOPS   GL228652  17.967  31.258  12.844 -0.1428  0.2456  0.0651
 2442DOPS   C1A28653  17.586  31.370  13.087  0.1346 -0.1569  0.2940
 2442DOPS   D2A28654  17.606  31.685  13.436 -0.1528  0.2729 -0.0098
 2442DOPS   C3A28655  17.407  32.112  13.387  0.1835  0.0402 -0.0999
 2442DOPS   C4A28656  17.431  32.570  13.515  0.1255 -0.3199 -0.1586
 2442DOPS   C1B28657  17.743  31.627  12.729 -0.2349 -0.0165 -0.1506
 2442DOPS   D2B28658  17.476  32.067  12.700  0.2989  0.1637  0.1197
 2442DOPS   C3B28659  17.088  32.187  12.913 -0.3772 -0.1596  0.2551
 2442DOPS   C4B28660  16.960  32.555  13.112  0.1608 -0.3913  0.0495
 2443POSM   NC328661  12.649  23.076  12.193  0.0020 -0.2612  0.0070
 2443POSM   PO428662  12.899  23.108  12.482  0.0003  0.1081 -0.2806
 2443POSM   AM128663  13.043  23.226  12.772 -0.2680 -0.3418  0.1745
 2443POSM   AM228664  12.860  23.288  12.982 -0.1992 -0.0273 -0.0450
 2443POSM   T1A28665  13.294  23.200  13.206 -0.0442 -0.1595 -0.0421
 2443POSM   C2A28666  13.535  22.879  13.457 -0.1492 -0.2891  0.0208
 2443POSM   C3A28667  13.792  22.483  13.484  0.2170 -0.4268  0.2669
 2443POSM   C1B28668  12.793  23.329  13.314  0.1932  0.0122  0.0169
 2443POSM   D2B28669  13.031  23.189  13.693 -0.5842 -0.0914 -0.0926
 2443POSM   C3B28670  12.911  23.344  14.158  0.2138 -0.0927 -0.1886
 2443POSM   C4B28671  12.658  23.632  14.340  0.1399 -0.0545 -0.2747
 2444POSM   NC328672  17.250  33.704  11.432  0.1404 -0.3240  0.1898
 2444POSM   PO428673  17.417  33.999  11.629 -0.1297  0.0338  0.0364
 2444POSM   AM128674  17.320  33.835  11.901  0.3167  0.1507  0.5163
 2444POSM   AM228675  17.401  33.853  12.150  0.1202  0.2303  0.0476
 2444POSM   T1A28676  17.118  33.381  12.040 -0.0372 -0.2005 -0.1545
 2444POSM   C2A28677  17.286  33.197  12.446 -0.1279 -0.3930  0.1250
 2444POSM   C3A28678  17.662  33.012  12.604  0.3040  0.1930 -0.1815
 2444POSM   C1B28679  17.535  33.599  12.394 -0.1655 -0.0501 -0.0180
 2444POSM   D2B28680  17.886  33.477  12.677  0.0557  0.1828  0.0554
 2444POSM   C3B28681  17.854  33.411  13.153  0.0394  0.0813 -0.1440
 2444POSM   C4B28682  17.959  33.239  13.571  0.1356 -0.2276  0.0242
 2445DOPE   NH328683  10.579  29.504  11.771 -0.3899 -0.2442 -0.0816
 2445DOPE   PO428684  10.715  29.356  12.057 -0.1112 -0.3168  0.4461
 2445DOPE   GL128685  10.984  29.404  12.322  0.0560  0.2123 -0.0589
 2445DOPE   GL228686  11.132  29.676  12.335 -0.0738  0.1165  0.5612
 2445DOPE   C1A28687  10.920  29.262  12.795  0.0237  0.0958  0.0814
 2445DOPE   D2A28688  10.706  29.011  13.080  0.1692  0.1382  0.2890
 2445DOPE   C3A28689  10.496  29.170  13.527  0.4096 -0.1934  0.1304
 2445DOPE   C4A28690  10.286  29.594  13.467 -0.0127 -0.1040 -0.0257
 2445DOPE   C1B28691  10.951  30.102  12.449  0.1265 -0.2199  0.0743
 2445DOPE   D2B28692  10.560  30.295  12.572 -0.0024  0.3248 -0.4010
 2445DOPE   C3B28693  10.253  30.665  12.745  0.0446  0.2432 -0.1733
 2445DOPE   C4B28694   9.966  31.014  12.799  0.0947 -0.0080  0.2036
 2446DOPC   NC328695  17.628  22.739  12.123 -0.1689 -0.0850  0.0402
 2446DOPC   PO428696  17.587  23.136  12.058  0.0675  0.1459 -0.0624
 2446DOPC   GL128697  17.281  23.273  12.125  0.2384 -0.0590  0.2288
 2446DOPC   GL228698  17.081  23.008  12.274  0.1347  0.0613  0.1343
 2446DOPC   C1A28699  16.924  23.562  12.301  0.0745  0.0253  0.1403
 2446DOPC   D2A28700  16.522  23.697  12.327  0.4370  0.0222 -0.4328
 2446DOPC   C3A28701  16.268  23.301  12.222  0.1167  0.0268 -0.0164
 2446DOPC   C4A28702  15.924  23.002  12.128 -0.1947  0.1741 -0.0539
 2446DOPC   C1B28703  16.821  23.207  12.610  0.3312  0.0995  0.0519
 2446DOPC   D2B28704  16.425  23.415  12.753  0.0746  0.2001  0.1523
 2446DOPC   C3B28705  15.997  23.114  12.707 -0.2711  0.0228 -0.3374
 2446DOPC   C4B28706  15.692  22.833  12.794 -0.0397 -0.0500  0.0902
 2447POSM   NC328707  22.256  26.399  11.890  0.0623 -0.1144  0.2761
 2447POSM   PO428708  22.252  26.176  12.235 -0.0760 -0.3929 -0.0801
 2447POSM   AM128709  21.987  26.114  12.422  0.0653 -0.0047 -0.3358
 2447POSM   AM228710  22.011  26.003  12.690  0.0711 -0.0127 -0.0515
 2447POSM   T1A28711  21.559  26.224  12.679 -0.2862 -0.0429 -0.0303
 2447POSM   C2A28712  21.100  26.434  12.688  0.2985 -0.1368  0.0106
 2447POSM   C3A28713  20.606  26.368  12.667  0.0503  0.0005 -0.1281
 2447POSM   C1B28714  21.804  25.899  12.937 -0.2030 -0.1713  0.1171
 2447POSM   D2B28715  21.850  25.850  13.428 -0.2488 -0.2663 -0.1245
 2447POSM   C3B28716  22.267  25.929  13.579 -0.2660 -0.2375 -0.0774
 2447POSM   C4B28717  22.732  25.814  13.471  0.0357 -0.0396  0.2968
 2448POSM   NC328718  17.772  30.576  13.009 -0.2697 -0.1692 -0.0082
 2448POSM   PO428719  17.496  30.305  12.938  0.1760 -0.3077  0.2265
 2448POSM   AM128720  17.490  30.278  13.261 -0.0998 -0.1272  0.2954
 2448POSM   AM228721  17.482  30.475  13.454 -0.2564 -0.1867  0.0962
 2448POSM   T1A28722  17.547  30.066  13.683 -0.0250  0.0600 -0.1058
 2448POSM   C2A28723  17.336  30.013  14.107  0.3555 -0.0689  0.1035
 2448POSM   C3A28724  17.171  30.218  14.463  0.0237  0.0112 -0.0091
 2448POSM   C1B28725  17.230  30.629  13.634 -0.1419  0.0854 -0.0717
 2448POSM   D2B28726  16.893  30.599  13.941 -0.1843  0.0330 -0.0037
 2448POSM   C3B28727  16.906  31.087  13.906 -0.2234  0.0865  0.2771
 2448POSM   C4B28728  16.880  31.423  14.279 -0.0415  0.0187  0.0035
 2449DOPC   NC328729  25.380   8.544  16.185  0.1145  0.2777 -0.0021
 2449DOPC   PO428730  25.521   8.937  16.240  0.2257  0.0470  0.0013
 2449DOPC   GL128731  25.599   8.941  15.738 -0.2799  0.0972  0.1589
 2449DOPC   GL228732  25.480   8.652  15.713 -0.0142  0.2868  0.2302
 2449DOPC   C1A28733  25.530   9.047  15.285 -0.4937 -0.1339  0.0997
 2449DOPC   D2A28734  25.694   9.153  14.872  0.0075 -0.1192  0.3560
 2449DOPC   C3A28735  25.733   8.934  14.464 -0.0500 -0.0291 -0.2701
 2449DOPC   C4A28736  25.611   8.660  14.129  0.0960  0.0882 -0.2453
 2449DOPC   C1B28737  25.500   8.501  15.299  0.0898  0.0706 -0.1341
 2449DOPC   D2B28738  25.627   8.633  14.878 -0.2193 -0.2310 -0.0415
 2449DOPC   C3B28739  25.294   8.712  14.532  0.0591  0.0895  0.0391
 2449DOPC   C4B28740  25.076   9.100  14.367  0.0371 -0.2472  0.5125
 2450DOPC   NC328741  32.504   3.468  15.653 -0.0326 -0.2754  0.1194
 2450DOPC   PO428742  32.579   3.128  15.718 -0.0654  0.0166 -0.1276
 2450DOPC   GL128743  32.894   3.141  15.470 -0.0423 -0.0962 -0.0561
 2450DOPC   GL228744  33.157   3.058  15.254  0.2685  0.0303 -0.0195
 2450DOPC   C1A28745  32.929   3.409  15.081  0.4077 -0.0168  0.0163
 2450DOPC   D2A28746  32.804   3.447  14.620  0.1988 -0.0966 -0.1870
 2450DOPC   C3A28747  32.601   3.520  14.196 -0.1095 -0.0591 -0.0647
 2450DOPC   C4A28748  32.583   3.576  13.733 -0.1819 -0.0732  0.3869
 2450DOPC   C1B28749  33.189   3.139  14.747 -0.0900  0.0474  0.2464
 2450DOPC   D2B28750  33.306   3.165  14.272  0.2454 -0.3683 -0.2604
 2450DOPC   C3B28751  33.048   3.463  14.050  0.1893  0.0825 -0.0355
 2450DOPC   C4B28752  32.986   3.879  13.843  0.3283 -0.1043 -0.0185
 2451DOPE   NH328753  31.695   9.422  15.878 -0.2816  0.2022 -0.0533
 2451DOPE   PO428754  31.964   9.581  15.877 -0.1625  0.0698  0.0561
 2451DOPE   GL128755  32.048   9.404  15.558  0.2119  0.2082 -0.0519
 2451DOPE   GL228756  31.825   9.527  15.357  0.0635  0.2657 -0.1828
 2451DOPE   C1A28757  32.480   9.412  15.390 -0.0370 -0.0244  0.2979
 2451DOPE   D2A28758  32.927   9.412  15.238  0.1338  0.1272  0.0708
 2451DOPE   C3A28759  32.961   9.540  14.808  0.0485 -0.1599 -0.1951
 2451DOPE   C4A28760  33.243   9.557  14.433  0.0123  0.1001  0.0368
 2451DOPE   C1B28761  31.982   9.295  14.991 -0.0074  0.3287 -0.1734
 2451DOPE   D2B28762  32.163   8.954  14.694  0.0525  0.1856 -0.1198
 2451DOPE   C3B28763  32.306   9.123  14.264  0.3137 -0.3736 -0.0092
 2451DOPE   C4B28764  32.342   9.257  13.808  0.0603 -0.0805  0.0086
 2452DOPE   NH328765  24.507   8.711  16.540  0.1947 -0.2151  0.0134
 2452DOPE   PO428766  24.586   9.052  16.491 -0.3098 -0.3459 -0.0276
 2452DOPE   GL128767  24.636   8.946  16.088 -0.1895 -0.0296  0.0470
 2452DOPE   GL228768  24.335   8.962  15.963 -0.0475 -0.0816 -0.2164
 2452DOPE   C1A28769  24.674   9.144  15.659  0.0072  0.3369  0.2621
 2452DOPE   D2A28770  24.470   9.455  15.351  0.0165  0.0823  0.3471
 2452DOPE   C3A28771  24.775   9.730  15.140 -0.0256 -0.1280  0.2238
 2452DOPE   C4A28772  25.085   9.691  14.826  0.1303  0.1326 -0.0594
 2452DOPE   C1B28773  24.004   8.756  15.722 -0.0528  0.0815  0.1708
 2452DOPE   D2B28774  23.927   8.525  15.354  0.1344  0.1049  0.0008
 2452DOPE   C3B28775  24.071   8.640  14.916  0.4527 -0.1999  0.0952
 2452DOPE   C4B28776  24.258   8.598  14.507  0.2526  0.1102 -0.1342
 2453DOPC   NC328777  31.992  10.913  15.934 -0.0959 -0.1725  0.1734
 2453DOPC   PO428778  31.794  11.260  15.978 -0.2870  0.2245 -0.0125
 2453DOPC   GL128779  31.837  11.323  15.557  0.1480  0.2218 -0.2569
 2453DOPC   GL228780  32.022  11.508  15.549  0.0302  0.2020  0.0194
 2453DOPC   C1A28781  32.131  11.275  15.123 -0.3136  0.2345 -0.1071
 2453DOPC   D2A28782  32.145  11.194  14.708 -0.1313 -0.0196 -0.1201
 2453DOPC   C3A28783  32.302  11.473  14.374  0.0271  0.0804 -0.3091
 2453DOPC   C4A28784  32.560  11.859  14.374  0.2845 -0.1807 -0.2874
 2453DOPC   C1B28785  31.829  11.687  15.150  0.1657  0.2764 -0.0257
 2453DOPC   D2B28786  31.825  12.047  14.832 -0.2128  0.0379  0.0038
 2453DOPC   C3B28787  31.735  12.289  14.431  0.0829  0.1818  0.0508
 2453DOPC   C4B28788  31.706  12.416  14.009 -0.1785  0.2386  0.0834
 2454DOPC   NC328789  33.357   8.809  15.757  0.1561 -0.1055 -0.1451
 2454DOPC   PO428790  33.526   9.149  15.826  0.1814  0.1295 -0.3268
 2454DOPC   GL128791  33.780   9.154  15.608 -0.1482 -0.0518 -0.2008
 2454DOPC   GL228792  34.055   9.192  15.591 -0.1181 -0.2299  0.2290
 2454DOPC   C1A28793  33.838   9.235  15.153 -0.1309 -0.2293  0.2145
 2454DOPC   D2A28794  34.159   9.462  14.913  0.4143  0.1576 -0.0255
 2454DOPC   C3A28795  34.153   9.900  14.761  0.2001 -0.2089 -0.0990
 2454DOPC   C4A28796  34.014  10.303  14.528  0.1009 -0.1027 -0.1502
 2454DOPC   C1B28797  34.052   9.620  15.443 -0.0334  0.0976  0.0970
 2454DOPC   D2B28798  33.690   9.830  15.205  0.1750 -0.1101  0.0895
 2454DOPC   C3B28799  33.387   9.945  14.890 -0.0004 -0.3119 -0.2665
 2454DOPC   C4B28800  33.043   9.993  14.623 -0.1404  0.0494 -0.1015
 2455POSM   NC328801  27.341   2.976  15.900 -0.1127 -0.3067  0.1162
 2455POSM   PO428802  27.306   3.178  16.257 -0.1346 -0.1728  0.4038
 2455POSM   AM128803  27.201   3.397  16.066 -0.0754 -0.2371 -0.0702
 2455POSM   AM228804  27.287   3.475  15.812  0.0344 -0.2048  0.0485
 2455POSM   T1A28805  26.778   3.584  15.833  0.1613 -0.0141  0.1275
 2455POSM   C2A28806  26.533   3.860  15.619 -0.0434 -0.2608  0.2288
 2455POSM   C3A28807  26.218   4.229  15.658 -0.0513  0.3064 -0.1010
 2455POSM   C1B28808  27.209   3.306  15.578  0.1987  0.3647 -0.0734
 2455POSM   D2B28809  27.179   3.069  15.164 -0.0669  0.0001 -0.1054
 2455POSM   C3B28810  26.971   2.844  14.768  0.1534  0.1941 -0.1478
 2455POSM   C4B28811  26.664   2.582  14.636 -0.1729 -0.1840 -0.0987
 2456DOPS   CNO28812  31.325   9.127  15.847  0.2013  0.1657  0.1998
 2456DOPS   PO428813  31.212   9.429  16.061  0.4031 -0.0605  0.1564
 2456DOPS   GL128814  31.058   9.516  15.643  0.0672  0.4187 -0.0674
 2456DOPS   GL228815  31.316   9.503  15.505  0.2436  0.3531  0.1222
 2456DOPS   C1A28816  31.076   9.925  15.330 -0.1649 -0.2445 -0.0115
 2456DOPS   D2A28817  31.080   9.971  14.878 -0.1003  0.1009  0.0282
 2456DOPS   C3A28818  31.489  10.158  14.712 -0.0641 -0.1938  0.0320
 2456DOPS   C4A28819  31.433  10.589  14.539 -0.0044  0.1702  0.3000
 2456DOPS   C1B28820  31.162   9.497  15.032 -0.1050 -0.0732 -0.1291
 2456DOPS   D2B28821  31.094   9.536  14.564  0.0238  0.1343 -0.2091
 2456DOPS   C3B28822  31.030   9.108  14.411 -0.2199 -0.0429 -0.1993
 2456DOPS   C4B28823  31.217   8.759  14.192  0.1385 -0.1378 -0.2104
 2457DOPC   NC328824  28.395   2.052  16.219 -0.2075 -0.0894 -0.0752
 2457DOPC   PO428825  28.335   2.435  16.305  0.1144 -0.0138  0.2818
 2457DOPC   GL128826  28.442   2.561  15.888  0.1757 -0.4051 -0.0267
 2457DOPC   GL228827  28.407   2.322  15.777 -0.2112  0.2753 -0.1986
 2457DOPC   C1A28828  28.441   2.945  15.624 -0.3413  0.1113 -0.1739
 2457DOPC   D2A28829  28.552   3.136  15.203 -0.0515  0.3621  0.2028
 2457DOPC   C3A28830  28.643   2.763  14.904 -0.1723  0.0148  0.4038
 2457DOPC   C4A28831  28.832   2.385  14.796 -0.1585  0.1702  0.0921
 2457DOPC   C1B28832  28.084   2.580  15.661  0.1198  0.2517  0.2202
 2457DOPC   D2B28833  27.757   2.849  15.717  0.0476 -0.2251  0.0111
 2457DOPC   C3B28834  27.684   3.123  15.363  0.0776  0.0336  0.2471
 2457DOPC   C4B28835  27.611   3.237  14.898 -0.1960 -0.0394 -0.0699
 2458DOPE   NH328836  25.514   5.073  16.337  0.2817 -0.0242  0.0729
 2458DOPE   PO428837  25.511   5.391  16.296  0.0348 -0.0448 -0.2136
 2458DOPE   GL128838  25.532   5.289  15.888 -0.0817  0.0253 -0.0785
 2458DOPE   GL228839  25.846   5.388  15.865  0.0933  0.1839 -0.1909
 2458DOPE   C1A28840  25.592   5.410  15.450  0.2166 -0.0472 -0.1251
 2458DOPE   D2A28841  25.415   5.285  14.959  0.0386 -0.1428 -0.1034
 2458DOPE   C3A28842  25.066   5.198  14.676  0.0636  0.2814  0.1884
 2458DOPE   C4A28843  24.685   5.043  14.616 -0.3475  0.0397  0.0039
 2458DOPE   C1B28844  26.069   5.563  15.514 -0.1281  0.0393  0.0763
 2458DOPE   D2B28845  26.263   5.983  15.389 -0.0224  0.3868 -0.0572
 2458DOPE   C3B28846  26.601   6.118  15.072 -0.2887 -0.0433  0.0299
 2458DOPE   C4B28847  26.713   6.310  14.646 -0.2878  0.2471  0.2897
 2459POSM   NC328848  32.055   9.014  15.797  0.1240  0.1111  0.2676
 2459POSM   PO428849  31.736   8.814  15.944 -0.1052  0.4340  0.1731
 2459POSM   AM128850  31.630   8.854  15.624  0.2117  0.1108  0.1260
 2459POSM   AM228851  31.648   9.073  15.425  0.1520 -0.0673  0.2617
 2459POSM   T1A28852  31.363   8.668  15.254 -0.0687  0.2009  0.1100
 2459POSM   C2A28853  31.479   8.324  14.990  0.0437  0.0828  0.2606
 2459POSM   C3A28854  31.830   8.038  14.878 -0.3798  0.2721  0.3878
 2459POSM   C1B28855  31.536   9.111  15.128  0.0605  0.0304  0.0668
 2459POSM   D2B28856  31.524   9.229  14.648  0.1044  0.0021  0.1432
 2459POSM   C3B28857  31.774   8.987  14.374 -0.0013  0.1037  0.1194
 2459POSM   C4B28858  32.110   8.596  14.388  0.2365  0.0602  0.0929
 2460DOPS   CNO28859  28.726  11.489  16.354  0.2099  0.2622  0.0457
 2460DOPS   PO428860  28.611  11.167  16.454  0.1497 -0.3622 -0.2876
 2460DOPS   GL128861  28.665  11.190  16.058 -0.1756 -0.1573  0.0548
 2460DOPS   GL228862  28.668  10.943  15.926 -0.1273  0.1138  0.0679
 2460DOPS   C1A28863  28.913  11.264  15.643  0.1996 -0.0861 -0.0028
 2460DOPS   D2A28864  29.061  11.404  15.202 -0.1609  0.0439 -0.0905
 2460DOPS   C3A28865  29.207  11.718  14.943 -0.4166 -0.1470  0.1102
 2460DOPS   C4A28866  29.009  11.993  14.631 -0.1826 -0.1869  0.1168
 2460DOPS   C1B28867  28.426  11.133  15.603 -0.1426 -0.0644  0.0420
 2460DOPS   D2B28868  28.565  11.268  15.141 -0.1234  0.3363  0.0163
 2460DOPS   C3B28869  28.535  11.008  14.775 -0.2111  0.1266  0.0250
 2460DOPS   C4B28870  28.435  10.732  14.388  0.1551  0.1444 -0.2837
 2461DOPC   NC328871  33.179   3.181  15.825 -0.1444  0.1286  0.0660
 2461DOPC   PO428872  33.366   2.900  16.057 -0.1139  0.1254 -0.1203
 2461DOPC   GL128873  33.542   2.837  15.649  0.1934  0.2109 -0.0028
 2461DOPC   GL228874  33.372   2.664  15.476 -0.0101  0.3554  0.1428
 2461DOPC   C1A28875  33.898   2.774  15.372  0.0209  0.2417 -0.0394
 2461DOPC   D2A28876  34.137   2.516  15.084  0.3733  0.0088 -0.0141
 2461DOPC   C3A28877  34.229   2.163  15.315  0.1413  0.1605 -0.0610
 2461DOPC   C4A28878  34.255   1.735  15.092 -0.0632  0.1331  0.1147
 2461DOPC   C1B28879  33.228   2.491  15.072  0.0285 -0.2440 -0.0875
 2461DOPC   D2B28880  32.991   2.173  14.804  0.3386 -0.1671 -0.3835
 2461DOPC   C3B28881  33.041   1.781  14.638 -0.0903  0.2037  0.0454
 2461DOPC   C4B28882  32.889   1.504  14.946  0.0198  0.3015  0.1365
 2462DOPE   NH328883  29.789   4.882  16.617 -0.2317 -0.1383  0.1993
 2462DOPE   PO428884  29.657   4.866  16.332  0.2895 -0.4038  0.2632
 2462DOPE   GL128885  29.591   5.060  15.953 -0.2369  0.2403  0.2530
 2462DOPE   GL228886  29.503   5.313  16.045 -0.0011  0.0028 -0.1032
 2462DOPE   C1A28887  29.350   4.863  15.670  0.3800 -0.3900  0.2390
 2462DOPE   D2A28888  29.257   4.398  15.455 -0.3248 -0.0859  0.0849
 2462DOPE   C3A28889  29.351   4.387  14.983  0.2394 -0.0524  0.0411
 2462DOPE   C4A28890  29.053   4.251  14.636  0.1661 -0.2004 -0.2283
 2462DOPE   C1B28891  29.411   5.443  15.611 -0.1837 -0.1673  0.3347
 2462DOPE   D2B28892  29.255   5.808  15.372 -0.0860 -0.0213 -0.2279
 2462DOPE   C3B28893  29.473   5.854  14.940  0.0494  0.0879 -0.1492
 2462DOPE   C4B28894  29.421   5.612  14.540  0.0386 -0.0252  0.0982
 2463DOPE   NH328895  28.136   5.216  16.197  0.0128 -0.2820  0.2581
 2463DOPE   PO428896  28.432   5.143  16.174  0.0623  0.2305  0.0099
 2463DOPE   GL128897  28.382   5.048  15.812 -0.3082  0.2648  0.2597
 2463DOPE   GL228898  28.198   5.261  15.656 -0.4372  0.1313  0.3332
 2463DOPE   C1A28899  28.595   5.047  15.380  0.1057 -0.0375 -0.1518
 2463DOPE   D2A28900  28.548   5.024  14.905  0.3256 -0.3009 -0.0400
 2463DOPE   C3A28901  28.743   4.994  14.456  0.0169 -0.0239  0.1413
 2463DOPE   C4A28902  28.787   5.223  14.113 -0.0002  0.1801  0.1168
 2463DOPE   C1B28903  28.062   5.272  15.229  0.0730 -0.3075  0.2860
 2463DOPE   D2B28904  28.134   5.284  14.740  0.1743  0.2899  0.1239
 2463DOPE   C3B28905  28.336   5.248  14.339 -0.0303  0.0489 -0.0457
 2463DOPE   C4B28906  28.210   5.072  13.957  0.0121 -0.0156  0.0571
 2464DOPC   NC328907  31.334  10.680  16.429 -0.3412 -0.0294  0.0408
 2464DOPC   PO428908  31.563  10.789  16.123  0.0873  0.1917  0.0403
 2464DOPC   GL128909  31.436  10.624  15.801 -0.2979 -0.0330 -0.1587
 2464DOPC   GL228910  31.666  10.451  15.729 -0.1179 -0.0411  0.0217
 2464DOPC   C1A28911  31.125  10.415  15.581 -0.4385  0.0804 -0.1286
 2464DOPC   D2A28912  30.687  10.259  15.423  0.3343 -0.0273  0.1545
 2464DOPC   C3A28913  30.276  10.508  15.274 -0.1850  0.1639  0.3692
 2464DOPC   C4A28914  29.901  10.518  14.965 -0.1971  0.0935 -0.0243
 2464DOPC   C1B28915  31.686  10.770  15.440 -0.2774  0.0680  0.1894
 2464DOPC   D2B28916  31.528  11.148  15.279 -0.2458 -0.0441  0.0461
 2464DOPC   C3B28917  31.444  11.568  15.408 -0.0764  0.0693  0.0274
 2464DOPC   C4B28918  31.470  12.015  15.290 -0.0410  0.0901  0.2721
 2465POSM   NC328919  32.222   6.510  17.008 -0.0030 -0.1388  0.2613
 2465POSM   PO428920  32.356   6.659  16.640  0.3843  0.3533 -0.2787
 2465POSM   AM128921  32.357   6.546  16.353  0.1458  0.5196  0.0996
 2465POSM   AM228922  32.346   6.237  16.187 -0.2587 -0.0176  0.0887
 2465POSM   T1A28923  32.180   6.678  15.935  0.0896 -0.1711 -0.0211
 2465POSM   C2A28924  31.928   7.018  15.824  0.0710 -0.2138 -0.1422
 2465POSM   C3A28925  31.552   7.092  15.605  0.1742 -0.2875 -0.0562
 2465POSM   C1B28926  32.479   6.308  15.935 -0.2051 -0.0760 -0.1861
 2465POSM   D2B28927  32.562   6.570  15.574 -0.0554 -0.1485  0.1600
 2465POSM   C3B28928  32.884   6.818  15.502 -0.2184  0.0415 -0.0718
 2465POSM   C4B28929  33.330   6.982  15.540  0.2132  0.0149  0.0372
 2466DOPE   NH328930  23.206   9.081  15.892  0.1245 -0.0707 -0.1484
 2466DOPE   PO428931  23.284   9.332  16.081 -0.4790 -0.0176  0.0876
 2466DOPE   GL128932  23.494   9.597  15.864  0.0611 -0.2307  0.2842
 2466DOPE   GL228933  23.577   9.839  15.645  0.1898 -0.1821  0.0263
 2466DOPE   C1A28934  23.816   9.354  15.662  0.0259  0.6235  0.0850
 2466DOPE   D2A28935  24.137   9.085  15.439 -0.0863  0.0873  0.3103
 2466DOPE   C3A28936  24.432   8.994  15.032  0.1164 -0.2888  0.1706
 2466DOPE   C4A28937  24.754   8.828  14.691 -0.1205 -0.2769  0.0629
 2466DOPE   C1B28938  23.228   9.907  15.385 -0.1544  0.0534  0.1389
 2466DOPE   D2B28939  22.939   9.777  15.027  0.0682  0.1433 -0.2959
 2466DOPE   C3B28940  22.969   9.833  14.544 -0.1097  0.2927  0.2649
 2466DOPE   C4B28941  22.866  10.100  14.199 -0.1616 -0.2710  0.0458
 2467DOPS   CNO28942  27.358   1.396  16.171 -0.2800  0.4406 -0.0424
 2467DOPS   PO428943  27.322   1.771  16.116  0.1822 -0.2128  0.1625
 2467DOPS   GL128944  27.258   1.978  15.756  0.1317 -0.0183 -0.1213
 2467DOPS   GL228945  27.018   2.122  15.702 -0.3376  0.0649  0.0076
 2467DOPS   C1A28946  27.341   1.776  15.369  0.0323 -0.2314  0.0055
 2467DOPS   D2A28947  27.521   1.624  14.929 -0.0667 -0.2287 -0.0108
 2467DOPS   C3A28948  27.255   1.718  14.577  0.2036 -0.3041 -0.1833
 2467DOPS   C4A28949  26.953   1.725  14.199 -0.1580  0.1504  0.0656
 2467DOPS   C1B28950  27.153   2.265  15.266 -0.1801  0.3775 -0.1911
 2467DOPS   D2B28951  27.051   2.253  14.776 -0.0991  0.1738  0.0039
 2467DOPS   C3B28952  27.163   2.522  14.421 -0.2233 -0.1253 -0.1190
 2467DOPS   C4B28953  27.081   2.841  14.144 -0.2880 -0.1208  0.0372
 2468POSM   NC328954  31.138   8.241  16.182  0.1488  0.0199  0.4425
 2468POSM   PO428955  30.936   8.442  16.442  0.1840 -0.2776  0.0027
 2468POSM   AM128956  30.670   8.372  16.211 -0.2115  0.0282  0.0801
 2468POSM   AM228957  30.651   8.358  15.949 -0.0433 -0.0685 -0.2656
 2468POSM   T1A28958  30.298   8.051  16.115  0.0860 -0.1754  0.0097
 2468POSM   C2A28959  29.903   7.807  15.935 -0.1536 -0.1331 -0.2895
 2468POSM   C3A28960  29.988   7.444  15.663 -0.2623 -0.0686  0.0128
 2468POSM   C1B28961  30.648   8.201  15.647 -0.1450 -0.2935  0.2412
 2468POSM   D2B28962  30.566   8.166  15.207 -0.4069 -0.0622 -0.3952
 2468POSM   C3B28963  30.347   8.394  14.904  0.0887 -0.2583  0.2562
 2468POSM   C4B28964  30.030   8.720  14.886 -0.1313  0.0725  0.0779
 2469POSM   NC328965  27.240   8.066  16.415  0.1833 -0.0945  0.0230
 2469POSM   PO428966  27.556   8.184  16.182  0.0302 -0.0057 -0.0586
 2469POSM   AM128967  27.485   8.295  15.893  0.5146 -0.1386 -0.0729
 2469POSM   AM228968  27.662   8.205  15.730 -0.2315 -0.2820  0.2256
 2469POSM   T1A28969  27.393   8.585  15.498  0.0280  0.1444 -0.4234
 2469POSM   C2A28970  27.530   8.384  15.086  0.1570 -0.1300  0.0388
 2469POSM   C3A28971  27.789   8.322  14.691  0.1406  0.0067 -0.0918
 2469POSM   C1B28972  27.904   8.276  15.521  0.0054 -0.0718 -0.0757
 2469POSM   D2B28973  28.122   8.234  15.109 -0.0778  0.0976  0.0997
 2469POSM   C3B28974  28.227   7.871  14.897 -0.2356  0.0121  0.0048
 2469POSM   C4B28975  28.485   7.645  14.628 -0.0390  0.1652  0.0547
 2470DOPC   NC328976  25.777   0.952  16.071  0.0618  0.1026 -0.0934
 2470DOPC   PO428977  25.739   0.549  16.073  0.1603  0.2500 -0.2398
 2470DOPC   GL128978  25.700   0.434  15.723 -0.6436  0.0234 -0.0733
 2470DOPC   GL228979  25.871   0.250  15.618 -0.3543  0.0490 -0.0981
 2470DOPC   C1A28980  25.468   0.491  15.324  0.0382 -0.0331 -0.1863
 2470DOPC   D2A28981  25.523   0.808  15.046  0.1606 -0.1834 -0.0227
 2470DOPC   C3A28982  25.445   0.908  14.582  0.3255 -0.1840  0.1031
 2470DOPC   C4A28983  25.252   0.936  14.149  0.2912  0.1720 -0.2680
 2470DOPC   C1B28984  25.883   0.162  15.217  0.2361  0.1145 -0.0948
 2470DOPC   D2B28985  26.196   0.103  14.846  0.1424  0.0907  0.1069
 2470DOPC   C3B28986  26.336   0.204  14.397  0.2119  0.0028  0.0564
 2470DOPC   C4B28987  26.051   0.338  14.071  0.0114  0.2928 -0.0978
 2471DOPS   CNO28988  31.069   4.062  16.461 -0.2329  0.0294 -0.0701
 2471DOPS   PO428989  30.695   3.960  16.413  0.4011 -0.0204 -0.0099
 2471DOPS   GL128990  30.653   4.174  16.151  0.1081  0.2312 -0.4052
 2471DOPS   GL228991  30.388   4.251  16.124 -0.0345 -0.0587 -0.0100
 2471DOPS   C1A28992  30.448   3.899  15.793  0.0244 -0.0994 -0.0093
 2471DOPS   D2A28993  30.298   3.613  15.429 -0.0711 -0.1602  0.3857
 2471DOPS   C3A28994  30.495   3.690  15.017 -0.0610 -0.0396  0.1312
 2471DOPS   C4A28995  30.589   3.482  14.608  0.1551  0.1303 -0.3536
 2471DOPS   C1B28996  30.613   4.456  15.733  0.3459 -0.0228  0.1185
 2471DOPS   D2B28997  30.808   4.776  15.506  0.0093 -0.0511  0.0740
 2471DOPS   C3B28998  31.095   4.677  15.168  0.3747 -0.2632  0.0276
 2471DOPS   C4B28999  31.147   4.403  14.785 -0.3625 -0.0926  0.0874
 2472DOPE   NH329000  32.593  10.058  16.068  0.4560  0.1314 -0.3255
 2472DOPE   PO429001  32.725  10.322  16.202 -0.2067 -0.0403 -0.1032
 2472DOPE   GL129002  32.677  10.568  15.825  0.2087  0.0081  0.0531
 2472DOPE   GL229003  32.393  10.538  15.807  0.4006 -0.1849 -0.2147
 2472DOPE   C1A29004  32.637  10.770  15.388  0.1562  0.0844  0.0274
 2472DOPE   D2A29005  32.544  10.960  14.998 -0.0534 -0.1229  0.2059
 2472DOPE   C3A29006  32.783  10.938  14.567  0.1940  0.3533  0.1547
 2472DOPE   C4A29007  32.811  11.211  14.224 -0.0892 -0.0600  0.2429
 2472DOPE   C1B29008  32.163  10.400  15.475  0.0631 -0.2296  0.1832
 2472DOPE   D2B29009  31.942  10.184  15.092 -0.0547 -0.1287 -0.2864
 2472DOPE   C3B29010  31.871  10.424  14.734 -0.2585 -0.2286  0.2186
 2472DOPE   C4B29011  31.990  10.677  14.385 -0.1172  0.0222 -0.3213
 2473POSM   NC329012  33.468   5.911  16.910  0.4425  0.1976 -0.3321
 2473POSM   PO429013  33.352   5.732  16.586 -0.2083  0.0303  0.0152
 2473POSM   AM129014  33.204   5.807  16.277 -0.3226 -0.1045  0.1341
 2473POSM   AM229015  32.907   5.920  16.212 -0.0030  0.2005  0.1099
 2473POSM   T1A29016  33.263   5.664  15.773  0.1885 -0.3893 -0.1731
 2473POSM   C2A29017  33.006   5.719  15.370 -0.0324 -0.1149 -0.0827
 2473POSM   C3A29018  32.914   5.696  14.952  0.1581 -0.3839  0.0081
 2473POSM   C1B29019  32.845   5.967  15.899  0.1815 -0.2096  0.0426
 2473POSM   D2B29020  32.926   6.251  15.502  0.4026 -0.2685  0.4171
 2473POSM   C3B29021  33.091   6.119  15.093 -0.3836  0.0389  0.3275
 2473POSM   C4B29022  33.343   6.333  14.774 -0.2550 -0.1214  0.1582
 2474POSM   NC329023   0.099   2.292  15.999  0.4581 -0.0021 -0.3143
 2474POSM   PO429024  -0.211   2.035  15.902  0.1013 -0.2119  0.0561
 2474POSM   AM129025  -0.106   2.090  15.615 -0.1118  0.1185  0.2800
 2474POSM   AM229026   0.106   2.257  15.474  0.1762  0.0386 -0.3330
 2474POSM   T1A29027   0.047   1.890  15.166 -0.2499 -0.0955 -0.2141
 2474POSM   C2A29028  -0.137   1.857  14.705  0.4864  0.2010 -0.3890
 2474POSM   C3A29029  -0.299   1.948  14.303 -0.0914  0.3177 -0.2127
 2474POSM   C1B29030  -0.013   2.380  15.161  0.3433  0.0944 -0.0682
 2474POSM   D2B29031  -0.162   2.498  14.722 -0.3770  0.0491  0.1420
 2474POSM   C3B29032  -0.517   2.200  14.621 -0.1691 -0.1693  0.0337
 2474POSM   C4B29033  -0.826   1.951  14.845 -0.2018 -0.0981  0.1666
 2475DOPC   NC329034  24.718   7.813  16.482 -0.2531 -0.2625 -0.1307
 2475DOPC   PO429035  24.723   8.163  16.624  0.0278  0.1432  0.1560
 2475DOPC   GL129036  24.898   8.149  16.272  0.3549  0.0217 -0.4604
 2475DOPC   GL229037  24.855   8.408  16.097 -0.1309 -0.1513 -0.4085
 2475DOPC   C1A29038  24.842   7.965  15.859  0.0379  0.0931 -0.0226
 2475DOPC   D2A29039  24.763   7.787  15.462 -0.1730  0.1865  0.0531
 2475DOPC   C3A29040  24.349   7.717  15.318 -0.1246  0.1119  0.1022
 2475DOPC   C4A29041  23.947   7.739  15.178  0.3202  0.1473 -0.0101
 2475DOPC   C1B29042  24.928   8.657  15.701  0.1846  0.0236  0.2308
 2475DOPC   D2B29043  24.919   8.840  15.272  0.0954  0.1649  0.0587
 2475DOPC   C3B29044  24.961   9.297  15.305  0.1171 -0.2533  0.0477
 2475DOPC   C4B29045  24.917   9.584  15.700 -0.0662 -0.0998 -0.3416
 2476DOPC   NC329046  23.540   2.693  15.883  0.2653 -0.4246  0.1597
 2476DOPC   PO429047  23.870   2.582  15.946 -0.0600  0.1151 -0.0796
 2476DOPC   GL129048  23.934   2.577  15.523  0.0012 -0.3896  0.0293
 2476DOPC   GL229049  23.663   2.511  15.316  0.0623  0.0320  0.1169
 2476DOPC   C1A29050  24.222   2.522  15.125  0.0705  0.2004 -0.4011
 2476DOPC   D2A29051  24.260   2.522  14.683  0.0011  0.0161 -0.0285
 2476DOPC   C3A29052  24.413   2.930  14.710 -0.2968 -0.0574 -0.0206
 2476DOPC   C4A29053  24.186   3.023  14.319  0.2406 -0.1153  0.0048
 2476DOPC   C1B29054  23.742   2.346  14.884 -0.0033  0.1435  0.0635
 2476DOPC   D2B29055  23.897   2.158  14.455 -0.0943 -0.1314  0.1324
 2476DOPC   C3B29056  23.692   2.029  14.037  0.0594  0.0275 -0.0107
 2476DOPC   C4B29057  23.423   2.031  13.628  0.2664 -0.2294  0.2016
 2477POSM   NC329058  29.600   0.374  16.857  0.2387  0.3406  0.0043
 2477POSM   PO429059  29.664   0.189  16.505 -0.1559 -0.0418 -0.2050
 2477POSM   AM129060  29.544   0.082  16.223  0.1036  0.0180  0.0924
 2477POSM   AM229061  29.321   0.189  16.042  0.0588  0.0775 -0.1139
 2477POSM   T1A29062  29.403  -0.293  15.954  0.0301 -0.2478 -0.0462
 2477POSM   C2A29063  29.363  -0.723  15.789  0.2336 -0.1560 -0.1930
 2477POSM   C3A29064  29.043  -0.911  15.520  0.1389 -0.0068 -0.1933
 2477POSM   C1B29065  29.249   0.432  15.766  0.1238  0.0844  0.1362
 2477POSM   D2B29066  29.353   0.674  15.420 -0.0209  0.0709  0.1813
 2477POSM   C3B29067  29.364   0.827  14.998 -0.0206 -0.1790 -0.2625
 2477POSM   C4B29068  29.277   1.019  14.531  0.0328  0.0343 -0.0082
 2478POSM   NC329069   0.407   5.273  16.328  0.0504 -0.2544  0.0774
 2478POSM   PO429070   0.178   5.445  16.033  0.0605 -0.2173  0.3953
 2478POSM   AM129071   0.082   5.526  15.728 -0.0598  0.1831  0.2531
 2478POSM   AM229072   0.025   5.700  15.536  0.0453 -0.0450  0.0523
 2478POSM   T1A29073  -0.155   5.340  15.335 -0.0967  0.2583 -0.0908
 2478POSM   C2A29074  -0.378   5.104  15.044  0.0406  0.0759  0.3925
 2478POSM   C3A29075  -0.377   5.022  14.568  0.1904  0.2238 -0.2697
 2478POSM   C1B29076  -0.144   5.871  15.330  0.0068 -0.2529  0.0985
 2478POSM   D2B29077  -0.208   6.015  14.913 -0.5573  0.1997  0.2372
 2478POSM   C3B29078  -0.034   5.869  14.499 -0.0163  0.1260  0.2870
 2478POSM   C4B29079  -0.280   5.979  14.129  0.2080  0.1306 -0.0265
 2479DOPE   NH329080  32.962  10.978  15.793  0.3070 -0.3751  0.1699
 2479DOPE   PO429081  33.213  11.079  15.992 -0.0168 -0.0524  0.2279
 2479DOPE   GL129082  33.408  10.805  15.765  0.0948 -0.1448 -0.0591
 2479DOPE   GL229083  33.656  10.781  15.854  0.2745  0.0075 -0.0086
 2479DOPE   C1A29084  33.165  10.589  15.375  0.1098  0.1397  0.1922
 2479DOPE   D2A29085  33.138  10.694  14.927  0.0457  0.3145  0.3257
 2479DOPE   C3A29086  32.850  10.466  14.716  0.0564  0.0562  0.3073
 2479DOPE   C4A29087  32.735  10.536  14.274 -0.0324  0.1644  0.1547
 2479DOPE   C1B29088  33.948  10.492  16.066 -0.1081 -0.3129  0.2779
 2479DOPE   D2B29089  34.117  10.070  15.946 -0.1933  0.0476  0.0533
 2479DOPE   C3B29090  33.904  10.084  15.556 -0.0418  0.0111  0.1498
 2479DOPE   C4B29091  33.628  10.502  15.466  0.2968 -0.3240 -0.0335
 2480DOPC   NC329092  29.607   9.512  16.403  0.2355 -0.1805 -0.1184
 2480DOPC   PO429093  29.847   9.852  16.315  0.0630  0.0448  0.1140
 2480DOPC   GL129094  29.940   9.842  15.865  0.2502  0.0196  0.3881
 2480DOPC   GL229095  30.037   9.591  15.763 -0.2721 -0.1204 -0.0801
 2480DOPC   C1A29096  29.683  10.101  15.512 -0.3299  0.5305  0.1099
 2480DOPC   D2A29097  29.473   9.966  15.144  0.1672  0.2567 -0.0393
 2480DOPC   C3A29098  29.669  10.092  14.722  0.2081 -0.0327  0.0313
 2480DOPC   C4A29099  30.107  10.201  14.591 -0.2195 -0.0775 -0.0115
 2480DOPC   C1B29100  30.296   9.446  15.394  0.2009  0.0794 -0.0234
 2480DOPC   D2B29101  30.634   9.319  15.091  0.0257 -0.2749 -0.1169
 2480DOPC   C3B29102  30.623   9.397  14.673 -0.0263 -0.0197  0.0766
 2480DOPC   C4B29103  30.658   9.479  14.209 -0.0736 -0.1060 -0.0759
 2481DOPE   NH329104  30.918   5.553  16.226  0.1605  0.2296  0.3273
 2481DOPE   PO429105  31.210   5.748  16.298  0.1798 -0.0054 -0.1092
 2481DOPE   GL129106  31.297   5.756  15.926  0.3874  0.2130 -0.0543
 2481DOPE   GL229107  31.041   5.659  15.761 -0.1841  0.0632 -0.0263
 2481DOPE   C1A29108  31.297   6.183  15.799 -0.1226 -0.0309  0.0085
 2481DOPE   D2A29109  31.084   6.590  15.776  0.0410  0.3292  0.0411
 2481DOPE   C3A29110  31.038   6.905  15.466  0.3605  0.2483 -0.0267
 2481DOPE   C4A29111  30.912   7.227  15.175 -0.1269  0.0951 -0.0201
 2481DOPE   C1B29112  30.927   5.755  15.341 -0.0044  0.2944  0.2237
 2481DOPE   D2B29113  31.010   5.690  14.882 -0.1357 -0.2224  0.0349
 2481DOPE   C3B29114  31.177   5.825  14.462 -0.0077 -0.1759 -0.4945
 2481DOPE   C4B29115  31.444   6.135  14.310  0.0518 -0.0973  0.0787
 2482DOPE   NH329116  33.883   3.463  15.651 -0.1891  0.1251 -0.1510
 2482DOPE   PO429117  33.576   3.384  15.664 -0.2874 -0.3855 -0.0308
 2482DOPE   GL129118  33.652   3.132  15.366  0.1860 -0.0523  0.1056
 2482DOPE   GL229119  33.704   3.285  15.214 -0.0335  0.1191 -0.0307
 2482DOPE   C1A29120  33.649   2.858  14.947 -0.1861 -0.2824 -0.0564
 2482DOPE   D2A29121  33.465   2.773  14.518 -0.3290  0.0734 -0.0913
 2482DOPE   C3A29122  33.061   2.655  14.505  0.1188  0.5165 -0.0835
 2482DOPE   C4A29123  32.863   2.282  14.360  0.3862 -0.0044  0.1195
 2482DOPE   C1B29124  33.455   3.549  14.809  0.2567  0.1238  0.2875
 2482DOPE   D2B29125  33.260   3.657  14.425 -0.1593  0.0872 -0.0248
 2482DOPE   C3B29126  33.572   3.513  14.142  0.2417 -0.2689 -0.0670
 2482DOPE   C4B29127  33.748   3.575  13.781  0.1165 -0.0030  0.3403
 2483DOPE   NH329128  30.305   3.158  16.386 -0.0211  0.3520 -0.3995
 2483DOPE   PO429129  30.030   3.299  16.331  0.1794  0.0496  0.1763
 2483DOPE   GL129130  29.961   3.200  15.991  0.0039  0.2274  0.2416
 2483DOPE   GL229131  29.967   3.414  15.801 -0.0045 -0.0327 -0.0586
 2483DOPE   C1A29132  30.080   2.889  15.654 -0.4494 -0.0743 -0.1980
 2483DOPE   D2A29133  30.070   2.706  15.247  0.0750  0.1046  0.0349
 2483DOPE   C3A29134  29.882   2.748  14.838  0.1058 -0.2126 -0.0649
 2483DOPE   C4A29135  29.959   2.834  14.411  0.1006 -0.1261 -0.0982
 2483DOPE   C1B29136  29.990   3.268  15.351 -0.2433 -0.1502  0.0736
 2483DOPE   D2B29137  30.098   3.312  14.865 -0.2464 -0.0229  0.3825
 2483DOPE   C3B29138  30.126   3.690  14.612  0.2716 -0.1254 -0.0148
 2483DOPE   C4B29139  29.829   3.783  14.249 -0.2089  0.1205  0.1072
 2484DOPS   CNO29140  23.920   4.763  16.466  0.0534  0.1328 -0.4696
 2484DOPS   PO429141  24.088   5.068  16.318  0.4073 -0.0455  0.0140
 2484DOPS   GL129142  24.098   5.194  15.943 -0.4459 -0.1345 -0.1588
 2484DOPS   GL229143  23.984   5.494  15.815 -0.1767  0.3876 -0.1093
 2484DOPS   C1A29144  24.205   5.191  15.535 -0.1311  0.0035 -0.2851
 2484DOPS   D2A29145  24.176   5.510  15.197 -0.1371  0.2743  0.2012
 2484DOPS   C3A29146  23.994   5.366  14.810 -0.0053 -0.3631 -0.1466
 2484DOPS   C4A29147  23.905   5.362  14.335 -0.1747 -0.2543  0.1064
 2484DOPS   C1B29148  23.728   5.409  15.367 -0.2021  0.2264 -0.3145
 2484DOPS   D2B29149  23.550   5.183  14.996  0.1473  0.3761  0.0532
 2484DOPS   C3B29150  23.479   5.480  14.642  0.0103 -0.0682  0.0260
 2484DOPS   C4B29151  23.518   5.749  14.316 -0.3592 -0.2203 -0.1947
 2485DOPE   NH329152  29.613   6.690  16.535 -0.1320  0.0173  0.1424
 2485DOPE   PO429153  29.729   6.961  16.445 -0.1254  0.0406  0.0312
 2485DOPE   GL129154  29.684   7.283  16.200 -0.0561 -0.5624 -0.0663
 2485DOPE   GL229155  29.785   7.011  15.937 -0.2618  0.0797  0.2435
 2485DOPE   C1A29156  29.502   7.543  15.871  0.4530 -0.1080 -0.0164
 2485DOPE   D2A29157  29.520   7.627  15.463 -0.3063  0.2471  0.1500
 2485DOPE   C3A29158  29.826   7.421  15.169  0.1478 -0.1170 -0.2032
 2485DOPE   C4A29159  30.102   7.562  14.841  0.1153 -0.1898  0.2067
 2485DOPE   C1B29160  29.661   6.961  15.474 -0.1943  0.0012  0.0958
 2485DOPE   D2B29161  29.594   6.918  15.005 -0.3600 -0.0802 -0.0189
 2485DOPE   C3B29162  29.730   7.258  14.666  0.0710  0.1283 -0.1556
 2485DOPE   C4B29163  30.059   7.404  14.396 -0.2934  0.1195  0.5994
 2486DOPE   NH329164  26.357   6.441  16.307 -0.1735  0.0276  0.3087
 2486DOPE   PO429165  26.623   6.237  16.304  0.1323 -0.0707 -0.0386
 2486DOPE   GL129166  26.558   6.217  15.951 -0.1260  0.0628  0.0292
 2486DOPE   GL229167  26.868   6.209  15.844  0.4431 -0.1236  0.1597
 2486DOPE   C1A29168  26.411   6.444  15.509  0.0044 -0.0821  0.2106
 2486DOPE   D2A29169  26.457   6.604  15.077 -0.0737  0.1526 -0.1687
 2486DOPE   C3A29170  26.227   6.422  14.737  0.1021  0.3958  0.0232
 2486DOPE   C4A29171  26.203   6.057  14.433 -0.0884 -0.0533  0.0411
 2486DOPE   C1B29172  26.980   6.265  15.413 -0.1238 -0.0376 -0.0580
 2486DOPE   D2B29173  27.138   6.236  14.997 -0.2499  0.2193  0.5499
 2486DOPE   C3B29174  27.236   6.193  14.571  0.0754  0.2608 -0.1362
 2486DOPE   C4B29175  27.017   6.391  14.240  0.0973 -0.0151 -0.2393
 2487POSM   NC329176  26.405   0.215  16.464  0.1403  0.1122  0.1417
 2487POSM   PO429177  26.178   0.153  16.166 -0.1299  0.3277 -0.0155
 2487POSM   AM129178  26.210   0.391  15.920 -0.1754 -0.0446  0.0209
 2487POSM   AM229179  26.253   0.666  15.893  0.1193 -0.1078  0.1934
 2487POSM   T1A29180  26.303   0.296  15.446 -0.0835 -0.2977  0.0041
 2487POSM   C2A29181  26.580   0.031  15.143  0.1309 -0.0744 -0.0404
 2487POSM   C3A29182  26.626  -0.026  14.697  0.1708 -0.2254  0.1411
 2487POSM   C1B29183  26.359   0.819  15.590 -0.0046 -0.0485  0.1574
 2487POSM   D2B29184  26.655   0.977  15.281 -0.1295 -0.0011 -0.2142
 2487POSM   C3B29185  27.112   1.113  15.410 -0.1472 -0.1689  0.0790
 2487POSM   C4B29186  27.528   1.285  15.353  0.3142 -0.0764 -0.0665
 2488POSM   NC329187  27.720   3.297  15.962  0.0175 -0.1924 -0.2766
 2488POSM   PO429188  27.623   3.641  16.131  0.0751 -0.0999 -0.2772
 2488POSM   AM129189  27.756   3.755  15.852 -0.4257  0.3334  0.0598
 2488POSM   AM229190  27.710   3.695  15.576  0.1272  0.0860  0.4507
 2488POSM   T1A29191  28.134   3.877  15.532  0.0778 -0.1747  0.1744
 2488POSM   C2A29192  28.272   4.063  15.109 -0.1277 -0.0653 -0.1208
 2488POSM   C3A29193  28.196   4.269  14.656 -0.3181 -0.0961  0.2301
 2488POSM   C1B29194  27.753   3.661  15.209  0.1981  0.1541  0.2558
 2488POSM   D2B29195  27.571   3.828  14.812  0.0542 -0.2553 -0.3757
 2488POSM   C3B29196  27.764   3.622  14.485 -0.0598  0.0672  0.2522
 2488POSM   C4B29197  27.757   3.299  14.153  0.0049  0.2964  0.0936
 2489DOPC   NC329198  29.218   7.033  16.138 -0.0657 -0.3194  0.3631
 2489DOPC   PO429199  29.163   6.645  16.233  0.1736  0.0923  0.0004
 2489DOPC   GL129200  29.160   6.518  15.859 -0.0080  0.2054 -0.1461
 2489DOPC   GL229201  29.278   6.763  15.674 -0.3542  0.1638 -0.0795
 2489DOPC   C1A29202  29.013   6.196  15.596 -0.0745  0.1936 -0.1688
 2489DOPC   D2A29203  28.970   6.244  15.107 -0.0920 -0.0364 -0.3668
 2489DOPC   C3A29204  28.987   5.834  14.905  0.2414 -0.2915  0.1741
 2489DOPC   C4A29205  29.072   5.362  14.885  0.4474 -0.0179  0.1238
 2489DOPC   C1B29206  29.122   6.662  15.248 -0.1017  0.0360 -0.1324
 2489DOPC   D2B29207  29.171   6.644  14.777  0.2095  0.3132  0.1926
 2489DOPC   C3B29208  29.416   6.813  14.386  0.3444  0.1592 -0.1124
 2489DOPC   C4B29209  29.724   7.069  14.120  0.0421  0.1245 -0.0272
 2490DOPC   NC329210  26.790   8.736  16.203 -0.0708 -0.1111  0.3050
 2490DOPC   PO429211  27.134   8.529  16.171  0.0713 -0.1532  0.3254
 2490DOPC   GL129212  27.073   8.346  15.774 -0.1447  0.0424  0.2092
 2490DOPC   GL229213  26.833   8.351  15.769 -0.3172  0.4461  0.4076
 2490DOPC   C1A29214  26.915   7.950  15.468  0.1191 -0.2039  0.2587
 2490DOPC   D2A29215  26.716   7.667  15.135  0.1718  0.2419 -0.0816
 2490DOPC   C3A29216  26.976   7.659  14.718 -0.0004  0.1270  0.0324
 2490DOPC   C4A29217  27.351   7.671  14.506 -0.0713 -0.2427  0.0248
 2490DOPC   C1B29218  26.867   8.546  15.345 -0.5130 -0.0624 -0.1186
 2490DOPC   D2B29219  27.099   8.639  14.960 -0.0276 -0.0835 -0.1718
 2490DOPC   C3B29220  27.329   8.596  14.629 -0.1965 -0.1289  0.0934
 2490DOPC   C4B29221  27.472   8.294  14.327 -0.0187 -0.0110 -0.0899
 2491POSM   NC329222  26.194   9.678  16.042 -0.0079 -0.3578 -0.1079
 2491POSM   PO429223  25.842   9.886  15.998  0.2226  0.1930 -0.0036
 2491POSM   AM129224  25.871   9.913  15.684 -0.0523  0.3107 -0.4853
 2491POSM   AM229225  26.096   9.946  15.538  0.2058  0.3075  0.3141
 2491POSM   T1A29226  25.692   9.907  15.229 -0.2441  0.2773 -0.2909
 2491POSM   C2A29227  25.501  10.040  14.826 -0.1404 -0.1347 -0.1319
 2491POSM   C3A29228  25.234  10.022  14.446 -0.2523 -0.2302 -0.0631
 2491POSM   C1B29229  26.173  10.082  15.243 -0.2604  0.0422 -0.2124
 2491POSM   D2B29230  26.165  10.068  14.789  0.0391 -0.0403  0.1229
 2491POSM   C3B29231  26.339   9.721  14.476 -0.2105 -0.2446 -0.0478
 2491POSM   C4B29232  26.222   9.447  14.077  0.2042  0.0214 -0.4557
 2492DOPC   NC329233  32.422   2.648  15.580  0.0375 -0.1528  0.1223
 2492DOPC   PO429234  32.311   2.367  15.815 -0.3662 -0.0089 -0.0772
 2492DOPC   GL129235  32.063   2.309  15.504  0.0260 -0.3331 -0.0546
 2492DOPC   GL229236  31.772   2.180  15.593  0.3701 -0.0513  0.1456
 2492DOPC   C1A29237  31.986   2.262  15.050 -0.1076 -0.2236  0.0049
 2492DOPC   D2A29238  31.943   2.295  14.539 -0.4909  0.1361 -0.1804
 2492DOPC   C3A29239  31.781   2.624  14.275 -0.3400 -0.3121  0.1069
 2492DOPC   C4A29240  31.551   2.847  13.863  0.0178 -0.0866  0.3407
 2492DOPC   C1B29241  31.562   2.401  15.235  0.1325  0.0086  0.0090
 2492DOPC   D2B29242  31.618   2.570  14.809  0.0709 -0.0023 -0.3357
 2492DOPC   C3B29243  32.046   2.752  14.657 -0.0616 -0.2553 -0.4247
 2492DOPC   C4B29244  32.274   3.119  14.775 -0.2661  0.0452  0.0211
 2493POSM   NC329245  23.709   7.688  16.564  0.0921 -0.2298 -0.1408
 2493POSM   PO429246  23.804   7.989  16.415  0.0274 -0.0334 -0.0744
 2493POSM   AM129247  23.748   7.996  16.065 -0.1506 -0.0352 -0.2846
 2493POSM   AM229248  23.611   8.121  15.884  0.0457 -0.0096  0.1752
 2493POSM   T1A29249  23.922   7.696  15.660 -0.1676  0.2964  0.0549
 2493POSM   C2A29250  23.768   7.244  15.582  0.0257 -0.0074 -0.0463
 2493POSM   C3A29251  23.809   6.858  15.307 -0.3853 -0.1315  0.3572
 2493POSM   C1B29252  23.647   8.177  15.530  0.1055 -0.0556 -0.0644
 2493POSM   D2B29253  23.657   8.122  15.016 -0.0727 -0.1077 -0.2793
 2493POSM   C3B29254  23.992   8.088  14.719  0.2244 -0.3028  0.3249
 2493POSM   C4B29255  24.259   7.660  14.768  0.2019  0.1806  0.0734
 2494DOPC   NC329256  26.177   4.518  16.059 -0.0353 -0.1361 -0.1516
 2494DOPC   PO429257  25.919   4.415  16.316 -0.1148  0.1566  0.2528
 2494DOPC   GL129258  25.681   4.647  16.042 -0.2994  0.2903 -0.0514
 2494DOPC   GL229259  25.681   4.443  15.815 -0.0416  0.1808  0.0868
 2494DOPC   C1A29260  25.706   4.938  15.631  0.0378  0.2412 -0.2244
 2494DOPC   D2A29261  25.937   5.083  15.229  0.1134  0.0042 -0.0484
 2494DOPC   C3A29262  25.932   5.473  15.007 -0.1555  0.1826 -0.0458
 2494DOPC   C4A29263  25.659   5.827  14.824 -0.1419  0.2034  0.0566
 2494DOPC   C1B29264  25.366   4.611  15.514  0.2815  0.1549  0.0660
 2494DOPC   D2B29265  25.477   4.813  15.096 -0.1316  0.1008  0.0373
 2494DOPC   C3B29266  25.862   4.632  14.966 -0.0122  0.2445  0.0753
 2494DOPC   C4B29267  26.169   4.475  14.652  0.0755 -0.2380  0.1914
 2495POSM   NC329268  25.132  11.008  15.747 -0.3674 -0.1444 -0.0971
 2495POSM   PO429269  24.771  10.982  15.813  0.1111  0.0012 -0.2631
 2495POSM   AM129270  24.760  10.899  15.499  0.1897 -0.1407 -0.4825
 2495POSM   AM229271  24.926  10.859  15.314  0.4892  0.1525 -0.1576
 2495POSM   T1A29272  24.456  10.659  15.174 -0.3399 -0.2390 -0.1431
 2495POSM   C2A29273  24.356  10.596  14.717 -0.1168 -0.0050  0.0299
 2495POSM   C3A29274  24.344  10.932  14.309  0.1710  0.0067 -0.3924
 2495POSM   C1B29275  24.924  10.732  14.940 -0.3154 -0.1211 -0.1274
 2495POSM   D2B29276  24.801  10.708  14.488  0.2919 -0.4304 -0.0357
 2495POSM   C3B29277  24.976  10.396  14.202  0.0667 -0.1056 -0.0744
 2495POSM   C4B29278  25.182  10.168  13.830 -0.0131 -0.3471  0.0301
 2496DOPE   NH329279  27.189   6.565  16.230  0.1271  0.3148  0.0391
 2496DOPE   PO429280  27.386   6.485  15.969  0.2515  0.1390  0.0660
 2496DOPE   GL129281  27.175   6.675  15.652 -0.2885 -0.2307 -0.2324
 2496DOPE   GL229282  26.896   6.722  15.826  0.1105  0.0342 -0.0485
 2496DOPE   C1A29283  27.326   6.618  15.240  0.3927 -0.0748  0.0850
 2496DOPE   D2A29284  27.400   6.923  14.935  0.1567  0.2040 -0.1613
 2496DOPE   C3A29285  27.217   7.203  14.585 -0.1479 -0.0576  0.0377
 2496DOPE   C4A29286  27.101   7.278  14.129 -0.1232  0.0082 -0.0130
 2496DOPE   C1B29287  26.423   6.775  15.830  0.1018 -0.0531 -0.3259
 2496DOPE   D2B29288  26.109   6.858  15.409 -0.0314  0.0808  0.2057
 2496DOPE   C3B29289  26.366   7.138  15.106 -0.2744 -0.1594 -0.0554
 2496DOPE   C4B29290  26.734   7.246  14.825  0.0499  0.2841 -0.0880
 2497DOPC   NC329291  34.183   1.670  15.973  0.1195 -0.1154 -0.1168
 2497DOPC   PO429292  33.948   1.973  15.983 -0.2837  0.1034  0.1630
 2497DOPC   GL129293  33.669   2.121  15.689  0.0715  0.1289  0.1591
 2497DOPC   GL229294  33.763   2.325  15.473 -0.1032  0.0546 -0.2538
 2497DOPC   C1A29295  33.299   2.118  15.448 -0.3434 -0.2396  0.2296
 2497DOPC   D2A29296  32.943   1.951  15.277 -0.1875  0.1829 -0.0714
 2497DOPC   C3A29297  32.642   1.570  15.393  0.0931 -0.0403 -0.1480
 2497DOPC   C4A29298  32.188   1.482  15.249  0.0923 -0.0951  0.2060
 2497DOPC   C1B29299  33.685   2.362  15.010 -0.2512  0.0485  0.2576
 2497DOPC   D2B29300  33.497   2.311  14.627 -0.0340  0.1129  0.2132
 2497DOPC   C3B29301  33.398   2.315  14.164 -0.1552  0.4260 -0.1987
 2497DOPC   C4B29302  33.427   2.386  13.699  0.3137 -0.0060  0.1537
 2498DOPC   NC329303  28.676   1.019  16.376 -0.1032 -0.0696  0.3566
 2498DOPC   PO429304  29.028   1.014  16.606  0.0808 -0.0407  0.4391
 2498DOPC   GL129305  29.200   1.049  16.221 -0.1791  0.2938 -0.0656
 2498DOPC   GL229306  29.106   0.760  16.080  0.1248 -0.0149 -0.5136
 2498DOPC   C1A29307  29.274   1.396  15.894  0.1669 -0.3425  0.2252
 2498DOPC   D2A29308  29.280   1.711  15.613 -0.1009 -0.1815 -0.2384
 2498DOPC   C3A29309  29.298   1.635  15.144  0.2160 -0.0560  0.1295
 2498DOPC   C4A29310  29.450   1.424  14.739 -0.2117  0.0270 -0.0937
 2498DOPC   C1B29311  29.493   0.913  15.888  0.0945 -0.0599 -0.2418
 2498DOPC   D2B29312  29.852   0.853  15.563 -0.1648 -0.0153  0.1094
 2498DOPC   C3B29313  29.834   0.766  15.140 -0.0328  0.1701 -0.0668
 2498DOPC   C4B29314  29.753   0.842  14.721  0.2501 -0.0004 -0.2574
 2499DOPC   NC329315  26.725   4.486  16.103 -0.0049  0.2110 -0.6040
 2499DOPC   PO429316  27.098   4.416  16.154 -0.0768  0.1138 -0.0893
 2499DOPC   GL129317  27.080   4.435  15.723  0.0742  0.0302  0.0096
 2499DOPC   GL229318  26.930   4.214  15.664 -0.3183 -0.0768  0.1966
 2499DOPC   C1A29319  27.038   4.797  15.484  0.2541 -0.0413  0.1452
 2499DOPC   D2A29320  27.178   5.228  15.454 -0.2532 -0.0078 -0.2548
 2499DOPC   C3A29321  27.343   5.441  15.140  0.0357  0.2097  0.0069
 2499DOPC   C4A29322  27.716   5.533  14.898  0.2404  0.0868 -0.3462
 2499DOPC   C1B29323  26.896   4.388  15.255  0.3158 -0.0991  0.1314
 2499DOPC   D2B29324  26.910   4.418  14.813 -0.0178  0.0343 -0.1648
 2499DOPC   C3B29325  26.681   4.321  14.424  0.3886  0.2401  0.0180
 2499DOPC   C4B29326  26.588   4.353  13.957 -0.0486  0.0963 -0.1382
 2500DOPC   NC329327  33.531   8.811  16.286  0.1479 -0.0158 -0.3628
 2500DOPC   PO429328  33.359   8.499  16.210 -0.2674 -0.1048  0.1905
 2500DOPC   GL129329  33.246   8.347  15.933 -0.2232 -0.0228  0.1456
 2500DOPC   GL229330  33.469   8.293  15.714 -0.1467 -0.2804 -0.0171
 2500DOPC   C1A29331  33.030   8.443  15.538  0.1457 -0.1334 -0.2797
 2500DOPC   D2A29332  32.681   8.485  15.217  0.2854 -0.0483 -0.0738
 2500DOPC   C3A29333  32.549   8.651  14.802  0.0534  0.1827  0.1931
 2500DOPC   C4A29334  32.634   8.713  14.359  0.0891 -0.0325  0.1072
 2500DOPC   C1B29335  33.443   8.047  15.331  0.2765  0.0663 -0.3543
 2500DOPC   D2B29336  33.557   7.844  14.899  0.0765 -0.0135 -0.0686
 2500DOPC   C3B29337  33.821   7.822  14.539 -0.0137  0.2958 -0.0717
 2500DOPC   C4B29338  33.845   7.651  14.098 -0.1609  0.0554  0.1284
 2501DOPS   CNO29339  29.162   6.183  16.145  0.2214 -0.0639 -0.3352
 2501DOPS   PO429340  29.245   5.841  16.233 -0.1175  0.2123 -0.2213
 2501DOPS   GL129341  29.509   5.877  15.840  0.0767 -0.1981  0.1096
 2501DOPS   GL229342  29.519   6.168  15.804  0.1386 -0.0638  0.1148
 2501DOPS   C1A29343  29.811   5.858  15.439 -0.0697  0.0664  0.3703
 2501DOPS   D2A29344  29.973   5.773  15.036 -0.0893 -0.0719  0.1504
 2501DOPS   C3A29345  29.914   5.641  14.594  0.0357  0.2349 -0.4481
 2501DOPS   C4A29346  29.990   5.726  14.147 -0.0744 -0.1563  0.2592
 2501DOPS   C1B29347  29.565   6.272  15.350 -0.2666  0.2711  0.0482
 2501DOPS   D2B29348  29.700   6.378  14.922  0.1292 -0.2845  0.1459
 2501DOPS   C3B29349  29.517   6.206  14.539 -0.1778  0.0537 -0.0324
 2501DOPS   C4B29350  29.277   6.007  14.145 -0.0890 -0.2805  0.0499
 2502DOPC   NC329351  29.150   3.863  16.260 -0.0019 -0.3502 -0.0416
 2502DOPC   PO429352  29.375   4.213  16.190 -0.1595 -0.2036 -0.1548
 2502DOPC   GL129353  29.748   4.198  15.979  0.1247  0.1027  0.2100
 2502DOPC   GL229354  29.770   4.508  15.902 -0.4966  0.0753  0.1543
 2502DOPC   C1A29355  29.994   4.106  15.576  0.3625  0.0528 -0.0885
 2502DOPC   D2A29356  30.321   4.115  15.317  0.0844 -0.2215  0.1094
 2502DOPC   C3A29357  30.226   4.231  14.903 -0.0282  0.2647 -0.0174
 2502DOPC   C4A29358  30.256   4.150  14.403 -0.2306  0.2458 -0.0123
 2502DOPC   C1B29359  29.719   4.638  15.514 -0.2938  0.1644 -0.1804
 2502DOPC   D2B29360  29.622   4.773  15.106  0.1022  0.3173  0.0506
 2502DOPC   C3B29361  29.303   5.056  15.223  0.5207 -0.3162  0.0493
 2502DOPC   C4B29362  28.961   5.322  15.412 -0.1323  0.0689 -0.2025
 2503DOPS   CNO29363  30.198   7.221  16.105 -0.1820 -0.2560  0.0012
 2503DOPS   PO429364  30.446   7.468  16.232 -0.1002  0.0497  0.1079
 2503DOPS   GL129365  30.637   7.672  15.931  0.0814 -0.1952  0.2453
 2503DOPS   GL229366  30.397   7.704  15.750 -0.2427  0.2653 -0.1661
 2503DOPS   C1A29367  30.776   7.749  15.478 -0.1378 -0.4215  0.2590
 2503DOPS   D2A29368  31.145   7.782  15.178 -0.2136 -0.0646 -0.0368
 2503DOPS   C3A29369  31.103   7.989  14.786 -0.1855 -0.0465  0.1157
 2503DOPS   C4A29370  31.237   8.229  14.393 -0.1719  0.1287  0.1044
 2503DOPS   C1B29371  30.152   7.764  15.352  0.2324 -0.1612 -0.1069
 2503DOPS   D2B29372  30.009   8.043  15.003  0.2599 -0.0069 -0.1022
 2503DOPS   C3B29373  29.645   7.810  14.946  0.3489  0.2502  0.1463
 2503DOPS   C4B29374  29.592   7.674  14.492 -0.1648 -0.2039  0.1935
 2504POSM   NC329375   0.168   1.712  15.766 -0.1513  0.1253  0.3206
 2504POSM   PO429376   0.440   1.509  15.925 -0.3002  0.1567  0.0977
 2504POSM   AM129377   0.639   1.268  15.805 -0.2503 -0.2562 -0.0180
 2504POSM   AM229378   0.687   1.014  15.868 -0.1451  0.0067 -0.3907
 2504POSM   T1A29379   0.880   1.157  15.387  0.0346  0.1533  0.2293
 2504POSM   C2A29380   0.990   0.982  14.957  0.1827  0.0560  0.3833
 2504POSM   C3A29381   0.982   0.623  14.695 -0.3539  0.1266 -0.0919
 2504POSM   C1B29382   0.808   0.754  15.687  0.0043 -0.0362 -0.1013
 2504POSM   D2B29383   0.950   0.293  15.716 -0.1572 -0.1756  0.1146
 2504POSM   C3B29384   0.612   0.005  15.841 -0.0302  0.3589  0.3261
 2504POSM   C4B29385   0.183  -0.033  15.707  0.0975  0.3119 -0.0548
 2505DOPS   CNO29386  27.379   5.183  15.901 -0.0881  0.2755  0.1249
 2505DOPS   PO429387  27.723   5.085  15.910  0.3074 -0.1038 -0.0508
 2505DOPS   GL129388  27.669   4.875  15.512  0.0504  0.0239 -0.1124
 2505DOPS   GL229389  28.018   4.882  15.509  0.2151  0.1501 -0.1461
 2505DOPS   C1A29390  27.540   4.965  15.110  0.1533 -0.0254  0.2058
 2505DOPS   D2A29391  27.084   4.962  14.875  0.2512  0.4479  0.4228
 2505DOPS   C3A29392  26.806   5.341  14.974 -0.0753 -0.0620 -0.2021
 2505DOPS   C4A29393  26.488   5.570  15.174  0.0667 -0.0217 -0.0237
 2505DOPS   C1B29394  28.029   4.771  15.058  0.1943 -0.1542  0.1246
 2505DOPS   D2B29395  28.200   4.792  14.625  0.1223 -0.0728 -0.1259
 2505DOPS   C3B29396  28.014   4.702  14.193  0.0001 -0.0539 -0.0158
 2505DOPS   C4B29397  27.676   4.482  14.037 -0.2902  0.0956  0.0799
 2506DOPS   CNO29398  23.782   2.931  16.312 -0.3010  0.0395  0.1918
 2506DOPS   PO429399  23.703   3.267  16.138 -0.0023 -0.1476 -0.2289
 2506DOPS   GL129400  23.689   3.239  15.723 -0.5441 -0.1779 -0.0725
 2506DOPS   GL229401  23.852   3.081  15.719  0.0490 -0.1158 -0.1066
 2506DOPS   C1A29402  23.510   3.029  15.342  0.0850 -0.3444  0.0260
 2506DOPS   D2A29403  23.370   2.779  14.968  0.1715  0.0144 -0.1718
 2506DOPS   C3A29404  23.334   2.940  14.502 -0.2160  0.0687 -0.1924
 2506DOPS   C4A29405  23.341   3.035  14.040 -0.1328 -0.1523 -0.0485
 2506DOPS   C1B29406  24.030   2.990  15.327  0.1753  0.1456 -0.0135
 2506DOPS   D2B29407  23.973   2.885  14.931  0.2688  0.4060 -0.2075
 2506DOPS   C3B29408  23.817   2.705  14.526  0.3041 -0.3587  0.2899
 2506DOPS   C4B29409  23.767   2.738  14.123 -0.1263  0.2471  0.0530
 2507DOPE   NH329410  26.550   5.223  16.296  0.1477 -0.2313 -0.0538
 2507DOPE   PO429411  26.536   4.938  16.190 -0.1639  0.0003 -0.1203
 2507DOPE   GL129412  26.427   4.883  15.879 -0.3395  0.1013  0.0422
 2507DOPE   GL229413  26.258   5.075  15.783  0.1255  0.2985  0.1744
 2507DOPE   C1A29414  26.593   4.617  15.578 -0.0047  0.1480 -0.1473
 2507DOPE   D2A29415  26.399   4.468  15.170  0.1730 -0.3495 -0.1337
 2507DOPE   C3A29416  26.451   4.013  15.108 -0.1946  0.1263  0.1624
 2507DOPE   C4A29417  26.787   3.796  14.808  0.1156 -0.1886 -0.1357
 2507DOPE   C1B29418  26.089   4.670  15.531  0.0839 -0.3744  0.0888
 2507DOPE   D2B29419  25.930   4.266  15.297 -0.1148 -0.0709  0.0677
 2507DOPE   C3B29420  25.867   4.055  14.963  0.0660  0.0427 -0.1927
 2507DOPE   C4B29421  25.859   3.862  14.527 -0.2347 -0.0343 -0.1797
 2508DOPE   NH329422  31.783   0.961  16.351  0.0567  0.0291  0.1452
 2508DOPE   PO429423  32.029   1.016  16.179  0.4307  0.2611  0.3205
 2508DOPE   GL129424  31.728   1.166  15.919 -0.3019  0.0012 -0.2216
 2508DOPE   GL229425  31.982   1.288  15.792 -0.0677 -0.2462  0.2086
 2508DOPE   C1A29426  31.654   1.056  15.458 -0.0028 -0.0661 -0.0139
 2508DOPE   D2A29427  31.827   1.080  15.096 -0.2028  0.1951 -0.1464
 2508DOPE   C3A29428  31.582   0.913  14.756  0.1490 -0.0730  0.2033
 2508DOPE   C4A29429  31.528   1.013  14.332  0.0620 -0.1334 -0.0915
 2508DOPE   C1B29430  32.127   1.691  15.654  0.2870  0.0680  0.0512
 2508DOPE   D2B29431  32.274   1.994  15.309  0.0994  0.2415 -0.0476
 2508DOPE   C3B29432  32.521   1.792  14.968  0.1480  0.1192  0.1856
 2508DOPE   C4B29433  32.514   1.564  14.533 -0.4341  0.0793  0.1193
 2509DOPE   NH329434  30.832   9.698  16.214  0.3651  0.1980 -0.4441
 2509DOPE   PO429435  30.763  10.004  16.297 -0.3493  0.1398  0.1377
 2509DOPE   GL129436  30.627   9.971  15.897 -0.3454  0.1176 -0.1705
 2509DOPE   GL229437  30.382   9.986  15.932  0.0727  0.2365  0.2112
 2509DOPE   C1A29438  30.612   9.799  15.503 -0.1080 -0.0095  0.1548
 2509DOPE   D2A29439  30.638   9.799  15.031 -0.0609 -0.0983  0.1282
 2509DOPE   C3A29440  30.511  10.247  14.929  0.1376  0.1020  0.1715
 2509DOPE   C4A29441  30.393  10.649  14.708  0.0277  0.0754  0.0677
 2509DOPE   C1B29442  30.178  10.021  15.513  0.0030  0.2550  0.0876
 2509DOPE   D2B29443  30.107  10.081  15.101  0.0442 -0.0488  0.2199
 2509DOPE   C3B29444  30.209   9.718  14.836  0.0940  0.1435  0.0619
 2509DOPE   C4B29445  30.182   9.401  14.458  0.0443 -0.1444 -0.0744
 2510DOPC   NC329446  28.313   7.517  16.295 -0.2388  0.0956 -0.4384
 2510DOPC   PO429447  28.056   7.804  16.213 -0.0322 -0.0346 -0.2295
 2510DOPC   GL129448  27.972   7.526  15.967 -0.1453 -0.4751 -0.1869
 2510DOPC   GL229449  27.980   7.734  15.715 -0.1131  0.0029  0.2561
 2510DOPC   C1A29450  27.867   7.209  15.626  0.0009 -0.0051 -0.0944
 2510DOPC   D2A29451  27.663   6.774  15.646 -0.1288  0.0660  0.2474
 2510DOPC   C3A29452  27.809   6.573  15.228 -0.1446  0.0023  0.4408
 2510DOPC   C4A29453  28.129   6.291  15.020  0.2150  0.3248 -0.2479
 2510DOPC   C1B29454  27.858   7.576  15.262 -0.0683  0.2537  0.0503
 2510DOPC   D2B29455  27.838   7.156  15.043  0.0857  0.1655  0.0903
 2510DOPC   C3B29456  27.720   7.157  14.555 -0.0292  0.0844  0.2818
 2510DOPC   C4B29457  27.735   7.348  14.085  0.1632  0.2124  0.1492
 2511DOPC   NC329458  34.662   3.988  15.525  0.0690  0.0923  0.1210
 2511DOPC   PO429459  34.497   4.310  15.577  0.0680 -0.3101  0.0596
 2511DOPC   GL129460  34.335   4.401  15.240 -0.3298  0.1675  0.3021
 2511DOPC   GL229461  34.457   4.189  15.063  0.3559 -0.1694 -0.0443
 2511DOPC   C1A29462  34.341   4.576  14.820  0.1998  0.0101 -0.1191
 2511DOPC   D2A29463  34.378   4.479  14.348  0.0402  0.4793 -0.0508
 2511DOPC   C3A29464  34.046   4.243  14.140  0.1132  0.4096 -0.0167
 2511DOPC   C4A29465  33.949   4.081  13.666  0.0769 -0.2258  0.0617
 2511DOPC   C1B29466  34.879   4.036  15.117  0.1760  0.3622 -0.2412
 2511DOPC   D2B29467  35.340   4.066  15.142  0.2144  0.0341 -0.2034
 2511DOPC   C3B29468  35.664   4.054  14.858 -0.5183 -0.3348  0.0367
 2511DOPC   C4B29469  36.035   3.994  14.583 -0.0754  0.0544  0.2851
 2512POSM   NC329470  27.099   5.072  16.695  0.1068 -0.1146  0.0593
 2512POSM   PO429471  27.074   5.380  16.472  0.1611 -0.0117 -0.0319
 2512POSM   AM129472  27.004   5.516  16.173  0.2605 -0.0382 -0.0041
 2512POSM   AM229473  26.829   5.396  15.928 -0.1596 -0.0444  0.2879
 2512POSM   T1A29474  27.153   5.660  15.727  0.2491  0.1042 -0.1702
 2512POSM   C2A29475  27.470   5.816  15.482  0.0024 -0.2842  0.2569
 2512POSM   C3A29476  27.801   6.149  15.570  0.2784  0.1001  0.3645
 2512POSM   C1B29477  26.636   5.346  15.634 -0.2218 -0.0025 -0.1578
 2512POSM   D2B29478  26.494   5.042  15.277 -0.2384  0.0935 -0.1653
 2512POSM   C3B29479  26.320   5.168  14.847 -0.3372  0.1720 -0.2082
 2512POSM   C4B29480  25.998   4.962  14.573  0.2870 -0.0006 -0.3405
 2513POSM   NC329481  25.812  10.198  16.375 -0.0320 -0.0664 -0.2111
 2513POSM   PO429482  25.483  10.206  16.159 -0.3322  0.1459 -0.2014
 2513POSM   AM129483  25.382  10.013  15.899  0.2192 -0.1807 -0.0580
 2513POSM   AM229484  25.121  10.049  15.778 -0.1553 -0.1562 -0.1112
 2513POSM   T1A29485  25.392   9.640  15.534 -0.0918 -0.1227 -0.1197
 2513POSM   C2A29486  25.394   9.465  15.088 -0.2479 -0.0972  0.0355
 2513POSM   C3A29487  25.168   9.130  14.838  0.1091 -0.1363  0.1031
 2513POSM   C1B29488  25.150  10.071  15.397 -0.0176 -0.0888 -0.1486
 2513POSM   D2B29489  24.988  10.238  14.971  0.0221 -0.1463  0.1701
 2513POSM   C3B29490  24.726  10.105  14.595  0.4051 -0.1623 -0.0600
 2513POSM   C4B29491  24.388  10.100  14.280  0.0333 -0.2701  0.0610
 2514DOPE   NH329492  25.567   3.291  16.182 -0.1117  0.0081  0.1588
 2514DOPE   PO429493  25.350   3.538  16.172  0.2472  0.0298 -0.0754
 2514DOPE   GL129494  25.526   3.538  15.783 -0.0106 -0.0146  0.2863
 2514DOPE   GL229495  25.449   3.317  15.532  0.0368 -0.2231  0.0325
 2514DOPE   C1A29496  25.702   3.718  15.431 -0.0406 -0.1314  0.0108
 2514DOPE   D2A29497  26.119   3.687  15.246 -0.5140 -0.1229  0.0443
 2514DOPE   C3A29498  26.315   3.509  14.852 -0.4064  0.3398 -0.0151
 2514DOPE   C4A29499  26.157   3.363  14.462 -0.0439 -0.0339 -0.2904
 2514DOPE   C1B29500  25.498   3.126  15.149  0.0279  0.3139 -0.1700
 2514DOPE   D2B29501  25.902   3.039  14.859 -0.3633  0.0342  0.0240
 2514DOPE   C3B29502  25.988   2.932  14.406  0.2653  0.0315  0.0267
 2514DOPE   C4B29503  26.078   3.112  13.994 -0.0797 -0.4405 -0.1381
 2515DOPE   NH329504  23.865   4.177  16.137  0.0027 -0.1522  0.2057
 2515DOPE   PO429505  23.725   4.063  15.877 -0.1306 -0.0432 -0.3580
 2515DOPE   GL129506  24.057   3.750  15.822  0.3352 -0.3937 -0.0897
 2515DOPE   GL229507  23.992   3.539  15.879 -0.1509 -0.3147  0.2662
 2515DOPE   C1A29508  24.458   3.854  15.651 -0.1134  0.0743  0.0992
 2515DOPE   D2A29509  24.805   3.700  15.439 -0.1522 -0.1218 -0.1868
 2515DOPE   C3A29510  25.152   3.992  15.264 -0.2986  0.4031 -0.1466
 2515DOPE   C4A29511  25.432   4.266  15.105 -0.2271  0.0916 -0.0249
 2515DOPE   C1B29512  24.242   3.450  15.504 -0.0560  0.0455  0.1106
 2515DOPE   D2B29513  24.397   3.737  15.150 -0.2034 -0.0700  0.1890
 2515DOPE   C3B29514  24.192   4.117  15.049  0.0464 -0.2771  0.0346
 2515DOPE   C4B29515  23.961   4.424  14.836  0.2772 -0.0230  0.0690
 2516DOPE   NH329516  28.236  11.602  16.391  0.1389  0.1304 -0.1496
 2516DOPE   PO429517  28.142  11.614  16.121 -0.0425  0.2170  0.1333
 2516DOPE   GL129518  28.320  11.569  15.736  0.1273  0.1749 -0.0892
 2516DOPE   GL229519  28.246  11.851  15.646  0.3312  0.0476 -0.1794
 2516DOPE   C1A29520  28.152  11.450  15.339 -0.0056 -0.2903 -0.2807
 2516DOPE   D2A29521  28.204  11.407  14.872  0.0413  0.0308  0.0252
 2516DOPE   C3A29522  28.000  11.684  14.527  0.0436 -0.1327  0.1752
 2516DOPE   C4A29523  27.891  12.124  14.326 -0.0798 -0.1777  0.2567
 2516DOPE   C1B29524  28.047  12.203  15.374 -0.1249  0.1176 -0.1764
 2516DOPE   D2B29525  27.646  12.242  15.114 -0.0555 -0.1269 -0.3960
 2516DOPE   C3B29526  27.395  11.948  14.804 -0.2776  0.1303  0.2017
 2516DOPE   C4B29527  27.034  11.669  14.818  0.2583  0.0382 -0.0443
 2517DOPC   NC329528  23.722   1.697  15.315  0.0447 -0.3411  0.3749
 2517DOPC   PO429529  23.475   1.572  15.553 -0.0268 -0.3287  0.1609
 2517DOPC   GL129530  23.179   1.490  15.257 -0.1166 -0.1014  0.1582
 2517DOPC   GL229531  23.117   1.207  15.266  0.1335  0.2180 -0.2533
 2517DOPC   C1A29532  22.967   1.429  14.848 -0.1517 -0.0800  0.4163
 2517DOPC   D2A29533  23.019   1.266  14.426  0.0775  0.0243 -0.1007
 2517DOPC   C3A29534  23.262   1.348  14.044  0.0007 -0.1213 -0.0065
 2517DOPC   C4A29535  23.510   1.385  13.638  0.1021 -0.1092 -0.2278
 2517DOPC   C1B29536  23.310   1.047  14.862 -0.2261 -0.1229 -0.2538
 2517DOPC   D2B29537  23.436   0.979  14.399  0.0413 -0.0251 -0.0219
 2517DOPC   C3B29538  23.459   0.617  14.132 -0.0220  0.3236  0.0760
 2517DOPC   C4B29539  23.872   0.357  14.123  0.0751  0.4083  0.2938
 2518DOPC   NC329540  23.931   6.030  15.999  0.0697 -0.0093  0.3680
 2518DOPC   PO429541  23.621   5.881  16.169 -0.1729  0.1696 -0.2023
 2518DOPC   GL129542  23.515   5.725  15.814  0.2425  0.0391  0.2820
 2518DOPC   GL229543  23.454   5.896  15.672 -0.0874  0.0468  0.0231
 2518DOPC   C1A29544  23.260   5.519  15.506 -0.2369 -0.0735  0.0425
 2518DOPC   D2A29545  23.147   5.487  15.053  0.1026  0.4109  0.1261
 2518DOPC   C3A29546  22.976   5.725  14.726 -0.1113  0.0253  0.0760
 2518DOPC   C4A29547  22.639   5.837  14.438 -0.2090 -0.0349  0.1672
 2518DOPC   C1B29548  23.859   5.945  15.445 -0.5676 -0.0664 -0.4096
 2518DOPC   D2B29549  24.181   6.278  15.467  0.1728  0.0324  0.2805
 2518DOPC   C3B29550  24.074   6.421  15.063  0.2643  0.3232 -0.0878
 2518DOPC   C4B29551  23.785   6.669  14.732 -0.2519 -0.1968 -0.1043
 2519POSM   NC329552  27.530   2.201  16.352  0.3393 -0.1564  0.3203
 2519POSM   PO429553  27.786   1.958  16.206  0.1140  0.1583 -0.0596
 2519POSM   AM129554  27.843   1.947  15.916 -0.2018 -0.3174  0.0789
 2519POSM   AM229555  28.064   2.052  15.763  0.0120  0.4923 -0.1583
 2519POSM   T1A29556  27.649   2.160  15.493  0.0284  0.5731  0.2647
 2519POSM   C2A29557  27.580   2.154  15.023 -0.2876  0.2636 -0.1777
 2519POSM   C3A29558  27.589   2.335  14.638  0.2916 -0.2424 -0.0284
 2519POSM   C1B29559  28.122   2.133  15.446 -0.1106  0.0152 -0.1098
 2519POSM   D2B29560  28.008   2.339  15.069  0.2866  0.1127  0.1733
 2519POSM   C3B29561  28.162   2.627  14.744  0.1544 -0.2027 -0.3532
 2519POSM   C4B29562  28.010   3.016  14.573  0.1350 -0.1146 -0.0028
 2520DOPC   NC329563  24.958  11.805  15.796 -0.0128 -0.0321  0.2264
 2520DOPC   PO429564  25.260  11.526  15.785  0.0200 -0.0449 -0.5776
 2520DOPC   GL129565  25.603  11.473  15.512 -0.0167 -0.5764  0.2554
 2520DOPC   GL229566  25.737  11.218  15.338  0.1419  0.0259 -0.2361
 2520DOPC   C1A29567  25.476  11.449  15.034  0.0729 -0.3703  0.2926
 2520DOPC   D2A29568  25.201  11.478  14.629 -0.0877 -0.2182  0.0105
 2520DOPC   C3A29569  24.895  11.830  14.741  0.0272 -0.2464 -0.1022
 2520DOPC   C4A29570  24.719  12.233  14.902 -0.0434 -0.2265 -0.2419
 2520DOPC   C1B29571  25.935  10.795  15.177 -0.1117 -0.1356 -0.3295
 2520DOPC   D2B29572  25.977  10.512  14.763  0.0590 -0.0093 -0.0763
 2520DOPC   C3B29573  26.361  10.483  14.473 -0.2348 -0.0630  0.2091
 2520DOPC   C4B29574  26.457  10.256  14.050  0.0341  0.2254  0.0059
 2521DOPE   NH329575  30.776   2.536  16.206 -0.0073 -0.1689  0.2295
 2521DOPE   PO429576  31.086   2.470  16.149  0.2102 -0.1310  0.2484
 2521DOPE   GL129577  31.422   2.288  15.889  0.2287 -0.2429  0.1401
 2521DOPE   GL229578  31.351   2.503  15.714  0.2716 -0.1621 -0.0178
 2521DOPE   C1A29579  31.258   2.020  15.564  0.4686 -0.2947 -0.1491
 2521DOPE   D2A29580  31.299   1.912  15.171 -0.1000  0.0819 -0.0073
 2521DOPE   C3A29581  31.584   2.022  14.807  0.1594 -0.2263  0.2701
 2521DOPE   C4A29582  31.559   2.026  14.332  0.2637  0.0667  0.2188
 2521DOPE   C1B29583  31.085   2.477  15.341 -0.2424  0.0256 -0.1591
 2521DOPE   D2B29584  31.056   2.359  14.893  0.0595 -0.1898  0.3853
 2521DOPE   C3B29585  31.097   1.964  14.617 -0.0716  0.0759 -0.2359
 2521DOPE   C4B29586  31.022   2.070  14.212  0.1078  0.0340  0.1995
 2522DOPC   NC329587  26.123   7.179  16.647  0.1645  0.2428 -0.0060
 2522DOPC   PO429588  26.389   7.000  16.460  0.0219 -0.3054 -0.2358
 2522DOPC   GL129589  26.054   7.086  16.205  0.0932 -0.0763  0.0177
 2522DOPC   GL229590  25.882   7.303  16.146 -0.0422 -0.1971 -0.1068
 2522DOPC   C1A29591  25.846   6.884  15.864 -0.1550  0.2824 -0.1599
 2522DOPC   D2A29592  25.515   6.855  15.498  0.2877  0.3850  0.3053
 2522DOPC   C3A29593  25.442   6.408  15.307  0.0875 -0.3362  0.0390
 2522DOPC   C4A29594  25.317   6.145  14.930  0.1979 -0.2186 -0.1051
 2522DOPC   C1B29595  26.233   7.362  15.863  0.1634 -0.1277  0.0879
 2522DOPC   D2B29596  26.578   7.259  15.518 -0.2320 -0.2668 -0.0961
 2522DOPC   C3B29597  26.809   6.900  15.287  0.0140  0.0252  0.2202
 2522DOPC   C4B29598  26.921   6.712  14.854  0.0280 -0.3012  0.2259
 2523DOPE   NH329599  23.586   8.467  16.354  0.0867  0.0221  0.0038
 2523DOPE   PO429600  23.438   8.613  16.058 -0.4030 -0.0482 -0.1558
 2523DOPE   GL129601  23.531   8.575  15.675  0.5701  0.0379 -0.2195
 2523DOPE   GL229602  23.556   8.892  15.530  0.0989 -0.0885 -0.0909
 2523DOPE   C1A29603  23.415   8.514  15.227  0.0618  0.2819 -0.0921
 2523DOPE   D2A29604  23.394   8.486  14.734 -0.1920  0.0825 -0.0700
 2523DOPE   C3A29605  23.753   8.559  14.480  0.0372  0.0652  0.4078
 2523DOPE   C4A29606  23.742   8.500  13.987  0.2710 -0.1485 -0.0499
 2523DOPE   C1B29607  23.756   9.023  15.140 -0.0662  0.1224  0.2294
 2523DOPE   D2B29608  23.977   9.092  14.732 -0.2139  0.1119 -0.0148
 2523DOPE   C3B29609  23.784   9.027  14.326 -0.0979 -0.0927 -0.2080
 2523DOPE   C4B29610  23.918   8.979  13.884  0.0506 -0.2116  0.0716
 2524DOPE   NH329611  32.618   1.541  16.359 -0.1668  0.1042  0.3920
 2524DOPE   PO429612  32.877   1.460  16.215 -0.1894 -0.1200  0.1261
 2524DOPE   GL129613  32.715   1.355  15.807 -0.0859 -0.0659 -0.1293
 2524DOPE   GL229614  32.462   1.125  15.909  0.2609 -0.0651 -0.0676
 2524DOPE   C1A29615  32.992   1.209  15.447 -0.2735 -0.0825  0.0717
 2524DOPE   D2A29616  33.254   1.542  15.265  0.2424 -0.1497 -0.2118
 2524DOPE   C3A29617  33.499   1.428  14.977  0.2794 -0.1846  0.1199
 2524DOPE   C4A29618  33.826   1.266  14.714  0.0572  0.1617 -0.2203
 2524DOPE   C1B29619  32.437   1.092  15.472  0.0918 -0.0642 -0.1084
 2524DOPE   D2B29620  32.610   1.168  15.033  0.1530  0.2025 -0.1932
 2524DOPE   C3B29621  32.355   1.133  14.627  0.0393  0.1773 -0.3388
 2524DOPE   C4B29622  32.230   1.336  14.235  0.2052 -0.1238  0.0811
 2525DOPC   NC329623  26.148   3.484  16.601 -0.1719  0.0378 -0.2593
 2525DOPC   PO429624  26.023   3.482  16.244 -0.2169  0.0080 -0.0409
 2525DOPC   GL129625  25.941   3.326  15.928  0.0210 -0.0832 -0.0039
 2525DOPC   GL229626  26.042   3.577  15.756  0.0862 -0.0604  0.2621
 2525DOPC   C1A29627  25.914   3.221  15.454  0.1157 -0.1341  0.0659
 2525DOPC   D2A29628  26.310   3.019  15.242 -0.2728 -0.0218  0.2950
 2525DOPC   C3A29629  26.449   3.027  14.818 -0.1309  0.0243  0.0610
 2525DOPC   C4A29630  26.576   3.021  14.372  0.2558  0.0746  0.0299
 2525DOPC   C1B29631  26.414   3.382  15.547 -0.1050  0.2018  0.0052
 2525DOPC   D2B29632  26.714   3.380  15.177  0.1781  0.1997  0.3743
 2525DOPC   C3B29633  26.826   3.319  14.710 -0.1000 -0.0367  0.0037
 2525DOPC   C4B29634  26.653   3.530  14.348 -0.0535 -0.1129 -0.1165
 2526DOPC   NC329635  27.432   4.695  15.860 -0.0924  0.1303  0.0943
 2526DOPC   PO429636  27.785   4.529  15.831  0.1118  0.1046  0.1239
 2526DOPC   GL129637  27.713   4.431  15.453  0.0933 -0.1015  0.0015
 2526DOPC   GL229638  27.411   4.405  15.393  0.0853 -0.1372  0.1833
 2526DOPC   C1A29639  27.786   4.322  14.994  0.1479  0.1840  0.0813
 2526DOPC   D2A29640  27.715   4.271  14.509  0.1263 -0.1179 -0.2897
 2526DOPC   C3A29641  27.990   4.063  14.203  0.0566 -0.4398  0.3482
 2526DOPC   C4A29642  27.867   3.690  13.932 -0.0217  0.0779 -0.0942
 2526DOPC   C1B29643  27.389   4.567  14.907 -0.0261 -0.2403 -0.0868
 2526DOPC   D2B29644  27.206   4.601  14.470  0.3538  0.2997 -0.1642
 2526DOPC   C3B29645  27.093   4.369  14.098  0.2575 -0.2762  0.0193
 2526DOPC   C4B29646  26.971   3.908  14.078 -0.3226 -0.1354  0.3476
 2527DOPC   NC329647  34.274   9.418  15.991  0.1836 -0.3306  0.0314
 2527DOPC   PO429648  34.488   9.119  15.950 -0.1002  0.0679 -0.4615
 2527DOPC   GL129649  34.510   8.952  15.593  0.3194  0.0781  0.0277
 2527DOPC   GL229650  34.822   9.027  15.537 -0.3308 -0.1522 -0.2494
 2527DOPC   C1A29651  34.333   9.016  15.175 -0.2873  0.2302  0.0496
 2527DOPC   D2A29652  34.133   8.956  14.731 -0.2699 -0.1396  0.2854
 2527DOPC   C3A29653  33.976   8.541  14.658 -0.4277 -0.1547 -0.1483
 2527DOPC   C4A29654  33.693   8.327  14.949 -0.0610  0.3804  0.0156
 2527DOPC   C1B29655  34.691   8.687  15.170 -0.3236 -0.0858  0.0087
 2527DOPC   D2B29656  34.432   8.506  14.850  0.4086  0.0370  0.0636
 2527DOPC   C3B29657  34.480   8.768  14.450 -0.2442  0.0418  0.3931
 2527DOPC   C4B29658  34.503   9.130  14.242  0.1031 -0.1249 -0.0587
 2528DOPC   NC329659  22.623   1.533  15.277 -0.2279 -0.2730 -0.0839
 2528DOPC   PO429660  22.573   1.177  15.348 -0.0939 -0.2100 -0.1733
 2528DOPC   GL129661  22.458   1.093  15.099  0.1858 -0.1883  0.0585
 2528DOPC   GL229662  22.257   1.236  14.932 -0.1450  0.0512 -0.0346
 2528DOPC   C1A29663  22.843   0.958  14.823 -0.0353 -0.3848  0.0616
 2528DOPC   D2A29664  23.106   0.690  14.580  0.1869 -0.0163 -0.0038
 2528DOPC   C3A29665  23.010   0.800  14.185  0.4716  0.1790 -0.2355
 2528DOPC   C4A29666  22.650   1.067  14.013 -0.1219  0.2588  0.0817
 2528DOPC   C1B29667  22.430   1.505  14.575 -0.0495  0.0549 -0.2334
 2528DOPC   D2B29668  22.645   1.639  14.142  0.1229  0.0033 -0.4569
 2528DOPC   C3B29669  22.570   1.475  13.696  0.1177 -0.0041 -0.3270
 2528DOPC   C4B29670  22.388   1.276  13.319  0.1751  0.1276  0.0768
 2529DOPC   NC329671  28.579   3.391  16.015 -0.0107 -0.0354  0.0568
 2529DOPC   PO429672  28.861   3.461  16.225  0.0282 -0.1584 -0.2177
 2529DOPC   GL129673  28.969   3.521  15.848 -0.1474 -0.3106 -0.0631
 2529DOPC   GL229674  28.985   3.171  15.793  0.4221 -0.0186  0.2527
 2529DOPC   C1A29675  29.036   3.671  15.403 -0.1733 -0.0600 -0.1261
 2529DOPC   D2A29676  29.166   3.825  14.972 -0.1266 -0.1130  0.0269
 2529DOPC   C3A29677  29.598   3.905  14.838  0.0878 -0.1145 -0.1410
 2529DOPC   C4A29678  29.961   3.749  15.131 -0.0810  0.0241 -0.1789
 2529DOPC   C1B29679  29.096   3.108  15.325 -0.0361  0.0712  0.1050
 2529DOPC   D2B29680  28.932   3.397  14.982 -0.0036 -0.3763  0.0839
 2529DOPC   C3B29681  29.099   3.432  14.584  0.0357  0.0261 -0.2232
 2529DOPC   C4B29682  29.294   3.719  14.331 -0.2392  0.1423  0.0978
 2530DOPE   NH329683  32.414   6.151  16.646 -0.2068 -0.2509  0.2521
 2530DOPE   PO429684  32.738   6.123  16.651  0.3561 -0.1029  0.0050
 2530DOPE   GL129685  32.807   6.403  16.356 -0.3786  0.0629 -0.1804
 2530DOPE   GL229686  32.893   6.640  16.417 -0.0686  0.0685  0.0659
 2530DOPE   C1A29687  32.977   6.464  15.948 -0.0036  0.0484  0.0691
 2530DOPE   D2A29688  33.401   6.414  15.744 -0.3120 -0.0457  0.1220
 2530DOPE   C3A29689  33.333   6.532  15.301  0.0122  0.0552  0.3356
 2530DOPE   C4A29690  32.959   6.601  14.945 -0.0833  0.1240 -0.3638
 2530DOPE   C1B29691  32.671   6.891  16.077  0.1333 -0.0942 -0.3082
 2530DOPE   D2B29692  32.471   7.248  15.872  0.1191  0.3016 -0.3062
 2530DOPE   C3B29693  32.351   6.963  15.496 -0.0054  0.0353 -0.3248
 2530DOPE   C4B29694  32.555   6.867  15.111 -0.0431 -0.4657  0.1180
 2531DOPE   NH329695  31.694   5.725  16.151 -0.1627  0.2649 -0.2188
 2531DOPE   PO429696  32.001   5.763  16.193 -0.0735  0.3145 -0.1175
 2531DOPE   GL129697  32.224   5.862  15.873 -0.0679  0.0032  0.1148
 2531DOPE   GL229698  31.993   5.784  15.706  0.0757  0.0568 -0.0296
 2531DOPE   C1A29699  32.471   6.011  15.471 -0.1024 -0.0436 -0.1454
 2531DOPE   D2A29700  32.533   6.276  15.138  0.0370  0.0419  0.2877
 2531DOPE   C3A29701  32.241   6.368  14.740 -0.1227 -0.2665  0.0466
 2531DOPE   C4A29702  31.916   6.315  14.421 -0.0623  0.2487 -0.0895
 2531DOPE   C1B29703  31.878   5.846  15.280 -0.0596 -0.0806 -0.1253
 2531DOPE   D2B29704  32.120   5.904  14.863  0.1039 -0.0497  0.0791
 2531DOPE   C3B29705  32.114   5.753  14.417 -0.0463 -0.0731  0.2144
 2531DOPE   C4B29706  32.395   5.740  14.114 -0.0401  0.1265 -0.0549
 2532POSM   NC329707  27.580   8.728  15.966  0.0906  0.2324 -0.2744
 2532POSM   PO429708  27.944   8.883  16.002 -0.0385  0.1381 -0.0345
 2532POSM   AM129709  28.205   8.801  15.862 -0.1014  0.0767 -0.0771
 2532POSM   AM229710  28.419   8.702  15.991  0.0297 -0.2328  0.3426
 2532POSM   T1A29711  28.428   8.399  15.570 -0.2609  0.0426  0.1176
 2532POSM   C2A29712  28.853   8.190  15.553  0.0945 -0.0411 -0.1766
 2532POSM   C3A29713  29.146   7.949  15.823 -0.1305 -0.0258  0.2681
 2532POSM   C1B29714  28.748   8.589  15.881  0.0507  0.1648 -0.0509
 2532POSM   D2B29715  29.182   8.504  15.786  0.0320  0.0428 -0.3420
 2532POSM   C3B29716  29.337   8.336  15.481 -0.2959  0.2287  0.2379
 2532POSM   C4B29717  29.685   8.353  15.160 -0.2615  0.4185  0.0919
 2533DOPC   NC329718  30.934   0.838  16.144  0.4094 -0.1132  0.0052
 2533DOPC   PO429719  30.855   1.205  16.018 -0.0282  0.0749  0.0063
 2533DOPC   GL129720  31.128   1.236  15.741  0.2444 -0.1900  0.0068
 2533DOPC   GL229721  31.249   0.935  15.726 -0.0453  0.0263 -0.0674
 2533DOPC   C1A29722  30.841   1.161  15.388  0.2960  0.0896  0.2311
 2533DOPC   D2A29723  30.558   1.053  14.983  0.3711 -0.0550 -0.1155
 2533DOPC   C3A29724  30.300   0.610  15.002 -0.0425  0.0705  0.4642
 2533DOPC   C4A29725  30.390   0.142  15.147 -0.1057  0.0833 -0.0725
 2533DOPC   C1B29726  30.955   0.570  15.687 -0.0406  0.0500 -0.1181
 2533DOPC   D2B29727  30.618   0.275  15.631  0.2801 -0.0209 -0.0031
 2533DOPC   C3B29728  30.700  -0.183  15.429 -0.1984 -0.1393  0.1123
 2533DOPC   C4B29729  30.679  -0.606  15.447 -0.1162  0.0978 -0.2734
 2534POSM   NC329730  26.833   1.777  16.019 -0.1039  0.0730  0.2508
 2534POSM   PO429731  26.498   1.959  16.022 -0.0684  0.1884  0.0493
 2534POSM   AM129732  26.528   2.114  15.724 -0.0153  0.0532 -0.1575
 2534POSM   AM229733  26.312   2.164  15.541 -0.1199 -0.0712  0.0482
 2534POSM   T1A29734  26.710   2.103  15.271  0.3311 -0.0340  0.3043
 2534POSM   C2A29735  26.862   1.807  14.893  0.0662  0.0382  0.2812
 2534POSM   C3A29736  26.705   1.547  14.667 -0.0263  0.0991  0.1639
 2534POSM   C1B29737  26.210   1.966  15.251  0.5357 -0.1477  0.1516
 2534POSM   D2B29738  25.960   1.656  14.977  0.1839 -0.0014  0.3341
 2534POSM   C3B29739  26.259   1.277  14.791  0.2579 -0.2491  0.2989
 2534POSM   C4B29740  26.623   1.082  14.788 -0.0717 -0.0457  0.2987
 2535POSM   NC329741  24.597  10.240  16.092 -0.1954  0.3031 -0.3486
 2535POSM   PO429742  24.468  10.498  15.816  0.1004  0.0944  0.1785
 2535POSM   AM129743  24.296  10.419  15.566 -0.0388  0.1140  0.0474
 2535POSM   AM229744  24.343  10.217  15.374 -0.1152  0.2564  0.5917
 2535POSM   T1A29745  23.947  10.602  15.249 -0.0747 -0.1791 -0.2745
 2535POSM   C2A29746  23.646  10.913  15.055  0.0458  0.3434  0.0043
 2535POSM   C3A29747  23.475  11.059  14.688 -0.2523  0.1550  0.2569
 2535POSM   C1B29748  24.216  10.154  15.112 -0.0590  0.5052  0.1458
 2535POSM   D2B29749  24.066   9.972  14.709 -0.1117  0.0439  0.4113
 2535POSM   C3B29750  23.761   9.681  14.617  0.2165  0.2309  0.3671
 2535POSM   C4B29751  23.387   9.449  14.427 -0.0082  0.3031  0.2634
 2536DOPS   CNO29752  28.736   6.875  16.501 -0.0185  0.2202  0.1584
 2536DOPS   PO429753  28.630   7.138  16.192 -0.3076 -0.1096 -0.0368
 2536DOPS   GL129754  28.782   7.093  15.861 -0.3973 -0.0279 -0.2252
 2536DOPS   GL229755  28.802   6.837  15.794  0.4659 -0.0076 -0.1200
 2536DOPS   C1A29756  29.100   7.314  15.623  0.0136 -0.0294 -0.0755
 2536DOPS   D2A29757  29.196   7.247  15.150 -0.0155  0.3208 -0.2927
 2536DOPS   C3A29758  29.224   7.143  14.669  0.4626  0.2242  0.0849
 2536DOPS   C4A29759  29.264   7.310  14.257 -0.1621 -0.4004 -0.2055
 2536DOPS   C1B29760  28.809   6.962  15.371 -0.0771  0.0405  0.3058
 2536DOPS   D2B29761  28.790   7.086  14.935 -0.1551  0.0665 -0.2042
 2536DOPS   C3B29762  28.919   7.548  14.865 -0.0767  0.2257  0.2207
 2536DOPS   C4B29763  29.211   7.861  14.706  0.0061  0.0945  0.0653
 2537DOPC   NC329764  27.112   9.307  16.090  0.0628 -0.1463 -0.1743
 2537DOPC   PO429765  26.850   9.562  16.192  0.1784  0.0781 -0.0398
 2537DOPC   GL129766  26.680   9.590  15.814 -0.0597 -0.1781  0.2058
 2537DOPC   GL229767  26.908   9.383  15.647 -0.3867  0.1862  0.1508
 2537DOPC   C1A29768  26.343   9.526  15.503  0.0375  0.2591  0.4353
 2537DOPC   D2A29769  25.947   9.519  15.240  0.0144  0.2364 -0.0364
 2537DOPC   C3A29770  25.971   9.638  14.828  0.2234  0.3097  0.1497
 2537DOPC   C4A29771  25.851   9.574  14.362  0.1127  0.2505  0.3432
 2537DOPC   C1B29772  26.595   9.073  15.549  0.0194  0.4168  0.1777
 2537DOPC   D2B29773  26.404   8.722  15.343 -0.5621  0.1131 -0.1405
 2537DOPC   C3B29774  26.456   8.442  15.017  0.2181 -0.1129  0.2302
 2537DOPC   C4B29775  26.820   8.138  15.015  0.0655  0.0419 -0.1613
 2538DOPE   NH329776  27.844   6.765  16.370 -0.4901 -0.2150 -0.0684
 2538DOPE   PO429777  27.617   6.858  16.203  0.1703  0.0145  0.0435
 2538DOPE   GL129778  27.368   6.940  15.907  0.1049  0.0803  0.2421
 2538DOPE   GL229779  27.461   7.268  15.988  0.1076  0.3005 -0.2983
 2538DOPE   C1A29780  27.301   7.081  15.533 -0.1263 -0.1247  0.2966
 2538DOPE   D2A29781  27.113   7.245  15.191 -0.1703  0.0600  0.1211
 2538DOPE   C3A29782  27.444   7.424  14.968  0.0201  0.1883 -0.1472
 2538DOPE   C4A29783  27.802   7.671  14.727  0.1405 -0.2972 -0.0647
 2538DOPE   C1B29784  27.510   7.572  15.621 -0.0503 -0.0938 -0.0150
 2538DOPE   D2B29785  27.596   7.950  15.323 -0.0554  0.0332  0.0224
 2538DOPE   C3B29786  27.366   7.998  14.870  0.1360  0.1465  0.2206
 2538DOPE   C4B29787  27.027   8.133  14.575  0.0144 -0.2791  0.2335
 2539DOPE   NH329788  27.856   1.459  16.181 -0.2195 -0.1241 -0.1793
 2539DOPE   PO429789  28.113   1.606  16.009 -0.2050  0.1038 -0.0916
 2539DOPE   GL129790  28.083   1.595  15.643 -0.1123  0.4896 -0.1144
 2539DOPE   GL229791  28.320   1.462  15.580 -0.1155 -0.0524 -0.2617
 2539DOPE   C1A29792  27.846   1.713  15.279  0.2437  0.2352 -0.0106
 2539DOPE   D2A29793  28.002   1.853  14.918  0.0936 -0.2720  0.1999
 2539DOPE   C3A29794  27.744   1.880  14.504  0.1215 -0.0555 -0.2990
 2539DOPE   C4A29795  27.317   2.100  14.311  0.0060  0.2783  0.0553
 2539DOPE   C1B29796  28.388   1.793  15.250  0.1138  0.1459  0.1011
 2539DOPE   D2B29797  28.431   2.129  14.938 -0.0700  0.0786 -0.3784
 2539DOPE   C3B29798  28.173   2.188  14.607 -0.0285 -0.0373 -0.0692
 2539DOPE   C4B29799  28.190   1.904  14.234  0.0449 -0.1110  0.1575
 2540DOPC   NC329800  30.058   3.899  16.068 -0.0364  0.2769 -0.2073
 2540DOPC   PO429801  29.741   3.858  16.272 -0.0108  0.2957 -0.0127
 2540DOPC   GL129802  29.501   3.730  15.961  0.0117 -0.1677  0.2547
 2540DOPC   GL229803  29.378   3.919  15.727 -0.0687 -0.2460 -0.0468
 2540DOPC   C1A29804  29.494   3.435  15.573  0.2168 -0.2366  0.0929
 2540DOPC   D2A29805  29.519   3.475  15.117 -0.3839  0.0221 -0.0223
 2540DOPC   C3A29806  29.398   3.067  14.921 -0.1547  0.3031 -0.1203
 2540DOPC   C4A29807  29.113   2.895  14.581 -0.2622  0.1868  0.0241
 2540DOPC   C1B29808  29.544   3.995  15.345  0.0228  0.0990  0.3018
 2540DOPC   D2B29809  29.824   4.327  15.106 -0.2956 -0.3422 -0.1432
 2540DOPC   C3B29810  29.709   4.351  14.647  0.0179 -0.0132  0.3040
 2540DOPC   C4B29811  29.452   4.238  14.282 -0.1500  0.0741  0.0426
 2541POSM   NC329812  31.152   8.896  16.521  0.0696  0.1039  0.2565
 2541POSM   PO429813  31.367   8.657  16.316  0.0889 -0.1278  0.1816
 2541POSM   AM129814  31.285   8.648  15.986  0.2840 -0.0926  0.0226
 2541POSM   AM229815  31.370   8.518  15.791 -0.0148 -0.1449 -0.0831
 2541POSM   T1A29816  30.922   8.710  15.612  0.3927 -0.0945  0.2480
 2541POSM   C2A29817  30.717   8.650  15.209 -0.2783  0.3515 -0.1494
 2541POSM   C3A29818  30.544   8.855  14.853  0.0821  0.1339  0.1169
 2541POSM   C1B29819  31.226   8.316  15.574 -0.0229 -0.2026 -0.0785
 2541POSM   D2B29820  31.065   8.262  15.187  0.2969 -0.0799  0.0316
 2541POSM   C3B29821  31.025   8.456  14.766  0.3649 -0.0386 -0.0315
 2541POSM   C4B29822  30.723   8.563  14.429 -0.0512  0.1426 -0.1877
 2542POSM   NC329823  25.538  10.688  16.089  0.0997  0.1265  0.1610
 2542POSM   PO429824  25.595  10.961  15.813  0.0042 -0.2277  0.2769
 2542POSM   AM129825  25.468  10.832  15.518  0.1488  0.3835 -0.1681
 2542POSM   AM229826  25.358  10.576  15.393 -0.2142  0.0162 -0.0795
 2542POSM   T1A29827  25.350  10.968  15.050  0.0587  0.0228 -0.0739
 2542POSM   C2A29828  25.400  11.047  14.602 -0.4907  0.1078  0.2974
 2542POSM   C3A29829  25.169  11.008  14.219 -0.0512 -0.0299  0.1926
 2542POSM   C1B29830  25.454  10.490  15.057  0.1747 -0.0905 -0.2277
 2542POSM   D2B29831  25.352  10.509  14.630 -0.0323 -0.1159  0.1127
 2542POSM   C3B29832  25.652  10.246  14.341  0.0637 -0.1432  0.1635
 2542POSM   C4B29833  26.030  10.020  14.234  0.3312 -0.1557  0.1086
 2543DOPC   NC329834  31.173   9.906  15.823  0.0354 -0.1700 -0.1266
 2543DOPC   PO429835  31.548   9.908  15.942 -0.0942  0.1362 -0.1736
 2543DOPC   GL129836  31.582   9.858  15.553 -0.0835 -0.0752 -0.5094
 2543DOPC   GL229837  31.786  10.020  15.487 -0.2102  0.1256  0.4651
 2543DOPC   C1A29838  31.539   9.835  15.087 -0.0672  0.0649  0.1710
 2543DOPC   D2A29839  31.563   9.706  14.646 -0.0815  0.0415 -0.0242
 2543DOPC   C3A29840  31.923   9.485  14.431  0.1290  0.3625 -0.0781
 2543DOPC   C4A29841  32.213   9.604  14.113  0.1129  0.1773 -0.1693
 2543DOPC   C1B29842  31.493  10.283  15.288  0.0097 -0.3521 -0.0851
 2543DOPC   D2B29843  31.079  10.403  15.115 -0.0308  0.0144  0.1838
 2543DOPC   C3B29844  30.940  10.437  14.692 -0.1627 -0.0271  0.1839
 2543DOPC   C4B29845  30.759  10.758  14.369  0.2582  0.1927  0.1846
 2544DOPS   CNO29846  28.317   6.201  16.135  0.0719  0.1701  0.1136
 2544DOPS   PO429847  28.321   6.570  16.250 -0.0279  0.1508 -0.2424
 2544DOPS   GL129848  28.358   6.773  15.883  0.1520  0.1330  0.3127
 2544DOPS   GL229849  28.170   6.678  15.694  0.0819 -0.0153 -0.0107
 2544DOPS   C1A29850  28.337   7.141  15.609  0.1183  0.0140 -0.1766
 2544DOPS   D2A29851  28.411   7.375  15.244 -0.0208 -0.1075 -0.2360
 2544DOPS   C3A29852  28.347   7.224  14.782  0.0486  0.1616 -0.0284
 2544DOPS   C4A29853  28.194   7.202  14.368 -0.1393 -0.2504  0.2081
 2544DOPS   C1B29854  28.203   6.879  15.228 -0.1172  0.4582 -0.0689
 2544DOPS   D2B29855  27.995   6.742  14.770  0.0742 -0.2074  0.2644
 2544DOPS   C3B29856  27.622   6.426  14.818  0.4754 -0.4481 -0.0116
 2544DOPS   C4B29857  27.553   6.002  14.980 -0.4434  0.0416 -0.1079
 2545DOPE   NH329858  34.343   5.323  15.828 -0.0551 -0.0991 -0.1703
 2545DOPE   PO429859  34.191   5.060  15.860  0.1227  0.2378 -0.4205
 2545DOPE   GL129860  34.161   4.833  15.515 -0.3553  0.1951 -0.1543
 2545DOPE   GL229861  34.019   4.604  15.572 -0.0653  0.0249  0.2779
 2545DOPE   C1A29862  33.933   4.829  15.088 -0.0378  0.2869  0.0242
 2545DOPE   D2A29863  33.820   4.823  14.608  0.2287  0.1934 -0.0502
 2545DOPE   C3A29864  33.778   4.661  14.202  0.1507 -0.1791 -0.0274
 2545DOPE   C4A29865  33.637   4.697  13.746 -0.2121  0.1038 -0.1795
 2545DOPE   C1B29866  33.652   4.903  15.520 -0.2971  0.0490  0.1518
 2545DOPE   D2B29867  33.412   5.281  15.355 -0.3434  0.0196 -0.1484
 2545DOPE   C3B29868  33.142   5.152  14.976  0.0935  0.0167  0.1793
 2545DOPE   C4B29869  32.846   5.147  14.661  0.0570 -0.0624  0.0215
 2546DOPS   CNO29870  28.318   9.203  16.202 -0.4268  0.3333 -0.0255
 2546DOPS   PO429871  28.688   9.122  16.102 -0.2138 -0.0582 -0.0472
 2546DOPS   GL129872  28.718   9.168  15.675 -0.0499 -0.0969  0.1744
 2546DOPS   GL229873  28.971   9.151  15.527 -0.0642  0.0526 -0.3981
 2546DOPS   C1A29874  28.561   9.295  15.254  0.1278 -0.1480 -0.0890
 2546DOPS   D2A29875  28.606   9.417  14.830 -0.1537 -0.3835 -0.2376
 2546DOPS   C3A29876  28.947   9.296  14.560 -0.0892 -0.0055  0.0306
 2546DOPS   C4A29877  29.013   9.139  14.141 -0.0612  0.0559  0.1197
 2546DOPS   C1B29878  28.801   8.718  15.380 -0.1886 -0.1537  0.0449
 2546DOPS   D2B29879  28.673   8.519  14.976  0.1744 -0.2676 -0.0196
 2546DOPS   C3B29880  28.325   8.473  14.596 -0.0287 -0.3334 -0.0100
 2546DOPS   C4B29881  28.014   8.419  14.222  0.6088  0.1508  0.1799
 2547DOPS   CNO29882  24.812   1.970  15.912  0.2930  0.4874 -0.0119
 2547DOPS   PO429883  24.990   1.907  15.554  0.0225  0.2753  0.5536
 2547DOPS   GL129884  24.934   1.785  15.199 -0.1029  0.2770 -0.0484
 2547DOPS   GL229885  24.644   1.828  15.067  0.1612  0.0238 -0.0367
 2547DOPS   C1A29886  24.997   1.390  14.908 -0.0254 -0.1055  0.0498
 2547DOPS   D2A29887  24.740   1.012  14.716  0.0727 -0.1088 -0.0313
 2547DOPS   C3A29888  24.397   1.171  14.534  0.0724 -0.0536  0.0223
 2547DOPS   C4A29889  24.195   1.190  14.116  0.1330  0.0680  0.2044
 2547DOPS   C1B29890  24.952   1.855  14.731  0.3737 -0.5013  0.0394
 2547DOPS   D2B29891  25.406   1.670  14.648  0.1503  0.0496  0.0565
 2547DOPS   C3B29892  25.465   1.658  14.278  0.1894  0.0391  0.3039
 2547DOPS   C4B29893  25.481   1.332  13.973  0.0846 -0.2977  0.0653
 2548POSM   NC329894  24.947   7.172  16.836 -0.0820  0.2573  0.2691
 2548POSM   PO429895  25.161   7.309  16.586  0.2136  0.3317  0.2921
 2548POSM   AM129896  25.175   7.423  16.285  0.0196 -0.2432 -0.2385
 2548POSM   AM229897  24.992   7.537  16.157  0.3915 -0.3587  0.0757
 2548POSM   T1A29898  25.449   7.634  15.886  0.0463 -0.1497 -0.1176
 2548POSM   C2A29899  25.357   7.885  15.498  0.0015 -0.0717  0.2246
 2548POSM   C3A29900  25.537   8.052  15.126  0.2801  0.0322  0.0104
 2548POSM   C1B29901  24.994   7.468  15.837 -0.0333 -0.1644  0.2432
 2548POSM   D2B29902  25.193   7.265  15.446 -0.1660  0.1314  0.1061
 2548POSM   C3B29903  25.523   7.516  15.270 -0.1643  0.0190  0.1778
 2548POSM   C4B29904  25.736   7.491  14.837 -0.0159 -0.0377  0.0869
 2549POSM   NC329905  31.982   5.094  16.602 -0.2667 -0.0400 -0.3666
 2549POSM   PO429906  31.872   5.267  16.259  0.3375  0.1285  0.1781
 2549POSM   AM129907  31.802   5.343  15.929 -0.0698  0.3176 -0.0378
 2549POSM   AM229908  31.666   5.154  15.772 -0.0433 -0.0794 -0.0486
 2549POSM   T1A29909  31.506   5.597  15.545 -0.1652  0.2057 -0.0611
 2549POSM   C2A29910  31.399   5.960  15.294 -0.1292  0.1190 -0.2361
 2549POSM   C3A29911  31.264   6.107  14.892 -0.0652  0.0907  0.2374
 2549POSM   C1B29912  31.757   5.178  15.425  0.0308 -0.0023 -0.0066
 2549POSM   D2B29913  31.923   5.065  15.001  0.2606  0.1350  0.0888
 2549POSM   C3B29914  31.929   5.404  14.679 -0.1315  0.0244 -0.3801
 2549POSM   C4B29915  31.687   5.824  14.689 -0.0391  0.1523 -0.1516
 2550DOPC   NC329916  25.226   1.590  15.945  0.0140  0.0196  0.1427
 2550DOPC   PO429917  25.315   1.993  15.928  0.1471  0.0703  0.2980
 2550DOPC   GL129918  25.450   1.921  15.512  0.0696  0.4280 -0.0383
 2550DOPC   GL229919  25.610   1.789  15.567  0.4321  0.0253  0.0515
 2550DOPC   C1A29920  25.398   1.915  15.070 -0.1823  0.0771 -0.2063
 2550DOPC   D2A29921  25.390   2.140  14.647 -0.2007 -0.1740  0.0964
 2550DOPC   C3A29922  25.205   2.307  14.247 -0.0690 -0.0410  0.5147
 2550DOPC   C4A29923  25.124   2.577  13.926  0.2026 -0.0693 -0.1329
 2550DOPC   C1B29924  25.774   2.163  15.286  0.0997  0.0744 -0.1168
 2550DOPC   D2B29925  25.941   2.149  14.838  0.0179  0.0871  0.2616
 2550DOPC   C3B29926  25.879   1.858  14.431  0.2951 -0.0035 -0.1150
 2550DOPC   C4B29927  25.919   1.610  14.046  0.0886 -0.4756 -0.1816
 2551POSM   NC329928  27.812  10.799  16.299 -0.2537 -0.0759 -0.0972
 2551POSM   PO429929  28.086  10.534  16.380 -0.0762  0.0916  0.1506
 2551POSM   AM129930  28.079  10.539  16.041  0.3640 -0.1489 -0.2853
 2551POSM   AM229931  28.294  10.610  15.854 -0.0476 -0.1022  0.0979
 2551POSM   T1A29932  27.882  10.863  15.729 -0.1076 -0.1294  0.0514
 2551POSM   C2A29933  27.994  10.905  15.299 -0.0990 -0.0527 -0.1655
 2551POSM   C3A29934  28.184  10.705  14.932  0.0096  0.0039  0.2864
 2551POSM   C1B29935  28.446  10.559  15.552 -0.0828  0.0264 -0.0799
 2551POSM   D2B29936  28.737  10.654  15.217  0.0551  0.0854  0.0904
 2551POSM   C3B29937  29.033  10.873  14.883  0.1680 -0.1089 -0.4267
 2551POSM   C4B29938  29.323  11.026  14.556  0.0242 -0.1351 -0.3077
 2552DOPC   NC329939  30.021   6.595  16.161  0.0586 -0.0355  0.3180
 2552DOPC   PO429940  29.633   6.576  16.053  0.0388  0.0117 -0.1027
 2552DOPC   GL129941  29.862   6.473  15.744  0.1875  0.0390 -0.2697
 2552DOPC   GL229942  30.008   6.231  15.731 -0.1988 -0.0083  0.1195
 2552DOPC   C1A29943  29.948   6.588  15.273 -0.0829  0.0263  0.2811
 2552DOPC   D2A29944  30.213   6.482  14.904 -0.0955 -0.2850  0.1669
 2552DOPC   C3A29945  30.276   6.055  14.683  0.1309  0.3782 -0.2156
 2552DOPC   C4A29946  30.490   5.696  14.847 -0.0471  0.0882  0.1415
 2552DOPC   C1B29947  30.390   6.429  15.494 -0.0709 -0.0173  0.1152
 2552DOPC   D2B29948  30.616   6.755  15.229 -0.0906  0.1282  0.1670
 2552DOPC   C3B29949  30.629   6.745  14.737  0.2743  0.1670  0.0068
 2552DOPC   C4B29950  30.445   6.575  14.358  0.0879 -0.2047 -0.0714
 2553POSM   NC329951  30.164   5.555  16.305  0.1500 -0.0012  0.0082
 2553POSM   PO429952  30.407   5.372  16.032  0.0609  0.1531  0.2372
 2553POSM   AM129953  30.489   5.692  15.858  0.1946 -0.0044  0.1902
 2553POSM   AM229954  30.302   5.834  15.711  0.2724 -0.4306 -0.1872
 2553POSM   T1A29955  30.740   6.055  15.683 -0.2518 -0.1871 -0.0817
 2553POSM   C2A29956  30.938   6.354  15.361  0.0195  0.0378  0.1509
 2553POSM   C3A29957  31.144   6.651  15.028 -0.0737  0.0218 -0.2616
 2553POSM   C1B29958  30.428   5.847  15.395 -0.1277  0.1064 -0.4533
 2553POSM   D2B29959  30.584   6.133  15.059  0.2782  0.1278  0.2243
 2553POSM   C3B29960  30.756   6.156  14.659  0.0640 -0.0955 -0.2604
 2553POSM   C4B29961  31.017   6.486  14.452 -0.1355 -0.2955 -0.1066
 2554POSM   NC329962  32.126   2.006  16.087  0.0489 -0.0291 -0.0345
 2554POSM   PO429963  31.745   1.984  16.049 -0.1576  0.3333  0.2128
 2554POSM   AM129964  31.675   1.758  15.814  0.0278  0.1577 -0.2269
 2554POSM   AM229965  31.480   1.551  15.742 -0.0043  0.0216 -0.1125
 2554POSM   T1A29966  31.795   1.785  15.313 -0.0493 -0.0953 -0.2445
 2554POSM   C2A29967  31.991   1.800  14.860 -0.2871 -0.1244 -0.0267
 2554POSM   C3A29968  32.087   1.795  14.416  0.2245 -0.3146  0.1492
 2554POSM   C1B29969  31.371   1.484  15.408  0.0409 -0.0944  0.2593
 2554POSM   D2B29970  31.589   1.540  14.950  0.1332 -0.2260 -0.4108
 2554POSM   C3B29971  31.377   1.561  14.546 -0.2483 -0.1775 -0.2758
 2554POSM   C4B29972  31.162   1.363  14.236  0.2767 -0.0796 -0.3103
 2555DOPC   NC329973  25.149   2.864  15.422 -0.0500  0.0091  0.0083
 2555DOPC   PO429974  24.836   2.914  15.686  0.0336  0.0909 -0.1697
 2555DOPC   GL129975  24.763   3.231  15.424  0.1706 -0.1842 -0.0424
 2555DOPC   GL229976  24.513   3.089  15.312  0.0747  0.1524  0.1309
 2555DOPC   C1A29977  25.117   3.441  15.148  0.4604  0.2774 -0.1790
 2555DOPC   D2A29978  25.488   3.668  15.022  0.1534  0.2393  0.3602
 2555DOPC   C3A29979  25.354   3.983  14.638  0.4184  0.0960 -0.0903
 2555DOPC   C4A29980  25.210   4.331  14.338  0.0728 -0.3132  0.1093
 2555DOPC   C1B29981  24.632   3.331  14.929  0.1915 -0.0325  0.0115
 2555DOPC   D2B29982  24.579   3.343  14.480 -0.1049  0.0034 -0.1611
 2555DOPC   C3B29983  24.660   3.222  13.991  0.4145 -0.2014  0.0993
 2555DOPC   C4B29984  25.032   3.202  13.770  0.1900  0.0756 -0.4437
 2556DOPE   NH329985  24.904   2.420  15.850 -0.1761 -0.2369  0.1549
 2556DOPE   PO429986  25.145   2.407  15.626  0.0813 -0.0386  0.2015
 2556DOPE   GL129987  25.283   2.286  15.380 -0.2446 -0.1473  0.1427
 2556DOPE   GL229988  25.100   2.319  15.132  0.0234  0.0251  0.0163
 2556DOPE   C1A29989  25.484   2.592  15.025  0.0142  0.0398 -0.1006
 2556DOPE   D2A29990  25.736   2.599  14.644  0.2211 -0.3009  0.0475
 2556DOPE   C3A29991  25.755   2.453  14.236 -0.0281 -0.3877 -0.0991
 2556DOPE   C4A29992  25.684   2.086  14.035 -0.1934  0.0044  0.2352
 2556DOPE   C1B29993  25.082   2.540  14.702 -0.2122  0.0733  0.2462
 2556DOPE   D2B29994  24.803   2.841  14.368 -0.0514 -0.4742 -0.2671
 2556DOPE   C3B29995  24.617   2.640  13.957 -0.0634  0.1273 -0.0208
 2556DOPE   C4B29996  24.796   2.697  13.523  0.0825  0.0259  0.0160
 2557DOPC   NC329997  23.270   4.512  16.039  0.0652  0.1563 -0.0244
 2557DOPC   PO429998  23.630   4.588  15.892 -0.4360 -0.0102 -0.3557
 2557DOPC   GL129999  23.558   4.405  15.568 -0.2520 -0.1323 -0.0665
 2557DOPC   GL230000  23.885   4.414  15.520 -0.0476 -0.0844 -0.1496
 2557DOPC   C1A30001  23.516   4.590  15.148 -0.2496  0.0058 -0.1184
 2557DOPC   D2A30002  23.455   4.699  14.712  0.0875  0.1357  0.0830
 2557DOPC   C3A30003  23.823   4.808  14.427 -0.1824 -0.1403 -0.0724
 2557DOPC   C4A30004  24.301   4.778  14.451 -0.2159  0.2033 -0.2624
 2557DOPC   C1B30005  23.997   4.817  15.275 -0.0905  0.4285  0.0209
 2557DOPC   D2B30006  24.335   4.962  15.015  0.0189  0.2312 -0.0010
 2557DOPC   C3B30007  24.656   4.638  14.863 -0.2888  0.0552  0.1247
 2557DOPC   C4B30008  24.973   4.299  14.807 -0.0079 -0.1639 -0.3810
 2558POSM   NC330009  32.560   7.330  16.377 -0.0354 -0.0975  0.0397
 2558POSM   PO430010  32.825   7.596  16.455 -0.0150  0.0202 -0.0865
 2558POSM   AM130011  32.965   7.657  16.130 -0.1232  0.0027  0.1639
 2558POSM   AM230012  33.037   7.428  15.960  0.1506  0.0713 -0.1253
 2558POSM   T1A30013  33.420   7.781  15.913  0.0688 -0.1124  0.0370
 2558POSM   C2A30014  33.729   7.833  15.640 -0.0690  0.0477 -0.1663
 2558POSM   C3A30015  33.908   7.822  15.243  0.2321 -0.0118 -0.0472
 2558POSM   C1B30016  32.986   7.310  15.674 -0.0472  0.1792  0.0852
 2558POSM   D2B30017  32.911   7.235  15.252  0.1121 -0.6204 -0.2104
 2558POSM   C3B30018  32.858   7.569  14.991 -0.2642  0.0747  0.5894
 2558POSM   C4B30019  32.691   7.647  14.541  0.5398 -0.1507  0.1356
 2559POSM   NC330020  23.534  10.270  16.039  0.1344  0.0808 -0.5315
 2559POSM   PO430021  23.844  10.128  16.301  0.2536  0.2752  0.1612
 2559POSM   AM130022  23.985  10.148  15.997  0.4070  0.1524  0.3261
 2559POSM   AM230023  24.219  10.012  15.840  0.0549  0.0337 -0.0321
 2559POSM   T1A30024  23.844  10.221  15.562 -0.0069 -0.1290 -0.0468
 2559POSM   C2A30025  23.710   9.976  15.191 -0.0593 -0.0436  0.0304
 2559POSM   C3A30026  23.383   9.961  14.831 -0.0944  0.3204  0.1137
 2559POSM   C1B30027  24.172   9.791  15.546  0.0377  0.0318 -0.0719
 2559POSM   D2B30028  23.992   9.545  15.173  0.0326 -0.1860 -0.1150
 2559POSM   C3B30029  24.332   9.529  14.816 -0.0918 -0.1002  0.1305
 2559POSM   C4B30030  24.751   9.375  14.660 -0.2202  0.0803 -0.0472
 2560POSM   NC330031  26.861   5.782  16.695 -0.2045  0.3607 -0.0234
 2560POSM   PO430032  26.604   5.705  16.404 -0.0099  0.1384 -0.1978
 2560POSM   AM130033  26.479   5.718  16.084  0.2494 -0.1721 -0.3140
 2560POSM   AM230034  26.253   5.654  15.995 -0.1681 -0.2889  0.0234
 2560POSM   T1A30035  26.674   5.822  15.608  0.0736 -0.0620 -0.0194
 2560POSM   C2A30036  26.942   5.758  15.214  0.2777  0.2785 -0.1817
 2560POSM   C3A30037  27.112   5.727  14.826 -0.1613  0.0466 -0.0690
 2560POSM   C1B30038  26.126   5.999  15.887  0.0981  0.1029 -0.0322
 2560POSM   D2B30039  25.948   6.377  15.607 -0.2429 -0.0376 -0.1106
 2560POSM   C3B30040  25.959   6.418  15.161 -0.1343  0.2150 -0.0445
 2560POSM   C4B30041  25.699   6.355  14.811 -0.3108 -0.0312  0.2394
 2561POSM   NC330042  26.019  11.677  15.846  0.0048  0.1371 -0.1342
 2561POSM   PO430043  26.035  11.290  15.791 -0.2932 -0.0311 -0.1952
 2561POSM   AM130044  26.206  11.150  15.551  0.2608  0.0957  0.2127
 2561POSM   AM230045  26.350  10.934  15.454  0.2095 -0.0839  0.1820
 2561POSM   T1A30046  26.355  11.288  15.122 -0.0513 -0.0133  0.2078
 2561POSM   C2A30047  26.123  11.408  14.731  0.0424  0.2351  0.2082
 2561POSM   C3A30048  25.731  11.552  14.517  0.1462  0.0232  0.3512
 2561POSM   C1B30049  26.658  10.968  15.300 -0.1665 -0.2671  0.0400
 2561POSM   D2B30050  26.936  11.004  15.008 -0.0189 -0.2017 -0.1670
 2561POSM   C3B30051  26.949  10.604  14.758 -0.1733 -0.0879  0.3894
 2561POSM   C4B30052  26.966  10.429  14.362 -0.2229 -0.2943 -0.2875
 2562DOPC   NC330053   0.646   7.120  15.897 -0.0933 -0.0093 -0.1051
 2562DOPC   PO430054   0.255   7.185  15.971 -0.0033 -0.1277 -0.1670
 2562DOPC   GL130055   0.402   7.340  15.519  0.1081 -0.1306 -0.0121
 2562DOPC   GL230056   0.623   7.228  15.359  0.3479  0.0818  0.1459
 2562DOPC   C1A30057   0.150   7.438  15.132  0.2361 -0.1812 -0.0548
 2562DOPC   D2A30058   0.042   7.589  14.702  0.2324 -0.2097  0.1658
 2562DOPC   C3A30059  -0.140   7.202  14.527  0.1779 -0.2242 -0.0774
 2562DOPC   C4A30060  -0.591   7.266  14.394 -0.0235  0.1738 -0.0425
 2562DOPC   C1B30061   0.900   6.925  15.171 -0.3441 -0.1358  0.3492
 2562DOPC   D2B30062   0.899   7.099  14.692  0.1860  0.0583  0.0460
 2562DOPC   C3B30063   0.635   7.098  14.344  0.0097  0.1445 -0.0051
 2562DOPC   C4B30064   0.226   7.256  14.223 -0.1564 -0.0962  0.1375
 2563POSM   NC330065  34.120   7.929  16.443  0.0912 -0.0434 -0.0328
 2563POSM   PO430066  34.230   7.582  16.332 -0.2127  0.0411 -0.2378
 2563POSM   AM130067  34.224   7.675  16.023  0.2062  0.1523 -0.3436
 2563POSM   AM230068  34.229   7.901  15.935 -0.1380  0.0564  0.1777
 2563POSM   T1A30069  34.110   7.414  15.665  0.0613 -0.1037 -0.0937
 2563POSM   C2A30070  34.059   7.350  15.210 -0.0691  0.0894 -0.0690
 2563POSM   C3A30071  33.757   7.349  14.846 -0.0477  0.2366 -0.0926
 2563POSM   C1B30072  34.268   7.849  15.539  0.3427  0.1058  0.1442
 2563POSM   D2B30073  34.457   7.735  15.125  0.0269  0.2966 -0.1131
 2563POSM   C3B30074  34.226   7.622  14.716  0.0945 -0.0278 -0.2027
 2563POSM   C4B30075  34.368   7.621  14.261 -0.1677  0.0817 -0.3051
 2564DOPS   CNO30076  27.884   5.979  16.266 -0.2755  0.0624 -0.1223
 2564DOPS   PO430077  28.138   5.723  16.210  0.4468  0.1776  0.0417
 2564DOPS   GL130078  28.145   5.863  15.869 -0.1593 -0.1495  0.2873
 2564DOPS   GL230079  28.062   5.727  15.658 -0.0840 -0.0411  0.2077
 2564DOPS   C1A30080  28.339   6.163  15.535  0.2061  0.1191 -0.0964
 2564DOPS   D2A30081  28.597   6.540  15.482 -0.2003  0.0644  0.0447
 2564DOPS   C3A30082  28.621   6.638  14.986 -0.1497 -0.0386  0.1445
 2564DOPS   C4A30083  28.513   6.768  14.539 -0.0850  0.2899  0.1117
 2564DOPS   C1B30084  28.047   5.777  15.171 -0.0050 -0.1246 -0.2091
 2564DOPS   D2B30085  28.198   5.851  14.796 -0.1255 -0.0091  0.2347
 2564DOPS   C3B30086  27.970   5.622  14.466 -0.0234 -0.0464 -0.3505
 2564DOPS   C4B30087  27.948   5.541  14.070 -0.3304 -0.2659  0.0640
 2565DOPS   CNO30088  23.736   6.942  16.360  0.2563 -0.1447  0.0064
 2565DOPS   PO430089  23.879   7.136  16.072  0.0428  0.2793  0.0369
 2565DOPS   GL130090  24.138   7.067  15.800  0.2443  0.0483  0.0647
 2565DOPS   GL230091  24.225   7.242  15.624 -0.3077  0.1495  0.1146
 2565DOPS   C1A30092  24.295   6.813  15.459  0.1208 -0.0616 -0.1102
 2565DOPS   D2A30093  24.507   6.848  15.093  0.0104 -0.2699 -0.2627
 2565DOPS   C3A30094  24.284   6.694  14.732 -0.2016  0.1310  0.0628
 2565DOPS   C4A30095  24.149   6.468  14.338 -0.3381 -0.0998 -0.3405
 2565DOPS   C1B30096  24.165   7.289  15.180  0.1735  0.0117 -0.1519
 2565DOPS   D2B30097  23.973   7.122  14.831  0.2587 -0.0746  0.1570
 2565DOPS   C3B30098  23.605   7.207  14.588 -0.1677  0.1017 -0.0921
 2565DOPS   C4B30099  23.216   7.492  14.495 -0.3399  0.1409  0.3836
 2566DOPS   CNO30100  28.461   8.214  16.074 -0.0162  0.0970  0.2578
 2566DOPS   PO430101  28.644   7.951  16.259 -0.1589  0.0443  0.3605
 2566DOPS   GL130102  28.514   7.833  15.788  0.0387  0.2063  0.0703
 2566DOPS   GL230103  28.552   7.531  15.790 -0.0687 -0.0199  0.2964
 2566DOPS   C1A30104  28.362   7.885  15.392 -0.3927 -0.2965  0.3084
 2566DOPS   D2A30105  28.710   7.984  15.089 -0.0831 -0.1784  0.0129
 2566DOPS   C3A30106  28.680   8.076  14.650 -0.1267  0.0226  0.2240
 2566DOPS   C4A30107  28.533   8.018  14.202  0.0940 -0.0691  0.0153
 2566DOPS   C1B30108  28.820   7.663  15.444 -0.1800 -0.0174 -0.0430
 2566DOPS   D2B30109  29.187   7.911  15.252  0.3443 -0.0662  0.3054
 2566DOPS   C3B30110  29.180   8.258  14.907 -0.0114  0.1510 -0.0282
 2566DOPS   C4B30111  29.131   8.343  14.502  0.0651  0.2541 -0.0344
 2567POSM   NC330112  31.513   3.780  16.505  0.0373 -0.0096  0.0360
 2567POSM   PO430113  31.205   3.521  16.490  0.2422  0.2826  0.2030
 2567POSM   AM130114  31.005   3.546  16.212  0.0379  0.1117  0.5189
 2567POSM   AM230115  30.970   3.372  15.941 -0.4841  0.1113 -0.2191
 2567POSM   T1A30116  30.931   3.827  15.765 -0.1764 -0.3305 -0.2898
 2567POSM   C2A30117  30.823   3.679  15.374  0.1356 -0.2921 -0.5785
 2567POSM   C3A30118  30.956   3.410  14.987 -0.0839 -0.2119  0.1377
 2567POSM   C1B30119  31.193   3.384  15.649 -0.0662 -0.2323  0.3271
 2567POSM   D2B30120  31.544   3.387  15.323 -0.0464  0.2310 -0.0130
 2567POSM   C3B30121  31.444   3.354  14.872 -0.0309 -0.0842  0.2971
 2567POSM   C4B30122  31.724   3.267  14.525  0.2344  0.1935 -0.3912
 2568DOPE   NH330123  31.330  11.720  16.735  0.1892  0.0822  0.1406
 2568DOPE   PO430124  31.150  11.476  16.578  0.1296  0.2589  0.1049
 2568DOPE   GL130125  30.931  11.720  16.318 -0.2509 -0.1886 -0.2293
 2568DOPE   GL230126  30.715  11.499  16.262 -0.1406  0.1167  0.2709
 2568DOPE   C1A30127  30.921  11.875  15.906 -0.2718  0.5684 -0.2625
 2568DOPE   D2A30128  30.799  11.795  15.491 -0.0795 -0.1038 -0.0362
 2568DOPE   C3A30129  31.058  11.848  15.094  0.0753  0.0455  0.0309
 2568DOPE   C4A30130  31.400  11.717  14.862  0.0535  0.0843 -0.3616
 2568DOPE   C1B30131  31.025  11.371  15.981 -0.1204  0.0907  0.1544
 2568DOPE   D2B30132  31.257  11.070  15.709 -0.0267  0.0070 -0.0776
 2568DOPE   C3B30133  31.081  10.834  15.351  0.0069 -0.3094 -0.1211
 2568DOPE   C4B30134  30.711  10.757  15.048  0.1296 -0.0624  0.0336
 2569POSM   NC330135  27.613   0.667  16.525  0.2060 -0.1669 -0.1668
 2569POSM   PO430136  27.674   1.073  16.535  0.4100 -0.0414 -0.1504
 2569POSM   AM130137  27.598   1.009  16.223  0.0347 -0.2906 -0.0291
 2569POSM   AM230138  27.745   1.018  15.982  0.2481  0.0248 -0.1373
 2569POSM   T1A30139  27.309   0.929  15.829 -0.1290  0.2342 -0.0830
 2569POSM   C2A30140  26.926   0.686  15.629 -0.1249  0.0422 -0.0400
 2569POSM   C3A30141  26.833   0.233  15.527  0.1649  0.0393  0.3542
 2569POSM   C1B30142  27.841   1.071  15.730 -0.0024  0.1318 -0.0073
 2569POSM   D2B30143  27.933   1.027  15.289 -0.2532  0.0032  0.2216
 2569POSM   C3B30144  27.944   1.348  15.009 -0.1919 -0.2163 -0.1055
 2569POSM   C4B30145  28.119   1.533  14.553  0.1593  0.0469  0.0955
 2570DOPS   CNO30146  30.624   7.070  16.617  0.0861  0.0173  0.1714
 2570DOPS   PO430147  30.407   6.875  16.397  0.2700  0.0381 -0.3189
 2570DOPS   GL130148  30.680   7.078  16.086 -0.2347 -0.0462 -0.1536
 2570DOPS   GL230149  30.479   6.850  15.898  0.4256  0.1498 -0.0332
 2570DOPS   C1A30150  30.597   7.248  15.653  0.1123 -0.0803 -0.0879
 2570DOPS   D2A30151  30.421   7.359  15.245  0.3459  0.0426  0.3815
 2570DOPS   C3A30152  30.626   7.695  14.971 -0.1021  0.0686 -0.0557
 2570DOPS   C4A30153  30.603   8.013  14.666 -0.2021 -0.0472  0.1856
 2570DOPS   C1B30154  30.194   6.980  15.557  0.1931 -0.0515 -0.2411
 2570DOPS   D2B30155  30.132   7.015  15.109 -0.0514  0.2084 -0.0851
 2570DOPS   C3B30156  30.128   6.917  14.683 -0.1497 -0.1184  0.3329
 2570DOPS   C4B30157  29.908   6.611  14.441  0.0373 -0.2185  0.1327
 2571POSM   NC330158  33.311   5.353  16.230  0.2705 -0.1659 -0.0712
 2571POSM   PO430159  33.108   5.047  16.226  0.1234  0.1492 -0.0366
 2571POSM   AM130160  33.101   5.045  15.899  0.0068 -0.0157  0.0835
 2571POSM   AM230161  33.104   4.902  15.672 -0.1173  0.0040  0.3089
 2571POSM   T1A30162  32.765   5.188  15.495 -0.0463  0.0272 -0.1215
 2571POSM   C2A30163  32.489   5.029  15.144  0.0584  0.0654  0.0512
 2571POSM   C3A30164  32.490   4.773  14.772 -0.1962  0.0537 -0.2237
 2571POSM   C1B30165  33.214   4.788  15.386 -0.3954 -0.0300  0.0590
 2571POSM   D2B30166  33.435   4.738  14.966  0.0554  0.0602 -0.1858
 2571POSM   C3B30167  33.316   4.950  14.553 -0.0580  0.3565  0.1191
 2571POSM   C4B30168  33.372   4.861  14.107 -0.3601 -0.2908 -0.2036
 2572POSM   NC330169  28.069   4.093  16.059  0.1627 -0.2061 -0.1565
 2572POSM   PO430170  28.178   3.705  16.245 -0.1954  0.0866 -0.0209
 2572POSM   AM130171  28.187   3.639  15.908 -0.0477 -0.2403  0.0124
 2572POSM   AM230172  28.165   3.421  15.742  0.1458 -0.0144 -0.2570
 2572POSM   T1A30173  28.571   3.551  15.577 -0.0394 -0.2057 -0.0325
 2572POSM   C2A30174  28.519   3.593  15.106  0.1479 -0.2416  0.0853
 2572POSM   C3A30175  28.729   3.799  14.702  0.0306 -0.1067  0.0033
 2572POSM   C1B30176  28.117   3.372  15.427  0.1377 -0.1242  0.0038
 2572POSM   D2B30177  28.090   3.299  14.932 -0.0551 -0.3446  0.1525
 2572POSM   C3B30178  28.231   3.691  14.688 -0.2856 -0.2526  0.1236
 2572POSM   C4B30179  28.398   3.962  14.359  0.1419  0.1077 -0.2088
 2573POSM   NC330180  25.583   7.591  16.451  0.3035 -0.0011 -0.1793
 2573POSM   PO430181  25.246   7.810  16.528 -0.0417 -0.1063  0.2162
 2573POSM   AM130182  25.271   7.996  16.227 -0.3926  0.4201  0.3286
 2573POSM   AM230183  25.522   8.058  16.126 -0.0228  0.1637  0.1765
 2573POSM   T1A30184  25.258   8.244  15.802 -0.2359  0.2113  0.1075
 2573POSM   C2A30185  25.044   8.313  15.356 -0.2284  0.1144  0.1665
 2573POSM   C3A30186  25.112   8.307  14.898  0.0687  0.0472  0.1056
 2573POSM   C1B30187  25.742   8.144  15.876 -0.1237  0.1481 -0.0243
 2573POSM   D2B30188  25.983   8.466  15.590 -0.0547 -0.2476 -0.0901
 2573POSM   C3B30189  25.960   8.434  15.126 -0.0573 -0.0977 -0.0292
 2573POSM   C4B30190  26.099   8.516  14.637  0.3312  0.2129  0.0740
 2574DOPE   NH330191   0.235   8.649  15.903  0.0723  0.1551  0.2402
 2574DOPE   PO430192  -0.063   8.597  15.899  0.3125 -0.1188  0.2923
 2574DOPE   GL130193  -0.295   8.366  15.610 -0.0779 -0.3391 -0.2584
 2574DOPE   GL230194  -0.081   8.227  15.440  0.0204 -0.2780 -0.1080
 2574DOPE   C1A30195  -0.532   8.262  15.200 -0.2390 -0.1674 -0.0648
 2574DOPE   D2A30196  -0.559   8.098  14.798 -0.1708 -0.0314 -0.1801
 2574DOPE   C3A30197  -0.214   8.060  14.533  0.2789  0.1685  0.1622
 2574DOPE   C4A30198  -0.004   8.110  14.123 -0.2217 -0.1276  0.1694
 2574DOPE   C1B30199   0.097   8.149  15.017  0.0816  0.0960 -0.0193
 2574DOPE   D2B30200   0.333   8.058  14.657  0.0058 -0.1833 -0.3508
 2574DOPE   C3B30201   0.290   7.803  14.286  0.2192  0.2066  0.2226
 2574DOPE   C4B30202   0.567   7.818  13.906  0.0070  0.0453 -0.0216
 2575DOPE   NH330203  24.638   7.136  16.402 -0.0397 -0.2059 -0.0440
 2575DOPE   PO430204  24.451   7.351  16.234  0.1273  0.1545  0.0936
 2575DOPE   GL130205  24.578   7.120  15.870  0.0485  0.1303  0.3802
 2575DOPE   GL230206  24.575   6.800  15.891  0.0051 -0.1742 -0.3843
 2575DOPE   C1A30207  24.674   7.183  15.451  0.4567 -0.4485  0.3907
 2575DOPE   D2A30208  24.650   7.440  15.053 -0.1485  0.0434  0.0115
 2575DOPE   C3A30209  24.814   7.485  14.650  0.2538 -0.3398  0.1394
 2575DOPE   C4A30210  24.867   7.892  14.512 -0.2448 -0.0955  0.1391
 2575DOPE   C1B30211  24.608   6.456  15.644  0.0921 -0.2734  0.5153
 2575DOPE   D2B30212  24.594   6.379  15.210 -0.0396 -0.0097  0.1307
 2575DOPE   C3B30213  24.800   6.020  14.991  0.0337  0.2497  0.1247
 2575DOPE   C4B30214  25.065   5.663  14.834  0.3409  0.3506 -0.1353
 2576DOPS   CNO30215   0.175   1.893  16.267  0.1846 -0.1337 -0.3238
 2576DOPS   PO430216  -0.077   1.603  16.214 -0.3087  0.0418  0.3492
 2576DOPS   GL130217  -0.117   1.365  15.840  0.2402 -0.0131 -0.1610
 2576DOPS   GL230218  -0.254   1.547  15.539 -0.0665 -0.0583 -0.0252
 2576DOPS   C1A30219  -0.230   1.030  15.516 -0.2313 -0.2302  0.0336
 2576DOPS   D2A30220  -0.324   0.650  15.326  0.2120 -0.2213  0.1963
 2576DOPS   C3A30221  -0.615   0.332  15.227  0.0938  0.0906 -0.0510
 2576DOPS   C4A30222  -0.652  -0.151  15.168 -0.3868  0.0984 -0.0992
 2576DOPS   C1B30223  -0.036   1.371  15.206 -0.0007  0.1823 -0.1453
 2576DOPS   D2B30224   0.025   0.937  15.106  0.1144 -0.1533 -0.3469
 2576DOPS   C3B30225  -0.063   0.915  14.633 -0.0301  0.3293  0.3135
 2576DOPS   C4B30226   0.260   0.790  14.300 -0.1917 -0.0532  0.1199
 2577DOPS   CNO30227  22.758   4.254  15.910  0.0860  0.3696 -0.3399
 2577DOPS   PO430228  22.547   4.466  16.137  0.0013  0.0907 -0.0368
 2577DOPS   GL130229  22.815   4.715  15.798 -0.0023  0.2478 -0.0485
 2577DOPS   GL230230  22.682   4.771  15.615  0.1721 -0.0554  0.2383
 2577DOPS   C1A30231  23.087   4.512  15.477  0.2056 -0.2212  0.1770
 2577DOPS   D2A30232  23.257   4.169  15.196 -0.1195  0.0766 -0.3528
 2577DOPS   C3A30233  23.129   4.043  14.750  0.1489 -0.3982 -0.0751
 2577DOPS   C4A30234  23.052   3.863  14.281 -0.1254  0.1834 -0.3171
 2577DOPS   C1B30235  22.612   4.529  15.208 -0.0914  0.1571  0.0582
 2577DOPS   D2B30236  22.993   4.490  14.823  0.0020 -0.3522  0.2956
 2577DOPS   C3B30237  23.131   4.393  14.347 -0.0337 -0.1479  0.0026
 2577DOPS   C4B30238  22.969   4.293  13.903 -0.3332 -0.3425 -0.2026
 2578DOPE   NH330239  27.798   9.456  15.886  0.0447  0.2806  0.1342
 2578DOPE   PO430240  27.570   9.258  15.893 -0.2738 -0.3212  0.2951
 2578DOPE   GL130241  27.553   9.141  15.546  0.3546  0.0689  0.0811
 2578DOPE   GL230242  27.815   8.908  15.518  0.0461 -0.3552  0.1639
 2578DOPE   C1A30243  27.163   9.036  15.342 -0.0942  0.0632  0.2420
 2578DOPE   D2A30244  26.781   9.068  15.035 -0.1519 -0.0155  0.0606
 2578DOPE   C3A30245  26.537   9.101  14.697  0.1484  0.1295 -0.2283
 2578DOPE   C4A30246  26.135   9.223  14.544 -0.0129 -0.0244  0.0928
 2578DOPE   C1B30247  27.587   8.967  15.119 -0.0001 -0.2260 -0.3197
 2578DOPE   D2B30248  27.240   9.207  14.848 -0.0404  0.0596  0.2615
 2578DOPE   C3B30249  27.092   9.050  14.491  0.1393  0.4875  0.0177
 2578DOPE   C4B30250  26.972   9.023  14.037 -0.0197  0.0453  0.1065
 2579DOPC   NC330251  28.304  10.178  16.118  0.0498 -0.0944  0.1749
 2579DOPC   PO430252  27.981   9.928  16.048 -0.2944 -0.0199  0.0492
 2579DOPC   GL130253  27.630   9.912  15.768 -0.1703 -0.0753 -0.1062
 2579DOPC   GL230254  27.474  10.114  15.810 -0.1685  0.3467 -0.2510
 2579DOPC   C1A30255  27.696   9.921  15.293  0.0971 -0.1714 -0.2114
 2579DOPC   D2A30256  27.389   9.905  14.896 -0.0124 -0.1091  0.0434
 2579DOPC   C3A30257  27.404  10.302  14.566 -0.0118 -0.1614  0.1869
 2579DOPC   C4A30258  27.750  10.596  14.723 -0.2253  0.0006  0.0791
 2579DOPC   C1B30259  27.820  10.352  15.602 -0.1060 -0.2070  0.0880
 2579DOPC   D2B30260  28.065  10.364  15.251 -0.0133 -0.0407  0.0629
 2579DOPC   C3B30261  28.442  10.265  15.031  0.0246  0.1619  0.1205
 2579DOPC   C4B30262  28.771  10.423  14.744 -0.0248  0.1943 -0.1584
 2580DOPE   NH330263  29.690   8.765  16.680 -0.1574 -0.1019  0.2289
 2580DOPE   PO430264  29.545   9.072  16.633 -0.4334  0.1707 -0.2137
 2580DOPE   GL130265  29.652   9.042  16.272 -0.3564 -0.1136  0.0457
 2580DOPE   GL230266  29.512   9.148  16.063 -0.0307  0.0926  0.2341
 2580DOPE   C1A30267  29.630   8.662  16.039 -0.0828  0.5340  0.0862
 2580DOPE   D2A30268  29.585   8.206  15.921 -0.0383  0.1187  0.0376
 2580DOPE   C3A30269  29.918   8.110  15.545 -0.1077 -0.1306  0.0709
 2580DOPE   C4A30270  30.159   8.443  15.338  0.1380  0.1334  0.1666
 2580DOPE   C1B30271  29.469   9.032  15.591  0.0020  0.0495 -0.1251
 2580DOPE   D2B30272  29.372   8.715  15.193 -0.0027 -0.0176 -0.0114
 2580DOPE   C3B30273  29.531   8.591  14.740  0.0677  0.0568  0.0536
 2580DOPE   C4B30274  29.603   8.208  14.548 -0.0301  0.1018 -0.1864
 2581DOPC   NC330275  22.506   3.738  15.769 -0.2300 -0.1538  0.0919
 2581DOPC   PO430276  22.884   3.696  15.855  0.1364  0.0117  0.0230
 2581DOPC   GL130277  22.830   3.491  15.544 -0.1907  0.3141  0.0147
 2581DOPC   GL230278  23.122   3.371  15.515 -0.1057  0.1591 -0.3702
 2581DOPC   C1A30279  22.576   3.329  15.176  0.0162 -0.1357 -0.2009
 2581DOPC   D2A30280  22.586   3.254  14.754 -0.2159  0.0448 -0.1641
 2581DOPC   C3A30281  22.227   3.161  14.471 -0.0490  0.0489 -0.1115
 2581DOPC   C4A30282  21.770   3.071  14.436  0.3214  0.0220  0.3194
 2581DOPC   C1B30283  23.050   3.269  15.058 -0.4498  0.3318 -0.2288
 2581DOPC   D2B30284  23.026   3.496  14.681  0.3926 -0.2259 -0.2011
 2581DOPC   C3B30285  23.416   3.679  14.570 -0.1436 -0.2875  0.1002
 2581DOPC   C4B30286  23.848   3.822  14.547  0.0107 -0.0142 -0.1901
 2582DOPE   NH330287  32.345   4.329  16.286 -0.0545  0.3142  0.0731
 2582DOPE   PO430288  32.544   4.344  16.020  0.1857  0.0995  0.0573
 2582DOPE   GL130289  32.459   4.314  15.595  0.1412  0.0539  0.1072
 2582DOPE   GL230290  32.717   4.536  15.540 -0.2917 -0.0150  0.0316
 2582DOPE   C1A30291  32.427   4.240  15.144 -0.1760 -0.1442  0.4737
 2582DOPE   D2A30292  32.656   4.271  14.772  0.2631 -0.1926  0.2449
 2582DOPE   C3A30293  32.503   4.337  14.389 -0.1890  0.0312 -0.1079
 2582DOPE   C4A30294  32.314   4.761  14.268 -0.3286 -0.0128 -0.0599
 2582DOPE   C1B30295  32.841   4.621  15.100 -0.1071  0.0423  0.1693
 2582DOPE   D2B30296  33.053   4.549  14.664 -0.1274 -0.0617  0.1245
 2582DOPE   C3B30297  32.867   4.752  14.320  0.0387 -0.1848 -0.2319
 2582DOPE   C4B30298  32.648   4.896  13.961 -0.0598  0.2919  0.2912
 2583DOPE   NH330299  32.672   8.096  16.536  0.2838  0.2075 -0.1503
 2583DOPE   PO430300  32.634   8.409  16.393  0.1755  0.1753 -0.3470
 2583DOPE   GL130301  32.740   8.325  16.004  0.3748 -0.2103 -0.3194
 2583DOPE   GL230302  32.575   8.305  15.756  0.0401 -0.2143  0.0957
 2583DOPE   C1A30303  32.942   7.973  15.772  0.0646  0.1643  0.1472
 2583DOPE   D2A30304  33.105   7.731  15.406 -0.1757 -0.0981 -0.1310
 2583DOPE   C3A30305  32.997   8.087  15.135 -0.1270  0.0891 -0.0763
 2583DOPE   C4A30306  32.983   8.388  14.745 -0.0361 -0.2352 -0.0537
 2583DOPE   C1B30307  32.540   7.945  15.410 -0.0813  0.1235 -0.1582
 2583DOPE   D2B30308  32.495   7.484  15.389 -0.2354 -0.0194 -0.0381
 2583DOPE   C3B30309  32.361   7.370  14.974 -0.1724 -0.2097 -0.1459
 2583DOPE   C4B30310  31.955   7.473  14.730 -0.1482  0.0361 -0.2114
 2584DOPC   NC330311  25.196   0.311  15.855  0.3837 -0.0219 -0.6007
 2584DOPC   PO430312  24.844   0.116  15.970 -0.1855 -0.2952 -0.0377
 2584DOPC   GL130313  24.900   0.016  15.594  0.1367 -0.1336 -0.0153
 2584DOPC   GL230314  24.704  -0.013  15.372 -0.0409 -0.0661 -0.0480
 2584DOPC   C1A30315  25.174   0.044  15.169 -0.0904  0.2355  0.0628
 2584DOPC   D2A30316  25.358   0.292  14.823 -0.2165  0.0282  0.3716
 2584DOPC   C3A30317  25.768   0.528  14.749 -0.1285  0.2154  0.1094
 2584DOPC   C4A30318  25.995   0.917  14.691  0.2298 -0.1910  0.1617
 2584DOPC   C1B30319  24.680  -0.318  15.059  0.1820 -0.2604 -0.3637
 2584DOPC   D2B30320  24.679  -0.351  14.569 -0.2954 -0.1756  0.1526
 2584DOPC   C3B30321  24.412  -0.382  14.184 -0.0700  0.2719  0.1152
 2584DOPC   C4B30322  24.105  -0.096  14.028  0.2381  0.1479 -0.1355
 2585DOPC   NC330323  33.792   4.192  15.958  0.0144  0.1130  0.2345
 2585DOPC   PO430324  33.640   3.869  15.862 -0.2002 -0.1914 -0.1792
 2585DOPC   GL130325  33.645   3.827  15.459  0.2675 -0.2673 -0.3093
 2585DOPC   GL230326  33.418   3.726  15.316 -0.4377 -0.0954  0.0292
 2585DOPC   C1A30327  33.904   3.761  15.055  0.1432  0.0658 -0.0934
 2585DOPC   D2A30328  34.054   3.447  14.757 -0.0967  0.0031  0.0887
 2585DOPC   C3A30329  33.732   3.208  14.551  0.0846  0.0514  0.0941
 2585DOPC   C4A30330  33.769   3.019  14.147  0.2106 -0.1673 -0.0235
 2585DOPC   C1B30331  33.499   4.003  14.950 -0.2759 -0.1861  0.0302
 2585DOPC   D2B30332  33.376   4.179  14.475 -0.3554 -0.4686  0.4370
 2585DOPC   C3B30333  33.422   4.022  14.054 -0.3670 -0.1377 -0.1545
 2585DOPC   C4B30334  33.424   4.046  13.615  0.2800  0.1072 -0.0768
 2586DOPE   NH330335  30.486   2.304  16.561  0.0201 -0.4206  0.1338
 2586DOPE   PO430336  30.351   2.595  16.453  0.0359 -0.0305 -0.1994
 2586DOPE   GL130337  30.366   2.634  15.997  0.1205  0.4875  0.1065
 2586DOPE   GL230338  30.475   2.945  15.935 -0.0387  0.1595 -0.2751
 2586DOPE   C1A30339  30.177   2.388  15.664  0.0261  0.1704  0.1118
 2586DOPE   D2A30340  29.698   2.386  15.462  0.2333 -0.0715  0.1056
 2586DOPE   C3A30341  29.588   1.973  15.329 -0.0201 -0.0445 -0.2986
 2586DOPE   C4A30342  29.755   1.661  15.080  0.0479 -0.0881  0.2172
 2586DOPE   C1B30343  30.529   3.203  15.588 -0.0915  0.4707 -0.1703
 2586DOPE   D2B30344  30.457   3.125  15.105  0.0880 -0.0444  0.0706
 2586DOPE   C3B30345  30.402   3.011  14.638  0.2556  0.0427 -0.1684
 2586DOPE   C4B30346  30.261   3.209  14.226  0.0164 -0.0611  0.1340
 2587DOPE   NH330347   0.010   6.750  16.089 -0.0209  0.0585  0.1529
 2587DOPE   PO430348   0.276   6.697  15.951  0.1623 -0.2779  0.2555
 2587DOPE   GL130349  -0.042   6.814  15.639  0.0017 -0.2520  0.3859
 2587DOPE   GL230350   0.020   7.114  15.526  0.0767  0.0986 -0.1633
 2587DOPE   C1A30351  -0.467   6.857  15.488  0.0953  0.0730  0.1133
 2587DOPE   D2A30352  -0.877   6.950  15.283  0.0812  0.0107  0.2085
 2587DOPE   C3A30353  -1.009   6.682  14.940  0.0251  0.0953 -0.1413
 2587DOPE   C4A30354  -0.844   6.360  14.649  0.1428 -0.0327  0.1935
 2587DOPE   C1B30355  -0.193   7.028  15.093  0.0277  0.1569  0.0121
 2587DOPE   D2B30356  -0.555   7.032  14.818  0.1345  0.4202 -0.0525
 2587DOPE   C3B30357  -0.901   6.833  14.474  0.1453 -0.3502 -0.0302
 2587DOPE   C4B30358  -1.230   6.647  14.127 -0.0006 -0.0639  0.0301
 2588DOPS   CNO30359  25.364   4.480  16.399 -0.1684  0.3412  0.2511
 2588DOPS   PO430360  25.226   4.342  16.045 -0.0670 -0.1860 -0.0161
 2588DOPS   GL130361  25.051   4.303  15.621  0.2523  0.1072 -0.1432
 2588DOPS   GL230362  24.827   4.238  15.626 -0.1720 -0.0734  0.0170
 2588DOPS   C1A30363  24.954   4.605  15.283 -0.1229 -0.1231  0.0655
 2588DOPS   D2A30364  24.952   5.005  15.089 -0.0209  0.2617  0.1358
 2588DOPS   C3A30365  24.689   5.421  15.023  0.3086  0.0438  0.1106
 2588DOPS   C4A30366  24.480   5.754  14.726 -0.0320 -0.0401  0.0791
 2588DOPS   C1B30367  24.666   4.138  15.198 -0.0758  0.2178 -0.0466
 2588DOPS   D2B30368  24.847   3.821  14.929 -0.1267 -0.4415  0.2472
 2588DOPS   C3B30369  25.056   3.535  14.674  0.4429  0.3672  0.0566
 2588DOPS   C4B30370  25.087   3.239  14.310 -0.3724  0.1794 -0.3139
 2589POSM   NC330371  27.577  10.414  16.501 -0.0653  0.3575 -0.0111
 2589POSM   PO430372  27.212  10.628  16.487 -0.1489  0.2708 -0.0745
 2589POSM   AM130373  27.351  10.736  16.230 -0.1632 -0.0994  0.0153
 2589POSM   AM230374  27.428  10.642  15.963  0.0211  0.1616 -0.1305
 2589POSM   T1A30375  27.411  11.103  15.971 -0.2527  0.1096  0.1959
 2589POSM   C2A30376  27.741  11.341  15.808  0.0959 -0.2293 -0.0543
 2589POSM   C3A30377  27.742  11.809  15.611  0.1101 -0.0505 -0.0922
 2589POSM   C1B30378  27.398  10.559  15.581 -0.1803  0.1389  0.0960
 2589POSM   D2B30379  27.088  10.596  15.265 -0.0569 -0.0064 -0.2181
 2589POSM   C3B30380  27.379  10.821  14.975  0.2646  0.0347  0.5121
 2589POSM   C4B30381  27.796  11.075  14.876 -0.3293  0.3055  0.5506
 2590DOPC   NC330382  22.781   5.508  16.118  0.1065 -0.0676  0.2467
 2590DOPC   PO430383  23.154   5.649  16.158 -0.0894  0.1213  0.0616
 2590DOPC   GL130384  23.139   6.049  16.021  0.3101 -0.2970 -0.1401
 2590DOPC   GL230385  22.872   6.229  16.065  0.0716  0.1210 -0.0341
 2590DOPC   C1A30386  23.364   6.415  15.856  0.0035  0.1487  0.0384
 2590DOPC   D2A30387  23.590   6.381  15.441  0.0143  0.0756  0.2828
 2590DOPC   C3A30388  23.559   6.308  14.994 -0.2950  0.2651 -0.0887
 2590DOPC   C4A30389  23.339   6.016  14.716  0.1762  0.1836 -0.3359
 2590DOPC   C1B30390  23.004   6.201  15.633  0.0875 -0.0480  0.2294
 2590DOPC   D2B30391  23.213   5.968  15.248  0.2382 -0.1989 -0.0501
 2590DOPC   C3B30392  23.592   5.792  15.084 -0.1065 -0.1471 -0.2261
 2590DOPC   C4B30393  23.883   5.835  14.719  0.3586  0.0830  0.2793
 2591DOPC   NC330394  27.246   3.949  16.154  0.3297 -0.1149 -0.2222
 2591DOPC   PO430395  27.479   4.105  15.849  0.0890 -0.1944  0.0550
 2591DOPC   GL130396  27.345   3.938  15.471  0.0080  0.1553 -0.6551
 2591DOPC   GL230397  27.067   3.804  15.468 -0.3625 -0.0185  0.2618
 2591DOPC   C1A30398  27.190   4.064  15.030 -0.2546  0.1262 -0.1802
 2591DOPC   D2A30399  27.174   4.031  14.570  0.0775 -0.1651 -0.1732
 2591DOPC   C3A30400  27.471   3.932  14.169 -0.1244  0.0064  0.1546
 2591DOPC   C4A30401  27.379   3.787  13.773 -0.2895 -0.2471 -0.1352
 2591DOPC   C1B30402  27.215   3.544  15.073  0.4109  0.4111  0.1792
 2591DOPC   D2B30403  27.269   3.558  14.569 -0.0175 -0.2773  0.1191
 2591DOPC   C3B30404  27.263   3.404  14.159 -0.3028  0.3192  0.0516
 2591DOPC   C4B30405  27.406   3.274  13.713 -0.0485 -0.1289  0.0851
 2592DOPS   CNO30406  25.881   1.448  16.179  0.0975 -0.0516 -0.0835
 2592DOPS   PO430407  25.663   1.372  15.865 -0.1174  0.1237  0.0964
 2592DOPS   GL130408  25.896   1.376  15.486  0.0647  0.2626  0.3369
 2592DOPS   GL230409  25.678   1.385  15.261 -0.0172 -0.1655  0.0003
 2592DOPS   C1A30410  26.078   1.033  15.177 -0.4579  0.1112  0.3863
 2592DOPS   D2A30411  26.009   0.590  15.177  0.1698  0.2554  0.2210
 2592DOPS   C3A30412  26.428   0.606  14.977  0.0668  0.0322 -0.0307
 2592DOPS   C4A30413  26.872   0.511  15.097 -0.1492  0.1566  0.2083
 2592DOPS   C1B30414  25.605   1.270  14.880 -0.4764 -0.0071 -0.0467
 2592DOPS   D2B30415  25.734   1.328  14.450 -0.1418 -0.1701 -0.2038
 2592DOPS   C3B30416  26.156   1.203  14.347 -0.0702 -0.0950  0.3109
 2592DOPS   C4B30417  26.602   1.190  14.263 -0.0193  0.3209 -0.4012
 2593DOPC   NC330418  33.411  11.522  16.207 -0.0968  0.2807  0.0445
 2593DOPC   PO430419  33.077  11.672  16.229  0.1010  0.2843 -0.1201
 2593DOPC   GL130420  33.041  11.451  15.899 -0.3106 -0.0860 -0.4015
 2593DOPC   GL230421  32.890  11.572  15.743 -0.0329 -0.1244  0.1922
 2593DOPC   C1A30422  33.297  11.542  15.476  0.1458 -0.1615 -0.1683
 2593DOPC   D2A30423  33.542  11.411  15.153  0.0071  0.1089  0.2275
 2593DOPC   C3A30424  33.469  11.713  14.752 -0.1435 -0.0847 -0.1005
 2593DOPC   C4A30425  33.140  11.990  14.551 -0.3647  0.1992 -0.1991
 2593DOPC   C1B30426  32.824  11.610  15.345  0.0427 -0.0526 -0.1201
 2593DOPC   D2B30427  32.620  11.475  14.951  0.0241 -0.0307  0.1502
 2593DOPC   C3B30428  32.877  11.510  14.585 -0.0282 -0.2269  0.0914
 2593DOPC   C4B30429  33.072  11.642  14.239 -0.0055  0.1079  0.0824
 2594POSM   NC330430  31.681   4.768  16.102  0.2080  0.1694 -0.0298
 2594POSM   PO430431  31.447   4.444  16.019  0.2562  0.2059 -0.0741
 2594POSM   AM130432  31.619   4.453  15.734  0.0519  0.0685 -0.1633
 2594POSM   AM230433  31.689   4.673  15.589  0.1103 -0.0355 -0.1239
 2594POSM   T1A30434  31.958   4.271  15.458 -0.1044  0.3351 -0.0762
 2594POSM   C2A30435  32.279   3.883  15.464 -0.4889  0.2020  0.1791
 2594POSM   C3A30436  32.462   3.579  15.116 -0.2085  0.1098 -0.3069
 2594POSM   C1B30437  31.578   4.743  15.289  0.1245 -0.1428 -0.2448
 2594POSM   D2B30438  31.548   4.796  14.853 -0.0148  0.0902  0.4129
 2594POSM   C3B30439  31.842   4.953  14.493  0.1037  0.2690  0.0894
 2594POSM   C4B30440  31.960   5.269  14.153 -0.0072 -0.0485  0.2377
 2595DOPC   NC330441  28.959   2.175  15.979  0.1280  0.3693 -0.3292
 2595DOPC   PO430442  28.902   1.900  16.255  0.0219  0.1926  0.1933
 2595DOPC   GL130443  28.914   1.715  15.970  0.1536 -0.2536  0.0807
 2595DOPC   GL230444  28.654   1.835  15.806  0.1842 -0.0310 -0.0898
 2595DOPC   C1A30445  28.711   1.242  15.876 -0.2216  0.1103  0.0627
 2595DOPC   D2A30446  28.846   0.834  15.626  0.1421  0.1013 -0.2366
 2595DOPC   C3A30447  28.831   0.787  15.161 -0.0073  0.1152 -0.1719
 2595DOPC   C4A30448  28.799   0.915  14.674 -0.1426 -0.2402 -0.1868
 2595DOPC   C1B30449  28.837   1.502  15.542  0.0609 -0.0175  0.0750
 2595DOPC   D2B30450  29.030   1.226  15.224  0.0335  0.1513 -0.3455
 2595DOPC   C3B30451  29.496   1.186  15.437 -0.0121 -0.2394 -0.2111
 2595DOPC   C4B30452  29.927   1.373  15.561  0.2992  0.1031 -0.0989
 2596DOPC   NC330453  32.476   0.766  16.255 -0.0571  0.0300  0.2770
 2596DOPC   PO430454  32.193   0.528  16.232 -0.0038 -0.1125  0.0108
 2596DOPC   GL130455  32.154   0.735  15.897  0.0052  0.0740  0.0012
 2596DOPC   GL230456  31.888   0.764  15.806  0.1182  0.0259  0.1113
 2596DOPC   C1A30457  32.508   0.637  15.622  0.1000  0.2553 -0.2650
 2596DOPC   D2A30458  32.716   0.706  15.188  0.0210  0.2862 -0.1683
 2596DOPC   C3A30459  32.707   0.735  14.745  0.1073 -0.0959 -0.1062
 2596DOPC   C4A30460  32.504   0.682  14.306  0.1186 -0.3845 -0.4032
 2596DOPC   C1B30461  32.089   0.760  15.382 -0.2298 -0.0753 -0.2334
 2596DOPC   D2B30462  32.245   0.735  14.950 -0.2399  0.0513  0.2048
 2596DOPC   C3B30463  32.062   0.790  14.464 -0.1453  0.1219  0.1833
 2596DOPC   C4B30464  32.023   0.908  14.085 -0.0195  0.1403  0.0547
 2597DOPE   NH330465  29.538  34.013  16.415 -0.0527  0.1453  0.0161
 2597DOPE   PO430466  29.779  34.173  16.520 -0.1570  0.1996 -0.2801
 2597DOPE   GL130467  29.842  34.330  16.105  0.2947  0.1633 -0.1005
 2597DOPE   GL230468  29.920  34.588  16.079 -0.2590  0.1518 -0.0907
 2597DOPE   C1A30469  29.828  34.188  15.624 -0.0558  0.0360 -0.3440
 2597DOPE   D2A30470  29.592  34.066  15.312 -0.0503  0.0915  0.3325
 2597DOPE   C3A30471  29.663  33.813  14.903 -0.0039 -0.4266  0.1872
 2597DOPE   C4A30472  29.573  33.740  14.471  0.0398  0.1917  0.3287
 2597DOPE   C1B30473  29.630  34.707  15.676 -0.2182  0.3293 -0.1346
 2597DOPE   D2B30474  29.363  34.867  15.300  0.3220 -0.0033 -0.0085
 2597DOPE   C3B30475  29.312  35.017  14.902 -0.1768 -0.2703  0.0518
 2597DOPE   C4B30476  28.956  35.088  14.607 -0.1845 -0.0187  0.2047
 2598POSM   NC330477  33.252   1.292  15.899  0.0961 -0.2439  0.1540
 2598POSM   PO430478  33.524   1.573  15.868  0.0354 -0.0693  0.0286
 2598POSM   AM130479  33.757   1.535  15.677  0.0232  0.1031  0.4842
 2598POSM   AM230480  33.905   1.755  15.518  0.1090 -0.0236 -0.1792
 2598POSM   T1A30481  34.019   1.319  15.305  0.3797 -0.2458 -0.1643
 2598POSM   C2A30482  34.247   1.046  15.011  0.1887  0.3068  0.0973
 2598POSM   C3A30483  34.095   0.651  14.863 -0.2526 -0.0694 -0.0861
 2598POSM   C1B30484  33.684   1.883  15.274  0.0541  0.1247 -0.0776
 2598POSM   D2B30485  33.400   1.926  14.931 -0.2012 -0.2070 -0.0711
 2598POSM   C3B30486  33.480   1.863  14.465 -0.0586 -0.0842  0.1198
 2598POSM   C4B30487  33.304   1.802  14.013 -0.0967  0.2103  0.2056
 2599POSM   NC330488  24.632   6.582  16.372 -0.3383 -0.2919  0.0582
 2599POSM   PO430489  24.952   6.764  16.512 -0.0723 -0.1458 -0.1744
 2599POSM   AM130490  25.042   6.819  16.203  0.3001  0.1762 -0.1651
 2599POSM   AM230491  25.122   7.036  16.075  0.0586  0.1265 -0.3474
 2599POSM   T1A30492  25.021   6.723  15.724 -0.2860  0.0812  0.0012
 2599POSM   C2A30493  24.934   6.785  15.286 -0.1784 -0.2630  0.1273
 2599POSM   C3A30494  24.937   7.020  14.898 -0.1024  0.2716  0.0416
 2599POSM   C1B30495  25.424   7.137  15.895 -0.2984  0.0206  0.1245
 2599POSM   D2B30496  25.775   7.307  15.674 -0.4794  0.1345 -0.2638
 2599POSM   C3B30497  25.817   7.155  15.237 -0.2726  0.0644  0.1841
 2599POSM   C4B30498  25.813   6.876  14.894  0.4172 -0.1552 -0.0220
 2600DOPE   NH330499  23.789   1.890  15.828 -0.0025  0.1902 -0.2293
 2600DOPE   PO430500  23.959   2.096  15.692  0.0008 -0.3066  0.0784
 2600DOPE   GL130501  23.912   2.122  15.266 -0.2374  0.2443 -0.2591
 2600DOPE   GL230502  24.143   2.041  15.166  0.0933  0.3374  0.1354
 2600DOPE   C1A30503  23.795   1.859  14.884  0.0521  0.0867  0.3020
 2600DOPE   D2A30504  24.001   1.646  14.491 -0.1961  0.2526 -0.1687
 2600DOPE   C3A30505  24.208   1.873  14.152  0.2268 -0.0644 -0.1285
 2600DOPE   C4A30506  24.311   1.967  13.714 -0.0173  0.0173 -0.1269
 2600DOPE   C1B30507  24.331   1.959  14.754  0.1058 -0.0390 -0.0054
 2600DOPE   D2B30508  24.529   1.670  14.509 -0.0479  0.2769  0.2773
 2600DOPE   C3B30509  24.558   1.505  14.090 -0.1296  0.0317 -0.0479
 2600DOPE   C4B30510  24.496   1.396  13.697 -0.0323  0.0100 -0.2409
 2601POSM   NC330511  23.139   2.200  15.774  0.0525  0.0587 -0.1594
 2601POSM   PO430512  22.967   1.921  15.567  0.0072 -0.4093  0.1486
 2601POSM   AM130513  23.082   2.009  15.269  0.1814  0.1505 -0.2624
 2601POSM   AM230514  23.169   2.209  15.111 -0.2819  0.0366  0.0799
 2601POSM   T1A30515  23.341   1.795  14.945  0.5135  0.2554 -0.1235
 2601POSM   C2A30516  23.607   1.428  14.760  0.0730  0.0326 -0.0377
 2601POSM   C3A30517  23.952   1.119  14.791  0.0921 -0.2861  0.0138
 2601POSM   C1B30518  23.249   2.329  14.793 -0.0095  0.0002 -0.1175
 2601POSM   D2B30519  23.444   2.469  14.414 -0.1758  0.1570  0.4049
 2601POSM   C3B30520  23.394   2.492  13.979 -0.0098  0.1506 -0.0321
 2601POSM   C4B30521  23.131   2.511  13.598  0.0137  0.1604  0.0630
 2602DOPE   NH330522  26.960  10.024  16.155  0.0571  0.2413  0.0418
 2602DOPE   PO430523  27.144  10.277  16.133  0.0069  0.1405  0.0537
 2602DOPE   GL130524  26.983  10.238  15.746  0.2099  0.1716  0.1790
 2602DOPE   GL230525  26.949  10.523  15.735  0.0900 -0.0220  0.3123
 2602DOPE   C1A30526  27.196  10.131  15.323 -0.0337  0.1606 -0.1543
 2602DOPE   D2A30527  27.554  10.368  15.116 -0.0221  0.0469  0.1253
 2602DOPE   C3A30528  27.850  10.146  14.859  0.1730 -0.2818  0.4750
 2602DOPE   C4A30529  28.226  10.314  14.607 -0.0565  0.1386 -0.1446
 2602DOPE   C1B30530  26.959  10.977  15.661  0.0359 -0.3226 -0.0202
 2602DOPE   D2B30531  27.389  10.977  15.436  0.1152 -0.3541 -0.0422
 2602DOPE   C3B30532  27.632  11.344  15.246 -0.1121 -0.2380  0.2131
 2602DOPE   C4B30533  27.804  11.718  15.037  0.2416  0.0935 -0.0348
 2603POSM   NC330534  23.567   5.341  16.366  0.0206  0.2337  0.1315
 2603POSM   PO430535  23.181   5.206  16.450 -0.2055 -0.3424  0.1747
 2603POSM   AM130536  23.100   5.145  16.103 -0.1259  0.1011 -0.1149
 2603POSM   AM230537  23.171   4.983  15.888 -0.1087 -0.1915 -0.1497
 2603POSM   T1A30538  22.794   5.240  15.714 -0.3409  0.1860  0.2966
 2603POSM   C2A30539  22.718   5.214  15.274 -0.2755 -0.0967 -0.2714
 2603POSM   C3A30540  22.581   4.928  14.899  0.2451 -0.0951 -0.1346
 2603POSM   C1B30541  23.213   5.040  15.522  0.1069  0.0779 -0.1097
 2603POSM   D2B30542  23.053   4.870  15.104 -0.0347  0.0396 -0.0252
 2603POSM   C3B30543  23.100   5.018  14.683  0.0352  0.1581 -0.1190
 2603POSM   C4B30544  22.984   4.880  14.249 -0.1045  0.0213 -0.0147
 2604DOPS   CNO30545   0.411   2.566  15.814 -0.0673  0.1106 -0.3803
 2604DOPS   PO430546   0.047   2.714  15.789 -0.0026  0.0806  0.1077
 2604DOPS   GL130547   0.367   2.701  15.411  0.1906 -0.1184  0.1755
 2604DOPS   GL230548   0.678   2.724  15.476 -0.0200 -0.0665  0.0705
 2604DOPS   C1A30549   0.296   2.796  14.939  0.0858 -0.1758 -0.0876
 2604DOPS   D2A30550   0.284   2.723  14.505 -0.0960 -0.0847  0.0281
 2604DOPS   C3A30551   0.646   2.425  14.404 -0.1924 -0.2287 -0.1898
 2604DOPS   C4A30552   0.621   1.967  14.300  0.1122  0.1026 -0.1657
 2604DOPS   C1B30553   0.761   2.681  15.007  0.3391  0.0194  0.0957
 2604DOPS   D2B30554   1.029   2.353  14.839  0.1239  0.2092 -0.1933
 2604DOPS   C3B30555   1.062   2.051  14.467 -0.0966  0.0016  0.3286
 2604DOPS   C4B30556   1.081   1.627  14.209  0.3041 -0.5824 -0.2754
 2605DOPC   NC330557  29.124  10.240  16.299  0.0144  0.0706 -0.0687
 2605DOPC   PO430558  28.797  10.295  16.071 -0.3551  0.0709 -0.1822
 2605DOPC   GL130559  28.516  10.113  15.700 -0.0109 -0.0355 -0.2470
 2605DOPC   GL230560  28.205   9.999  15.629  0.2269  0.0658 -0.2520
 2605DOPC   C1A30561  28.652   9.935  15.351  0.0884  0.1163  0.1097
 2605DOPC   D2A30562  28.962   9.667  15.153 -0.0407  0.1757 -0.1496
 2605DOPC   C3A30563  28.992   9.213  15.067  0.0753 -0.0252  0.0816
 2605DOPC   C4A30564  29.093   8.847  14.772  0.0299  0.1890 -0.0596
 2605DOPC   C1B30565  28.160   9.860  15.165 -0.1652 -0.1200  0.0815
 2605DOPC   D2B30566  28.107   9.755  14.712 -0.1395  0.1518 -0.1624
 2605DOPC   C3B30567  28.110   9.798  14.275  0.4294  0.1393  0.1875
 2605DOPC   C4B30568  27.841   9.743  13.922 -0.1447 -0.2488 -0.0787
 2606DOPS   CNO30569  22.821  10.468  16.358  0.2060 -0.1884 -0.0546
 2606DOPS   PO430570  23.054  10.420  16.051 -0.2673 -0.0732  0.0289
 2606DOPS   GL130571  23.209  10.275  15.716 -0.0845 -0.0858 -0.2684
 2606DOPS   GL230572  23.001  10.341  15.553  0.1396  0.0266 -0.0726
 2606DOPS   C1A30573  23.458  10.423  15.293 -0.3166  0.2447  0.0425
 2606DOPS   D2A30574  23.703  10.357  14.890  0.0257  0.0040 -0.4210
 2606DOPS   C3A30575  23.699  10.165  14.474 -0.1775 -0.1141 -0.2829
 2606DOPS   C4A30576  23.951   9.894  14.197 -0.3557  0.4738  0.0456
 2606DOPS   C1B30577  23.030  10.253  15.052 -0.1974  0.3032 -0.0815
 2606DOPS   D2B30578  23.285  10.587  14.821 -0.0697  0.1074 -0.1809
 2606DOPS   C3B30579  23.627  10.645  14.512  0.1321 -0.0177 -0.1529
 2606DOPS   C4B30580  24.027  10.555  14.340  0.1281  0.1645  0.0462
 2607DOPE   NH330581  32.643   9.170  16.208  0.0525  0.0661 -0.2830
 2607DOPE   PO430582  32.499   9.211  16.023  0.2623 -0.0303 -0.0513
 2607DOPE   GL130583  32.574   8.947  15.713 -0.0918  0.0273  0.0354
 2607DOPE   GL230584  32.414   8.890  15.453 -0.1695 -0.0919 -0.3990
 2607DOPE   C1A30585  32.926   8.962  15.454  0.0206 -0.0031  0.0503
 2607DOPE   D2A30586  33.330   9.164  15.313 -0.1077 -0.1671 -0.1558
 2607DOPE   C3A30587  33.385   9.421  14.929 -0.0018 -0.0221 -0.0931
 2607DOPE   C4A30588  33.711   9.607  14.652 -0.1538  0.0881 -0.1064
 2607DOPE   C1B30589  32.073   8.863  15.184  0.2208 -0.0243 -0.2982
 2607DOPE   D2B30590  31.891   8.575  14.831 -0.1231 -0.3783  0.0951
 2607DOPE   C3B30591  31.669   8.368  14.484  0.2271 -0.2367  0.0581
 2607DOPE   C4B30592  31.622   8.179  14.042 -0.1616 -0.3233 -0.2856
 2608DOPC   NC330593  24.868   5.707  16.302 -0.0843  0.0099 -0.3129
 2608DOPC   PO430594  24.835   5.964  16.571 -0.1983 -0.3234 -0.0379
 2608DOPC   GL130595  24.851   6.134  16.173 -0.0026 -0.1919 -0.0476
 2608DOPC   GL230596  25.038   6.344  16.216 -0.0965 -0.2363 -0.1306
 2608DOPC   C1A30597  24.792   5.928  15.711 -0.1333 -0.0245  0.0645
 2608DOPC   D2A30598  24.607   5.729  15.378 -0.4430 -0.0981 -0.1291
 2608DOPC   C3A30599  24.292   5.972  15.104  0.1289 -0.1799 -0.0201
 2608DOPC   C4A30600  24.361   6.213  14.723  0.2936 -0.0867  0.0992
 2608DOPC   C1B30601  25.116   6.249  15.780  0.0171  0.3494  0.0772
 2608DOPC   D2B30602  25.157   6.019  15.388 -0.0385 -0.0943 -0.0436
 2608DOPC   C3B30603  25.055   5.540  15.327 -0.0895 -0.0402 -0.1202
 2608DOPC   C4B30604  25.199   5.116  15.504  0.0572  0.2853 -0.0912
 2609DOPS   CNO30605  22.456   2.871  15.938 -0.1678 -0.0082  0.2293
 2609DOPS   PO430606  22.739   2.918  15.665  0.4426 -0.0381  0.0774
 2609DOPS   GL130607  22.696   2.930  15.270  0.0003 -0.2367 -0.1527
 2609DOPS   GL230608  22.514   2.758  15.123  0.0542  0.4029  0.0537
 2609DOPS   C1A30609  22.891   2.844  14.851  0.2194  0.0171  0.0431
 2609DOPS   D2A30610  22.840   3.013  14.448 -0.0420  0.0120 -0.0551
 2609DOPS   C3A30611  22.932   3.361  14.199 -0.0072 -0.1862 -0.3528
 2609DOPS   C4A30612  23.358   3.549  14.119  0.1270  0.2244  0.3609
 2609DOPS   C1B30613  22.371   2.717  14.717  0.1167  0.3419 -0.0015
 2609DOPS   D2B30614  22.021   2.601  14.472  0.0241  0.2138  0.1321
 2609DOPS   C3B30615  21.925   2.729  14.035  0.2063  0.0314  0.0264
 2609DOPS   C4B30616  22.122   2.991  13.712 -0.0671 -0.0805  0.2811
 2610DOPC   NC330617  26.457   2.702  15.907 -0.0007  0.1494 -0.0903
 2610DOPC   PO430618  26.821   2.597  15.900 -0.2962 -0.1329 -0.1964
 2610DOPC   GL130619  26.927   2.568  15.545  0.1562 -0.1384 -0.0326
 2610DOPC   GL230620  27.227   2.711  15.510 -0.1477 -0.0281 -0.0584
 2610DOPC   C1A30621  26.762   2.543  15.114 -0.0891 -0.0775  0.3623
 2610DOPC   D2A30622  26.302   2.587  15.009  0.0227  0.1579 -0.2612
 2610DOPC   C3A30623  26.186   2.456  14.547  0.0135 -0.1680  0.0457
 2610DOPC   C4A30624  26.242   2.623  14.060 -0.0885  0.3216  0.0414
 2610DOPC   C1B30625  27.565   2.615  15.253  0.4869  0.0638  0.1838
 2610DOPC   D2B30626  27.654   2.744  14.855  0.0048  0.0281  0.0885
 2610DOPC   C3B30627  27.486   2.924  14.462 -0.4348  0.2193 -0.1089
 2610DOPC   C4B30628  27.566   2.845  13.991 -0.3490  0.1490  0.1435
 2611DOPE   NH330629  34.113   8.718  15.807  0.3306 -0.3239  0.0726
 2611DOPE   PO430630  33.807   8.723  15.790 -0.2923 -0.1403  0.1815
 2611DOPE   GL130631  33.713   8.733  15.405 -0.1080 -0.2978 -0.2944
 2611DOPE   GL230632  33.941   8.704  15.228  0.1829  0.0675  0.0954
 2611DOPE   C1A30633  33.336   8.598  15.191  0.2805 -0.1474  0.1335
 2611DOPE   D2A30634  32.976   8.876  14.987  0.0214 -0.1410 -0.0125
 2611DOPE   C3A30635  32.604   9.168  14.896  0.0797  0.0102  0.2224
 2611DOPE   C4A30636  32.405   9.481  14.649  0.0959 -0.1181  0.0637
 2611DOPE   C1B30637  33.589   8.863  14.892 -0.3145  0.2419 -0.0507
 2611DOPE   D2B30638  33.431   8.630  14.505  0.0919  0.2013  0.0223
 2611DOPE   C3B30639  33.080   8.888  14.518  0.4159  0.1088  0.2097
 2611DOPE   C4B30640  32.770   9.255  14.376  0.1213 -0.0857 -0.0742
 2612POSM   NC330641  30.047   9.050  16.056 -0.0959 -0.3863 -0.1129
 2612POSM   PO430642  30.055   9.049  16.481  0.0575  0.0032 -0.2319
 2612POSM   AM130643  30.069   8.687  16.399 -0.0724 -0.4180 -0.1490
 2612POSM   AM230644  30.157   8.549  16.160 -0.0691  0.1166 -0.1625
 2612POSM   T1A30645  29.825   8.225  16.378 -0.2101  0.0523 -0.0776
 2612POSM   C2A30646  29.584   7.857  16.350  0.0742  0.1913 -0.0332
 2612POSM   C3A30647  29.252   7.488  16.397 -0.1843 -0.1463  0.0065
 2612POSM   C1B30648  30.033   8.476  15.827 -0.0863  0.1309  0.0997
 2612POSM   D2B30649  29.809   8.747  15.503 -0.1540 -0.1252 -0.1351
 2612POSM   C3B30650  29.907   9.178  15.440 -0.0424 -0.1449  0.0189
 2612POSM   C4B30651  29.840   9.632  15.274 -0.1406  0.5295  0.2093
 2613DOPE   NH330652  28.696   9.789  16.005  0.2049 -0.1696  0.0046
 2613DOPE   PO430653  28.423   9.651  15.913  0.0113  0.0279 -0.0021
 2613DOPE   GL130654  28.337   9.508  15.593 -0.0924  0.5573 -0.2620
 2613DOPE   GL230655  28.251   9.236  15.722 -0.1633  0.2734 -0.1439
 2613DOPE   C1A30656  28.085   9.325  15.234  0.1758  0.0696  0.0976
 2613DOPE   D2A30657  28.211   9.112  14.825  0.0751  0.1526 -0.1202
 2613DOPE   C3A30658  28.569   8.892  14.649  0.0594 -0.0020  0.0578
 2613DOPE   C4A30659  28.810   8.706  14.303 -0.0757 -0.3374 -0.1164
 2613DOPE   C1B30660  28.322   8.911  15.382 -0.1043 -0.3053 -0.3290
 2613DOPE   D2B30661  28.013   8.729  15.013 -0.2862  0.0463  0.5937
 2613DOPE   C3B30662  27.951   8.818  14.557  0.0671 -0.0712 -0.2601
 2613DOPE   C4B30663  28.260   8.896  14.270 -0.0645  0.0328 -0.3073
 2614POSM   NC330664  30.937   8.915  16.047 -0.0121  0.0000 -0.1664
 2614POSM   PO430665  30.780   9.184  16.294  0.2737 -0.0033 -0.0038
 2614POSM   AM130666  30.517   9.174  16.066 -0.3377  0.4822 -0.0595
 2614POSM   AM230667  30.516   9.304  15.835  0.0538  0.0250 -0.0574
 2614POSM   T1A30668  30.318   8.845  15.702  0.2363 -0.0180  0.1543
 2614POSM   C2A30669  30.271   8.919  15.257  0.1182 -0.1488 -0.1631
 2614POSM   C3A30670  30.098   9.170  14.925 -0.1438 -0.1015 -0.0096
 2614POSM   C1B30671  30.753   9.202  15.648  0.1643  0.0766  0.1263
 2614POSM   D2B30672  31.101   9.073  15.369 -0.0117 -0.0471 -0.1807
 2614POSM   C3B30673  31.089   8.932  14.898  0.3049  0.0411  0.0075
 2614POSM   C4B30674  31.398   8.746  14.658 -0.3169 -0.1461 -0.0366
 2615DOPC   NC330675  31.213   5.089  15.497  0.0511 -0.3218  0.2448
 2615DOPC   PO430676  31.207   4.871  15.850 -0.0136 -0.1492 -0.2764
 2615DOPC   GL130677  31.213   4.506  15.593 -0.0036  0.1586 -0.1279
 2615DOPC   GL230678  31.146   4.254  15.679  0.1180  0.4589  0.2361
 2615DOPC   C1A30679  31.418   4.308  15.216  0.1141 -0.1751 -0.1949
 2615DOPC   D2A30680  31.607   4.272  14.812 -0.1094 -0.1708 -0.0687
 2615DOPC   C3A30681  31.520   4.540  14.438  0.0324  0.4384 -0.2503
 2615DOPC   C4A30682  31.438   4.474  13.974 -0.1382 -0.1376  0.3177
 2615DOPC   C1B30683  30.867   4.239  15.328  0.0409  0.1198 -0.0701
 2615DOPC   D2B30684  30.668   4.404  14.951  0.1781  0.1353 -0.0539
 2615DOPC   C3B30685  30.764   4.604  14.515  0.1316  0.0398  0.4410
 2615DOPC   C4B30686  31.051   4.779  14.203  0.1927 -0.1766  0.1721
 2616DOPE   NH330687  30.710  10.362  16.715  0.0313 -0.3085 -0.0917
 2616DOPE   PO430688  30.853  10.534  16.452 -0.0840 -0.0699 -0.0406
 2616DOPE   GL130689  30.544  10.356  16.177 -0.1867 -0.3395 -0.2239
 2616DOPE   GL230690  30.718  10.409  15.928  0.1384 -0.0803  0.1618
 2616DOPE   C1A30691  30.250  10.537  15.855  0.1524 -0.0989 -0.0724
 2616DOPE   D2A30692  29.909  10.742  15.591  0.2290  0.1740  0.0717
 2616DOPE   C3A30693  29.904  11.012  15.194 -0.1336 -0.1740 -0.0050
 2616DOPE   C4A30694  29.931  11.128  14.737 -0.0335  0.1604  0.1255
 2616DOPE   C1B30695  30.680  10.790  15.648 -0.0708 -0.0741  0.1710
 2616DOPE   D2B30696  30.337  10.973  15.397 -0.0026 -0.1741  0.0110
 2616DOPE   C3B30697  30.504  11.236  14.981  0.4360  0.2639  0.0067
 2616DOPE   C4B30698  30.712  11.570  14.792 -0.0457 -0.0312  0.0950
 2617POSM   NC330699  29.990   1.015  16.016 -0.0082  0.3025  0.1514
 2617POSM   PO430700  30.341   0.924  16.119  0.2768  0.1402  0.0381
 2617POSM   AM130701  30.471   0.936  15.853  0.3221  0.2281 -0.0353
 2617POSM   AM230702  30.347   1.062  15.628  0.1451  0.1151 -0.0919
 2617POSM   T1A30703  30.596   0.751  15.382  0.1498  0.3554 -0.1212
 2617POSM   C2A30704  30.832   0.675  14.988 -0.0873  0.3705  0.1181
 2617POSM   C3A30705  31.192   0.659  14.681  0.0062 -0.0986 -0.2106
 2617POSM   C1B30706  30.220   1.099  15.345  0.2634  0.0038  0.1878
 2617POSM   D2B30707  29.972   1.202  14.984  0.0214 -0.0380  0.1201
 2617POSM   C3B30708  30.128   1.407  14.617 -0.1116 -0.1389  0.2628
 2617POSM   C4B30709  30.220   1.449  14.192  0.5140 -0.2795 -0.1512
 2618DOPE   NH330710  33.254  10.301  16.257  0.1684 -0.1249 -0.1686
 2618DOPE   PO430711  33.161  10.491  15.988  0.0548  0.2663  0.2229
 2618DOPE   GL130712  32.958  10.185  15.776 -0.4868  0.0037  0.0465
 2618DOPE   GL230713  33.143  10.127  15.526  0.1734 -0.0158  0.0780
 2618DOPE   C1A30714  32.605  10.173  15.491 -0.0757  0.0856 -0.1376
 2618DOPE   D2A30715  32.251   9.891  15.387 -0.4114 -0.1612 -0.3743
 2618DOPE   C3A30716  32.251   9.882  14.891  0.0626  0.1131  0.0514
 2618DOPE   C4A30717  32.005   9.984  14.550 -0.2443  0.0646  0.0003
 2618DOPE   C1B30718  33.035  10.173  15.145  0.0487 -0.0442  0.0350
 2618DOPE   D2B30719  32.701   9.985  14.973  0.2590 -0.0236 -0.0404
 2618DOPE   C3B30720  32.498  10.403  15.033 -0.0198 -0.0799  0.0597
 2618DOPE   C4B30721  32.406  10.568  14.626 -0.1124  0.0328  0.3591
 2619DOPE   NH330722  23.413   3.596  15.879 -0.4078 -0.0632  0.3808
 2619DOPE   PO430723  23.502   3.681  15.578 -0.1428  0.2068  0.0708
 2619DOPE   GL130724  23.628   3.984  15.412  0.0287 -0.5670 -0.1773
 2619DOPE   GL230725  23.937   3.883  15.362  0.0809  0.0682  0.1087
 2619DOPE   C1A30726  23.689   4.055  14.966  0.2117  0.1138 -0.0394
 2619DOPE   D2A30727  23.585   4.248  14.555 -0.1160  0.1186  0.2294
 2619DOPE   C3A30728  23.506   4.048  14.105 -0.1090 -0.2668 -0.0028
 2619DOPE   C4A30729  23.259   3.922  13.751 -0.0301 -0.0355  0.0031
 2619DOPE   C1B30730  23.904   3.631  15.009  0.1102 -0.2316 -0.0485
 2619DOPE   D2B30731  24.151   3.370  14.771 -0.0325  0.0972 -0.2409
 2619DOPE   C3B30732  24.318   3.754  14.550 -0.0017 -0.2614  0.4013
 2619DOPE   C4B30733  24.566   3.704  14.155  0.3540 -0.3878  0.1990
 2620DOPE   NH330734  31.817   6.099  16.500  0.1516  0.0389  0.0311
 2620DOPE   PO430735  31.954   6.373  16.507 -0.0640 -0.0986 -0.1456
 2620DOPE   GL130736  31.829   6.396  16.138 -0.1739 -0.6150 -0.1125
 2620DOPE   GL230737  31.818   6.204  15.963  0.5889  0.0853  0.1352
 2620DOPE   C1A30738  31.567   6.619  15.784 -0.0922  0.1766  0.1797
 2620DOPE   D2A30739  31.459   6.422  15.394 -0.1568  0.0906  0.0242
 2620DOPE   C3A30740  31.615   6.791  15.226  0.0866 -0.1933  0.2383
 2620DOPE   C4A30741  31.685   7.024  14.778 -0.2569  0.2163 -0.1500
 2620DOPE   C1B30742  32.009   6.328  15.507  0.6444 -0.1800  0.1146
 2620DOPE   D2B30743  31.866   6.289  15.070 -0.1068 -0.0387  0.1365
 2620DOPE   C3B30744  31.588   6.478  14.692 -0.0724 -0.1039 -0.2028
 2620DOPE   C4B30745  31.550   6.625  14.247  0.0875 -0.0271  0.2492
 2621DOPE   NH330746  24.440   1.816  15.544 -0.1970  0.1254 -0.1309
 2621DOPE   PO430747  24.174   1.675  15.545  0.2231  0.5201  0.0369
 2621DOPE   GL130748  24.180   1.455  15.269  0.0416  0.0024  0.3847
 2621DOPE   GL230749  24.172   1.537  14.944  0.2078 -0.1979 -0.1845
 2621DOPE   C1A30750  24.070   0.973  15.226  0.4316  0.1167 -0.0990
 2621DOPE   D2A30751  24.012   0.525  15.016 -0.1774  0.5008  0.2322
 2621DOPE   C3A30752  24.237   0.075  15.062 -0.2642  0.0911 -0.1750
 2621DOPE   C4A30753  24.202  -0.205  15.400  0.3483 -0.3497 -0.3624
 2621DOPE   C1B30754  24.467   1.197  15.126  0.2039  0.0774 -0.1107
 2621DOPE   D2B30755  24.837   0.980  15.205  0.0419  0.0896 -0.2203
 2621DOPE   C3B30756  25.006   0.634  14.916  0.2696 -0.2909  0.0035
 2621DOPE   C4B30757  25.044   0.506  14.461  0.0144  0.0094  0.1474
 2622POSM   NC330758  33.174   2.455  15.905 -0.1709 -0.0613  0.2526
 2622POSM   PO430759  32.980   2.766  15.728 -0.2778 -0.3457 -0.0786
 2622POSM   AM130760  32.930   2.686  15.430 -0.0179  0.2550  0.0098
 2622POSM   AM230761  32.826   2.443  15.303 -0.1822  0.0548  0.0558
 2622POSM   T1A30762  32.815   2.806  14.960  0.1654 -0.1759 -0.1904
 2622POSM   C2A30763  32.517   2.711  14.630 -0.3103 -0.1917  0.0119
 2622POSM   C3A30764  32.673   2.942  14.280 -0.0461 -0.0555 -0.0238
 2622POSM   C1B30765  32.587   2.326  15.065  0.3074 -0.2042 -0.0796
 2622POSM   D2B30766  32.412   2.230  14.637  0.2800 -0.2171 -0.2540
 2622POSM   C3B30767  32.413   2.096  14.193  0.0814  0.0527 -0.0167
 2622POSM   C4B30768  32.794   2.009  13.913  0.0138 -0.0473  0.1078
 2623DOPE   NH330769  32.127   8.663  16.267 -0.1089  0.2115 -0.1800
 2623DOPE   PO430770  32.331   8.655  16.038 -0.3238 -0.0906 -0.0174
 2623DOPE   GL130771  32.097   8.486  15.713 -0.3310  0.0114  0.3834
 2623DOPE   GL230772  31.849   8.454  15.627  0.0984 -0.0519 -0.0714
 2623DOPE   C1A30773  32.000   8.025  15.811  0.1909 -0.0388  0.2761
 2623DOPE   D2A30774  31.772   7.558  15.750 -0.2123 -0.0402  0.0864
 2623DOPE   C3A30775  31.509   7.271  16.012  0.2297  0.2409 -0.0686
 2623DOPE   C4A30776  31.110   7.095  15.957 -0.0812  0.2865  0.0416
 2623DOPE   C1B30777  32.166   8.378  15.263 -0.1011 -0.0590  0.2200
 2623DOPE   D2B30778  32.460   8.135  14.937  0.0128 -0.1369  0.0396
 2623DOPE   C3B30779  32.588   8.184  14.504 -0.0403  0.2370  0.0254
 2623DOPE   C4B30780  32.553   8.283  14.009 -0.1509 -0.3168 -0.0103
 2624DOPE   NH330781  32.841  10.815  16.212  0.1789 -0.0581 -0.0099
 2624DOPE   PO430782  32.529  10.858  16.155 -0.2199 -0.0565  0.0462
 2624DOPE   GL130783  32.496  11.028  15.813  0.1783  0.0860 -0.2148
 2624DOPE   GL230784  32.340  11.286  15.828 -0.1131 -0.1185 -0.2014
 2624DOPE   C1A30785  32.162  10.932  15.474 -0.1051  0.0549  0.0299
 2624DOPE   D2A30786  32.051  10.741  15.070 -0.1119 -0.1082 -0.1805
 2624DOPE   C3A30787  31.586  10.748  14.971 -0.3429 -0.0711  0.0244
 2624DOPE   C4A30788  31.145  10.827  14.866  0.0934 -0.3048 -0.2574
 2624DOPE   C1B30789  32.495  11.283  15.462  0.1926 -0.0636  0.1088
 2624DOPE   D2B30790  32.942  11.148  15.315 -0.1492 -0.0950  0.0877
 2624DOPE   C3B30791  33.136  11.238  14.927  0.1980 -0.1782  0.2310
 2624DOPE   C4B30792  33.314  11.227  14.485  0.4972  0.0294  0.2633
 2625POSM   NC330793  31.311   3.948  16.059  0.0496  0.1601  0.4630
 2625POSM   PO430794  31.692   3.927  16.065 -0.0359 -0.1574 -0.0326
 2625POSM   AM130795  31.614   4.007  15.724  0.1322 -0.0525  0.3071
 2625POSM   AM230796  31.466   3.836  15.606  0.1148 -0.2454  0.2355
 2625POSM   T1A30797  31.737   3.909  15.242 -0.2575  0.2553  0.3033
 2625POSM   C2A30798  32.082   3.986  14.951  0.0015  0.2009 -0.4487
 2625POSM   C3A30799  32.343   3.863  14.589  0.1025 -0.1132 -0.0457
 2625POSM   C1B30800  31.247   3.852  15.323 -0.3364 -0.5560  0.2331
 2625POSM   D2B30801  31.221   3.951  14.913 -0.0459  0.2214  0.0169
 2625POSM   C3B30802  30.757   3.974  14.693 -0.1968 -0.0791 -0.0719
 2625POSM   C4B30803  30.672   3.959  14.219  0.2004 -0.1555 -0.0508
 2626DOPC   NC330804  26.391   7.755  16.285 -0.2028 -0.0181 -0.3037
 2626DOPC   PO430805  26.020   7.723  16.309  0.1980 -0.2756 -0.1817
 2626DOPC   GL130806  26.027   7.783  15.964 -0.2648  0.1517  0.2907
 2626DOPC   GL230807  26.333   7.875  15.816  0.0381  0.1091 -0.0144
 2626DOPC   C1A30808  25.910   7.828  15.517  0.0303 -0.4123  0.0255
 2626DOPC   D2A30809  26.202   7.573  15.294  0.0846  0.0314  0.3694
 2626DOPC   C3A30810  26.277   7.547  14.810 -0.2624 -0.2167 -0.1281
 2626DOPC   C4A30811  26.542   7.519  14.458 -0.4687 -0.1462 -0.0923
 2626DOPC   C1B30812  26.460   8.097  15.416 -0.0502  0.0225 -0.3693
 2626DOPC   D2B30813  26.289   7.940  15.025 -0.1710 -0.1609  0.1021
 2626DOPC   C3B30814  25.885   8.000  14.837 -0.1803  0.0259 -0.0011
 2626DOPC   C4B30815  25.635   8.281  14.542 -0.0288  0.2266  0.4432
 2627DOPE   NH330816  24.408   2.487  15.876 -0.0764 -0.1588  0.1693
 2627DOPE   PO430817  24.429   2.232  15.727  0.0076  0.0105 -0.0418
 2627DOPE   GL130818  24.699   2.220  15.360 -0.2138 -0.1789 -0.0730
 2627DOPE   GL230819  24.732   2.524  15.372 -0.1267 -0.2156 -0.2112
 2627DOPE   C1A30820  24.614   2.284  14.922 -0.4758 -0.0527 -0.2348
 2627DOPE   D2A30821  24.658   2.188  14.499  0.0252 -0.0926 -0.0768
 2627DOPE   C3A30822  24.692   2.017  14.077 -0.1366  0.2079 -0.1574
 2627DOPE   C4A30823  24.865   2.158  13.668  0.2654 -0.3068  0.1300
 2627DOPE   C1B30824  24.832   2.857  14.992 -0.1152  0.1134 -0.1121
 2627DOPE   D2B30825  25.206   3.071  14.757 -0.1137  0.3113  0.0512
 2627DOPE   C3B30826  25.421   2.887  14.420  0.2972 -0.0583  0.0068
 2627DOPE   C4B30827  25.584   2.829  13.965  0.0500 -0.1073  0.0972
 2628DOPC   NC330828  34.235   6.130  15.775  0.2614  0.2330 -0.2652
 2628DOPC   PO430829  34.161   5.789  15.991 -0.1565 -0.1739 -0.3082
 2628DOPC   GL130830  34.032   5.660  15.678  0.1062  0.1273  0.3064
 2628DOPC   GL230831  34.089   5.693  15.443 -0.0366  0.1282  0.1664
 2628DOPC   C1A30832  33.621   5.754  15.430 -0.1048  0.2179  0.1873
 2628DOPC   D2A30833  33.418   5.699  14.978 -0.0012  0.1091  0.2614
 2628DOPC   C3A30834  33.617   5.847  14.571  0.0234  0.4221  0.0207
 2628DOPC   C4A30835  33.575   6.151  14.251 -0.1445 -0.1328  0.0245
 2628DOPC   C1B30836  33.897   5.291  15.266 -0.2188  0.3277 -0.0621
 2628DOPC   D2B30837  33.687   5.234  14.902 -0.1636  0.3249 -0.0133
 2628DOPC   C3B30838  33.944   5.328  14.579 -0.2578  0.1478 -0.1714
 2628DOPC   C4B30839  34.257   5.484  14.287 -0.3725  0.2963 -0.0548
 2629POSM   NC330840  23.909   0.418  16.128 -0.6179 -0.1677 -0.0002
 2629POSM   PO430841  23.991   0.042  16.056 -0.0034 -0.0195 -0.0603
 2629POSM   AM130842  24.053   0.216  15.758 -0.0509 -0.1022 -0.1525
 2629POSM   AM230843  23.899   0.185  15.548  0.2593  0.1191 -0.0522
 2629POSM   T1A30844  24.408   0.330  15.499  0.0656 -0.0886  0.0217
 2629POSM   C2A30845  24.532   0.615  15.113  0.3175  0.0664 -0.0154
 2629POSM   C3A30846  24.504   0.611  14.616  0.4165 -0.0801  0.3005
 2629POSM   C1B30847  23.789   0.127  15.241 -0.1615 -0.2999 -0.1159
 2629POSM   D2B30848  23.759   0.132  14.768  0.0679  0.1796  0.0519
 2629POSM   C3B30849  24.076   0.086  14.534 -0.0892 -0.1914 -0.0675
 2629POSM   C4B30850  24.510   0.073  14.338 -0.1103  0.2127 -0.1948
 2630DOPE   NH330851  31.790   2.514  16.043  0.2199  0.0506  0.1089
 2630DOPE   PO430852  31.897   2.656  15.754  0.1711 -0.0257  0.1473
 2630DOPE   GL130853  31.758   2.778  15.405 -0.2252 -0.0312 -0.3734
 2630DOPE   GL230854  32.015   2.743  15.247  0.1302 -0.1238 -0.1930
 2630DOPE   C1A30855  31.394   2.933  15.220  0.1749 -0.0257  0.0185
 2630DOPE   D2A30856  30.992   3.001  15.301 -0.2291  0.0688 -0.1497
 2630DOPE   C3A30857  30.878   2.862  14.870  0.2136 -0.1217  0.2311
 2630DOPE   C4A30858  30.872   3.121  14.521  0.0762 -0.2500  0.1573
 2630DOPE   C1B30859  31.815   3.056  15.016  0.0755  0.1689  0.1881
 2630DOPE   D2B30860  31.951   3.493  14.958 -0.1345 -0.0890  0.1907
 2630DOPE   C3B30861  31.631   3.740  14.690  0.0181  0.3529  0.0489
 2630DOPE   C4B30862  31.501   3.710  14.236 -0.0221 -0.0391 -0.0490
 2631DOPE   NH330863  32.858   3.951  16.046 -0.4511  0.0596 -0.0685
 2631DOPE   PO430864  32.711   3.935  15.751  0.1674  0.1463 -0.1476
 2631DOPE   GL130865  32.797   4.132  15.392  0.0509  0.0532  0.1431
 2631DOPE   GL230866  32.945   3.883  15.239  0.0122  0.0807 -0.1021
 2631DOPE   C1A30867  33.193   4.320  15.171  0.1241 -0.1054 -0.4126
 2631DOPE   D2A30868  33.592   4.327  15.376 -0.0155 -0.0456 -0.0972
 2631DOPE   C3A30869  33.911   4.317  15.067  0.0118  0.0353 -0.0976
 2631DOPE   C4A30870  33.892   4.317  14.628  0.2356 -0.1663  0.0224
 2631DOPE   C1B30871  32.979   3.936  14.813 -0.0716  0.3469  0.0618
 2631DOPE   D2B30872  32.803   3.950  14.384 -0.0352 -0.0879 -0.0571
 2631DOPE   C3B30873  33.026   4.259  14.161  0.2112  0.0028  0.2892
 2631DOPE   C4B30874  33.120   4.446  13.767 -0.0209  0.1348  0.3937
 2632POSM   NC330875  26.165   1.191  15.827  0.1402 -0.1110 -0.0259
 2632POSM   PO430876  26.400   1.472  16.023  0.1105 -0.2456 -0.3452
 2632POSM   AM130877  26.493   1.524  15.716  0.0762  0.1753  0.2214
 2632POSM   AM230878  26.712   1.667  15.564 -0.0043 -0.1619 -0.0541
 2632POSM   T1A30879  26.427   1.541  15.203  0.4378  0.0163  0.0551
 2632POSM   C2A30880  26.382   1.860  14.803 -0.0992 -0.2585  0.1454
 2632POSM   C3A30881  26.641   2.073  14.528 -0.1697 -0.1021 -0.1232
 2632POSM   C1B30882  26.903   1.564  15.271 -0.0140 -0.2439 -0.4992
 2632POSM   D2B30883  27.045   1.318  14.964  0.0527 -0.2019 -0.1878
 2632POSM   C3B30884  27.095   0.894  14.894 -0.1194 -0.3033  0.4887
 2632POSM   C4B30885  27.303   0.711  14.492  0.0873  0.0667  0.0644
 2633DOPS   CNO30886  30.398   2.109  16.069 -0.0035 -0.1090 -0.4700
 2633DOPS   PO430887  30.778   2.049  16.082 -0.1613 -0.0561 -0.0867
 2633DOPS   GL130888  30.861   2.119  15.726  0.2396  0.0577  0.4635
 2633DOPS   GL230889  30.798   2.392  15.731 -0.1034 -0.0742  0.0796
 2633DOPS   C1A30890  30.785   2.096  15.284  0.1201  0.1404  0.1966
 2633DOPS   D2A30891  30.667   2.012  14.821  0.0193 -0.0222  0.2805
 2633DOPS   C3A30892  30.679   2.379  14.547  0.2059  0.1301  0.1397
 2633DOPS   C4A30893  30.859   2.497  14.130  0.1656 -0.3498  0.2145
 2633DOPS   C1B30894  30.601   2.580  15.362 -0.0238  0.0530  0.2033
 2633DOPS   D2B30895  30.438   2.544  14.922 -0.1424  0.0475  0.0603
 2633DOPS   C3B30896  30.156   2.427  14.571  0.2740 -0.1192  0.4668
 2633DOPS   C4B30897  29.708   2.414  14.514 -0.2045 -0.0579  0.1650
 2634DOPC   NC330898  26.459  10.989  16.017  0.1345  0.1349  0.1155
 2634DOPC   PO430899  26.486  10.594  16.024  0.0263  0.0854  0.0198
 2634DOPC   GL130900  26.535  10.518  15.651  0.0518 -0.2164  0.4664
 2634DOPC   GL230901  26.345  10.429  15.520 -0.0541 -0.0142  0.1782
 2634DOPC   C1A30902  26.726  10.242  15.317  0.1063 -0.0445  0.0965
 2634DOPC   D2A30903  26.642  10.092  14.889  0.3881  0.2574  0.2986
 2634DOPC   C3A30904  27.025   9.964  14.542 -0.0913 -0.0152 -0.1665
 2634DOPC   C4A30905  27.111   9.630  14.212 -0.0845  0.0595  0.0660
 2634DOPC   C1B30906  26.346  10.526  15.050 -0.1481 -0.1283 -0.0010
 2634DOPC   D2B30907  26.390  10.888  14.784 -0.2345 -0.1152  0.1225
 2634DOPC   C3B30908  26.763  10.944  14.441  0.3097  0.0397 -0.1113
 2634DOPC   C4B30909  27.073  10.931  14.076  0.1774  0.0455  0.2246
 2635POSM   NC330910  28.633   5.910  15.921  0.1130 -0.1526 -0.1141
 2635POSM   PO430911  28.553   5.553  15.900  0.2733 -0.2059 -0.0574
 2635POSM   AM130912  28.527   5.615  15.584 -0.0190 -0.2002 -0.0941
 2635POSM   AM230913  28.687   5.809  15.436 -0.2141 -0.0776 -0.2111
 2635POSM   T1A30914  28.522   5.489  15.060 -0.0365 -0.4672 -0.1237
 2635POSM   C2A30915  28.705   5.461  14.620  0.0329 -0.0450 -0.2267
 2635POSM   C3A30916  28.943   5.702  14.285 -0.0856  0.0382 -0.1462
 2635POSM   C1B30917  28.558   5.977  15.173  0.2314 -0.1516  0.0639
 2635POSM   D2B30918  28.551   6.170  14.757 -0.2848  0.1947 -0.2247
 2635POSM   C3B30919  28.550   5.955  14.360  0.0800 -0.0345 -0.0646
 2635POSM   C4B30920  28.533   5.727  13.928 -0.2129 -0.1384 -0.1868
 2636DOPE   NH330921  29.830   2.523  16.512  0.3801  0.0449  0.1521
 2636DOPE   PO430922  29.867   2.201  16.513 -0.1407 -0.0273 -0.3992
 2636DOPE   GL130923  29.730   2.067  16.156 -0.1527  0.0726 -0.0006
 2636DOPE   GL230924  29.809   2.339  16.049  0.0205  0.0990 -0.1301
 2636DOPE   C1A30925  29.933   1.907  15.767  0.1991  0.0846  0.1453
 2636DOPE   D2A30926  30.304   1.980  15.543 -0.0388  0.2866 -0.1650
 2636DOPE   C3A30927  30.203   2.166  15.117  0.0540  0.1783 -0.1202
 2636DOPE   C4A30928  29.777   2.170  14.972  0.1215  0.0857  0.0557
 2636DOPE   C1B30929  29.432   2.206  15.855  0.2233 -0.0810  0.2001
 2636DOPE   D2B30930  29.138   2.247  15.454 -0.3325  0.1394 -0.2653
 2636DOPE   C3B30931  28.875   1.967  15.116  0.0063  0.0802 -0.0273
 2636DOPE   C4B30932  29.030   1.821  14.740 -0.1098  0.4097  0.1927
 2637DOPS   CNO30933  28.593  34.322  16.335 -0.1566  0.2790 -0.0901
 2637DOPS   PO430934  28.448  34.606  16.478 -0.0604 -0.3148  0.1717
 2637DOPS   GL130935  28.554  34.880  16.135 -0.3417 -0.0943  0.0961
 2637DOPS   GL230936  28.649  35.118  16.287 -0.5496 -0.3262 -0.1679
 2637DOPS   C1A30937  28.827  34.787  15.800 -0.0159 -0.1577  0.2023
 2637DOPS   D2A30938  28.750  35.033  15.444  0.0919  0.0415 -0.0509
 2637DOPS   C3A30939  28.618  34.989  14.979  0.0622 -0.0102  0.0680
 2637DOPS   C4A30940  28.441  35.195  14.616 -0.0902 -0.0208  0.1640
 2637DOPS   C1B30941  28.460  35.344  15.974  0.0520 -0.1570 -0.2359
 2637DOPS   D2B30942  28.357  35.657  15.623  0.1492 -0.5703 -0.2747
 2637DOPS   C3B30943  28.552  35.887  15.287 -0.0138 -0.2643  0.0335
 2637DOPS   C4B30944  28.662  36.176  14.849  0.0855  0.0616  0.0959
 2638DOPS   CNO30945  28.796   9.567  16.493  0.0511 -0.0043  0.0293
 2638DOPS   PO430946  29.144   9.701  16.400 -0.2040 -0.1155  0.1111
 2638DOPS   GL130947  29.262   9.815  16.067 -0.2076 -0.0540 -0.5404
 2638DOPS   GL230948  29.434   9.999  15.992 -0.2776  0.0303  0.0997
 2638DOPS   C1A30949  29.096   9.907  15.620  0.2053 -0.3473  0.0455
 2638DOPS   D2A30950  29.028  10.232  15.295 -0.1016 -0.2663  0.3931
 2638DOPS   C3A30951  29.109  10.079  14.849 -0.3130 -0.1278 -0.0335
 2638DOPS   C4A30952  29.172  10.091  14.414  0.4794  0.2114  0.0714
 2638DOPS   C1B30953  29.494   9.603  15.732 -0.1646 -0.2020 -0.1891
 2638DOPS   D2B30954  29.364   9.457  15.307  0.0305 -0.0494  0.2744
 2638DOPS   C3B30955  29.513   9.161  14.985 -0.1214  0.1689 -0.0911
 2638DOPS   C4B30956  29.419   9.083  14.547  0.1514 -0.2249 -0.1269
 2639DOPE   NH330957   0.152   1.041  16.059  0.2256  0.2791 -0.3112
 2639DOPE   PO430958   0.265   0.751  16.063 -0.0876 -0.1068 -0.0342
 2639DOPE   GL130959   0.276   0.635  15.723 -0.0901 -0.4758 -0.1695
 2639DOPE   GL230960   0.379   0.430  15.640 -0.0667 -0.2519 -0.1070
 2639DOPE   C1A30961   0.476   0.807  15.313 -0.0430  0.2394 -0.1421
 2639DOPE   D2A30962   0.532   0.774  14.874  0.0820  0.3138  0.2415
 2639DOPE   C3A30963   0.628   1.154  14.566 -0.1916 -0.0367  0.1059
 2639DOPE   C4A30964   0.726   1.223  14.118  0.1259  0.1596 -0.2233
 2639DOPE   C1B30965   0.147   0.471  15.220 -0.1393  0.0826  0.1386
 2639DOPE   D2B30966   0.111   0.440  14.730  0.0414  0.1844  0.0648
 2639DOPE   C3B30967  -0.237   0.155  14.578 -0.0007 -0.0497 -0.3081
 2639DOPE   C4B30968  -0.681   0.086  14.688  0.0459 -0.3728 -0.1668
 2640DOPC   NC330969  29.478   3.315  16.257 -0.1856 -0.0526  0.0563
 2640DOPC   PO430970  29.631   3.078  16.506  0.0600  0.0473 -0.1554
 2640DOPC   GL130971  29.567   2.733  16.203  0.1917 -0.2940  0.1017
 2640DOPC   GL230972  29.269   2.646  16.116  0.2137 -0.1982 -0.0197
 2640DOPC   C1A30973  29.627   2.919  15.773  0.2438  0.0504 -0.0934
 2640DOPC   D2A30974  29.562   2.931  15.345  0.0190  0.0469  0.0481
 2640DOPC   C3A30975  29.382   2.587  15.092  0.3032 -0.1642  0.1724
 2640DOPC   C4A30976  29.297   2.164  14.954  0.2236  0.1684 -0.2125
 2640DOPC   C1B30977  29.249   2.638  15.667 -0.1525  0.1519  0.4135
 2640DOPC   D2B30978  28.888   2.631  15.322 -0.3039 -0.1859  0.3936
 2640DOPC   C3B30979  28.427   2.590  15.303  0.0761  0.1185  0.0564
 2640DOPC   C4B30980  28.101   2.854  15.143 -0.1345  0.0290 -0.4095
 2641DOPS   CNO30981  33.228   6.823  16.800 -0.1425  0.0328  0.2047
 2641DOPS   PO430982  33.477   6.665  16.542  0.1134 -0.1502  0.0820
 2641DOPS   GL130983  33.714   6.859  16.268 -0.1496  0.0030  0.2880
 2641DOPS   GL230984  33.651   7.211  16.201 -0.0160  0.1777 -0.3744
 2641DOPS   C1A30985  33.789   6.820  15.792 -0.3410  0.1524  0.0917
 2641DOPS   D2A30986  33.901   6.453  15.524 -0.2439 -0.0980  0.0927
 2641DOPS   C3A30987  33.842   6.237  15.128  0.0635 -0.1298  0.1483
 2641DOPS   C4A30988  33.895   5.813  15.003 -0.4185 -0.2700  0.5598
 2641DOPS   C1B30989  33.609   7.349  15.762 -0.2043 -0.2170 -0.0753
 2641DOPS   D2B30990  33.490   7.450  15.333 -0.1515 -0.1030  0.3005
 2641DOPS   C3B30991  33.351   7.156  15.040  0.1559 -0.1602  0.2495
 2641DOPS   C4B30992  33.215   6.903  14.651  0.0737 -0.2901  0.0109
 2642DOPE   NH330993  27.485   9.980  16.312  0.0894  0.1282 -0.2286
 2642DOPE   PO430994  27.395   9.713  16.161  0.2231 -0.0685  0.0094
 2642DOPE   GL130995  27.321   9.631  15.750  0.1251  0.7767  0.1408
 2642DOPE   GL230996  27.118   9.792  15.656  0.3480 -0.2122  0.0226
 2642DOPE   C1A30997  27.395   9.505  15.281  0.1102  0.3182 -0.1886
 2642DOPE   D2A30998  27.700   9.489  14.927 -0.0264  0.2301  0.0647
 2642DOPE   C3A30999  27.659   9.686  14.441  0.1793  0.1103 -0.0993
 2642DOPE   C4A31000  27.439  10.014  14.069  0.0984 -0.3971  0.1531
 2642DOPE   C1B31001  26.911   9.716  15.240 -0.0660 -0.0901 -0.2264
 2642DOPE   D2B31002  26.503   9.646  14.981 -0.1397 -0.3446 -0.2055
 2642DOPE   C3B31003  26.299   9.232  15.092 -0.3038  0.1750  0.3698
 2642DOPE   C4B31004  26.068   8.884  14.997 -0.0784 -0.1331 -0.0054
 2643DOPE   NH331005  31.813   7.776  16.255 -0.2706 -0.0718  0.0940
 2643DOPE   PO431006  31.488   7.863  16.262 -0.0197 -0.1821  0.4281
 2643DOPE   GL131007  31.417   7.975  15.801 -0.0766  0.1136  0.1952
 2643DOPE   GL231008  31.091   7.806  15.848  0.0881  0.3180  0.0507
 2643DOPE   C1A31009  31.642   7.944  15.398  0.1290 -0.2831 -0.1378
 2643DOPE   D2A31010  31.994   7.670  15.272  0.0165 -0.0726 -0.1024
 2643DOPE   C3A31011  31.935   7.214  15.309 -0.0699 -0.0582 -0.2977
 2643DOPE   C4A31012  32.080   6.759  15.120 -0.2428 -0.2753  0.0438
 2643DOPE   C1B31013  31.304   7.527  15.545  0.0654  0.1059 -0.0505
 2643DOPE   D2B31014  31.479   7.329  15.146 -0.0230  0.4556  0.3186
 2643DOPE   C3B31015  31.521   7.631  14.877 -0.1716  0.2285  0.0271
 2643DOPE   C4B31016  31.505   7.826  14.505 -0.0814  0.0507  0.0663
 2644DOPE   NH331017  29.820   4.375  16.380 -0.0429  0.0263 -0.2115
 2644DOPE   PO431018  30.073   4.584  16.319  0.3382  0.1104  0.0911
 2644DOPE   GL131019  30.213   4.662  15.948  0.3396 -0.2148 -0.2041
 2644DOPE   GL231020  30.019   4.971  15.887 -0.1432 -0.2789 -0.1353
 2644DOPE   C1A31021  30.273   4.737  15.531  0.2027 -0.1780  0.1323
 2644DOPE   D2A31022  30.106   4.862  15.128  0.1062 -0.1056  0.0989
 2644DOPE   C3A31023  30.057   4.710  14.683 -0.0798  0.0258  0.0490
 2644DOPE   C4A31024  29.987   4.603  14.280 -0.1132  0.0413 -0.1536
 2644DOPE   C1B31025  29.791   5.161  15.549  0.0491  0.0817 -0.0146
 2644DOPE   D2B31026  29.698   5.420  15.181 -0.1845  0.0233 -0.2963
 2644DOPE   C3B31027  29.616   5.174  14.800  0.1404 -0.1100 -0.2700
 2644DOPE   C4B31028  29.547   4.809  14.539  0.1872 -0.1741 -0.1401
 2645DOPC   NC331029  33.678  11.164  16.604  0.3550  0.0994 -0.0271
 2645DOPC   PO431030  33.799  11.246  16.229  0.0195 -0.0487  0.2579
 2645DOPC   GL131031  33.836  11.331  15.889  0.1921  0.0403  0.0285
 2645DOPC   GL231032  33.640  11.313  15.733  0.1009  0.3501  0.1050
 2645DOPC   C1A31033  34.037  11.157  15.525 -0.2198  0.3109  0.1256
 2645DOPC   D2A31034  34.084  10.737  15.336  0.0084 -0.0252  0.0483
 2645DOPC   C3A31035  34.186  10.620  14.888 -0.1721 -0.0598 -0.3034
 2645DOPC   C4A31036  34.521  10.300  14.723 -0.2560  0.0747 -0.1513
 2645DOPC   C1B31037  33.479  11.003  15.371 -0.3323  0.0438  0.1051
 2645DOPC   D2B31038  33.652  10.779  14.987  0.0085 -0.0858 -0.0344
 2645DOPC   C3B31039  33.565  10.413  14.696 -0.0542 -0.0556 -0.0582
 2645DOPC   C4B31040  33.562  10.100  14.392 -0.0751 -0.0356  0.1195
 2646POSM   NC331041  25.301   6.039  16.741  0.3259  0.0206  0.2925
 2646POSM   PO431042  25.297   5.955  16.360  0.3345 -0.2361 -0.0943
 2646POSM   AM131043  25.421   5.864  16.090 -0.1283 -0.1535 -0.1933
 2646POSM   AM231044  25.300   5.677  15.900  0.2698  0.2117  0.1923
 2646POSM   T1A31045  25.689   5.843  15.663  0.0218 -0.0241  0.3193
 2646POSM   C2A31046  25.766   5.976  15.249 -0.1606  0.2976 -0.1198
 2646POSM   C3A31047  26.098   5.956  14.924  0.0607 -0.1267  0.0524
 2646POSM   C1B31048  25.031   5.441  15.864  0.1874 -0.0432  0.1694
 2646POSM   D2B31049  24.660   5.249  15.693 -0.1176  0.0752  0.0620
 2646POSM   C3B31050  24.563   4.920  15.437  0.1257  0.0828 -0.1654
 2646POSM   C4B31051  24.398   4.512  15.367  0.1141 -0.1142  0.1157
 2647POSM   NC331052  23.512   9.739  16.377 -0.1266 -0.0915 -0.2307
 2647POSM   PO431053  23.251   9.853  16.118  0.1607  0.0570 -0.0212
 2647POSM   AM131054  23.104   9.776  15.853 -0.0317 -0.5696  0.0525
 2647POSM   AM231055  23.107   9.553  15.645  0.0890 -0.0224  0.4410
 2647POSM   T1A31056  22.737   9.890  15.482 -0.1541  0.5078 -0.0217
 2647POSM   C2A31057  22.410   9.780  15.158 -0.1866 -0.2126  0.0917
 2647POSM   C3A31058  21.911   9.842  15.164  0.1697  0.1074 -0.1873
 2647POSM   C1B31059  23.337   9.401  15.423 -0.0862  0.0696 -0.0256
 2647POSM   D2B31060  23.450   9.404  15.002  0.0822  0.2094  0.0222
 2647POSM   C3B31061  23.496   9.032  14.712  0.0595  0.0126 -0.1198
 2647POSM   C4B31062  23.345   8.802  14.362  0.2101  0.3220  0.2640
 2648DOPC   NC331063  28.294   4.674  16.077  0.1283  0.1378 -0.0092
 2648DOPC   PO431064  28.509   4.358  16.207 -0.0432 -0.0216 -0.2274
 2648DOPC   GL131065  28.389   4.276  15.809  0.1974 -0.0363 -0.1873
 2648DOPC   GL231066  28.256   4.369  15.532 -0.0136  0.0084  0.3341
 2648DOPC   C1A31067  28.711   4.124  15.513  0.1452 -0.0229 -0.3352
 2648DOPC   D2A31068  28.788   4.219  15.073 -0.1773  0.0392  0.1455
 2648DOPC   C3A31069  28.673   4.516  14.741  0.2485 -0.1300  0.2041
 2648DOPC   C4A31070  28.621   4.576  14.224 -0.0394  0.0101 -0.2115
 2648DOPC   C1B31071  28.455   4.533  15.152 -0.0087  0.1102 -0.0811
 2648DOPC   D2B31072  28.899   4.712  15.212  0.0946  0.2461 -0.0747
 2648DOPC   C3B31073  29.113   4.751  14.817 -0.1384  0.0242  0.2150
 2648DOPC   C4B31074  29.119   4.657  14.352 -0.1406 -0.1532 -0.3040
 2649DOPC   NC331075  30.613   4.922  15.927  0.0903  0.2899  0.1155
 2649DOPC   PO431076  30.841   5.195  15.797  0.1956 -0.2456 -0.2360
 2649DOPC   GL131077  30.685   5.203  15.483  0.1020 -0.4178 -0.0271
 2649DOPC   GL231078  30.379   5.249  15.565 -0.0509 -0.0925  0.0018
 2649DOPC   C1A31079  30.782   5.147  15.029 -0.1271  0.2395 -0.2173
 2649DOPC   D2A31080  31.073   4.885  14.750  0.0738 -0.2052  0.0064
 2649DOPC   C3A31081  31.300   5.207  14.995  0.1773  0.1000  0.0168
 2649DOPC   C4A31082  31.605   5.500  15.045 -0.0866 -0.0362  0.0397
 2649DOPC   C1B31083  30.298   5.383  15.176  0.0967  0.1070 -0.1503
 2649DOPC   D2B31084  30.148   5.292  14.763 -0.1700  0.0022  0.2867
 2649DOPC   C3B31085  30.555   5.058  14.538  0.0277 -0.1073  0.1860
 2649DOPC   C4B31086  30.915   5.280  14.525  0.2522  0.0620  0.1344
 2650DOPS   CNO31087  23.851   8.772  16.729  0.0214  0.2556  0.2871
 2650DOPS   PO431088  24.013   8.785  16.378 -0.0436  0.1394  0.1773
 2650DOPS   GL131089  24.161   8.549  16.204  0.0685 -0.1527 -0.3188
 2650DOPS   GL231090  23.972   8.386  16.042 -0.1567  0.1589 -0.0037
 2650DOPS   C1A31091  24.452   8.521  15.849  0.0148  0.1936  0.0725
 2650DOPS   D2A31092  24.501   8.756  15.457 -0.1170  0.1347 -0.0291
 2650DOPS   C3A31093  24.630   8.522  15.033 -0.1725  0.1062 -0.2410
 2650DOPS   C4A31094  24.642   8.318  14.618  0.2329 -0.1576 -0.1714
 2650DOPS   C1B31095  24.131   8.149  15.687 -0.3786  0.1511 -0.0203
 2650DOPS   D2B31096  24.350   8.246  15.300  0.2393  0.3026 -0.0893
 2650DOPS   C3B31097  24.710   8.003  15.048 -0.1626 -0.0266  0.1702
 2650DOPS   C4B31098  25.114   7.777  15.022 -0.2617  0.0425  0.0334
 2651DOPE   NH331099  31.255   1.902  16.111  0.0520 -0.3104 -0.0944
 2651DOPE   PO431100  31.078   1.638  16.062 -0.1897  0.2848 -0.0210
 2651DOPE   GL131101  30.989   1.695  15.747 -0.0166 -0.0757 -0.0939
 2651DOPE   GL231102  30.713   1.579  15.763  0.0914 -0.0643 -0.0473
 2651DOPE   C1A31103  30.886   1.608  15.281  0.3276  0.1086 -0.0052
 2651DOPE   D2A31104  30.738   1.517  14.819  0.1922 -0.3226 -0.0691
 2651DOPE   C3A31105  30.551   1.692  14.432  0.2240 -0.1101 -0.3638
 2651DOPE   C4A31106  30.727   1.788  14.020 -0.1242 -0.1208  0.0669
 2651DOPE   C1B31107  30.387   1.560  15.381 -0.0571  0.3500 -0.0723
 2651DOPE   D2B31108  30.331   1.703  14.953 -0.0091 -0.0074  0.1348
 2651DOPE   C3B31109  30.088   1.925  14.536  0.1609  0.0631  0.0505
 2651DOPE   C4B31110  29.936   1.937  14.114 -0.3561  0.0647  0.2551
 2652DOPS   CNO31111  32.472   5.205  16.317 -0.1485 -0.0836 -0.1529
 2652DOPS   PO431112  32.232   4.906  16.233  0.0160 -0.3066  0.0719
 2652DOPS   GL131113  32.069   4.935  15.852  0.0210 -0.2343  0.1588
 2652DOPS   GL231114  32.185   4.658  15.756  0.0212 -0.1402  0.3683
 2652DOPS   C1A31115  32.308   5.162  15.537  0.2558 -0.0712 -0.1466
 2652DOPS   D2A31116  32.253   5.492  15.168 -0.2641  0.3148  0.0491
 2652DOPS   C3A31117  32.418   5.414  14.725  0.0406  0.1726  0.2331
 2652DOPS   C4A31118  32.454   5.238  14.283 -0.3467  0.0266  0.0515
 2652DOPS   C1B31119  32.278   4.665  15.364  0.0577 -0.0213  0.0692
 2652DOPS   D2B31120  31.972   4.593  15.064 -0.1817  0.2179 -0.1020
 2652DOPS   C3B31121  32.080   4.404  14.627  0.0864  0.1487  0.2869
 2652DOPS   C4B31122  31.863   4.055  14.413 -0.1681  0.1436  0.0131
 2653DOPE   NH331123  33.524   0.849  12.285  0.0176  0.0227 -0.1210
 2653DOPE   PO431124  33.806   0.958  12.284  0.0269  0.2942 -0.0017
 2653DOPE   GL131125  34.021   1.222  12.517  0.1399 -0.2910 -0.0229
 2653DOPE   GL231126  34.356   1.228  12.391  0.4704  0.1106 -0.0088
 2653DOPE   C1A31127  34.164   1.453  12.894 -0.0665  0.2277 -0.1423
 2653DOPE   D2A31128  34.102   1.546  13.362 -0.0302  0.2454 -0.2507
 2653DOPE   C3A31129  34.320   1.273  13.760  0.0287 -0.2759 -0.0029
 2653DOPE   C4A31130  34.537   1.173  14.155 -0.1693  0.1969  0.1032
 2653DOPE   C1B31131  34.458   1.521  12.060 -0.0864  0.2442  0.0317
 2653DOPE   D2B31132  34.877   1.752  11.871 -0.0932 -0.1472 -0.1088
 2653DOPE   C3B31133  35.237   1.526  12.065 -0.2289  0.0566 -0.0072
 2653DOPE   C4B31134  35.671   1.654  12.271 -0.4078 -0.2977 -0.2663
 2654DOPS   CNO31135  24.922   4.126  12.396 -0.0801 -0.0635  0.2561
 2654DOPS   PO431136  25.095   4.198  12.727  0.1548  0.0693  0.0177
 2654DOPS   GL131137  24.929   3.970  13.039  0.0044 -0.0067 -0.0742
 2654DOPS   GL231138  24.723   3.952  12.915 -0.1921 -0.2606  0.2039
 2654DOPS   C1A31139  25.139   3.697  13.319  0.0274 -0.1082  0.3108
 2654DOPS   D2A31140  25.033   3.293  13.330 -0.0433 -0.0022 -0.3547
 2654DOPS   C3A31141  25.121   2.937  13.037 -0.1437 -0.2071 -0.3323
 2654DOPS   C4A31142  25.232   2.761  12.685 -0.0865 -0.0295  0.0746
 2654DOPS   C1B31143  24.634   3.541  13.154 -0.0809 -0.3688  0.1147
 2654DOPS   D2B31144  24.572   3.211  13.466  0.2609  0.3323  0.2827
 2654DOPS   C3B31145  24.247   3.030  13.752 -0.0069 -0.1636  0.2412
 2654DOPS   C4B31146  23.793   3.205  13.877  0.0877 -0.1310 -0.2760
 2655DOPE   NH331147  31.481   1.520  12.312 -0.2070 -0.0353 -0.1079
 2655DOPE   PO431148  31.722   1.627  12.480 -0.2294  0.1098 -0.0427
 2655DOPE   GL131149  32.057   1.795  12.703  0.0929 -0.1502 -0.0177
 2655DOPE   GL231150  32.005   2.045  12.637 -0.0729  0.1333  0.1930
 2655DOPE   C1A31151  32.281   1.941  13.049  0.1691 -0.2772  0.0687
 2655DOPE   D2A31152  32.514   1.900  13.458 -0.2994  0.1559 -0.0006
 2655DOPE   C3A31153  32.560   2.367  13.546 -0.2616  0.1260 -0.1624
 2655DOPE   C4A31154  32.741   2.568  13.913  0.0073 -0.0031  0.2743
 2655DOPE   C1B31155  32.336   2.378  12.697 -0.0364 -0.0286  0.0194
 2655DOPE   D2B31156  32.680   2.513  13.018  0.1711 -0.0448 -0.0108
 2655DOPE   C3B31157  32.915   2.166  13.201 -0.1887  0.1053 -0.4623
 2655DOPE   C4B31158  33.234   1.914  13.463 -0.2094  0.2850 -0.0919
 2656DOPE   NH331159  33.341   0.407  12.397 -0.3785 -0.0808 -0.0264
 2656DOPE   PO431160  33.085   0.485  12.183  0.1926 -0.0564 -0.1168
 2656DOPE   GL131161  32.841   0.724  12.497 -0.1164  0.6904  0.0630
 2656DOPE   GL231162  33.126   0.807  12.668 -0.1359  0.0331  0.0713
 2656DOPE   C1A31163  32.431   0.924  12.416 -0.0526 -0.1039  0.1365
 2656DOPE   D2A31164  32.241   1.270  12.666  0.0882  0.1829 -0.1741
 2656DOPE   C3A31165  32.506   1.643  12.665 -0.2108 -0.0576  0.2046
 2656DOPE   C4A31166  32.693   2.057  12.784  0.2651  0.2829 -0.2652
 2656DOPE   C1B31167  33.259   1.180  12.898  0.0946 -0.1404 -0.3278
 2656DOPE   D2B31168  33.540   1.436  13.077  0.1371 -0.0641  0.2787
 2656DOPE   C3B31169  33.548   1.573  13.510  0.0004 -0.1051 -0.1254
 2656DOPE   C4B31170  33.783   2.001  13.652 -0.0406 -0.0042  0.0317
 2657DOPC   NC331171  33.962   1.583  12.231 -0.0566  0.1196  0.2186
 2657DOPC   PO431172  33.658   1.359  12.027  0.0823  0.0230 -0.2000
 2657DOPC   GL131173  33.372   1.307  12.275 -0.1066 -0.1357 -0.0842
 2657DOPC   GL231174  33.435   1.460  12.504 -0.1180  0.2630  0.0671
 2657DOPC   C1A31175  32.951   1.205  12.455  0.4810 -0.2139  0.0754
 2657DOPC   D2A31176  32.675   1.060  12.837 -0.4323  0.0204  0.1967
 2657DOPC   C3A31177  32.871   1.089  13.203  0.0743 -0.0785  0.1353
 2657DOPC   C4A31178  33.242   1.179  13.446  0.1395  0.0673  0.2665
 2657DOPC   C1B31179  33.758   1.726  12.749 -0.0085 -0.2613 -0.1656
 2657DOPC   D2B31180  33.699   1.887  13.162 -0.1534  0.0638 -0.1288
 2657DOPC   C3B31181  33.405   2.306  13.171 -0.1871  0.0257 -0.0825
 2657DOPC   C4B31182  33.097   2.695  13.258  0.2895 -0.0971  0.0749
 2658DOPC   NC331183  25.269   6.764  13.021 -0.1401  0.0165  0.0181
 2658DOPC   PO431184  25.149   7.064  12.743 -0.1489 -0.4059  0.0032
 2658DOPC   GL131185  25.037   7.423  13.020 -0.3706  0.2723 -0.0609
 2658DOPC   GL231186  24.787   7.487  13.175  0.2163 -0.0816  0.0540
 2658DOPC   C1A31187  25.255   7.769  13.245 -0.4404  0.1874  0.1829
 2658DOPC   D2A31188  25.435   8.027  13.580  0.2129  0.1593  0.1529
 2658DOPC   C3A31189  25.315   8.220  13.965  0.0022 -0.0642  0.1299
 2658DOPC   C4A31190  25.162   8.246  14.367 -0.0797  0.1115 -0.1795
 2658DOPC   C1B31191  24.942   7.499  13.620  0.1602 -0.1033  0.2012
 2658DOPC   D2B31192  25.378   7.567  13.811 -0.2326 -0.1387  0.2378
 2658DOPC   C3B31193  25.525   7.815  14.209 -0.2403 -0.0257 -0.1793
 2658DOPC   C4B31194  25.436   7.846  14.637  0.3219  0.0320  0.2499
 2659DOPE   NH331195  22.221   7.365  12.491 -0.2137 -0.0536  0.0860
 2659DOPE   PO431196  22.431   7.389  12.750 -0.0454 -0.0563  0.2570
 2659DOPE   GL131197  22.377   7.717  13.011  0.1604 -0.0890 -0.1240
 2659DOPE   GL231198  22.679   7.582  13.110  0.0849 -0.0404 -0.1214
 2659DOPE   C1A31199  22.510   8.128  13.119 -0.1567  0.0109 -0.1988
 2659DOPE   D2A31200  22.663   8.476  13.377  0.2440 -0.0524  0.0804
 2659DOPE   C3A31201  22.953   8.352  13.721  0.0465 -0.0347 -0.2542
 2659DOPE   C4A31202  23.018   8.521  14.074  0.1119 -0.2323 -0.0084
 2659DOPE   C1B31203  22.831   7.955  12.837 -0.2683  0.2026 -0.0342
 2659DOPE   D2B31204  22.863   8.410  12.894  0.3156  0.1210 -0.0287
 2659DOPE   C3B31205  23.104   8.641  13.255 -0.0587 -0.4544  0.2405
 2659DOPE   C4B31206  22.899   8.961  13.528  0.0755 -0.2089 -0.1702
 2660DOPE   NH331207  34.163   9.846  12.671  0.0057 -0.1089 -0.0980
 2660DOPE   PO431208  34.474   9.749  12.727  0.2170  0.2596 -0.1196
 2660DOPE   GL131209  34.423   9.455  12.971  0.3512 -0.1805  0.1958
 2660DOPE   GL231210  34.138   9.423  12.977  0.1711 -0.1559 -0.1090
 2660DOPE   C1A31211  34.669   9.282  13.291 -0.1977  0.3613 -0.0826
 2660DOPE   D2A31212  35.043   9.125  13.375 -0.1089 -0.0994  0.1432
 2660DOPE   C3A31213  35.076   8.811  13.720  0.1772  0.0073 -0.1269
 2660DOPE   C4A31214  34.801   8.615  14.012  0.2493 -0.0104  0.0887
 2660DOPE   C1B31215  34.113   9.168  13.373 -0.0185 -0.1226 -0.0748
 2660DOPE   D2B31216  34.009   8.930  13.754 -0.3843 -0.0133 -0.2126
 2660DOPE   C3B31217  33.624   8.945  13.959 -0.1501 -0.0010 -0.2588
 2660DOPE   C4B31218  33.533   9.392  14.065  0.2579  0.2331  0.1305
 2661DOPE   NH331219  30.332   6.032  12.433 -0.1493 -0.3457  0.0866
 2661DOPE   PO431220  30.046   6.107  12.568  0.1270  0.0504 -0.2082
 2661DOPE   GL131221  30.003   5.874  12.926  0.2852 -0.4546 -0.0170
 2661DOPE   GL231222  30.016   5.584  12.927 -0.0266  0.1256  0.2639
 2661DOPE   C1A31223  29.623   5.946  13.166  0.1898  0.2810 -0.1792
 2661DOPE   D2A31224  29.448   6.055  13.568  0.2127  0.0104 -0.1110
 2661DOPE   C3A31225  29.791   6.108  13.869 -0.0075 -0.1299 -0.0925
 2661DOPE   C4A31226  30.099   6.163  14.202 -0.2279 -0.2750  0.0438
 2661DOPE   C1B31227  29.696   5.347  13.151 -0.0147  0.1584 -0.0941
 2661DOPE   D2B31228  29.631   5.078  13.519 -0.2144 -0.1433 -0.0175
 2661DOPE   C3B31229  29.543   5.259  13.974 -0.0787 -0.1545  0.4131
 2661DOPE   C4B31230  29.282   5.131  14.382 -0.0529 -0.1599 -0.0080
 2662POSM   NC331231  24.569   8.096  12.468  0.0664  0.2050 -0.1914
 2662POSM   PO431232  24.579   8.270  12.836  0.0408  0.4160  0.0536
 2662POSM   AM131233  24.693   8.213  13.136 -0.4699 -0.0180  0.1195
 2662POSM   AM231234  24.574   8.395  13.374 -0.2540  0.1270  0.1709
 2662POSM   T1A31235  24.877   8.017  13.571 -0.2905 -0.0803 -0.0897
 2662POSM   C2A31236  24.971   7.828  13.968 -0.1891 -0.0965  0.0000
 2662POSM   C3A31237  25.078   7.397  14.171  0.0289 -0.1286  0.2294
 2662POSM   C1B31238  24.697   8.535  13.671  0.0730  0.1108  0.1781
 2662POSM   D2B31239  24.487   8.737  14.077 -0.0155  0.0530  0.0362
 2662POSM   C3B31240  24.501   9.086  14.328  0.0433 -0.1812 -0.0645
 2662POSM   C4B31241  24.188   9.417  14.395  0.1232 -0.1012  0.0094
 2663DOPE   NH331242  27.342   7.326  13.114  0.0104  0.0422 -0.4487
 2663DOPE   PO431243  27.071   7.303  12.947 -0.0867  0.1008  0.1292
 2663DOPE   GL131244  26.863   7.435  13.226 -0.0607  0.5243 -0.2258
 2663DOPE   GL231245  26.591   7.450  13.214 -0.1843 -0.3618  0.0152
 2663DOPE   C1A31246  27.035   7.472  13.657 -0.1470 -0.0019 -0.1106
 2663DOPE   D2A31247  27.293   7.668  13.981  0.0344  0.0496  0.0874
 2663DOPE   C3A31248  27.733   7.817  14.184 -0.0892  0.2343 -0.1821
 2663DOPE   C4A31249  28.128   7.991  14.399  0.0625 -0.0838 -0.2726
 2663DOPE   C1B31250  26.582   7.700  13.551  0.0338 -0.0256 -0.0686
 2663DOPE   D2B31251  26.798   7.745  13.939  0.2057 -0.0751  0.1323
 2663DOPE   C3B31252  27.006   8.178  13.963  0.2134 -0.0014 -0.2597
 2663DOPE   C4B31253  27.045   8.542  14.239 -0.0466 -0.1157  0.1571
 2664POSM   NC331254  31.108   7.204  12.636 -0.1739  0.0742 -0.0338
 2664POSM   PO431255  31.188   7.283  12.989 -0.0109  0.0460  0.9390
 2664POSM   AM131256  31.056   7.552  13.130  0.1390 -0.1044  0.2647
 2664POSM   AM231257  31.030   7.719  13.355 -0.0514  0.0928 -0.1485
 2664POSM   T1A31258  30.610   7.859  13.147 -0.1399  0.1612 -0.1221
 2664POSM   C2A31259  30.214   7.996  13.279  0.3200 -0.0967 -0.2008
 2664POSM   C3A31260  29.922   7.818  13.588  0.1854 -0.2736 -0.2578
 2664POSM   C1B31261  31.139   7.756  13.624  0.2333  0.0489 -0.0524
 2664POSM   D2B31262  31.245   7.765  14.079 -0.0882 -0.0272  0.2800
 2664POSM   C3B31263  30.962   7.605  14.439  0.0990  0.0940  0.0924
 2664POSM   C4B31264  30.525   7.561  14.420 -0.1181  0.2566 -0.3262
 2665POSM   NC331265  23.269  34.537  12.356 -0.0769 -0.1204  0.1030
 2665POSM   PO431266  23.417  34.647  11.975 -0.0515 -0.2848  0.0477
 2665POSM   AM131267  23.558  34.841  12.203 -0.0648 -0.2461  0.3307
 2665POSM   AM231268  23.725  34.870  12.449 -0.0986  0.3723  0.0087
 2665POSM   T1A31269  23.633  35.343  12.270 -0.1026  0.2494  0.0021
 2665POSM   C2A31270  23.528  35.649  12.522  0.0290  0.1014 -0.4492
 2665POSM   C3A31271  23.353  35.992  12.771 -0.0833  0.0574  0.2138
 2665POSM   C1B31272  23.533  34.974  12.673 -0.3625 -0.2537 -0.0147
 2665POSM   D2B31273  23.447  35.351  12.964 -0.0428 -0.3502  0.0971
 2665POSM   C3B31274  23.239  35.336  13.371 -0.3682 -0.0264 -0.3603
 2665POSM   C4B31275  22.815  35.417  13.537  0.0152 -0.0980 -0.0258
 2666DOPC   NC331276  33.373   8.203  12.468  0.1022  0.0966 -0.4991
 2666DOPC   PO431277  33.234   8.388  12.141 -0.0126  0.0130 -0.1166
 2666DOPC   GL131278  33.048   8.792  12.281 -0.1095  0.0056  0.0497
 2666DOPC   GL231279  32.874   8.893  12.051 -0.0204  0.0304  0.2926
 2666DOPC   C1A31280  33.115   9.260  12.317 -0.1878  0.0001  0.0518
 2666DOPC   D2A31281  33.438   9.624  12.385  0.0402 -0.1655  0.1606
 2666DOPC   C3A31282  33.665   9.636  12.822 -0.2728 -0.3092  0.1184
 2666DOPC   C4A31283  33.796   9.607  13.245  0.1718 -0.1085  0.3727
 2666DOPC   C1B31284  32.678   9.019  12.423  0.0678 -0.2716  0.3080
 2666DOPC   D2B31285  32.416   9.418  12.412  0.2499  0.2074 -0.1310
 2666DOPC   C3B31286  32.427   9.538  12.862  0.3420 -0.1976  0.3766
 2666DOPC   C4B31287  32.308   9.351  13.214 -0.0300  0.2229 -0.2796
 2667DOPC   NC331288  30.632   9.840  12.950  0.0228  0.1194 -0.2046
 2667DOPC   PO431289  30.571   9.747  12.551  0.0406  0.0529  0.1847
 2667DOPC   GL131290  30.890   9.534  12.580 -0.3812  0.1332  0.0803
 2667DOPC   GL231291  31.101   9.675  12.524 -0.0651  0.3042  0.2412
 2667DOPC   C1A31292  31.022   9.121  12.440  0.1016  0.0892  0.2530
 2667DOPC   D2A31293  31.161   8.674  12.518 -0.0396 -0.1122  0.2648
 2667DOPC   C3A31294  31.359   8.541  12.921 -0.1124 -0.2607  0.2844
 2667DOPC   C4A31295  31.675   8.417  13.172 -0.1503  0.0215  0.0573
 2667DOPC   C1B31296  31.183   9.512  12.892  0.3576 -0.2093  0.0002
 2667DOPC   D2B31297  31.254   9.565  13.367 -0.1608  0.0179 -0.0680
 2667DOPC   C3B31298  31.467   9.432  13.712 -0.0119  0.1065 -0.2343
 2667DOPC   C4B31299  31.442   9.457  14.214  0.0891  0.1496  0.1965
 2668DOPC   NC331300  27.581   5.847  12.816  0.1288 -0.2276 -0.0953
 2668DOPC   PO431301  27.393   5.637  12.578 -0.4823 -0.0704 -0.1388
 2668DOPC   GL131302  27.578   5.370  12.958  0.1071  0.0420 -0.0816
 2668DOPC   GL231303  27.360   5.168  12.908 -0.1816  0.4361  0.2415
 2668DOPC   C1A31304  27.617   4.977  13.316  0.2747  0.1596  0.0543
 2668DOPC   D2A31305  27.701   5.106  13.774 -0.4368  0.0021  0.1717
 2668DOPC   C3A31306  27.737   5.112  14.230  0.3763 -0.0942  0.0498
 2668DOPC   C4A31307  27.646   4.907  14.661 -0.2810 -0.1010  0.2002
 2668DOPC   C1B31308  27.609   4.771  12.825  0.0116  0.1214  0.2753
 2668DOPC   D2B31309  27.966   4.470  12.937 -0.0554 -0.0029  0.0009
 2668DOPC   C3B31310  28.039   4.392  13.354  0.1948  0.1108 -0.0372
 2668DOPC   C4B31311  27.819   4.141  13.697  0.1906  0.1572 -0.2709
 2669DOPE   NH331312  30.424   0.663  12.575  0.1453  0.1035  0.2509
 2669DOPE   PO431313  30.294   0.836  12.323  0.0827 -0.0095 -0.1897
 2669DOPE   GL131314  29.990   0.914  12.643  0.0470  0.1671 -0.1476
 2669DOPE   GL231315  30.069   0.713  12.883  0.2175 -0.0162  0.4139
 2669DOPE   C1A31316  29.697   1.161  12.901  0.2026  0.0881 -0.1324
 2669DOPE   D2A31317  29.483   1.416  13.246  0.0731  0.0673  0.3016
 2669DOPE   C3A31318  29.548   1.091  13.587 -0.3694  0.3214 -0.1070
 2669DOPE   C4A31319  29.474   1.103  14.043  0.0500 -0.2351 -0.1532
 2669DOPE   C1B31320  29.949   0.991  13.292 -0.1036 -0.3246 -0.0277
 2669DOPE   D2B31321  29.951   1.435  13.449 -0.0231  0.1570 -0.0031
 2669DOPE   C3B31322  29.771   1.563  13.848  0.1037  0.1219 -0.2368
 2669DOPE   C4B31323  29.448   1.557  14.228 -0.0980 -0.2708  0.0214
 2670POSM   NC331324  29.518  34.552  12.532  0.0460 -0.2103 -0.1097
 2670POSM   PO431325  29.109  34.542  12.622  0.0376 -0.1967  0.2276
 2670POSM   AM131326  29.189  34.443  12.909  0.2732 -0.0056 -0.1766
 2670POSM   AM231327  29.409  34.520  13.096 -0.0946 -0.1401  0.2168
 2670POSM   T1A31328  29.027  34.305  13.357  0.0898  0.1659 -0.0133
 2670POSM   C2A31329  28.857  34.144  13.767 -0.0364  0.0295 -0.0822
 2670POSM   C3A31330  28.850  33.750  13.943  0.0042  0.0574  0.0868
 2670POSM   C1B31331  29.448  34.560  13.426  0.0717  0.1622 -0.2147
 2670POSM   D2B31332  29.468  34.812  13.780 -0.3149  0.0868 -0.2052
 2670POSM   C3B31333  29.789  34.799  14.122 -0.0389  0.0423 -0.4632
 2670POSM   C4B31334  30.092  34.591  14.428 -0.0353  0.1359 -0.0213
 2671DOPE   NH331335  24.761   8.599  12.502  0.0545  0.0008 -0.0424
 2671DOPE   PO431336  24.426   8.570  12.457  0.0117 -0.0849  0.2600
 2671DOPE   GL131337  24.138   8.846  12.733 -0.0654  0.2030  0.1248
 2671DOPE   GL231338  24.230   9.105  12.711  0.1581 -0.0829  0.2313
 2671DOPE   C1A31339  23.719   9.013  12.891  0.0757 -0.0819 -0.0147
 2671DOPE   D2A31340  23.504   9.391  13.054 -0.0710  0.1251 -0.2291
 2671DOPE   C3A31341  23.378   9.517  13.490 -0.1119  0.1576  0.0043
 2671DOPE   C4A31342  23.597   9.417  13.928  0.0105  0.2858  0.3290
 2671DOPE   C1B31343  24.098   9.216  13.085 -0.3106 -0.2709  0.3204
 2671DOPE   D2B31344  23.887   8.971  13.391  0.0249  0.0754 -0.3150
 2671DOPE   C3B31345  23.627   8.548  13.416  0.1926 -0.2396 -0.0059
 2671DOPE   C4B31346  23.430   8.195  13.627  0.0313  0.0968  0.0612
 2672DOPC   NC331347  32.016   0.471  12.864  0.0177  0.0654  0.1437
 2672DOPC   PO431348  32.146   0.227  12.582  0.3002 -0.1415 -0.1177
 2672DOPC   GL131349  32.419   0.248  12.888  0.4171 -0.5836  0.1853
 2672DOPC   GL231350  32.550   0.502  12.905 -0.2357 -0.0944 -0.4763
 2672DOPC   C1A31351  32.212   0.356  13.314  0.0699 -0.0684 -0.1771
 2672DOPC   D2A31352  32.057   0.419  13.783  0.0427  0.0914  0.0271
 2672DOPC   C3A31353  31.909   0.329  14.224  0.0868  0.1948  0.0707
 2672DOPC   C4A31354  32.173   0.329  14.622 -0.1870 -0.1773 -0.1044
 2672DOPC   C1B31355  32.489   0.749  13.296  0.0740 -0.0568 -0.2704
 2672DOPC   D2B31356  32.513   0.710  13.803  0.2713  0.3821  0.2231
 2672DOPC   C3B31357  32.652   1.068  14.074 -0.0046 -0.3050 -0.2915
 2672DOPC   C4B31358  32.830   1.194  14.455 -0.1285  0.0149  0.1708
 2673POSM   NC331359  30.927   0.377  12.312  0.3009 -0.3265  0.0581
 2673POSM   PO431360  30.733   0.305  12.639 -0.1715  0.0164 -0.1247
 2673POSM   AM131361  30.659   0.431  12.925  0.0584  0.2556 -0.1309
 2673POSM   AM231362  30.440   0.535  13.098 -0.1493 -0.1721  0.1269
 2673POSM   T1A31363  30.873   0.696  13.316 -0.0949 -0.0503  0.1259
 2673POSM   C2A31364  30.751   0.663  13.734 -0.0069 -0.0170 -0.1199
 2673POSM   C3A31365  31.032   0.814  14.098  0.2011 -0.2160  0.3948
 2673POSM   C1B31366  30.346   0.571  13.431  0.0728 -0.0171 -0.1193
 2673POSM   D2B31367  30.318   0.521  13.876 -0.0742 -0.0964 -0.0282
 2673POSM   C3B31368  30.253   0.858  14.163  0.1021 -0.0029  0.0865
 2673POSM   C4B31369  30.262   0.957  14.611  0.1202  0.0130  0.2441
 2674DOPE   NH331370  32.224   6.485  12.460 -0.0054 -0.1684  0.0387
 2674DOPE   PO431371  32.080   6.250  12.562  0.2728  0.1323 -0.1221
 2674DOPE   GL131372  31.984   6.120  12.977 -0.4236 -0.2141 -0.1778
 2674DOPE   GL231373  31.806   5.908  13.100  0.5291 -0.1310  0.2043
 2674DOPE   C1A31374  31.873   6.319  13.429 -0.6205  0.3964  0.0117
 2674DOPE   D2A31375  31.557   6.643  13.425 -0.0540  0.0423  0.0542
 2674DOPE   C3A31376  31.245   6.746  13.759  0.0375 -0.1631 -0.2135
 2674DOPE   C4A31377  31.145   6.930  14.164 -0.0206 -0.1048  0.2299
 2674DOPE   C1B31378  31.770   5.802  13.536 -0.1168  0.0797  0.2971
 2674DOPE   D2B31379  31.855   5.711  13.953 -0.2608  0.0050 -0.0833
 2674DOPE   C3B31380  31.549   5.574  14.299 -0.0853 -0.0731  0.0824
 2674DOPE   C4B31381  31.471   5.230  14.559 -0.4183  0.2724  0.1772
 2675DOPE   NH331382  23.087   3.382  11.966  0.1295  0.1089 -0.2571
 2675DOPE   PO431383  23.208   3.508  12.267  0.0108 -0.1873 -0.0140
 2675DOPE   GL131384  23.173   3.860  12.437 -0.1216 -0.2844 -0.1815
 2675DOPE   GL231385  23.183   4.054  12.225 -0.1556 -0.4841  0.2420
 2675DOPE   C1A31386  22.909   4.095  12.740  0.0899  0.0895 -0.1816
 2675DOPE   D2A31387  22.634   4.366  13.031  0.2031  0.0832  0.0508
 2675DOPE   C3A31388  22.769   4.383  13.468 -0.3453  0.0315  0.1200
 2675DOPE   C4A31389  22.773   4.730  13.769  0.2861 -0.3060  0.0812
 2675DOPE   C1B31390  23.328   4.386  12.457  0.0412 -0.3047  0.1307
 2675DOPE   D2B31391  23.701   4.640  12.506  0.0689 -0.1913  0.0130
 2675DOPE   C3B31392  23.788   5.097  12.616 -0.0794  0.0118 -0.0098
 2675DOPE   C4B31393  23.776   5.414  12.963 -0.4507  0.2497 -0.0328
 2676DOPC   NC331394  26.427   6.568  12.824 -0.1135  0.3690  0.0392
 2676DOPC   PO431395  26.780   6.760  12.820 -0.0209  0.1217 -0.0961
 2676DOPC   GL131396  26.853   6.954  13.150 -0.1286  0.1221 -0.1978
 2676DOPC   GL231397  27.099   6.850  13.241 -0.3184  0.3492 -0.0473
 2676DOPC   C1A31398  26.722   7.065  13.619 -0.2445  0.2093  0.4241
 2676DOPC   D2A31399  26.579   7.321  13.994 -0.2949  0.1051  0.1672
 2676DOPC   C3A31400  26.259   7.667  14.105  0.0147  0.2473 -0.1607
 2676DOPC   C4A31401  25.943   7.697  14.430  0.1671  0.1078 -0.0205
 2676DOPC   C1B31402  27.131   6.576  13.573  0.1444  0.0149  0.2148
 2676DOPC   D2B31403  27.427   6.336  13.765 -0.1337 -0.1756  0.0463
 2676DOPC   C3B31404  27.671   6.439  14.101 -0.1161  0.2836 -0.1260
 2676DOPC   C4B31405  27.947   6.779  14.256 -0.0439  0.0737  0.2777
 2677DOPE   NH331406  24.817   7.484  12.623 -0.0241  0.0290 -0.0437
 2677DOPE   PO431407  24.763   7.762  12.786  0.0071 -0.1062  0.0487
 2677DOPE   GL131408  24.506   7.834  12.919 -0.0615  0.4019 -0.2772
 2677DOPE   GL231409  24.271   7.857  12.874 -0.0049 -0.1919 -0.0062
 2677DOPE   C1A31410  24.447   7.930  13.367 -0.1943  0.2926  0.3715
 2677DOPE   D2A31411  24.432   8.046  13.832 -0.0575 -0.0559 -0.0951
 2677DOPE   C3A31412  24.720   8.231  14.120 -0.0388 -0.0830  0.1694
 2677DOPE   C4A31413  24.925   8.606  14.188 -0.0761 -0.0359  0.1144
 2677DOPE   C1B31414  24.054   8.117  13.196 -0.1409  0.0470 -0.1015
 2677DOPE   D2B31415  23.920   7.993  13.655  0.1409  0.0074  0.0534
 2677DOPE   C3B31416  24.016   8.029  14.098 -0.2278 -0.1768 -0.1051
 2677DOPE   C4B31417  24.317   7.977  14.391 -0.1022  0.0714  0.2030
 2678POSM   NC331418  31.403   5.238  12.773  0.1305 -0.1397 -0.2255
 2678POSM   PO431419  31.280   5.608  12.646  0.2796  0.2837  0.0632
 2678POSM   AM131420  31.190   5.575  12.951 -0.1857 -0.2554  0.0911
 2678POSM   AM231421  31.332   5.676  13.149 -0.0714 -0.0921 -0.0080
 2678POSM   T1A31422  30.901   5.372  13.355 -0.1266 -0.0874 -0.2546
 2678POSM   C2A31423  30.554   5.423  13.650 -0.2084 -0.0182 -0.1593
 2678POSM   C3A31424  30.338   5.848  13.750  0.0848  0.1919  0.1609
 2678POSM   C1B31425  31.266   5.663  13.489  0.4002 -0.0189  0.1465
 2678POSM   D2B31426  31.056   5.368  13.837  0.2865 -0.1141 -0.0504
 2678POSM   C3B31427  30.788   5.571  14.157  0.1357 -0.0918  0.4802
 2678POSM   C4B31428  30.391   5.492  14.331  0.1566 -0.1194  0.2348
 2679DOPC   NC331429  32.428   8.118  12.392 -0.3764 -0.1264  0.0305
 2679DOPC   PO431430  32.425   7.712  12.507  0.4152  0.1854 -0.2437
 2679DOPC   GL131431  32.102   7.911  12.627  0.1720  0.0992 -0.2131
 2679DOPC   GL231432  32.007   7.713  12.819 -0.5609 -0.4252 -0.1941
 2679DOPC   C1A31433  31.973   8.320  12.859 -0.0568  0.1593 -0.1089
 2679DOPC   D2A31434  32.119   8.566  13.196  0.0037  0.1474  0.0786
 2679DOPC   C3A31435  32.347   8.283  13.492 -0.0158  0.0899  0.0718
 2679DOPC   C4A31436  32.730   8.024  13.489 -0.0827  0.2865 -0.1086
 2679DOPC   C1B31437  31.958   7.970  13.187 -0.1059 -0.4049  0.1579
 2679DOPC   D2B31438  31.871   7.944  13.653 -0.0683 -0.1632  0.1186
 2679DOPC   C3B31439  32.220   7.912  13.909  0.0963  0.2101 -0.1472
 2679DOPC   C4B31440  32.559   7.631  13.970  0.4486  0.0871  0.0398
 2680POSM   NC331441  31.149  10.782  13.014  0.1454 -0.0446 -0.1518
 2680POSM   PO431442  30.754  10.782  12.908  0.1932  0.0223 -0.2435
 2680POSM   AM131443  30.632  10.845  13.236 -0.0100 -0.0185  0.1158
 2680POSM   AM231444  30.712  10.997  13.481 -0.0441 -0.2806  0.0561
 2680POSM   T1A31445  30.351  10.705  13.579 -0.0464 -0.1853  0.0600
 2680POSM   C2A31446  30.217  10.297  13.759  0.2392 -0.0129  0.2830
 2680POSM   C3A31447  29.989  10.217  14.123  0.0520 -0.2856  0.2341
 2680POSM   C1B31448  30.739  11.131  13.790 -0.2845  0.1008  0.2780
 2680POSM   D2B31449  31.019  11.352  14.099 -0.4555  0.0903 -0.1871
 2680POSM   C3B31450  30.979  11.739  14.374 -0.0982  0.1501 -0.0073
 2680POSM   C4B31451  31.320  12.056  14.511 -0.1119  0.0192 -0.4206
 2681DOPE   NH331452  29.119   0.486  12.648 -0.0417  0.2489 -0.0181
 2681DOPE   PO431453  29.174   0.250  12.893 -0.2159  0.1763  0.2129
 2681DOPE   GL131454  29.296   0.334  13.197 -0.2437  0.3760  0.4202
 2681DOPE   GL231455  29.054   0.183  13.362  0.3733  0.0958  0.2358
 2681DOPE   C1A31456  29.363   0.565  13.582  0.1531  0.1084  0.1319
 2681DOPE   D2A31457  29.329   0.619  14.052  0.1422  0.0001  0.2022
 2681DOPE   C3A31458  29.341   0.295  14.291 -0.0782 -0.1270  0.2513
 2681DOPE   C4A31459  29.572   0.052  14.572 -0.2035 -0.0026  0.2438
 2681DOPE   C1B31460  29.021  -0.037  13.780 -0.1572  0.1953  0.3234
 2681DOPE   D2B31461  29.091  -0.132  14.229  0.0115 -0.1652  0.4030
 2681DOPE   C3B31462  28.785  -0.492  14.438  0.1502 -0.0819 -0.0435
 2681DOPE   C4B31463  28.540  -0.744  14.684 -0.0365  0.3350 -0.3193
 2682DOPC   NC331464  31.819   3.515  12.204 -0.0585 -0.0396  0.0570
 2682DOPC   PO431465  31.566   3.213  12.317 -0.0405  0.3138 -0.0784
 2682DOPC   GL131466  31.685   3.445  12.673  0.1207 -0.5987 -0.1730
 2682DOPC   GL231467  31.856   3.726  12.701 -0.1550 -0.2088  0.2682
 2682DOPC   C1A31468  32.004   3.405  12.993  0.2061 -0.1447 -0.3766
 2682DOPC   D2A31469  32.327   3.397  13.315  0.3384 -0.0146  0.2401
 2682DOPC   C3A31470  32.479   2.931  13.362 -0.0901 -0.0643  0.0097
 2682DOPC   C4A31471  32.235   2.569  13.189  0.0436  0.0715  0.0294
 2682DOPC   C1B31472  32.020   3.933  13.075 -0.0837 -0.1998 -0.0917
 2682DOPC   D2B31473  32.295   3.964  13.364 -0.0352 -0.0927 -0.2140
 2682DOPC   C3B31474  32.102   4.271  13.674 -0.0137  0.2261 -0.4488
 2682DOPC   C4B31475  31.921   4.429  14.064  0.1951 -0.1208  0.2343
 2683DOPE   NH331476  34.552   0.400  12.343  0.2740 -0.3222 -0.0514
 2683DOPE   PO431477  34.667   0.142  12.391  0.1149  0.1221  0.1241
 2683DOPE   GL131478  34.609   0.417  12.790 -0.1613  0.2296 -0.1144
 2683DOPE   GL231479  34.815   0.244  12.863  0.2700  0.0539  0.2949
 2683DOPE   C1A31480  34.770   0.607  13.186  0.1622 -0.1416  0.2375
 2683DOPE   D2A31481  35.141   0.889  13.393 -0.3139 -0.0056 -0.2225
 2683DOPE   C3A31482  35.320   0.804  13.814  0.1032 -0.3144 -0.2353
 2683DOPE   C4A31483  35.643   0.672  14.144  0.0629  0.0036 -0.0576
 2683DOPE   C1B31484  35.097   0.261  13.186  0.0725  0.1639  0.3423
 2683DOPE   D2B31485  35.309   0.335  13.610  0.1215 -0.0232 -0.0904
 2683DOPE   C3B31486  35.148   0.365  14.053  0.1674 -0.0123 -0.2238
 2683DOPE   C4B31487  34.728   0.271  14.204 -0.1645  0.1437  0.0845
 2684POSM   NC331488  24.759   4.642  12.485 -0.0028  0.1004 -0.0273
 2684POSM   PO431489  24.575   4.448  12.788 -0.0049 -0.0925  0.2307
 2684POSM   AM131490  24.507   4.346  13.116 -0.0378 -0.3072  0.2310
 2684POSM   AM231491  24.362   4.469  13.294  0.0854  0.0711 -0.0504
 2684POSM   T1A31492  24.378   3.907  13.413  0.1982 -0.1599 -0.0570
 2684POSM   C2A31493  24.253   3.582  13.751 -0.1123  0.1980  0.3618
 2684POSM   C3A31494  24.106   3.566  14.164  0.1654  0.1706  0.4195
 2684POSM   C1B31495  24.187   4.435  13.575  0.0655 -0.3349 -0.0697
 2684POSM   D2B31496  23.955   4.489  14.015  0.0326  0.2184  0.0330
 2684POSM   C3B31497  24.082   4.294  14.417  0.1494 -0.2735 -0.1698
 2684POSM   C4B31498  24.455   4.222  14.706  0.2073 -0.4112  0.1868
 2685DOPC   NC331499  30.329   7.185  12.650 -0.2658 -0.1896 -0.0232
 2685DOPC   PO431500  30.006   7.124  12.446  0.0131  0.0120  0.0209
 2685DOPC   GL131501  29.825   7.058  12.809  0.0149  0.2968  0.2694
 2685DOPC   GL231502  29.921   6.967  13.150  0.3649  0.0913 -0.0733
 2685DOPC   C1A31503  29.424   7.207  12.742 -0.0189 -0.0419  0.0657
 2685DOPC   D2A31504  29.022   7.178  12.994 -0.0581 -0.0868  0.1844
 2685DOPC   C3A31505  28.662   7.479  12.941 -0.0876 -0.2473 -0.3027
 2685DOPC   C4A31506  28.572   7.926  12.877  0.0923 -0.1729  0.0524
 2685DOPC   C1B31507  30.318   6.941  13.471  0.0907 -0.4113  0.0985
 2685DOPC   D2B31508  30.792   6.867  13.652 -0.0498  0.0847 -0.1204
 2685DOPC   C3B31509  30.814   6.569  13.932 -0.0320  0.0716  0.0268
 2685DOPC   C4B31510  30.707   6.100  14.107  0.0369 -0.2240  0.0844
 2686POSM   NC331511  30.728   1.200  12.174 -0.0460  0.1888  0.0091
 2686POSM   PO431512  31.019   1.412  12.276 -0.5787 -0.0290 -0.0956
 2686POSM   AM131513  30.801   1.608  12.394  0.1298  0.0011 -0.0718
 2686POSM   AM231514  30.584   1.787  12.314 -0.1858  0.2894  0.1046
 2686POSM   T1A31515  30.663   1.847  12.847  0.2150 -0.1382 -0.1497
 2686POSM   C2A31516  30.823   1.906  13.307 -0.1618 -0.0292  0.0215
 2686POSM   C3A31517  31.031   2.129  13.700 -0.1669 -0.0226  0.1130
 2686POSM   C1B31518  30.341   1.603  12.542 -0.0731  0.5225  0.1675
 2686POSM   D2B31519  30.195   1.408  12.960 -0.0189  0.0529 -0.2745
 2686POSM   C3B31520  30.284   1.771  13.312  0.2928  0.1181  0.0377
 2686POSM   C4B31521  30.226   1.684  13.742 -0.0373  0.0352  0.1001
 2687POSM   NC331522  24.170   6.806  12.838  0.1605 -0.3563  0.0360
 2687POSM   PO431523  23.854   6.589  12.813  0.1331  0.1278 -0.0325
 2687POSM   AM131524  23.770   6.754  13.111  0.0344 -0.0121  0.3494
 2687POSM   AM231525  23.881   6.981  13.236  0.1119 -0.3190  0.2330
 2687POSM   T1A31526  23.521   6.664  13.520  0.0052 -0.1906 -0.1932
 2687POSM   C2A31527  23.203   6.896  13.804 -0.2294 -0.3442  0.3382
 2687POSM   C3A31528  23.152   7.316  14.016 -0.0562  0.1001 -0.0083
 2687POSM   C1B31529  24.070   7.165  13.396  0.1172 -0.0644 -0.0824
 2687POSM   D2B31530  24.440   7.277  13.606  0.2928  0.1481  0.1901
 2687POSM   C3B31531  24.448   7.413  14.032  0.2275  0.0481  0.1832
 2687POSM   C4B31532  24.392   7.273  14.433 -0.0781  0.3035 -0.1012
 2688DOPC   NC331533  28.986   2.470  12.311 -0.0984  0.3447 -0.3772
 2688DOPC   PO431534  28.632   2.677  12.398  0.0183 -0.0084 -0.1076
 2688DOPC   GL131535  28.557   2.278  12.685 -0.2056 -0.0157  0.2309
 2688DOPC   GL231536  28.563   2.308  13.046 -0.0292  0.0515  0.2733
 2688DOPC   C1A31537  28.159   1.989  12.718 -0.2335  0.5925  0.2906
 2688DOPC   D2A31538  27.965   1.618  12.932  0.1862  0.2322 -0.1726
 2688DOPC   C3A31539  28.089   1.714  13.353  0.0356 -0.1282  0.1857
 2688DOPC   C4A31540  28.036   1.922  13.750 -0.2022  0.0806  0.0983
 2688DOPC   C1B31541  28.877   2.163  13.369  0.1268 -0.2802  0.1671
 2688DOPC   D2B31542  29.115   2.022  13.719  0.1857  0.0883 -0.0945
 2688DOPC   C3B31543  28.940   1.835  14.118 -0.0078 -0.1297  0.0731
 2688DOPC   C4B31544  28.665   1.994  14.457 -0.1455  0.1284  0.0016
 2689DOPE   NH331545  25.783   0.776  12.808  0.0316  0.3710  0.2612
 2689DOPE   PO431546  26.085   0.919  12.713 -0.0771 -0.0958  0.0775
 2689DOPE   GL131547  26.068   1.184  13.052 -0.0188 -0.1933  0.3820
 2689DOPE   GL231548  26.311   1.330  13.176  0.0453  0.1362  0.0446
 2689DOPE   C1A31549  25.844   1.561  12.950 -0.1484 -0.2270 -0.1587
 2689DOPE   D2A31550  25.576   1.913  13.105 -0.2206 -0.0786 -0.2708
 2689DOPE   C3A31551  25.854   2.043  13.415 -0.0152 -0.2687  0.1612
 2689DOPE   C4A31552  26.137   2.016  13.784  0.0400 -0.0073 -0.0386
 2689DOPE   C1B31553  26.281   1.761  13.089 -0.0693 -0.0604 -0.0803
 2689DOPE   D2B31554  26.376   2.177  13.179 -0.2865 -0.0168  0.2813
 2689DOPE   C3B31555  26.025   2.490  13.273 -0.0586  0.1865 -0.0723
 2689DOPE   C4B31556  25.879   2.500  13.739 -0.2963  0.1688 -0.0287
 2690POSM   NC331557  26.655  11.739  12.114  0.2387  0.1013  0.0597
 2690POSM   PO431558  26.941  11.974  12.276  0.4427  0.1935 -0.1234
 2690POSM   AM131559  27.023  11.914  12.587  0.1816 -0.1876  0.0115
 2690POSM   AM231560  27.053  11.670  12.751  0.3404  0.0163 -0.2506
 2690POSM   T1A31561  27.171  12.029  13.049 -0.2050  0.2168  0.1625
 2690POSM   C2A31562  27.152  12.102  13.559 -0.1329  0.0770 -0.0435
 2690POSM   C3A31563  27.116  12.401  13.942  0.0504 -0.1401 -0.1026
 2690POSM   C1B31564  26.915  11.561  13.045  0.0115 -0.0048  0.2760
 2690POSM   D2B31565  26.758  11.306  13.388  0.1285  0.0710  0.0636
 2690POSM   C3B31566  26.490  11.433  13.730  0.0145 -0.2541 -0.1328
 2690POSM   C4B31567  26.244  11.819  13.706  0.2864  0.3305 -0.4981
 2691POSM   NC331568  27.572   3.060  12.765 -0.1098  0.0819  0.1229
 2691POSM   PO431569  27.160   3.058  12.697  0.1294  0.0804 -0.1047
 2691POSM   AM131570  27.007   2.878  12.941 -0.0277 -0.0028 -0.1508
 2691POSM   AM231571  26.828   2.986  13.174 -0.1258 -0.0485  0.0922
 2691POSM   T1A31572  26.772   2.518  13.227  0.0955  0.3020  0.1194
 2691POSM   C2A31573  26.619   2.487  13.692 -0.2814 -0.1301  0.0012
 2691POSM   C3A31574  26.737   2.397  14.120 -0.2863 -0.2423  0.2456
 2691POSM   C1B31575  26.477   2.993  13.145 -0.2702  0.0554 -0.1307
 2691POSM   D2B31576  26.034   3.106  13.035 -0.1810  0.0325 -0.0916
 2691POSM   C3B31577  25.754   2.869  13.320  0.4984  0.3081 -0.1360
 2691POSM   C4B31578  25.366   2.831  13.450  0.0784 -0.1268  0.0749
 2692DOPS   CNO31579  30.700   6.383  12.312  0.0246  0.0593  0.1158
 2692DOPS   PO431580  30.728   6.215  12.665  0.0361 -0.1200 -0.0885
 2692DOPS   GL131581  30.348   6.307  12.868  0.0733 -0.2651  0.0674
 2692DOPS   GL231582  30.390   6.080  13.090 -0.0137  0.2862  0.0007
 2692DOPS   C1A31583  30.337   6.487  13.304  0.1936 -0.1351  0.2815
 2692DOPS   D2A31584  30.338   6.464  13.796 -0.1123  0.2831 -0.2540
 2692DOPS   C3A31585  30.234   6.866  14.034  0.3938 -0.3428  0.0747
 2692DOPS   C4A31586  30.446   7.046  14.313  0.0015 -0.2105 -0.0078
 2692DOPS   C1B31587  30.030   5.800  13.371 -0.0889  0.0907  0.3377
 2692DOPS   D2B31588  29.733   5.617  13.687  0.0543  0.0538  0.3617
 2692DOPS   C3B31589  29.338   5.539  13.494 -0.2863 -0.1002 -0.0337
 2692DOPS   C4B31590  29.051   5.399  13.186  0.1926  0.0211  0.1717
 2693DOPC   NC331591  25.980   8.850  12.341 -0.0032 -0.0493 -0.4829
 2693DOPC   PO431592  26.095   8.551  12.576  0.1480 -0.0395  0.0023
 2693DOPC   GL131593  25.802   8.398  12.805 -0.3916 -0.4024 -0.0624
 2693DOPC   GL231594  25.637   8.649  12.654  0.0247 -0.1152 -0.2694
 2693DOPC   C1A31595  25.659   8.709  13.147  0.1546 -0.2033 -0.1813
 2693DOPC   D2A31596  25.528   9.050  13.489 -0.4154  0.0329  0.2061
 2693DOPC   C3A31597  25.224   9.363  13.695  0.2205  0.1907 -0.3197
 2693DOPC   C4A31598  24.847   9.153  13.832 -0.2056  0.2152 -0.1579
 2693DOPC   C1B31599  25.220   8.753  12.839  0.0007 -0.0540  0.2053
 2693DOPC   D2B31600  24.779   8.891  12.877  0.2141  0.1074  0.2501
 2693DOPC   C3B31601  24.431   8.858  13.098  0.0574 -0.0071  0.0765
 2693DOPC   C4B31602  24.002   8.584  13.056 -0.2796  0.3009 -0.0192
 2694POSM   NC331603  22.698   6.175  13.101 -0.0082  0.0090  0.0379
 2694POSM   PO431604  22.611   5.984  12.739  0.0015  0.1149  0.0172
 2694POSM   AM131605  22.918   5.933  12.729 -0.1520 -0.2673 -0.0434
 2694POSM   AM231606  23.099   5.894  12.903 -0.2695  0.0463 -0.0731
 2694POSM   T1A31607  23.370   6.041  12.505 -0.0433 -0.0837  0.1402
 2694POSM   C2A31608  23.754   5.868  12.724 -0.1133  0.0074 -0.0859
 2694POSM   C3A31609  23.810   5.850  13.136 -0.2023 -0.0100  0.0295
 2694POSM   C1B31610  23.358   5.633  12.849  0.0719  0.2165 -0.5055
 2694POSM   D2B31611  23.367   5.183  12.874 -0.2268  0.0551 -0.0183
 2694POSM   C3B31612  23.138   5.061  12.458 -0.1976  0.1478  0.4565
 2694POSM   C4B31613  22.941   4.965  12.046  0.4097  0.1049  0.0785
 2695DOPE   NH331614  29.525   3.370  12.755 -0.3025  0.0523  0.0945
 2695DOPE   PO431615  29.302   3.185  12.913 -0.2395  0.0304 -0.0387
 2695DOPE   GL131616  29.392   3.481  13.198 -0.1904  0.1394  0.0183
 2695DOPE   GL231617  29.048   3.565  13.149  0.0179 -0.1020 -0.1186
 2695DOPE   C1A31618  29.372   3.928  13.320  0.2588 -0.1510  0.1133
 2695DOPE   D2A31619  29.363   4.373  13.184  0.2135 -0.1529 -0.3787
 2695DOPE   C3A31620  29.315   4.599  13.564  0.1240 -0.0966  0.2316
 2695DOPE   C4A31621  28.989   4.715  13.893 -0.1020 -0.0185  0.1817
 2695DOPE   C1B31622  28.848   3.784  13.484  0.0750 -0.2120 -0.0890
 2695DOPE   D2B31623  28.912   4.243  13.596 -0.2881  0.0210 -0.2857
 2695DOPE   C3B31624  28.542   4.355  13.358  0.1601  0.0868 -0.1151
 2695DOPE   C4B31625  28.407   4.721  13.133 -0.1280  0.2689 -0.1530
 2696POSM   NC331626  24.331   7.169  12.534  0.0765 -0.1328  0.1113
 2696POSM   PO431627  24.496   7.244  12.895 -0.2509  0.0153 -0.1161
 2696POSM   AM131628  24.181   7.327  12.969  0.2376 -0.0846 -0.0533
 2696POSM   AM231629  24.016   7.484  12.767 -0.2162  0.1814  0.4121
 2696POSM   T1A31630  23.886   7.616  13.273  0.1319 -0.1568 -0.1282
 2696POSM   C2A31631  23.577   7.901  13.179  0.3355  0.1598 -0.1483
 2696POSM   C3A31632  23.447   8.272  12.952 -0.4628  0.0515  0.0046
 2696POSM   C1B31633  23.755   7.745  12.679  0.0058  0.1355 -0.0038
 2696POSM   D2B31634  23.636   8.106  12.405  0.1337  0.1556 -0.0482
 2696POSM   C3B31635  23.512   8.521  12.496 -0.1726  0.1798 -0.0425
 2696POSM   C4B31636  23.228   8.719  12.759 -0.0486  0.1209 -0.0770
 2697POSM   NC331637  26.319   5.993  12.958  0.1554  0.0472 -0.0197
 2697POSM   PO431638  26.161   6.250  13.159  0.0746 -0.1733 -0.0433
 2697POSM   AM131639  26.096   6.318  13.474  0.0669  0.0404 -0.0306
 2697POSM   AM231640  26.129   6.526  13.651 -0.0721 -0.2104  0.0888
 2697POSM   T1A31641  26.265   6.112  13.908 -0.2008 -0.0648  0.2532
 2697POSM   C2A31642  26.668   6.088  14.107  0.1295  0.0843  0.0505
 2697POSM   C3A31643  26.844   5.789  14.379  0.3642 -0.0221 -0.0488
 2697POSM   C1B31644  26.219   6.777  13.504 -0.2319 -0.2208  0.1358
 2697POSM   D2B31645  26.347   6.975  13.138  0.0416 -0.1713 -0.1472
 2697POSM   C3B31646  26.042   7.077  12.757 -0.1947 -0.0581 -0.3330
 2697POSM   C4B31647  25.694   7.115  12.396 -0.1403 -0.1456  0.0883
 2698POSM   NC331648  24.758   6.114  12.779  0.0355  0.0489  0.0461
 2698POSM   PO431649  24.933   6.407  12.956 -0.2233  0.2378 -0.2602
 2698POSM   AM131650  25.057   6.381  13.260  0.0297  0.0606  0.2324
 2698POSM   AM231651  25.286   6.510  13.420  0.1248  0.0251 -0.1408
 2698POSM   T1A31652  25.130   6.072  13.693 -0.0052 -0.1936 -0.2054
 2698POSM   C2A31653  25.251   5.955  14.111 -0.3706 -0.2942  0.0746
 2698POSM   C3A31654  25.359   5.679  14.443 -0.2534  0.0524 -0.0249
 2698POSM   C1B31655  25.204   6.562  13.729  0.0857 -0.0082  0.0967
 2698POSM   D2B31656  25.278   6.947  13.998 -0.0483  0.0744 -0.0620
 2698POSM   C3B31657  25.215   6.782  14.402 -0.0244  0.3778  0.3093
 2698POSM   C4B31658  25.297   6.675  14.857  0.0738 -0.4184 -0.0383
 2699DOPS   CNO31659  31.072   3.939  12.027  0.5148  0.1587 -0.1879
 2699DOPS   PO431660  31.424   3.924  11.923 -0.1759 -0.1032 -0.0582
 2699DOPS   GL131661  31.545   4.189  12.205  0.0863 -0.0320 -0.0764
 2699DOPS   GL231662  31.621   4.423  12.345  0.1497 -0.1996  0.1710
 2699DOPS   C1A31663  31.989   4.043  12.325 -0.1584  0.3159 -0.2070
 2699DOPS   D2A31664  32.489   3.979  12.430  0.1662 -0.0061 -0.1949
 2699DOPS   C3A31665  32.549   3.793  12.886  0.1859 -0.1765  0.0178
 2699DOPS   C4A31666  32.886   3.493  13.026  0.1797  0.1099  0.0388
 2699DOPS   C1B31667  31.935   4.521  12.704  0.3855 -0.0696 -0.0042
 2699DOPS   D2B31668  32.205   4.877  12.877  0.2595 -0.0019  0.2441
 2699DOPS   C3B31669  32.605   4.821  13.075 -0.0196  0.2324 -0.3140
 2699DOPS   C4B31670  32.587   4.667  13.530 -0.1262  0.1845  0.2242
 2700POSM   NC331671  29.672   0.304  12.971 -0.1773 -0.2528 -0.3600
 2700POSM   PO431672  29.666   0.483  12.629 -0.0507  0.0615 -0.0187
 2700POSM   AM131673  29.542   0.716  12.767 -0.0342  0.0537  0.4474
 2700POSM   AM231674  29.430   0.745  13.041 -0.1191  0.0464  0.1658
 2700POSM   T1A31675  29.160   1.074  12.789 -0.0460  0.1685 -0.1193
 2700POSM   C2A31676  29.055   1.485  12.838 -0.2622 -0.1561 -0.0745
 2700POSM   C3A31677  29.153   1.825  13.180 -0.0072 -0.0034  0.1198
 2700POSM   C1B31678  29.116   0.793  13.237  0.0986  0.0118  0.1234
 2700POSM   D2B31679  28.804   0.922  13.548 -0.2444  0.0007  0.0913
 2700POSM   C3B31680  28.864   1.285  13.854  0.1790 -0.0716 -0.1636
 2700POSM   C4B31681  28.900   1.339  14.293 -0.0347  0.2894  0.0789
 2701DOPE   NH331682  34.466   3.647  12.535  0.2719  0.3552 -0.2490
 2701DOPE   PO431683  34.333   3.915  12.479 -0.3055 -0.0120  0.0235
 2701DOPE   GL131684  33.984   3.944  12.701  0.1626 -0.0112  0.1678
 2701DOPE   GL231685  33.821   3.956  12.517 -0.1978  0.1052  0.1042
 2701DOPE   C1A31686  33.558   4.009  12.920  0.1325 -0.0968 -0.0315
 2701DOPE   D2A31687  33.072   3.934  12.944 -0.0726  0.1293 -0.0946
 2701DOPE   C3A31688  32.788   3.931  13.360 -0.0706  0.1426  0.0625
 2701DOPE   C4A31689  32.612   4.170  13.694  0.1750 -0.2548  0.2501
 2701DOPE   C1B31690  33.366   4.008  12.465 -0.3998 -0.0064  0.0362
 2701DOPE   D2B31691  32.976   4.215  12.495 -0.3765  0.1666  0.3349
 2701DOPE   C3B31692  33.097   4.431  12.864 -0.3493  0.0350 -0.1775
 2701DOPE   C4B31693  33.009   4.420  13.267  0.2924  0.1930  0.2861
 2702DOPE   NH331694  33.598  10.699  12.330  0.3683  0.2180  0.1572
 2702DOPE   PO431695  33.859  10.563  12.490 -0.3116 -0.0280  0.0359
 2702DOPE   GL131696  33.806  10.245  12.643  0.0062 -0.4490 -0.3091
 2702DOPE   GL231697  33.458  10.321  12.693  0.1130 -0.1419 -0.2946
 2702DOPE   C1A31698  33.731  10.058  13.054  0.1388  0.2875  0.0595
 2702DOPE   D2A31699  33.662  10.094  13.519  0.1349 -0.1330 -0.0899
 2702DOPE   C3A31700  33.408   9.954  13.864 -0.1802  0.2568 -0.1187
 2702DOPE   C4A31701  33.071  10.057  14.120  0.2794  0.0452  0.1647
 2702DOPE   C1B31702  33.282  10.001  12.891 -0.1764 -0.1715 -0.2264
 2702DOPE   D2B31703  33.301   9.730  13.272 -0.0608 -0.1818  0.2053
 2702DOPE   C3B31704  33.045   9.347  13.314 -0.0066 -0.0439  0.3527
 2702DOPE   C4B31705  32.715   9.183  12.971  0.0678  0.0762 -0.2501
 2703DOPE   NH331706  27.540   7.148  12.691 -0.0719 -0.3365 -0.1830
 2703DOPE   PO431707  27.314   6.891  12.759 -0.1017  0.0890 -0.3505
 2703DOPE   GL131708  27.625   6.777  12.949  0.2874 -0.2204 -0.2336
 2703DOPE   GL231709  27.891   6.842  12.828  0.1883 -0.1572  0.1207
 2703DOPE   C1A31710  27.515   6.745  13.424 -0.1354 -0.2314 -0.1071
 2703DOPE   D2A31711  27.305   7.072  13.712 -0.0086  0.1685 -0.5101
 2703DOPE   C3A31712  27.442   6.910  14.121  0.2879  0.0515  0.0435
 2703DOPE   C4A31713  27.369   6.681  14.462 -0.0826 -0.0572 -0.2192
 2703DOPE   C1B31714  28.007   6.815  13.289  0.0654 -0.1297 -0.1456
 2703DOPE   D2B31715  28.225   7.146  13.637 -0.1789 -0.0928  0.0921
 2703DOPE   C3B31716  28.398   6.900  14.039  0.2839 -0.4094  0.2216
 2703DOPE   C4B31717  28.564   6.437  14.152 -0.1216 -0.0140 -0.0202
 2704DOPE   NH331718  23.370   3.013  12.226  0.1355  0.0113  0.1177
 2704DOPE   PO431719  23.444   3.030  11.925  0.3022 -0.1530 -0.0977
 2704DOPE   GL131720  23.563   2.641  11.864 -0.2314 -0.2169 -0.2607
 2704DOPE   GL231721  23.816   2.722  12.074  0.1361  0.1189 -0.2632
 2704DOPE   C1A31722  23.603   2.228  12.030  0.0990  0.1275 -0.3254
 2704DOPE   D2A31723  23.862   1.957  12.261  0.0368 -0.1259  0.2098
 2704DOPE   C3A31724  24.272   1.969  12.485  0.3422 -0.0667 -0.0297
 2704DOPE   C4A31725  24.363   2.314  12.729 -0.0746  0.0320 -0.0298
 2704DOPE   C1B31726  23.894   2.393  12.442  0.2177  0.0538 -0.2946
 2704DOPE   D2B31727  23.863   2.085  12.751 -0.0418 -0.1272 -0.3852
 2704DOPE   C3B31728  23.708   1.711  13.105 -0.0234 -0.0378  0.0924
 2704DOPE   C4B31729  23.321   1.609  13.236 -0.0525 -0.3743 -0.2050
 2705POSM   NC331730  23.921   3.737  12.608 -0.1521 -0.1665  0.1066
 2705POSM   PO431731  24.117   3.580  12.280  0.1336  0.3865 -0.2962
 2705POSM   AM131732  24.244   3.411  12.553 -0.0164  0.2304  0.0459
 2705POSM   AM231733  24.439   3.374  12.764  0.0846 -0.2373 -0.0589
 2705POSM   T1A31734  24.237   2.926  12.727 -0.0954  0.1784 -0.0864
 2705POSM   C2A31735  23.971   2.599  12.903  0.0434  0.0133 -0.4474
 2705POSM   C3A31736  23.566   2.448  13.083  0.3750  0.0417 -0.0398
 2705POSM   C1B31737  24.254   3.300  13.060 -0.0166  0.0044  0.2324
 2705POSM   D2B31738  23.997   3.203  13.395  0.0482 -0.2565 -0.1780
 2705POSM   C3B31739  23.836   2.811  13.542 -0.0638 -0.1652  0.1344
 2705POSM   C4B31740  23.743   2.409  13.676 -0.0033 -0.2315 -0.1931
 2706DOPC   NC331741  32.993   8.751  12.780  0.1558  0.0614  0.0503
 2706DOPC   PO431742  33.366   8.721  12.564 -0.1854 -0.0138 -0.0419
 2706DOPC   GL131743  33.443   8.808  12.970 -0.1122 -0.0055  0.1259
 2706DOPC   GL231744  33.259   8.985  13.088  0.3080  0.1313  0.1260
 2706DOPC   C1A31745  33.738   8.766  13.319 -0.2099  0.1108  0.0277
 2706DOPC   D2A31746  34.119   8.512  13.425  0.1126 -0.0011 -0.0247
 2706DOPC   C3A31747  34.507   8.314  13.154  0.1566 -0.3134 -0.2985
 2706DOPC   C4A31748  34.838   8.040  13.001 -0.1050 -0.1660  0.0238
 2706DOPC   C1B31749  33.245   9.394  12.824  0.1404  0.3695  0.0479
 2706DOPC   D2B31750  32.940   9.697  12.686  0.0453 -0.0938  0.0382
 2706DOPC   C3B31751  32.830   9.870  13.138  0.2313  0.2699  0.0443
 2706DOPC   C4B31752  32.618  10.257  13.356 -0.1802 -0.0402 -0.2795
 2707DOPC   NC331753  29.628  10.107  12.614  0.1244 -0.0929  0.1839
 2707DOPC   PO431754  29.385  10.251  12.897 -0.1251 -0.1521  0.1897
 2707DOPC   GL131755  29.500  10.047  13.175  0.0237  0.1310 -0.2893
 2707DOPC   GL231756  29.432   9.754  13.117  0.0617  0.0452  0.2417
 2707DOPC   C1A31757  29.265   9.810  13.524 -0.0069 -0.2691  0.0559
 2707DOPC   D2A31758  28.964   9.530  13.786 -0.3481  0.3156 -0.0237
 2707DOPC   C3A31759  28.824   9.795  14.149  0.2641  0.0580 -0.1242
 2707DOPC   C4A31760  28.614   9.863  14.635 -0.2577 -0.1075  0.1630
 2707DOPC   C1B31761  29.710   9.669  13.425  0.0467 -0.1091 -0.0893
 2707DOPC   D2B31762  29.949   9.340  13.630 -0.1018  0.1520  0.0463
 2707DOPC   C3B31763  29.999   9.110  14.042  0.0094 -0.2744 -0.0010
 2707DOPC   C4B31764  29.795   8.754  14.333  0.0858  0.1997  0.2043
 2708POSM   NC331765  25.648   5.401  13.242 -0.0353 -0.1006 -0.2306
 2708POSM   PO431766  25.331   5.500  13.084 -0.3146  0.1209  0.0068
 2708POSM   AM131767  25.096   5.382  13.296 -0.1375 -0.0386 -0.0051
 2708POSM   AM231768  24.964   5.083  13.348  0.0632 -0.0705 -0.0696
 2708POSM   T1A31769  24.596   5.445  13.414 -0.1581  0.1068  0.0366
 2708POSM   C2A31770  24.397   5.000  13.479  0.4044 -0.0214  0.3205
 2708POSM   C3A31771  23.986   4.892  13.402 -0.0378 -0.2108 -0.1248
 2708POSM   C1B31772  24.883   5.135  13.727 -0.0163 -0.0801 -0.3094
 2708POSM   D2B31773  24.534   5.114  14.025  0.1285 -0.1281 -0.3133
 2708POSM   C3B31774  24.438   5.480  14.268  0.0450  0.0008 -0.1184
 2708POSM   C4B31775  24.235   5.873  14.218 -0.2805 -0.1271 -0.0011
 2709POSM   NC331776  31.632   6.412  12.966 -0.5678 -0.0449  0.0564
 2709POSM   PO431777  31.955   6.651  12.897  0.1401 -0.0899  0.0770
 2709POSM   AM131778  32.132   6.492  13.089  0.0684  0.2739  0.1414
 2709POSM   AM231779  32.286   6.510  13.328  0.0734 -0.0928  0.3883
 2709POSM   T1A31780  32.325   6.058  13.253 -0.0714 -0.2291 -0.0303
 2709POSM   C2A31781  32.278   5.600  13.270  0.3341  0.0734  0.2726
 2709POSM   C3A31782  32.538   5.309  12.976 -0.0276 -0.1446  0.1994
 2709POSM   C1B31783  32.360   6.577  13.690 -0.1334  0.1237  0.0348
 2709POSM   D2B31784  32.340   6.637  14.153  0.0740  0.0777  0.1616
 2709POSM   C3B31785  32.444   6.188  14.305 -0.0480 -0.3923  0.2169
 2709POSM   C4B31786  32.569   5.983  14.705 -0.0807  0.2459  0.0209
 2710DOPS   CNO31787  30.883   2.359  12.799 -0.2619 -0.1008  0.0975
 2710DOPS   PO431788  31.120   2.648  12.662 -0.0830 -0.2268  0.1407
 2710DOPS   GL131789  31.382   2.855  12.909 -0.1015  0.1274 -0.1687
 2710DOPS   GL231790  31.594   2.915  12.733  0.2598 -0.0839  0.4257
 2710DOPS   C1A31791  31.317   2.778  13.377 -0.1165 -0.0547 -0.1625
 2710DOPS   D2A31792  30.961   2.707  13.697 -0.3858 -0.2575  0.4363
 2710DOPS   C3A31793  30.496   2.622  13.535 -0.2452  0.0100 -0.3860
 2710DOPS   C4A31794  30.041   2.752  13.371  0.1206  0.1453 -0.0095
 2710DOPS   C1B31795  32.005   2.763  12.759 -0.0307  0.1294  0.0842
 2710DOPS   D2B31796  32.445   2.876  12.734 -0.0972  0.1340  0.1163
 2710DOPS   C3B31797  32.740   3.252  12.572 -0.1708  0.1741  0.0829
 2710DOPS   C4B31798  32.929   3.679  12.540 -0.2433  0.0450 -0.0071
 2711DOPE   NH331799  31.611   7.127  12.541 -0.1851  0.2621  0.1491
 2711DOPE   PO431800  31.558   7.455  12.503  0.4325  0.2398  0.3413
 2711DOPE   GL131801  31.266   7.757  12.752  0.0189  0.2222 -0.2525
 2711DOPE   GL231802  31.511   7.704  12.960  0.0149  0.0166 -0.0812
 2711DOPE   C1A31803  31.040   8.084  13.039 -0.1373 -0.4259 -0.2358
 2711DOPE   D2A31804  30.981   8.276  13.404  0.1098  0.0143  0.1539
 2711DOPE   C3A31805  31.088   8.693  13.581 -0.0069 -0.0299  0.3205
 2711DOPE   C4A31806  31.471   8.856  13.761 -0.0516 -0.1777 -0.1166
 2711DOPE   C1B31807  31.582   8.075  12.676  0.1136 -0.0391  0.0273
 2711DOPE   D2B31808  31.823   8.323  12.402  0.2645 -0.1080  0.0735
 2711DOPE   C3B31809  31.631   8.787  12.463  0.1171  0.1517  0.0456
 2711DOPE   C4B31810  31.520   9.088  12.818 -0.1263  0.1125  0.1174
 2712DOPC   NC331811  30.795   5.752  12.702 -0.1401  0.1028 -0.0994
 2712DOPC   PO431812  30.488   5.549  12.486 -0.2414  0.0056  0.0100
 2712DOPC   GL131813  30.299   5.155  12.540 -0.1556  0.0374  0.1114
 2712DOPC   GL231814  30.027   5.147  12.526  0.0496 -0.2619  0.3619
 2712DOPC   C1A31815  30.357   4.739  12.803  0.1715 -0.1089 -0.4144
 2712DOPC   D2A31816  30.526   4.308  12.866  0.3996  0.0104  0.2383
 2712DOPC   C3A31817  30.482   4.046  13.263  0.0591 -0.2111  0.3040
 2712DOPC   C4A31818  30.611   4.005  13.759 -0.0950  0.1555 -0.0224
 2712DOPC   C1B31819  30.006   5.049  12.942  0.0676  0.0819 -0.0290
 2712DOPC   D2B31820  29.637   4.787  13.075 -0.1485 -0.0442  0.1097
 2712DOPC   C3B31821  29.199   4.861  13.145 -0.4373 -0.2846 -0.0572
 2712DOPC   C4B31822  28.826   4.812  13.380  0.0971  0.0268  0.0845
 2713DOPC   NC331823  27.364   8.161  12.982  0.1342  0.1166 -0.1647
 2713DOPC   PO431824  27.218   7.828  12.946 -0.1862  0.0857  0.1611
 2713DOPC   GL131825  27.238   7.836  13.292 -0.0689 -0.2654 -0.1295
 2713DOPC   GL231826  27.611   7.764  13.242 -0.0494  0.0958 -0.2074
 2713DOPC   C1A31827  27.437   8.179  13.602 -0.1256 -0.2432  0.1317
 2713DOPC   D2A31828  27.841   8.276  13.781 -0.1360  0.2160  0.0388
 2713DOPC   C3A31829  28.324   8.352  13.811 -0.2317  0.0846 -0.2685
 2713DOPC   C4A31830  28.782   8.417  13.801 -0.0494 -0.0447 -0.1279
 2713DOPC   C1B31831  27.825   7.723  13.621  0.2084  0.2058  0.1331
 2713DOPC   D2B31832  28.178   7.737  13.959 -0.2543  0.0868  0.0931
 2713DOPC   C3B31833  28.491   7.435  14.031  0.1163  0.0270  0.2471
 2713DOPC   C4B31834  28.702   7.238  14.408  0.2044 -0.0797 -0.3442
 2714DOPC   NC331835  28.542  10.304  12.601 -0.2858 -0.1000 -0.1930
 2714DOPC   PO431836  28.960  10.439  12.683  0.0037 -0.0074  0.1184
 2714DOPC   GL131837  28.949  10.096  12.963 -0.1806  0.1256 -0.1989
 2714DOPC   GL231838  28.651  10.137  13.035 -0.0040 -0.1298  0.4540
 2714DOPC   C1A31839  28.929   9.674  13.009 -0.0206  0.1465 -0.1662
 2714DOPC   D2A31840  28.571   9.438  13.066  0.0844 -0.0009  0.1098
 2714DOPC   C3A31841  28.386   9.162  13.409 -0.0007 -0.0361  0.2045
 2714DOPC   C4A31842  28.546   8.976  13.742  0.3001 -0.3298 -0.1070
 2714DOPC   C1B31843  28.670   9.901  13.403  0.0182  0.2673 -0.1359
 2714DOPC   D2B31844  28.280   9.832  13.642 -0.0684 -0.1173  0.2152
 2714DOPC   C3B31845  28.471   9.466  13.881  0.2942  0.0622  0.0631
 2714DOPC   C4B31846  28.415   9.393  14.355  0.1076  0.1539 -0.3099
 2715DOPE   NH331847  31.101   0.728  12.718 -0.0734  0.4643  0.1058
 2715DOPE   PO431848  30.905   0.844  12.480 -0.3314  0.0911  0.0725
 2715DOPE   GL131849  30.753   1.021  12.839 -0.4462  0.3597  0.3382
 2715DOPE   GL231850  30.698   1.255  12.733  0.3860  0.0210  0.1009
 2715DOPE   C1A31851  30.394   0.977  13.119  0.1108  0.1458  0.2690
 2715DOPE   D2A31852  30.419   1.120  13.521 -0.2483  0.0890 -0.2830
 2715DOPE   C3A31853  30.009   1.104  13.852 -0.3084  0.0316  0.1697
 2715DOPE   C4A31854  29.843   1.102  14.298  0.1350 -0.2014 -0.0272
 2715DOPE   C1B31855  30.689   1.320  13.217 -0.2622 -0.1573 -0.2161
 2715DOPE   D2B31856  30.676   1.518  13.635  0.3282 -0.0605  0.2038
 2715DOPE   C3B31857  30.618   1.265  14.048 -0.2086  0.0347 -0.1203
 2715DOPE   C4B31858  30.642   1.203  14.481  0.2073  0.4614 -0.1515
 2716DOPC   NC331859  33.533   7.890  12.117 -0.1648 -0.0947 -0.0637
 2716DOPC   PO431860  33.312   7.732  12.371  0.3812  0.1063  0.0494
 2716DOPC   GL131861  33.403   7.718  12.704 -0.1170  0.0977 -0.0262
 2716DOPC   GL231862  33.207   7.648  12.937  0.1233  0.2852 -0.2195
 2716DOPC   C1A31863  33.792   7.852  13.032 -0.2236  0.1280  0.5623
 2716DOPC   D2A31864  33.844   7.752  13.477 -0.2437  0.1463 -0.0899
 2716DOPC   C3A31865  34.011   8.024  13.817 -0.5758 -0.2090  0.1590
 2716DOPC   C4A31866  34.012   8.193  14.192 -0.0549 -0.2871  0.0835
 2716DOPC   C1B31867  33.456   7.473  13.299 -0.0427  0.2321 -0.0054
 2716DOPC   D2B31868  33.429   7.635  13.753  0.1633 -0.1029 -0.3253
 2716DOPC   C3B31869  33.519   7.988  13.955 -0.3412  0.1156 -0.0658
 2716DOPC   C4B31870  33.522   8.197  14.306 -0.2367 -0.0812 -0.0370
 2717POSM   NC331871  25.468   3.862  12.810 -0.1625  0.2694  0.3771
 2717POSM   PO431872  25.738   3.746  12.565 -0.1685 -0.2359 -0.0414
 2717POSM   AM131873  25.892   3.673  12.843  0.2544 -0.1147 -0.0261
 2717POSM   AM231874  25.865   3.712  13.115 -0.1459 -0.1530  0.0381
 2717POSM   T1A31875  26.342   3.529  13.037 -0.0447 -0.1494 -0.0224
 2717POSM   C2A31876  26.724   3.481  12.862  0.4120 -0.1456  0.3991
 2717POSM   C3A31877  26.843   3.461  12.399  0.2773  0.1444  0.0957
 2717POSM   C1B31878  25.899   3.841  13.430  0.0058  0.3702  0.4033
 2717POSM   D2B31879  25.954   3.790  13.879 -0.2077 -0.0267 -0.0954
 2717POSM   C3B31880  26.313   3.825  14.199 -0.1603  0.0181 -0.3593
 2717POSM   C4B31881  26.294   3.990  14.641  0.6214  0.3229 -0.0560
 2718DOPS   CNO31882  25.322   0.085  12.216  0.1086 -0.0322 -0.1829
 2718DOPS   PO431883  25.356  -0.213  12.409  0.4120 -0.0880  0.0187
 2718DOPS   GL131884  25.773  -0.174  12.711 -0.2862 -0.0903 -0.3370
 2718DOPS   GL231885  25.508  -0.263  12.891 -0.1850  0.0530 -0.0481
 2718DOPS   C1A31886  26.051  -0.487  12.785 -0.1254 -0.1412 -0.2788
 2718DOPS   D2A31887  26.283  -0.852  12.693 -0.1165  0.0087 -0.2111
 2718DOPS   C3A31888  26.040  -1.079  12.453 -0.0475  0.2477  0.0523
 2718DOPS   C4A31889  25.582  -1.260  12.555 -0.2439  0.1002  0.0047
 2718DOPS   C1B31890  25.509  -0.727  12.878  0.1693 -0.2155  0.1229
 2718DOPS   D2B31891  25.817  -1.025  12.977 -0.2052  0.2284 -0.0996
 2718DOPS   C3B31892  25.969  -0.994  13.420 -0.0545  0.0514 -0.3123
 2718DOPS   C4B31893  26.107  -0.587  13.681 -0.2649 -0.1395 -0.0053
 2719DOPE   NH331894  25.301   5.575  12.510 -0.1338 -0.0925  0.1674
 2719DOPE   PO431895  25.067   5.702  12.691  0.3085 -0.1521  0.0751
 2719DOPE   GL131896  24.729   5.729  12.987 -0.2378 -0.4731  0.3229
 2719DOPE   GL231897  24.808   5.833  13.162  0.2202  0.2810 -0.0491
 2719DOPE   C1A31898  24.319   5.846  13.237  0.1397  0.1073  0.0676
 2719DOPE   D2A31899  24.238   5.804  13.658  0.3090 -0.2334  0.3215
 2719DOPE   C3A31900  24.160   5.412  13.892 -0.0938 -0.1851 -0.3371
 2719DOPE   C4A31901  24.019   5.002  13.995 -0.1627 -0.0154 -0.1446
 2719DOPE   C1B31902  24.661   6.084  13.467  0.1109 -0.1668 -0.0967
 2719DOPE   D2B31903  24.598   6.408  13.775 -0.3025 -0.4060  0.0736
 2719DOPE   C3B31904  24.810   6.616  14.122 -0.3183  0.1363  0.0648
 2719DOPE   C4B31905  24.750   7.008  14.345 -0.0643  0.5892  0.0807
 2720POSM   NC331906  22.825   2.333  11.886 -0.0890  0.1025  0.4074
 2720POSM   PO431907  22.938   2.660  12.094 -0.0489  0.3317 -0.0047
 2720POSM   AM131908  23.156   2.577  12.309  0.1200  0.1424 -0.0254
 2720POSM   AM231909  23.289   2.342  12.409 -0.3849  0.1178 -0.0791
 2720POSM   T1A31910  23.522   2.691  12.617  0.3755  0.0872 -0.0142
 2720POSM   C2A31911  23.679   2.952  12.964  0.1005 -0.3309  0.1844
 2720POSM   C3A31912  23.392   3.032  13.387  0.1760  0.1578  0.0676
 2720POSM   C1B31913  23.352   2.118  12.710  0.2301  0.0431 -0.1677
 2720POSM   D2B31914  23.255   2.097  13.161  0.1023  0.1829  0.1693
 2720POSM   C3B31915  22.876   2.007  13.409  0.1986 -0.1305  0.4937
 2720POSM   C4B31916  22.415   2.009  13.503 -0.1303  0.2809 -0.0391
 2721DOPC   NC331917  29.920   5.652  12.440 -0.1230 -0.2066  0.1282
 2721DOPC   PO431918  29.813   5.945  12.152 -0.0314 -0.0562  0.5379
 2721DOPC   GL131919  29.518   5.890  12.410 -0.0329 -0.2193  0.1527
 2721DOPC   GL231920  29.285   6.037  12.331 -0.1974 -0.1392  0.1117
 2721DOPC   C1A31921  29.505   5.421  12.613 -0.2396 -0.0937 -0.0546
 2721DOPC   D2A31922  29.263   5.019  12.662  0.2792 -0.0831 -0.4373
 2721DOPC   C3A31923  28.990   4.894  12.358 -0.2652  0.2180  0.1282
 2721DOPC   C4A31924  29.100   4.491  12.091 -0.1855 -0.1606  0.0013
 2721DOPC   C1B31925  29.044   6.042  12.706  0.0223  0.0500 -0.2412
 2721DOPC   D2B31926  29.070   5.875  13.155 -0.1733 -0.0001 -0.1577
 2721DOPC   C3B31927  29.048   6.229  13.453  0.1052 -0.0742  0.0317
 2721DOPC   C4B31928  28.887   6.204  13.919  0.2623  0.1136  0.1207
 2722DOPS   CNO31929  26.366   0.476  12.424 -0.1146 -0.0677 -0.1509
 2722DOPS   PO431930  26.145   0.425  12.752 -0.1006  0.0066  0.1663
 2722DOPS   GL131931  26.094   0.624  13.127  0.3140  0.0470  0.2176
 2722DOPS   GL231932  26.292   0.476  13.263 -0.1982 -0.2542 -0.0134
 2722DOPS   C1A31933  26.120   0.919  13.498 -0.1463  0.0340 -0.0425
 2722DOPS   D2A31934  25.948   1.169  13.874 -0.0078 -0.0329 -0.0490
 2722DOPS   C3A31935  25.797   0.909  14.204 -0.1447 -0.4275  0.1426
 2722DOPS   C4A31936  25.624   0.490  14.288 -0.1892 -0.2984 -0.0628
 2722DOPS   C1B31937  26.429   0.436  13.702 -0.1627  0.0845  0.3464
 2722DOPS   D2B31938  26.664   0.468  14.075  0.4805  0.3116  0.3521
 2722DOPS   C3B31939  26.941   0.840  14.150  0.1805 -0.1972 -0.0103
 2722DOPS   C4B31940  27.055   1.168  14.441  0.1440  0.0265 -0.3219
 2723DOPC   NC331941  24.374   4.958  12.665 -0.0663  0.1049 -0.0752
 2723DOPC   PO431942  24.566   4.889  12.979  0.0122  0.2384 -0.0874
 2723DOPC   GL131943  24.825   4.673  13.221  0.2041  0.0310  0.2158
 2723DOPC   GL231944  24.986   4.418  13.153  0.4653  0.2550 -0.2907
 2723DOPC   C1A31945  24.671   4.610  13.680  0.2012 -0.2132 -0.2310
 2723DOPC   D2A31946  24.409   4.594  14.023 -0.0307  0.0212  0.1545
 2723DOPC   C3A31947  24.730   4.473  14.336  0.0652  0.0554 -0.2212
 2723DOPC   C4A31948  24.818   4.022  14.408  0.1670  0.3280  0.1132
 2723DOPC   C1B31949  24.822   4.103  13.456  0.2336  0.2711 -0.0044
 2723DOPC   D2B31950  24.819   3.721  13.635 -0.0363 -0.0565  0.3142
 2723DOPC   C3B31951  25.045   3.711  14.003  0.3912  0.2551  0.0676
 2723DOPC   C4B31952  25.420   3.869  14.201 -0.0076  0.3639 -0.1011
 2724DOPC   NC331953  28.544   3.683  13.079  0.0001  0.4013  0.0749
 2724DOPC   PO431954  28.315   3.548  12.798  0.3332 -0.2060 -0.2463
 2724DOPC   GL131955  28.330   3.242  13.058 -0.2133 -0.3343  0.2614
 2724DOPC   GL231956  28.068   3.160  12.977 -0.0080  0.2888 -0.2296
 2724DOPC   C1A31957  28.363   3.259  13.503 -0.1457  0.3320 -0.1587
 2724DOPC   D2A31958  28.468   3.520  13.843 -0.3728  0.1115 -0.1670
 2724DOPC   C3A31959  28.802   3.762  13.965 -0.0009  0.3572  0.1112
 2724DOPC   C4A31960  28.943   4.192  14.114 -0.0966 -0.0105 -0.4365
 2724DOPC   C1B31961  27.675   3.275  13.183  0.2609 -0.3133 -0.1901
 2724DOPC   D2B31962  27.288   3.504  13.071  0.0990 -0.1228 -0.1998
 2724DOPC   C3B31963  26.923   3.461  13.352 -0.3648 -0.3766  0.2969
 2724DOPC   C4B31964  26.862   3.487  13.827 -0.0807 -0.3937 -0.0658
 2725DOPE   NH331965  29.915   2.599  12.599 -0.1691 -0.1864 -0.0139
 2725DOPE   PO431966  29.670   2.851  12.707 -0.1321 -0.3611 -0.1466
 2725DOPE   GL131967  29.686   2.724  13.075  0.2533  0.0190  0.0491
 2725DOPE   GL231968  29.354   2.691  13.087 -0.0215  0.2100  0.1522
 2725DOPE   C1A31969  29.535   2.851  13.482  0.1434 -0.0963  0.2172
 2725DOPE   D2A31970  29.664   3.216  13.705  0.0774  0.0700 -0.0140
 2725DOPE   C3A31971  29.798   3.285  14.100 -0.1129 -0.3214 -0.0751
 2725DOPE   C4A31972  29.687   3.330  14.548 -0.1913  0.2504  0.1971
 2725DOPE   C1B31973  29.440   2.373  13.416  0.0919 -0.0149 -0.0757
 2725DOPE   D2B31974  29.507   2.459  13.887  0.2465 -0.0715 -0.4114
 2725DOPE   C3B31975  29.454   2.118  14.159  0.1416  0.1516 -0.1375
 2725DOPE   C4B31976  29.612   1.936  14.542  0.2377 -0.3501  0.0644
 2726DOPC   NC331977  24.962   3.579  12.756 -0.3120  0.1011  0.3645
 2726DOPC   PO431978  24.750   3.650  12.430 -0.2359  0.1368 -0.1617
 2726DOPC   GL131979  24.607   3.213  12.411 -0.3556  0.0031 -0.4813
 2726DOPC   GL231980  24.852   3.081  12.647 -0.0838  0.2262 -0.1818
 2726DOPC   C1A31981  24.583   2.757  12.258  0.0659 -0.1960 -0.0929
 2726DOPC   D2A31982  24.685   2.342  12.350  0.0418  0.0726 -0.0294
 2726DOPC   C3A31983  24.862   2.458  12.753  0.2852 -0.2750  0.1139
 2726DOPC   C4A31984  24.759   2.254  13.130  0.0313  0.1065 -0.2254
 2726DOPC   C1B31985  24.638   2.919  13.036  0.0683  0.0258 -0.0085
 2726DOPC   D2B31986  24.321   2.741  13.325 -0.1474  0.1064  0.3603
 2726DOPC   C3B31987  24.231   2.464  13.696  0.1862 -0.0193  0.0049
 2726DOPC   C4B31988  24.237   2.366  14.150 -0.0265 -0.0901  0.0606
 2727DOPC   NC331989  30.500  11.221  12.894 -0.1959  0.0950  0.0092
 2727DOPC   PO431990  30.837  11.287  13.087 -0.1741  0.3556 -0.2319
 2727DOPC   GL131991  30.790  11.463  13.446 -0.0375  0.6401 -0.1671
 2727DOPC   GL231992  30.926  11.753  13.331  0.2059  0.1743 -0.1712
 2727DOPC   C1A31993  30.554  11.578  13.827  0.3412  0.0283 -0.0153
 2727DOPC   D2A31994  30.163  11.622  14.073 -0.4027  0.3656  0.3250
 2727DOPC   C3A31995  30.164  11.534  14.524 -0.1532 -0.2788  0.2774
 2727DOPC   C4A31996  30.061  11.536  15.028 -0.0333  0.0201  0.1274
 2727DOPC   C1B31997  31.053  11.663  13.730  0.2109 -0.1300  0.0986
 2727DOPC   D2B31998  31.393  11.822  13.950 -0.1355  0.3965 -0.0409
 2727DOPC   C3B31999  31.842  11.922  14.072  0.3072  0.0613 -0.3125
 2727DOPC   C4B32000  32.165  12.273  14.024 -0.1667 -0.1164  0.0341
 2728POSM   NC332001  28.709  10.897  12.488 -0.2605 -0.1043 -0.1081
 2728POSM   PO432002  28.526  10.754  12.777  0.2497 -0.2134  0.1279
 2728POSM   AM132003  28.424  10.723  13.086  0.0230  0.1350 -0.0293
 2728POSM   AM232004  28.181  10.839  13.229  0.1782  0.0620 -0.0405
 2728POSM   T1A32005  28.425  10.430  13.527  0.3316 -0.1432 -0.0336
 2728POSM   C2A32006  28.647  10.162  13.841 -0.0115 -0.0109  0.1099
 2728POSM   C3A32007  28.581  10.203  14.299  0.3137  0.0656  0.3372
 2728POSM   C1B32008  28.019  10.681  13.534  0.1177  0.0748  0.2961
 2728POSM   D2B32009  27.809  10.287  13.694 -0.0188 -0.0543  0.4432
 2728POSM   C3B32010  27.596   9.943  13.444 -0.2811 -0.1055  0.2745
 2728POSM   C4B32011  27.504   9.559  13.292 -0.2499 -0.1648  0.0460
 2729DOPE   NH332012  28.407   3.119  12.558 -0.0196 -0.2367  0.3058
 2729DOPE   PO432013  28.573   3.311  12.399 -0.2543  0.1652 -0.0017
 2729DOPE   GL132014  28.594   3.724  12.411 -0.2517  0.2379 -0.2222
 2729DOPE   GL232015  28.792   3.866  12.635  0.1094 -0.0312 -0.1330
 2729DOPE   C1A32016  28.285   4.033  12.388  0.1049  0.1343 -0.0317
 2729DOPE   D2A32017  28.170   4.522  12.353 -0.1045 -0.0899  0.1265
 2729DOPE   C3A32018  28.477   4.706  12.588 -0.3191 -0.0593 -0.1106
 2729DOPE   C4A32019  28.294   5.102  12.790 -0.0062  0.0445 -0.1196
 2729DOPE   C1B32020  28.455   4.145  12.819 -0.0433 -0.0697 -0.1029
 2729DOPE   D2B32021  28.102   4.006  13.062  0.2218  0.0422  0.1641
 2729DOPE   C3B32022  28.321   3.885  13.498  0.1429  0.0883 -0.2931
 2729DOPE   C4B32023  28.329   4.170  13.812  0.0642 -0.2663  0.0850
 2730DOPS   CNO32024  28.112   3.477  12.178 -0.1813  0.0987  0.0338
 2730DOPS   PO432025  27.936   3.290  12.491  0.1065 -0.1743 -0.0171
 2730DOPS   GL132026  27.832   3.648  12.598 -0.2356  0.0429  0.2350
 2730DOPS   GL232027  27.813   3.606  12.872  0.1956  0.0097  0.1990
 2730DOPS   C1A32028  27.385   3.723  12.590 -0.0839 -0.0034 -0.0841
 2730DOPS   D2A32029  27.082   3.953  12.765 -0.0320 -0.2492  0.0692
 2730DOPS   C3A32030  27.030   4.407  13.000 -0.0606 -0.1750 -0.2331
 2730DOPS   C4A32031  27.033   4.738  13.239  0.0045 -0.2472  0.2628
 2730DOPS   C1B32032  27.806   4.031  12.700 -0.0886 -0.0577 -0.1886
 2730DOPS   D2B32033  27.491   4.282  12.850 -0.1003 -0.0033 -0.2036
 2730DOPS   C3B32034  27.518   3.921  13.180  0.2708 -0.0203  0.2432
 2730DOPS   C4B32035  27.864   3.680  13.394 -0.1055 -0.2771 -0.1624
 2731DOPC   NC332036  27.691  10.795  12.692  0.0339 -0.1653 -0.0818
 2731DOPC   PO432037  27.902  11.119  12.843 -0.0910  0.2653  0.1224
 2731DOPC   GL132038  27.697  11.235  13.179 -0.3425 -0.1134  0.3382
 2731DOPC   GL232039  27.673  10.980  13.296 -0.2810 -0.0790  0.0264
 2731DOPC   C1A32040  27.781  11.516  13.584 -0.0952 -0.0033  0.2540
 2731DOPC   D2A32041  27.434  11.696  13.804  0.1875  0.4343 -0.3735
 2731DOPC   C3A32042  27.392  12.030  14.217  0.0175  0.2342  0.0929
 2731DOPC   C4A32043  27.458  12.411  14.440  0.1022 -0.1896 -0.1048
 2731DOPC   C1B32044  27.484  10.695  13.635 -0.2200 -0.0344  0.0923
 2731DOPC   D2B32045  27.381  10.598  14.060 -0.0571  0.1314  0.2639
 2731DOPC   C3B32046  27.321  10.799  14.479 -0.1148 -0.0616 -0.0993
 2731DOPC   C4B32047  27.207  11.239  14.647  0.0890  0.1649 -0.2640
 2732DOPE   NH332048  24.426   4.005  12.307  0.0031  0.0142 -0.1339
 2732DOPE   PO432049  24.345   4.001  12.626  0.1577  0.0750  0.1000
 2732DOPE   GL132050  24.254   3.997  12.965  0.1699  0.2516  0.5642
 2732DOPE   GL232051  23.999   4.197  13.047 -0.2768 -0.3535 -0.1906
 2732DOPE   C1A32052  23.970   3.722  13.195 -0.0492  0.0826 -0.3145
 2732DOPE   D2A32053  23.627   3.455  13.089 -0.2589  0.0577 -0.1595
 2732DOPE   C3A32054  23.293   3.753  13.260  0.3119  0.1261  0.0142
 2732DOPE   C4A32055  22.879   3.850  13.408  0.4561 -0.0775 -0.3489
 2732DOPE   C1B32056  23.861   4.126  13.498  0.1298 -0.0879 -0.0918
 2732DOPE   D2B32057  23.772   3.774  13.773  0.3902 -0.1103  0.2683
 2732DOPE   C3B32058  23.465   3.453  13.585 -0.0872 -0.1373 -0.1828
 2732DOPE   C4B32059  23.031   3.414  13.657  0.1120 -0.1432  0.2031
 2733DOPE   NH332060  29.593   6.424  12.130  0.1022 -0.0842  0.2612
 2733DOPE   PO432061  29.777   6.579  12.346  0.1586 -0.1595 -0.0753
 2733DOPE   GL132062  29.460   6.435  12.585 -0.3077 -0.1135 -0.1875
 2733DOPE   GL232063  29.533   6.135  12.745  0.1828  0.3064  0.0040
 2733DOPE   C1A32064  29.053   6.674  12.741  0.0560  0.2696  0.0485
 2733DOPE   D2A32065  28.650   6.478  12.902  0.1649  0.0286  0.2309
 2733DOPE   C3A32066  28.609   6.442  13.367  0.1062 -0.1507 -0.2774
 2733DOPE   C4A32067  28.395   6.214  13.735 -0.2396 -0.1278  0.1856
 2733DOPE   C1B32068  29.310   6.400  13.084 -0.2691  0.0635  0.1232
 2733DOPE   D2B32069  28.968   6.696  13.256 -0.0928 -0.1237  0.3694
 2733DOPE   C3B32070  28.924   6.770  13.724  0.4842 -0.0909  0.0909
 2733DOPE   C4B32071  28.927   6.913  14.177 -0.2215  0.1018  0.0482
 2734POSM   NC332072  32.419   7.908  12.980  0.3425 -0.0707 -0.0601
 2734POSM   PO432073  32.685   7.601  12.929  0.1535  0.4247  0.1678
 2734POSM   AM132074  32.742   7.606  13.234  0.0207 -0.3086  0.0737
 2734POSM   AM232075  32.641   7.452  13.423  0.3507 -0.0270 -0.3324
 2734POSM   T1A32076  32.949   7.683  13.697  0.0056 -0.0631 -0.2269
 2734POSM   C2A32077  33.063   7.812  14.142  0.2497 -0.2033 -0.5630
 2734POSM   C3A32078  33.177   7.866  14.530 -0.2208 -0.1073  0.0399
 2734POSM   C1B32079  32.529   7.311  13.625 -0.2246  0.1274  0.0408
 2734POSM   D2B32080  32.372   7.164  14.005 -0.0215 -0.0936 -0.1778
 2734POSM   C3B32081  32.314   7.401  14.422  0.2645  0.1051  0.0576
 2734POSM   C4B32082  32.161   7.850  14.394 -0.1388 -0.0123  0.4378
 2735POSM   NC332083  33.092  10.649  13.144 -0.0735 -0.1046 -0.4651
 2735POSM   PO432084  32.971  10.780  12.758  0.1557 -0.0000  0.2033
 2735POSM   AM132085  32.731  10.903  12.928 -0.1949 -0.1165 -0.0568
 2735POSM   AM232086  32.697  11.179  12.951  0.1109  0.1439  0.0274
 2735POSM   T1A32087  32.437  10.831  13.332  0.0269  0.0525 -0.1819
 2735POSM   C2A32088  32.092  10.859  13.657 -0.0615 -0.1869 -0.0967
 2735POSM   C3A32089  31.713  10.774  13.916  0.1096  0.0630 -0.0850
 2735POSM   C1B32090  32.462  11.258  13.112  0.2667 -0.0280  0.0288
 2735POSM   D2B32091  32.111  11.444  13.433  0.0936 -0.0668  0.1803
 2735POSM   C3B32092  32.224  11.329  13.904  0.0959  0.0049  0.2894
 2735POSM   C4B32093  32.310  10.921  14.103 -0.2107  0.0041 -0.4571
 2736DOPC   NC332094  23.603   3.776  12.176 -0.2466  0.0195 -0.1592
 2736DOPC   PO432095  23.892   4.065  12.259 -0.0125 -0.3239  0.3184
 2736DOPC   GL132096  23.867   4.220  12.614  0.1222  0.2031  0.0728
 2736DOPC   GL232097  24.128   4.429  12.589  0.2571  0.1706 -0.0964
 2736DOPC   C1A32098  23.464   4.099  12.876 -0.3397 -0.1486 -0.2579
 2736DOPC   D2A32099  23.145   4.197  13.156 -0.0512 -0.0225 -0.2949
 2736DOPC   C3A32100  23.257   4.460  13.498 -0.0492  0.1998  0.1380
 2736DOPC   C4A32101  23.404   4.696  13.943 -0.1380  0.4203 -0.1867
 2736DOPC   C1B32102  23.946   4.729  12.896  0.0265  0.2159 -0.2424
 2736DOPC   D2B32103  23.599   4.529  13.179  0.1314 -0.0598  0.1630
 2736DOPC   C3B32104  23.466   4.932  13.306  0.2148 -0.2676 -0.2992
 2736DOPC   C4B32105  23.081   5.039  13.567 -0.1679  0.1504  0.1961
 2737DOPC   NC332106  28.307  11.180  12.588  0.0704 -0.0708  0.1310
 2737DOPC   PO432107  28.205  10.855  12.384  0.0273  0.0704  0.0491
 2737DOPC   GL132108  27.960  10.465  12.513  0.2151  0.3336  0.1239
 2737DOPC   GL232109  28.120  10.459  12.828  0.0871 -0.0830  0.3390
 2737DOPC   C1A32110  27.630  10.190  12.686 -0.1322 -0.0202 -0.0892
 2737DOPC   D2A32111  27.285  10.028  12.939  0.2476 -0.4076  0.1558
 2737DOPC   C3A32112  27.112   9.853  13.327  0.0094  0.0315 -0.0741
 2737DOPC   C4A32113  27.258   9.620  13.717 -0.0170 -0.1193  0.0960
 2737DOPC   C1B32114  27.813  10.414  13.187 -0.1706 -0.0422 -0.2500
 2737DOPC   D2B32115  27.366  10.383  13.298  0.1209  0.2246 -0.2502
 2737DOPC   C3B32116  27.209  10.237  13.754  0.1235  0.1472  0.1124
 2737DOPC   C4B32117  26.935   9.942  13.916 -0.1572 -0.1288 -0.1366
 2738DOPC   NC332118  30.838   6.557  13.002  0.0068 -0.0719 -0.1664
 2738DOPC   PO432119  30.695   6.842  12.704 -0.0390 -0.2165 -0.0701
 2738DOPC   GL132120  30.521   6.987  13.008  0.3412 -0.2416 -0.0664
 2738DOPC   GL232121  30.736   7.043  13.194 -0.0897 -0.1926  0.1547
 2738DOPC   C1A32122  30.211   7.354  13.165  0.0903 -0.1597  0.1546
 2738DOPC   D2A32123  29.837   7.371  13.408  0.2671 -0.0929 -0.0993
 2738DOPC   C3A32124  29.852   6.999  13.669 -0.0051 -0.0904  0.0009
 2738DOPC   C4A32125  29.854   6.586  13.863  0.1466  0.0546  0.0309
 2738DOPC   C1B32126  30.606   7.411  13.477 -0.0539  0.2119 -0.1862
 2738DOPC   D2B32127  30.276   7.394  13.815 -0.0896  0.0512  0.2372
 2738DOPC   C3B32128  30.127   7.734  14.077  0.1865 -0.1511  0.0870
 2738DOPC   C4B32129  30.032   7.961  14.531  0.0995  0.0113  0.0119
 2739POSM   NC332130  25.579   3.141  12.180  0.0451  0.1897 -0.0626
 2739POSM   PO432131  25.843   3.424  12.212  0.1674 -0.2512  0.2225
 2739POSM   AM132132  26.115   3.462  12.400  0.1834  0.0288  0.2779
 2739POSM   AM232133  26.174   3.328  12.622 -0.2186 -0.0114  0.2958
 2739POSM   T1A32134  26.468   3.779  12.519  0.2189  0.0439 -0.2218
 2739POSM   C2A32135  26.845   3.981  12.356  0.1281  0.0345 -0.2450
 2739POSM   C3A32136  27.108   4.388  12.448  0.2524  0.2254 -0.3772
 2739POSM   C1B32137  26.400   3.054  12.650 -0.3231  0.3710  0.3323
 2739POSM   D2B32138  26.633   2.623  12.773  0.0214  0.2348 -0.0482
 2739POSM   C3B32139  26.747   2.158  12.898  0.2697 -0.1047 -0.2827
 2739POSM   C4B32140  27.023   1.963  13.223  0.1384 -0.0509  0.2055
 2740DOPC   NC332141  25.513  11.189  12.592  0.2960  0.2188 -0.0546
 2740DOPC   PO432142  25.640  10.961  12.290 -0.0318 -0.2899 -0.0615
 2740DOPC   GL132143  25.616  10.737  12.603 -0.2196 -0.1697  0.0321
 2740DOPC   GL232144  25.799  10.507  12.538 -0.4131  0.0048  0.2541
 2740DOPC   C1A32145  25.374  10.389  12.850 -0.2067  0.0598 -0.4585
 2740DOPC   D2A32146  25.042  10.028  12.792  0.1735 -0.0868 -0.2038
 2740DOPC   C3A32147  25.059   9.686  13.080 -0.1807  0.1002  0.1446
 2740DOPC   C4A32148  25.212   9.241  13.079 -0.2363  0.3842 -0.3630
 2740DOPC   C1B32149  25.928  10.292  12.966  0.0413 -0.0500 -0.3057
 2740DOPC   D2B32150  26.040  10.050  13.407 -0.0393  0.0054  0.0291
 2740DOPC   C3B32151  25.766  10.343  13.650  0.1631  0.2905  0.0305
 2740DOPC   C4B32152  25.509  10.538  13.941 -0.2223 -0.1931  0.3772
 2741POSM   NC332153  33.971   4.730  12.375 -0.0632  0.1745  0.5084
 2741POSM   PO432154  34.238   4.917  12.598  0.0098 -0.1039 -0.0707
 2741POSM   AM132155  34.070   4.816  12.853 -0.3850  0.1545  0.3220
 2741POSM   AM232156  33.915   4.585  12.879 -0.3022 -0.1001  0.3734
 2741POSM   T1A32157  33.928   4.824  13.335  0.0247 -0.2568 -0.2674
 2741POSM   C2A32158  33.982   5.035  13.758 -0.0597  0.2283  0.1718
 2741POSM   C3A32159  34.189   4.940  14.114 -0.1563 -0.1502  0.0749
 2741POSM   C1B32160  33.593   4.553  12.711 -0.2222  0.0327  0.0823
 2741POSM   D2B32161  33.268   4.891  12.547 -0.1812 -0.0023  0.2110
 2741POSM   C3B32162  32.828   4.842  12.653 -0.0041  0.0934 -0.2138
 2741POSM   C4B32163  32.564   4.571  12.360  0.1129 -0.2572 -0.2440
 2742DOPS   CNO32164  31.095   1.904  12.069  0.0171 -0.0694 -0.0615
 2742DOPS   PO432165  31.186   1.941  12.398  0.1408  0.1232 -0.2146
 2742DOPS   GL132166  31.460   1.965  12.724  0.0418  0.2310  0.1997
 2742DOPS   GL232167  31.531   2.225  12.782  0.3453 -0.1809 -0.2220
 2742DOPS   C1A32168  31.782   1.929  13.097  0.0437  0.0348 -0.0861
 2742DOPS   D2A32169  32.019   2.123  13.435 -0.1133 -0.3434 -0.3333
 2742DOPS   C3A32170  32.103   2.403  13.839 -0.0672 -0.1673  0.4118
 2742DOPS   C4A32171  32.292   2.600  14.206  0.0554  0.3873 -0.0295
 2742DOPS   C1B32172  31.699   2.469  13.154 -0.2929 -0.0174 -0.2039
 2742DOPS   D2B32173  31.682   2.443  13.642  0.1746  0.1973  0.0721
 2742DOPS   C3B32174  31.419   2.367  14.003 -0.1965  0.1626  0.0975
 2742DOPS   C4B32175  31.267   2.425  14.421 -0.2955  0.0689 -0.2941
 2743DOPC   NC332176  27.276   6.224  12.496 -0.0500 -0.2651 -0.0202
 2743DOPC   PO432177  27.621   6.362  12.668  0.0859  0.4024  0.0124
 2743DOPC   GL132178  27.786   6.207  12.964 -0.1044 -0.1638 -0.1568
 2743DOPC   GL232179  27.694   6.381  13.185 -0.4514 -0.0813 -0.0183
 2743DOPC   C1A32180  28.079   5.845  13.077  0.1589  0.0155 -0.0022
 2743DOPC   D2A32181  28.028   5.362  13.133  0.1476 -0.1717 -0.0179
 2743DOPC   C3A32182  28.185   5.035  13.471  0.1091 -0.3371  0.0909
 2743DOPC   C4A32183  28.313   4.655  13.701  0.3567 -0.0302 -0.3658
 2743DOPC   C1B32184  28.179   6.387  13.125  0.2774 -0.1759  0.3472
 2743DOPC   D2B32185  28.545   6.045  13.178 -0.0497  0.1033 -0.1881
 2743DOPC   C3B32186  28.736   5.746  13.486 -0.3478 -0.0685  0.0390
 2743DOPC   C4B32187  29.004   5.619  13.810  0.3552  0.0055 -0.1780
 2744DOPS   CNO32188  23.454  10.037  12.281  0.1017 -0.0114 -0.2114
 2744DOPS   PO432189  23.392  10.030  12.655 -0.2594  0.0696  0.0300
 2744DOPS   GL132190  23.544   9.855  12.959  0.1613 -0.1490 -0.1086
 2744DOPS   GL232191  23.787  10.106  12.988 -0.1234  0.0839 -0.2099
 2744DOPS   C1A32192  23.331  10.053  13.340  0.0973  0.0266  0.1215
 2744DOPS   D2A32193  23.178  10.105  13.787  0.2876  0.0303  0.1746
 2744DOPS   C3A32194  23.265   9.778  14.084  0.1973 -0.1112  0.1178
 2744DOPS   C4A32195  22.862   9.539  14.204  0.1272 -0.0948  0.3175
 2744DOPS   C1B32196  24.057   9.795  13.281 -0.1717 -0.1634  0.1327
 2744DOPS   D2B32197  24.009   9.453  13.583  0.0950  0.2816  0.1367
 2744DOPS   C3B32198  24.349   9.504  13.844 -0.1349 -0.0571  0.0980
 2744DOPS   C4B32199  24.757   9.493  14.143  0.2799  0.1813  0.0546
 2745DOPE   NH332200  26.918   8.100  12.584  0.0117  0.0277  0.0247
 2745DOPE   PO432201  27.064   8.413  12.596 -0.2800 -0.3693 -0.1517
 2745DOPE   GL132202  27.272   8.686  12.763  0.0006 -0.3874 -0.1666
 2745DOPE   GL232203  27.573   8.546  12.700  0.0004  0.0657 -0.0555
 2745DOPE   C1A32204  27.579   9.024  13.007 -0.1299  0.0854 -0.1233
 2745DOPE   D2A32205  27.877   9.233  13.329 -0.0140 -0.4489 -0.3655
 2745DOPE   C3A32206  28.001   9.672  13.285  0.0957  0.0310  0.1148
 2745DOPE   C4A32207  28.039   9.956  12.933 -0.2151  0.1632  0.1801
 2745DOPE   C1B32208  27.782   8.577  13.077  0.0956 -0.0093 -0.0797
 2745DOPE   D2B32209  28.150   8.671  13.418 -0.0090 -0.1451  0.0255
 2745DOPE   C3B32210  28.062   8.950  13.755 -0.3000 -0.3719  0.0399
 2745DOPE   C4B32211  27.955   9.231  14.147  0.1278  0.1619  0.0433
 2746DOPE   NH332212  33.820   2.883  12.278 -0.0739  0.0019  0.1182
 2746DOPE   PO432213  34.103   2.763  12.473 -0.1227  0.3485  0.0626
 2746DOPE   GL132214  33.819   2.587  12.794 -0.1343  0.0629 -0.1064
 2746DOPE   GL232215  33.513   2.685  12.710 -0.2257 -0.0791  0.1761
 2746DOPE   C1A32216  33.909   2.382  13.204  0.1786 -0.0571 -0.0042
 2746DOPE   D2A32217  34.155   2.401  13.633 -0.0910 -0.1641 -0.2399
 2746DOPE   C3A32218  34.197   2.839  13.766  0.1702  0.1821  0.1800
 2746DOPE   C4A32219  34.108   3.260  13.886 -0.1501  0.0904 -0.0740
 2746DOPE   C1B32220  33.649   2.780  13.181 -0.1318  0.0261 -0.0065
 2746DOPE   D2B32221  33.738   2.805  13.646 -0.2371 -0.0110 -0.2837
 2746DOPE   C3B32222  33.822   2.550  14.016  0.0637  0.0215  0.4453
 2746DOPE   C4B32223  33.865   2.095  14.146  0.0922  0.2730 -0.2179
 2747DOPE   NH332224  30.386   3.513  12.343 -0.0271 -0.1125  0.2239
 2747DOPE   PO432225  30.673   3.632  12.260 -0.1058  0.0064 -0.1896
 2747DOPE   GL132226  30.625   3.704  12.717 -0.2342  0.1404 -0.1316
 2747DOPE   GL232227  30.889   3.723  12.849 -0.0319 -0.0880  0.0102
 2747DOPE   C1A32228  30.230   3.918  12.827  0.1311  0.1460  0.0770
 2747DOPE   D2A32229  30.035   4.319  12.823 -0.0996  0.0137  0.0937
 2747DOPE   C3A32230  30.178   4.431  13.270  0.0493  0.1926 -0.1679
 2747DOPE   C4A32231  30.464   4.498  13.647 -0.0321 -0.0751  0.1018
 2747DOPE   C1B32232  30.870   3.696  13.317  0.0576  0.0620 -0.1040
 2747DOPE   D2B32233  30.676   3.511  13.703  0.1212  0.1550  0.0853
 2747DOPE   C3B32234  30.815   3.512  14.118  0.1404  0.5061 -0.3786
 2747DOPE   C4B32235  31.077   3.639  14.507  0.0925  0.0765 -0.1954
 2748DOPC   NC332236  28.355   0.779  12.221 -0.0710 -0.0917  0.1286
 2748DOPC   PO432237  28.701   0.799  12.465 -0.3707  0.0384 -0.3573
 2748DOPC   GL132238  28.444   1.160  12.525  0.2860  0.2425 -0.3292
 2748DOPC   GL232239  28.296   0.966  12.699 -0.2011  0.0055 -0.0156
 2748DOPC   C1A32240  28.482   1.476  12.831 -0.2218 -0.2298 -0.1141
 2748DOPC   D2A32241  28.615   1.789  13.150 -0.2495  0.0278 -0.0695
 2748DOPC   C3A32242  28.582   1.789  13.659  0.2868 -0.1029 -0.1174
 2748DOPC   C4A32243  28.524   1.589  14.057 -0.2402 -0.0662  0.0755
 2748DOPC   C1B32244  28.246   1.181  13.109 -0.0015 -0.1978  0.0017
 2748DOPC   D2B32245  28.491   1.311  13.457  0.0581 -0.2905  0.1084
 2748DOPC   C3B32246  28.170   1.411  13.756 -0.3699 -0.1318  0.1109
 2748DOPC   C4B32247  27.855   1.518  14.100 -0.2668  0.1268 -0.1221
 2749DOPS   CNO32248  33.341   6.805  12.274  0.1800  0.2798  0.1404
 2749DOPS   PO432249  33.548   6.913  12.602 -0.0885 -0.0863 -0.0905
 2749DOPS   GL132250  33.589   7.196  12.899 -0.2709 -0.1657  0.0556
 2749DOPS   GL232251  33.694   7.409  12.748 -0.0111  0.2931 -0.4338
 2749DOPS   C1A32252  33.857   7.228  13.280 -0.1189  0.2131  0.1266
 2749DOPS   D2A32253  34.242   7.379  13.557 -0.1097  0.2535 -0.2740
 2749DOPS   C3A32254  34.407   7.163  13.926 -0.4016  0.4542 -0.1094
 2749DOPS   C4A32255  34.186   6.809  14.033 -0.1634 -0.0273 -0.0723
 2749DOPS   C1B32256  34.145   7.430  12.899  0.1056 -0.0881 -0.1370
 2749DOPS   D2B32257  34.600   7.576  12.919  0.1515  0.4688 -0.1308
 2749DOPS   C3B32258  34.704   7.599  13.352  0.2215 -0.2100  0.0661
 2749DOPS   C4B32259  34.736   7.655  13.810 -0.3585 -0.1014  0.0647
 2750DOPS   CNO32260  30.135  10.046  12.509 -0.2385 -0.0345 -0.1507
 2750DOPS   PO432261  30.328  10.206  12.759  0.0576 -0.1134 -0.4061
 2750DOPS   GL132262  30.509  10.267  13.114 -0.1595 -0.2650  0.3226
 2750DOPS   GL232263  30.278  10.152  13.264  0.2466  0.2066 -0.3137
 2750DOPS   C1A32264  30.658  10.357  13.505  0.3000  0.0689  0.4546
 2750DOPS   D2A32265  30.723  10.652  13.894 -0.1938  0.0594 -0.4110
 2750DOPS   C3A32266  31.083  10.502  14.087 -0.0137  0.1109 -0.0853
 2750DOPS   C4A32267  31.178  10.112  14.296 -0.2109  0.1433  0.0987
 2750DOPS   C1B32268  30.122   9.860  13.594  0.3719  0.0374  0.1607
 2750DOPS   D2B32269  30.241   9.622  13.955  0.1295  0.1354 -0.0336
 2750DOPS   C3B32270  30.330   9.857  14.328 -0.0881  0.1348 -0.2344
 2750DOPS   C4B32271  30.734   9.943  14.537  0.0553 -0.2337  0.2874
 2751DOPC   NC332272  29.923   9.928  13.041  0.0093 -0.1191 -0.3262
 2751DOPC   PO432273  30.138   9.697  12.861 -0.0096 -0.1045  0.1549
 2751DOPC   GL132274  30.257   9.619  13.247 -0.3331 -0.1847  0.5151
 2751DOPC   GL232275  30.223   9.335  13.203  0.1796  0.0642 -0.0641
 2751DOPC   C1A32276  30.627   9.780  13.544 -0.4248  0.1633  0.0259
 2751DOPC   D2A32277  30.927   9.611  13.812 -0.0604 -0.0134  0.3845
 2751DOPC   C3A32278  31.345   9.824  13.921  0.1015 -0.1702 -0.1360
 2751DOPC   C4A32279  31.771   9.814  14.080  0.0803  0.0717 -0.0124
 2751DOPC   C1B32280  29.952   8.918  13.349 -0.3959  0.0621 -0.1449
 2751DOPC   D2B32281  30.123   8.481  13.204 -0.1675 -0.0829  0.1726
 2751DOPC   C3B32282  30.386   8.508  13.486  0.0590  0.0981  0.0157
 2751DOPC   C4B32283  30.662   8.561  13.812 -0.1956  0.2039 -0.1120
 2752DOPS   CNO32284  25.418   4.697  12.488 -0.1961  0.0343 -0.2488
 2752DOPS   PO432285  25.581   4.421  12.617  0.1432  0.1689  0.2360
 2752DOPS   GL132286  25.561   4.352  13.012 -0.2227 -0.0224  0.3763
 2752DOPS   GL232287  25.824   4.170  13.023  0.0361  0.1649 -0.3091
 2752DOPS   C1A32288  25.303   4.194  13.410  0.0795  0.4616  0.1203
 2752DOPS   D2A32289  25.137   4.147  13.844  0.1609 -0.0346 -0.2335
 2752DOPS   C3A32290  24.644   4.123  13.923  0.1572 -0.2752 -0.1567
 2752DOPS   C4A32291  24.219   4.024  13.912  0.1185 -0.0650  0.0709
 2752DOPS   C1B32292  26.206   4.197  12.760 -0.2921 -0.0225 -0.2472
 2752DOPS   D2B32293  26.636   4.122  12.840 -0.4108 -0.0178  0.0125
 2752DOPS   C3B32294  26.757   3.923  13.206 -0.0214  0.2315 -0.0501
 2752DOPS   C4B32295  26.538   3.862  13.581 -0.0148  0.1597 -0.0250
 2753DOPS   CNO32296  26.836   5.906  12.904  0.2054  0.0732 -0.4627
 2753DOPS   PO432297  26.780   6.232  12.786 -0.1225  0.3076  0.2518
 2753DOPS   GL132298  26.688   6.195  13.266 -0.2914 -0.1224  0.0406
 2753DOPS   GL232299  26.610   6.475  13.281  0.0663  0.2306  0.2127
 2753DOPS   C1A32300  26.994   6.097  13.623 -0.2830 -0.0812 -0.2990
 2753DOPS   D2A32301  27.188   5.960  14.047  0.1385 -0.2043  0.3111
 2753DOPS   C3A32302  27.669   5.965  13.991 -0.0320  0.0563  0.2168
 2753DOPS   C4A32303  28.128   6.022  14.095 -0.0806  0.0588 -0.0318
 2753DOPS   C1B32304  26.628   6.501  13.689  0.0733 -0.0950 -0.0922
 2753DOPS   D2B32305  26.817   6.788  14.014  0.0201  0.1718 -0.1128
 2753DOPS   C3B32306  26.713   6.988  14.379  0.1992 -0.0009 -0.1158
 2753DOPS   C4B32307  26.371   6.919  14.672 -0.0683 -0.1482 -0.1080
 2754DOPC   NC332308  24.645   8.898  11.896  0.0741 -0.0271 -0.1835
 2754DOPC   PO432309  24.957   8.788  12.104 -0.0659  0.2328  0.0679
 2754DOPC   GL132310  25.227   8.711  12.412  0.0547 -0.0800  0.2449
 2754DOPC   GL232311  25.467   8.835  12.225 -0.3110  0.0593 -0.0254
 2754DOPC   C1A32312  25.273   8.315  12.589  0.3376  0.1068 -0.1566
 2754DOPC   D2A32313  25.129   8.261  13.031  0.3062 -0.2051 -0.1867
 2754DOPC   C3A32314  25.044   8.581  13.322 -0.0409 -0.0669 -0.1154
 2754DOPC   C4A32315  24.911   9.001  13.377 -0.1076  0.1768  0.0814
 2754DOPC   C1B32316  25.588   9.158  12.534  0.1411 -0.2518 -0.2811
 2754DOPC   D2B32317  25.742   9.294  12.931 -0.0424 -0.0511  0.0026
 2754DOPC   C3B32318  25.508   9.590  13.218 -0.2694  0.2044 -0.1055
 2754DOPC   C4B32319  25.494  10.044  13.288  0.2227  0.2290  0.1614
 2755DOPE   NH332320  33.003  34.459  12.547 -0.2295  0.0185  0.1233
 2755DOPE   PO432321  33.247  34.642  12.584 -0.1474 -0.1846 -0.1329
 2755DOPE   GL132322  33.400  34.852  12.849 -0.0003 -0.0316  0.0481
 2755DOPE   GL232323  33.387  35.140  12.867 -0.0801 -0.1591 -0.2518
 2755DOPE   C1A32324  33.213  34.947  13.291  0.3549 -0.0744  0.1272
 2755DOPE   D2A32325  33.093  34.941  13.731 -0.1625 -0.1470 -0.2255
 2755DOPE   C3A32326  33.409  34.945  14.090 -0.2648 -0.0685  0.2630
 2755DOPE   C4A32327  33.684  35.077  14.418  0.3510 -0.0054 -0.0684
 2755DOPE   C1B32328  33.195  35.398  13.157 -0.0538  0.0677  0.0138
 2755DOPE   D2B32329  32.922  35.377  13.497 -0.0633 -0.0381  0.1887
 2755DOPE   C3B32330  32.989  35.423  13.967 -0.5971  0.1241  0.0704
 2755DOPE   C4B32331  33.148  35.491  14.366 -0.1015  0.0996 -0.1131
 2756DOPE   NH332332  23.518  11.094  12.099  0.1233  0.1683  0.0549
 2756DOPE   PO432333  23.546  11.303  12.348 -0.0129 -0.0758  0.0517
 2756DOPE   GL132334  23.786  11.223  12.701  0.0286  0.0801  0.1771
 2756DOPE   GL232335  23.729  10.961  12.732 -0.2533  0.1954  0.0702
 2756DOPE   C1A32336  23.696  11.294  13.114 -0.0230 -0.0162  0.1103
 2756DOPE   D2A32337  23.437  11.586  13.356 -0.1135  0.3199 -0.0736
 2756DOPE   C3A32338  23.632  11.653  13.812 -0.1627 -0.1908  0.0034
 2756DOPE   C4A32339  23.674  11.429  14.230 -0.1376  0.1097  0.1459
 2756DOPE   C1B32340  24.050  10.659  12.837  0.2231  0.0798 -0.2090
 2756DOPE   D2B32341  24.277  10.228  12.986 -0.0627  0.1335  0.5291
 2756DOPE   C3B32342  24.434  10.294  13.409  0.0784 -0.1277  0.1849
 2756DOPE   C4B32343  24.479  10.013  13.782  0.1016  0.0560 -0.0148
 2757POSM   NC332344  28.968   2.889  12.787 -0.0280  0.1633  0.1816
 2757POSM   PO432345  28.784   3.223  12.895 -0.0818 -0.0176  0.0602
 2757POSM   AM132346  28.810   3.185  13.223  0.2431 -0.0850 -0.2225
 2757POSM   AM232347  29.073   3.131  13.408  0.1466 -0.2348 -0.4203
 2757POSM   T1A32348  28.764   3.114  13.739  0.0221  0.1042  0.1627
 2757POSM   C2A32349  28.751   2.851  14.128  0.0998 -0.2008 -0.2426
 2757POSM   C3A32350  28.430   2.582  14.315  0.5880 -0.3561  0.4689
 2757POSM   C1B32351  29.173   3.364  13.608 -0.0181 -0.2598 -0.2967
 2757POSM   D2B32352  29.119   3.359  14.067  0.0425  0.1892  0.3018
 2757POSM   C3B32353  28.732   3.310  14.281 -0.1169 -0.0136  0.1610
 2757POSM   C4B32354  28.531   3.177  14.678  0.1402 -0.3378 -0.0378
 2758DOPS   CNO32355  31.764  10.966  12.513  0.1172 -0.2644 -0.0705
 2758DOPS   PO432356  32.137  10.910  12.705 -0.0905  0.2051 -0.1404
 2758DOPS   GL132357  32.226  10.605  12.925 -0.0359 -0.3199 -0.1303
 2758DOPS   GL232358  32.483  10.550  12.735 -0.1759 -0.2667  0.0645
 2758DOPS   C1A32359  32.116  10.419  13.342  0.0206  0.3193 -0.2645
 2758DOPS   D2A32360  32.030  10.363  13.806 -0.1548  0.0548 -0.1362
 2758DOPS   C3A32361  32.238  10.264  14.216 -0.0574  0.0016 -0.1153
 2758DOPS   C4A32362  32.542  10.049  14.494  0.0681  0.1088  0.0579
 2758DOPS   C1B32363  32.329  10.177  12.963 -0.0363  0.4145 -0.0013
 2758DOPS   D2B32364  32.340   9.827  13.329 -0.0599  0.0289 -0.1295
 2758DOPS   C3B32365  32.624   9.674  13.667 -0.0687  0.1783  0.0554
 2758DOPS   C4B32366  32.713   9.684  14.100 -0.1429 -0.1332 -0.3285
 2759DOPC   NC332367  30.773   2.529  12.285  0.3698  0.3018  0.1337
 2759DOPC   PO432368  30.370   2.503  12.371 -0.0537  0.0572 -0.2889
 2759DOPC   GL132369  30.262   2.171  12.448  0.1733 -0.0175  0.4289
 2759DOPC   GL232370  30.150   2.142  12.162 -0.0063  0.3652  0.2081
 2759DOPC   C1A32371  30.229   2.046  12.887  0.0188  0.0533 -0.1908
 2759DOPC   D2A32372  30.415   2.266  13.233  0.4458  0.1678 -0.2528
 2759DOPC   C3A32373  30.490   2.075  13.640 -0.2640  0.2239  0.2191
 2759DOPC   C4A32374  30.458   2.201  14.075 -0.0005 -0.0580 -0.0726
 2759DOPC   C1B32375  29.790   2.008  12.412 -0.4684 -0.2925  0.0997
 2759DOPC   D2B32376  29.774   1.613  12.692  0.0091 -0.2141 -0.3338
 2759DOPC   C3B32377  29.715   1.848  13.097 -0.0364  0.2026 -0.2576
 2759DOPC   C4B32378  29.622   1.918  13.567  0.0802 -0.1021  0.2429
 2760DOPE   NH332379  23.911   3.121  12.384 -0.0028 -0.0761 -0.0087
 2760DOPE   PO432380  23.678   3.321  12.530 -0.0833 -0.3238 -0.0804
 2760DOPE   GL132381  23.322   3.277  12.726  0.0604  0.0602  0.0319
 2760DOPE   GL232382  23.213   3.529  12.766 -0.0731  0.0459  0.0256
 2760DOPE   C1A32383  23.165   2.891  12.938  0.2142 -0.1673 -0.0704
 2760DOPE   D2A32384  22.958   2.506  13.088  0.0021  0.1100  0.0100
 2760DOPE   C3A32385  22.647   2.484  13.445 -0.2518 -0.3738 -0.2382
 2760DOPE   C4A32386  22.403   2.593  13.852 -0.1924 -0.4145  0.3689
 2760DOPE   C1B32387  22.926   3.322  13.057 -0.0915  0.0025 -0.4310
 2760DOPE   D2B32388  22.506   3.148  13.097 -0.3996  0.1323 -0.3594
 2760DOPE   C3B32389  22.590   2.980  13.531 -0.1189  0.2509 -0.3298
 2760DOPE   C4B32390  22.887   2.841  13.900  0.1750  0.0266 -0.2004
 2761DOPS   CNO32391  28.993   3.061  12.218 -0.0171 -0.3283  0.0545
 2761DOPS   PO432392  29.266   2.929  12.419 -0.3740 -0.0525  0.2534
 2761DOPS   GL132393  29.312   2.636  12.615 -0.2324 -0.1705  0.2022
 2761DOPS   GL232394  29.437   2.421  12.433  0.2100 -0.1041  0.0778
 2761DOPS   C1A32395  29.058   2.314  12.827  0.3113 -0.1029 -0.1904
 2761DOPS   D2A32396  28.854   1.941  12.703 -0.0606 -0.1399  0.1244
 2761DOPS   C3A32397  28.543   1.912  12.337  0.1758  0.0697  0.3717
 2761DOPS   C4A32398  28.416   1.726  11.944 -0.1262  0.3459  0.1470
 2761DOPS   C1B32399  29.608   2.240  12.772 -0.0237  0.1133 -0.1290
 2761DOPS   D2B32400  29.887   2.327  13.150 -0.1031  0.0652  0.0083
 2761DOPS   C3B32401  29.948   2.227  13.620 -0.0025 -0.3712  0.1062
 2761DOPS   C4B32402  29.999   2.410  14.030 -0.1881  0.0562 -0.0450
 2762DOPS   CNO32403  32.646   8.407  12.103  0.0189 -0.1570 -0.2935
 2762DOPS   PO432404  32.849   8.406  12.447  0.1028  0.0094 -0.0438
 2762DOPS   GL132405  32.630   8.465  12.686 -0.3226  0.1475  0.2590
 2762DOPS   GL232406  32.378   8.532  12.678 -0.1711  0.3189 -0.2689
 2762DOPS   C1A32407  32.661   8.485  13.139 -0.0473 -0.0247  0.2370
 2762DOPS   D2A32408  32.540   8.836  13.382 -0.4102  0.2567  0.0292
 2762DOPS   C3A32409  32.832   9.089  13.685  0.2890  0.2293  0.1022
 2762DOPS   C4A32410  33.083   9.083  14.044  0.0573 -0.0399  0.0904
 2762DOPS   C1B32411  32.296   8.984  12.794  0.4847 -0.0979 -0.2325
 2762DOPS   D2B32412  31.928   9.074  13.013 -0.3283  0.1614  0.0642
 2762DOPS   C3B32413  31.958   8.926  13.464  0.1336 -0.1928 -0.0063
 2762DOPS   C4B32414  31.963   8.554  13.723 -0.1840  0.0201  0.2927
 2763DOPE   NH332415  23.134  10.412  12.220 -0.1350  0.1647 -0.2030
 2763DOPE   PO432416  23.076  10.468  12.515 -0.0615  0.1934  0.1371
 2763DOPE   GL132417  23.182  10.375  12.875  0.0616 -0.0939  0.1148
 2763DOPE   GL232418  23.006  10.164  12.983 -0.2270  0.0241 -0.1798
 2763DOPE   C1A32419  23.550  10.556  13.105 -0.1161 -0.1743  0.0707
 2763DOPE   D2A32420  23.926  10.451  13.271 -0.1052  0.1729  0.4460
 2763DOPE   C3A32421  23.978  10.194  13.633 -0.1646  0.1622 -0.1557
 2763DOPE   C4A32422  23.756   9.865  13.776 -0.1802 -0.0323  0.0297
 2763DOPE   C1B32423  22.839   9.881  13.339  0.2396 -0.0550  0.0155
 2763DOPE   D2B32424  22.765   9.436  13.504 -0.2371 -0.0473 -0.0786
 2763DOPE   C3B32425  22.549   9.196  13.842 -0.2207 -0.2487  0.2443
 2763DOPE   C4B32426  22.121   9.082  13.994 -0.2143 -0.2013  0.0917
 2764DOPE   NH332427  27.231   6.457  12.998 -0.0758  0.0596  0.1148
 2764DOPE   PO432428  27.257   6.151  13.062 -0.1733 -0.3181  0.0197
 2764DOPE   GL132429  27.607   5.975  13.302 -0.0552  0.0803  0.0568
 2764DOPE   GL232430  27.488   5.918  13.544 -0.2408 -0.0962  0.0653
 2764DOPE   C1A32431  27.950   6.129  13.555 -0.2046 -0.1351  0.1500
 2764DOPE   D2A32432  28.041   6.524  13.823  0.0813 -0.1316 -0.1729
 2764DOPE   C3A32433  27.847   6.948  13.817  0.0775  0.0834 -0.3608
 2764DOPE   C4A32434  27.759   7.244  13.451 -0.0673 -0.0341 -0.0693
 2764DOPE   C1B32435  27.791   5.629  13.499  0.2998  0.3469 -0.0685
 2764DOPE   D2B32436  28.242   5.581  13.533 -0.0229  0.3335 -0.3106
 2764DOPE   C3B32437  28.642   5.225  13.612  0.2460  0.0715 -0.0401
 2764DOPE   C4B32438  29.106   5.149  13.645 -0.0317 -0.1286  0.1420
 2765POSM   NC332439  34.582   0.968  12.846 -0.3328 -0.2178 -0.0355
 2765POSM   PO432440  34.341   0.751  12.639 -0.8502  0.0289  0.2687
 2765POSM   AM132441  34.193   0.645  12.945 -0.0164  0.3364  0.0313
 2765POSM   AM232442  33.920   0.530  13.057 -0.0165 -0.0654  0.1726
 2765POSM   T1A32443  34.158   0.678  13.444 -0.0921  0.0588 -0.0239
 2765POSM   C2A32444  34.251   0.729  13.964  0.3558 -0.1502 -0.1002
 2765POSM   C3A32445  34.210   0.678  14.403  0.1761  0.0955  0.0428
 2765POSM   C1B32446  33.663   0.464  13.280  0.3098 -0.1553 -0.2291
 2765POSM   D2B32447  33.457   0.501  13.679 -0.0367 -0.2398 -0.0367
 2765POSM   C3B32448  33.778   0.682  13.920 -0.2316  0.1500 -0.1716
 2765POSM   C4B32449  33.935   1.029  14.251  0.0817 -0.0360 -0.2919
 2766DOPC   NC332450  31.192   4.612  12.020 -0.0388  0.0201  0.1301
 2766DOPC   PO432451  31.226   4.868  12.347  0.0437 -0.1446  0.2109
 2766DOPC   GL132452  31.230   4.775  12.709 -0.1424  0.0733 -0.1772
 2766DOPC   GL232453  30.994   4.604  12.785  0.1282  0.1983  0.0048
 2766DOPC   C1A32454  31.324   4.631  13.165  0.0943 -0.0409 -0.2782
 2766DOPC   D2A32455  31.306   4.800  13.593 -0.1457  0.1683 -0.1741
 2766DOPC   C3A32456  30.889   4.885  13.711  0.0665  0.0172 -0.1237
 2766DOPC   C4A32457  30.630   5.055  14.046 -0.3183 -0.0473  0.1980
 2766DOPC   C1B32458  30.888   4.451  13.205 -0.0612  0.5579  0.0963
 2766DOPC   D2B32459  31.021   4.285  13.607  0.6821 -0.0016  0.0046
 2766DOPC   C3B32460  30.790   4.402  13.980 -0.1653 -0.0637  0.4964
 2766DOPC   C4B32461  30.436   4.600  14.178  0.0236 -0.1156  0.1370
 2767DOPC   NC332462  27.015   5.487  12.823  0.0596  0.4376  0.0377
 2767DOPC   PO432463  27.240   5.645  13.111  0.2691  0.1246  0.0360
 2767DOPC   GL132464  27.381   5.326  13.359  0.1999  0.2472  0.2652
 2767DOPC   GL232465  27.302   5.494  13.641 -0.3587 -0.1118  0.0385
 2767DOPC   C1A32466  27.012   5.104  13.543  0.3930  0.2490  0.2073
 2767DOPC   D2A32467  26.792   4.762  13.725  0.1459  0.0174 -0.0920
 2767DOPC   C3A32468  26.808   4.806  14.232  0.2813  0.1880  0.0073
 2767DOPC   C4A32469  26.640   4.852  14.675  0.0001  0.0412  0.1936
 2767DOPC   C1B32470  27.406   5.512  14.088  0.0881 -0.0976  0.0054
 2767DOPC   D2B32471  27.495   5.789  14.488  0.1928 -0.0658 -0.0170
 2767DOPC   C3B32472  27.841   6.113  14.555  0.1990  0.1249 -0.1993
 2767DOPC   C4B32473  28.183   6.371  14.497  0.0538 -0.1102  0.1079
 2768DOPE   NH332474  30.988  11.653  12.833 -0.0568  0.3732  0.1750
 2768DOPE   PO432475  31.021  11.963  12.881  0.0692  0.3060  0.3360
 2768DOPE   GL132476  31.426  12.049  12.929  0.0425  0.1945 -0.5443
 2768DOPE   GL232477  31.537  11.838  12.779  0.0545 -0.1448  0.0592
 2768DOPE   C1A32478  31.713  12.389  13.220 -0.0032  0.0508  0.2346
 2768DOPE   D2A32479  31.831  12.661  13.570  0.0907  0.1649  0.0737
 2768DOPE   C3A32480  31.456  12.849  13.909 -0.2713 -0.1481 -0.2730
 2768DOPE   C4A32481  31.018  12.731  13.886  0.0345 -0.1555  0.0942
 2768DOPE   C1B32482  31.795  11.722  13.161  0.1490  0.1092 -0.3425
 2768DOPE   D2B32483  31.631  11.640  13.575  0.0680 -0.0602  0.0795
 2768DOPE   C3B32484  31.712  11.466  13.925  0.1637 -0.0219  0.1437
 2768DOPE   C4B32485  31.860  11.224  14.275 -0.0912  0.1699 -0.1071
 2769POSM   NC332486  33.501  11.128  12.611  0.0184 -0.0276  0.5202
 2769POSM   PO432487  33.567  10.828  12.873 -0.3356  0.1100  0.3344
 2769POSM   AM132488  33.517  10.686  13.122 -0.4393  0.2182  0.3987
 2769POSM   AM232489  33.576  10.661  13.388 -0.1253  0.4056 -0.0449
 2769POSM   T1A32490  33.251  10.281  13.372  0.0039  0.1055  0.1945
 2769POSM   C2A32491  33.016   9.955  13.600  0.0511 -0.0251  0.1774
 2769POSM   C3A32492  33.144   9.575  13.773  0.0645 -0.2110  0.0663
 2769POSM   C1B32493  33.452  10.887  13.581 -0.1080 -0.0040  0.1357
 2769POSM   D2B32494  33.606  11.207  13.857 -0.0597 -0.2280  0.2998
 2769POSM   C3B32495  33.941  11.152  14.197 -0.2330  0.1230  0.5673
 2769POSM   C4B32496  34.333  11.344  14.418  0.0849 -0.0238 -0.0925
 2770DOPE   NH332497  30.251   6.553  12.475 -0.4879 -0.0817 -0.1318
 2770DOPE   PO432498  30.180   6.700  12.723  0.0694  0.0914 -0.0643
 2770DOPE   GL132499  29.789   6.635  12.879 -0.6421 -0.1046 -0.1080
 2770DOPE   GL232500  29.926   6.358  12.982 -0.0167  0.0827 -0.0995
 2770DOPE   C1A32501  29.482   6.847  13.069 -0.1284  0.0206 -0.0783
 2770DOPE   D2A32502  29.287   7.139  13.383 -0.1079 -0.2333  0.1016
 2770DOPE   C3A32503  29.484   7.257  13.712 -0.0711  0.0787 -0.0177
 2770DOPE   C4A32504  29.694   7.518  14.019  0.0527 -0.2609 -0.2991
 2770DOPE   C1B32505  29.750   6.438  13.387 -0.0090  0.0338 -0.1568
 2770DOPE   D2B32506  29.432   6.687  13.537 -0.2420 -0.0103  0.2242
 2770DOPE   C3B32507  29.355   6.487  13.973  0.2494 -0.3452 -0.2659
 2770DOPE   C4B32508  29.050   6.415  14.335 -0.0103 -0.3578  0.2578
 2771DOPC   NC332509  31.490   6.050  12.652 -0.0985  0.0123  0.5440
 2771DOPC   PO432510  31.173   6.063  12.853 -0.1029  0.3187 -0.0598
 2771DOPC   GL132511  31.045   6.032  13.129 -0.0638 -0.0077  0.3271
 2771DOPC   GL232512  30.861   5.820  13.179  0.2145  0.1257  0.0473
 2771DOPC   C1A32513  31.287   6.144  13.491 -0.0088  0.1795 -0.0671
 2771DOPC   D2A32514  31.467   6.294  13.813 -0.0881  0.0694 -0.1280
 2771DOPC   C3A32515  31.999   6.195  13.933  0.2121  0.1348 -0.2788
 2771DOPC   C4A32516  32.468   6.076  13.786  0.1702  0.0648  0.1613
 2771DOPC   C1B32517  30.486   5.533  13.122  0.1530  0.2649 -0.1358
 2771DOPC   D2B32518  30.139   5.317  13.320  0.2196 -0.0922 -0.1133
 2771DOPC   C3B32519  30.138   5.258  13.802 -0.1878  0.1718  0.0163
 2771DOPC   C4B32520  30.063   5.122  14.245 -0.1318  0.2150  0.1965
 2772DOPS   CNO32521  25.112   0.550  12.219 -0.1212 -0.1329  0.1744
 2772DOPS   PO432522  24.987   0.899  12.254 -0.0099 -0.1182 -0.0691
 2772DOPS   GL132523  24.829   1.262  12.459 -0.0456 -0.2625 -0.2978
 2772DOPS   GL232524  25.117   1.385  12.401  0.2214 -0.1038 -0.1693
 2772DOPS   C1A32525  24.456   1.472  12.577 -0.2617 -0.1157  0.2985
 2772DOPS   D2A32526  24.203   1.658  12.903 -0.0709 -0.0868 -0.0782
 2772DOPS   C3A32527  23.960   1.193  12.979 -0.2783  0.0773 -0.3469
 2772DOPS   C4A32528  23.525   1.090  13.218 -0.1496 -0.0096 -0.0963
 2772DOPS   C1B32529  24.954   1.341  12.898 -0.3195 -0.0093 -0.0347
 2772DOPS   D2B32530  25.122   0.971  13.193 -0.0446 -0.2024 -0.1499
 2772DOPS   C3B32531  25.244   1.068  13.561 -0.3582  0.1639  0.1750
 2772DOPS   C4B32532  25.022   1.272  13.872 -0.6659  0.2374 -0.0768
 2773DOPE   NH332533  26.592   8.625  12.445 -0.1196 -0.1680  0.2424
 2773DOPE   PO432534  26.786   8.868  12.625 -0.2140  0.1339  0.1384
 2773DOPE   GL132535  26.761   8.917  13.048  0.1830 -0.0056 -0.1425
 2773DOPE   GL232536  27.054   8.972  13.060  0.2312 -0.1089  0.0284
 2773DOPE   C1A32537  26.528   8.874  13.450  0.0425 -0.1928 -0.0486
 2773DOPE   D2A32538  26.144   8.807  13.709 -0.0483 -0.1693  0.0403
 2773DOPE   C3A32539  25.870   9.092  13.914 -0.0980  0.1901 -0.0107
 2773DOPE   C4A32540  25.483   9.184  14.092  0.0614  0.0740  0.1072
 2773DOPE   C1B32541  27.123   9.024  13.510 -0.1408 -0.0464 -0.0762
 2773DOPE   D2B32542  27.546   9.121  13.688 -0.1825 -0.3487 -0.3797
 2773DOPE   C3B32543  27.473   9.298  14.106  0.0797 -0.2056 -0.4819
 2773DOPE   C4B32544  27.689   9.222  14.544  0.3589 -0.1647  0.1574
 2774DOPE   NH332545  25.738   4.944  12.808 -0.0058 -0.0517  0.0400
 2774DOPE   PO432546  25.809   5.260  12.774 -0.4767  0.1163 -0.0362
 2774DOPE   GL132547  26.114   5.054  13.067 -0.3553  0.0138 -0.1443
 2774DOPE   GL232548  26.118   5.270  13.258 -0.0319 -0.0681  0.1473
 2774DOPE   C1A32549  26.060   4.602  13.095  0.0260  0.1501  0.2398
 2774DOPE   D2A32550  26.228   4.214  13.289 -0.3565 -0.0439  0.2125
 2774DOPE   C3A32551  26.626   4.426  13.372  0.1862  0.4235  0.0054
 2774DOPE   C4A32552  27.016   4.216  13.515 -0.1663 -0.2548  0.3000
 2774DOPE   C1B32553  25.897   4.978  13.472 -0.2822  0.0755 -0.4460
 2774DOPE   D2B32554  25.803   4.559  13.547  0.1670  0.2345 -0.3128
 2774DOPE   C3B32555  25.625   4.229  13.822 -0.0175 -0.5111 -0.1075
 2774DOPE   C4B32556  25.470   3.753  13.740 -0.2865  0.2190  0.0986
 2775DOPS   CNO32557  33.999  11.057  12.362 -0.2281 -0.0798 -0.0175
 2775DOPS   PO432558  33.986  10.974  12.729 -0.0784  0.1170  0.0083
 2775DOPS   GL132559  34.072  11.179  13.018 -0.0073  0.2040 -0.4068
 2775DOPS   GL232560  33.838  11.073  13.209  0.0576 -0.1182 -0.1520
 2775DOPS   C1A32561  34.089  11.463  13.399  0.0145 -0.0417 -0.1145
 2775DOPS   D2A32562  33.916  11.522  13.806  0.0996 -0.1239 -0.0935
 2775DOPS   C3A32563  34.261  11.761  14.047 -0.1623 -0.0741  0.1167
 2775DOPS   C4A32564  34.445  12.015  14.408 -0.1286  0.0624 -0.0791
 2775DOPS   C1B32565  33.993  10.956  13.639 -0.3383 -0.3088  0.1697
 2775DOPS   D2B32566  33.929  10.626  13.954  0.0981  0.0653 -0.1480
 2775DOPS   C3B32567  33.499  10.438  13.987 -0.1830  0.1348  0.2028
 2775DOPS   C4B32568  33.065  10.444  13.796 -0.0413 -0.1891 -0.1427
 2776DOPE   NH332569  34.603   2.923  12.669 -0.2288  0.4002  0.2308
 2776DOPE   PO432570  34.641   3.209  12.746 -0.0108 -0.2933  0.0734
 2776DOPE   GL132571  34.372   3.156  13.042  0.0536  0.0063 -0.1025
 2776DOPE   GL232572  34.186   2.994  12.923 -0.1568 -0.1911 -0.2086
 2776DOPE   C1A32573  33.999   3.174  13.413 -0.0853  0.0135 -0.0949
 2776DOPE   D2A32574  33.559   3.176  13.401  0.0915  0.1626  0.0840
 2776DOPE   C3A32575  33.392   3.161  13.815 -0.0818 -0.0561  0.1151
 2776DOPE   C4A32576  33.221   2.743  14.009  0.0911 -0.0073  0.2064
 2776DOPE   C1B32577  34.178   2.759  13.234 -0.1404  0.1912  0.1697
 2776DOPE   D2B32578  34.539   2.414  13.286 -0.1566  0.0153 -0.1965
 2776DOPE   C3B32579  34.743   2.025  13.481 -0.1460 -0.1630 -0.0414
 2776DOPE   C4B32580  34.715   1.688  13.753  0.4024  0.0194  0.2402
 2777DOPS   CNO32581  28.335  34.499  12.557  0.0572  0.2541  0.0182
 2777DOPS   PO432582  28.291  34.669  12.881  0.2517  0.2587  0.0601
 2777DOPS   GL132583  28.183  34.853  13.242 -0.1218 -0.1461 -0.0341
 2777DOPS   GL232584  28.431  34.922  13.435  0.1926  0.1494 -0.1686
 2777DOPS   C1A32585  27.969  35.242  13.262 -0.1068  0.1464  0.1509
 2777DOPS   D2A32586  27.680  35.539  12.965  0.3429  0.0713 -0.0956
 2777DOPS   C3A32587  27.688  35.961  13.201  0.2070  0.2455  0.0159
 2777DOPS   C4A32588  27.679  36.119  13.614 -0.1795 -0.2037  0.2707
 2777DOPS   C1B32589  28.477  34.906  13.889  0.0852  0.2678  0.0138
 2777DOPS   D2B32590  28.857  35.028  14.064 -0.1343  0.2691  0.1468
 2777DOPS   C3B32591  28.808  35.524  14.168 -0.0462  0.0204 -0.0268
 2777DOPS   C4B32592  28.434  35.848  14.266  0.4712  0.1991  0.1385
 2778DOPS   CNO32593  33.995   0.454  12.256  0.2448 -0.0154  0.0108
 2778DOPS   PO432594  33.797   0.505  12.569 -0.1199  0.1966 -0.1998
 2778DOPS   GL132595  33.885   0.877  12.710  0.0004  0.0919  0.1108
 2778DOPS   GL232596  33.667   0.977  12.813 -0.0797 -0.2180 -0.0174
 2778DOPS   C1A32597  34.080   1.041  13.074 -0.2850 -0.2790  0.0635
 2778DOPS   D2A32598  34.515   1.150  13.297 -0.0207  0.1104  0.4701
 2778DOPS   C3A32599  34.695   0.936  13.647  0.0237 -0.1626  0.2822
 2778DOPS   C4A32600  34.806   0.526  13.698  0.1080 -0.0881 -0.2849
 2778DOPS   C1B32601  33.642   0.943  13.274  0.2475 -0.1157 -0.2249
 2778DOPS   D2B32602  33.898   1.105  13.637  0.2187 -0.2537  0.1406
 2778DOPS   C3B32603  33.499   1.090  13.817  0.2647 -0.0636  0.3552
 2778DOPS   C4B32604  33.184   1.337  13.982  0.3003 -0.3384  0.2731
 2779DOPC   NC332605  26.443   1.320  12.722  0.0044  0.4332 -0.1418
 2779DOPC   PO432606  26.724   1.499  12.514  0.0414 -0.4138 -0.0824
 2779DOPC   GL132607  26.827   1.467  12.894  0.1874  0.1059 -0.2459
 2779DOPC   GL232608  26.948   1.218  12.858  0.3505 -0.1008 -0.0348
 2779DOPC   C1A32609  26.675   1.623  13.308 -0.2300  0.1076  0.0947
 2779DOPC   D2A32610  26.642   1.958  13.622 -0.3049  0.0619 -0.2463
 2779DOPC   C3A32611  26.552   1.947  14.057  0.0258 -0.0845  0.4893
 2779DOPC   C4A32612  26.366   1.628  14.317 -0.0122 -0.2501 -0.2290
 2779DOPC   C1B32613  27.188   1.452  13.212 -0.1542  0.4459  0.0292
 2779DOPC   D2B32614  27.137   1.614  13.630 -0.1207  0.1389 -0.0150
 2779DOPC   C3B32615  27.090   2.079  13.799 -0.0376  0.0417  0.1691
 2779DOPC   C4B32616  27.300   2.419  13.950  0.1999 -0.0989  0.0766
 2780DOPC   NC332617  32.860   7.486  12.436  0.0068  0.1332 -0.0805
 2780DOPC   PO432618  33.129   7.244  12.521 -0.1716 -0.1579 -0.3911
 2780DOPC   GL132619  33.147   7.061  12.864  0.1728  0.0116  0.2615
 2780DOPC   GL232620  33.310   6.896  13.035 -0.3221  0.1796 -0.0610
 2780DOPC   C1A32621  32.976   7.169  13.335  0.1931 -0.0762  0.0367
 2780DOPC   D2A32622  33.112   7.244  13.782 -0.0887 -0.4909 -0.0438
 2780DOPC   C3A32623  32.889   7.306  14.203 -0.1939  0.5028 -0.1407
 2780DOPC   C4A32624  32.741   7.151  14.630 -0.0908 -0.0793 -0.3509
 2780DOPC   C1B32625  33.489   6.922  13.505  0.1220 -0.2081  0.2638
 2780DOPC   D2B32626  33.711   7.131  13.816  0.1589 -0.2267  0.0161
 2780DOPC   C3B32627  33.435   7.186  14.129  0.0685 -0.1332 -0.1472
 2780DOPC   C4B32628  33.416   7.395  14.524 -0.2871 -0.0078  0.2473
 2781DOPE   NH332629  30.225   3.032  12.569  0.0488  0.1341 -0.2165
 2781DOPE   PO432630  30.106   3.187  12.766  0.1792 -0.0377 -0.3462
 2781DOPE   GL132631  30.119   3.217  13.224  0.2287 -0.2996  0.0417
 2781DOPE   GL232632  29.827   3.194  13.212  0.0058 -0.0211 -0.1582
 2781DOPE   C1A32633  30.100   3.431  13.677  0.0205 -0.0069  0.3373
 2781DOPE   D2A32634  30.268   3.745  13.958 -0.0080 -0.1603  0.2271
 2781DOPE   C3A32635  30.089   4.145  13.909  0.0279 -0.0807  0.6465
 2781DOPE   C4A32636  29.765   4.273  13.571  0.0052 -0.1409 -0.0934
 2781DOPE   C1B32637  29.756   3.684  13.055  0.4392 -0.2568 -0.3850
 2781DOPE   D2B32638  29.702   3.846  12.682 -0.1120 -0.2754  0.1133
 2781DOPE   C3B32639  29.263   4.004  12.819  0.1470  0.0028  0.1931
 2781DOPE   C4B32640  28.924   4.135  13.099  0.2515 -0.0201  0.0051
 2782DOPC   NC332641  32.657  11.035  12.465  0.0823  0.0902 -0.1274
 2782DOPC   PO432642  33.006  11.212  12.461 -0.3617  0.2125  0.1821
 2782DOPC   GL132643  33.194  11.407  12.834 -0.0310  0.1665 -0.0314
 2782DOPC   GL232644  33.183  11.155  13.025  0.0928 -0.0952 -0.0878
 2782DOPC   C1A32645  32.949  11.558  13.214 -0.2451  0.2530  0.0644
 2782DOPC   D2A32646  32.784  11.940  13.397 -0.0183 -0.1616 -0.1482
 2782DOPC   C3A32647  32.266  11.985  13.460  0.0407  0.2932 -0.1064
 2782DOPC   C4A32648  31.871  12.081  13.604 -0.0516 -0.3133  0.1004
 2782DOPC   C1B32649  32.929  11.036  13.458 -0.0687 -0.0927 -0.0626
 2782DOPC   D2B32650  32.656  10.986  13.789  0.1955  0.0857  0.1543
 2782DOPC   C3B32651  32.524  10.519  13.790  0.3457 -0.0776  0.1651
 2782DOPC   C4B32652  32.591  10.140  13.931 -0.0994 -0.0230 -0.0166
 2783POSM   NC332653  28.214   2.711  13.269 -0.3594 -0.2770 -0.4124
 2783POSM   PO432654  28.451   2.789  12.956 -0.1374 -0.5141  0.1331
 2783POSM   AM132655  28.644   2.773  13.200 -0.1639 -0.1442  0.2657
 2783POSM   AM232656  28.884   2.650  13.258 -0.0853 -0.0090 -0.0000
 2783POSM   T1A32657  28.479   2.706  13.712  0.1327 -0.1599 -0.0726
 2783POSM   C2A32658  28.314   3.028  13.986 -0.1581  0.0676 -0.4017
 2783POSM   C3A32659  28.237   3.372  14.315  0.1205 -0.0641 -0.2649
 2783POSM   C1B32660  29.015   2.650  13.564 -0.1604  0.4439  0.4240
 2783POSM   D2B32661  29.218   2.926  13.880  0.1936  0.0255  0.2457
 2783POSM   C3B32662  29.678   2.867  14.032  0.3051 -0.1447 -0.2118
 2783POSM   C4B32663  30.062   2.878  13.832  0.2980  0.0434 -0.2976
 2784DOPC   NC332664  25.611   7.982  12.883 -0.2161 -0.0381  0.1625
 2784DOPC   PO432665  25.848   7.998  12.565 -0.0085 -0.1726 -0.0616
 2784DOPC   GL132666  25.925   7.691  12.690  0.1450 -0.1555  0.0343
 2784DOPC   GL232667  26.207   7.650  12.741  0.0484 -0.1576 -0.2137
 2784DOPC   C1A32668  25.578   7.433  12.935 -0.0768 -0.1911 -0.2802
 2784DOPC   D2A32669  25.369   7.241  13.312  0.1635  0.0735  0.0886
 2784DOPC   C3A32670  25.634   7.132  13.679  0.0979 -0.0815 -0.1226
 2784DOPC   C4A32671  25.786   7.310  14.000  0.1852 -0.0203 -0.0766
 2784DOPC   C1B32672  25.995   7.685  13.144  0.2353 -0.0091 -0.0059
 2784DOPC   D2B32673  25.735   7.616  13.468  0.0698 -0.0934 -0.0680
 2784DOPC   C3B32674  25.988   7.894  13.757  0.3065 -0.3240 -0.1162
 2784DOPC   C4B32675  25.849   8.241  14.041 -0.1978 -0.1615  0.0481
 2785DOPC   NC332676  30.322   8.736  12.845  0.2230  0.0796  0.3736
 2785DOPC   PO432677  29.945   8.873  12.706 -0.4263 -0.0479 -0.4133
 2785DOPC   GL132678  29.731   8.681  13.012 -0.0744  0.0804  0.3196
 2785DOPC   GL232679  29.504   8.448  12.954  0.0021 -0.0891  0.0858
 2785DOPC   C1A32680  29.583   8.618  13.453 -0.4914  0.1055 -0.2627
 2785DOPC   D2A32681  29.685   8.799  13.871 -0.0831 -0.2079  0.0417
 2785DOPC   C3A32682  30.163   8.653  13.991  0.2197  0.0739 -0.0441
 2785DOPC   C4A32683  30.345   8.222  13.922 -0.0430 -0.0807 -0.1461
 2785DOPC   C1B32684  29.635   8.174  13.294 -0.0476  0.1039 -0.0117
 2785DOPC   D2B32685  29.801   8.303  13.702 -0.4288 -0.2184  0.0814
 2785DOPC   C3B32686  29.840   8.276  14.114 -0.2338  0.0621  0.1853
 2785DOPC   C4B32687  30.110   8.403  14.443 -0.0607 -0.1145  0.0536
 2786DOPE   NH332688  26.127   8.940  12.925 -0.2503 -0.2192 -0.2410
 2786DOPE   PO432689  26.250   9.073  12.693 -0.1642 -0.0958  0.0087
 2786DOPE   GL132690  26.249   9.402  13.112  0.2002  0.1889 -0.0061
 2786DOPE   GL232691  26.122   9.200  13.343 -0.1709  0.0332 -0.2921
 2786DOPE   C1A32692  26.604   9.392  13.418  0.2912 -0.1792  0.0431
 2786DOPE   D2A32693  26.763   9.459  13.861 -0.0242  0.0634 -0.1796
 2786DOPE   C3A32694  26.625   9.372  14.269 -0.1078  0.0567 -0.1830
 2786DOPE   C4A32695  26.809   9.480  14.651 -0.1131 -0.2972 -0.1599
 2786DOPE   C1B32696  25.950   9.579  13.524 -0.0728  0.2212 -0.0092
 2786DOPE   D2B32697  25.744   9.898  13.781 -0.1659  0.1120  0.1931
 2786DOPE   C3B32698  25.395   9.673  14.053  0.1450 -0.0458  0.4733
 2786DOPE   C4B32699  25.383   9.551  14.482  0.1266  0.1483  0.0998
 2787DOPE   NH332700  25.604  11.660  12.310  0.0188  0.0469  0.2033
 2787DOPE   PO432701  25.900  11.462  12.285  0.0750  0.0716  0.3124
 2787DOPE   GL132702  26.015  11.261  12.635 -0.0656  0.0888 -0.0535
 2787DOPE   GL232703  25.853  11.424  12.831 -0.0678  0.0160 -0.0720
 2787DOPE   C1A32704  26.187  10.988  12.928  0.0239  0.1765  0.0918
 2787DOPE   D2A32705  26.163  10.726  13.196 -0.0083  0.0092 -0.1316
 2787DOPE   C3A32706  25.775  10.683  13.325 -0.0203 -0.1592  0.0119
 2787DOPE   C4A32707  25.348  10.509  13.415 -0.1806 -0.1311  0.1637
 2787DOPE   C1B32708  25.666  11.222  13.093  0.1257 -0.5410 -0.4813
 2787DOPE   D2B32709  25.319  10.937  13.081 -0.1718 -0.1132 -0.0018
 2787DOPE   C3B32710  25.030  10.929  13.435  0.1033  0.0766  0.0383
 2787DOPE   C4B32711  24.869  10.630  13.717 -0.0339 -0.0037 -0.1995
 2788DOPC   NC332712  22.840   7.086  13.013 -0.0009 -0.0243  0.1101
 2788DOPC   PO432713  23.185   6.870  12.907  0.2160  0.0723  0.2964
 2788DOPC   GL132714  23.095   6.953  13.360 -0.2579  0.2763  0.2515
 2788DOPC   GL232715  22.927   6.744  13.421  0.0771  0.0320 -0.0183
 2788DOPC   C1A32716  23.051   7.385  13.541 -0.3220  0.0649 -0.0504
 2788DOPC   D2A32717  23.240   7.755  13.799  0.1779  0.1999 -0.1943
 2788DOPC   C3A32718  23.665   7.646  13.934  0.2158  0.0446  0.0827
 2788DOPC   C4A32719  23.987   7.372  13.848  0.1185 -0.1024 -0.0309
 2788DOPC   C1B32720  23.054   6.401  13.720  0.1014 -0.1274 -0.0035
 2788DOPC   D2B32721  22.921   5.936  13.731  0.1038  0.0939  0.0765
 2788DOPC   C3B32722  23.320   5.660  13.855 -0.2753 -0.2066  0.3331
 2788DOPC   C4B32723  23.787   5.786  13.865  0.3801 -0.1551 -0.1643
 2789DOPE   NH332724  32.823   6.680  12.377 -0.0800 -0.1225 -0.2152
 2789DOPE   PO432725  33.001   6.632  12.660 -0.0164 -0.1327 -0.1227
 2789DOPE   GL132726  33.211   6.394  12.917  0.1145  0.0623 -0.0455
 2789DOPE   GL232727  33.020   6.151  13.004  0.1969 -0.0760 -0.0735
 2789DOPE   C1A32728  33.161   6.508  13.374  0.2359 -0.0142  0.2327
 2789DOPE   D2A32729  33.369   6.439  13.718 -0.2415 -0.2848  0.0226
 2789DOPE   C3A32730  33.839   6.545  13.887  0.4645 -0.1386  0.0779
 2789DOPE   C4A32731  34.104   6.348  14.218 -0.1861  0.0564  0.3667
 2789DOPE   C1B32732  33.077   6.002  13.435 -0.1734  0.0963 -0.2616
 2789DOPE   D2B32733  33.382   5.868  13.818  0.1187  0.2147 -0.5567
 2789DOPE   C3B32734  33.235   5.660  14.171  0.0672  0.1131  0.0004
 2789DOPE   C4B32735  33.316   5.418  14.563  0.0403  0.2052 -0.2965
 2790DOPS   CNO32736  29.902  10.543  12.572 -0.0130 -0.2371 -0.1089
 2790DOPS   PO432737  29.871  10.402  12.934  0.0299  0.0502  0.2310
 2790DOPS   GL132738  29.695  10.432  13.289  0.1055  0.0267 -0.0690
 2790DOPS   GL232739  29.812  10.615  13.395 -0.2142 -0.2358 -0.2516
 2790DOPS   C1A32740  29.679  10.176  13.659 -0.0070  0.1207 -0.1249
 2790DOPS   D2A32741  29.632   9.886  13.972  0.0352 -0.0767  0.1077
 2790DOPS   C3A32742  29.857   9.771  14.360  0.0875  0.1525  0.0004
 2790DOPS   C4A32743  29.741   9.439  14.704  0.1078  0.3976 -0.0025
 2790DOPS   C1B32744  29.829  10.751  13.827  0.0335  0.1308  0.2158
 2790DOPS   D2B32745  29.865  10.908  14.227  0.1078 -0.1958 -0.2530
 2790DOPS   C3B32746  29.666  10.653  14.549 -0.1257  0.1654 -0.0039
 2790DOPS   C4B32747  29.404  10.554  14.858 -0.0025  0.1703  0.2501
 2791DOPC   NC332748  27.486  11.332  12.704 -0.1431 -0.0647  0.2490
 2791DOPC   PO432749  27.287  11.078  12.448 -0.0249 -0.1974 -0.1188
 2791DOPC   GL132750  27.183  10.992  12.807  0.1629  0.0988 -0.2654
 2791DOPC   GL232751  27.181  11.077  13.049 -0.2019  0.0287 -0.1991
 2791DOPC   C1A32752  27.054  10.554  12.929  0.0501 -0.1994  0.5373
 2791DOPC   D2A32753  26.859  10.291  13.266 -0.1655  0.3453  0.0458
 2791DOPC   C3A32754  26.500  10.201  13.519 -0.1345 -0.1785 -0.2759
 2791DOPC   C4A32755  26.387   9.816  13.800  0.0326  0.1880  0.0058
 2791DOPC   C1B32756  27.040  10.822  13.441  0.1911 -0.0414 -0.1776
 2791DOPC   D2B32757  26.835  10.519  13.734  0.2653 -0.1407 -0.0779
 2791DOPC   C3B32758  26.601  10.714  14.059 -0.0032  0.0308  0.0458
 2791DOPC   C4B32759  26.232  10.961  14.297 -0.0399 -0.0201  0.2241
 2792POSM   NC332760  32.513   7.134  12.352 -0.0233 -0.0371  0.2378
 2792POSM   PO432761  32.237   7.253  12.643  0.0682 -0.2904  0.0484
 2792POSM   AM132762  32.270   7.282  12.982  0.2560  0.0144 -0.1848
 2792POSM   AM232763  32.252   7.115  13.199 -0.3097  0.1213  0.1435
 2792POSM   T1A32764  32.197   7.569  13.400 -0.1356  0.3161 -0.3632
 2792POSM   C2A32765  31.965   7.433  13.790 -0.2345 -0.1200 -0.3189
 2792POSM   C3A32766  31.811   7.483  14.241 -0.0411 -0.3932 -0.0715
 2792POSM   C1B32767  32.156   6.969  13.505  0.0422  0.0045  0.0023
 2792POSM   D2B32768  31.889   6.683  13.842 -0.3564  0.1196 -0.0010
 2792POSM   C3B32769  31.979   6.985  14.298 -0.2997  0.1561  0.1967
 2792POSM   C4B32770  32.234   6.979  14.628 -0.0707  0.0262 -0.0585
 2793DOPC   NC332771  25.003   6.606  12.553 -0.0492 -0.1157  0.0026
 2793DOPC   PO432772  24.642   6.639  12.660 -0.0498 -0.1633 -0.1715
 2793DOPC   GL132773  24.772   6.867  12.996  0.2913 -0.1537 -0.1699
 2793DOPC   GL232774  24.592   6.751  13.151  0.0040 -0.0761 -0.1148
 2793DOPC   C1A32775  24.916   7.025  13.410 -0.0583  0.2287  0.0480
 2793DOPC   D2A32776  24.852   7.052  13.867 -0.2306 -0.0696  0.0885
 2793DOPC   C3A32777  24.391   6.855  13.965 -0.3350  0.2737  0.0022
 2793DOPC   C4A32778  24.055   6.930  14.255 -0.0048  0.3842 -0.6227
 2793DOPC   C1B32779  24.174   6.654  13.461  0.0184 -0.4267  0.0093
 2793DOPC   D2B32780  23.903   6.856  13.764 -0.1528 -0.1873  0.1259
 2793DOPC   C3B32781  23.717   6.611  14.075 -0.0812 -0.1234 -0.0285
 2793DOPC   C4B32782  23.652   6.241  14.382  0.1046 -0.3913 -0.0552
 2794POSM   NC332783  27.225   7.554  12.513  0.1710  0.0142  0.2611
 2794POSM   PO432784  27.555   7.652  12.676 -0.1712  0.3181  0.1216
 2794POSM   AM132785  27.782   7.911  12.804  0.3337 -0.2888 -0.0680
 2794POSM   AM232786  27.861   8.164  12.732  0.0284  0.1974 -0.3380
 2794POSM   T1A32787  28.045   8.110  13.218  0.0034  0.0385 -0.2543
 2794POSM   C2A32788  28.428   8.279  13.204  0.1182  0.1345  0.3526
 2794POSM   C3A32789  28.638   8.653  13.405  0.0004  0.0828  0.0129
 2794POSM   C1B32790  28.162   8.322  12.749  0.3781 -0.3086 -0.0404
 2794POSM   D2B32791  28.476   8.640  12.850 -0.1582  0.3820 -0.1681
 2794POSM   C3B32792  28.958   8.439  12.842 -0.2023 -0.0807 -0.0640
 2794POSM   C4B32793  29.190   8.052  12.984 -0.0425  0.0004  0.2713
 2795DOPE   NH332794  25.782   5.856  12.905  0.2344 -0.3079 -0.1662
 2795DOPE   PO432795  25.933   5.794  13.186  0.1725  0.1916  0.2084
 2795DOPE   GL132796  25.969   5.928  13.579 -0.1468  0.1808 -0.0276
 2795DOPE   GL232797  25.973   5.614  13.678  0.0939 -0.2158 -0.1822
 2795DOPE   C1A32798  25.721   6.216  13.832  0.1266  0.1442 -0.1387
 2795DOPE   D2A32799  25.445   6.434  14.149  0.4134  0.1392  0.0887
 2795DOPE   C3A32800  25.160   6.293  14.499 -0.1774  0.0182 -0.0705
 2795DOPE   C4A32801  24.826   6.518  14.668  0.0267  0.0689  0.0184
 2795DOPE   C1B32802  25.810   5.727  14.070 -0.1826 -0.1954  0.1880
 2795DOPE   D2B32803  25.714   6.045  14.394 -0.3193 -0.0525 -0.1448
 2795DOPE   C3B32804  25.963   6.448  14.234  0.1699  0.0612  0.0160
 2795DOPE   C4B32805  26.393   6.594  14.236  0.0984 -0.2668  0.0076
 2796DOPE   NH332806  32.687   7.127  12.889  0.0640  0.1890  0.2144
 2796DOPE   PO432807  32.551   6.847  12.819 -0.0596 -0.2669 -0.0698
 2796DOPE   GL132808  32.815   6.668  13.110 -0.1534  0.2399 -0.3947
 2796DOPE   GL232809  32.664   6.809  13.372 -0.1355 -0.1349  0.2095
 2796DOPE   C1A32810  32.709   6.292  13.433 -0.1301  0.0597  0.2493
 2796DOPE   D2A32811  32.893   6.318  13.823  0.1471 -0.1726  0.1302
 2796DOPE   C3A32812  32.877   5.965  14.075 -0.2302 -0.1953  0.0781
 2796DOPE   C4A32813  32.784   5.627  14.392 -0.1957  0.3664  0.1541
 2796DOPE   C1B32814  32.815   6.826  13.765 -0.0437  0.1080  0.2670
 2796DOPE   D2B32815  32.876   6.813  14.178 -0.1929 -0.0499 -0.0346
 2796DOPE   C3B32816  33.091   6.427  14.341 -0.0305 -0.1172  0.1748
 2796DOPE   C4B32817  33.115   5.956  14.522 -0.3795 -0.2692  0.1362
 2797DOPS   CNO32818  30.038   0.162  12.403 -0.1042 -0.0564  0.1167
 2797DOPS   PO432819  30.153   0.239  12.766  0.0098  0.4074 -0.0555
 2797DOPS   GL132820  29.998   0.311  13.281 -0.1143 -0.0007 -0.2258
 2797DOPS   GL232821  29.783   0.435  13.388 -0.0745  0.2144 -0.1590
 2797DOPS   C1A32822  29.913  -0.068  13.529  0.0271 -0.2323  0.1130
 2797DOPS   D2A32823  30.107  -0.262  13.964  0.0186  0.0969  0.0813
 2797DOPS   C3A32824  30.584  -0.369  14.015 -0.1892 -0.1797 -0.0825
 2797DOPS   C4A32825  30.885  -0.685  13.998  0.0871  0.3337  0.2133
 2797DOPS   C1B32826  29.806   0.566  13.856 -0.2602  0.0537 -0.0420
 2797DOPS   D2B32827  29.746   0.616  14.323  0.3362  0.1987 -0.0178
 2797DOPS   C3B32828  30.109   0.435  14.553 -0.0411 -0.0541  0.2026
 2797DOPS   C4B32829  30.497   0.180  14.661  0.0909  0.1597 -0.0637
 2798DOPE   NH332830  24.402   0.398  12.613 -0.0655 -0.0199 -0.1683
 2798DOPE   PO432831  24.521   0.465  12.320  0.2322 -0.0072 -0.2745
 2798DOPE   GL132832  24.241   0.787  12.338 -0.3015  0.0958 -0.0645
 2798DOPE   GL232833  24.484   0.892  12.515 -0.3136  0.0024 -0.1537
 2798DOPE   C1A32834  23.961   0.713  12.682  0.0436 -0.0946 -0.0078
 2798DOPE   D2A32835  24.003   0.647  13.142 -0.1566 -0.0752 -0.0902
 2798DOPE   C3A32836  24.268   1.028  13.414  0.1230 -0.4139  0.0602
 2798DOPE   C4A32837  23.985   1.171  13.685 -0.1517 -0.2606  0.2995
 2798DOPE   C1B32838  24.508   0.996  12.941  0.1505 -0.1594  0.2240
 2798DOPE   D2B32839  24.532   1.354  13.181  0.1039  0.1057 -0.2819
 2798DOPE   C3B32840  24.144   1.574  13.352 -0.1435  0.1772  0.0204
 2798DOPE   C4B32841  23.865   1.824  13.549 -0.0256 -0.0254 -0.1376
 2799DOPE   NH332842  31.366   0.996  12.335  0.1484 -0.2477  0.1690
 2799DOPE   PO432843  31.655   1.074  12.436  0.0828  0.1791  0.2304
 2799DOPE   GL132844  31.951   0.914  12.719 -0.0312 -0.0107 -0.2789
 2799DOPE   GL232845  31.674   0.840  12.863 -0.1540  0.3381 -0.0279
 2799DOPE   C1A32846  32.170   1.052  13.107 -0.1856  0.3468  0.1566
 2799DOPE   D2A32847  32.419   1.450  13.170 -0.1956  0.2027  0.1063
 2799DOPE   C3A32848  32.873   1.614  13.079  0.2664 -0.1850  0.0163
 2799DOPE   C4A32849  33.197   1.893  12.926  0.2643 -0.0449  0.2517
 2799DOPE   C1B32850  31.823   0.782  13.309 -0.1362 -0.1781 -0.2261
 2799DOPE   D2B32851  32.148   0.914  13.613  0.0195 -0.1468 -0.2448
 2799DOPE   C3B32852  32.508   1.227  13.584  0.1812  0.1826  0.2625
 2799DOPE   C4B32853  32.849   1.488  13.630  0.0751 -0.0172 -0.3729
 2800POSM   NC332854  34.435   9.194  12.521  0.0186 -0.0692 -0.1428
 2800POSM   PO432855  34.099   9.151  12.329  0.0943 -0.0755 -0.0955
 2800POSM   AM132856  34.035   9.002  12.607  0.0632  0.0907  0.1324
 2800POSM   AM232857  33.823   8.901  12.766  0.1377  0.0082  0.1471
 2800POSM   T1A32858  34.272   8.912  13.000  0.1236 -0.1319 -0.0022
 2800POSM   C2A32859  34.526   8.824  13.364 -0.0747 -0.0262 -0.1432
 2800POSM   C3A32860  34.557   9.028  13.740 -0.0926  0.4454  0.3474
 2800POSM   C1B32861  33.753   9.130  13.029  0.4091  0.2079 -0.0808
 2800POSM   D2B32862  33.560   9.307  13.477  0.0136  0.1403  0.0273
 2800POSM   C3B32863  33.880   9.544  13.743  0.0722 -0.0203  0.1849
 2800POSM   C4B32864  33.962   9.800  14.156  0.0235 -0.0239  0.1990
 2801DOPC   NC332865  33.754   8.727  12.294 -0.1155  0.2251  0.2318
 2801DOPC   PO432866  33.795   8.338  12.212  0.0581  0.0854  0.0151
 2801DOPC   GL132867  33.783   8.436  12.649 -0.1809 -0.0732 -0.0654
 2801DOPC   GL232868  34.082   8.453  12.796  0.0059 -0.1124 -0.3883
 2801DOPC   C1A32869  33.634   8.311  13.069 -0.1275  0.0758  0.0580
 2801DOPC   D2A32870  33.623   8.322  13.545  0.0815 -0.2622 -0.0387
 2801DOPC   C3A32871  33.789   8.478  13.902 -0.1064 -0.0761 -0.0601
 2801DOPC   C4A32872  34.044   8.778  14.242  0.2918 -0.1324 -0.1002
 2801DOPC   C1B32873  34.521   8.577  12.740  0.0362  0.2538  0.1323
 2801DOPC   D2B32874  34.900   8.698  12.940 -0.1436  0.3452 -0.2565
 2801DOPC   C3B32875  34.928   8.442  13.308 -0.2656 -0.2959  0.1433
 2801DOPC   C4B32876  34.996   8.138  13.619  0.1594 -0.2388 -0.4618
 2802DOPC   NC332877  28.218   0.458  12.846  0.0360  0.0324 -0.0446
 2802DOPC   PO432878  27.924   0.283  12.657 -0.1654  0.2358 -0.0367
 2802DOPC   GL132879  27.683   0.254  12.887 -0.1091  0.0291 -0.0359
 2802DOPC   GL232880  27.402   0.111  12.966 -0.2437  0.1117  0.1089
 2802DOPC   C1A32881  27.766   0.083  13.303 -0.0965 -0.0174  0.1867
 2802DOPC   D2A32882  27.914   0.098  13.729  0.1257 -0.2329  0.0186
 2802DOPC   C3A32883  28.049   0.512  13.800 -0.1321  0.1144 -0.2394
 2802DOPC   C4A32884  28.296   0.607  14.147 -0.0242 -0.1048 -0.3047
 2802DOPC   C1B32885  27.154  -0.034  13.366 -0.2205 -0.1732  0.1259
 2802DOPC   D2B32886  27.134  -0.371  13.699 -0.0203  0.0537 -0.1026
 2802DOPC   C3B32887  27.499  -0.597  13.854 -0.2068  0.2817  0.0040
 2802DOPC   C4B32888  27.840  -0.915  14.010  0.2860  0.0980 -0.3282
 2803DOPE   NH332889  26.594   0.624  12.832 -0.1242  0.3776 -0.1287
 2803DOPE   PO432890  26.482   0.910  12.996 -0.0116  0.0512 -0.0916
 2803DOPE   GL132891  26.727   0.827  13.273 -0.0565 -0.2063 -0.1993
 2803DOPE   GL232892  26.798   1.149  13.439 -0.1253  0.2618  0.0856
 2803DOPE   C1A32893  26.977   0.706  13.641  0.0327  0.0156  0.1974
 2803DOPE   D2A32894  27.291   0.576  13.939 -0.0066 -0.0509  0.0039
 2803DOPE   C3A32895  27.676   0.559  14.132  0.0641  0.0299  0.3460
 2803DOPE   C4A32896  27.885   0.582  14.499 -0.0964 -0.0311  0.0630
 2803DOPE   C1B32897  26.586   0.953  13.813 -0.0006  0.2795 -0.1806
 2803DOPE   D2B32898  26.251   0.811  14.060  0.2349 -0.0581  0.1081
 2803DOPE   C3B32899  26.431   0.776  14.442  0.0982  0.1343 -0.0057
 2803DOPE   C4B32900  26.797   0.610  14.639 -0.2708 -0.0504  0.1587
 2804DOPE   NH332901  30.903   4.036  12.465  0.2269  0.1661  0.2031
 2804DOPE   PO432902  31.109   4.292  12.420 -0.1660 -0.0086 -0.1673
 2804DOPE   GL132903  31.186   4.186  12.822 -0.1200 -0.1235  0.2515
 2804DOPE   GL232904  31.451   4.243  12.806  0.0303  0.0557 -0.1215
 2804DOPE   C1A32905  31.242   4.048  13.222 -0.2483 -0.0819  0.2656
 2804DOPE   D2A32906  31.266   3.778  13.576 -0.0013  0.3400 -0.1217
 2804DOPE   C3A32907  31.156   3.950  13.997  0.3921  0.0479  0.1204
 2804DOPE   C4A32908  31.184   4.094  14.369  0.1152 -0.0197 -0.0441
 2804DOPE   C1B32909  31.656   4.285  13.227 -0.5703  0.4462 -0.0173
 2804DOPE   D2B32910  31.642   4.078  13.653 -0.0366  0.1878 -0.0690
 2804DOPE   C3B32911  32.017   3.835  13.808 -0.1256  0.1171 -0.0464
 2804DOPE   C4B32912  32.377   3.972  14.072  0.0199  0.4002 -0.1535
 2805POSM   NC332913  28.785   0.018  12.980  0.0331  0.1967  0.3537
 2805POSM   PO432914  28.635   0.266  12.656  0.1284  0.0625 -0.4142
 2805POSM   AM132915  28.695   0.547  12.836  0.1654  0.3648 -0.1941
 2805POSM   AM232916  28.700   0.593  13.129  0.0761  0.1263  0.1015
 2805POSM   T1A32917  28.737   1.040  13.043 -0.1623  0.2495  0.1497
 2805POSM   C2A32918  28.987   1.323  13.355 -0.0154  0.2945 -0.1276
 2805POSM   C3A32919  29.224   1.528  13.706  0.0160  0.1894 -0.1449
 2805POSM   C1B32920  28.432   0.747  13.280 -0.1910  0.3010 -0.1148
 2805POSM   D2B32921  28.088   0.995  13.506 -0.0934  0.2760 -0.0367
 2805POSM   C3B32922  28.006   1.023  13.982 -0.3051  0.1680  0.0096
 2805POSM   C4B32923  27.951   1.015  14.373 -0.3060 -0.3795 -0.2531
 2806POSM   NC332924  30.724   5.002  12.560 -0.1779 -0.3279 -0.0545
 2806POSM   PO432925  30.908   5.279  12.699 -0.1157 -0.1148  0.2078
 2806POSM   AM132926  31.022   5.153  12.997  0.0432 -0.3234  0.0604
 2806POSM   AM232927  30.977   4.934  13.187 -0.3027  0.2161 -0.2817
 2806POSM   T1A32928  31.439   5.193  13.309  0.0008 -0.0030 -0.2176
 2806POSM   C2A32929  31.812   5.278  13.593 -0.1969  0.2226  0.0364
 2806POSM   C3A32930  32.245   5.423  13.732  0.0530 -0.2320 -0.0877
 2806POSM   C1B32931  30.654   4.892  13.177 -0.5974  0.0990  0.4718
 2806POSM   D2B32932  30.341   4.921  13.496  0.2070  0.0662 -0.1348
 2806POSM   C3B32933  30.061   4.792  13.815 -0.0239  0.0623  0.1787
 2806POSM   C4B32934  29.573   4.660  14.052  0.1020  0.1341  0.3117
 2807POSM   NC332935  24.387   9.415  12.372  0.3129  0.0362 -0.0550
 2807POSM   PO432936  24.597   9.067  12.338  0.0470 -0.3568  0.3851
 2807POSM   AM132937  24.807   9.231  12.580  0.0123  0.0359  0.1582
 2807POSM   AM232938  24.759   9.448  12.720 -0.0528  0.5689  0.1974
 2807POSM   T1A32939  25.250   9.570  12.675  0.1544  0.0721  0.3242
 2807POSM   C2A32940  25.700   9.814  12.697  0.1611 -0.3813 -0.3790
 2807POSM   C3A32941  26.020   9.754  13.018 -0.0344 -0.0527 -0.0010
 2807POSM   C1B32942  24.670   9.326  13.042  0.3776  0.1401  0.0543
 2807POSM   D2B32943  24.532   9.277  13.468 -0.0536 -0.1222  0.0856
 2807POSM   C3B32944  24.353   8.929  13.594 -0.1870 -0.1712 -0.2919
 2807POSM   C4B32945  24.152   8.501  13.601  0.0816  0.2983  0.1070
 2808POSM   NC332946  34.090   3.697  12.126 -0.2787 -0.3325  0.4565
 2808POSM   PO432947  33.955   3.324  12.101 -0.2863  0.0514 -0.1982
 2808POSM   AM132948  33.636   3.304  12.216  0.2379  0.2558 -0.0731
 2808POSM   AM232949  33.474   3.480  12.367  0.1303 -0.0292 -0.1937
 2808POSM   T1A32950  33.176   3.123  12.397  0.2442  0.0223  0.0613
 2808POSM   C2A32951  32.995   2.758  12.623  0.2476 -0.1876 -0.1236
 2808POSM   C3A32952  33.075   2.327  12.717 -0.0644  0.1883  0.0924
 2808POSM   C1B32953  33.441   3.527  12.726  0.0451 -0.2447 -0.2232
 2808POSM   D2B32954  33.430   3.608  13.194 -0.1101 -0.1375 -0.2013
 2808POSM   C3B32955  33.089   3.453  13.520 -0.3145 -0.1565  0.3026
 2808POSM   C4B32956  32.861   3.055  13.734 -0.0519 -0.1317  0.0522
 2809DOPC   NC332957  26.803   5.539  13.369 -0.2162  0.1068 -0.0447
 2809DOPC   PO432958  26.436   5.688  13.356 -0.4142 -0.0102 -0.1448
 2809DOPC   GL132959  26.545   5.618  13.749 -0.6074  0.1209 -0.1325
 2809DOPC   GL232960  26.848   5.674  13.854 -0.1754 -0.1354 -0.0544
 2809DOPC   C1A32961  26.404   5.644  14.153 -0.0662  0.2796  0.3903
 2809DOPC   D2A32962  26.447   5.212  14.338  0.1022  0.1346  0.0939
 2809DOPC   C3A32963  26.922   5.249  14.467 -0.1488  0.1859 -0.1879
 2809DOPC   C4A32964  27.326   5.352  14.585 -0.1068 -0.1986 -0.0794
 2809DOPC   C1B32965  26.820   5.264  13.993  0.0345  0.0465 -0.0223
 2809DOPC   D2B32966  27.238   4.999  14.059  0.2086 -0.2184  0.0927
 2809DOPC   C3B32967  27.346   4.759  13.669  0.0014  0.0349 -0.0271
 2809DOPC   C4B32968  27.477   4.474  13.334  0.3470  0.1088 -0.0175
 2810DOPC   NC332969  31.116   1.575  12.816 -0.0377 -0.0445  0.1804
 2810DOPC   PO432970  31.292   1.207  12.766  0.2972  0.0543 -0.2256
 2810DOPC   GL132971  31.505   1.312  13.027  0.2821 -0.0377 -0.3968
 2810DOPC   GL232972  31.807   1.321  12.935 -0.2820 -0.0296 -0.0872
 2810DOPC   C1A32973  31.518   1.208  13.446 -0.0216  0.1556  0.1276
 2810DOPC   D2A32974  31.601   1.215  13.903  0.0835  0.1156 -0.3744
 2810DOPC   C3A32975  31.773   1.459  14.182  0.0006 -0.0746  0.3175
 2810DOPC   C4A32976  31.863   1.333  14.606  0.2375  0.4473  0.4903
 2810DOPC   C1B32977  31.927   1.477  13.321 -0.0037  0.0945  0.0243
 2810DOPC   D2B32978  32.025   1.549  13.772 -0.1061 -0.1666  0.2392
 2810DOPC   C3B32979  32.448   1.630  13.901  0.0380 -0.0403 -0.1424
 2810DOPC   C4B32980  32.844   1.580  14.198  0.0159  0.1468 -0.1902
 2811DOPE   NH332981  31.806   7.257  13.006  0.0963  0.0797  0.0844
 2811DOPE   PO432982  31.633   7.015  13.106 -0.1635 -0.2125 -0.4147
 2811DOPE   GL132983  31.573   7.195  13.544 -0.2006 -0.1658  0.1221
 2811DOPE   GL232984  31.594   7.467  13.458 -0.1812 -0.0333  0.0632
 2811DOPE   C1A32985  31.510   7.210  13.988 -0.1978 -0.1656 -0.0746
 2811DOPE   D2A32986  31.388   7.302  14.422 -0.2630 -0.2909 -0.0172
 2811DOPE   C3A32987  31.006   7.123  14.617 -0.2462 -0.0423  0.2279
 2811DOPE   C4A32988  30.559   7.208  14.790 -0.3366  0.3105  0.0017
 2811DOPE   C1B32989  31.487   7.919  13.393 -0.1006  0.3045  0.1054
 2811DOPE   D2B32990  31.448   8.332  13.623 -0.3807  0.3696  0.2229
 2811DOPE   C3B32991  31.117   8.273  13.909  0.1593  0.3640 -0.1924
 2811DOPE   C4B32992  30.765   8.109  14.159  0.1115  0.1958 -0.0559
 2812DOPC   NC332993  31.126   6.499  12.621  0.0332  0.2863  0.2317
 2812DOPC   PO432994  31.337   6.767  12.769  0.0480 -0.0764  0.2096
 2812DOPC   GL132995  31.294   6.713  13.101 -0.1325  0.1226 -0.1285
 2812DOPC   GL232996  31.150   6.907  13.306 -0.2991  0.2567  0.0572
 2812DOPC   C1A32997  31.020   6.483  13.429  0.2416  0.0284 -0.1809
 2812DOPC   D2A32998  30.704   6.182  13.536 -0.5503  0.0401 -0.0895
 2812DOPC   C3A32999  30.808   5.797  13.717  0.0145 -0.2209  0.2556
 2812DOPC   C4A33000  31.186   5.883  13.948  0.3179 -0.0448 -0.1314
 2812DOPC   C1B33001  31.109   7.227  13.622  0.0756 -0.2071  0.3016
 2812DOPC   D2B33002  30.767   7.245  13.969 -0.2020 -0.2193  0.1388
 2812DOPC   C3B33003  30.701   7.649  13.995  0.2957  0.0698  0.0325
 2812DOPC   C4B33004  30.531   7.877  13.652 -0.1708  0.5101 -0.1284
 2813DOPC   NC333005  32.847   7.929  12.219  0.1993 -0.1119  0.1110
 2813DOPC   PO433006  32.930   7.953  12.616  0.0532 -0.0640 -0.1233
 2813DOPC   GL133007  32.976   8.075  12.968 -0.1327 -0.0437  0.3270
 2813DOPC   GL233008  33.163   8.305  12.907  0.2909 -0.1165 -0.0753
 2813DOPC   C1A33009  33.202   7.996  13.333  0.1487 -0.0760  0.0054
 2813DOPC   D2A33010  33.165   8.250  13.743  0.0505 -0.3765  0.0579
 2813DOPC   C3A33011  32.801   8.464  13.650  0.0397  0.1360 -0.1460
 2813DOPC   C4A33012  32.403   8.731  13.891  0.0974 -0.1909 -0.0942
 2813DOPC   C1B33013  33.159   8.503  13.298  0.2606 -0.0196 -0.0258
 2813DOPC   D2B33014  33.236   8.797  13.601  0.1300  0.4492  0.0993
 2813DOPC   C3B33015  33.220   8.616  14.016  0.2143 -0.1196 -0.2308
 2813DOPC   C4B33016  33.015   8.295  14.267 -0.2796  0.0108 -0.0696
 2814DOPS   CNO33017  31.635  11.273  12.946 -0.2168  0.0141  0.1058
 2814DOPS   PO433018  31.300  11.240  12.775  0.3030 -0.1038  0.0764
 2814DOPS   GL133019  31.319  11.570  13.107  0.0879 -0.0683 -0.2357
 2814DOPS   GL233020  31.259  11.414  13.344 -0.1002  0.0210  0.0871
 2814DOPS   C1A33021  31.380  11.963  13.374  0.3543  0.0023  0.1380
 2814DOPS   D2A33022  31.390  12.325  13.617  0.1950  0.0309  0.1978
 2814DOPS   C3A33023  31.287  12.712  13.401  0.1623 -0.2448  0.1765
 2814DOPS   C4A33024  31.317  13.200  13.516 -0.0206 -0.1908  0.3161
 2814DOPS   C1B33025  31.456  10.990  13.431 -0.1373 -0.0421 -0.2903
 2814DOPS   D2B33026  31.550  10.515  13.387  0.2879 -0.0827 -0.0701
 2814DOPS   C3B33027  31.516  10.338  13.840 -0.0532 -0.1307 -0.1139
 2814DOPS   C4B33028  31.641  10.287  14.232 -0.4798 -0.0808 -0.1034
 2815POSM   NC333029  34.110   5.377  12.709  0.1262  0.1570  0.0283
 2815POSM   PO433030  33.884   5.228  12.375 -0.0303 -0.1393 -0.0958
 2815POSM   AM133031  33.716   5.114  12.636  0.1600  0.0682  0.2326
 2815POSM   AM233032  33.717   5.081  12.931  0.1887  0.1632 -0.0760
 2815POSM   T1A33033  33.273   5.303  12.798 -0.3718  0.1059  0.2807
 2815POSM   C2A33034  33.185   5.573  13.195  0.1865  0.0953  0.0993
 2815POSM   C3A33035  33.106   5.507  13.657  0.0646  0.1161  0.0554
 2815POSM   C1B33036  33.595   5.186  13.225  0.1553 -0.0025  0.4900
 2815POSM   D2B33037  33.473   5.173  13.682 -0.1172  0.1115 -0.0620
 2815POSM   C3B33038  33.055   4.948  13.627 -0.1382 -0.1622  0.0583
 2815POSM   C4B33039  32.710   5.174  13.488  0.1089  0.0044 -0.2031
 2816DOPS   CNO33040  30.119   9.429  12.430 -0.2849  0.2133  0.0252
 2816DOPS   PO433041  30.306   9.201  12.686 -0.1085 -0.2046  0.0458
 2816DOPS   GL133042  30.742   9.066  12.865  0.1133  0.0017 -0.6417
 2816DOPS   GL233043  30.652   9.312  12.985  0.1992  0.0326 -0.2485
 2816DOPS   C1A33044  31.088   9.056  13.150 -0.4878 -0.0151 -0.0494
 2816DOPS   D2A33045  31.503   9.031  13.302  0.0131  0.3752  0.1665
 2816DOPS   C3A33046  31.701   9.431  13.187  0.0429 -0.1176 -0.1584
 2816DOPS   C4A33047  31.916   9.856  13.003 -0.3455 -0.1717 -0.2406
 2816DOPS   C1B33048  30.816   9.363  13.419 -0.3403 -0.2627 -0.1271
 2816DOPS   D2B33049  30.942   9.096  13.809 -0.0798  0.0338  0.4960
 2816DOPS   C3B33050  30.638   8.987  14.134 -0.1203 -0.2044 -0.0573
 2816DOPS   C4B33051  30.306   8.889  14.400  0.0048 -0.0080 -0.0990
 2817POSM   NC333052  25.388   6.106  12.728  0.2913 -0.0799 -0.0711
 2817POSM   PO433053  25.323   6.024  13.080 -0.0391 -0.0552  0.1966
 2817POSM   AM133054  25.337   5.826  13.346  0.1511  0.1555 -0.2033
 2817POSM   AM233055  25.529   5.826  13.563 -0.0246 -0.1712  0.3566
 2817POSM   T1A33056  24.940   5.641  13.674 -0.3518  0.2286  0.3248
 2817POSM   C2A33057  24.716   5.888  13.958  0.0975  0.1258  0.1179
 2817POSM   C3A33058  24.705   6.098  14.348 -0.0041 -0.0875  0.1082
 2817POSM   C1B33059  25.400   5.566  13.757  0.1044  0.2039 -0.0871
 2817POSM   D2B33060  25.440   5.263  14.146  0.0830 -0.2145 -0.1128
 2817POSM   C3B33061  25.536   4.935  14.447  0.4730  0.0948  0.0018
 2817POSM   C4B33062  25.195   4.679  14.669 -0.0182  0.1297 -0.4469
 2818DOPC   NC333063  26.167   8.119  12.920  0.0970 -0.0651  0.1943
 2818DOPC   PO433064  26.439   8.074  12.622  0.1742 -0.3784 -0.1249
 2818DOPC   GL133065  26.667   8.370  12.889  0.0170  0.2732 -0.1158
 2818DOPC   GL233066  26.513   8.571  12.906  0.0082  0.0364  0.0069
 2818DOPC   C1A33067  26.988   8.529  13.196  0.0681 -0.0108  0.2950
 2818DOPC   D2A33068  27.420   8.660  13.382  0.1433  0.0837 -0.0862
 2818DOPC   C3A33069  27.457   8.617  13.795  0.0124  0.2703 -0.2899
 2818DOPC   C4A33070  27.502   8.790  14.216 -0.0229 -0.4338 -0.1042
 2818DOPC   C1B33071  26.175   8.495  13.232 -0.2261 -0.0769 -0.0491
 2818DOPC   D2B33072  25.864   8.241  13.363  0.0798 -0.1702  0.0155
 2818DOPC   C3B33073  25.546   8.518  13.596 -0.1036 -0.0871  0.0779
 2818DOPC   C4B33074  25.174   8.698  13.789 -0.0584 -0.1008  0.1561
 2819DOPC   NC333075  32.250   5.821  12.766 -0.0599 -0.2790  0.1573
 2819DOPC   PO433076  31.893   5.710  12.645  0.1723 -0.0378 -0.0135
 2819DOPC   GL133077  32.111   5.369  12.878  0.1758  0.1150  0.1880
 2819DOPC   GL233078  31.874   5.393  13.051 -0.0347  0.2707  0.3587
 2819DOPC   C1A33079  32.178   5.101  13.287  0.2294  0.0652 -0.2961
 2819DOPC   D2A33080  32.181   4.843  13.683  0.1193 -0.1323  0.1443
 2819DOPC   C3A33081  31.814   4.869  13.891  0.3664  0.1694 -0.2911
 2819DOPC   C4A33082  31.414   5.080  14.072  0.0145 -0.0002  0.1262
 2819DOPC   C1B33083  31.737   4.969  13.043  0.2429 -0.2164  0.2746
 2819DOPC   D2B33084  31.844   4.708  13.372  0.1361 -0.2641  0.0825
 2819DOPC   C3B33085  32.220   4.483  13.222 -0.1449  0.2453 -0.1413
 2819DOPC   C4B33086  32.570   4.265  13.007  0.0659 -0.3070 -0.0173
 2820DOPC   NC333087  25.069   0.885  12.724 -0.0311  0.2964 -0.0940
 2820DOPC   PO433088  25.313   0.614  12.856 -0.0936  0.3196  0.0138
 2820DOPC   GL133089  25.342   0.483  13.135  0.4082 -0.2110  0.0325
 2820DOPC   GL233090  25.602   0.623  13.277  0.0878 -0.1293  0.1242
 2820DOPC   C1A33091  25.102   0.595  13.502 -0.1588 -0.0427  0.1192
 2820DOPC   D2A33092  24.781   0.867  13.738  0.2825 -0.0927 -0.1027
 2820DOPC   C3A33093  24.728   1.019  14.190 -0.4204 -0.1534  0.2508
 2820DOPC   C4A33094  24.968   1.395  14.319 -0.2135 -0.3154  0.0772
 2820DOPC   C1B33095  25.647   1.045  13.351 -0.2319 -0.2485 -0.1699
 2820DOPC   D2B33096  25.830   1.505  13.454 -0.1906 -0.1409 -0.1909
 2820DOPC   C3B33097  25.539   1.754  13.686 -0.0743  0.0245  0.2838
 2820DOPC   C4B33098  25.108   1.758  13.958 -0.4376 -0.0309  0.0470
 2821POSM   NC333099  30.846  10.177  12.489 -0.0559  0.2797 -0.0523
 2821POSM   PO433100  30.895  10.326  12.832 -0.0434  0.0183  0.2871
 2821POSM   AM133101  30.936  10.357  13.137 -0.0594 -0.2054 -0.1456
 2821POSM   AM233102  31.055  10.161  13.316  0.0936  0.0302 -0.1443
 2821POSM   T1A33103  31.117  10.618  13.524  0.0060 -0.2653 -0.2499
 2821POSM   C2A33104  31.169  10.936  13.840  0.3081  0.0407 -0.0709
 2821POSM   C3A33105  31.388  10.995  14.218 -0.1628  0.0685 -0.0052
 2821POSM   C1B33106  31.026  10.074  13.656  0.0348  0.0186  0.0547
 2821POSM   D2B33107  30.672  10.000  14.021 -0.3369  0.1505  0.1751
 2821POSM   C3B33108  30.545  10.352  14.376 -0.2712 -0.0363  0.0178
 2821POSM   C4B33109  30.270  10.690  14.236 -0.2056 -0.0762 -0.1178
 2822POSM   NC333110  25.349   3.908  12.292 -0.3945  0.1548  0.1252
 2822POSM   PO433111  25.284   3.519  12.428  0.1929  0.2643 -0.0204
 2822POSM   AM133112  25.458   3.325  12.596 -0.2883  0.1603  0.1920
 2822POSM   AM233113  25.546   3.364  12.878  0.1494 -0.1009  0.1823
 2822POSM   T1A33114  25.717   2.886  12.686 -0.0111 -0.2977  0.3329
 2822POSM   C2A33115  26.075   2.639  12.823  0.3165  0.0239  0.0696
 2822POSM   C3A33116  26.193   2.176  12.694 -0.2504 -0.1040  0.0085
 2822POSM   C1B33117  25.559   3.330  13.212 -0.4186  0.1964 -0.2930
 2822POSM   D2B33118  25.681   3.252  13.628  0.0260 -0.0853  0.0931
 2822POSM   C3B33119  25.539   3.355  14.066  0.1166 -0.2519  0.2171
 2822POSM   C4B33120  25.536   3.455  14.519 -0.0304 -0.2864 -0.1643
 2823DOPE   NH333121  29.102   3.474  12.516 -0.2670  0.1305  0.1582
 2823DOPE   PO433122  29.266   3.525  12.248 -0.1723  0.2350 -0.1727
 2823DOPE   GL133123  29.241   3.991  12.368 -0.3053  0.0973 -0.2150
 2823DOPE   GL233124  28.975   3.980  12.178 -0.1455  0.1319 -0.1183
 2823DOPE   C1A33125  29.455   4.412  12.507  0.2258 -0.0090 -0.0987
 2823DOPE   D2A33126  29.825   4.722  12.569 -0.1131 -0.0163  0.1133
 2823DOPE   C3A33127  30.195   4.694  12.335 -0.0700  0.3933  0.0572
 2823DOPE   C4A33128  30.519   4.380  12.305  0.0189  0.2776 -0.0821
 2823DOPE   C1B33129  28.885   4.329  12.489  0.3296 -0.0017  0.1668
 2823DOPE   D2B33130  28.896   4.603  12.848  0.1165 -0.0462  0.1285
 2823DOPE   C3B33131  28.745   5.092  12.900 -0.2676 -0.0339 -0.1188
 2823DOPE   C4B33132  28.476   5.396  13.153 -0.0614  0.2330 -0.1382
 2824DOPS   CNO33133  34.646   4.670  12.442 -0.1608  0.3498  0.0289
 2824DOPS   PO433134  34.336   4.412  12.473  0.0253 -0.2001  0.4164
 2824DOPS   GL133135  34.394   4.255  12.819 -0.0648  0.0669  0.0176
 2824DOPS   GL233136  34.402   4.024  12.993  0.0152  0.1990 -0.1956
 2824DOPS   C1A33137  34.510   4.595  13.148  0.1595  0.0310  0.2546
 2824DOPS   D2A33138  34.425   5.029  13.047 -0.2702 -0.3830  0.1388
 2824DOPS   C3A33139  34.124   5.335  13.315 -0.1016  0.1627 -0.2641
 2824DOPS   C4A33140  33.792   5.530  13.615 -0.0294 -0.0395 -0.1327
 2824DOPS   C1B33141  34.099   4.296  13.243  0.0068 -0.2455  0.0034
 2824DOPS   D2B33142  33.662   4.404  13.368  0.1312 -0.3811  0.1640
 2824DOPS   C3B33143  33.406   4.760  13.259 -0.0638 -0.0415 -0.0364
 2824DOPS   C4B33144  33.035   5.033  13.109  0.0178 -0.2659  0.0962
 2825DOPE   NH333145  33.979  10.525  12.973 -0.1328 -0.0251  0.3876
 2825DOPE   PO433146  34.230  10.710  13.116 -0.0167 -0.0408 -0.1778
 2825DOPE   GL133147  34.205  10.647  13.488 -0.4220 -0.0598  0.2916
 2825DOPE   GL233148  34.017  10.425  13.489 -0.1109  0.2080  0.0085
 2825DOPE   C1A33149  34.534  10.887  13.751 -0.0179  0.1288 -0.1018
 2825DOPE   D2A33150  34.877  10.941  14.025 -0.0276 -0.2643 -0.0514
 2825DOPE   C3A33151  34.817  11.033  14.449 -0.0018  0.0991 -0.5069
 2825DOPE   C4A33152  34.709  10.795  14.891  0.0046  0.0022  0.3029
 2825DOPE   C1B33153  34.269  10.119  13.778 -0.2472 -0.0026 -0.2955
 2825DOPE   D2B33154  34.413  10.033  14.199  0.0226  0.0266 -0.1378
 2825DOPE   C3B33155  34.857  10.082  14.331 -0.1286 -0.2219  0.1441
 2825DOPE   C4B33156  35.047  10.265  14.751 -0.0334 -0.0735 -0.2735
 2826DOPC   NC333157  24.844   5.323  12.899 -0.1402  0.1099 -0.1884
 2826DOPC   PO433158  24.826   5.168  12.545  0.1843  0.0489  0.0164
 2826DOPC   GL133159  24.465   5.410  12.695  0.0428  0.0394  0.5496
 2826DOPC   GL233160  24.341   5.345  12.975 -0.2400  0.0415 -0.2306
 2826DOPC   C1A33161  24.286   5.861  12.768  0.0823 -0.0449  0.0800
 2826DOPC   D2A33162  24.204   6.290  12.977  0.2216  0.1447  0.0094
 2826DOPC   C3A33163  24.018   6.187  13.393  0.1151 -0.1695 -0.3729
 2826DOPC   C4A33164  24.057   6.264  13.866 -0.1488 -0.2863 -0.0589
 2826DOPC   C1B33165  24.065   5.383  13.338 -0.2978  0.1358  0.3725
 2826DOPC   D2B33166  23.631   5.519  13.484  0.0826 -0.3290 -0.0108
 2826DOPC   C3B33167  23.571   5.167  13.760 -0.2074  0.0665 -0.0880
 2826DOPC   C4B33168  23.464   5.105  14.258  0.1406 -0.0222 -0.0044
 2827DOPC   NC333169  27.613   2.290  12.707  0.0367 -0.3369  0.1962
 2827DOPC   PO433170  27.480   2.607  12.577  0.0626  0.0519  0.2303
 2827DOPC   GL133171  27.447   2.710  13.022  0.0280 -0.0023 -0.3110
 2827DOPC   GL233172  27.252   2.500  13.028 -0.1619 -0.2343 -0.2286
 2827DOPC   C1A33173  27.210   2.885  13.363  0.0049  0.0538  0.2646
 2827DOPC   D2A33174  26.888   2.972  13.670 -0.3487  0.3177  0.0850
 2827DOPC   C3A33175  26.497   3.239  13.615  0.0024  0.0300  0.2347
 2827DOPC   C4A33176  26.177   2.955  13.509 -0.0498  0.0352 -0.1672
 2827DOPC   C1B33177  27.471   2.448  13.419 -0.1440 -0.1370  0.0736
 2827DOPC   D2B33178  27.892   2.383  13.639  0.0762 -0.0709 -0.0395
 2827DOPC   C3B33179  27.970   2.791  13.665  0.3023  0.2519 -0.0962
 2827DOPC   C4B33180  27.934   3.245  13.648  0.0307 -0.0927  0.0567
 2828POSM   NC333181  33.070   5.867  12.284  0.3042 -0.2966  0.4718
 2828POSM   PO433182  33.286   6.012  12.616 -0.1331  0.0452  0.1879
 2828POSM   AM133183  33.465   5.983  12.898 -0.3022  0.2147 -0.3789
 2828POSM   AM233184  33.549   6.143  13.151  0.0273  0.2503 -0.2630
 2828POSM   T1A33185  33.834   5.706  13.129  0.2482 -0.2107  0.2634
 2828POSM   C2A33186  34.153   5.926  13.419  0.1617  0.0448 -0.0603
 2828POSM   C3A33187  34.278   6.267  13.728 -0.0457  0.0156 -0.0006
 2828POSM   C1B33188  33.711   6.196  13.420  0.1319  0.1486 -0.2257
 2828POSM   D2B33189  33.868   6.033  13.871  0.2178 -0.1730  0.0109
 2828POSM   C3B33190  33.822   5.619  14.122 -0.0231  0.2969  0.3465
 2828POSM   C4B33191  33.768   5.189  14.155  0.0141  0.4221  0.0961
 2829POSM   NC333192  23.092   9.703  12.927  0.1770  0.5613 -0.3285
 2829POSM   PO433193  23.128   9.636  12.518 -0.2866  0.1323 -0.2050
 2829POSM   AM133194  23.418   9.468  12.523 -0.1125  0.2473 -0.1786
 2829POSM   AM233195  23.676   9.503  12.611 -0.0789  0.0235 -0.0812
 2829POSM   T1A33196  23.714   9.067  12.391 -0.0702  0.2730  0.0485
 2829POSM   C2A33197  24.086   8.990  12.041  0.1033  0.2715  0.0749
 2829POSM   C3A33198  24.249   8.588  11.797 -0.5803 -0.1137 -0.0182
 2829POSM   C1B33199  23.989   9.609  12.697 -0.0890 -0.0670 -0.0980
 2829POSM   D2B33200  24.387   9.776  12.836 -0.4785  0.2293 -0.1899
 2829POSM   C3B33201  24.555   9.770  13.275 -0.3570 -0.1142  0.0751
 2829POSM   C4B33202  24.806   9.683  13.623  0.0852  0.0019  0.2074
 2830DOPS   CNO33203  31.026   3.128  12.247 -0.1029 -0.0443  0.0362
 2830DOPS   PO433204  30.872   3.223  12.615  0.0795  0.1610  0.0707
 2830DOPS   GL133205  30.967   3.104  13.038  0.2485  0.4398 -0.0578
 2830DOPS   GL233206  30.865   2.817  13.196  0.0891 -0.0740 -0.1258
 2830DOPS   C1A33207  31.142   3.279  13.390  0.1557 -0.2271 -0.0375
 2830DOPS   D2A33208  31.155   3.251  13.826 -0.0112 -0.1867  0.1164
 2830DOPS   C3A33209  31.120   2.940  14.133 -0.1186  0.0406  0.0205
 2830DOPS   C4A33210  31.301   2.880  14.515 -0.2755 -0.1673 -0.0544
 2830DOPS   C1B33211  30.976   2.396  13.267  0.2486  0.1896 -0.0347
 2830DOPS   D2B33212  31.315   2.072  13.274  0.2030 -0.0208  0.2304
 2830DOPS   C3B33213  31.581   1.862  13.551  0.1780 -0.1586 -0.1095
 2830DOPS   C4B33214  31.829   2.000  13.920 -0.1699 -0.1738 -0.4026
 2831POSM   NC333215  25.933   0.149  12.328  0.2956  0.1860  0.0915
 2831POSM   PO433216  25.663   0.323  12.557  0.2425 -0.0552  0.1072
 2831POSM   AM133217  25.652   0.227  12.889  0.1403 -0.1878 -0.0427
 2831POSM   AM233218  25.811   0.234  13.082  0.0174  0.0366 -0.0071
 2831POSM   T1A33219  25.411   0.080  13.325 -0.0807  0.4221  0.1273
 2831POSM   C2A33220  25.331   0.174  13.769  0.0032 -0.0719  0.0798
 2831POSM   C3A33221  25.002   0.495  13.931  0.1711  0.2690  0.1325
 2831POSM   C1B33222  25.898  -0.119  13.189 -0.0794 -0.2497  0.1691
 2831POSM   D2B33223  25.823  -0.562  13.223 -0.1258 -0.4284  0.1250
 2831POSM   C3B33224  25.620  -0.730  13.658  0.0383 -0.1565 -0.0613
 2831POSM   C4B33225  25.404  -0.601  14.100  0.2000 -0.2655  0.1757
 2832DOPE   NH333226  29.797   9.346  12.812 -0.1304  0.0741 -0.3339
 2832DOPE   PO433227  29.683   9.609  12.641  0.1747  0.1923 -0.0423
 2832DOPE   GL133228  29.288   9.520  12.464  0.1287 -0.2665  0.3341
 2832DOPE   GL233229  29.203   9.736  12.625  0.2121  0.0237  0.2651
 2832DOPE   C1A33230  28.874   9.263  12.665  0.1957 -0.0650  0.1508
 2832DOPE   D2A33231  28.747   9.005  13.004 -0.1635 -0.2113  0.1745
 2832DOPE   C3A33232  28.883   9.102  13.399  0.1250 -0.0077  0.1544
 2832DOPE   C4A33233  29.155   8.864  13.705 -0.1483  0.0481  0.3525
 2832DOPE   C1B33234  28.761   9.790  12.532 -0.1298 -0.0086  0.2108
 2832DOPE   D2B33235  28.376   9.645  12.605 -0.2211 -0.3100 -0.0691
 2832DOPE   C3B33236  28.077   9.332  12.811 -0.1747  0.0387  0.2502
 2832DOPE   C4B33237  28.122   8.935  12.983  0.1891 -0.1636  0.2970
 2833DOPE   NH333238  26.545   0.997  12.393  0.2516 -0.0452  0.3047
 2833DOPE   PO433239  26.385   0.973  12.137  0.0705  0.0923 -0.0131
 2833DOPE   GL133240  26.146   1.231  12.390  0.3951  0.1291  0.0304
 2833DOPE   GL233241  25.958   1.263  12.204  0.0756 -0.0839  0.0468
 2833DOPE   C1A33242  26.090   1.704  12.525 -0.1146  0.1363 -0.1895
 2833DOPE   D2A33243  25.768   1.998  12.602 -0.2505 -0.1333  0.1355
 2833DOPE   C3A33244  25.661   2.342  12.857 -0.1019  0.1186 -0.0485
 2833DOPE   C4A33245  25.358   2.508  13.101 -0.1545 -0.0277 -0.3128
 2833DOPE   C1B33246  25.620   1.631  12.221  0.4966  0.2118 -0.2045
 2833DOPE   D2B33247  25.304   1.918  12.118  0.1092  0.2718 -0.5040
 2833DOPE   C3B33248  24.992   1.929  12.496  0.2277 -0.1989 -0.0789
 2833DOPE   C4B33249  24.657   1.884  12.820 -0.1471 -0.1033 -0.2265
 2834DOPE   NH333250  25.789   0.810  12.303 -0.2692 -0.1121  0.0240
 2834DOPE   PO433251  25.482   0.915  12.375  0.1107  0.0813 -0.0276
 2834DOPE   GL133252  25.670   1.231  12.634  0.1662 -0.1773 -0.2858
 2834DOPE   GL233253  25.510   1.178  12.875 -0.1895 -0.2322 -0.1762
 2834DOPE   C1A33254  25.431   1.623  12.669 -0.1058 -0.0444 -0.3315
 2834DOPE   D2A33255  25.131   1.808  12.956 -0.0673  0.1453  0.2288
 2834DOPE   C3A33256  25.223   1.978  13.368  0.0545  0.1244  0.0098
 2834DOPE   C4A33257  25.421   2.294  13.654 -0.4130  0.0813  0.2146
 2834DOPE   C1B33258  25.358   1.446  13.192  0.0543 -0.1624 -0.0199
 2834DOPE   D2B33259  24.938   1.548  13.435  0.0521 -0.2879 -0.2217
 2834DOPE   C3B33260  24.584   1.829  13.349 -0.0502  0.1542 -0.0798
 2834DOPE   C4B33261  24.312   2.123  13.241  0.1634 -0.0115  0.0778
 2835DOPS   CNO33262  27.045   1.124  12.382 -0.0991  0.1131  0.1039
 2835DOPS   PO433263  27.030   0.791  12.598  0.1545 -0.0860  0.0883
 2835DOPS   GL133264  27.043   0.749  12.952 -0.0893  0.2077  0.1901
 2835DOPS   GL233265  27.146   0.499  13.120 -0.1495 -0.0286  0.0859
 2835DOPS   C1A33266  27.289   0.967  13.286  0.2655  0.1624 -0.2213
 2835DOPS   D2A33267  27.262   1.134  13.712  0.0463 -0.1935  0.0389
 2835DOPS   C3A33268  26.849   1.358  13.896 -0.1285 -0.3247  0.0002
 2835DOPS   C4A33269  26.448   1.528  13.744  0.4244 -0.0294 -0.1325
 2835DOPS   C1B33270  27.399   0.484  13.469 -0.0410  0.0029 -0.1776
 2835DOPS   D2B33271  27.654   0.813  13.703 -0.2816  0.0820  0.2730
 2835DOPS   C3B33272  27.503   1.050  14.089  0.0525 -0.0983  0.1688
 2835DOPS   C4B33273  27.360   1.483  14.116  0.1467  0.2813  0.4949
 2836POSM   NC333274  30.326   2.677  12.977  0.0474 -0.1397  0.0155
 2836POSM   PO433275  30.622   2.818  12.777 -0.1522 -0.0951  0.0876
 2836POSM   AM133276  30.532   3.129  12.914 -0.2630  0.1868  0.0253
 2836POSM   AM233277  30.524   3.363  13.023 -0.2464 -0.1097  0.2477
 2836POSM   T1A33278  30.534   3.138  13.449  0.1580 -0.3178  0.0007
 2836POSM   C2A33279  30.589   3.029  13.869  0.0492 -0.0246  0.0364
 2836POSM   C3A33280  30.419   2.711  14.171 -0.2585 -0.0748 -0.1037
 2836POSM   C1B33281  30.304   3.603  13.195 -0.1144  0.3457 -0.2064
 2836POSM   D2B33282  30.020   3.832  13.441 -0.2286 -0.3624  0.2739
 2836POSM   C3B33283  29.707   3.780  13.729  0.1021  0.4814  0.2061
 2836POSM   C4B33284  29.250   3.864  13.812 -0.2360  0.3884 -0.3892
 2837POSM   NC333285  32.584   6.337  12.898  0.1588  0.0701 -0.2706
 2837POSM   PO433286  32.757   6.213  12.565 -0.0218 -0.1450 -0.0355
 2837POSM   AM133287  32.718   5.916  12.657 -0.0632  0.0078  0.0173
 2837POSM   AM233288  32.880   5.705  12.802  0.1317  0.0149  0.3215
 2837POSM   T1A33289  32.551   5.491  12.453  0.0534  0.0023 -0.2059
 2837POSM   C2A33290  32.170   5.248  12.381 -0.1175 -0.1064 -0.0006
 2837POSM   C3A33291  31.895   4.917  12.400 -0.0016 -0.3356  0.0022
 2837POSM   C1B33292  32.767   5.751  13.077 -0.1657 -0.1798 -0.0684
 2837POSM   D2B33293  32.667   5.713  13.517 -0.1514 -0.0343 -0.3779
 2837POSM   C3B33294  32.697   5.395  13.918  0.0320 -0.3701 -0.1599
 2837POSM   C4B33295  32.990   5.244  14.191  0.1601 -0.0335  0.2400
 2838DOPE   NH333296  31.183   3.599  12.392 -0.0438  0.1492  0.0590
 2838DOPE   PO433297  31.342   3.834  12.486 -0.1189 -0.3120 -0.2436
 2838DOPE   GL133298  31.325   3.665  12.859 -0.0849 -0.0098  0.0040
 2838DOPE   GL233299  31.293   3.324  12.875 -0.2881 -0.1842 -0.1667
 2838DOPE   C1A33300  31.614   3.657  13.232  0.0276 -0.3453 -0.3316
 2838DOPE   D2A33301  31.901   3.407  13.531  0.0832  0.2188  0.1875
 2838DOPE   C3A33302  31.841   3.371  13.976 -0.1074 -0.0888 -0.0649
 2838DOPE   C4A33303  32.101   3.545  14.313 -0.0028 -0.1559 -0.0482
 2838DOPE   C1B33304  31.573   3.173  13.155  0.0904 -0.1972 -0.1188
 2838DOPE   D2B33305  31.805   2.873  13.414  0.3595  0.0451  0.0264
 2838DOPE   C3B33306  32.138   2.908  13.722  0.0826 -0.4279  0.1981
 2838DOPE   C4B33307  32.421   3.163  13.949  0.1652 -0.1665 -0.1656
 2839DOPS   CNO33308  25.201  11.295  12.216 -0.2657 -0.1333 -0.1469
 2839DOPS   PO433309  25.086  11.568  12.453 -0.1616  0.1671 -0.0785
 2839DOPS   GL133310  24.900  11.230  12.558 -0.1090  0.0503  0.0339
 2839DOPS   GL233311  24.675  11.251  12.380  0.1775 -0.2318 -0.2749
 2839DOPS   C1A33312  24.838  10.875  12.808  0.3867  0.0029  0.0501
 2839DOPS   D2A33313  24.479  10.722  13.112 -0.2695 -0.3266  0.0569
 2839DOPS   C3A33314  24.499  10.883  13.524 -0.1087 -0.0396 -0.0088
 2839DOPS   C4A33315  24.459  11.149  13.868  0.2304  0.0057  0.4403
 2839DOPS   C1B33316  24.916  10.811  12.332 -0.0473 -0.0751  0.2750
 2839DOPS   D2B33317  25.011  10.429  12.506 -0.1152  0.0792 -0.0550
 2839DOPS   C3B33318  24.790  10.386  12.920  0.2590 -0.3028 -0.0868
 2839DOPS   C4B33319  24.855  10.185  13.335 -0.2417 -0.2467  0.1715
 2840DOPE   NH333320  30.706   7.428  12.843 -0.0291 -0.1103  0.1680
 2840DOPE   PO433321  30.712   7.582  12.593 -0.4745  0.3477  0.0957
 2840DOPE   GL133322  30.461   7.860  12.692  0.0578  0.1905  0.1248
 2840DOPE   GL233323  30.204   7.768  12.689  0.1820 -0.2539  0.1582
 2840DOPE   C1A33324  30.578   8.240  12.844  0.2814 -0.3663 -0.2658
 2840DOPE   D2A33325  30.842   8.587  13.007 -0.0163  0.0574 -0.2064
 2840DOPE   C3A33326  30.669   8.873  13.336  0.0083  0.4651  0.2110
 2840DOPE   C4A33327  30.355   9.051  13.619 -0.0100 -0.0458 -0.0952
 2840DOPE   C1B33328  29.845   7.768  12.981 -0.6113 -0.0206  0.0611
 2840DOPE   D2B33329  29.432   7.578  13.162 -0.0595  0.1230  0.4139
 2840DOPE   C3B33330  29.263   7.848  13.494  0.0185  0.1928  0.2665
 2840DOPE   C4B33331  29.310   7.860  13.995  0.0054 -0.0161  0.4205
 2841POSM   NC333332  22.176   2.519  11.665 -0.4256  0.1850 -0.0434
 2841POSM   PO433333  22.368   2.630  12.004  0.1003 -0.0673  0.0248
 2841POSM   AM133334  22.476   2.388  12.207  0.1252  0.2998  0.2940
 2841POSM   AM233335  22.406   2.220  12.450  0.0617 -0.1206  0.0044
 2841POSM   T1A33336  22.840   2.047  12.253  0.0265 -0.1386  0.5100
 2841POSM   C2A33337  22.941   1.593  12.255  0.2033 -0.0788 -0.3718
 2841POSM   C3A33338  23.040   1.164  12.105 -0.1522 -0.2454  0.1315
 2841POSM   C1B33339  22.254   2.154  12.755  0.1049 -0.0168 -0.0811
 2841POSM   D2B33340  22.023   1.878  12.997  0.0221  0.1590 -0.1430
 2841POSM   C3B33341  21.821   1.924  13.432  0.2254 -0.1711  0.0254
 2841POSM   C4B33342  21.714   2.211  13.782  0.1585  0.0057  0.3279
 2842POSM   NC333343  23.559  10.493  12.608  0.0685 -0.1022  0.0135
 2842POSM   PO433344  23.625  10.607  12.230 -0.1327 -0.0953  0.0399
 2842POSM   AM133345  23.898  10.770  12.355  0.0993  0.1855  0.1093
 2842POSM   AM233346  24.066  10.961  12.278  0.0381 -0.0544  0.3817
 2842POSM   T1A33347  24.361  10.586  12.477  0.2474 -0.1935 -0.2327
 2842POSM   C2A33348  24.530  10.165  12.503  0.0489 -0.0360 -0.6897
 2842POSM   C3A33349  24.731   9.833  12.357 -0.2041  0.0500  0.1109
 2842POSM   C1B33350  24.198  11.031  12.594  0.2185  0.1399  0.0536
 2842POSM   D2B33351  24.382  11.189  12.970 -0.0319  0.2551 -0.0150
 2842POSM   C3B33352  24.077  11.118  13.357  0.0658 -0.0251 -0.4069
 2842POSM   C4B33353  23.960  11.310  13.722  0.1840  0.2720  0.2389
 2843DOPC   NC333354  26.598   7.278  12.731  0.0291 -0.0929 -0.1918
 2843DOPC   PO433355  26.758   7.629  12.749 -0.0803 -0.0908 -0.0782
 2843DOPC   GL133356  26.510   7.887  13.025 -0.1237 -0.3858 -0.1075
 2843DOPC   GL233357  26.728   7.981  13.097  0.0323  0.3993  0.1682
 2843DOPC   C1A33358  26.298   8.087  13.412 -0.1033 -0.0589  0.0281
 2843DOPC   D2A33359  26.391   8.202  13.860 -0.1738  0.2495 -0.3710
 2843DOPC   C3A33360  26.557   8.125  14.295 -0.0213 -0.0406  0.0398
 2843DOPC   C4A33361  26.647   8.553  14.543 -0.1582 -0.0035 -0.0978
 2843DOPC   C1B33362  26.873   8.127  13.492  0.2252  0.0408 -0.1707
 2843DOPC   D2B33363  26.993   8.546  13.659  0.0204  0.1854 -0.1965
 2843DOPC   C3B33364  26.646   8.665  13.890  0.2409  0.0032 -0.0138
 2843DOPC   C4B33365  26.372   8.901  14.229 -0.2887  0.2443  0.0933
 2844POSM   NC333366  23.397   7.249  12.626 -0.0686 -0.1067 -0.0230
 2844POSM   PO433367  23.734   7.098  12.798 -0.3523  0.0498 -0.1676
 2844POSM   AM133368  23.545   7.159  13.053  0.4773 -0.1932 -0.0552
 2844POSM   AM233369  23.304   7.278  13.148 -0.1708 -0.0799 -0.5087
 2844POSM   T1A33370  23.595   7.275  13.548  0.1618 -0.3217  0.0182
 2844POSM   C2A33371  23.585   7.113  14.039  0.1232 -0.0735  0.2218
 2844POSM   C3A33372  23.305   6.894  14.352 -0.0142 -0.0777  0.3584
 2844POSM   C1B33373  23.180   7.594  13.120  0.3225 -0.0125 -0.2271
 2844POSM   D2B33374  23.090   8.008  13.222 -0.1297  0.1198 -0.0426
 2844POSM   C3B33375  22.781   7.898  13.504 -0.1289 -0.0771 -0.1519
 2844POSM   C4B33376  22.664   7.636  13.848  0.0207 -0.3459 -0.1403
 2845DOPE   NH333377  27.999   2.811  12.651 -0.1243 -0.1433  0.1382
 2845DOPE   PO433378  27.917   2.680  12.909  0.0912  0.3046  0.1699
 2845DOPE   GL133379  27.832   2.301  13.104 -0.2744 -0.0163  0.2228
 2845DOPE   GL233380  28.061   2.199  13.177 -0.1011 -0.1966 -0.4319
 2845DOPE   C1A33381  27.636   1.999  13.454 -0.1779 -0.0973  0.2343
 2845DOPE   D2A33382  27.575   1.877  13.873  0.2304  0.0381 -0.1875
 2845DOPE   C3A33383  27.765   2.212  14.097  0.1398 -0.0169  0.0228
 2845DOPE   C4A33384  27.889   2.621  14.345  0.1723  0.2766  0.0816
 2845DOPE   C1B33385  28.376   2.231  13.521  0.0144 -0.2351 -0.0055
 2845DOPE   D2B33386  28.513   2.243  13.939  0.0371 -0.3269 -0.0629
 2845DOPE   C3B33387  28.970   2.330  14.064 -0.0416 -0.3214  0.1902
 2845DOPE   C4B33388  29.108   2.216  14.458 -0.1227 -0.1002  0.0030
 2846DOPS   CNO33389  26.278   5.498  12.918  0.3821  0.0122  0.1129
 2846DOPS   PO433390  26.551   5.189  13.010 -0.0964  0.3375  0.0424
 2846DOPS   GL133391  26.521   5.003  13.312  0.0714 -0.0928  0.0686
 2846DOPS   GL233392  26.511   5.150  13.609 -0.0451 -0.0634 -0.3331
 2846DOPS   C1A33393  26.290   4.734  13.614 -0.0395 -0.0755  0.0901
 2846DOPS   D2A33394  26.160   4.324  13.799 -0.1869 -0.0777 -0.0582
 2846DOPS   C3A33395  25.987   4.338  14.235 -0.1737 -0.0111  0.0353
 2846DOPS   C4A33396  25.689   4.333  14.572 -0.1392  0.1427 -0.0698
 2846DOPS   C1B33397  26.104   5.227  13.862  0.3352  0.2513  0.1527
 2846DOPS   D2B33398  25.936   5.316  14.240 -0.1906  0.2837  0.1142
 2846DOPS   C3B33399  26.155   5.537  14.582 -0.5374 -0.4466 -0.0277
 2846DOPS   C4B33400  26.531   5.787  14.721  0.2642 -0.1137 -0.2051
 2847DOPC   NC333401  25.679   6.242  13.344 -0.0470 -0.0328 -0.2656
 2847DOPC   PO433402  25.695   6.416  12.974 -0.0390  0.0138  0.0010
 2847DOPC   GL133403  25.737   6.833  13.009  0.2432 -0.3085 -0.1913
 2847DOPC   GL233404  25.717   6.747  13.368  0.0653 -0.0640 -0.1301
 2847DOPC   C1A33405  25.943   7.200  13.250  0.0383 -0.1798  0.0013
 2847DOPC   D2A33406  26.177   7.303  13.639 -0.0431 -0.0486  0.1269
 2847DOPC   C3A33407  26.184   7.040  14.080 -0.5139  0.2620 -0.1260
 2847DOPC   C4A33408  26.029   7.197  14.467 -0.0669 -0.2305 -0.3378
 2847DOPC   C1B33409  25.691   6.711  13.809 -0.3745  0.0509 -0.0911
 2847DOPC   D2B33410  25.684   6.858  14.247  0.0276 -0.0205  0.3490
 2847DOPC   C3B33411  25.517   7.266  14.422  0.1310  0.1515  0.0906
 2847DOPC   C4B33412  25.328   7.282  14.852 -0.0827  0.1271 -0.1544
 2848DOPC   NC333413  31.862  10.882  13.172  0.0203 -0.0707 -0.1291
 2848DOPC   PO433414  31.633  10.656  12.907 -0.2830 -0.4192 -0.1276
 2848DOPC   GL133415  31.400  10.370  12.952  0.2834 -0.1986  0.0310
 2848DOPC   GL233416  31.351  10.367  12.640 -0.0305  0.0071 -0.0574
 2848DOPC   C1A33417  31.484  10.029  13.261  0.0129 -0.3173 -0.0140
 2848DOPC   D2A33418  31.840   9.917  13.537 -0.2739 -0.0262 -0.0254
 2848DOPC   C3A33419  31.931   9.463  13.616 -0.0957  0.0523 -0.2477
 2848DOPC   C4A33420  31.849   9.201  13.959  0.0992 -0.3424  0.1007
 2848DOPC   C1B33421  31.525   9.939  12.709  0.3656  0.1227  0.1851
 2848DOPC   D2B33422  31.579   9.514  12.472 -0.3717  0.0229 -0.1136
 2848DOPC   C3B33423  31.920   9.210  12.502  0.1780  0.0414  0.2397
 2848DOPC   C4B33424  32.168   8.851  12.269 -0.0355 -0.1314  0.1721
 2849DOPC   NC333425  25.021   4.867  12.866 -0.0466  0.1118 -0.0672
 2849DOPC   PO433426  25.268   5.121  12.774 -0.1589 -0.0055  0.0785
 2849DOPC   GL133427  25.400   5.017  13.178  0.2460 -0.0167 -0.6136
 2849DOPC   GL233428  25.411   4.748  13.149 -0.1885  0.0754  0.2577
 2849DOPC   C1A33429  25.426   5.108  13.563  0.5844  0.1973 -0.0237
 2849DOPC   D2A33430  25.538   4.845  13.888 -0.1989 -0.2049  0.0220
 2849DOPC   C3A33431  25.871   4.844  14.087  0.0910 -0.0654 -0.2694
 2849DOPC   C4A33432  26.299   4.782  14.146  0.0020 -0.0426  0.0303
 2849DOPC   C1B33433  25.176   4.663  13.534  0.0396 -0.3822  0.1154
 2849DOPC   D2B33434  25.041   4.659  13.999  0.4088 -0.4559  0.0320
 2849DOPC   C3B33435  24.998   5.034  14.224  0.1384 -0.3087 -0.1495
 2849DOPC   C4B33436  24.941   5.495  14.191 -0.1722 -0.1013 -0.1773
 2850DOPS   CNO33437  29.213   9.019  12.256  0.2670  0.4349 -0.3278
 2850DOPS   PO433438  29.472   8.960  12.522  0.1843 -0.1373 -0.1817
 2850DOPS   GL133439  29.276   9.071  12.859 -0.2378  0.1391 -0.0920
 2850DOPS   GL233440  29.261   9.303  12.975 -0.2393 -0.0808  0.0547
 2850DOPS   C1A33441  29.192   8.761  13.163 -0.1477 -0.0166 -0.1055
 2850DOPS   D2A33442  29.150   8.364  13.437  0.0598  0.0765 -0.1748
 2850DOPS   C3A33443  29.338   8.371  13.858 -0.0333 -0.0470  0.0477
 2850DOPS   C4A33444  29.331   8.721  14.181 -0.5575 -0.1682 -0.2121
 2850DOPS   C1B33445  29.401   9.236  13.442  0.0939  0.1414 -0.0195
 2850DOPS   D2B33446  29.493   9.407  13.874  0.0622  0.2492  0.3122
 2850DOPS   C3B33447  29.344   9.531  14.262  0.1670 -0.2104  0.1501
 2850DOPS   C4B33448  29.269   9.611  14.732 -0.1648 -0.0592  0.0451
 2851POSM   NC333449  25.182   0.125  12.743 -0.0803 -0.2607  0.1300
 2851POSM   PO433450  24.911   0.395  12.631 -0.1004 -0.1075 -0.4896
 2851POSM   AM133451  24.806   0.453  12.957 -0.1355  0.0206  0.3804
 2851POSM   AM233452  24.756   0.648  13.156  0.0435 -0.2999 -0.1533
 2851POSM   T1A33453  24.893   0.209  13.351 -0.3105  0.1140 -0.0782
 2851POSM   C2A33454  25.012  -0.141  13.607  0.3147  0.0259  0.2190
 2851POSM   C3A33455  25.075  -0.619  13.673  0.1336  0.0637  0.3377
 2851POSM   C1B33456  24.470   0.576  13.385  0.0624 -0.2022 -0.1154
 2851POSM   D2B33457  24.139   0.623  13.741  0.3015  0.1435  0.2268
 2851POSM   C3B33458  23.733   0.771  13.696 -0.1562  0.2348 -0.0347
 2851POSM   C4B33459  23.297   0.948  13.777 -0.0121  0.1206 -0.0080
 2852POSM   NC333460  28.984  11.083  13.248  0.1496  0.2634  0.1055
 2852POSM   PO433461  29.033  10.900  12.928  0.0262  0.0586 -0.3563
 2852POSM   AM133462  29.046  10.618  13.124  0.0348  0.0086  0.0850
 2852POSM   AM233463  29.230  10.536  13.277  0.1124 -0.1667  0.1613
 2852POSM   T1A33464  28.916  10.332  13.518  0.0690 -0.1051  0.1004
 2852POSM   C2A33465  29.162  10.203  13.895  0.0017  0.3407 -0.1228
 2852POSM   C3A33466  29.534  10.406  14.121 -0.1330 -0.1455  0.1964
 2852POSM   C1B33467  29.360  10.561  13.615 -0.3865 -0.1620 -0.1862
 2852POSM   D2B33468  29.393  10.876  14.081  0.0413 -0.1491  0.0153
 2852POSM   C3B33469  29.161  11.345  14.122  0.0280 -0.2553 -0.2930
 2852POSM   C4B33470  29.010  11.729  14.126 -0.1460 -0.2335  0.1947
 2853DOPE   NH333471  23.439   6.375  13.009  0.1142  0.1854  0.1929
 2853DOPE   PO433472  23.127   6.371  13.066  0.1271  0.1651  0.0902
 2853DOPE   GL133473  23.177   6.089  13.334 -0.0565  0.3283 -0.0506
 2853DOPE   GL233474  23.430   6.032  13.492  0.2281  0.2043  0.4184
 2853DOPE   C1A33475  23.135   5.619  13.351 -0.2468 -0.1793  0.2925
 2853DOPE   D2A33476  22.683   5.389  13.508 -0.1629  0.1645 -0.4563
 2853DOPE   C3A33477  22.833   5.291  13.947  0.2076 -0.2164  0.0196
 2853DOPE   C4A33478  23.051   5.413  14.311 -0.1001  0.0842 -0.0887
 2853DOPE   C1B33479  23.405   6.168  13.948 -0.1511  0.0778 -0.3831
 2853DOPE   D2B33480  23.154   6.417  14.220 -0.3000  0.2653  0.3890
 2853DOPE   C3B33481  22.898   6.769  14.123 -0.0921 -0.1035  0.2679
 2853DOPE   C4B33482  22.724   7.122  13.884  0.1778 -0.2078  0.0577
 2854DOPC   NC333483  28.012  34.363  13.040  0.2068  0.0089  0.1447
 2854DOPC   PO433484  28.047  34.033  12.846 -0.0402  0.0434  0.0720
 2854DOPC   GL133485  28.179  33.988  13.163  0.1741 -0.1148  0.2811
 2854DOPC   GL233486  28.286  33.694  13.177 -0.0785 -0.1952  0.0022
 2854DOPC   C1A33487  28.028  34.144  13.563 -0.0658  0.0199  0.0136
 2854DOPC   D2A33488  27.978  34.397  14.003 -0.0623  0.2279  0.1090
 2854DOPC   C3A33489  27.724  34.223  14.312 -0.2746 -0.0488 -0.0558
 2854DOPC   C4A33490  27.416  33.876  14.455  0.0686  0.0196  0.2622
 2854DOPC   C1B33491  27.935  33.634  13.504 -0.0091 -0.1741 -0.0081
 2854DOPC   D2B33492  27.471  33.659  13.592  0.1139 -0.3581  0.1851
 2854DOPC   C3B33493  27.097  33.549  13.763  0.2690  0.2802  0.3295
 2854DOPC   C4B33494  26.836  33.375  14.093 -0.0305  0.0208 -0.0717
 2855POSM   NC333495   0.078   3.234  12.192  0.0018 -0.3602  0.3055
 2855POSM   PO433496  -0.279   3.186  12.309  0.0443 -0.2005 -0.0763
 2855POSM   AM133497  -0.508   3.233  12.524  0.3752 -0.0740 -0.3630
 2855POSM   AM233498  -0.665   3.433  12.581  0.1487  0.4525  0.2000
 2855POSM   T1A33499  -0.949   3.148  12.806  0.0187  0.0680  0.0978
 2855POSM   C2A33500  -1.399   3.097  12.903 -0.2332 -0.2304  0.1813
 2855POSM   C3A33501  -1.835   3.023  12.990 -0.0541 -0.1039 -0.4624
 2855POSM   C1B33502  -0.573   3.505  12.934  0.0023 -0.1900  0.2663
 2855POSM   D2B33503  -0.593   3.659  13.359 -0.2217 -0.1763 -0.3701
 2855POSM   C3B33504  -0.239   3.308  13.471  0.0174  0.0456 -0.2263
 2855POSM   C4B33505  -0.069   2.895  13.450 -0.1345 -0.2337 -0.0543
 2856POSM   NC333506  28.090   7.691  12.521 -0.0278  0.1235  0.1125
 2856POSM   PO433507  27.919   7.338  12.414 -0.1723 -0.5233  0.2515
 2856POSM   AM133508  27.993   7.279  12.764 -0.0361 -0.0111 -0.0645
 2856POSM   AM233509  27.894   7.405  12.985  0.1839 -0.0013  0.0584
 2856POSM   T1A33510  28.333   7.115  13.137  0.0282 -0.0394  0.0530
 2856POSM   C2A33511  28.703   7.131  13.435 -0.3740  0.0249  0.0620
 2856POSM   C3A33512  29.010   7.263  13.754 -0.0804 -0.1433 -0.1128
 2856POSM   C1B33513  28.185   7.597  13.042 -0.1205 -0.0056  0.0726
 2856POSM   D2B33514  28.359   7.794  13.462  0.0497  0.0365  0.4021
 2856POSM   C3B33515  28.764   7.810  13.757 -0.3379  0.3052  0.1327
 2856POSM   C4B33516  28.875   7.664  14.242  0.0159  0.0414 -0.0651
 2857DOPC   NC333517  25.479  20.378  15.263 -0.0498  0.1938 -0.1269
 2857DOPC   PO433518  25.514  20.726  15.455  0.2577  0.1128  0.0308
 2857DOPC   GL133519  25.678  20.766  15.078  0.2104 -0.4302 -0.0355
 2857DOPC   GL233520  25.910  20.656  15.069 -0.1201 -0.1136 -0.0078
 2857DOPC   C1A33521  25.635  21.090  14.778  0.0528  0.0873 -0.0817
 2857DOPC   D2A33522  25.714  21.048  14.284  0.0150  0.2604  0.2624
 2857DOPC   C3A33523  25.766  20.877  13.878 -0.0002  0.2116 -0.0201
 2857DOPC   C4A33524  25.781  20.931  13.421 -0.2208 -0.0993  0.0261
 2857DOPC   C1B33525  25.768  20.573  14.612 -0.1822 -0.0782 -0.1837
 2857DOPC   D2B33526  25.624  20.447  14.220 -0.0089  0.1787 -0.0312
 2857DOPC   C3B33527  25.856  20.252  13.883  0.1927 -0.1346  0.1614
 2857DOPC   C4B33528  25.671  20.289  13.431 -0.2279 -0.2812  0.0506
 2858DOPC   NC333529  32.683  14.891  16.807  0.1317 -0.0220  0.2456
 2858DOPC   PO433530  32.514  15.236  16.779 -0.0370  0.2214 -0.0305
 2858DOPC   GL133531  32.591  15.379  16.429  0.2113  0.3251 -0.0534
 2858DOPC   GL233532  32.429  15.144  16.296 -0.1461 -0.1032  0.2327
 2858DOPC   C1A33533  32.515  15.533  15.978 -0.2110  0.1109  0.0817
 2858DOPC   D2A33534  32.213  15.323  15.615 -0.3236  0.1416 -0.1819
 2858DOPC   C3A33535  32.347  14.868  15.611  0.0442 -0.3339 -0.3692
 2858DOPC   C4A33536  32.230  14.510  15.366 -0.0077  0.1504  0.1942
 2858DOPC   C1B33537  32.670  15.020  15.912  0.0609  0.1408  0.3634
 2858DOPC   D2B33538  32.901  15.064  15.533  0.0293  0.3772 -0.2607
 2858DOPC   C3B33539  32.603  15.075  15.228 -0.3543  0.2392 -0.0848
 2858DOPC   C4B33540  32.190  14.899  15.093 -0.3969 -0.0884  0.1268
 2859DOPE   NH333541  32.188  20.951  16.037 -0.2874  0.0924  0.5040
 2859DOPE   PO433542  32.064  20.737  15.841  0.0679 -0.1445  0.0545
 2859DOPE   GL133543  32.324  20.644  15.515 -0.1029 -0.2072 -0.1813
 2859DOPE   GL233544  32.171  20.859  15.379  0.2692  0.2262  0.1918
 2859DOPE   C1A33545  32.668  20.885  15.349  0.1244 -0.1077  0.0055
 2859DOPE   D2A33546  32.926  20.861  14.939  0.0856 -0.1105 -0.1026
 2859DOPE   C3A33547  33.227  21.039  14.555  0.2035  0.1467 -0.1318
 2859DOPE   C4A33548  33.228  21.230  14.119  0.1880  0.1914  0.6065
 2859DOPE   C1B33549  32.056  20.860  14.967 -0.2443  0.3731  0.0343
 2859DOPE   D2B33550  32.226  20.889  14.514 -0.0372  0.2387  0.1023
 2859DOPE   C3B33551  32.431  21.001  14.069 -0.2401  0.0375  0.1492
 2859DOPE   C4B33552  32.798  20.956  13.693  0.1189 -0.0444  0.0835
 2860DOPE   NH333553  24.323  19.693  15.263 -0.0289  0.2904 -0.2912
 2860DOPE   PO433554  24.192  19.944  15.410  0.2814  0.0237  0.0705
 2860DOPE   GL133555  24.310  20.183  15.086  0.1713 -0.2683 -0.0302
 2860DOPE   GL233556  24.107  20.059  14.899 -0.0826 -0.1673 -0.0490
 2860DOPE   C1A33557  24.635  20.445  15.030 -0.1956 -0.4937 -0.0347
 2860DOPE   D2A33558  25.025  20.521  15.182  0.3944  0.0303  0.0689
 2860DOPE   C3A33559  25.141  20.875  14.923 -0.0885  0.3637 -0.1384
 2860DOPE   C4A33560  25.250  21.373  14.807  0.2212 -0.1199 -0.4224
 2860DOPE   C1B33561  24.387  20.322  14.662  0.1040  0.0661 -0.1923
 2860DOPE   D2B33562  24.455  20.620  14.323 -0.0801 -0.0721 -0.0816
 2860DOPE   C3B33563  24.601  20.444  13.964 -0.2267  0.0251  0.3342
 2860DOPE   C4B33564  24.833  20.357  13.531 -0.1128 -0.0577 -0.1009
 2861DOPC   NC333565  31.992  22.943  16.125 -0.0246 -0.1203  0.1013
 2861DOPC   PO433566  32.158  23.176  15.844 -0.0010 -0.2598 -0.1705
 2861DOPC   GL133567  32.165  22.893  15.572  0.5232  0.1215 -0.1742
 2861DOPC   GL233568  32.082  23.091  15.350  0.2294  0.0247 -0.0004
 2861DOPC   C1A33569  32.147  22.625  15.218 -0.2595 -0.1501 -0.0495
 2861DOPC   D2A33570  32.466  22.785  14.925 -0.0171  0.0651 -0.1565
 2861DOPC   C3A33571  32.501  22.664  14.515 -0.3895 -0.1068 -0.1273
 2861DOPC   C4A33572  32.670  22.550  14.090  0.0061 -0.1960 -0.0316
 2861DOPC   C1B33573  32.038  22.937  14.881  0.1915 -0.1887 -0.1299
 2861DOPC   D2B33574  31.709  22.932  14.505 -0.2821 -0.2192 -0.0327
 2861DOPC   C3B33575  31.686  23.252  14.307 -0.5237 -0.0673 -0.3167
 2861DOPC   C4B33576  31.903  23.636  14.209  0.2642 -0.2790  0.2233
 2862DOPC   NC333577  33.583  21.034  16.295 -0.0475  0.0086 -0.0925
 2862DOPC   PO433578  33.449  21.350  16.324  0.1059 -0.1626 -0.0119
 2862DOPC   GL133579  33.510  21.367  16.010  0.1607  0.3842  0.2019
 2862DOPC   GL233580  33.778  21.483  15.955  0.1584  0.1344  0.1227
 2862DOPC   C1A33581  33.590  21.194  15.597 -0.2211 -0.3240 -0.0869
 2862DOPC   D2A33582  33.968  21.134  15.275 -0.0313  0.0818 -0.0186
 2862DOPC   C3A33583  34.292  21.425  15.134  0.1492 -0.1554 -0.2569
 2862DOPC   C4A33584  34.378  21.878  15.192  0.1097  0.1040  0.6029
 2862DOPC   C1B33585  34.010  21.547  15.522 -0.0288 -0.2250 -0.2649
 2862DOPC   D2B33586  33.883  21.716  15.107  0.1168  0.0150  0.1448
 2862DOPC   C3B33587  33.860  21.824  14.626  0.0060 -0.0644 -0.2161
 2862DOPC   C4B33588  33.670  21.855  14.214  0.3738  0.0121  0.1369
 2863POSM   NC333589  26.605  14.565  15.816  0.0594 -0.3075 -0.3682
 2863POSM   PO433590  26.457  14.899  15.953  0.1797 -0.0400  0.0289
 2863POSM   AM133591  26.564  14.992  15.676 -0.0704 -0.2343 -0.0912
 2863POSM   AM233592  26.814  14.920  15.555  0.2440  0.1992  0.0470
 2863POSM   T1A33593  26.493  15.175  15.202  0.0013 -0.0514  0.3481
 2863POSM   C2A33594  26.236  15.444  14.932 -0.1272 -0.1074 -0.0838
 2863POSM   C3A33595  25.868  15.669  14.988  0.1399  0.1533  0.1713
 2863POSM   C1B33596  26.784  14.735  15.263 -0.0836 -0.3309 -0.1736
 2863POSM   D2B33597  26.919  14.667  14.851 -0.0797 -0.0291 -0.0332
 2863POSM   C3B33598  27.276  14.374  14.745  0.0026 -0.1859 -0.1502
 2863POSM   C4B33599  27.705  14.371  14.565  0.1730  0.1698 -0.0903
 2864DOPS   CNO33600  31.616  21.285  16.119  0.1423 -0.0284  0.0482
 2864DOPS   PO433601  31.416  21.228  15.845  0.2410 -0.3942 -0.0397
 2864DOPS   GL133602  31.399  21.190  15.462  0.3625 -0.1137 -0.0155
 2864DOPS   GL233603  31.533  21.033  15.387 -0.2566  0.0860  0.1780
 2864DOPS   C1A33604  31.497  21.475  15.112 -0.0486  0.0478 -0.0876
 2864DOPS   D2A33605  31.485  21.722  14.720  0.0533 -0.1500 -0.0919
 2864DOPS   C3A33606  31.545  22.143  14.514 -0.0769 -0.0024 -0.1940
 2864DOPS   C4A33607  31.727  22.528  14.268 -0.1515  0.0391 -0.0259
 2864DOPS   C1B33608  31.132  21.187  15.095  0.0453  0.0689 -0.2143
 2864DOPS   D2B33609  30.805  21.174  14.764 -0.1503 -0.1640  0.1649
 2864DOPS   C3B33610  30.749  20.749  14.614  0.1014 -0.1670 -0.0120
 2864DOPS   C4B33611  30.881  20.319  14.635  0.2526  0.0755 -0.0858
 2865DOPC   NC333612  29.239  13.822  16.850 -0.4040 -0.1562  0.0469
 2865DOPC   PO433613  28.995  14.068  16.577 -0.1753  0.1008 -0.3457
 2865DOPC   GL133614  28.986  14.068  16.186 -0.4769  0.0238 -0.2666
 2865DOPC   GL233615  28.681  14.022  16.184  0.0098  0.1539  0.0565
 2865DOPC   C1A33616  28.870  14.170  15.751 -0.1200  0.0973  0.2944
 2865DOPC   D2A33617  28.983  13.922  15.361  0.1741  0.2280 -0.1022
 2865DOPC   C3A33618  28.869  13.704  14.946 -0.1602 -0.1809  0.0425
 2865DOPC   C4A33619  28.775  13.478  14.556  0.1253 -0.4802 -0.0023
 2865DOPC   C1B33620  28.244  13.810  15.995 -0.4991  0.1970  0.2282
 2865DOPC   D2B33621  27.807  13.849  15.896 -0.0954  0.0455  0.0184
 2865DOPC   C3B33622  27.872  14.007  15.479  0.2493 -0.4586 -0.1360
 2865DOPC   C4B33623  27.708  14.283  15.053 -0.1389 -0.1159 -0.1915
 2866DOPE   NH333624  25.742  16.665  15.719  0.0778  0.0552 -0.3157
 2866DOPE   PO433625  25.582  16.896  15.518  0.1853  0.1833  0.0912
 2866DOPE   GL133626  25.751  16.780  15.182  0.2183 -0.1480  0.0618
 2866DOPE   GL233627  26.001  16.787  15.205  0.0471 -0.0895  0.2673
 2866DOPE   C1A33628  25.801  16.985  14.732 -0.1425  0.1865  0.0324
 2866DOPE   D2A33629  25.743  17.010  14.276  0.3836 -0.0782 -0.1289
 2866DOPE   C3A33630  25.357  16.856  14.006 -0.1048 -0.0198  0.3109
 2866DOPE   C4A33631  25.323  16.988  13.531  0.3185  0.1505  0.0831
 2866DOPE   C1B33632  26.303  16.895  14.896  0.1513  0.2206 -0.1422
 2866DOPE   D2B33633  26.513  17.265  14.590 -0.2167 -0.1342 -0.2696
 2866DOPE   C3B33634  26.416  17.372  14.178 -0.2759 -0.3210  0.2133
 2866DOPE   C4B33635  26.570  17.289  13.761 -0.1491 -0.2205 -0.3039
 2867POSM   NC333636  31.507  20.781  15.779 -0.1104  0.1639  0.1572
 2867POSM   PO433637  31.633  20.452  15.966  0.5237 -0.1401  0.0234
 2867POSM   AM133638  31.735  20.364  15.666 -0.2430 -0.1656 -0.5258
 2867POSM   AM233639  31.758  20.512  15.437 -0.1743 -0.0597 -0.2746
 2867POSM   T1A33640  31.712  20.095  15.208  0.0419  0.1949  0.2562
 2867POSM   C2A33641  31.751  19.665  14.969 -0.0968 -0.1805 -0.0152
 2867POSM   C3A33642  31.993  19.275  15.091  0.1365 -0.0224 -0.1017
 2867POSM   C1B33643  31.625  20.595  15.154 -0.2468  0.3600  0.0895
 2867POSM   D2B33644  31.504  20.899  14.863  0.1957  0.0806 -0.4171
 2867POSM   C3B33645  31.723  20.814  14.436 -0.0421  0.0298 -0.1583
 2867POSM   C4B33646  31.754  20.733  13.979 -0.1182  0.0161 -0.0511
 2868DOPS   CNO33647  28.952  22.931  16.778 -0.2308 -0.1457  0.4780
 2868DOPS   PO433648  28.648  22.896  16.568  0.1820  0.0173 -0.2434
 2868DOPS   GL133649  28.732  23.009  16.262 -0.2732 -0.2500  0.2242
 2868DOPS   GL233650  28.757  22.755  16.066  0.1110  0.0375 -0.0696
 2868DOPS   C1A33651  29.021  23.288  15.995 -0.1880 -0.0677 -0.0094
 2868DOPS   D2A33652  29.290  23.365  15.673  0.1780 -0.1482 -0.0911
 2868DOPS   C3A33653  29.335  23.566  15.248 -0.2057 -0.1160  0.1218
 2868DOPS   C4A33654  29.355  23.653  14.774 -0.2022 -0.2995 -0.3448
 2868DOPS   C1B33655  28.764  22.942  15.642 -0.0569  0.1420 -0.1812
 2868DOPS   D2B33656  29.144  23.039  15.363 -0.3823 -0.1254  0.3864
 2868DOPS   C3B33657  29.023  23.064  14.944 -0.3308 -0.1019 -0.0842
 2868DOPS   C4B33658  28.668  23.167  14.669  0.2335 -0.1721  0.1817
 2869DOPC   NC333659  33.557  14.439  16.246 -0.0123  0.5903  0.5603
 2869DOPC   PO433660  33.302  14.150  16.349  0.2749  0.2074 -0.0438
 2869DOPC   GL133661  33.288  14.017  15.979  0.1551  0.0718 -0.0972
 2869DOPC   GL233662  33.319  14.258  15.832  0.0998  0.0884 -0.0664
 2869DOPC   C1A33663  33.535  13.825  15.640  0.1004  0.2397 -0.0958
 2869DOPC   D2A33664  33.470  13.415  15.419 -0.1655  0.1959  0.1566
 2869DOPC   C3A33665  33.140  13.386  15.107  0.2147 -0.0349 -0.1826
 2869DOPC   C4A33666  32.920  13.459  14.726 -0.4291  0.0938  0.0024
 2869DOPC   C1B33667  32.931  14.202  15.653 -0.0950 -0.1314  0.2041
 2869DOPC   D2B33668  32.534  14.118  15.435  0.1249  0.1436 -0.3991
 2869DOPC   C3B33669  32.442  13.705  15.326 -0.1370 -0.0790  0.0135
 2869DOPC   C4B33670  32.253  13.285  15.491 -0.2922  0.5412 -0.2297
 2870DOPE   NH333671  29.186  16.157  16.407 -0.1381 -0.3516 -0.1914
 2870DOPE   PO433672  29.250  15.856  16.537 -0.1716 -0.0204  0.0110
 2870DOPE   GL133673  29.239  15.707  16.136 -0.0682  0.1217 -0.4077
 2870DOPE   GL233674  28.971  15.736  16.112 -0.4750 -0.2450 -0.0477
 2870DOPE   C1A33675  29.372  15.767  15.698  0.0040 -0.0373  0.2050
 2870DOPE   D2A33676  29.625  15.821  15.310 -0.2448 -0.1082  0.1082
 2870DOPE   C3A33677  29.504  15.403  15.066  0.1013 -0.0788 -0.2834
 2870DOPE   C4A33678  29.255  15.429  14.683  0.1097 -0.2779 -0.0270
 2870DOPE   C1B33679  28.976  16.078  15.850  0.0949  0.0935 -0.2136
 2870DOPE   D2B33680  29.021  16.479  15.613  0.0033  0.1395  0.0950
 2870DOPE   C3B33681  28.773  16.761  15.260 -0.0380  0.1111 -0.2779
 2870DOPE   C4B33682  28.858  16.983  14.878 -0.0820 -0.1264 -0.1434
 2871DOPE   NH333683  28.243  16.433  15.939  0.1371  0.3682  0.0294
 2871DOPE   PO433684  28.281  16.769  15.957 -0.2380  0.0652 -0.3171
 2871DOPE   GL133685  28.419  16.780  15.624  0.0226  0.2491 -0.0272
 2871DOPE   GL233686  28.690  16.953  15.709  0.0622  0.1347  0.0985
 2871DOPE   C1A33687  28.402  16.434  15.316 -0.2060 -0.1227 -0.0101
 2871DOPE   D2A33688  28.269  16.143  14.965  0.2607 -0.0374  0.2750
 2871DOPE   C3A33689  28.129  16.316  14.572 -0.1878 -0.2097 -0.0117
 2871DOPE   C4A33690  27.739  16.400  14.272 -0.0683 -0.0094  0.1238
 2871DOPE   C1B33691  28.487  17.203  15.413  0.1678 -0.1295  0.1710
 2871DOPE   D2B33692  28.409  17.161  14.934 -0.2578  0.2151  0.1168
 2871DOPE   C3B33693  28.049  17.389  14.902  0.0418 -0.1642  0.0987
 2871DOPE   C4B33694  27.742  17.697  14.747 -0.0615  0.0069 -0.0541
 2872DOPC   NC333695  31.797  21.648  16.474  0.4660 -0.0383  0.0857
 2872DOPC   PO433696  31.776  21.982  16.253 -0.0775 -0.2742 -0.0205
 2872DOPC   GL133697  31.446  22.129  15.991  0.1258  0.3962 -0.1842
 2872DOPC   GL233698  31.562  22.191  15.687 -0.0369  0.1701  0.0879
 2872DOPC   C1A33699  31.011  22.226  16.097 -0.4750 -0.3026 -0.2069
 2872DOPC   D2A33700  30.647  22.404  16.293  0.0182 -0.0717 -0.1483
 2872DOPC   C3A33701  30.323  22.257  16.061  0.1617 -0.0807 -0.1089
 2872DOPC   C4A33702  29.866  22.153  15.993  0.0735  0.0783  0.1196
 2872DOPC   C1B33703  31.770  22.513  15.468  0.0010 -0.1358  0.3397
 2872DOPC   D2B33704  31.608  22.916  15.244 -0.0255 -0.0545  0.2554
 2872DOPC   C3B33705  31.613  23.327  15.396  0.0618  0.1665 -0.0541
 2872DOPC   C4B33706  31.903  23.634  15.269 -0.0191 -0.2834  0.0689
 2873POSM   NC333707  33.191  19.097  16.351  0.1542 -0.3397 -0.0998
 2873POSM   PO433708  32.786  19.195  16.500 -0.2038  0.0581 -0.5234
 2873POSM   AM133709  32.681  18.946  16.302 -0.4668  0.1433 -0.0998
 2873POSM   AM233710  32.797  18.721  16.167  0.1188  0.2197 -0.3718
 2873POSM   T1A33711  32.446  18.889  15.855  0.2003 -0.0995  0.0421
 2873POSM   C2A33712  32.393  18.890  15.374  0.2402  0.2479 -0.1674
 2873POSM   C3A33713  32.239  18.806  14.938 -0.5137  0.1211 -0.0954
 2873POSM   C1B33714  32.876  18.446  15.884 -0.0306  0.0171  0.4150
 2873POSM   D2B33715  32.881  18.333  15.414 -0.0144  0.2350 -0.2026
 2873POSM   C3B33716  33.277  18.612  15.286  0.1423  0.2044  0.0212
 2873POSM   C4B33717  33.655  18.864  15.305 -0.2896  0.0819 -0.4952
 2874DOPE   NH333718  23.505  20.481  15.665  0.1352 -0.0832  0.3465
 2874DOPE   PO433719  23.401  20.703  15.388 -0.2461  0.5265  0.1479
 2874DOPE   GL133720  23.740  20.760  15.196 -0.1035 -0.1058 -0.0623
 2874DOPE   GL233721  23.876  20.867  15.405 -0.3911  0.0982  0.1194
 2874DOPE   C1A33722  24.101  20.696  14.882 -0.1489 -0.0505  0.2262
 2874DOPE   D2A33723  24.557  20.835  14.797 -0.1443  0.1006  0.1170
 2874DOPE   C3A33724  24.891  20.603  14.595 -0.1880  0.0309 -0.0186
 2874DOPE   C4A33725  25.063  20.301  14.297  0.0571  0.0365  0.0824
 2874DOPE   C1B33726  23.856  21.296  15.216 -0.0139  0.0139  0.1232
 2874DOPE   D2B33727  23.521  21.511  14.972 -0.0862 -0.2251  0.1772
 2874DOPE   C3B33728  23.435  21.533  14.509  0.0197  0.2136  0.0096
 2874DOPE   C4B33729  22.983  21.471  14.398  0.2017  0.0155 -0.4178
 2875DOPS   CNO33730  27.506  12.099  16.532  0.0414 -0.1147 -0.1888
 2875DOPS   PO433731  27.504  12.460  16.405 -0.0674  0.3285  0.0680
 2875DOPS   GL133732  27.252  12.533  15.986 -0.0721  0.0082 -0.0035
 2875DOPS   GL233733  27.147  12.775  16.075 -0.2879  0.2219  0.0642
 2875DOPS   C1A33734  27.469  12.809  15.646  0.0346  0.0819  0.2044
 2875DOPS   D2A33735  27.572  13.069  15.309 -0.1622  0.3091  0.1901
 2875DOPS   C3A33736  27.663  13.014  14.854  0.1201 -0.1077  0.0489
 2875DOPS   C4A33737  27.817  12.708  14.603 -0.1675 -0.2336 -0.1534
 2875DOPS   C1B33738  27.240  13.209  15.915  0.1932  0.1230  0.0547
 2875DOPS   D2B33739  27.387  13.621  15.682  0.1240 -0.0222  0.2215
 2875DOPS   C3B33740  27.507  13.771  15.253 -0.2090 -0.3919  0.0653
 2875DOPS   C4B33741  27.422  13.885  14.816 -0.1812  0.1970 -0.0429
 2876POSM   NC333742  31.270  20.019  16.045 -0.1629  0.0990  0.2906
 2876POSM   PO433743  30.998  20.133  16.288  0.0172 -0.0555  0.0193
 2876POSM   AM133744  30.733  19.996  16.117  0.1188  0.0842 -0.2993
 2876POSM   AM233745  30.752  19.892  15.853 -0.1320 -0.1438 -0.2401
 2876POSM   T1A33746  30.293  20.014  15.927  0.4520  0.1167  0.0549
 2876POSM   C2A33747  29.923  19.788  15.994 -0.2253  0.0202 -0.0283
 2876POSM   C3A33748  30.003  19.283  16.090  0.0826 -0.4459  0.1935
 2876POSM   C1B33749  30.679  19.939  15.532  0.1286 -0.1380 -0.0412
 2876POSM   D2B33750  30.737  20.067  15.103  0.0458  0.3021  0.2184
 2876POSM   C3B33751  30.421  20.164  14.784  0.1122  0.2446  0.1659
 2876POSM   C4B33752  30.090  20.267  14.504  0.1680 -0.1947  0.0566
 2877POSM   NC333753  28.372  20.059  16.363  0.3788 -0.0480  0.0775
 2877POSM   PO433754  28.033  20.100  16.148  0.1176  0.0378 -0.1770
 2877POSM   AM133755  28.161  20.038  15.891  0.3163  0.1195 -0.1925
 2877POSM   AM233756  28.172  19.808  15.730 -0.0333 -0.0151 -0.5110
 2877POSM   T1A33757  28.259  20.174  15.404  0.0948 -0.2790 -0.0766
 2877POSM   C2A33758  28.268  19.990  14.958 -0.2336  0.0095  0.1882
 2877POSM   C3A33759  28.203  19.606  14.710 -0.1398 -0.2342 -0.2438
 2877POSM   C1B33760  28.446  19.644  15.553 -0.0754 -0.1730  0.3165
 2877POSM   D2B33761  28.470  19.479  15.128 -0.0301 -0.1280 -0.1160
 2877POSM   C3B33762  28.754  19.827  14.987 -0.1225 -0.2240  0.0424
 2877POSM   C4B33763  29.029  19.950  14.589  0.0009 -0.0743  0.2847
 2878DOPC   NC333764  26.969  11.349  16.060  0.0052  0.1763  0.0695
 2878DOPC   PO433765  26.789  11.672  16.160 -0.0011 -0.2073  0.0107
 2878DOPC   GL133766  26.532  11.632  15.823  0.0061 -0.4587 -0.0511
 2878DOPC   GL233767  26.639  11.388  15.686  0.0756 -0.1738  0.0137
 2878DOPC   C1A33768  26.339  12.015  15.664 -0.2963 -0.1229 -0.1412
 2878DOPC   D2A33769  25.969  12.208  15.488 -0.1336 -0.0797  0.2162
 2878DOPC   C3A33770  25.714  12.240  15.103  0.2139 -0.0496  0.1077
 2878DOPC   C4A33771  25.373  11.974  14.916  0.1376  0.2235 -0.0292
 2878DOPC   C1B33772  26.638  11.748  15.397  0.2625  0.1290 -0.4397
 2878DOPC   D2B33773  26.512  11.754  14.971  0.0223  0.0690  0.0624
 2878DOPC   C3B33774  26.640  11.444  14.677  0.1918  0.1994  0.1393
 2878DOPC   C4B33775  26.528  11.401  14.216 -0.0230  0.2855 -0.0259
 2879DOPS   CNO33776  30.988  16.034  17.153 -0.0835  0.3595  0.2000
 2879DOPS   PO433777  30.972  16.092  16.806  0.0052 -0.2438 -0.1709
 2879DOPS   GL133778  30.690  16.174  16.452 -0.0828 -0.4687 -0.1395
 2879DOPS   GL233779  30.817  16.410  16.410  0.1807  0.2307  0.1100
 2879DOPS   C1A33780  30.728  16.078  16.008 -0.0822  0.3662  0.0198
 2879DOPS   D2A33781  30.883  15.782  15.667  0.0085  0.1099 -0.0288
 2879DOPS   C3A33782  31.035  15.530  15.351  0.0531 -0.1415 -0.0947
 2879DOPS   C4A33783  31.265  15.190  15.177 -0.3368  0.2624 -0.4056
 2879DOPS   C1B33784  31.000  16.708  16.043  0.2780 -0.1002 -0.2674
 2879DOPS   D2B33785  30.933  17.090  15.758  0.2303 -0.0427  0.2867
 2879DOPS   C3B33786  31.104  17.057  15.356 -0.4242 -0.0962 -0.0404
 2879DOPS   C4B33787  31.387  17.169  14.970 -0.1442 -0.1045  0.0183
 2880DOPE   NH333788  32.030  21.536  16.010  0.0540  0.0154  0.1914
 2880DOPE   PO433789  32.337  21.429  16.104 -0.0027 -0.0163  0.0121
 2880DOPE   GL133790  32.380  21.694  15.698 -0.3715 -0.0124 -0.3150
 2880DOPE   GL233791  32.126  21.730  15.514 -0.2013 -0.0787  0.0616
 2880DOPE   C1A33792  32.730  21.885  15.418  0.0036  0.2154 -0.0976
 2880DOPE   D2A33793  32.648  22.083  15.013  0.0999 -0.0048 -0.2605
 2880DOPE   C3A33794  32.383  22.292  14.765 -0.0197 -0.2888 -0.1321
 2880DOPE   C4A33795  31.971  22.368  14.735 -0.0164  0.0851 -0.0815
 2880DOPE   C1B33796  32.358  21.693  15.074 -0.3746  0.2534  0.1828
 2880DOPE   D2B33797  32.486  21.616  14.624 -0.1069 -0.1076  0.1024
 2880DOPE   C3B33798  32.257  21.503  14.215  0.1387  0.2113  0.4634
 2880DOPE   C4B33799  32.018  21.252  13.940 -0.0904 -0.2655  0.2635
 2881POSM   NC333800  32.919  17.269  16.794 -0.0214 -0.0435 -0.3053
 2881POSM   PO433801  33.202  17.476  16.668 -0.0707 -0.0752 -0.1855
 2881POSM   AM133802  33.171  17.577  16.369 -0.0159  0.2962  0.0718
 2881POSM   AM233803  33.156  17.819  16.216 -0.1213 -0.1678  0.0285
 2881POSM   T1A33804  33.106  17.488  15.845  0.2804  0.1193 -0.1680
 2881POSM   C2A33805  33.074  17.343  15.384 -0.2024  0.0182 -0.1656
 2881POSM   C3A33806  33.119  17.278  14.919  0.0653  0.1301  0.0260
 2881POSM   C1B33807  33.176  18.030  15.921 -0.0628 -0.1181  0.1341
 2881POSM   D2B33808  33.371  18.151  15.519 -0.0686 -0.0413  0.1548
 2881POSM   C3B33809  33.447  18.239  15.065 -0.0025 -0.0929 -0.1244
 2881POSM   C4B33810  33.316  18.096  14.629  0.1450  0.2554  0.1587
 2882POSM   NC333811  33.966  12.641  16.380 -0.1094 -0.1757  0.4313
 2882POSM   PO433812  33.931  12.991  16.167  0.0832 -0.1042 -0.0851
 2882POSM   AM133813  34.101  13.101  15.905 -0.0477 -0.0446 -0.0733
 2882POSM   AM233814  34.240  13.318  15.814  0.2979  0.4040  0.0607
 2882POSM   T1A33815  34.036  13.187  15.377 -0.3344 -0.0509 -0.1233
 2882POSM   C2A33816  34.062  13.246  14.905  0.0288 -0.2034 -0.3782
 2882POSM   C3A33817  34.381  13.299  14.594 -0.1902  0.1517  0.0232
 2882POSM   C1B33818  34.173  13.580  15.691  0.0545  0.0830  0.1072
 2882POSM   D2B33819  34.013  13.904  15.432  0.1648  0.3562  0.3196
 2882POSM   C3B33820  33.765  13.622  15.145 -0.0477 -0.0485 -0.0434
 2882POSM   C4B33821  33.614  13.553  14.722  0.2996 -0.1093  0.0746
 2883DOPC   NC333822  25.325  19.264  15.585 -0.1358  0.0542  0.2504
 2883DOPC   PO433823  25.109  19.488  15.370 -0.1394  0.0789 -0.0038
 2883DOPC   GL133824  24.823  19.457  15.082 -0.2512 -0.1724 -0.1756
 2883DOPC   GL233825  24.794  19.757  15.023 -0.0796 -0.0536  0.2206
 2883DOPC   C1A33826  24.797  19.430  14.591  0.0882  0.0588  0.0079
 2883DOPC   D2A33827  24.460  19.210  14.387  0.0959  0.0901  0.0084
 2883DOPC   C3A33828  24.065  19.338  14.141 -0.1182 -0.1069 -0.0671
 2883DOPC   C4A33829  23.680  19.441  14.253  0.0835  0.0810  0.0952
 2883DOPC   C1B33830  24.966  20.175  14.804 -0.3531  0.2524  0.1166
 2883DOPC   D2B33831  25.318  20.433  14.742 -0.1289 -0.5089 -0.0590
 2883DOPC   C3B33832  25.291  20.772  14.423 -0.0102 -0.0380  0.1125
 2883DOPC   C4B33833  25.265  21.233  14.222  0.0047  0.1655 -0.2531
 2884DOPC   NC333834  24.035  14.036  15.396 -0.0033  0.2540 -0.0004
 2884DOPC   PO433835  24.388  13.861  15.342  0.1901  0.0276  0.1432
 2884DOPC   GL133836  24.238  14.023  14.932  0.1917 -0.0123  0.0106
 2884DOPC   GL233837  24.491  14.022  14.885 -0.3582  0.0913 -0.1882
 2884DOPC   C1A33838  24.196  14.181  14.473  0.1322  0.1142 -0.1011
 2884DOPC   D2A33839  24.473  14.416  14.195 -0.4605  0.0529  0.0073
 2884DOPC   C3A33840  24.351  14.474  13.745  0.0315 -0.3291  0.0537
 2884DOPC   C4A33841  24.499  14.436  13.319 -0.4032  0.1188 -0.1972
 2884DOPC   C1B33842  24.421  13.755  14.552 -0.2413  0.2337  0.3281
 2884DOPC   D2B33843  24.724  13.514  14.288 -0.1829  0.0618  0.2803
 2884DOPC   C3B33844  24.546  13.461  13.892 -0.0858  0.0054  0.2633
 2884DOPC   C4B33845  24.131  13.519  13.671 -0.0994  0.2869  0.3160
 2885POSM   NC333846  29.498  11.113  16.814  0.0253 -0.0457 -0.1746
 2885POSM   PO433847  29.765  11.393  16.830 -0.1372  0.2458 -0.1430
 2885POSM   AM133848  29.640  11.486  16.575 -0.2402 -0.1611 -0.0662
 2885POSM   AM233849  29.483  11.719  16.468 -0.0834  0.2086 -0.1181
 2885POSM   T1A33850  29.599  11.222  16.188 -0.0212 -0.1674  0.1342
 2885POSM   C2A33851  29.333  11.024  15.834 -0.3261 -0.0418 -0.2905
 2885POSM   C3A33852  28.995  10.704  15.633  0.0447 -0.0753 -0.2709
 2885POSM   C1B33853  29.341  11.677  16.171 -0.3520  0.3004  0.1156
 2885POSM   D2B33854  29.289  11.626  15.727 -0.1851  0.2575  0.1929
 2885POSM   C3B33855  29.131  11.886  15.391 -0.0098  0.0926  0.2084
 2885POSM   C4B33856  28.983  12.184  15.134  0.0712 -0.1282  0.1207
 2886POSM   NC333857  34.033  16.475  16.127 -0.0597 -0.0367  0.0447
 2886POSM   PO433858  34.297  16.708  16.343  0.0776 -0.1294  0.2238
 2886POSM   AM133859  34.331  16.791  16.038  0.3104  0.0447 -0.0333
 2886POSM   AM233860  34.500  16.892  15.838 -0.3033 -0.2046 -0.3031
 2886POSM   T1A33861  34.063  16.746  15.634  0.2474  0.1255  0.0631
 2886POSM   C2A33862  34.040  16.462  15.241 -0.0341  0.1104  0.0852
 2886POSM   C3A33863  33.981  16.144  14.911  0.0668  0.0541  0.3096
 2886POSM   C1B33864  34.510  17.069  15.526  0.0744  0.3031 -0.0887
 2886POSM   D2B33865  34.543  17.283  15.099 -0.0678 -0.4795  0.1004
 2886POSM   C3B33866  34.452  17.587  14.747  0.4160 -0.1812  0.0349
 2886POSM   C4B33867  34.567  17.745  14.298 -0.0279 -0.2818 -0.0723
 2887DOPE   NH333868  32.671  22.272  16.233 -0.2463 -0.0994  0.0051
 2887DOPE   PO433869  32.836  22.330  15.957 -0.0430 -0.0422  0.2761
 2887DOPE   GL133870  33.045  22.223  15.711 -0.3011  0.0108 -0.2250
 2887DOPE   GL233871  33.352  22.335  15.677  0.0865  0.1938  0.0410
 2887DOPE   C1A33872  33.108  22.107  15.216  0.1564 -0.0412  0.0285
 2887DOPE   D2A33873  33.105  22.341  14.806  0.0318  0.0495  0.0155
 2887DOPE   C3A33874  33.043  22.418  14.366 -0.0834  0.0849 -0.1356
 2887DOPE   C4A33875  33.470  22.400  14.209  0.0311  0.2789 -0.0070
 2887DOPE   C1B33876  33.536  22.014  15.384  0.2225 -0.0161  0.1285
 2887DOPE   D2B33877  33.596  22.099  14.902  0.0224  0.0814  0.0234
 2887DOPE   C3B33878  33.281  21.978  14.559  0.0455  0.2208 -0.2454
 2887DOPE   C4B33879  32.801  21.974  14.511 -0.0452 -0.3410 -0.1212
 2888DOPC   NC333880  30.021  21.586  16.945  0.1244  0.0385 -0.1079
 2888DOPC   PO433881  30.224  21.415  16.637  0.0846  0.0913  0.0472
 2888DOPC   GL133882  30.210  21.473  16.274 -0.1326  0.3541  0.3769
 2888DOPC   GL233883  30.421  21.362  16.085 -0.0093 -0.3255 -0.5074
 2888DOPC   C1A33884  29.874  21.566  15.973 -0.2895  0.0780 -0.0342
 2888DOPC   D2A33885  29.539  21.687  15.618 -0.1681 -0.0081 -0.1367
 2888DOPC   C3A33886  29.572  21.754  15.167  0.0374  0.2476 -0.1324
 2888DOPC   C4A33887  29.427  21.877  14.786  0.1620 -0.3196  0.0541
 2888DOPC   C1B33888  30.619  21.506  15.678 -0.0452  0.0709 -0.2625
 2888DOPC   D2B33889  31.012  21.580  15.401 -0.1383  0.2184 -0.1760
 2888DOPC   C3B33890  31.067  21.633  14.923  0.0651  0.2152 -0.0121
 2888DOPC   C4B33891  31.075  22.016  14.664 -0.2437 -0.1767 -0.0698
 2889DOPE   NH333892  31.579  18.346  16.654 -0.1826  0.1660 -0.1366
 2889DOPE   PO433893  31.233  18.370  16.714  0.0284 -0.0542 -0.0124
 2889DOPE   GL133894  31.229  18.474  16.314 -0.0952  0.2288  0.2683
 2889DOPE   GL233895  31.376  18.196  16.230  0.1473 -0.1847 -0.2533
 2889DOPE   C1A33896  31.486  18.610  15.945 -0.1158 -0.1444  0.0014
 2889DOPE   D2A33897  31.571  18.255  15.620 -0.3268 -0.0357  0.2487
 2889DOPE   C3A33898  31.334  18.113  15.246 -0.0180 -0.1502  0.1478
 2889DOPE   C4A33899  30.946  18.169  14.986 -0.0289 -0.2558 -0.0475
 2889DOPE   C1B33900  31.097  18.079  15.888 -0.3584  0.1568 -0.2731
 2889DOPE   D2B33901  30.906  17.912  15.466 -0.0186 -0.0715  0.1348
 2889DOPE   C3B33902  30.541  18.231  15.304  0.3327  0.2468 -0.1956
 2889DOPE   C4B33903  30.083  18.233  15.201 -0.2465  0.2564 -0.0885
 2890DOPE   NH333904  33.776  14.863  16.253 -0.1018  0.1205  0.0372
 2890DOPE   PO433905  33.465  14.941  16.261 -0.0718 -0.1011  0.1676
 2890DOPE   GL133906  33.479  14.725  15.921 -0.3821  0.1167  0.1962
 2890DOPE   GL233907  33.460  14.975  15.770  0.4577  0.1733 -0.1751
 2890DOPE   C1A33908  33.303  14.578  15.493  0.0330 -0.2529 -0.2410
 2890DOPE   D2A33909  33.018  14.332  15.125  0.0835  0.4370 -0.1536
 2890DOPE   C3A33910  32.680  14.634  14.942 -0.1598  0.0591  0.1701
 2890DOPE   C4A33911  32.433  14.820  14.620  0.0233 -0.1460 -0.2502
 2890DOPE   C1B33912  33.342  15.249  15.412  0.0165 -0.1291  0.1820
 2890DOPE   D2B33913  33.013  15.320  15.108 -0.0565  0.0707 -0.1148
 2890DOPE   C3B33914  32.833  15.099  14.771  0.0109 -0.0582  0.3369
 2890DOPE   C4B33915  32.779  15.118  14.328  0.1025 -0.0692  0.0449
 2891DOPE   NH333916  30.605  14.425  16.378  0.1786 -0.1432 -0.1355
 2891DOPE   PO433917  30.538  14.665  16.576 -0.2479  0.0778  0.2202
 2891DOPE   GL133918  30.484  14.858  16.253  0.1758 -0.1230  0.2106
 2891DOPE   GL233919  30.180  14.855  16.256  0.0431  0.3206  0.0679
 2891DOPE   C1A33920  30.408  15.035  15.841  0.0987  0.1282  0.2650
 2891DOPE   D2A33921  30.095  15.027  15.498  0.0522  0.2786 -0.1987
 2891DOPE   C3A33922  30.329  15.003  15.088 -0.0448 -0.0110  0.1393
 2891DOPE   C4A33923  30.721  14.929  14.848  0.0035  0.2383  0.2621
 2891DOPE   C1B33924  30.044  14.595  15.858  0.2130 -0.1958  0.2200
 2891DOPE   D2B33925  30.167  14.525  15.392  0.1731 -0.2065  0.3104
 2891DOPE   C3B33926  30.276  14.404  14.986  0.2304 -0.0615 -0.1405
 2891DOPE   C4B33927  30.392  14.158  14.584  0.3364  0.4643 -0.0415
 2892DOPS   CNO33928  23.497  17.068  14.704 -0.2490 -0.0175  0.0527
 2892DOPS   PO433929  23.727  16.829  14.907 -0.2326  0.2551 -0.0805
 2892DOPS   GL133930  24.066  16.710  14.673  0.2807  0.2415 -0.3343
 2892DOPS   GL233931  24.026  16.400  14.717 -0.0227 -0.3615 -0.1223
 2892DOPS   C1A33932  24.308  16.771  14.305 -0.0637 -0.2149 -0.1949
 2892DOPS   D2A33933  24.348  17.022  13.929 -0.1624  0.0182 -0.0547
 2892DOPS   C3A33934  24.661  17.255  13.653  0.1587  0.3795 -0.0696
 2892DOPS   C4A33935  24.952  17.450  13.368 -0.2787 -0.1419 -0.2013
 2892DOPS   C1B33936  24.278  16.260  14.364  0.1681 -0.0765  0.1858
 2892DOPS   D2B33937  24.724  16.218  14.127  0.2702 -0.0174  0.0069
 2892DOPS   C3B33938  24.924  16.210  13.782 -0.1752  0.0260 -0.0929
 2892DOPS   C4B33939  24.957  16.404  13.323 -0.1328  0.1780 -0.0160
 2893DOPE   NH333940  30.000  18.547  16.507 -0.0496 -0.3236  0.4720
 2893DOPE   PO433941  29.739  18.705  16.428 -0.2402 -0.0342 -0.0621
 2893DOPE   GL133942  29.799  18.796  16.106  0.2396 -0.0537  0.0317
 2893DOPE   GL233943  29.901  18.603  15.948 -0.1254  0.2129 -0.0228
 2893DOPE   C1A33944  29.794  19.092  15.685  0.2238 -0.3594  0.1349
 2893DOPE   D2A33945  29.618  19.368  15.269 -0.1599  0.2217 -0.0360
 2893DOPE   C3A33946  29.882  19.482  14.930 -0.0604  0.1933 -0.1133
 2893DOPE   C4A33947  30.013  19.831  14.678  0.1524  0.1419 -0.2614
 2893DOPE   C1B33948  29.984  18.679  15.482  0.2841  0.1084  0.1422
 2893DOPE   D2B33949  29.688  18.739  15.125  0.1097  0.2552  0.0211
 2893DOPE   C3B33950  29.771  18.974  14.767  0.3325  0.0136 -0.3762
 2893DOPE   C4B33951  29.958  19.142  14.360  0.0824  0.0852  0.1174
 2894DOPE   NH333952  25.839  17.363  15.638 -0.1688 -0.3869 -0.1781
 2894DOPE   PO433953  26.106  17.464  15.797  0.0012 -0.4067 -0.2257
 2894DOPE   GL133954  26.342  17.594  15.511 -0.2300 -0.0545  0.2477
 2894DOPE   GL233955  26.615  17.666  15.525  0.1917 -0.1600 -0.0496
 2894DOPE   C1A33956  26.501  17.774  15.061  0.1341  0.3672  0.0523
 2894DOPE   D2A33957  26.713  18.049  14.775  0.1574  0.1264  0.3269
 2894DOPE   C3A33958  26.869  17.835  14.349 -0.3796 -0.0729  0.1268
 2894DOPE   C4A33959  26.772  17.731  13.995  0.0831 -0.0909 -0.2106
 2894DOPE   C1B33960  26.941  17.767  15.302 -0.0222  0.2400  0.0106
 2894DOPE   D2B33961  26.874  18.205  15.287  0.1996  0.1052  0.0744
 2894DOPE   C3B33962  27.106  18.389  14.896  0.1264 -0.1012  0.0269
 2894DOPE   C4B33963  27.017  18.499  14.437 -0.0182 -0.1529  0.0031
 2895POSM   NC333964  25.829  12.742  16.169  0.0792  0.3294  0.0081
 2895POSM   PO433965  26.145  12.510  16.308 -0.1746 -0.2152 -0.0369
 2895POSM   AM133966  26.391  12.499  16.067  0.2488 -0.2192  0.0773
 2895POSM   AM233967  26.331  12.498  15.780 -0.2325 -0.2209 -0.3377
 2895POSM   T1A33968  26.839  12.355  15.862  0.2081  0.0436 -0.3503
 2895POSM   C2A33969  26.983  11.941  15.721 -0.1748 -0.3476 -0.2701
 2895POSM   C3A33970  27.306  11.606  15.777 -0.1288 -0.0565 -0.2986
 2895POSM   C1B33971  26.501  12.466  15.550  0.0440  0.0841  0.1354
 2895POSM   D2B33972  26.682  12.538  15.137 -0.2865  0.0908  0.2450
 2895POSM   C3B33973  26.571  12.279  14.742 -0.0461  0.1495 -0.1352
 2895POSM   C4B33974  26.934  12.164  14.494  0.2754  0.0474 -0.1687
 2896POSM   NC333975  27.573  15.041  16.277 -0.0436  0.2191  0.0093
 2896POSM   PO433976  27.877  15.327  16.289 -0.0453  0.0038 -0.1423
 2896POSM   AM133977  27.936  15.232  15.964 -0.2103  0.0317  0.0366
 2896POSM   AM233978  27.757  15.114  15.789  0.0152  0.2058 -0.0630
 2896POSM   T1A33979  28.280  15.307  15.583  0.0072  0.0757 -0.3241
 2896POSM   C2A33980  28.434  15.554  15.268  0.0252 -0.3235 -0.0661
 2896POSM   C3A33981  28.504  15.638  14.820  0.0032 -0.0283 -0.0032
 2896POSM   C1B33982  27.808  14.909  15.499  0.2614  0.0206  0.0158
 2896POSM   D2B33983  27.875  14.905  15.054 -0.1003 -0.0537  0.1483
 2896POSM   C3B33984  28.173  14.674  14.802  0.3912 -0.2385 -0.0737
 2896POSM   C4B33985  28.211  14.294  14.534 -0.3069 -0.1998  0.3697
 2897DOPC   NC333986  29.294  19.037  16.245  0.0331  0.0517 -0.5933
 2897DOPC   PO433987  29.251  18.627  16.298  0.1759 -0.1846  0.1626
 2897DOPC   GL133988  29.404  18.395  15.979 -0.0841  0.0053  0.3356
 2897DOPC   GL233989  29.416  18.675  15.793 -0.2697 -0.1313  0.1351
 2897DOPC   C1A33990  29.499  17.940  15.781  0.3653 -0.1505  0.2862
 2897DOPC   D2A33991  29.328  17.779  15.357  0.0628  0.1639  0.0131
 2897DOPC   C3A33992  29.062  17.958  15.051  0.0246  0.2255 -0.2379
 2897DOPC   C4A33993  28.890  18.201  14.668  0.1086  0.0127 -0.0873
 2897DOPC   C1B33994  29.634  18.378  15.574  0.0212  0.0544 -0.1179
 2897DOPC   D2B33995  29.525  18.228  15.152  0.3694 -0.0428 -0.0916
 2897DOPC   C3B33996  29.712  17.951  14.880 -0.0327  0.1222 -0.2104
 2897DOPC   C4B33997  30.062  17.790  14.672 -0.0223 -0.1852 -0.5223
 2898DOPC   NC333998  28.107  19.543  16.101 -0.2923 -0.2793 -0.3154
 2898DOPC   PO433999  27.767  19.667  16.018  0.0868  0.0696  0.0983
 2898DOPC   GL134000  27.648  19.738  15.627  0.3023  0.2243 -0.1071
 2898DOPC   GL234001  27.726  20.061  15.661 -0.0560  0.0955  0.2143
 2898DOPC   C1A34002  27.216  19.753  15.342  0.3308  0.1084  0.0700
 2898DOPC   D2A34003  27.049  19.552  14.908 -0.1194 -0.1768  0.0644
 2898DOPC   C3A34004  27.089  19.476  14.447 -0.2561 -0.0392 -0.2149
 2898DOPC   C4A34005  27.526  19.296  14.246  0.3405  0.0566 -0.1586
 2898DOPC   C1B34006  27.558  20.191  15.271 -0.2980 -0.2073  0.0026
 2898DOPC   D2B34007  27.201  20.140  14.982  0.3259 -0.0155 -0.1894
 2898DOPC   C3B34008  27.167  19.938  14.540  0.1172 -0.4623 -0.0978
 2898DOPC   C4B34009  26.918  19.827  14.169 -0.1548 -0.0060  0.1571
 2899POSM   NC334010  25.838  21.411  15.170  0.1598 -0.4294 -0.0947
 2899POSM   PO434011  26.181  21.515  15.269 -0.0036  0.0827 -0.2635
 2899POSM   AM134012  26.299  21.540  14.986 -0.2211  0.2045 -0.1130
 2899POSM   AM234013  26.555  21.535  14.868 -0.0131 -0.0702 -0.0959
 2899POSM   T1A34014  26.155  21.404  14.553  0.0601  0.0377 -0.0928
 2899POSM   C2A34015  25.987  21.446  14.096  0.1138  0.2213 -0.1312
 2899POSM   C3A34016  25.676  21.479  13.685 -0.0104 -0.3186 -0.1480
 2899POSM   C1B34017  26.613  21.544  14.515  0.0862  0.1153 -0.0754
 2899POSM   D2B34018  26.889  21.368  14.155 -0.1092 -0.1625  0.1161
 2899POSM   C3B34019  26.951  20.910  14.204 -0.2281  0.0833  0.0840
 2899POSM   C4B34020  26.976  20.659  13.812  0.0917  0.1810  0.0469
 2900DOPC   NC334021  31.602  12.960  16.151  0.0850 -0.0796  0.0302
 2900DOPC   PO434022  31.952  12.975  16.291  0.2497 -0.1561  0.2498
 2900DOPC   GL134023  31.865  13.209  15.928  0.1201 -0.0676  0.1231
 2900DOPC   GL234024  31.744  13.458  15.962 -0.2410 -0.0177 -0.1630
 2900DOPC   C1A34025  31.628  13.214  15.533 -0.5300  0.0193  0.0196
 2900DOPC   D2A34026  31.611  13.520  15.167 -0.2010 -0.1872 -0.2129
 2900DOPC   C3A34027  31.628  13.541  14.767  0.0417 -0.0106  0.1512
 2900DOPC   C4A34028  31.588  13.655  14.335  0.0883  0.0225  0.1089
 2900DOPC   C1B34029  31.407  13.652  15.645 -0.0459  0.2240 -0.1654
 2900DOPC   D2B34030  31.486  14.047  15.382  0.0996  0.1945  0.2284
 2900DOPC   C3B34031  31.678  14.465  15.253  0.0363  0.0836  0.1273
 2900DOPC   C4B34032  31.646  14.878  15.017 -0.0418  0.1690 -0.1307
 2901POSM   NC334033  22.635  19.541  14.839  0.2399 -0.0146  0.1462
 2901POSM   PO434034  22.870  19.637  15.154  0.0776 -0.0966 -0.0359
 2901POSM   AM134035  23.065  19.613  14.924 -0.0067 -0.2181  0.3352
 2901POSM   AM234036  23.368  19.678  14.934 -0.1597  0.0375  0.1097
 2901POSM   T1A34037  23.362  19.301  14.650 -0.0140 -0.1062 -0.2359
 2901POSM   C2A34038  23.346  19.025  14.303  0.0375  0.2749 -0.0083
 2901POSM   C3A34039  23.613  19.052  13.958 -0.0154 -0.1564 -0.2668
 2901POSM   C1B34040  23.404  19.787  14.635 -0.0732 -0.0007 -0.3074
 2901POSM   D2B34041  23.484  19.995  14.211  0.2409 -0.0069 -0.1379
 2901POSM   C3B34042  23.730  19.795  13.873 -0.1337  0.3086 -0.3040
 2901POSM   C4B34043  23.879  19.438  13.682 -0.2106 -0.2438  0.1096
 2902DOPC   NC334044  26.473  16.230  15.447  0.1361 -0.0078 -0.1769
 2902DOPC   PO434045  26.152  16.342  15.680  0.1142  0.0821 -0.0017
 2902DOPC   GL134046  26.011  16.280  15.304 -0.0164  0.2303  0.3151
 2902DOPC   GL234047  26.062  16.041  15.179 -0.3537  0.1700 -0.1311
 2902DOPC   C1A34048  26.009  16.416  14.826 -0.1525  0.0232 -0.0581
 2902DOPC   D2A34049  26.139  16.309  14.428 -0.1328  0.3463  0.3014
 2902DOPC   C3A34050  26.529  16.425  14.158 -0.2160  0.2030  0.2142
 2902DOPC   C4A34051  26.703  16.698  13.808 -0.1340 -0.1446 -0.0676
 2902DOPC   C1B34052  26.123  15.930  14.713  0.1241 -0.0478 -0.0305
 2902DOPC   D2B34053  26.115  15.775  14.319  0.0905  0.0039  0.1623
 2902DOPC   C3B34054  26.416  15.943  13.990 -0.2070 -0.0439  0.1244
 2902DOPC   C4B34055  26.693  15.706  13.637 -0.2016 -0.0634  0.2383
 2903POSM   NC334056  25.646  22.293  15.335  0.0640  0.1356  0.0808
 2903POSM   PO434057  25.311  22.115  15.444  0.1417 -0.0576 -0.2176
 2903POSM   AM134058  25.160  22.249  15.190 -0.6629  0.3207  0.2810
 2903POSM   AM234059  25.249  22.501  15.036 -0.1435 -0.1207  0.1315
 2903POSM   T1A34060  24.851  22.268  14.790  0.0110  0.2969  0.0597
 2903POSM   C2A34061  24.601  22.292  14.409  0.1446 -0.1630  0.3286
 2903POSM   C3A34062  24.548  22.097  13.946 -0.2048  0.1755  0.2487
 2903POSM   C1B34063  25.293  22.488  14.678  0.1601 -0.1848 -0.1057
 2903POSM   D2B34064  25.042  22.485  14.283  0.1038 -0.0677 -0.3545
 2903POSM   C3B34065  25.311  22.558  13.915 -0.0086 -0.1559 -0.0145
 2903POSM   C4B34066  25.220  22.426  13.431 -0.2075  0.0917  0.2923
 2904DOPE   NH334067  26.879  18.324  15.845  0.3233 -0.2181 -0.1136
 2904DOPE   PO434068  26.638  18.550  15.865  0.0416  0.2719 -0.0805
 2904DOPE   GL134069  26.798  18.754  15.548  0.1784 -0.1700 -0.0753
 2904DOPE   GL234070  26.617  18.680  15.314  0.2383 -0.1188  0.1801
 2904DOPE   C1A34071  27.111  18.726  15.256  0.0517 -0.0731  0.0038
 2904DOPE   D2A34072  27.520  18.743  14.958  0.1456  0.0619  0.0264
 2904DOPE   C3A34073  27.569  18.786  14.462  0.2711  0.0028 -0.0346
 2904DOPE   C4A34074  27.658  18.681  13.984 -0.0533  0.1142 -0.0804
 2904DOPE   C1B34075  26.646  18.552  14.861  0.0647 -0.0829 -0.0213
 2904DOPE   D2B34076  26.502  18.517  14.442  0.1010 -0.2593  0.0364
 2904DOPE   C3B34077  26.455  18.835  14.082 -0.1790  0.1086  0.0643
 2904DOPE   C4B34078  26.312  19.251  13.853  0.2429 -0.2600  0.3358
 2905DOPC   NC334079  33.108  13.701  16.354 -0.1790  0.0267  0.1695
 2905DOPC   PO434080  32.881  13.381  16.284 -0.0142 -0.2288 -0.1077
 2905DOPC   GL134081  32.704  13.421  15.903  0.0741  0.2171 -0.2948
 2905DOPC   GL234082  32.837  13.723  15.886  0.1475 -0.0344 -0.0044
 2905DOPC   C1A34083  32.727  13.304  15.498 -0.3257 -0.0127 -0.1679
 2905DOPC   D2A34084  32.563  13.270  15.072  0.1560 -0.0639 -0.1089
 2905DOPC   C3A34085  32.253  13.597  14.833 -0.5424  0.4231  0.0249
 2905DOPC   C4A34086  32.118  13.893  14.578  0.0944 -0.0370  0.0718
 2905DOPC   C1B34087  33.033  13.756  15.437 -0.0058  0.2270 -0.0662
 2905DOPC   D2B34088  32.864  13.798  15.054  0.0265  0.3202  0.2538
 2905DOPC   C3B34089  32.787  14.174  14.718  0.2805  0.2932  0.0727
 2905DOPC   C4B34090  33.034  14.594  14.579 -0.1151 -0.2311  0.3924
 2906DOPC   NC334091  29.353  12.077  17.187  0.1679 -0.1775  0.0558
 2906DOPC   PO434092  29.336  12.070  16.804  0.1587  0.2424 -0.3092
 2906DOPC   GL134093  29.422  12.372  16.560  0.2698 -0.4114  0.0268
 2906DOPC   GL234094  29.139  12.348  16.349  0.1479 -0.3179 -0.0939
 2906DOPC   C1A34095  29.638  12.580  16.259  0.1584 -0.1042 -0.0649
 2906DOPC   D2A34096  29.542  13.081  16.162  0.0687  0.2291 -0.1445
 2906DOPC   C3A34097  29.220  13.216  15.843  0.0436 -0.0837  0.2625
 2906DOPC   C4A34098  29.005  13.473  15.483 -0.0288  0.1824 -0.1732
 2906DOPC   C1B34099  29.309  12.129  15.985 -0.1453 -0.0890  0.1163
 2906DOPC   D2B34100  29.632  12.127  15.626  0.0109 -0.1625 -0.1223
 2906DOPC   C3B34101  29.490  12.313  15.211 -0.0965  0.1547 -0.1161
 2906DOPC   C4B34102  29.420  12.355  14.748  0.1740  0.2550 -0.1414
 2907DOPC   NC334103  27.881  16.626  15.629  0.0120 -0.1636 -0.0285
 2907DOPC   PO434104  27.539  16.488  15.787  0.2078  0.0826 -0.2141
 2907DOPC   GL134105  27.425  16.578  15.462  0.1180 -0.1056 -0.2711
 2907DOPC   GL234106  27.337  16.335  15.271 -0.3143  0.0317 -0.1596
 2907DOPC   C1A34107  27.214  16.759  15.055 -0.2072  0.0136 -0.1119
 2907DOPC   D2A34108  27.030  17.102  14.719 -0.3142  0.0209  0.2927
 2907DOPC   C3A34109  27.371  17.379  14.489 -0.0793 -0.1043  0.0321
 2907DOPC   C4A34110  27.699  17.625  14.254  0.1040  0.1383 -0.1183
 2907DOPC   C1B34111  27.200  16.329  14.811 -0.0142 -0.1119 -0.1284
 2907DOPC   D2B34112  27.181  16.303  14.375 -0.0561 -0.0094  0.2844
 2907DOPC   C3B34113  26.933  16.183  14.000 -0.0593 -0.1402 -0.0217
 2907DOPC   C4B34114  26.988  16.093  13.546  0.3421 -0.2121 -0.1351
 2908DOPC   NC334115  33.738  19.794  16.494  0.0247  0.2031 -0.2924
 2908DOPC   PO434116  33.446  20.045  16.325 -0.2176  0.0211 -0.0861
 2908DOPC   GL134117  33.398  20.114  15.922 -0.2643  0.3025  0.2515
 2908DOPC   GL234118  33.448  19.972  15.703  0.1245  0.2901 -0.3784
 2908DOPC   C1A34119  33.254  20.375  15.557 -0.0793  0.3343 -0.1578
 2908DOPC   D2A34120  33.137  20.436  15.072 -0.1420  0.0413 -0.0764
 2908DOPC   C3A34121  32.778  20.364  14.780  0.0397  0.0195  0.1616
 2908DOPC   C4A34122  32.712  20.630  14.420  0.1050 -0.1868 -0.2488
 2908DOPC   C1B34123  33.579  19.860  15.321 -0.0972  0.5602 -0.0996
 2908DOPC   D2B34124  33.697  19.736  14.838  0.3423 -0.1097 -0.0667
 2908DOPC   C3B34125  33.646  19.272  14.806 -0.1180  0.2516 -0.0008
 2908DOPC   C4B34126  33.505  18.816  14.790  0.1143 -0.0647 -0.1716
 2909DOPS   CNO34127  28.622  17.100  16.267 -0.0540 -0.4120  0.0634
 2909DOPS   PO434128  28.847  17.105  16.550  0.0055  0.0732  0.0957
 2909DOPS   GL134129  29.108  17.140  16.275  0.3464  0.0648  0.1312
 2909DOPS   GL234130  29.345  17.079  16.481 -0.0479 -0.0917  0.5750
 2909DOPS   C1A34131  29.281  16.826  16.000  0.1906 -0.0647  0.2792
 2909DOPS   D2A34132  29.526  16.819  15.593  0.2293 -0.1713 -0.2002
 2909DOPS   C3A34133  29.336  16.673  15.192  0.1128  0.0818 -0.0352
 2909DOPS   C4A34134  29.545  16.392  14.837 -0.0653 -0.1980 -0.0392
 2909DOPS   C1B34135  29.604  17.216  16.094 -0.0953 -0.0093  0.1639
 2909DOPS   D2B34136  29.646  17.448  15.745  0.0028 -0.3763  0.1015
 2909DOPS   C3B34137  30.077  17.538  15.623 -0.0097  0.1527 -0.3657
 2909DOPS   C4B34138  30.346  17.841  15.442  0.1340  0.3426  0.3026
 2910DOPC   NC334139  29.624  15.601  16.761 -0.0284 -0.1971 -0.3199
 2910DOPC   PO434140  30.004  15.626  16.855 -0.1106  0.0848  0.1768
 2910DOPC   GL134141  29.991  15.725  16.513  0.3050 -0.3552  0.1798
 2910DOPC   GL234142  30.119  16.028  16.598  0.5308  0.1560  0.2218
 2910DOPC   C1A34143  30.291  15.923  16.150 -0.0349  0.0993  0.1043
 2910DOPC   D2A34144  30.339  16.143  15.762 -0.1128  0.1724  0.0474
 2910DOPC   C3A34145  30.093  16.518  15.693  0.0211 -0.0928  0.4724
 2910DOPC   C4A34146  29.888  16.571  15.263  0.1706 -0.0616 -0.0152
 2910DOPC   C1B34147  29.982  16.300  16.242 -0.0317 -0.0525  0.4365
 2910DOPC   D2B34148  29.665  16.441  15.929  0.3752  0.1851  0.0469
 2910DOPC   C3B34149  29.583  16.283  15.470  0.1839  0.2589  0.0380
 2910DOPC   C4B34150  29.231  16.188  15.139 -0.0211 -0.1249  0.0552
 2911DOPS   CNO34151  31.348  19.214  15.719 -0.2013 -0.3913 -0.3059
 2911DOPS   PO434152  31.457  19.484  15.996 -0.3430 -0.0079 -0.1910
 2911DOPS   GL134153  31.128  19.582  15.794 -0.2403  0.0183 -0.0291
 2911DOPS   GL234154  30.899  19.400  15.874 -0.1729  0.0796  0.0409
 2911DOPS   C1A34155  30.985  19.558  15.368  0.3644 -0.1421  0.3112
 2911DOPS   D2A34156  30.813  19.491  14.938 -0.0146 -0.0131  0.0747
 2911DOPS   C3A34157  31.009  19.056  14.793 -0.1106 -0.2239  0.0763
 2911DOPS   C4A34158  30.835  18.707  14.575  0.4734  0.0227 -0.0023
 2911DOPS   C1B34159  30.504  19.476  15.651  0.3375 -0.3947  0.3056
 2911DOPS   D2B34160  30.059  19.537  15.493  0.0878  0.0483  0.1986
 2911DOPS   C3B34161  29.887  19.875  15.228  0.0450  0.1615 -0.0695
 2911DOPS   C4B34162  30.014  20.326  15.027 -0.1908  0.0762 -0.1249
 2912POSM   NC334163  34.377  11.855  16.431  0.2810 -0.0885 -0.0870
 2912POSM   PO434164  34.757  11.904  16.508  0.1436 -0.1245 -0.0434
 2912POSM   AM134165  34.968  12.007  16.249 -0.1253  0.2346 -0.0074
 2912POSM   AM234166  35.115  11.843  16.071  0.3460  0.0198 -0.0245
 2912POSM   T1A34167  35.061  12.352  15.931  0.0303 -0.3055  0.1775
 2912POSM   C2A34168  35.340  12.461  15.575  0.0846  0.1914  0.2233
 2912POSM   C3A34169  35.377  12.702  15.169 -0.1149  0.0134  0.3093
 2912POSM   C1B34170  34.894  11.672  15.822  0.1060 -0.2291 -0.0856
 2912POSM   D2B34171  34.474  11.638  15.587 -0.1809  0.2988  0.0006
 2912POSM   C3B34172  34.502  11.884  15.210  0.1018  0.0112  0.3106
 2912POSM   C4B34173  34.492  12.260  14.869 -0.2970 -0.0035  0.2545
 2913DOPS   CNO34174  28.173  17.353  16.029 -0.0111  0.0515 -0.1348
 2913DOPS   PO434175  27.813  17.347  16.110  0.0024 -0.1704  0.1376
 2913DOPS   GL134176  27.762  17.053  15.743  0.3048 -0.1293  0.1476
 2913DOPS   GL234177  28.042  17.118  15.637 -0.1256  0.3420  0.0865
 2913DOPS   C1A34178  27.654  17.092  15.280  0.0300 -0.2469 -0.0033
 2913DOPS   D2A34179  27.466  17.166  14.880 -0.1079 -0.3228 -0.1311
 2913DOPS   C3A34180  27.782  17.169  14.534  0.1856 -0.1348  0.1303
 2913DOPS   C4A34181  28.158  17.440  14.378  0.2517  0.1714  0.0070
 2913DOPS   C1B34182  28.049  16.878  15.237 -0.0845  0.2213 -0.0746
 2913DOPS   D2B34183  28.296  16.674  14.900  0.1618 -0.0727 -0.1823
 2913DOPS   C3B34184  28.180  16.960  14.535  0.4190 -0.0955  0.1128
 2913DOPS   C4B34185  27.991  16.840  14.124 -0.3680  0.1671  0.2017
 2914DOPS   CNO34186  23.894  14.508  15.346  0.1033 -0.2523  0.1613
 2914DOPS   PO434187  24.223  14.428  15.179 -0.2627  0.2784  0.0484
 2914DOPS   GL134188  23.963  14.356  14.893  0.1168  0.0688  0.2817
 2914DOPS   GL234189  24.031  14.609  14.769 -0.1132  0.2492  0.3320
 2914DOPS   C1A34190  23.707  14.255  14.531  0.0086 -0.0238  0.4327
 2914DOPS   D2A34191  23.553  13.999  14.149 -0.2640 -0.1704  0.2141
 2914DOPS   C3A34192  23.797  13.905  13.754  0.1485  0.2205 -0.4188
 2914DOPS   C4A34193  23.703  13.951  13.343 -0.4169  0.2488 -0.3290
 2914DOPS   C1B34194  24.000  14.621  14.314 -0.0145 -0.1337 -0.0864
 2914DOPS   D2B34195  23.788  14.395  13.972 -0.2032  0.1070  0.0907
 2914DOPS   C3B34196  23.454  14.284  13.676  0.0525 -0.0150 -0.0600
 2914DOPS   C4B34197  23.256  14.457  13.353  0.1381  0.0489  0.1987
 2915DOPE   NH334198  27.023  15.705  15.887 -0.4646 -0.0688 -0.0415
 2915DOPE   PO434199  26.844  15.995  15.967 -0.0632 -0.2463  0.0697
 2915DOPE   GL134200  26.955  16.074  15.557  0.0068  0.3847 -0.2785
 2915DOPE   GL234201  26.831  15.863  15.459  0.2251 -0.2755  0.1653
 2915DOPE   C1A34202  26.873  16.286  15.165  0.1103 -0.1250  0.0084
 2915DOPE   D2A34203  26.479  16.305  14.929  0.1229  0.1022  0.0346
 2915DOPE   C3A34204  26.630  16.080  14.540 -0.4409  0.0526 -0.1300
 2915DOPE   C4A34205  26.768  15.760  14.221 -0.0688  0.1060  0.0198
 2915DOPE   C1B34206  26.635  15.731  15.076  0.2586 -0.1232  0.1377
 2915DOPE   D2B34207  26.611  15.618  14.614  0.0203  0.2796  0.0824
 2915DOPE   C3B34208  26.436  15.357  14.275 -0.1123 -0.2618  0.0796
 2915DOPE   C4B34209  26.745  15.322  13.932 -0.0022 -0.0143 -0.0865
 2916DOPE   NH334210  32.122  11.704  16.017  0.1734 -0.0616 -0.0063
 2916DOPE   PO434211  32.107  11.998  16.113 -0.3543 -0.1648 -0.0526
 2916DOPE   GL134212  31.714  12.225  16.178 -0.1794 -0.3339 -0.0806
 2916DOPE   GL234213  31.789  12.501  16.260 -0.1403  0.1344  0.0183
 2916DOPE   C1A34214  31.369  12.154  15.884  0.0335 -0.0678 -0.1394
 2916DOPE   D2A34215  31.102  12.367  15.572 -0.1494 -0.1431 -0.0418
 2916DOPE   C3A34216  31.294  12.430  15.197 -0.1195  0.0932 -0.0287
 2916DOPE   C4A34217  31.440  12.474  14.798  0.0533 -0.1636 -0.2407
 2916DOPE   C1B34218  31.878  12.472  15.747  0.0913  0.1194  0.2696
 2916DOPE   D2B34219  31.947  12.824  15.410  0.0349  0.2758  0.1399
 2916DOPE   C3B34220  31.978  13.165  15.064 -0.0102 -0.2210 -0.2599
 2916DOPE   C4B34221  31.986  13.174  14.573  0.0345 -0.0452 -0.2913
 2917DOPE   NH334222  30.939  21.228  16.087 -0.3905  0.2072  0.0923
 2917DOPE   PO434223  31.118  21.353  16.282 -0.0095 -0.0889  0.0485
 2917DOPE   GL134224  30.790  21.632  16.118  0.2072  0.0668 -0.2201
 2917DOPE   GL234225  30.573  21.832  16.266 -0.1023 -0.1117 -0.0100
 2917DOPE   C1A34226  30.787  21.960  15.760 -0.1046 -0.1808 -0.2106
 2917DOPE   D2A34227  30.480  22.249  15.569  0.2995  0.1928 -0.2669
 2917DOPE   C3A34228  30.265  22.209  15.176 -0.1044  0.2416 -0.2460
 2917DOPE   C4A34229  30.060  21.856  14.931  0.2687 -0.2339 -0.0846
 2917DOPE   C1B34230  30.310  21.773  15.894 -0.0516  0.0067  0.0522
 2917DOPE   D2B34231  30.402  21.761  15.346  0.1700 -0.0581  0.0062
 2917DOPE   C3B34232  30.556  21.788  14.861 -0.1261 -0.0095  0.0117
 2917DOPE   C4B34233  30.809  21.616  14.528 -0.0302  0.2044 -0.0831
 2918DOPC   NC334234  27.282  17.936  16.325  0.0058 -0.1946  0.0662
 2918DOPC   PO434235  27.327  18.235  16.083 -0.0641 -0.1774  0.1999
 2918DOPC   GL134236  27.628  18.323  15.868 -0.2066  0.1212 -0.2446
 2918DOPC   GL234237  27.684  18.529  15.760 -0.1382  0.2929 -0.0862
 2918DOPC   C1A34238  27.689  17.969  15.587  0.0332  0.1903  0.0897
 2918DOPC   D2A34239  28.030  17.700  15.364 -0.0936  0.3035 -0.2944
 2918DOPC   C3A34240  28.174  17.943  15.044  0.2493 -0.2327  0.1871
 2918DOPC   C4A34241  28.321  18.189  14.627  0.1448 -0.1002 -0.1349
 2918DOPC   C1B34242  27.706  18.788  15.450 -0.2474  0.0477 -0.6326
 2918DOPC   D2B34243  27.967  18.818  15.118 -0.0889  0.1227  0.3120
 2918DOPC   C3B34244  27.986  18.540  14.759  0.2050 -0.0741 -0.1418
 2918DOPC   C4B34245  28.040  18.524  14.326 -0.0279 -0.0142 -0.0858
 2919DOPC   NC334246  34.607  15.488  16.010 -0.1152  0.2467 -0.4883
 2919DOPC   PO434247  34.245  15.521  16.126 -0.1201  0.0853  0.4493
 2919DOPC   GL134248  34.225  15.844  15.881 -0.1868 -0.0341  0.1665
 2919DOPC   GL234249  34.087  15.683  15.690  0.0371  0.1503  0.0530
 2919DOPC   C1A34250  34.328  15.982  15.441  0.0272 -0.3472 -0.0443
 2919DOPC   D2A34251  34.476  16.222  15.089  0.2681 -0.1434  0.4656
 2919DOPC   C3A34252  34.423  16.139  14.670  0.3081  0.0329 -0.0061
 2919DOPC   C4A34253  34.592  16.337  14.264 -0.0515 -0.1905  0.3064
 2919DOPC   C1B34254  34.458  15.378  15.452 -0.2466 -0.0911  0.3340
 2919DOPC   D2B34255  34.877  15.305  15.203  0.1026  0.1736 -0.0990
 2919DOPC   C3B34256  34.910  15.371  14.765  0.1074  0.0367 -0.2075
 2919DOPC   C4B34257  34.755  15.450  14.316 -0.0963 -0.0582  0.0826
 2920POSM   NC334258  26.355  16.218  16.111 -0.0282  0.0675  0.0299
 2920POSM   PO434259  26.549  16.442  15.945  0.0270 -0.2525  0.1597
 2920POSM   AM134260  26.584  16.686  15.690  0.1776 -0.0875 -0.0904
 2920POSM   AM234261  26.570  16.729  15.403 -0.3002 -0.1358 -0.0149
 2920POSM   T1A34262  26.850  17.055  15.527  0.2873 -0.1946 -0.1240
 2920POSM   C2A34263  27.125  17.240  15.205 -0.2632 -0.2223  0.1304
 2920POSM   C3A34264  27.431  17.626  15.220  0.3041  0.4447 -0.1632
 2920POSM   C1B34265  26.693  16.763  15.104 -0.0412  0.2125  0.0741
 2920POSM   D2B34266  26.811  16.650  14.653 -0.2085 -0.0633  0.0656
 2920POSM   C3B34267  26.777  16.841  14.301  0.3694 -0.1749  0.1861
 2920POSM   C4B34268  26.928  17.297  14.226  0.2621  0.0980  0.2896
 2921POSM   NC334269  25.008  21.408  15.481  0.3534 -0.0529  0.1422
 2921POSM   PO434270  25.393  21.599  15.421 -0.2305  0.1485  0.3908
 2921POSM   AM134271  25.426  21.661  15.102  0.0423 -0.1948 -0.1166
 2921POSM   AM234272  25.445  21.913  14.992 -0.0394 -0.0011  0.1725
 2921POSM   T1A34273  25.651  21.569  14.628 -0.0401  0.0002 -0.2622
 2921POSM   C2A34274  25.611  21.759  14.217 -0.2717 -0.2871  0.3203
 2921POSM   C3A34275  25.272  21.696  13.888 -0.5200 -0.1406 -0.3528
 2921POSM   C1B34276  25.281  21.927  14.684 -0.0296  0.0486  0.0047
 2921POSM   D2B34277  25.122  21.954  14.295  0.1850 -0.0033 -0.0028
 2921POSM   C3B34278  25.036  22.124  13.829  0.0078 -0.2965  0.0454
 2921POSM   C4B34279  24.788  21.859  13.600 -0.1172  0.1914  0.1676
 2922DOPE   NH334280  25.263  14.505  15.437  0.3250 -0.2218  0.0707
 2922DOPE   PO434281  25.296  14.206  15.358 -0.2306 -0.2620  0.0502
 2922DOPE   GL134282  25.578  14.325  15.157 -0.0577 -0.0705  0.0812
 2922DOPE   GL234283  25.679  14.609  15.139 -0.1756  0.1775 -0.0241
 2922DOPE   C1A34284  25.984  14.364  14.887 -0.1118 -0.2154  0.2513
 2922DOPE   D2A34285  26.097  14.360  14.443  0.2688  0.3398  0.1741
 2922DOPE   C3A34286  26.313  14.704  14.247 -0.1154  0.1619  0.0151
 2922DOPE   C4A34287  26.775  14.885  14.131  0.0119  0.1424  0.2377
 2922DOPE   C1B34288  25.797  14.957  14.866  0.1053 -0.0076 -0.0421
 2922DOPE   D2B34289  26.092  15.083  14.566  0.0264  0.0558  0.1769
 2922DOPE   C3B34290  26.039  15.114  14.105  0.0668  0.2035  0.3893
 2922DOPE   C4B34291  26.329  15.005  13.832 -0.2565  0.0330  0.4768
 2923DOPE   NH334292  24.497  15.984  15.617 -0.0541 -0.1950  0.2791
 2923DOPE   PO434293  24.570  15.677  15.682  0.1468 -0.1215  0.3156
 2923DOPE   GL134294  24.559  15.688  15.140 -0.0130  0.3922 -0.1270
 2923DOPE   GL234295  24.348  15.541  15.013  0.2179 -0.1861 -0.2107
 2923DOPE   C1A34296  24.937  15.787  14.898  0.0832 -0.0932  0.0028
 2923DOPE   D2A34297  25.275  15.681  14.616 -0.2006  0.0790  0.2432
 2923DOPE   C3A34298  25.227  15.658  14.148  0.3300  0.1068 -0.2274
 2923DOPE   C4A34299  25.327  15.925  13.768 -0.1996 -0.0057 -0.0541
 2923DOPE   C1B34300  24.690  15.320  14.806 -0.1259  0.1493  0.1295
 2923DOPE   D2B34301  24.860  15.382  14.430  0.2343 -0.1972 -0.0230
 2923DOPE   C3B34302  24.666  15.712  14.131 -0.3948  0.2813  0.1213
 2923DOPE   C4B34303  24.696  15.681  13.694 -0.0750 -0.0016 -0.0394
 2924DOPE   NH334304  28.854  23.448  16.689 -0.0928  0.2399  0.1820
 2924DOPE   PO434305  28.619  23.388  16.477  0.0101 -0.0326  0.1550
 2924DOPE   GL134306  28.522  23.339  16.111  0.1411  0.0460 -0.1224
 2924DOPE   GL234307  28.326  23.588  16.088 -0.0765  0.0742 -0.0815
 2924DOPE   C1A34308  28.588  23.366  15.672 -0.0880  0.4190  0.0343
 2924DOPE   D2A34309  28.568  23.364  15.217 -0.1416  0.1538  0.3104
 2924DOPE   C3A34310  28.901  23.556  14.958  0.3480 -0.1619  0.0393
 2924DOPE   C4A34311  28.902  23.697  14.545  0.1716  0.2391  0.1176
 2924DOPE   C1B34312  28.433  23.857  15.715  0.0913 -0.0937 -0.0637
 2924DOPE   D2B34313  28.306  23.792  15.193 -0.0676  0.0863 -0.0976
 2924DOPE   C3B34314  28.035  23.739  14.852 -0.0479  0.3047  0.0416
 2924DOPE   C4B34315  27.884  23.817  14.399 -0.1278 -0.0200 -0.2118
 2925DOPC   NC334316  23.804  12.586  15.302 -0.2633  0.0323  0.0621
 2925DOPC   PO434317  23.473  12.757  15.199  0.0509 -0.3782  0.1403
 2925DOPC   GL134318  23.411  12.547  14.915  0.0619 -0.0294 -0.0379
 2925DOPC   GL234319  23.537  12.243  14.978  0.2345  0.1729  0.0882
 2925DOPC   C1A34320  23.280  12.578  14.431  0.1809 -0.2909 -0.2493
 2925DOPC   D2A34321  23.250  12.472  14.002  0.0306  0.1988  0.0372
 2925DOPC   C3A34322  22.917  12.547  13.761  0.0400  0.0616  0.0823
 2925DOPC   C4A34323  22.503  12.748  13.787  0.3417 -0.2341 -0.0976
 2925DOPC   C1B34324  23.238  12.117  14.627  0.1077 -0.1453  0.1476
 2925DOPC   D2B34325  23.025  12.049  14.216  0.2718  0.0872  0.0816
 2925DOPC   C3B34326  23.048  11.562  14.242  0.2039  0.0688 -0.1293
 2925DOPC   C4B34327  22.777  11.152  14.211  0.1082  0.1555  0.3934
 2926DOPC   NC334328  23.859  17.320  14.796 -0.1306  0.0217  0.1128
 2926DOPC   PO434329  24.041  17.587  15.028 -0.4034  0.1245 -0.0601
 2926DOPC   GL134330  24.279  17.592  14.701  0.1218  0.1647 -0.4567
 2926DOPC   GL234331  24.075  17.701  14.498 -0.2370  0.1152  0.2473
 2926DOPC   C1A34332  24.273  17.213  14.528  0.0412  0.1201  0.0371
 2926DOPC   D2A34333  23.881  17.077  14.377 -0.0749 -0.2579 -0.3190
 2926DOPC   C3A34334  23.844  17.076  13.957 -0.2054 -0.1006 -0.2781
 2926DOPC   C4A34335  24.068  17.346  13.722  0.1315  0.2127  0.2677
 2926DOPC   C1B34336  24.093  17.790  14.008  0.0849  0.1614 -0.1354
 2926DOPC   D2B34337  24.355  17.759  13.611 -0.1456  0.0533  0.2653
 2926DOPC   C3B34338  24.436  18.015  13.197 -0.1272  0.4291  0.1537
 2926DOPC   C4B34339  24.361  17.966  12.721 -0.0667 -0.1083 -0.0155
 2927POSM   NC334340  28.083  13.237  16.914 -0.1682  0.2206 -0.2050
 2927POSM   PO434341  27.774  13.320  16.670 -0.0090 -0.0845  0.0342
 2927POSM   AM134342  27.889  13.248  16.401  0.4345 -0.1126 -0.0433
 2927POSM   AM234343  28.106  13.236  16.217  0.0152  0.1102  0.0076
 2927POSM   T1A34344  27.740  13.269  15.900  0.0959  0.0059 -0.0381
 2927POSM   C2A34345  27.849  13.449  15.495 -0.3865 -0.0874  0.2682
 2927POSM   C3A34346  28.261  13.643  15.295 -0.2378 -0.1099 -0.0536
 2927POSM   C1B34347  28.282  13.347  15.959  0.1266  0.0231  0.0620
 2927POSM   D2B34348  28.503  13.249  15.555 -0.1240 -0.1813  0.1899
 2927POSM   C3B34349  28.602  13.309  15.124 -0.2391  0.0200  0.1729
 2927POSM   C4B34350  28.325  13.490  14.839  0.0050  0.2189 -0.2685
 2928DOPC   NC334351  26.395  22.624  15.299 -0.2123  0.0824 -0.2049
 2928DOPC   PO434352  25.995  22.656  15.360  0.1704 -0.1727 -0.0241
 2928DOPC   GL134353  25.808  22.657  14.979 -0.0157  0.1966  0.2723
 2928DOPC   GL234354  26.116  22.551  14.849  0.1260 -0.1156 -0.1264
 2928DOPC   C1A34355  25.781  22.837  14.578 -0.0293  0.0668 -0.4221
 2928DOPC   D2A34356  25.815  23.227  14.320 -0.0914 -0.0498  0.1954
 2928DOPC   C3A34357  25.439  23.440  14.287 -0.0954  0.0551 -0.2812
 2928DOPC   C4A34358  25.113  23.663  14.142 -0.1628 -0.1348 -0.0830
 2928DOPC   C1B34359  26.262  22.383  14.423  0.1804  0.0140 -0.1576
 2928DOPC   D2B34360  26.287  22.488  13.952 -0.1412  0.2139 -0.1190
 2928DOPC   C3B34361  26.409  22.105  13.739 -0.0194  0.2082 -0.0066
 2928DOPC   C4B34362  26.288  21.636  13.737 -0.0985  0.1445  0.4938
 2929DOPE   NH334363  31.072  13.991  16.816 -0.2532  0.2042 -0.2059
 2929DOPE   PO434364  31.026  13.887  16.532 -0.0937 -0.2056 -0.0244
 2929DOPE   GL134365  30.779  13.740  16.259  0.1586  0.1109  0.0618
 2929DOPE   GL234366  30.850  13.979  16.062 -0.0839  0.2630  0.1327
 2929DOPE   C1A34367  30.924  13.516  15.892  0.0345 -0.1667  0.2795
 2929DOPE   D2A34368  31.245  13.187  15.852 -0.1480 -0.1431  0.1964
 2929DOPE   C3A34369  31.143  13.250  15.383 -0.0194 -0.1904 -0.3525
 2929DOPE   C4A34370  31.170  13.253  14.940 -0.1212  0.2138  0.1170
 2929DOPE   C1B34371  30.894  13.899  15.561 -0.1974  0.0085  0.3827
 2929DOPE   D2B34372  31.105  13.756  15.179 -0.1302  0.0817  0.2381
 2929DOPE   C3B34373  30.793  13.880  14.831  0.1639  0.1727 -0.1866
 2929DOPE   C4B34374  30.730  13.718  14.360  0.3451 -0.1740 -0.4534
 2930DOPC   NC334375  26.055  18.804  15.996 -0.2650 -0.2986 -0.0562
 2930DOPC   PO434376  26.269  18.868  15.646 -0.3497 -0.1781 -0.2626
 2930DOPC   GL134377  26.056  18.608  15.429 -0.0152 -0.0888 -0.1305
 2930DOPC   GL234378  25.859  18.805  15.243  0.0999 -0.1508 -0.2628
 2930DOPC   C1A34379  26.181  18.182  15.208 -0.2881  0.0643  0.0874
 2930DOPC   D2A34380  25.948  17.869  15.028 -0.2366 -0.1558  0.1547
 2930DOPC   C3A34381  25.696  17.952  14.647 -0.2740 -0.0072 -0.1495
 2930DOPC   C4A34382  25.468  18.173  14.284  0.0763 -0.1373  0.0548
 2930DOPC   C1B34383  26.234  18.911  14.984 -0.1219 -0.0292  0.1145
 2930DOPC   D2B34384  26.543  18.995  14.585 -0.1116  0.2596 -0.0369
 2930DOPC   C3B34385  26.902  18.999  14.322 -0.2134  0.3380  0.0539
 2930DOPC   C4B34386  27.259  18.971  14.037  0.1074  0.2270 -0.1309
 2931DOPE   NH334387  23.288  19.862  15.348  0.0428 -0.3366 -0.0664
 2931DOPE   PO434388  23.430  20.155  15.333 -0.3209 -0.1236 -0.0579
 2931DOPE   GL134389  23.579  20.139  14.986 -0.1367  0.2240 -0.1868
 2931DOPE   GL234390  23.433  20.464  14.954 -0.0273  0.2021 -0.3217
 2931DOPE   C1A34391  23.791  20.303  14.581 -0.2604  0.2746 -0.3325
 2931DOPE   D2A34392  23.824  20.396  14.160  0.0887  0.0943  0.4150
 2931DOPE   C3A34393  23.610  20.414  13.727 -0.0090 -0.0015 -0.0333
 2931DOPE   C4A34394  23.574  20.076  13.429 -0.0043  0.0733  0.0180
 2931DOPE   C1B34395  23.655  20.798  14.691 -0.1527  0.2207 -0.4409
 2931DOPE   D2B34396  24.000  20.924  14.407 -0.1600  0.1146 -0.0371
 2931DOPE   C3B34397  23.982  21.285  14.100 -0.0208  0.0332  0.1292
 2931DOPE   C4B34398  23.842  21.703  13.888 -0.3770 -0.2850 -0.2793
 2932DOPE   NH334399  32.923  12.944  16.015 -0.1356  0.0432 -0.1511
 2932DOPE   PO434400  32.757  12.677  16.072  0.4304  0.2620  0.1285
 2932DOPE   GL134401  32.586  12.558  15.780 -0.1782  0.0043  0.0065
 2932DOPE   GL234402  32.319  12.575  15.831 -0.1225 -0.0771  0.1947
 2932DOPE   C1A34403  32.524  12.866  15.402  0.0777 -0.1074  0.0064
 2932DOPE   D2A34404  32.339  12.885  14.906  0.2681  0.4323 -0.1693
 2932DOPE   C3A34405  32.516  13.218  14.565 -0.0797 -0.1533 -0.2449
 2932DOPE   C4A34406  32.782  13.435  14.190 -0.0946  0.6215 -0.0886
 2932DOPE   C1B34407  32.341  12.463  15.391 -0.0738  0.3381 -0.1398
 2932DOPE   D2B34408  32.312  12.186  15.084 -0.0783  0.1448  0.0337
 2932DOPE   C3B34409  32.744  11.996  14.886  0.0140 -0.0538 -0.2536
 2932DOPE   C4B34410  33.109  11.863  15.078  0.0653 -0.0471 -0.0147
 2933DOPC   NC334411  26.515  13.817  15.798  0.1306  0.0961  0.1290
 2933DOPC   PO434412  26.399  14.146  15.672  0.1404  0.1151 -0.0139
 2933DOPC   GL134413  26.455  14.328  15.302  0.1524  0.2284  0.2145
 2933DOPC   GL234414  26.186  14.474  15.291 -0.1904  0.1158 -0.0743
 2933DOPC   C1A34415  26.501  14.415  14.834 -0.2056  0.1528 -0.1085
 2933DOPC   D2A34416  26.703  14.465  14.425 -0.1375 -0.0002 -0.2611
 2933DOPC   C3A34417  26.592  14.420  14.018  0.3775 -0.0462 -0.1337
 2933DOPC   C4A34418  26.576  14.618  13.589  0.0447 -0.0455  0.2656
 2933DOPC   C1B34419  26.230  14.785  14.975 -0.0647 -0.2700  0.0205
 2933DOPC   D2B34420  26.568  15.016  14.731  0.1920  0.1863 -0.3378
 2933DOPC   C3B34421  26.917  15.271  14.882 -0.0187 -0.0617  0.0589
 2933DOPC   C4B34422  26.988  15.357  15.326 -0.0917  0.0338 -0.1996
 2934DOPC   NC334423  27.727  15.887  16.293  0.4796 -0.3010  0.2509
 2934DOPC   PO434424  27.800  16.117  15.949 -0.2496 -0.1267 -0.0320
 2934DOPC   GL134425  27.890  16.159  15.574  0.0280  0.3728 -0.1201
 2934DOPC   GL234426  28.091  15.910  15.454 -0.1911  0.0239 -0.3241
 2934DOPC   C1A34427  27.802  16.384  15.166  0.0026 -0.0559  0.0121
 2934DOPC   D2A34428  27.715  16.715  14.843  0.0412  0.3165 -0.2648
 2934DOPC   C3A34429  27.385  16.776  14.562 -0.0109 -0.1994  0.2269
 2934DOPC   C4A34430  27.308  16.757  14.092 -0.1187 -0.0383 -0.3214
 2934DOPC   C1B34431  27.708  15.836  15.147  0.2088  0.1025  0.0144
 2934DOPC   D2B34432  27.216  15.893  15.191  0.2418 -0.0386  0.4139
 2934DOPC   C3B34433  27.058  15.738  14.793 -0.1327 -0.1852 -0.2848
 2934DOPC   C4B34434  27.092  15.425  14.466 -0.0348  0.1656  0.0746
 2935DOPC   NC334435  34.090  20.561  16.024 -0.4526  0.1315 -0.1118
 2935DOPC   PO434436  34.070  20.966  16.027 -0.0614 -0.0335 -0.0712
 2935DOPC   GL134437  34.135  20.822  15.635  0.0595 -0.0756 -0.1282
 2935DOPC   GL234438  34.452  20.778  15.673  0.1057  0.1895  0.3889
 2935DOPC   C1A34439  34.070  20.583  15.263  0.0594  0.0394  0.1262
 2935DOPC   D2A34440  34.075  20.669  14.783  0.1359  0.0009  0.1774
 2935DOPC   C3A34441  33.984  20.221  14.603 -0.2254 -0.0055 -0.0802
 2935DOPC   C4A34442  33.776  19.917  14.355 -0.0334  0.0114  0.2497
 2935DOPC   C1B34443  34.457  20.880  15.208 -0.2868 -0.1758 -0.1578
 2935DOPC   D2B34444  34.413  21.075  14.805  0.0701  0.0506 -0.1374
 2935DOPC   C3B34445  34.090  20.988  14.430  0.0474  0.2435 -0.2281
 2935DOPC   C4B34446  33.985  20.595  14.225 -0.1426  0.3239  0.1991
 2936DOPC   NC334447  23.091  12.943  14.855  0.1864  0.0390  0.1249
 2936DOPC   PO434448  22.974  12.623  15.056  0.1861 -0.0116  0.3735
 2936DOPC   GL134449  22.752  12.558  14.813 -0.1355  0.1205  0.4782
 2936DOPC   GL234450  22.582  12.387  14.963 -0.1509  0.1389  0.4154
 2936DOPC   C1A34451  22.731  12.603  14.286 -0.0740 -0.0284 -0.1326
 2936DOPC   D2A34452  22.586  12.280  14.013 -0.0341 -0.0163 -0.1698
 2936DOPC   C3A34453  22.202  12.007  13.968 -0.1788  0.1475 -0.1140
 2936DOPC   C4A34454  21.725  12.080  13.956 -0.3104  0.0328 -0.0260
 2936DOPC   C1B34455  22.443  12.334  14.558  0.0023  0.2038 -0.0280
 2936DOPC   D2B34456  22.181  12.466  14.203 -0.1142 -0.0513 -0.0632
 2936DOPC   C3B34457  21.701  12.521  14.211 -0.1268 -0.2632  0.1725
 2936DOPC   C4B34458  21.249  12.492  14.296 -0.0289 -0.1005  0.1130
 2937DOPC   NC334459  28.902  14.496  16.287  0.1099 -0.2209 -0.1041
 2937DOPC   PO434460  28.837  14.867  16.475 -0.4462 -0.2008  0.1912
 2937DOPC   GL134461  28.891  14.945  16.077 -0.4264 -0.0178  0.0113
 2937DOPC   GL234462  29.202  14.875  16.131 -0.0516  0.0549  0.1757
 2937DOPC   C1A34463  29.058  15.345  15.873 -0.0328  0.1467 -0.2344
 2937DOPC   D2A34464  29.305  15.248  15.488 -0.1457  0.0263  0.2045
 2937DOPC   C3A34465  29.779  15.412  15.584  0.1598 -0.0178 -0.5068
 2937DOPC   C4A34466  30.187  15.540  15.732  0.0411 -0.0886 -0.0978
 2937DOPC   C1B34467  29.144  14.735  15.731  0.1189 -0.2152 -0.0087
 2937DOPC   D2B34468  28.832  14.604  15.432 -0.2507  0.1796  0.2266
 2937DOPC   C3B34469  28.693  14.645  14.971 -0.2145 -0.0995  0.1194
 2937DOPC   C4B34470  28.594  14.812  14.577 -0.0340 -0.1848  0.1018
 2938DOPE   NH334471  33.476  18.252  16.409 -0.2368 -0.2637  0.1154
 2938DOPE   PO434472  33.289  18.546  16.472  0.0351 -0.2455  0.0484
 2938DOPE   GL134473  33.420  18.739  16.138  0.2906  0.0377  0.5347
 2938DOPE   GL234474  33.233  18.775  15.888 -0.0274 -0.1330 -0.3344
 2938DOPE   C1A34475  33.614  18.537  15.752 -0.3094 -0.0024 -0.0165
 2938DOPE   D2A34476  33.996  18.520  15.409 -0.0588 -0.1327 -0.1685
 2938DOPE   C3A34477  34.112  18.831  15.111 -0.0413  0.0921 -0.0330
 2938DOPE   C4A34478  34.037  19.019  14.706 -0.0819 -0.1615  0.0597
 2938DOPE   C1B34479  32.905  18.854  15.586 -0.2933  0.1855 -0.0113
 2938DOPE   D2B34480  32.808  18.801  15.154 -0.1862  0.0130  0.0600
 2938DOPE   C3B34481  32.979  18.447  14.906  0.0335  0.0249 -0.0273
 2938DOPE   C4B34482  32.894  18.279  14.489 -0.2318 -0.0325  0.4013
 2939DOPE   NH334483  32.913  18.271  16.437  0.2385  0.1500  0.2211
 2939DOPE   PO434484  32.603  18.280  16.481  0.3074 -0.0117 -0.2769
 2939DOPE   GL134485  32.577  18.228  16.097  0.5566 -0.1158 -0.2296
 2939DOPE   GL234486  32.326  18.312  16.045 -0.1921 -0.2137  0.1101
 2939DOPE   C1A34487  32.634  17.964  15.703 -0.2239 -0.0478 -0.0398
 2939DOPE   D2A34488  32.605  17.908  15.240  0.0021  0.1262  0.0580
 2939DOPE   C3A34489  32.629  17.419  15.134  0.0246  0.2862 -0.1254
 2939DOPE   C4A34490  32.685  17.320  14.699 -0.0498 -0.0304  0.1277
 2939DOPE   C1B34491  32.433  18.402  15.613  0.2098  0.0183 -0.2968
 2939DOPE   D2B34492  32.427  18.422  15.109 -0.1045  0.1696  0.1945
 2939DOPE   C3B34493  32.281  18.064  14.899 -0.0496 -0.0950  0.1747
 2939DOPE   C4B34494  32.318  17.667  14.711  0.0685  0.1518 -0.0876
 2940POSM   NC334495  28.014  20.585  15.680  0.1564 -0.0119  0.1919
 2940POSM   PO434496  28.306  20.493  15.912  0.0586 -0.2026  0.0473
 2940POSM   AM134497  28.543  20.351  15.783 -0.0541 -0.0031  0.3058
 2940POSM   AM234498  28.793  20.479  15.699 -0.0413  0.0838 -0.1300
 2940POSM   T1A34499  28.753  20.119  15.373  0.1421 -0.1764 -0.1425
 2940POSM   C2A34500  29.177  20.110  15.162 -0.2451 -0.3579 -0.0272
 2940POSM   C3A34501  29.449  19.860  14.916 -0.0230 -0.0827  0.1279
 2940POSM   C1B34502  28.973  20.555  15.421 -0.0370  0.0433 -0.1123
 2940POSM   D2B34503  29.202  20.873  15.183 -0.0797 -0.3074  0.2063
 2940POSM   C3B34504  29.509  20.889  14.931 -0.3121 -0.1780  0.5110
 2940POSM   C4B34505  29.829  20.947  14.570 -0.0699  0.2103 -0.2615
 2941DOPC   NC334506  30.667  11.714  16.733 -0.1290  0.0860 -0.1402
 2941DOPC   PO434507  30.865  12.052  16.721 -0.1612 -0.3004  0.1800
 2941DOPC   GL134508  30.564  12.178  16.460 -0.0147 -0.1027 -0.0256
 2941DOPC   GL234509  30.440  11.906  16.272  0.2245  0.4989 -0.2030
 2941DOPC   C1A34510  30.504  12.298  15.988  0.0028 -0.2314 -0.2477
 2941DOPC   D2A34511  30.550  12.419  15.557  0.0970 -0.2429  0.1337
 2941DOPC   C3A34512  30.758  12.242  15.204  0.0943 -0.1883 -0.1175
 2941DOPC   C4A34513  30.481  11.922  15.067  0.1451  0.1356  0.2615
 2941DOPC   C1B34514  30.450  11.650  15.892 -0.2153  0.1919  0.0873
 2941DOPC   D2B34515  30.456  11.190  15.847  0.1320  0.1696 -0.1671
 2941DOPC   C3B34516  30.746  11.281  15.533 -0.2039 -0.0656 -0.2047
 2941DOPC   C4B34517  31.036  11.292  15.126 -0.1375 -0.0819  0.2393
 2942POSM   NC334518  26.888  13.151  16.267 -0.0954 -0.1598 -0.2385
 2942POSM   PO434519  26.639  13.362  16.019  0.2624 -0.2234 -0.1109
 2942POSM   AM134520  26.875  13.415  15.802 -0.3101 -0.1451 -0.1663
 2942POSM   AM234521  26.923  13.624  15.579  0.1494 -0.1308  0.0974
 2942POSM   T1A34522  27.071  13.202  15.348  0.0365  0.2722  0.2388
 2942POSM   C2A34523  27.250  13.250  14.903  0.1618  0.1845 -0.0620
 2942POSM   C3A34524  27.346  13.025  14.473 -0.1600  0.0204 -0.1633
 2942POSM   C1B34525  26.762  13.586  15.262  0.0337 -0.1161  0.0342
 2942POSM   D2B34526  26.708  13.561  14.805 -0.0487 -0.3109 -0.0609
 2942POSM   C3B34527  26.402  13.247  14.669  0.1344  0.4948 -0.1679
 2942POSM   C4B34528  26.464  12.775  14.640  0.2105  0.1404  0.0229
 2943POSM   NC334529  24.383  21.542  15.699  0.1658  0.1292 -0.2935
 2943POSM   PO434530  24.706  21.704  15.832 -0.0834 -0.1314 -0.2710
 2943POSM   AM134531  24.725  21.813  15.525  0.1187  0.1379 -0.1543
 2943POSM   AM234532  24.893  21.862  15.315  0.0449  0.2361  0.0249
 2943POSM   T1A34533  24.561  22.145  15.189 -0.2774  0.0779 -0.0254
 2943POSM   C2A34534  24.251  22.446  15.101  0.2128  0.1276 -0.0161
 2943POSM   C3A34535  23.962  22.772  14.865 -0.0715 -0.1191  0.0411
 2943POSM   C1B34536  24.802  21.767  14.985  0.1720  0.1569 -0.0428
 2943POSM   D2B34537  24.691  21.731  14.576 -0.1598  0.3188 -0.0616
 2943POSM   C3B34538  24.760  21.531  14.138 -0.0056  0.1951  0.0729
 2943POSM   C4B34539  24.925  21.267  13.765  0.1669  0.0712  0.0382
 2944DOPS   CNO34540  28.487  18.777  16.254 -0.1439  0.0589  0.0290
 2944DOPS   PO434541  28.724  19.117  16.243 -0.0926  0.0095  0.0307
 2944DOPS   GL134542  28.885  19.046  15.870  0.0219  0.3224 -0.1242
 2944DOPS   GL234543  28.878  18.736  15.934  0.0010 -0.0706  0.0338
 2944DOPS   C1A34544  28.832  19.234  15.476  0.3286  0.0996 -0.2408
 2944DOPS   D2A34545  28.840  19.069  15.086 -0.2191  0.1731 -0.0565
 2944DOPS   C3A34546  28.925  19.016  14.682  0.1513 -0.3371  0.3066
 2944DOPS   C4A34547  28.693  18.942  14.279 -0.0643  0.1592  0.1819
 2944DOPS   C1B34548  28.691  18.773  15.539 -0.2575  0.2855  0.2166
 2944DOPS   D2B34549  28.514  18.656  15.149 -0.0323 -0.1728  0.1656
 2944DOPS   C3B34550  28.606  18.609  14.690 -0.1126  0.0766  0.1262
 2944DOPS   C4B34551  28.664  18.428  14.265 -0.0319 -0.1284 -0.0385
 2945DOPC   NC334552  27.411  20.034  16.037 -0.0835 -0.0593  0.1568
 2945DOPC   PO434553  27.252  20.242  16.326 -0.0680  0.1035  0.0814
 2945DOPC   GL134554  27.065  20.410  16.062 -0.1163 -0.1758  0.3526
 2945DOPC   GL234555  27.255  20.595  15.865  0.1003  0.0526 -0.0637
 2945DOPC   C1A34556  26.748  20.554  15.752 -0.0272 -0.0633 -0.1198
 2945DOPC   D2A34557  26.405  20.723  15.513 -0.0765  0.0556  0.3643
 2945DOPC   C3A34558  26.313  20.974  15.079 -0.2899  0.2182  0.3005
 2945DOPC   C4A34559  26.148  20.897  14.703 -0.2715 -0.2507  0.3905
 2945DOPC   C1B34560  27.169  20.369  15.537 -0.0642  0.2940 -0.2930
 2945DOPC   D2B34561  26.832  20.093  15.334 -0.2142 -0.1098  0.0335
 2945DOPC   C3B34562  26.690  20.070  14.867 -0.0402 -0.0406 -0.0582
 2945DOPC   C4B34563  26.514  20.188  14.447  0.1929  0.1370 -0.0214
 2946DOPE   NH334564  26.647  19.116  15.815  0.1068  0.1850  0.1470
 2946DOPE   PO434565  26.881  19.333  15.844 -0.2640 -0.1412  0.1446
 2946DOPE   GL134566  26.884  19.289  15.408 -0.2952  0.0669  0.2282
 2946DOPE   GL234567  27.173  19.213  15.322 -0.2042 -0.3925 -0.0369
 2946DOPE   C1A34568  26.753  19.136  15.044 -0.0793 -0.0333 -0.0510
 2946DOPE   D2A34569  27.066  18.924  14.800 -0.0036  0.3892 -0.0667
 2946DOPE   C3A34570  27.415  19.237  14.784 -0.1362 -0.0809 -0.1358
 2946DOPE   C4A34571  27.850  19.281  14.736  0.0263 -0.0949  0.2773
 2946DOPE   C1B34572  27.572  19.414  15.193 -0.0642 -0.1426  0.1627
 2946DOPE   D2B34573  28.012  19.636  15.199  0.1730 -0.2559  0.0392
 2946DOPE   C3B34574  27.769  19.887  14.874  0.0491 -0.2123  0.0837
 2946DOPE   C4B34575  27.544  20.231  14.641 -0.0586 -0.0149  0.0812
 2947DOPE   NH334576  28.034  12.537  16.355  0.0771  0.1591  0.1816
 2947DOPE   PO434577  28.148  12.800  16.438 -0.0227  0.1911  0.0103
 2947DOPE   GL134578  28.143  12.840  15.988 -0.2326 -0.0371 -0.2433
 2947DOPE   GL234579  28.378  12.731  15.967 -0.0819  0.0192  0.0332
 2947DOPE   C1A34580  28.044  13.003  15.592 -0.0160 -0.2534 -0.2005
 2947DOPE   D2A34581  28.079  13.167  15.148  0.3128 -0.1934 -0.2015
 2947DOPE   C3A34582  27.763  13.506  14.932 -0.2290  0.2266 -0.1494
 2947DOPE   C4A34583  27.887  13.914  14.705 -0.2678  0.2230  0.0162
 2947DOPE   C1B34584  28.496  12.721  15.494 -0.0740 -0.1667 -0.0555
 2947DOPE   D2B34585  28.750  12.797  15.112 -0.2251 -0.1851  0.0726
 2947DOPE   C3B34586  28.507  12.967  14.701 -0.1253 -0.0869  0.0043
 2947DOPE   C4B34587  28.405  13.254  14.342  0.2127  0.1192 -0.0582
 2948DOPC   NC334588  29.933  15.108  17.152 -0.0082  0.1037 -0.0093
 2948DOPC   PO434589  29.770  15.130  16.813  0.2158 -0.1846 -0.0958
 2948DOPC   GL134590  29.772  15.207  16.406  0.1089 -0.0225 -0.2248
 2948DOPC   GL234591  29.498  15.350  16.327  0.2181  0.1317  0.2840
 2948DOPC   C1A34592  29.844  15.090  15.986  0.1016  0.2728  0.1929
 2948DOPC   D2A34593  29.640  14.803  15.663  0.0525 -0.0637  0.3765
 2948DOPC   C3A34594  29.676  14.987  15.190  0.0886 -0.0161 -0.0936
 2948DOPC   C4A34595  29.980  15.365  15.132  0.0365 -0.3352  0.1593
 2948DOPC   C1B34596  29.798  15.624  16.071 -0.1256  0.0365  0.4035
 2948DOPC   D2B34597  29.896  16.014  15.751 -0.0428 -0.0561  0.1918
 2948DOPC   C3B34598  30.080  15.976  15.349  0.1516 -0.0185  0.1758
 2948DOPC   C4B34599  30.059  15.973  14.930 -0.1210  0.0302  0.0504
 2949POSM   NC334600  31.253  20.868  16.271 -0.0879 -0.1698  0.1946
 2949POSM   PO434601  31.172  20.571  16.070 -0.1100  0.2017  0.0773
 2949POSM   AM134602  31.115  20.428  15.768  0.0700  0.0502  0.1704
 2949POSM   AM234603  31.297  20.339  15.559 -0.0254  0.0480 -0.1541
 2949POSM   T1A34604  30.739  20.447  15.477 -0.1731 -0.0495  0.2581
 2949POSM   C2A34605  30.596  20.554  15.069 -0.0335 -0.0234 -0.3182
 2949POSM   C3A34606  30.305  20.779  14.787  0.0113  0.0168  0.0660
 2949POSM   C1B34607  31.151  20.109  15.377  0.0381 -0.1686 -0.2140
 2949POSM   D2B34608  31.217  19.867  14.992  0.1024  0.1401  0.0709
 2949POSM   C3B34609  30.927  19.824  14.611 -0.2014  0.1246 -0.0258
 2949POSM   C4B34610  30.482  19.708  14.633 -0.2305 -0.3981 -0.2602
 2950POSM   NC334611  26.453  21.915  15.219  0.1847 -0.0051 -0.0551
 2950POSM   PO434612  26.133  22.197  15.253 -0.0584  0.1254 -0.1432
 2950POSM   AM134613  26.002  22.142  14.975 -0.3510 -0.0325 -0.1029
 2950POSM   AM234614  25.993  21.863  14.911  0.1052  0.1190  0.2077
 2950POSM   T1A34615  25.786  22.159  14.558 -0.0560  0.0644  0.0921
 2950POSM   C2A34616  25.702  22.468  14.257  0.1821  0.1371  0.0176
 2950POSM   C3A34617  25.898  22.793  14.047  0.0078 -0.0880 -0.0866
 2950POSM   C1B34618  26.216  21.923  14.687  0.0322 -0.1399  0.1729
 2950POSM   D2B34619  26.337  21.963  14.211  0.0112  0.2508  0.0350
 2950POSM   C3B34620  25.992  22.001  13.933  0.1868 -0.2599  0.0592
 2950POSM   C4B34621  25.833  21.922  13.534  0.1288  0.2585 -0.0348
 2951DOPC   NC334622  31.235  21.716  15.822  0.4951 -0.0800 -0.0177
 2951DOPC   PO434623  31.620  21.722  15.847  0.1605 -0.0001  0.2048
 2951DOPC   GL134624  31.696  21.595  15.501  0.2315  0.1377 -0.0879
 2951DOPC   GL234625  31.602  21.854  15.318  0.2876  0.0420  0.2051
 2951DOPC   C1A34626  31.997  21.323  15.205 -0.0712 -0.0012 -0.0966
 2951DOPC   D2A34627  32.068  21.354  14.763  0.1647 -0.1862 -0.0225
 2951DOPC   C3A34628  31.691  21.291  14.617  0.0323  0.2231  0.3365
 2951DOPC   C4A34629  31.253  21.265  14.600  0.0908  0.0721 -0.1939
 2951DOPC   C1B34630  31.475  22.224  15.093  0.0556 -0.1768  0.2173
 2951DOPC   D2B34631  31.572  22.610  14.835  0.1071  0.0152 -0.1632
 2951DOPC   C3B34632  31.259  22.584  14.495  0.4041  0.0210  0.0810
 2951DOPC   C4B34633  30.843  22.456  14.364  0.1332 -0.0296 -0.0959
 2952DOPS   CNO34634  28.095  18.318  16.913  0.0216  0.2317 -0.1160
 2952DOPS   PO434635  28.230  18.404  16.525 -0.2517  0.1673 -0.2500
 2952DOPS   GL134636  28.109  18.419  16.013  0.1868 -0.0035  0.0503
 2952DOPS   GL234637  28.170  18.172  15.922  0.1915 -0.2604 -0.5263
 2952DOPS   C1A34638  28.207  18.700  15.655 -0.2633  0.0950 -0.1068
 2952DOPS   D2A34639  28.274  19.057  15.397  0.4715  0.1586 -0.2370
 2952DOPS   C3A34640  28.317  19.005  14.864  0.0058 -0.0289  0.0729
 2952DOPS   C4A34641  28.347  19.244  14.427  0.0947  0.3672  0.2998
 2952DOPS   C1B34642  28.084  18.230  15.457  0.1446 -0.1449 -0.0354
 2952DOPS   D2B34643  27.728  18.353  15.179  0.1903 -0.3033 -0.0442
 2952DOPS   C3B34644  27.568  18.209  14.750 -0.0334 -0.0860 -0.0831
 2952DOPS   C4B34645  27.483  18.310  14.300  0.1459 -0.2032  0.3109
 2953DOPE   NH334646  34.041  17.142  16.129 -0.0514 -0.1839 -0.2873
 2953DOPE   PO434647  33.857  16.920  16.265 -0.1544 -0.0489 -0.1182
 2953DOPE   GL134648  33.687  16.717  15.930  0.2896  0.0282  0.4420
 2953DOPE   GL234649  33.479  16.873  15.974 -0.0456  0.0184  0.1933
 2953DOPE   C1A34650  33.448  16.810  15.502 -0.0631  0.1063  0.2560
 2953DOPE   D2A34651  32.984  16.859  15.373  0.2341 -0.1954  0.3776
 2953DOPE   C3A34652  33.010  16.766  14.937 -0.1272  0.0151 -0.3982
 2953DOPE   C4A34653  32.941  16.469  14.623 -0.3017 -0.1152  0.0538
 2953DOPE   C1B34654  33.050  16.979  15.831  0.0743  0.0572  0.3052
 2953DOPE   D2B34655  32.632  17.164  15.598  0.0425  0.0040  0.0887
 2953DOPE   C3B34656  32.432  16.988  15.197  0.2389 -0.1932  0.1637
 2953DOPE   C4B34657  32.308  16.893  14.709 -0.0052  0.3443  0.2110
 2954DOPS   CNO34658  28.774  21.274  16.211  0.3267 -0.1227 -0.0635
 2954DOPS   PO434659  28.466  21.189  16.362  0.1489  0.1948  0.0320
 2954DOPS   GL134660  28.479  21.175  15.870  0.1536 -0.0009 -0.1715
 2954DOPS   GL234661  28.410  20.927  15.676 -0.0062  0.1795 -0.2189
 2954DOPS   C1A34662  28.398  21.375  15.458  0.0454  0.0200  0.0707
 2954DOPS   D2A34663  28.552  21.489  15.077  0.2913 -0.0027  0.1477
 2954DOPS   C3A34664  28.122  21.414  14.860  0.2108  0.0898 -0.0490
 2954DOPS   C4A34665  28.019  21.447  14.432  0.0211 -0.2851  0.0911
 2954DOPS   C1B34666  28.457  20.608  15.316  0.1341  0.3036  0.0579
 2954DOPS   D2B34667  28.708  20.509  14.994  0.0024 -0.0188 -0.1144
 2954DOPS   C3B34668  29.108  20.597  14.751 -0.1241  0.1709  0.0160
 2954DOPS   C4B34669  29.424  20.606  14.366 -0.3777 -0.2888 -0.0054
 2955DOPS   CNO34670  24.874  13.126  15.920  0.0769  0.2388  0.2793
 2955DOPS   PO434671  24.993  13.121  15.548 -0.1572 -0.1328  0.1272
 2955DOPS   GL134672  24.836  13.123  15.199 -0.1552 -0.2897  0.0398
 2955DOPS   GL234673  25.130  13.150  15.031 -0.1451 -0.2464 -0.0645
 2955DOPS   C1A34674  24.859  12.769  14.879  0.0649  0.0579  0.4362
 2955DOPS   D2A34675  25.090  12.510  14.541  0.1243 -0.1076 -0.0797
 2955DOPS   C3A34676  25.165  12.751  14.127 -0.0375  0.2549 -0.0329
 2955DOPS   C4A34677  24.861  13.077  13.950  0.2901 -0.3866 -0.4251
 2955DOPS   C1B34678  25.369  12.759  14.871  0.1923 -0.0095  0.0868
 2955DOPS   D2B34679  25.577  12.413  14.646  0.2941 -0.4409 -0.1331
 2955DOPS   C3B34680  25.731  12.586  14.270 -0.4740 -0.0795  0.0648
 2955DOPS   C4B34681  26.076  12.692  13.938  0.0318  0.2424  0.0614
 2956POSM   NC334682  25.051  18.467  15.426 -0.2469 -0.0771 -0.0007
 2956POSM   PO434683  25.360  18.708  15.394  0.0117  0.1927  0.1853
 2956POSM   AM134684  25.376  18.948  15.156 -0.1848 -0.3005  0.3348
 2956POSM   AM234685  25.181  19.003  14.930 -0.0296  0.0065  0.1739
 2956POSM   T1A34686  25.619  19.281  14.879  0.0678  0.2104 -0.2773
 2956POSM   C2A34687  25.739  19.660  14.643 -0.4022 -0.0225 -0.2821
 2956POSM   C3A34688  25.530  19.957  14.379 -0.0674  0.0035 -0.1048
 2956POSM   C1B34689  25.277  19.110  14.611 -0.2383 -0.0525 -0.0242
 2956POSM   D2B34690  25.576  19.034  14.230  0.1508  0.0980 -0.2344
 2956POSM   C3B34691  25.837  19.309  14.039  0.2420 -0.1008 -0.3051
 2956POSM   C4B34692  25.897  19.731  14.177  0.0277  0.1481  0.0807
 2957POSM   NC334693  31.843  17.514  16.729  0.0826 -0.0274  0.1798
 2957POSM   PO434694  31.681  17.855  16.602 -0.1229 -0.1105  0.2577
 2957POSM   AM134695  31.780  17.734  16.311  0.5287 -0.0724 -0.1288
 2957POSM   AM234696  32.007  17.575  16.297  0.2251 -0.4358  0.2266
 2957POSM   T1A34697  31.664  17.731  15.818  0.1955  0.2697 -0.1335
 2957POSM   C2A34698  31.586  17.661  15.316 -0.1397 -0.0972 -0.3411
 2957POSM   C3A34699  31.142  17.573  15.214  0.3908  0.0549  0.2273
 2957POSM   C1B34700  32.119  17.564  15.981 -0.0270  0.2501  0.0941
 2957POSM   D2B34701  32.315  17.531  15.564 -0.1311  0.0541  0.0189
 2957POSM   C3B34702  32.058  17.512  15.182  0.2135 -0.3085  0.1277
 2957POSM   C4B34703  31.981  17.122  14.977  0.4770 -0.0930  0.3886
 2958DOPC   NC334704  25.433  13.364  15.792 -0.2055  0.0245 -0.0119
 2958DOPC   PO434705  25.806  13.317  15.712 -0.1316 -0.2097 -0.4210
 2958DOPC   GL134706  25.893  13.367  15.320  0.5366 -0.5421  0.1589
 2958DOPC   GL234707  26.051  13.171  15.225  0.1943  0.1119 -0.0445
 2958DOPC   C1A34708  25.815  13.581  14.924  0.0438  0.2120  0.0616
 2958DOPC   D2A34709  25.565  13.530  14.545  0.2538 -0.0936 -0.1583
 2958DOPC   C3A34710  25.630  13.788  14.162  0.2802  0.1661 -0.2735
 2958DOPC   C4A34711  25.802  14.206  14.119  0.1389 -0.1267  0.1257
 2958DOPC   C1B34712  26.264  13.562  15.161  0.2247  0.1323 -0.0124
 2958DOPC   D2B34713  26.305  13.951  14.907  0.2033  0.0163 -0.0159
 2958DOPC   C3B34714  26.453  13.987  14.472 -0.0032 -0.2059  0.0451
 2958DOPC   C4B34715  26.348  14.021  14.055  0.1511 -0.1363  0.2795
 2959POSM   NC334716  28.155  22.909  16.590  0.2058  0.0660  0.2851
 2959POSM   PO434717  28.289  22.979  16.199 -0.0658  0.0199 -0.1034
 2959POSM   AM134718  28.297  22.804  15.901 -0.2430  0.2080  0.3312
 2959POSM   AM234719  28.252  22.549  15.829  0.0034  0.0038  0.1091
 2959POSM   T1A34720  28.312  22.918  15.425 -0.2538 -0.2156  0.0835
 2959POSM   C2A34721  28.496  22.884  14.990 -0.3155  0.0836 -0.3866
 2959POSM   C3A34722  28.827  22.742  14.643  0.2078 -0.3908 -0.1085
 2959POSM   C1B34723  28.523  22.435  15.761 -0.1176  0.2993 -0.1366
 2959POSM   D2B34724  28.898  22.415  15.535 -0.0755  0.2078  0.0320
 2959POSM   C3B34725  28.880  22.535  15.094  0.0302  0.1732  0.1747
 2959POSM   C4B34726  29.075  22.264  14.771 -0.0944  0.1128 -0.0483
 2960DOPC   NC334727  30.825  18.748  16.476  0.1200 -0.1520 -0.0336
 2960DOPC   PO434728  30.486  18.584  16.386  0.0631 -0.2352  0.0868
 2960DOPC   GL134729  30.236  18.376  16.075 -0.1746 -0.0208 -0.2311
 2960DOPC   GL234730  30.373  18.524  15.868 -0.3090  0.0178  0.0824
 2960DOPC   C1A34731  30.065  18.089  15.737 -0.1561  0.2083 -0.0465
 2960DOPC   D2A34732  29.806  17.885  15.411  0.1778 -0.0415  0.2336
 2960DOPC   C3A34733  29.777  17.493  15.184 -0.1478  0.1885 -0.1128
 2960DOPC   C4A34734  29.810  17.062  15.113  0.1140  0.1586  0.3517
 2960DOPC   C1B34735  30.643  18.631  15.527 -0.1034  0.2202  0.1858
 2960DOPC   D2B34736  30.709  18.652  15.100  0.2423  0.2109 -0.1234
 2960DOPC   C3B34737  30.509  18.381  14.787  0.1908 -0.0989 -0.4282
 2960DOPC   C4B34738  30.551  17.952  14.600  0.0942 -0.0999  0.6427
 2961POSM   NC334739  30.697  17.241  17.470 -0.3055 -0.0800  0.1945
 2961POSM   PO434740  30.317  17.188  17.323 -0.0455 -0.0702  0.0686
 2961POSM   AM134741  30.286  17.317  17.028  0.1300  0.1366  0.0499
 2961POSM   AM234742  30.129  17.209  16.806  0.2231 -0.1293  0.0523
 2961POSM   T1A34743  30.486  17.593  16.644  0.4476  0.1969  0.0622
 2961POSM   C2A34744  30.766  17.768  16.348  0.3282  0.1959 -0.0103
 2961POSM   C3A34745  30.669  17.631  15.898 -0.2775 -0.1042 -0.0849
 2961POSM   C1B34746  30.035  17.253  16.514  0.1058  0.0472  0.0686
 2961POSM   D2B34747  30.091  17.465  16.095 -0.2181 -0.0451 -0.0765
 2961POSM   C3B34748  30.287  17.875  16.138  0.2698 -0.0160 -0.2838
 2961POSM   C4B34749  30.576  18.123  15.802 -0.1678  0.0452  0.2211
 2962POSM   NC334750  30.793  13.327  16.595 -0.0737 -0.1748 -0.2828
 2962POSM   PO434751  31.010  13.037  16.642 -0.0313  0.2307  0.0906
 2962POSM   AM134752  31.053  12.900  16.318 -0.0054 -0.0184 -0.2207
 2962POSM   AM234753  30.814  12.770  16.128  0.1498 -0.0039 -0.1028
 2962POSM   T1A34754  31.267  12.646  15.939  0.2638 -0.3025  0.0831
 2962POSM   C2A34755  31.422  12.769  15.518  0.1452 -0.1026 -0.0362
 2962POSM   C3A34756  31.481  12.897  15.079 -0.0722  0.0566 -0.0924
 2962POSM   C1B34757  30.861  12.873  15.801 -0.1977 -0.1271  0.1738
 2962POSM   D2B34758  30.924  12.811  15.323 -0.2837  0.0988  0.0447
 2962POSM   C3B34759  30.884  12.584  14.904 -0.0632  0.1519  0.0797
 2962POSM   C4B34760  30.862  12.196  14.557  0.0292  0.0770 -0.1280
 2963DOPC   NC334761  24.679  14.352  15.253 -0.2913 -0.0616 -0.1814
 2963DOPC   PO434762  24.862  14.703  15.074 -0.0903  0.3353  0.2013
 2963DOPC   GL134763  24.998  14.809  14.756 -0.1033  0.0714  0.2118
 2963DOPC   GL234764  24.908  14.630  14.527  0.0638  0.1274 -0.1979
 2963DOPC   C1A34765  25.351  15.132  14.610  0.1464  0.0068 -0.1672
 2963DOPC   D2A34766  25.676  15.408  14.581 -0.2710  0.2140  0.1985
 2963DOPC   C3A34767  25.713  15.574  14.177 -0.1108 -0.0377 -0.2924
 2963DOPC   C4A34768  25.742  15.698  13.699 -0.1265 -0.0912 -0.2409
 2963DOPC   C1B34769  25.114  14.969  14.255  0.3360  0.2064  0.0512
 2963DOPC   D2B34770  25.446  15.141  14.004  0.1625  0.0289  0.0502
 2963DOPC   C3B34771  25.201  14.923  13.672  0.0526 -0.0052  0.1839
 2963DOPC   C4B34772  25.159  14.523  13.367 -0.1554  0.2954 -0.0062
 2964DOPE   NH334773  25.521  13.742  15.491  0.2230  0.1437  0.0641
 2964DOPE   PO434774  25.328  13.580  15.345  0.0265 -0.1508  0.0387
 2964DOPE   GL134775  25.353  13.727  14.954 -0.0665  0.0954  0.4701
 2964DOPE   GL234776  25.122  13.634  14.752 -0.0585 -0.1840 -0.3491
 2964DOPE   C1A34777  25.666  13.973  14.712 -0.2068  0.1409  0.1374
 2964DOPE   D2A34778  26.012  13.831  14.430  0.2041 -0.2412 -0.0170
 2964DOPE   C3A34779  26.111  13.460  14.157 -0.2277 -0.1573  0.1907
 2964DOPE   C4A34780  26.266  13.161  13.812 -0.0498  0.0373 -0.0669
 2964DOPE   C1B34781  25.248  13.970  14.468 -0.1792 -0.0183 -0.1433
 2964DOPE   D2B34782  25.277  14.364  14.218  0.2397  0.1260  0.1050
 2964DOPE   C3B34783  25.386  14.272  13.741  0.2087  0.4472  0.0006
 2964DOPE   C4B34784  25.758  14.225  13.457  0.3500  0.1413  0.2026
 2965DOPC   NC334785  23.771  16.595  15.342  0.0169 -0.2703  0.1686
 2965DOPC   PO434786  23.650  16.274  15.130 -0.2243  0.3499  0.0524
 2965DOPC   GL134787  23.715  16.053  14.812 -0.1983 -0.2918 -0.0897
 2965DOPC   GL234788  23.956  15.945  14.793 -0.1092 -0.0036 -0.1020
 2965DOPC   C1A34789  23.734  16.047  14.324 -0.0292 -0.2979  0.0859
 2965DOPC   D2A34790  23.984  16.125  13.952 -0.2909  0.3326  0.0228
 2965DOPC   C3A34791  24.197  15.759  13.691  0.2390  0.1899  0.1044
 2965DOPC   C4A34792  24.069  15.281  13.614 -0.1683  0.3034 -0.2563
 2965DOPC   C1B34793  24.398  15.992  14.829  0.0317 -0.3541  0.1024
 2965DOPC   D2B34794  24.703  15.934  14.520 -0.1235  0.0168 -0.2420
 2965DOPC   C3B34795  25.061  16.213  14.527  0.1936 -0.0022 -0.1501
 2965DOPC   C4B34796  25.287  16.283  14.149 -0.3036 -0.1848  0.0594
 2966POSM   NC334797  33.478  19.575  16.094  0.0909  0.1987 -0.1430
 2966POSM   PO434798  33.214  19.598  16.349 -0.0499 -0.2784  0.1674
 2966POSM   AM134799  32.997  19.436  16.143 -0.1071  0.2338  0.1903
 2966POSM   AM234800  32.834  19.256  15.978 -0.0359 -0.0525  0.0665
 2966POSM   T1A34801  33.247  19.240  15.744 -0.1392 -0.2469 -0.2225
 2966POSM   C2A34802  33.603  19.348  15.534  0.0096  0.3624  0.0225
 2966POSM   C3A34803  33.915  19.508  15.194 -0.0138  0.1303 -0.3783
 2966POSM   C1B34804  32.592  19.369  15.772  0.1181 -0.0740 -0.2109
 2966POSM   D2B34805  32.389  19.395  15.370  0.1257  0.1584 -0.1995
 2966POSM   C3B34806  32.681  19.246  15.017 -0.1620  0.1570  0.0527
 2966POSM   C4B34807  33.014  19.016  14.788  0.0768 -0.1634 -0.1428
 2967POSM   NC334808  24.080  20.753  15.862  0.1378 -0.5179  0.2045
 2967POSM   PO434809  24.233  21.102  15.732  0.1360 -0.4927 -0.0792
 2967POSM   AM134810  24.265  21.154  15.396  0.1294 -0.2973 -0.1415
 2967POSM   AM234811  24.493  21.256  15.285 -0.2066  0.0369  0.0993
 2967POSM   T1A34812  24.200  21.206  14.876 -0.1121 -0.1189 -0.0121
 2967POSM   C2A34813  24.328  21.375  14.483 -0.3200 -0.2127 -0.0471
 2967POSM   C3A34814  24.352  21.738  14.218  0.2393  0.0915  0.0454
 2967POSM   C1B34815  24.676  21.258  14.999 -0.0184  0.2874  0.0541
 2967POSM   D2B34816  24.853  21.131  14.564 -0.2035  0.0219 -0.2356
 2967POSM   C3B34817  24.794  20.908  14.201 -0.0830 -0.1838  0.0569
 2967POSM   C4B34818  25.072  20.698  13.921  0.3082  0.1612  0.0411
 2968POSM   NC334819  26.470  17.155  15.804 -0.3014  0.0601  0.0442
 2968POSM   PO434820  26.172  16.946  15.686 -0.0220 -0.0077  0.1228
 2968POSM   AM134821  26.253  17.101  15.411  0.0545  0.2757  0.3305
 2968POSM   AM234822  26.132  17.304  15.239  0.1692 -0.0925 -0.1468
 2968POSM   T1A34823  26.608  17.265  15.089 -0.0097  0.4224 -0.0099
 2968POSM   C2A34824  26.909  17.525  14.844  0.1279  0.1046 -0.0905
 2968POSM   C3A34825  27.211  17.858  14.863 -0.0206  0.2877  0.1909
 2968POSM   C1B34826  26.041  17.387  14.920 -0.1282 -0.2378 -0.0875
 2968POSM   D2B34827  25.932  17.429  14.516 -0.0538  0.0645  0.1389
 2968POSM   C3B34828  25.611  17.629  14.261  0.0762 -0.0054 -0.3312
 2968POSM   C4B34829  25.470  17.754  13.919  0.0297 -0.2283  0.3621
 2969POSM   NC334830  25.825  22.520  15.833  0.0775 -0.1535  0.0066
 2969POSM   PO434831  26.041  22.883  15.805 -0.0729 -0.4600  0.1702
 2969POSM   AM134832  26.223  23.035  15.568  0.2125 -0.0366 -0.2013
 2969POSM   AM234833  26.508  23.052  15.510  0.0479  0.1560  0.0047
 2969POSM   T1A34834  26.228  23.307  15.176 -0.0821 -0.1763  0.1231
 2969POSM   C2A34835  26.112  23.155  14.793  0.1679  0.0096  0.0502
 2969POSM   C3A34836  26.262  22.961  14.348  0.1287 -0.4082  0.1002
 2969POSM   C1B34837  26.754  22.989  15.238  0.2619  0.2815 -0.1313
 2969POSM   D2B34838  27.066  22.692  14.966 -0.0847 -0.0858 -0.0350
 2969POSM   C3B34839  27.088  22.768  14.471  0.0936  0.2594  0.0225
 2969POSM   C4B34840  26.632  22.735  14.236 -0.1806  0.1240  0.3860
 2970DOPC   NC334841   0.358  18.852  16.528  0.1696 -0.3176  0.2981
 2970DOPC   PO434842   0.138  19.132  16.312  0.0810 -0.2327  0.1332
 2970DOPC   GL134843   0.157  19.059  15.910 -0.6004 -0.3442  0.5825
 2970DOPC   GL234844   0.163  18.815  15.796 -0.0515 -0.0660 -0.0075
 2970DOPC   C1A34845   0.020  19.375  15.611  0.1091 -0.0704  0.0552
 2970DOPC   D2A34846  -0.283  19.618  15.331 -0.0778  0.0158 -0.0685
 2970DOPC   C3A34847  -0.307  19.379  14.955 -0.1240 -0.0145 -0.1288
 2970DOPC   C4A34848  -0.157  19.221  14.557 -0.0958  0.0807  0.2918
 2970DOPC   C1B34849   0.217  18.969  15.380  0.0415  0.0033  0.0429
 2970DOPC   D2B34850   0.223  19.329  15.098 -0.1543 -0.2467  0.2602
 2970DOPC   C3B34851   0.338  19.241  14.622  0.1441  0.1334 -0.1125
 2970DOPC   C4B34852   0.253  18.979  14.250 -0.1496  0.0883  0.0132
 2971POSM   NC334853  34.166  19.023  16.365  0.0569 -0.3520  0.0576
 2971POSM   PO434854  34.065  19.420  16.414  0.4442  0.0524  0.1126
 2971POSM   AM134855  33.993  19.477  16.095 -0.1405 -0.1084 -0.2067
 2971POSM   AM234856  33.896  19.633  15.868 -0.0941 -0.0860  0.0252
 2971POSM   T1A34857  34.095  19.288  15.646  0.0342 -0.0767  0.2115
 2971POSM   C2A34858  34.369  19.119  15.357  0.1905 -0.0425  0.0144
 2971POSM   C3A34859  34.578  18.884  14.998  0.3894 -0.1708  0.0229
 2971POSM   C1B34860  34.006  19.772  15.606 -0.1570  0.1201  0.2132
 2971POSM   D2B34861  34.253  20.030  15.221 -0.2067 -0.2333  0.1455
 2971POSM   C3B34862  34.222  19.830  14.778 -0.3501  0.0181 -0.1860
 2971POSM   C4B34863  34.098  19.507  14.480 -0.2438  0.1325  0.2609
 2972DOPS   CNO34864  28.838  17.967  17.039 -0.1046  0.4582  0.1067
 2972DOPS   PO434865  29.085  17.951  16.692  0.0758  0.1703 -0.0385
 2972DOPS   GL134866  29.066  18.230  16.399 -0.0631 -0.2224 -0.5099
 2972DOPS   GL234867  28.762  18.334  16.456 -0.2154 -0.4627  0.1684
 2972DOPS   C1A34868  29.068  18.019  15.992  0.0515 -0.0420 -0.1242
 2972DOPS   D2A34869  28.957  18.003  15.587  0.1132 -0.0191  0.0245
 2972DOPS   C3A34870  29.151  18.353  15.425  0.0093  0.2008 -0.4235
 2972DOPS   C4A34871  29.023  18.507  14.974  0.0387 -0.0507  0.1169
 2972DOPS   C1B34872  28.634  18.307  16.044 -0.2082 -0.4157  0.1367
 2972DOPS   D2B34873  28.569  18.313  15.576  0.2145 -0.0801 -0.1405
 2972DOPS   C3B34874  28.586  18.125  15.161 -0.0683  0.1269  0.0750
 2972DOPS   C4B34875  28.506  17.745  14.800 -0.0963 -0.1394 -0.2333
 2973DOPS   CNO34876  24.059  18.110  14.874  0.1862 -0.3539 -0.1144
 2973DOPS   PO434877  24.215  18.454  14.923 -0.1670  0.2071  0.1278
 2973DOPS   GL134878  24.214  18.743  14.690  0.0372  0.1335 -0.1152
 2973DOPS   GL234879  24.105  18.996  14.735  0.0031 -0.1607 -0.0963
 2973DOPS   C1A34880  24.284  18.717  14.231  0.0711  0.3278  0.2852
 2973DOPS   D2A34881  24.520  18.681  13.882 -0.3230  0.0237  0.1361
 2973DOPS   C3A34882  24.958  18.587  13.838  0.0263 -0.2225 -0.2405
 2973DOPS   C4A34883  25.166  18.155  13.881  0.0313 -0.1664  0.0100
 2973DOPS   C1B34884  23.852  18.929  14.382 -0.1222  0.0681 -0.1170
 2973DOPS   D2B34885  23.684  18.576  14.147  0.1147 -0.1338  0.3848
 2973DOPS   C3B34886  23.280  18.580  13.963  0.0637  0.3153 -0.3934
 2973DOPS   C4B34887  22.955  18.704  13.679  0.0590  0.0383 -0.2015
 2974DOPS   CNO34888  29.010  19.941  16.464  0.2421  0.0176  0.0375
 2974DOPS   PO434889  29.073  20.269  16.586  0.1192 -0.0970 -0.3599
 2974DOPS   GL134890  29.260  20.322  16.183  0.0093  0.1047  0.3487
 2974DOPS   GL234891  29.578  20.258  16.300  0.1113 -0.0239  0.2848
 2974DOPS   C1A34892  29.177  20.036  15.762 -0.0847 -0.1276  0.0875
 2974DOPS   D2A34893  29.097  19.660  15.531 -0.0828 -0.0569 -0.0408
 2974DOPS   C3A34894  29.141  19.519  15.105 -0.2058  0.1751  0.3461
 2974DOPS   C4A34895  29.458  19.317  14.801  0.0142  0.1222  0.0075
 2974DOPS   C1B34896  29.495  19.862  16.166  0.0194 -0.2620 -0.0553
 2974DOPS   D2B34897  29.545  19.399  16.001  0.1274 -0.1035  0.1564
 2974DOPS   C3B34898  29.300  19.160  15.691  0.1188 -0.1295  0.0529
 2974DOPS   C4B34899  29.276  18.829  15.320 -0.1794  0.1715  0.1275
 2975POSM   NC334900  31.631  14.607  16.478  0.1110  0.2133 -0.0002
 2975POSM   PO434901  31.580  14.996  16.477  0.0697 -0.0775  0.1728
 2975POSM   AM134902  31.306  15.011  16.322  0.1682  0.0204 -0.1287
 2975POSM   AM234903  31.042  14.900  16.347  0.0656 -0.2579  0.0938
 2975POSM   T1A34904  31.123  15.315  16.014 -0.0162 -0.0321  0.0060
 2975POSM   C2A34905  30.691  15.409  15.978  0.1071  0.3436  0.0786
 2975POSM   C3A34906  30.251  15.442  16.246 -0.2744  0.0441  0.0636
 2975POSM   C1B34907  30.993  14.820  15.991 -0.2102 -0.0871  0.3114
 2975POSM   D2B34908  31.149  14.909  15.574 -0.0939 -0.0979  0.0691
 2975POSM   C3B34909  31.159  14.713  15.145  0.2325  0.0409 -0.1052
 2975POSM   C4B34910  31.203  14.969  14.717  0.1136  0.0997 -0.2112
 2976DOPE   NH334911  31.828  23.592  15.850  0.0088 -0.1480 -0.0438
 2976DOPE   PO434912  31.753  23.387  16.030  0.0009 -0.0378  0.2741
 2976DOPE   GL134913  31.530  23.083  15.845  0.4361  0.1405 -0.0555
 2976DOPE   GL234914  31.706  22.946  15.714  0.2777 -0.0846 -0.0906
 2976DOPE   C1A34915  31.201  23.075  15.515 -0.0006  0.1179 -0.1316
 2976DOPE   D2A34916  31.118  22.993  15.080  0.1900 -0.2272  0.1156
 2976DOPE   C3A34917  30.684  22.820  14.873  0.2268  0.0160 -0.1719
 2976DOPE   C4A34918  30.441  22.779  14.434 -0.0189 -0.0622 -0.2926
 2976DOPE   C1B34919  31.335  22.648  15.669 -0.0101 -0.0246  0.1038
 2976DOPE   D2B34920  31.112  22.252  15.518  0.1834 -0.0340 -0.1411
 2976DOPE   C3B34921  30.829  22.082  15.197  0.1812  0.2717  0.2286
 2976DOPE   C4B34922  30.658  22.277  14.793  0.0332  0.0423  0.1127
 2977POSM   NC334923  27.675  11.814  16.156  0.2282  0.1859 -0.0857
 2977POSM   PO434924  27.924  12.101  16.216 -0.1400  0.0138 -0.0453
 2977POSM   AM134925  27.718  12.259  16.017 -0.0007 -0.3454 -0.4378
 2977POSM   AM234926  27.749  12.511  15.934 -0.2873 -0.1424  0.1854
 2977POSM   T1A34927  27.445  12.222  15.604 -0.2064 -0.2435  0.1569
 2977POSM   C2A34928  27.313  11.850  15.292 -0.1205  0.0093  0.2239
 2977POSM   C3A34929  27.069  11.448  15.331  0.0162 -0.0685  0.1317
 2977POSM   C1B34930  27.899  12.535  15.665 -0.1025 -0.3042  0.3474
 2977POSM   D2B34931  27.924  12.692  15.208 -0.1233 -0.0293  0.2367
 2977POSM   C3B34932  28.107  12.426  14.865  0.0170  0.0744  0.0475
 2977POSM   C4B34933  28.330  12.059  14.660  0.0795  0.0562  0.0298
 2978DOPS   CNO34934  31.039  19.162  16.730  0.2880 -0.0784  0.1027
 2978DOPS   PO434935  30.713  19.237  16.557  0.3010 -0.2795  0.0221
 2978DOPS   GL134936  30.693  19.100  16.141 -0.2230  0.0664  0.1337
 2978DOPS   GL234937  30.462  19.024  16.108 -0.1678 -0.1965  0.0096
 2978DOPS   C1A34938  30.914  18.899  15.833  0.0566 -0.0050  0.1012
 2978DOPS   D2A34939  30.962  18.974  15.385  0.2199  0.1321 -0.0621
 2978DOPS   C3A34940  30.639  19.155  15.221  0.2189  0.0657  0.0456
 2978DOPS   C4A34941  30.435  19.619  15.208  0.0323  0.0786  0.2752
 2978DOPS   C1B34942  30.287  18.992  15.665 -0.0347 -0.1678 -0.0849
 2978DOPS   D2B34943  30.060  19.066  15.243 -0.0313  0.1693 -0.1360
 2978DOPS   C3B34944  30.219  18.704  15.014 -0.4443 -0.2214 -0.1204
 2978DOPS   C4B34945  29.836  18.398  14.831 -0.0581 -0.0993  0.1273
 2979POSM   NC334946  33.371  16.975  16.492  0.1264 -0.1330  0.0394
 2979POSM   PO434947  33.066  16.762  16.558 -0.0249 -0.0897  0.3026
 2979POSM   AM134948  32.974  16.751  16.264  0.2412  0.0424  0.0807
 2979POSM   AM234949  33.011  16.536  16.072  0.4756 -0.1155  0.0690
 2979POSM   T1A34950  32.589  16.824  15.964 -0.0590 -0.0008 -0.2160
 2979POSM   C2A34951  32.225  16.758  15.610 -0.3076 -0.2789 -0.0494
 2979POSM   C3A34952  32.078  16.364  15.439  0.1182 -0.0398 -0.0651
 2979POSM   C1B34953  33.178  16.503  15.732  0.1810  0.1305 -0.2451
 2979POSM   D2B34954  33.422  16.277  15.473  0.2884 -0.1221 -0.3346
 2979POSM   C3B34955  33.549  16.486  15.076 -0.1779 -0.3355  0.3959
 2979POSM   C4B34956  33.611  16.830  14.845  0.1372  0.1657  0.1195
 2980POSM   NC334957  27.692  14.090  16.621 -0.0273  0.3197  0.2369
 2980POSM   PO434958  27.751  14.260  16.331 -0.0013 -0.0235  0.1721
 2980POSM   AM134959  27.799  14.571  16.164 -0.1881  0.1637 -0.1510
 2980POSM   AM234960  27.688  14.633  15.959 -0.1136  0.0413  0.1250
 2980POSM   T1A34961  28.137  14.779  15.864  0.0571 -0.3247  0.2387
 2980POSM   C2A34962  28.561  14.960  15.799  0.3671  0.0820 -0.1946
 2980POSM   C3A34963  28.778  15.090  15.436 -0.0818  0.4604 -0.0893
 2980POSM   C1B34964  27.732  14.452  15.705 -0.2397  0.3837 -0.0323
 2980POSM   D2B34965  28.064  14.456  15.389  0.1214 -0.1812 -0.0963
 2980POSM   C3B34966  28.339  14.820  15.315  0.0275  0.2441 -0.2835
 2980POSM   C4B34967  28.499  15.121  14.994 -0.0500  0.1616  0.1203
 2981POSM   NC334968  26.020  19.516  15.567  0.0597 -0.0149 -0.1969
 2981POSM   PO434969  25.876  19.909  15.635 -0.0093  0.1117  0.0886
 2981POSM   AM134970  25.794  19.962  15.345 -0.0716 -0.0353 -0.1909
 2981POSM   AM234971  25.898  20.083  15.128 -0.0736 -0.2071 -0.2167
 2981POSM   T1A34972  25.482  19.941  14.929  0.2817 -0.0832  0.3902
 2981POSM   C2A34973  25.188  19.726  14.579  0.1755  0.1008 -0.0006
 2981POSM   C3A34974  25.143  19.361  14.250  0.0445 -0.0043  0.3625
 2981POSM   C1B34975  26.083  20.045  14.812 -0.3004 -0.0765  0.1070
 2981POSM   D2B34976  26.067  20.182  14.321  0.4473  0.0382  0.2304
 2981POSM   C3B34977  26.128  20.623  14.280 -0.0621  0.1610  0.0806
 2981POSM   C4B34978  26.381  21.016  14.176 -0.1252 -0.1974 -0.2225
 2982DOPE   NH334979  34.533  20.783  16.202 -0.0781 -0.1632 -0.1280
 2982DOPE   PO434980  34.541  20.450  16.136 -0.1527 -0.1414 -0.2076
 2982DOPE   GL134981  34.676  20.255  15.859  0.0018  0.0662 -0.0199
 2982DOPE   GL234982  34.915  20.167  15.955  0.1248  0.0407 -0.2139
 2982DOPE   C1A34983  34.672  20.374  15.394 -0.1832  0.0373  0.1029
 2982DOPE   D2A34984  34.482  20.413  14.997  0.2463  0.2664  0.1809
 2982DOPE   C3A34985  34.487  20.544  14.535 -0.1486  0.0596  0.0954
 2982DOPE   C4A34986  34.752  20.341  14.170 -0.2041  0.1133 -0.2334
 2982DOPE   C1B34987  34.965  19.973  15.539 -0.0469 -0.4131 -0.0840
 2982DOPE   D2B34988  34.815  19.849  15.072  0.0547 -0.3020 -0.3996
 2982DOPE   C3B34989  34.930  19.969  14.656 -0.2072  0.1118 -0.0768
 2982DOPE   C4B34990  35.190  20.163  14.342 -0.2027 -0.0194  0.0831
 2983DOPE   NH334991  24.385  18.908  15.167  0.1086 -0.0930 -0.0364
 2983DOPE   PO434992  24.669  18.973  15.019  0.0123 -0.0102  0.0939
 2983DOPE   GL134993  24.798  18.955  14.649 -0.1562 -0.0445  0.2256
 2983DOPE   GL234994  24.703  18.676  14.622 -0.0115 -0.0221 -0.0188
 2983DOPE   C1A34995  24.875  18.964  14.171 -0.2496 -0.1715 -0.1163
 2983DOPE   D2A34996  24.724  19.329  13.885 -0.0626  0.1476 -0.0899
 2983DOPE   C3A34997  25.011  19.539  13.569 -0.1042  0.3457  0.1712
 2983DOPE   C4A34998  24.928  19.817  13.211 -0.0733 -0.0492 -0.1414
 2983DOPE   C1B34999  24.752  18.409  14.301 -0.0068  0.1942  0.0151
 2983DOPE   D2B35000  24.653  18.145  13.940 -0.1168  0.2171 -0.0117
 2983DOPE   C3B35001  24.636  18.334  13.514  0.3168  0.0766 -0.1630
 2983DOPE   C4B35002  24.372  18.647  13.315  0.2073 -0.0439 -0.0671
 2984DOPS   CNO35003  32.842  12.160  15.619  0.0255  0.1286 -0.3688
 2984DOPS   PO435004  33.086  12.445  15.742  0.3733  0.1581  0.2670
 2984DOPS   GL135005  33.272  12.250  15.399  0.4429  0.1672 -0.0387
 2984DOPS   GL235006  33.369  12.492  15.247  0.2413 -0.0463  0.1168
 2984DOPS   C1A35007  33.604  11.964  15.155 -0.1357 -0.0778  0.0418
 2984DOPS   D2A35008  33.998  12.011  14.833 -0.0510  0.0782 -0.1919
 2984DOPS   C3A35009  33.903  11.805  14.425 -0.2418 -0.0779 -0.0997
 2984DOPS   C4A35010  33.566  11.564  14.232 -0.1298  0.0794 -0.2981
 2984DOPS   C1B35011  33.194  12.325  14.885  0.2321  0.0952 -0.0382
 2984DOPS   D2B35012  33.221  12.425  14.434  0.3428 -0.1819  0.0611
 2984DOPS   C3B35013  33.661  12.508  14.308  0.3678  0.0581 -0.0224
 2984DOPS   C4B35014  34.083  12.463  14.559 -0.0134  0.3755 -0.0200
 2985DOPS   CNO35015  23.105  15.906  14.981 -0.2327 -0.0010 -0.2444
 2985DOPS   PO435016  23.288  16.187  14.793 -0.0899  0.0747  0.0157
 2985DOPS   GL135017  23.266  16.095  14.385 -0.2041 -0.5845  0.3785
 2985DOPS   GL235018  22.990  16.134  14.262 -0.0360 -0.1794  0.0270
 2985DOPS   C1A35019  23.332  15.819  13.990  0.3588 -0.1269  0.0554
 2985DOPS   D2A35020  23.166  15.545  13.700 -0.1673 -0.0200  0.0574
 2985DOPS   C3A35021  22.766  15.477  13.432  0.0419 -0.1311  0.0725
 2985DOPS   C4A35022  22.569  15.123  13.246  0.1124  0.0605  0.1040
 2985DOPS   C1B35023  23.352  16.398  14.100 -0.0887 -0.1239  0.0459
 2985DOPS   D2B35024  23.419  16.692  13.671  0.0600  0.0330 -0.1488
 2985DOPS   C3B35025  23.740  16.917  13.424  0.0996 -0.2009  0.3120
 2985DOPS   C4B35026  23.842  17.186  13.055  0.3292  0.2831  0.0361
 2986DOPE   NH335027  27.669  20.974  16.295 -0.1117 -0.0393  0.0458
 2986DOPE   PO435028  27.615  20.900  15.987  0.1326  0.1001 -0.0938
 2986DOPE   GL135029  27.463  20.927  15.572  0.0522  0.0424 -0.0825
 2986DOPE   GL235030  27.544  20.749  15.413 -0.1450 -0.0671 -0.0926
 2986DOPE   C1A35031  27.336  21.214  15.253 -0.0924  0.0463 -0.0784
 2986DOPE   D2A35032  26.862  21.252  15.138  0.3016 -0.3869 -0.3480
 2986DOPE   C3A35033  26.799  21.125  14.680  0.1432 -0.2119  0.0450
 2986DOPE   C4A35034  26.582  20.757  14.545 -0.1554 -0.1373  0.2463
 2986DOPE   C1B35035  27.422  20.614  14.949 -0.0809 -0.0820 -0.0351
 2986DOPE   D2B35036  27.051  20.520  14.626 -0.4205  0.1128  0.1419
 2986DOPE   C3B35037  27.191  20.477  14.205 -0.0378  0.0459 -0.0225
 2986DOPE   C4B35038  27.325  20.256  13.817  0.1761 -0.0443  0.1193
 2987DOPC   NC335039  27.902  22.277  16.054  0.0521 -0.2558 -0.4136
 2987DOPC   PO435040  27.639  21.962  15.917  0.1249 -0.0948 -0.2618
 2987DOPC   GL135041  27.542  22.093  15.670 -0.0392 -0.0998 -0.2471
 2987DOPC   GL235042  27.698  22.407  15.622  0.1516 -0.0598 -0.1341
 2987DOPC   C1A35043  27.454  21.878  15.296 -0.0236  0.3245  0.3262
 2987DOPC   D2A35044  27.738  21.788  14.912  0.2221 -0.1609 -0.0116
 2987DOPC   C3A35045  27.464  22.103  14.722 -0.3087 -0.1420  0.0082
 2987DOPC   C4A35046  27.568  22.493  14.499  0.0858 -0.1915 -0.0552
 2987DOPC   C1B35047  28.057  22.422  15.362  0.1699 -0.0009  0.3017
 2987DOPC   D2B35048  28.492  22.326  15.252  0.3606 -0.0864 -0.0187
 2987DOPC   C3B35049  28.715  21.972  15.062  0.2112 -0.3177  0.2239
 2987DOPC   C4B35050  28.881  21.740  14.710  0.1823 -0.0940 -0.1599
 2988DOPE   NH335051  29.383  20.672  16.713  0.0286  0.3804  0.1055
 2988DOPE   PO435052  29.550  20.924  16.611 -0.0987 -0.2717 -0.2943
 2988DOPE   GL135053  29.452  21.047  16.248 -0.0955  0.0703 -0.2504
 2988DOPE   GL235054  29.414  20.780  16.095  0.1318 -0.2016  0.1060
 2988DOPE   C1A35055  29.785  21.099  15.869  0.2392  0.0254 -0.0004
 2988DOPE   D2A35056  29.890  20.907  15.447  0.2320 -0.1014 -0.0489
 2988DOPE   C3A35057  30.182  20.592  15.414  0.2287 -0.1829 -0.2755
 2988DOPE   C4A35058  30.228  20.143  15.426 -0.1874  0.2958 -0.0032
 2988DOPE   C1B35059  29.516  20.490  15.762  0.3142  0.4341 -0.0633
 2988DOPE   D2B35060  29.597  20.470  15.281 -0.1626  0.0105 -0.1815
 2988DOPE   C3B35061  29.497  20.309  14.856  0.1835  0.0015  0.1019
 2988DOPE   C4B35062  29.613  20.041  14.492 -0.1283 -0.2367 -0.1171
 2989DOPC   NC335063  23.007  15.059  15.354  0.1352 -0.0031  0.0795
 2989DOPC   PO435064  22.758  15.029  15.056 -0.0657 -0.0546 -0.3608
 2989DOPC   GL135065  22.779  14.678  14.799  0.0098 -0.1562 -0.3312
 2989DOPC   GL235066  22.769  14.803  14.563 -0.0443 -0.0273  0.1552
 2989DOPC   C1A35067  22.632  14.345  14.474 -0.1204  0.0029  0.0385
 2989DOPC   D2A35068  22.623  14.216  14.066 -0.2812  0.0048  0.1701
 2989DOPC   C3A35069  22.818  13.866  13.869  0.2672  0.0188 -0.2099
 2989DOPC   C4A35070  22.822  13.531  13.532 -0.2440 -0.0878  0.2172
 2989DOPC   C1B35071  23.097  15.106  14.432  0.3095  0.0804 -0.1222
 2989DOPC   D2B35072  23.406  15.385  14.195  0.1489  0.1273  0.2200
 2989DOPC   C3B35073  23.554  15.176  13.799 -0.0987  0.0106  0.0191
 2989DOPC   C4B35074  23.545  14.772  13.606  0.0276 -0.2186 -0.0488
 2990DOPE   NH335075  32.782  16.408  16.801  0.0364 -0.0093  0.0208
 2990DOPE   PO435076  32.725  16.351  16.493 -0.0036  0.0919  0.0033
 2990DOPE   GL135077  32.760  16.155  16.076  0.1574  0.2080 -0.2022
 2990DOPE   GL235078  32.599  16.325  15.918  0.0319  0.1364 -0.2010
 2990DOPE   C1A35079  32.933  16.084  15.612  0.0670 -0.1579 -0.1123
 2990DOPE   D2A35080  32.995  16.327  15.202  0.0140 -0.2341  0.1911
 2990DOPE   C3A35081  33.284  16.102  14.924 -0.2863 -0.1317  0.0079
 2990DOPE   C4A35082  33.589  16.098  14.642  0.1421  0.1206  0.0388
 2990DOPE   C1B35083  32.648  16.492  15.489 -0.3719 -0.1375 -0.0034
 2990DOPE   D2B35084  32.526  16.530  15.014 -0.2123  0.1037  0.3235
 2990DOPE   C3B35085  32.414  16.440  14.545  0.1440  0.1243  0.0055
 2990DOPE   C4B35086  32.668  16.143  14.225  0.0948 -0.0588 -0.2124
 2991DOPE   NH335087  32.960  19.958  16.163 -0.1102 -0.0928  0.2697
 2991DOPE   PO435088  32.744  20.137  15.969  0.3203 -0.0447 -0.0819
 2991DOPE   GL135089  32.955  19.942  15.695 -0.1694  0.0233  0.0943
 2991DOPE   GL235090  33.065  19.689  15.751 -0.2305 -0.0954  0.2297
 2991DOPE   C1A35091  33.097  19.986  15.288 -0.1018 -0.1547 -0.0690
 2991DOPE   D2A35092  33.325  19.988  14.908 -0.0500  0.0610 -0.1379
 2991DOPE   C3A35093  33.103  19.977  14.473  0.2489  0.0663  0.1661
 2991DOPE   C4A35094  32.734  20.164  14.294 -0.3547  0.2107  0.0752
 2991DOPE   C1B35095  32.978  19.511  15.388 -0.0736  0.0145 -0.0423
 2991DOPE   D2B35096  33.199  19.434  14.990 -0.0636  0.0560 -0.3895
 2991DOPE   C3B35097  32.956  19.472  14.620 -0.3038  0.2262  0.1480
 2991DOPE   C4B35098  32.926  19.251  14.263  0.1050  0.3166 -0.1219
 2992DOPC   NC335099  25.599  11.917  15.726  0.1488  0.1717 -0.0822
 2992DOPC   PO435100  25.302  12.131  15.721  0.0562 -0.0157  0.1792
 2992DOPC   GL135101  25.361  11.807  15.359  0.1414  0.1222 -0.0614
 2992DOPC   GL235102  25.079  11.716  15.249 -0.1284 -0.2483 -0.0336
 2992DOPC   C1A35103  25.808  11.773  15.195  0.0345  0.2023  0.0191
 2992DOPC   D2A35104  26.007  11.873  14.802 -0.0631 -0.0702  0.1068
 2992DOPC   C3A35105  26.143  12.198  14.461  0.0043 -0.2252 -0.0937
 2992DOPC   C4A35106  26.423  12.488  14.249  0.0078 -0.1097 -0.3214
 2992DOPC   C1B35107  24.929  11.353  15.031  0.0431 -0.0418 -0.0281
 2992DOPC   D2B35108  24.601  11.147  14.778 -0.2671  0.0330 -0.1038
 2992DOPC   C3B35109  24.740  11.252  14.273  0.1537 -0.3344 -0.1297
 2992DOPC   C4B35110  24.913  11.276  13.818 -0.0825  0.1715  0.1737
 2993DOPC   NC335111  33.817  15.669  16.089  0.3232 -0.0178 -0.0787
 2993DOPC   PO435112  33.795  15.306  15.993  0.1767 -0.3579 -0.1067
 2993DOPC   GL135113  33.645  15.457  15.744  0.0522  0.2802 -0.1587
 2993DOPC   GL235114  33.532  15.680  15.671 -0.0757 -0.3617 -0.2259
 2993DOPC   C1A35115  33.927  15.356  15.316  0.1002  0.0208 -0.1453
 2993DOPC   D2A35116  34.002  15.087  14.954 -0.0214 -0.2763 -0.2203
 2993DOPC   C3A35117  33.507  15.024  14.953  0.0782 -0.0776 -0.0107
 2993DOPC   C4A35118  33.114  14.828  15.088 -0.1288 -0.0136 -0.0227
 2993DOPC   C1B35119  33.276  15.784  15.385  0.0691 -0.2399 -0.2121
 2993DOPC   D2B35120  32.930  15.845  15.115 -0.0237  0.0512 -0.1249
 2993DOPC   C3B35121  32.987  15.652  14.657 -0.2395  0.2358  0.2433
 2993DOPC   C4B35122  33.053  15.566  14.178 -0.0112 -0.1899 -0.0299
 2994DOPE   NH335123  30.145  14.307  16.582 -0.3747 -0.2110  0.0184
 2994DOPE   PO435124  29.927  14.418  16.457  0.3666  0.1090 -0.0551
 2994DOPE   GL135125  29.942  14.229  16.109  0.1777  0.2511 -0.2757
 2994DOPE   GL235126  30.265  14.168  16.038 -0.0654 -0.1826  0.1548
 2994DOPE   C1A35127  29.904  14.191  15.641 -0.0874 -0.1238  0.2806
 2994DOPE   D2A35128  29.935  14.078  15.203 -0.0222 -0.3685  0.1082
 2994DOPE   C3A35129  29.754  14.494  15.114 -0.0235  0.3557  0.1668
 2994DOPE   C4A35130  29.510  14.456  14.708 -0.0215 -0.1141  0.0623
 2994DOPE   C1B35131  30.546  14.521  15.840  0.1433  0.0152  0.0337
 2994DOPE   D2B35132  30.598  14.787  15.445  0.2211 -0.0055 -0.0245
 2994DOPE   C3B35133  30.555  15.273  15.437 -0.0729 -0.2461 -0.0863
 2994DOPE   C4B35134  30.441  15.660  15.300 -0.2259 -0.0104 -0.1245
 2995DOPE   NH335135   0.023  18.352  16.480  0.0030  0.1279 -0.0459
 2995DOPE   PO435136   0.061  18.577  16.236  0.0480 -0.0249 -0.0457
 2995DOPE   GL135137  -0.068  18.321  15.940  0.0534 -0.2032 -0.3772
 2995DOPE   GL235138   0.176  18.160  15.926 -0.0188  0.0879  0.0490
 2995DOPE   C1A35139  -0.488  18.201  15.724  0.0849  0.2030 -0.1866
 2995DOPE   D2A35140  -0.818  18.033  15.402 -0.0687  0.2001 -0.1224
 2995DOPE   C3A35141  -0.723  18.240  15.043 -0.1273 -0.0011  0.4965
 2995DOPE   C4A35142  -0.793  18.493  14.634  0.3452  0.1340 -0.0663
 2995DOPE   C1B35143   0.408  18.388  15.539  0.2674  0.1470  0.0132
 2995DOPE   D2B35144   0.205  18.492  15.100 -0.0867 -0.0115 -0.3111
 2995DOPE   C3B35145   0.082  18.160  14.808 -0.1427 -0.0137  0.2552
 2995DOPE   C4B35146   0.289  17.942  14.482  0.0234  0.1652 -0.1247
 2996DOPS   CNO35147  24.105  16.184  15.332  0.1539  0.2000  0.1347
 2996DOPS   PO435148  24.197  16.422  15.571 -0.1337 -0.2107 -0.0065
 2996DOPS   GL135149  24.641  16.355  15.341 -0.1545 -0.2795  0.1526
 2996DOPS   GL235150  24.817  16.128  15.232  0.0070 -0.2667 -0.3387
 2996DOPS   C1A35151  24.916  16.530  15.021  0.3320 -0.0472 -0.0603
 2996DOPS   D2A35152  25.248  16.677  14.841 -0.2570 -0.1397 -0.0781
 2996DOPS   C3A35153  25.517  16.582  14.529 -0.2446  0.3117 -0.1085
 2996DOPS   C4A35154  25.779  16.526  14.162 -0.2637  0.0036  0.2190
 2996DOPS   C1B35155  25.261  16.169  15.059  0.4069  0.0452 -0.0698
 2996DOPS   D2B35156  25.633  16.058  14.849  0.3019 -0.1246 -0.0415
 2996DOPS   C3B35157  25.607  16.097  14.447 -0.2409  0.1690  0.1238
 2996DOPS   C4B35158  25.891  16.075  14.035 -0.2552  0.1771  0.1342
 2997POSM   NC335159  27.740  23.533  16.118 -0.0422  0.0524 -0.2835
 2997POSM   PO435160  27.808  23.185  16.304 -0.2236 -0.1287 -0.0900
 2997POSM   AM135161  27.892  23.056  16.004  0.0801 -0.0860 -0.1608
 2997POSM   AM235162  27.841  22.825  15.850 -0.0680 -0.2321  0.1178
 2997POSM   T1A35163  28.098  23.302  15.632 -0.0427 -0.1084  0.2396
 2997POSM   C2A35164  27.891  23.398  15.227  0.0280 -0.2539  0.0271
 2997POSM   C3A35165  27.676  23.341  14.794  0.0096  0.0006 -0.1345
 2997POSM   C1B35166  27.835  22.926  15.497 -0.1478  0.1393 -0.0021
 2997POSM   D2B35167  28.012  22.917  15.029 -0.4195 -0.1228  0.1577
 2997POSM   C3B35168  28.236  23.301  14.861 -0.0446 -0.3088 -0.0347
 2997POSM   C4B35169  28.439  23.605  14.554 -0.1450  0.3176 -0.0179
 2998DOPC   NC335170  23.159  17.508  14.436 -0.0083 -0.0998 -0.2406
 2998DOPC   PO435171  23.516  17.596  14.635  0.2988  0.0990  0.2029
 2998DOPC   GL135172  23.621  17.739  14.270  0.0671 -0.0286 -0.1616
 2998DOPC   GL235173  23.676  17.493  14.119  0.1395 -0.0742 -0.0203
 2998DOPC   C1A35174  23.582  18.100  14.016  0.0568  0.2467  0.0591
 2998DOPC   D2A35175  23.397  18.090  13.642 -0.1140 -0.0624 -0.0952
 2998DOPC   C3A35176  23.463  17.924  13.202  0.3378  0.1470 -0.0372
 2998DOPC   C4A35177  23.259  17.892  12.728 -0.1869  0.3893 -0.0237
 2998DOPC   C1B35178  23.710  17.737  13.726  0.0336  0.0417  0.1148
 2998DOPC   D2B35179  23.905  18.039  13.491 -0.2238 -0.0782 -0.1660
 2998DOPC   C3B35180  24.161  18.279  13.833  0.2894  0.1558  0.2402
 2998DOPC   C4B35181  24.200  18.215  14.251 -0.2200 -0.0945 -0.0054
 2999DOPC   NC335182  27.410  15.475  16.244  0.2730  0.0231  0.1031
 2999DOPC   PO435183  27.514  15.643  15.950  0.1334 -0.1104  0.2033
 2999DOPC   GL135184  27.706  15.612  15.591  0.1944  0.2376 -0.1511
 2999DOPC   GL235185  27.426  15.504  15.486  0.1550  0.1128 -0.3153
 2999DOPC   C1A35186  27.903  15.398  15.254  0.0708 -0.1654  0.0825
 2999DOPC   D2A35187  28.061  15.397  14.846 -0.2305 -0.0761  0.1311
 2999DOPC   C3A35188  27.998  15.814  14.642  0.1036 -0.1618  0.0218
 2999DOPC   C4A35189  27.685  16.157  14.731  0.0036 -0.1576  0.2007
 2999DOPC   C1B35190  27.435  15.322  15.052 -0.1102 -0.3612 -0.1271
 2999DOPC   D2B35191  27.600  15.352  14.640  0.0402 -0.1623  0.3396
 2999DOPC   C3B35192  27.761  15.035  14.424  0.2266 -0.3594 -0.1120
 2999DOPC   C4B35193  28.052  14.770  14.263 -0.1170 -0.0403  0.0590
 3000DOPS   CNO35194  25.128  12.688  15.819  0.3862 -0.2126 -0.2562
 3000DOPS   PO435195  25.381  12.927  15.957 -0.0077  0.0899  0.2817
 3000DOPS   GL135196  25.518  12.920  15.549 -0.0221 -0.1788  0.1763
 3000DOPS   GL235197  25.474  13.108  15.364 -0.2260  0.1175  0.1364
 3000DOPS   C1A35198  25.736  12.700  15.242 -0.0114  0.1100 -0.0416
 3000DOPS   D2A35199  26.160  12.565  15.097 -0.0769  0.0290 -0.1426
 3000DOPS   C3A35200  26.396  12.152  15.155  0.1299  0.0075 -0.2827
 3000DOPS   C4A35201  26.875  12.090  15.093 -0.0257  0.0653 -0.1365
 3000DOPS   C1B35202  25.648  13.146  14.897  0.2599 -0.1479 -0.2489
 3000DOPS   D2B35203  25.870  12.812  14.731 -0.0447  0.4060 -0.0614
 3000DOPS   C3B35204  26.068  12.950  14.319  0.3113 -0.0732  0.1829
 3000DOPS   C4B35205  26.439  13.038  14.207  0.1333 -0.2609  0.1808
 3001DOPC   NC335206  33.586  22.989  16.523  0.1993  0.1150  0.0105
 3001DOPC   PO435207  33.432  23.252  16.245 -0.1461  0.3316 -0.1188
 3001DOPC   GL135208  33.548  23.336  15.825  0.0452  0.0499 -0.5475
 3001DOPC   GL235209  33.588  23.003  15.835 -0.2543 -0.1867  0.5312
 3001DOPC   C1A35210  33.582  23.432  15.355 -0.2334  0.2720 -0.1743
 3001DOPC   D2A35211  33.632  23.099  15.014  0.2942  0.0153 -0.2118
 3001DOPC   C3A35212  33.912  23.026  14.664 -0.2047  0.5365 -0.4912
 3001DOPC   C4A35213  34.159  22.669  14.547 -0.1118 -0.0413 -0.0717
 3001DOPC   C1B35214  33.264  23.098  15.476  0.0614 -0.0220 -0.1474
 3001DOPC   D2B35215  33.079  23.120  15.067 -0.1220  0.1135 -0.1050
 3001DOPC   C3B35216  33.332  23.315  14.728 -0.3539 -0.0204  0.0867
 3001DOPC   C4B35217  33.305  23.577  14.324  0.3600  0.0379  0.0541
 3002POSM   NC335218  31.436  15.789  16.898  0.0882 -0.2668  0.0135
 3002POSM   PO435219  31.811  15.901  16.805  0.0857 -0.3835 -0.2753
 3002POSM   AM135220  31.906  15.874  16.506  0.1463 -0.4391 -0.1938
 3002POSM   AM235221  31.774  15.963  16.237 -0.1591 -0.0628  0.0085
 3002POSM   T1A35222  32.082  15.525  16.230  0.0829 -0.0392 -0.1890
 3002POSM   C2A35223  31.942  15.110  15.998  0.1396 -0.2004 -0.1966
 3002POSM   C3A35224  32.129  14.708  16.082  0.2463 -0.0056  0.2551
 3002POSM   C1B35225  31.791  16.215  15.959  0.0962 -0.1701 -0.1593
 3002POSM   D2B35226  31.754  16.632  15.790  0.0644 -0.2179 -0.1387
 3002POSM   C3B35227  31.763  16.733  15.336  0.1603  0.0264 -0.2696
 3002POSM   C4B35228  32.036  16.555  14.993  0.3127  0.2323  0.0060
 3003DOPC   NC335229  29.268  13.172  17.107  0.1812 -0.0959  0.0119
 3003DOPC   PO435230  29.111  13.348  16.796  0.2845  0.1898  0.1199
 3003DOPC   GL135231  29.121  13.151  16.395 -0.0692  0.1057  0.2084
 3003DOPC   GL235232  28.901  13.367  16.308  0.0988 -0.3333  0.1294
 3003DOPC   C1A35233  29.034  12.783  16.162  0.3741  0.0115 -0.1524
 3003DOPC   D2A35234  28.834  12.496  15.909 -0.0990 -0.0293 -0.3385
 3003DOPC   C3A35235  29.110  12.389  15.573  0.1391 -0.0267 -0.3010
 3003DOPC   C4A35236  29.206  12.698  15.231 -0.1629 -0.1993  0.1036
 3003DOPC   C1B35237  28.696  13.076  15.926 -0.3637 -0.0227 -0.0424
 3003DOPC   D2B35238  28.960  12.898  15.581 -0.1177 -0.0555 -0.3109
 3003DOPC   C3B35239  29.395  12.744  15.777 -0.3259 -0.0357 -0.0100
 3003DOPC   C4B35240  29.883  12.631  15.788 -0.2023 -0.0413 -0.0474
 3004DOPC   NC335241  32.537  12.273  16.183 -0.2397 -0.0081  0.2472
 3004DOPC   PO435242  32.646  11.871  16.063 -0.0552 -0.0316  0.1655
 3004DOPC   GL135243  32.467  11.748  15.683 -0.1521 -0.1851  0.0351
 3004DOPC   GL235244  32.370  12.061  15.656  0.0966  0.0472 -0.3080
 3004DOPC   C1A35245  32.338  11.714  15.247 -0.2959 -0.0562  0.1957
 3004DOPC   D2A35246  32.207  11.753  14.814 -0.0710  0.0681  0.3801
 3004DOPC   C3A35247  31.839  11.562  14.638 -0.0495 -0.0293 -0.1602
 3004DOPC   C4A35248  31.491  11.505  14.366 -0.1103 -0.5613  0.3430
 3004DOPC   C1B35249  31.985  12.081  15.419  0.0908 -0.0357  0.2758
 3004DOPC   D2B35250  31.838  12.403  15.204  0.1962 -0.0280 -0.0281
 3004DOPC   C3B35251  31.977  12.548  14.750 -0.1817 -0.0837 -0.1424
 3004DOPC   C4B35252  32.265  12.714  14.384  0.1006  0.1196 -0.2561
 3005DOPE   NH335253  29.049  10.915  16.295  0.0491 -0.0047  0.2111
 3005DOPE   PO435254  29.191  10.823  16.562  0.2441  0.2980 -0.0164
 3005DOPE   GL135255  29.420  10.583  16.433 -0.2240 -0.1710 -0.1134
 3005DOPE   GL235256  29.677  10.532  16.448 -0.0132 -0.4131  0.2255
 3005DOPE   C1A35257  29.460  10.485  15.967 -0.2418  0.2737 -0.0061
 3005DOPE   D2A35258  29.450  10.541  15.486  0.0304 -0.1269  0.0381
 3005DOPE   C3A35259  29.286  10.962  15.308  0.0724  0.0730 -0.1010
 3005DOPE   C4A35260  29.461  11.244  15.010  0.4615 -0.0573 -0.0488
 3005DOPE   C1B35261  29.842  10.819  16.058  0.1534  0.1500  0.0784
 3005DOPE   D2B35262  29.968  11.174  15.789 -0.0218  0.1159 -0.2255
 3005DOPE   C3B35263  29.624  11.294  15.530  0.0327  0.0063 -0.0498
 3005DOPE   C4B35264  29.566  11.664  15.276  0.0633  0.1269 -0.1485
 3006POSM   NC335265  33.462  12.889  15.965  0.2602 -0.0765  0.1492
 3006POSM   PO435266  33.265  12.942  15.601 -0.1799  0.3125  0.0007
 3006POSM   AM135267  33.068  12.783  15.373 -0.0247  0.3892 -0.3022
 3006POSM   AM235268  33.039  12.841  15.105 -0.1576  0.2555 -0.2862
 3006POSM   T1A35269  32.752  12.492  15.128 -0.1288 -0.0716 -0.0569
 3006POSM   C2A35270  32.565  12.495  14.720  0.2465 -0.0772 -0.0991
 3006POSM   C3A35271  32.245  12.181  14.500 -0.0670  0.0513  0.1808
 3006POSM   C1B35272  32.873  12.888  14.810  0.0759 -0.0702 -0.0936
 3006POSM   D2B35273  32.843  12.943  14.356  0.0666 -0.1464  0.1583
 3006POSM   C3B35274  32.453  13.101  14.129 -0.0656  0.2027  0.3527
 3006POSM   C4B35275  32.240  13.459  14.171  0.2645  0.1691  0.3736
 3007POSM   NC335276  24.513  18.354  15.272 -0.1202 -0.1040  0.1609
 3007POSM   PO435277  24.778  18.461  15.026  0.1092 -0.1099 -0.0089
 3007POSM   AM135278  25.060  18.550  14.885 -0.0108  0.1029 -0.3585
 3007POSM   AM235279  25.288  18.415  14.991 -0.2160  0.1145  0.0311
 3007POSM   T1A35280  25.300  18.611  14.450 -0.0183  0.0220  0.0895
 3007POSM   C2A35281  25.469  18.585  13.997  0.1282 -0.1960  0.0024
 3007POSM   C3A35282  25.852  18.670  13.734 -0.2348  0.0928  0.0644
 3007POSM   C1B35283  25.635  18.372  14.925  0.0722  0.2446  0.0152
 3007POSM   D2B35284  26.103  18.444  14.848  0.0720 -0.0979  0.0145
 3007POSM   C3B35285  26.209  18.183  14.545  0.3822 -0.2096 -0.1016
 3007POSM   C4B35286  26.386  17.789  14.468 -0.1552 -0.1160  0.1819
 3008DOPE   NH335287  24.138  13.369  15.398 -0.0997  0.0407 -0.2109
 3008DOPE   PO435288  24.392  13.318  15.185  0.1590 -0.0510 -0.0317
 3008DOPE   GL135289  24.383  13.418  14.796 -0.1185  0.0793  0.0550
 3008DOPE   GL235290  24.737  13.278  14.738 -0.0363  0.0459 -0.2016
 3008DOPE   C1A35291  24.120  13.147  14.511 -0.0906 -0.1832  0.1278
 3008DOPE   D2A35292  24.061  13.208  14.060  0.0486  0.2426  0.1070
 3008DOPE   C3A35293  24.409  12.982  13.922  0.2610  0.2830 -0.0930
 3008DOPE   C4A35294  24.620  12.744  13.562 -0.0747  0.0384  0.3032
 3008DOPE   C1B35295  25.176  13.170  14.542  0.1856 -0.0521 -0.0195
 3008DOPE   D2B35296  25.565  13.071  14.271  0.4200  0.3017 -0.0932
 3008DOPE   C3B35297  25.763  13.072  13.914  0.2057  0.0322  0.0740
 3008DOPE   C4B35298  25.795  13.403  13.631  0.0164 -0.1847 -0.0898
 3009POSM   NC335299  23.344  13.758  15.321  0.2194  0.2037 -0.0947
 3009POSM   PO435300  23.703  13.633  15.431 -0.3467  0.0509 -0.0095
 3009POSM   AM135301  23.768  13.550  15.137 -0.1563 -0.5600  0.2805
 3009POSM   AM235302  23.990  13.638  14.954 -0.0109 -0.0282  0.3024
 3009POSM   T1A35303  23.641  13.331  14.676  0.2581 -0.1651 -0.2281
 3009POSM   C2A35304  23.749  12.885  14.603 -0.0800  0.4062  0.1982
 3009POSM   C3A35305  23.893  12.453  14.724  0.1005 -0.0042  0.2505
 3009POSM   C1B35306  23.916  13.745  14.659  0.0414 -0.2254 -0.0013
 3009POSM   D2B35307  24.028  13.705  14.241  0.1282  0.1923 -0.1236
 3009POSM   C3B35308  24.288  13.995  13.968 -0.0469 -0.3235  0.0752
 3009POSM   C4B35309  24.171  14.002  13.486 -0.0315  0.0178 -0.0472
 3010DOPE   NH335310  27.414  22.882  16.102  0.0278  0.1296  0.1187
 3010DOPE   PO435311  27.243  22.815  15.836  0.0076  0.1742  0.0427
 3010DOPE   GL135312  27.434  22.741  15.497 -0.1385 -0.0461  0.2013
 3010DOPE   GL235313  27.213  22.915  15.386 -0.0721  0.4387 -0.4054
 3010DOPE   C1A35314  27.546  22.422  15.145 -0.1383 -0.4853  0.1641
 3010DOPE   D2A35315  27.970  22.289  14.902  0.1268  0.0181  0.1682
 3010DOPE   C3A35316  28.360  22.429  14.683  0.2027  0.0963 -0.0756
 3010DOPE   C4A35317  28.707  22.204  14.480  0.0111 -0.3422 -0.0421
 3010DOPE   C1B35318  27.539  22.926  15.036  0.1610  0.1636  0.0898
 3010DOPE   D2B35319  27.715  22.896  14.621 -0.1964 -0.1455  0.0914
 3010DOPE   C3B35320  27.885  23.258  14.379  0.1791  0.1339 -0.0174
 3010DOPE   C4B35321  27.959  23.530  13.994 -0.2711 -0.0015 -0.3506
 3011POSM   NC335322  22.748  16.408  14.560 -0.1025 -0.1283 -0.0733
 3011POSM   PO435323  23.041  16.626  14.751 -0.3018  0.3334  0.2421
 3011POSM   AM135324  23.235  16.546  14.506 -0.1856 -0.0186  0.3062
 3011POSM   AM235325  23.543  16.593  14.499 -0.0305  0.3002 -0.1434
 3011POSM   T1A35326  23.365  16.937  14.156  0.2244  0.0130  0.0081
 3011POSM   C2A35327  23.382  17.215  13.743 -0.2071 -0.0913 -0.1255
 3011POSM   C3A35328  23.540  17.430  13.375  0.0063 -0.1461  0.1499
 3011POSM   C1B35329  23.751  16.630  14.302 -0.0227 -0.1416  0.0973
 3011POSM   D2B35330  23.903  16.603  13.860 -0.1218  0.2022 -0.1392
 3011POSM   C3B35331  24.380  16.490  13.777  0.1093 -0.0758 -0.0576
 3011POSM   C4B35332  24.471  16.144  13.456 -0.0203 -0.1212  0.2626
 3012DOPS   CNO35333   0.114  13.813  16.215 -0.1531  0.0797 -0.4769
 3012DOPS   PO435334   0.194  13.559  15.987 -0.0676 -0.1439  0.0764
 3012DOPS   GL135335   0.102  13.541  15.682  0.1892  0.0689 -0.2613
 3012DOPS   GL235336   0.121  13.252  15.615 -0.1309  0.0460 -0.0092
 3012DOPS   C1A35337   0.392  13.465  15.277 -0.4381  0.0686 -0.0648
 3012DOPS   D2A35338   0.317  13.111  15.015 -0.1319 -0.0510  0.1363
 3012DOPS   C3A35339   0.504  13.099  14.590 -0.0417  0.0390  0.0496
 3012DOPS   C4A35340   0.309  12.765  14.295  0.1861 -0.1560 -0.2647
 3012DOPS   C1B35341   0.520  13.043  15.509  0.1701 -0.0062  0.1529
 3012DOPS   D2B35342   0.896  13.180  15.241  0.2138 -0.0854 -0.1299
 3012DOPS   C3B35343   1.030  12.932  14.830 -0.1733  0.1449 -0.0519
 3012DOPS   C4B35344   0.806  12.573  14.698 -0.1599 -0.2411  0.2039
 3013DOPC   NC335345  28.656  22.127  16.125 -0.0845  0.1010  0.0655
 3013DOPC   PO435346  28.296  21.996  16.242  0.1603  0.1834 -0.1321
 3013DOPC   GL135347  28.293  22.047  15.826  0.0784  0.1418 -0.1654
 3013DOPC   GL235348  28.047  21.993  15.607 -0.1324  0.0009 -0.1478
 3013DOPC   C1A35349  28.616  21.820  15.588  0.0756 -0.0234 -0.0340
 3013DOPC   D2A35350  28.891  21.426  15.682 -0.2208 -0.1589 -0.3620
 3013DOPC   C3A35351  28.822  21.102  15.359 -0.1588 -0.2630 -0.0830
 3013DOPC   C4A35352  28.522  20.999  14.987 -0.0080  0.1378  0.2110
 3013DOPC   C1B35353  28.188  21.789  15.194  0.0156  0.2394 -0.1630
 3013DOPC   D2B35354  28.362  21.925  14.740  0.1045 -0.2443  0.1258
 3013DOPC   C3B35355  27.939  21.884  14.486  0.0919 -0.0029  0.2377
 3013DOPC   C4B35356  27.592  22.049  14.252 -0.0325  0.0113 -0.0095
 3014DOPS   CNO35357  24.117  22.673  16.193 -0.1226  0.0154 -0.0269
 3014DOPS   PO435358  24.022  22.333  16.082  0.0432 -0.0144  0.1010
 3014DOPS   GL135359  23.735  22.281  15.807 -0.1914 -0.3589  0.2510
 3014DOPS   GL235360  23.577  22.508  15.653 -0.0132 -0.4143  0.1671
 3014DOPS   C1A35361  23.950  22.195  15.393  0.1253 -0.0898  0.1715
 3014DOPS   D2A35362  24.142  21.770  15.242 -0.3470  0.1207 -0.0188
 3014DOPS   C3A35363  23.976  21.666  14.818  0.1140 -0.3387  0.2764
 3014DOPS   C4A35364  23.916  21.786  14.402 -0.0677 -0.2842  0.1798
 3014DOPS   C1B35365  23.377  22.598  15.248  0.0406  0.0127 -0.1313
 3014DOPS   D2B35366  23.435  22.379  14.844 -0.1002  0.1879 -0.5395
 3014DOPS   C3B35367  23.786  22.407  14.535 -0.0117 -0.1566 -0.1340
 3014DOPS   C4B35368  24.100  22.260  14.220  0.2178 -0.2413  0.3393
 3015DOPE   NH335369  32.484  20.560  16.041  0.1477  0.0534 -0.1518
 3015DOPE   PO435370  32.740  20.642  16.191  0.3530 -0.2570  0.1151
 3015DOPE   GL135371  32.899  20.561  15.727  0.3059 -0.1256  0.0371
 3015DOPE   GL235372  32.803  20.340  15.514  0.3871  0.1744 -0.2194
 3015DOPE   C1A35373  33.159  20.861  15.470  0.2705  0.1386  0.0418
 3015DOPE   D2A35374  33.249  21.138  15.117 -0.0902 -0.0273  0.0074
 3015DOPE   C3A35375  33.494  21.456  14.894 -0.0878  0.0246  0.1039
 3015DOPE   C4A35376  33.568  21.397  14.434 -0.1513  0.3332  0.1358
 3015DOPE   C1B35377  32.483  20.388  15.219  0.3336 -0.3938 -0.3475
 3015DOPE   D2B35378  32.116  20.388  15.001  0.2153 -0.0506 -0.1275
 3015DOPE   C3B35379  32.000  20.454  14.601  0.4639 -0.1167  0.1253
 3015DOPE   C4B35380  32.285  20.370  14.250 -0.3108 -0.2237  0.4087
 3016DOPC   NC335381  24.940  17.608  15.298 -0.2558  0.1073 -0.0739
 3016DOPC   PO435382  24.910  18.028  15.331 -0.1090 -0.0906  0.0069
 3016DOPC   GL135383  24.678  17.995  14.850  0.2826  0.0870  0.0337
 3016DOPC   GL235384  24.944  18.141  14.711 -0.2195 -0.2767  0.1209
 3016DOPC   C1A35385  24.586  17.778  14.440 -0.0138  0.0088  0.1799
 3016DOPC   D2A35386  24.509  17.489  14.100  0.0192  0.1715 -0.0569
 3016DOPC   C3A35387  24.861  17.702  13.859 -0.2894 -0.0380 -0.0669
 3016DOPC   C4A35388  24.922  17.950  13.471 -0.3059 -0.2124  0.0469
 3016DOPC   C1B35389  25.047  17.920  14.279  0.3511 -0.1471  0.2664
 3016DOPC   D2B35390  25.178  17.486  14.196  0.0358  0.1129 -0.0586
 3016DOPC   C3B35391  24.952  17.109  14.048 -0.0958 -0.1508  0.0335
 3016DOPC   C4B35392  24.915  16.756  13.707  0.2270 -0.0991  0.1670
 3017DOPS   CNO35393  23.629  14.866  15.680 -0.0199 -0.0153  0.0029
 3017DOPS   PO435394  23.484  14.926  15.333 -0.1359  0.1697  0.0382
 3017DOPS   GL135395  23.693  14.846  15.069 -0.0615  0.4325  0.3829
 3017DOPS   GL235396  23.569  14.525  14.964  0.0890 -0.0204  0.0460
 3017DOPS   C1A35397  23.633  14.895  14.597 -0.1606 -0.0004  0.0534
 3017DOPS   D2A35398  23.479  14.740  14.151  0.0952  0.0261  0.0262
 3017DOPS   C3A35399  23.123  14.893  13.912 -0.2722 -0.0723 -0.1548
 3017DOPS   C4A35400  22.785  15.186  13.826  0.0422  0.2265 -0.0672
 3017DOPS   C1B35401  23.246  14.508  14.620 -0.2642  0.0082 -0.2607
 3017DOPS   D2B35402  23.136  14.370  14.189 -0.0504  0.0002 -0.0712
 3017DOPS   C3B35403  22.976  14.301  13.762 -0.0630  0.0560 -0.3097
 3017DOPS   C4B35404  22.851  14.646  13.534 -0.1390 -0.1847  0.0621
 3018DOPC   NC335405  27.345  14.149  16.031  0.1690 -0.0123  0.0720
 3018DOPC   PO435406  27.005  14.353  16.025 -0.3756 -0.0215 -0.0422
 3018DOPC   GL135407  26.859  14.197  15.630 -0.1270 -0.1744 -0.1271
 3018DOPC   GL235408  27.145  14.114  15.520 -0.1198 -0.0354  0.1501
 3018DOPC   C1A35409  26.847  14.228  15.155  0.0182 -0.1538 -0.0086
 3018DOPC   D2A35410  26.857  14.061  14.709  0.0514  0.0276  0.3186
 3018DOPC   C3A35411  27.001  14.032  14.229  0.0577 -0.1417  0.1770
 3018DOPC   C4A35412  26.986  13.819  13.824  0.3009  0.0188  0.3174
 3018DOPC   C1B35413  27.285  14.397  15.256  0.1511  0.2457 -0.2027
 3018DOPC   D2B35414  27.414  14.818  15.033 -0.1385  0.0879 -0.0939
 3018DOPC   C3B35415  27.305  14.870  14.564 -0.1535  0.2237  0.1702
 3018DOPC   C4B35416  27.278  15.050  14.174 -0.3902 -0.0940  0.1669
 3019DOPE   NH335417  33.490  20.521  16.496 -0.0005 -0.1439  0.0159
 3019DOPE   PO435418  33.701  20.524  16.257  0.0684 -0.1120  0.3783
 3019DOPE   GL135419  33.564  20.506  15.851  0.1294 -0.1461 -0.3205
 3019DOPE   GL235420  33.628  20.685  15.714  0.0811  0.1801 -0.0149
 3019DOPE   C1A35421  33.765  20.288  15.489 -0.0329 -0.1360 -0.1797
 3019DOPE   D2A35422  33.850  20.194  15.053  0.0125  0.0195 -0.0416
 3019DOPE   C3A35423  33.545  20.437  14.723  0.0040  0.0196 -0.0573
 3019DOPE   C4A35424  33.190  20.455  14.451 -0.0768 -0.0608 -0.2558
 3019DOPE   C1B35425  33.531  20.682  15.266 -0.1587 -0.2886 -0.2324
 3019DOPE   D2B35426  33.578  20.881  14.839 -0.0359  0.0366  0.0198
 3019DOPE   C3B35427  33.612  20.876  14.362  0.1096 -0.1027  0.3652
 3019DOPE   C4B35428  33.721  21.196  14.016 -0.3021  0.2331 -0.3815
 3020POSM   NC335429  30.623  21.135  16.487  0.0445  0.1189 -0.2053
 3020POSM   PO435430  30.363  20.848  16.537 -0.2981 -0.0810 -0.0510
 3020POSM   AM135431  30.301  20.767  16.219  0.2005  0.1099  0.1132
 3020POSM   AM235432  30.278  20.871  15.992 -0.0849  0.2867 -0.0902
 3020POSM   T1A35433  30.045  20.485  15.891 -0.5779 -0.1644 -0.2195
 3020POSM   C2A35434  29.800  20.143  15.702 -0.0447  0.1528  0.1184
 3020POSM   C3A35435  29.588  19.727  15.603 -0.4403  0.0564  0.1284
 3020POSM   C1B35436  30.252  21.072  15.742 -0.2303 -0.1890  0.1003
 3020POSM   D2B35437  30.071  21.368  15.502  0.2100 -0.2772 -0.0336
 3020POSM   C3B35438  29.978  21.896  15.517 -0.0327  0.0934  0.0523
 3020POSM   C4B35439  29.988  22.352  15.558  0.2693  0.0750 -0.0100
 3021DOPE   NH335440  28.083  21.538  16.150 -0.0583 -0.2467  0.0413
 3021DOPE   PO435441  27.794  21.461  16.054  0.1431  0.0001  0.1826
 3021DOPE   GL135442  27.941  21.522  15.668 -0.1049 -0.0857 -0.2438
 3021DOPE   GL235443  27.909  21.160  15.628 -0.0942 -0.1134  0.0483
 3021DOPE   C1A35444  27.742  21.426  15.243  0.0860  0.0235  0.1227
 3021DOPE   D2A35445  27.715  21.061  14.937  0.0372  0.4662  0.1216
 3021DOPE   C3A35446  28.061  20.966  14.644  0.2650 -0.3734 -0.1043
 3021DOPE   C4A35447  28.476  20.685  14.579 -0.0412  0.2792 -0.3002
 3021DOPE   C1B35448  28.123  20.964  15.253  0.0011  0.0903 -0.1880
 3021DOPE   D2B35449  28.017  20.580  15.021 -0.1686 -0.1544  0.3027
 3021DOPE   C3B35450  28.116  20.331  14.614  0.2062 -0.1807 -0.1163
 3021DOPE   C4B35451  28.195  20.019  14.305  0.0763 -0.1600 -0.1423
 3022POSM   NC335452  30.687  20.463  15.941  0.2599 -0.1503 -0.2170
 3022POSM   PO435453  30.746  20.773  16.128 -0.1593  0.3203 -0.0965
 3022POSM   AM135454  30.807  20.866  15.824  0.2825  0.2419  0.0783
 3022POSM   AM235455  31.018  20.889  15.667 -0.0519 -0.1922 -0.3140
 3022POSM   T1A35456  30.730  21.147  15.380 -0.0389 -0.2929 -0.0329
 3022POSM   C2A35457  30.389  21.308  15.119 -0.0121 -0.2694  0.1741
 3022POSM   C3A35458  30.252  21.347  14.674  0.1887  0.1932 -0.1042
 3022POSM   C1B35459  31.134  20.783  15.402 -0.0317  0.0176  0.3978
 3022POSM   D2B35460  31.103  20.484  15.056 -0.0257  0.0358  0.2414
 3022POSM   C3B35461  31.419  20.380  14.682 -0.0778 -0.1731 -0.0387
 3022POSM   C4B35462  31.606  20.019  14.395 -0.2570 -0.1859  0.0681
 3023DOPC   NC335463  31.845  16.345  16.595 -0.1031 -0.0919 -0.1373
 3023DOPC   PO435464  31.740  16.699  16.760  0.2025 -0.1302  0.1355
 3023DOPC   GL135465  31.545  16.921  16.438 -0.2354 -0.2939  0.0912
 3023DOPC   GL235466  31.590  16.657  16.306 -0.4278 -0.0731  0.1915
 3023DOPC   C1A35467  31.437  17.021  16.008 -0.3490  0.3848  0.0402
 3023DOPC   D2A35468  31.323  16.769  15.659  0.1905  0.0970  0.0767
 3023DOPC   C3A35469  31.474  16.359  15.512 -0.0124 -0.0378 -0.1047
 3023DOPC   C4A35470  31.602  16.122  15.090 -0.3526  0.0216 -0.2062
 3023DOPC   C1B35471  31.335  16.340  16.072  0.3800  0.1204 -0.1768
 3023DOPC   D2B35472  31.043  16.302  15.726 -0.0229 -0.1297 -0.1708
 3023DOPC   C3B35473  31.054  16.573  15.320  0.1325 -0.0289 -0.0180
 3023DOPC   C4B35474  31.372  16.543  14.997  0.1555  0.1293  0.4011
 3024DOPE   NH335475  29.626  22.442  16.693 -0.0763  0.1425  0.0839
 3024DOPE   PO435476  29.351  22.591  16.652  0.3046  0.2388  0.0465
 3024DOPE   GL135477  29.382  22.612  16.287 -0.1939 -0.0249 -0.2910
 3024DOPE   GL235478  29.644  22.694  16.176  0.2256  0.0542 -0.0732
 3024DOPE   C1A35479  29.270  22.414  15.893 -0.0490 -0.2003 -0.1291
 3024DOPE   D2A35480  29.480  22.205  15.566 -0.2462  0.0328  0.1044
 3024DOPE   C3A35481  29.645  22.271  15.155 -0.0346  0.2089  0.6103
 3024DOPE   C4A35482  29.809  22.264  14.721 -0.0415 -0.0543 -0.2131
 3024DOPE   C1B35483  30.005  22.703  15.904  0.1107  0.1021 -0.1200
 3024DOPE   D2B35484  30.379  22.782  15.709 -0.0844 -0.1727  0.3714
 3024DOPE   C3B35485  30.366  22.774  15.268  0.2206  0.1251 -0.0278
 3024DOPE   C4B35486  30.153  22.589  14.861 -0.0152 -0.1527 -0.2205
 3025POSM   NC335487  30.189  12.053  16.813 -0.0707  0.0274 -0.2513
 3025POSM   PO435488  30.187  11.715  16.680 -0.2095  0.1801 -0.0243
 3025POSM   AM135489  29.933  11.846  16.491 -0.1881  0.0014  0.1099
 3025POSM   AM235490  29.778  12.085  16.381  0.1165  0.1501  0.0749
 3025POSM   T1A35491  29.813  11.676  16.023  0.0076  0.3896 -0.0645
 3025POSM   C2A35492  29.910  11.682  15.606 -0.2357  0.1905 -0.1466
 3025POSM   C3A35493  30.336  11.511  15.416  0.1749 -0.0769 -0.3098
 3025POSM   C1B35494  29.865  12.191  16.092 -0.3060  0.1933 -0.0904
 3025POSM   D2B35495  30.098  12.161  15.709  0.0642  0.1085  0.1898
 3025POSM   C3B35496  30.080  12.396  15.370  0.0021  0.0077  0.0955
 3025POSM   C4B35497  30.399  12.579  15.040 -0.2632  0.2011  0.3966
 3026DOPE   NH335498  32.754  21.792  15.994 -0.0388  0.0382 -0.2521
 3026DOPE   PO435499  33.073  21.803  16.085 -0.1018 -0.4105 -0.1574
 3026DOPE   GL135500  33.036  21.560  15.644 -0.0150  0.1251 -0.4419
 3026DOPE   GL235501  33.247  21.573  15.383  0.1753 -0.2224  0.2019
 3026DOPE   C1A35502  32.707  21.425  15.367  0.1546 -0.3460  0.0834
 3026DOPE   D2A35503  32.451  21.197  15.071 -0.0560 -0.1537  0.1644
 3026DOPE   C3A35504  32.662  21.121  14.644 -0.0324 -0.2876  0.2771
 3026DOPE   C4A35505  32.733  21.356  14.165 -0.0437 -0.2581 -0.2593
 3026DOPE   C1B35506  32.970  21.616  14.997  0.0660 -0.1288  0.3173
 3026DOPE   D2B35507  33.026  21.472  14.532 -0.0271  0.1869 -0.1577
 3026DOPE   C3B35508  33.141  21.723  14.165  0.1892 -0.0934 -0.1321
 3026DOPE   C4B35509  33.033  22.170  13.987  0.0182  0.0946 -0.0813
 3027DOPE   NH335510  24.415  14.898  15.124  0.3581 -0.2803 -0.1538
 3027DOPE   PO435511  24.143  14.984  15.116  0.1880 -0.3080  0.0539
 3027DOPE   GL135512  24.152  15.147  14.834 -0.2132 -0.1685  0.0068
 3027DOPE   GL235513  24.270  15.013  14.583  0.0248 -0.0042 -0.2351
 3027DOPE   C1A35514  24.310  15.479  14.531  0.1421 -0.0665  0.2652
 3027DOPE   D2A35515  24.195  15.764  14.254  0.1394 -0.1865  0.1993
 3027DOPE   C3A35516  23.789  15.662  14.050 -0.3789 -0.0524 -0.1295
 3027DOPE   C4A35517  23.667  15.699  13.609  0.0230  0.0746 -0.0246
 3027DOPE   C1B35518  24.547  14.897  14.295  0.2607  0.1474  0.1112
 3027DOPE   D2B35519  24.824  14.683  13.979  0.0710  0.3063 -0.0908
 3027DOPE   C3B35520  24.849  14.291  13.695 -0.0805  0.0505 -0.2842
 3027DOPE   C4B35521  24.619  13.873  13.594 -0.0772 -0.2942  0.4353
 3028DOPE   NH335522  32.334  18.978  16.667  0.2146  0.2900  0.2904
 3028DOPE   PO435523  32.283  18.720  16.512 -0.1117  0.0468  0.3123
 3028DOPE   GL135524  32.090  18.679  16.266 -0.5302 -0.0569  0.2161
 3028DOPE   GL235525  31.778  18.639  16.310  0.0274  0.2004  0.1301
 3028DOPE   C1A35526  32.023  18.633  15.812 -0.1175 -0.0701  0.0126
 3028DOPE   D2A35527  31.971  18.583  15.353 -0.1977  0.0017  0.0316
 3028DOPE   C3A35528  31.764  18.844  15.086  0.3512  0.0162 -0.2183
 3028DOPE   C4A35529  31.591  19.058  14.729 -0.1830 -0.0384 -0.1026
 3028DOPE   C1B35530  31.869  18.261  16.049 -0.0544  0.1408  0.0972
 3028DOPE   D2B35531  32.074  18.040  15.669  0.1336 -0.2559 -0.0110
 3028DOPE   C3B35532  31.973  18.011  15.240 -0.2886  0.1335 -0.1687
 3028DOPE   C4B35533  31.677  17.926  14.913 -0.0676  0.0064  0.0171
 3029DOPE   NH335534  24.471  12.982  15.561  0.0084 -0.1414 -0.2419
 3029DOPE   PO435535  24.224  12.866  15.414 -0.1565  0.1470  0.0210
 3029DOPE   GL135536  24.219  12.710  15.060 -0.1042 -0.1173  0.2036
 3029DOPE   GL235537  24.389  12.929  14.913 -0.1524  0.4189  0.0027
 3029DOPE   C1A35538  24.268  12.220  15.135  0.2607 -0.0872 -0.0773
 3029DOPE   D2A35539  23.992  11.850  15.230  0.1808  0.1146  0.1247
 3029DOPE   C3A35540  23.843  11.477  15.019  0.1638  0.1426  0.2183
 3029DOPE   C4A35541  23.429  11.330  15.097  0.0734  0.0821 -0.0985
 3029DOPE   C1B35542  24.443  12.571  14.620 -0.3234 -0.1899 -0.2173
 3029DOPE   D2B35543  24.698  12.222  14.430  0.0234 -0.2844  0.1051
 3029DOPE   C3B35544  24.943  11.868  14.195  0.3820  0.2911  0.1859
 3029DOPE   C4B35545  25.127  11.721  13.719  0.3071  0.2656  0.2233
 3030POSM   NC335546  32.313  13.280  16.443 -0.1408  0.0886 -0.0133
 3030POSM   PO435547  31.982  13.445  16.436  0.0912 -0.1827  0.5836
 3030POSM   AM135548  32.136  13.601  16.180  0.1975  0.2272  0.0698
 3030POSM   AM235549  32.298  13.592  15.979 -0.2264 -0.0665 -0.0680
 3030POSM   T1A35550  32.320  14.090  16.037  0.0256  0.1090  0.1922
 3030POSM   C2A35551  32.519  14.425  15.815  0.1353  0.3644  0.0806
 3030POSM   C3A35552  32.730  14.590  15.455  0.0971  0.1166  0.0330
 3030POSM   C1B35553  32.089  13.712  15.760 -0.2666 -0.3926  0.0158
 3030POSM   D2B35554  31.987  13.902  15.333  0.0800  0.1060 -0.1977
 3030POSM   C3B35555  32.198  14.227  14.954  0.1888 -0.3644  0.1518
 3030POSM   C4B35556  32.376  14.340  14.521 -0.0142 -0.0247 -0.1510
 3031DOPE   NH335557  31.943  19.579  16.271 -0.1756  0.1891  0.1669
 3031DOPE   PO435558  32.112  19.817  16.366 -0.0460  0.3025  0.2391
 3031DOPE   GL135559  32.234  19.763  15.960 -0.1365 -0.2159  0.1719
 3031DOPE   GL235560  32.417  19.789  15.851  0.1997  0.2616 -0.1874
 3031DOPE   C1A35561  32.055  19.412  15.714  0.0045 -0.1939  0.0717
 3031DOPE   D2A35562  31.787  19.065  15.545 -0.1132  0.1919  0.0130
 3031DOPE   C3A35563  31.424  18.751  15.419 -0.1196 -0.0862 -0.1305
 3031DOPE   C4A35564  31.109  18.471  15.531  0.2005  0.0865  0.0791
 3031DOPE   C1B35565  32.617  19.899  15.401 -0.1193  0.1034 -0.1431
 3031DOPE   D2B35566  32.711  19.796  14.925  0.0287  0.3604  0.2959
 3031DOPE   C3B35567  32.435  20.030  14.663  0.0609 -0.0961 -0.0613
 3031DOPE   C4B35568  32.002  19.947  14.664  0.0603 -0.0989  0.2720
 3032DOPE   NH335569  32.030  22.113  15.909  0.1523  0.1126  0.0730
 3032DOPE   PO435570  32.349  22.152  15.857  0.2740 -0.0532  0.0428
 3032DOPE   GL135571  32.314  22.361  15.549 -0.0473 -0.1384 -0.0402
 3032DOPE   GL235572  32.586  22.393  15.508 -0.3815 -0.2450 -0.1937
 3032DOPE   C1A35573  32.092  22.102  15.215 -0.2018  0.0495  0.0403
 3032DOPE   D2A35574  31.939  21.842  14.842  0.0711 -0.0152  0.0272
 3032DOPE   C3A35575  32.197  21.960  14.479  0.0072 -0.3072  0.2108
 3032DOPE   C4A35576  32.259  22.288  14.230 -0.1796 -0.1464  0.2007
 3032DOPE   C1B35577  32.835  22.542  15.126  0.0889 -0.1304  0.1512
 3032DOPE   D2B35578  32.930  22.783  14.742 -0.2979 -0.3297 -0.2706
 3032DOPE   C3B35579  33.363  22.814  14.669  0.1008 -0.0914 -0.0132
 3032DOPE   C4B35580  33.665  22.820  14.297 -0.0216 -0.2511  0.1002
 3033POSM   NC335581  30.980  15.538  16.864 -0.0009  0.0589  0.1616
 3033POSM   PO435582  31.199  15.271  16.685  0.2145 -0.0434  0.2918
 3033POSM   AM135583  31.247  15.501  16.421 -0.2424 -0.3371 -0.1671
 3033POSM   AM235584  31.101  15.763  16.386 -0.0364  0.1381 -0.1111
 3033POSM   T1A35585  31.634  15.530  16.066  0.2414 -0.4410 -0.1757
 3033POSM   C2A35586  31.948  15.717  15.740  0.1564 -0.2017 -0.1460
 3033POSM   C3A35587  32.124  15.736  15.308 -0.0317 -0.2880 -0.0594
 3033POSM   C1B35588  31.163  15.819  16.058  0.0291 -0.2606 -0.4843
 3033POSM   D2B35589  31.442  15.945  15.722 -0.2071 -0.0345 -0.1771
 3033POSM   C3B35590  31.548  15.699  15.286 -0.2315 -0.0565 -0.0840
 3033POSM   C4B35591  31.865  15.386  15.130  0.0077  0.0325 -0.0963
 3034DOPC   NC335592  26.337  20.211  15.786 -0.2219  0.0810 -0.1974
 3034DOPC   PO435593  26.318  20.053  15.431 -0.0249 -0.2119  0.1619
 3034DOPC   GL135594  26.378  19.743  15.179 -0.0504  0.1160 -0.3074
 3034DOPC   GL235595  26.638  19.672  15.179  0.0192 -0.1096 -0.3081
 3034DOPC   C1A35596  26.103  19.429  14.996  0.1257  0.1785 -0.1401
 3034DOPC   D2A35597  26.098  19.303  14.504 -0.1014  0.4746 -0.0458
 3034DOPC   C3A35598  26.061  18.927  14.303  0.0773  0.2004 -0.1296
 3034DOPC   C4A35599  25.842  18.512  14.355  0.0904  0.4422  0.2739
 3034DOPC   C1B35600  26.611  19.591  14.714  0.1753 -0.1298  0.0664
 3034DOPC   D2B35601  26.396  19.632  14.338  0.2467 -0.2362 -0.1522
 3034DOPC   C3B35602  26.352  19.866  13.934 -0.1396  0.0466  0.0426
 3034DOPC   C4B35603  26.147  20.053  13.577 -0.1168 -0.0891  0.0518
 3035DOPE   NH335604  24.814  13.618  15.182 -0.0704 -0.0313  0.1057
 3035DOPE   PO435605  24.922  13.925  15.151  0.1464  0.2350  0.1452
 3035DOPE   GL135606  25.008  14.124  14.938 -0.3397 -0.2029  0.3666
 3035DOPE   GL235607  25.158  14.325  14.862 -0.3017 -0.2911 -0.1122
 3035DOPE   C1A35608  24.816  14.137  14.535 -0.0855  0.0198  0.0013
 3035DOPE   D2A35609  24.798  14.013  14.120  0.4086 -0.0796  0.0994
 3035DOPE   C3A35610  25.106  13.873  13.911 -0.0054 -0.1307 -0.0167
 3035DOPE   C4A35611  25.475  13.789  13.601 -0.1318  0.1245  0.0494
 3035DOPE   C1B35612  25.485  14.562  14.682  0.0809  0.2150 -0.1872
 3035DOPE   D2B35613  25.684  14.828  14.340 -0.1951  0.1912  0.1311
 3035DOPE   C3B35614  25.630  14.659  13.907 -0.0871  0.2513  0.1720
 3035DOPE   C4B35615  25.678  14.749  13.489  0.1215  0.0388  0.2807
 3036DOPC   NC335616  33.907  18.024  16.669  0.0945 -0.0156  0.1525
 3036DOPC   PO435617  33.595  17.790  16.534 -0.0947  0.0904  0.1880
 3036DOPC   GL135618  33.617  17.736  16.190 -0.2009  0.1007  0.0125
 3036DOPC   GL235619  33.579  17.381  16.083  0.0603  0.2404  0.1678
 3036DOPC   C1A35620  33.518  17.709  15.724  0.2114 -0.1044 -0.3952
 3036DOPC   D2A35621  33.550  17.705  15.270 -0.2747  0.0253 -0.1363
 3036DOPC   C3A35622  33.140  17.791  15.092  0.2419  0.0804  0.0375
 3036DOPC   C4A35623  32.905  17.787  14.695 -0.0458 -0.1734 -0.0039
 3036DOPC   C1B35624  33.651  17.190  15.671 -0.0316 -0.2301  0.0815
 3036DOPC   D2B35625  33.589  17.183  15.185 -0.0712  0.0893  0.0946
 3036DOPC   C3B35626  33.878  17.284  14.844  0.2592  0.1014 -0.1024
 3036DOPC   C4B35627  34.108  17.110  14.489  0.1015  0.0875  0.1932
 3037POSM   NC335628  24.313  11.006  16.015  0.0203 -0.0541  0.1296
 3037POSM   PO435629  24.354  11.320  15.749  0.2305  0.1169 -0.0663
 3037POSM   AM135630  24.356  11.323  15.447 -0.0226  0.2731  0.3921
 3037POSM   AM235631  24.425  11.145  15.230  0.2945  0.3638 -0.3455
 3037POSM   T1A35632  24.413  11.572  15.029  0.1677 -0.2975 -0.1710
 3037POSM   C2A35633  24.175  11.943  14.774  0.1454 -0.3462 -0.3210
 3037POSM   C3A35634  24.202  12.140  14.361  0.4145  0.0671  0.0037
 3037POSM   C1B35635  24.155  11.103  15.069  0.0656  0.0608  0.1568
 3037POSM   D2B35636  23.947  11.098  14.653  0.3802 -0.0686  0.1909
 3037POSM   C3B35637  24.148  11.392  14.332  0.2800 -0.0717 -0.2294
 3037POSM   C4B35638  24.505  11.705  14.343 -0.3939 -0.0664  0.1159
 3038DOPE   NH335639  31.538  13.728  16.539  0.0906 -0.2107  0.2653
 3038DOPE   PO435640  31.517  14.009  16.653  0.1660  0.2266 -0.0367
 3038DOPE   GL135641  31.406  14.093  16.288  0.0045 -0.0898  0.1770
 3038DOPE   GL235642  31.320  13.842  16.072  0.1626 -0.0252  0.3018
 3038DOPE   C1A35643  31.278  14.311  15.943 -0.1988 -0.1986 -0.2228
 3038DOPE   D2A35644  31.136  14.372  15.493  0.1370 -0.3043 -0.0574
 3038DOPE   C3A35645  31.204  14.227  15.036 -0.1766 -0.3112  0.0069
 3038DOPE   C4A35646  31.241  14.003  14.639 -0.3016  0.0158  0.2770
 3038DOPE   C1B35647  31.672  14.049  15.811 -0.0055  0.3558 -0.2198
 3038DOPE   D2B35648  31.965  14.399  15.772 -0.0737  0.2267 -0.2592
 3038DOPE   C3B35649  31.801  14.825  15.590 -0.0941  0.0194 -0.2910
 3038DOPE   C4B35650  31.556  15.266  15.626 -0.0882 -0.0523 -0.0424
 3039DOPE   NH335651  33.262  15.366  16.093 -0.0192 -0.0024 -0.0117
 3039DOPE   PO435652  33.463  15.485  16.347  0.1456 -0.2118  0.2520
 3039DOPE   GL135653  33.312  15.830  16.057 -0.2469 -0.2931 -0.0965
 3039DOPE   GL235654  33.047  15.817  16.047 -0.1599 -0.0902 -0.0355
 3039DOPE   C1A35655  33.534  16.166  15.914 -0.1276 -0.3194  0.4123
 3039DOPE   D2A35656  33.904  16.129  15.649  0.0665 -0.3826 -0.0996
 3039DOPE   C3A35657  33.849  15.843  15.259  0.4180  0.2882 -0.0282
 3039DOPE   C4A35658  33.562  15.565  15.033  0.1652  0.1635  0.3139
 3039DOPE   C1B35659  32.931  15.602  15.688 -0.0126  0.3859 -0.1678
 3039DOPE   D2B35660  32.613  15.558  15.379  0.2147  0.2704 -0.0622
 3039DOPE   C3B35661  32.407  15.602  14.942  0.1451  0.1130 -0.1198
 3039DOPE   C4B35662  32.540  15.570  14.511  0.1380  0.2144  0.1728
 3040POSM   NC335663  26.031  12.908  15.717  0.1081  0.1214  0.1440
 3040POSM   PO435664  26.188  13.031  16.053  0.0803 -0.1879  0.0603
 3040POSM   AM135665  26.441  12.931  15.854 -0.3094 -0.0162  0.0623
 3040POSM   AM235666  26.738  12.898  15.864  0.3340 -0.3206  0.3707
 3040POSM   T1A35667  26.533  13.004  15.334 -0.0733  0.4401 -0.0184
 3040POSM   C2A35668  26.820  12.997  14.933  0.2501  0.0375  0.0010
 3040POSM   C3A35669  26.890  13.152  14.521  0.1474  0.4673 -0.0009
 3040POSM   C1B35670  26.944  12.780  15.603  0.0264  0.0263 -0.1392
 3040POSM   D2B35671  27.214  12.559  15.288  0.3253  0.0943 -0.1783
 3040POSM   C3B35672  27.085  12.541  14.807  0.4132  0.0121 -0.0966
 3040POSM   C4B35673  26.901  12.653  14.410 -0.2041  0.1142 -0.0013
 3041DOPS   CNO35674  30.580  14.188  16.801  0.0133 -0.0016  0.1081
 3041DOPS   PO435675  30.568  13.797  16.771  0.0323 -0.1680 -0.0669
 3041DOPS   GL135676  30.403  13.539  16.526  0.1556 -0.0523  0.1262
 3041DOPS   GL235677  30.321  13.760  16.323  0.4231 -0.1514 -0.1844
 3041DOPS   C1A35678  30.458  13.260  16.191 -0.2804  0.1691  0.0352
 3041DOPS   D2A35679  30.494  13.232  15.740 -0.1577 -0.2806 -0.0069
 3041DOPS   C3A35680  30.565  13.527  15.365  0.0078  0.2322  0.0752
 3041DOPS   C4A35681  30.328  13.779  15.068 -0.2255 -0.1323  0.3503
 3041DOPS   C1B35682  30.453  13.710  15.910  0.1625  0.0421 -0.0226
 3041DOPS   D2B35683  30.371  13.931  15.535 -0.0924  0.1356  0.1836
 3041DOPS   C3B35684  30.636  14.225  15.308  0.2536 -0.0830 -0.0745
 3041DOPS   C4B35685  30.764  14.407  14.871  0.0713  0.1758 -0.0556
 3042DOPC   NC335686  27.142  22.361  15.484  0.2266 -0.0178 -0.0374
 3042DOPC   PO435687  26.732  22.257  15.469 -0.0089 -0.2699 -0.0291
 3042DOPC   GL135688  26.797  22.302  15.079 -0.1321 -0.1570  0.1683
 3042DOPC   GL235689  26.527  22.301  14.919  0.4284 -0.2496 -0.1813
 3042DOPC   C1A35690  26.917  22.271  14.660 -0.0697  0.1527  0.4968
 3042DOPC   D2A35691  26.854  22.226  14.241 -0.1015 -0.0723 -0.3727
 3042DOPC   C3A35692  26.913  22.277  13.777 -0.2086  0.0980 -0.0542
 3042DOPC   C4A35693  27.131  22.149  13.370  0.1380 -0.2148  0.0856
 3042DOPC   C1B35694  26.573  22.705  14.832  0.0114 -0.1291 -0.2144
 3042DOPC   D2B35695  26.640  23.144  14.713 -0.2697 -0.0599  0.0444
 3042DOPC   C3B35696  26.729  23.206  14.262  0.1771 -0.0583 -0.1260
 3042DOPC   C4B35697  26.626  23.485  13.954 -0.0070 -0.0564  0.2590
 3043POSM   NC335698  29.079  17.498  16.809  0.2635 -0.0183 -0.2653
 3043POSM   PO435699  28.709  17.540  16.847 -0.0127  0.0518 -0.1742
 3043POSM   AM135700  28.738  17.695  16.523  0.2128 -0.2843 -0.0129
 3043POSM   AM235701  28.917  17.560  16.312 -0.2553  0.0074 -0.1222
 3043POSM   T1A35702  28.490  17.814  16.096 -0.0331 -0.0847  0.2018
 3043POSM   C2A35703  28.506  17.816  15.663  0.1880  0.0564 -0.1334
 3043POSM   C3A35704  28.787  17.605  15.338 -0.0343 -0.0989  0.0782
 3043POSM   C1B35705  28.906  17.461  15.985 -0.1145  0.1749 -0.0015
 3043POSM   D2B35706  29.143  17.389  15.618  0.1174  0.2678 -0.3216
 3043POSM   C3B35707  29.280  17.296  15.179 -0.1245  0.1782  0.2637
 3043POSM   C4B35708  29.322  17.586  14.827 -0.0729 -0.5036  0.0776
 3044DOPE   NH335709  29.962  13.813  16.701 -0.1216  0.0974 -0.1154
 3044DOPE   PO435710  29.815  13.883  16.417  0.2151 -0.0336  0.0092
 3044DOPE   GL135711  29.911  13.652  16.074 -0.2389 -0.3194  0.4013
 3044DOPE   GL235712  29.633  13.522  15.976 -0.0304 -0.0186 -0.0259
 3044DOPE   C1A35713  30.031  13.522  15.644  0.1251  0.0698 -0.2707
 3044DOPE   D2A35714  29.893  13.558  15.159 -0.0264 -0.0612 -0.3365
 3044DOPE   C3A35715  29.603  13.443  14.794 -0.0247 -0.0264  0.4372
 3044DOPE   C4A35716  29.259  13.398  14.481 -0.0465 -0.0079  0.0329
 3044DOPE   C1B35717  29.537  13.774  15.598 -0.3160  0.1196  0.1866
 3044DOPE   D2B35718  29.387  13.639  15.169  0.0509 -0.0608  0.3095
 3044DOPE   C3B35719  29.120  13.250  14.960  0.1915  0.1195  0.0749
 3044DOPE   C4B35720  29.001  12.973  14.612  0.0562 -0.3379 -0.2144
 3045DOPS   CNO35721  28.403  12.173  16.061 -0.0962  0.1829 -0.1877
 3045DOPS   PO435722  28.560  11.970  16.334  0.3351 -0.0495 -0.0171
 3045DOPS   GL135723  28.660  11.753  15.955  0.1498 -0.1904  0.1084
 3045DOPS   GL235724  28.816  11.999  15.846 -0.0016  0.0805  0.2526
 3045DOPS   C1A35725  28.643  11.688  15.492  0.2707 -0.1648 -0.3477
 3045DOPS   D2A35726  28.426  11.847  15.117  0.1331  0.2665 -0.0986
 3045DOPS   C3A35727  28.598  11.633  14.746  0.1203 -0.2751 -0.1878
 3045DOPS   C4A35728  28.927  11.320  14.708  0.2235 -0.1576 -0.0997
 3045DOPS   C1B35729  28.583  12.177  15.546  0.1375  0.1638 -0.0390
 3045DOPS   D2B35730  28.484  12.352  15.136  0.1894  0.1306 -0.1645
 3045DOPS   C3B35731  28.631  12.428  14.688  0.2278 -0.0278 -0.0015
 3045DOPS   C4B35732  28.641  12.255  14.246 -0.2545  0.2882  0.1088
 3046DOPS   CNO35733  29.127  22.039  16.627  0.1818  0.2778 -0.2210
 3046DOPS   PO435734  28.877  21.739  16.575 -0.0749  0.1788  0.1182
 3046DOPS   GL135735  29.139  21.720  16.166  0.0457 -0.0230 -0.2570
 3046DOPS   GL235736  29.401  21.763  16.110 -0.0264 -0.0293  0.1479
 3046DOPS   C1A35737  29.099  21.931  15.757 -0.3184 -0.0455  0.0519
 3046DOPS   D2A35738  29.137  22.000  15.309 -0.2541  0.2538  0.0479
 3046DOPS   C3A35739  29.082  21.558  15.183  0.5683  0.1694  0.1684
 3046DOPS   C4A35740  29.235  21.295  14.791  0.0340  0.2218  0.1159
 3046DOPS   C1B35741  29.328  21.346  15.937 -0.0104  0.3421 -0.0344
 3046DOPS   D2B35742  29.426  20.999  15.606  0.0917  0.2260  0.0402
 3046DOPS   C3B35743  29.617  21.285  15.293  0.1386 -0.0564  0.3547
 3046DOPS   C4B35744  29.770  21.369  14.845 -0.2150 -0.2225 -0.0392
 3047DOPE   NH335745  33.252  11.946  15.856  0.2014 -0.2455 -0.1332
 3047DOPE   PO435746  33.572  11.882  15.912  0.2090  0.0686  0.4909
 3047DOPE   GL135747  33.714  11.892  15.619  0.2312 -0.0288  0.0191
 3047DOPE   GL235748  33.933  11.686  15.624  0.1312  0.2460 -0.2359
 3047DOPE   C1A35749  34.028  12.155  15.359  0.0949 -0.2038 -0.3285
 3047DOPE   D2A35750  34.374  12.429  15.296 -0.0799  0.0050  0.0706
 3047DOPE   C3A35751  34.250  12.749  15.007  0.2198 -0.0429 -0.0616
 3047DOPE   C4A35752  34.601  12.868  14.702  0.2669 -0.1296  0.0026
 3047DOPE   C1B35753  34.119  11.550  15.209  0.0997  0.1197  0.0234
 3047DOPE   D2B35754  33.890  11.511  14.788 -0.0070 -0.0656  0.0577
 3047DOPE   C3B35755  33.830  11.085  14.692  0.1533  0.1753 -0.3216
 3047DOPE   C4B35756  33.659  10.790  14.361 -0.2176 -0.1324 -0.2907
 3048DOPC   NC335757  29.671  14.604  16.131  0.0152 -0.0483  0.0831
 3048DOPC   PO435758  29.387  14.446  16.379 -0.2205  0.0209  0.0631
 3048DOPC   GL135759  29.358  14.266  16.100 -0.2028  0.2864  0.1010
 3048DOPC   GL235760  29.503  13.997  16.040 -0.1374 -0.4571  0.0547
 3048DOPC   C1A35761  29.372  14.274  15.641  0.0535  0.0320  0.3985
 3048DOPC   D2A35762  29.416  14.117  15.215  0.2378  0.1119 -0.0767
 3048DOPC   C3A35763  29.060  14.172  14.951  0.1423 -0.1851 -0.4798
 3048DOPC   C4A35764  28.994  14.453  14.574  0.0441  0.2267  0.2244
 3048DOPC   C1B35765  29.139  13.750  15.879  0.0428 -0.0060  0.1228
 3048DOPC   D2B35766  28.668  13.638  15.816  0.0014  0.2475 -0.2460
 3048DOPC   C3B35767  28.445  13.998  15.589  0.2144 -0.1048 -0.2439
 3048DOPC   C4B35768  28.560  14.137  15.190  0.1347  0.2106  0.0513
 3049DOPS   CNO35769  34.505  18.789  16.683  0.1930  0.1322 -0.1453
 3049DOPS   PO435770  34.182  18.527  16.629 -0.1718 -0.1015  0.1304
 3049DOPS   GL135771  33.851  18.489  16.256 -0.0864 -0.1209  0.0925
 3049DOPS   GL235772  33.953  18.611  16.084  0.2128  0.1024  0.0914
 3049DOPS   C1A35773  33.730  18.094  15.961 -0.2342 -0.0108 -0.0192
 3049DOPS   D2A35774  34.037  17.751  15.886  0.2628 -0.1024 -0.1333
 3049DOPS   C3A35775  34.124  17.523  15.495 -0.1416 -0.0824 -0.4027
 3049DOPS   C4A35776  34.046  17.075  15.296  0.1114 -0.0566  0.1553
 3049DOPS   C1B35777  34.225  18.832  15.790 -0.1205  0.2470 -0.3021
 3049DOPS   D2B35778  34.506  18.679  15.480 -0.1129  0.0634 -0.1362
 3049DOPS   C3B35779  34.413  18.424  15.103 -0.2236 -0.1036  0.0712
 3049DOPS   C4B35780  34.385  18.580  14.656  0.1423  0.0878 -0.0967
 3050DOPE   NH335781  26.517  21.930  15.922 -0.0927  0.0255  0.1942
 3050DOPE   PO435782  26.399  21.802  15.668  0.1767  0.2669 -0.2100
 3050DOPE   GL135783  26.779  21.775  15.526  0.2457  0.2984 -0.1946
 3050DOPE   GL235784  26.876  21.555  15.495  0.1038  0.1293 -0.1394
 3050DOPE   C1A35785  27.004  21.812  15.107  0.0307 -0.1394 -0.0282
 3050DOPE   D2A35786  27.311  21.511  14.860  0.0836 -0.3296 -0.4313
 3050DOPE   C3A35787  27.501  21.649  14.463 -0.1621 -0.0311  0.2212
 3050DOPE   C4A35788  27.659  21.635  14.027 -0.3947 -0.0779  0.1909
 3050DOPE   C1B35789  26.885  21.144  15.671 -0.1420  0.0714 -0.3142
 3050DOPE   D2B35790  27.041  20.797  15.392 -0.2457 -0.1392  0.2708
 3050DOPE   C3B35791  26.744  20.678  15.040  0.1284 -0.3890  0.4717
 3050DOPE   C4B35792  26.403  20.467  14.922  0.0721  0.1506  0.0292
 3051DOPE   NH335793  32.046  20.311  16.124  0.0886 -0.1017  0.1545
 3051DOPE   PO435794  32.204  20.214  15.809 -0.1871  0.2693 -0.0944
 3051DOPE   GL135795  32.175  20.048  15.413 -0.2842 -0.1992 -0.1916
 3051DOPE   GL235796  32.018  19.836  15.545 -0.3246  0.1125 -0.1886
 3051DOPE   C1A35797  32.223  19.744  15.045  0.2420 -0.1054  0.2237
 3051DOPE   D2A35798  32.294  19.480  14.697  0.0167  0.0287 -0.1548
 3051DOPE   C3A35799  32.558  19.111  14.529  0.3063  0.1549 -0.1399
 3051DOPE   C4A35800  32.608  18.629  14.614  0.0975 -0.1124  0.0928
 3051DOPE   C1B35801  31.553  19.692  15.402  0.0332  0.1539  0.1544
 3051DOPE   D2B35802  31.383  19.291  15.188  0.0717 -0.0736  0.2638
 3051DOPE   C3B35803  31.348  19.521  14.704 -0.1974  0.1311 -0.1708
 3051DOPE   C4B35804  31.264  19.654  14.256 -0.2976 -0.1502 -0.1058
 3052DOPE   NH335805  30.639  16.472  16.982 -0.0790 -0.0287 -0.1187
 3052DOPE   PO435806  30.386  16.403  16.770 -0.1520 -0.4192  0.1090
 3052DOPE   GL135807  30.292  16.493  16.478 -0.3439 -0.1186  0.4897
 3052DOPE   GL235808  30.326  16.821  16.511  0.0184 -0.0036  0.1125
 3052DOPE   C1A35809  30.501  16.535  16.069 -0.1338  0.0048  0.1051
 3052DOPE   D2A35810  30.614  16.621  15.666 -0.1784 -0.2246  0.3723
 3052DOPE   C3A35811  30.425  16.470  15.252 -0.3702 -0.2145 -0.5737
 3052DOPE   C4A35812  30.523  16.096  15.115 -0.2952  0.2903  0.2311
 3052DOPE   C1B35813  30.109  16.889  16.144 -0.2151 -0.0188 -0.0972
 3052DOPE   D2B35814  29.990  17.052  15.749 -0.1582  0.1938  0.2284
 3052DOPE   C3B35815  30.268  17.082  15.363  0.0205  0.0371  0.0165
 3052DOPE   C4B35816  30.218  17.359  14.961 -0.2985  0.2378 -0.2742
 3053DOPC   NC335817  33.569  21.831  16.308  0.1171  0.0099 -0.1157
 3053DOPC   PO435818  33.476  22.213  16.225 -0.3549  0.0853 -0.0615
 3053DOPC   GL135819  33.734  22.278  15.953  0.0572  0.0211 -0.0182
 3053DOPC   GL235820  33.918  22.063  15.951 -0.1844  0.0668 -0.0260
 3053DOPC   C1A35821  33.999  22.583  15.729  0.1626  0.2039 -0.1548
 3053DOPC   D2A35822  34.413  22.488  15.594 -0.0106  0.0676 -0.1774
 3053DOPC   C3A35823  34.568  22.325  15.264  0.0338  0.1701 -0.1354
 3053DOPC   C4A35824  34.738  22.097  14.869  0.0109 -0.2299 -0.0757
 3053DOPC   C1B35825  34.011  22.070  15.528 -0.1972 -0.3459  0.0901
 3053DOPC   D2B35826  34.037  22.347  15.213  0.0163  0.4646 -0.1901
 3053DOPC   C3B35827  34.225  22.178  14.826  0.1267 -0.1375  0.0672
 3053DOPC   C4B35828  34.354  21.753  14.558 -0.1256 -0.1290  0.4014
 3054POSM   NC335829  25.492  18.067  15.328  0.0501 -0.1594  0.0349
 3054POSM   PO435830  25.512  17.688  15.379 -0.1930 -0.3176 -0.0582
 3054POSM   AM135831  25.393  17.652  15.079 -0.5644 -0.3808  0.1676
 3054POSM   AM235832  25.239  17.792  14.859 -0.1651  0.2539  0.3304
 3054POSM   T1A35833  25.473  17.414  14.669  0.1926 -0.1137  0.0989
 3054POSM   C2A35834  25.286  17.067  14.459 -0.0266  0.1018  0.0800
 3054POSM   C3A35835  25.003  16.678  14.346 -0.1629 -0.1563 -0.2738
 3054POSM   C1B35836  24.945  17.633  14.751  0.0338  0.1203  0.4528
 3054POSM   D2B35837  24.859  17.246  14.592 -0.1421 -0.0047  0.0636
 3054POSM   C3B35838  24.667  16.862  14.673  0.1497 -0.2531  0.0367
 3054POSM   C4B35839  24.583  16.453  14.651  0.3528  0.2447 -0.2637
 3055POSM   NC335840  22.900  21.303  15.561  0.1165  0.1516  0.3077
 3055POSM   PO435841  22.926  20.912  15.434 -0.0948 -0.1073  0.1528
 3055POSM   AM135842  23.036  21.047  15.139 -0.0706  0.0485 -0.1949
 3055POSM   AM235843  23.285  21.012  14.957  0.0934  0.0402  0.0865
 3055POSM   T1A35844  22.995  21.438  14.893  0.2228 -0.0923  0.0866
 3055POSM   C2A35845  23.107  21.888  14.768  0.0759  0.2999 -0.0081
 3055POSM   C3A35846  22.884  22.271  14.629  0.1863  0.2601 -0.2871
 3055POSM   C1B35847  23.203  21.082  14.625 -0.1196  0.5102 -0.1692
 3055POSM   D2B35848  23.382  21.161  14.177  0.0067  0.3015  0.0041
 3055POSM   C3B35849  23.710  20.922  13.966  0.1148 -0.0426  0.0707
 3055POSM   C4B35850  24.101  20.744  13.799  0.1893  0.0253  0.0188
 3056DOPC   NC335851  28.226  15.629  16.516  0.1657  0.2099 -0.2650
 3056DOPC   PO435852  28.531  15.685  16.278  0.0210  0.4437 -0.0927
 3056DOPC   GL135853  28.483  15.688  15.805  0.0583  0.0525  0.1560
 3056DOPC   GL235854  28.341  15.959  15.931 -0.1863  0.0784 -0.0598
 3056DOPC   C1A35855  28.867  15.670  15.480  0.0522  0.2159 -0.0151
 3056DOPC   D2A35856  29.004  15.507  15.109  0.0461 -0.1529 -0.2581
 3056DOPC   C3A35857  29.054  15.082  14.955  0.2152 -0.2157 -0.0858
 3056DOPC   C4A35858  29.245  14.664  15.127  0.0548  0.2404  0.1898
 3056DOPC   C1B35859  28.544  16.035  15.542  0.2057  0.2081 -0.1002
 3056DOPC   D2B35860  28.682  15.964  15.145  0.0015 -0.2241  0.0245
 3056DOPC   C3B35861  28.716  16.321  14.861  0.0819 -0.1183 -0.0404
 3056DOPC   C4B35862  28.648  16.613  14.510  0.0665 -0.0041 -0.3910
 3057DOPC   NC335863  31.595  17.128  16.902  0.0486 -0.0800  0.1278
 3057DOPC   PO435864  31.353  17.421  16.873 -0.0634  0.1855  0.1698
 3057DOPC   GL135865  31.004  17.311  16.591  0.0975  0.0285 -0.3929
 3057DOPC   GL235866  31.007  17.091  16.482  0.0185  0.1659  0.0323
 3057DOPC   C1A35867  31.069  17.463  16.130  0.0765 -0.1456  0.3374
 3057DOPC   D2A35868  31.208  17.563  15.742  0.1448  0.0207  0.3565
 3057DOPC   C3A35869  31.506  17.264  15.586 -0.1733 -0.0499  0.0628
 3057DOPC   C4A35870  31.951  17.164  15.588  0.3283  0.2122  0.1039
 3057DOPC   C1B35871  30.615  17.229  16.245  0.3130 -0.0125 -0.0671
 3057DOPC   D2B35872  30.480  17.163  15.802  0.1724  0.0233  0.1864
 3057DOPC   C3B35873  30.680  17.423  15.440 -0.3460 -0.0251 -0.1537
 3057DOPC   C4B35874  30.618  17.717  15.093 -0.0146 -0.1028  0.4826
 3058DOPS   CNO35875  23.744  19.171  15.446  0.0714  0.1175 -0.1136
 3058DOPS   PO435876  24.022  19.225  15.218  0.3961 -0.0770  0.0037
 3058DOPS   GL135877  24.065  19.535  14.918  0.2469 -0.2058  0.1538
 3058DOPS   GL235878  23.847  19.407  14.758 -0.3573  0.1943  0.1809
 3058DOPS   C1A35879  24.429  19.726  14.639  0.1194 -0.2099  0.0462
 3058DOPS   D2A35880  24.710  19.917  14.428  0.1745 -0.1140  0.1264
 3058DOPS   C3A35881  24.957  19.804  14.079  0.0181  0.1610 -0.0133
 3058DOPS   C4A35882  25.404  19.598  13.919 -0.1016 -0.3854 -0.1575
 3058DOPS   C1B35883  23.867  19.810  14.493 -0.1676  0.0164  0.0486
 3058DOPS   D2B35884  24.151  20.052  14.204  0.2207  0.2507  0.1386
 3058DOPS   C3B35885  24.380  19.719  14.049  0.1930  0.1451  0.2024
 3058DOPS   C4B35886  24.553  19.819  13.638 -0.1686  0.0680  0.1206
 3059DOPE   NH335887  30.948  12.548  16.770 -0.1105  0.2012  0.2427
 3059DOPE   PO435888  30.684  12.605  16.591  0.1160 -0.0859 -0.0781
 3059DOPE   GL135889  30.466  12.619  16.352  0.0583 -0.1048  0.1981
 3059DOPE   GL235890  30.182  12.450  16.413 -0.1616  0.1613  0.0071
 3059DOPE   C1A35891  30.388  12.783  15.904 -0.0860  0.2799  0.2958
 3059DOPE   D2A35892  30.220  12.927  15.456 -0.1583 -0.2244 -0.2939
 3059DOPE   C3A35893  29.918  12.840  15.135  0.3061  0.0338  0.1421
 3059DOPE   C4A35894  29.855  12.552  14.817 -0.2892 -0.3750  0.2685
 3059DOPE   C1B35895  30.100  12.861  16.351  0.1541 -0.4351 -0.0347
 3059DOPE   D2B35896  30.033  13.175  16.012  0.1309  0.0828  0.2539
 3059DOPE   C3B35897  29.789  13.096  15.602  0.1444  0.1128  0.0694
 3059DOPE   C4B35898  29.506  13.128  15.252 -0.0919 -0.0789  0.0229
 3060DOPS   CNO35899  32.269  15.676  16.721 -0.3346  0.0139 -0.0956
 3060DOPS   PO435900  32.306  16.037  16.636  0.1264  0.0355  0.3013
 3060DOPS   GL135901  32.216  16.151  16.295  0.0840  0.1536  0.0985
 3060DOPS   GL235902  32.302  15.957  16.133  0.1743 -0.0133 -0.1062
 3060DOPS   C1A35903  32.170  16.555  16.092  0.4268 -0.1343  0.2120
 3060DOPS   D2A35904  32.032  16.961  16.057  0.0075  0.1599  0.0234
 3060DOPS   C3A35905  32.361  17.213  16.231  0.2048  0.0632 -0.0301
 3060DOPS   C4A35906  32.626  17.555  16.133 -0.0609  0.0037  0.2923
 3060DOPS   C1B35907  32.321  16.016  15.680 -0.0373  0.0216  0.1362
 3060DOPS   D2B35908  32.450  16.086  15.267 -0.1822 -0.0783 -0.0895
 3060DOPS   C3B35909  32.129  16.086  14.906 -0.2560 -0.3710  0.1487
 3060DOPS   C4B35910  31.872  15.733  14.837  0.1035  0.1975 -0.1323
 3061DOPE   NH335911  34.356  13.284  12.392 -0.0408  0.1363  0.1502
 3061DOPE   PO435912  34.188  13.417  12.666 -0.0687  0.2257  0.0658
 3061DOPE   GL135913  34.404  13.261  12.885  0.1834  0.0296  0.2337
 3061DOPE   GL235914  34.509  12.992  12.867  0.1179  0.1374  0.2103
 3061DOPE   C1A35915  34.062  12.985  13.146 -0.0672  0.1277  0.2956
 3061DOPE   D2A35916  33.809  12.831  13.543  0.3821 -0.2000 -0.0181
 3061DOPE   C3A35917  33.986  12.780  13.965  0.1858  0.1581 -0.4645
 3061DOPE   C4A35918  34.385  12.494  14.042  0.0973 -0.1972 -0.1732
 3061DOPE   C1B35919  34.846  13.351  12.874 -0.2941  0.0159  0.0323
 3061DOPE   D2B35920  35.211  13.517  12.715  0.0200 -0.1682 -0.1323
 3061DOPE   C3B35921  35.593  13.488  12.447 -0.2809 -0.2620  0.4648
 3061DOPE   C4B35922  35.967  13.221  12.350  0.1191  0.0038  0.3685
 3062DOPS   CNO35923  25.042  15.289  11.997 -0.1137  0.1748 -0.0480
 3062DOPS   PO435924  25.306  15.061  12.119 -0.0558  0.0281 -0.2508
 3062DOPS   GL135925  25.406  15.247  12.429 -0.1562 -0.1777 -0.1776
 3062DOPS   GL235926  25.263  14.999  12.600  0.0513  0.1189  0.0809
 3062DOPS   C1A35927  25.783  15.186  12.742  0.0015 -0.3351 -0.0158
 3062DOPS   D2A35928  25.922  15.088  13.112  0.0341 -0.1131 -0.0989
 3062DOPS   C3A35929  26.180  14.782  13.373  0.1793  0.2467 -0.1096
 3062DOPS   C4A35930  26.060  14.501  13.704  0.0891 -0.0462 -0.2230
 3062DOPS   C1B35931  25.079  14.953  13.013 -0.2373 -0.0596  0.2091
 3062DOPS   D2B35932  24.741  14.823  13.287 -0.3926  0.1262  0.0978
 3062DOPS   C3B35933  24.453  14.947  13.672  0.3186 -0.1740 -0.0268
 3062DOPS   C4B35934  23.994  14.862  13.853  0.3657 -0.0259  0.1834
 3063DOPE   NH335935  31.083  14.592  13.124  0.0621  0.2689  0.2399
 3063DOPE   PO435936  31.247  14.609  12.858 -0.4247 -0.1087 -0.1771
 3063DOPE   GL135937  31.610  14.418  13.024  0.3111  0.1634  0.2890
 3063DOPE   GL235938  31.708  14.491  12.743 -0.0369  0.0939  0.1888
 3063DOPE   C1A35939  31.809  14.451  13.401  0.0530 -0.1684 -0.0112
 3063DOPE   D2A35940  31.999  14.733  13.744 -0.0568  0.1889  0.2339
 3063DOPE   C3A35941  31.916  14.772  14.168 -0.0494 -0.2834  0.1840
 3063DOPE   C4A35942  31.543  14.641  14.474  0.0024  0.2726 -0.2420
 3063DOPE   C1B35943  31.941  14.142  12.858  0.1582  0.1240 -0.2952
 3063DOPE   D2B35944  32.123  14.084  13.269 -0.0580  0.2973  0.2323
 3063DOPE   C3B35945  32.400  13.726  13.326 -0.1341  0.2149  0.0390
 3063DOPE   C4B35946  32.459  13.485  13.711  0.1204 -0.0724  0.3022
 3064DOPE   NH335947  33.826  13.210  12.103 -0.2009 -0.3565 -0.1492
 3064DOPE   PO435948  33.645  12.953  12.133  0.1427 -0.3461  0.0419
 3064DOPE   GL135949  33.469  13.275  12.416 -0.0417 -0.2943 -0.1605
 3064DOPE   GL235950  33.701  13.239  12.638 -0.1370  0.2104  0.0740
 3064DOPE   C1A35951  32.976  13.307  12.386  0.2065 -0.4596  0.1847
 3064DOPE   D2A35952  32.567  13.527  12.643  0.1563  0.1217  0.1770
 3064DOPE   C3A35953  32.365  13.896  12.776  0.1169  0.0209  0.1100
 3064DOPE   C4A35954  32.371  14.370  12.956 -0.0438  0.0271 -0.0186
 3064DOPE   C1B35955  33.514  13.240  13.044 -0.1866 -0.1165 -0.0955
 3064DOPE   D2B35956  33.427  13.215  13.503  0.2574 -0.0926 -0.3756
 3064DOPE   C3B35957  33.303  13.457  13.908 -0.2412 -0.2362 -0.2317
 3064DOPE   C4B35958  33.202  13.487  14.377  0.0612  0.1981  0.2264
 3065DOPC   NC335959  33.809  14.110  12.403  0.0182  0.1557 -0.0879
 3065DOPC   PO435960  33.841  13.702  12.342  0.0672 -0.0801  0.4871
 3065DOPC   GL135961  33.470  13.849  12.567 -0.0554  0.1847  0.1219
 3065DOPC   GL235962  33.468  14.064  12.807  0.2044 -0.1006  0.3133
 3065DOPC   C1A35963  33.075  13.670  12.792 -0.1850 -0.2836  0.2345
 3065DOPC   D2A35964  33.009  13.369  13.138 -0.0597 -0.0271  0.1152
 3065DOPC   C3A35965  32.928  13.342  13.516 -0.1009 -0.0556 -0.1667
 3065DOPC   C4A35966  32.941  13.076  13.885  0.1957  0.0252 -0.0218
 3065DOPC   C1B35967  33.026  14.137  12.888 -0.0407 -0.2135  0.2263
 3065DOPC   D2B35968  32.699  13.997  13.133 -0.0561 -0.2243 -0.1532
 3065DOPC   C3B35969  32.638  14.257  13.445  0.1082  0.1002  0.1637
 3065DOPC   C4B35970  32.349  14.351  13.745 -0.1472 -0.3548 -0.1067
 3066DOPC   NC335971  24.762  19.421  11.814  0.0457 -0.0220 -0.0993
 3066DOPC   PO435972  24.686  19.811  11.737  0.4493  0.1215  0.2338
 3066DOPC   GL135973  25.021  19.850  12.016  0.1518 -0.0432  0.3450
 3066DOPC   GL235974  25.106  19.598  12.090  0.0534  0.1270  0.4272
 3066DOPC   C1A35975  25.402  20.020  11.907 -0.0900 -0.0960 -0.0126
 3066DOPC   D2A35976  25.741  20.282  12.086  0.2676 -0.0507 -0.0647
 3066DOPC   C3A35977  25.617  20.454  12.519 -0.0075  0.1208 -0.2316
 3066DOPC   C4A35978  25.741  20.618  12.967 -0.0162 -0.1276  0.1272
 3066DOPC   C1B35979  25.194  19.248  12.337  0.0898  0.0737  0.0917
 3066DOPC   D2B35980  25.450  18.898  12.568 -0.1606 -0.0829 -0.2559
 3066DOPC   C3B35981  25.540  19.149  12.932 -0.0549 -0.0523  0.0373
 3066DOPC   C4B35982  25.778  19.233  13.344 -0.0404 -0.3949 -0.0678
 3067DOPE   NH335983  23.655  20.209  11.831  0.2686 -0.0605 -0.2105
 3067DOPE   PO435984  23.446  20.093  12.051 -0.1883 -0.0184 -0.0028
 3067DOPE   GL135985  23.370  20.037  12.384  0.2285 -0.4892 -0.1235
 3067DOPE   GL235986  23.347  20.331  12.489  0.1751 -0.2071  0.1460
 3067DOPE   C1A35987  23.215  19.689  12.576 -0.3636 -0.0010  0.1983
 3067DOPE   D2A35988  22.807  19.465  12.633 -0.0884 -0.1158 -0.1858
 3067DOPE   C3A35989  22.614  19.881  12.690  0.1664 -0.1226 -0.1433
 3067DOPE   C4A35990  22.452  20.317  12.689  0.0153 -0.2148 -0.0037
 3067DOPE   C1B35991  23.057  20.276  12.812  0.0620  0.2300  0.2434
 3067DOPE   D2B35992  22.724  20.439  13.066  0.2020  0.4182 -0.0169
 3067DOPE   C3B35993  22.439  20.137  13.189 -0.0269 -0.1407  0.1513
 3067DOPE   C4B35994  22.067  19.896  13.020 -0.1282 -0.3148  0.1065
 3068DOPE   NH335995  34.521  21.605  12.542 -0.1443 -0.0122  0.2224
 3068DOPE   PO435996  34.419  21.511  12.813 -0.0650  0.0448  0.3611
 3068DOPE   GL135997  34.249  21.582  13.077  0.0878 -0.0093 -0.3352
 3068DOPE   GL235998  33.994  21.523  13.075  0.1328 -0.0960  0.0514
 3068DOPE   C1A35999  34.291  21.192  13.378 -0.0032 -0.1303  0.0705
 3068DOPE   D2A36000  34.608  20.991  13.550 -0.2363  0.2000 -0.0774
 3068DOPE   C3A36001  34.772  20.850  13.968 -0.1198 -0.3160  0.0444
 3068DOPE   C4A36002  35.116  21.119  14.204 -0.1734 -0.1573 -0.0325
 3068DOPE   C1B36003  33.775  21.701  13.435  0.0539  0.1354 -0.1510
 3068DOPE   D2B36004  33.486  21.542  13.778  0.2334 -0.0192 -0.1273
 3068DOPE   C3B36005  33.034  21.497  13.745  0.0440  0.0123  0.2538
 3068DOPE   C4B36006  32.739  21.828  13.868 -0.2166  0.1220 -0.2486
 3069DOPE   NH336007  29.614  16.704  12.721  0.1842 -0.0205 -0.3208
 3069DOPE   PO436008  29.811  16.602  12.958 -0.1018 -0.2743 -0.0435
 3069DOPE   GL136009  29.842  16.923  13.117 -0.0336 -0.0358  0.2349
 3069DOPE   GL236010  30.125  16.844  13.282 -0.1092  0.1735 -0.1063
 3069DOPE   C1A36011  29.743  17.214  13.463  0.0216  0.0786 -0.2083
 3069DOPE   D2A36012  29.874  17.486  13.880 -0.2657  0.0972 -0.0201
 3069DOPE   C3A36013  30.038  17.336  14.320 -0.0266 -0.1179 -0.1313
 3069DOPE   C4A36014  29.789  17.344  14.666 -0.2092  0.0893  0.1367
 3069DOPE   C1B36015  30.079  16.936  13.738 -0.0783 -0.0536  0.2450
 3069DOPE   D2B36016  30.041  16.838  14.177 -0.0263  0.2645  0.2663
 3069DOPE   C3B36017  29.671  16.927  14.459 -0.1396  0.0763 -0.0800
 3069DOPE   C4B36018  29.436  16.976  14.808  0.2968 -0.3274 -0.0845
 3070POSM   NC336019  23.847  20.036  12.437  0.0602  0.1204  0.0667
 3070POSM   PO436020  24.034  20.239  12.143 -0.0235  0.3115 -0.2534
 3070POSM   AM136021  24.343  20.256  12.329  0.0423 -0.0787 -0.0022
 3070POSM   AM236022  24.429  20.108  12.566 -0.0012  0.0785 -0.0290
 3070POSM   T1A36023  24.758  20.488  12.506  0.2978  0.1578  0.1069
 3070POSM   C2A36024  25.145  20.710  12.635  0.0054 -0.2792  0.1359
 3070POSM   C3A36025  25.417  21.018  12.501 -0.2153  0.0443 -0.1875
 3070POSM   C1B36026  24.717  20.037  12.803  0.2331 -0.0109 -0.0533
 3070POSM   D2B36027  25.189  20.144  12.904  0.0581 -0.0579  0.2041
 3070POSM   C3B36028  25.303  20.490  13.201  0.0060 -0.1696 -0.0296
 3070POSM   C4B36029  25.363  20.940  13.054  0.1091 -0.1323  0.0342
 3071DOPE   NH336030  27.744  19.561  12.693 -0.2472  0.2471 -0.0930
 3071DOPE   PO436031  27.510  19.337  12.789  0.0895 -0.1200 -0.1013
 3071DOPE   GL136032  27.182  19.532  12.832 -0.4773 -0.3088 -0.0486
 3071DOPE   GL236033  26.995  19.533  12.583  0.1009 -0.1088 -0.1032
 3071DOPE   C1A36034  27.071  19.602  13.282 -0.2619 -0.1475  0.0295
 3071DOPE   D2A36035  27.158  19.818  13.672  0.1274  0.1041  0.1120
 3071DOPE   C3A36036  26.811  20.104  13.734  0.1795 -0.4440  0.1782
 3071DOPE   C4A36037  26.525  20.406  13.925  0.1380  0.1198  0.1733
 3071DOPE   C1B36038  26.672  19.543  12.918  0.0309 -0.3687 -0.2874
 3071DOPE   D2B36039  26.280  19.744  12.815  0.0226 -0.2685  0.0866
 3071DOPE   C3B36040  25.971  19.790  13.216 -0.3628  0.1350 -0.0401
 3071DOPE   C4B36041  25.933  19.583  13.651  0.3548  0.1648  0.1036
 3072POSM   NC336042  31.165  18.263  12.991 -0.0306  0.1373 -0.0954
 3072POSM   PO436043  30.906  18.482  12.818 -0.3680 -0.1294 -0.2513
 3072POSM   AM136044  30.886  18.675  13.084 -0.1759 -0.0881  0.1285
 3072POSM   AM236045  30.870  18.565  13.345 -0.1473 -0.1448 -0.1058
 3072POSM   T1A36046  30.809  19.132  13.242  0.0791 -0.0532  0.3738
 3072POSM   C2A36047  30.584  19.419  13.049 -0.2638  0.2386 -0.2811
 3072POSM   C3A36048  30.265  19.606  12.699 -0.0587 -0.0329  0.1760
 3072POSM   C1B36049  30.809  18.707  13.686 -0.0161  0.0942  0.0288
 3072POSM   D2B36050  30.509  18.761  14.073  0.1042 -0.1189  0.0639
 3072POSM   C3B36051  30.370  18.859  14.513 -0.2526 -0.1249 -0.0072
 3072POSM   C4B36052  30.304  19.226  14.811 -0.3008 -0.0004 -0.1559
 3073POSM   NC336053  24.085  11.507  12.349  0.2429  0.0365 -0.0731
 3073POSM   PO436054  23.791  11.675  12.133 -0.0104 -0.1267  0.0790
 3073POSM   AM136055  23.609  11.788  12.411 -0.0152 -0.0054  0.1356
 3073POSM   AM236056  23.663  11.728  12.662  0.2954  0.0584  0.1119
 3073POSM   T1A36057  23.541  12.205  12.650 -0.0316  0.2752  0.3223
 3073POSM   C2A36058  23.908  12.387  12.845 -0.2275 -0.0722 -0.1257
 3073POSM   C3A36059  24.221  12.740  12.817  0.1303 -0.0431  0.0173
 3073POSM   C1B36060  23.839  11.732  12.905 -0.3221 -0.1974 -0.3134
 3073POSM   D2B36061  23.954  11.656  13.373  0.1634  0.0434  0.3257
 3073POSM   C3B36062  23.749  12.060  13.542  0.0071 -0.0147 -0.2535
 3073POSM   C4B36063  23.689  12.485  13.738 -0.3991  0.1802 -0.0027
 3074DOPC   NC336064  33.770  20.015  12.179 -0.1963  0.2412  0.1133
 3074DOPC   PO436065  33.613  20.354  12.031 -0.1274  0.1544 -0.0263
 3074DOPC   GL136066  33.289  20.566  12.035 -0.0491  0.0298  0.0805
 3074DOPC   GL236067  33.062  20.475  12.109 -0.2364  0.1206 -0.0334
 3074DOPC   C1A36068  33.377  21.022  11.987 -0.0559  0.0076 -0.2860
 3074DOPC   D2A36069  33.289  21.440  12.214 -0.2611  0.0512  0.1498
 3074DOPC   C3A36070  33.769  21.568  12.189 -0.1919 -0.0452 -0.2259
 3074DOPC   C4A36071  34.044  21.911  12.361 -0.2177 -0.2715 -0.1302
 3074DOPC   C1B36072  32.676  20.507  12.199 -0.1311 -0.0636 -0.0108
 3074DOPC   D2B36073  32.266  20.723  12.235 -0.2899  0.4089  0.2110
 3074DOPC   C3B36074  31.954  20.377  12.315  0.1442  0.0136  0.0484
 3074DOPC   C4B36075  31.699  20.018  12.200  0.1144 -0.1383  0.2171
 3075DOPC   NC336076  30.631  21.178  12.567  0.4769  0.0257  0.2147
 3075DOPC   PO436077  30.839  21.208  12.210 -0.1537 -0.0924  0.1445
 3075DOPC   GL136078  31.126  20.962  12.334  0.0520  0.3387 -0.2499
 3075DOPC   GL236079  31.337  21.199  12.451  0.2546  0.0888 -0.3039
 3075DOPC   C1A36080  31.105  20.703  12.758  0.0015  0.0476  0.0427
 3075DOPC   D2A36081  31.253  20.521  13.172  0.1168  0.0569  0.1631
 3075DOPC   C3A36082  31.341  20.534  13.634 -0.2640  0.0442  0.0911
 3075DOPC   C4A36083  31.379  20.419  14.100 -0.1500 -0.0331 -0.0172
 3075DOPC   C1B36084  31.715  21.273  12.620 -0.0736  0.0887 -0.1525
 3075DOPC   D2B36085  31.939  21.217  13.062 -0.0444  0.0783 -0.2453
 3075DOPC   C3B36086  31.668  21.198  13.389 -0.1502 -0.1617 -0.1937
 3075DOPC   C4B36087  31.603  21.450  13.778  0.0879 -0.1602 -0.1221
 3076DOPC   NC336088  26.993  17.616  12.526 -0.1700 -0.0854  0.1081
 3076DOPC   PO436089  26.914  17.404  12.231  0.0862 -0.1925 -0.4270
 3076DOPC   GL136090  27.230  17.263  12.400  0.0571 -0.1949  0.0819
 3076DOPC   GL236091  27.410  17.327  12.168  0.1932 -0.0289  0.2184
 3076DOPC   C1A36092  27.431  16.930  12.707  0.4428 -0.0501  0.3156
 3076DOPC   D2A36093  27.691  16.538  12.795  0.1172  0.2868  0.1010
 3076DOPC   C3A36094  27.569  16.083  12.888 -0.1802 -0.2476  0.2454
 3076DOPC   C4A36095  27.371  15.659  12.843  0.1131  0.1430 -0.1378
 3076DOPC   C1B36096  27.862  17.311  11.977 -0.0724  0.0120 -0.0364
 3076DOPC   D2B36097  28.296  17.172  12.067  0.6109  0.0231  0.3306
 3076DOPC   C3B36098  28.403  16.918  12.482 -0.3029 -0.1937  0.2339
 3076DOPC   C4B36099  28.166  16.719  12.814 -0.1891 -0.1502  0.0684
 3077DOPE   NH336100  29.800  11.487  13.164 -0.1221  0.1212  0.1853
 3077DOPE   PO436101  30.040  11.571  12.922  0.3874 -0.1834  0.0369
 3077DOPE   GL136102  30.058  11.919  13.126  0.0673  0.0998  0.1217
 3077DOPE   GL236103  30.077  12.069  12.844  0.4906  0.2523  0.1585
 3077DOPE   C1A36104  29.920  12.322  13.319 -0.0408 -0.0016 -0.0959
 3077DOPE   D2A36105  29.844  12.658  13.644  0.0993  0.0081 -0.1829
 3077DOPE   C3A36106  30.123  12.597  14.017 -0.1807 -0.1074 -0.0625
 3077DOPE   C4A36107  30.247  12.543  14.482 -0.0921  0.0666  0.2506
 3077DOPE   C1B36108  30.019  12.483  12.825  0.0415  0.0877  0.0958
 3077DOPE   D2B36109  29.904  12.810  13.182 -0.2096 -0.0541 -0.0141
 3077DOPE   C3B36110  29.461  12.882  13.391 -0.0325 -0.0761  0.0531
 3077DOPE   C4B36111  29.427  13.093  13.810 -0.0935  0.0739 -0.0211
 3078POSM   NC336112  29.535  10.746  12.880  0.2415  0.0101  0.0264
 3078POSM   PO436113  29.494  11.046  13.159 -0.3156  0.0616 -0.0409
 3078POSM   AM136114  29.397  10.986  13.471 -0.1310  0.0227 -0.0242
 3078POSM   AM236115  29.525  11.133  13.679 -0.0758  0.1798  0.1796
 3078POSM   T1A36116  29.003  10.914  13.722  0.2308 -0.1062  0.2178
 3078POSM   C2A36117  28.743  10.654  13.911 -0.2692  0.2040 -0.2611
 3078POSM   C3A36118  28.273  10.479  13.946  0.2513 -0.0457 -0.1671
 3078POSM   C1B36119  29.626  11.313  13.970 -0.1443 -0.0175  0.0410
 3078POSM   D2B36120  29.586  11.407  14.416  0.1387 -0.0526 -0.3645
 3078POSM   C3B36121  29.735  11.731  14.732 -0.1880  0.1638  0.2143
 3078POSM   C4B36122  29.870  12.026  15.062 -0.2229 -0.2406 -0.1521
 3079DOPE   NH336123  23.698  20.602  12.166 -0.0147  0.3579 -0.0062
 3079DOPE   PO436124  24.002  20.742  12.067  0.1834 -0.2321  0.1247
 3079DOPE   GL136125  24.261  20.646  12.352  0.3756 -0.6266 -0.0211
 3079DOPE   GL236126  24.027  20.522  12.542 -0.4542  0.1592  0.1097
 3079DOPE   C1A36127  24.452  20.700  12.779  0.1491 -0.1421  0.0206
 3079DOPE   D2A36128  24.390  20.634  13.274  0.0947 -0.2391 -0.1758
 3079DOPE   C3A36129  24.579  20.889  13.644  0.0240 -0.2144  0.2088
 3079DOPE   C4A36130  24.411  21.190  13.920 -0.1820 -0.1300  0.1923
 3079DOPE   C1B36131  24.057  20.424  12.955  0.1180 -0.0328 -0.0270
 3079DOPE   D2B36132  23.876  20.472  13.348  0.0497  0.2146  0.3332
 3079DOPE   C3B36133  23.760  20.863  13.446 -0.3499 -0.0154 -0.0588
 3079DOPE   C4B36134  23.906  21.294  13.615 -0.0343 -0.1874  0.1423
 3080DOPC   NC336135  31.478  13.928  13.104  0.0136 -0.2366 -0.0163
 3080DOPC   PO436136  31.309  13.677  12.892  0.0396 -0.4628 -0.0967
 3080DOPC   GL136137  31.605  13.378  13.110  0.0647  0.0494  0.1089
 3080DOPC   GL236138  31.736  13.573  13.387 -0.0070  0.3187  0.4041
 3080DOPC   C1A36139  31.743  12.945  13.097  0.1206  0.0134 -0.1377
 3080DOPC   D2A36140  31.911  12.625  12.866  0.3339  0.1593  0.1054
 3080DOPC   C3A36141  32.205  12.401  13.091  0.3161  0.2244 -0.2004
 3080DOPC   C4A36142  32.638  12.372  13.145 -0.2193 -0.1222  0.0340
 3080DOPC   C1B36143  32.045  13.214  13.512 -0.4939 -0.2043  0.0547
 3080DOPC   D2B36144  32.177  12.850  13.314  0.4135  0.1071  0.2422
 3080DOPC   C3B36145  32.297  12.534  13.599 -0.1157 -0.2694  0.3386
 3080DOPC   C4B36146  32.614  12.201  13.773 -0.1758 -0.0693  0.3296
 3081POSM   NC336147  30.332  11.533  13.259  0.0253  0.0621 -0.0636
 3081POSM   PO436148  30.536  11.776  13.010  0.1238  0.0362  0.1369
 3081POSM   AM136149  30.482  12.021  13.216  0.2646 -0.0528  0.1580
 3081POSM   AM236150  30.338  11.984  13.482  0.1280  0.0427 -0.3992
 3081POSM   T1A36151  30.846  12.214  13.541 -0.2658  0.0008 -0.0858
 3081POSM   C2A36152  31.063  12.235  13.980 -0.1120 -0.0934  0.0893
 3081POSM   C3A36153  31.173  12.526  14.295 -0.0586 -0.0706 -0.0111
 3081POSM   C1B36154  30.275  12.076  13.785 -0.0219 -0.1179  0.1284
 3081POSM   D2B36155  30.489  12.136  14.221  0.1955  0.0411  0.0040
 3081POSM   C3B36156  30.669  12.576  14.224 -0.2159  0.0654  0.0787
 3081POSM   C4B36157  30.867  12.944  14.490  0.2325  0.1923  0.1746
 3082DOPE   NH336158  31.809  17.826  13.125  0.1389  0.0655 -0.0900
 3082DOPE   PO436159  31.494  17.891  13.177 -0.0200  0.3024 -0.0369
 3082DOPE   GL136160  31.761  18.058  13.508 -0.2769 -0.0562 -0.4700
 3082DOPE   GL236161  31.830  17.776  13.624 -0.1850  0.0007 -0.1096
 3082DOPE   C1A36162  31.774  18.470  13.708  0.0980  0.3456  0.0740
 3082DOPE   D2A36163  31.703  18.804  14.088  0.1047  0.1205  0.1734
 3082DOPE   C3A36164  31.740  18.581  14.479  0.0505 -0.4248  0.2188
 3082DOPE   C4A36165  31.905  18.378  14.869 -0.2658 -0.3770  0.0734
 3082DOPE   C1B36166  31.934  17.767  14.065  0.1343  0.2516 -0.0294
 3082DOPE   D2B36167  31.926  17.975  14.495 -0.1779 -0.0491 -0.2657
 3082DOPE   C3B36168  31.443  18.101  14.534 -0.3634 -0.1610  0.0088
 3082DOPE   C4B36169  31.020  18.177  14.483  0.0127 -0.3191 -0.1249
 3083DOPE   NH336170  24.022  15.188  11.951  0.2948  0.1621 -0.4771
 3083DOPE   PO436171  23.748  15.354  11.999  0.2115 -0.3009  0.0366
 3083DOPE   GL136172  23.857  15.292  12.420 -0.2268 -0.1039 -0.2254
 3083DOPE   GL236173  24.180  15.420  12.377 -0.1040  0.2646  0.0801
 3083DOPE   C1A36174  23.581  15.369  12.776  0.0261 -0.0338  0.1496
 3083DOPE   D2A36175  23.227  15.490  13.119 -0.0037 -0.2180  0.1780
 3083DOPE   C3A36176  23.458  15.870  13.249  0.0085  0.0333  0.0601
 3083DOPE   C4A36177  23.902  16.011  13.261 -0.0619 -0.1741 -0.0190
 3083DOPE   C1B36178  24.021  15.758  12.723 -0.0915  0.0883 -0.0528
 3083DOPE   D2B36179  24.082  16.138  12.858 -0.0650  0.1115 -0.1014
 3083DOPE   C3B36180  24.019  16.425  12.489  0.0238  0.2097  0.0170
 3083DOPE   C4B36181  23.984  16.632  12.074  0.0370 -0.1796 -0.0848
 3084DOPC   NC336182  28.338  18.563  12.341 -0.0951 -0.2738  0.3242
 3084DOPC   PO436183  28.015  18.592  12.494 -0.0453 -0.2448  0.0926
 3084DOPC   GL136184  27.946  18.741  12.822  0.1350  0.1560 -0.0270
 3084DOPC   GL236185  27.995  19.051  12.777 -0.1383  0.0742  0.0483
 3084DOPC   C1A36186  27.758  18.642  13.166  0.0441  0.1520  0.2588
 3084DOPC   D2A36187  27.666  18.424  13.592  0.0306  0.0023  0.1303
 3084DOPC   C3A36188  27.261  18.591  13.627  0.1570  0.1310  0.0219
 3084DOPC   C4A36189  26.888  18.697  13.801 -0.2656  0.0710 -0.0384
 3084DOPC   C1B36190  27.981  19.094  13.208  0.1259  0.0197  0.2154
 3084DOPC   D2B36191  28.178  18.746  13.435  0.2217  0.1890 -0.1300
 3084DOPC   C3B36192  28.102  18.446  13.772 -0.1168 -0.1485 -0.1862
 3084DOPC   C4B36193  27.917  18.000  13.774 -0.2078  0.4172  0.2043
 3085DOPE   NH336194  24.365  19.885  12.101  0.3339 -0.1115 -0.1052
 3085DOPE   PO436195  24.583  19.693  12.217  0.2786  0.0225 -0.0207
 3085DOPE   GL136196  24.764  19.656  12.494  0.2158  0.0329 -0.2198
 3085DOPE   GL236197  24.780  19.315  12.532 -0.0417  0.0621 -0.0177
 3085DOPE   C1A36198  25.107  19.658  12.775 -0.0492  0.0194  0.0737
 3085DOPE   D2A36199  25.512  19.692  12.994  0.0884  0.0764 -0.0057
 3085DOPE   C3A36200  25.454  19.795  13.463 -0.1059 -0.1303  0.1717
 3085DOPE   C4A36201  25.271  20.120  13.746  0.2538  0.1353  0.1067
 3085DOPE   C1B36202  24.680  19.417  12.920 -0.3102  0.0489 -0.0368
 3085DOPE   D2B36203  24.588  19.280  13.337  0.1165  0.0768  0.4019
 3085DOPE   C3B36204  24.291  19.056  13.586 -0.0864 -0.1049  0.2901
 3085DOPE   C4B36205  23.883  18.765  13.687 -0.0611  0.2565  0.0237
 3086POSM   NC336206  31.677  16.975  12.867  0.1049 -0.0954 -0.1470
 3086POSM   PO436207  31.547  16.922  13.242 -0.0011 -0.0839  0.1713
 3086POSM   AM136208  31.596  17.057  13.519 -0.2779 -0.1540 -0.0700
 3086POSM   AM236209  31.733  17.270  13.694  0.0979 -0.2137 -0.1472
 3086POSM   T1A36210  31.357  17.216  13.929  0.2534  0.0112 -0.0617
 3086POSM   C2A36211  31.134  17.340  14.340 -0.3069  0.0561  0.2025
 3086POSM   C3A36212  30.925  17.311  14.798 -0.1789 -0.0564 -0.4448
 3086POSM   C1B36213  31.899  17.249  14.005 -0.0733  0.1401 -0.0777
 3086POSM   D2B36214  32.129  17.300  14.433  0.2078 -0.2216 -0.0411
 3086POSM   C3B36215  31.817  17.541  14.668 -0.0216 -0.0331 -0.0071
 3086POSM   C4B36216  31.386  17.596  14.721 -0.2492  0.0515  0.3811
 3087DOPC   NC336217  31.517  19.491  12.335 -0.3366  0.1627  0.2508
 3087DOPC   PO436218  31.347  19.164  12.493 -0.1200 -0.2572 -0.1352
 3087DOPC   GL136219  31.404  19.455  12.778 -0.2449 -0.0377 -0.1749
 3087DOPC   GL236220  31.153  19.328  12.867 -0.1125  0.0024  0.2384
 3087DOPC   C1A36221  31.689  19.739  12.956 -0.2893  0.0064 -0.1802
 3087DOPC   D2A36222  32.034  19.819  13.327  0.2609  0.2377  0.1694
 3087DOPC   C3A36223  32.053  19.868  13.764  0.3089 -0.1885 -0.0140
 3087DOPC   C4A36224  32.165  19.817  14.197  0.1420  0.0294 -0.1827
 3087DOPC   C1B36225  30.948  19.770  12.853 -0.0348 -0.0284 -0.3753
 3087DOPC   D2B36226  30.979  20.182  12.912  0.2561 -0.1500  0.0236
 3087DOPC   C3B36227  31.441  20.196  12.906  0.0795 -0.3534 -0.0475
 3087DOPC   C4B36228  31.886  20.206  12.799 -0.0485 -0.0577  0.2503
 3088POSM   NC336229  30.370  22.096  12.587 -0.1722 -0.1231  0.2279
 3088POSM   PO436230  30.156  22.268  12.854  0.1283  0.0705  0.1840
 3088POSM   AM136231  30.141  22.223  13.167  0.1483 -0.0782 -0.1942
 3088POSM   AM236232  30.292  22.330  13.399 -0.0093  0.0679  0.2005
 3088POSM   T1A36233  29.899  21.983  13.598  0.0691  0.3754  0.2036
 3088POSM   C2A36234  29.527  21.838  13.756 -0.1249 -0.1449  0.1027
 3088POSM   C3A36235  29.063  21.884  14.024  0.2086 -0.2466  0.2404
 3088POSM   C1B36236  30.415  22.580  13.588  0.0962  0.1256 -0.3728
 3088POSM   D2B36237  30.672  22.771  13.947 -0.2523  0.1211  0.1245
 3088POSM   C3B36238  30.856  23.005  14.286  0.0931 -0.1786 -0.0228
 3088POSM   C4B36239  31.222  23.072  14.578  0.1616  0.1440  0.0321
 3089DOPE   NH336240  29.338  11.452  12.970  0.0377  0.3184 -0.0862
 3089DOPE   PO436241  29.304  11.487  13.279 -0.0014  0.3645 -0.0984
 3089DOPE   GL136242  29.263  11.569  13.630 -0.4547  0.0675  0.0924
 3089DOPE   GL236243  28.938  11.699  13.512 -0.1403  0.1894 -0.0547
 3089DOPE   C1A36244  29.523  11.800  13.969 -0.2138  0.0746  0.1501
 3089DOPE   D2A36245  29.465  11.956  14.380 -0.0596 -0.2486  0.1729
 3089DOPE   C3A36246  29.200  12.327  14.296 -0.0798 -0.2455 -0.0814
 3089DOPE   C4A36247  28.930  12.694  14.201 -0.0617  0.0863 -0.0201
 3089DOPE   C1B36248  28.739  11.340  13.755 -0.0683  0.0890 -0.1289
 3089DOPE   D2B36249  28.690  11.306  14.203 -0.3019 -0.0623  0.2110
 3089DOPE   C3B36250  28.906  10.947  14.328  0.1967 -0.0338  0.4234
 3089DOPE   C4B36251  29.140  10.577  14.435 -0.2503  0.2323  0.0606
 3090DOPC   NC336252  31.323  16.392  13.309 -0.0081  0.1674  0.0896
 3090DOPC   PO436253  31.421  16.535  12.920 -0.2082 -0.2316  0.2058
 3090DOPC   GL136254  31.864  16.469  13.107 -0.3468  0.1112  0.0991
 3090DOPC   GL236255  31.836  16.558  13.359  0.1063 -0.0517 -0.2676
 3090DOPC   C1A36256  32.250  16.197  13.207  0.1353 -0.0161 -0.2648
 3090DOPC   D2A36257  32.387  15.802  12.981  0.1936  0.0067 -0.1241
 3090DOPC   C3A36258  32.155  15.358  12.995 -0.0126  0.3362 -0.3412
 3090DOPC   C4A36259  31.818  15.124  12.740  0.0692 -0.3242 -0.3446
 3090DOPC   C1B36260  31.910  16.185  13.666  0.1414 -0.0539 -0.0635
 3090DOPC   D2B36261  32.148  15.855  13.996  0.0450  0.2047 -0.1619
 3090DOPC   C3B36262  32.197  15.962  14.397 -0.1294 -0.1431  0.1438
 3090DOPC   C4B36263  32.647  16.034  14.724 -0.0500  0.0166  0.2396
 3091DOPE   NH336264  34.297  11.586  12.443 -0.0343 -0.3648  0.2840
 3091DOPE   PO436265  34.536  11.581  12.260 -0.1703  0.0167 -0.1291
 3091DOPE   GL136266  34.659  11.952  12.432 -0.0735 -0.0749 -0.0696
 3091DOPE   GL236267  34.557  11.994  12.666  0.1517  0.0516  0.2222
 3091DOPE   C1A36268  34.511  12.342  12.165 -0.0901  0.3881 -0.0038
 3091DOPE   D2A36269  34.617  12.761  12.253 -0.0637  0.0742  0.1785
 3091DOPE   C3A36270  34.938  12.708  12.567 -0.1250  0.1436 -0.1578
 3091DOPE   C4A36271  35.148  12.556  12.915 -0.1449  0.0221 -0.1315
 3091DOPE   C1B36272  34.644  12.411  12.772 -0.0091  0.0447 -0.0536
 3091DOPE   D2B36273  34.599  12.655  13.198 -0.1432  0.2870  0.2346
 3091DOPE   C3B36274  34.687  12.327  13.478  0.0597 -0.2020 -0.0429
 3091DOPE   C4B36275  34.644  12.009  13.792 -0.0222  0.2565 -0.0585
 3092POSM   NC336276  24.596  15.595  12.047  0.2811  0.0501  0.1004
 3092POSM   PO436277  24.610  15.253  12.187  0.1680 -0.1581  0.1357
 3092POSM   AM136278  24.800  15.383  12.443  0.0425 -0.0615  0.4053
 3092POSM   AM236279  25.045  15.537  12.452 -0.0392  0.2191 -0.1857
 3092POSM   T1A36280  24.949  15.382  12.916  0.1752 -0.1999  0.2536
 3092POSM   C2A36281  24.963  15.332  13.360  0.1347  0.2160 -0.3505
 3092POSM   C3A36282  25.246  15.442  13.711 -0.1342 -0.2582  0.1154
 3092POSM   C1B36283  25.099  15.785  12.672  0.1157 -0.1208 -0.0493
 3092POSM   D2B36284  25.144  16.224  12.853 -0.1756  0.1279 -0.2646
 3092POSM   C3B36285  25.429  16.402  13.180  0.3287  0.0922  0.3678
 3092POSM   C4B36286  25.572  16.327  13.628  0.5498  0.0537 -0.2203
 3093DOPC   NC336287  30.430  18.813  13.031 -0.0553  0.0860 -0.2417
 3093DOPC   PO436288  30.388  18.567  12.772  0.0383 -0.1531  0.2015
 3093DOPC   GL136289  30.022  18.442  12.798 -0.0365  0.0941  0.0166
 3093DOPC   GL236290  29.990  18.282  13.046 -0.1465 -0.2980 -0.1465
 3093DOPC   C1A36291  29.635  18.596  13.008  0.0662  0.3014  0.0214
 3093DOPC   D2A36292  29.538  19.019  13.086  0.0675  0.0248 -0.3553
 3093DOPC   C3A36293  29.733  19.184  13.460  0.0038 -0.0061 -0.1612
 3093DOPC   C4A36294  29.538  19.105  13.890  0.2184  0.0448  0.0862
 3093DOPC   C1B36295  29.936  18.328  13.464  0.2257 -0.0362  0.2255
 3093DOPC   D2B36296  30.042  18.300  13.913  0.0392 -0.0248  0.6391
 3093DOPC   C3B36297  29.691  18.224  14.270 -0.2493 -0.1296  0.1521
 3093DOPC   C4B36298  29.386  18.194  14.594  0.0956  0.0708 -0.0538
 3094POSM   NC336299  30.586  14.115  12.774 -0.0142 -0.1756  0.1741
 3094POSM   PO436300  30.499  14.269  13.118 -0.0549  0.1288  0.0731
 3094POSM   AM136301  30.569  13.987  13.324  0.3478 -0.0445  0.0996
 3094POSM   AM236302  30.617  13.888  13.570 -0.1923  0.0077  0.1729
 3094POSM   T1A36303  30.290  13.578  13.434  0.1381  0.0023  0.0739
 3094POSM   C2A36304  30.433  13.159  13.379 -0.0333  0.2975 -0.0424
 3094POSM   C3A36305  30.827  12.883  13.458  0.1491 -0.1383  0.0188
 3094POSM   C1B36306  30.673  13.714  13.852  0.3698 -0.0556 -0.1212
 3094POSM   D2B36307  30.382  13.411  14.108 -0.2859  0.1870  0.1625
 3094POSM   C3B36308  30.368  13.070  14.379 -0.3096 -0.0513 -0.0420
 3094POSM   C4B36309  30.500  12.965  14.780  0.0903  0.1343 -0.0721
 3095POSM   NC336310  23.417  19.521  11.267  0.2719 -0.0548  0.2178
 3095POSM   PO436311  23.552  19.176  11.381 -0.1176  0.0968  0.1275
 3095POSM   AM136312  23.719  19.046  11.647  0.1044  0.4027 -0.0138
 3095POSM   AM236313  23.839  19.184  11.882 -0.0853 -0.2136  0.1504
 3095POSM   T1A36314  23.965  18.665  11.842 -0.2978  0.1020 -0.1446
 3095POSM   C2A36315  23.978  18.207  11.954 -0.0292  0.1079  0.2537
 3095POSM   C3A36316  24.105  17.807  12.209  0.2599 -0.3445 -0.1345
 3095POSM   C1B36317  23.780  19.060  12.221 -0.3873 -0.1647  0.1733
 3095POSM   D2B36318  23.725  18.843  12.611  0.1654 -0.2764 -0.0445
 3095POSM   C3B36319  23.828  18.375  12.644 -0.0300  0.0674 -0.0811
 3095POSM   C4B36320  23.803  17.917  12.561 -0.1019 -0.1748  0.3124
 3096DOPC   NC336321  28.645  14.370  12.700  0.0595 -0.0179 -0.0649
 3096DOPC   PO436322  28.849  14.079  12.545  0.1676  0.0109 -0.3877
 3096DOPC   GL136323  28.833  13.925  12.954  0.0959  0.1699 -0.1833
 3096DOPC   GL236324  28.510  13.867  12.991  0.1997 -0.4165 -0.1600
 3096DOPC   C1A36325  28.814  13.663  13.338  0.1718  0.0969  0.1777
 3096DOPC   D2A36326  28.754  13.662  13.812 -0.2306 -0.3054  0.0109
 3096DOPC   C3A36327  28.301  13.628  13.954 -0.0130 -0.0154 -0.2180
 3096DOPC   C4A36328  27.851  13.542  13.997  0.0665 -0.0160  0.0051
 3096DOPC   C1B36329  28.332  13.878  13.469  0.0311 -0.2783  0.1771
 3096DOPC   D2B36330  28.400  14.147  13.861  0.0385  0.0593  0.1834
 3096DOPC   C3B36331  28.667  13.974  14.184  0.2218 -0.2380 -0.0780
 3096DOPC   C4B36332  28.732  13.964  14.591  0.0761 -0.0902 -0.1725
 3097DOPE   NH336333  26.238  12.804  12.180  0.1113  0.4540 -0.1565
 3097DOPE   PO436334  26.460  12.895  12.368 -0.0136  0.0036 -0.0622
 3097DOPE   GL136335  26.607  13.233  12.571  0.0577  0.1939 -0.3016
 3097DOPE   GL236336  26.837  13.164  12.756 -0.0105 -0.1009  0.0549
 3097DOPE   C1A36337  26.388  13.435  12.942  0.0002 -0.0344  0.3142
 3097DOPE   D2A36338  26.310  13.415  13.414 -0.3424  0.0552 -0.0921
 3097DOPE   C3A36339  26.469  13.589  13.798  0.0002 -0.5325  0.1170
 3097DOPE   C4A36340  26.664  13.505  14.199 -0.4396 -0.1386 -0.0792
 3097DOPE   C1B36341  26.919  13.570  12.820  0.1753  0.1661  0.0652
 3097DOPE   D2B36342  26.838  14.093  12.795  0.1215  0.1396  0.1242
 3097DOPE   C3B36343  26.416  14.281  12.667  0.1311 -0.4160  0.3447
 3097DOPE   C4B36344  26.105  14.369  13.043  0.0944  0.0263 -0.2690
 3098POSM   NC336345  26.535  23.139  12.265 -0.0297 -0.2433 -0.1933
 3098POSM   PO436346  26.261  23.071  12.533 -0.3324  0.1250 -0.1364
 3098POSM   AM136347  26.312  23.207  12.832  0.2876  0.0722 -0.3118
 3098POSM   AM236348  26.301  23.402  13.034  0.1551 -0.2488  0.2101
 3098POSM   T1A36349  26.742  23.251  13.101 -0.3053 -0.1485 -0.0065
 3098POSM   C2A36350  26.943  23.018  13.461  0.2335  0.3232  0.1352
 3098POSM   C3A36351  27.008  22.844  13.887 -0.1160 -0.3233 -0.2425
 3098POSM   C1B36352  26.186  23.524  13.297 -0.2209 -0.0621 -0.1032
 3098POSM   D2B36353  26.209  23.907  13.618 -0.1149  0.3115 -0.1237
 3098POSM   C3B36354  26.223  24.332  13.730  0.1822  0.2716 -0.7244
 3098POSM   C4B36355  25.976  24.627  13.715  0.2453  0.2380  0.0835
 3099POSM   NC336356  27.992  14.246  11.950 -0.0238  0.1394 -0.0114
 3099POSM   PO436357  27.874  14.011  12.247 -0.0126 -0.0727 -0.1299
 3099POSM   AM136358  27.675  13.919  12.455  0.0779  0.1752 -0.4183
 3099POSM   AM236359  27.665  13.642  12.511 -0.1944 -0.2858  0.3427
 3099POSM   T1A36360  27.368  14.167  12.810 -0.2038 -0.2244 -0.0778
 3099POSM   C2A36361  27.437  14.299  13.230 -0.0690  0.0064 -0.2098
 3099POSM   C3A36362  27.486  14.602  13.599 -0.1046  0.2369  0.0426
 3099POSM   C1B36363  27.335  13.631  12.449  0.3891  0.1550  0.2843
 3099POSM   D2B36364  26.892  13.651  12.318  0.2038 -0.1613 -0.1548
 3099POSM   C3B36365  26.760  14.101  12.323  0.1587 -0.4744 -0.3132
 3099POSM   C4B36366  26.806  14.591  12.339  0.2005  0.1244 -0.0609
 3100DOPS   CNO36367  30.694  17.062  12.777  0.0416  0.1879  0.1284
 3100DOPS   PO436368  30.588  17.027  13.144 -0.0153 -0.1562 -0.2947
 3100DOPS   GL136369  30.584  17.218  13.484  0.2188  0.1291 -0.0233
 3100DOPS   GL236370  30.243  17.316  13.494  0.0432  0.0881  0.2017
 3100DOPS   C1A36371  30.651  17.631  13.562 -0.0875  0.0537 -0.0699
 3100DOPS   D2A36372  30.675  17.837  14.006  0.0507 -0.3002  0.0236
 3100DOPS   C3A36373  31.117  17.830  14.132 -0.0280 -0.2741  0.1343
 3100DOPS   C4A36374  31.497  17.681  14.252 -0.1161 -0.1296 -0.1541
 3100DOPS   C1B36375  30.411  17.351  13.905  0.0835 -0.0316 -0.0067
 3100DOPS   D2B36376  30.611  17.481  14.315  0.0998  0.3390 -0.0274
 3100DOPS   C3B36377  30.474  17.117  14.533  0.2131 -0.1394 -0.1667
 3100DOPS   C4B36378  30.050  16.936  14.702 -0.3884 -0.1678 -0.2524
 3101DOPC   NC336379  27.298  21.469  12.047  0.4114 -0.0051 -0.4200
 3101DOPC   PO436380  27.448  21.147  12.171 -0.0561 -0.1285 -0.2489
 3101DOPC   GL136381  26.997  21.100  12.086  0.0432 -0.2396 -0.0072
 3101DOPC   GL236382  26.825  20.865  12.287  0.0949  0.0583 -0.0027
 3101DOPC   C1A36383  26.758  21.465  12.303 -0.4866  0.1420  0.0443
 3101DOPC   D2A36384  26.486  21.706  12.594  0.3490 -0.0520 -0.2497
 3101DOPC   C3A36385  26.103  21.828  12.697  0.2972 -0.0649  0.3720
 3101DOPC   C4A36386  25.655  21.720  12.707 -0.0011 -0.0400  0.0573
 3101DOPC   C1B36387  26.356  20.812  12.373 -0.0190 -0.0414 -0.0249
 3101DOPC   D2B36388  25.948  20.926  12.555 -0.1061 -0.1845  0.1563
 3101DOPC   C3B36389  25.913  21.284  12.797  0.4550 -0.0562 -0.0943
 3101DOPC   C4B36390  25.836  21.564  13.181 -0.0736  0.2976  0.3300
 3102POSM   NC336391  23.723  16.938  11.697 -0.2412  0.2103 -0.0920
 3102POSM   PO436392  23.586  17.281  11.829 -0.1649 -0.2443 -0.1735
 3102POSM   AM136393  23.579  17.195  12.100  0.0769 -0.2111 -0.1109
 3102POSM   AM236394  23.594  16.962  12.258 -0.3685 -0.1900 -0.1068
 3102POSM   T1A36395  23.675  17.455  12.489 -0.0653  0.0758  0.1323
 3102POSM   C2A36396  23.753  17.596  12.925  0.0220 -0.0272  0.0473
 3102POSM   C3A36397  23.972  17.586  13.297  0.2658 -0.1553 -0.1082
 3102POSM   C1B36398  23.825  16.919  12.528  0.2445  0.0369 -0.0895
 3102POSM   D2B36399  23.875  16.675  12.924  0.1290  0.0217  0.1092
 3102POSM   C3B36400  23.586  16.417  13.147 -0.0605  0.3204  0.0018
 3102POSM   C4B36401  23.673  16.261  13.595  0.2027  0.0609  0.2376
 3103DOPE   NH336402  29.129  15.133  12.980 -0.3594 -0.1534  0.1390
 3103DOPE   PO436403  29.195  15.383  13.120 -0.1050 -0.2332  0.1140
 3103DOPE   GL136404  28.858  15.428  13.425  0.3223 -0.6239  0.0471
 3103DOPE   GL236405  28.700  15.631  13.229 -0.1881  0.1482 -0.1940
 3103DOPE   C1A36406  28.933  15.852  13.626  0.3655 -0.2034  0.3406
 3103DOPE   D2A36407  28.879  16.048  14.023  0.2779 -0.1231 -0.2201
 3103DOPE   C3A36408  28.927  15.624  14.319  0.1364 -0.1935  0.3997
 3103DOPE   C4A36409  28.763  15.257  14.556 -0.1708  0.0962 -0.0123
 3103DOPE   C1B36410  28.482  15.686  13.652  0.0652  0.4076  0.2808
 3103DOPE   D2B36411  28.370  15.755  14.079  0.2170  0.0053  0.1400
 3103DOPE   C3B36412  28.544  16.076  14.416 -0.1992  0.3103 -0.0555
 3103DOPE   C4B36413  28.972  15.946  14.672 -0.4167 -0.2209 -0.3502
 3104POSM   NC336414  24.092  19.973  11.695  0.1093 -0.0391 -0.3255
 3104POSM   PO436415  23.875  19.761  11.959  0.1102 -0.1444  0.2422
 3104POSM   AM136416  23.934  19.639  12.253  0.0945 -0.2038  0.3065
 3104POSM   AM236417  24.154  19.527  12.436  0.3181  0.0320  0.1186
 3104POSM   T1A36418  23.690  19.506  12.640 -0.0441 -0.0738 -0.4864
 3104POSM   C2A36419  23.780  19.399  13.078  0.1455 -0.2255 -0.3537
 3104POSM   C3A36420  24.069  19.078  13.039  0.3258  0.1347  0.1538
 3104POSM   C1B36421  24.190  19.672  12.749  0.1253  0.1420  0.2278
 3104POSM   D2B36422  24.404  19.776  13.148  0.1601  0.2767 -0.0936
 3104POSM   C3B36423  24.217  20.111  13.371  0.4600 -0.0490 -0.1288
 3104POSM   C4B36424  24.160  20.298  13.780  0.1696 -0.2686  0.0872
 3105POSM   NC336425  27.605  18.813  12.440 -0.3381  0.0462  0.0591
 3105POSM   PO436426  27.699  19.190  12.314 -0.2684 -0.1396  0.1343
 3105POSM   AM136427  27.382  19.210  12.264  0.0677 -0.0254 -0.0308
 3105POSM   AM236428  27.215  19.336  12.070 -0.3464  0.2020 -0.1024
 3105POSM   T1A36429  26.972  18.994  12.469 -0.2954 -0.1365  0.0957
 3105POSM   C2A36430  26.918  18.612  12.694  0.1099 -0.0133 -0.0087
 3105POSM   C3A36431  26.612  18.404  12.933 -0.0037  0.0272 -0.1264
 3105POSM   C1B36432  26.871  19.353  12.145  0.1403 -0.1020  0.0041
 3105POSM   D2B36433  26.520  19.477  12.383  0.1447 -0.0169  0.1471
 3105POSM   C3B36434  26.481  19.933  12.395 -0.1403 -0.1903  0.2736
 3105POSM   C4B36435  26.115  20.204  12.406 -0.0670  0.1673  0.1169
 3106POSM   NC336436  26.358  18.286  12.484 -0.1514 -0.3947  0.0216
 3106POSM   PO436437  26.003  18.355  12.578 -0.5808  0.0484 -0.1287
 3106POSM   AM136438  25.814  18.404  12.832 -0.0534  0.2473  0.2037
 3106POSM   AM236439  25.533  18.507  12.841 -0.0153 -0.2166 -0.1103
 3106POSM   T1A36440  25.669  18.320  13.292 -0.0161 -0.0093  0.0371
 3106POSM   C2A36441  25.616  18.184  13.718 -0.4016  0.0246 -0.2394
 3106POSM   C3A36442  25.970  18.039  14.047 -0.1213  0.0522  0.0169
 3106POSM   C1B36443  25.236  18.592  12.949 -0.5925  0.1677  0.1005
 3106POSM   D2B36444  24.886  18.720  13.220 -0.1892  0.1047 -0.1051
 3106POSM   C3B36445  24.951  19.019  13.514 -0.2925 -0.0638  0.1782
 3106POSM   C4B36446  25.241  19.082  13.831 -0.1566  0.3247  0.1223
 3107DOPS   CNO36447  31.411  17.609  12.759  0.2924 -0.2917 -0.0572
 3107DOPS   PO436448  31.760  17.442  12.742  0.0327 -0.0512  0.0663
 3107DOPS   GL136449  32.152  17.291  12.836 -0.0957  0.4978  0.0548
 3107DOPS   GL236450  32.256  17.583  12.973  0.2831  0.0764 -0.3281
 3107DOPS   C1A36451  32.469  17.112  13.157 -0.2968  0.0936 -0.0256
 3107DOPS   D2A36452  32.664  17.045  13.554 -0.3335  0.0786 -0.3068
 3107DOPS   C3A36453  32.821  16.613  13.699 -0.3012  0.1209 -0.0387
 3107DOPS   C4A36454  33.135  16.566  14.059 -0.0284 -0.0960  0.1863
 3107DOPS   C1B36455  32.518  17.555  13.360  0.0761  0.2444 -0.2055
 3107DOPS   D2B36456  32.845  17.500  13.699  0.0406  0.1296  0.1010
 3107DOPS   C3B36457  32.875  17.310  14.122  0.3575  0.1229  0.1756
 3107DOPS   C4B36458  32.905  16.980  14.435  0.0641  0.0111 -0.0264
 3108POSM   NC336459  29.574  11.943  13.262 -0.0370  0.2121  0.3095
 3108POSM   PO436460  29.542  11.903  12.889 -0.0900  0.0496  0.1276
 3108POSM   AM136461  29.465  12.272  12.880 -0.1747  0.0230 -0.4345
 3108POSM   AM236462  29.394  12.457  13.109 -0.1513 -0.1803  0.2677
 3108POSM   T1A36463  29.547  12.742  12.759 -0.1695 -0.2882 -0.0660
 3108POSM   C2A36464  29.531  13.185  12.880  0.0595 -0.0199 -0.0314
 3108POSM   C3A36465  29.639  13.668  12.986  0.1710  0.1989  0.2555
 3108POSM   C1B36466  29.425  12.376  13.437  0.0853  0.2942 -0.2192
 3108POSM   D2B36467  29.359  12.575  13.880  0.0555  0.1313 -0.2245
 3108POSM   C3B36468  29.559  12.663  14.314 -0.0108  0.4102 -0.0470
 3108POSM   C4B36469  29.480  12.905  14.729 -0.2236  0.2898 -0.1628
 3109DOPE   NH336470  34.202  15.805  12.875  0.1331 -0.5174 -0.0452
 3109DOPE   PO436471  34.110  15.676  12.586 -0.1070  0.2269  0.2997
 3109DOPE   GL136472  33.842  15.472  12.885  0.0560 -0.0088 -0.1072
 3109DOPE   GL236473  33.633  15.547  12.706 -0.2195 -0.3264 -0.0088
 3109DOPE   C1A36474  33.560  15.257  13.168  0.1176  0.1890 -0.2403
 3109DOPE   D2A36475  33.164  15.106  13.335  0.0218  0.3877  0.2313
 3109DOPE   C3A36476  33.207  14.707  13.612  0.0770  0.3132  0.0912
 3109DOPE   C4A36477  33.262  14.654  14.095  0.0271 -0.0142  0.2319
 3109DOPE   C1B36478  33.291  15.845  12.778 -0.2212  0.1333 -0.1981
 3109DOPE   D2B36479  32.948  15.985  13.024 -0.0989  0.3809  0.1944
 3109DOPE   C3B36480  32.921  15.747  13.397  0.2428  0.1117  0.0541
 3109DOPE   C4B36481  32.845  15.811  13.831  0.1821  0.3254 -0.0085
 3110DOPE   NH336482  34.518  22.153  12.359  0.1027  0.1323  0.2371
 3110DOPE   PO436483  34.650  22.345  12.607 -0.0286  0.0071  0.0281
 3110DOPE   GL136484  34.401  22.266  12.871  0.1826  0.0251  0.2227
 3110DOPE   GL236485  34.248  22.016  12.785  0.0841 -0.1984  0.0801
 3110DOPE   C1A36486  34.240  22.571  13.170 -0.2488 -0.4384 -0.2968
 3110DOPE   D2A36487  34.145  22.670  13.631  0.0918  0.0562 -0.0294
 3110DOPE   C3A36488  33.945  22.483  13.997  0.2041 -0.1077  0.1511
 3110DOPE   C4A36489  34.010  22.233  14.321  0.1178  0.1630  0.1824
 3110DOPE   C1B36490  33.850  22.317  12.720  0.1737  0.3849 -0.0651
 3110DOPE   D2B36491  33.542  22.499  12.969 -0.3697  0.2442  0.1926
 3110DOPE   C3B36492  33.515  22.257  13.342 -0.1861 -0.0406 -0.1931
 3110DOPE   C4B36493  33.614  22.108  13.737 -0.0399  0.3509  0.4315
 3111DOPE   NH336494  28.206  19.054  12.363 -0.1670 -0.0218  0.0453
 3111DOPE   PO436495  28.480  19.024  12.444 -0.0848  0.1513 -0.0669
 3111DOPE   GL136496  28.559  18.762  12.738 -0.0158 -0.0991 -0.3158
 3111DOPE   GL236497  28.782  18.587  12.759 -0.2919  0.2240  0.2283
 3111DOPE   C1A36498  28.671  18.796  13.216 -0.2716  0.1264  0.1013
 3111DOPE   D2A36499  28.660  18.839  13.687  0.2159  0.2202 -0.1879
 3111DOPE   C3A36500  28.317  18.821  14.025 -0.1360 -0.2145 -0.2188
 3111DOPE   C4A36501  27.950  19.011  14.249 -0.2062 -0.0038 -0.0580
 3111DOPE   C1B36502  28.927  18.233  13.079 -0.3103  0.1010  0.3280
 3111DOPE   D2B36503  29.031  17.933  13.449  0.0448  0.0194 -0.3307
 3111DOPE   C3B36504  29.073  17.944  13.870 -0.1390 -0.0596  0.3737
 3111DOPE   C4B36505  29.161  17.814  14.335 -0.1924 -0.1703 -0.0036
 3112DOPE   NH336506  23.923  14.405  12.061 -0.1830 -0.2525  0.2754
 3112DOPE   PO436507  23.979  14.431  11.749  0.0459 -0.0318  0.1632
 3112DOPE   GL136508  24.390  14.196  11.841  0.2839 -0.1960 -0.0883
 3112DOPE   GL236509  24.284  13.942  11.950  0.3704  0.0040 -0.0998
 3112DOPE   C1A36510  24.749  14.046  12.065  0.1261  0.0573 -0.3093
 3112DOPE   D2A36511  25.180  13.851  12.201  0.2757  0.1206 -0.0540
 3112DOPE   C3A36512  25.133  13.411  12.210  0.0102 -0.3227 -0.2674
 3112DOPE   C4A36513  25.125  13.143  12.543  0.1978 -0.2960  0.0187
 3112DOPE   C1B36514  24.494  13.520  11.805 -0.1898  0.0342 -0.1252
 3112DOPE   D2B36515  24.575  13.067  12.022 -0.1061  0.1610 -0.0081
 3112DOPE   C3B36516  24.351  13.083  12.425  0.0407 -0.0252  0.4165
 3112DOPE   C4B36517  24.024  13.201  12.772 -0.0964 -0.0228  0.0610
 3113POSM   NC336518  24.227  14.869  12.403 -0.2761  0.0015 -0.0941
 3113POSM   PO436519  24.345  14.729  12.107 -0.0809  0.1755 -0.1309
 3113POSM   AM136520  24.373  14.430  12.238 -0.1109  0.0467  0.2373
 3113POSM   AM236521  24.483  14.414  12.488 -0.1303 -0.0830 -0.1161
 3113POSM   T1A36522  24.328  13.946  12.449 -0.3381 -0.0405 -0.3098
 3113POSM   C2A36523  24.189  13.551  12.244  0.1638  0.0714  0.1076
 3113POSM   C3A36524  24.031  13.220  11.878 -0.1313  0.2114 -0.2593
 3113POSM   C1B36525  24.485  14.359  12.801  0.1808  0.1946 -0.3132
 3113POSM   D2B36526  24.456  13.971  13.047 -0.2060  0.2393 -0.2068
 3113POSM   C3B36527  24.548  13.580  12.724  0.2552  0.0784 -0.4010
 3113POSM   C4B36528  24.683  13.527  12.298  0.0306  0.3692 -0.0338
 3114DOPC   NC336529  34.028  20.885  12.138 -0.0197  0.1520 -0.1210
 3114DOPC   PO436530  34.060  20.565  12.346  0.0942 -0.0435 -0.0326
 3114DOPC   GL136531  33.787  20.760  12.555 -0.2568  0.2116  0.1403
 3114DOPC   GL236532  33.570  20.831  12.432 -0.2039  0.0601 -0.1911
 3114DOPC   C1A36533  33.512  20.741  12.935 -0.0050 -0.1139  0.1252
 3114DOPC   D2A36534  33.673  20.675  13.388 -0.2142 -0.1606  0.0852
 3114DOPC   C3A36535  33.420  20.867  13.750  0.2970  0.4263 -0.2434
 3114DOPC   C4A36536  33.098  20.715  14.019  0.3326 -0.0115 -0.4212
 3114DOPC   C1B36537  33.379  21.146  12.680 -0.1591  0.0971  0.1987
 3114DOPC   D2B36538  33.075  21.476  12.686  0.1446  0.0876  0.1592
 3114DOPC   C3B36539  32.864  21.407  13.023  0.0354  0.1495 -0.0914
 3114DOPC   C4B36540  32.500  21.184  13.049 -0.0630  0.2237 -0.0606
 3115DOPC   NC336541  29.735  21.407  12.384 -0.0882  0.0465 -0.0234
 3115DOPC   PO436542  29.395  21.359  12.553 -0.0210  0.1036  0.0885
 3115DOPC   GL136543  29.513  21.417  12.919 -0.2971 -0.0191  0.2739
 3115DOPC   GL236544  29.793  21.336  12.970 -0.0466  0.3128 -0.1484
 3115DOPC   C1A36545  29.316  21.304  13.284 -0.1029  0.2018 -0.0342
 3115DOPC   D2A36546  29.278  20.940  13.550  0.2119  0.0327 -0.4085
 3115DOPC   C3A36547  29.154  21.049  13.986  0.1941 -0.0690 -0.1101
 3115DOPC   C4A36548  28.879  20.883  14.383  0.1400 -0.1006 -0.0737
 3115DOPC   C1B36549  29.763  20.991  13.293  0.0176 -0.2342  0.2332
 3115DOPC   D2B36550  29.677  20.645  13.621 -0.1709 -0.2101 -0.0868
 3115DOPC   C3B36551  29.657  20.853  13.995 -0.1664 -0.0707 -0.1522
 3115DOPC   C4B36552  29.502  21.202  14.308  0.4076 -0.1278  0.0616
 3116POSM   NC336553  25.431  17.639  11.770 -0.1661  0.2759 -0.1210
 3116POSM   PO436554  25.634  17.567  12.070 -0.1392 -0.0527  0.2472
 3116POSM   AM136555  25.325  17.526  12.213  0.1335  0.2956 -0.0043
 3116POSM   AM236556  25.290  17.573  12.509  0.2520  0.0990 -0.1602
 3116POSM   T1A36557  25.084  17.110  12.363  0.0741  0.0265 -0.0124
 3116POSM   C2A36558  24.971  16.642  12.350  0.1944  0.1553 -0.2404
 3116POSM   C3A36559  24.908  16.166  12.324 -0.0627  0.0971 -0.0825
 3116POSM   C1B36560  25.042  17.727  12.644  0.1395 -0.0235  0.0603
 3116POSM   D2B36561  24.760  17.720  13.040 -0.1176  0.1885 -0.0784
 3116POSM   C3B36562  24.403  17.465  13.150 -0.0219  0.1553  0.1253
 3116POSM   C4B36563  24.310  17.036  13.368  0.0746 -0.0068  0.0243
 3117POSM   NC336564  31.566  18.623  13.295  0.2600  0.3361  0.1211
 3117POSM   PO436565  31.639  18.400  12.986 -0.1587 -0.0147  0.1248
 3117POSM   AM136566  31.950  18.322  13.093  0.0517 -0.1335  0.2894
 3117POSM   AM236567  32.073  18.502  13.236 -0.0786  0.0684  0.0547
 3117POSM   T1A36568  32.241  18.068  13.452 -0.0350  0.0722 -0.2473
 3117POSM   C2A36569  32.347  17.759  13.761 -0.1903 -0.2698 -0.4610
 3117POSM   C3A36570  32.420  17.656  14.227 -0.0885  0.1222  0.0897
 3117POSM   C1B36571  32.250  18.577  13.540 -0.0426 -0.0216  0.1007
 3117POSM   D2B36572  32.481  18.541  13.861  0.2189  0.0247  0.0676
 3117POSM   C3B36573  32.241  18.732  14.209 -0.2123  0.0919 -0.3124
 3117POSM   C4B36574  32.035  18.997  14.465 -0.1758  0.0444 -0.1455
 3118DOPS   CNO36575  30.966  15.046  12.744  0.1316 -0.1008  0.1273
 3118DOPS   PO436576  31.055  15.127  13.094 -0.0128 -0.1233 -0.0884
 3118DOPS   GL136577  31.318  14.928  13.279  0.2718 -0.0433  0.0476
 3118DOPS   GL236578  31.518  14.895  13.125 -0.2562  0.1502  0.0088
 3118DOPS   C1A36579  31.425  14.890  13.692 -0.0141 -0.0127 -0.1379
 3118DOPS   D2A36580  31.308  14.953  14.121 -0.3163 -0.3329 -0.0727
 3118DOPS   C3A36581  30.945  14.737  14.300 -0.1155  0.0030  0.0247
 3118DOPS   C4A36582  30.834  14.266  14.392 -0.1443  0.1418 -0.0216
 3118DOPS   C1B36583  31.973  14.955  13.216  0.1460  0.0241  0.0404
 3118DOPS   D2B36584  32.338  14.685  13.334  0.2288  0.3061  0.1704
 3118DOPS   C3B36585  32.671  14.708  13.615  0.2631 -0.2227 -0.0343
 3118DOPS   C4B36586  32.804  15.124  13.741 -0.0840 -0.1504  0.1331
 3119DOPE   NH336587  30.884  18.987  12.630 -0.1278  0.1228  0.0716
 3119DOPE   PO436588  30.707  19.186  12.543 -0.0918  0.0282  0.0225
 3119DOPE   GL136589  30.691  19.644  12.443  0.4615 -0.0515  0.3579
 3119DOPE   GL236590  30.926  19.700  12.237  0.6149  0.1518  0.0979
 3119DOPE   C1A36591  30.519  20.004  12.731  0.2455  0.0829  0.2040
 3119DOPE   D2A36592  30.495  20.053  13.169  0.0534  0.4770 -0.3288
 3119DOPE   C3A36593  30.839  19.844  13.321  0.0487 -0.2657 -0.2769
 3119DOPE   C4A36594  31.266  20.002  13.333  0.2165 -0.1308  0.0907
 3119DOPE   C1B36595  31.223  19.982  12.441  0.2126  0.2372 -0.0686
 3119DOPE   D2B36596  31.404  20.392  12.464  0.3489  0.1399  0.2284
 3119DOPE   C3B36597  31.557  20.779  12.216 -0.1335  0.1649 -0.0334
 3119DOPE   C4B36598  31.754  21.241  12.097  0.1695  0.0060 -0.1459
 3120DOPC   NC336599  30.510  16.777  13.595  0.2537  0.0092 -0.1862
 3120DOPC   PO436600  30.548  16.427  13.480 -0.0057 -0.2175 -0.0983
 3120DOPC   GL136601  30.405  16.321  13.802  0.0325 -0.5698 -0.0341
 3120DOPC   GL236602  30.235  16.463  13.944 -0.1627 -0.0953 -0.0062
 3120DOPC   C1A36603  30.598  16.108  14.147 -0.0560  0.2570 -0.2584
 3120DOPC   D2A36604  30.560  16.169  14.636 -0.0960  0.0386 -0.1371
 3120DOPC   C3A36605  30.762  15.775  14.763  0.0751  0.0704  0.0116
 3120DOPC   C4A36606  30.932  15.375  14.887  0.2614  0.3566 -0.2583
 3120DOPC   C1B36607  29.834  16.413  13.910 -0.0262  0.1920  0.3873
 3120DOPC   D2B36608  29.479  16.472  14.174  0.4006 -0.1567  0.0732
 3120DOPC   C3B36609  29.215  16.854  14.285  0.2631  0.5153 -0.0747
 3120DOPC   C4B36610  29.149  17.232  14.461  0.2638 -0.0342  0.5415
 3121DOPC   NC336611  28.280  19.861  12.820  0.1067  0.2128  0.0010
 3121DOPC   PO436612  28.271  19.507  12.573 -0.0912  0.0164  0.1736
 3121DOPC   GL136613  28.356  19.401  13.016  0.0757 -0.3010 -0.1239
 3121DOPC   GL236614  28.432  19.133  12.924 -0.0824 -0.2126 -0.0097
 3121DOPC   C1A36615  27.960  19.599  13.157 -0.1868  0.1294  0.3350
 3121DOPC   D2A36616  27.570  19.490  13.332 -0.1117 -0.1141  0.1160
 3121DOPC   C3A36617  27.587  19.574  13.809 -0.0363  0.1463 -0.0345
 3121DOPC   C4A36618  27.414  19.863  14.114 -0.2874  0.0067 -0.0289
 3121DOPC   C1B36619  28.396  19.155  13.431  0.0101 -0.0921 -0.1501
 3121DOPC   D2B36620  28.438  19.270  13.881  0.0782 -0.2539  0.1004
 3121DOPC   C3B36621  28.063  19.501  14.118  0.0176  0.0572  0.2548
 3121DOPC   C4B36622  27.788  19.779  14.397 -0.0863  0.2833  0.1176
 3122DOPC   NC336623  29.142  21.723  12.787 -0.0413  0.0873  0.0935
 3122DOPC   PO436624  28.914  21.386  12.726 -0.1706  0.0394  0.0489
 3122DOPC   GL136625  28.792  21.364  13.053  0.0456  0.2657 -0.1279
 3122DOPC   GL236626  28.554  21.566  13.010  0.1688 -0.0025  0.2907
 3122DOPC   C1A36627  28.826  21.190  13.474 -0.1341 -0.2270  0.0825
 3122DOPC   D2A36628  28.728  20.881  13.745 -0.0231  0.1213 -0.0431
 3122DOPC   C3A36629  28.510  20.980  14.102  0.0122  0.0471 -0.1047
 3122DOPC   C4A36630  28.480  21.215  14.509  0.1255  0.1774 -0.0549
 3122DOPC   C1B36631  28.270  21.826  13.205  0.0708  0.3870 -0.2646
 3122DOPC   D2B36632  28.056  22.111  13.484  0.0022  0.0735  0.1025
 3122DOPC   C3B36633  28.024  21.999  13.970  0.0066  0.1807  0.1048
 3122DOPC   C4B36634  28.007  22.345  14.284  0.1499  0.2063 -0.0391
 3123DOPE   NH336635  30.197  13.906  12.955 -0.0644  0.0930  0.0280
 3123DOPE   PO436636  30.243  13.709  12.684 -0.4177 -0.0096 -0.0586
 3123DOPE   GL136637  30.292  13.352  12.833 -0.1230  0.1748  0.2230
 3123DOPE   GL236638  30.057  13.315  12.967 -0.2121 -0.0522 -0.0083
 3123DOPE   C1A36639  30.326  12.901  12.918 -0.1868  0.0596  0.5987
 3123DOPE   D2A36640  30.418  12.474  13.108 -0.1833  0.2708  0.3044
 3123DOPE   C3A36641  30.428  12.535  13.605  0.0383 -0.3386 -0.1112
 3123DOPE   C4A36642  30.531  12.891  13.902 -0.0210  0.1207  0.1232
 3123DOPE   C1B36643  29.910  13.278  13.371 -0.0107  0.2580  0.0733
 3123DOPE   D2B36644  29.995  13.277  13.774  0.3857  0.0097 -0.1430
 3123DOPE   C3B36645  29.941  13.000  14.134  0.0240 -0.1703  0.1023
 3123DOPE   C4B36646  29.922  13.067  14.628  0.0119 -0.1863 -0.0548
 3124DOPC   NC336647  33.757  19.217  13.149 -0.0408 -0.1535 -0.4186
 3124DOPC   PO436648  33.661  19.402  12.810  0.0247  0.0888  0.2057
 3124DOPC   GL136649  33.757  19.700  13.136 -0.2963 -0.0628  0.0155
 3124DOPC   GL236650  33.453  19.719  13.146  0.4362 -0.0183  0.2474
 3124DOPC   C1A36651  33.717  19.718  13.622 -0.0328 -0.1054  0.3159
 3124DOPC   D2A36652  33.448  19.898  14.026 -0.2302  0.2297 -0.0965
 3124DOPC   C3A36653  32.975  19.774  14.072 -0.0075 -0.0079 -0.1926
 3124DOPC   C4A36654  32.586  19.657  14.314  0.0638 -0.0106 -0.1213
 3124DOPC   C1B36655  33.139  19.760  13.407  0.0548  0.1516  0.1520
 3124DOPC   D2B36656  32.685  19.864  13.476 -0.1128  0.1071  0.0773
 3124DOPC   C3B36657  32.852  20.243  13.319  0.1108 -0.0917 -0.0497
 3124DOPC   C4B36658  33.143  20.616  13.395  0.1203  0.0559  0.3030
 3125POSM   NC336659  25.753  16.136  11.930  0.1041 -0.0400  0.0210
 3125POSM   PO436660  25.906  15.877  11.686 -0.2100  0.0873  0.2485
 3125POSM   AM136661  26.098  15.727  11.911 -0.2073  0.2145 -0.1818
 3125POSM   AM236662  26.081  15.696  12.188 -0.0057 -0.0947 -0.3647
 3125POSM   T1A36663  26.584  15.564  12.109 -0.1828 -0.2059  0.1397
 3125POSM   C2A36664  27.027  15.530  12.185 -0.1323  0.1554 -0.2889
 3125POSM   C3A36665  27.435  15.657  12.267 -0.2121 -0.0670  0.0191
 3125POSM   C1B36666  26.194  15.446  12.400 -0.0094  0.1340  0.1721
 3125POSM   D2B36667  26.259  15.258  12.763  0.1480  0.1183 -0.1461
 3125POSM   C3B36668  26.523  15.399  13.099  0.1973 -0.0473 -0.4696
 3125POSM   C4B36669  26.661  15.223  13.483  0.1427  0.1750 -0.0181
 3126DOPS   CNO36670  27.308  11.614  12.328 -0.0489 -0.2184 -0.1121
 3126DOPS   PO436671  26.941  11.470  12.338  0.1214  0.0650 -0.1330
 3126DOPS   GL136672  26.707  11.120  12.495  0.0694  0.2635  0.2975
 3126DOPS   GL236673  26.717  11.151  12.802  0.1416  0.0662  0.0303
 3126DOPS   C1A36674  26.479  10.737  12.581  0.0983  0.1129  0.1429
 3126DOPS   D2A36675  26.479  10.379  12.904 -0.1691 -0.0213  0.1571
 3126DOPS   C3A36676  26.446   9.947  12.794 -0.2734  0.1717  0.0434
 3126DOPS   C4A36677  26.768   9.641  12.992 -0.0618 -0.1702 -0.3004
 3126DOPS   C1B36678  26.626  10.838  13.150  0.0327 -0.2257  0.0551
 3126DOPS   D2B36679  26.508  10.959  13.627 -0.1195  0.1699 -0.2756
 3126DOPS   C3B36680  26.195  10.660  13.712  0.0410  0.3505  0.1079
 3126DOPS   C4B36681  26.016  10.494  14.142  0.3511  0.0309  0.3003
 3127DOPE   NH336682  25.617  18.027  12.795 -0.0192 -0.3303 -0.3025
 3127DOPE   PO436683  25.658  17.936  12.509 -0.3832  0.0861 -0.4300
 3127DOPE   GL136684  25.410  17.908  12.246 -0.1427  0.2496 -0.3258
 3127DOPE   GL236685  25.423  18.182  12.146  0.1340  0.1256  0.0186
 3127DOPE   C1A36686  25.006  17.923  11.988 -0.0718 -0.0574  0.0794
 3127DOPE   D2A36687  24.700  17.656  12.069  0.3125 -0.0881 -0.3091
 3127DOPE   C3A36688  24.627  17.423  12.499 -0.0335 -0.0204 -0.0753
 3127DOPE   C4A36689  24.846  17.242  12.851 -0.0519 -0.0886 -0.4151
 3127DOPE   C1B36690  25.221  18.556  12.130 -0.1975 -0.0556  0.0904
 3127DOPE   D2B36691  24.932  18.826  12.422  0.3644 -0.0469 -0.1852
 3127DOPE   C3B36692  25.010  19.014  12.823 -0.3438 -0.2622 -0.0386
 3127DOPE   C4B36693  25.131  19.334  13.145  0.3415 -0.2169 -0.1813
 3128POSM   NC336694  23.352  13.823  11.920 -0.1500  0.0510 -0.0103
 3128POSM   PO436695  23.720  13.883  11.995 -0.1749 -0.3201 -0.1070
 3128POSM   AM136696  23.848  14.034  12.257  0.1332 -0.3037 -0.5256
 3128POSM   AM236697  23.825  13.921  12.536 -0.1033  0.0656  0.0331
 3128POSM   T1A36698  24.025  14.350  12.635 -0.1259 -0.4594 -0.0909
 3128POSM   C2A36699  24.026  14.330  13.083  0.0427 -0.3407 -0.2077
 3128POSM   C3A36700  23.920  14.466  13.511 -0.2315  0.1909 -0.0341
 3128POSM   C1B36701  23.841  13.825  12.834  0.1646 -0.0053 -0.0461
 3128POSM   D2B36702  24.088  13.613  13.206  0.1859 -0.2193  0.2775
 3128POSM   C3B36703  23.703  13.452  13.462 -0.1744  0.0591 -0.1468
 3128POSM   C4B36704  23.603  13.427  13.881  0.3112  0.1341 -0.0685
 3129DOPC   NC336705  28.794  16.701  12.727  0.1295  0.1056  0.1150
 3129DOPC   PO436706  29.157  16.778  12.557 -0.1197 -0.0763  0.1081
 3129DOPC   GL136707  29.129  16.830  13.009  0.1448  0.1982  0.0683
 3129DOPC   GL236708  29.381  16.815  13.199 -0.0198  0.0822 -0.1006
 3129DOPC   C1A36709  28.921  16.880  13.437  0.2006 -0.0639 -0.0367
 3129DOPC   D2A36710  28.897  17.035  13.855  0.2767  0.2662  0.1251
 3129DOPC   C3A36711  28.863  17.436  14.074  0.0859 -0.2567 -0.0023
 3129DOPC   C4A36712  28.666  17.799  14.313 -0.4253 -0.4631  0.2197
 3129DOPC   C1B36713  29.423  17.212  13.103  0.0212 -0.0484 -0.0964
 3129DOPC   D2B36714  29.206  17.446  13.441 -0.0859 -0.0956  0.1222
 3129DOPC   C3B36715  28.791  17.461  13.544 -0.1784  0.1406  0.2170
 3129DOPC   C4B36716  28.401  17.203  13.472  0.2072 -0.2341  0.0883
 3130DOPS   CNO36717  26.250  12.026  12.266 -0.0673 -0.2258  0.1075
 3130DOPS   PO436718  26.050  11.951  12.592  0.2811  0.0235 -0.0615
 3130DOPS   GL136719  26.128  12.026  12.953 -0.1689  0.0034  0.1009
 3130DOPS   GL236720  26.306  12.256  12.957  0.0968  0.0691  0.1940
 3130DOPS   C1A36721  26.067  12.165  13.403  0.0543 -0.2000 -0.1535
 3130DOPS   D2A36722  26.342  12.335  13.739  0.2157  0.0577  0.2566
 3130DOPS   C3A36723  26.680  12.095  13.930  0.0300  0.0821 -0.0748
 3130DOPS   C4A36724  26.584  11.869  14.345  0.1444 -0.1814  0.2215
 3130DOPS   C1B36725  26.497  12.045  13.340 -0.0460 -0.0077  0.0989
 3130DOPS   D2B36726  26.820  11.742  13.520 -0.0580  0.1678 -0.1435
 3130DOPS   C3B36727  26.955  11.534  13.907  0.3435 -0.0485  0.1632
 3130DOPS   C4B36728  27.110  11.586  14.295 -0.3417 -0.1131  0.0880
 3131DOPC   NC336729  25.231  15.939  12.008  0.0671  0.1374 -0.0207
 3131DOPC   PO436730  25.467  15.564  12.095 -0.1314 -0.0201 -0.2888
 3131DOPC   GL136731  25.654  15.818  12.400 -0.0674 -0.1462  0.2000
 3131DOPC   GL236732  25.680  15.671  12.585  0.1503  0.1745  0.1274
 3131DOPC   C1A36733  25.385  16.153  12.447 -0.3953  0.1943  0.0886
 3131DOPC   D2A36734  25.420  16.617  12.499 -0.0188 -0.1866  0.2590
 3131DOPC   C3A36735  25.168  16.743  12.837 -0.5264 -0.2494 -0.7312
 3131DOPC   C4A36736  24.931  16.935  13.205  0.0908 -0.1412 -0.0042
 3131DOPC   C1B36737  25.495  15.502  12.965 -0.0350  0.2189 -0.2829
 3131DOPC   D2B36738  25.459  15.225  13.334 -0.6878  0.0189  0.0205
 3131DOPC   C3B36739  25.786  15.242  13.643 -0.3385 -0.1356 -0.2162
 3131DOPC   C4B36740  26.196  15.494  13.755 -0.2313  0.1640 -0.0348
 3132DOPC   NC336741  28.683  15.158  12.619  0.2351  0.0845 -0.1045
 3132DOPC   PO436742  28.806  15.503  12.751 -0.2191  0.1528 -0.1967
 3132DOPC   GL136743  28.483  15.662  12.827 -0.1867 -0.3002  0.1190
 3132DOPC   GL236744  28.309  15.407  12.793  0.2591 -0.1138  0.0389
 3132DOPC   C1A36745  28.193  15.645  13.213 -0.1946 -0.0973  0.4977
 3132DOPC   D2A36746  27.981  15.488  13.570  0.1627  0.1423  0.1908
 3132DOPC   C3A36747  27.569  15.625  13.737 -0.1304 -0.0798  0.0944
 3132DOPC   C4A36748  27.191  15.654  14.021  0.0861 -0.1727 -0.1243
 3132DOPC   C1B36749  27.863  15.271  12.860 -0.2174 -0.0152 -0.0677
 3132DOPC   D2B36750  27.585  15.282  13.243  0.2092 -0.1726 -0.2028
 3132DOPC   C3B36751  27.197  15.134  13.214 -0.0017 -0.1149  0.0022
 3132DOPC   C4B36752  26.817  14.981  13.027 -0.3148 -0.1097 -0.0124
 3133DOPE   NH336753  29.619  14.894  12.854  0.0652  0.2416 -0.0377
 3133DOPE   PO436754  29.496  14.813  13.136  0.1334 -0.3916 -0.1614
 3133DOPE   GL136755  29.519  14.834  13.505  0.0361 -0.0487  0.1260
 3133DOPE   GL236756  29.767  14.633  13.612 -0.1400  0.2514  0.0631
 3133DOPE   C1A36757  29.278  14.973  13.911 -0.3010 -0.0529  0.0803
 3133DOPE   D2A36758  29.130  14.963  14.394 -0.2028 -0.0665  0.2489
 3133DOPE   C3A36759  29.563  14.958  14.650  0.2063 -0.2086 -0.0147
 3133DOPE   C4A36760  29.967  14.736  14.688 -0.1556 -0.5139  0.0595
 3133DOPE   C1B36761  29.605  14.603  14.042  0.2263  0.2917  0.0711
 3133DOPE   D2B36762  29.397  14.251  14.253 -0.0367  0.0700 -0.2360
 3133DOPE   C3B36763  29.615  13.845  14.199 -0.0222 -0.2497 -0.3401
 3133DOPE   C4B36764  29.685  13.429  14.214 -0.0323 -0.0899  0.2419
 3134DOPC   NC336765  25.358  14.619  11.892  0.0002 -0.2641 -0.0663
 3134DOPC   PO436766  25.267  14.521  12.302 -0.1833 -0.2941  0.2937
 3134DOPC   GL136767  24.993  14.375  12.531 -0.1046  0.1191  0.4600
 3134DOPC   GL236768  25.076  14.481  12.803  0.0656  0.3780  0.2227
 3134DOPC   C1A36769  24.845  13.954  12.602  0.0860  0.0029 -0.0453
 3134DOPC   D2A36770  25.168  13.645  12.739 -0.0263  0.0273  0.1134
 3134DOPC   C3A36771  25.122  13.308  13.008  0.0174  0.1196 -0.3321
 3134DOPC   C4A36772  24.978  13.088  13.389 -0.1513  0.1679  0.2512
 3134DOPC   C1B36773  24.929  14.163  13.183 -0.1111  0.0954  0.0537
 3134DOPC   D2B36774  25.014  13.751  13.335  0.1032  0.1185 -0.0747
 3134DOPC   C3B36775  24.687  13.480  13.243  0.0952  0.2808 -0.0240
 3134DOPC   C4B36776  24.468  13.209  13.463 -0.3223  0.0530 -0.0656
 3135DOPC   NC336777  29.817  22.595  13.261  0.2156  0.1903 -0.0201
 3135DOPC   PO436778  29.891  22.773  12.936  0.1368 -0.0977 -0.0155
 3135DOPC   GL136779  30.044  22.977  13.255  0.0239 -0.0090  0.0752
 3135DOPC   GL236780  30.071  23.194  13.024 -0.1493 -0.0399 -0.2142
 3135DOPC   C1A36781  30.154  22.985  13.722 -0.2511 -0.0867 -0.1382
 3135DOPC   D2A36782  30.180  23.083  14.137 -0.0458  0.1796 -0.0586
 3135DOPC   C3A36783  29.947  22.692  14.215  0.1418  0.0254  0.0128
 3135DOPC   C4A36784  29.816  22.192  14.189  0.1467  0.1197  0.1132
 3135DOPC   C1B36785  30.477  23.159  13.343 -0.1494 -0.2084  0.1831
 3135DOPC   D2B36786  30.846  22.912  13.468 -0.1143 -0.0326 -0.3493
 3135DOPC   C3B36787  31.152  23.089  13.742 -0.1146 -0.1632 -0.0346
 3135DOPC   C4B36788  31.193  23.355  14.126 -0.1322  0.0967 -0.2431
 3136POSM   NC336789  28.354  21.865  12.681  0.0081 -0.0030  0.0224
 3136POSM   PO436790  28.738  21.960  12.717 -0.1606  0.1169  0.1647
 3136POSM   AM136791  28.714  22.035  13.048  0.0195 -0.1243 -0.2279
 3136POSM   AM236792  28.588  22.277  13.215 -0.3455  0.1921  0.4879
 3136POSM   T1A36793  28.650  21.813  13.482  0.1899 -0.1524 -0.3025
 3136POSM   C2A36794  28.604  21.982  13.923  0.3291  0.3809  0.0801
 3136POSM   C3A36795  28.612  21.718  14.308 -0.1267 -0.3107 -0.1126
 3136POSM   C1B36796  28.454  22.349  13.551  0.0043  0.0648  0.0890
 3136POSM   D2B36797  28.168  22.559  13.812  0.1570 -0.0802 -0.0175
 3136POSM   C3B36798  27.737  22.390  13.802 -0.0701 -0.1019  0.0508
 3136POSM   C4B36799  27.365  22.468  14.059 -0.2296 -0.2116  0.0843
 3137DOPE   NH336800  29.429  16.315  13.053  0.0088 -0.1403 -0.2126
 3137DOPE   PO436801  29.133  16.406  12.942  0.1409 -0.0330 -0.2346
 3137DOPE   GL136802  28.815  16.391  13.099 -0.2745  0.0360 -0.0941
 3137DOPE   GL236803  28.832  16.185  13.301 -0.1899  0.1014 -0.4084
 3137DOPE   C1A36804  28.463  16.659  13.271 -0.0239  0.1460  0.2935
 3137DOPE   D2A36805  28.285  16.816  13.733 -0.2990 -0.0640 -0.2083
 3137DOPE   C3A36806  28.446  17.077  14.091  0.1518  0.2195 -0.0524
 3137DOPE   C4A36807  28.619  17.282  14.501  0.2115 -0.0414  0.0931
 3137DOPE   C1B36808  28.422  16.185  13.537  0.3636 -0.0722 -0.0115
 3137DOPE   D2B36809  27.999  16.103  13.712  0.0346  0.0676 -0.3589
 3137DOPE   C3B36810  27.870  15.941  14.131  0.1450  0.1500  0.0977
 3137DOPE   C4B36811  27.512  15.879  14.355 -0.1758  0.1202 -0.1987
 3138DOPS   CNO36812  29.531  16.255  12.585  0.1112  0.0922  0.1789
 3138DOPS   PO436813  29.180  16.305  12.423  0.0086  0.3830  0.1084
 3138DOPS   GL136814  28.821  16.255  12.672  0.0198 -0.2171  0.0899
 3138DOPS   GL236815  28.700  16.031  12.835  0.1086  0.0844  0.1611
 3138DOPS   C1A36816  28.408  16.313  12.552  0.1766  0.0035  0.0768
 3138DOPS   D2A36817  28.014  16.037  12.611 -0.0374  0.1600  0.0218
 3138DOPS   C3A36818  27.749  16.291  12.316  0.0477 -0.0161 -0.0835
 3138DOPS   C4A36819  27.434  16.672  12.207 -0.3511 -0.1151  0.0114
 3138DOPS   C1B36820  28.318  16.163  13.012 -0.1833 -0.1253 -0.0806
 3138DOPS   D2B36821  27.967  16.320  13.234 -0.0072 -0.3661 -0.0398
 3138DOPS   C3B36822  27.538  16.135  13.393 -0.2728 -0.3938 -0.2739
 3138DOPS   C4B36823  27.455  16.122  13.826 -0.3371 -0.0841  0.1119
 3139DOPC   NC336824  28.466  22.172  12.348 -0.2047 -0.2995  0.0495
 3139DOPC   PO436825  28.140  22.283  12.497 -0.2651 -0.1328 -0.1585
 3139DOPC   GL136826  28.034  22.697  12.620  0.1151 -0.4813  0.2823
 3139DOPC   GL236827  27.750  22.595  12.674 -0.0071 -0.1088 -0.0162
 3139DOPC   C1A36828  27.824  22.969  12.941  0.0283  0.2493 -0.2338
 3139DOPC   D2A36829  27.782  23.020  13.420  0.0688  0.1589 -0.3740
 3139DOPC   C3A36830  27.407  23.193  13.697 -0.4055 -0.0219  0.0692
 3139DOPC   C4A36831  27.083  23.339  13.944  0.0739  0.1242  0.4250
 3139DOPC   C1B36832  27.474  22.715  12.316  0.0134  0.1974 -0.0213
 3139DOPC   D2B36833  27.050  22.870  12.263  0.4467  0.0719  0.0044
 3139DOPC   C3B36834  26.884  23.037  12.694  0.2091 -0.0219 -0.2061
 3139DOPC   C4B36835  26.866  22.755  13.062  0.0051 -0.0454 -0.1416
 3140DOPE   NH336836  24.845  14.706  12.119  0.1696  0.1765 -0.0878
 3140DOPE   PO436837  24.835  14.790  12.455 -0.0037  0.0248 -0.0350
 3140DOPE   GL136838  24.570  14.938  12.789 -0.3025  0.4476  0.1358
 3140DOPE   GL236839  24.502  15.204  12.699 -0.0741 -0.3485  0.0772
 3140DOPE   C1A36840  24.157  14.774  12.875  0.3266 -0.1896  0.1993
 3140DOPE   D2A36841  23.734  14.890  12.692  0.2533  0.0126  0.1056
 3140DOPE   C3A36842  23.351  14.919  12.886  0.0465 -0.1296  0.0528
 3140DOPE   C4A36843  22.899  15.102  12.870  0.0781 -0.0687  0.0273
 3140DOPE   C1B36844  24.115  15.307  12.892  0.1562  0.2100 -0.2241
 3140DOPE   D2B36845  23.843  15.500  13.185  0.1123  0.1384 -0.1013
 3140DOPE   C3B36846  23.545  15.180  13.321  0.2247 -0.1580  0.0613
 3140DOPE   C4B36847  23.083  15.090  13.438 -0.1295 -0.2863  0.1399
 3141DOPE   NH336848  30.261  16.723  12.770 -0.0815  0.1534 -0.0398
 3141DOPE   PO436849  30.061  16.995  12.705 -0.0902  0.0479  0.4773
 3141DOPE   GL136850  29.766  17.276  12.747  0.3938  0.0483  0.0916
 3141DOPE   GL236851  29.768  17.541  12.577 -0.0252 -0.4406 -0.1707
 3141DOPE   C1A36852  29.566  17.661  13.009  0.1250 -0.0453  0.0798
 3141DOPE   D2A36853  29.120  17.701  13.012  0.1653 -0.2034 -0.0084
 3141DOPE   C3A36854  28.898  17.279  13.041 -0.4036 -0.1694 -0.1388
 3141DOPE   C4A36855  28.534  17.088  12.907  0.0747 -0.1371  0.3813
 3141DOPE   C1B36856  29.613  17.964  12.464 -0.0542 -0.1399  0.1253
 3141DOPE   D2B36857  29.471  18.365  12.302  0.2026  0.2180 -0.1571
 3141DOPE   C3B36858  29.293  18.570  12.637  0.0013  0.0922  0.0102
 3141DOPE   C4B36859  29.128  18.752  13.062  0.0640 -0.0872  0.3954
 3142POSM   NC336860  32.562  19.386  12.659  0.1117 -0.0126 -0.1301
 3142POSM   PO436861  32.313  19.049  12.642  0.0842 -0.1368  0.1526
 3142POSM   AM136862  32.251  19.225  12.919 -0.0551  0.2544  0.0464
 3142POSM   AM236863  32.195  19.477  13.026  0.0907  0.2727  0.2686
 3142POSM   T1A36864  32.461  19.376  13.401  0.2186 -0.0754 -0.3472
 3142POSM   C2A36865  32.475  19.562  13.833  0.2053  0.0990 -0.0793
 3142POSM   C3A36866  32.529  20.018  13.882  0.1389 -0.2777  0.2477
 3142POSM   C1B36867  31.941  19.392  13.251  0.2581 -0.3432  0.0231
 3142POSM   D2B36868  31.562  19.602  13.528 -0.0020 -0.3992 -0.0885
 3142POSM   C3B36869  31.551  19.858  13.894 -0.0330  0.0841 -0.1248
 3142POSM   C4B36870  31.861  20.253  14.019  0.0448  0.0259  0.2274
 3143POSM   NC336871  31.837  23.016  12.042  0.0222 -0.1476 -0.0898
 3143POSM   PO436872  31.806  22.674  12.256  0.2349 -0.0665  0.0326
 3143POSM   AM136873  31.962  22.518  12.512 -0.2029  0.1823 -0.1889
 3143POSM   AM236874  32.098  22.252  12.557  0.2109  0.1901  0.2386
 3143POSM   T1A36875  32.049  22.475  13.028 -0.0597 -0.1991 -0.2362
 3143POSM   C2A36876  32.260  22.218  13.382  0.0224 -0.0412  0.2551
 3143POSM   C3A36877  32.525  22.367  13.662  0.0225  0.1468  0.1789
 3143POSM   C1B36878  32.406  22.200  12.527 -0.3276  0.2639  0.2911
 3143POSM   D2B36879  32.897  22.297  12.524  0.0244 -0.1586  0.0486
 3143POSM   C3B36880  33.085  22.460  12.963 -0.0151  0.1086  0.0801
 3143POSM   C4B36881  32.988  22.354  13.430 -0.1438 -0.1176 -0.0071
 3144DOPC   NC336882  23.784  15.773  12.226 -0.1032  0.1495 -0.2263
 3144DOPC   PO436883  24.112  15.806  11.981  0.4048 -0.0411  0.1197
 3144DOPC   GL136884  24.261  15.877  12.355  0.0039 -0.0105 -0.0538
 3144DOPC   GL236885  24.453  16.086  12.254  0.2134  0.0696  0.1283
 3144DOPC   C1A36886  24.569  15.736  12.666 -0.1809 -0.0327  0.1881
 3144DOPC   D2A36887  24.467  15.748  13.166 -0.0186  0.1910 -0.0785
 3144DOPC   C3A36888  24.414  15.263  13.299 -0.2591 -0.0444  0.1342
 3144DOPC   C4A36889  24.078  14.893  13.309  0.2370 -0.2086  0.3343
 3144DOPC   C1B36890  24.519  16.361  12.575 -0.1294  0.1829 -0.0529
 3144DOPC   D2B36891  24.702  16.688  12.833 -0.2574  0.0457 -0.0237
 3144DOPC   C3B36892  24.528  16.604  13.250  0.1439  0.1408 -0.3500
 3144DOPC   C4B36893  24.043  16.501  13.358 -0.2788 -0.1002 -0.1703
 3145DOPC   NC336894  28.355  21.213  12.635  0.0661  0.1272  0.0755
 3145DOPC   PO436895  28.077  21.462  12.759 -0.3229 -0.1629  0.2025
 3145DOPC   GL136896  27.863  21.700  12.991  0.0661 -0.1754  0.2437
 3145DOPC   GL236897  27.863  22.005  12.828 -0.4812 -0.0239  0.0729
 3145DOPC   C1A36898  27.856  21.643  13.471 -0.5492 -0.1690  0.1373
 3145DOPC   D2A36899  27.578  21.325  13.659  0.4298 -0.0320  0.1599
 3145DOPC   C3A36900  27.336  21.251  14.037 -0.0520 -0.1549  0.1155
 3145DOPC   C4A36901  27.320  21.171  14.485  0.0463 -0.3285  0.0399
 3145DOPC   C1B36902  27.614  22.064  13.249 -0.0129  0.0310 -0.0316
 3145DOPC   D2B36903  27.463  21.934  13.645 -0.3241  0.0270  0.1390
 3145DOPC   C3B36904  27.167  21.841  13.986  0.4002 -0.2509  0.1215
 3145DOPC   C4B36905  27.031  21.779  14.479  0.1709  0.0901  0.1287
 3146DOPC   NC336906  29.640  19.528  12.528  0.2109 -0.2250  0.0296
 3146DOPC   PO436907  29.624  19.144  12.510  0.1004 -0.0395  0.1049
 3146DOPC   GL136908  29.898  18.921  12.754 -0.4255 -0.3867  0.1873
 3146DOPC   GL236909  30.168  19.057  12.698  0.1961 -0.1363  0.4783
 3146DOPC   C1A36910  29.993  18.837  13.224 -0.0814  0.2145 -0.0524
 3146DOPC   D2A36911  29.990  18.802  13.698 -0.0270 -0.0839  0.0982
 3146DOPC   C3A36912  29.725  18.682  14.062 -0.1578 -0.2802  0.0238
 3146DOPC   C4A36913  29.459  18.649  14.457  0.0636 -0.2403 -0.0317
 3146DOPC   C1B36914  30.086  19.293  13.016 -0.1550  0.3486  0.2892
 3146DOPC   D2B36915  30.242  19.619  13.332 -0.0252  0.0323 -0.1671
 3146DOPC   C3B36916  30.134  19.410  13.738 -0.0594  0.2016  0.1566
 3146DOPC   C4B36917  30.349  19.221  14.139 -0.1924 -0.1898  0.1307
 3147POSM   NC336918  25.837  15.406  11.766 -0.0178  0.1831  0.2616
 3147POSM   PO436919  26.171  15.219  11.731 -0.0137  0.3998 -0.0570
 3147POSM   AM136920  26.270  15.100  12.029 -0.0275 -0.1436  0.0794
 3147POSM   AM236921  26.176  14.882  12.257  0.1495  0.2199  0.3562
 3147POSM   T1A36922  26.649  15.134  12.352 -0.1812  0.0664 -0.1787
 3147POSM   C2A36923  26.951  15.258  12.648 -0.0370 -0.0918  0.2873
 3147POSM   C3A36924  27.341  15.087  12.738  0.1536  0.0803 -0.1100
 3147POSM   C1B36925  26.253  14.628  12.135 -0.0372 -0.0793 -0.2353
 3147POSM   D2B36926  26.186  14.159  12.092 -0.0224 -0.1706 -0.0324
 3147POSM   C3B36927  26.079  14.002  11.672 -0.0891  0.3612 -0.2762
 3147POSM   C4B36928  26.171  14.051  11.265 -0.0808  0.0441  0.0980
 3148DOPC   NC336929  24.961  22.498  11.776  0.1195 -0.0811  0.0790
 3148DOPC   PO436930  25.132  22.830  11.959 -0.0377 -0.0665 -0.0466
 3148DOPC   GL136931  25.161  22.523  12.207 -0.4325  0.1481 -0.3383
 3148DOPC   GL236932  25.344  22.468  12.399 -0.1737 -0.0684  0.3597
 3148DOPC   C1A36933  24.911  22.168  12.215 -0.5164 -0.0943  0.0436
 3148DOPC   D2A36934  24.645  21.903  12.494  0.0952  0.1974  0.1239
 3148DOPC   C3A36935  24.823  21.653  12.769  0.0197 -0.0856  0.0975
 3148DOPC   C4A36936  25.283  21.527  12.897  0.1155 -0.1530  0.2017
 3148DOPC   C1B36937  25.597  22.257  12.761 -0.0723  0.2609  0.0572
 3148DOPC   D2B36938  25.636  22.180  13.224 -0.1340  0.0957  0.1270
 3148DOPC   C3B36939  25.314  21.889  13.331 -0.2148 -0.3180 -0.2980
 3148DOPC   C4B36940  24.886  21.995  13.127 -0.0100 -0.1016  0.1024
 3149POSM   NC336941  34.284  16.552  12.332  0.1299  0.1242  0.0098
 3149POSM   PO436942  33.998  16.286  12.451  0.0018 -0.0479 -0.1839
 3149POSM   AM136943  33.953  16.185  12.759 -0.1553  0.0612 -0.0500
 3149POSM   AM236944  33.863  16.343  12.992 -0.2119  0.2423 -0.0934
 3149POSM   T1A36945  33.691  15.923  13.096 -0.2183 -0.1015  0.1053
 3149POSM   C2A36946  33.484  15.647  13.471 -0.0429  0.0620  0.1058
 3149POSM   C3A36947  33.262  15.403  13.748  0.0211  0.1880  0.2160
 3149POSM   C1B36948  33.676  16.424  13.287 -0.0524  0.0137  0.1364
 3149POSM   D2B36949  33.429  16.571  13.644 -0.2048 -0.2469  0.1487
 3149POSM   C3B36950  33.491  16.908  14.022 -0.0759 -0.0508  0.1129
 3149POSM   C4B36951  33.580  17.165  14.431 -0.0442  0.3228 -0.0555
 3150DOPS   CNO36952  31.059  14.158  12.916  0.0289 -0.2240  0.0606
 3150DOPS   PO436953  30.997  14.093  13.257 -0.0041  0.1387 -0.0757
 3150DOPS   GL136954  31.277  14.112  13.465 -0.0560 -0.3510 -0.1073
 3150DOPS   GL236955  31.354  14.390  13.501 -0.0182 -0.3693 -0.2086
 3150DOPS   C1A36956  31.703  14.006  13.600 -0.0202  0.1280 -0.3021
 3150DOPS   D2A36957  32.110  13.925  13.781 -0.0661  0.2613 -0.1549
 3150DOPS   C3A36958  32.417  13.992  14.139  0.0490  0.2649  0.0942
 3150DOPS   C4A36959  32.586  13.733  14.445  0.0808 -0.0279  0.0370
 3150DOPS   C1B36960  31.604  14.468  13.877 -0.1325 -0.0854  0.3466
 3150DOPS   D2B36961  31.983  14.281  14.103 -0.0612  0.3787  0.2744
 3150DOPS   C3B36962  31.645  14.142  14.513  0.0112  0.1933 -0.1785
 3150DOPS   C4B36963  31.705  14.061  14.956 -0.1983  0.1650  0.0254
 3151DOPC   NC336964  29.221  17.272  12.555  0.0514 -0.0140  0.1208
 3151DOPC   PO436965  28.941  17.524  12.415  0.3686  0.1279  0.0585
 3151DOPC   GL136966  28.583  17.706  12.375 -0.2265  0.0062 -0.0335
 3151DOPC   GL236967  28.601  17.963  12.371 -0.1552  0.1841  0.1937
 3151DOPC   C1A36968  28.161  17.474  12.521 -0.1545  0.1426  0.1105
 3151DOPC   D2A36969  27.834  17.177  12.498 -0.0309 -0.0216 -0.0248
 3151DOPC   C3A36970  27.983  16.794  12.228  0.0793  0.2029 -0.3032
 3151DOPC   C4A36971  28.356  16.665  11.938 -0.0449 -0.1029 -0.2979
 3151DOPC   C1B36972  28.977  18.149  12.556  0.0675 -0.2247 -0.1192
 3151DOPC   D2B36973  29.349  18.175  12.850 -0.0444  0.1660  0.0415
 3151DOPC   C3B36974  29.379  18.207  13.303 -0.1417 -0.0178 -0.1105
 3151DOPC   C4B36975  29.096  18.510  13.507 -0.0820 -0.0312  0.0270
 3152DOPS   CNO36976  23.726  22.317  12.124 -0.1484 -0.0995 -0.0938
 3152DOPS   PO436977  23.887  21.988  11.957  0.0478  0.0759 -0.0297
 3152DOPS   GL136978  23.784  21.848  12.340 -0.0783 -0.0575 -0.2919
 3152DOPS   GL236979  23.866  21.559  12.355  0.1689 -0.1672  0.0537
 3152DOPS   C1A36980  23.647  21.894  12.786 -0.1358 -0.4028 -0.1095
 3152DOPS   D2A36981  23.610  21.643  13.190  0.2178 -0.2178 -0.2216
 3152DOPS   C3A36982  23.450  21.779  13.625 -0.0480  0.0491 -0.1492
 3152DOPS   C4A36983  23.182  21.762  14.046 -0.1907  0.0007 -0.0961
 3152DOPS   C1B36984  23.904  21.435  12.790 -0.2532 -0.2371  0.0941
 3152DOPS   D2B36985  24.012  21.161  13.148  0.0624  0.0557 -0.3488
 3152DOPS   C3B36986  24.407  21.298  13.451 -0.0138  0.0091  0.3970
 3152DOPS   C4B36987  24.345  21.683  13.720 -0.2270 -0.1708  0.0225
 3153DOPE   NH336988  27.945  19.871  12.332  0.2508  0.0964 -0.4074
 3153DOPE   PO436989  28.147  20.132  12.430 -0.1481 -0.0815  0.0807
 3153DOPE   GL136990  27.996  20.358  12.766 -0.3998  0.4336 -0.3313
 3153DOPE   GL236991  27.674  20.262  12.631  0.2014  0.0665 -0.1935
 3153DOPE   C1A36992  28.180  20.683  13.060  0.2197  0.1729 -0.0320
 3153DOPE   D2A36993  28.469  21.007  13.185  0.2419  0.2314  0.3554
 3153DOPE   C3A36994  28.306  21.375  13.415 -0.0348 -0.2622  0.0040
 3153DOPE   C4A36995  28.475  21.462  13.801  0.1961  0.0130  0.0954
 3153DOPE   C1B36996  27.853  20.098  13.072 -0.2285 -0.4827 -0.2772
 3153DOPE   D2B36997  27.730  19.975  13.482 -0.4253 -0.2880  0.1298
 3153DOPE   C3B36998  27.833  20.003  13.935 -0.0635  0.1820 -0.0128
 3153DOPE   C4B36999  27.863  20.435  14.080  0.0137  0.1305  0.0467
 3154DOPE   NH337000  33.798  13.642  12.907  0.1311 -0.1186 -0.0788
 3154DOPE   PO437001  33.922  13.925  12.852 -0.0680 -0.0153  0.1775
 3154DOPE   GL137002  33.740  14.000  13.180 -0.0745  0.6423  0.0527
 3154DOPE   GL237003  33.471  13.799  13.215 -0.2750  0.1416  0.0328
 3154DOPE   C1A37004  34.015  14.163  13.545 -0.0534 -0.1284 -0.0875
 3154DOPE   D2A37005  34.245  14.227  13.975  0.1657  0.3468  0.3057
 3154DOPE   C3A37006  33.913  14.125  14.273 -0.2887  0.0710 -0.1940
 3154DOPE   C4A37007  33.599  13.818  14.274  0.0726  0.0800  0.0061
 3154DOPE   C1B37008  33.585  13.778  13.649  0.0478 -0.1152 -0.0158
 3154DOPE   D2B37009  33.960  13.771  13.844 -0.1341  0.1113  0.0800
 3154DOPE   C3B37010  34.293  13.437  13.785  0.0756  0.2855 -0.2265
 3154DOPE   C4B37011  34.633  13.191  14.050 -0.1998 -0.1358  0.1677
 3155DOPE   NH337012  30.566  15.257  12.956  0.0456 -0.1640 -0.1649
 3155DOPE   PO437013  30.436  15.552  13.032 -0.2404  0.0252 -0.0153
 3155DOPE   GL137014  30.239  15.827  13.277  0.1129  0.0693 -0.2581
 3155DOPE   GL237015  30.499  15.947  13.441  0.3921 -0.0896 -0.0256
 3155DOPE   C1A37016  30.099  16.001  13.728 -0.1721  0.1482  0.0484
 3155DOPE   D2A37017  30.113  16.079  14.228 -0.1847 -0.0451 -0.2512
 3155DOPE   C3A37018  29.822  15.854  14.526  0.0217  0.1986  0.1714
 3155DOPE   C4A37019  29.455  15.891  14.823 -0.0160  0.0324  0.0838
 3155DOPE   C1B37020  30.443  15.718  13.817 -0.1412  0.1747 -0.1055
 3155DOPE   D2B37021  30.275  15.597  14.258  0.0223 -0.0850 -0.1587
 3155DOPE   C3B37022  30.453  15.132  14.345 -0.1057 -0.5772  0.2006
 3155DOPE   C4B37023  30.418  14.687  14.502  0.0876  0.0332  0.3028
 3156DOPC   NC337024  28.858  13.569  12.441  0.1557  0.2267  0.3103
 3156DOPC   PO437025  28.579  13.386  12.656  0.0531 -0.1465 -0.2052
 3156DOPC   GL137026  28.515  13.286  13.054 -0.1697 -0.1021  0.6651
 3156DOPC   GL237027  28.424  13.030  12.957  0.3777 -0.2247  0.3310
 3156DOPC   C1A37028  28.531  13.318  13.488  0.2916 -0.1630 -0.4765
 3156DOPC   D2A37029  28.295  13.097  13.766 -0.0012  0.1777  0.0444
 3156DOPC   C3A37030  28.544  12.764  13.918  0.1446 -0.1964  0.0555
 3156DOPC   C4A37031  28.883  12.532  13.703 -0.1491 -0.3455 -0.4728
 3156DOPC   C1B37032  28.147  12.949  13.297  0.0386  0.0031 -0.1254
 3156DOPC   D2B37033  27.807  12.981  13.666 -0.1876  0.0170 -0.0247
 3156DOPC   C3B37034  27.651  13.147  14.139  0.3490  0.3875 -0.1960
 3156DOPC   C4B37035  27.898  13.218  14.416 -0.0543  0.1807  0.1166
 3157DOPS   CNO37036   0.016  19.936  12.524  0.0520 -0.0478  0.2976
 3157DOPS   PO437037  -0.154  19.618  12.712  0.3368 -0.2110 -0.1163
 3157DOPS   GL137038  -0.004  19.674  13.061 -0.0994  0.4594 -0.2188
 3157DOPS   GL237039   0.203  19.866  13.048  0.1742 -0.3942 -0.0863
 3157DOPS   C1A37040  -0.220  19.535  13.449  0.0460  0.1815  0.0548
 3157DOPS   D2A37041  -0.588  19.343  13.510  0.0484 -0.2249 -0.1248
 3157DOPS   C3A37042  -0.712  18.917  13.695 -0.1562  0.1606 -0.0129
 3157DOPS   C4A37043  -0.722  18.643  14.054 -0.0980  0.0185  0.0012
 3157DOPS   C1B37044   0.127  19.875  13.524 -0.2139  0.1042  0.2797
 3157DOPS   D2B37045  -0.114  19.870  13.916  0.2388  0.3134  0.1126
 3157DOPS   C3B37046  -0.543  19.685  13.934  0.1587 -0.3125  0.1475
 3157DOPS   C4B37047  -0.847  19.352  13.928 -0.4971 -0.1181  0.2472
 3158DOPS   CNO37048  30.810  22.467  13.168  0.0019  0.0834  0.0092
 3158DOPS   PO437049  30.619  22.200  13.021 -0.2386 -0.1694 -0.0591
 3158DOPS   GL137050  30.643  22.054  13.359  0.0954  0.0325  0.0950
 3158DOPS   GL237051  30.606  21.815  13.536  0.2577  0.1213 -0.0223
 3158DOPS   C1A37052  30.774  22.231  13.785 -0.0737 -0.3484  0.0197
 3158DOPS   D2A37053  31.177  22.228  14.089  0.1039 -0.1799 -0.0811
 3158DOPS   C3A37054  31.309  21.831  14.183  0.3482  0.0017 -0.1157
 3158DOPS   C4A37055  31.779  21.721  14.282 -0.0057  0.0683 -0.1780
 3158DOPS   C1B37056  30.298  21.672  13.857  0.0632 -0.0912 -0.1374
 3158DOPS   D2B37057  30.410  21.328  14.176 -0.2393  0.0438 -0.1662
 3158DOPS   C3B37058  30.292  21.742  14.442  0.1695 -0.1239  0.1077
 3158DOPS   C4B37059  30.262  22.149  14.532 -0.1851 -0.3433 -0.0642
 3159DOPC   NC337060  30.275  21.790  13.102 -0.1665 -0.0400 -0.1377
 3159DOPC   PO437061  30.296  21.431  12.954 -0.3113  0.4117 -0.0148
 3159DOPC   GL137062  30.426  21.256  13.231 -0.2715  0.0688 -0.3927
 3159DOPC   GL237063  30.146  21.277  13.388  0.1169  0.0422  0.0741
 3159DOPC   C1A37064  30.654  21.102  13.610  0.4148 -0.0770  0.4852
 3159DOPC   D2A37065  30.601  20.690  13.889 -0.3716  0.0323  0.2215
 3159DOPC   C3A37066  30.898  20.568  14.176 -0.0708  0.1306  0.0948
 3159DOPC   C4A37067  31.166  20.768  14.402 -0.1228  0.3140  0.1806
 3159DOPC   C1B37068  30.068  21.056  13.754 -0.4017  0.0821  0.1907
 3159DOPC   D2B37069  30.146  20.903  14.187 -0.2828  0.0916  0.3655
 3159DOPC   C3B37070  30.435  20.547  14.325  0.0177  0.1080  0.0992
 3159DOPC   C4B37071  30.538  20.087  14.278  0.0108 -0.0389  0.1170
 3160DOPS   CNO37072  26.165  16.337  12.142 -0.2195 -0.2115 -0.3015
 3160DOPS   PO437073  25.871  16.575  12.178  0.0775 -0.3292  0.1649
 3160DOPS   GL137074  25.877  16.273  12.474  0.0191  0.1141  0.2437
 3160DOPS   GL237075  26.143  16.300  12.612 -0.2990 -0.0672  0.1202
 3160DOPS   C1A37076  25.702  16.089  12.877  0.1525  0.0751 -0.0913
 3160DOPS   D2A37077  25.444  15.903  13.262 -0.0859  0.1186  0.3064
 3160DOPS   C3A37078  24.962  15.864  13.235 -0.1847 -0.0876 -0.3180
 3160DOPS   C4A37079  24.690  16.143  12.988 -0.0161 -0.3276  0.1994
 3160DOPS   C1B37080  26.500  16.007  12.494  0.0489  0.2789 -0.3551
 3160DOPS   D2B37081  26.827  15.731  12.708  0.0702  0.3043  0.0102
 3160DOPS   C3B37082  26.921  15.688  13.193 -0.3452 -0.1016  0.0117
 3160DOPS   C4B37083  27.128  15.475  13.517  0.0885 -0.1017 -0.1770
 3161DOPS   CNO37084  27.975  18.185  12.237  0.0013 -0.3387  0.1922
 3161DOPS   PO437085  27.644  18.310  12.348 -0.0380  0.0439  0.0135
 3161DOPS   GL137086  27.558  18.370  12.696  0.1478 -0.1792  0.0816
 3161DOPS   GL237087  27.389  18.485  12.898  0.5568  0.0213  0.1743
 3161DOPS   C1A37088  27.722  18.142  13.130 -0.0920 -0.0455  0.1340
 3161DOPS   D2A37089  28.126  18.201  13.314  0.3803  0.0371 -0.0875
 3161DOPS   C3A37090  28.387  17.897  13.533  0.0823  0.0043  0.1907
 3161DOPS   C4A37091  28.424  17.563  13.873 -0.0722 -0.0308 -0.2715
 3161DOPS   C1B37092  27.235  18.212  13.203 -0.1464  0.0689 -0.0216
 3161DOPS   D2B37093  27.313  18.093  13.643 -0.2641 -0.0376  0.2148
 3161DOPS   C3B37094  26.976  18.203  13.955 -0.0243  0.4770  0.1302
 3161DOPS   C4B37095  26.451  18.236  13.941 -0.0091 -0.0823  0.1915
 3162DOPC   NC337096  24.534  20.671  12.007 -0.0538  0.0443 -0.0113
 3162DOPC   PO437097  24.411  20.369  11.799  0.1015  0.0404  0.2470
 3162DOPC   GL137098  24.769  20.221  12.009  0.3370  0.1034  0.0823
 3162DOPC   GL237099  25.076  20.430  11.971 -0.1690 -0.0469 -0.0555
 3162DOPC   C1A37100  25.110  20.149  12.394  0.2822  0.2662  0.0546
 3162DOPC   D2A37101  25.450  19.899  12.567 -0.0392 -0.1375  0.2846
 3162DOPC   C3A37102  25.777  20.086  12.857  0.0336  0.2466  0.2070
 3162DOPC   C4A37103  26.193  20.254  13.000  0.2301  0.1563  0.0057
 3162DOPC   C1B37104  25.002  20.858  12.194 -0.0077 -0.3431 -0.3698
 3162DOPC   D2B37105  25.201  21.312  12.126 -0.0950  0.3113 -0.0068
 3162DOPC   C3B37106  25.004  21.625  12.350 -0.3791  0.0042  0.0610
 3162DOPC   C4B37107  25.222  21.984  12.578  0.1522 -0.0953  0.2410
 3163DOPE   NH337108  34.106  11.606  12.897 -0.1942  0.1044 -0.1033
 3163DOPE   PO437109  33.842  11.470  12.702 -0.2107  0.2731  0.0672
 3163DOPE   GL137110  33.594  11.434  13.046 -0.0764 -0.3605  0.1032
 3163DOPE   GL237111  33.740  11.745  13.197 -0.0935  0.2391 -0.0447
 3163DOPE   C1A37112  33.406  11.436  13.429  0.0554 -0.4029 -0.0753
 3163DOPE   D2A37113  33.113  11.329  13.814 -0.0783  0.0408  0.0664
 3163DOPE   C3A37114  33.187  10.911  14.037 -0.0504  0.0259  0.0951
 3163DOPE   C4A37115  33.204  10.605  14.337 -0.0059 -0.1811  0.0943
 3163DOPE   C1B37116  33.395  11.921  13.432  0.2375 -0.1258  0.0387
 3163DOPE   D2B37117  33.126  11.842  13.766  0.2037  0.0821  0.1256
 3163DOPE   C3B37118  32.683  11.642  13.921  0.0060  0.0140  0.1370
 3163DOPE   C4B37119  32.296  11.807  13.940  0.0762  0.2711  0.1321
 3164DOPE   NH337120  23.610  22.816  12.220 -0.1376 -0.2291 -0.1231
 3164DOPE   PO437121  23.459  23.081  12.350  0.3059 -0.4714 -0.0554
 3164DOPE   GL137122  23.522  23.063  12.762  0.1346  0.2238  0.1427
 3164DOPE   GL237123  23.477  22.721  12.735 -0.1421 -0.2388  0.2023
 3164DOPE   C1A37124  23.558  22.925  13.212 -0.1295 -0.4090 -0.1336
 3164DOPE   D2A37125  23.341  23.007  13.589 -0.3566 -0.1640 -0.0364
 3164DOPE   C3A37126  23.313  22.738  13.978  0.0297  0.2402  0.4971
 3164DOPE   C4A37127  23.305  22.524  14.422  0.0333  0.0199 -0.2718
 3164DOPE   C1B37128  23.649  22.429  13.103  0.1421  0.1740  0.1624
 3164DOPE   D2B37129  23.782  22.064  13.383 -0.0904  0.0046  0.1527
 3164DOPE   C3B37130  24.067  21.707  13.313 -0.0619  0.1957 -0.0593
 3164DOPE   C4B37131  24.495  21.691  13.175  0.4116 -0.0389  0.0582
 3165POSM   NC337132  29.222  14.326  12.707 -0.1274 -0.3276 -0.0512
 3165POSM   PO437133  29.052  14.639  12.887 -0.2136  0.4621 -0.2359
 3165POSM   AM137134  29.061  14.673  13.206  0.1063 -0.0842  0.2082
 3165POSM   AM237135  29.047  14.884  13.404 -0.1753 -0.1940  0.2042
 3165POSM   T1A37136  29.194  14.542  13.696 -0.2799  0.0025  0.0119
 3165POSM   C2A37137  28.940  14.443  14.051 -0.4745 -0.0020 -0.0345
 3165POSM   C3A37138  28.580  14.434  14.282  0.3288 -0.3907  0.0557
 3165POSM   C1B37139  28.840  14.941  13.657 -0.1532  0.1731  0.2580
 3165POSM   D2B37140  28.737  15.006  14.053  0.0092  0.0143 -0.0454
 3165POSM   C3B37141  28.327  15.213  14.241  0.2924  0.1728  0.0796
 3165POSM   C4B37142  27.932  15.447  14.230  0.0810  0.3489  0.0450
 3166DOPS   CNO37143  31.761  22.162  12.174 -0.1650  0.1952 -0.4298
 3166DOPS   PO437144  31.530  22.295  12.462 -0.3766  0.1438 -0.0276
 3166DOPS   GL137145  31.656  22.334  12.876 -0.2314 -0.0134  0.3105
 3166DOPS   GL237146  31.720  22.052  12.889 -0.0537 -0.1136  0.4925
 3166DOPS   C1A37147  31.758  22.237  13.338 -0.1477  0.0768 -0.1269
 3166DOPS   D2A37148  31.908  22.028  13.766  0.0632  0.3139 -0.3130
 3166DOPS   C3A37149  32.240  21.747  13.783 -0.0047  0.0464  0.1453
 3166DOPS   C4A37150  32.559  21.446  13.690  0.0158  0.1868  0.0284
 3166DOPS   C1B37151  32.174  21.958  12.980  0.0874 -0.0894 -0.2232
 3166DOPS   D2B37152  32.437  21.651  13.199 -0.0241  0.0063  0.0359
 3166DOPS   C3B37153  32.812  21.865  13.359  0.0840  0.0208 -0.1153
 3166DOPS   C4B37154  33.259  21.832  13.433 -0.3165  0.1086 -0.1047
 3167DOPC   NC337155  30.697  14.371  13.536 -0.0047  0.0325  0.0655
 3167DOPC   PO437156  30.329  14.544  13.563 -0.0992  0.2550 -0.2776
 3167DOPC   GL137157  30.195  14.178  13.607 -0.1213  0.1154 -0.2712
 3167DOPC   GL237158  30.053  14.179  13.344 -0.0709  0.3267  0.4087
 3167DOPC   C1A37159  30.171  13.796  13.882 -0.1517 -0.3580 -0.0112
 3167DOPC   D2A37160  30.131  13.781  14.326 -0.0164 -0.0344 -0.2295
 3167DOPC   C3A37161  30.248  13.522  14.632 -0.0699  0.0081  0.1026
 3167DOPC   C4A37162  30.264  13.301  15.001  0.2103  0.0212  0.0296
 3167DOPC   C1B37163  29.840  13.852  13.426 -0.3560 -0.0124  0.3374
 3167DOPC   D2B37164  29.648  13.682  13.754 -0.3786 -0.2879  0.3775
 3167DOPC   C3B37165  29.244  13.540  13.889  0.0024 -0.0852 -0.1147
 3167DOPC   C4B37166  28.979  13.199  13.986  0.0948 -0.0380 -0.5460
 3168DOPE   NH337167  23.674  14.852  11.891 -0.4000  0.1785  0.0939
 3168DOPE   PO437168  23.731  14.847  12.195 -0.0169 -0.0065  0.1738
 3168DOPE   GL137169  23.681  14.545  12.407 -0.2851 -0.4005 -0.0386
 3168DOPE   GL237170  23.349  14.589  12.460 -0.3365 -0.3512  0.2776
 3168DOPE   C1A37171  23.597  14.342  12.821  0.1682 -0.0973  0.0533
 3168DOPE   D2A37172  23.296  13.998  12.904 -0.2813  0.0354 -0.1277
 3168DOPE   C3A37173  23.248  13.540  13.096  0.0177  0.2456  0.0318
 3168DOPE   C4A37174  23.093  13.122  13.169 -0.0052 -0.0171  0.0000
 3168DOPE   C1B37175  23.041  14.484  12.801  0.2599 -0.0962 -0.0452
 3168DOPE   D2B37176  22.825  14.245  13.085  0.0087  0.2135  0.0252
 3168DOPE   C3B37177  23.069  13.971  13.374  0.1712  0.1016  0.1928
 3168DOPE   C4B37178  23.332  13.751  13.646 -0.0062 -0.2522  0.2343
 3169DOPS   CNO37179  30.185  14.573  12.726  0.2997 -0.2774  0.2351
 3169DOPS   PO437180  29.912  14.354  12.859 -0.2706  0.1924 -0.1894
 3169DOPS   GL137181  29.600  14.129  13.026 -0.0524 -0.3453  0.1155
 3169DOPS   GL237182  29.378  14.364  13.221  0.1186 -0.4717  0.0193
 3169DOPS   C1A37183  29.260  13.897  13.259 -0.0438  0.2469  0.1665
 3169DOPS   D2A37184  29.372  13.440  13.401 -0.0616  0.0792  0.2324
 3169DOPS   C3A37185  28.999  13.145  13.440 -0.1595  0.1618  0.1347
 3169DOPS   C4A37186  28.653  12.864  13.385  0.0433  0.0907 -0.0816
 3169DOPS   C1B37187  29.597  14.210  13.684 -0.1512  0.0275  0.3648
 3169DOPS   D2B37188  29.895  14.214  14.001 -0.0233 -0.0930 -0.0131
 3169DOPS   C3B37189  29.912  14.268  14.465  0.0512  0.0400  0.0428
 3169DOPS   C4B37190  29.903  13.937  14.712  0.1211 -0.2526 -0.0729
 3170DOPS   CNO37191  32.023  19.481  12.125 -0.0022 -0.0235  0.2319
 3170DOPS   PO437192  32.099  19.543  12.500  0.3800  0.1194  0.2351
 3170DOPS   GL137193  32.373  19.781  12.447  0.0078  0.1356 -0.5918
 3170DOPS   GL237194  32.233  20.014  12.566  0.0721  0.3026  0.1900
 3170DOPS   C1A37195  32.719  20.110  12.577 -0.1582 -0.0667  0.0946
 3170DOPS   D2A37196  32.815  20.500  12.890 -0.0283  0.0119  0.0871
 3170DOPS   C3A37197  32.599  20.823  12.675  0.2302  0.0595 -0.0281
 3170DOPS   C4A37198  32.742  21.093  12.339  0.1907  0.0794 -0.0852
 3170DOPS   C1B37199  32.336  20.436  12.738 -0.2283 -0.0272 -0.2018
 3170DOPS   D2B37200  32.248  20.796  13.079  0.1606  0.0172 -0.1366
 3170DOPS   C3B37201  32.604  20.668  13.304  0.1769 -0.2088  0.1159
 3170DOPS   C4B37202  32.574  20.513  13.754  0.1506  0.1647 -0.0075
 3171DOPE   NH337203  23.044  22.226  12.410 -0.2128 -0.1398  0.0123
 3171DOPE   PO437204  23.342  22.320  12.405 -0.1153  0.0987 -0.2375
 3171DOPE   GL137205  23.211  21.988  12.741  0.1281 -0.0472 -0.2121
 3171DOPE   GL237206  23.171  21.681  12.626  0.0330  0.1137 -0.2163
 3171DOPE   C1A37207  23.216  21.979  13.218  0.0705 -0.1001  0.1241
 3171DOPE   D2A37208  22.979  22.024  13.617  0.1179  0.0287  0.0152
 3171DOPE   C3A37209  23.330  22.211  13.943 -0.0525  0.3989  0.0375
 3171DOPE   C4A37210  23.507  22.058  14.362 -0.2577 -0.1040  0.0296
 3171DOPE   C1B37211  23.094  21.504  13.041  0.0456  0.1799 -0.3465
 3171DOPE   D2B37212  22.893  21.086  13.236 -0.2647  0.0201  0.3830
 3171DOPE   C3B37213  22.658  21.158  13.637 -0.1838 -0.2502 -0.1600
 3171DOPE   C4B37214  22.364  20.860  13.834  0.0614  0.0476 -0.2122
 3172DOPE   NH337215  28.099  18.134  12.711  0.0437 -0.0294 -0.1288
 3172DOPE   PO437216  28.370  18.280  12.773 -0.2415 -0.2253 -0.0030
 3172DOPE   GL137217  28.524  18.065  13.052  0.1437 -0.2788  0.2927
 3172DOPE   GL237218  28.616  17.811  12.881 -0.0109 -0.1670  0.1518
 3172DOPE   C1A37219  28.596  18.343  13.433 -0.2429 -0.1273 -0.4108
 3172DOPE   D2A37220  28.627  18.191  13.855 -0.0164  0.2243 -0.2118
 3172DOPE   C3A37221  28.270  18.089  14.111 -0.2236  0.2158 -0.0592
 3172DOPE   C4A37222  27.911  18.043  14.379  0.0562  0.1571 -0.1196
 3172DOPE   C1B37223  28.394  17.517  13.094 -0.3904  0.0663 -0.2004
 3172DOPE   D2B37224  28.078  17.180  13.063 -0.0552  0.0058 -0.2994
 3172DOPE   C3B37225  27.918  16.982  13.474 -0.1239  0.2566  0.1680
 3172DOPE   C4B37226  27.665  16.603  13.750 -0.4694  0.0828  0.1316
 3173POSM   NC337227  33.660  12.311  12.492 -0.1212 -0.2686  0.1448
 3173POSM   PO437228  33.968  11.990  12.488 -0.0365  0.1776 -0.2048
 3173POSM   AM137229  33.818  11.982  12.789  0.0767 -0.3706  0.2143
 3173POSM   AM237230  33.696  12.214  12.971 -0.0833  0.1495 -0.1745
 3173POSM   T1A37231  33.327  11.859  12.938 -0.1098  0.0232 -0.0033
 3173POSM   C2A37232  32.937  11.788  12.793 -0.0420 -0.0091  0.3879
 3173POSM   C3A37233  32.461  11.742  12.915  0.2667 -0.3722 -0.2878
 3173POSM   C1B37234  33.758  12.244  13.326  0.0004  0.0778  0.0846
 3173POSM   D2B37235  33.574  12.347  13.695  0.4726  0.1617 -0.1066
 3173POSM   C3B37236  33.561  12.025  14.079 -0.2319  0.6134 -0.1753
 3173POSM   C4B37237  33.614  12.144  14.579 -0.0129  0.1617 -0.0187
 3174DOPC   NC337238  30.769  16.220  12.941 -0.0168 -0.0877  0.0977
 3174DOPC   PO437239  30.921  16.125  13.253 -0.1216  0.1135 -0.1722
 3174DOPC   GL137240  31.106  16.003  13.531 -0.0200  0.0985  0.0323
 3174DOPC   GL237241  30.999  15.800  13.698  0.2034 -0.0376  0.0061
 3174DOPC   C1A37242  31.439  16.163  13.752  0.3682  0.0575 -0.3694
 3174DOPC   D2A37243  31.437  16.335  14.178  0.2139  0.1297  0.2592
 3174DOPC   C3A37244  31.471  16.729  14.309 -0.0661  0.3204  0.0788
 3174DOPC   C4A37245  31.599  17.208  14.369 -0.1907  0.0546 -0.0301
 3174DOPC   C1B37246  31.074  15.972  14.156 -0.0811  0.3598 -0.0918
 3174DOPC   D2B37247  31.088  16.323  14.509  0.1732 -0.0172  0.1453
 3174DOPC   C3B37248  30.959  16.233  14.986  0.1105  0.1791  0.0381
 3174DOPC   C4B37249  31.166  16.052  15.294  0.1658 -0.1017 -0.2910
 3175DOPC   NC337250  27.015  17.838  11.939  0.2173  0.3042  0.2700
 3175DOPC   PO437251  27.373  17.841  12.117 -0.0124  0.0885 -0.1196
 3175DOPC   GL137252  27.496  17.675  12.444  0.1093  0.0774 -0.4340
 3175DOPC   GL237253  27.775  17.826  12.511 -0.1815 -0.0323 -0.0633
 3175DOPC   C1A37254  27.415  17.472  12.809 -0.4203 -0.2502  0.4052
 3175DOPC   D2A37255  27.033  17.429  13.040 -0.2271  0.1857 -0.0988
 3175DOPC   C3A37256  27.068  17.003  13.149 -0.0461 -0.2140 -0.1571
 3175DOPC   C4A37257  26.728  16.756  13.326 -0.3387 -0.1037  0.1973
 3175DOPC   C1B37258  27.870  17.616  12.922  0.0594  0.1939  0.1298
 3175DOPC   D2B37259  27.937  17.638  13.420  0.0929  0.1039  0.1901
 3175DOPC   C3B37260  27.575  17.558  13.774  0.1052  0.0207  0.1124
 3175DOPC   C4B37261  27.542  17.179  14.073 -0.2958 -0.2567  0.2812
 3176DOPE   NH337262  31.816  23.469  12.556 -0.2632  0.1859 -0.0323
 3176DOPE   PO437263  31.890  23.171  12.504  0.2656  0.4350 -0.1431
 3176DOPE   GL137264  32.120  22.913  12.750  0.0167  0.0280 -0.1727
 3176DOPE   GL237265  32.292  22.831  12.559  0.1704  0.1475  0.0789
 3176DOPE   C1A37266  32.340  22.884  13.175  0.2041 -0.0999 -0.0086
 3176DOPE   D2A37267  32.131  23.169  13.414  0.5852 -0.0788  0.0213
 3176DOPE   C3A37268  31.857  23.234  13.821  0.0776 -0.0482 -0.2483
 3176DOPE   C4A37269  31.529  23.531  13.883  0.0539  0.3228  0.1817
 3176DOPE   C1B37270  32.560  22.537  12.824  0.1509 -0.0367  0.1201
 3176DOPE   D2B37271  32.646  22.127  12.986 -0.1949 -0.1556 -0.2998
 3176DOPE   C3B37272  32.660  21.750  12.722 -0.0620 -0.3707  0.1362
 3176DOPE   C4B37273  32.670  21.801  12.263  0.3157 -0.0596 -0.2316
 3177POSM   NC337274  34.647  23.121  11.917 -0.0758  0.0156 -0.2733
 3177POSM   PO437275  34.647  22.729  12.056 -0.0311  0.2936  0.2549
 3177POSM   AM137276  34.411  22.655  12.290  0.0588 -0.0266  0.4733
 3177POSM   AM237277  34.311  22.713  12.524 -0.2716 -0.0204  0.1522
 3177POSM   T1A37278  33.983  22.434  12.218 -0.1360 -0.3428 -0.1168
 3177POSM   C2A37279  33.654  22.119  12.121 -0.2540 -0.0054 -0.0534
 3177POSM   C3A37280  33.249  21.993  12.136 -0.0156  0.3627  0.0279
 3177POSM   C1B37281  34.135  22.878  12.726 -0.2727  0.0557  0.1136
 3177POSM   D2B37282  33.886  22.922  13.116  0.0619 -0.2580 -0.1958
 3177POSM   C3B37283  33.646  23.248  13.363 -0.0567  0.1615 -0.2238
 3177POSM   C4B37284  33.478  23.461  13.681 -0.1467 -0.0749 -0.0982
 3178DOPE   NH337285  30.171  17.327  13.041 -0.0962 -0.0308  0.1015
 3178DOPE   PO437286  30.276  17.485  12.740 -0.0843  0.1651 -0.1197
 3178DOPE   GL137287  30.035  17.744  13.040 -0.2137  0.1502  0.0311
 3178DOPE   GL237288  30.235  17.789  13.229  0.2427 -0.1691  0.0934
 3178DOPE   C1A37289  29.788  17.657  13.445  0.0532 -0.2262 -0.0620
 3178DOPE   D2A37290  29.523  17.861  13.748  0.0459 -0.3820 -0.1943
 3178DOPE   C3A37291  29.463  18.300  13.783 -0.1711  0.1334  0.0185
 3178DOPE   C4A37292  29.555  18.672  13.505 -0.1853  0.1783  0.1615
 3178DOPE   C1B37293  30.224  17.805  13.690  0.0337 -0.0038 -0.0742
 3178DOPE   D2B37294  30.173  17.765  14.142  0.2464 -0.1706  0.2670
 3178DOPE   C3B37295  29.716  17.669  14.303  0.0513 -0.1405 -0.3972
 3178DOPE   C4B37296  29.393  17.455  14.032  0.0321 -0.2344  0.0411
 3179DOPC   NC337297  30.631  17.533  13.086 -0.0036 -0.1561  0.1040
 3179DOPC   PO437298  30.997  17.405  13.002 -0.2815 -0.1894 -0.2322
 3179DOPC   GL137299  30.995  17.347  13.418 -0.2004  0.0700  0.3636
 3179DOPC   GL237300  31.137  17.137  13.514  0.0310 -0.1507  0.2821
 3179DOPC   C1A37301  31.246  17.630  13.677  0.1284 -0.0207  0.1461
 3179DOPC   D2A37302  31.317  18.067  13.718  0.1963  0.2362 -0.0299
 3179DOPC   C3A37303  31.604  18.157  14.053 -0.2636 -0.3181 -0.1077
 3179DOPC   C4A37304  32.034  18.283  14.079  0.0046  0.0347 -0.0082
 3179DOPC   C1B37305  30.867  17.092  13.826  0.2938  0.2576  0.0558
 3179DOPC   D2B37306  30.525  16.875  14.090 -0.0004 -0.2289  0.1692
 3179DOPC   C3B37307  30.415  16.559  14.394 -0.2375 -0.1795 -0.1305
 3179DOPC   C4B37308  30.064  16.434  14.646 -0.0102  0.0083  0.0064
 3180DOPS   CNO37309  25.749  12.243  12.282 -0.1739  0.4551 -0.0140
 3180DOPS   PO437310  25.457  12.216  12.541 -0.1550  0.2887 -0.0566
 3180DOPS   GL137311  25.133  12.496  12.655 -0.1095  0.3891 -0.0963
 3180DOPS   GL237312  25.266  12.454  12.923 -0.1189 -0.0299 -0.3216
 3180DOPS   C1A37313  24.684  12.627  12.508  0.0024  0.0012  0.1370
 3180DOPS   D2A37314  24.252  12.593  12.267 -0.1097 -0.0183  0.2257
 3180DOPS   C3A37315  23.865  12.862  12.449  0.1474  0.0189  0.2415
 3180DOPS   C4A37316  23.742  13.287  12.393  0.4196 -0.2908 -0.1658
 3180DOPS   C1B37317  25.111  12.541  13.359  0.1658 -0.1431  0.1310
 3180DOPS   D2B37318  25.041  12.502  13.758 -0.0739 -0.0625 -0.0744
 3180DOPS   C3B37319  25.316  12.301  14.077 -0.1589 -0.3680  0.0015
 3180DOPS   C4B37320  25.601  11.987  14.288  0.3011 -0.0630 -0.1888
 3181DOPE   NH337321  27.886  20.850  12.359  0.0272  0.2092 -0.1019
 3181DOPE   PO437322  27.817  21.024  12.638  0.0995 -0.1928 -0.0372
 3181DOPE   GL137323  27.637  21.010  13.007  0.2973 -0.1862  0.2995
 3181DOPE   GL237324  27.684  21.245  13.152 -0.0306  0.0353 -0.0151
 3181DOPE   C1A37325  27.171  21.121  13.098  0.1041  0.3122 -0.1588
 3181DOPE   D2A37326  26.799  20.925  13.284 -0.0581  0.0193  0.1055
 3181DOPE   C3A37327  26.627  20.562  13.471  0.3723 -0.1461 -0.2239
 3181DOPE   C4A37328  26.150  20.564  13.453  0.1254 -0.0661  0.0612
 3181DOPE   C1B37329  27.884  21.011  13.470 -0.0283 -0.5007 -0.0076
 3181DOPE   D2B37330  28.143  21.097  13.784  0.0704  0.0578  0.0257
 3181DOPE   C3B37331  27.986  20.949  14.150 -0.0822 -0.3451 -0.0336
 3181DOPE   C4B37332  27.683  20.761  14.452 -0.0638 -0.3536  0.1412
 3182DOPE   NH337333  26.125  17.282  12.086 -0.1983  0.3080  0.0558
 3182DOPE   PO437334  26.375  17.360  12.258 -0.1161 -0.3321 -0.0054
 3182DOPE   GL137335  26.514  17.029  12.330 -0.1511 -0.0032  0.3708
 3182DOPE   GL237336  26.400  16.704  12.411  0.2261  0.2034  0.0952
 3182DOPE   C1A37337  26.939  16.812  12.439  0.1255  0.2526  0.1330
 3182DOPE   D2A37338  27.172  16.465  12.692 -0.3448  0.1533  0.3516
 3182DOPE   C3A37339  27.168  16.398  13.153 -0.0249  0.0590  0.0630
 3182DOPE   C4A37340  27.161  16.564  13.590  0.1577 -0.1029  0.2225
 3182DOPE   C1B37341  26.612  16.576  12.797 -0.0404 -0.1919 -0.0379
 3182DOPE   D2B37342  26.729  16.177  13.121  0.1458  0.0337  0.0874
 3182DOPE   C3B37343  26.463  15.880  13.113  0.0442  0.0947 -0.2168
 3182DOPE   C4B37344  26.073  15.791  12.838  0.0347 -0.0655 -0.0953
 3183DOPS   CNO37345   0.343  23.097  12.277 -0.0748 -0.2582  0.0314
 3183DOPS   PO437346   0.089  23.025  12.518 -0.2478 -0.0472 -0.0830
 3183DOPS   GL137347   0.143  22.906  12.899 -0.1546 -0.0200 -0.2078
 3183DOPS   GL237348   0.049  22.706  12.982 -0.0556 -0.1643  0.0614
 3183DOPS   C1A37349   0.162  23.084  13.323  0.1639 -0.1059  0.4156
 3183DOPS   D2A37350   0.103  23.318  13.669  0.0599  0.1212 -0.2768
 3183DOPS   C3A37351   0.332  23.117  14.040  0.1663  0.2174  0.2792
 3183DOPS   C4A37352   0.481  22.800  14.323 -0.0182 -0.0895  0.1894
 3183DOPS   C1B37353   0.044  22.650  13.491 -0.0673  0.1749 -0.0505
 3183DOPS   D2B37354   0.005  22.776  13.933 -0.1278  0.0404 -0.0360
 3183DOPS   C3B37355  -0.407  22.899  14.063 -0.0723  0.0128 -0.0693
 3183DOPS   C4B37356  -0.848  23.136  13.973 -0.1137  0.1637  0.0638
 3184DOPE   NH337357  34.180  14.289  12.775 -0.1257 -0.0819 -0.0341
 3184DOPE   PO437358  34.285  14.610  12.873 -0.3343  0.1687  0.2676
 3184DOPE   GL137359  34.371  14.528  13.300 -0.0669  0.0259  0.1591
 3184DOPE   GL237360  34.420  14.195  13.233  0.1928 -0.1662 -0.1347
 3184DOPE   C1A37361  34.124  14.670  13.675 -0.1306  0.1797  0.3774
 3184DOPE   D2A37362  33.746  14.516  13.942  0.1563  0.1001 -0.2515
 3184DOPE   C3A37363  33.375  14.179  13.901  0.0119  0.1675  0.1970
 3184DOPE   C4A37364  32.887  14.268  13.861  0.2000 -0.2192 -0.0854
 3184DOPE   C1B37365  34.528  13.955  13.565  0.0938 -0.0319  0.0121
 3184DOPE   D2B37366  34.803  13.636  13.786 -0.0670 -0.2397 -0.0766
 3184DOPE   C3B37367  34.913  13.223  13.616 -0.2665 -0.0785 -0.3311
 3184DOPE   C4B37368  34.980  12.983  13.228 -0.0658 -0.0692 -0.0926
 3185DOPS   CNO37369  28.238  12.207  12.575  0.2162  0.1717 -0.1597
 3185DOPS   PO437370  28.492  12.078  12.851 -0.0381  0.0316  0.1193
 3185DOPS   GL137371  28.275  12.199  13.079  0.1277  0.3994 -0.0377
 3185DOPS   GL237372  28.009  12.078  13.054 -0.0575  0.0033  0.1479
 3185DOPS   C1A37373  28.008  12.577  13.079  0.0160  0.0929 -0.0377
 3185DOPS   D2A37374  27.679  12.964  13.017 -0.1205 -0.1262 -0.1681
 3185DOPS   C3A37375  27.680  13.304  13.298 -0.1086 -0.1548  0.0260
 3185DOPS   C4A37376  27.523  13.568  13.604 -0.1917 -0.0027  0.0668
 3185DOPS   C1B37377  28.071  11.928  13.428 -0.0598 -0.0179 -0.0789
 3185DOPS   D2B37378  28.393  11.758  13.715 -0.1818  0.1752 -0.1719
 3185DOPS   C3B37379  28.725  12.024  13.744  0.0961 -0.1985 -0.1871
 3185DOPS   C4B37380  29.139  12.072  13.755  0.2699  0.0936  0.3318
 3186DOPS   CNO37381  34.035  12.615  12.242 -0.3621 -0.2406 -0.3517
 3186DOPS   PO437382  34.024  12.882  12.504  0.0073 -0.1126  0.0519
 3186DOPS   GL137383  34.004  12.675  12.821 -0.1231 -0.0433 -0.0741
 3186DOPS   GL237384  33.668  12.725  12.858 -0.0777 -0.2665 -0.0416
 3186DOPS   C1A37385  34.232  12.332  13.061  0.0548  0.2447  0.1766
 3186DOPS   D2A37386  34.313  11.933  13.237 -0.4706  0.0281 -0.0839
 3186DOPS   C3A37387  34.083  11.993  13.586  0.2670 -0.3393 -0.0266
 3186DOPS   C4A37388  34.040  12.180  14.022  0.1037 -0.1228 -0.1141
 3186DOPS   C1B37389  33.365  12.673  13.212  0.1183 -0.4218 -0.2195
 3186DOPS   D2B37390  33.127  12.376  13.460 -0.0920  0.0004 -0.4164
 3186DOPS   C3B37391  33.063  12.393  13.941  0.0112 -0.1946 -0.2791
 3186DOPS   C4B37392  32.799  12.270  14.291 -0.2691  0.0545 -0.2792
 3187DOPC   NC337393  28.130  13.569  13.120  0.0036 -0.1936  0.1079
 3187DOPC   PO437394  28.039  13.443  12.765 -0.2878 -0.4182 -0.0055
 3187DOPC   GL137395  27.659  13.451  12.896  0.0400  0.3826 -0.5155
 3187DOPC   GL237396  27.658  13.724  13.004 -0.0695 -0.3044  0.2221
 3187DOPC   C1A37397  27.225  13.299  13.025 -0.3249  0.1836 -0.0220
 3187DOPC   D2A37398  26.956  13.456  13.421  0.1954 -0.2855 -0.1148
 3187DOPC   C3A37399  26.641  13.746  13.290 -0.2673  0.0343 -0.0029
 3187DOPC   C4A37400  26.382  13.941  13.001 -0.1853 -0.4258 -0.1735
 3187DOPC   C1B37401  27.229  13.813  13.178 -0.1508  0.2716  0.2168
 3187DOPC   D2B37402  26.970  14.146  13.369 -0.0880  0.0932  0.3050
 3187DOPC   C3B37403  27.040  14.368  13.814  0.0613 -0.1348  0.2680
 3187DOPC   C4B37404  27.259  14.548  14.188  0.0096 -0.2646  0.2555
 3188DOPC   NC337405  33.621  19.585  12.341  0.3474 -0.0365 -0.0272
 3188DOPC   PO437406  33.221  19.417  12.322 -0.2355 -0.0861 -0.1260
 3188DOPC   GL137407  33.058  19.529  12.681 -0.1730 -0.0837  0.0100
 3188DOPC   GL237408  33.140  19.249  12.798  0.0558 -0.3063 -0.0714
 3188DOPC   C1A37409  32.830  19.482  13.089  0.0190  0.0693 -0.2723
 3188DOPC   D2A37410  32.883  19.378  13.586  0.0765 -0.0206  0.0926
 3188DOPC   C3A37411  33.081  19.021  13.792  0.0189  0.0121  0.2057
 3188DOPC   C4A37412  33.471  19.012  14.036 -0.1387 -0.1343  0.1292
 3188DOPC   C1B37413  33.202  19.187  13.232 -0.2921  0.0319 -0.0643
 3188DOPC   D2B37414  33.539  19.266  13.558 -0.0529  0.2697  0.0071
 3188DOPC   C3B37415  33.322  19.431  13.893 -0.0978 -0.0725 -0.0403
 3188DOPC   C4B37416  33.409  19.474  14.370  0.1449  0.1257 -0.2928
 3189DOPE   NH337417  29.861  15.632  12.989 -0.1899  0.1102  0.2686
 3189DOPE   PO437418  29.738  15.342  13.050  0.1086  0.0290 -0.1313
 3189DOPE   GL137419  29.757  15.235  13.403  0.2049 -0.0709 -0.1098
 3189DOPE   GL237420  29.464  15.283  13.491 -0.1090  0.0551 -0.1812
 3189DOPE   C1A37421  29.776  15.048  13.819  0.0956  0.0568 -0.3570
 3189DOPE   D2A37422  29.932  14.943  14.240  0.5624 -0.0935  0.1072
 3189DOPE   C3A37423  30.014  15.277  14.597 -0.1925  0.0284  0.0076
 3189DOPE   C4A37424  30.401  15.426  14.820  0.2447  0.2203  0.0978
 3189DOPE   C1B37425  29.525  15.682  13.734  0.2416  0.0882 -0.1516
 3189DOPE   D2B37426  29.671  15.972  14.029  0.1156  0.0374  0.1551
 3189DOPE   C3B37427  29.321  16.026  14.334 -0.1754  0.0911  0.0789
 3189DOPE   C4B37428  29.066  16.397  14.499 -0.0864  0.1276  0.0241
 3190DOPC   NC337429  32.251  23.320  12.814  0.0842  0.1683  0.0810
 3190DOPC   PO437430  32.386  23.411  12.448 -0.1783  0.4488 -0.0859
 3190DOPC   GL137431  32.701  23.114  12.510  0.4514 -0.2365 -0.5987
 3190DOPC   GL237432  32.667  23.026  12.240  0.1524  0.2017 -0.1526
 3190DOPC   C1A37433  32.810  22.956  12.930 -0.1210  0.1717 -0.4315
 3190DOPC   D2A37434  32.837  22.887  13.361 -0.4262 -0.0625  0.1921
 3190DOPC   C3A37435  33.103  23.018  13.700 -0.0073 -0.5278 -0.3288
 3190DOPC   C4A37436  33.324  23.129  14.095  0.1943 -0.0255  0.1639
 3190DOPC   C1B37437  33.077  22.919  12.404  0.1594  0.0237 -0.0001
 3190DOPC   D2B37438  33.365  22.515  12.295  0.1273  0.0603  0.1685
 3190DOPC   C3B37439  33.340  22.173  12.595  0.0545 -0.1153 -0.1324
 3190DOPC   C4B37440  33.150  21.887  12.953  0.2702  0.0671 -0.1825
 3191POSM   NC337441  28.577  15.110  13.128 -0.5251  0.1329 -0.1380
 3191POSM   PO437442  28.502  14.796  12.955  0.0193 -0.4317 -0.1689
 3191POSM   AM137443  28.637  14.554  13.161 -0.1091 -0.0140  0.1627
 3191POSM   AM237444  28.762  14.323  13.203 -0.2200  0.5318 -0.1436
 3191POSM   T1A37445  28.518  14.531  13.644  0.1292 -0.2289 -0.0562
 3191POSM   C2A37446  28.312  14.870  13.873 -0.0206 -0.0366  0.1859
 3191POSM   C3A37447  28.353  15.221  13.670 -0.0102  0.0578 -0.0755
 3191POSM   C1B37448  28.889  14.164  13.451  0.2064 -0.0197 -0.0028
 3191POSM   D2B37449  29.148  14.080  13.860 -0.3688  0.5802  0.1590
 3191POSM   C3B37450  29.105  13.833  14.243  0.1736 -0.1441 -0.4151
 3191POSM   C4B37451  29.295  13.847  14.671 -0.1024 -0.0165  0.0199
 3192DOPC   NC337452  27.313  20.674  12.003  0.1448  0.0656 -0.0064
 3192DOPC   PO437453  27.434  20.324  12.135  0.0020 -0.0047  0.0900
 3192DOPC   GL137454  27.039  20.334  12.107  0.0612 -0.1835  0.0593
 3192DOPC   GL237455  26.929  20.341  12.385  0.0866  0.0109 -0.0745
 3192DOPC   C1A37456  26.625  20.143  11.937 -0.1056 -0.0134  0.0341
 3192DOPC   D2A37457  26.222  20.007  11.752 -0.0188 -0.0629 -0.0229
 3192DOPC   C3A37458  26.131  19.734  12.145 -0.0501  0.1545  0.3608
 3192DOPC   C4A37459  25.888  19.737  12.527 -0.3830 -0.1655  0.0206
 3192DOPC   C1B37460  26.579  20.480  12.676 -0.0181 -0.1873  0.0318
 3192DOPC   D2B37461  26.251  20.740  12.912 -0.2718  0.2240  0.0157
 3192DOPC   C3B37462  26.327  20.995  13.298  0.1402 -0.0977 -0.0335
 3192DOPC   C4B37463  26.173  21.106  13.724 -0.1099 -0.1278 -0.2550
 3193DOPC   NC337464  29.990  20.638  12.494  0.0883 -0.0917  0.0085
 3193DOPC   PO437465  29.982  21.018  12.594  0.1074  0.0515 -0.1712
 3193DOPC   GL137466  29.959  20.763  12.936 -0.1585  0.2937 -0.2995
 3193DOPC   GL237467  30.171  20.874  13.070  0.0248  0.2065  0.2727
 3193DOPC   C1A37468  29.907  20.436  13.259  0.0836  0.1186  0.1017
 3193DOPC   D2A37469  30.087  20.132  13.522  0.2443 -0.0609  0.1306
 3193DOPC   C3A37470  30.134  20.016  13.964  0.0874  0.6353 -0.3237
 3193DOPC   C4A37471  30.099  19.660  14.259 -0.0328  0.0734 -0.0115
 3193DOPC   C1B37472  30.336  20.743  13.417  0.1179 -0.1437  0.2624
 3193DOPC   D2B37473  30.750  20.582  13.443 -0.0115  0.0277  0.3037
 3193DOPC   C3B37474  30.923  20.255  13.735  0.0465 -0.2223 -0.2098
 3193DOPC   C4B37475  31.026  20.092  14.184 -0.2515  0.0548 -0.1347
 3194DOPE   NH337476  28.027  21.707  12.334 -0.1035 -0.2052  0.1677
 3194DOPE   PO437477  27.894  21.391  12.251 -0.1992  0.2704 -0.1379
 3194DOPE   GL137478  27.513  21.583  12.480  0.0339  0.0099 -0.0376
 3194DOPE   GL237479  27.185  21.621  12.474  0.3753 -0.3615 -0.0925
 3194DOPE   C1A37480  27.462  21.719  12.946  0.0481 -0.2122  0.2773
 3194DOPE   D2A37481  27.265  21.596  13.362  0.1291  0.0311  0.0193
 3194DOPE   C3A37482  27.049  21.296  13.588  0.0027  0.2130  0.0026
 3194DOPE   C4A37483  26.666  21.083  13.776 -0.1327 -0.0392 -0.2850
 3194DOPE   C1B37484  26.909  21.481  12.794 -0.3417 -0.0389  0.0395
 3194DOPE   D2B37485  26.741  21.384  13.212  0.1548 -0.2365 -0.1167
 3194DOPE   C3B37486  26.366  21.655  13.274 -0.0860  0.0375  0.0418
 3194DOPE   C4B37487  26.162  22.025  13.151  0.3220  0.0713  0.2574
 3195DOPE   NH337488  25.509  23.156  12.038 -0.0685 -0.0320  0.0967
 3195DOPE   PO437489  25.608  22.831  12.161  0.0707 -0.2157 -0.0126
 3195DOPE   GL137490  25.833  22.698  12.583 -0.1398  0.2588 -0.0104
 3195DOPE   GL237491  25.923  22.884  12.819 -0.0989 -0.1343 -0.2558
 3195DOPE   C1A37492  26.026  22.407  12.877  0.1023 -0.1381 -0.0389
 3195DOPE   D2A37493  26.157  22.509  13.314  0.2505 -0.0018 -0.1415
 3195DOPE   C3A37494  25.831  22.418  13.657  0.0434  0.1058 -0.1396
 3195DOPE   C4A37495  25.532  22.117  13.875 -0.1564  0.0602 -0.1491
 3195DOPE   C1B37496  25.639  22.699  13.068 -0.1495 -0.0414 -0.0037
 3195DOPE   D2B37497  25.221  22.498  12.919 -0.0195  0.2291  0.0685
 3195DOPE   C3B37498  24.790  22.564  13.193  0.1015 -0.1066 -0.2593
 3195DOPE   C4B37499  24.681  22.876  13.484  0.3002  0.1960  0.2235
 3196DOPC   NC337500  23.343  18.692  11.666 -0.6179  0.3584  0.1509
 3196DOPC   PO437501  23.029  18.544  11.530  0.3261  0.3809 -0.0914
 3196DOPC   GL137502  23.082  18.174  11.802  0.1404 -0.1302 -0.4759
 3196DOPC   GL237503  23.072  17.971  11.597  0.1097  0.1061  0.1876
 3196DOPC   C1A37504  22.978  18.455  12.177 -0.1394 -0.0464 -0.4129
 3196DOPC   D2A37505  22.969  18.487  12.648 -0.1888  0.1729  0.0445
 3196DOPC   C3A37506  23.381  18.477  12.881  0.1542 -0.2252 -0.0384
 3196DOPC   C4A37507  23.785  18.679  13.095  0.0837  0.0518 -0.0305
 3196DOPC   C1B37508  22.840  17.889  11.994  0.1206  0.0747  0.0789
 3196DOPC   D2B37509  22.629  17.582  12.310  0.0175  0.0604 -0.0916
 3196DOPC   C3B37510  22.734  17.492  12.772 -0.2982  0.2850  0.0639
 3196DOPC   C4B37511  22.700  17.324  13.214  0.1397 -0.0911 -0.2081
 3197DOPE   NH337512  34.213  18.537  12.642  0.0341  0.1387  0.3435
 3197DOPE   PO437513  34.338  18.748  12.806 -0.3700  0.1230 -0.1006
 3197DOPE   GL137514  33.937  18.912  12.849 -0.1518  0.0362 -0.2244
 3197DOPE   GL237515  33.872  19.036  12.593  0.0023  0.0679 -0.0689
 3197DOPE   C1A37516  33.590  18.732  13.065  0.0890 -0.0742 -0.2700
 3197DOPE   D2A37517  33.470  18.773  13.497 -0.1352 -0.1066  0.3606
 3197DOPE   C3A37518  33.548  18.457  13.877  0.2323 -0.2400 -0.3024
 3197DOPE   C4A37519  33.236  18.197  14.109  0.0864  0.0898 -0.0694
 3197DOPE   C1B37520  33.506  18.729  12.593  0.0305 -0.0711 -0.0293
 3197DOPE   D2B37521  33.124  18.562  12.792 -0.1934 -0.1855 -0.1125
 3197DOPE   C3B37522  33.124  18.547  13.249 -0.1919 -0.1893 -0.0528
 3197DOPE   C4B37523  33.070  18.469  13.680  0.0372 -0.0696  0.0289
 3198DOPS   CNO37524  29.980  21.797  12.773  0.1978 -0.1226 -0.1097
 3198DOPS   PO437525  29.607  21.846  12.651 -0.1041 -0.0986 -0.2268
 3198DOPS   GL137526  29.526  21.956  13.027 -0.0704 -0.0213  0.2130
 3198DOPS   GL237527  29.680  22.133  13.174  0.2133 -0.1021  0.3170
 3198DOPS   C1A37528  29.646  21.641  13.326  0.1924  0.0113 -0.2661
 3198DOPS   D2A37529  29.739  21.372  13.691  0.0294 -0.3801  0.4790
 3198DOPS   C3A37530  29.882  21.455  14.077 -0.0077 -0.2718  0.2273
 3198DOPS   C4A37531  29.793  21.671  14.470 -0.0037 -0.1872  0.0020
 3198DOPS   C1B37532  29.489  22.303  13.584  0.1427 -0.1835 -0.0831
 3198DOPS   D2B37533  29.468  22.474  14.041  0.3308  0.0902  0.2057
 3198DOPS   C3B37534  29.319  22.145  14.330  0.2554  0.1660 -0.3034
 3198DOPS   C4B37535  29.305  21.627  14.367  0.1869  0.2548 -0.2941
 3199DOPC   NC337536  27.766  22.226  12.177  0.0461  0.2292 -0.0883
 3199DOPC   PO437537  27.553  21.899  12.148  0.0742  0.1135  0.0170
 3199DOPC   GL137538  27.399  22.072  12.448 -0.0712  0.0575 -0.2440
 3199DOPC   GL237539  27.192  22.316  12.314 -0.0886  0.0283 -0.3386
 3199DOPC   C1A37540  27.029  22.024  12.688  0.0059 -0.0647 -0.2646
 3199DOPC   D2A37541  26.767  21.843  13.039  0.0212  0.0767 -0.0450
 3199DOPC   C3A37542  26.730  21.842  13.507 -0.0631 -0.2453 -0.2085
 3199DOPC   C4A37543  26.692  21.765  13.999  0.0010  0.4394  0.1564
 3199DOPC   C1B37544  26.882  22.538  12.579  0.1389  0.1797 -0.3138
 3199DOPC   D2B37545  26.464  22.693  12.724  0.2422  0.0423  0.1057
 3199DOPC   C3B37546  26.374  22.927  13.177 -0.1973 -0.1016 -0.0476
 3199DOPC   C4B37547  26.437  23.118  13.585  0.0228 -0.0297 -0.2771
 3200POSM   NC337548  31.835  19.219  12.737  0.3931  0.4447 -0.1039
 3200POSM   PO437549  31.866  18.850  12.926  0.0341 -0.1665  0.2718
 3200POSM   AM137550  31.890  18.974  13.191  0.5284 -0.1071 -0.1921
 3200POSM   AM237551  32.138  18.990  13.338 -0.1217  0.1702  0.3569
 3200POSM   T1A37552  31.650  19.125  13.611 -0.0711  0.0186  0.1821
 3200POSM   C2A37553  31.328  19.167  13.937 -0.1083 -0.1850 -0.0161
 3200POSM   C3A37554  30.903  19.048  14.030  0.1231  0.0993 -0.0858
 3200POSM   C1B37555  32.130  19.091  13.649  0.0260 -0.3451 -0.1494
 3200POSM   D2B37556  32.071  19.299  14.065  0.0623 -0.2648  0.2209
 3200POSM   C3B37557  31.704  19.355  14.319 -0.2154  0.1640  0.1964
 3200POSM   C4B37558  31.297  19.151  14.381 -0.3868  0.0022  0.1127
 3201DOPC   NC337559  23.953  19.475  11.466 -0.0636 -0.2034 -0.0449
 3201DOPC   PO437560  24.247  19.519  11.746 -0.0249 -0.0138  0.2346
 3201DOPC   GL137561  24.303  19.306  12.033  0.2887  0.1001 -0.2274
 3201DOPC   GL237562  24.303  19.031  11.891 -0.1422 -0.0616  0.0770
 3201DOPC   C1A37563  24.320  19.024  12.397 -0.3789  0.0175 -0.3093
 3201DOPC   D2A37564  24.522  18.723  12.733 -0.0044  0.0428 -0.1104
 3201DOPC   C3A37565  24.222  18.432  12.894  0.4229 -0.3129 -0.0695
 3201DOPC   C4A37566  23.940  18.032  13.017 -0.2864  0.0535 -0.0912
 3201DOPC   C1B37567  24.642  18.756  12.040  0.1600 -0.1383 -0.3673
 3201DOPC   D2B37568  24.573  18.258  12.043 -0.0529  0.5255  0.1631
 3201DOPC   C3B37569  24.735  18.128  12.470 -0.0941 -0.1026  0.2790
 3201DOPC   C4B37570  25.137  18.261  12.549 -0.0759  0.1328 -0.0177
 3202POSM   NC337571  28.901  19.119  12.733  0.0541 -0.1430 -0.2016
 3202POSM   PO437572  28.834  19.499  12.779 -0.0264  0.0735 -0.2990
 3202POSM   AM137573  28.669  19.700  12.979 -0.1540  0.3051  0.1063
 3202POSM   AM237574  28.726  19.951  13.175 -0.0049 -0.1247  0.0994
 3202POSM   T1A37575  28.374  19.676  13.385 -0.0559  0.0131 -0.2303
 3202POSM   C2A37576  28.042  19.510  13.632  0.1438  0.1332 -0.2577
 3202POSM   C3A37577  27.790  19.058  13.662  0.0780 -0.2261  0.0303
 3202POSM   C1B37578  28.980  19.854  13.379 -0.2517 -0.3270  0.1042
 3202POSM   D2B37579  29.223  19.655  13.660  0.0761 -0.4245  0.0196
 3202POSM   C3B37580  29.038  19.353  13.958 -0.0296 -0.0438 -0.1071
 3202POSM   C4B37581  29.256  19.212  14.335 -0.4393  0.1742 -0.2116
 3203DOPE   NH337582  26.108  17.764  12.331  0.3017 -0.0892 -0.0262
 3203DOPE   PO437583  26.125  17.854  12.621 -0.0555 -0.1527 -0.0441
 3203DOPE   GL137584  26.216  18.155  12.928 -0.2319 -0.0292 -0.4174
 3203DOPE   GL237585  26.068  17.992  13.105  0.3049  0.3640 -0.0366
 3203DOPE   C1A37586  26.145  18.489  13.232  0.1807 -0.1900 -0.2478
 3203DOPE   D2A37587  25.884  18.855  13.097 -0.1276 -0.0124  0.3788
 3203DOPE   C3A37588  25.483  18.823  13.355 -0.1305 -0.0125  0.1073
 3203DOPE   C4A37589  25.216  18.512  13.461 -0.2589 -0.0181  0.0048
 3203DOPE   C1B37590  26.463  18.062  13.297 -0.3178  0.0589  0.2460
 3203DOPE   D2B37591  26.731  18.315  13.560  0.1514 -0.4457  0.1088
 3203DOPE   C3B37592  26.442  18.642  13.609  0.1569  0.1165  0.0417
 3203DOPE   C4B37593  26.198  18.948  13.437  0.3394 -0.1659  0.2180
 3204DOPE   NH337594  32.014  18.411  12.548 -0.2433  0.0766 -0.0538
 3204DOPE   PO437595  32.252  18.578  12.764 -0.1271  0.3017 -0.2079
 3204DOPE   GL137596  32.445  18.717  13.069  0.5003  0.2978 -0.5497
 3204DOPE   GL237597  32.708  18.885  13.049 -0.0737  0.1456  0.1438
 3204DOPE   C1A37598  32.655  18.415  13.307 -0.2374  0.1346  0.1874
 3204DOPE   D2A37599  32.741  18.035  13.586 -0.0630 -0.0565  0.1314
 3204DOPE   C3A37600  32.718  18.169  14.052 -0.0843 -0.0251 -0.1614
 3204DOPE   C4A37601  32.399  18.131  14.393  0.0403 -0.0760  0.1152
 3204DOPE   C1B37602  32.637  18.923  13.510  0.2057 -0.2316  0.0651
 3204DOPE   D2B37603  32.618  18.986  13.992 -0.1500  0.4098  0.0798
 3204DOPE   C3B37604  32.951  18.660  14.133  0.2395  0.4186  0.0713
 3204DOPE   C4B37605  33.270  18.586  14.433  0.1629  0.3501 -0.1970
 3205DOPS   CNO37606  29.907  11.062  12.823 -0.1335 -0.1842 -0.1291
 3205DOPS   PO437607  30.092  11.104  13.179 -0.1102  0.1855  0.0400
 3205DOPS   GL137608  30.203  11.199  13.585 -0.4006 -0.2237 -0.0549
 3205DOPS   GL237609  30.032  11.410  13.623  0.2107 -0.1685 -0.0931
 3205DOPS   C1A37610  30.279  11.150  14.047 -0.2885  0.1515  0.0637
 3205DOPS   D2A37611  30.531  11.157  14.482  0.0171 -0.0721  0.0518
 3205DOPS   C3A37612  30.982  11.221  14.588 -0.2214 -0.1151  0.0385
 3205DOPS   C4A37613  31.482  11.221  14.753  0.4656  0.3306  0.1877
 3205DOPS   C1B37614  29.870  11.805  13.663 -0.0121 -0.3636  0.0138
 3205DOPS   D2B37615  29.762  12.255  13.871 -0.2730  0.3178 -0.3737
 3205DOPS   C3B37616  29.924  12.215  14.302 -0.0673  0.0625  0.1653
 3205DOPS   C4B37617  30.172  12.130  14.687  0.1998  0.1331  0.2381
 3206DOPE   NH337618  24.789  11.883  12.225 -0.1606 -0.2363 -0.1185
 3206DOPE   PO437619  24.519  11.751  12.331 -0.1612 -0.2168  0.0371
 3206DOPE   GL137620  24.216  11.808  12.658  0.2311  0.0305  0.1072
 3206DOPE   GL237621  24.085  12.025  12.487  0.1186 -0.0580  0.2367
 3206DOPE   C1A37622  24.306  11.875  13.104  0.2247  0.2429  0.3188
 3206DOPE   D2A37623  24.304  12.209  13.439  0.0047 -0.2410 -0.0511
 3206DOPE   C3A37624  24.127  12.622  13.238 -0.3937  0.0178 -0.4538
 3206DOPE   C4A37625  24.038  13.074  13.241  0.0680 -0.0391  0.1107
 3206DOPE   C1B37626  24.375  12.283  12.674 -0.1803 -0.3042  0.2107
 3206DOPE   D2B37627  24.617  12.322  13.090 -0.0092 -0.0262  0.3164
 3206DOPE   C3B37628  24.830  12.700  12.991  0.0775 -0.2853  0.3555
 3206DOPE   C4B37629  24.612  13.110  12.888 -0.0143 -0.3106 -0.0667
 3207DOPE   NH337630  31.212  14.315  12.487  0.0948  0.0280 -0.0003
 3207DOPE   PO437631  31.408  14.057  12.492 -0.0331 -0.2574 -0.3377
 3207DOPE   GL137632  31.677  13.716  12.530  0.1543 -0.1092  0.2953
 3207DOPE   GL237633  31.777  13.662  12.781 -0.0852 -0.2895 -0.0318
 3207DOPE   C1A37634  32.048  13.421  12.382  0.0637  0.1383 -0.0435
 3207DOPE   D2A37635  32.317  13.105  12.447  0.1763  0.0846  0.2392
 3207DOPE   C3A37636  32.397  12.899  12.852 -0.0408  0.1526  0.2430
 3207DOPE   C4A37637  32.770  12.882  13.238  0.0958  0.1046  0.0974
 3207DOPE   C1B37638  32.082  13.417  13.019  0.1001 -0.0250 -0.3144
 3207DOPE   D2B37639  32.482  13.286  13.229  0.2114  0.1592 -0.5344
 3207DOPE   C3B37640  32.495  13.017  13.595 -0.2266  0.2886  0.1903
 3207DOPE   C4B37641  32.618  12.659  13.919 -0.1770 -0.1384 -0.3171
 3208POSM   NC337642  34.520  20.387  12.393 -0.2378  0.1660  0.2932
 3208POSM   PO437643  34.507  20.811  12.395  0.0163 -0.1190 -0.4225
 3208POSM   AM137644  34.275  20.865  12.616 -0.2343 -0.3899 -0.1001
 3208POSM   AM237645  34.115  21.097  12.590 -0.1265 -0.0989 -0.1968
 3208POSM   T1A37646  34.010  20.865  13.022 -0.2060 -0.0107 -0.2119
 3208POSM   C2A37647  33.675  21.152  13.224 -0.2113  0.1983  0.1248
 3208POSM   C3A37648  33.430  21.508  13.099 -0.0051 -0.0125 -0.2206
 3208POSM   C1B37649  33.846  21.236  12.537 -0.2645 -0.2341 -0.0938
 3208POSM   D2B37650  33.555  21.609  12.647 -0.0126 -0.2890 -0.2925
 3208POSM   C3B37651  33.699  21.906  12.993 -0.0471 -0.0468 -0.0977
 3208POSM   C4B37652  33.986  22.131  13.272  0.0697 -0.0683  0.1124
 3209DOPC   NC337653  34.104  19.860  12.920  0.1645 -0.4761  0.2938
 3209DOPC   PO437654  34.176  20.030  12.534 -0.4637  0.1435 -0.1967
 3209DOPC   GL137655  34.213  20.357  12.788 -0.2417  0.1551 -0.1196
 3209DOPC   GL237656  34.390  20.566  12.935  0.1883  0.1615 -0.2243
 3209DOPC   C1A37657  33.926  20.296  13.144  0.3476 -0.1680  0.1675
 3209DOPC   D2A37658  33.509  20.233  13.099  0.0646 -0.0776 -0.0366
 3209DOPC   C3A37659  33.333  20.167  13.518 -0.1168 -0.0351  0.3568
 3209DOPC   C4A37660  33.002  20.218  13.817  0.0993  0.0294  0.0373
 3209DOPC   C1B37661  34.244  20.569  13.387 -0.0623 -0.1374  0.0696
 3209DOPC   D2B37662  34.107  20.732  13.739 -0.1542  0.0509  0.0906
 3209DOPC   C3B37663  34.315  21.069  14.026 -0.2714  0.0750  0.0056
 3209DOPC   C4B37664  34.579  21.225  14.378  0.2167 -0.0837 -0.2616
 3210DOPC   NC337665  28.206  11.672  12.710 -0.2929 -0.2558  0.0363
 3210DOPC   PO437666  27.883  11.588  12.960 -0.0935  0.3875  0.1396
 3210DOPC   GL137667  27.555  11.782  13.073 -0.3314 -0.1838  0.0447
 3210DOPC   GL237668  27.381  11.548  13.168 -0.1090 -0.1772  0.0374
 3210DOPC   C1A37669  27.631  12.150  13.392 -0.0997 -0.1317 -0.4129
 3210DOPC   D2A37670  27.800  12.097  13.801  0.0725 -0.2003  0.0088
 3210DOPC   C3A37671  28.234  12.107  14.004 -0.0742  0.0075  0.0621
 3210DOPC   C4A37672  28.486  11.775  14.206 -0.2270 -0.2195  0.0360
 3210DOPC   C1B37673  27.272  11.279  13.532  0.4930  0.4062  0.2678
 3210DOPC   D2B37674  27.403  11.284  14.012  0.0396  0.0082  0.3240
 3210DOPC   C3B37675  27.725  11.250  14.309  0.0554  0.1253 -0.0474
 3210DOPC   C4B37676  28.149  11.096  14.489 -0.0363 -0.1646 -0.2696
 3211DOPE   NH337677  26.633  12.381  12.175  0.1443 -0.0121 -0.1639
 3211DOPE   PO437678  26.589  12.388  12.495 -0.2309 -0.0564 -0.1884
 3211DOPE   GL137679  26.789  12.526  12.703 -0.3429  0.0093  0.0349
 3211DOPE   GL237680  27.015  12.396  12.719 -0.2179  0.0290  0.3658
 3211DOPE   C1A37681  26.950  12.821  13.077  0.0663  0.3139 -0.1871
 3211DOPE   D2A37682  27.118  12.838  13.480  0.2743 -0.4737  0.0467
 3211DOPE   C3A37683  27.314  13.148  13.750 -0.0725 -0.0901 -0.0573
 3211DOPE   C4A37684  27.159  13.448  14.055 -0.2696 -0.3139 -0.1049
 3211DOPE   C1B37685  26.790  12.315  13.110 -0.0978 -0.0125  0.0759
 3211DOPE   D2B37686  26.761  12.454  13.505  0.1420 -0.0653  0.1134
 3211DOPE   C3B37687  26.713  12.737  13.855  0.2164 -0.2079 -0.0349
 3211DOPE   C4B37688  26.823  13.135  13.898  0.0010  0.2154  0.1187
 3212DOPE   NH337689  31.462  15.424  13.007  0.1604 -0.3792 -0.2580
 3212DOPE   PO437690  31.341  15.737  12.928 -0.0508 -0.3155 -0.2072
 3212DOPE   GL137691  31.358  15.901  13.197 -0.0152  0.2319 -0.1730
 3212DOPE   GL237692  31.588  15.979  13.238  0.0234  0.3764  0.1262
 3212DOPE   C1A37693  31.504  15.736  13.631  0.2785  0.1108 -0.0625
 3212DOPE   D2A37694  31.583  15.770  14.091 -0.4795  0.0556 -0.2818
 3212DOPE   C3A37695  31.498  15.944  14.497  0.1169  0.2322 -0.0759
 3212DOPE   C4A37696  31.243  15.776  14.903  0.2216  0.0489  0.1519
 3212DOPE   C1B37697  31.996  15.748  13.335  0.0997 -0.3219 -0.0534
 3212DOPE   D2B37698  32.360  15.720  13.560 -0.0689  0.1124  0.2167
 3212DOPE   C3B37699  32.426  15.501  13.961 -0.1209  0.0974  0.2418
 3212DOPE   C4B37700  32.224  15.258  14.319  0.0811  0.0344  0.0494
 3213POSM   NC337701  29.108  11.938  12.732 -0.1457 -0.2262  0.1090
 3213POSM   PO437702  29.080  11.937  13.114 -0.0335 -0.2181  0.0191
 3213POSM   AM137703  28.975  12.223  13.145 -0.2289  0.0702  0.2842
 3213POSM   AM237704  28.771  12.336  13.259 -0.0504 -0.0603  0.1847
 3213POSM   T1A37705  29.002  12.710  13.003  0.0109  0.0390  0.0753
 3213POSM   C2A37706  28.990  13.165  12.919 -0.2424 -0.2716 -0.2746
 3213POSM   C3A37707  29.134  13.580  12.857  0.2523 -0.0012  0.3947
 3213POSM   C1B37708  28.477  12.347  13.479 -0.2164  0.2630  0.0053
 3213POSM   D2B37709  28.044  12.456  13.575  0.1944  0.1305  0.2534
 3213POSM   C3B37710  28.067  12.646  13.956 -0.0343 -0.0980  0.1357
 3213POSM   C4B37711  28.251  12.745  14.343  0.2413  0.0123 -0.1930
 3214POSM   NC337712  31.093  16.948  13.042 -0.2111 -0.2585 -0.3036
 3214POSM   PO437713  30.919  16.648  13.227  0.0388 -0.0701 -0.1002
 3214POSM   AM137714  30.963  16.624  13.566  0.0154 -0.1986 -0.0846
 3214POSM   AM237715  31.036  16.431  13.778  0.0400  0.1959  0.0961
 3214POSM   T1A37716  31.391  16.744  13.820 -0.1398  0.1153  0.0827
 3214POSM   C2A37717  31.851  16.646  13.831  0.2481  0.2121  0.1225
 3214POSM   C3A37718  32.094  16.370  14.112  0.0362 -0.1196  0.0757
 3214POSM   C1B37719  30.998  16.591  14.098  0.0227 -0.1517 -0.2367
 3214POSM   D2B37720  31.017  16.895  14.495  0.1563  0.0189  0.1999
 3214POSM   C3B37721  30.812  16.652  14.810  0.1068 -0.0663  0.1083
 3214POSM   C4B37722  30.408  16.861  14.976  0.0603  0.1711  0.2308
 3215POSM   NC337723  23.633  21.480  11.908  0.1303  0.3622  0.0506
 3215POSM   PO437724  24.010  21.359  11.821 -0.3722 -0.3272 -0.3893
 3215POSM   AM137725  24.295  21.261  11.967 -0.1714  0.4634  0.0947
 3215POSM   AM237726  24.335  21.119  12.192  0.1822 -0.0505  0.1307
 3215POSM   T1A37727  24.728  21.389  11.845 -0.3189 -0.0502 -0.0032
 3215POSM   C2A37728  25.066  21.794  11.863 -0.0619  0.0300 -0.0413
 3215POSM   C3A37729  25.382  22.080  12.069 -0.1309 -0.2436 -0.1514
 3215POSM   C1B37730  24.556  21.096  12.389  0.0517 -0.0335  0.2012
 3215POSM   D2B37731  24.955  21.127  12.721  0.2441 -0.0439  0.1602
 3215POSM   C3B37732  24.864  20.863  13.078 -0.1044  0.2140  0.2621
 3215POSM   C4B37733  24.853  20.477  13.015 -0.0195  0.4454 -0.0180
 3216POSM   NC337734  34.182  14.951  13.200 -0.3007  0.1121  0.0472
 3216POSM   PO437735  34.109  15.087  12.847 -0.1606 -0.0491 -0.0661
 3216POSM   AM137736  33.767  14.971  12.836  0.2773  0.1857 -0.2839
 3216POSM   AM237737  33.569  15.038  12.664 -0.1330 -0.0835 -0.0959
 3216POSM   T1A37738  33.339  14.736  13.029  0.1621  0.1941  0.1311
 3216POSM   C2A37739  32.843  14.731  13.099 -0.4658 -0.1984  0.3081
 3216POSM   C3A37740  32.491  14.894  12.838  0.0975 -0.2561  0.1179
 3216POSM   C1B37741  33.246  15.182  12.804  0.0473 -0.4157  0.0176
 3216POSM   D2B37742  32.970  15.508  12.894  0.0331  0.0238 -0.4156
 3216POSM   C3B37743  32.691  15.341  13.201  0.0078  0.1946 -0.3335
 3216POSM   C4B37744  32.335  15.144  13.475  0.1795  0.0993 -0.3813
 3217DOPC   NC337745  26.710  18.658  12.144 -0.2821 -0.0173 -0.0064
 3217DOPC   PO437746  26.803  18.296  12.219  0.2375 -0.0421  0.0513
 3217DOPC   GL137747  26.847  18.093  12.630  0.2015  0.0169  0.1083
 3217DOPC   GL237748  27.149  18.160  12.516  0.1747  0.3117 -0.0614
 3217DOPC   C1A37749  26.949  17.901  13.026  0.0250  0.1961  0.2098
 3217DOPC   D2A37750  26.884  17.796  13.408  0.0551  0.1317  0.0540
 3217DOPC   C3A37751  27.114  17.506  13.632 -0.3360  0.1084  0.1288
 3217DOPC   C4A37752  27.063  17.034  13.720 -0.1812 -0.1658  0.3417
 3217DOPC   C1B37753  27.410  17.936  12.834  0.3769 -0.2052 -0.0842
 3217DOPC   D2B37754  27.467  17.749  13.230  0.0143  0.5552  0.0775
 3217DOPC   C3B37755  27.528  17.246  13.285 -0.0540  0.1283  0.0364
 3217DOPC   C4B37756  27.513  16.770  13.219 -0.1168  0.2680  0.0784
 3218DOPC   NC337757  30.805  13.350  12.767  0.2341 -0.1223  0.2751
 3218DOPC   PO437758  30.730  13.669  12.983 -0.0771 -0.1598  0.2207
 3218DOPC   GL137759  30.881  13.388  13.292  0.1334 -0.4057  0.0373
 3218DOPC   GL237760  31.042  13.607  13.399 -0.5256 -0.2188 -0.0662
 3218DOPC   C1A37761  30.846  13.255  13.748  0.1929 -0.1904  0.1500
 3218DOPC   D2A37762  31.020  13.276  14.139 -0.1545  0.2771 -0.2735
 3218DOPC   C3A37763  31.376  13.048  14.406 -0.3967 -0.0655 -0.0847
 3218DOPC   C4A37764  31.726  12.790  14.373  0.0804  0.0490  0.0866
 3218DOPC   C1B37765  31.337  13.652  13.704  0.0554 -0.1926 -0.2782
 3218DOPC   D2B37766  31.789  13.579  13.850 -0.1912  0.0056  0.0692
 3218DOPC   C3B37767  31.859  13.170  14.035 -0.2309  0.1481 -0.1580
 3218DOPC   C4B37768  32.083  12.781  13.942 -0.0253 -0.1388  0.3290
 3219DOPE   NH337769  31.581  18.719  12.497 -0.4449 -0.2728  0.0551
 3219DOPE   PO437770  31.341  18.722  12.752  0.2011 -0.0214  0.1622
 3219DOPE   GL137771  31.242  18.918  13.060 -0.4673 -0.2050 -0.0406
 3219DOPE   GL237772  31.444  19.120  13.175 -0.0214  0.3324  0.3237
 3219DOPE   C1A37773  31.189  18.923  13.514  0.2246 -0.2231 -0.0687
 3219DOPE   D2A37774  31.282  18.614  13.826  0.0045 -0.1461 -0.1210
 3219DOPE   C3A37775  31.280  18.673  14.304  0.1591  0.0297  0.1230
 3219DOPE   C4A37776  31.393  18.637  14.808 -0.2495  0.0256  0.3358
 3219DOPE   C1B37777  31.131  19.481  13.333 -0.0739 -0.0814 -0.2244
 3219DOPE   D2B37778  31.086  19.702  13.732  0.0732  0.0811 -0.0127
 3219DOPE   C3B37779  30.794  19.642  14.053 -0.2719  0.0464 -0.2194
 3219DOPE   C4B37780  30.862  19.356  14.427  0.0846  0.0234 -0.1570
 3220DOPC   NC337781  30.357  18.029  12.721  0.2007 -0.0799  0.0242
 3220DOPC   PO437782  30.728  17.939  12.872 -0.3469 -0.6388 -0.2909
 3220DOPC   GL137783  30.662  18.147  13.137  0.2627  0.2662 -0.1144
 3220DOPC   GL237784  30.456  18.277  13.252 -0.2335 -0.0764  0.1471
 3220DOPC   C1A37785  30.866  18.152  13.565  0.0285 -0.1247 -0.0156
 3220DOPC   D2A37786  30.948  18.280  14.019 -0.2827  0.0015 -0.1061
 3220DOPC   C3A37787  30.510  18.254  14.232 -0.2413 -0.0696  0.0145
 3220DOPC   C4A37788  30.121  18.455  14.447  0.2685  0.0179 -0.1713
 3220DOPC   C1B37789  30.391  18.614  13.476 -0.3389  0.2662  0.0168
 3220DOPC   D2B37790  30.425  19.073  13.496  0.2960 -0.0855 -0.1622
 3220DOPC   C3B37791  30.620  19.504  13.626  0.0160  0.0480 -0.1441
 3220DOPC   C4B37792  30.528  19.968  13.719 -0.0497 -0.1182 -0.1928
 3221DOPC   NC337793  33.766  20.281  12.652 -0.2861 -0.0665 -0.1293
 3221DOPC   PO437794  33.678  19.925  12.630  0.3195  0.1871  0.2063
 3221DOPC   GL137795  33.352  19.857  12.636  0.0347  0.2843  0.2775
 3221DOPC   GL237796  33.285  19.986  12.331 -0.0005 -0.0296 -0.1860
 3221DOPC   C1A37797  33.017  19.984  12.933  0.0337 -0.1139 -0.0415
 3221DOPC   D2A37798  32.575  19.894  13.009 -0.0066  0.0980  0.2333
 3221DOPC   C3A37799  32.337  20.233  13.251  0.0378  0.3209  0.2552
 3221DOPC   C4A37800  32.138  20.412  13.618 -0.0160 -0.1518 -0.0394
 3221DOPC   C1B37801  33.218  20.330  12.659 -0.0437 -0.0781 -0.0651
 3221DOPC   D2B37802  33.097  20.781  12.567  0.2122 -0.0245  0.1157
 3221DOPC   C3B37803  33.056  20.956  12.961 -0.1585 -0.1677 -0.2948
 3221DOPC   C4B37804  33.152  21.157  13.382 -0.0092  0.3129  0.1232
 3222DOPS   CNO37805  31.297  22.900  12.192 -0.1395 -0.0656 -0.3391
 3222DOPS   PO437806  31.391  23.190  12.417  0.1860 -0.1103  0.1752
 3222DOPS   GL137807  31.405  23.170  12.836 -0.0436 -0.0731 -0.1086
 3222DOPS   GL237808  31.763  23.193  12.970  0.2727 -0.0100  0.2135
 3222DOPS   C1A37809  31.503  23.589  13.026 -0.1974 -0.4102  0.3443
 3222DOPS   D2A37810  31.728  23.973  13.223 -0.0687  0.0953 -0.1501
 3222DOPS   C3A37811  31.838  24.029  13.725 -0.0230 -0.3252 -0.1928
 3222DOPS   C4A37812  32.156  24.075  14.053  0.3125 -0.0776  0.3240
 3222DOPS   C1B37813  31.828  22.847  13.268  0.0229 -0.0739  0.0564
 3222DOPS   D2B37814  31.616  22.827  13.680 -0.2044  0.1744 -0.0380
 3222DOPS   C3B37815  31.567  22.370  13.806 -0.0171 -0.0018  0.1178
 3222DOPS   C4B37816  31.288  22.018  13.662 -0.0341 -0.2376 -0.2637
 3223POSM   NC337817  34.529  16.800  12.826 -0.1817  0.1840  0.0017
 3223POSM   PO437818  34.147  16.710  12.814 -0.0315 -0.0821 -0.0630
 3223POSM   AM137819  34.046  16.933  13.042 -0.2746  0.2705  0.3558
 3223POSM   AM237820  33.960  16.980  13.275  0.0086  0.0242  0.0923
 3223POSM   T1A37821  33.785  17.396  13.144 -0.2666 -0.0020  0.3154
 3223POSM   C2A37822  33.587  17.682  12.854  0.2625 -0.1050 -0.0149
 3223POSM   C3A37823  33.186  17.840  12.762  0.1935 -0.0108 -0.2141
 3223POSM   C1B37824  33.703  16.970  13.491  0.3144  0.0309  0.0704
 3223POSM   D2B37825  33.280  17.075  13.562 -0.0484  0.3097  0.1730
 3223POSM   C3B37826  33.024  17.001  13.212  0.0479  0.1353 -0.1541
 3223POSM   C4B37827  32.990  17.047  12.753  0.0613  0.0231 -0.0835
 3224DOPS   CNO37828  30.224  21.556  12.403  0.1976  0.2274  0.0372
 3224DOPS   PO437829  30.593  21.636  12.408  0.2385 -0.1322  0.2484
 3224DOPS   GL137830  30.797  21.531  12.726  0.3739  0.0025 -0.2647
 3224DOPS   GL237831  30.787  21.709  12.952 -0.0646 -0.0468  0.1038
 3224DOPS   C1A37832  31.156  21.299  12.909 -0.0206  0.0295  0.1137
 3224DOPS   D2A37833  31.466  21.035  13.001  0.0461  0.2132  0.1651
 3224DOPS   C3A37834  31.761  20.710  13.243  0.0885  0.1076  0.0397
 3224DOPS   C4A37835  31.687  20.225  13.397  0.0786  0.1239  0.0929
 3224DOPS   C1B37836  30.849  21.424  13.305  0.0689  0.0307  0.1571
 3224DOPS   D2B37837  31.069  21.012  13.343 -0.0340  0.0374 -0.0619
 3224DOPS   C3B37838  31.360  21.022  13.740  0.1271  0.0448 -0.0280
 3224DOPS   C4B37839  31.474  21.192  14.152  0.1946 -0.3503 -0.0293
 3225POSM   NC337840  26.186  17.370  12.741  0.1055  0.1528 -0.0223
 3225POSM   PO437841  25.833  17.410  12.551 -0.1722  0.2139  0.1145
 3225POSM   AM137842  25.804  17.602  12.838  0.2225  0.3511  0.0406
 3225POSM   AM237843  25.907  17.540  13.130  0.2840 -0.0985 -0.1727
 3225POSM   T1A37844  25.445  17.763  13.193  0.1373  0.0082 -0.0658
 3225POSM   C2A37845  25.199  18.161  13.129 -0.1983  0.1369 -0.2570
 3225POSM   C3A37846  24.786  18.330  12.900  0.1668 -0.0850  0.1882
 3225POSM   C1B37847  26.045  17.252  13.243  0.1746  0.0190 -0.1068
 3225POSM   D2B37848  26.272  16.971  13.546  0.1184 -0.0613  0.3088
 3225POSM   C3B37849  26.261  16.887  13.982  0.1506  0.1610 -0.0389
 3225POSM   C4B37850  26.246  16.827  14.401 -0.1236 -0.0120 -0.2654
 3226DOPC   NC337851  27.317  21.058  12.641 -0.0262  0.5035  0.2102
 3226DOPC   PO437852  27.331  20.715  12.462 -0.2181  0.0266  0.0682
 3226DOPC   GL137853  27.355  20.701  12.855 -0.0874  0.1622 -0.4342
 3226DOPC   GL237854  27.053  20.655  12.837 -0.0718 -0.0390 -0.0320
 3226DOPC   C1A37855  27.674  20.574  13.132 -0.4704 -0.0971 -0.0804
 3226DOPC   D2A37856  27.808  20.476  13.580  0.0521  0.0901  0.4087
 3226DOPC   C3A37857  28.211  20.640  13.757  0.1579 -0.0553 -0.2639
 3226DOPC   C4A37858  28.505  20.434  14.086  0.1130 -0.0718  0.0065
 3226DOPC   C1B37859  26.794  20.963  12.729 -0.4687 -0.1784 -0.0303
 3226DOPC   D2B37860  26.417  21.227  12.762  0.1386 -0.0669 -0.0343
 3226DOPC   C3B37861  26.165  21.384  12.384 -0.2820 -0.2226 -0.2192
 3226DOPC   C4B37862  26.185  21.142  12.027  0.0025 -0.4639 -0.3318
 3227DOPC   NC337863  31.465  17.377  13.226  0.1988 -0.1619  0.1597
 3227DOPC   PO437864  31.862  17.366  13.258 -0.2079 -0.1249 -0.3421
 3227DOPC   GL137865  32.204  17.288  13.502  0.3136  0.3692  0.2115
 3227DOPC   GL237866  32.108  17.030  13.522  0.0408 -0.1070 -0.0101
 3227DOPC   C1A37867  32.421  17.216  13.916  0.1787 -0.0983 -0.0767
 3227DOPC   D2A37868  32.348  16.799  14.064  0.1054 -0.0417  0.1015
 3227DOPC   C3A37869  31.989  16.752  14.388  0.0591 -0.0949  0.1068
 3227DOPC   C4A37870  31.844  16.335  14.581  0.2592 -0.0675  0.1006
 3227DOPC   C1B37871  32.346  16.668  13.595 -0.1640 -0.1206  0.3457
 3227DOPC   D2B37872  32.408  16.238  13.797  0.0689  0.1615 -0.1875
 3227DOPC   C3B37873  32.738  16.193  13.481  0.1826 -0.1091  0.0270
 3227DOPC   C4B37874  32.742  16.544  13.170 -0.2642  0.1984  0.0645
 3228DOPC   NC337875  24.637  11.649  12.764 -0.0042 -0.1119  0.1233
 3228DOPC   PO437876  24.905  11.923  12.745 -0.2355  0.2600  0.1349
 3228DOPC   GL137877  24.889  12.005  13.053 -0.0974  0.0174 -0.1002
 3228DOPC   GL237878  25.120  11.798  13.185  0.2140  0.0377 -0.1252
 3228DOPC   C1A37879  24.742  12.021  13.517 -0.0924  0.0339  0.0423
 3228DOPC   D2A37880  24.650  12.196  13.944  0.0332  0.4761 -0.0669
 3228DOPC   C3A37881  24.660  12.609  14.167 -0.4153  0.1334  0.1481
 3228DOPC   C4A37882  24.564  12.973  14.419  0.2323  0.1652 -0.0070
 3228DOPC   C1B37883  25.466  12.069  13.368 -0.0538 -0.0408  0.1428
 3228DOPC   D2B37884  25.640  12.469  13.234 -0.1035  0.0640  0.0736
 3228DOPC   C3B37885  26.005  12.710  13.393 -0.1868  0.1644  0.0439
 3228DOPC   C4B37886  26.432  12.831  13.430 -0.0688 -0.0012 -0.0601
 3229POSM   NC337887  31.571  22.759  12.670  0.4680 -0.1392  0.2819
 3229POSM   PO437888  31.145  22.675  12.655  0.1268  0.0661  0.0938
 3229POSM   AM137889  31.132  22.445  12.889 -0.1698  0.0253  0.1907
 3229POSM   AM237890  31.198  22.206  12.912 -0.0175  0.4474 -0.0642
 3229POSM   T1A37891  31.248  22.452  13.388  0.0200  0.1382 -0.0174
 3229POSM   C2A37892  31.163  22.617  13.764  0.2008  0.1041  0.0467
 3229POSM   C3A37893  31.376  22.861  14.125  0.1260 -0.1564  0.1438
 3229POSM   C1B37894  31.260  21.953  13.145 -0.0162 -0.0508  0.1930
 3229POSM   D2B37895  31.300  21.550  13.419 -0.0513 -0.1578  0.5209
 3229POSM   C3B37896  31.052  21.493  13.780  0.2230 -0.2557 -0.1196
 3229POSM   C4B37897  30.978  21.147  14.101 -0.0169  0.1280 -0.3812
 3230POSM   NC337898  25.816  15.198  12.220  0.3000 -0.2757  0.0741
 3230POSM   PO437899  25.742  14.911  11.967 -0.3892 -0.7332  0.0492
 3230POSM   AM137900  25.743  14.739  12.260  0.0381  0.3462 -0.4120
 3230POSM   AM237901  25.719  14.761  12.541  0.0247  0.2428 -0.0779
 3230POSM   T1A37902  25.833  14.288  12.454  0.1152  0.1886 -0.2854
 3230POSM   C2A37903  26.057  13.957  12.524 -0.0181 -0.0703  0.2399
 3230POSM   C3A37904  26.458  13.730  12.496 -0.1242  0.1943  0.0189
 3230POSM   C1B37905  26.025  14.739  12.662  0.0313  0.0892 -0.0691
 3230POSM   D2B37906  26.422  14.739  12.860  0.0208 -0.1951 -0.1590
 3230POSM   C3B37907  26.599  14.414  13.150 -0.0967 -0.0458  0.1394
 3230POSM   C4B37908  26.315  14.156  13.438 -0.3574  0.2138  0.0759
 3231DOPE   NH337909  29.159  15.888  12.679  0.1450 -0.0344  0.1056
 3231DOPE   PO437910  29.404  15.702  12.727  0.0776 -0.0953 -0.3120
 3231DOPE   GL137911  29.455  15.776  13.123 -0.1058 -0.4597  0.1399
 3231DOPE   GL237912  29.228  15.884  13.168  0.1843  0.0822  0.1840
 3231DOPE   C1A37913  29.780  15.968  13.376  0.2471  0.0893  0.1754
 3231DOPE   D2A37914  29.968  16.367  13.447 -0.0322  0.0900  0.2171
 3231DOPE   C3A37915  29.695  16.690  13.569  0.0277 -0.4582 -0.2492
 3231DOPE   C4A37916  29.603  16.986  13.932 -0.2126  0.0753  0.1766
 3231DOPE   C1B37917  29.323  16.161  13.519  0.1540  0.1125  0.1438
 3231DOPE   D2B37918  29.198  16.469  13.783 -0.2207 -0.0452  0.3092
 3231DOPE   C3B37919  28.714  16.510  13.849 -0.2012  0.4711  0.1306
 3231DOPE   C4B37920  28.324  16.418  14.067 -0.6109  0.1537  0.1275
 3232DOPS   CNO37921  34.680  16.207  12.360 -0.1875  0.0374 -0.0753
 3232DOPS   PO437922  34.481  16.258  12.690 -0.0990  0.2897  0.2220
 3232DOPS   GL137923  34.332  16.302  13.059  0.1595 -0.2185 -0.1979
 3232DOPS   GL237924  34.391  16.445  13.255  0.2040  0.1120 -0.1862
 3232DOPS   C1A37925  34.087  16.063  13.417  0.0022 -0.0293 -0.1917
 3232DOPS   D2A37926  33.719  16.058  13.684  0.0245 -0.0832 -0.0674
 3232DOPS   C3A37927  33.647  16.360  14.033 -0.0823  0.2558  0.1569
 3232DOPS   C4A37928  33.497  16.527  14.439  0.2312 -0.0380  0.0358
 3232DOPS   C1B37929  34.827  16.601  13.229 -0.0452 -0.0805  0.1086
 3232DOPS   D2B37930  34.932  16.964  13.518 -0.1534  0.0472  0.1970
 3232DOPS   C3B37931  34.640  16.597  13.690  0.2934  0.2470 -0.0133
 3232DOPS   C4B37932  34.570  16.132  13.636  0.0064 -0.1375 -0.0373
 3233DOPE   NH337933   0.399  22.583  12.387 -0.0576 -0.1450  0.0293
 3233DOPE   PO437934   0.443  22.570  12.710  0.0930 -0.2071 -0.0709
 3233DOPE   GL137935   0.346  22.367  13.035  0.2290 -0.4842 -0.2677
 3233DOPE   GL237936   0.075  22.210  13.179 -0.1091 -0.0919 -0.1910
 3233DOPE   C1A37937   0.469  22.352  13.512  0.1007  0.1131 -0.1002
 3233DOPE   D2A37938   0.486  22.774  13.743 -0.1434  0.3148  0.1019
 3233DOPE   C3A37939   0.880  22.778  14.003  0.1887 -0.2179 -0.0747
 3233DOPE   C4A37940   1.276  22.607  14.171 -0.0719  0.1009  0.1136
 3233DOPE   C1B37941  -0.264  22.195  13.487 -0.0103  0.1626 -0.3640
 3233DOPE   D2B37942  -0.425  22.132  13.896 -0.2283  0.3353 -0.0755
 3233DOPE   C3B37943  -0.279  22.464  14.172  0.2551  0.3248 -0.1469
 3233DOPE   C4B37944  -0.121  22.452  14.566 -0.0062  0.2574  0.1582
 3234DOPC   NC337945  25.634  17.066  12.204 -0.0599  0.1476 -0.0049
 3234DOPC   PO437946  25.599  16.980  11.829  0.1604  0.2002 -0.0197
 3234DOPC   GL137947  25.273  16.750  12.022 -0.4374  0.0328  0.0867
 3234DOPC   GL237948  25.428  16.466  11.990 -0.0049  0.2128 -0.0671
 3234DOPC   C1A37949  24.854  16.959  11.895  0.0977 -0.1812  0.0503
 3234DOPC   D2A37950  24.462  17.213  12.032  0.0512  0.1861  0.2111
 3234DOPC   C3A37951  24.152  17.243  12.344 -0.0515 -0.0719  0.2026
 3234DOPC   C4A37952  24.152  17.541  12.668 -0.0094 -0.1035 -0.0939
 3234DOPC   C1B37953  24.951  16.425  11.794 -0.0869  0.1010  0.0408
 3234DOPC   D2B37954  24.544  16.561  12.074  0.0003 -0.1465  0.2106
 3234DOPC   C3B37955  24.369  16.817  12.410 -0.1820  0.1641 -0.1420
 3234DOPC   C4B37956  24.349  17.065  12.854  0.0930 -0.0716  0.2787
 3235DOPC   NC337957  27.236  14.149  12.277 -0.1915  0.0459 -0.0721
 3235DOPC   PO437958  27.457  14.184  11.928 -0.1191 -0.1998  0.1662
 3235DOPC   GL137959  27.615  14.477  12.230 -0.4473 -0.0556 -0.3375
 3235DOPC   GL237960  27.803  14.443  12.538 -0.0724  0.0899 -0.1436
 3235DOPC   C1A37961  27.318  14.661  12.452  0.2509 -0.0992 -0.1565
 3235DOPC   D2A37962  27.002  14.610  12.777  0.0345  0.0894  0.0269
 3235DOPC   C3A37963  27.099  14.636  13.219 -0.0454 -0.0261 -0.0411
 3235DOPC   C4A37964  27.024  14.932  13.651  0.1477  0.0255  0.3771
 3235DOPC   C1B37965  27.776  14.754  12.831 -0.1757 -0.2765  0.1947
 3235DOPC   D2B37966  27.926  14.922  13.226  0.2801 -0.0915 -0.0482
 3235DOPC   C3B37967  27.855  14.965  13.608  0.0492  0.1150 -0.2670
 3235DOPC   C4B37968  27.682  15.177  13.937  0.0092 -0.1522 -0.2058
 3236POSM   NC337969  34.551  18.072  12.602  0.0162 -0.1641  0.0840
 3236POSM   PO437970  34.115  17.996  12.621  0.1856 -0.2944  0.1048
 3236POSM   AM137971  33.937  18.043  12.878  0.5743  0.2613 -0.0657
 3236POSM   AM237972  33.810  18.272  12.988 -0.1730  0.2493  0.1368
 3236POSM   T1A37973  33.818  17.890  13.338 -0.0887  0.3763 -0.3233
 3236POSM   C2A37974  33.643  17.556  13.634 -0.2209  0.0338  0.2396
 3236POSM   C3A37975  33.367  17.353  13.987 -0.1466 -0.2481  0.2346
 3236POSM   C1B37976  33.476  18.193  12.995 -0.1518 -0.0538 -0.0476
 3236POSM   D2B37977  33.137  18.048  13.305 -0.1558 -0.1841  0.0514
 3236POSM   C3B37978  33.226  17.816  13.693 -0.2208 -0.1335 -0.2689
 3236POSM   C4B37979  33.009  17.757  14.056 -0.4392  0.0300 -0.0364
 3237POSM   NC337980  23.655  20.896  11.701  0.4792 -0.0497  0.2379
 3237POSM   PO437981  23.506  21.021  12.067 -0.1940  0.1736  0.2714
 3237POSM   AM137982  23.679  21.054  12.335 -0.1566 -0.3079 -0.1627
 3237POSM   AM237983  23.917  21.032  12.457 -0.3567 -0.3251  0.2801
 3237POSM   T1A37984  23.722  20.832  12.843 -0.0174  0.0918  0.1333
 3237POSM   C2A37985  23.591  20.399  12.984  0.2037 -0.2784 -0.0982
 3237POSM   C3A37986  23.786  19.928  12.982  0.0949  0.0915  0.1796
 3237POSM   C1B37987  24.139  21.038  12.661  0.1313  0.3017  0.1021
 3237POSM   D2B37988  24.493  21.201  12.985  0.1579  0.0483  0.0351
 3237POSM   C3B37989  24.864  21.386  13.193  0.0614 -0.0028  0.3702
 3237POSM   C4B37990  25.317  21.362  13.339  0.0035 -0.0368  0.0322
 3238DOPS   CNO37991  30.642  14.672  12.858  0.3746  0.3056  0.2716
 3238DOPS   PO437992  30.595  14.852  13.178  0.1244  0.4989  0.0229
 3238DOPS   GL137993  30.653  14.868  13.607 -0.1149 -0.1506  0.0701
 3238DOPS   GL237994  30.918  14.862  13.544  0.1260 -0.2808 -0.0511
 3238DOPS   C1A37995  30.790  15.097  13.993  0.4250 -0.0666  0.0598
 3238DOPS   D2A37996  30.783  15.488  14.171  0.0878 -0.1660 -0.3814
 3238DOPS   C3A37997  31.193  15.495  14.405 -0.0795  0.2855  0.0657
 3238DOPS   C4A37998  31.525  15.381  14.731 -0.0035  0.0034  0.1069
 3238DOPS   C1B37999  31.034  14.555  13.887 -0.1143 -0.0133 -0.0791
 3238DOPS   D2B38000  31.013  14.062  13.877  0.0031  0.0372  0.4578
 3238DOPS   C3B38001  31.160  13.776  14.167 -0.1997  0.1525  0.0992
 3238DOPS   C4B38002  31.161  13.542  14.562 -0.0549  0.3169 -0.1229
 3239POSM   NC338003  26.562  11.882  12.688  0.3507  0.2366 -0.0208
 3239POSM   PO438004  26.407  11.555  12.572  0.0270  0.1749 -0.2243
 3239POSM   AM138005  26.250  11.614  12.892  0.1771 -0.0531 -0.2520
 3239POSM   AM238006  26.346  11.566  13.139  0.0344  0.0332  0.1178
 3239POSM   T1A38007  25.921  11.741  13.280 -0.0365  0.0071  0.2739
 3239POSM   C2A38008  25.747  11.692  13.721  0.0757  0.4404  0.3271
 3239POSM   C3A38009  25.453  11.515  14.072 -0.2133 -0.0914 -0.4814
 3239POSM   C1B38010  26.198  11.325  13.264 -0.1213 -0.1935  0.1043
 3239POSM   D2B38011  25.969  11.180  13.605 -0.2250 -0.0829  0.2949
 3239POSM   C3B38012  25.989  11.393  14.033  0.3039  0.0845  0.2661
 3239POSM   C4B38013  26.125  11.729  14.296 -0.1326  0.1124  0.0242
 3240DOPE   NH338014  29.440  20.944  12.854  0.2803  0.1970  0.2192
 3240DOPE   PO438015  29.499  20.733  12.640  0.0282 -0.0855  0.0859
 3240DOPE   GL138016  29.099  20.650  12.686  0.0900 -0.0567 -0.1285
 3240DOPE   GL238017  28.975  20.901  12.652  0.0845  0.1284  0.1784
 3240DOPE   C1A38018  28.922  20.668  13.083  0.1264 -0.1013  0.0226
 3240DOPE   D2A38019  28.662  20.462  13.434  0.0547  0.0996  0.1431
 3240DOPE   C3A38020  28.781  20.184  13.787 -0.2122  0.0224  0.0744
 3240DOPE   C4A38021  28.972  19.884  14.100  0.2996 -0.0864  0.0065
 3240DOPE   C1B38022  28.515  20.743  12.634  0.2047 -0.1246  0.0246
 3240DOPE   D2B38023  28.477  20.340  12.896  0.0883 -0.0798 -0.0168
 3240DOPE   C3B38024  28.267  20.201  13.335 -0.0162  0.0298 -0.1029
 3240DOPE   C4B38025  28.289  20.111  13.809  0.0463 -0.0760 -0.1663
 3241DOPE   NH338026  25.513  12.702  12.490 -0.1808  0.2381  0.2285
 3241DOPE   PO438027  25.766  12.851  12.385  0.4735  0.2970 -0.1617
 3241DOPE   GL138028  25.614  13.198  12.448 -0.1934  0.0673 -0.3588
 3241DOPE   GL238029  25.585  13.213  12.732 -0.1551  0.0469 -0.3874
 3241DOPE   C1A38030  25.618  13.647  12.388  0.0392 -0.0310 -0.2289
 3241DOPE   D2A38031  25.437  14.039  12.614 -0.0467 -0.0627  0.1957
 3241DOPE   C3A38032  25.629  14.346  12.875  0.1705 -0.1778  0.1689
 3241DOPE   C4A38033  25.524  14.774  12.979  0.2094 -0.2335  0.3202
 3241DOPE   C1B38034  25.461  12.930  13.073 -0.0846 -0.0719  0.1694
 3241DOPE   D2B38035  25.483  12.897  13.515  0.2443  0.1852  0.3127
 3241DOPE   C3B38036  25.639  12.582  13.772 -0.0911 -0.1530  0.2663
 3241DOPE   C4B38037  25.857  12.176  13.886  0.1850  0.2042  0.0856
 3242DOPE   NH338038  25.903  12.564  12.807  0.0628  0.1077 -0.0654
 3242DOPE   PO438039  26.112  12.534  12.614  0.0755 -0.2408  0.1554
 3242DOPE   GL138040  26.135  12.915  12.690 -0.1030  0.0106  0.2428
 3242DOPE   GL238041  26.350  12.969  12.910 -0.1606  0.0381 -0.0080
 3242DOPE   C1A38042  25.994  13.374  12.591 -0.2861  0.0543 -0.1888
 3242DOPE   D2A38043  25.929  13.686  12.854 -0.1302 -0.1441 -0.0311
 3242DOPE   C3A38044  25.919  13.753  13.303  0.0286 -0.1946 -0.0009
 3242DOPE   C4A38045  25.980  13.846  13.766 -0.0243 -0.0090 -0.0865
 3242DOPE   C1B38046  25.937  13.156  13.084  0.1822  0.1702 -0.0853
 3242DOPE   D2B38047  25.557  13.425  13.237 -0.1056 -0.1303  0.1066
 3242DOPE   C3B38048  25.315  13.340  13.666 -0.3865 -0.0981 -0.0001
 3242DOPE   C4B38049  25.262  13.436  14.085  0.1476  0.0962  0.0982
 3243DOPS   CNO38050  27.827  11.160  12.319  0.2670 -0.1374 -0.3433
 3243DOPS   PO438051  27.831  11.501  12.427 -0.2159 -0.0667  0.2534
 3243DOPS   GL138052  27.816  11.954  12.495  0.0156  0.2902 -0.0180
 3243DOPS   GL238053  27.537  11.895  12.624  0.0746 -0.0205  0.3031
 3243DOPS   C1A38054  27.707  12.389  12.372  0.1339 -0.1956 -0.1523
 3243DOPS   D2A38055  27.884  12.834  12.390  0.1826  0.1795  0.1780
 3243DOPS   C3A38056  27.550  13.153  12.407 -0.1164  0.1220  0.0810
 3243DOPS   C4A38057  27.055  13.196  12.217 -0.2060  0.1418 -0.0395
 3243DOPS   C1B38058  27.600  12.277  12.907 -0.3479 -0.2269  0.0149
 3243DOPS   D2B38059  27.334  12.485  13.161  0.3169 -0.0428  0.1968
 3243DOPS   C3B38060  27.500  12.568  13.576 -0.0414  0.1912  0.0918
 3243DOPS   C4B38061  27.524  12.696  14.014  0.0920 -0.0550 -0.1926
 3244POSM   NC338062  30.013  14.720  13.206 -0.0816 -0.1036 -0.0786
 3244POSM   PO438063  30.135  15.060  13.078 -0.0264  0.0008 -0.0871
 3244POSM   AM138064  30.250  15.140  13.375  0.1112  0.1036  0.1959
 3244POSM   AM238065  30.237  15.403  13.465  0.1633 -0.3192 -0.2620
 3244POSM   T1A38066  30.272  15.062  13.885 -0.2205  0.1720 -0.1820
 3244POSM   C2A38067  30.498  14.659  14.035  0.1042 -0.0443  0.0927
 3244POSM   C3A38068  30.500  14.172  14.039 -0.0312  0.3338 -0.0272
 3244POSM   C1B38069  30.011  15.484  13.711  0.1001 -0.0406 -0.1507
 3244POSM   D2B38070  29.788  15.419  14.156 -0.0219 -0.2742 -0.0169
 3244POSM   C3B38071  29.366  15.494  14.151 -0.2511  0.1271 -0.0145
 3244POSM   C4B38072  29.030  15.463  13.880  0.1237  0.0119  0.0161
 3245POSM   NC338073  33.702  17.188  12.573 -0.3276 -0.4454 -0.2799
 3245POSM   PO438074  33.868  16.848  12.419  0.2277 -0.0834 -0.1395
 3245POSM   AM138075  33.724  16.682  12.684  0.3282 -0.1191 -0.1551
 3245POSM   AM238076  33.599  16.815  12.890  0.1875  0.1575 -0.0907
 3245POSM   T1A38077  33.352  16.426  12.935 -0.0261 -0.1737  0.3679
 3245POSM   C2A38078  33.213  16.229  13.337  0.2041  0.2100  0.1857
 3245POSM   C3A38079  33.237  16.119  13.800  0.0125 -0.1790 -0.3358
 3245POSM   C1B38080  33.463  17.060  13.007 -0.0164  0.1197 -0.0228
 3245POSM   D2B38081  33.234  17.456  13.136  0.0580 -0.2575  0.0348
 3245POSM   C3B38082  32.807  17.617  12.964  0.0661  0.1521  0.1860
 3245POSM   C4B38083  32.551  18.017  13.035  0.1288 -0.1110  0.0319
 3246DOPE   NH338084  30.929  15.608  13.222 -0.1074  0.2596 -0.0174
 3246DOPE   PO438085  30.780  15.414  13.425  0.1634 -0.1158 -0.1408
 3246DOPE   GL138086  31.028  15.278  13.554  0.0187  0.0626  0.0103
 3246DOPE   GL238087  31.266  15.310  13.469 -0.0176  0.2363  0.3191
 3246DOPE   C1A38088  31.351  15.376  13.933 -0.0973  0.0899  0.0587
 3246DOPE   D2A38089  31.695  15.273  14.242  0.1486 -0.3200  0.0765
 3246DOPE   C3A38090  31.879  15.018  14.620  0.2912  0.3564 -0.0684
 3246DOPE   C4A38091  31.986  14.601  14.775 -0.0358 -0.1594  0.1540
 3246DOPE   C1B38092  31.693  15.334  13.459  0.0379  0.0455  0.1452
 3246DOPE   D2B38093  32.002  15.339  13.840 -0.0360 -0.0250  0.0274
 3246DOPE   C3B38094  32.381  14.972  13.949  0.0105 -0.1176 -0.0196
 3246DOPE   C4B38095  32.528  14.632  14.162  0.0841  0.0918 -0.1367
 3247DOPS   CNO38096  24.547  22.844  11.787 -0.0900 -0.0740 -0.0101
 3247DOPS   PO438097  24.590  22.769  12.166 -0.1468 -0.0693 -0.0362
 3247DOPS   GL138098  24.597  22.724  12.616  0.2704 -0.1823 -0.1793
 3247DOPS   GL238099  24.786  22.492  12.580 -0.1728 -0.1488 -0.2568
 3247DOPS   C1A38100  24.338  22.729  13.039  0.1206  0.2227 -0.1431
 3247DOPS   D2A38101  24.229  22.596  13.477 -0.5780 -0.1269  0.0981
 3247DOPS   C3A38102  24.282  22.932  13.898 -0.1127  0.2888 -0.2106
 3247DOPS   C4A38103  24.286  23.249  14.223 -0.2094  0.0451 -0.3589
 3247DOPS   C1B38104  24.466  22.287  12.753  0.0800  0.3664 -0.1736
 3247DOPS   D2B38105  24.098  22.282  13.081  0.2762  0.1439 -0.1803
 3247DOPS   C3B38106  24.442  22.169  13.383 -0.1965 -0.0525  0.0574
 3247DOPS   C4B38107  24.706  22.430  13.654  0.0642  0.0672  0.1398
 3248DOPE   NH338108  29.186  19.743  12.406  0.1296 -0.1440  0.2076
 3248DOPE   PO438109  29.241  19.944  12.175  0.1246  0.0205  0.3234
 3248DOPE   GL138110  29.645  20.071  12.397  0.0890 -0.1510  0.1390
 3248DOPE   GL238111  29.586  20.239  12.632 -0.1376 -0.0162  0.2291
 3248DOPE   C1A38112  30.069  20.038  12.548  0.0702 -0.1597 -0.1262
 3248DOPE   D2A38113  30.188  20.347  12.895  0.1747 -0.1489  0.0821
 3248DOPE   C3A38114  30.535  20.642  12.794  0.0540  0.0197 -0.4672
 3248DOPE   C4A38115  30.721  20.928  13.018  0.1222 -0.3011  0.0598
 3248DOPE   C1B38116  29.698  20.026  13.047 -0.2220  0.0122 -0.3027
 3248DOPE   D2B38117  29.543  19.618  13.319  0.1006 -0.1897 -0.2543
 3248DOPE   C3B38118  29.743  19.742  13.733  0.0193  0.0307 -0.0654
 3248DOPE   C4B38119  29.554  19.581  14.110  0.1900  0.2047 -0.1121
 3249POSM   NC338120  22.930  14.092  11.886 -0.0275  0.0159 -0.1673
 3249POSM   PO438121  22.956  13.759  11.658 -0.0051 -0.3515  0.1652
 3249POSM   AM138122  22.940  13.620  11.951  0.0984  0.0297 -0.0217
 3249POSM   AM238123  22.958  13.651  12.220 -0.3032 -0.0431 -0.0030
 3249POSM   T1A38124  23.133  13.221  12.269  0.0794  0.0456  0.2997
 3249POSM   C2A38125  23.090  12.795  12.459  0.1679  0.2598 -0.0450
 3249POSM   C3A38126  23.172  12.646  12.865  0.0774  0.0952 -0.0975
 3249POSM   C1B38127  22.867  13.760  12.519  0.2213  0.1124  0.1020
 3249POSM   D2B38128  22.787  13.716  13.012  0.0551  0.2259 -0.1540
 3249POSM   C3B38129  22.580  13.330  13.108 -0.0764  0.2761  0.2976
 3249POSM   C4B38130  22.713  13.037  13.448 -0.0940 -0.2213 -0.2266
 3250POSM   NC338131  24.290  22.272  12.174 -0.0717  0.3486 -0.0282
 3250POSM   PO438132  24.139  22.614  12.017 -0.1239  0.0190  0.0178
 3250POSM   AM138133  24.026  22.664  12.339 -0.0835  0.1812 -0.1576
 3250POSM   AM238134  24.033  22.896  12.510  0.3152  0.5104 -0.0920
 3250POSM   T1A38135  23.930  22.303  12.647 -0.2136  0.1671  0.0231
 3250POSM   C2A38136  24.172  21.904  12.677 -0.2228 -0.1858 -0.2132
 3250POSM   C3A38137  24.330  21.490  12.508 -0.3434 -0.1258 -0.0934
 3250POSM   C1B38138  23.972  23.041  12.823 -0.0141  0.0693 -0.0837
 3250POSM   D2B38139  23.965  23.291  13.227  0.1854  0.0771 -0.1695
 3250POSM   C3B38140  23.876  23.051  13.599  0.2416 -0.0929  0.1974
 3250POSM   C4B38141  23.656  23.142  13.984  0.1807 -0.0516  0.0450
 3251DOPC   NC338142  27.263  19.873  12.051 -0.2405 -0.0077  0.0976
 3251DOPC   PO438143  27.451  19.694  12.341  0.2748  0.1456 -0.0789
 3251DOPC   GL138144  27.290  19.912  12.523  0.2149  0.1386 -0.0996
 3251DOPC   GL238145  27.413  19.903  12.810  0.1246 -0.2418 -0.0030
 3251DOPC   C1A38146  26.964  20.101  12.841 -0.0165 -0.0574  0.0133
 3251DOPC   D2A38147  26.621  20.160  13.180 -0.2916  0.3439  0.1283
 3251DOPC   C3A38148  26.504  19.755  13.385 -0.0424  0.0349 -0.1513
 3251DOPC   C4A38149  26.731  19.529  13.758  0.0120 -0.1241  0.0705
 3251DOPC   C1B38150  27.211  20.135  13.287 -0.0657  0.2613  0.0212
 3251DOPC   D2B38151  27.106  20.579  13.299 -0.2672 -0.0892 -0.2079
 3251DOPC   C3B38152  27.341  20.852  13.469 -0.0849  0.2189  0.3492
 3251DOPC   C4B38153  27.448  20.715  13.896 -0.3975 -0.1322 -0.1218
 3252POSM   NC338154  23.459  19.633  12.146 -0.0809  0.2459  0.2553
 3252POSM   PO438155  23.437  19.459  11.808 -0.0404 -0.0728  0.0405
 3252POSM   AM138156  23.241  19.251  11.959 -0.1675 -0.0452 -0.2820
 3252POSM   AM238157  23.101  19.280  12.201  0.1398 -0.0210  0.0467
 3252POSM   T1A38158  23.322  18.803  12.186  0.1495  0.1178  0.0553
 3252POSM   C2A38159  23.651  18.511  12.239  0.1463 -0.2195  0.1022
 3252POSM   C3A38160  24.148  18.620  12.261  0.1049 -0.1446 -0.2003
 3252POSM   C1B38161  23.240  19.169  12.515  0.0902  0.2001  0.0292
 3252POSM   D2B38162  23.326  19.071  12.959 -0.2702 -0.0764  0.1942
 3252POSM   C3B38163  23.111  19.476  13.072  0.0422  0.0877  0.4387
 3252POSM   C4B38164  23.319  19.848  12.996  0.2205 -0.1613 -0.2524
 3253DOPE   NH338165  28.357  13.893  12.486  0.2212  0.1040  0.1820
 3253DOPE   PO438166  28.136  14.002  12.711 -0.4229  0.5638 -0.0469
 3253DOPE   GL138167  27.984  14.179  13.057 -0.0866  0.2848 -0.0143
 3253DOPE   GL238168  28.234  14.374  13.091  0.0217  0.1034 -0.1146
 3253DOPE   C1A38169  27.797  13.958  13.394  0.0433  0.0943  0.0493
 3253DOPE   D2A38170  27.513  14.120  13.761  0.0254  0.3829  0.0481
 3253DOPE   C3A38171  27.502  13.859  14.192 -0.4775 -0.1915 -0.3083
 3253DOPE   C4A38172  27.496  13.507  14.463  0.1683  0.0201 -0.0584
 3253DOPE   C1B38173  27.982  14.511  13.493 -0.1417  0.2488  0.3131
 3253DOPE   D2B38174  27.962  14.376  13.978  0.0405  0.1800  0.0372
 3253DOPE   C3B38175  27.998  13.992  14.207  0.1249 -0.0072  0.1070
 3253DOPE   C4B38176  28.355  13.721  14.415 -0.0109  0.0663  0.1145
 3254DOPS   CNO38177  26.557  17.723  11.988 -0.0766  0.0985  0.1717
 3254DOPS   PO438178  26.601  17.847  12.319  0.0612 -0.1893 -0.1357
 3254DOPS   GL138179  26.529  17.610  12.630 -0.0681 -0.1004  0.3133
 3254DOPS   GL238180  26.504  17.716  12.834 -0.2044 -0.0419 -0.2382
 3254DOPS   C1A38181  26.669  17.179  12.825  0.0522  0.2572 -0.0018
 3254DOPS   D2A38182  26.313  16.947  13.038  0.4803 -0.0440 -0.1047
 3254DOPS   C3A38183  26.254  16.470  13.205  0.0296 -0.1995  0.2966
 3254DOPS   C4A38184  25.942  16.125  13.349 -0.3452 -0.3810  0.2939
 3254DOPS   C1B38185  26.532  17.489  13.215  0.0772  0.1391 -0.1420
 3254DOPS   D2B38186  26.346  17.656  13.588  0.0641 -0.0525 -0.0558
 3254DOPS   C3B38187  26.028  17.341  13.812 -0.3830 -0.1280 -0.1001
 3254DOPS   C4B38188  25.598  17.249  13.894 -0.1220 -0.1990 -0.1311
 3255DOPC   NC338189  25.984  18.183  12.082  0.1119 -0.0994 -0.1666
 3255DOPC   PO438190  26.307  18.420  12.018 -0.2190 -0.3173 -0.2029
 3255DOPC   GL138191  26.226  18.673  12.211  0.5112 -0.4246  0.2754
 3255DOPC   GL238192  25.970  18.795  12.165  0.3501  0.3288  0.0371
 3255DOPC   C1A38193  26.482  18.878  12.514 -0.3108  0.1897 -0.0100
 3255DOPC   D2A38194  26.599  19.022  12.941 -0.1012  0.2123 -0.0670
 3255DOPC   C3A38195  26.962  18.840  13.236  0.1188  0.0821  0.2226
 3255DOPC   C4A38196  27.207  19.178  13.529 -0.1849 -0.1767  0.0400
 3255DOPC   C1B38197  25.904  19.083  12.554  0.0125  0.2999 -0.0618
 3255DOPC   D2B38198  25.977  19.383  12.927 -0.0699  0.0064 -0.2891
 3255DOPC   C3B38199  26.268  19.375  13.231  0.0612 -0.1481 -0.4264
 3255DOPC   C4B38200  26.660  19.149  13.423 -0.1139  0.0833 -0.1078
 3256DOPC   NC338201  31.083  22.357  12.328 -0.3945  0.1107  0.2030
 3256DOPC   PO438202  30.871  22.063  12.504  0.1515 -0.2160 -0.2259
 3256DOPC   GL138203  31.188  21.712  12.652  0.1531 -0.0244 -0.0802
 3256DOPC   GL238204  31.479  21.724  12.529 -0.0280 -0.2461  0.1186
 3256DOPC   C1A38205  31.582  21.585  12.963  0.3038 -0.3258 -0.3145
 3256DOPC   D2A38206  31.939  21.663  13.275  0.1834 -0.3442  0.1515
 3256DOPC   C3A38207  32.141  21.336  13.466 -0.2109 -0.0046 -0.0484
 3256DOPC   C4A38208  32.320  21.012  13.547 -0.0083  0.1086  0.3707
 3256DOPC   C1B38209  31.988  21.762  12.558  0.1230  0.2367  0.0972
 3256DOPC   D2B38210  32.296  21.476  12.719  0.0226  0.0917 -0.0182
 3256DOPC   C3B38211  32.137  21.034  12.591 -0.2674  0.2067  0.1822
 3256DOPC   C4B38212  31.821  20.738  12.771 -0.1068 -0.0789 -0.1773
 3257DOPC   NC338213  25.780  16.637  12.873 -0.1723 -0.2390  0.3378
 3257DOPC   PO438214  25.949  16.930  12.622 -0.4603 -0.0977 -0.1910
 3257DOPC   GL138215  25.810  17.115  12.896  0.0871  0.2065  0.0784
 3257DOPC   GL238216  25.495  17.090  12.713  0.2707 -0.0651 -0.3155
 3257DOPC   C1A38217  25.738  16.902  13.292 -0.0390 -0.1991  0.2441
 3257DOPC   D2A38218  25.840  16.778  13.753 -0.1699  0.1900  0.1025
 3257DOPC   C3A38219  26.133  16.444  13.779  0.0128 -0.2572 -0.0934
 3257DOPC   C4A38220  26.483  16.219  13.581 -0.4766  0.0714 -0.0982
 3257DOPC   C1B38221  25.406  17.276  13.086  0.1430  0.2544  0.3684
 3257DOPC   D2B38222  25.593  17.443  13.493  0.0853  0.3841 -0.0226
 3257DOPC   C3B38223  25.855  17.752  13.645  0.2727  0.0533  0.1509
 3257DOPC   C4B38224  26.100  18.165  13.597  0.0079 -0.1860  0.2146
 3258DOPS   CNO38225  28.692  20.031  12.583 -0.4503  0.0468 -0.1078
 3258DOPS   PO438226  29.006  20.121  12.741  0.0963 -0.0242  0.3375
 3258DOPS   GL138227  29.186  20.233  13.077 -0.4423  0.2647  0.3925
 3258DOPS   GL238228  29.393  20.449  13.159  0.1243 -0.1548 -0.2039
 3258DOPS   C1A38229  29.488  20.116  13.479  0.0818 -0.1736 -0.3453
 3258DOPS   D2A38230  29.382  20.150  13.892  0.0969 -0.1323  0.2665
 3258DOPS   C3A38231  29.713  20.337  14.063  0.2371  0.0045 -0.4155
 3258DOPS   C4A38232  30.108  20.524  13.918 -0.2314 -0.1489 -0.0457
 3258DOPS   C1B38233  29.139  20.472  13.535 -0.2629 -0.2219  0.1953
 3258DOPS   D2B38234  29.141  20.589  13.971 -0.1427  0.1903 -0.3113
 3258DOPS   C3B38235  28.960  20.339  14.280  0.1289 -0.1603 -0.0237
 3258DOPS   C4B38236  28.636  20.174  14.597 -0.1710 -0.4094 -0.2197
 3259POSM   NC338237  25.682  12.068  12.928  0.0821 -0.0425  0.1206
 3259POSM   PO438238  25.470  11.738  12.788  0.0946  0.2230  0.1206
 3259POSM   AM138239  25.357  11.492  12.935  0.1562  0.1323  0.4376
 3259POSM   AM238240  25.089  11.349  12.905 -0.0134 -0.0785  0.0841
 3259POSM   T1A38241  25.258  11.357  13.414 -0.2284 -0.2618  0.0368
 3259POSM   C2A38242  25.473  11.104  13.789  0.2776  0.0725  0.0640
 3259POSM   C3A38243  25.676  10.962  14.235  0.1024 -0.1415 -0.0171
 3259POSM   C1B38244  24.855  11.360  13.174 -0.0247  0.1103  0.1501
 3259POSM   D2B38245  24.498  11.402  13.449  0.1944  0.0701 -0.0178
 3259POSM   C3B38246  24.406  11.621  13.810  0.3576 -0.0023  0.0041
 3259POSM   C4B38247  24.088  11.930  13.857 -0.2676 -0.0658 -0.1163
 3260POSM   NC338248  28.916  22.665  12.929 -0.2353 -0.1106  0.0836
 3260POSM   PO438249  29.046  22.351  12.710  0.0096  0.4622 -0.0527
 3260POSM   AM138250  29.093  22.170  12.992 -0.2382 -0.0356  0.1045
 3260POSM   AM238251  29.114  22.205  13.277  0.1142  0.0465  0.2762
 3260POSM   T1A38252  29.139  21.757  13.292 -0.1706 -0.2335  0.3132
 3260POSM   C2A38253  29.172  21.519  13.710  0.3343 -0.2234  0.0575
 3260POSM   C3A38254  28.913  21.426  14.073 -0.3436 -0.1621 -0.2418
 3260POSM   C1B38255  28.986  22.161  13.590 -0.0231 -0.2422 -0.1283
 3260POSM   D2B38256  28.976  22.417  14.010 -0.2109 -0.1152 -0.0518
 3260POSM   C3B38257  29.090  22.870  14.189  0.0603 -0.2224  0.1195
 3260POSM   C4B38258  29.170  23.206  14.486 -0.2395 -0.0396 -0.0027
 3261DOPE   NH338259  23.255  17.637  11.884 -0.1190 -0.1110  0.1719
 3261DOPE   PO438260  23.504  17.831  11.845  0.0071 -0.0907 -0.0030
 3261DOPE   GL138261  23.427  17.802  12.254 -0.1331 -0.0370  0.1812
 3261DOPE   GL238262  23.310  18.078  12.266 -0.3667  0.0099  0.0165
 3261DOPE   C1A38263  23.135  17.512  12.407 -0.3075  0.0212  0.1421
 3261DOPE   D2A38264  23.129  17.095  12.561  0.0766  0.3032  0.2592
 3261DOPE   C3A38265  22.810  16.961  12.851  0.3755  0.2666 -0.1496
 3261DOPE   C4A38266  22.480  16.679  13.088  0.0391 -0.2294  0.2658
 3261DOPE   C1B38267  22.858  18.034  12.450 -0.1079 -0.1949 -0.0912
 3261DOPE   D2B38268  22.453  18.165  12.263 -0.1569  0.0629  0.2946
 3261DOPE   C3B38269  22.441  18.454  12.563 -0.0624  0.2293  0.2447
 3261DOPE   C4B38270  22.527  18.648  13.053  0.0035 -0.0125  0.0590
 3262DOPC   NC338271  28.632  11.676  13.066 -0.1442 -0.0403  0.0040
 3262DOPC   PO438272  28.819  11.361  12.880 -0.1750 -0.0070 -0.0885
 3262DOPC   GL138273  28.556  11.163  13.024  0.3454 -0.1770  0.2136
 3262DOPC   GL238274  28.341  11.250  13.083 -0.3094 -0.0754 -0.0652
 3262DOPC   C1A38275  28.583  10.908  13.428 -0.0859 -0.2184  0.0403
 3262DOPC   D2A38276  28.375  10.977  13.850  0.1381  0.1968  0.0687
 3262DOPC   C3A38277  28.189  11.355  14.065  0.1804 -0.1033 -0.1200
 3262DOPC   C4A38278  27.813  11.667  14.091  0.0358 -0.1377 -0.1457
 3262DOPC   C1B38279  28.184  11.259  13.553  0.2276  0.1743 -0.0432
 3262DOPC   D2B38280  27.898  11.022  13.889  0.2457 -0.0826 -0.0276
 3262DOPC   C3B38281  27.853  10.728  14.247  0.0613  0.4092 -0.2024
 3262DOPC   C4B38282  27.823  10.262  14.267 -0.4327 -0.0118  0.1295
 3263POSM   NC338283  34.043  14.827  12.451 -0.0201  0.1169 -0.0760
 3263POSM   PO438284  33.815  14.532  12.605 -0.0576 -0.0886 -0.0544
 3263POSM   AM138285  33.768  14.444  12.938 -0.1133  0.2400 -0.0904
 3263POSM   AM238286  33.887  14.472  13.176 -0.1738  0.1573  0.0507
 3263POSM   T1A38287  33.406  14.329  13.279 -0.3439  0.0340 -0.1879
 3263POSM   C2A38288  33.097  14.059  13.474  0.0513 -0.2063 -0.0361
 3263POSM   C3A38289  32.823  13.814  13.675  0.1509  0.2001 -0.0137
 3263POSM   C1B38290  33.720  14.732  13.379  0.1714  0.1158  0.1000
 3263POSM   D2B38291  33.638  15.071  13.655 -0.1068  0.0027 -0.1569
 3263POSM   C3B38292  33.457  15.140  14.107 -0.4326 -0.0677  0.0683
 3263POSM   C4B38293  33.522  15.492  14.461  0.0560 -0.3254 -0.1663
 3264POSM   NC338294  29.227  19.783  12.963  0.1034 -0.2597 -0.0788
 3264POSM   PO438295  29.321  19.416  12.862  0.0703 -0.0363  0.0526
 3264POSM   AM138296  29.186  19.254  13.110  0.1509 -0.1115 -0.3154
 3264POSM   AM238297  28.923  19.243  13.208  0.0847 -0.1144  0.0690
 3264POSM   T1A38298  29.152  19.060  13.590  0.2184 -0.1414 -0.2206
 3264POSM   C2A38299  29.138  18.810  13.987  0.1081 -0.0877 -0.1224
 3264POSM   C3A38300  29.164  18.403  14.154 -0.1581 -0.0081 -0.2016
 3264POSM   C1B38301  28.837  19.406  13.495  0.2624 -0.1260 -0.0769
 3264POSM   D2B38302  28.635  19.712  13.792  0.1392 -0.2142  0.0391
 3264POSM   C3B38303  28.570  19.667  14.246  0.3380  0.2213  0.1688
 3264POSM   C4B38304  28.776  19.496  14.607  0.1542 -0.1721  0.1660
 3265DOPC   NC338305  25.642  32.178  15.946 -0.1904 -0.1286 -0.0136
 3265DOPC   PO438306  25.844  31.877  15.883 -0.1048 -0.0786  0.2781
 3265DOPC   GL138307  25.868  32.057  15.495 -0.2606 -0.5037  0.1278
 3265DOPC   GL238308  25.596  31.983  15.431  0.2750  0.0318 -0.1467
 3265DOPC   C1A38309  25.925  32.349  15.158  0.1724  0.0289  0.0060
 3265DOPC   D2A38310  25.746  32.439  14.750 -0.1663  0.0342  0.1625
 3265DOPC   C3A38311  25.998  32.376  14.368  0.3165 -0.2485  0.3316
 3265DOPC   C4A38312  26.182  32.167  14.044 -0.1193  0.0368  0.2287
 3265DOPC   C1B38313  25.626  32.049  14.982  0.1501  0.3833  0.0473
 3265DOPC   D2B38314  25.645  32.006  14.528 -0.0656 -0.1034  0.1086
 3265DOPC   C3B38315  25.475  31.847  14.159 -0.0540 -0.3134  0.1364
 3265DOPC   C4B38316  25.264  31.941  13.800  0.1287 -0.1369 -0.4083
 3266DOPC   NC338317  33.287  26.477  15.792 -0.1831 -0.2016  0.0164
 3266DOPC   PO438318  33.547  26.210  15.813  0.0160 -0.4084  0.2593
 3266DOPC   GL138319  33.209  26.034  15.676 -0.0829 -0.0808 -0.4750
 3266DOPC   GL238320  33.197  26.117  15.373  0.0266 -0.1329 -0.2556
 3266DOPC   C1A38321  32.776  25.939  15.536 -0.0638 -0.1610 -0.1756
 3266DOPC   D2A38322  32.502  26.207  15.239 -0.0687 -0.1048 -0.2430
 3266DOPC   C3A38323  32.189  26.522  15.338 -0.0189 -0.1927  0.1294
 3266DOPC   C4A38324  31.918  26.752  15.599  0.0055 -0.3441  0.0296
 3266DOPC   C1B38325  32.883  26.067  15.010 -0.2007 -0.0907  0.2488
 3266DOPC   D2B38326  32.893  26.344  14.623 -0.2237 -0.4718  0.0658
 3266DOPC   C3B38327  33.316  26.307  14.406 -0.2346 -0.0944  0.3019
 3266DOPC   C4B38328  33.781  26.357  14.337  0.1665 -0.1429 -0.1428
 3267DOPE   NH338329  31.860  32.849  15.706  0.0359 -0.1615  0.2721
 3267DOPE   PO438330  32.138  33.013  15.806 -0.1043  0.1057  0.3268
 3267DOPE   GL138331  32.295  33.104  15.422  0.2375  0.0974 -0.1895
 3267DOPE   GL238332  32.190  32.910  15.274 -0.0356  0.0581 -0.0350
 3267DOPE   C1A38333  32.736  33.007  15.209 -0.0258  0.0150  0.3261
 3267DOPE   D2A38334  33.130  32.888  15.019  0.0827 -0.1334 -0.1309
 3267DOPE   C3A38335  33.350  33.137  14.753 -0.1164  0.0235 -0.1859
 3267DOPE   C4A38336  33.286  33.510  14.541 -0.0370  0.0382 -0.0514
 3267DOPE   C1B38337  32.271  33.158  14.888  0.1154 -0.0260 -0.1494
 3267DOPE   D2B38338  32.374  32.982  14.451 -0.0410  0.0889 -0.0917
 3267DOPE   C3B38339  32.499  33.083  13.978  0.0557  0.0225 -0.2045
 3267DOPE   C4B38340  32.558  32.930  13.552  0.0057  0.0982  0.0900
 3268DOPE   NH338341  24.764  31.856  15.735  0.1474 -0.1045 -0.0174
 3268DOPE   PO438342  24.759  32.197  15.779 -0.0919  0.3896 -0.3753
 3268DOPE   GL138343  24.702  32.266  15.327  0.2601  0.2596  0.3483
 3268DOPE   GL238344  24.663  32.097  15.087 -0.2287  0.0613  0.1021
 3268DOPE   C1A38345  24.952  32.497  14.997  0.2111  0.0515  0.1040
 3268DOPE   D2A38346  25.217  32.538  14.690 -0.3912 -0.0949 -0.1626
 3268DOPE   C3A38347  25.275  32.420  14.262 -0.2855  0.1085 -0.2010
 3268DOPE   C4A38348  25.646  32.273  14.026  0.3852  0.2466  0.0888
 3268DOPE   C1B38349  24.566  31.907  14.668  0.4347  0.5440 -0.1261
 3268DOPE   D2B38350  24.495  31.796  14.223  0.0934 -0.0572 -0.3761
 3268DOPE   C3B38351  24.278  32.196  14.053  0.1981 -0.0233 -0.0349
 3268DOPE   C4B38352  24.159  32.531  13.761  0.2054  0.1479  0.3378
 3269DOPC   NC338353  32.625  34.645  16.566 -0.0481 -0.1158  0.0216
 3269DOPC   PO438354  32.335  34.659  16.257  0.3837 -0.0702  0.0325
 3269DOPC   GL138355  32.267  34.801  15.856  0.0646  0.2819  0.1665
 3269DOPC   GL238356  32.061  34.962  15.747  0.2238  0.1391 -0.0523
 3269DOPC   C1A38357  32.469  34.825  15.432  0.2698  0.1896  0.4963
 3269DOPC   D2A38358  32.465  35.034  14.998 -0.2050  0.2024 -0.3235
 3269DOPC   C3A38359  32.664  34.965  14.630  0.1400  0.1058  0.0441
 3269DOPC   C4A38360  32.895  35.023  14.223  0.1860  0.0519  0.0960
 3269DOPC   C1B38361  31.996  34.886  15.316 -0.0502 -0.0439  0.1173
 3269DOPC   D2B38362  31.748  35.207  15.029  0.0183  0.2889 -0.2088
 3269DOPC   C3B38363  31.618  35.146  14.594  0.2039  0.1111 -0.2947
 3269DOPC   C4B38364  31.422  35.197  14.181 -0.2216  0.1917  0.2563
 3270DOPC   NC338365  33.177  32.967  15.604  0.0285 -0.0840 -0.0246
 3270DOPC   PO438366  33.406  32.899  15.921  0.1415 -0.0828  0.1995
 3270DOPC   GL138367  33.657  33.071  15.640 -0.5821  0.0175  0.1937
 3270DOPC   GL238368  33.592  33.354  15.666 -0.0982 -0.1156  0.1190
 3270DOPC   C1A38369  33.852  33.254  15.270 -0.0601 -0.2769  0.1671
 3270DOPC   D2A38370  33.607  33.513  14.904  0.0254  0.1253 -0.2081
 3270DOPC   C3A38371  33.723  33.306  14.459 -0.2153  0.1057 -0.1047
 3270DOPC   C4A38372  33.466  33.251  14.055 -0.0769 -0.0254 -0.0262
 3270DOPC   C1B38373  33.354  33.342  15.272 -0.0729  0.0293  0.0298
 3270DOPC   D2B38374  33.000  33.392  15.019  0.2045  0.0506 -0.2241
 3270DOPC   C3B38375  32.750  33.231  14.630  0.0570 -0.0586 -0.2671
 3270DOPC   C4B38376  32.974  33.188  14.242 -0.1003 -0.0466  0.3255
 3271POSM   NC338377  26.678  26.024  16.374  0.4644 -0.1602  0.0249
 3271POSM   PO438378  26.382  26.187  16.172  0.2980  0.1583  0.2084
 3271POSM   AM138379  26.400  26.267  15.863  0.0803 -0.3384  0.3396
 3271POSM   AM238380  26.598  26.224  15.604 -0.1122 -0.1404 -0.0671
 3271POSM   T1A38381  26.379  26.645  15.529  0.1198 -0.0349  0.0985
 3271POSM   C2A38382  25.969  26.870  15.323  0.0638 -0.0987 -0.0962
 3271POSM   C3A38383  25.515  26.990  15.216 -0.0372 -0.1776 -0.0093
 3271POSM   C1B38384  26.802  26.463  15.439 -0.0014  0.0105 -0.2410
 3271POSM   D2B38385  27.107  26.477  15.152  0.3900  0.3471  0.1275
 3271POSM   C3B38386  26.885  26.312  14.735  0.2494  0.1199  0.0637
 3271POSM   C4B38387  26.957  25.938  14.532 -0.1366  0.2704  0.3380
 3272DOPS   CNO38388  30.978  33.115  15.769 -0.1447 -0.0469  0.3445
 3272DOPS   PO438389  31.308  32.982  15.856  0.1483  0.0900  0.1492
 3272DOPS   GL138390  31.425  33.203  15.602  0.4812  0.0052  0.1974
 3272DOPS   GL238391  31.382  33.030  15.335 -0.0430 -0.0793  0.3248
 3272DOPS   C1A38392  31.506  33.588  15.342 -0.3847 -0.2933  0.2152
 3272DOPS   D2A38393  31.624  33.781  14.881  0.2304  0.0940  0.2779
 3272DOPS   C3A38394  31.663  34.254  14.847 -0.1104 -0.1332  0.0970
 3272DOPS   C4A38395  31.881  34.662  14.795  0.0799 -0.0541  0.1838
 3272DOPS   C1B38396  31.329  33.262  14.921  0.1834 -0.0210  0.1185
 3272DOPS   D2B38397  31.250  33.128  14.545  0.4035  0.5778 -0.1552
 3272DOPS   C3B38398  31.574  32.963  14.303 -0.0205 -0.2254  0.1158
 3272DOPS   C4B38399  31.923  32.657  14.246  0.3142  0.0300  0.5603
 3273DOPC   NC338400  27.914  25.927  15.952  0.1229  0.2527 -0.0282
 3273DOPC   PO438401  28.111  25.975  16.291 -0.2082  0.4216  0.2669
 3273DOPC   GL138402  28.391  26.106  16.014  0.0283 -0.0564 -0.0299
 3273DOPC   GL238403  28.371  25.790  15.842 -0.0765  0.0211  0.1713
 3273DOPC   C1A38404  28.424  26.274  15.570  0.0333 -0.2581 -0.3546
 3273DOPC   D2A38405  28.367  26.108  15.131  0.1029  0.1155  0.0222
 3273DOPC   C3A38406  28.309  25.859  14.702 -0.0913 -0.0044 -0.3130
 3273DOPC   C4A38407  28.312  25.688  14.318  0.0583 -0.0343  0.1292
 3273DOPC   C1B38408  28.144  25.517  15.547 -0.0475  0.2040  0.0617
 3273DOPC   D2B38409  27.721  25.549  15.312 -0.0005 -0.1728 -0.3546
 3273DOPC   C3B38410  27.551  25.940  15.575  0.0425  0.4499 -0.0079
 3273DOPC   C4B38411  27.297  26.326  15.633  0.2983  0.0025 -0.0733
 3274DOPE   NH338412  26.034  29.876  16.079 -0.3605  0.0588 -0.1363
 3274DOPE   PO438413  26.171  29.628  15.969  0.3274  0.1384 -0.1709
 3274DOPE   GL138414  26.249  29.370  15.664  0.1187  0.1423  0.2026
 3274DOPE   GL238415  26.535  29.207  15.604  0.1972  0.4278  0.0691
 3274DOPE   C1A38416  26.145  29.279  15.226  0.0439 -0.1950 -0.1996
 3274DOPE   D2A38417  26.250  29.045  14.841 -0.0503  0.0168 -0.1129
 3274DOPE   C3A38418  25.922  28.930  14.566  0.3089 -0.1163  0.0042
 3274DOPE   C4A38419  25.537  28.906  14.328 -0.0511  0.5267  0.2652
 3274DOPE   C1B38420  26.627  29.210  15.131  0.0534 -0.3156 -0.0843
 3274DOPE   D2B38421  26.793  29.383  14.692 -0.0751  0.0175  0.1116
 3274DOPE   C3B38422  27.003  29.073  14.344  0.1631  0.2179 -0.0868
 3274DOPE   C4B38423  27.237  29.128  14.003 -0.0871  0.0708 -0.0026
 3275POSM   NC338424  31.630  32.456  15.930  0.0750  0.2574  0.1144
 3275POSM   PO438425  32.037  32.391  15.931 -0.0189  0.2403 -0.0050
 3275POSM   AM138426  31.964  32.339  15.598 -0.0089 -0.0310  0.3935
 3275POSM   AM238427  31.722  32.293  15.450 -0.0066 -0.2431 -0.0389
 3275POSM   T1A38428  32.045  32.302  15.059  0.2945 -0.1243 -0.0369
 3275POSM   C2A38429  32.103  32.277  14.583 -0.1042 -0.2408 -0.0685
 3275POSM   C3A38430  32.354  32.420  14.191  0.0354  0.1558 -0.1507
 3275POSM   C1B38431  31.618  32.565  15.259  0.1314  0.1448  0.1677
 3275POSM   D2B38432  31.509  32.813  14.881 -0.0570 -0.1315  0.0103
 3275POSM   C3B38433  31.978  32.738  14.759  0.0470 -0.1093 -0.0738
 3275POSM   C4B38434  32.408  32.565  14.900  0.0803  0.0378 -0.1954
 3276DOPS   CNO38435  29.452  33.449  16.184 -0.1829 -0.3647 -0.1981
 3276DOPS   PO438436  29.159  33.643  16.303  0.1022 -0.0331 -0.1786
 3276DOPS   GL138437  28.977  33.808  16.015  0.2015  0.2841 -0.3056
 3276DOPS   GL238438  28.629  33.855  15.879  0.0022  0.0369 -0.0244
 3276DOPS   C1A38439  28.944  34.210  15.886 -0.0769 -0.3285  0.0600
 3276DOPS   D2A38440  29.156  34.514  15.568 -0.0195 -0.0535  0.2229
 3276DOPS   C3A38441  28.943  34.631  15.136 -0.2787  0.0351  0.1972
 3276DOPS   C4A38442  29.046  34.558  14.693  0.2051  0.0768  0.0784
 3276DOPS   C1B38443  28.449  34.265  15.646 -0.2866  0.1188  0.0207
 3276DOPS   D2B38444  28.415  34.583  15.327 -0.0551 -0.2461  0.0542
 3276DOPS   C3B38445  28.484  34.529  14.861  0.1111  0.0908  0.2396
 3276DOPS   C4B38446  28.551  34.695  14.458  0.2380 -0.2246 -0.1381
 3277DOPC   NC338447  33.690  25.564  16.766 -0.0322  0.0439  0.1463
 3277DOPC   PO438448  33.450  25.762  16.470  0.1900  0.2050  0.0234
 3277DOPC   GL138449  33.497  25.810  16.066  0.3788  0.2373  0.0618
 3277DOPC   GL238450  33.232  25.683  16.023 -0.0265 -0.2437  0.0737
 3277DOPC   C1A38451  33.590  25.498  15.709 -0.5086 -0.0721  0.0284
 3277DOPC   D2A38452  33.770  25.156  15.418 -0.0235  0.0219 -0.0403
 3277DOPC   C3A38453  33.996  24.784  15.448  0.0385 -0.0060  0.2852
 3277DOPC   C4A38454  33.910  24.387  15.243 -0.3739 -0.0908 -0.2173
 3277DOPC   C1B38455  33.097  25.558  15.583 -0.1795  0.0840  0.0005
 3277DOPC   D2B38456  33.042  25.639  15.144  0.2167 -0.1624  0.3199
 3277DOPC   C3B38457  32.954  25.317  14.822  0.0099 -0.0796  0.3156
 3277DOPC   C4B38458  32.916  24.984  14.526 -0.5209 -0.1419  0.2547
 3278DOPE   NH338459  29.686  28.239  16.638  0.2001 -0.0134  0.0779
 3278DOPE   PO438460  29.663  27.929  16.570 -0.2164 -0.1600 -0.1398
 3278DOPE   GL138461  29.423  27.796  16.325  0.2144  0.0491  0.0516
 3278DOPE   GL238462  29.394  27.972  16.145  0.5036  0.1637  0.2994
 3278DOPE   C1A38463  29.264  27.485  15.909 -0.1074 -0.0028 -0.0314
 3278DOPE   D2A38464  29.254  27.420  15.400 -0.1477  0.1872 -0.0285
 3278DOPE   C3A38465  29.427  27.215  15.041 -0.0096 -0.1734  0.0963
 3278DOPE   C4A38466  29.414  27.097  14.579 -0.1711  0.0319  0.1486
 3278DOPE   C1B38467  29.110  27.988  15.767 -0.0414 -0.2210 -0.0813
 3278DOPE   D2B38468  29.055  28.297  15.413 -0.1469 -0.2841  0.0792
 3278DOPE   C3B38469  28.609  28.423  15.285 -0.0372  0.2325 -0.2556
 3278DOPE   C4B38470  28.133  28.519  15.204  0.0568  0.1297 -0.2243
 3279DOPE   NH338471  28.963  27.740  16.331  0.1550 -0.0468  0.1255
 3279DOPE   PO438472  28.679  27.626  16.309  0.1603 -0.0687 -0.0678
 3279DOPE   GL138473  28.521  27.626  15.964 -0.0684  0.3364  0.2199
 3279DOPE   GL238474  28.258  27.472  16.055  0.2703 -0.0035  0.3099
 3279DOPE   C1A38475  28.352  27.636  15.539 -0.0046  0.1299  0.1420
 3279DOPE   D2A38476  28.139  27.980  15.255 -0.4092  0.1330 -0.0081
 3279DOPE   C3A38477  28.472  28.104  14.925  0.0962  0.0103 -0.0299
 3279DOPE   C4A38478  28.753  28.268  14.610  0.0391  0.0088 -0.1475
 3279DOPE   C1B38479  28.065  27.859  15.953 -0.1062 -0.1977 -0.0399
 3279DOPE   D2B38480  27.863  28.228  15.695  0.3131  0.3157 -0.3385
 3279DOPE   C3B38481  27.696  28.193  15.278 -0.2793  0.2031  0.2911
 3279DOPE   C4B38482  27.774  28.011  14.846 -0.1622  0.3732  0.2797
 3280DOPC   NC338483  31.760  34.167  15.763 -0.1037  0.2907 -0.1576
 3280DOPC   PO438484  31.543  34.179  16.092 -0.2121  0.1484 -0.2005
 3280DOPC   GL138485  31.286  34.141  15.845  0.0296 -0.1754  0.3154
 3280DOPC   GL238486  31.326  34.443  15.707  0.0897  0.1960  0.0117
 3280DOPC   C1A38487  31.157  33.993  15.404 -0.0039  0.0184 -0.0273
 3280DOPC   D2A38488  31.129  34.067  14.918 -0.0938  0.0877  0.2077
 3280DOPC   C3A38489  30.664  34.110  14.965 -0.0017  0.0845 -0.1636
 3280DOPC   C4A38490  30.287  33.887  14.813 -0.0016  0.3836  0.2921
 3280DOPC   C1B38491  31.606  34.739  15.658  0.3233 -0.1096 -0.0779
 3280DOPC   D2B38492  31.531  35.202  15.524 -0.1627  0.1688  0.0309
 3280DOPC   C3B38493  31.352  35.456  15.185 -0.1926 -0.0715  0.0334
 3280DOPC   C4B38494  31.207  35.867  15.032  0.1027  0.4575  0.0853
 3281POSM   NC338495  32.809  29.460  16.813  0.1475  0.0984  0.0214
 3281POSM   PO438496  32.754  29.508  16.464 -0.0656  0.2463  0.0190
 3281POSM   AM138497  32.707  29.633  16.159 -0.2555  0.1019  0.2035
 3281POSM   AM238498  32.705  29.564  15.896  0.1231  0.1080 -0.1359
 3281POSM   T1A38499  32.793  30.038  15.889  0.1139 -0.3243  0.2395
 3281POSM   C2A38500  32.387  30.242  15.618  0.1586 -0.2660 -0.1639
 3281POSM   C3A38501  32.200  30.614  15.496 -0.1328  0.1128  0.2038
 3281POSM   C1B38502  32.723  29.646  15.573  0.1595  0.0040 -0.1434
 3281POSM   D2B38503  32.848  29.663  15.123 -0.1313 -0.4232  0.1129
 3281POSM   C3B38504  32.731  30.011  14.812  0.0460  0.1031 -0.3050
 3281POSM   C4B38505  32.788  30.318  14.389  0.2183 -0.3764  0.0109
 3282DOPE   NH338506  24.416  32.518  15.557  0.1595 -0.1801  0.5988
 3282DOPE   PO438507  24.282  32.195  15.532  0.0980  0.0029  0.2547
 3282DOPE   GL138508  24.215  32.356  15.160 -0.1864 -0.1665  0.2623
 3282DOPE   GL238509  23.990  32.438  14.983  0.0472 -0.0747  0.0863
 3282DOPE   C1A38510  24.461  32.465  14.788  0.2765 -0.2636 -0.2704
 3282DOPE   D2A38511  24.633  32.320  14.380 -0.1223  0.3380  0.0373
 3282DOPE   C3A38512  24.840  32.618  14.118 -0.0063  0.1456 -0.1072
 3282DOPE   C4A38513  24.801  32.843  13.725 -0.1860 -0.2710  0.1842
 3282DOPE   C1B38514  23.583  32.604  14.847  0.2046 -0.1492  0.4329
 3282DOPE   D2B38515  23.253  32.896  14.718 -0.1070  0.3177 -0.3426
 3282DOPE   C3B38516  22.891  32.717  14.440  0.2400  0.0695  0.3559
 3282DOPE   C4B38517  22.746  32.280  14.490 -0.4584 -0.3187 -0.0136
 3283DOPS   CNO38518  27.455  24.643  16.687  0.1910 -0.4070 -0.2018
 3283DOPS   PO438519  27.771  24.645  16.420 -0.1892 -0.3103 -0.2420
 3283DOPS   GL138520  27.800  24.587  16.039 -0.0400  0.0917  0.2199
 3283DOPS   GL238521  27.974  24.724  15.757  0.0267  0.6622  0.1756
 3283DOPS   C1A38522  27.638  24.305  15.696  0.1437 -0.1756 -0.1958
 3283DOPS   D2A38523  27.746  24.120  15.289  0.2610 -0.0092  0.2655
 3283DOPS   C3A38524  27.781  24.160  14.830 -0.1134 -0.1880  0.1561
 3283DOPS   C4A38525  27.617  24.271  14.386  0.1636  0.2617 -0.4853
 3283DOPS   C1B38526  27.857  25.041  15.485 -0.1405 -0.3481 -0.1114
 3283DOPS   D2B38527  27.487  25.047  15.238  0.2911 -0.0520 -0.0645
 3283DOPS   C3B38528  27.482  25.154  14.793 -0.0838 -0.1428  0.1161
 3283DOPS   C4B38529  27.429  25.205  14.309 -0.0471 -0.0798  0.6301
 3284POSM   NC338530  30.519  31.814  17.051 -0.1882  0.0042  0.1725
 3284POSM   PO438531  30.339  31.761  16.670 -0.1244  0.1514  0.0840
 3284POSM   AM138532  30.328  31.698  16.366 -0.3394  0.2747  0.2583
 3284POSM   AM238533  30.490  31.834  16.199 -0.0108  0.4067  0.5141
 3284POSM   T1A38534  30.200  31.409  16.001 -0.0150 -0.0750 -0.0645
 3284POSM   C2A38535  30.096  30.957  15.959  0.1167 -0.1297  0.1239
 3284POSM   C3A38536  30.127  30.771  15.523 -0.2577 -0.1009 -0.0139
 3284POSM   C1B38537  30.468  31.768  15.856  0.0108  0.0412  0.1889
 3284POSM   D2B38538  30.308  31.669  15.425 -0.1731  0.1810 -0.2725
 3284POSM   C3B38539  30.016  31.964  15.175  0.4200 -0.0927  0.1194
 3284POSM   C4B38540  29.559  32.084  15.099  0.0051 -0.0982  0.1196
 3285POSM   NC338541  28.110  30.976  16.677  0.2904 -0.2723  0.1327
 3285POSM   PO438542  27.793  30.852  16.448 -0.0827 -0.1721  0.0151
 3285POSM   AM138543  27.833  30.858  16.115 -0.1444  0.2048 -0.1334
 3285POSM   AM238544  28.025  30.719  15.919  0.0230  0.0698  0.1344
 3285POSM   T1A38545  27.871  31.182  15.750 -0.2059  0.0019  0.0088
 3285POSM   C2A38546  28.156  31.532  15.612 -0.3773 -0.4461 -0.1103
 3285POSM   C3A38547  28.195  31.934  15.407  0.0354 -0.2248 -0.3223
 3285POSM   C1B38548  28.232  30.756  15.685  0.1203 -0.1408  0.1970
 3285POSM   D2B38549  28.447  31.079  15.401  0.0485 -0.1015 -0.0320
 3285POSM   C3B38550  28.375  31.462  15.187  0.0444 -0.2782  0.0192
 3285POSM   C4B38551  28.654  31.826  15.179  0.1820 -0.0017  0.0965
 3286DOPC   NC338552  25.229  23.902  16.080  0.2340 -0.1642 -0.0132
 3286DOPC   PO438553  25.202  23.678  15.755 -0.2532 -0.0745  0.1176
 3286DOPC   GL138554  25.369  23.701  15.423 -0.5110 -0.0218  0.0101
 3286DOPC   GL238555  25.679  23.711  15.312  0.1266  0.0949 -0.1042
 3286DOPC   C1A38556  25.304  23.840  14.986 -0.0881  0.1853 -0.0781
 3286DOPC   D2A38557  25.610  24.023  14.741 -0.1053 -0.2042  0.0099
 3286DOPC   C3A38558  25.567  23.978  14.290 -0.1276 -0.0844  0.1454
 3286DOPC   C4A38559  25.623  23.694  13.953  0.1478 -0.0365  0.3653
 3286DOPC   C1B38560  25.992  23.701  15.002 -0.1897  0.0508 -0.0410
 3286DOPC   D2B38561  26.442  23.677  14.807  0.1553  0.0410  0.1278
 3286DOPC   C3B38562  26.754  23.648  14.455 -0.2020 -0.4650  0.2829
 3286DOPC   C4B38563  27.094  23.836  14.190 -0.0805  0.0474 -0.0470
 3287DOPS   CNO38564  30.700  27.470  17.020  0.0263 -0.0307 -0.1052
 3287DOPS   PO438565  30.599  27.676  16.739  0.0397  0.0147  0.0887
 3287DOPS   GL138566  30.689  27.697  16.344  0.3373 -0.0060  0.1095
 3287DOPS   GL238567  30.541  27.866  16.140  0.0499 -0.1878 -0.0108
 3287DOPS   C1A38568  30.938  27.567  15.989 -0.0577 -0.0932 -0.0547
 3287DOPS   D2A38569  30.984  27.650  15.543 -0.1135  0.1480  0.0322
 3287DOPS   C3A38570  31.243  27.298  15.371 -0.3935 -0.2179  0.1310
 3287DOPS   C4A38571  31.417  26.941  15.197  0.0363  0.2233 -0.3260
 3287DOPS   C1B38572  30.617  27.965  15.724  0.1050  0.0992 -0.2730
 3287DOPS   D2B38573  30.903  28.164  15.365  0.2538  0.1274  0.1831
 3287DOPS   C3B38574  31.341  28.319  15.179 -0.0453 -0.2063  0.5177
 3287DOPS   C4B38575  31.695  28.646  15.176 -0.1607  0.6144  0.3048
 3288DOPE   NH338576  32.457  33.475  15.695 -0.4064 -0.0810 -0.1581
 3288DOPE   PO438577  32.546  33.700  15.925 -0.3484 -0.1090 -0.0117
 3288DOPE   GL138578  32.608  33.905  15.587 -0.0444  0.2036  0.1977
 3288DOPE   GL238579  32.324  33.962  15.502  0.0475  0.2752 -0.1515
 3288DOPE   C1A38580  32.602  34.341  15.368  0.0449 -0.0199 -0.1125
 3288DOPE   D2A38581  32.829  34.701  15.146 -0.5362  0.1493 -0.0147
 3288DOPE   C3A38582  33.128  34.561  14.776  0.0374 -0.3492 -0.2041
 3288DOPE   C4A38583  33.537  34.583  14.637  0.0711  0.1206  0.0364
 3288DOPE   C1B38584  32.378  34.019  15.079 -0.4910 -0.2409  0.1196
 3288DOPE   D2B38585  32.085  34.072  14.712 -0.2150  0.1276  0.2057
 3288DOPE   C3B38586  31.932  33.760  14.423  0.2755 -0.0470 -0.2264
 3288DOPE   C4B38587  31.563  33.519  14.259 -0.1288 -0.0389 -0.0314
 3289POSM   NC338588  32.414  29.249  16.145 -0.3069  0.1502  0.1895
 3289POSM   PO438589  32.719  29.053  16.050  0.0721  0.0806 -0.2116
 3289POSM   AM138590  32.881  29.068  15.739 -0.1523 -0.1037  0.0171
 3289POSM   AM238591  33.049  29.267  15.582 -0.2560  0.0072  0.1440
 3289POSM   T1A38592  33.004  28.789  15.319 -0.1198  0.0011 -0.0558
 3289POSM   C2A38593  33.009  28.724  14.848  0.0300  0.3907  0.2752
 3289POSM   C3A38594  33.237  28.471  14.463 -0.0267  0.0045  0.0241
 3289POSM   C1B38595  33.122  29.277  15.204 -0.1190 -0.0797  0.0131
 3289POSM   D2B38596  32.965  29.270  14.783 -0.0488  0.1757 -0.0155
 3289POSM   C3B38597  32.561  29.092  14.826  0.0367 -0.2589  0.1918
 3289POSM   C4B38598  32.129  28.826  14.930 -0.2685  0.2835  0.1350
 3290POSM   NC338599   0.078  24.781  16.184 -0.0665  0.1671 -0.4323
 3290POSM   PO438600  -0.161  24.949  15.865  0.1712  0.1384  0.1227
 3290POSM   AM138601  -0.251  24.951  15.535 -0.0756  0.0879  0.1699
 3290POSM   AM238602  -0.142  25.137  15.345  0.1725 -0.0683  0.0493
 3290POSM   T1A38603  -0.291  24.603  15.212 -0.0623  0.1838  0.1522
 3290POSM   C2A38604  -0.222  24.490  14.738  0.3480  0.0564  0.2160
 3290POSM   C3A38605  -0.436  24.450  14.339  0.0842 -0.2577  0.1025
 3290POSM   C1B38606  -0.408  25.108  15.086  0.2409  0.0630 -0.0323
 3290POSM   D2B38607  -0.615  24.768  14.879  0.1274 -0.1949  0.1745
 3290POSM   C3B38608  -1.044  24.792  15.086 -0.0299  0.5590  0.1991
 3290POSM   C4B38609  -1.342  24.841  14.778  0.0759 -0.1591  0.0366
 3291DOPC   NC338610  24.820  31.105  15.935  0.0886  0.1204 -0.2835
 3291DOPC   PO438611  24.861  31.350  15.657 -0.1780 -0.0838 -0.5182
 3291DOPC   GL138612  25.153  31.387  15.353 -0.0037 -0.1179  0.0555
 3291DOPC   GL238613  25.133  31.692  15.435  0.0712  0.0827 -0.0068
 3291DOPC   C1A38614  25.144  31.207  14.977 -0.1488 -0.0534  0.2450
 3291DOPC   D2A38615  24.875  30.877  14.891 -0.2994 -0.1381  0.0442
 3291DOPC   C3A38616  24.511  30.858  14.635  0.1318 -0.1863  0.1253
 3291DOPC   C4A38617  24.108  30.600  14.646  0.2284 -0.1916 -0.0296
 3291DOPC   C1B38618  25.135  32.117  15.300 -0.0155  0.1985  0.3336
 3291DOPC   D2B38619  25.422  32.507  15.293  0.1662 -0.1012  0.3591
 3291DOPC   C3B38620  25.788  32.494  15.594  0.1865  0.1955  0.1456
 3291DOPC   C4B38621  26.272  32.390  15.606  0.4019 -0.2089  0.0918
 3292DOPC   NC338622  25.154  25.826  15.714  0.3386  0.0680 -0.0808
 3292DOPC   PO438623  24.863  25.615  15.560  0.4999  0.0567  0.1110
 3292DOPC   GL138624  24.717  25.585  15.116  0.0622  0.3310 -0.2403
 3292DOPC   GL238625  24.534  25.378  15.126  0.0518 -0.0541  0.0693
 3292DOPC   C1A38626  24.571  25.705  14.655  0.3435  0.0452 -0.1423
 3292DOPC   D2A38627  24.691  25.661  14.203 -0.0045  0.0551 -0.3658
 3292DOPC   C3A38628  24.790  26.135  14.024  0.0392  0.0425  0.3208
 3292DOPC   C4A38629  24.653  26.572  13.848  0.2366  0.2784  0.1490
 3292DOPC   C1B38630  24.567  25.147  14.733  0.0462  0.2020 -0.3529
 3292DOPC   D2B38631  24.737  25.119  14.316 -0.1338  0.0865  0.0764
 3292DOPC   C3B38632  24.680  24.779  13.966 -0.0714  0.1866 -0.5226
 3292DOPC   C4B38633  24.504  24.641  13.586 -0.0929 -0.1477 -0.0316
 3293POSM   NC338634  30.158  24.397  16.490 -0.0880  0.0636 -0.0328
 3293POSM   PO438635  30.052  24.015  16.351  0.2843 -0.2271 -0.1822
 3293POSM   AM138636  29.939  23.913  16.057  0.0204 -0.1562  0.0887
 3293POSM   AM238637  29.781  24.068  15.814 -0.2195 -0.2795 -0.4799
 3293POSM   T1A38638  29.886  23.661  15.623  0.4391  0.0881  0.6145
 3293POSM   C2A38639  29.716  23.306  15.412  0.2225 -0.0982 -0.1435
 3293POSM   C3A38640  29.827  22.940  15.127 -0.0452 -0.2647 -0.0729
 3293POSM   C1B38641  29.796  24.108  15.455 -0.0960  0.0342 -0.2623
 3293POSM   D2B38642  29.622  23.937  15.084 -0.1842  0.1161  0.1959
 3293POSM   C3B38643  29.583  24.111  14.643  0.2768 -0.1987  0.1649
 3293POSM   C4B38644  29.755  24.495  14.410 -0.3387  0.0056 -0.0419
 3294POSM   NC338645  34.418  27.916  15.823  0.0309  0.0873  0.1345
 3294POSM   PO438646  34.055  28.014  15.848  0.2497 -0.1790  0.0888
 3294POSM   AM138647  34.132  28.169  15.557 -0.2368  0.1760 -0.1082
 3294POSM   AM238648  34.173  28.401  15.429  0.0546 -0.0568  0.0475
 3294POSM   T1A38649  34.145  28.106  15.072 -0.0377  0.1517  0.1586
 3294POSM   C2A38650  34.150  27.883  14.655  0.1029  0.2795  0.2449
 3294POSM   C3A38651  33.850  27.717  14.400 -0.1911 -0.0835 -0.0594
 3294POSM   C1B38652  34.434  28.521  15.245 -0.0298  0.4573  0.1682
 3294POSM   D2B38653  34.444  28.767  14.861  0.1408  0.1025  0.0350
 3294POSM   C3B38654  34.105  29.025  14.804 -0.2654  0.0804  0.0667
 3294POSM   C4B38655  33.999  29.072  14.375 -0.0810 -0.1646  0.1304
 3295DOPE   NH338656  34.223  33.869  16.332  0.0896 -0.2392  0.0057
 3295DOPE   PO438657  34.190  33.984  16.048  0.0347 -0.1536 -0.1306
 3295DOPE   GL138658  33.943  34.211  15.758 -0.3052 -0.3326 -0.2482
 3295DOPE   GL238659  34.005  33.978  15.606  0.0655 -0.4812 -0.3843
 3295DOPE   C1A38660  33.654  34.243  15.371 -0.3017 -0.2985 -0.1277
 3295DOPE   D2A38661  33.710  34.074  14.926 -0.1363  0.1258 -0.2249
 3295DOPE   C3A38662  33.826  34.211  14.509  0.0068  0.0238  0.2114
 3295DOPE   C4A38663  33.745  34.611  14.197  0.0692  0.3027  0.0488
 3295DOPE   C1B38664  33.707  33.727  15.381 -0.3356 -0.4237  0.0791
 3295DOPE   D2B38665  33.314  33.839  15.184 -0.0267  0.0648  0.2743
 3295DOPE   C3B38666  33.155  34.235  15.238 -0.2077 -0.2693 -0.0979
 3295DOPE   C4B38667  33.356  34.623  15.244  0.0322 -0.0553 -0.2947
 3296DOPC   NC338668  29.631  33.011  16.108 -0.2240 -0.0321  0.2080
 3296DOPC   PO438669  30.046  33.180  16.237  0.1118  0.1590  0.0730
 3296DOPC   GL138670  29.989  33.155  15.821 -0.1791  0.0597 -0.1265
 3296DOPC   GL238671  30.223  33.358  15.781  0.0361  0.1356  0.1599
 3296DOPC   C1A38672  29.585  33.105  15.608 -0.0871  0.0121  0.1813
 3296DOPC   D2A38673  29.509  33.134  15.148 -0.1762  0.1266 -0.2585
 3296DOPC   C3A38674  29.849  33.246  14.861  0.1576  0.3380 -0.2139
 3296DOPC   C4A38675  30.006  33.549  14.558  0.1503 -0.3235  0.2621
 3296DOPC   C1B38676  30.470  33.195  15.441 -0.3522 -0.1317  0.1264
 3296DOPC   D2B38677  30.808  33.035  15.236  0.1388 -0.0205 -0.2504
 3296DOPC   C3B38678  30.863  33.202  14.836  0.0231  0.0586  0.1965
 3296DOPC   C4B38679  30.785  33.056  14.378 -0.0700 -0.4341  0.0545
 3297DOPE   NH338680  31.365  29.563  16.463 -0.2092 -0.0986  0.2174
 3297DOPE   PO438681  31.136  29.596  16.253 -0.0946 -0.0646  0.3601
 3297DOPE   GL138682  31.009  29.496  15.954  0.3874 -0.1101 -0.0607
 3297DOPE   GL238683  30.756  29.290  15.915  0.0091  0.1944 -0.0062
 3297DOPE   C1A38684  30.913  29.738  15.589 -0.1922 -0.0010 -0.1707
 3297DOPE   D2A38685  30.730  30.043  15.280 -0.0233 -0.2816 -0.0352
 3297DOPE   C3A38686  30.886  29.778  14.960 -0.1210  0.3527 -0.0262
 3297DOPE   C4A38687  30.816  29.472  14.713  0.0387  0.0942  0.1907
 3297DOPE   C1B38688  30.868  29.209  15.477 -0.4848 -0.0479 -0.0717
 3297DOPE   D2B38689  30.952  29.110  15.028  0.0205  0.3784  0.0518
 3297DOPE   C3B38690  31.197  28.733  14.900 -0.3768  0.2112 -0.1792
 3297DOPE   C4B38691  31.498  28.422  14.685  0.0539  0.0524 -0.1768
 3298DOPE   NH338692  34.311  26.130  15.942  0.1385  0.2508 -0.1307
 3298DOPE   PO438693  34.030  26.221  15.869 -0.0797 -0.0224 -0.0665
 3298DOPE   GL138694  33.872  25.986  15.532  0.2026 -0.2955  0.0391
 3298DOPE   GL238695  33.829  26.188  15.388 -0.1253 -0.1423  0.3190
 3298DOPE   C1A38696  33.577  25.843  15.179  0.1189 -0.4228 -0.1043
 3298DOPE   D2A38697  33.392  26.116  14.840  0.0663  0.2218 -0.0077
 3298DOPE   C3A38698  33.055  25.884  14.591  0.1556 -0.0086  0.1172
 3298DOPE   C4A38699  32.713  25.720  14.387 -0.0823  0.1477  0.3100
 3298DOPE   C1B38700  33.553  26.555  15.190 -0.1460 -0.0869 -0.0044
 3298DOPE   D2B38701  33.199  26.587  14.929 -0.2583 -0.0585 -0.0847
 3298DOPE   C3B38702  33.153  26.772  14.497  0.0271 -0.2009  0.0462
 3298DOPE   C4B38703  33.084  27.152  14.160  0.0133  0.1891  0.0595
 3299DOPE   NH338704  30.729  26.099  16.633 -0.2139 -0.0913 -0.5079
 3299DOPE   PO438705  30.713  26.431  16.558  0.2665  0.3282  0.1125
 3299DOPE   GL138706  30.573  26.510  16.214  0.3767  0.0797  0.0233
 3299DOPE   GL238707  30.706  26.827  16.127 -0.2045  0.0707  0.2419
 3299DOPE   C1A38708  30.315  26.401  15.857  0.0512 -0.0088  0.1135
 3299DOPE   D2A38709  30.195  26.184  15.477 -0.2840 -0.2889 -0.0684
 3299DOPE   C3A38710  30.439  25.888  15.282  0.0499 -0.0252 -0.1093
 3299DOPE   C4A38711  30.700  25.648  14.936  0.5962 -0.1191 -0.1869
 3299DOPE   C1B38712  30.446  26.900  15.773  0.1547 -0.0021 -0.0056
 3299DOPE   D2B38713  30.440  27.120  15.341 -0.1329  0.4382  0.0551
 3299DOPE   C3B38714  30.387  26.958  14.916  0.0306 -0.1249 -0.1514
 3299DOPE   C4B38715  30.057  26.610  14.774 -0.1960 -0.1269 -0.3600
 3300DOPS   CNO38716  24.243  27.896  16.203 -0.2274 -0.1447 -0.1901
 3300DOPS   PO438717  24.203  28.284  16.161  0.1357  0.2915 -0.1580
 3300DOPS   GL138718  24.262  28.432  15.793  0.4031  0.2614 -0.2640
 3300DOPS   GL238719  24.386  28.133  15.691  0.0423  0.1253  0.3714
 3300DOPS   C1A38720  24.582  28.638  15.462 -0.0121 -0.2928  0.0252
 3300DOPS   D2A38721  24.620  28.976  15.201 -0.1560 -0.1037  0.1039
 3300DOPS   C3A38722  24.725  29.023  14.721 -0.1128  0.1240  0.1888
 3300DOPS   C4A38723  24.733  28.999  14.269  0.0377 -0.1931 -0.1486
 3300DOPS   C1B38724  24.625  28.189  15.299  0.3267  0.1345  0.1055
 3300DOPS   D2B38725  24.764  28.567  14.998  0.3232 -0.0303 -0.1114
 3300DOPS   C3B38726  24.604  28.515  14.511 -0.3079 -0.0648  0.1370
 3300DOPS   C4B38727  24.389  28.665  14.095 -0.0571  0.2219 -0.0152
 3301DOPE   NH338728  29.367  30.304  16.354  0.0617 -0.0686 -0.1440
 3301DOPE   PO438729  29.562  30.051  16.344  0.2446 -0.2074  0.1142
 3301DOPE   GL138730  29.703  30.232  15.977 -0.1484 -0.1494  0.0166
 3301DOPE   GL238731  29.469  30.167  15.834 -0.0669  0.2900 -0.1185
 3301DOPE   C1A38732  29.805  30.446  15.619  0.2557  0.0735  0.0320
 3301DOPE   D2A38733  29.811  30.524  15.149 -0.1812 -0.3299  0.1760
 3301DOPE   C3A38734  30.064  30.234  14.857  0.0499  0.0976 -0.2673
 3301DOPE   C4A38735  30.440  29.999  14.825 -0.2804 -0.4747 -0.2100
 3301DOPE   C1B38736  29.429  30.286  15.351  0.1054 -0.1189 -0.2986
 3301DOPE   D2B38737  29.582  30.079  14.964  0.0641 -0.0342  0.1879
 3301DOPE   C3B38738  29.638  30.229  14.532  0.2275 -0.1113 -0.1002
 3301DOPE   C4B38739  29.443  30.455  14.127  0.2601 -0.1045  0.0541
 3302DOPE   NH338740  27.325  30.002  16.091 -0.1130 -0.1824 -0.1052
 3302DOPE   PO438741  27.116  30.018  15.834 -0.0651  0.0114 -0.0804
 3302DOPE   GL138742  27.014  29.879  15.456  0.1297 -0.5129  0.1626
 3302DOPE   GL238743  27.273  29.843  15.396  0.1800  0.0957 -0.3183
 3302DOPE   C1A38744  26.963  29.636  15.067  0.0066 -0.0577  0.2251
 3302DOPE   D2A38745  27.219  29.693  14.655  0.3062 -0.0251  0.4336
 3302DOPE   C3A38746  27.003  29.732  14.245 -0.2515 -0.0331 -0.0828
 3302DOPE   C4A38747  26.737  29.954  13.985  0.1814  0.3038  0.2407
 3302DOPE   C1B38748  27.418  29.457  15.140  0.1074  0.4255 -0.2128
 3302DOPE   D2B38749  27.348  29.203  14.781  0.0112 -0.4050  0.2448
 3302DOPE   C3B38750  27.512  29.289  14.397  0.1039  0.0551  0.0975
 3302DOPE   C4B38751  27.638  29.451  13.922  0.3179  0.3010 -0.1917
 3303POSM   NC338752  26.350  23.225  16.071  0.0855 -0.1158 -0.2237
 3303POSM   PO438753  26.242  23.461  15.797 -0.0239  0.2895 -0.1031
 3303POSM   AM138754  26.548  23.559  15.645  0.1055  0.2569  0.1867
 3303POSM   AM238755  26.726  23.754  15.632  0.3294  0.1606  0.0718
 3303POSM   T1A38756  26.712  23.485  15.175 -0.2526 -0.1581  0.0776
 3303POSM   C2A38757  27.074  23.337  14.915  0.0785 -0.1794  0.3111
 3303POSM   C3A38758  27.200  23.335  14.478 -0.1058 -0.0697  0.2982
 3303POSM   C1B38759  26.687  24.094  15.630 -0.2264 -0.1428  0.1562
 3303POSM   D2B38760  26.661  24.426  15.359  0.1378 -0.2920  0.0729
 3303POSM   C3B38761  26.897  24.453  14.959 -0.1620 -0.1681 -0.2816
 3303POSM   C4B38762  26.968  24.277  14.489 -0.0453  0.0481  0.0758
 3304POSM   NC338763  27.747  26.860  16.367 -0.2272 -0.2753 -0.1795
 3304POSM   PO438764  28.070  27.092  16.388  0.2028 -0.0583 -0.0059
 3304POSM   AM138765  28.096  27.077  16.089  0.0468 -0.1395 -0.1152
 3304POSM   AM238766  27.879  27.057  15.882 -0.1225 -0.1686  0.2772
 3304POSM   T1A38767  28.349  27.175  15.644 -0.0418 -0.2258 -0.4222
 3304POSM   C2A38768  28.598  27.162  15.270  0.3878  0.1695  0.1408
 3304POSM   C3A38769  28.949  27.378  15.012 -0.0594  0.0048 -0.0508
 3304POSM   C1B38770  27.739  26.857  15.661 -0.1336  0.2515 -0.3841
 3304POSM   D2B38771  27.563  26.777  15.219  0.1805 -0.3702  0.3030
 3304POSM   C3B38772  27.574  26.323  15.221 -0.2800  0.3872 -0.1840
 3304POSM   C4B38773  27.943  25.996  15.208 -0.1560 -0.0917 -0.0119
 3305DOPC   NC338774  28.245  29.616  16.312  0.1723  0.2652  0.1836
 3305DOPC   PO438775  28.205  29.252  16.251  0.2688 -0.0395 -0.2265
 3305DOPC   GL138776  28.575  29.292  16.038 -0.0705  0.1022 -0.2749
 3305DOPC   GL238777  28.523  29.522  15.788 -0.1546  0.1136  0.0298
 3305DOPC   C1A38778  29.001  29.379  15.839 -0.0014  0.3229 -0.1686
 3305DOPC   D2A38779  29.264  29.277  15.474  0.3320  0.2322 -0.3247
 3305DOPC   C3A38780  29.147  29.242  15.026  0.2036  0.0246 -0.1477
 3305DOPC   C4A38781  28.903  29.035  14.718  0.0597 -0.3861 -0.5869
 3305DOPC   C1B38782  28.825  29.505  15.401  0.1057  0.0384 -0.3055
 3305DOPC   D2B38783  28.725  29.455  14.932 -0.0351  0.0758  0.1675
 3305DOPC   C3B38784  28.905  29.483  14.494  0.1224  0.1165 -0.1628
 3305DOPC   C4B38785  29.212  29.238  14.410 -0.1198 -0.1320  0.1481
 3306DOPC   NC338786  27.211  32.022  16.002 -0.1314  0.0686  0.1518
 3306DOPC   PO438787  27.563  31.814  16.052  0.1072 -0.1304  0.1177
 3306DOPC   GL138788  27.417  31.789  15.594 -0.4125 -0.1834 -0.1193
 3306DOPC   GL238789  27.643  31.637  15.487  0.1234  0.3474 -0.2237
 3306DOPC   C1A38790  27.150  31.504  15.344  0.1180 -0.0688 -0.1337
 3306DOPC   D2A38791  26.986  31.436  14.893  0.2548 -0.1750 -0.3627
 3306DOPC   C3A38792  27.148  31.209  14.557 -0.0634  0.2624 -0.1093
 3306DOPC   C4A38793  27.175  30.868  14.238 -0.0609  0.0349  0.0052
 3306DOPC   C1B38794  27.450  31.818  15.118  0.1984 -0.0487  0.0197
 3306DOPC   D2B38795  27.370  31.819  14.658 -0.0400  0.0951  0.0242
 3306DOPC   C3B38796  27.165  32.165  14.383  0.1281 -0.1380 -0.2713
 3306DOPC   C4B38797  27.152  32.635  14.324  0.0994 -0.1139  0.0906
 3307POSM   NC338798  25.295  32.956  15.515 -0.1424  0.0727 -0.0179
 3307POSM   PO438799  25.505  33.220  15.719 -0.0689 -0.2141  0.0340
 3307POSM   AM138800  25.580  33.354  15.423 -0.0193 -0.3119 -0.1765
 3307POSM   AM238801  25.715  33.551  15.393  0.3138  0.0413 -0.2308
 3307POSM   T1A38802  25.698  33.412  14.934 -0.0717 -0.1626  0.0701
 3307POSM   C2A38803  25.624  33.183  14.499  0.1442 -0.1044 -0.3088
 3307POSM   C3A38804  25.696  32.786  14.291 -0.2263  0.1017 -0.0498
 3307POSM   C1B38805  26.040  33.426  15.317  0.0309  0.1733 -0.2849
 3307POSM   D2B38806  26.391  33.198  15.191 -0.3211 -0.1770 -0.2345
 3307POSM   C3B38807  26.533  32.922  14.867 -0.2033  0.2351  0.3087
 3307POSM   C4B38808  26.372  32.554  14.608  0.0303 -0.1124 -0.1405
 3308DOPC   NC338809  32.099  24.871  16.383 -0.2813  0.0506  0.2633
 3308DOPC   PO438810  31.832  25.190  16.411  0.0649  0.0400  0.1192
 3308DOPC   GL138811  31.737  25.274  16.049  0.0718  0.0984  0.2810
 3308DOPC   GL238812  31.701  25.550  16.013  0.0718  0.2002  0.1348
 3308DOPC   C1A38813  32.086  25.177  15.695 -0.0348  0.4516  0.2668
 3308DOPC   D2A38814  32.372  24.968  15.466  0.1349  0.0079  0.1236
 3308DOPC   C3A38815  32.362  24.848  15.013 -0.1093  0.0591 -0.1138
 3308DOPC   C4A38816  32.437  24.650  14.634 -0.1612 -0.1566 -0.0824
 3308DOPC   C1B38817  31.831  25.547  15.557  0.1168  0.1343  0.0215
 3308DOPC   D2B38818  32.194  25.599  15.246  0.1629  0.1863  0.2123
 3308DOPC   C3B38819  31.998  25.797  14.907  0.1990 -0.0005 -0.0138
 3308DOPC   C4B38820  31.821  25.511  14.632 -0.0286  0.0484 -0.2571
 3309POSM   NC338821  23.491  30.847  15.725 -0.3963  0.3049  0.2806
 3309POSM   PO438822  23.841  30.723  15.816 -0.1473 -0.1655  0.1917
 3309POSM   AM138823  23.905  30.782  15.485 -0.0877 -0.1941 -0.2337
 3309POSM   AM238824  24.176  30.785  15.437 -0.0603 -0.0109  0.1578
 3309POSM   T1A38825  23.771  30.704  15.030 -0.1599  0.2749  0.1941
 3309POSM   C2A38826  23.572  30.518  14.660 -0.2510 -0.3253 -0.0179
 3309POSM   C3A38827  23.219  30.162  14.622  0.0530 -0.1579  0.0534
 3309POSM   C1B38828  24.234  30.925  15.099 -0.2892 -0.0811 -0.0361
 3309POSM   D2B38829  24.282  31.385  14.903 -0.0323 -0.0590 -0.3562
 3309POSM   C3B38830  24.170  31.575  14.493 -0.1907  0.0055  0.2052
 3309POSM   C4B38831  23.938  31.812  14.203 -0.0795  0.2105 -0.0860
 3310DOPC   NC338832  26.137  29.145  16.194 -0.2856  0.0171  0.0958
 3310DOPC   PO438833  26.174  28.867  15.929 -0.1461  0.2678  0.0149
 3310DOPC   GL138834  26.192  28.584  15.662 -0.1699 -0.0932 -0.2106
 3310DOPC   GL238835  25.973  28.354  15.688 -0.0244 -0.1091  0.1660
 3310DOPC   C1A38836  26.201  28.678  15.187 -0.2078  0.1673 -0.1189
 3310DOPC   D2A38837  26.255  28.540  14.725  0.2908  0.0197 -0.1893
 3310DOPC   C3A38838  26.512  28.623  14.400  0.1547 -0.0129  0.0510
 3310DOPC   C4A38839  26.497  28.829  13.966  0.1927 -0.4060  0.0464
 3310DOPC   C1B38840  26.352  28.203  15.457  0.0802  0.1686 -0.0486
 3310DOPC   D2B38841  26.310  28.142  15.009  0.1749  0.0222 -0.0628
 3310DOPC   C3B38842  26.224  27.922  14.630  0.4032  0.0470  0.3410
 3310DOPC   C4B38843  26.132  27.943  14.210 -0.1882 -0.1058 -0.1867
 3311POSM   NC338844  24.755  33.731  15.667 -0.1079 -0.0661 -0.1899
 3311POSM   PO438845  24.464  33.945  15.850 -0.0804 -0.1268  0.0641
 3311POSM   AM138846  24.291  33.930  15.573  0.0396  0.1568 -0.0538
 3311POSM   AM238847  24.357  33.815  15.333  0.1280  0.0706 -0.0373
 3311POSM   T1A38848  23.897  33.980  15.250 -0.3069 -0.0073  0.1462
 3311POSM   C2A38849  23.742  34.278  14.920 -0.0179 -0.3557  0.0659
 3311POSM   C3A38850  23.716  34.401  14.453  0.1880 -0.1060 -0.1848
 3311POSM   C1B38851  24.303  33.928  15.020  0.0466  0.1661  0.2838
 3311POSM   D2B38852  24.198  34.243  14.689  0.0230  0.3308 -0.0702
 3311POSM   C3B38853  24.009  34.040  14.292 -0.0757  0.1258 -0.3638
 3311POSM   C4B38854  24.208  33.903  13.881 -0.2998 -0.0343  0.2397
 3312DOPE   NH338855  26.720  30.394  15.958  0.1708  0.0327  0.1049
 3312DOPE   PO438856  26.607  30.592  15.757 -0.1498 -0.0249  0.0803
 3312DOPE   GL138857  26.859  30.544  15.456  0.2861  0.0327  0.1013
 3312DOPE   GL238858  26.873  30.272  15.483 -0.0381 -0.1161 -0.0540
 3312DOPE   C1A38859  27.132  30.538  15.113  0.2648  0.0739  0.0471
 3312DOPE   D2A38860  27.524  30.577  14.873  0.4375  0.2977 -0.0336
 3312DOPE   C3A38861  27.589  30.942  14.655  0.0377  0.0125 -0.5100
 3312DOPE   C4A38862  27.619  31.369  14.432  0.1367  0.2115 -0.1980
 3312DOPE   C1B38863  26.774  30.100  15.061  0.0544 -0.1316  0.0378
 3312DOPE   D2B38864  26.797  29.882  14.670  0.0536 -0.0356 -0.1744
 3312DOPE   C3B38865  26.632  30.222  14.381  0.2369 -0.5015  0.0211
 3312DOPE   C4B38866  26.440  30.369  13.972 -0.0880  0.1525 -0.2028
 3313DOPC   NC338867  33.546  25.338  16.233 -0.0533  0.3885 -0.1772
 3313DOPC   PO438868  33.439  24.939  16.136 -0.0374  0.1059  0.0044
 3313DOPC   GL138869  33.222  24.851  15.859  0.1674 -0.1543  0.2718
 3313DOPC   GL238870  33.338  25.033  15.670 -0.3159  0.2882  0.0942
 3313DOPC   C1A38871  33.185  24.552  15.533 -0.3994  0.3789 -0.0149
 3313DOPC   D2A38872  32.906  24.282  15.335  0.2420 -0.1122  0.3016
 3313DOPC   C3A38873  33.023  24.051  14.992  0.2590 -0.1297  0.1577
 3313DOPC   C4A38874  32.919  23.739  14.673 -0.2120 -0.0819 -0.4584
 3313DOPC   C1B38875  33.321  25.220  15.238 -0.2984  0.1694  0.2489
 3313DOPC   D2B38876  33.454  25.463  14.865 -0.1414 -0.1229  0.0204
 3313DOPC   C3B38877  33.638  25.226  14.480  0.2856 -0.0266  0.0332
 3313DOPC   C4B38878  33.737  24.772  14.387 -0.2459 -0.4433 -0.3005
 3314DOPC   NC338879  29.935  24.534  15.714 -0.2199 -0.0739 -0.1588
 3314DOPC   PO438880  30.215  24.428  16.013  0.3482  0.2208 -0.1579
 3314DOPC   GL138881  30.374  24.255  15.649  0.0609  0.1644 -0.1410
 3314DOPC   GL238882  30.254  23.966  15.763 -0.1054 -0.1747 -0.0580
 3314DOPC   C1A38883  30.435  24.422  15.301 -0.2761  0.2978  0.0072
 3314DOPC   D2A38884  30.381  24.853  15.157 -0.0461  0.0562 -0.1363
 3314DOPC   C3A38885  30.102  24.912  14.722  0.1209 -0.3210  0.2518
 3314DOPC   C4A38886  29.771  24.991  14.399 -0.1961 -0.0673  0.0844
 3314DOPC   C1B38887  30.278  23.953  15.282  0.2241  0.0401 -0.0711
 3314DOPC   D2B38888  30.309  23.684  14.922 -0.1193 -0.2695 -0.3260
 3314DOPC   C3B38889  30.259  23.765  14.471  0.3884 -0.0256  0.1785
 3314DOPC   C4B38890  29.946  23.669  14.064  0.1495  0.4101 -0.1201
 3315DOPC   NC338891  26.848  28.431  16.286  0.2388  0.1713  0.2406
 3315DOPC   PO438892  27.173  28.269  16.143 -0.0245 -0.0166 -0.2552
 3315DOPC   GL138893  27.087  28.391  15.858  0.3181  0.1345 -0.2068
 3315DOPC   GL238894  26.833  28.309  15.688 -0.3017  0.0072 -0.2251
 3315DOPC   C1A38895  27.293  28.507  15.408 -0.0050  0.0100 -0.2951
 3315DOPC   D2A38896  27.497  28.607  14.991 -0.1991 -0.0493  0.1314
 3315DOPC   C3A38897  27.546  28.362  14.594 -0.1310 -0.0331  0.5149
 3315DOPC   C4A38898  27.820  28.204  14.289 -0.0649  0.0210 -0.0316
 3315DOPC   C1B38899  26.734  27.886  15.560  0.2108 -0.1778  0.1736
 3315DOPC   D2B38900  26.453  27.745  15.262  0.0431  0.1723  0.0077
 3315DOPC   C3B38901  26.448  27.557  14.854 -0.2135  0.4858 -0.0018
 3315DOPC   C4B38902  26.129  27.443  14.527  0.1083  0.0049  0.0042
 3316DOPC   NC338903  32.809  31.107  16.042  0.0674 -0.0537  0.2300
 3316DOPC   PO438904  32.903  31.487  15.920  0.1988 -0.0051 -0.0643
 3316DOPC   GL138905  33.037  31.662  15.644 -0.3526 -0.1933 -0.1623
 3316DOPC   GL238906  32.882  31.569  15.405  0.0083 -0.0064  0.0221
 3316DOPC   C1A38907  33.065  32.103  15.444  0.0628 -0.1967  0.1898
 3316DOPC   D2A38908  33.161  32.213  14.997 -0.2143 -0.0380  0.8052
 3316DOPC   C3A38909  33.406  32.518  14.792  0.0296  0.2857  0.2385
 3316DOPC   C4A38910  33.551  32.770  14.433 -0.0375 -0.1621 -0.1323
 3316DOPC   C1B38911  33.057  31.267  15.122  0.1145  0.1832 -0.1006
 3316DOPC   D2B38912  33.165  31.208  14.649  0.0760  0.2448 -0.2324
 3316DOPC   C3B38913  32.869  31.385  14.331 -0.0267  0.0754 -0.0462
 3316DOPC   C4B38914  32.567  31.352  13.951  0.1605 -0.1690  0.2745
 3317DOPS   CNO38915  29.175  28.027  16.816  0.2937  0.0832  0.0677
 3317DOPS   PO438916  29.183  28.238  16.489  0.0700 -0.1449 -0.2273
 3317DOPS   GL138917  29.233  28.417  16.107 -0.1465 -0.2058  0.0720
 3317DOPS   GL238918  29.509  28.597  16.155 -0.3034  0.0607 -0.1853
 3317DOPS   C1A38919  29.441  28.382  15.704 -0.1447 -0.0784  0.1095
 3317DOPS   D2A38920  29.599  28.411  15.285 -0.0729  0.0815  0.1775
 3317DOPS   C3A38921  29.393  28.295  14.865  0.3391 -0.2351 -0.0833
 3317DOPS   C4A38922  29.573  28.000  14.554 -0.1870 -0.0544 -0.1684
 3317DOPS   C1B38923  29.347  28.851  15.833 -0.1235 -0.3848 -0.1516
 3317DOPS   D2B38924  29.168  28.804  15.345  0.2643 -0.0561  0.2147
 3317DOPS   C3B38925  29.004  28.601  14.959  0.2070  0.0050  0.2377
 3317DOPS   C4B38926  29.046  28.652  14.471  0.2241 -0.2997 -0.0615
 3318DOPC   NC338927  29.987  27.670  17.107  0.1543  0.1847  0.2696
 3318DOPC   PO438928  29.866  27.489  16.746  0.3595 -0.2365  0.1581
 3318DOPC   GL138929  29.934  27.473  16.343  0.0409  0.1199 -0.1127
 3318DOPC   GL238930  29.767  27.602  16.061  0.2049 -0.0172 -0.0517
 3318DOPC   C1A38931  30.361  27.334  16.064  0.0839  0.2294  0.1717
 3318DOPC   D2A38932  30.564  27.409  15.693  0.1538 -0.2321 -0.1187
 3318DOPC   C3A38933  30.532  27.655  15.319 -0.0878 -0.4107 -0.0343
 3318DOPC   C4A38934  30.912  27.816  15.036  0.1800 -0.0521  0.1942
 3318DOPC   C1B38935  29.598  27.814  15.718  0.4403 -0.0040  0.0722
 3318DOPC   D2B38936  29.396  27.919  15.291  0.0959 -0.2465  0.0774
 3318DOPC   C3B38937  29.134  27.886  14.890 -0.0248 -0.1081  0.3121
 3318DOPC   C4B38938  28.745  27.792  14.618 -0.2409 -0.0617  0.2556
 3319DOPS   CNO38939  30.789  31.119  16.573 -0.0839  0.0933 -0.0740
 3319DOPS   PO438940  30.952  31.165  16.219  0.0348  0.1314  0.2721
 3319DOPS   GL138941  30.712  31.436  16.032  0.3180  0.2438 -0.3741
 3319DOPS   GL238942  30.676  31.213  15.823 -0.0112 -0.0580  0.2818
 3319DOPS   C1A38943  30.861  31.550  15.593  0.0396 -0.2439 -0.0060
 3319DOPS   D2A38944  30.921  31.748  15.170  0.3730  0.0601 -0.1440
 3319DOPS   C3A38945  31.216  31.490  14.886 -0.3158  0.0122 -0.1278
 3319DOPS   C4A38946  31.611  31.625  14.572  0.5317  0.0036 -0.1033
 3319DOPS   C1B38947  30.418  31.172  15.480  0.0673 -0.2212  0.1744
 3319DOPS   D2B38948  30.019  31.243  15.256  0.3039 -0.0393 -0.2165
 3319DOPS   C3B38949  29.663  31.577  15.195 -0.0530  0.0184  0.0223
 3319DOPS   C4B38950  29.232  31.733  15.043 -0.0878  0.1607  0.1227
 3320POSM   NC338951  34.644  23.970  15.819  0.0903  0.0606 -0.0298
 3320POSM   PO438952  34.654  24.198  16.184  0.2436 -0.2214  0.0484
 3320POSM   AM138953  34.982  24.064  16.154  0.1865  0.0351  0.3696
 3320POSM   AM238954  35.216  23.996  16.325 -0.0470 -0.0417 -0.0514
 3320POSM   T1A38955  35.350  24.029  15.764  0.2573 -0.1226  0.1227
 3320POSM   C2A38956  35.545  23.894  15.360  0.0465 -0.1367 -0.0755
 3320POSM   C3A38957  35.668  23.880  14.908 -0.0288 -0.0613  0.1324
 3320POSM   C1B38958  35.189  23.680  16.127 -0.1224 -0.2248 -0.0722
 3320POSM   D2B38959  35.283  23.263  15.946  0.2472  0.1753 -0.2211
 3320POSM   C3B38960  35.269  23.465  15.524  0.1507  0.2438 -0.1283
 3320POSM   C4B38961  35.328  23.446  15.027  0.1726 -0.1491  0.0547
 3321DOPS   CNO38962  27.236  27.512  16.533  0.1622 -0.3336 -0.1253
 3321DOPS   PO438963  27.145  27.642  16.201  0.4603 -0.2746  0.2060
 3321DOPS   GL138964  27.308  27.875  15.900 -0.0063 -0.1560  0.5030
 3321DOPS   GL238965  27.566  27.934  16.034 -0.1423 -0.0072 -0.0392
 3321DOPS   C1A38966  27.212  28.031  15.453  0.2720  0.1135  0.0798
 3321DOPS   D2A38967  27.303  28.132  14.990  0.0822 -0.1088  0.4396
 3321DOPS   C3A38968  27.108  28.422  14.770  0.2591  0.2689  0.1300
 3321DOPS   C4A38969  27.308  28.732  14.450 -0.1689  0.0504  0.3321
 3321DOPS   C1B38970  27.626  27.787  15.610 -0.3734 -0.1034  0.1782
 3321DOPS   D2B38971  27.631  27.704  15.214 -0.0138  0.0559 -0.0361
 3321DOPS   C3B38972  27.385  27.601  14.878  0.1288  0.1256  0.0693
 3321DOPS   C4B38973  27.622  27.618  14.462  0.0905  0.4096 -0.0724
 3322DOPS   CNO38974  24.016  26.713  15.317 -0.1453 -0.0352  0.1755
 3322DOPS   PO438975  24.110  26.369  15.529 -0.3924 -0.1516 -0.1714
 3322DOPS   GL138976  24.199  26.093  15.241  0.0318 -0.0962  0.0109
 3322DOPS   GL238977  24.494  25.968  15.365  0.5248  0.3714  0.0702
 3322DOPS   C1A38978  24.092  26.027  14.791 -0.2749 -0.1962  0.0424
 3322DOPS   D2A38979  23.783  26.077  14.406 -0.2600 -0.1563 -0.0853
 3322DOPS   C3A38980  23.752  25.675  14.171 -0.1939 -0.3282 -0.0456
 3322DOPS   C4A38981  23.720  25.721  13.721 -0.0220 -0.0704 -0.2600
 3322DOPS   C1B38982  24.586  26.138  14.902  0.0015  0.0309 -0.0888
 3322DOPS   D2B38983  24.591  26.266  14.465  0.5392  0.0208 -0.2833
 3322DOPS   C3B38984  24.268  25.929  14.298  0.1285 -0.1359 -0.0826
 3322DOPS   C4B38985  24.247  25.744  13.894 -0.0491 -0.0412  0.0123
 3323DOPE   NH338986  25.935  28.043  16.104  0.0603 -0.0216  0.5392
 3323DOPE   PO438987  26.225  27.996  16.226  0.0021  0.0174  0.1994
 3323DOPE   GL138988  26.318  27.878  15.883 -0.2150  0.0632  0.0306
 3323DOPE   GL238989  26.080  27.889  15.672 -0.1818  0.0400 -0.1077
 3323DOPE   C1A38990  26.640  27.489  15.767 -0.4468 -0.5456 -0.0518
 3323DOPE   D2A38991  26.509  27.228  15.354 -0.0632  0.0152 -0.0923
 3323DOPE   C3A38992  26.109  27.308  15.144  0.0399 -0.0197 -0.3880
 3323DOPE   C4A38993  25.930  27.796  15.094  0.3689  0.0378 -0.2227
 3323DOPE   C1B38994  25.729  27.584  15.548  0.0586 -0.0276  0.2539
 3323DOPE   D2B38995  25.521  27.475  15.170  0.0607 -0.0564  0.0105
 3323DOPE   C3B38996  25.743  27.469  14.793  0.1995 -0.6153 -0.0029
 3323DOPE   C4B38997  25.691  27.591  14.360  0.0932 -0.2740  0.3806
 3324DOPE   NH338998  32.097  23.639  16.290  0.1219  0.1352  0.2083
 3324DOPE   PO438999  32.197  23.947  16.332  0.2910  0.0008 -0.1197
 3324DOPE   GL139000  32.037  24.040  15.970  0.2463  0.2716 -0.1944
 3324DOPE   GL239001  31.993  24.384  15.974  0.2928 -0.2669 -0.2605
 3324DOPE   C1A39002  32.049  24.081  15.533 -0.1142 -0.1686 -0.3083
 3324DOPE   D2A39003  32.078  24.122  15.094  0.0428  0.0267 -0.3171
 3324DOPE   C3A39004  31.816  23.832  14.786 -0.1318  0.0700  0.0698
 3324DOPE   C4A39005  31.673  23.381  14.867 -0.2448 -0.2550 -0.1711
 3324DOPE   C1B39006  32.334  24.636  15.873 -0.1022 -0.1457 -0.0490
 3324DOPE   D2B39007  32.754  24.818  15.715 -0.4216  0.0093  0.0884
 3324DOPE   C3B39008  32.916  24.929  15.324 -0.1685  0.1852  0.0963
 3324DOPE   C4B39009  32.813  24.722  14.958  0.0259  0.2516  0.2170
 3325DOPE   NH339010  31.280  33.535  16.079  0.0378  0.0304 -0.1411
 3325DOPE   PO439011  31.059  33.760  15.988 -0.3906 -0.2314  0.2936
 3325DOPE   GL139012  31.154  33.636  15.582  0.0257 -0.0187 -0.1979
 3325DOPE   GL239013  30.865  33.613  15.544 -0.2597  0.0710 -0.1403
 3325DOPE   C1A39014  31.040  33.601  15.092 -0.0915  0.1812 -0.0583
 3325DOPE   D2A39015  31.117  33.602  14.665  0.1074  0.0701  0.1776
 3325DOPE   C3A39016  31.263  33.928  14.403  0.1701  0.1678 -0.0758
 3325DOPE   C4A39017  31.606  34.207  14.372 -0.0320  0.0392  0.0988
 3325DOPE   C1B39018  30.571  33.664  15.172 -0.1091  0.3020 -0.3589
 3325DOPE   D2B39019  30.276  33.375  14.985 -0.0496  0.2368 -0.0113
 3325DOPE   C3B39020  30.345  32.916  14.810  0.1600 -0.0297  0.0087
 3325DOPE   C4B39021  30.476  32.616  14.526 -0.3340  0.0122 -0.2471
 3326DOPC   NC339022  27.942  30.331  16.245 -0.2286  0.0300 -0.1480
 3326DOPC   PO439023  27.583  30.407  16.224 -0.1905  0.1220 -0.3457
 3326DOPC   GL139024  27.625  30.537  15.827 -0.2583 -0.0046  0.0183
 3326DOPC   GL239025  27.556  30.780  15.725  0.2698 -0.0483 -0.1240
 3326DOPC   C1A39026  27.516  30.384  15.407 -0.2196 -0.2266  0.0939
 3326DOPC   D2A39027  27.470  30.083  15.039 -0.0134 -0.1292 -0.0536
 3326DOPC   C3A39028  27.698  29.751  14.880  0.2358  0.0136 -0.1582
 3326DOPC   C4A39029  27.818  29.319  14.763 -0.1426 -0.0707 -0.0106
 3326DOPC   C1B39030  27.760  30.759  15.297 -0.0214  0.1449  0.2337
 3326DOPC   D2B39031  28.007  30.717  14.914 -0.0445  0.1415 -0.1770
 3326DOPC   C3B39032  28.132  30.538  14.503  0.2870 -0.4247  0.2337
 3326DOPC   C4B39033  28.151  30.325  14.137 -0.0484  0.2013  0.3410
 3327DOPC   NC339034   0.164  26.982  15.514 -0.0950 -0.1070  0.3593
 3327DOPC   PO439035  -0.148  27.062  15.756  0.3711 -0.0517  0.1174
 3327DOPC   GL139036  -0.323  27.182  15.389 -0.0432 -0.4622  0.0562
 3327DOPC   GL239037  -0.337  26.933  15.256 -0.1928  0.0969  0.3526
 3327DOPC   C1A39038  -0.621  27.363  15.020 -0.0759 -0.2587 -0.1251
 3327DOPC   D2A39039  -0.944  27.673  14.991  0.0745 -0.1046 -0.0866
 3327DOPC   C3A39040  -1.273  27.721  14.694  0.3817  0.1660 -0.0723
 3327DOPC   C4A39041  -1.544  27.590  14.355  0.0152  0.0004  0.0834
 3327DOPC   C1B39042   0.077  26.882  15.026  0.2480 -0.3603  0.1514
 3327DOPC   D2B39043   0.545  26.995  15.048  0.1626 -0.1726  0.0015
 3327DOPC   C3B39044   0.777  27.217  14.743 -0.1228  0.2427  0.0452
 3327DOPC   C4B39045   0.923  27.408  14.331  0.1402 -0.0939  0.1180
 3328POSM   NC339046  26.889  29.101  16.437  0.0672 -0.0747  0.2002
 3328POSM   PO439047  26.620  28.889  16.311  0.1864  0.4033 -0.0683
 3328POSM   AM139048  26.740  28.869  15.999 -0.0528  0.0754 -0.0606
 3328POSM   AM239049  26.596  28.786  15.763 -0.0194  0.0128 -0.1667
 3328POSM   T1A39050  27.128  28.878  15.670  0.0647  0.0163  0.0669
 3328POSM   C2A39051  27.481  29.122  15.528 -0.0349  0.0468 -0.1981
 3328POSM   C3A39052  27.809  29.366  15.464 -0.0643  0.1166 -0.0268
 3328POSM   C1B39053  26.630  28.716  15.443  0.0851  0.1149 -0.0285
 3328POSM   D2B39054  26.795  28.406  15.171 -0.2266 -0.0356  0.0159
 3328POSM   C3B39055  26.797  27.988  15.068  0.1604  0.1094 -0.1111
 3328POSM   C4B39056  26.723  27.947  14.631 -0.0454 -0.4280  0.2223
 3329POSM   NC339057  25.100  33.463  15.968 -0.1424  0.1232  0.1825
 3329POSM   PO439058  24.909  33.206  15.740 -0.1308 -0.0653 -0.2043
 3329POSM   AM139059  24.886  33.268  15.406  0.0152  0.1219 -0.3647
 3329POSM   AM239060  24.762  33.448  15.210 -0.2393  0.2668  0.1805
 3329POSM   T1A39061  25.092  33.046  15.009 -0.0532 -0.2647  0.0136
 3329POSM   C2A39062  25.519  32.868  14.933  0.1868  0.3837  0.2201
 3329POSM   C3A39063  25.956  32.934  14.747 -0.1840 -0.1863  0.1270
 3329POSM   C1B39064  24.690  33.445  14.888  0.2010 -0.1570 -0.1894
 3329POSM   D2B39065  24.714  33.410  14.449 -0.0634 -0.0599 -0.3381
 3329POSM   C3B39066  24.952  33.231  14.025 -0.1640 -0.0897 -0.2041
 3329POSM   C4B39067  24.985  33.302  13.543 -0.1585 -0.1120 -0.0274
 3330DOPE   NH339068  25.864  25.593  15.510 -0.0008  0.1390 -0.2873
 3330DOPE   PO439069  25.698  25.854  15.529  0.0692  0.0441 -0.0123
 3330DOPE   GL139070  25.745  26.142  15.188 -0.6303  0.2364  0.0850
 3330DOPE   GL239071  25.629  25.866  15.005  0.0762 -0.0206  0.1764
 3330DOPE   C1A39072  25.612  26.559  15.030  0.0815  0.1908  0.1670
 3330DOPE   D2A39073  25.818  26.945  14.831 -0.0671 -0.1517  0.2291
 3330DOPE   C3A39074  26.207  26.909  14.530 -0.0217  0.0067 -0.1008
 3330DOPE   C4A39075  26.589  26.665  14.469 -0.1646  0.3138  0.0813
 3330DOPE   C1B39076  25.930  26.090  14.724  0.0540 -0.2691  0.2950
 3330DOPE   D2B39077  26.182  26.369  14.460 -0.1374 -0.0994  0.2678
 3330DOPE   C3B39078  26.297  26.582  14.062 -0.1608 -0.0961 -0.1138
 3330DOPE   C4B39079  26.693  26.763  13.986  0.1932 -0.3949  0.2314
 3331DOPE   NH339080  24.334  26.661  15.867 -0.1906 -0.6284  0.1600
 3331DOPE   PO439081  24.617  26.669  15.828  0.0915 -0.0641  0.3743
 3331DOPE   GL139082  24.835  26.805  15.481 -0.3173 -0.1138 -0.0072
 3331DOPE   GL239083  25.052  27.047  15.385 -0.0379 -0.0801  0.2563
 3331DOPE   C1A39084  25.116  26.701  15.080  0.0310 -0.0156 -0.1320
 3331DOPE   D2A39085  25.328  26.865  14.724 -0.1776  0.0172 -0.0142
 3331DOPE   C3A39086  25.236  27.298  14.766  0.2529  0.2014 -0.2986
 3331DOPE   C4A39087  25.318  27.731  14.705  0.0767  0.0193  0.0995
 3331DOPE   C1B39088  24.803  27.210  15.044  0.1948 -0.1293  0.1215
 3331DOPE   D2B39089  24.397  27.321  14.933 -0.1209 -0.0490  0.1322
 3331DOPE   C3B39090  24.122  27.001  14.766 -0.2308  0.3976 -0.0199
 3331DOPE   C4B39091  24.085  26.538  14.845 -0.0012  0.0779 -0.0767
 3332DOPE   NH339092  27.863  34.492  16.258  0.0470  0.0684  0.0470
 3332DOPE   PO439093  27.915  34.781  16.314  0.2024 -0.0057  0.0966
 3332DOPE   GL139094  28.084  35.009  16.147 -0.3250 -0.1216  0.0691
 3332DOPE   GL239095  27.986  35.270  16.156  0.2115  0.0037  0.2076
 3332DOPE   C1A39096  28.284  34.979  15.697 -0.1142 -0.0401  0.3926
 3332DOPE   D2A39097  28.119  34.987  15.254  0.0156 -0.0716 -0.1453
 3332DOPE   C3A39098  28.126  35.325  14.962 -0.1210 -0.1002  0.0507
 3332DOPE   C4A39099  28.330  35.680  14.743 -0.0890  0.1317 -0.1416
 3332DOPE   C1B39100  27.841  35.233  15.733 -0.2080 -0.0928 -0.2193
 3332DOPE   D2B39101  27.549  35.393  15.324  0.0076 -0.2816 -0.2768
 3332DOPE   C3B39102  27.633  35.635  14.851 -0.0120  0.1730 -0.1430
 3332DOPE   C4B39103  27.637  36.020  14.542 -0.0628 -0.0394 -0.0443
 3333DOPC   NC339104  23.893  23.843  15.679 -0.1569 -0.0298  0.1281
 3333DOPC   PO439105  23.723  24.197  15.718 -0.2400 -0.2501 -0.0199
 3333DOPC   GL139106  23.841  24.226  15.312  0.4200 -0.0197 -0.1740
 3333DOPC   GL239107  24.148  24.134  15.307  0.1990  0.0216  0.1834
 3333DOPC   C1A39108  23.708  24.586  15.065  0.1626  0.2182  0.2440
 3333DOPC   D2A39109  23.674  24.758  14.633 -0.2556 -0.2562  0.3352
 3333DOPC   C3A39110  23.386  24.758  14.241 -0.0323  0.0680  0.1931
 3333DOPC   C4A39111  22.954  24.866  14.092 -0.1737  0.0266  0.0770
 3333DOPC   C1B39112  24.057  23.954  14.855  0.2238 -0.1728  0.0206
 3333DOPC   D2B39113  23.947  23.723  14.502 -0.2211  0.1963  0.0232
 3333DOPC   C3B39114  23.643  23.938  14.280 -0.0718 -0.0346  0.1835
 3333DOPC   C4B39115  23.222  23.945  14.389 -0.2980 -0.1354 -0.0035
 3334DOPC   NC339116  23.767  28.484  15.944  0.3041 -0.2538  0.1136
 3334DOPC   PO439117  23.941  28.815  15.852 -0.0473 -0.1597 -0.1747
 3334DOPC   GL139118  23.844  28.950  15.509  0.0838 -0.1456  0.1128
 3334DOPC   GL239119  23.839  29.255  15.450  0.0277 -0.2658  0.0648
 3334DOPC   C1A39120  24.050  28.977  15.098 -0.2187 -0.1830 -0.0844
 3334DOPC   D2A39121  24.242  28.868  14.665 -0.0738 -0.0583  0.0928
 3334DOPC   C3A39122  24.163  29.143  14.306 -0.0507 -0.2269  0.2521
 3334DOPC   C4A39123  23.999  29.395  13.957  0.1768 -0.0350  0.2446
 3334DOPC   C1B39124  24.281  29.389  15.242  0.3835 -0.0648  0.1641
 3334DOPC   D2B39125  24.706  29.591  15.111  0.0076 -0.0222  0.0356
 3334DOPC   C3B39126  24.856  29.507  14.733 -0.1770 -0.0495  0.0182
 3334DOPC   C4B39127  25.165  29.287  14.459 -0.1968 -0.0878  0.3088
 3335POSM   NC339128  29.009  24.989  16.354 -0.1209  0.1271 -0.0167
 3335POSM   PO439129  28.652  25.143  16.266 -0.1284 -0.0978 -0.4390
 3335POSM   AM139130  28.695  25.070  15.939 -0.1403 -0.1022 -0.1917
 3335POSM   AM239131  28.923  25.079  15.803 -0.0160 -0.0410  0.0320
 3335POSM   T1A39132  28.509  25.094  15.466  0.0365 -0.1443  0.1945
 3335POSM   C2A39133  28.174  25.106  15.084  0.0304 -0.0820 -0.1351
 3335POSM   C3A39134  28.086  25.294  14.647 -0.3553 -0.2098 -0.0716
 3335POSM   C1B39135  29.035  25.119  15.502 -0.2861  0.0553 -0.0365
 3335POSM   D2B39136  28.886  25.291  15.056 -0.0341 -0.1280  0.0900
 3335POSM   C3B39137  28.626  25.026  14.836 -0.1164 -0.2358  0.0499
 3335POSM   C4B39138  28.285  24.856  14.648  0.0461  0.1245  0.1139
 3336DOPC   NC339139  24.827  34.319  16.015  0.1093 -0.0385  0.4893
 3336DOPC   PO439140  25.187  34.402  15.805 -0.0965  0.1389 -0.0095
 3336DOPC   GL139141  25.407  34.292  15.422 -0.1317  0.0120  0.1638
 3336DOPC   GL239142  25.564  34.008  15.344 -0.3208 -0.1115  0.1058
 3336DOPC   C1A39143  25.221  34.305  14.937  0.1230 -0.0900 -0.4045
 3336DOPC   D2A39144  25.180  34.298  14.451  0.0914 -0.0558 -0.2519
 3336DOPC   C3A39145  25.071  34.702  14.550  0.1974  0.3543  0.0035
 3336DOPC   C4A39146  24.769  34.853  14.888  0.2148  0.1486 -0.0742
 3336DOPC   C1B39147  25.543  33.879  14.916 -0.1574 -0.1251  0.1550
 3336DOPC   D2B39148  25.599  33.719  14.534 -0.1736  0.1731 -0.3509
 3336DOPC   C3B39149  25.697  33.621  14.078  0.0105 -0.2555  0.1618
 3336DOPC   C4B39150  25.673  33.385  13.662 -0.5892 -0.0492 -0.0855
 3337DOPE   NH339151  30.743  25.112  16.125 -0.1093 -0.0116  0.0734
 3337DOPE   PO439152  31.008  25.256  16.176  0.3066 -0.3196  0.0556
 3337DOPE   GL139153  31.250  25.327  15.856 -0.0370 -0.4229 -0.0016
 3337DOPE   GL239154  31.201  25.609  15.854  0.0146 -0.2774 -0.0604
 3337DOPE   C1A39155  31.587  25.158  15.624  0.0691  0.0174  0.1300
 3337DOPE   D2A39156  31.847  25.039  15.270 -0.0925  0.0297  0.0006
 3337DOPE   C3A39157  31.847  24.657  15.022  0.2497 -0.0084  0.1503
 3337DOPE   C4A39158  31.692  24.351  14.808 -0.0616 -0.2757  0.0966
 3337DOPE   C1B39159  31.370  25.541  15.423  0.0243  0.2964  0.3599
 3337DOPE   D2B39160  31.645  25.490  15.069  0.0213 -0.0493  0.1517
 3337DOPE   C3B39161  31.625  25.047  14.838  0.2113 -0.1286 -0.2660
 3337DOPE   C4B39162  31.624  24.979  14.387 -0.0939 -0.0743  0.1703
 3338DOPC   NC339163  25.758  30.634  16.198 -0.2214 -0.2282  0.3582
 3338DOPC   PO439164  25.772  30.268  16.081 -0.1463 -0.0385 -0.1708
 3338DOPC   GL139165  25.722  30.118  15.696 -0.0892  0.3061  0.0819
 3338DOPC   GL239166  25.854  29.889  15.614 -0.1468  0.0031 -0.1147
 3338DOPC   C1A39167  25.696  30.092  15.230  0.0483  0.1225 -0.2711
 3338DOPC   D2A39168  25.812  30.143  14.798  0.0608  0.3616 -0.0077
 3338DOPC   C3A39169  25.713  30.467  14.523  0.0568  0.2465  0.0946
 3338DOPC   C4A39170  25.829  30.508  14.017 -0.0657 -0.3480  0.2949
 3338DOPC   C1B39171  26.175  30.058  15.278 -0.0574 -0.2340 -0.0254
 3338DOPC   D2B39172  26.342  30.509  15.224 -0.3687 -0.2890 -0.0475
 3338DOPC   C3B39173  26.581  30.490  14.843  0.0631 -0.1027  0.1388
 3338DOPC   C4B39174  27.014  30.682  14.691  0.1544  0.0611  0.1579
 3339DOPE   NH339175  23.927  31.201  15.691 -0.1118 -0.1786 -0.4627
 3339DOPE   PO439176  23.654  31.392  15.727  0.0057  0.1085 -0.1189
 3339DOPE   GL139177  23.743  31.621  15.418  0.2378  0.1317 -0.5518
 3339DOPE   GL239178  24.014  31.622  15.269  0.2303  0.2796  0.3105
 3339DOPE   C1A39179  23.517  31.609  15.076 -0.2924 -0.2142 -0.0363
 3339DOPE   D2A39180  23.662  31.669  14.661 -0.0655  0.3244 -0.0641
 3339DOPE   C3A39181  23.561  31.982  14.383 -0.2964  0.0464 -0.0683
 3339DOPE   C4A39182  23.622  32.292  14.069  0.0797 -0.1686 -0.2567
 3339DOPE   C1B39183  24.067  31.894  14.887 -0.1445 -0.2045 -0.0467
 3339DOPE   D2B39184  24.145  32.136  14.522 -0.0089  0.1371 -0.0493
 3339DOPE   C3B39185  23.899  32.462  14.461 -0.2659  0.0827  0.0754
 3339DOPE   C4B39186  23.635  32.843  14.389 -0.0282 -0.1962  0.0405
 3340DOPE   NH339187  32.928  23.512  16.380  0.1634 -0.0431 -0.1531
 3340DOPE   PO439188  32.763  23.722  16.169 -0.1773  0.1256 -0.0503
 3340DOPE   GL139189  32.821  23.784  15.723 -0.0316  0.1431  0.1811
 3340DOPE   GL239190  32.618  23.937  15.443  0.1667 -0.0296 -0.0416
 3340DOPE   C1A39191  33.123  23.640  15.412 -0.0764  0.2251  0.0193
 3340DOPE   D2A39192  33.389  23.716  15.020  0.1409  0.0705 -0.0777
 3340DOPE   C3A39193  33.451  23.962  14.636  0.4448  0.0633  0.1980
 3340DOPE   C4A39194  33.705  23.807  14.262 -0.2324  0.0612 -0.0373
 3340DOPE   C1B39195  32.549  23.853  14.978 -0.1100  0.1014  0.0565
 3340DOPE   D2B39196  32.448  23.724  14.472 -0.4731  0.1997  0.1383
 3340DOPE   C3B39197  32.783  23.654  14.145  0.1726  0.0793 -0.0299
 3340DOPE   C4B39198  33.080  23.749  13.790 -0.2361  0.0550  0.3105
 3341DOPC   NC339199  26.112  25.928  15.865 -0.2536 -0.0933  0.3502
 3341DOPC   PO439200  26.227  25.934  15.481  0.2139 -0.1423  0.1731
 3341DOPC   GL139201  26.418  25.962  15.134  0.1722  0.3711 -0.0659
 3341DOPC   GL239202  26.276  26.239  15.046 -0.0421  0.2046 -0.0207
 3341DOPC   C1A39203  26.447  26.006  14.664  0.3031 -0.3436 -0.1610
 3341DOPC   D2A39204  26.659  26.240  14.263  0.2145  0.1182 -0.0670
 3341DOPC   C3A39205  26.950  26.019  14.063 -0.3132  0.2253 -0.1222
 3341DOPC   C4A39206  27.102  25.620  14.151  0.1950 -0.1817  0.0420
 3341DOPC   C1B39207  26.567  26.629  15.017  0.0887 -0.1341  0.0184
 3341DOPC   D2B39208  26.512  27.056  14.914  0.1912 -0.1093 -0.1860
 3341DOPC   C3B39209  26.653  27.164  14.455  0.0638  0.1129 -0.1229
 3341DOPC   C4B39210  26.885  27.291  14.018  0.2011  0.0860 -0.0174
 3342DOPC   NC339211  27.697  27.457  16.157  0.0658 -0.0813  0.1019
 3342DOPC   PO439212  27.386  27.204  16.176  0.0252 -0.0082  0.3570
 3342DOPC   GL139213  27.370  27.384  15.824 -0.2443 -0.1708  0.2266
 3342DOPC   GL239214  27.112  27.538  15.674  0.0291 -0.1934 -0.1654
 3342DOPC   C1A39215  27.708  27.316  15.494  0.1081 -0.1657  0.0696
 3342DOPC   D2A39216  28.077  27.087  15.241 -0.0365  0.0215  0.0367
 3342DOPC   C3A39217  28.252  27.097  14.812  0.0662  0.2221  0.2471
 3342DOPC   C4A39218  28.259  26.978  14.400  0.1240 -0.0168 -0.1356
 3342DOPC   C1B39219  26.905  27.548  15.258 -0.0611  0.1604  0.1398
 3342DOPC   D2B39220  26.913  27.419  14.800 -0.1352 -0.2812  0.2405
 3342DOPC   C3B39221  27.248  27.277  14.506 -0.1216  0.1687  0.2104
 3342DOPC   C4B39222  27.227  26.834  14.279 -0.0719  0.0465  0.1199
 3343DOPC   NC339223  33.762  32.532  15.675  0.0395 -0.1809 -0.0597
 3343DOPC   PO439224  33.939  32.313  15.950  0.3147  0.2777  0.0191
 3343DOPC   GL139225  34.134  32.211  15.581 -0.0858 -0.3844  0.0823
 3343DOPC   GL239226  34.112  32.373  15.305  0.0005 -0.0432 -0.1576
 3343DOPC   C1A39227  33.998  31.860  15.278 -0.0398  0.0805  0.0889
 3343DOPC   D2A39228  33.889  31.554  14.946  0.4999  0.2435 -0.2735
 3343DOPC   C3A39229  33.616  31.488  14.579  0.0152 -0.1627  0.2294
 3343DOPC   C4A39230  33.399  31.349  14.203 -0.1960 -0.2096 -0.1957
 3343DOPC   C1B39231  33.986  32.483  14.862  0.1083  0.0240 -0.1284
 3343DOPC   D2B39232  33.961  32.542  14.396 -0.2151 -0.0807 -0.0798
 3343DOPC   C3B39233  33.710  32.347  14.062 -0.1932 -0.1604 -0.2636
 3343DOPC   C4B39234  33.533  32.128  13.705 -0.1295  0.0530 -0.1525
 3344DOPC   NC339235  22.852  25.476  15.236 -0.2478 -0.2036 -0.2162
 3344DOPC   PO439236  23.125  25.211  15.300  0.2904  0.4220 -0.1137
 3344DOPC   GL139237  23.192  24.916  15.164 -0.0296  0.0062 -0.0399
 3344DOPC   GL239238  23.154  24.654  15.303  0.1494 -0.0311 -0.2028
 3344DOPC   C1A39239  23.116  24.681  14.751 -0.1951  0.1445  0.1155
 3344DOPC   D2A39240  23.023  24.435  14.330 -0.2090 -0.1032  0.1041
 3344DOPC   C3A39241  23.287  24.231  14.012 -0.3408  0.0967  0.0952
 3344DOPC   C4A39242  23.518  24.444  13.650 -0.3581  0.1284  0.0122
 3344DOPC   C1B39243  22.754  24.424  15.070 -0.2163 -0.1789 -0.2640
 3344DOPC   D2B39244  22.563  24.040  15.135  0.3729 -0.1026  0.2435
 3344DOPC   C3B39245  22.212  23.988  14.819  0.1262  0.1472  0.1229
 3344DOPC   C4B39246  22.151  24.116  14.350  0.1371  0.0923 -0.2071
 3345DOPC   NC339247  28.474  26.240  16.480  0.0108 -0.0269 -0.3306
 3345DOPC   PO439248  28.755  25.945  16.560  0.0417  0.0895 -0.1349
 3345DOPC   GL139249  28.784  26.067  16.124 -0.1179 -0.0230  0.1962
 3345DOPC   GL239250  29.031  25.968  16.122  0.1179  0.2962  0.3098
 3345DOPC   C1A39251  29.123  26.400  15.917 -0.0420  0.3776 -0.0966
 3345DOPC   D2A39252  29.397  26.688  15.825  0.1751 -0.4019  0.1937
 3345DOPC   C3A39253  29.492  26.628  15.361 -0.2558  0.0901  0.3469
 3345DOPC   C4A39254  29.571  26.747  14.929  0.2896  0.1170  0.6838
 3345DOPC   C1B39255  28.930  25.978  15.699  0.0803 -0.0436 -0.2998
 3345DOPC   D2B39256  28.939  26.300  15.374  0.2240  0.0942 -0.2576
 3345DOPC   C3B39257  29.260  26.276  14.997  0.2241  0.1648  0.0086
 3345DOPC   C4B39258  29.550  26.276  14.613  0.1459  0.0508 -0.3066
 3346DOPE   NH339259  33.113  29.853  16.356  0.4512 -0.0400 -0.2420
 3346DOPE   PO439260  33.397  29.973  16.297 -0.1085  0.2512 -0.0043
 3346DOPE   GL139261  33.405  29.990  15.891 -0.3182 -0.1492 -0.0241
 3346DOPE   GL239262  33.320  29.709  15.800  0.0006 -0.2450 -0.1025
 3346DOPE   C1A39263  33.376  30.350  15.591 -0.1304  0.1938  0.0171
 3346DOPE   D2A39264  33.297  30.366  15.130  0.1693  0.0642 -0.0264
 3346DOPE   C3A39265  33.090  30.738  14.931 -0.5747 -0.4899 -0.2284
 3346DOPE   C4A39266  32.898  30.807  14.536 -0.0667 -0.0633  0.1702
 3346DOPE   C1B39267  33.143  29.968  15.452  0.4414  0.3389 -0.1088
 3346DOPE   D2B39268  32.797  30.204  15.353  0.0052 -0.2472  0.0023
 3346DOPE   C3B39269  32.373  30.137  15.103 -0.2107 -0.0007 -0.4110
 3346DOPE   C4B39270  32.334  30.234  14.610  0.0720  0.1488 -0.1317
 3347DOPE   NH339271  31.805  29.387  16.453 -0.0849  0.0314  0.2993
 3347DOPE   PO439272  32.057  29.543  16.316  0.2107  0.1229 -0.3387
 3347DOPE   GL139273  32.146  29.661  15.967 -0.0274 -0.0413 -0.3677
 3347DOPE   GL239274  32.295  29.878  15.889  0.1181  0.1937  0.1362
 3347DOPE   C1A39275  32.335  29.380  15.682  0.0212  0.1028  0.2423
 3347DOPE   D2A39276  32.146  29.210  15.313  0.1277  0.3417 -0.1280
 3347DOPE   C3A39277  32.413  29.494  15.042  0.0934  0.0851 -0.0023
 3347DOPE   C4A39278  32.587  29.592  14.601  0.2060 -0.0378  0.3984
 3347DOPE   C1B39279  32.298  29.806  15.431  0.0731  0.2619 -0.0670
 3347DOPE   D2B39280  31.950  29.676  15.127 -0.1475 -0.2016  0.0419
 3347DOPE   C3B39281  32.001  29.824  14.699 -0.0703  0.3139  0.2948
 3347DOPE   C4B39282  31.951  30.082  14.346  0.1641 -0.0439  0.0169
 3348POSM   NC339283  27.938  32.185  16.213  0.3223 -0.1903 -0.2110
 3348POSM   PO439284  28.285  32.140  16.446 -0.0719  0.1022 -0.0480
 3348POSM   AM139285  28.511  31.887  16.395  0.3098 -0.1773 -0.1617
 3348POSM   AM239286  28.802  31.920  16.264 -0.1069 -0.2101  0.1372
 3348POSM   T1A39287  28.537  31.542  16.104 -0.2582 -0.1291 -0.2866
 3348POSM   C2A39288  28.906  31.317  15.960 -0.0612 -0.0534 -0.0594
 3348POSM   C3A39289  29.323  31.135  15.942 -0.0629 -0.4621  0.0096
 3348POSM   C1B39290  29.047  31.785  15.999  0.1328  0.0965  0.0346
 3348POSM   D2B39291  29.298  31.647  15.645 -0.5187 -0.1743 -0.2166
 3348POSM   C3B39292  29.308  31.254  15.417 -0.3213  0.1730  0.1859
 3348POSM   C4B39293  29.308  30.811  15.325 -0.1780 -0.0019 -0.0437
 3349DOPC   NC339294  31.172  23.484  16.496  0.1792 -0.0139  0.0167
 3349DOPC   PO439295  31.535  23.626  16.377  0.0901  0.1247  0.0909
 3349DOPC   GL139296  31.287  23.652  16.074 -0.5114  0.1646  0.1272
 3349DOPC   GL239297  31.180  23.411  15.996  0.2491  0.0373 -0.0122
 3349DOPC   C1A39298  31.279  23.667  15.592 -0.0310 -0.1854 -0.1689
 3349DOPC   D2A39299  31.061  23.485  15.219 -0.0559  0.1173 -0.1965
 3349DOPC   C3A39300  31.142  23.761  14.801 -0.2808  0.2049 -0.0926
 3349DOPC   C4A39301  31.421  23.648  14.443  0.0120 -0.1057 -0.1397
 3349DOPC   C1B39302  31.035  22.973  15.962 -0.2183 -0.0946  0.2102
 3349DOPC   D2B39303  30.826  22.592  15.824 -0.2818 -0.3881 -0.1059
 3349DOPC   C3B39304  30.859  22.708  15.389  0.1309 -0.1989 -0.2379
 3349DOPC   C4B39305  31.091  22.511  15.019 -0.1913 -0.2588 -0.1085
 3350POSM   NC339306  27.154  25.220  15.791 -0.1360 -0.1256 -0.2155
 3350POSM   PO439307  26.848  25.334  15.989  0.0221 -0.1320 -0.0336
 3350POSM   AM139308  26.650  25.223  15.701 -0.0805  0.3144  0.1386
 3350POSM   AM239309  26.455  25.055  15.579  0.1775  0.1838 -0.0524
 3350POSM   T1A39310  26.713  25.319  15.263 -0.0200  0.2408 -0.1631
 3350POSM   C2A39311  27.116  25.399  15.092 -0.1655  0.0198 -0.0099
 3350POSM   C3A39312  27.246  25.593  14.690 -0.4779  0.1802 -0.1904
 3350POSM   C1B39313  26.365  24.945  15.263 -0.1889  0.0218  0.3289
 3350POSM   D2B39314  26.445  24.712  14.888 -0.1348  0.2689 -0.2175
 3350POSM   C3B39315  26.720  24.841  14.523 -0.0622 -0.1579  0.1020
 3350POSM   C4B39316  27.047  24.847  14.172 -0.2453  0.0832 -0.0500
 3351POSM   NC339317  24.502  33.474  16.018 -0.0160  0.0125 -0.0517
 3351POSM   PO439318  24.365  33.391  15.675  0.2957  0.1222  0.1836
 3351POSM   AM139319  24.184  33.397  15.389  0.0527 -0.1318  0.1183
 3351POSM   AM239320  24.172  33.385  15.053 -0.1240 -0.0609 -0.0391
 3351POSM   T1A39321  23.746  33.533  15.166  0.2526  0.2107 -0.1877
 3351POSM   C2A39322  23.443  33.855  14.956  0.0044 -0.0865 -0.0710
 3351POSM   C3A39323  23.339  34.047  14.608 -0.0936 -0.1214  0.1881
 3351POSM   C1B39324  24.243  33.398  14.681  0.0028  0.1762  0.1186
 3351POSM   D2B39325  24.266  33.495  14.238 -0.1439  0.1002 -0.0560
 3351POSM   C3B39326  24.093  33.157  14.053  0.0820  0.1949  0.2316
 3351POSM   C4B39327  23.878  33.047  13.655  0.3711 -0.1967  0.2562
 3352DOPS   CNO39328  28.378  29.908  16.692  0.0156  0.4138 -0.0199
 3352DOPS   PO439329  28.356  30.090  16.361 -0.0431 -0.4895  0.0181
 3352DOPS   GL139330  28.491  29.979  16.030  0.2751  0.0907 -0.1207
 3352DOPS   GL239331  28.430  30.203  15.858  0.2258 -0.1401 -0.0928
 3352DOPS   C1A39332  28.868  29.886  15.790  0.1731 -0.1922  0.3491
 3352DOPS   D2A39333  29.185  29.905  15.466  0.1132 -0.1375  0.0565
 3352DOPS   C3A39334  29.097  29.775  15.001 -0.1098 -0.0760 -0.0356
 3352DOPS   C4A39335  29.329  29.832  14.557  0.2801 -0.1056 -0.1524
 3352DOPS   C1B39336  28.435  30.078  15.442  0.3219  0.0298  0.0642
 3352DOPS   D2B39337  28.650  29.951  15.075  0.0034  0.1435  0.0170
 3352DOPS   C3B39338  28.858  30.092  14.735  0.1939 -0.1116 -0.3227
 3352DOPS   C4B39339  29.055  30.296  14.362  0.1291 -0.3944  0.6490
 3353DOPC   NC339340  26.338  32.014  16.063  0.1715 -0.1782 -0.0750
 3353DOPC   PO439341  26.749  32.019  16.120  0.1892  0.1795  0.0891
 3353DOPC   GL139342  26.764  32.130  15.761 -0.1019 -0.3148 -0.1925
 3353DOPC   GL239343  26.941  32.306  15.636  0.0661 -0.5149 -0.1650
 3353DOPC   C1A39344  26.616  32.065  15.320  0.0519  0.0013 -0.2058
 3353DOPC   D2A39345  26.472  32.307  15.011  0.3258 -0.1091 -0.0683
 3353DOPC   C3A39346  26.256  32.704  15.192 -0.4218 -0.0278 -0.2170
 3353DOPC   C4A39347  25.848  32.877  15.281  0.1943  0.1705 -0.0549
 3353DOPC   C1B39348  27.069  32.005  15.366 -0.0851  0.2968  0.5020
 3353DOPC   D2B39349  26.946  31.973  14.927 -0.0173  0.0410 -0.0326
 3353DOPC   C3B39350  26.665  32.119  14.567  0.3891  0.0302  0.0672
 3353DOPC   C4B39351  26.698  32.424  14.224 -0.0538  0.1684 -0.3135
 3354DOPE   NH339352  27.366  30.860  16.202 -0.0314  0.2393  0.1763
 3354DOPE   PO439353  27.064  30.895  16.107 -0.0359 -0.0527 -0.0726
 3354DOPE   GL139354  27.121  31.159  15.907  0.0471 -0.2462 -0.1243
 3354DOPE   GL239355  27.373  31.268  15.839  0.3595  0.1272 -0.1523
 3354DOPE   C1A39356  27.124  30.890  15.460  0.2778 -0.0932 -0.0799
 3354DOPE   D2A39357  27.213  30.991  15.055 -0.0547  0.0307 -0.0064
 3354DOPE   C3A39358  27.448  31.357  14.909 -0.4387 -0.1716  0.2382
 3354DOPE   C4A39359  27.856  31.634  14.993  0.0648  0.0731  0.2118
 3354DOPE   C1B39360  27.526  31.180  15.366  0.2989  0.1589 -0.0437
 3354DOPE   D2B39361  27.961  31.162  15.196 -0.0101  0.2194  0.0768
 3354DOPE   C3B39362  28.002  31.208  14.735 -0.0082  0.1978 -0.3130
 3354DOPE   C4B39363  27.925  31.012  14.301  0.1335 -0.0306  0.1639
 3355DOPE   NH339364  28.231  24.634  16.193 -0.3655 -0.0663  0.0704
 3355DOPE   PO439365  28.543  24.661  16.078  0.1121 -0.0134  0.2254
 3355DOPE   GL139366  28.499  24.719  15.738  0.3199 -0.1524 -0.0334
 3355DOPE   GL239367  28.759  24.626  15.646  0.0281 -0.2723 -0.2393
 3355DOPE   C1A39368  28.322  24.660  15.307 -0.0899  0.0609 -0.3073
 3355DOPE   D2A39369  27.915  24.552  15.241  0.0102 -0.3012  0.0158
 3355DOPE   C3A39370  27.751  24.708  14.825 -0.0764 -0.0292 -0.0475
 3355DOPE   C4A39371  27.846  24.700  14.394  0.1000  0.1778  0.2205
 3355DOPE   C1B39372  28.809  24.716  15.200  0.1750 -0.0186  0.0191
 3355DOPE   D2B39373  28.680  24.529  14.797  0.0272  0.1304 -0.0959
 3355DOPE   C3B39374  28.787  24.695  14.361  0.1277  0.0969  0.0734
 3355DOPE   C4B39375  28.947  24.899  13.944  0.0718  0.0630  0.2238
 3356DOPC   NC339376  30.373  26.744  16.695 -0.1493 -0.1196 -0.1351
 3356DOPC   PO439377  30.139  26.421  16.577  0.0424  0.0772  0.1177
 3356DOPC   GL139378  30.027  26.566  16.175 -0.2451 -0.2549  0.2030
 3356DOPC   GL239379  30.145  26.805  16.232  0.2226  0.0813 -0.2688
 3356DOPC   C1A39380  29.915  26.680  15.711 -0.1079  0.1019  0.1405
 3356DOPC   D2A39381  29.964  26.607  15.256 -0.0749 -0.0410  0.0768
 3356DOPC   C3A39382  29.811  26.185  15.109  0.0493  0.1462  0.2021
 3356DOPC   C4A39383  29.626  25.825  14.876  0.0498 -0.1866  0.2115
 3356DOPC   C1B39384  29.835  27.065  16.009 -0.1838 -0.3509  0.0196
 3356DOPC   D2B39385  29.591  27.144  15.643 -0.0488  0.0303 -0.0824
 3356DOPC   C3B39386  29.718  27.459  15.378  0.1240 -0.1990  0.0276
 3356DOPC   C4B39387  29.677  27.616  14.957  0.3819  0.0211 -0.1613
 3357POSM   NC339388  30.801  31.587  16.508  0.1995  0.1393  0.0010
 3357POSM   PO439389  31.058  31.768  16.267 -0.0392  0.0418  0.0279
 3357POSM   AM139390  31.076  31.906  15.962 -0.2067  0.1082  0.0039
 3357POSM   AM239391  31.326  31.946  15.781 -0.1889 -0.0504 -0.1996
 3357POSM   T1A39392  30.940  32.157  15.551  0.1915  0.1841 -0.1313
 3357POSM   C2A39393  30.921  32.251  15.077 -0.2036  0.2451 -0.0309
 3357POSM   C3A39394  30.747  32.225  14.618 -0.5961 -0.2827  0.3116
 3357POSM   C1B39395  31.320  31.949  15.430  0.0658 -0.0030  0.0553
 3357POSM   D2B39396  31.434  31.943  14.983 -0.2078 -0.0908 -0.0352
 3357POSM   C3B39397  31.101  31.919  14.710 -0.1272 -0.2050 -0.1286
 3357POSM   C4B39398  30.741  31.657  14.681  0.3400 -0.3649 -0.1909
 3358POSM   NC339399  25.582  33.670  15.875 -0.0468 -0.1098 -0.1002
 3358POSM   PO439400  25.261  33.919  15.894  0.2137 -0.4125 -0.4803
 3358POSM   AM139401  25.223  33.807  15.611 -0.0541  0.1253  0.0888
 3358POSM   AM239402  25.213  33.584  15.475  0.2546 -0.1783  0.1885
 3358POSM   T1A39403  25.033  33.939  15.158  0.0257  0.1050 -0.0225
 3358POSM   C2A39404  24.918  33.962  14.732 -0.1639 -0.0871  0.0673
 3358POSM   C3A39405  24.501  33.832  14.577  0.1123 -0.2237 -0.0325
 3358POSM   C1B39406  25.210  33.523  15.151  0.2394 -0.1559  0.1392
 3358POSM   D2B39407  25.208  33.458  14.676  0.3409  0.0270  0.0957
 3358POSM   C3B39408  25.228  33.552  14.238  0.2297 -0.2318 -0.1690
 3358POSM   C4B39409  25.291  33.650  13.806  0.3080  0.1654  0.0057
 3359DOPC   NC339410  32.048  33.471  16.000  0.1301 -0.0436  0.2183
 3359DOPC   PO439411  31.710  33.250  15.998 -0.0982  0.0243  0.4660
 3359DOPC   GL139412  31.875  33.367  15.594 -0.4493 -0.0728  0.2525
 3359DOPC   GL239413  32.016  33.610  15.467 -0.0362  0.1267  0.2131
 3359DOPC   C1A39414  31.841  33.225  15.125 -0.1828 -0.0282 -0.2103
 3359DOPC   D2A39415  31.869  33.281  14.649 -0.0157  0.0192  0.4139
 3359DOPC   C3A39416  32.000  33.182  14.233  0.0134  0.2388  0.0578
 3359DOPC   C4A39417  32.010  33.013  13.770 -0.1173  0.0106 -0.0673
 3359DOPC   C1B39418  31.783  33.994  15.296 -0.1712  0.2198  0.1877
 3359DOPC   D2B39419  31.629  34.374  15.316  0.1659 -0.0172  0.0007
 3359DOPC   C3B39420  31.203  34.443  15.208 -0.0557 -0.2640  0.0401
 3359DOPC   C4B39421  30.823  34.636  14.987  0.3214  0.2604 -0.2569
 3360DOPS   CNO39422  27.852  29.444  15.976 -0.1877  0.1642 -0.0902
 3360DOPS   PO439423  27.819  29.780  16.148 -0.0425 -0.0887 -0.0016
 3360DOPS   GL139424  27.763  30.091  15.924  0.5140 -0.1203  0.0668
 3360DOPS   GL239425  27.649  29.922  15.665  0.2257  0.2453  0.5283
 3360DOPS   C1A39426  27.985  30.312  15.564  0.2109 -0.1112 -0.1711
 3360DOPS   D2A39427  28.313  30.561  15.294 -0.1963 -0.1004 -0.1065
 3360DOPS   C3A39428  28.429  30.375  14.848 -0.0589 -0.1830 -0.1348
 3360DOPS   C4A39429  28.254  30.051  14.570 -0.1716 -0.0683  0.0763
 3360DOPS   C1B39430  27.919  29.864  15.315 -0.0293  0.1595  0.0736
 3360DOPS   D2B39431  27.983  30.221  14.994  0.0527 -0.2457  0.3047
 3360DOPS   C3B39432  27.753  30.187  14.548 -0.1812  0.2151 -0.0493
 3360DOPS   C4B39433  27.461  29.940  14.314 -0.0815 -0.1753  0.1357
 3361DOPE   NH339434  33.439  28.119  15.807  0.1637 -0.0929  0.0904
 3361DOPE   PO439435  33.604  27.979  15.554  0.3359 -0.2015 -0.2715
 3361DOPE   GL139436  33.609  28.139  15.165  0.1215 -0.1593 -0.0577
 3361DOPE   GL239437  33.295  28.073  15.125 -0.0755  0.2644  0.0506
 3361DOPE   C1A39438  33.673  28.119  14.712 -0.1115  0.1937 -0.0883
 3361DOPE   D2A39439  33.517  28.005  14.214 -0.3993 -0.0393 -0.0317
 3361DOPE   C3A39440  33.257  28.316  13.908  0.1877 -0.3251 -0.2603
 3361DOPE   C4A39441  32.864  28.479  13.730  0.0736 -0.1159 -0.2770
 3361DOPE   C1B39442  33.086  28.076  14.742 -0.2778  0.1070 -0.0465
 3361DOPE   D2B39443  32.954  28.061  14.324  0.0211  0.0581  0.3117
 3361DOPE   C3B39444  32.744  28.492  14.186 -0.1717 -0.0549  0.1030
 3361DOPE   C4B39445  32.291  28.667  14.073 -0.0282 -0.2149 -0.0808
 3362DOPS   CNO39446  28.269  32.604  16.211 -0.0099  0.4286 -0.2517
 3362DOPS   PO439447  28.651  32.470  16.290  0.1577 -0.1067  0.0028
 3362DOPS   GL139448  28.621  32.314  15.984 -0.5541  0.2026  0.3102
 3362DOPS   GL239449  28.414  32.136  15.928  0.1245 -0.2362 -0.0019
 3362DOPS   C1A39450  28.593  32.383  15.539  0.2076  0.0342  0.0310
 3362DOPS   D2A39451  28.691  32.567  15.165 -0.2345 -0.1908 -0.3171
 3362DOPS   C3A39452  28.370  32.698  14.796 -0.1244  0.0355  0.0505
 3362DOPS   C4A39453  28.024  32.829  14.558 -0.0717 -0.2216  0.2121
 3362DOPS   C1B39454  28.581  31.824  15.712  0.2987 -0.0086  0.0853
 3362DOPS   D2B39455  28.826  31.494  15.519  0.0603  0.0096 -0.0841
 3362DOPS   C3B39456  28.844  31.299  15.080  0.2757 -0.2149  0.1891
 3362DOPS   C4B39457  28.614  31.411  14.747  0.1308  0.1919  0.3911
 3363DOPS   CNO39458  25.030  24.931  15.894  0.1452 -0.3344  0.1712
 3363DOPS   PO439459  25.002  24.656  15.595  0.1265  0.0760  0.1161
 3363DOPS   GL139460  25.203  24.697  15.341 -0.0740 -0.1076  0.0547
 3363DOPS   GL239461  25.477  24.873  15.300 -0.2338 -0.1983 -0.2428
 3363DOPS   C1A39462  25.077  24.299  15.069  0.0274  0.0436 -0.0983
 3363DOPS   D2A39463  24.991  24.248  14.613 -0.0318 -0.2894  0.5945
 3363DOPS   C3A39464  24.839  23.759  14.705 -0.3260 -0.0838 -0.1571
 3363DOPS   C4A39465  24.437  23.586  14.667 -0.3817 -0.2604 -0.1508
 3363DOPS   C1B39466  25.459  24.639  14.932 -0.1519 -0.0332  0.2207
 3363DOPS   D2B39467  25.464  24.446  14.489 -0.1859 -0.0913 -0.1972
 3363DOPS   C3B39468  25.876  24.337  14.280  0.1069 -0.0077  0.1254
 3363DOPS   C4B39469  26.036  23.968  14.076  0.0253 -0.0404  0.0830
 3364POSM   NC339470  26.023  30.556  15.645  0.2866 -0.0716  0.0600
 3364POSM   PO439471  25.834  30.891  15.748  0.2152 -0.0630  0.1097
 3364POSM   AM139472  25.876  31.066  15.480 -0.2179 -0.2938  0.0526
 3364POSM   AM239473  25.645  31.105  15.298  0.0450  0.0607 -0.0217
 3364POSM   T1A39474  26.113  31.242  15.089  0.1343  0.0911  0.1727
 3364POSM   C2A39475  25.934  31.535  14.800  0.2261 -0.0792  0.3020
 3364POSM   C3A39476  25.812  31.518  14.294 -0.0405 -0.0983  0.3552
 3364POSM   C1B39477  25.666  31.031  14.957 -0.0128  0.1308  0.1313
 3364POSM   D2B39478  25.866  31.023  14.510 -0.1278 -0.0006  0.0008
 3364POSM   C3B39479  25.588  31.054  14.194 -0.1940 -0.1656  0.0170
 3364POSM   C4B39480  25.223  31.283  13.937 -0.2135 -0.0693  0.1115
 3365POSM   NC339481  31.042  29.113  16.302 -0.2533 -0.1720 -0.2759
 3365POSM   PO439482  31.419  29.073  16.274 -0.0284 -0.1903 -0.2371
 3365POSM   AM139483  31.506  29.308  16.065  0.2638 -0.0389  0.3061
 3365POSM   AM239484  31.714  29.505  15.941 -0.2284 -0.1482 -0.2397
 3365POSM   T1A39485  31.347  29.483  15.660  0.0182  0.2075 -0.0808
 3365POSM   C2A39486  31.256  29.522  15.196  0.4153 -0.1433 -0.1734
 3365POSM   C3A39487  31.442  29.774  14.875  0.0953  0.0069  0.3015
 3365POSM   C1B39488  31.849  29.494  15.557 -0.3731 -0.0551 -0.1531
 3365POSM   D2B39489  31.732  29.273  15.061 -0.0205  0.2677 -0.0849
 3365POSM   C3B39490  32.050  29.350  14.731  0.1875 -0.1016  0.2468
 3365POSM   C4B39491  32.258  29.147  14.411  0.1275 -0.0580 -0.0173
 3366DOPC   NC339492  26.648  25.666  15.687 -0.4294 -0.2778 -0.2656
 3366DOPC   PO439493  26.294  25.504  15.746 -0.3500 -0.2314 -0.1076
 3366DOPC   GL139494  26.271  25.404  15.233 -0.2079 -0.0086 -0.1221
 3366DOPC   GL239495  26.136  25.640  15.049 -0.1084  0.2589 -0.0836
 3366DOPC   C1A39496  26.308  25.214  14.852 -0.1206  0.1272 -0.0817
 3366DOPC   D2A39497  26.299  25.104  14.378  0.1461  0.0770  0.0117
 3366DOPC   C3A39498  25.875  24.952  14.123 -0.2267  0.0214 -0.0439
 3366DOPC   C4A39499  25.513  24.908  13.825 -0.0130 -0.2358  0.0520
 3366DOPC   C1B39500  26.164  25.549  14.523  0.0710 -0.0498 -0.2205
 3366DOPC   D2B39501  26.474  25.715  14.246  0.0695 -0.2718  0.1710
 3366DOPC   C3B39502  26.632  25.673  13.835 -0.1420  0.0731  0.3015
 3366DOPC   C4B39503  26.989  25.557  13.677  0.1640  0.1970  0.2350
 3367POSM   NC339504  28.155  34.065  16.294 -0.0158  0.0898  0.1228
 3367POSM   PO439505  27.942  33.816  16.086 -0.2433 -0.0269 -0.1845
 3367POSM   AM139506  27.925  33.749  15.755 -0.3021  0.0090  0.4271
 3367POSM   AM239507  28.093  33.576  15.572  0.1984 -0.1548 -0.2010
 3367POSM   T1A39508  27.984  34.122  15.427  0.0109  0.0788  0.3552
 3367POSM   C2A39509  28.144  34.115  15.003  0.0958 -0.2923 -0.0734
 3367POSM   C3A39510  28.060  34.360  14.667 -0.0191 -0.0233  0.0602
 3367POSM   C1B39511  28.350  33.773  15.433  0.0960 -0.0278  0.3660
 3367POSM   D2B39512  28.635  34.075  15.235 -0.1139  0.1384 -0.0859
 3367POSM   C3B39513  29.134  34.141  15.107  0.2566  0.1295 -0.1174
 3367POSM   C4B39514  29.434  34.508  14.990 -0.1769 -0.0893  0.1636
 3368DOPC   NC339515  30.240  29.535  16.605  0.0408 -0.1044  0.0286
 3368DOPC   PO439516  30.514  29.723  16.413  0.0437 -0.2217 -0.1295
 3368DOPC   GL139517  30.305  29.633  16.063  0.1352  0.1716 -0.1542
 3368DOPC   GL239518  30.181  29.341  16.000  0.3076 -0.0969 -0.1140
 3368DOPC   C1A39519  29.918  29.711  15.786 -0.0739  0.2814  0.1583
 3368DOPC   D2A39520  29.723  29.919  15.423  0.0579  0.3407 -0.0552
 3368DOPC   C3A39521  29.520  29.586  15.093 -0.0716  0.0892 -0.3667
 3368DOPC   C4A39522  29.580  29.359  14.734 -0.0642 -0.0896  0.0973
 3368DOPC   C1B39523  30.367  29.560  15.612 -0.0001 -0.1996  0.1165
 3368DOPC   D2B39524  30.531  29.581  15.211 -0.3512 -0.0900  0.1123
 3368DOPC   C3B39525  30.262  29.560  14.800  0.2360  0.2302 -0.1122
 3368DOPC   C4B39526  30.038  29.182  14.496  0.0047  0.0175 -0.3542
 3369POSM   NC339527  30.231  28.611  16.797  0.0666  0.0379 -0.1252
 3369POSM   PO439528  29.883  28.815  16.794  0.3445  0.0950  0.2288
 3369POSM   AM139529  30.015  28.963  16.572  0.0338 -0.0109 -0.1008
 3369POSM   AM239530  29.943  29.116  16.358  0.1426  0.0238  0.1343
 3369POSM   T1A39531  30.310  28.857  16.127  0.4623 -0.1598 -0.1751
 3369POSM   C2A39532  30.366  29.014  15.682 -0.0368  0.1868 -0.0049
 3369POSM   C3A39533  30.533  28.922  15.291 -0.0536  0.0626  0.1223
 3369POSM   C1B39534  29.794  28.979  16.127  0.2589 -0.3321 -0.2910
 3369POSM   D2B39535  29.869  28.819  15.685 -0.0192  0.0208 -0.1933
 3369POSM   C3B39536  29.621  28.964  15.306  0.0021  0.0196 -0.0899
 3369POSM   C4B39537  29.435  28.891  14.900  0.0881 -0.2989  0.1363
 3370POSM   NC339538  31.394  24.950  16.180  0.0829  0.0939 -0.3897
 3370POSM   PO439539  31.669  24.705  16.219 -0.0939  0.3450 -0.0935
 3370POSM   AM139540  31.585  24.651  15.893  0.3400  0.2603 -0.0539
 3370POSM   AM239541  31.466  24.507  15.663 -0.5582  0.3241  0.3023
 3370POSM   T1A39542  31.946  24.624  15.540 -0.0655 -0.0007 -0.0012
 3370POSM   C2A39543  32.372  24.475  15.380 -0.1377  0.2934  0.1177
 3370POSM   C3A39544  32.543  24.294  14.967 -0.5435  0.0668 -0.0338
 3370POSM   C1B39545  31.446  24.576  15.321 -0.0377  0.1195 -0.2804
 3370POSM   D2B39546  31.271  24.747  14.893 -0.3698 -0.4168  0.2090
 3370POSM   C3B39547  31.295  24.529  14.483  0.0191  0.1481 -0.0553
 3370POSM   C4B39548  31.560  24.119  14.417  0.2148  0.3003 -0.3745
 3371DOPC   NC339549  25.133  25.760  15.095 -0.0374  0.2218  0.1310
 3371DOPC   PO439550  25.033  26.093  15.309 -0.1261  0.1340  0.0417
 3371DOPC   GL139551  25.059  26.265  14.878 -0.4222 -0.0089 -0.1156
 3371DOPC   GL239552  24.922  26.456  14.698  0.1290  0.1038 -0.1279
 3371DOPC   C1A39553  25.419  26.336  14.498 -0.0750  0.1810 -0.3109
 3371DOPC   D2A39554  25.706  26.679  14.433  0.0957 -0.0483  0.1485
 3371DOPC   C3A39555  25.509  27.030  14.208  0.4048  0.2597 -0.1221
 3371DOPC   C4A39556  25.189  27.364  14.232  0.1249  0.1009  0.4725
 3371DOPC   C1B39557  25.097  26.690  14.364  0.0651 -0.3377 -0.1820
 3371DOPC   D2B39558  25.330  26.542  14.050  0.2273  0.1076 -0.0853
 3371DOPC   C3B39559  25.115  26.308  13.677 -0.0712  0.0541 -0.0068
 3371DOPC   C4B39560  24.748  26.096  13.453 -0.1664  0.0507  0.1666
 3372DOPE   NH339561  25.991  24.898  15.875  0.0413 -0.0184 -0.2235
 3372DOPE   PO439562  25.833  25.102  15.638  0.1123  0.1425  0.0264
 3372DOPE   GL139563  25.878  25.223  15.223 -0.1535  0.2882 -0.0437
 3372DOPE   GL239564  25.955  24.943  15.038  0.0937 -0.0800  0.0402
 3372DOPE   C1A39565  25.756  25.383  14.807  0.4544  0.0151  0.2326
 3372DOPE   D2A39566  25.581  25.626  14.471  0.2460 -0.0299  0.2132
 3372DOPE   C3A39567  25.877  25.836  14.260 -0.4243 -0.0677 -0.1154
 3372DOPE   C4A39568  26.210  25.994  13.971  0.2234  0.2339 -0.2067
 3372DOPE   C1B39569  25.825  24.977  14.616 -0.3145  0.0369 -0.0124
 3372DOPE   D2B39570  25.501  25.133  14.335  0.0494  0.1077  0.2521
 3372DOPE   C3B39571  25.646  25.383  13.999  0.0465  0.0154 -0.2177
 3372DOPE   C4B39572  25.694  25.717  13.683 -0.0412  0.4120  0.2194
 3373DOPC   NC339573  24.409  27.597  15.734  0.1114 -0.2285 -0.2817
 3373DOPC   PO439574  24.734  27.702  15.933 -0.3134 -0.1773 -0.0968
 3373DOPC   GL139575  24.740  27.679  15.455  0.1095 -0.1457  0.3736
 3373DOPC   GL239576  24.895  27.481  15.395 -0.1736 -0.0267 -0.0759
 3373DOPC   C1A39577  24.712  27.807  14.970  0.2419 -0.0553  0.1677
 3373DOPC   D2A39578  24.806  27.554  14.624  0.1401  0.3106 -0.2584
 3373DOPC   C3A39579  24.433  27.323  14.459  0.0531 -0.4534 -0.1513
 3373DOPC   C4A39580  24.257  26.969  14.234 -0.1823  0.2791  0.0360
 3373DOPC   C1B39581  25.143  27.853  15.321  0.0777 -0.2149  0.0221
 3373DOPC   D2B39582  25.203  28.177  15.007  0.0498  0.1047  0.0842
 3373DOPC   C3B39583  24.947  28.149  14.724  0.2478 -0.0440 -0.2519
 3373DOPC   C4B39584  24.644  27.979  14.463  0.1757  0.0322 -0.0624
 3374POSM   NC339585  32.768  31.581  16.387  0.1165 -0.2055 -0.0534
 3374POSM   PO439586  32.448  31.604  16.113 -0.2659  0.0792 -0.3369
 3374POSM   AM139587  32.453  31.423  15.823 -0.2652  0.1375 -0.3656
 3374POSM   AM239588  32.386  31.432  15.546  0.0674 -0.0368 -0.3271
 3374POSM   T1A39589  32.624  31.038  15.542 -0.1236  0.1072 -0.0636
 3374POSM   C2A39590  32.656  30.712  15.233 -0.2549  0.0801 -0.0112
 3374POSM   C3A39591  32.679  30.493  14.884 -0.0716  0.0438  0.0961
 3374POSM   C1B39592  32.364  31.294  15.211 -0.1133  0.3339  0.0145
 3374POSM   D2B39593  32.513  31.039  14.805  0.0691 -0.1534 -0.0619
 3374POSM   C3B39594  32.327  30.758  14.514 -0.1399  0.1599  0.0181
 3374POSM   C4B39595  31.938  30.658  14.246  0.1213  0.0720 -0.0673
 3375POSM   NC339596  24.199  32.820  16.221  0.1714 -0.2814 -0.1047
 3375POSM   PO439597  24.217  32.914  15.830 -0.2445 -0.2073 -0.0070
 3375POSM   AM139598  24.264  32.975  15.534  0.1024 -0.1849 -0.2660
 3375POSM   AM239599  24.490  32.990  15.308 -0.0425 -0.0664 -0.1220
 3375POSM   T1A39600  24.079  32.898  15.068 -0.0825 -0.1352 -0.3194
 3375POSM   C2A39601  24.177  32.905  14.636  0.0289  0.1616  0.0567
 3375POSM   C3A39602  24.369  32.744  14.228 -0.1914 -0.0826  0.4406
 3375POSM   C1B39603  24.588  32.936  14.964  0.0648 -0.2335 -0.1032
 3375POSM   D2B39604  24.803  32.867  14.577  0.2112  0.0145  0.2560
 3375POSM   C3B39605  25.217  32.949  14.408  0.0922 -0.0423 -0.3078
 3375POSM   C4B39606  25.448  33.128  14.015 -0.1101 -0.0573  0.2140
 3376POSM   NC339607  27.070  29.215  16.003  0.0622 -0.1924  0.1511
 3376POSM   PO439608  26.970  29.588  16.146 -0.0983  0.0183 -0.5904
 3376POSM   AM139609  26.876  29.593  15.825  0.0050 -0.2104  0.4483
 3376POSM   AM239610  26.681  29.770  15.752 -0.3132  0.0190  0.0884
 3376POSM   T1A39611  27.029  29.290  15.426  0.0804  0.0071 -0.2481
 3376POSM   C2A39612  27.076  28.923  15.100 -0.0114 -0.2043  0.0307
 3376POSM   C3A39613  26.766  28.879  14.795 -0.1316 -0.0795  0.2168
 3376POSM   C1B39614  26.589  29.762  15.400 -0.0571 -0.0155 -0.1944
 3376POSM   D2B39615  26.424  29.613  14.990 -0.1765 -0.1674 -0.0025
 3376POSM   C3B39616  26.336  29.973  14.768  0.0166 -0.0223  0.1451
 3376POSM   C4B39617  26.016  29.996  14.393  0.1607 -0.0502 -0.2360
 3377POSM   NC339618  25.713  34.652  15.974  0.0983  0.1559 -0.0022
 3377POSM   PO439619  25.685  34.297  15.800  0.0617 -0.4413  0.1496
 3377POSM   AM139620  25.852  34.378  15.537 -0.0076  0.0302 -0.0302
 3377POSM   AM239621  26.114  34.493  15.442 -0.0575 -0.1624 -0.0221
 3377POSM   T1A39622  25.787  34.325  15.001 -0.1538 -0.0689  0.0302
 3377POSM   C2A39623  25.666  34.224  14.559  0.1562 -0.1379 -0.2137
 3377POSM   C3A39624  25.929  34.062  14.195 -0.2558  0.1788 -0.1227
 3377POSM   C1B39625  26.240  34.364  15.151  0.1446 -0.1355  0.1101
 3377POSM   D2B39626  26.600  34.119  14.860 -0.1283 -0.0025  0.0173
 3377POSM   C3B39627  26.536  33.745  14.519 -0.1457 -0.2696  0.0449
 3377POSM   C4B39628  26.277  33.728  14.092  0.1491 -0.0302  0.0034
 3378DOPC   NC339629  34.553  30.543  16.106 -0.1832  0.2080  0.1950
 3378DOPC   PO439630  34.226  30.654  16.225  0.2246  0.1396  0.2314
 3378DOPC   GL139631  34.125  30.808  15.935 -0.0659  0.1374 -0.3949
 3378DOPC   GL239632  34.161  30.591  15.683  0.1938 -0.0346  0.0286
 3378DOPC   C1A39633  33.956  30.968  15.529 -0.1079  0.0936  0.3943
 3378DOPC   D2A39634  33.634  30.770  15.201  0.0349  0.1198 -0.0034
 3378DOPC   C3A39635  33.802  30.322  15.242 -0.0255  0.0482  0.0200
 3378DOPC   C4A39636  33.658  29.943  15.469  0.0687  0.0408 -0.0143
 3378DOPC   C1B39637  34.245  30.601  15.233 -0.2185  0.3006 -0.1684
 3378DOPC   D2B39638  33.982  30.663  14.836 -0.0756 -0.1421 -0.0345
 3378DOPC   C3B39639  33.607  30.468  14.760 -0.1135  0.0465 -0.1941
 3378DOPC   C4B39640  33.556  30.034  14.797 -0.3587 -0.0687  0.1019
 3379POSM   NC339641  33.798  30.955  16.511 -0.3536 -0.2886  0.1117
 3379POSM   PO439642  33.931  31.153  16.174  0.2187  0.0217  0.1846
 3379POSM   AM139643  33.764  31.230  15.936 -0.1232  0.0645 -0.1576
 3379POSM   AM239644  33.760  31.442  15.773 -0.0364 -0.0337  0.0283
 3379POSM   T1A39645  33.398  31.046  15.659 -0.0449  0.0688 -0.0782
 3379POSM   C2A39646  33.019  30.775  15.634 -0.1304  0.0124  0.1411
 3379POSM   C3A39647  32.694  30.556  15.798 -0.0023 -0.1197 -0.3312
 3379POSM   C1B39648  33.711  31.395  15.422  0.1893  0.1233  0.2855
 3379POSM   D2B39649  33.509  31.267  15.049  0.1389  0.2809  0.2659
 3379POSM   C3B39650  33.593  30.993  14.630  0.1877  0.1129 -0.1186
 3379POSM   C4B39651  33.356  30.787  14.317 -0.1398  0.0488  0.2216
 3380DOPS   CNO39652  27.739  28.453  16.380 -0.0743 -0.0763  0.0756
 3380DOPS   PO439653  27.986  28.678  16.183  0.1295  0.0910  0.0666
 3380DOPS   GL139654  28.052  28.979  15.845 -0.1444  0.0921  0.1487
 3380DOPS   GL239655  27.852  28.896  15.617 -0.0146 -0.1581  0.0104
 3380DOPS   C1A39656  28.290  29.131  15.407  0.2082 -0.0068  0.1626
 3380DOPS   D2A39657  28.370  29.577  15.345  0.6063 -0.2128  0.0678
 3380DOPS   C3A39658  28.236  29.661  14.929 -0.2283  0.1436  0.0581
 3380DOPS   C4A39659  28.382  29.531  14.437  0.2664  0.4277  0.1328
 3380DOPS   C1B39660  27.831  29.014  15.151  0.4406 -0.4239 -0.1966
 3380DOPS   D2B39661  27.895  28.824  14.691 -0.1634 -0.4017 -0.2733
 3380DOPS   C3B39662  28.148  28.453  14.658 -0.0475 -0.1858  0.2740
 3380DOPS   C4B39663  28.275  28.051  14.407  0.0784  0.0098 -0.1858
 3381DOPS   CNO39664  24.158  30.061  15.946 -0.0016 -0.0607 -0.2626
 3381DOPS   PO439665  23.804  30.193  15.911 -0.1593  0.4292 -0.1223
 3381DOPS   GL139666  23.963  30.353  15.522  0.0953  0.1959 -0.1833
 3381DOPS   GL239667  23.697  30.374  15.391  0.1721 -0.0693 -0.0199
 3381DOPS   C1A39668  24.145  30.392  15.094 -0.1028 -0.0317 -0.3430
 3381DOPS   D2A39669  24.320  30.183  14.725 -0.0247  0.1211 -0.2785
 3381DOPS   C3A39670  24.499  29.783  14.582 -0.2350  0.0475  0.0158
 3381DOPS   C4A39671  24.529  29.512  14.221 -0.0937 -0.0195  0.2060
 3381DOPS   C1B39672  23.599  30.171  15.016  0.1796 -0.1130  0.0318
 3381DOPS   D2B39673  23.866  30.134  14.662  0.0202  0.1602  0.2297
 3381DOPS   C3B39674  23.640  30.163  14.290  0.1924  0.0624 -0.0842
 3381DOPS   C4B39675  23.625  29.860  13.951  0.3296  0.1011  0.0407
 3382DOPS   CNO39676  28.847  30.807  16.793  0.1994 -0.1603  0.1071
 3382DOPS   PO439677  29.005  30.612  16.517  0.0432 -0.3279  0.0961
 3382DOPS   GL139678  29.015  30.783  16.137  0.2526 -0.0137 -0.0009
 3382DOPS   GL239679  29.315  30.669  16.063  0.0194  0.1026  0.3969
 3382DOPS   C1A39680  28.776  30.858  15.784 -0.0003  0.1061  0.1151
 3382DOPS   D2A39681  28.830  30.758  15.355  0.1781 -0.1181 -0.1067
 3382DOPS   C3A39682  28.638  30.863  14.943 -0.2308 -0.2539 -0.0936
 3382DOPS   C4A39683  28.841  30.673  14.565  0.0717 -0.0211  0.1231
 3382DOPS   C1B39684  29.021  30.431  15.824  0.1507 -0.2417 -0.0003
 3382DOPS   D2B39685  28.876  30.259  15.391  0.0160 -0.1494  0.0160
 3382DOPS   C3B39686  29.041  30.491  15.004  0.4813  0.1176  0.2341
 3382DOPS   C4B39687  29.367  30.679  14.715 -0.0635 -0.0604  0.1304
 3383POSM   NC339688  30.959  26.551  17.103  0.0396 -0.2509  0.1014
 3383POSM   PO439689  30.826  26.930  16.980  0.2100  0.0389  0.0831
 3383POSM   AM139690  31.009  26.922  16.738 -0.3947 -0.0424 -0.4431
 3383POSM   AM239691  31.159  26.738  16.567  0.1354 -0.0781 -0.3315
 3383POSM   T1A39692  31.004  27.188  16.332  0.2003  0.2994 -0.0953
 3383POSM   C2A39693  31.026  27.100  15.847 -0.2971  0.1376 -0.1501
 3383POSM   C3A39694  31.399  26.872  15.702 -0.1379  0.2634 -0.2942
 3383POSM   C1B39695  31.191  26.662  16.212  0.0472 -0.1703 -0.0496
 3383POSM   D2B39696  31.459  26.390  15.889 -0.1326 -0.2693 -0.0194
 3383POSM   C3B39697  31.293  26.333  15.508 -0.5076 -0.2318 -0.2755
 3383POSM   C4B39698  31.238  26.403  15.104  0.1035 -0.1045 -0.0447
 3384DOPE   NH339699  31.707   0.383  16.111 -0.3098  0.1896 -0.1581
 3384DOPE   PO439700  31.534   0.645  16.103  0.0956 -0.3904 -0.1276
 3384DOPE   GL139701  31.283   0.301  15.900 -0.0619 -0.0107 -0.2371
 3384DOPE   GL239702  31.318   0.034  16.173 -0.2152 -0.0007  0.2104
 3384DOPE   C1A39703  31.096   0.125  15.514  0.0645 -0.3786 -0.1667
 3384DOPE   D2A39704  31.167   0.298  15.043 -0.1287 -0.0677 -0.1976
 3384DOPE   C3A39705  31.396   0.039  14.810 -0.1351  0.3729 -0.0345
 3384DOPE   C4A39706  31.562  -0.014  14.388  0.1728  0.1675  0.1257
 3384DOPE   C1B39707  30.913  -0.103  16.004  0.1050 -0.1746 -0.0389
 3384DOPE   D2B39708  30.433   0.020  16.018 -0.0865  0.0568 -0.0721
 3384DOPE   C3B39709  30.129   0.058  15.653 -0.1669  0.1040 -0.1142
 3384DOPE   C4B39710  29.873   0.362  15.421  0.2166 -0.0438  0.1941
 3385POSM   NC339711  28.821  24.273  16.174  0.1372 -0.1209 -0.1254
 3385POSM   PO439712  28.467  24.195  16.316 -0.2320 -0.1571  0.0043
 3385POSM   AM139713  28.319  24.193  16.046  0.1881 -0.1696  0.1587
 3385POSM   AM239714  28.261  24.322  15.803  0.0732  0.0938  0.3434
 3385POSM   T1A39715  27.940  23.953  15.782 -0.4526 -0.0675  0.0806
 3385POSM   C2A39716  27.683  23.687  15.627  0.1253 -0.1351 -0.1146
 3385POSM   C3A39717  27.498  23.675  15.213  0.1919 -0.2110 -0.1091
 3385POSM   C1B39718  28.213  24.219  15.481  0.0025 -0.0333  0.0837
 3385POSM   D2B39719  28.243  24.224  14.969  0.0489 -0.3303  0.2687
 3385POSM   C3B39720  28.171  24.221  14.524  0.3851 -0.1835  0.1491
 3385POSM   C4B39721  28.206  24.010  14.107 -0.1879  0.1857 -0.0042
 3386DOPS   CNO39722  30.579  30.810  16.121  0.2698  0.1060  0.0485
 3386DOPS   PO439723  30.325  30.662  16.386 -0.3934  0.3371 -0.0833
 3386DOPS   GL139724  30.388  30.421  16.067 -0.1024 -0.0786  0.2256
 3386DOPS   GL239725  30.179  30.451  15.918 -0.0094 -0.1587  0.0863
 3386DOPS   C1A39726  30.586  30.402  15.610 -0.0014 -0.1550  0.1287
 3386DOPS   D2A39727  30.437  30.494  15.130 -0.2475 -0.3399  0.0594
 3386DOPS   C3A39728  30.372  30.997  14.986 -0.0682 -0.1949  0.0261
 3386DOPS   C4A39729  30.331  31.467  14.936  0.1409 -0.2824 -0.2917
 3386DOPS   C1B39730  30.275  30.056  15.709 -0.0751  0.0780  0.0275
 3386DOPS   D2B39731  30.182  30.025  15.269 -0.3899 -0.1230  0.3298
 3386DOPS   C3B39732  30.016  29.567  15.188 -0.0936 -0.0384 -0.1836
 3386DOPS   C4B39733  29.955  29.142  15.000 -0.0352  0.1914  0.0347
 3387POSM   NC339734  33.320  28.861  15.707  0.4983  0.3034 -0.1438
 3387POSM   PO439735  33.186  28.542  15.844  0.0475  0.0084 -0.2969
 3387POSM   AM139736  32.988  28.365  15.661  0.0514 -0.3427 -0.4205
 3387POSM   AM239737  32.927  28.094  15.587 -0.2375 -0.1429  0.2270
 3387POSM   T1A39738  32.725  28.319  15.234 -0.1081  0.1132 -0.0459
 3387POSM   C2A39739  32.674  28.372  14.759 -0.0675 -0.0548 -0.0276
 3387POSM   C3A39740  32.465  28.684  14.577 -0.2620  0.0280  0.3441
 3387POSM   C1B39741  32.975  27.845  15.342  0.0716  0.0826  0.0138
 3387POSM   D2B39742  32.982  27.578  14.933  0.0091  0.0765  0.1171
 3387POSM   C3B39743  32.703  27.698  14.595  0.2305 -0.1574  0.1601
 3387POSM   C4B39744  32.543  27.343  14.320 -0.4420 -0.1405  0.1409
 3388POSM   NC339745  28.502  27.158  16.788  0.1412  0.1916  0.0796
 3388POSM   PO439746  28.325  26.825  16.691  0.0779 -0.0014  0.1095
 3388POSM   AM139747  28.313  26.686  16.421 -0.1368 -0.0743 -0.1702
 3388POSM   AM239748  28.191  26.661  16.192 -0.0372 -0.1223  0.2274
 3388POSM   T1A39749  28.671  26.558  16.067 -0.2107 -0.0972  0.0670
 3388POSM   C2A39750  28.673  26.670  15.624 -0.2791 -0.1917 -0.2183
 3388POSM   C3A39751  28.629  26.626  15.180  0.1233 -0.1636  0.0496
 3388POSM   C1B39752  28.201  26.607  15.862 -0.1713 -0.0725 -0.0453
 3388POSM   D2B39753  27.916  26.384  15.593  0.1364 -0.0231  0.1188
 3388POSM   C3B39754  28.066  26.522  15.219 -0.1024  0.1064 -0.2239
 3388POSM   C4B39755  27.917  26.745  14.831 -0.0458 -0.0256 -0.0966
 3389POSM   NC339756  25.829  31.201  16.127 -0.0262  0.2825 -0.1026
 3389POSM   PO439757  26.164  31.336  15.901  0.0547 -0.0601  0.0059
 3389POSM   AM139758  26.084  31.449  15.599  0.1452  0.1083 -0.0148
 3389POSM   AM239759  26.189  31.629  15.425  0.1674 -0.1764  0.0230
 3389POSM   T1A39760  25.764  31.582  15.219 -0.0618  0.3206 -0.1291
 3389POSM   C2A39761  25.488  31.540  14.850  0.1382 -0.2255 -0.3014
 3389POSM   C3A39762  25.226  31.453  14.450  0.0130 -0.1398  0.2224
 3389POSM   C1B39763  26.158  31.858  15.185  0.3137 -0.0863  0.1436
 3389POSM   D2B39764  26.140  32.040  14.800 -0.1119  0.1981  0.0420
 3389POSM   C3B39765  26.241  31.800  14.398  0.2407 -0.1048  0.2307
 3389POSM   C4B39766  26.408  31.552  14.057  0.0859 -0.3095  0.1397
 3390DOPE   NH339767  34.314  32.093  16.172  0.1519  0.0505  0.3494
 3390DOPE   PO439768  34.557  31.889  16.208 -0.5348 -0.1100 -0.1240
 3390DOPE   GL139769  34.502  31.768  15.826 -0.0362 -0.2427  0.3804
 3390DOPE   GL239770  34.514  31.568  15.840  0.0615 -0.0884  0.1062
 3390DOPE   C1A39771  34.480  31.931  15.428  0.3279  0.1051  0.1525
 3390DOPE   D2A39772  34.411  32.137  15.012  0.0556 -0.1563  0.0176
 3390DOPE   C3A39773  34.060  32.017  14.727 -0.2855 -0.1627 -0.0199
 3390DOPE   C4A39774  33.895  31.948  14.300 -0.2803 -0.1630  0.0884
 3390DOPE   C1B39775  34.235  31.347  15.547  0.2403 -0.0067 -0.0466
 3390DOPE   D2B39776  34.269  31.253  15.101 -0.1151  0.0355 -0.1406
 3390DOPE   C3B39777  34.501  31.653  14.931 -0.2543 -0.4602  0.4077
 3390DOPE   C4B39778  34.636  31.860  14.541  0.0043  0.1288 -0.0104
 3391DOPE   NH339779  24.318  30.547  15.846 -0.1466  0.5204  0.0414
 3391DOPE   PO439780  24.571  30.733  15.816 -0.1304  0.0232  0.1465
 3391DOPE   GL139781  24.591  30.448  15.482  0.0781  0.3783 -0.4900
 3391DOPE   GL239782  24.432  30.208  15.477  0.2398  0.0260 -0.0718
 3391DOPE   C1A39783  24.656  30.464  14.997 -0.3147 -0.1324  0.1327
 3391DOPE   D2A39784  24.755  30.460  14.540 -0.0042 -0.0180 -0.0011
 3391DOPE   C3A39785  24.576  30.383  14.103  0.1329 -0.1384  0.1657
 3391DOPE   C4A39786  24.500  30.282  13.674 -0.0787 -0.3655  0.3418
 3391DOPE   C1B39787  24.155  29.898  15.307  0.1381 -0.0055  0.0735
 3391DOPE   D2B39788  23.932  29.656  14.919  0.1791  0.2683  0.0313
 3391DOPE   C3B39789  23.993  29.674  14.460  0.3161  0.0126  0.2300
 3391DOPE   C4B39790  24.148  30.015  14.185  0.0425 -0.2097  0.1608
 3392DOPS   CNO39791  34.146  24.481  15.853 -0.1775  0.2452 -0.0158
 3392DOPS   PO439792  34.176  24.156  15.998 -0.0459  0.1691 -0.2771
 3392DOPS   GL139793  34.152  23.952  15.689 -0.2605 -0.0072 -0.0219
 3392DOPS   GL239794  34.259  24.082  15.490  0.0403 -0.0428  0.0705
 3392DOPS   C1A39795  33.982  23.585  15.552 -0.4120 -0.1112 -0.0533
 3392DOPS   D2A39796  33.925  23.145  15.497  0.0115 -0.1523 -0.0286
 3392DOPS   C3A39797  33.648  22.795  15.405 -0.1559  0.1086  0.4359
 3392DOPS   C4A39798  33.326  22.572  15.173 -0.0061  0.0661 -0.0077
 3392DOPS   C1B39799  34.302  23.747  15.132 -0.0625 -0.1135 -0.0011
 3392DOPS   D2B39800  34.217  23.328  14.937 -0.0471  0.1139  0.0779
 3392DOPS   C3B39801  34.512  23.070  14.715  0.0637  0.2800  0.2748
 3392DOPS   C4B39802  34.727  22.955  14.374  0.1040  0.1160 -0.0854
 3393DOPS   CNO39803  23.689  28.047  16.172  0.0720  0.0551  0.1796
 3393DOPS   PO439804  23.882  28.008  15.835 -0.0523 -0.1521  0.2960
 3393DOPS   GL139805  23.762  27.997  15.427 -0.0939  0.0926  0.0634
 3393DOPS   GL239806  23.502  27.762  15.385  0.0057 -0.1160  0.1601
 3393DOPS   C1A39807  23.825  27.717  15.051 -0.4101 -0.0868 -0.1702
 3393DOPS   D2A39808  23.468  27.680  14.744  0.3474 -0.1292 -0.0006
 3393DOPS   C3A39809  23.319  27.332  14.521  0.3494  0.1996 -0.1398
 3393DOPS   C4A39810  22.995  27.387  14.176 -0.0088 -0.2078  0.1582
 3393DOPS   C1B39811  23.337  28.074  15.094 -0.2849 -0.0405 -0.0725
 3393DOPS   D2B39812  23.149  28.247  14.727  0.1739 -0.1196  0.4106
 3393DOPS   C3B39813  23.326  28.459  14.356  0.0245  0.1667 -0.1008
 3393DOPS   C4B39814  23.332  28.188  14.026  0.0341  0.0503  0.1096
 3394DOPE   NH339815  27.556  32.878  16.312 -0.1405 -0.1071  0.0360
 3394DOPE   PO439816  27.728  32.638  16.207  0.2423 -0.0269 -0.0628
 3394DOPE   GL139817  27.529  32.400  15.889 -0.1598 -0.1635  0.2463
 3394DOPE   GL239818  27.719  32.210  15.717  0.2614 -0.2672  0.1573
 3394DOPE   C1A39819  27.355  32.568  15.501  0.0799 -0.2079  0.2085
 3394DOPE   D2A39820  27.333  32.879  15.148 -0.0516  0.3696 -0.1201
 3394DOPE   C3A39821  27.024  33.021  14.843  0.3007 -0.1157  0.0149
 3394DOPE   C4A39822  26.782  32.943  14.434 -0.2871  0.1901 -0.0291
 3394DOPE   C1B39823  27.754  32.181  15.311  0.2442 -0.0252  0.1356
 3394DOPE   D2B39824  27.368  32.332  15.067 -0.3306  0.1358 -0.0883
 3394DOPE   C3B39825  27.506  32.368  14.646 -0.0859 -0.2612 -0.2775
 3394DOPE   C4B39826  27.868  32.454  14.253 -0.0792 -0.0057 -0.1306
 3395DOPC   NC339827  27.647  33.450  15.913 -0.0674 -0.0762  0.0823
 3395DOPC   PO439828  27.341  33.272  16.124  0.2140 -0.0948 -0.0380
 3395DOPC   GL139829  27.238  33.499  15.841  0.1246 -0.0039  0.6233
 3395DOPC   GL239830  27.211  33.274  15.623 -0.1143  0.0027  0.2843
 3395DOPC   C1A39831  27.321  33.843  15.521 -0.1525 -0.0712 -0.1844
 3395DOPC   D2A39832  27.175  33.958  15.037  0.0277 -0.1535  0.0918
 3395DOPC   C3A39833  27.004  33.948  14.617 -0.0642  0.0776  0.1490
 3395DOPC   C4A39834  27.067  33.859  14.165 -0.0601  0.2597  0.0300
 3395DOPC   C1B39835  27.581  33.362  15.356 -0.1838  0.3419  0.1547
 3395DOPC   D2B39836  27.903  33.670  15.179  0.3553 -0.0121 -0.0037
 3395DOPC   C3B39837  28.280  33.553  14.927 -0.0115  0.1465 -0.0211
 3395DOPC   C4B39838  28.774  33.654  15.051 -0.2484 -0.0256 -0.1203
 3396DOPE   NH339839  28.893  32.187  16.683 -0.0001  0.0792 -0.3623
 3396DOPE   PO439840  29.178  32.157  16.824  0.0834  0.0646  0.0191
 3396DOPE   GL139841  29.308  32.270  16.370  0.2247 -0.1575  0.0991
 3396DOPE   GL239842  29.096  32.284  16.085  0.3081  0.0626 -0.4042
 3396DOPE   C1A39843  29.758  32.427  16.151 -0.2355  0.0879  0.0124
 3396DOPE   D2A39844  29.836  32.692  15.773 -0.4044  0.0664  0.0916
 3396DOPE   C3A39845  30.001  32.325  15.510  0.1684 -0.1610  0.1468
 3396DOPE   C4A39846  30.383  32.170  15.480  0.2116  0.2047  0.0898
 3396DOPE   C1B39847  29.447  32.147  15.782 -0.2400  0.1604 -0.0315
 3396DOPE   D2B39848  29.747  31.811  15.627  0.1062 -0.1486 -0.0481
 3396DOPE   C3B39849  29.761  31.358  15.670  0.0796  0.0475 -0.0120
 3396DOPE   C4B39850  29.655  30.889  15.653 -0.2664 -0.2281 -0.0412
 3397DOPC   NC339851  23.343  26.741  15.916  0.0252  0.2712  0.1653
 3397DOPC   PO439852  23.180  26.613  15.526  0.0409  0.0164  0.0987
 3397DOPC   GL139853  23.098  26.774  15.147  0.0546  0.0589 -0.2220
 3397DOPC   GL239854  23.043  27.002  15.058 -0.2123  0.0773 -0.0574
 3397DOPC   C1A39855  23.060  26.477  14.827  0.0595 -0.2011 -0.2899
 3397DOPC   D2A39856  23.063  26.071  14.624  0.0383 -0.1663  0.3884
 3397DOPC   C3A39857  23.068  25.632  14.806  0.2629 -0.2778  0.2452
 3397DOPC   C4A39858  22.977  25.224  14.704 -0.1639 -0.2567 -0.2273
 3397DOPC   C1B39859  23.329  26.915  14.685  0.2022  0.2016 -0.1805
 3397DOPC   D2B39860  23.756  27.011  14.426  0.2358 -0.2577 -0.0371
 3397DOPC   C3B39861  23.709  27.339  14.086 -0.4970  0.1410 -0.0302
 3397DOPC   C4B39862  23.752  27.725  14.056  0.0915  0.1082 -0.1830
 3398DOPE   NH339863  33.300  27.621  15.773 -0.3663 -0.0837  0.0094
 3398DOPE   PO439864  33.065  27.530  15.983  0.5539  0.3156 -0.3623
 3398DOPE   GL139865  32.820  27.696  15.801  0.0117 -0.0710  0.0780
 3398DOPE   GL239866  32.522  27.812  15.804  0.0556  0.0616 -0.2479
 3398DOPE   C1A39867  32.618  27.429  15.457  0.0960 -0.0273  0.0097
 3398DOPE   D2A39868  32.464  27.387  14.998 -0.1062  0.0871 -0.2897
 3398DOPE   C3A39869  32.184  27.140  14.723 -0.1127 -0.0960 -0.3928
 3398DOPE   C4A39870  32.103  27.083  14.296  0.4581 -0.0784 -0.0630
 3398DOPE   C1B39871  32.432  27.923  15.359 -0.0101  0.0792  0.0580
 3398DOPE   D2B39872  32.410  27.994  14.898 -0.1007  0.0856 -0.0513
 3398DOPE   C3B39873  32.416  28.089  14.448 -0.2242 -0.2935 -0.4059
 3398DOPE   C4B39874  32.507  27.832  14.119  0.1070  0.0730 -0.0377
 3399DOPE   NH339875  32.611  31.879  15.738  0.5338 -0.4156  0.1811
 3399DOPE   PO439876  32.366  32.023  15.605 -0.1830 -0.4736  0.0834
 3399DOPE   GL139877  32.488  32.115  15.238 -0.0748 -0.0585  0.0923
 3399DOPE   GL239878  32.646  31.881  15.219 -0.2126 -0.0299 -0.0163
 3399DOPE   C1A39879  32.523  32.096  14.793  0.1143 -0.1998 -0.0232
 3399DOPE   D2A39880  32.618  31.833  14.406 -0.1028  0.0096 -0.0355
 3399DOPE   C3A39881  32.348  31.904  13.980 -0.0569 -0.1400 -0.0826
 3399DOPE   C4A39882  32.169  32.049  13.572 -0.2607  0.3903  0.0106
 3399DOPE   C1B39883  32.538  31.585  14.825 -0.0817 -0.1365 -0.1589
 3399DOPE   D2B39884  32.350  31.338  14.449 -0.2744 -0.0290 -0.0746
 3399DOPE   C3B39885  31.896  31.203  14.321 -0.1008 -0.0064 -0.1117
 3399DOPE   C4B39886  31.632  31.288  13.994  0.1296 -0.0285 -0.1445
 3400DOPC   NC339887  25.802  23.178  15.501 -0.1763 -0.2997 -0.0951
 3400DOPC   PO439888  25.407  23.257  15.496  0.0594  0.1409  0.0504
 3400DOPC   GL139889  25.320  23.198  15.173  0.3849 -0.0902  0.4115
 3400DOPC   GL239890  25.386  23.006  14.997 -0.1473 -0.1231  0.0497
 3400DOPC   C1A39891  25.553  23.459  14.804  0.1921  0.2915 -0.0425
 3400DOPC   D2A39892  25.842  23.686  14.523 -0.1471  0.3113  0.0967
 3400DOPC   C3A39893  26.118  24.020  14.624 -0.1216 -0.2707 -0.0531
 3400DOPC   C4A39894  26.529  24.201  14.716  0.4064  0.3262  0.1450
 3400DOPC   C1B39895  25.341  23.019  14.534 -0.4281 -0.0753 -0.3605
 3400DOPC   D2B39896  25.412  23.004  14.068 -0.0947  0.0739 -0.3137
 3400DOPC   C3B39897  25.139  23.298  13.814 -0.1265 -0.0095 -0.2588
 3400DOPC   C4B39898  25.368  23.602  13.549 -0.1064  0.1175  0.0946
 3401DOPC   NC339899  34.048  27.584  15.520  0.1669  0.0084  0.0138
 3401DOPC   PO439900  33.791  27.511  15.812  0.2187 -0.1268 -0.2743
 3401DOPC   GL139901  33.622  27.257  15.602 -0.2005  0.1078  0.2090
 3401DOPC   GL239902  33.477  26.959  15.633  0.0300  0.1022  0.0745
 3401DOPC   C1A39903  33.769  27.046  15.217  0.2117 -0.4279 -0.4723
 3401DOPC   D2A39904  33.996  26.843  14.837 -0.4202 -0.2354 -0.1246
 3401DOPC   C3A39905  33.646  26.782  14.545  0.0572 -0.2597  0.4010
 3401DOPC   C4A39906  33.477  26.757  14.078  0.2157 -0.2562 -0.1572
 3401DOPC   C1B39907  33.169  26.856  15.308 -0.0167 -0.2696  0.0243
 3401DOPC   D2B39908  33.001  27.064  14.865 -0.1827  0.1803 -0.0261
 3401DOPC   C3B39909  32.694  26.925  14.582 -0.0430 -0.1975 -0.1034
 3401DOPC   C4B39910  32.568  26.857  14.108 -0.1829  0.0105 -0.1880
 3402DOPE   NH339911  30.898  25.719  16.257  0.2825 -0.1430  0.5404
 3402DOPE   PO439912  30.631  25.619  16.424  0.1752  0.0467 -0.2309
 3402DOPE   GL139913  30.486  25.665  16.065  0.0160 -0.0606  0.2641
 3402DOPE   GL239914  30.687  25.566  15.848 -0.2390  0.2255  0.1932
 3402DOPE   C1A39915  30.200  25.689  15.652 -0.0834 -0.2876  0.1078
 3402DOPE   D2A39916  29.972  25.562  15.297 -0.2771 -0.0519 -0.0047
 3402DOPE   C3A39917  30.043  25.559  14.857  0.0437  0.0781 -0.1068
 3402DOPE   C4A39918  30.064  25.797  14.491  0.2394 -0.1695  0.0484
 3402DOPE   C1B39919  30.781  26.042  15.872 -0.1247 -0.2366  0.0220
 3402DOPE   D2B39920  30.899  26.520  15.823  0.0851 -0.0226  0.2154
 3402DOPE   C3B39921  30.821  26.817  15.460 -0.3768 -0.0977  0.3196
 3402DOPE   C4B39922  30.838  26.741  15.037  0.2960  0.1751  0.1753
 3403DOPE   NH339923  33.873  29.730  15.921  0.1574 -0.0335  0.0105
 3403DOPE   PO439924  34.172  29.642  16.009 -0.2562  0.0424  0.0456
 3403DOPE   GL139925  34.344  29.552  15.726 -0.3863 -0.0820 -0.0865
 3403DOPE   GL239926  34.591  29.794  15.678 -0.0400  0.2024 -0.0652
 3403DOPE   C1A39927  34.218  29.409  15.349 -0.1984  0.3454 -0.0586
 3403DOPE   D2A39928  33.967  29.519  15.014  0.0899 -0.1157  0.0587
 3403DOPE   C3A39929  34.108  29.942  14.865 -0.0340 -0.3384 -0.2662
 3403DOPE   C4A39930  34.014  30.237  14.482  0.0492  0.0111 -0.0354
 3403DOPE   C1B39931  34.455  29.831  15.259 -0.2290  0.0179  0.0003
 3403DOPE   D2B39932  34.628  29.806  14.849 -0.1829  0.2447  0.4046
 3403DOPE   C3B39933  35.059  29.679  14.759 -0.2255 -0.1908  0.0090
 3403DOPE   C4B39934  35.313  29.454  14.440 -0.2022 -0.2588  0.2946
 3404DOPS   CNO39935  25.288  27.891  16.453 -0.1768 -0.0460 -0.0897
 3404DOPS   PO439936  25.488  28.152  16.276 -0.1373  0.4498  0.2003
 3404DOPS   GL139937  25.563  28.225  15.873  0.0383  0.2759  0.0413
 3404DOPS   GL239938  25.456  28.022  15.710 -0.1356  0.2056 -0.0676
 3404DOPS   C1A39939  25.591  28.611  15.627  0.1841 -0.0382 -0.1058
 3404DOPS   D2A39940  25.887  28.925  15.494 -0.1301  0.2727  0.0887
 3404DOPS   C3A39941  25.674  29.000  15.131 -0.1544 -0.0344  0.1182
 3404DOPS   C4A39942  25.590  29.255  14.755  0.4580 -0.2615 -0.0847
 3404DOPS   C1B39943  25.639  28.088  15.363 -0.0159 -0.1360 -0.5252
 3404DOPS   D2B39944  25.788  28.497  15.123 -0.1257 -0.0144  0.3103
 3404DOPS   C3B39945  25.475  28.678  14.790 -0.2141 -0.0934  0.3331
 3404DOPS   C4B39946  25.107  28.747  14.486 -0.3708 -0.0551  0.0680
 3405POSM   NC339947  27.155   0.479  16.188  0.3909 -0.0740 -0.4031
 3405POSM   PO439948  27.452   0.251  16.325  0.0729 -0.0746 -0.0659
 3405POSM   AM139949  27.560   0.244  15.985 -0.1087 -0.1733  0.1372
 3405POSM   AM239950  27.734   0.087  15.824 -0.2601  0.1931  0.0579
 3405POSM   T1A39951  27.394   0.320  15.541 -0.1322 -0.1079 -0.0718
 3405POSM   C2A39952  27.566   0.161  15.135  0.1415  0.1990  0.0086
 3405POSM   C3A39953  27.622  -0.097  14.728 -0.2945 -0.0173 -0.0026
 3405POSM   C1B39954  27.818   0.018  15.549  0.2582 -0.0368  0.1648
 3405POSM   D2B39955  27.944  -0.142  15.102 -0.0979 -0.0237 -0.0631
 3405POSM   C3B39956  28.060   0.161  14.787 -0.1936  0.1030  0.0601
 3405POSM   C4B39957  28.083   0.148  14.284 -0.0157 -0.1087  0.0355
 3406DOPC   NC339958  23.293  29.129  15.489  0.1144  0.0748 -0.1312
 3406DOPC   PO439959  23.312  29.510  15.560 -0.2297  0.0279 -0.1026
 3406DOPC   GL139960  22.997  29.605  15.358 -0.0066  0.0050 -0.0064
 3406DOPC   GL239961  22.841  29.355  15.343  0.1685  0.0115  0.1276
 3406DOPC   C1A39962  23.073  29.632  14.919  0.2216  0.0887 -0.1949
 3406DOPC   D2A39963  23.386  29.699  14.628 -0.1794  0.0787 -0.2967
 3406DOPC   C3A39964  23.446  29.458  14.241 -0.0917 -0.0596  0.1668
 3406DOPC   C4A39965  23.665  29.049  14.201  0.2259  0.1237  0.1471
 3406DOPC   C1B39966  23.123  29.140  15.006  0.0529 -0.2228  0.2157
 3406DOPC   D2B39967  23.418  29.184  14.666 -0.1560  0.1393  0.1615
 3406DOPC   C3B39968  23.862  29.235  14.683  0.1254  0.3344  0.0785
 3406DOPC   C4B39969  24.349  29.314  14.777  0.3351 -0.2134 -0.2139
 3407DOPC   NC339970  26.911  27.183  16.084  0.2101  0.0165  0.3790
 3407DOPC   PO439971  26.841  26.802  16.187  0.2478  0.1195  0.0993
 3407DOPC   GL139972  26.903  26.722  15.800  0.0712 -0.2209 -0.1335
 3407DOPC   GL239973  26.842  26.905  15.684 -0.1814 -0.2778 -0.0394
 3407DOPC   C1A39974  27.251  26.990  15.547  0.0477 -0.2651  0.3143
 3407DOPC   D2A39975  27.329  27.226  15.179  0.0014 -0.1249 -0.0741
 3407DOPC   C3A39976  27.616  27.151  14.825  0.3507 -0.2714 -0.2218
 3407DOPC   C4A39977  27.720  27.087  14.363  0.1097 -0.2213  0.1989
 3407DOPC   C1B39978  26.890  26.947  15.234 -0.0518  0.0673  0.0221
 3407DOPC   D2B39979  26.970  26.902  14.790  0.0128  0.4263  0.0159
 3407DOPC   C3B39980  27.400  26.718  14.712  0.1980  0.0061 -0.3609
 3407DOPC   C4B39981  27.672  26.586  14.397  0.0878  0.0164 -0.1778
 3408DOPS   CNO39982  26.359  24.626  15.793  0.0621 -0.3043  0.0280
 3408DOPS   PO439983  26.100  24.392  15.928  0.1723 -0.2486  0.0958
 3408DOPS   GL139984  26.216  24.224  15.546 -0.1423 -0.3753 -0.0706
 3408DOPS   GL239985  26.000  23.972  15.531 -0.0492  0.0493 -0.0520
 3408DOPS   C1A39986  26.414  23.920  15.221 -0.2839  0.1134  0.2379
 3408DOPS   D2A39987  26.829  23.915  14.996 -0.2020 -0.2210  0.0797
 3408DOPS   C3A39988  27.104  23.969  15.340  0.1888  0.0713  0.1785
 3408DOPS   C4A39989  27.212  23.897  15.786 -0.1501  0.3215  0.3129
 3408DOPS   C1B39990  25.947  24.183  15.129  0.3750 -0.0041  0.1153
 3408DOPS   D2B39991  25.985  24.505  14.796 -0.2011  0.0744 -0.1263
 3408DOPS   C3B39992  26.253  24.544  14.438 -0.3024 -0.1770  0.0652
 3408DOPS   C4B39993  26.631  24.511  14.130 -0.1604  0.1014 -0.0824
 3409DOPC   NC339994  33.354  34.330  15.851  0.1523 -0.1501 -0.2516
 3409DOPC   PO439995  33.486  34.666  16.016 -0.1008 -0.1861 -0.1653
 3409DOPC   GL139996  33.450  34.914  15.717 -0.2040 -0.4424 -0.0808
 3409DOPC   GL239997  33.695  34.778  15.541  0.0528 -0.2812  0.0437
 3409DOPC   C1A39998  33.488  35.368  15.657  0.3666 -0.1181 -0.1210
 3409DOPC   D2A39999  33.681  35.791  15.590 -0.2068  0.2481  0.2438
 3409DOPC   C3A40000  33.673  35.647  15.128 -0.1848 -0.0264 -0.0914
 3409DOPC   C4A40001  33.487  35.401  14.753 -0.2146 -0.0450  0.0640
 3409DOPC   C1B40002  33.551  35.097  15.222  0.0853  0.2485 -0.2520
 3409DOPC   D2B40003  33.232  35.497  15.237  0.1577  0.3314  0.2403
 3409DOPC   C3B40004  33.144  35.781  14.857 -0.0584 -0.1176 -0.0815
 3409DOPC   C4B40005  33.298  36.065  14.505 -0.2734 -0.0456 -0.1858
 3410POSM   NC340006  31.613  27.476  16.963  0.0528  0.0693 -0.0524
 3410POSM   PO440007  31.445  27.795  16.763  0.0462  0.0318 -0.0209
 3410POSM   AM140008  31.519  27.619  16.502 -0.0281 -0.0340 -0.5614
 3410POSM   AM240009  31.360  27.584  16.283  0.1801 -0.4124 -0.1660
 3410POSM   T1A40010  31.772  27.661  16.083 -0.1129  0.0208  0.4377
 3410POSM   C2A40011  32.071  27.409  15.844 -0.1699  0.0610 -0.2258
 3410POSM   C3A40012  32.309  27.032  15.686  0.1394 -0.1538  0.0692
 3410POSM   C1B40013  31.337  27.895  16.162 -0.1363 -0.0107  0.3239
 3410POSM   D2B40014  31.561  28.228  15.957  0.0169 -0.1444  0.2709
 3410POSM   C3B40015  31.953  28.469  15.891 -0.3527  0.0976 -0.2881
 3410POSM   C4B40016  32.097  28.749  15.599 -0.0896  0.3755 -0.3520
 3411DOPC   NC340017  29.785  25.384  15.759  0.3416 -0.0750  0.0179
 3411DOPC   PO440018  29.822  25.044  15.897 -0.1848  0.3628 -0.3284
 3411DOPC   GL140019  29.674  24.803  15.502  0.3344 -0.1547  0.2131
 3411DOPC   GL240020  29.491  25.046  15.469  0.4065  0.2067  0.4037
 3411DOPC   C1A40021  29.471  24.453  15.216  0.0840 -0.1394  0.1438
 3411DOPC   D2A40022  29.169  24.436  14.925 -0.2250  0.1262  0.2992
 3411DOPC   C3A40023  29.068  24.838  14.726  0.0018  0.1997  0.1898
 3411DOPC   C4A40024  29.144  25.127  14.370 -0.2030  0.0134 -0.0350
 3411DOPC   C1B40025  29.308  25.001  15.097  0.2183 -0.1420  0.1710
 3411DOPC   D2B40026  29.541  24.793  14.758 -0.3413  0.1320 -0.0954
 3411DOPC   C3B40027  29.896  24.513  14.891 -0.0632 -0.1331 -0.0505
 3411DOPC   C4B40028  30.087  24.130  14.810 -0.1030 -0.0713  0.0095
 3412DOPC   NC340029  32.597  22.963  15.752 -0.0800 -0.0497 -0.1075
 3412DOPC   PO440030  32.654  23.329  15.698 -0.2982 -0.2459  0.1981
 3412DOPC   GL140031  32.537  23.208  15.264 -0.0852 -0.2290  0.0302
 3412DOPC   GL240032  32.385  23.521  15.288  0.1495  0.0307  0.0219
 3412DOPC   C1A40033  32.683  23.313  14.812 -0.2747  0.1439 -0.0332
 3412DOPC   D2A40034  32.930  23.269  14.434 -0.0466 -0.0979  0.0082
 3412DOPC   C3A40035  32.596  23.031  14.181 -0.0711  0.0154  0.0359
 3412DOPC   C4A40036  32.183  22.799  14.205 -0.1028  0.0177  0.1473
 3412DOPC   C1B40037  32.209  23.410  14.909  0.1104 -0.2609  0.0259
 3412DOPC   D2B40038  32.162  23.301  14.490  0.3864 -0.1110  0.3301
 3412DOPC   C3B40039  32.280  23.353  14.016 -0.2647  0.1557 -0.0964
 3412DOPC   C4B40040  32.330  23.718  13.741 -0.0414 -0.1597 -0.2470
 3413DOPE   NH340041  29.434  23.246  16.635  0.2778  0.1720  0.4796
 3413DOPE   PO440042  29.630  23.027  16.564 -0.2033 -0.0269 -0.0012
 3413DOPE   GL140043  29.489  23.202  16.146 -0.0938  0.2636  0.3130
 3413DOPE   GL240044  29.718  23.169  15.909  0.1328  0.2902 -0.2008
 3413DOPE   C1A40045  29.352  22.902  15.801 -0.0825  0.3170  0.4448
 3413DOPE   D2A40046  29.574  22.667  15.515  0.1950 -0.2144  0.1661
 3413DOPE   C3A40047  29.420  22.699  15.118 -0.2013 -0.2829  0.0501
 3413DOPE   C4A40048  29.364  22.635  14.640  0.3429  0.1234 -0.1031
 3413DOPE   C1B40049  30.109  23.220  15.645  0.1268  0.2293  0.0347
 3413DOPE   D2B40050  30.149  23.376  15.228 -0.0035  0.0029 -0.0571
 3413DOPE   C3B40051  29.824  23.473  14.962  0.2898 -0.2330 -0.2593
 3413DOPE   C4B40052  29.497  23.142  14.845  0.1742  0.0875  0.0290
 3414POSM   NC340053  33.471  23.839  15.760  0.2397  0.1718  0.3470
 3414POSM   PO440054  33.647  24.160  15.898  0.0239 -0.1303 -0.1942
 3414POSM   AM140055  33.671  24.182  15.552  0.1525  0.0814 -0.1534
 3414POSM   AM240056  33.482  24.166  15.341 -0.1373  0.0801  0.1226
 3414POSM   T1A40057  33.848  23.909  15.190 -0.0052  0.3864  0.3016
 3414POSM   C2A40058  33.818  23.608  14.777 -0.1336 -0.0866 -0.0278
 3414POSM   C3A40059  33.967  23.412  14.388  0.2743 -0.3978 -0.0892
 3414POSM   C1B40060  33.495  24.260  15.038  0.0945  0.0271  0.3939
 3414POSM   D2B40061  33.746  24.409  14.755  0.2484  0.1863 -0.1057
 3414POSM   C3B40062  33.764  24.281  14.315  0.0961 -0.1487 -0.0765
 3414POSM   C4B40063  33.634  24.124  13.878  0.3189 -0.1548  0.1088
 3415POSM   NC340064  24.812  30.960  15.342 -0.0183 -0.0518 -0.1028
 3415POSM   PO440065  24.993  30.660  15.541 -0.0120  0.1410  0.0648
 3415POSM   AM140066  25.260  30.677  15.355 -0.3545 -0.2748  0.0365
 3415POSM   AM240067  25.543  30.579  15.294 -0.0707  0.0467  0.0988
 3415POSM   T1A40068  25.375  30.708  14.834  0.0937 -0.0456  0.0363
 3415POSM   C2A40069  25.160  30.908  14.493  0.0073 -0.2000  0.2299
 3415POSM   C3A40070  24.921  30.847  14.083 -0.0358  0.0088  0.2645
 3415POSM   C1B40071  25.808  30.546  15.063  0.2951 -0.0171  0.1633
 3415POSM   D2B40072  26.106  30.601  14.768 -0.1702 -0.0010 -0.1600
 3415POSM   C3B40073  26.175  30.693  14.296  0.2314  0.1194 -0.0802
 3415POSM   C4B40074  26.048  31.035  14.008  0.0522  0.1276  0.1416
 3416DOPE   NH340075  24.606  24.516  15.909 -0.2131  0.0689  0.1896
 3416DOPE   PO440076  24.536  24.745  15.716 -0.1054 -0.4058 -0.4287
 3416DOPE   GL140077  24.627  24.673  15.342 -0.0617 -0.2673  0.3562
 3416DOPE   GL240078  24.643  24.365  15.350  0.1435  0.1612  0.0787
 3416DOPE   C1A40079  24.707  24.616  14.891 -0.0981  0.1138 -0.1355
 3416DOPE   D2A40080  24.632  24.643  14.450 -0.4368 -0.3502 -0.0167
 3416DOPE   C3A40081  24.392  24.341  14.122 -0.0541 -0.1417 -0.0430
 3416DOPE   C4A40082  23.895  24.366  14.055 -0.0285  0.1129  0.0156
 3416DOPE   C1B40083  24.615  24.118  14.973 -0.1071  0.0588 -0.0484
 3416DOPE   D2B40084  24.426  24.053  14.498 -0.1100  0.0598  0.0084
 3416DOPE   C3B40085  24.574  23.679  14.209 -0.2329  0.0548 -0.0691
 3416DOPE   C4B40086  24.619  23.332  13.826  0.0779  0.2485 -0.0227
 3417POSM   NC340087  24.107  25.982  15.796  0.0322 -0.0069  0.1091
 3417POSM   PO440088  23.963  25.615  15.938 -0.0436  0.3581 -0.0767
 3417POSM   AM140089  24.046  25.513  15.643 -0.3602 -0.0857 -0.1000
 3417POSM   AM240090  24.171  25.609  15.432 -0.1166  0.0428 -0.1558
 3417POSM   T1A40091  24.106  25.099  15.395  0.1084 -0.1697 -0.0019
 3417POSM   C2A40092  24.230  24.705  15.110 -0.1345  0.1167  0.1750
 3417POSM   C3A40093  24.273  24.420  14.783  0.1869  0.0931 -0.3140
 3417POSM   C1B40094  24.086  25.571  15.096  0.2232 -0.1774 -0.1611
 3417POSM   D2B40095  23.958  25.514  14.654  0.2717 -0.0731 -0.0986
 3417POSM   C3B40096  24.238  25.437  14.337  0.1042  0.0012  0.1017
 3417POSM   C4B40097  24.286  25.234  13.937  0.0734 -0.0606 -0.0509
 3418DOPE   NH340098  27.141  34.201  16.447 -0.3017  0.2607 -0.1198
 3418DOPE   PO440099  26.890  34.022  16.311 -0.4186 -0.3394  0.1663
 3418DOPE   GL140100  27.023  34.285  16.010 -0.0257  0.1948 -0.0351
 3418DOPE   GL240101  26.817  34.168  15.754 -0.0387  0.2517 -0.1572
 3418DOPE   C1A40102  27.208  34.503  15.576 -0.1945  0.3126 -0.0375
 3418DOPE   D2A40103  27.496  34.285  15.316  0.1107  0.1158 -0.0569
 3418DOPE   C3A40104  27.634  34.092  14.872  0.0839  0.2112 -0.0709
 3418DOPE   C4A40105  27.979  33.878  14.593 -0.2940 -0.1047 -0.1114
 3418DOPE   C1B40106  26.814  34.253  15.295  0.4466  0.1304 -0.2576
 3418DOPE   D2B40107  27.068  34.571  15.074 -0.0460  0.2542  0.2647
 3418DOPE   C3B40108  27.146  34.450  14.606 -0.1771 -0.1397 -0.0382
 3418DOPE   C4B40109  27.233  34.356  14.159 -0.2321 -0.2229  0.1463
 3419POSM   NC340110  23.574  29.119  15.934 -0.2608  0.2176  0.2793
 3419POSM   PO440111  23.416  28.763  15.853 -0.0698  0.0008  0.3283
 3419POSM   AM140112  23.524  28.691  15.560 -0.0015 -0.3388  0.0911
 3419POSM   AM240113  23.602  28.435  15.434  0.0862 -0.0142 -0.1493
 3419POSM   T1A40114  23.593  28.855  15.079 -0.0015 -0.1019 -0.1034
 3419POSM   C2A40115  23.780  28.750  14.639  0.1239  0.2331  0.2445
 3419POSM   C3A40116  23.855  28.597  14.196 -0.2673  0.0012  0.0115
 3419POSM   C1B40117  23.908  28.513  15.265 -0.0158  0.0695  0.0988
 3419POSM   D2B40118  24.278  28.537  14.990 -0.2334 -0.1434 -0.1529
 3419POSM   C3B40119  24.140  28.383  14.558  0.0237  0.2230  0.1727
 3419POSM   C4B40120  24.070  28.156  14.161 -0.0181  0.0141  0.1493
 3420DOPS   CNO40121  34.149  25.371  15.651 -0.1431 -0.0615 -0.0006
 3420DOPS   PO440122  34.511  25.556  15.707 -0.3010  0.0848  0.0414
 3420DOPS   GL140123  34.526  25.599  15.337 -0.3061  0.1363 -0.2414
 3420DOPS   GL240124  34.810  25.716  15.304 -0.0552  0.0409  0.0091
 3420DOPS   C1A40125  34.618  25.463  14.879  0.0920  0.4885 -0.2793
 3420DOPS   D2A40126  34.860  25.440  14.512 -0.1128  0.1546 -0.1902
 3420DOPS   C3A40127  35.231  25.428  14.272  0.0729 -0.1074 -0.2755
 3420DOPS   C4A40128  35.680  25.350  14.141  0.0600  0.1911 -0.1486
 3420DOPS   C1B40129  35.106  25.568  15.017  0.0858 -0.0949 -0.4213
 3420DOPS   D2B40130  35.433  25.404  14.755 -0.0319  0.0039 -0.0745
 3420DOPS   C3B40131  35.485  25.059  14.517 -0.1073  0.2569  0.0245
 3420DOPS   C4B40132  35.613  24.627  14.516  0.3413 -0.0726  0.0989
 3421DOPC   NC340133  28.773  33.400  16.076  0.0493 -0.1171 -0.1290
 3421DOPC   PO440134  28.342  33.442  16.041  0.1721 -0.1190 -0.0931
 3421DOPC   GL140135  28.581  33.091  15.849 -0.0424 -0.2728  0.1582
 3421DOPC   GL240136  28.514  32.807  15.820  0.1277 -0.1468  0.3706
 3421DOPC   C1A40137  28.909  32.876  15.540  0.2211 -0.0611  0.2529
 3421DOPC   D2A40138  29.106  32.815  15.151 -0.1516  0.2181  0.1856
 3421DOPC   C3A40139  29.159  32.363  15.219 -0.0579  0.0709 -0.1207
 3421DOPC   C4A40140  29.007  32.044  15.516 -0.1585 -0.1239  0.0534
 3421DOPC   C1B40141  28.394  32.936  15.427  0.2360  0.0447  0.0188
 3421DOPC   D2B40142  28.170  33.240  15.234  0.0886 -0.3641  0.1234
 3421DOPC   C3B40143  27.827  33.264  14.918 -0.0785  0.0065 -0.0185
 3421DOPC   C4B40144  27.718  33.400  14.484  0.0744 -0.1242 -0.1758
 3422DOPS   CNO40145  23.498  33.925  16.066 -0.0613  0.0020 -0.0527
 3422DOPS   PO440146  23.427  34.084  15.760 -0.2464 -0.0805 -0.1260
 3422DOPS   GL140147  23.427  33.776  15.469 -0.0412  0.1078 -0.1324
 3422DOPS   GL240148  23.135  33.897  15.326 -0.0523  0.0921  0.0219
 3422DOPS   C1A40149  23.324  33.315  15.428  0.1231  0.0019 -0.1688
 3422DOPS   D2A40150  23.563  33.008  15.156 -0.1998 -0.4182 -0.1297
 3422DOPS   C3A40151  23.751  33.176  14.798 -0.1557  0.2976  0.3583
 3422DOPS   C4A40152  23.804  33.392  14.392  0.1911 -0.1092  0.2349
 3422DOPS   C1B40153  23.123  34.358  15.064 -0.0640 -0.2075  0.0367
 3422DOPS   D2B40154  23.312  34.694  14.928 -0.1672 -0.2239  0.2655
 3422DOPS   C3B40155  23.255  34.831  14.494  0.0200 -0.2138 -0.3761
 3422DOPS   C4B40156  23.300  34.570  14.085  0.0557 -0.0306 -0.1631
 3423DOPE   NH340157  32.382  32.596  15.582  0.1929  0.0030 -0.1374
 3423DOPE   PO440158  32.585  32.428  15.771 -0.2971 -0.0031  0.2252
 3423DOPE   GL140159  32.913  32.620  15.514  0.1527 -0.1851 -0.0657
 3423DOPE   GL240160  32.835  32.512  15.222  0.2332 -0.1022 -0.2762
 3423DOPE   C1A40161  33.344  32.503  15.342 -0.0363  0.3729 -0.0240
 3423DOPE   D2A40162  33.698  32.762  15.219  0.0310 -0.1339  0.1455
 3423DOPE   C3A40163  33.792  32.961  14.850  0.0579 -0.0155  0.1762
 3423DOPE   C4A40164  34.152  33.309  14.796  0.0208  0.0537 -0.0153
 3423DOPE   C1B40165  32.890  32.540  14.747 -0.0184 -0.1889 -0.2514
 3423DOPE   D2B40166  33.067  32.690  14.351  0.3220 -0.1397 -0.1895
 3423DOPE   C3B40167  32.815  32.709  13.960  0.3530  0.3321  0.1899
 3423DOPE   C4B40168  32.600  32.340  13.737 -0.0500  0.0027 -0.2143
 3424DOPC   NC340169  24.871  30.155  16.331  0.0213  0.1536 -0.4811
 3424DOPC   PO440170  24.634  30.228  16.011  0.2443  0.1650 -0.0372
 3424DOPC   GL140171  24.888  30.132  15.641 -0.5749 -0.0531  0.1184
 3424DOPC   GL240172  25.238  30.208  15.471  0.2870  0.0900 -0.4539
 3424DOPC   C1A40173  24.810  30.055  15.198  0.0215  0.0374  0.1103
 3424DOPC   D2A40174  24.966  29.962  14.785 -0.2455 -0.0994 -0.1782
 3424DOPC   C3A40175  25.425  29.797  14.648  0.1149  0.1166  0.0907
 3424DOPC   C4A40176  25.542  29.595  14.251 -0.2592 -0.2437  0.0674
 3424DOPC   C1B40177  25.277  30.240  14.993 -0.0781  0.1776 -0.0233
 3424DOPC   D2B40178  25.283  30.304  14.506 -0.1121  0.1548 -0.1071
 3424DOPC   C3B40179  25.533  30.104  14.228  0.0751 -0.0477 -0.0492
 3424DOPC   C4B40180  25.663  29.972  13.883  0.1990  0.1115 -0.0342
 3425DOPS   CNO40181  23.618  25.946  15.757 -0.0253 -0.2593 -0.1125
 3425DOPS   PO440182  23.609  26.327  15.630  0.0669 -0.1865  0.0124
 3425DOPS   GL140183  23.778  26.303  15.239  0.0413 -0.0402  0.1577
 3425DOPS   GL240184  23.762  25.944  15.262  0.0697  0.1172 -0.0491
 3425DOPS   C1A40185  23.598  26.402  14.792  0.0138 -0.0728  0.1841
 3425DOPS   D2A40186  23.455  26.488  14.409 -0.0925 -0.1951  0.4248
 3425DOPS   C3A40187  23.110  26.512  14.131 -0.2711  0.0491 -0.1054
 3425DOPS   C4A40188  22.726  26.701  13.961 -0.2371  0.2623  0.1593
 3425DOPS   C1B40189  23.599  25.926  14.831 -0.1654 -0.1770 -0.0793
 3425DOPS   D2B40190  23.404  25.745  14.481 -0.0384 -0.0567  0.0105
 3425DOPS   C3B40191  23.259  26.058  14.172 -0.1269 -0.0594  0.2223
 3425DOPS   C4B40192  22.854  26.096  13.924 -0.0753 -0.0133  0.3775
 3426DOPC   NC340193  26.876  26.308  16.002  0.2817 -0.0546  0.1704
 3426DOPC   PO440194  26.934  25.904  16.008  0.0880 -0.1700 -0.0179
 3426DOPC   GL140195  27.044  25.974  15.584  0.7375 -0.3601 -0.1375
 3426DOPC   GL240196  27.157  25.709  15.546  0.0289  0.5247  0.0883
 3426DOPC   C1A40197  26.880  25.971  15.160 -0.2934 -0.2464  0.2655
 3426DOPC   D2A40198  26.717  25.648  14.878 -0.1136 -0.0176  0.0800
 3426DOPC   C3A40199  26.773  25.367  14.504  0.2749  0.1688 -0.0153
 3426DOPC   C4A40200  26.629  25.233  14.069  0.0415 -0.0595  0.2167
 3426DOPC   C1B40201  27.351  25.879  15.141  0.4199 -0.1427  0.3554
 3426DOPC   D2B40202  27.389  26.161  14.768 -0.0683 -0.0753  0.0531
 3426DOPC   C3B40203  27.239  26.370  14.335  0.0499 -0.0897  0.0906
 3426DOPC   C4B40204  27.229  26.463  13.873  0.1104  0.2203 -0.1543
 3427DOPE   NH340205  33.662  31.814  16.158  0.0560  0.1679  0.0012
 3427DOPE   PO440206  33.515  31.910  15.918 -0.6015 -0.0691 -0.1713
 3427DOPE   GL140207  33.626  31.837  15.586 -0.0215  0.0178 -0.1447
 3427DOPE   GL240208  33.681  32.116  15.460 -0.0593  0.0211 -0.0411
 3427DOPE   C1A40209  33.381  31.737  15.168  0.1012  0.1658 -0.0225
 3427DOPE   D2A40210  33.116  31.675  14.832  0.0853  0.0834  0.0634
 3427DOPE   C3A40211  33.131  31.817  14.420 -0.3055 -0.1544 -0.0499
 3427DOPE   C4A40212  33.452  31.874  14.115  0.2634  0.0278  0.2994
 3427DOPE   C1B40213  33.672  32.183  15.085  0.0055  0.0334  0.2396
 3427DOPE   D2B40214  33.502  31.985  14.683 -0.3164 -0.2795  0.0573
 3427DOPE   C3B40215  33.319  32.289  14.380  0.0892  0.1205 -0.1159
 3427DOPE   C4B40216  33.136  32.335  13.936  0.0586 -0.1166 -0.0490
 3428POSM   NC340217  30.284  33.056  16.662 -0.0267  0.0264 -0.2594
 3428POSM   PO440218  30.567  32.816  16.474  0.1818 -0.0066  0.0142
 3428POSM   AM140219  30.384  32.645  16.218  0.1776  0.1722  0.0818
 3428POSM   AM240220  30.303  32.724  15.990  0.0360  0.1802 -0.0134
 3428POSM   T1A40221  30.217  32.258  15.939 -0.1604  0.1981 -0.0301
 3428POSM   C2A40222  29.961  31.874  16.062  0.0770 -0.0241  0.2557
 3428POSM   C3A40223  29.557  31.675  16.107  0.0823  0.5177  0.1394
 3428POSM   C1B40224  30.312  32.831  15.707  0.1785  0.0359  0.0416
 3428POSM   D2B40225  30.101  32.883  15.269  0.0864  0.0850 -0.0327
 3428POSM   C3B40226  29.973  33.331  15.365 -0.1609  0.1269 -0.0468
 3428POSM   C4B40227  30.034  33.779  15.214  0.1561  0.2185  0.0192
 3429DOPE   NH340228  28.125  33.070  16.337  0.0286  0.1464  0.2579
 3429DOPE   PO440229  27.956  33.079  16.073  0.0012 -0.3049  0.2848
 3429DOPE   GL140230  28.026  32.929  15.792  0.1933  0.0558  0.4543
 3429DOPE   GL240231  27.995  32.638  15.775  0.1907 -0.1692 -0.1113
 3429DOPE   C1A40232  27.842  32.879  15.395 -0.1669  0.3020 -0.4706
 3429DOPE   D2A40233  27.830  32.677  15.014  0.1259 -0.0876  0.1532
 3429DOPE   C3A40234  27.964  32.303  14.739 -0.1964  0.1131  0.0063
 3429DOPE   C4A40235  28.316  32.319  14.433  0.0737  0.0637  0.0613
 3429DOPE   C1B40236  28.143  32.488  15.390 -0.1012 -0.2306  0.1005
 3429DOPE   D2B40237  28.302  32.238  15.050 -0.0719  0.1015  0.2402
 3429DOPE   C3B40238  28.300  31.825  14.816 -0.0544  0.1332 -0.1177
 3429DOPE   C4B40239  27.900  31.802  14.544  0.0913 -0.6175 -0.1590
 3430POSM   NC340240  30.935  32.427  16.401  0.0594  0.0346  0.0996
 3430POSM   PO440241  31.214  32.312  16.146 -0.2454 -0.0737 -0.0891
 3430POSM   AM140242  31.123  32.463  15.888  0.1550  0.0285  0.3770
 3430POSM   AM240243  31.226  32.505  15.632  0.1262 -0.0127  0.1769
 3430POSM   T1A40244  30.721  32.592  15.589 -0.0573 -0.0914  0.2328
 3430POSM   C2A40245  30.550  32.576  15.190 -0.0650  0.0348 -0.0038
 3430POSM   C3A40246  30.175  32.487  14.946 -0.0385  0.1860  0.2122
 3430POSM   C1B40247  31.109  32.609  15.326 -0.1123 -0.0139  0.1393
 3430POSM   D2B40248  31.019  32.708  14.852 -0.0018  0.2887  0.2702
 3430POSM   C3B40249  31.272  32.455  14.568 -0.1327 -0.0475  0.1171
 3430POSM   C4B40250  31.653  32.162  14.562  0.0762 -0.3129  0.2671
 3431DOPC   NC340251  31.398  28.365  16.508 -0.1948 -0.0543 -0.4753
 3431DOPC   PO440252  31.203  28.696  16.545 -0.3019 -0.1920  0.0606
 3431DOPC   GL140253  31.071  28.666  16.115 -0.3034 -0.0519 -0.1275
 3431DOPC   GL240254  31.114  28.374  16.108  0.0379  0.0591  0.3960
 3431DOPC   C1A40255  31.380  28.630  15.718 -0.2664 -0.1216 -0.2055
 3431DOPC   D2A40256  31.686  28.326  15.502  0.3377  0.2036 -0.1944
 3431DOPC   C3A40257  31.813  28.108  15.169  0.2626 -0.0452  0.0630
 3431DOPC   C4A40258  31.943  28.159  14.715 -0.0937 -0.1968  0.2092
 3431DOPC   C1B40259  31.186  28.061  15.744 -0.2416 -0.3666 -0.0483
 3431DOPC   D2B40260  31.469  27.866  15.422 -0.0265  0.1391  0.4612
 3431DOPC   C3B40261  31.471  27.739  14.971  0.3973  0.0559  0.1029
 3431DOPC   C4B40262  31.518  27.923  14.492 -0.0490 -0.3961 -0.1007
 3432DOPE   NH340263  30.554  33.230  16.190 -0.0127  0.0953  0.3067
 3432DOPE   PO440264  30.709  33.455  16.022 -0.0277  0.4010 -0.0688
 3432DOPE   GL140265  30.480  33.758  16.055  0.0714  0.1488  0.3630
 3432DOPE   GL240266  30.660  34.078  15.968 -0.0621  0.2819 -0.0694
 3432DOPE   C1A40267  30.197  33.806  15.701  0.0568  0.1596 -0.0625
 3432DOPE   D2A40268  29.796  33.652  15.675  0.0207  0.0088 -0.0350
 3432DOPE   C3A40269  29.520  33.562  15.312 -0.0683  0.0661 -0.1346
 3432DOPE   C4A40270  29.240  33.534  14.905 -0.0127  0.1234  0.1081
 3432DOPE   C1B40271  30.298  34.278  15.777  0.0682  0.1128  0.0234
 3432DOPE   D2B40272  30.201  34.302  15.323 -0.2562 -0.1071  0.1447
 3432DOPE   C3B40273  29.903  34.531  15.194  0.0122  0.1049  0.0437
 3432DOPE   C4B40274  29.808  34.905  14.940  0.0502  0.1284  0.0421
 3433POSM   NC340275  30.524  23.955  16.227  0.0880  0.1715 -0.0379
 3433POSM   PO440276  30.705  23.583  16.306 -0.1340  0.2186 -0.0280
 3433POSM   AM140277  30.746  23.522  15.977  0.2116  0.0033 -0.2686
 3433POSM   AM240278  30.759  23.695  15.779  0.2700 -0.2162 -0.1080
 3433POSM   T1A40279  30.729  23.229  15.572 -0.2946  0.0842  0.0610
 3433POSM   C2A40280  30.653  23.214  15.146 -0.2118  0.3599 -0.2663
 3433POSM   C3A40281  30.817  23.328  14.756 -0.3821 -0.3690 -0.1075
 3433POSM   C1B40282  30.723  23.943  15.539 -0.0166 -0.0974  0.1998
 3433POSM   D2B40283  30.754  24.105  15.090 -0.0673  0.0503  0.0692
 3433POSM   C3B40284  30.683  23.950  14.688 -0.0144  0.2726  0.6205
 3433POSM   C4B40285  30.744  23.624  14.341 -0.0609  0.3306  0.1845
 3434DOPE   NH340286  33.035  33.562  16.163 -0.0704 -0.0714 -0.0935
 3434DOPE   PO440287  33.077  33.352  15.899  0.1426 -0.1337 -0.1130
 3434DOPE   GL140288  32.895  33.336  15.480  0.1238 -0.4468  0.1936
 3434DOPE   GL240289  32.921  33.610  15.527 -0.1702 -0.1069  0.2116
 3434DOPE   C1A40290  32.561  33.475  15.171 -0.0267  0.0102  0.0618
 3434DOPE   D2A40291  32.101  33.616  14.966 -0.2002  0.1372 -0.1050
 3434DOPE   C3A40292  32.387  33.601  14.623  0.2173 -0.3536 -0.1120
 3434DOPE   C4A40293  32.858  33.686  14.663  0.0059  0.1996  0.2959
 3434DOPE   C1B40294  32.829  33.884  15.139 -0.3201  0.3537 -0.0205
 3434DOPE   D2B40295  32.822  34.188  14.820 -0.1243 -0.2075 -0.1831
 3434DOPE   C3B40296  32.612  34.086  14.420 -0.1148 -0.3440 -0.3067
 3434DOPE   C4B40297  32.223  34.066  14.206  0.2057 -0.0820 -0.1935
 3435DOPE   NH340298  24.951  27.131  15.851  0.1851 -0.1622  0.3975
 3435DOPE   PO440299  24.663  27.180  15.745  0.0500  0.1659  0.1111
 3435DOPE   GL140300  24.493  27.303  15.372  0.3411  0.0032  0.2572
 3435DOPE   GL240301  24.469  26.981  15.274 -0.1624 -0.0096  0.2079
 3435DOPE   C1A40302  24.266  27.703  15.290 -0.1086  0.3094 -0.1986
 3435DOPE   D2A40303  24.180  28.079  15.174 -0.2073 -0.0980 -0.1456
 3435DOPE   C3A40304  23.825  28.180  14.856 -0.1062 -0.0899  0.1826
 3435DOPE   C4A40305  23.657  28.032  14.466 -0.0807 -0.1193 -0.1266
 3435DOPE   C1B40306  24.611  26.776  14.866  0.1005 -0.3205  0.1436
 3435DOPE   D2B40307  24.835  27.069  14.537  0.1936 -0.1539  0.1244
 3435DOPE   C3B40308  24.802  27.001  14.117  0.1213 -0.0447  0.2547
 3435DOPE   C4B40309  25.143  27.066  13.811 -0.0207 -0.1960  0.1141
 3436DOPE   NH340310  32.020  30.034  16.302  0.0741  0.1815  0.1501
 3436DOPE   PO440311  31.828  30.000  16.087  0.0201  0.0546  0.2440
 3436DOPE   GL140312  31.863  29.919  15.777  0.1342 -0.3599  0.2775
 3436DOPE   GL240313  31.881  30.147  15.579  0.2277 -0.0364 -0.0530
 3436DOPE   C1A40314  31.528  29.858  15.407 -0.1123 -0.0190  0.2412
 3436DOPE   D2A40315  31.323  30.186  15.150  0.0902 -0.1684  0.0068
 3436DOPE   C3A40316  30.961  30.436  15.269 -0.0138 -0.1993 -0.3770
 3436DOPE   C4A40317  30.752  30.846  15.422  0.0305  0.2229  0.2180
 3436DOPE   C1B40318  31.885  30.227  15.164  0.1202  0.0450 -0.1146
 3436DOPE   D2B40319  31.628  30.315  14.795 -0.1816 -0.1037 -0.1045
 3436DOPE   C3B40320  31.302  30.575  14.771 -0.1498 -0.0534 -0.2609
 3436DOPE   C4B40321  30.798  30.567  14.780 -0.2614 -0.1868  0.2733
 3437DOPE   NH340322  25.087  24.165  15.615 -0.1586  0.3085 -0.0763
 3437DOPE   PO440323  24.878  24.110  15.756 -0.1725  0.2805  0.3555
 3437DOPE   GL140324  24.698  23.917  15.422  0.1282  0.2925  0.0745
 3437DOPE   GL240325  24.883  23.781  15.274  0.0065 -0.0928  0.1134
 3437DOPE   C1A40326  24.360  23.727  15.141 -0.0412 -0.0062 -0.3566
 3437DOPE   D2A40327  23.960  23.483  15.237  0.1024  0.1956 -0.1950
 3437DOPE   C3A40328  23.730  23.134  15.088  0.2422 -0.0085  0.0096
 3437DOPE   C4A40329  23.517  22.891  14.693 -0.0578 -0.4137  0.2495
 3437DOPE   C1B40330  24.704  23.401  15.065 -0.0582 -0.0406  0.3960
 3437DOPE   D2B40331  24.908  23.181  14.744 -0.1914 -0.0429  0.1151
 3437DOPE   C3B40332  24.914  23.125  14.307  0.2213 -0.0751  0.1154
 3437DOPE   C4B40333  24.705  22.817  14.034 -0.0901  0.1484 -0.1563
 3438POSM   NC340334  33.057  24.973  16.399  0.3203 -0.0589  0.1933
 3438POSM   PO440335  32.821  25.278  16.440 -0.2604  0.1253 -0.0789
 3438POSM   AM140336  32.762  25.516  16.230  0.1277 -0.2261  0.1433
 3438POSM   AM240337  32.628  25.533  15.945  0.1341  0.4422 -0.2196
 3438POSM   T1A40338  32.605  25.996  16.095  0.0257 -0.1507 -0.3876
 3438POSM   C2A40339  32.855  26.319  15.915  0.1056 -0.0389  0.0779
 3438POSM   C3A40340  32.860  26.432  15.512  0.0844 -0.0934 -0.0207
 3438POSM   C1B40341  32.644  25.396  15.645 -0.2242 -0.2082 -0.3871
 3438POSM   D2B40342  32.598  25.310  15.216  0.0020 -0.1481 -0.1569
 3438POSM   C3B40343  32.610  25.693  14.893  0.0785  0.2958  0.1787
 3438POSM   C4B40344  32.415  26.056  14.646 -0.2540 -0.0588 -0.0178
 3439DOPE   NH340345  32.036  31.881  16.041  0.1234  0.1121  0.1705
 3439DOPE   PO440346  31.839  31.934  15.787  0.1941  0.2954 -0.0598
 3439DOPE   GL140347  31.957  31.546  15.567 -0.0656 -0.1137 -0.3365
 3439DOPE   GL240348  32.004  31.730  15.385 -0.3905  0.2021 -0.3018
 3439DOPE   C1A40349  31.951  31.114  15.384  0.2966 -0.1552 -0.0960
 3439DOPE   D2A40350  31.736  30.749  15.239 -0.0787  0.0515  0.0840
 3439DOPE   C3A40351  31.438  30.496  15.517 -0.3981 -0.2047  0.1403
 3439DOPE   C4A40352  31.092  30.210  15.719 -0.0795 -0.1338 -0.2195
 3439DOPE   C1B40353  32.098  31.849  14.957  0.0582  0.3655 -0.0833
 3439DOPE   D2B40354  32.115  31.768  14.525  0.1626  0.2065  0.0432
 3439DOPE   C3B40355  31.974  31.593  14.138 -0.4055 -0.0144 -0.0653
 3439DOPE   C4B40356  32.045  31.440  13.727 -0.1366 -0.0425 -0.2081
 3440DOPE   NH340357  32.049  34.161  16.208 -0.0321  0.1689 -0.0073
 3440DOPE   PO440358  32.120  33.957  15.978 -0.3846  0.0357 -0.1391
 3440DOPE   GL140359  32.245  34.383  15.903 -0.1476  0.2184 -0.0608
 3440DOPE   GL240360  32.531  34.465  15.850 -0.2869  0.1512 -0.1526
 3440DOPE   C1A40361  32.112  34.426  15.464  0.1519  0.1565 -0.3467
 3440DOPE   D2A40362  32.252  34.540  15.044  0.2367 -0.0755 -0.0603
 3440DOPE   C3A40363  32.481  34.456  14.698  0.2665  0.0799  0.1079
 3440DOPE   C4A40364  32.735  34.517  14.324 -0.3124  0.0944  0.3922
 3440DOPE   C1B40365  32.929  34.660  15.657 -0.0318  0.2392  0.2241
 3440DOPE   D2B40366  32.995  35.079  15.466  0.3518  0.0443  0.1565
 3440DOPE   C3B40367  33.059  35.081  14.999  0.0036 -0.1407  0.0919
 3440DOPE   C4B40368  33.228  35.012  14.608  0.1040  0.2430 -0.1509
 3441POSM   NC340369  31.910  26.713  16.968 -0.3203 -0.0706 -0.0398
 3441POSM   PO440370  31.960  27.058  16.857  0.3049  0.2166 -0.0223
 3441POSM   AM140371  31.749  26.983  16.616 -0.4050 -0.2635 -0.1269
 3441POSM   AM240372  31.519  27.130  16.512  0.1280  0.2019  0.2596
 3441POSM   T1A40373  31.778  26.709  16.174  0.1495  0.1529 -0.1168
 3441POSM   C2A40374  31.943  26.385  15.900  0.1212  0.0887  0.2398
 3441POSM   C3A40375  32.362  26.255  15.771  0.2134  0.0012  0.0264
 3441POSM   C1B40376  31.520  27.139  16.161  0.0139 -0.0954 -0.0993
 3441POSM   D2B40377  31.456  27.415  15.819  0.0673  0.0313  0.5277
 3441POSM   C3B40378  31.766  27.221  15.514  0.0521  0.4301 -0.2398
 3441POSM   C4B40379  32.133  27.115  15.242 -0.2041 -0.2604  0.1289
 3442DOPC   NC340380  26.585  31.540  16.140  0.1006 -0.1549  0.1560
 3442DOPC   PO440381  26.995  31.585  16.012 -0.2901 -0.0344  0.1463
 3442DOPC   GL140382  26.850  31.542  15.685 -0.0256  0.1853  0.1979
 3442DOPC   GL240383  26.602  31.723  15.680  0.1482  0.2888 -0.0890
 3442DOPC   C1A40384  26.728  31.201  15.395  0.0296 -0.0977  0.0482
 3442DOPC   D2A40385  26.717  30.840  15.100 -0.0784 -0.2109 -0.1026
 3442DOPC   C3A40386  26.633  31.082  14.717 -0.0154  0.0769  0.0816
 3442DOPC   C4A40387  26.331  31.164  14.388 -0.1422  0.1964 -0.5298
 3442DOPC   C1B40388  26.608  31.612  15.173 -0.3118 -0.0773 -0.0914
 3442DOPC   D2B40389  26.451  31.547  14.773  0.2057 -0.0295  0.1093
 3442DOPC   C3B40390  26.779  31.581  14.419 -0.1640 -0.0315 -0.1562
 3442DOPC   C4B40391  26.813  31.198  14.152 -0.3166 -0.2033 -0.2677
 3443DOPE   NH340392  25.085  25.121  15.473 -0.0735 -0.0737  0.2318
 3443DOPE   PO440393  24.772  25.096  15.419 -0.0211  0.1415 -0.1016
 3443DOPE   GL140394  24.924  24.924  15.073 -0.6366 -0.5251 -0.1769
 3443DOPE   GL240395  25.042  25.226  14.937 -0.0701  0.1137  0.2707
 3443DOPE   C1A40396  25.071  24.779  14.663 -0.3686 -0.2237 -0.0486
 3443DOPE   D2A40397  25.126  24.830  14.212  0.1204 -0.0526 -0.2914
 3443DOPE   C3A40398  25.022  25.169  13.898  0.0968 -0.0017  0.1404
 3443DOPE   C4A40399  25.154  25.334  13.498  0.1388 -0.1169  0.0520
 3443DOPE   C1B40400  25.070  25.487  14.571 -0.2502  0.0742  0.1369
 3443DOPE   D2B40401  25.050  25.947  14.426 -0.1430 -0.0487  0.0603
 3443DOPE   C3B40402  25.413  26.042  14.098 -0.0362  0.3038  0.0938
 3443DOPE   C4B40403  25.767  26.301  14.164  0.0130  0.0568  0.0716
 3444DOPC   NC340404  34.098  28.600  15.853  0.1361  0.2381  0.3440
 3444DOPC   PO440405  33.733  28.544  15.738 -0.5523 -0.0383  0.0445
 3444DOPC   GL140406  33.682  28.668  15.431 -0.2302  0.4004  0.1637
 3444DOPC   GL240407  33.388  28.505  15.378 -0.0815 -0.0051 -0.2072
 3444DOPC   C1A40408  33.547  29.023  15.130 -0.1135  0.2469  0.0413
 3444DOPC   D2A40409  33.601  29.152  14.709 -0.3131  0.4521  0.0114
 3444DOPC   C3A40410  33.321  28.950  14.475 -0.2191 -0.0476  0.4096
 3444DOPC   C4A40411  33.118  28.790  14.067  0.0372  0.2687 -0.0803
 3444DOPC   C1B40412  33.415  28.540  14.976 -0.0425  0.1318  0.1712
 3444DOPC   D2B40413  33.690  28.645  14.595 -0.1854  0.0374 -0.0578
 3444DOPC   C3B40414  33.638  28.706  14.128 -0.0928 -0.2181  0.0789
 3444DOPC   C4B40415  33.639  28.544  13.676 -0.3672  0.4231  0.0274
 3445POSM   NC340416  25.086  23.239  15.981 -0.2009 -0.4864  0.2057
 3445POSM   PO440417  25.004  22.862  15.864 -0.1106 -0.1245 -0.0653
 3445POSM   AM140418  24.822  22.936  15.606 -0.6008 -0.0476  0.1286
 3445POSM   AM240419  24.942  22.948  15.316 -0.0757  0.1282 -0.2356
 3445POSM   T1A40420  24.441  22.939  15.288  0.3540  0.0204 -0.0954
 3445POSM   C2A40421  24.380  23.127  14.919 -0.1653 -0.1269  0.0825
 3445POSM   C3A40422  24.007  23.295  14.711 -0.3274 -0.1226  0.1686
 3445POSM   C1B40423  24.842  22.755  15.061 -0.0934 -0.5412 -0.2881
 3445POSM   D2B40424  24.770  22.728  14.631 -0.0173  0.0549  0.1213
 3445POSM   C3B40425  24.377  22.872  14.459  0.2930  0.1248 -0.2104
 3445POSM   C4B40426  23.913  22.958  14.333 -0.1051 -0.3329  0.0097
 3446DOPE   NH340427  31.368  25.491  16.368  0.0374 -0.0337 -0.4146
 3446DOPE   PO440428  31.317  25.771  16.517 -0.4607 -0.2075  0.2566
 3446DOPE   GL140429  31.425  25.892  16.126 -0.2860 -0.4360  0.1284
 3446DOPE   GL240430  31.652  26.057  16.206 -0.3934  0.0867 -0.2289
 3446DOPE   C1A40431  31.591  25.970  15.664 -0.0305 -0.0597  0.0839
 3446DOPE   D2A40432  31.559  25.967  15.215  0.1774  0.1768 -0.1019
 3446DOPE   C3A40433  31.266  25.835  14.900 -0.0347 -0.0688  0.2838
 3446DOPE   C4A40434  30.962  25.729  14.527  0.0709  0.2146  0.1704
 3446DOPE   C1B40435  32.101  25.974  16.067 -0.1472  0.1974 -0.2133
 3446DOPE   D2B40436  32.304  25.789  15.685 -0.0261 -0.3060 -0.1824
 3446DOPE   C3B40437  32.022  26.058  15.386 -0.0434  0.1571  0.1129
 3446DOPE   C4B40438  31.703  26.428  15.311  0.3569  0.2509 -0.1554
 3447DOPE   NH340439  33.441  27.356  16.180  0.0181  0.1805 -0.3996
 3447DOPE   PO440440  33.271  27.079  16.101  0.1300 -0.1881  0.0217
 3447DOPE   GL140441  33.010  27.160  15.730 -0.2437 -0.0750  0.2246
 3447DOPE   GL240442  32.839  26.917  15.771 -0.2283  0.1061  0.2155
 3447DOPE   C1A40443  33.088  27.337  15.316 -0.1088 -0.0903  0.1465
 3447DOPE   D2A40444  33.391  27.265  15.026 -0.0824 -0.0165  0.0103
 3447DOPE   C3A40445  33.422  27.197  14.606  0.2465  0.2385 -0.0049
 3447DOPE   C4A40446  33.589  27.312  14.206  0.0355 -0.2376 -0.0013
 3447DOPE   C1B40447  32.690  26.934  15.331  0.1955 -0.1421  0.0691
 3447DOPE   D2B40448  32.728  26.640  15.021  0.1245  0.1076  0.0048
 3447DOPE   C3B40449  32.279  26.670  14.831  0.1564  0.0542  0.2943
 3447DOPE   C4B40450  31.855  26.743  14.963  0.1700 -0.0563 -0.0581
 3448POSM   NC340451  26.682  25.123  16.489  0.0142  0.2088 -0.0249
 3448POSM   PO440452  26.770  24.856  16.187  0.0973  0.3077 -0.0648
 3448POSM   AM140453  26.817  24.788  15.853 -0.1234  0.1238  0.0921
 3448POSM   AM240454  27.007  24.653  15.782  0.2909  0.1877 -0.0436
 3448POSM   T1A40455  26.922  24.914  15.371  0.3507  0.0447 -0.0891
 3448POSM   C2A40456  27.036  24.944  14.903  0.1228 -0.2015 -0.2148
 3448POSM   C3A40457  27.279  24.676  14.593  0.1090 -0.0381  0.1307
 3448POSM   C1B40458  27.171  24.567  15.532 -0.0370 -0.1783  0.2080
 3448POSM   D2B40459  27.371  24.522  15.124  0.0058  0.0959 -0.3210
 3448POSM   C3B40460  27.304  24.104  14.881  0.0622 -0.1332  0.1850
 3448POSM   C4B40461  27.406  23.792  14.556 -0.3740 -0.0334 -0.2864
 3449DOPS   CNO40462  30.785  24.400  15.914 -0.0531  0.0527 -0.0510
 3449DOPS   PO440463  30.990  24.740  15.950 -0.0284  0.0530  0.0789
 3449DOPS   GL140464  31.100  24.916  15.651  0.1401  0.4319  0.1217
 3449DOPS   GL240465  30.878  25.096  15.610 -0.3833  0.2063 -0.0036
 3449DOPS   C1A40466  31.241  25.080  15.244  0.0599 -0.0420  0.1497
 3449DOPS   D2A40467  31.182  25.265  14.859  0.2004 -0.2405 -0.2780
 3449DOPS   C3A40468  31.361  25.454  14.499 -0.1827 -0.0720 -0.0991
 3449DOPS   C4A40469  31.570  25.877  14.451  0.2173  0.0267  0.1679
 3449DOPS   C1B40470  30.860  25.510  15.394  0.1534  0.4586 -0.0089
 3449DOPS   D2B40471  31.014  25.932  15.392  0.0063 -0.1523  0.0457
 3449DOPS   C3B40472  30.737  26.313  15.401  0.2043 -0.0804 -0.0164
 3449DOPS   C4B40473  30.416  26.500  15.137  0.1336  0.1694 -0.2308
 3450DOPC   NC340474  26.488  34.646  15.811 -0.1314  0.0632  0.0087
 3450DOPC   PO440475  26.226  34.363  15.924 -0.0387  0.1105 -0.0253
 3450DOPC   GL140476  26.355  34.144  15.580 -0.0587 -0.1038 -0.2220
 3450DOPC   GL240477  26.102  33.969  15.580 -0.1678  0.1186 -0.1477
 3450DOPC   C1A40478  26.450  33.752  15.371 -0.1442  0.3673  0.1696
 3450DOPC   D2A40479  26.347  33.633  14.950 -0.0850  0.1538 -0.3236
 3450DOPC   C3A40480  26.708  33.409  14.834 -0.1836 -0.1783 -0.1318
 3450DOPC   C4A40481  27.066  33.464  14.519 -0.3445  0.1835 -0.2040
 3450DOPC   C1B40482  26.039  33.924  15.136 -0.0861  0.2037  0.1662
 3450DOPC   D2B40483  26.102  34.021  14.702  0.0755 -0.1652 -0.1867
 3450DOPC   C3B40484  26.156  34.438  14.542 -0.2267 -0.2098 -0.2521
 3450DOPC   C4B40485  25.828  34.758  14.516 -0.4855 -0.2361  0.2463
 3451POSM   NC340486  28.767  29.197  16.973 -0.0965 -0.1747  0.0604
 3451POSM   PO440487  29.009  28.950  16.844  0.0254 -0.3289  0.0064
 3451POSM   AM140488  29.043  28.777  16.552 -0.0690  0.1266  0.0651
 3451POSM   AM240489  29.080  28.789  16.306 -0.2017  0.1989 -0.0804
 3451POSM   T1A40490  28.695  28.527  16.285  0.2864  0.4867 -0.1859
 3451POSM   C2A40491  28.793  28.200  16.016  0.0248 -0.0526 -0.0142
 3451POSM   C3A40492  28.537  28.092  15.652 -0.3154 -0.1349  0.1942
 3451POSM   C1B40493  28.907  28.919  16.044  0.0885  0.2046  0.1740
 3451POSM   D2B40494  28.726  29.026  15.658  0.1864 -0.2516 -0.0682
 3451POSM   C3B40495  28.661  28.986  15.178  0.3718 -0.0794  0.1630
 3451POSM   C4B40496  28.389  29.045  14.789  0.1569 -0.2259  0.0265
 3452DOPE   NH340497  30.163  25.472  16.339 -0.2015  0.2243  0.1848
 3452DOPE   PO440498  30.259  25.239  16.101 -0.2490 -0.0833  0.2995
 3452DOPE   GL140499  30.352  25.268  15.711  0.0853  0.2399 -0.0543
 3452DOPE   GL240500  30.098  25.089  15.514 -0.3069  0.2028 -0.0091
 3452DOPE   C1A40501  30.415  25.342  15.245  0.1167 -0.1050 -0.0894
 3452DOPE   D2A40502  30.426  25.254  14.813  0.0432 -0.1813 -0.0721
 3452DOPE   C3A40503  30.303  25.406  14.367 -0.0234 -0.0125 -0.0608
 3452DOPE   C4A40504  30.282  25.720  14.034 -0.0494 -0.1839 -0.0020
 3452DOPE   C1B40505  29.836  25.135  15.108  0.0059  0.0611 -0.0025
 3452DOPE   D2B40506  29.640  25.329  14.735  0.0200 -0.0245 -0.0416
 3452DOPE   C3B40507  29.212  25.537  14.673 -0.0869  0.2023 -0.1292
 3452DOPE   C4B40508  28.745  25.503  14.562  0.0051  0.2514  0.3547
 3453DOPS   CNO40509  29.539  23.954  16.463 -0.0434  0.2179 -0.0521
 3453DOPS   PO440510  29.222  23.761  16.508 -0.3713 -0.0297 -0.0492
 3453DOPS   GL140511  29.252  23.663  16.062 -0.1084 -0.0571 -0.2738
 3453DOPS   GL240512  29.518  23.669  15.980 -0.1832  0.0673  0.0245
 3453DOPS   C1A40513  28.908  23.784  15.795 -0.3351 -0.4600 -0.0740
 3453DOPS   D2A40514  28.899  23.691  15.407  0.3011 -0.1938 -0.1401
 3453DOPS   C3A40515  29.061  24.000  15.057  0.1453  0.1736  0.0226
 3453DOPS   C4A40516  29.058  24.111  14.583 -0.2756 -0.2559  0.2130
 3453DOPS   C1B40517  29.396  23.890  15.576  0.3213 -0.1584  0.0275
 3453DOPS   D2B40518  29.074  24.212  15.521  0.1503 -0.4445 -0.1315
 3453DOPS   C3B40519  28.658  24.167  15.293 -0.2911  0.1028 -0.2470
 3453DOPS   C4B40520  28.622  23.967  14.853  0.0355  0.1097 -0.1267
 3454DOPS   CNO40521  29.298  33.343  16.686  0.0157  0.2845  0.0698
 3454DOPS   PO440522  29.266  33.051  16.457 -0.1539  0.2709  0.0307
 3454DOPS   GL140523  29.111  33.076  16.057  0.1260  0.1663  0.0991
 3454DOPS   GL240524  29.094  32.777  15.998  0.0299  0.0484  0.0356
 3454DOPS   C1A40525  29.181  33.339  15.699  0.0568 -0.1012 -0.1892
 3454DOPS   D2A40526  28.770  33.338  15.511 -0.1210  0.1772  0.1180
 3454DOPS   C3A40527  28.789  33.178  15.087  0.2099  0.1930  0.0114
 3454DOPS   C4A40528  28.583  33.246  14.652  0.1135  0.0052  0.0745
 3454DOPS   C1B40529  29.324  32.636  15.601  0.1570  0.0607 -0.0098
 3454DOPS   D2B40530  29.632  32.675  15.246 -0.1801 -0.3385  0.0012
 3454DOPS   C3B40531  29.519  32.623  14.829 -0.1308  0.0024  0.4309
 3454DOPS   C4B40532  29.929  32.743  14.611  0.2781  0.4129 -0.5145
 3455DOPE   NH340533  34.335  23.864  16.349 -0.0528 -0.2433  0.3908
 3455DOPE   PO440534  34.266  23.574  16.372 -0.0782  0.0415  0.2782
 3455DOPE   GL140535  34.602  23.585  16.068 -0.0504 -0.1551  0.1136
 3455DOPE   GL240536  34.357  23.590  15.857  0.3149 -0.2592 -0.1575
 3455DOPE   C1A40537  34.840  23.519  15.693  0.2127  0.0210  0.1041
 3455DOPE   D2A40538  34.898  23.802  15.323 -0.1100  0.0184 -0.0462
 3455DOPE   C3A40539  34.781  23.563  14.930 -0.1371 -0.0682 -0.1576
 3455DOPE   C4A40540  34.806  23.435  14.490  0.2300  0.3261 -0.0178
 3455DOPE   C1B40541  34.396  23.262  15.468 -0.0048  0.2585 -0.0938
 3455DOPE   D2B40542  34.575  22.875  15.273  0.0951  0.0376 -0.0988
 3455DOPE   C3B40543  34.217  22.769  15.026 -0.1169  0.1160  0.0161
 3455DOPE   C4B40544  33.725  22.624  14.947 -0.3091 -0.0598  0.2295
 3456DOPC   NC340545  30.231  25.880  17.017  0.1178 -0.0760 -0.0487
 3456DOPC   PO440546  30.189  25.935  16.639 -0.0908 -0.1239  0.1425
 3456DOPC   GL140547  29.896  25.911  16.460  0.1200 -0.0388 -0.3337
 3456DOPC   GL240548  29.598  25.825  16.345 -0.0515  0.1428 -0.1828
 3456DOPC   C1A40549  29.923  26.106  16.016  0.1211  0.0127 -0.1147
 3456DOPC   D2A40550  29.718  26.229  15.643 -0.2668 -0.1922  0.0995
 3456DOPC   C3A40551  29.418  26.039  15.397 -0.0069 -0.0903 -0.0181
 3456DOPC   C4A40552  29.070  25.830  15.169 -0.0043 -0.0429  0.0218
 3456DOPC   C1B40553  29.488  25.873  15.851 -0.0610 -0.0701 -0.3758
 3456DOPC   D2B40554  29.226  25.598  15.604  0.2132  0.0713  0.0500
 3456DOPC   C3B40555  28.762  25.546  15.478 -0.0934 -0.2174  0.0734
 3456DOPC   C4B40556  28.460  25.569  15.093 -0.1383  0.0707  0.1312
 3457DOPS   CNO40557  33.547  29.448  16.224 -0.0998  0.0590 -0.0765
 3457DOPS   PO440558  33.674  29.252  15.913  0.0493 -0.1773  0.2845
 3457DOPS   GL140559  33.803  29.148  15.579 -0.0588  0.3667  0.4090
 3457DOPS   GL240560  33.657  29.392  15.395  0.0049 -0.3112 -0.4339
 3457DOPS   C1A40561  34.020  28.928  15.244  0.0057  0.0121 -0.1734
 3457DOPS   D2A40562  33.923  28.522  15.005  0.0482  0.2970 -0.0112
 3457DOPS   C3A40563  34.140  28.448  14.557  0.1254 -0.0541  0.1765
 3457DOPS   C4A40564  34.117  28.637  14.117  0.0501 -0.1194  0.1397
 3457DOPS   C1B40565  33.425  29.544  15.009 -0.2358  0.0770 -0.1078
 3457DOPS   D2B40566  33.128  29.729  14.642  0.1239 -0.0849 -0.0660
 3457DOPS   C3B40567  33.232  29.412  14.409 -0.1443  0.2104 -0.0079
 3457DOPS   C4B40568  33.567  29.209  14.132  0.4253  0.1013 -0.1999
 3458DOPE   NH340569  25.975  33.955  16.063  0.0740  0.2003 -0.2024
 3458DOPE   PO440570  25.958  33.703  16.230 -0.4013  0.0896  0.1733
 3458DOPE   GL140571  26.131  33.586  15.792  0.3544 -0.1120 -0.3975
 3458DOPE   GL240572  25.991  33.364  15.792 -0.1772 -0.2005  0.0740
 3458DOPE   C1A40573  26.526  33.356  15.654  0.1556 -0.0513 -0.1874
 3458DOPE   D2A40574  26.823  33.186  15.386 -0.2023  0.2448  0.1335
 3458DOPE   C3A40575  27.107  33.463  15.137 -0.1372 -0.0058  0.1569
 3458DOPE   C4A40576  27.461  33.584  14.901  0.1488 -0.4469 -0.1819
 3458DOPE   C1B40577  26.184  32.999  15.638  0.1887 -0.0448  0.1318
 3458DOPE   D2B40578  26.607  32.748  15.560  0.0674  0.0567  0.0410
 3458DOPE   C3B40579  26.858  32.611  15.211 -0.2532  0.1905 -0.0060
 3458DOPE   C4B40580  27.059  32.490  14.796 -0.3387  0.1300  0.1650
 3459DOPE   NH340581  31.318  31.456  16.023  0.0303  0.0590  0.1974
 3459DOPE   PO440582  31.609  31.537  15.936 -0.0485  0.2627 -0.0301
 3459DOPE   GL140583  31.470  31.558  15.554 -0.2367  0.1135 -0.4075
 3459DOPE   GL240584  31.291  31.337  15.523  0.1125 -0.2496  0.0616
 3459DOPE   C1A40585  31.587  31.408  15.112 -0.2990 -0.0608 -0.3886
 3459DOPE   D2A40586  31.977  31.341  14.884  0.3940  0.0345  0.2248
 3459DOPE   C3A40587  31.965  30.913  14.803  0.2111 -0.2984  0.2782
 3459DOPE   C4A40588  32.214  30.577  15.011  0.0983 -0.0481 -0.0922
 3459DOPE   C1B40589  31.289  31.045  15.175  0.1985  0.2243 -0.0263
 3459DOPE   D2B40590  31.510  31.063  14.795  0.1639 -0.1272  0.1674
 3459DOPE   C3B40591  31.315  31.001  14.393  0.0646 -0.1633  0.2304
 3459DOPE   C4B40592  31.348  30.795  13.984 -0.1015  0.4061  0.0800
 3460DOPE   NH340593  30.171  27.805  16.541  0.2136  0.2639  0.0228
 3460DOPE   PO440594  30.252  28.138  16.442 -0.0544 -0.0521  0.1181
 3460DOPE   GL140595  30.034  27.998  16.171 -0.3397 -0.3219  0.0887
 3460DOPE   GL240596  29.844  28.157  16.043  0.0021  0.1066 -0.3486
 3460DOPE   C1A40597  30.153  27.726  15.760  0.0015  0.1163 -0.3350
 3460DOPE   D2A40598  30.115  27.286  15.659 -0.1135 -0.1078  0.0549
 3460DOPE   C3A40599  29.968  27.107  15.252 -0.2029 -0.2064  0.0514
 3460DOPE   C4A40600  29.892  27.052  14.780 -0.1854  0.3763  0.1461
 3460DOPE   C1B40601  29.941  28.216  15.612 -0.1293  0.0293 -0.1371
 3460DOPE   D2B40602  29.978  27.904  15.325  0.4002 -0.1027  0.2809
 3460DOPE   C3B40603  29.984  28.107  14.928 -0.1090  0.0260  0.0945
 3460DOPE   C4B40604  29.802  28.507  14.719  0.3704 -0.1721  0.1662
 3461DOPC   NC340605  34.101   0.537  15.757  0.2922  0.2032 -0.0988
 3461DOPC   PO440606  34.249   0.384  16.119 -0.1205  0.0331  0.1470
 3461DOPC   GL140607  34.393   0.187  15.801 -0.1911 -0.1342 -0.0150
 3461DOPC   GL240608  34.564   0.374  15.699 -0.0686  0.1012 -0.1852
 3461DOPC   C1A40609  34.393  -0.232  15.668 -0.0022  0.1301  0.0535
 3461DOPC   D2A40610  34.399  -0.480  15.282  0.1030 -0.0102 -0.0048
 3461DOPC   C3A40611  34.748  -0.785  15.233  0.0406 -0.0378  0.2116
 3461DOPC   C4A40612  35.101  -0.806  14.988  0.0706 -0.1180  0.0131
 3461DOPC   C1B40613  34.621   0.091  15.314  0.5007 -0.0997  0.1889
 3461DOPC   D2B40614  34.600  -0.173  14.957  0.0543 -0.3416  0.2353
 3461DOPC   C3B40615  34.977  -0.068  14.657 -0.2728  0.1781 -0.1243
 3461DOPC   C4B40616  35.213   0.333  14.536 -0.2750  0.1114 -0.1141
 3462POSM   NC340617  25.272  30.051  15.991  0.1918 -0.0198 -0.0620
 3462POSM   PO440618  25.388  29.786  15.766 -0.1454 -0.1874 -0.0352
 3462POSM   AM140619  25.456  29.711  15.445  0.3788  0.1427  0.1631
 3462POSM   AM240620  25.317  29.801  15.225  0.1043 -0.6405  0.3835
 3462POSM   T1A40621  25.796  29.640  15.068 -0.0482 -0.3061 -0.1816
 3462POSM   C2A40622  26.004  29.528  14.656 -0.2004 -0.1372 -0.0254
 3462POSM   C3A40623  26.359  29.614  14.425  0.2026 -0.4306 -0.0016
 3462POSM   C1B40624  25.281  29.496  15.074 -0.0436  0.0379  0.1959
 3462POSM   D2B40625  25.089  29.091  15.015 -0.1186 -0.0978  0.1014
 3462POSM   C3B40626  25.200  28.730  15.289  0.1357 -0.0094 -0.0008
 3462POSM   C4B40627  25.006  28.382  15.613 -0.0997  0.2441 -0.0455
 3463POSM   NC340628  23.964  31.842  15.791 -0.0123  0.0598 -0.0215
 3463POSM   PO440629  23.580  31.968  15.904 -0.3108 -0.1220  0.1663
 3463POSM   AM140630  23.582  32.062  15.590  0.0932 -0.0573 -0.2585
 3463POSM   AM240631  23.755  32.099  15.385  0.2057 -0.1095 -0.0076
 3463POSM   T1A40632  23.443  32.457  15.292 -0.0580 -0.4237 -0.0108
 3463POSM   C2A40633  23.099  32.761  15.210  0.0362 -0.1938  0.0842
 3463POSM   C3A40634  22.695  32.893  15.406  0.1009  0.3853  0.1392
 3463POSM   C1B40635  23.672  32.064  15.053 -0.1603 -0.3421 -0.2893
 3463POSM   D2B40636  23.265  32.155  14.843  0.0351  0.1090 -0.1347
 3463POSM   C3B40637  23.315  32.393  14.446 -0.3411 -0.1647  0.0055
 3463POSM   C4B40638  23.296  32.656  14.085  0.1621 -0.0013 -0.2411
 3464DOPC   NC340639  28.566  27.012  16.290 -0.0135  0.0853 -0.2136
 3464DOPC   PO440640  28.915  27.128  16.461  0.1114 -0.2638 -0.0965
 3464DOPC   GL140641  29.006  27.146  16.030  0.1572 -0.3561  0.1518
 3464DOPC   GL240642  28.774  27.214  15.885 -0.1964  0.2110 -0.3961
 3464DOPC   C1A40643  29.085  27.004  15.576  0.0001  0.2333  0.2740
 3464DOPC   D2A40644  29.077  26.855  15.162 -0.0597 -0.1831  0.2924
 3464DOPC   C3A40645  28.762  26.901  14.777  0.0441 -0.1474 -0.1767
 3464DOPC   C4A40646  28.757  27.253  14.419 -0.0403  0.2966  0.2490
 3464DOPC   C1B40647  28.809  27.593  15.654 -0.1395  0.1716 -0.0490
 3464DOPC   D2B40648  28.784  27.781  15.251  0.0293 -0.1527  0.3285
 3464DOPC   C3B40649  28.481  27.579  14.982 -0.0253 -0.0455  0.2315
 3464DOPC   C4B40650  28.021  27.524  14.996  0.1378  0.1774 -0.2214
 3465DOPC   NC340651  31.019  27.936  16.599 -0.0311  0.2030 -0.0026
 3465DOPC   PO440652  30.800  28.183  16.439 -0.0967  0.0010  0.0304
 3465DOPC   GL140653  30.688  28.382  16.044 -0.0588  0.0450 -0.1051
 3465DOPC   GL240654  30.402  28.374  16.036  0.2157  0.2261 -0.3685
 3465DOPC   C1A40655  30.791  28.742  15.774 -0.2747 -0.4037 -0.3826
 3465DOPC   D2A40656  31.075  28.755  15.366 -0.2112 -0.1601 -0.2745
 3465DOPC   C3A40657  31.413  29.057  15.355  0.1558 -0.0382  0.0867
 3465DOPC   C4A40658  31.717  29.038  15.686 -0.0527  0.0484 -0.3735
 3465DOPC   C1B40659  30.383  28.475  15.611  0.0262 -0.5370  0.0774
 3465DOPC   D2B40660  30.455  28.279  15.176  0.1589 -0.2074  0.2280
 3465DOPC   C3B40661  30.812  28.446  14.937 -0.0724  0.1847  0.1734
 3465DOPC   C4B40662  31.103  28.170  14.699  0.1472  0.2761 -0.4216
 3466DOPS   CNO40663  24.417  31.176  15.597 -0.0340  0.0778  0.1771
 3466DOPS   PO440664  24.393  31.580  15.626 -0.0830 -0.0039 -0.0631
 3466DOPS   GL140665  24.584  31.664  15.228 -0.1356  0.4504 -0.1303
 3466DOPS   GL240666  24.690  31.390  15.159 -0.1470  0.0165 -0.0300
 3466DOPS   C1A40667  24.999  31.693  14.963  0.1812  0.5367  0.1092
 3466DOPS   D2A40668  25.137  32.024  14.690 -0.3196 -0.1041 -0.1850
 3466DOPS   C3A40669  24.958  31.883  14.276 -0.0037 -0.1031 -0.2015
 3466DOPS   C4A40670  24.831  31.516  14.077  0.0888 -0.1644  0.3958
 3466DOPS   C1B40671  24.759  31.305  14.660 -0.0897 -0.0369 -0.1352
 3466DOPS   D2B40672  24.481  31.261  14.285  0.1160  0.1154 -0.3657
 3466DOPS   C3B40673  24.276  31.335  13.887 -0.1028  0.1124 -0.3092
 3466DOPS   C4B40674  24.056  31.347  13.456 -0.0637 -0.0445 -0.1384
 3467DOPE   NH340675  31.588  24.106  16.340 -0.0435  0.3019 -0.1390
 3467DOPE   PO440676  31.593  24.051  16.016  0.0173  0.0075 -0.0461
 3467DOPE   GL140677  31.489  24.041  15.681 -0.1567  0.0376 -0.3040
 3467DOPE   GL240678  31.199  24.103  15.744  0.0209  0.0200 -0.2124
 3467DOPE   C1A40679  31.443  24.045  15.182 -0.0325  0.2197  0.1438
 3467DOPE   D2A40680  31.149  24.265  14.894  0.1417  0.0739  0.1540
 3467DOPE   C3A40681  30.836  24.412  14.670  0.1423 -0.0832  0.0712
 3467DOPE   C4A40682  30.364  24.529  14.714 -0.2455 -0.0674  0.0146
 3467DOPE   C1B40683  31.032  24.293  15.400 -0.1894 -0.0753  0.0222
 3467DOPE   D2B40684  30.891  24.648  15.170  0.2132 -0.0123 -0.1309
 3467DOPE   C3B40685  30.814  24.971  14.834 -0.1727  0.0154 -0.0411
 3467DOPE   C4B40686  30.595  24.944  14.455 -0.2483 -0.0955  0.1727
 3468DOPS   CNO40687  32.108  28.405  16.463 -0.0815  0.1651  0.0772
 3468DOPS   PO440688  32.454  28.454  16.514  0.0392  0.0672  0.0729
 3468DOPS   GL140689  32.462  28.199  16.187  0.1360 -0.1494 -0.3232
 3468DOPS   GL240690  32.203  28.059  16.073 -0.3741  0.0763  0.0298
 3468DOPS   C1A40691  32.368  28.334  15.718 -0.2101  0.1913  0.1726
 3468DOPS   D2A40692  32.222  28.376  15.289 -0.2561 -0.0700 -0.0129
 3468DOPS   C3A40693  32.547  28.743  15.152  0.1173  0.0619 -0.2647
 3468DOPS   C4A40694  32.651  29.172  15.341  0.1215 -0.1936  0.0364
 3468DOPS   C1B40695  31.960  27.931  15.715 -0.0767  0.0153  0.4357
 3468DOPS   D2B40696  32.000  27.593  15.395 -0.0286 -0.2027  0.1537
 3468DOPS   C3B40697  32.047  27.703  14.942  0.0282  0.2419  0.0339
 3468DOPS   C4B40698  32.126  27.712  14.510  0.0725  0.0941  0.0540
 3469DOPE   NH340699  33.658  25.702  12.278 -0.0326  0.1914 -0.0141
 3469DOPE   PO440700  33.705  25.405  12.420  0.0381 -0.0703  0.3001
 3469DOPE   GL140701  34.135  25.250  12.437 -0.4866 -0.4709  0.0970
 3469DOPE   GL240702  34.140  25.292  12.111  0.3399 -0.1257 -0.2874
 3469DOPE   C1A40703  34.345  24.819  12.402 -0.1680  0.0582  0.0085
 3469DOPE   D2A40704  34.506  24.427  12.265 -0.0612  0.0223 -0.0611
 3469DOPE   C3A40705  34.862  24.386  12.513 -0.4819  0.0070  0.0662
 3469DOPE   C4A40706  35.092  24.596  12.840 -0.1296 -0.0316 -0.0284
 3469DOPE   C1B40707  34.602  25.301  12.172 -0.2698  0.1659  0.2214
 3469DOPE   D2B40708  35.014  25.214  12.049  0.0563  0.1703  0.3488
 3469DOPE   C3B40709  35.468  25.179  12.222 -0.2027 -0.1981  0.0171
 3469DOPE   C4B40710  35.740  24.926  12.399 -0.0344 -0.0165 -0.1122
 3470DOPS   CNO40711  25.014  27.316  12.360  0.3643  0.3223 -0.1365
 3470DOPS   PO440712  24.895  27.579  12.579  0.2329 -0.0800 -0.0522
 3470DOPS   GL140713  24.790  27.390  12.914  0.4917 -0.3004 -0.1046
 3470DOPS   GL240714  24.571  27.196  13.095 -0.1261  0.1934 -0.1103
 3470DOPS   C1A40715  24.949  27.348  13.286 -0.0873  0.0238 -0.1568
 3470DOPS   D2A40716  25.352  27.104  13.384  0.0055 -0.0190 -0.0143
 3470DOPS   C3A40717  25.475  26.674  13.615 -0.1198 -0.1731  0.0583
 3470DOPS   C4A40718  25.729  26.291  13.629  0.1415  0.1542  0.2499
 3470DOPS   C1B40719  24.505  26.792  13.268  0.1468 -0.1886  0.1922
 3470DOPS   D2B40720  24.219  26.490  13.455  0.1233  0.0340 -0.2141
 3470DOPS   C3B40721  24.329  26.184  13.735  0.2114 -0.3075  0.1690
 3470DOPS   C4B40722  23.910  26.125  13.953 -0.1812 -0.3469 -0.1832
 3471DOPE   NH340723  32.445  25.080  13.013  0.4457  0.0878  0.2086
 3471DOPE   PO440724  32.641  24.902  13.177 -0.4683 -0.3417  0.0458
 3471DOPE   GL140725  32.569  24.913  13.552 -0.3875 -0.1722 -0.2178
 3471DOPE   GL240726  32.766  24.650  13.687 -0.0865  0.1434 -0.2709
 3471DOPE   C1A40727  32.407  25.157  13.916 -0.2687  0.0631 -0.2566
 3471DOPE   D2A40728  32.153  25.471  14.154 -0.0053  0.0556 -0.0154
 3471DOPE   C3A40729  32.292  25.912  14.196  0.0802 -0.1434  0.3776
 3471DOPE   C4A40730  32.707  26.100  14.082 -0.1628  0.1828 -0.0240
 3471DOPE   C1B40731  32.831  25.013  13.976 -0.2433  0.1705  0.2676
 3471DOPE   D2B40732  33.277  25.119  14.095  0.1317 -0.1688  0.1642
 3471DOPE   C3B40733  33.216  25.457  14.360 -0.0843  0.1036  0.1634
 3471DOPE   C4B40734  33.563  25.771  14.481 -0.1942 -0.0101  0.0601
 3472DOPE   NH340735  33.161  25.521  12.522  0.1514 -0.0092  0.3888
 3472DOPE   PO440736  33.237  25.206  12.357 -0.0281 -0.1008  0.1783
 3472DOPE   GL140737  33.459  24.893  12.562  0.1513  0.3227  0.2918
 3472DOPE   GL240738  33.763  24.946  12.467 -0.2438  0.0892  0.0135
 3472DOPE   C1A40739  33.348  24.630  12.957  0.1115 -0.0108 -0.2684
 3472DOPE   D2A40740  33.095  24.519  13.340 -0.3696  0.3697  0.3914
 3472DOPE   C3A40741  33.187  24.306  13.768  0.1610  0.0839  0.1244
 3472DOPE   C4A40742  33.158  24.089  14.181  0.1450  0.0975 -0.0310
 3472DOPE   C1B40743  33.966  24.979  12.906  0.2897  0.2220 -0.0920
 3472DOPE   D2B40744  34.313  25.102  13.228 -0.0449 -0.1325 -0.0046
 3472DOPE   C3B40745  34.299  24.809  13.665 -0.0391  0.0164 -0.2134
 3472DOPE   C4B40746  33.963  24.589  13.921 -0.2871  0.1123 -0.0047
 3473DOPC   NC340747  32.885  24.879  12.725 -0.1819 -0.1310 -0.1855
 3473DOPC   PO440748  33.011  25.216  12.966  0.0734  0.0157  0.2160
 3473DOPC   GL140749  32.988  25.200  13.337  0.2766  0.0792  0.1775
 3473DOPC   GL240750  32.665  25.346  13.451 -0.0203  0.0573 -0.1195
 3473DOPC   C1A40751  33.211  24.919  13.607 -0.0973 -0.1364  0.0639
 3473DOPC   D2A40752  33.652  24.758  13.561  0.1307  0.0851  0.3043
 3473DOPC   C3A40753  33.841  24.562  13.202  0.0271  0.1314 -0.0296
 3473DOPC   C4A40754  33.806  24.505  12.749 -0.2158  0.2867 -0.0560
 3473DOPC   C1B40755  32.845  25.522  13.807 -0.1545  0.0029  0.1637
 3473DOPC   D2B40756  33.134  25.809  14.027  0.3035 -0.1194 -0.0537
 3473DOPC   C3B40757  33.602  25.592  14.034  0.3633 -0.1051 -0.0459
 3473DOPC   C4B40758  33.944  25.263  14.057 -0.0918 -0.2960  0.2313
 3474DOPC   NC340759  25.048  30.655  12.586 -0.3397  0.0231  0.1536
 3474DOPC   PO440760  24.875  30.819  12.241  0.0532 -0.1838 -0.0527
 3474DOPC   GL140761  25.002  31.089  12.510  0.0094  0.0367  0.1664
 3474DOPC   GL240762  24.924  31.130  12.748 -0.0119 -0.0799 -0.0734
 3474DOPC   C1A40763  25.255  31.436  12.651 -0.0710 -0.1566  0.2016
 3474DOPC   D2A40764  25.658  31.453  12.874  0.0848 -0.0971  0.0510
 3474DOPC   C3A40765  25.920  31.517  13.293  0.1964  0.1210  0.0360
 3474DOPC   C4A40766  26.104  31.694  13.672  0.0942 -0.3201 -0.0796
 3474DOPC   C1B40767  25.323  31.014  12.888  0.0071 -0.3426 -0.1574
 3474DOPC   D2B40768  25.671  31.068  13.133  0.4533  0.2685  0.0951
 3474DOPC   C3B40769  25.443  31.343  13.424  0.0213 -0.3787  0.0879
 3474DOPC   C4B40770  25.679  31.474  13.775  0.0891  0.0103 -0.3338
 3475DOPE   NH340771  22.735  31.942  12.638 -0.0234 -0.1583  0.0329
 3475DOPE   PO440772  22.846  31.672  12.533  0.1033 -0.0728 -0.2142
 3475DOPE   GL140773  22.910  31.568  12.939 -0.0350  0.0339  0.0884
 3475DOPE   GL240774  22.987  31.223  12.872 -0.1257 -0.2166 -0.0511
 3475DOPE   C1A40775  22.552  31.267  13.150  0.1747 -0.1571  0.2213
 3475DOPE   D2A40776  22.202  31.202  13.459  0.2444 -0.0627  0.1424
 3475DOPE   C3A40777  22.386  31.426  13.825  0.0669  0.0070  0.0687
 3475DOPE   C4A40778  22.421  31.586  14.206 -0.2516 -0.0738  0.0819
 3475DOPE   C1B40779  23.063  31.333  13.298 -0.1513 -0.2528  0.2337
 3475DOPE   D2B40780  23.138  31.421  13.716  0.0424 -0.1729 -0.1524
 3475DOPE   C3B40781  22.891  31.757  13.904  0.0890  0.3121  0.1656
 3475DOPE   C4B40782  22.658  32.096  14.022 -0.2747  0.3470  0.1752
 3476DOPE   NH340783  33.793  33.466  12.811  0.3027 -0.0595 -0.1192
 3476DOPE   PO440784  33.952  33.378  13.089  0.0140 -0.2540 -0.0523
 3476DOPE   GL140785  34.271  33.098  13.217  0.0137 -0.2733 -0.1552
 3476DOPE   GL240786  34.057  32.886  13.196  0.3070  0.4216  0.2234
 3476DOPE   C1A40787  34.708  33.023  13.275  0.0705  0.1987  0.2900
 3476DOPE   D2A40788  35.149  32.905  13.232  0.0093  0.0121  0.2320
 3476DOPE   C3A40789  35.448  33.189  13.347  0.1270  0.0873 -0.2335
 3476DOPE   C4A40790  35.757  33.530  13.194  0.0912 -0.0258  0.0805
 3476DOPE   C1B40791  33.905  32.648  13.522 -0.0488 -0.0958  0.2389
 3476DOPE   D2B40792  33.931  32.821  13.991 -0.2494 -0.0248  0.2577
 3476DOPE   C3B40793  34.250  32.956  14.327 -0.0193 -0.2891 -0.0108
 3476DOPE   C4B40794  34.606  33.118  14.511  0.0494  0.2467 -0.2573
 3477DOPE   NH340795  30.677  28.999  12.881 -0.0360 -0.1774  0.1737
 3477DOPE   PO440796  30.480  29.045  13.155 -0.1546  0.0399  0.0327
 3477DOPE   GL140797  30.118  28.875  13.245 -0.2142  0.2002  0.0343
 3477DOPE   GL240798  30.193  28.822  13.535  0.0367 -0.1898 -0.0432
 3477DOPE   C1A40799  29.635  28.758  13.260 -0.0907 -0.1799  0.2474
 3477DOPE   D2A40800  29.239  28.720  13.553  0.0190 -0.2647 -0.1629
 3477DOPE   C3A40801  29.336  28.704  13.996  0.3598  0.2180  0.0817
 3477DOPE   C4A40802  29.485  28.776  14.419  0.1332 -0.2075  0.0277
 3477DOPE   C1B40803  30.284  28.440  13.824  0.1222  0.0097  0.2846
 3477DOPE   D2B40804  30.190  28.138  14.117  0.2552 -0.1419 -0.1634
 3477DOPE   C3B40805  30.094  27.943  14.493  0.1065  0.0379 -0.1086
 3477DOPE   C4B40806  30.426  27.882  14.850  0.3022  0.2703  0.2982
 3478POSM   NC340807  23.460  31.466  12.706  0.0329 -0.1016 -0.2156
 3478POSM   PO440808  23.634  31.283  12.417 -0.0385 -0.0954 -0.0394
 3478POSM   AM140809  23.869  31.280  12.647  0.0199 -0.0768 -0.0985
 3478POSM   AM240810  23.835  31.263  12.933  0.0600  0.1097 -0.2922
 3478POSM   T1A40811  24.315  31.490  12.754 -0.1091  0.0592  0.0283
 3478POSM   C2A40812  24.601  31.785  13.048  0.0993  0.0084 -0.1278
 3478POSM   C3A40813  24.961  32.034  13.284 -0.1526  0.0985 -0.1441
 3478POSM   C1B40814  24.125  31.133  12.998  0.1263 -0.1509  0.5897
 3478POSM   D2B40815  24.500  31.247  13.154  0.1233  0.0827  0.0054
 3478POSM   C3B40816  24.468  31.600  13.505  0.1452  0.1118  0.0440
 3478POSM   C4B40817  24.162  31.800  13.756  0.0142  0.1795 -0.0095
 3479DOPE   NH340818  27.922  30.627  12.513 -0.0624 -0.0617  0.2776
 3479DOPE   PO440819  27.708  30.552  12.733  0.0296 -0.1644 -0.0778
 3479DOPE   GL140820  27.730  30.672  13.156  0.0984 -0.0847  0.1372
 3479DOPE   GL240821  28.037  30.521  13.106 -0.2408  0.3110 -0.0117
 3479DOPE   C1A40822  27.618  31.096  13.378  0.2998 -0.2537  0.2095
 3479DOPE   D2A40823  27.560  31.484  13.544  0.2367 -0.2455  0.0829
 3479DOPE   C3A40824  27.662  31.822  13.309  0.1031 -0.0152  0.2548
 3479DOPE   C4A40825  27.554  32.266  13.216  0.0975 -0.0081  0.0496
 3479DOPE   C1B40826  28.029  30.552  13.583  0.0448 -0.1087  0.0256
 3479DOPE   D2B40827  27.723  30.709  13.899  0.1545 -0.2759 -0.1805
 3479DOPE   C3B40828  27.540  31.154  13.948 -0.1588 -0.0849  0.0972
 3479DOPE   C4B40829  27.174  31.460  13.923 -0.1746  0.0797  0.0544
 3480POSM   NC340830  30.889  30.339  13.254 -0.0248 -0.0187  0.1809
 3480POSM   PO440831  30.849  30.714  13.094 -0.0772 -0.0966 -0.2761
 3480POSM   AM140832  30.794  30.922  13.306 -0.2388 -0.1128 -0.1469
 3480POSM   AM240833  30.890  31.118  13.497  0.0056 -0.1507  0.3684
 3480POSM   T1A40834  30.397  31.065  13.615  0.0530 -0.4022  0.1325
 3480POSM   C2A40835  30.256  31.274  14.003  0.2278 -0.1912  0.2857
 3480POSM   C3A40836  29.942  31.331  14.329 -0.2773 -0.1720 -0.3851
 3480POSM   C1B40837  30.894  30.967  13.815  0.0128 -0.3376  0.2345
 3480POSM   D2B40838  30.814  30.885  14.303  0.0112 -0.1869  0.2835
 3480POSM   C3B40839  30.899  31.107  14.682  0.2175  0.3240  0.3725
 3480POSM   C4B40840  30.788  31.283  15.086 -0.1542  0.2373  0.0227
 3481POSM   NC340841  24.280  23.142  12.119 -0.2464  0.2392 -0.0585
 3481POSM   PO440842  23.911  23.134  11.997  0.1921  0.1858 -0.1386
 3481POSM   AM140843  23.805  23.336  12.218 -0.0181 -0.2505 -0.0793
 3481POSM   AM240844  23.802  23.386  12.518 -0.0219 -0.1915  0.2131
 3481POSM   T1A40845  23.746  23.857  12.239 -0.1250  0.0688  0.1263
 3481POSM   C2A40846  23.265  24.050  12.265 -0.1240 -0.0996 -0.1555
 3481POSM   C3A40847  22.876  24.242  12.152 -0.0547 -0.2818 -0.0656
 3481POSM   C1B40848  23.807  23.567  12.737  0.0950  0.1755 -0.3877
 3481POSM   D2B40849  23.926  23.864  13.069 -0.0190 -0.0781  0.1743
 3481POSM   C3B40850  23.548  24.113  13.209 -0.1359  0.1350  0.4578
 3481POSM   C4B40851  23.172  24.232  13.386  0.0320  0.1482 -0.4656
 3482DOPC   NC340852  33.922  33.370  12.306  0.6177  0.0658 -0.2445
 3482DOPC   PO440853  33.695  33.684  12.372 -0.2082 -0.2708  0.1204
 3482DOPC   GL140854  33.395  33.577  12.585  0.0457 -0.3272 -0.0618
 3482DOPC   GL240855  33.132  33.542  12.387  0.1595  0.0267 -0.2280
 3482DOPC   C1A40856  33.228  33.309  12.944  0.2677 -0.0110  0.3277
 3482DOPC   D2A40857  33.002  33.184  13.304 -0.2864 -0.2116  0.2300
 3482DOPC   C3A40858  33.326  33.384  13.539 -0.0164 -0.1929 -0.1613
 3482DOPC   C4A40859  33.599  33.711  13.755 -0.1823  0.0718  0.1190
 3482DOPC   C1B40860  33.321  33.079  12.410  0.0868 -0.1825 -0.0047
 3482DOPC   D2B40861  33.049  32.746  12.613  0.1023  0.1352  0.1954
 3482DOPC   C3B40862  33.052  32.796  13.070  0.3056  0.0843  0.1020
 3482DOPC   C4B40863  32.995  32.661  13.523  0.0126 -0.3172 -0.1657
 3483DOPC   NC340864  30.180  31.394  12.940 -0.0306 -0.3000  0.0124
 3483DOPC   PO440865  30.044  31.716  12.743  0.2277  0.1899  0.0318
 3483DOPC   GL140866  30.409  31.992  12.906 -0.1139 -0.1086 -0.1251
 3483DOPC   GL240867  30.518  32.264  12.793 -0.1782 -0.0099  0.2243
 3483DOPC   C1A40868  30.651  32.081  13.300 -0.0600  0.1991 -0.2751
 3483DOPC   D2A40869  31.119  32.236  13.265  0.2136  0.1169  0.0927
 3483DOPC   C3A40870  31.349  32.181  13.630  0.0514 -0.0450 -0.1526
 3483DOPC   C4A40871  31.419  32.001  14.110  0.0958 -0.0060  0.1135
 3483DOPC   C1B40872  30.925  32.416  12.822  0.0711  0.1788 -0.3212
 3483DOPC   D2B40873  31.187  32.855  12.758  0.1413 -0.0228  0.1665
 3483DOPC   C3B40874  30.928  33.125  12.980  0.3334  0.3971 -0.2046
 3483DOPC   C4B40875  30.573  33.171  13.276  0.0381  0.0552  0.4636
 3484DOPC   NC340876  26.459  28.469  12.469  0.0021  0.1591 -0.0861
 3484DOPC   PO440877  26.491  28.425  12.837 -0.0201 -0.2722 -0.4679
 3484DOPC   GL140878  26.808  28.162  12.857  0.1402 -0.1199 -0.1176
 3484DOPC   GL240879  26.664  27.820  12.832  0.4856  0.1846 -0.0063
 3484DOPC   C1A40880  27.210  28.038  13.067  0.1279 -0.1162 -0.3097
 3484DOPC   D2A40881  27.591  28.150  13.257  0.0048 -0.0480  0.0462
 3484DOPC   C3A40882  27.918  27.882  13.548  0.2046 -0.0436  0.2366
 3484DOPC   C4A40883  28.224  27.574  13.737 -0.1684  0.3037  0.2110
 3484DOPC   C1B40884  26.519  27.466  12.606  0.0662 -0.1232 -0.0705
 3484DOPC   D2B40885  26.757  27.129  12.350  0.0599 -0.0158  0.2615
 3484DOPC   C3B40886  26.582  26.723  12.211  0.1110 -0.4941  0.4153
 3484DOPC   C4B40887  26.467  26.249  12.186  0.1282  0.3323  0.1264
 3485DOPE   NH340888  30.879  23.013  12.399  0.1272 -0.3192 -0.0672
 3485DOPE   PO440889  30.741  23.233  12.530 -0.0079 -0.1588  0.6264
 3485DOPE   GL140890  30.448  23.408  12.856 -0.0956  0.1249  0.1790
 3485DOPE   GL240891  30.243  23.532  12.695 -0.1510 -0.2895  0.0513
 3485DOPE   C1A40892  30.218  23.621  13.204 -0.1303 -0.1143  0.1688
 3485DOPE   D2A40893  30.124  23.728  13.623 -0.1313  0.1456  0.0538
 3485DOPE   C3A40894  30.425  23.902  13.945  0.0333 -0.0085 -0.1453
 3485DOPE   C4A40895  30.540  24.226  14.259 -0.1626  0.2536 -0.1965
 3485DOPE   C1B40896  30.200  23.959  12.689  0.0054  0.0979 -0.3615
 3485DOPE   D2B40897  30.246  24.392  12.819  0.0383  0.0096 -0.1050
 3485DOPE   C3B40898  30.521  24.206  13.179 -0.0587 -0.3406 -0.1798
 3485DOPE   C4B40899  30.891  24.129  13.461 -0.5083 -0.0887  0.0698
 3486POSM   NC340900  29.582  22.338  12.729  0.2964 -0.1777 -0.0697
 3486POSM   PO440901  29.376  22.550  13.012 -0.2955 -0.2752  0.1950
 3486POSM   AM140902  29.221  22.662  13.255  0.0522  0.2371 -0.0134
 3486POSM   AM240903  29.297  22.735  13.519  0.2520  0.0551 -0.0369
 3486POSM   T1A40904  28.785  22.736  13.443 -0.0652 -0.2380 -0.1552
 3486POSM   C2A40905  28.748  22.924  13.837 -0.3065 -0.1275 -0.2475
 3486POSM   C3A40906  28.575  22.700  14.223 -0.3126 -0.1505  0.1221
 3486POSM   C1B40907  29.218  23.021  13.714 -0.2221 -0.1425 -0.0881
 3486POSM   D2B40908  29.085  23.347  14.025 -0.0482  0.2119 -0.0793
 3486POSM   C3B40909  29.385  23.607  14.176  0.1005 -0.2777  0.3068
 3486POSM   C4B40910  29.701  23.491  14.481 -0.0715  0.2559  0.0548
 3487DOPE   NH340911  23.454  31.841  12.001 -0.0512 -0.0297  0.1285
 3487DOPE   PO440912  23.404  31.697  12.293 -0.1857 -0.1552  0.0782
 3487DOPE   GL140913  23.703  31.775  12.422 -0.3729 -0.0069  0.0514
 3487DOPE   GL240914  23.992  31.771  12.274 -0.1088  0.2124  0.0728
 3487DOPE   C1A40915  23.727  31.899  12.860  0.0544 -0.1783  0.1486
 3487DOPE   D2A40916  23.680  32.300  13.055  0.1069 -0.1794  0.1703
 3487DOPE   C3A40917  23.948  32.594  13.286 -0.0915 -0.2235 -0.1561
 3487DOPE   C4A40918  24.367  32.817  13.416 -0.2303 -0.1851  0.0744
 3487DOPE   C1B40919  24.171  32.007  12.650 -0.1602  0.2125  0.1074
 3487DOPE   D2B40920  24.192  32.221  13.024 -0.1443 -0.1316  0.4402
 3487DOPE   C3B40921  24.444  32.128  13.388 -0.1263  0.3676 -0.1524
 3487DOPE   C4B40922  24.667  32.004  13.762  0.2933 -0.1575  0.1942
 3488DOPC   NC340923  32.371  24.109  12.571  0.2480  0.1814  0.1487
 3488DOPC   PO440924  32.140  23.812  12.744  0.0867  0.2817  0.1472
 3488DOPC   GL140925  32.446  23.722  12.918  0.2750  0.1008 -0.1478
 3488DOPC   GL240926  32.737  23.711  12.843 -0.0306  0.1735 -0.1959
 3488DOPC   C1A40927  32.585  23.378  13.258  0.1470  0.1350 -0.1570
 3488DOPC   D2A40928  32.630  23.269  13.694 -0.0855 -0.3038  0.1951
 3488DOPC   C3A40929  32.385  22.882  13.742  0.1695  0.0735  0.2287
 3488DOPC   C4A40930  32.046  22.615  13.740  0.0133  0.2291  0.1745
 3488DOPC   C1B40931  32.925  23.861  13.192  0.0939  0.0865 -0.0274
 3488DOPC   D2B40932  33.320  24.107  13.224  0.2789  0.1671 -0.3616
 3488DOPC   C3B40933  33.721  23.877  13.422  0.0767  0.1902 -0.1443
 3488DOPC   C4B40934  34.018  23.548  13.304 -0.0369  0.1409 -0.1283
 3489POSM   NC340935  30.377  22.725  13.068 -0.0167 -0.1635 -0.1629
 3489POSM   PO440936  30.646  22.773  12.770 -0.0016  0.0222 -0.1067
 3489POSM   AM140937  30.889  22.916  12.922  0.0766 -0.2152 -0.0463
 3489POSM   AM240938  30.850  23.177  13.018 -0.1747 -0.0250  0.0451
 3489POSM   T1A40939  31.323  22.897  13.206 -0.1026 -0.0245  0.1230
 3489POSM   C2A40940  31.553  23.274  13.370  0.1584 -0.1259 -0.2291
 3489POSM   C3A40941  31.858  23.569  13.509  0.3353 -0.0965 -0.1551
 3489POSM   C1B40942  31.073  23.323  13.176 -0.3086 -0.1244 -0.0990
 3489POSM   D2B40943  31.147  23.649  13.535 -0.2505  0.0643  0.2103
 3489POSM   C3B40944  30.915  23.827  13.903 -0.0969 -0.0147  0.3950
 3489POSM   C4B40945  31.037  24.035  14.369  0.0882  0.2558 -0.1250
 3490DOPE   NH340946  31.284  29.041  12.805  0.1524 -0.0314 -0.1678
 3490DOPE   PO440947  31.389  28.849  13.020  0.0360 -0.0640 -0.0345
 3490DOPE   GL140948  31.625  28.871  13.283  0.1394  0.5483  0.2460
 3490DOPE   GL240949  31.684  28.558  13.323  0.1909 -0.3318  0.2372
 3490DOPE   C1A40950  31.751  29.171  13.588 -0.0396 -0.1814  0.1334
 3490DOPE   D2A40951  31.662  29.499  13.910  0.3893 -0.3050  0.4038
 3490DOPE   C3A40952  31.691  29.975  13.870  0.1706 -0.1027 -0.0795
 3490DOPE   C4A40953  31.562  30.332  14.136  0.0394 -0.4262  0.1383
 3490DOPE   C1B40954  32.058  28.660  13.403  0.1661 -0.0635 -0.0785
 3490DOPE   D2B40955  32.479  28.743  13.618  0.1219 -0.0292 -0.0375
 3490DOPE   C3B40956  32.668  29.006  13.955  0.0267 -0.2717 -0.1175
 3490DOPE   C4B40957  32.815  29.022  14.384 -0.1996  0.3294  0.0672
 3491DOPE   NH340958  22.418  27.077  13.145  0.2069 -0.1642 -0.2197
 3491DOPE   PO440959  22.671  27.066  12.961  0.0982  0.2186  0.1164
 3491DOPE   GL140960  22.885  27.241  13.299  0.0492  0.0132 -0.0865
 3491DOPE   GL240961  23.129  27.182  13.248 -0.0700  0.1221 -0.0721
 3491DOPE   C1A40962  22.818  27.256  13.758 -0.0949  0.2438 -0.2866
 3491DOPE   D2A40963  22.462  27.154  14.034 -0.0990 -0.0064 -0.0858
 3491DOPE   C3A40964  22.230  27.525  14.102 -0.0403 -0.3807  0.0548
 3491DOPE   C4A40965  22.282  28.013  14.058  0.1789  0.0003  0.0826
 3491DOPE   C1B40966  23.203  27.618  13.395  0.1447 -0.0300 -0.4385
 3491DOPE   D2B40967  23.373  28.011  13.480  0.3062 -0.1809 -0.1722
 3491DOPE   C3B40968  23.097  28.147  13.167 -0.2431  0.3401  0.2772
 3491DOPE   C4B40969  22.698  28.275  12.874  0.0338  0.1167 -0.1285
 3492DOPC   NC340970  27.538  29.513  12.348 -0.2064  0.1241 -0.0791
 3492DOPC   PO440971  27.921  29.531  12.411 -0.0751 -0.1064 -0.0001
 3492DOPC   GL140972  27.940  29.673  12.734 -0.1586  0.1588  0.4085
 3492DOPC   GL240973  28.270  29.651  12.763  0.0271 -0.4345  0.0264
 3492DOPC   C1A40974  28.036  29.821  13.191  0.0016  0.1045 -0.2868
 3492DOPC   D2A40975  27.882  29.862  13.633 -0.0500 -0.2814 -0.0230
 3492DOPC   C3A40976  27.692  30.220  13.952 -0.0644  0.0521  0.1449
 3492DOPC   C4A40977  27.542  30.543  14.329 -0.1135 -0.0475 -0.0053
 3492DOPC   C1B40978  28.491  29.703  13.213 -0.1836 -0.0476 -0.0088
 3492DOPC   D2B40979  28.510  29.710  13.651 -0.2220  0.1157 -0.1187
 3492DOPC   C3B40980  28.351  29.387  13.901 -0.1616 -0.0864  0.0830
 3492DOPC   C4B40981  28.504  28.987  14.061  0.1760  0.0474  0.4165
 3493DOPE   NH340982  24.356  30.953  12.513 -0.0263  0.2566 -0.0240
 3493DOPE   PO440983  24.391  30.655  12.569 -0.1422 -0.2179 -0.0676
 3493DOPE   GL140984  24.433  30.666  12.951 -0.0808 -0.3486 -0.0249
 3493DOPE   GL240985  24.740  30.509  12.930  0.2050 -0.0098  0.2071
 3493DOPE   C1A40986  24.452  30.745  13.397 -0.1291 -0.0308 -0.2018
 3493DOPE   D2A40987  24.790  31.006  13.641  0.1805 -0.1590  0.0560
 3493DOPE   C3A40988  24.926  31.443  13.523  0.0006  0.1166  0.0456
 3493DOPE   C4A40989  25.090  31.523  13.081 -0.2794  0.1187 -0.2970
 3493DOPE   C1B40990  24.344  30.341  13.185 -0.0503 -0.2917  0.1863
 3493DOPE   D2B40991  24.021  30.249  13.505 -0.0304  0.1190 -0.0920
 3493DOPE   C3B40992  24.046  30.484  13.875 -0.3840 -0.1004 -0.3137
 3493DOPE   C4B40993  24.241  30.843  14.156 -0.1891  0.0182  0.3349
 3494POSM   NC340994  30.583  28.596  13.318 -0.3761 -0.3336  0.2348
 3494POSM   PO440995  30.904  28.634  13.138  0.1118  0.2175 -0.0575
 3494POSM   AM140996  31.065  28.621  13.417  0.0104 -0.2470 -0.1267
 3494POSM   AM240997  31.258  28.805  13.543  0.1145  0.2290 -0.1159
 3494POSM   T1A40998  30.958  28.657  13.914 -0.0541 -0.0353  0.1248
 3494POSM   C2A40999  30.745  28.647  14.352 -0.2818 -0.2598  0.1101
 3494POSM   C3A41000  30.550  29.029  14.646  0.2128 -0.0484 -0.0278
 3494POSM   C1B41001  31.490  28.753  13.746  0.0925  0.0620  0.2318
 3494POSM   D2B41002  31.896  28.606  13.862 -0.0350  0.1478 -0.3861
 3494POSM   C3B41003  31.812  28.585  14.311  0.0248  0.1393 -0.2372
 3494POSM   C4B41004  31.709  28.869  14.618 -0.1224 -0.0863 -0.3460
 3495DOPC   NC341005  30.598  31.484  12.633  0.1667  0.0023 -0.2228
 3495DOPC   PO441006  30.839  31.278  12.455 -0.1712  0.0240 -0.0012
 3495DOPC   GL141007  31.064  31.290  12.797  0.3134  0.3493 -0.3857
 3495DOPC   GL241008  31.017  31.391  13.099 -0.1863 -0.1201  0.1441
 3495DOPC   C1A41009  31.511  31.436  12.939 -0.3536 -0.2939  0.1376
 3495DOPC   D2A41010  31.860  31.751  12.821 -0.3340  0.1166  0.1192
 3495DOPC   C3A41011  32.174  31.906  13.081  0.1953 -0.0373  0.0156
 3495DOPC   C4A41012  32.574  32.116  13.283  0.2009  0.0330 -0.4644
 3495DOPC   C1B41013  31.343  31.775  13.237  0.3156 -0.0873 -0.0758
 3495DOPC   D2B41014  31.693  32.085  13.177 -0.0088  0.2689  0.3272
 3495DOPC   C3B41015  31.814  32.437  13.542 -0.1219 -0.4583  0.2627
 3495DOPC   C4B41016  32.209  32.632  13.561  0.2937 -0.0999  0.0565
 3496POSM   NC341017  30.465  34.598  12.594  0.1953  0.2693  0.1034
 3496POSM   PO441018  30.426  34.274  12.800 -0.1391  0.2101  0.0118
 3496POSM   AM141019  30.489  34.268  13.093 -0.1624 -0.0821  0.2853
 3496POSM   AM241020  30.654  34.197  13.343 -0.1625 -0.0656  0.0150
 3496POSM   T1A41021  30.253  34.188  13.552  0.2396  0.0746  0.1216
 3496POSM   C2A41022  29.961  33.875  13.744  0.4014  0.0877 -0.2927
 3496POSM   C3A41023  29.799  33.522  13.974  0.0349 -0.0102  0.1653
 3496POSM   C1B41024  30.720  34.457  13.588 -0.2770  0.0411  0.1443
 3496POSM   D2B41025  30.964  34.730  13.859 -0.0004  0.0121  0.0190
 3496POSM   C3B41026  30.867  35.011  14.192  0.0622 -0.0567 -0.1158
 3496POSM   C4B41027  30.714  35.350  14.466 -0.0244  0.0589  0.0373
 3497DOPE   NH341028  29.291  23.502  12.589  0.0460  0.4737 -0.1092
 3497DOPE   PO441029  29.112  23.471  12.858 -0.1832 -0.0294  0.1565
 3497DOPE   GL141030  29.064  23.438  13.229  0.1245 -0.1988 -0.1197
 3497DOPE   GL241031  28.988  23.135  13.262  0.1538  0.0781  0.2451
 3497DOPE   C1A41032  29.344  23.561  13.571 -0.5283 -0.1990  0.0997
 3497DOPE   D2A41033  29.572  23.891  13.760  0.0822  0.0985  0.2765
 3497DOPE   C3A41034  29.491  24.183  14.097 -0.0755  0.0135 -0.0966
 3497DOPE   C4A41035  29.294  24.579  14.304  0.1020  0.0515  0.1452
 3497DOPE   C1B41036  28.793  23.463  13.568 -0.0780 -0.2758 -0.2098
 3497DOPE   D2B41037  28.469  23.475  13.877  0.1573 -0.0397 -0.1948
 3497DOPE   C3B41038  28.434  23.235  14.224 -0.0290  0.0915  0.0313
 3497DOPE   C4B41039  28.233  22.915  14.523 -0.5571 -0.2225  0.2359
 3498DOPC   NC341040  31.459  27.450  12.964 -0.2059 -0.2615 -0.0655
 3498DOPC   PO441041  31.373  27.081  12.820  0.2464 -0.1181 -0.3501
 3498DOPC   GL141042  31.708  26.871  13.134 -0.2659 -0.6004 -0.1132
 3498DOPC   GL241043  31.808  27.091  13.299  0.0197  0.1424 -0.1209
 3498DOPC   C1A41044  32.084  26.545  13.250 -0.1242 -0.2533 -0.0000
 3498DOPC   D2A41045  32.221  26.223  13.521 -0.1131  0.0284 -0.2156
 3498DOPC   C3A41046  32.193  26.313  13.997  0.3234 -0.1133  0.1080
 3498DOPC   C4A41047  32.411  26.476  14.418 -0.2346  0.0451  0.0446
 3498DOPC   C1B41048  31.772  27.312  13.674  0.0811 -0.2017  0.1563
 3498DOPC   D2B41049  31.904  27.476  14.092  0.3058  0.1518 -0.2899
 3498DOPC   C3B41050  31.669  27.389  14.496  0.0074  0.1310  0.0416
 3498DOPC   C4B41051  31.736  27.289  14.927  0.1721  0.0406  0.4030
 3499DOPE   NH341052   0.776  23.292  12.345 -0.2448  0.0964 -0.3838
 3499DOPE   PO441053   0.570  23.476  12.524 -0.0056 -0.4000 -0.0902
 3499DOPE   GL141054   0.315  23.633  12.770 -0.1799 -0.1282  0.1809
 3499DOPE   GL241055   0.254  23.390  12.906  0.2771  0.1118 -0.2312
 3499DOPE   C1A41056   0.125  23.987  13.011 -0.0878 -0.0097 -0.1482
 3499DOPE   D2A41057   0.334  24.311  13.258  0.1356  0.1298  0.1627
 3499DOPE   C3A41058   0.321  24.401  13.697 -0.0510  0.0678 -0.1727
 3499DOPE   C4A41059   0.005  24.585  14.035  0.3316  0.1681  0.0944
 3499DOPE   C1B41060   0.314  23.569  13.326 -0.1115 -0.2958  0.0438
 3499DOPE   D2B41061   0.512  23.575  13.695 -0.3932 -0.0378  0.1474
 3499DOPE   C3B41062   0.429  23.936  13.977  0.1654  0.2663 -0.1848
 3499DOPE   C4B41063   0.547  24.342  14.204 -0.1194 -0.1176  0.1154
 3500POSM   NC341064  23.993  27.656  12.867 -0.1650  0.1684 -0.3345
 3500POSM   PO441065  24.422  27.690  12.821  0.0540 -0.1221  0.3856
 3500POSM   AM141066  24.435  27.699  13.159 -0.2866 -0.2144 -0.0015
 3500POSM   AM241067  24.277  27.869  13.359 -0.3401  0.1324 -0.0322
 3500POSM   T1A41068  24.550  27.520  13.594 -0.1176 -0.1140  0.2157
 3500POSM   C2A41069  24.666  27.109  13.615  0.4192  0.0111 -0.3902
 3500POSM   C3A41070  24.942  26.734  13.397  0.0709  0.4087  0.3820
 3500POSM   C1B41071  24.099  27.783  13.659 -0.1100  0.0933 -0.1254
 3500POSM   D2B41072  24.242  27.607  14.073  0.1439 -0.5360  0.0981
 3500POSM   C3B41073  24.688  27.562  14.106  0.1099  0.0296 -0.2404
 3500POSM   C4B41074  25.052  27.792  14.234 -0.0373 -0.1282 -0.0874
 3501DOPC   NC341075  30.376  30.507  13.103 -0.2880  0.1290 -0.0935
 3501DOPC   PO441076  30.149  30.484  12.777 -0.0475  0.3704 -0.0952
 3501DOPC   GL141077  29.900  30.490  13.102 -0.3912  0.0834  0.2291
 3501DOPC   GL241078  29.807  30.251  13.025  0.0723  0.1089  0.1888
 3501DOPC   C1A41079  29.425  30.434  13.237  0.2448  0.1557 -0.3479
 3501DOPC   D2A41080  29.121  30.751  13.495  0.1318  0.0779  0.0579
 3501DOPC   C3A41081  29.238  31.090  13.778  0.5267 -0.2251 -0.0369
 3501DOPC   C4A41082  29.491  31.299  14.079  0.0474  0.0889  0.1786
 3501DOPC   C1B41083  29.927  30.041  13.346 -0.3081  0.1690  0.1166
 3501DOPC   D2B41084  30.104  29.807  13.717 -0.2199  0.1856 -0.2538
 3501DOPC   C3B41085  30.468  29.960  13.972 -0.2860 -0.0282 -0.1301
 3501DOPC   C4B41086  30.782  29.855  14.273 -0.3946 -0.1100  0.1759
 3502POSM   NC341087  31.519  25.263  12.759  0.3254  0.1175  0.0069
 3502POSM   PO441088  31.639  24.875  12.681 -0.2674  0.0319  0.0925
 3502POSM   AM141089  31.364  24.778  12.877  0.1325 -0.0604 -0.0265
 3502POSM   AM241090  31.142  24.914  12.983  0.0072 -0.0175 -0.0817
 3502POSM   T1A41091  31.292  24.545  13.296 -0.1864 -0.3081 -0.0944
 3502POSM   C2A41092  31.373  24.150  13.501 -0.3625 -0.0829  0.0296
 3502POSM   C3A41093  31.434  23.987  13.935 -0.1700 -0.4077  0.0095
 3502POSM   C1B41094  31.163  24.995  13.295 -0.3396  0.1673  0.0330
 3502POSM   D2B41095  31.017  25.011  13.722 -0.2978 -0.2731 -0.1427
 3502POSM   C3B41096  30.562  24.955  13.933 -0.0947 -0.1824 -0.0939
 3502POSM   C4B41097  30.202  24.730  14.204  0.0344 -0.4764 -0.2171
 3503POSM   NC341098  24.337  30.882  11.929  0.1281 -0.2248  0.0348
 3503POSM   PO441099  24.048  30.614  12.095 -0.0577  0.0663  0.0560
 3503POSM   AM141100  24.124  30.409  12.309  0.0917 -0.2660  0.2483
 3503POSM   AM241101  24.005  30.375  12.543 -0.1046  0.4768 -0.2455
 3503POSM   T1A41102  24.196  29.925  12.331  0.1582  0.0519 -0.3519
 3503POSM   C2A41103  24.238  29.554  12.615  0.2743  0.2196  0.1286
 3503POSM   C3A41104  24.120  29.533  13.045  0.0401 -0.3681  0.0770
 3503POSM   C1B41105  23.923  30.138  12.844 -0.1000 -0.0700  0.0021
 3503POSM   D2B41106  23.694  29.823  13.127 -0.1607  0.0937 -0.2278
 3503POSM   C3B41107  23.960  29.696  13.467 -0.0630  0.0513 -0.0145
 3503POSM   C4B41108  24.278  29.731  13.745  0.1798 -0.2506 -0.1171
 3504DOPC   NC341109  28.646  25.002  12.962  0.0156 -0.3047  0.0404
 3504DOPC   PO441110  28.567  25.380  12.960 -0.0293 -0.0632  0.4129
 3504DOPC   GL141111  28.419  25.436  13.281 -0.1094  0.0763 -0.1382
 3504DOPC   GL241112  28.333  25.687  13.422 -0.0019  0.3790  0.3548
 3504DOPC   C1A41113  28.020  25.183  13.401  0.1116  0.2240  0.2207
 3504DOPC   D2A41114  27.780  25.115  13.773  0.0969  0.0862  0.0355
 3504DOPC   C3A41115  27.939  25.211  14.168 -0.1794  0.1345 -0.0701
 3504DOPC   C4A41116  28.410  25.214  14.279  0.2118 -0.2686 -0.1825
 3504DOPC   C1B41117  28.288  25.455  13.807  0.0177  0.0211 -0.3281
 3504DOPC   D2B41118  28.264  24.997  13.875  0.3899 -0.0677 -0.0591
 3504DOPC   C3B41119  28.366  24.602  14.130 -0.1511 -0.1000 -0.2409
 3504DOPC   C4B41120  28.643  24.193  14.247 -0.0922 -0.2010 -0.0882
 3505DOPE   NH341121  26.160  23.982  12.738  0.0630 -0.2231 -0.4056
 3505DOPE   PO441122  26.241  24.104  12.449  0.1684  0.1361  0.1766
 3505DOPE   GL141123  26.310  24.530  12.546  0.2554 -0.1114 -0.1088
 3505DOPE   GL241124  26.070  24.532  12.676  0.2616 -0.0070 -0.1969
 3505DOPE   C1A41125  26.760  24.673  12.632 -0.0639  0.3504  0.4793
 3505DOPE   D2A41126  27.178  24.733  12.902 -0.0041  0.2479 -0.0200
 3505DOPE   C3A41127  27.107  24.505  13.323  0.2151 -0.3149  0.1256
 3505DOPE   C4A41128  26.942  24.531  13.751 -0.0666 -0.0927  0.0309
 3505DOPE   C1B41129  25.838  24.920  12.566 -0.4073  0.4982 -0.2996
 3505DOPE   D2B41130  25.796  25.277  12.842 -0.1885 -0.0156  0.0428
 3505DOPE   C3B41131  26.113  25.313  13.181 -0.0364 -0.2009  0.4524
 3505DOPE   C4B41132  26.238  25.602  13.573 -0.1851 -0.0524  0.1932
 3506POSM   NC341133  27.397   0.293  12.528  0.1324 -0.1004 -0.2259
 3506POSM   PO441134  27.039   0.309  12.630  0.2306  0.0992  0.4509
 3506POSM   AM141135  26.842   0.182  12.847 -0.1332  0.2800  0.0649
 3506POSM   AM241136  26.594   0.071  12.906 -0.1280 -0.0064  0.2139
 3506POSM   T1A41137  26.738   0.243  13.359 -0.3970 -0.2284  0.1518
 3506POSM   C2A41138  26.951   0.146  13.784  0.3193 -0.2742 -0.0229
 3506POSM   C3A41139  26.839   0.045  14.208  0.4041  0.0353 -0.1296
 3506POSM   C1B41140  26.357  -0.050  13.152 -0.2498 -0.1692 -0.1037
 3506POSM   D2B41141  26.222   0.026  13.571 -0.1252  0.2302  0.0476
 3506POSM   C3B41142  25.906   0.414  13.624 -0.0720  0.2767 -0.0828
 3506POSM   C4B41143  25.537   0.728  13.761  0.1098  0.1771  0.2083
 3507POSM   NC341144  27.681  25.575  12.546 -0.0139  0.1509 -0.2340
 3507POSM   PO441145  27.411  25.550  12.245 -0.3774  0.1584 -0.0893
 3507POSM   AM141146  27.136  25.695  12.426  0.1250 -0.1093 -0.0363
 3507POSM   AM241147  27.053  25.990  12.476  0.0077 -0.1352 -0.0726
 3507POSM   T1A41148  26.789  25.658  12.800 -0.1855 -0.2355 -0.0097
 3507POSM   C2A41149  26.661  25.444  13.177  0.1893 -0.0171  0.2709
 3507POSM   C3A41150  26.437  25.176  13.490 -0.4555 -0.1386 -0.2942
 3507POSM   C1B41151  26.992  26.311  12.634  0.1643  0.0121 -0.0895
 3507POSM   D2B41152  26.872  26.424  13.044  0.1959  0.1380  0.1793
 3507POSM   C3B41153  26.533  26.052  13.172 -0.1276  0.1648 -0.0459
 3507POSM   C4B41154  26.179  26.098  13.515  0.0725  0.1791  0.0191
 3508DOPS   CNO41155  31.283  29.577  12.814 -0.1389 -0.0392 -0.1196
 3508DOPS   PO441156  31.030  29.630  13.121 -0.1517 -0.0103 -0.1895
 3508DOPS   GL141157  30.887  29.575  13.511 -0.1179 -0.1522  0.2435
 3508DOPS   GL241158  30.690  29.438  13.425 -0.1336 -0.1371  0.5344
 3508DOPS   C1A41159  30.762  29.471  13.980  0.0849  0.0963  0.2976
 3508DOPS   D2A41160  30.359  29.444  14.183 -0.2661 -0.0946  0.3432
 3508DOPS   C3A41161  30.104  29.761  14.249  0.0168 -0.1137 -0.0308
 3508DOPS   C4A41162  29.883  29.818  14.601 -0.3433  0.0747  0.2385
 3508DOPS   C1B41163  30.345  29.384  13.708  0.2418  0.2492 -0.2054
 3508DOPS   D2B41164  29.946  29.400  13.980  0.0252  0.0671  0.1015
 3508DOPS   C3B41165  29.824  28.921  14.069  0.0118 -0.0562  0.3155
 3508DOPS   C4B41166  29.751  28.598  13.701  0.2788 -0.0516 -0.0285
 3509DOPC   NC341167  26.879  33.812  12.973  0.1520 -0.0841 -0.3310
 3509DOPC   PO441168  26.848  33.602  12.654 -0.2870 -0.2932 -0.0780
 3509DOPC   GL141169  26.503  33.445  12.770  0.2861 -0.1151 -0.2057
 3509DOPC   GL241170  26.582  33.212  12.886  0.0797  0.1619 -0.1526
 3509DOPC   C1A41171  26.110  33.279  13.008  0.0860 -0.0515  0.2889
 3509DOPC   D2A41172  26.071  32.852  12.857  0.0799  0.0412  0.0526
 3509DOPC   C3A41173  25.679  32.684  13.024  0.2348 -0.0228 -0.1286
 3509DOPC   C4A41174  25.336  32.396  13.175 -0.2011 -0.1206  0.0190
 3509DOPC   C1B41175  26.336  33.167  12.436 -0.2645 -0.3226 -0.1763
 3509DOPC   D2B41176  25.912  33.063  12.313  0.0183  0.0670  0.0870
 3509DOPC   C3B41177  25.603  32.758  12.486  0.2624 -0.2488  0.0833
 3509DOPC   C4B41178  25.433  32.292  12.598 -0.1925 -0.1776 -0.1544
 3510POSM   NC341179  22.384  29.671  12.207  0.2191  0.5095 -0.1191
 3510POSM   PO441180  22.126  29.403  12.400  0.0896 -0.1603  0.1771
 3510POSM   AM141181  22.380  29.326  12.592 -0.2861 -0.2638  0.0357
 3510POSM   AM241182  22.380  29.400  12.908 -0.2161 -0.0892  0.1615
 3510POSM   T1A41183  22.844  29.225  12.845 -0.2932  0.1587  0.0753
 3510POSM   C2A41184  23.014  28.801  12.936  0.0965 -0.2180  0.2166
 3510POSM   C3A41185  23.376  28.719  12.763 -0.0945 -0.0235  0.0761
 3510POSM   C1B41186  22.322  29.061  12.936 -0.4493  0.0712 -0.0976
 3510POSM   D2B41187  22.237  28.767  13.237  0.3123 -0.0395 -0.1374
 3510POSM   C3B41188  22.657  28.568  13.298 -0.0909  0.0271  0.3835
 3510POSM   C4B41189  23.059  28.606  13.481 -0.3869  0.1663  0.1179
 3511DOPE   NH341190  29.579  26.904  13.067  0.1072  0.3199 -0.1033
 3511DOPE   PO441191  29.399  26.714  12.892 -0.1759 -0.1411 -0.1639
 3511DOPE   GL141192  29.137  26.802  13.062 -0.0181  0.0537  0.0928
 3511DOPE   GL241193  29.149  26.569  13.281  0.1907  0.0049  0.1578
 3511DOPE   C1A41194  29.122  26.991  13.480  0.0915 -0.0514  0.1480
 3511DOPE   D2A41195  29.001  26.882  13.946 -0.0162  0.1405  0.2761
 3511DOPE   C3A41196  29.411  26.832  14.155  0.2435 -0.0244 -0.2310
 3511DOPE   C4A41197  29.778  27.100  14.118  0.0257  0.1311 -0.2638
 3511DOPE   C1B41198  28.702  26.598  13.513  0.2345  0.0484  0.2137
 3511DOPE   D2B41199  28.622  26.447  13.919 -0.2901  0.1527  0.0218
 3511DOPE   C3B41200  28.828  26.522  14.343  0.2128  0.1487 -0.1183
 3511DOPE   C4B41201  29.212  26.653  14.603 -0.2133 -0.0503  0.2262
 3512POSM   NC341202  23.620  30.635  12.262  0.3562  0.2314  0.0912
 3512POSM   PO441203  23.827  30.834  12.520  0.0543  0.1720 -0.0420
 3512POSM   AM141204  23.805  30.670  12.828 -0.2411 -0.1498  0.2240
 3512POSM   AM241205  23.999  30.635  13.023 -0.2067  0.1844 -0.1077
 3512POSM   T1A41206  23.551  30.496  13.255  0.1293 -0.0888  0.1227
 3512POSM   C2A41207  23.533  30.552  13.732 -0.1111  0.1008 -0.0665
 3512POSM   C3A41208  23.694  30.751  14.129 -0.1665  0.4856  0.2781
 3512POSM   C1B41209  23.947  30.756  13.363  0.0464 -0.0860  0.1092
 3512POSM   D2B41210  23.866  31.030  13.742  0.0577 -0.1107 -0.3802
 3512POSM   C3B41211  23.758  31.461  13.787  0.1900 -0.2897 -0.1534
 3512POSM   C4B41212  23.500  31.832  13.849  0.0225 -0.0011 -0.0611
 3513POSM   NC341213  26.958  30.059  12.717 -0.1926  0.1692  0.1413
 3513POSM   PO441214  27.179  30.343  12.532  0.2092 -0.4204  0.3774
 3513POSM   AM141215  27.281  30.320  12.874 -0.0772 -0.1638 -0.0313
 3513POSM   AM241216  27.226  30.512  13.091 -0.0456 -0.1405 -0.0598
 3513POSM   T1A41217  27.163  30.064  13.237  0.2023  0.1997 -0.0870
 3513POSM   C2A41218  27.130  29.984  13.694  0.0034 -0.3619  0.5340
 3513POSM   C3A41219  27.031  29.550  13.782  0.0216  0.1050  0.1680
 3513POSM   C1B41220  27.257  30.762  13.335  0.3549  0.0067 -0.3471
 3513POSM   D2B41221  27.058  31.061  13.625  0.1043 -0.0109 -0.0412
 3513POSM   C3B41222  26.781  30.795  13.823  0.1228  0.0750  0.1070
 3513POSM   C4B41223  26.690  30.742  14.271  0.2798 -0.0011 -0.3516
 3514POSM   NC341224  24.715  29.461  12.820 -0.0051 -0.2710 -0.0055
 3514POSM   PO441225  24.822  29.744  12.544 -0.0975 -0.0350 -0.0295
 3514POSM   AM141226  25.069  29.864  12.694 -0.1154 -0.2228 -0.2764
 3514POSM   AM241227  25.126  29.925  12.955 -0.1378 -0.1486  0.1742
 3514POSM   T1A41228  25.535  29.997  12.699  0.2046  0.2345 -0.1167
 3514POSM   C2A41229  25.891  29.930  12.948 -0.1991 -0.1847  0.0856
 3514POSM   C3A41230  26.244  29.948  13.190  0.2105 -0.0300 -0.1172
 3514POSM   C1B41231  25.231  30.245  12.975 -0.0344 -0.2737  0.1433
 3514POSM   D2B41232  25.551  30.613  12.934  0.0597 -0.2753 -0.4622
 3514POSM   C3B41233  25.936  30.580  13.182 -0.2116 -0.1061 -0.1891
 3514POSM   C4B41234  26.338  30.771  13.155  0.0953 -0.1442 -0.0240
 3515DOPS   CNO41235  31.024  27.404  12.749  0.0801  0.0871 -0.0707
 3515DOPS   PO441236  31.260  27.528  12.480  0.1238 -0.2193 -0.0442
 3515DOPS   GL141237  31.734  27.551  12.574 -0.0570  0.0858  0.1995
 3515DOPS   GL241238  31.748  27.830  12.499 -0.1478 -0.0653  0.0926
 3515DOPS   C1A41239  32.025  27.397  12.882 -0.0597  0.0330 -0.0113
 3515DOPS   D2A41240  32.338  26.998  13.032 -0.0076 -0.2008  0.3392
 3515DOPS   C3A41241  32.476  26.871  13.449 -0.0721  0.0704 -0.0905
 3515DOPS   C4A41242  32.557  26.550  13.703  0.0902 -0.0949 -0.0245
 3515DOPS   C1B41243  32.111  27.937  12.740  0.2867  0.0347 -0.1857
 3515DOPS   D2B41244  32.435  27.728  12.970 -0.0046  0.0304 -0.0530
 3515DOPS   C3B41245  32.529  27.791  13.413 -0.1551 -0.0886 -0.0979
 3515DOPS   C4B41246  32.833  27.938  13.759 -0.0141  0.2673  0.5097
 3516POSM   NC341247  30.286  23.080  12.526  0.2351 -0.0850 -0.0089
 3516POSM   PO441248  29.907  23.162  12.524  0.3315  0.0067 -0.1250
 3516POSM   AM141249  29.774  23.441  12.639  0.0748 -0.1191  0.0463
 3516POSM   AM241250  29.707  23.512  12.899  0.2516 -0.1039  0.1865
 3516POSM   T1A41251  29.636  23.931  12.619 -0.4044 -0.0113  0.1632
 3516POSM   C2A41252  29.736  24.387  12.699 -0.2352  0.1815  0.2118
 3516POSM   C3A41253  29.941  24.756  12.605 -0.2027 -0.1686  0.1590
 3516POSM   C1B41254  29.772  23.737  13.102 -0.0415 -0.2438 -0.0552
 3516POSM   D2B41255  29.978  24.115  13.320 -0.0722 -0.1625  0.2647
 3516POSM   C3B41256  29.943  24.178  13.777  0.0225  0.2528  0.4767
 3516POSM   C4B41257  30.022  24.138  14.259  0.1501  0.1768  0.0256
 3517DOPE   NH341258  33.764  25.673  12.927 -0.1042 -0.0546 -0.0864
 3517DOPE   PO441259  33.680  25.921  12.740 -0.1637  0.0475 -0.0459
 3517DOPE   GL141260  33.439  26.107  12.828 -0.0155 -0.0173 -0.3644
 3517DOPE   GL241261  33.248  26.258  12.600 -0.4159 -0.1363  0.1059
 3517DOPE   C1A41262  33.149  26.378  13.114 -0.0420 -0.3258  0.2132
 3517DOPE   D2A41263  33.050  26.586  13.476 -0.1916  0.1106  0.2705
 3517DOPE   C3A41264  32.845  26.969  13.717 -0.1520 -0.3884  0.0153
 3517DOPE   C4A41265  32.728  27.407  13.792  0.2496 -0.0188  0.1690
 3517DOPE   C1B41266  32.736  26.330  12.569 -0.4842 -0.0663 -0.0718
 3517DOPE   D2B41267  32.358  26.044  12.563 -0.0354  0.0514  0.0047
 3517DOPE   C3B41268  31.961  26.278  12.779  0.1642 -0.1875  0.1224
 3517DOPE   C4B41269  31.984  26.772  12.699  0.0438  0.2512  0.2534
 3518DOPE   NH341270  34.018  34.159  12.686  0.0543 -0.2764 -0.1583
 3518DOPE   PO441271  33.795  33.952  12.829 -0.2457 -0.0334 -0.0475
 3518DOPE   GL141272  33.691  33.809  13.158 -0.1032  0.0270 -0.1602
 3518DOPE   GL241273  33.364  33.764  13.016 -0.1096  0.0679  0.0471
 3518DOPE   C1A41274  33.688  34.129  13.561  0.1749  0.1225  0.1848
 3518DOPE   D2A41275  33.509  34.232  13.964  0.1581  0.0503  0.1818
 3518DOPE   C3A41276  33.521  33.839  14.301  0.2114 -0.0126  0.1684
 3518DOPE   C4A41277  33.913  33.738  14.582  0.1160 -0.0511  0.1421
 3518DOPE   C1B41278  33.002  33.660  13.267  0.2840 -0.0655  0.0658
 3518DOPE   D2B41279  32.809  33.443  13.656 -0.1912 -0.3557  0.0716
 3518DOPE   C3B41280  33.063  33.065  13.800 -0.2390  0.3977 -0.0583
 3518DOPE   C4B41281  33.397  32.760  13.901  0.1045 -0.1232 -0.1720
 3519DOPE   NH341282  28.081  30.171  12.760 -0.3662  0.0200  0.1562
 3519DOPE   PO441283  28.207  30.081  12.478 -0.0403  0.3950 -0.1240
 3519DOPE   GL141284  28.537  30.095  12.799 -0.2617  0.1409  0.3624
 3519DOPE   GL241285  28.780  30.232  12.653 -0.0647 -0.0779  0.1835
 3519DOPE   C1A41286  28.372  30.175  13.218 -0.0547 -0.1269 -0.2116
 3519DOPE   D2A41287  28.287  30.172  13.697  0.3871  0.0340 -0.0990
 3519DOPE   C3A41288  28.130  29.816  14.027 -0.1796  0.2460 -0.1152
 3519DOPE   C4A41289  27.875  29.648  14.388  0.0749  0.1027  0.2269
 3519DOPE   C1B41290  28.766  29.802  12.661  0.0296  0.1387 -0.1695
 3519DOPE   D2B41291  28.682  29.334  12.747  0.1820  0.0471 -0.0105
 3519DOPE   C3B41292  28.312  29.152  12.989  0.1408 -0.0328  0.1834
 3519DOPE   C4B41293  28.007  28.913  13.167 -0.2654 -0.3638  0.2568
 3520DOPE   NH341294  23.305  26.385  12.704  0.0483 -0.0223  0.0348
 3520DOPE   PO441295  23.320  26.605  12.466 -0.2245  0.0254 -0.0634
 3520DOPE   GL141296  23.652  26.286  12.378  0.0826 -0.1652  0.2517
 3520DOPE   GL241297  23.812  26.370  12.616  0.2288 -0.1220 -0.0204
 3520DOPE   C1A41298  24.037  26.339  12.189  0.0716 -0.1321  0.2918
 3520DOPE   D2A41299  24.337  25.992  12.059 -0.3129 -0.1509  0.2824
 3520DOPE   C3A41300  24.208  25.595  12.275 -0.1545  0.2200  0.2015
 3520DOPE   C4A41301  23.935  25.353  12.572  0.1626 -0.1412  0.0602
 3520DOPE   C1B41302  23.871  25.890  12.588  0.3359 -0.3706 -0.2483
 3520DOPE   D2B41303  23.619  25.605  12.292  0.1956 -0.2726 -0.0424
 3520DOPE   C3B41304  23.320  25.331  12.550 -0.0015  0.1104 -0.2266
 3520DOPE   C4B41305  23.204  24.963  12.863 -0.1439  0.2668 -0.2444
 3521POSM   NC341306  23.791  26.747  12.259  0.0430 -0.0088  0.1610
 3521POSM   PO441307  24.132  26.965  12.278 -0.2067  0.1934 -0.0961
 3521POSM   AM141308  24.238  26.709  12.489  0.1412 -0.1269 -0.1036
 3521POSM   AM241309  24.330  26.677  12.784  0.0124 -0.1748  0.0160
 3521POSM   T1A41310  24.342  26.201  12.639  0.1780  0.0393  0.2300
 3521POSM   C2A41311  24.428  25.809  12.689 -0.1438 -0.2186 -0.1627
 3521POSM   C3A41312  24.492  25.332  12.600  0.1560 -0.0640  0.1180
 3521POSM   C1B41313  24.171  26.498  13.015 -0.1228  0.0506  0.2162
 3521POSM   D2B41314  24.177  26.075  13.139  0.2003  0.0530 -0.1304
 3521POSM   C3B41315  24.485  25.739  13.227  0.1737  0.2615  0.0170
 3521POSM   C4B41316  24.678  25.561  13.619  0.0991  0.2636  0.2276
 3522DOPC   NC341317   0.185  33.142  12.309  0.0371 -0.0288  0.2091
 3522DOPC   PO441318  -0.238  33.230  12.300  0.1503  0.0856 -0.2513
 3522DOPC   GL141319  -0.515  32.907  12.270  0.2064 -0.1864  0.1109
 3522DOPC   GL241320  -0.643  32.997  11.955  0.0140  0.0820  0.0337
 3522DOPC   C1A41321  -0.491  32.461  12.422 -0.0709  0.0169  0.1439
 3522DOPC   D2A41322  -0.323  32.123  12.752  0.0104 -0.2640  0.1178
 3522DOPC   C3A41323  -0.411  32.029  13.213 -0.0725 -0.0170  0.1596
 3522DOPC   C4A41324  -0.546  32.178  13.703  0.1957 -0.0446  0.0676
 3522DOPC   C1B41325  -0.958  32.768  12.186 -0.2681 -0.0481  0.1016
 3522DOPC   D2B41326  -0.996  32.393  12.420  0.0486 -0.1212  0.0369
 3522DOPC   C3B41327  -1.297  32.313  12.778 -0.0155  0.0685  0.0953
 3522DOPC   C4B41328  -1.718  32.158  12.918  0.1678  0.2216  0.0699
 3523DOPC   NC341329  29.369  33.485  12.988 -0.0769 -0.1182 -0.2897
 3523DOPC   PO441330  29.205  33.188  12.876 -0.2110  0.1327  0.2999
 3523DOPC   GL141331  28.940  33.269  13.010 -0.1495 -0.2420  0.3153
 3523DOPC   GL241332  29.052  33.234  13.374 -0.2858  0.1353  0.0167
 3523DOPC   C1A41333  28.565  32.997  13.036 -0.0236  0.0591 -0.2080
 3523DOPC   D2A41334  28.352  32.725  13.372  0.3073 -0.2529  0.0977
 3523DOPC   C3A41335  28.395  32.776  13.873  0.2629  0.1398  0.3502
 3523DOPC   C4A41336  28.535  32.775  14.352  0.0278  0.1650  0.0415
 3523DOPC   C1B41337  29.441  33.058  13.494  0.0647  0.2628 -0.0073
 3523DOPC   D2B41338  29.654  32.886  13.875 -0.0535  0.1564  0.1702
 3523DOPC   C3B41339  30.008  32.824  14.133 -0.1912 -0.2968  0.0317
 3523DOPC   C4B41340  30.244  33.237  14.297 -0.1755 -0.0320  0.2034
 3524POSM   NC341341  25.460  28.678  12.410  0.0828 -0.0610 -0.0433
 3524POSM   PO441342  25.457  28.977  12.724  0.3578 -0.2625 -0.0882
 3524POSM   AM141343  25.262  28.925  12.984  0.6321  0.0750  0.0413
 3524POSM   AM241344  25.190  29.060  13.213  0.2500  0.0959 -0.1849
 3524POSM   T1A41345  24.868  28.690  13.177  0.0125 -0.1266  0.0752
 3524POSM   C2A41346  24.639  28.310  13.311  0.0414 -0.1523  0.1052
 3524POSM   C3A41347  24.327  28.405  13.609 -0.2361  0.3482 -0.2818
 3524POSM   C1B41348  25.136  29.199  13.519 -0.1645 -0.1257 -0.2132
 3524POSM   D2B41349  24.856  29.322  13.854  0.1895 -0.3229 -0.2365
 3524POSM   C3B41350  24.372  29.157  13.762  0.4744 -0.0419 -0.1876
 3524POSM   C4B41351  23.986  28.825  13.758 -0.1176  0.2418  0.4131
 3525POSM   NC341352  31.327  29.843  13.506 -0.0296 -0.1919  0.0972
 3525POSM   PO441353  31.543  29.696  13.226  0.3376  0.2894 -0.1633
 3525POSM   AM141354  31.752  29.543  13.411  0.0691 -0.3763  0.1019
 3525POSM   AM241355  32.022  29.684  13.466 -0.0771 -0.1662 -0.0049
 3525POSM   T1A41356  32.155  29.253  13.331  0.1648 -0.3023 -0.0598
 3525POSM   C2A41357  32.616  29.151  13.384 -0.1307 -0.1812 -0.3362
 3525POSM   C3A41358  32.988  28.929  13.564 -0.2056 -0.1023  0.1344
 3525POSM   C1B41359  32.115  29.660  13.785 -0.0827  0.3155  0.0705
 3525POSM   D2B41360  32.055  29.587  14.258 -0.1881 -0.1302 -0.2643
 3525POSM   C3B41361  31.654  29.489  14.480  0.1739  0.0899  0.0120
 3525POSM   C4B41362  31.347  29.233  14.724 -0.1545  0.0377  0.1324
 3526DOPS   CNO41363  31.822  25.684  12.903  0.0970 -0.1122  0.4003
 3526DOPS   PO441364  31.480  25.810  12.967  0.1255  0.1967  0.0423
 3526DOPS   GL141365  31.372  25.574  13.147 -0.0397 -0.4074 -0.2752
 3526DOPS   GL241366  31.613  25.383  13.281  0.0613 -0.0159 -0.1719
 3526DOPS   C1A41367  31.164  25.413  13.535 -0.0881 -0.1884 -0.0345
 3526DOPS   D2A41368  31.231  25.654  13.948  0.0779  0.1407 -0.2164
 3526DOPS   C3A41369  30.868  25.888  14.000  0.0856 -0.1472 -0.2513
 3526DOPS   C4A41370  30.588  25.990  14.393  0.3655 -0.1473  0.1717
 3526DOPS   C1B41371  31.823  25.503  13.676  0.1111  0.2635 -0.0540
 3526DOPS   D2B41372  32.189  25.772  13.769 -0.0023  0.0188 -0.1053
 3526DOPS   C3B41373  32.615  25.920  13.545 -0.2261 -0.0091  0.0777
 3526DOPS   C4B41374  32.981  26.122  13.603  0.0271  0.1725 -0.1415
 3527DOPE   NH341375  30.508  30.830  12.687 -0.0864 -0.3406  0.0272
 3527DOPE   PO441376  30.592  31.083  12.925 -0.1488 -0.0685 -0.2410
 3527DOPE   GL141377  30.560  31.364  13.235  0.1895 -0.0633 -0.1160
 3527DOPE   GL241378  30.587  31.659  13.090 -0.2797 -0.3173 -0.0469
 3527DOPE   C1A41379  30.855  31.615  13.526 -0.1726  0.0315 -0.1479
 3527DOPE   D2A41380  30.942  31.928  13.812 -0.1669 -0.5757  0.1628
 3527DOPE   C3A41381  30.919  31.911  14.281  0.3725  0.1132  0.2172
 3527DOPE   C4A41382  31.178  31.534  14.411  0.0042 -0.3125  0.4710
 3527DOPE   C1B41383  30.945  31.843  12.884 -0.0338  0.1516 -0.1283
 3527DOPE   D2B41384  31.344  31.965  12.768  0.2921 -0.3652 -0.0564
 3527DOPE   C3B41385  31.491  32.422  12.829  0.0756  0.0900 -0.1002
 3527DOPE   C4B41386  31.456  32.748  13.136  0.0271 -0.0445 -0.4772
 3528DOPC   NC341387  30.911  28.570  12.667  0.3857 -0.2372 -0.4046
 3528DOPC   PO441388  30.513  28.526  12.810  0.1518 -0.0370  0.1478
 3528DOPC   GL141389  30.156  28.414  12.947 -0.1439 -0.0461  0.1237
 3528DOPC   GL241390  30.221  28.102  12.913 -0.0425 -0.3325 -0.1129
 3528DOPC   C1A41391  30.063  28.339  13.395  0.0839  0.4640  0.1870
 3528DOPC   D2A41392  30.350  28.018  13.575 -0.2364 -0.1974  0.2273
 3528DOPC   C3A41393  30.647  27.778  13.843 -0.2757 -0.2080 -0.0554
 3528DOPC   C4A41394  30.795  27.462  14.099  0.0315 -0.0779  0.0053
 3528DOPC   C1B41395  30.066  27.798  13.210 -0.1360  0.4709 -0.0448
 3528DOPC   D2B41396  29.889  27.812  13.632  0.3063  0.5611  0.1063
 3528DOPC   C3B41397  29.722  27.579  14.028 -0.0730 -0.0804 -0.1165
 3528DOPC   C4B41398  29.784  27.457  14.479  0.2999  0.0952  0.3854
 3529DOPC   NC341399  28.667  30.906  12.676 -0.1226 -0.2164 -0.3015
 3529DOPC   PO441400  28.430  30.568  12.733 -0.0526 -0.1005  0.0031
 3529DOPC   GL141401  28.353  30.821  13.048 -0.3125  0.1209 -0.0851
 3529DOPC   GL241402  28.626  30.900  13.169  0.1047  0.0023  0.1563
 3529DOPC   C1A41403  28.157  31.036  13.389 -0.2833  0.1142 -0.1659
 3529DOPC   D2A41404  28.040  31.256  13.822  0.1313 -0.0939 -0.0808
 3529DOPC   C3A41405  27.864  31.631  14.027  0.1269  0.0253  0.1225
 3529DOPC   C4A41406  27.796  32.057  13.899  0.1187  0.4340  0.0380
 3529DOPC   C1B41407  28.606  30.585  13.560 -0.1613  0.1229 -0.2866
 3529DOPC   D2B41408  28.599  30.421  14.076 -0.0322 -0.2157 -0.0384
 3529DOPC   C3B41409  28.613  29.969  14.135  0.1762 -0.2188  0.0308
 3529DOPC   C4B41410  28.786  29.563  13.999  0.0791  0.1904  0.2435
 3530DOPC   NC341411  27.138  33.192  12.763  0.1168 -0.1503  0.1572
 3530DOPC   PO441412  27.415  33.397  12.535  0.0552 -0.1406 -0.3232
 3530DOPC   GL141413  27.717  33.285  12.653 -0.0739 -0.3057  0.2453
 3530DOPC   GL241414  27.690  33.198  12.956 -0.0259  0.4677 -0.0220
 3530DOPC   C1A41415  28.098  33.056  12.506 -0.3065  0.3272  0.1007
 3530DOPC   D2A41416  28.214  32.675  12.771 -0.3142 -0.0166 -0.1195
 3530DOPC   C3A41417  27.832  32.610  13.032  0.1674 -0.0003 -0.2964
 3530DOPC   C4A41418  27.765  32.915  13.423  0.0487 -0.2006  0.2766
 3530DOPC   C1B41419  28.092  33.188  13.122 -0.0429 -0.0711  0.0461
 3530DOPC   D2B41420  28.122  33.190  13.557 -0.2969 -0.0983  0.1271
 3530DOPC   C3B41421  27.780  33.308  13.899 -0.0824 -0.1267 -0.1396
 3530DOPC   C4B41422  27.387  33.339  14.151 -0.0831 -0.1665  0.0420
 3531DOPE   NH341423  31.690  24.445  12.903  0.1916 -0.0757 -0.1348
 3531DOPE   PO441424  31.856  24.261  12.637  0.2573 -0.2065  0.2746
 3531DOPE   GL141425  31.488  24.107  12.664  0.0414  0.0377 -0.1920
 3531DOPE   GL241426  31.214  24.295  12.540 -0.0364 -0.3374  0.1454
 3531DOPE   C1A41427  31.224  23.981  13.062  0.1068  0.3554  0.3699
 3531DOPE   D2A41428  30.805  23.754  13.079 -0.1360  0.1379 -0.3409
 3531DOPE   C3A41429  30.618  23.661  13.503 -0.1377  0.0536 -0.0144
 3531DOPE   C4A41430  30.427  23.374  13.839  0.1415 -0.0416  0.1631
 3531DOPE   C1B41431  30.919  24.418  12.916  0.0948  0.0765 -0.0991
 3531DOPE   D2B41432  30.699  24.710  13.278 -0.0170  0.3663 -0.0319
 3531DOPE   C3B41433  30.852  24.570  13.694 -0.2300  0.0845 -0.3423
 3531DOPE   C4B41434  31.077  24.369  14.003  0.2581  0.0551  0.0225
 3532DOPC   NC341435   0.130  30.767  12.264 -0.0737  0.1679 -0.2752
 3532DOPC   PO441436  -0.171  30.955  12.422  0.2829  0.2341 -0.1429
 3532DOPC   GL141437  -0.308  31.322  12.405 -0.1446  0.3040  0.2088
 3532DOPC   GL241438  -0.543  31.208  12.228  0.0550  0.0542 -0.4398
 3532DOPC   C1A41439  -0.627  31.671  12.395 -0.0903 -0.0114 -0.1409
 3532DOPC   D2A41440  -0.937  31.948  12.652  0.1758  0.0565  0.4964
 3532DOPC   C3A41441  -1.349  31.822  12.739 -0.1860  0.0743 -0.2149
 3532DOPC   C4A41442  -1.794  31.666  12.723 -0.2152 -0.3151 -0.0452
 3532DOPC   C1B41443  -0.950  31.247  12.456 -0.3467  0.2753 -0.2001
 3532DOPC   D2B41444  -1.188  31.251  12.805 -0.0629 -0.0692 -0.2607
 3532DOPC   C3B41445  -1.593  31.218  12.773  0.0063  0.2334  0.1940
 3532DOPC   C4B41446  -1.970  31.224  12.511 -0.0757  0.1052 -0.0596
 3533POSM   NC341447  25.626  27.150  12.314  0.0939 -0.2435  0.0264
 3533POSM   PO441448  25.825  26.821  12.247  0.0261  0.1039  0.1467
 3533POSM   AM141449  26.093  26.949  12.399 -0.2859 -0.3277 -0.2023
 3533POSM   AM241450  26.100  27.200  12.561  0.1492  0.1771 -0.0084
 3533POSM   T1A41451  26.467  26.875  12.693 -0.1349  0.0246  0.1307
 3533POSM   C2A41452  26.941  26.885  12.773 -0.0109  0.1243  0.3645
 3533POSM   C3A41453  27.352  26.762  12.560 -0.1703 -0.2204 -0.0842
 3533POSM   C1B41454  26.169  27.151  12.900 -0.0150 -0.1130  0.0465
 3533POSM   D2B41455  26.458  27.028  13.205  0.1844 -0.2020  0.3926
 3533POSM   C3B41456  26.558  27.119  13.651  0.0917  0.0128  0.0145
 3533POSM   C4B41457  26.345  27.110  14.093 -0.2628  0.2135 -0.2261
 3534DOPS   CNO41458  25.942  23.452  12.008  0.1749  0.0558 -0.1174
 3534DOPS   PO441459  26.104  23.088  12.037  0.0654  0.0890 -0.0372
 3534DOPS   GL141460  26.007  22.715  12.186  0.2612 -0.1503 -0.3891
 3534DOPS   GL241461  26.267  22.650  12.162  0.1429 -0.1374 -0.0283
 3534DOPS   C1A41462  25.819  22.274  12.282 -0.1962  0.3242  0.3283
 3534DOPS   D2A41463  25.826  21.811  12.130 -0.0074  0.0278 -0.0565
 3534DOPS   C3A41464  26.295  21.824  12.084 -0.0730  0.2456  0.1346
 3534DOPS   C4A41465  26.736  22.030  12.215 -0.1128  0.2091 -0.0790
 3534DOPS   C1B41466  26.300  22.286  12.414 -0.1403 -0.0795 -0.0505
 3534DOPS   D2B41467  26.500  22.191  12.787 -0.2632 -0.0418 -0.1677
 3534DOPS   C3B41468  26.620  22.333  13.166 -0.2572  0.1011 -0.0057
 3534DOPS   C4B41469  26.648  22.622  13.505  0.0647 -0.1721 -0.1243
 3535DOPE   NH341470  25.456  29.466  12.774 -0.2240  0.2473  0.1147
 3535DOPE   PO441471  25.166  29.360  12.799 -0.3278  0.1363 -0.0034
 3535DOPE   GL141472  25.075  29.462  13.126 -0.0269 -0.2582  0.0034
 3535DOPE   GL241473  25.347  29.590  13.316 -0.0008 -0.0014 -0.2236
 3535DOPE   C1A41474  24.629  29.302  13.275  0.0506 -0.2122  0.0523
 3535DOPE   D2A41475  24.480  28.919  13.330  0.3192  0.0989  0.2063
 3535DOPE   C3A41476  24.702  28.780  13.729 -0.3619 -0.2937 -0.1816
 3535DOPE   C4A41477  25.089  28.860  13.962  0.0378  0.0564  0.0424
 3535DOPE   C1B41478  25.345  30.004  13.509 -0.1829 -0.5879  0.0291
 3535DOPE   D2B41479  25.534  30.416  13.375  0.2614  0.3774  0.1719
 3535DOPE   C3B41480  25.155  30.642  13.233  0.4491 -0.1427  0.0770
 3535DOPE   C4B41481  24.929  31.046  13.187  0.0437 -0.0961 -0.4549
 3536POSM   NC341482  22.975  25.724  12.320 -0.0056  0.0569 -0.2979
 3536POSM   PO441483  23.272  26.001  12.245  0.2259 -0.0410 -0.1414
 3536POSM   AM141484  23.316  25.968  12.554  0.1444 -0.0608  0.2223
 3536POSM   AM241485  23.277  25.777  12.722  0.2144 -0.2549  0.0290
 3536POSM   T1A41486  23.603  26.058  13.022 -0.1403  0.0449 -0.1180
 3536POSM   C2A41487  23.690  26.158  13.471  0.0311 -0.1285  0.2003
 3536POSM   C3A41488  23.525  26.406  13.870 -0.1251 -0.1424  0.1569
 3536POSM   C1B41489  23.506  25.606  12.961 -0.1215 -0.2050  0.1054
 3536POSM   D2B41490  23.892  25.694  13.238  0.0050  0.1245 -0.1818
 3536POSM   C3B41491  24.158  25.436  13.497  0.3889 -0.2814  0.2411
 3536POSM   C4B41492  24.465  25.134  13.459  0.2327 -0.2047 -0.0730
 3537DOPC   NC341493  29.726  28.408  12.765 -0.1806 -0.4082 -0.1288
 3537DOPC   PO441494  29.761  28.080  12.552  0.1500  0.0536 -0.0017
 3537DOPC   GL141495  29.449  27.845  12.648  0.2437 -0.0152 -0.0534
 3537DOPC   GL241496  29.372  28.035  12.871 -0.0132  0.0927  0.0045
 3537DOPC   C1A41497  29.005  27.725  12.779  0.0469 -0.0577  0.1845
 3537DOPC   D2A41498  28.627  27.603  13.017 -0.2192  0.0154  0.2602
 3537DOPC   C3A41499  28.590  27.781  13.464 -0.1245 -0.3265 -0.0683
 3537DOPC   C4A41500  28.427  28.036  13.811  0.1871  0.2102 -0.2016
 3537DOPC   C1B41501  29.093  27.936  13.258  0.2901 -0.1928 -0.0767
 3537DOPC   D2B41502  28.998  28.163  13.647  0.1351 -0.2102  0.0206
 3537DOPC   C3B41503  29.402  28.251  13.952 -0.2563  0.3266  0.0498
 3537DOPC   C4B41504  29.747  28.418  14.217 -0.0670 -0.0305  0.0661
 3538DOPS   CNO41505  26.350  23.697  12.208  0.0147 -0.1013 -0.1571
 3538DOPS   PO441506  26.466  23.543  12.554 -0.1877  0.0367  0.0314
 3538DOPS   GL141507  26.596  23.890  12.770  0.0689  0.3600  0.2687
 3538DOPS   GL241508  26.470  23.857  13.094 -0.4939  0.1865  0.1526
 3538DOPS   C1A41509  26.814  24.267  12.884 -0.3922 -0.1287  0.0677
 3538DOPS   D2A41510  26.628  24.582  13.099  0.1945 -0.2287  0.1121
 3538DOPS   C3A41511  26.538  24.641  13.542  0.0428 -0.0389 -0.2745
 3538DOPS   C4A41512  26.349  24.825  13.903 -0.1560 -0.2938  0.0489
 3538DOPS   C1B41513  26.660  23.672  13.468  0.0804  0.4701 -0.0462
 3538DOPS   D2B41514  27.051  23.731  13.631 -0.2839 -0.1012  0.1184
 3538DOPS   C3B41515  27.254  24.130  13.725 -0.2129 -0.1143 -0.2782
 3538DOPS   C4B41516  27.272  24.407  14.108  0.0904  0.0603  0.2517
 3539DOPC   NC341517  24.752  28.028  12.501 -0.1517 -0.1429 -0.0022
 3539DOPC   PO441518  25.097  28.162  12.414  0.4587  0.2057 -0.2077
 3539DOPC   GL141519  25.164  27.981  12.772 -0.0825 -0.1308 -0.2522
 3539DOPC   GL241520  24.927  28.021  12.936 -0.0704 -0.2281  0.1198
 3539DOPC   C1A41521  25.411  27.908  13.181 -0.1726  0.1676  0.0872
 3539DOPC   D2A41522  25.391  28.035  13.624  0.0489  0.1301 -0.3014
 3539DOPC   C3A41523  24.955  28.113  13.711  0.1340 -0.4582  0.1544
 3539DOPC   C4A41524  24.544  27.988  13.863 -0.1964 -0.1015  0.1449
 3539DOPC   C1B41525  24.907  27.795  13.338  0.0390  0.0797 -0.1007
 3539DOPC   D2B41526  24.981  27.637  13.755  0.2349 -0.1124  0.1828
 3539DOPC   C3B41527  25.397  27.532  13.837  0.4666  0.0664  0.0575
 3539DOPC   C4B41528  25.828  27.344  13.849  0.1740  0.4282  0.3852
 3540DOPC   NC341529  28.331  26.688  13.099 -0.0616 -0.0566  0.2306
 3540DOPC   PO441530  28.510  26.375  12.915  0.0886  0.2095  0.3994
 3540DOPC   GL141531  28.205  26.169  13.173  0.2115  0.0527  0.1450
 3540DOPC   GL241532  28.013  26.278  12.962  0.3716 -0.4361  0.1971
 3540DOPC   C1A41533  27.993  26.162  13.590 -0.0382 -0.1853 -0.0180
 3540DOPC   D2A41534  27.940  26.399  13.967  0.1665  0.3605  0.2470
 3540DOPC   C3A41535  28.286  26.506  14.332 -0.1472 -0.0252 -0.0234
 3540DOPC   C4A41536  28.369  26.596  14.754  0.1554  0.0857 -0.0630
 3540DOPC   C1B41537  27.890  26.667  13.059  0.0688 -0.1727 -0.0598
 3540DOPC   D2B41538  27.685  27.064  13.034  0.1663 -0.1848 -0.1121
 3540DOPC   C3B41539  27.230  26.930  13.213  0.0585  0.0353  0.2508
 3540DOPC   C4B41540  26.875  26.728  13.457 -0.0534  0.0053 -0.0907
 3541DOPE   NH341541  29.240  26.211  12.922 -0.1164  0.4335  0.1071
 3541DOPE   PO441542  29.520  26.241  13.023  0.2202  0.1913 -0.2039
 3541DOPE   GL141543  29.828  26.033  13.193 -0.2167  0.1047 -0.0889
 3541DOPE   GL241544  29.955  25.894  12.986 -0.0449 -0.0795 -0.0429
 3541DOPE   C1A41545  29.938  25.893  13.626 -0.1595  0.2465  0.2857
 3541DOPE   D2A41546  29.815  25.754  14.049  0.0422 -0.2875  0.1333
 3541DOPE   C3A41547  29.787  26.180  14.191 -0.0783  0.1452 -0.1265
 3541DOPE   C4A41548  29.780  26.646  14.389 -0.0723  0.2682 -0.3780
 3541DOPE   C1B41549  30.053  25.453  13.160 -0.2378 -0.0494 -0.4407
 3541DOPE   D2B41550  29.958  25.037  13.330 -0.1398 -0.2462  0.2287
 3541DOPE   C3B41551  30.078  24.918  13.738 -0.0678  0.0683  0.1951
 3541DOPE   C4B41552  30.040  25.204  14.045  0.0695 -0.1077 -0.2603
 3542DOPC   NC341553  25.022  26.895  12.970 -0.0283 -0.0852  0.1080
 3542DOPC   PO441554  24.755  26.903  12.715  0.1894 -0.0608  0.0957
 3542DOPC   GL141555  24.737  26.466  12.698 -0.0239 -0.1134 -0.1318
 3542DOPC   GL241556  24.740  26.438  12.978  0.3372  0.1290  0.1865
 3542DOPC   C1A41557  24.855  26.041  12.742 -0.2914 -0.4078  0.1237
 3542DOPC   D2A41558  25.027  25.795  13.107  0.1085  0.1960  0.3724
 3542DOPC   C3A41559  24.810  25.376  13.097  0.0219 -0.1433 -0.1558
 3542DOPC   C4A41560  24.634  24.955  12.998 -0.1537 -0.0938  0.0689
 3542DOPC   C1B41561  25.157  26.269  13.187 -0.1158 -0.2919  0.0252
 3542DOPC   D2B41562  25.417  26.005  13.377  0.0499 -0.3016  0.1323
 3542DOPC   C3B41563  25.105  25.842  13.706 -0.1118  0.0685 -0.1411
 3542DOPC   C4B41564  25.210  25.580  14.106  0.2013 -0.0341 -0.1794
 3543DOPC   NC341565  30.026  34.154  13.043  0.0100  0.0294 -0.3422
 3543DOPC   PO441566  29.948  34.510  12.895 -0.2770 -0.1278  0.1180
 3543DOPC   GL141567  30.263  34.638  13.201 -0.0221 -0.2135  0.1541
 3543DOPC   GL241568  30.511  34.689  13.085  0.4119 -0.4249  0.0218
 3543DOPC   C1A41569  30.361  34.780  13.679 -0.0908 -0.0983  0.1265
 3543DOPC   D2A41570  30.437  34.784  14.153 -0.1537 -0.0623 -0.1989
 3543DOPC   C3A41571  30.604  34.445  14.477 -0.1370  0.0013 -0.3416
 3543DOPC   C4A41572  30.782  34.071  14.505  0.0960 -0.1936 -0.1889
 3543DOPC   C1B41573  30.718  34.920  13.376  0.2157  0.0254  0.3735
 3543DOPC   D2B41574  31.135  35.081  13.591 -0.2382 -0.1853 -0.2753
 3543DOPC   C3B41575  31.490  34.819  13.813  0.0864 -0.0913 -0.1126
 3543DOPC   C4B41576  31.740  34.493  13.963  0.0060  0.3184 -0.0495
 3544POSM   NC341577  28.528  33.869  12.659 -0.2824  0.2229  0.1429
 3544POSM   PO441578  28.546  34.222  12.892 -0.1064  0.0310  0.0315
 3544POSM   AM141579  28.560  34.203  13.205  0.3308 -0.2144 -0.1445
 3544POSM   AM241580  28.466  34.426  13.295  0.1817 -0.0434 -0.3153
 3544POSM   T1A41581  28.479  33.906  13.572  0.2587  0.0405  0.2790
 3544POSM   C2A41582  28.347  33.562  13.867 -0.0594 -0.1414  0.3332
 3544POSM   C3A41583  28.185  33.168  14.161 -0.3242  0.1456 -0.0751
 3544POSM   C1B41584  28.408  34.442  13.631 -0.1999 -0.2087 -0.3708
 3544POSM   D2B41585  28.537  34.416  14.062  0.1118 -0.1620 -0.1768
 3544POSM   C3B41586  28.287  34.070  14.177  0.1574 -0.2481 -0.1053
 3544POSM   C4B41587  28.380  33.659  14.322 -0.2434  0.0501 -0.0461
 3545DOPE   NH341588  29.033  26.755  12.450 -0.2693 -0.2809 -0.2452
 3545DOPE   PO441589  28.950  26.548  12.670  0.0914 -0.1716  0.2165
 3545DOPE   GL141590  28.750  26.944  12.746  0.5238 -0.4551  0.3468
 3545DOPE   GL241591  28.736  26.939  12.988 -0.1377 -0.0143  0.1602
 3545DOPE   C1A41592  28.700  27.304  12.591 -0.4545 -0.0203  0.3243
 3545DOPE   D2A41593  28.516  27.767  12.558 -0.1988 -0.0545 -0.2878
 3545DOPE   C3A41594  28.131  28.050  12.714  0.2133  0.0766  0.1568
 3545DOPE   C4A41595  28.082  28.332  13.110 -0.1888  0.0247 -0.1610
 3545DOPE   C1B41596  28.653  27.086  13.433  0.1404  0.0704  0.1099
 3545DOPE   D2B41597  28.496  27.017  13.873  0.0922 -0.0203  0.1783
 3545DOPE   C3B41598  28.115  27.318  14.103  0.2666 -0.1054 -0.0367
 3545DOPE   C4B41599  28.084  27.487  14.503  0.1313  0.2487 -0.1490
 3546DOPS   CNO41600  28.852  26.202  12.228  0.2650 -0.1812  0.1227
 3546DOPS   PO441601  28.531  26.349  12.406  0.3099  0.0842 -0.1665
 3546DOPS   GL141602  28.159  26.549  12.561  0.1714  0.2820 -0.1067
 3546DOPS   GL241603  28.381  26.770  12.617 -0.2518 -0.0790  0.0417
 3546DOPS   C1A41604  27.846  26.904  12.515  0.2564 -0.2939 -0.0338
 3546DOPS   D2A41605  27.560  27.138  12.286  0.0605 -0.0318  0.1658
 3546DOPS   C3A41606  27.239  27.261  12.608 -0.1156 -0.1154  0.0254
 3546DOPS   C4A41607  27.386  27.476  13.012 -0.0603 -0.0929 -0.0935
 3546DOPS   C1B41608  28.184  27.118  12.851 -0.0313  0.0074 -0.2070
 3546DOPS   D2B41609  28.128  27.169  13.268  0.0372 -0.2222  0.1267
 3546DOPS   C3B41610  27.645  27.339  13.438 -0.0178  0.2152 -0.0336
 3546DOPS   C4B41611  27.361  27.737  13.474 -0.3139  0.2144  0.1722
 3547DOPC   NC341612  27.395  33.913  12.682 -0.0081  0.0895 -0.0424
 3547DOPC   PO441613  27.590  34.220  12.768 -0.0767 -0.0806 -0.1843
 3547DOPC   GL141614  27.505  34.311  13.114  0.0415  0.1681  0.0970
 3547DOPC   GL241615  27.282  34.157  13.194  0.2454  0.3129  0.0342
 3547DOPC   C1A41616  27.629  34.417  13.548  0.2015 -0.1445  0.3337
 3547DOPC   D2A41617  27.452  34.750  13.805  0.0893 -0.0051  0.3334
 3547DOPC   C3A41618  27.422  34.850  14.314 -0.1890 -0.0088 -0.0168
 3547DOPC   C4A41619  27.100  34.942  14.633 -0.0115 -0.1992 -0.1379
 3547DOPC   C1B41620  27.012  33.915  13.443 -0.0350 -0.1597  0.0776
 3547DOPC   D2B41621  26.590  33.845  13.644  0.3656  0.0812  0.2193
 3547DOPC   C3B41622  26.614  34.067  14.033 -0.1686 -0.0321  0.4416
 3547DOPC   C4B41623  26.712  34.261  14.418  0.0334  0.0925  0.2002
 3548DOPE   NH341624  24.473  27.256  12.495 -0.0576 -0.1513 -0.1143
 3548DOPE   PO441625  24.256  27.164  12.700  0.1611 -0.2193 -0.0892
 3548DOPE   GL141626  24.103  27.211  13.028  0.2856  0.0789 -0.2760
 3548DOPE   GL241627  24.127  27.399  13.283 -0.1880 -0.1065 -0.3796
 3548DOPE   C1A41628  23.906  26.911  13.350  0.0625 -0.1994  0.1952
 3548DOPE   D2A41629  23.597  26.629  13.421  0.1332  0.0304  0.1807
 3548DOPE   C3A41630  23.291  26.864  13.659  0.1624 -0.2120 -0.0713
 3548DOPE   C4A41631  23.279  26.973  14.120  0.0610 -0.4729  0.2301
 3548DOPE   C1B41632  24.015  27.252  13.691 -0.1638 -0.1990  0.0870
 3548DOPE   D2B41633  23.790  26.907  13.826  0.3153 -0.0852  0.0950
 3548DOPE   C3B41634  24.113  26.618  13.935  0.0792 -0.0761  0.0088
 3548DOPE   C4B41635  24.141  26.434  14.337 -0.0918 -0.4452  0.1336
 3549DOPE   NH341636  30.052  29.129  12.702  0.1934 -0.1922 -0.0549
 3549DOPE   PO441637  30.024  28.845  12.797  0.4725 -0.0999  0.0257
 3549DOPE   GL141638  29.617  28.874  12.578 -0.0905 -0.3229  0.3382
 3549DOPE   GL241639  29.553  29.015  12.817  0.0106  0.1684  0.1679
 3549DOPE   C1A41640  29.253  28.565  12.602  0.4941  0.3152 -0.0738
 3549DOPE   D2A41641  28.928  28.200  12.640  0.0892  0.1845  0.0715
 3549DOPE   C3A41642  28.639  28.106  12.955  0.2369  0.0129  0.2403
 3549DOPE   C4A41643  28.503  28.300  13.369 -0.2478  0.1677  0.1579
 3549DOPE   C1B41644  29.127  29.013  13.008 -0.2702  0.2744 -0.1024
 3549DOPE   D2B41645  28.803  29.250  13.232  0.0507  0.2298 -0.1037
 3549DOPE   C3B41646  28.744  29.259  13.659 -0.0279 -0.1271 -0.1811
 3549DOPE   C4B41647  28.991  29.071  13.934 -0.0258  0.2509 -0.0094
 3550POSM   NC341648  31.951  30.438  12.409 -0.1515 -0.1456  0.2840
 3550POSM   PO441649  31.792  30.475  12.799  0.0417  0.2914 -0.2271
 3550POSM   AM141650  31.785  30.564  13.117  0.2915 -0.0248  0.0054
 3550POSM   AM241651  31.801  30.838  13.257 -0.3771  0.0824 -0.1818
 3550POSM   T1A41652  32.159  30.591  13.444  0.3616  0.1633  0.0581
 3550POSM   C2A41653  32.537  30.744  13.696  0.1987  0.3498  0.1704
 3550POSM   C3A41654  32.718  30.779  14.074  0.1352  0.1698  0.2770
 3550POSM   C1B41655  31.919  31.158  13.261  0.1691  0.1880  0.3812
 3550POSM   D2B41656  31.770  31.636  13.365 -0.2101  0.3264 -0.0312
 3550POSM   C3B41657  31.734  31.939  13.746  0.1847  0.3052 -0.1416
 3550POSM   C4B41658  31.895  32.164  14.099 -0.2137 -0.1142  0.3714
 3551POSM   NC341659  32.720  34.200  12.854  0.1249  0.2074 -0.4576
 3551POSM   PO441660  32.523  34.506  12.636 -0.1042 -0.0379 -0.0410
 3551POSM   AM141661  32.354  34.463  12.933 -0.6283 -0.4953 -0.2257
 3551POSM   AM241662  32.358  34.582  13.199  0.0016 -0.2086 -0.4167
 3551POSM   T1A41663  32.140  34.188  13.316  0.0664  0.1548 -0.2279
 3551POSM   C2A41664  31.832  34.107  13.637 -0.3616  0.1454 -0.1721
 3551POSM   C3A41665  31.528  33.938  13.928  0.0254 -0.1571 -0.0189
 3551POSM   C1B41666  32.582  34.404  13.437  0.0209  0.2370 -0.2392
 3551POSM   D2B41667  32.705  34.286  13.843  0.0921  0.3275 -0.3191
 3551POSM   C3B41668  32.725  33.846  13.956 -0.2151  0.0443  0.1395
 3551POSM   C4B41669  32.556  33.501  14.184 -0.0073 -0.1822  0.1311
 3552DOPC   NC341670  23.852  26.869  12.778  0.1071 -0.1833  0.0991
 3552DOPC   PO441671  23.732  27.232  12.625 -0.0154 -0.0484  0.1535
 3552DOPC   GL141672  23.657  27.281  12.975  0.2931  0.1249  0.0552
 3552DOPC   GL241673  23.459  27.552  13.005  0.1310 -0.1297  0.2358
 3552DOPC   C1A41674  23.551  27.239  13.420 -0.1394  0.1471 -0.0312
 3552DOPC   D2A41675  23.367  27.328  13.783 -0.2354  0.0861  0.1636
 3552DOPC   C3A41676  23.174  27.713  13.855 -0.1202  0.2341  0.1858
 3552DOPC   C4A41677  22.939  28.024  13.640  0.2892  0.0964 -0.2924
 3552DOPC   C1B41678  23.743  27.728  13.333  0.2010  0.2097  0.3025
 3552DOPC   D2B41679  23.864  28.169  13.407  0.0799  0.1219 -0.1714
 3552DOPC   C3B41680  23.655  28.436  13.706 -0.0622 -0.2516 -0.1085
 3552DOPC   C4B41681  23.445  28.744  13.928 -0.1896  0.0053  0.0641
 3553DOPC   NC341682  27.718  33.911  13.128 -0.0145  0.0205 -0.1802
 3553DOPC   PO441683  27.441  33.645  13.050  0.1599  0.1116  0.2463
 3553DOPC   GL141684  27.294  33.360  13.193 -0.1917 -0.0315  0.0761
 3553DOPC   GL241685  27.000  33.257  13.198 -0.3386  0.0721  0.0458
 3553DOPC   C1A41686  27.371  33.156  13.599 -0.1774 -0.1009 -0.0694
 3553DOPC   D2A41687  27.106  32.939  13.925 -0.1686 -0.2889  0.0851
 3553DOPC   C3A41688  26.847  32.633  13.822 -0.2967  0.2655 -0.0231
 3553DOPC   C4A41689  26.429  32.561  13.723  0.1990 -0.1148  0.0958
 3553DOPC   C1B41690  26.731  33.099  13.521  0.1574 -0.2433  0.0364
 3553DOPC   D2B41691  26.506  33.071  13.923 -0.2020 -0.0796 -0.1191
 3553DOPC   C3B41692  26.393  33.250  14.357  0.1951  0.0590  0.0001
 3553DOPC   C4B41693  26.057  33.542  14.532 -0.0002  0.1205  0.1222
 3554DOPC   NC341694  29.712  30.736  12.676  0.0441  0.2940 -0.3644
 3554DOPC   PO441695  30.037  30.971  12.654 -0.0461 -0.1321 -0.0273
 3554DOPC   GL141696  29.955  30.912  13.025 -0.0822 -0.0955 -0.1350
 3554DOPC   GL241697  30.129  30.962  13.243  0.0206  0.0045  0.0066
 3554DOPC   C1A41698  29.633  30.898  13.342  0.0646  0.0264  0.0540
 3554DOPC   D2A41699  29.519  30.573  13.703  0.3970 -0.0865 -0.1203
 3554DOPC   C3A41700  29.491  30.172  13.647 -0.1663  0.0341 -0.1182
 3554DOPC   C4A41701  29.612  29.778  13.511  0.0806  0.3308 -0.0608
 3554DOPC   C1B41702  30.090  30.599  13.487 -0.0470  0.0900 -0.2266
 3554DOPC   D2B41703  30.025  30.285  13.785  0.2120 -0.3513  0.0519
 3554DOPC   C3B41704  30.140  30.283  14.233  0.2105  0.2329 -0.1327
 3554DOPC   C4B41705  30.503  30.285  14.470  0.1640 -0.1412  0.3091
 3555POSM   NC341706  24.865  26.841  12.212  0.1285  0.1265  0.1759
 3555POSM   PO441707  25.269  26.850  12.286  0.2161  0.0357  0.2053
 3555POSM   AM141708  25.417  26.646  12.483 -0.2010 -0.1454 -0.0566
 3555POSM   AM241709  25.314  26.474  12.739 -0.0485 -0.0829  0.2096
 3555POSM   T1A41710  25.741  26.276  12.506 -0.2154 -0.2678  0.1442
 3555POSM   C2A41711  26.155  26.474  12.526  0.0496 -0.0732 -0.1423
 3555POSM   C3A41712  26.497  26.171  12.683 -0.0866 -0.1827  0.1964
 3555POSM   C1B41713  25.296  26.157  12.690  0.2210 -0.1762  0.1658
 3555POSM   D2B41714  25.438  25.756  12.534  0.1604 -0.0589 -0.0130
 3555POSM   C3B41715  25.913  25.680  12.528 -0.1806  0.2715 -0.5287
 3555POSM   C4B41716  26.321  25.588  12.690  0.0347 -0.0617  0.1626
 3556DOPC   NC341717  24.412  34.013  12.336 -0.0878 -0.2787 -0.1398
 3556DOPC   PO441718  24.798  34.115  12.289  0.1301  0.2001 -0.2058
 3556DOPC   GL141719  25.115  33.963  12.601  0.1454  0.1519 -0.2096
 3556DOPC   GL241720  25.043  34.254  12.740 -0.0972  0.2164  0.1174
 3556DOPC   C1A41721  25.119  33.547  12.706  0.0564  0.0454  0.1839
 3556DOPC   D2A41722  24.922  33.296  13.036  0.1294 -0.0738  0.2205
 3556DOPC   C3A41723  24.976  32.899  13.272 -0.1183  0.1441 -0.0654
 3556DOPC   C4A41724  24.760  32.491  13.362  0.0151  0.2122 -0.1438
 3556DOPC   C1B41725  24.866  33.874  12.984  0.0636  0.2745  0.0502
 3556DOPC   D2B41726  24.741  33.741  13.412  0.0450  0.1073 -0.2513
 3556DOPC   C3B41727  24.789  33.713  13.876 -0.2052  0.1208  0.0315
 3556DOPC   C4B41728  24.923  33.960  14.200 -0.0511 -0.0438 -0.1210
 3557POSM   NC341729  33.860  27.193  12.333 -0.3570  0.0946  0.1893
 3557POSM   PO441730  33.514  26.934  12.294 -0.1667  0.2925  0.1301
 3557POSM   AM141731  33.459  27.170  12.553  0.3734 -0.0567  0.2019
 3557POSM   AM241732  33.409  27.465  12.553 -0.1349  0.0663  0.3487
 3557POSM   T1A41733  33.302  27.333  12.984  0.0268 -0.2998  0.4939
 3557POSM   C2A41734  33.613  27.283  13.360  0.0578  0.1048  0.2246
 3557POSM   C3A41735  33.872  27.437  13.681 -0.1540  0.1025  0.0487
 3557POSM   C1B41736  33.257  27.786  12.758  0.0298 -0.0288  0.0646
 3557POSM   D2B41737  33.023  27.789  13.136 -0.2438 -0.0901  0.4271
 3557POSM   C3B41738  33.062  27.439  13.445  0.1689 -0.0896 -0.0032
 3557POSM   C4B41739  33.309  27.226  13.713  0.2308 -0.1934  0.0894
 3558DOPS   CNO41740  32.175  25.503  12.587 -0.0958  0.2219  0.0652
 3558DOPS   PO441741  31.999  25.209  12.671 -0.1200 -0.1440  0.2934
 3558DOPS   GL141742  31.955  24.972  13.027 -0.1300 -0.3463 -0.1365
 3558DOPS   GL241743  31.732  24.904  13.169 -0.0459  0.0763  0.4565
 3558DOPS   C1A41744  32.088  25.054  13.516  0.0978  0.2309 -0.3776
 3558DOPS   D2A41745  31.931  25.001  13.965  0.0105 -0.1331 -0.1721
 3558DOPS   C3A41746  32.136  25.049  14.369  0.3395 -0.1574 -0.0181
 3558DOPS   C4A41747  32.406  25.305  14.660  0.1208  0.0861  0.1273
 3558DOPS   C1B41748  31.592  24.980  13.580  0.1190  0.0628 -0.0606
 3558DOPS   D2B41749  31.411  25.149  13.952  0.1275  0.0689  0.1255
 3558DOPS   C3B41750  31.660  25.470  14.115  0.3047  0.1118 -0.1391
 3558DOPS   C4B41751  31.820  25.918  14.045  0.0735 -0.0060  0.0733
 3559DOPC   NC341752  28.070  29.088  12.452  0.1242  0.1976  0.0658
 3559DOPC   PO441753  27.686  29.100  12.564  0.4228  0.0044 -0.1247
 3559DOPC   GL141754  27.788  28.629  12.643 -0.1674 -0.2064 -0.0501
 3559DOPC   GL241755  28.063  28.570  12.431 -0.2452  0.1323  0.1498
 3559DOPC   C1A41756  27.606  28.180  12.488  0.3641  0.1072  0.0262
 3559DOPC   D2A41757  27.594  27.704  12.622  0.0419 -0.1136 -0.1463
 3559DOPC   C3A41758  27.913  27.611  12.952 -0.1336  0.4204 -0.0800
 3559DOPC   C4A41759  28.213  27.857  13.180  0.2243  0.3792  0.2464
 3559DOPC   C1B41760  28.446  28.681  12.727  0.2384  0.2582 -0.0572
 3559DOPC   D2B41761  28.740  28.725  13.076  0.2727  0.1775  0.4119
 3559DOPC   C3B41762  29.098  28.440  13.164 -0.1839 -0.2837 -0.0333
 3559DOPC   C4B41763  29.480  28.259  13.414  0.0494 -0.1095 -0.4949
 3560DOPS   CNO41764  22.720  33.238  11.965  0.0048  0.0722  0.1206
 3560DOPS   PO441765  22.994  33.091  12.158  0.0515  0.2098  0.4520
 3560DOPS   GL141766  23.248  33.019  12.512  0.1942 -0.2964 -0.3123
 3560DOPS   GL241767  23.357  33.250  12.468 -0.2374 -0.0263  0.1594
 3560DOPS   C1A41768  23.407  32.711  12.823  0.1809  0.0044 -0.0139
 3560DOPS   D2A41769  23.447  32.863  13.345  0.2253  0.2975  0.3272
 3560DOPS   C3A41770  23.115  32.907  13.631 -0.1346 -0.4114  0.1090
 3560DOPS   C4A41771  22.846  33.011  13.947 -0.2275  0.1755 -0.0165
 3560DOPS   C1B41772  23.786  33.124  12.644 -0.0704 -0.2467  0.0294
 3560DOPS   D2B41773  24.185  33.004  12.844  0.2680 -0.1958  0.2278
 3560DOPS   C3B41774  24.522  32.702  12.916 -0.0180 -0.0609 -0.0518
 3560DOPS   C4B41775  24.645  32.287  12.872  0.2103 -0.0449 -0.0836
 3561DOPE   NH341776  27.990  31.028  12.844  0.1112 -0.1540  0.0103
 3561DOPE   PO441777  28.182  31.076  12.588 -0.2446 -0.0372 -0.0679
 3561DOPE   GL141778  28.269  31.379  12.808  0.0249 -0.3456  0.1160
 3561DOPE   GL241779  28.395  31.337  13.050  0.1293  0.0685  0.0256
 3561DOPE   C1A41780  28.315  31.836  12.638  0.2169  0.3606  0.1505
 3561DOPE   D2A41781  28.374  32.150  12.943  0.3716  0.2001 -0.1997
 3561DOPE   C3A41782  28.122  32.276  13.322  0.1101 -0.0926 -0.1558
 3561DOPE   C4A41783  27.857  32.486  13.607 -0.0774  0.0280 -0.1140
 3561DOPE   C1B41784  28.460  31.452  13.482 -0.0769  0.2834  0.0756
 3561DOPE   D2B41785  28.549  31.464  13.915 -0.3078 -0.0413 -0.2126
 3561DOPE   C3B41786  28.863  31.212  14.172 -0.0810  0.2495  0.2774
 3561DOPE   C4B41787  29.052  31.087  14.570 -0.2444 -0.1270  0.1690
 3562DOPE   NH341788  33.489  25.260  12.836  0.0066 -0.2383 -0.0674
 3562DOPE   PO441789  33.469  25.278  13.163 -0.1141  0.1560  0.1435
 3562DOPE   GL141790  33.730  25.587  13.400  0.2528 -0.2016 -0.0798
 3562DOPE   GL241791  33.888  25.376  13.496  0.3183  0.0812 -0.3202
 3562DOPE   C1A41792  34.206  25.656  13.339  0.0451 -0.0494 -0.0641
 3562DOPE   D2A41793  34.575  25.841  13.574 -0.2877 -0.4623  0.2946
 3562DOPE   C3A41794  34.550  26.261  13.732 -0.1641 -0.0087  0.1539
 3562DOPE   C4A41795  34.538  26.618  14.014  0.0490  0.2133 -0.1732
 3562DOPE   C1B41796  34.279  25.288  13.690 -0.0937  0.1830  0.1036
 3562DOPE   D2B41797  34.715  25.082  13.818 -0.0429 -0.1893 -0.0057
 3562DOPE   C3B41798  34.886  25.458  13.893 -0.2173  0.1649 -0.0352
 3562DOPE   C4B41799  34.766  25.824  14.036  0.0204 -0.4680 -0.4738
 3563DOPE   NH341800  30.347  26.608  12.525 -0.0070  0.2430 -0.5139
 3563DOPE   PO441801  30.341  26.670  12.833 -0.0386  0.0992  0.0832
 3563DOPE   GL141802  30.114  26.943  12.974 -0.5606 -0.0522  0.0194
 3563DOPE   GL241803  29.945  27.023  12.717 -0.2818  0.1793  0.2970
 3563DOPE   C1A41804  30.103  27.085  13.385 -0.3528 -0.0946 -0.0144
 3563DOPE   D2A41805  30.148  27.395  13.802 -0.0117 -0.1171 -0.1342
 3563DOPE   C3A41806  30.335  27.223  14.210  0.1134 -0.3627 -0.1062
 3563DOPE   C4A41807  30.248  26.826  14.398 -0.0797  0.2744 -0.0014
 3563DOPE   C1B41808  30.080  27.356  12.974 -0.0841 -0.1191 -0.2141
 3563DOPE   D2B41809  30.464  27.532  13.294  0.0058  0.1148  0.1405
 3563DOPE   C3B41810  30.725  27.297  13.616  0.1163 -0.0347  0.1883
 3563DOPE   C4B41811  30.729  26.986  13.935  0.5135  0.1008  0.0767
 3564DOPC   NC341812  28.979  25.586  12.838 -0.1498 -0.1751  0.3259
 3564DOPC   PO441813  28.983  25.225  12.678  0.0026 -0.1610  0.0859
 3564DOPC   GL141814  29.144  25.015  13.020  0.0526  0.0292 -0.0127
 3564DOPC   GL241815  29.002  25.228  13.211  0.5077  0.1947  0.0295
 3564DOPC   C1A41816  29.149  24.798  13.452 -0.1914  0.2430  0.3727
 3564DOPC   D2A41817  29.326  24.544  13.727 -0.3441 -0.0841  0.0497
 3564DOPC   C3A41818  29.045  24.281  13.976 -0.3898 -0.0874  0.0301
 3564DOPC   C4A41819  28.914  23.845  14.071 -0.0832 -0.0273 -0.1092
 3564DOPC   C1B41820  28.645  25.063  13.536  0.4653  0.0962  0.0412
 3564DOPC   D2B41821  28.320  24.800  13.332 -0.1093 -0.1368  0.2339
 3564DOPC   C3B41822  27.922  24.742  13.527  0.0539  0.1019 -0.0795
 3564DOPC   C4B41823  27.457  24.650  13.703  0.3298  0.3521 -0.2312
 3565DOPS   CNO41824  34.443  30.465  12.219 -0.0594 -0.1868 -0.1906
 3565DOPS   PO441825  34.521  30.431  12.606  0.1869 -0.0650 -0.1561
 3565DOPS   GL141826  34.236  30.469  12.867 -0.0094  0.0358  0.4538
 3565DOPS   GL241827  34.208  30.788  12.858 -0.3072  0.1830 -0.1573
 3565DOPS   C1A41828  33.972  30.537  13.220 -0.1484  0.2415 -0.2329
 3565DOPS   D2A41829  33.813  30.746  13.582 -0.1577 -0.1304 -0.2816
 3565DOPS   C3A41830  33.456  30.896  13.772  0.0784  0.1166  0.1487
 3565DOPS   C4A41831  33.065  31.102  13.894  0.0095  0.5148  0.0171
 3565DOPS   C1B41832  33.935  31.094  13.036  0.3261 -0.0760  0.0135
 3565DOPS   D2B41833  33.589  31.121  13.299  0.1258 -0.2270  0.2846
 3565DOPS   C3B41834  33.515  31.406  13.697 -0.0502 -0.0228  0.0589
 3565DOPS   C4B41835  33.847  31.520  14.033 -0.2786  0.0395  0.1130
 3566DOPS   CNO41836  31.158  34.313  12.307  0.1103 -0.2867  0.1411
 3566DOPS   PO441837  30.931  34.260  12.547 -0.0576 -0.1243  0.2270
 3566DOPS   GL141838  31.011  34.022  12.830 -0.0794 -0.4440  0.2742
 3566DOPS   GL241839  30.751  33.884  12.903  0.2256 -0.0549  0.2821
 3566DOPS   C1A41840  31.219  33.607  12.859  0.1091 -0.2577 -0.0397
 3566DOPS   D2A41841  31.458  33.263  13.055 -0.3586  0.0339  0.3452
 3566DOPS   C3A41842  31.259  33.094  13.442  0.1870  0.1571 -0.3411
 3566DOPS   C4A41843  30.836  32.991  13.665  0.0941  0.2694 -0.1785
 3566DOPS   C1B41844  30.459  33.632  13.090  0.0083  0.1327 -0.0208
 3566DOPS   D2B41845  30.433  33.627  13.547 -0.2090  0.0565  0.2865
 3566DOPS   C3B41846  30.419  33.804  13.975  0.0987 -0.2402  0.0437
 3566DOPS   C4B41847  30.099  34.000  14.190  0.2614 -0.2241  0.0055
 3567DOPC   NC341848  29.551  32.845  12.705 -0.3312 -0.0194 -0.0837
 3567DOPC   PO441849  29.726  33.099  12.948  0.3138  0.1089  0.1337
 3567DOPC   GL141850  29.923  32.698  12.924  0.2035  0.0729  0.0404
 3567DOPC   GL241851  30.198  32.841  13.144  0.0427 -0.0000  0.2628
 3567DOPC   C1A41852  30.230  32.670  12.627  0.1068 -0.1041 -0.1010
 3567DOPC   D2A41853  30.575  33.018  12.634  0.1111  0.2800 -0.2810
 3567DOPC   C3A41854  30.793  33.428  12.627 -0.0010 -0.1771 -0.2078
 3567DOPC   C4A41855  31.020  33.692  12.361  0.1112 -0.0121 -0.0795
 3567DOPC   C1B41856  30.014  33.049  13.516 -0.0140  0.3569  0.2890
 3567DOPC   D2B41857  30.364  33.196  13.776 -0.2816 -0.1329 -0.1955
 3567DOPC   C3B41858  30.664  33.412  14.078 -0.2722 -0.0962 -0.0637
 3567DOPC   C4B41859  30.619  33.559  14.563 -0.2788 -0.1208  0.0351
 3568DOPS   CNO41860  25.402  27.717  12.407  0.0953 -0.1681 -0.0930
 3568DOPS   PO441861  25.704  27.546  12.578 -0.2964  0.0722  0.0950
 3568DOPS   GL141862  25.739  27.713  12.943  0.1357 -0.0698  0.0143
 3568DOPS   GL241863  26.011  27.659  12.944 -0.1090  0.0561 -0.3591
 3568DOPS   C1A41864  25.813  27.760  13.414 -0.1506  0.1430  0.1196
 3568DOPS   D2A41865  25.794  27.834  13.842  0.3038  0.1191  0.1047
 3568DOPS   C3A41866  25.481  27.995  14.148 -0.2843 -0.3600 -0.2820
 3568DOPS   C4A41867  25.363  28.331  14.452  0.0986  0.0248  0.0273
 3568DOPS   C1B41868  26.405  27.546  13.173 -0.1758  0.0175 -0.1985
 3568DOPS   D2B41869  26.828  27.322  13.082 -0.1819 -0.0008 -0.0592
 3568DOPS   C3B41870  27.090  27.333  13.455  0.1476  0.1357  0.1149
 3568DOPS   C4B41871  27.259  27.064  13.718 -0.1317  0.0456  0.0224
 3569DOPS   CNO41872  27.724  30.205  12.268  0.0205  0.2204 -0.2515
 3569DOPS   PO441873  27.601  29.951  12.561  0.0358  0.0884 -0.3918
 3569DOPS   GL141874  27.654  29.906  12.970  0.1906 -0.6370 -0.3267
 3569DOPS   GL241875  27.661  30.168  13.087 -0.1719  0.0237  0.2508
 3569DOPS   C1A41876  27.525  29.600  13.343  0.0728 -0.1163  0.2442
 3569DOPS   D2A41877  27.640  29.157  13.462  0.0717  0.0094 -0.0692
 3569DOPS   C3A41878  27.948  29.101  13.829  0.2709  0.4204 -0.0255
 3569DOPS   C4A41879  28.080  29.187  14.261  0.0087 -0.0498 -0.2494
 3569DOPS   C1B41880  27.555  30.377  13.489  0.0775 -0.2073  0.0696
 3569DOPS   D2B41881  27.263  30.541  13.748 -0.0948  0.0489  0.3225
 3569DOPS   C3B41882  27.156  30.285  14.134 -0.1403  0.0558  0.1853
 3569DOPS   C4B41883  27.173  30.244  14.600  0.3494  0.2880 -0.2329
 3570DOPC   NC341884  23.806  31.086  12.015  0.3604 -0.0176  0.2088
 3570DOPC   PO441885  24.113  31.247  12.176 -0.0486 -0.0672  0.1144
 3570DOPC   GL141886  24.558  31.340  12.327 -0.4326  0.1145  0.2153
 3570DOPC   GL241887  24.490  31.642  12.212  0.2291  0.1984 -0.0354
 3570DOPC   C1A41888  24.807  31.631  12.624 -0.0225  0.2258 -0.0512
 3570DOPC   D2A41889  25.038  32.055  12.722 -0.0591 -0.3305 -0.0255
 3570DOPC   C3A41890  25.426  31.912  12.958 -0.1509  0.2098  0.1924
 3570DOPC   C4A41891  25.603  31.893  13.336 -0.4160 -0.0788 -0.2300
 3570DOPC   C1B41892  24.627  32.047  12.389  0.2531  0.1345  0.2262
 3570DOPC   D2B41893  24.815  32.457  12.434  0.0073 -0.0002  0.0080
 3570DOPC   C3B41894  25.006  32.656  12.819 -0.3922  0.2711 -0.3340
 3570DOPC   C4B41895  25.317  33.018  12.820 -0.1114 -0.2604  0.0223
 3571DOPE   NH341896  34.329  23.185  12.333 -0.2539 -0.2634 -0.2093
 3571DOPE   PO441897  34.126  23.081  12.135 -0.1507 -0.1822  0.1564
 3571DOPE   GL141898  33.803  22.903  12.171 -0.0420 -0.1202  0.1914
 3571DOPE   GL241899  33.560  22.966  12.067  0.1182 -0.1877  0.1967
 3571DOPE   C1A41900  33.636  22.923  12.624  0.1680 -0.3855 -0.2314
 3571DOPE   D2A41901  33.296  22.915  12.870  0.3277 -0.0774  0.0731
 3571DOPE   C3A41902  33.380  22.825  13.307 -0.0711  0.0866  0.1212
 3571DOPE   C4A41903  33.586  22.769  13.694 -0.1277 -0.1732  0.3129
 3571DOPE   C1B41904  33.364  23.343  12.228  0.1434 -0.1577  0.2073
 3571DOPE   D2B41905  33.032  23.424  12.568 -0.1459  0.1981 -0.0995
 3571DOPE   C3B41906  33.233  23.418  12.955 -0.3066 -0.0736 -0.0952
 3571DOPE   C4B41907  33.106  23.400  13.365 -0.2381  0.1566 -0.1477
 3572DOPE   NH341908  22.656  34.022  12.434  0.5015  0.2568  0.1315
 3572DOPE   PO441909  22.983  34.078  12.410  0.0550 -0.4395 -0.3686
 3572DOPE   GL141910  23.131  34.048  12.765  0.2535  0.1201 -0.0438
 3572DOPE   GL241911  23.378  33.753  12.732  0.0433  0.2169 -0.2542
 3572DOPE   C1A41912  23.059  34.389  13.064  0.0027  0.0430 -0.0632
 3572DOPE   D2A41913  23.129  34.343  13.523  0.0968 -0.0442  0.0336
 3572DOPE   C3A41914  23.366  34.008  13.673 -0.0083  0.1082 -0.1035
 3572DOPE   C4A41915  23.832  33.917  13.555  0.1898  0.0889 -0.2796
 3572DOPE   C1B41916  23.701  33.571  12.907 -0.2294  0.0393 -0.0443
 3572DOPE   D2B41917  23.896  33.249  13.193 -0.3099  0.0457 -0.3767
 3572DOPE   C3B41918  24.151  33.486  13.555 -0.2651  0.1145  0.4562
 3572DOPE   C4B41919  24.519  33.351  13.737  0.0984  0.1429 -0.0363
 3573POSM   NC341920  29.405  25.398  12.914 -0.1362  0.2365 -0.2891
 3573POSM   PO441921  29.414  25.780  13.009  0.0286 -0.2053  0.1060
 3573POSM   AM141922  29.340  25.818  13.311  0.4261 -0.1404  0.0508
 3573POSM   AM241923  29.398  25.770  13.585  0.0409 -0.2457  0.0456
 3573POSM   T1A41924  29.058  26.152  13.535 -0.1763 -0.2847 -0.2183
 3573POSM   C2A41925  28.902  25.917  13.885 -0.3426 -0.3571 -0.0846
 3573POSM   C3A41926  28.812  25.519  14.075 -0.1643  0.0278 -0.0413
 3573POSM   C1B41927  29.459  25.977  13.828 -0.2704 -0.1321  0.0436
 3573POSM   D2B41928  29.182  26.216  14.106 -0.3919  0.2034 -0.0372
 3573POSM   C3B41929  29.037  26.108  14.554  0.2319  0.0066 -0.1182
 3573POSM   C4B41930  28.767  26.305  14.881 -0.2164 -0.1334  0.2580
 3574DOPS   CNO41931  32.051  34.563  12.251  0.3372  0.3178 -0.3242
 3574DOPS   PO441932  32.019  34.420  12.598 -0.2098  0.0274 -0.0433
 3574DOPS   GL141933  31.986  34.111  12.742  0.1746  0.2155  0.0960
 3574DOPS   GL241934  32.233  34.025  12.756  0.1338  0.3106  0.1829
 3574DOPS   C1A41935  31.810  33.907  13.124 -0.0316  0.2900 -0.1204
 3574DOPS   D2A41936  31.810  33.615  13.445  0.1728  0.1403 -0.0173
 3574DOPS   C3A41937  31.543  33.402  13.755 -0.0536  0.2740 -0.0219
 3574DOPS   C4A41938  31.216  33.179  14.000  0.2227  0.0342 -0.0236
 3574DOPS   C1B41939  32.372  33.747  13.121  0.0337  0.1097  0.0073
 3574DOPS   D2B41940  32.530  33.317  13.244  0.0619  0.1840  0.1779
 3574DOPS   C3B41941  32.317  33.397  13.620  0.1888 -0.3137 -0.0012
 3574DOPS   C4B41942  32.086  33.610  13.940  0.1154 -0.1068  0.0490
 3575DOPC   NC341943  30.707  25.813  12.594  0.0005  0.1554 -0.1100
 3575DOPC   PO441944  31.067  25.904  12.641  0.0643  0.3917  0.0523
 3575DOPC   GL141945  30.986  25.616  12.939  0.2427  0.0767  0.2974
 3575DOPC   GL241946  30.983  25.378  12.664 -0.0032  0.0516 -0.1977
 3575DOPC   C1A41947  30.776  25.238  13.103  0.0850 -0.1830  0.1760
 3575DOPC   D2A41948  30.544  25.104  13.463 -0.1118 -0.1527 -0.0813
 3575DOPC   C3A41949  30.266  25.444  13.642 -0.1187 -0.1544 -0.2088
 3575DOPC   C4A41950  29.860  25.405  13.651  0.0020  0.1418  0.2617
 3575DOPC   C1B41951  30.638  25.073  12.669 -0.0446  0.0579  0.0097
 3575DOPC   D2B41952  30.294  24.897  12.971 -0.1029  0.0456  0.1010
 3575DOPC   C3B41953  30.156  24.592  13.279  0.0951 -0.0804 -0.2866
 3575DOPC   C4B41954  30.316  24.457  13.677 -0.5271  0.4370  0.2401
 3576DOPE   NH341955  23.191  26.966  12.815 -0.1293  0.2790 -0.2878
 3576DOPE   PO441956  23.395  26.800  12.996  0.2275 -0.1771  0.0111
 3576DOPE   GL141957  23.045  26.703  13.212  0.0560  0.1018  0.2374
 3576DOPE   GL241958  22.794  26.773  13.423  0.1066 -0.1178 -0.1358
 3576DOPE   C1A41959  23.118  26.384  13.529  0.2499  0.0926  0.2762
 3576DOPE   D2A41960  23.238  25.924  13.648 -0.1755 -0.1555 -0.1462
 3576DOPE   C3A41961  23.156  25.532  13.878 -0.1499  0.0482  0.2259
 3576DOPE   C4A41962  23.221  25.335  14.261  0.0076 -0.0478 -0.1584
 3576DOPE   C1B41963  22.550  26.395  13.589  0.1616  0.1579  0.0670
 3576DOPE   D2B41964  22.420  26.279  13.979 -0.2758 -0.2145  0.2825
 3576DOPE   C3B41965  22.006  26.066  14.049  0.0487  0.0845  0.1350
 3576DOPE   C4B41966  21.803  25.672  13.852  0.0192  0.0909 -0.0547
 3577DOPS   CNO41967  29.252  25.931  12.499  0.2208 -0.3475  0.0934
 3577DOPS   PO441968  29.303  25.577  12.438 -0.1948 -0.1629  0.0594
 3577DOPS   GL141969  29.648  25.745  12.585 -0.1927  0.0509 -0.5143
 3577DOPS   GL241970  29.749  25.901  12.267 -0.2073 -0.1611 -0.2782
 3577DOPS   C1A41971  29.879  25.317  12.671  0.2405  0.1305 -0.0325
 3577DOPS   D2A41972  29.676  24.989  12.930 -0.2476 -0.1774 -0.0968
 3577DOPS   C3A41973  29.508  25.106  13.355  0.2142  0.0861  0.3362
 3577DOPS   C4A41974  29.513  25.022  13.835 -0.2005 -0.4405 -0.0647
 3577DOPS   C1B41975  30.136  25.738  12.525  0.1581 -0.2499 -0.2619
 3577DOPS   D2B41976  30.414  25.469  12.822  0.1168  0.1947 -0.3441
 3577DOPS   C3B41977  30.497  25.645  13.266 -0.0708 -0.2226 -0.2318
 3577DOPS   C4B41978  30.473  25.936  13.583 -0.0960 -0.1057 -0.3064
 3578DOPS   CNO41979  31.296  30.283  12.425 -0.0117  0.3039  0.3821
 3578DOPS   PO441980  31.454  30.650  12.381  0.1398  0.0125  0.1981
 3578DOPS   GL141981  31.493  31.016  12.474 -0.6582  0.0342 -0.2029
 3578DOPS   GL241982  31.615  30.912  12.776  0.1030 -0.1157  0.1442
 3578DOPS   C1A41983  31.495  31.468  12.368  0.0706 -0.1916 -0.0672
 3578DOPS   D2A41984  31.592  31.982  12.363 -0.2173  0.0322  0.1778
 3578DOPS   C3A41985  31.924  32.195  12.587 -0.1384 -0.1157  0.3602
 3578DOPS   C4A41986  32.100  32.404  13.011 -0.1197  0.0254 -0.4629
 3578DOPS   C1B41987  31.924  31.250  12.614 -0.1352  0.2577 -0.1742
 3578DOPS   D2B41988  31.999  31.601  12.345  0.3870  0.0747 -0.0708
 3578DOPS   C3B41989  32.379  31.743  12.530 -0.0439  0.0252 -0.1368
 3578DOPS   C4B41990  32.408  32.144  12.736  0.0661 -0.1635  0.2977
 3579DOPE   NH341991  22.596  33.181  12.573 -0.1034  0.2393  0.3220
 3579DOPE   PO441992  22.844  33.024  12.697 -0.0680 -0.0829  0.0872
 3579DOPE   GL141993  23.152  33.142  13.034 -0.0380 -0.2370 -0.1519
 3579DOPE   GL241994  23.018  32.844  13.133 -0.0022  0.2861  0.0974
 3579DOPE   C1A41995  23.374  33.388  13.349  0.4163  0.2046 -0.1732
 3579DOPE   D2A41996  23.641  33.477  13.681  0.0262  0.0639  0.2856
 3579DOPE   C3A41997  23.466  33.143  13.930  0.0315  0.1167  0.0371
 3579DOPE   C4A41998  23.204  33.122  14.298  0.3097 -0.0551  0.2789
 3579DOPE   C1B41999  22.778  32.596  13.392  0.1054 -0.0579 -0.1528
 3579DOPE   D2B42000  22.800  32.505  13.777  0.0152  0.3535 -0.4092
 3579DOPE   C3B42001  22.485  32.568  14.125 -0.1656 -0.3154 -0.1819
 3579DOPE   C4B42002  22.363  32.642  14.545  0.1133 -0.0860  0.1422
 3580DOPE   NH342003  26.936  29.172  12.508  0.1957  0.0869 -0.0529
 3580DOPE   PO442004  27.132  29.132  12.799 -0.0091 -0.1059  0.1024
 3580DOPE   GL142005  27.496  29.053  12.989  0.4561  0.2267 -0.4873
 3580DOPE   GL242006  27.457  28.784  13.080  0.0846 -0.1244  0.1206
 3580DOPE   C1A42007  27.827  29.353  13.050  0.0434  0.0457  0.0409
 3580DOPE   D2A42008  28.170  29.301  13.423 -0.1155 -0.0519  0.2470
 3580DOPE   C3A42009  28.328  28.866  13.509 -0.0730 -0.2598  0.1158
 3580DOPE   C4A42010  28.758  28.653  13.694 -0.0966  0.1046 -0.3480
 3580DOPE   C1B42011  27.716  28.681  13.473 -0.2011  0.1117 -0.0036
 3580DOPE   D2B42012  28.077  28.434  13.703 -0.0484  0.1020  0.0628
 3580DOPE   C3B42013  28.451  28.424  14.053 -0.1312 -0.1616 -0.0020
 3580DOPE   C4B42014  28.835  28.152  14.149 -0.0199  0.0840 -0.2340
 3581POSM   NC342015  34.679  23.911  12.473 -0.0202 -0.1033  0.0175
 3581POSM   PO442016  34.710  23.533  12.427  0.3669  0.1277 -0.4133
 3581POSM   AM142017  34.537  23.472  12.715 -0.1196  0.1483 -0.0499
 3581POSM   AM242018  34.389  23.289  12.842  0.2745 -0.0782 -0.0912
 3581POSM   T1A42019  34.527  23.620  13.191 -0.1716  0.0219  0.2257
 3581POSM   C2A42020  34.363  23.795  13.602  0.0638 -0.1451  0.0109
 3581POSM   C3A42021  33.978  23.655  13.844  0.0725 -0.0199 -0.1162
 3581POSM   C1B42022  34.326  23.136  13.145  0.2406  0.0029 -0.2636
 3581POSM   D2B42023  34.281  23.236  13.645  0.2921 -0.1569  0.1479
 3581POSM   C3B42024  34.438  23.342  14.053  0.2704  0.0714  0.0356
 3581POSM   C4B42025  34.705  23.701  14.065  0.1994 -0.2418 -0.0277
 3582DOPC   NC342026  31.256  28.040  12.411 -0.2434 -0.1032  0.2506
 3582DOPC   PO442027  31.122  27.962  12.791 -0.0877 -0.3316 -0.2078
 3582DOPC   GL142028  31.198  27.890  13.193 -0.1013  0.3096  0.1475
 3582DOPC   GL242029  31.004  27.671  13.281  0.1125 -0.0775  0.1278
 3582DOPC   C1A42030  31.528  27.674  13.505  0.2906 -0.1989  0.1447
 3582DOPC   D2A42031  31.634  27.870  13.896 -0.2436  0.0528 -0.0540
 3582DOPC   C3A42032  31.505  28.337  14.011  0.2663  0.1696  0.0569
 3582DOPC   C4A42033  31.280  28.622  14.310  0.3542  0.0468 -0.1235
 3582DOPC   C1B42034  31.098  27.787  13.714 -0.0619 -0.1748  0.0408
 3582DOPC   D2B42035  31.144  27.811  14.158 -0.1003  0.1780  0.2160
 3582DOPC   C3B42036  31.023  27.571  14.587  0.0946 -0.2423  0.0070
 3582DOPC   C4B42037  30.817  27.358  14.969 -0.1174  0.2410  0.3263
 3583DOPC   NC342038  27.258  28.688  12.659  0.3609  0.0727 -0.0327
 3583DOPC   PO442039  26.859  28.683  12.554 -0.1684  0.2402 -0.1506
 3583DOPC   GL142040  26.769  28.810  12.871  0.0896  0.0808 -0.0255
 3583DOPC   GL242041  26.975  28.579  13.050  0.0078  0.1212 -0.3239
 3583DOPC   C1A42042  26.663  28.750  13.363 -0.0065 -0.1824 -0.1084
 3583DOPC   D2A42043  26.675  28.411  13.666  0.3553 -0.0696  0.1535
 3583DOPC   C3A42044  27.041  28.177  13.808 -0.0159  0.0353 -0.2140
 3583DOPC   C4A42045  27.327  28.292  14.152  0.2202 -0.0928 -0.0516
 3583DOPC   C1B42046  27.268  28.451  13.426  0.0372  0.3939  0.4787
 3583DOPC   D2B42047  27.582  28.291  13.712 -0.0351  0.3946 -0.3804
 3583DOPC   C3B42048  27.636  28.663  13.994 -0.1450  0.0337  0.1470
 3583DOPC   C4B42049  28.021  28.708  14.192  0.0797  0.1175 -0.1578
 3584DOPE   NH342050  31.581  34.690  12.426 -0.1628  0.1251 -0.1462
 3584DOPE   PO442051  31.636  34.789  12.674  0.2186  0.1757 -0.0584
 3584DOPE   GL142052  31.858  34.745  12.994  0.0208  0.2648  0.0693
 3584DOPE   GL242053  31.760  34.534  13.178 -0.2520 -0.1737 -0.2383
 3584DOPE   C1A42054  31.618  34.986  13.299  0.0653 -0.0199  0.0969
 3584DOPE   D2A42055  31.617  35.278  13.735  0.2370  0.0029 -0.0539
 3584DOPE   C3A42056  31.263  35.532  13.667  0.1488 -0.0165  0.0204
 3584DOPE   C4A42057  31.058  35.914  13.759  0.0970  0.3794  0.0784
 3584DOPE   C1B42058  31.917  34.703  13.573 -0.1754  0.0213 -0.0633
 3584DOPE   D2B42059  32.215  34.428  13.811  0.0656 -0.1361  0.0770
 3584DOPE   C3B42060  32.295  33.986  13.710  0.2048 -0.3236  0.0099
 3584DOPE   C4B42061  32.669  33.942  13.469 -0.1690  0.1666  0.2630
 3585POSM   NC342062  33.543  34.242  12.423 -0.0410  0.1193  0.2857
 3585POSM   PO442063  33.252  34.009  12.589  0.3451  0.1192  0.1021
 3585POSM   AM142064  33.329  34.206  12.860 -0.0570 -0.1251 -0.2301
 3585POSM   AM242065  33.518  34.375  12.918  0.1843  0.0388 -0.3870
 3585POSM   T1A42066  33.240  34.139  13.338  0.2444  0.1555 -0.1795
 3585POSM   C2A42067  33.153  34.002  13.755  0.0880  0.0882 -0.2426
 3585POSM   C3A42068  33.127  33.626  14.092  0.0576 -0.0628  0.0173
 3585POSM   C1B42069  33.519  34.532  13.236  0.2373  0.2142 -0.4391
 3585POSM   D2B42070  33.514  34.641  13.669  0.3860  0.0833 -0.0674
 3585POSM   C3B42071  33.957  34.843  13.755 -0.0803 -0.0599 -0.1989
 3585POSM   C4B42072  34.242  34.922  14.143  0.1299  0.0228  0.3686
 3586DOPE   NH342073  30.648  29.458  12.928  0.1830 -0.0665 -0.0697
 3586DOPE   PO442074  30.359  29.525  12.711 -0.0121  0.1787  0.1063
 3586DOPE   GL142075  30.183  29.457  13.000 -0.0584 -0.0789  0.0797
 3586DOPE   GL242076  30.200  29.535  13.267  0.3078  0.3594 -0.1582
 3586DOPE   C1A42077  29.725  29.490  13.069  0.0683 -0.1328 -0.3442
 3586DOPE   D2A42078  29.338  29.367  13.291  0.1298  0.0917 -0.2275
 3586DOPE   C3A42079  29.172  29.577  13.668  0.1035 -0.0134 -0.2635
 3586DOPE   C4A42080  29.154  29.931  14.028  0.2203 -0.2845 -0.1257
 3586DOPE   C1B42081  29.905  29.181  13.487 -0.0368 -0.2371  0.0940
 3586DOPE   D2B42082  29.504  29.184  13.742  0.4262 -0.0861  0.0158
 3586DOPE   C3B42083  29.437  29.539  14.090 -0.2248 -0.1740  0.0167
 3586DOPE   C4B42084  29.691  29.982  14.084  0.0141  0.0546  0.3092
 3587DOPC   NC342085  31.367  29.282  13.341 -0.1282  0.2156 -0.0479
 3587DOPC   PO442086  31.000  29.127  13.215 -0.0369 -0.1120 -0.0883
 3587DOPC   GL142087  30.929  29.117  13.566  0.5702 -0.3595 -0.3893
 3587DOPC   GL242088  30.673  28.943  13.647  0.0065 -0.2163 -0.0875
 3587DOPC   C1A42089  31.226  29.159  13.919 -0.0030 -0.2088  0.1752
 3587DOPC   D2A42090  31.500  29.063  14.254 -0.3875  0.0469 -0.0746
 3587DOPC   C3A42091  31.898  29.065  14.080 -0.1990 -0.0801 -0.1700
 3587DOPC   C4A42092  32.205  29.164  13.832  0.0740  0.1416  0.3006
 3587DOPC   C1B42093  30.464  28.918  14.060  0.1691 -0.3101  0.1875
 3587DOPC   D2B42094  30.184  28.717  14.384  0.2506  0.1742  0.1469
 3587DOPC   C3B42095  30.281  28.610  14.811 -0.0172  0.1121  0.2701
 3587DOPC   C4B42096  30.051  28.666  15.263 -0.2139 -0.2104  0.2225
 3588DOPS   CNO42097  25.453  23.681  11.895 -0.1294 -0.2727  0.0073
 3588DOPS   PO442098  25.087  23.649  12.038  0.1412 -0.1680  0.1893
 3588DOPS   GL142099  24.714  23.650  12.165  0.0808  0.1867 -0.1585
 3588DOPS   GL242100  24.737  23.718  12.464 -0.2936  0.1530 -0.0828
 3588DOPS   C1A42101  24.441  23.988  12.137  0.2088 -0.2888 -0.2946
 3588DOPS   D2A42102  24.267  24.384  12.031 -0.0288 -0.2615 -0.1424
 3588DOPS   C3A42103  24.079  24.767  12.198 -0.1809 -0.1229  0.3320
 3588DOPS   C4A42104  23.732  24.951  12.444  0.3397 -0.0001  0.1350
 3588DOPS   C1B42105  24.890  23.744  12.898  0.1806  0.1280 -0.1026
 3588DOPS   D2B42106  25.264  23.928  13.117 -0.1667  0.1135 -0.0225
 3588DOPS   C3B42107  25.251  24.332  13.336  0.2836 -0.0497 -0.0941
 3588DOPS   C4B42108  25.543  24.527  13.496  0.1316  0.1139 -0.2620
 3589DOPE   NH342109  27.605  32.871  12.586  0.1735  0.0179 -0.1500
 3589DOPE   PO442110  27.331  32.721  12.664 -0.1974  0.1658 -0.2053
 3589DOPE   GL142111  27.276  32.572  13.007 -0.1912  0.0486  0.3440
 3589DOPE   GL242112  27.341  32.838  13.129 -0.0729  0.1858 -0.3306
 3589DOPE   C1A42113  27.004  32.279  13.224 -0.0487  0.1174  0.0298
 3589DOPE   D2A42114  26.576  32.235  13.367 -0.2676  0.0935  0.1034
 3589DOPE   C3A42115  26.635  31.947  13.727  0.0126  0.0456  0.1612
 3589DOPE   C4A42116  26.955  31.918  13.997  0.1971 -0.0089 -0.0995
 3589DOPE   C1B42117  27.328  32.593  13.554 -0.4294  0.2366 -0.1993
 3589DOPE   D2B42118  27.479  32.501  13.985  0.1971  0.2023 -0.0067
 3589DOPE   C3B42119  27.595  32.824  14.202 -0.0847 -0.3200  0.1383
 3589DOPE   C4B42120  27.552  32.962  14.586  0.3000  0.1939 -0.1038
 3590DOPE   NH342121  25.962  28.195  12.981  0.0295 -0.0167 -0.0713
 3590DOPE   PO442122  26.190  28.075  12.735 -0.2236 -0.3737  0.2247
 3590DOPE   GL142123  26.389  28.102  13.146  0.0512 -0.1238 -0.5588
 3590DOPE   GL242124  26.296  28.238  13.365  0.0201  0.0659 -0.3725
 3590DOPE   C1A42125  26.782  27.909  13.300 -0.3585  0.0867 -0.0235
 3590DOPE   D2A42126  26.858  27.682  13.701 -0.2212  0.0424 -0.0201
 3590DOPE   C3A42127  27.160  27.733  14.044 -0.1414  0.1829 -0.0765
 3590DOPE   C4A42128  27.219  27.952  14.478 -0.1097  0.2806 -0.0972
 3590DOPE   C1B42129  26.415  27.930  13.643  0.4277  0.1678 -0.0830
 3590DOPE   D2B42130  26.291  27.563  13.793 -0.2282  0.0678  0.1423
 3590DOPE   C3B42131  26.092  27.317  13.457 -0.0963 -0.0758  0.0790
 3590DOPE   C4B42132  25.851  26.922  13.318  0.1012  0.0756  0.2534
 3591DOPS   CNO42133  34.010  34.606  12.321  0.0487 -0.0124 -0.1205
 3591DOPS   PO442134  33.758  34.706  12.587 -0.1365  0.0081 -0.2746
 3591DOPS   GL142135  33.833  34.789  12.962 -0.0687  0.3791 -0.2116
 3591DOPS   GL242136  33.981  34.522  13.015 -0.2271 -0.0356 -0.1317
 3591DOPS   C1A42137  34.196  34.905  13.260  0.0993 -0.0183  0.0879
 3591DOPS   D2A42138  34.369  35.017  13.701 -0.1604  0.0199 -0.0544
 3591DOPS   C3A42139  34.519  34.584  13.858  0.2831  0.2350  0.1911
 3591DOPS   C4A42140  34.512  34.119  13.862 -0.4566 -0.1056  0.1832
 3591DOPS   C1B42141  34.091  34.427  13.504  0.1735  0.1108  0.4914
 3591DOPS   D2B42142  34.016  34.300  13.896 -0.4960 -0.2811 -0.2600
 3591DOPS   C3B42143  34.250  34.421  14.263  0.0198 -0.0567 -0.0241
 3591DOPS   C4B42144  34.760  34.464  14.259  0.1786  0.1097 -0.0497
 3592DOPE   NH342145  34.187  26.357  12.635  0.3015 -0.0726 -0.0101
 3592DOPE   PO442146  34.381  26.465  12.855  0.0508  0.2175 -0.2934
 3592DOPE   GL142147  34.304  26.218  13.138  0.3352 -0.1394  0.2010
 3592DOPE   GL242148  34.173  26.016  12.989 -0.2051  0.4378  0.2716
 3592DOPE   C1A42149  34.011  26.296  13.482  0.0440 -0.1023 -0.2209
 3592DOPE   D2A42150  33.870  26.531  13.861  0.2435 -0.1847  0.2808
 3592DOPE   C3A42151  33.962  27.024  13.903 -0.0286 -0.0468  0.2232
 3592DOPE   C4A42152  34.129  27.391  14.074  0.1077 -0.0190  0.0587
 3592DOPE   C1B42153  34.564  25.822  13.075 -0.3365 -0.0523  0.1689
 3592DOPE   D2B42154  34.929  25.511  13.051 -0.0089 -0.0238  0.2781
 3592DOPE   C3B42155  35.045  25.218  13.441 -0.0050 -0.4030  0.0907
 3592DOPE   C4B42156  35.299  25.178  13.815  0.1039 -0.0981  0.1345
 3593DOPS   CNO42157  28.533  24.765  12.476 -0.1139  0.0374 -0.0336
 3593DOPS   PO442158  28.498  25.156  12.506  0.0374 -0.0906  0.2612
 3593DOPS   GL142159  28.241  24.832  12.806  0.3631  0.1913  0.0171
 3593DOPS   GL242160  28.312  24.574  12.856  0.0591  0.1121 -0.2356
 3593DOPS   C1A42161  27.846  24.858  12.978 -0.0427 -0.0293  0.2697
 3593DOPS   D2A42162  27.479  24.934  13.302  0.0642 -0.0276  0.1473
 3593DOPS   C3A42163  27.371  25.367  13.474  0.1530 -0.1176 -0.1053
 3593DOPS   C4A42164  27.445  25.546  13.868  0.1601  0.3187  0.2873
 3593DOPS   C1B42165  28.569  24.204  12.784 -0.2954  0.0856 -0.0433
 3593DOPS   D2B42166  28.921  23.951  12.825  0.0480  0.0109 -0.2667
 3593DOPS   C3B42167  29.344  23.995  13.039  0.0992 -0.0804  0.0045
 3593DOPS   C4B42168  29.475  24.177  13.382  0.0987  0.0666 -0.3359
 3594DOPS   CNO42169  34.385  23.574  12.026  0.2368 -0.1089 -0.0446
 3594DOPS   PO442170  34.057  23.632  12.262  0.0808  0.2632  0.0282
 3594DOPS   GL142171  34.240  23.871  12.553 -0.1426  0.2341 -0.1911
 3594DOPS   GL242172  34.170  23.760  12.804 -0.0629  0.0575 -0.1560
 3594DOPS   C1A42173  34.385  24.287  12.746 -0.2141  0.0664  0.2069
 3594DOPS   D2A42174  34.387  24.620  13.062 -0.0592  0.0556  0.2009
 3594DOPS   C3A42175  34.573  24.269  13.369 -0.0861 -0.0398  0.2083
 3594DOPS   C4A42176  34.866  23.954  13.588  0.2059 -0.0181  0.1818
 3594DOPS   C1B42177  34.161  24.102  13.159  0.2458 -0.0954 -0.1874
 3594DOPS   D2B42178  34.056  24.276  13.524 -0.3899  0.0324 -0.1545
 3594DOPS   C3B42179  34.341  24.207  13.921  0.3024 -0.1274 -0.0673
 3594DOPS   C4B42180  34.685  24.162  14.264  0.2211 -0.3248 -0.1297
 3595DOPC   NC342181  27.980  25.429  12.179  0.1198  0.1376  0.2094
 3595DOPC   PO442182  28.194  25.573  12.430 -0.1328 -0.0688 -0.3580
 3595DOPC   GL142183  28.030  25.206  12.621  0.1745  0.4854  0.0002
 3595DOPC   GL242184  28.015  25.316  12.904  0.1403 -0.0125  0.0166
 3595DOPC   C1A42185  27.866  24.847  12.460 -0.0666  0.1170  0.1843
 3595DOPC   D2A42186  27.518  24.595  12.286 -0.1551  0.0316 -0.1706
 3595DOPC   C3A42187  27.296  24.973  12.478 -0.1278 -0.1269 -0.3451
 3595DOPC   C4A42188  26.866  25.168  12.534 -0.3119 -0.0152  0.0014
 3595DOPC   C1B42189  27.564  25.217  12.896  0.2049  0.2651  0.0261
 3595DOPC   D2B42190  27.109  25.335  12.966  0.2168 -0.0714  0.1258
 3595DOPC   C3B42191  26.883  24.969  13.209 -0.0308  0.0283 -0.1556
 3595DOPC   C4B42192  26.867  25.000  13.678 -0.2578 -0.2710  0.0754
 3596DOPC   NC342193  34.051  30.745  12.355  0.1832  0.2344  0.0510
 3596DOPC   PO442194  33.917  30.407  12.470  0.1017 -0.0370 -0.0162
 3596DOPC   GL142195  33.606  30.569  12.414  0.1087 -0.0674 -0.3173
 3596DOPC   GL242196  33.671  30.808  12.656 -0.2323  0.2874  0.1725
 3596DOPC   C1A42197  33.179  30.654  12.609 -0.0816  0.2506 -0.0010
 3596DOPC   D2A42198  32.787  30.687  12.841 -0.2539  0.1162 -0.0317
 3596DOPC   C3A42199  32.691  30.587  13.245  0.0501  0.1867 -0.2642
 3596DOPC   C4A42200  32.781  30.264  13.518  0.2065  0.2525  0.3080
 3596DOPC   C1B42201  33.498  30.734  13.011 -0.0538 -0.0309 -0.0538
 3596DOPC   D2B42202  33.203  30.811  13.279 -0.0609 -0.2586  0.4117
 3596DOPC   C3B42203  33.013  30.643  13.657  0.0658 -0.0133  0.3187
 3596DOPC   C4B42204  33.069  30.323  13.987  0.2527  0.0378 -0.1832
 3597DOPE   NH342205  30.001  26.266  12.593  0.0707  0.0137  0.1444
 3597DOPE   PO442206  29.847  26.497  12.779 -0.0164  0.2979 -0.5445
 3597DOPE   GL142207  29.994  26.516  13.149 -0.1767  0.0778 -0.3526
 3597DOPE   GL242208  29.772  26.545  13.321 -0.5260  0.2205 -0.0711
 3597DOPE   C1A42209  30.189  26.352  13.522 -0.2021 -0.3090  0.1007
 3597DOPE   D2A42210  30.322  26.191  13.960 -0.3261 -0.0881  0.1092
 3597DOPE   C3A42211  30.196  26.326  14.334  0.0119  0.0520 -0.0211
 3597DOPE   C4A42212  30.270  26.152  14.823 -0.1553  0.0966 -0.1083
 3597DOPE   C1B42213  29.602  26.896  13.597 -0.1335 -0.0039  0.0290
 3597DOPE   D2B42214  29.429  27.277  13.767 -0.3521  0.2459  0.0453
 3597DOPE   C3B42215  29.233  27.336  14.177  0.0742 -0.1153 -0.3619
 3597DOPE   C4B42216  29.283  27.561  14.592  0.0145  0.1694  0.1839
 3598DOPC   NC342217  32.606   0.310  12.376  0.1353  0.0100 -0.1193
 3598DOPC   PO442218  32.866   0.236  12.699 -0.5591  0.0327  0.0226
 3598DOPC   GL142219  32.815   0.020  13.006  0.1348 -0.1582 -0.0602
 3598DOPC   GL242220  33.000  -0.145  13.051  0.3138 -0.2346  0.1158
 3598DOPC   C1A42221  32.711   0.208  13.403  0.1138  0.2742 -0.1347
 3598DOPC   D2A42222  32.688   0.080  13.847  0.0762  0.0664  0.2663
 3598DOPC   C3A42223  32.378   0.168  14.147  0.1854  0.0076 -0.0505
 3598DOPC   C4A42224  32.074  -0.154  14.311 -0.2547  0.0251  0.3079
 3598DOPC   C1B42225  33.036  -0.157  13.499  0.5734  0.0564  0.0098
 3598DOPC   D2B42226  33.129  -0.154  13.989  0.2091  0.0036  0.1693
 3598DOPC   C3B42227  33.212  -0.445  14.350  0.3260  0.2941 -0.5028
 3598DOPC   C4B42228  33.297  -0.636  14.723  0.2348  0.1918  0.2599
 3599POSM   NC342229  28.666  25.732  12.426 -0.1970 -0.0633  0.1389
 3599POSM   PO442230  28.817  26.017  12.693 -0.0908  0.0687 -0.3401
 3599POSM   AM142231  28.779  26.021  13.021  0.0874 -0.0432  0.2892
 3599POSM   AM242232  28.851  25.843  13.201 -0.1731  0.0685  0.2480
 3599POSM   T1A42233  28.536  26.138  13.477  0.1688 -0.0694 -0.0141
 3599POSM   C2A42234  28.405  25.996  13.895  0.2537  0.3333 -0.2588
 3599POSM   C3A42235  28.581  26.090  14.327  0.0051 -0.0332 -0.1532
 3599POSM   C1B42236  28.891  25.615  13.420  0.2449  0.4181  0.3013
 3599POSM   D2B42237  29.179  25.349  13.635 -0.0981 -0.1268 -0.1345
 3599POSM   C3B42238  29.339  25.498  14.006  0.0333 -0.1828 -0.0400
 3599POSM   C4B42239  29.468  25.799  14.385 -0.2419  0.0688  0.0353
 3600DOPC   NC342240  26.894  33.187  12.310 -0.1585  0.1846 -0.0250
 3600DOPC   PO442241  27.152  32.915  12.261 -0.1483  0.0191 -0.1801
 3600DOPC   GL142242  27.046  32.477  12.340 -0.0663  0.2026 -0.1921
 3600DOPC   GL242243  26.822  32.444  12.133  0.1447 -0.0477 -0.0185
 3600DOPC   C1A42244  26.953  32.006  12.542  0.2299 -0.1476 -0.0004
 3600DOPC   D2A42245  26.640  31.726  12.517 -0.1320 -0.1176  0.0258
 3600DOPC   C3A42246  26.278  31.677  12.850  0.0260 -0.1097  0.0848
 3600DOPC   C4A42247  26.454  31.625  13.290 -0.0915  0.0080 -0.1163
 3600DOPC   C1B42248  26.486  32.158  12.298  0.2381 -0.2368  0.1792
 3600DOPC   D2B42249  26.054  31.944  12.452 -0.2280  0.1033  0.1174
 3600DOPC   C3B42250  25.890  32.131  12.867 -0.0983  0.1577 -0.1723
 3600DOPC   C4B42251  26.107  31.978  13.231 -0.0729  0.1300  0.1948
 3601DOPC   NC342252  29.966  31.865  13.234  0.1372 -0.1941 -0.2715
 3601DOPC   PO442253  29.603  32.006  13.263  0.4372 -0.0473 -0.0131
 3601DOPC   GL142254  29.542  32.145  13.564 -0.1022  0.3479 -0.1586
 3601DOPC   GL242255  29.502  31.851  13.716 -0.0528  0.1067  0.0507
 3601DOPC   C1A42256  29.901  32.321  13.816 -0.1043  0.3486 -0.0298
 3601DOPC   D2A42257  30.066  32.322  14.273  0.3165  0.0809  0.1945
 3601DOPC   C3A42258  29.801  32.194  14.678 -0.1352 -0.3618 -0.2960
 3601DOPC   C4A42259  29.367  32.083  14.603  0.0672  0.1528 -0.1121
 3601DOPC   C1B42260  29.929  31.848  13.991  0.0800  0.1172 -0.2384
 3601DOPC   D2B42261  30.308  31.687  14.241  0.0108  0.1810  0.0610
 3601DOPC   C3B42262  30.347  31.971  14.545  0.0116  0.0936 -0.2268
 3601DOPC   C4B42263  30.471  32.039  15.020  0.0568 -0.1116  0.0311
 3602DOPE   NH342264  26.884  32.539  12.737  0.1020 -0.0162 -0.1098
 3602DOPE   PO442265  26.787  32.821  12.643  0.0061 -0.2035 -0.0946
 3602DOPE   GL142266  26.520  32.716  12.951 -0.0616 -0.0107  0.1037
 3602DOPE   GL242267  26.674  32.721  13.195 -0.0225  0.2468  0.1110
 3602DOPE   C1A42268  26.220  32.509  13.215  0.1035  0.1505 -0.0814
 3602DOPE   D2A42269  25.985  32.275  13.600 -0.1275 -0.3715  0.0626
 3602DOPE   C3A42270  25.923  32.668  13.808 -0.1373 -0.2137  0.3184
 3602DOPE   C4A42271  26.217  32.789  14.181 -0.1037  0.2454  0.1516
 3602DOPE   C1B42272  26.288  32.934  13.417 -0.0766  0.0182  0.1385
 3602DOPE   D2B42273  25.871  33.062  13.337  0.4092  0.1857  0.4016
 3602DOPE   C3B42274  25.512  32.879  13.555  0.0442  0.1466 -0.0121
 3602DOPE   C4B42275  25.246  32.502  13.687  0.3133 -0.2243 -0.0386
 3603DOPE   NH342276  24.822   0.061  12.249  0.1465  0.1341  0.2452
 3603DOPE   PO442277  24.661  -0.042  12.490  0.1027 -0.2562  0.0573
 3603DOPE   GL142278  24.678   0.030  12.861 -0.0553 -0.1634  0.1831
 3603DOPE   GL242279  24.445   0.153  13.000  0.1681 -0.0259 -0.3411
 3603DOPE   C1A42280  24.852  -0.233  13.150  0.2449 -0.3397 -0.1576
 3603DOPE   D2A42281  25.241  -0.566  13.190  0.3598 -0.2683 -0.0639
 3603DOPE   C3A42282  25.335  -0.991  13.293  0.0161 -0.1275  0.1616
 3603DOPE   C4A42283  25.454  -1.446  13.223 -0.2287  0.0328  0.0346
 3603DOPE   C1B42284  24.418  -0.094  13.371  0.0441  0.3341  0.1815
 3603DOPE   D2B42285  24.622  -0.410  13.686  0.3352 -0.1152 -0.1122
 3603DOPE   C3B42286  24.920  -0.220  14.078 -0.1967 -0.1205 -0.0280
 3603DOPE   C4B42287  25.447  -0.065  14.171  0.1967 -0.2045 -0.1972
 3604DOPC   NC342288  22.799  30.550  12.151  0.0050  0.0856  0.3906
 3604DOPC   PO442289  22.908  30.249  12.379 -0.0407 -0.2034 -0.0467
 3604DOPC   GL142290  23.013  30.040  12.761 -0.3422 -0.4483  0.3540
 3604DOPC   GL242291  22.809  30.015  12.988  0.1051  0.1366 -0.1080
 3604DOPC   C1A42292  23.255  30.152  13.100  0.3836  0.0666  0.0193
 3604DOPC   D2A42293  23.413  30.049  13.518  0.1074 -0.1176 -0.1237
 3604DOPC   C3A42294  23.237  29.651  13.760 -0.2562 -0.2891  0.0500
 3604DOPC   C4A42295  23.482  29.259  13.701  0.0379  0.3582 -0.1958
 3604DOPC   C1B42296  22.761  29.588  13.222  0.2179  0.0042  0.0672
 3604DOPC   D2B42297  22.602  29.365  13.694  0.0446  0.0114 -0.0374
 3604DOPC   C3B42298  22.672  29.435  14.194 -0.0904 -0.0675  0.2842
 3604DOPC   C4B42299  22.969  29.327  14.498 -0.1561 -0.1374  0.0885
 3605DOPE   NH342300  31.732  29.201  12.973  0.1620  0.0020  0.0368
 3605DOPE   PO442301  31.743  29.341  12.693  0.0845 -0.1206  0.0355
 3605DOPE   GL142302  32.113  29.506  12.708  0.1897  0.3576 -0.3303
 3605DOPE   GL242303  32.098  29.634  12.997  0.3394 -0.1620 -0.0910
 3605DOPE   C1A42304  32.505  29.750  12.676  0.0982  0.2008 -0.0863
 3605DOPE   D2A42305  32.946  29.613  12.772 -0.2725 -0.2513 -0.2073
 3605DOPE   C3A42306  33.295  29.861  12.774 -0.4176 -0.0125 -0.0810
 3605DOPE   C4A42307  33.605  30.192  12.958 -0.0014  0.2145 -0.2507
 3605DOPE   C1B42308  32.546  29.586  13.184 -0.0586  0.0728  0.1521
 3605DOPE   D2B42309  32.888  29.852  13.265 -0.1343 -0.1423 -0.3624
 3605DOPE   C3B42310  33.069  29.896  13.691  0.1449 -0.0510 -0.0626
 3605DOPE   C4B42311  32.973  29.797  14.167  0.0750 -0.0875 -0.3609
 3606DOPS   CNO42312  29.262  33.999  12.995  0.0669 -0.3360  0.0646
 3606DOPS   PO442313  29.593  34.103  12.792  0.0997  0.1649 -0.0294
 3606DOPS   GL142314  29.661  33.828  13.207  0.0581 -0.0521 -0.0074
 3606DOPS   GL242315  29.630  34.137  13.325 -0.2631  0.2151  0.0547
 3606DOPS   C1A42316  29.583  33.519  13.562 -0.1859 -0.0277 -0.4032
 3606DOPS   D2A42317  29.182  33.393  13.812 -0.3715 -0.5761  0.1903
 3606DOPS   C3A42318  29.174  33.471  14.253  0.0477 -0.1675 -0.2439
 3606DOPS   C4A42319  28.978  33.726  14.531  0.1476  0.3399 -0.0103
 3606DOPS   C1B42320  29.652  34.226  13.806  0.1516 -0.1659  0.0633
 3606DOPS   D2B42321  29.646  34.310  14.249  0.3028  0.0775  0.3371
 3606DOPS   C3B42322  29.822  34.208  14.677 -0.1251 -0.2247  0.1716
 3606DOPS   C4B42323  30.254  34.338  14.808  0.3035 -0.2124  0.1347
 3607DOPC   NC342324  27.060  34.446  12.849  0.0175 -0.1006 -0.2571
 3607DOPC   PO442325  26.911  34.155  12.620  0.2568  0.0959 -0.0121
 3607DOPC   GL142326  26.645  34.245  12.857  0.4881  0.1962 -0.1137
 3607DOPC   GL242327  26.759  34.331  13.174  0.3631  0.1763  0.2321
 3607DOPC   C1A42328  26.382  33.998  13.128  0.0047 -0.0017 -0.4861
 3607DOPC   D2A42329  26.451  33.549  13.271 -0.0687  0.0838  0.2003
 3607DOPC   C3A42330  26.273  33.379  13.622 -0.1300 -0.1327  0.2346
 3607DOPC   C4A42331  26.071  33.336  13.949 -0.0960 -0.0345  0.1230
 3607DOPC   C1B42332  26.528  34.349  13.551 -0.0468 -0.0400 -0.0082
 3607DOPC   D2B42333  26.426  34.516  14.016 -0.2796  0.1512  0.5274
 3607DOPC   C3B42334  25.947  34.544  14.087 -0.0866 -0.1098 -0.0933
 3607DOPC   C4B42335  25.636  34.511  13.717 -0.0658  0.1497  0.0885
 3608POSM   NC342336  31.035  30.024  12.817  0.1222 -0.3356 -0.0799
 3608POSM   PO442337  31.266  30.118  13.079  0.0739 -0.0334  0.3046
 3608POSM   AM142338  31.517  30.155  13.267  0.1422 -0.2981 -0.0331
 3608POSM   AM242339  31.808  30.122  13.262  0.1234 -0.1285 -0.4158
 3608POSM   T1A42340  31.655  30.468  13.616  0.1390 -0.0379 -0.0377
 3608POSM   C2A42341  31.822  30.853  13.788 -0.1269 -0.4384 -0.0741
 3608POSM   C3A42342  32.182  31.004  14.018 -0.1040  0.0882  0.0313
 3608POSM   C1B42343  32.045  30.139  13.545  0.0118  0.1467 -0.1710
 3608POSM   D2B42344  32.349  30.231  13.915 -0.1877  0.0555 -0.0770
 3608POSM   C3B42345  32.421  29.902  14.247 -0.3013  0.3442  0.0486
 3608POSM   C4B42346  32.587  29.463  14.136  0.4953  0.2155  0.0427
 3609DOPC   NC342347  24.599  30.409  12.140 -0.1096 -0.1757 -0.0198
 3609DOPC   PO442348  24.803  30.282  12.493 -0.0557  0.0150  0.3644
 3609DOPC   GL142349  24.722  30.095  12.886 -0.0975  0.0989 -0.1007
 3609DOPC   GL242350  24.429  29.970  12.794 -0.1328 -0.0481  0.2198
 3609DOPC   C1A42351  24.867  30.157  13.309  0.3963  0.1298  0.0106
 3609DOPC   D2A42352  24.961  30.332  13.728  0.0353  0.1010  0.2344
 3609DOPC   C3A42353  25.342  30.550  13.910 -0.2067  0.0686  0.1023
 3609DOPC   C4A42354  25.598  30.841  13.620  0.0060 -0.1974 -0.0455
 3609DOPC   C1B42355  24.466  29.844  13.216  0.0881  0.2842 -0.0849
 3609DOPC   D2B42356  24.828  29.709  13.481  0.1728  0.1656 -0.1180
 3609DOPC   C3B42357  24.776  29.923  13.899 -0.1907 -0.2456 -0.0912
 3609DOPC   C4B42358  24.950  29.789  14.294 -0.1924 -0.0124  0.0095
 3610POSM   NC342359  28.716  31.755  13.086 -0.2189 -0.1934  0.0681
 3610POSM   PO442360  28.865  31.398  12.950  0.0256 -0.1095  0.3697
 3610POSM   AM142361  28.874  31.346  13.273  0.1181  0.2959 -0.1495
 3610POSM   AM242362  28.969  31.486  13.530  0.2692 -0.4019  0.0108
 3610POSM   T1A42363  28.742  31.058  13.663  0.0709 -0.0293  0.2992
 3610POSM   C2A42364  28.417  30.899  13.975  0.0666  0.0103 -0.0573
 3610POSM   C3A42365  28.403  31.001  14.453  0.1693 -0.2771  0.2045
 3610POSM   C1B42366  29.079  31.595  13.865 -0.1025 -0.1324  0.2461
 3610POSM   D2B42367  29.178  31.685  14.311 -0.0619  0.0006  0.0371
 3610POSM   C3B42368  29.529  31.630  14.523 -0.0906 -0.0306 -0.2260
 3610POSM   C4B42369  29.905  31.671  14.806  0.0524  0.1559  0.1991
 3611DOPE   NH342370  26.298  28.909  12.786 -0.0699  0.3220 -0.1539
 3611DOPE   PO442371  26.462  29.004  12.546 -0.1645 -0.1371  0.1112
 3611DOPE   GL142372  26.209  29.335  12.642  0.1625 -0.1304 -0.5458
 3611DOPE   GL242373  26.389  29.495  12.800  0.0282 -0.4088  0.1797
 3611DOPE   C1A42374  25.956  29.636  12.484  0.1171  0.1109 -0.2979
 3611DOPE   D2A42375  25.776  30.043  12.289 -0.1418 -0.2871 -0.0610
 3611DOPE   C3A42376  25.833  30.342  12.578 -0.0194 -0.0471 -0.1018
 3611DOPE   C4A42377  26.072  30.744  12.722 -0.1822  0.2276 -0.1202
 3611DOPE   C1B42378  26.322  29.876  12.676 -0.2085 -0.1235  0.1842
 3611DOPE   D2B42379  26.401  30.252  12.447 -0.2302 -0.1991 -0.1052
 3611DOPE   C3B42380  26.556  30.374  12.889  0.0466 -0.4584  0.1878
 3611DOPE   C4B42381  26.823  30.478  13.288 -0.0956  0.0964 -0.0382
 3612DOPE   NH342382  31.677  29.988  12.809  0.2322 -0.3298  0.0047
 3612DOPE   PO442383  31.838  30.007  12.547  0.1116  0.0875  0.0117
 3612DOPE   GL142384  32.133  30.096  12.851 -0.0397 -0.0515 -0.1777
 3612DOPE   GL242385  32.347  30.185  12.679  0.0459  0.0999  0.2072
 3612DOPE   C1A42386  32.357  30.040  13.220 -0.3593  0.1646  0.1314
 3612DOPE   D2A42387  32.528  29.843  13.604 -0.1302  0.0697 -0.4322
 3612DOPE   C3A42388  32.770  29.519  13.656 -0.0801 -0.3028 -0.1282
 3612DOPE   C4A42389  33.159  29.305  13.873 -0.2460 -0.1960  0.2190
 3612DOPE   C1B42390  32.803  30.109  12.781  0.0089 -0.0199  0.0153
 3612DOPE   D2B42391  33.111  30.288  13.061 -0.2517 -0.1488 -0.0856
 3612DOPE   C3B42392  33.352  30.267  13.488  0.2652  0.2848  0.0644
 3612DOPE   C4B42393  33.518  30.422  13.881  0.1283 -0.0187 -0.1020
 3613DOPS   CNO42394  29.455  23.038  12.771  0.0172 -0.1394 -0.3162
 3613DOPS   PO442395  29.519  23.061  13.112 -0.3297 -0.3836  0.1939
 3613DOPS   GL142396  29.618  23.144  13.504 -0.2062 -0.1624 -0.0348
 3613DOPS   GL242397  29.843  23.302  13.478  0.0256  0.1713 -0.3263
 3613DOPS   C1A42398  29.693  22.793  13.725  0.0783 -0.5502 -0.1860
 3613DOPS   D2A42399  29.982  22.455  13.818 -0.1762  0.1733  0.1683
 3613DOPS   C3A42400  30.314  22.221  14.018  0.2031 -0.1098  0.0980
 3613DOPS   C4A42401  30.649  21.913  14.131 -0.1360 -0.1245 -0.0273
 3613DOPS   C1B42402  29.658  23.251  13.973  0.0646 -0.4344  0.0173
 3613DOPS   D2B42403  29.536  22.949  14.320 -0.2317  0.0191  0.1449
 3613DOPS   C3B42404  29.928  23.011  14.584 -0.1121 -0.2576  0.0636
 3613DOPS   C4B42405  30.339  23.201  14.740 -0.1185 -0.2468 -0.0075
 3614DOPE   NH342406  24.864  23.201  12.163  0.1880 -0.0478  0.1036
 3614DOPE   PO442407  24.620  23.162  12.461  0.0150 -0.3213 -0.3219
 3614DOPE   GL142408  24.279  23.282  12.624 -0.0817 -0.2326 -0.1287
 3614DOPE   GL242409  24.225  23.531  12.457  0.1838 -0.2029  0.1521
 3614DOPE   C1A42410  24.283  23.607  12.932 -0.1655  0.3461  0.0088
 3614DOPE   D2A42411  24.471  23.938  13.158 -0.2005  0.2735 -0.2649
 3614DOPE   C3A42412  24.338  24.368  13.120  0.0185  0.0303  0.0975
 3614DOPE   C4A42413  24.015  24.669  13.327 -0.0148 -0.1335  0.1915
 3614DOPE   C1B42414  24.259  23.963  12.594  0.0025  0.3484 -0.4316
 3614DOPE   D2B42415  24.296  24.444  12.556 -0.1008 -0.0616 -0.0642
 3614DOPE   C3B42416  24.200  24.848  12.776 -0.1095  0.0574 -0.0847
 3614DOPE   C4B42417  24.156  25.239  13.042 -0.0793  0.1107  0.0276
 3615DOPE   NH342418  32.092  24.699  12.686  0.0466 -0.1754  0.0767
 3615DOPE   PO442419  32.392  24.634  12.699  0.1864  0.0461  0.1169
 3615DOPE   GL142420  32.580  24.530  12.891 -0.1051 -0.1546  0.2643
 3615DOPE   GL242421  32.640  24.375  13.163 -0.2011  0.0167  0.0216
 3615DOPE   C1A42422  32.940  24.275  12.798 -0.0297  0.0683 -0.0078
 3615DOPE   D2A42423  33.310  24.040  12.715  0.0047  0.0449  0.3809
 3615DOPE   C3A42424  33.584  23.773  12.992  0.0629  0.0957  0.1439
 3615DOPE   C4A42425  33.728  23.329  12.889 -0.3602 -0.2300  0.0735
 3615DOPE   C1B42426  32.672  24.112  13.556 -0.3291 -0.0455 -0.1277
 3615DOPE   D2B42427  32.654  24.143  14.078 -0.2754 -0.2296 -0.2340
 3615DOPE   C3B42428  32.773  24.208  14.531 -0.0899 -0.0551  0.1337
 3615DOPE   C4B42429  33.228  24.410  14.619 -0.1846 -0.0455  0.3319
 3616POSM   NC342430  34.588  33.081  12.754 -0.0235 -0.2155  0.1328
 3616POSM   PO442431  34.203  33.196  12.710 -0.3515 -0.0078 -0.1155
 3616POSM   AM142432  34.025  32.953  12.748  0.0674 -0.0915 -0.1011
 3616POSM   AM242433  33.755  32.947  12.727  0.3788  0.1711 -0.0284
 3616POSM   T1A42434  34.026  32.458  12.877  0.1414 -0.2617 -0.0970
 3616POSM   C2A42435  33.780  32.219  13.168 -0.0646  0.2637  0.0385
 3616POSM   C3A42436  33.613  31.806  13.264 -0.1661  0.0501 -0.0264
 3616POSM   C1B42437  33.618  32.795  13.018 -0.1153  0.2762  0.1476
 3616POSM   D2B42438  33.381  32.934  13.435 -0.0289 -0.1390  0.0371
 3616POSM   C3B42439  33.757  33.092  13.637 -0.0706 -0.1351 -0.0113
 3616POSM   C4B42440  33.942  33.371  13.924 -0.0336 -0.1570 -0.0018
 3617DOPC   NC342441   0.173  31.293  12.648 -0.0101  0.0273  0.0829
 3617DOPC   PO442442   0.326  31.278  12.326 -0.1958 -0.0083  0.1505
 3617DOPC   GL142443   0.184  31.658  12.412 -0.0493  0.2203  0.0528
 3617DOPC   GL242444   0.361  31.842  12.599 -0.1809 -0.0350  0.2733
 3617DOPC   C1A42445  -0.170  31.656  12.690 -0.0766 -0.0488  0.0871
 3617DOPC   D2A42446  -0.302  31.290  12.836  0.0121  0.1045  0.1108
 3617DOPC   C3A42447  -0.589  31.510  13.146 -0.0712  0.1400 -0.0817
 3617DOPC   C4A42448  -0.702  31.687  13.574 -0.3018 -0.1307 -0.0193
 3617DOPC   C1B42449   0.092  32.176  12.461 -0.0725  0.0256 -0.0987
 3617DOPC   D2B42450   0.054  32.604  12.499  0.2483  0.0109  0.3212
 3617DOPC   C3B42451  -0.016  32.640  12.967 -0.0593  0.0825  0.5137
 3617DOPC   C4B42452  -0.270  32.491  13.350  0.1686 -0.1170  0.1432
 3618DOPC   NC342453  28.470  22.987  12.475  0.1425  0.2293 -0.1794
 3618DOPC   PO442454  28.685  23.088  12.803  0.0144  0.2350  0.2247
 3618DOPC   GL142455  28.271  23.320  12.912  0.0023  0.0641 -0.3515
 3618DOPC   GL242456  28.162  23.331  12.670 -0.1019  0.1800 -0.0426
 3618DOPC   C1A42457  28.096  23.423  13.348 -0.4028  0.1887 -0.0043
 3618DOPC   D2A42458  28.241  23.827  13.585  0.2345 -0.1677 -0.2469
 3618DOPC   C3A42459  28.707  24.015  13.686  0.0392 -0.2597 -0.2213
 3618DOPC   C4A42460  28.955  24.135  13.373  0.0268 -0.1294  0.3650
 3618DOPC   C1B42461  27.761  23.442  12.862  0.1456  0.2875 -0.1442
 3618DOPC   D2B42462  27.381  23.478  13.098  0.2464 -0.1755  0.0865
 3618DOPC   C3B42463  27.337  23.049  13.188  0.2464  0.1344  0.2571
 3618DOPC   C4B42464  27.317  22.676  13.491 -0.0684  0.1507 -0.0644
 3619DOPE   NH342465  26.753  24.107  12.327 -0.0867 -0.0419 -0.0006
 3619DOPE   PO442466  26.820  23.769  12.218  0.0865 -0.0926  0.2106
 3619DOPE   GL142467  27.034  23.821  12.606 -0.3226  0.2131  0.0690
 3619DOPE   GL242468  26.957  23.624  12.786 -0.0704  0.1433 -0.2807
 3619DOPE   C1A42469  27.454  23.973  12.796 -0.2153 -0.3875 -0.1587
 3619DOPE   D2A42470  27.780  23.903  13.083 -0.1308 -0.0580  0.3601
 3619DOPE   C3A42471  27.686  23.760  13.519  0.0592 -0.2396 -0.1075
 3619DOPE   C4A42472  27.568  23.837  13.970  0.2092  0.1333 -0.1688
 3619DOPE   C1B42473  27.038  23.913  13.142 -0.1649  0.2743  0.2652
 3619DOPE   D2B42474  26.770  24.133  13.469  0.0517 -0.1138 -0.0530
 3619DOPE   C3B42475  26.699  24.046  13.866 -0.1227 -0.4227  0.0439
 3619DOPE   C4B42476  26.519  24.041  14.248 -0.2299 -0.1734  0.0753
 3620DOPE   NH342477  30.740  26.958  12.652 -0.0258 -0.2867 -0.0743
 3620DOPE   PO442478  30.643  27.119  12.939 -0.0085 -0.1887 -0.1937
 3620DOPE   GL142479  30.838  27.054  13.288 -0.1140 -0.3585  0.1016
 3620DOPE   GL242480  31.056  26.899  13.166 -0.0143 -0.0648  0.0376
 3620DOPE   C1A42481  31.029  26.727  13.623  0.0947 -0.0958  0.0528
 3620DOPE   D2A42482  31.223  26.676  13.992  0.2309  0.2250  0.0330
 3620DOPE   C3A42483  31.026  26.701  14.409 -0.4359  0.1433 -0.1110
 3620DOPE   C4A42484  30.747  27.035  14.533  0.2832  0.2083 -0.1196
 3620DOPE   C1B42485  31.279  27.216  13.413  0.1024  0.1425 -0.2379
 3620DOPE   D2B42486  31.249  27.336  13.859 -0.0222  0.2306  0.3453
 3620DOPE   C3B42487  31.270  27.133  14.263 -0.0725 -0.2454  0.0581
 3620DOPE   C4B42488  31.239  27.060  14.720  0.0231  0.2346 -0.0088
 3621POSM   NC342489  29.475  25.003  12.448 -0.2143 -0.0974 -0.1687
 3621POSM   PO442490  29.128  24.794  12.475 -0.1733  0.0823  0.4262
 3621POSM   AM142491  29.108  24.676  12.791  0.1164  0.4940  0.1622
 3621POSM   AM242492  28.919  24.620  12.974 -0.3030 -0.0513 -0.0090
 3621POSM   T1A42493  29.458  24.576  13.121 -0.0163  0.2136  0.2666
 3621POSM   C2A42494  29.688  24.646  13.465  0.1575 -0.2010 -0.2785
 3621POSM   C3A42495  29.784  24.609  13.937  0.0331 -0.0549  0.0052
 3621POSM   C1B42496  28.769  24.593  13.235  0.0949 -0.2086  0.2242
 3621POSM   D2B42497  28.636  24.574  13.691 -0.1226 -0.0650 -0.1897
 3621POSM   C3B42498  28.240  24.373  13.743 -0.3385  0.0405  0.0569
 3621POSM   C4B42499  27.860  24.245  13.828 -0.1791 -0.2624 -0.1084
 3622POSM   NC342500  30.664  27.750  12.881  0.0316 -0.0354  0.0207
 3622POSM   PO442501  30.700  28.097  13.082 -0.0869 -0.4111  0.5935
 3622POSM   AM142502  30.844  28.148  13.385 -0.1293  0.5048 -0.0208
 3622POSM   AM242503  30.875  28.274  13.623  0.0156  0.0038 -0.2837
 3622POSM   T1A42504  31.338  28.211  13.594  0.2319 -0.1716  0.0922
 3622POSM   C2A42505  31.805  28.110  13.503  0.0575  0.0036 -0.0039
 3622POSM   C3A42506  32.118  27.782  13.732 -0.0434 -0.3410  0.0116
 3622POSM   C1B42507  30.870  28.172  13.971 -0.2118 -0.0475  0.2495
 3622POSM   D2B42508  30.663  27.997  14.388  0.0953  0.1467 -0.2784
 3622POSM   C3B42509  30.473  27.591  14.451 -0.2010  0.2308 -0.0812
 3622POSM   C4B42510  30.293  27.409  14.755 -0.5491  0.1587  0.1211
 3623POSM   NC342511  23.893  34.520  11.991 -0.1032 -0.0417  0.1326
 3623POSM   PO442512  23.974  34.334  12.336  0.0703  0.2989  0.1202
 3623POSM   AM142513  23.972  34.016  12.435 -0.1167 -0.3715 -0.3178
 3623POSM   AM242514  23.809  33.781  12.461  0.0845  0.3094 -0.1165
 3623POSM   T1A42515  24.192  33.634  12.627 -0.3150  0.2607  0.1872
 3623POSM   C2A42516  24.585  33.359  12.676  0.0669  0.0542 -0.2590
 3623POSM   C3A42517  24.879  33.064  12.544  0.1821 -0.2913  0.3555
 3623POSM   C1B42518  23.819  33.507  12.286  0.1360  0.1692 -0.1491
 3623POSM   D2B42519  23.740  33.100  12.095  0.0802 -0.1855  0.0555
 3623POSM   C3B42520  23.819  32.673  12.189  0.0668 -0.0433  0.0728
 3623POSM   C4B42521  23.956  32.248  12.276  0.1281  0.1217  0.0880
 3624POSM   NC342522  32.432  25.033  12.458  0.0488  0.0995  0.1821
 3624POSM   PO442523  32.665  25.335  12.536 -0.0685 -0.1549  0.3589
 3624POSM   AM142524  32.617  25.587  12.753 -0.0492  0.0453 -0.1620
 3624POSM   AM242525  32.775  25.800  12.882  0.1935 -0.2267  0.3526
 3624POSM   T1A42526  32.350  25.738  13.165 -0.0573  0.0264  0.2302
 3624POSM   C2A42527  31.873  25.840  13.351  0.1645  0.0069  0.0119
 3624POSM   C3A42528  31.526  25.877  13.606  0.0344 -0.0158 -0.0334
 3624POSM   C1B42529  32.604  26.129  12.965  0.1307 -0.0095 -0.1456
 3624POSM   D2B42530  32.376  26.530  12.859 -0.0337 -0.0424 -0.1835
 3624POSM   C3B42531  32.710  26.821  12.597 -0.2083 -0.1757 -0.0554
 3624POSM   C4B42532  32.939  27.193  12.582 -0.2091 -0.3513 -0.0167
 3625DOPC   NC342533  27.361  29.528  12.840 -0.2458 -0.0766  0.0577
 3625DOPC   PO442534  27.095  29.624  12.552 -0.1943  0.2433  0.1169
 3625DOPC   GL142535  26.872  29.572  12.910  0.1089  0.2562  0.1204
 3625DOPC   GL242536  26.689  29.776  13.026 -0.0345 -0.1359 -0.0506
 3625DOPC   C1A42537  26.626  29.234  13.175  0.0506 -0.0929 -0.1144
 3625DOPC   D2A42538  26.623  29.187  13.626 -0.1656 -0.2494 -0.1673
 3625DOPC   C3A42539  26.427  29.469  13.971 -0.2073  0.4584  0.0338
 3625DOPC   C4A42540  26.323  29.888  13.789 -0.0932 -0.0366  0.2270
 3625DOPC   C1B42541  26.973  29.573  13.322 -0.0302 -0.2046  0.3203
 3625DOPC   D2B42542  27.109  29.117  13.425 -0.4186  0.0222  0.1475
 3625DOPC   C3B42543  27.052  28.775  13.688 -0.2722  0.2907 -0.2046
 3625DOPC   C4B42544  26.929  28.643  14.114 -0.1972 -0.0189  0.2155
 3626DOPC   NC342545  32.208  24.084  13.369 -0.0471  0.1830  0.0117
 3626DOPC   PO442546  32.175  24.274  13.056 -0.0472  0.0732 -0.0045
 3626DOPC   GL142547  32.066  24.556  13.192  0.0691 -0.0412 -0.5399
 3626DOPC   GL242548  32.263  24.645  13.306  0.2502  0.0278 -0.1811
 3626DOPC   C1A42549  31.787  24.507  13.584 -0.0228  0.0740  0.0504
 3626DOPC   D2A42550  31.613  24.614  13.983 -0.0293  0.0776  0.2629
 3626DOPC   C3A42551  31.909  24.518  14.330 -0.0005 -0.0829  0.1472
 3626DOPC   C4A42552  32.255  24.195  14.548  0.3597  0.0350 -0.0698
 3626DOPC   C1B42553  32.249  24.467  13.685 -0.0399  0.0838 -0.1986
 3626DOPC   D2B42554  32.349  24.744  14.059 -0.1876  0.2266  0.1295
 3626DOPC   C3B42555  32.778  24.569  14.227 -0.0976 -0.1898  0.3612
 3626DOPC   C4B42556  33.274  24.631  14.140 -0.0939 -0.2174  0.0421
 3627DOPE   NH342557  31.114  30.849  12.680 -0.0049 -0.2720 -0.0716
 3627DOPE   PO442558  31.252  30.569  12.849 -0.1706 -0.2328  0.0196
 3627DOPE   GL142559  31.321  30.551  13.284  0.0638 -0.3046 -0.2348
 3627DOPE   GL242560  31.294  30.882  13.264  0.0122  0.1865  0.1754
 3627DOPE   C1A42561  31.137  30.419  13.695 -0.2378 -0.1956 -0.1369
 3627DOPE   D2A42562  30.844  30.376  14.019  0.0957  0.0770  0.0537
 3627DOPE   C3A42563  31.077  30.306  14.364  0.0744  0.0092  0.2995
 3627DOPE   C4A42564  31.349  30.033  14.479  0.1166 -0.0664 -0.0568
 3627DOPE   C1B42565  31.321  31.328  13.461  0.0874 -0.0685 -0.0590
 3627DOPE   D2B42566  31.172  31.496  13.866  0.0367 -0.4485  0.2853
 3627DOPE   C3B42567  30.749  31.459  14.085  0.3851 -0.3654  0.4124
 3627DOPE   C4B42568  30.492  31.277  14.442  0.2997  0.0536 -0.0169
 3628DOPC   NC342569  30.220  29.971  12.958 -0.5936 -0.1935  0.2400
 3628DOPC   PO442570  30.587  30.126  12.875 -0.0498  0.0397  0.0850
 3628DOPC   GL142571  30.651  29.865  13.210 -0.0541  0.0826 -0.1122
 3628DOPC   GL242572  30.488  29.980  13.363  0.0596 -0.0876  0.2514
 3628DOPC   C1A42573  30.839  29.994  13.663  0.0704 -0.0554  0.1416
 3628DOPC   D2A42574  31.201  29.935  13.963  0.3309  0.2946 -0.1028
 3628DOPC   C3A42575  31.188  29.530  14.252 -0.1946 -0.1534 -0.1684
 3628DOPC   C4A42576  30.953  29.145  14.399 -0.0713  0.0262 -0.2590
 3628DOPC   C1B42577  30.505  30.356  13.708  0.0390  0.1195 -0.0528
 3628DOPC   D2B42578  30.337  30.724  13.974 -0.0504  0.3001  0.4200
 3628DOPC   C3B42579  30.311  30.748  14.494 -0.1990  0.0505  0.0202
 3628DOPC   C4B42580  29.950  30.762  14.697  0.4043  0.1935  0.0722
 3629DOPC   NC342581  32.253  30.575  12.971  0.0068 -0.1710 -0.0200
 3629DOPC   PO442582  32.355  30.716  12.605  0.0993  0.0553  0.0684
 3629DOPC   GL142583  32.191  30.999  12.936  0.1817 -0.1934  0.3509
 3629DOPC   GL242584  32.388  30.998  13.224 -0.0183  0.1871 -0.1234
 3629DOPC   C1A42585  32.295  31.454  12.992  0.1733 -0.0705  0.0691
 3629DOPC   D2A42586  32.637  31.652  13.133  0.2933 -0.0026 -0.2369
 3629DOPC   C3A42587  32.708  31.683  13.575  0.0350 -0.1029 -0.0760
 3629DOPC   C4A42588  33.036  31.590  13.837  0.0665  0.3032  0.1292
 3629DOPC   C1B42589  32.776  31.193  13.228  0.0055 -0.1578  0.1406
 3629DOPC   D2B42590  33.150  31.495  13.305 -0.1341 -0.1292  0.1348
 3629DOPC   C3B42591  33.134  31.915  13.370  0.0236 -0.3224  0.0553
 3629DOPC   C4B42592  33.323  32.372  13.249  0.1949 -0.0769 -0.0247
 3630DOPS   CNO42593  31.766   0.537  12.341 -0.1540 -0.0791 -0.0248
 3630DOPS   PO442594  31.393   0.477  12.426  0.1667  0.0483  0.0572
 3630DOPS   GL142595  31.392   0.381  12.907  0.0637  0.0626 -0.3566
 3630DOPS   GL242596  31.140   0.336  13.055 -0.0842 -0.3371  0.1462
 3630DOPS   C1A42597  31.333   0.732  13.211  0.0751 -0.1259  0.0945
 3630DOPS   D2A42598  31.100   1.109  13.253  0.1751  0.2493 -0.0356
 3630DOPS   C3A42599  31.174   1.566  13.424 -0.1392 -0.0750 -0.3288
 3630DOPS   C4A42600  31.160   1.676  13.842 -0.1026 -0.1967 -0.0763
 3630DOPS   C1B42601  31.208  -0.031  13.340  0.1001  0.0177 -0.0325
 3630DOPS   D2B42602  31.167  -0.429  13.600 -0.1670 -0.2380 -0.1379
 3630DOPS   C3B42603  31.255  -0.279  14.018 -0.1515 -0.0398  0.1114
 3630DOPS   C4B42604  31.132  -0.235  14.485 -0.0581 -0.1684  0.1378
 3631POSM   NC342605  34.490  26.766  12.022 -0.0530 -0.1244 -0.3861
 3631POSM   PO442606  34.375  27.109  12.149  0.0619  0.0383  0.0790
 3631POSM   AM142607  34.398  27.393  12.216 -0.2908  0.0378  0.3268
 3631POSM   AM242608  34.659  27.566  12.145  0.2134 -0.0542 -0.0087
 3631POSM   T1A42609  34.126  27.777  12.326  0.0031 -0.2854  0.0416
 3631POSM   C2A42610  33.768  27.934  12.610 -0.0609  0.2016  0.3607
 3631POSM   C3A42611  33.515  28.107  12.994  0.0560  0.3224  0.0045
 3631POSM   C1B42612  34.571  27.696  12.470 -0.2255 -0.2375 -0.0639
 3631POSM   D2B42613  34.710  27.930  12.809  0.0273 -0.1318 -0.0472
 3631POSM   C3B42614  34.556  28.346  12.875 -0.0018  0.2024  0.1412
 3631POSM   C4B42615  34.358  28.712  12.700  0.1162 -0.1302 -0.1674
 3632DOPS   CNO42616  29.567  32.143  12.724  0.2398  0.2757 -0.6311
 3632DOPS   PO442617  29.881  32.210  12.910 -0.3717 -0.0361  0.1382
 3632DOPS   GL142618  30.173  32.317  13.154  0.0516 -0.0675 -0.4491
 3632DOPS   GL242619  30.103  32.349  13.394  0.0258  0.0828  0.0686
 3632DOPS   C1A42620  30.561  32.521  13.228 -0.3889  0.0494 -0.0747
 3632DOPS   D2A42621  30.804  32.447  13.676 -0.0843 -0.2836  0.1620
 3632DOPS   C3A42622  31.182  32.648  13.664 -0.0517 -0.1406  0.0227
 3632DOPS   C4A42623  31.567  32.789  13.835  0.1340  0.0507 -0.0557
 3632DOPS   C1B42624  30.280  32.604  13.740 -0.0447 -0.2401  0.0382
 3632DOPS   D2B42625  30.542  32.808  14.043  0.1367  0.1852 -0.0620
 3632DOPS   C3B42626  30.962  32.649  14.204  0.3713 -0.4350  0.0682
 3632DOPS   C4B42627  31.323  32.484  14.092  0.0057 -0.0751 -0.0588
 3633POSM   NC342628  25.647  28.928  13.172  0.2516  0.3129  0.1129
 3633POSM   PO442629  25.814  29.180  12.964  0.1453 -0.0464 -0.1545
 3633POSM   AM142630  25.762  29.360  13.202  0.0706  0.1011  0.0285
 3633POSM   AM242631  25.770  29.263  13.475  0.2677 -0.0178 -0.1475
 3633POSM   T1A42632  25.828  29.837  13.434 -0.0863 -0.1564 -0.1653
 3633POSM   C2A42633  25.943  30.279  13.594  0.0499 -0.3290  0.1174
 3633POSM   C3A42634  26.165  30.718  13.647 -0.1579 -0.1367  0.0601
 3633POSM   C1B42635  25.940  29.067  13.746 -0.0600 -0.4072  0.1635
 3633POSM   D2B42636  25.997  28.738  14.049  0.1789 -0.0698  0.4435
 3633POSM   C3B42637  25.841  28.406  14.312 -0.0291  0.1423  0.0954
 3633POSM   C4B42638  25.833  28.151  14.777 -0.0294 -0.3501 -0.0603
 3634DOPC   NC342639  27.375  32.549  11.879 -0.1548 -0.0296 -0.0140
 3634DOPC   PO442640  27.661  32.589  12.146 -0.5037  0.2381 -0.5363
 3634DOPC   GL142641  27.678  32.388  12.557  0.4759 -0.2186  0.1620
 3634DOPC   GL242642  27.431  32.264  12.610  0.2495 -0.0636 -0.2318
 3634DOPC   C1A42643  27.887  32.091  12.888 -0.2547 -0.0611  0.3062
 3634DOPC   D2A42644  28.132  31.795  13.214 -0.0005 -0.3667 -0.1444
 3634DOPC   C3A42645  28.206  31.929  13.626  0.1897 -0.0873 -0.1900
 3634DOPC   C4A42646  28.223  32.323  13.877 -0.1382 -0.1345 -0.0128
 3634DOPC   C1B42647  27.230  31.957  12.934 -0.0579  0.2508 -0.0442
 3634DOPC   D2B42648  26.785  31.871  13.035 -0.0281  0.1417 -0.1549
 3634DOPC   C3B42649  26.494  32.185  12.847 -0.1204 -0.1919  0.0700
 3634DOPC   C4B42650  26.175  32.440  12.589  0.1437  0.1879 -0.2208
 3635DOPC   NC342651  31.284  28.347  13.093 -0.1362  0.2015 -0.2845
 3635DOPC   PO442652  31.358  28.401  12.717 -0.1564 -0.0208 -0.0877
 3635DOPC   GL142653  31.774  28.252  12.875  0.0823 -0.0843 -0.1846
 3635DOPC   GL242654  31.669  27.947  13.020  0.3838  0.1466 -0.1560
 3635DOPC   C1A42655  32.137  28.247  13.158 -0.0482 -0.3216  0.2903
 3635DOPC   D2A42656  32.560  28.278  13.401  0.0529 -0.0445  0.0431
 3635DOPC   C3A42657  32.350  28.263  13.821  0.0368  0.3425  0.1301
 3635DOPC   C4A42658  32.053  28.110  14.139 -0.1533 -0.3791  0.3166
 3635DOPC   C1B42659  31.996  27.644  13.269 -0.0903 -0.0817  0.2400
 3635DOPC   D2B42660  32.257  27.378  13.395  0.2558 -0.1518  0.0680
 3635DOPC   C3B42661  32.231  27.166  13.815 -0.1489 -0.1478 -0.1193
 3635DOPC   C4B42662  32.061  26.727  13.819 -0.0609  0.0651 -0.1828
 3636DOPC   NC342663  25.130  23.379  12.539  0.0467 -0.1626 -0.1245
 3636DOPC   PO442664  25.462  23.515  12.374  0.3351  0.1354  0.1513
 3636DOPC   GL142665  25.545  23.527  12.673  0.0532  0.0598  0.1190
 3636DOPC   GL242666  25.677  23.913  12.754 -0.1898  0.3647 -0.1900
 3636DOPC   C1A42667  25.310  23.390  13.047 -0.0582  0.1173  0.2399
 3636DOPC   D2A42668  24.886  23.389  13.296  0.0355  0.2229 -0.4026
 3636DOPC   C3A42669  24.917  23.631  13.595  0.3111  0.0203  0.1061
 3636DOPC   C4A42670  25.135  24.010  13.773 -0.2395 -0.3697 -0.1664
 3636DOPC   C1B42671  25.726  24.183  13.069 -0.2442 -0.0091 -0.2484
 3636DOPC   D2B42672  26.153  24.328  13.243  0.2056 -0.2987  0.1232
 3636DOPC   C3B42673  26.118  24.755  13.100 -0.0358 -0.0020 -0.0591
 3636DOPC   C4B42674  26.369  25.044  12.835  0.3368 -0.0778  0.2242
 3637POSM   NC342675  30.906  34.477  12.968  0.0422 -0.0400 -0.4889
 3637POSM   PO442676  31.121  34.709  12.663 -0.2212  0.2800 -0.1791
 3637POSM   AM142677  31.300  34.419  12.744  0.1674  0.1105 -0.1368
 3637POSM   AM242678  31.556  34.265  12.790 -0.5190  0.1729 -0.0622
 3637POSM   T1A42679  31.323  34.112  13.156  0.1710 -0.0777  0.3264
 3637POSM   C2A42680  31.247  33.707  13.389 -0.0771  0.3725  0.1492
 3637POSM   C3A42681  30.897  33.542  13.654  0.2559  0.2198  0.3125
 3637POSM   C1B42682  31.532  33.942  12.708 -0.1568  0.1012  0.1540
 3637POSM   D2B42683  31.712  33.608  12.430  0.0428 -0.0107  0.2641
 3637POSM   C3B42684  31.358  33.280  12.418  0.0920 -0.1744 -0.0552
 3637POSM   C4B42685  31.000  33.128  12.269  0.2235 -0.1595  0.1643
 3638POSM   NC342686  25.334  27.537  12.894 -0.0311 -0.1636  0.0567
 3638POSM   PO442687  25.320  27.181  12.699 -0.0850  0.2783 -0.1316
 3638POSM   AM142688  25.512  26.948  12.819  0.0728  0.1127 -0.0715
 3638POSM   AM242689  25.776  26.849  12.754  0.1053  0.0386  0.2032
 3638POSM   T1A42690  25.540  26.585  13.140 -0.0164  0.0991 -0.0104
 3638POSM   C2A42691  25.894  26.229  13.126  0.0470 -0.0190  0.2420
 3638POSM   C3A42692  26.115  25.872  13.078 -0.0383 -0.0337 -0.4415
 3638POSM   C1B42693  25.994  26.675  12.918 -0.0977 -0.1006 -0.0369
 3638POSM   D2B42694  26.336  26.522  13.224  0.0180  0.1475  0.0858
 3638POSM   C3B42695  26.123  26.625  13.570  0.2265 -0.0013 -0.2121
 3638POSM   C4B42696  25.845  26.792  13.909 -0.0642 -0.0896 -0.2263
 3639DOPE   NH342697  29.457  26.414  12.518  0.0760 -0.0291  0.2286
 3639DOPE   PO442698  29.582  26.740  12.419  0.4531  0.0722  0.0130
 3639DOPE   GL142699  29.468  27.092  12.641  0.5301 -0.0874  0.0335
 3639DOPE   GL242700  29.168  27.160  12.708 -0.2898 -0.0558 -0.1475
 3639DOPE   C1A42701  29.597  27.439  12.896 -0.0718  0.3110  0.0498
 3639DOPE   D2A42702  29.535  27.754  13.276  0.2069  0.2513  0.1502
 3639DOPE   C3A42703  29.389  27.811  13.707 -0.0532 -0.2756  0.1682
 3639DOPE   C4A42704  29.127  27.766  14.085  0.0780  0.0857 -0.1313
 3639DOPE   C1B42705  29.115  27.316  13.122 -0.4839  0.2922 -0.1192
 3639DOPE   D2B42706  29.087  27.509  13.485  0.0538 -0.0356  0.2745
 3639DOPE   C3B42707  28.784  27.476  13.856  0.1569 -0.0128 -0.0233
 3639DOPE   C4B42708  28.554  27.740  14.134  0.1953 -0.0304  0.0406
 3640DOPS   CNO42709  33.955  26.754  12.082 -0.2955  0.0501  0.1467
 3640DOPS   PO442710  34.104  26.810  12.407 -0.0604  0.0678  0.0003
 3640DOPS   GL142711  34.015  26.950  12.747  0.0435  0.1794  0.0391
 3640DOPS   GL242712  34.023  26.821  12.941 -0.0029 -0.2716 -0.2473
 3640DOPS   C1A42713  33.844  27.335  12.881 -0.2851  0.0471 -0.0206
 3640DOPS   D2A42714  33.765  27.698  13.116  0.1794 -0.3626  0.1533
 3640DOPS   C3A42715  33.538  27.750  13.514 -0.1228  0.2533  0.1141
 3640DOPS   C4A42716  33.224  27.703  13.889  0.0900 -0.0184  0.2349
 3640DOPS   C1B42717  33.591  26.920  12.930 -0.0941  0.3207 -0.1030
 3640DOPS   D2B42718  33.160  26.789  12.879  0.2940  0.0496  0.3315
 3640DOPS   C3B42719  32.924  26.972  13.212 -0.1364 -0.2066  0.1262
 3640DOPS   C4B42720  32.655  27.346  13.156 -0.0109  0.3189  0.0219
 3641DOPE   NH342721  34.656  34.319  12.401  0.0932  0.0069 -0.0841
 3641DOPE   PO442722  34.518  34.106  12.636  0.4040 -0.0868 -0.2943
 3641DOPE   GL142723  34.321  34.216  13.031  0.0426  0.0895 -0.1466
 3641DOPE   GL242724  34.120  34.070  13.186 -0.0036 -0.3307  0.0805
 3641DOPE   C1A42725  34.588  34.234  13.371  0.0916  0.0973  0.0609
 3641DOPE   D2A42726  35.031  34.117  13.551 -0.2443  0.0717  0.1075
 3641DOPE   C3A42727  35.091  34.280  13.912 -0.1708  0.0721 -0.1495
 3641DOPE   C4A42728  35.247  34.635  14.258  0.0331 -0.3301 -0.2739
 3641DOPE   C1B42729  34.131  33.831  13.605  0.1413  0.0803  0.2287
 3641DOPE   D2B42730  34.026  33.827  14.075 -0.1148 -0.1621  0.1362
 3641DOPE   C3B42731  34.311  33.928  14.422  0.1035 -0.0806 -0.2480
 3641DOPE   C4B42732  34.490  33.681  14.778  0.0242  0.2974 -0.1226
 3642DOPC   NC342733  24.847  29.274  12.352  0.0399  0.0523 -0.0188
 3642DOPC   PO442734  25.106  29.018  12.284  0.0891 -0.0393  0.1746
 3642DOPC   GL142735  24.888  28.858  12.709  0.0307  0.0026  0.2331
 3642DOPC   GL242736  25.044  28.555  12.661  0.3809 -0.0281 -0.0045
 3642DOPC   C1A42737  24.473  29.009  12.801 -0.2404 -0.1311 -0.2157
 3642DOPC   D2A42738  24.021  29.095  12.843 -0.0127 -0.1389  0.2924
 3642DOPC   C3A42739  23.693  29.146  12.485  0.3749  0.1811 -0.1578
 3642DOPC   C4A42740  23.468  28.971  12.118 -0.0275 -0.0378  0.0018
 3642DOPC   C1B42741  24.604  28.469  12.762 -0.1134  0.1606 -0.0007
 3642DOPC   D2B42742  24.233  28.536  13.029 -0.0277 -0.1769 -0.2709
 3642DOPC   C3B42743  23.930  28.667  13.280 -0.0279  0.4077 -0.2049
 3642DOPC   C4B42744  23.475  28.810  13.265  0.2032  0.0116  0.0564
 3643DOPC   NC342745  28.100  26.064  12.467  0.2266  0.4171  0.0637
 3643DOPC   PO442746  27.783  25.911  12.206  0.0723 -0.2831 -0.0482
 3643DOPC   GL142747  27.618  26.115  12.563 -0.0827 -0.1817 -0.3412
 3643DOPC   GL242748  27.624  26.378  12.511  0.2751  0.3930  0.2036
 3643DOPC   C1A42749  27.340  25.952  12.906 -0.2335 -0.0497 -0.1774
 3643DOPC   D2A42750  27.046  25.828  13.192  0.0383  0.0678  0.3094
 3643DOPC   C3A42751  26.971  26.123  13.567 -0.0767 -0.0939 -0.0642
 3643DOPC   C4A42752  26.596  26.387  13.667  0.0129 -0.0332 -0.0284
 3643DOPC   C1B42753  27.473  26.465  12.937  0.4183 -0.1127  0.1438
 3643DOPC   D2B42754  27.256  26.442  13.338  0.2345 -0.0435  0.3482
 3643DOPC   C3B42755  27.540  26.690  13.589 -0.2685 -0.3928 -0.0552
 3643DOPC   C4B42756  27.775  27.025  13.828  0.0014  0.0811  0.0668
 3644POSM   NC342757  33.692  29.919  12.438 -0.0224 -0.0846  0.0738
 3644POSM   PO442758  33.692  29.498  12.367  0.1532 -0.0844 -0.3406
 3644POSM   AM142759  33.680  29.445  12.694 -0.3028 -0.0183  0.1198
 3644POSM   AM242760  33.776  29.634  12.870  0.0629 -0.1227 -0.1905
 3644POSM   T1A42761  33.547  29.170  13.072  0.0690  0.0733 -0.0829
 3644POSM   C2A42762  33.690  28.964  13.421  0.1778 -0.2312 -0.1373
 3644POSM   C3A42763  33.908  29.004  13.830 -0.0765  0.1121  0.0128
 3644POSM   C1B42764  33.785  29.561  13.199  0.4312  0.1381  0.1008
 3644POSM   D2B42765  33.597  29.391  13.621 -0.0594  0.1156 -0.2142
 3644POSM   C3B42766  33.953  29.485  13.999 -0.2587 -0.0121 -0.1769
 3644POSM   C4B42767  34.171  29.741  14.362  0.1702  0.2255 -0.0716
 3645POSM   NC342768  22.925  31.712  11.968 -0.0933 -0.0896 -0.2301
 3645POSM   PO442769  22.985  32.037  12.217  0.0159 -0.2434  0.1092
 3645POSM   AM142770  23.158  32.050  12.501 -0.4174 -0.2495 -0.1930
 3645POSM   AM242771  23.241  32.251  12.705 -0.0550  0.0917  0.0235
 3645POSM   T1A42772  23.268  31.864  12.957  0.0559  0.1521 -0.0194
 3645POSM   C2A42773  23.583  31.563  13.174 -0.0881 -0.0395  0.0903
 3645POSM   C3A42774  23.550  31.165  13.378 -0.1640  0.0524  0.0105
 3645POSM   C1B42775  23.560  32.262  12.560  0.1555 -0.1166  0.1939
 3645POSM   D2B42776  23.940  32.557  12.672 -0.3699  0.1239 -0.0273
 3645POSM   C3B42777  24.332  32.567  12.376  0.2641 -0.1796 -0.1125
 3645POSM   C4B42778  24.486  32.961  12.113  0.2448  0.1849  0.1589
 3646DOPS   CNO42779  30.817  26.422  12.574 -0.1552  0.1709 -0.1187
 3646DOPS   PO442780  30.932  26.477  12.940  0.0012 -0.1920 -0.0358
 3646DOPS   GL142781  31.088  26.407  13.272  0.5931 -0.1023  0.1067
 3646DOPS   GL242782  31.235  26.146  13.233  0.3383 -0.2323 -0.2474
 3646DOPS   C1A42783  31.268  26.307  13.694  0.1978  0.1805  0.0463
 3646DOPS   D2A42784  31.364  26.126  14.098  0.2685 -0.0301  0.0415
 3646DOPS   C3A42785  31.102  26.188  14.524 -0.1410 -0.3376  0.3618
 3646DOPS   C4A42786  30.810  26.136  14.881 -0.2429  0.3065 -0.1101
 3646DOPS   C1B42787  30.972  25.923  13.536  0.0209  0.1499  0.2887
 3646DOPS   D2B42788  30.741  25.514  13.737 -0.0929 -0.1216 -0.2478
 3646DOPS   C3B42789  30.860  25.320  14.147  0.1180 -0.0247 -0.1219
 3646DOPS   C4B42790  31.113  24.932  14.312  0.0231  0.2359 -0.0120
 3647POSM   NC342791  25.822  23.214  12.409 -0.0984  0.0082 -0.6243
 3647POSM   PO442792  25.991  23.543  12.521  0.0869 -0.2775  0.0482
 3647POSM   AM142793  25.921  23.542  12.844 -0.1783  0.0231 -0.1736
 3647POSM   AM242794  25.803  23.319  13.005 -0.2518  0.1383 -0.2516
 3647POSM   T1A42795  25.716  23.719  13.280  0.2454  0.0987 -0.2748
 3647POSM   C2A42796  25.764  24.080  13.573  0.0923  0.3493 -0.0916
 3647POSM   C3A42797  25.555  24.275  13.915  0.0998 -0.0338  0.0565
 3647POSM   C1B42798  25.698  23.190  13.260 -0.1427  0.0722 -0.1071
 3647POSM   D2B42799  25.746  23.326  13.693  0.0578  0.0784 -0.2111
 3647POSM   C3B42800  26.095  23.440  13.897  0.1235  0.2247  0.0278
 3647POSM   C4B42801  26.277  23.461  14.368  0.3287 -0.3596  0.1243
 3648DOPE   NH342802  29.679  32.623  13.317  0.2425 -0.1432 -0.2903
 3648DOPE   PO442803  29.494  32.560  13.097  0.1598 -0.0659 -0.3285
 3648DOPE   GL142804  29.169  32.774  13.112 -0.0466 -0.2941  0.1556
 3648DOPE   GL242805  28.980  32.686  12.845  0.5148  0.0611 -0.2077
 3648DOPE   C1A42806  28.906  32.698  13.462 -0.0865  0.1384  0.1440
 3648DOPE   D2A42807  28.803  32.483  13.871 -0.1920 -0.2824  0.2552
 3648DOPE   C3A42808  28.867  32.343  14.366  0.0874 -0.0198 -0.2743
 3648DOPE   C4A42809  28.793  32.119  14.756  0.1891 -0.0476 -0.1602
 3648DOPE   C1B42810  28.792  32.360  13.134 -0.1231  0.0393 -0.0993
 3648DOPE   D2B42811  28.579  32.221  13.517 -0.2857  0.0660  0.1229
 3648DOPE   C3B42812  28.619  31.974  13.892 -0.1801 -0.0118  0.1440
 3648DOPE   C4B42813  28.507  31.850  14.378  0.1160 -0.1548 -0.2207
 3649DOPE   NH342814  25.238  23.961  12.429 -0.2135 -0.0490  0.0689
 3649DOPE   PO442815  25.128  24.197  12.263 -0.1635 -0.1968 -0.0077
 3649DOPE   GL142816  24.720  24.357  12.362  0.0350 -0.1226  0.2656
 3649DOPE   GL242817  24.778  24.225  12.631  0.0048  0.0201 -0.0039
 3649DOPE   C1A42818  24.837  24.812  12.478  0.0325  0.0121 -0.2669
 3649DOPE   D2A42819  24.980  25.159  12.731  0.0125  0.1216 -0.1071
 3649DOPE   C3A42820  25.310  25.352  12.988  0.0892  0.0441  0.2449
 3649DOPE   C4A42821  25.648  25.677  13.107 -0.0995 -0.0396 -0.0216
 3649DOPE   C1B42822  24.864  24.230  13.085 -0.2898 -0.3363  0.2024
 3649DOPE   D2B42823  24.809  24.293  13.509  0.3365 -0.1371 -0.0727
 3649DOPE   C3B42824  24.623  24.014  13.792 -0.0748 -0.0433  0.0090
 3649DOPE   C4B42825  24.193  23.943  14.008  0.1964  0.1366  0.5334
 3650DOPE   NH342826  25.743  23.904  12.217  0.2184 -0.0804  0.0457
 3650DOPE   PO442827  25.725  24.203  12.337  0.3242 -0.0001 -0.2328
 3650DOPE   GL142828  25.531  24.359  12.680  0.1126  0.1212  0.3206
 3650DOPE   GL242829  25.420  24.636  12.523 -0.0675 -0.2514  0.3482
 3650DOPE   C1A42830  25.612  24.706  13.055 -0.1050 -0.1080  0.1808
 3650DOPE   D2A42831  25.641  25.047  13.340  0.2542 -0.1932 -0.1223
 3650DOPE   C3A42832  25.944  25.204  13.640  0.1145  0.2516 -0.2045
 3650DOPE   C4A42833  26.174  25.425  13.998  0.3501 -0.0242 -0.0748
 3650DOPE   C1B42834  25.141  24.667  12.901 -0.0242 -0.0091 -0.2257
 3650DOPE   D2B42835  25.010  24.826  13.283  0.2215  0.0628 -0.3826
 3650DOPE   C3B42836  25.079  24.618  13.721  0.0015 -0.1508 -0.0203
 3650DOPE   C4B42837  25.064  24.380  14.116  0.4267 -0.0290 -0.0067
 3651DOPS   CNO42838  29.026  23.030  12.446 -0.0349  0.4950 -0.0448
 3651DOPS   PO442839  28.852  23.374  12.385 -0.1082  0.0912  0.0109
 3651DOPS   GL142840  28.577  23.548  12.706 -0.1782  0.0785  0.1490
 3651DOPS   GL242841  28.625  23.504  13.111 -0.1646  0.2410  0.3821
 3651DOPS   C1A42842  28.190  23.819  12.781 -0.1305 -0.0508 -0.0981
 3651DOPS   D2A42843  28.007  24.204  12.774  0.2146  0.2495 -0.1129
 3651DOPS   C3A42844  27.620  24.485  12.752  0.2104 -0.0917  0.0458
 3651DOPS   C4A42845  27.147  24.373  12.536 -0.0316  0.3001 -0.0117
 3651DOPS   C1B42846  28.502  23.868  13.208 -0.2683  0.0433 -0.1022
 3651DOPS   D2B42847  28.398  24.296  13.300 -0.0725 -0.1175 -0.1762
 3651DOPS   C3B42848  27.963  24.368  13.252  0.0346  0.0152  0.0450
 3651DOPS   C4B42849  27.534  24.309  13.234  0.1071 -0.1974 -0.0827
 3652POSM   NC342850  30.786  26.016  13.037 -0.1985  0.0368  0.0883
 3652POSM   PO442851  30.446  26.206  12.899  0.0279  0.2581  0.2346
 3652POSM   AM142852  30.517  26.391  13.151  0.0567 -0.3102  0.3090
 3652POSM   AM242853  30.603  26.643  13.253  0.1771  0.1259  0.1365
 3652POSM   T1A42854  30.668  26.379  13.683 -0.3389  0.2231 -0.1135
 3652POSM   C2A42855  30.774  26.415  14.134  0.0673  0.3931 -0.0225
 3652POSM   C3A42856  30.582  26.486  14.588  0.2471  0.1587  0.0304
 3652POSM   C1B42857  30.457  26.783  13.546  0.1691  0.1536  0.0438
 3652POSM   D2B42858  30.244  26.743  13.915  0.3095  0.0270 -0.1436
 3652POSM   C3B42859  29.853  26.546  13.902  0.0355 -0.1654 -0.2485
 3652POSM   C4B42860  29.438  26.485  13.783  0.0129  0.1392 -0.0511
 3653POSM   NC342861  31.787  28.893  12.475  0.3640 -0.1438  0.2376
 3653POSM   PO442862  31.785  28.729  12.816 -0.0448  0.0810  0.2149
 3653POSM   AM142863  32.070  28.804  12.911 -0.1903 -0.1394  0.1151
 3653POSM   AM242864  32.228  29.019  12.827 -0.0529  0.0714 -0.0933
 3653POSM   T1A42865  32.521  28.695  13.125 -0.2698 -0.2144  0.2165
 3653POSM   C2A42866  32.941  28.480  13.208 -0.3915 -0.0789 -0.1615
 3653POSM   C3A42867  33.206  28.181  13.420  0.1334 -0.0835 -0.2096
 3653POSM   C1B42868  32.488  29.152  12.888 -0.3318  0.0926  0.1987
 3653POSM   D2B42869  32.944  29.030  13.039  0.0457 -0.3967 -0.2626
 3653POSM   C3B42870  33.121  29.398  13.316 -0.0252  0.0921 -0.0438
 3653POSM   C4B42871  33.390  29.784  13.303 -0.3534  0.1374  0.0627
 3654DOPE   NH342872  31.403  26.300  12.791  0.4542 -0.0149  0.1045
 3654DOPE   PO442873  31.421  26.612  12.915  0.0965  0.4296 -0.0409
 3654DOPE   GL142874  31.479  26.523  13.320  0.2642  0.1833  0.1889
 3654DOPE   GL242875  31.671  26.305  13.249  0.0456 -0.2896  0.1586
 3654DOPE   C1A42876  31.510  26.824  13.656  0.3409  0.3309 -0.1360
 3654DOPE   D2A42877  31.704  26.996  14.053  0.2145  0.0968 -0.2054
 3654DOPE   C3A42878  31.668  26.822  14.462 -0.0264 -0.2210 -0.1812
 3654DOPE   C4A42879  31.434  26.493  14.666 -0.2721 -0.2588 -0.2529
 3654DOPE   C1B42880  31.784  26.315  13.670 -0.0619  0.0021 -0.1039
 3654DOPE   D2B42881  31.692  26.506  14.063  0.0866 -0.1140  0.0729
 3654DOPE   C3B42882  31.892  26.289  14.424 -0.1163 -0.0838 -0.1849
 3654DOPE   C4B42883  31.961  26.273  14.907  0.0942 -0.5614  0.1837
 3655DOPS   CNO42884  24.404  34.525  12.077 -0.0284  0.0412  0.1357
 3655DOPS   PO442885  24.202  34.777  12.295 -0.1513 -0.2784 -0.0664
 3655DOPS   GL142886  24.064  34.729  12.665  0.0623 -0.0390  0.0928
 3655DOPS   GL242887  24.227  34.486  12.722  0.0486  0.2024  0.2215
 3655DOPS   C1A42888  23.973  34.810  13.109  0.1342 -0.1196 -0.0344
 3655DOPS   D2A42889  24.093  34.856  13.545  0.2138 -0.2040  0.2456
 3655DOPS   C3A42890  24.514  34.927  13.801 -0.1562  0.2374  0.1128
 3655DOPS   C4A42891  24.557  35.246  14.167 -0.0313  0.0087  0.2951
 3655DOPS   C1B42892  24.486  34.174  12.950 -0.0690 -0.1750  0.1742
 3655DOPS   D2B42893  24.295  34.061  13.327  0.0647  0.2928  0.1141
 3655DOPS   C3B42894  24.064  34.342  13.619 -0.0174 -0.2725  0.3037
 3655DOPS   C4B42895  23.714  34.289  13.952  0.1690  0.1814 -0.2178
 3656DOPE   NH342896  29.528  31.634  12.829  0.1012 -0.0044 -0.0692
 3656DOPE   PO442897  29.696  31.329  12.826  0.1968  0.2975 -0.0434
 3656DOPE   GL142898  29.756  31.314  13.180 -0.1224 -0.4745  0.0178
 3656DOPE   GL242899  29.533  31.439  13.389  0.0313  0.0270 -0.3257
 3656DOPE   C1A42900  30.110  31.435  13.430  0.1775 -0.0978  0.3964
 3656DOPE   D2A42901  30.414  31.666  13.763 -0.0331 -0.2953  0.0580
 3656DOPE   C3A42902  30.414  32.109  13.723  0.1686 -0.0269 -0.2641
 3656DOPE   C4A42903  30.549  32.319  14.134 -0.1203 -0.1672 -0.1421
 3656DOPE   C1B42904  29.797  31.164  13.687 -0.1016  0.1934 -0.1517
 3656DOPE   D2B42905  29.775  30.909  14.075 -0.1294  0.2900  0.5242
 3656DOPE   C3B42906  29.558  31.021  14.449  0.2103  0.2809 -0.1112
 3656DOPE   C4B42907  29.533  31.209  14.901 -0.3510  0.1630  0.0345
 3657POSM   NC342908  22.143  25.632  12.072 -0.1639 -0.1201  0.0461
 3657POSM   PO442909  22.555  25.695  12.068  0.1635 -0.0794  0.0297
 3657POSM   AM142910  22.628  25.388  12.192 -0.3327  0.2009 -0.0887
 3657POSM   AM242911  22.766  25.339  12.455 -0.0222 -0.2755  0.0569
 3657POSM   T1A42912  22.918  24.976  12.046 -0.0411 -0.0254 -0.1719
 3657POSM   C2A42913  23.246  24.629  12.136  0.0523 -0.1991  0.2535
 3657POSM   C3A42914  23.651  24.382  12.080  0.2916  0.1447  0.0777
 3657POSM   C1B42915  22.678  25.042  12.647 -0.1357 -0.1069 -0.0023
 3657POSM   D2B42916  22.576  24.697  12.993  0.3493 -0.2798 -0.4153
 3657POSM   C3B42917  22.954  24.675  13.243 -0.1757 -0.0353  0.0087
 3657POSM   C4B42918  23.383  24.706  13.285  0.0314  0.1899 -0.0390
 3658POSM   NC342919  23.394  33.759  12.180  0.3803 -0.0486 -0.3302
 3658POSM   PO442920  23.461  34.107  12.310 -0.0699  0.0764 -0.0941
 3658POSM   AM142921  23.569  34.164  12.604 -0.3405 -0.1945  0.0075
 3658POSM   AM242922  23.717  34.351  12.751  0.0643  0.2355 -0.1919
 3658POSM   T1A42923  23.939  33.962  12.911 -0.1686  0.0317 -0.1573
 3658POSM   C2A42924  24.254  33.627  13.090  0.0650  0.1983  0.0137
 3658POSM   C3A42925  24.449  33.265  13.211  0.0444 -0.3180  0.1097
 3658POSM   C1B42926  23.497  34.523  12.909  0.0049  0.0987 -0.0124
 3658POSM   D2B42927  23.346  34.826  13.221  0.1399 -0.1506 -0.1039
 3658POSM   C3B42928  23.158  34.866  13.667 -0.5258 -0.0007 -0.0675
 3658POSM   C4B42929  22.982  35.045  14.021  0.1838 -0.2745 -0.2791
 3659DOPC   NC342930  27.342  30.945  12.783  0.2727 -0.1646 -0.1838
 3659DOPC   PO442931  27.597  30.989  12.479  0.0371  0.1141  0.0065
 3659DOPC   GL142932  27.507  31.394  12.533  0.1076  0.2515 -0.0410
 3659DOPC   GL242933  27.806  31.440  12.585 -0.1915 -0.0661 -0.0870
 3659DOPC   C1A42934  27.089  31.426  12.581  0.1128 -0.4464 -0.0515
 3659DOPC   D2A42935  26.761  31.367  12.857 -0.0101 -0.2571 -0.2149
 3659DOPC   C3A42936  26.772  31.186  13.269  0.0473 -0.2169  0.0352
 3659DOPC   C4A42937  26.776  31.467  13.656  0.2742 -0.1557 -0.0624
 3659DOPC   C1B42938  27.600  31.431  12.976  0.0300  0.1488  0.2000
 3659DOPC   D2B42939  27.213  31.354  13.152 -0.0327  0.1252 -0.1539
 3659DOPC   C3B42940  27.081  31.733  13.392  0.0544 -0.0911 -0.4090
 3659DOPC   C4B42941  27.322  32.035  13.662  0.4854 -0.0722  0.0809
 3660POSM   NC342942  23.121  31.306  12.334 -0.1036 -0.2174 -0.1578
 3660POSM   PO442943  23.158  30.918  12.230  0.0486  0.1161 -0.0502
 3660POSM   AM142944  23.294  30.833  12.518  0.1717  0.0576  0.0405
 3660POSM   AM242945  23.388  30.967  12.714 -0.0525  0.1445  0.2541
 3660POSM   T1A42946  23.439  30.425  12.719 -0.3029 -0.2169  0.4371
 3660POSM   C2A42947  23.390  30.035  12.547 -0.1266  0.3510  0.1338
 3660POSM   C3A42948  23.695  29.647  12.593  0.6423  0.1758 -0.1142
 3660POSM   C1B42949  23.350  30.916  13.036 -0.0633  0.0768  0.0371
 3660POSM   D2B42950  23.180  30.853  13.443 -0.3820 -0.0160 -0.1064
 3660POSM   C3B42951  23.010  30.445  13.457 -0.1337 -0.2709 -0.1755
 3660POSM   C4B42952  22.873  29.993  13.543 -0.1046  0.6088  0.3142
 3661DOPE   NH342953  28.397  25.836  12.820 -0.0084  0.0279 -0.0328
 3661DOPE   PO442954  28.103  25.813  12.869  0.0348 -0.2890  0.1031
 3661DOPE   GL142955  27.782  25.937  13.070 -0.0740 -0.2275 -0.3786
 3661DOPE   GL242956  27.742  25.645  13.179 -0.0448 -0.0728 -0.0273
 3661DOPE   C1A42957  27.502  26.000  13.483 -0.4387 -0.1390 -0.1108
 3661DOPE   D2A42958  27.421  26.036  13.965 -0.2134  0.4421 -0.1551
 3661DOPE   C3A42959  27.443  25.899  14.365  0.1774  0.0172  0.3498
 3661DOPE   C4A42960  27.743  25.694  14.573  0.2372  0.2327 -0.2096
 3661DOPE   C1B42961  27.828  25.574  13.622 -0.2860 -0.0202  0.0652
 3661DOPE   D2B42962  27.882  25.708  14.059  0.1657  0.1607  0.1162
 3661DOPE   C3B42963  27.889  26.094  14.338 -0.0023 -0.1285 -0.0722
 3661DOPE   C4B42964  27.959  26.212  14.800 -0.1343 -0.3950  0.0544
 3662DOPS   CNO42965  25.979  28.536  12.498 -0.0237  0.0799 -0.3330
 3662DOPS   PO442966  25.864  28.668  12.808  0.1048  0.1241  0.2653
 3662DOPS   GL142967  26.053  28.711  13.204 -0.0232 -0.1765 -0.0257
 3662DOPS   GL242968  26.162  29.035  13.289 -0.2733  0.3836  0.2372
 3662DOPS   C1A42969  26.210  28.634  13.626  0.1466  0.0166 -0.1054
 3662DOPS   D2A42970  26.298  28.378  13.980 -0.1828 -0.2652  0.0638
 3662DOPS   C3A42971  26.628  28.077  14.098  0.0734  0.1113  0.0380
 3662DOPS   C4A42972  26.576  27.676  14.223  0.2005  0.3171  0.0965
 3662DOPS   C1B42973  26.199  29.466  13.481  0.4627  0.1250  0.1385
 3662DOPS   D2B42974  25.908  29.574  13.844  0.0203 -0.0730  0.1155
 3662DOPS   C3B42975  26.013  29.308  14.217 -0.0025 -0.1214 -0.0137
 3662DOPS   C4B42976  26.428  29.140  14.378 -0.3220  0.0914  0.0133
 3663DOPC   NC342977  25.238  30.099  12.323 -0.2497  0.1327 -0.2275
 3663DOPC   PO442978  25.148  30.382  12.044  0.2258 -0.2049  0.0460
 3663DOPC   GL142979  25.514  30.432  12.219  0.1433  0.1395  0.5950
 3663DOPC   GL242980  25.453  30.695  12.314  0.1066 -0.1543  0.0006
 3663DOPC   C1A42981  25.944  30.562  12.059  0.2668 -0.1437 -0.0303
 3663DOPC   D2A42982  26.233  30.913  12.171 -0.1364  0.3622  0.1879
 3663DOPC   C3A42983  26.526  31.011  12.553 -0.0342 -0.0662 -0.2067
 3663DOPC   C4A42984  26.724  30.846  12.908 -0.0376 -0.0444  0.3673
 3663DOPC   C1B42985  25.655  31.132  12.445  0.0881 -0.1347  0.3698
 3663DOPC   D2B42986  26.084  31.301  12.476  0.1955 -0.2682 -0.0452
 3663DOPC   C3B42987  26.189  31.228  12.946  0.1313  0.0177 -0.0185
 3663DOPC   C4B42988  26.261  31.180  13.441  0.1881  0.1107  0.2264
 3664DOPC   NC342989  32.481  34.268  12.234  0.3185  0.0935  0.2873
 3664DOPC   PO442990  32.731  34.006  12.389 -0.2370 -0.1726 -0.0493
 3664DOPC   GL142991  32.581  33.704  12.661  0.0594 -0.1581  0.2722
 3664DOPC   GL242992  32.833  33.582  12.754  0.0381  0.1261  0.0602
 3664DOPC   C1A42993  32.153  33.489  12.814 -0.0209  0.0895  0.1434
 3664DOPC   D2A42994  31.950  33.121  13.077  0.0170  0.1971  0.1749
 3664DOPC   C3A42995  32.297  32.861  13.103  0.5052  0.2650 -0.0987
 3664DOPC   C4A42996  32.616  32.549  12.968 -0.0421  0.0442 -0.1837
 3664DOPC   C1B42997  32.691  33.092  12.754  0.1692  0.1324 -0.2871
 3664DOPC   D2B42998  32.546  32.737  12.485 -0.0055 -0.0847  0.0178
 3664DOPC   C3B42999  32.172  32.924  12.516 -0.1140  0.0984 -0.0436
 3664DOPC   C4B43000  31.713  32.944  12.607  0.0295 -0.0805  0.2606
 3665DOPC   NC343001  25.800  28.081  12.449 -0.1412 -0.4360 -0.0071
 3665DOPC   PO443002  25.506  28.229  12.672  0.2013 -0.0406 -0.1412
 3665DOPC   GL143003  25.477  28.491  12.957 -0.3081 -0.1534 -0.0779
 3665DOPC   GL243004  25.244  28.430  13.076 -0.0609  0.0095  0.2259
 3665DOPC   C1A43005  25.720  28.422  13.381  0.1659 -0.3084 -0.0410
 3665DOPC   D2A43006  25.769  28.327  13.773 -0.0277  0.1321  0.1260
 3665DOPC   C3A43007  25.259  28.407  13.957 -0.0583  0.1049 -0.2328
 3665DOPC   C4A43008  24.906  28.312  14.191  0.0028 -0.0900  0.1247
 3665DOPC   C1B43009  25.295  28.622  13.457  0.0596  0.0605 -0.1590
 3665DOPC   D2B43010  25.564  28.793  13.769 -0.0849 -0.0820  0.1169
 3665DOPC   C3B43011  25.453  29.230  13.882  0.0709 -0.1442  0.1205
 3665DOPC   C4B43012  25.264  29.632  13.805 -0.0136  0.1724 -0.0294
 3666DOPS   CNO43013  29.168  32.016  12.978  0.0654 -0.1635 -0.0002
 3666DOPS   PO443014  29.189  31.726  13.184 -0.4692  0.0257 -0.1670
 3666DOPS   GL143015  28.988  32.004  13.449  0.1634  0.0192 -0.0466
 3666DOPS   GL243016  29.133  32.263  13.460  0.1295 -0.0945 -0.0032
 3666DOPS   C1A43017  29.093  32.061  13.947  0.1211 -0.1279  0.0875
 3666DOPS   D2A43018  29.545  32.138  14.131 -0.0651 -0.3503  0.2227
 3666DOPS   C3A43019  29.577  32.585  14.264  0.1339  0.0347 -0.0379
 3666DOPS   C4A43020  29.516  32.994  14.483  0.1100 -0.1928 -0.1089
 3666DOPS   C1B43021  29.317  32.483  13.802  0.2853  0.0804  0.0679
 3666DOPS   D2B43022  29.183  32.935  14.027 -0.0468 -0.0278 -0.2872
 3666DOPS   C3B43023  28.968  32.970  14.475  0.2404  0.1044  0.2558
 3666DOPS   C4B43024  29.012  32.584  14.763 -0.1983  0.4696  0.0046
 3667POSM   NC343025  25.449  22.964  12.688  0.0931 -0.0504  0.0058
 3667POSM   PO443026  25.079  22.914  12.493 -0.1514  0.0574 -0.2590
 3667POSM   AM143027  25.000  22.956  12.833  0.0422 -0.0462  0.0507
 3667POSM   AM243028  24.756  23.027  12.918 -0.1087 -0.0114 -0.2223
 3667POSM   T1A43029  25.171  22.942  13.334 -0.0847 -0.1302  0.1223
 3667POSM   C2A43030  25.540  22.828  13.541 -0.0363  0.1618  0.3989
 3667POSM   C3A43031  25.990  22.913  13.573 -0.0642 -0.1546 -0.2132
 3667POSM   C1B43032  24.500  23.207  13.105  0.1379  0.0168  0.1775
 3667POSM   D2B43033  24.404  23.554  13.399  0.2175  0.1413 -0.0352
 3667POSM   C3B43034  24.144  23.477  13.774 -0.0468  0.2776  0.1193
 3667POSM   C4B43035  23.859  23.561  14.077 -0.1445 -0.2096 -0.0452
 3668POSM   NC343036  28.947  34.060  12.637 -0.3918 -0.0179 -0.0830
 3668POSM   PO443037  28.991  33.644  12.694  0.2215 -0.3820  0.2037
 3668POSM   AM143038  28.868  33.674  12.962 -0.0993  0.2008 -0.0882
 3668POSM   AM243039  28.816  33.868  13.141  0.3184 -0.2260  0.1899
 3668POSM   T1A43040  28.629  33.393  13.291  0.0550 -0.1556 -0.2547
 3668POSM   C2A43041  28.697  33.109  13.669 -0.1509 -0.3243 -0.0899
 3668POSM   C3A43042  28.716  33.271  14.086 -0.0896 -0.1761 -0.1561
 3668POSM   C1B43043  28.977  33.820  13.413 -0.1203 -0.1926  0.3159
 3668POSM   D2B43044  29.316  33.889  13.801 -0.1471 -0.1888  0.1395
 3668POSM   C3B43045  29.188  34.067  14.172  0.2336  0.0877  0.0936
 3668POSM   C4B43046  29.291  34.160  14.595 -0.0186 -0.0651 -0.3347
 3669DOPE   NH343047  22.341  29.825  12.742  0.0401 -0.2788  0.2014
 3669DOPE   PO443048  22.573  29.860  12.583  0.1043  0.2819 -0.4909
 3669DOPE   GL143049  22.878  29.622  12.518  0.3684 -0.1205  0.2183
 3669DOPE   GL243050  23.066  29.734  12.281  0.0140  0.0339  0.1681
 3669DOPE   C1A43051  23.237  29.651  12.796 -0.1113 -0.1451 -0.0488
 3669DOPE   D2A43052  23.275  29.612  13.266  0.0565 -0.0342 -0.0565
 3669DOPE   C3A43053  23.048  29.226  13.395 -0.1044 -0.2528  0.1543
 3669DOPE   C4A43054  22.632  29.068  13.314 -0.0563  0.3906 -0.2117
 3669DOPE   C1B43055  23.161  29.305  12.445 -0.1083  0.0610  0.0320
 3669DOPE   D2B43056  23.364  29.152  12.844  0.0740  0.1142 -0.3049
 3669DOPE   C3B43057  23.653  29.301  13.184  0.2939  0.2227 -0.2043
 3669DOPE   C4B43058  24.057  29.189  13.410  0.2541  0.3733 -0.0653
 3670DOPC   NC343059  28.194  22.343  12.962  0.2166 -0.0974 -0.0854
 3670DOPC   PO443060  28.516  22.473  12.749  0.2052  0.2053  0.1429
 3670DOPC   GL143061  28.464  22.733  13.122  0.1609  0.1457 -0.1839
 3670DOPC   GL243062  28.193  22.708  13.319  0.1453 -0.2127 -0.0851
 3670DOPC   C1A43063  28.424  23.042  13.503 -0.2737 -0.1107  0.1485
 3670DOPC   D2A43064  28.120  23.085  13.816 -0.0254 -0.0503  0.0101
 3670DOPC   C3A43065  27.804  22.832  14.109  0.1584  0.1621  0.0773
 3670DOPC   C4A43066  27.415  23.011  14.222 -0.2012 -0.1808 -0.1688
 3670DOPC   C1B43067  27.735  22.570  13.272 -0.4612 -0.0102  0.1409
 3670DOPC   D2B43068  27.366  22.393  12.976 -0.0321 -0.3270 -0.4229
 3670DOPC   C3B43069  27.283  22.809  12.776  0.0162 -0.0393 -0.1612
 3670DOPC   C4B43070  27.334  23.232  12.680  0.1635  0.0220 -0.0307
 3671POSM   NC343071  33.033  25.683  13.260  0.1016  0.3573  0.4217
 3671POSM   PO443072  33.228  25.722  12.940  0.3022  0.0750 -0.1542
 3671POSM   AM143073  33.435  25.846  13.160 -0.1068  0.4299 -0.4297
 3671POSM   AM243074  33.603  26.037  13.292  0.0382  0.1306 -0.0758
 3671POSM   T1A43075  33.444  25.871  13.684 -0.1964  0.0258 -0.4104
 3671POSM   C2A43076  33.367  26.305  13.923 -0.0261  0.0253  0.1857
 3671POSM   C3A43077  33.014  26.558  13.993  0.0021 -0.1917  0.0321
 3671POSM   C1B43078  33.542  26.365  13.490  0.0419 -0.0159  0.0257
 3671POSM   D2B43079  33.477  26.783  13.458 -0.1140  0.3128 -0.2607
 3671POSM   C3B43080  33.887  26.867  13.445  0.0487 -0.1384  0.0189
 3671POSM   C4B43081  34.347  26.715  13.506  0.1238  0.1915  0.0010
 3672POSM   NC343082  29.222  31.085  13.040  0.1823  0.0456 -0.0469
 3672POSM   PO443083  29.184  30.950  12.652  0.0238  0.3216 -0.4333
 3672POSM   AM143084  29.108  30.675  12.820  0.1505 -0.1501  0.0812
 3672POSM   AM243085  28.912  30.558  13.008 -0.1739 -0.1287  0.2891
 3672POSM   T1A43086  29.292  30.197  12.812 -0.0155  0.0818  0.3904
 3672POSM   C2A43087  29.345  29.893  13.127  0.0052 -0.0635  0.1466
 3672POSM   C3A43088  28.960  29.705  13.167  0.0331 -0.1855 -0.2001
 3672POSM   C1B43089  28.920  30.248  13.189 -0.2772  0.1319 -0.1377
 3672POSM   D2B43090  28.955  30.015  13.545  0.1230  0.2311 -0.2309
 3672POSM   C3B43091  29.001  30.358  13.802  0.2256  0.1808  0.2687
 3672POSM   C4B43092  29.021  30.770  14.053  0.1989 -0.2920 -0.0043
 3673G2HFO Head43093  13.279  19.092  26.024  0.1700 -0.1482 -0.0132
 3673G2HFO Head43094  13.336  19.041  25.709  0.2496 -0.2986  0.2823
 3673G2HFO Head43095  12.964  19.127  25.425 -0.3375  0.1002 -0.1991
 3673G2HFO Head43096  12.991  18.848  25.536 -0.0513 -0.0519 -0.2355
 3673G2HFO Head43097  13.304  18.720  25.574 -0.0270  0.0813 -0.1287
 3673G2HFO Head43098  12.852  18.808  25.077  0.0634 -0.0966  0.1130
 3673G2HFO Head43099  12.952  18.503  25.175 -0.1848  0.1146  0.0660
 3673G2HFO Head43100  13.036  18.223  25.664 -0.1400 -0.0994 -0.0350
 3673G2HFO Head43101  13.121  18.198  25.376  0.0312  0.1712 -0.1340
 3673G2HFO Head43102  13.304  18.456  25.235  0.0672  0.0073  0.1643
 3673G2HFO link43103  13.440  18.641  25.360 -0.1083 -0.0954  0.4956
 3673G2HFO link43104  13.714  18.683  25.334  0.1922  0.1508  0.0667
 3673G2HFO Tail43105  13.932  18.522  25.527  0.1783 -0.7651 -0.1176
 3673G2HFO Tail43106  14.196  18.739  25.596 -0.1203  0.2758  0.0997
 3673G2HFO Tail43107  14.490  18.767  25.502 -0.0064 -0.1482  0.0805
 3673G2HFO Tail43108  14.776  19.061  25.391  0.1276 -0.3958 -0.4063
 3673G2HFO Tail43109  14.066  18.328  25.288  0.0037  0.0037 -0.2749
 3673G2HFO Tail43110  14.220  18.405  25.104 -0.0632 -0.1765 -0.2089
 3673G2HFO Tail43111  14.377  18.234  25.004 -0.0540 -0.1528  0.1452
 3673G2HFO Tail43112  14.570  18.116  24.884  0.0910  0.1224  0.0487
 3673G2HFO Tail43113  14.772  18.059  24.777 -0.2693 -0.1134 -0.1464
 3674G2HFO Head43114  17.302  18.923  29.175 -0.1087  0.3639 -0.2060
 3674G2HFO Head43115  17.256  18.624  29.092 -0.0004  0.0068 -0.4973
 3674G2HFO Head43116  17.219  19.000  28.565  0.1890  0.0319 -0.0516
 3674G2HFO Head43117  17.436  18.828  28.759  0.4366 -0.1210 -0.2965
 3674G2HFO Head43118  17.383  18.487  28.795  0.1028 -0.1092 -0.2236
 3674G2HFO Head43119  17.423  17.644  28.900  0.5868 -0.2561  0.5169
 3674G2HFO Head43120  17.246  17.865  28.791  0.0054 -0.2464  0.0584
 3674G2HFO Head43121  17.889  18.024  28.576 -0.0585  0.0885 -0.1393
 3674G2HFO Head43122  17.625  18.051  28.716 -0.1162  0.0705 -0.0645
 3674G2HFO Head43123  17.324  18.142  28.580 -0.0450 -0.0815  0.0584
 3674G2HFO link43124  17.228  18.373  28.628  0.0545 -0.1600  0.2022
 3674G2HFO link43125  17.075  18.525  28.447  0.1366 -0.5756 -0.2113
 3674G2HFO Tail43126  17.117  18.520  28.133 -0.3259 -0.1067  0.1151
 3674G2HFO Tail43127  17.266  18.824  28.080 -0.1472  0.0013 -0.1688
 3674G2HFO Tail43128  17.527  18.961  28.171 -0.0770 -0.3115 -0.5521
 3674G2HFO Tail43129  17.793  19.029  28.522  0.1905 -0.1114  0.1328
 3674G2HFO Tail43130  17.380  18.305  28.107  0.1410 -0.1277  0.1545
 3674G2HFO Tail43131  17.383  18.091  27.939 -0.1042 -0.1451 -0.1439
 3674G2HFO Tail43132  17.170  17.965  27.878 -0.0580 -0.2094 -0.1987
 3674G2HFO Tail43133  16.953  17.877  27.775 -0.0234 -0.3201 -0.0915
 3674G2HFO Tail43134  16.744  17.863  27.677 -0.2133 -0.0656 -0.0941
 3675G2HFO Head43135  12.531  18.847  24.325  0.1173  0.1779 -0.2176
 3675G2HFO Head43136  12.801  18.737  24.429 -0.5670  0.1579 -0.0702
 3675G2HFO Head43137  12.621  18.470  23.878  0.1837  0.3477 -0.2177
 3675G2HFO Head43138  12.792  18.388  24.156 -0.3212  0.0386  0.2406
 3675G2HFO Head43139  13.061  18.601  24.232 -0.0678 -0.0729 -0.1492
 3675G2HFO Head43140  13.028  19.109  24.270  0.0864  0.3691  0.2572
 3675G2HFO Head43141  13.306  19.039  24.340 -0.2517 -0.2501  0.1354
 3675G2HFO Head43142  13.105  19.099  24.769 -0.2037 -0.1812  0.1470
 3675G2HFO Head43143  13.298  18.851  24.765  0.3644 -0.0464  0.3739
 3675G2HFO Head43144  13.395  18.718  24.455 -0.2778  0.1742  0.3432
 3675G2HFO link43145  13.273  18.499  24.365  0.2605 -0.2840 -0.0115
 3675G2HFO link43146  13.411  18.254  24.294 -0.0022  0.1305  0.0988
 3675G2HFO Tail43147  13.611  18.227  24.016  0.4385 -0.0601  0.0314
 3675G2HFO Tail43148  13.856  17.997  24.110 -0.0927  0.0250 -0.0237
 3675G2HFO Tail43149  14.151  18.043  24.205 -0.3526 -0.5250 -0.0356
 3675G2HFO Tail43150  14.545  17.916  24.141 -0.3252 -0.0413  0.0304
 3675G2HFO Tail43151  13.793  18.505  24.038 -0.1975 -0.2717 -0.0193
 3675G2HFO Tail43152  13.916  18.581  24.256  0.0839 -0.0938  0.0173
 3675G2HFO Tail43153  13.823  18.777  24.399  0.0551  0.2999  0.0996
 3675G2HFO Tail43154  13.772  18.982  24.534  0.0652 -0.1061  0.1710
 3675G2HFO Tail43155  13.679  19.132  24.688  0.0160  0.3001 -0.1420
 3676G2HFO Head43156  17.823  14.170  24.252 -0.4780 -0.1015 -0.2485
 3676G2HFO Head43157  17.524  14.304  24.203  0.4425 -0.0379 -0.1393
 3676G2HFO Head43158  16.916  14.151  24.525 -0.0188 -0.0348  0.0848
 3676G2HFO Head43159  17.150  14.206  24.360  0.2523 -0.0741  0.0046
 3676G2HFO Head43160  17.352  14.468  24.467  0.1520  0.0812 -0.0952
 3676G2HFO Head43161  17.992  14.638  24.711 -0.2900 -0.0371  0.0640
 3676G2HFO Head43162  17.644  14.663  24.787  0.0258  0.2671  0.1978
 3676G2HFO Head43163  17.554  15.064  25.076 -0.0993  0.0690 -0.0337
 3676G2HFO Head43164  17.346  14.972  24.893 -0.0462 -0.0118 -0.2544
 3676G2HFO Head43165  17.433  14.852  24.583  0.1870 -0.2393  0.3304
 3676G2HFO link43166  17.287  14.729  24.439  0.2454  0.1002 -0.1800
 3676G2HFO link43167  17.047  14.824  24.323  0.2472  0.0014 -0.0253
 3676G2HFO Tail43168  16.760  14.752  24.457 -0.4121  0.0336 -0.1330
 3676G2HFO Tail43169  16.591  15.054  24.353 -0.0865  0.2739 -0.0477
 3676G2HFO Tail43170  16.465  15.311  24.506 -0.0126 -0.2224  0.1087
 3676G2HFO Tail43171  16.461  15.490  24.897  0.0345  0.0313  0.0284
 3676G2HFO Tail43172  16.643  14.528  24.209  0.3795  0.1346 -0.1836
 3676G2HFO Tail43173  16.819  14.359  24.105  0.3791 -0.3103 -0.0448
 3676G2HFO Tail43174  17.031  14.468  24.004 -0.0878 -0.1085 -0.0464
 3676G2HFO Tail43175  17.244  14.593  23.938  0.0083 -0.1276  0.0899
 3676G2HFO Tail43176  17.469  14.655  23.897  0.2122  0.0308 -0.1892
 3677G2HFO Head43177  18.122  14.992  24.078  0.1536 -0.2367  0.0560
 3677G2HFO Head43178  17.986  15.233  23.940  0.1552  0.2638 -0.0078
 3677G2HFO Head43179  18.038  14.680  23.647  0.1236  0.1219 -0.2837
 3677G2HFO Head43180  17.905  14.939  23.690 -0.1892 -0.1956  0.0246
 3677G2HFO Head43181  18.020  15.249  23.604 -0.4724 -0.0795 -0.4042
 3677G2HFO Head43182  18.093  14.904  23.146  0.2223 -0.2599 -0.0912
 3677G2HFO Head43183  17.812  15.021  23.116 -0.0952 -0.3154  0.1836
 3677G2HFO Head43184  17.324  15.058  23.752  0.0461  0.4989  0.0696
 3677G2HFO Head43185  17.502  15.014  23.492 -0.0451 -0.0347  0.2273
 3677G2HFO Head43186  17.689  15.257  23.323  0.1185  0.0543 -0.2040
 3677G2HFO link43187  17.879  15.389  23.469 -0.0199 -0.0579  0.4982
 3677G2HFO link43188  17.928  15.661  23.442 -0.0183 -0.1095  0.2679
 3677G2HFO Tail43189  17.674  15.854  23.357  0.2226  0.1720 -0.2196
 3677G2HFO Tail43190  17.711  15.886  23.016  0.3355 -0.0872  0.4253
 3677G2HFO Tail43191  17.664  16.142  22.829 -0.1678  0.2087 -0.1494
 3677G2HFO Tail43192  17.364  16.432  22.710 -0.0063  0.0238  0.0742
 3677G2HFO Tail43193  17.411  15.632  23.354  0.3265 -0.0441  0.2756
 3677G2HFO Tail43194  17.169  15.712  23.293  0.2148 -0.1847  0.2217
 3677G2HFO Tail43195  17.027  15.852  23.472 -0.0656  0.4241  0.0221
 3677G2HFO Tail43196  16.907  15.958  23.662  0.0720 -0.0062 -0.1945
 3677G2HFO Tail43197  16.785  15.998  23.865 -0.1245  0.1143  0.0383
 3678G2HFO Head43198  15.985  16.804  19.392 -0.2239  0.0528  0.0384
 3678G2HFO Head43199  15.961  16.807  19.690 -0.2548  0.2524  0.1044
 3678G2HFO Head43200  16.540  16.997  19.564 -0.0569  0.2205  0.2758
 3678G2HFO Head43201  16.375  16.752  19.587 -0.1699 -0.0939 -0.4294
 3678G2HFO Head43202  16.211  16.681  19.898  0.0133  0.3246 -0.0570
 3678G2HFO Head43203  15.700  15.859  19.769  0.3013  0.1451  0.0674
 3678G2HFO Head43204  15.952  16.028  19.829  0.0424 -0.3483  0.1636
 3678G2HFO Head43205  15.576  16.569  19.529  0.4424  0.0533 -0.2940
 3678G2HFO Head43206  15.837  16.399  19.602  0.0483  0.1866  0.1066
 3678G2HFO Head43207  15.957  16.358  19.922 -0.0226  0.3407 -0.1565
 3678G2HFO link43208  16.197  16.463  19.992  0.2968  0.6041 -0.2234
 3678G2HFO link43209  16.398  16.334  20.150 -0.1266 -0.1401 -0.3428
 3678G2HFO Tail43210  16.649  16.151  20.029  0.4291  0.0449 -0.1372
 3678G2HFO Tail43211  16.922  16.198  20.239 -0.0744 -0.0252  0.3620
 3678G2HFO Tail43212  16.997  16.373  20.488  0.0872  0.2502 -0.1014
 3678G2HFO Tail43213  17.070  16.788  20.575  0.0932 -0.0291 -0.0246
 3678G2HFO Tail43214  16.526  15.843  20.094  0.1156  0.0887  0.0780
 3678G2HFO Tail43215  16.669  15.624  20.065 -0.0271 -0.3779  0.0927
 3678G2HFO Tail43216  16.599  15.461  19.872  0.0584  0.2736 -0.0694
 3678G2HFO Tail43217  16.532  15.262  19.721  0.2122 -0.1253  0.0416
 3678G2HFO Tail43218  16.442  15.060  19.646 -0.2778  0.1416 -0.0640
 3679G2HFO Head43219  18.953  14.958  17.493 -0.1064  0.1212 -0.0580
 3679G2HFO Head43220  19.042  15.287  17.456  0.3293  0.4343 -0.1863
 3679G2HFO Head43221  18.643  15.229  17.762  0.2040  0.0382 -0.2095
 3679G2HFO Head43222  18.921  15.350  17.911  0.2227 -0.0950  0.3654
 3679G2HFO Head43223  19.183  15.469  17.703 -0.2648 -0.2428  0.0355
 3679G2HFO Head43224  19.394  14.782  17.467 -0.2584  0.2355 -0.2588
 3679G2HFO Head43225  19.400  15.090  17.390 -0.3767 -0.2619 -0.0834
 3679G2HFO Head43226  19.309  15.506  17.116  0.0065 -0.0806  0.3948
 3679G2HFO Head43227  19.535  15.490  17.251  0.1811 -0.0061  0.3623
 3679G2HFO Head43228  19.566  15.328  17.566 -0.0341 -0.2810 -0.0892
 3679G2HFO link43229  19.436  15.436  17.773 -0.4267 -0.3279  0.0383
 3679G2HFO link43230  19.554  15.464  18.021 -0.2752 -0.3713 -0.0927
 3679G2HFO Tail43231  19.606  15.757  18.175 -0.4586 -0.0701  0.1124
 3679G2HFO Tail43232  19.878  15.644  18.360 -0.1513  0.2290  0.2774
 3679G2HFO Tail43233  19.960  15.637  18.647  0.3312 -0.1844  0.2536
 3679G2HFO Tail43234  20.069  15.871  19.007  0.3812 -0.0867 -0.0513
 3679G2HFO Tail43235  19.354  15.761  18.422  0.0194  0.0327  0.0035
 3679G2HFO Tail43236  19.208  15.548  18.469 -0.0724 -0.3843 -0.3016
 3679G2HFO Tail43237  18.963  15.551  18.379  0.0080 -0.1991  0.2963
 3679G2HFO Tail43238  18.725  15.500  18.286  0.1138  0.0746 -0.1680
 3679G2HFO Tail43239  18.497  15.465  18.259 -0.2087 -0.1380 -0.2981
 3680G2HFO Head43240  13.287  16.128  23.414 -0.0167  0.3318  0.0631
 3680G2HFO Head43241  13.522  15.948  23.406  0.2201 -0.1443 -0.1064
 3680G2HFO Head43242  13.751  15.514  22.903 -0.2595  0.2977  0.2228
 3680G2HFO Head43243  13.591  15.763  23.027 -0.6322 -0.0479  0.2754
 3680G2HFO Head43244  13.767  16.003  23.167  0.2263  0.5335 -0.1405
 3680G2HFO Head43245  14.045  15.316  23.728 -0.4680  0.1963 -0.1192
 3680G2HFO Head43246  14.185  15.570  23.536 -0.1823  0.0420 -0.0361
 3680G2HFO Head43247  13.517  15.375  23.353 -0.1345 -0.4690  0.2615
 3680G2HFO Head43248  13.744  15.557  23.459 -0.0382  0.1833 -0.2532
 3680G2HFO Head43249  14.006  15.692  23.261 -0.3503 -0.0818  0.0914
 3680G2HFO link43250  14.036  15.948  23.211 -0.3808 -0.2332  0.0767
 3680G2HFO link43251  14.208  16.120  23.341 -0.5101  0.1060  0.0448
 3680G2HFO Tail43252  14.405  16.023  23.584 -0.2076  0.0736 -0.1033
 3680G2HFO Tail43253  14.713  16.078  23.410 -0.1650 -0.2190  0.0141
 3680G2HFO Tail43254  15.037  16.085  23.469 -0.0295  0.1560 -0.1904
 3680G2HFO Tail43255  15.367  15.831  23.370 -0.2979 -0.2326 -0.1782
 3680G2HFO Tail43256  14.358  16.288  23.800 -0.1138 -0.1461 -0.3651
 3680G2HFO Tail43257  14.415  16.525  23.704 -0.1480 -0.0863  0.5328
 3680G2HFO Tail43258  14.283  16.628  23.494 -0.1941  0.2460  0.1254
 3680G2HFO Tail43259  14.158  16.769  23.323  0.1018  0.1541  0.2796
 3680G2HFO Tail43260  14.009  16.903  23.212 -0.0390  0.0048  0.0471
 3681G2HFO Head43261  19.585  19.369  17.841 -0.1190  0.3148 -0.0395
 3681G2HFO Head43262  19.745  19.060  17.856  0.0548 -0.1049 -0.1221
 3681G2HFO Head43263  20.046  19.318  17.624 -0.2891  0.1067  0.0099
 3681G2HFO Head43264  20.171  19.158  17.855 -0.0650  0.2599  0.3092
 3681G2HFO Head43265  19.977  19.042  18.104  0.2038  0.4059  0.3160
 3681G2HFO Head43266  20.338  19.321  18.481 -0.3411 -0.2577  0.2197
 3681G2HFO Head43267  20.478  19.060  18.356 -0.1860  0.4799 -0.2577
 3681G2HFO Head43268  20.479  18.766  17.714 -0.0231 -0.0047 -0.0721
 3681G2HFO Head43269  20.518  18.868  18.001 -0.2618 -0.3059 -0.2330
 3681G2HFO Head43270  20.285  18.789  18.258  0.0200  0.0097 -0.1148
 3681G2HFO link43271  20.024  18.824  18.213  0.3911  0.6681 -0.4438
 3681G2HFO link43272  19.829  18.647  18.312  0.1342 -0.0420 -0.0064
 3681G2HFO Tail43273  19.761  18.328  18.223  0.0616 -0.2516 -0.5394
 3681G2HFO Tail43274  19.976  18.149  18.418 -0.0650  0.2240 -0.0441
 3681G2HFO Tail43275  20.115  17.884  18.404  0.2977  0.3220  0.1184
 3681G2HFO Tail43276  20.044  17.464  18.442  0.2121  0.2857  0.0229
 3681G2HFO Tail43277  19.462  18.265  18.400 -0.1658 -0.2046  0.2366
 3681G2HFO Tail43278  19.273  18.451  18.434  0.0949 -0.1275 -0.1285
 3681G2HFO Tail43279  19.077  18.493  18.268 -0.1006 -0.0857  0.0473
 3681G2HFO Tail43280  18.864  18.526  18.125  0.0507 -0.0732  0.1155
 3681G2HFO Tail43281  18.683  18.613  18.005 -0.4408 -0.3158 -0.0382
 3682G2HFO Head43282  15.737  15.079  21.229  0.2758  0.0336  0.2976
 3682G2HFO Head43283  15.985  14.995  21.061  0.0134  0.1331  0.0124
 3682G2HFO Head43284  15.776  14.592  21.154  0.0712  0.0600  0.1922
 3682G2HFO Head43285  16.018  14.635  21.340  0.1049 -0.3441  0.0709
 3682G2HFO Head43286  16.240  14.896  21.239 -0.2736  0.0381 -0.1706
 3682G2HFO Head43287  16.266  14.098  21.239  0.0009  0.0517 -0.1866
 3682G2HFO Head43288  16.360  14.381  21.310  0.0956 -0.1678 -0.1683
 3682G2HFO Head43289  16.619  14.147  20.767 -0.1738  0.2760  0.0535
 3682G2HFO Head43290  16.675  14.389  21.004  0.0399  0.0856  0.2195
 3682G2HFO Head43291  16.419  14.608  21.061 -0.2590 -0.1880  0.2512
 3682G2HFO link43292  16.468  14.843  21.113  0.0656  0.3677  0.1304
 3682G2HFO link43293  16.684  14.996  21.014 -0.0888  0.1287  0.3767
 3682G2HFO Tail43294  16.867  15.150  21.232  0.0215  0.2327  0.4951
 3682G2HFO Tail43295  16.783  15.468  21.161 -0.0572 -0.3040 -0.1958
 3682G2HFO Tail43296  16.942  15.688  20.993 -0.0996 -0.1842 -0.1530
 3682G2HFO Tail43297  16.932  15.995  20.684 -0.1274  0.0710 -0.1524
 3682G2HFO Tail43298  16.682  15.023  21.508  0.0382  0.1408  0.4337
 3682G2HFO Tail43299  16.794  14.964  21.743 -0.0369  0.1476  0.4553
 3682G2HFO Tail43300  16.917  15.161  21.867  0.3342 -0.0593  0.0246
 3682G2HFO Tail43301  17.057  15.326  21.997 -0.1162  0.1528 -0.2862
 3682G2HFO Tail43302  17.205  15.426  22.147 -0.3184  0.2997 -0.2037
 3683G2HFO Head43303  13.463  17.591  26.816 -0.0851 -0.0205  0.1513
 3683G2HFO Head43304  13.696  17.840  26.875  0.4248  0.2462  0.0932
 3683G2HFO Head43305  13.371  17.904  26.433 -0.0755  0.0918  0.0404
 3683G2HFO Head43306  13.622  18.054  26.513  0.1869 -0.1081 -0.0456
 3683G2HFO Head43307  13.907  17.895  26.623 -0.2757  0.0939  0.1459
 3683G2HFO Head43308  13.937  17.716  27.321 -0.0114 -0.1701 -0.0152
 3683G2HFO Head43309  14.164  17.725  27.105  0.0150 -0.0104 -0.3346
 3683G2HFO Head43310  13.791  18.404  27.019 -0.5200 -0.0500 -0.2643
 3683G2HFO Head43311  13.989  18.169  27.126  0.2061  0.2252 -0.3131
 3683G2HFO Head43312  14.199  18.009  26.912 -0.3349 -0.0301 -0.1829
 3683G2HFO link43313  14.134  18.018  26.664  0.2689  0.4914  0.2826
 3683G2HFO link43314  14.343  18.078  26.471  0.0661 -0.1088  0.1935
 3683G2HFO Tail43315  14.557  18.325  26.534 -0.0464 -0.0872 -0.1651
 3683G2HFO Tail43316  14.448  18.592  26.338 -0.2992  0.1069  0.0661
 3683G2HFO Tail43317  14.302  18.863  26.368  0.2425 -0.1121  0.0960
 3683G2HFO Tail43318  14.298  19.227  26.592 -0.0266  0.1247 -0.4115
 3683G2HFO Tail43319  14.841  18.250  26.365 -0.0679  0.2040 -0.2648
 3683G2HFO Tail43320  15.012  18.080  26.435 -0.1964 -0.0331 -0.0198
 3683G2HFO Tail43321  14.930  17.856  26.560  0.0946 -0.0781  0.0407
 3683G2HFO Tail43322  14.837  17.660  26.706 -0.1186  0.0545  0.1513
 3683G2HFO Tail43323  14.699  17.515  26.826 -0.1716 -0.0336 -0.1430
 3684G2HFO Head43324  22.147  15.483  18.792  0.3955 -0.3037 -0.2220
 3684G2HFO Head43325  22.034  15.197  18.791  0.1562 -0.2197  0.2182
 3684G2HFO Head43326  21.919  14.530  18.604  0.2393 -0.2958 -0.0058
 3684G2HFO Head43327  21.883  14.788  18.744  0.0054 -0.1877  0.2575
 3684G2HFO Head43328  21.787  15.084  18.573  0.3825 -0.0869 -0.1387
 3684G2HFO Head43329  21.485  14.411  18.373 -0.1199 -0.0180  0.1049
 3684G2HFO Head43330  21.465  14.639  18.607 -0.0548 -0.0135 -0.3376
 3684G2HFO Head43331  21.730  14.776  18.077  0.3041  0.0981 -0.1247
 3684G2HFO Head43332  21.414  14.855  18.198  0.1005 -0.2647  0.0606
 3684G2HFO Head43333  21.379  14.955  18.529 -0.1273  0.0626  0.2323
 3684G2HFO link43334  21.534  15.159  18.587  0.3049  0.6873  0.2321
 3684G2HFO link43335  21.430  15.425  18.640 -0.1443 -0.2505  0.1538
 3684G2HFO Tail43336  21.309  15.524  18.936  0.1489  0.3561  0.2403
 3684G2HFO Tail43337  21.034  15.728  18.853  0.3453  0.0988 -0.1007
 3684G2HFO Tail43338  20.938  16.020  18.910  0.2833 -0.2564  0.5281
 3684G2HFO Tail43339  20.913  16.266  19.260 -0.4485  0.1003  0.2501
 3684G2HFO Tail43340  21.125  15.232  18.993 -0.0649  0.3088 -0.0966
 3684G2HFO Tail43341  21.014  15.094  18.793  0.2601  0.1780 -0.0866
 3684G2HFO Tail43342  21.019  14.832  18.806 -0.0152 -0.0334  0.1536
 3684G2HFO Tail43343  21.009  14.581  18.829  0.2003 -0.0563 -0.1112
 3684G2HFO Tail43344  21.058  14.354  18.871  0.0930 -0.1345 -0.2788
 3685G2HFO Head43345  22.519  16.054  18.009 -0.2318 -0.1770 -0.2317
 3685G2HFO Head43346  22.257  16.265  18.007 -0.3400 -0.1455 -0.2556
 3685G2HFO Head43347  22.175  15.705  18.410 -0.1522  0.2432  0.4631
 3685G2HFO Head43348  22.240  15.994  18.350 -0.2757  0.5067 -0.1152
 3685G2HFO Head43349  21.979  16.186  18.210 -0.1436  0.0677 -0.2723
 3685G2HFO Head43350  21.654  15.597  17.639  0.0843 -0.0715  0.4875
 3685G2HFO Head43351  21.816  15.872  17.614  0.1829  0.8052 -0.0552
 3685G2HFO Head43352  21.245  15.831  17.866 -0.0467  0.2558 -0.2106
 3685G2HFO Head43353  21.436  16.052  17.704  0.0320  0.2348  0.1681
 3685G2HFO Head43354  21.749  16.121  17.844 -0.3772 -0.1663  0.2267
 3685G2HFO link43355  21.780  16.078  18.103  0.7593 -0.1631  0.1955
 3685G2HFO link43356  21.603  15.906  18.246 -0.0913 -0.3427  0.1711
 3685G2HFO Tail43357  21.277  15.979  18.288  0.0542 -0.3835 -0.3963
 3685G2HFO Tail43358  21.297  16.080  18.621  0.2746  0.0206  0.1432
 3685G2HFO Tail43359  21.359  16.344  18.795 -0.2644  0.3469  0.1651
 3685G2HFO Tail43360  21.410  16.450  19.218  0.3817  0.3572 -0.1147
 3685G2HFO Tail43361  21.155  15.647  18.359 -0.3539 -0.2125  0.4036
 3685G2HFO Tail43362  20.916  15.580  18.446 -0.2370 -0.0503  0.0902
 3685G2HFO Tail43363  20.702  15.598  18.286 -0.2815  0.1289 -0.0820
 3685G2HFO Tail43364  20.493  15.563  18.144 -0.1688 -0.2957  0.0068
 3685G2HFO Tail43365  20.278  15.581  18.052 -0.1330  0.0419 -0.1210
 3686G2HFO Head43366  17.971  16.763  24.699  0.2323  0.2045  0.0751
 3686G2HFO Head43367  18.129  16.973  24.559 -0.1452 -0.2331 -0.1554
 3686G2HFO Head43368  18.709  17.125  24.926 -0.1980  0.0313 -0.1567
 3686G2HFO Head43369  18.410  17.039  24.876  0.1261  0.0474  0.3705
 3686G2HFO Head43370  18.155  17.263  24.756 -0.0522  0.2598 -0.3371
 3686G2HFO Head43371  18.399  17.142  25.498  0.0661  0.0609 -0.2385
 3686G2HFO Head43372  18.361  17.212  25.247  0.0952 -0.1729 -0.1157
 3686G2HFO Head43373  18.595  17.586  25.195 -0.1214 -0.1954 -0.1087
 3686G2HFO Head43374  18.341  17.598  25.054  0.2829  0.2814 -0.1435
 3686G2HFO Head43375  18.072  17.379  25.144 -0.2629 -0.0205  0.1496
 3686G2HFO link43376  17.964  17.289  24.929  0.2384  0.1720 -0.0771
 3686G2HFO link43377  17.692  17.212  24.908 -0.2051 -0.1472 -0.1527
 3686G2HFO Tail43378  17.485  17.292  24.662 -0.2313 -0.1311 -0.2137
 3686G2HFO Tail43379  17.206  17.112  24.754 -0.2011  0.0867 -0.0240
 3686G2HFO Tail43380  17.043  17.045  25.021 -0.2061 -0.1040  0.0321
 3686G2HFO Tail43381  16.995  16.720  25.322  0.2880  0.2521  0.1400
 3686G2HFO Tail43382  17.385  17.588  24.803  0.0820  0.2427  0.1756
 3686G2HFO Tail43383  17.261  17.575  25.038 -0.0274 -0.0319  0.2594
 3686G2HFO Tail43384  17.025  17.484  25.049 -0.0912  0.2495 -0.1546
 3686G2HFO Tail43385  16.801  17.398  25.108 -0.0920  0.2083 -0.1692
 3686G2HFO Tail43386  16.610  17.264  25.130  0.2370 -0.1200  0.3243
 3687G2HFO Head43387  16.617  14.927  19.306  0.1046  0.1707  0.0354
 3687G2HFO Head43388  16.782  15.115  19.220  0.0681 -0.3698  0.3094
 3687G2HFO Head43389  16.370  15.280  19.010 -0.1461 -0.3801 -0.0396
 3687G2HFO Head43390  16.472  15.442  19.291  0.1844  0.1146 -0.0625
 3687G2HFO Head43391  16.798  15.426  19.380  0.1255  0.3699 -0.1649
 3687G2HFO Head43392  16.441  16.001  19.076 -0.0191 -0.4168  0.0721
 3687G2HFO Head43393  16.495  15.745  19.026 -0.1172 -0.0774 -0.2454
 3687G2HFO Head43394  16.886  15.921  18.501  0.0839  0.0789  0.0234
 3687G2HFO Head43395  16.888  15.923  18.850 -0.1633  0.1316  0.0266
 3687G2HFO Head43396  16.830  15.633  19.046 -0.2449 -0.3661 -0.2740
 3687G2HFO link43397  16.953  15.615  19.286 -0.3896 -0.2062  0.2250
 3687G2HFO link43398  17.213  15.692  19.332  0.1997 -0.0062 -0.4763
 3687G2HFO Tail43399  17.294  15.997  19.400  0.0668 -0.1738  0.1454
 3687G2HFO Tail43400  17.159  16.013  19.705  0.5143 -0.1109 -0.0654
 3687G2HFO Tail43401  17.251  15.882  19.970 -0.2998 -0.3011 -0.2474
 3687G2HFO Tail43402  17.114  15.659  20.308 -0.1762 -0.0437  0.0770
 3687G2HFO Tail43403  17.038  16.178  19.229 -0.2739  0.3158  0.0885
 3687G2HFO Tail43404  16.826  16.256  19.361  0.2044 -0.3037  0.3338
 3687G2HFO Tail43405  16.855  16.395  19.576 -0.0281 -0.0801 -0.1760
 3687G2HFO Tail43406  16.835  16.535  19.792  0.0922 -0.3036  0.0131
 3687G2HFO Tail43407  16.768  16.622  20.008 -0.1631  0.2682 -0.0144
 3688G2HFO Head43408  17.305  16.321  27.342  0.0904 -0.1499 -0.2849
 3688G2HFO Head43409  17.009  16.372  27.182  0.0202  0.1177 -0.2273
 3688G2HFO Head43410  17.197  16.558  26.863 -0.0587  0.1661  0.2286
 3688G2HFO Head43411  17.048  16.770  26.996 -0.4347  0.3217 -0.5934
 3688G2HFO Head43412  16.817  16.662  27.226  0.0787 -0.4688  0.0473
 3688G2HFO Head43413  16.933  16.385  27.677 -0.1805  0.1329 -0.1602
 3688G2HFO Head43414  16.675  16.260  27.471 -0.0084  0.3449 -0.0225
 3688G2HFO Head43415  16.104  16.533  27.739  0.4458 -0.0998 -0.1725
 3688G2HFO Head43416  16.385  16.601  27.651  0.0735 -0.1306 -0.3210
 3688G2HFO Head43417  16.471  16.501  27.331 -0.1215 -0.4598 -0.0749
 3688G2HFO link43418  16.565  16.671  27.164 -0.0450  0.0692  0.4351
 3688G2HFO link43419  16.430  16.780  26.933 -0.0557 -0.4416 -0.3666
 3688G2HFO Tail43420  16.566  16.813  26.625 -0.1960 -0.1997 -0.0095
 3688G2HFO Tail43421  16.465  17.156  26.555 -0.1175  0.0023  0.1757
 3688G2HFO Tail43422  16.379  17.322  26.302 -0.4105  0.4271  0.0494
 3688G2HFO Tail43423  16.549  17.526  25.946 -0.3920 -0.1272  0.0631
 3688G2HFO Tail43424  16.365  16.609  26.446 -0.2575 -0.0542  0.2315
 3688G2HFO Tail43425  16.415  16.357  26.423  0.2208  0.1171  0.2423
 3688G2HFO Tail43426  16.613  16.259  26.281 -0.1448 -0.0790  0.0210
 3688G2HFO Tail43427  16.793  16.154  26.129  0.0105 -0.1061  0.0625
 3688G2HFO Tail43428  16.918  16.043  25.962 -0.0197  0.1114 -0.3261
 3689G2HFO Head43429  19.933  17.003  21.440  0.0793 -0.1045  0.1144
 3689G2HFO Head43430  19.872  16.748  21.278 -0.2341 -0.2468  0.0067
 3689G2HFO Head43431  19.958  16.601  21.934 -0.3623  0.0698  0.0626
 3689G2HFO Head43432  20.116  16.609  21.654 -0.0093  0.0479  0.5287
 3689G2HFO Head43433  19.966  16.437  21.395  0.0665 -0.0259 -0.2334
 3689G2HFO Head43434  20.196  15.787  21.794 -0.1828  0.4298  0.0580
 3689G2HFO Head43435  20.277  15.830  21.491 -0.3994  0.2101 -0.1163
 3689G2HFO Head43436  20.417  16.322  21.931  0.0885  0.1971  0.1956
 3689G2HFO Head43437  20.225  16.186  21.729  0.0139 -0.0529 -0.0147
 3689G2HFO Head43438  20.284  16.150  21.382  0.1984 -0.4535 -0.3164
 3689G2HFO link43439  20.121  16.278  21.229  0.1502  0.1197 -0.1169
 3689G2HFO link43440  20.104  16.272  20.938 -0.1822  0.1252 -0.3253
 3689G2HFO Tail43441  20.338  16.202  20.734 -0.5198  0.6486  0.4627
 3689G2HFO Tail43442  20.310  16.479  20.532 -0.1496 -0.0242  0.2419
 3689G2HFO Tail43443  20.078  16.645  20.372 -0.0218 -0.0597 -0.2503
 3689G2HFO Tail43444  19.909  17.047  20.283  0.1528 -0.1819  0.2548
 3689G2HFO Tail43445  20.607  16.279  20.945 -0.3193  0.0127  0.0246
 3689G2HFO Tail43446  20.876  16.254  20.894 -0.3687 -0.4122  0.0996
 3689G2HFO Tail43447  20.969  16.011  20.870  0.0153  0.0779 -0.2348
 3689G2HFO Tail43448  21.015  15.761  20.844  0.5629  0.2188 -0.0918
 3689G2HFO Tail43449  21.092  15.553  20.772  0.0655 -0.0888  0.1084
 3690G2HFO Head43450  19.701  15.026  22.434  0.0121  0.0096  0.1452
 3690G2HFO Head43451  19.657  15.303  22.333  0.0530 -0.3833  0.1679
 3690G2HFO Head43452  19.229  15.113  22.473  0.0632 -0.3779 -0.0922
 3690G2HFO Head43453  19.251  15.342  22.194 -0.1133 -0.0929  0.1685
 3690G2HFO Head43454  19.522  15.396  22.006 -0.0998 -0.0032  0.2924
 3690G2HFO Head43455  19.861  15.706  22.470  0.3036  0.1022 -0.0037
 3690G2HFO Head43456  19.989  15.658  22.192  0.3239  0.1870  0.7105
 3690G2HFO Head43457  19.737  16.144  22.285  0.0327 -0.3257 -0.2687
 3690G2HFO Head43458  19.875  16.053  22.018  0.4578  0.2079  0.2635
 3690G2HFO Head43459  19.795  15.723  21.904 -0.0816  0.2981  0.3228
 3690G2HFO link43460  19.543  15.634  21.887  0.4223  0.0277 -0.1380
 3690G2HFO link43461  19.354  15.751  21.693  0.4337  0.1142  0.2274
 3690G2HFO Tail43462  19.225  16.053  21.682  0.1367  0.0593 -0.1366
 3690G2HFO Tail43463  19.365  16.171  21.386  0.0760  0.0490 -0.3007
 3690G2HFO Tail43464  19.539  16.423  21.307 -0.2545  0.0347  0.1013
 3690G2HFO Tail43465  19.470  16.803  21.109 -0.0525 -0.0885  0.2588
 3690G2HFO Tail43466  19.455  16.206  21.894  0.1923 -0.1869  0.2240
 3690G2HFO Tail43467  19.631  16.373  21.780  0.2518 -0.1019 -0.0023
 3690G2HFO Tail43468  19.556  16.600  21.677  0.1475  0.2777 -0.0279
 3690G2HFO Tail43469  19.448  16.819  21.616  0.0852 -0.0512 -0.0176
 3690G2HFO Tail43470  19.308  16.987  21.550 -0.1619  0.0967  0.4083
 3691G2HFO Head43471  14.965  15.027  23.393  0.3356  0.5432  0.0530
 3691G2HFO Head43472  15.063  14.835  23.587  0.0084 -0.3605  0.3071
 3691G2HFO Head43473  15.229  14.531  24.117  0.1426  0.1065  0.2421
 3691G2HFO Head43474  15.317  14.500  23.834 -0.0610  0.1433 -0.0817
 3691G2HFO Head43475  15.402  14.800  23.660 -0.4600  0.0556 -0.3069
 3691G2HFO Head43476  14.933  14.951  24.340 -0.0131 -0.2434 -0.3183
 3691G2HFO Head43477  15.088  14.927  24.051 -0.0911 -0.1824 -0.1134
 3691G2HFO Head43478  15.325  15.262  24.512  0.1363  0.1850 -0.2271
 3691G2HFO Head43479  15.432  15.013  24.302 -0.0761 -0.1399 -0.1974
 3691G2HFO Head43480  15.388  15.094  23.962  0.0324  0.0214  0.1741
 3691G2HFO link43481  15.543  15.001  23.768  0.0302 -0.4534 -0.4769
 3691G2HFO link43482  15.799  15.105  23.707  0.0519  0.2690  0.1150
 3691G2HFO Tail43483  15.860  15.407  23.607  0.2386  0.1362  0.3026
 3691G2HFO Tail43484  16.039  15.515  23.878 -0.2089 -0.3397  0.2233
 3691G2HFO Tail43485  16.285  15.417  24.050  0.3233  0.2150  0.2931
 3691G2HFO Tail43486  16.676  15.556  24.160  0.0403  0.1531 -0.1292
 3691G2HFO Tail43487  16.118  15.323  23.384 -0.2586  0.1356  0.0462
 3691G2HFO Tail43488  16.058  15.137  23.218 -0.0867  0.1066  0.0133
 3691G2HFO Tail43489  15.813  15.060  23.215  0.0543 -0.1556 -0.1623
 3691G2HFO Tail43490  15.565  15.002  23.186 -0.1615  0.1645  0.1624
 3691G2HFO Tail43491  15.336  15.010  23.131  0.4574  0.0171 -0.0476
 3692G2HFO Head43492  17.473  14.927  25.713 -0.2046 -0.2287 -0.0312
 3692G2HFO Head43493  17.293  15.117  25.852  0.1182  0.0829 -0.3031
 3692G2HFO Head43494  17.626  15.327  25.534 -0.1605  0.1473 -0.4476
 3692G2HFO Head43495  17.334  15.343  25.435 -0.1183 -0.1279 -0.1569
 3692G2HFO Head43496  17.079  15.307  25.663 -0.0566  0.2128 -0.2622
 3692G2HFO Head43497  17.027  14.543  25.949 -0.0751 -0.1653  0.1109
 3692G2HFO Head43498  17.054  14.760  25.765 -0.2867  0.2444 -0.0452
 3692G2HFO Head43499  16.903  14.479  25.401 -0.0822  0.0294  0.5709
 3692G2HFO Head43500  16.704  14.727  25.481 -0.0313 -0.3013 -0.0189
 3692G2HFO Head43501  16.806  14.989  25.681  0.1608 -0.5732 -0.4101
 3692G2HFO link43502  16.842  15.248  25.588  0.2959 -0.0667  0.2638
 3692G2HFO link43503  16.736  15.349  25.341  0.1640  0.3986  0.2976
 3692G2HFO Tail43504  16.801  15.658  25.226  0.5785  0.5404 -0.0607
 3692G2HFO Tail43505  16.479  15.814  25.293 -0.0007  0.0848  0.0116
 3692G2HFO Tail43506  16.192  15.783  25.155 -0.1059 -0.0647 -0.0272
 3692G2HFO Tail43507  15.806  15.600  25.216  0.2572 -0.5439  0.1529
 3692G2HFO Tail43508  17.015  15.786  25.478  0.1171  0.3862 -0.2736
 3692G2HFO Tail43509  17.236  15.898  25.393 -0.0931  0.0227  0.0546
 3692G2HFO Tail43510  17.405  15.760  25.243 -0.3389 -0.1415 -0.0137
 3692G2HFO Tail43511  17.560  15.596  25.138 -0.2712  0.2528 -0.1645
 3692G2HFO Tail43512  17.735  15.449  25.080 -0.0762 -0.0288 -0.1763
 3693G2HFO Head43513  14.300  18.127  27.906 -0.0235 -0.1131  0.0558
 3693G2HFO Head43514  14.511  18.286  27.760 -0.3735 -0.4099  0.1804
 3693G2HFO Head43515  14.342  17.672  27.635  0.0052  0.2530 -0.0696
 3693G2HFO Head43516  14.339  17.947  27.519 -0.0778 -0.3068  0.3666
 3693G2HFO Head43517  14.642  18.143  27.464  0.2447  0.2633 -0.3273
 3693G2HFO Head43518  15.011  18.201  28.234  0.0883 -0.2168 -0.0371
 3693G2HFO Head43519  14.831  18.171  28.032  0.3048 -0.3244  0.2024
 3693G2HFO Head43520  14.730  17.713  28.222 -0.2735  0.2237  0.1615
 3693G2HFO Head43521  14.693  17.785  27.917 -0.0855  0.2058 -0.2228
 3693G2HFO Head43522  14.920  17.962  27.749  0.1631 -0.3521  0.1303
 3693G2HFO link43523  14.868  18.034  27.481 -0.3477 -0.0887  0.1970
 3693G2HFO link43524  15.067  18.068  27.285  0.1464 -0.0145 -0.1162
 3693G2HFO Tail43525  15.043  17.845  27.039  0.1208 -0.0983  0.1948
 3693G2HFO Tail43526  15.321  17.885  26.832  0.0326  0.0696 -0.0517
 3693G2HFO Tail43527  15.411  17.805  26.549  0.4983 -0.3558  0.1014
 3693G2HFO Tail43528  15.281  17.921  26.161 -0.3980 -0.1022  0.1036
 3693G2HFO Tail43529  15.152  17.567  27.192 -0.0033  0.0377 -0.2212
 3693G2HFO Tail43530  15.359  17.584  27.355 -0.2382 -0.2044  0.1471
 3693G2HFO Tail43531  15.319  17.650  27.604 -0.1348  0.2143  0.2647
 3693G2HFO Tail43532  15.287  17.744  27.835  0.1368 -0.0233  0.3332
 3693G2HFO Tail43533  15.193  17.824  28.036 -0.0205 -0.0633 -0.2747
 3694G2HFO Head43534  13.809  15.718  25.569  0.1477  0.5043 -0.1988
 3694G2HFO Head43535  14.046  15.620  25.730 -0.1404  0.0626 -0.2319
 3694G2HFO Head43536  13.937  15.103  25.857 -0.1111 -0.0248 -0.1280
 3694G2HFO Head43537  14.265  15.216  25.794 -0.0038  0.1358 -0.0599
 3694G2HFO Head43538  14.328  15.495  25.575 -0.1269 -0.1185 -0.0076
 3694G2HFO Head43539  13.775  14.957  25.368 -0.3203 -0.1581 -0.1527
 3694G2HFO Head43540  13.890  15.245  25.428 -0.3597  0.0706  0.1874
 3694G2HFO Head43541  13.922  15.285  24.779 -0.1163  0.0581  0.0649
 3694G2HFO Head43542  13.993  15.198  25.013 -0.0205  0.2549  0.0048
 3694G2HFO Head43543  14.122  15.444  25.243 -0.2881  0.6223  0.2820
 3694G2HFO link43544  14.345  15.448  25.317  0.3896 -0.2014  0.3203
 3694G2HFO link43545  14.560  15.572  25.158  0.1263  0.0375 -0.2670
 3694G2HFO Tail43546  14.524  15.711  24.876  0.0904 -0.2266  0.4068
 3694G2HFO Tail43547  14.571  16.053  24.990  0.0754  0.0270 -0.0784
 3694G2HFO Tail43548  14.772  16.282  24.894 -0.2759 -0.2951 -0.1308
 3694G2HFO Tail43549  15.165  16.433  24.945 -0.0890  0.1042  0.4134
 3694G2HFO Tail43550  14.828  15.686  24.695 -0.0866 -0.0072 -0.0527
 3694G2HFO Tail43551  14.985  15.490  24.764  0.1535  0.0255 -0.0763
 3694G2HFO Tail43552  14.904  15.283  24.889 -0.0501 -0.0667 -0.1849
 3694G2HFO Tail43553  14.809  15.111  25.042  0.0289  0.0958  0.0446
 3694G2HFO Tail43554  14.780  14.931  25.199  0.0000  0.2107 -0.1664
 3695G2HFO Head43555  13.998  16.065  21.661  0.0489  0.1920  0.0135
 3695G2HFO Head43556  13.984  16.239  21.935 -0.2128 -0.2011 -0.0989
 3695G2HFO Head43557  13.609  16.013  22.063 -0.1391  0.0429  0.1124
 3695G2HFO Head43558  13.869  15.957  22.275  0.3164  0.0741 -0.2053
 3695G2HFO Head43559  14.156  16.126  22.223 -0.1427  0.0961  0.2705
 3695G2HFO Head43560  14.770  15.538  22.670  0.0592 -0.4907 -0.3906
 3695G2HFO Head43561  14.718  15.834  22.553  0.4015  0.3155  0.2855
 3695G2HFO Head43562  14.031  15.544  22.418 -0.2698 -0.0409 -0.0384
 3695G2HFO Head43563  14.323  15.605  22.466  0.3564 -0.2158 -0.2014
 3695G2HFO Head43564  14.419  15.942  22.405  0.0125 -0.3513 -0.0742
 3695G2HFO link43565  14.391  16.030  22.162  0.3006  0.0864 -0.1257
 3695G2HFO link43566  14.603  16.176  22.052 -0.4057  0.2486  0.0128
 3695G2HFO Tail43567  14.828  16.007  21.889 -0.3478 -0.2534  0.1407
 3695G2HFO Tail43568  14.970  16.265  21.694  0.1583 -0.0667 -0.1424
 3695G2HFO Tail43569  15.111  16.542  21.770 -0.2010  0.2720 -0.1281
 3695G2HFO Tail43570  15.411  16.830  21.614  0.1151  0.2710 -0.0998
 3695G2HFO Tail43571  15.059  15.966  22.129  0.1511 -0.0415  0.0983
 3695G2HFO Tail43572  15.200  16.170  22.237  0.1676  0.1161 -0.1497
 3695G2HFO Tail43573  15.124  16.408  22.193  0.1806  0.0360 -0.0727
 3695G2HFO Tail43574  15.026  16.639  22.188 -0.0088 -0.1521 -0.2711
 3695G2HFO Tail43575  14.916  16.833  22.239  0.2271  0.0303  0.1220
 3696G2HFO Head43576  14.418  15.289  24.702  0.1609  0.0122  0.1621
 3696G2HFO Head43577  14.663  15.258  24.518 -0.0105 -0.1032  0.3040
 3696G2HFO Head43578  14.429  14.836  24.266 -0.4670  0.2360  0.0668
 3696G2HFO Head43579  14.398  15.112  24.151  0.0297  0.3422 -0.3660
 3696G2HFO Head43580  14.679  15.315  24.165  0.2592  0.0748  0.4099
 3696G2HFO Head43581  14.483  15.148  23.370  0.1674 -0.0675  0.2413
 3696G2HFO Head43582  14.531  15.277  23.642  0.3791  0.0827 -0.0405
 3696G2HFO Head43583  14.777  14.642  23.880  0.1691  0.1113  0.0125
 3696G2HFO Head43584  14.630  14.899  23.778  0.0946 -0.0956  0.1327
 3696G2HFO Head43585  14.827  15.198  23.803 -0.0101 -0.0410 -0.2680
 3696G2HFO link43586  14.892  15.290  24.037 -0.1266  0.1011  0.1830
 3696G2HFO link43587  15.125  15.443  24.095 -0.3186 -0.0097 -0.1783
 3696G2HFO Tail43588  15.112  15.646  24.346  0.5480 -0.0411  0.3928
 3696G2HFO Tail43589  15.404  15.836  24.283  0.1173  0.0376 -0.2597
 3696G2HFO Tail43590  15.605  15.944  24.499  0.0705  0.4424 -0.2404
 3696G2HFO Tail43591  15.615  16.087  24.922 -0.5345  0.1588 -0.1257
 3696G2HFO Tail43592  14.875  15.858  24.203 -0.0920  0.1523  0.2912
 3696G2HFO Tail43593  14.705  15.817  23.991  0.2034  0.0649 -0.1732
 3696G2HFO Tail43594  14.778  15.716  23.768 -0.2141 -0.0117 -0.2234
 3696G2HFO Tail43595  14.887  15.594  23.573  0.1738 -0.0928 -0.2423
 3696G2HFO Tail43596  15.035  15.476  23.447 -0.0456  0.1161  0.3063
 3697G2HFO Head43597  18.231  18.599  22.881 -0.0527  0.2355 -0.1332
 3697G2HFO Head43598  18.253  18.460  23.182 -0.1679 -0.0360  0.0713
 3697G2HFO Head43599  18.152  18.953  23.720  0.0910  0.0452 -0.3008
 3697G2HFO Head43600  18.197  18.729  23.487  0.3717 -0.1577  0.4767
 3697G2HFO Head43601  17.981  18.488  23.391 -0.4308 -0.2698 -0.7010
 3697G2HFO Head43602  17.633  19.303  23.323 -0.2431  0.0595  0.0464
 3697G2HFO Head43603  17.765  19.043  23.387 -0.0380  0.1180  0.0415
 3697G2HFO Head43604  18.060  19.267  23.030  0.0763  0.0615 -0.1356
 3697G2HFO Head43605  18.006  18.962  23.015  0.0711 -0.2338  0.3229
 3697G2HFO Head43606  17.730  18.787  23.169  0.2150 -0.0957  0.0565
 3697G2HFO link43607  17.753  18.547  23.267 -0.3204  0.4291  0.1761
 3697G2HFO link43608  17.559  18.324  23.257  0.1079  0.0716  0.1072
 3697G2HFO Tail43609  17.523  18.069  23.031 -0.0945 -0.3053  0.0340
 3697G2HFO Tail43610  17.185  17.967  23.096 -0.0547  0.1144  0.0197
 3697G2HFO Tail43611  17.038  17.694  23.199  0.1090 -0.2545  0.4126
 3697G2HFO Tail43612  16.643  17.526  23.243  0.3403 -0.0137  0.2379
 3697G2HFO Tail43613  17.475  18.216  22.713  0.0058 -0.2257 -0.1967
 3697G2HFO Tail43614  17.458  18.071  22.485  0.3608  0.0648 -0.0568
 3697G2HFO Tail43615  17.264  17.914  22.448 -0.0891 -0.0970  0.2354
 3697G2HFO Tail43616  17.065  17.770  22.389  0.0255 -0.2837 -0.0212
 3697G2HFO Tail43617  16.925  17.600  22.294  0.1936  0.0310 -0.3108
 3698G2HFO Head43618  13.856  16.855  25.703 -0.1140  0.4089  0.1067
 3698G2HFO Head43619  13.815  16.943  26.007 -0.1004  0.1581 -0.0708
 3698G2HFO Head43620  13.580  17.391  26.332  0.1946 -0.0154 -0.0062
 3698G2HFO Head43621  13.849  17.196  26.388 -0.0166 -0.3496 -0.1747
 3698G2HFO Head43622  14.054  17.180  26.114  0.0241 -0.0258 -0.3665
 3698G2HFO Head43623  14.271  16.395  25.999 -0.1247 -0.2675  0.1603
 3698G2HFO Head43624  14.214  16.625  25.946  0.6041  0.0857 -0.2652
 3698G2HFO Head43625  13.805  16.778  26.485 -0.1320  0.1284 -0.3598
 3698G2HFO Head43626  14.142  16.681  26.392  0.1043  0.1027 -0.2581
 3698G2HFO Head43627  14.339  16.872  26.161  0.0815  0.3180  0.2905
 3698G2HFO link43628  14.319  17.127  26.120  0.1081 -0.0377  0.1589
 3698G2HFO link43629  14.528  17.311  26.125 -0.1604 -0.2923  0.0607
 3698G2HFO Tail43630  14.526  17.558  26.327  0.0534 -0.3132  0.1424
 3698G2HFO Tail43631  14.614  17.851  26.145  0.5023  0.1160 -0.1508
 3698G2HFO Tail43632  14.605  17.977  25.831  0.1522 -0.3075  0.3800
 3698G2HFO Tail43633  14.818  17.926  25.454 -0.3470 -0.1435  0.2067
 3698G2HFO Tail43634  14.172  17.644  26.286  0.0077 -0.1160  0.0257
 3698G2HFO Tail43635  14.124  17.803  26.083  0.0092  0.0817 -0.0529
 3698G2HFO Tail43636  13.888  17.883  26.060  0.2812  0.1937  0.2877
 3698G2HFO Tail43637  13.645  17.939  26.043 -0.0305  0.2304  0.2994
 3698G2HFO Tail43638  13.428  18.041  26.034 -0.1397 -0.2907 -0.0075
 3699G2HFO Head43639  17.890  18.847  18.650 -0.0031  0.2882  0.1161
 3699G2HFO Head43640  17.653  18.729  18.503 -0.4537 -0.0127 -0.1201
 3699G2HFO Head43641  17.704  18.670  17.920 -0.1702 -0.3574  0.1707
 3699G2HFO Head43642  17.489  18.523  18.132 -0.0249  0.2493 -0.0235
 3699G2HFO Head43643  17.588  18.389  18.437  0.2000  0.5588  0.3826
 3699G2HFO Head43644  18.116  18.056  17.791  0.1747  0.0811 -0.2517
 3699G2HFO Head43645  18.080  18.325  17.965  0.1312 -0.0822 -0.3748
 3699G2HFO Head43646  18.200  18.767  18.036  0.1225 -0.0801  0.1642
 3699G2HFO Head43647  18.045  18.668  18.285  0.1313  0.1071 -0.1702
 3699G2HFO Head43648  18.007  18.321  18.311  0.2395  0.3252  0.2597
 3699G2HFO link43649  17.794  18.216  18.441 -0.0090 -0.0172  0.2048
 3699G2HFO link43650  17.808  17.981  18.598 -0.0818  0.1553  0.0338
 3699G2HFO Tail43651  17.719  17.925  18.911 -0.4630 -0.2206 -0.3190
 3699G2HFO Tail43652  18.057  17.913  19.038  0.0621 -0.5259 -0.0298
 3699G2HFO Tail43653  18.278  17.695  19.108  0.6103  0.4107 -0.1502
 3699G2HFO Tail43654  18.305  17.288  19.266 -0.2335  0.2466 -0.1778
 3699G2HFO Tail43655  17.665  18.246  18.985  0.1265 -0.0248 -0.0973
 3699G2HFO Tail43656  17.791  18.413  18.839 -0.1300  0.3014  0.0845
 3699G2HFO Tail43657  18.039  18.381  18.794  0.0102 -0.0480  0.1805
 3699G2HFO Tail43658  18.278  18.375  18.719 -0.1585 -0.0977  0.0244
 3699G2HFO Tail43659  18.510  18.359  18.685 -0.2834 -0.2395 -0.2331
 3700G2HFO Head43660  16.456  17.967  19.261 -0.0453 -0.0883  0.1397
 3700G2HFO Head43661  16.613  18.198  19.094  0.1571  0.0975 -0.2498
 3700G2HFO Head43662  16.753  18.617  19.277 -0.0391  0.1234  0.0938
 3700G2HFO Head43663  16.980  18.401  19.203  0.1238 -0.0217  0.0224
 3700G2HFO Head43664  16.923  18.165  18.952 -0.4467 -0.0643  0.2612
 3700G2HFO Head43665  16.793  18.324  18.513 -0.4050 -0.1074  0.0438
 3700G2HFO Head43666  16.840  17.993  18.484 -0.4454  0.2176  0.0539
 3700G2HFO Head43667  16.366  17.929  18.601 -0.3588  0.0564  0.2099
 3700G2HFO Head43668  16.598  17.716  18.722 -0.0672 -0.1823  0.0402
 3700G2HFO Head43669  16.955  17.808  18.732 -0.0362 -0.2159 -0.0657
 3700G2HFO link43670  17.049  17.940  18.930 -0.1954 -0.1778  0.2692
 3700G2HFO link43671  17.283  17.858  19.069 -0.1144 -0.0364  0.0431
 3700G2HFO Tail43672  17.486  17.608  18.977 -0.1352 -0.2102 -0.1582
 3700G2HFO Tail43673  17.381  17.332  19.165 -0.3270 -0.1828  0.2130
 3700G2HFO Tail43674  17.485  17.186  19.419  0.2482 -0.0718  0.1595
 3700G2HFO Tail43675  17.491  17.210  19.848 -0.0224 -0.2332  0.1118
 3700G2HFO Tail43676  17.356  17.552  18.652  0.1846 -0.1653  0.1504
 3700G2HFO Tail43677  17.350  17.746  18.471  0.1997 -0.0905  0.2410
 3700G2HFO Tail43678  17.335  17.991  18.573  0.0294 -0.0948 -0.0334
 3700G2HFO Tail43679  17.282  18.213  18.693  0.0674 -0.0571 -0.0446
 3700G2HFO Tail43680  17.259  18.439  18.750  0.1644  0.1123  0.0625
 3701G2HFO Head43681  13.098  20.705  25.681  0.2403  0.0323 -0.1622
 3701G2HFO Head43682  13.174  20.614  25.397 -0.0722  0.4005  0.1060
 3701G2HFO Head43683  12.583  20.158  25.511 -0.1144 -0.1632 -0.1841
 3701G2HFO Head43684  12.799  20.373  25.413 -0.0768 -0.4530  0.2379
 3701G2HFO Head43685  13.094  20.298  25.262 -0.1677 -0.1811 -0.0541
 3701G2HFO Head43686  13.317  19.463  25.512 -0.3306  0.3039 -0.1505
 3701G2HFO Head43687  13.101  19.644  25.649 -0.3960  0.2744  0.1637
 3701G2HFO Head43688  12.877  20.327  25.953 -0.1458  0.0296  0.0620
 3701G2HFO Head43689  12.946  20.052  25.846 -0.6295  0.2507 -0.0946
 3701G2HFO Head43690  13.040  19.962  25.513 -0.3292  0.1842 -0.0527
 3701G2HFO link43691  13.207  20.081  25.341  0.1175 -0.1270 -1.0172
 3701G2HFO link43692  13.477  19.993  25.313  0.0625  0.1384 -0.3923
 3701G2HFO Tail43693  13.638  19.818  25.549 -0.2586 -0.0996 -0.0081
 3701G2HFO Tail43694  13.902  19.689  25.342  0.0253 -0.0022  0.0912
 3701G2HFO Tail43695  14.168  19.552  25.383  0.0457  0.2801 -0.5020
 3701G2HFO Tail43696  14.308  19.181  25.544 -0.0589  0.0938 -0.2008
 3701G2HFO Tail43697  13.800  20.096  25.670  0.2772  0.3369 -0.0862
 3701G2HFO Tail43698  13.852  20.289  25.506 -0.1548 -0.0299 -0.0622
 3701G2HFO Tail43699  13.960  20.247  25.273 -0.0039  0.2030  0.1327
 3701G2HFO Tail43700  14.034  20.219  25.035 -0.3937 -0.2036  0.2261
 3701G2HFO Tail43701  14.141  20.256  24.830 -0.2901  0.0933 -0.2068
 3702G2HFO Head43702  21.319  17.975  21.084  0.1102  0.0156  0.1824
 3702G2HFO Head43703  21.187  17.789  20.964  0.0564 -0.1578 -0.3430
 3702G2HFO Head43704  20.875  17.783  21.727  0.1949  0.2349 -0.0007
 3702G2HFO Head43705  21.041  17.803  21.426  0.1765  0.1526 -0.0193
 3702G2HFO Head43706  20.971  17.582  21.161 -0.0606  0.0606  0.0994
 3702G2HFO Head43707  21.348  17.312  21.907 -0.0870 -0.3527 -0.0459
 3702G2HFO Head43708  21.231  17.449  21.628  0.0558  0.5817  0.0574
 3702G2HFO Head43709  21.001  16.769  21.552  0.0515 -0.0710  0.1421
 3702G2HFO Head43710  21.186  17.015  21.583 -0.0889 -0.0874  0.0850
 3702G2HFO Head43711  21.192  17.253  21.335  0.4261 -0.0854  0.2273
 3702G2HFO link43712  20.972  17.316  21.190 -0.0183 -0.4397 -0.0951
 3702G2HFO link43713  20.810  17.145  21.031  0.3802  0.0079 -0.4385
 3702G2HFO Tail43714  20.729  16.840  21.119  0.2025 -0.0484  0.3008
 3702G2HFO Tail43715  20.528  16.745  20.850 -0.2915 -0.0290  0.0684
 3702G2HFO Tail43716  20.444  16.907  20.579  0.0486  0.0592 -0.1002
 3702G2HFO Tail43717  20.381  16.889  20.138 -0.2046  0.1346 -0.2447
 3702G2HFO Tail43718  21.034  16.678  21.058  0.1261  0.0594 -0.0218
 3702G2HFO Tail43719  21.090  16.655  20.799  0.0236 -0.0775  0.3080
 3702G2HFO Tail43720  20.985  16.827  20.625 -0.0124  0.0316 -0.0173
 3702G2HFO Tail43721  20.890  17.025  20.503 -0.1547 -0.1175  0.2549
 3702G2HFO Tail43722  20.760  17.204  20.435 -0.1329  0.1306 -0.1492
 3703G2HFO Head43723  18.263  19.132  18.867  0.1463 -0.0503 -0.0134
 3703G2HFO Head43724  18.340  18.828  18.834 -0.2290  0.0270  0.7895
 3703G2HFO Head43725  17.965  18.811  19.275  0.0150 -0.1914 -0.2247
 3703G2HFO Head43726  18.279  18.762  19.313  0.0692 -0.0571  0.0085
 3703G2HFO Head43727  18.466  18.628  19.065 -0.2577  0.0219 -0.4555
 3703G2HFO Head43728  18.535  19.091  19.524  0.0968  0.1638  0.0719
 3703G2HFO Head43729  18.734  18.887  19.543 -0.0196  0.0180  0.2501
 3703G2HFO Head43730  18.439  18.234  19.667  0.1886 -0.2704  0.1407
 3703G2HFO Head43731  18.549  18.510  19.589  0.1818 -0.4957 -0.1054
 3703G2HFO Head43732  18.757  18.612  19.321 -0.4378  0.3804  0.1790
 3703G2HFO link43733  18.705  18.567  19.073  0.0970 -0.6009  0.2213
 3703G2HFO link43734  18.880  18.586  18.851 -0.1096  0.4513  0.1572
 3703G2HFO Tail43735  19.207  18.625  18.875  0.0664  0.1792  0.2921
 3703G2HFO Tail43736  19.327  18.288  18.860 -0.3292  0.1872 -0.0929
 3703G2HFO Tail43737  19.196  17.997  18.856  0.1612  0.1932  0.1576
 3703G2HFO Tail43738  18.823  17.780  18.950  0.2973 -0.1382 -0.0520
 3703G2HFO Tail43739  19.194  18.681  19.206  0.0827  0.1099 -0.0957
 3703G2HFO Tail43740  19.362  18.565  19.371  0.1668 -0.2640 -0.1184
 3703G2HFO Tail43741  19.613  18.534  19.328 -0.1350  0.2560  0.1212
 3703G2HFO Tail43742  19.862  18.486  19.335 -0.3307 -0.1494 -0.0265
 3703G2HFO Tail43743  20.085  18.378  19.333  0.2741 -0.4427  0.4911
 3704G2HFO Head43744  15.817  15.147  21.690 -0.0558 -0.2008 -0.1232
 3704G2HFO Head43745  16.128  15.159  21.605  0.1251  0.3623  0.1312
 3704G2HFO Head43746  15.991  14.823  21.977 -0.2294 -0.2771  0.4574
 3704G2HFO Head43747  16.144  15.069  22.041  0.0072 -0.0081  0.6281
 3704G2HFO Head43748  16.388  15.190  21.830  0.2525 -0.3821 -0.0344
 3704G2HFO Head43749  16.548  14.820  22.098  0.0763 -0.0829 -0.1305
 3704G2HFO Head43750  16.648  15.119  22.270  0.3758 -0.1223 -0.0607
 3704G2HFO Head43751  16.245  15.165  22.459 -0.0972 -0.0710 -0.0244
 3704G2HFO Head43752  16.383  15.434  22.367 -0.2418  0.0945 -0.2723
 3704G2HFO Head43753  16.610  15.415  22.109 -0.0468 -0.1121  0.2989
 3704G2HFO link43754  16.522  15.409  21.862  0.1848 -0.0063  0.2323
 3704G2HFO link43755  16.585  15.590  21.651 -0.0605 -0.1873  0.4914
 3704G2HFO Tail43756  16.904  15.651  21.619  0.2820 -0.0071 -0.4694
 3704G2HFO Tail43757  16.877  15.918  21.380 -0.4257  0.1646  0.0229
 3704G2HFO Tail43758  17.081  16.103  21.258  0.4108  0.2655 -0.1165
 3704G2HFO Tail43759  17.360  16.120  20.946 -0.1339 -0.2178  0.1885
 3704G2HFO Tail43760  16.949  15.832  21.901 -0.0687 -0.2327  0.3873
 3704G2HFO Tail43761  17.113  16.037  21.899  0.3778  0.0237  0.3169
 3704G2HFO Tail43762  17.308  16.037  22.078 -0.0391  0.0147  0.1642
 3704G2HFO Tail43763  17.482  15.999  22.267 -0.0461  0.1169  0.0665
 3704G2HFO Tail43764  17.685  16.000  22.390 -0.1021  0.0044 -0.2370
 3705G2HFO Head43765  16.464  17.597  28.615 -0.1309 -0.1985  0.3360
 3705G2HFO Head43766  16.362  17.878  28.610 -0.1185 -0.0692 -0.2723
 3705G2HFO Head43767  16.557  18.106  29.057  0.2306 -0.0299  0.1176
 3705G2HFO Head43768  16.239  18.123  29.000  0.2362  0.0735 -0.1219
 3705G2HFO Head43769  16.067  17.953  28.761  0.2530 -0.3155  0.1502
 3705G2HFO Head43770  15.297  18.381  28.588 -0.0813  0.0728 -0.1571
 3705G2HFO Head43771  15.519  18.390  28.826  0.1948 -0.1979 -0.2271
 3705G2HFO Head43772  15.987  18.792  28.519  0.0983  0.3526  0.1224
 3705G2HFO Head43773  15.801  18.587  28.573  0.1666 -0.0173  0.0075
 3705G2HFO Head43774  15.851  18.285  28.744 -0.3308  0.0510  0.1864
 3705G2HFO link43775  15.879  18.072  28.611 -0.1762 -0.5057  0.4123
 3705G2HFO link43776  15.695  17.954  28.436  0.1549 -0.0400 -0.0668
 3705G2HFO Tail43777  15.780  17.741  28.201 -0.0827  0.0849 -0.2872
 3705G2HFO Tail43778  15.557  17.473  28.272 -0.4041  0.3282 -0.2664
 3705G2HFO Tail43779  15.502  17.194  28.107 -0.1923 -0.0942 -0.1311
 3705G2HFO Tail43780  15.187  16.909  28.001 -0.0406  0.2331  0.2640
 3705G2HFO Tail43781  16.081  17.624  28.323 -0.3535  0.0685 -0.2501
 3705G2HFO Tail43782  16.312  17.660  28.183  0.0101  0.1250  0.1793
 3705G2HFO Tail43783  16.291  17.657  27.931 -0.0439 -0.0569 -0.1291
 3705G2HFO Tail43784  16.253  17.628  27.678 -0.1229  0.2742  0.1138
 3705G2HFO Tail43785  16.210  17.548  27.452  0.0195 -0.0459 -0.5203
 3706G2HFO Head43786  18.317  18.645  20.748  0.0369 -0.1190  0.1046
 3706G2HFO Head43787  18.221  18.387  20.778  0.0655  0.1005  0.0924
 3706G2HFO Head43788  17.885  18.420  21.211 -0.0465 -0.0974 -0.1208
 3706G2HFO Head43789  17.798  18.243  20.942  0.7247  0.4069 -0.2156
 3706G2HFO Head43790  17.930  18.295  20.616 -0.4165  0.1407  0.4452
 3706G2HFO Head43791  17.576  18.641  20.425 -0.1848  0.1450  0.0923
 3706G2HFO Head43792  17.803  18.553  20.196  0.1725  0.0404  0.2343
 3706G2HFO Head43793  18.281  18.662  20.286 -0.2752  0.2327  0.1940
 3706G2HFO Head43794  18.199  18.457  20.146  0.0616 -0.3772  0.1069
 3706G2HFO Head43795  17.938  18.239  20.208 -0.0845 -0.0827 -0.2690
 3706G2HFO link43796  17.923  18.104  20.425  0.0648  0.4516 -0.0323
 3706G2HFO link43797  17.976  17.831  20.464 -0.2244  0.1139 -0.1218
 3706G2HFO Tail43798  18.249  17.707  20.591  0.1664  0.1572 -0.2557
 3706G2HFO Tail43799  18.288  17.435  20.339  0.1880  0.2464  0.0501
 3706G2HFO Tail43800  18.425  17.357  20.066 -0.1178  0.2852  0.1598
 3706G2HFO Tail43801  18.753  17.100  19.924 -0.4180  0.0261 -0.3082
 3706G2HFO Tail43802  18.121  17.514  20.881 -0.2703  0.0421  0.0605
 3706G2HFO Tail43803  17.868  17.459  20.908 -0.2914  0.3463 -0.0772
 3706G2HFO Tail43804  17.719  17.437  20.698 -0.0164 -0.2691 -0.1771
 3706G2HFO Tail43805  17.545  17.456  20.516 -0.0933 -0.0438  0.0670
 3706G2HFO Tail43806  17.351  17.436  20.388  0.2540 -0.1913  0.3989
 3707G2HFO Head43807  22.187  16.587  19.481 -0.1033  0.0050  0.0731
 3707G2HFO Head43808  22.293  16.276  19.578  0.3195  0.2148  0.4412
 3707G2HFO Head43809  22.465  15.721  19.944  0.0078  0.0898 -0.4174
 3707G2HFO Head43810  22.455  15.984  19.898  0.5521 -0.2331  0.1384
 3707G2HFO Head43811  22.130  16.155  19.875 -0.2959 -0.0054  0.1573
 3707G2HFO Head43812  22.453  16.464  20.650 -0.1743  0.3483  0.0971
 3707G2HFO Head43813  22.140  16.445  20.574  0.2624  0.0868 -0.3320
 3707G2HFO Head43814  22.572  16.257  20.276 -0.0330 -0.1945 -0.0322
 3707G2HFO Head43815  22.336  16.098  20.392  0.5119 -0.1104 -0.1225
 3707G2HFO Head43816  22.039  16.250  20.286 -0.0343  0.1174 -0.3750
 3707G2HFO link43817  22.065  16.347  20.051 -0.1142 -0.1465  0.0813
 3707G2HFO link43818  21.928  16.588  19.956 -0.1118  0.0699  0.1569
 3707G2HFO Tail43819  21.803  16.602  19.667 -0.3664 -0.0201  0.0323
 3707G2HFO Tail43820  21.820  16.262  19.570 -0.1616 -0.1557  0.1015
 3707G2HFO Tail43821  21.697  16.097  19.327 -0.0877 -0.0908  0.1607
 3707G2HFO Tail43822  21.317  15.954  19.157 -0.1568  0.1254 -0.0481
 3707G2HFO Tail43823  21.460  16.644  19.713  0.0531  0.0481 -0.1888
 3707G2HFO Tail43824  21.343  16.493  19.903 -0.0305 -0.2455 -0.1342
 3707G2HFO Tail43825  21.444  16.452  20.135 -0.3003 -0.0796  0.0158
 3707G2HFO Tail43826  21.585  16.426  20.343 -0.1938  0.2534 -0.1775
 3707G2HFO Tail43827  21.694  16.455  20.549  0.1051 -0.1143  0.1245
 3708G2HFO Head43828  20.407  13.133  19.761  0.1469  0.0451  0.0367
 3708G2HFO Head43829  20.568  13.363  19.848  0.0097  0.0688 -0.0785
 3708G2HFO Head43830  19.884  13.594  19.861 -0.0764  0.2243 -0.2161
 3708G2HFO Head43831  20.183  13.618  19.821 -0.2029  0.0091  0.2585
 3708G2HFO Head43832  20.429  13.577  20.062 -0.4949 -0.2604 -0.2412
 3708G2HFO Head43833  20.617  13.120  20.398  0.0354  0.3674  0.2145
 3708G2HFO Head43834  20.752  13.396  20.485  0.1261 -0.0307 -0.0678
 3708G2HFO Head43835  21.172  13.699  20.563 -0.0108  0.1422 -0.0138
 3708G2HFO Head43836  20.874  13.859  20.587 -0.0530  0.2954 -0.2472
 3708G2HFO Head43837  20.620  13.715  20.383 -0.2192  0.2048  0.2595
 3708G2HFO link43838  20.565  13.784  20.152 -0.0573 -0.0953  0.2341
 3708G2HFO link43839  20.620  14.038  20.039  0.1454  0.0759  0.2425
 3708G2HFO Tail43840  20.552  14.301  20.199  0.2625  0.1017  0.3181
 3708G2HFO Tail43841  20.214  14.376  20.094  0.2928 -0.0970  0.4860
 3708G2HFO Tail43842  20.077  14.618  19.938  0.2571  0.1388 -0.3190
 3708G2HFO Tail43843  19.886  15.001  20.007  0.0128 -0.0252  0.3934
 3708G2HFO Tail43844  20.472  14.144  20.498  0.0652 -0.3981 -0.1654
 3708G2HFO Tail43845  20.517  14.270  20.731  0.3908 -0.2261  0.1284
 3708G2HFO Tail43846  20.746  14.225  20.855 -0.1505  0.0693  0.4420
 3708G2HFO Tail43847  20.949  14.158  20.997  0.2646 -0.0844  0.0680
 3708G2HFO Tail43848  21.131  14.161  21.151 -0.2635 -0.0317 -0.1105
 3709G2HFO Head43849  19.825  13.645  20.494  0.1603 -0.2156 -0.1786
 3709G2HFO Head43850  19.660  13.777  20.259 -0.0392 -0.0235  0.2851
 3709G2HFO Head43851  19.198  13.899  20.806 -0.3605  0.5553  0.0233
 3709G2HFO Head43852  19.466  13.893  20.654  0.0060 -0.0765  0.3441
 3709G2HFO Head43853  19.479  14.061  20.339 -0.0387  0.0292  0.1523
 3709G2HFO Head43854  19.254  13.505  19.705 -0.1120  0.0582 -0.1454
 3709G2HFO Head43855  19.372  13.628  19.935 -0.1248  0.1720 -0.3884
 3709G2HFO Head43856  18.939  13.524  20.514  0.4571 -0.0226 -0.1926
 3709G2HFO Head43857  19.176  13.557  20.340  0.6037  0.1262 -0.0703
 3709G2HFO Head43858  19.190  13.842  20.136  0.2032  0.3864  0.1253
 3709G2HFO link43859  19.258  14.091  20.205 -0.1188  0.1671 -0.4946
 3709G2HFO link43860  19.109  14.336  20.180  0.1037  0.2198  0.2856
 3709G2HFO Tail43861  18.838  14.378  19.994  0.5796  0.0022 -0.0386
 3709G2HFO Tail43862  18.857  14.721  19.995 -0.6286 -0.3359 -0.1678
 3709G2HFO Tail43863  18.687  14.959  20.124  0.0427  0.0409  0.1791
 3709G2HFO Tail43864  18.583  15.103  20.530 -0.1470  0.2925  0.1219
 3709G2HFO Tail43865  19.019  14.290  19.709 -0.1643  0.3260 -0.4889
 3709G2HFO Tail43866  19.176  14.075  19.728 -0.0647 -0.0059  0.0813
 3709G2HFO Tail43867  19.409  14.118  19.814 -0.0527  0.1348 -0.1364
 3709G2HFO Tail43868  19.624  14.110  19.943 -0.2736  0.0798  0.1276
 3709G2HFO Tail43869  19.848  14.050  20.008  0.1582  0.2338  0.1999
 3710G2HFO Head43870  20.776  14.783  17.753 -0.1681 -0.2967 -0.0140
 3710G2HFO Head43871  20.743  14.649  18.001  0.2129  0.3771  0.0257
 3710G2HFO Head43872  20.968  14.264  17.990 -0.2696 -0.3006  0.2112
 3710G2HFO Head43873  21.097  14.492  18.148 -0.0718  0.6127 -0.2955
 3710G2HFO Head43874  20.904  14.734  18.300  0.2044  0.1776 -0.0734
 3710G2HFO Head43875  20.450  14.010  18.336  0.0901 -0.0361  0.2078
 3710G2HFO Head43876  20.470  14.310  18.303 -0.0189 -0.2411 -0.3232
 3710G2HFO Head43877  20.893  13.897  18.586 -0.0272 -0.5658 -0.2450
 3710G2HFO Head43878  20.881  14.218  18.437 -0.1667  0.1100  0.0917
 3710G2HFO Head43879  20.678  14.477  18.533  0.0016  0.0761  0.5056
 3710G2HFO link43880  20.743  14.720  18.496  0.1867  0.5998 -0.2438
 3710G2HFO link43881  20.585  14.923  18.626  0.0909 -0.1774  0.0549
 3710G2HFO Tail43882  20.615  15.248  18.557  0.4881  0.2336 -0.5055
 3710G2HFO Tail43883  20.668  15.388  18.859  0.2250 -0.2140  0.0332
 3710G2HFO Tail43884  20.552  15.614  19.042 -0.1862  0.1419  0.1859
 3710G2HFO Tail43885  20.519  16.036  19.050  0.1483  0.1401  0.1733
 3710G2HFO Tail43886  20.279  15.339  18.494 -0.1349  0.0250  0.3875
 3710G2HFO Tail43887  20.135  15.185  18.331  0.1039  0.0466 -0.3224
 3710G2HFO Tail43888  20.095  14.935  18.421 -0.0074 -0.3680  0.2421
 3710G2HFO Tail43889  20.101  14.699  18.525  0.2689 -0.0918  0.0696
 3710G2HFO Tail43890  20.156  14.496  18.630  0.4370 -0.1570  0.0233
 3711G2HFO Head43891  17.680  14.267  22.788  0.1350 -0.2933  0.3371
 3711G2HFO Head43892  17.671  14.535  22.619 -0.2535 -0.0834 -0.1461
 3711G2HFO Head43893  18.116  14.454  22.884 -0.0104  0.0243 -0.0957
 3711G2HFO Head43894  18.079  14.679  22.659  0.1509 -0.1102  0.0618
 3711G2HFO Head43895  17.914  14.573  22.384 -0.2486  0.3659 -0.1163
 3711G2HFO Head43896  17.906  14.088  22.214  0.2699  0.2480  0.3258
 3711G2HFO Head43897  17.808  14.236  21.972 -0.3056  0.0435 -0.0841
 3711G2HFO Head43898  17.408  14.238  22.331  0.0525 -0.0096 -0.2085
 3711G2HFO Head43899  17.448  14.435  22.089 -0.0075  0.2597  0.1035
 3711G2HFO Head43900  17.765  14.585  22.000 -0.2020 -0.3064  0.1865
 3711G2HFO link43901  17.869  14.733  22.182  0.0119  0.2009  0.0827
 3711G2HFO link43902  17.964  15.002  22.148 -0.0810  0.1737 -0.2141
 3711G2HFO Tail43903  17.778  15.252  22.031  0.3191 -0.3903 -0.3656
 3711G2HFO Tail43904  17.939  15.357  21.753  0.1873  0.2385  0.2987
 3711G2HFO Tail43905  18.222  15.461  21.656 -0.1784 -0.1105  0.1228
 3711G2HFO Tail43906  18.419  15.551  21.294 -0.5836  0.1017  0.0358
 3711G2HFO Tail43907  17.494  15.098  21.874  0.0533 -0.0538  0.0990
 3711G2HFO Tail43908  17.518  14.907  21.693  0.0285 -0.2848 -0.0220
 3711G2HFO Tail43909  17.309  14.842  21.564  0.2713  0.2269 -0.2005
 3711G2HFO Tail43910  17.122  14.764  21.402 -0.0120  0.0535 -0.2302
 3711G2HFO Tail43911  16.920  14.696  21.307  0.2815  0.2850 -0.1125
 3712G2HFO Head43912  19.851  14.295  18.328 -0.2746  0.1419  0.1734
 3712G2HFO Head43913  19.798  14.165  18.602 -0.0192 -0.4366  0.1140
 3712G2HFO Head43914  19.388  14.154  18.178 -0.0963 -0.2625 -0.0275
 3712G2HFO Head43915  19.463  14.003  18.449  0.2809  0.0465 -0.0602
 3712G2HFO Head43916  19.484  14.191  18.753  0.6739 -0.0948 -0.1005
 3712G2HFO Head43917  18.630  14.360  19.004  0.1066 -0.1056  0.3831
 3712G2HFO Head43918  18.882  14.555  18.904  0.1413  0.0182  0.1379
 3712G2HFO Head43919  19.136  13.843  18.859 -0.2248  0.1013 -0.0118
 3712G2HFO Head43920  19.019  14.144  18.982  0.0839 -0.2283 -0.4265
 3712G2HFO Head43921  19.206  14.439  18.959  0.5058 -0.0804  0.1960
 3712G2HFO link43922  19.390  14.438  18.760  0.2693 -0.2288  0.1789
 3712G2HFO link43923  19.560  14.653  18.716 -0.1536 -0.3166  0.0344
 3712G2HFO Tail43924  19.801  14.718  18.927  0.1314 -0.3327  0.2926
 3712G2HFO Tail43925  19.882  15.052  18.873 -0.0655  0.1604  0.1318
 3712G2HFO Tail43926  20.056  15.293  19.004  0.2289  0.5655 -0.3423
 3712G2HFO Tail43927  20.257  15.441  19.363  0.3063 -0.1536 -0.1133
 3712G2HFO Tail43928  19.608  14.741  19.206 -0.0708  0.1558 -0.2168
 3712G2HFO Tail43929  19.342  14.757  19.183  0.1204 -0.1722 -0.1861
 3712G2HFO Tail43930  19.261  14.893  18.971 -0.1190  0.0557  0.0054
 3712G2HFO Tail43931  19.140  15.037  18.801 -0.0813  0.2093 -0.1406
 3712G2HFO Tail43932  19.014  15.196  18.693  0.1569  0.1477 -0.3454
 3713G2HFO Head43933  14.322  15.041  21.906  0.3432 -0.1547 -0.2749
 3713G2HFO Head43934  14.609  15.037  21.766 -0.1081  0.3438 -0.6389
 3713G2HFO Head43935  15.315  14.998  21.683  0.1617  0.0957 -0.1234
 3713G2HFO Head43936  15.023  15.015  21.673 -0.1339 -0.1881  0.1197
 3713G2HFO Head43937  14.847  15.273  21.857  0.0024 -0.1440 -0.1356
 3713G2HFO Head43938  14.172  15.469  21.332  0.0528 -0.0317 -0.1281
 3713G2HFO Head43939  14.313  15.399  21.634 -0.0782  0.1350  0.2623
 3713G2HFO Head43940  14.489  16.131  21.534 -0.2066 -0.1254 -0.0316
 3713G2HFO Head43941  14.445  15.827  21.523 -0.2568 -0.1297  0.0926
 3713G2HFO Head43942  14.573  15.603  21.758  0.4431  0.1960  0.4016
 3713G2HFO link43943  14.818  15.515  21.762 -0.1225  0.6592  0.1285
 3713G2HFO link43944  15.050  15.675  21.739  0.0860 -0.1661  0.1423
 3713G2HFO Tail43945  15.236  15.711  21.470  0.1643  0.0264 -0.1743
 3713G2HFO Tail43946  15.409  15.998  21.580 -0.0087 -0.0461 -0.2638
 3713G2HFO Tail43947  15.422  16.171  21.842  0.3193 -0.2790 -0.2053
 3713G2HFO Tail43948  15.546  16.558  21.969 -0.3405 -0.2211  0.1041
 3713G2HFO Tail43949  15.479  15.475  21.570 -0.0099  0.1363 -0.0704
 3713G2HFO Tail43950  15.669  15.560  21.720  0.0350 -0.2251 -0.0716
 3713G2HFO Tail43951  15.594  15.707  21.932  0.1572  0.1400  0.2612
 3713G2HFO Tail43952  15.576  15.841  22.147 -0.4946 -0.1611  0.2328
 3713G2HFO Tail43953  15.516  15.935  22.350 -0.1057  0.2983  0.0785
 3714G2HFO Head43954  23.150  17.817  18.338  0.1641 -0.1774  0.0756
 3714G2HFO Head43955  23.138  17.791  18.658 -0.3871 -0.1938  0.0486
 3714G2HFO Head43956  23.372  17.317  18.853  0.0388  0.0177 -0.0541
 3714G2HFO Head43957  23.141  17.501  19.019 -0.3001  0.3752 -0.0929
 3714G2HFO Head43958  22.887  17.626  18.834  0.0358 -0.1217  0.0056
 3714G2HFO Head43959  22.696  16.814  18.633 -0.2469  0.0206  0.1980
 3714G2HFO Head43960  22.889  17.052  18.635 -0.2929 -0.1635 -0.0653
 3714G2HFO Head43961  23.314  17.170  18.391  0.0426  0.1601  0.1472
 3714G2HFO Head43962  23.117  17.385  18.469 -0.0181 -0.2408  0.3315
 3714G2HFO Head43963  22.786  17.366  18.531  0.1931  0.2233 -0.3707
 3714G2HFO link43964  22.677  17.498  18.725 -0.5044 -0.0757 -0.5345
 3714G2HFO link43965  22.457  17.371  18.856 -0.1258 -0.1636  0.4119
 3714G2HFO Tail43966  22.415  17.055  18.923  0.1090  0.1122  0.0661
 3714G2HFO Tail43967  22.266  17.043  19.222  0.3696  0.1490 -0.2910
 3714G2HFO Tail43968  22.022  17.184  19.391  0.0100 -0.3075  0.4838
 3714G2HFO Tail43969  21.669  17.084  19.603  0.1424 -0.1344 -0.1411
 3714G2HFO Tail43970  22.164  16.959  18.691 -0.3202 -0.0677 -0.0016
 3714G2HFO Tail43971  22.150  16.708  18.612 -0.1641  0.1780 -0.3381
 3714G2HFO Tail43972  22.064  16.665  18.366 -0.1041  0.0836  0.0833
 3714G2HFO Tail43973  21.964  16.663  18.130 -0.3088  0.0081  0.1167
 3714G2HFO Tail43974  21.811  16.659  17.946  0.0668 -0.0993  0.2167
 3715G2HFO Head43975  13.151  18.601  27.144 -0.1478 -0.0631 -0.1336
 3715G2HFO Head43976  13.173  18.555  26.839  0.3072  0.4367  0.0737
 3715G2HFO Head43977  13.752  18.956  27.029 -0.0304 -0.0154  0.0048
 3715G2HFO Head43978  13.474  18.857  26.902  0.1440 -0.1300  0.0731
 3715G2HFO Head43979  13.480  18.593  26.672  0.0577  0.2161  0.0112
 3715G2HFO Head43980  12.734  18.818  26.420 -0.1209  0.0933  0.2442
 3715G2HFO Head43981  13.037  18.763  26.536 -0.5850 -0.1478 -0.0132
 3715G2HFO Head43982  13.035  19.228  26.428  0.5244  0.0477 -0.0157
 3715G2HFO Head43983  13.286  19.091  26.493 -0.4813  0.0378  0.3617
 3715G2HFO Head43984  13.318  18.781  26.336  0.2302 -0.4028  0.1912
 3715G2HFO link43985  13.508  18.629  26.400 -0.1689 -0.4548  0.5107
 3715G2HFO link43986  13.625  18.433  26.227 -0.1490 -0.1916 -0.2342
 3715G2HFO Tail43987  13.907  18.289  26.282  0.1585 -0.2461  0.4665
 3715G2HFO Tail43988  14.120  18.388  26.012  0.0780  0.2170 -0.1529
 3715G2HFO Tail43989  14.173  18.256  25.737  0.0401 -0.1716  0.1403
 3715G2HFO Tail43990  14.494  18.281  25.438 -0.1369  0.1997 -0.0636
 3715G2HFO Tail43991  13.984  18.449  26.589  0.3756  0.3474  0.3226
 3715G2HFO Tail43992  13.899  18.688  26.666  0.2681 -0.0735  0.4983
 3715G2HFO Tail43993  13.825  18.854  26.476 -0.2923 -0.1313 -0.1446
 3715G2HFO Tail43994  13.792  19.008  26.278  0.3271  0.0670 -0.0858
 3715G2HFO Tail43995  13.687  19.162  26.140 -0.0024  0.0291  0.3330
 3716G2HFO Head43996  16.703  14.351  21.647  0.3863  0.0683 -0.0014
 3716G2HFO Head43997  16.845  14.219  21.411  0.2386  0.3119 -0.2539
 3716G2HFO Head43998  17.137  14.173  21.868  0.2908  0.0178  0.2011
 3716G2HFO Head43999  17.179  14.374  21.649 -0.2239  0.0968  0.0500
 3716G2HFO Head44000  17.179  14.287  21.322  0.1228  0.3080  0.4153
 3716G2HFO Head44001  17.869  14.841  21.222  0.0267  0.1239  0.3625
 3716G2HFO Head44002  17.574  14.825  21.225  0.2048 -0.1102 -0.1848
 3716G2HFO Head44003  17.965  14.392  21.530 -0.5318  0.2161  0.0916
 3716G2HFO Head44004  17.621  14.483  21.480  0.0528  0.4937  0.0728
 3716G2HFO Head44005  17.494  14.493  21.148  0.1600 -0.2624 -0.0342
 3716G2HFO link44006  17.243  14.422  21.107  0.1284 -0.0089  0.1844
 3716G2HFO link44007  17.112  14.448  20.847 -0.0386  0.1136 -0.3724
 3716G2HFO Tail44008  16.948  14.711  20.804 -0.1153 -0.6519  0.2820
 3716G2HFO Tail44009  17.192  14.935  20.885 -0.0588  0.1370  0.0433
 3716G2HFO Tail44010  17.259  15.161  21.090 -0.3415 -0.1670 -0.0333
 3716G2HFO Tail44011  17.195  15.327  21.483  0.0072 -0.0053 -0.2617
 3716G2HFO Tail44012  16.967  14.751  20.443 -0.0051 -0.0508 -0.1640
 3716G2HFO Tail44013  17.190  14.799  20.308  0.0676 -0.1163  0.1348
 3716G2HFO Tail44014  17.359  14.963  20.410 -0.0342 -0.1910 -0.0706
 3716G2HFO Tail44015  17.529  15.093  20.550  0.0643 -0.0310  0.2655
 3716G2HFO Tail44016  17.661  15.179  20.717 -0.1837 -0.0735 -0.3023
 3717G2HFO Head44017  17.415  15.335  24.652  0.3515  0.1459 -0.3065
 3717G2HFO Head44018  17.330  15.590  24.476  0.0500  0.2976  0.0557
 3717G2HFO Head44019  17.597  15.164  24.154  0.2109  0.2841 -0.0709
 3717G2HFO Head44020  17.676  15.414  24.260  0.1269 -0.1173 -0.0564
 3717G2HFO Head44021  17.499  15.704  24.194  0.2598 -0.3670  0.1500
 3717G2HFO Head44022  18.286  16.173  24.045  0.3703 -0.1765 -0.1485
 3717G2HFO Head44023  18.022  16.211  24.136  0.0799 -0.0728  0.3531
 3717G2HFO Head44024  18.010  16.102  23.640 -0.1779  0.2038 -0.0987
 3717G2HFO Head44025  17.925  15.887  23.830  0.1114  0.1987 -0.1487
 3717G2HFO Head44026  17.843  15.938  24.170  0.1035 -0.1010  0.0135
 3717G2HFO link44027  17.598  15.936  24.251 -0.2491  0.0311  0.2889
 3717G2HFO link44028  17.434  16.163  24.248  0.2318 -0.4614 -0.1799
 3717G2HFO Tail44029  17.339  16.293  24.540  0.1090 -0.2166 -0.0340
 3717G2HFO Tail44030  17.002  16.227  24.491 -0.2580  0.1577  0.0944
 3717G2HFO Tail44031  16.791  16.131  24.279 -0.3621 -0.2047  0.3029
 3717G2HFO Tail44032  16.395  15.975  24.230 -0.1684  0.2278  0.1388
 3717G2HFO Tail44033  17.408  16.011  24.743  0.1572 -0.1060  0.1322
 3717G2HFO Tail44034  17.196  15.900  24.863  0.4789  0.2759 -0.2853
 3717G2HFO Tail44035  17.023  16.056  24.979  0.0306 -0.0428  0.0380
 3717G2HFO Tail44036  16.890  16.230  25.110 -0.2576 -0.0295  0.0010
 3717G2HFO Tail44037  16.728  16.334  25.244 -0.3628  0.0480  0.2003
 3718G2HFO Head44038  15.388  15.267  26.367 -0.1653  0.0991  0.2322
 3718G2HFO Head44039  15.163  15.489  26.301 -0.2288  0.0877 -0.0441
 3718G2HFO Head44040  14.756  15.499  26.565 -0.1564 -0.2705  0.0189
 3718G2HFO Head44041  14.883  15.791  26.522  0.2476  0.0811  0.0381
 3718G2HFO Head44042  15.208  15.828  26.409 -0.1754 -0.0563 -0.1911
 3718G2HFO Head44043  14.837  15.495  25.957  0.1526 -0.0232 -0.2981
 3718G2HFO Head44044  14.785  15.755  26.127  0.1400  0.2368 -0.0106
 3718G2HFO Head44045  14.464  15.920  26.463  0.2029 -0.0734 -0.0919
 3718G2HFO Head44046  14.717  16.170  26.314  0.4613 -0.4247 -0.1457
 3718G2HFO Head44047  14.994  16.046  26.134 -0.3465  0.2514  0.1821
 3718G2HFO link44048  15.232  16.032  26.242 -0.0157  0.0181  0.2143
 3718G2HFO link44049  15.471  16.170  26.172 -0.1536  0.0570  0.2618
 3718G2HFO Tail44050  15.521  16.510  26.184 -0.3293 -0.1236 -0.0122
 3718G2HFO Tail44051  15.676  16.546  26.502 -0.0600 -0.2502  0.1560
 3718G2HFO Tail44052  15.965  16.522  26.614  0.0146 -0.2158  0.1842
 3718G2HFO Tail44053  16.200  16.242  26.855  0.2038  0.0062 -0.1633
 3718G2HFO Tail44054  15.210  16.626  26.218  0.2596  0.0409 -0.0022
 3718G2HFO Tail44055  15.014  16.484  26.343 -0.3989 -0.1231 -0.1921
 3718G2HFO Tail44056  15.094  16.309  26.510  0.2115 -0.1973  0.2412
 3718G2HFO Tail44057  15.137  16.134  26.700  0.1629 -0.2406 -0.0805
 3718G2HFO Tail44058  15.201  15.952  26.835 -0.2204  0.2374 -0.1535
 3719G2HFO Head44059  18.908  16.411  23.382  0.0802  0.3503  0.2069
 3719G2HFO Head44060  18.594  16.386  23.244 -0.1881 -0.1149  0.0341
 3719G2HFO Head44061  18.525  16.590  23.894  0.0133 -0.4529  0.2480
 3719G2HFO Head44062  18.515  16.589  23.607  0.0102 -0.2505 -0.4824
 3719G2HFO Head44063  18.295  16.377  23.438 -0.1054  0.3179 -0.2011
 3719G2HFO Head44064  18.411  16.972  23.378 -0.0100 -0.0045  0.2595
 3719G2HFO Head44065  18.206  16.880  23.577  0.1367  0.0507  0.3515
 3719G2HFO Head44066  17.886  16.625  24.072 -0.0457 -0.1559  0.5116
 3719G2HFO Head44067  18.061  16.545  23.866  0.0331  0.2112  0.0553
 3719G2HFO Head44068  17.993  16.611  23.519  0.0126  0.1554 -0.2516
 3719G2HFO link44069  18.060  16.454  23.342  0.2928 -0.0067 -0.3126
 3719G2HFO link44070  17.885  16.320  23.161  0.1478 -0.3493 -0.0231
 3719G2HFO Tail44071  17.575  16.448  23.104 -0.0800  0.0348 -0.5066
 3719G2HFO Tail44072  17.340  16.304  23.322  0.1109  0.2472  0.3073
 3719G2HFO Tail44073  17.223  16.376  23.616 -0.1581 -0.4505  0.2803
 3719G2HFO Tail44074  17.290  16.668  23.912  0.5195 -0.2913 -0.1096
 3719G2HFO Tail44075  17.664  16.738  23.270  0.1566  0.2006 -0.2610
 3719G2HFO Tail44076  17.849  16.903  23.186 -0.1254  0.0878  0.1563
 3719G2HFO Tail44077  17.870  17.129  23.309  0.0524 -0.1200  0.1493
 3719G2HFO Tail44078  17.885  17.376  23.382 -0.1687 -0.2017 -0.0984
 3719G2HFO Tail44079  17.952  17.576  23.493  0.1056  0.0995 -0.0351
 3720G2HFO Head44080  17.931  18.449  23.939  0.0700  0.0746 -0.3143
 3720G2HFO Head44081  17.763  18.253  23.760 -0.3825  0.1807  0.0013
 3720G2HFO Head44082  17.675  18.018  24.448 -0.2703 -0.0074 -0.6370
 3720G2HFO Head44083  17.614  18.176  24.167  0.3304  0.0167 -0.6938
 3720G2HFO Head44084  17.605  17.968  23.901  0.2648  0.0843  0.1128
 3720G2HFO Head44085  17.889  17.252  24.260  0.0622  0.0895  0.0858
 3720G2HFO Head44086  17.890  17.514  24.356 -0.1744  0.1207  0.1357
 3720G2HFO Head44087  18.336  17.510  24.312  0.0363 -0.0649 -0.2519
 3720G2HFO Head44088  18.217  17.701  24.121 -0.5286  0.1065  0.1212
 3720G2HFO Head44089  17.866  17.773  24.117  0.5607 -0.1098 -0.2869
 3720G2HFO link44090  17.723  17.727  23.905  0.2082 -0.4287  0.1223
 3720G2HFO link44091  17.636  17.488  23.783  0.3888 -0.0391 -0.1342
 3720G2HFO Tail44092  17.409  17.460  23.553  0.2145  0.1017 -0.0980
 3720G2HFO Tail44093  17.266  17.149  23.612 -0.0644  0.0133  0.2434
 3720G2HFO Tail44094  17.200  16.893  23.448 -0.0367  0.2541 -0.0136
 3720G2HFO Tail44095  17.189  16.736  23.052  0.1403 -0.1271 -0.2069
 3720G2HFO Tail44096  17.126  17.618  23.703  0.1866 -0.0760  0.4473
 3720G2HFO Tail44097  16.964  17.493  23.850  0.2326 -0.0000  0.0910
 3720G2HFO Tail44098  16.954  17.520  24.105  0.0536 -0.0820 -0.0376
 3720G2HFO Tail44099  16.971  17.556  24.360  0.0694 -0.0238  0.0410
 3720G2HFO Tail44100  16.924  17.574  24.598  0.0646 -0.0345  0.0985
 3721G2HFO Head44101  16.010  13.860  25.484 -0.0069  0.0973  0.1563
 3721G2HFO Head44102  15.985  14.165  25.444 -0.2912  0.0661 -0.0046
 3721G2HFO Head44103  16.307  13.942  24.833 -0.1098  0.1645  0.0280
 3721G2HFO Head44104  16.245  14.046  25.101  0.4288  0.0938 -0.1544
 3721G2HFO Head44105  16.012  14.308  25.144 -0.0815  0.0316  0.3006
 3721G2HFO Head44106  16.749  14.092  25.074 -0.2545  0.6434 -0.1341
 3721G2HFO Head44107  16.582  14.356  25.006  0.1905 -0.0498  0.6177
 3721G2HFO Head44108  16.578  14.354  25.733  0.3825 -0.5375 -0.0404
 3721G2HFO Head44109  16.447  14.280  25.442 -0.2986  0.2425 -0.3536
 3721G2HFO Head44110  16.350  14.519  25.218  0.2963 -0.4583 -0.1869
 3721G2HFO link44111  16.106  14.536  25.135 -0.3962  0.2584 -0.2056
 3721G2HFO link44112  15.999  14.771  25.008 -0.0704 -0.2177  0.2770
 3721G2HFO Tail44113  15.999  15.061  25.157  0.0680 -0.1617  0.3862
 3721G2HFO Tail44114  15.994  15.291  24.892 -0.1961  0.0615  0.2308
 3721G2HFO Tail44115  15.788  15.488  24.758  0.0506  0.1693 -0.2083
 3721G2HFO Tail44116  15.381  15.629  24.780 -0.1326 -0.0559  0.1581
 3721G2HFO Tail44117  16.327  15.098  25.235  0.0710 -0.1198  0.2145
 3721G2HFO Tail44118  16.511  14.932  25.147 -0.2754  0.2621 -0.1654
 3721G2HFO Tail44119  16.667  15.019  24.956  0.0812 -0.1948 -0.2842
 3721G2HFO Tail44120  16.836  15.128  24.801 -0.2366 -0.0440  0.0855
 3721G2HFO Tail44121  17.017  15.158  24.659 -0.1214 -0.0632  0.1780
 3722G2HFO Head44122  18.712  13.348  20.112  0.0023  0.0562 -0.2273
 3722G2HFO Head44123  18.484  13.464  19.912 -0.4529  0.1610  0.1442
 3722G2HFO Head44124  18.367  13.464  20.519  0.0577  0.5450  0.2197
 3722G2HFO Head44125  18.433  13.700  20.301 -0.4841 -0.0147  0.3564
 3722G2HFO Head44126  18.281  13.727  20.005 -0.1769 -0.2528  0.1006
 3722G2HFO Head44127  17.529  13.804  19.598 -0.0373  0.0075  0.2857
 3722G2HFO Head44128  17.782  13.795  19.774 -0.1700 -0.3964 -0.2740
 3722G2HFO Head44129  17.743  14.212  19.344  0.1722  0.3477  0.1830
 3722G2HFO Head44130  17.869  14.219  19.617 -0.2241  0.3157  0.0899
 3722G2HFO Head44131  18.090  13.955  19.687 -0.3481  0.2931 -0.5610
 3722G2HFO link44132  18.279  13.961  19.869 -0.0849  0.2524  0.5615
 3722G2HFO link44133  18.469  14.161  19.892 -0.0199 -0.0556  0.1800
 3722G2HFO Tail44134  18.561  14.357  19.646 -0.4045  0.7866 -0.1623
 3722G2HFO Tail44135  18.652  14.106  19.425 -0.0853 -0.2099  0.1159
 3722G2HFO Tail44136  18.954  13.971  19.354 -0.2671 -0.2470  0.1664
 3722G2HFO Tail44137  19.360  14.097  19.250  0.1996  0.1510  0.2937
 3722G2HFO Tail44138  18.268  14.433  19.489  0.1214 -0.0204  0.0219
 3722G2HFO Tail44139  18.214  14.645  19.340  0.1554  0.2244 -0.0689
 3722G2HFO Tail44140  17.980  14.658  19.230 -0.0324 -0.0982  0.0734
 3722G2HFO Tail44141  17.736  14.660  19.156 -0.2331  0.0306  0.2489
 3722G2HFO Tail44142  17.514  14.725  19.094  0.0543 -0.0222 -0.1959
 3723G2HFO Head44143  14.237  15.404  22.885 -0.2525 -0.1979  0.3072
 3723G2HFO Head44144  14.558  15.212  22.878 -0.5316 -0.1654 -0.0985
 3723G2HFO Head44145  15.046  14.705  23.037  0.0545 -0.0160 -0.1359
 3723G2HFO Head44146  14.902  15.009  22.893  0.5003  0.3080  0.1586
 3723G2HFO Head44147  14.836  15.295  23.072  0.3925  0.2671 -0.2065
 3723G2HFO Head44148  15.739  15.555  23.146 -0.3945  0.0855 -0.0773
 3723G2HFO Head44149  15.471  15.628  22.997 -0.0618 -0.4066  0.2774
 3723G2HFO Head44150  15.306  14.977  22.655  0.1611 -0.2651 -0.2020
 3723G2HFO Head44151  15.305  15.283  22.722 -0.0332 -0.2486 -0.1409
 3723G2HFO Head44152  15.213  15.412  23.053  0.3278  0.0516  0.1569
 3723G2HFO link44153  14.979  15.505  23.048  0.1843 -0.0082 -0.4337
 3723G2HFO link44154  14.919  15.786  23.099  0.3155 -0.1631  0.0942
 3723G2HFO Tail44155  14.934  16.033  22.889 -0.2559  0.1080 -0.4761
 3723G2HFO Tail44156  15.122  16.263  23.067  0.1375 -0.0774 -0.0780
 3723G2HFO Tail44157  15.096  16.569  23.149 -0.2411  0.3358  0.0694
 3723G2HFO Tail44158  15.130  16.947  22.949  0.0632  0.2309 -0.1670
 3723G2HFO Tail44159  15.152  15.947  22.654  0.4026  0.0812  0.1925
 3723G2HFO Tail44160  15.215  15.693  22.647 -0.0612  0.2231  0.2737
 3723G2HFO Tail44161  15.244  15.582  22.411  0.3851  0.3033 -0.1041
 3723G2HFO Tail44162  15.247  15.460  22.190  0.0560 -0.1937  0.2582
 3723G2HFO Tail44163  15.265  15.411  21.962  0.0821 -0.2745 -0.2122
 3724G2HFO Head44164  20.497  13.357  19.138  0.4465 -0.3504 -0.1185
 3724G2HFO Head44165  20.578  13.408  19.425  0.0340 -0.0168  0.4224
 3724G2HFO Head44166  20.189  13.984  19.201 -0.2409 -0.0908 -0.0579
 3724G2HFO Head44167  20.258  13.722  19.383 -0.2064  0.2834  0.1324
 3724G2HFO Head44168  20.529  13.707  19.593 -0.0570 -0.0388  0.6082
 3724G2HFO Head44169  20.945  13.574  20.131  0.2810 -0.5540 -0.0815
 3724G2HFO Head44170  21.060  13.552  19.841  0.3278 -0.3694 -0.5090
 3724G2HFO Head44171  21.285  13.436  19.274 -0.0207 -0.1426  0.1715
 3724G2HFO Head44172  20.997  13.516  19.370 -0.0987  0.3618 -0.1047
 3724G2HFO Head44173  20.949  13.784  19.591 -0.4644 -0.4037 -0.0998
 3724G2HFO link44174  20.709  13.895  19.557 -0.4529 -0.2399  0.2165
 3724G2HFO link44175  20.652  14.165  19.491 -0.3616 -0.0058 -0.0630
 3724G2HFO Tail44176  20.801  14.307  19.229  0.1254  0.4816  0.0266
 3724G2HFO Tail44177  20.760  14.659  19.262 -0.0075 -0.2720 -0.4956
 3724G2HFO Tail44178  20.525  14.816  19.414  0.2067 -0.1921  0.0033
 3724G2HFO Tail44179  20.357  14.950  19.780  0.0075 -0.0327 -0.0153
 3724G2HFO Tail44180  21.136  14.277  19.308  0.1127 -0.0254  0.0797
 3724G2HFO Tail44181  21.273  14.484  19.401 -0.2080  0.0423  0.2743
 3724G2HFO Tail44182  21.375  14.657  19.242 -0.1763 -0.2133  0.1371
 3724G2HFO Tail44183  21.436  14.833  19.070  0.1229 -0.0001  0.1880
 3724G2HFO Tail44184  21.549  14.982  18.916  0.1420  0.0608 -0.3039
 3725G2HFO Head44185  21.814  16.520  16.354  0.0312  0.4902  0.1141
 3725G2HFO Head44186  21.606  16.550  16.625 -0.1467 -0.2531  0.0571
 3725G2HFO Head44187  21.274  16.777  16.171 -0.1025  0.0056 -0.0004
 3725G2HFO Head44188  21.234  16.733  16.458  0.0259  0.2827  0.4283
 3725G2HFO Head44189  21.448  16.860  16.689  0.0172 -0.1734 -0.3436
 3725G2HFO Head44190  22.044  17.353  16.986 -0.1356 -0.3623 -0.2914
 3725G2HFO Head44191  21.758  17.257  16.873 -0.0955  0.3971 -0.0847
 3725G2HFO Head44192  21.654  17.617  17.118 -0.0194 -0.4371 -0.2302
 3725G2HFO Head44193  21.499  17.366  17.217 -0.3597  0.0246  0.2935
 3725G2HFO Head44194  21.547  17.058  17.059 -0.4865 -0.1940 -0.1845
 3725G2HFO link44195  21.366  16.941  16.937  0.2779 -0.0094  0.0126
 3725G2HFO link44196  21.089  16.960  16.994 -0.2418 -0.2062  0.0866
 3725G2HFO Tail44197  20.963  16.930  17.304 -0.2673  0.1951  0.0303
 3725G2HFO Tail44198  21.149  16.654  17.424  0.0810 -0.1842  0.0321
 3725G2HFO Tail44199  21.126  16.484  17.695  0.0558  0.0628  0.2625
 3725G2HFO Tail44200  21.016  16.512  18.112 -0.0880  0.0149  0.1951
 3725G2HFO Tail44201  20.677  16.784  17.242  0.5512 -0.3679  0.0128
 3725G2HFO Tail44202  20.628  16.654  17.016 -0.1054 -0.3664  0.0942
 3725G2HFO Tail44203  20.831  16.524  16.915  0.0463 -0.2743  0.0433
 3725G2HFO Tail44204  21.045  16.431  16.831 -0.2269  0.1955 -0.0002
 3725G2HFO Tail44205  21.265  16.401  16.761  0.1393  0.1970 -0.2689
 3726G2HFO Head44206  18.557  18.220  23.452 -0.1676  0.0204  0.0070
 3726G2HFO Head44207  18.472  17.927  23.292  0.3323 -0.1966  0.2862
 3726G2HFO Head44208  18.872  17.302  23.191 -0.0056  0.1748 -0.1105
 3726G2HFO Head44209  18.793  17.586  23.259 -0.2038 -0.2420  0.2791
 3726G2HFO Head44210  18.655  17.796  23.010  0.1068  0.3050  0.2611
 3726G2HFO Head44211  18.499  17.678  22.112  0.1227 -0.3186  0.1188
 3726G2HFO Head44212  18.496  17.468  22.332 -0.0601  0.2934  0.0167
 3726G2HFO Head44213  19.182  17.526  22.472 -0.2031  0.0502 -0.1006
 3726G2HFO Head44214  18.922  17.658  22.479  0.5645 -0.4571 -0.6655
 3726G2HFO Head44215  18.633  17.556  22.652  0.0217 -0.1784 -0.0127
 3726G2HFO link44216  18.494  17.711  22.807  0.1646 -0.2590  0.1336
 3726G2HFO link44217  18.217  17.777  22.776 -0.1820  0.0000  0.3121
 3726G2HFO Tail44218  17.995  17.691  23.001  0.0726 -0.1232 -0.2601
 3726G2HFO Tail44219  17.732  17.770  22.785 -0.1340 -0.0791  0.1825
 3726G2HFO Tail44220  17.443  17.630  22.732 -0.2715 -0.1473  0.0012
 3726G2HFO Tail44221  17.314  17.298  22.482  0.2031  0.2066  0.5174
 3726G2HFO Tail44222  18.006  17.970  23.196 -0.0538  0.2184  0.0324
 3726G2HFO Tail44223  17.944  18.199  23.077  0.1418  0.0959 -0.2612
 3726G2HFO Tail44224  17.953  18.233  22.830  0.0007 -0.0389 -0.2462
 3726G2HFO Tail44225  17.946  18.237  22.581  0.0617 -0.0385  0.0052
 3726G2HFO Tail44226  17.959  18.197  22.362 -0.3173  0.1649  0.0625
 3727G2HFO Head44227  18.409  18.497  17.637 -0.1054 -0.0806  0.1801
 3727G2HFO Head44228  18.531  18.240  17.732 -0.0658  0.1345  0.2576
 3727G2HFO Head44229  18.506  17.783  17.769  0.2580 -0.2056  0.0437
 3727G2HFO Head44230  18.759  17.896  17.869  0.0387  0.4875  0.1249
 3727G2HFO Head44231  18.877  18.186  17.707  0.0569 -0.4067  0.1543
 3727G2HFO Head44232  18.910  18.729  17.084 -0.0080  0.0072  0.0190
 3727G2HFO Head44233  18.684  18.496  17.213 -0.2277 -0.0576  0.0776
 3727G2HFO Head44234  18.208  18.257  17.284 -0.0152  0.1130 -0.1957
 3727G2HFO Head44235  18.472  18.070  17.355  0.0283  0.3443 -0.0002
 3727G2HFO Head44236  18.806  18.193  17.300  0.1637 -0.2619 -0.1565
 3727G2HFO link44237  18.989  18.160  17.467 -0.1127  0.3691  0.0327
 3727G2HFO link44238  19.227  18.015  17.429 -0.1031  0.0384  0.2566
 3727G2HFO Tail44239  19.371  17.932  17.710 -0.0383  0.0543 -0.1526
 3727G2HFO Tail44240  19.142  17.686  17.814  0.0006 -0.1337  0.0387
 3727G2HFO Tail44241  19.156  17.411  17.976 -0.4504  0.0939  0.0794
 3727G2HFO Tail44242  18.947  17.050  18.091 -0.1628  0.0874 -0.1167
 3727G2HFO Tail44243  19.617  17.738  17.562  0.0155 -0.0531  0.0279
 3727G2HFO Tail44244  19.559  17.532  17.417 -0.0143 -0.2090 -0.0402
 3727G2HFO Tail44245  19.464  17.322  17.543  0.0174  0.1012  0.0512
 3727G2HFO Tail44246  19.344  17.115  17.643  0.1991  0.1401 -0.0752
 3727G2HFO Tail44247  19.197  16.958  17.738  0.0804  0.0780 -0.0481
 3728G2HFO Head44248  18.155  18.706  26.863  0.2833  0.1882  0.0100
 3728G2HFO Head44249  18.089  18.520  26.635  0.0672 -0.0585  0.3361
 3728G2HFO Head44250  18.314  19.035  26.435  0.0195 -0.1500  0.3250
 3728G2HFO Head44251  17.994  18.949  26.509 -0.0853  0.0126 -0.1943
 3728G2HFO Head44252  17.857  18.639  26.411  0.1408 -0.1890 -0.2529
 3728G2HFO Head44253  17.763  19.187  26.154  0.2195  0.0379  0.4851
 3728G2HFO Head44254  17.619  19.100  26.431 -0.2964 -0.0775 -0.1592
 3728G2HFO Head44255  17.756  19.102  26.895  0.1405  0.1630  0.1571
 3728G2HFO Head44256  17.504  18.936  26.799 -0.2387  0.3813 -0.6668
 3728G2HFO Head44257  17.483  18.797  26.484 -0.1472  0.1695 -0.1148
 3728G2HFO link44258  17.606  18.569  26.437 -0.0618 -0.2337  0.2196
 3728G2HFO link44259  17.502  18.350  26.313  0.1620 -0.0604 -0.0753
 3728G2HFO Tail44260  17.184  18.388  26.244  0.2481 -0.0535  0.4507
 3728G2HFO Tail44261  17.097  18.466  26.574 -0.2439 -0.1050  0.2060
 3728G2HFO Tail44262  16.980  18.352  26.855 -0.1736  0.3414 -0.6576
 3728G2HFO Tail44263  16.712  18.509  27.156  0.1216 -0.0937  0.0200
 3728G2HFO Tail44264  17.208  18.687  26.097  0.0135 -0.0971  0.3530
 3728G2HFO Tail44265  17.423  18.793  26.014 -0.5315 -0.2231  0.0106
 3728G2HFO Tail44266  17.651  18.657  25.991  0.1154 -0.0446  0.4280
 3728G2HFO Tail44267  17.848  18.499  25.955  0.0780  0.3458  0.2210
 3728G2HFO Tail44268  18.023  18.338  25.974 -0.0718  0.2718 -0.0861
 3729G2HFO Head44269  16.700  16.374  26.815  0.0445  0.1142 -0.1656
 3729G2HFO Head44270  16.635  16.018  26.769  0.0698  0.0493  0.1362
 3729G2HFO Head44271  17.089  16.048  26.862  0.0073 -0.0504 -0.1985
 3729G2HFO Head44272  17.026  16.019  26.584 -0.2788  0.0447  0.3036
 3729G2HFO Head44273  16.724  15.867  26.475  0.1478  0.2789 -0.1187
 3729G2HFO Head44274  16.790  14.921  26.564  0.0169  0.0411 -0.0893
 3729G2HFO Head44275  16.656  15.194  26.689 -0.1608 -0.0663  0.4337
 3729G2HFO Head44276  17.293  15.184  26.736 -0.2842  0.2915  0.4314
 3729G2HFO Head44277  17.076  15.291  26.531 -0.2734  0.1163  0.2580
 3729G2HFO Head44278  16.803  15.484  26.608  0.0342  0.0098  0.2219
 3729G2HFO link44279  16.691  15.601  26.418 -0.2213  0.0656  0.0119
 3729G2HFO link44280  16.447  15.468  26.311  0.2337 -0.0465 -0.2239
 3729G2HFO Tail44281  16.254  15.589  26.083  0.3287  0.3579 -0.4178
 3729G2HFO Tail44282  16.373  15.909  26.088  0.0314 -0.2650 -0.0042
 3729G2HFO Tail44283  16.316  16.177  25.932 -0.2348 -0.3180  0.0835
 3729G2HFO Tail44284  16.080  16.308  25.598  0.1055  0.1761 -0.1988
 3729G2HFO Tail44285  15.945  15.633  26.252 -0.0251 -0.0099  0.1827
 3729G2HFO Tail44286  15.726  15.504  26.175  0.0676  0.2082  0.1065
 3729G2HFO Tail44287  15.529  15.627  26.057  0.1956  0.1016 -0.1512
 3729G2HFO Tail44288  15.343  15.733  25.911  0.0503 -0.0232  0.0126
 3729G2HFO Tail44289  15.145  15.796  25.803 -0.1540 -0.2585 -0.0855
 3730G2HFO Head44290  22.708  19.041  20.411 -0.0428 -0.2060  0.0753
 3730G2HFO Head44291  22.590  19.087  20.105 -0.0591  0.1772  0.0117
 3730G2HFO Head44292  22.423  18.441  20.400  0.0448  0.2492  0.0051
 3730G2HFO Head44293  22.529  18.693  20.298 -0.3343  0.1049 -0.0829
 3730G2HFO Head44294  22.368  18.846  20.022 -0.1531  0.1024  0.4296
 3730G2HFO Head44295  21.681  19.568  20.245  0.0395  0.4156  0.2942
 3730G2HFO Head44296  21.814  19.271  20.247  0.2643 -0.2892 -0.4519
 3730G2HFO Head44297  21.919  19.237  19.505 -0.3996  0.1321  0.1725
 3730G2HFO Head44298  21.925  19.362  19.810 -0.0003 -0.1042 -0.3942
 3730G2HFO Head44299  22.070  19.143  20.050 -0.1901 -0.2253  0.5139
 3730G2HFO link44300  22.100  18.885  20.003 -0.0424 -0.0046 -0.0913
 3730G2HFO link44301  21.924  18.740  19.828  0.0061  0.0368 -0.2262
 3730G2HFO Tail44302  21.695  18.898  19.657  0.1432  0.1484  0.1040
 3730G2HFO Tail44303  21.674  18.659  19.399 -0.0984  0.2012 -0.5546
 3730G2HFO Tail44304  21.864  18.436  19.337  0.1385  0.2244  0.1282
 3730G2HFO Tail44305  21.974  18.198  18.996  0.0686 -0.2287  0.2006
 3730G2HFO Tail44306  21.411  18.809  19.831 -0.2848  0.0809  0.0529
 3730G2HFO Tail44307  21.399  18.814  20.096 -0.1012  0.2396  0.1680
 3730G2HFO Tail44308  21.604  18.867  20.240  0.1025  0.0130  0.1014
 3730G2HFO Tail44309  21.798  18.879  20.407 -0.2014 -0.0266 -0.0608
 3730G2HFO Tail44310  21.984  18.954  20.528 -0.0399  0.1253 -0.1183
 3731G2HFO Head44311  15.191  21.911  25.541  0.1384 -0.3138  0.1815
 3731G2HFO Head44312  15.118  21.629  25.657 -0.1518 -0.5705  0.6506
 3731G2HFO Head44313  14.944  21.715  25.075 -0.0289  0.1154 -0.4188
 3731G2HFO Head44314  14.814  21.808  25.359 -0.0848 -0.1639  0.0566
 3731G2HFO Head44315  14.785  21.538  25.592  0.1524 -0.2759  0.0591
 3731G2HFO Head44316  14.365  21.770  25.300 -0.0815 -0.1111  0.2398
 3731G2HFO Head44317  14.432  21.473  25.159  0.1908 -0.2114  0.0273
 3731G2HFO Head44318  14.125  21.140  25.321 -0.3039 -0.0581 -0.1061
 3731G2HFO Head44319  14.405  21.057  25.203  0.1068  0.0782 -0.3035
 3731G2HFO Head44320  14.677  21.263  25.267 -0.2688  0.1446 -0.1264
 3731G2HFO link44321  14.747  21.289  25.524 -0.2572  0.1064  0.2974
 3731G2HFO link44322  14.736  21.053  25.698 -0.0384  0.0064  0.3729
 3731G2HFO Tail44323  14.739  20.758  25.572  0.1662 -0.4723  0.0293
 3731G2HFO Tail44324  15.056  20.642  25.690  0.3711  0.0948 -0.0704
 3731G2HFO Tail44325  15.255  20.719  25.913  0.1672 -0.3194  0.5079
 3731G2HFO Tail44326  15.391  20.593  26.299 -0.0446 -0.0587 -0.1471
 3731G2HFO Tail44327  14.807  20.825  25.229 -0.1783  0.0663 -0.0904
 3731G2HFO Tail44328  15.019  20.978  25.205  0.0176 -0.1062 -0.0149
 3731G2HFO Tail44329  15.131  21.075  25.415 -0.0199  0.0892  0.1033
 3731G2HFO Tail44330  15.196  21.184  25.641 -0.1413  0.2025 -0.1749
 3731G2HFO Tail44331  15.302  21.233  25.843  0.1559 -0.0180  0.0877
 3732G2HFO Head44332  15.908  17.224  28.474 -0.1690 -0.1073  0.1036
 3732G2HFO Head44333  15.815  16.950  28.588 -0.2152  0.1511  0.6667
 3732G2HFO Head44334  15.376  16.876  28.653 -0.0752 -0.2686  0.0801
 3732G2HFO Head44335  15.506  16.826  28.374 -0.3812 -0.0548 -0.0653
 3732G2HFO Head44336  15.811  16.691  28.342 -0.1373 -0.2771 -0.0437
 3732G2HFO Head44337  16.196  16.723  28.749 -0.0059  0.1370 -0.2075
 3732G2HFO Head44338  16.357  16.717  28.489 -0.1929 -0.0048  0.1852
 3732G2HFO Head44339  16.736  16.863  28.200  0.3493  0.1213 -0.1352
 3732G2HFO Head44340  16.480  16.801  28.028  0.0218 -0.0895 -0.0534
 3732G2HFO Head44341  16.196  16.649  28.172 -0.2608  0.1315 -0.0950
 3732G2HFO link44342  15.961  16.738  28.125 -0.5521 -0.1288 -0.0742
 3732G2HFO link44343  15.891  16.953  27.951  0.0764  0.1693  0.1089
 3732G2HFO Tail44344  16.018  17.255  27.976  0.2339 -0.0255 -0.0557
 3732G2HFO Tail44345  15.779  17.439  27.764 -0.2599 -0.3136  0.0021
 3732G2HFO Tail44346  15.807  17.661  27.553  0.2974 -0.0010 -0.3577
 3732G2HFO Tail44347  15.565  17.978  27.391 -0.5522 -0.0002  0.2102
 3732G2HFO Tail44348  16.279  17.152  27.765 -0.1994  0.3818 -0.2607
 3732G2HFO Tail44349  16.265  17.022  27.537 -0.3197  0.0759 -0.2357
 3732G2HFO Tail44350  16.469  17.040  27.373 -0.0317 -0.0628 -0.0194
 3732G2HFO Tail44351  16.670  17.106  27.244 -0.0384 -0.0506 -0.0663
 3732G2HFO Tail44352  16.898  17.151  27.183 -0.0615  0.0372 -0.4102
 3733G2HFO Head44353  14.413  20.502  27.954 -0.0400  0.2025  0.2314
 3733G2HFO Head44354  14.427  20.260  27.791 -0.3655 -0.1153 -0.0143
 3733G2HFO Head44355  14.892  20.341  27.753  0.4433  0.3159  0.0085
 3733G2HFO Head44356  14.751  20.204  27.513 -0.5420  0.2554 -0.3450
 3733G2HFO Head44357  14.417  20.276  27.450 -0.1206 -0.1943  0.1045
 3733G2HFO Head44358  13.750  20.344  27.926  0.3599  0.2792  0.0960
 3733G2HFO Head44359  14.001  20.335  27.716 -0.2148  0.1899 -0.1371
 3733G2HFO Head44360  13.634  20.567  27.514  0.2811  0.0750  0.1753
 3733G2HFO Head44361  13.750  20.331  27.327  0.0310  0.1046  0.0005
 3733G2HFO Head44362  14.027  20.121  27.439  0.2309 -0.1454 -0.2563
 3733G2HFO link44363  14.259  20.119  27.312  0.4981  0.1685  0.3917
 3733G2HFO link44364  14.305  19.959  27.074 -0.0159 -0.0594 -0.2110
 3733G2HFO Tail44365  14.531  19.723  27.044 -0.4592 -0.1696  0.1934
 3733G2HFO Tail44366  14.340  19.431  27.061  0.3475 -0.0677 -0.2501
 3733G2HFO Tail44367  14.398  19.117  27.093  0.2098 -0.0790  0.1426
 3733G2HFO Tail44368  14.352  18.764  26.852  0.0634 -0.0369 -0.0537
 3733G2HFO Tail44369  14.630  19.720  26.682 -0.0429 -0.1866 -0.0913
 3733G2HFO Tail44370  14.711  19.934  26.536 -0.0848  0.0454  0.1220
 3733G2HFO Tail44371  14.912  20.077  26.636  0.1062 -0.0283  0.1332
 3733G2HFO Tail44372  15.103  20.234  26.686 -0.1536  0.0206  0.0291
 3733G2HFO Tail44373  15.230  20.414  26.782 -0.0893  0.1776  0.2720
 3734G2HFO Head44374  18.001  18.527  25.439  0.0722 -0.3795  0.2252
 3734G2HFO Head44375  17.762  18.337  25.473 -0.6918  0.1737  0.3189
 3734G2HFO Head44376  17.542  18.993  25.646 -0.0236  0.1128 -0.1005
 3734G2HFO Head44377  17.560  18.729  25.504  0.1812 -0.1594  0.2363
 3734G2HFO Head44378  17.490  18.443  25.662 -0.1992  0.2566 -0.2343
 3734G2HFO Head44379  17.440  18.058  24.908 -0.2093 -0.2346  0.2707
 3734G2HFO Head44380  17.488  18.096  25.179 -0.2369 -0.0456 -0.2418
 3734G2HFO Head44381  17.637  18.503  25.049  0.0477 -0.2966  0.2037
 3734G2HFO Head44382  17.341  18.480  25.107 -0.1881  0.0711  0.0035
 3734G2HFO Head44383  17.265  18.277  25.359  0.0885  0.7005  0.0736
 3734G2HFO link44384  17.262  18.341  25.612  0.2910 -0.4267 -0.3209
 3734G2HFO link44385  17.131  18.179  25.815  0.3079  0.3864 -0.2087
 3734G2HFO Tail44386  17.000  17.878  25.732 -0.3822  0.2342  0.4442
 3734G2HFO Tail44387  16.685  17.982  25.628 -0.1179 -0.0251  0.1373
 3734G2HFO Tail44388  16.396  17.855  25.677 -0.0065  0.3297 -0.2028
 3734G2HFO Tail44389  16.006  17.863  25.524  0.0917 -0.1366  0.2073
 3734G2HFO Tail44390  17.146  17.836  25.416  0.2747 -0.2871 -0.0102
 3734G2HFO Tail44391  17.036  17.932  25.197 -0.0708 -0.3148  0.1186
 3734G2HFO Tail44392  16.793  17.873  25.127  0.2157  0.1845 -0.1940
 3734G2HFO Tail44393  16.542  17.828  25.107  0.0201  0.0072  0.1019
 3734G2HFO Tail44394  16.319  17.785  25.020  0.0085 -0.2342  0.0476
 3735G2HFO Head44395  14.733  16.773  20.643  0.2358  0.0111  0.1536
 3735G2HFO Head44396  14.841  17.008  20.529  0.0460 -0.4649 -0.1000
 3735G2HFO Head44397  14.736  17.049  20.068  0.1200  0.1160 -0.1760
 3735G2HFO Head44398  15.033  17.138  20.153  0.2140  0.4661 -0.2225
 3735G2HFO Head44399  15.179  17.043  20.462  0.1423  0.2622 -0.0278
 3735G2HFO Head44400  15.512  16.217  20.044 -0.2994  0.0132  0.5796
 3735G2HFO Head44401  15.298  16.339  20.232 -0.0556  0.0445  0.2538
 3735G2HFO Head44402  14.798  16.338  20.424  0.1785 -0.0956  0.1846
 3735G2HFO Head44403  14.891  16.597  20.253  0.1022  0.0372 -0.1566
 3735G2HFO Head44404  15.229  16.688  20.255  0.1695 -0.0284 -0.3897
 3735G2HFO link44405  15.315  16.825  20.448 -0.1001 -0.2460  0.0090
 3735G2HFO link44406  15.569  16.770  20.567 -0.0241  0.0930 -0.0563
 3735G2HFO Tail44407  15.593  16.605  20.842 -0.4844  0.2204 -0.3176
 3735G2HFO Tail44408  15.926  16.634  20.924 -0.2794  0.3170 -0.3199
 3735G2HFO Tail44409  16.180  16.796  20.938  0.1900 -0.5175 -0.3877
 3735G2HFO Tail44410  16.523  16.896  20.679 -0.0305 -0.1970 -0.2425
 3735G2HFO Tail44411  15.622  16.277  20.694 -0.2417  0.2118  0.0674
 3735G2HFO Tail44412  15.805  16.217  20.522  0.2615 -0.4182 -0.1920
 3735G2HFO Tail44413  15.946  16.418  20.431 -0.1494 -0.0381  0.0022
 3735G2HFO Tail44414  16.048  16.636  20.341 -0.1592  0.0855  0.0395
 3735G2HFO Tail44415  16.099  16.861  20.302  0.0712  0.2607 -0.1096
 3736G2HFO Head44416  16.777  19.237  23.436 -0.0741  0.2664 -0.0657
 3736G2HFO Head44417  16.582  19.243  23.656  0.0621  0.0164 -0.3922
 3736G2HFO Head44418  17.174  19.594  23.939 -0.1889 -0.3707  0.2178
 3736G2HFO Head44419  16.937  19.405  23.867 -0.0708  0.3032 -0.3799
 3736G2HFO Head44420  16.595  19.467  23.922  0.3310 -0.2268  0.0327
 3736G2HFO Head44421  16.413  19.270  24.800 -0.1014  0.0561 -0.1505
 3736G2HFO Head44422  16.613  19.371  24.664  0.3411 -0.1110 -0.2950
 3736G2HFO Head44423  16.964  19.645  24.692  0.2251 -0.0649 -0.1190
 3736G2HFO Head44424  16.875  19.595  24.424 -0.4463  0.1119  0.0917
 3736G2HFO Head44425  16.626  19.361  24.314 -0.0679 -0.2866 -0.1377
 3736G2HFO link44426  16.450  19.417  24.137 -0.0276  0.5709 -0.0449
 3736G2HFO link44427  16.168  19.437  24.178  0.3824 -0.1105  0.0618
 3736G2HFO Tail44428  15.958  19.276  23.985 -0.0871  0.3098 -0.1668
 3736G2HFO Tail44429  15.686  19.514  23.972  0.0379 -0.1036  0.1556
 3736G2HFO Tail44430  15.513  19.696  24.192  0.0874 -0.0427  0.0030
 3736G2HFO Tail44431  15.438  19.719  24.625  0.2922 -0.0401 -0.1512
 3736G2HFO Tail44432  16.064  19.375  23.654 -0.0624  0.0947 -0.0202
 3736G2HFO Tail44433  16.232  19.583  23.596  0.0732 -0.1311  0.1253
 3736G2HFO Tail44434  16.289  19.743  23.795 -0.0364 -0.2793  0.2871
 3736G2HFO Tail44435  16.357  19.924  23.965 -0.3395  0.1185  0.0798
 3736G2HFO Tail44436  16.386  20.047  24.168 -0.2178  0.3547  0.3865
 3737G2HFO Head44437  19.675  19.476  20.381  0.0793 -0.0677 -0.1828
 3737G2HFO Head44438  19.763  19.229  20.467 -0.4897  0.4785  0.2133
 3737G2HFO Head44439  19.908  19.308  19.925  0.1327 -0.0888  0.1407
 3737G2HFO Head44440  19.932  19.070  20.126  0.3229 -0.6419  0.0590
 3737G2HFO Head44441  19.663  18.947  20.291  0.0521 -0.2627  0.1558
 3737G2HFO Head44442  19.064  19.611  19.932  0.3389 -0.1214 -0.4112
 3737G2HFO Head44443  19.295  19.474  20.073  0.0071  0.0658  0.2048
 3737G2HFO Head44444  19.359  19.436  19.522 -0.2743  0.1909 -0.1101
 3737G2HFO Head44445  19.287  19.245  19.721  0.1365 -0.3455 -0.4145
 3737G2HFO Head44446  19.462  19.178  19.991 -0.1142 -0.1975  0.0062
 3737G2HFO link44447  19.427  18.970  20.147 -0.2943 -0.4869  0.1196
 3737G2HFO link44448  19.233  18.762  20.135  0.2770  0.3157  0.3238
 3737G2HFO Tail44449  19.276  18.432  20.129  0.2052 -0.2612 -0.0866
 3737G2HFO Tail44450  19.366  18.394  19.800 -0.1189 -0.0142 -0.2967
 3737G2HFO Tail44451  19.520  18.199  19.583  0.2106 -0.1127  0.2123
 3737G2HFO Tail44452  19.707  17.790  19.567 -0.1967 -0.2410  0.1019
 3737G2HFO Tail44453  19.583  18.366  20.295  0.1527  0.0702 -0.1447
 3737G2HFO Tail44454  19.674  18.111  20.284  0.1130  0.0994 -0.3560
 3737G2HFO Tail44455  19.659  17.989  20.513  0.1683 -0.1842 -0.1322
 3737G2HFO Tail44456  19.686  17.896  20.755 -0.0682  0.1283  0.3505
 3737G2HFO Tail44457  19.664  17.774  20.950  0.2776 -0.3220  0.2319
 3738G2HFO Head44458  20.290  20.050  18.944  0.0111 -0.3302 -0.1589
 3738G2HFO Head44459  20.314  19.783  19.142  0.0336  0.2572  0.2703
 3738G2HFO Head44460  19.905  19.528  19.443 -0.1508 -0.1305 -0.0999
 3738G2HFO Head44461  20.167  19.437  19.345  0.2645 -0.0283  0.1899
 3738G2HFO Head44462  20.262  19.469  19.012 -0.0223 -0.4185  0.3547
 3738G2HFO Head44463  20.843  19.697  18.429  0.2788 -0.0731  0.3434
 3738G2HFO Head44464  20.894  19.482  18.648 -0.1485  0.1689  0.4812
 3738G2HFO Head44465  20.927  19.986  18.873  0.0521  0.5325  0.3223
 3738G2HFO Head44466  20.677  19.773  18.876 -0.0188  0.1170 -0.2579
 3738G2HFO Head44467  20.678  19.429  18.909  0.0228 -0.2155  0.1490
 3738G2HFO link44468  20.450  19.313  18.891 -0.2552 -0.2772 -0.0036
 3738G2HFO link44469  20.410  19.035  18.830  0.0109 -0.3496 -0.0372
 3738G2HFO Tail44470  20.646  18.851  18.681 -0.0446  0.0306 -0.3123
 3738G2HFO Tail44471  20.591  18.549  18.822  0.1658 -0.3749  0.1929
 3738G2HFO Tail44472  20.338  18.399  18.956 -0.2028 -0.3881  0.2573
 3738G2HFO Tail44473  20.097  18.046  18.892 -0.1286 -0.3454  0.2135
 3738G2HFO Tail44474  20.936  18.951  18.828 -0.4722  0.0639 -0.2280
 3738G2HFO Tail44475  20.950  19.068  19.060 -0.2890 -0.1304 -0.0971
 3738G2HFO Tail44476  21.044  19.312  19.066 -0.1419  0.2882  0.2543
 3738G2HFO Tail44477  21.154  19.543  19.074  0.2034 -0.1934 -0.0433
 3738G2HFO Tail44478  21.251  19.752  19.036  0.1283 -0.2958  0.0724
 3739G2HFO Head44479  13.556  16.787  23.634 -0.1499  0.0359 -0.2624
 3739G2HFO Head44480  13.651  16.695  23.875 -0.1421  0.2223  0.1384
 3739G2HFO Head44481  13.815  16.389  23.422 -0.1484 -0.0752  0.0167
 3739G2HFO Head44482  13.934  16.346  23.674  0.1046  0.2962  0.2330
 3739G2HFO Head44483  13.983  16.585  23.927 -0.0663 -0.1118 -0.1347
 3739G2HFO Head44484  13.517  16.279  23.944 -0.7071  0.3003 -0.0053
 3739G2HFO Head44485  13.599  16.354  24.259  0.1328 -0.0013 -0.2057
 3739G2HFO Head44486  13.909  16.181  24.694 -0.0718  0.3852 -0.3666
 3739G2HFO Head44487  13.854  16.481  24.641 -0.2738 -0.1758  0.1759
 3739G2HFO Head44488  13.864  16.593  24.315  0.5231  0.1397  0.0114
 3739G2HFO link44489  14.058  16.542  24.161 -0.0286  0.0897  0.2872
 3739G2HFO link44490  14.332  16.508  24.254  0.2514  0.0070 -0.0814
 3739G2HFO Tail44491  14.370  16.307  24.514  0.3372  0.0540  0.2459
 3739G2HFO Tail44492  14.690  16.225  24.452  0.0788 -0.2043  0.1406
 3739G2HFO Tail44493  14.943  16.372  24.318 -0.5850  0.1786  0.2322
 3739G2HFO Tail44494  15.331  16.288  24.130  0.1946  0.1113 -0.0445
 3739G2HFO Tail44495  14.417  16.545  24.785 -0.1200 -0.2531 -0.0528
 3739G2HFO Tail44496  14.237  16.751  24.809 -0.0413  0.3824 -0.2716
 3739G2HFO Tail44497  14.121  16.864  24.608 -0.1082 -0.0099  0.4603
 3739G2HFO Tail44498  14.033  17.014  24.429  0.2414 -0.0264  0.0868
 3739G2HFO Tail44499  14.009  17.162  24.247  0.0217  0.2137  0.1347
 3740G2HFO Head44500  16.957  20.216  26.638 -0.2695  0.1686  0.0107
 3740G2HFO Head44501  16.688  20.210  26.777 -0.1496 -0.1244 -0.1169
 3740G2HFO Head44502  16.521  20.790  26.946  0.0224  0.0657  0.0096
 3740G2HFO Head44503  16.381  20.493  26.887  0.2917 -0.0452  0.7388
 3740G2HFO Head44504  16.415  20.329  26.589 -0.2548  0.4891  0.0598
 3740G2HFO Head44505  17.202  20.826  26.248 -0.2461  0.3127  0.0455
 3740G2HFO Head44506  16.974  20.579  26.294  0.0006  0.2698  0.3291
 3740G2HFO Head44507  16.501  21.015  26.005  0.3026  0.0423 -0.3179
 3740G2HFO Head44508  16.706  20.870  26.113  0.1209 -0.5861  0.2245
 3740G2HFO Head44509  16.636  20.644  26.376  0.1209 -0.1041 -0.1675
 3740G2HFO link44510  16.446  20.478  26.368 -0.0830  0.3164 -0.2126
 3740G2HFO link44511  16.269  20.467  26.146 -0.1069 -0.0977  0.1821
 3740G2HFO Tail44512  16.053  20.227  26.109 -0.0735 -0.1315  0.0214
 3740G2HFO Tail44513  15.978  20.288  25.773 -0.0895  0.2969  0.1454
 3740G2HFO Tail44514  15.936  20.115  25.504 -0.1820 -0.1530 -0.0256
 3740G2HFO Tail44515  15.811  19.714  25.353 -0.1061 -0.2046  0.1651
 3740G2HFO Tail44516  15.805  20.394  26.269  0.0232  0.2397 -0.1553
 3740G2HFO Tail44517  15.859  20.502  26.511 -0.3765 -0.1590 -0.3913
 3740G2HFO Tail44518  16.047  20.674  26.531 -0.2160 -0.0475 -0.1610
 3740G2HFO Tail44519  16.231  20.845  26.505 -0.0513 -0.0505 -0.0744
 3740G2HFO Tail44520  16.407  20.989  26.554  0.1335 -0.1217  0.2462
 3741G2HFO Head44521  19.825  17.529  21.703 -0.0062  0.0065  0.0761
 3741G2HFO Head44522  20.077  17.407  21.782  0.3668 -0.2600 -0.1580
 3741G2HFO Head44523  19.992  17.491  21.122  0.6442 -0.4222  0.0499
 3741G2HFO Head44524  20.119  17.559  21.363  0.0902 -0.1597 -0.4608
 3741G2HFO Head44525  20.331  17.348  21.534  0.5006 -0.2572  0.2793
 3741G2HFO Head44526  20.711  16.753  21.971 -0.0748  0.0298  0.1196
 3741G2HFO Head44527  20.514  16.702  21.717 -0.5062  0.0734  0.1881
 3741G2HFO Head44528  20.285  16.877  22.197  0.0894 -0.1365  0.0513
 3741G2HFO Head44529  20.340  17.078  21.963  0.1621  0.2042  0.2385
 3741G2HFO Head44530  20.311  16.964  21.637  0.1019  0.0151  0.0383
 3741G2HFO link44531  20.359  17.108  21.433 -0.0857 -0.3673  0.1076
 3741G2HFO link44532  20.326  17.072  21.145  0.0768  0.0005 -0.0687
 3741G2HFO Tail44533  20.050  17.097  20.951  0.0106  0.1355  0.1608
 3741G2HFO Tail44534  20.049  16.759  20.849 -0.1496 -0.1746  0.0132
 3741G2HFO Tail44535  19.852  16.576  20.701 -0.0950  0.3398  0.1475
 3741G2HFO Tail44536  19.671  16.564  20.297  0.0659 -0.2166 -0.0494
 3741G2HFO Tail44537  20.207  17.233  20.667  0.0155 -0.0120  0.2134
 3741G2HFO Tail44538  20.424  17.395  20.706  0.0527  0.1412 -0.0638
 3741G2HFO Tail44539  20.436  17.504  20.946 -0.1196  0.0495  0.0055
 3741G2HFO Tail44540  20.498  17.588  21.176  0.2155 -0.1722  0.0230
 3741G2HFO Tail44541  20.572  17.724  21.348  0.2484  0.0408 -0.0460
 3742G2HFO Head44542  20.689  19.833  19.735  0.1172  0.1580 -0.1784
 3742G2HFO Head44543  20.830  19.579  19.762  0.2514  0.4629 -0.1252
 3742G2HFO Head44544  21.289  19.978  19.678  0.0135  0.2040  0.4721
 3742G2HFO Head44545  21.254  19.684  19.756  0.0588  0.4759 -0.1369
 3742G2HFO Head44546  21.083  19.500  19.521 -0.5952 -0.1717  0.0166
 3742G2HFO Head44547  21.728  19.726  19.540 -0.1175  0.2369  0.2202
 3742G2HFO Head44548  21.506  19.617  19.358  0.3947  0.3913 -0.0148
 3742G2HFO Head44549  21.811  19.394  19.041 -0.0848 -0.0709  0.3589
 3742G2HFO Head44550  21.535  19.323  19.067  0.2682 -0.0974  0.2292
 3742G2HFO Head44551  21.422  19.279  19.387  0.4386 -0.4288  0.3182
 3742G2HFO link44552  21.163  19.254  19.465  0.2097 -0.1858  0.1306
 3742G2HFO link44553  21.045  19.012  19.526 -0.2033  0.2709 -0.5057
 3742G2HFO Tail44554  21.021  18.757  19.301 -0.0771 -0.1735  0.1593
 3742G2HFO Tail44555  21.054  18.482  19.495  0.1690 -0.1136  0.0431
 3742G2HFO Tail44556  21.316  18.303  19.554 -0.0073 -0.1936 -0.0175
 3742G2HFO Tail44557  21.624  18.047  19.382 -0.0968  0.0164  0.3821
 3742G2HFO Tail44558  20.663  18.779  19.257 -0.2756  0.0886 -0.2137
 3742G2HFO Tail44559  20.511  18.974  19.338  0.2088 -0.2770  0.1090
 3742G2HFO Tail44560  20.570  19.232  19.311  0.1355  0.0136 -0.2648
 3742G2HFO Tail44561  20.668  19.465  19.325 -0.2118 -0.1192 -0.0698
 3742G2HFO Tail44562  20.758  19.676  19.280 -0.0398 -0.1509 -0.1960
 3743G2HFO Head44563  23.132  19.235  19.587  0.2875 -0.1231 -0.0473
 3743G2HFO Head44564  22.945  18.981  19.728 -0.2314  0.0187 -0.0427
 3743G2HFO Head44565  22.966  19.065  19.141 -0.0951 -0.0232  0.4115
 3743G2HFO Head44566  22.753  19.049  19.362 -0.0912 -0.0184  0.0546
 3743G2HFO Head44567  22.724  18.774  19.579  0.2223  0.1889  0.0160
 3743G2HFO Head44568  23.146  18.009  19.906 -0.3538 -0.0811  0.2174
 3743G2HFO Head44569  23.135  18.309  19.837 -0.2434  0.1100 -0.0753
 3743G2HFO Head44570  23.098  18.766  20.107  0.3897 -0.1586 -0.1091
 3743G2HFO Head44571  22.816  18.651  20.010 -0.3346  0.0559 -0.1159
 3743G2HFO Head44572  22.828  18.427  19.744 -0.0325 -0.3331 -0.3784
 3743G2HFO link44573  22.813  18.538  19.513  0.2694 -0.0678  0.1804
 3743G2HFO link44574  22.713  18.409  19.276  0.1300 -0.0165  0.0918
 3743G2HFO Tail44575  22.403  18.372  19.177 -0.3663 -0.6571  0.1527
 3743G2HFO Tail44576  22.312  18.115  19.353  0.1061  0.0581  0.3292
 3743G2HFO Tail44577  22.047  18.038  19.494 -0.4130  0.2852 -0.0823
 3743G2HFO Tail44578  21.846  17.682  19.624  0.1732 -0.0796 -0.0905
 3743G2HFO Tail44579  22.457  18.241  18.842  0.0005  0.0006  0.0229
 3743G2HFO Tail44580  22.678  18.083  18.800  0.2177 -0.2428  0.3428
 3743G2HFO Tail44581  22.663  17.924  18.591 -0.0521 -0.1586 -0.1194
 3743G2HFO Tail44582  22.658  17.770  18.392 -0.0490  0.1922 -0.0553
 3743G2HFO Tail44583  22.697  17.643  18.195  0.0980 -0.0920  0.2161
 3744G2HFO Head44584  15.782  17.623  24.024 -0.2092  0.0583  0.4675
 3744G2HFO Head44585  15.841  17.862  24.235 -0.5408 -0.0342  0.0346
 3744G2HFO Head44586  15.787  18.314  24.525 -0.1575 -0.0138  0.2574
 3744G2HFO Head44587  16.063  18.149  24.501 -0.2363 -0.0794  0.0956
 3744G2HFO Head44588  16.165  18.007  24.202 -0.2658 -0.3254 -0.1304
 3744G2HFO Head44589  16.277  18.455  24.212  0.0047  0.1428 -0.1236
 3744G2HFO Head44590  16.489  18.316  24.375 -0.2822 -0.1625 -0.1418
 3744G2HFO Head44591  16.905  18.145  24.738 -0.0053  0.1523  0.0601
 3744G2HFO Head44592  16.694  17.917  24.593 -0.2752 -0.2626  0.0089
 3744G2HFO Head44593  16.559  17.983  24.281 -0.2391  0.3111 -0.0428
 3744G2HFO link44594  16.372  17.853  24.181  0.2548  0.1628 -0.0046
 3744G2HFO link44595  16.410  17.630  24.007  0.2104 -0.0180 -0.1033
 3744G2HFO Tail44596  16.505  17.634  23.691 -0.1049 -0.2533 -0.3717
 3744G2HFO Tail44597  16.457  17.284  23.640  0.4059 -0.0565  0.0787
 3744G2HFO Tail44598  16.454  17.078  23.394 -0.3416 -0.0813 -0.2448
 3744G2HFO Tail44599  16.716  16.751  23.241 -0.2413 -0.2459  0.2011
 3744G2HFO Tail44600  16.222  17.737  23.507 -0.1257 -0.0418 -0.0352
 3744G2HFO Tail44601  15.983  17.764  23.627  0.2004  0.1129  0.2915
 3744G2HFO Tail44602  15.929  17.992  23.748 -0.1379  0.3040 -0.0928
 3744G2HFO Tail44603  15.873  18.182  23.904  0.3027  0.0674  0.0566
 3744G2HFO Tail44604  15.875  18.378  24.030 -0.1800 -0.4837 -0.0745
 3745G2HFO Head44605  14.347  20.172  22.970 -0.5502  0.0033  0.0698
 3745G2HFO Head44606  14.456  19.908  22.991  0.0122 -0.1520 -0.1865
 3745G2HFO Head44607  14.813  20.387  23.224  0.4583  0.3434  0.0068
 3745G2HFO Head44608  14.834  20.108  23.071 -0.0896  0.0310  0.2140
 3745G2HFO Head44609  14.696  19.837  23.235 -0.0113 -0.0906 -0.5378
 3745G2HFO Head44610  14.927  19.565  22.464 -0.2032  0.1507  0.2394
 3745G2HFO Head44611  14.917  19.755  22.746 -0.0768  0.0778 -0.0420
 3745G2HFO Head44612  15.226  20.071  22.793  0.0430  0.0263  0.1718
 3745G2HFO Head44613  15.239  19.847  23.036  0.2815 -0.0081  0.0972
 3745G2HFO Head44614  14.984  19.614  23.063  0.1582  0.2173 -0.1766
 3745G2HFO link44615  14.817  19.618  23.259  0.0120 -0.2719 -0.2390
 3745G2HFO link44616  14.660  19.380  23.322  0.0565 -0.0638  0.2761
 3745G2HFO Tail44617  14.352  19.384  23.425 -0.4045 -0.0374 -0.3799
 3745G2HFO Tail44618  14.346  19.120  23.665  0.4845 -0.4081  0.0028
 3745G2HFO Tail44619  14.390  18.811  23.651  0.0882 -0.2711 -0.4276
 3745G2HFO Tail44620  14.360  18.475  23.928  0.1806  0.0573 -0.2471
 3745G2HFO Tail44621  14.350  19.655  23.643  0.1450  0.0583 -0.0311
 3745G2HFO Tail44622  14.558  19.738  23.774  0.1304 -0.4091 -0.1092
 3745G2HFO Tail44623  14.799  19.730  23.690 -0.0437 -0.3257  0.0204
 3745G2HFO Tail44624  15.020  19.767  23.565 -0.0231 -0.0406 -0.2489
 3745G2HFO Tail44625  15.228  19.739  23.465  0.0601  0.2011  0.0545
 3746G2HFO Head44626  14.263  19.162  27.503  0.0985  0.3713  0.0240
 3746G2HFO Head44627  14.471  19.425  27.491 -0.0050  0.0704  0.1470
 3746G2HFO Head44628  14.600  19.814  27.690  0.2978  0.0447 -0.0555
 3746G2HFO Head44629  14.820  19.705  27.472  0.1401 -0.0356  0.2222
 3746G2HFO Head44630  14.768  19.395  27.305  0.2943 -0.1006 -0.0097
 3746G2HFO Head44631  15.138  19.134  28.110 -0.0432 -0.0589  0.1794
 3746G2HFO Head44632  15.189  19.203  27.803  0.4479 -0.1030  0.3275
 3746G2HFO Head44633  14.561  19.323  27.953  0.0114  0.1846 -0.1358
 3746G2HFO Head44634  14.812  19.379  27.775  0.4020 -0.2083  0.4494
 3746G2HFO Head44635  14.932  19.132  27.572  0.0481  0.1187 -0.0643
 3746G2HFO link44636  14.930  19.173  27.304  0.3049 -0.0550 -0.3276
 3746G2HFO link44637  15.146  19.131  27.128 -0.0177 -0.0847 -0.1201
 3746G2HFO Tail44638  15.324  18.854  27.174  0.2155 -0.0796 -0.1635
 3746G2HFO Tail44639  15.590  18.948  26.969 -0.0896  0.1687  0.0325
 3746G2HFO Tail44640  15.911  18.969  26.998 -0.1740  0.0426  0.0745
 3746G2HFO Tail44641  16.218  19.236  26.830 -0.2470  0.0376 -0.0730
 3746G2HFO Tail44642  15.474  18.948  27.483  0.1941  0.0868 -0.1837
 3746G2HFO Tail44643  15.570  19.189  27.513 -0.0351 -0.0856  0.2464
 3746G2HFO Tail44644  15.687  19.305  27.314 -0.0870 -0.1144 -0.1301
 3746G2HFO Tail44645  15.836  19.416  27.137  0.2534  0.5470 -0.0111
 3746G2HFO Tail44646  15.942  19.564  26.996 -0.1050  0.0228 -0.2212
 3747G2HFO Head44647  16.417  18.152  21.512 -0.2056  0.2052 -0.2083
 3747G2HFO Head44648  16.431  17.995  21.265 -0.0268  0.0985 -0.0224
 3747G2HFO Head44649  16.392  18.080  20.806 -0.1860  0.7265  0.1422
 3747G2HFO Head44650  16.277  17.781  20.883  0.2814  0.0661  0.1526
 3747G2HFO Head44651  16.197  17.726  21.218 -0.1175 -0.1396 -0.2318
 3747G2HFO Head44652  16.262  18.481  21.123  0.2925 -0.1475  0.4330
 3747G2HFO Head44653  15.985  18.367  21.232 -0.2093 -0.0452  0.0359
 3747G2HFO Head44654  15.675  18.293  21.830  0.2081  0.0455  0.2395
 3747G2HFO Head44655  15.702  18.212  21.524  0.0045 -0.0570  0.0250
 3747G2HFO Head44656  15.983  18.047  21.405  0.1369 -0.1396  0.2018
 3747G2HFO link44657  15.945  17.805  21.315 -0.3392  0.0361 -0.0699
 3747G2HFO link44658  15.684  17.738  21.238 -0.1429  0.4148 -0.2493
 3747G2HFO Tail44659  15.587  17.428  21.177  0.2706  0.2655 -0.0459
 3747G2HFO Tail44660  15.460  17.341  21.479  0.0248 -0.0109 -0.1868
 3747G2HFO Tail44661  15.579  17.239  21.755  0.1858 -0.0179  0.5081
 3747G2HFO Tail44662  15.864  16.953  21.902  0.0376 -0.0097 -0.0328
 3747G2HFO Tail44663  15.295  17.503  21.006  0.3848  0.1103  0.0699
 3747G2HFO Tail44664  15.219  17.355  20.802 -0.0613 -0.2513 -0.0972
 3747G2HFO Tail44665  15.018  17.427  20.663  0.0744  0.0901 -0.0372
 3747G2HFO Tail44666  14.812  17.456  20.517 -0.0193  0.1989 -0.2034
 3747G2HFO Tail44667  14.606  17.434  20.401 -0.3066 -0.1853 -0.3712
 3748G2HFO Head44668  17.851  16.358  26.060 -0.2004  0.0009  0.1864
 3748G2HFO Head44669  17.877  16.543  25.855  0.6321 -0.4769 -0.3613
 3748G2HFO Head44670  18.216  16.741  25.653  0.2234  0.0781 -0.2336
 3748G2HFO Head44671  18.014  16.942  25.793  0.4497  0.0188  0.0125
 3748G2HFO Head44672  17.671  16.832  25.830 -0.3566 -0.2312 -0.0669
 3748G2HFO Head44673  17.698  16.069  25.549 -0.4809 -0.0260 -0.0420
 3748G2HFO Head44674  17.538  16.315  25.684  0.2400 -0.2298 -0.3569
 3748G2HFO Head44675  17.791  16.478  25.041  0.0409  0.2620  0.0006
 3748G2HFO Head44676  17.797  16.502  25.350  0.1112 -0.3733  0.2664
 3748G2HFO Head44677  17.490  16.621  25.497 -0.0458  0.4087 -0.2070
 3748G2HFO link44678  17.483  16.859  25.630  0.1662 -0.0478 -0.0452
 3748G2HFO link44679  17.238  17.002  25.656 -0.3714 -0.3036 -0.1071
 3748G2HFO Tail44680  17.157  17.199  25.411  0.0868 -0.1388 -0.5162
 3748G2HFO Tail44681  16.952  17.443  25.562  0.4218  0.5309  0.3000
 3748G2HFO Tail44682  16.668  17.559  25.503 -0.0129 -0.3446 -0.0514
 3748G2HFO Tail44683  16.252  17.443  25.449 -0.2133 -0.2520 -0.0856
 3748G2HFO Tail44684  17.450  17.344  25.360  0.3214 -0.1941 -0.0701
 3748G2HFO Tail44685  17.648  17.273  25.503 -0.0536  0.2418 -0.4902
 3748G2HFO Tail44686  17.828  17.108  25.410  0.4280  0.2742 -0.0192
 3748G2HFO Tail44687  17.979  16.941  25.301 -0.2045 -0.0180  0.1258
 3748G2HFO Tail44688  18.106  16.831  25.149 -0.1517  0.1113 -0.0292
 3749G2HFO Head44689  21.004  15.470  21.254 -0.0664  0.2035  0.0598
 3749G2HFO Head44690  20.724  15.411  21.269 -0.0690  0.1306 -0.1009
 3749G2HFO Head44691  20.979  14.644  21.180 -0.3806  0.2097 -0.0081
 3749G2HFO Head44692  20.918  14.993  21.139  0.0474 -0.0935  0.1817
 3749G2HFO Head44693  20.590  15.110  21.157  0.0241 -0.1486  0.2871
 3749G2HFO Head44694  21.043  14.793  21.764 -0.1528 -0.0690  0.0493
 3749G2HFO Head44695  20.849  14.738  21.587 -0.2057  0.1680  0.0983
 3749G2HFO Head44696  20.728  15.484  21.750 -0.2293 -0.2911 -0.2555
 3749G2HFO Head44697  20.798  15.187  21.646 -0.0020 -0.1377 -0.0694
 3749G2HFO Head44698  20.568  14.961  21.557 -0.1636  0.2594 -0.1923
 3749G2HFO link44699  20.442  14.972  21.327 -0.0188 -0.2157  0.1204
 3749G2HFO link44700  20.183  14.877  21.262  0.1950  0.6001  0.2810
 3749G2HFO Tail44701  20.011  14.973  20.997  0.1246  0.2424 -0.0611
 3749G2HFO Tail44702  20.272  15.085  20.806 -0.0940 -0.1233 -0.1658
 3749G2HFO Tail44703  20.323  15.137  20.499 -0.7568 -0.3668  0.0031
 3749G2HFO Tail44704  20.164  15.373  20.182 -0.0338 -0.8926 -0.0881
 3749G2HFO Tail44705  19.885  15.272  21.090  0.1067 -0.1397  0.1606
 3749G2HFO Tail44706  19.840  15.443  20.894  0.0735 -0.0067 -0.1238
 3749G2HFO Tail44707  20.042  15.534  20.771 -0.0206  0.0864  0.0356
 3749G2HFO Tail44708  20.252  15.585  20.634  0.0060  0.3737 -0.1022
 3749G2HFO Tail44709  20.414  15.646  20.465 -0.0812  0.0863  0.0278
 3750G2HFO Head44710  16.768  18.208  22.914 -0.3234  0.0273  0.2254
 3750G2HFO Head44711  16.726  18.498  22.994  0.0918 -0.2727 -0.3794
 3750G2HFO Head44712  16.792  18.965  22.999  0.2236  0.1431  0.0015
 3750G2HFO Head44713  16.525  18.876  23.031 -0.4100  0.0241 -0.2407
 3750G2HFO Head44714  16.476  18.585  23.223 -0.1150  0.0254  0.1397
 3750G2HFO Head44715  17.154  18.510  23.115  0.2404 -0.0975 -0.3655
 3750G2HFO Head44716  17.084  18.403  23.387  0.2696 -0.0787 -0.3147
 3750G2HFO Head44717  17.240  18.185  23.765 -0.0705  0.0255 -0.4788
 3750G2HFO Head44718  16.895  18.270  23.781 -0.0173 -0.4908  0.6934
 3750G2HFO Head44719  16.739  18.387  23.489 -0.3439 -0.2927 -0.1769
 3750G2HFO link44720  16.566  18.587  23.469 -0.1163 -0.3253 -0.0853
 3750G2HFO link44721  16.491  18.788  23.655 -0.0951  0.0306  0.1384
 3750G2HFO Tail44722  16.208  18.952  23.628  0.1917  0.0091 -0.1387
 3750G2HFO Tail44723  16.033  18.776  23.889 -0.0355  0.3302  0.1358
 3750G2HFO Tail44724  15.950  18.832  24.203  0.1601 -0.5237  0.2001
 3750G2HFO Tail44725  16.059  18.731  24.605 -0.1850  0.0437  0.2038
 3750G2HFO Tail44726  16.059  18.769  23.365  0.4946  0.4600  0.2618
 3750G2HFO Tail44727  16.054  18.514  23.382  0.3075  0.1695 -0.1363
 3750G2HFO Tail44728  16.190  18.390  23.570  0.2562  0.2390  0.0575
 3750G2HFO Tail44729  16.353  18.266  23.719  0.2239  0.0805 -0.0898
 3750G2HFO Tail44730  16.470  18.091  23.825  0.0809 -0.2394 -0.1101
 3751G2HFO Head44731  15.033  17.440  19.862 -0.0689  0.1532 -0.1674
 3751G2HFO Head44732  15.323  17.476  19.998 -0.0168 -0.1796  0.1270
 3751G2HFO Head44733  14.887  17.810  20.194  0.1475  0.0296  0.1015
 3751G2HFO Head44734  15.215  17.785  20.312 -0.0781  0.1085  0.0449
 3751G2HFO Head44735  15.360  17.479  20.345 -0.4424 -0.3680 -0.2742
 3751G2HFO Head44736  15.192  18.020  20.667 -0.1170 -0.3748  0.1551
 3751G2HFO Head44737  15.486  17.876  20.750  0.1049 -0.0486 -0.0935
 3751G2HFO Head44738  15.893  18.054  20.896  0.1828 -0.0113  0.2989
 3751G2HFO Head44739  15.901  17.780  20.755  0.0249  0.1122 -0.3703
 3751G2HFO Head44740  15.671  17.700  20.509 -0.3018  0.2778  0.1458
 3751G2HFO link44741  15.582  17.457  20.463 -0.5970 -0.4429  0.1272
 3751G2HFO link44742  15.625  17.252  20.647  0.2031  0.0417 -0.2709
 3751G2HFO Tail44743  15.913  17.131  20.742  0.3450 -0.4057 -0.0684
 3751G2HFO Tail44744  15.983  17.270  21.064 -0.1349  0.0327 -0.3011
 3751G2HFO Tail44745  16.129  17.116  21.306  0.0689 -0.3316  0.0206
 3751G2HFO Tail44746  16.136  16.707  21.457 -0.0267 -0.1828 -0.3390
 3751G2HFO Tail44747  16.120  17.345  20.536  0.1534 -0.0897 -0.1141
 3751G2HFO Tail44748  16.376  17.354  20.598  0.1272  0.1923  0.0224
 3751G2HFO Tail44749  16.462  17.347  20.834 -0.1164 -0.0174 -0.1758
 3751G2HFO Tail44750  16.516  17.313  21.079 -0.2853 -0.2048  0.0681
 3751G2HFO Tail44751  16.569  17.347  21.303 -0.0957  0.2355 -0.0154
 3752G2HFO Head44752  17.759  18.611  27.980  0.0042 -0.0475 -0.2130
 3752G2HFO Head44753  17.917  18.628  27.755  0.1472 -0.1685 -0.2069
 3752G2HFO Head44754  17.868  18.115  28.131 -0.0685 -0.0102 -0.5434
 3752G2HFO Head44755  17.816  18.214  27.803  0.0454 -0.4531 -0.4773
 3752G2HFO Head44756  18.055  18.355  27.598 -0.0526  0.1570  0.0577
 3752G2HFO Head44757  18.765  18.382  27.507  0.1264  0.2319  0.2156
 3752G2HFO Head44758  18.520  18.225  27.513  0.1680 -0.1511  0.1051
 3752G2HFO Head44759  18.697  17.882  27.125 -0.0830 -0.1272  0.1370
 3752G2HFO Head44760  18.391  17.934  27.183  0.0232 -0.0115 -0.0275
 3752G2HFO Head44761  18.295  18.249  27.255  0.0648 -0.1213 -0.1887
 3752G2HFO link44762  18.030  18.330  27.321  0.2214 -0.1460 -0.0373
 3752G2HFO link44763  17.805  18.213  27.176 -0.4866 -0.0811 -0.2150
 3752G2HFO Tail44764  17.500  18.246  27.306  0.0895 -0.0971  0.0357
 3752G2HFO Tail44765  17.527  17.948  27.504 -0.0999  0.1961  0.2616
 3752G2HFO Tail44766  17.478  17.631  27.480 -0.0147 -0.3350 -0.0237
 3752G2HFO Tail44767  17.139  17.357  27.492  0.0627  0.2864 -0.4225
 3752G2HFO Tail44768  17.553  18.458  27.555 -0.0593  0.1885  0.3485
 3752G2HFO Tail44769  17.359  18.514  27.705  0.0520  0.1509 -0.2911
 3752G2HFO Tail44770  17.108  18.422  27.669 -0.1502  0.0594  0.1408
 3752G2HFO Tail44771  16.863  18.362  27.635 -0.2050  0.2061  0.2149
 3752G2HFO Tail44772  16.649  18.310  27.551  0.0259 -0.4023 -0.0077
 3753G2HFO Head44773  19.485  16.688  22.169  0.1462 -0.1319  0.0093
 3753G2HFO Head44774  19.195  16.579  22.051 -0.2669 -0.4952  0.0622
 3753G2HFO Head44775  19.163  16.751  22.692 -0.2131  0.0328 -0.2681
 3753G2HFO Head44776  19.104  16.776  22.419 -0.4520 -0.0457  0.1125
 3753G2HFO Head44777  18.881  16.591  22.217  0.4926  0.2321  0.5498
 3753G2HFO Head44778  18.897  17.195  22.696  0.0330  0.1865 -0.0509
 3753G2HFO Head44779  18.740  16.927  22.578 -0.0789 -0.4623 -0.0384
 3753G2HFO Head44780  19.172  17.132  22.058 -0.2539  0.1589  0.1382
 3753G2HFO Head44781  18.891  17.171  22.224  0.2732  0.0892 -0.2361
 3753G2HFO Head44782  18.652  16.927  22.257  0.0709  0.3149  0.3204
 3753G2HFO link44783  18.672  16.693  22.110 -0.1826  0.0482  0.6094
 3753G2HFO link44784  18.461  16.536  22.006 -0.0784 -0.0929 -0.0158
 3753G2HFO Tail44785  18.189  16.659  21.873  0.0312 -0.2325  0.3378
 3753G2HFO Tail44786  17.986  16.379  21.829 -0.1699 -0.0112 -0.0584
 3753G2HFO Tail44787  17.671  16.337  21.844 -0.3383  0.1713 -0.0125
 3753G2HFO Tail44788  17.334  16.555  21.980 -0.2175  0.0704 -0.5185
 3753G2HFO Tail44789  18.040  16.790  22.173  0.0004 -0.0508  0.1286
 3753G2HFO Tail44790  18.075  16.678  22.408 -0.0448 -0.0245 -0.1018
 3753G2HFO Tail44791  18.313  16.617  22.474  0.2277 -0.0246 -0.0404
 3753G2HFO Tail44792  18.550  16.522  22.510 -0.0090 -0.0872 -0.1434
 3753G2HFO Tail44793  18.764  16.472  22.587  0.1143 -0.0313 -0.0209
 3754G2HFO Head44794  15.401  19.438  23.172 -0.1438 -0.0919 -0.1878
 3754G2HFO Head44795  15.574  19.379  23.444  0.0321 -0.1771 -0.5101
 3754G2HFO Head44796  15.932  19.501  23.173 -0.1087  0.3717  0.0223
 3754G2HFO Head44797  15.892  19.197  23.218 -0.2473  0.4415  0.0973
 3754G2HFO Head44798  15.734  19.075  23.501  0.1365 -0.6943 -0.2658
 3754G2HFO Head44799  15.046  18.507  23.172  0.0635 -0.2297 -0.1125
 3754G2HFO Head44800  15.313  18.642  23.091 -0.3253  0.1795 -0.2147
 3754G2HFO Head44801  15.621  18.888  22.739  0.0076 -0.1074  0.2348
 3754G2HFO Head44802  15.449  19.054  22.992  0.5272  0.0838  0.0728
 3754G2HFO Head44803  15.406  18.896  23.308 -0.0921 -0.0175 -0.0517
 3754G2HFO link44804  15.598  18.839  23.500  0.2232 -0.1335  0.1923
 3754G2HFO link44805  15.660  18.603  23.651  0.1549  0.1416  0.2019
 3754G2HFO Tail44806  15.429  18.434  23.824 -0.1918 -0.1065  0.4282
 3754G2HFO Tail44807  15.152  18.612  23.694  0.0538  0.1281  0.2066
 3754G2HFO Tail44808  14.973  18.837  23.802 -0.0388 -0.2403  0.2140
 3754G2HFO Tail44809  14.616  18.912  24.054 -0.0008  0.0176 -0.0534
 3754G2HFO Tail44810  15.382  18.155  23.621  0.4473  0.0302 -0.0750
 3754G2HFO Tail44811  15.433  18.149  23.355 -0.1264 -0.0777  0.2729
 3754G2HFO Tail44812  15.611  18.300  23.242  0.1848 -0.0168 -0.0824
 3754G2HFO Tail44813  15.751  18.457  23.097  0.3797 -0.0691  0.1590
 3754G2HFO Tail44814  15.875  18.549  22.915  0.1029  0.0414  0.0694
 3755G2HFO Head44815  18.736  16.183  17.506  0.2975  0.1580  0.0558
 3755G2HFO Head44816  19.000  16.281  17.523  0.0595  0.0389  0.3918
 3755G2HFO Head44817  18.639  16.889  17.564  0.0829 -0.2640 -0.2422
 3755G2HFO Head44818  18.728  16.594  17.604  0.0880 -0.4186 -0.3187
 3755G2HFO Head44819  19.036  16.560  17.739 -0.1694  0.0010 -0.0782
 3755G2HFO Head44820  18.383  16.448  18.200  0.0536 -0.0552 -0.0781
 3755G2HFO Head44821  18.588  16.333  17.998 -0.3168  0.2180 -0.1012
 3755G2HFO Head44822  19.079  15.841  17.971 -0.2594 -0.0361 -0.3288
 3755G2HFO Head44823  18.912  16.076  17.889  0.1617  0.3865  0.3795
 3755G2HFO Head44824  18.922  16.351  18.110 -0.2413  0.1857 -0.1241
 3755G2HFO link44825  19.071  16.559  18.020 -0.2273 -0.2207  0.7145
 3755G2HFO link44826  19.255  16.722  18.181 -0.0727  0.2902  0.0098
 3755G2HFO Tail44827  19.192  16.758  18.507  0.0913  0.4382  0.4063
 3755G2HFO Tail44828  19.204  17.101  18.542 -0.2120 -0.0604 -0.1365
 3755G2HFO Tail44829  19.408  17.323  18.689 -0.2127 -0.0958  0.2116
 3755G2HFO Tail44830  19.608  17.693  18.604 -0.0671 -0.2023  0.1534
 3755G2HFO Tail44831  18.854  16.712  18.492  0.0167 -0.0552 -0.2609
 3755G2HFO Tail44832  18.691  16.887  18.609  0.3501  0.0781 -0.0424
 3755G2HFO Tail44833  18.443  16.871  18.520 -0.2125  0.0898 -0.1692
 3755G2HFO Tail44834  18.192  16.897  18.473  0.4577  0.1611  0.2979
 3755G2HFO Tail44835  17.983  16.933  18.366 -0.2448 -0.2225  0.0645
 3756G2HFO Head44836  16.333  14.647  18.909 -0.1499 -0.0117  0.1642
 3756G2HFO Head44837  16.607  14.784  18.869  0.1432  0.4169 -0.0621
 3756G2HFO Head44838  16.928  14.136  18.806  0.1483  0.1025 -0.4149
 3756G2HFO Head44839  16.765  14.398  18.914  0.1707  0.0619  0.3738
 3756G2HFO Head44840  16.894  14.691  19.048 -0.3726  0.0142 -0.3960
 3756G2HFO Head44841  17.249  14.916  18.231 -0.1675 -0.2989 -0.1266
 3756G2HFO Head44842  17.272  14.947  18.536  0.0876 -0.0380  0.5717
 3756G2HFO Head44843  16.697  14.575  18.508  0.2399 -0.0576 -0.0328
 3756G2HFO Head44844  16.881  14.782  18.544  0.1626 -0.1497  0.0007
 3756G2HFO Head44845  17.158  14.714  18.746  0.0345  0.0124 -0.0832
 3756G2HFO link44846  17.140  14.793  19.004  0.1914  0.4013 -0.1790
 3756G2HFO link44847  17.208  15.061  19.076  0.3402  0.2570 -0.2522
 3756G2HFO Tail44848  17.449  15.265  18.973  0.3138  0.0962 -0.3351
 3756G2HFO Tail44849  17.637  15.243  19.288 -0.0770 -0.4024  0.1920
 3756G2HFO Tail44850  17.712  15.449  19.531  0.1683  0.1368 -0.1033
 3756G2HFO Tail44851  17.642  15.882  19.633  0.0535  0.3341 -0.0013
 3756G2HFO Tail44852  17.652  15.038  18.789 -0.0917  0.0632 -0.2070
 3756G2HFO Tail44853  17.913  15.040  18.781  0.0079 -0.2060 -0.2782
 3756G2HFO Tail44854  18.056  15.077  18.994 -0.0899  0.0556 -0.0698
 3756G2HFO Tail44855  18.177  15.154  19.204  0.2895 -0.2258 -0.1160
 3756G2HFO Tail44856  18.223  15.221  19.426  0.1130  0.2040  0.0858
 3757G2HFO Head44857  19.064  14.653  17.945  0.1327  0.0561 -0.0785
 3757G2HFO Head44858  18.779  14.729  17.923 -0.0411  0.3109  0.4697
 3757G2HFO Head44859  18.418  14.790  17.579  0.0159  0.3336  0.3273
 3757G2HFO Head44860  18.337  14.744  17.891  0.0707  0.6545  0.1307
 3757G2HFO Head44861  18.537  14.537  18.093  0.0880  0.3334  0.2580
 3757G2HFO Head44862  18.305  13.817  18.699 -0.0784  0.1088  0.0647
 3757G2HFO Head44863  18.382  14.126  18.734 -0.1548 -0.1389 -0.0378
 3757G2HFO Head44864  18.652  13.824  18.196 -0.2335 -0.0698 -0.1265
 3757G2HFO Head44865  18.409  13.986  18.303  0.1108  0.2470 -0.4222
 3757G2HFO Head44866  18.400  14.287  18.436 -0.3320 -0.1030 -0.1488
 3757G2HFO link44867  18.533  14.502  18.356  0.1257 -0.0870  0.0888
 3757G2HFO link44868  18.637  14.690  18.546  0.1442  0.0003  0.1557
 3757G2HFO Tail44869  18.662  15.010  18.467 -0.1498  0.1630 -0.3312
 3757G2HFO Tail44870  18.950  15.014  18.269 -0.1833  0.3092  0.3925
 3757G2HFO Tail44871  19.208  15.188  18.242  0.0895 -0.2497  0.4464
 3757G2HFO Tail44872  19.589  15.252  18.446  0.0877  0.2250  0.3220
 3757G2HFO Tail44873  18.408  15.031  18.235 -0.0468 -0.2047  0.1591
 3757G2HFO Tail44874  18.183  14.910  18.271 -0.1100  0.1366 -0.0786
 3757G2HFO Tail44875  18.166  14.768  18.485  0.0531 -0.0811  0.0017
 3757G2HFO Tail44876  18.159  14.579  18.664 -0.0764 -0.0430  0.1098
 3757G2HFO Tail44877  18.093  14.436  18.837 -0.1705 -0.2690 -0.1008
 3758G2HFO Head44878  15.727  21.623  27.658  0.0767  0.0567 -0.2755
 3758G2HFO Head44879  16.010  21.507  27.520 -0.1638  0.0580  0.0307
 3758G2HFO Head44880  16.378  21.607  27.268  0.1132  0.2219  0.0791
 3758G2HFO Head44881  16.195  21.413  27.151  0.0286  0.1022  0.1188
 3758G2HFO Head44882  15.988  21.212  27.336 -0.1871  0.1258 -0.2798
 3758G2HFO Head44883  15.246  21.653  27.416 -0.0050  0.1510 -0.0838
 3758G2HFO Head44884  15.287  21.359  27.288  0.0770  0.0556  0.1622
 3758G2HFO Head44885  15.178  20.722  27.599  0.1134  0.1713  0.0273
 3758G2HFO Head44886  15.335  20.902  27.349  0.0261  0.2263  0.3526
 3758G2HFO Head44887  15.567  21.162  27.389 -0.4347 -0.5087  0.1742
 3758G2HFO link44888  15.778  21.164  27.225  0.4742 -0.1537  0.3344
 3758G2HFO link44889  15.751  21.129  26.939 -0.0997 -0.2417 -0.1652
 3758G2HFO Tail44890  15.677  20.848  26.786 -0.2161 -0.6849  0.1616
 3758G2HFO Tail44891  15.666  20.999  26.462 -0.5048  0.2417 -0.0048
 3758G2HFO Tail44892  15.864  20.974  26.215 -0.3576  0.3980  0.0523
 3758G2HFO Tail44893  15.914  20.742  25.851 -0.1300 -0.0122  0.2060
 3758G2HFO Tail44894  15.353  20.873  26.884 -0.1675  0.2715  0.2184
 3758G2HFO Tail44895  15.188  21.019  26.750  0.1596 -0.5317  0.3558
 3758G2HFO Tail44896  15.196  21.281  26.771  0.0818  0.0637  0.0369
 3758G2HFO Tail44897  15.226  21.534  26.822  0.1914  0.0689  0.1100
 3758G2HFO Tail44898  15.237  21.752  26.923 -0.0040  0.2559  0.3058
 3759G2HFO Head44899  14.641  16.643  21.850  0.0979 -0.0164 -0.1266
 3759G2HFO Head44900  14.584  16.951  22.016  0.0929  0.2233 -0.2137
 3759G2HFO Head44901  13.962  16.841  22.175 -0.3296 -0.1952  0.0600
 3759G2HFO Head44902  14.254  16.765  22.157  0.1109  0.0539  0.1801
 3759G2HFO Head44903  14.490  16.932  22.343 -0.0006 -0.0549  0.2963
 3759G2HFO Head44904  13.860  17.653  22.229 -0.0402 -0.0082 -0.0259
 3759G2HFO Head44905  13.955  17.363  22.223  0.1346 -0.3951  0.0919
 3759G2HFO Head44906  14.583  17.296  21.756  0.0856  0.1464  0.1766
 3759G2HFO Head44907  14.280  17.242  21.947 -0.3862 -0.1001 -0.0536
 3759G2HFO Head44908  14.284  17.299  22.300 -0.0647 -0.0463 -0.0320
 3759G2HFO link44909  14.410  17.153  22.469 -0.1269  0.1989 -0.0532
 3759G2HFO link44910  14.434  17.235  22.737 -0.0987  0.2915 -0.2385
 3759G2HFO Tail44911  14.380  17.005  22.978  0.2111 -0.1801  0.0336
 3759G2HFO Tail44912  14.594  17.098  23.255  0.0187 -0.2951  0.2486
 3759G2HFO Tail44913  14.565  17.285  23.516  0.3548  0.0528  0.1586
 3759G2HFO Tail44914  14.732  17.646  23.705  0.0549 -0.0331 -0.2298
 3759G2HFO Tail44915  14.545  16.745  22.842  0.1434  0.1218 -0.2322
 3759G2HFO Tail44916  14.650  16.545  22.994 -0.1453 -0.1142 -0.0188
 3759G2HFO Tail44917  14.560  16.303  22.965 -0.1739  0.0160  0.1637
 3759G2HFO Tail44918  14.479  16.064  22.909 -0.1968  0.0025 -0.2060
 3759G2HFO Tail44919  14.351  15.871  22.861 -0.2643 -0.0401 -0.2070
 3760G2HFO Head44920  18.102  16.177  26.464  0.0953  0.1086  0.3848
 3760G2HFO Head44921  17.772  16.199  26.452  0.1729  0.1329  0.0497
 3760G2HFO Head44922  17.909  15.784  26.962  0.5560 -0.2932  0.2296
 3760G2HFO Head44923  17.881  15.837  26.693  0.0829 -0.3427  0.2028
 3760G2HFO Head44924  17.576  15.922  26.543 -0.0910 -0.2445  0.1913
 3760G2HFO Head44925  17.968  15.726  25.736  0.2371 -0.0405 -0.2786
 3760G2HFO Head44926  17.745  15.821  25.924  0.3888 -0.1051  0.2753
 3760G2HFO Head44927  17.961  15.208  26.012 -0.3155 -0.1412  0.0022
 3760G2HFO Head44928  17.672  15.405  26.014  0.0238 -0.2886  0.0206
 3760G2HFO Head44929  17.681  15.671  26.214  0.0232 -0.0857  0.0936
 3760G2HFO link44930  17.483  15.747  26.353  0.0821 -0.0904 -0.0862
 3760G2HFO link44931  17.217  15.671  26.321 -0.1444  0.2860  0.2304
 3760G2HFO Tail44932  17.150  15.504  26.048 -0.1171 -0.2672  0.0027
 3760G2HFO Tail44933  16.814  15.591  26.008  0.2909  0.3412  0.3090
 3760G2HFO Tail44934  16.679  15.757  25.762  0.0864 -0.2332  0.3822
 3760G2HFO Tail44935  16.624  16.155  25.625 -0.2251 -0.2772  0.2209
 3760G2HFO Tail44936  17.310  15.702  25.816 -0.4835  0.1548  0.1020
 3760G2HFO Tail44937  17.317  15.963  25.814 -0.1554  0.0973  0.1488
 3760G2HFO Tail44938  17.352  16.107  26.025 -0.0626  0.1421 -0.2262
 3760G2HFO Tail44939  17.339  16.223  26.250 -0.0193  0.1357 -0.2591
 3760G2HFO Tail44940  17.371  16.346  26.447 -0.0371  0.0341 -0.4278
 3761G2HFO Head44941  16.388  20.544  25.556  0.1574  0.0818 -0.3521
 3761G2HFO Head44942  16.600  20.344  25.625  0.0653 -0.1886 -0.0902
 3761G2HFO Head44943  16.181  19.990  25.091  0.0117  0.1175 -0.0084
 3761G2HFO Head44944  16.404  20.189  25.285  0.2827 -0.0940  0.1763
 3761G2HFO Head44945  16.687  20.058  25.449  0.1754 -0.0842 -0.2723
 3761G2HFO Head44946  17.349  19.850  25.095  0.0957  0.1717  0.0426
 3761G2HFO Head44947  17.231  19.891  25.383 -0.0000 -0.1011  0.1993
 3761G2HFO Head44948  16.945  19.306  25.052 -0.3767  0.4342  0.2149
 3761G2HFO Head44949  16.928  19.632  25.130  0.2087  0.2790  0.1533
 3761G2HFO Head44950  16.934  19.715  25.475  0.5262 -0.1597 -0.0240
 3761G2HFO link44951  16.728  19.828  25.579 -0.2011 -0.0720 -0.3036
 3761G2HFO link44952  16.668  19.778  25.849  0.1798  0.4765  0.2091
 3761G2HFO Tail44953  16.740  19.486  25.978  0.0787  0.1972  0.4184
 3761G2HFO Tail44954  16.452  19.322  25.901  0.0105 -0.1219  0.2317
 3761G2HFO Tail44955  16.247  19.146  26.070  0.1794 -0.1271 -0.3804
 3761G2HFO Tail44956  16.245  18.813  26.357 -0.1388  0.2108  0.2323
 3761G2HFO Tail44957  16.943  19.365  25.744 -0.0958 -0.0463 -0.0120
 3761G2HFO Tail44958  16.847  19.304  25.505  0.6744 -0.0164  0.2080
 3761G2HFO Tail44959  16.597  19.380  25.447 -0.1075 -0.0241  0.1122
 3761G2HFO Tail44960  16.375  19.454  25.354  0.3606  0.2595 -0.1551
 3761G2HFO Tail44961  16.204  19.511  25.203 -0.0417 -0.1542 -0.0835
 3762G2HFO Head44962  13.128  18.754  22.969 -0.0278 -0.2521 -0.4472
 3762G2HFO Head44963  13.336  18.549  23.008 -0.2709  0.2205 -0.0960
 3762G2HFO Head44964  13.506  18.487  23.636 -0.4046  0.3213 -0.0657
 3762G2HFO Head44965  13.544  18.413  23.340 -0.0155  0.0998 -0.3954
 3762G2HFO Head44966  13.676  18.631  23.092  0.2127 -0.0272  0.0691
 3762G2HFO Head44967  13.369  18.127  22.817  0.2138 -0.0583  0.0830
 3762G2HFO Head44968  13.472  18.317  22.623 -0.1718  0.4235  0.5256
 3762G2HFO Head44969  13.235  18.668  22.448  0.0451  0.0130 -0.1295
 3762G2HFO Head44970  13.586  18.708  22.471  0.2842 -0.1467 -0.3634
 3762G2HFO Head44971  13.772  18.480  22.690  0.0844 -0.2334  0.1189
 3762G2HFO link44972  13.861  18.546  22.937  0.0080  0.0505  0.1699
 3762G2HFO link44973  14.125  18.493  23.021  0.1333 -0.0476  0.5611
 3762G2HFO Tail44974  14.257  18.642  23.282  0.2620  0.0089 -0.1609
 3762G2HFO Tail44975  14.441  18.364  23.437 -0.1591 -0.2523  0.1336
 3762G2HFO Tail44976  14.741  18.381  23.555  0.0639 -0.1261 -0.0797
 3762G2HFO Tail44977  14.900  18.289  23.956 -0.2078  0.3008 -0.0772
 3762G2HFO Tail44978  13.968  18.610  23.476  0.1101  0.0040 -0.1119
 3762G2HFO Tail44979  13.978  18.407  23.648  0.2110 -0.0819 -0.0406
 3762G2HFO Tail44980  13.912  18.169  23.571 -0.2289  0.1367 -0.0300
 3762G2HFO Tail44981  13.878  17.918  23.521  0.0869 -0.3900  0.1415
 3762G2HFO Tail44982  13.908  17.695  23.509  0.0981  0.2577 -0.0385
 3763G2HFO Head44983  16.297  20.309  23.414  0.3488 -0.0114  0.3556
 3763G2HFO Head44984  16.528  20.162  23.538 -0.0093 -0.1538  0.3367
 3763G2HFO Head44985  17.004  20.292  23.386  0.0436 -0.0015 -0.0452
 3763G2HFO Head44986  16.793  20.455  23.576  0.2306 -0.0248  0.1604
 3763G2HFO Head44987  16.627  20.285  23.838  0.2071  0.2557  0.2912
 3763G2HFO Head44988  17.033  20.587  23.935  0.0962  0.0546 -0.1610
 3763G2HFO Head44989  16.903  20.483  24.176  0.0343 -0.2365  0.1396
 3763G2HFO Head44990  16.855  19.932  24.108  0.3282  0.2963  0.0332
 3763G2HFO Head44991  16.759  20.140  24.315 -0.0673  0.0926  0.1194
 3763G2HFO Head44992  16.576  20.423  24.208  0.1143 -0.2364 -0.0795
 3763G2HFO link44993  16.466  20.419  23.984  0.2129  0.3207  0.0759
 3763G2HFO link44994  16.187  20.490  23.928 -0.0482  0.3064 -0.2622
 3763G2HFO Tail44995  16.007  20.581  24.176  0.2826  0.0892 -0.3447
 3763G2HFO Tail44996  16.115  20.366  24.439  0.2719 -0.0575  0.1617
 3763G2HFO Tail44997  16.000  20.284  24.730 -0.3219 -0.0519 -0.1467
 3763G2HFO Tail44998  15.943  20.399  25.140  0.2289  0.1840 -0.4369
 3763G2HFO Tail44999  15.701  20.446  24.096  0.2149  0.3057  0.0252
 3763G2HFO Tail45000  15.630  20.210  24.179 -0.2383  0.1117 -0.1422
 3763G2HFO Tail45001  15.610  20.177  24.434  0.3397  0.0926  0.1885
 3763G2HFO Tail45002  15.552  20.165  24.691 -0.0716  0.1520 -0.0174
 3763G2HFO Tail45003  15.450  20.177  24.908 -0.2751  0.0000  0.3186
 3764G2HFO Head45004  15.407  20.374  27.843  0.0585  0.4283 -0.0816
 3764G2HFO Head45005  15.450  20.202  27.568 -0.3087  0.1897 -0.1777
 3764G2HFO Head45006  15.675  20.719  27.649 -0.0618 -0.1744 -0.1246
 3764G2HFO Head45007  15.842  20.499  27.503  0.0749 -0.5905  0.2971
 3764G2HFO Head45008  15.781  20.160  27.468  0.0810  0.0744  0.0178
 3764G2HFO Head45009  15.267  19.505  27.460 -0.2357  0.2276 -0.1350
 3764G2HFO Head45010  15.372  19.765  27.344  0.2105 -0.4410  0.4101
 3764G2HFO Head45011  15.625  19.921  27.909  0.2317 -0.0074  0.1213
 3764G2HFO Head45012  15.666  19.710  27.671 -0.1129 -0.4135 -0.0107
 3764G2HFO Head45013  15.719  19.779  27.332  0.0735 -0.0362 -0.0369
 3764G2HFO link45014  15.812  20.023  27.253 -0.3935  0.2605 -0.0118
 3764G2HFO link45015  16.027  20.054  27.086 -0.3701  0.0657  0.5395
 3764G2HFO Tail45016  15.984  20.227  26.814  0.0294 -0.3433 -0.1945
 3764G2HFO Tail45017  15.977  19.954  26.621  0.3644  0.1216 -0.3225
 3764G2HFO Tail45018  16.002  19.864  26.316  0.0660  0.0816  0.3380
 3764G2HFO Tail45019  15.728  19.878  25.967 -0.1760  0.0316 -0.1176
 3764G2HFO Tail45020  15.649  20.267  26.800  0.2721  0.0456  0.6674
 3764G2HFO Tail45021  15.498  20.116  26.965  0.1942  0.0899  0.3235
 3764G2HFO Tail45022  15.466  19.867  26.915  0.0266 -0.1855 -0.0572
 3764G2HFO Tail45023  15.478  19.622  26.876 -0.1245  0.1969 -0.0152
 3764G2HFO Tail45024  15.463  19.397  26.914 -0.0316  0.1802 -0.1566
 3765G2HFO Head45025  17.030  14.142  20.457 -0.1293 -0.5187  0.0104
 3765G2HFO Head45026  17.176  14.357  20.307  0.6547 -0.1187  0.2346
 3765G2HFO Head45027  17.505  14.136  20.823  0.1722  0.1751 -0.0709
 3765G2HFO Head45028  17.524  14.174  20.537 -0.3599 -0.3407  0.1400
 3765G2HFO Head45029  17.493  14.495  20.397  0.0841  0.0743  0.4000
 3765G2HFO Head45030  17.405  13.992  20.135 -0.2246 -0.2216 -0.3138
 3765G2HFO Head45031  17.540  14.160  19.966 -0.4074 -0.0910  0.2546
 3765G2HFO Head45032  17.068  14.214  19.898  0.1875  0.0496  0.0522
 3765G2HFO Head45033  17.219  14.496  19.943 -0.0403 -0.0746  0.2275
 3765G2HFO Head45034  17.564  14.490  20.009 -0.2225  0.0178  0.3492
 3765G2HFO link45035  17.688  14.557  20.226  0.0417  0.2403  0.1151
 3765G2HFO link45036  17.864  14.788  20.241  0.0936  0.1383 -0.1241
 3765G2HFO Tail45037  18.199  14.761  20.263 -0.0284 -0.0259 -0.0179
 3765G2HFO Tail45038  18.265  15.094  20.160 -0.0908  0.1728 -0.0067
 3765G2HFO Tail45039  18.297  15.260  19.877 -0.2536  0.0353 -0.0763
 3765G2HFO Tail45040  18.093  15.593  19.700 -0.2764 -0.2698  0.0781
 3765G2HFO Tail45041  18.255  14.619  19.959  0.4472  0.1070  0.5608
 3765G2HFO Tail45042  18.080  14.439  19.880  0.2263 -0.3505 -0.0270
 3765G2HFO Tail45043  17.997  14.264  20.047 -0.1814 -0.1004 -0.0409
 3765G2HFO Tail45044  17.955  14.059  20.194 -0.1396 -0.0005 -0.1815
 3765G2HFO Tail45045  17.865  13.867  20.293 -0.2594 -0.4735 -0.3170
 3766G2HFO Head45046  15.056  17.005  27.259 -0.2396 -0.0719 -0.2462
 3766G2HFO Head45047  15.269  17.118  27.001  0.0070  0.0882 -0.3098
 3766G2HFO Head45048  15.716  17.479  26.709 -0.2971 -0.0697 -0.6859
 3766G2HFO Head45049  15.485  17.437  26.893  0.3152  0.4331 -0.2584
 3766G2HFO Head45050  15.158  17.369  26.794  0.1052 -0.3659 -0.0309
 3766G2HFO Head45051  15.073  16.632  26.833 -0.2294 -0.0910  0.2047
 3766G2HFO Head45052  14.945  16.802  26.581 -0.1301  0.0628  0.3878
 3766G2HFO Head45053  14.552  16.888  26.878 -0.2233 -0.1779 -0.0484
 3766G2HFO Head45054  14.768  17.089  26.866  0.3290  0.3729  0.5004
 3766G2HFO Head45055  14.894  17.137  26.552 -0.2162  0.1201 -0.0579
 3766G2HFO link45056  15.111  17.306  26.543 -0.0456 -0.0906 -0.1636
 3766G2HFO link45057  15.187  17.464  26.316 -0.0673 -0.0701  0.0240
 3766G2HFO Tail45058  15.036  17.429  26.010 -0.2113  0.2395 -0.3091
 3766G2HFO Tail45059  15.321  17.457  25.823 -0.3758 -0.4436 -0.0635
 3766G2HFO Tail45060  15.480  17.681  25.646  0.2821  0.3313 -0.1289
 3766G2HFO Tail45061  15.345  18.035  25.432  0.0344 -0.2073 -0.1223
 3766G2HFO Tail45062  14.986  17.067  26.045 -0.1737  0.1612 -0.1415
 3766G2HFO Tail45063  14.798  16.912  26.149  0.0411  0.3443  0.0305
 3766G2HFO Tail45064  14.770  16.679  26.033  0.3457  0.0482 -0.0221
 3766G2HFO Tail45065  14.733  16.436  25.947 -0.1464 -0.2600  0.0567
 3766G2HFO Tail45066  14.763  16.229  25.829 -0.1608 -0.3188  0.1002
 3767G2HFO Head45067  18.706  14.269  21.631 -0.0876  0.2602 -0.1031
 3767G2HFO Head45068  18.715  14.197  21.362 -0.2060 -0.7376 -0.0842
 3767G2HFO Head45069  18.887  13.559  21.038  0.0948 -0.0207 -0.1306
 3767G2HFO Head45070  18.867  13.798  21.246  0.1549  0.0505  0.1721
 3767G2HFO Head45071  19.012  14.089  21.201  0.0740 -0.3683  0.1602
 3767G2HFO Head45072  19.068  13.686  21.864 -0.1166  0.0475 -0.2351
 3767G2HFO Head45073  19.024  13.850  21.644  0.0567  0.3646 -0.0530
 3767G2HFO Head45074  19.719  13.801  21.674  0.2859 -0.2253  0.0317
 3767G2HFO Head45075  19.442  13.977  21.770  0.3686 -0.3593  0.1544
 3767G2HFO Head45076  19.211  14.118  21.557  0.4543 -0.2194  0.1775
 3767G2HFO link45077  19.241  14.157  21.307 -0.0932 -0.0691  0.1490
 3767G2HFO link45078  19.480  14.227  21.165 -0.1052 -0.0530  0.2341
 3767G2HFO Tail45079  19.490  14.319  20.848  0.0475  0.1572  0.2488
 3767G2HFO Tail45080  19.629  14.625  20.908  0.0345  0.3356 -0.0487
 3767G2HFO Tail45081  19.569  14.941  20.875  0.0274 -0.2818  0.0913
 3767G2HFO Tail45082  19.607  15.255  20.567  0.4864  0.5806  0.3205
 3767G2HFO Tail45083  19.161  14.435  20.772  0.2037  0.3979 -0.2401
 3767G2HFO Tail45084  19.066  14.674  20.743  0.1980 -0.1104 -0.0244
 3767G2HFO Tail45085  18.825  14.718  20.809  0.1672  0.0378 -0.0988
 3767G2HFO Tail45086  18.600  14.812  20.904 -0.2316  0.0795  0.0153
 3767G2HFO Tail45087  18.441  14.924  21.039  0.1384  0.1836  0.1943
 3768G2HFO Head45088  21.973  16.058  20.686  0.0863  0.1784  0.0517
 3768G2HFO Head45089  21.696  15.942  20.572 -0.1879  0.0460 -0.0363
 3768G2HFO Head45090  21.460  15.639  21.136 -0.4302  0.4358 -0.0447
 3768G2HFO Head45091  21.547  15.891  20.988 -0.2549 -0.0642  0.1094
 3768G2HFO Head45092  21.388  16.036  20.716 -0.0714 -0.3749  0.0915
 3768G2HFO Head45093  21.857  16.430  21.254  0.2665 -0.0117  0.3532
 3768G2HFO Head45094  21.737  16.294  21.009 -0.0238  0.1942  0.1428
 3768G2HFO Head45095  21.213  16.192  21.296 -0.0871  0.0202 -0.0034
 3768G2HFO Head45096  21.395  16.398  21.206 -0.1612 -0.5902  0.0634
 3768G2HFO Head45097  21.442  16.435  20.858  0.3969  0.2817 -0.0702
 3768G2HFO link45098  21.303  16.270  20.705  0.3578  0.0180 -0.0368
 3768G2HFO link45099  21.126  16.354  20.494  0.2514  0.1561  0.1776
 3768G2HFO Tail45100  20.801  16.383  20.517  0.4405  0.1592  0.0797
 3768G2HFO Tail45101  20.692  16.080  20.395  0.0730  0.0740 -0.0834
 3768G2HFO Tail45102  20.650  15.939  20.136  0.1845 -0.3121 -0.0388
 3768G2HFO Tail45103  20.732  16.041  19.716 -0.4048  0.1721  0.3068
 3768G2HFO Tail45104  20.714  16.573  20.248 -0.1111 -0.1062  0.1978
 3768G2HFO Tail45105  20.662  16.460  20.019  0.1838 -0.2785 -0.0671
 3768G2HFO Tail45106  20.521  16.582  19.845  0.3750 -0.1333 -0.0185
 3768G2HFO Tail45107  20.417  16.702  19.646 -0.2695 -0.1705 -0.0238
 3768G2HFO Tail45108  20.288  16.769  19.455 -0.0516  0.4137  0.0560
 3769G2HFO Head45109  22.022  18.026  20.492  0.0276  0.0750  0.1059
 3769G2HFO Head45110  22.208  17.854  20.607  0.3606  0.2245 -0.2205
 3769G2HFO Head45111  22.640  17.450  20.844  0.1130 -0.2208  0.2811
 3769G2HFO Head45112  22.365  17.476  20.824 -0.2084 -0.1103  0.2023
 3769G2HFO Head45113  22.180  17.516  20.526 -0.0466  0.1146  0.0404
 3769G2HFO Head45114  22.025  17.085  21.239 -0.1027  0.0943 -0.3650
 3769G2HFO Head45115  22.107  17.170  20.910  0.2116 -0.2790 -0.0175
 3769G2HFO Head45116  21.450  17.422  21.041  0.1403  0.1349 -0.0405
 3769G2HFO Head45117  21.751  17.408  20.986  0.1206 -0.2019 -0.0854
 3769G2HFO Head45118  21.858  17.272  20.687  0.0060 -0.1306 -0.2265
 3769G2HFO link45119  21.939  17.428  20.488 -0.3219  0.1254 -0.1338
 3769G2HFO link45120  21.825  17.424  20.230  0.2398  0.1641  0.1062
 3769G2HFO Tail45121  21.522  17.345  20.166  0.3853  0.0585 -0.2337
 3769G2HFO Tail45122  21.493  17.488  19.860 -0.2076 -0.1017 -0.3071
 3769G2HFO Tail45123  21.336  17.412  19.601  0.2724 -0.1174  0.0910
 3769G2HFO Tail45124  20.976  17.200  19.478 -0.3224  0.3056 -0.1800
 3769G2HFO Tail45125  21.579  17.013  20.070 -0.0238 -0.0176 -0.1984
 3769G2HFO Tail45126  21.646  16.834  20.246 -0.3548  0.0190  0.4212
 3769G2HFO Tail45127  21.867  16.858  20.375  0.0545  0.0330 -0.1068
 3769G2HFO Tail45128  22.067  16.931  20.492 -0.0737 -0.2645  0.0265
 3769G2HFO Tail45129  22.283  16.929  20.587  0.0335  0.3481  0.1380
 3770G2HFO Head45130  16.419  18.518  28.874  0.1549  0.1968  0.1329
 3770G2HFO Head45131  16.593  18.396  28.628  0.2716 -0.0595 -0.3514
 3770G2HFO Head45132  16.614  18.995  28.505 -0.3631  0.1981 -0.0677
 3770G2HFO Head45133  16.432  18.769  28.493 -0.1977 -0.0726  0.2524
 3770G2HFO Head45134  16.539  18.492  28.310  0.1229  0.2076  0.3611
 3770G2HFO Head45135  16.844  17.996  28.563 -0.3698  0.5231  0.2085
 3770G2HFO Head45136  16.967  18.101  28.324 -0.0683 -0.0812  0.0729
 3770G2HFO Head45137  16.729  17.735  28.157 -0.0657  0.0972  0.0574
 3770G2HFO Head45138  16.598  17.993  28.115 -0.3240 -0.0067 -0.0062
 3770G2HFO Head45139  16.797  18.274  28.071  0.1605  0.5185 -0.1487
 3770G2HFO link45140  16.722  18.517  28.108  0.4818 -0.8877 -0.3022
 3770G2HFO link45141  16.762  18.742  27.936  0.0755  0.3724  0.0527
 3770G2HFO Tail45142  16.540  18.935  27.812  0.2453  0.2784 -0.2181
 3770G2HFO Tail45143  16.439  18.736  27.548  0.1638  0.3370  0.0032
 3770G2HFO Tail45144  16.227  18.509  27.480 -0.1748  0.1496  0.3380
 3770G2HFO Tail45145  15.855  18.491  27.237 -0.0693  0.1537 -0.1859
 3770G2HFO Tail45146  16.272  18.893  28.050 -0.1205  0.0347 -0.0289
 3770G2HFO Tail45147  16.188  18.656  28.113 -0.1786  0.2773  0.3285
 3770G2HFO Tail45148  16.245  18.452  27.954 -0.0796 -0.1031  0.2061
 3770G2HFO Tail45149  16.325  18.241  27.841 -0.2460 -0.0069 -0.0637
 3770G2HFO Tail45150  16.357  18.056  27.702  0.1594 -0.0967 -0.2650
 3771G2HFO Head45151  15.709  15.839  27.866  0.1528  0.0175 -0.0612
 3771G2HFO Head45152  15.583  16.069  27.829 -0.1635  0.0103  0.1106
 3771G2HFO Head45153  15.179  15.545  27.601  0.2068  0.3232  0.1070
 3771G2HFO Head45154  15.247  15.808  27.785  0.1157  0.2626  0.5304
 3771G2HFO Head45155  15.306  16.101  27.635  0.0856 -0.0831  0.4034
 3771G2HFO Head45156  15.926  15.789  27.050  0.2806 -0.0165 -0.2321
 3771G2HFO Head45157  15.615  15.814  27.036  0.0944 -0.0243 -0.0785
 3771G2HFO Head45158  15.733  15.412  27.256 -0.2794  0.1327 -0.3848
 3771G2HFO Head45159  15.599  15.635  27.449 -0.1294  0.2395  0.2947
 3771G2HFO Head45160  15.386  15.856  27.300  0.1111 -0.0741 -0.1256
 3771G2HFO link45161  15.347  16.096  27.364  0.0907 -0.1265 -0.2923
 3771G2HFO link45162  15.257  16.290  27.175  0.1384  0.1535  0.2079
 3771G2HFO Tail45163  15.469  16.386  26.933  0.1826  0.1561 -0.1877
 3771G2HFO Tail45164  15.525  16.701  27.033 -0.0776 -0.0913 -0.0645
 3771G2HFO Tail45165  15.582  16.863  27.296 -0.0986  0.0591 -0.1520
 3771G2HFO Tail45166  15.383  17.126  27.595 -0.0835 -0.1286  0.0393
 3771G2HFO Tail45167  15.764  16.254  27.084 -0.1983  0.1927  0.3099
 3771G2HFO Tail45168  15.768  16.150  27.325 -0.1469 -0.0722 -0.0862
 3771G2HFO Tail45169  15.738  16.325  27.525  0.3360  0.0252 -0.1148
 3771G2HFO Tail45170  15.652  16.487  27.715 -0.1722 -0.0072 -0.1633
 3771G2HFO Tail45171  15.586  16.683  27.836  0.0700 -0.1087  0.1101
 3772G2HFO Head45172  13.620  20.777  25.537  0.0020 -0.2013 -0.0120
 3772G2HFO Head45173  13.894  20.729  25.438 -0.0540  0.1120  0.0107
 3772G2HFO Head45174  13.510  20.440  25.098 -0.1907 -0.1838  0.2239
 3772G2HFO Head45175  13.629  20.710  25.042  0.2024  0.1978  0.0461
 3772G2HFO Head45176  13.958  20.760  25.098 -0.0207  0.1426  0.0478
 3772G2HFO Head45177  13.739  21.014  24.661 -0.2601  0.0758  0.1537
 3772G2HFO Head45178  13.990  20.860  24.572  0.3317  0.2898 -0.0348
 3772G2HFO Head45179  14.162  21.262  24.513  0.1798  0.0783 -0.2788
 3772G2HFO Head45180  14.239  21.090  24.783 -0.0963  0.0306  0.1795
 3772G2HFO Head45181  14.226  20.752  24.796 -0.1645 -0.0077 -0.0248
 3772G2HFO link45182  14.168  20.618  25.033  0.1969  0.2456 -0.2813
 3772G2HFO link45183  14.382  20.524  25.189  0.0179  0.3139  0.4070
 3772G2HFO Tail45184  14.475  20.210  25.130 -0.2898  0.1632 -0.1321
 3772G2HFO Tail45185  14.819  20.267  25.126  0.0190  0.2944  0.0029
 3772G2HFO Tail45186  15.079  20.123  25.250 -0.0378  0.1508 -0.2951
 3772G2HFO Tail45187  15.206  19.821  25.532  0.0990 -0.3181 -0.2611
 3772G2HFO Tail45188  14.386  20.110  25.446 -0.5177 -0.3079 -0.1965
 3772G2HFO Tail45189  14.263  20.243  25.634  0.1510  0.0026  0.1379
 3772G2HFO Tail45190  14.293  20.508  25.651 -0.1428 -0.0349 -0.1719
 3772G2HFO Tail45191  14.316  20.753  25.708 -0.0301  0.1826  0.0428
 3772G2HFO Tail45192  14.300  20.987  25.720 -0.0968  0.1640  0.0085
 3773G2HFO Head45193  15.357  21.546  25.202 -0.3902 -0.2673 -0.5877
 3773G2HFO Head45194  15.213  21.328  25.016  0.4816  0.4757 -0.2049
 3773G2HFO Head45195  15.027  21.046  24.416  0.0574  0.0484  0.0564
 3773G2HFO Head45196  15.067  21.024  24.712 -0.7718 -0.1887 -0.0498
 3773G2HFO Head45197  15.392  21.113  24.826 -0.4061  0.2819  0.0642
 3773G2HFO Head45198  15.966  21.860  24.952  0.0461 -0.1318  0.1414
 3773G2HFO Head45199  15.843  21.562  24.958 -0.1449  0.2085  0.1968
 3773G2HFO Head45200  16.056  21.524  24.429 -0.3431  0.0423  0.0434
 3773G2HFO Head45201  15.802  21.644  24.520  0.0823  0.0641 -0.1829
 3773G2HFO Head45202  15.608  21.439  24.722  0.3419 -0.0400  0.1024
 3773G2HFO link45203  15.569  21.182  24.647 -0.2294 -0.4348 -0.3876
 3773G2HFO link45204  15.752  21.012  24.514 -0.1269 -0.1566  0.0275
 3773G2HFO Tail45205  15.714  20.699  24.460 -0.0689 -0.2505 -0.0423
 3773G2HFO Tail45206  15.677  20.603  24.784 -0.3666 -0.4353 -0.1475
 3773G2HFO Tail45207  15.597  20.722  25.084  0.0583 -0.0728  0.0336
 3773G2HFO Tail45208  15.576  20.601  25.503 -0.3442  0.1776  0.1041
 3773G2HFO Tail45209  15.371  20.694  24.353 -0.0478  0.0476 -0.2016
 3773G2HFO Tail45210  15.206  20.503  24.453  0.0654 -0.1031 -0.2107
 3773G2HFO Tail45211  15.183  20.502  24.718  0.0544 -0.0765  0.3171
 3773G2HFO Tail45212  15.153  20.550  24.963  0.3245  0.2438  0.1389
 3773G2HFO Tail45213  15.173  20.542  25.198  0.1050 -0.1215  0.1110
 3774G2HFO Head45214  15.223  19.399  22.075  0.2393  0.3753 -0.0987
 3774G2HFO Head45215  15.046  19.141  22.129 -0.5025 -0.0259  0.0285
 3774G2HFO Head45216  14.619  19.223  22.173  0.2636  0.1853 -0.0122
 3774G2HFO Head45217  14.725  19.095  22.435 -0.1008  0.0180  0.2622
 3774G2HFO Head45218  15.046  18.993  22.448  0.8635 -0.4282  0.3407
 3774G2HFO Head45219  14.874  19.172  22.839  0.0289  0.1255  0.1013
 3774G2HFO Head45220  14.972  18.923  22.952 -0.2281 -0.1821 -0.1661
 3774G2HFO Head45221  14.518  18.847  22.812  0.1803 -0.0038  0.1543
 3774G2HFO Head45222  14.696  18.613  22.777 -0.2736  0.0444  0.2538
 3774G2HFO Head45223  15.033  18.661  22.717  0.2391  0.1818  0.0499
 3774G2HFO link45224  15.122  18.723  22.488 -0.2457  0.2358  0.2348
 3774G2HFO link45225  15.362  18.612  22.390 -0.0670 -0.1373 -0.4346
 3774G2HFO Tail45226  15.591  18.454  22.574 -0.3093  0.0921 -0.0884
 3774G2HFO Tail45227  15.380  18.284  22.804  0.0327  0.0556  0.0181
 3774G2HFO Tail45228  15.072  18.223  22.774  0.6338 -0.0288 -0.2751
 3774G2HFO Tail45229  14.702  18.213  23.007  0.0649 -0.1039 -0.2441
 3774G2HFO Tail45230  15.647  18.202  22.358 -0.0167 -0.0240 -0.0793
 3774G2HFO Tail45231  15.879  18.195  22.253  0.1235  0.1079  0.1502
 3774G2HFO Tail45232  15.933  18.010  22.080 -0.2139  0.3251  0.2328
 3774G2HFO Tail45233  16.028  17.856  21.900  0.1777  0.1019 -0.2029
 3774G2HFO Tail45234  16.065  17.741  21.700  0.1114 -0.1410 -0.0247
 3775G2HFO Head45235  17.276  14.272  23.131 -0.1730 -0.5218  0.1258
 3775G2HFO Head45236  17.041  14.120  23.184  0.3618 -0.0693  0.1456
 3775G2HFO Head45237  17.007  14.522  23.521  0.4172  0.2553 -0.3315
 3775G2HFO Head45238  16.758  14.344  23.416  0.2172  0.1640 -0.2245
 3775G2HFO Head45239  16.740  14.254  23.084 -0.2417 -0.1096  0.1136
 3775G2HFO Head45240  16.311  13.975  22.996  0.0922  0.0814  0.1700
 3775G2HFO Head45241  16.365  14.167  22.743  0.4426 -0.2308  0.2856
 3775G2HFO Head45242  16.865  14.351  22.254 -0.2643  0.4855  0.0380
 3775G2HFO Head45243  16.565  14.433  22.435  0.2233  0.0110 -0.1350
 3775G2HFO Head45244  16.540  14.453  22.783  0.1766  0.1552 -0.1291
 3775G2HFO link45245  16.770  14.455  22.906  0.4886  0.2361  0.5652
 3775G2HFO link45246  16.894  14.698  23.007  0.2494  0.1524  0.4656
 3775G2HFO Tail45247  16.815  14.815  23.309  0.1768  0.0697 -0.2638
 3775G2HFO Tail45248  16.765  15.144  23.234  0.1856  0.0805 -0.2527
 3775G2HFO Tail45249  16.735  15.410  23.428  0.2617  0.2062 -0.7945
 3775G2HFO Tail45250  16.480  15.641  23.667 -0.1754  0.2978 -0.2638
 3775G2HFO Tail45251  16.495  14.683  23.318  0.1044 -0.1517 -0.0217
 3775G2HFO Tail45252  16.311  14.801  23.474 -0.1065  0.1968 -0.2880
 3775G2HFO Tail45253  16.062  14.722  23.486 -0.2362  0.1036  0.0955
 3775G2HFO Tail45254  15.838  14.607  23.470  0.0081  0.1017  0.1562
 3775G2HFO Tail45255  15.655  14.470  23.504  0.0793 -0.0570 -0.0651
 3776G2HFO Head45256  17.998  19.644  25.907  0.1517  0.2555 -0.3364
 3776G2HFO Head45257  17.797  19.447  25.748 -0.1409 -0.1264  0.3902
 3776G2HFO Head45258  17.659  20.056  25.894  0.0897 -0.0194 -0.0862
 3776G2HFO Head45259  17.598  19.784  25.663  0.5564 -0.3265 -0.1200
 3776G2HFO Head45260  17.458  19.493  25.779  0.0190  0.1154 -0.4112
 3776G2HFO Head45261  17.310  19.350  26.643 -0.2950 -0.2169 -0.2151
 3776G2HFO Head45262  17.385  19.623  26.517  0.3954  0.3851  0.0361
 3776G2HFO Head45263  17.821  19.500  26.535 -0.0283  0.7090 -0.0875
 3776G2HFO Head45264  17.761  19.644  26.286 -0.5010 -0.6701 -0.3256
 3776G2HFO Head45265  17.439  19.650  26.171 -0.0225 -0.3481  0.3572
 3776G2HFO link45266  17.352  19.448  26.009  0.3965  0.0065 -0.0832
 3776G2HFO link45267  17.246  19.200  26.091  0.1237 -0.1140 -0.0696
 3776G2HFO Tail45268  16.958  19.193  26.257  0.2174 -0.4426  0.0860
 3776G2HFO Tail45269  16.776  18.951  26.077  0.3171 -0.2783 -0.1852
 3776G2HFO Tail45270  16.716  18.638  26.121 -0.3654 -0.1287 -0.0590
 3776G2HFO Tail45271  16.465  18.320  25.950 -0.3994  0.2138  0.2366
 3776G2HFO Tail45272  17.036  18.979  26.530  0.4243 -0.3263  0.1657
 3776G2HFO Tail45273  17.009  19.054  26.781  0.3379 -0.0691 -0.1815
 3776G2HFO Tail45274  17.079  18.871  26.960  0.0845  0.1705  0.1217
 3776G2HFO Tail45275  17.161  18.690  27.113  0.0285 -0.3336 -0.1143
 3776G2HFO Tail45276  17.188  18.485  27.217 -0.1581 -0.1722  0.1805
 3777G2HFO Head45277  21.806  19.859  18.818 -0.0998 -0.2522 -0.0453
 3777G2HFO Head45278  21.711  19.627  18.658 -0.3974  0.0291  0.0618
 3777G2HFO Head45279  22.040  19.860  18.325  0.1830  0.0609 -0.2244
 3777G2HFO Head45280  22.130  19.603  18.441 -0.5245  0.1616 -0.0160
 3777G2HFO Head45281  21.900  19.349  18.523  0.4590  0.1258  0.3539
 3777G2HFO Head45282  22.378  19.482  19.266  0.0009  0.1897  0.0605
 3777G2HFO Head45283  22.267  19.204  19.116  0.0681  0.5832 -0.1805
 3777G2HFO Head45284  22.478  19.679  18.744 -0.1521 -0.2818  0.2055
 3777G2HFO Head45285  22.213  19.564  18.842 -0.0720  0.0760  0.2097
 3777G2HFO Head45286  22.187  19.229  18.777 -0.0277  0.1581 -0.0660
 3777G2HFO link45287  21.958  19.147  18.677 -0.5490  0.1715 -0.4714
 3777G2HFO link45288  21.776  18.958  18.803 -0.0792 -0.0904 -0.2803
 3777G2HFO Tail45289  21.885  18.671  18.910  0.4607  0.0225 -0.2318
 3777G2HFO Tail45290  22.030  18.512  18.633 -0.0680 -0.2323 -0.0827
 3777G2HFO Tail45291  21.986  18.214  18.534  0.3975  0.2773  0.2148
 3777G2HFO Tail45292  21.726  17.853  18.589 -0.0462  0.0088 -0.1029
 3777G2HFO Tail45293  22.189  18.763  19.070 -0.3011  0.0509 -0.0377
 3777G2HFO Tail45294  22.201  18.816  19.333 -0.2902  0.3084  0.4337
 3777G2HFO Tail45295  22.272  18.626  19.503  0.0889  0.0604 -0.1427
 3777G2HFO Tail45296  22.361  18.477  19.691  0.1681 -0.0235 -0.0039
 3777G2HFO Tail45297  22.440  18.296  19.816  0.4301 -0.1646 -0.0655
 3778G2HFO Head45298  17.453  18.704  21.768 -0.1230 -0.0820 -0.2019
 3778G2HFO Head45299  17.732  18.575  21.745  0.1327 -0.0990  0.3322
 3778G2HFO Head45300  18.071  18.653  22.373  0.0469  0.1239 -0.0624
 3778G2HFO Head45301  17.980  18.611  22.067 -0.1835  0.1217 -0.0446
 3778G2HFO Head45302  17.831  18.330  21.970 -0.1586  0.0981  0.0370
 3778G2HFO Head45303  17.353  18.970  22.299 -0.0593  0.4431 -0.0049
 3778G2HFO Head45304  17.620  18.758  22.219  0.2611 -0.0538  0.3024
 3778G2HFO Head45305  17.116  18.664  22.537  0.2036 -0.1449 -0.1556
 3778G2HFO Head45306  17.233  18.422  22.348 -0.0409  0.0260  0.1891
 3778G2HFO Head45307  17.575  18.407  22.266 -0.0841  0.1277  0.3498
 3778G2HFO link45308  17.673  18.213  22.124  0.0394  0.6572  0.4043
 3778G2HFO link45309  17.547  17.951  22.066  0.1627  0.0744 -0.2727
 3778G2HFO Tail45310  17.643  17.671  22.221  0.0909 -0.4149  0.4297
 3778G2HFO Tail45311  17.729  17.521  21.925  0.3808  0.1062  0.0028
 3778G2HFO Tail45312  17.647  17.273  21.768  0.0984  0.0893 -0.2805
 3778G2HFO Tail45313  17.790  16.891  21.656 -0.2443  0.0447 -0.1368
 3778G2HFO Tail45314  17.942  17.770  22.345  0.0188  0.2067  0.0670
 3778G2HFO Tail45315  18.106  17.846  22.146  0.0979 -0.1718  0.0214
 3778G2HFO Tail45316  17.983  17.919  21.913  0.2837 -0.1199 -0.4085
 3778G2HFO Tail45317  17.914  17.961  21.676  0.2675 -0.3316  0.3243
 3778G2HFO Tail45318  17.790  18.049  21.489 -0.1202 -0.0538 -0.4816
 3779G2HFO Head45319  18.635  13.993  22.148  0.1546 -0.2364  0.4805
 3779G2HFO Head45320  18.536  14.266  22.043 -0.0470 -0.4373  0.1292
 3779G2HFO Head45321  18.482  14.312  22.535 -0.0238  0.2586  0.1542
 3779G2HFO Head45322  18.754  14.424  22.359 -0.1378 -0.0497 -0.1212
 3779G2HFO Head45323  18.709  14.559  22.040  0.0629 -0.6208  0.0733
 3779G2HFO Head45324  19.174  13.976  22.289 -0.2904 -0.3606 -0.0527
 3779G2HFO Head45325  19.100  14.113  22.008 -0.1572  0.0223  0.0778
 3779G2HFO Head45326  19.417  14.605  22.451  0.1733 -0.1250  0.1505
 3779G2HFO Head45327  19.172  14.467  22.317  0.2626 -0.5898 -0.0450
 3779G2HFO Head45328  19.112  14.459  21.965  0.3098 -0.0755 -0.2827
 3779G2HFO link45329  18.909  14.586  21.858 -0.4927  0.0519 -0.0187
 3779G2HFO link45330  18.931  14.808  21.677  0.4320 -0.0454 -0.2734
 3779G2HFO Tail45331  18.730  14.851  21.410 -0.2106  0.5250  0.0180
 3779G2HFO Tail45332  18.941  15.085  21.254  0.4884  0.0979  0.3418
 3779G2HFO Tail45333  18.898  15.201  20.963  0.2741  0.0109  0.1313
 3779G2HFO Tail45334  19.091  15.158  20.588  0.0291  0.1748  0.2796
 3779G2HFO Tail45335  18.479  15.066  21.510 -0.0988  0.1621  0.2117
 3779G2HFO Tail45336  18.427  15.136  21.757  0.1065 -0.2720 -0.0079
 3779G2HFO Tail45337  18.597  15.043  21.935  0.1918  0.0786 -0.1215
 3779G2HFO Tail45338  18.747  14.983  22.134 -0.0420 -0.1005  0.0172
 3779G2HFO Tail45339  18.909  14.874  22.263 -0.2032 -0.3059 -0.0633
 3780G2HFO Head45340  21.299  19.192  20.404  0.2027 -0.2078  0.0947
 3780G2HFO Head45341  21.057  19.017  20.311  0.1665  0.1845 -0.0616
 3780G2HFO Head45342  21.465  19.293  19.864  0.1804 -0.0704 -0.0916
 3780G2HFO Head45343  21.133  19.271  19.938  0.1329  0.0920 -0.2730
 3780G2HFO Head45344  21.005  18.942  19.967 -0.1311 -0.2149 -0.2023
 3780G2HFO Head45345  20.700  19.286  20.348 -0.0534 -0.1029  0.0124
 3780G2HFO Head45346  20.581  19.341  20.068  0.3106  0.3514 -0.0112
 3780G2HFO Head45347  20.199  18.931  19.691  0.1667  0.1231 -0.1618
 3780G2HFO Head45348  20.359  19.206  19.716  0.2142 -0.2328  0.0266
 3780G2HFO Head45349  20.693  19.152  19.797 -0.2046  0.0905 -0.2716
 3780G2HFO link45350  20.800  18.904  19.842 -0.0155  0.1103  0.1135
 3780G2HFO link45351  20.699  18.645  19.779  0.1326 -0.0656  0.3104
 3780G2HFO Tail45352  20.789  18.367  19.930  0.0081 -0.3032 -0.0257
 3780G2HFO Tail45353  20.768  18.144  19.684  0.1072  0.2016 -0.0015
 3780G2HFO Tail45354  20.613  18.137  19.399 -0.2370  0.1911  0.1016
 3780G2HFO Tail45355  20.707  18.108  18.974  0.1842 -0.0082  0.0568
 3780G2HFO Tail45356  21.133  18.465  19.987  0.3992  0.0411 -0.1444
 3780G2HFO Tail45357  21.320  18.286  20.011  0.1490 -0.1605  0.1004
 3780G2HFO Tail45358  21.536  18.367  20.116 -0.0524  0.3126 -0.0167
 3780G2HFO Tail45359  21.785  18.410  20.190 -0.0487  0.3253  0.0727
 3780G2HFO Tail45360  22.009  18.485  20.200  0.0635  0.0496 -0.3343
 3781G2HFO Head45361  14.580  21.060  24.313  0.0331  0.0599  0.2387
 3781G2HFO Head45362  14.542  20.785  24.135 -0.3647 -0.2603  0.2187
 3781G2HFO Head45363  14.744  21.199  23.632 -0.0815 -0.0224  0.0933
 3781G2HFO Head45364  14.600  20.930  23.705  0.0103 -0.1897 -0.2656
 3781G2HFO Head45365  14.769  20.700  23.882  0.4773  0.4176  0.3899
 3781G2HFO Head45366  15.614  20.967  23.985  0.1083 -0.0419  0.0225
 3781G2HFO Head45367  15.364  21.137  23.990 -0.1028  0.0064 -0.1676
 3781G2HFO Head45368  15.433  21.256  23.485  0.3362  0.1227 -0.1684
 3781G2HFO Head45369  15.155  21.125  23.556 -0.0573 -0.3141 -0.2414
 3781G2HFO Head45370  15.062  20.997  23.880 -0.0516  0.1537 -0.0044
 3781G2HFO link45371  15.032  20.748  23.906 -0.4343  0.5402  0.1311
 3781G2HFO link45372  15.228  20.540  23.926 -0.0576  0.0825 -0.0703
 3781G2HFO Tail45373  15.234  20.246  23.765  0.3021  0.1561  0.1890
 3781G2HFO Tail45374  15.244  20.000  24.004 -0.0312  0.0045  0.1279
 3781G2HFO Tail45375  15.120  19.707  24.063  0.1846  0.4032  0.5111
 3781G2HFO Tail45376  15.206  19.326  24.253  0.0398  0.0722  0.2268
 3781G2HFO Tail45377  14.884  20.220  23.650  0.1168 -0.4227 -0.1729
 3781G2HFO Tail45378  14.691  20.176  23.806 -0.0761 -0.2909 -0.0679
 3781G2HFO Tail45379  14.735  20.232  24.057 -0.0587 -0.1146 -0.2149
 3781G2HFO Tail45380  14.811  20.245  24.295  0.2304  0.0046 -0.0543
 3781G2HFO Tail45381  14.831  20.304  24.523  0.1896 -0.2792  0.2104
 3782G2HFO Head45382  21.987  14.654  20.546  0.1599 -0.1096 -0.0831
 3782G2HFO Head45383  21.686  14.516  20.530  0.6360 -0.2582 -0.4764
 3782G2HFO Head45384  21.378  14.229  20.776  0.1425 -0.0493 -0.1283
 3782G2HFO Head45385  21.243  14.506  20.702 -0.6439 -0.1904 -0.1588
 3782G2HFO Head45386  21.391  14.689  20.416  0.0694 -0.0453  0.1269
 3782G2HFO Head45387  21.685  14.586  21.039  0.3707  0.0369  0.1120
 3782G2HFO Head45388  21.422  14.768  20.965 -0.0354  0.0727  0.3968
 3782G2HFO Head45389  21.331  15.121  21.267  0.2824  0.2116  0.4006
 3782G2HFO Head45390  21.334  15.190  20.943 -0.4437  0.2521  0.0382
 3782G2HFO Head45391  21.469  14.973  20.687  0.3724 -0.2055 -0.0945
 3782G2HFO link45392  21.353  14.950  20.453 -0.2527  0.0719 -0.1147
 3782G2HFO link45393  21.258  15.146  20.258  0.2552  0.1952 -0.2994
 3782G2HFO Tail45394  21.352  15.178  19.947 -0.0508 -0.0776 -0.2147
 3782G2HFO Tail45395  21.108  15.437  19.878  0.2802  0.4051 -0.2264
 3782G2HFO Tail45396  21.088  15.783  19.881 -0.4571  0.3242 -0.1429
 3782G2HFO Tail45397  21.286  16.105  19.682  0.5640 -0.0955  0.3258
 3782G2HFO Tail45398  21.652  15.358  19.993  0.0353  0.2583 -0.1419
 3782G2HFO Tail45399  21.672  15.613  20.029  0.0966  0.2519  0.2796
 3782G2HFO Tail45400  21.498  15.727  20.189 -0.0219  0.2141  0.1651
 3782G2HFO Tail45401  21.311  15.853  20.305 -0.1337  0.4413 -0.0034
 3782G2HFO Tail45402  21.108  15.917  20.406 -0.0267 -0.1719 -0.2508
 3783G2HFO Head45403  16.893  18.352  19.803  0.1794 -0.1276  0.0203
 3783G2HFO Head45404  17.151  18.473  19.627 -0.1966 -0.4277  0.0181
 3783G2HFO Head45405  16.884  17.845  19.371  0.1145  0.2870  0.0559
 3783G2HFO Head45406  17.076  18.055  19.546  0.1188  0.0249  0.3400
 3783G2HFO Head45407  17.311  18.276  19.390  0.3748  0.1091 -0.1814
 3783G2HFO Head45408  17.683  18.845  19.771 -0.2246 -0.3085 -0.1815
 3783G2HFO Head45409  17.520  18.714  19.560  0.1815  0.0262  0.0011
 3783G2HFO Head45410  17.246  18.802  19.198  0.1584 -0.1091 -0.5650
 3783G2HFO Head45411  17.547  18.687  19.145  0.0981 -0.0407 -0.0405
 3783G2HFO Head45412  17.662  18.470  19.368  0.1639  0.4982 -0.0831
 3783G2HFO link45413  17.574  18.229  19.376 -0.2533  0.0155  0.4379
 3783G2HFO link45414  17.682  17.965  19.392  0.3655 -0.2250 -0.0699
 3783G2HFO Tail45415  17.515  17.701  19.502 -0.1411 -0.3444  0.0123
 3783G2HFO Tail45416  17.777  17.513  19.634 -0.3095 -0.1773  0.1350
 3783G2HFO Tail45417  17.916  17.252  19.544 -0.0455  0.1036  0.3244
 3783G2HFO Tail45418  18.255  17.011  19.674 -0.0194  0.2330  0.0068
 3783G2HFO Tail45419  17.386  17.799  19.807  0.1077 -0.0466 -0.3172
 3783G2HFO Tail45420  17.387  18.049  19.884 -0.1670 -0.2681  0.4955
 3783G2HFO Tail45421  17.580  18.214  19.815  0.2221 -0.3320 -0.0150
 3783G2HFO Tail45422  17.793  18.334  19.761  0.1336 -0.1251 -0.0223
 3783G2HFO Tail45423  17.960  18.486  19.716 -0.0262 -0.1008 -0.0749
 3784G2HFO Head45424  13.938  17.401  20.930  0.0395  0.2828 -0.3544
 3784G2HFO Head45425  14.203  17.209  20.820  0.1988 -0.2596  0.1821
 3784G2HFO Head45426  14.282  16.749  20.945  0.0608  0.1634 -0.1725
 3784G2HFO Head45427  14.496  16.983  21.041  0.3172 -0.3759  0.2316
 3784G2HFO Head45428  14.519  17.306  20.898  0.3847  0.3608 -0.2525
 3784G2HFO Head45429  14.081  17.929  20.586 -0.1262 -0.3745 -0.1941
 3784G2HFO Head45430  14.356  17.777  20.671 -0.6696 -0.1943 -0.0242
 3784G2HFO Head45431  13.921  17.776  21.283  0.0373  0.2108  0.1041
 3784G2HFO Head45432  14.095  17.775  21.008  0.3447  0.0746  0.0282
 3784G2HFO Head45433  14.442  17.719  21.004 -0.0590  0.0321 -0.2293
 3784G2HFO link45434  14.536  17.487  21.075 -0.4453 -0.2159  0.2135
 3784G2HFO link45435  14.717  17.451  21.288 -0.1374 -0.0722 -0.0629
 3784G2HFO Tail45436  14.975  17.268  21.274  0.0715  0.2513 -0.0907
 3784G2HFO Tail45437  14.932  17.018  21.508  0.2590  0.3308 -0.3707
 3784G2HFO Tail45438  15.006  16.988  21.833 -0.1369  0.2174  0.2068
 3784G2HFO Tail45439  15.349  17.028  22.096 -0.2425  0.1290 -0.2519
 3784G2HFO Tail45440  14.922  17.083  20.984 -0.3660  0.3790  0.0131
 3784G2HFO Tail45441  15.128  16.954  20.880 -0.3450  0.2715 -0.2004
 3784G2HFO Tail45442  15.366  16.969  20.991  0.3821  0.1591  0.0481
 3784G2HFO Tail45443  15.571  16.971  21.134  0.0038  0.3128  0.1869
 3784G2HFO Tail45444  15.739  16.929  21.299  0.1694 -0.0447 -0.0540
 3785G2HFO Head45445  19.035  15.949  23.288  0.2193 -0.1204  0.0966
 3785G2HFO Head45446  18.741  15.963  23.240  0.1504 -0.3921  0.0270
 3785G2HFO Head45447  18.907  15.766  22.554  0.1400  0.2775 -0.0467
 3785G2HFO Head45448  18.850  15.799  22.901 -0.1012 -0.1532  0.2486
 3785G2HFO Head45449  18.561  15.714  23.074  0.3647  0.1021 -0.0045
 3785G2HFO Head45450  18.239  15.608  23.829  0.0692 -0.0417 -0.1556
 3785G2HFO Head45451  18.545  15.605  23.762  0.0701 -0.1429  0.5171
 3785G2HFO Head45452  18.406  15.040  23.658 -0.2191  0.1532  0.0732
 3785G2HFO Head45453  18.656  15.220  23.661 -0.0171 -0.2348  0.0014
 3785G2HFO Head45454  18.660  15.506  23.436 -0.4937 -0.0471  0.2740
 3785G2HFO link45455  18.500  15.484  23.224 -0.1737  0.1447  0.0214
 3785G2HFO link45456  18.286  15.312  23.196  0.2038  0.1290  0.2261
 3785G2HFO Tail45457  18.025  15.379  23.002  0.3330  0.0315 -0.3396
 3785G2HFO Tail45458  18.120  15.692  22.858 -0.1934  0.1558  0.2632
 3785G2HFO Tail45459  18.004  15.900  22.625  0.1648  0.1096 -0.3102
 3785G2HFO Tail45460  18.111  16.115  22.274 -0.2277  0.2865  0.0017
 3785G2HFO Tail45461  18.044  15.168  22.730 -0.0348 -0.0464  0.2143
 3785G2HFO Tail45462  17.855  15.047  22.594 -0.2838  0.2083 -0.0783
 3785G2HFO Tail45463  17.658  14.930  22.728 -0.0084 -0.0463 -0.0777
 3785G2HFO Tail45464  17.479  14.837  22.886  0.0726 -0.0775  0.0384
 3785G2HFO Tail45465  17.379  14.742  23.071 -0.0186 -0.1162 -0.1249
 3786G2HFO Head45466  21.808  16.947  17.604  0.0567 -0.0430 -0.1400
 3786G2HFO Head45467  21.902  17.201  17.425 -0.1426  0.2240  0.0143
 3786G2HFO Head45468  22.463  17.027  17.117 -0.1332  0.3464 -0.1183
 3786G2HFO Head45469  22.348  17.057  17.393 -0.0676  0.3558 -0.1409
 3786G2HFO Head45470  22.219  17.363  17.457  0.0841 -0.0826  0.2313
 3786G2HFO Head45471  22.682  17.558  17.128 -0.0484 -0.0900  0.1281
 3786G2HFO Head45472  22.678  17.696  17.406 -0.1369  0.0931  0.0542
 3786G2HFO Head45473  22.430  18.032  17.109 -0.0141 -0.1265 -0.1112
 3786G2HFO Head45474  22.302  17.769  17.233  0.5883  0.3750 -0.3030
 3786G2HFO Head45475  22.371  17.700  17.575 -0.0906  0.1505 -0.2144
 3786G2HFO link45476  22.290  17.482  17.674 -0.3092 -0.1525  0.5405
 3786G2HFO link45477  22.165  17.425  17.923  0.2359  0.2723 -0.0134
 3786G2HFO Tail45478  21.846  17.363  17.976 -0.4884  0.1237  0.1662
 3786G2HFO Tail45479  21.912  17.143  18.242 -0.0900 -0.1528 -0.1745
 3786G2HFO Tail45480  21.747  17.002  18.431  0.4953 -0.0172  0.0864
 3786G2HFO Tail45481  21.387  16.771  18.487 -0.1094 -0.0944 -0.5343
 3786G2HFO Tail45482  21.802  17.669  18.140  0.0596 -0.3250 -0.0327
 3786G2HFO Tail45483  22.008  17.784  18.265 -0.0307 -0.2641  0.1076
 3786G2HFO Tail45484  22.157  17.953  18.134  0.1338  0.0644 -0.0524
 3786G2HFO Tail45485  22.339  18.078  18.008  0.0540 -0.0530 -0.0240
 3786G2HFO Tail45486  22.457  18.219  17.870  0.1868 -0.0447  0.2600
 3787G2HFO Head45487  13.349  17.907  23.212  0.0872  0.3289  0.0650
 3787G2HFO Head45488  13.502  17.607  23.194  0.0318  0.2537  0.4122
 3787G2HFO Head45489  13.318  17.635  22.822 -0.0475  0.3080 -0.0187
 3787G2HFO Head45490  13.600  17.703  22.771 -0.1295  0.0031  0.0716
 3787G2HFO Head45491  13.819  17.628  23.052  0.1234 -0.3026  0.1218
 3787G2HFO Head45492  13.563  17.186  22.575  0.2599 -0.4549 -0.2688
 3787G2HFO Head45493  13.551  17.230  22.870 -0.0633 -0.1437  0.0939
 3787G2HFO Head45494  13.331  17.001  23.199 -0.0639  0.0088  0.2009
 3787G2HFO Head45495  13.635  17.119  23.283 -0.0363  0.0756  0.0073
 3787G2HFO Head45496  13.862  17.231  23.042  0.0166  0.1434 -0.1911
 3787G2HFO link45497  14.009  17.442  23.047  0.1963 -0.3743 -0.5825
 3787G2HFO link45498  14.251  17.459  23.212  0.0414  0.0304 -0.4222
 3787G2HFO Tail45499  14.373  17.730  23.367  0.1142 -0.1078  0.4052
 3787G2HFO Tail45500  14.687  17.699  23.208  0.5404  0.1620 -0.1752
 3787G2HFO Tail45501  14.906  17.473  23.197 -0.0319 -0.4104  0.3601
 3787G2HFO Tail45502  15.329  17.424  23.296 -0.2520 -0.3671  0.1612
 3787G2HFO Tail45503  14.222  17.966  23.175  0.1214  0.0018 -0.2552
 3787G2HFO Tail45504  14.287  18.029  22.929 -0.2119  0.0546 -0.1704
 3787G2HFO Tail45505  14.081  18.053  22.761  0.3934  0.0002  0.0375
 3787G2HFO Tail45506  13.879  18.014  22.611 -0.0560 -0.1767 -0.3373
 3787G2HFO Tail45507  13.708  18.036  22.456  0.1196 -0.0520 -0.3560
 3788G2HFO Head45508  19.304  19.103  18.938 -0.0757 -0.0059  0.1470
 3788G2HFO Head45509  19.170  19.153  18.664  0.1420  0.1290 -0.0106
 3788G2HFO Head45510  18.562  18.757  18.457 -0.0110 -0.0957  0.2164
 3788G2HFO Head45511  18.807  18.905  18.566  0.2015 -0.2259  0.0400
 3788G2HFO Head45512  19.116  18.916  18.402  0.2338  0.0750 -0.6238
 3788G2HFO Head45513  18.697  19.327  18.532  0.0749 -0.0191 -0.2095
 3788G2HFO Head45514  18.955  19.413  18.407  0.4511  0.3484 -0.1082
 3788G2HFO Head45515  19.351  19.663  18.452 -0.1614  0.0900  0.1257
 3788G2HFO Head45516  19.384  19.454  18.230 -0.1835 -0.0149 -0.1747
 3788G2HFO Head45517  19.118  19.240  18.154 -0.1987  0.0063 -0.1234
 3788G2HFO link45518  19.131  18.973  18.148 -0.3863 -0.0846 -0.0193
 3788G2HFO link45519  19.277  18.821  17.958 -0.0392  0.3015  0.0676
 3788G2HFO Tail45520  19.478  18.575  18.041  0.2169 -0.5642 -0.0007
 3788G2HFO Tail45521  19.296  18.301  17.921  0.2821 -0.1194 -0.2461
 3788G2HFO Tail45522  19.114  18.065  18.055  0.1996  0.0737  0.0084
 3788G2HFO Tail45523  19.143  17.725  18.325  0.3320 -0.2386 -0.1499
 3788G2HFO Tail45524  19.715  18.613  17.795 -0.0401  0.1586 -0.1246
 3788G2HFO Tail45525  19.974  18.648  17.821  0.1986  0.1148  0.4231
 3788G2HFO Tail45526  20.117  18.480  17.962  0.0799 -0.0041 -0.0888
 3788G2HFO Tail45527  20.287  18.355  18.103 -0.2565  0.0620 -0.0151
 3788G2HFO Tail45528  20.441  18.282  18.276  0.2866 -0.2115 -0.1637
 3789G2HFO Head45529  13.735  15.984  25.200 -0.2364  0.2618 -0.0834
 3789G2HFO Head45530  13.555  16.244  25.060 -0.3386  0.4013 -0.3952
 3789G2HFO Head45531  13.498  16.522  25.533 -0.1005 -0.2547 -0.1420
 3789G2HFO Head45532  13.750  16.500  25.356  0.1377 -0.2185  0.1289
 3789G2HFO Head45533  13.709  16.564  25.015 -0.1739  0.0992  0.0199
 3789G2HFO Head45534  13.157  17.175  24.815  0.1312 -0.1528 -0.0202
 3789G2HFO Head45535  13.259  17.088  25.113 -0.1661 -0.0164  0.2832
 3789G2HFO Head45536  12.836  16.945  25.076 -0.3621  0.2262 -0.1604
 3789G2HFO Head45537  13.070  16.693  25.071 -0.1181  0.1262 -0.3089
 3789G2HFO Head45538  13.400  16.780  25.137 -0.3022 -0.3622  0.5591
 3789G2HFO link45539  13.559  16.742  24.934 -0.6276 -0.1336 -0.0808
 3789G2HFO link45540  13.649  16.949  24.756 -0.1967 -0.0565 -0.2243
 3789G2HFO Tail45541  13.635  17.258  24.832 -0.4764 -0.7924  0.1104
 3789G2HFO Tail45542  13.654  17.387  24.513  0.1384  0.0423  0.1097
 3789G2HFO Tail45543  13.874  17.538  24.336  0.1028 -0.2206  0.2364
 3789G2HFO Tail45544  14.299  17.486  24.251 -0.0676  0.1461 -0.0465
 3789G2HFO Tail45545  13.948  17.336  24.931  0.0876  0.2399 -0.2364
 3789G2HFO Tail45546  14.166  17.345  24.778  0.3261  0.1381 -0.3269
 3789G2HFO Tail45547  14.372  17.196  24.851  0.0269 -0.1387  0.0259
 3789G2HFO Tail45548  14.570  17.087  24.952 -0.0228  0.1166  0.1426
 3789G2HFO Tail45549  14.706  16.908  25.041 -0.0082  0.1512 -0.1450
 3790G2HFO Head45550  21.000  19.586  17.555 -0.2323  0.0795  0.1111
 3790G2HFO Head45551  20.889  19.419  17.827 -0.1735 -0.0188  0.3072
 3790G2HFO Head45552  21.012  19.045  18.353  0.1353  0.0087 -0.2673
 3790G2HFO Head45553  20.841  19.140  18.160  0.0995  0.3715 -0.0589
 3790G2HFO Head45554  20.863  19.062  17.833  0.2705 -0.4304 -0.0205
 3790G2HFO Head45555  21.488  19.501  17.734 -0.1884 -0.1799 -0.0649
 3790G2HFO Head45556  21.450  19.247  17.582  0.0262 -0.0122 -0.6296
 3790G2HFO Head45557  21.388  18.598  17.273 -0.0225  0.3585  0.0025
 3790G2HFO Head45558  21.436  18.892  17.380 -0.3005  0.3297 -0.0425
 3790G2HFO Head45559  21.165  19.040  17.548 -0.1249 -0.3057  0.0099
 3790G2HFO link45560  21.053  18.908  17.755 -0.2472  0.0913 -0.0517
 3790G2HFO link45561  21.081  18.649  17.846 -0.4211  0.1089 -0.0919
 3790G2HFO Tail45562  21.348  18.516  18.008  0.0932  0.2227  0.1986
 3790G2HFO Tail45563  21.224  18.177  18.036 -0.0888 -0.0093  0.2685
 3790G2HFO Tail45564  21.344  17.903  17.926  0.3174 -0.3154  0.0810
 3790G2HFO Tail45565  21.329  17.474  18.013  0.1024 -0.2459 -0.2071
 3790G2HFO Tail45566  21.328  18.673  18.331  0.2071  0.0656 -0.3146
 3790G2HFO Tail45567  21.517  18.824  18.425 -0.0131 -0.0713 -0.1038
 3790G2HFO Tail45568  21.749  18.828  18.304 -0.2524 -0.0782  0.1465
 3790G2HFO Tail45569  21.971  18.797  18.179  0.0282 -0.0351  0.2712
 3790G2HFO Tail45570  22.145  18.794  18.027  0.2652  0.0402  0.1172
 3791G2HFO Head45571  16.640  16.806  18.717 -0.1509 -0.1700  0.6522
 3791G2HFO Head45572  16.847  17.005  18.591 -0.4730  0.0681  0.2688
 3791G2HFO Head45573  16.747  17.436  19.023 -0.2014  0.4229 -0.0947
 3791G2HFO Head45574  16.876  17.161  18.998 -0.0380  0.0547 -0.2115
 3791G2HFO Head45575  17.141  17.063  18.772 -0.1162  0.0099 -0.3113
 3791G2HFO Head45576  17.176  16.336  18.288 -0.0023  0.3406 -0.1068
 3791G2HFO Head45577  17.031  16.542  18.495  0.6228  0.1668  0.0041
 3791G2HFO Head45578  16.732  16.336  18.790 -0.2014  0.0055  0.0552
 3791G2HFO Head45579  16.949  16.505  18.964  0.2011  0.1377 -0.1300
 3791G2HFO Head45580  17.199  16.652  18.775 -0.3203 -0.3016 -0.3219
 3791G2HFO link45581  17.306  16.885  18.832 -0.1786  0.1595  0.2875
 3791G2HFO link45582  17.584  16.928  18.857  0.0909 -0.2551 -0.3821
 3791G2HFO Tail45583  17.802  16.703  18.760  0.4207 -0.1759 -0.0410
 3791G2HFO Tail45584  18.074  16.819  18.956 -0.3009 -0.1910 -0.0298
 3791G2HFO Tail45585  18.398  16.841  18.989  0.2716  0.4655 -0.0724
 3791G2HFO Tail45586  18.722  17.126  19.041 -0.2770 -0.4459  0.2800
 3791G2HFO Tail45587  17.673  16.441  18.924  0.0204  0.2535 -0.1988
 3791G2HFO Tail45588  17.557  16.469  19.169  0.0556  0.5309  0.4661
 3791G2HFO Tail45589  17.338  16.595  19.209 -0.0295  0.1089  0.0257
 3791G2HFO Tail45590  17.149  16.747  19.282  0.0962  0.1436 -0.0494
 3791G2HFO Tail45591  16.940  16.816  19.350  0.4196 -0.0678 -0.0288
 3792G2HFO Head45592  18.952  17.583  21.960  0.2004  0.3478 -0.3045
 3792G2HFO Head45593  19.068  17.387  21.740  0.3550  0.0271  0.0221
 3792G2HFO Head45594  19.566  17.582  22.125  0.0688  0.1407 -0.0362
 3792G2HFO Head45595  19.412  17.621  21.888  0.3813 -0.0497 -0.1994
 3792G2HFO Head45596  19.408  17.397  21.632  0.6607 -0.0276 -0.1095
 3792G2HFO Head45597  20.047  17.978  21.562  0.0671  0.0267 -0.2886
 3792G2HFO Head45598  19.853  17.871  21.346  0.0617 -0.0761  0.1465
 3792G2HFO Head45599  19.246  18.304  21.317  0.0149  0.0312  0.1166
 3792G2HFO Head45600  19.433  18.018  21.208 -0.0394 -0.0588 -0.0654
 3792G2HFO Head45601  19.533  17.751  21.435 -0.1110 -0.0263 -0.1278
 3792G2HFO link45602  19.483  17.485  21.390 -0.0034  0.6841  0.2835
 3792G2HFO link45603  19.519  17.316  21.167  0.0285 -0.2092  0.0271
 3792G2HFO Tail45604  19.453  17.407  20.856 -0.0950  0.2279 -0.4634
 3792G2HFO Tail45605  19.264  17.134  20.722 -0.3279 -0.1436  0.1593
 3792G2HFO Tail45606  19.342  16.863  20.572 -0.6063  0.1997  0.4831
 3792G2HFO Tail45607  19.393  16.442  20.646 -0.0854 -0.0987 -0.2641
 3792G2HFO Tail45608  19.166  17.629  20.886  0.0568 -0.2575  0.2241
 3792G2HFO Tail45609  19.017  17.675  21.093  0.3937 -0.2589 -0.2156
 3792G2HFO Tail45610  19.091  17.797  21.316  0.1669  0.1626 -0.0835
 3792G2HFO Tail45611  19.113  17.920  21.542  0.0003  0.1202 -0.1206
 3792G2HFO Tail45612  19.168  18.041  21.734 -0.2322 -0.1700 -0.0428
 3793G2HFO Head45613  14.455  15.530  20.352  0.0824  0.1020  0.1486
 3793G2HFO Head45614  14.574  15.570  20.615  0.4359 -0.1665  0.2528
 3793G2HFO Head45615  14.539  15.202  20.925 -0.1248  0.1543  0.3041
 3793G2HFO Head45616  14.831  15.259  20.853  0.2095  0.0105 -0.4923
 3793G2HFO Head45617  14.915  15.534  20.673 -0.1232 -0.3888 -0.2179
 3793G2HFO Head45618  14.370  16.064  20.462  0.1877  0.3267  0.0891
 3793G2HFO Head45619  14.565  16.027  20.727 -0.1308 -0.1696  0.1489
 3793G2HFO Head45620  14.649  16.414  20.925  0.2986  0.3096  0.1939
 3793G2HFO Head45621  14.861  16.247  20.916  0.0371  0.1156 -0.0339
 3793G2HFO Head45622  14.910  15.967  20.699 -0.3424  0.2437 -0.0723
 3793G2HFO link45623  15.036  15.747  20.787  0.2309  0.3525  0.0933
 3793G2HFO link45624  15.252  15.712  20.949 -0.2693 -0.0619 -0.0311
 3793G2HFO Tail45625  15.484  15.949  20.958 -0.3680  0.3222  0.4157
 3793G2HFO Tail45626  15.651  15.786  21.216 -0.2749  0.1653  0.1818
 3793G2HFO Tail45627  15.966  15.726  21.318 -0.2323  0.2949  0.1396
 3793G2HFO Tail45628  16.389  15.871  21.293  0.1277  0.0807 -0.3804
 3793G2HFO Tail45629  15.333  16.197  21.137 -0.1076 -0.3191 -0.1492
 3793G2HFO Tail45630  15.130  16.156  21.304  0.0051 -0.0972 -0.1662
 3793G2HFO Tail45631  14.948  15.994  21.250  0.0114  0.1412 -0.2160
 3793G2HFO Tail45632  14.761  15.841  21.154 -0.0791  0.0549  0.1234
 3793G2HFO Tail45633  14.637  15.685  21.030 -0.0499 -0.0549  0.0374
 3794G2HFO Head45634  14.303  21.440  26.869 -0.1762 -0.1109  0.4512
 3794G2HFO Head45635  14.298  21.344  26.557 -0.3924  0.2100 -0.1586
 3794G2HFO Head45636  14.010  20.798  26.304 -0.1947 -0.0799  0.0066
 3794G2HFO Head45637  14.210  21.047  26.232  0.1182  0.2532 -0.4992
 3794G2HFO Head45638  14.486  21.060  26.448  0.2470  0.2990 -0.0287
 3794G2HFO Head45639  14.573  20.949  26.932  0.0654  0.3109  0.1886
 3794G2HFO Head45640  14.796  21.170  26.842  0.0021  0.2129 -0.0813
 3794G2HFO Head45641  14.643  21.740  26.384 -0.2522  0.3896 -0.1571
 3794G2HFO Head45642  14.757  21.522  26.588 -0.3638 -0.3097 -0.2047
 3794G2HFO Head45643  14.854  21.204  26.489 -0.1512 -0.1244 -0.1919
 3794G2HFO link45644  14.709  21.085  26.342 -0.4870  0.0410  0.2362
 3794G2HFO link45645  14.815  20.933  26.115  0.3073  0.3641 -0.0616
 3794G2HFO Tail45646  14.678  20.634  26.043  0.0571 -0.2139 -0.1054
 3794G2HFO Tail45647  14.930  20.409  26.180  0.2801  0.0532  0.0357
 3794G2HFO Tail45648  15.019  20.122  26.155  0.0705  0.4433  0.2231
 3794G2HFO Tail45649  14.872  19.723  26.073  0.0263 -0.0078  0.3543
 3794G2HFO Tail45650  14.419  20.600  26.270 -0.4697 -0.2127 -0.1933
 3794G2HFO Tail45651  14.371  20.379  26.385  0.0208  0.1739  0.2833
 3794G2HFO Tail45652  14.429  20.359  26.645  0.1792 -0.0550  0.2757
 3794G2HFO Tail45653  14.491  20.388  26.881 -0.0397  0.0074 -0.0786
 3794G2HFO Tail45654  14.579  20.471  27.084  0.5398  0.1814  0.0747
 3795G2HFO Head45655  18.715  17.988  25.376  0.0041  0.2713 -0.0984
 3795G2HFO Head45656  18.491  17.887  25.618  0.2288 -0.1804 -0.0670
 3795G2HFO Head45657  18.415  18.580  25.694  0.2324  0.1303 -0.1053
 3795G2HFO Head45658  18.418  18.267  25.802 -0.1217  0.2510  0.0223
 3795G2HFO Head45659  18.174  18.031  25.668  0.0778  0.0093 -0.1236
 3795G2HFO Head45660  18.677  17.627  26.175  0.1901  0.0344 -0.2553
 3795G2HFO Head45661  18.456  17.630  25.951  0.1482  0.0597  0.0650
 3795G2HFO Head45662  18.462  18.045  26.451 -0.5407 -0.3119 -0.0477
 3795G2HFO Head45663  18.418  18.053  26.147 -0.0740  0.4169  0.6228
 3795G2HFO Head45664  18.184  17.829  26.003  0.5669  0.1113 -0.5385
 3795G2HFO link45665  18.016  17.914  25.813  0.1829  0.0518 -0.1399
 3795G2HFO link45666  17.741  17.981  25.850 -0.0411  0.1979 -0.1666
 3795G2HFO Tail45667  17.529  17.870  25.613 -0.3159  0.2260 -0.2238
 3795G2HFO Tail45668  17.412  17.602  25.773  0.1970  0.1987  0.0363
 3795G2HFO Tail45669  17.165  17.571  25.982 -0.4948 -0.0789  0.0302
 3795G2HFO Tail45670  16.856  17.851  26.145  0.0703  0.1361 -0.0880
 3795G2HFO Tail45671  17.764  17.754  25.379 -0.2548 -0.0587 -0.2171
 3795G2HFO Tail45672  17.708  17.672  25.139 -0.0886 -0.0165  0.1121
 3795G2HFO Tail45673  17.866  17.754  24.946  0.2104  0.1688 -0.0736
 3795G2HFO Tail45674  18.020  17.778  24.743  0.0324  0.0235 -0.0246
 3795G2HFO Tail45675  18.113  17.847  24.546  0.1035 -0.1572 -0.2515
 3796G2HFO Head45676  16.134  14.459  22.980 -0.1847  0.0629 -0.1941
 3796G2HFO Head45677  16.054  14.714  23.029  0.1497 -0.1623  0.2032
 3796G2HFO Head45678  15.634  14.632  22.501  0.1575  0.1352 -0.0886
 3796G2HFO Head45679  15.750  14.713  22.781  0.0880 -0.0281 -0.0124
 3796G2HFO Head45680  16.017  14.948  22.771  0.0444 -0.4025  0.0632
 3796G2HFO Head45681  15.839  15.364  22.199 -0.1793  0.0435 -0.2329
 3796G2HFO Head45682  15.648  15.244  22.415 -0.0312 -0.1348  0.1932
 3796G2HFO Head45683  15.909  15.768  22.491 -0.1978 -0.0934  0.5514
 3796G2HFO Head45684  15.706  15.632  22.652 -0.1864 -0.0871  0.2726
 3796G2HFO Head45685  15.742  15.307  22.736 -0.2459  0.1185 -0.0519
 3796G2HFO link45686  15.982  15.227  22.803 -0.0321 -0.2670  0.1214
 3796G2HFO link45687  16.199  15.401  22.875  0.3187  0.3804 -0.0624
 3796G2HFO Tail45688  16.235  15.709  22.743 -0.0035 -0.0892  0.2063
 3796G2HFO Tail45689  16.147  15.912  23.028 -0.0671  0.0672 -0.1545
 3796G2HFO Tail45690  16.012  15.861  23.310  0.0760 -0.0232 -0.1486
 3796G2HFO Tail45691  15.719  16.060  23.573 -0.0249 -0.1201  0.3094
 3796G2HFO Tail45692  16.569  15.727  22.746  0.2156  0.4974  0.3237
 3796G2HFO Tail45693  16.686  15.947  22.832 -0.1025  0.1414  0.1394
 3796G2HFO Tail45694  16.831  16.091  22.667 -0.1351 -0.3320  0.0861
 3796G2HFO Tail45695  16.955  16.237  22.502 -0.0453 -0.0240  0.0816
 3796G2HFO Tail45696  17.047  16.318  22.300 -0.2055  0.1328  0.2096
 3797G2HFO Head45697  18.783  18.413  21.507  0.1650  0.0170 -0.0137
 3797G2HFO Head45698  18.498  18.416  21.356  0.0288  0.0187  0.1336
 3797G2HFO Head45699  18.122  18.707  21.564 -0.0280  0.1287  0.1568
 3797G2HFO Head45700  18.159  18.415  21.654  0.3622  0.4263  0.3117
 3797G2HFO Head45701  18.250  18.165  21.407  0.2515  0.0157 -0.4141
 3797G2HFO Head45702  18.762  18.104  22.060  0.3024  0.1512  0.3212
 3797G2HFO Head45703  18.688  18.032  21.779 -0.1628 -0.2500 -0.1230
 3797G2HFO Head45704  18.476  18.465  21.895 -0.0649 -0.0453  0.4205
 3797G2HFO Head45705  18.317  18.177  21.941 -0.6006 -0.1069 -0.2889
 3797G2HFO Head45706  18.376  17.921  21.695 -0.0944  0.1299 -0.3037
 3797G2HFO link45707  18.314  17.941  21.454  0.3146  0.7995 -0.3065
 3797G2HFO link45708  18.214  17.703  21.344  0.2328 -0.0951 -0.3829
 3797G2HFO Tail45709  17.995  17.501  21.497 -0.3381  0.1691  0.4980
 3797G2HFO Tail45710  18.053  17.209  21.316 -0.0387  0.1532  0.6244
 3797G2HFO Tail45711  18.214  17.115  21.058 -0.2527  0.1752  0.0189
 3797G2HFO Tail45712  18.172  17.010  20.630 -0.1133  0.2359  0.1549
 3797G2HFO Tail45713  18.192  17.435  21.778  0.3125  0.1169  0.4999
 3797G2HFO Tail45714  18.238  17.195  21.863  0.1252 -0.0578 -0.0267
 3797G2HFO Tail45715  18.483  17.104  21.870 -0.1151 -0.1455  0.2960
 3797G2HFO Tail45716  18.724  17.028  21.819 -0.2376 -0.1892 -0.1649
 3797G2HFO Tail45717  18.923  16.901  21.792  0.0022  0.1415 -0.1986
 3798G2HFO Head45718  16.044  14.789  20.221 -0.0412  0.2602 -0.0732
 3798G2HFO Head45719  16.291  14.876  20.017 -0.1700 -0.2014 -0.1170
 3798G2HFO Head45720  16.296  15.413  20.378 -0.0225  0.2025  0.0043
 3798G2HFO Head45721  16.340  15.242  20.150 -0.0625 -0.0323  0.2239
 3798G2HFO Head45722  16.574  14.969  20.179 -0.1048 -0.0133 -0.1067
 3798G2HFO Head45723  16.366  14.453  19.803  0.1488  0.0767  0.0424
 3798G2HFO Head45724  16.593  14.635  19.716 -0.2222 -0.0618 -0.0569
 3798G2HFO Head45725  16.536  14.431  20.381  0.1064 -0.1537  0.0783
 3798G2HFO Head45726  16.746  14.453  20.098  0.3082  0.2143  0.0161
 3798G2HFO Head45727  16.844  14.753  19.936 -0.3859 -0.2552  0.1428
 3798G2HFO link45728  16.811  14.997  20.042 -0.2476  0.2122 -0.0832
 3798G2HFO link45729  17.001  15.191  20.098  0.1830 -0.2706  0.0681
 3798G2HFO Tail45730  17.093  15.382  19.854  0.5015 -0.3792  0.1073
 3798G2HFO Tail45731  17.438  15.383  19.949  0.0902  0.0987  0.0847
 3798G2HFO Tail45732  17.594  15.575  20.154 -0.0449 -0.3251  0.1587
 3798G2HFO Tail45733  17.665  15.671  20.586  0.1272  0.1465 -0.2247
 3798G2HFO Tail45734  17.087  15.170  19.568 -0.4786 -0.2146  0.0830
 3798G2HFO Tail45735  16.969  14.936  19.588  0.2431 -0.2330 -0.1899
 3798G2HFO Tail45736  17.098  14.722  19.535  0.1539  0.1700 -0.0864
 3798G2HFO Tail45737  17.254  14.521  19.516  0.0420 -0.0575 -0.0479
 3798G2HFO Tail45738  17.358  14.314  19.562  0.1151 -0.0357  0.1309
 3799G2HFO Head45739  19.364  19.014  17.473  0.0696 -0.1652  0.1932
 3799G2HFO Head45740  19.590  18.754  17.377  0.1416 -0.1981 -0.1822
 3799G2HFO Head45741  19.170  18.299  17.035  0.0545  0.3003  0.3828
 3799G2HFO Head45742  19.414  18.465  17.134  0.1998 -0.0045  0.0848
 3799G2HFO Head45743  19.521  18.415  17.458  0.0778 -0.3355  0.1506
 3799G2HFO Head45744  19.642  18.272  16.746  0.3146  0.0721  0.0790
 3799G2HFO Head45745  19.796  18.262  16.995 -0.1919 -0.1558 -0.2971
 3799G2HFO Head45746  20.127  17.962  16.926  0.0916 -0.2184 -0.2144
 3799G2HFO Head45747  19.988  17.931  17.202 -0.3711  0.0260  0.1452
 3799G2HFO Head45748  19.703  18.102  17.299 -0.1294 -0.1990 -0.0536
 3799G2HFO link45749  19.710  18.244  17.517 -0.2666  0.1201  0.2056
 3799G2HFO link45750  19.748  18.141  17.784 -0.0593 -0.2962  0.2537
 3799G2HFO Tail45751  20.029  17.999  17.891  0.0007 -0.1147 -0.2598
 3799G2HFO Tail45752  20.012  17.666  17.843 -0.1771 -0.0909 -0.1495
 3799G2HFO Tail45753  20.143  17.405  17.972  0.1856  0.0933  0.3111
 3799G2HFO Tail45754  20.208  16.990  17.866  0.2210  0.3527 -0.2660
 3799G2HFO Tail45755  20.216  18.077  17.605  0.2176  0.0143 -0.4349
 3799G2HFO Tail45756  20.381  17.910  17.503 -0.1977  0.0142  0.0986
 3799G2HFO Tail45757  20.463  17.707  17.643 -0.2655  0.0522  0.0838
 3799G2HFO Tail45758  20.529  17.497  17.762  0.0609 -0.1287  0.0574
 3799G2HFO Tail45759  20.532  17.311  17.910  0.1754  0.2589  0.0669
 3800G2HFO Head45760  19.782  15.762  16.963 -0.2763  0.1845  0.1580
 3800G2HFO Head45761  20.010  15.998  16.989 -0.0483 -0.0569  0.1413
 3800G2HFO Head45762  20.235  15.620  17.527 -0.2511 -0.0934 -0.0136
 3800G2HFO Head45763  20.008  15.820  17.380  0.0272  0.2858  0.0473
 3800G2HFO Head45764  20.075  16.130  17.289 -0.3266 -0.5938 -0.5205
 3800G2HFO Head45765  20.163  16.718  16.691 -0.0814 -0.0007 -0.0317
 3800G2HFO Head45766  20.167  16.671  17.001  0.1513 -0.0737  0.0168
 3800G2HFO Head45767  20.016  16.271  16.645  0.2125  0.0544  0.3179
 3800G2HFO Head45768  19.808  16.372  16.848  0.0817  0.1703  0.1303
 3800G2HFO Head45769  19.906  16.502  17.167 -0.0673 -0.5244  0.1574
 3800G2HFO link45770  19.962  16.349  17.386 -0.1607  0.1919  0.1678
 3800G2HFO link45771  19.873  16.408  17.644 -0.0799 -0.2109 -0.3084
 3800G2HFO Tail45772  20.063  16.366  17.921 -0.0527  0.3183  0.0144
 3800G2HFO Tail45773  19.823  16.467  18.176  0.0825  0.0581 -0.0058
 3800G2HFO Tail45774  19.639  16.307  18.373  0.0126 -0.0872 -0.3188
 3800G2HFO Tail45775  19.643  15.990  18.686  0.1373 -0.0075 -0.1001
 3800G2HFO Tail45776  20.009  16.041  17.982  0.0308  0.0671 -0.2014
 3800G2HFO Tail45777  19.957  15.864  17.798  0.0581  0.0161 -0.0061
 3800G2HFO Tail45778  19.704  15.844  17.720  0.2891  0.0499  0.0954
 3800G2HFO Tail45779  19.461  15.859  17.642 -0.2780 -0.2591 -0.1602
 3800G2HFO Tail45780  19.271  15.838  17.514  0.0962 -0.2854  0.0067
 3801G2HFO Head45781  19.136  18.643  20.839 -0.3130  0.4588  0.1573
 3801G2HFO Head45782  19.181  18.506  20.560 -0.2493 -0.2917  0.1137
 3801G2HFO Head45783  18.754  18.778  20.504  0.1038 -0.3750 -0.2815
 3801G2HFO Head45784  18.691  18.478  20.423  0.0414  0.0474 -0.1072
 3801G2HFO Head45785  18.964  18.248  20.449  0.1115  0.0561 -0.0247
 3801G2HFO Head45786  18.396  18.126  20.410 -0.1473 -0.0887 -0.1828
 3801G2HFO Head45787  18.536  18.223  20.126  0.0272  0.4212 -0.0719
 3801G2HFO Head45788  18.751  18.711  19.989  0.1139 -0.3090 -0.0214
 3801G2HFO Head45789  18.879  18.442  19.879  0.1992  0.1284  0.1086
 3801G2HFO Head45790  18.865  18.144  20.062  0.2999 -0.1567  0.0861
 3801G2HFO link45791  19.029  18.107  20.244  0.2662  0.0886 -0.7317
 3801G2HFO link45792  19.188  17.890  20.272  0.0623  0.1112  0.3262
 3801G2HFO Tail45793  19.343  17.765  20.002 -0.1578 -0.0973 -0.4791
 3801G2HFO Tail45794  19.175  17.452  19.955 -0.0515 -0.2529  0.1525
 3801G2HFO Tail45795  19.198  17.204  19.786 -0.1958  0.0842 -0.1787
 3801G2HFO Tail45796  19.007  16.840  19.663  0.3830 -0.1693  0.1921
 3801G2HFO Tail45797  19.168  17.938  19.767  0.2797 -0.4007 -0.1016
 3801G2HFO Tail45798  19.200  17.885  19.523 -0.0371 -0.2063 -0.1041
 3801G2HFO Tail45799  19.184  17.641  19.454  0.1249  0.4008  0.2803
 3801G2HFO Tail45800  19.183  17.411  19.344 -0.2225  0.0176 -0.0632
 3801G2HFO Tail45801  19.119  17.189  19.291  0.0415 -0.1980  0.1535
 3802G2HFO Head45802  18.589  16.063  22.230 -0.1129 -0.1497  0.1691
 3802G2HFO Head45803  18.540  15.735  22.264 -0.0730 -0.3110  0.0501
 3802G2HFO Head45804  18.776  15.296  22.508  0.1209 -0.0772  0.1353
 3802G2HFO Head45805  18.830  15.420  22.200 -0.0784 -0.2833  0.2753
 3802G2HFO Head45806  18.559  15.508  22.005  0.3643  0.1581  0.1137
 3802G2HFO Head45807  19.287  15.158  21.650  0.0206 -0.4359 -0.1223
 3802G2HFO Head45808  19.057  15.284  21.827  0.1182 -0.1626  0.3012
 3802G2HFO Head45809  18.982  15.564  21.179 -0.1791 -0.0405  0.0899
 3802G2HFO Head45810  19.035  15.504  21.477  0.0400 -0.0766  0.0745
 3802G2HFO Head45811  18.762  15.400  21.675  0.3266 -0.2227 -0.0083
 3802G2HFO link45812  18.577  15.569  21.774 -0.0393  0.0792 -0.0565
 3802G2HFO link45813  18.539  15.840  21.691  0.3064 -0.0651 -0.3498
 3802G2HFO Tail45814  18.325  16.052  21.820 -0.1379  0.4052  0.1332
 3802G2HFO Tail45815  18.307  16.246  21.542  0.2413 -0.3414 -0.0514
 3802G2HFO Tail45816  18.297  16.562  21.487 -0.1357 -0.1805 -0.0666
 3802G2HFO Tail45817  18.556  16.890  21.343  0.0940 -0.2669  0.1587
 3802G2HFO Tail45818  18.035  15.859  21.808 -0.4735  0.2392  0.2305
 3802G2HFO Tail45819  17.922  15.775  22.032 -0.2239  0.0304  0.1120
 3802G2HFO Tail45820  18.049  15.613  22.184 -0.0729  0.1337 -0.0712
 3802G2HFO Tail45821  18.210  15.431  22.284  0.2904 -0.0303 -0.1506
 3802G2HFO Tail45822  18.385  15.298  22.345 -0.0563  0.1006  0.2170
 3803G2HFO Head45823  20.533  14.275  22.623 -0.0929 -0.0670 -0.1005
 3803G2HFO Head45824  20.279  14.357  22.422  0.4512 -0.0159  0.7291
 3803G2HFO Head45825  20.864  14.762  22.234  0.2978  0.2194 -0.1865
 3803G2HFO Head45826  20.616  14.662  22.374 -0.1415 -0.2818  0.1017
 3803G2HFO Head45827  20.311  14.645  22.209  0.2386  0.0793  0.2106
 3803G2HFO Head45828  20.561  15.182  22.781 -0.1119 -0.1655  0.1901
 3803G2HFO Head45829  20.490  15.043  22.494 -0.1599  0.1121  0.2534
 3803G2HFO Head45830  20.393  15.461  22.238 -0.0454  0.1424 -0.1359
 3803G2HFO Head45831  20.191  15.327  22.385  0.1112 -0.3267 -0.4368
 3803G2HFO Head45832  20.174  14.982  22.397  0.4176 -0.0978 -0.0181
 3803G2HFO link45833  20.111  14.811  22.200 -0.2730  0.4042  0.3648
 3803G2HFO link45834  19.860  14.771  22.085 -0.0531 -0.3104 -0.2174
 3803G2HFO Tail45835  19.725  15.023  21.910 -0.0017  0.0890  0.1349
 3803G2HFO Tail45836  19.801  14.930  21.590  0.3038  0.3881 -0.1428
 3803G2HFO Tail45837  19.659  14.980  21.317 -0.0004  0.2458  0.1295
 3803G2HFO Tail45838  19.377  15.253  21.104 -0.0836  0.0891  0.1052
 3803G2HFO Tail45839  19.982  15.259  21.942  0.1030  0.0818 -0.1818
 3803G2HFO Tail45840  20.205  15.211  21.827 -0.1178 -0.1185 -0.3504
 3803G2HFO Tail45841  20.246  15.280  21.581 -0.2048  0.0142  0.0011
 3803G2HFO Tail45842  20.258  15.400  21.355 -0.0198  0.2257  0.1586
 3803G2HFO Tail45843  20.302  15.483  21.137  0.2875  0.2484  0.0697
 3804G2HFO Head45844  21.691  18.206  21.356 -0.1582  0.1530 -0.0337
 3804G2HFO Head45845  21.674  18.395  21.090  0.5089  0.3134  0.0194
 3804G2HFO Head45846  22.049  18.508  20.773 -0.4248  0.0633  0.3653
 3804G2HFO Head45847  21.786  18.486  20.657 -0.1865  0.4323  0.0706
 3804G2HFO Head45848  21.599  18.230  20.776 -0.2196  0.0980 -0.1974
 3804G2HFO Head45849  21.566  18.837  20.826 -0.0210 -0.1564  0.0108
 3804G2HFO Head45850  21.283  18.733  20.903  0.3593 -0.1182 -0.2333
 3804G2HFO Head45851  20.753  18.667  21.084 -0.2234  0.0213 -0.1532
 3804G2HFO Head45852  20.906  18.546  20.855  0.3680  0.2278 -0.3183
 3804G2HFO Head45853  21.214  18.387  20.893 -0.0289 -0.0525  0.0062
 3804G2HFO link45854  21.332  18.228  20.713  0.0341  0.3380  0.2196
 3804G2HFO link45855  21.221  18.054  20.516  0.1216  0.1119 -0.1215
 3804G2HFO Tail45856  20.912  17.987  20.502  0.2346 -0.2916 -0.0549
 3804G2HFO Tail45857  20.894  17.904  20.153 -0.1318 -0.1619 -0.1524
 3804G2HFO Tail45858  21.114  17.880  19.933  0.1492  0.1610 -0.0012
 3804G2HFO Tail45859  21.134  17.808  19.508 -0.0957 -0.2635 -0.0211
 3804G2HFO Tail45860  20.782  18.299  20.502 -0.0019 -0.0413  0.0975
 3804G2HFO Tail45861  20.847  18.494  20.324  0.0602 -0.1567 -0.0199
 3804G2HFO Tail45862  20.675  18.674  20.279 -0.1101  0.0618 -0.1017
 3804G2HFO Tail45863  20.482  18.831  20.232  0.2252 -0.1254  0.1137
 3804G2HFO Tail45864  20.348  19.001  20.144 -0.0582 -0.1582 -0.3703
 3805G2HFO Head45865  22.822  18.108  20.237 -0.0742 -0.1505  0.3033
 3805G2HFO Head45866  22.732  17.909  19.964  0.1812 -0.0779 -0.0445
 3805G2HFO Head45867  22.392  17.555  19.840 -0.2137  0.0314  0.0941
 3805G2HFO Head45868  22.381  17.862  19.705 -0.1037 -0.0074 -0.1459
 3805G2HFO Head45869  22.685  18.044  19.648 -0.0369  0.0763 -0.0138
 3805G2HFO Head45870  23.614  18.245  19.374  0.1149 -0.8231  0.1908
 3805G2HFO Head45871  23.345  18.068  19.469 -0.1644 -0.3408  0.1392
 3805G2HFO Head45872  23.115  18.608  19.006 -0.0418 -0.1608  0.0410
 3805G2HFO Head45873  23.133  18.271  19.097 -0.0962  0.6041  0.0092
 3805G2HFO Head45874  23.023  18.154  19.419 -0.3475 -0.3109 -0.3116
 3805G2HFO link45875  22.844  17.977  19.422  0.3265  0.2569 -0.1306
 3805G2HFO link45876  22.714  17.862  19.200  0.2789 -0.3842 -0.3595
 3805G2HFO Tail45877  22.687  17.542  19.187 -0.0954 -0.3295 -0.0183
 3805G2HFO Tail45878  22.351  17.543  19.304 -0.1343 -0.1288  0.0563
 3805G2HFO Tail45879  22.079  17.646  19.193 -0.1725  0.4507  0.2181
 3805G2HFO Tail45880  21.656  17.577  19.197 -0.2058  0.1374  0.1582
 3805G2HFO Tail45881  22.843  17.474  19.485 -0.1300 -0.0827 -0.0263
 3805G2HFO Tail45882  23.030  17.633  19.583  0.0961 -0.1691  0.0672
 3805G2HFO Tail45883  23.257  17.603  19.473 -0.1540 -0.0200 -0.2225
 3805G2HFO Tail45884  23.468  17.539  19.354 -0.0253  0.1113  0.2968
 3805G2HFO Tail45885  23.650  17.529  19.210 -0.4502 -0.2446 -0.3466
 3806G2HFO Head45886  17.629  16.621  27.162 -0.0893 -0.1518  0.3266
 3806G2HFO Head45887  17.530  16.856  26.983  0.0298 -0.0666  0.0463
 3806G2HFO Head45888  17.580  17.164  27.671  0.1799 -0.2432 -0.4460
 3806G2HFO Head45889  17.613  17.116  27.344  0.1235  0.1453  0.5711
 3806G2HFO Head45890  17.349  17.138  27.137  0.1094  0.0857  0.4427
 3806G2HFO Head45891  17.947  17.094  26.771 -0.0930 -0.1027 -0.0781
 3806G2HFO Head45892  17.827  17.271  26.950  0.2757 -0.2916 -0.0071
 3806G2HFO Head45893  17.718  17.575  26.375 -0.2971  0.0405 -0.0323
 3806G2HFO Head45894  17.648  17.328  26.568 -0.0155  0.0970  0.2174
 3806G2HFO Head45895  17.523  17.434  26.881  0.2546 -0.1634 -0.0977
 3806G2HFO link45896  17.300  17.370  26.993 -0.2348 -0.3202  0.0986
 3806G2HFO link45897  17.051  17.504  26.987 -0.0011 -0.3924  0.0612
 3806G2HFO Tail45898  16.788  17.359  26.844 -0.2921 -0.1601  0.2664
 3806G2HFO Tail45899  16.686  17.601  26.617 -0.0493 -0.1202  0.3469
 3806G2HFO Tail45900  16.436  17.700  26.449  0.6365 -0.1118  0.0970
 3806G2HFO Tail45901  16.024  17.559  26.371 -0.1067 -0.2123 -0.1397
 3806G2HFO Tail45902  16.957  17.135  26.618 -0.1831 -0.1435 -0.0353
 3806G2HFO Tail45903  17.205  17.102  26.677  0.2221 -0.0012 -0.1900
 3806G2HFO Tail45904  17.342  16.927  26.540  0.0692  0.0708 -0.2149
 3806G2HFO Tail45905  17.507  16.774  26.423 -0.0170  0.0521 -0.2096
 3806G2HFO Tail45906  17.687  16.652  26.334 -0.1566 -0.0180  0.1205
 3807G2HFO Head45907  17.890  16.289  18.465 -0.1807 -0.1234  0.0215
 3807G2HFO Head45908  17.888  16.000  18.469 -0.0523 -0.0501  0.0931
 3807G2HFO Head45909  18.327  15.879  18.060 -0.0351  0.0561 -0.2352
 3807G2HFO Head45910  18.322  15.975  18.396  0.1324  0.1030 -0.0079
 3807G2HFO Head45911  18.126  15.784  18.614  0.0506 -0.2635 -0.1321
 3807G2HFO Head45912  17.765  14.968  18.277  0.4111  0.0219 -0.1747
 3807G2HFO Head45913  17.944  15.222  18.187  0.2838  0.2921  0.0723
 3807G2HFO Head45914  17.384  15.433  18.293 -0.1674  0.1119 -0.1583
 3807G2HFO Head45915  17.630  15.364  18.480 -0.3623 -0.0916 -0.0833
 3807G2HFO Head45916  17.931  15.516  18.393  0.3223  0.0672  0.0688
 3807G2HFO link45917  18.110  15.526  18.572  0.3375  0.3044  0.0169
 3807G2HFO link45918  18.293  15.321  18.657  0.0133  0.0651 -0.2486
 3807G2HFO Tail45919  18.603  15.371  18.736 -0.3384 -0.0330 -0.3836
 3807G2HFO Tail45920  18.617  15.724  18.785 -0.0946 -0.0984  0.3293
 3807G2HFO Tail45921  18.513  15.929  19.004  0.2807  0.1046 -0.2451
 3807G2HFO Tail45922  18.553  16.340  19.145  0.0202 -0.0815  0.1461
 3807G2HFO Tail45923  18.607  15.299  19.075 -0.1631  0.0423  0.1270
 3807G2HFO Tail45924  18.809  15.212  19.238  0.1622 -0.1898 -0.0134
 3807G2HFO Tail45925  18.833  14.960  19.302 -0.0842 -0.2369  0.0659
 3807G2HFO Tail45926  18.891  14.722  19.347  0.0344 -0.0217 -0.2446
 3807G2HFO Tail45927  18.983  14.503  19.330  0.4887 -0.5037  0.1147
 3808G2HFO Head45928  22.497  18.972  17.776  0.0834 -0.2458  0.0854
 3808G2HFO Head45929  22.352  18.772  17.659 -0.1079  0.0146  0.6516
 3808G2HFO Head45930  22.150  19.242  17.117 -0.1168 -0.1341 -0.1084
 3808G2HFO Head45931  22.234  19.120  17.397  0.0822 -0.0982 -0.0084
 3808G2HFO Head45932  22.043  18.859  17.532 -0.0580 -0.2171 -0.3466
 3808G2HFO Head45933  22.193  19.603  17.928  0.0492 -0.2423  0.0179
 3808G2HFO Head45934  22.168  19.290  17.828 -0.0297  0.2165 -0.3279
 3808G2HFO Head45935  21.707  19.584  18.184 -0.2449 -0.0360 -0.3087
 3808G2HFO Head45936  21.796  19.256  18.114 -0.1187  0.1081  0.1005
 3808G2HFO Head45937  21.858  19.150  17.791  0.0542 -0.4196  0.1509
 3808G2HFO link45938  21.849  18.901  17.705  0.0192 -0.6161 -0.4447
 3808G2HFO link45939  21.670  18.700  17.805 -0.3009  0.0378  0.2140
 3808G2HFO Tail45940  21.743  18.380  17.834  0.0246 -0.5997 -0.1869
 3808G2HFO Tail45941  21.506  18.233  17.618 -0.0483  0.0546 -0.0390
 3808G2HFO Tail45942  21.389  17.951  17.515  0.1281 -0.0565  0.5997
 3808G2HFO Tail45943  21.086  17.664  17.621 -0.4052  0.1684 -0.0786
 3808G2HFO Tail45944  22.023  18.359  17.634  0.6538 -0.1198  0.1061
 3808G2HFO Tail45945  22.116  18.128  17.557  0.0599  0.3326 -0.0962
 3808G2HFO Tail45946  21.971  17.910  17.582 -0.1254 -0.4063 -0.2176
 3808G2HFO Tail45947  21.790  17.724  17.624  0.1030 -0.0511 -0.1949
 3808G2HFO Tail45948  21.653  17.532  17.618 -0.3100  0.3267  0.1485
 3809G2HFO Head45949  16.654  21.494  26.195  0.2812  0.5681  0.0605
 3809G2HFO Head45950  16.401  21.452  26.381 -0.3116  0.1528 -0.2476
 3809G2HFO Head45951  16.122  21.624  26.732 -0.1735  0.1533  0.1747
 3809G2HFO Head45952  16.109  21.314  26.614  0.3545  0.3967 -0.4554
 3809G2HFO Head45953  16.116  21.276  26.280  0.0554 -0.4142  0.0671
 3809G2HFO Head45954  15.545  21.609  25.719  0.0840  0.1327  0.0094
 3809G2HFO Head45955  15.823  21.634  25.673  0.1044  0.1293 -0.2579
 3809G2HFO Head45956  16.100  21.488  25.316 -0.0211  0.0019  0.0673
 3809G2HFO Head45957  16.068  21.308  25.577  0.5437 -0.0966  0.0732
 3809G2HFO Head45958  16.036  21.460  25.887 -0.0457 -0.6719  0.0315
 3809G2HFO link45959  15.932  21.367  26.115 -0.1012  0.0800 -0.1547
 3809G2HFO link45960  15.648  21.375  26.150  0.1175  0.1883  0.0013
 3809G2HFO Tail45961  15.476  21.397  26.438  0.1119 -0.1929 -0.0860
 3809G2HFO Tail45962  15.671  21.654  26.567  0.2239 -0.3373 -0.0909
 3809G2HFO Tail45963  15.611  21.889  26.775  0.1651 -0.0842 -0.1270
 3809G2HFO Tail45964  15.382  22.254  26.880 -0.4602 -0.2148 -0.3322
 3809G2HFO Tail45965  15.225  21.593  26.305  0.3793  0.1345 -0.0623
 3809G2HFO Tail45966  15.141  21.551  26.066 -0.1845  0.2360 -0.0310
 3809G2HFO Tail45967  14.903  21.456  26.026  0.0755  0.1981 -0.0721
 3809G2HFO Tail45968  14.653  21.407  26.003 -0.1449  0.0476  0.0061
 3809G2HFO Tail45969  14.437  21.326  26.031  0.0682  0.2157  0.0956
 3810G2HFO Head45970  22.744  15.888  19.539  0.0557 -0.4376 -0.4941
 3810G2HFO Head45971  22.662  16.176  19.363  0.0503 -0.4966  0.0444
 3810G2HFO Head45972  23.142  16.099  19.404 -0.2430  0.1478 -0.1182
 3810G2HFO Head45973  23.070  16.256  19.167 -0.4302 -0.1600  0.0960
 3810G2HFO Head45974  22.752  16.220  19.023 -0.3879  0.0521 -0.2398
 3810G2HFO Head45975  23.189  15.459  19.195 -0.1401 -0.2683  0.0527
 3810G2HFO Head45976  23.032  15.745  19.155 -0.2009 -0.1672  0.1932
 3810G2HFO Head45977  23.435  15.913  18.983  0.1312 -0.1314 -0.0130
 3810G2HFO Head45978  23.200  15.994  18.793  0.0001 -0.0336 -0.0667
 3810G2HFO Head45979  22.884  15.862  18.854 -0.5568 -0.4550 -0.3431
 3810G2HFO link45980  22.680  16.019  18.844 -0.0082 -0.6449 -0.2507
 3810G2HFO link45981  22.409  15.952  18.815 -0.2502  0.4388  0.0072
 3810G2HFO Tail45982  22.185  16.142  18.953 -0.2213 -0.1676 -0.3511
 3810G2HFO Tail45983  22.368  16.447  18.952  0.1192  0.0229 -0.1894
 3810G2HFO Tail45984  22.579  16.597  19.132 -0.0071 -0.5152  0.2448
 3810G2HFO Tail45985  22.769  16.983  19.173 -0.1735  0.0853 -0.0433
 3810G2HFO Tail45986  22.006  16.216  18.678 -0.2237  0.1384  0.2330
 3810G2HFO Tail45987  21.794  16.359  18.662 -0.1082  0.2251  0.2953
 3810G2HFO Tail45988  21.652  16.375  18.451 -0.0111  0.0400  0.1086
 3810G2HFO Tail45989  21.533  16.388  18.229 -0.1532 -0.1249 -0.1339
 3810G2HFO Tail45990  21.461  16.347  18.010 -0.1649 -0.3210  0.2491
 3811G2HFO Head45991  21.045  15.951  16.537 -0.1896 -0.1777 -0.3633
 3811G2HFO Head45992  20.772  16.021  16.705 -0.0099  0.1616 -0.1188
 3811G2HFO Head45993  21.300  15.835  17.194  0.1411 -0.0828  0.2293
 3811G2HFO Head45994  21.114  15.985  16.980 -0.2961 -0.2134  0.0457
 3811G2HFO Head45995  20.770  16.023  17.059 -0.0958  0.2585 -0.1417
 3811G2HFO Head45996  20.135  15.804  16.583  0.2063  0.1080 -0.1595
 3811G2HFO Head45997  20.366  15.873  16.762  0.2545  0.2591  0.1900
 3811G2HFO Head45998  20.043  15.374  17.177 -0.3629 -0.0342 -0.3188
 3811G2HFO Head45999  20.222  15.551  16.973 -0.1165 -0.0037  0.1447
 3811G2HFO Head46000  20.389  15.832  17.104 -0.1736  0.4952  0.2792
 3811G2HFO link46001  20.641  15.844  17.193  0.0327  0.1791  0.3071
 3811G2HFO link46002  20.717  15.747  17.453 -0.0692  0.0284  0.4467
 3811G2HFO Tail46003  20.567  15.822  17.736  0.1309  0.0979 -0.1226
 3811G2HFO Tail46004  20.808  15.989  17.927 -0.0884 -0.0195  0.0127
 3811G2HFO Tail46005  20.833  16.040  18.226 -0.1285 -0.1702  0.2060
 3811G2HFO Tail46006  20.851  16.331  18.551 -0.2865  0.0114  0.0765
 3811G2HFO Tail46007  20.338  16.080  17.626 -0.0231  0.0298 -0.1163
 3811G2HFO Tail46008  20.418  16.265  17.457  0.0339 -0.1675  0.0044
 3811G2HFO Tail46009  20.676  16.274  17.393  0.2675 -0.0301 -0.1061
 3811G2HFO Tail46010  20.929  16.251  17.373 -0.0515 -0.0554  0.0381
 3811G2HFO Tail46011  21.152  16.183  17.409 -0.1068 -0.1626  0.2511
 3812G2HFO Head46012  13.941  19.948  23.690 -0.1608 -0.0716 -0.0484
 3812G2HFO Head46013  14.061  19.901  23.965  0.2802  0.2529  0.7337
 3812G2HFO Head46014  13.517  19.935  23.915 -0.3267  0.0468  0.1438
 3812G2HFO Head46015  13.641  19.679  24.042 -0.2377  0.0557  0.1566
 3812G2HFO Head46016  13.963  19.629  24.167  0.0221  0.2663 -0.0070
 3812G2HFO Head46017  13.410  20.182  24.381  0.2359 -0.1970 -0.1659
 3812G2HFO Head46018  13.545  19.899  24.413 -0.0916 -0.0587 -0.5326
 3812G2HFO Head46019  13.403  19.976  24.827 -0.0677  0.2376  0.2457
 3812G2HFO Head46020  13.727  19.887  24.797 -0.1264 -0.0372  0.2087
 3812G2HFO Head46021  13.881  19.867  24.490  0.2061 -0.0263 -0.1748
 3812G2HFO link46022  14.000  19.647  24.416  0.0138 -0.1083 -0.1285
 3812G2HFO link46023  14.017  19.417  24.590  0.2123 -0.1122  0.2665
 3812G2HFO Tail46024  14.201  19.134  24.548 -0.0812 -0.0608  0.0827
 3812G2HFO Tail46025  14.522  19.276  24.542 -0.0877  0.1651  0.1031
 3812G2HFO Tail46026  14.798  19.127  24.619  0.2708 -0.0679  0.4143
 3812G2HFO Tail46027  14.974  18.724  24.652  0.1600 -0.1111 -0.1614
 3812G2HFO Tail46028  14.232  19.030  24.865  0.1345 -0.1667  0.0736
 3812G2HFO Tail46029  14.181  18.788  24.936 -0.1492  0.0977 -0.1377
 3812G2HFO Tail46030  13.951  18.685  24.878  0.3587 -0.1961  0.2101
 3812G2HFO Tail46031  13.732  18.554  24.827  0.1113 -0.0013 -0.1405
 3812G2HFO Tail46032  13.550  18.455  24.721  0.2289 -0.1982  0.1531
 3813G2HFO Head46033  15.116  14.546  25.850 -0.0649  0.1442  0.1375
 3813G2HFO Head46034  15.276  14.759  25.637 -0.2092  0.1743 -0.0016
 3813G2HFO Head46035  15.034  15.022  26.061 -0.1507  0.3127  0.3358
 3813G2HFO Head46036  15.086  15.163  25.777 -0.0208  0.3044  0.3274
 3813G2HFO Head46037  15.097  14.988  25.478  0.1260 -0.3256 -0.1968
 3813G2HFO Head46038  14.886  14.544  25.386 -0.2106  0.1454 -0.0022
 3813G2HFO Head46039  15.086  14.599  25.134 -0.0229  0.3315 -0.3080
 3813G2HFO Head46040  15.248  14.698  24.606 -0.3754  0.1066  0.1296
 3813G2HFO Head46041  15.096  14.856  24.813 -0.0177 -0.0471 -0.2308
 3813G2HFO Head46042  15.267  14.888  25.123  0.5408  0.3514 -0.0036
 3813G2HFO link46043  15.198  15.100  25.272  0.1250 -0.1642 -0.2069
 3813G2HFO link46044  15.353  15.338  25.278  0.0914 -0.4531 -0.0112
 3813G2HFO Tail46045  15.275  15.590  25.471  0.0964 -0.3614 -0.1499
 3813G2HFO Tail46046  15.267  15.864  25.259  0.1999 -0.0341 -0.0852
 3813G2HFO Tail46047  15.078  15.978  25.034 -0.1069 -0.4303  0.0048
 3813G2HFO Tail46048  15.121  16.076  24.603 -0.0762 -0.1340 -0.0753
 3813G2HFO Tail46049  14.924  15.547  25.492  0.3788  0.3672  0.0071
 3813G2HFO Tail46050  14.742  15.723  25.581  0.4672  0.0699  0.0909
 3813G2HFO Tail46051  14.752  15.963  25.500 -0.1582 -0.0237 -0.2269
 3813G2HFO Tail46052  14.802  16.184  25.391  0.0876 -0.1722  0.0369
 3813G2HFO Tail46053  14.897  16.384  25.311 -0.0479  0.1901 -0.0862
 3814G2HFO Head46054  16.530  18.554  20.709  0.1735  0.2285  0.1832
 3814G2HFO Head46055  16.744  18.332  20.601 -0.2105  0.2809  0.0998
 3814G2HFO Head46056  16.894  18.583  20.313 -0.1718 -0.0238 -0.0900
 3814G2HFO Head46057  17.127  18.424  20.471 -0.0901  0.0758 -0.1087
 3814G2HFO Head46058  17.032  18.259  20.774 -0.1578 -0.1248  0.4000
 3814G2HFO Head46059  17.776  17.803  21.146 -0.1872 -0.1027 -0.2785
 3814G2HFO Head46060  17.447  17.751  21.138  0.0289  0.0653 -0.0172
 3814G2HFO Head46061  17.389  18.291  21.497  0.1480  0.2648 -0.0526
 3814G2HFO Head46062  17.433  18.213  21.201  0.3152 -0.0169  0.3034
 3814G2HFO Head46063  17.190  17.988  21.065 -0.0560 -0.0716  0.6345
 3814G2HFO link46064  17.115  18.020  20.806  0.1021  0.0690 -0.0279
 3814G2HFO link46065  16.984  17.819  20.647 -0.2041 -0.3647  0.3247
 3814G2HFO Tail46066  16.921  17.518  20.762 -0.1208  0.0947 -0.0410
 3814G2HFO Tail46067  16.846  17.315  20.464 -0.2181 -0.2504  0.2648
 3814G2HFO Tail46068  17.046  17.163  20.285  0.2994  0.0082  0.6066
 3814G2HFO Tail46069  17.465  16.998  20.341  0.2324  0.0613 -0.2264
 3814G2HFO Tail46070  17.234  17.366  20.837  0.3828  0.2413  0.3149
 3814G2HFO Tail46071  17.297  17.117  20.767  0.3777 -0.0820 -0.1158
 3814G2HFO Tail46072  17.509  17.012  20.871 -0.0219  0.1762 -0.2364
 3814G2HFO Tail46073  17.742  16.912  20.936 -0.0277  0.2637  0.0490
 3814G2HFO Tail46074  17.932  16.770  20.944  0.1008  0.2128  0.0030
 3815G2HFO Head46075  14.754  18.160  21.412 -0.0127  0.2588 -0.2674
 3815G2HFO Head46076  14.618  18.261  21.675 -0.4618 -0.4048  0.3834
 3815G2HFO Head46077  15.143  18.696  21.887  0.0817  0.1694  0.2681
 3815G2HFO Head46078  14.831  18.564  21.888 -0.1139  0.0047  0.0515
 3815G2HFO Head46079  14.765  18.239  21.983  0.1015  0.4012 -0.2308
 3815G2HFO Head46080  13.820  18.077  21.943  0.2410  0.0161 -0.1789
 3815G2HFO Head46081  14.061  18.073  22.195 -0.2117  0.2178  0.0126
 3815G2HFO Head46082  14.183  18.197  21.523 -0.0356  0.1509  0.0914
 3815G2HFO Head46083  14.249  18.080  21.795  0.1096 -0.0424 -0.5061
 3815G2HFO Head46084  14.363  18.241  22.091 -0.1675 -0.4179 -0.2931
 3815G2HFO link46085  14.605  18.183  22.184 -0.1568  0.2038 -0.4539
 3815G2HFO link46086  14.675  18.182  22.469 -0.5082 -0.0059 -0.0454
 3815G2HFO Tail46087  14.769  17.906  22.638 -0.0753  0.1611  0.1065
 3815G2HFO Tail46088  14.929  17.731  22.387 -0.2947 -0.1628 -0.3093
 3815G2HFO Tail46089  15.200  17.547  22.417  0.3875 -0.4507  0.0403
 3815G2HFO Tail46090  15.437  17.318  22.706 -0.1056  0.0359 -0.2411
 3815G2HFO Tail46091  14.475  17.712  22.639 -0.1281 -0.2055  0.0152
 3815G2HFO Tail46092  14.323  17.728  22.432 -0.2820 -0.3479  0.3369
 3815G2HFO Tail46093  14.436  17.767  22.195 -0.0827  0.0666  0.0595
 3815G2HFO Tail46094  14.595  17.799  21.994  0.3797  0.0067 -0.1383
 3815G2HFO Tail46095  14.694  17.822  21.784 -0.1146 -0.2265 -0.1157
 3816G2HFO Head46096  20.365  18.340  21.185  0.2762  0.1736 -0.0852
 3816G2HFO Head46097  20.254  18.451  20.964 -0.2715  0.5086 -0.4246
 3816G2HFO Head46098  20.337  18.955  20.724  0.1269 -0.2512 -0.2876
 3816G2HFO Head46099  20.514  18.694  20.688 -0.4218 -0.1138 -0.0057
 3816G2HFO Head46100  20.373  18.377  20.645  0.1286  0.1068  0.1692
 3816G2HFO Head46101  19.622  18.796  20.691  0.1366 -0.1513 -0.1741
 3816G2HFO Head46102  19.913  18.686  20.634  0.0853 -0.1553 -0.1195
 3816G2HFO Head46103  19.581  18.345  20.901  0.1194 -0.1738 -0.1191
 3816G2HFO Head46104  19.872  18.277  20.815  0.0913 -0.2738  0.0151
 3816G2HFO Head46105  19.990  18.383  20.483 -0.0582 -0.1054 -0.2884
 3816G2HFO link46106  20.237  18.331  20.419  0.3416 -0.1073 -0.0237
 3816G2HFO link46107  20.339  18.291  20.165  0.0926 -0.0621 -0.0856
 3816G2HFO Tail46108  20.196  18.432  19.886  0.2250 -0.3972 -0.0290
 3816G2HFO Tail46109  19.960  18.188  19.821 -0.2056 -0.1297 -0.1613
 3816G2HFO Tail46110  19.878  17.927  19.966 -0.2755 -0.2138  0.0660
 3816G2HFO Tail46111  20.007  17.510  19.996  0.0210  0.0143 -0.3968
 3816G2HFO Tail46112  19.997  18.640  20.056  0.1927 -0.2117  0.1900
 3816G2HFO Tail46113  19.736  18.660  20.003  0.1027  0.0554 -0.4356
 3816G2HFO Tail46114  19.675  18.801  19.796 -0.0834 -0.0522 -0.1328
 3816G2HFO Tail46115  19.613  18.948  19.598 -0.0026 -0.1121  0.1064
 3816G2HFO Tail46116  19.541  19.029  19.381 -0.1994 -0.2495  0.0388
 3817G2HFO Head46117  17.333  19.435  27.664  0.0252  0.2225  0.5720
 3817G2HFO Head46118  17.149  19.655  27.543 -0.4542  0.5142 -0.0478
 3817G2HFO Head46119  17.375  19.256  27.147  0.2321 -0.2891  0.1074
 3817G2HFO Head46120  17.080  19.305  27.272  0.3599 -0.0493  0.1503
 3817G2HFO Head46121  16.930  19.641  27.252 -0.6042  0.2425  0.1276
 3817G2HFO Head46122  16.706  19.893  27.575  0.3078  0.3087  0.1534
 3817G2HFO Head46123  16.768  20.087  27.418 -0.0843  0.2882  0.2132
 3817G2HFO Head46124  17.136  20.092  27.683 -0.0638  0.0235 -0.1157
 3817G2HFO Head46125  17.177  20.119  27.367  0.2922 -0.0175  0.2145
 3817G2HFO Head46126  16.938  20.040  27.125  0.0882 -0.2731  0.0632
 3817G2HFO link46127  16.941  19.808  27.037 -0.0054 -0.0737  0.0098
 3817G2HFO link46128  16.908  19.719  26.765  0.2149 -0.1738 -0.2248
 3817G2HFO Tail46129  16.714  19.477  26.680  0.5443  0.1610 -0.0588
 3817G2HFO Tail46130  16.709  19.307  26.982 -0.3446 -0.0362  0.0409
 3817G2HFO Tail46131  16.569  19.031  27.058  0.2499 -0.1328 -0.1384
 3817G2HFO Tail46132  16.270  18.752  26.952 -0.0811 -0.2026  0.4334
 3817G2HFO Tail46133  16.406  19.633  26.667  0.1120 -0.1045  0.3041
 3817G2HFO Tail46134  16.388  19.888  26.599 -0.2746  0.3420 -0.0597
 3817G2HFO Tail46135  16.532  19.983  26.400  0.1550 -0.2624 -0.1910
 3817G2HFO Tail46136  16.667  20.125  26.232 -0.3883  0.1221 -0.1365
 3817G2HFO Tail46137  16.733  20.290  26.072  0.1124 -0.0112 -0.0126
 3818G2HFO Head46138  13.157  17.772  25.089 -0.0223  0.0856  0.0640
 3818G2HFO Head46139  13.374  17.612  24.907 -0.0430  0.2781  0.1446
 3818G2HFO Head46140  13.313  18.063  24.741 -0.0617  0.3521  0.1287
 3818G2HFO Head46141  13.547  17.893  24.642 -0.0965  0.2306 -0.0663
 3818G2HFO Head46142  13.705  17.695  24.877 -0.2507 -0.3201  0.0449
 3818G2HFO Head46143  13.172  17.771  25.584 -0.0231  0.0624 -0.0098
 3818G2HFO Head46144  13.488  17.859  25.546  0.0082  0.0701  0.1268
 3818G2HFO Head46145  13.664  17.129  25.304  0.2266 -0.1578  0.0697
 3818G2HFO Head46146  13.513  17.396  25.348  0.0055 -0.1094  0.0852
 3818G2HFO Head46147  13.682  17.705  25.308  0.2523  0.1007 -0.0428
 3818G2HFO link46148  13.817  17.807  25.093 -0.2814 -0.1734 -0.0941
 3818G2HFO link46149  14.092  17.804  25.107  0.2422  0.2001  0.0142
 3818G2HFO Tail46150  14.252  17.668  25.379  0.1291 -0.0969  0.3992
 3818G2HFO Tail46151  14.508  17.519  25.213  0.0260  0.0239 -0.0904
 3818G2HFO Tail46152  14.742  17.621  25.024 -0.0979  0.1915  0.1328
 3818G2HFO Tail46153  15.137  17.820  25.011  0.1908 -0.1651 -0.1309
 3818G2HFO Tail46154  14.102  17.372  25.451  0.0669 -0.4028  0.1903
 3818G2HFO Tail46155  13.997  17.333  25.686  0.4203 -0.3166 -0.0239
 3818G2HFO Tail46156  13.775  17.442  25.774 -0.2530  0.0014 -0.0778
 3818G2HFO Tail46157  13.550  17.537  25.829  0.0727 -0.0163 -0.0529
 3818G2HFO Tail46158  13.353  17.601  25.935  0.2357 -0.0028 -0.2843
 3819G2HFO Head46159  20.143  14.090  21.627 -0.0337 -0.1638 -0.1069
 3819G2HFO Head46160  20.137  14.022  21.326 -0.3653 -0.0344  0.1414
 3819G2HFO Head46161  20.577  14.454  21.389  0.0438  0.0902 -0.2506
 3819G2HFO Head46162  20.395  14.333  21.195  0.1508  0.1020 -0.1289
 3819G2HFO Head46163  20.421  14.003  21.128 -0.1067  0.3699  0.0824
 3819G2HFO Head46164  20.759  13.272  21.134 -0.0806  0.2512 -0.0967
 3819G2HFO Head46165  20.527  13.413  20.955  0.0921  0.3160 -0.1597
 3819G2HFO Head46166  20.786  13.879  21.374 -0.2585 -0.4008  0.2035
 3819G2HFO Head46167  20.770  13.685  21.178  0.1637  0.0315 -0.0066
 3819G2HFO Head46168  20.577  13.755  20.884  0.2202  0.2743 -0.1451
 3819G2HFO link46169  20.384  13.919  20.902  0.2054 -0.1442 -0.2775
 3819G2HFO link46170  20.129  13.868  20.803  0.2674 -0.0194 -0.5534
 3819G2HFO Tail46171  19.886  14.070  20.808  0.2207  0.0133  0.3077
 3819G2HFO Tail46172  20.031  14.344  20.928 -0.1719  0.0358  0.0458
 3819G2HFO Tail46173  20.116  14.573  20.741 -0.1830 -0.0639 -0.1325
 3819G2HFO Tail46174  19.977  14.910  20.514  0.2022  0.5094 -0.2690
 3819G2HFO Tail46175  19.867  14.186  20.495  0.0895 -0.0286  0.4224
 3819G2HFO Tail46176  19.870  14.446  20.432 -0.3369 -0.2550  0.1094
 3819G2HFO Tail46177  19.725  14.527  20.237  0.2899  0.5185 -0.0546
 3819G2HFO Tail46178  19.550  14.571  20.053  0.1652  0.0758 -0.2496
 3819G2HFO Tail46179  19.345  14.623  19.938 -0.2833  0.0659 -0.2472
 3820G2HFO Head46180  17.693  17.260  18.455  0.0726 -0.1498 -0.0986
 3820G2HFO Head46181  17.770  17.515  18.316  0.2313  0.2255  0.5718
 3820G2HFO Head46182  17.292  17.688  17.978  0.1033 -0.3990  0.1451
 3820G2HFO Head46183  17.473  17.476  18.031  0.0037  0.1252  0.2810
 3820G2HFO Head46184  17.811  17.547  17.973 -0.4161 -0.0944  0.3938
 3820G2HFO Head46185  17.551  16.928  17.539  0.0048  0.2170  0.1049
 3820G2HFO Head46186  17.592  17.245  17.496 -0.1012  0.1438 -0.0648
 3820G2HFO Head46187  18.004  17.265  17.040  0.0607 -0.0283 -0.3462
 3820G2HFO Head46188  17.964  17.189  17.309  0.1851 -0.3089 -0.0117
 3820G2HFO Head46189  17.875  17.400  17.579 -0.1106 -0.5050 -0.3225
 3820G2HFO link46190  17.965  17.394  17.826  0.0269 -0.4176  0.5029
 3820G2HFO link46191  18.248  17.374  17.865 -0.2244 -0.1280 -0.1969
 3820G2HFO Tail46192  18.417  17.254  18.133  0.3639  0.0539 -0.3061
 3820G2HFO Tail46193  18.656  17.524  18.164  0.2211 -0.2691  0.0050
 3820G2HFO Tail46194  18.659  17.790  18.357 -0.0499 -0.1341  0.6429
 3820G2HFO Tail46195  18.930  18.100  18.513  0.2918  0.0119 -0.2454
 3820G2HFO Tail46196  18.179  17.343  18.360  0.1914 -0.2055 -0.0757
 3820G2HFO Tail46197  18.212  17.511  18.567 -0.0607  0.1810 -0.0709
 3820G2HFO Tail46198  18.063  17.460  18.775  0.0260  0.0043 -0.0428
 3820G2HFO Tail46199  17.894  17.457  18.966 -0.0441  0.3475  0.1870
 3820G2HFO Tail46200  17.806  17.435  19.177  0.2454  0.1335  0.1959
 3821G2HFO Head46201  21.671  13.978  20.475  0.3095  0.1166 -0.0631
 3821G2HFO Head46202  21.876  13.910  20.223  0.0555 -0.5081  0.1156
 3821G2HFO Head46203  22.329  14.031  20.108  0.3493 -0.1976  0.0814
 3821G2HFO Head46204  22.103  14.071  19.843  0.0005  0.0541 -0.0297
 3821G2HFO Head46205  21.765  14.045  19.907  0.0867 -0.0614  0.0551
 3821G2HFO Head46206  22.087  14.163  19.429 -0.1719  0.0846 -0.6113
 3821G2HFO Head46207  21.844  14.322  19.414  0.0326 -0.3733 -0.1201
 3821G2HFO Head46208  21.689  13.957  19.180 -0.3522 -0.0342  0.1951
 3821G2HFO Head46209  21.482  14.022  19.403  0.1253  0.1921  0.0534
 3821G2HFO Head46210  21.571  14.278  19.621  0.1303 -0.1315 -0.0458
 3821G2HFO link46211  21.616  14.250  19.875  0.1184 -0.3550 -0.1898
 3821G2HFO link46212  21.471  14.382  20.086 -0.0635 -0.0968 -0.1944
 3821G2HFO Tail46213  21.345  14.205  20.338 -0.1706 -0.1200  0.2841
 3821G2HFO Tail46214  21.017  14.316  20.361 -0.2498 -0.1043 -0.0638
 3821G2HFO Tail46215  20.860  14.536  20.471  0.0364 -0.2401  0.0029
 3821G2HFO Tail46216  20.438  14.667  20.468  0.0547  0.2323  0.2694
 3821G2HFO Tail46217  21.277  13.940  20.132  0.0719 -0.1029 -0.1963
 3821G2HFO Tail46218  21.216  13.994  19.881 -0.1757  0.1184  0.1470
 3821G2HFO Tail46219  21.058  14.185  19.811  0.1395 -0.0399 -0.4156
 3821G2HFO Tail46220  20.893  14.382  19.796  0.0557 -0.0152  0.0993
 3821G2HFO Tail46221  20.750  14.555  19.711 -0.0111  0.3141  0.0585
 3822G2HFO Head46222  15.416  14.797  26.241  0.2942  0.4249 -0.3277
 3822G2HFO Head46223  15.613  14.689  25.992  0.3751  0.0062  0.3541
 3822G2HFO Head46224  15.925  14.454  26.344 -0.1780 -0.4186 -0.3250
 3822G2HFO Head46225  15.955  14.747  26.269 -0.0106 -0.2943  0.3290
 3822G2HFO Head46226  15.936  14.836  25.932 -0.6693  0.0835 -0.1557
 3822G2HFO Head46227  16.121  15.235  26.589  0.1318  0.1082 -0.0908
 3822G2HFO Head46228  15.941  15.173  26.387  0.1113  0.1571  0.2672
 3822G2HFO Head46229  16.377  14.783  26.159 -0.3306 -0.0639  0.0827
 3822G2HFO Head46230  16.327  15.043  26.235  0.2685 -0.4657  0.1805
 3822G2HFO Head46231  16.066  15.212  26.065 -0.2356  0.1651 -0.0463
 3822G2HFO link46232  15.960  15.073  25.869  0.3422 -0.0619  0.3976
 3822G2HFO link46233  15.968  15.179  25.599  0.1837  0.0147  0.0239
 3822G2HFO Tail46234  16.170  15.424  25.522  0.0216 -0.3624  0.2423
 3822G2HFO Tail46235  16.058  15.704  25.694 -0.2930 -0.1124  0.2332
 3822G2HFO Tail46236  15.795  15.871  25.694  0.0347  0.1964 -0.1883
 3822G2HFO Tail46237  15.612  16.258  25.687  0.1317  0.0348  0.0538
 3822G2HFO Tail46238  16.431  15.329  25.688 -0.1186 -0.3596  0.0385
 3822G2HFO Tail46239  16.425  15.099  25.822  0.0977 -0.3829 -0.0276
 3822G2HFO Tail46240  16.337  14.897  25.693  0.0148 -0.2326 -0.2141
 3822G2HFO Tail46241  16.200  14.719  25.563 -0.2380 -0.1553  0.0204
 3822G2HFO Tail46242  16.017  14.582  25.497  0.0131 -0.1494 -0.0199
 3823G2HFO Head46243  22.739  15.319  19.443 -0.2679  0.0491  0.0916
 3823G2HFO Head46244  22.455  15.451  19.527 -0.5049 -0.1568 -0.4341
 3823G2HFO Head46245  22.602  15.530  19.022 -0.0114 -0.0474 -0.0701
 3823G2HFO Head46246  22.402  15.303  19.134 -0.4178  0.0995  0.3131
 3823G2HFO Head46247  22.153  15.369  19.375 -0.0518 -0.0748 -0.2368
 3823G2HFO Head46248  22.200  14.808  20.109  0.2055 -0.0806  0.2197
 3823G2HFO Head46249  22.054  14.807  19.804  0.4908  0.2804  0.1076
 3823G2HFO Head46250  22.699  14.774  19.602 -0.0563  0.1415 -0.2783
 3823G2HFO Head46251  22.446  14.962  19.719  0.2270 -0.2480 -0.0761
 3823G2HFO Head46252  22.145  14.984  19.528 -0.1524  0.3351  0.2751
 3823G2HFO link46253  21.992  15.183  19.477  0.1718 -0.7485  0.0579
 3823G2HFO link46254  21.710  15.183  19.517 -0.1473  0.0078 -0.1468
 3823G2HFO Tail46255  21.520  15.236  19.242  0.0367  0.0008  0.3016
 3823G2HFO Tail46256  21.771  15.429  19.100  0.2391 -0.0015  0.0907
 3823G2HFO Tail46257  21.920  15.726  19.099  0.2840  0.3194 -0.1790
 3823G2HFO Tail46258  22.247  15.902  19.309  0.1822 -0.4191 -0.0716
 3823G2HFO Tail46259  21.281  15.450  19.390  0.0945  0.0750 -0.0389
 3823G2HFO Tail46260  21.369  15.659  19.527  0.0986  0.2134 -0.4706
 3823G2HFO Tail46261  21.618  15.654  19.575 -0.1171  0.0173 -0.1413
 3823G2HFO Tail46262  21.867  15.662  19.608  0.0405  0.1016  0.1283
 3823G2HFO Tail46263  22.068  15.659  19.702  0.1575  0.1119 -0.3032
 3824G2HFO Head46264  13.378  20.221  26.194 -0.1155 -0.0804  0.0464
 3824G2HFO Head46265  13.653  20.091  26.121  0.4383  0.4990 -0.0716
 3824G2HFO Head46266  13.515  20.184  26.664  0.0167 -0.2743 -0.0022
 3824G2HFO Head46267  13.514  19.927  26.478 -0.3254  0.0978 -0.3213
 3824G2HFO Head46268  13.797  19.823  26.288  0.5147 -0.2450 -0.1118
 3824G2HFO Head46269  14.120  19.926  26.622  0.2075  0.1453  0.0609
 3824G2HFO Head46270  14.082  19.640  26.655 -0.2008 -0.3684 -0.4980
 3824G2HFO Head46271  13.567  19.352  26.772  0.1384  0.0982 -0.0246
 3824G2HFO Head46272  13.797  19.273  26.662  0.1690 -0.1542 -0.2943
 3824G2HFO Head46273  13.940  19.473  26.401  0.2172  0.1847  0.1426
 3824G2HFO link46274  13.845  19.581  26.179  0.0661  0.0361 -0.1647
 3824G2HFO link46275  13.960  19.548  25.921 -0.2701 -0.2291 -0.0007
 3824G2HFO Tail46276  14.120  19.800  25.785 -0.2464 -0.0482  0.0290
 3824G2HFO Tail46277  14.448  19.693  25.759 -0.1469 -0.0427 -0.5180
 3824G2HFO Tail46278  14.607  19.413  25.805 -0.3333 -0.3363 -0.1112
 3824G2HFO Tail46279  14.560  18.984  25.888 -0.1623  0.0855  0.2141
 3824G2HFO Tail46280  14.144  20.014  26.066 -0.3475 -0.0076 -0.3418
 3824G2HFO Tail46281  14.380  20.058  26.167  0.0212 -0.1535  0.0394
 3824G2HFO Tail46282  14.570  20.129  25.996  0.1597  0.2920  0.0167
 3824G2HFO Tail46283  14.723  20.159  25.799  0.0181  0.0185  0.0795
 3824G2HFO Tail46284  14.831  20.134  25.596 -0.1376 -0.0112  0.1655
 3825G2HFO Head46285  15.603  19.812  28.508  0.4420  0.0737 -0.0296
 3825G2HFO Head46286  15.645  19.608  28.279  0.3777  0.1510 -0.3218
 3825G2HFO Head46287  15.780  19.005  28.089 -0.1868 -0.0158  0.0286
 3825G2HFO Head46288  15.868  19.221  28.325  0.2057 -0.1214 -0.2455
 3825G2HFO Head46289  15.971  19.534  28.204  0.3485  0.2963 -0.1800
 3825G2HFO Head46290  16.615  19.867  28.306 -0.5462  0.2986  0.5290
 3825G2HFO Head46291  16.493  19.884  28.023  0.3531 -0.0249  0.2881
 3825G2HFO Head46292  16.187  19.925  28.538 -0.0971  0.1737  0.0092
 3825G2HFO Head46293  16.064  19.996  28.235  0.2129 -0.3079 -0.3212
 3825G2HFO Head46294  16.143  19.810  27.957  0.1241  0.4398  0.2471
 3825G2HFO link46295  16.058  19.564  27.953  0.0426  0.0613 -0.5361
 3825G2HFO link46296  15.994  19.403  27.731  0.1773 -0.0262 -0.1627
 3825G2HFO Tail46297  16.180  19.140  27.655 -0.3086 -0.5366 -0.0927
 3825G2HFO Tail46298  15.938  18.910  27.571 -0.2525  0.1734 -0.2108
 3825G2HFO Tail46299  15.797  18.667  27.734 -0.1805 -0.5169 -0.1626
 3825G2HFO Tail46300  15.781  18.467  28.114 -0.1908 -0.0169 -0.2090
 3825G2HFO Tail46301  16.299  19.229  27.341  0.0146  0.1735  0.2763
 3825G2HFO Tail46302  16.406  19.466  27.282 -0.0025 -0.2552 -0.1424
 3825G2HFO Tail46303  16.286  19.670  27.404  0.0475 -0.1070  0.2228
 3825G2HFO Tail46304  16.203  19.880  27.515 -0.2193  0.0368 -0.1486
 3825G2HFO Tail46305  16.184  20.075  27.643  0.0568  0.1375 -0.1620
 3826G2HFO Head46306  16.333  18.120  23.176 -0.3976  0.0174  0.0437
 3826G2HFO Head46307  16.055  18.114  23.026  0.1556  0.2485  0.0192
 3826G2HFO Head46308  16.461  18.629  22.666  0.0001  0.2035 -0.0912
 3826G2HFO Head46309  16.271  18.427  22.834 -0.1031 -0.1724 -0.5414
 3826G2HFO Head46310  16.035  18.206  22.688  0.0365  0.0829  0.2169
 3826G2HFO Head46311  16.675  18.190  21.930  0.0016  0.1289 -0.1591
 3826G2HFO Head46312  16.406  18.143  22.053  0.5678 -0.0781 -0.1272
 3826G2HFO Head46313  16.267  18.587  22.023 -0.1991 -0.1590  0.1078
 3826G2HFO Head46314  16.258  18.492  22.304 -0.1575 -0.0453  0.1656
 3826G2HFO Head46315  16.332  18.165  22.398  0.0241  0.1159  0.2473
 3826G2HFO link46316  16.116  18.025  22.517  0.2875  0.4592 -0.3294
 3826G2HFO link46317  16.046  17.750  22.465  0.1281  0.1973  0.1383
 3826G2HFO Tail46318  15.756  17.633  22.549 -0.0515  0.3401  0.1674
 3826G2HFO Tail46319  15.885  17.306  22.527 -0.0676  0.2236  0.2002
 3826G2HFO Tail46320  15.816  17.043  22.371  0.0894 -0.5607 -0.3579
 3826G2HFO Tail46321  15.823  16.626  22.445  0.0633 -0.1629 -0.0303
 3826G2HFO Tail46322  15.615  17.626  22.242 -0.0525  0.0480 -0.0589
 3826G2HFO Tail46323  15.744  17.546  22.031 -0.2073  0.0340  0.0985
 3826G2HFO Tail46324  15.943  17.396  22.075 -0.1926  0.0350 -0.0272
 3826G2HFO Tail46325  16.155  17.280  22.153 -0.0427  0.1262 -0.1676
 3826G2HFO Tail46326  16.374  17.199  22.185  0.1832  0.4942 -0.2533
 3827G2HFO Head46327  15.697  14.253  24.251  0.0598  0.1351  0.1035
 3827G2HFO Head46328  15.542  13.971  24.184 -0.0572 -0.4027 -0.1269
 3827G2HFO Head46329  15.409  13.614  24.384 -0.1729 -0.3390 -0.1288
 3827G2HFO Head46330  15.616  13.527  24.195 -0.3917  0.1146  0.1311
 3827G2HFO Head46331  15.695  13.759  23.946 -0.0425  0.2429  0.0126
 3827G2HFO Head46332  16.557  13.958  23.773  0.0473  0.0695 -0.1558
 3827G2HFO Head46333  16.392  13.710  23.679 -0.2447  0.4509  0.2017
 3827G2HFO Head46334  16.585  13.532  24.042  0.0042  0.0811  0.0193
 3827G2HFO Head46335  16.315  13.560  24.059  0.0356 -0.3756  0.4054
 3827G2HFO Head46336  16.082  13.650  23.808  0.2768 -0.0281  0.2800
 3827G2HFO link46337  15.929  13.840  23.867  0.4459 -0.1164  0.7032
 3827G2HFO link46338  16.003  14.112  23.830 -0.3948 -0.4783  0.2655
 3827G2HFO Tail46339  16.278  14.216  23.995 -0.1158 -0.1523  0.2492
 3827G2HFO Tail46340  16.391  14.472  23.776 -0.2193 -0.0517 -0.0961
 3827G2HFO Tail46341  16.651  14.662  23.735  0.2118  0.2549 -0.2465
 3827G2HFO Tail46342  16.835  14.997  23.914  0.0998 -0.2360  0.3908
 3827G2HFO Tail46343  16.163  14.393  24.265  0.2422 -0.2514 -0.1923
 3827G2HFO Tail46344  16.218  14.658  24.309 -0.2457  0.0395  0.5924
 3827G2HFO Tail46345  16.262  14.810  24.097  0.0560  0.1832 -0.1385
 3827G2HFO Tail46346  16.300  14.992  23.921  0.1327  0.3185 -0.0396
 3827G2HFO Tail46347  16.388  15.133  23.744 -0.3159  0.0875  0.0093
 3828LEFLG Drug46348  19.703  17.654  20.298 -0.0969 -0.1733 -0.0440
 3828LEFLG Drug46349  19.480  17.633  20.489 -0.0479  0.2094  0.0603
 3828LEFLG Drug46350  19.466  17.442  20.455 -0.2740  0.1997  0.2001
 3828LEFLG Drug46351  19.508  17.328  20.248  0.2380  0.2122 -0.0578
 3828LEFLG Drug46352  19.357  17.108  20.208 -0.3263  0.3219 -0.3419
 3828LEFLG Drug46353  19.168  17.286  20.351 -0.2508  0.0739  0.0759
 3828LEFLG Drug46354  19.160  17.015  20.233 -0.3337  0.3049 -0.4635
 3828LEFLG Drug46355  18.944  17.018  20.315  0.3707 -0.4613  0.1285
 3829LEFLG Drug46356  19.582  15.206  20.149  0.4160 -0.1819 -0.2790
 3829LEFLG Drug46357  19.495  15.122  19.880 -0.3767  0.5231 -0.2603
 3829LEFLG Drug46358  19.349  15.018  19.957  0.2429 -0.2216 -0.0323
 3829LEFLG Drug46359  19.236  15.040  20.149  0.2170  0.0503 -0.1075
 3829LEFLG Drug46360  19.180  14.823  20.307 -0.3207  0.1380  0.1307
 3829LEFLG Drug46361  19.469  14.853  20.364 -0.2646  0.3849 -0.2633
 3829LEFLG Drug46362  19.263  14.643  20.399 -0.0216  0.1785 -0.0552
 3829LEFLG Drug46363  19.449  14.507  20.499  0.3781 -0.9986  0.0239
 3830LEFLG Drug46364  16.578  16.739  21.765  0.1466  0.2675  0.0196
 3830LEFLG Drug46365  16.783  16.555  21.664 -0.4559 -0.4726  0.1035
 3830LEFLG Drug46366  16.865  16.544  21.841 -0.2676 -0.3512  0.0258
 3830LEFLG Drug46367  16.806  16.653  22.037  0.0443  0.0466 -0.0473
 3830LEFLG Drug46368  16.981  16.727  22.223 -0.1867  0.3187 -0.1650
 3830LEFLG Drug46369  16.748  16.665  22.395  0.1573 -0.1617  0.1412
 3830LEFLG Drug46370  17.035  16.724  22.435  0.2109 -0.1327 -0.2654
 3830LEFLG Drug46371  16.980  16.670  22.667 -0.5016  0.4973 -0.1659
 3831LEFLG Drug46372  15.592  18.954  24.170 -0.1927  0.4616 -0.0737
 3831LEFLG Drug46373  15.598  18.870  24.452  0.0835  0.3728 -0.1050
 3831LEFLG Drug46374  15.633  18.686  24.399 -0.5107  0.2859 -0.2197
 3831LEFLG Drug46375  15.551  18.571  24.219 -0.2212  0.1091  0.0424
 3831LEFLG Drug46376  15.310  18.455  24.229 -0.1466 -0.1460  0.3509
 3831LEFLG Drug46377  15.247  18.742  24.194 -0.0674 -0.1904 -0.1915
 3831LEFLG Drug46378  15.094  18.491  24.228 -0.1386 -0.0991  0.1781
 3831LEFLG Drug46379  14.902  18.631  24.213 -0.4905  0.3814 -0.1880
 3832LEFLG Drug46380  17.857  14.946  19.491 -0.3064  0.2478  0.6661
 3832LEFLG Drug46381  18.110  14.884  19.627 -0.1444 -0.2086  0.1731
 3832LEFLG Drug46382  18.050  14.977  19.788 -0.0042 -0.8260  0.6003
 3832LEFLG Drug46383  17.867  15.129  19.816 -0.1392  0.0670  0.0947
 3832LEFLG Drug46384  17.925  15.319  19.988  0.0394 -0.1736 -0.0766
 3832LEFLG Drug46385  17.738  15.169  20.162 -0.2692  0.1234 -0.1459
 3832LEFLG Drug46386  17.945  15.377  20.198 -0.4739  0.3302 -0.1545
 3832LEFLG Drug46387  17.887  15.356  20.423  0.2957  0.3043  0.6041
 3833LEFLG Drug46388  21.837  14.531  19.731 -0.0463 -0.0910  0.1233
 3833LEFLG Drug46389  21.817  14.689  19.484  0.0318 -0.0951  0.1140
 3833LEFLG Drug46390  21.632  14.733  19.524  0.0131 -0.1103  0.0454
 3833LEFLG Drug46391  21.508  14.696  19.723  0.1200  0.3978  0.0622
 3833LEFLG Drug46392  21.243  14.699  19.692  0.0380  0.0701  0.5688
 3833LEFLG Drug46393  21.320  14.955  19.565  0.3047 -0.0965  0.3884
 3833LEFLG Drug46394  21.080  14.781  19.571  0.2717 -0.0618  0.1519
 3833LEFLG Drug46395  20.994  14.908  19.399 -0.3017  0.3592  0.0452
 3834LEFLG Drug46396  19.210  15.615  19.213  0.1960  0.2149 -0.1523
 3834LEFLG Drug46397  18.999  15.469  19.068  0.0697  0.0881  0.1548
 3834LEFLG Drug46398  19.099  15.484  18.901 -0.1455  0.0807  0.0232
 3834LEFLG Drug46399  19.334  15.483  18.874 -0.1185 -0.1445 -0.2186
 3834LEFLG Drug46400  19.485  15.645  19.019  0.0975 -0.3525  0.1193
 3834LEFLG Drug46401  19.693  15.471  18.902  0.5548  0.2168  0.0632
 3834LEFLG Drug46402  19.675  15.663  19.125  0.0505  0.0904  0.1368
 3834LEFLG Drug46403  19.862  15.552  19.193 -0.1645 -0.2410  0.0564
 3835LEFLG Drug46404  20.964  18.552  18.984 -0.1397 -0.2783 -0.4250
 3835LEFLG Drug46405  21.217  18.637  18.859 -0.2164 -0.0530 -0.4271
 3835LEFLG Drug46406  21.214  18.483  18.740 -0.0736 -0.0628 -0.4183
 3835LEFLG Drug46407  21.074  18.295  18.730  0.1537 -0.3841  0.1755
 3835LEFLG Drug46408  21.068  18.198  18.474 -0.0331 -0.0100  0.0559
 3835LEFLG Drug46409  20.781  18.196  18.545  0.0043 -0.1056  0.2068
 3835LEFLG Drug46410  20.945  18.122  18.310 -0.0256 -0.7835  0.3879
 3835LEFLG Drug46411  20.746  18.003  18.237 -0.5287 -0.1998  0.3718
 3836LEFLG Drug46412  15.619  20.097  25.213  0.1396 -0.0820 -0.1040
 3836LEFLG Drug46413  15.784  19.985  24.997  0.0306  0.0400 -0.2512
 3836LEFLG Drug46414  15.651  19.848  24.961  0.1566 -0.1393 -0.0456
 3836LEFLG Drug46415  15.446  19.791  25.064  0.4290  0.0252  0.0382
 3836LEFLG Drug46416  15.459  19.561  25.194 -0.4251 -0.3748  0.0909
 3836LEFLG Drug46417  15.661  19.516  24.983 -0.3981  0.4694 -0.0808
 3836LEFLG Drug46418  15.570  19.376  25.227  0.0786 -0.1441 -0.2440
 3836LEFLG Drug46419  15.726  19.213  25.159 -0.0951  0.0977  0.2212
 3837LEFLG Drug46420  15.443  18.710  25.491  0.1480 -0.2092  0.2818
 3837LEFLG Drug46421  15.536  18.463  25.360  0.0663 -0.1034  0.0183
 3837LEFLG Drug46422  15.355  18.420  25.306  0.0800  0.1220 -0.2151
 3837LEFLG Drug46423  15.154  18.502  25.362 -0.3648  0.3017  0.0695
 3837LEFLG Drug46424  14.986  18.326  25.486 -0.1167  0.2567 -0.2548
 3837LEFLG Drug46425  14.849  18.585  25.532 -0.7179 -0.0704 -0.1618
 3837LEFLG Drug46426  14.848  18.315  25.655 -0.2224 -0.1706 -0.3638
 3837LEFLG Drug46427  14.669  18.403  25.772  0.1200  0.4574  0.0018
 3838LEFLG Drug46428  20.419  15.043  19.106 -0.1500 -0.5470  0.1173
 3838LEFLG Drug46429  20.693  15.003  19.005 -0.1822  0.1895 -0.3010
 3838LEFLG Drug46430  20.764  15.118  19.145 -0.1647 -0.6202  0.3968
 3838LEFLG Drug46431  20.668  15.268  19.287  0.1345 -0.2597  0.1522
 3838LEFLG Drug46432  20.811  15.422  19.474  0.0713  0.0296  0.5665
 3838LEFLG Drug46433  20.872  15.571  19.226 -0.2284 -0.1847  0.3602
 3838LEFLG Drug46434  20.864  15.630  19.516  0.2293  0.0382  0.3321
 3838LEFLG Drug46435  20.982  15.832  19.445 -0.1166  0.9364  0.1605
 3839LEFLG Drug46436  16.346  17.251  24.328 -0.3331 -0.2171 -0.2509
 3839LEFLG Drug46437  16.432  17.196  24.052  0.5778  0.1320 -0.0535
 3839LEFLG Drug46438  16.479  17.013  24.099  0.1153 -0.0286 -0.1910
 3839LEFLG Drug46439  16.547  16.934  24.312 -0.5892 -0.1088 -0.1898
 3839LEFLG Drug46440  16.712  16.713  24.290  0.2404 -0.1406 -0.2952
 3839LEFLG Drug46441  16.885  16.899  24.440 -0.3787  0.0793  0.1652
 3839LEFLG Drug46442  16.920  16.645  24.293  0.3176  0.0962  0.2835
 3839LEFLG Drug46443  17.143  16.662  24.373 -0.0013 -0.1442  0.6910
 3840LEFLG Drug46444  16.366  17.104  19.960  0.5507  0.1089 -0.1799
 3840LEFLG Drug46445  16.360  17.229  20.227 -0.0017  0.3137 -0.2820
 3840LEFLG Drug46446  16.462  17.081  20.301 -0.4664  0.1869  0.1276
 3840LEFLG Drug46447  16.533  16.877  20.210 -0.0017  0.2684  0.2957
 3840LEFLG Drug46448  16.438  16.666  20.348  0.0278 -0.1859  0.1062
 3840LEFLG Drug46449  16.726  16.643  20.413  0.0814 -0.4002 -0.1985
 3840LEFLG Drug46450  16.470  16.545  20.526  0.1018  0.0709  0.2699
 3840LEFLG Drug46451  16.609  16.422  20.668 -0.2872 -0.2867 -0.0914
 3841LEFLG Drug46452  20.536  17.051  18.227  0.2994  0.0200 -0.0944
 3841LEFLG Drug46453  20.247  17.009  18.265  0.3124  0.1882  0.2046
 3841LEFLG Drug46454  20.282  16.847  18.367  0.3125 -0.1813 -0.3612
 3841LEFLG Drug46455  20.474  16.777  18.478 -0.3840  0.1169  0.3256
 3841LEFLG Drug46456  20.464  16.541  18.616  0.1957 -0.0731  0.1549
 3841LEFLG Drug46457  20.706  16.660  18.738 -0.1081  0.4515  0.2587
 3841LEFLG Drug46458  20.526  16.432  18.795  0.5102 -0.1074  0.0284
 3841LEFLG Drug46459  20.617  16.434  18.999 -0.0681  0.3831  0.0319
 3842LEFLG Drug46460  19.819  14.380  21.768 -0.1595  0.4716 -0.0025
 3842LEFLG Drug46461  19.633  14.244  21.585  0.1762 -0.0186  0.0129
 3842LEFLG Drug46462  19.503  14.387  21.606 -0.1498 -0.2976 -0.0702
 3842LEFLG Drug46463  19.547  14.607  21.664 -0.1448  0.2279  0.0856
 3842LEFLG Drug46464  19.398  14.798  21.542  0.2322  0.4988  0.1634
 3842LEFLG Drug46465  19.451  14.623  21.310  0.3911  0.3292  0.3271
 3842LEFLG Drug46466  19.287  14.863  21.364  0.0252  0.1226  0.1517
 3842LEFLG Drug46467  19.242  14.858  21.130  0.2294 -0.0182 -0.3620
 3843LEFLG Drug46468  21.634  18.229  18.822 -0.6721  0.2893  0.3454
 3843LEFLG Drug46469  21.589  18.507  18.735  0.1041  0.3727  0.1713
 3843LEFLG Drug46470  21.556  18.447  18.553 -0.3960  0.3066  0.2771
 3843LEFLG Drug46471  21.498  18.233  18.461 -0.2530 -0.5980  0.0267
 3843LEFLG Drug46472  21.670  18.154  18.282  0.0895 -0.0195  0.0092
 3843LEFLG Drug46473  21.647  18.433  18.188 -0.1636 -0.0542 -0.0335
 3843LEFLG Drug46474  21.847  18.216  18.171 -0.2136 -0.0678 -0.5163
 3843LEFLG Drug46475  21.996  18.383  18.096  0.3695 -0.4070  0.4405
 3844LEFLG Drug46476  18.439  16.404  19.913 -0.0241  0.3078 -0.0011
 3844LEFLG Drug46477  18.500  16.679  19.829  0.1769  0.2064 -0.1894
 3844LEFLG Drug46478  18.671  16.622  19.756  0.1594  0.0407 -0.1027
 3844LEFLG Drug46479  18.809  16.440  19.813  0.0266 -0.0078  0.0854
 3844LEFLG Drug46480  19.030  16.469  19.974  0.1715 -0.2665 -0.1841
 3844LEFLG Drug46481  19.161  16.473  19.709  0.3614 -0.0374 -0.0890
 3844LEFLG Drug46482  19.248  16.457  19.991  0.1814  0.0701 -0.0260
 3844LEFLG Drug46483  19.466  16.442  19.899 -0.7737  0.1918 -0.2544
 3845LEFLG Drug46484  16.477  18.341  26.812  0.2265 -0.1062 -0.1677
 3845LEFLG Drug46485  16.293  18.440  26.604  0.1138  0.0638  0.0113
 3845LEFLG Drug46486  16.145  18.440  26.731  0.1908  0.0030  0.1026
 3845LEFLG Drug46487  16.101  18.295  26.909 -0.1125  0.0848  0.0870
 3845LEFLG Drug46488  16.279  18.322  27.119  0.1143 -0.2146  0.1502
 3845LEFLG Drug46489  16.350  18.052  27.024  0.0199 -0.1572 -0.0868
 3845LEFLG Drug46490  16.391  18.210  27.270 -0.0072 -0.4206  0.0892
 3845LEFLG Drug46491  16.537  18.052  27.332 -0.4676  0.3716 -0.2266
 3846LEFLG Drug46492  15.671  18.546  26.833  0.0939  0.0369 -0.0232
 3846LEFLG Drug46493  15.833  18.708  26.648 -0.0490  0.3688  0.1390
 3846LEFLG Drug46494  15.672  18.776  26.563 -0.1090  0.2651  0.1686
 3846LEFLG Drug46495  15.450  18.690  26.563 -0.1688 -0.1246  0.2841
 3846LEFLG Drug46496  15.395  18.439  26.622  0.5703  0.1384  0.2326
 3846LEFLG Drug46497  15.186  18.575  26.781 -0.0102 -0.4875  0.0324
 3846LEFLG Drug46498  15.235  18.301  26.681  0.6463 -0.2312 -0.3787
 3846LEFLG Drug46499  15.033  18.259  26.790  0.2321 -0.0620 -0.2981
 3847LEFLG Drug46500  21.482  17.092  20.768  0.0377 -0.0938  0.1943
 3847LEFLG Drug46501  21.204  17.155  20.842  0.0482  0.2453 -0.0462
 3847LEFLG Drug46502  21.201  17.303  20.715  0.2140  0.0173 -0.3213
 3847LEFLG Drug46503  21.376  17.413  20.598 -0.0701 -0.2974 -0.0165
 3847LEFLG Drug46504  21.292  17.602  20.428 -0.0099  0.1467 -0.1998
 3847LEFLG Drug46505  21.106  17.383  20.357  0.3169 -0.2383  0.1108
 3847LEFLG Drug46506  21.210  17.627  20.227 -0.4129 -0.0082 -0.0602
 3847LEFLG Drug46507  21.102  17.543  20.050  0.1804 -0.0701 -0.1957
 3848LEFLG Drug46508  16.915  16.969  20.917  0.2836 -0.0768 -0.2626
 3848LEFLG Drug46509  16.951  17.213  21.078  0.1322 -0.2184 -0.0114
 3848LEFLG Drug46510  17.076  17.121  21.196 -0.1643 -0.3907  0.1751
 3848LEFLG Drug46511  17.128  16.880  21.224  0.0110 -0.2530 -0.5199
 3848LEFLG Drug46512  17.231  16.745  21.006  0.0723 -0.1658 -0.2649
 3848LEFLG Drug46513  17.467  16.772  21.183 -0.2961  0.0200  0.2072
 3848LEFLG Drug46514  17.395  16.614  20.944  0.4246  0.2088 -0.1474
 3848LEFLG Drug46515  17.577  16.484  20.991  0.2471 -0.2483  0.1165
 3849LEFLG Drug46516  14.867  18.398  27.746 -0.2144 -0.3473  0.1357
 3849LEFLG Drug46517  15.137  18.300  27.809 -0.1617 -0.0542  0.3804
 3849LEFLG Drug46518  15.201  18.357  27.634 -0.1987 -0.4678  0.2262
 3849LEFLG Drug46519  15.123  18.530  27.482 -0.2260 -0.2187 -0.1492
 3849LEFLG Drug46520  15.138  18.464  27.227 -0.1013  0.5657 -0.0618
 3849LEFLG Drug46521  15.412  18.401  27.320 -0.3436 -0.3838  0.0556
 3849LEFLG Drug46522  15.255  18.363  27.072 -0.3545  0.2339 -0.0404
 3849LEFLG Drug46523  15.453  18.267  26.980 -0.5575  0.4446 -0.0566
 3850LEFLG Drug46524  17.098  16.859  20.063  0.0186  0.0399  0.4755
 3850LEFLG Drug46525  16.923  17.007  19.879 -0.0365 -0.4717  0.1064
 3850LEFLG Drug46526  17.065  17.015  19.746  0.0156 -0.6006  0.1535
 3850LEFLG Drug46527  17.266  16.885  19.721 -0.5338 -0.1249  0.4947
 3850LEFLG Drug46528  17.226  16.618  19.692 -0.1316 -0.3794 -0.0546
 3850LEFLG Drug46529  17.501  16.656  19.590 -0.0097  0.1574  0.4489
 3850LEFLG Drug46530  17.313  16.430  19.621  0.3316 -0.1967  0.0092
 3850LEFLG Drug46531  17.486  16.307  19.555 -0.1548  0.3757  0.2637
 3851LEFLG Drug46532  16.671  16.092  22.246  0.0181  0.0040 -0.2073
 3851LEFLG Drug46533  16.600  16.372  22.303 -0.2583 -0.0225 -0.4111
 3851LEFLG Drug46534  16.525  16.320  22.475 -0.1309  0.0386 -0.3364
 3851LEFLG Drug46535  16.400  16.133  22.515  0.1640 -0.0370 -0.0468
 3851LEFLG Drug46536  16.221  16.145  22.714  0.0286 -0.0060  0.2776
 3851LEFLG Drug46537  16.243  16.432  22.647  0.0256 -0.1069 -0.1695
 3851LEFLG Drug46538  16.054  16.260  22.796  0.1162  0.1451  0.2461
 3851LEFLG Drug46539  15.948  16.447  22.820 -0.2256 -0.8135 -0.6418
 3852LEFLG Drug46540  15.785  17.774  25.182  0.0530  0.0175 -0.1490
 3852LEFLG Drug46541  15.565  17.811  24.991  0.1434  0.2391 -0.2126
 3852LEFLG Drug46542  15.510  17.975  25.080 -0.1482 -0.0746  0.2040
 3852LEFLG Drug46543  15.650  18.138  25.172  0.1093 -0.0133  0.0487
 3852LEFLG Drug46544  15.911  18.130  25.105  0.1241  0.1867 -0.0469
 3852LEFLG Drug46545  15.928  18.250  25.375 -0.1673 -0.5636  0.3176
 3852LEFLG Drug46546  16.117  18.135  25.178  0.0852  0.2658  0.0583
 3852LEFLG Drug46547  16.275  18.149  25.352  0.3344  0.8629  0.5130
 3853LEFLG Drug46548  20.929  16.775  20.017 -0.0705  0.1343  0.3491
 3853LEFLG Drug46549  21.108  16.858  19.799 -0.2904  0.5296  0.3150
 3853LEFLG Drug46550  21.189  16.993  19.913  0.2146 -0.0482  0.6694
 3853LEFLG Drug46551  21.106  17.094  20.103 -0.1879  0.2049 -0.2057
 3853LEFLG Drug46552  21.259  17.064  20.321 -0.0406 -0.2200  0.0483
 3853LEFLG Drug46553  21.222  16.781  20.244  0.3972 -0.1871 -0.2977
 3853LEFLG Drug46554  21.354  16.929  20.464 -0.1699 -0.2578  0.1001
 3853LEFLG Drug46555  21.392  16.723  20.542  0.4333 -0.8110  0.6051
 3854LEFLG Drug46556  17.512  17.749  20.271  0.1407  0.0538  0.0611
 3854LEFLG Drug46557  17.724  17.872  20.108  0.1636 -0.2453 -0.1379
 3854LEFLG Drug46558  17.828  17.707  20.114  0.0642 -0.3035 -0.0014
 3854LEFLG Drug46559  17.734  17.490  20.108 -0.2855 -0.0775  0.1119
 3854LEFLG Drug46560  17.892  17.294  20.010 -0.4517 -0.2159 -0.0182
 3854LEFLG Drug46561  17.910  17.236  20.300  0.4903  0.9818  0.2001
 3854LEFLG Drug46562  18.050  17.149  20.054 -0.1976  0.0914  0.0992
 3854LEFLG Drug46563  18.183  17.027  20.198  0.0084 -0.6875 -0.0462
 3855LEFLG Drug46564  14.836  17.328  27.150  0.2315  0.3525  0.5229
 3855LEFLG Drug46565  14.687  17.132  27.311 -0.3143  0.0976 -0.2649
 3855LEFLG Drug46566  14.712  17.240  27.471 -0.6016 -0.2820  0.0456
 3855LEFLG Drug46567  14.793  17.460  27.484 -0.2409  0.1032  0.2864
 3855LEFLG Drug46568  14.900  17.538  27.722 -0.0085 -0.2875  0.0660
 3855LEFLG Drug46569  15.016  17.266  27.702  0.8549  0.0973 -0.4276
 3855LEFLG Drug46570  14.983  17.470  27.913  0.0033 -0.4580  0.0020
 3855LEFLG Drug46571  15.117  17.336  28.042 -0.7356  1.0307  0.3460
 3856LEFLG Drug46572  15.408  18.446  24.621 -0.3679 -0.0799  0.0578
 3856LEFLG Drug46573  15.492  18.267  24.838  0.1174 -0.0740 -0.1193
 3856LEFLG Drug46574  15.371  18.128  24.775  0.0793 -0.1289  0.0712
 3856LEFLG Drug46575  15.235  18.118  24.582 -0.4202  0.2740 -0.4169
 3856LEFLG Drug46576  15.022  18.280  24.594  0.4229 -0.2906 -0.0386
 3856LEFLG Drug46577  14.903  18.046  24.459 -0.5389 -0.1273  0.4865
 3856LEFLG Drug46578  14.825  18.327  24.510  0.3525  0.1561  0.3546
 3856LEFLG Drug46579  14.620  18.258  24.422 -0.4345  0.1633 -0.0264
 3857LEFLG Drug46580  15.106  17.834  23.441  0.0619  0.2429  0.5322
 3857LEFLG Drug46581  15.015  18.100  23.355 -0.6495 -0.3034 -0.5010
 3857LEFLG Drug46582  15.103  18.077  23.182  0.1130 -0.4277 -0.1153
 3857LEFLG Drug46583  15.144  17.887  23.066  0.3632  0.2148  0.1165
 3857LEFLG Drug46584  14.945  17.783  22.914 -0.2963 -0.2294  0.0628
 3857LEFLG Drug46585  15.164  17.589  22.869 -0.2424 -0.1256 -0.1261
 3857LEFLG Drug46586  14.873  17.600  22.819 -0.3128 -0.3098  0.2293
 3857LEFLG Drug46587  14.896  17.376  22.731 -0.4859 -0.0044 -0.2400
 3858LEFLG Drug46588  16.226  16.226  23.330 -0.3663 -0.4037 -0.1138
 3858LEFLG Drug46589  15.970  16.315  23.214 -0.3228  0.0577  0.1315
 3858LEFLG Drug46590  16.050  16.484  23.161 -0.0963 -0.0389  0.1559
 3858LEFLG Drug46591  16.252  16.572  23.204  0.1477 -0.1408 -0.1622
 3858LEFLG Drug46592  16.446  16.451  23.080 -0.3357 -0.0826  0.1074
 3858LEFLG Drug46593  16.406  16.670  22.885 -0.0441  0.1111  0.2612
 3858LEFLG Drug46594  16.611  16.463  22.937 -0.4530 -0.3860 -0.0580
 3858LEFLG Drug46595  16.699  16.518  22.743 -0.0269 -0.7586  0.2335
 3859LEFLG Drug46596  20.200  16.323  18.784 -0.3536 -0.4955  0.1046
 3859LEFLG Drug46597  19.911  16.265  18.792 -0.4778  0.0834 -0.0156
 3859LEFLG Drug46598  19.905  16.310  18.981 -0.3612 -0.3675  0.1018
 3859LEFLG Drug46599  20.044  16.466  19.098  0.2271 -0.1361 -0.0763
 3859LEFLG Drug46600  20.290  16.374  19.162 -0.3100  0.1350  0.2098
 3859LEFLG Drug46601  20.143  16.314  19.411 -0.3990 -0.0106  0.1230
 3859LEFLG Drug46602  20.426  16.324  19.325 -0.3781 -0.1902  0.1696
 3859LEFLG Drug46603  20.457  16.287  19.551 -0.0552  0.9211  0.0596
 3860LEFLG Drug46604  15.856  18.548  26.109 -0.0650 -0.7664 -0.1315
 3860LEFLG Drug46605  15.584  18.658  26.098  0.1654 -0.1580  0.0592
 3860LEFLG Drug46606  15.583  18.645  25.904  0.3621  0.7808 -0.0257
 3860LEFLG Drug46607  15.733  18.553  25.743 -0.1412  0.0141  0.0127
 3860LEFLG Drug46608  15.676  18.314  25.655 -0.1269 -0.1917  0.1514
 3860LEFLG Drug46609  15.863  18.257  25.877 -0.2991 -0.5258  0.2143
 3860LEFLG Drug46610  15.696  18.099  25.691 -0.6194 -0.2265  0.2434
 3860LEFLG Drug46611  15.728  17.923  25.849  0.2131  0.3299  0.2428
 3861LEFLG Drug46612  16.575  18.675  25.131  0.0726  0.1460 -0.1233
 3861LEFLG Drug46613  16.489  18.941  25.037 -0.1031  0.1306 -0.0086
 3861LEFLG Drug46614  16.564  19.024  25.196 -0.4823  0.0732  0.2057
 3861LEFLG Drug46615  16.743  18.950  25.318 -0.2542  0.0072  0.0519
 3861LEFLG Drug46616  16.702  18.766  25.510  0.7955  0.0538  0.2417
 3861LEFLG Drug46617  16.618  19.004  25.666  0.1464 -0.1689  0.2458
 3861LEFLG Drug46618  16.581  18.711  25.684 -0.0301 -0.1916 -0.3848
 3861LEFLG Drug46619  16.428  18.766  25.857 -0.3752 -0.6885 -0.3706
 3862LEFLG Drug46620  15.559  19.879  23.683  0.1648 -0.1624  0.0871
 3862LEFLG Drug46621  15.782  19.698  23.621  0.3427  0.1518 -0.2046
 3862LEFLG Drug46622  15.910  19.826  23.695  0.2369  0.2341 -0.1631
 3862LEFLG Drug46623  15.880  20.028  23.805 -0.3338 -0.1236  0.0969
 3862LEFLG Drug46624  15.978  20.073  24.046 -0.2069 -0.0773 -0.2272
 3862LEFLG Drug46625  15.967  19.777  24.039  0.4654 -0.1147 -0.0369
 3862LEFLG Drug46626  16.014  19.985  24.243 -0.4126  0.1493 -0.0880
 3862LEFLG Drug46627  16.000  19.804  24.389 -0.0758 -0.5818 -0.0870
 3863LEFLG Drug46628  14.732  18.890  27.248 -0.1492  0.4019 -0.0472
 3863LEFLG Drug46629  14.853  18.855  26.982 -0.3722  0.2384 -0.1281
 3863LEFLG Drug46630  14.777  18.676  26.968 -0.5103  0.2870 -0.0204
 3863LEFLG Drug46631  14.711  18.534  27.139 -0.1093  0.0137  0.1319
 3863LEFLG Drug46632  14.750  18.275  27.091 -0.3858  0.2648  0.2704
 3863LEFLG Drug46633  14.520  18.317  26.909 -0.1110 -0.2515 -0.2080
 3863LEFLG Drug46634  14.719  18.103  26.959  0.3471  0.2388  0.1138
 3863LEFLG Drug46635  14.590  17.981  26.813  0.5483  0.4901  0.0002
 3864LEFLG Drug46636  16.653  17.061  21.959 -0.1079  0.1496  0.4278
 3864LEFLG Drug46637  16.684  17.340  22.048 -0.0232  0.3320 -0.1568
 3864LEFLG Drug46638  16.550  17.398  21.919 -0.3392  0.0355  0.0301
 3864LEFLG Drug46639  16.453  17.295  21.720 -0.1250 -0.4222 -0.2720
 3864LEFLG Drug46640  16.197  17.228  21.692  0.1246 -0.0738  0.0741
 3864LEFLG Drug46641  16.221  17.431  21.478 -0.3822  0.4094  0.4607
 3864LEFLG Drug46642  16.002  17.281  21.608 -0.0081 -0.4427  0.1420
 3864LEFLG Drug46643  15.875  17.431  21.475 -0.2321 -0.0264  0.0183
 3865LEFLG Drug46644  14.511  17.258  24.029  0.0498  0.1411 -0.1231
 3865LEFLG Drug46645  14.408  16.988  23.975  0.3961  0.0482 -0.3316
 3865LEFLG Drug46646  14.381  16.957  24.165 -0.2307  0.1365 -0.3980
 3865LEFLG Drug46647  14.477  17.063  24.350  0.0124 -0.2854  0.2489
 3865LEFLG Drug46648  14.540  16.888  24.538 -0.0870 -0.3874  0.4288
 3865LEFLG Drug46649  14.787  16.907  24.376 -0.3764  0.3930  0.0592
 3865LEFLG Drug46650  14.671  16.715  24.569  0.3557 -0.1436 -0.0150
 3865LEFLG Drug46651  14.888  16.632  24.586  0.3103 -0.0725  0.2458
 3866LEFLG Drug46652  20.155  18.044  20.604 -0.2350  0.1751  0.0366
 3866LEFLG Drug46653  20.069  17.984  20.329 -0.0508 -0.1753  0.0529
 3866LEFLG Drug46654  20.052  17.795  20.372  0.1462 -0.1567  0.2180
 3866LEFLG Drug46655  20.129  17.682  20.565  0.1440  0.2273  0.2138
 3866LEFLG Drug46656  19.950  17.559  20.716  0.0755 -0.3119 -0.2010
 3866LEFLG Drug46657  19.889  17.412  20.467  0.1945 -0.6271 -0.0458
 3866LEFLG Drug46658  19.854  17.367  20.758  0.1893 -0.3262  0.0009
 3866LEFLG Drug46659  19.758  17.171  20.679  0.4490  0.2233  0.4110
 3867LEFLG Drug46660  15.188  18.475  26.237  0.5036  0.2965 -0.2462
 3867LEFLG Drug46661  15.160  18.753  26.330 -0.3317  0.1564 -0.0424
 3867LEFLG Drug46662  14.995  18.774  26.228 -0.4616 -0.2952  0.0647
 3867LEFLG Drug46663  14.922  18.651  26.040  0.0446  0.0369  0.2325
 3867LEFLG Drug46664  15.098  18.564  25.856  0.1577 -0.0912 -0.0174
 3867LEFLG Drug46665  15.020  18.309  25.985  0.3420 -0.1719 -0.0653
 3867LEFLG Drug46666  15.223  18.398  25.789  0.1760 -0.0162 -0.1677
 3867LEFLG Drug46667  15.272  18.173  25.782  0.1519  0.4753  0.3566
 3868LEFLG Drug46668  16.585  15.428  23.047  0.2045 -0.1394 -0.0464
 3868LEFLG Drug46669  16.853  15.547  23.068  0.1334  0.0120  0.0063
 3868LEFLG Drug46670  16.781  15.702  23.160 -0.0637  0.2810 -0.5801
 3868LEFLG Drug46671  16.556  15.759  23.202 -0.1788  0.2621  0.0217
 3868LEFLG Drug46672  16.548  15.952  23.392 -0.3155  0.0546  0.0882
 3868LEFLG Drug46673  16.551  16.116  23.145  0.3817  0.0025  0.0538
 3868LEFLG Drug46674  16.585  16.163  23.435 -0.8556  0.1333  0.2023
 3868LEFLG Drug46675  16.683  16.354  23.363 -0.2885  0.0455 -0.3876
 3869LEFLG Drug46676  22.455  18.562  18.159 -0.3806  0.8428 -0.2996
 3869LEFLG Drug46677  22.341  18.596  18.428  0.1301 -0.2893  0.0861
 3869LEFLG Drug46678  22.507  18.675  18.492  0.1547 -0.2887  0.0219
 3869LEFLG Drug46679  22.656  18.821  18.380 -0.4441  0.1805 -0.0111
 3869LEFLG Drug46680  22.549  18.997  18.205 -0.2165 -0.2475 -0.2899
 3869LEFLG Drug46681  22.358  19.002  18.431  0.1381 -0.2370  0.0145
 3869LEFLG Drug46682  22.369  19.111  18.156  0.0703  0.4952  0.2928
 3869LEFLG Drug46683  22.180  19.225  18.229  0.0399 -0.1739 -0.1256
 3870LEFLG Drug46684  19.709  16.817  19.966 -0.1828  0.2316 -0.2079
 3870LEFLG Drug46685  19.415  16.815  19.975 -0.1826  0.5019 -0.0750
 3870LEFLG Drug46686  19.406  16.825  19.781 -0.2456 -0.5866 -0.1552
 3870LEFLG Drug46687  19.573  16.909  19.631  0.3271  0.0455  0.2709
 3870LEFLG Drug46688  19.563  17.185  19.599 -0.5613  0.3005  0.0604
 3870LEFLG Drug46689  19.654  17.168  19.880  0.2340  0.1371 -0.1955
 3870LEFLG Drug46690  19.558  17.380  19.698 -0.3950  0.2245  0.2216
 3870LEFLG Drug46691  19.595  17.527  19.887 -0.3463  0.0976  0.1723
 3871LEFLG Drug46692  19.631  18.995  18.715  0.0388 -0.0699  0.3331
 3871LEFLG Drug46693  19.486  18.783  18.572  0.4538 -0.0345 -0.1499
 3871LEFLG Drug46694  19.569  18.646  18.683 -0.0509 -0.0447  0.2307
 3871LEFLG Drug46695  19.685  18.657  18.881 -0.0576 -0.0385 -0.2803
 3871LEFLG Drug46696  19.944  18.699  18.838  0.1689  0.0108  0.3546
 3871LEFLG Drug46697  19.937  18.412  18.765 -0.2243 -0.0174  0.4918
 3871LEFLG Drug46698  20.102  18.648  18.696 -0.1441 -0.1924  0.0724
 3871LEFLG Drug46699  20.188  18.511  18.527  0.0943  0.0208 -0.3414
 3872LEFLG Drug46700  16.042  15.770  26.676  0.3538  0.1249  0.1535
 3872LEFLG Drug46701  16.308  15.760  26.551  0.3822  0.2409  0.2038
 3872LEFLG Drug46702  16.284  15.939  26.478  0.1251  0.0527 -0.1921
 3872LEFLG Drug46703  16.084  16.062  26.464 -0.1231  0.0276 -0.3631
 3872LEFLG Drug46704  16.080  16.285  26.323  0.1637 -0.0774  0.1487
 3872LEFLG Drug46705  15.939  16.096  26.145 -0.1318  0.1161  0.1753
 3872LEFLG Drug46706  15.967  16.389  26.168  0.2167  0.0810  0.2160
 3872LEFLG Drug46707  15.819  16.391  25.987  0.1651 -0.5228  0.0930
 3873LEFLG Drug46708  20.261  14.353  19.343 -0.0174  0.2699 -0.2266
 3873LEFLG Drug46709  20.244  14.455  19.619  0.1835 -0.3351  0.0166
 3873LEFLG Drug46710  20.119  14.593  19.563  0.5446  0.1215  0.3100
 3873LEFLG Drug46711  20.031  14.649  19.348 -0.1495  0.0704 -0.1655
 3873LEFLG Drug46712  20.028  14.916  19.293  0.0135  0.4567  0.1966
 3873LEFLG Drug46713  19.932  14.922  19.573 -0.3464  0.3493  0.0784
 3873LEFLG Drug46714  19.994  15.121  19.362 -0.1992  0.4242  0.1916
 3873LEFLG Drug46715  19.873  15.265  19.491  1.1976  0.2045  0.5182
 3874LEFLG Drug46716  15.911  17.781  26.801 -0.0382 -0.1777 -0.1204
 3874LEFLG Drug46717  15.730  17.897  27.001  0.0863  0.1462 -0.1935
 3874LEFLG Drug46718  15.721  18.064  26.901  0.4913  0.1968 -0.1536
 3874LEFLG Drug46719  15.814  18.114  26.682  0.0601 -0.2095  0.1901
 3874LEFLG Drug46720  15.627  18.086  26.500 -0.3865  0.1314 -0.1468
 3874LEFLG Drug46721  15.704  18.365  26.441 -1.3172  0.4874  0.2329
 3874LEFLG Drug46722  15.553  18.150  26.305 -0.1405 -0.0409 -0.2981
 3874LEFLG Drug46723  15.552  18.308  26.141  0.3485  0.3795  0.5617
 3875LEFLG Drug46724  16.697  15.509  20.682 -0.3984  0.0191 -0.0797
 3875LEFLG Drug46725  16.748  15.524  20.393 -0.0952  0.0686 -0.0251
 3875LEFLG Drug46726  16.742  15.330  20.378  0.4929  0.0394  0.0296
 3875LEFLG Drug46727  16.798  15.169  20.538 -0.1585  0.8847 -0.0362
 3875LEFLG Drug46728  16.972  15.240  20.732 -0.0289 -0.0728  0.0037
 3875LEFLG Drug46729  17.117  15.332  20.492  0.1594  0.3036  0.2556
 3875LEFLG Drug46730  17.142  15.366  20.784  0.0254 -0.2798  0.3424
 3875LEFLG Drug46731  17.330  15.503  20.724 -0.0713  0.3149 -0.2759
 3876LEFLG Drug46732  17.729  16.538  20.275  0.1158 -0.4889  0.1127
 3876LEFLG Drug46733  17.898  16.540  20.516 -0.1576 -0.4336  0.3057
 3876LEFLG Drug46734  17.740  16.534  20.630 -0.3197  0.3338  0.1468
 3876LEFLG Drug46735  17.529  16.611  20.586  0.3529 -0.0493  0.2354
 3876LEFLG Drug46736  17.382  16.463  20.429 -0.5006 -0.1417  0.0882
 3876LEFLG Drug46737  17.543  16.259  20.570  0.1452  0.1714 -0.1741
 3876LEFLG Drug46738  17.371  16.269  20.329 -0.3460 -0.1843  0.1528
 3876LEFLG Drug46739  17.423  16.051  20.305 -0.1146 -0.5305 -0.1065
 3877LEFLG Drug46740  16.932  16.770  23.670 -0.2136 -0.0168 -0.6758
 3877LEFLG Drug46741  16.734  16.986  23.638 -0.3953 -0.0184  0.2924
 3877LEFLG Drug46742  16.620  16.905  23.773 -0.1038 -0.4605  0.2854
 3877LEFLG Drug46743  16.600  16.686  23.844 -0.2302  0.4144  0.0649
 3877LEFLG Drug46744  16.827  16.600  23.961 -0.1989  0.0570  0.2336
 3877LEFLG Drug46745  16.736  16.355  23.824 -0.4993  0.3588 -0.1152
 3877LEFLG Drug46746  16.967  16.435  23.990 -0.2580 -0.0806 -0.2330
 3877LEFLG Drug46747  17.053  16.218  23.939 -0.3127  0.3601 -0.3545
 3878LEFLG Drug46748  20.327  17.265  19.710  0.1836  0.6441  0.7484
 3878LEFLG Drug46749  20.334  17.484  19.513  0.0754  0.1169  0.1415
 3878LEFLG Drug46750  20.148  17.453  19.467  0.0453 -0.0012  0.3390
 3878LEFLG Drug46751  19.973  17.352  19.592 -0.1508  0.0206  0.4429
 3878LEFLG Drug46752  19.962  17.080  19.573  0.4055 -0.0043 -0.1460
 3878LEFLG Drug46753  19.994  17.119  19.864  0.0885  0.2767 -0.1461
 3878LEFLG Drug46754  19.986  16.889  19.678  0.2497  0.0937  0.0704
 3878LEFLG Drug46755  20.061  16.772  19.856 -0.1507 -0.0056  0.1928
 3879LEFLG Drug46756  14.908  17.574  24.632 -0.0028  0.1357  0.0482
 3879LEFLG Drug46757  14.792  17.303  24.635  0.4317 -0.0664 -0.5117
 3879LEFLG Drug46758  14.613  17.376  24.615  0.3252 -0.3228 -0.5126
 3879LEFLG Drug46759  14.541  17.607  24.617  0.3283 -0.0046 -0.4307
 3879LEFLG Drug46760  14.308  17.677  24.726  0.5060  0.0118  0.4474
 3879LEFLG Drug46761  14.331  17.864  24.498  0.1476 -0.0885  0.3257
 3879LEFLG Drug46762  14.116  17.770  24.679  0.2951 -0.4782  0.3025
 3879LEFLG Drug46763  13.979  17.867  24.513  0.1168  0.0540  0.3270
 3880LEFLG Drug46764  15.664  16.914  26.254 -0.0336 -0.1385 -0.2777
 3880LEFLG Drug46765  15.404  17.003  26.149  0.0657  0.3900 -0.0916
 3880LEFLG Drug46766  15.470  17.184  26.129  0.4787  0.2201 -0.3074
 3880LEFLG Drug46767  15.640  17.299  26.254 -0.2011  0.0758 -0.2933
 3880LEFLG Drug46768  15.589  17.559  26.318 -0.3418  0.3077  0.1841
 3880LEFLG Drug46769  15.733  17.593  26.062 -0.1196 -0.0897  0.2514
 3880LEFLG Drug46770  15.670  17.761  26.298  0.0397  0.1528  0.1231
 3880LEFLG Drug46771  15.830  17.902  26.214 -0.4621 -0.3354  0.5826
 3881LEFLG Drug46772  20.625  18.222  17.688  0.0158  0.1867 -0.0335
 3881LEFLG Drug46773  20.813  18.080  17.865  0.1588  0.1073 -0.2466
 3881LEFLG Drug46774  20.820  18.234  17.985 -0.1439 -0.1314  0.0862
 3881LEFLG Drug46775  20.707  18.442  17.986 -0.2025  0.0600  0.4197
 3881LEFLG Drug46776  20.688  18.566  18.220 -0.0363  0.1339 -0.2606
 3881LEFLG Drug46777  20.973  18.488  18.216 -0.0980 -0.0994 -0.1791
 3881LEFLG Drug46778  20.791  18.627  18.403 -0.0881 -0.1437 -0.1364
 3881LEFLG Drug46779  20.989  18.662  18.535  1.2208 -0.0904  0.4675
 3882LEFLG Drug46780  16.801  16.240  21.956 -0.1682  0.4565 -0.1310
 3882LEFLG Drug46781  16.843  16.157  21.677  0.1194  0.4003 -0.0719
 3882LEFLG Drug46782  16.658  16.100  21.663  0.2938 -0.2070 -0.0510
 3882LEFLG Drug46783  16.481  16.086  21.832 -0.4317 -0.2465  0.5778
 3882LEFLG Drug46784  16.454  16.316  21.978  0.0592  0.1400  0.2766
 3882LEFLG Drug46785  16.390  16.429  21.713  0.4609 -0.0552  0.0921
 3882LEFLG Drug46786  16.352  16.508  21.995  0.4233  0.3665 -0.0283
 3882LEFLG Drug46787  16.209  16.669  21.911  0.3823 -0.9553 -0.1297
 3883LEFLG Drug46788  20.541  16.095  18.545  0.2307  0.4620  0.0124
 3883LEFLG Drug46789  20.770  15.921  18.608  0.0084  0.0049 -0.4134
 3883LEFLG Drug46790  20.650  15.772  18.644 -0.1896  0.0897 -0.7019
 3883LEFLG Drug46791  20.416  15.732  18.607 -0.0052  0.0061 -0.3704
 3883LEFLG Drug46792  20.313  15.886  18.398  0.2437  0.2570  0.1312
 3883LEFLG Drug46793  20.185  16.028  18.624 -0.4357 -0.4287  0.1980
 3883LEFLG Drug46794  20.214  16.069  18.332 -0.3414  0.0005  0.2651
 3883LEFLG Drug46795  20.156  16.290  18.378  0.5075 -0.6300  0.7126
 3884LEFLG Drug46796  22.248  17.736  20.163 -0.0216  0.0465 -0.3626
 3884LEFLG Drug46797  22.445  17.951  20.209 -0.1329  0.0484  0.1312
 3884LEFLG Drug46798  22.351  18.067  20.085  0.3690 -0.0773 -0.3835
 3884LEFLG Drug46799  22.135  18.058  20.019 -0.0527  0.1717 -0.2508
 3884LEFLG Drug46800  22.067  18.215  19.828 -0.1137  0.4864  0.4647
 3884LEFLG Drug46801  21.806  18.084  19.873  0.0961 -0.1073  0.0076
 3884LEFLG Drug46802  21.907  18.316  19.720 -0.0818 -0.2188 -0.2811
 3884LEFLG Drug46803  21.680  18.333  19.669 -0.7617 -0.6079  0.7151
 3885LEFLG Drug46804  15.039  17.246  25.670  0.1650  0.5578 -0.0153
 3885LEFLG Drug46805  15.225  17.147  25.465 -0.2012  0.1215 -0.1439
 3885LEFLG Drug46806  15.184  17.299  25.350 -0.1338  0.0696 -0.2374
 3885LEFLG Drug46807  15.009  17.467  25.384 -0.3570 -0.1934  0.4821
 3885LEFLG Drug46808  15.099  17.661  25.564  0.1075  0.0786  0.2556
 3885LEFLG Drug46809  14.858  17.559  25.701  0.0160  0.1873  0.1766
 3885LEFLG Drug46810  15.069  17.759  25.757  0.1479  0.0166  0.2933
 3885LEFLG Drug46811  14.952  17.782  25.957  0.3486 -0.0657  0.0548
 3886LEFLG Drug46812  18.531  17.476  18.852 -0.0826 -0.1125  0.3709
 3886LEFLG Drug46813  18.476  17.251  18.671 -0.0151  0.3594 -0.2555
 3886LEFLG Drug46814  18.653  17.266  18.593  0.2551  0.1668  0.2996
 3886LEFLG Drug46815  18.823  17.416  18.633 -0.2876 -0.3020  0.1557
 3886LEFLG Drug46816  19.020  17.361  18.810  0.0834  0.1899  0.1227
 3886LEFLG Drug46817  19.091  17.640  18.740  0.3367  0.1461  0.1991
 3886LEFLG Drug46818  19.172  17.442  18.945  0.1931 -0.0005  0.1153
 3886LEFLG Drug46819  19.342  17.589  18.984  0.0459 -0.3620 -0.0929
 3887LEFLG Drug46820  19.448  17.418  18.254  0.2457  0.2255  0.3346
 3887LEFLG Drug46821  19.467  17.133  18.184 -0.1404  0.2096  0.2875
 3887LEFLG Drug46822  19.559  17.176  18.019 -0.2375  0.1215  0.2098
 3887LEFLG Drug46823  19.694  17.364  17.963 -0.0511 -0.1257  0.0273
 3887LEFLG Drug46824  19.547  17.584  17.960 -0.0719  0.1582 -0.2203
 3887LEFLG Drug46825  19.766  17.656  18.144 -0.2896 -0.4476  0.2920
 3887LEFLG Drug46826  19.545  17.797  18.008  0.1313  0.0824  0.1421
 3887LEFLG Drug46827  19.610  17.978  18.140  0.5885 -0.3435 -0.7293
 3888LEFLG Drug46828  20.568  17.795  16.797 -0.2343  0.1837 -0.1308
 3888LEFLG Drug46829  20.749  17.896  17.006 -0.3872  0.0495  0.0692
 3888LEFLG Drug46830  20.709  17.743  17.119 -0.2769 -0.1575 -0.1652
 3888LEFLG Drug46831  20.513  17.614  17.133 -0.0538  0.0707 -0.5198
 3888LEFLG Drug46832  20.535  17.379  17.255 -0.0930  0.8285 -0.1616
 3888LEFLG Drug46833  20.745  17.526  17.402 -0.0474  0.0827  0.5516
 3888LEFLG Drug46834  20.658  17.245  17.375 -0.3754  0.2622 -0.4843
 3888LEFLG Drug46835  20.774  17.217  17.575  0.1106  0.6755 -0.3083
 3889LEFLG Drug46836  14.230  17.129  23.484 -0.3411 -0.0789 -0.2990
 3889LEFLG Drug46837  13.947  17.204  23.452 -0.2755  0.1656 -0.3197
 3889LEFLG Drug46838  13.966  17.343  23.586 -0.2578 -0.0943 -0.0469
 3889LEFLG Drug46839  14.141  17.411  23.736 -0.0360  0.1188  0.0666
 3889LEFLG Drug46840  14.288  17.632  23.701 -0.0402  0.0996  0.1701
 3889LEFLG Drug46841  14.054  17.753  23.835  0.0541  0.2150  0.2312
 3889LEFLG Drug46842  14.334  17.830  23.779 -0.1058  0.3569 -0.4160
 3889LEFLG Drug46843  14.252  18.043  23.860 -0.5923  0.1592  0.1133
 3890LEFLG Drug46844  18.799  16.379  21.443 -0.0879 -0.1760  0.5393
 3890LEFLG Drug46845  18.785  16.654  21.547 -0.0891  0.0391 -0.0166
 3890LEFLG Drug46846  18.970  16.686  21.497 -0.2164  0.0879 -0.4737
 3890LEFLG Drug46847  19.137  16.531  21.425 -0.0832 -0.1652  0.1015
 3890LEFLG Drug46848  19.127  16.473  21.161  0.1906 -0.2626 -0.3182
 3890LEFLG Drug46849  18.994  16.736  21.155  0.2416 -0.2232  0.1473
 3890LEFLG Drug46850  19.128  16.559  20.960  0.0786  0.0269 -0.1964
 3890LEFLG Drug46851  19.067  16.726  20.803  0.1498  0.0159 -0.2881
 3891LEFLG Drug46852  17.275  16.027  22.595  0.0482  0.1899 -0.3181
 3891LEFLG Drug46853  17.453  15.795  22.631 -0.1939  0.0479 -0.0176
 3891LEFLG Drug46854  17.372  15.756  22.803 -0.2504  0.3446  0.0261
 3891LEFLG Drug46855  17.187  15.866  22.910 -0.0288  0.3850  0.4964
 3891LEFLG Drug46856  17.187  16.140  22.921  0.0204  0.3275 -0.0723
 3891LEFLG Drug46857  16.981  16.081  23.125  0.1461 -0.1339 -0.0754
 3891LEFLG Drug46858  17.062  16.314  22.963  0.2642  0.3434  0.6506
 3891LEFLG Drug46859  16.917  16.421  23.099 -0.3267 -0.0834  0.4941
 3892LEFLG Drug46860  15.962  17.201  27.402  0.5383 -0.6095  0.7146
 3892LEFLG Drug46861  16.180  17.270  27.216 -0.1988  0.2046  0.1146
 3892LEFLG Drug46862  16.134  17.120  27.101  0.0963 -0.0337  0.2978
 3892LEFLG Drug46863  15.970  16.954  27.125  0.3129 -0.0642 -0.4300
 3892LEFLG Drug46864  16.037  16.701  27.076 -0.0512 -0.1756  0.0929
 3892LEFLG Drug46865  16.023  16.711  27.372 -0.0857  0.4687  0.0761
 3892LEFLG Drug46866  16.108  16.515  27.167  0.3446  0.1740  0.5261
 3892LEFLG Drug46867  16.130  16.360  27.334 -0.1616 -0.3172 -0.0593
 3893LEFLG Drug46868  15.646  16.298  22.292  0.0921 -0.1045  0.3918
 3893LEFLG Drug46869  15.768  16.177  22.531  0.2005 -0.2570  0.2605
 3893LEFLG Drug46870  15.946  16.222  22.466  0.2023 -0.6506 -0.0234
 3893LEFLG Drug46871  16.031  16.248  22.232  0.0092  0.2227  0.1548
 3893LEFLG Drug46872  15.892  16.118  22.033 -0.1528 -0.1091 -0.0343
 3893LEFLG Drug46873  16.092  16.260  21.869 -0.0629 -0.0753  0.1037
 3893LEFLG Drug46874  15.908  16.031  21.833 -0.1976  0.0655 -0.1145
 3893LEFLG Drug46875  16.016  16.007  21.635  0.0538  0.3022  0.5731
 3894LEFLG Drug46876  17.874  16.643  19.325 -0.4213 -0.0481 -0.0025
 3894LEFLG Drug46877  17.828  16.812  19.562 -0.2488  0.1101 -0.0813
 3894LEFLG Drug46878  17.920  16.683  19.675 -0.4198  0.0462 -0.0137
 3894LEFLG Drug46879  18.103  16.549  19.608 -0.3482  0.1533  0.1036
 3894LEFLG Drug46880  18.248  16.677  19.425 -0.1284 -0.2042 -0.1089
 3894LEFLG Drug46881  18.460  16.500  19.532  0.1844  0.2460  0.0275
 3894LEFLG Drug46882  18.448  16.751  19.375 -0.2543  0.1326 -0.1253
 3894LEFLG Drug46883  18.692  16.751  19.405 -0.0857  0.3236 -0.4417
 3895LEFLG Drug46884  16.314  20.027  25.836 -0.3246 -0.0703 -0.0687
 3895LEFLG Drug46885  16.364  19.905  25.573  0.0758 -0.3222  0.1212
 3895LEFLG Drug46886  16.207  19.792  25.592  0.1667 -0.4569  0.0810
 3895LEFLG Drug46887  16.097  19.726  25.794  0.1382  0.0393  0.0906
 3895LEFLG Drug46888  16.226  19.732  26.024 -0.0481 -0.0627 -0.0602
 3895LEFLG Drug46889  16.029  19.519  26.082 -0.0180 -0.1264 -0.1920
 3895LEFLG Drug46890  16.258  19.644  26.222 -0.0668 -0.1458 -0.0940
 3895LEFLG Drug46891  16.196  19.495  26.381 -0.0624 -0.1985 -0.1310
 3896LEFLG Drug46892  15.505  15.336  23.439  0.0356  0.2836  0.1953
 3896LEFLG Drug46893  15.288  15.213  23.596 -0.2556  0.4528 -0.0676
 3896LEFLG Drug46894  15.299  15.356  23.728  0.5052 -0.1461  0.5682
 3896LEFLG Drug46895  15.489  15.475  23.789  0.0685 -0.1712  0.1248
 3896LEFLG Drug46896  15.492  15.735  23.847  0.0057 -0.0865  0.1158
 3896LEFLG Drug46897  15.203  15.702  23.793  0.0962 -0.2713 -0.2757
 3896LEFLG Drug46898  15.386  15.926  23.856 -0.1463 -0.1687  0.0800
 3896LEFLG Drug46899  15.176  16.046  23.837 -0.3356 -0.5339  0.1410
 3897LEFLG Drug46900  14.935  18.807  25.126  0.0074  0.4160  0.2576
 3897LEFLG Drug46901  14.765  19.006  24.992 -0.3045 -0.1164 -0.1537
 3897LEFLG Drug46902  14.659  18.865  24.910  0.0514 -0.4528 -0.0472
 3897LEFLG Drug46903  14.609  18.662  24.974  0.2946  0.2379 -0.0667
 3897LEFLG Drug46904  14.773  18.466  24.903  0.0802  0.0721  0.0090
 3897LEFLG Drug46905  14.764  18.431  25.197 -0.6847 -0.1080 -0.0268
 3897LEFLG Drug46906  14.928  18.328  24.973  0.0817  0.2446  0.3553
 3897LEFLG Drug46907  15.011  18.187  25.125 -0.3286 -0.8592 -0.2062
 3898LEFLG Drug46908  14.886  16.449  21.312  0.0563 -0.0936  0.1236
 3898LEFLG Drug46909  14.901  16.668  21.115  0.0851  0.0270  0.2590
 3898LEFLG Drug46910  15.091  16.690  21.150  0.0623  0.0636  0.3625
 3898LEFLG Drug46911  15.214  16.587  21.310 -0.1065 -0.1479 -0.1243
 3898LEFLG Drug46912  15.481  16.590  21.297 -0.0788  0.3171  0.2444
 3898LEFLG Drug46913  15.433  16.441  21.548 -0.3516 -0.0608 -0.0290
 3898LEFLG Drug46914  15.652  16.466  21.351 -0.3130 -0.1217  0.0061
 3898LEFLG Drug46915  15.748  16.293  21.465 -0.3993 -0.4408 -0.1121
 3899LEFLG Drug46916  15.533  18.052  24.310 -0.1231  0.3755  0.2148
 3899LEFLG Drug46917  15.489  18.156  24.038  0.0568  0.1565  0.0999
 3899LEFLG Drug46918  15.297  18.132  24.058  0.0251  0.3808  0.0769
 3899LEFLG Drug46919  15.174  17.975  24.190  0.0686  0.0239  0.2707
 3899LEFLG Drug46920  15.013  17.791  24.076  0.6140  0.1426 -0.1511
 3899LEFLG Drug46921  15.086  17.666  24.334  0.5590  0.0783 -0.1667
 3899LEFLG Drug46922  14.887  17.618  24.120  0.4206  0.2967 -0.0888
 3899LEFLG Drug46923  14.828  17.438  24.261 -0.2959  0.3826  0.4752
 3900LEFLG Drug46924  21.655  16.813  19.343 -0.4307 -0.0925  0.0099
 3900LEFLG Drug46925  21.438  17.009  19.307 -0.3055  0.0855  0.2140
 3900LEFLG Drug46926  21.557  17.127  19.208 -0.3421 -0.0874 -0.0426
 3900LEFLG Drug46927  21.748  17.067  19.082  0.1879  0.0027 -0.1414
 3900LEFLG Drug46928  21.912  17.256  18.965 -0.2119 -0.0212 -0.2262
 3900LEFLG Drug46929  21.731  17.188  18.741 -0.3355  0.0448 -0.1472
 3900LEFLG Drug46930  21.984  17.337  18.775 -0.2883 -0.0112 -0.2513
 3900LEFLG Drug46931  21.939  17.408  18.547 -0.3454  0.1064 -0.0584
 3901LEFLG Drug46932  18.569  14.707  23.025 -0.0895  0.1660 -0.1433
 3901LEFLG Drug46933  18.505  14.873  23.260 -0.2056 -0.0859  0.0048
 3901LEFLG Drug46934  18.552  15.034  23.162 -0.3639  0.0395  0.1319
 3901LEFLG Drug46935  18.609  15.061  22.941 -0.0700 -0.0097  0.2480
 3901LEFLG Drug46936  18.444  15.212  22.809  0.3377  0.0421 -0.0252
 3901LEFLG Drug46937  18.666  15.397  22.872  0.3311 -0.0182  0.1784
 3901LEFLG Drug46938  18.420  15.405  22.709  0.2786  0.1886  0.2653
 3901LEFLG Drug46939  18.493  15.617  22.659 -0.2908  0.1938  0.4933
 3902LEFLG Drug46940  15.241  16.271  25.542 -0.2175  0.1290 -0.1088
 3902LEFLG Drug46941  15.136  16.202  25.808 -0.0118  0.1512 -0.0212
 3902LEFLG Drug46942  15.134  16.390  25.859 -0.1481  0.1714 -0.1014
 3902LEFLG Drug46943  15.230  16.583  25.761  0.4071 -0.0372  0.3271
 3902LEFLG Drug46944  15.053  16.780  25.713 -0.3021  0.2981  0.1280
 3902LEFLG Drug46945  14.901  16.548  25.610  0.1444  0.3258 -0.6240
 3902LEFLG Drug46946  14.880  16.842  25.595 -0.1029  0.3358 -0.1487
 3902LEFLG Drug46947  14.665  16.788  25.498 -0.3141 -0.1999  0.4949
 3903LEFLG Drug46948  18.533  17.813  19.721 -0.2787  0.2116  0.1503
 3903LEFLG Drug46949  18.765  17.993  19.745 -0.0400 -0.0915  0.1302
 3903LEFLG Drug46950  18.822  17.947  19.564 -0.1435 -0.1268  0.1063
 3903LEFLG Drug46951  18.764  17.763  19.425  0.4660 -0.0221 -0.2139
 3903LEFLG Drug46952  18.753  17.542  19.567  0.8310  0.1826  0.0828
 3903LEFLG Drug46953  18.746  17.434  19.291  0.3729  0.2747  0.0551
 3903LEFLG Drug46954  18.702  17.329  19.565  0.1019  0.3443  0.0404
 3903LEFLG Drug46955  18.687  17.133  19.458  0.1847  1.0578  0.2282
 3904LEFLG Drug46956  14.645  16.929  23.703 -0.0330  0.1711  0.5028
 3904LEFLG Drug46957  14.815  17.112  23.860  0.5119 -0.0122  0.1419
 3904LEFLG Drug46958  14.827  16.981  24.004  0.2802  0.1561  0.3185
 3904LEFLG Drug46959  14.737  16.752  24.026 -0.3868 -0.4899  0.0181
 3904LEFLG Drug46960  14.907  16.560  23.941 -0.0878  0.0736 -0.1286
 3904LEFLG Drug46961  14.678  16.396  24.032 -0.0464  0.1987  0.2053
 3904LEFLG Drug46962  14.919  16.355  23.865 -0.2304  0.0251 -0.0202
 3904LEFLG Drug46963  14.825  16.142  23.818  0.3270 -0.3338  0.0075
 3905LEFLG Drug46964  13.837  18.216  24.481  0.2821  0.0272 -0.0882
 3905LEFLG Drug46965  13.869  18.135  24.762 -0.2703 -0.1245 -0.0635
 3905LEFLG Drug46966  14.047  18.215  24.768 -0.2911 -0.0980  0.3380
 3905LEFLG Drug46967  14.190  18.302  24.599  0.4761 -0.2783  0.1453
 3905LEFLG Drug46968  14.338  18.509  24.684 -0.1845 -0.1748 -0.3215
 3905LEFLG Drug46969  14.299  18.600  24.405 -0.0573  0.1751 -0.2272
 3905LEFLG Drug46970  14.489  18.655  24.625 -0.1902 -0.0578 -0.0519
 3905LEFLG Drug46971  14.559  18.832  24.496 -0.3780 -0.1095 -0.2565
 3906LEFLG Drug46972  17.451  17.089  23.209 -0.2334 -0.0296  0.0638
 3906LEFLG Drug46973  17.589  17.134  22.953  0.0256 -0.1617  0.1780
 3906LEFLG Drug46974  17.419  17.157  22.862  0.1285  0.2737  0.0864
 3906LEFLG Drug46975  17.195  17.182  22.938  0.4649 -0.1349 -0.1783
 3906LEFLG Drug46976  17.151  17.327  23.158 -0.3931  0.4989 -0.0995
 3906LEFLG Drug46977  16.925  17.138  23.173 -0.0053  0.0618  0.3963
 3906LEFLG Drug46978  17.062  17.324  23.357  0.1725  0.1674  0.1590
 3906LEFLG Drug46979  16.875  17.294  23.489 -0.2748 -0.3032 -0.5235
 3907LEFLG Drug46980  19.604  14.691  19.660 -0.1551  0.4904 -0.1431
 3907LEFLG Drug46981  19.405  14.490  19.579 -0.1380  0.1608  0.5959
 3907LEFLG Drug46982  19.274  14.630  19.543 -0.0553  0.0542 -0.2035
 3907LEFLG Drug46983  19.260  14.838  19.614 -0.1467 -0.0132  0.1069
 3907LEFLG Drug46984  19.263  15.023  19.405 -0.1946  0.4132  0.2805
 3907LEFLG Drug46985  19.549  15.021  19.481 -0.2056  0.3734  0.3207
 3907LEFLG Drug46986  19.382  15.156  19.278 -0.0750  0.0238 -0.0238
 3907LEFLG Drug46987  19.586  15.219  19.201  0.2138 -0.0688  0.8151
 3908LEFLG Drug46988  20.197  16.384  19.851  0.4740 -0.3147 -0.5477
 3908LEFLG Drug46989  20.230  16.177  20.057 -0.0888 -0.0272 -0.1576
 3908LEFLG Drug46990  20.229  16.037  19.921 -0.0486 -0.2474  0.0652
 3908LEFLG Drug46991  20.091  16.032  19.733  0.0445 -0.3804  0.0927
 3908LEFLG Drug46992  20.210  15.955  19.510  0.2613  0.3458 -0.0063
 3908LEFLG Drug46993  20.334  15.762  19.696  0.1475  0.2063 -0.0741
 3908LEFLG Drug46994  20.393  15.869  19.427  0.1230  0.1437 -0.1044
 3908LEFLG Drug46995  20.546  15.700  19.436 -0.6906  0.3694  0.6436
 3909LEFLG Drug46996  20.768  16.377  17.829  0.2348  0.7411  0.3543
 3909LEFLG Drug46997  20.545  16.516  17.698 -0.3088 -0.0615  0.3990
 3909LEFLG Drug46998  20.537  16.646  17.842 -0.4265  0.1938  0.1666
 3909LEFLG Drug46999  20.614  16.629  18.063 -0.0543  0.2412  0.1103
 3909LEFLG Drug47000  20.563  16.396  18.197 -0.2125 -0.1447 -0.1706
 3909LEFLG Drug47001  20.432  16.326  17.942 -0.0607  0.1296 -0.3259
 3909LEFLG Drug47002  20.505  16.185  18.191 -0.4363 -0.0812 -0.3304
 3909LEFLG Drug47003  20.437  15.999  18.081  0.5128  0.4906  0.0527
 3910W        W47004   0.147   1.426  19.750  0.3248 -0.1704  0.1694
 3911W        W47005   0.739   1.514  18.719 -0.0085 -0.0999  0.1131
 3912W        W47006   2.310   2.205  17.082 -0.0633 -0.1142 -0.0594
 3913W        W47007   3.311   2.027  16.372 -0.2560 -0.0636  0.1729
 3914W        W47008   0.055  34.421  16.696  0.0996 -0.0925 -0.0824
 3915W        W47009   1.606   4.488  17.349  0.1085 -0.0945  0.0930
 3916W        W47010  33.857   1.002  18.040  0.2316 -0.0774  0.2552
 3917W        W47011   3.153   2.764  16.861  0.0653  0.0360 -0.0127
 3918W        W47012   4.534   4.130  18.769  0.2040  0.1955 -0.1143
 3919W        W47013   1.219   1.830  16.433  0.0234 -0.1491 -0.1373
 3920W        W47014  33.925   0.889  18.658  0.0253  0.2891  0.2302
 3921W        W47015   1.982   3.643  18.591 -0.0855  0.3153 -0.3142
 3922W        W47016   0.978   0.019  16.844  0.1149  0.1020 -0.0321
 3923W        W47017   1.141   0.411  18.797 -0.0354 -0.1672  0.3900
 3924W        W47018   2.493   2.649  18.052  0.1420 -0.2708  0.2147
 3925W        W47019   0.557   1.484  17.026  0.2609 -0.0512 -0.0275
 3926W        W47020   0.147   1.199  18.823  0.1407  0.2920  0.0159
 3927W        W47021   2.872   0.650  16.864 -0.2959 -0.0923  0.1422
 3928W        W47022   2.463   4.344  17.183  0.0418 -0.0952 -0.0709
 3929W        W47023   1.936   1.100  18.767 -0.0424 -0.1190 -0.0135
 3930W        W47024   2.292  34.523  18.601  0.2507  0.2466 -0.0648
 3931W        W47025   0.954   3.795  17.241 -0.4431  0.1169  0.2181
 3932W        W47026   0.573   2.330  16.268  0.2106  0.0135 -0.5485
 3933W        W47027   0.032   1.107  18.137  0.2756  0.1652 -0.0563
 3934W        W47028   1.553   1.448  20.129 -0.0642  0.1318  0.4792
 3935W        W47029   2.001   2.104  18.826 -0.0946  0.1503 -0.2403
 3936W        W47030   3.038   2.362  17.278 -0.2785  0.0911  0.0702
 3937W        W47031   2.505   4.233  18.914  0.0719  0.1737  0.0304
 3938W        W47032   1.878   3.141  17.279  0.0136 -0.2319  0.0012
 3939W        W47033   2.770   1.077  19.406  0.2673  0.3119  0.1057
 3940W        W47034  34.035   3.125  16.745 -0.0507  0.1533 -0.2268
 3941W        W47035  34.451   4.185  17.730 -0.1024 -0.0986  0.1187
 3942W        W47036   0.860   2.483  17.570  0.1865  0.1730 -0.4389
 3943W        W47037   3.830   3.288  16.378  0.4290 -0.3107  0.0882
 3944W        W47038   3.264   4.074  18.944  0.2792 -0.2587 -0.1378
 3945W        W47039   1.560   3.340  18.718 -0.1839  0.1976  0.2216
 3946W        W47040   0.183   3.397  16.857 -0.0060 -0.3736  0.1940
 3947W        W47041   1.904   4.130  18.224  0.2207 -0.2262  0.2256
 3948W        W47042   1.126   2.949  19.329 -0.3159  0.0095  0.3700
 3949W        W47043   1.099   2.292  17.153  0.3977  0.0005 -0.0810
 3950W        W47044   1.159   2.937  16.203  0.2436  0.0541 -0.0929
 3951W        W47045   1.170   3.070  16.714 -0.0681 -0.0016 -0.1475
 3952W        W47046   1.638   2.657  17.777  0.0233 -0.1901 -0.0116
 3953W        W47047   1.396   2.668  20.188  0.0585  0.0785  0.2234
 3954W        W47048  34.607   2.870  20.435  0.3225 -0.2312  0.1713
 3955W        W47049   2.880   1.350  18.962  0.0073 -0.0632  0.0926
 3956W        W47050   1.342   3.856  15.706 -0.1638  0.3974 -0.1764
 3957W        W47051   2.553   1.899  16.130  0.1307 -0.1773 -0.2698
 3958W        W47052   1.644   0.235  16.242  0.2888 -0.2072  0.1551
 3959W        W47053   2.064   0.381  17.057  0.1950 -0.1220 -0.1848
 3960W        W47054   2.418   0.713  17.474  0.1064  0.3617 -0.0538
 3961W        W47055   2.150   4.934  17.995  0.0037  0.0182  0.2148
 3962W        W47056   1.097   2.407  18.511  0.0212 -0.0610  0.0051
 3963W        W47057   2.010   2.768  19.583 -0.4558 -0.1565 -0.2030
 3964W        W47058   2.468   3.460  16.683 -0.0675  0.0000 -0.2227
 3965W        W47059   1.350   1.082  19.415 -0.2107  0.3073  0.0462
 3966W        W47060   0.246   3.230  18.682 -0.2095 -0.0060  0.0971
 3967W        W47061  34.217   1.128  19.625  0.1663  0.2931 -0.1016
 3968W        W47062   3.096   2.805  15.977 -0.2784  0.0839 -0.1739
 3969W        W47063   3.119   2.051  19.602 -0.0755 -0.1254  0.1033
 3970W        W47064   1.759   3.995  16.397  0.3755  0.1987 -0.0452
 3971W        W47065   0.718   1.058  16.889  0.1263  0.0076  0.1569
 3972W        W47066   0.239   2.723  19.448 -0.1255  0.0731  0.3352
 3973W        W47067   1.315   0.904  18.963 -0.1474  0.1977 -0.1928
 3974W        W47068   2.036   0.703  16.668  0.0039  0.0094 -0.1803
 3975W        W47069   2.052   3.472  19.989 -0.0119 -0.2342  0.0893
 3976W        W47070   0.525   2.289  19.800  0.0935 -0.2579 -0.1002
 3977W        W47071   3.556   1.490  17.861  0.4732 -0.2171  0.0880
 3978W        W47072   0.924   2.052  18.115 -0.0304 -0.0972  0.2445
 3979W        W47073   3.445   2.958  19.366  0.1348 -0.2221 -0.1853
 3980W        W47074   3.504   2.317  15.410  0.2209  0.0547 -0.1664
 3981W        W47075   3.435   0.099  17.783  0.1678 -0.0453  0.1284
 3982W        W47076   2.448   1.394  18.667  0.3181  0.0201  0.0343
 3983W        W47077   0.540   2.032  18.445  0.2579 -0.1551  0.0661
 3984W        W47078   0.900   2.749  17.056 -0.2197  0.1474 -0.0045
 3985W        W47079   3.717   2.721  19.041 -0.0796 -0.3423 -0.1239
 3986W        W47080   2.955   2.251  16.060 -0.1090 -0.3235  0.3026
 3987W        W47081   1.049   3.081  20.465 -0.0555 -0.1436 -0.0671
 3988W        W47082   1.429   1.596  19.518 -0.1922  0.3027  0.0371
 3989W        W47083   2.283   4.033  18.544  0.2415  0.0178  0.2371
 3990W        W47084  34.349   4.179  16.025  0.0296  0.1364 -0.1885
 3991W        W47085   0.547   1.625  18.149 -0.2320 -0.1468  0.1003
 3992W        W47086  34.441   3.482  17.585 -0.0620  0.0816  0.1216
 3993W        W47087  33.100   1.950  18.842 -0.2333 -0.1833 -0.0890
 3994W        W47088   0.423   3.068  18.249  0.1967  0.2337  0.1723
 3995W        W47089   2.965   1.146  16.926  0.0387  0.1846  0.1423
 3996W        W47090   1.581   0.030  19.846 -0.1020 -0.3059  0.1429
 3997W        W47091   3.885   0.304  17.479  0.0711 -0.0232 -0.0752
 3998W        W47092   1.173   1.916  17.537 -0.0256  0.1847 -0.2902
 3999W        W47093   2.927   3.635  17.235  0.1290  0.3806  0.0235
 4000W        W47094   2.255   2.593  16.680 -0.2192 -0.1906  0.2959
 4001W        W47095   3.280   2.526  16.377  0.2822 -0.1221  0.0401
 4002W        W47096   0.140   1.852  18.686  0.1099 -0.0131  0.2454
 4003W        W47097   0.525   1.152  18.467 -0.1559 -0.0298 -0.2998
 4004W        W47098   2.231   1.167  19.205  0.0792 -0.0018  0.0471
 4005W        W47099   1.033   0.261  17.280 -0.0342  0.1754 -0.2196
 4006W        W47100   1.994   2.174  19.485 -0.1442  0.0473  0.0479
 4007W        W47101   1.481  32.588  18.906 -0.5097  0.2888  0.1427
 4008W        W47102   4.871   2.437  16.123 -0.4332 -0.0050 -0.0702
 4009W        W47103   0.706   1.910  17.264  0.0334 -0.2631 -0.0012
 4010W        W47104   0.959   1.595  17.889 -0.3117 -0.0275  0.1559
 4011W        W47105   4.318  34.636  19.234  0.0255  0.0557 -0.0257
 4012W        W47106   1.993   4.160  17.159  0.0130 -0.5040 -0.3182
 4013W        W47107   3.650   3.460  18.530  0.0950  0.1745  0.2685
 4014W        W47108   2.214   4.563  17.588  0.2009 -0.1256 -0.3569
 4015W        W47109   0.841   1.522  19.466  0.1983 -0.0070  0.1621
 4016W        W47110   1.316  33.713  16.743 -0.2923  0.1516 -0.1113
 4017W        W47111   1.054   3.761  18.257  0.0136  0.1108  0.0112
 4018W        W47112   2.007   2.835  18.257  0.1645 -0.0563  0.1121
 4019W        W47113   2.231   2.104  18.339  0.0190 -0.0811  0.0952
 4020W        W47114   3.107   2.979  17.801 -0.1819 -0.0105  0.2859
 4021W        W47115   1.544   1.554  17.710  0.2515 -0.1522  0.1649
 4022W        W47116   0.309   3.138  19.253  0.0637  0.1759  0.2029
 4023W        W47117   2.304   1.064  18.303 -0.1293  0.2079 -0.2392
 4024W        W47118   2.975   2.275  18.792 -0.1365 -0.2078  0.0819
 4025W        W47119   2.877   1.971  17.583  0.2484  0.0089 -0.1439
 4026W        W47120   0.498   0.121  16.572  0.1686  0.0192 -0.0622
 4027W        W47121   1.878   4.165  17.613 -0.4263 -0.1143 -0.0216
 4028W        W47122   0.619   3.235  15.563  0.0812 -0.1429  0.3829
 4029W        W47123  34.543   2.828  17.468 -0.2127  0.1016  0.0134
 4030W        W47124   1.478   2.238  17.467 -0.1084  0.0072 -0.0734
 4031W        W47125   1.516   1.792  18.715  0.1875 -0.0782  0.0923
 4032W        W47126   1.158   1.164  19.883  0.2041 -0.0483  0.0569
 4033W        W47127   3.555   2.207  18.909  0.0268 -0.1193 -0.0604
 4034W        W47128   0.939   1.460  16.646 -0.0112 -0.0219 -0.0181
 4035W        W47129   1.740   3.519  19.182 -0.3252  0.1686 -0.0348
 4036W        W47130   2.508   2.287  17.602  0.2658  0.4497  0.1748
 4037W        W47131   1.561   0.685  16.467  0.0305  0.1245  0.3495
 4038W        W47132   3.520   1.944  20.394  0.0743  0.0369  0.0314
 4039W        W47133   3.381   2.534  18.588 -0.2109 -0.0671  0.1551
 4040W        W47134   1.742   0.538  15.674 -0.0115 -0.4912 -0.1536
 4041W        W47135   1.552   0.808  16.935 -0.2471  0.2772  0.1110
 4042W        W47136  33.629   3.040  18.598  0.0631 -0.1469 -0.1965
 4043W        W47137   1.744   2.554  16.713 -0.1182 -0.3576 -0.2454
 4044W        W47138   0.716   2.691  18.027 -0.0344 -0.2534 -0.1972
 4045W        W47139   2.217   1.304  16.041 -0.1602  0.1962 -0.2690
 4046W        W47140   3.219   4.605  17.794 -0.0013 -0.2468  0.0047
 4047W        W47141  33.914   2.533  19.264 -0.2202  0.2361 -0.0074
 4048W        W47142   1.518   2.948  19.764  0.0899 -0.2878  0.0578
 4049W        W47143   1.665   3.618  17.825  0.0333  0.3433 -0.0241
 4050W        W47144   1.797   1.790  18.225  0.0769 -0.3092 -0.0482
 4051W        W47145   1.145   0.988  16.660  0.0172 -0.5334  0.2388
 4052W        W47146   3.068   1.141  17.709  0.1987 -0.1089  0.2453
 4053W        W47147   0.193   4.718  16.195 -0.1105  0.3413 -0.2724
 4054W        W47148   2.787   2.334  19.260 -0.2565 -0.4412 -0.1124
 4055W        W47149   2.109   1.643  16.988  0.0299  0.1626  0.0235
 4056W        W47150   1.579   0.926  20.123 -0.0377 -0.1344  0.2317
 4057W        W47151   3.169   2.518  20.997  0.1950  0.1859  0.1512
 4058W        W47152   2.091   1.741  16.319 -0.2325 -0.1138  0.3994
 4059W        W47153   2.043   1.460  17.465 -0.1332 -0.1961  0.0676
 4060W        W47154   1.091   2.304  16.268  0.3762 -0.0538  0.0009
 4061W        W47155   2.881   0.366  20.166 -0.1622 -0.1691  0.0183
 4062W        W47156   1.407   0.843  18.417 -0.1393  0.1674 -0.0694
 4063W        W47157   1.041   3.606  18.796 -0.0035  0.0348 -0.0812
 4064W        W47158   2.793   2.473  19.732 -0.0840 -0.0228  0.2684
 4065W        W47159   1.818   2.617  17.294 -0.0901 -0.0484  0.3851
 4066W        W47160   2.512  34.033  20.177 -0.0982 -0.1574  0.4026
 4067W        W47161   2.141   1.759  15.787  0.1789  0.0822  0.0347
 4068W        W47162   0.749   3.950  16.348  0.1368 -0.0126  0.2458
 4069W        W47163   0.543   3.123  16.504 -0.2856 -0.2387 -0.3081
 4070W        W47164   2.836   0.336  18.616  0.1172 -0.0040  0.1909
 4071W        W47165   2.038   3.272  17.819 -0.4855  0.1667 -0.1486
 4072W        W47166   2.804   2.729  16.443  0.2603  0.0856 -0.2951
 4073W        W47167   2.883   2.843  19.338 -0.1368 -0.0703  0.0209
 4074W        W47168   1.393   3.949  17.494  0.1477 -0.0802 -0.2080
 4075W        W47169   3.349   0.428  18.967  0.2087  0.1946  0.3470
 4076W        W47170  34.373   1.017  18.840 -0.1098 -0.0033  0.0838
 4077W        W47171   1.308   0.496  15.930 -0.1473  0.0018  0.1778
 4078W        W47172  33.020   1.998  17.193 -0.0576  0.1006  0.1897
 4079W        W47173   4.127   0.786  17.682 -0.0348  0.0628  0.0238
 4080W        W47174   2.966   3.535  16.645  0.1465 -0.2210  0.1322
 4081W        W47175   1.156   0.482  20.423 -0.2393 -0.0114  0.3068
 4082W        W47176   1.206   2.456  17.887  0.1011 -0.0384  0.1098
 4083W        W47177   1.534   3.748  18.367  0.1388  0.1083  0.0629
 4084W        W47178   2.196   1.902  17.814  0.0180 -0.2573 -0.1278
 4085W        W47179   3.172   1.233  16.310 -0.1299 -0.3954  0.0607
 4086W        W47180   2.562   1.964  18.716 -0.1366  0.1481 -0.1494
 4087W        W47181   2.332   3.192  19.670 -0.2761  0.0664 -0.3013
 4088W        W47182   1.016   0.848  16.186  0.0752  0.0574 -0.0170
 4089W        W47183   2.328   1.145  19.753  0.0249  0.3049  0.0289
 4090W        W47184   2.503   1.433  17.787 -0.0667  0.3186 -0.1719
 4091W        W47185   1.125   3.654  16.803  0.1259 -0.0248  0.0029
 4092W        W47186   1.451   2.118  19.707  0.0455  0.6504  0.3185
 4093W        W47187   0.606  34.035  16.398  0.0844  0.1561  0.2691
 4094W        W47188   0.597   2.977  15.988  0.1543 -0.1468  0.0485
 4095W        W47189   0.453   2.516  18.534  0.1805 -0.2715 -0.2065
 4096W        W47190   2.418   2.596  19.462  0.0010  0.1074 -0.0526
 4097W        W47191   1.479   2.870  17.010 -0.0706  0.1576 -0.1241
 4098W        W47192   1.411   1.105  17.437  0.0794  0.0421  0.2603
 4099W        W47193   1.763   2.864  18.719 -0.1268 -0.0411  0.4519
 4100W        W47194   1.535   2.293  18.880  0.3372 -0.1092 -0.0697
 4101W        W47195   0.753   1.846  19.133 -0.1147  0.1013  0.1622
 4102W        W47196   0.640   3.563  21.218 -0.2283 -0.3605  0.0312
 4103W        W47197   2.228   0.636  18.633  0.0442  0.0419  0.1877
 4104W        W47198   3.618   4.598  17.252  0.0826  0.1619 -0.1819
 4105W        W47199   2.962   1.837  19.142  0.1072 -0.0068  0.1732
 4106W        W47200  34.650   2.855  18.985  0.3518  0.0471  0.2088
 4107W        W47201  33.587   1.864  17.575  0.1806 -0.2007  0.1553
 4108W        W47202   1.312   1.737  18.235 -0.0119  0.1685 -0.0725
 4109W        W47203   1.565   1.303  18.426 -0.1589 -0.0585  0.1856
 4110W        W47204   0.899   3.225  17.995  0.0895  0.1398 -0.0762
 4111W        W47205   0.681   3.215  16.960 -0.2779 -0.1561  0.2786
 4112W        W47206  34.449   2.348  17.891  0.0395  0.0475  0.0371
 4113W        W47207   3.768   1.035  17.027 -0.2358  0.0173  0.0540
 4114W        W47208   1.962   2.162  16.084  0.1918 -0.2298  0.0614
 4115W        W47209   1.672   1.727  17.205 -0.1614 -0.3523  0.1776
 4116W        W47210   4.194   0.876  18.798 -0.3451  0.1372  0.3072
 4117W        W47211   3.136   2.076  15.603  0.0129  0.2467 -0.0482
 4118W        W47212   3.586  34.132  20.031 -0.1400 -0.0202  0.4055
 4119W        W47213   2.125  34.348  20.192 -0.2553  0.0520  0.0259
 4120W        W47214   3.438   3.336  17.956  0.3379 -0.0527  0.1561
 4121W        W47215  34.241   1.560  18.933  0.0530 -0.2151 -0.0730
 4122W        W47216   2.917   3.094  21.692  0.0363 -0.1256 -0.3896
 4123W        W47217  34.173   1.928  20.981 -0.0984  0.2670  0.2291
 4124W        W47218   2.480   0.773  16.254 -0.1090 -0.1089  0.3739
 4125W        W47219   3.747  34.214  17.023 -0.0457  0.2300 -0.2555
 4126W        W47220   0.750   2.388  19.372 -0.1645  0.1249 -0.1518
 4127W        W47221   2.606   2.995  18.393 -0.1353 -0.1102  0.0652
 4128W        W47222   0.128   3.296  16.176  0.0952  0.1574  0.1280
 4129W        W47223   2.410   1.780  17.356  0.0244  0.0742  0.1305
 4130W        W47224   0.147   2.377  18.876 -0.2878 -0.0708  0.0988
 4131W        W47225   2.025   2.106  16.678 -0.0066  0.3057 -0.4175
 4132W        W47226   1.132   3.237  17.184  0.3018  0.2548 -0.1832
 4133W        W47227   1.255   2.503  16.701 -0.1535  0.1403  0.0094
 4134W        W47228   1.503  33.860  20.394  0.0661 -0.1275  0.1375
 4135W        W47229   1.551   3.468  17.373  0.1898  0.0568 -0.0031
 4136W        W47230   2.094   1.262  16.600 -0.1136 -0.0916 -0.2721
 4137W        W47231   1.967   1.583  18.861 -0.2876  0.0258  0.0029
 4138W        W47232   1.762   2.281  18.420  0.1931 -0.0815 -0.0155
 4139W        W47233   0.618   2.724  19.035  0.3891 -0.1433  0.1131
 4140W        W47234   0.880   1.134  19.147  0.0354  0.2896  0.1602
 4141W        W47235   3.100   3.553  18.756 -0.1218  0.0433 -0.2086
 4142W        W47236   3.541   1.629  16.242 -0.0145 -0.0913 -0.1979
 4143W        W47237   3.436   1.567  19.129 -0.1228 -0.1185  0.0285
 4144W        W47238   4.140   2.166  16.668 -0.2854  0.0117  0.0430
 4145W        W47239   1.500   0.919  15.967  0.0457  0.0155  0.1284
 4146W        W47240   1.986   1.403  18.033  0.0058 -0.0445  0.1032
 4147W        W47241   4.054  34.225  20.119 -0.1478  0.1744  0.1565
 4148W        W47242   1.033   1.113  17.730  0.0202 -0.0811 -0.2509
 4149W        W47243   2.477   0.692  19.452  0.1858  0.0379  0.1524
 4150W        W47244   1.866   4.535  16.408 -0.0764  0.3904  0.3420
 4151W        W47245   1.590   3.381  16.856  0.0571  0.1278 -0.2272
 4152W        W47246   1.503   0.128  15.685  0.0031  0.0024 -0.3880
 4153W        W47247   0.801  34.399  17.265  0.2457  0.4000  0.5184
 4154W        W47248   0.621   1.885  20.119  0.1946  0.3264  0.1451
 4155W        W47249   2.104   0.529  17.801 -0.2027  0.3503 -0.1439
 4156W        W47250   2.038   2.626  16.265 -0.0137 -0.0807 -0.1225
 4157W        W47251   2.294   3.377  18.247  0.0094  0.4172 -0.0049
 4158W        W47252   2.522   1.314  21.014 -0.0246 -0.0119 -0.0348
 4159W        W47253   2.717  34.258  16.595  0.1010 -0.0476 -0.2253
 4160W        W47254   3.290  34.369  20.351  0.1933 -0.1759  0.2327
 4161W        W47255  34.055   4.274  16.604  0.0531 -0.0646  0.0749
 4162W        W47256   2.921   0.004  18.959 -0.1602  0.2941 -0.0208
 4163W        W47257   1.429   3.141  17.825  0.0865  0.1291 -0.1864
 4164W        W47258   0.064   2.336  20.091 -0.1486  0.1201 -0.0688
 4165W        W47259   1.654   2.974  19.309  0.1815 -0.1555  0.1396
 4166W        W47260   1.605   1.058  17.916 -0.0033 -0.0246 -0.3192
 4167W        W47261   2.758   3.216  17.402  0.3031  0.0967 -0.1230
 4168W        W47262   3.054   2.708  18.301 -0.0397 -0.1030  0.2339
 4169W        W47263   3.845   1.720  20.065  0.2072 -0.1619 -0.0454
 4170W        W47264   1.189   2.088  19.212  0.1524  0.1838  0.1453
 4171W        W47265   0.610   1.220  17.919 -0.3216 -0.2233 -0.1971
 4172W        W47266   3.891   2.283  20.186  0.0125 -0.3116 -0.4056
 4173W        W47267   3.801   2.109  17.120 -0.2253  0.2246  0.0003
 4174W        W47268   0.109   1.975  17.726  0.0962  0.1335  0.1539
 4175W        W47269   1.241   0.986  20.486  0.2921 -0.3989  0.0595
 4176W        W47270   1.650   1.353  19.130  0.1093  0.1349 -0.1810
 4177W        W47271   2.946   3.366  18.279  0.3738  0.2596 -0.2098
 4178W        W47272   1.649   1.660  16.706 -0.1457  0.0403  0.0718
 4179W        W47273   2.311   2.987  16.387  0.0648  0.2532  0.1266
 4180W        W47274  34.388   3.990  19.792 -0.0265 -0.2000 -0.0398
 4181W        W47275  33.898   2.000  18.938  0.0588  0.0335 -0.2639
 4182W        W47276  34.461   4.663  17.565  0.0304  0.0924  0.1048
 4183W        W47277   3.194   3.287  16.978 -0.0722 -0.3033  0.0091
 4184W        W47278   2.326   2.809  17.141  0.0244 -0.0433 -0.1941
 4185W        W47279   1.737   3.263  18.243 -0.3061 -0.0690 -0.1785
 4186W        W47280  34.643  34.604  18.014 -0.3331 -0.0671  0.1542
 4187W        W47281   0.060   3.662  17.229  0.0169  0.2081  0.0316
 4188W        W47282  34.294   2.539  15.606  0.0119  0.0185 -0.3400
 4189W        W47283   3.389   4.249  17.559  0.0251  0.2802  0.0349
 4190W        W47284  34.455   3.003  17.929 -0.1025  0.0396  0.0257
 4191W        W47285   2.478   2.127  20.370 -0.2738 -0.3487  0.3244
 4192W        W47286   3.587   1.323  15.846 -0.1414  0.0686  0.0111
 4193W        W47287   2.726   2.366  18.392 -0.2437  0.2080  0.0606
 4194W        W47288   2.463   1.885  16.630 -0.1750 -0.1469 -0.2092
 4195W        W47289   3.764   3.967  19.343 -0.3635 -0.0589  0.0484
 4196W        W47290   1.202   1.806  16.996  0.1481  0.0483 -0.3504
 4197W        W47291   3.195   0.753  18.090  0.1449 -0.0508  0.1898
 4198W        W47292   2.159   2.773  17.608 -0.0033  0.0240  0.1756
 4199W        W47293   4.764   0.420  18.529 -0.0657 -0.2284  0.1708
 4200W        W47294  33.750   5.086  18.275  0.0812  0.1309  0.0938
 4201W        W47295   2.286   3.767  16.328 -0.1675 -0.0147 -0.3873
 4202W        W47296   1.697  33.833  17.457  0.1167  0.1012 -0.3331
 4203W        W47297   1.942   2.033  17.437 -0.1573 -0.0772 -0.0759
 4204W        W47298   3.440   1.687  18.309 -0.1830  0.1986  0.2091
 4205W        W47299   0.444   2.630  16.772  0.3811 -0.0378 -0.3181
 4206W        W47300   2.056   2.380  17.915 -0.1134 -0.0115 -0.0840
 4207W        W47301   0.741   4.138  16.882 -0.0689 -0.3372  0.3988
 4208W        W47302   0.930   4.306  18.081 -0.1081 -0.1182 -0.1404
 4209W        W47303   1.401   4.807  19.969  0.3568  0.5262 -0.2349
 4210W        W47304   1.315  34.599  16.102  0.3351 -0.0020  0.3589
 4211W        W47305   3.472   0.878  17.502  0.2388  0.0952 -0.0079
 4212W        W47306   0.614   0.426  18.605  0.1169  0.0762  0.1926
 4213W        W47307   3.246   1.252  18.191  0.0974 -0.0507 -0.1583
 4214W        W47308   0.292   2.286  18.102  0.0044  0.0044  0.0452
 4215W        W47309   3.019   1.574  17.918 -0.0418 -0.0069 -0.3254
 4216W        W47310   2.157   3.166  18.673 -0.0658 -0.1593  0.3797
 4217W        W47311  34.425   2.551  19.472 -0.2789 -0.2091  0.3701
 4218W        W47312   1.952   0.199  16.625  0.1815  0.4536  0.1290
 4219W        W47313   3.598   2.692  20.238  0.0415  0.2691 -0.1082
 4220W        W47314   1.192   1.323  17.024  0.0123 -0.2061  0.1509
 4221W        W47315   3.580   3.822  19.888 -0.2997  0.0741  0.2572
 4222W        W47316   2.618   1.535  16.982  0.1516  0.0392 -0.2946
 4223W        W47317   1.608   1.185  16.586 -0.3901  0.1538  0.2928
 4224W        W47318  34.300   1.310  17.938 -0.1554  0.2630  0.2304
 4225W        W47319   1.503   2.702  18.286  0.1008 -0.0165  0.1459
 4226W        W47320   3.295   3.499  20.135 -0.0498  0.5708 -0.0147
 4227W        W47321   0.776   0.794  18.293  0.1593 -0.0373  0.2374
 4228W        W47322   3.069   3.365  15.877  0.4797 -0.0685 -0.1769
 4229W        W47323   4.079   2.364  19.207  0.2289  0.0797 -0.0228
 4230W        W47324   1.536   4.769  15.988 -0.1133  0.0903 -0.0071
 4231W        W47325   3.641   2.770  16.128 -0.1594 -0.1601 -0.2019
 4232W        W47326   2.645   3.089  17.913  0.1522 -0.1467 -0.1540
 4233W        W47327   1.275   0.078  19.466  0.1983 -0.0860  0.2773
 4234W        W47328   2.326   2.505  18.643 -0.1850 -0.2653  0.1428
 4235W        W47329   3.173   3.655  19.302  0.2831  0.1123  0.1447
 4236W        W47330   2.986   0.050  18.006  0.1155  0.2647  0.1943
 4237W        W47331   1.469   2.048  17.915 -0.2895 -0.1511 -0.3423
 4238W        W47332   0.119   3.246  15.624  0.2517  0.0177  0.1605
 4239W        W47333   2.412   1.640  18.237 -0.1636  0.0880  0.1515
 4240W        W47334   2.888   0.639  19.782 -0.1972 -0.1587  0.2998
 4241W        W47335   1.860   3.109  15.982  0.0505  0.3049  0.0112
 4242W        W47336   1.594  34.305  20.161  0.2658 -0.0604  0.0444
 4243W        W47337   1.103   3.217  19.907 -0.1899  0.0177 -0.3382
 4244W        W47338   0.698   5.098  19.826 -0.1690 -0.1534  0.2933
 4245W        W47339   0.539   2.391  17.196  0.1265 -0.1770 -0.1309
 4246W        W47340   1.345   3.373  19.373 -0.1599 -0.1371 -0.0145
 4247W        W47341   1.261   2.756  17.415 -0.0339 -0.1194 -0.3095
 4248W        W47342   2.002   3.686  17.375 -0.0869 -0.0976  0.2843
 4249W        W47343   3.331   3.102  18.390 -0.2778 -0.2222 -0.3057
 4250W        W47344   1.584   2.159  16.990 -0.1336  0.1517 -0.1879
 4251W        W47345   2.773   3.223  18.953  0.3450 -0.0916 -0.2140
 4252W        W47346   2.882   0.440  16.396  0.3570 -0.0272  0.2476
 4253W        W47347   4.729   0.927  16.564 -0.1047 -0.0896  0.0440
 4254W        W47348   3.039   1.652  16.700 -0.0084  0.4409  0.1339
 4255W        W47349   0.840   2.852  18.545  0.0288 -0.2187  0.0173
 4256W        W47350  33.893   1.724  16.441  0.0394 -0.0448 -0.1898
 4257W        W47351   1.416   3.420  16.355 -0.0877  0.1714 -0.0338
 4258W        W47352   0.545   3.680  18.773 -0.1122 -0.0938 -0.1102
 4259W        W47353   0.323   0.046  19.356  0.0940  0.1314  0.0778
 4260W        W47354   1.198   1.591  19.072  0.0921  0.0594  0.2183
 4261W        W47355   0.125   1.524  17.942 -0.1833  0.0260  0.0319
 4262W        W47356   0.055   0.634  18.932 -0.1467  0.1456 -0.1941
 4263W        W47357   3.026   4.536  15.891 -0.1430 -0.0861 -0.2310
 4264W        W47358   1.065   0.583  19.267  0.1241  0.4007  0.2861
 4265W        W47359   1.837  34.614  17.049 -0.0413  0.1352 -0.0345
 4266W        W47360   2.642   3.984  16.631  0.4791  0.1240  0.0844
 4267W        W47361   3.846   3.648  16.746  0.2652 -0.3526  0.0794
 4268W        W47362   1.585   2.151  16.455  0.1530 -0.0327  0.0599
 4269W        W47363   3.707   2.492  21.213  0.1381 -0.1916 -0.1803
 4270W        W47364   0.841   2.710  16.512 -0.3252 -0.1646 -0.2564
 4271W        W47365   2.050   0.784  19.966 -0.1720 -0.0312  0.1789
 4272W        W47366   2.856   0.321  19.412  0.4228  0.0927 -0.1603
 4273W        W47367   0.476   1.946  16.802 -0.0114  0.1823 -0.3666
 4274W        W47368   3.146  33.906  18.059  0.0994  0.0146 -0.1357
 4275W        W47369   2.487   4.337  17.981  0.0018  0.2060  0.1527
 4276W        W47370   3.212   3.047  16.430  0.0237  0.0247  0.2998
 4277W        W47371   1.192   3.171  18.405 -0.0310 -0.1723  0.2011
 4278W        W47372   0.143   3.116  20.779 -0.2289  0.0983  0.0653
 4279W        W47373   0.729  33.162  18.589 -0.1679 -0.1566  0.3178
 4280W        W47374   2.678   3.010  16.853  0.0550  0.1689 -0.0899
 4281W        W47375   1.624   1.488  21.127 -0.1912  0.2226  0.3195
 4282W        W47376   3.486   4.215  16.881  0.0244  0.4281 -0.0204
 4283W        W47377   4.918   0.987  19.405 -0.2577  0.0638 -0.1172
 4284W        W47378   2.560   1.408  16.344  0.2204  0.2424 -0.0746
 4285W        W47379   0.506  33.832  20.163 -0.2881  0.2823  0.0527
 4286W        W47380  34.635   3.467  19.001  0.1637 -0.1437 -0.0298
 4287W        W47381   2.502   2.067  19.576 -0.2517  0.0880 -0.1890
 4288W        W47382   2.863  34.554  17.394 -0.2692  0.1014 -0.1027
 4289W        W47383   2.550   1.013  16.684  0.0855  0.0047  0.2564
 4290W        W47384   1.992   3.070  16.785  0.3953 -0.2425 -0.0573
 4291W        W47385   0.351   1.537  17.510  0.1869 -0.0888  0.0192
 4292W        W47386   2.092   0.230  18.323  0.4406  0.0080 -0.2069
 4293W        W47387   1.824   1.258  19.650 -0.0292  0.1609  0.1615
 4294W        W47388   2.309   3.306  17.125 -0.2128 -0.0611  0.0870
 4295W        W47389   2.278   3.351  19.153  0.0274 -0.0430  0.0826
 4296W        W47390   0.839   2.261  16.741 -0.0474  0.3247  0.0353
 4297W        W47391   2.707   2.527  16.913  0.0988  0.1690 -0.1109
 4298W        W47392   0.828   3.185  18.963 -0.7095  0.0809  0.0218
 4299W        W47393   4.413   4.377  20.482  0.1656  0.1137  0.1613
 4300W        W47394   2.985   4.290  18.090  0.1012 -0.0983 -0.1470
 4301W        W47395   2.813   1.985  19.985 -0.1137  0.2253 -0.2002
 4302W        W47396   0.641   1.028  17.424 -0.0559  0.0193 -0.1566
 4303W        W47397   0.605   1.961  17.769  0.1596  0.0360  0.1892
 4304W        W47398  34.608   2.925  18.383 -0.1391 -0.1688  0.2651
 4305W        W47399   2.571   1.169  17.304  0.2042  0.1145  0.0604
 4306W        W47400   1.091   1.179  18.246  0.3892 -0.1755  0.2109
 4307W        W47401   2.461  33.847  17.940 -0.2070  0.0718  0.0928
 4308W        W47402   1.785   4.520  19.718  0.1667 -0.2655 -0.0656
 4309W        W47403   2.295   4.254  16.279  0.2851 -0.3752 -0.1681
 4310W        W47404   0.652   2.626  22.968  0.3561 -0.1819 -0.2002
 4311W        W47405   0.451   1.296  21.298 -0.1075 -0.0736 -0.0501
 4312W        W47406   2.590  34.631  19.938  0.0135 -0.1072 -0.2343
 4313W        W47407   3.050   0.726  21.781 -0.2044 -0.2989 -0.0531
 4314W        W47408  34.376   0.716  21.816 -0.2914 -0.2397 -0.0708
 4315W        W47409   3.001   4.367  22.061 -0.0173 -0.1618  0.3998
 4316W        W47410   1.052  33.864  23.783 -0.0879  0.0397  0.1079
 4317W        W47411   2.660   2.647  20.390  0.0509 -0.1546 -0.0245
 4318W        W47412   2.849   2.573  22.259  0.2227  0.0877  0.0386
 4319W        W47413   3.141   1.375  19.554  0.1164 -0.0853  0.0168
 4320W        W47414   2.346   1.018  22.590  0.2805  0.2283 -0.0484
 4321W        W47415   1.148   2.709  22.748  0.1451  0.0631  0.1468
 4322W        W47416   1.585   0.516  20.685 -0.3027 -0.1633 -0.1761
 4323W        W47417   0.548  34.368  23.012  0.1949 -0.1308  0.0261
 4324W        W47418   2.155  34.655  22.377 -0.0238 -0.4616 -0.0254
 4325W        W47419   0.169   2.654  21.046 -0.1903 -0.2253  0.1218
 4326W        W47420   0.793   0.775  22.027  0.0310 -0.0038 -0.0210
 4327W        W47421   1.806   0.200  20.953 -0.1960 -0.0263 -0.0240
 4328W        W47422   1.721   4.594  21.033  0.4797 -0.1703 -0.1157
 4329W        W47423   2.729   1.397  22.983  0.2288 -0.1724  0.0582
 4330W        W47424   3.201   0.177  23.245  0.0860  0.0118 -0.2385
 4331W        W47425   2.444   2.185  20.895 -0.2942 -0.0304  0.0905
 4332W        W47426   0.782   1.731  21.096  0.1999 -0.0906  0.0098
 4333W        W47427  34.175   1.584  21.740  0.1867  0.2664  0.1861
 4334W        W47428   0.757   2.118  21.409  0.0534  0.0036  0.3903
 4335W        W47429   2.556  34.430  21.760  0.1389  0.1117 -0.3427
 4336W        W47430   2.162   1.299  22.169  0.0242  0.1086  0.0756
 4337W        W47431   2.107   3.361  21.247 -0.1014 -0.0111  0.1906
 4338W        W47432   1.050   2.253  21.845  0.1971 -0.3278  0.1614
 4339W        W47433   3.035   0.497  22.231 -0.3104  0.0951 -0.1529
 4340W        W47434   0.724   2.621  22.426  0.0205 -0.2032 -0.0933
 4341W        W47435  34.691   3.245  21.769 -0.2367  0.0769 -0.2680
 4342W        W47436   2.378   3.562  20.336 -0.1898 -0.1562 -0.1126
 4343W        W47437   3.754   3.274  21.833 -0.2298 -0.1324  0.0104
 4344W        W47438   3.585   3.599  22.768 -0.3657 -0.4281 -0.1344
 4345W        W47439   2.011   2.251  22.935 -0.0219  0.1704  0.4226
 4346W        W47440   0.716   2.310  20.421  0.0841  0.0714 -0.0716
 4347W        W47441   0.678   2.767  23.449  0.2439 -0.0445  0.0775
 4348W        W47442   0.136   3.261  23.515 -0.0881  0.3257  0.1649
 4349W        W47443   1.524   1.492  22.346 -0.2206  0.5069  0.2688
 4350W        W47444   2.924   0.800  21.055 -0.3492 -0.2796 -0.0584
 4351W        W47445   0.990   4.382  19.293  0.0829 -0.1017  0.2316
 4352W        W47446   1.770   0.879  21.439 -0.1091 -0.0826  0.2420
 4353W        W47447   0.607   1.753  23.444 -0.2430 -0.3956  0.2713
 4354W        W47448  34.255   3.164  21.965 -0.0469  0.0247  0.0764
 4355W        W47449   3.780   1.687  22.131 -0.1210 -0.3020  0.1044
 4356W        W47450   0.638   3.127  20.133 -0.3413  0.0770  0.2455
 4357W        W47451   2.411   1.674  19.125 -0.0906 -0.1208  0.0587
 4358W        W47452   0.666   0.958  20.606 -0.1315 -0.0546  0.2459
 4359W        W47453   3.035   2.236  21.915 -0.1522 -0.0405 -0.0782
 4360W        W47454   1.502   0.461  21.269 -0.2707  0.1624  0.1096
 4361W        W47455   1.635   2.087  21.091  0.1208 -0.2628  0.3421
 4362W        W47456   2.333   1.666  23.683  0.2425 -0.1659  0.2127
 4363W        W47457   3.108   2.198  22.665  0.1259 -0.0555 -0.0096
 4364W        W47458   2.543   0.413  20.544 -0.0146 -0.1078  0.1202
 4365W        W47459   2.343   0.009  21.388  0.0239 -0.0617 -0.1387
 4366W        W47460   1.665   1.951  22.527 -0.2133 -0.1114 -0.2307
 4367W        W47461   1.179   0.683  21.585  0.2516 -0.1247  0.1213
 4368W        W47462   3.591   2.881  20.844 -0.0288 -0.0364 -0.0453
 4369W        W47463   3.268   3.525  21.208 -0.1176  0.4281  0.0418
 4370W        W47464   2.705   3.478  19.390  0.0433  0.0783 -0.0260
 4371W        W47465   0.808   1.083  21.075 -0.1344  0.0274  0.0595
 4372W        W47466   0.023   0.909  22.231  0.0578  0.4368 -0.1010
 4373W        W47467  34.554   0.476  22.435  0.0199  0.0190 -0.1753
 4374W        W47468   1.276  34.670  20.235 -0.0720  0.2785 -0.0502
 4375W        W47469   3.067   2.897  23.322 -0.0033 -0.0201 -0.0763
 4376W        W47470   0.950   1.378  23.521  0.0553 -0.2820  0.1020
 4377W        W47471   1.246   0.147  20.823  0.1136  0.1878 -0.0037
 4378W        W47472   0.811   1.878  20.608  0.0080 -0.0380 -0.0627
 4379W        W47473   2.847   3.084  22.344  0.2268  0.0016  0.2088
 4380W        W47474   4.010   1.617  19.250 -0.0289  0.0374 -0.2196
 4381W        W47475   2.899  34.246  22.076  0.1020  0.1442  0.1656
 4382W        W47476   3.668  34.145  22.922 -0.0485  0.0489  0.1221
 4383W        W47477   1.616   0.700  21.859 -0.3609  0.2169 -0.1376
 4384W        W47478   1.100   1.354  20.783 -0.2651 -0.3358  0.0884
 4385W        W47479   3.254   3.344  22.017 -0.1679 -0.0751 -0.1756
 4386W        W47480   2.998   1.738  20.377 -0.2970 -0.0296 -0.1003
 4387W        W47481  34.173   2.446  23.049  0.0287 -0.0133  0.1717
 4388W        W47482   0.620   0.687  22.817 -0.3223 -0.2212 -0.3630
 4389W        W47483   1.808   3.463  23.715  0.1452  0.2443  0.3174
 4390W        W47484   1.188   1.717  19.951  0.1052 -0.0552  0.0227
 4391W        W47485  34.432   2.881  22.538 -0.1153  0.0474 -0.2777
 4392W        W47486   1.188   2.529  19.741 -0.4728 -0.2145  0.1642
 4393W        W47487   1.895   0.873  23.327  0.2435 -0.2263  0.1134
 4394W        W47488   0.142   3.190  21.310 -0.1024  0.0161 -0.1058
 4395W        W47489   4.257   0.579  20.928 -0.1432 -0.0983 -0.1572
 4396W        W47490   0.128  34.533  23.233  0.0325  0.1669 -0.0799
 4397W        W47491   4.122  33.928  22.750 -0.0985 -0.4323 -0.3104
 4398W        W47492   0.361   2.224  23.024  0.2185 -0.0076  0.3210
 4399W        W47493   3.850   3.992  22.408  0.0142  0.1018  0.4030
 4400W        W47494   3.066   1.434  20.778  0.1321  0.0989  0.0174
 4401W        W47495   3.452   2.190  19.970 -0.4710 -0.0057  0.0561
 4402W        W47496   1.028   1.185  22.668 -0.1801  0.0554  0.0028
 4403W        W47497   1.397  34.202  22.275  0.2468 -0.0215  0.0963
 4404W        W47498   1.124   1.170  24.091 -0.2420 -0.1925  0.0942
 4405W        W47499   0.323   0.543  21.936 -0.0860  0.2355 -0.2695
 4406W        W47500   2.677   2.081  23.698 -0.2575 -0.1463 -0.1392
 4407W        W47501   0.820   0.910  19.621  0.0112 -0.0399 -0.1910
 4408W        W47502   3.550   0.692  21.785  0.1251 -0.1856 -0.0078
 4409W        W47503   1.570   1.073  20.875 -0.2386 -0.2575 -0.1089
 4410W        W47504   0.061   3.101  22.216 -0.0727  0.2996  0.1702
 4411W        W47505   4.328   0.939  23.547 -0.0266 -0.0242  0.0137
 4412W        W47506   0.567   3.031  21.118 -0.0763 -0.0852 -0.3509
 4413W        W47507   2.754   3.533  22.096  0.1421 -0.2176  0.2046
 4414W        W47508   3.777   3.404  21.362  0.0522 -0.0096 -0.2328
 4415W        W47509   1.424   0.047  22.793  0.2673  0.0812 -0.1337
 4416W        W47510   0.116   0.875  21.440  0.0201 -0.0620  0.0245
 4417W        W47511   1.113   2.889  22.238 -0.0285  0.3009 -0.0545
 4418W        W47512   1.678   1.867  21.517 -0.1464 -0.1096 -0.0105
 4419W        W47513   1.196   0.700  20.937 -0.1712 -0.2452  0.0250
 4420W        W47514   3.650   1.875  23.264 -0.0071 -0.0210 -0.2535
 4421W        W47515   2.070   1.785  21.025 -0.1193  0.1233  0.0369
 4422W        W47516   0.334   2.461  23.552  0.0836  0.1714  0.0699
 4423W        W47517   2.529  33.758  20.972 -0.2155  0.1021  0.2535
 4424W        W47518   2.313   0.719  21.354  0.1573 -0.0381  0.0392
 4425W        W47519   2.683   1.376  22.416  0.0153  0.0774  0.0626
 4426W        W47520   0.612   0.163  20.873 -0.2490 -0.3015  0.2629
 4427W        W47521   2.413   2.319  22.177 -0.0945 -0.0417  0.0971
 4428W        W47522   0.610   3.717  19.882 -0.0270  0.4745  0.0645
 4429W        W47523   0.926   1.501  22.260  0.0173 -0.0368 -0.2497
 4430W        W47524   2.446   3.835  21.344  0.0826  0.0077  0.0849
 4431W        W47525   3.380  33.953  20.627  0.0543  0.0055  0.2899
 4432W        W47526   0.405   2.342  24.033 -0.0975 -0.1949  0.1496
 4433W        W47527   1.548   1.052  22.712  0.4412 -0.2446  0.0419
 4434W        W47528   1.109  34.204  20.239  0.0528 -0.0737  0.1808
 4435W        W47529  34.578   4.311  22.725  0.3119  0.0571 -0.3119
 4436W        W47530   2.559  34.459  20.959  0.0404  0.2378  0.0016
 4437W        W47531   3.264   0.664  19.441  0.1557 -0.4004  0.0692
 4438W        W47532   2.713   0.595  22.620  0.0005 -0.0137  0.0197
 4439W        W47533   3.018   3.022  21.151  0.3969 -0.0636  0.1226
 4440W        W47534   1.772   2.388  20.025 -0.0408 -0.4212  0.1532
 4441W        W47535   2.123   1.714  20.373 -0.0593 -0.0504 -0.0688
 4442W        W47536  34.143   3.119  24.326 -0.0502  0.2213 -0.1825
 4443W        W47537   2.601   1.361  20.314  0.0980 -0.2145 -0.0167
 4444W        W47538   2.070   1.465  21.650 -0.3330 -0.1179 -0.1653
 4445W        W47539   1.781   0.889  19.358  0.4073  0.3674  0.0489
 4446W        W47540   3.023   3.948  21.249 -0.5758 -0.0165 -0.1389
 4447W        W47541  34.394   3.387  22.628  0.0920  0.0009 -0.0350
 4448W        W47542   3.028   1.312  24.336  0.3813  0.1742  0.0420
 4449W        W47543   3.475   3.970  21.265  0.0160  0.0409  0.0215
 4450W        W47544   1.950  34.557  21.724 -0.1540 -0.3491 -0.0987
 4451W        W47545   1.652   1.924  20.348  0.1181  0.3141  0.4610
 4452W        W47546   3.302   0.104  19.302 -0.2858 -0.1138  0.0184
 4453W        W47547   0.270   3.609  20.820  0.0322 -0.0047 -0.0821
 4454W        W47548   4.137  33.749  21.245  0.3461 -0.1207  0.1528
 4455W        W47549   3.209   0.004  22.338  0.0113 -0.0883 -0.2200
 4456W        W47550   0.523   1.210  21.874  0.0011 -0.2011  0.2793
 4457W        W47551   2.919  34.371  23.095  0.2500 -0.2606  0.0348
 4458W        W47552   2.039   1.254  20.171 -0.1137 -0.2310  0.0194
 4459W        W47553   2.320   1.749  22.354  0.0843  0.0740  0.1706
 4460W        W47554  34.440   1.616  19.646 -0.1376  0.0886 -0.2633
 4461W        W47555   1.911   0.015  22.948 -0.2047 -0.1703  0.0075
 4462W        W47556   0.649   1.409  24.169  0.1725 -0.4031  0.0807
 4463W        W47557  34.554   4.513  23.286 -0.0049 -0.1176 -0.0212
 4464W        W47558   3.253   2.272  23.279 -0.1396  0.3153  0.1726
 4465W        W47559   1.855   1.831  19.887 -0.3718 -0.1426 -0.0685
 4466W        W47560   2.553  34.295  23.810 -0.0562 -0.1056 -0.0173
 4467W        W47561   1.144   0.704  22.581  0.1989 -0.3030 -0.1768
 4468W        W47562   1.183   3.995  20.679  0.0325  0.0476  0.1773
 4469W        W47563   2.379   2.654  19.917  0.2019 -0.2278 -0.1590
 4470W        W47564   0.754  33.622  23.419 -0.1304 -0.0870  0.1907
 4471W        W47565   2.554   2.886  21.974  0.2169  0.2826 -0.0541
 4472W        W47566   0.871   2.649  20.123 -0.1802  0.1423  0.1550
 4473W        W47567   1.358   1.625  21.927  0.0936  0.2525 -0.2983
 4474W        W47568   0.101   4.101  21.681  0.1668 -0.2497 -0.1027
 4475W        W47569   3.990  33.380  22.151 -0.1629  0.1972 -0.0324
 4476W        W47570   0.218   3.851  22.783 -0.0601 -0.0446 -0.2380
 4477W        W47571   2.444   0.491  19.953 -0.0475 -0.3281  0.0226
 4478W        W47572   0.565   1.409  20.807 -0.2855  0.0359  0.0321
 4479W        W47573   1.737  34.693  20.485  0.2437  0.2281  0.3305
 4480W        W47574   3.483   2.467  21.807 -0.2518 -0.2747 -0.1308
 4481W        W47575   0.039   1.855  22.019  0.1740 -0.0573 -0.1335
 4482W        W47576   1.901   0.278  22.057 -0.3495 -0.2509  0.1326
 4483W        W47577  34.294   5.005  21.723 -0.3049 -0.1796  0.2298
 4484W        W47578   1.959   0.756  22.779  0.0785 -0.0535 -0.2798
 4485W        W47579   3.254   0.717  20.249  0.0159  0.4360  0.1780
 4486W        W47580   4.160   1.215  22.404 -0.3511 -0.0959 -0.0355
 4487W        W47581   0.868   2.346  23.625 -0.2100  0.1389 -0.1256
 4488W        W47582  34.632  34.309  19.392 -0.0444  0.2739 -0.1903
 4489W        W47583   3.665   0.022  22.558 -0.2910  0.1953  0.1673
 4490W        W47584   1.399   0.009  22.244  0.2821 -0.0072  0.4008
 4491W        W47585   0.514   3.269  21.654  0.2789 -0.1160 -0.0508
 4492W        W47586   1.621   2.150  21.938  0.0162  0.1792  0.0035
 4493W        W47587   0.323   2.141  19.261  0.0129 -0.1772  0.2551
 4494W        W47588   1.227   4.164  21.562 -0.3411 -0.0257  0.1579
 4495W        W47589   1.080   1.583  23.108  0.1090  0.1277  0.1534
 4496W        W47590   2.870   2.508  22.996  0.1155  0.0463 -0.1223
 4497W        W47591   1.753   0.998  22.255 -0.0211 -0.0796 -0.0058
 4498W        W47592   1.125   1.156  21.863 -0.0199 -0.1140 -0.0911
 4499W        W47593   1.498   0.648  19.743  0.0083  0.1622 -0.1343
 4500W        W47594   1.571   2.546  23.040  0.1321 -0.1360 -0.0151
 4501W        W47595   1.499   1.312  23.296  0.2380  0.2805  0.1918
 4502W        W47596   0.305   3.402  22.549  0.0270  0.1571  0.2753
 4503W        W47597   0.908  34.542  22.613 -0.1197  0.0012 -0.0413
 4504W        W47598   3.248   3.754  20.729 -0.2753 -0.0742 -0.1239
 4505W        W47599   2.853   0.412  23.792  0.0881 -0.1387 -0.0450
 4506W        W47600   1.511   2.470  19.360 -0.2112 -0.1207  0.2475
 4507W        W47601  34.063   2.555  22.586  0.2555  0.1965 -0.0740
 4508W        W47602   0.909   2.578  21.188  0.4654  0.0967 -0.0837
 4509W        W47603   3.239  33.865  22.749  0.1137 -0.0990  0.0301
 4510W        W47604   0.719   3.050  22.633 -0.1597 -0.4496  0.2622
 4511W        W47605   1.121   2.065  20.951  0.2267 -0.2126 -0.0381
 4512W        W47606   1.943   3.085  23.201 -0.0703  0.0295 -0.0628
 4513W        W47607   3.269   0.381  21.403  0.1574 -0.2052  0.2163
 4514W        W47608   1.666   3.794  20.380 -0.1975 -0.0215  0.0865
 4515W        W47609   1.972   0.843  20.544 -0.3322  0.0212  0.1559
 4516W        W47610   3.024  33.695  22.299  0.0479  0.1100  0.3774
 4517W        W47611   2.908   0.859  20.555 -0.2876 -0.0919 -0.1208
 4518W        W47612   3.490   1.103  23.502 -0.2315 -0.1559  0.0356
 4519W        W47613   2.071  34.227  22.990 -0.1618  0.2918 -0.1596
 4520W        W47614   4.418   2.997  23.140  0.1109 -0.2387  0.0430
 4521W        W47615  34.642   2.293  21.783  0.2451  0.0159  0.3437
 4522W        W47616   4.303   4.746  24.357 -0.1182 -0.0690 -0.3074
 4523W        W47617  34.139   1.689  25.434 -0.1893 -0.0469  0.1092
 4524W        W47618   0.935  34.028  21.827  0.0870  0.0164  0.2407
 4525W        W47619   0.918  34.610  19.931  0.1879 -0.0214  0.1258
 4526W        W47620   2.059   1.211  21.143 -0.0727 -0.0236 -0.0424
 4527W        W47621   3.101   2.667  21.533  0.0705  0.0806 -0.3209
 4528W        W47622   2.718   1.631  19.573  0.0559  0.1668 -0.2359
 4529W        W47623   1.567   0.182  21.748  0.1372  0.4523 -0.0397
 4530W        W47624   1.968   2.339  22.342 -0.2627  0.1724 -0.5087
 4531W        W47625   2.253   2.791  21.544 -0.1430  0.1292 -0.0768
 4532W        W47626   1.054   2.560  19.025 -0.0085 -0.0175 -0.0424
 4533W        W47627   2.252   2.280  21.357  0.1663  0.0983 -0.0920
 4534W        W47628   2.581   1.237  23.832  0.0707 -0.0769  0.0068
 4535W        W47629   1.946   1.528  22.597 -0.0279 -0.1686 -0.0625
 4536W        W47630   2.683  34.205  21.327 -0.2576 -0.1033 -0.0656
 4537W        W47631   4.707  34.499  21.396 -0.1354 -0.1301  0.1491
 4538W        W47632   2.784   0.126  22.612  0.0353  0.0775 -0.3612
 4539W        W47633   0.299   1.707  22.991 -0.1625 -0.1077 -0.0217
 4540W        W47634   1.054   1.030  23.125 -0.0743  0.1475 -0.0393
 4541W        W47635   3.916   4.103  23.440 -0.0731  0.0111 -0.2004
 4542W        W47636   4.221   0.768  20.158  0.1884  0.0530 -0.1229
 4543W        W47637   3.723   0.253  21.298 -0.0859  0.1560 -0.2320
 4544W        W47638   2.426   0.585  21.792 -0.1820  0.0953 -0.2000
 4545W        W47639   2.070   1.629  19.511  0.2654  0.0464 -0.1674
 4546W        W47640   0.485   1.724  22.121  0.1829 -0.2081 -0.0050
 4547W        W47641   3.180   1.999  23.730  0.0122  0.0819 -0.2001
 4548W        W47642   0.944  34.553  21.553 -0.0640 -0.1140 -0.2489
 4549W        W47643   3.970  34.285  22.298 -0.2711  0.1248 -0.2509
 4550W        W47644   1.824   3.288  19.625  0.1645  0.0164  0.1198
 4551W        W47645   2.049   2.393  21.839 -0.1278 -0.0915  0.0011
 4552W        W47646   3.223   1.829  22.291  0.0672 -0.0185 -0.0541
 4553W        W47647   0.650   1.574  22.627  0.0377 -0.0643  0.0920
 4554W        W47648   0.284   2.894  23.802  0.0427  0.0403  0.2399
 4555W        W47649   2.376   1.674  19.940  0.0622 -0.1566 -0.0160
 4556W        W47650   2.013   2.118  20.626 -0.0370 -0.3024 -0.1941
 4557W        W47651   0.857   2.057  22.336 -0.0479  0.1613  0.1339
 4558W        W47652   3.120   1.408  22.621  0.0663 -0.2872 -0.2832
 4559W        W47653   1.595  33.792  19.371  0.4084  0.0419  0.1974
 4560W        W47654   3.908  33.764  23.237 -0.2059 -0.2468  0.2994
 4561W        W47655  34.572   2.419  22.791  0.1326  0.0897 -0.2293
 4562W        W47656   1.895   0.692  20.991 -0.0167  0.2202  0.0562
 4563W        W47657   1.783   2.392  21.419  0.0436 -0.0125 -0.4108
 4564W        W47658  34.332   1.882  23.647  0.0466  0.2510 -0.5005
 4565W        W47659   1.591   3.345  20.142 -0.0418 -0.0449  0.1286
 4566W        W47660   2.609   0.935  22.181 -0.1165  0.2264  0.3278
 4567W        W47661   2.883  34.638  21.351  0.1249 -0.2530  0.2165
 4568W        W47662   2.343   1.944  21.820  0.1457 -0.2255 -0.1884
 4569W        W47663   3.454   0.932  22.708  0.3126 -0.2516  0.2009
 4570W        W47664   2.306   2.409  23.788  0.1035  0.3482  0.0381
 4571W        W47665   1.302   2.675  21.564 -0.0787  0.2999  0.1668
 4572W        W47666   2.587   4.478  22.674 -0.2026 -0.0302 -0.0925
 4573W        W47667   3.721   1.416  22.519 -0.1693  0.0828  0.0065
 4574W        W47668   1.088   3.337  21.949 -0.2313 -0.1686  0.0566
 4575W        W47669   0.647   1.295  23.113 -0.1456  0.1002  0.1661
 4576W        W47670   1.777   3.754  24.408  0.0457 -0.1108 -0.1190
 4577W        W47671   2.370   0.455  22.282  0.1898  0.0998  0.0173
 4578W        W47672   0.611  33.860  21.092  0.1010  0.0929 -0.2511
 4579W        W47673   1.429   3.854  19.306  0.2651  0.3031  0.1145
 4580W        W47674   1.560   2.858  23.458 -0.0352 -0.0010  0.3845
 4581W        W47675  34.430   1.189  22.591 -0.0978 -0.1650 -0.4928
 4582W        W47676   0.584   2.862  20.620  0.0677 -0.0951 -0.1180
 4583W        W47677   3.088   2.736  20.561 -0.1984 -0.0573  0.1813
 4584W        W47678   3.096   2.407  20.197  0.0894 -0.0115  0.1538
 4585W        W47679   1.660   2.690  21.907  0.1772 -0.2656  0.1313
 4586W        W47680   2.121   0.087  19.968 -0.0145  0.3771  0.2937
 4587W        W47681   0.267   2.481  20.540  0.2029  0.1577  0.0367
 4588W        W47682  33.767   2.195  21.230 -0.1897 -0.1239 -0.0044
 4589W        W47683   2.121   2.623  20.372 -0.1097 -0.2511  0.0874
 4590W        W47684   1.378   4.940  20.881 -0.1423  0.2071 -0.2762
 4591W        W47685   3.849   1.853  23.684  0.0946 -0.3037 -0.2137
 4592W        W47686   3.977   0.689  18.299 -0.4348 -0.0117 -0.0167
 4593W        W47687   3.498   1.107  22.202  0.1080  0.2885 -0.0844
 4594W        W47688   3.405   0.171  20.924  0.0051  0.0491  0.0777
 4595W        W47689   3.390   4.313  23.492 -0.1938 -0.0476  0.2610
 4596W        W47690   1.780   0.344  22.591  0.2403  0.0113  0.0277
 4597W        W47691   1.929   0.108  18.823 -0.1523 -0.0547  0.1608
 4598W        W47692   1.193   1.827  22.625 -0.1152 -0.0159 -0.1003
 4599W        W47693   3.835  34.197  23.546 -0.2575  0.0122 -0.0600
 4600W        W47694   0.048   4.034  23.299  0.1312 -0.0989 -0.1593
 4601W        W47695   2.550   3.153  21.263 -0.0442  0.0207 -0.0002
 4602W        W47696  34.171   0.203  19.882 -0.1642  0.0268 -0.1339
 4603W        W47697   2.733   1.910  22.122 -0.0360 -0.0258  0.5167
 4604W        W47698   3.290  33.959  23.274 -0.1534 -0.2478 -0.1199
 4605W        W47699   1.647   1.876  19.191 -0.0458 -0.1178  0.1224
 4606W        W47700   1.964   0.328  21.442  0.2827  0.0369 -0.0135
 4607W        W47701   1.457   2.587  21.058  0.0185 -0.2400 -0.0540
 4608W        W47702   1.024   3.639  21.597  0.1619 -0.1429 -0.0739
 4609W        W47703   1.452   3.741  21.863  0.1743 -0.3319 -0.0629
 4610W        W47704   0.194   0.879  20.196  0.0714 -0.1333  0.1478
 4611W        W47705   4.363   1.093  21.075  0.0219 -0.1927  0.3572
 4612W        W47706   1.435   2.021  22.999 -0.1498  0.2125 -0.2265
 4613W        W47707   3.984   0.801  22.659  0.3285 -0.2127 -0.0121
 4614W        W47708  34.091   1.435  21.252 -0.3165 -0.3209  0.1906
 4615W        W47709   2.948   0.139  21.856 -0.0984  0.1165 -0.4108
 4616W        W47710   2.934   0.906  22.924  0.0316 -0.2704  0.0954
 4617W        W47711   1.433   2.000  24.064  0.0293 -0.3990  0.0137
 4618W        W47712   0.736   2.230  18.837  0.3219  0.0352  0.1293
 4619W        W47713   3.395   1.486  21.873  0.1168 -0.1752 -0.0395
 4620W        W47714   2.609   1.773  20.667 -0.3042 -0.0693  0.0030
 4621W        W47715   2.038   3.741  21.683 -0.2009 -0.0084 -0.2575
 4622W        W47716   1.840  34.097  21.926 -0.2170 -0.3177 -0.0680
 4623W        W47717   2.454   0.900  20.274 -0.2158 -0.1394 -0.0674
 4624W        W47718  34.603   2.176  20.890  0.2560 -0.3066  0.0256
 4625W        W47719   0.529   2.249  20.926 -0.1572  0.0792 -0.4414
 4626W        W47720   3.238   3.948  23.823 -0.0377 -0.2048  0.2190
 4627W        W47721   0.792   0.355  21.678 -0.0989 -0.2024 -0.2127
 4628W        W47722   3.302   3.230  20.612 -0.3367  0.1740  0.0257
 4629W        W47723   2.947  34.256  22.585  0.3274 -0.0923 -0.1903
 4630W        W47724   1.615   3.244  21.038  0.0574 -0.0829 -0.2115
 4631W        W47725   2.396   2.777  22.588  0.1375 -0.1335 -0.0238
 4632W        W47726   3.614   3.655  22.150  0.0034 -0.0986 -0.0085
 4633W        W47727   0.122  33.573  22.032  0.0257 -0.0455  0.0446
 4634W        W47728   3.164   4.769  25.083  0.0247 -0.0060  0.0394
 4635W        W47729   2.774   3.018  22.829  0.1892 -0.0768 -0.1063
 4636W        W47730   1.407  33.789  19.893 -0.1039 -0.0228  0.1102
 4637W        W47731   0.867   1.811  21.820 -0.2424 -0.0031  0.2364
 4638W        W47732  34.608   2.769  21.556 -0.1258  0.0492 -0.3464
 4639W        W47733   3.395  34.641  21.562  0.0858  0.1231  0.4129
 4640W        W47734   3.740  34.630  23.142 -0.0867  0.0544 -0.2274
 4641W        W47735   3.172   3.286  19.700  0.1612 -0.4441  0.1721
 4642W        W47736   3.801  34.480  24.435  0.0144  0.2547  0.0099
 4643W        W47737   1.965   1.991  23.939 -0.2146  0.0694 -0.3057
 4644W        W47738   1.210   3.468  23.687 -0.0048 -0.2460 -0.1800
 4645W        W47739   0.875  34.609  20.534 -0.2089  0.0574  0.0922
 4646W        W47740   0.726   2.650  23.950  0.0541 -0.3774 -0.1193
 4647W        W47741   1.062   2.564  20.665 -0.3493  0.1087 -0.1381
 4648W        W47742   1.381   1.731  20.663  0.0088 -0.0997  0.2397
 4649W        W47743   3.212   2.838  21.996  0.2939  0.0484 -0.2865
 4650W        W47744   2.832  34.578  20.376  0.1509 -0.1260  0.1047
 4651W        W47745   3.730   2.821  22.102 -0.0304 -0.0881 -0.0219
 4652W        W47746   1.264   2.210  21.407  0.0027  0.2752  0.1713
 4653W        W47747   3.703   1.029  20.480  0.0723 -0.0020 -0.3187
 4654W        W47748   2.249  34.262  19.724  0.0998  0.3108 -0.1490
 4655W        W47749   0.796   2.740  21.832  0.0273 -0.0844  0.0088
 4656W        W47750  32.760   1.358  20.015 -0.0932 -0.0129  0.1629
 4657W        W47751   0.350   2.705  20.060  0.1425  0.4404 -0.4907
 4658W        W47752   0.329   1.981  22.572 -0.0942 -0.2294  0.0360
 4659W        W47753   0.757  34.667  23.743  0.1586 -0.0335 -0.1778
 4660W        W47754   0.744   1.084  24.610  0.0523  0.0446 -0.2574
 4661W        W47755   1.639   1.282  21.678 -0.2177  0.4250  0.2615
 4662W        W47756   1.029   0.276  21.278  0.1007 -0.3333 -0.1676
 4663W        W47757   2.745   0.460  21.330  0.0373  0.1502  0.1904
 4664W        W47758   1.580  34.345  23.072  0.0186  0.1798 -0.3779
 4665W        W47759   1.225  34.143  22.740  0.0959  0.2263  0.0241
 4666W        W47760   2.420   0.865  20.847  0.2188 -0.2872  0.0617
 4667W        W47761   2.181   2.695  21.081  0.0347  0.0530  0.3857
 4668W        W47762   2.083   0.435  20.337 -0.1713  0.0675  0.3481
 4669W        W47763   4.438   4.756  22.339  0.1430  0.1289  0.2395
 4670W        W47764   0.717   2.860  19.630  0.1838 -0.1252 -0.1163
 4671W        W47765   3.737   0.400  22.936 -0.1142  0.0347  0.0937
 4672W        W47766   1.503   1.544  22.846  0.0500  0.2408 -0.1916
 4673W        W47767   1.185   1.711  21.382  0.2186 -0.1916 -0.3568
 4674W        W47768   1.946   1.705  23.193 -0.0156  0.2286 -0.0361
 4675W        W47769   2.365   3.021  20.673 -0.6633  0.1919  0.0565
 4676W        W47770   3.715   3.419  20.862 -0.0647  0.1832 -0.0479
 4677W        W47771   3.453   1.223  21.018 -0.1177  0.0748 -0.0141
 4678W        W47772   0.826   2.204  22.807  0.0767 -0.0555  0.1685
 4679W        W47773   0.075  33.863  22.820 -0.0296 -0.2796 -0.0240
 4680W        W47774   3.306   1.874  20.815 -0.0245 -0.0663 -0.1030
 4681W        W47775   1.116   3.362  22.539 -0.1836  0.1067 -0.3450
 4682W        W47776   4.677   3.113  21.512 -0.1585  0.0097  0.0579
 4683W        W47777   3.321  32.747  22.059 -0.1077  0.1664  0.1464
 4684W        W47778   3.246   1.645  19.953  0.0464  0.1488 -0.2569
 4685W        W47779   0.426   0.079  22.745 -0.0864  0.5090 -0.1394
 4686W        W47780   1.344   2.280  22.335  0.2084 -0.0898  0.0802
 4687W        W47781   2.615   2.429  21.735 -0.1460  0.0154 -0.1508
 4688W        W47782   1.752  34.209  21.443 -0.0035  0.3308  0.2348
 4689W        W47783   2.275   0.345  20.991 -0.4493  0.1061  0.0103
 4690W        W47784   1.722   2.873  21.368  0.3361  0.0230  0.2388
 4691W        W47785   0.831  34.029  22.382 -0.0659  0.0466  0.0081
 4692W        W47786   0.921   2.028  19.688 -0.0774 -0.1304  0.1421
 4693W        W47787   3.315   0.702  23.185 -0.4412  0.1600 -0.1430
 4694W        W47788   2.799   2.245  21.216 -0.3145  0.1148  0.0342
 4695W        W47789   2.933   1.343  22.000  0.0037  0.2440  0.2556
 4696W        W47790   1.772   1.421  20.588  0.1031  0.0016  0.2218
 4697W        W47791   5.450   2.691  20.131 -0.1514 -0.2715  0.2086
 4698W        W47792   2.133   3.674  22.544 -0.1560 -0.1360 -0.0249
 4699W        W47793   4.344   5.382  23.439  0.0685  0.1281 -0.0449
 4700W        W47794   2.479   2.286  22.676  0.1970  0.3035  0.1899
 4701W        W47795   2.764   1.884  22.669  0.0221 -0.0135 -0.2145
 4702W        W47796   0.827  33.048  21.394 -0.2646  0.2400  0.5786
 4703W        W47797   2.242   1.266  20.640 -0.0419 -0.0577 -0.1075
 4704W        W47798   2.245   2.204  19.964 -0.0612  0.1631  0.1587
 4705W        W47799   3.283  34.548  22.832 -0.2152  0.1289  0.0710
 4706W        W47800   1.260   1.161  21.302 -0.3026  0.1243  0.2546
 4707W        W47801   3.237   0.968  19.850 -0.0216  0.0035  0.4221
 4708W        W47802   1.075   2.452  23.168  0.0271 -0.2320 -0.0901
 4709W        W47803   1.926   1.790  22.079 -0.0313 -0.0403 -0.2479
 4710W        W47804   2.191   1.878  25.992  0.1079  0.1221  0.0649
 4711W        W47805   0.892   0.642  26.612  0.2101  0.0030 -0.1848
 4712W        W47806   4.337   0.523  24.966  0.1249  0.2304 -0.1301
 4713W        W47807   2.864   0.964  23.443  0.4837  0.1991 -0.0327
 4714W        W47808   0.125   0.693  24.544  0.0066 -0.0457  0.1046
 4715W        W47809   2.166   2.722  24.599  0.4804  0.3094 -0.0914
 4716W        W47810   1.424  34.352  27.175  0.1020 -0.1094  0.0687
 4717W        W47811   2.588   2.052  26.463 -0.0376  0.2202 -0.0763
 4718W        W47812   2.771   2.364  25.512  0.0865 -0.1039 -0.0099
 4719W        W47813   3.442   1.791  22.747 -0.2362 -0.3162 -0.3264
 4720W        W47814   1.617   0.179  27.316  0.1755  0.2173 -0.0606
 4721W        W47815   1.282   4.280  26.604  0.0560  0.1491 -0.2562
 4722W        W47816   1.431  34.143  24.048 -0.1979  0.0151  0.1114
 4723W        W47817   0.407  33.437  25.744  0.0813  0.3877 -0.1073
 4724W        W47818   3.441   1.085  25.697  0.0331 -0.1710 -0.5683
 4725W        W47819   0.103   2.022  23.417 -0.0615  0.1051  0.2208
 4726W        W47820   1.375   0.530  26.421  0.0506  0.3672 -0.1145
 4727W        W47821   2.545   0.860  24.472  0.0287 -0.0521  0.0311
 4728W        W47822   2.145   1.619  24.544 -0.1546 -0.0070 -0.0881
 4729W        W47823   1.067   0.913  27.031  0.0905 -0.0773 -0.0531
 4730W        W47824   2.243   0.432  26.702 -0.1144 -0.0084  0.0531
 4731W        W47825   1.610   3.071  23.982 -0.0958 -0.0136  0.1279
 4732W        W47826   1.488   1.679  23.693 -0.0163 -0.0530 -0.0943
 4733W        W47827   1.050   0.942  25.079  0.1067  0.0609 -0.0691
 4734W        W47828   0.576   0.360  26.272 -0.2787  0.0231  0.1378
 4735W        W47829   1.057  34.431  25.932 -0.0298 -0.1426 -0.4814
 4736W        W47830   2.185   2.567  26.304  0.0636  0.2832  0.0285
 4737W        W47831   0.355   3.690  25.079 -0.1804  0.1580 -0.0976
 4738W        W47832   1.343   2.329  25.273  0.2003  0.0906 -0.6593
 4739W        W47833   3.210   1.527  26.995 -0.0832  0.2913 -0.0210
 4740W        W47834   1.720   1.493  24.702 -0.2379  0.2509  0.1745
 4741W        W47835   0.821   3.383  25.700 -0.0177  0.0067 -0.1435
 4742W        W47836   2.384   1.854  24.102 -0.2254 -0.1666 -0.2245
 4743W        W47837   3.296   1.295  25.262 -0.0456  0.0501 -0.2683
 4744W        W47838   4.967   2.915  26.147  0.4253  0.0113 -0.2575
 4745W        W47839   0.955   2.448  27.979  0.0109 -0.3339 -0.1897
 4746W        W47840   1.806   1.967  24.416 -0.1804  0.1324  0.3522
 4747W        W47841   1.432   2.866  27.361 -0.3741  0.0894 -0.1067
 4748W        W47842   0.871   3.893  26.386  0.0026  0.1922 -0.0406
 4749W        W47843   1.844   0.776  26.230 -0.0611 -0.1716  0.1161
 4750W        W47844   1.032   0.176  26.363 -0.0601  0.0514 -0.0679
 4751W        W47845   1.944   2.547  23.427  0.1662 -0.0777  0.1486
 4752W        W47846   1.719   0.224  25.482 -0.1140 -0.1381 -0.0567
 4753W        W47847   1.646   2.531  26.299  0.1937  0.0861 -0.0603
 4754W        W47848  34.044   1.150  24.979  0.0340  0.0409  0.1288
 4755W        W47849   3.103   0.359  27.591  0.0101  0.2937 -0.0395
 4756W        W47850   1.978   2.951  23.675 -0.0168  0.1391  0.1821
 4757W        W47851   4.061   0.407  24.546  0.2644 -0.5086 -0.0387
 4758W        W47852   0.999  34.415  23.161 -0.2390  0.3182  0.2013
 4759W        W47853   4.262   0.643  23.053 -0.1403  0.3985  0.0800
 4760W        W47854   2.451   0.156  24.569  0.0119  0.2867  0.0683
 4761W        W47855   1.685   2.951  24.985  0.0187  0.3129 -0.1484
 4762W        W47856   1.195   0.015  25.538 -0.0607  0.1741 -0.0969
 4763W        W47857   4.013   2.387  25.483  0.1178 -0.1375 -0.0081
 4764W        W47858   3.474   0.889  24.974  0.2147 -0.1730  0.1577
 4765W        W47859   3.181   0.827  26.247 -0.0190 -0.1005  0.0508
 4766W        W47860   2.264   4.940  26.387  0.3072  0.0554  0.0638
 4767W        W47861   1.367   0.624  25.630  0.2793 -0.0787 -0.0743
 4768W        W47862   3.611   2.374  22.885 -0.1907  0.0053 -0.1135
 4769W        W47863   2.747   3.447  24.116 -0.1723 -0.0893  0.0393
 4770W        W47864   1.322   3.272  24.687 -0.0739 -0.0328  0.0473
 4771W        W47865  34.376   0.811  25.222 -0.1257 -0.1839  0.1135
 4772W        W47866  34.114   1.089  28.146 -0.1810 -0.1987  0.0765
 4773W        W47867   0.096   0.215  26.504 -0.0028 -0.2384  0.0033
 4774W        W47868   2.302   0.316  23.468 -0.0084 -0.0813 -0.1983
 4775W        W47869   3.678   1.161  26.171 -0.2555 -0.0608  0.0908
 4776W        W47870   0.944   2.821  27.656 -0.0167  0.0187 -0.1758
 4777W        W47871   3.214   0.155  23.885  0.0382  0.0320 -0.2404
 4778W        W47872   1.566   3.966  26.165  0.0231 -0.2307 -0.0473
 4779W        W47873   3.700   1.668  25.355 -0.2754 -0.0143 -0.3285
 4780W        W47874   3.940   1.325  23.556 -0.0480 -0.2847  0.1522
 4781W        W47875   2.600   1.186  26.211 -0.3015 -0.1709  0.2589
 4782W        W47876   3.507   0.217  25.328 -0.2869 -0.0498  0.1116
 4783W        W47877   0.045   1.532  23.718  0.1385  0.0038  0.0704
 4784W        W47878   1.162   1.990  23.439 -0.1429  0.1476  0.3736
 4785W        W47879   3.736   2.951  25.460  0.1944  0.0041 -0.0480
 4786W        W47880   2.956   3.332  23.512 -0.0699 -0.3294 -0.2055
 4787W        W47881   1.056   3.879  25.861 -0.2206  0.1952 -0.4001
 4788W        W47882   1.229   1.427  26.994  0.2406 -0.1500 -0.1077
 4789W        W47883   1.797   2.932  26.652 -0.2195  0.0573  0.2342
 4790W        W47884   0.960   3.469  23.258  0.2227  0.2210 -0.0098
 4791W        W47885   0.410   1.949  25.081 -0.3481 -0.0525 -0.1803
 4792W        W47886   0.619   1.674  24.601  0.0262 -0.0261  0.0831
 4793W        W47887   0.379   0.657  27.553 -0.1735 -0.2016 -0.0986
 4794W        W47888   1.015   2.480  26.432  0.1049  0.0950  0.0127
 4795W        W47889   3.588  34.551  23.973  0.0703 -0.3652  0.1824
 4796W        W47890   1.227  34.670  28.064  0.1587 -0.0768  0.1444
 4797W        W47891   4.053   0.317  25.363  0.1771  0.0528  0.1689
 4798W        W47892   1.214   1.243  24.585 -0.0428 -0.0681  0.1180
 4799W        W47893   2.485   4.033  24.591  0.1388  0.0963  0.0360
 4800W        W47894   4.208   0.742  25.476  0.0464 -0.0669  0.2570
 4801W        W47895   2.864   1.684  24.024  0.0862  0.2648  0.3304
 4802W        W47896   1.072   1.458  25.444 -0.0152  0.0096  0.0703
 4803W        W47897   1.478  34.648  24.777  0.2418  0.2611  0.0058
 4804W        W47898   1.251   0.571  27.381 -0.1517 -0.0613  0.1231
 4805W        W47899   0.711  33.771  25.523  0.0260 -0.1964 -0.1326
 4806W        W47900   2.662   1.612  26.865 -0.0866  0.1457  0.2948
 4807W        W47901   1.579   0.893  24.701  0.5556  0.0048  0.1413
 4808W        W47902   2.732   0.130  26.503  0.1699 -0.2086  0.0609
 4809W        W47903   0.455   0.804  24.087 -0.2353 -0.1559 -0.1014
 4810W        W47904   0.419   2.486  25.036  0.1073  0.3165 -0.1868
 4811W        W47905   3.707  34.675  26.439  0.2113  0.1567 -0.0842
 4812W        W47906   2.166   3.578  23.225 -0.1460  0.4459 -0.1489
 4813W        W47907   4.359   2.237  25.936  0.2509  0.1075 -0.2148
 4814W        W47908   2.472   3.740  25.614 -0.1878  0.0564 -0.0189
 4815W        W47909   0.658   0.161  26.735 -0.1363  0.0685  0.4712
 4816W        W47910   1.217   0.512  24.771  0.3808 -0.0952 -0.6457
 4817W        W47911   1.155   4.879  24.742 -0.0995  0.0486  0.2678
 4818W        W47912   1.516   2.214  25.840  0.0197 -0.0553  0.0673
 4819W        W47913   2.908   2.195  24.133 -0.0213 -0.1217  0.0639
 4820W        W47914   3.000   2.832  24.312  0.0796  0.0814  0.2149
 4821W        W47915   2.634   3.204  27.473  0.2333 -0.2287  0.3473
 4822W        W47916   0.297   2.832  26.836  0.1243 -0.2253  0.0268
 4823W        W47917   3.334  34.192  26.381  0.2524 -0.2903 -0.2232
 4824W        W47918   4.387   1.224  25.535 -0.0671  0.0975  0.2059
 4825W        W47919   2.771   1.060  25.206  0.1902 -0.0580 -0.1944
 4826W        W47920   2.383   0.297  22.940 -0.0173 -0.0301 -0.1056
 4827W        W47921   2.269   3.115  24.828 -0.4264  0.0741 -0.1231
 4828W        W47922  34.347   2.023  24.650 -0.2939  0.1526  0.1382
 4829W        W47923   0.894   2.512  25.386  0.2672 -0.0477  0.0441
 4830W        W47924   1.959   2.761  24.142  0.1948  0.2046 -0.2905
 4831W        W47925   3.845  33.459  24.626  0.1190  0.1159 -0.3034
 4832W        W47926   0.337   1.753  25.874  0.1415  0.1240 -0.0634
 4833W        W47927   2.249   1.718  27.350  0.3799 -0.1769  0.2235
 4834W        W47928   0.234   1.370  24.486  0.2248  0.0564  0.3101
 4835W        W47929   1.241   2.076  26.243 -0.1051  0.0100 -0.0448
 4836W        W47930   2.026   0.616  25.719 -0.0610  0.2270  0.0991
 4837W        W47931   3.824  34.474  21.695 -0.0757 -0.1921  0.0260
 4838W        W47932   2.704   3.301  25.710  0.0324  0.1010  0.1229
 4839W        W47933   3.389   3.374  23.963 -0.0652  0.0845 -0.1342
 4840W        W47934   3.435   1.589  23.628  0.0400 -0.2057 -0.0767
 4841W        W47935   3.217   0.028  24.362 -0.0453 -0.2856  0.2667
 4842W        W47936   1.350   3.859  27.592 -0.1761 -0.1178  0.5969
 4843W        W47937   2.855   1.558  25.243  0.2473 -0.0379 -0.0349
 4844W        W47938   1.237   3.479  25.121  0.1865 -0.0243  0.1498
 4845W        W47939   2.222   2.087  23.410  0.1671 -0.0153  0.1757
 4846W        W47940   1.893   3.404  24.899  0.3349 -0.1702 -0.1068
 4847W        W47941   1.668   1.819  26.187  0.0878  0.0846 -0.2875
 4848W        W47942   3.150   3.580  27.001 -0.0329  0.1066 -0.1122
 4849W        W47943   1.939   3.652  25.634 -0.0490 -0.0196  0.2527
 4850W        W47944   2.186   1.090  26.533 -0.1464  0.2253  0.2981
 4851W        W47945  34.192   1.013  24.506 -0.1269  0.0769 -0.0665
 4852W        W47946   2.746  33.616  25.079  0.1488  0.0632  0.0245
 4853W        W47947   0.746   4.596  24.490  0.4752 -0.0324 -0.0021
 4854W        W47948   2.706   0.481  24.819  0.0108  0.1075 -0.0088
 4855W        W47949   0.718   0.552  24.553  0.1103 -0.3282 -0.2127
 4856W        W47950   2.793   0.075  25.111 -0.0800 -0.1939  0.0152
 4857W        W47951   3.077   0.625  27.082 -0.1154 -0.2466  0.1568
 4858W        W47952   2.700   2.571  23.465  0.2524 -0.4715 -0.3760
 4859W        W47953   2.818   1.300  25.660  0.0324  0.1486 -0.0326
 4860W        W47954   1.121   0.772  24.313  0.0376  0.3862 -0.0668
 4861W        W47955   0.698   0.637  27.151  0.0317  0.4111 -0.1015
 4862W        W47956   1.446   1.868  28.709 -0.0457  0.0339 -0.0450
 4863W        W47957   1.026   3.382  26.857 -0.2407  0.0716  0.0216
 4864W        W47958   2.169   3.953  25.279 -0.1813 -0.1962 -0.1481
 4865W        W47959   2.581   1.265  24.762  0.0347  0.0355  0.0344
 4866W        W47960   3.975  33.811  27.119  0.1664  0.2555  0.1168
 4867W        W47961   2.466   0.929  25.635 -0.1829  0.0715  0.0387
 4868W        W47962   2.494   2.239  24.593 -0.1738 -0.1749 -0.0013
 4869W        W47963   2.203   1.904  25.368 -0.1569  0.1316 -0.1994
 4870W        W47964  34.628  33.305  25.653  0.0091  0.1245 -0.1368
 4871W        W47965   1.294   2.258  24.483 -0.2478  0.1268  0.1212
 4872W        W47966  34.484   2.927  23.475 -0.0304 -0.2065  0.2922
 4873W        W47967   1.633   3.087  25.822  0.0038  0.2972 -0.0049
 4874W        W47968  34.605   3.155  24.039  0.0627 -0.1249  0.0621
 4875W        W47969   2.985   0.201  25.545 -0.0012  0.5416 -0.0180
 4876W        W47970   0.721   3.342  25.206  0.0580  0.2780  0.1386
 4877W        W47971   2.181   0.905  24.993 -0.0022 -0.0018  0.0436
 4878W        W47972   0.931   1.542  24.959  0.0633 -0.2783  0.2850
 4879W        W47973   3.986  34.141  24.010 -0.0020  0.2861  0.2825
 4880W        W47974   3.415   2.661  24.104 -0.2004 -0.5155 -0.1722
 4881W        W47975  33.849  34.677  26.304 -0.1043  0.3254 -0.1995
 4882W        W47976   1.785   0.390  25.000  0.2544 -0.2564  0.0564
 4883W        W47977   0.147   4.658  25.304  0.1964 -0.1857  0.2434
 4884W        W47978   1.977   1.563  27.770 -0.1066 -0.0276 -0.1374
 4885W        W47979   3.429   1.530  24.108  0.1570  0.0198 -0.0849
 4886W        W47980   3.455   2.892  26.031 -0.1323 -0.1366  0.1285
 4887W        W47981   1.410   2.708  27.842 -0.0958  0.3145  0.4031
 4888W        W47982   2.438   0.769  23.628 -0.2002  0.4994  0.0766
 4889W        W47983   5.289   0.745  25.294 -0.0601 -0.2434  0.0848
 4890W        W47984   2.816   0.241  26.012  0.0290  0.0093  0.1014
 4891W        W47985   1.148   4.320  24.764  0.1512 -0.3228 -0.2867
 4892W        W47986   2.800   2.541  26.922  0.0967  0.2833  0.0502
 4893W        W47987   2.062   1.124  24.456 -0.1494 -0.1169  0.1067
 4894W        W47988   0.134   2.186  24.431  0.0179 -0.2548 -0.2188
 4895W        W47989   2.161  33.749  26.930 -0.2176  0.1560 -0.0974
 4896W        W47990   3.293   1.588  25.715 -0.1822  0.2143  0.0021
 4897W        W47991   1.058   0.689  26.073 -0.0030  0.0791 -0.0108
 4898W        W47992   1.405   1.133  25.630  0.0787 -0.1355  0.0360
 4899W        W47993   1.363   0.243  25.945 -0.0490  0.1041  0.0897
 4900W        W47994   3.525   2.335  26.173 -0.1858 -0.0387  0.0734
 4901W        W47995   2.649   0.655  26.496 -0.0922  0.0498 -0.1390
 4902W        W47996   0.392   2.741  27.355  0.1675  0.2647 -0.0897
 4903W        W47997   2.637  34.460  25.659  0.4660  0.2338  0.0093
 4904W        W47998   4.373   3.801  24.924 -0.0261 -0.1815  0.0471
 4905W        W47999   1.527   2.376  27.083 -0.0006  0.1875 -0.0747
 4906W        W48000   1.517   1.515  24.212 -0.2453  0.0266 -0.0146
 4907W        W48001  33.435   3.334  24.892 -0.3062  0.3150 -0.0851
 4908W        W48002   2.300   3.223  22.828  0.3069  0.1416 -0.3556
 4909W        W48003   2.547   0.941  27.024 -0.3766  0.2773  0.1769
 4910W        W48004   2.081   2.761  25.789 -0.1689  0.1113  0.3230
 4911W        W48005   1.469   2.771  24.513 -0.0603  0.1004 -0.0382
 4912W        W48006   0.355   2.977  25.354 -0.0985 -0.0819 -0.1705
 4913W        W48007   3.160   0.764  25.357 -0.4269 -0.0809  0.2472
 4914W        W48008   3.567   3.685  23.231  0.0927 -0.3733 -0.3170
 4915W        W48009   2.297   0.191  25.038 -0.0783  0.0439  0.1139
 4916W        W48010   3.088   1.330  26.167 -0.1280  0.0793  0.1069
 4917W        W48011   2.566   2.962  23.798 -0.1484  0.0106 -0.3897
 4918W        W48012   4.041   0.323  26.285  0.1339  0.0532 -0.0688
 4919W        W48013   1.605  34.688  26.857  0.1598 -0.0568  0.1812
 4920W        W48014   2.255   2.320  25.043  0.1117 -0.0657  0.1315
 4921W        W48015   0.447  33.938  26.868 -0.0768  0.0898  0.2126
 4922W        W48016   1.660   3.462  26.188 -0.1642  0.1802 -0.2719
 4923W        W48017   0.966   1.150  25.897 -0.2589  0.1641  0.0677
 4924W        W48018   2.655   2.067  23.157 -0.0021 -0.0888  0.2048
 4925W        W48019   1.861   0.500  23.749  0.1480 -0.0729 -0.0435
 4926W        W48020   1.900   1.933  24.956 -0.0925 -0.0179 -0.2008
 4927W        W48021   2.387   1.375  25.269 -0.2576  0.1805  0.2283
 4928W        W48022   2.130   2.306  24.239  0.1119 -0.1830  0.0887
 4929W        W48023   2.360   1.580  26.459 -0.0465  0.1246 -0.0484
 4930W        W48024   1.897   1.538  25.218  0.0695  0.0794 -0.0875
 4931W        W48025   2.304   1.359  25.813 -0.1688  0.0447  0.0769
 4932W        W48026   2.629   1.745  24.510 -0.1280 -0.0152  0.3163
 4933W        W48027   1.756   2.448  24.835 -0.0487 -0.1256 -0.0265
 4934W        W48028   0.917  34.219  25.461 -0.0523 -0.1898 -0.0235
 4935W        W48029   2.281   2.407  25.541 -0.1159  0.0374 -0.1890
 4936W        W48030   1.612   0.586  26.836 -0.2265  0.0534  0.2035
 4937W        W48031   1.717  33.572  27.625 -0.2909  0.0981  0.0545
 4938W        W48032   3.793   1.543  25.834 -0.1755 -0.1090  0.2294
 4939W        W48033   0.636   2.118  26.066  0.1599  0.1287  0.2068
 4940W        W48034  34.686   2.133  27.412 -0.1673  0.0582 -0.3503
 4941W        W48035   4.713   2.223  25.546 -0.1903  0.2150  0.0973
 4942W        W48036   3.709   1.363  23.078  0.0293 -0.1259  0.0520
 4943W        W48037   2.735   1.680  26.103 -0.0373 -0.0177  0.2789
 4944W        W48038   4.104   0.747  24.245 -0.0796  0.0719 -0.0564
 4945W        W48039   2.799   0.512  23.247  0.0360  0.2439 -0.0246
 4946W        W48040   0.607   0.078  25.470  0.1394  0.2635 -0.1425
 4947W        W48041   1.721   2.031  26.707  0.0760  0.3865 -0.0505
 4948W        W48042   2.359   0.569  24.074  0.0138 -0.1211  0.1460
 4949W        W48043   3.556   0.141  26.922 -0.0331 -0.2158  0.2176
 4950W        W48044  34.548   3.074  25.022 -0.2436  0.0062  0.0294
 4951W        W48045   2.203   3.469  25.246 -0.0084  0.1467 -0.2215
 4952W        W48046   2.771  34.183  24.982 -0.1661  0.1323 -0.3479
 4953W        W48047   1.304   0.313  25.176  0.1161  0.1920  0.2107
 4954W        W48048   0.171   3.865  27.501 -0.1815  0.0608  0.0874
 4955W        W48049   2.452   0.798  23.079 -0.1851  0.2132 -0.1309
 4956W        W48050   3.228   0.374  24.970  0.0482  0.0309 -0.0966
 4957W        W48051   1.123   3.829  24.454 -0.1646  0.6866 -0.1673
 4958W        W48052   2.945   1.042  26.665  0.0875  0.0525  0.2381
 4959W        W48053   2.248  34.064  23.471  0.1365 -0.1050  0.0408
 4960W        W48054   4.224   1.172  25.960 -0.2838  0.0769 -0.3780
 4961W        W48055   1.589   3.908  23.934 -0.1422 -0.0692  0.2702
 4962W        W48056   2.157  33.935  25.094  0.1983  0.0922  0.0337
 4963W        W48057   1.153   3.960  26.979  0.1064  0.0110  0.1831
 4964W        W48058   1.342   3.081  26.431 -0.1746  0.2648  0.0666
 4965W        W48059   2.444   1.819  24.961  0.1231  0.0984 -0.0239
 4966W        W48060   2.148   0.056  27.183 -0.1219 -0.3783  0.0176
 4967W        W48061   1.879   1.204  25.552 -0.4193 -0.1597  0.1998
 4968W        W48062   1.781   1.418  26.557  0.0220  0.0051 -0.0917
 4969W        W48063   4.865   0.621  24.848  0.0706  0.0876 -0.0375
 4970W        W48064   2.040   2.471  26.737 -0.2754  0.0807 -0.2003
 4971W        W48065   1.458   1.806  25.392  0.1255  0.1265 -0.1869
 4972W        W48066   1.276   2.692  24.949  0.2123  0.2578 -0.0616
 4973W        W48067   3.072   1.371  24.833  0.0401 -0.2302  0.0633
 4974W        W48068   2.200   3.229  25.695  0.1732  0.0820  0.0635
 4975W        W48069  34.108   1.721  26.313  0.1424 -0.2003 -0.0212
 4976W        W48070   2.284   2.189  27.590  0.1023  0.0001 -0.0319
 4977W        W48071   1.827   1.638  25.728 -0.1790 -0.3222 -0.3047
 4978W        W48072   1.569   0.284  24.431  0.0446 -0.0494  0.2911
 4979W        W48073   2.634   3.547  22.555  0.1286  0.1335  0.2375
 4980W        W48074  34.623   3.014  27.150  0.0315  0.1619 -0.1294
 4981W        W48075  34.359   1.523  26.764  0.0297 -0.0161 -0.0705
 4982W        W48076   0.056   1.777  24.734 -0.1096  0.0088  0.3278
 4983W        W48077   3.912   3.937  24.716 -0.2946 -0.1949 -0.0647
 4984W        W48078   1.083   2.991  23.236  0.1204  0.0738 -0.0251
 4985W        W48079   4.519   3.882  26.809 -0.1506  0.1467  0.1251
 4986W        W48080   2.008   1.243  22.969  0.0760  0.0241  0.1719
 4987W        W48081   0.343   2.915  24.707  0.2388 -0.2128  0.1888
 4988W        W48082  34.599   4.055  24.242  0.0904  0.1943  0.0999
 4989W        W48083   1.214   2.499  24.046 -0.0421  0.0882  0.0396
 4990W        W48084   0.327   4.135  26.476 -0.2273 -0.2479  0.0026
 4991W        W48085   5.322   1.785  27.127  0.0288 -0.2139  0.1447
 4992W        W48086   3.182   0.484  22.752  0.0444 -0.0871  0.0363
 4993W        W48087   3.102   2.314  26.493  0.0018  0.0225  0.0270
 4994W        W48088   4.499   0.981  24.957  0.0541 -0.0338 -0.2213
 4995W        W48089   2.543   2.938  26.142  0.3026 -0.0074  0.0313
 4996W        W48090   1.053   0.365  27.790  0.1663 -0.3616  0.0115
 4997W        W48091   3.061   1.278  23.789  0.2255  0.0250 -0.0206
 4998W        W48092   1.347   1.520  25.919  0.3991  0.3157 -0.2745
 4999W        W48093   5.216   1.135  27.640 -0.0227 -0.0628  0.2549
 5000W        W48094  34.495   3.985  26.392  0.1300  0.1363  0.1657
 5001W        W48095   3.531   4.341  24.986 -0.1244  0.0265  0.1085
 5002W        W48096   1.488   1.260  25.168 -0.0178  0.1576  0.0957
 5003W        W48097   2.334   0.406  26.163  0.1000  0.1119 -0.0162
 5004W        W48098   3.745  32.977  24.819  0.2264 -0.3079 -0.0163
 5005W        W48099   2.324   2.630  23.098 -0.0493  0.3224  0.2713
 5006W        W48100   3.623  34.477  26.003  0.0054 -0.0366 -0.0976
 5007W        W48101  34.676   3.180  24.516  0.0855 -0.3400 -0.1679
 5008W        W48102   1.750   3.249  25.371  0.2462  0.3580  0.0552
 5009W        W48103   2.796   3.339  26.523  0.2429  0.2284  0.2361
 5010W        W48104   0.176   0.341  25.190 -0.1011 -0.2659  0.1014
 5011W        W48105   4.706  34.519  25.248  0.0262 -0.0457  0.3080
 5012W        W48106   0.798   2.930  26.622 -0.0525 -0.0575  0.2545
 5013W        W48107   3.105  33.552  25.933  0.1980  0.2936 -0.2752
 5014W        W48108   2.407  34.637  26.076 -0.0985  0.1108  0.2267
 5015W        W48109   3.552   0.251  24.584  0.2608  0.2498 -0.0294
 5016W        W48110   2.669   2.543  26.463  0.1403  0.0699 -0.1291
 5017W        W48111   1.502  34.683  26.359 -0.2029  0.2619  0.2367
 5018W        W48112   2.324   1.765  22.879 -0.1502  0.0877 -0.0850
 5019W        W48113   4.256   0.373  25.828 -0.1823 -0.1460  0.0383
 5020W        W48114   3.146   0.779  24.648  0.0893  0.1288  0.1917
 5021W        W48115   3.987   2.806  26.634  0.3520 -0.1579  0.1830
 5022W        W48116  33.933   0.427  26.133 -0.1546  0.0134 -0.1285
 5023W        W48117   3.698   0.334  23.481 -0.1551  0.0171 -0.2705
 5024W        W48118   0.162   1.300  25.569 -0.3794 -0.2728 -0.2610
 5025W        W48119   1.284   1.559  26.562  0.0008  0.1830 -0.1781
 5026W        W48120   1.738   3.975  26.639  0.3681 -0.2501  0.1465
 5027W        W48121   0.135   0.874  25.148  0.2698 -0.0425  0.0960
 5028W        W48122   2.766   1.609  23.453 -0.2209  0.1708  0.0783
 5029W        W48123   4.604   0.285  25.393 -0.2925  0.3476 -0.3467
 5030W        W48124   2.545   3.893  22.925  0.4226 -0.1956 -0.1286
 5031W        W48125   3.057   2.475  23.785  0.1451 -0.2224  0.1002
 5032W        W48126   3.099   3.096  24.847 -0.2157  0.0224 -0.0535
 5033W        W48127   0.519   2.228  25.490  0.0714  0.1133  0.1669
 5034W        W48128   3.284   3.349  26.409  0.2031  0.0284 -0.2086
 5035W        W48129   3.028   3.120  26.052  0.2068  0.0978  0.1918
 5036W        W48130   2.425  34.425  25.211  0.3168 -0.0269  0.2492
 5037W        W48131   0.437   1.815  23.907 -0.0808 -0.0798 -0.4399
 5038W        W48132   1.177   4.007  25.246 -0.4088 -0.4277  0.1593
 5039W        W48133   3.791   0.425  24.959  0.0102 -0.2569 -0.2777
 5040W        W48134   1.850   0.328  26.485 -0.3897 -0.1762  0.2960
 5041W        W48135   3.025   3.833  23.386 -0.2913 -0.0847  0.2037
 5042W        W48136   4.093  33.275  26.851 -0.3348 -0.1442 -0.1703
 5043W        W48137   2.408   2.933  26.713  0.7871 -0.0343 -0.0027
 5044W        W48138   2.025   3.859  28.764  0.0927 -0.0502  0.1275
 5045W        W48139   1.112   1.734  24.423  0.0461 -0.3468 -0.1658
 5046W        W48140   0.903   3.063  26.134 -0.1769 -0.0212 -0.0402
 5047W        W48141   1.696   0.787  25.300 -0.2230  0.1025 -0.0819
 5048W        W48142   1.495   4.228  24.371  0.0271 -0.1869 -0.1044
 5049W        W48143   2.690   2.793  24.712 -0.0168  0.2281  0.4768
 5050W        W48144   2.435   1.205  23.349  0.0558  0.0394  0.0092
 5051W        W48145   2.273   3.161  24.172  0.3674  0.0669  0.4586
 5052W        W48146   1.028  34.554  24.601 -0.0390 -0.1499  0.0563
 5053W        W48147   4.313  34.625  24.462  0.1238 -0.0174  0.1190
 5054W        W48148   2.788  33.992  23.459 -0.5025  0.1562 -0.1851
 5055W        W48149   3.486   2.015  26.701 -0.2581 -0.1621  0.1701
 5056W        W48150   0.861   0.764  23.807  0.1256  0.4241 -0.0666
 5057W        W48151   0.562   2.497  24.540 -0.0055  0.0836  0.0726
 5058W        W48152   0.662   1.676  25.478  0.0538 -0.0287  0.0550
 5059W        W48153   1.841  33.986  26.062  0.0007  0.0480 -0.0578
 5060W        W48154   0.150   1.885  26.983  0.2442  0.1365 -0.1378
 5061W        W48155   1.376   1.905  24.812  0.1373 -0.0178 -0.0872
 5062W        W48156   1.949   1.502  23.998  0.1323  0.0492 -0.1474
 5063W        W48157   2.512   2.753  25.142  0.1404 -0.0225  0.0989
 5064W        W48158   0.804  33.942  25.985 -0.1695  0.1821  0.0585
 5065W        W48159   0.610   0.714  25.048 -0.0501 -0.0662 -0.0504
 5066W        W48160   2.043   2.810  25.284 -0.2074 -0.2575 -0.3012
 5067W        W48161   4.258   3.296  24.661 -0.2004  0.3477 -0.0907
 5068W        W48162   3.325   1.009  24.086 -0.2819  0.2160  0.1288
 5069W        W48163   3.652   3.532  25.532  0.1324  0.1164 -0.1227
 5070W        W48164  33.902   1.898  24.292 -0.0875  0.2505  0.0530
 5071W        W48165   2.341   2.618  27.182 -0.0036 -0.3555 -0.3482
 5072W        W48166   2.554  33.952  25.464 -0.2638 -0.0964  0.0574
 5073W        W48167  34.449   0.390  24.352  0.0450  0.0197 -0.2528
 5074W        W48168   1.671   1.133  27.023 -0.2597  0.1273 -0.2144
 5075W        W48169   2.419   3.064  23.334  0.0864 -0.0986 -0.0255
 5076W        W48170   3.052   2.992  23.853 -0.2354 -0.2088  0.0084
 5077W        W48171   1.445   3.225  27.802 -0.3348  0.2175  0.2181
 5078W        W48172   2.043   3.767  27.085  0.0269  0.0120  0.2570
 5079W        W48173   0.402  34.130  26.310  0.1360  0.0546 -0.4594
 5080W        W48174   2.948   2.184  24.681  0.0931  0.2845 -0.2486
 5081W        W48175   2.170   1.339  26.931 -0.2047  0.1284 -0.0222
 5082W        W48176   3.577   2.296  23.797 -0.1442  0.1635 -0.0457
 5083W        W48177   4.499  33.424  25.364  0.3620 -0.1359  0.0015
 5084W        W48178   3.578   0.550  22.371  0.0526 -0.5017 -0.4267
 5085W        W48179   1.394   0.693  28.695 -0.0644 -0.2068  0.0403
 5086W        W48180   0.957   1.976  25.222  0.1522  0.1533 -0.0105
 5087W        W48181   3.432   1.357  27.466  0.0415 -0.0994 -0.1419
 5088W        W48182   1.990  34.576  24.672  0.1131  0.1412  0.3734
 5089W        W48183   2.467   1.316  24.274  0.3731  0.0170 -0.0797
 5090W        W48184   1.775   3.150  24.484  0.1192 -0.0013 -0.2803
 5091W        W48185   1.239   2.617  25.959  0.0738 -0.1272  0.1678
 5092W        W48186   1.977   0.232  24.215 -0.0573  0.1580  0.1329
 5093W        W48187   1.004   1.178  26.426  0.0014  0.0406 -0.0365
 5094W        W48188   1.616   2.639  25.578 -0.1059  0.3046 -0.1954
 5095W        W48189   4.406   2.358  25.144  0.1571  0.4795  0.2812
 5096W        W48190   2.001   1.307  23.519 -0.2093 -0.2204  0.1739
 5097W        W48191   3.788   1.633  24.576 -0.1076 -0.2990  0.1905
 5098W        W48192   3.366   3.924  25.906 -0.3121 -0.1017 -0.2438
 5099W        W48193   3.491   3.895  27.318  0.0224 -0.2268  0.2335
 5100W        W48194   1.806   4.163  25.665  0.0105 -0.1077  0.2381
 5101W        W48195   2.858   1.723  27.342  0.2300  0.1813 -0.0887
 5102W        W48196   0.164  33.932  25.791 -0.1001 -0.1088 -0.1362
 5103W        W48197   0.939   2.316  24.862  0.0797  0.0122  0.1570
 5104W        W48198   1.866   1.281  26.063  0.2513 -0.1222  0.0914
 5105W        W48199   2.649   0.586  25.307  0.1718  0.1897  0.1488
 5106W        W48200   1.392   1.058  26.104  0.2665  0.0883 -0.1098
 5107W        W48201   3.991   0.890  25.040 -0.4301  0.4970 -0.0451
 5108W        W48202   1.232   4.541  25.224  0.0019 -0.2196  0.0576
 5109W        W48203   3.173   2.350  27.662 -0.3771  0.3034  0.0470
 5110W        W48204   0.500   1.011  31.265 -0.1229  0.0604 -0.1686
 5111W        W48205   0.352   1.840  27.551  0.0581  0.1285 -0.3162
 5112W        W48206   3.833  34.338  27.317  0.0271 -0.1094  0.0639
 5113W        W48207   3.919   1.392  27.764  0.2230  0.1758 -0.1750
 5114W        W48208   0.026   0.772  28.011 -0.0373  0.0611  0.1615
 5115W        W48209   3.438   2.522  29.395 -0.2192  0.3237  0.0945
 5116W        W48210   0.920   0.109  31.100 -0.0485  0.1611 -0.1437
 5117W        W48211   2.204   2.103  29.496  0.0035  0.0534  0.1255
 5118W        W48212   3.878   3.400  30.321  0.0065 -0.3739 -0.0700
 5119W        W48213   2.999   1.756  26.509  0.3611 -0.0092  0.0272
 5120W        W48214   1.193   1.350  31.864 -0.0888  0.0157  0.0642
 5121W        W48215   0.965   2.809  30.673  0.0487  0.0823  0.0185
 5122W        W48216   2.629   0.004  26.977  0.1086 -0.1090 -0.0786
 5123W        W48217   0.089  34.260  30.270 -0.1877  0.1538  0.0000
 5124W        W48218   2.667   2.416  29.223  0.0185 -0.3176  0.0200
 5125W        W48219   1.012   1.590  28.204 -0.3898 -0.1946 -0.1905
 5126W        W48220   1.529   2.022  30.082  0.0536 -0.2203 -0.0371
 5127W        W48221   0.731   1.771  28.564 -0.0422 -0.0159  0.1071
 5128W        W48222   1.686   3.319  28.766  0.2438  0.0406  0.1517
 5129W        W48223   2.376   0.670  29.691 -0.2218 -0.1396 -0.0279
 5130W        W48224   1.349   1.513   0.341  0.1830 -0.0451 -0.0782
 5131W        W48225   1.160   3.327  27.453 -0.0071  0.1310 -0.0422
 5132W        W48226   0.304   1.484  26.751 -0.0459 -0.0197 -0.0543
 5133W        W48227   1.501   0.437  29.730  0.2676  0.0855  0.1277
 5134W        W48228   0.945   2.025  30.319  0.0764 -0.3651  0.0061
 5135W        W48229   2.857  34.311  29.600  0.0323  0.0613 -0.0041
 5136W        W48230   2.913   1.672  28.766 -0.0237 -0.2380  0.0723
 5137W        W48231   2.983   3.026  29.630  0.0831 -0.1342  0.1479
 5138W        W48232   2.645   2.497  30.472 -0.2431  0.0013  0.2496
 5139W        W48233   2.400   3.828  31.870  0.0003 -0.1329  0.1067
 5140W        W48234   0.688   3.049  28.379  0.3110  0.4097 -0.1258
 5141W        W48235  33.519   2.694  28.918 -0.3030  0.1592 -0.2059
 5142W        W48236   2.813   3.693  27.424 -0.2703  0.0932  0.0574
 5143W        W48237   3.679   2.319  27.510  0.0130 -0.1893  0.0222
 5144W        W48238   3.752   2.307  29.709 -0.3123  0.2743  0.0205
 5145W        W48239   1.511   3.071  30.977 -0.0039 -0.0863 -0.2700
 5146W        W48240   0.730   1.976  27.965 -0.0305  0.0474  0.1121
 5147W        W48241   3.603   4.422  30.736 -0.0623 -0.1262  0.3485
 5148W        W48242   0.872   3.609  31.281  0.0135 -0.3666  0.1058
 5149W        W48243   2.141   1.394  29.765  0.2732 -0.2440 -0.1979
 5150W        W48244   1.915   1.171  27.424 -0.2428 -0.3229 -0.3697
 5151W        W48245   2.020   3.119  26.229 -0.2372  0.0423 -0.6086
 5152W        W48246   1.792   1.618  27.057 -0.0445  0.0829 -0.1146
 5153W        W48247   1.919   3.099  31.418 -0.3811 -0.2136 -0.1388
 5154W        W48248   0.988   2.627  29.028  0.3344  0.0083  0.0767
 5155W        W48249   4.859   0.296  28.018  0.0824 -0.1022 -0.1128
 5156W        W48250   1.973   3.487  27.895  0.3401 -0.0590  0.0238
 5157W        W48251   2.949   1.155  27.219  0.1688 -0.0967  0.5726
 5158W        W48252   1.933  34.315  27.153  0.4215 -0.1069  0.1865
 5159W        W48253   2.162  34.499  27.618  0.1129 -0.2648 -0.0126
 5160W        W48254   1.761   2.081  28.121 -0.1710 -0.0155  0.1821
 5161W        W48255   0.760   3.486  29.230 -0.1063 -0.0328  0.2336
 5162W        W48256   1.779   0.513  30.529  0.0543 -0.1810 -0.2337
 5163W        W48257   2.939   3.012  31.033  0.0088  0.0764  0.2742
 5164W        W48258   3.138  34.552  27.676 -0.0074  0.3672 -0.0096
 5165W        W48259   2.025   1.631  29.289 -0.2300 -0.1751 -0.4371
 5166W        W48260   0.058   2.871  31.073  0.0229 -0.2164 -0.2939
 5167W        W48261   0.342   2.884  29.657 -0.0744  0.1688  0.0238
 5168W        W48262   2.406   3.452  26.111  0.3423  0.0697 -0.0425
 5169W        W48263   3.256   3.627  27.669 -0.1603  0.0452 -0.0748
 5170W        W48264   1.345   2.681  26.776  0.0238 -0.1149 -0.0570
 5171W        W48265   0.864   1.479  27.364 -0.0208 -0.2299 -0.1016
 5172W        W48266   0.147   2.424  30.142  0.2624  0.0585 -0.1160
 5173W        W48267   1.258   1.833  31.550 -0.0102  0.0989  0.4467
 5174W        W48268   3.356   0.191  26.143  0.3024  0.3190 -0.0087
 5175W        W48269   4.424   2.915   0.969 -0.0879  0.1454 -0.0403
 5176W        W48270  34.233   3.791  29.768  0.0065  0.0337 -0.1678
 5177W        W48271   4.020   2.018  27.893  0.1150 -0.0284  0.1656
 5178W        W48272   1.033   2.587  29.997 -0.0301 -0.1104  0.0015
 5179W        W48273   1.490   1.541  29.163 -0.0436 -0.0386  0.0292
 5180W        W48274   3.355   2.430  27.057  0.0578 -0.4269 -0.2009
 5181W        W48275   3.029   1.263  28.529 -0.1928  0.2315  0.0599
 5182W        W48276   3.020  33.622  30.945 -0.1662  0.1162  0.0222
 5183W        W48277   2.451   3.212  27.956 -0.0207 -0.1004  0.0978
 5184W        W48278   3.195   0.870  28.192  0.0305 -0.1035  0.0071
 5185W        W48279   3.753   2.932  29.251 -0.1865 -0.0090  0.2473
 5186W        W48280   4.393  34.063  27.289  0.2473  0.0422  0.0818
 5187W        W48281   1.910   2.535  29.236  0.4448 -0.1162 -0.0476
 5188W        W48282   1.853   0.912  31.464 -0.0102  0.1317  0.1869
 5189W        W48283   2.240   4.070  30.329 -0.3267  0.1632 -0.1965
 5190W        W48284   0.560   4.671  28.035  0.0904  0.1738 -0.3298
 5191W        W48285   0.016   3.500  28.793 -0.0607  0.0093  0.0690
 5192W        W48286   1.329   1.869  27.073 -0.0295 -0.0236 -0.1111
 5193W        W48287  33.896   0.066  30.259 -0.0119  0.0318 -0.0223
 5194W        W48288   2.121   3.105  29.616 -0.2270 -0.0755  0.0428
 5195W        W48289   4.484   0.998  28.585  0.0961  0.0929 -0.0721
 5196W        W48290   0.677   1.029  29.587 -0.3817 -0.0380  0.1911
 5197W        W48291   3.446   0.924  28.946 -0.0486 -0.1774 -0.0593
 5198W        W48292   0.641   3.761  26.879 -0.0824 -0.4289  0.0455
 5199W        W48293   2.520   3.549  27.079 -0.2936 -0.1815 -0.1400
 5200W        W48294   2.052   0.849  26.949  0.0775 -0.1020  0.2725
 5201W        W48295   2.550   3.755  24.978  0.1079  0.1748  0.3454
 5202W        W48296   1.942   1.695  28.770  0.1194  0.0511  0.1108
 5203W        W48297   0.159   1.236  28.108 -0.1591  0.0636  0.1148
 5204W        W48298   1.033   1.795   0.067  0.3673  0.0121  0.2247
 5205W        W48299   1.351   0.632  30.303 -0.2683 -0.2872  0.1673
 5206W        W48300   3.866   2.994  31.085 -0.0479  0.1429 -0.1824
 5207W        W48301   0.828   0.979  27.575 -0.0150  0.1218  0.1632
 5208W        W48302   2.969   1.639  28.134 -0.2829  0.1131  0.0467
 5209W        W48303   1.047   2.217  26.877 -0.1775 -0.0137  0.0059
 5210W        W48304  34.573   2.083  28.387  0.3384 -0.0464 -0.0240
 5211W        W48305   3.107   1.060  30.843  0.2061 -0.3382  0.0262
 5212W        W48306   1.851   2.991  27.836  0.2423 -0.3220 -0.0605
 5213W        W48307   3.634   4.366   0.950 -0.0849  0.0844  0.4401
 5214W        W48308   3.812   2.756  29.763  0.1297  0.0310  0.1707
 5215W        W48309   1.494   0.877  30.768 -0.3197  0.1275 -0.0726
 5216W        W48310   1.773   0.793  27.797  0.1497 -0.0854 -0.1432
 5217W        W48311   1.927   4.469  28.810 -0.0864 -0.2743 -0.0462
 5218W        W48312   1.786   2.200  29.637 -0.0223  0.1484  0.0813
 5219W        W48313   2.242   0.757  27.464  0.0467 -0.0386  0.0027
 5220W        W48314   4.030   3.984  30.778  0.0020  0.1230  0.2185
 5221W        W48315   3.016   2.630  28.626 -0.2971  0.3356  0.1919
 5222W        W48316   2.318   0.731  30.669  0.2978  0.1117  0.0646
 5223W        W48317   3.322   0.202   0.970 -0.1197  0.1025  0.0799
 5224W        W48318   3.373   2.153  30.025 -0.3397  0.0199  0.2470
 5225W        W48319   2.704   1.073  28.172  0.1234 -0.2005 -0.1887
 5226W        W48320  34.299   0.220  27.447  0.0549  0.1280 -0.0455
 5227W        W48321   3.118   2.862  30.308  0.0960  0.0568  0.3693
 5228W        W48322  34.582   4.190  27.312 -0.0777  0.0384 -0.1397
 5229W        W48323   0.711   1.759  29.089  0.0012  0.2313 -0.1826
 5230W        W48324   2.261   2.207  28.121  0.0397 -0.1194 -0.0681
 5231W        W48325   2.433   1.917  29.052 -0.1410 -0.1079  0.0060
 5232W        W48326   0.662   2.395  31.120 -0.0047  0.0071  0.4795
 5233W        W48327   2.839   1.501  31.112  0.1860 -0.1797  0.0879
 5234W        W48328   0.353   1.818  26.370  0.0816 -0.1524 -0.0438
 5235W        W48329   1.141   1.063  31.121  0.0031  0.3116  0.1497
 5236W        W48330   3.990   0.078  27.128  0.1898  0.0485  0.1233
 5237W        W48331   4.634   0.768  27.675  0.0532 -0.0373 -0.1688
 5238W        W48332   2.314   4.617   0.106 -0.2298 -0.0022 -0.0837
 5239W        W48333   3.497   2.082  27.959 -0.1830  0.2326  0.1007
 5240W        W48334   3.607  34.324  26.784 -0.0748  0.0053 -0.2133
 5241W        W48335   2.410  34.067  26.109  0.0329 -0.0466  0.0160
 5242W        W48336   0.713   1.243  30.883  0.1561  0.3878  0.1093
 5243W        W48337   1.462   1.830  29.592  0.2642 -0.0125  0.3359
 5244W        W48338   2.754   2.129  28.798  0.0589  0.0953 -0.0832
 5245W        W48339   2.073  34.617  26.673 -0.1446 -0.0204  0.1945
 5246W        W48340   3.345   3.182  29.295 -0.1423  0.2381  0.1877
 5247W        W48341   1.468   3.245  30.028  0.2407  0.1058 -0.0743
 5248W        W48342   2.562   3.911  31.336  0.1301 -0.0347  0.2346
 5249W        W48343   2.079   1.358  28.306 -0.2074 -0.3159 -0.1646
 5250W        W48344   1.235  33.799  30.265  0.0367 -0.0718  0.3316
 5251W        W48345   0.355   2.252  26.639 -0.0254  0.0829  0.3986
 5252W        W48346   2.993   0.067  28.539 -0.0683  0.1834 -0.0738
 5253W        W48347  34.226   4.467  27.057  0.0199  0.0604 -0.1827
 5254W        W48348   4.199  34.499  29.921  0.1663 -0.2588  0.0385
 5255W        W48349   2.524  34.673  28.812  0.2169  0.0407 -0.1147
 5256W        W48350   1.555  33.831  29.672  0.2446 -0.2219  0.1249
 5257W        W48351   2.480   1.763  29.635  0.0364 -0.1827  0.0368
 5258W        W48352   3.701   1.810  27.553  0.0314  0.0646 -0.0401
 5259W        W48353   2.748   2.743  29.929 -0.1503  0.2289  0.0295
 5260W        W48354   2.227   1.900  26.875 -0.1068 -0.0324  0.1410
 5261W        W48355   3.472   0.733  29.457  0.0694 -0.1530  0.1638
 5262W        W48356   1.017   3.240  30.928 -0.0412  0.0587  0.4174
 5263W        W48357   0.212   3.216  31.435 -0.1862 -0.0277 -0.3881
 5264W        W48358   2.067   2.390  30.296  0.1061 -0.0731  0.1046
 5265W        W48359   3.403   0.288  28.040 -0.2053 -0.0628  0.1633
 5266W        W48360   1.804   1.856  31.290 -0.0796  0.2730  0.1370
 5267W        W48361   2.991  34.079  26.850  0.1349  0.3649  0.1519
 5268W        W48362   1.533   4.134  28.073  0.0221  0.0129 -0.1035
 5269W        W48363   1.028   2.442  27.353 -0.2256 -0.4796 -0.1182
 5270W        W48364   0.267   1.172  28.662  0.1195 -0.0566  0.0254
 5271W        W48365   0.720   2.315  31.627 -0.0465  0.2932  0.0108
 5272W        W48366   1.290   2.179  27.717 -0.3069  0.4105  0.2280
 5273W        W48367   2.370   3.556  31.015  0.0472  0.1257 -0.0162
 5274W        W48368   2.410   2.662  29.566  0.1683 -0.2420 -0.0548
 5275W        W48369   2.813   0.548  29.500 -0.1711 -0.1866  0.0321
 5276W        W48370  34.525   2.796  29.754 -0.1650  0.0861 -0.2614
 5277W        W48371   0.401   0.028  27.866 -0.0168 -0.0846  0.1149
 5278W        W48372   0.603   1.453  27.853  0.1876 -0.1544 -0.2380
 5279W        W48373   3.518   0.373  28.495  0.0323 -0.1818  0.1048
 5280W        W48374   3.996   2.526  27.844  0.0989 -0.0020  0.1849
 5281W        W48375   1.005   0.836  30.633 -0.2882  0.0831 -0.1595
 5282W        W48376   1.928   0.946  30.314  0.1468  0.0279  0.2675
 5283W        W48377   0.979   3.701  30.135  0.1247 -0.3842  0.0022
 5284W        W48378   3.049   2.750  29.166  0.0358 -0.1895  0.0729
 5285W        W48379   3.637  33.022  27.951 -0.0665 -0.0985 -0.1102
 5286W        W48380   1.748   2.772  30.643  0.2910 -0.1181 -0.4874
 5287W        W48381   1.509   2.513  30.013 -0.1437  0.1081 -0.2110
 5288W        W48382  34.604   1.624  27.440  0.4479  0.4387  0.3505
 5289W        W48383   2.742   0.550  29.986  0.0467  0.3137  0.0611
 5290W        W48384   0.657   1.155  26.847  0.3958 -0.0760  0.2473
 5291W        W48385   1.021   2.582  28.478  0.0928  0.1007  0.0393
 5292W        W48386   2.857   1.883  29.944  0.3308 -0.0853  0.3014
 5293W        W48387   1.102   1.186  27.913 -0.1548  0.0139 -0.1777
 5294W        W48388   0.790   3.532  28.240 -0.2140 -0.0134 -0.1589
 5295W        W48389   1.714   1.240  31.883 -0.0966  0.0296  0.0521
 5296W        W48390   2.757   2.102  30.848 -0.3150 -0.0478 -0.2302
 5297W        W48391   2.894   0.164  28.087  0.1983 -0.2372 -0.1537
 5298W        W48392   1.426   1.743  27.893 -0.0990 -0.0170 -0.1215
 5299W        W48393   2.177   0.862  28.476 -0.1562 -0.1537 -0.0923
 5300W        W48394   2.976   2.298  29.656  0.0193 -0.2369  0.2429
 5301W        W48395   3.383   0.622  29.953 -0.0114 -0.2421 -0.0469
 5302W        W48396  34.288   3.965  30.423  0.2741 -0.0833  0.1020
 5303W        W48397   0.559   0.268  29.977  0.0013  0.1706  0.1270
 5304W        W48398   4.311   2.764  27.372  0.1805 -0.1270 -0.0590
 5305W        W48399   3.372   1.576  28.536 -0.1060  0.1242  0.3033
 5306W        W48400   0.677   2.827  25.723 -0.1100  0.0150  0.4609
 5307W        W48401   0.221   1.804  28.569 -0.1433 -0.1755 -0.1240
 5308W        W48402   0.949   1.936  27.479  0.0524  0.0122  0.1740
 5309W        W48403   2.403   0.935  30.169 -0.0335 -0.0493 -0.3407
 5310W        W48404   0.718   1.822  29.639  0.1051 -0.0299 -0.1947
 5311W        W48405   1.524   2.510  28.301  0.1485  0.5673  0.4120
 5312W        W48406   0.492   2.268  29.864 -0.0665  0.0430 -0.0559
 5313W        W48407   4.258   0.611  27.221 -0.1836  0.0758  0.5097
 5314W        W48408   1.379   4.409  27.594  0.2949 -0.1453 -0.2941
 5315W        W48409   2.662   1.362  29.167 -0.3581 -0.0474 -0.2710
 5316W        W48410   3.067   0.988  29.715  0.3142  0.1079 -0.2922
 5317W        W48411   3.522   2.653  26.601 -0.0538  0.0867 -0.0611
 5318W        W48412   2.372   0.330  31.271  0.0642  0.0263  0.0461
 5319W        W48413   1.584   0.072  31.845 -0.0350  0.1797 -0.3296
 5320W        W48414   2.371   2.869  29.123  0.1954  0.0295  0.2102
 5321W        W48415   1.057   2.282  30.770  0.0143 -0.2000 -0.2035
 5322W        W48416   2.810   4.576  30.560  0.0723  0.1766 -0.1366
 5323W        W48417   0.842   1.529  30.472  0.0410  0.0770 -0.0897
 5324W        W48418   2.586   0.589  28.427  0.4157  0.1648 -0.0298
 5325W        W48419   1.575   1.213  27.891 -0.1122  0.0375 -0.2657
 5326W        W48420   2.514   2.027  30.364  0.1135 -0.0597  0.0369
 5327W        W48421   3.576   3.185  29.838 -0.4021 -0.1775  0.0360
 5328W        W48422   0.692   2.585  26.954 -0.0330 -0.0897  0.1768
 5329W        W48423   3.726   1.350  28.869 -0.0203 -0.0089  0.1119
 5330W        W48424   1.346   2.011  31.127  0.3847 -0.1099  0.0725
 5331W        W48425   3.094  34.575  26.663 -0.0992  0.1820  0.3361
 5332W        W48426   2.760   3.004  28.291 -0.2088  0.2799  0.1524
 5333W        W48427   1.780   3.320  27.398 -0.1058  0.0636 -0.1604
 5334W        W48428   0.356   0.751  31.699  0.2090 -0.0709 -0.0898
 5335W        W48429   2.688   2.425  27.849  0.3409 -0.0119 -0.0496
 5336W        W48430   3.562   1.059  28.476  0.0214 -0.0302 -0.0909
 5337W        W48431   3.322   1.242  31.339  0.0183  0.0276  0.1263
 5338W        W48432   3.252   1.591  30.060  0.2162  0.2909 -0.3320
 5339W        W48433   1.351   0.902  31.617 -0.3165 -0.1192  0.0227
 5340W        W48434   0.709   0.561  30.867 -0.1360 -0.2522 -0.1171
 5341W        W48435   3.040   3.316  30.645  0.1354 -0.3912 -0.1338
 5342W        W48436   3.898   2.294  26.562  0.0942 -0.0627  0.6185
 5343W        W48437   3.596  34.072  30.311  0.1663  0.1712  0.2834
 5344W        W48438   3.718   0.610  27.173  0.2841 -0.2126  0.1870
 5345W        W48439   3.247   1.793  27.727 -0.0411 -0.1205 -0.1539
 5346W        W48440   1.221   0.988  29.674 -0.0195  0.0226 -0.2684
 5347W        W48441   3.545   1.821  30.398  0.0814 -0.1926  0.6210
 5348W        W48442   1.358   1.071  27.479 -0.0003  0.3578  0.2751
 5349W        W48443   2.080   1.129  29.376 -0.1924 -0.1248  0.0778
 5350W        W48444   2.538   2.345  25.937  0.2278  0.0088 -0.1385
 5351W        W48445   1.751   1.994  29.166 -0.1570  0.0174  0.2121
 5352W        W48446   1.179   0.362  26.897 -0.0414 -0.0517 -0.0340
 5353W        W48447   0.460   0.479  29.506 -0.0202 -0.0892 -0.1188
 5354W        W48448   0.994   3.077  29.771  0.3043 -0.0556  0.0345
 5355W        W48449   0.591   0.873  26.304 -0.0912 -0.1058 -0.0077
 5356W        W48450   1.497   1.007  26.578  0.1607 -0.0985  0.2587
 5357W        W48451   1.242   2.972  29.351  0.1574  0.0634 -0.0183
 5358W        W48452   3.451   1.305  29.575  0.1293  0.1732 -0.0724
 5359W        W48453   2.864  34.338  27.277 -0.1372  0.0199  0.1634
 5360W        W48454   3.505   1.142  30.065  0.1284 -0.1188 -0.0747
 5361W        W48455   1.605   3.092  28.246  0.0574 -0.1057  0.1779
 5362W        W48456   3.241   0.389  29.002  0.1085 -0.0409  0.0309
 5363W        W48457   1.707   4.119  30.393 -0.4442  0.0200 -0.0043
 5364W        W48458  34.385   3.109  28.918  0.3529 -0.0811  0.0475
 5365W        W48459   1.366   2.396  30.443 -0.5838 -0.3160 -0.2436
 5366W        W48460   1.496   1.553  30.921  0.0517 -0.1369  0.1527
 5367W        W48461   2.725   2.091  28.274 -0.2855 -0.3031 -0.0590
 5368W        W48462   1.099   1.504  28.874 -0.0989  0.1738  0.1876
 5369W        W48463   3.709   0.297  29.300 -0.0001 -0.0659 -0.0285
 5370W        W48464   2.586   1.602  30.626 -0.0055 -0.0314 -0.0497
 5371W        W48465   0.648   2.514  30.287 -0.4366 -0.4221 -0.3368
 5372W        W48466   2.832   4.156  30.301  0.1867  0.1609 -0.3335
 5373W        W48467   3.406   1.255  27.971 -0.0623 -0.1945  0.1315
 5374W        W48468   1.297   2.393  29.294  0.0046 -0.0759  0.0355
 5375W        W48469  33.808   1.475  30.275 -0.0172 -0.1435  0.0916
 5376W        W48470   1.965   0.942  29.812 -0.2245  0.0311 -0.2130
 5377W        W48471   2.172   1.113  27.849 -0.1915  0.0506 -0.0331
 5378W        W48472   1.743   0.677  27.312 -0.1103 -0.2647  0.3110
 5379W        W48473   1.105   3.041  28.126  0.1047 -0.2132  0.0719
 5380W        W48474   1.994   3.897  31.512 -0.3449  0.2719  0.1546
 5381W        W48475   0.578   1.018  30.444  0.0764  0.0108  0.1359
 5382W        W48476   1.638   4.168  29.136 -0.0162  0.0421 -0.1589
 5383W        W48477   3.100   3.210  27.390 -0.1515 -0.0279  0.1045
 5384W        W48478   2.350   2.777  27.690  0.1487 -0.1691 -0.1105
 5385W        W48479   3.293   4.294  30.302 -0.0183  0.3430  0.0561
 5386W        W48480   2.391   0.061  28.080 -0.1452 -0.1562 -0.0438
 5387W        W48481   0.567   2.912  29.185 -0.1542  0.1207  0.0553
 5388W        W48482   0.149   3.097  28.015 -0.1031 -0.0344 -0.0460
 5389W        W48483   3.908   3.305  28.045 -0.1524 -0.1518 -0.1779
 5390W        W48484   1.380   2.915  28.649 -0.0823 -0.1666  0.1419
 5391W        W48485   2.805   3.380  30.152  0.1952 -0.4135 -0.0804
 5392W        W48486   4.083  33.683  26.065  0.0604 -0.0548  0.0824
 5393W        W48487   3.104   2.397  28.169  0.0691 -0.1223  0.2461
 5394W        W48488   4.245   1.639  28.053 -0.0839 -0.1913  0.0047
 5395W        W48489   2.434   4.135  30.901 -0.0413 -0.1158  0.3025
 5396W        W48490   1.486   1.051  30.071  0.0581  0.0349 -0.0946
 5397W        W48491   1.565   0.342  27.777  0.1378 -0.2919 -0.2804
 5398W        W48492   1.770   2.177  30.917 -0.0215  0.0971 -0.1208
 5399W        W48493   3.284  34.570  30.657 -0.1141  0.0222  0.1710
 5400W        W48494   0.133   2.917  31.909 -0.0652  0.1026  0.0211
 5401W        W48495   4.104   2.628  28.705  0.0554  0.3061  0.2296
 5402W        W48496   0.287   1.909  29.336  0.0235  0.2361 -0.0364
 5403W        W48497   1.496   1.527  27.460  0.0163  0.2568  0.0859
 5404W        W48498   4.003  34.243  28.587  0.3977 -0.0920 -0.1607
 5405W        W48499   2.200   3.201  27.086 -0.0019 -0.0260  0.0803
 5406W        W48500   2.902   1.913  29.354  0.0678  0.0171  0.1378
 5407W        W48501   1.811   2.012  27.554 -0.3293 -0.0093  0.0176
 5408W        W48502   0.963   4.074  29.813  0.2343  0.0643 -0.4109
 5409W        W48503   2.386   3.099  30.136  0.2764  0.2326  0.3593
 5410W        W48504   0.881   0.748  29.116  0.2288 -0.3586 -0.2957
 5411W        W48505   4.703   1.472  28.438 -0.3524  0.2021  0.2692
 5412W        W48506   1.189  34.622  31.525 -0.1497  0.1689  0.2040
 5413W        W48507   2.875   0.111  29.823  0.0521 -0.0818  0.2167
 5414W        W48508   1.894   2.570  27.590  0.0704 -0.1174  0.0871
 5415W        W48509   2.657   0.218  27.640  0.1619  0.3048 -0.2857
 5416W        W48510   0.914   3.305  31.859  0.1360 -0.2014 -0.0902
 5417W        W48511   1.098   1.053   0.483  0.0584  0.1568  0.1533
 5418W        W48512   1.983   2.252  27.183  0.1359  0.2386  0.0306
 5419W        W48513   4.210   3.142  30.598 -0.0223  0.1595  0.2313
 5420W        W48514   0.808   1.910  26.472  0.0924 -0.1573  0.3938
 5421W        W48515   2.778   4.855  31.405 -0.1970  0.1947  0.0082
 5422W        W48516   1.634   1.552  28.305  0.3646  0.3729 -0.0011
 5423W        W48517   2.762   0.744  27.645  0.1382 -0.2056 -0.0158
 5424W        W48518   2.279   2.770  30.708 -0.1516  0.0479 -0.2679
 5425W        W48519   2.322  34.499  31.012 -0.3528 -0.0211  0.1215
 5426W        W48520   3.215   3.913  31.301 -0.1857 -0.0112 -0.2352
 5427W        W48521   1.911   0.077  29.681 -0.1939  0.2947 -0.1534
 5428W        W48522   5.165   1.614  28.113 -0.0283 -0.0362 -0.0848
 5429W        W48523   4.254   1.537  29.809  0.1701 -0.4130  0.0580
 5430W        W48524  34.464   4.510  28.203  0.0467 -0.3805  0.2085
 5431W        W48525   2.409   1.728  28.079  0.3029 -0.0412  0.4084
 5432W        W48526   2.064   2.634  29.898 -0.1562  0.0383 -0.2239
 5433W        W48527  34.584   2.020  30.221 -0.0049 -0.1955 -0.0453
 5434W        W48528   2.909   3.824  29.928  0.0841 -0.1227  0.3375
 5435W        W48529   3.447   2.751  28.837 -0.2252  0.1160  0.3831
 5436W        W48530   2.909  33.515  28.285 -0.0833 -0.1631  0.1645
 5437W        W48531   1.128   1.935  29.156  0.0129  0.0086 -0.1199
 5438W        W48532   1.737   3.015  29.166  0.3116  0.0442  0.2625
 5439W        W48533   3.128   0.281  30.253 -0.1567  0.1342  0.0550
 5440W        W48534   3.745   1.683  29.820  0.0078 -0.0237 -0.2732
 5441W        W48535   2.888   2.757  27.357 -0.3339 -0.1405 -0.0846
 5442W        W48536   3.868  33.507  29.720  0.0947  0.3369  0.1722
 5443W        W48537   3.021   1.829  30.444  0.2468  0.0439 -0.1219
 5444W        W48538   1.202   3.965   0.860  0.1271  0.4911 -0.3018
 5445W        W48539   0.411   2.173  28.278  0.1245  0.0314 -0.1334
 5446W        W48540   1.975   3.221  30.934  0.0060  0.0009  0.2504
 5447W        W48541   1.990   2.613  28.114  0.3561  0.3736 -0.1952
 5448W        W48542   2.310   3.461  29.243 -0.4618  0.2772 -0.0242
 5449W        W48543   3.072   3.553  29.576 -0.3716 -0.2252  0.0260
 5450W        W48544   2.132   1.257  28.849  0.1217  0.0843 -0.0193
 5451W        W48545   3.743   2.332  29.023 -0.2015 -0.0178  0.2835
 5452W        W48546   2.982   1.254  27.686  0.0916 -0.2092 -0.2409
 5453W        W48547   4.402   0.279  26.891  0.0178  0.1370  0.2389
 5454W        W48548   3.085   0.152  27.112 -0.0511  0.0491  0.1999
 5455W        W48549   1.141   4.208  31.033 -0.0041  0.2472  0.1512
 5456W        W48550  33.824   1.853  27.054  0.2321 -0.0975 -0.3332
 5457W        W48551  34.522   2.138  26.682 -0.3462 -0.4404  0.0489
 5458W        W48552   2.277   2.008  28.601  0.0919  0.2986  0.0695
 5459W        W48553   2.074   1.095  30.912  0.1416 -0.1529 -0.1805
 5460W        W48554   0.785   0.570  30.307  0.0618 -0.0257  0.1728
 5461W        W48555   1.200   2.400  31.413  0.0805 -0.0818 -0.1237
 5462W        W48556   0.484   0.829  30.011  0.1165  0.1031  0.0598
 5463W        W48557   2.516   2.863  25.619  0.0458  0.1113 -0.2051
 5464W        W48558   2.310   0.618  27.909  0.0132  0.2940 -0.0538
 5465W        W48559   1.243   0.481  29.256  0.3471  0.0952  0.0007
 5466W        W48560   2.760   2.315  27.377  0.3099  0.0875 -0.1682
 5467W        W48561   4.049   2.236  28.347 -0.5292 -0.3056 -0.3069
 5468W        W48562   3.154  34.409  28.170  0.1980 -0.1107 -0.2317
 5469W        W48563   3.665   3.863   0.437  0.4157  0.0311  0.0473
 5470W        W48564  34.336   1.887  27.126 -0.1104  0.1771 -0.1168
 5471W        W48565   2.505   1.261  31.433 -0.2827  0.0623 -0.0633
 5472W        W48566   1.233   1.254  30.607  0.0829  0.0862  0.0497
 5473W        W48567  34.422  34.466  26.460  0.1387  0.4022  0.2630
 5474W        W48568   2.934   1.449  29.613  0.0528  0.1623 -0.1929
 5475W        W48569   3.769   2.811  28.326  0.4102 -0.3899 -0.1870
 5476W        W48570   3.248   4.476  27.379  0.2131 -0.1234  0.1352
 5477W        W48571   2.479   1.536  30.088 -0.0059 -0.0757 -0.0605
 5478W        W48572   1.461   4.444  30.698 -0.1333 -0.3855  0.3748
 5479W        W48573   1.409  33.782  30.827  0.1187  0.0837  0.1134
 5480W        W48574   2.746   1.946  27.795 -0.1545  0.0969 -0.2920
 5481W        W48575   1.434   3.197  31.829  0.0597 -0.0942  0.1263
 5482W        W48576   3.445   1.021  27.087 -0.0423 -0.1512  0.2244
 5483W        W48577   4.889  34.159  28.622  0.3982 -0.1479 -0.0080
 5484W        W48578   2.478   1.265  27.512  0.0467  0.3465  0.4028
 5485W        W48579   1.193   0.466  31.729  0.2114 -0.0730  0.4187
 5486W        W48580   0.262   0.841  30.811 -0.1614  0.2921 -0.3087
 5487W        W48581   2.973   2.310  30.194  0.2375 -0.0017  0.3679
 5488W        W48582   0.975   1.037  30.077  0.1380 -0.2431  0.0470
 5489W        W48583   4.319   1.158  28.149 -0.0917 -0.0163  0.2878
 5490W        W48584   3.645   3.438  27.138 -0.0604  0.0781 -0.1072
 5491W        W48585   2.171   1.926  29.959  0.1132 -0.0170  0.0810
 5492W        W48586   2.071   0.322  27.627 -0.2083  0.3218  0.1642
 5493W        W48587   1.312   2.614  30.982  0.0965  0.0370 -0.0115
 5494W        W48588   1.839   2.188  28.707  0.0305 -0.0774 -0.2797
 5495W        W48589   2.562   3.649  30.529 -0.4107  0.1370 -0.0313
 5496W        W48590   0.936   0.717  28.338  0.0619  0.0965 -0.2040
 5497W        W48591   2.542   0.425  27.205  0.4887 -0.0533 -0.1263
 5498W        W48592   2.548   3.147  28.727 -0.1269  0.0370 -0.1055
 5499W        W48593   3.307   3.414  31.543  0.1497 -0.4561  0.0258
 5500W        W48594   3.537   3.668  29.365  0.1887  0.0483 -0.0049
 5501W        W48595   3.210   2.266  29.049 -0.0568  0.3575  0.3688
 5502W        W48596   0.615  34.413  29.021  0.0604 -0.1331 -0.2651
 5503W        W48597   0.225   1.215  27.584  0.0852  0.4499  0.0866
 5504W        W48598   1.433   2.444  28.797  0.3854 -0.1756 -0.0186
 5505W        W48599   3.320   2.630  29.879 -0.2180 -0.0290 -0.1199
 5506W        W48600   1.025   1.457  29.416  0.0901 -0.2230  0.0001
 5507W        W48601   3.774   0.601  28.860  0.2816 -0.1242 -0.0386
 5508W        W48602   0.834   2.971  30.252  0.2359 -0.0944 -0.2109
 5509W        W48603   2.314   2.420  28.888  0.2695 -0.0334 -0.1731
 5510W        W48604   2.430   0.740  29.244 -0.0405 -0.0964  0.1060
 5511W        W48605   2.416   4.627  31.016 -0.4891  0.0568 -0.0817
 5512W        W48606   1.235   1.439   0.825  0.2293  0.3513  0.0693
 5513W        W48607   0.448   1.469   0.162  0.1650 -0.2321  0.1359
 5514W        W48608   0.992   2.778   0.087 -0.0054  0.3538  0.2039
 5515W        W48609   3.490   2.978  30.724  0.0876  0.1042 -0.1792
 5516W        W48610   4.201   1.414  28.592 -0.0165  0.2602 -0.1671
 5517W        W48611   1.135   2.296  31.967  0.1313 -0.2568  0.0619
 5518W        W48612   3.917   1.149  29.801 -0.3147  0.0447 -0.2685
 5519W        W48613   2.669   2.596  31.025  0.0721 -0.0829  0.1441
 5520W        W48614   2.705   3.255  31.698  0.0431  0.1632 -0.0212
 5521W        W48615   0.321   0.525  31.242 -0.1529  0.0625  0.0635
 5522W        W48616   1.490   4.021  31.351  0.2636  0.0065  0.0946
 5523W        W48617   1.706   1.312   0.774 -0.1590 -0.0504 -0.3436
 5524W        W48618   2.430   1.830  31.108 -0.0484  0.3256  0.1884
 5525W        W48619   1.862   3.566  31.858  0.2016  0.1913 -0.2643
 5526W        W48620   0.526   1.813  30.893 -0.0966 -0.0811  0.0047
 5527W        W48621   2.014   1.977  31.740  0.1049 -0.0900 -0.2071
 5528W        W48622   0.052   1.165  31.566  0.0495  0.0961 -0.1790
 5529W        W48623   1.649  34.571  31.325 -0.2926 -0.1921 -0.2859
 5530W        W48624   1.506  34.602   0.793  0.0746 -0.1727 -0.0505
 5531W        W48625   0.984   3.349   0.792  0.1028 -0.1363  0.1891
 5532W        W48626   3.941   2.095  30.546 -0.2631  0.2784 -0.0318
 5533W        W48627   2.562   1.141  30.775 -0.0347  0.1914  0.2520
 5534W        W48628   3.586   1.522   0.354 -0.3072  0.1268 -0.0088
 5535W        W48629   3.628   1.108  30.958  0.0558 -0.2669 -0.2158
 5536W        W48630   2.213   2.230  31.337  0.1750  0.2975 -0.2728
 5537W        W48631   0.417   4.004  31.684 -0.0331  0.1206  0.1281
 5538W        W48632   1.605   1.778   0.988 -0.0695  0.0385 -0.1049
 5539W        W48633   2.721   2.221  31.385 -0.0412  0.1765  0.2705
 5540W        W48634   1.065   2.844  31.590  0.2875 -0.2169  0.0064
 5541W        W48635   1.349   1.013   1.013  0.0353 -0.1515 -0.0241
 5542W        W48636   4.266   1.584   0.284  0.0074 -0.0339 -0.0777
 5543W        W48637   2.518   0.670   0.102  0.1902  0.2977  0.0735
 5544W        W48638   0.355   1.495  30.528  0.2339 -0.2782 -0.1763
 5545W        W48639   2.470   1.816  31.608 -0.0460  0.2776 -0.1675
 5546W        W48640   1.287   3.682  31.691  0.0050  0.2165  0.1028
 5547W        W48641   2.301   3.474  31.501 -0.1318 -0.0770 -0.2832
 5548W        W48642   3.201   1.930  31.320 -0.1031 -0.1553 -0.0541
 5549W        W48643   2.251   2.698   0.170 -0.0128  0.0590 -0.0306
 5550W        W48644   3.242   0.303  29.496  0.1155  0.2398  0.0097
 5551W        W48645   2.264   2.747  31.616 -0.0428 -0.0355  0.2202
 5552W        W48646   2.103   1.603  31.963  0.1342 -0.0396 -0.2852
 5553W        W48647   2.114   4.321  31.259  0.1743  0.1861  0.0126
 5554W        W48648   0.653   0.677   0.438  0.0775 -0.0369 -0.0996
 5555W        W48649   0.844   0.697  31.422  0.3131  0.3486 -0.0174
 5556W        W48650   3.708   0.825  31.519  0.2153  0.1064  0.0633
 5557W        W48651   1.871   2.977  31.943  0.5000 -0.0008 -0.1092
 5558W        W48652   3.742   1.619  31.499 -0.0101  0.2365 -0.1564
 5559W        W48653   0.215   2.523  31.595  0.1995 -0.3204 -0.1617
 5560W        W48654   1.975   2.204   1.771 -0.0690  0.0310  0.1234
 5561W        W48655   2.326   0.835  31.234  0.0111 -0.1823 -0.1132
 5562W        W48656   3.449   1.306  31.835 -0.0219 -0.0498 -0.1806
 5563W        W48657   1.920   1.847  30.423 -0.0070  0.0834  0.1102
 5564W        W48658   2.917   2.016  31.784 -0.3395  0.4546 -0.1558
 5565W        W48659   2.415   2.316  31.852 -0.1593  0.0554  0.0509
 5566W        W48660   3.600   2.568  31.010  0.1326 -0.3154  0.0057
 5567W        W48661   1.818   3.918  30.975  0.2034  0.2351 -0.1001
 5568W        W48662   1.760   3.683  30.163  0.0411 -0.2275 -0.0971
 5569W        W48663   1.280   0.554  31.236 -0.0653 -0.4267  0.1476
 5570W        W48664   0.415   1.730   1.292 -0.2459 -0.1461  0.0211
 5571W        W48665   0.664   2.962  31.145  0.0395  0.1222 -0.0273
 5572W        W48666   0.975   0.709   0.829 -0.2053 -0.1308  0.0473
 5573W        W48667  33.840  34.366  30.742 -0.2258  0.0352 -0.1350
 5574W        W48668   2.879   3.812  30.926 -0.0255 -0.2600  0.3118
 5575W        W48669   3.572   2.695  31.826  0.0654  0.1375 -0.0641
 5576W        W48670   4.088   1.269  31.465 -0.0843  0.0113  0.0619
 5577W        W48671   2.139   5.503  19.453 -0.0021  0.1114 -0.0469
 5578W        W48672   0.690   4.463  17.490  0.0137 -0.1134 -0.2551
 5579W        W48673   3.188   4.630  16.809 -0.0376 -0.3946 -0.1057
 5580W        W48674   3.721   4.774  17.719  0.1602  0.1988 -0.0365
 5581W        W48675  34.061   3.684  17.359 -0.1116 -0.2145  0.0913
 5582W        W48676   1.933   6.902  17.044 -0.1458 -0.0058  0.2030
 5583W        W48677   1.133   3.667  19.738 -0.1215  0.2547 -0.3026
 5584W        W48678   4.380   6.242  19.004  0.2387 -0.2596 -0.1113
 5585W        W48679   3.682   7.185  17.775  0.2081  0.0376 -0.0509
 5586W        W48680   3.111   5.762  16.553  0.1176 -0.0079 -0.0105
 5587W        W48681   2.068   5.838  18.919  0.3575 -0.0421  0.0467
 5588W        W48682   3.217   6.153  18.349 -0.0277 -0.1444  0.5698
 5589W        W48683   1.697   5.314  17.767  0.1042 -0.0443  0.0712
 5590W        W48684  34.493   3.563  18.041 -0.0282 -0.0120 -0.0626
 5591W        W48685   3.089   6.677  18.327  0.5146  0.1414 -0.2829
 5592W        W48686   0.924   5.413  16.089  0.1563  0.1487 -0.3116
 5593W        W48687   1.927   4.840  19.211 -0.0036 -0.0563  0.0433
 5594W        W48688   2.439   5.123  18.395 -0.0525 -0.3970  0.0215
 5595W        W48689   1.652   7.246  17.913  0.1084  0.1996  0.1379
 5596W        W48690   1.127   4.902  19.114 -0.0363  0.3814 -0.1268
 5597W        W48691   2.101   4.105  19.780  0.0500 -0.2491  0.2084
 5598W        W48692   1.190   6.463  17.252 -0.3185  0.2978 -0.1200
 5599W        W48693   0.208   3.785  16.407 -0.1624  0.0490 -0.0746
 5600W        W48694   0.469   4.271  19.029  0.2352  0.1325 -0.0404
 5601W        W48695   2.688   7.448  18.390 -0.0340  0.1228  0.1796
 5602W        W48696   3.362   5.003  17.074  0.3834 -0.4146  0.1553
 5603W        W48697   3.096   5.511  19.870  0.2155 -0.1456 -0.0169
 5604W        W48698   0.891   6.743  19.563 -0.1216  0.2111  0.0993
 5605W        W48699   2.384   7.947  17.299 -0.3232  0.0018 -0.0134
 5606W        W48700   3.728   6.145  20.943 -0.0265 -0.1796  0.1182
 5607W        W48701  33.981   6.897  16.918  0.0832 -0.0972  0.2501
 5608W        W48702  34.123   6.128  16.873  0.1663  0.3250 -0.0960
 5609W        W48703   0.868   7.108  16.464  0.3299 -0.2931 -0.0068
 5610W        W48704   4.406   6.475  17.617  0.0102  0.4290 -0.1295
 5611W        W48705   2.807   7.026  18.731  0.2402  0.0413  0.0076
 5612W        W48706   1.519   6.880  18.428 -0.1021 -0.0649  0.0877
 5613W        W48707   0.139   7.056  16.865 -0.1662 -0.0773  0.2052
 5614W        W48708   2.707   6.727  20.510  0.0582  0.1857  0.0076
 5615W        W48709   1.847   6.665  19.780  0.0169 -0.2860  0.1303
 5616W        W48710   3.394   5.246  18.673 -0.1487  0.2922 -0.2310
 5617W        W48711   2.410   6.078  16.699 -0.0026  0.0978  0.1412
 5618W        W48712   1.318   6.917  16.475  0.2103 -0.3776 -0.1324
 5619W        W48713   2.629   5.903  17.986 -0.0086  0.3253  0.2363
 5620W        W48714   0.655   5.327  18.892 -0.2326 -0.1714 -0.0448
 5621W        W48715   1.351   5.524  18.358 -0.0451  0.1221 -0.3835
 5622W        W48716   2.970   4.497  20.292  0.0322  0.2545 -0.2606
 5623W        W48717   0.680   6.465  15.774 -0.0103 -0.0667  0.1541
 5624W        W48718   2.986   4.189  17.167 -0.2143 -0.0899 -0.2541
 5625W        W48719   0.764   6.064  15.443 -0.0546 -0.0612  0.1633
 5626W        W48720   3.848   5.319  16.740  0.0078 -0.2485 -0.1937
 5627W        W48721   1.178   4.589  18.732 -0.0699 -0.1119  0.2550
 5628W        W48722   1.115   7.112  18.005  0.1644  0.1777  0.1339
 5629W        W48723   1.717   5.049  18.188 -0.2179 -0.0799  0.1724
 5630W        W48724   2.390   6.999  18.481  0.1635 -0.0450  0.2408
 5631W        W48725   1.420   5.756  17.821  0.1595  0.1442  0.0968
 5632W        W48726   2.523   5.248  19.696 -0.2613  0.0132  0.0564
 5633W        W48727   1.091   5.923  18.561 -0.0026 -0.1303  0.1081
 5634W        W48728   2.077   6.168  18.472  0.2546  0.0493 -0.0758
 5635W        W48729   3.455   7.429  16.627 -0.0186 -0.0136 -0.1253
 5636W        W48730   3.348   6.188  16.580 -0.1184 -0.1515  0.0349
 5637W        W48731   2.621   6.528  16.957  0.3508  0.2351 -0.2888
 5638W        W48732   1.287   4.729  18.185 -0.0140  0.0755 -0.0936
 5639W        W48733   0.242   5.080  18.523  0.2375 -0.1044 -0.0641
 5640W        W48734  34.469   5.088  18.334  0.0172  0.0771  0.1250
 5641W        W48735   1.167   3.819  16.134  0.0207  0.1513  0.0916
 5642W        W48736   3.430   7.998  18.836 -0.1506 -0.2082  0.0169
 5643W        W48737  33.891   7.718  18.657  0.1870  0.0246  0.0240
 5644W        W48738   2.740   3.769  19.032  0.1818 -0.1463  0.0941
 5645W        W48739   0.627   5.380  17.828  0.2217 -0.1187 -0.1918
 5646W        W48740   4.019   5.806  20.010  0.0394  0.1499  0.0168
 5647W        W48741   2.793   5.058  16.870 -0.1030  0.1267 -0.3109
 5648W        W48742   2.964   3.468  17.755  0.1594 -0.2692 -0.0029
 5649W        W48743   2.917   3.965  18.553 -0.3532 -0.1553  0.2295
 5650W        W48744   0.862   5.973  16.066  0.1788  0.3565  0.0173
 5651W        W48745   1.106   5.420  17.578 -0.0692  0.0296  0.3686
 5652W        W48746   3.269   6.966  17.971  0.3890  0.0016  0.3786
 5653W        W48747   4.122   5.736  16.765  0.1758  0.2607 -0.3471
 5654W        W48748   0.417   5.649  19.223 -0.2018  0.1468  0.4173
 5655W        W48749   2.130   4.973  19.612  0.1906 -0.0764 -0.0662
 5656W        W48750   2.696   6.535  20.958  0.0752 -0.2743  0.1991
 5657W        W48751  34.346   7.243  16.828 -0.2269 -0.0942  0.0895
 5658W        W48752   0.536   5.833  18.770  0.2169  0.0312 -0.1453
 5659W        W48753   0.806   6.146  16.558 -0.0217  0.1645 -0.0970
 5660W        W48754  33.526   4.516  18.703  0.0417 -0.0675 -0.0444
 5661W        W48755   0.975   5.045  18.575  0.1038 -0.0991  0.2555
 5662W        W48756   3.333   3.781  16.984 -0.1100 -0.1897  0.2919
 5663W        W48757   0.346   3.815  19.208 -0.0611 -0.0266  0.0519
 5664W        W48758   2.703   3.835  18.111 -0.0664 -0.3570 -0.3615
 5665W        W48759   1.057   5.373  17.092 -0.1774  0.3897 -0.3451
 5666W        W48760   2.126   7.791  16.909  0.1742 -0.1407  0.1557
 5667W        W48761   4.325   6.201  17.038 -0.3242  0.1045 -0.0431
 5668W        W48762   1.668   6.503  17.295  0.1926 -0.3753  0.0832
 5669W        W48763   0.393   4.101  17.969  0.0519  0.1177  0.0985
 5670W        W48764   0.491   3.981  17.330  0.0058  0.3117  0.1498
 5671W        W48765   1.102   4.815  19.571 -0.2955 -0.1620 -0.0784
 5672W        W48766   0.592   3.603  17.996  0.0947  0.3280 -0.1724
 5673W        W48767   3.202   6.334  19.274 -0.1883 -0.1789 -0.1185
 5674W        W48768   1.150   3.556  17.662 -0.0383  0.2753  0.0445
 5675W        W48769   2.722   5.360  18.045 -0.0427  0.0169 -0.1432
 5676W        W48770   2.099   5.462  18.046  0.2519 -0.2069  0.0218
 5677W        W48771  33.702   5.419  16.693 -0.0167 -0.0544  0.0400
 5678W        W48772   2.113   3.940  20.282  0.0781  0.1323  0.0612
 5679W        W48773   2.335   6.917  16.625  0.1080  0.0421 -0.2964
 5680W        W48774   1.962   7.314  20.673 -0.2550  0.0680  0.4193
 5681W        W48775   2.606   9.138  17.316 -0.3153  0.0400  0.3704
 5682W        W48776   0.230   5.119  17.995 -0.0041  0.0012  0.1113
 5683W        W48777   1.311   4.063  16.593 -0.0788 -0.1982 -0.1003
 5684W        W48778   0.148   7.592  16.956  0.0205  0.3466 -0.2421
 5685W        W48779   3.120   6.040  17.796 -0.0605 -0.0223  0.0926
 5686W        W48780   1.517   5.177  17.293  0.0643  0.0435  0.0415
 5687W        W48781   3.394   9.521  18.981 -0.0389 -0.0662 -0.0157
 5688W        W48782   2.710   5.547  16.760  0.1367  0.4133  0.2147
 5689W        W48783  34.185   6.475  19.404 -0.0164  0.2172  0.0775
 5690W        W48784   2.873   3.678  20.426 -0.1224  0.1391  0.2066
 5691W        W48785   3.051   6.407  18.737  0.1168 -0.2434 -0.0587
 5692W        W48786   1.964   6.720  18.600  0.3478  0.0091  0.7981
 5693W        W48787   0.269   4.040  15.994 -0.1744 -0.2221 -0.0267
 5694W        W48788   2.469   9.461  18.097 -0.0891  0.0945  0.0184
 5695W        W48789   0.855   7.481  16.188 -0.1730 -0.3026  0.5202
 5696W        W48790   0.337   6.141  16.834  0.0599  0.1950  0.0573
 5697W        W48791   0.957   7.521  18.569  0.0376  0.3154 -0.0396
 5698W        W48792   2.815   3.396  20.027 -0.2641 -0.0083 -0.0042
 5699W        W48793  33.322   4.778  19.098 -0.2528 -0.0205 -0.3444
 5700W        W48794   3.417   4.730  18.727 -0.4741 -0.1228 -0.0351
 5701W        W48795   0.032   5.189  17.130 -0.3116  0.5040 -0.1651
 5702W        W48796  33.494   5.969  18.879  0.0426 -0.3806 -0.2439
 5703W        W48797   1.570   3.832  17.017 -0.1678  0.0021  0.0672
 5704W        W48798   4.343   5.314  16.887 -0.1282 -0.3167  0.1595
 5705W        W48799   2.056   4.483  18.812  0.3355 -0.2337  0.2737
 5706W        W48800   3.716   6.616  16.563  0.0077  0.1958  0.3357
 5707W        W48801   2.668   5.210  16.389  0.5741  0.1709  0.0855
 5708W        W48802   2.009   4.597  15.923 -0.1033  0.1679  0.2642
 5709W        W48803  33.575   5.829  19.409  0.0261 -0.1399  0.0047
 5710W        W48804   2.587   7.247  17.637  0.1921  0.1305 -0.1510
 5711W        W48805   3.071   7.174  17.543  0.3169 -0.0950  0.3603
 5712W        W48806   1.826   5.140  15.843  0.1416  0.1559  0.0288
 5713W        W48807   3.343   7.013  16.912 -0.3481  0.1891  0.0383
 5714W        W48808  34.073   5.175  18.709  0.0923  0.3370 -0.0864
 5715W        W48809   1.376   6.635  19.437 -0.0659 -0.1118  0.1029
 5716W        W48810   3.968   6.026  18.887  0.2097  0.0077 -0.1471
 5717W        W48811   2.298   4.568  19.404  0.0369 -0.0689 -0.0625
 5718W        W48812   1.897   6.076  16.645 -0.0010  0.3050  0.2137
 5719W        W48813   1.940   4.975  17.459  0.1640 -0.4546 -0.3693
 5720W        W48814  33.801   7.709  16.165 -0.0818 -0.0086 -0.1707
 5721W        W48815   2.357   4.053  17.554  0.0005 -0.0585 -0.1747
 5722W        W48816   2.470   4.747  18.873 -0.0246  0.1770  0.1200
 5723W        W48817   1.226   4.007  20.153  0.3379  0.0912 -0.4503
 5724W        W48818   2.958   4.440  18.936 -0.0911  0.1086 -0.2046
 5725W        W48819   1.453   4.768  16.924  0.1053  0.3654  0.2988
 5726W        W48820   4.045   6.252  18.035 -0.2220  0.2382 -0.0964
 5727W        W48821   1.710   5.664  15.816 -0.1074  0.1811 -0.0816
 5728W        W48822   3.411   4.760  19.512 -0.0702  0.1686 -0.0939
 5729W        W48823   2.326   6.014  19.385 -0.1465  0.0832  0.1503
 5730W        W48824   0.108   7.216  18.436 -0.0929  0.1757 -0.0018
 5731W        W48825   2.995   6.709  19.601  0.0766 -0.1349  0.2761
 5732W        W48826   3.240   5.735  18.710 -0.0616  0.3134 -0.1799
 5733W        W48827   3.341   4.035  22.526 -0.1158  0.2159 -0.0252
 5734W        W48828   1.332   5.238  16.720 -0.0878 -0.1466 -0.0005
 5735W        W48829   1.156   6.407  16.747 -0.1448 -0.3505 -0.1761
 5736W        W48830   2.384   4.841  17.186 -0.1763 -0.3637  0.1912
 5737W        W48831   1.465   4.578  19.299  0.1213  0.1794  0.1284
 5738W        W48832   2.755   8.136  19.321  0.3493  0.3227 -0.1757
 5739W        W48833   2.566   6.252  17.602  0.0667  0.1457 -0.1894
 5740W        W48834   2.747   6.527  19.154  0.0908 -0.0244  0.0434
 5741W        W48835  34.441   5.645  17.297 -0.2639  0.2455 -0.1899
 5742W        W48836   2.918   3.808  19.686  0.0290  0.1418 -0.0408
 5743W        W48837   0.332   6.017  18.415  0.0677 -0.2333 -0.1048
 5744W        W48838   1.002   4.754  16.073 -0.3655  0.1278  0.1025
 5745W        W48839  34.673   4.152  17.260 -0.2721 -0.2222  0.0126
 5746W        W48840   2.852   4.291  19.802  0.2945 -0.0872 -0.4135
 5747W        W48841   3.641   5.969  17.856  0.0667 -0.1759  0.0083
 5748W        W48842   1.287   4.219  19.713 -0.2995  0.0124 -0.0666
 5749W        W48843   1.451   4.061  17.981  0.1207  0.1403 -0.1233
 5750W        W48844   1.423   6.372  17.749  0.1838  0.2934  0.0389
 5751W        W48845   3.439   6.857  19.449 -0.1016  0.0095  0.0177
 5752W        W48846   3.704   3.992  16.442  0.1009 -0.0737 -0.1457
 5753W        W48847   1.969   6.923  18.165 -0.4222  0.1363  0.2357
 5754W        W48848   1.857   5.914  19.824  0.1914  0.0223 -0.0335
 5755W        W48849   0.487   5.750  16.348  0.0291  0.0337  0.4959
 5756W        W48850   3.710   6.062  18.348 -0.1020 -0.2998  0.0147
 5757W        W48851   0.597   5.601  16.836  0.2283 -0.1325 -0.0564
 5758W        W48852   1.026   5.947  17.001 -0.0965 -0.0531 -0.0518
 5759W        W48853   1.876   6.763  19.261  0.4676 -0.2616 -0.2247
 5760W        W48854   2.261   5.658  16.508  0.1695 -0.0593 -0.0598
 5761W        W48855   1.400   5.682  17.286 -0.0675  0.0054 -0.1842
 5762W        W48856   1.973   3.264  20.476  0.4561 -0.1219  0.4156
 5763W        W48857   2.404   6.608  20.036 -0.2287  0.2640  0.0253
 5764W        W48858   3.502   6.160  18.845 -0.3066  0.1112 -0.1806
 5765W        W48859   0.290   4.564  17.145 -0.0816  0.1753 -0.1689
 5766W        W48860   2.743   4.450  17.588 -0.0007  0.1420 -0.2777
 5767W        W48861   3.003   6.594  17.790 -0.0353  0.2591  0.2807
 5768W        W48862   2.612   3.558  18.648  0.1120  0.0603 -0.3403
 5769W        W48863  34.318   6.575  20.744 -0.0385 -0.2444  0.4318
 5770W        W48864   1.352   4.199  18.507 -0.0518  0.1571  0.1666
 5771W        W48865   3.779   6.856  18.148 -0.2900 -0.2551 -0.0888
 5772W        W48866   3.775   5.591  19.128  0.1688 -0.0728  0.0322
 5773W        W48867   0.379   6.911  16.478 -0.1026  0.1961 -0.0366
 5774W        W48868  33.953   5.478  17.604  0.0982 -0.2336  0.1732
 5775W        W48869   1.786   5.556  16.372 -0.0466  0.2092 -0.1673
 5776W        W48870   1.971   4.957  18.734  0.1248 -0.0457 -0.0176
 5777W        W48871   0.520   5.571  18.315 -0.0943 -0.0232  0.1347
 5778W        W48872   0.673   6.558  16.298  0.0081 -0.0774 -0.1292
 5779W        W48873   0.936   6.243  18.968  0.3198 -0.1911  0.2210
 5780W        W48874   3.811   5.462  17.709  0.2662  0.0922  0.3504
 5781W        W48875   3.070   4.649  17.319 -0.1279  0.0231 -0.0585
 5782W        W48876   1.750   3.967  18.867  0.1997  0.1048 -0.2180
 5783W        W48877   3.142   3.969  20.077 -0.5554  0.0069  0.0594
 5784W        W48878   3.604   6.279  16.164 -0.0867 -0.0220 -0.0972
 5785W        W48879   2.364   3.065  20.188  0.1795 -0.1982 -0.1669
 5786W        W48880  34.301   4.725  19.424  0.1775 -0.0636 -0.4300
 5787W        W48881   2.937   7.489  17.914  0.3143 -0.1553  0.1051
 5788W        W48882   0.036   4.484  19.650 -0.2935  0.0132 -0.2630
 5789W        W48883   1.501   7.932  19.930 -0.0170  0.1061  0.0824
 5790W        W48884  34.381   4.843  19.965  0.0873  0.1447 -0.0063
 5791W        W48885   2.153   4.158  16.717 -0.1334 -0.0089  0.0903
 5792W        W48886   1.340   4.529  16.488  0.2128 -0.0148 -0.0063
 5793W        W48887   3.483   5.606  18.264 -0.3641  0.0499 -0.2161
 5794W        W48888   2.456   7.034  17.161  0.0285 -0.1422 -0.1749
 5795W        W48889   2.094   6.100  17.957 -0.0473 -0.3879  0.2346
 5796W        W48890   2.885   4.882  18.504 -0.1197 -0.0568  0.0716
 5797W        W48891   1.194   4.428  17.640 -0.1595  0.1094  0.0234
 5798W        W48892   0.999   5.652  16.601  0.0580  0.0026 -0.1390
 5799W        W48893   2.413   6.003  16.194  0.0211 -0.0465  0.2247
 5800W        W48894   2.404   5.250  17.627  0.0370 -0.1051 -0.4290
 5801W        W48895   0.751   3.361  18.470 -0.2496  0.0545  0.0298
 5802W        W48896   3.028   6.168  17.329  0.0436  0.0386 -0.2200
 5803W        W48897   2.107   3.661  19.545  0.1422 -0.3180  0.5076
 5804W        W48898   2.202   3.840  19.054  0.1710 -0.4376 -0.1443
 5805W        W48899   3.360   5.466  19.365  0.2212 -0.1578  0.1069
 5806W        W48900   2.816   4.652  19.378 -0.0450 -0.2408 -0.0928
 5807W        W48901  34.691   5.212  19.000 -0.2338 -0.0179 -0.4117
 5808W        W48902   4.685   8.765  18.783 -0.3301  0.1939 -0.0840
 5809W        W48903   3.026   7.418  16.442 -0.0180  0.1064 -0.3059
 5810W        W48904   3.503   4.424  19.161  0.0336  0.0755  0.1505
 5811W        W48905   3.073   5.681  17.113 -0.1188  0.0816 -0.0674
 5812W        W48906   2.169   5.555  16.034  0.0820  0.0415  0.1569
 5813W        W48907   2.771   6.316  18.179 -0.0338  0.1147 -0.1501
 5814W        W48908   3.161   4.276  20.868  0.1902 -0.0278  0.0221
 5815W        W48909   2.169   5.148  16.301 -0.0721  0.1132 -0.3413
 5816W        W48910   1.629   4.220  20.645  0.1293  0.0243 -0.1258
 5817W        W48911   0.598   6.619  16.846  0.2268  0.1122 -0.1887
 5818W        W48912   2.257   6.540  18.152  0.1890  0.0164 -0.0238
 5819W        W48913   2.655   4.422  18.452  0.1598  0.3493  0.0772
 5820W        W48914  34.182   4.772  17.035  0.0961 -0.0340  0.0341
 5821W        W48915   1.488   6.855  18.957  0.0134  0.0503 -0.2934
 5822W        W48916  34.074   5.257  17.202 -0.3166  0.0648  0.2968
 5823W        W48917   0.370   6.193  16.158 -0.0429  0.0832  0.0180
 5824W        W48918   1.857   5.571  17.335 -0.0025  0.1527  0.2706
 5825W        W48919   2.330   6.938  18.979 -0.0017 -0.3087  0.0623
 5826W        W48920   1.921   3.466  16.409 -0.0296 -0.3659  0.1859
 5827W        W48921   3.631   5.117  19.113 -0.1703 -0.0983  0.3013
 5828W        W48922   1.151   7.054  16.034  0.2307  0.1456 -0.2330
 5829W        W48923   2.609   4.792  18.060 -0.1430  0.0107 -0.0287
 5830W        W48924  33.332   4.902  18.478 -0.1741  0.0150 -0.2979
 5831W        W48925  34.381   5.712  17.793 -0.0696 -0.0778  0.0332
 5832W        W48926   1.633   6.345  18.855 -0.0074  0.2990  0.2929
 5833W        W48927   2.795   3.180  20.463 -0.0678  0.2762  0.1313
 5834W        W48928   3.511   2.417  18.055 -0.4032 -0.1138 -0.2397
 5835W        W48929   2.856   5.087  17.439  0.0095  0.0209 -0.0009
 5836W        W48930   3.372   5.905  20.628 -0.0148  0.0233  0.1133
 5837W        W48931   2.675   6.347  19.692 -0.0904 -0.0485  0.2178
 5838W        W48932   2.857   5.657  17.586  0.2122 -0.2561 -0.1445
 5839W        W48933   2.543   7.448  18.895 -0.2043  0.1691  0.2070
 5840W        W48934   3.411   6.466  17.095 -0.0720 -0.3594  0.2064
 5841W        W48935   1.072   5.286  18.055  0.1035 -0.0916 -0.1024
 5842W        W48936   1.338   4.212  18.990  0.1662  0.1335  0.0568
 5843W        W48937   1.423   5.466  19.308 -0.1577 -0.1145  0.1438
 5844W        W48938   2.680   5.971  18.636 -0.2720  0.0800  0.0492
 5845W        W48939   2.478   3.850  17.106  0.0513 -0.1800  0.0107
 5846W        W48940   2.124   6.392  16.375 -0.1957 -0.0187 -0.1194
 5847W        W48941   1.275   7.360  19.796  0.2999 -0.3807 -0.2083
 5848W        W48942  34.059   6.059  18.649 -0.1116  0.2488  0.1236
 5849W        W48943   1.576   5.822  18.764 -0.2769 -0.3208  0.3191
 5850W        W48944   3.046   6.643  16.744  0.0218 -0.5364  0.1116
 5851W        W48945   2.264   6.502  17.288 -0.0778 -0.3401  0.0132
 5852W        W48946   1.689   7.283  19.180 -0.1606  0.2004  0.2014
 5853W        W48947   1.665   4.340  16.833 -0.5118  0.2416 -0.5622
 5854W        W48948   1.382   7.424  18.320 -0.3678  0.1574  0.1769
 5855W        W48949  34.462   5.619  16.304 -0.0688  0.0014 -0.1912
 5856W        W48950   2.945   6.170  16.846 -0.0670  0.2305  0.2632
 5857W        W48951   1.843   5.391  18.524 -0.0235  0.1047  0.0933
 5858W        W48952   4.437   6.695  18.958  0.0971 -0.1214  0.0697
 5859W        W48953   2.740   4.516  16.807  0.1523 -0.2214 -0.3544
 5860W        W48954   3.989   5.686  18.140  0.0567 -0.0263  0.0656
 5861W        W48955   1.142   4.859  17.354  0.1717 -0.0755 -0.0515
 5862W        W48956   2.727   5.779  19.532 -0.0953  0.0331  0.2881
 5863W        W48957   2.343   5.698  18.399  0.1507 -0.1670 -0.1137
 5864W        W48958   1.670   3.637  16.014  0.1447 -0.1829  0.0798
 5865W        W48959   1.758   6.432  18.199 -0.2386  0.0646  0.1284
 5866W        W48960   3.773   3.155  20.365  0.0453 -0.1318  0.0794
 5867W        W48961  34.618   6.127  17.817  0.1350  0.0040 -0.1255
 5868W        W48962   3.283   7.880  16.499  0.1234 -0.0252 -0.2050
 5869W        W48963   0.389   4.509  16.634 -0.3404  0.1075 -0.0316
 5870W        W48964   1.289   5.140  16.274  0.0021 -0.0146  0.0890
 5871W        W48965   4.033   1.872  17.887 -0.1550  0.0878  0.0743
 5872W        W48966   1.871   6.051  16.121 -0.1052 -0.3044  0.0447
 5873W        W48967   2.588   5.448  17.231  0.2652 -0.0491 -0.1315
 5874W        W48968   1.340   6.091  15.852 -0.3770 -0.3975 -0.1597
 5875W        W48969   2.307   6.594  19.439  0.2465  0.0857  0.1995
 5876W        W48970   1.573   6.623  16.754  0.1246 -0.0808  0.0750
 5877W        W48971   0.023   4.306  16.374 -0.0209  0.0046  0.0758
 5878W        W48972   4.044   5.099  17.953  0.2214  0.1138  0.2683
 5879W        W48973   2.018   6.084  17.133  0.0038  0.0154  0.0390
 5880W        W48974   4.168   5.252  19.187 -0.0316 -0.0177  0.1585
 5881W        W48975   0.887   4.610  16.890  0.1082  0.0140 -0.0483
 5882W        W48976   2.986   5.713  18.294 -0.0284 -0.0828 -0.0820
 5883W        W48977   2.137   5.533  19.992 -0.1605 -0.0102  0.1966
 5884W        W48978   0.624   4.654  18.483 -0.2440  0.0599  0.2008
 5885W        W48979   2.776   5.677  16.243 -0.2185 -0.1405  0.1589
 5886W        W48980   3.140   6.132  19.734  0.0349  0.0888 -0.1014
 5887W        W48981   3.690   5.777  16.433 -0.0651  0.2093 -0.0782
 5888W        W48982   3.772   7.895  21.070  0.1522  0.1227 -0.3267
 5889W        W48983   2.217   4.662  18.396  0.0775 -0.1885 -0.0459
 5890W        W48984   2.408   5.296  18.822  0.1010  0.1227 -0.0883
 5891W        W48985   0.210   5.443  17.544  0.1114  0.1226  0.2380
 5892W        W48986   0.922   6.255  17.879  0.0741  0.0222  0.0838
 5893W        W48987   2.513   7.032  20.901 -0.3287  0.0625 -0.0288
 5894W        W48988   0.564   4.418  16.149  0.3614  0.0773  0.3967
 5895W        W48989   3.404   5.658  17.520  0.2015  0.0014  0.2259
 5896W        W48990   4.597   5.306  19.486  0.0401 -0.2046  0.1849
 5897W        W48991   0.581   7.230  17.698 -0.0871  0.1050 -0.0346
 5898W        W48992   4.038   5.915  17.592 -0.3585  0.0377  0.1745
 5899W        W48993   2.179   7.865  18.125 -0.3186 -0.0691  0.1496
 5900W        W48994   0.597   4.664  19.494 -0.1195 -0.1175 -0.0495
 5901W        W48995   3.253   7.492  19.556 -0.0632 -0.0063  0.0382
 5902W        W48996   5.089   6.790  18.788  0.4413  0.1749 -0.0278
 5903W        W48997   2.115   3.869  15.879 -0.2291 -0.3310  0.2186
 5904W        W48998   1.771   5.809  19.337  0.2341 -0.1645 -0.0852
 5905W        W48999  33.184   6.541  17.284  0.0163  0.1007  0.1491
 5906W        W49000   3.576   3.679  18.966 -0.1486 -0.0572  0.2301
 5907W        W49001   2.428   5.082  20.766 -0.0877 -0.3026 -0.0169
 5908W        W49002   1.170   6.544  16.173 -0.0556  0.0203  0.1709
 5909W        W49003   3.247   2.703  19.751  0.0506  0.0672  0.0762
 5910W        W49004   1.827   8.641  18.603 -0.0212 -0.1065  0.1082
 5911W        W49005   0.602   7.850  19.361  0.1954 -0.1178 -0.1446
 5912W        W49006   0.545   4.960  15.949  0.1251  0.1073 -0.2362
 5913W        W49007   1.700   7.096  19.681  0.1878  0.0260  0.0714
 5914W        W49008   1.470   5.717  16.779 -0.0587  0.2773  0.0911
 5915W        W49009   1.035   5.653  15.635 -0.0669 -0.0540 -0.0427
 5916W        W49010   4.348   8.362  18.901  0.0150  0.2215  0.0861
 5917W        W49011   1.496   6.137  17.042  0.1092 -0.0865  0.0370
 5918W        W49012   3.430   6.728  17.506 -0.0627  0.2447 -0.3542
 5919W        W49013   1.836   4.524  17.981 -0.1071  0.0738 -0.1401
 5920W        W49014   2.676   3.299  16.267 -0.1490 -0.1180  0.1910
 5921W        W49015   2.298   5.200  16.852  0.0878 -0.0504 -0.1628
 5922W        W49016  34.002   6.073  19.156 -0.2473  0.1458 -0.0371
 5923W        W49017   0.090   4.867  16.707 -0.0715 -0.2590 -0.0329
 5924W        W49018  33.781   8.233  16.147 -0.0089 -0.2588  0.1784
 5925W        W49019   1.443   5.087  18.665  0.0349  0.2668  0.3249
 5926W        W49020   2.752   2.961  19.816  0.1677 -0.1836 -0.0010
 5927W        W49021   2.317   5.765  17.512  0.1374 -0.0519  0.0216
 5928W        W49022  34.612   4.272  18.980 -0.1085 -0.1963 -0.1513
 5929W        W49023   0.277   3.683  18.319  0.2512 -0.1269  0.1652
 5930W        W49024   3.904   6.203  16.797 -0.2228  0.0995  0.0869
 5931W        W49025   0.647   4.128  19.617  0.1790 -0.0987 -0.0607
 5932W        W49026   0.052   4.790  19.239  0.0880  0.1169  0.3342
 5933W        W49027   2.944   6.706  17.307  0.0008  0.1235  0.0006
 5934W        W49028   2.138   7.309  16.883 -0.0633 -0.3347 -0.2276
 5935W        W49029   2.042   3.638  16.888 -0.0594  0.0799  0.1243
 5936W        W49030   3.180   7.885  19.264 -0.2478 -0.0328  0.0056
 5937W        W49031   0.161   6.494  16.521  0.0239 -0.0265  0.0078
 5938W        W49032   1.853   4.166  19.356 -0.2078  0.2243  0.1567
 5939W        W49033   2.467   3.792  19.900 -0.0671 -0.2683 -0.0789
 5940W        W49034  33.805   4.844  16.627  0.1763 -0.1058 -0.0853
 5941W        W49035   2.384   4.522  19.867  0.1857 -0.2572 -0.3536
 5942W        W49036   2.172   7.480  17.368  0.1343  0.2596  0.0986
 5943W        W49037   2.685   6.508  16.380 -0.0235 -0.1133 -0.0707
 5944W        W49038   1.127   6.648  18.123 -0.0361 -0.4652 -0.2116
 5945W        W49039   2.464   7.379  19.871  0.1125  0.2350 -0.1712
 5946W        W49040   0.719   3.433  19.439 -0.1111  0.1873  0.0264
 5947W        W49041   3.197   5.473  17.906 -0.0023 -0.0771  0.1749
 5948W        W49042   1.224   6.517  18.617 -0.2295 -0.1668  0.0920
 5949W        W49043   4.568   5.956  17.796 -0.0146  0.0181  0.2604
 5950W        W49044   2.877   3.987  17.651  0.1920  0.1623  0.2989
 5951W        W49045   1.960   4.779  16.923 -0.2879 -0.0376 -0.2757
 5952W        W49046  34.538   1.780  20.134 -0.0988  0.2559  0.0571
 5953W        W49047  34.592   5.494  19.463  0.3265 -0.0440  0.2677
 5954W        W49048   4.418   7.489  18.751  0.3981  0.2832 -0.0389
 5955W        W49049   1.556   4.850  17.717 -0.0469 -0.0129  0.0415
 5956W        W49050   2.624   5.968  17.149  0.0886 -0.2797 -0.1322
 5957W        W49051   2.112   6.361  19.022  0.0393 -0.0527 -0.0014
 5958W        W49052   1.169   5.476  18.780 -0.0478  0.3115 -0.4184
 5959W        W49053   1.805   5.274  16.876  0.1018  0.2106 -0.3138
 5960W        W49054   4.201   5.485  19.683 -0.1791  0.3442 -0.3381
 5961W        W49055   2.755   6.983  18.033  0.2150 -0.0925  0.3362
 5962W        W49056   2.980   5.135  19.496 -0.3852 -0.1103  0.0673
 5963W        W49057   0.511   4.995  16.909  0.1593  0.1443  0.3573
 5964W        W49058   4.352   6.050  16.522 -0.1532 -0.1155  0.2451
 5965W        W49059   2.751   7.918  18.853  0.0816  0.0156 -0.0295
 5966W        W49060   1.754   5.822  20.601  0.0120  0.3139  0.1112
 5967W        W49061   2.520   8.863  18.488  0.1575  0.1102  0.1558
 5968W        W49062   3.848   5.646  18.606 -0.0527  0.0740  0.0774
 5969W        W49063   0.722   5.155  17.374  0.2047 -0.3065  0.5061
 5970W        W49064   1.332   5.675  16.163  0.2217 -0.0747 -0.1970
 5971W        W49065   0.220   5.704  17.114 -0.1189  0.0219 -0.1413
 5972W        W49066   2.478   4.054  19.486  0.1932 -0.2702  0.1584
 5973W        W49067   0.881   4.037  17.683 -0.0137 -0.3733 -0.2663
 5974W        W49068   2.395   4.720  16.499 -0.1731  0.3290  0.2171
 5975W        W49069   1.192   8.796  19.069 -0.0103 -0.0117  0.2757
 5976W        W49070   3.007   5.005  18.000 -0.0083 -0.0699 -0.1410
 5977W        W49071   1.385   5.927  20.976 -0.1531  0.1926 -0.1449
 5978W        W49072   1.913   5.046  20.843 -0.0901  0.1070  0.1330
 5979W        W49073   2.772   4.828  19.874 -0.0315  0.1665  0.0181
 5980W        W49074   3.510   5.435  20.185 -0.0103  0.1874  0.2244
 5981W        W49075  34.398   4.447  20.637 -0.0234 -0.2265  0.0091
 5982W        W49076   4.287   5.877  22.211  0.0710  0.2691 -0.3731
 5983W        W49077   0.352   3.595  21.966  0.2784  0.2864 -0.1965
 5984W        W49078   2.278   4.658  22.339 -0.2362 -0.0496 -0.0835
 5985W        W49079   3.175   6.686  23.165 -0.3120  0.2276 -0.2865
 5986W        W49080   0.889   4.448  19.991 -0.1671 -0.0344 -0.3286
 5987W        W49081   2.065   5.694  23.071  0.0429  0.2751 -0.0085
 5988W        W49082   1.663   6.770  20.265 -0.0395  0.0806  0.0090
 5989W        W49083   1.975   4.208  21.205  0.0998 -0.1439 -0.0582
 5990W        W49084  34.603   4.610  22.153  0.2375  0.2915 -0.1458
 5991W        W49085   3.662   5.700  22.802  0.1780 -0.3197 -0.1595
 5992W        W49086   0.500   4.997  21.071  0.0716 -0.2751  0.1435
 5993W        W49087   1.772   3.975  22.888  0.1402  0.1941 -0.4063
 5994W        W49088   2.813   4.034  22.507  0.2008  0.0872 -0.0015
 5995W        W49089   3.200   5.897  22.782  0.0276  0.3011  0.2183
 5996W        W49090   2.175   6.673  21.091  0.0399 -0.0036 -0.2517
 5997W        W49091   3.285   5.091  24.231  0.1129  0.1269 -0.0413
 5998W        W49092   2.208   7.942  21.304  0.0818  0.1113  0.2654
 5999W        W49093   1.709   4.609  18.499  0.1389 -0.2597  0.1406
 6000W        W49094   0.358   4.527  22.512  0.0101  0.2463 -0.2814
 6001W        W49095   1.596   5.388  23.127  0.0624 -0.2310 -0.1835
 6002W        W49096   2.165   5.213  21.261 -0.0969  0.0085 -0.1547
 6003W        W49097   4.009   5.547  21.941  0.2194 -0.0829  0.0165
 6004W        W49098   1.424   5.878  20.235  0.2457 -0.0132 -0.0214
 6005W        W49099   3.452   7.139  22.333  0.2167 -0.0627  0.1194
 6006W        W49100   2.699   5.609  23.770 -0.0508  0.0024 -0.1117
 6007W        W49101   0.152   6.731  20.312 -0.1833 -0.2205  0.0441
 6008W        W49102  33.720   6.749  22.354  0.2421  0.4160 -0.1637
 6009W        W49103   1.232   7.101  20.529  0.0515  0.1318 -0.0325
 6010W        W49104   4.715   7.707  21.599  0.1355 -0.3729 -0.0669
 6011W        W49105   3.245   7.614  23.111 -0.2583  0.2615 -0.0800
 6012W        W49106   1.841   7.419  24.439  0.1973 -0.1724 -0.0877
 6013W        W49107   0.790   7.355  20.113  0.1680  0.3104  0.2629
 6014W        W49108   3.527   7.206  23.376  0.1686  0.2234  0.2822
 6015W        W49109   1.408   6.730  23.762  0.2653  0.1277  0.1126
 6016W        W49110   1.789   5.600  21.139 -0.2983  0.1451  0.3239
 6017W        W49111   1.869   4.712  20.508 -0.3310  0.1577 -0.0569
 6018W        W49112   0.563   6.223  19.223 -0.0753  0.1535 -0.1135
 6019W        W49113   2.134   4.179  22.474 -0.2019  0.1337  0.1181
 6020W        W49114   1.627   6.426  22.357 -0.1422 -0.1590  0.0780
 6021W        W49115   1.775   6.891  21.326 -0.0213 -0.0421 -0.0871
 6022W        W49116   3.801   5.155  23.060  0.0240 -0.1386 -0.1378
 6023W        W49117  33.335   6.741  19.615 -0.0052  0.0146  0.2134
 6024W        W49118   3.350   6.947  21.849  0.1721  0.0096 -0.0322
 6025W        W49119   2.342   6.012  19.866 -0.4963  0.2891  0.1848
 6026W        W49120   4.167   4.739  20.835 -0.0724  0.2304  0.2188
 6027W        W49121   0.365   5.413  21.776  0.4132  0.0370 -0.0069
 6028W        W49122   0.667   8.134  21.922 -0.2516  0.2910 -0.1435
 6029W        W49123   1.512   4.296  22.536  0.2114  0.1008  0.1261
 6030W        W49124   5.152   4.693  23.181  0.0029 -0.0530 -0.0662
 6031W        W49125   2.538   4.320  21.220 -0.2708 -0.1277 -0.0275
 6032W        W49126   0.631   5.005  22.224  0.0738  0.3344 -0.5240
 6033W        W49127   0.738   5.810  22.002  0.0634  0.3514  0.0276
 6034W        W49128   0.091   4.980  21.837 -0.0265 -0.2848 -0.0919
 6035W        W49129   3.086   7.511  18.862  0.0911  0.0279 -0.1442
 6036W        W49130   4.142   5.881  21.510 -0.2006  0.0466  0.0469
 6037W        W49131   2.799   5.878  20.757  0.1084 -0.0490 -0.0515
 6038W        W49132  33.930   4.217  20.638  0.2113  0.0684  0.2328
 6039W        W49133   1.488   5.940  23.206 -0.0954 -0.0506  0.2443
 6040W        W49134   1.033   5.033  23.074  0.2496  0.2130 -0.2285
 6041W        W49135   0.930   3.874  19.216 -0.0884 -0.2598 -0.1150
 6042W        W49136   3.668   6.582  24.045 -0.5293  0.3075 -0.0723
 6043W        W49137   0.819   5.365  21.366 -0.1918 -0.4881  0.0278
 6044W        W49138   3.314   3.728  21.630 -0.1989 -0.0705  0.0082
 6045W        W49139   0.822   4.746  20.768 -0.0929  0.3785 -0.0246
 6046W        W49140   3.482   5.523  23.274 -0.0664 -0.1230 -0.0689
 6047W        W49141   3.936   5.675  20.544 -0.2549 -0.2264  0.2898
 6048W        W49142   2.338   3.217  22.222  0.2349 -0.0697 -0.0017
 6049W        W49143   1.548   3.002  22.879  0.0364 -0.0794 -0.1003
 6050W        W49144   2.361   5.110  20.260  0.1113  0.1374 -0.2707
 6051W        W49145   2.307   5.677  21.402  0.4137  0.1095  0.3248
 6052W        W49146   2.893   7.372  22.573  0.0572  0.1413  0.2530
 6053W        W49147   3.287   7.619  20.951 -0.0302 -0.3370  0.2985
 6054W        W49148   0.874   5.926  22.600  0.0266 -0.1742 -0.3652
 6055W        W49149   0.762   3.713  23.759 -0.0707 -0.1163 -0.3271
 6056W        W49150   2.292   6.476  24.047  0.1273  0.1649 -0.2766
 6057W        W49151   1.300   7.606  19.248  0.2496 -0.0768  0.0372
 6058W        W49152   0.010   6.667  22.498  0.0123  0.1148  0.0520
 6059W        W49153   0.474   6.721  18.316  0.0582 -0.2765  0.0251
 6060W        W49154   0.796   3.968  23.124  0.0681 -0.2285  0.0149
 6061W        W49155   1.720   5.037  21.348  0.3462  0.0559 -0.0308
 6062W        W49156   3.331   4.753  23.245 -0.2884 -0.0704  0.2260
 6063W        W49157   0.088   3.088  22.825 -0.2436 -0.0344 -0.1466
 6064W        W49158   3.533   4.876  22.224 -0.1593 -0.3463 -0.2254
 6065W        W49159   0.289   4.755  20.009  0.1467  0.0194 -0.2194
 6066W        W49160   3.958   7.436  22.472 -0.2297 -0.3750 -0.2423
 6067W        W49161   3.382   5.364  20.862  0.0617  0.3571  0.1297
 6068W        W49162   3.739   6.334  19.367 -0.2295  0.1525 -0.1266
 6069W        W49163   0.818   5.336  21.922  0.1893 -0.2934 -0.1425
 6070W        W49164   1.314   4.926  22.179 -0.1028  0.2866 -0.2142
 6071W        W49165   1.842   4.324  23.876 -0.0495  0.2232  0.1154
 6072W        W49166   0.972   3.132  21.490 -0.2268 -0.0426  0.1749
 6073W        W49167   1.768   4.770  23.182  0.2144  0.0162 -0.0625
 6074W        W49168   0.508   3.803  20.407  0.0195  0.0623  0.5940
 6075W        W49169   3.067   4.620  21.263 -0.2876 -0.2250  0.0617
 6076W        W49170   0.374   5.512  19.724 -0.0092 -0.1330  0.0757
 6077W        W49171  34.505   6.282  20.384 -0.2877  0.1349 -0.1009
 6078W        W49172   2.471   5.163  22.598 -0.1244 -0.0456 -0.0384
 6079W        W49173   2.643   7.058  19.542 -0.3363  0.3207  0.1960
 6080W        W49174   3.162   7.984  23.950 -0.1297  0.0116  0.0469
 6081W        W49175   3.552   7.137  21.148 -0.1048  0.2111  0.1967
 6082W        W49176   1.731   4.722  22.350  0.0209  0.2285  0.2523
 6083W        W49177  34.418   4.770  18.829 -0.2392 -0.1481  0.1228
 6084W        W49178  34.423   6.733  21.217  0.0841  0.1767 -0.1559
 6085W        W49179   0.324   6.016  20.864  0.2042 -0.1509  0.0662
 6086W        W49180   0.418   4.064  21.238  0.0508 -0.3742 -0.1108
 6087W        W49181   4.147   6.319  21.311 -0.0039 -0.1058  0.0930
 6088W        W49182   1.294   6.284  20.540  0.2330 -0.0439  0.0297
 6089W        W49183   1.125   6.349  22.292  0.3195 -0.3262  0.0932
 6090W        W49184   1.178   3.474  21.190  0.0929 -0.3423 -0.0617
 6091W        W49185   4.618   5.181  22.579  0.0827 -0.3515 -0.0227
 6092W        W49186   1.353   5.787  19.746 -0.1551  0.2291 -0.3498
 6093W        W49187   0.994   3.581  20.290 -0.0870  0.0723 -0.0731
 6094W        W49188   2.544   6.529  21.532  0.2969  0.0620  0.1371
 6095W        W49189   0.343   8.949  19.891 -0.1411  0.2903  0.2092
 6096W        W49190  34.561   4.530  21.620  0.1702  0.1841  0.3532
 6097W        W49191   1.789   5.737  21.658  0.0245 -0.2144  0.4205
 6098W        W49192   3.085   5.151  22.403 -0.2857  0.0198  0.1965
 6099W        W49193   1.048   4.228  22.694 -0.1652  0.0588  0.2145
 6100W        W49194   2.480   4.517  24.291  0.1263 -0.1379  0.3071
 6101W        W49195   0.388   5.015  20.484  0.1560  0.0003 -0.1685
 6102W        W49196   1.607   5.396  22.048 -0.2451  0.1577 -0.0116
 6103W        W49197   1.456   4.476  21.974  0.3719  0.1631 -0.1096
 6104W        W49198   4.045   4.759  21.579  0.0031 -0.3099 -0.0077
 6105W        W49199   2.161   6.259  21.879  0.1031  0.2983 -0.0326
 6106W        W49200   1.907   6.023  21.001  0.0853  0.0457  0.0546
 6107W        W49201   3.023   4.964  19.022 -0.2322 -0.0939 -0.0551
 6108W        W49202   2.397   3.383  21.699 -0.3204  0.1867  0.2178
 6109W        W49203   2.045   5.264  21.758  0.0382  0.1257  0.1255
 6110W        W49204   3.115   5.549  20.456 -0.2111  0.0842 -0.0157
 6111W        W49205   2.564   5.363  23.076 -0.3068 -0.2154  0.0205
 6112W        W49206   2.889   6.063  19.056 -0.1064 -0.2238  0.1085
 6113W        W49207   3.995   8.179  20.036  0.2290  0.1086  0.1464
 6114W        W49208   0.552   6.234  22.169  0.0198  0.0145  0.0578
 6115W        W49209   2.681   6.737  24.402  0.2757 -0.1973 -0.1200
 6116W        W49210   1.708   7.308  20.159  0.0017  0.0329  0.1058
 6117W        W49211   3.120   3.888  22.074  0.0283 -0.0558  0.1935
 6118W        W49212   1.666   4.272  20.158 -0.0783  0.2210 -0.2779
 6119W        W49213   2.095   2.802  22.214  0.1994 -0.0706  0.1508
 6120W        W49214   0.891   7.983  21.513  0.1670 -0.2022  0.1508
 6121W        W49215   2.472   5.317  22.173 -0.2757  0.1356  0.0495
 6122W        W49216   1.699   4.894  21.859 -0.1115  0.1863  0.1137
 6123W        W49217   0.277   2.780  22.500  0.0738 -0.0534 -0.2550
 6124W        W49218   2.811   4.679  23.285 -0.1302 -0.3149 -0.0121
 6125W        W49219   2.367   6.124  20.850  0.0218  0.0470 -0.0326
 6126W        W49220   2.022   4.523  22.830 -0.0592  0.1058  0.0920
 6127W        W49221   1.823   6.287  19.465  0.3846 -0.0633  0.0778
 6128W        W49222   1.254   3.777  22.846 -0.3096  0.1326 -0.0817
 6129W        W49223   1.341   5.302  21.248 -0.0079  0.3277 -0.1110
 6130W        W49224   0.742   6.688  21.959  0.0947  0.3956 -0.4253
 6131W        W49225   3.268   6.471  22.702  0.2835 -0.1377 -0.0101
 6132W        W49226   2.639   5.461  21.080 -0.4997  0.0279  0.0899
 6133W        W49227   1.600   3.594  22.430  0.2037 -0.3002  0.0329
 6134W        W49228   1.601   3.656  21.389  0.0544  0.1297 -0.1056
 6135W        W49229   0.787   6.300  20.791 -0.0413 -0.1034  0.0756
 6136W        W49230   1.696   5.464  19.720  0.1414  0.1838 -0.1034
 6137W        W49231   1.586   3.163  22.149 -0.0550  0.3595  0.1326
 6138W        W49232   2.496   6.999  21.996  0.0659  0.0403 -0.1095
 6139W        W49233   0.328   6.387  20.552 -0.1483 -0.2810  0.0361
 6140W        W49234   1.986   5.012  22.772 -0.1506 -0.0596  0.1228
 6141W        W49235   2.195   7.397  21.203  0.2623 -0.1750 -0.1261
 6142W        W49236   2.695   4.418  21.668  0.3029 -0.0593 -0.0551
 6143W        W49237   0.701   6.773  21.054 -0.0113 -0.1352  0.0043
 6144W        W49238   1.293   3.476  20.683 -0.2460 -0.0656  0.0904
 6145W        W49239   0.058   5.824  20.401 -0.1124  0.2182  0.0640
 6146W        W49240   3.450   4.805  20.322 -0.1005  0.2714  0.0667
 6147W        W49241   3.182   5.867  21.962 -0.1536  0.0503  0.0768
 6148W        W49242   0.236   4.552  21.301  0.0277  0.0853  0.3286
 6149W        W49243   1.122   4.035  23.970  0.0777 -0.0480  0.0819
 6150W        W49244   0.571   6.644  22.519 -0.2335 -0.0311 -0.2117
 6151W        W49245   2.292   5.622  23.460  0.0272 -0.0774  0.2644
 6152W        W49246   2.643   2.664  20.902 -0.0518 -0.0450  0.0072
 6153W        W49247   4.333   6.031  23.159  0.0237 -0.1017 -0.1118
 6154W        W49248   0.150   5.878  21.331  0.1870  0.0693 -0.0087
 6155W        W49249   0.776   3.399  20.779 -0.2327  0.1219 -0.0378
 6156W        W49250   2.850   3.541  21.464  0.1120 -0.2382 -0.5353
 6157W        W49251   0.358   4.514  21.830  0.1934  0.2748 -0.1822
 6158W        W49252   1.576   6.963  20.868  0.0221 -0.0466 -0.2710
 6159W        W49253   2.421   7.179  22.777 -0.0779  0.0944 -0.1546
 6160W        W49254   2.530   5.072  19.247 -0.1472  0.0834 -0.0656
 6161W        W49255   2.059   5.369  20.526 -0.2559 -0.2540  0.1335
 6162W        W49256   1.612   3.796  23.363  0.0299 -0.0606 -0.3918
 6163W        W49257   2.924   5.207  23.895  0.2417 -0.2358  0.1382
 6164W        W49258   1.816   4.022  22.103  0.2984  0.0212  0.1491
 6165W        W49259   0.739   4.404  21.501 -0.0250  0.0209  0.2399
 6166W        W49260   1.232   5.075  21.715 -0.2538 -0.0251  0.0691
 6167W        W49261   2.604   6.061  23.842 -0.1056  0.1116 -0.0402
 6168W        W49262   2.025   5.150  23.726 -0.2414  0.1299 -0.3989
 6169W        W49263   1.933   8.126  24.560  0.0031  0.0963  0.0372
 6170W        W49264   2.494   4.283  22.136 -0.1685 -0.0269  0.0109
 6171W        W49265   2.908   7.654  19.922  0.0279  0.3889  0.1391
 6172W        W49266   1.892   4.260  23.305  0.0671  0.1348 -0.1662
 6173W        W49267   0.980   6.747  18.999 -0.2829 -0.0370  0.1300
 6174W        W49268  34.528   5.875  23.377  0.3057  0.3972  0.0064
 6175W        W49269   1.171   5.350  19.734 -0.1189 -0.2475  0.0986
 6176W        W49270   1.473   3.304  23.242 -0.0793  0.1333 -0.0121
 6177W        W49271  34.290   5.887  22.463 -0.0689  0.1291  0.0211
 6178W        W49272   1.492   4.986  20.404  0.0055 -0.1456 -0.2536
 6179W        W49273   0.043   8.066  22.292  0.0741 -0.3951  0.2693
 6180W        W49274   2.732   4.007  20.860  0.1485  0.2208 -0.1453
 6181W        W49275   2.507   5.731  19.043 -0.0301  0.0177  0.0223
 6182W        W49276   1.473   5.417  20.737  0.1214 -0.1878  0.0466
 6183W        W49277   3.915   5.484  24.866 -0.0733 -0.0644  0.1910
 6184W        W49278   3.220   5.146  21.475 -0.0436 -0.0153  0.1457
 6185W        W49279   3.675   4.318  24.332 -0.0886 -0.0993  0.0215
 6186W        W49280  34.525   3.448  23.112  0.1122 -0.0472  0.1616
 6187W        W49281   3.765   6.002  21.829 -0.4360 -0.0912 -0.1121
 6188W        W49282  33.966   5.003  25.119 -0.1005  0.0191 -0.0349
 6189W        W49283   2.982   7.920  23.479 -0.0865  0.0945  0.1936
 6190W        W49284   0.144   4.038  22.331 -0.2592 -0.0371 -0.0443
 6191W        W49285   1.486   4.083  21.108 -0.1366 -0.0421  0.1841
 6192W        W49286  34.145   4.309  19.122  0.0937  0.0203 -0.0008
 6193W        W49287   1.398   4.752  22.730 -0.0801 -0.1645 -0.2434
 6194W        W49288   3.023   5.425  21.882 -0.0838  0.1586 -0.0212
 6195W        W49289   1.695   5.437  20.237 -0.1925  0.0647 -0.0921
 6196W        W49290   3.492   5.104  23.554 -0.1752  0.1731  0.1079
 6197W        W49291   1.054   5.818  21.294  0.2959  0.2262 -0.0764
 6198W        W49292   3.500   5.660  21.592 -0.1150  0.0305  0.0223
 6199W        W49293   2.572   4.827  21.232 -0.0768  0.2711  0.1100
 6200W        W49294   0.646   6.352  19.687  0.2907 -0.1475  0.1832
 6201W        W49295   1.122   2.837  23.706  0.0892 -0.0378  0.1562
 6202W        W49296   2.140   5.587  22.617 -0.0595  0.0914 -0.0549
 6203W        W49297   2.224   4.075  20.789 -0.1393 -0.1983 -0.2757
 6204W        W49298   1.200   4.053  22.185 -0.2130  0.0374  0.0668
 6205W        W49299   2.743   4.759  24.820  0.1247  0.2109 -0.1883
 6206W        W49300   1.684   4.798  23.678  0.1319  0.0090 -0.1916
 6207W        W49301   0.853   5.328  23.810 -0.1949  0.2027 -0.1818
 6208W        W49302   2.243   7.327  22.331  0.1822  0.1373 -0.2750
 6209W        W49303   2.724   4.569  20.799  0.1320  0.0015 -0.2667
 6210W        W49304   3.129   4.752  23.692  0.2298  0.1545  0.0712
 6211W        W49305   4.390   4.415  21.669 -0.0780  0.0454  0.1235
 6212W        W49306   2.971   4.885  21.853 -0.2368 -0.4605 -0.0563
 6213W        W49307   0.805   4.536  23.134 -0.1265  0.0125 -0.2362
 6214W        W49308   2.900   4.238  23.094  0.2546 -0.1337  0.1210
 6215W        W49309   2.248   4.601  20.923 -0.0309  0.1179 -0.0009
 6216W        W49310   3.676   4.208  23.850 -0.2930  0.1990  0.0873
 6217W        W49311   0.953   6.158  20.071  0.2066  0.1251 -0.2184
 6218W        W49312   2.726   6.968  23.496  0.0154  0.0351  0.0448
 6219W        W49313   2.703   5.214  21.532 -0.0843  0.2092  0.0128
 6220W        W49314  34.380   4.462  21.129  0.0104 -0.1651  0.1000
 6221W        W49315   1.278   6.712  21.968  0.1745 -0.0431 -0.1084
 6222W        W49316   1.588   5.015  19.542 -0.0558  0.0484  0.0229
 6223W        W49317   2.854   4.999  20.516 -0.0745  0.3109 -0.1721
 6224W        W49318   2.580   5.988  23.304  0.0595 -0.2318  0.2647
 6225W        W49319   3.888   5.475  23.572 -0.4957  0.4685 -0.0826
 6226W        W49320   1.651   3.824  19.843  0.5013  0.1726 -0.2405
 6227W        W49321   3.751   5.310  22.482  0.0940 -0.0007  0.0899
 6228W        W49322  33.209   6.366  18.625  0.3379 -0.1223  0.1062
 6229W        W49323   2.396   4.279  23.191 -0.0982  0.0819  0.1964
 6230W        W49324   1.946   8.873  23.115  0.2275 -0.1586  0.0102
 6231W        W49325  34.215   6.606  22.488 -0.0511 -0.0324 -0.1865
 6232W        W49326   1.076   6.215  19.584 -0.0544  0.1667 -0.0313
 6233W        W49327   3.104   3.798  22.907 -0.1446  0.0223  0.0113
 6234W        W49328   1.612   5.669  22.684 -0.1022  0.0790  0.2240
 6235W        W49329   1.451   6.058  21.542 -0.0269 -0.4448 -0.0867
 6236W        W49330   4.622   6.239  21.577  0.1638  0.0604 -0.0824
 6237W        W49331   2.407   6.476  23.463  0.3498 -0.0610  0.3782
 6238W        W49332   0.279   5.963  19.605 -0.2290 -0.3147 -0.2340
 6239W        W49333   2.886   6.254  22.988  0.1320 -0.1475 -0.0874
 6240W        W49334   2.752   5.717  21.566 -0.2054  0.0236  0.1919
 6241W        W49335   1.349   6.010  19.144 -0.0656 -0.1053  0.1462
 6242W        W49336   0.203   4.255  23.801  0.2823 -0.0007  0.4955
 6243W        W49337   3.258   5.374  22.825  0.0727  0.0746  0.1928
 6244W        W49338   2.439   4.830  22.983  0.3150 -0.0333 -0.0905
 6245W        W49339   0.809   3.712  22.277 -0.0658 -0.2362 -0.2627
 6246W        W49340   2.606   5.466  20.568 -0.3685 -0.2642  0.0196
 6247W        W49341   1.272   6.414  22.938 -0.0073  0.1063  0.0086
 6248W        W49342   1.639   6.436  21.782 -0.1692 -0.2436 -0.0417
 6249W        W49343   1.384   7.731  21.803 -0.1203 -0.2353 -0.0452
 6250W        W49344   3.054   6.564  21.429  0.4050  0.0569  0.0988
 6251W        W49345   2.401   4.617  20.420  0.1360 -0.0468 -0.0754
 6252W        W49346   2.044   6.874  22.070  0.3306 -0.1322  0.1612
 6253W        W49347   0.505   4.837  18.968 -0.2859 -0.0571 -0.1973
 6254W        W49348   2.176   5.928  20.379  0.2325  0.1935 -0.0594
 6255W        W49349  34.472   5.976  19.410 -0.3486 -0.4101 -0.0836
 6256W        W49350   3.141   6.021  21.487  0.3709 -0.2425  0.2907
 6257W        W49351   1.681   6.436  21.192 -0.0905  0.4563  0.0909
 6258W        W49352   4.172   6.685  23.829 -0.0012  0.0372 -0.1595
 6259W        W49353   1.992   3.114  21.792 -0.1298  0.1089  0.0593
 6260W        W49354   3.461   4.936  22.734  0.0513 -0.1789 -0.0173
 6261W        W49355   2.926   5.025  22.907  0.3067  0.0693 -0.2951
 6262W        W49356   2.364   7.931  24.196  0.2387 -0.0938 -0.0009
 6263W        W49357   1.997   5.151  22.295 -0.1917  0.2522 -0.0566
 6264W        W49358   1.117   2.962  20.979  0.2218 -0.0318 -0.2335
 6265W        W49359   1.982   4.695  25.069 -0.3411 -0.2572 -0.3841
 6266W        W49360   5.025   3.901  22.972  0.0899 -0.1159  0.1919
 6267W        W49361   0.271   6.326  22.775 -0.1228  0.1624 -0.3798
 6268W        W49362   2.675   5.692  20.172 -0.1792 -0.1215 -0.1288
 6269W        W49363   1.027   4.911  21.230 -0.1615  0.1199  0.1519
 6270W        W49364   2.756   3.944  21.723  0.1031 -0.1598 -0.0723
 6271W        W49365   3.782   4.696  23.577  0.3049  0.0558  0.2352
 6272W        W49366   1.931   5.028  20.079  0.3353  0.0411  0.4483
 6273W        W49367   2.415   4.848  21.877 -0.1124  0.1105 -0.2203
 6274W        W49368   2.342   6.085  22.337  0.2164 -0.1844  0.0275
 6275W        W49369   0.828   5.732  19.717 -0.1195  0.0856  0.1087
 6276W        W49370   2.194   6.162  21.389 -0.0451  0.1484 -0.0746
 6277W        W49371   0.354   4.188  20.066 -0.1952  0.3414  0.0243
 6278W        W49372   3.753   4.900  21.169 -0.1539  0.3880 -0.3085
 6279W        W49373   0.571   6.210  23.471 -0.3209  0.3175  0.0036
 6280W        W49374   1.598   2.699  22.411 -0.0695 -0.1225  0.3225
 6281W        W49375   0.063   5.981  18.978  0.1674  0.1186 -0.2478
 6282W        W49376   3.349   5.582  22.338 -0.1285 -0.0255  0.1876
 6283W        W49377   3.222   4.428  24.132  0.3536  0.2923  0.0781
 6284W        W49378   1.808   5.636  23.508 -0.1406  0.0791 -0.3395
 6285W        W49379   1.403   4.616  21.499 -0.0488  0.1050  0.2413
 6286W        W49380   4.188   5.521  24.034  0.0672  0.2574  0.1766
 6287W        W49381   3.738   5.253  19.731  0.2103  0.4688 -0.0453
 6288W        W49382   1.890   8.114  23.727 -0.1006  0.0255 -0.4873
 6289W        W49383   1.502   5.213  22.615 -0.3730  0.0914  0.1835
 6290W        W49384   2.361   3.774  22.108 -0.1601 -0.2139 -0.3472
 6291W        W49385  34.296   5.499  20.254  0.2130  0.0667  0.0630
 6292W        W49386   1.948   5.796  22.212  0.1451  0.0933  0.2924
 6293W        W49387   2.964   6.437  23.509 -0.2142 -0.0358  0.1618
 6294W        W49388   1.703   4.137  21.654 -0.1850 -0.4414 -0.0595
 6295W        W49389   3.350   6.857  20.333 -0.0285 -0.0323 -0.2992
 6296W        W49390   4.533   5.805  21.770 -0.0186 -0.2761  0.2115
 6297W        W49391   1.776   6.434  20.699 -0.2786  0.0135  0.1106
 6298W        W49392   2.739   4.837  22.298  0.1428  0.0287  0.0342
 6299W        W49393   3.709   6.707  22.567 -0.0766 -0.0642  0.1020
 6300W        W49394  34.373   3.870  22.541 -0.2980  0.1341 -0.1046
 6301W        W49395   3.350   6.132  23.202  0.2319  0.0587  0.0877
 6302W        W49396   5.077   6.818  22.328  0.2177  0.2316 -0.0716
 6303W        W49397   1.597   2.430  20.582  0.3500 -0.0833 -0.0084
 6304W        W49398   1.172   5.377  20.258 -0.2739  0.0946 -0.0304
 6305W        W49399   0.501   7.088  22.076 -0.0805 -0.0608 -0.2336
 6306W        W49400   3.064   1.808  23.062 -0.1135 -0.0859  0.0939
 6307W        W49401   1.058   6.109  23.370 -0.0231 -0.0011 -0.3615
 6308W        W49402   1.873   6.271  20.212  0.2237 -0.0965  0.1058
 6309W        W49403   4.091   3.590  22.774  0.2172 -0.0078  0.0254
 6310W        W49404   1.972   6.920  22.674 -0.1129 -0.0438  0.0657
 6311W        W49405   1.258   7.464  22.597 -0.1415  0.2330  0.3764
 6312W        W49406  34.606   4.866  20.418 -0.1644 -0.3344  0.1008
 6313W        W49407   2.114   5.180  23.253 -0.3234 -0.0161 -0.1704
 6314W        W49408   2.470   7.046  21.437  0.1711 -0.2732  0.0411
 6315W        W49409   3.245   7.476  20.296 -0.0188 -0.0381 -0.2347
 6316W        W49410   2.871   6.278  22.520 -0.0282 -0.0273 -0.0838
 6317W        W49411   1.954   4.474  21.962 -0.2626 -0.1551  0.0067
 6318W        W49412   3.053   5.912  23.611 -0.2103  0.0537  0.2439
 6319W        W49413   0.582   3.140  22.152 -0.2381 -0.5535  0.0718
 6320W        W49414   3.686   4.466  20.719 -0.1931  0.2148 -0.0850
 6321W        W49415   2.305   3.629  20.865 -0.0347 -0.0579  0.1991
 6322W        W49416   1.353   6.079  22.632  0.0936  0.2734 -0.0703
 6323W        W49417   0.965   5.754  19.216  0.0818  0.0394  0.1816
 6324W        W49418   0.626   5.905  20.492 -0.0497 -0.3113  0.2312
 6325W        W49419   0.434   5.452  22.248  0.0041 -0.0698 -0.2773
 6326W        W49420   1.724   2.408  23.862 -0.1544 -0.4989 -0.2366
 6327W        W49421   0.700   3.228  23.637 -0.1712 -0.1432 -0.0724
 6328W        W49422   0.614   6.825  20.517  0.0014 -0.1749  0.0094
 6329W        W49423   0.493   4.377  20.853  0.2184 -0.0718 -0.3870
 6330W        W49424   3.772   7.586  21.478  0.0528  0.0932  0.3630
 6331W        W49425   0.911   4.727  21.895 -0.3013 -0.0140  0.0503
 6332W        W49426   0.954   4.611  22.477 -0.0571  0.0219  0.0405
 6333W        W49427   2.334   5.749  21.881  0.1173  0.1716 -0.1398
 6334W        W49428   2.884   6.689  21.860 -0.2833  0.1904 -0.0868
 6335W        W49429   0.777   4.224  20.464 -0.0157 -0.1154 -0.0098
 6336W        W49430   3.597   6.193  24.468  0.1180  0.0816  0.1472
 6337W        W49431  34.216   5.157  19.204  0.0757  0.2480 -0.1869
 6338W        W49432   1.467   4.890  24.242  0.2067 -0.2253  0.1578
 6339W        W49433   2.316   4.373  23.803 -0.1193  0.2040 -0.0917
 6340W        W49434   0.660   3.908  20.832 -0.0765 -0.0779 -0.1008
 6341W        W49435   1.961   3.511  22.098  0.1800 -0.0898 -0.3394
 6342W        W49436   3.300   6.367  21.848 -0.0716 -0.0378  0.0015
 6343W        W49437   3.021   7.178  20.742  0.0170 -0.1413 -0.1688
 6344W        W49438   2.214   5.676  20.833 -0.0704 -0.1159  0.1058
 6345W        W49439   2.730   6.730  22.972  0.1337 -0.1534  0.3143
 6346W        W49440   0.854   2.066  24.109  0.2389  0.3133  0.1930
 6347W        W49441   2.826   5.795  22.279 -0.0823 -0.3995  0.2842
 6348W        W49442   1.268   5.672  21.761  0.1967 -0.1326 -0.1466
 6349W        W49443   3.921   6.820  19.725 -0.0077  0.0353  0.0707
 6350W        W49444   4.181   4.384  22.653  0.1652 -0.2628  0.1489
 6351W        W49445   2.059   4.731  21.469 -0.1644  0.1590  0.2419
 6352W        W49446   0.910   4.415  23.613 -0.0331  0.3536  0.1663
 6353W        W49447   0.877   7.146  22.349 -0.0971 -0.1670 -0.0045
 6354W        W49448   4.428   6.839  22.043  0.3209 -0.0279  0.0566
 6355W        W49449   2.233   4.179  21.716 -0.1095  0.1173 -0.2268
 6356W        W49450   2.953   5.117  21.063 -0.4656  0.1241 -0.1797
 6357W        W49451   2.731   6.089  21.831 -0.1529 -0.2729 -0.0589
 6358W        W49452  34.553   5.423  21.539 -0.0481  0.1279  0.0619
 6359W        W49453   2.629   4.131  20.242  0.1702  0.2174  0.1073
 6360W        W49454   2.061   4.793  24.024 -0.0021  0.0938  0.2089
 6361W        W49455   2.725   6.100  21.221 -0.0866 -0.2121  0.1478
 6362W        W49456   3.030   5.159  23.367 -0.1810  0.0048  0.0326
 6363W        W49457   0.982   4.891  20.217  0.1006 -0.2439  0.0976
 6364W        W49458   3.628   6.268  21.443 -0.1536  0.0876  0.1761
 6365W        W49459   3.216   6.885  23.693 -0.1039  0.3014 -0.1732
 6366W        W49460   4.392   6.799  23.396  0.1180  0.0182  0.1327
 6367W        W49461   2.575   6.509  22.165  0.1810 -0.0593  0.1684
 6368W        W49462   4.193   6.131  20.417  0.0638  0.1006  0.1081
 6369W        W49463  34.367   4.087  22.080 -0.0373 -0.0168 -0.0264
 6370W        W49464   1.784   7.822  19.407 -0.2069 -0.0345 -0.0091
 6371W        W49465   3.372   4.372  20.011  0.0951  0.2566  0.0209
 6372W        W49466   1.955   6.095  22.749 -0.0532  0.2176 -0.2263
 6373W        W49467   0.582   4.935  21.566 -0.1824 -0.1731 -0.0436
 6374W        W49468   1.561   3.011  20.595 -0.1351 -0.0860  0.1705
 6375W        W49469   1.784   7.597  22.078  0.0838 -0.1696 -0.0397
 6376W        W49470   2.564   5.084  23.501  0.1523 -0.0128 -0.1871
 6377W        W49471   0.268   5.170  27.022 -0.1207  0.1236 -0.3268
 6378W        W49472   1.637   6.096  23.680  0.1665 -0.0652  0.0981
 6379W        W49473   3.654   4.855  25.014 -0.2541  0.2089 -0.0701
 6380W        W49474   4.563   4.379  24.806  0.0635 -0.0949 -0.2941
 6381W        W49475  34.269   5.264  24.572 -0.0098  0.3633 -0.0157
 6382W        W49476   2.322   7.416  24.108  0.2047  0.3024  0.1648
 6383W        W49477   0.776   3.787  25.431  0.1277  0.1270  0.1217
 6384W        W49478   0.913   6.449  26.430 -0.0524  0.1300  0.1249
 6385W        W49479   3.708   6.639  24.692  0.3575  0.0298 -0.1024
 6386W        W49480   2.163   5.667  23.953  0.1347 -0.0527 -0.2092
 6387W        W49481   1.112   4.832  26.234  0.2599 -0.1058 -0.3615
 6388W        W49482   3.135   5.425  26.226  0.1475  0.1381  0.2844
 6389W        W49483   0.623   4.249  24.077 -0.1982 -0.0261  0.0354
 6390W        W49484  34.352   4.074  25.129 -0.3840 -0.0831 -0.0411
 6391W        W49485   2.755   5.966  26.107  0.4816  0.2652 -0.0113
 6392W        W49486   0.494   6.259  26.201 -0.0450  0.3512 -0.0484
 6393W        W49487   1.664   3.778  25.211 -0.1901 -0.0784 -0.1312
 6394W        W49488   1.807   5.691  25.218  0.1731  0.0237 -0.0588
 6395W        W49489   1.582   6.898  25.956  0.0767 -0.0798  0.2631
 6396W        W49490   1.544   5.007  27.021 -0.2578  0.0161 -0.1011
 6397W        W49491   2.798   3.805  26.717 -0.0660 -0.1323  0.2158
 6398W        W49492   1.404   6.468  23.381  0.0550  0.1781 -0.1467
 6399W        W49493   0.631   4.847  22.782 -0.1577 -0.1574 -0.1324
 6400W        W49494   1.445   5.355  26.074 -0.1584  0.1748 -0.0686
 6401W        W49495   0.978   5.442  26.217 -0.2089  0.2450 -0.1558
 6402W        W49496   3.420   4.548  25.938 -0.0455 -0.4889 -0.4006
 6403W        W49497   4.363   5.238  25.016 -0.0900  0.2005  0.2704
 6404W        W49498   0.814   7.119  25.298 -0.6045  0.0026  0.1555
 6405W        W49499   1.854   7.787  25.965 -0.0638 -0.3124 -0.2128
 6406W        W49500   2.336   3.674  27.561  0.0590  0.3459  0.3536
 6407W        W49501  34.227   6.703  25.073  0.0113  0.0772  0.1467
 6408W        W49502  34.437   7.042  24.763  0.1835  0.0039  0.3140
 6409W        W49503   2.153   6.425  25.528  0.1641 -0.0157 -0.0851
 6410W        W49504   3.644   5.828  26.450  0.0005 -0.1039 -0.0497
 6411W        W49505   3.889   6.879  27.107 -0.1333  0.2802 -0.0111
 6412W        W49506   1.661   5.992  26.150  0.2985 -0.2467  0.4064
 6413W        W49507   1.260   6.314  23.967 -0.1819  0.0662  0.0070
 6414W        W49508   2.921   7.257  26.590 -0.1304  0.0415 -0.1632
 6415W        W49509   2.449   5.405  26.247 -0.0522 -0.1497  0.1638
 6416W        W49510   2.064   6.342  26.492 -0.3546 -0.1208  0.3268
 6417W        W49511   2.853   6.504  24.895 -0.2218  0.2561 -0.1105
 6418W        W49512   1.145   5.597  22.356 -0.4005 -0.1085  0.4489
 6419W        W49513   2.192   6.746  25.105  0.1835  0.0594 -0.1821
 6420W        W49514   2.427   5.034  25.718 -0.0482 -0.2375 -0.0269
 6421W        W49515   1.077   6.764  26.023 -0.1074 -0.0068  0.0834
 6422W        W49516   2.876   5.242  26.651 -0.3844 -0.0501 -0.1007
 6423W        W49517   0.338   6.836  24.193 -0.2716  0.0002 -0.0247
 6424W        W49518   4.074   5.052  23.763 -0.1115 -0.0365 -0.2632
 6425W        W49519   1.645   5.059  24.645  0.1026 -0.2984 -0.4307
 6426W        W49520   4.857   5.429  24.874 -0.2042 -0.0432 -0.0405
 6427W        W49521   1.908   5.177  25.343 -0.0615 -0.2515  0.1092
 6428W        W49522   0.703   5.901  24.905  0.1402 -0.2007 -0.1184
 6429W        W49523   0.094   4.059  25.971  0.2022 -0.0672  0.0757
 6430W        W49524   3.682   5.524  26.026  0.3218  0.1726  0.3250
 6431W        W49525   2.353   5.434  25.414  0.0368 -0.0240 -0.0876
 6432W        W49526   3.837   5.348  26.511  0.1114  0.1169 -0.0949
 6433W        W49527   1.295   6.159  26.652  0.0275  0.1779 -0.2536
 6434W        W49528   0.714   7.143  24.700 -0.0421  0.2153 -0.1477
 6435W        W49529   4.133   7.044  22.976  0.3068 -0.3551  0.2213
 6436W        W49530   3.677   6.950  25.925 -0.0522  0.1090  0.3587
 6437W        W49531   2.290   6.678  24.650 -0.2237  0.0327  0.0534
 6438W        W49532   1.490   4.942  25.114 -0.4198  0.2143  0.2110
 6439W        W49533   0.545   5.637  27.096  0.0618 -0.0898  0.0219
 6440W        W49534   0.302   6.265  28.222  0.0053 -0.1928 -0.0239
 6441W        W49535   0.533   4.143  23.499 -0.2366 -0.1120  0.0996
 6442W        W49536   3.737   6.453  27.259 -0.3757  0.2076  0.1956
 6443W        W49537   0.678   7.027  25.842 -0.2252  0.0087  0.0706
 6444W        W49538   3.656   3.825  25.120 -0.0786 -0.2832 -0.1814
 6445W        W49539   1.471   6.053  24.362 -0.1971  0.2041 -0.1907
 6446W        W49540   3.928   7.368  26.925 -0.2000 -0.2728  0.2107
 6447W        W49541   3.699   5.805  24.050 -0.0453  0.0253  0.4622
 6448W        W49542   2.862   4.017  25.780  0.1531  0.1766 -0.0713
 6449W        W49543   2.260   3.498  26.673 -0.1103 -0.1058  0.1332
 6450W        W49544   0.317   5.680  23.330  0.0847  0.0544 -0.1539
 6451W        W49545   0.379   6.488  23.853  0.3115 -0.1095 -0.1493
 6452W        W49546   4.675   7.217  26.687  0.1344 -0.0913 -0.0892
 6453W        W49547   5.104   6.191  23.908 -0.1879  0.1795  0.2873
 6454W        W49548   1.047   7.656  25.971 -0.2477  0.0433  0.3381
 6455W        W49549   0.705   4.667  27.111 -0.2810  0.1654  0.1985
 6456W        W49550   1.469   6.612  27.238 -0.0601  0.0534 -0.5431
 6457W        W49551   0.909   8.146  23.733  0.1834  0.5607  0.1697
 6458W        W49552  34.268   6.227  24.227  0.0512  0.0016  0.1160
 6459W        W49553   1.439   7.028  22.851 -0.1139  0.2288  0.1463
 6460W        W49554   0.060   3.844  26.898 -0.1379  0.2143 -0.4849
 6461W        W49555   1.916   5.545  25.742 -0.0514 -0.0377 -0.0023
 6462W        W49556   3.275   4.653  24.582 -0.0411  0.2263  0.4051
 6463W        W49557   1.722   4.748  27.481  0.1999  0.3523 -0.1120
 6464W        W49558   2.369   4.430  24.915  0.0076 -0.2271 -0.3044
 6465W        W49559   1.063   5.413  24.755  0.0827  0.0523 -0.0116
 6466W        W49560   4.626   6.929  23.835  0.1097  0.1239 -0.1922
 6467W        W49561   4.357   5.283  24.484 -0.0369 -0.0187 -0.2088
 6468W        W49562   4.194   6.951  22.466 -0.0585  0.1865 -0.1136
 6469W        W49563   0.329   5.692  27.934  0.1554 -0.3037  0.1265
 6470W        W49564   0.715   5.104  26.019 -0.3438  0.0945 -0.1228
 6471W        W49565   1.429   5.129  28.201  0.2006 -0.1231 -0.0114
 6472W        W49566   0.963   6.052  25.672 -0.0022  0.1572  0.0236
 6473W        W49567   2.005   4.331  27.000 -0.2243 -0.2937 -0.0901
 6474W        W49568  34.466   2.089  25.120 -0.1476 -0.1004 -0.3127
 6475W        W49569   3.780   5.613  25.445  0.4604 -0.1228 -0.2816
 6476W        W49570   0.108   5.169  24.956  0.0683  0.2683 -0.3781
 6477W        W49571  34.435   5.864  24.636  0.2150  0.1574  0.0606
 6478W        W49572   3.162   4.002  26.384 -0.0884  0.1181 -0.1746
 6479W        W49573   1.469   7.551  24.175 -0.0265  0.0712  0.0653
 6480W        W49574   3.970   8.532  27.068 -0.4278  0.0613 -0.1046
 6481W        W49575   2.764   7.858  24.550  0.0495  0.1970  0.1017
 6482W        W49576   2.066   4.657  25.907  0.0491  0.3339  0.2768
 6483W        W49577   1.350   3.443  24.164 -0.0001 -0.2506 -0.1908
 6484W        W49578   0.783   7.288  26.250  0.1909 -0.1215 -0.1925
 6485W        W49579   1.506   6.474  25.053 -0.0435 -0.0497  0.0196
 6486W        W49580   2.389   4.986  24.533  0.1170 -0.1051  0.2369
 6487W        W49581   3.147   6.953  25.922  0.1914  0.0062  0.1847
 6488W        W49582   1.711   5.693  24.036 -0.2204  0.0322 -0.0538
 6489W        W49583   0.647   5.074  26.600 -0.1238  0.0000  0.1360
 6490W        W49584   3.634   4.192  26.346 -0.0808  0.3430  0.1354
 6491W        W49585   2.360   5.864  26.474 -0.2894 -0.1055 -0.1248
 6492W        W49586   2.762   5.448  24.319 -0.1394  0.2970  0.0807
 6493W        W49587   1.326   4.953  25.705 -0.0181 -0.0035 -0.0119
 6494W        W49588   1.493   7.943  24.454  0.0282  0.0662 -0.2586
 6495W        W49589   2.016   6.185  23.222 -0.0127  0.0831 -0.2891
 6496W        W49590  34.556   5.462  23.664 -0.2426  0.1587 -0.3791
 6497W        W49591   1.744   7.721  24.904  0.0235  0.0992  0.0996
 6498W        W49592   3.406   2.711  25.158 -0.0509  0.1479 -0.3180
 6499W        W49593  33.760   5.814  27.793  0.0984 -0.1444  0.1808
 6500W        W49594   2.806   4.972  26.002  0.1682  0.1236  0.0589
 6501W        W49595   0.582   5.057  24.709  0.3819  0.2107 -0.2577
 6502W        W49596   0.503   6.396  26.720  0.2490  0.2710  0.1915
 6503W        W49597   2.347   3.432  23.713 -0.0578 -0.0957  0.3088
 6504W        W49598   2.946   3.812  24.396  0.2139  0.3652 -0.5483
 6505W        W49599   1.699   5.037  26.468  0.3939 -0.0575  0.1159
 6506W        W49600   3.140   6.093  24.746  0.0179 -0.0198 -0.3226
 6507W        W49601   1.717   4.287  25.170  0.1168 -0.1420 -0.1211
 6508W        W49602   2.571   5.414  24.837  0.0376 -0.0802  0.0511
 6509W        W49603   1.240   6.124  27.217 -0.1230  0.4320  0.0868
 6510W        W49604   2.708   7.183  23.937 -0.0201 -0.1292  0.1851
 6511W        W49605   2.486   7.263  25.864  0.1244  0.1423  0.2065
 6512W        W49606   2.808   4.928  24.275  0.0338  0.1498 -0.0064
 6513W        W49607   4.547   6.325  24.514  0.1449  0.2309 -0.0888
 6514W        W49608   0.315   5.989  27.537 -0.2311 -0.0079 -0.0800
 6515W        W49609   3.330   5.990  27.890 -0.0800 -0.1187  0.2444
 6516W        W49610   3.965   5.862  24.497 -0.0692 -0.2071  0.0096
 6517W        W49611   1.621   4.683  26.112 -0.1683  0.0483 -0.2529
 6518W        W49612   2.074   5.310  24.819  0.0316 -0.0053  0.1309
 6519W        W49613   3.490   5.216  25.353  0.1552  0.5807 -0.0239
 6520W        W49614   0.515   7.729  23.658 -0.1681 -0.0846  0.1841
 6521W        W49615   3.655   3.785  26.723  0.0221 -0.0991 -0.0611
 6522W        W49616   1.304   4.550  27.135  0.2034  0.0720 -0.2131
 6523W        W49617   2.553   5.518  27.447  0.0317  0.3571  0.2217
 6524W        W49618   2.776   6.293  26.884 -0.1120 -0.1430  0.4560
 6525W        W49619   3.459   5.632  25.044 -0.2810  0.1363  0.0547
 6526W        W49620   2.119   6.902  25.766 -0.0752  0.2186  0.0494
 6527W        W49621   0.941   6.529  23.656 -0.0117  0.3111  0.0830
 6528W        W49622   1.731   4.676  25.497 -0.1342 -0.0235  0.1025
 6529W        W49623  34.489   5.648  26.803  0.0085  0.0985 -0.0690
 6530W        W49624  34.207   4.943  27.366 -0.0380  0.0398 -0.0874
 6531W        W49625   1.896   5.997  25.647 -0.0051 -0.0991  0.0061
 6532W        W49626   3.970   6.243  23.426 -0.1314 -0.1953  0.3186
 6533W        W49627   1.789   3.438  26.660 -0.2824  0.1144 -0.0413
 6534W        W49628   2.680   3.419  23.088  0.1743  0.2114  0.2062
 6535W        W49629   1.340   7.024  25.124 -0.3795  0.0659  0.4057
 6536W        W49630   0.554   5.965  23.025  0.1641  0.2045  0.3063
 6537W        W49631   2.079   3.770  26.238  0.3199  0.0179 -0.2873
 6538W        W49632   2.539   7.325  26.956 -0.0085 -0.0558 -0.0575
 6539W        W49633   1.205   6.809  24.169 -0.0920 -0.0801 -0.0841
 6540W        W49634   3.275   6.453  26.915 -0.0103  0.0583  0.0531
 6541W        W49635   0.045   6.672  25.369  0.0227  0.1721  0.2457
 6542W        W49636   3.456   2.492  25.689 -0.1545 -0.1593 -0.1713
 6543W        W49637  33.805   7.958  25.966  0.0614 -0.3096  0.3395
 6544W        W49638   1.281   5.191  23.461  0.1480  0.0673 -0.1520
 6545W        W49639  33.849   6.012  24.467 -0.1447 -0.2058 -0.2976
 6546W        W49640   4.236   4.764  25.118  0.0438 -0.0382  0.0973
 6547W        W49641   3.055   5.570  24.704  0.0965 -0.0922  0.1154
 6548W        W49642  34.616   4.739  27.181 -0.1319  0.0684  0.3770
 6549W        W49643   3.945   4.890  26.253  0.1650 -0.0925 -0.1106
 6550W        W49644  33.081   6.332  27.565 -0.0780  0.0022 -0.1035
 6551W        W49645   3.474   4.999  26.687  0.1923  0.0981 -0.0998
 6552W        W49646   3.567   3.165  23.469  0.3558  0.2759  0.1291
 6553W        W49647   2.811   6.785  26.950  0.1535 -0.1679  0.1041
 6554W        W49648   2.008   4.936  26.866  0.0717  0.2765 -0.2190
 6555W        W49649   0.364   4.648  23.353 -0.1972 -0.1794 -0.2056
 6556W        W49650   3.040   4.320  24.996  0.2123 -0.1098  0.1527
 6557W        W49651   2.230   3.600  24.609  0.3177  0.0692 -0.1305
 6558W        W49652   1.291   7.197  23.830  0.0439 -0.0125  0.0017
 6559W        W49653   2.721   6.726  25.340  0.1108  0.2048  0.0005
 6560W        W49654   1.297   5.717  23.672  0.0828 -0.2040 -0.3257
 6561W        W49655   0.752   6.464  25.846 -0.4084  0.1551 -0.0087
 6562W        W49656   0.373   4.307  27.056 -0.2618  0.2087 -0.2945
 6563W        W49657   2.204   5.379  28.042  0.0068  0.1144  0.4292
 6564W        W49658   1.061   5.739  25.224 -0.0357 -0.0107 -0.0899
 6565W        W49659   2.042   4.591  24.551 -0.1741  0.0973 -0.2089
 6566W        W49660   2.414   6.152  24.383  0.0660 -0.1351  0.0083
 6567W        W49661   3.993   5.128  25.422  0.0808  0.0680 -0.1449
 6568W        W49662   2.413   4.520  26.808  0.2381 -0.2501  0.1577
 6569W        W49663   0.833   5.695  27.878 -0.2311  0.0840 -0.3780
 6570W        W49664   2.866   5.186  25.194  0.0784  0.0365  0.1089
 6571W        W49665   3.700   6.201  22.734 -0.2240  0.0597 -0.0849
 6572W        W49666   2.759   5.426  25.782  0.0736 -0.1055  0.3314
 6573W        W49667   1.995   5.284  24.245  0.2261  0.1539 -0.0756
 6574W        W49668  34.629   5.629  27.645 -0.0923 -0.0041  0.0226
 6575W        W49669   1.410   5.751  25.760  0.0984 -0.0752 -0.2075
 6576W        W49670   0.812   4.679  27.603 -0.2073 -0.0166  0.2917
 6577W        W49671   1.112   6.039  26.193 -0.1852  0.1346  0.0557
 6578W        W49672   0.264   6.661  22.065  0.2211 -0.0620  0.0193
 6579W        W49673  34.402   6.007  26.371 -0.1607  0.1065 -0.0941
 6580W        W49674   4.086   3.088  23.561  0.3060 -0.1506  0.2476
 6581W        W49675   0.514   5.947  24.256 -0.0166 -0.3216 -0.1638
 6582W        W49676   2.717   4.654  25.331  0.3795 -0.3170  0.3358
 6583W        W49677   4.114   3.145  27.043 -0.1665  0.1185  0.1264
 6584W        W49678   3.228   5.752  24.244 -0.1707  0.0516 -0.3829
 6585W        W49679   2.810   3.064  26.982 -0.2847  0.0670 -0.0897
 6586W        W49680   0.829   4.207  27.994  0.1689 -0.0656 -0.1918
 6587W        W49681   3.002   6.482  26.002 -0.2538  0.0075  0.0186
 6588W        W49682   1.102   4.703  26.733 -0.0633 -0.1632 -0.0375
 6589W        W49683   2.300   6.176  26.922  0.2054  0.1268  0.1540
 6590W        W49684   0.998   4.918  28.576 -0.0775 -0.1017  0.0268
 6591W        W49685   2.337   5.678  24.470 -0.0544  0.1486 -0.2719
 6592W        W49686   2.638   4.784  23.853  0.1140 -0.0234 -0.0059
 6593W        W49687   1.328   6.308  25.789 -0.1523  0.0817  0.0712
 6594W        W49688   2.406   6.303  24.968  0.0472  0.2977  0.1255
 6595W        W49689   0.545   6.364  24.629 -0.1847  0.0963 -0.0427
 6596W        W49690   4.023   4.325  25.290 -0.1791 -0.0341  0.0758
 6597W        W49691  34.284   6.549  27.146  0.0541 -0.4013  0.0143
 6598W        W49692   2.155   6.953  24.217  0.3362 -0.0974 -0.0001
 6599W        W49693   1.434   5.290  23.944 -0.2403  0.1985  0.0982
 6600W        W49694   1.664   4.579  26.761 -0.2165 -0.3076 -0.0810
 6601W        W49695   0.792   4.314  26.694 -0.2588  0.1992 -0.5743
 6602W        W49696   2.226   5.950  26.014 -0.0604  0.0029  0.0204
 6603W        W49697   3.104   2.867  26.476  0.0851 -0.1039 -0.0558
 6604W        W49698   2.890   4.310  26.680  0.1390  0.1892  0.1880
 6605W        W49699   3.430   4.232  26.977  0.0110  0.0040 -0.1894
 6606W        W49700   0.955   5.280  26.964 -0.0658 -0.2020  0.1001
 6607W        W49701   0.381   4.587  25.730  0.2053  0.0326 -0.0427
 6608W        W49702   2.288   6.764  26.176 -0.3706 -0.2366  0.2475
 6609W        W49703   4.578   6.205  22.591  0.0165  0.2137 -0.0674
 6610W        W49704   3.593   4.742  27.097  0.0229 -0.2510  0.0830
 6611W        W49705   4.500   5.798  24.722  0.1174 -0.0222 -0.0392
 6612W        W49706   2.183   4.690  23.466 -0.1527 -0.0807 -0.2057
 6613W        W49707   1.449   6.059  25.351 -0.0377  0.0363 -0.3589
 6614W        W49708   3.381   4.855  28.936 -0.1105  0.0734  0.3177
 6615W        W49709   1.420   4.291  23.063  0.1285 -0.1653  0.2954
 6616W        W49710   2.778   4.713  27.655  0.0916  0.1874 -0.0158
 6617W        W49711   1.850   5.693  24.587 -0.1473 -0.1439 -0.0563
 6618W        W49712   1.762   6.936  24.812 -0.1318  0.0306  0.2245
 6619W        W49713   2.896   4.336  24.528  0.0524 -0.1017 -0.0477
 6620W        W49714   0.931   5.950  24.472 -0.0222  0.0056 -0.3303
 6621W        W49715   0.108   7.117  25.725  0.1423 -0.2051  0.0771
 6622W        W49716   3.117   3.560  22.490 -0.1819 -0.2024 -0.3154
 6623W        W49717   1.801   6.556  24.064  0.0553  0.0779 -0.2772
 6624W        W49718   2.596   6.381  26.398  0.0710  0.0303  0.1681
 6625W        W49719   2.794   4.751  26.513 -0.3064 -0.0223  0.1855
 6626W        W49720   1.730   3.487  22.927 -0.1304 -0.0836  0.2938
 6627W        W49721   2.893   3.596  26.135  0.0562 -0.0881 -0.1231
 6628W        W49722   1.629   7.031  24.283  0.1213 -0.3260 -0.1333
 6629W        W49723   3.969   3.472  25.100  0.2660  0.0226  0.2309
 6630W        W49724   1.220   5.733  26.879  0.0839  0.2192  0.1685
 6631W        W49725   1.071   6.476  26.927 -0.0371  0.0287  0.2572
 6632W        W49726  34.007   6.778  26.010  0.1909  0.0052  0.0170
 6633W        W49727   2.279   4.711  27.254  0.1182 -0.2776 -0.1878
 6634W        W49728   3.323   4.539  26.524  0.3449 -0.3872 -0.1571
 6635W        W49729   1.933   6.178  25.180 -0.3003  0.2384  0.3065
 6636W        W49730   2.559   5.591  26.894 -0.1926  0.0575  0.1640
 6637W        W49731   3.029   5.524  27.183 -0.3930  0.1252  0.0105
 6638W        W49732   2.461   4.486  26.303  0.0861 -0.0729 -0.1681
 6639W        W49733   2.890   7.174  25.588  0.0257 -0.0399 -0.1311
 6640W        W49734   2.852   6.098  25.199 -0.1313 -0.1048  0.0848
 6641W        W49735   0.928   6.288  25.188 -0.2575  0.0706 -0.2233
 6642W        W49736  34.024   5.669  26.622 -0.0339 -0.1038 -0.1976
 6643W        W49737   2.146   5.419  26.685 -0.1418  0.2269  0.0359
 6644W        W49738   3.199   7.533  25.340 -0.0616 -0.0295 -0.0779
 6645W        W49739   0.910   3.206  24.037  0.3208  0.0628 -0.0590
 6646W        W49740   1.571   6.555  24.518 -0.0119 -0.0176 -0.0865
 6647W        W49741  34.634   7.835  26.714 -0.0789  0.4071  0.1090
 6648W        W49742   0.699   5.755  26.484 -0.1129 -0.0545 -0.1873
 6649W        W49743   1.413   7.373  24.662  0.0617 -0.1908 -0.0404
 6650W        W49744   2.433   6.396  22.769  0.2162  0.0826  0.0136
 6651W        W49745   3.339   5.513  23.788 -0.1431 -0.1883 -0.2324
 6652W        W49746   3.495   6.637  26.294 -0.0418  0.2098  0.0164
 6653W        W49747   1.439   5.439  24.421  0.2897 -0.2298  0.0592
 6654W        W49748   0.603   6.681  25.448 -0.0655  0.0568  0.2662
 6655W        W49749  34.551   6.661  24.348  0.2806 -0.1229  0.0473
 6656W        W49750   2.730   7.677  23.946  0.0602 -0.0944 -0.0874
 6657W        W49751   1.302   5.988  24.864  0.1986 -0.3503 -0.1427
 6658W        W49752   3.663   7.867  26.840  0.1294  0.0201  0.0301
 6659W        W49753   4.627   4.865  24.764  0.1715 -0.1702 -0.1297
 6660W        W49754   2.688   5.910  24.816 -0.0992  0.2213  0.2324
 6661W        W49755   4.838   4.968  24.330  0.3268  0.1165 -0.2673
 6662W        W49756   3.242   5.131  28.506  0.1431 -0.0120  0.0021
 6663W        W49757   2.851   5.860  26.626 -0.3062 -0.0648 -0.1037
 6664W        W49758   2.843   4.296  23.600 -0.2029 -0.3305 -0.1753
 6665W        W49759   1.077   5.467  28.288 -0.0812  0.1410  0.0388
 6666W        W49760   5.703   3.021  28.566  0.1995 -0.0412 -0.4644
 6667W        W49761   0.989   5.710  27.339 -0.0828  0.0054 -0.3557
 6668W        W49762   3.579   7.141  23.919  0.3279 -0.0796  0.2832
 6669W        W49763   1.103   5.635  24.138 -0.0991 -0.0293  0.0062
 6670W        W49764   2.226   5.822  24.922 -0.1799 -0.0561  0.0343
 6671W        W49765   3.992   2.543  26.126 -0.0226  0.2171  0.2294
 6672W        W49766   2.143   6.079  23.676  0.3274 -0.0475 -0.1426
 6673W        W49767   2.309   4.102  25.916  0.1418  0.1203 -0.0932
 6674W        W49768   1.095   6.362  24.623 -0.1327  0.1756  0.0531
 6675W        W49769   2.606   6.827  25.767  0.0247  0.3289  0.1586
 6676W        W49770   1.181   7.175  25.646  0.2635 -0.0126 -0.2306
 6677W        W49771   2.629   4.537  25.773  0.0421  0.0245 -0.0561
 6678W        W49772   4.599   5.731  25.262  0.2053  0.0260 -0.1524
 6679W        W49773   0.849   5.180  27.447  0.0880 -0.0241  0.0052
 6680W        W49774   4.100   3.653  26.968  0.1985 -0.1074 -0.2557
 6681W        W49775   1.295   4.271  25.644 -0.0846  0.1254  0.1130
 6682W        W49776   2.931   6.057  25.648 -0.3604 -0.0749  0.0414
 6683W        W49777   2.126   5.665  27.078  0.2914  0.3840 -0.0768
 6684W        W49778  34.476   5.309  27.173 -0.0218 -0.3181 -0.1765
 6685W        W49779   2.441   5.188  24.063  0.1412  0.0660 -0.1874
 6686W        W49780   3.288   5.931  26.928 -0.3646 -0.3726 -0.1576
 6687W        W49781   1.882   6.539  23.564 -0.1432 -0.1589  0.0621
 6688W        W49782   4.023   7.768  27.812  0.0636 -0.2733  0.0058
 6689W        W49783   0.910   2.837  24.546  0.2627 -0.2929 -0.5118
 6690W        W49784   3.286   5.152  24.757  0.2549 -0.0706  0.2307
 6691W        W49785   0.827   6.720  24.964 -0.0028 -0.1588 -0.0586
 6692W        W49786   0.941   4.196  27.453 -0.1683  0.2750 -0.2245
 6693W        W49787   2.977   7.261  27.138  0.1051  0.2662 -0.1251
 6694W        W49788   2.998   4.435  26.151  0.1633  0.2605  0.1569
 6695W        W49789   4.114   6.555  24.351 -0.0258 -0.1429  0.0117
 6696W        W49790   3.540   4.696  25.468 -0.0729  0.2862 -0.2208
 6697W        W49791   1.472   6.006  22.091  0.3085 -0.1161 -0.0107
 6698W        W49792   1.768   5.068  25.817 -0.0187  0.0103 -0.2027
 6699W        W49793   3.090   6.904  24.148  0.1670  0.1206 -0.0096
 6700W        W49794   0.276   5.070  26.244  0.2113  0.0472  0.0681
 6701W        W49795   3.326   6.948  26.809  0.1281 -0.0959 -0.1678
 6702W        W49796   4.396   6.297  26.060 -0.1217  0.0756 -0.3340
 6703W        W49797   2.600   4.031  24.106 -0.0040 -0.2868  0.2597
 6704W        W49798   2.188   3.716  24.102  0.0923 -0.2632 -0.0484
 6705W        W49799   0.780   6.971  23.943 -0.0625 -0.0326 -0.0703
 6706W        W49800   4.479   4.885  27.020  0.1448 -0.1441  0.0809
 6707W        W49801   4.519   2.682  26.337  0.1756  0.1381  0.0347
 6708W        W49802   1.650   7.398  23.098 -0.2398 -0.2425  0.0726
 6709W        W49803   3.786   3.280  26.614 -0.0902 -0.3504  0.0549
 6710W        W49804   1.899   6.428  26.030 -0.1135 -0.0573  0.2252
 6711W        W49805   1.930   5.521  26.217  0.2114  0.2350 -0.0497
 6712W        W49806   1.294   4.673  23.302 -0.1167 -0.1004  0.1124
 6713W        W49807   1.639   5.819  27.191 -0.1731  0.1615  0.2447
 6714W        W49808   1.073   7.464  26.698  0.0248 -0.1125  0.0672
 6715W        W49809   1.938   6.191  24.665  0.1850 -0.1603 -0.3225
 6716W        W49810   3.777   7.059  26.456 -0.0933  0.1297  0.0796
 6717W        W49811   2.363   4.999  25.083  0.0256  0.0500 -0.0974
 6718W        W49812   4.943   5.932  24.451  0.2187  0.0492  0.0634
 6719W        W49813   1.406   3.548  25.632 -0.1814  0.3263  0.1084
 6720W        W49814   3.049   2.555  26.038 -0.0431 -0.1807  0.1999
 6721W        W49815   4.563   4.577  22.868  0.1938 -0.0343 -0.1228
 6722W        W49816   3.055   6.648  26.533  0.1004  0.2247  0.0024
 6723W        W49817  34.687   5.812  24.095  0.0435  0.0716  0.1087
 6724W        W49818   0.515   6.708  23.288 -0.1179  0.0302 -0.3120
 6725W        W49819   1.205   5.179  26.589  0.2339  0.1603  0.1445
 6726W        W49820   2.669   3.997  26.262 -0.1076 -0.1886 -0.2286
 6727W        W49821   0.394   4.896  27.405 -0.0129 -0.2418 -0.1275
 6728W        W49822   0.255   5.964  24.687 -0.0929 -0.3043  0.2788
 6729W        W49823   2.052   4.139  24.328  0.2485 -0.1044 -0.0027
 6730W        W49824   3.201   7.548  24.282  0.1329  0.2717 -0.0684
 6731W        W49825   1.317   3.654  26.525 -0.1788 -0.0269  0.0781
 6732W        W49826   0.642   5.549  24.550  0.0377 -0.0728 -0.1266
 6733W        W49827   3.153   6.497  25.476  0.1330  0.1131  0.0568
 6734W        W49828   3.589   6.956  24.358  0.2525 -0.0527 -0.1521
 6735W        W49829   2.967   5.632  25.359 -0.0446  0.0812  0.0731
 6736W        W49830   3.413   6.912  27.307 -0.0010 -0.2172 -0.2364
 6737W        W49831   0.308   4.311  22.982  0.1411 -0.2747  0.0188
 6738W        W49832   2.336   4.022  26.680  0.0363 -0.1116 -0.0765
 6739W        W49833   1.509   3.664  27.136  0.0966  0.1384 -0.0215
 6740W        W49834   0.739   4.907  23.539 -0.0906  0.2265 -0.0035
 6741W        W49835   1.933   4.056  24.808  0.1965 -0.3265 -0.0288
 6742W        W49836   2.316   7.636  26.176 -0.0497  0.1062  0.0389
 6743W        W49837   3.622   7.076  24.940 -0.2226 -0.2638 -0.0761
 6744W        W49838   2.498   6.333  25.851 -0.1612 -0.2723  0.1684
 6745W        W49839   1.926   7.581  26.470  0.1917  0.0928 -0.1132
 6746W        W49840   0.675   5.793  25.999 -0.0435  0.0740 -0.0400
 6747W        W49841   3.576   6.490  23.559 -0.1594 -0.0054 -0.2072
 6748W        W49842   1.485   6.576  28.237  0.3058 -0.1757 -0.0581
 6749W        W49843   4.103   6.158  23.971 -0.1774  0.0064  0.0976
 6750W        W49844   3.856   4.074  25.918  0.0135  0.1215  0.0886
 6751W        W49845   3.294   6.232  23.973  0.2090  0.3047  0.1775
 6752W        W49846   1.671   3.652  28.390  0.1917 -0.2233 -0.0910
 6753W        W49847   2.167   4.904  28.926 -0.0113 -0.1081  0.3585
 6754W        W49848   4.094   5.870  25.151 -0.2083  0.1522 -0.0212
 6755W        W49849   1.445   3.884  24.815 -0.2636  0.0423 -0.0462
 6756W        W49850   3.328   4.012  24.674 -0.2116 -0.0785 -0.0151
 6757W        W49851   3.187   7.018  25.228  0.0622 -0.1774 -0.4349
 6758W        W49852   0.236   5.460  26.592  0.4192  0.0080 -0.0553
 6759W        W49853   3.603   5.457  24.486 -0.1257  0.0917  0.0886
 6760W        W49854   1.279   7.133  26.300 -0.0301 -0.0882  0.0779
 6761W        W49855   2.129   7.343  24.925 -0.0727 -0.2883  0.0868
 6762W        W49856   3.412   6.480  27.668 -0.0836 -0.1618 -0.1612
 6763W        W49857   1.966   6.090  24.181 -0.1739 -0.1646 -0.3228
 6764W        W49858   3.708   5.268  24.018  0.1060  0.2272 -0.1642
 6765W        W49859   3.018   8.113  26.353 -0.0337 -0.1743 -0.0938
 6766W        W49860   4.754   7.156  27.485 -0.0397 -0.0529  0.4205
 6767W        W49861   2.976   7.855  27.414 -0.1330  0.1257 -0.0233
 6768W        W49862   3.501   6.422  25.845  0.1571  0.1059  0.2985
 6769W        W49863   0.567   4.217  26.020  0.3083 -0.0165 -0.1283
 6770W        W49864  34.641   6.209  23.782  0.0154  0.0447  0.1250
 6771W        W49865   0.872   6.002  23.804 -0.2949  0.0116  0.0029
 6772W        W49866   3.191   3.973  25.336 -0.1867  0.2437  0.3845
 6773W        W49867   2.233   4.381  25.450 -0.2003  0.3357 -0.0654
 6774W        W49868   2.544   3.819  23.468  0.2939  0.0611 -0.0388
 6775W        W49869   1.831   6.820  26.394 -0.3405  0.1969 -0.2017
 6776W        W49870   3.276   5.848  26.014  0.1296 -0.1266  0.0655
 6777W        W49871   3.130   6.029  31.057 -0.0651  0.2096  0.0581
 6778W        W49872   1.652   5.465  26.832 -0.1259 -0.1950  0.1353
 6779W        W49873   1.863   3.862  27.583  0.0234  0.0620 -0.0774
 6780W        W49874   4.549   6.287  27.902  0.1416 -0.1656 -0.0791
 6781W        W49875   0.471   4.947  28.526  0.1009 -0.0259  0.1416
 6782W        W49876   1.456   6.107  28.089  0.3844 -0.0099 -0.0569
 6783W        W49877   1.867   2.990  30.185  0.2545 -0.0407  0.1187
 6784W        W49878   4.000   5.523  28.755  0.0753 -0.0128 -0.0295
 6785W        W49879   2.992   8.288  30.394  0.1643 -0.0744 -0.1293
 6786W        W49880   3.169   6.491  28.095  0.2097  0.2587  0.1730
 6787W        W49881   1.695   5.781  30.518  0.1431  0.1482 -0.1491
 6788W        W49882   1.039   6.665  30.069  0.1633  0.2213  0.0648
 6789W        W49883   1.270   3.602  28.110 -0.2790  0.1628  0.0528
 6790W        W49884   0.092   4.944  29.933  0.3131 -0.0050  0.0689
 6791W        W49885   3.085   5.944  29.011  0.1007 -0.3983  0.1020
 6792W        W49886   2.289   5.247  29.275 -0.2058  0.0366  0.2617
 6793W        W49887   1.722   5.817  29.750 -0.1564 -0.0681  0.1445
 6794W        W49888   0.478   3.776  28.943  0.2300  0.0740 -0.0706
 6795W        W49889   1.616   7.020  29.200 -0.3029  0.2335  0.0004
 6796W        W49890   2.446   4.046  29.882 -0.2250  0.0847  0.0106
 6797W        W49891   3.324   5.555  31.207  0.1463  0.0687  0.1023
 6798W        W49892   2.374   6.981  27.287 -0.0826 -0.2166  0.2861
 6799W        W49893   1.842   5.374  28.958 -0.2315  0.2790 -0.0370
 6800W        W49894   0.739   4.999  28.988 -0.0248  0.0253  0.1690
 6801W        W49895   0.575   4.563  30.492 -0.3077 -0.0863 -0.2459
 6802W        W49896   3.566   3.321  28.856 -0.0073 -0.0367 -0.3379
 6803W        W49897   4.756   5.099  28.889  0.0368  0.0035 -0.2161
 6804W        W49898   2.228   8.227  31.010  0.0195  0.0946  0.0705
 6805W        W49899   1.995   6.668  30.298 -0.1263  0.2992  0.0398
 6806W        W49900   3.990   3.810  28.097 -0.1898 -0.0178 -0.3467
 6807W        W49901   0.725   6.031  29.843 -0.0565 -0.2076  0.0793
 6808W        W49902   0.163   9.164  29.516  0.0802  0.1708 -0.0318
 6809W        W49903   1.104   7.198  29.004 -0.1564 -0.0056  0.0623
 6810W        W49904   4.932   5.468  29.218  0.1778  0.0668 -0.0338
 6811W        W49905   3.512   7.155  28.907 -0.0696  0.3946 -0.0101
 6812W        W49906   3.689   7.512  31.264 -0.2326 -0.2120  0.1639
 6813W        W49907   0.262   6.574  25.812 -0.1574  0.2399 -0.1336
 6814W        W49908   2.608   7.525  31.489  0.2123  0.0298  0.3450
 6815W        W49909   0.111   6.736  31.151  0.1252 -0.0533  0.2747
 6816W        W49910   2.916   5.171  30.987  0.2897 -0.1211 -0.2522
 6817W        W49911   3.059   6.748  28.836 -0.0034  0.1781  0.0393
 6818W        W49912   1.184   6.964  29.505  0.5180 -0.0263 -0.1738
 6819W        W49913   2.941   6.163  29.700  0.0381  0.1261  0.3159
 6820W        W49914   1.932   6.699  31.224 -0.1528 -0.0872 -0.0723
 6821W        W49915   0.982   5.930  28.775  0.0844 -0.2016  0.2210
 6822W        W49916   3.859   3.480  30.810 -0.6352 -0.0967 -0.1233
 6823W        W49917   0.959   6.858  27.589 -0.0519  0.2928  0.0761
 6824W        W49918   2.178   4.287  27.514  0.0933  0.1569  0.1523
 6825W        W49919   2.740   4.539  27.194  0.1552  0.2668 -0.1352
 6826W        W49920   3.365   4.504  28.058  0.0735 -0.1222  0.1341
 6827W        W49921   2.147   3.580  28.398  0.2502 -0.0354 -0.2598
 6828W        W49922   2.108   7.700  30.221 -0.1532  0.2062  0.3358
 6829W        W49923   2.668   5.004  29.806  0.1611 -0.1888 -0.1223
 6830W        W49924   4.082   4.756  29.322  0.2284 -0.0745  0.3335
 6831W        W49925   2.550   6.484  29.458  0.1796 -0.0071  0.1818
 6832W        W49926   3.134   3.639  29.050 -0.2585  0.0565 -0.0293
 6833W        W49927  34.595   6.705  30.658 -0.0269 -0.1094 -0.1741
 6834W        W49928   2.231   6.053  28.906  0.1182 -0.1946 -0.0552
 6835W        W49929   3.997   6.598  26.042 -0.0144 -0.1179 -0.0454
 6836W        W49930   4.462   7.135  28.780 -0.0093  0.2969 -0.2126
 6837W        W49931   1.743   5.474  28.299 -0.0062  0.1945  0.0521
 6838W        W49932   1.882   4.813  29.672  0.0635 -0.3467 -0.1903
 6839W        W49933   1.112   4.191  30.382  0.0341 -0.4765 -0.1028
 6840W        W49934   1.050   5.138  30.012  0.2292  0.3207  0.0951
 6841W        W49935   1.608   4.106  27.171  0.2069 -0.2749 -0.2385
 6842W        W49936   4.304   6.259  30.216 -0.1492 -0.0830  0.0212
 6843W        W49937   0.548   6.952  30.093  0.0277 -0.1227  0.0634
 6844W        W49938   2.635   4.173  27.748  0.0540  0.3126  0.3380
 6845W        W49939   2.259   7.192  30.467 -0.2508  0.4182  0.0478
 6846W        W49940   3.703   6.885  29.934  0.1354  0.1802 -0.2383
 6847W        W49941   3.297   5.488  26.698  0.2298  0.0744 -0.3442
 6848W        W49942   4.135   3.043  29.560  0.0172  0.4648 -0.0600
 6849W        W49943   2.927   4.447  29.946  0.0570 -0.3730  0.2424
 6850W        W49944   2.949   5.768  27.663 -0.0784 -0.1584 -0.3622
 6851W        W49945   3.726   5.190  28.879  0.1173 -0.3587  0.0294
 6852W        W49946   3.079   7.616  30.062 -0.0780  0.0368 -0.2038
 6853W        W49947   3.236   5.090  27.381  0.3063 -0.4657  0.0814
 6854W        W49948   1.609   7.515  28.832 -0.0674  0.1008  0.0535
 6855W        W49949   2.212   6.244  30.529  0.1551 -0.2887  0.2471
 6856W        W49950   2.944   6.336  31.360  0.0728 -0.0427 -0.2289
 6857W        W49951   0.208   7.812  28.800  0.1579 -0.2807  0.4004
 6858W        W49952   1.152   6.742  28.609 -0.1157  0.0316  0.0303
 6859W        W49953   0.107   6.850  27.824 -0.1336 -0.1571  0.1038
 6860W        W49954   1.304   3.395  29.111 -0.1798 -0.1929  0.0018
 6861W        W49955   0.406   5.719  29.337  0.2472  0.2948 -0.0763
 6862W        W49956   3.647   4.101  27.903 -0.0203  0.0782  0.3801
 6863W        W49957   1.111   3.631  29.671  0.0737  0.1478 -0.0806
 6864W        W49958   4.360   2.468  29.863  0.2680 -0.0370 -0.1644
 6865W        W49959   0.637   6.677  29.642  0.0610 -0.1417  0.2713
 6866W        W49960   2.549   8.009  27.897  0.0034 -0.0164 -0.1365
 6867W        W49961   3.079   4.785  26.919 -0.0273  0.2296  0.0690
 6868W        W49962   1.886   6.721  26.927 -0.3135 -0.1979  0.1335
 6869W        W49963   0.851   5.713  31.054 -0.1350 -0.0967 -0.0986
 6870W        W49964   1.209   3.901  29.260 -0.1942  0.1302 -0.2533
 6871W        W49965   1.832   4.827  30.613  0.0262  0.2196 -0.2752
 6872W        W49966   1.603   3.861  29.522 -0.1600 -0.2360 -0.5156
 6873W        W49967   4.634   4.726  29.754  0.0741 -0.0414 -0.0050
 6874W        W49968   1.447   3.828  28.785 -0.0160 -0.1063 -0.5476
 6875W        W49969   2.666   5.451  28.078  0.0587 -0.2596  0.1553
 6876W        W49970   2.313   5.943  29.741 -0.1138 -0.1105  0.2051
 6877W        W49971  34.132   5.775  30.553 -0.1551 -0.0338  0.2376
 6878W        W49972   4.020   3.675  29.951  0.0636 -0.1682  0.0007
 6879W        W49973   1.952   7.351  28.210  0.1174  0.1886  0.0995
 6880W        W49974   3.147   6.997   0.028  0.2649  0.0042  0.0013
 6881W        W49975   4.284   5.763  29.554  0.2426 -0.1577 -0.1801
 6882W        W49976   1.947   4.353  30.747 -0.0371 -0.1711  0.0492
 6883W        W49977   1.640   5.388  27.700  0.4588  0.2728 -0.1111
 6884W        W49978   0.041   6.793  30.189 -0.1973 -0.1672  0.1472
 6885W        W49979   1.081   6.408  29.519  0.0398 -0.1936 -0.2388
 6886W        W49980   2.955   4.682  29.507 -0.2120  0.5595 -0.1636
 6887W        W49981   3.792   7.084  28.463 -0.1706  0.2421  0.1402
 6888W        W49982   1.398   7.059  30.234  0.0614 -0.1276 -0.1392
 6889W        W49983   1.430   6.142  30.172  0.2298  0.3047  0.0936
 6890W        W49984   3.019   4.284  31.927  0.1529  0.0224 -0.1649
 6891W        W49985   4.618   3.634  30.060 -0.0159 -0.2973  0.1239
 6892W        W49986   3.115   6.243  28.537 -0.1632 -0.0001 -0.2412
 6893W        W49987   1.256   4.891  27.457  0.0593 -0.1192 -0.1156
 6894W        W49988   3.534   8.584  28.441 -0.2631 -0.2784  0.0616
 6895W        W49989  34.159   7.966  26.887  0.0862 -0.0747 -0.0044
 6896W        W49990   0.278   5.235  28.910 -0.0759 -0.0143 -0.0294
 6897W        W49991   1.138   7.950  29.669 -0.2742  0.3695 -0.1656
 6898W        W49992   4.054   3.353  29.122  0.0593 -0.1475  0.1458
 6899W        W49993   1.424   4.484  30.033  0.0399  0.1540 -0.0459
 6900W        W49994   2.536   5.961  30.307  0.0611  0.0394  0.0455
 6901W        W49995   1.523   5.031  28.728  0.3745 -0.3125 -0.2807
 6902W        W49996   0.276   6.380  31.426 -0.0730  0.0974 -0.1660
 6903W        W49997   3.044   2.851  27.855 -0.2052  0.3005  0.1995
 6904W        W49998   4.008   3.913  27.510  0.1554 -0.1042  0.2007
 6905W        W49999   2.881   7.238  29.729  0.0053  0.0667 -0.2566
 6906W        W50000   4.069   5.589  28.198 -0.0033 -0.1767 -0.0619
 6907W        W50001   3.197   5.538  28.130  0.1996  0.1334 -0.0277
 6908W        W50002   1.840   2.775  27.126  0.3390 -0.0739  0.0250
 6909W        W50003   1.874   6.255  29.994  0.1709  0.0913  0.1889
 6910W        W50004   1.810   7.576  29.808  0.2241 -0.0399 -0.0346
 6911W        W50005   1.344   6.266  28.563  0.1353  0.2330  0.1134
 6912W        W50006   1.189   4.499  28.209 -0.0244  0.0762  0.0563
 6913W        W50007   4.974   3.784  28.790  0.1991 -0.2124  0.0929
 6914W        W50008   1.345   6.591  30.430  0.0921 -0.1581  0.0153
 6915W        W50009   4.330   5.598  31.360 -0.1121 -0.3897  0.0247
 6916W        W50010   5.035   5.575  28.390  0.2035  0.1700  0.2099
 6917W        W50011   1.189   3.235  31.386 -0.0841  0.2071  0.2853
 6918W        W50012   2.732   5.060  27.238 -0.1184  0.1482  0.0138
 6919W        W50013   3.198   3.897  28.223  0.0017  0.1719 -0.1206
 6920W        W50014   0.958   7.530  27.506  0.1202  0.2920 -0.1444
 6921W        W50015   3.530   6.015  29.336  0.3100 -0.0832  0.0738
 6922W        W50016   3.712   4.159  29.313 -0.2751 -0.0263 -0.4330
 6923W        W50017   3.579   4.546  29.808  0.0285  0.2736 -0.0979
 6924W        W50018   3.374   6.100  31.567  0.1540  0.0187  0.1890
 6925W        W50019   2.687   4.578  28.610 -0.3653  0.0681  0.0436
 6926W        W50020   2.532   6.023  29.319  0.0241  0.0334  0.2156
 6927W        W50021  34.693   5.130  27.647 -0.2034 -0.5450  0.0681
 6928W        W50022   1.119   3.295  30.408 -0.1546 -0.4274 -0.2303
 6929W        W50023   3.238   5.608  30.266  0.0263  0.1017 -0.2836
 6930W        W50024   1.662   7.090  29.788  0.1921  0.0448  0.0465
 6931W        W50025   3.585   5.134  31.644 -0.2054  0.0277  0.1343
 6932W        W50026   2.592   6.909  30.120 -0.3527  0.2812 -0.2873
 6933W        W50027   2.864   5.778  29.978  0.1853  0.1686  0.0288
 6934W        W50028   4.295   3.246  29.994 -0.1143 -0.2456 -0.1234
 6935W        W50029   2.551   8.451  28.459  0.0532 -0.2629  0.2673
 6936W        W50030   1.170   5.274  27.796  0.1496  0.0040 -0.0251
 6937W        W50031   2.136   3.039  28.321  0.0732  0.1876 -0.0142
 6938W        W50032   1.336   7.279  31.032  0.0206  0.0334 -0.0365
 6939W        W50033   1.016   6.038  28.269 -0.1473  0.1757  0.0034
 6940W        W50034   3.418   6.961  29.527 -0.0014  0.1885 -0.1979
 6941W        W50035   0.577   7.812  27.889 -0.0455 -0.1583  0.2100
 6942W        W50036   3.169   3.794  30.462 -0.0084  0.4910  0.1431
 6943W        W50037   1.110   6.889  28.035 -0.4652  0.0669 -0.1708
 6944W        W50038   0.817   4.453  28.504  0.1531  0.3823 -0.0505
 6945W        W50039   1.471   5.783  28.589 -0.0042  0.0560 -0.3139
 6946W        W50040   3.476   3.787  29.891  0.1219 -0.1519 -0.1361
 6947W        W50041   1.891   5.849  26.673 -0.2399 -0.1645 -0.3194
 6948W        W50042   2.588   5.334  31.405 -0.0942  0.0955  0.2620
 6949W        W50043   2.538   3.663  28.811  0.1308 -0.0552 -0.0873
 6950W        W50044   0.028   6.936  28.905  0.0281  0.0036 -0.1261
 6951W        W50045   1.306   5.929  30.885  0.1310 -0.0171  0.0261
 6952W        W50046   1.415   4.754  27.899 -0.0370  0.0815  0.0504
 6953W        W50047   1.187   5.920  29.812  0.0214 -0.0184 -0.0794
 6954W        W50048   2.442   5.779  31.804  0.0249 -0.0965  0.1823
 6955W        W50049   0.414   4.347  27.648  0.0388 -0.5970 -0.1134
 6956W        W50050   5.228   4.191  30.391 -0.1959 -0.1355 -0.0190
 6957W        W50051   2.462   4.341  28.925  0.1180  0.0254 -0.0952
 6958W        W50052   0.552   7.909  29.999  0.1997  0.1814  0.1204
 6959W        W50053   2.025   7.245  29.498  0.1816 -0.1014 -0.0214
 6960W        W50054   1.466   6.112  29.447 -0.0462  0.0214  0.2807
 6961W        W50055   1.411   6.629  27.725  0.0322  0.0893  0.1938
 6962W        W50056   1.021   4.676  30.217 -0.1369 -0.1994  0.0276
 6963W        W50057   2.994   6.677  29.751  0.0547  0.2380  0.2564
 6964W        W50058   3.162   4.074  29.465 -0.2630  0.3645 -0.1153
 6965W        W50059   1.431   4.380  28.698 -0.2064 -0.2294 -0.1334
 6966W        W50060   3.123   5.304  28.980 -0.0027 -0.2044 -0.0466
 6967W        W50061   3.157   7.065  30.114  0.3898 -0.2376  0.0118
 6968W        W50062   2.544   6.632  30.564  0.0042 -0.1160 -0.0960
 6969W        W50063   0.943   5.368   0.409  0.1823 -0.0639 -0.0217
 6970W        W50064   2.709   3.206  29.206  0.1228  0.1052 -0.1294
 6971W        W50065   4.530   6.795  28.405  0.2826  0.2222 -0.0993
 6972W        W50066   3.443   3.884  30.873 -0.0341 -0.1830 -0.1167
 6973W        W50067   2.217   6.122  27.475 -0.3150  0.4443  0.0745
 6974W        W50068   1.344   4.363  29.516  0.2283  0.3821 -0.1698
 6975W        W50069   2.516   6.918  28.749  0.4598 -0.0304 -0.0034
 6976W        W50070   3.040   5.686  29.464  0.3664 -0.0834  0.1949
 6977W        W50071   1.481   7.492  29.432 -0.0959  0.2566 -0.0209
 6978W        W50072   2.461   5.847  27.793 -0.0853 -0.0091  0.6016
 6979W        W50073   1.544   6.664  29.984 -0.0743  0.3752 -0.2840
 6980W        W50074   3.524   2.607  27.951 -0.0546  0.0691 -0.1092
 6981W        W50075   1.717   6.986  27.982 -0.1027  0.0774  0.1364
 6982W        W50076   0.871   5.892  29.338 -0.0788 -0.0809 -0.2547
 6983W        W50077   4.039   2.825  31.917 -0.0700 -0.1411 -0.1512
 6984W        W50078   3.036   5.688  28.574  0.0037 -0.1635 -0.3223
 6985W        W50079   3.569   3.457   0.032 -0.1998  0.1012 -0.3322
 6986W        W50080   1.673   2.778  29.632 -0.0859 -0.0342  0.0546
 6987W        W50081   4.550   5.382  28.507 -0.3279 -0.3033  0.2878
 6988W        W50082   1.376   3.728  30.473 -0.1032 -0.0348  0.0773
 6989W        W50083   3.910   6.081  31.525 -0.1285 -0.0701  0.1814
 6990W        W50084   1.578   4.541   0.004 -0.0481 -0.2991 -0.3835
 6991W        W50085   3.387   3.377  30.293  0.1977  0.4766  0.3794
 6992W        W50086   0.901   3.645  28.737 -0.1980 -0.1244  0.0714
 6993W        W50087   2.341   5.833  28.386  0.0968 -0.4644 -0.2647
 6994W        W50088   3.701   5.455  30.387 -0.4161 -0.3170 -0.1000
 6995W        W50089   3.472   5.901  28.385 -0.1627 -0.0980  0.3732
 6996W        W50090   4.396   4.930  28.229 -0.0791  0.1830 -0.0035
 6997W        W50091   2.447   5.017  30.686  0.2023  0.1179 -0.0950
 6998W        W50092   2.588   3.730  28.084 -0.0241 -0.0391  0.2924
 6999W        W50093   2.046   5.641  27.604 -0.0880 -0.5649 -0.0101
 7000W        W50094   1.905   6.220  28.425 -0.0470  0.0390 -0.0431
 7001W        W50095   2.305   4.551  30.467 -0.0167 -0.0257  0.0105
 7002W        W50096   3.230   5.069  29.433  0.0695 -0.0559 -0.1782
 7003W        W50097   3.318   3.145  28.375  0.0619 -0.3574 -0.2766
 7004W        W50098   1.997   4.775  31.286  0.3958  0.0519 -0.4889
 7005W        W50099   2.821   5.631  31.075  0.0520 -0.0364 -0.2710
 7006W        W50100   2.760   5.211  29.366 -0.1352 -0.1152 -0.0060
 7007W        W50101   0.322   3.719  30.132 -0.0307  0.3549 -0.2778
 7008W        W50102   2.243   7.821  29.727 -0.0332  0.0573  0.0469
 7009W        W50103   4.772   5.004  27.512  0.2611  0.0726 -0.1328
 7010W        W50104   4.474   5.246  29.676 -0.4685  0.0078  0.1471
 7011W        W50105   3.541   5.447  29.312 -0.2747 -0.0116  0.0001
 7012W        W50106   2.240   5.430  28.719  0.2474 -0.1004 -0.5139
 7013W        W50107   0.706   4.024  29.328 -0.4128 -0.1055 -0.2086
 7014W        W50108   2.489   5.281   0.788 -0.0495  0.0942  0.0074
 7015W        W50109   2.136   5.176  27.303 -0.0928  0.0671  0.2454
 7016W        W50110   2.284   5.622  30.660  0.0279  0.1160 -0.3143
 7017W        W50111   1.609   6.639  29.485 -0.1938  0.6375 -0.1111
 7018W        W50112   2.904   5.978  28.143  0.1119 -0.1930  0.0651
 7019W        W50113   3.422   4.162  28.909  0.1367 -0.1229 -0.1288
 7020W        W50114   1.876   4.196  29.760 -0.1331  0.1796  0.3171
 7021W        W50115   0.893   7.179  30.288  0.0808  0.0028  0.2867
 7022W        W50116   2.210   4.069  28.012  0.0366 -0.2291  0.1949
 7023W        W50117   2.545   6.473  27.296 -0.3381 -0.3100 -0.1414
 7024W        W50118   2.645   6.503  28.971  0.0378 -0.0472 -0.2096
 7025W        W50119   3.689   4.280   0.142 -0.2488  0.4629  0.1158
 7026W        W50120   1.932   4.990  27.884  0.0889  0.0856 -0.1741
 7027W        W50121   3.293   4.837  30.465  0.2561 -0.0617 -0.2623
 7028W        W50122   0.473   5.929  28.827 -0.3717  0.1082 -0.1005
 7029W        W50123   2.708   3.883  29.255 -0.1825  0.2283  0.1602
 7030W        W50124   1.330   7.488  29.913 -0.0153 -0.1143  0.0217
 7031W        W50125   0.228   6.028  29.965 -0.1600  0.0261  0.1883
 7032W        W50126   2.133   6.751  29.827  0.1896  0.0524 -0.0164
 7033W        W50127   2.364   4.525  29.940  0.2229 -0.0061  0.4900
 7034W        W50128   2.762   5.228  28.654  0.1658 -0.5095 -0.3869
 7035W        W50129   2.010   5.721  29.299 -0.1370  0.0193 -0.1070
 7036W        W50130   4.237   4.051  30.207 -0.1874 -0.0583  0.1226
 7037W        W50131   3.897   6.021  29.713 -0.0223 -0.2395  0.0041
 7038W        W50132   1.053   5.406  30.578  0.1378  0.1230  0.1315
 7039W        W50133   2.707   5.629  29.067  0.1258 -0.2318 -0.0975
 7040W        W50134   4.765   4.583  28.608 -0.0046  0.3409 -0.4980
 7041W        W50135   1.351   5.420  29.640  0.1383 -0.0003  0.1191
 7042W        W50136   1.683   5.681  31.190  0.0381  0.0388  0.1503
 7043W        W50137   0.717   5.044  30.393 -0.1074  0.0360  0.1317
 7044W        W50138   3.503   6.417  29.628 -0.4713  0.2461  0.1769
 7045W        W50139   1.549   3.370  29.543  0.3172  0.0523 -0.0496
 7046W        W50140   2.795   6.276  27.728 -0.0611  0.1611 -0.1951
 7047W        W50141  34.378   5.610   0.056  0.0343 -0.2202  0.2883
 7048W        W50142   1.064   4.607  29.194 -0.3544 -0.2777  0.1032
 7049W        W50143   0.249   6.876  28.303 -0.0806 -0.3441  0.0880
 7050W        W50144   3.653   6.370  28.233 -0.2199  0.0573  0.3198
 7051W        W50145   2.706   6.568  28.473 -0.2277 -0.0359  0.2412
 7052W        W50146   1.781   8.121  28.968  0.0868  0.0644  0.2384
 7053W        W50147   2.501   6.281  28.143  0.1335 -0.0914 -0.1947
 7054W        W50148   0.789   5.447  29.147  0.4477  0.0205 -0.2881
 7055W        W50149   0.881   5.028  29.519 -0.0109 -0.1408  0.1085
 7056W        W50150   1.975   6.614  27.399 -0.1067  0.1266 -0.2982
 7057W        W50151   0.558   7.968  29.171 -0.1586  0.2853 -0.1075
 7058W        W50152   3.750   4.881  30.383  0.1564  0.2877  0.2864
 7059W        W50153   4.738   4.465  27.420 -0.0523  0.0369 -0.2422
 7060W        W50154   3.388   5.771  30.727  0.1770  0.0865 -0.1250
 7061W        W50155   3.744   3.486  27.628  0.0291  0.1690  0.1020
 7062W        W50156   2.130   6.913  30.844  0.1796 -0.0556  0.0332
 7063W        W50157   0.170   6.470  29.625 -0.1986 -0.0665  0.0674
 7064W        W50158   3.059   3.161  28.763  0.1979 -0.0990 -0.1498
 7065W        W50159   0.316   4.970  31.307  0.3338 -0.2948 -0.0738
 7066W        W50160   2.707   2.852  31.978 -0.0739  0.1742 -0.0149
 7067W        W50161   0.545   6.252  29.431  0.0724  0.0480  0.1113
 7068W        W50162   2.414   6.590  27.788  0.0429 -0.0062 -0.3427
 7069W        W50163   2.480   4.763  29.418  0.0575 -0.4249  0.1489
 7070W        W50164   3.037   5.979  30.505 -0.1582 -0.0528 -0.1451
 7071W        W50165   5.193   3.194  30.160 -0.4100 -0.5100  0.1985
 7072W        W50166   1.876   6.452  27.876 -0.1075 -0.0900  0.0730
 7073W        W50167   2.543   4.286  29.450  0.0803 -0.2042  0.2750
 7074W        W50168   1.630   6.714  28.777 -0.3059  0.1158  0.0514
 7075W        W50169   1.869   7.365  30.738 -0.1519  0.1710 -0.0086
 7076W        W50170   2.681   8.011  29.616 -0.0376 -0.0306  0.1828
 7077W        W50171   0.562   5.242  28.092  0.1774 -0.3629  0.0550
 7078W        W50172   3.338   5.026  27.930 -0.0411 -0.1245  0.2715
 7079W        W50173   1.873   4.506  30.184 -0.3579 -0.2499  0.2651
 7080W        W50174   3.288   2.132  30.868  0.2089 -0.1254  0.0331
 7081W        W50175   1.589   4.698  29.175  0.1052 -0.1499  0.0628
 7082W        W50176   3.829   4.497  28.894  0.1613 -0.0488  0.0143
 7083W        W50177   2.096   6.267  29.418  0.1329 -0.4363 -0.0960
 7084W        W50178   1.475   5.330  30.849  0.3081 -0.3380 -0.3512
 7085W        W50179   2.452   4.994  28.266  0.0296 -0.0419  0.1423
 7086W        W50180   4.649   5.060  30.145  0.3529 -0.0098  0.5208
 7087W        W50181   2.041   4.272  26.383 -0.1083 -0.0001  0.1361
 7088W        W50182   0.970   6.726  31.159 -0.0545 -0.0723  0.0604
 7089W        W50183   2.090   4.487  29.274  0.1716 -0.2142  0.1225
 7090W        W50184   2.180   4.569  28.394  0.0599  0.0187  0.0904
 7091W        W50185   1.268   5.166  29.207  0.0307  0.2304 -0.1215
 7092W        W50186   2.533   5.437  30.231 -0.1991  0.0587 -0.0412
 7093W        W50187   3.008   6.431  30.797  0.0124  0.1659  0.1533
 7094W        W50188   0.205   3.434  29.299 -0.0585 -0.5214 -0.1738
 7095W        W50189   4.656   6.864  26.292 -0.0878  0.2856  0.2102
 7096W        W50190   4.247   5.053  28.915  0.3208  0.0735 -0.0642
 7097W        W50191   1.032   7.776  28.715  0.2171  0.1745  0.0076
 7098W        W50192   4.305   5.293  27.824 -0.0258  0.0864  0.0015
 7099W        W50193   3.147   7.749  28.861 -0.5385 -0.2182  0.2510
 7100W        W50194   0.243   4.399  28.227 -0.0101  0.0756  0.2381
 7101W        W50195   3.819   7.270  29.406 -0.2178  0.0882  0.1547
 7102W        W50196   4.385   6.326  29.461 -0.2380  0.0274  0.1097
 7103W        W50197   1.864   4.426  27.842 -0.1482 -0.1208 -0.1518
 7104W        W50198   2.072   3.567  29.709 -0.1855  0.1425  0.3036
 7105W        W50199   0.247   7.316  29.154  0.0406  0.1959  0.2565
 7106W        W50200   3.474   4.594  29.321  0.2013  0.0786  0.1059
 7107W        W50201   4.001   3.788  29.447  0.2879  0.2265  0.3006
 7108W        W50202   0.771   6.348  27.311  0.2846  0.1278  0.0126
 7109W        W50203   3.387   2.891  31.353 -0.0049  0.1242  0.2156
 7110W        W50204   3.416   7.093  31.052  0.3115  0.1389  0.0549
 7111W        W50205   2.913   7.339  30.837 -0.0618  0.1869 -0.1985
 7112W        W50206   1.306   7.194  27.635 -0.0621 -0.1639 -0.0426
 7113W        W50207   2.444   6.485  31.043  0.2655  0.1884  0.1768
 7114W        W50208   1.940   6.798  28.402  0.1456  0.0906  0.0709
 7115W        W50209   2.023   6.777  29.232 -0.0414  0.2511  0.1601
 7116W        W50210   4.344   7.300  28.276  0.1627  0.0458 -0.0517
 7117W        W50211   2.709   6.068  28.695  0.0706 -0.2726 -0.0177
 7118W        W50212   3.479   6.263  28.830  0.2059  0.2082 -0.2385
 7119W        W50213   2.983   4.375  29.072 -0.0543  0.2475 -0.1034
 7120W        W50214   2.833   4.320  28.181  0.2668 -0.1802  0.1242
 7121W        W50215   3.347   3.005  26.987 -0.1344  0.2123  0.1793
 7122W        W50216   2.377   6.351  30.072  0.1822  0.1221 -0.0077
 7123W        W50217  34.348   6.804  27.580 -0.1978  0.1740  0.4241
 7124W        W50218  34.613   6.013  28.019  0.1005  0.1045  0.3558
 7125W        W50219   1.931   5.781  28.668 -0.1596  0.0050  0.3618
 7126W        W50220   1.594   3.297  30.545 -0.3152  0.0357 -0.0304
 7127W        W50221   1.254   7.439  30.564 -0.0489 -0.1358 -0.2568
 7128W        W50222   1.531   5.732  29.189  0.1586 -0.0317 -0.0058
 7129W        W50223   1.861   4.119  28.428  0.4014 -0.1529 -0.3092
 7130W        W50224   2.921   7.702  27.929 -0.0801 -0.0806  0.2260
 7131W        W50225   1.784   3.627  29.117 -0.0025 -0.0778 -0.0506
 7132W        W50226   0.522   3.690  29.623 -0.2597  0.0494 -0.0871
 7133W        W50227   3.621   4.730  28.453  0.2473 -0.1055  0.0665
 7134W        W50228   2.655   6.002  27.238 -0.2375  0.1293 -0.0889
 7135W        W50229   2.582   3.366  29.717 -0.2020  0.2414  0.1118
 7136W        W50230   3.901   6.257   0.311 -0.1783 -0.3227  0.2879
 7137W        W50231   0.363   6.493  27.586  0.4209  0.1918 -0.0244
 7138W        W50232   3.359   5.631  31.709  0.0299 -0.0554 -0.0869
 7139W        W50233   2.514   5.476  29.700  0.0111 -0.2230  0.0467
 7140W        W50234  34.536   5.141  26.661  0.1251  0.0793 -0.1321
 7141W        W50235   1.976   5.308  29.864 -0.1005  0.1831 -0.1671
 7142W        W50236   2.176   6.562  28.786 -0.0561  0.0695 -0.3053
 7143W        W50237   1.869   7.398  27.694  0.2488 -0.0559 -0.0303
 7144W        W50238   0.495   7.438  30.082  0.0873  0.2164  0.1051
 7145W        W50239   0.734   8.284  29.574  0.0736 -0.1377 -0.0369
 7146W        W50240  33.844   3.605  30.711 -0.1053 -0.2951  0.2032
 7147W        W50241   5.092   4.771  28.921  0.0174 -0.0118 -0.1810
 7148W        W50242   1.205   6.412  30.875  0.1574  0.0052  0.0858
 7149W        W50243   3.977   4.135  27.044  0.0744  0.0758  0.2438
 7150W        W50244   4.317   3.416  31.065 -0.2692 -0.1526 -0.0105
 7151W        W50245   3.042   6.352  27.314  0.0824  0.0239 -0.0992
 7152W        W50246   1.315   3.586  31.006  0.0873  0.2917 -0.0979
 7153W        W50247   2.228   4.985  30.191  0.1119 -0.1300 -0.1787
 7154W        W50248   3.908   6.052  28.727  0.2182  0.1121  0.1564
 7155W        W50249   1.646   4.682  28.372 -0.5186 -0.1312  0.1436
 7156W        W50250   2.547   4.073  28.499 -0.2499 -0.1923  0.0629
 7157W        W50251   4.026   7.413  28.720 -0.2255 -0.0681  0.3456
 7158W        W50252  34.681   4.719  29.399  0.0788  0.3329  0.1640
 7159W        W50253   1.365   5.382  27.304  0.3205 -0.0597 -0.0073
 7160W        W50254   2.850   5.084  30.315  0.2520  0.0966  0.1197
 7161W        W50255   2.731   7.376  30.334 -0.0997  0.1494 -0.1327
 7162W        W50256   2.591   6.024  30.816 -0.3626 -0.2587 -0.0947
 7163W        W50257   2.438   5.044  27.727  0.0405 -0.4449 -0.2964
 7164W        W50258   4.719   6.233  27.061 -0.0546  0.2186  0.1525
 7165W        W50259   2.837   6.933  29.261 -0.0551  0.0838  0.1744
 7166W        W50260   2.548   8.101   0.153  0.0490  0.1079 -0.0109
 7167W        W50261   2.463   7.015  29.572  0.4342  0.3466 -0.1118
 7168W        W50262   3.062   5.356  29.869  0.0939 -0.1359  0.1064
 7169W        W50263   1.485   5.471  30.157  0.2806 -0.0080 -0.0303
 7170W        W50264   0.966   4.929  28.073 -0.1420 -0.2526  0.1170
 7171W        W50265   3.492   6.715  28.598 -0.2284  0.0456 -0.0630
 7172W        W50266   3.892   4.875  30.855  0.1927 -0.0411  0.2056
 7173W        W50267   2.449   2.602  28.463  0.2280  0.2457 -0.0838
 7174W        W50268   2.905   3.527  28.490 -0.2350  0.0342  0.0349
 7175W        W50269   2.072   5.829  30.164 -0.4148 -0.0658  0.0776
 7176W        W50270   3.290   6.071  30.028  0.0726 -0.0969  0.4426
 7177W        W50271   4.402   2.564   0.149  0.1267  0.0833 -0.1209
 7178W        W50272   4.663   5.524  31.721  0.3035  0.3185 -0.3727
 7179W        W50273   1.686   5.565  31.703 -0.2026 -0.4752 -0.2584
 7180W        W50274   1.590   4.479  31.432  0.1687 -0.3247 -0.1580
 7181W        W50275   2.950   6.443  30.287 -0.1250 -0.0909  0.0216
 7182W        W50276   0.954   6.231  30.280  0.2195  0.0627 -0.3579
 7183W        W50277   3.941   4.167  31.719 -0.2339  0.0353 -0.2666
 7184W        W50278   3.494   5.019  31.175 -0.0105  0.2054  0.1170
 7185W        W50279   4.491   6.346  31.407 -0.0183 -0.0183 -0.3490
 7186W        W50280   4.843   5.780   0.582 -0.0813  0.0160 -0.4436
 7187W        W50281   3.520   6.692  29.150 -0.0675  0.2194  0.1481
 7188W        W50282   2.891   4.337  31.274  0.1791 -0.2874 -0.6016
 7189W        W50283   3.551   5.244   0.563 -0.1318 -0.0331  0.3767
 7190W        W50284   0.446   7.538  31.081 -0.2121  0.0327  0.2242
 7191W        W50285   4.080   5.840   1.740  0.2524  0.2032  0.3507
 7192W        W50286   0.860   8.088   0.436 -0.1407 -0.0629  0.1718
 7193W        W50287   0.409   5.368   0.369  0.0712 -0.1017 -0.0155
 7194W        W50288   3.667   5.927  31.104  0.1371  0.3034  0.2154
 7195W        W50289   0.648   4.073  30.234  0.2288 -0.0584  0.1175
 7196W        W50290   1.706   6.460  31.672 -0.2697  0.0158 -0.1331
 7197W        W50291   2.493   4.418  31.583 -0.1267  0.3470  0.3895
 7198W        W50292  33.589   9.051  31.810 -0.1230  0.2097  0.2203
 7199W        W50293   3.309   5.295  30.710  0.0329  0.4539  0.1372
 7200W        W50294   2.867   4.621   0.401  0.0849 -0.2806  0.2442
 7201W        W50295   4.386   4.666  30.212 -0.2732 -0.2508 -0.1521
 7202W        W50296   2.791   6.179  31.787 -0.0623 -0.1309  0.2739
 7203W        W50297   2.219   4.890   1.002 -0.0169  0.0267  0.2243
 7204W        W50298   0.581   8.637  31.621 -0.0699 -0.1980  0.0831
 7205W        W50299   3.105   5.257  31.533  0.1504  0.2619  0.2108
 7206W        W50300   1.583   6.933  30.714 -0.3330 -0.0946 -0.0911
 7207W        W50301   1.457   6.760  31.376 -0.1834  0.1677 -0.0718
 7208W        W50302   1.923   5.328  30.433  0.1208  0.6970  0.0248
 7209W        W50303   3.232   6.519  31.797  0.0219 -0.5080  0.0501
 7210W        W50304   3.353   4.421   1.355  0.2190  0.1163 -0.0639
 7211W        W50305   2.278   5.650  31.142 -0.2529  0.4172 -0.2867
 7212W        W50306   2.123   6.816  31.817  0.0658  0.1482 -0.1425
 7213W        W50307   3.291   5.274   0.100  0.1608 -0.0198  0.2417
 7214W        W50308   3.993   4.839   0.023 -0.2476 -0.0105 -0.1263
 7215W        W50309   4.303   6.262   1.613 -0.3629 -0.1262 -0.0271
 7216W        W50310   3.237   4.700  31.500 -0.1536 -0.1168  0.1299
 7217W        W50311   3.778   5.416   0.101 -0.0771 -0.2018  0.2796
 7218W        W50312   3.255   3.876   0.824 -0.2898  0.1652 -0.1822
 7219W        W50313   0.585   4.130   0.198  0.1862 -0.1456  0.0763
 7220W        W50314   2.391   6.440  31.526 -0.0958 -0.1220  0.0439
 7221W        W50315   3.086   4.235  30.775  0.0594  0.0150  0.0725
 7222W        W50316   2.852   5.509  30.612 -0.0279 -0.0358  0.1340
 7223W        W50317   2.617   4.186   0.331  0.0544  0.0075 -0.1564
 7224W        W50318   2.954   6.391   0.307  0.2594 -0.1385 -0.3119
 7225W        W50319   4.327   5.912  31.735  0.1594 -0.0728 -0.2542
 7226W        W50320   0.056   5.454  31.087  0.0126  0.2398  0.1657
 7227W        W50321   4.120   6.677   0.289 -0.2781  0.2206 -0.0665
 7228W        W50322   2.578   3.082   0.394  0.1009 -0.2312 -0.2751
 7229W        W50323   2.047   3.611  30.611 -0.1199  0.0210 -0.2546
 7230W        W50324   2.929   6.983  30.527  0.0688 -0.0131  0.1352
 7231W        W50325   2.889   4.817  31.879  0.0229 -0.4029  0.1865
 7232W        W50326   3.315   3.855  31.943 -0.0504 -0.0840  0.0121
 7233W        W50327   3.735   4.656  31.594  0.2620  0.0516 -0.1255
 7234W        W50328   2.033   7.757  31.162 -0.1701 -0.2198  0.1388
 7235W        W50329   1.739   7.253   1.034  0.1790  0.1330  0.0002
 7236W        W50330   1.823   4.077   0.028 -0.1303 -0.2583  0.3166
 7237W        W50331   1.971   5.229  30.980 -0.1823 -0.2375 -0.1571
 7238W        W50332   2.033   6.044  30.972  0.2110 -0.1051 -0.0903
 7239W        W50333   1.441   6.113   0.406  0.1531  0.1499  0.0275
 7240W        W50334  33.654   3.436  29.897 -0.2907 -0.2013 -0.0422
 7241W        W50335   3.345   7.404  30.535 -0.0729  0.0636 -0.0470
 7242W        W50336   4.268   4.574  31.531 -0.0651 -0.0134  0.2997
 7243W        W50337   3.638   4.763   0.381  0.2667 -0.0853 -0.1000
 7244W        W50338   1.332   9.387  18.982  0.0813  0.4876  0.0684
 7245W        W50339  34.680   8.531  16.526  0.1748  0.2225 -0.2671
 7246W        W50340   3.371   7.007  16.362 -0.0729  0.0491  0.1189
 7247W        W50341   2.838   9.807  16.191  0.0763  0.2249 -0.1215
 7248W        W50342  34.281   8.829  16.309  0.4160  0.1979  0.1604
 7249W        W50343  34.448  10.409  17.283  0.2217  0.2805  0.2866
 7250W        W50344   0.599   7.211  18.281  0.0599 -0.1633 -0.1694
 7251W        W50345   0.846  10.944  16.948 -0.0957 -0.1277 -0.0235
 7252W        W50346   2.074  10.347  19.700 -0.0662 -0.2521 -0.0960
 7253W        W50347  34.253   8.307  16.791 -0.4104 -0.0140 -0.2938
 7254W        W50348   0.804   6.321  18.361 -0.0636  0.1399  0.1068
 7255W        W50349   1.341  11.428  18.462  0.3759 -0.2672 -0.1807
 7256W        W50350   1.033   7.057  18.525 -0.0464  0.0980  0.2208
 7257W        W50351  34.340   7.759  16.911 -0.1278 -0.0027  0.2896
 7258W        W50352   2.517   9.955  18.012 -0.2478  0.2416 -0.1784
 7259W        W50353  33.695   9.039  17.099 -0.4066 -0.0064 -0.1281
 7260W        W50354   0.287   9.079  17.797 -0.0150  0.2000 -0.0686
 7261W        W50355  34.363   8.821  16.770  0.1364  0.0263  0.0133
 7262W        W50356   0.832  11.096  16.483  0.1484 -0.1740 -0.1290
 7263W        W50357   1.233   7.127  19.339  0.2186  0.1684 -0.1080
 7264W        W50358   1.357   7.865  18.701 -0.1348  0.3022  0.2177
 7265W        W50359   0.892   9.798  16.399 -0.0934  0.3914 -0.1988
 7266W        W50360  34.111  10.035  16.577 -0.0435  0.3135 -0.3577
 7267W        W50361  34.664   8.097  18.882 -0.0685  0.2044 -0.2140
 7268W        W50362  34.354  10.129  17.686 -0.3120 -0.1695 -0.1394
 7269W        W50363   1.652   9.561  19.270 -0.0103 -0.0401  0.1430
 7270W        W50364   1.557  10.950  17.838 -0.2759 -0.0196 -0.1521
 7271W        W50365   0.087  10.178  18.464 -0.4601  0.2923 -0.0139
 7272W        W50366   0.328  10.744  18.535 -0.1492  0.0656  0.1074
 7273W        W50367   2.931   9.161  19.315 -0.2219  0.0133  0.1069
 7274W        W50368  33.650   9.499  16.783  0.4320 -0.1589 -0.0953
 7275W        W50369  33.920  10.397  17.169  0.0335  0.1140  0.2234
 7276W        W50370   1.169   9.854  16.968 -0.2643  0.3606  0.1460
 7277W        W50371   3.406   9.449  18.357  0.2755 -0.0518  0.0318
 7278W        W50372   3.337   9.640  16.960 -0.1157  0.0038 -0.0002
 7279W        W50373   1.548  12.536  19.519  0.0772 -0.2239  0.1568
 7280W        W50374  33.503  10.741  16.928  0.1844 -0.3130  0.0471
 7281W        W50375   1.063   9.647  19.294  0.1202 -0.0535 -0.0266
 7282W        W50376   2.043   9.903  18.417  0.2047 -0.1125  0.1391
 7283W        W50377   0.771   9.498  18.126 -0.0578 -0.0100 -0.0280
 7284W        W50378   1.602  10.482  18.072  0.0268 -0.2687 -0.2076
 7285W        W50379   0.454  11.296  16.070 -0.3237  0.2399 -0.5019
 7286W        W50380   0.727  11.183  17.376  0.1795 -0.0701  0.1207
 7287W        W50381   0.702  10.002  19.043  0.1069  0.4831 -0.0221
 7288W        W50382   0.158  10.498  16.914 -0.0616  0.2148  0.0266
 7289W        W50383   5.796   7.547  20.003 -0.0604  0.3159 -0.0826
 7290W        W50384  33.847  11.703  16.402  0.1848  0.0130  0.2974
 7291W        W50385   3.506   9.266  16.585 -0.2151 -0.0766 -0.1317
 7292W        W50386   0.967   9.431  16.710 -0.1484 -0.1157 -0.0703
 7293W        W50387   2.533   8.694  18.048  0.0074  0.1955  0.0574
 7294W        W50388   1.962   6.584  17.725  0.0648 -0.0556  0.0064
 7295W        W50389  34.684  10.949  17.624  0.0101  0.1114  0.3673
 7296W        W50390   0.824   8.810  17.105 -0.0040 -0.2498  0.0015
 7297W        W50391   2.852   9.281  18.418 -0.0214 -0.2062  0.2749
 7298W        W50392   1.112   8.806  16.684 -0.1288 -0.1051  0.0258
 7299W        W50393   0.802  10.671  18.648 -0.0689  0.0201 -0.0321
 7300W        W50394   0.342   9.963  19.440  0.0027 -0.0480  0.0735
 7301W        W50395  34.115   8.964  17.312  0.0398  0.2933 -0.1920
 7302W        W50396   3.057  11.500  16.694  0.0907 -0.1134 -0.1693
 7303W        W50397   3.662  10.064  17.808  0.2698 -0.2648  0.0446
 7304W        W50398   2.174  11.031  17.191  0.0915  0.0867  0.4427
 7305W        W50399  33.047   8.343  16.786  0.1900  0.0358  0.0894
 7306W        W50400   1.898   9.084  19.538 -0.1262 -0.2801  0.2740
 7307W        W50401   0.356   8.396  17.840  0.2471 -0.0091  0.2810
 7308W        W50402   1.767   5.819  18.239  0.0637  0.2981 -0.3994
 7309W        W50403   2.997  10.578  19.497  0.0536  0.0186  0.0620
 7310W        W50404   0.966  11.201  19.432 -0.2300  0.0054 -0.3920
 7311W        W50405   2.136   8.801  17.636 -0.3095 -0.0083  0.1921
 7312W        W50406   1.028  10.623  18.145  0.1535  0.0967 -0.3809
 7313W        W50407   2.250  10.358  18.189  0.0843 -0.1451  0.0463
 7314W        W50408   1.509   8.725  16.377 -0.2050  0.0121  0.0020
 7315W        W50409   3.015   8.795  18.345 -0.0072 -0.0116  0.1535
 7316W        W50410   1.878   7.497  18.348  0.3549 -0.1489  0.1393
 7317W        W50411   0.548   9.025  15.972  0.0907  0.3447  0.3394
 7318W        W50412   1.286   8.771  15.933 -0.4426 -0.0399 -0.1693
 7319W        W50413   3.923  11.035  18.555  0.0357 -0.1051  0.0620
 7320W        W50414   1.913   9.616  16.328 -0.0730  0.1644  0.1616
 7321W        W50415   0.587   9.566  19.171  0.1116 -0.1188  0.0384
 7322W        W50416   0.992   8.081  17.720  0.0993  0.0216 -0.2181
 7323W        W50417   1.855  11.654  18.361  0.0818  0.0914  0.0729
 7324W        W50418  34.054  12.074  17.059  0.3429 -0.0946  0.2082
 7325W        W50419   0.067   9.443  19.812  0.0004  0.0890  0.2255
 7326W        W50420  34.319  10.430  16.311  0.0097  0.2242 -0.1738
 7327W        W50421   0.267   8.232  19.278  0.1688 -0.1698  0.3248
 7328W        W50422   1.478  10.842  18.494  0.0779  0.1079  0.4630
 7329W        W50423   2.796   7.939  17.069 -0.1773  0.2040  0.1107
 7330W        W50424   1.450   6.851  17.669  0.2104  0.5608  0.1320
 7331W        W50425   3.763   9.211  18.860 -0.4067  0.1564 -0.0019
 7332W        W50426   0.563  10.793  17.674  0.0640 -0.2749 -0.1743
 7333W        W50427   4.165  11.356  17.146  0.3171 -0.1661 -0.1508
 7334W        W50428   2.567   8.530  17.469 -0.4431  0.2969 -0.0705
 7335W        W50429   1.879  10.146  16.389 -0.1451 -0.2239  0.0216
 7336W        W50430   0.185   7.883  17.691 -0.1442  0.0387 -0.0219
 7337W        W50431   0.635   6.643  17.408  0.3458  0.1554 -0.2333
 7338W        W50432   0.881   7.248  19.042  0.0419  0.0333 -0.2194
 7339W        W50433   0.518   6.952  18.863  0.0083 -0.2761  0.4724
 7340W        W50434   2.827   9.702  19.107 -0.1497  0.2540 -0.2376
 7341W        W50435  33.916   8.556  17.050  0.0492  0.2078  0.0186
 7342W        W50436   1.623   9.022  17.780  0.2927  0.2554  0.0710
 7343W        W50437   0.994   8.195  16.777 -0.2271  0.3474 -0.1700
 7344W        W50438  34.246   9.859  17.008  0.4413  0.0025 -0.1088
 7345W        W50439   2.761   7.530  19.343 -0.0156  0.0179 -0.2001
 7346W        W50440   0.726  10.085  16.779 -0.0434  0.1821 -0.0465
 7347W        W50441   3.069  11.437  18.795 -0.1985  0.2344  0.0860
 7348W        W50442   3.715  10.618  17.860  0.0345  0.0027  0.2143
 7349W        W50443   1.296   8.489  17.799  0.1167 -0.0055  0.0085
 7350W        W50444   0.925   7.948  16.351 -0.0874 -0.0352  0.2582
 7351W        W50445   0.481  13.184  18.997  0.0276 -0.2627 -0.1834
 7352W        W50446   0.925  10.631  17.344  0.0805  0.1786  0.0423
 7353W        W50447   0.504   7.489  16.568 -0.1078  0.0767  0.1839
 7354W        W50448   3.537  10.891  17.343 -0.0203 -0.3067 -0.1723
 7355W        W50449   1.981   9.142  16.493 -0.3898 -0.0182 -0.1278
 7356W        W50450   0.141  10.097  17.163  0.2867  0.1832  0.0794
 7357W        W50451   2.317   8.444  19.418 -0.1590 -0.0488 -0.1835
 7358W        W50452   2.827  10.196  18.865 -0.1623  0.0308 -0.0105
 7359W        W50453   0.396   9.859  18.228  0.1697 -0.2026  0.3094
 7360W        W50454  33.955   8.276  15.672  0.0663 -0.1792 -0.2784
 7361W        W50455   2.790  11.570  18.071  0.1720 -0.2477 -0.2680
 7362W        W50456   1.050  11.036  15.972 -0.0878 -0.1747  0.2120
 7363W        W50457   0.307   8.366  16.968  0.1056  0.0877  0.1665
 7364W        W50458  34.665  11.321  16.851 -0.1871  0.1019 -0.1557
 7365W        W50459   2.451   8.368  18.925 -0.0197  0.0252 -0.2640
 7366W        W50460   0.001   9.960  21.097  0.1626  0.4156 -0.0656
 7367W        W50461   1.754   9.649  20.204 -0.2150 -0.1231  0.0047
 7368W        W50462  33.552   9.402  16.293  0.0481 -0.0856  0.0432
 7369W        W50463   0.801  10.162  20.766 -0.0392  0.0042  0.5630
 7370W        W50464   2.109   7.399  17.970 -0.1851  0.2343  0.1656
 7371W        W50465   3.946   8.651  16.784 -0.0854  0.2216  0.0674
 7372W        W50466   2.905   9.079  20.362  0.2522 -0.2137 -0.4462
 7373W        W50467   1.293   9.895  18.972 -0.0485  0.0907  0.2472
 7374W        W50468   1.935   7.574  16.473  0.1447 -0.1627  0.1201
 7375W        W50469   2.482   6.771  17.641  0.1103  0.0241  0.2368
 7376W        W50470   0.188   9.542  20.387 -0.0819  0.1878 -0.0398
 7377W        W50471   0.531  11.626  17.465  0.3752 -0.0564 -0.2153
 7378W        W50472   0.878  10.415  17.748  0.1999 -0.0382  0.1403
 7379W        W50473   1.104   8.414  17.339 -0.0735 -0.0997 -0.1477
 7380W        W50474   2.946  11.055  16.856  0.0629  0.0447  0.1160
 7381W        W50475   0.968  10.440  20.353 -0.0224  0.1346  0.0005
 7382W        W50476   2.880   9.972  20.912  0.0159  0.0343 -0.2069
 7383W        W50477   2.404  10.803  16.249 -0.1947  0.1229  0.0193
 7384W        W50478   1.611   8.727  18.154  0.0643  0.0641  0.0406
 7385W        W50479   0.054   7.978  16.673  0.1096 -0.0220  0.2617
 7386W        W50480   1.011   7.973  18.331 -0.0388  0.3509  0.4276
 7387W        W50481   0.483  12.638  16.562 -0.0347 -0.2084 -0.2334
 7388W        W50482   2.433   7.854  19.693 -0.2256 -0.3186  0.2590
 7389W        W50483   2.199   8.931  19.018  0.1005  0.0044  0.1175
 7390W        W50484   0.856   8.292  18.745  0.5472 -0.1698 -0.1591
 7391W        W50485   2.645   8.304  19.831 -0.3799 -0.0039 -0.5442
 7392W        W50486   2.079   8.609  16.610  0.0651 -0.2038 -0.1024
 7393W        W50487   1.719   9.593  17.595 -0.0657  0.0695 -0.1874
 7394W        W50488  34.655   7.620  15.842  0.1154  0.1734  0.5520
 7395W        W50489   1.419   9.851  19.593  0.0966  0.1989 -0.0937
 7396W        W50490   0.935   9.708  18.674  0.1459  0.1200  0.0528
 7397W        W50491   1.081  11.797  17.689 -0.2130 -0.2714 -0.2016
 7398W        W50492   0.652  10.980  18.157  0.0567 -0.1026  0.0276
 7399W        W50493   0.891   9.885  17.778 -0.5494  0.0094  0.0740
 7400W        W50494   0.910   8.616  20.912  0.3054  0.2085  0.0494
 7401W        W50495   1.750   7.678  17.704  0.2723 -0.2714 -0.0678
 7402W        W50496  34.192  11.264  16.657 -0.5178 -0.1896  0.0722
 7403W        W50497   0.519  11.347  16.949 -0.1023 -0.0244  0.0616
 7404W        W50498   2.771   7.912  18.093  0.2404  0.2559 -0.0630
 7405W        W50499   0.509  10.441  18.173 -0.0125 -0.0239  0.0363
 7406W        W50500   2.001   8.808  16.128 -0.0809  0.0717  0.2809
 7407W        W50501   2.815  10.320  17.456  0.5084 -0.2324 -0.0137
 7408W        W50502   0.129  10.718  16.038  0.1258  0.2880  0.0673
 7409W        W50503   3.822   9.037  19.368 -0.2155 -0.0430  0.0971
 7410W        W50504  34.264  10.487  16.819 -0.0666 -0.4926 -0.3022
 7411W        W50505   0.043   7.396  16.404  0.1904  0.4654  0.0737
 7412W        W50506  33.332   9.122  16.680 -0.1730 -0.2366  0.0893
 7413W        W50507   2.193   9.315  18.461 -0.0799  0.1647 -0.2830
 7414W        W50508   3.105  10.464  15.935 -0.5513 -0.0911 -0.0635
 7415W        W50509   0.510   8.364  18.348 -0.0180 -0.1214 -0.1453
 7416W        W50510   0.579   7.896  16.931 -0.0455 -0.0886  0.0756
 7417W        W50511   0.808  11.362  17.884 -0.2594  0.1045  0.1050
 7418W        W50512   1.704   8.952  19.012 -0.0185  0.0786  0.6550
 7419W        W50513   3.687   8.145  17.788 -0.3032  0.1164 -0.0127
 7420W        W50514   3.199  11.240  18.081 -0.1502 -0.2576  0.0428
 7421W        W50515   1.064  10.281  18.797  0.0920  0.5685  0.4526
 7422W        W50516  34.140   9.369  16.895  0.1957 -0.0433 -0.2928
 7423W        W50517   3.978   8.582  19.180  0.1278 -0.2480  0.0542
 7424W        W50518   0.797   8.582  17.653  0.3083 -0.2599 -0.0876
 7425W        W50519   0.211  10.475  17.445 -0.0696 -0.2837 -0.3073
 7426W        W50520   2.238  11.885  18.542 -0.1114 -0.1014  0.0550
 7427W        W50521   0.116   8.930  16.263 -0.2860 -0.0811  0.1618
 7428W        W50522  34.355  11.379  17.713 -0.1303  0.1110 -0.1655
 7429W        W50523   1.517   8.976  20.025  0.0588  0.0258  0.1509
 7430W        W50524   3.046   8.570  20.095  0.0591 -0.0842 -0.0933
 7431W        W50525   1.095   8.948  17.983 -0.0883 -0.1679 -0.1637
 7432W        W50526   0.700   6.198  17.183  0.2759 -0.1313 -0.0481
 7433W        W50527   1.394   9.418  17.224 -0.0233 -0.2292  0.0760
 7434W        W50528   1.534  10.050  16.747 -0.0387 -0.1027  0.0387
 7435W        W50529   3.260   8.402  18.486 -0.0978  0.0909 -0.0068
 7436W        W50530   1.945   9.548  19.748 -0.1257 -0.0833  0.0220
 7437W        W50531   2.064   7.040  17.563 -0.0584  0.1786  0.2539
 7438W        W50532   3.530  10.080  16.892  0.2914  0.1366 -0.0064
 7439W        W50533   2.077   9.284  17.813  0.2091  0.2999 -0.0944
 7440W        W50534   0.565  10.414  17.114 -0.0344 -0.1344 -0.1359
 7441W        W50535   0.581   8.203  17.400  0.3379  0.1709  0.2213
 7442W        W50536   0.944   9.581  17.351  0.0604  0.0484  0.0223
 7443W        W50537   1.058  10.153  17.328  0.0377 -0.1076 -0.1035
 7444W        W50538   0.742  10.500  19.086  0.0823  0.0186  0.1905
 7445W        W50539   0.322  10.435  16.429 -0.2580  0.1019  0.0608
 7446W        W50540  34.157  10.953  18.599  0.1337 -0.2224  0.1518
 7447W        W50541   2.542   7.510  17.072  0.1230  0.2339  0.0956
 7448W        W50542   0.580  10.193  18.599 -0.0855  0.2757 -0.0022
 7449W        W50543   1.788   9.569  18.685 -0.0573  0.1804 -0.1316
 7450W        W50544   4.866   7.756  19.523  0.0124  0.0415  0.4474
 7451W        W50545   2.489  10.004  17.302  0.0300 -0.3839  0.0019
 7452W        W50546   2.707   8.792  19.015  0.2370 -0.1137  0.0329
 7453W        W50547   2.112   6.975  20.257 -0.0469  0.1643  0.1167
 7454W        W50548   2.631  10.609  17.949 -0.0556 -0.0818  0.1678
 7455W        W50549   0.383   7.091  20.014  0.2422 -0.2393 -0.0170
 7456W        W50550   2.629  10.656  18.546  0.0402  0.0595  0.3625
 7457W        W50551   0.985  10.150  18.250 -0.2208 -0.0131 -0.1567
 7458W        W50552   1.406   8.039  17.484 -0.0861  0.3663  0.3156
 7459W        W50553  34.525   6.899  16.481 -0.1512  0.0474  0.0563
 7460W        W50554  34.633   9.309  17.085 -0.0237  0.3223  0.4521
 7461W        W50555   2.182   9.797  17.606  0.4673 -0.0467 -0.0201
 7462W        W50556   1.726   8.360  16.034  0.0086  0.2985  0.2563
 7463W        W50557   2.706   9.627  17.600  0.4331 -0.0589  0.0359
 7464W        W50558   0.517  10.802  19.389 -0.2740  0.3444  0.0268
 7465W        W50559   2.085   8.924  18.177  0.1279 -0.2814 -0.1212
 7466W        W50560   1.813   9.586  15.781  0.1754  0.1093 -0.0587
 7467W        W50561   0.044   9.654  17.381  0.1247  0.1082  0.0668
 7468W        W50562   2.396   8.202  17.785 -0.1517  0.2547  0.0744
 7469W        W50563   2.391   9.021  16.852  0.1717  0.1983 -0.0815
 7470W        W50564   1.416   7.958  18.029 -0.0096  0.0083 -0.2298
 7471W        W50565   2.156   8.392  18.252  0.2718  0.1155  0.1999
 7472W        W50566   0.555   8.860  18.171 -0.0208 -0.3582  0.1135
 7473W        W50567   0.951   8.420  18.160 -0.1687  0.1765 -0.4511
 7474W        W50568   1.724   8.179  18.466  0.1078  0.2882  0.0544
 7475W        W50569   4.097  13.082  17.829 -0.0928 -0.0250  0.2444
 7476W        W50570   1.767   9.097  17.294 -0.0480 -0.1268 -0.3124
 7477W        W50571   4.157   7.876  19.603  0.2765 -0.1946 -0.1753
 7478W        W50572   3.206   8.668  16.339 -0.1464 -0.1632 -0.3920
 7479W        W50573   0.559   8.720  16.407 -0.1351 -0.1442 -0.1578
 7480W        W50574   0.001   9.947  18.912  0.1849  0.0245 -0.2496
 7481W        W50575   2.977   9.068  20.867 -0.4680 -0.1100 -0.0983
 7482W        W50576   0.699   7.337  17.105 -0.1509  0.1031  0.1179
 7483W        W50577   2.170   6.997  19.635  0.2403 -0.0234  0.0125
 7484W        W50578   1.848  11.578  17.814 -0.0251  0.0611 -0.0570
 7485W        W50579   1.193  11.446  17.296  0.3141 -0.4159  0.1975
 7486W        W50580   1.523   8.263  16.571  0.0003 -0.0504 -0.1967
 7487W        W50581  33.372   7.283  17.623 -0.2174  0.0712 -0.0171
 7488W        W50582   1.101  10.923  19.055 -0.0511  0.0194 -0.0158
 7489W        W50583  33.347   7.621  16.371 -0.1095  0.1763  0.2764
 7490W        W50584   1.242   8.956  17.417  0.3696  0.0661 -0.0674
 7491W        W50585   1.364  11.389  17.839  0.2329  0.1295 -0.0728
 7492W        W50586   2.275   7.822  19.122 -0.0528 -0.1256  0.1603
 7493W        W50587   1.864   6.963  16.486 -0.0356  0.0185  0.0033
 7494W        W50588   2.251   7.818  18.621 -0.0247 -0.0292 -0.4321
 7495W        W50589  33.818   9.491  17.231  0.0145  0.0429  0.0178
 7496W        W50590   2.003   7.257  18.765  0.2508  0.3212 -0.2316
 7497W        W50591  34.636  11.050  18.499 -0.1164 -0.1483 -0.0940
 7498W        W50592  33.654   9.121  17.619 -0.1096  0.2435 -0.2001
 7499W        W50593   0.454  11.677  18.125 -0.2065 -0.0428  0.1380
 7500W        W50594   1.343   7.314  18.842  0.0270 -0.2102 -0.2731
 7501W        W50595   2.656   8.583  16.563  0.0936  0.1564  0.2034
 7502W        W50596   1.356   9.781  18.086  0.0486  0.0085 -0.0785
 7503W        W50597   3.176   8.214  19.739  0.3138 -0.1358  0.1831
 7504W        W50598   3.891  11.610  19.109 -0.0546 -0.3090  0.0728
 7505W        W50599   0.456  10.080  17.717 -0.0147  0.2428  0.1107
 7506W        W50600   1.180   9.311  18.346  0.0649 -0.2896  0.2780
 7507W        W50601   1.416   9.179  16.631 -0.1025  0.1741  0.2152
 7508W        W50602  34.147  10.933  17.490  0.1528  0.2965 -0.2067
 7509W        W50603  34.295   6.998  19.694  0.3145 -0.1799 -0.0535
 7510W        W50604   2.439   8.955  19.425 -0.0503 -0.2559 -0.0608
 7511W        W50605   1.710   9.374  18.132  0.1873 -0.1750 -0.0019
 7512W        W50606   1.504   7.083  17.258  0.0681  0.1767 -0.2131
 7513W        W50607   1.696   9.902  17.223 -0.0478  0.0618  0.1940
 7514W        W50608   1.364   9.638  20.731  0.0745 -0.1709  0.3367
 7515W        W50609   0.419   9.692  18.708 -0.2486 -0.0238  0.0811
 7516W        W50610  33.767  11.776  17.924 -0.1090 -0.0641 -0.1075
 7517W        W50611   2.365  10.376  17.023  0.2368  0.2794 -0.0258
 7518W        W50612   1.644   8.554  17.411 -0.0508  0.1059 -0.0109
 7519W        W50613   2.879  11.857  19.494  0.0856  0.2453  0.0653
 7520W        W50614   0.466   9.589  17.715 -0.3244  0.1247 -0.1227
 7521W        W50615   0.375  10.892  17.185  0.1775 -0.0330 -0.0909
 7522W        W50616  33.207   9.850  16.086  0.0321 -0.3556 -0.0917
 7523W        W50617   1.892  10.689  16.326  0.1252  0.2714 -0.0441
 7524W        W50618   0.301  11.261  17.805 -0.0722  0.0703 -0.2704
 7525W        W50619   3.159   9.886  21.345 -0.0158  0.0172 -0.0158
 7526W        W50620   3.124   7.177  15.956 -0.1601  0.0711  0.1166
 7527W        W50621   3.429   9.039  15.991  0.3646 -0.1550 -0.0922
 7528W        W50622   3.397   8.562  15.812 -0.1129 -0.0404  0.3247
 7529W        W50623   2.146  11.596  18.953  0.3465 -0.2605  0.0937
 7530W        W50624   0.849   9.196  19.059 -0.0650  0.2248  0.0314
 7531W        W50625   1.309   7.447  16.439 -0.3424  0.2057 -0.1947
 7532W        W50626   2.199   8.088  20.169 -0.0762  0.0477 -0.2304
 7533W        W50627   5.004   7.222  17.728  0.0829  0.4264 -0.1222
 7534W        W50628   0.273  11.553  21.766  0.1541 -0.2694 -0.0981
 7535W        W50629   2.745   9.957  16.688 -0.0416  0.2783  0.0075
 7536W        W50630  33.930   7.968  17.080 -0.1441 -0.2220  0.2056
 7537W        W50631   0.768   9.108  17.654 -0.1140 -0.1924  0.0280
 7538W        W50632   3.526   8.389  19.381 -0.0431 -0.1061 -0.2131
 7539W        W50633   0.466   9.491  16.803 -0.0458  0.0463 -0.0304
 7540W        W50634   1.846   8.259  17.894 -0.1543 -0.2508 -0.0603
 7541W        W50635  32.808  10.751  17.023  0.0879 -0.0505  0.0842
 7542W        W50636   0.040  10.937  19.146  0.2481  0.2725  0.1899
 7543W        W50637   1.131  11.080  18.176  0.1451  0.3667 -0.1032
 7544W        W50638  34.302   8.307  17.975  0.0791  0.1035 -0.2226
 7545W        W50639   3.759   7.775  17.440 -0.2365 -0.0281 -0.1811
 7546W        W50640   1.571   9.030  20.965  0.3083  0.0414  0.1277
 7547W        W50641   2.620   7.256  20.376 -0.1745 -0.2060 -0.2491
 7548W        W50642   0.230   8.902  16.887  0.2907  0.2266 -0.1434
 7549W        W50643   2.607   9.455  16.620  0.1648 -0.2560  0.2506
 7550W        W50644   1.818   8.341  19.050 -0.0234 -0.2221  0.0734
 7551W        W50645   0.994   6.987  17.415  0.1256 -0.0901 -0.1940
 7552W        W50646   1.428   7.857  16.855 -0.3289  0.2700 -0.1192
 7553W        W50647   4.224   9.589  18.539 -0.2898 -0.0303  0.2132
 7554W        W50648   1.991   8.023  16.365 -0.2571 -0.0300  0.0449
 7555W        W50649   3.777  11.487  18.320 -0.1689  0.0303 -0.1455
 7556W        W50650   1.202   7.428  17.124  0.3597  0.0929 -0.0669
 7557W        W50651   2.100   6.502  16.845 -0.0929  0.1988  0.0757
 7558W        W50652   1.333  10.537  17.582  0.0801 -0.1131  0.1708
 7559W        W50653   0.699   8.787  19.547 -0.2111  0.0669  0.2140
 7560W        W50654   1.915  10.438  19.216 -0.3883 -0.0667  0.1901
 7561W        W50655   0.283   7.599  18.039  0.2405 -0.0420 -0.0058
 7562W        W50656   1.320  10.997  16.644 -0.0964 -0.3071 -0.2629
 7563W        W50657   1.413  10.016  17.634  0.2312  0.1332 -0.2416
 7564W        W50658  34.216  11.509  15.975 -0.0268  0.4062  0.2953
 7565W        W50659   3.584   9.593  15.993  0.1704  0.2321  0.1754
 7566W        W50660   1.989  11.129  17.723  0.0378 -0.2795  0.2399
 7567W        W50661  34.643   8.615  19.071  0.2056 -0.0323  0.1027
 7568W        W50662   5.339  11.387  18.950 -0.3968  0.1992  0.0738
 7569W        W50663   3.236  10.323  17.971  0.2765 -0.0825 -0.2593
 7570W        W50664   1.109   6.891  16.930  0.1926 -0.3178  0.6131
 7571W        W50665   0.423   9.889  16.418 -0.1138 -0.0620 -0.2852
 7572W        W50666  33.518  12.549  18.245 -0.0075  0.2457  0.0012
 7573W        W50667   2.041   8.282  17.458 -0.1566 -0.3298  0.0993
 7574W        W50668   2.742   8.270  18.406  0.0847 -0.2399 -0.0855
 7575W        W50669   1.282  11.333  16.291 -0.1568  0.1901  0.0913
 7576W        W50670   2.791   6.984  19.971  0.0462 -0.0127  0.0162
 7577W        W50671   1.908  10.486  18.626 -0.1656  0.1823 -0.2447
 7578W        W50672   1.255   9.324  21.315  0.2419 -0.0486  0.2552
 7579W        W50673   0.396   9.270  17.305  0.0319  0.0042  0.0360
 7580W        W50674   1.256   9.390  17.756  0.0273 -0.1277  0.1417
 7581W        W50675   0.969   7.674  16.793  0.0237  0.2401  0.1712
 7582W        W50676   2.745  11.199  16.362 -0.1751 -0.1260 -0.0652
 7583W        W50677   2.864  10.240  18.343  0.1441  0.1213 -0.0270
 7584W        W50678   1.679   7.581  17.227  0.1897 -0.2025  0.0766
 7585W        W50679   2.199   9.418  17.235 -0.1971 -0.0387 -0.0911
 7586W        W50680   0.651   7.677  17.529 -0.3955  0.0439  0.0701
 7587W        W50681   2.620   8.078  15.819  0.0822  0.1688  0.0959
 7588W        W50682   2.416   8.162  16.772 -0.2363 -0.0238  0.0370
 7589W        W50683   1.475  10.500  18.914  0.3716  0.0616 -0.2900
 7590W        W50684  33.942   9.109  16.144 -0.1033 -0.2250  0.3801
 7591W        W50685   0.630   9.346  16.361 -0.1821 -0.0058  0.0577
 7592W        W50686  34.614  10.124  16.656  0.1526  0.1903 -0.1205
 7593W        W50687   1.807   7.727  18.894 -0.1024  0.3548 -0.0624
 7594W        W50688   0.575   7.990  18.004  0.0345 -0.1343  0.0096
 7595W        W50689   0.031   9.804  17.888 -0.2325 -0.1917 -0.0925
 7596W        W50690   0.055   7.994  17.222  0.0983  0.2786  0.4483
 7597W        W50691   1.774   9.492  16.840  0.1778  0.0723  0.0232
 7598W        W50692   1.341   6.150  18.179 -0.0741  0.1604 -0.0223
 7599W        W50693   0.237   7.460  17.426 -0.3368  0.2365 -0.3153
 7600W        W50694   1.608  11.370  16.916 -0.1419  0.3190 -0.1069
 7601W        W50695   1.894  10.475  16.871 -0.0961 -0.1305 -0.5548
 7602W        W50696   1.667   7.272  16.817 -0.1468 -0.0425  0.3346
 7603W        W50697   3.208  11.553  20.288 -0.1625 -0.1636 -0.3068
 7604W        W50698  34.477  10.860  16.553  0.1855  0.2431  0.3416
 7605W        W50699   0.460   7.779  20.690  0.3385 -0.1278 -0.1161
 7606W        W50700   1.216   6.878  19.926 -0.1452  0.0061 -0.1682
 7607W        W50701  32.581   7.417  16.930  0.3548  0.1968  0.0188
 7608W        W50702   0.516   9.832  17.177  0.2055 -0.0365 -0.0362
 7609W        W50703  34.014   9.536  16.460 -0.1246 -0.0940  0.0681
 7610W        W50704   1.446  10.378  17.126 -0.2046  0.0713  0.0518
 7611W        W50705   2.358  10.141  19.199  0.0824 -0.1579  0.1312
 7612W        W50706   2.647  10.629  19.115 -0.0542  0.1339  0.1499
 7613W        W50707   0.483   6.449  18.770 -0.0109  0.2986  0.2033
 7614W        W50708   3.352  10.638  16.310 -0.0215  0.1257  0.2575
 7615W        W50709   2.266  10.824  19.283  0.2554  0.1301  0.1235
 7616W        W50710   3.277  10.701  17.024  0.0763 -0.0322 -0.1290
 7617W        W50711   4.073   8.696  18.372  0.0057 -0.0518  0.1972
 7618W        W50712   1.679   8.838  16.835  0.1645  0.1152 -0.1741
 7619W        W50713   1.298   8.442  18.577  0.0219 -0.2503  0.1544
 7620W        W50714   0.774   9.520  19.688 -0.1059 -0.1891 -0.0475
 7621W        W50715   1.828  10.289  17.503  0.2010  0.1572  0.2039
 7622W        W50716   1.378   6.087  16.385 -0.0238 -0.3197 -0.3330
 7623W        W50717   2.485   8.116  16.293 -0.0004 -0.2286 -0.0521
 7624W        W50718   2.463  11.229  17.970 -0.0090  0.1318  0.5881
 7625W        W50719   0.262   9.360  18.220  0.2078 -0.0737 -0.5100
 7626W        W50720   1.024   7.898  17.205  0.3916 -0.2737 -0.0309
 7627W        W50721   1.410   8.952  18.627 -0.1605 -0.1208 -0.3986
 7628W        W50722   0.045   9.670  16.752 -0.2094  0.0770 -0.2885
 7629W        W50723   2.704  11.024  20.680 -0.1402  0.1146  0.0777
 7630W        W50724   1.647   9.187  16.064 -0.2992 -0.3131  0.0545
 7631W        W50725   3.114   9.563  15.825  0.1913 -0.3217 -0.2021
 7632W        W50726   2.849  11.030  17.854 -0.0306 -0.0424 -0.3805
 7633W        W50727   4.243  10.784  20.304  0.2686  0.1611 -0.1869
 7634W        W50728   1.621  10.979  19.026 -0.2491 -0.1276 -0.0761
 7635W        W50729   3.053   8.628  17.854  0.1675  0.3249 -0.2639
 7636W        W50730   1.178   7.609  17.638 -0.0096  0.1439  0.0336
 7637W        W50731  34.438   9.793  16.303  0.1239  0.1041  0.0916
 7638W        W50732   1.448  10.522  16.601 -0.0319 -0.0448  0.1056
 7639W        W50733   2.588   9.269  18.904 -0.1379  0.0995  0.2110
 7640W        W50734   0.850   7.565  18.034 -0.3124 -0.0506  0.0688
 7641W        W50735   2.192   8.692  17.105 -0.2401  0.4942 -0.0191
 7642W        W50736   2.180  10.908  18.731 -0.1500 -0.0486 -0.0851
 7643W        W50737   1.535  10.145  18.442  0.0902  0.0182 -0.0981
 7644W        W50738   1.893   9.029  22.649 -0.2459  0.0152  0.1028
 7645W        W50739   1.733   9.493  21.088  0.1863 -0.2881  0.0736
 7646W        W50740   2.860   8.662  19.493 -0.1106 -0.0908 -0.4663
 7647W        W50741   4.280   8.346  22.237  0.4915  0.0245  0.1256
 7648W        W50742   1.184   7.063  21.118 -0.1068 -0.1604 -0.0887
 7649W        W50743   2.297  10.260  21.001  0.1190  0.1946  0.1136
 7650W        W50744   0.793   7.751  23.107 -0.1366 -0.1930 -0.0474
 7651W        W50745   2.308   9.863  21.748  0.1599  0.0290  0.2070
 7652W        W50746   4.640   9.971  22.982 -0.4225 -0.0144 -0.1455
 7653W        W50747   2.613   9.824  18.529  0.0951 -0.1778 -0.1798
 7654W        W50748   1.332   7.337  22.105 -0.0053  0.0036  0.2133
 7655W        W50749   1.620  10.776  22.730  0.0695  0.2841  0.2251
 7656W        W50750   1.450   6.345  19.942  0.0216 -0.0145  0.2131
 7657W        W50751  34.691   7.662  22.727 -0.0252 -0.0199  0.0162
 7658W        W50752   1.910   8.509  22.691  0.2742 -0.2646 -0.4232
 7659W        W50753   1.864   9.865  20.743 -0.0923 -0.1043  0.0723
 7660W        W50754   0.777   8.281  22.747  0.0597 -0.1508  0.2060
 7661W        W50755   0.746   8.351  19.215 -0.0506 -0.2443  0.0846
 7662W        W50756   2.388  10.363  21.538  0.0150 -0.1226  0.1167
 7663W        W50757   2.675   8.113  22.175  0.2402 -0.1061 -0.0935
 7664W        W50758   2.905   6.161  24.304 -0.0023  0.2391 -0.0808
 7665W        W50759   2.089   9.317  21.888  0.0885  0.0242  0.2410
 7666W        W50760  34.604   8.520  18.550 -0.0575  0.2152  0.1368
 7667W        W50761  34.511   9.191  22.377  0.0989  0.0252 -0.0090
 7668W        W50762   1.598   8.611  21.801  0.0498  0.0998 -0.1406
 7669W        W50763   2.960   7.011  22.226 -0.0593  0.4501 -0.0838
 7670W        W50764   3.955   8.819  21.164 -0.2070 -0.2145  0.0179
 7671W        W50765   2.859  10.403  21.143 -0.0803 -0.1782  0.1377
 7672W        W50766   1.637  10.864  20.763  0.1325 -0.0458 -0.0588
 7673W        W50767   3.052   9.763  23.087  0.1526 -0.1922 -0.1284
 7674W        W50768  34.477   8.531  20.940 -0.3327 -0.2490  0.2770
 7675W        W50769  34.157  11.960  21.968 -0.0001 -0.4152 -0.1700
 7676W        W50770   0.813   9.483  21.067 -0.2405 -0.1042 -0.0596
 7677W        W50771   4.054   9.452  21.607 -0.0709 -0.2301  0.0625
 7678W        W50772   3.054  10.919  23.042  0.0897 -0.1405 -0.1343
 7679W        W50773   2.331   8.568  23.567  0.0034 -0.0749  0.2213
 7680W        W50774   0.415   9.239  19.465  0.0645 -0.0687 -0.1596
 7681W        W50775   3.952  10.586  23.137  0.0350  0.0523  0.1453
 7682W        W50776   1.882  10.375  24.625 -0.0891  0.1197  0.1512
 7683W        W50777   2.707   8.710  22.444 -0.0066 -0.2534  0.3833
 7684W        W50778   2.400   8.471  22.009 -0.2929 -0.2852  0.3371
 7685W        W50779   1.101   9.037  20.798  0.0886 -0.1900  0.0864
 7686W        W50780   4.189   9.885  21.991 -0.0198  0.2178 -0.0877
 7687W        W50781   1.821  10.032  23.980 -0.0543  0.0524 -0.0397
 7688W        W50782   0.093   9.038  21.190  0.0227 -0.1012 -0.0660
 7689W        W50783   4.088   7.149  24.095  0.0327  0.1898 -0.0165
 7690W        W50784   0.307  10.882  22.129 -0.2801  0.2481  0.0911
 7691W        W50785   3.168   9.927  20.341  0.1444 -0.0867 -0.1142
 7692W        W50786   1.827   8.862  20.421 -0.0853  0.1068 -0.2140
 7693W        W50787   2.669   8.268  20.336 -0.3694  0.3617 -0.1639
 7694W        W50788   1.808   7.745  21.555  0.0434  0.3338 -0.0126
 7695W        W50789   0.399   9.452  22.430  0.0756  0.1625  0.3102
 7696W        W50790   2.890   8.264  20.829 -0.0074 -0.2867  0.1109
 7697W        W50791   3.500   9.410  23.425  0.0356 -0.1860 -0.0172
 7698W        W50792   1.230   8.271  19.065  0.0241 -0.0883 -0.1274
 7699W        W50793   3.029   9.103  22.003  0.0881  0.1357 -0.2775
 7700W        W50794   1.209   9.473  22.912  0.0365 -0.1490  0.3363
 7701W        W50795  33.606   8.878  22.440  0.1023 -0.3357 -0.4073
 7702W        W50796   3.203  10.440  20.161  0.1509 -0.1156 -0.1284
 7703W        W50797   3.100  10.877  22.034  0.1258  0.0484 -0.2986
 7704W        W50798   2.203   9.407  19.336 -0.2574  0.2078 -0.1824
 7705W        W50799   0.746   9.121  21.768  0.0349  0.0753 -0.2273
 7706W        W50800   1.354   9.392  22.413  0.3184 -0.2321  0.3757
 7707W        W50801  34.259   8.059  22.183  0.0716 -0.1100 -0.0733
 7708W        W50802   0.329   8.465  18.833  0.0393 -0.1781 -0.2170
 7709W        W50803   4.176   8.683  23.025  0.1235 -0.0679  0.5174
 7710W        W50804   0.521   9.921  24.800 -0.1515  0.1937  0.1814
 7711W        W50805   2.705   7.515  22.014  0.0415  0.1151 -0.2317
 7712W        W50806   0.185   9.931  21.575  0.0619  0.1008  0.0727
 7713W        W50807   2.845   9.856  21.711 -0.1209 -0.0448 -0.0041
 7714W        W50808   2.720  10.335  20.143 -0.4180 -0.1040  0.2730
 7715W        W50809   2.846   7.833  22.977 -0.2436  0.2274  0.2571
 7716W        W50810   2.155   7.286  23.347 -0.3493  0.0312 -0.2797
 7717W        W50811   0.935   9.130  20.338  0.1665 -0.1065 -0.0679
 7718W        W50812   1.190   8.602  19.839  0.0985  0.1695 -0.2489
 7719W        W50813   3.538  10.247  20.523  0.0660  0.0623  0.0047
 7720W        W50814   3.691   8.928  20.608 -0.3904  0.1215 -0.1174
 7721W        W50815   0.360   9.828  23.129 -0.1149 -0.2475  0.2135
 7722W        W50816   1.322   7.583  23.480 -0.2013  0.1648 -0.3097
 7723W        W50817   2.725   9.705  22.668 -0.3126 -0.0258 -0.3901
 7724W        W50818  34.507  10.465  20.927  0.0429  0.1227 -0.0522
 7725W        W50819  34.664   9.147  21.714 -0.1087 -0.2171  0.0025
 7726W        W50820   1.040  10.626  19.502 -0.0863 -0.2016  0.0645
 7727W        W50821   0.384   7.600  22.258  0.2430 -0.0933  0.0577
 7728W        W50822   2.616   9.581  23.218  0.0906 -0.0057 -0.0866
 7729W        W50823   3.849   8.407  21.945  0.1520  0.1333  0.1389
 7730W        W50824   1.627   6.991  23.381  0.1150  0.2260  0.0460
 7731W        W50825   3.455   7.577  22.411  0.2058 -0.2522 -0.0682
 7732W        W50826   1.284   9.266  19.481 -0.0345 -0.0062 -0.0099
 7733W        W50827   1.776  12.132  21.273  0.2190 -0.0603 -0.1403
 7734W        W50828   3.159   8.147  20.300 -0.2009  0.1141 -0.3760
 7735W        W50829   2.291  10.204  18.737 -0.1821  0.1437 -0.2871
 7736W        W50830   0.322   8.895  22.017  0.1027 -0.0257 -0.2411
 7737W        W50831   0.277   7.849  21.808  0.0670  0.1948  0.1872
 7738W        W50832   1.141   8.877  21.939 -0.0903 -0.2445  0.1913
 7739W        W50833   1.214   7.252  21.563 -0.1286 -0.1035  0.2135
 7740W        W50834   3.502   8.760  22.072  0.2014  0.0204  0.0622
 7741W        W50835   1.160   6.635  20.862  0.2399  0.1496  0.4226
 7742W        W50836   2.768   8.474  21.627  0.2492  0.0250  0.2404
 7743W        W50837   0.512   8.285  20.521 -0.2783 -0.0119  0.1138
 7744W        W50838   0.299   8.145  21.424 -0.3763 -0.1258  0.1998
 7745W        W50839   3.114   7.416  23.741 -0.2019  0.2328  0.0517
 7746W        W50840   2.419   9.172  20.429  0.3206 -0.2749  0.3831
 7747W        W50841   3.620   9.766  22.413 -0.1048 -0.0237 -0.1224
 7748W        W50842   1.293  12.014  21.212 -0.2459  0.4365  0.1583
 7749W        W50843   2.096   6.666  21.604  0.0065  0.2870 -0.5413
 7750W        W50844   0.927   7.902  20.641 -0.1455 -0.3163 -0.1456
 7751W        W50845   0.902  10.839  22.556  0.0130  0.1282  0.0535
 7752W        W50846   1.144   9.922  22.681  0.0358  0.3287 -0.0559
 7753W        W50847  34.434   7.074  20.546 -0.0937 -0.0721 -0.1012
 7754W        W50848   2.428  10.543  20.554  0.0077 -0.0513  0.3265
 7755W        W50849   1.205   8.071  19.487  0.1044 -0.0576 -0.2634
 7756W        W50850  34.527   8.709  21.956 -0.1999  0.0062 -0.1592
 7757W        W50851   3.661   7.287  22.833  0.1229 -0.0305 -0.1578
 7758W        W50852   3.958   9.387  22.322 -0.3053 -0.3872 -0.0505
 7759W        W50853   1.897   7.918  20.862 -0.1050  0.1127 -0.3055
 7760W        W50854   0.942   7.808  19.801  0.0754  0.0997  0.0536
 7761W        W50855   2.471  11.639  21.198  0.2627  0.3354 -0.2448
 7762W        W50856   0.578   9.330  20.084  0.0415 -0.2863 -0.0496
 7763W        W50857  33.441  10.846  22.645 -0.0505 -0.0844 -0.1338
 7764W        W50858   1.480   9.897  21.202 -0.3074  0.1416  0.1649
 7765W        W50859   3.249   7.438  21.966  0.2317  0.0846 -0.3008
 7766W        W50860   0.426   9.393  23.451 -0.2187  0.0123 -0.1248
 7767W        W50861   2.785   8.763  23.479  0.1476  0.1603 -0.1409
 7768W        W50862   0.317   8.495  20.078 -0.0054  0.0240 -0.3558
 7769W        W50863   1.488  10.042  24.355 -0.0567 -0.0308 -0.0911
 7770W        W50864   3.812   8.041  21.583 -0.0760 -0.1404  0.3414
 7771W        W50865   3.479   7.833  20.043  0.0395 -0.0511 -0.2733
 7772W        W50866   2.305   8.004  22.845 -0.0935  0.0520  0.0807
 7773W        W50867   2.511   8.797  19.945  0.1123 -0.1944 -0.1637
 7774W        W50868   2.253   7.366  19.341  0.0499  0.0584 -0.0715
 7775W        W50869   0.640   9.275  18.508  0.0747  0.1267  0.2816
 7776W        W50870   0.670  11.039  24.818 -0.0781 -0.2129  0.2431
 7777W        W50871   1.616   8.431  20.948 -0.0022 -0.1995  0.0154
 7778W        W50872   0.756   9.596  22.739 -0.0286 -0.3194  0.0148
 7779W        W50873   2.031   7.628  19.867 -0.2058  0.0040  0.2894
 7780W        W50874   4.103   9.582  21.076  0.0592 -0.0271  0.1216
 7781W        W50875   0.917   9.975  23.102  0.0418  0.3755 -0.1546
 7782W        W50876   3.504  10.555  23.274 -0.1039  0.3232 -0.2083
 7783W        W50877   2.713  10.930  21.169  0.1381 -0.1085 -0.3956
 7784W        W50878   1.751   6.552  22.874 -0.0313  0.3372  0.2531
 7785W        W50879   1.304   8.495  20.562  0.1476  0.2597  0.0303
 7786W        W50880   3.022   7.902  21.759  0.1382  0.0460 -0.4094
 7787W        W50881   0.523  11.499  21.109 -0.1247  0.0550 -0.0226
 7788W        W50882   3.543   7.939  21.952 -0.1867 -0.0600 -0.0185
 7789W        W50883   2.778   8.249  22.691  0.1762  0.2446  0.1017
 7790W        W50884   1.624   8.491  24.048  0.2709 -0.1302  0.1560
 7791W        W50885   4.532   9.012  22.986 -0.2301  0.1686  0.1530
 7792W        W50886   2.493   9.072  20.946 -0.0273  0.1981 -0.0824
 7793W        W50887   2.386   9.671  22.228  0.3338 -0.1247  0.1897
 7794W        W50888   1.225   9.554  19.985  0.0507 -0.1095  0.0097
 7795W        W50889   2.607   9.250  24.743 -0.2011  0.1325 -0.1066
 7796W        W50890   0.977   9.009  25.725 -0.2176  0.0771 -0.1376
 7797W        W50891   1.473  10.389  22.413 -0.0402 -0.0220  0.1460
 7798W        W50892   2.926  10.164  22.812  0.1489 -0.1836 -0.0576
 7799W        W50893   1.972   9.286  20.636 -0.0842 -0.0376  0.1005
 7800W        W50894   2.185   6.811  23.093  0.0938  0.2675 -0.2785
 7801W        W50895   3.635   8.955  22.593  0.1571 -0.0347  0.1831
 7802W        W50896   1.292  11.104  21.475 -0.0510 -0.0352 -0.0245
 7803W        W50897   2.358   9.272  19.844  0.0715 -0.1065  0.0210
 7804W        W50898   0.273   8.424  21.869 -0.2175  0.1227 -0.0564
 7805W        W50899   1.912   9.987  23.050  0.1299 -0.0439 -0.4252
 7806W        W50900   1.227  12.261  19.860 -0.1497  0.4444 -0.0145
 7807W        W50901   2.925  10.526  22.428  0.1153 -0.1757 -0.2399
 7808W        W50902   0.754  10.622  21.131 -0.0590  0.1157  0.3262
 7809W        W50903   3.895   6.897  22.089  0.1693 -0.1340  0.1767
 7810W        W50904  33.991   9.367  22.275 -0.0911  0.0942  0.0474
 7811W        W50905   1.175   8.189  21.142  0.4249 -0.0505  0.0907
 7812W        W50906  34.683  10.349  20.468 -0.0762  0.0414 -0.1872
 7813W        W50907   3.764   8.331  20.502 -0.4351  0.1616 -0.6283
 7814W        W50908   2.285   9.669  18.867  0.0944  0.0291  0.5013
 7815W        W50909   0.762   7.543  21.607  0.2011  0.0757  0.2440
 7816W        W50910   1.496   8.438  22.286  0.0644  0.0548 -0.1278
 7817W        W50911   0.040   9.040  23.455 -0.3742  0.0879 -0.2683
 7818W        W50912   2.520   8.019  21.637 -0.2196 -0.3035  0.2026
 7819W        W50913   2.604   6.152  20.387  0.0345 -0.0118  0.0918
 7820W        W50914   2.302   9.016  22.291 -0.0369  0.2291  0.0340
 7821W        W50915   1.345   8.400  23.579  0.2179 -0.2393 -0.2884
 7822W        W50916  34.622   7.674  20.767 -0.1295  0.0696 -0.3693
 7823W        W50917   4.034   8.328  23.883  0.5341  0.1826  0.1962
 7824W        W50918   1.877   8.669  21.397  0.4157 -0.1068 -0.0809
 7825W        W50919  34.508   9.929  20.646 -0.1349  0.2040 -0.0683
 7826W        W50920   2.773   9.301  22.396  0.0011  0.0083  0.0211
 7827W        W50921   0.591  10.459  19.787  0.2768  0.3375 -0.0734
 7828W        W50922  34.665   9.101  20.632  0.1570 -0.1822 -0.1757
 7829W        W50923   1.971   8.577  22.235  0.0923 -0.1387 -0.3261
 7830W        W50924   2.700  10.056  22.202 -0.0524 -0.0102 -0.0714
 7831W        W50925   1.687   7.400  21.173 -0.1707 -0.2342  0.1575
 7832W        W50926   0.844   7.376  19.608  0.1718 -0.0775 -0.3140
 7833W        W50927   0.737   8.620  21.967 -0.2416 -0.1719  0.1714
 7834W        W50928   2.363   8.775  21.412 -0.1438  0.2056  0.1816
 7835W        W50929   2.589   8.741  24.048  0.0297  0.1888  0.2148
 7836W        W50930   3.104  10.211  23.342 -0.0574  0.2624 -0.1503
 7837W        W50931   0.876   7.621  21.149 -0.4030  0.0122  0.0887
 7838W        W50932   2.343  10.682  19.952  0.1245  0.2682 -0.4316
 7839W        W50933   3.354   9.306  22.273 -0.0256 -0.0629  0.1935
 7840W        W50934   3.319   9.318  20.548  0.0484  0.1917 -0.0112
 7841W        W50935  34.638   9.681  22.450 -0.0534 -0.0720 -0.0608
 7842W        W50936   1.499  10.445  20.362  0.1331  0.0093  0.0185
 7843W        W50937   2.486   7.953  23.431 -0.3108  0.0297  0.3894
 7844W        W50938   2.024   9.867  21.266 -0.0794 -0.1179  0.0976
 7845W        W50939   2.252   9.667  20.365  0.0086  0.3214  0.1094
 7846W        W50940   0.816   9.744  22.252  0.0211  0.2440 -0.0453
 7847W        W50941   3.345   9.037  20.133  0.0561 -0.0933 -0.2196
 7848W        W50942   2.238  11.350  18.402  0.1477  0.0202 -0.0329
 7849W        W50943   1.312   6.684  21.428  0.0801 -0.2671 -0.1921
 7850W        W50944   4.126   7.662  23.982 -0.2640 -0.2373  0.1190
 7851W        W50945   1.736  10.020  19.909  0.0699  0.1979 -0.2436
 7852W        W50946   2.988   8.667  22.895  0.0665 -0.2090  0.1835
 7853W        W50947   1.034   6.146  21.802 -0.1164 -0.1596 -0.0515
 7854W        W50948   2.597   9.354  21.901 -0.1677 -0.2231 -0.2592
 7855W        W50949   1.334   8.169  22.690  0.1635 -0.2938 -0.2342
 7856W        W50950   2.104  11.093  25.206  0.0591  0.0526  0.0535
 7857W        W50951   1.294   7.776  22.989  0.0697  0.1874 -0.0271
 7858W        W50952   2.151   7.317  21.815  0.1183  0.0716 -0.0374
 7859W        W50953   0.594   7.884  20.167 -0.0889 -0.3599  0.0382
 7860W        W50954   0.335   9.941  22.237 -0.3177  0.3752  0.2908
 7861W        W50955   3.274  10.083  21.882  0.1025 -0.0420 -0.2446
 7862W        W50956   2.905   7.795  20.610  0.0630 -0.0584 -0.4686
 7863W        W50957   3.128   8.979  22.548 -0.0738  0.0859 -0.1415
 7864W        W50958   2.562   8.892  21.865 -0.0600 -0.2575  0.1013
 7865W        W50959   2.947   8.582  22.052 -0.0020 -0.1158 -0.1256
 7866W        W50960   1.979   8.188  19.717 -0.0402  0.1990  0.2731
 7867W        W50961   0.357   8.624  21.005 -0.3138 -0.2184 -0.0958
 7868W        W50962   2.096   6.501  22.389 -0.0821 -0.5648  0.0888
 7869W        W50963   2.805   8.687  21.131  0.2396  0.0595 -0.0218
 7870W        W50964   2.120   8.382  20.991 -0.1531  0.1494 -0.2642
 7871W        W50965   3.249   7.975  22.679  0.3899 -0.0811 -0.1877
 7872W        W50966   2.574   7.453  23.537  0.0770  0.0574  0.2496
 7873W        W50967   1.452   9.924  22.116 -0.0398  0.0409 -0.1021
 7874W        W50968   0.725   7.455  22.667  0.2965 -0.1946  0.3473
 7875W        W50969   1.760  10.238  21.459  0.2092  0.3034 -0.0027
 7876W        W50970   0.451   7.282  19.269 -0.1658  0.1066 -0.0810
 7877W        W50971   3.735   7.776  22.748  0.2310  0.1665  0.1144
 7878W        W50972   4.049   8.899  22.284  0.0783  0.1564 -0.0719
 7879W        W50973   2.908   7.914  21.168 -0.6033 -0.2425  0.1712
 7880W        W50974   0.995   7.842  22.592 -0.1699 -0.3287  0.0183
 7881W        W50975   4.221   8.119  24.256  0.2743  0.0426 -0.1253
 7882W        W50976   0.095   6.728  19.775 -0.0574 -0.0506 -0.0902
 7883W        W50977   4.492   7.392  23.713  0.0415  0.3613 -0.2203
 7884W        W50978   1.852  10.007  18.913 -0.2550 -0.1370  0.0705
 7885W        W50979   2.544   9.872  21.302 -0.0267 -0.1154  0.2392
 7886W        W50980   3.363   8.101  20.853 -0.1624 -0.0503  0.1888
 7887W        W50981  34.010   8.360  21.747  0.1854  0.2286 -0.0497
 7888W        W50982   3.057   9.813  24.231 -0.3628  0.1548  0.2845
 7889W        W50983   0.508   8.877  20.395  0.0023  0.0076  0.1566
 7890W        W50984   2.036   8.750  19.892 -0.0937 -0.1290  0.1915
 7891W        W50985   2.362   9.330  22.683 -0.0951 -0.0744  0.0846
 7892W        W50986   2.581   9.841  24.624  0.2376 -0.1258  0.3880
 7893W        W50987   0.718   8.275  19.705  0.0641  0.0843  0.1200
 7894W        W50988   3.705   8.659  23.908 -0.3985  0.0313 -0.0537
 7895W        W50989   0.259  10.399  21.936 -0.1003 -0.0418  0.1698
 7896W        W50990   1.693   7.170  21.745 -0.2063  0.2825  0.0120
 7897W        W50991   0.910  10.395  22.759 -0.0646 -0.2995 -0.1264
 7898W        W50992   0.013  10.315  23.268  0.0337 -0.2443 -0.5783
 7899W        W50993   0.453   9.343  21.417 -0.4953 -0.0879 -0.1931
 7900W        W50994   1.725   7.323  22.549 -0.2074 -0.2209  0.2095
 7901W        W50995   2.317   8.317  22.475  0.1092 -0.0275 -0.0896
 7902W        W50996   1.633   8.399  20.117  0.2623  0.0922 -0.1846
 7903W        W50997   4.215   8.373  23.429  0.2360  0.0813 -0.0236
 7904W        W50998   0.388   8.996  23.823  0.2090  0.1652  0.0182
 7905W        W50999   0.478   8.942  22.627  0.0036 -0.3365 -0.1277
 7906W        W51000   1.432   9.872  23.159  0.0418 -0.0775 -0.1717
 7907W        W51001   3.640   9.745  21.887  0.0452  0.1178  0.0025
 7908W        W51002   1.535   9.115  21.720  0.0421  0.0165 -0.1246
 7909W        W51003  34.503   7.657  23.196 -0.1858 -0.0519 -0.0926
 7910W        W51004   2.001   7.772  23.272 -0.2550  0.6548  0.0463
 7911W        W51005   1.106   8.094  20.169  0.1574  0.1596 -0.1295
 7912W        W51006   2.235   6.536  20.521 -0.1597  0.1173  0.3475
 7913W        W51007   2.341   9.615  20.868  0.0212  0.3090  0.1442
 7914W        W51008   0.074   9.998  24.630 -0.0282 -0.0775  0.1208
 7915W        W51009   0.791   9.889  23.553  0.0136  0.0170 -0.0817
 7916W        W51010  34.531  12.218  22.962  0.1457 -0.0345 -0.0897
 7917W        W51011   2.787   9.457  21.062  0.2124 -0.0343 -0.1391
 7918W        W51012   2.611   8.697  20.661  0.0284  0.3703 -0.0238
 7919W        W51013   2.095  10.711  21.825  0.1241 -0.0634 -0.0786
 7920W        W51014   1.479   7.988  20.478 -0.2562  0.2934 -0.0543
 7921W        W51015   1.986  10.665  21.264  0.1121 -0.1602  0.0747
 7922W        W51016   0.605   9.360  20.571  0.1445 -0.1575 -0.1145
 7923W        W51017   3.699  11.057  20.936 -0.0598  0.0662 -0.0502
 7924W        W51018  33.977  10.180  21.945 -0.1856 -0.2116  0.1430
 7925W        W51019   1.729   9.469  22.868 -0.1241  0.0426 -0.2230
 7926W        W51020   3.351   8.746  19.697  0.0847 -0.0355  0.0974
 7927W        W51021   3.734   9.189  21.955 -0.0159  0.0747 -0.0820
 7928W        W51022   3.609   7.838  19.522 -0.1521 -0.1155  0.1273
 7929W        W51023   3.217  10.082  22.418 -0.0358  0.2706  0.0767
 7930W        W51024   1.753   9.721  21.730  0.0702 -0.1589  0.0754
 7931W        W51025   1.920   7.723  20.309 -0.0177  0.0919 -0.2319
 7932W        W51026   1.221   8.318  21.800 -0.2287 -0.1216  0.0423
 7933W        W51027   4.011   7.517  23.110  0.0733 -0.3741 -0.1121
 7934W        W51028  34.573  10.074  22.876  0.0446 -0.1374 -0.1696
 7935W        W51029   2.355   9.754  19.870  0.0955 -0.0187 -0.0385
 7936W        W51030   0.801   7.332  20.752  0.0523 -0.0144 -0.1591
 7937W        W51031   2.019   8.871  20.942 -0.0650 -0.3789  0.1950
 7938W        W51032   4.605   6.700  22.554 -0.1098 -0.1569  0.1270
 7939W        W51033   1.632   8.547  19.566 -0.0376 -0.1903  0.2909
 7940W        W51034   3.075   7.778  22.243  0.2355 -0.2141 -0.0846
 7941W        W51035   2.385   9.390  21.447  0.1773 -0.2451  0.2281
 7942W        W51036   1.954   9.938  22.168  0.0712 -0.0313  0.1790
 7943W        W51037   2.211  10.399  22.203 -0.0118 -0.1717  0.1090
 7944W        W51038  34.627   6.322  21.025 -0.1647 -0.0329  0.4490
 7945W        W51039   4.665   8.849  22.044  0.5208  0.3196  0.0962
 7946W        W51040   1.738   8.121  21.885  0.0674 -0.0350  0.1786
 7947W        W51041   4.973   7.627  22.176 -0.0450  0.1155  0.1490
 7948W        W51042   0.864   8.949  21.350  0.1092  0.2749 -0.1454
 7949W        W51043   2.864   9.088  21.460  0.1819  0.1255 -0.0788
 7950W        W51044   2.115   8.382  23.171  0.1904  0.0683 -0.2020
 7951W        W51045   0.936   9.102  22.723 -0.1213  0.0734 -0.0150
 7952W        W51046   1.966   9.220  20.107 -0.1354  0.0324 -0.0052
 7953W        W51047   3.994   8.508  22.603  0.0051 -0.1622 -0.0610
 7954W        W51048   1.834   9.962  17.930  0.1913  0.1866 -0.1172
 7955W        W51049   2.197  11.474  24.351 -0.0428  0.0131  0.1484
 7956W        W51050   1.332   8.670  21.368  0.0013 -0.0540  0.4155
 7957W        W51051   2.506   8.283  21.185  0.0364  0.2543 -0.0645
 7958W        W51052   1.636   8.228  21.404  0.0867 -0.1103  0.0192
 7959W        W51053   0.973   8.709  22.985  0.1911  0.1654  0.3799
 7960W        W51054   4.021  10.272  25.200 -0.0780  0.3208 -0.0647
 7961W        W51055   0.428   6.363  21.180  0.1500  0.3044 -0.0248
 7962W        W51056   3.627  10.805  20.520 -0.1242 -0.0140 -0.0988
 7963W        W51057   3.248   9.017  23.065  0.2112 -0.1951 -0.0995
 7964W        W51058   1.702  10.519  19.941  0.1515 -0.2405  0.1578
 7965W        W51059   3.577  10.128  21.469  0.0028 -0.0705 -0.0593
 7966W        W51060   3.329  10.246  20.980  0.6151  0.0754  0.0839
 7967W        W51061  34.095   7.223  21.385 -0.1657 -0.0015  0.0412
 7968W        W51062   3.701  10.708  21.309  0.3441 -0.1885  0.1005
 7969W        W51063   6.032   9.984  22.744  0.1032 -0.1072 -0.0829
 7970W        W51064   3.209   7.023  22.729 -0.1146  0.0349 -0.1302
 7971W        W51065   0.791   8.482  21.456  0.4635 -0.2759 -0.1174
 7972W        W51066  34.534  10.385  21.440  0.1422 -0.0754  0.2111
 7973W        W51067   4.185   6.359  22.359  0.2039 -0.3328  0.1300
 7974W        W51068   2.424   7.564  23.048 -0.4732 -0.1848  0.0303
 7975W        W51069   2.681  11.700  18.526 -0.0621 -0.1026 -0.1099
 7976W        W51070   4.026   7.042  24.595 -0.2386 -0.0872  0.0028
 7977W        W51071   1.933   9.467  22.374  0.0403 -0.1939  0.0417
 7978W        W51072   1.865  11.887  24.686  0.2329 -0.0995  0.3653
 7979W        W51073   0.198   9.510  20.982 -0.1232 -0.0797  0.2008
 7980W        W51074   1.609   9.221  23.280  0.1166  0.0788  0.1255
 7981W        W51075   1.418   9.234  20.455  0.2219  0.1354  0.0065
 7982W        W51076   0.755  10.456  21.824 -0.1386 -0.1460  0.1340
 7983W        W51077   5.348  10.405  21.476 -0.0321 -0.0472  0.3139
 7984W        W51078   1.315   7.757  21.344  0.2170 -0.3952 -0.0534
 7985W        W51079   4.366  10.873  22.460 -0.3732  0.0417 -0.1926
 7986W        W51080   2.518   7.531  21.538 -0.3518 -0.1906  0.1370
 7987W        W51081   3.503   7.237  20.597  0.1542  0.1559  0.0471
 7988W        W51082   2.417   7.599  20.792  0.2678  0.0413  0.4272
 7989W        W51083   0.928   8.723  22.420 -0.4419 -0.1786 -0.1220
 7990W        W51084  34.037   9.285  21.543  0.2995 -0.0421 -0.1624
 7991W        W51085   1.959   9.928  19.407  0.0289  0.0280  0.1810
 7992W        W51086  34.140   9.744  21.939 -0.2295 -0.0679  0.0690
 7993W        W51087   2.536   6.819  22.504 -0.3627 -0.0286  0.0216
 7994W        W51088   0.304   7.814  23.158 -0.0558  0.2295  0.0403
 7995W        W51089   1.629   9.917  22.618 -0.4443 -0.0905  0.2051
 7996W        W51090   0.673   8.125  21.069 -0.0049  0.0012 -0.0291
 7997W        W51091   3.475  10.349  19.625  0.2352 -0.3317 -0.1425
 7998W        W51092   0.993   8.215  22.279  0.1938  0.1603  0.0224
 7999W        W51093   0.025   7.263  21.028 -0.0672 -0.0162 -0.3195
 8000W        W51094   2.571  10.013  20.519  0.0604  0.1801  0.1570
 8001W        W51095   3.292   9.312  21.162 -0.0037  0.1584 -0.0305
 8002W        W51096   1.054   6.303  21.227 -0.0288 -0.0370  0.3095
 8003W        W51097   3.377   9.472  23.965 -0.0145  0.0926 -0.0215
 8004W        W51098   0.935   9.735  20.446  0.2855  0.1350  0.1853
 8005W        W51099   2.401   9.554  23.732  0.0084  0.0512 -0.1592
 8006W        W51100   1.065   8.221  23.144 -0.0522  0.2114 -0.2370
 8007W        W51101  34.604   7.288  19.062 -0.1127 -0.2305 -0.1598
 8008W        W51102   1.785   8.059  22.896 -0.0874  0.3357  0.0295
 8009W        W51103   1.409  10.161  20.762 -0.1089 -0.1515  0.1311
 8010W        W51104   1.772  11.347  20.576  0.4151 -0.0710 -0.2130
 8011W        W51105   0.424   9.450  21.922 -0.0636  0.1927 -0.3718
 8012W        W51106   1.676  11.536  23.650 -0.2609  0.0409  0.0041
 8013W        W51107   0.019   7.502  23.612  0.0037  0.0040 -0.0979
 8014W        W51108   1.882   8.315  20.514 -0.0889  0.1362 -0.1747
 8015W        W51109   2.071   8.810  21.838 -0.0208 -0.1380 -0.1212
 8016W        W51110   2.904  10.415  20.618 -0.2418 -0.0688 -0.0081
 8017W        W51111   5.380   7.798  23.058  0.3740  0.1205 -0.0092
 8018W        W51112   2.350   8.063  20.687  0.1973  0.1922 -0.1692
 8019W        W51113   0.908   8.625  25.429 -0.1011  0.0399 -0.1164
 8020W        W51114   0.816   9.251  22.259 -0.0881  0.2697 -0.1363
 8021W        W51115   3.790   9.172  23.734  0.0688 -0.2588 -0.1494
 8022W        W51116   0.667   5.853  21.543  0.0930 -0.1532 -0.1718
 8023W        W51117   3.120   8.346  21.270  0.1649 -0.1609  0.4392
 8024W        W51118   0.995   9.788  21.426 -0.0934 -0.0144 -0.1550
 8025W        W51119   0.278   7.678  21.232 -0.0800 -0.1986 -0.0269
 8026W        W51120   2.143   8.338  21.644  0.0582 -0.2672 -0.0341
 8027W        W51121   2.402   8.687  22.842 -0.2717 -0.0209 -0.1469
 8028W        W51122   2.251   8.623  20.320  0.0389 -0.0635  0.2817
 8029W        W51123   3.323   9.920  23.752 -0.2443 -0.2077  0.2226
 8030W        W51124   0.854   8.636  20.162  0.2211 -0.0959  0.2293
 8031W        W51125   3.683   9.148  21.471 -0.1023  0.2296 -0.0629
 8032W        W51126   2.839  10.227  24.373  0.0526 -0.2197 -0.2145
 8033W        W51127   2.964  10.695  23.553  0.1626 -0.2711 -0.0869
 8034W        W51128   1.660  10.905  22.207 -0.2964  0.0969 -0.1773
 8035W        W51129   3.015   9.655  22.128 -0.1708 -0.2538 -0.1119
 8036W        W51130   1.418   8.026  23.982 -0.2287  0.1635 -0.1178
 8037W        W51131   0.894  10.002  19.981 -0.0417 -0.2765  0.1192
 8038W        W51132   0.559   9.051  20.916  0.0415 -0.0711  0.2653
 8039W        W51133   1.956   7.990  22.382  0.0222 -0.2250  0.3878
 8040W        W51134   1.233   9.538  21.795 -0.2315 -0.1570  0.3896
 8041W        W51135   2.761   7.451  21.104  0.2930  0.1299 -0.2466
 8042W        W51136   1.730  11.409  24.534 -0.0509  0.0677  0.0220
 8043W        W51137   2.212   7.838  21.985 -0.1040  0.3145  0.0184
 8044W        W51138   1.685   9.800  26.010  0.0709  0.0577 -0.0074
 8045W        W51139   1.166   9.002  23.352  0.0605  0.1500  0.3424
 8046W        W51140   3.114   8.439  23.706 -0.1548 -0.1755 -0.1289
 8047W        W51141   3.990  10.079  23.058  0.0600  0.1970  0.0914
 8048W        W51142  34.499   7.823  25.367 -0.1264  0.1178 -0.0935
 8049W        W51143   4.783  11.248  25.307  0.1415 -0.0629 -0.5351
 8050W        W51144   1.402   5.671  26.459 -0.1433 -0.0206 -0.2503
 8051W        W51145   2.508   9.565  25.127 -0.2691 -0.0907 -0.1030
 8052W        W51146   4.313   9.958  26.115  0.2594 -0.1023 -0.1399
 8053W        W51147   3.316  10.558  22.809 -0.1303  0.5131  0.2006
 8054W        W51148   1.534   7.261  26.794 -0.0224  0.0559  0.0830
 8055W        W51149  34.680  11.229  26.221  0.1001  0.0128 -0.1717
 8056W        W51150   1.063   8.503  24.979 -0.2142 -0.1480  0.3310
 8057W        W51151   1.167   8.648  26.319  0.4366 -0.0315  0.4540
 8058W        W51152   3.441   8.317  26.713  0.1463  0.0019 -0.1430
 8059W        W51153   1.174   9.798  24.617  0.0233 -0.0717  0.3304
 8060W        W51154   2.298   9.586  25.594 -0.1712  0.0394 -0.2301
 8061W        W51155   2.151   7.660  23.738  0.0457  0.2301 -0.0982
 8062W        W51156   2.881  10.430  25.460 -0.1152 -0.2166  0.3461
 8063W        W51157   2.034   7.244  26.834 -0.2934  0.1333  0.0527
 8064W        W51158   2.237   7.043  27.823  0.0357  0.1345  0.0091
 8065W        W51159   1.213  11.109  24.887  0.1401 -0.0552 -0.1909
 8066W        W51160   0.381   8.602  23.445 -0.1171  0.2101 -0.0377
 8067W        W51161   0.294   7.730  26.293  0.0165 -0.4160  0.1437
 8068W        W51162   0.739   8.955  27.556  0.0840  0.2732 -0.2171
 8069W        W51163   4.497   9.174  25.050  0.0099  0.3083  0.0537
 8070W        W51164   4.255  10.762  25.954 -0.2009  0.0925 -0.0638
 8071W        W51165   1.186  10.345  25.238 -0.1264  0.1399  0.1911
 8072W        W51166   3.328  10.748  26.346  0.3250  0.0107 -0.2851
 8073W        W51167   4.388   7.217  27.074 -0.0980 -0.1020  0.4850
 8074W        W51168  34.232   8.674  24.995  0.1480 -0.0899  0.0734
 8075W        W51169   0.297  10.241  25.143  0.1169  0.1032 -0.1881
 8076W        W51170   0.415  11.472  26.546 -0.3359  0.0322 -0.0863
 8077W        W51171   3.087   8.847  25.516  0.0984 -0.0853  0.0208
 8078W        W51172   2.809   9.702  25.967  0.2196  0.2959  0.2120
 8079W        W51173   1.352  12.596  28.676 -0.1980  0.0512 -0.2794
 8080W        W51174   0.648   9.040  24.281  0.1441 -0.0901 -0.3969
 8081W        W51175   3.087   9.178  27.359  0.4094 -0.2607 -0.2607
 8082W        W51176   1.556  11.176  27.876 -0.2392 -0.3894  0.2904
 8083W        W51177   2.435   8.916  26.255  0.3485  0.0344  0.0142
 8084W        W51178   2.649   9.211  25.796 -0.1653  0.0866 -0.2501
 8085W        W51179   1.744  11.461  25.033 -0.3402 -0.1652  0.2315
 8086W        W51180   0.838   9.188  26.228 -0.0989 -0.2453  0.0063
 8087W        W51181   1.958   8.185  26.622 -0.0367 -0.1329  0.0678
 8088W        W51182   1.472  10.868  25.675  0.0187  0.1918 -0.0875
 8089W        W51183   3.700   8.516  27.757 -0.0033 -0.0696 -0.2401
 8090W        W51184   2.603  10.241  23.509  0.2501 -0.1506  0.0571
 8091W        W51185   2.612   8.225  23.838 -0.0088  0.1317 -0.1343
 8092W        W51186   2.173   8.360  24.049  0.0931  0.1406 -0.0846
 8093W        W51187   2.672   8.333  23.194 -0.2221  0.2281  0.3027
 8094W        W51188   1.209   6.899  24.644  0.2861 -0.3216 -0.1756
 8095W        W51189   1.855  10.774  26.113 -0.2481  0.0849 -0.0186
 8096W        W51190   1.442   8.086  25.770 -0.1314  0.1490 -0.4551
 8097W        W51191   1.779  10.486  27.245  0.3647  0.0783  0.2409
 8098W        W51192   2.129   8.710  25.360  0.2451  0.0416 -0.2525
 8099W        W51193   2.070   9.292  26.685  0.2038 -0.3261 -0.1868
 8100W        W51194   1.107  10.670  26.678  0.0861  0.3709 -0.3666
 8101W        W51195   0.214   9.819  23.627 -0.2953  0.4224 -0.0826
 8102W        W51196   2.202   9.841  22.635  0.1282 -0.0398 -0.1766
 8103W        W51197   4.113   9.876  24.568 -0.0388  0.1433 -0.2610
 8104W        W51198   2.718  10.139  25.002  0.0586  0.1504  0.2973
 8105W        W51199   1.493   8.875  24.845 -0.2688 -0.1030 -0.2661
 8106W        W51200   0.008   8.394  25.758 -0.0975  0.3261 -0.1154
 8107W        W51201   1.421  10.147  27.806 -0.3586 -0.0807  0.3649
 8108W        W51202   2.553   7.746  22.545  0.0280 -0.3179  0.2051
 8109W        W51203   3.324  10.219  26.108 -0.0199 -0.0860  0.0139
 8110W        W51204   0.905   9.744  27.775 -0.0477 -0.0743  0.0499
 8111W        W51205   3.473   9.265  24.890 -0.3865  0.1850  0.0393
 8112W        W51206   1.644  10.366  25.813  0.1306  0.0874  0.0845
 8113W        W51207   3.131   8.366  25.606 -0.1000 -0.1472  0.3008
 8114W        W51208   3.190   9.565  22.654 -0.0492  0.2878 -0.0927
 8115W        W51209   3.247   7.674  26.298  0.3330  0.0139 -0.0740
 8116W        W51210   3.601   7.658  25.002  0.1389 -0.3159  0.3118
 8117W        W51211   1.096   9.370  24.285  0.0233 -0.0245 -0.1180
 8118W        W51212   2.142   8.934  25.872  0.0530  0.1447 -0.0358
 8119W        W51213   3.859  10.853  26.337  0.0836 -0.2609 -0.0178
 8120W        W51214   4.145   8.948  23.995  0.0126 -0.2050  0.1269
 8121W        W51215   0.149   9.948  25.539 -0.2491 -0.1925  0.0417
 8122W        W51216   2.709   7.700  26.538 -0.1325  0.0674 -0.0198
 8123W        W51217   1.917  11.237  27.529 -0.1432 -0.1095 -0.1194
 8124W        W51218   1.102  10.517  25.720 -0.0456  0.0372 -0.1311
 8125W        W51219  34.372   9.448  25.981  0.1816 -0.1258 -0.0454
 8126W        W51220  34.419   9.098  24.667  0.1078  0.1574 -0.0972
 8127W        W51221   1.455   6.471  26.308  0.2158  0.3280 -0.0803
 8128W        W51222   1.994   9.713  26.412  0.1511  0.2873 -0.0647
 8129W        W51223   3.899   8.172  25.014 -0.1444 -0.1663  0.0196
 8130W        W51224   0.806   7.822  26.425 -0.0675  0.0093 -0.0803
 8131W        W51225   4.049   7.305  25.042  0.1210  0.2916  0.0884
 8132W        W51226   1.400   9.606  25.118 -0.3469 -0.1061 -0.0429
 8133W        W51227   3.387  12.203  25.346 -0.2441  0.0384 -0.3356
 8134W        W51228   3.570   8.778  24.792  0.2810  0.2028  0.1715
 8135W        W51229   2.119   9.574  23.252 -0.0213 -0.0811  0.1901
 8136W        W51230   1.396   9.414  27.010  0.1104  0.2332  0.0579
 8137W        W51231   1.022   7.477  24.969 -0.2104 -0.1011 -0.0275
 8138W        W51232   1.733   8.135  27.565  0.2264 -0.1908  0.0515
 8139W        W51233   1.126   8.106  26.156  0.4407  0.0423 -0.4878
 8140W        W51234   2.740   8.312  25.973  0.1533 -0.2170  0.0656
 8141W        W51235   1.623   8.267  24.935 -0.1733 -0.2189 -0.1207
 8142W        W51236   2.173   8.938  24.837 -0.1424  0.1528  0.0167
 8143W        W51237   2.560   8.675  25.596 -0.2415 -0.0726 -0.2489
 8144W        W51238  34.438  10.235  23.867  0.0970 -0.0231  0.3311
 8145W        W51239   1.807   8.036  25.414 -0.1987  0.1479 -0.1153
 8146W        W51240   1.588   8.644  25.974 -0.0389  0.1112  0.2437
 8147W        W51241   4.777  10.313  27.368  0.4883 -0.0328 -0.0059
 8148W        W51242   3.535  10.351  24.913 -0.0479  0.1720 -0.0797
 8149W        W51243   1.445   6.754  26.697 -0.3774 -0.1836 -0.1155
 8150W        W51244   0.994   7.653  23.871  0.0807  0.0080 -0.0486
 8151W        W51245   1.859  11.216  25.610  0.0509 -0.0117  0.1462
 8152W        W51246   1.799   9.306  25.020  0.0178 -0.0773  0.0752
 8153W        W51247   1.573   8.015  23.311 -0.1311  0.0043  0.0532
 8154W        W51248   3.200  11.617  26.135  0.0186  0.1028 -0.1009
 8155W        W51249   1.569   9.495  25.639 -0.1437 -0.0386  0.1318
 8156W        W51250   0.998   9.756  27.143  0.0975  0.0856 -0.2911
 8157W        W51251   4.442   7.884  25.494 -0.1422  0.0853  0.0874
 8158W        W51252   3.862   9.100  26.070 -0.1358 -0.1989  0.0417
 8159W        W51253   2.602   8.748  24.846  0.1726 -0.0627 -0.3276
 8160W        W51254   1.594   6.908  22.302  0.3779  0.0387 -0.1436
 8161W        W51255   2.945  11.344  25.296 -0.1295 -0.1419 -0.0162
 8162W        W51256  34.333  11.502  25.219  0.2162 -0.1876  0.0485
 8163W        W51257  33.845   9.820  24.215  0.0087  0.1663  0.0577
 8164W        W51258   0.640  10.679  25.782  0.1176  0.4009  0.1305
 8165W        W51259   2.646   7.611  25.499 -0.0267  0.2015  0.0614
 8166W        W51260   0.565   8.512  27.475  0.0056  0.1827 -0.0824
 8167W        W51261   3.445   8.692  27.224  0.0364 -0.0132 -0.1552
 8168W        W51262   0.874   8.068  25.708 -0.0340 -0.0571 -0.0300
 8169W        W51263   0.370  10.512  28.114 -0.2452  0.1454 -0.2125
 8170W        W51264   3.074   6.949  24.691 -0.2428  0.2371  0.0791
 8171W        W51265   3.527   8.232  23.616  0.2941  0.1212  0.5079
 8172W        W51266   3.178   8.753  26.697  0.0825  0.0091 -0.0423
 8173W        W51267   3.888   9.497  24.210  0.1868  0.0778  0.1647
 8174W        W51268   1.872   7.797  24.139 -0.0388  0.2723 -0.1843
 8175W        W51269   2.322   6.941  23.748 -0.1259 -0.0297  0.1773
 8176W        W51270  34.577   9.890  26.148 -0.1243  0.0068  0.2989
 8177W        W51271   1.414   9.227  23.773 -0.0652  0.1617  0.1737
 8178W        W51272   1.606   8.527  26.516  0.1840 -0.1427 -0.0421
 8179W        W51273   2.189   7.771  25.129 -0.1682 -0.2668  0.0863
 8180W        W51274   3.436  10.938  24.208 -0.0660 -0.1511 -0.1609
 8181W        W51275   0.842   7.862  26.952  0.2627  0.1213 -0.2744
 8182W        W51276   2.645   9.511  28.095  0.0188  0.0173 -0.3353
 8183W        W51277   3.118   9.993  25.218  0.4353  0.3631 -0.1101
 8184W        W51278   3.454   7.442  26.682  0.0927 -0.2075  0.1480
 8185W        W51279   1.411   8.461  24.535 -0.1443 -0.1450  0.0270
 8186W        W51280   2.489   8.151  25.023  0.2105  0.1496 -0.0500
 8187W        W51281   0.091   9.224  25.145 -0.1801  0.4545  0.0587
 8188W        W51282   2.143   9.176  25.322 -0.1320  0.0038 -0.0887
 8189W        W51283   2.567   9.475  24.263 -0.0035 -0.2029 -0.0813
 8190W        W51284   1.354   5.797  27.700  0.0265  0.1982  0.0436
 8191W        W51285   4.292   8.397  28.716  0.0126 -0.3283 -0.0246
 8192W        W51286   2.885   8.828  24.470  0.2066  0.4121  0.1356
 8193W        W51287   2.904   9.562  25.506  0.0342 -0.1873 -0.3485
 8194W        W51288   2.019   7.560  22.821  0.3481  0.2809 -0.0270
 8195W        W51289   2.005   7.402  25.484 -0.1464  0.1378  0.1455
 8196W        W51290   1.831   9.732  26.927 -0.0220 -0.0676  0.3780
 8197W        W51291  33.811  10.997  26.203  0.2377 -0.1357  0.0819
 8198W        W51292   1.870   9.733  25.299  0.0823  0.1791 -0.0008
 8199W        W51293   2.383  10.503  25.342 -0.1137  0.2112  0.0921
 8200W        W51294   1.182   7.055  27.128  0.0530  0.0475 -0.0247
 8201W        W51295   3.453   8.784  23.439  0.1359 -0.0839  0.1377
 8202W        W51296   2.116  10.068  24.994 -0.0067 -0.0343  0.4008
 8203W        W51297   1.360   9.127  25.379 -0.0021 -0.0903 -0.1886
 8204W        W51298   2.383   7.115  25.396 -0.0037  0.2686  0.1191
 8205W        W51299   0.934  10.150  26.536  0.0255  0.1804  0.1866
 8206W        W51300   2.111   9.949  24.396  0.0998  0.2838  0.1730
 8207W        W51301   2.151   9.531  27.269  0.2193 -0.0948 -0.1750
 8208W        W51302   1.174  10.077  26.042  0.0962  0.1863 -0.4002
 8209W        W51303   4.212   6.975  26.688  0.1116  0.0328  0.1453
 8210W        W51304  33.470   9.483  24.480  0.1803 -0.1180  0.1251
 8211W        W51305   1.168   8.822  23.926 -0.1783 -0.1547 -0.0348
 8212W        W51306   0.259   8.141  23.548  0.0187 -0.5265  0.2318
 8213W        W51307   3.154  10.029  24.718 -0.0783  0.2006  0.1376
 8214W        W51308   3.769  10.784  25.070 -0.0749 -0.0245  0.1299
 8215W        W51309   1.492   8.320  27.025  0.2828  0.0486  0.0729
 8216W        W51310   2.752   7.860  26.003 -0.2283 -0.4010  0.1886
 8217W        W51311   0.388   9.098  26.310  0.0912 -0.1597  0.0774
 8218W        W51312   2.471   8.066  26.371  0.0080  0.0929  0.3249
 8219W        W51313   4.637   7.754  24.225 -0.1807 -0.1776  0.1654
 8220W        W51314   2.335   9.929  25.994 -0.2266 -0.0697 -0.2159
 8221W        W51315   2.346   8.588  27.206  0.1624 -0.2106 -0.0383
 8222W        W51316  34.254   7.615  22.444 -0.1173 -0.2627 -0.0770
 8223W        W51317   3.659   9.522  25.754 -0.2166  0.0696 -0.0597
 8224W        W51318   1.929   8.878  24.048 -0.1416 -0.4598 -0.1284
 8225W        W51319   0.976   9.040  25.068 -0.1465 -0.2734 -0.2195
 8226W        W51320   1.246  10.480  27.219  0.1872 -0.0536 -0.0874
 8227W        W51321   1.089   8.850  24.551  0.0887 -0.2155  0.2370
 8228W        W51322   1.338  12.204  24.778 -0.1042 -0.0437  0.3029
 8229W        W51323   0.695   7.283  27.063 -0.0401  0.0641 -0.2038
 8230W        W51324   3.316   9.691  26.033  0.3097 -0.1499 -0.1220
 8231W        W51325   1.800   8.230  26.125 -0.3672  0.0948  0.0281
 8232W        W51326   1.712   6.538  25.495 -0.0714 -0.0893  0.3288
 8233W        W51327   1.363   9.153  26.023  0.2382 -0.1232  0.2774
 8234W        W51328   4.273   8.942  26.398  0.1180 -0.0208 -0.2023
 8235W        W51329   2.615   8.163  25.507 -0.0929 -0.0282  0.1741
 8236W        W51330   1.591  10.610  28.009  0.0386  0.3815 -0.3095
 8237W        W51331   1.176   8.135  25.327  0.1979 -0.2026  0.0963
 8238W        W51332   4.353  10.621  25.458  0.0473 -0.1822 -0.4788
 8239W        W51333   3.175   8.302  27.137  0.1600  0.2393 -0.1278
 8240W        W51334   0.690   9.674  26.355 -0.2989 -0.0826  0.1394
 8241W        W51335  33.746  10.774  24.821  0.1586 -0.3461  0.0410
 8242W        W51336   0.964   9.949  25.558 -0.0278 -0.0592 -0.1658
 8243W        W51337   2.448   9.658  26.731  0.0550 -0.0266  0.0804
 8244W        W51338   1.428  10.005  25.543 -0.1945  0.0780  0.3506
 8245W        W51339   1.969  10.411  22.650  0.0058  0.0570  0.1528
 8246W        W51340   0.183   8.410  27.047 -0.0700 -0.1319 -0.2057
 8247W        W51341   4.554   7.255  24.219 -0.0708 -0.0537 -0.0879
 8248W        W51342   2.870   9.775  23.619  0.1431 -0.0329 -0.1144
 8249W        W51343   2.417   8.400  24.466  0.1518 -0.0615 -0.0772
 8250W        W51344   3.444   8.803  25.860  0.0737 -0.0134 -0.1558
 8251W        W51345   3.473   9.051  24.191  0.2340 -0.0457  0.2475
 8252W        W51346   2.753   7.025  27.883  0.1221 -0.3299 -0.0434
 8253W        W51347   1.735   6.199  26.952  0.4594 -0.5030  0.0625
 8254W        W51348   3.193   9.256  25.799 -0.0684  0.0527 -0.2889
 8255W        W51349  34.514   8.284  24.879 -0.1614  0.1068  0.1585
 8256W        W51350   2.359  11.929  30.279  0.1614  0.2139 -0.3524
 8257W        W51351   1.543  10.417  26.780  0.1287  0.1847 -0.0327
 8258W        W51352   2.698   7.506  24.997  0.2639  0.3570  0.0593
 8259W        W51353   2.323   8.926  24.386 -0.1960 -0.1006  0.1211
 8260W        W51354   1.132   8.488  25.845 -0.0389  0.0505  0.3817
 8261W        W51355   3.816  11.533  26.905  0.2202 -0.0082 -0.2888
 8262W        W51356   1.270   9.287  24.751 -0.1534  0.0689  0.1296
 8263W        W51357   3.835   8.406  24.543  0.0554 -0.0569 -0.2192
 8264W        W51358   1.421   9.995  27.068 -0.0203  0.1697 -0.0778
 8265W        W51359   3.616   9.959  25.531 -0.2271 -0.0959  0.2090
 8266W        W51360   1.936   9.356  25.974  0.2553  0.2199  0.0672
 8267W        W51361   0.162  10.393  25.757  0.0413  0.2848  0.0185
 8268W        W51362   1.605   9.586  27.463 -0.0971  0.1598  0.0905
 8269W        W51363   3.474   9.924  26.486 -0.0265  0.4518 -0.0986
 8270W        W51364   2.058   8.451  24.940 -0.1579  0.1888  0.0317
 8271W        W51365   2.815   8.609  26.999  0.2638  0.0152 -0.0837
 8272W        W51366   2.901   7.411  26.069  0.1229  0.3082 -0.1314
 8273W        W51367   1.413   7.751  27.738  0.2207 -0.1194  0.0518
 8274W        W51368  34.488   6.527  27.998  0.0330  0.2701  0.2089
 8275W        W51369   3.995  11.774  27.314 -0.1918 -0.0506  0.0497
 8276W        W51370   3.815   8.986  23.155 -0.0374  0.0883  0.2178
 8277W        W51371   4.084   8.161  27.540 -0.2055  0.0229  0.0838
 8278W        W51372   2.075   9.167  23.600 -0.1118  0.1411  0.1526
 8279W        W51373   2.975   9.565  24.865  0.0937 -0.1046 -0.0190
 8280W        W51374   0.764  10.470  24.977  0.2357  0.0932  0.2184
 8281W        W51375   3.599   8.332  25.824 -0.0470 -0.0966  0.0904
 8282W        W51376   1.722   6.996  25.445 -0.0420 -0.2471  0.0622
 8283W        W51377   2.258   8.308  25.912  0.2390 -0.1978 -0.2288
 8284W        W51378   2.180  10.428  23.897  0.1658 -0.2640 -0.0602
 8285W        W51379   2.234  10.953  25.752 -0.3817 -0.1830 -0.1506
 8286W        W51380   3.052   9.295  24.394  0.0164 -0.1363  0.1843
 8287W        W51381   0.163   7.267  24.579  0.1332  0.2164  0.1844
 8288W        W51382  34.470  10.241  26.567 -0.0229 -0.0705 -0.1293
 8289W        W51383   1.506   8.936  24.297 -0.1277 -0.0227 -0.1477
 8290W        W51384   2.460   9.085  23.138 -0.2729 -0.0303 -0.1334
 8291W        W51385   2.516  10.091  26.475 -0.0247  0.5898 -0.4396
 8292W        W51386   3.963   8.287  26.563 -0.0580 -0.1089 -0.2196
 8293W        W51387   1.867   8.690  23.610  0.0117 -0.0430  0.0661
 8294W        W51388   3.056   7.681  26.908 -0.0092  0.2735  0.0734
 8295W        W51389   0.965  10.772  24.494 -0.1816  0.1103 -0.0496
 8296W        W51390   2.251   7.716  24.627  0.3141  0.0002  0.0446
 8297W        W51391   1.219  10.978  26.280  0.0597 -0.2873 -0.2837
 8298W        W51392   0.541   8.768  25.043 -0.2799  0.3891  0.2582
 8299W        W51393   1.602  10.845  26.573  0.1138  0.1437  0.1029
 8300W        W51394   2.433   7.810  27.072  0.0253 -0.0824 -0.1735
 8301W        W51395   2.612   9.963  25.475 -0.1447  0.3264 -0.1640
 8302W        W51396   1.613   9.041  26.765 -0.1657  0.0643  0.1466
 8303W        W51397   3.334   9.032  26.292  0.0707  0.2083  0.1683
 8304W        W51398   2.292  10.667  28.327  0.0354 -0.1804  0.2887
 8305W        W51399   1.376   7.703  26.371 -0.0779  0.0934 -0.0664
 8306W        W51400   3.773  11.917  25.642  0.1271 -0.3028  0.0536
 8307W        W51401   3.976  10.666  26.879  0.0822 -0.0593 -0.1991
 8308W        W51402   0.552   9.770  25.305  0.1016 -0.0178 -0.6026
 8309W        W51403  34.523   8.327  26.747  0.4102 -0.2026  0.0137
 8310W        W51404   1.920   8.592  26.884  0.1875  0.1038 -0.0178
 8311W        W51405   2.410   9.451  26.267 -0.1086  0.1476  0.0132
 8312W        W51406   1.433   7.832  22.353 -0.0223  0.0488  0.1278
 8313W        W51407   4.238   9.931  23.515  0.2266 -0.0914  0.0070
 8314W        W51408   2.134  10.321  27.698 -0.0373 -0.0850  0.2053
 8315W        W51409   1.144   9.290  27.491  0.0827  0.1836 -0.0872
 8316W        W51410   0.735  11.676  24.276 -0.0339 -0.1716 -0.1365
 8317W        W51411   3.139   8.886  23.883  0.0267  0.0333 -0.1445
 8318W        W51412   2.469  10.007  23.956  0.2104  0.1229 -0.0113
 8319W        W51413   3.061  11.165  25.879 -0.2334 -0.2332 -0.1268
 8320W        W51414   1.901   8.614  24.490 -0.1119  0.0232 -0.1533
 8321W        W51415   0.472   9.645  24.403  0.2930 -0.2318  0.0958
 8322W        W51416   1.653  10.241  23.498 -0.0211 -0.0103 -0.1608
 8323W        W51417   3.533  10.988  25.654 -0.2053 -0.1888 -0.1056
 8324W        W51418   1.110  10.870  25.321 -0.3426 -0.1184  0.0772
 8325W        W51419   3.135   9.717  27.134  0.2560  0.0908  0.0154
 8326W        W51420   2.566   7.074  24.886  0.0171  0.3034  0.0437
 8327W        W51421   3.407   9.619  24.582 -0.1390  0.2342  0.1536
 8328W        W51422   3.321   7.978  24.598  0.1222 -0.1441  0.0934
 8329W        W51423   1.987  10.202  26.699  0.2791 -0.2428 -0.0069
 8330W        W51424   2.201   8.551  26.362  0.0861 -0.1958  0.0216
 8331W        W51425   1.461   8.538  23.091 -0.1470  0.1192 -0.0144
 8332W        W51426   1.824   8.636  27.413  0.0172 -0.0367 -0.0342
 8333W        W51427   4.523   7.942  27.788 -0.1283 -0.2348 -0.0133
 8334W        W51428  33.730  12.406  28.063  0.2380 -0.0735  0.0543
 8335W        W51429   3.008  11.198  26.403 -0.0422  0.3212  0.1582
 8336W        W51430  33.717   9.180  24.154 -0.0650  0.0096 -0.6188
 8337W        W51431   0.724   8.699  26.113 -0.0519 -0.0503  0.0447
 8338W        W51432   3.388   7.385  25.916  0.1812 -0.1724 -0.1155
 8339W        W51433   2.165   9.535  24.769  0.0262  0.1164 -0.0483
 8340W        W51434   2.704   9.069  25.291 -0.2819 -0.2077  0.0287
 8341W        W51435   3.207  10.681  25.838  0.1972 -0.1139  0.1109
 8342W        W51436   0.797  11.268  27.086  0.2776  0.2494 -0.3874
 8343W        W51437   1.839  10.230  26.207  0.2798 -0.0796  0.2426
 8344W        W51438   0.069   8.167  22.898 -0.1229  0.0389  0.1442
 8345W        W51439   3.020   7.922  24.989  0.0947  0.0159 -0.0111
 8346W        W51440   1.039   9.552  25.959  0.0662  0.0416  0.0310
 8347W        W51441   2.946   8.507  25.153  0.0816  0.4369 -0.3816
 8348W        W51442   0.452   9.008  25.734  0.6269  0.3558 -0.0763
 8349W        W51443   4.823   9.349  25.679  0.0520  0.2999  0.0369
 8350W        W51444   3.940   9.537  26.255 -0.3687 -0.0711 -0.1321
 8351W        W51445   0.300   6.309  27.166  0.2471  0.3360  0.1556
 8352W        W51446   2.951   8.331  24.686  0.2396  0.0908  0.0228
 8353W        W51447   3.492   8.967  27.628 -0.0162  0.1553  0.3102
 8354W        W51448   3.000   9.198  23.397 -0.0759  0.2412 -0.1157
 8355W        W51449   2.285  10.329  28.713  0.1994 -0.1231 -0.0082
 8356W        W51450   0.533   8.467  23.918 -0.3641  0.0414  0.3316
 8357W        W51451   1.904   7.224  23.854 -0.0718 -0.0663  0.2468
 8358W        W51452   0.220   8.784  24.312  0.0030  0.1613  0.1790
 8359W        W51453   1.894   8.923  26.305 -0.2609 -0.1078 -0.0604
 8360W        W51454   2.300  10.487  25.903  0.1238  0.0006 -0.0608
 8361W        W51455   1.178   6.679  25.388 -0.0107 -0.0176 -0.1827
 8362W        W51456   3.434  10.095  22.939  0.0449 -0.4935 -0.2050
 8363W        W51457   3.326   9.555  25.315  0.0261  0.4122 -0.0294
 8364W        W51458   1.760  10.532  24.172  0.2536 -0.2616  0.0496
 8365W        W51459   3.880   9.602  25.317 -0.0583 -0.1176 -0.0289
 8366W        W51460   2.796  10.041  26.911 -0.4305 -0.0575  0.0581
 8367W        W51461   0.424   7.972  25.563  0.1910 -0.1477  0.0931
 8368W        W51462   3.355  11.506  26.626  0.2321 -0.0265  0.0958
 8369W        W51463   3.671  10.419  26.524  0.0299  0.1307 -0.4039
 8370W        W51464   3.075   8.911  24.888  0.4224 -0.1358  0.4331
 8371W        W51465   0.629   8.645  24.574  0.3171  0.4279 -0.1308
 8372W        W51466   1.348  11.653  24.812  0.3237 -0.2232  0.0864
 8373W        W51467   4.239   7.446  26.486 -0.2062 -0.2688 -0.0188
 8374W        W51468   3.970   7.750  27.314 -0.3599 -0.2280 -0.1809
 8375W        W51469   1.747   9.623  23.590  0.1449  0.0008 -0.2035
 8376W        W51470   4.367   7.950  26.456 -0.0277 -0.2454 -0.2465
 8377W        W51471   2.025  10.098  25.574  0.3142 -0.1025 -0.1909
 8378W        W51472   2.878  10.176  27.470  0.0354  0.0008 -0.0599
 8379W        W51473   1.655   9.918  24.798  0.2850  0.1190 -0.0209
 8380W        W51474   2.395   8.927  26.764  0.0331  0.1957 -0.0275
 8381W        W51475   1.002   7.830  24.396 -0.1609 -0.0911 -0.2352
 8382W        W51476   0.792   9.432  24.732  0.1223 -0.1690 -0.1163
 8383W        W51477   4.132   9.730  25.709  0.0249 -0.3144 -0.1476
 8384W        W51478   1.542   9.579  24.425 -0.2850 -0.0954  0.0027
 8385W        W51479   4.378   8.943  26.897 -0.0125 -0.1064  0.0518
 8386W        W51480   1.486   7.490  25.237 -0.0386 -0.0635  0.1663
 8387W        W51481   3.306   6.580  24.999  0.1038  0.3307  0.0938
 8388W        W51482   3.967   7.705  25.403 -0.0781  0.3347 -0.1526
 8389W        W51483   1.385   8.915  27.180 -0.0576 -0.1960 -0.0385
 8390W        W51484  34.006   8.569  23.207 -0.1540  0.1467  0.0182
 8391W        W51485   1.563   9.461  26.450 -0.1391 -0.2833  0.1921
 8392W        W51486   0.695   8.226  25.215 -0.0670  0.1555 -0.1542
 8393W        W51487   0.640   6.772  27.085  0.0010  0.3615 -0.0551
 8394W        W51488   1.178   8.105  26.658  0.2542  0.3277 -0.0729
 8395W        W51489   1.218   9.137  26.513  0.1805  0.1328  0.0188
 8396W        W51490  34.676   7.772  24.423 -0.0849  0.1268  0.1851
 8397W        W51491   4.084  10.236  25.733 -0.2057 -0.1430  0.2875
 8398W        W51492   1.022   7.638  25.425  0.0702 -0.0374 -0.2547
 8399W        W51493   1.589   7.450  25.738 -0.3397 -0.1384  0.2249
 8400W        W51494   1.915  10.639  25.536  0.1114  0.1489 -0.0602
 8401W        W51495   3.582   9.885  24.994 -0.1856 -0.2705 -0.0068
 8402W        W51496   2.868   7.248  23.053  0.1963 -0.0641  0.1586
 8403W        W51497   3.779  10.176  26.992 -0.2453 -0.0414 -0.0408
 8404W        W51498   1.221   9.605  23.471 -0.0411 -0.0855  0.1205
 8405W        W51499   2.394   8.393  26.794  0.1131  0.2163 -0.0865
 8406W        W51500   1.920   7.261  26.096 -0.2153 -0.0088 -0.2233
 8407W        W51501   1.051   7.287  23.058 -0.1282 -0.0561  0.0721
 8408W        W51502   3.952   8.747  25.718  0.0278 -0.2914 -0.2053
 8409W        W51503   4.407  11.069  25.020 -0.0872  0.0707 -0.0253
 8410W        W51504   3.595   9.983  24.208 -0.1965 -0.2671  0.1520
 8411W        W51505   1.397  10.807  27.619 -0.1607  0.4363  0.0364
 8412W        W51506   2.633   9.085  28.444 -0.0180 -0.3938  0.0074
 8413W        W51507   1.554   7.824  26.909  0.1612 -0.2309  0.0281
 8414W        W51508   2.818   9.238  23.917 -0.1023  0.0777  0.0527
 8415W        W51509   1.549   9.969  26.493  0.0023 -0.1150  0.2002
 8416W        W51510   4.144   9.099  22.704 -0.0655 -0.0582  0.0470
 8417W        W51511   4.911   7.627  25.627  0.1691 -0.2368 -0.1634
 8418W        W51512   1.961   9.552  24.093 -0.2266  0.2301 -0.2271
 8419W        W51513   0.648   6.184  27.895  0.0889  0.0896 -0.0177
 8420W        W51514   0.241   8.721  26.652  0.3026  0.2918 -0.1417
 8421W        W51515   3.573  11.038  26.706 -0.0742 -0.3682 -0.1596
 8422W        W51516   2.256   7.834  25.679 -0.0390  0.2302 -0.3139
 8423W        W51517   3.522   8.008  25.366 -0.1279  0.0558  0.1828
 8424W        W51518   2.394  10.339  24.623  0.3182 -0.1050  0.1227
 8425W        W51519   1.834   9.196  24.496 -0.0598 -0.1062 -0.3396
 8426W        W51520   4.218   7.549  24.511 -0.1657  0.0651 -0.1697
 8427W        W51521   2.975   9.327  26.823 -0.0914  0.2706  0.0796
 8428W        W51522   1.291  11.505  25.933  0.0784 -0.2210  0.0108
 8429W        W51523   2.579   9.554  28.578 -0.1829 -0.1603  0.2301
 8430W        W51524   1.454   8.611  25.252  0.0543  0.1471  0.0295
 8431W        W51525   4.357   7.991  23.129 -0.0424  0.0513 -0.1254
 8432W        W51526   4.196  11.789  26.781 -0.2015 -0.0192  0.1630
 8433W        W51527   3.096   9.654  28.778 -0.1568 -0.0145 -0.1970
 8434W        W51528   2.060  10.182  28.285 -0.1896  0.0026  0.1115
 8435W        W51529   2.943   8.754  25.992 -0.0819  0.1668  0.2714
 8436W        W51530   0.383   6.237  25.249 -0.1962  0.1794 -0.3697
 8437W        W51531   1.330   9.715  23.952  0.0357 -0.1766  0.1839
 8438W        W51532   1.726   8.997  25.663  0.3360  0.2653 -0.2247
 8439W        W51533   3.692   8.588  25.280  0.2272 -0.0507  0.0885
 8440W        W51534   0.533   8.440  25.660  0.1631 -0.1212 -0.2171
 8441W        W51535   3.193   7.420  24.861 -0.1163  0.1631 -0.1574
 8442W        W51536   1.860  10.287  29.108  0.0832 -0.0095 -0.2500
 8443W        W51537   2.736  10.301  25.957  0.0370 -0.1074  0.3948
 8444W        W51538   1.459  10.680  28.945  0.0283 -0.0431 -0.0899
 8445W        W51539  34.401   9.650  26.506 -0.0618 -0.3705 -0.1547
 8446W        W51540   2.738   6.923  26.251 -0.0095 -0.0802 -0.0024
 8447W        W51541   4.324   8.977  28.778  0.1988  0.1491 -0.0395
 8448W        W51542  34.443   7.531  28.412  0.1085  0.2241 -0.0044
 8449W        W51543   2.636   9.735  27.261 -0.1862  0.3237  0.0579
 8450W        W51544  34.345   6.351  29.854 -0.0063 -0.1112 -0.0301
 8451W        W51545   1.050  10.162  29.431  0.0435  0.0199  0.2793
 8452W        W51546   3.393  10.474  29.156  0.1930 -0.1891  0.1058
 8453W        W51547   2.862   9.300  26.304  0.1171  0.1595  0.2221
 8454W        W51548   1.818   9.606  29.084 -0.1871  0.1020  0.0082
 8455W        W51549   1.721  10.658  29.411  0.0507  0.0139 -0.2070
 8456W        W51550   0.910   7.346  27.998 -0.0518 -0.3162 -0.0173
 8457W        W51551   0.612   9.392  29.500 -0.0617  0.0928  0.1810
 8458W        W51552   1.818  10.244  30.925  0.2258 -0.1199 -0.3874
 8459W        W51553   0.638  10.186  27.862 -0.2597 -0.1049 -0.3408
 8460W        W51554   1.199   8.642  30.420  0.2878 -0.2566 -0.0164
 8461W        W51555   0.851   8.579  28.654  0.2479 -0.2021  0.2962
 8462W        W51556   3.887  11.405  30.176 -0.0536  0.0852 -0.0054
 8463W        W51557   0.630   8.475  30.013 -0.4239 -0.1607 -0.0079
 8464W        W51558   1.960   7.968  30.620  0.0763  0.0350 -0.0445
 8465W        W51559   1.793   8.582  27.982 -0.2315  0.1179 -0.1153
 8466W        W51560   2.667   9.018  27.164 -0.4108 -0.4345  0.1083
 8467W        W51561   0.509   6.987  30.943  0.2311  0.1076  0.0503
 8468W        W51562   0.413   9.388  29.025 -0.1422  0.0831 -0.0079
 8469W        W51563   2.727   9.631  30.006 -0.0508 -0.0557  0.0958
 8470W        W51564   1.741   8.523  29.583  0.1314  0.0418 -0.0673
 8471W        W51565  34.165  10.303  28.567 -0.0559 -0.0330  0.2176
 8472W        W51566   2.109  10.237  29.561  0.1331 -0.0526 -0.0329
 8473W        W51567   1.964   7.656   0.172 -0.1193  0.0200 -0.0047
 8474W        W51568   0.114   9.672  27.357  0.0050  0.0402  0.2220
 8475W        W51569  34.533   9.734  28.238  0.2233  0.0696 -0.0988
 8476W        W51570   1.748   9.617  28.457  0.2153 -0.2184  0.0879
 8477W        W51571   5.020   9.871  28.841 -0.2682  0.1753 -0.0259
 8478W        W51572   3.915   9.935  29.560  0.0761 -0.0530 -0.1795
 8479W        W51573   0.892  10.376  29.980  0.1815 -0.0780  0.2316
 8480W        W51574   0.315  10.593  26.221  0.2005 -0.1761  0.0480
 8481W        W51575   1.831  11.611  30.556 -0.1556 -0.4935 -0.1138
 8482W        W51576   0.075  11.751  28.914 -0.0035  0.2958  0.0733
 8483W        W51577  34.509   9.638  29.321 -0.1192  0.2200  0.1447
 8484W        W51578   1.580   8.945  28.288 -0.0436  0.3113 -0.0734
 8485W        W51579   1.573  12.122  28.439  0.2246 -0.0500 -0.0958
 8486W        W51580   0.403   9.372  29.999  0.1574 -0.1630  0.2062
 8487W        W51581   1.268   8.991  30.812 -0.1670  0.0933  0.0005
 8488W        W51582  34.299   9.253  29.600 -0.4233  0.0639  0.1847
 8489W        W51583   3.964   8.035   0.149 -0.0264 -0.1674 -0.0660
 8490W        W51584   0.664  10.315  29.123  0.0647  0.0313 -0.0062
 8491W        W51585   3.471   7.504  27.162 -0.3666  0.2436 -0.1142
 8492W        W51586   2.012   8.186  27.151 -0.0548 -0.1600 -0.2619
 8493W        W51587   2.976   8.551  28.828  0.2819 -0.0005 -0.0733
 8494W        W51588   2.627   7.611  28.770 -0.4663  0.1368 -0.1957
 8495W        W51589   0.214  10.947  29.424  0.2790  0.5384 -0.2156
 8496W        W51590   1.233   9.087  29.501 -0.4138  0.1911  0.0622
 8497W        W51591   1.922   9.319  29.926  0.2521  0.1949 -0.0958
 8498W        W51592   1.507   9.810  29.426  0.0852  0.1234  0.1161
 8499W        W51593   3.112   8.688  31.158  0.0848 -0.1865  0.3472
 8500W        W51594   1.034  11.736  29.424  0.1193  0.0075  0.0003
 8501W        W51595   0.489   8.941  29.227  0.1560 -0.4834 -0.0774
 8502W        W51596   2.457   9.926  27.861  0.0464 -0.0943 -0.1898
 8503W        W51597   4.422  10.039  28.788 -0.1305 -0.0096  0.0024
 8504W        W51598   2.746  10.520  28.917  0.0648 -0.0267 -0.0584
 8505W        W51599  33.662   7.944  28.639 -0.0028 -0.1004  0.0244
 8506W        W51600  34.366   9.714  31.939  0.0764  0.1836  0.0958
 8507W        W51601   0.098   9.558  30.427  0.1335  0.0751  0.1654
 8508W        W51602   0.920   6.901  26.651 -0.0027  0.0903  0.1712
 8509W        W51603   3.282  10.409  30.793  0.1878  0.0094  0.0902
 8510W        W51604  34.027  11.755  28.675  0.0607  0.0158 -0.1567
 8511W        W51605   3.852   8.127  28.410  0.1773  0.1821 -0.2337
 8512W        W51606   0.918  11.483  28.986 -0.1072 -0.2855  0.0831
 8513W        W51607   3.397   9.056  29.398 -0.1070 -0.2061  0.1182
 8514W        W51608   3.465   9.463  26.462 -0.1502  0.0417  0.0143
 8515W        W51609   1.572   8.811  29.209 -0.1261  0.1573  0.2125
 8516W        W51610   3.097   7.745  28.377 -0.0062  0.0603  0.1119
 8517W        W51611   0.519   8.895  27.080  0.0007  0.1377 -0.0723
 8518W        W51612   1.237   8.596  28.212 -0.1279 -0.1234  0.1054
 8519W        W51613   1.467  10.442  30.270 -0.1848 -0.2751  0.1462
 8520W        W51614   3.028   8.688  27.525  0.2437  0.2041 -0.2121
 8521W        W51615  34.667  11.419  28.175 -0.2688  0.0495  0.1322
 8522W        W51616   1.001   7.664  29.255 -0.0720 -0.0139 -0.0485
 8523W        W51617   1.533   9.218  31.202  0.0792  0.0174  0.1078
 8524W        W51618   1.208   9.040  27.965  0.1732  0.0326  0.1163
 8525W        W51619  33.288   9.939  30.255  0.2992  0.0805  0.0879
 8526W        W51620   0.965  11.062  27.627  0.1164  0.2321  0.0837
 8527W        W51621   0.142   8.514  30.070 -0.0218 -0.4704 -0.2146
 8528W        W51622   0.329   9.917  29.196  0.1165 -0.1786  0.2708
 8529W        W51623   3.152   8.228  27.705 -0.1093  0.2460 -0.3568
 8530W        W51624  34.461   8.100  31.570  0.0339  0.2750  0.0578
 8531W        W51625   2.180   8.105  29.305 -0.3174 -0.2625  0.3097
 8532W        W51626   0.752  10.168  28.371 -0.0881 -0.0029 -0.2193
 8533W        W51627   3.311  11.049  27.237 -0.0246 -0.1848  0.3700
 8534W        W51628   4.563   8.182  28.231  0.0049  0.2775  0.1950
 8535W        W51629   3.278  10.289  26.838 -0.0769  0.1586  0.3514
 8536W        W51630  34.564   8.500  31.040 -0.0103 -0.0498 -0.1144
 8537W        W51631   0.968   8.820  29.076 -0.0517  0.0834  0.1423
 8538W        W51632   0.553   6.475  30.974 -0.0373  0.0393  0.0725
 8539W        W51633  34.278   6.311  30.690 -0.3356 -0.0530 -0.1695
 8540W        W51634   3.693   8.644  31.313  0.0257 -0.0492 -0.0356
 8541W        W51635   0.567   6.793  27.957  0.0200 -0.1934 -0.3076
 8542W        W51636   1.818   8.081  29.981 -0.1654 -0.2449  0.1240
 8543W        W51637   1.230   8.157  28.444 -0.3560 -0.0828  0.2568
 8544W        W51638  34.546   8.046  28.481  0.2768  0.0313  0.1669
 8545W        W51639   3.840   5.610  31.496 -0.1477 -0.0570 -0.0751
 8546W        W51640   2.094   9.113  29.171  0.2260 -0.1169  0.0059
 8547W        W51641   3.274  10.476  31.293 -0.1180 -0.0759  0.0540
 8548W        W51642   2.417  10.678  29.292 -0.1290 -0.1424  0.3530
 8549W        W51643  34.280   7.547  30.861 -0.0937 -0.0323 -0.2293
 8550W        W51644  34.208   7.687  27.837 -0.2377  0.2435  0.1866
 8551W        W51645   0.838  10.813  28.110  0.2593 -0.0575 -0.0585
 8552W        W51646   1.738   9.325  29.479 -0.2868 -0.0614  0.1085
 8553W        W51647   0.656   9.388  27.352  0.1877 -0.0298 -0.1142
 8554W        W51648   4.429  11.627  29.266  0.3503 -0.1400  0.3944
 8555W        W51649   1.179  10.200  28.963 -0.0134 -0.0724 -0.0026
 8556W        W51650  33.806   9.682  30.635 -0.0687 -0.0668 -0.1120
 8557W        W51651   2.094   8.925  29.660 -0.0345 -0.1575 -0.2442
 8558W        W51652   2.596   7.848  30.154  0.0072 -0.1403 -0.1792
 8559W        W51653   3.555   9.064  28.232  0.1164 -0.1026 -0.0299
 8560W        W51654   0.410   7.293  27.878  0.1267  0.3802 -0.1027
 8561W        W51655   3.757  10.880  29.863  0.0591 -0.0969 -0.0969
 8562W        W51656   1.327  10.863  28.324  0.1301  0.0363  0.2017
 8563W        W51657   0.882   9.287  28.759 -0.1855 -0.0799  0.1345
 8564W        W51658   2.970   9.249  29.667 -0.1823 -0.1763  0.0947
 8565W        W51659   2.166   7.512  28.654  0.2744  0.1197  0.0458
 8566W        W51660   0.570   9.236  31.283 -0.0570  0.0094  0.0403
 8567W        W51661   1.997   8.255   0.087  0.2463 -0.2766 -0.3719
 8568W        W51662   1.433   7.464  27.224  0.0412 -0.1919  0.1293
 8569W        W51663   0.409   9.501  30.861  0.0384 -0.0848 -0.1868
 8570W        W51664   3.380   8.140  28.600 -0.3888 -0.0300 -0.0202
 8571W        W51665   3.037   8.212  28.202 -0.1588  0.1041  0.0429
 8572W        W51666   2.541   7.185   0.348  0.1348  0.0054  0.3160
 8573W        W51667   2.589   9.098  29.324 -0.1319 -0.3990  0.3501
 8574W        W51668   4.212   7.817  26.908  0.2874 -0.0826 -0.0511
 8575W        W51669   1.813   7.080  27.275 -0.1126 -0.0324  0.1432
 8576W        W51670   0.435  11.523  30.227  0.0684 -0.0060  0.0242
 8577W        W51671   3.596   9.950  28.822 -0.1580 -0.1228  0.0603
 8578W        W51672   2.223   9.279  28.672  0.1915 -0.2767 -0.0383
 8579W        W51673   1.974   7.624  27.142  0.0524  0.0924  0.2185
 8580W        W51674   3.206   9.817  28.138 -0.1559 -0.1848 -0.1172
 8581W        W51675   0.918  11.092  28.600 -0.0083  0.1707 -0.0592
 8582W        W51676   2.829  10.164  30.653  0.2791 -0.1440 -0.0977
 8583W        W51677   3.607  10.756  28.048  0.1577 -0.0371  0.0371
 8584W        W51678   2.198   7.818  27.594  0.0732  0.1231 -0.1089
 8585W        W51679   2.462   7.443  27.432 -0.2745 -0.2872  0.0616
 8586W        W51680   2.024   7.061  28.773 -0.0294 -0.1615 -0.1272
 8587W        W51681   0.060  11.257  27.616 -0.1758  0.0098 -0.1310
 8588W        W51682   4.558   8.259  29.602  0.1149  0.2534 -0.2028
 8589W        W51683   3.137   8.161  30.902  0.0764 -0.1929 -0.2469
 8590W        W51684   2.729   8.346  31.114 -0.0483 -0.1087  0.1397
 8591W        W51685   3.849   8.679   0.018 -0.0061  0.0447  0.0327
 8592W        W51686   4.026   8.690  28.320 -0.1357 -0.0487 -0.1524
 8593W        W51687   2.470   8.824  28.892  0.2534 -0.1770 -0.0071
 8594W        W51688   2.211   8.349  27.640 -0.1196 -0.0887  0.2803
 8595W        W51689   0.753   7.326  30.764 -0.2628 -0.1127  0.0962
 8596W        W51690  33.827   7.408  31.125 -0.1451  0.2546  0.2586
 8597W        W51691  34.401  11.309  28.672 -0.2900  0.2478  0.1306
 8598W        W51692   2.113   9.696  29.489 -0.0305  0.4279 -0.1201
 8599W        W51693   1.614   8.011  29.554  0.0829  0.0198  0.1696
 8600W        W51694   1.728   8.106  31.321  0.3704 -0.0081  0.0472
 8601W        W51695   1.026   7.279  28.486 -0.1522 -0.4192 -0.1993
 8602W        W51696   0.302  11.009  28.453  0.0962 -0.3693  0.1319
 8603W        W51697   2.518   9.378  27.586  0.1815 -0.2349  0.0401
 8604W        W51698   1.751   9.189  28.786 -0.0601 -0.2225  0.1300
 8605W        W51699   1.051   9.822  28.706  0.0595  0.2061  0.1748
 8606W        W51700   2.995   9.717  27.690 -0.2216 -0.1361 -0.0679
 8607W        W51701   3.489  10.499  30.214  0.1283  0.0493  0.0497
 8608W        W51702   0.819  12.141  29.656 -0.2736  0.1800  0.3726
 8609W        W51703   4.168   7.844  29.607 -0.1361 -0.0132  0.2661
 8610W        W51704  34.664  10.162  29.665 -0.1928 -0.0574  0.2813
 8611W        W51705   1.339   7.972  29.016  0.1168 -0.1434  0.1643
 8612W        W51706  32.906   8.656  28.846  0.2684  0.0593 -0.0340
 8613W        W51707   1.391   8.438  28.824 -0.1320 -0.4639  0.0786
 8614W        W51708   3.090  10.259  27.875  0.2608  0.1791 -0.2947
 8615W        W51709   0.088  10.571  30.269 -0.0637  0.3298 -0.0510
 8616W        W51710   1.947   7.227  31.215  0.4841 -0.3944 -0.1881
 8617W        W51711   1.696   9.561  30.314 -0.0237 -0.0070  0.0229
 8618W        W51712   2.490   9.188  31.294 -0.1033  0.0907 -0.1669
 8619W        W51713   4.503   8.196  27.142 -0.0462 -0.1799 -0.3100
 8620W        W51714   2.404   9.221  29.915 -0.0184  0.1195 -0.0382
 8621W        W51715   0.873   7.869  30.927 -0.1675  0.1639 -0.2844
 8622W        W51716  34.586   8.450  27.514  0.0904 -0.0713 -0.0174
 8623W        W51717   2.103   8.588  29.224  0.0586  0.3007  0.0175
 8624W        W51718   0.477  10.221  29.692  0.1967 -0.2290 -0.1062
 8625W        W51719  34.080   9.899  29.218 -0.0962  0.2295 -0.0566
 8626W        W51720   1.979  10.650  30.312  0.0052  0.2165 -0.1037
 8627W        W51721   0.245   9.043  27.848 -0.0557 -0.2165  0.2947
 8628W        W51722   0.104   8.897  27.370  0.2568  0.2322 -0.1630
 8629W        W51723   2.403   7.435  31.059 -0.2285 -0.2644 -0.1037
 8630W        W51724   1.617  10.789  30.619  0.0791  0.1118 -0.1431
 8631W        W51725  34.368   8.302  29.717  0.1357 -0.0870 -0.3088
 8632W        W51726   0.624   7.501  28.846 -0.1696 -0.3983  0.1433
 8633W        W51727   1.184  10.631  29.367 -0.0952  0.2321 -0.2885
 8634W        W51728   2.508   8.951  30.639  0.1708 -0.1028 -0.1473
 8635W        W51729   1.554   8.245  30.413 -0.0257  0.2519  0.4076
 8636W        W51730   0.470  10.290   0.078 -0.2980  0.1197 -0.0029
 8637W        W51731   2.906   8.657  30.745 -0.1185  0.2418 -0.1649
 8638W        W51732   2.781  11.084  27.663 -0.1031 -0.0703  0.3555
 8639W        W51733   1.576   9.739  31.247  0.1683  0.1775  0.0100
 8640W        W51734   1.856  10.019  27.376 -0.1355 -0.0479 -0.3532
 8641W        W51735   0.385   8.506  30.804 -0.1875 -0.1320  0.1757
 8642W        W51736   1.503  11.481  28.368  0.2281  0.0381 -0.3673
 8643W        W51737   2.284   7.331  29.947 -0.4351 -0.0079 -0.2294
 8644W        W51738   1.473  11.782  28.732  0.2151  0.0876 -0.1420
 8645W        W51739   1.910  10.765  27.659 -0.2795 -0.0952  0.0420
 8646W        W51740  34.524  10.918  29.986  0.0164 -0.3278 -0.1243
 8647W        W51741   2.371   6.818  26.759  0.1075 -0.1731 -0.1822
 8648W        W51742   2.680   8.243  27.392  0.0391  0.1451 -0.1892
 8649W        W51743   2.249   8.196  30.162 -0.0152 -0.1552  0.1262
 8650W        W51744   4.812   7.980  31.531  0.3541 -0.2677 -0.1337
 8651W        W51745   2.893   8.129  26.825 -0.1996  0.3399 -0.1264
 8652W        W51746   3.028   9.190  31.329 -0.2269 -0.2917 -0.1079
 8653W        W51747   0.469   7.566  29.545  0.0140 -0.0544  0.0265
 8654W        W51748   3.146  10.154  28.922 -0.0563 -0.0213  0.3556
 8655W        W51749   1.049   8.337  29.137  0.0771  0.0418  0.1608
 8656W        W51750   2.540   9.774  30.470  0.1044  0.0673  0.0134
 8657W        W51751   0.464   7.922   0.697 -0.2657  0.0804 -0.1946
 8658W        W51752   0.888   8.982  28.321 -0.0198 -0.1690  0.2044
 8659W        W51753   0.389   7.045  26.724 -0.0092 -0.0588 -0.0238
 8660W        W51754   0.951   9.305  29.919 -0.1065  0.0398  0.0080
 8661W        W51755   4.012   9.864  29.097 -0.0774 -0.0513 -0.2890
 8662W        W51756   2.703   8.540  27.859 -0.0554  0.1060  0.0226
 8663W        W51757   4.389   8.135  29.178  0.0994 -0.1528  0.4770
 8664W        W51758  34.325  11.110  29.190 -0.1002  0.0441 -0.1011
 8665W        W51759   2.834   9.035  27.894  0.0663 -0.1149  0.1373
 8666W        W51760   2.210   8.831  27.788  0.1767 -0.2751 -0.0114
 8667W        W51761   0.899   8.610  27.868  0.0386 -0.1605 -0.0244
 8668W        W51762   2.858   6.725  31.579  0.0036  0.0015 -0.1700
 8669W        W51763   3.476   9.957  29.344  0.1074 -0.1433 -0.4733
 8670W        W51764   1.521   7.163  28.436 -0.2037  0.1821  0.0240
 8671W        W51765   0.760   8.841  30.948  0.1058 -0.1137  0.2776
 8672W        W51766   2.722   8.755  31.521  0.1258  0.1941 -0.0820
 8673W        W51767   0.176   7.760  31.558  0.0747  0.2382  0.1316
 8674W        W51768  33.435   8.482  31.804 -0.0070 -0.2437  0.2186
 8675W        W51769   2.572  10.353  29.677  0.4219 -0.2112  0.0844
 8676W        W51770   4.742   7.673  28.201 -0.0662 -0.2464  0.3338
 8677W        W51771   2.646   7.490  29.406  0.0524 -0.0999  0.0032
 8678W        W51772   5.128   8.144  28.438  0.0279 -0.1316  0.0368
 8679W        W51773   1.121   8.184  27.738 -0.1146  0.5521  0.1293
 8680W        W51774  34.474   8.349   0.142  0.1653 -0.0555 -0.3740
 8681W        W51775   2.807   9.270  30.283 -0.0406 -0.0206  0.0142
 8682W        W51776   0.817   8.253  28.214  0.2704  0.2305 -0.3193
 8683W        W51777   3.285   7.756  31.508  0.1868  0.2074 -0.0086
 8684W        W51778   2.440  10.916  28.726 -0.3052  0.1796 -0.2664
 8685W        W51779   3.289  11.170  29.430  0.0514  0.1064  0.0814
 8686W        W51780   2.448   7.254  26.486 -0.1466  0.0034  0.0208
 8687W        W51781  33.804   8.513  27.586 -0.3018 -0.1833  0.3175
 8688W        W51782  33.976  11.473  30.622 -0.1305 -0.1748 -0.0697
 8689W        W51783   0.761   8.022  27.451  0.0486  0.0988  0.1598
 8690W        W51784   2.057   9.532  27.760  0.1460 -0.1903  0.0661
 8691W        W51785   4.342  10.469  29.179  0.1192  0.1777  0.0632
 8692W        W51786   5.647   8.526   0.157  0.1772 -0.0198  0.0121
 8693W        W51787   1.970   5.933  28.039  0.2994 -0.1042  0.3249
 8694W        W51788   2.530   8.189  30.644 -0.1979 -0.1923  0.1943
 8695W        W51789   1.136  10.354  28.081  0.1283 -0.0659 -0.0474
 8696W        W51790   2.394   8.707  30.152  0.2399  0.1127  0.0611
 8697W        W51791   1.197  12.239  30.355 -0.0744 -0.2943  0.3302
 8698W        W51792   0.412  10.572  30.684  0.0931  0.0886 -0.0083
 8699W        W51793   2.053   9.039  27.173 -0.1916 -0.1995 -0.1472
 8700W        W51794   2.118   8.468  30.563  0.1757 -0.3560  0.4688
 8701W        W51795   2.711   8.779  29.690 -0.1628  0.0634 -0.0955
 8702W        W51796   2.246   8.532  31.398  0.2037  0.0485 -0.0094
 8703W        W51797   3.460   8.427  30.151 -0.0173  0.0792 -0.2261
 8704W        W51798   2.905  10.095  30.161 -0.0755 -0.0046  0.1137
 8705W        W51799   0.796   9.788  29.193 -0.4311  0.2864 -0.0286
 8706W        W51800   1.926   8.553  30.085 -0.0399 -0.0073  0.0752
 8707W        W51801   3.905  10.330  28.028  0.2264  0.1580  0.0491
 8708W        W51802   0.852  10.551  27.606 -0.0988 -0.0603 -0.0049
 8709W        W51803  33.676   7.957  31.793  0.0510 -0.2428 -0.1085
 8710W        W51804   0.873   9.676  31.364  0.0918  0.0182  0.0595
 8711W        W51805   2.975   8.750  28.336 -0.0187 -0.1144  0.0763
 8712W        W51806   1.387   8.621  27.680 -0.1894  0.0124 -0.2454
 8713W        W51807   2.350  11.295  28.421 -0.2434  0.1136  0.4778
 8714W        W51808  34.660  11.440  30.024 -0.2958 -0.2557  0.0432
 8715W        W51809  33.964  10.831  31.419  0.1780 -0.1141 -0.2638
 8716W        W51810   0.516  11.446  28.730  0.2258 -0.1161 -0.2060
 8717W        W51811   1.930   7.827  28.065  0.0959 -0.1573 -0.0279
 8718W        W51812   2.007   9.180  28.112  0.1181 -0.0117 -0.2978
 8719W        W51813   2.759  10.610  28.396 -0.2223 -0.1686 -0.0212
 8720W        W51814   0.513   7.046  27.465  0.1219  0.0417  0.1640
 8721W        W51815   0.419   9.612  27.795 -0.0961  0.3435 -0.2112
 8722W        W51816  34.448  10.296  27.144 -0.3195  0.3604 -0.1306
 8723W        W51817   2.879  10.677  27.212 -0.3674 -0.1829 -0.2220
 8724W        W51818   0.308   9.245  28.286  0.3069 -0.0482 -0.0635
 8725W        W51819   2.738  10.345  31.172 -0.2015  0.2758 -0.1774
 8726W        W51820   4.359   6.707  27.086  0.0880  0.0186  0.1631
 8727W        W51821   3.007   8.803  29.285 -0.2096  0.1451 -0.2022
 8728W        W51822   3.099   9.347  28.358 -0.0775 -0.2473  0.1018
 8729W        W51823   2.285  10.271  30.095 -0.0138 -0.1256 -0.0911
 8730W        W51824  34.523  10.028  30.242  0.0079  0.0511 -0.1071
 8731W        W51825   1.672   6.201  27.535  0.0450  0.3178 -0.0907
 8732W        W51826   1.012   7.885   1.065  0.1300 -0.1665 -0.1973
 8733W        W51827   4.384   4.926  30.715 -0.0024  0.0787  0.3688
 8734W        W51828   0.876  11.247  30.316 -0.2066 -0.0788 -0.0145
 8735W        W51829   2.558  10.505  26.816  0.1732 -0.0846 -0.0296
 8736W        W51830   0.207   7.390  28.532  0.0961  0.1666  0.1973
 8737W        W51831   0.652  11.233  29.366  0.0375 -0.0861 -0.1961
 8738W        W51832   2.994   7.253  28.842  0.0438 -0.2963  0.0080
 8739W        W51833   1.758   9.052  27.672 -0.0886  0.0037  0.1730
 8740W        W51834   1.441  10.321  29.719 -0.2396 -0.1523  0.1467
 8741W        W51835   1.456   9.486  29.857 -0.3156  0.0283  0.2201
 8742W        W51836   1.209  10.830  29.900  0.1390  0.1217  0.0919
 8743W        W51837   0.214  11.856  29.899 -0.2766  0.0117  0.1420
 8744W        W51838  33.634   8.011  27.117 -0.0113  0.1321  0.3380
 8745W        W51839   3.801   7.268  27.950 -0.4869  0.0871  0.1104
 8746W        W51840  33.881   9.200   0.199 -0.2131  0.0833 -0.1399
 8747W        W51841   3.786   8.884  30.664 -0.0731  0.0196  0.2683
 8748W        W51842   2.468   9.508  29.071  0.1177 -0.1677  0.0667
 8749W        W51843   4.095   8.258  27.992 -0.3360  0.0286 -0.2485
 8750W        W51844   1.923   9.044  30.315 -0.0518  0.1739  0.4591
 8751W        W51845   0.400   8.906  29.929 -0.0543 -0.1843 -0.1794
 8752W        W51846   0.315   8.960  28.768 -0.2135 -0.0056 -0.1989
 8753W        W51847   3.856   8.637  29.777 -0.2223 -0.4530  0.0850
 8754W        W51848   2.497   7.916  28.363  0.0488 -0.2540 -0.1069
 8755W        W51849   1.564  10.323  31.360 -0.2473 -0.1057  0.0815
 8756W        W51850  34.539   7.338  27.901 -0.1633  0.1472 -0.3067
 8757W        W51851   2.137   8.306  28.185  0.2140 -0.1064 -0.1089
 8758W        W51852   0.718   9.664  28.336  0.0860 -0.0260 -0.0864
 8759W        W51853   1.653   8.763  30.631 -0.2039 -0.0727 -0.0349
 8760W        W51854   2.128   8.826  30.904 -0.2467 -0.2605 -0.2490
 8761W        W51855   1.040   7.821  28.096  0.2438 -0.0003 -0.0452
 8762W        W51856   2.755   9.955  28.266 -0.1865 -0.2307  0.0166
 8763W        W51857   3.260   8.738  29.770 -0.0107  0.3057 -0.1349
 8764W        W51858   2.570  11.664  29.318  0.0666  0.1008  0.2232
 8765W        W51859   2.890   9.219  28.913  0.1167 -0.2555  0.1428
 8766W        W51860   3.190  10.811  29.782 -0.3158 -0.0141 -0.1994
 8767W        W51861  34.475   9.528  30.011  0.1384  0.2775 -0.2617
 8768W        W51862   4.910  11.559  28.789 -0.0912  0.1075  0.1436
 8769W        W51863   3.763   9.423  29.602  0.1017  0.2538  0.1367
 8770W        W51864   1.445   8.446  30.006  0.0876 -0.0839 -0.1274
 8771W        W51865   1.022   9.713  29.673  0.0675 -0.0442  0.1771
 8772W        W51866  34.474   9.277  27.032  0.2409 -0.3167 -0.0526
 8773W        W51867   2.230   9.436  30.361 -0.0534 -0.0682 -0.4415
 8774W        W51868   3.463   6.431  31.066  0.1499  0.4377  0.6724
 8775W        W51869   3.036  11.489  29.197  0.1002  0.0255  0.3601
 8776W        W51870   3.797   6.941  31.928  0.2655  0.0555 -0.2280
 8777W        W51871   1.137  10.531  28.586  0.2805 -0.1581 -0.1995
 8778W        W51872   1.271  11.467  30.101 -0.0598  0.2147  0.2592
 8779W        W51873   0.995   8.449  27.311  0.0896 -0.0645  0.0039
 8780W        W51874   0.685   8.722  30.462  0.0407 -0.3410  0.0479
 8781W        W51875   1.564   9.376  28.064  0.5658 -0.1159 -0.0425
 8782W        W51876   1.219   9.335  28.435  0.1580  0.1409 -0.0651
 8783W        W51877   4.579  10.454  28.329  0.0189  0.0194  0.0907
 8784W        W51878   0.213   9.738  29.703 -0.3269 -0.0430 -0.2996
 8785W        W51879   4.355  11.015  28.409 -0.0324  0.1720 -0.1978
 8786W        W51880   0.667   7.623  28.344  0.3812  0.2114 -0.1312
 8787W        W51881   2.744   7.336  28.366  0.0860 -0.1283 -0.0243
 8788W        W51882   2.407   7.502  28.021  0.2386 -0.2536  0.0266
 8789W        W51883   2.418   9.921  30.973 -0.1357  0.3068 -0.1178
 8790W        W51884   1.281   8.916  28.727 -0.2933 -0.3097 -0.1732
 8791W        W51885   0.895   9.313  26.912 -0.0850 -0.1245 -0.1788
 8792W        W51886   0.222  10.636  29.782 -0.0580  0.1670  0.0178
 8793W        W51887   2.435   6.973  31.432 -0.0645 -0.1388 -0.1710
 8794W        W51888  34.302   9.639  30.490  0.1429 -0.0021  0.0377
 8795W        W51889   0.231  11.086  30.354 -0.1261 -0.1376 -0.2259
 8796W        W51890   0.613   8.112  28.716  0.1150 -0.0134  0.0160
 8797W        W51891   4.024   9.941  26.589 -0.1038 -0.2336 -0.2015
 8798W        W51892  34.486   7.102  29.365  0.0206 -0.4152 -0.2430
 8799W        W51893  34.374   7.403  31.397 -0.2284 -0.3701 -0.2104
 8800W        W51894   4.631   9.562  28.810 -0.1713 -0.4075 -0.2109
 8801W        W51895   3.482  10.157  28.377 -0.0255  0.0291 -0.0111
 8802W        W51896   1.905   7.903  28.550 -0.0196  0.0957  0.1488
 8803W        W51897   2.986  10.648  29.379  0.0183  0.2525  0.2693
 8804W        W51898   0.392  10.118  26.402  0.0119  0.1761 -0.3094
 8805W        W51899   2.663   8.723   0.308  0.2754 -0.3564 -0.2163
 8806W        W51900   2.439   8.526  31.868  0.1571  0.0822  0.2509
 8807W        W51901   0.319   8.201  26.582  0.1504  0.3222  0.2326
 8808W        W51902   2.611   9.796  29.547 -0.0201 -0.0897  0.0541
 8809W        W51903   3.294   9.327  27.873 -0.1498 -0.1893 -0.0543
 8810W        W51904   3.074  11.433  28.636 -0.0834 -0.0918  0.2124
 8811W        W51905   1.844   8.732  28.803 -0.3056  0.0256 -0.0797
 8812W        W51906   1.473   9.539  30.797  0.1206  0.0702  0.0451
 8813W        W51907  34.282   6.133  31.301 -0.0312  0.2288  0.0127
 8814W        W51908   2.817  10.169  29.302 -0.2177 -0.0333 -0.1912
 8815W        W51909   0.717   9.729  30.211  0.1893 -0.3617 -0.1573
 8816W        W51910   3.540   9.432  28.624  0.0958 -0.0660  0.1036
 8817W        W51911   3.320   8.846  28.904 -0.0727  0.5838 -0.1319
 8818W        W51912   3.292   8.649  27.943 -0.0543  0.1926 -0.3203
 8819W        W51913   0.232   7.211  31.370  0.1703 -0.0335 -0.1251
 8820W        W51914   0.691   9.233  30.462  0.1990 -0.3772 -0.0721
 8821W        W51915   2.244   9.739  29.949  0.0444 -0.1452 -0.0325
 8822W        W51916   1.976   7.657  29.171 -0.2396 -0.0707 -0.0827
 8823W        W51917   2.216   9.671  28.287 -0.2350 -0.0798 -0.0815
 8824W        W51918   1.846   9.932  27.890  0.1684  0.0342  0.2167
 8825W        W51919   0.519   8.489  29.008  0.1707 -0.1152 -0.0588
 8826W        W51920   2.852   8.120  28.672 -0.1699 -0.2065 -0.1944
 8827W        W51921   1.545   7.758  30.291 -0.0015  0.0407 -0.2971
 8828W        W51922   3.767   8.960  28.707 -0.3278  0.1753  0.1848
 8829W        W51923   3.027   9.206  30.853  0.1718 -0.3860  0.0708
 8830W        W51924   1.135   9.633  26.610  0.0257  0.1099 -0.2399
 8831W        W51925   4.510   8.755  28.099 -0.1780 -0.0987  0.0057
 8832W        W51926   2.239  11.171  30.737  0.0740 -0.3754  0.1354
 8833W        W51927   3.550  10.859  30.993  0.2583  0.3317  0.0269
 8834W        W51928   1.800   9.909  29.855  0.0275 -0.0447 -0.6066
 8835W        W51929   3.471   9.437  29.093 -0.3640  0.2790  0.1308
 8836W        W51930   1.754   6.241  28.964 -0.2852 -0.0062  0.0291
 8837W        W51931   0.197   9.629  28.588 -0.3510 -0.3085 -0.0415
 8838W        W51932   1.578   9.964  28.796  0.3577  0.1803 -0.1669
 8839W        W51933   3.408   7.994  30.524 -0.2802  0.0197  0.1176
 8840W        W51934   2.365   7.078  28.301  0.2320 -0.0142  0.1793
 8841W        W51935   1.701   8.380  28.459  0.0078 -0.0303 -0.1059
 8842W        W51936   0.792  11.071  29.857 -0.2516 -0.0596  0.2983
 8843W        W51937   3.332   8.952  30.574  0.0671  0.0191 -0.2883
 8844W        W51938   2.377   7.668  30.610 -0.0362  0.3809 -0.0541
 8845W        W51939   2.000   9.792  30.656 -0.0870 -0.0836  0.5849
 8846W        W51940   0.176   8.259   0.369  0.0971 -0.1627 -0.1717
 8847W        W51941   0.185  10.067  30.603  0.1632 -0.0343 -0.1000
 8848W        W51942   2.805   9.818   0.140 -0.0520  0.0772 -0.0417
 8849W        W51943   1.461  11.243  30.509  0.0480 -0.1361 -0.1281
 8850W        W51944   3.310   8.809  31.698 -0.1352  0.2081  0.2730
 8851W        W51945   0.453  10.217  30.183 -0.1877 -0.0439  0.0718
 8852W        W51946   2.563   8.155  31.584  0.1203 -0.1056 -0.0585
 8853W        W51947   1.247  10.949  30.887 -0.0804 -0.2402  0.1036
 8854W        W51948   1.587   8.955  29.836  0.0094 -0.2573  0.0211
 8855W        W51949   1.224   8.390  30.863  0.2705  0.1823 -0.2214
 8856W        W51950   1.291   9.115  30.246  0.2229  0.1321 -0.3301
 8857W        W51951   1.052   9.222  31.417 -0.3073  0.0991 -0.2068
 8858W        W51952   2.999   8.522  31.964 -0.0243  0.1842  0.1666
 8859W        W51953   1.745  11.173  30.913  0.1083 -0.1303 -0.2983
 8860W        W51954   0.983   8.917  31.922  0.0149  0.0963  0.1773
 8861W        W51955   3.876   9.188   0.164 -0.1398 -0.0989  0.2441
 8862W        W51956   1.000   8.338  31.705 -0.0350  0.3139 -0.0025
 8863W        W51957   1.793   6.601   0.209  0.1920  0.1843  0.0985
 8864W        W51958   1.040   7.607  31.266 -0.3195  0.3965  0.0991
 8865W        W51959   1.062   9.633  30.549  0.4126 -0.1283  0.1025
 8866W        W51960   2.756   9.180   0.707 -0.5392 -0.1792 -0.0132
 8867W        W51961   1.964   9.132  31.456 -0.2834  0.1531  0.1551
 8868W        W51962   3.096   6.743  31.156  0.1319  0.2669 -0.1109
 8869W        W51963   1.815   7.282  30.249 -0.2863  0.4075 -0.2833
 8870W        W51964   0.286   8.764  31.210 -0.0721  0.3933 -0.0212
 8871W        W51965   0.612   9.429  31.733 -0.0418 -0.2332  0.2640
 8872W        W51966   0.191   8.996  31.621 -0.3004 -0.1733  0.0171
 8873W        W51967   1.322   9.980  30.136  0.0206  0.0332 -0.0587
 8874W        W51968   0.658  10.731  29.498  0.0403  0.0826  0.0859
 8875W        W51969   1.979   7.170   0.170  0.1884 -0.0210  0.1986
 8876W        W51970   3.401   9.160   0.080 -0.0111 -0.0034 -0.2763
 8877W        W51971   2.889   7.179  31.280  0.0170 -0.2493  0.0993
 8878W        W51972   0.089   9.462  31.769  0.0719 -0.1347  0.0532
 8879W        W51973   0.477   9.710   0.583 -0.0794 -0.1901  0.0269
 8880W        W51974   0.497  10.010  30.972  0.0858  0.0614 -0.0544
 8881W        W51975   0.286   9.021  30.720 -0.0861 -0.0984 -0.1508
 8882W        W51976   3.555   9.607   0.309  0.2488 -0.2272 -0.2098
 8883W        W51977   1.041   8.793  29.999  0.0064  0.1069 -0.3390
 8884W        W51978   2.108   9.580  31.198 -0.0952 -0.0437 -0.1045
 8885W        W51979   0.815   8.201  30.577  0.4015  0.0764 -0.0746
 8886W        W51980   0.836   7.308  29.774  0.0970 -0.3153  0.1867
 8887W        W51981   2.499  10.812  31.119  0.0358 -0.0074 -0.0345
 8888W        W51982   0.965   7.705  30.200  0.0882  0.2244 -0.0500
 8889W        W51983   0.739   8.414  31.215  0.0703  0.1236 -0.1926
 8890W        W51984   2.808   6.930   1.011 -0.1648  0.2442 -0.0467
 8891W        W51985   0.943   9.315  30.916  0.1168 -0.0027  0.0482
 8892W        W51986   3.528  10.020  31.496  0.2547 -0.4033 -0.0505
 8893W        W51987  34.038  10.999   3.162 -0.0261 -0.1071  0.0614
 8894W        W51988   0.849   9.935  31.895  0.0002 -0.0232 -0.3334
 8895W        W51989   2.675   7.855  31.086 -0.3302  0.3751 -0.1018
 8896W        W51990   2.608   6.950  30.924 -0.0330  0.2032  0.4511
 8897W        W51991   1.273   9.356  31.946  0.0713  0.0151  0.1662
 8898W        W51992   1.670   8.668  31.238  0.1007  0.0889  0.0703
 8899W        W51993   2.259  10.249  30.643  0.0778  0.0594 -0.1624
 8900W        W51994   3.407   8.036   0.613 -0.0237  0.0581 -0.1025
 8901W        W51995   3.467  10.446  31.799 -0.2020 -0.3997  0.0160
 8902W        W51996   1.314   9.926  31.692 -0.2577  0.0302  0.0754
 8903W        W51997   1.057   8.472   1.304  0.0016  0.0301  0.2691
 8904W        W51998  34.569   8.933   0.143  0.0381 -0.2869 -0.1857
 8905W        W51999  34.417   9.095  31.630 -0.2523  0.1011  0.0226
 8906W        W52000   1.263   9.427   0.941 -0.0095 -0.2179 -0.0191
 8907W        W52001   0.386   7.428   0.762 -0.4074 -0.1041 -0.0232
 8908W        W52002   2.407  11.502   0.405 -0.2596 -0.1581 -0.5882
 8909W        W52003   2.434   9.453  30.817 -0.1733 -0.0237  0.1410
 8910W        W52004   3.524   9.062  31.105 -0.4041 -0.1102  0.1539
 8911W        W52005  34.135  14.160  19.493  0.1725 -0.1658 -0.1890
 8912W        W52006   1.246  12.210  17.374 -0.0633  0.0274 -0.0028
 8913W        W52007   1.648  12.140  17.818  0.1004 -0.1471  0.0894
 8914W        W52008   3.877  12.966  18.287 -0.0568 -0.1482 -0.0323
 8915W        W52009  32.799  11.407  17.498  0.0096  0.3886  0.0082
 8916W        W52010   1.952  14.728  16.784 -0.0824  0.1533  0.0101
 8917W        W52011   1.893  10.391  20.775  0.1953 -0.2345  0.4112
 8918W        W52012   3.405  13.681  19.647 -0.1697 -0.2549  0.2653
 8919W        W52013   2.577  15.453  19.127  0.1847  0.3140  0.4382
 8920W        W52014   1.268  12.334  16.285  0.2272  0.0428  0.1505
 8921W        W52015   1.256  12.058  19.384  0.1210 -0.2559  0.0628
 8922W        W52016   0.387  14.600  20.279  0.0184 -0.0175 -0.2748
 8923W        W52017   0.943  11.988  16.599  0.0152 -0.0218 -0.1715
 8924W        W52018   0.244  10.407  18.958 -0.4692 -0.0513 -0.0932
 8925W        W52019   3.246  13.209  18.498  0.0365  0.0350 -0.2160
 8926W        W52020  34.418  11.779  16.941 -0.0197  0.1811  0.0472
 8927W        W52021   1.629  13.054  17.979 -0.0661 -0.0522 -0.0266
 8928W        W52022   1.212  13.125  16.868 -0.1435  0.2166 -0.0149
 8929W        W52023   0.660  15.661  17.931 -0.1950  0.1308 -0.1145
 8930W        W52024   1.103  12.285  20.858  0.0937 -0.1779 -0.0532
 8931W        W52025   1.860  12.497  18.708  0.0354  0.4995 -0.1805
 8932W        W52026   0.885  13.703  17.828 -0.0042  0.2795  0.1331
 8933W        W52027   1.448  12.752  16.572  0.2843 -0.1435  0.3459
 8934W        W52028   0.845  12.636  18.535  0.3223 -0.0144  0.0578
 8935W        W52029   1.816  13.190  20.269  0.1127  0.1933 -0.0149
 8936W        W52030   2.605  10.769  17.155 -0.1755  0.2323 -0.1517
 8937W        W52031   3.634  13.813  17.847 -0.0486 -0.1280 -0.0292
 8938W        W52032   2.510  13.671  19.051 -0.2706  0.3440 -0.1452
 8939W        W52033   2.571  13.472  18.487 -0.0659 -0.2415 -0.0368
 8940W        W52034   1.865  11.768  19.418  0.0148  0.0230 -0.0113
 8941W        W52035   0.635  12.484  18.103 -0.2946  0.0056  0.3237
 8942W        W52036   0.063  13.631  17.582 -0.3002 -0.1152 -0.2224
 8943W        W52037   1.722  14.009  17.846 -0.0073  0.0125  0.1104
 8944W        W52038   2.301  14.934  17.971  0.1557  0.1046 -0.0691
 8945W        W52039   2.477  14.956  19.395  0.1957  0.3554  0.0054
 8946W        W52040   0.167  14.761  21.475 -0.0883  0.2029  0.2079
 8947W        W52041  33.917  13.471  16.343  0.3936 -0.0883 -0.1769
 8948W        W52042   2.173  14.338  20.985  0.1403  0.3048 -0.1462
 8949W        W52043   0.288  14.098  20.184  0.2487  0.2579  0.0778
 8950W        W52044   2.367  13.412  17.503  0.0042  0.4690 -0.0339
 8951W        W52045   1.292  10.928  17.141  0.3216  0.0387 -0.2168
 8952W        W52046   1.917  13.950  16.888 -0.2575 -0.0403  0.1173
 8953W        W52047   2.178  14.189  17.288  0.0988 -0.2999 -0.0203
 8954W        W52048   1.322  13.014  19.397 -0.1141  0.3596  0.0296
 8955W        W52049   0.241  14.340  17.961  0.1065 -0.4050 -0.3024
 8956W        W52050   2.338  12.544  20.571 -0.0069  0.1148  0.1517
 8957W        W52051   0.912  14.046  16.520  0.1649 -0.1994 -0.0365
 8958W        W52052   3.535  12.441  17.372  0.5515 -0.1323  0.1278
 8959W        W52053   1.207  11.777  16.016  0.0343 -0.0580  0.2066
 8960W        W52054   1.694  12.315  17.307 -0.0900 -0.1178  0.0661
 8961W        W52055   0.905  11.211  18.628  0.0148 -0.0600 -0.0082
 8962W        W52056   1.076  14.352  19.238 -0.3204  0.0901  0.2098
 8963W        W52057   1.948  12.510  16.760  0.2569  0.0536 -0.1884
 8964W        W52058   3.312  13.686  18.170  0.0697 -0.0248  0.0626
 8965W        W52059   0.909  12.972  19.071  0.3557 -0.0334 -0.0746
 8966W        W52060   1.772  13.440  19.757  0.5831 -0.1900  0.1215
 8967W        W52061  34.450  13.942  19.883  0.5509 -0.2912  0.4777
 8968W        W52062   0.371  13.619  18.699 -0.0220 -0.0462  0.1322
 8969W        W52063   2.239  14.011  17.814  0.0564 -0.1404  0.0092
 8970W        W52064   2.481  13.993  18.227 -0.1022  0.1021  0.2426
 8971W        W52065   1.400  14.911  16.735 -0.0038 -0.1185  0.2853
 8972W        W52066  33.976  10.890  17.004 -0.0153 -0.4338  0.4238
 8973W        W52067   0.784  12.338  20.176  0.1643 -0.1049  0.0468
 8974W        W52068   0.583  15.036  19.721  0.0491  0.1757  0.3386
 8975W        W52069   1.145  12.850  16.195  0.0335 -0.0709 -0.0133
 8976W        W52070   2.888  13.965  20.336 -0.0556  0.1783  0.1158
 8977W        W52071  34.387  13.103  19.314 -0.1712 -0.4008  0.1174
 8978W        W52072   4.321  11.852  17.152  0.1194  0.1012  0.2603
 8979W        W52073   0.787  14.158  17.968 -0.0884  0.0086 -0.0484
 8980W        W52074   2.385  14.506  19.125 -0.2053  0.1808 -0.2737
 8981W        W52075   2.084  12.065  16.948  0.3299  0.0350  0.0481
 8982W        W52076   2.886  10.441  16.850 -0.0726 -0.0451  0.1310
 8983W        W52077   2.526  12.815  19.118 -0.0437 -0.0361  0.0234
 8984W        W52078   0.295  13.343  16.580  0.2506 -0.0977 -0.1195
 8985W        W52079   0.979  12.695  16.687 -0.1072  0.0292 -0.2260
 8986W        W52080   3.626  14.292  19.590 -0.0795 -0.0317 -0.1930
 8987W        W52081   3.621  12.973  16.027 -0.1370 -0.1559 -0.0863
 8988W        W52082   0.840  13.918  19.444 -0.0535  0.1146  0.1481
 8989W        W52083   0.922  11.775  18.195  0.0967  0.3123 -0.0324
 8990W        W52084   1.387  14.897  20.866  0.0842 -0.0822 -0.0475
 8991W        W52085   1.800  14.844  18.150  0.0749  0.0544  0.0040
 8992W        W52086   0.445  12.113  18.939  0.0754 -0.1368 -0.2116
 8993W        W52087  34.299  13.208  17.477  0.0814 -0.2539 -0.2098
 8994W        W52088   0.721  11.031  20.070  0.2023  0.0278  0.2783
 8995W        W52089   1.350  13.646  20.899  0.0657 -0.2302  0.1931
 8996W        W52090   2.373  12.491  19.433 -0.0214 -0.0088  0.1475
 8997W        W52091   0.779  11.479  20.188  0.0478  0.0115 -0.0601
 8998W        W52092   4.261  12.740  19.763 -0.1896 -0.3875  0.0323
 8999W        W52093   0.871  13.481  17.249  0.0637 -0.0553  0.1063
 9000W        W52094   2.638  14.338  16.455  0.1403  0.1565  0.3537
 9001W        W52095   3.506  12.266  16.793  0.1238 -0.2104 -0.0183
 9002W        W52096   2.566  13.103  17.167  0.3184 -0.3057  0.0514
 9003W        W52097   0.551  11.019  18.944 -0.0679  0.1068  0.1017
 9004W        W52098   0.814  12.317  17.089  0.1946 -0.1513  0.1370
 9005W        W52099   1.422  10.982  19.522 -0.0834 -0.0806  0.0836
 9006W        W52100  33.080  10.326  18.199 -0.0462 -0.2348  0.0025
 9007W        W52101   4.246  11.298  18.841  0.0674 -0.3741  0.1940
 9008W        W52102  33.486  10.745  16.334 -0.1532 -0.1452  0.1509
 9009W        W52103   1.555  11.812  17.494 -0.1964 -0.0623  0.0260
 9010W        W52104   0.606  13.031  16.856  0.0935  0.1217 -0.1428
 9011W        W52105   0.105  12.918  16.637  0.0751  0.1144 -0.3162
 9012W        W52106   3.324  11.773  20.720  0.1177 -0.0142  0.0523
 9013W        W52107   2.041  16.723  17.260 -0.1316 -0.1866 -0.0767
 9014W        W52108   3.244  14.134  19.966  0.2077  0.0045 -0.2122
 9015W        W52109   1.975  14.495  17.774 -0.2209  0.0447 -0.2644
 9016W        W52110   0.960  11.645  19.273  0.2770 -0.3843  0.1741
 9017W        W52111   0.734  12.242  16.274  0.4293 -0.2635  0.3159
 9018W        W52112   1.424  14.669  19.053 -0.0236 -0.2588  0.2301
 9019W        W52113   2.517  14.534  20.317  0.0479  0.1224  0.0872
 9020W        W52114  34.338  11.061  18.099  0.0314  0.0026 -0.0345
 9021W        W52115   2.955  14.039  17.993 -0.0885  0.2869  0.0974
 9022W        W52116   2.008  13.739  17.395  0.1311  0.5233 -0.1262
 9023W        W52117   1.195  13.857  19.966  0.2326  0.1787 -0.4507
 9024W        W52118   1.734  12.077  19.758  0.1305 -0.0587 -0.0658
 9025W        W52119   3.378  11.873  17.397 -0.1270 -0.0211  0.2168
 9026W        W52120   2.111  12.737  18.263 -0.0162 -0.2619 -0.2468
 9027W        W52121  33.907  12.670  16.965  0.1697  0.3108 -0.0220
 9028W        W52122   2.073  15.301  18.856 -0.3171  0.0152  0.0352
 9029W        W52123   1.216  14.175  17.021  0.3304  0.1472 -0.1450
 9030W        W52124  34.454  12.517  18.149  0.0343 -0.0871  0.2519
 9031W        W52125   1.639  14.095  17.318 -0.0713 -0.1709  0.4302
 9032W        W52126   2.262  11.721  18.067 -0.1579 -0.0820 -0.2216
 9033W        W52127  34.136  12.543  19.846  0.0775  0.1266 -0.2832
 9034W        W52128   2.733  12.790  19.533 -0.2893 -0.1479  0.0598
 9035W        W52129  33.618  11.837  17.470  0.0203  0.0932  0.0821
 9036W        W52130  33.918  13.891  19.900 -0.1189  0.0621 -0.0800
 9037W        W52131   1.482  11.894  18.798  0.2699 -0.1511 -0.1080
 9038W        W52132   4.053  12.208  16.223 -0.1172  0.2817 -0.1760
 9039W        W52133   3.489  13.704  20.279  0.2404 -0.1915  0.2609
 9040W        W52134   2.518  12.648  16.947  0.3084 -0.0503  0.0820
 9041W        W52135   1.735  12.018  15.950 -0.0196 -0.4436 -0.0510
 9042W        W52136   1.835  10.919  16.772  0.0052 -0.0922 -0.0681
 9043W        W52137   0.729  13.522  19.763  0.0421  0.3485 -0.0643
 9044W        W52138   2.130  14.282  16.595 -0.1392 -0.3735 -0.0328
 9045W        W52139   1.858  13.186  17.464  0.0702  0.1381  0.1536
 9046W        W52140   1.954  13.488  17.865 -0.2119  0.2908 -0.0648
 9047W        W52141   3.273  14.354  17.206 -0.2671  0.0029  0.2867
 9048W        W52142   0.357  15.492  19.861 -0.0062 -0.1313  0.1041
 9049W        W52143   2.137  13.063  21.224 -0.3106  0.0898  0.1493
 9050W        W52144   1.325  14.283  18.770 -0.3356 -0.2027  0.0331
 9051W        W52145   0.618  11.359  19.719  0.0623  0.0934  0.0501
 9052W        W52146   1.150  12.668  17.226  0.1706  0.2272  0.0709
 9053W        W52147   0.779  12.542  17.524 -0.1932  0.0755  0.2036
 9054W        W52148   0.039  14.253  15.965  0.3415 -0.1421  0.2248
 9055W        W52149   3.362  12.123  18.545 -0.0572 -0.0451 -0.0028
 9056W        W52150   1.778  11.221  18.153  0.1597 -0.1719  0.0315
 9057W        W52151   0.627  12.879  19.974 -0.1333  0.3945  0.0688
 9058W        W52152   3.077  12.856  19.154 -0.2666  0.1954  0.1338
 9059W        W52153   3.117  11.959  16.878 -0.3184 -0.1190 -0.0714
 9060W        W52154   1.852  11.312  18.715 -0.0269  0.3333  0.2955
 9061W        W52155   0.032  11.421  16.366 -0.2763  0.3777  0.1430
 9062W        W52156   0.841  13.417  18.751  0.2640 -0.0878 -0.0499
 9063W        W52157   1.935  13.654  20.183  0.0460 -0.1956  0.0885
 9064W        W52158  33.900  15.681  18.918  0.2796 -0.0800  0.1041
 9065W        W52159   3.453  13.228  19.997 -0.1048  0.0318  0.4185
 9066W        W52160   1.827  14.304  18.690  0.1018 -0.0808 -0.1967
 9067W        W52161   3.355  12.757  19.573 -0.0631 -0.1611  0.0242
 9068W        W52162   1.948  11.584  17.257  0.0360  0.1599  0.2960
 9069W        W52163   0.116  14.131  17.510  0.0221 -0.1417 -0.0427
 9070W        W52164   0.241  12.797  18.096 -0.0999 -0.0613 -0.0369
 9071W        W52165   1.289  12.306  18.510  0.1792 -0.1778  0.0890
 9072W        W52166   2.099  14.744  20.161  0.1550  0.1988  0.5124
 9073W        W52167  34.425  13.462  17.897  0.0742  0.2075 -0.2856
 9074W        W52168   3.191  14.144  19.456  0.0764 -0.0288 -0.0271
 9075W        W52169   0.498  14.701  17.276 -0.3055 -0.1844  0.0004
 9076W        W52170   3.762  11.111  17.915 -0.2849  0.0504  0.0661
 9077W        W52171  34.057  14.155  18.255 -0.1445  0.0253  0.1445
 9078W        W52172   1.351  11.674  16.610  0.1845 -0.1496 -0.0405
 9079W        W52173  34.675  13.279  18.466 -0.3654 -0.1021 -0.0836
 9080W        W52174   2.621  12.255  17.833  0.0669 -0.2017 -0.2464
 9081W        W52175   2.707  13.427  16.802  0.0596  0.0911  0.2444
 9082W        W52176   0.152  11.795  18.680  0.1342  0.0773  0.0228
 9083W        W52177   1.397  12.767  18.990  0.0407 -0.1820 -0.0619
 9084W        W52178   0.037  15.042  18.865 -0.0692  0.2125 -0.0923
 9085W        W52179   2.505  13.047  18.208 -0.2139  0.0337 -0.2868
 9086W        W52180   4.368  10.558  16.424 -0.2612 -0.1352  0.0761
 9087W        W52181   3.879  14.396  18.545  0.1777 -0.1137  0.3842
 9088W        W52182   1.746  12.933  19.742 -0.0988  0.3093  0.0747
 9089W        W52183   0.655  12.774  15.930 -0.1329 -0.1878 -0.1256
 9090W        W52184   3.068  11.943  18.941  0.4806 -0.0309 -0.2856
 9091W        W52185   0.880  11.831  17.076  0.1411  0.2304 -0.1288
 9092W        W52186  34.209  14.083  16.704  0.4603  0.0001 -0.2522
 9093W        W52187   3.390  14.264  18.152 -0.0810 -0.0648  0.0413
 9094W        W52188   1.173  13.620  16.901 -0.0159 -0.0286  0.2341
 9095W        W52189  34.635  12.875  17.665  0.0927 -0.0509  0.0836
 9096W        W52190   2.051  10.280  20.267 -0.0327  0.0407  0.0191
 9097W        W52191   3.402  12.367  19.026 -0.0037  0.0539  0.1238
 9098W        W52192  34.691  11.536  17.384  0.2428 -0.0068 -0.0212
 9099W        W52193   0.186  12.122  18.164 -0.0726 -0.0741  0.1386
 9100W        W52194   1.626  14.034  20.056 -0.0484 -0.1649 -0.1530
 9101W        W52195   4.198  13.603  18.631  0.1285 -0.1269  0.0571
 9102W        W52196   0.493  14.256  18.394 -0.0355  0.3256 -0.1800
 9103W        W52197   0.144  13.708  19.895 -0.0699  0.1506 -0.1781
 9104W        W52198   1.075  10.955  17.677 -0.0555 -0.1059 -0.3717
 9105W        W52199   3.828  14.140  17.489 -0.2025 -0.1841 -0.3420
 9106W        W52200   2.706  13.151  21.298  0.1528  0.0014 -0.1452
 9107W        W52201   0.717  13.318  18.138  0.2309  0.1091  0.0389
 9108W        W52202  34.502  12.602  19.036  0.0171  0.0201  0.2815
 9109W        W52203   0.296  13.088  16.133  0.2513  0.0860  0.1496
 9110W        W52204   1.911  11.262  19.300  0.1402  0.0368 -0.0506
 9111W        W52205   0.575  15.167  18.138 -0.1754 -0.0410 -0.1445
 9112W        W52206   0.636  13.615  16.823 -0.2496  0.0238 -0.1819
 9113W        W52207  34.018  14.507  20.362  0.1277 -0.1298 -0.2191
 9114W        W52208   1.741  10.782  17.326 -0.2825  0.1685 -0.0879
 9115W        W52209   2.408  12.977  16.136 -0.1400  0.0656  0.0323
 9116W        W52210   2.066  13.294  18.294  0.1579  0.2484  0.1309
 9117W        W52211   3.289  11.520  19.334 -0.1062 -0.0829 -0.0339
 9118W        W52212   1.647  12.108  16.509 -0.0165  0.0602 -0.3474
 9119W        W52213   2.844  12.123  18.297 -0.4822  0.1063 -0.2760
 9120W        W52214   1.675  11.050  20.175 -0.2229  0.0762 -0.0131
 9121W        W52215   3.170  12.945  17.504 -0.1241 -0.3226 -0.1399
 9122W        W52216  34.601  11.084  20.212  0.0736  0.0811  0.1650
 9123W        W52217   2.390  13.857  20.366 -0.2845  0.1903 -0.0419
 9124W        W52218   0.873  14.555  19.669 -0.0595  0.2730  0.2946
 9125W        W52219   2.347  10.769  16.740 -0.0436 -0.0683 -0.2119
 9126W        W52220  33.653  12.374  16.131 -0.1309  0.1923 -0.0790
 9127W        W52221   0.422  14.665  18.778  0.1897  0.3532 -0.0157
 9128W        W52222   2.416  15.255  18.354  0.2804  0.0751  0.0443
 9129W        W52223   0.385  13.971  16.575 -0.0610 -0.0144 -0.0668
 9130W        W52224   2.440  11.931  19.219  0.1587  0.2317 -0.2758
 9131W        W52225   0.955  14.697  18.821 -0.2948  0.2902  0.0757
 9132W        W52226   2.142  12.516  17.271  0.0799 -0.3873  0.1130
 9133W        W52227   2.485  13.878  16.584 -0.3143 -0.1265  0.2224
 9134W        W52228   0.759  13.110  16.369  0.1966  0.2071  0.0507
 9135W        W52229   1.764  11.425  19.816  0.1515  0.0100 -0.0250
 9136W        W52230   3.558  12.782  18.588 -0.0853  0.2825  0.0137
 9137W        W52231   3.752  11.187  17.000  0.0963 -0.0064  0.0430
 9138W        W52232   1.989  12.091  18.981  0.0215 -0.0431  0.2237
 9139W        W52233   1.794  13.111  19.164  0.0637  0.1049 -0.2169
 9140W        W52234   2.491  13.998  19.411 -0.0408 -0.0585  0.1703
 9141W        W52235   0.938  11.775  19.729  0.2099 -0.0493 -0.2217
 9142W        W52236   3.049  15.633  19.204  0.0142  0.0142  0.1287
 9143W        W52237   2.193  12.051  16.401 -0.0310  0.0690 -0.0598
 9144W        W52238   3.893  12.208  18.964  0.1095  0.1922 -0.0384
 9145W        W52239   2.233  12.263  18.233 -0.0512  0.0240  0.0817
 9146W        W52240   3.599  12.822  16.956 -0.2414 -0.0310 -0.0568
 9147W        W52241   1.051  13.251  17.779 -0.0741  0.3255  0.0890
 9148W        W52242   2.098  12.957  20.736  0.3654  0.1772 -0.3099
 9149W        W52243   0.221  11.753  16.978 -0.1920  0.0438  0.0727
 9150W        W52244   0.671  12.481  20.681  0.0502  0.1305  0.2248
 9151W        W52245   1.560  13.614  17.202 -0.2608  0.1181  0.0750
 9152W        W52246   2.765  12.679  17.419 -0.1058 -0.3114 -0.0741
 9153W        W52247   1.151  12.193  17.983 -0.3142 -0.0267  0.0212
 9154W        W52248  34.379  11.907  18.345 -0.1129 -0.2869 -0.1975
 9155W        W52249   0.076  14.925  19.462 -0.1563  0.0179 -0.0737
 9156W        W52250  33.202  11.685  16.758  0.2145  0.0944  0.1997
 9157W        W52251   0.478  12.101  16.720  0.1358 -0.1016 -0.0312
 9158W        W52252   3.088  15.340  20.457 -0.0550 -0.1736 -0.1727
 9159W        W52253   2.978  12.957  19.899 -0.0975  0.0807 -0.0349
 9160W        W52254   3.581  10.724  18.332  0.1644  0.0271  0.2642
 9161W        W52255   3.259  12.434  18.181 -0.0519  0.1777 -0.2585
 9162W        W52256  33.946  13.176  16.987  0.3128  0.1698  0.0805
 9163W        W52257   0.930  11.745  18.764 -0.0751 -0.0265 -0.2368
 9164W        W52258   1.546  14.356  20.454 -0.2612 -0.0482  0.1275
 9165W        W52259  34.253  13.613  19.528 -0.0680  0.2030  0.2279
 9166W        W52260   1.211  13.462  18.219  0.1037 -0.0723 -0.1828
 9167W        W52261   1.555  12.309  19.110 -0.1560  0.0175  0.0849
 9168W        W52262   1.621  12.820  17.060  0.1287 -0.0337 -0.3637
 9169W        W52263   1.650  13.879  18.823 -0.1578 -0.1083 -0.0257
 9170W        W52264   4.004  12.621  18.738  0.2106  0.2493 -0.1280
 9171W        W52265   2.941  14.141  18.981  0.1227  0.0020 -0.1562
 9172W        W52266   0.777  14.007  18.818  0.1175 -0.2131 -0.1896
 9173W        W52267   3.064  13.750  19.234 -0.0795  0.2720 -0.0490
 9174W        W52268   1.554  13.473  18.550 -0.2236  0.1205 -0.0701
 9175W        W52269   2.499  14.465  17.836 -0.1393 -0.2254 -0.0543
 9176W        W52270   1.203  11.284  19.963  0.2225  0.2066 -0.1208
 9177W        W52271   1.909  12.631  19.188 -0.1731  0.1332  0.0448
 9178W        W52272   3.312  14.086  17.616 -0.2473 -0.2322  0.0707
 9179W        W52273   0.146  10.816  18.096 -0.1316  0.2141 -0.0289
 9180W        W52274   0.978  14.282  18.458 -0.2356  0.0285 -0.2349
 9181W        W52275  34.112  12.676  20.691 -0.0025  0.2701 -0.0960
 9182W        W52276   1.003  12.594  19.447  0.1367  0.0482  0.2624
 9183W        W52277   1.285  14.695  16.063 -0.2142 -0.0668  0.1931
 9184W        W52278   2.230  13.465  16.977  0.0549 -0.3776  0.0394
 9185W        W52279   1.626  13.387  16.767  0.1902  0.0315  0.0523
 9186W        W52280   2.580  14.947  18.785 -0.1657  0.0026  0.1655
 9187W        W52281  34.581  12.025  17.400  0.2126  0.1194  0.0357
 9188W        W52282   1.173  13.885  17.443  0.1548  0.1620 -0.0656
 9189W        W52283  34.423  14.650  16.294 -0.4070  0.1884 -0.0773
 9190W        W52284   0.907  14.413  17.467 -0.0955  0.0890  0.0578
 9191W        W52285   1.389  14.625  17.266 -0.0856  0.1540  0.0746
 9192W        W52286   3.953  13.507  19.063 -0.3221 -0.2072  0.0507
 9193W        W52287   1.937  11.671  16.616  0.1898  0.0079  0.2848
 9194W        W52288   3.080  12.546  18.661 -0.1465 -0.1474  0.0512
 9195W        W52289   2.715  14.266  17.452  0.0314  0.3671  0.2193
 9196W        W52290   2.890  14.883  20.636 -0.1274 -0.0399  0.2231
 9197W        W52291   1.714  13.597  19.229  0.0279  0.1627  0.1245
 9198W        W52292   0.405  10.928  16.651  0.1170 -0.0643 -0.2215
 9199W        W52293  34.447  12.132  20.983 -0.0158  0.0727  0.0988
 9200W        W52294   3.505  11.641  18.752  0.1735 -0.1138  0.1435
 9201W        W52295  33.931  13.711  19.120  0.1291 -0.0831 -0.0262
 9202W        W52296   1.186  14.506  16.520 -0.2209  0.1479  0.4771
 9203W        W52297  33.711  11.312  18.163  0.1063  0.2884  0.1456
 9204W        W52298   1.212  13.811  18.599  0.0056  0.1732 -0.1566
 9205W        W52299   4.116  10.723  18.073 -0.0570  0.2345 -0.2742
 9206W        W52300   1.571  13.622  16.295 -0.2102  0.0354 -0.0589
 9207W        W52301   2.091  11.988  17.546  0.2270 -0.3864 -0.0391
 9208W        W52302   1.496  15.184  17.276 -0.2907 -0.0645  0.0661
 9209W        W52303   2.219  13.495  19.393  0.0954  0.0089  0.4479
 9210W        W52304   0.705  14.281  20.447  0.0952  0.2058 -0.0928
 9211W        W52305  32.476  11.615  17.154 -0.1140  0.1295 -0.2807
 9212W        W52306   3.996  11.874  18.538 -0.0830  0.1389  0.3052
 9213W        W52307   2.752  13.506  20.538  0.1201  0.0755 -0.0053
 9214W        W52308   3.922  13.956  18.817  0.1333 -0.2348  0.1030
 9215W        W52309   0.666  12.924  17.823  0.1045  0.3305  0.1872
 9216W        W52310   2.632  12.056  16.869  0.0954  0.0681  0.0275
 9217W        W52311   2.883  13.326  19.050  0.2146  0.1674  0.1237
 9218W        W52312   1.418  14.108  19.481  0.1418  0.1310 -0.2598
 9219W        W52313   1.995  13.046  16.867  0.1019 -0.2531  0.0065
 9220W        W52314   2.172  14.218  20.061  0.0807 -0.0358 -0.0674
 9221W        W52315   1.447  11.314  15.793  0.2529 -0.0129  0.0691
 9222W        W52316   1.173  14.300  20.109 -0.0884  0.1360  0.0561
 9223W        W52317  33.542  12.506  18.770  0.4132 -0.3414  0.1658
 9224W        W52318   3.329  11.335  17.136  0.1256 -0.0309 -0.1058
 9225W        W52319   0.197  13.298  18.008  0.2160  0.1322  0.0828
 9226W        W52320   2.716  13.013  18.651 -0.1640  0.0498  0.1737
 9227W        W52321   2.635  14.230  19.944  0.0202 -0.1105  0.0151
 9228W        W52322  33.732  11.392  17.130 -0.0255 -0.0037 -0.1241
 9229W        W52323   2.769  13.881  16.177 -0.4190  0.1377 -0.0825
 9230W        W52324   2.422  13.530  17.961 -0.0000 -0.1637 -0.0118
 9231W        W52325   0.821  15.397  16.294  0.0066 -0.2315 -0.4587
 9232W        W52326   3.101  12.562  16.945 -0.0224  0.2440  0.1737
 9233W        W52327   3.160  14.699  18.406  0.1139  0.0972  0.0489
 9234W        W52328   0.415  11.285  18.516 -0.0470 -0.0033  0.0523
 9235W        W52329   1.897  14.836  19.634  0.0203 -0.0756  0.0742
 9236W        W52330   3.502  12.296  19.820 -0.3038  0.0432 -0.0013
 9237W        W52331   1.014  11.405  16.795 -0.1265 -0.0109 -0.3990
 9238W        W52332   1.387  14.810  18.555  0.0198 -0.0441 -0.0264
 9239W        W52333   0.255  14.376  16.960  0.2379  0.2304  0.1081
 9240W        W52334   3.132  11.518  17.618  0.0048 -0.2613  0.1513
 9241W        W52335   2.983  12.806  17.968 -0.3368 -0.2445 -0.0816
 9242W        W52336   0.201  14.724  16.524  0.1562 -0.3705 -0.1127
 9243W        W52337   4.931  10.635  18.570 -0.3760  0.0692  0.3506
 9244W        W52338   2.366  15.165  19.862  0.0692  0.0504 -0.1280
 9245W        W52339   0.141  14.964  19.962 -0.0358 -0.1465  0.0743
 9246W        W52340  34.074  12.042  16.110  0.2660 -0.2757 -0.0424
 9247W        W52341   1.852  15.177  20.030 -0.0078 -0.0340  0.1122
 9248W        W52342   3.982  13.630  17.559 -0.1076  0.1162  0.1061
 9249W        W52343   2.163  14.787  18.604  0.1162  0.0183 -0.2224
 9250W        W52344   3.915  13.904  18.282 -0.2143 -0.0000 -0.0572
 9251W        W52345   1.744  12.157  18.376 -0.1312 -0.0025  0.1535
 9252W        W52346   2.435  14.640  16.860 -0.0356 -0.0320  0.2859
 9253W        W52347   1.543  11.880  17.027  0.0582 -0.0747 -0.3651
 9254W        W52348   2.892  10.719  16.408  0.1951 -0.0001 -0.0024
 9255W        W52349   1.951  10.652  17.828  0.2029  0.0178 -0.0183
 9256W        W52350   1.239  13.827  19.087  0.0457  0.0392 -0.0581
 9257W        W52351  34.541  10.916  17.059  0.0528  0.2955  0.2244
 9258W        W52352   1.525  13.129  16.173 -0.0363 -0.0432  0.1375
 9259W        W52353   0.473  13.004  18.559  0.2214 -0.0869  0.2053
 9260W        W52354   2.389  11.388  19.420  0.0476  0.1667 -0.2469
 9261W        W52355   1.114  12.751  19.870 -0.1007 -0.1282  0.1420
 9262W        W52356   0.748  14.689  18.341  0.2380  0.1265  0.3732
 9263W        W52357   0.644  12.044  17.863  0.0992  0.1741  0.0841
 9264W        W52358   2.546  12.527  15.899 -0.2941  0.1540  0.0229
 9265W        W52359   1.022  12.392  18.915  0.0487 -0.1762 -0.3117
 9266W        W52360   0.587  11.505  18.991 -0.3148 -0.1409  0.1745
 9267W        W52361   1.932  13.384  15.614  0.1247 -0.0029 -0.1987
 9268W        W52362   2.164  14.355  18.221  0.0131  0.0559 -0.0963
 9269W        W52363   1.026  10.465  16.887 -0.1473 -0.0671 -0.0031
 9270W        W52364   2.745  14.752  19.930 -0.2061  0.0120  0.1060
 9271W        W52365  34.384  12.639  16.679 -0.3529 -0.4239 -0.2067
 9272W        W52366   0.549  13.415  17.669 -0.0583  0.3113  0.3196
 9273W        W52367   1.250  12.519  20.475  0.2469 -0.0366  0.0384
 9274W        W52368  34.684  12.391  17.711 -0.2067 -0.0262  0.4439
 9275W        W52369   2.247  12.949  19.567  0.0036 -0.0453 -0.1655
 9276W        W52370   2.556  13.829  17.114  0.2954 -0.0296 -0.1103
 9277W        W52371   2.720  13.375  16.294  0.1916  0.1628 -0.1046
 9278W        W52372   1.765  14.326  19.206 -0.1029 -0.0061 -0.0654
 9279W        W52373   0.569  14.470  21.588 -0.2063 -0.0557 -0.0927
 9280W        W52374   1.353  11.425  18.956 -0.4156  0.0285 -0.0932
 9281W        W52375   1.409  13.569  17.710 -0.1400 -0.0303 -0.3490
 9282W        W52376   1.728  13.905  21.126 -0.0399  0.2315 -0.1073
 9283W        W52377   3.180  14.134  15.603  0.1545 -0.1447 -0.1629
 9284W        W52378   2.621  11.762  17.696 -0.0332 -0.1670  0.1324
 9285W        W52379   1.673  13.933  18.336 -0.0242 -0.2936 -0.2191
 9286W        W52380   1.136  10.775  19.988 -0.0248 -0.1781 -0.2015
 9287W        W52381   0.934  13.287  20.217 -0.0575  0.0894  0.0510
 9288W        W52382   3.805  12.566  19.441 -0.0982 -0.0159 -0.3514
 9289W        W52383   1.407  11.798  18.157 -0.0811  0.1369  0.1622
 9290W        W52384   2.222  11.231  16.537 -0.0667 -0.2625  0.0222
 9291W        W52385   0.753  13.013  17.317  0.3834 -0.0656  0.3230
 9292W        W52386   0.456  12.094  17.412  0.0507  0.1706 -0.0177
 9293W        W52387   1.252  12.256  16.859 -0.2639  0.0543 -0.2248
 9294W        W52388   3.184  13.227  19.525  0.0172  0.0604  0.0578
 9295W        W52389   1.095  12.911  18.155 -0.0799  0.0611  0.3759
 9296W        W52390   2.752  13.019  20.409  0.1554 -0.3831 -0.2669
 9297W        W52391   0.634  12.128  18.444 -0.2405 -0.3609  0.0327
 9298W        W52392   2.716  13.157  17.712 -0.0693  0.1295 -0.3554
 9299W        W52393   2.980  13.713  18.621 -0.2214  0.0205 -0.0640
 9300W        W52394   1.339  15.747  19.404 -0.3062 -0.2262  0.0359
 9301W        W52395   1.719  15.506  19.155 -0.0213 -0.0558 -0.0239
 9302W        W52396   4.216  12.479  19.235 -0.2398 -0.3456  0.0288
 9303W        W52397  34.379  11.479  18.652 -0.2185  0.0130 -0.1443
 9304W        W52398   0.769  13.747  18.330  0.0913 -0.0215  0.1999
 9305W        W52399   2.895  13.453  18.110  0.0854 -0.2353  0.0918
 9306W        W52400   2.201  13.282  18.839 -0.1614 -0.2425 -0.0534
 9307W        W52401   1.571  12.552  18.115  0.0361 -0.0245 -0.0252
 9308W        W52402   1.621  12.710  17.578  0.0167 -0.0502 -0.0861
 9309W        W52403   1.085  14.941  19.376  0.0663 -0.3120  0.0486
 9310W        W52404   2.331  12.545  18.741 -0.0453 -0.3391  0.0547
 9311W        W52405   0.611  12.671  23.411 -0.4273 -0.0570 -0.1073
 9312W        W52406   0.680  11.881  21.415 -0.0412 -0.1753 -0.1634
 9313W        W52407   2.184  10.896  18.232 -0.0117  0.0925  0.1675
 9314W        W52408   2.474  12.089  19.672 -0.0976 -0.2312 -0.1289
 9315W        W52409   0.691  11.131  20.778  0.0605  0.0172  0.0527
 9316W        W52410   3.391  14.677  22.017 -0.1359  0.2177 -0.0098
 9317W        W52411   1.203  10.837  22.970  0.1549 -0.0658  0.1250
 9318W        W52412   3.006  12.587  21.005 -0.2259  0.0041 -0.1311
 9319W        W52413   1.939  14.864  22.295 -0.4267  0.2912  0.4165
 9320W        W52414   2.532  12.559  19.949  0.1814  0.1427  0.4636
 9321W        W52415   0.516  10.957  23.700  0.0698 -0.3161  0.1337
 9322W        W52416   2.084  14.418  22.429 -0.4347 -0.0747 -0.2613
 9323W        W52417   1.003  10.200  21.205  0.1267  0.3684 -0.0015
 9324W        W52418  34.186  10.066  22.399 -0.1537  0.2935  0.1878
 9325W        W52419   2.607  12.183  22.386  0.1542  0.3683  0.2593
 9326W        W52420   0.813  12.799  21.401  0.1307 -0.2332 -0.0207
 9327W        W52421   0.822  11.100  21.281 -0.1849  0.4441 -0.4920
 9328W        W52422   1.063  11.554  21.243 -0.2715  0.0466  0.2111
 9329W        W52423   2.633  15.598  20.639 -0.0277  0.1639  0.3338
 9330W        W52424   2.199  12.156  25.064 -0.1554  0.1176 -0.1389
 9331W        W52425   2.006  11.270  23.247  0.1446 -0.2012 -0.2062
 9332W        W52426   1.129  13.233  20.694  0.1475  0.0923  0.0094
 9333W        W52427   1.420  13.555  20.380 -0.2190  0.0730  0.2783
 9334W        W52428   0.714  11.729  23.302  0.2320 -0.0515  0.1519
 9335W        W52429   1.104  11.584  22.271 -0.2987 -0.2138  0.4023
 9336W        W52430   1.583  10.738  21.697  0.3017 -0.2041  0.3003
 9337W        W52431   2.055  12.505  21.021  0.0415  0.0242  0.2304
 9338W        W52432   0.971  13.459  22.532 -0.2798  0.1596  0.1331
 9339W        W52433   0.736  14.336  21.083 -0.1763  0.0033 -0.1847
 9340W        W52434   2.679  12.304  24.236  0.1912  0.0214  0.2839
 9341W        W52435   1.507  13.261  22.466  0.0358  0.0237 -0.1582
 9342W        W52436  34.540  14.797  22.736 -0.2321 -0.2059  0.1325
 9343W        W52437   0.918  13.352  21.145  0.0041  0.1945  0.1414
 9344W        W52438   2.905  14.317  21.215  0.0306 -0.0863 -0.1623
 9345W        W52439   2.762  15.564  23.834  0.0638  0.2733  0.0715
 9346W        W52440   0.730  14.914  23.037 -0.2501 -0.0008  0.0019
 9347W        W52441  34.635  13.160  21.574  0.0113  0.0336 -0.0859
 9348W        W52442   1.439  14.607  21.950  0.0524  0.1977  0.0371
 9349W        W52443   0.906  11.906  23.786 -0.0125 -0.0430  0.1386
 9350W        W52444   1.647  12.724  22.440 -0.2365 -0.0627 -0.0501
 9351W        W52445   2.772  12.756  21.683 -0.0170  0.0796 -0.1901
 9352W        W52446   1.049  13.700  21.864  0.0923  0.4425  0.1877
 9353W        W52447   1.716  12.180  22.888  0.0300  0.0495  0.1454
 9354W        W52448   2.295  14.074  23.394  0.1361  0.2614 -0.0487
 9355W        W52449   0.129  11.854  23.283 -0.0994 -0.2001 -0.1475
 9356W        W52450   3.849  10.759  23.746 -0.1485 -0.0158  0.0336
 9357W        W52451  34.549  13.480  22.259 -0.0937 -0.1806 -0.2424
 9358W        W52452   2.965  12.299  19.763  0.1818 -0.2358  0.2425
 9359W        W52453   1.256  11.161  20.943 -0.2261  0.0126 -0.0203
 9360W        W52454   2.217  11.734  19.928  0.1107 -0.3334  0.0185
 9361W        W52455  34.525  10.674  21.947  0.0790  0.0487 -0.0818
 9362W        W52456   1.800  14.059  23.221 -0.3595 -0.1844  0.4156
 9363W        W52457   1.493  10.303  22.942  0.2841  0.4118  0.1239
 9364W        W52458   1.108  13.980  22.651 -0.0023  0.0689 -0.2818
 9365W        W52459   2.558  12.845  20.843  0.3231 -0.2782  0.2194
 9366W        W52460   2.495  11.034  23.060  0.1969 -0.1378 -0.2927
 9367W        W52461   0.034  14.226  23.435  0.1995 -0.1484  0.1181
 9368W        W52462   2.060  12.609  22.786  0.0415 -0.2039  0.1146
 9369W        W52463   2.211  14.760  20.671 -0.3152  0.0810 -0.0345
 9370W        W52464   3.167  14.420  20.822  0.0927 -0.1756  0.0714
 9371W        W52465   2.176  13.721  21.340  0.2593 -0.0798 -0.0899
 9372W        W52466   0.785  12.199  23.058 -0.1060  0.3099 -0.1211
 9373W        W52467  34.573  12.362  24.040  0.0905 -0.0688 -0.1857
 9374W        W52468  34.074  11.946  23.115 -0.0032 -0.0477 -0.3046
 9375W        W52469   0.276  10.888  21.103  0.0315  0.3169  0.0633
 9376W        W52470   2.964  13.615  23.469  0.1174 -0.2148 -0.0216
 9377W        W52471   1.092  12.719  23.663  0.0962 -0.2937  0.0005
 9378W        W52472   2.347  11.121  22.006  0.0390  0.2031  0.0914
 9379W        W52473   2.173  13.016  22.475 -0.0039  0.1200  0.1046
 9380W        W52474   1.827  12.848  23.192 -0.1975  0.0884  0.2688
 9381W        W52475   2.395  13.386  20.972  0.0415  0.0817  0.4458
 9382W        W52476   4.995  10.313  21.852  0.2193  0.1108 -0.0946
 9383W        W52477   2.386  10.039  23.055  0.1680 -0.2238 -0.0789
 9384W        W52478   1.317  13.237  19.875 -0.0335  0.0112  0.0736
 9385W        W52479   1.620  13.217  20.750 -0.1046  0.0512  0.0029
 9386W        W52480   3.008  12.235  23.476 -0.1267  0.0354 -0.0261
 9387W        W52481   4.497  12.292  19.965  0.4790  0.2556  0.0814
 9388W        W52482   0.022  13.032  22.552 -0.2835  0.0215  0.0367
 9389W        W52483   1.294  12.267  23.913 -0.0589 -0.3433  0.0649
 9390W        W52484   2.491  13.993  23.810 -0.1142  0.0007 -0.0896
 9391W        W52485   1.110  13.918  20.566  0.0234 -0.3430  0.1885
 9392W        W52486   0.361  11.409  22.874  0.2869 -0.2254 -0.1984
 9393W        W52487  34.514  12.527  20.236 -0.0043  0.2011  0.2442
 9394W        W52488   1.204  10.403  23.371  0.0721 -0.0761 -0.2234
 9395W        W52489   1.258  13.035  22.886  0.2573 -0.0390 -0.0087
 9396W        W52490   2.420  12.140  20.269  0.1537  0.0571  0.0357
 9397W        W52491   1.431  11.138  23.749  0.2802  0.0512 -0.3493
 9398W        W52492   3.167  11.021  20.464 -0.0672  0.2031  0.0340
 9399W        W52493  33.783  14.198  22.935  0.0722  0.0272  0.1281
 9400W        W52494   3.456  15.249  21.194 -0.1111 -0.1998  0.1835
 9401W        W52495   3.758  12.063  20.837 -0.2134 -0.1121 -0.2261
 9402W        W52496   3.961  13.856  20.435 -0.0217  0.4215  0.0029
 9403W        W52497   1.541  11.110  23.264  0.3001  0.0607 -0.1621
 9404W        W52498  33.857  12.290  21.698  0.0184  0.2197 -0.1714
 9405W        W52499  34.453  12.203  23.473  0.1676 -0.0983  0.2774
 9406W        W52500  34.531  11.732  22.848 -0.0292  0.3189 -0.3247
 9407W        W52501   1.525  11.982  23.414 -0.0630  0.0123  0.2444
 9408W        W52502   1.092  10.665  21.483  0.0083 -0.3838 -0.1244
 9409W        W52503   3.459  13.074  20.868  0.2211 -0.0050 -0.0652
 9410W        W52504   2.047  11.569  21.429  0.2637  0.1667  0.3159
 9411W        W52505   0.222  13.208  21.987  0.1665  0.0557 -0.0765
 9412W        W52506   4.729   9.929  23.496 -0.0136 -0.0022 -0.2678
 9413W        W52507   0.055  14.268  21.670  0.0809  0.0649  0.0761
 9414W        W52508   3.071  12.838  22.041  0.0399  0.1163 -0.0713
 9415W        W52509   2.839  14.590  22.135  0.0449 -0.3304  0.0630
 9416W        W52510   2.675  11.541  23.703  0.1373 -0.0283  0.1489
 9417W        W52511   0.972  11.964  20.475 -0.0234  0.1906 -0.1808
 9418W        W52512   0.166  15.048  23.079 -0.0587  0.1487 -0.2082
 9419W        W52513   2.424  14.285  22.051  0.1177  0.0060  0.1416
 9420W        W52514   1.507  11.684  20.901  0.0011  0.1030  0.0252
 9421W        W52515   2.401  13.530  22.133  0.0221  0.2033 -0.0894
 9422W        W52516   1.931  12.282  20.177  0.3932 -0.2758  0.0803
 9423W        W52517   0.521  13.973  24.209  0.2904 -0.3028 -0.0744
 9424W        W52518   1.782  11.267  22.785 -0.0262  0.2779  0.0515
 9425W        W52519   3.148  11.523  22.487  0.1093 -0.2622 -0.0176
 9426W        W52520   2.498  12.048  21.834  0.0231 -0.1663  0.1071
 9427W        W52521   0.824  13.087  19.557 -0.0590  0.0581  0.0409
 9428W        W52522   2.332  14.417  21.510  0.0956  0.1666  0.2815
 9429W        W52523  33.612  14.184  20.220  0.2512 -0.0160  0.0130
 9430W        W52524   1.085  13.221  22.111  0.1918 -0.1085 -0.1042
 9431W        W52525   1.518  13.473  21.837  0.0213 -0.0155  0.1698
 9432W        W52526   2.656  11.673  22.190 -0.1073  0.2351  0.1865
 9433W        W52527  34.571  12.651  25.050 -0.2684 -0.1190 -0.0170
 9434W        W52528   1.709  12.326  24.256  0.1239  0.1245  0.0032
 9435W        W52529   1.705  13.041  22.090 -0.0866  0.3522  0.0547
 9436W        W52530   0.410  13.648  24.607 -0.4476 -0.2371 -0.0509
 9437W        W52531   2.115  11.112  20.937 -0.0416  0.2884 -0.3811
 9438W        W52532   3.493  12.478  21.131  0.1580 -0.6645 -0.0638
 9439W        W52533   1.344  11.178  22.480 -0.0404  0.1349  0.1183
 9440W        W52534   2.926  13.900  20.854  0.3030  0.1318  0.1297
 9441W        W52535   1.439  11.519  19.468  0.0923 -0.0940  0.3716
 9442W        W52536   1.987  12.094  20.676  0.2773 -0.2636 -0.0243
 9443W        W52537  34.377  14.318  22.904 -0.2491  0.2087 -0.1637
 9444W        W52538   2.302  15.180  20.384  0.1580  0.0350  0.3237
 9445W        W52539   1.183  12.429  22.579  0.1179  0.2600 -0.0043
 9446W        W52540   2.903  12.387  19.267  0.1187 -0.3145 -0.2746
 9447W        W52541   3.340  13.644  20.815 -0.0264  0.2599 -0.0657
 9448W        W52542   0.287  12.353  23.157  0.1564  0.0976  0.0033
 9449W        W52543   2.948  14.806  22.822  0.1688  0.0871  0.1733
 9450W        W52544   3.136  13.862  22.481 -0.0659 -0.0819  0.2570
 9451W        W52545   2.846  11.986  23.902 -0.0342  0.2305 -0.1173
 9452W        W52546   2.055  13.397  21.702  0.0678  0.0282 -0.0397
 9453W        W52547   1.448  12.140  21.700  0.1094 -0.3744 -0.0430
 9454W        W52548  33.559  15.043  19.546  0.0926  0.0745  0.3321
 9455W        W52549   1.835  11.380  22.274  0.1496 -0.0599 -0.2136
 9456W        W52550   2.621  10.668  22.063  0.0665  0.0104 -0.0004
 9457W        W52551  34.487  11.261  22.010 -0.0108  0.1987 -0.1318
 9458W        W52552   2.609  12.458  23.610 -0.2539 -0.0931  0.3322
 9459W        W52553   2.569  11.510  21.718  0.0966  0.2064 -0.3391
 9460W        W52554   2.531  11.986  23.474 -0.0055  0.0594 -0.0679
 9461W        W52555   1.336  13.145  21.288 -0.0221 -0.2678  0.2109
 9462W        W52556   4.383  10.472  24.930  0.1005  0.0313  0.0939
 9463W        W52557   0.884  10.218  24.578 -0.2682 -0.2661  0.0390
 9464W        W52558  33.901  12.743  23.640  0.0055  0.0082 -0.2131
 9465W        W52559   3.052  13.940  22.983 -0.1132 -0.2863  0.3965
 9466W        W52560   3.215  13.291  22.308  0.5848 -0.0803 -0.0378
 9467W        W52561   2.599  10.801  24.630  0.1321 -0.2283 -0.1891
 9468W        W52562   1.881  11.757  20.320 -0.0302 -0.2095  0.1114
 9469W        W52563  34.658  14.493  20.070  0.2251 -0.0574  0.3678
 9470W        W52564   2.906  12.340  21.977 -0.1831  0.0265  0.3709
 9471W        W52565   1.719   9.038  22.150 -0.1067  0.2486 -0.1658
 9472W        W52566   1.583  11.683  21.965  0.1923 -0.1274 -0.0505
 9473W        W52567   0.685  13.769  20.358 -0.0740 -0.1951 -0.0331
 9474W        W52568   3.187  12.998  24.079  0.1071  0.0665  0.0913
 9475W        W52569   0.485  14.342  22.091 -0.2328 -0.0657 -0.0737
 9476W        W52570   3.400  10.528  22.278 -0.0120 -0.0140 -0.1281
 9477W        W52571  33.965  13.482  22.770 -0.3305 -0.3039  0.2733
 9478W        W52572   0.622  11.962  20.873 -0.0715 -0.2484 -0.2535
 9479W        W52573   0.674  12.412  22.521  0.0526  0.0193 -0.3061
 9480W        W52574   2.652  11.915  20.669  0.0852  0.1277  0.1225
 9481W        W52575   2.772  12.294  21.457  0.2261  0.2986 -0.1362
 9482W        W52576   2.092  10.886  22.906 -0.1749  0.1026  0.2158
 9483W        W52577   2.454  10.287  22.630  0.3947  0.0291 -0.0282
 9484W        W52578  33.778  14.062  23.690 -0.1720 -0.4188 -0.0501
 9485W        W52579   2.306  11.984  23.987 -0.2342  0.2128  0.3105
 9486W        W52580   4.019  11.625  21.129 -0.2631  0.0660 -0.0394
 9487W        W52581   2.785  13.183  23.094 -0.0920  0.2077  0.1586
 9488W        W52582   2.034  13.594  23.170 -0.0922 -0.0298 -0.0670
 9489W        W52583   0.604  12.326  22.052 -0.2535 -0.1526 -0.0344
 9490W        W52584   2.330  12.612  23.199 -0.1334  0.1910 -0.4155
 9491W        W52585   0.674  11.845  22.018  0.0561 -0.2087 -0.0791
 9492W        W52586  34.361  15.575  22.623  0.1207 -0.2065 -0.1565
 9493W        W52587   2.625  14.476  22.550  0.0832  0.1524 -0.2672
 9494W        W52588   2.299  13.331  20.395 -0.0593 -0.1013  0.1155
 9495W        W52589   0.380  13.401  21.078 -0.4699  0.5191 -0.2446
 9496W        W52590   0.140  11.930  24.982  0.3263 -0.1020  0.1040
 9497W        W52591   2.068  12.986  24.099  0.1619  0.1727  0.1265
 9498W        W52592   2.473  11.486  23.248 -0.2102  0.0903  0.1954
 9499W        W52593  34.555  11.194  22.789  0.4684 -0.0234  0.0362
 9500W        W52594   1.626  12.253  22.236 -0.0164 -0.3299  0.4252
 9501W        W52595   1.797  11.209  21.828  0.0027 -0.0353 -0.1237
 9502W        W52596   1.796  12.159  23.761 -0.0217 -0.0258 -0.1591
 9503W        W52597   0.175  14.325  22.917  0.0283 -0.0962  0.1243
 9504W        W52598   1.719  10.367  21.977  0.0466  0.2529 -0.0053
 9505W        W52599   3.716  14.454  20.761 -0.0523 -0.0045  0.1131
 9506W        W52600   1.877  13.155  23.615  0.1571  0.1829 -0.1274
 9507W        W52601   0.205  12.799  20.607  0.1127  0.0746  0.2434
 9508W        W52602  33.297  14.015  23.338 -0.0203 -0.1963 -0.2590
 9509W        W52603   1.317  13.680  21.387 -0.3828  0.3084  0.2370
 9510W        W52604   1.077  11.801  21.686  0.2218  0.0417  0.1967
 9511W        W52605   1.181  12.601  22.106  0.0886 -0.2513  0.0894
 9512W        W52606   1.203  12.906  21.703  0.1346  0.1558  0.0123
 9513W        W52607   1.367  12.593  23.120 -0.1719  0.3250 -0.0621
 9514W        W52608   1.934  10.891  19.642 -0.1981  0.1906 -0.3464
 9515W        W52609   2.733  14.131  21.715  0.1297 -0.1026  0.1265
 9516W        W52610   1.111  10.889  23.459 -0.1591  0.0546  0.0114
 9517W        W52611   3.404  12.112  23.757  0.1658  0.0381 -0.1548
 9518W        W52612   2.907  13.433  19.947 -0.0855  0.0291 -0.1168
 9519W        W52613   2.919  11.920  24.500  0.0954  0.3480 -0.1390
 9520W        W52614   2.192  10.760  24.343  0.0014 -0.2190  0.2960
 9521W        W52615   2.180  12.402  22.147 -0.1407  0.0251 -0.2114
 9522W        W52616  33.769  13.185  23.402  0.0485  0.3420 -0.0852
 9523W        W52617   0.673  13.752  22.864  0.4821 -0.0580  0.1778
 9524W        W52618  34.474  12.750  23.823 -0.0495  0.1881 -0.0115
 9525W        W52619   1.499  10.524  21.134  0.0070 -0.1551  0.0088
 9526W        W52620   0.282  12.332  20.264  0.1034  0.0565  0.2027
 9527W        W52621   1.157  11.421  22.912  0.2039  0.0013 -0.1071
 9528W        W52622   2.084  12.555  21.635 -0.1534 -0.2802 -0.0943
 9529W        W52623   1.110  12.827  20.980 -0.0459  0.2442 -0.2505
 9530W        W52624   2.782  11.137  22.288 -0.0114 -0.0127  0.0735
 9531W        W52625   0.324  11.503  24.125  0.0610  0.2341  0.3113
 9532W        W52626   3.212  12.826  20.404 -0.0534  0.1534 -0.0272
 9533W        W52627   2.428  13.943  20.823  0.1361 -0.0209  0.1671
 9534W        W52628   2.684  10.970  21.654  0.0971  0.1394  0.0596
 9535W        W52629   1.073  12.383  25.152  0.2130 -0.2107  0.1649
 9536W        W52630   1.582  12.277  20.860  0.0211 -0.0594  0.0815
 9537W        W52631   2.898  11.407  21.385  0.0315  0.1154  0.1793
 9538W        W52632   2.903  10.266  23.873  0.0671 -0.2302 -0.0173
 9539W        W52633   2.118  11.626  22.858  0.0770 -0.0479 -0.0507
 9540W        W52634   1.147  11.523  23.399  0.1443 -0.1904  0.0938
 9541W        W52635   0.527  10.511  22.381  0.1219  0.1193  0.0247
 9542W        W52636   3.763  14.588  23.957  0.0229  0.1475 -0.4292
 9543W        W52637   2.574  12.315  20.975  0.2262  0.2252  0.0221
 9544W        W52638   2.164  11.961  22.521  0.0202  0.5228 -0.1074
 9545W        W52639   4.430  11.355  21.578 -0.0522  0.0646  0.1818
 9546W        W52640   1.673  12.845  21.048  0.1263 -0.2531 -0.0281
 9547W        W52641   0.320  11.947  22.691 -0.0199 -0.0642 -0.0957
 9548W        W52642   2.049  11.772  23.328 -0.3549 -0.1258  0.1685
 9549W        W52643   0.547   9.941  21.161  0.0979  0.1297 -0.1441
 9550W        W52644   3.051  10.590  24.911 -0.1150 -0.1818 -0.3268
 9551W        W52645  34.601  14.452  20.553 -0.2999 -0.0670  0.0943
 9552W        W52646   1.789  13.413  21.217  0.1028 -0.3941 -0.0517
 9553W        W52647   3.039  12.044  20.306  0.3751 -0.2680  0.1720
 9554W        W52648  33.190  11.147  22.358  0.1164 -0.2685  0.2403
 9555W        W52649  33.505  14.456  23.622  0.0898 -0.1927 -0.1007
 9556W        W52650   0.140  12.827  19.905 -0.1661  0.1872 -0.0383
 9557W        W52651   1.749  12.724  20.486  0.3029 -0.0544  0.0900
 9558W        W52652   1.650  12.581  21.902  0.1182  0.1955  0.2138
 9559W        W52653   2.387  12.969  23.606 -0.3382 -0.2309 -0.1930
 9560W        W52654   3.205  10.756  20.996  0.3179  0.1192 -0.1148
 9561W        W52655   3.473  11.197  22.994  0.1145  0.1181  0.1521
 9562W        W52656  33.236  14.505  22.654 -0.0470  0.4252  0.1088
 9563W        W52657   1.741  11.156  21.331 -0.0195  0.4440 -0.0683
 9564W        W52658   0.621  13.967  21.824  0.0298 -0.2313  0.1054
 9565W        W52659   0.166  13.681  21.651 -0.1466 -0.2171 -0.0153
 9566W        W52660  34.528  13.846  21.987 -0.0426 -0.2453  0.2950
 9567W        W52661   3.470  10.899  20.079 -0.0947 -0.0148  0.0733
 9568W        W52662   0.633  11.394  22.253  0.1622 -0.1484  0.0973
 9569W        W52663   1.347  11.236  21.987 -0.3924 -0.1654  0.1424
 9570W        W52664   2.811  12.316  22.951  0.0783 -0.0990  0.3119
 9571W        W52665   1.568  12.614  23.561  0.5482 -0.2456 -0.2067
 9572W        W52666   2.180  12.942  21.965  0.1887  0.1158  0.0293
 9573W        W52667   3.603  14.007  22.561  0.1288 -0.2078 -0.0048
 9574W        W52668   3.670  13.726  21.548 -0.2635 -0.3744  0.1053
 9575W        W52669   0.632  12.909  21.929 -0.2049  0.0481  0.0775
 9576W        W52670  33.565  12.267  23.377  0.0210 -0.1862 -0.3184
 9577W        W52671   1.478  12.928  23.932  0.0267 -0.0869 -0.0218
 9578W        W52672   4.010  12.916  20.898  0.3778 -0.1948  0.0144
 9579W        W52673   0.769  10.947  21.917  0.1447  0.1832 -0.3610
 9580W        W52674   1.778  12.997  21.585  0.3784 -0.1665  0.1622
 9581W        W52675  34.223  13.667  23.573  0.0623 -0.0860 -0.1294
 9582W        W52676   2.739  10.501  23.090 -0.0722  0.0777 -0.2130
 9583W        W52677  34.103  14.386  19.893  0.2104 -0.3230 -0.2525
 9584W        W52678   3.646  12.596  20.707 -0.0187 -0.1047  0.1681
 9585W        W52679   0.892  12.837  20.373  0.2000 -0.0121 -0.0270
 9586W        W52680   1.816  14.107  22.709  0.1746  0.2490 -0.0913
 9587W        W52681   1.357  12.993  20.311  0.1268  0.2268  0.2394
 9588W        W52682  34.162  13.172  22.424  0.1343  0.0177  0.0292
 9589W        W52683  33.359  11.905  20.307  0.0077 -0.0306  0.2739
 9590W        W52684   2.980  13.243  20.900  0.2019 -0.2015 -0.3006
 9591W        W52685   0.404  13.055  21.491  0.1659 -0.0098  0.2382
 9592W        W52686   2.457  13.485  23.455 -0.0362  0.2684  0.0220
 9593W        W52687   2.507  13.155  19.951  0.1241  0.1377 -0.3761
 9594W        W52688   2.216  13.542  22.666 -0.1046 -0.0567  0.3299
 9595W        W52689   3.153  10.805  21.483  0.1102  0.1929 -0.3234
 9596W        W52690   1.394  14.375  22.812 -0.2059 -0.0005  0.1488
 9597W        W52691   1.123  10.585  20.800  0.0516  0.3530 -0.1597
 9598W        W52692   2.106  10.880  20.458  0.4694 -0.1024  0.3020
 9599W        W52693   1.849  11.153  24.127 -0.0572 -0.0103 -0.0901
 9600W        W52694   4.308  10.457  23.768 -0.1147 -0.0087 -0.1151
 9601W        W52695  34.298  14.643  24.324  0.0078 -0.0837 -0.4426
 9602W        W52696   1.730  13.881  21.638 -0.2771  0.0065  0.0587
 9603W        W52697   0.838  11.391  21.762 -0.1431 -0.2607 -0.3828
 9604W        W52698   1.573  11.679  21.488  0.1256  0.0417  0.1100
 9605W        W52699   2.592  11.797  22.776  0.0580 -0.0019  0.0605
 9606W        W52700   0.392  13.384  20.163  0.1666 -0.0841 -0.1696
 9607W        W52701   2.277  12.087  21.393 -0.1203  0.0320  0.1678
 9608W        W52702  34.441  13.937  21.458  0.3570 -0.6149  0.4855
 9609W        W52703   1.053  12.908  22.481 -0.0644 -0.1675  0.3044
 9610W        W52704   0.345  14.262  20.751 -0.0912  0.0089  0.2093
 9611W        W52705  32.641  11.721  21.227  0.2341  0.1853  0.0870
 9612W        W52706   4.114  12.971  22.089  0.1053 -0.2753  0.0137
 9613W        W52707   1.240  11.961  23.042 -0.1231  0.0790  0.1653
 9614W        W52708   3.218  10.933  22.550 -0.0670  0.0909 -0.1436
 9615W        W52709   0.923  12.258  21.687 -0.0715  0.3277 -0.0762
 9616W        W52710   2.949  11.854  21.726  0.0535  0.0018  0.3875
 9617W        W52711   1.632  11.572  23.112  0.2274  0.1769  0.1134
 9618W        W52712   0.990  12.060  24.372  0.0419  0.0978 -0.2834
 9619W        W52713   1.294  13.337  19.021  0.1255  0.1423 -0.0803
 9620W        W52714   2.332  12.666  25.019  0.3745  0.0556 -0.2922
 9621W        W52715   1.473  12.122  20.293  0.0337 -0.0147  0.0040
 9622W        W52716   3.108  14.473  23.146  0.1797  0.0186 -0.3909
 9623W        W52717   0.381  11.844  20.343  0.1038  0.4396  0.0208
 9624W        W52718   1.369  12.504  21.318  0.0186  0.4508 -0.2802
 9625W        W52719   2.604  12.744  22.167 -0.0660 -0.2021 -0.3215
 9626W        W52720   0.926  11.917  22.638 -0.0321  0.1306 -0.5443
 9627W        W52721   3.527  14.809  23.568  0.0351 -0.2446 -0.0377
 9628W        W52722  34.288  12.566  21.806  0.0179 -0.0778 -0.1713
 9629W        W52723   2.678  14.426  20.777  0.0352  0.1082  0.0254
 9630W        W52724   2.810  12.478  20.525 -0.1410  0.1172 -0.2160
 9631W        W52725   1.998  13.526  20.747 -0.1656 -0.2670 -0.2629
 9632W        W52726   3.226  13.326  20.431  0.1787 -0.1369  0.0149
 9633W        W52727   2.835  14.668  21.644  0.0624 -0.2585  0.1321
 9634W        W52728  34.116  11.393  22.863  0.0569 -0.0288  0.2532
 9635W        W52729   3.099  14.175  22.066 -0.1241  0.0556 -0.2985
 9636W        W52730   2.902  13.152  24.443  0.0770 -0.0180  0.0717
 9637W        W52731   1.326  11.504  20.353 -0.0448 -0.1014  0.2760
 9638W        W52732   1.142  12.066  22.179 -0.0405 -0.0620 -0.1892
 9639W        W52733   0.698  13.663  21.426 -0.1388  0.0832 -0.0813
 9640W        W52734   3.849  11.111  23.356  0.2082  0.2633 -0.0259
 9641W        W52735   3.765  10.888  22.698  0.0243 -0.1277 -0.1457
 9642W        W52736  34.530  14.427  19.575 -0.0808  0.2016 -0.3218
 9643W        W52737   2.535  10.807  22.585  0.2964  0.1944 -0.0965
 9644W        W52738   1.317  13.219  24.281  0.1231 -0.3301  0.0762
 9645W        W52739   0.880  14.098  23.817  0.1222  0.2495  0.4001
 9646W        W52740   1.960  13.890  19.595 -0.3668  0.2012 -0.1752
 9647W        W52741   0.766  11.448  23.799 -0.1685 -0.1961 -0.1796
 9648W        W52742   0.462  12.504  21.598 -0.0160 -0.2914  0.2171
 9649W        W52743   1.492  15.364  20.552  0.0192 -0.0174 -0.0294
 9650W        W52744   2.147  13.900  22.316 -0.5092  0.1115 -0.2728
 9651W        W52745   3.245  12.461  21.647  0.2073  0.1198  0.3244
 9652W        W52746   3.936  12.474  22.212  0.1048  0.2557 -0.1838
 9653W        W52747   1.275  10.217  21.738 -0.0837  0.0044  0.4222
 9654W        W52748   2.643  10.958  19.569  0.0982  0.1059 -0.0378
 9655W        W52749   2.002  11.640  20.946 -0.0035  0.1909 -0.0862
 9656W        W52750  34.502  12.686  23.250  0.1941 -0.2081 -0.1312
 9657W        W52751   0.145  12.252  20.725 -0.0312  0.0954 -0.0692
 9658W        W52752   0.048  13.377  20.604 -0.1697 -0.0701  0.1031
 9659W        W52753   1.070  12.300  23.430 -0.1331 -0.0443  0.1402
 9660W        W52754   2.104  10.013  23.597 -0.2340  0.1640  0.3458
 9661W        W52755   0.027  11.050  25.397 -0.1574  0.2277 -0.1300
 9662W        W52756   0.261  11.425  23.592  0.0783 -0.1239  0.1670
 9663W        W52757   0.120  10.954  21.617  0.2173  0.2312 -0.0528
 9664W        W52758   2.587  14.725  21.179  0.1043 -0.0765  0.1279
 9665W        W52759  34.545  12.610  20.987  0.0343 -0.0765 -0.0097
 9666W        W52760   0.996  10.304  22.258 -0.1852 -0.1980 -0.0294
 9667W        W52761   1.939  14.738  21.718 -0.0850 -0.2900  0.0313
 9668W        W52762   1.595  14.889  21.287  0.0100  0.1867  0.3018
 9669W        W52763   0.122  11.556  22.367 -0.2152 -0.5005 -0.2440
 9670W        W52764   2.653  13.449  23.924  0.1540 -0.0973  0.2708
 9671W        W52765  34.271  12.242  20.542 -0.4099 -0.0705  0.5188
 9672W        W52766   3.021  11.066  24.852 -0.4176 -0.0920 -0.3124
 9673W        W52767   1.692  10.656  23.181 -0.2411  0.1602 -0.1749
 9674W        W52768  34.181  11.911  21.328 -0.0686 -0.0078  0.5323
 9675W        W52769   1.866  10.911  23.601  0.0647  0.0155 -0.0052
 9676W        W52770   3.946  13.275  21.745  0.0052  0.0184 -0.1986
 9677W        W52771   2.938  15.227  20.962  0.1862 -0.0321 -0.1174
 9678W        W52772   0.850  13.068  23.329 -0.1050 -0.3591 -0.0614
 9679W        W52773   0.374  12.818  22.917 -0.0222 -0.2010 -0.0601
 9680W        W52774   0.942   9.920  24.154 -0.2754  0.1723 -0.0376
 9681W        W52775   3.228  11.786  19.862  0.2018  0.0371 -0.0547
 9682W        W52776   1.491  11.919  24.387 -0.1938 -0.0315 -0.0593
 9683W        W52777   4.467  13.658  20.418  0.1742 -0.1410  0.1591
 9684W        W52778   3.533  11.756  22.927 -0.1415  0.3891  0.1799
 9685W        W52779   1.096  11.025  20.458 -0.1601 -0.1509  0.2692
 9686W        W52780   1.685  10.272  25.172 -0.3299  0.0326 -0.4007
 9687W        W52781   0.066  13.509  23.525 -0.0950  0.0200  0.1582
 9688W        W52782   2.331  12.166  23.053  0.0878  0.0963  0.0671
 9689W        W52783   0.601   9.919  21.840 -0.1575  0.2320  0.1795
 9690W        W52784   2.289  11.128  21.381  0.2384  0.0442  0.1974
 9691W        W52785   2.391  13.765  19.851 -0.0544 -0.0945  0.2466
 9692W        W52786   1.869  11.727  24.112 -0.3264  0.1724 -0.1589
 9693W        W52787   2.159  12.827  20.146 -0.2398 -0.0642  0.0466
 9694W        W52788   3.397  11.008  23.545  0.2288  0.1257  0.1274
 9695W        W52789   1.762  13.263  22.876 -0.0653  0.1609  0.0571
 9696W        W52790   2.586  13.755  23.018 -0.1426  0.2242  0.0122
 9697W        W52791  34.614  11.961  20.144  0.0711 -0.1674 -0.0322
 9698W        W52792   3.287  13.461  21.318  0.0652  0.0359  0.3203
 9699W        W52793   1.958  13.762  23.635  0.3971  0.2739 -0.1451
 9700W        W52794   2.018  16.633  23.866  0.0562  0.0290 -0.1451
 9701W        W52795   1.515  13.695  22.787 -0.4128  0.1373  0.1026
 9702W        W52796   3.428  12.828  22.404 -0.1219  0.1006  0.1620
 9703W        W52797   1.229  10.675  22.011  0.0795  0.1374  0.2251
 9704W        W52798   0.774  12.370  21.216  0.3583 -0.1085 -0.1046
 9705W        W52799   1.947  12.085  21.833 -0.1283  0.2127 -0.0940
 9706W        W52800   2.997  11.273  23.433 -0.2095 -0.0074  0.2190
 9707W        W52801  34.480  11.641  21.735 -0.1264 -0.1215  0.2081
 9708W        W52802   2.729  11.772  20.011 -0.2704 -0.0936 -0.1523
 9709W        W52803   1.146  15.418  22.798 -0.0917 -0.1244  0.1762
 9710W        W52804   1.534  11.623  22.552 -0.0373 -0.2066 -0.1271
 9711W        W52805   2.128  14.128  26.513 -0.1423  0.0608 -0.2874
 9712W        W52806   1.553  12.448  25.305  0.2273 -0.1280  0.0134
 9713W        W52807   2.906  12.249  25.673  0.0878 -0.4043  0.0519
 9714W        W52808   3.891  12.213  24.042 -0.0768 -0.0857  0.1107
 9715W        W52809   0.470  10.737  25.262  0.1395 -0.3546 -0.0566
 9716W        W52810   2.548  15.057  24.549  0.0029 -0.1263  0.0177
 9717W        W52811   2.076  11.063  26.530  0.0974  0.0825  0.0963
 9718W        W52812   2.226  14.495  25.607  0.4052 -0.0334  0.1216
 9719W        W52813   3.022  14.417  25.126 -0.0602  0.1504  0.2683
 9720W        W52814   1.938  13.826  24.451  0.1331 -0.0621  0.0086
 9721W        W52815   3.792  12.463  26.525 -0.2190  0.1622 -0.1436
 9722W        W52816   0.644  13.613  26.442 -0.0019  0.0958  0.1657
 9723W        W52817   1.139  11.761  25.280  0.2940 -0.1640 -0.1287
 9724W        W52818   0.947  10.003  25.016 -0.1681 -0.5826 -0.0420
 9725W        W52819   3.386  11.766  27.694  0.1163  0.4450  0.2509
 9726W        W52820   1.434  10.937  24.270  0.3568 -0.1125 -0.0310
 9727W        W52821   2.420  12.294  26.902 -0.3024 -0.0053  0.2675
 9728W        W52822   0.090  12.241  25.528  0.2631 -0.0227  0.2659
 9729W        W52823   1.762  15.366  25.865 -0.2977  0.0172  0.1407
 9730W        W52824   2.033  10.684  26.899  0.0154  0.0799  0.2469
 9731W        W52825   3.238  11.591  27.120  0.0626 -0.3695  0.1283
 9732W        W52826   0.908  13.119  24.636  0.3417 -0.1721 -0.0194
 9733W        W52827  34.602  11.177  24.940 -0.1307 -0.1962  0.3021
 9734W        W52828  34.236  12.000  26.237  0.3584 -0.1689 -0.1602
 9735W        W52829   2.693  11.810  26.545  0.1228  0.2552 -0.2564
 9736W        W52830   3.199  11.357  24.459  0.2301  0.1715 -0.1448
 9737W        W52831   3.380  13.026  24.662 -0.0606  0.0749 -0.1949
 9738W        W52832   1.162  14.246  24.269 -0.0078 -0.1195  0.1307
 9739W        W52833   2.311  13.524  25.637  0.0761 -0.2685  0.0725
 9740W        W52834   3.303  12.911  26.092 -0.2607  0.1253  0.1518
 9741W        W52835  34.388  12.025  25.281  0.0177  0.0412  0.0571
 9742W        W52836  34.617  13.961  24.948  0.0296 -0.1306  0.2825
 9743W        W52837   0.800  15.089  24.516  0.2781  0.0507 -0.1257
 9744W        W52838   2.918  13.658  24.304 -0.2736  0.0459  0.0154
 9745W        W52839   3.337  13.901  25.825 -0.2226 -0.3225 -0.3145
 9746W        W52840   1.689  14.427  25.637 -0.2050 -0.2161  0.2083
 9747W        W52841   0.524  13.813  25.133  0.0451  0.1631 -0.3677
 9748W        W52842   1.648  15.719  26.653  0.0590 -0.0978 -0.1406
 9749W        W52843   1.876  13.769  27.400  0.1376  0.0347 -0.1177
 9750W        W52844   1.975  11.332  28.075  0.0475 -0.0855 -0.2691
 9751W        W52845   3.302  14.036  26.664 -0.0114 -0.3960  0.1488
 9752W        W52846   0.414  13.944  23.669 -0.0807 -0.1419 -0.2409
 9753W        W52847   1.864  13.308  25.563  0.2489  0.0176 -0.2836
 9754W        W52848   0.884  14.277  27.231 -0.0641  0.0663 -0.2711
 9755W        W52849   0.104  13.004  26.799 -0.1703  0.1074 -0.0405
 9756W        W52850   2.744  11.528  27.002  0.2501 -0.1730  0.0064
 9757W        W52851   0.437  14.150  24.671 -0.0102 -0.0178 -0.1109
 9758W        W52852   2.003  12.709  25.364 -0.1894 -0.0213  0.2905
 9759W        W52853   2.196  11.097  24.707 -0.2199 -0.1861  0.2435
 9760W        W52854   3.799  12.092  24.756  0.0699  0.2770  0.0099
 9761W        W52855   3.362  10.404  25.425 -0.0148  0.0235  0.3373
 9762W        W52856   0.840  13.810  25.756  0.4188  0.0742 -0.1463
 9763W        W52857   0.867  12.675  28.420 -0.2487  0.0226 -0.2649
 9764W        W52858   3.463  13.686  28.210  0.0210 -0.1466 -0.1023
 9765W        W52859   2.510  11.352  25.567 -0.1744  0.0680  0.0400
 9766W        W52860   3.265  12.542  26.438  0.1057  0.2413  0.1065
 9767W        W52861   1.330  13.369  25.594  0.0737 -0.0953 -0.4052
 9768W        W52862   1.609  12.369  25.939  0.0328  0.2373  0.2550
 9769W        W52863   4.596  12.743  23.579  0.1924 -0.1021 -0.1949
 9770W        W52864   3.885  13.498  24.185 -0.2005  0.0015 -0.2587
 9771W        W52865   1.813  13.345  24.370 -0.0098  0.1069  0.1479
 9772W        W52866  34.237  12.179  25.791  0.0219  0.0486  0.3640
 9773W        W52867   2.857  13.848  25.825  0.4356  0.3578 -0.1304
 9774W        W52868   0.112  13.532  26.642 -0.0449 -0.0099 -0.2393
 9775W        W52869   1.651  10.824  24.713 -0.2092 -0.4114 -0.0185
 9776W        W52870   3.446  14.153  27.109  0.1284 -0.0423 -0.0197
 9777W        W52871   1.600  14.612  26.405  0.0641  0.0086 -0.0835
 9778W        W52872   2.912  12.017  27.044  0.0488  0.0058 -0.0996
 9779W        W52873   1.125  12.622  25.560  0.0360 -0.0482 -0.1348
 9780W        W52874   3.708  13.855  26.335 -0.1234  0.0839  0.1750
 9781W        W52875   1.316  14.951  23.611  0.2035  0.0826 -0.0897
 9782W        W52876   3.472  10.875  24.686 -0.3726  0.0993  0.0741
 9783W        W52877   1.647  10.970  27.198 -0.4011  0.0418  0.0609
 9784W        W52878   1.369  11.303  25.489  0.1888  0.0270  0.2380
 9785W        W52879   2.341  13.629  25.153 -0.1784  0.0839  0.1986
 9786W        W52880   3.837  13.210  27.059  0.5204 -0.1274  0.2355
 9787W        W52881   3.117  12.502  23.988  0.1045  0.0385  0.2912
 9788W        W52882   0.358  13.127  25.940 -0.0253 -0.0296  0.1824
 9789W        W52883   1.702  11.687  27.831 -0.1681 -0.0520  0.1707
 9790W        W52884   1.988  13.498  26.951  0.2542 -0.3169 -0.1301
 9791W        W52885   0.232  14.275  25.158  0.0236 -0.2006  0.1642
 9792W        W52886   0.065  12.275  26.086 -0.1982 -0.0624  0.2430
 9793W        W52887   0.251  13.527  24.078  0.1960  0.0093  0.1953
 9794W        W52888  34.141  12.105  26.717 -0.2219 -0.0497  0.1329
 9795W        W52889   0.927  13.470  25.367  0.1719  0.0431 -0.2301
 9796W        W52890   2.888  12.079  26.148  0.1414  0.2736 -0.0210
 9797W        W52891   1.417  11.573  26.436 -0.0101  0.0471 -0.0062
 9798W        W52892   3.732  12.718  24.837  0.0649 -0.0006 -0.2276
 9799W        W52893   0.968  14.109  25.239  0.0702  0.4380 -0.4036
 9800W        W52894   3.258  13.130  23.357  0.0498  0.0706 -0.0310
 9801W        W52895   2.532  11.267  25.054  0.4110 -0.0781 -0.2744
 9802W        W52896   2.268  14.727  23.613  0.2833 -0.0705  0.0076
 9803W        W52897   1.223  11.073  26.978 -0.0394  0.0642  0.2076
 9804W        W52898   0.819  11.074  26.575  0.2822 -0.2993 -0.0299
 9805W        W52899   1.564  11.428  26.898  0.1403  0.0322  0.4359
 9806W        W52900  33.810  10.725  25.366  0.2156  0.2718 -0.3243
 9807W        W52901   3.736  12.639  27.029 -0.0377  0.1755  0.0141
 9808W        W52902  34.190  11.163  24.155  0.3114 -0.0271 -0.0216
 9809W        W52903   1.972  12.039  26.032 -0.0833 -0.1582 -0.1181
 9810W        W52904   0.082  11.641  25.366 -0.0333  0.0674 -0.4766
 9811W        W52905   0.874  12.011  24.911 -0.0942  0.3038 -0.0956
 9812W        W52906   4.860  12.365  25.717  0.0666 -0.2899 -0.2825
 9813W        W52907   1.910  13.371  24.901 -0.0590  0.1262 -0.2899
 9814W        W52908   3.128  14.094  26.254  0.0327 -0.0835 -0.3017
 9815W        W52909   3.059  14.562  23.709 -0.1551 -0.0348  0.1448
 9816W        W52910   1.096  12.429  26.084  0.3244  0.1735 -0.0581
 9817W        W52911   1.379  10.383  24.696 -0.1328  0.0405 -0.1896
 9818W        W52912   1.431  15.105  25.577 -0.1542  0.0612  0.0784
 9819W        W52913   1.286  14.637  25.872 -0.0490  0.0771 -0.0657
 9820W        W52914   0.447  12.663  26.663  0.0088  0.3043 -0.0910
 9821W        W52915   3.494  14.638  25.068 -0.2765  0.0579  0.1209
 9822W        W52916   1.107  13.215  23.788 -0.4767 -0.0530 -0.0931
 9823W        W52917   1.600  14.168  26.106 -0.1770  0.2420 -0.1227
 9824W        W52918   2.229  11.802  26.848 -0.0283 -0.0505  0.1594
 9825W        W52919   4.057  12.751  27.492  0.4833 -0.0143 -0.0367
 9826W        W52920   2.174  12.181  26.490  0.3661 -0.3724  0.6607
 9827W        W52921  34.601  12.275  24.646 -0.0615  0.2957 -0.0134
 9828W        W52922   1.732  14.723  22.767  0.0961  0.3462 -0.3871
 9829W        W52923  34.682  13.231  25.487  0.1421  0.0082 -0.0021
 9830W        W52924  33.726  12.902  25.172 -0.0644  0.2765 -0.0235
 9831W        W52925   1.920  14.282  23.664  0.0324  0.0408 -0.0339
 9832W        W52926   4.216  11.679  25.868 -0.0096 -0.1661  0.4879
 9833W        W52927   1.015  11.604  26.784  0.0085  0.0554 -0.1828
 9834W        W52928   3.835  12.878  26.113  0.1245 -0.1259 -0.0004
 9835W        W52929   0.745  11.520  24.790  0.3910  0.4240  0.0824
 9836W        W52930   0.318  13.403  28.635 -0.0994  0.3009  0.0764
 9837W        W52931   3.342  11.446  25.572 -0.1587 -0.0114 -0.0310
 9838W        W52932   2.369  13.063  24.508  0.0952  0.1448  0.0128
 9839W        W52933   2.469  12.787  26.165 -0.0090  0.0325 -0.3329
 9840W        W52934   2.788  12.582  25.227  0.0810 -0.3444  0.0956
 9841W        W52935   2.191  11.420  23.809  0.1838 -0.0420  0.1839
 9842W        W52936   2.526  11.114  24.020  0.0443  0.0181  0.1436
 9843W        W52937  34.394  13.730  27.297 -0.0999 -0.0199  0.0812
 9844W        W52938   1.120  12.981  25.891  0.5597 -0.0896  0.0109
 9845W        W52939   2.052  13.970  25.965 -0.2575 -0.1086 -0.0529
 9846W        W52940   2.306  11.661  24.820 -0.1202 -0.1276  0.1952
 9847W        W52941   2.333  13.563  24.653 -0.0006  0.3350  0.1423
 9848W        W52942   1.347  12.789  26.400  0.1592  0.2703  0.0565
 9849W        W52943   2.896  13.145  25.906 -0.0851  0.0019  0.1069
 9850W        W52944   0.974  14.959  25.031 -0.0721 -0.1449 -0.1917
 9851W        W52945   2.547  11.471  27.945 -0.0549 -0.2206 -0.1991
 9852W        W52946   2.802  12.951  24.914 -0.0491 -0.1254 -0.0373
 9853W        W52947   3.839  11.323  25.361 -0.2589 -0.1765 -0.1700
 9854W        W52948  34.205  12.926  24.743  0.0545 -0.1377 -0.1254
 9855W        W52949   3.593  13.656  24.968  0.2456  0.3613 -0.0444
 9856W        W52950   2.730  10.869  25.624  0.0362 -0.0359 -0.0453
 9857W        W52951   4.124  11.494  28.342 -0.1586  0.2494 -0.0968
 9858W        W52952   3.076  11.553  28.057  0.0808  0.0073 -0.1942
 9859W        W52953   3.049  11.630  24.948 -0.2019  0.2313 -0.1178
 9860W        W52954   3.784  14.322  25.536  0.0638  0.1064 -0.0539
 9861W        W52955   2.573  12.288  24.822 -0.3901 -0.0297 -0.0666
 9862W        W52956   2.641  11.723  28.435  0.0454  0.2481  0.1679
 9863W        W52957   0.548  12.550  25.626  0.0061  0.0647  0.1388
 9864W        W52958   0.703  12.832  26.215  0.0452 -0.0814  0.3143
 9865W        W52959   3.600  13.321  26.440 -0.0595 -0.0590 -0.1527
 9866W        W52960   1.456  13.701  24.498  0.1567 -0.3234 -0.2913
 9867W        W52961   3.794  11.890  28.105  0.0342  0.1457 -0.1364
 9868W        W52962   2.367  12.007  24.477 -0.0586 -0.1152  0.1575
 9869W        W52963   0.990  14.861  25.504 -0.0819 -0.0555  0.2072
 9870W        W52964   0.730  13.018  24.134 -0.0318 -0.2230  0.0162
 9871W        W52965   1.417  10.501  26.218 -0.0589 -0.2835  0.1490
 9872W        W52966   0.639  11.971  27.487 -0.1256  0.0812  0.0545
 9873W        W52967   0.342  12.532  24.788  0.1184 -0.1860 -0.0645
 9874W        W52968   3.139  13.861  24.813  0.6199 -0.1392  0.0493
 9875W        W52969   0.967  14.047  24.722 -0.0378  0.0052 -0.0993
 9876W        W52970   3.962  11.310  26.413  0.0473  0.1623  0.1426
 9877W        W52971  33.917  12.934  26.092  0.0354 -0.1713  0.1500
 9878W        W52972   2.571  11.732  25.197  0.1868  0.1810 -0.3360
 9879W        W52973  32.809  12.089  24.720  0.1428  0.1742  0.2727
 9880W        W52974   4.092  13.321  25.647 -0.0993  0.0192  0.0870
 9881W        W52975   3.633  12.575  23.893  0.0477  0.4618  0.0623
 9882W        W52976   0.678  12.883  27.057 -0.2167 -0.1238 -0.0900
 9883W        W52977   4.276  11.403  27.131 -0.1422 -0.2287  0.0446
 9884W        W52978   0.708  12.784  24.966  0.0268 -0.1247  0.3623
 9885W        W52979   3.603  13.675  26.996 -0.1067 -0.0846  0.1276
 9886W        W52980   4.796  10.689  25.124  0.0406  0.0628  0.1115
 9887W        W52981   2.935  14.787  24.219  0.0187  0.0294  0.1039
 9888W        W52982   2.175  12.643  27.297  0.0170 -0.2949 -0.0892
 9889W        W52983   2.154  10.666  24.947 -0.0781  0.1011 -0.3819
 9890W        W52984   5.550  13.322  26.762 -0.2000  0.2119 -0.1580
 9891W        W52985   1.333  12.039  25.646 -0.3043 -0.0718  0.0362
 9892W        W52986  34.200  14.522  25.587  0.0057 -0.0119  0.2568
 9893W        W52987   2.187  14.018  27.840  0.2213  0.0787  0.0358
 9894W        W52988  34.049  13.328  24.397  0.3890  0.1388  0.2427
 9895W        W52989   1.203  13.693  24.042  0.1826 -0.0515 -0.3252
 9896W        W52990   1.018  11.342  28.131  0.0172  0.0233 -0.2463
 9897W        W52991   3.151  13.543  26.706  0.0299 -0.2691 -0.0421
 9898W        W52992   1.619  10.825  25.197 -0.1280 -0.6739 -0.0313
 9899W        W52993  34.413  11.744  24.751 -0.0920  0.1141  0.0714
 9900W        W52994   1.965  12.154  27.464  0.2479 -0.1771  0.3198
 9901W        W52995   3.802  14.980  24.910 -0.2637  0.0304 -0.3234
 9902W        W52996   3.297  12.503  25.823  0.4207 -0.1623  0.0957
 9903W        W52997   1.994  14.492  26.072  0.2105  0.1652 -0.0948
 9904W        W52998   2.120  11.175  27.050 -0.3918 -0.1238  0.3675
 9905W        W52999   4.782  14.835  25.318 -0.3126  0.4030  0.4617
 9906W        W53000   1.926  13.261  27.424  0.0066 -0.0671  0.0530
 9907W        W53001   1.192  12.720  24.782  0.1591  0.0187  0.0962
 9908W        W53002   1.740  13.476  28.037  0.0949 -0.1191 -0.3495
 9909W        W53003   1.535  13.536  25.153  0.2083 -0.3743 -0.5247
 9910W        W53004   2.450  12.174  28.242 -0.2353  0.2795 -0.1337
 9911W        W53005   1.875  12.812  26.230 -0.1114  0.0561  0.0306
 9912W        W53006   0.590  12.620  23.897  0.1140  0.3278  0.0925
 9913W        W53007  34.343  12.974  26.426 -0.3169  0.1652  0.2144
 9914W        W53008   4.221  11.647  24.027 -0.2206  0.1033  0.0358
 9915W        W53009   1.623  13.448  23.904  0.0646 -0.1649  0.0352
 9916W        W53010   1.958  11.552  26.371  0.0429  0.1072  0.1152
 9917W        W53011   4.963  12.991  25.525  0.1395 -0.2216  0.1386
 9918W        W53012   2.643  12.778  25.656 -0.1084 -0.0261 -0.2887
 9919W        W53013   2.670  11.116  29.226 -0.2138  0.0681  0.1052
 9920W        W53014   1.656  11.236  26.112  0.1366  0.0913 -0.2721
 9921W        W53015   1.887  13.903  25.477  0.0877 -0.1924 -0.0686
 9922W        W53016   1.022  11.657  27.273  0.3418  0.2509  0.1312
 9923W        W53017   2.670  13.883  28.012  0.0371  0.0681 -0.0401
 9924W        W53018   0.821  13.302  27.906  0.0449  0.2791  0.0253
 9925W        W53019   0.374  11.310  25.120  0.1486 -0.1185 -0.3795
 9926W        W53020   2.678  10.801  25.121  0.0156 -0.0569 -0.0933
 9927W        W53021   2.200  13.037  25.765 -0.1102  0.1150 -0.0397
 9928W        W53022   2.763  14.358  25.503  0.0748 -0.0768 -0.0047
 9929W        W53023   1.648  12.813  24.365 -0.0134  0.2607  0.0106
 9930W        W53024   3.512  12.664  24.342 -0.0348  0.2264  0.3150
 9931W        W53025   1.502  11.934  26.105  0.2163  0.3676  0.0699
 9932W        W53026   2.429  11.872  25.650 -0.1133 -0.1955 -0.0958
 9933W        W53027   3.014  12.653  24.577 -0.1708  0.0977  0.0620
 9934W        W53028   1.090  13.043  25.151 -0.2002  0.1354  0.1273
 9935W        W53029  34.452  11.916  27.943 -0.2733  0.1188 -0.0253
 9936W        W53030   4.941  13.266  25.059  0.0128  0.1992 -0.2230
 9937W        W53031   2.423  11.384  26.627  0.3729 -0.0534 -0.0591
 9938W        W53032   2.762  10.764  26.076  0.1142 -0.0133  0.1416
 9939W        W53033   4.014  12.821  25.635  0.2657  0.1143  0.0407
 9940W        W53034   2.573  10.920  26.544 -0.2702 -0.0182 -0.2107
 9941W        W53035  34.584  11.958  26.917 -0.1560  0.0007  0.1039
 9942W        W53036   4.506  14.263  26.731  0.1576 -0.2299 -0.4749
 9943W        W53037   3.611  11.768  24.114  0.2435 -0.2304 -0.0932
 9944W        W53038   4.794  11.468  25.775  0.2091  0.0782 -0.1747
 9945W        W53039   4.874  13.883  26.165  0.2410 -0.2215  0.0636
 9946W        W53040   2.379  10.799  23.618  0.0088 -0.0659 -0.0234
 9947W        W53041  33.562  11.386  26.374 -0.0572 -0.0001  0.0988
 9948W        W53042   2.634  12.837  26.965  0.0669  0.1555 -0.1869
 9949W        W53043   2.180  13.475  24.027  0.1088  0.0338  0.0984
 9950W        W53044   4.207  11.088  27.566 -0.2000 -0.2413 -0.0766
 9951W        W53045   1.545  13.570  23.315  0.0935 -0.1377  0.0921
 9952W        W53046   3.333  14.057  25.303 -0.0742 -0.1233 -0.0594
 9953W        W53047   2.465  12.278  25.976 -0.3501 -0.3956 -0.0796
 9954W        W53048   0.355  11.480  25.856 -0.1408  0.1921 -0.1739
 9955W        W53049   1.747  13.929  26.825  0.1721  0.1577  0.0417
 9956W        W53050   0.116  11.887  23.802 -0.2547  0.0094  0.1307
 9957W        W53051   3.032  11.149  23.947 -0.1304  0.0644 -0.1167
 9958W        W53052   2.448  13.993  25.591  0.2110 -0.4352  0.0928
 9959W        W53053   3.125  12.701  27.357 -0.0763 -0.2425  0.0668
 9960W        W53054   2.630  10.642  24.115  0.0396  0.4346 -0.0222
 9961W        W53055   3.060  13.096  26.989 -0.2164  0.0763  0.1073
 9962W        W53056   0.776  12.990  25.580 -0.3853  0.0213  0.0642
 9963W        W53057   3.102  10.838  26.787  0.0327 -0.0197  0.1654
 9964W        W53058  34.121  13.357  26.040 -0.2393 -0.1739  0.4714
 9965W        W53059   0.921  12.529  26.555 -0.0104 -0.2045 -0.2973
 9966W        W53060   1.683  12.849  25.729  0.0001 -0.1220 -0.0474
 9967W        W53061   2.432  11.967  27.325 -0.0701  0.3033  0.0858
 9968W        W53062   3.304  12.697  25.019  0.4107 -0.1628 -0.1426
 9969W        W53063   2.937  12.927  26.390  0.1982  0.1979 -0.1595
 9970W        W53064   5.182  13.305  27.149 -0.2861  0.1924 -0.0678
 9971W        W53065   3.182  13.465  25.654 -0.1561 -0.2017 -0.2687
 9972W        W53066   0.866  12.133  25.574  0.1330  0.0900  0.0498
 9973W        W53067   3.002  14.398  27.019 -0.2460 -0.0333  0.1956
 9974W        W53068   2.869  12.549  26.041  0.3762  0.1011 -0.1111
 9975W        W53069   0.560  12.372  26.264  0.0740 -0.0849  0.0769
 9976W        W53070   0.291  11.370  27.179 -0.0214  0.1724  0.1177
 9977W        W53071   2.190  12.952  27.700  0.2869  0.1317  0.2866
 9978W        W53072   1.638  13.666  25.852 -0.0858 -0.0673  0.3083
 9979W        W53073   0.822  11.919  26.044 -0.0978 -0.2329  0.0134
 9980W        W53074   0.856  13.518  24.369 -0.3504 -0.0569 -0.2874
 9981W        W53075   0.471  15.075  28.411  0.0613  0.0835  0.1161
 9982W        W53076   0.515  13.342  27.397 -0.1523  0.0737  0.0192
 9983W        W53077   0.480  13.402  25.509 -0.1305  0.1478 -0.1084
 9984W        W53078   0.204  13.029  23.372 -0.2661 -0.1123  0.2032
 9985W        W53079   2.253  12.543  24.469 -0.0596 -0.0477  0.1373
 9986W        W53080   4.048  14.330  26.284  0.4555 -0.0849  0.0115
 9987W        W53081   1.088  10.506  24.126 -0.0756 -0.0323 -0.1490
 9988W        W53082  34.657  13.139  24.776 -0.1780 -0.5201 -0.1194
 9989W        W53083  34.161  12.135  24.417 -0.0567 -0.0912 -0.5117
 9990W        W53084   1.411  14.087  23.636  0.1348 -0.2138  0.1965
 9991W        W53085   0.491  15.875  24.703  0.0097 -0.0707 -0.1594
 9992W        W53086   3.242  12.929  25.506  0.0908  0.4764  0.1083
 9993W        W53087   4.145  10.049  22.508  0.0761  0.0421 -0.1005
 9994W        W53088   2.819  13.485  24.757 -0.0618 -0.0650 -0.1531
 9995W        W53089   2.974  10.889  24.352  0.0072 -0.1421  0.0414
 9996W        W53090   4.154  14.306  28.235 -0.3639 -0.2995 -0.2601
 9997W        W53091   2.055  13.194  26.459  0.1238 -0.0680 -0.0202
 9998W        W53092   1.659  11.964  25.143  0.1663 -0.2601  0.0272
 9999W        W53093   1.270  13.214  28.064 -0.5284 -0.0636 -0.0258
10000W        W53094   4.328  12.309  27.467 -0.1826 -0.1878  0.2213
10001W        W53095   0.888  14.942  26.530  0.0856  0.3438 -0.0711
10002W        W53096   3.307  12.666  23.485  0.0545  0.0008 -0.3669
10003W        W53097  33.469  11.240  24.690  0.0452 -0.4454 -0.2350
10004W        W53098   1.982  12.152  25.496  0.0595  0.0211  0.2089
10005W        W53099   4.185  10.421  26.441 -0.1766  0.1762 -0.0512
10006W        W53100   2.585  12.677  22.697  0.0675 -0.0894  0.0810
10007W        W53101   4.996  14.346  25.365  0.1069  0.1160  0.1676
10008W        W53102   1.916  12.887  24.803  0.4001 -0.1567  0.2422
10009W        W53103   0.237  13.843  25.588  0.0455  0.1094  0.0741
10010W        W53104   2.476  15.236  26.702 -0.0505  0.0876  0.1139
10011W        W53105  34.235  10.672  24.011 -0.1078  0.2773  0.1722
10012W        W53106   5.665  13.217  24.926  0.0993  0.1206  0.3081
10013W        W53107  34.354  13.376  26.772 -0.0363 -0.1020 -0.2106
10014W        W53108   4.048  12.119  26.220 -0.0883  0.0839  0.1159
10015W        W53109   0.398  12.195  24.050  0.0674 -0.0486  0.2634
10016W        W53110   4.343  12.106  24.706 -0.0653  0.0354  0.0413
10017W        W53111   2.664  12.394  26.482  0.2202  0.0042  0.2606
10018W        W53112   1.893  12.264  26.985 -0.1347 -0.0306  0.1308
10019W        W53113   2.425  12.387  25.447  0.1676 -0.1202  0.1292
10020W        W53114   3.531  12.661  27.608 -0.0875  0.3428  0.0443
10021W        W53115   2.670  11.281  24.491 -0.0556  0.0359  0.0312
10022W        W53116   3.876  14.340  27.341 -0.1665  0.0608 -0.3236
10023W        W53117   1.161  11.362  24.447  0.0833  0.2793  0.1891
10024W        W53118   2.932  11.755  25.599 -0.1776  0.0644  0.1931
10025W        W53119  33.887  12.761  25.624  0.1186 -0.0564  0.0761
10026W        W53120   2.784  13.269  25.427  0.2006 -0.3783 -0.1604
10027W        W53121   3.568  14.329  26.001  0.0670  0.1594 -0.1496
10028W        W53122   0.634  10.602  26.653 -0.0619  0.0694 -0.1918
10029W        W53123   1.911  12.341  23.318 -0.0291 -0.1782 -0.0813
10030W        W53124   5.334  13.651  24.626  0.0995  0.2480 -0.0871
10031W        W53125   0.415  14.450  23.752 -0.1238  0.2553 -0.0880
10032W        W53126   2.081  12.572  25.840  0.2144 -0.0426  0.0425
10033W        W53127   2.488  13.890  24.291 -0.2206 -0.0507  0.0721
10034W        W53128  34.536  10.756  26.553 -0.3412  0.4094 -0.1901
10035W        W53129   2.984  14.796  25.516  0.2444  0.2040 -0.1865
10036W        W53130   5.682  14.982  24.533  0.0989  0.0413  0.0362
10037W        W53131   2.081  11.693  25.303  0.1609  0.0367  0.0386
10038W        W53132   0.934  11.443  26.299  0.2538 -0.1682  0.2293
10039W        W53133   0.629  13.369  24.981  0.4180 -0.1646 -0.2521
10040W        W53134   3.623  13.320  25.910 -0.3731 -0.2299  0.2511
10041W        W53135   4.312  12.291  26.622 -0.0306  0.1984 -0.1305
10042W        W53136   0.610  13.508  23.344 -0.2848 -0.3896 -0.0071
10043W        W53137   2.479  11.389  27.397  0.1545 -0.0376  0.1176
10044W        W53138   1.589  13.242  26.588 -0.0831  0.1961  0.3406
10045W        W53139   2.058  14.363  27.407  0.3270 -0.1472  0.4052
10046W        W53140  33.711  13.592  24.157 -0.2496  0.0777  0.3313
10047W        W53141   1.051  13.186  26.390 -0.1389 -0.0007 -0.2173
10048W        W53142   1.080  13.572  24.925  0.1056  0.0569 -0.1454
10049W        W53143   0.904  15.303  23.319 -0.0129  0.2837 -0.2940
10050W        W53144   4.127  16.016  25.332  0.2122 -0.0592  0.0944
10051W        W53145   3.240  11.968  26.609  0.0119  0.4120  0.0809
10052W        W53146   4.632  14.347  24.866  0.0301  0.1090 -0.0659
10053W        W53147   0.872  11.296  25.222  0.0809  0.0154  0.3593
10054W        W53148   4.281  13.703  24.644 -0.1838 -0.1689 -0.0369
10055W        W53149   4.197  11.359  24.510  0.0201 -0.0268  0.1941
10056W        W53150   1.720  12.784  26.758 -0.0853  0.0506 -0.0133
10057W        W53151  34.048  11.724  25.513  0.0806  0.0306 -0.1641
10058W        W53152   0.800  12.501  24.525  0.1575 -0.0961  0.1442
10059W        W53153   0.221  13.015  23.875 -0.0797  0.4039 -0.3139
10060W        W53154   1.361  11.993  27.927  0.1551  0.1383 -0.2890
10061W        W53155   0.696  13.307  26.875 -0.3109 -0.2712 -0.2047
10062W        W53156   0.434  12.116  24.549 -0.0260 -0.2357  0.2272
10063W        W53157   0.412  11.908  25.650 -0.1750  0.0735  0.3628
10064W        W53158   1.426  13.966  24.958  0.0217 -0.1788  0.0243
10065W        W53159  34.297  10.966  26.116 -0.1183  0.0429  0.2709
10066W        W53160   1.051  11.042  25.844  0.1091  0.1244  0.1356
10067W        W53161   2.599  14.553  23.057 -0.1851  0.1345  0.2553
10068W        W53162   4.449  14.476  22.927  0.0346  0.0963 -0.3675
10069W        W53163   1.660  11.676  25.589 -0.1684  0.1365  0.0983
10070W        W53164   3.847  13.638  27.899 -0.0258 -0.1427  0.1115
10071W        W53165   1.158  12.707  24.224  0.0335 -0.3305  0.0134
10072W        W53166   1.608  12.866  27.265 -0.3276 -0.1228  0.1621
10073W        W53167   1.475  11.919  27.018 -0.1567 -0.0783  0.0109
10074W        W53168   0.198  11.533  24.651  0.3409 -0.0506 -0.0243
10075W        W53169   3.779  12.419  25.862  0.2144  0.1018 -0.3817
10076W        W53170   1.711  13.943  24.048  0.2316  0.0175 -0.2641
10077W        W53171   2.563  12.804  24.057 -0.2404  0.2096 -0.0046
10078W        W53172   2.478  14.280  26.824 -0.0330 -0.1227  0.2451
10079W        W53173   2.743  14.915  26.381  0.0205  0.2910 -0.2961
10080W        W53174   0.836  10.224  27.076  0.1834  0.0600  0.3779
10081W        W53175   3.381  12.349  24.713  0.3332 -0.2721  0.0105
10082W        W53176   2.602  14.242  26.197 -0.1110  0.0698 -0.0965
10083W        W53177   2.832  13.137  23.651  0.2407  0.0612  0.0126
10084W        W53178   4.989  10.468  25.503  0.3173 -0.2748  0.0255
10085W        W53179   1.607  12.988  25.257  0.1421 -0.2461 -0.1034
10086W        W53180   0.396  10.684  27.332 -0.1411 -0.0525 -0.0863
10087W        W53181   1.280  14.967  26.205  0.0817 -0.1522 -0.0344
10088W        W53182   4.764  13.777  26.628 -0.0873 -0.4036 -0.0625
10089W        W53183   0.614  11.743  25.256  0.0562 -0.2349  0.0456
10090W        W53184   3.550  12.165  26.235  0.0111 -0.3148  0.1402
10091W        W53185   1.453  13.206  24.765  0.0296  0.2494  0.0259
10092W        W53186   2.194  11.825  27.852 -0.3497 -0.2381  0.1733
10093W        W53187   1.668  12.330  26.442 -0.2440 -0.0523  0.2556
10094W        W53188   3.705  13.556  25.467  0.4910  0.0915  0.0235
10095W        W53189   2.507  13.760  26.139  0.0650  0.1811  0.0481
10096W        W53190   3.037  12.445  26.867 -0.2417 -0.1064 -0.1627
10097W        W53191   1.820  12.373  24.771 -0.4094  0.1760  0.3639
10098W        W53192   4.337  13.268  24.334 -0.1437 -0.0922  0.1698
10099W        W53193   1.853  14.883  25.769 -0.0985  0.0063 -0.1288
10100W        W53194   3.030  13.494  28.392  0.3481 -0.0227 -0.0209
10101W        W53195   1.289  14.425  24.858 -0.4838 -0.0724 -0.0124
10102W        W53196   4.114  13.033  25.186  0.3330  0.0448 -0.2512
10103W        W53197   0.877  10.536  26.210  0.0274  0.0000 -0.0681
10104W        W53198   2.176  14.215  24.154  0.1173 -0.1766 -0.3614
10105W        W53199   1.709  13.699  26.383  0.2881 -0.2004 -0.2259
10106W        W53200   2.062  11.724  28.393  0.0826  0.3069 -0.0832
10107W        W53201   1.772  11.870  26.644  0.1578 -0.0276 -0.0566
10108W        W53202   2.553  11.238  26.109 -0.3819  0.1550  0.0254
10109W        W53203   0.497  14.154  25.984  0.0557  0.2010 -0.0689
10110W        W53204   2.362  11.773  26.189  0.4272 -0.2845  0.2500
10111W        W53205   0.332  13.630  30.641  0.0019 -0.0580  0.0439
10112W        W53206   1.238  11.534  27.749  0.4064  0.1754 -0.0303
10113W        W53207   3.830  12.440  28.186 -0.1988  0.0298 -0.0805
10114W        W53208   4.026  11.339  28.992 -0.0052 -0.0812 -0.0862
10115W        W53209   0.557  10.885  29.010 -0.0707 -0.3402 -0.2501
10116W        W53210   2.448  14.597  29.269 -0.0355  0.2161 -0.0637
10117W        W53211   3.064  11.974  31.367 -0.1418 -0.0625  0.0029
10118W        W53212   2.840  13.119  29.767 -0.3384  0.2369  0.0925
10119W        W53213   3.369  13.291  30.940 -0.0419 -0.2093  0.0705
10120W        W53214   3.631  13.899  27.473 -0.2329  0.0865  0.4552
10121W        W53215   1.486  11.890   0.040 -0.3988 -0.0377 -0.1233
10122W        W53216   2.323  12.710  31.120 -0.1353 -0.2908  0.1556
10123W        W53217   1.999  11.420  28.800  0.0669  0.2791  0.1398
10124W        W53218  34.672  10.765  28.932  0.2669  0.3484  0.3518
10125W        W53219   1.377  13.794  30.961 -0.1603  0.1502 -0.1291
10126W        W53220   0.818  14.044  27.879 -0.3648  0.1070 -0.0606
10127W        W53221   2.190  12.327  31.933 -0.4888 -0.2894  0.3231
10128W        W53222   1.089  12.200  28.494 -0.0752 -0.0725 -0.0168
10129W        W53223   1.943  14.367  29.128  0.1418  0.3066 -0.0033
10130W        W53224   1.845  10.581  29.863 -0.0951  0.1559 -0.0069
10131W        W53225   2.328  11.795  31.363 -0.0449 -0.0971  0.1393
10132W        W53226   2.028  13.429  26.038 -0.1533  0.0911  0.0616
10133W        W53227   1.010  12.086  26.999 -0.1499 -0.0005 -0.0824
10134W        W53228  33.717  11.759  29.790 -0.0546 -0.0895  0.0420
10135W        W53229   0.730  12.983  30.019 -0.1462 -0.0122  0.1064
10136W        W53230   4.231  12.392  29.172 -0.1747  0.1287  0.1809
10137W        W53231   2.759  12.677  29.536  0.1570  0.2449 -0.1497
10138W        W53232   1.779  14.469  28.664 -0.3467  0.1616 -0.1947
10139W        W53233   3.037  13.683  29.462 -0.0173 -0.1766  0.3160
10140W        W53234   3.502  12.424  31.259  0.0707 -0.2218 -0.1515
10141W        W53235  34.108  12.950  30.377 -0.1850  0.4024  0.0932
10142W        W53236   0.622  15.860  29.627 -0.1658  0.1783  0.1560
10143W        W53237   2.154  13.525  27.798 -0.0501 -0.2020  0.0773
10144W        W53238   3.956  13.013  26.613 -0.0509 -0.1169 -0.0529
10145W        W53239   1.876  13.911  30.802 -0.0279  0.1866 -0.2606
10146W        W53240   0.972  14.005  29.979  0.1546 -0.0765  0.0492
10147W        W53241   0.882  13.001  27.513  0.1645  0.1566 -0.0458
10148W        W53242   1.715  15.017  29.262  0.2028  0.0163 -0.2001
10149W        W53243   2.579  13.712  31.081 -0.0728 -0.1406  0.0211
10150W        W53244   1.049  12.968  30.440  0.3086 -0.0600  0.1356
10151W        W53245   1.792  12.680  30.441  0.3588  0.0966  0.1321
10152W        W53246   2.612  13.322  27.922 -0.2470  0.1653 -0.0304
10153W        W53247   3.382  12.651  28.114  0.3288  0.0526  0.2657
10154W        W53248   0.582  12.975  31.418 -0.0783 -0.5466  0.0214
10155W        W53249   0.198  14.457  29.899  0.0512 -0.1267 -0.2071
10156W        W53250   2.821  11.252   0.105 -0.1107 -0.2029  0.0019
10157W        W53251   1.838  14.735  27.649 -0.1016  0.4069 -0.0308
10158W        W53252   3.004  12.183  28.383  0.0450  0.3164 -0.3582
10159W        W53253   2.372  10.885  27.421  0.4469  0.1321  0.2582
10160W        W53254   1.815  12.713  28.664  0.0607 -0.2615 -0.2529
10161W        W53255   2.177   9.833  28.724 -0.0614  0.0489 -0.1033
10162W        W53256   2.198  13.767  28.307  0.0007  0.1397  0.2133
10163W        W53257   1.430  12.367  31.160 -0.2562 -0.0352  0.0680
10164W        W53258   3.106  12.805  30.959  0.1510 -0.0650  0.2629
10165W        W53259   2.917  12.580  27.881 -0.0382 -0.1356  0.0328
10166W        W53260   3.203  11.715  29.763 -0.0837  0.0659 -0.1709
10167W        W53261   1.522  13.438  30.058 -0.1107 -0.0639 -0.0034
10168W        W53262   1.019  12.621  29.885 -0.1374 -0.1437  0.2134
10169W        W53263   2.753  13.883  27.025 -0.1188 -0.1538 -0.1992
10170W        W53264   3.760  12.643  29.594  0.3003  0.1591 -0.1391
10171W        W53265   3.432  13.281  27.932 -0.0480 -0.0257  0.1807
10172W        W53266   1.352  11.269  28.765  0.0039  0.4843  0.1043
10173W        W53267  33.246  13.337  31.771  0.1875 -0.0557 -0.2390
10174W        W53268   0.870  11.427  30.871 -0.0336  0.2105  0.4241
10175W        W53269   1.806  11.039  28.486 -0.0777  0.0538 -0.1380
10176W        W53270   4.745  13.795  30.761 -0.3521 -0.1317  0.0648
10177W        W53271   1.217  14.172  31.275 -0.1318  0.2416 -0.2504
10178W        W53272   5.658  10.979  27.775  0.2164 -0.1984  0.1832
10179W        W53273   1.705  14.150  29.497 -0.0942 -0.0546 -0.0715
10180W        W53274   3.313  13.017  30.053 -0.0539  0.1524 -0.1617
10181W        W53275   3.625  14.143  27.952  0.2037 -0.0300  0.0080
10182W        W53276   1.645  11.079  29.681 -0.4597  0.1135 -0.1889
10183W        W53277   2.826  10.643  30.079  0.1635 -0.0866  0.3107
10184W        W53278   1.643  13.089  28.437 -0.0351 -0.1839 -0.0116
10185W        W53279   2.733  12.115  27.795  0.0468  0.3602  0.1172
10186W        W53280   2.610  13.955  30.260  0.0377 -0.0790 -0.3766
10187W        W53281   3.026  13.084  27.654 -0.1479  0.1914  0.2409
10188W        W53282   1.254  15.074  29.112  0.1474 -0.2304  0.1569
10189W        W53283   1.476  12.908  30.753  0.0718 -0.1708 -0.0165
10190W        W53284   1.908  14.549   0.005  0.0245 -0.0121  0.4367
10191W        W53285   0.399  13.166  26.447  0.0634 -0.1157 -0.0043
10192W        W53286   0.594  12.611  29.621  0.2413 -0.0503  0.0106
10193W        W53287   2.035  13.431  28.657  0.1266  0.1193 -0.1799
10194W        W53288   0.661  11.557  29.721 -0.2626  0.1526 -0.0967
10195W        W53289   2.447  13.360  28.950 -0.0475 -0.2427  0.2294
10196W        W53290   4.230  12.796  27.004 -0.1029 -0.0239 -0.1773
10197W        W53291   1.740  12.103  31.646 -0.0025 -0.1762  0.1587
10198W        W53292   2.344  11.044  27.961  0.1887  0.2457 -0.1710
10199W        W53293   0.209  13.882  28.962 -0.0612  0.1892 -0.0454
10200W        W53294   4.932  14.504  28.932  0.2124 -0.0323 -0.0564
10201W        W53295   3.694  12.375  29.065 -0.0705  0.0228 -0.2714
10202W        W53296   3.085  13.626  27.894  0.0164 -0.0950  0.4242
10203W        W53297   0.611  12.310  30.724 -0.1666  0.3381  0.0210
10204W        W53298   1.316  12.352  29.514 -0.0920  0.2679  0.1440
10205W        W53299   3.021  11.787  30.920 -0.0282  0.0761  0.0337
10206W        W53300   0.188  11.505  29.524  0.3445  0.2900 -0.1316
10207W        W53301   4.030  12.427  31.004  0.0083 -0.2578 -0.0355
10208W        W53302   0.580  12.362  27.110  0.1432 -0.3329 -0.3097
10209W        W53303   3.834  11.876  28.605  0.2110 -0.0512 -0.3597
10210W        W53304   2.230  12.603  29.443 -0.1725 -0.0125  0.1778
10211W        W53305   0.759  12.587  30.344 -0.2985  0.0066  0.2503
10212W        W53306   4.225  11.882  30.114  0.0952  0.1648  0.2917
10213W        W53307   2.637  14.367  28.190 -0.0847 -0.0484  0.1499
10214W        W53308   2.249  14.270  29.864 -0.1359  0.1200  0.1254
10215W        W53309   3.013  14.992  29.548 -0.2368  0.0107  0.3182
10216W        W53310   1.148  12.702  31.678 -0.0115  0.0822 -0.2382
10217W        W53311   1.116  11.015  29.094 -0.0595 -0.1145  0.0316
10218W        W53312   0.425  14.375  28.705 -0.2045 -0.0142  0.4900
10219W        W53313   2.142  12.938  30.668 -0.0961 -0.0333  0.1479
10220W        W53314   1.566  12.066  29.152 -0.0323  0.0025  0.0757
10221W        W53315   4.238  14.838  29.838 -0.0453  0.0363 -0.1265
10222W        W53316   1.318  14.057  27.085  0.3037 -0.5854 -0.0386
10223W        W53317   1.445  13.582  29.555  0.1912  0.1011  0.0313
10224W        W53318   2.907  11.255  30.589 -0.1881  0.1026  0.2235
10225W        W53319   1.062  13.097  30.991  0.2666 -0.2636 -0.2398
10226W        W53320   2.411  12.303  29.804  0.1913  0.0371 -0.3157
10227W        W53321  34.389   9.822  27.174 -0.2298 -0.0625 -0.0385
10228W        W53322   1.955  13.210  29.873  0.1211  0.2854  0.1285
10229W        W53323   0.819  14.118  26.358  0.0299  0.3852  0.0072
10230W        W53324   1.559  12.339  29.972 -0.1346  0.0875 -0.2810
10231W        W53325   1.651  14.119  28.227 -0.0973 -0.0903  0.0447
10232W        W53326   2.849  11.396  29.658  0.1194 -0.0119  0.2086
10233W        W53327   0.308  12.167   1.129  0.0591  0.1924  0.1606
10234W        W53328   1.075  12.056  30.933  0.2520 -0.1126  0.3733
10235W        W53329   1.801  12.795  29.647 -0.1372 -0.3194 -0.2833
10236W        W53330   1.708  14.085   0.069 -0.2255 -0.0116  0.2376
10237W        W53331   3.820  11.146  29.402  0.1549 -0.0986 -0.0307
10238W        W53332   3.470  11.938  28.881 -0.0837 -0.2430 -0.3300
10239W        W53333   2.370  13.202  31.118  0.0097 -0.0539 -0.2055
10240W        W53334   2.797  13.218  29.278 -0.1133  0.0886  0.2275
10241W        W53335   3.903  12.160  27.640 -0.0409  0.5909 -0.1710
10242W        W53336   3.736  12.141  29.490  0.0916 -0.0748  0.3015
10243W        W53337   0.204  14.129  30.301  0.1053 -0.3347  0.0522
10244W        W53338   1.240  12.683  27.790 -0.0389 -0.1837  0.0205
10245W        W53339   2.102  11.538  31.013  0.2440  0.2097  0.1136
10246W        W53340   3.576  11.455  28.677 -0.0100 -0.0951 -0.0043
10247W        W53341   4.092  13.705  27.431  0.0665  0.2747  0.1270
10248W        W53342   1.271  12.923  29.445 -0.1974  0.1235  0.0808
10249W        W53343   1.737  14.346  29.992  0.3673  0.1798 -0.2620
10250W        W53344   3.172  12.763  28.571 -0.1823  0.0148 -0.0913
10251W        W53345   1.554  11.720  29.669  0.3166  0.0199 -0.2455
10252W        W53346   0.529  14.428  27.518  0.0721  0.1847  0.2463
10253W        W53347   1.662  11.071  29.140 -0.4061 -0.1869 -0.1769
10254W        W53348  34.593  14.251  26.443  0.2492 -0.3032 -0.0529
10255W        W53349   3.651  12.117  30.824  0.4452 -0.0016  0.0241
10256W        W53350   3.373  10.991  31.430 -0.0444 -0.1797 -0.0368
10257W        W53351   0.636  10.760  30.200 -0.2925 -0.2359 -0.3879
10258W        W53352   2.650  12.328   0.127  0.0681  0.0830  0.2358
10259W        W53353   4.220  13.807  26.916 -0.0736 -0.2918  0.1546
10260W        W53354   2.818  13.279  30.897  0.0059 -0.0245  0.1957
10261W        W53355   1.684  12.989  27.862 -0.0782 -0.0239 -0.0635
10262W        W53356   1.165  11.925  29.909  0.0201  0.4823 -0.2489
10263W        W53357   1.845  12.263  29.587 -0.2500 -0.1103  0.2307
10264W        W53358   0.817  13.755  31.019  0.1222 -0.0523 -0.2736
10265W        W53359   3.123  12.314  30.950  0.2634  0.0517 -0.1347
10266W        W53360   1.733  14.267  27.725 -0.3027 -0.0821  0.1678
10267W        W53361   2.669  12.332  31.161  0.3025 -0.4854 -0.1749
10268W        W53362   1.983  12.236  28.637  0.2218  0.2491  0.0217
10269W        W53363   1.892  15.523  27.076 -0.1960 -0.1078 -0.0931
10270W        W53364   2.565  13.314  26.390 -0.0668  0.0376 -0.0428
10271W        W53365   1.192  11.265  29.550  0.2144 -0.0830  0.1149
10272W        W53366   1.867  15.063  29.885 -0.2142 -0.0086  0.0487
10273W        W53367   2.887  13.803  25.307 -0.1199  0.1669  0.1356
10274W        W53368   1.696  14.939  31.603  0.2339 -0.0263 -0.2297
10275W        W53369   1.275  14.281  28.022  0.0958 -0.0287  0.0161
10276W        W53370   3.474  10.050  30.492 -0.1375 -0.0548 -0.0102
10277W        W53371  34.146  15.482  28.956 -0.1652 -0.1503 -0.3275
10278W        W53372   0.628  11.482  27.558  0.1735  0.0672  0.0179
10279W        W53373  34.529  14.202  28.679  0.0163  0.0567 -0.1235
10280W        W53374   2.629  10.919  29.696 -0.2839 -0.0134 -0.1423
10281W        W53375   4.696  12.258  28.474  0.1246  0.1298  0.0815
10282W        W53376   0.101  12.405  29.649 -0.0721  0.0777 -0.1012
10283W        W53377   3.266  10.840  30.579 -0.0558  0.3433  0.0038
10284W        W53378  34.481  14.500  29.109 -0.0408  0.4431  0.3801
10285W        W53379   2.736  12.126  30.684 -0.0793 -0.0692 -0.0645
10286W        W53380   2.683   9.970  28.823 -0.2233  0.1058 -0.3675
10287W        W53381   3.793  13.118  31.130 -0.4623  0.1943 -0.1456
10288W        W53382   2.613  13.103  30.309  0.3322 -0.0854  0.1935
10289W        W53383   0.588  12.415  27.740  0.2740 -0.2321  0.2690
10290W        W53384   3.894  13.646  31.277 -0.0510 -0.3707 -0.2157
10291W        W53385  34.474  11.752  29.590  0.1017  0.3650 -0.1091
10292W        W53386   1.544  14.095  28.889  0.0264 -0.0766  0.2117
10293W        W53387   2.390  14.512  31.712  0.2798  0.0366 -0.0085
10294W        W53388   0.656  11.936  28.750  0.0362 -0.0473  0.1188
10295W        W53389   0.680  13.169  28.404 -0.2630  0.0436 -0.1204
10296W        W53390   1.110  12.142  31.499  0.0439 -0.0908  0.0676
10297W        W53391   1.775  12.750   0.092  0.1014 -0.0285  0.2976
10298W        W53392   1.994  12.534  30.037 -0.1278 -0.1348 -0.0096
10299W        W53393   2.168  11.098  29.321  0.1637 -0.1179 -0.1812
10300W        W53394   0.911  12.939  28.822 -0.2035  0.0769  0.2922
10301W        W53395   4.225  12.030  29.570  0.2620 -0.0504 -0.0274
10302W        W53396   2.911  12.162  29.707 -0.0188  0.0983 -0.0440
10303W        W53397  33.580  14.695  30.576  0.1117  0.3325  0.0507
10304W        W53398   0.574  10.004  28.760  0.3132 -0.3338 -0.0491
10305W        W53399   4.963  14.160  29.310 -0.0264 -0.2013  0.0856
10306W        W53400   2.068  11.011  31.204 -0.0653 -0.2784  0.0684
10307W        W53401   1.774  12.547  27.735 -0.1327  0.1680  0.0719
10308W        W53402   0.746  13.762  29.604  0.0005 -0.1580 -0.1328
10309W        W53403   2.956  11.921  28.807  0.2797 -0.3182 -0.0982
10310W        W53404   2.106  11.029  29.951  0.2802 -0.0022  0.1249
10311W        W53405   1.406  12.957  30.057  0.3136  0.0227 -0.2002
10312W        W53406   0.114  13.394  27.130  0.0383 -0.0185  0.2772
10313W        W53407   0.050  13.663  30.224 -0.0713 -0.0245 -0.2945
10314W        W53408   3.358  10.138  27.297 -0.2347  0.1996 -0.1712
10315W        W53409   3.569  13.638  28.757  0.2781 -0.0101  0.0478
10316W        W53410   1.993  11.910  29.918 -0.3136  0.1129 -0.2561
10317W        W53411   4.582  11.068  30.723 -0.1101  0.1848 -0.4870
10318W        W53412   3.701  12.754  28.652  0.1104  0.0218  0.1397
10319W        W53413   1.638  10.743  31.125 -0.0767  0.2290 -0.1313
10320W        W53414   1.393  11.542  29.188  0.0611 -0.2594 -0.3965
10321W        W53415   2.509  12.770  28.105 -0.2423 -0.0498 -0.1866
10322W        W53416  34.140  12.441  29.332  0.0969  0.3392  0.3598
10323W        W53417   0.910  14.290  31.770 -0.3015  0.0140  0.0812
10324W        W53418   1.549  12.075  30.690 -0.1014  0.0546  0.1121
10325W        W53419   2.619  11.437  28.859 -0.0416  0.4009 -0.2598
10326W        W53420   0.475  11.017  27.774  0.1535 -0.2501  0.1403
10327W        W53421   1.422  13.381  30.558 -0.0171  0.1531 -0.3232
10328W        W53422   3.714  11.699  30.523 -0.4063 -0.3864  0.0648
10329W        W53423   1.191  13.347  28.662 -0.2101 -0.3871 -0.0380
10330W        W53424   4.079  10.542  28.496  0.1967 -0.0165  0.1558
10331W        W53425   2.445  12.519  30.384  0.0621  0.0237  0.2218
10332W        W53426   2.925  12.711  30.045  0.0290  0.1058 -0.0165
10333W        W53427   2.648  12.569  27.483 -0.1113 -0.0119  0.0064
10334W        W53428   0.114  13.598  27.665 -0.5832 -0.0149  0.0234
10335W        W53429   1.619  10.918  30.139 -0.0137 -0.1723  0.0469
10336W        W53430   2.711  12.374  29.119  0.3654 -0.1648 -0.3790
10337W        W53431   2.846  11.133  28.294 -0.0577  0.0856 -0.3734
10338W        W53432   3.758  11.295  31.420 -0.2009 -0.2552 -0.0457
10339W        W53433   1.495  13.130  31.811 -0.1314  0.0590  0.0662
10340W        W53434   1.359  12.902  31.332 -0.2844 -0.1107  0.0840
10341W        W53435  34.568  12.777  30.243  0.1348  0.1833 -0.1402
10342W        W53436   2.902  13.507  30.156 -0.2570  0.0057 -0.1520
10343W        W53437   3.491  12.151  26.996 -0.0198  0.3156  0.0561
10344W        W53438   4.160  10.318  30.901 -0.3134 -0.4185 -0.0374
10345W        W53439   2.118  13.018  27.019 -0.1313 -0.2191 -0.2170
10346W        W53440   2.899  11.671  27.566 -0.3759 -0.0448 -0.1198
10347W        W53441   0.300  12.834  29.286  0.0467 -0.1790 -0.0337
10348W        W53442   2.896  13.462  31.360 -0.0306 -0.0614 -0.1430
10349W        W53443   1.020  11.638  28.488  0.0550  0.0445  0.1496
10350W        W53444   0.070  11.988  31.860 -0.0103 -0.0073 -0.1567
10351W        W53445   1.128  13.120  26.937  0.0224 -0.0640 -0.0827
10352W        W53446   2.615  12.580  28.630 -0.2745  0.6348 -0.0610
10353W        W53447   1.125  12.649  27.260  0.0231 -0.1448  0.0020
10354W        W53448   0.323  11.780  28.420 -0.1179 -0.0655 -0.1925
10355W        W53449   0.349  15.240  31.081 -0.2611 -0.1684  0.1161
10356W        W53450   0.984  12.348  28.026 -0.1078  0.1307 -0.0028
10357W        W53451   2.522  13.743  27.569 -0.0252 -0.4280  0.0428
10358W        W53452   2.505  12.820  29.097 -0.2081 -0.2172 -0.0717
10359W        W53453   2.734  13.981  31.770 -0.0685  0.2126  0.0788
10360W        W53454   3.303  11.038  28.416 -0.1254  0.3343 -0.1298
10361W        W53455   3.288  12.059  30.449  0.0018  0.0561 -0.0841
10362W        W53456   0.970  13.669  27.205 -0.0464  0.1563  0.0717
10363W        W53457   2.342  10.029  29.189  0.0659  0.0666 -0.0980
10364W        W53458   1.938  13.982  28.656  0.1905 -0.5500 -0.1492
10365W        W53459   0.597  13.595  30.158 -0.2404 -0.3492  0.1307
10366W        W53460   1.498  13.660  28.428  0.1715  0.0002  0.2632
10367W        W53461   2.573  11.186  30.125 -0.2572 -0.2066  0.3958
10368W        W53462   3.380  12.430  29.972 -0.0417 -0.0534 -0.2027
10369W        W53463   3.293  12.631  30.437 -0.1344  0.2103 -0.2229
10370W        W53464   2.875  12.174  30.165  0.0657  0.0603 -0.2351
10371W        W53465   1.936  13.483  31.702 -0.0840  0.2034 -0.2302
10372W        W53466   1.855  13.384  29.381  0.0443  0.1783  0.0013
10373W        W53467   1.579  13.608  29.030 -0.0433 -0.0332 -0.4000
10374W        W53468   3.323  12.148  27.989 -0.1552 -0.1962  0.2838
10375W        W53469   0.561  12.492  28.826  0.1707 -0.0087  0.0864
10376W        W53470   0.056  10.978  30.876  0.1460 -0.0702  0.1132
10377W        W53471   3.379  11.407  30.854  0.2523 -0.1095  0.0049
10378W        W53472   1.879  13.239  30.387  0.4035 -0.1106 -0.1381
10379W        W53473   1.739  12.615  29.152  0.1483 -0.0254 -0.0171
10380W        W53474   2.458  13.287  26.848 -0.0738 -0.0809 -0.4487
10381W        W53475   0.157  15.188  31.599 -0.1745  0.0971  0.3842
10382W        W53476   1.172  14.012  29.437 -0.1289  0.2065 -0.1345
10383W        W53477   1.135  14.859  28.165 -0.0914 -0.0405 -0.0046
10384W        W53478   2.712  14.695  28.787 -0.0557  0.0899  0.1424
10385W        W53479   1.341  13.346  27.591  0.2578 -0.2839 -0.1031
10386W        W53480   2.432  13.573  29.422 -0.0687 -0.0560  0.0358
10387W        W53481   1.511  12.580  28.194  0.0924  0.0360 -0.1823
10388W        W53482   0.565  12.208  29.236 -0.0815 -0.0744 -0.0788
10389W        W53483  34.065  13.332  28.418  0.0677 -0.2493  0.2981
10390W        W53484   2.607  14.011  28.515 -0.1079 -0.4958  0.0576
10391W        W53485   1.147  14.082  28.521 -0.0699  0.1682  0.0144
10392W        W53486   2.648  14.900  31.608 -0.1924 -0.2408 -0.0082
10393W        W53487   3.709  11.892  26.611  0.1753  0.2427 -0.0956
10394W        W53488   3.589  11.401  28.224 -0.0718 -0.4823  0.0196
10395W        W53489   5.006  11.587  27.951 -0.1954 -0.0692  0.0420
10396W        W53490   1.606  13.907  31.501  0.3328 -0.0318  0.0889
10397W        W53491   1.797  11.964  31.076 -0.1202 -0.1270  0.1482
10398W        W53492   3.585  12.823  29.147 -0.0115 -0.0476 -0.0544
10399W        W53493  34.096  11.401  31.247 -0.2991  0.0470  0.1427
10400W        W53494   3.751  10.564  30.631 -0.0469  0.1270 -0.0235
10401W        W53495  33.229  15.318  30.551 -0.0515 -0.0123  0.0470
10402W        W53496   3.795  14.446  28.717  0.1154  0.1465 -0.2735
10403W        W53497   0.126  12.242  27.971  0.0049 -0.0084  0.4688
10404W        W53498   2.313  12.407  27.803 -0.1615 -0.1551  0.0278
10405W        W53499   3.570  10.569  28.587  0.1692  0.0857 -0.0239
10406W        W53500   2.223  13.675  26.576 -0.0172 -0.0210 -0.0724
10407W        W53501   3.087  10.315  29.719 -0.0937  0.3164 -0.0394
10408W        W53502   0.937  14.409  28.953  0.1730 -0.2919  0.0100
10409W        W53503   2.661  12.767  30.750 -0.0696 -0.0130  0.1164
10410W        W53504   2.470  14.876  28.313 -0.1226 -0.1291 -0.0664
10411W        W53505  34.522  10.186  28.086  0.1312 -0.0265  0.0691
10412W        W53506   3.312  11.798  28.388  0.1106 -0.1076  0.3245
10413W        W53507   0.319  12.898  31.846 -0.3050 -0.0496 -0.1081
10414W        W53508   3.705  11.156  30.579 -0.0028 -0.0100 -0.0204
10415W        W53509   1.062  11.969  29.039  0.2550  0.0079  0.0559
10416W        W53510   2.587  11.850  29.835 -0.0582  0.1207 -0.0193
10417W        W53511   2.540  12.553  31.640 -0.1038 -0.3039 -0.2926
10418W        W53512   0.561  12.093  31.208 -0.0638 -0.0058 -0.1649
10419W        W53513   1.898  11.705  27.246  0.2798  0.0933 -0.1410
10420W        W53514   3.972  12.740  31.480 -0.3367  0.2998 -0.2298
10421W        W53515   1.921  12.187  28.063 -0.0673 -0.1599 -0.2366
10422W        W53516   3.445  14.100  30.539 -0.1603  0.0151  0.3308
10423W        W53517   0.464  11.354  28.157 -0.0550  0.0047  0.1630
10424W        W53518   4.109  12.848  28.391  0.0673 -0.1076  0.1700
10425W        W53519   2.047  13.036  29.096  0.1524 -0.0208 -0.0111
10426W        W53520   0.829  13.404  30.623  0.0598 -0.0853 -0.1447
10427W        W53521   2.955  15.011   0.017  0.3058 -0.3908  0.1581
10428W        W53522   1.547  10.113  28.302 -0.2776 -0.1678 -0.1534
10429W        W53523   3.381  13.282  27.356 -0.0743  0.2947  0.0593
10430W        W53524   3.997  11.867  29.094 -0.0991 -0.1508  0.0007
10431W        W53525   1.410  14.731  26.838 -0.1795 -0.1862  0.0838
10432W        W53526   2.920  13.594  28.897 -0.0405 -0.3426  0.0533
10433W        W53527   3.894  14.469  29.760 -0.0468  0.0322  0.2069
10434W        W53528  33.707  12.171  28.704  0.1631 -0.2603 -0.0134
10435W        W53529   3.334  14.985  30.145 -0.0602 -0.0438  0.0417
10436W        W53530   2.368  13.419  30.638 -0.2022 -0.2066  0.1693
10437W        W53531   2.185   8.765  28.412 -0.1239 -0.0294  0.3082
10438W        W53532   0.525  12.281  28.384 -0.0059  0.2064 -0.0131
10439W        W53533   0.696  14.184  28.323  0.0040  0.0414  0.1413
10440W        W53534   4.581  12.126  28.950  0.0479 -0.2500  0.1449
10441W        W53535   2.890  11.652  30.300  0.2315  0.0612 -0.0972
10442W        W53536   1.366  14.432  27.403 -0.0683  0.3099  0.0893
10443W        W53537   2.731  11.102  31.603  0.0864  0.1238 -0.2969
10444W        W53538   2.536  13.854  29.817  0.0163  0.3698  0.2196
10445W        W53539   0.258  14.797  30.834  0.0785 -0.1834 -0.2555
10446W        W53540   0.826  12.924  29.294  0.1670  0.0699  0.0059
10447W        W53541   2.016  11.834  29.030  0.3083 -0.3717 -0.0933
10448W        W53542   2.161  13.160  28.157 -0.0114 -0.0648  0.4401
10449W        W53543   1.462  14.196  26.577 -0.0715 -0.2131  0.0078
10450W        W53544   2.760  14.047  29.064  0.2458 -0.1093 -0.3748
10451W        W53545   1.188  13.325  29.149 -0.2212  0.0599 -0.2513
10452W        W53546   4.278  12.972  27.913 -0.1764 -0.1353 -0.0757
10453W        W53547   2.571  10.436  27.899  0.0753 -0.0081  0.0866
10454W        W53548   3.097  10.767  28.000  0.1307 -0.0568  0.0156
10455W        W53549   2.597  11.057  27.010  0.2115  0.0710  0.1592
10456W        W53550   1.041  13.347  29.698  0.0178  0.0834  0.1615
10457W        W53551   0.031  13.597  28.191 -0.0540 -0.1715  0.0298
10458W        W53552   1.269  14.573  28.506  0.1548 -0.2452  0.0382
10459W        W53553   0.220  12.967  29.870 -0.1196  0.0692  0.5416
10460W        W53554   0.492  11.209  31.223 -0.0689 -0.2595 -0.1312
10461W        W53555   0.147  11.520  31.650  0.2393 -0.4172 -0.2335
10462W        W53556  34.544  13.171  30.621  0.1158 -0.0311  0.4414
10463W        W53557   1.752  10.570  28.542  0.0066 -0.4112  0.2060
10464W        W53558   2.330  14.390  28.837  0.1093  0.2795  0.1099
10465W        W53559   1.757  11.426  30.029 -0.0610 -0.1275  0.2259
10466W        W53560   0.506  11.698  29.209 -0.4863 -0.2810  0.0157
10467W        W53561   2.174  14.308  28.355 -0.3948 -0.3528 -0.1313
10468W        W53562   3.887  13.194  28.868  0.2267  0.1724 -0.1192
10469W        W53563   1.883  11.487  29.392  0.1624 -0.4779 -0.0796
10470W        W53564   3.089  14.925  31.037  0.0483  0.0605 -0.2191
10471W        W53565   1.115  13.696  28.094 -0.3134  0.1564 -0.1622
10472W        W53566   0.409  11.353   0.040  0.4092 -0.1475  0.1621
10473W        W53567   1.044  11.186  31.299 -0.0189 -0.0139 -0.1437
10474W        W53568  34.579  12.718  27.932  0.0621 -0.3961  0.0643
10475W        W53569   2.497  11.331  31.229 -0.2273  0.3523 -0.1000
10476W        W53570   0.957  15.421  27.983 -0.0461  0.0344 -0.2395
10477W        W53571   2.949  14.390  27.755 -0.0641  0.0473  0.0760
10478W        W53572   2.138  14.050  31.758  0.1610  0.0537  0.2535
10479W        W53573   2.135  14.032  30.297 -0.0175  0.0763  0.0446
10480W        W53574  33.704  12.773  29.466  0.2212 -0.0680 -0.0528
10481W        W53575   2.497  13.184  27.327  0.1689 -0.2312  0.4852
10482W        W53576   1.482  13.375  31.315 -0.1122 -0.3628  0.1766
10483W        W53577   4.396  13.505  27.828  0.1761  0.2033  0.1899
10484W        W53578   3.282  12.210  27.500 -0.1034  0.4293  0.1257
10485W        W53579   2.183  12.652  26.676 -0.1732 -0.0996 -0.0381
10486W        W53580  34.492  11.545  30.804 -0.0924 -0.2249 -0.3149
10487W        W53581   1.093  13.785  29.018  0.0544 -0.0993  0.0819
10488W        W53582   3.554  11.495  29.179 -0.1627 -0.1070 -0.0076
10489W        W53583   2.325  12.046  29.429  0.1960  0.2258 -0.1322
10490W        W53584   3.788  12.954  27.942  0.1530  0.1068 -0.1822
10491W        W53585   1.456  13.572  27.110  0.0608 -0.4103  0.0724
10492W        W53586   1.982  12.225  30.391  0.0468 -0.0725 -0.0018
10493W        W53587   2.469  11.998  28.856  0.2481 -0.3500  0.1008
10494W        W53588   1.861  13.424  30.928 -0.1542 -0.1848 -0.0286
10495W        W53589   2.314  12.987  28.617  0.2543  0.0310  0.1705
10496W        W53590   3.079  13.118  30.479 -0.2971  0.0222 -0.1626
10497W        W53591   1.977  10.720  28.968 -0.0909  0.2492 -0.2025
10498W        W53592   3.409  12.843  26.771  0.1038 -0.0496  0.0183
10499W        W53593   3.014  15.206  30.447 -0.0162 -0.2826 -0.3743
10500W        W53594   2.356  14.655  31.284  0.0192 -0.0367  0.0892
10501W        W53595   2.458  12.796  29.937  0.0076 -0.1230 -0.0518
10502W        W53596   4.006  12.284  29.929  0.0604 -0.1405  0.1236
10503W        W53597  34.373  12.035  28.968 -0.1945  0.0460  0.0763
10504W        W53598   2.007  12.677  28.171  0.0421 -0.1720  0.2953
10505W        W53599   2.536  13.497  28.487  0.0209 -0.2254  0.0600
10506W        W53600   2.272  12.197  30.804 -0.1389 -0.0889  0.1285
10507W        W53601   2.189  11.475  30.258 -0.2648 -0.0954  0.0688
10508W        W53602   2.282  11.434  29.746 -0.0043  0.3735 -0.4210
10509W        W53603   2.363  14.121  29.394  0.0011 -0.2816 -0.0402
10510W        W53604   3.660  12.328  30.360  0.0203  0.2422  0.2961
10511W        W53605   4.249  12.604  30.234  0.0374  0.1452 -0.2605
10512W        W53606   3.343  13.004  31.357  0.1366  0.2177  0.3325
10513W        W53607   0.836  12.471   0.425 -0.1518  0.1621  0.1829
10514W        W53608  34.035  12.600  31.922  0.0660 -0.1690 -0.0860
10515W        W53609   1.350  14.730  31.155 -0.4004  0.0098  0.2458
10516W        W53610   0.110  12.157  31.314  0.1316  0.2367  0.3094
10517W        W53611   3.515  11.779  31.176 -0.0756  0.5110 -0.0564
10518W        W53612   1.772  12.436   1.333 -0.1202  0.0158 -0.1136
10519W        W53613   0.772  10.467  31.007 -0.0875 -0.0587  0.0475
10520W        W53614   3.671  14.549  30.506 -0.0307  0.1364  0.0695
10521W        W53615   1.351  15.317   0.113  0.4615  0.0560 -0.1721
10522W        W53616   1.568  10.686  31.699 -0.0947  0.1370 -0.0264
10523W        W53617   2.353  15.170   0.747 -0.2428 -0.0628 -0.0564
10524W        W53618   0.357  12.578  31.079  0.1279 -0.0445  0.1787
10525W        W53619   4.111  10.924  30.869  0.1773  0.0981 -0.0992
10526W        W53620   1.294  14.309   0.182  0.2235 -0.1216 -0.2739
10527W        W53621   0.812  14.654   0.152 -0.1136  0.0215 -0.0249
10528W        W53622   3.646  13.976  31.611  0.0823 -0.1493 -0.2575
10529W        W53623  34.482  10.480  30.786 -0.0832 -0.1409  0.0100
10530W        W53624   0.165  10.999  31.657  0.1186  0.1553 -0.0038
10531W        W53625   0.945  11.687  31.289  0.0259  0.1695 -0.0965
10532W        W53626   1.716  13.811  30.342  0.1626 -0.1676 -0.1799
10533W        W53627   3.711  12.146   0.040 -0.2326 -0.1717  0.0308
10534W        W53628   1.964  11.666   0.194  0.1492  0.1512  0.0977
10535W        W53629   1.375  11.477  31.079  0.0875 -0.3394  0.1436
10536W        W53630   1.142  11.767   0.860  0.2744 -0.2205 -0.0103
10537W        W53631   0.649  12.902  30.848  0.0954  0.1091  0.2994
10538W        W53632  34.510  14.455  31.312  0.0938 -0.2496 -0.2952
10539W        W53633  34.614  11.339  31.225 -0.0587 -0.0871  0.0235
10540W        W53634   0.999  11.784  31.814 -0.0453 -0.0168 -0.2030
10541W        W53635   2.252  13.531  30.161 -0.0139  0.2194  0.0903
10542W        W53636  34.540  12.432  31.753 -0.0470  0.1021 -0.0737
10543W        W53637   2.723  13.206   0.776 -0.0968  0.3383  0.1008
10544W        W53638   2.935  11.044  31.036 -0.1518 -0.2351 -0.1519
10545W        W53639   0.575  11.810  30.646 -0.2831 -0.3275  0.0597
10546W        W53640   0.154  13.653  31.927 -0.0291 -0.0545 -0.2328
10547W        W53641   1.057  13.675  31.445 -0.2535  0.0032  0.0439
10548W        W53642   2.319  14.226   0.195 -0.2980 -0.1166 -0.2681
10549W        W53643   2.035  12.469   0.839  0.1705  0.0371  0.0739
10550W        W53644   1.418  13.348   0.422  0.5034  0.0594  0.1638
10551W        W53645   4.234  14.569  30.763 -0.2393 -0.3332  0.3072
10552W        W53646  34.677  13.714   0.452 -0.2019  0.2156 -0.0534
10553W        W53647   2.824  10.654  30.726  0.1325 -0.0346 -0.2052
10554W        W53648   0.444  14.374  31.864  0.3699  0.0212  0.0786
10555W        W53649   1.860  12.934  31.146 -0.0629 -0.1164  0.1418
10556W        W53650   0.431  13.134  30.453 -0.0064 -0.1067 -0.4191
10557W        W53651   2.091  12.823   0.479 -0.2590 -0.2522 -0.1035
10558W        W53652   1.407  14.467  31.623  0.2037  0.0052  0.0356
10559W        W53653   3.876  12.215  31.531  0.2304  0.0956 -0.6657
10560W        W53654  34.024  14.755  30.905 -0.0348  0.1726  0.0708
10561W        W53655   2.864  14.131   0.276 -0.3575  0.2927 -0.0936
10562W        W53656   3.114  11.483  31.324  0.0253  0.1679 -0.4821
10563W        W53657   1.562  12.228   0.956  0.0974 -0.0793  0.0599
10564W        W53658   1.267  12.832   0.247  0.0704 -0.2164  0.3749
10565W        W53659   1.907  12.521  30.891  0.3054  0.0685 -0.2813
10566W        W53660   1.383  12.409  31.970 -0.0621 -0.0786  0.0222
10567W        W53661   3.310  14.106  31.973  0.4648  0.1677  0.2173
10568W        W53662   1.154  15.149  29.982 -0.0638 -0.1977  0.0517
10569W        W53663   3.163  13.994  31.487 -0.0757 -0.0324 -0.0444
10570W        W53664   0.033  13.230   0.226  0.2868  0.1079  0.1766
10571W        W53665   0.151  10.493  31.690  0.0079 -0.0337 -0.0044
10572W        W53666   0.300  12.647  30.557  0.0791 -0.0253  0.0447
10573W        W53667  34.160  12.086   0.154 -0.1810  0.0326  0.3460
10574W        W53668   1.598  11.907  30.198 -0.1002 -0.1443  0.1027
10575W        W53669   0.393  14.057  30.881 -0.2120  0.2971  0.2128
10576W        W53670   3.728  13.648  30.728 -0.1451  0.2225  0.2947
10577W        W53671   3.127  12.207  31.886  0.1026 -0.0709  0.0061
10578W        W53672   1.288  16.355  19.401 -0.0491  0.1041  0.0383
10579W        W53673   0.107  15.547  16.856 -0.0214 -0.1317  0.1385
10580W        W53674   1.438  14.005  16.589 -0.0278  0.1099  0.2089
10581W        W53675   3.695  16.500  16.808  0.0944  0.0709 -0.1282
10582W        W53676  34.461  14.458  18.059  0.0834  0.0771 -0.2263
10583W        W53677   1.362  19.384  17.825 -0.1519  0.1211 -0.0569
10584W        W53678   0.353  14.596  19.695  0.0820 -0.2117  0.1030
10585W        W53679   2.822  17.734  19.027 -0.2396  0.2330 -0.1665
10586W        W53680   2.782  16.592  18.895  0.0553  0.1366  0.3829
10587W        W53681   2.078  16.220  17.147 -0.2699 -0.1234  0.4336
10588W        W53682   1.750  16.422  18.166 -0.1575 -0.3512  0.3543
10589W        W53683   0.481  18.083  19.678  0.0712  0.3559 -0.0247
10590W        W53684   1.816  14.020  16.293  0.0651  0.2818 -0.1026
10591W        W53685  33.974  15.092  18.085 -0.1310 -0.2136  0.2061
10592W        W53686   1.968  17.097  19.253  0.1403  0.1657  0.0314
10593W        W53687  34.280  16.124  17.253  0.3199  0.1948 -0.0326
10594W        W53688  33.728  14.780  18.304  0.0305  0.3889  0.0527
10595W        W53689   2.513  16.115  16.815  0.2855  0.1778 -0.1006
10596W        W53690   0.446  18.155  17.029  0.0139  0.0061 -0.1106
10597W        W53691   0.680  16.176  18.782 -0.0165  0.0520  0.1468
10598W        W53692   2.076  13.945  19.042  0.1524 -0.1543  0.1133
10599W        W53693   2.923  18.108  17.460 -0.3077  0.1154  0.0934
10600W        W53694   1.058  16.439  16.990 -0.1940 -0.1481  0.2667
10601W        W53695  33.955  16.658  18.226 -0.0013 -0.2985  0.0820
10602W        W53696   0.808  15.573  17.455 -0.0071 -0.0184  0.0851
10603W        W53697   1.132  14.595  18.086  0.1388  0.0159 -0.0425
10604W        W53698   1.773  16.601  18.896  0.1616  0.1120  0.0880
10605W        W53699   0.660  17.647  18.016 -0.2039  0.0604 -0.2215
10606W        W53700   1.949  17.103  18.064 -0.1279 -0.0017 -0.0830
10607W        W53701   3.598  15.765  19.755 -0.0145 -0.0074 -0.0924
10608W        W53702  34.101  17.134  17.547  0.0340 -0.1868  0.1930
10609W        W53703  34.128  18.452  18.046 -0.0464 -0.0157 -0.2002
10610W        W53704   1.440  17.892  16.152 -0.0134 -0.1215 -0.0800
10611W        W53705   3.290  17.335  17.980  0.1189  0.3108 -0.1973
10612W        W53706   1.621  16.458  17.376 -0.2533 -0.2092 -0.1284
10613W        W53707   0.991  19.648  20.294  0.1083  0.4740  0.0096
10614W        W53708   1.405  18.379  16.978  0.0628  0.0241  0.0765
10615W        W53709   1.428  17.200  18.134 -0.0022 -0.0373  0.0475
10616W        W53710   1.379  17.808  19.050 -0.1604  0.0640 -0.1454
10617W        W53711  34.411  17.266  19.639 -0.1159  0.0055 -0.1834
10618W        W53712   0.140  17.047  17.242 -0.1337  0.3096 -0.0820
10619W        W53713   1.023  18.181  16.411  0.3423  0.0306 -0.3670
10620W        W53714   0.744  16.592  17.897  0.1941  0.0735  0.1163
10621W        W53715  34.690  16.530  21.183 -0.0402 -0.0240  0.1560
10622W        W53716  34.219  17.043  19.119  0.0020  0.2301 -0.0180
10623W        W53717   4.402  14.472  20.678  0.7145 -0.2009 -0.0820
10624W        W53718  34.564  17.520  16.622  0.0428  0.0552 -0.0949
10625W        W53719   2.983  15.800  16.919 -0.1057 -0.1049  0.0049
10626W        W53720   0.373  15.178  16.344  0.3562 -0.0824 -0.2985
10627W        W53721   2.586  15.072  16.780 -0.3742  0.0917 -0.1834
10628W        W53722   1.858  14.949  19.125 -0.0606  0.1696  0.2323
10629W        W53723   0.492  18.377  20.096 -0.0982 -0.2244 -0.0281
10630W        W53724   0.824  15.499  19.580  0.0117 -0.2849  0.2557
10631W        W53725   2.716  16.353  19.381 -0.1994 -0.0224  0.0816
10632W        W53726   1.966  15.435  18.203  0.0490  0.0426  0.0578
10633W        W53727   1.528  15.361  18.480 -0.1640  0.2019  0.1846
10634W        W53728  34.650  17.811  19.661  0.2232 -0.1251 -0.2854
10635W        W53729  34.494  16.658  18.119  0.0869  0.0235  0.1014
10636W        W53730   3.554  16.617  16.004 -0.3537 -0.0433 -0.3220
10637W        W53731   3.533  17.797  17.790 -0.1746  0.1381  0.0664
10638W        W53732   2.747  18.292  16.066 -0.3451  0.2388  0.1197
10639W        W53733   0.099  16.275  18.154 -0.2282  0.1105 -0.0628
10640W        W53734  34.323  15.924  18.891 -0.0961  0.3439  0.0715
10641W        W53735  34.298  14.774  19.407  0.1742  0.0885 -0.0953
10642W        W53736   1.327  15.419  16.559  0.0527  0.0376 -0.0196
10643W        W53737   1.312  17.389  19.389  0.1862  0.2157  0.3403
10644W        W53738  33.370  17.658  20.710  0.1003 -0.2532  0.1724
10645W        W53739   2.843  15.244  18.048  0.0123  0.0848 -0.1306
10646W        W53740  34.293  16.849  18.594  0.2134  0.2427 -0.2028
10647W        W53741   3.393  17.778  18.260 -0.2111  0.1439 -0.1423
10648W        W53742   2.709  16.957  15.781  0.0567  0.0824 -0.1269
10649W        W53743   1.926  15.540  20.378 -0.2815 -0.0529  0.0956
10650W        W53744   3.227  15.565  18.320 -0.3218  0.1834  0.1666
10651W        W53745   0.719  16.408  16.596 -0.1161 -0.1316  0.0224
10652W        W53746   0.647  16.323  17.265 -0.0273 -0.0673 -0.0587
10653W        W53747   3.493  16.409  18.088  0.2009  0.0114  0.0442
10654W        W53748   3.973  15.624  17.064  0.1676  0.0967  0.0870
10655W        W53749  34.140  18.053  19.447  0.3598  0.1283 -0.1726
10656W        W53750   0.182  15.691  18.031  0.3405  0.1294  0.0522
10657W        W53751   2.065  18.155  20.272  0.1985 -0.2824 -0.1039
10658W        W53752   0.223  18.585  16.925 -0.2496 -0.3038 -0.1846
10659W        W53753  33.109  18.370  18.416 -0.0433  0.3946 -0.1883
10660W        W53754  33.239  17.120  17.443 -0.0547  0.1480  0.0551
10661W        W53755  33.979  14.189  17.698  0.0223  0.1027  0.0140
10662W        W53756   0.628  18.489  18.646  0.1994  0.0510 -0.2033
10663W        W53757   2.741  14.231  16.929  0.1509  0.1850  0.0674
10664W        W53758  33.693  14.221  19.068 -0.0990  0.0702 -0.1574
10665W        W53759   1.732  15.011  16.325 -0.0178  0.2052 -0.0602
10666W        W53760  33.859  16.774  18.861 -0.2624 -0.1492  0.2224
10667W        W53761   2.487  19.774  17.150  0.2240  0.1107  0.2471
10668W        W53762   3.871  15.980  16.584  0.0447  0.2225  0.0186
10669W        W53763   2.607  17.553  17.375  0.3650 -0.2182 -0.2468
10670W        W53764  33.605  15.714  18.503  0.1498  0.3299 -0.3161
10671W        W53765  34.439  15.968  18.053  0.1983 -0.1443 -0.0501
10672W        W53766   1.486  15.170  19.564 -0.3152  0.1999 -0.1547
10673W        W53767   0.574  13.937  17.456  0.0082  0.1432  0.0832
10674W        W53768   1.864  15.538  20.882  0.1218  0.0417  0.0683
10675W        W53769  34.365  15.615  17.144  0.1718 -0.0912  0.1304
10676W        W53770   1.236  15.165  16.185 -0.0188  0.3271 -0.0515
10677W        W53771   0.623  16.164  18.182 -0.0489  0.0926  0.0785
10678W        W53772  34.078  16.056  17.709 -0.1239  0.1644  0.2049
10679W        W53773   2.176  16.251  19.346 -0.1718 -0.0438  0.0900
10680W        W53774   1.878  17.610  16.987 -0.0489 -0.0906  0.1061
10681W        W53775   3.088  17.484  18.510 -0.1077  0.0763  0.1295
10682W        W53776   2.019  18.156  17.657 -0.2611 -0.1465 -0.1267
10683W        W53777   2.323  14.259  18.672  0.1784  0.1834 -0.0648
10684W        W53778   1.155  15.999  16.698  0.3921  0.0933  0.0768
10685W        W53779   0.349  18.025  18.258  0.0244  0.1067 -0.2248
10686W        W53780   0.542  17.078  18.058 -0.1674  0.0392 -0.1837
10687W        W53781   0.869  15.405  16.832  0.1327  0.0913 -0.1872
10688W        W53782   2.987  16.653  17.373 -0.0139  0.2703 -0.0633
10689W        W53783   2.430  17.445  16.915 -0.1162 -0.0373 -0.1329
10690W        W53784   0.531  18.135  17.788 -0.0187 -0.1046 -0.1627
10691W        W53785   3.529  15.177  18.343 -0.0556 -0.0241  0.1739
10692W        W53786   3.152  16.547  19.876 -0.1253 -0.1326  0.2397
10693W        W53787   2.515  15.284  17.366  0.2484  0.1362  0.2871
10694W        W53788  33.372  15.510  17.328 -0.1508  0.2230  0.2338
10695W        W53789   0.583  17.079  18.571  0.0748  0.2319  0.5115
10696W        W53790   0.758  18.597  16.734  0.0088 -0.1527 -0.1217
10697W        W53791   0.149  16.966  18.345  0.2786 -0.0965 -0.0207
10698W        W53792   1.014  17.004  17.282  0.2261  0.0189  0.2961
10699W        W53793   3.462  15.964  18.727  0.1975 -0.0271 -0.0770
10700W        W53794  33.040  14.525  20.790 -0.2709  0.0890 -0.2176
10701W        W53795   1.096  16.058  19.037 -0.2130  0.1123 -0.2586
10702W        W53796   0.459  15.386  17.170  0.0984  0.0135  0.1849
10703W        W53797  34.338  14.845  19.943 -0.0036  0.1732  0.0078
10704W        W53798   0.950  14.586  16.982 -0.1101  0.3269 -0.0573
10705W        W53799   3.228  14.309  16.074 -0.2618  0.0284 -0.1922
10706W        W53800   0.780  17.463  18.890  0.1665 -0.0485 -0.1724
10707W        W53801   3.691  17.144  16.937 -0.1202 -0.2367  0.1786
10708W        W53802   2.306  14.758  16.383  0.0877 -0.1325  0.2212
10709W        W53803   2.649  15.135  16.280  0.0870 -0.3473  0.2375
10710W        W53804  34.085  17.429  21.152  0.0679  0.3840  0.0305
10711W        W53805   1.397  17.383  16.145  0.0188  0.0484  0.3125
10712W        W53806   0.648  16.685  18.929 -0.3540  0.0625  0.1689
10713W        W53807   0.033  15.866  16.300  0.0104 -0.0629  0.0273
10714W        W53808   3.187  18.980  17.222 -0.0073  0.1662  0.0454
10715W        W53809  33.477  17.486  19.739 -0.1058 -0.1604 -0.2851
10716W        W53810   1.538  16.211  18.601  0.1457  0.0097 -0.0564
10717W        W53811   2.917  16.765  17.838 -0.2773 -0.0354  0.3534
10718W        W53812   0.611  14.841  19.240  0.0586  0.0534  0.0085
10719W        W53813   1.338  15.934  16.225  0.1490  0.1293  0.1193
10720W        W53814   1.873  14.615  17.296  0.0992  0.1480 -0.0249
10721W        W53815  34.410  18.067  16.715 -0.1297 -0.3866 -0.0669
10722W        W53816   1.518  15.807  18.252  0.2263  0.0345  0.4120
10723W        W53817   2.287  16.818  18.818 -0.2983 -0.1936  0.0359
10724W        W53818   1.268  15.982  19.885 -0.0868 -0.2044  0.1624
10725W        W53819   2.528  15.866  19.558  0.0142 -0.0746  0.1169
10726W        W53820   3.073  14.834  16.779 -0.0364 -0.0109  0.1325
10727W        W53821   2.351  17.216  18.367 -0.0049  0.1643  0.1309
10728W        W53822   1.765  15.254  16.743  0.0713 -0.2326 -0.1181
10729W        W53823   1.743  15.934  20.174  0.2564 -0.1296  0.0969
10730W        W53824   1.563  16.772  18.456 -0.2007 -0.1317 -0.0796
10731W        W53825   0.111  16.932  19.894  0.1293  0.4508 -0.1938
10732W        W53826   2.252  17.324  18.915 -0.2139  0.1092 -0.0628
10733W        W53827   1.023  17.249  16.838 -0.0708 -0.2022 -0.1261
10734W        W53828   1.747  17.303  19.750 -0.0002  0.3258  0.2197
10735W        W53829   0.516  15.779  16.606 -0.0620  0.0687 -0.0324
10736W        W53830   1.915  17.926  16.303  0.3179 -0.1927 -0.3795
10737W        W53831   3.723  17.645  16.785  0.2784 -0.0037  0.3098
10738W        W53832   0.344  15.665  17.530  0.2480 -0.2155 -0.3860
10739W        W53833   0.925  17.334  18.349 -0.1692 -0.1156  0.3630
10740W        W53834   2.492  17.376  15.956  0.0659  0.1697 -0.0220
10741W        W53835   1.552  16.831  19.442 -0.1043 -0.0585 -0.0531
10742W        W53836   1.823  18.113  16.840  0.1235 -0.0953 -0.2340
10743W        W53837   2.168  15.809  19.172  0.4944 -0.1138 -0.0471
10744W        W53838  34.234  17.381  18.788  0.3496 -0.2829 -0.1322
10745W        W53839  34.536  15.988  16.818  0.2069 -0.1139  0.1400
10746W        W53840  33.545  15.593  16.798  0.2466 -0.2858  0.2328
10747W        W53841   2.002  15.047  17.615  0.2468 -0.4207 -0.3538
10748W        W53842   2.780  16.894  16.665 -0.0427  0.2257  0.0129
10749W        W53843   1.298  14.300  17.723  0.4386 -0.1341  0.1505
10750W        W53844   1.593  14.361  18.206  0.0925  0.0397  0.1232
10751W        W53845  33.421  19.501  19.053  0.3248  0.2228 -0.1584
10752W        W53846   2.459  16.942  17.941  0.2351  0.1601  0.1026
10753W        W53847   2.192  15.317  16.524  0.2150 -0.1443 -0.2248
10754W        W53848   2.189  17.884  17.269  0.2146 -0.0133 -0.0024
10755W        W53849  33.399  16.522  19.012 -0.1164 -0.0695  0.3906
10756W        W53850  34.451  14.584  16.807  0.1488  0.0847 -0.1549
10757W        W53851   2.552  16.792  20.262  0.1057  0.0475 -0.0846
10758W        W53852  34.309  16.247  18.513  0.2391  0.0394 -0.0143
10759W        W53853   0.152  17.468  18.257  0.1595  0.0852  0.1730
10760W        W53854   2.300  17.022  19.740  0.0309  0.0419 -0.0264
10761W        W53855   0.821  15.872  17.046  0.2398  0.0796 -0.3268
10762W        W53856   0.185  17.752  17.816  0.2186 -0.0247 -0.3654
10763W        W53857  34.123  15.738  18.442 -0.1357 -0.0534  0.0911
10764W        W53858   1.737  16.147  19.096  0.1672 -0.2558 -0.3456
10765W        W53859  34.675  15.848  18.455  0.1303  0.0495 -0.1742
10766W        W53860   1.666  15.887  17.281  0.2952 -0.1563 -0.0575
10767W        W53861   1.408  16.769  17.060 -0.2933 -0.2914  0.0232
10768W        W53862   1.911  17.597  17.642 -0.0626  0.2302 -0.0484
10769W        W53863   0.670  15.805  20.088 -0.2177  0.2046 -0.0687
10770W        W53864   1.222  18.046  20.209 -0.0181  0.2996  0.2749
10771W        W53865   1.464  14.582  19.522  0.1299  0.1695 -0.2800
10772W        W53866   3.284  17.609  16.550  0.0723 -0.1169 -0.0341
10773W        W53867   0.175  16.595  19.043  0.1061 -0.0986  0.2177
10774W        W53868   0.471  17.383  17.654 -0.1098  0.0386 -0.1895
10775W        W53869  34.322  17.532  17.870  0.1335  0.3888  0.0939
10776W        W53870   0.909  18.186  16.893 -0.0441 -0.3039 -0.3113
10777W        W53871   2.094  16.761  18.357 -0.0139 -0.0129  0.0273
10778W        W53872  34.367  17.638  19.213 -0.2911  0.1739 -0.1239
10779W        W53873   0.288  17.549  16.961  0.0629  0.2121 -0.5430
10780W        W53874  34.027  17.583  19.883  0.0439 -0.0049  0.0186
10781W        W53875   2.975  14.654  18.912  0.2978  0.1237 -0.0346
10782W        W53876   2.739  18.364  16.639 -0.3111 -0.0810  0.1208
10783W        W53877  34.684  14.705  17.233 -0.2831 -0.0316  0.1367
10784W        W53878   2.766  15.440  20.080 -0.0193  0.1123  0.0031
10785W        W53879   2.256  16.267  16.047  0.2318  0.1036 -0.2624
10786W        W53880   0.744  14.155  19.932  0.1525 -0.0215  0.5644
10787W        W53881   2.097  14.367  19.531 -0.1647 -0.1495 -0.1559
10788W        W53882   3.295  15.891  17.330 -0.2806 -0.0488  0.1621
10789W        W53883   0.542  15.137  18.693  0.2792 -0.1129 -0.1868
10790W        W53884   1.120  18.304  18.638  0.0178 -0.0790 -0.2233
10791W        W53885  33.745  15.998  20.021 -0.0025  0.0059 -0.1236
10792W        W53886   2.367  15.436  17.858  0.2766 -0.1791 -0.1711
10793W        W53887   0.405  16.142  17.699  0.0956 -0.3088 -0.0178
10794W        W53888   1.510  15.994  17.806 -0.0113 -0.1401 -0.2147
10795W        W53889   2.692  16.335  17.980  0.0895 -0.0358 -0.2048
10796W        W53890   1.851  17.168  16.313 -0.2065  0.0757 -0.0416
10797W        W53891   1.851  15.667  17.685  0.1949 -0.0765 -0.1073
10798W        W53892   0.475  17.127  19.237  0.2353  0.0787  0.0151
10799W        W53893   1.799  17.090  17.039 -0.0570 -0.0772 -0.0475
10800W        W53894   1.622  16.232  16.906 -0.1923 -0.2564  0.2550
10801W        W53895   0.900  16.060  17.678  0.1122  0.3054  0.4374
10802W        W53896  34.388  14.915  17.890 -0.1503 -0.2735 -0.1193
10803W        W53897   2.218  16.392  18.050  0.1254  0.2574 -0.1932
10804W        W53898   0.520  15.185  17.611  0.0570 -0.1586  0.1210
10805W        W53899   2.055  14.197  20.554 -0.0740 -0.1904  0.3266
10806W        W53900   2.947  15.628  18.700 -0.0652 -0.1699  0.1129
10807W        W53901   0.076  15.573  18.897  0.1474  0.2821 -0.0966
10808W        W53902  33.528  14.679  19.876  0.1169  0.3619  0.0883
10809W        W53903   3.791  17.470  20.337 -0.2391  0.4842 -0.0910
10810W        W53904   3.597  14.132  16.334  0.2356 -0.3422 -0.1925
10811W        W53905   2.750  14.469  19.488 -0.0802 -0.2915  0.0098
10812W        W53906   1.239  15.562  17.124  0.0725 -0.1669 -0.1026
10813W        W53907   2.218  15.034  15.950 -0.2264  0.0141 -0.0302
10814W        W53908   0.063  15.247  17.857  0.0457  0.2169  0.3827
10815W        W53909   2.303  16.332  20.872  0.0138  0.1127 -0.2406
10816W        W53910   0.025  14.260  16.452  0.0065 -0.0976 -0.1724
10817W        W53911   0.797  16.414  19.353 -0.0845 -0.0151 -0.0958
10818W        W53912   2.226  17.512  16.476  0.0288 -0.1258 -0.0509
10819W        W53913   1.030  16.980  19.237  0.1353 -0.0582  0.1602
10820W        W53914   1.674  17.570  16.542  0.2369  0.4335 -0.2134
10821W        W53915  33.679  14.342  18.544 -0.1317 -0.1664 -0.2127
10822W        W53916   0.357  17.778  20.051  0.1587  0.1002 -0.2564
10823W        W53917  34.134  14.883  16.611 -0.2266 -0.3906  0.0538
10824W        W53918   1.481  17.068  16.680  0.0421 -0.1273 -0.0107
10825W        W53919  34.533  16.227  19.295  0.0548 -0.0552 -0.2868
10826W        W53920   0.852  16.779  19.749 -0.1290  0.2446  0.1560
10827W        W53921  34.369  13.470  17.041 -0.0382 -0.0755  0.2200
10828W        W53922   3.387  17.520  20.640  0.0618  0.1236 -0.2866
10829W        W53923   0.552  17.851  17.375  0.1034  0.0817 -0.1829
10830W        W53924   2.916  14.187  18.478  0.1209  0.1168 -0.0245
10831W        W53925  34.432  18.572  19.331  0.1539  0.1567  0.0071
10832W        W53926   0.016  17.310  19.294  0.4223  0.5301  0.2145
10833W        W53927   0.874  17.471  17.325 -0.1732 -0.2703 -0.0992
10834W        W53928   2.393  16.280  18.918 -0.1541 -0.1877 -0.0804
10835W        W53929   1.306  15.692  18.807 -0.0176 -0.1208 -0.0435
10836W        W53930   2.582  16.688  18.401  0.0685 -0.2917 -0.2467
10837W        W53931   2.359  16.732  19.343  0.1968 -0.0716  0.1255
10838W        W53932   1.814  17.831  19.824  0.1779 -0.1292  0.1275
10839W        W53933   1.735  17.040  17.503 -0.0746 -0.1829  0.0592
10840W        W53934   1.080  16.954  18.659  0.3082 -0.0851 -0.2430
10841W        W53935   2.386  15.937  17.900 -0.0836 -0.2853  0.0857
10842W        W53936  34.076  16.176  19.620 -0.0944 -0.0142  0.1521
10843W        W53937  32.895  15.200  18.721  0.0711  0.2194 -0.2978
10844W        W53938   0.473  15.240  20.348  0.1317 -0.3752  0.0696
10845W        W53939   0.551  16.791  17.426 -0.0793 -0.0674 -0.0510
10846W        W53940   1.501  14.842  17.768  0.2593  0.0535  0.6063
10847W        W53941   2.104  17.101  15.854  0.1607 -0.0423 -0.2599
10848W        W53942  34.290  16.693  19.903 -0.1579 -0.2403  0.1193
10849W        W53943  34.026  15.700  19.407 -0.2358  0.1321  0.1091
10850W        W53944  34.361  18.685  18.809  0.2835  0.1900 -0.0236
10851W        W53945   2.455  16.611  17.018 -0.2954 -0.1665  0.2913
10852W        W53946   2.116  16.174  16.552  0.0752  0.1823  0.1898
10853W        W53947   0.225  16.659  17.879 -0.1334  0.0340  0.1899
10854W        W53948   2.499  15.612  17.010  0.1257  0.0032 -0.1176
10855W        W53949   0.064  18.263  17.898  0.1626  0.1136 -0.1458
10856W        W53950  34.510  17.902  18.230 -0.1741  0.1218  0.2727
10857W        W53951   1.555  18.319  16.441  0.1161 -0.0851 -0.0360
10858W        W53952   1.288  18.370  17.570  0.0795 -0.0547  0.3812
10859W        W53953   2.221  17.756  19.118  0.1940 -0.2500 -0.0741
10860W        W53954   3.384  13.037  16.548 -0.0583 -0.0359  0.4184
10861W        W53955   2.042  15.906  18.296  0.1099 -0.0862  0.0186
10862W        W53956   1.089  16.086  18.510 -0.0481 -0.1631  0.1396
10863W        W53957   2.528  18.024  18.809 -0.1818 -0.2153 -0.2582
10864W        W53958   0.404  16.699  19.511 -0.1780  0.1123  0.3668
10865W        W53959   2.227  16.953  16.695 -0.2583 -0.1613  0.0405
10866W        W53960   0.296  16.004  19.815 -0.1185 -0.1542  0.2006
10867W        W53961   4.200  16.455  20.925  0.5409 -0.0198  0.0724
10868W        W53962  33.758  17.283  18.946 -0.0244 -0.0921 -0.0285
10869W        W53963   2.294  18.319  17.012 -0.0834  0.0722  0.1657
10870W        W53964   0.009  15.301  17.362 -0.0797 -0.0956  0.0651
10871W        W53965   1.471  16.746  17.865  0.3067  0.2539 -0.1679
10872W        W53966   3.754  13.965  19.987 -0.3480  0.1700  0.3126
10873W        W53967   2.697  16.535  16.024  0.2192 -0.6954  0.1446
10874W        W53968   0.595  14.897  16.828  0.0498  0.1029  0.1902
10875W        W53969   0.982  17.284  17.791 -0.1114  0.2542 -0.2408
10876W        W53970   1.766  18.834  19.740  0.3297 -0.1100 -0.1393
10877W        W53971   1.070  16.872  18.115 -0.2162  0.2473 -0.1230
10878W        W53972  33.696  15.223  17.632 -0.1160  0.1543  0.1660
10879W        W53973   2.761  14.932  17.675  0.0567  0.0599  0.0651
10880W        W53974   0.372  16.192  19.334 -0.0581 -0.3184  0.1261
10881W        W53975   3.397  14.926  18.782  0.2352  0.2675  0.1987
10882W        W53976  34.503  16.829  17.523 -0.3277  0.1413  0.0690
10883W        W53977   3.648  15.441  17.917  0.0245  0.0067  0.1685
10884W        W53978   0.715  15.632  18.560  0.3404  0.0319 -0.1629
10885W        W53979  34.568  15.778  17.624  0.4657  0.0569 -0.4681
10886W        W53980   1.595  15.778  16.672  0.2782 -0.0087 -0.0289
10887W        W53981   1.722  16.314  19.582  0.0593 -0.1005 -0.1144
10888W        W53982   2.446  16.531  16.471 -0.0246 -0.0321  0.2191
10889W        W53983   3.125  18.058  19.236  0.2807 -0.3085 -0.1693
10890W        W53984   0.287  14.840  18.355 -0.0604 -0.0074 -0.0912
10891W        W53985   0.821  14.833  16.402 -0.0328 -0.1728 -0.2026
10892W        W53986  34.652  16.569  18.594 -0.1256 -0.2874  0.3544
10893W        W53987   0.209  15.383  18.410  0.0806 -0.0321 -0.1062
10894W        W53988   2.869  18.028  18.448  0.1055  0.1999 -0.0136
10895W        W53989  33.205  13.746  18.008 -0.0345  0.2031  0.0209
10896W        W53990   3.552  17.155  16.021  0.0346  0.0270 -0.1704
10897W        W53991   2.399  15.705  18.650 -0.0538  0.0211 -0.1440
10898W        W53992   1.126  17.855  17.184  0.4493 -0.4545 -0.0962
10899W        W53993   2.984  15.292  17.199  0.1660 -0.1519  0.1244
10900W        W53994   2.751  17.215  17.682  0.0988  0.2131 -0.1688
10901W        W53995  33.883  15.217  19.149  0.0776  0.0112  0.0465
10902W        W53996   2.299  17.416  17.887 -0.0355 -0.1478 -0.4168
10903W        W53997   3.037  15.984  19.632 -0.2265 -0.4025 -0.0169
10904W        W53998   2.119  15.094  17.093  0.0313  0.1378 -0.0337
10905W        W53999   1.012  15.235  17.813  0.0480 -0.3177  0.2153
10906W        W54000  34.606  18.666  18.341 -0.0061 -0.1524  0.2064
10907W        W54001   2.877  15.837  17.836  0.0787  0.0808 -0.2019
10908W        W54002   2.743  16.809  19.681 -0.0458 -0.0210 -0.0407
10909W        W54003   1.536  16.901  16.068  0.2543  0.1053 -0.0015
10910W        W54004   3.190  15.662  20.102  0.0082 -0.0020 -0.0677
10911W        W54005   1.384  17.463  18.580 -0.2463  0.0444  0.2235
10912W        W54006   0.937  17.640  22.113  0.3496  0.2394 -0.1654
10913W        W54007  33.519  16.733  17.220  0.0246  0.1723  0.0459
10914W        W54008   0.856  16.581  18.450  0.1854  0.1925  0.0515
10915W        W54009   1.436  17.424  17.227 -0.1868  0.1496 -0.0375
10916W        W54010   2.029  18.998  17.115 -0.1279 -0.0966  0.0614
10917W        W54011   3.096  16.596  18.312  0.0622 -0.4197 -0.0853
10918W        W54012   1.990  16.658  17.748 -0.0651 -0.3242  0.2571
10919W        W54013   3.234  16.429  18.857  0.0757 -0.2048  0.0613
10920W        W54014   1.094  15.612  18.226  0.0603  0.0405  0.1803
10921W        W54015   3.233  14.939  17.434 -0.0236 -0.1928 -0.4868
10922W        W54016   1.627  15.148  15.848  0.0088 -0.2476 -0.1424
10923W        W54017   0.163  16.143  18.885  0.2918  0.1911 -0.0626
10924W        W54018   1.192  16.343  18.024  0.3361  0.1163 -0.1071
10925W        W54019   0.136  15.941  17.230 -0.1985  0.1073 -0.0984
10926W        W54020  33.140  16.645  19.432  0.0092 -0.0698 -0.2511
10927W        W54021   0.089  15.779  19.426  0.1917 -0.2003 -0.2007
10928W        W54022   0.887  15.283  19.015  0.0501  0.3514  0.1646
10929W        W54023  34.331  16.511  18.963  0.0691 -0.0508  0.3169
10930W        W54024   1.002  15.041  17.289 -0.0563 -0.0734  0.1880
10931W        W54025   3.115  18.012  15.702 -0.4087  0.2264  0.0788
10932W        W54026   0.380  13.842  17.925 -0.3831  0.0720 -0.1704
10933W        W54027   0.720  14.131  17.015  0.5057 -0.1668 -0.1156
10934W        W54028   4.573  16.691  16.834  0.0026  0.1755  0.0327
10935W        W54029   3.621  18.040  16.476 -0.0752  0.0300  0.4551
10936W        W54030   1.284  15.608  17.649  0.2005 -0.0059 -0.1848
10937W        W54031   2.779  18.750  19.651 -0.1676  0.0275 -0.0318
10938W        W54032   0.326  17.301  16.594 -0.1094  0.0058  0.1451
10939W        W54033   0.347  15.342  19.328  0.1221 -0.0896 -0.0910
10940W        W54034   1.775  14.502  19.953  0.0183 -0.3489  0.0623
10941W        W54035   0.132  15.054  16.912 -0.0403  0.3648  0.0446
10942W        W54036   1.840  15.722  18.698 -0.1744  0.1708 -0.0494
10943W        W54037   2.692  17.156  18.747  0.1495  0.0279 -0.1538
10944W        W54038   2.619  18.770  16.333 -0.0138  0.0834  0.0481
10945W        W54039   1.761  17.462  18.943 -0.2575  0.0446 -0.1091
10946W        W54040   0.564  17.662  18.516 -0.0998  0.0365  0.1693
10947W        W54041  33.441  13.645  19.956  0.0239  0.0674 -0.0039
10948W        W54042   2.437  16.962  16.180 -0.2899  0.2504 -0.0037
10949W        W54043   0.776  17.272  20.041 -0.0191 -0.1701 -0.0485
10950W        W54044   4.007  16.846  16.100 -0.0720  0.1132  0.2513
10951W        W54045   3.738  14.739  18.168 -0.2109  0.0823 -0.1696
10952W        W54046   0.542  16.687  16.970 -0.2651 -0.1434 -0.1539
10953W        W54047  33.587  14.147  19.682 -0.1153 -0.3156  0.1616
10954W        W54048   0.792  15.571  20.493  0.3765  0.1173 -0.0241
10955W        W54049   3.038  16.139  18.433  0.0639 -0.1335  0.0653
10956W        W54050   1.076  15.118  18.353  0.2853  0.1419 -0.1336
10957W        W54051   2.945  14.675  16.231 -0.1712  0.0512  0.2387
10958W        W54052   2.579  17.939  16.377  0.1702 -0.2051  0.2114
10959W        W54053   0.403  16.578  18.476  0.5007 -0.1170  0.0242
10960W        W54054   2.889  16.181  17.278  0.0299 -0.0041 -0.1353
10961W        W54055   2.012  17.028  20.226 -0.3871 -0.1428 -0.2374
10962W        W54056   0.947  19.522  19.407 -0.0335 -0.0265 -0.1141
10963W        W54057   2.086  16.339  18.555  0.0553 -0.2106 -0.0292
10964W        W54058   0.553  16.872  16.547  0.2096 -0.1644  0.0657
10965W        W54059   4.783  16.593  17.346  0.0189  0.2767  0.0412
10966W        W54060   1.741  17.644  19.396  0.0890 -0.1441  0.1662
10967W        W54061   2.648  18.584  20.130  0.1157  0.0683 -0.4361
10968W        W54062   1.374  20.781  19.108  0.1244  0.3191  0.1555
10969W        W54063   1.213  16.060  17.297 -0.0473  0.2411 -0.1194
10970W        W54064   0.654  14.729  17.773  0.0634 -0.0151  0.1450
10971W        W54065  34.133  16.833  17.025 -0.4130 -0.0918  0.1824
10972W        W54066   1.824  16.644  16.800  0.0018  0.1257 -0.0382
10973W        W54067   2.728  15.649  18.246  0.1224  0.1887 -0.1128
10974W        W54068   1.507  15.323  18.002  0.0829  0.3070 -0.4815
10975W        W54069   2.339  14.739  17.409 -0.1094  0.1910 -0.1156
10976W        W54070   0.617  18.517  19.160 -0.2601  0.1807  0.2525
10977W        W54071   2.086  15.764  16.832 -0.2025 -0.2162  0.1960
10978W        W54072   1.474  17.040  22.985  0.0478  0.5235  0.0061
10979W        W54073   1.072  15.670  21.858  0.0871  0.0516  0.0213
10980W        W54074   3.558  16.262  19.819 -0.0909 -0.1388  0.1976
10981W        W54075   2.288  16.801  20.712  0.0560 -0.1704 -0.0011
10982W        W54076   0.240  16.240  21.526 -0.3314  0.1124  0.2848
10983W        W54077   2.726  16.819  21.466  0.1906 -0.0194  0.2278
10984W        W54078   0.766  13.859  22.269  0.0962  0.4138  0.0106
10985W        W54079   2.594  15.996  21.467  0.2931 -0.1625 -0.1643
10986W        W54080   3.660  18.657  21.716  0.1207  0.0440 -0.0473
10987W        W54081   0.456  17.631  19.344  0.0526 -0.3760  0.2588
10988W        W54082   0.511  15.774  22.386  0.1895 -0.0438  0.0476
10989W        W54083   2.655  16.611  22.525 -0.1558 -0.0919 -0.0632
10990W        W54084   0.061  14.947  20.414 -0.1785 -0.1755 -0.2553
10991W        W54085   1.038  14.938  22.638 -0.3312 -0.3008 -0.1241
10992W        W54086   2.715  15.095  21.964  0.0385  0.0650  0.0827
10993W        W54087  34.491  17.048  20.245  0.1523  0.2080 -0.2154
10994W        W54088  34.311  14.467  21.590  0.0272  0.2047 -0.0690
10995W        W54089   3.160  14.443  22.509  0.0571 -0.1823  0.1659
10996W        W54090   2.434  17.387  21.968 -0.0839  0.0566 -0.1737
10997W        W54091  34.023  15.727  23.020 -0.0312  0.2538 -0.1236
10998W        W54092   0.821  14.849  23.577  0.4184 -0.2836  0.1269
10999W        W54093   3.091  17.052  20.029 -0.0993  0.0944  0.3091
11000W        W54094  33.894  15.227  18.567 -0.1822  0.5610 -0.1926
11001W        W54095  34.645  16.587  20.281  0.0577 -0.1352  0.2146
11002W        W54096  34.405  16.242  21.733 -0.2384  0.0626 -0.1717
11003W        W54097   2.462  15.547  22.207  0.0745 -0.0337  0.0043
11004W        W54098   3.503  16.469  20.289  0.1878  0.0716 -0.2696
11005W        W54099   2.313  18.510  21.888  0.3344 -0.2144 -0.3470
11006W        W54100   2.473  17.172  22.650 -0.2475  0.1159 -0.0306
11007W        W54101   2.069  15.289  24.207 -0.2144 -0.0861  0.2294
11008W        W54102   0.889  16.077  20.700 -0.0645 -0.1190  0.1660
11009W        W54103  34.334  19.061  20.430  0.0965  0.1973  0.0182
11010W        W54104   1.231  17.630  21.717 -0.1741  0.1956  0.2040
11011W        W54105   5.505  17.053  19.897  0.3074 -0.0481  0.1426
11012W        W54106   2.479  16.808  23.030  0.2917  0.0935  0.0712
11013W        W54107   1.456  18.202  23.470 -0.6328  0.2687  0.0243
11014W        W54108  34.519  18.313  20.694  0.1039  0.2325 -0.2150
11015W        W54109   1.209  16.539  24.404  0.1639 -0.1385 -0.1175
11016W        W54110   2.507  16.906  22.184 -0.1919 -0.0002  0.1626
11017W        W54111   0.594  14.187  22.597 -0.0217 -0.3570  0.1673
11018W        W54112   4.154  15.583  21.304  0.1403  0.6816 -0.1553
11019W        W54113   1.103  16.881  20.217  0.1514  0.1943 -0.3019
11020W        W54114   0.735  16.452  21.587 -0.0323  0.0264 -0.1398
11021W        W54115   1.311  16.598  22.657 -0.1719  0.0093  0.5019
11022W        W54116  34.557  17.539  20.051  0.1132 -0.0883  0.0307
11023W        W54117   3.323  14.418  24.274 -0.1055  0.0795 -0.0703
11024W        W54118   1.247  17.404  21.216  0.2528 -0.2843  0.0436
11025W        W54119   1.296  16.560  19.864 -0.2927 -0.0222  0.0234
11026W        W54120   1.416  15.475  20.003  0.0341  0.1253  0.1617
11027W        W54121   2.865  15.625  21.178 -0.0901 -0.1064 -0.2107
11028W        W54122   0.829  14.819  20.160  0.2237 -0.1876  0.0924
11029W        W54123   0.934  18.238  21.086  0.0636 -0.1667 -0.1998
11030W        W54124   0.944  15.487  22.383 -0.4733 -0.2815 -0.1970
11031W        W54125   3.578  16.521  22.327 -0.0665  0.0347  0.0412
11032W        W54126   2.636  16.371  20.486  0.0571  0.1711 -0.0278
11033W        W54127   2.116  16.178  24.062  0.0682 -0.1296  0.3237
11034W        W54128   1.879  16.877  22.019  0.2262 -0.0065  0.1595
11035W        W54129   1.445  15.964  21.967  0.2081 -0.0320 -0.0593
11036W        W54130   1.252  16.554  18.940  0.0915 -0.1552 -0.0003
11037W        W54131   4.245  17.692  21.611 -0.0238  0.2419  0.1866
11038W        W54132   2.462  17.810  21.611 -0.1938 -0.0660  0.3111
11039W        W54133   0.231  15.659  21.350 -0.3142 -0.3058  0.1588
11040W        W54134   0.169  17.109  24.222  0.2137  0.0472  0.0016
11041W        W54135   0.250  15.930  23.131 -0.1300 -0.2881 -0.2573
11042W        W54136   1.577  14.873  20.365 -0.1850  0.0063 -0.1608
11043W        W54137   3.792  17.328  23.452 -0.1739  0.2241  0.3978
11044W        W54138  33.554  17.085  23.570 -0.1474 -0.1419  0.1076
11045W        W54139   4.590  14.720  21.524 -0.1488  0.1111 -0.1686
11046W        W54140   2.235  17.081  21.598  0.1840  0.1939 -0.1318
11047W        W54141   2.001  17.478  21.713  0.2619 -0.3991 -0.1158
11048W        W54142   1.843  17.121  21.298  0.3263 -0.0850 -0.0001
11049W        W54143   1.542  14.322  22.319 -0.0145 -0.4445  0.0019
11050W        W54144   1.882  15.486  23.145  0.1936  0.1013 -0.1522
11051W        W54145   1.220  17.082  19.772 -0.1221  0.1295 -0.0795
11052W        W54146   1.711  16.992  20.747 -0.1598 -0.0533 -0.1142
11053W        W54147   3.729  17.958  22.297  0.0691 -0.0032  0.0021
11054W        W54148   2.718  15.621  21.745 -0.0898  0.4910  0.2746
11055W        W54149   0.841  17.763  21.268  0.5048  0.1436  0.0743
11056W        W54150   1.650  16.027  22.420 -0.0215  0.2885 -0.0822
11057W        W54151   1.922  16.979  23.454 -0.2751  0.1251  0.0602
11058W        W54152   0.704  19.038  20.279 -0.0665  0.2859 -0.0544
11059W        W54153   0.247  16.801  22.496 -0.2479  0.2688  0.1636
11060W        W54154   0.526  16.860  20.180 -0.0818  0.0113 -0.0198
11061W        W54155   0.114  15.090  22.389 -0.5853 -0.0054  0.0488
11062W        W54156   0.363  17.112  21.926 -0.0446 -0.1239  0.0252
11063W        W54157   4.018  14.343  20.372  0.2397  0.1579  0.1384
11064W        W54158  34.056  14.873  24.677 -0.0555 -0.0741 -0.1786
11065W        W54159   1.796  14.344  21.338  0.0876 -0.1922 -0.1388
11066W        W54160   0.414  16.368  20.498 -0.1712 -0.0564  0.0338
11067W        W54161   3.808  17.970  19.918 -0.0438 -0.0274  0.1042
11068W        W54162   3.898  15.253  20.966 -0.1475  0.1542  0.1107
11069W        W54163   2.103  16.621  19.774  0.0074 -0.1488 -0.0942
11070W        W54164  33.752  15.152  23.099  0.0028  0.1046  0.1850
11071W        W54165   0.696  15.448  21.597  0.3220  0.1264  0.0821
11072W        W54166  34.140  16.488  23.928  0.0631  0.1562  0.1607
11073W        W54167   0.095  16.229  22.068  0.0792  0.0698  0.0767
11074W        W54168   3.207  15.475  23.378  0.0942  0.1592 -0.1032
11075W        W54169  33.399  14.594  20.398 -0.2151  0.2024  0.1214
11076W        W54170   3.833  15.248  23.480  0.1331 -0.4461 -0.2320
11077W        W54171   1.060  15.594  21.297 -0.2553  0.0220 -0.3644
11078W        W54172  34.667  16.734  22.122 -0.0540 -0.0607 -0.1136
11079W        W54173   3.108  16.350  23.205 -0.1960  0.1226  0.1644
11080W        W54174   2.926  17.560  21.885  0.1103 -0.0491 -0.0082
11081W        W54175   2.871  16.086  23.893 -0.2526  0.1422 -0.4305
11082W        W54176   3.158  17.699  21.465 -0.1906 -0.1309  0.0452
11083W        W54177   0.093  16.451  22.985 -0.2872  0.0583  0.0951
11084W        W54178  34.342  14.831  21.228  0.0837  0.1433  0.0005
11085W        W54179  34.206  19.560  21.335  0.1809  0.3631 -0.3249
11086W        W54180   0.899  16.808  21.144 -0.1208  0.1077  0.0354
11087W        W54181  34.597  15.648  20.867  0.0975 -0.0440  0.0268
11088W        W54182   3.383  18.151  21.372 -0.1077 -0.0358 -0.1253
11089W        W54183   1.865  16.579  20.946 -0.0134 -0.0188  0.0350
11090W        W54184   0.495  17.446  23.889 -0.0415 -0.2979 -0.1541
11091W        W54185   1.574  14.979  24.134  0.2717 -0.1009 -0.0282
11092W        W54186   3.559  16.452  23.443 -0.0204  0.2796 -0.0355
11093W        W54187   2.119  15.261  21.959 -0.0315  0.2424 -0.0544
11094W        W54188  34.352  15.368  18.662  0.1719  0.1317 -0.1372
11095W        W54189   2.746  17.968  22.633 -0.0622 -0.0141  0.0988
11096W        W54190   0.820  15.997  19.616  0.0697 -0.0880 -0.1380
11097W        W54191  33.396  16.848  21.232  0.2571 -0.1419 -0.0362
11098W        W54192   1.830  16.671  21.457  0.1930  0.1564 -0.0537
11099W        W54193   2.361  14.762  22.001 -0.0569 -0.1172  0.3463
11100W        W54194  33.746  15.931  24.596  0.0646 -0.2199 -0.1657
11101W        W54195   1.392  15.972  23.241 -0.1233 -0.3136  0.1099
11102W        W54196   0.001  13.688  21.054  0.2277 -0.0579 -0.2943
11103W        W54197   0.227  17.117  23.655  0.1352  0.1793 -0.2125
11104W        W54198   2.370  15.027  21.545  0.1260 -0.0962  0.1219
11105W        W54199   3.590  15.125  22.021  0.0459 -0.0925 -0.3560
11106W        W54200   1.649  16.344  23.585  0.0395 -0.0102 -0.0116
11107W        W54201   2.804  16.723  20.796  0.1886 -0.1034 -0.1963
11108W        W54202   2.673  15.922  20.272  0.2816 -0.0232 -0.0078
11109W        W54203   2.231  15.451  19.482  0.0564 -0.0669 -0.0032
11110W        W54204  33.320  17.258  24.053 -0.1293 -0.0276 -0.0729
11111W        W54205   1.496  16.631  22.186  0.1922 -0.1509  0.0817
11112W        W54206   2.700  16.469  21.999 -0.3125 -0.1093  0.2199
11113W        W54207   1.354  14.319  20.909  0.3464 -0.1484  0.1109
11114W        W54208   3.486  17.926  20.336  0.2217 -0.0532  0.0906
11115W        W54209   0.992  17.413  23.001 -0.0957 -0.0379  0.0799
11116W        W54210   1.119  17.059  22.628 -0.1178  0.1789  0.0817
11117W        W54211   2.930  17.055  21.881 -0.2939  0.2675 -0.0604
11118W        W54212   1.458  14.890  22.323 -0.0958 -0.1548 -0.0810
11119W        W54213   0.653  16.315  19.906 -0.0074  0.0669 -0.0126
11120W        W54214   1.342  14.207  21.367 -0.0071 -0.1742  0.3465
11121W        W54215   0.233  17.296  20.817 -0.1529  0.0280 -0.1918
11122W        W54216   3.539  15.407  22.513  0.0888  0.0615  0.0642
11123W        W54217   1.888  15.749  21.898 -0.3367  0.1872  0.0448
11124W        W54218   2.115  15.251  22.599  0.2147  0.0846  0.0892
11125W        W54219   4.062  14.854  23.663 -0.1860 -0.2183 -0.0265
11126W        W54220   3.473  14.863  22.521 -0.0630  0.3346 -0.5185
11127W        W54221   3.309  15.486  22.049 -0.1470  0.2030  0.2631
11128W        W54222   0.049  16.098  20.260 -0.1203 -0.0028  0.0973
11129W        W54223   2.506  15.520  22.707 -0.1402  0.0628  0.0665
11130W        W54224   0.950  18.583  22.673  0.1015 -0.2757 -0.4022
11131W        W54225   0.959  18.293  23.549  0.1838  0.1895  0.4224
11132W        W54226   2.989  16.702  24.148  0.1453 -0.0606  0.2661
11133W        W54227   2.123  16.242  21.338 -0.0578  0.1665 -0.1473
11134W        W54228  34.531  15.563  23.129  0.1057  0.3797 -0.0098
11135W        W54229   1.460  15.367  21.168  0.1177  0.1079  0.2750
11136W        W54230   1.824  17.488  22.730  0.0921  0.2597  0.1209
11137W        W54231   1.286  17.582  20.416 -0.0699 -0.0148 -0.1373
11138W        W54232   0.377  14.764  22.716  0.1284 -0.2639  0.1223
11139W        W54233   2.810  17.019  23.354  0.2497  0.1175  0.0999
11140W        W54234   1.282  17.636  19.927 -0.0870  0.0487  0.1391
11141W        W54235   2.851  15.740  23.191 -0.0107 -0.0818 -0.0805
11142W        W54236   1.364  17.885  21.227 -0.0981  0.2003 -0.1057
11143W        W54237   4.963  14.923  23.430 -0.0409  0.2259  0.1670
11144W        W54238  34.017  17.278  23.199  0.0386  0.1002 -0.3673
11145W        W54239   1.873  15.270  21.505 -0.0813  0.0475  0.2008
11146W        W54240  34.576  16.315  19.749  0.1675  0.0924  0.2870
11147W        W54241   2.642  15.127  22.965  0.2325  0.1049 -0.0791
11148W        W54242   2.668  16.311  19.930 -0.0963  0.1889 -0.2113
11149W        W54243  34.636  16.033  22.627 -0.2815 -0.0307  0.1820
11150W        W54244   0.663  14.910  21.682  0.1805  0.1516  0.1072
11151W        W54245  34.613  17.543  21.207 -0.3575  0.3557  0.0553
11152W        W54246   2.047  16.919  22.533 -0.0800 -0.0689 -0.1138
11153W        W54247   2.339  15.163  20.913 -0.0058 -0.0247 -0.2343
11154W        W54248   3.869  16.932  21.816 -0.0132  0.0791 -0.1043
11155W        W54249   2.146  16.583  24.381  0.1841 -0.3070 -0.1656
11156W        W54250   0.365  13.793  20.731 -0.0394  0.0706 -0.0808
11157W        W54251   3.318  15.820  23.068 -0.0308  0.1896  0.0184
11158W        W54252   0.194  16.070  20.915  0.2148  0.1601 -0.2765
11159W        W54253  34.014  18.242  20.803 -0.2344 -0.2528  0.1516
11160W        W54254   1.846  16.099  23.054 -0.0477  0.0641 -0.1644
11161W        W54255  34.238  15.167  20.386 -0.0627 -0.2803  0.0086
11162W        W54256   0.201  17.282  20.249  0.0373  0.0973 -0.1943
11163W        W54257   0.710  15.736  22.837 -0.2273 -0.1295 -0.1986
11164W        W54258   2.564  15.899  23.561  0.0792  0.0978 -0.1016
11165W        W54259   1.888  14.279  21.913  0.2888 -0.2053  0.0285
11166W        W54260   1.941  15.766  21.356 -0.0052 -0.0330 -0.1858
11167W        W54261   2.356  15.835  20.995 -0.2126  0.0225 -0.1080
11168W        W54262   3.810  16.459  21.888 -0.1000  0.0896 -0.0344
11169W        W54263   1.609  15.213  22.767 -0.0057 -0.0681 -0.3578
11170W        W54264   1.001  16.883  23.081  0.2934  0.0361 -0.0117
11171W        W54265   1.286  14.142  21.925 -0.0021 -0.3545 -0.0026
11172W        W54266   3.564  17.319  18.612  0.1443  0.1762  0.3148
11173W        W54267   0.875  15.817  23.337  0.0453  0.0841 -0.0647
11174W        W54268   1.588  16.594  20.281  0.0289  0.0832  0.1541
11175W        W54269  34.151  16.938  22.098  0.1596 -0.1677 -0.0708
11176W        W54270   1.555  17.464  20.828  0.0294 -0.0778 -0.2069
11177W        W54271   2.356  15.509  21.421  0.0451 -0.1603 -0.0147
11178W        W54272   2.272  16.240  22.774  0.1973 -0.3047  0.1268
11179W        W54273   1.243  17.079  22.104  0.4903 -0.2603  0.1198
11180W        W54274   0.804  16.561  22.510 -0.0560  0.0035  0.1676
11181W        W54275   3.021  14.466  20.234  0.0208 -0.3140  0.3910
11182W        W54276   2.336  17.934  19.815 -0.0160 -0.2115 -0.0499
11183W        W54277   1.020  14.451  22.365  0.1309  0.0503 -0.0117
11184W        W54278   2.594  13.949  22.541  0.0710  0.0725  0.1231
11185W        W54279   0.706  17.294  21.009 -0.1263 -0.2694 -0.3052
11186W        W54280   2.043  14.478  23.133  0.1628 -0.1160 -0.0765
11187W        W54281   0.480  15.250  23.758 -0.0983  0.2071 -0.2156
11188W        W54282   2.329  17.720  20.546  0.2741  0.1737  0.0155
11189W        W54283  34.391  16.467  23.435 -0.3918 -0.1020 -0.5801
11190W        W54284   1.825  18.330  23.818  0.0700  0.0862 -0.2871
11191W        W54285   0.551  17.148  24.640 -0.2700  0.4442 -0.0808
11192W        W54286   2.603  15.064  22.433  0.0461 -0.1025 -0.0584
11193W        W54287   0.962  14.603  21.866  0.0740  0.2438  0.2814
11194W        W54288   1.326  16.580  21.564 -0.1694  0.0759  0.1322
11195W        W54289   3.832  17.413  21.939  0.0325  0.1712  0.1576
11196W        W54290   1.015  17.619  20.815  0.0695 -0.0799 -0.3337
11197W        W54291   2.866  16.028  20.820 -0.1006 -0.1844 -0.2150
11198W        W54292  34.214  16.424  22.211  0.1468  0.2515  0.0654
11199W        W54293   2.986  16.005  21.869 -0.1204  0.0549 -0.0477
11200W        W54294   0.941  16.923  21.683 -0.1123  0.1723  0.0039
11201W        W54295   0.036  17.203  21.542  0.2456  0.4158 -0.2009
11202W        W54296   1.285  13.996  23.148  0.1728  0.0723 -0.0956
11203W        W54297   3.162  16.601  21.261  0.1766 -0.2159  0.3411
11204W        W54298   1.552  15.114  21.831  0.1686  0.2939 -0.1338
11205W        W54299   2.074  15.707  22.498 -0.0382 -0.3130 -0.3876
11206W        W54300   0.783  14.041  23.319  0.1312  0.1187 -0.0168
11207W        W54301   1.800  16.508  22.670 -0.1861 -0.3917 -0.1330
11208W        W54302   0.151  14.701  21.975  0.0823  0.0950 -0.0761
11209W        W54303   2.551  18.583  23.424 -0.0664  0.0828 -0.0671
11210W        W54304   3.928  16.167  20.140  0.1442 -0.0918 -0.1898
11211W        W54305   4.310  15.357  22.902 -0.0118 -0.1721  0.0303
11212W        W54306   2.638  16.449  21.161  0.0339 -0.2170 -0.0934
11213W        W54307   1.510  16.217  20.567  0.0056  0.2658 -0.4353
11214W        W54308  34.620  14.372  21.162 -0.0522  0.1783  0.0193
11215W        W54309   3.866  15.704  22.780 -0.1266  0.0386 -0.2378
11216W        W54310   0.893  15.315  20.034  0.1454 -0.1260  0.1437
11217W        W54311   0.878  14.463  22.947  0.0055 -0.1479  0.5275
11218W        W54312   2.050  17.313  20.834  0.0309 -0.1054 -0.0584
11219W        W54313   1.339  17.516  22.525 -0.2381  0.1562 -0.0032
11220W        W54314   3.755  15.814  20.893 -0.4803  0.0269  0.3684
11221W        W54315   0.338  15.782  21.843  0.0039  0.3825 -0.0743
11222W        W54316   2.354  17.249  23.283 -0.1282  0.1787 -0.1933
11223W        W54317  34.569  16.792  19.481 -0.0377 -0.1500  0.1964
11224W        W54318   1.111  16.142  21.667 -0.1846 -0.1874  0.0127
11225W        W54319   2.021  17.082  22.979 -0.0794 -0.1735  0.0025
11226W        W54320   1.644  16.314  24.082 -0.2236  0.2011 -0.0885
11227W        W54321   0.819  13.841  20.970 -0.1508 -0.1024 -0.1077
11228W        W54322   4.306  15.697  23.312  0.3727  0.4438  0.2985
11229W        W54323   0.828  17.771  20.192 -0.0954  0.2777  0.2752
11230W        W54324   2.336  14.184  22.872  0.2386  0.0507 -0.0770
11231W        W54325   1.403  17.906  22.131  0.1433  0.0834 -0.0957
11232W        W54326   0.160  17.587  23.441 -0.0447  0.2971 -0.1311
11233W        W54327   0.289  18.164  20.544  0.0210  0.3370  0.2101
11234W        W54328   2.487  15.395  23.367 -0.3109  0.1352  0.0221
11235W        W54329   4.237  17.195  21.903 -0.5131  0.0202  0.0543
11236W        W54330   1.426  16.428  21.079  0.0941 -0.1802 -0.1881
11237W        W54331   3.081  15.647  22.555  0.0169  0.1973 -0.0399
11238W        W54332   3.074  16.344  22.448  0.2637 -0.0268 -0.0996
11239W        W54333   0.420  16.220  22.661 -0.1681  0.0224 -0.2320
11240W        W54334   1.918  18.391  23.301 -0.4059 -0.0153  0.0134
11241W        W54335   4.618  17.332  20.580 -0.2912  0.0221 -0.0854
11242W        W54336   0.057  17.727  20.514  0.1444 -0.1718  0.1945
11243W        W54337  33.526  15.597  23.110 -0.0937  0.2653  0.0788
11244W        W54338   1.026  15.135  22.033 -0.0436  0.0302 -0.0836
11245W        W54339   2.283  16.603  21.699 -0.1089 -0.0524 -0.1975
11246W        W54340   0.022  13.133  21.089  0.2224  0.0406  0.3325
11247W        W54341   1.191  17.117  20.745  0.0926  0.0234 -0.2145
11248W        W54342  33.789  19.138  23.514 -0.3870 -0.0034  0.2560
11249W        W54343   0.423  17.180  23.209 -0.1930 -0.1563 -0.2452
11250W        W54344   0.961  18.509  20.315 -0.2927  0.1756  0.2210
11251W        W54345   1.708  15.992  20.988  0.4377 -0.0659 -0.1514
11252W        W54346   1.098  16.050  21.152  0.0886 -0.1614  0.0801
11253W        W54347   2.082  18.738  23.619  0.1585 -0.1324  0.1932
11254W        W54348   1.062  15.127  20.507 -0.0559 -0.2272 -0.1160
11255W        W54349  34.104  17.439  22.121  0.1249  0.1341 -0.1611
11256W        W54350   0.466  17.770  20.842  0.0309 -0.2061 -0.1102
11257W        W54351   3.019  17.145  21.053  0.2813 -0.0006  0.3050
11258W        W54352   0.732  17.005  22.292 -0.0253 -0.2175 -0.2094
11259W        W54353   3.983  16.128  23.217  0.1910  0.0998 -0.0869
11260W        W54354   3.563  15.836  21.354  0.3177  0.0611  0.0135
11261W        W54355   4.048  16.595  21.390  0.3755  0.2469  0.2480
11262W        W54356   3.711  17.068  22.335 -0.0788  0.0670  0.0579
11263W        W54357   1.824  16.209  24.581  0.0416  0.2285  0.1039
11264W        W54358   1.840  16.378  21.878 -0.1985 -0.1001 -0.3842
11265W        W54359   1.082  14.594  20.587 -0.1044 -0.2168  0.1554
11266W        W54360   0.102  16.264  24.752 -0.0567  0.0515  0.1143
11267W        W54361   5.292  15.097  22.657  0.0713  0.3239 -0.3010
11268W        W54362  34.010  18.327  21.524 -0.0787  0.2206  0.0456
11269W        W54363   3.028  17.154  20.556 -0.0232  0.1079  0.0077
11270W        W54364   0.555  15.338  22.092  0.0343 -0.0564 -0.2195
11271W        W54365   0.661  15.938  21.439  0.1929 -0.0862 -0.2139
11272W        W54366   3.606  14.710  23.044 -0.0014 -0.3757  0.1501
11273W        W54367   1.024  16.349  20.281  0.0614 -0.2328 -0.0058
11274W        W54368   2.245  16.399  22.263 -0.0395  0.1763 -0.0239
11275W        W54369   2.029  17.310  22.253  0.1097 -0.1393  0.0673
11276W        W54370   0.354  18.127  21.448  0.3583 -0.1349 -0.1972
11277W        W54371   2.060  17.856  22.028 -0.2323 -0.0529  0.1643
11278W        W54372  34.628  15.334  19.651 -0.0915  0.0524 -0.1956
11279W        W54373   3.904  16.220  20.606 -0.1095  0.1143  0.0007
11280W        W54374   0.183  15.563  22.771  0.0009 -0.1244 -0.2183
11281W        W54375   3.303  13.939  23.414  0.0724  0.3326  0.1408
11282W        W54376   0.592  16.343  21.071 -0.3441 -0.0417  0.0913
11283W        W54377   3.217  15.102  21.706  0.0116 -0.0565 -0.1100
11284W        W54378   2.814  16.098  22.858  0.1015 -0.0257  0.1138
11285W        W54379   0.603  15.230  22.658 -0.2951  0.1780  0.4788
11286W        W54380   1.194  15.878  20.348 -0.4041 -0.0532  0.2060
11287W        W54381   3.418  16.884  23.198  0.2272 -0.0672 -0.3110
11288W        W54382   1.793  15.803  19.662 -0.0081 -0.0230 -0.1166
11289W        W54383   2.622  17.547  23.631 -0.1016  0.0003 -0.1859
11290W        W54384   2.411  16.044  21.940  0.0668  0.1897  0.1952
11291W        W54385   1.848  15.073  20.767  0.3378 -0.0209 -0.1503
11292W        W54386   0.451  17.636  22.055  0.1624 -0.0640 -0.0690
11293W        W54387  34.553  17.196  23.314  0.1800 -0.0792  0.3573
11294W        W54388   2.870  17.939  23.849 -0.1386 -0.1784  0.3130
11295W        W54389   0.425  15.861  20.531 -0.1771  0.1205  0.1200
11296W        W54390   2.511  17.246  20.423 -0.1126 -0.1590 -0.1600
11297W        W54391   4.362  16.702  21.823  0.1256 -0.3416  0.0837
11298W        W54392   1.878  19.059  20.533  0.0734  0.0207  0.2495
11299W        W54393   3.515  15.879  20.432  0.0979  0.1871 -0.0703
11300W        W54394   3.987  16.737  22.813 -0.0034 -0.1206 -0.0337
11301W        W54395   0.731  16.258  23.143  0.0614  0.0524  0.1096
11302W        W54396   3.055  17.422  23.821  0.0480  0.2700 -0.3835
11303W        W54397   2.279  17.441  21.274  0.0536  0.0576 -0.1469
11304W        W54398   1.686  13.901  20.570 -0.1447 -0.2661 -0.0120
11305W        W54399   0.611  16.142  23.596  0.1311 -0.0251 -0.1827
11306W        W54400   0.956  18.303  19.818 -0.2623  0.1907 -0.4196
11307W        W54401   3.173  15.542  21.516 -0.0758  0.3433 -0.2375
11308W        W54402   3.089  15.132  22.403  0.1404  0.2155 -0.1619
11309W        W54403   2.663  18.132  20.606  0.0952 -0.1516  0.0109
11310W        W54404   3.868  13.161  23.151  0.0943 -0.1152 -0.0304
11311W        W54405   1.176  18.114  21.625 -0.2618  0.0506 -0.3085
11312W        W54406   0.280  17.323  22.378  0.4933 -0.3541 -0.2095
11313W        W54407   0.625  15.781  19.098  0.0840 -0.4163  0.0715
11314W        W54408   2.081  16.617  23.144 -0.2604 -0.4043 -0.1221
11315W        W54409   0.438  18.355  20.990  0.0920  0.0411  0.1357
11316W        W54410   1.289  18.720  19.948 -0.0845 -0.1287  0.0614
11317W        W54411   2.326  18.224  22.998 -0.0224  0.0988 -0.1790
11318W        W54412   1.768  14.550  20.897  0.3512  0.2268  0.1532
11319W        W54413   3.315  17.237  21.557  0.1564  0.0673 -0.1771
11320W        W54414   1.169  15.156  21.513 -0.1137 -0.0418  0.0016
11321W        W54415   3.282  13.993  21.155  0.3140  0.1854 -0.2663
11322W        W54416   1.888  13.494  22.216 -0.1389 -0.0562 -0.0135
11323W        W54417   1.567  17.061  22.492  0.1322  0.0090  0.0659
11324W        W54418   0.711  15.637  20.972 -0.0758 -0.2308 -0.0720
11325W        W54419   1.406  17.086  21.587  0.0441 -0.0692  0.4015
11326W        W54420   0.577  17.127  22.738 -0.1028 -0.0870  0.1826
11327W        W54421   1.104  14.434  23.441  0.0075 -0.0674  0.0376
11328W        W54422   0.106  15.753  23.645  0.0358  0.1700 -0.0792
11329W        W54423   1.069  17.961  22.618 -0.1555 -0.3136 -0.0917
11330W        W54424   0.013  15.586  22.209 -0.4132  0.3563  0.2002
11331W        W54425   2.225  15.934  20.543  0.1925 -0.1349  0.3269
11332W        W54426  34.069  14.711  23.043 -0.0862  0.0148 -0.2538
11333W        W54427   1.255  14.864  19.954 -0.2989  0.2058  0.1760
11334W        W54428   2.688  17.799  20.144  0.1961 -0.0426  0.3764
11335W        W54429   2.582  17.159  19.335 -0.2184 -0.2797  0.0251
11336W        W54430   2.037  16.543  20.336  0.0097 -0.1495  0.0571
11337W        W54431   3.268  18.317  23.866  0.2693  0.1162 -0.0927
11338W        W54432  32.343  15.645  20.009  0.2850 -0.0225  0.1819
11339W        W54433   0.150  16.241  23.468  0.0388  0.0925 -0.2172
11340W        W54434   0.514  14.500  23.272  0.1708 -0.0391 -0.2579
11341W        W54435   0.619  14.868  20.639 -0.2507 -0.0764  0.0159
11342W        W54436   1.314  13.741  22.264  0.2736 -0.1030 -0.1684
11343W        W54437   1.861  17.322  18.492 -0.1413 -0.1451  0.0142
11344W        W54438   2.715  17.644  20.976 -0.0690  0.2593 -0.0845
11345W        W54439   2.357  15.883  23.089  0.0181  0.0786  0.2466
11346W        W54440   1.582  16.133  21.525 -0.0208 -0.2192  0.1182
11347W        W54441  34.125  14.555  22.582  0.0454 -0.0300 -0.1469
11348W        W54442   0.002  15.545  20.223  0.1251 -0.0307  0.2357
11349W        W54443   1.093  17.842  23.446  0.0710  0.1265  0.1648
11350W        W54444   3.070  16.692  20.364  0.1108  0.0433  0.0053
11351W        W54445   3.983  14.433  23.238 -0.0688 -0.1347 -0.0049
11352W        W54446   2.615  16.051  22.377 -0.1493  0.1989  0.0116
11353W        W54447  33.920  15.299  23.643 -0.0033  0.0695  0.3532
11354W        W54448  33.771  17.422  24.223  0.0639 -0.1644  0.1607
11355W        W54449   4.326  17.013  21.446 -0.0828  0.0430  0.0685
11356W        W54450   0.697  13.182  22.846 -0.1040 -0.0851 -0.0699
11357W        W54451   3.076  14.792  21.201  0.0516 -0.1967  0.4538
11358W        W54452   1.615  17.513  22.050 -0.1389  0.0035  0.1627
11359W        W54453   1.465  15.456  22.245  0.1738 -0.0225  0.1566
11360W        W54454   3.269  15.649  20.926 -0.0077  0.4297 -0.2596
11361W        W54455   1.517  16.523  23.104  0.1156  0.0229 -0.0094
11362W        W54456   2.219  16.789  21.182  0.0062 -0.0645 -0.0266
11363W        W54457   1.365  15.951  24.335  0.1611 -0.3183 -0.1072
11364W        W54458   1.284  15.720  20.818  0.2798  0.2733 -0.0374
11365W        W54459   3.595  15.336  20.567 -0.0264  0.2083 -0.1566
11366W        W54460   2.701  17.346  21.479  0.1328 -0.0044 -0.1320
11367W        W54461   2.394  18.349  22.515  0.3663  0.1339 -0.1404
11368W        W54462   1.948  17.874  23.027 -0.1804 -0.0856 -0.3784
11369W        W54463   3.740  17.509  22.542  0.1134  0.2026  0.0013
11370W        W54464   0.150  12.426  22.682  0.1134 -0.1386  0.2693
11371W        W54465   0.401  17.538  21.360 -0.1372  0.2352  0.1441
11372W        W54466  34.393  16.817  21.603  0.2680 -0.2171 -0.0909
11373W        W54467   3.226  15.302  22.889 -0.2206  0.0267  0.2006
11374W        W54468   0.671  14.815  22.252  0.4567 -0.1678  0.1596
11375W        W54469   2.811  15.193  21.459 -0.4001 -0.2629  0.0928
11376W        W54470   2.700  18.760  22.520 -0.0933  0.0882  0.0936
11377W        W54471   3.090  16.082  21.346 -0.1214  0.3746 -0.3088
11378W        W54472   1.192  17.535  25.541  0.1574 -0.0573  0.1539
11379W        W54473   1.373  16.334  24.779 -0.1356 -0.0457 -0.2515
11380W        W54474   1.152  15.490  23.667 -0.0103  0.2847  0.2662
11381W        W54475   0.886  16.011  24.328 -0.0238  0.0384  0.2586
11382W        W54476  34.608  14.432  24.726 -0.0107 -0.0621  0.0273
11383W        W54477   2.741  17.681  24.652 -0.1600 -0.0789 -0.0432
11384W        W54478   0.112  13.532  25.099 -0.0147 -0.3231 -0.2249
11385W        W54479   1.833  18.201  25.601 -0.0125 -0.1310 -0.4267
11386W        W54480   3.344  17.693  26.024 -0.0622 -0.0201 -0.2448
11387W        W54481   2.280  14.796  22.767 -0.0021 -0.0295  0.0661
11388W        W54482   1.673  14.701  24.807  0.1679  0.2265  0.4345
11389W        W54483   2.077  17.941  26.540  0.1185  0.0485 -0.1811
11390W        W54484  34.348  15.627  24.039 -0.0625  0.1152 -0.0616
11391W        W54485   0.592  14.161  25.506  0.0650  0.0201  0.0999
11392W        W54486   3.482  15.534  25.864 -0.0642  0.0323 -0.1169
11393W        W54487   1.346  15.953  25.171 -0.0596  0.0079  0.1525
11394W        W54488   0.245  14.935  25.754  0.4355 -0.1759 -0.0787
11395W        W54489   0.330  16.050  24.154  0.0323  0.1470 -0.0238
11396W        W54490   2.543  17.194  26.155  0.1126 -0.2207 -0.0383
11397W        W54491   1.174  15.925  26.420  0.2103  0.0386 -0.2641
11398W        W54492   2.867  14.478  26.571 -0.4320  0.0232  0.1915
11399W        W54493   1.572  19.054  23.869  0.2785 -0.1222 -0.1358
11400W        W54494   0.506  16.681  22.915 -0.4035 -0.1300  0.0875
11401W        W54495   0.768  15.776  25.155  0.2662 -0.1331  0.1635
11402W        W54496   2.993  15.339  27.024 -0.2657 -0.4858  0.0076
11403W        W54497   2.726  15.803  24.796  0.0686 -0.1964 -0.2807
11404W        W54498   2.530  15.553  24.381 -0.2368 -0.0817  0.0198
11405W        W54499   2.227  18.609  25.450  0.2197 -0.2695  0.2620
11406W        W54500   2.831  18.809  26.342  0.0938 -0.1076 -0.1124
11407W        W54501   2.895  16.915  27.517 -0.0348 -0.0206  0.2514
11408W        W54502   1.363  18.049  24.362 -0.3457 -0.0046 -0.1934
11409W        W54503   0.137  18.521  25.154  0.2173 -0.3089 -0.2925
11410W        W54504   1.772  17.408  23.195 -0.2229  0.1256  0.0014
11411W        W54505   2.402  18.418  24.090 -0.1057 -0.0944  0.0405
11412W        W54506   4.120  17.646  26.972 -0.2360  0.1311 -0.0046
11413W        W54507   1.401  19.236  26.400  0.4510 -0.0121  0.0577
11414W        W54508  34.051  18.127  22.884 -0.0862 -0.0425 -0.4082
11415W        W54509   2.714  17.486  25.094 -0.0055  0.2780  0.1385
11416W        W54510   2.343  18.427  26.584  0.0248  0.1434  0.0270
11417W        W54511   2.321  15.150  26.083 -0.1719 -0.0056  0.0366
11418W        W54512   2.907  16.879  26.204  0.1710  0.0806 -0.2673
11419W        W54513   1.981  18.806  24.110  0.0775 -0.0609 -0.0940
11420W        W54514   1.760  18.827  26.289 -0.4256 -0.1508 -0.1763
11421W        W54515  33.350  16.584  26.989 -0.3230  0.2659 -0.0135
11422W        W54516  34.449  17.651  24.827 -0.0878  0.0352 -0.1311
11423W        W54517   3.313  15.435  27.368 -0.3192 -0.1870 -0.1085
11424W        W54518  34.481  17.895  23.053 -0.0199  0.0414  0.0620
11425W        W54519   1.577  14.524  23.356 -0.2094  0.1121 -0.1135
11426W        W54520   1.085  13.488  23.042 -0.1213 -0.1174  0.1238
11427W        W54521   4.259  14.807  24.668  0.0816 -0.0867  0.2853
11428W        W54522   1.349  15.446  24.183 -0.0154 -0.0766  0.1773
11429W        W54523   1.371  18.248  25.107 -0.1537 -0.0263  0.0138
11430W        W54524   1.929  13.877  24.937  0.0457 -0.0240  0.1207
11431W        W54525   3.544  16.885  27.006 -0.0627 -0.4265 -0.0009
11432W        W54526   1.273  14.809  23.058  0.1394  0.2214 -0.0765
11433W        W54527   3.085  14.003  27.429 -0.0809 -0.4947  0.3131
11434W        W54528   0.790  17.130  25.636 -0.2069  0.1751  0.2106
11435W        W54529   1.951  15.980  25.045 -0.3425  0.2083  0.2359
11436W        W54530   2.700  17.408  24.192 -0.1319 -0.0197  0.2455
11437W        W54531   3.644  15.893  27.196  0.1254 -0.0891  0.2126
11438W        W54532   2.366  18.304  24.623 -0.0983  0.1723  0.0387
11439W        W54533   1.137  16.432  25.228  0.2813  0.1158 -0.0324
11440W        W54534  33.953  16.308  26.349 -0.0577 -0.0985  0.0914
11441W        W54535   0.185  14.568  26.170  0.0259 -0.1538  0.4611
11442W        W54536   0.051  15.308  23.468 -0.2161 -0.2320  0.1002
11443W        W54537   3.898  16.267  26.965  0.0309  0.1943  0.0443
11444W        W54538   1.600  17.114  25.820  0.1609  0.1313 -0.1985
11445W        W54539   4.535  17.132  25.855  0.4513 -0.2302 -0.1587
11446W        W54540   1.780  17.842  25.240 -0.2186 -0.3403  0.1043
11447W        W54541   3.363  16.485  26.462  0.1222  0.0018 -0.1873
11448W        W54542   2.617  16.304  23.289 -0.0766  0.3241  0.0924
11449W        W54543   3.407  14.876  24.114 -0.3990  0.3866 -0.2765
11450W        W54544   3.875  14.523  27.783 -0.0060 -0.2084  0.2857
11451W        W54545   1.104  16.631  23.949  0.3550  0.1264 -0.1817
11452W        W54546   1.047  17.128  25.225 -0.0631 -0.3478  0.3264
11453W        W54547   2.567  18.184  26.129  0.1126 -0.2876 -0.2211
11454W        W54548   1.711  14.981  23.208 -0.3434  0.1649 -0.0558
11455W        W54549   0.100  17.605  25.256 -0.3282  0.0255 -0.3464
11456W        W54550   1.916  15.364  28.011  0.1252  0.0172  0.4101
11457W        W54551   3.001  18.730  27.401  0.2706 -0.1530 -0.1503
11458W        W54552   0.315  18.924  24.818 -0.0777  0.0253  0.0392
11459W        W54553  34.501  16.277  25.626 -0.1286 -0.3938 -0.1872
11460W        W54554  33.471  18.078  24.123  0.1063  0.0008 -0.1521
11461W        W54555  33.818  14.602  25.954 -0.2956 -0.0170  0.3892
11462W        W54556   2.669  17.589  26.768 -0.0028  0.0188  0.1990
11463W        W54557   3.432  15.504  24.369 -0.1218 -0.0356  0.2479
11464W        W54558   1.797  15.882  25.937  0.0928  0.0969  0.1791
11465W        W54559   3.974  14.536  24.957  0.0777  0.3889 -0.0456
11466W        W54560   0.517  17.154  25.121 -0.2239  0.0758  0.2648
11467W        W54561   3.835  19.248  23.947  0.1813 -0.1087  0.2649
11468W        W54562   1.766  15.413  23.759 -0.0902  0.4864  0.0116
11469W        W54563   3.711  18.133  24.498  0.1693  0.1771  0.1158
11470W        W54564   0.605  17.593  25.315 -0.0858 -0.0512  0.0920
11471W        W54565   2.039  15.548  26.254 -0.1064 -0.0077 -0.0494
11472W        W54566   0.345  13.984  26.542  0.0354 -0.0744  0.1197
11473W        W54567   0.365  15.618  25.984  0.3609  0.3317 -0.2119
11474W        W54568   3.008  15.867  27.173 -0.2706 -0.3798  0.0812
11475W        W54569   1.223  14.694  24.411 -0.6228  0.1183  0.0212
11476W        W54570   2.402  17.310  24.765 -0.2063  0.1532  0.2749
11477W        W54571   2.579  16.913  24.312 -0.0858 -0.2514  0.0193
11478W        W54572   0.089  17.725  24.418 -0.1331 -0.0739 -0.0636
11479W        W54573   4.354  14.187  27.193 -0.1587  0.0944  0.1775
11480W        W54574   1.414  18.708  22.893 -0.3020 -0.2945 -0.1628
11481W        W54575   2.156  17.414  28.983  0.1047 -0.0038  0.1134
11482W        W54576   3.748  17.885  24.963  0.0044 -0.1658 -0.0399
11483W        W54577   1.258  15.838  25.829  0.1385 -0.2697 -0.1065
11484W        W54578   0.271  15.670  25.064 -0.0780 -0.2795  0.0425
11485W        W54579   1.080  18.666  25.220 -0.1926 -0.0566 -0.1439
11486W        W54580   1.997  18.144  24.304 -0.1581  0.2976  0.2297
11487W        W54581  34.437  13.610  25.737  0.0733 -0.0585  0.1992
11488W        W54582   2.911  19.758  26.271 -0.2835  0.0177  0.1033
11489W        W54583   1.482  15.890  23.813 -0.1402 -0.1762 -0.1525
11490W        W54584   2.443  16.281  25.060  0.1999  0.0490  0.1419
11491W        W54585   2.750  15.670  26.804  0.3465  0.1308  0.0642
11492W        W54586   3.682  15.863  24.605  0.1000 -0.1622  0.1102
11493W        W54587   1.742  15.284  24.545  0.0394 -0.0207 -0.1101
11494W        W54588  34.505  14.993  24.779  0.1895 -0.0044  0.2037
11495W        W54589   2.092  19.024  26.032 -0.0998  0.1012  0.3279
11496W        W54590  34.684  18.370  24.104 -0.1307  0.0179 -0.1271
11497W        W54591   0.374  16.416  25.645 -0.0077  0.5598 -0.1846
11498W        W54592   0.443  18.110  24.396 -0.1743  0.2557  0.0343
11499W        W54593   3.131  14.627  24.692 -0.3303 -0.2232 -0.0956
11500W        W54594   0.148  16.133  26.869 -0.1756 -0.2544 -0.1415
11501W        W54595   2.628  16.094  26.980 -0.0679 -0.1269 -0.3545
11502W        W54596  34.326  13.576  24.774  0.2564  0.2261  0.0662
11503W        W54597   1.801  16.715  25.514  0.0272 -0.0303  0.3816
11504W        W54598   2.672  15.099  23.944  0.5146  0.1534 -0.0775
11505W        W54599   3.831  13.912  23.303 -0.0472 -0.0459 -0.1391
11506W        W54600   3.192  15.617  25.219  0.1957 -0.0521 -0.0064
11507W        W54601   2.335  18.107  25.261  0.0273 -0.1496  0.1398
11508W        W54602   0.872  16.195  24.849  0.2174  0.2516  0.0590
11509W        W54603   2.747  14.898  23.474  0.1284 -0.1893  0.6827
11510W        W54604   0.160  16.712  26.008 -0.2219  0.1202 -0.0224
11511W        W54605   2.784  18.173  24.947  0.0154  0.1435  0.2370
11512W        W54606   2.544  15.085  25.569 -0.0080 -0.0147  0.1265
11513W        W54607   1.097  13.650  23.541 -0.0599 -0.3142 -0.1996
11514W        W54608   3.645  16.807  25.060 -0.0560 -0.2858 -0.0511
11515W        W54609  34.515  17.401  25.706  0.1131 -0.3067 -0.0148
11516W        W54610   3.954  16.097  27.507 -0.0029 -0.0868  0.0082
11517W        W54611   1.117  17.917  26.185 -0.2602 -0.0010  0.0332
11518W        W54612   2.929  13.472  27.404  0.2266  0.3573  0.1357
11519W        W54613   0.266  14.878  23.548  0.0368 -0.0686 -0.1756
11520W        W54614   2.187  15.083  23.135 -0.1732  0.0201  0.2584
11521W        W54615  33.805  19.511  22.965  0.2676  0.2228 -0.0797
11522W        W54616   1.491  14.499  23.865  0.1877 -0.1970 -0.0251
11523W        W54617   1.389  15.389  23.220  0.0149 -0.3876  0.1910
11524W        W54618   2.722  14.837  26.962 -0.0341  0.0081  0.2911
11525W        W54619   3.759  16.046  27.973  0.0694 -0.0173 -0.0657
11526W        W54620   3.568  16.158  25.142  0.2845 -0.2071  0.0061
11527W        W54621   0.982  14.410  26.764  0.0240 -0.0025  0.1818
11528W        W54622   0.679  16.381  24.034  0.0122 -0.1282  0.2454
11529W        W54623   2.310  14.744  26.635  0.0339  0.1111 -0.0915
11530W        W54624   0.767  16.176  26.568  0.0882 -0.1001 -0.3392
11531W        W54625  33.973  18.291  25.737  0.1898 -0.1470 -0.0269
11532W        W54626   3.241  17.030  26.516  0.2364 -0.1282 -0.2421
11533W        W54627   2.593  17.755  25.809 -0.2640 -0.0633 -0.1553
11534W        W54628   3.105  14.607  26.132  0.2953 -0.0576  0.0925
11535W        W54629  34.542  16.159  23.855  0.0238 -0.2171 -0.0348
11536W        W54630   0.152  18.476  24.589 -0.0199  0.5623 -0.1612
11537W        W54631   2.102  17.510  24.229  0.0122  0.3404  0.0893
11538W        W54632   1.140  14.176  25.713 -0.2104 -0.2388  0.3464
11539W        W54633   2.655  17.200  25.550  0.1716  0.0886  0.3533
11540W        W54634   1.730  17.823  23.976  0.0759  0.3701 -0.0914
11541W        W54635   4.521  16.283  26.183 -0.2672 -0.3078  0.1649
11542W        W54636  33.994  16.939  24.153 -0.2611  0.2958  0.1008
11543W        W54637   3.689  15.661  25.238 -0.1784  0.2143  0.1144
11544W        W54638  34.440  17.975  25.499  0.5157 -0.1807 -0.0102
11545W        W54639   1.062  16.153  23.810  0.2150  0.0032  0.0915
11546W        W54640  33.694  16.684  24.840 -0.1160  0.0897  0.2070
11547W        W54641   3.258  16.213  24.341 -0.1406 -0.0527  0.2671
11548W        W54642   2.162  16.288  23.572 -0.3006  0.0800  0.3024
11549W        W54643   1.125  15.339  25.859 -0.1268 -0.1012  0.0150
11550W        W54644   2.558  14.486  24.582 -0.1795  0.1621  0.1099
11551W        W54645  33.590  18.324  26.502  0.0928 -0.0980  0.0037
11552W        W54646   3.901  15.671  26.061  0.3357  0.1253  0.2011
11553W        W54647   4.400  16.193  23.441  0.0517 -0.0542 -0.1107
11554W        W54648   2.462  18.669  25.962 -0.1935  0.2160  0.3264
11555W        W54649   1.602  18.522  27.191 -0.2041  0.0909  0.2042
11556W        W54650  34.470  14.119  25.396 -0.4124  0.0736  0.1334
11557W        W54651   2.815  13.845  26.556 -0.2410  0.2245 -0.2829
11558W        W54652   1.648  16.713  24.580  0.0731  0.0233  0.1123
11559W        W54653  34.548  16.757  24.791 -0.0157 -0.0151  0.1087
11560W        W54654   2.309  18.956  26.472  0.0115 -0.3797 -0.0005
11561W        W54655   0.073  15.768  24.548  0.3418 -0.1284 -0.2771
11562W        W54656   0.637  16.645  25.261 -0.2636 -0.0773 -0.1488
11563W        W54657   1.114  15.365  26.506  0.1260  0.1038 -0.0690
11564W        W54658   3.580  17.804  26.954 -0.2461  0.3458  0.0236
11565W        W54659   2.081  14.282  24.666 -0.2362 -0.0180  0.0708
11566W        W54660   1.460  15.625  26.216  0.0465 -0.2507 -0.2234
11567W        W54661   1.872  14.584  24.332  0.0106  0.1087  0.0269
11568W        W54662   3.560  17.379  26.378  0.0190 -0.0622 -0.0888
11569W        W54663   2.376  17.145  27.124 -0.0148 -0.3723  0.0648
11570W        W54664   1.068  17.041  26.011  0.3226 -0.1889 -0.0291
11571W        W54665   2.107  16.023  26.301 -0.0980  0.0827 -0.0655
11572W        W54666   3.031  18.078  25.813  0.0471  0.2620  0.0515
11573W        W54667   2.886  16.548  28.336 -0.0376  0.0694  0.2641
11574W        W54668  34.691  18.724  22.190 -0.3199  0.2651 -0.1177
11575W        W54669  34.587  16.024  25.203  0.3699  0.1408 -0.0154
11576W        W54670   1.199  18.086  23.903  0.0750 -0.4095 -0.0766
11577W        W54671   1.821  15.056  26.252 -0.1958  0.2623  0.0533
11578W        W54672   1.578  17.958  26.369 -0.1064 -0.1505  0.1503
11579W        W54673   1.188  17.062  24.561  0.0218 -0.0416 -0.1687
11580W        W54674   0.899  17.504  24.914 -0.0773  0.1846 -0.2606
11581W        W54675   5.757  14.467  24.232 -0.1458  0.1326  0.2932
11582W        W54676   1.826  17.724  24.589  0.3323 -0.1697 -0.0857
11583W        W54677   2.098  14.799  25.203 -0.3781 -0.1285 -0.2168
11584W        W54678   4.331  14.478  27.555  0.0602 -0.1796  0.0362
11585W        W54679   0.920  15.112  24.024  0.0981 -0.1550 -0.1246
11586W        W54680   2.260  14.493  27.843 -0.1415 -0.0368  0.2402
11587W        W54681   1.572  14.206  24.567  0.0733 -0.1081  0.0064
11588W        W54682   2.034  17.052  24.453 -0.0226 -0.2310 -0.2349
11589W        W54683   1.641  16.379  25.192  0.1170  0.1332 -0.2419
11590W        W54684   1.637  17.659  26.777 -0.0267 -0.1154 -0.2539
11591W        W54685   0.376  17.046  26.569 -0.0314  0.0724  0.2425
11592W        W54686   3.023  15.803  24.281  0.0730 -0.0471  0.1788
11593W        W54687   1.573  15.782  24.741 -0.1608 -0.1055  0.1018
11594W        W54688   2.625  15.565  26.268 -0.1356 -0.2409  0.1433
11595W        W54689   3.216  17.078  25.255  0.0721 -0.3657 -0.2789
11596W        W54690   1.720  17.270  23.776 -0.0744 -0.0370  0.1069
11597W        W54691   2.441  16.773  24.769 -0.0759 -0.0932 -0.1272
11598W        W54692   1.909  16.470  25.993 -0.0119 -0.0363  0.3389
11599W        W54693   2.508  16.189  24.444 -0.0284  0.0545 -0.0121
11600W        W54694   2.733  17.005  23.834  0.0546  0.0060 -0.2312
11601W        W54695   2.342  17.828  24.833 -0.1214  0.0195  0.1036
11602W        W54696  34.456  14.694  25.983  0.0310  0.0053 -0.0215
11603W        W54697   3.054  15.726  26.381 -0.0358  0.1627 -0.2174
11604W        W54698   2.205  15.227  23.692  0.1921 -0.2120  0.0427
11605W        W54699   3.064  15.275  26.517  0.0917  0.2350 -0.1442
11606W        W54700   3.566  14.660  26.978  0.0270 -0.1200  0.1454
11607W        W54701   2.280  16.835  26.716  0.0722  0.1874 -0.1588
11608W        W54702   1.382  13.878  27.680 -0.0828 -0.1289  0.0226
11609W        W54703   3.928  17.806  26.483  0.0392 -0.1453 -0.0104
11610W        W54704   3.029  16.558  23.674  0.2584 -0.2795  0.2340
11611W        W54705   3.251  14.845  26.640  0.0396  0.0149  0.0458
11612W        W54706   2.307  14.861  24.176 -0.0548 -0.3205  0.2322
11613W        W54707   0.472  15.444  23.159 -0.0608 -0.5574 -0.0603
11614W        W54708   1.426  16.788  25.078  0.0101 -0.1955 -0.0661
11615W        W54709   3.760  17.612  28.018 -0.0178  0.1752 -0.1642
11616W        W54710  34.168  14.323  23.389 -0.0181  0.2155 -0.0079
11617W        W54711   2.925  15.508  27.808 -0.0608  0.0707  0.2189
11618W        W54712  34.463  18.049  23.592  0.0126 -0.0048 -0.1532
11619W        W54713   2.977  16.377  26.129  0.0363  0.3114  0.0962
11620W        W54714   2.880  16.457  24.701  0.2000  0.0533 -0.1874
11621W        W54715   1.519  15.330  25.068  0.1216 -0.3266  0.3600
11622W        W54716   1.753  18.347  26.619 -0.1148  0.0717 -0.1056
11623W        W54717  34.263  15.331  24.537 -0.0418  0.1868  0.1316
11624W        W54718   0.253  15.535  24.119 -0.0657 -0.1077  0.1249
11625W        W54719   1.863  17.242  25.400  0.0544 -0.0793  0.0017
11626W        W54720   3.117  17.158  28.085  0.1025 -0.3405 -0.0844
11627W        W54721   2.252  15.301  24.855 -0.2362 -0.0763  0.0376
11628W        W54722   3.421  14.449  27.526  0.0391 -0.0393 -0.3576
11629W        W54723   1.007  18.793  24.258  0.0413  0.0226 -0.1699
11630W        W54724   2.996  14.092  23.838 -0.1708  0.0197 -0.0324
11631W        W54725   0.543  17.041  26.081  0.0719 -0.1185  0.0758
11632W        W54726  34.157  16.020  26.003 -0.1336 -0.0863  0.0675
11633W        W54727   0.639  17.649  24.361  0.2057  0.5571  0.0505
11634W        W54728   3.254  14.406  25.607 -0.1957  0.0151 -0.3901
11635W        W54729   3.121  15.418  24.722 -0.0231 -0.1114 -0.0087
11636W        W54730   2.330  15.677  25.812  0.3150 -0.3443 -0.0935
11637W        W54731   5.389  14.863  26.115  0.4536 -0.2329  0.1549
11638W        W54732   2.497  16.118  26.015 -0.1211  0.1407 -0.4622
11639W        W54733   2.558  16.795  25.849 -0.0068  0.0644  0.3348
11640W        W54734   3.405  17.889  26.496  0.2431 -0.0412 -0.1123
11641W        W54735   3.902  16.744  24.643  0.1644 -0.0507  0.3186
11642W        W54736   0.859  18.076  25.210  0.2565  0.0660 -0.0839
11643W        W54737  33.325  15.255  27.685 -0.4322 -0.3453  0.2447
11644W        W54738   2.645  17.860  27.271  0.0489  0.0971 -0.0175
11645W        W54739   1.528  18.303  26.036  0.0440 -0.1627 -0.1497
11646W        W54740  34.417  14.191  25.902  0.1666  0.0670  0.0743
11647W        W54741   1.105  18.978  23.751  0.1817  0.2017  0.0137
11648W        W54742   0.909  17.155  26.535  0.0932  0.5089 -0.0712
11649W        W54743   0.528  16.292  26.117 -0.1186 -0.0996 -0.0414
11650W        W54744   0.600  18.541  25.484  0.0344 -0.1939 -0.0379
11651W        W54745   1.137  16.404  23.400 -0.1092  0.1272  0.0432
11652W        W54746   1.493  17.417  25.152  0.0677  0.1817 -0.2435
11653W        W54747   2.412  19.589  25.994  0.1410  0.2937  0.4336
11654W        W54748  34.294  15.932  22.220  0.0513 -0.0139 -0.2002
11655W        W54749   0.359  18.065  25.151  0.4319  0.0152  0.0540
11656W        W54750  33.162  17.198  25.385 -0.0237 -0.2754 -0.2194
11657W        W54751   1.941  18.606  24.580  0.1430  0.2122 -0.3013
11658W        W54752   2.252  17.137  23.858  0.2221  0.1635  0.1979
11659W        W54753   3.161  16.644  27.899 -0.0947 -0.0197 -0.0894
11660W        W54754   2.628  14.454  23.925 -0.3045  0.3212 -0.4164
11661W        W54755   2.655  16.280  25.484 -0.2078  0.0240  0.0136
11662W        W54756   2.932  14.168  24.406 -0.2641 -0.2207 -0.1822
11663W        W54757   2.830  16.522  26.598  0.0191 -0.1658 -0.2096
11664W        W54758   2.836  15.245  25.982 -0.0883  0.1874  0.0757
11665W        W54759   0.687  14.494  24.963  0.0579  0.2467 -0.1220
11666W        W54760   1.267  16.358  26.610 -0.1303 -0.4295  0.3215
11667W        W54761   4.353  15.134  27.071 -0.0868 -0.0671 -0.3075
11668W        W54762  34.164  18.340  25.255  0.2042 -0.1440  0.1287
11669W        W54763   3.091  17.391  25.654 -0.1909 -0.0017 -0.1736
11670W        W54764   0.690  15.752  23.897  0.0228 -0.0713 -0.2318
11671W        W54765   2.258  16.567  25.504  0.3785 -0.2731  0.2128
11672W        W54766   3.342  15.046  26.191  0.2698 -0.2852  0.1163
11673W        W54767   1.568  17.723  23.518  0.4171  0.1333  0.0424
11674W        W54768   2.117  16.023  25.512  0.0953  0.0195 -0.2413
11675W        W54769   1.225  19.156  24.620  0.2242  0.1650 -0.0311
11676W        W54770   2.110  16.987  25.709  0.1758 -0.4680 -0.4370
11677W        W54771   1.069  19.220  25.994  0.0636  0.2839  0.0042
11678W        W54772   0.677  15.206  25.475  0.0030  0.0586 -0.1596
11679W        W54773   3.640  15.244  23.970  0.4797  0.2514 -0.0274
11680W        W54774   1.748  16.207  26.755  0.4720  0.0821 -0.0949
11681W        W54775   3.312  15.634  26.788  0.0440 -0.0764 -0.2668
11682W        W54776   1.250  15.222  24.605 -0.0133  0.1279  0.4121
11683W        W54777   2.068  15.724  24.547 -0.0248 -0.2340 -0.0063
11684W        W54778   2.596  14.788  25.155 -0.2052 -0.2409 -0.0545
11685W        W54779  33.997  16.467  25.683 -0.1072  0.1614  0.1783
11686W        W54780  34.313  16.066  24.401 -0.0723  0.0660 -0.0789
11687W        W54781   3.463  16.898  25.610 -0.2900 -0.1071 -0.0411
11688W        W54782   1.521  15.766  22.798  0.2529  0.0930 -0.1304
11689W        W54783   3.244  19.539  26.871 -0.1288  0.0463  0.0839
11690W        W54784  34.620  13.896  23.909 -0.1648  0.0241  0.0994
11691W        W54785   1.113  15.698  24.702  0.3619 -0.1107  0.4474
11692W        W54786   2.041  16.585  24.994  0.3339 -0.0015  0.1871
11693W        W54787   1.508  16.306  25.708  0.0905  0.0068  0.0117
11694W        W54788   2.558  19.134  27.310  0.3172  0.1507 -0.0858
11695W        W54789  33.906  14.797  26.409 -0.0502 -0.5035 -0.1566
11696W        W54790   2.077  15.764  23.531 -0.0398  0.1345 -0.0855
11697W        W54791   2.863  15.765  25.869  0.1129 -0.0026  0.1585
11698W        W54792   2.329  17.666  22.475 -0.0887 -0.0814 -0.1933
11699W        W54793   1.829  17.052  24.947  0.0133  0.0561  0.3747
11700W        W54794   2.837  18.331  26.521  0.2207  0.1368  0.1353
11701W        W54795  34.412  15.780  26.434 -0.0266  0.1144 -0.2647
11702W        W54796   3.707  17.501  27.348  0.1083 -0.0552  0.2994
11703W        W54797   2.275  17.637  25.357 -0.2629 -0.1308  0.1020
11704W        W54798   0.179  15.288  24.577 -0.3158 -0.5434 -0.1169
11705W        W54799   0.821  16.677  26.357  0.0435  0.0647  0.2262
11706W        W54800   0.098  17.257  24.757 -0.1670 -0.0158 -0.0865
11707W        W54801   3.074  15.268  25.541  0.1082 -0.1402 -0.2077
11708W        W54802   2.930  16.353  27.284  0.1365 -0.2235  0.1914
11709W        W54803   2.414  19.147  25.028 -0.0004  0.2400 -0.0538
11710W        W54804   2.659  16.026  26.475  0.0726 -0.1081 -0.0825
11711W        W54805   2.154  17.480  25.770 -0.2562 -0.2975 -0.5257
11712W        W54806   0.691  18.479  26.146  0.3274  0.2565  0.0082
11713W        W54807  34.428  16.861  24.296 -0.0353  0.2034  0.0864
11714W        W54808   1.881  17.490  26.214  0.1844  0.0689 -0.3232
11715W        W54809   2.308  17.003  25.234 -0.0527 -0.2356 -0.1110
11716W        W54810   1.041  17.575  23.871  0.0803 -0.0129 -0.0610
11717W        W54811   3.755  16.304  24.313 -0.1812  0.4222  0.1836
11718W        W54812   2.528  15.773  25.325  0.2652  0.3368 -0.0872
11719W        W54813   3.259  18.217  25.198  0.3720  0.2315 -0.0682
11720W        W54814   1.835  14.894  23.673  0.0806 -0.2229 -0.1542
11721W        W54815   3.942  14.765  22.055  0.1752 -0.4228  0.2848
11722W        W54816   3.257  13.416  23.804 -0.0961 -0.3560 -0.0074
11723W        W54817   2.062  18.392  26.197 -0.2459  0.1411 -0.3420
11724W        W54818   0.846  17.097  23.630  0.1533 -0.3701 -0.2041
11725W        W54819   1.293  17.341  23.402 -0.1043 -0.3683  0.1688
11726W        W54820   0.421  16.159  25.140  0.0562  0.0066 -0.0479
11727W        W54821   2.456  14.826  27.394 -0.0122 -0.2443  0.0907
11728W        W54822   0.682  16.834  26.924  0.2929  0.0524  0.3335
11729W        W54823   0.984  16.695  24.830  0.0901 -0.0951 -0.5063
11730W        W54824   1.130  15.455  25.351  0.0754 -0.3442  0.2712
11731W        W54825   2.453  17.890  24.276  0.0656  0.1566 -0.3143
11732W        W54826   1.291  14.514  25.365 -0.0104 -0.2820 -0.3205
11733W        W54827   0.771  15.629  25.673 -0.3098  0.0838 -0.0239
11734W        W54828   2.064  17.607  23.515 -0.0050 -0.3493  0.0030
11735W        W54829   2.806  17.893  25.377 -0.0151  0.2048 -0.3642
11736W        W54830   0.917  14.609  23.982  0.0837  0.1178  0.0629
11737W        W54831   3.492  16.968  29.058 -0.1376 -0.2992 -0.0763
11738W        W54832   0.475  16.561  22.114  0.2877  0.1580  0.3352
11739W        W54833   2.532  16.589  27.091  0.2178  0.0962 -0.5910
11740W        W54834   2.079  15.054  26.970  0.1997 -0.0092 -0.0946
11741W        W54835  34.496  15.117  24.150 -0.2203  0.0346 -0.1698
11742W        W54836   2.688  15.333  25.093  0.0233  0.0918  0.2238
11743W        W54837   1.613  18.938  25.322 -0.0465 -0.3095 -0.0906
11744W        W54838   2.066  19.337  24.106  0.1996  0.3460 -0.0020
11745W        W54839   3.289  17.173  26.038  0.1195 -0.0663  0.0318
11746W        W54840   0.222  18.516  25.923  0.3129  0.0238 -0.1148
11747W        W54841   2.239  15.758  26.695 -0.1660  0.0736  0.4083
11748W        W54842   1.291  16.875  23.555 -0.0316  0.0322  0.1697
11749W        W54843   2.756  16.706  25.175  0.0796  0.2524  0.0724
11750W        W54844   3.245  17.720  24.248 -0.3056  0.2819 -0.0652
11751W        W54845   4.298  15.030  25.122  0.1546  0.0876 -0.2282
11752W        W54846   2.999  16.143  25.106 -0.0299 -0.0586  0.0523
11753W        W54847   0.758  13.934  26.812 -0.0772  0.2327  0.1182
11754W        W54848   1.187  16.802  26.798  0.0094 -0.1778 -0.0974
11755W        W54849   3.349  16.049  25.988 -0.2226  0.2649  0.1993
11756W        W54850   0.742  15.529  24.314 -0.2798 -0.1213 -0.0785
11757W        W54851   2.204  14.799  24.650  0.0765 -0.3147  0.1818
11758W        W54852   1.617  17.316  24.460  0.1083 -0.0033 -0.1994
11759W        W54853   2.151  15.398  25.450  0.1719  0.0682  0.2937
11760W        W54854   1.170  16.160  22.872 -0.0282  0.0400 -0.3725
11761W        W54855   3.057  16.846  26.956 -0.4263  0.2406  0.1552
11762W        W54856   2.563  19.588  26.580 -0.1111  0.0739 -0.0294
11763W        W54857   3.873  15.306  27.196  0.1380 -0.0490  0.1004
11764W        W54858   0.803  16.137  25.532 -0.1963 -0.1127  0.1993
11765W        W54859   3.282  16.558  25.250  0.1844 -0.2286 -0.0243
11766W        W54860   3.175  20.103  27.022  0.1767 -0.2091 -0.0688
11767W        W54861   2.501  17.709  26.315 -0.1956  0.0485 -0.3130
11768W        W54862   2.999  19.327  26.465 -0.1520  0.0914 -0.0745
11769W        W54863   3.015  16.643  25.662  0.0573  0.1444  0.0215
11770W        W54864   0.417  14.947  26.329  0.4531 -0.2283 -0.0888
11771W        W54865   0.678  16.916  24.132 -0.1384  0.2118 -0.3095
11772W        W54866   3.660  17.404  25.142  0.1943  0.4058 -0.2922
11773W        W54867   4.048  16.315  29.340  0.0240  0.0240 -0.1696
11774W        W54868   1.601  16.159  26.265  0.2246  0.1569 -0.0344
11775W        W54869   3.699  14.630  24.533  0.3258 -0.1701  0.0377
11776W        W54870   1.219  18.914  25.631  0.4194 -0.2906  0.0378
11777W        W54871   3.384  16.663  27.415 -0.0003 -0.1358  0.0991
11778W        W54872   0.702  17.254  30.949  0.0591 -0.0711 -0.0140
11779W        W54873   1.574  15.076  27.169  0.0382  0.1471 -0.1379
11780W        W54874   2.389  15.611  27.786  0.1552  0.1758 -0.1911
11781W        W54875   2.537  17.236  28.101 -0.3201  0.3044 -0.0173
11782W        W54876   1.123  15.856  27.781  0.1285 -0.3924 -0.1581
11783W        W54877   1.324  17.759  28.696  0.1563  0.2280 -0.0007
11784W        W54878   0.811  14.612  31.184 -0.0450 -0.0972 -0.3164
11785W        W54879   2.143  16.517  28.821  0.0539 -0.1020 -0.3285
11786W        W54880   4.093  16.721  30.170  0.0524  0.2887  0.1899
11787W        W54881   2.006  16.025  27.106  0.0009  0.0504 -0.0130
11788W        W54882   1.890  15.878  28.169 -0.0415 -0.0655  0.0499
11789W        W54883   0.539  17.710  30.714 -0.3665 -0.1072  0.0207
11790W        W54884   2.050  15.264  27.495  0.0622  0.0509  0.1950
11791W        W54885  34.625  15.451  29.058  0.1902  0.0607 -0.0350
11792W        W54886   0.249  17.243  29.550  0.0448  0.0180 -0.1971
11793W        W54887  33.481  15.532  25.910 -0.0373 -0.0234  0.2133
11794W        W54888   0.852  15.874  28.820 -0.0351 -0.1481  0.1534
11795W        W54889   1.099  16.238  29.015 -0.1231 -0.2602 -0.0752
11796W        W54890   1.759  18.173  28.493  0.0602 -0.0032 -0.0406
11797W        W54891   0.965  14.748  30.340 -0.1754 -0.2174  0.2646
11798W        W54892   0.642  15.050  30.629 -0.3109 -0.0992  0.1084
11799W        W54893   1.511  17.046  27.285 -0.0781 -0.0730  0.0817
11800W        W54894  34.163  15.707  28.154  0.2154 -0.1872  0.0174
11801W        W54895  34.182  17.054  28.126  0.3185  0.2070  0.1556
11802W        W54896   1.027  15.491  29.206  0.0105 -0.0390  0.0239
11803W        W54897   1.363  15.282  29.557  0.2293 -0.1275  0.0056
11804W        W54898   2.726  15.710  28.647 -0.3684 -0.1423 -0.2155
11805W        W54899   1.143  18.591  27.230 -0.2130 -0.2259  0.0608
11806W        W54900   1.915  17.640  28.523  0.1139  0.0872  0.1003
11807W        W54901   2.396  13.952  30.669 -0.2661  0.3503  0.1213
11808W        W54902   0.201  17.911  27.722  0.2303  0.1058 -0.0756
11809W        W54903   0.106  19.109  27.118  0.2301 -0.1900 -0.1295
11810W        W54904  34.546  17.442  26.619 -0.1015  0.1968  0.2202
11811W        W54905   3.508  17.394  29.351  0.0365  0.0109 -0.3891
11812W        W54906   2.675  17.003  29.041 -0.2623 -0.3437 -0.1912
11813W        W54907   2.456  17.517  31.192 -0.0534  0.1673  0.0699
11814W        W54908   1.349  18.064  26.935 -0.0623 -0.0950  0.1067
11815W        W54909   2.459  16.694  31.038  0.2567 -0.2130  0.0617
11816W        W54910   0.939  16.654  31.828  0.2164 -0.2776  0.0315
11817W        W54911   1.862  17.218  28.183 -0.1750 -0.2210 -0.0875
11818W        W54912   1.688  16.412  27.878  0.0996  0.0925 -0.1481
11819W        W54913   0.977  17.803  27.144 -0.2000  0.2754 -0.1309
11820W        W54914   1.271  17.811  27.787  0.1997  0.4156 -0.0158
11821W        W54915   1.086  16.342  30.450 -0.2843 -0.2370 -0.2552
11822W        W54916  34.431  17.666  27.860 -0.0990  0.2413  0.1562
11823W        W54917   3.149  13.830  31.010  0.1626 -0.2553 -0.4374
11824W        W54918   0.001  16.308  26.458  0.2492 -0.1697  0.0283
11825W        W54919   2.527  16.167  28.425 -0.0088  0.0086 -0.1744
11826W        W54920   1.981  15.857  27.634  0.0884 -0.3506  0.1924
11827W        W54921   2.396  15.758  27.305  0.1025 -0.1322  0.5153
11828W        W54922   1.431  14.752  29.532  0.1981  0.3436 -0.2506
11829W        W54923   1.377  16.874  28.835 -0.1147 -0.1323 -0.2838
11830W        W54924   1.526  14.777  30.164  0.2667 -0.0743 -0.2170
11831W        W54925   3.444  17.461  30.783  0.3254  0.4050  0.1287
11832W        W54926  34.569  17.134  28.650  0.0942 -0.1416 -0.1646
11833W        W54927   1.689  16.527  29.773  0.1266  0.0967 -0.0054
11834W        W54928   0.133  16.030  30.604  0.0858 -0.0064  0.2391
11835W        W54929   0.677  16.388  28.770 -0.0483 -0.2868  0.3003
11836W        W54930   2.699  18.668  28.162 -0.0411  0.0897 -0.0402
11837W        W54931   3.610  17.993  29.048 -0.1238  0.2040  0.2308
11838W        W54932   0.871  17.510  27.553  0.2529 -0.1533 -0.2423
11839W        W54933   1.476  16.105  27.481  0.3181  0.0271  0.2119
11840W        W54934   0.082  15.070   0.134 -0.0390 -0.1271 -0.0407
11841W        W54935  34.256  16.731  30.346  0.2489 -0.0068  0.0853
11842W        W54936   0.403  13.600  25.971  0.2860  0.0810 -0.0892
11843W        W54937   2.937  15.649  30.118 -0.1957 -0.0626 -0.1484
11844W        W54938  34.270  18.504  29.810 -0.0175 -0.1775 -0.0172
11845W        W54939   3.679  13.989  30.046  0.1105 -0.1200  0.0912
11846W        W54940   0.931  18.099  28.932  0.1460  0.0629 -0.2636
11847W        W54941   3.364  15.970  29.942  0.1436 -0.0475  0.0210
11848W        W54942   2.263  17.349  26.571  0.1037  0.1657 -0.2840
11849W        W54943   1.984  14.603  29.574  0.1078  0.0865  0.0540
11850W        W54944   2.339  14.973  30.433 -0.2736 -0.3403  0.0559
11851W        W54945   0.317  16.463  27.182 -0.1982 -0.3640  0.1174
11852W        W54946   1.649  16.867  27.747  0.1955 -0.3080  0.2423
11853W        W54947   3.484  17.866  31.137 -0.0830 -0.1118  0.1520
11854W        W54948   2.798  17.425  27.687  0.1443 -0.2056 -0.3910
11855W        W54949   0.035  17.673  28.769 -0.2468 -0.0078 -0.2594
11856W        W54950   1.212  15.970  29.503  0.2638 -0.3536 -0.0956
11857W        W54951   3.025  16.300  30.201 -0.1923  0.1714  0.0838
11858W        W54952   0.175  18.202  25.560  0.2065 -0.0126 -0.0530
11859W        W54953   0.525  18.548  29.654 -0.2645 -0.2194 -0.1425
11860W        W54954   0.673  19.977  27.322  0.2353 -0.1634  0.0259
11861W        W54955   0.775  14.923  28.955 -0.3887 -0.0594  0.0799
11862W        W54956   1.253  17.750  29.210  0.1855  0.1125 -0.0528
11863W        W54957   2.613  15.314  27.391 -0.0648 -0.0499  0.1722
11864W        W54958  34.596  13.576  30.997  0.2510 -0.1012  0.1005
11865W        W54959   3.257  13.236  28.935  0.4821 -0.0227 -0.1618
11866W        W54960   0.968  17.427  28.037  0.2318  0.1067 -0.0850
11867W        W54961   2.540  18.557  27.662 -0.1429  0.0575 -0.1848
11868W        W54962   4.369  15.515  28.129  0.3994 -0.1856  0.0495
11869W        W54963   3.323  16.389  28.696  0.1019 -0.1857 -0.3319
11870W        W54964   0.604  15.444  27.585 -0.0994 -0.1404 -0.0592
11871W        W54965  33.727  17.037  28.265  0.0218 -0.0256  0.0433
11872W        W54966   0.581  16.635  29.239 -0.0111 -0.3373  0.1126
11873W        W54967   0.587  16.589  31.393  0.0167  0.1740  0.1148
11874W        W54968   0.908  16.002  31.026  0.0241  0.0056 -0.2888
11875W        W54969   0.513  15.450  29.169  0.1892  0.2785 -0.0745
11876W        W54970   3.852  15.638  28.765 -0.0341 -0.1056  0.0597
11877W        W54971   3.204  15.694  28.211 -0.1062 -0.0224 -0.0539
11878W        W54972   0.192  15.313  27.206 -0.1480  0.0788 -0.0857
11879W        W54973   2.663  15.705  31.238 -0.0741  0.0417 -0.1233
11880W        W54974   1.720  18.251  27.708  0.0329  0.0902  0.0441
11881W        W54975   4.232  18.362  30.775 -0.1012  0.0286  0.0587
11882W        W54976   2.189  18.031  27.826 -0.3360  0.3868  0.3910
11883W        W54977   1.033  15.047  30.904  0.2221 -0.0740  0.2295
11884W        W54978   1.221  13.745  26.659  0.1193  0.0406  0.0820
11885W        W54979  34.690  18.609  27.308 -0.1268 -0.2136 -0.2857
11886W        W54980   0.964  17.452  28.987  0.3251 -0.0008 -0.2174
11887W        W54981   1.509  15.565  27.558  0.0673 -0.0618 -0.1152
11888W        W54982   3.957  18.370  29.414 -0.2607  0.2091 -0.1549
11889W        W54983   1.240  17.364  26.834  0.2180  0.0021 -0.2284
11890W        W54984  34.247  16.948  31.369 -0.0742 -0.0112  0.0059
11891W        W54985   2.602  14.730  30.869 -0.0419  0.2232 -0.3473
11892W        W54986   5.044  16.009  29.197 -0.0542  0.0938  0.0119
11893W        W54987   1.853  16.859  28.591 -0.6569  0.0405  0.0863
11894W        W54988   1.729  14.410  27.029  0.0811  0.4874 -0.3634
11895W        W54989   2.753  17.622  28.938 -0.0176 -0.0513 -0.1649
11896W        W54990   0.172  17.407  26.965 -0.2798 -0.0426  0.3263
11897W        W54991  33.901  16.231  29.084 -0.2697  0.2981  0.1521
11898W        W54992   0.408  17.067  27.264 -0.0495 -0.0783 -0.1788
11899W        W54993   2.332  15.726  28.297 -0.1443 -0.0758 -0.0900
11900W        W54994   0.155  15.239  30.078  0.1378 -0.2924 -0.1715
11901W        W54995   1.696  15.514  30.269 -0.0958 -0.1431 -0.0290
11902W        W54996   0.990  16.756  28.460 -0.1313 -0.2075  0.0345
11903W        W54997  34.540  16.942  30.889 -0.1562  0.2081  0.0260
11904W        W54998   3.373  14.379  28.496 -0.0770  0.1441 -0.2687
11905W        W54999   2.667  15.315  28.260 -0.1044  0.6403  0.1203
11906W        W55000   2.073  17.253  29.560  0.0391  0.0307  0.0991
11907W        W55001   3.210  17.495  26.863 -0.0966 -0.0895 -0.1441
11908W        W55002   2.881  16.003  27.638  0.1169  0.3527  0.1228
11909W        W55003   1.555  15.191  26.612  0.0807 -0.0779 -0.4287
11910W        W55004  34.166  18.131  30.575 -0.1955  0.3474  0.1172
11911W        W55005   2.029  17.230  27.719 -0.1479 -0.4052 -0.2138
11912W        W55006   1.165  18.364  27.791 -0.0678 -0.0457  0.1410
11913W        W55007   1.508  16.553  27.073  0.3096 -0.2177  0.6712
11914W        W55008   3.200  17.967  27.848 -0.0617 -0.0704 -0.0947
11915W        W55009  34.681  17.026  28.130 -0.0355  0.2909  0.4822
11916W        W55010   3.418  17.235  30.162 -0.2455  0.1115 -0.1446
11917W        W55011   2.111  16.804  27.970 -0.0205 -0.2821 -0.3137
11918W        W55012   1.816  15.547  29.616 -0.4065 -0.0712 -0.2300
11919W        W55013   0.686  15.428  28.657 -0.0837 -0.2327  0.1289
11920W        W55014   1.540  15.106  27.729 -0.0230  0.0263  0.0654
11921W        W55015  33.845  17.865  26.878 -0.2093  0.0234 -0.0560
11922W        W55016   2.682  15.210  30.046  0.0431  0.2450 -0.1155
11923W        W55017   0.508  15.644  30.101 -0.0544 -0.0650 -0.0503
11924W        W55018   1.898  14.362  31.424 -0.1431 -0.1142  0.0882
11925W        W55019   2.514  16.054  30.101  0.2462  0.0192 -0.2376
11926W        W55020   2.805  15.017  27.909 -0.1778 -0.3246  0.0588
11927W        W55021   1.267  16.622  27.470 -0.1633 -0.1346  0.2139
11928W        W55022   1.585  15.620  25.478  0.0187 -0.1797 -0.1839
11929W        W55023   1.300  15.645  31.050 -0.2205  0.3213  0.0052
11930W        W55024   2.025  16.370  30.117 -0.3659  0.0325 -0.1281
11931W        W55025  33.748  17.819  31.559 -0.3574 -0.1877  0.0766
11932W        W55026   3.816  16.245  30.246 -0.0020  0.2178 -0.5609
11933W        W55027   0.626  15.352  26.384 -0.1415  0.1618 -0.0467
11934W        W55028   1.300  15.183  30.446 -0.1650 -0.0508  0.1198
11935W        W55029   2.325  15.358  28.634  0.0614  0.0323  0.3071
11936W        W55030   1.974  18.498  28.091 -0.0570 -0.0388 -0.3320
11937W        W55031   1.441  16.648  26.063  0.2811  0.0562  0.1703
11938W        W55032   1.716  15.998  29.765 -0.0025 -0.0401  0.3469
11939W        W55033   1.172  17.983  29.614  0.0301 -0.0977 -0.3985
11940W        W55034   2.008  16.927  26.267 -0.0667  0.2624  0.0744
11941W        W55035   1.356  17.184  29.255  0.3645  0.0852  0.2007
11942W        W55036   0.829  18.262  27.145  0.4176 -0.1726 -0.2170
11943W        W55037   2.315  13.120  29.523  0.1467 -0.1072 -0.0502
11944W        W55038   0.177  17.342  30.921  0.0948 -0.1301  0.0379
11945W        W55039   1.443  14.580  29.033 -0.0272  0.1160 -0.3234
11946W        W55040  33.919  17.262  29.352  0.1036  0.4994  0.1746
11947W        W55041   3.121  13.946  28.641  0.1960  0.0391 -0.3399
11948W        W55042   3.012  16.728  29.353 -0.2352 -0.1052 -0.2801
11949W        W55043   0.699  14.375  30.126  0.3646 -0.1402  0.2888
11950W        W55044   2.097  14.854  28.941  0.4166  0.1397 -0.0817
11951W        W55045   0.785  18.174  29.860  0.0525  0.0592 -0.1624
11952W        W55046   1.472  17.507  28.238 -0.0751  0.0793 -0.1176
11953W        W55047   2.397  16.253  27.499  0.1325 -0.1008 -0.1483
11954W        W55048   1.747  16.944  29.417 -0.0067 -0.0044 -0.0564
11955W        W55049   1.179  16.789  29.812 -0.1837  0.1843  0.0604
11956W        W55050   1.408  17.047  26.394 -0.1648 -0.2265 -0.2167
11957W        W55051   3.360  15.435  30.776  0.1059 -0.0800  0.1140
11958W        W55052   1.122  16.204  28.221  0.0908 -0.3756 -0.0691
11959W        W55053  34.627  18.739  26.766 -0.3433  0.1105 -0.0463
11960W        W55054   3.016  17.971  29.931  0.1005  0.4288  0.0450
11961W        W55055   0.377  15.610  26.807 -0.1178 -0.1469  0.1557
11962W        W55056   0.050  18.943  26.164 -0.1172 -0.4501  0.0539
11963W        W55057   1.840  15.036  30.464  0.0254 -0.2174  0.1656
11964W        W55058   1.317  15.943  28.654 -0.1940 -0.0052 -0.1583
11965W        W55059   0.175  14.838  29.516  0.1961 -0.1277  0.1172
11966W        W55060   1.817  14.379  30.526  0.0674 -0.0808  0.0507
11967W        W55061   0.973  17.299  28.497  0.2288  0.1084 -0.3533
11968W        W55062   2.534  17.964  29.281 -0.0760  0.3056  0.1444
11969W        W55063   2.154  16.939  29.143  0.0891 -0.3937 -0.2494
11970W        W55064   0.696  17.081  31.698  0.3048  0.0505  0.2410
11971W        W55065   2.891  13.748  30.612  0.2036  0.0873  0.2107
11972W        W55066   4.134  19.012  28.206  0.0670  0.0694  0.1987
11973W        W55067   2.048  15.847  30.144 -0.0345  0.1632 -0.1719
11974W        W55068   1.712  16.612  26.512 -0.0134 -0.1075  0.0381
11975W        W55069   0.214  16.627  29.893  0.1688  0.0939 -0.1680
11976W        W55070   1.770  17.134  26.843  0.1200  0.1893 -0.1342
11977W        W55071   1.264  14.281  30.240  0.0329 -0.0803 -0.0040
11978W        W55072   0.017  16.764  29.399 -0.0112  0.1412  0.1621
11979W        W55073   0.530  17.591  27.973  0.0265  0.0964  0.0628
11980W        W55074   0.022  17.095  29.960  0.4659  0.1580 -0.3263
11981W        W55075   4.160  14.713  29.214  0.0837  0.0100 -0.1125
11982W        W55076   2.068  18.614  27.524  0.0095 -0.3146  0.3629
11983W        W55077   2.922  15.136  28.630 -0.2030 -0.0579  0.0813
11984W        W55078   3.291  14.423  30.097  0.3743 -0.0056 -0.0726
11985W        W55079   2.757  15.866  28.121 -0.0080  0.0955  0.1666
11986W        W55080   3.599  13.995  31.043  0.1836 -0.4274 -0.0616
11987W        W55081   0.671  15.181  30.169 -0.2209  0.2039  0.1943
11988W        W55082   2.803  17.636  28.123  0.0036 -0.1648  0.1478
11989W        W55083   0.912  16.007  30.112 -0.1951  0.3815  0.1734
11990W        W55084   2.666  17.383  31.760  0.0606  0.0785 -0.1794
11991W        W55085  34.569  16.136  29.661 -0.0520 -0.0667  0.1053
11992W        W55086   2.580  15.046  29.156  0.2222  0.2786  0.2105
11993W        W55087   0.912  15.551  29.840  0.3859 -0.0315 -0.1382
11994W        W55088   0.055  16.698  28.915  0.0741 -0.3023  0.2566
11995W        W55089   3.357  17.626  29.802  0.0631  0.0599 -0.0977
11996W        W55090   1.252  16.868  25.555 -0.2678  0.1288 -0.0337
11997W        W55091   2.134  15.841  28.774  0.2842  0.0205 -0.3062
11998W        W55092   0.705  18.147  28.029 -0.2039 -0.1677  0.1850
11999W        W55093   2.637  17.062  29.658  0.0511 -0.4134  0.5137
12000W        W55094   1.044  17.086  27.221 -0.0403  0.0250 -0.0840
12001W        W55095   0.547  16.956  28.096 -0.0223  0.1379  0.1482
12002W        W55096   1.645  14.287  30.987 -0.1681  0.0923  0.1492
12003W        W55097   1.583  17.475  29.564  0.2836 -0.1415  0.1310
12004W        W55098   3.367  14.457  28.972  0.0590  0.3739  0.0477
12005W        W55099   1.515  16.385  29.336 -0.0270 -0.3167 -0.1265
12006W        W55100   2.569  16.252  30.570 -0.1906 -0.0439 -0.0866
12007W        W55101   0.380  16.156  30.193 -0.0015  0.1586 -0.1144
12008W        W55102   0.811  15.135  31.410 -0.0841 -0.1174  0.1872
12009W        W55103   2.970  17.442  30.017  0.0129 -0.1723  0.1747
12010W        W55104   2.159  17.610  28.041  0.3255  0.0385  0.3062
12011W        W55105   2.447  15.643  29.139 -0.0240  0.0931 -0.1534
12012W        W55106   3.844  15.580  28.121  0.3195  0.0137 -0.3000
12013W        W55107   1.914  17.376  27.226 -0.0675 -0.0916 -0.0987
12014W        W55108   1.527  15.190  28.282  0.0350 -0.0024 -0.1651
12015W        W55109   2.289  16.240  29.699 -0.0227 -0.1166 -0.2390
12016W        W55110   1.108  14.508  26.313 -0.0972 -0.0261  0.0186
12017W        W55111   0.781  15.507  30.949  0.0457  0.0214 -0.3162
12018W        W55112   1.479  19.738  26.523  0.0579  0.0508  0.0309
12019W        W55113   2.455  16.701  28.378  0.2116  0.3731  0.1042
12020W        W55114   0.732  16.635  27.423 -0.3292 -0.0984  0.3376
12021W        W55115  33.853  15.483  29.811 -0.1687 -0.0996  0.2127
12022W        W55116   0.390  16.829  30.984  0.1733  0.0527 -0.1140
12023W        W55117   2.276  16.307  26.701 -0.0460 -0.1493 -0.0887
12024W        W55118   0.964  17.763  26.673 -0.0415  0.2777  0.4612
12025W        W55119   1.509  17.320  27.696  0.2182  0.1577  0.0535
12026W        W55120   2.772  15.460  29.516 -0.0942  0.0155  0.2735
12027W        W55121   2.350  13.836  28.920  0.0835  0.1930 -0.3546
12028W        W55122   3.256  14.408  30.902  0.1197  0.0181  0.0000
12029W        W55123  34.448  16.169  28.207  0.0735 -0.0974  0.2105
12030W        W55124   2.247  15.178  29.479  0.0986  0.2159 -0.0613
12031W        W55125   0.271  16.930  30.472 -0.0495  0.1650  0.1934
12032W        W55126  33.790  17.134  29.881  0.0676 -0.0353  0.2143
12033W        W55127   0.757  17.812  28.545 -0.1104  0.1055  0.2358
12034W        W55128   2.357  15.748  29.611 -0.3954 -0.3331 -0.2056
12035W        W55129   3.733  16.072  29.602  0.2199 -0.1244 -0.1140
12036W        W55130   0.785  17.995  27.560  0.2412 -0.1923 -0.0098
12037W        W55131   3.782  17.046  30.473  0.0248 -0.0427  0.1459
12038W        W55132   1.548  15.764  29.173 -0.2251  0.2258 -0.0305
12039W        W55133   0.303  17.874  28.361  0.3878 -0.1038  0.0361
12040W        W55134   3.451  18.396  31.091  0.0442  0.2818  0.0549
12041W        W55135   2.796  15.949  29.433  0.0557  0.0900  0.2795
12042W        W55136   0.404  16.857  28.555  0.1809  0.2654 -0.3406
12043W        W55137  34.164  15.388  30.520 -0.0824  0.0414 -0.1403
12044W        W55138   1.585  16.118  30.279  0.1098 -0.1690  0.3182
12045W        W55139   1.594  14.957  28.732 -0.0693 -0.0424  0.0036
12046W        W55140   1.114  15.021  28.598  0.3309  0.1791  0.0088
12047W        W55141   2.414  16.589  26.313 -0.1949  0.1433 -0.1778
12048W        W55142  33.363  17.827   0.519  0.0081 -0.1148 -0.4807
12049W        W55143  34.352  15.955  29.217  0.0821  0.0720 -0.1633
12050W        W55144   0.318  18.375  26.986  0.0387 -0.1729 -0.2807
12051W        W55145   1.072  19.017  27.465 -0.1471 -0.3003  0.1178
12052W        W55146   1.337  18.114  27.395 -0.1474 -0.2124 -0.2275
12053W        W55147   0.703  18.123  29.363 -0.0505 -0.0575  0.1338
12054W        W55148   1.096  15.575  28.438  0.1742 -0.1000  0.1640
12055W        W55149  34.202  18.700  28.312 -0.1746  0.1114 -0.1685
12056W        W55150  34.434  18.753  27.808  0.0323 -0.1944 -0.3354
12057W        W55151   2.343  17.542  27.516 -0.4602  0.1116 -0.0172
12058W        W55152   1.194  18.834  28.870  0.0290 -0.1900 -0.0417
12059W        W55153   3.245  16.637  29.814 -0.0972  0.2280 -0.2658
12060W        W55154   3.537  14.926  27.416  0.4137 -0.3094 -0.0362
12061W        W55155   3.746  16.531  29.887  0.3844 -0.0523  0.2504
12062W        W55156   3.045  14.711  28.326  0.1367  0.0880  0.1443
12063W        W55157   3.316  16.203  30.575 -0.0591 -0.1996  0.0687
12064W        W55158   1.517  16.456  28.456 -0.1136 -0.2020 -0.0550
12065W        W55159   1.293  15.440  26.942 -0.0355 -0.1891 -0.1529
12066W        W55160   0.516  16.276  30.969  0.0167 -0.0915  0.3580
12067W        W55161   2.412  14.828  29.796 -0.0713  0.0581  0.4089
12068W        W55162  33.225  17.724  30.725 -0.1556  0.1294 -0.1974
12069W        W55163   3.449  18.719  28.802 -0.0620  0.0029  0.0691
12070W        W55164   0.770  14.558  25.819 -0.0664  0.1005 -0.1726
12071W        W55165   1.043  16.582  27.871  0.1957  0.0949  0.1298
12072W        W55166   1.963  13.839  29.233  0.0128 -0.0723  0.0026
12073W        W55167   2.712  17.107  26.697 -0.0622  0.1774 -0.3556
12074W        W55168   1.409  16.924  28.227  0.2180 -0.3055 -0.3271
12075W        W55169   1.926  19.458  28.106 -0.4116 -0.2100  0.1610
12076W        W55170   0.672  17.417  26.937 -0.1212  0.4731 -0.0773
12077W        W55171   1.721  17.302  30.391  0.0309 -0.0420 -0.2826
12078W        W55172   1.047  15.706  27.287  0.0386  0.0266 -0.0270
12079W        W55173   2.484  16.122  28.950 -0.0474 -0.1794  0.0410
12080W        W55174   0.514  17.718  29.851  0.0125  0.0141 -0.0412
12081W        W55175   2.182  14.278  31.015 -0.0877  0.0244  0.1747
12082W        W55176   0.655  16.406  28.205 -0.0644  0.0666  0.1512
12083W        W55177   2.242  16.240  27.974  0.2721  0.0923  0.0990
12084W        W55178   0.881  17.042  29.451  0.1784 -0.2568 -0.2252
12085W        W55179   0.088  15.752  29.898 -0.2211 -0.0507  0.2800
12086W        W55180   2.142  17.939  25.978  0.0583  0.1382 -0.1966
12087W        W55181   1.969  15.468  29.076  0.0362  0.0219 -0.1838
12088W        W55182   3.402  16.186  27.537  0.2593  0.1799 -0.2658
12089W        W55183   1.796  16.215  28.911  0.3136 -0.0989  0.0547
12090W        W55184  34.414  16.613  28.404 -0.0192 -0.2044  0.3031
12091W        W55185   1.918  16.371  27.443  0.1186 -0.0695 -0.1732
12092W        W55186   0.015  17.510  28.200 -0.2835  0.3024 -0.0222
12093W        W55187   1.284  16.291  29.925 -0.0678 -0.0462 -0.0574
12094W        W55188   2.973  17.201   0.134 -0.0528  0.1672 -0.1265
12095W        W55189   0.858  15.086  29.510  0.1271 -0.1969 -0.4669
12096W        W55190   5.181  15.959  27.904 -0.0290 -0.0998  0.1426
12097W        W55191   2.864  14.762  30.190  0.0273 -0.3156  0.1423
12098W        W55192   2.746  20.077  27.282 -0.4341  0.1861 -0.1778
12099W        W55193   2.999  16.288  29.149  0.1695 -0.0882  0.0660
12100W        W55194   2.891  17.617  29.483 -0.3709  0.3367  0.2730
12101W        W55195   0.697  15.875  28.331  0.1507  0.0245 -0.1337
12102W        W55196   1.978  17.769  29.505 -0.0528  0.0319  0.0077
12103W        W55197   4.378  17.711  29.498  0.0255 -0.1716 -0.0744
12104W        W55198   3.510  15.232  27.847 -0.0114 -0.0731 -0.2167
12105W        W55199   0.818  16.903  28.896 -0.2937  0.1701 -0.0430
12106W        W55200   0.199  18.307  28.062 -0.1583  0.1321 -0.4008
12107W        W55201   3.434  14.060  29.645  0.4048 -0.2190  0.0318
12108W        W55202   3.515  16.864  31.460 -0.3176  0.2236  0.2282
12109W        W55203   1.536  18.735  27.637  0.2300  0.0748 -0.0152
12110W        W55204   3.321  13.550  30.411  0.3099 -0.3177  0.1988
12111W        W55205   1.668  17.157  31.183  0.1256 -0.0205  0.5152
12112W        W55206   1.698  17.809  30.424 -0.0279  0.0176 -0.1748
12113W        W55207  34.533  16.612  27.028 -0.1288  0.0498  0.0007
12114W        W55208   1.566  16.393  30.763  0.0198 -0.1906  0.3591
12115W        W55209   1.461  18.994  27.162 -0.3480 -0.2584  0.1469
12116W        W55210   1.678  18.949  28.075  0.0272  0.1480 -0.6318
12117W        W55211   3.988  17.472  30.639 -0.1173 -0.2664 -0.1846
12118W        W55212   2.011  16.225  28.444  0.0368 -0.1967  0.0995
12119W        W55213   3.849  17.749  29.460  0.1820  0.3592  0.0450
12120W        W55214   0.547  17.139  29.985 -0.0670 -0.2156 -0.2892
12121W        W55215   3.221  14.023  29.170 -0.0068  0.0211  0.0598
12122W        W55216   1.957  14.965  28.443  0.0540 -0.2715  0.1923
12123W        W55217   0.224  17.435  30.415  0.2843 -0.2692 -0.2560
12124W        W55218   0.970  16.209  27.502 -0.1476 -0.2391 -0.0956
12125W        W55219   0.860  17.056  27.733  0.2788  0.0591 -0.0887
12126W        W55220  34.198  17.421  28.448 -0.0366  0.2336  0.0112
12127W        W55221   1.094  14.251  30.775 -0.1107  0.1434 -0.1333
12128W        W55222  34.551  14.867  30.077  0.1610  0.0902 -0.2427
12129W        W55223   0.146  16.552  28.131 -0.1601  0.0878 -0.2666
12130W        W55224   1.438  15.443  28.791 -0.0514  0.1974 -0.3350
12131W        W55225   2.680  18.012  27.760 -0.2367  0.2294  0.0117
12132W        W55226   0.633  14.489  30.653  0.0938 -0.0614 -0.0972
12133W        W55227   0.776  14.693  28.495  0.1238 -0.3293  0.1787
12134W        W55228   2.654  16.584  27.892  0.2761 -0.2468 -0.1437
12135W        W55229   2.748  19.010  27.760  0.0518 -0.1580 -0.0921
12136W        W55230   2.303  15.024  27.876  0.0944  0.0592 -0.2966
12137W        W55231   4.894  18.334  31.656 -0.0038  0.3252 -0.0095
12138W        W55232   0.240  17.181  27.750 -0.1008  0.0240 -0.0565
12139W        W55233   1.106  16.695  29.200  0.1661  0.0151 -0.0843
12140W        W55234   1.093  14.575  29.863  0.0124 -0.2020  0.3273
12141W        W55235   0.052  15.367  26.421  0.0026  0.1496 -0.0356
12142W        W55236   3.093  14.914  29.066 -0.1956  0.0992  0.0473
12143W        W55237   1.682  17.905  28.054 -0.3544  0.3230 -0.2498
12144W        W55238   3.474  19.383  28.098 -0.1908 -0.0104 -0.3544
12145W        W55239   1.571  17.276  28.680  0.0304 -0.0418 -0.0392
12146W        W55240   1.408  16.742  30.340  0.0059 -0.1169  0.0988
12147W        W55241  34.030  14.338  31.192 -0.0233  0.0460 -0.0332
12148W        W55242   1.868  17.698  27.636 -0.1897  0.0057  0.2048
12149W        W55243   2.220  17.456  30.485  0.1908 -0.1467  0.0901
12150W        W55244   3.305  17.643  28.975  0.1146 -0.2490 -0.0871
12151W        W55245   3.754  13.108  29.795  0.3012  0.0318 -0.1961
12152W        W55246   2.408  16.928  27.590 -0.0969 -0.1436  0.0372
12153W        W55247   0.566  13.331  31.777  0.0977  0.2223  0.2061
12154W        W55248   0.557  14.812  29.834 -0.2731 -0.2769  0.1555
12155W        W55249   3.113  17.700  30.417  0.0349  0.3795  0.0772
12156W        W55250  34.622  15.141  30.586 -0.0405  0.0362  0.0465
12157W        W55251   2.979  14.482  29.359 -0.2273 -0.0609 -0.0933
12158W        W55252   1.482  17.580  27.303 -0.1439 -0.0045  0.1317
12159W        W55253   1.445  15.633  28.115 -0.0419 -0.1214 -0.0245
12160W        W55254   2.032  16.825  27.176  0.1221 -0.1819  0.1935
12161W        W55255   1.647  17.087  29.933  0.1169  0.1099  0.1443
12162W        W55256   2.082  19.054  28.376  0.2373  0.0518  0.2620
12163W        W55257   2.001  16.492  29.331  0.1290  0.1143  0.2098
12164W        W55258   0.846  15.715  26.805  0.0239  0.2682 -0.1425
12165W        W55259   3.865  16.565  28.981  0.2617 -0.4829 -0.2323
12166W        W55260   1.641  18.098  29.393 -0.0394  0.5355 -0.0333
12167W        W55261   3.445  17.317  31.976 -0.1919  0.0567 -0.1092
12168W        W55262   2.163  17.953  28.891 -0.3847  0.2072 -0.0749
12169W        W55263   3.147  17.196  29.646 -0.0043  0.1452  0.2975
12170W        W55264   0.258  13.505  29.816  0.1183 -0.1213  0.0948
12171W        W55265  34.368  15.245  27.359  0.2500 -0.0344 -0.2097
12172W        W55266   0.420  17.347  28.547  0.0676 -0.2399  0.0297
12173W        W55267   2.100  15.461  30.563  0.0473  0.1119  0.0512
12174W        W55268  34.563  15.307  29.586 -0.1479 -0.0770  0.0189
12175W        W55269   2.189  13.953  27.074  0.0450 -0.3063  0.3016
12176W        W55270   1.937  16.593  31.113  0.2712 -0.2728 -0.2908
12177W        W55271   0.166  17.767  29.383  0.1668  0.1147  0.3498
12178W        W55272   5.010  15.914  31.051  0.0009 -0.0849  0.0828
12179W        W55273   3.914  16.474  31.268 -0.0389 -0.3782  0.1283
12180W        W55274   0.751  13.949  30.512 -0.0212 -0.0939  0.0120
12181W        W55275  34.515  16.468  30.788 -0.1649 -0.2744 -0.2351
12182W        W55276  34.572  18.579   0.351 -0.3185  0.2296 -0.1291
12183W        W55277   0.816  16.956   0.572 -0.3443  0.0121 -0.1878
12184W        W55278   2.512  15.631  30.337 -0.0008  0.1773  0.0773
12185W        W55279   1.026  15.765  31.518 -0.0689  0.0133  0.0139
12186W        W55280   3.060  15.790   0.016  0.0489 -0.0822 -0.4722
12187W        W55281   4.661  18.002  31.312  0.2573 -0.2956  0.0364
12188W        W55282   3.555  17.373  31.346 -0.1755  0.0275  0.1090
12189W        W55283   1.016  13.840   0.028 -0.1450  0.1690  0.3328
12190W        W55284   4.266  17.299  31.272 -0.0723 -0.0347  0.1698
12191W        W55285   0.893  16.307  29.519 -0.0443  0.5591  0.1676
12192W        W55286   3.900  17.176  31.852  0.0673 -0.1206 -0.0919
12193W        W55287   0.713  18.361  31.836 -0.0052  0.0223 -0.0907
12194W        W55288   1.019  16.511  30.880  0.3411  0.1678  0.2066
12195W        W55289   2.158  16.783  29.791 -0.0108  0.3267  0.0709
12196W        W55290  33.278  14.466  31.625 -0.1946 -0.2382  0.1549
12197W        W55291   2.174  15.128  30.913  0.1526  0.1877  0.2180
12198W        W55292   0.529  16.071  31.410 -0.3840  0.4387  0.2757
12199W        W55293  34.373  17.479  29.520  0.1223  0.3365 -0.0363
12200W        W55294   2.867  13.542   1.091 -0.0420 -0.1377  0.1811
12201W        W55295   2.666  16.400  31.393 -0.1849  0.0168  0.2072
12202W        W55296   2.058  13.825  31.261 -0.3781  0.0698 -0.1050
12203W        W55297   4.165  16.116  31.880  0.1732  0.0623 -0.1755
12204W        W55298   0.881  15.523  30.476  0.3111  0.1386  0.3441
12205W        W55299   0.392  18.730  30.505 -0.0629  0.1216 -0.1883
12206W        W55300   2.230  15.656  31.009  0.2832  0.4039  0.0284
12207W        W55301   2.207  15.342  30.099  0.2741  0.3423  0.0387
12208W        W55302   0.904  16.851  30.536  0.1024 -0.4375 -0.0053
12209W        W55303   2.082  15.110  31.388 -0.2799 -0.3871  0.0464
12210W        W55304   3.780  16.442   1.022  0.1448  0.0665  0.3738
12211W        W55305   2.946  15.716  30.723  0.3826  0.0706  0.1717
12212W        W55306  34.587  14.526  30.644  0.2051 -0.1628 -0.0408
12213W        W55307   0.368  15.420  30.537  0.0522  0.1992 -0.0528
12214W        W55308   1.461  16.162  31.158  0.0521  0.3016  0.0004
12215W        W55309   2.145  17.107  31.045  0.0251  0.1449  0.3748
12216W        W55310   2.511  16.617  30.157 -0.1173 -0.0971 -0.0774
12217W        W55311   1.335  15.724  30.024 -0.5625 -0.2044 -0.4443
12218W        W55312   2.739  14.192  30.974  0.2123 -0.4261 -0.0016
12219W        W55313   1.739  15.840  30.683  0.0860 -0.2525 -0.1221
12220W        W55314   0.312  14.699  31.394  0.2866  0.1263  0.0214
12221W        W55315   1.493  18.190  30.733  0.1977 -0.0799 -0.1731
12222W        W55316   1.821  14.757  30.981  0.0168  0.1188 -0.0487
12223W        W55317   1.896  16.074  31.053  0.0351 -0.0637  0.5406
12224W        W55318   2.077  14.668  30.141  0.0594  0.2885  0.1012
12225W        W55319   2.601  16.994   0.432 -0.0735 -0.1012  0.2473
12226W        W55320   2.787  16.665  30.620  0.3800 -0.2202 -0.2843
12227W        W55321   0.235  17.122  31.373  0.0204 -0.0858 -0.0516
12228W        W55322   2.624  17.132  30.938 -0.1413 -0.2354 -0.2547
12229W        W55323   2.310  15.221  31.828 -0.0292  0.0651  0.0242
12230W        W55324   3.061  14.557   0.309 -0.0860  0.1936 -0.1610
12231W        W55325   0.750  16.539  30.097 -0.2170  0.3624 -0.0656
12232W        W55326   2.548  16.551  29.230  0.3672 -0.2707 -0.1594
12233W        W55327   3.170  16.209  29.603  0.0042 -0.0378 -0.1467
12234W        W55328   3.725  16.396  31.727  0.3491  0.1413 -0.0772
12235W        W55329   1.649  18.352  31.345 -0.2594 -0.2252 -0.1003
12236W        W55330   1.444  17.796  31.101 -0.3216 -0.2628 -0.1171
12237W        W55331   0.388  16.069   0.341  0.3033  0.0359 -0.1512
12238W        W55332  34.131  16.481  31.471 -0.2486 -0.0467 -0.0359
12239W        W55333   1.786  16.872  30.741  0.2332 -0.0232 -0.1960
12240W        W55334   0.385  15.769  30.987  0.0380  0.1442 -0.0314
12241W        W55335  34.139  14.732  31.448 -0.1309  0.1272 -0.2129
12242W        W55336   2.979  17.694   0.076  0.1406 -0.3991 -0.1892
12243W        W55337   3.627  17.933   0.560 -0.2127 -0.2470 -0.0118
12244W        W55338   3.817  16.020  30.847 -0.0278 -0.0552  0.1384
12245W        W55339   0.232  20.800  18.224  0.0802  0.2689 -0.0793
12246W        W55340   1.742  18.513  17.314 -0.2599  0.5502  0.1208
12247W        W55341   2.771  18.461  17.096  0.1420  0.2330  0.1876
12248W        W55342   2.721  19.880  18.019 -0.0413  0.1588 -0.1499
12249W        W55343  33.892  19.108  16.925 -0.2794  0.0751  0.1042
12250W        W55344   2.122  20.914  17.801  0.0427 -0.4088  0.0136
12251W        W55345  33.250  18.835  20.005 -0.4003 -0.1422  0.0304
12252W        W55346   1.830  19.022  17.907 -0.0716  0.0596 -0.1188
12253W        W55347   3.976  20.408  18.558  0.0622 -0.4730  0.1276
12254W        W55348   1.144  19.641  17.110 -0.0612  0.4357 -0.1848
12255W        W55349   0.824  19.995  19.209  0.1216 -0.2027 -0.1186
12256W        W55350   1.547  21.855  19.715 -0.0413  0.0423  0.1253
12257W        W55351   0.701  18.341  15.891  0.0031  0.1433  0.0064
12258W        W55352  34.285  18.187  18.969  0.0622  0.1108 -0.3565
12259W        W55353   1.900  18.754  18.319  0.0719 -0.2056  0.0029
12260W        W55354  33.997  21.307  16.420 -0.3699 -0.0472 -0.1071
12261W        W55355   0.670  19.828  18.182  0.2793 -0.1610  0.1408
12262W        W55356   2.482  19.266  16.957 -0.2165 -0.0651  0.1565
12263W        W55357   1.152  21.070  18.045 -0.0844  0.3085  0.3049
12264W        W55358   0.005  19.070  19.124  0.0738 -0.0931 -0.0390
12265W        W55359   2.793  19.087  20.064 -0.0577  0.4090 -0.3159
12266W        W55360   1.216  20.158  17.209  0.1184  0.0219  0.3015
12267W        W55361  34.589  18.878  17.188 -0.0662  0.0202 -0.1458
12268W        W55362   1.093  19.139  18.817  0.2115 -0.0902 -0.0259
12269W        W55363  34.648  19.972  20.259 -0.0940  0.0325 -0.2951
12270W        W55364   0.876  18.123  18.184 -0.1521 -0.2755 -0.1514
12271W        W55365   1.831  20.105  17.774  0.0930  0.2488  0.2639
12272W        W55366   0.481  20.777  17.763 -0.1529  0.2152  0.1378
12273W        W55367   3.039  22.192  18.178  0.1406  0.2183 -0.1866
12274W        W55368   2.172  18.379  20.716  0.0023  0.1147 -0.1331
12275W        W55369  34.192  21.794  18.726  0.0810  0.2257 -0.0067
12276W        W55370  34.214  21.444  18.396 -0.2000 -0.1088 -0.0519
12277W        W55371  34.681  22.289  18.105 -0.0286  0.0548 -0.1891
12278W        W55372   2.614  21.080  17.680 -0.3502  0.2478 -0.0890
12279W        W55373   3.379  21.273  19.291 -0.0379  0.1706  0.1878
12280W        W55374   1.338  21.923  19.150 -0.1715  0.0311  0.2438
12281W        W55375  33.727  20.573  17.479  0.1039 -0.0228 -0.1104
12282W        W55376   1.703  19.878  19.740 -0.1141 -0.1063 -0.2687
12283W        W55377   0.413  21.517  19.661 -0.0364  0.1446  0.1960
12284W        W55378   0.992  20.683  18.662 -0.1507 -0.1979 -0.2891
12285W        W55379   1.869  19.435  17.565  0.2270  0.2984  0.1435
12286W        W55380   1.154  22.283  17.288  0.1242 -0.2373 -0.2727
12287W        W55381   1.524  21.617  18.767  0.0037  0.1351 -0.1076
12288W        W55382   2.172  19.239  22.063 -0.3436 -0.1441  0.2791
12289W        W55383   0.006  20.881  18.679 -0.2230 -0.1253 -0.1222
12290W        W55384   2.753  18.261  19.759  0.0589  0.3440  0.0908
12291W        W55385  34.458  22.203  16.110 -0.1799  0.0473 -0.3107
12292W        W55386   3.124  19.797  17.165  0.1582  0.3736 -0.1765
12293W        W55387   1.521  19.325  16.825  0.3319  0.2523 -0.0325
12294W        W55388   1.724  20.343  17.125  0.0197 -0.1041  0.3137
12295W        W55389  34.437  19.495  18.062  0.1410 -0.0945  0.0442
12296W        W55390   0.300  20.876  19.089  0.4120  0.1817  0.0904
12297W        W55391   1.425  20.372  18.606  0.2861  0.1016  0.2883
12298W        W55392   1.842  20.635  20.029  0.0096 -0.0540 -0.0488
12299W        W55393   0.778  19.057  16.591  0.0722  0.0729 -0.1476
12300W        W55394   2.586  19.509  20.199  0.0838  0.2661  0.0587
12301W        W55395  34.262  21.738  20.192  0.3304 -0.0805 -0.2148
12302W        W55396  34.280  19.721  17.267  0.0883  0.1006  0.3616
12303W        W55397   2.998  21.717  16.471  0.1224  0.0680  0.1205
12304W        W55398   3.491  21.444  18.379  0.0348  0.3569 -0.1053
12305W        W55399   1.254  21.074  16.826  0.0329 -0.1185  0.0299
12306W        W55400  34.460  19.518  19.176 -0.1864  0.0649  0.0810
12307W        W55401  33.480  20.831  19.987  0.2111  0.3341 -0.0730
12308W        W55402  33.765  20.731  19.283 -0.5166 -0.1175  0.0824
12309W        W55403   0.503  18.380  16.412  0.1533  0.4246  0.3245
12310W        W55404   2.857  21.209  19.330  0.4018 -0.0371 -0.2793
12311W        W55405   0.174  21.467  19.183 -0.1232  0.0960  0.0476
12312W        W55406   1.847  18.863  18.805  0.0540  0.1244  0.2785
12313W        W55407   0.616  19.176  18.380  0.0360  0.2288 -0.1799
12314W        W55408   1.738  20.769  18.700 -0.2554 -0.0933 -0.1366
12315W        W55409   2.278  19.672  17.827 -0.1592  0.3839  0.0463
12316W        W55410   2.484  18.764  18.313 -0.1633  0.0259  0.1268
12317W        W55411   2.028  19.269  18.507 -0.1235 -0.0400 -0.1150
12318W        W55412   2.247  21.253  16.399 -0.2967  0.1703  0.1209
12319W        W55413   2.128  20.009  16.854 -0.2174  0.1767  0.1238
12320W        W55414   3.484  20.133  17.931 -0.2424  0.4207  0.1127
12321W        W55415   2.391  20.132  17.688 -0.0724  0.0973  0.1239
12322W        W55416   0.763  22.581  18.868  0.0891 -0.0068 -0.2088
12323W        W55417   0.980  17.848  18.595 -0.1678 -0.2373 -0.1039
12324W        W55418   2.200  21.185  19.582 -0.2803 -0.0217  0.0265
12325W        W55419  33.987  23.136  17.128  0.0319 -0.1959 -0.3176
12326W        W55420  34.544  20.427  18.438  0.5583 -0.1630  0.5586
12327W        W55421  33.675  21.485  16.774 -0.1973  0.0886 -0.2793
12328W        W55422   0.545  19.696  19.677  0.4633 -0.1607 -0.1921
12329W        W55423  34.621  20.602  20.139 -0.1676 -0.2065  0.0529
12330W        W55424   2.652  17.959  17.030 -0.0087 -0.0458  0.0403
12331W        W55425   1.359  17.986  20.759  0.1241  0.1991 -0.1558
12332W        W55426   3.205  17.153  16.734 -0.1249  0.0350  0.0241
12333W        W55427   0.066  20.679  17.034 -0.1524  0.1435  0.5793
12334W        W55428   2.362  22.686  16.774 -0.1100  0.4270 -0.2159
12335W        W55429   1.999  19.857  17.357  0.0812 -0.1072 -0.0929
12336W        W55430   3.578  22.394  16.835 -0.0724 -0.4229  0.2602
12337W        W55431  34.500  21.445  19.764 -0.1008  0.1613 -0.0142
12338W        W55432  33.941  18.711  19.172  0.1292  0.0464  0.0351
12339W        W55433   0.781  20.333  20.132 -0.0366  0.3544  0.2572
12340W        W55434  34.343  19.585  18.681 -0.0917  0.0562  0.2095
12341W        W55435   1.247  19.117  19.685 -0.0814  0.0186  0.1789
12342W        W55436  34.149  18.917  17.610  0.1263  0.1606  0.0438
12343W        W55437   3.103  17.598  17.554  0.0952  0.0405  0.0505
12344W        W55438   0.526  18.634  17.565 -0.1400  0.0818 -0.0846
12345W        W55439  33.945  21.234  17.626 -0.3602 -0.0644  0.2866
12346W        W55440   3.580  18.850  19.976  0.0157  0.0713 -0.2496
12347W        W55441   1.645  22.511  17.120 -0.1508  0.0257  0.2519
12348W        W55442   3.670  20.046  18.746  0.0534  0.2872  0.0693
12349W        W55443   2.346  20.496  18.622 -0.2172  0.1326 -0.2121
12350W        W55444   1.661  20.043  18.863 -0.0658  0.1819  0.2642
12351W        W55445  34.438  19.282  15.972 -0.0365  0.1929  0.2216
12352W        W55446  33.709  21.324  19.225 -0.1253 -0.3391  0.0104
12353W        W55447   0.731  21.190  17.581  0.3553 -0.2969 -0.0664
12354W        W55448  34.525  18.346  17.088 -0.1176 -0.0014 -0.2332
12355W        W55449   3.148  21.624  17.344 -0.1694 -0.3872 -0.3366
12356W        W55450   0.269  21.058  17.317 -0.2000 -0.0545 -0.0528
12357W        W55451   0.157  20.541  19.489  0.1495 -0.0047 -0.0711
12358W        W55452   2.799  17.533  18.075  0.1008  0.0701  0.0554
12359W        W55453   2.202  20.655  19.636  0.1057  0.2060  0.2838
12360W        W55454   2.176  17.214  17.339  0.0511  0.2303  0.0147
12361W        W55455   0.654  17.865  16.319 -0.2455 -0.1681 -0.3797
12362W        W55456   2.755  23.048  18.679 -0.2687 -0.0207  0.0101
12363W        W55457   0.802  21.750  16.891 -0.1784  0.6640 -0.1935
12364W        W55458  32.630  21.326  17.272  0.0093  0.1265  0.3287
12365W        W55459   0.768  20.785  18.175  0.0168 -0.3528 -0.2048
12366W        W55460   2.598  19.081  19.147  0.3255  0.4031 -0.0412
12367W        W55461  34.024  18.518  19.636 -0.0695  0.0427 -0.0525
12368W        W55462   1.916  19.754  18.520 -0.1658 -0.0463  0.4374
12369W        W55463   0.505  19.927  17.176 -0.3328 -0.1751  0.1436
12370W        W55464   1.234  20.233  20.530 -0.0468  0.1770 -0.2522
12371W        W55465   1.350  17.906  16.735  0.2339 -0.0197  0.1734
12372W        W55466   2.342  18.712  15.896 -0.1594 -0.2792  0.0274
12373W        W55467   0.397  20.682  19.905 -0.1865  0.0524 -0.0445
12374W        W55468   1.696  21.982  17.090  0.0844  0.1067 -0.1981
12375W        W55469   2.025  19.120  16.630  0.1112  0.0151  0.1231
12376W        W55470   1.734  18.568  16.018 -0.0249 -0.0263  0.1673
12377W        W55471   0.323  20.286  20.294  0.4805 -0.0257 -0.2256
12378W        W55472   1.276  20.250  17.719  0.1202 -0.0470  0.1107
12379W        W55473   1.908  20.881  18.271  0.0628  0.0984 -0.2370
12380W        W55474   2.407  18.821  16.847 -0.3584 -0.2947  0.2094
12381W        W55475   2.455  22.014  17.145 -0.2110  0.0821 -0.3988
12382W        W55476  34.268  20.950  18.372 -0.1113 -0.2564  0.1822
12383W        W55477   2.810  20.986  19.916 -0.0249 -0.2458  0.0169
12384W        W55478   1.211  21.276  17.472  0.0823 -0.0696  0.1626
12385W        W55479   2.327  19.472  19.419  0.2246 -0.0399  0.0014
12386W        W55480   0.610  19.904  16.690  0.1869  0.0264 -0.0839
12387W        W55481   1.623  18.009  17.321  0.1497 -0.1776  0.0617
12388W        W55482  32.804  21.309  16.730 -0.1605 -0.1839 -0.0828
12389W        W55483   2.863  19.398  18.894 -0.4740  0.0603  0.2899
12390W        W55484   2.166  17.825  18.052  0.0686  0.0868 -0.1217
12391W        W55485   1.956  18.086  19.416  0.1063  0.1318 -0.0964
12392W        W55486   3.676  22.038  20.008 -0.1115  0.2678 -0.0135
12393W        W55487   2.594  20.841  16.684 -0.0567  0.1632  0.1408
12394W        W55488   3.316  19.249  18.489  0.0362 -0.1586 -0.0863
12395W        W55489   0.422  19.455  16.592 -0.2051 -0.1463 -0.0037
12396W        W55490   2.636  19.562  20.702  0.1656  0.2322  0.2241
12397W        W55491   0.482  19.836  20.220 -0.1022  0.1146  0.1284
12398W        W55492   0.697  22.780  19.933 -0.0927  0.0544 -0.0542
12399W        W55493   2.062  20.194  19.925 -0.2449 -0.2656  0.0020
12400W        W55494   2.382  19.558  18.344  0.2033 -0.0455  0.1469
12401W        W55495   1.634  20.047  20.886 -0.1732 -0.1996  0.3567
12402W        W55496   0.772  17.689  16.840  0.1178  0.1684 -0.2302
12403W        W55497  34.547  21.864  16.595  0.1789  0.3014  0.2267
12404W        W55498   0.212  20.367  17.479  0.1543  0.1596 -0.0369
12405W        W55499   2.232  19.136  19.919 -0.0961  0.0184 -0.2379
12406W        W55500   1.186  21.368  19.852 -0.2295  0.2098 -0.1631
12407W        W55501   0.779  21.202  16.565  0.1983 -0.2449  0.1873
12408W        W55502   1.233  21.403  19.302  0.0097  0.2151 -0.0717
12409W        W55503   0.127  21.865  17.464  0.1444 -0.4289 -0.0914
12410W        W55504   2.305  18.743  18.870  0.0942 -0.1766  0.2402
12411W        W55505  33.843  22.203  18.073 -0.2356  0.0333 -0.0110
12412W        W55506   0.090  19.050  18.068 -0.1460 -0.4700 -0.0293
12413W        W55507   0.975  19.568  16.624 -0.2924  0.1328 -0.1611
12414W        W55508   3.080  20.086  17.548 -0.0136  0.1137  0.0273
12415W        W55509   3.189  20.586  15.849  0.2905 -0.1209  0.2138
12416W        W55510  33.679  18.309  18.340 -0.1141 -0.0244  0.1851
12417W        W55511   1.428  19.428  19.287 -0.2581  0.0610  0.2717
12418W        W55512   1.252  21.154  18.725 -0.1301  0.0502 -0.0200
12419W        W55513   3.622  19.300  19.610  0.1327 -0.2250 -0.0593
12420W        W55514   1.866  18.595  16.802  0.1131  0.0438 -0.1240
12421W        W55515   1.568  22.742  18.828 -0.0743  0.0781 -0.1299
12422W        W55516   1.676  20.465  20.473  0.0299 -0.0700 -0.1276
12423W        W55517  33.458  18.579  19.083  0.0966  0.3182  0.2166
12424W        W55518   3.129  20.498  19.377 -0.0416  0.0465 -0.0901
12425W        W55519   1.468  18.682  18.529  0.0830 -0.2742  0.0851
12426W        W55520  33.154  20.638  17.449 -0.0852 -0.0818  0.1692
12427W        W55521   2.057  21.436  17.774  0.0190 -0.1707 -0.0193
12428W        W55522   0.227  19.101  16.900 -0.2460 -0.0312  0.0826
12429W        W55523  34.513  20.157  17.034  0.1000  0.0521 -0.1096
12430W        W55524   1.409  18.078  19.502  0.2258  0.1286 -0.0899
12431W        W55525   1.660  21.104  17.769 -0.0894  0.2038  0.0693
12432W        W55526  34.690  20.339  17.981  0.0515 -0.0849  0.1081
12433W        W55527   1.953  19.473  17.035 -0.0400 -0.4720  0.0428
12434W        W55528   1.134  19.706  18.944  0.2317  0.1418  0.0820
12435W        W55529   1.719  20.582  17.920  0.1670 -0.1617  0.1146
12436W        W55530   0.950  20.614  17.710  0.4078 -0.0099  0.3103
12437W        W55531   1.269  20.707  21.342  0.0469 -0.2428  0.1010
12438W        W55532   1.173  17.726  18.159 -0.1099 -0.1553  0.3092
12439W        W55533   3.784  21.505  16.973 -0.0333  0.2526  0.2195
12440W        W55534   2.692  20.203  19.571 -0.1028 -0.1285  0.4272
12441W        W55535   0.003  19.473  17.111  0.0669  0.0712  0.1562
12442W        W55536  34.326  19.036  19.421  0.4285  0.3726 -0.0630
12443W        W55537  34.641  20.873  17.864 -0.0399  0.1472  0.0990
12444W        W55538   2.233  17.437  20.068  0.0399 -0.0333 -0.3999
12445W        W55539   0.994  21.665  18.834  0.2815 -0.0261  0.2321
12446W        W55540   0.049  21.756  16.116  0.4323 -0.1501 -0.0933
12447W        W55541   0.744  21.107  18.955  0.0241 -0.2207  0.1739
12448W        W55542   2.766  19.650  16.769 -0.0036 -0.2275  0.4950
12449W        W55543   2.174  20.507  16.987 -0.1498 -0.1072 -0.1351
12450W        W55544   1.750  18.535  17.792 -0.0414 -0.0360  0.0995
12451W        W55545   2.709  18.554  19.204 -0.2459  0.2607  0.1562
12452W        W55546   2.304  19.190  16.254  0.1447  0.0584 -0.2889
12453W        W55547   2.976  18.948  18.799 -0.2772 -0.1895  0.1193
12454W        W55548   0.593  19.024  17.859  0.1575  0.3733  0.0820
12455W        W55549   0.583  20.315  17.994 -0.0642  0.0724  0.1290
12456W        W55550  33.910  19.338  18.552 -0.1612  0.2416 -0.0728
12457W        W55551   1.757  22.694  19.728  0.0078  0.3172  0.2645
12458W        W55552   0.793  18.792  19.764 -0.0408  0.2349 -0.5184
12459W        W55553   1.068  19.166  17.031  0.0486 -0.4998  0.0230
12460W        W55554   0.569  18.967  17.180 -0.2058 -0.3869  0.1125
12461W        W55555   0.386  19.964  17.708 -0.1276  0.3848 -0.0176
12462W        W55556   3.305  19.386  18.002  0.0970 -0.2282 -0.1811
12463W        W55557   1.777  20.776  16.848 -0.0503  0.2071 -0.1489
12464W        W55558   3.640  18.712  19.436  0.0502  0.1479 -0.3367
12465W        W55559   0.065  20.410  18.973  0.0767  0.0375  0.0472
12466W        W55560   2.755  19.039  15.975  0.1770  0.2292  0.0834
12467W        W55561   1.463  20.666  17.452 -0.0692 -0.0988 -0.1688
12468W        W55562  32.767  20.896  17.722  0.0740 -0.0153 -0.2795
12469W        W55563   0.926  17.811  19.692 -0.1279 -0.0854 -0.0405
12470W        W55564   2.612  20.140  18.426 -0.0712 -0.0513  0.1989
12471W        W55565   2.520  17.658  18.479 -0.4349 -0.1725 -0.5147
12472W        W55566   1.491  19.231  18.372 -0.1177  0.1228  0.1609
12473W        W55567   2.702  20.158  20.571  0.0220 -0.0133 -0.0379
12474W        W55568   2.168  19.632  19.904 -0.0197 -0.0364 -0.0819
12475W        W55569  33.771  18.377  20.044  0.3742 -0.0823 -0.0549
12476W        W55570   1.981  22.346  18.237 -0.0845 -0.0724  0.0803
12477W        W55571   1.418  19.319  17.318 -0.0723  0.3007  0.1516
12478W        W55572   4.864  19.143  19.355  0.0398  0.0446 -0.2218
12479W        W55573   2.988  20.304  18.033  0.2813  0.1664 -0.4708
12480W        W55574   1.440  18.866  17.554  0.3450 -0.0437 -0.3647
12481W        W55575   0.619  18.961  18.896  0.0204  0.1044 -0.1141
12482W        W55576   2.006  19.202  19.124  0.0499 -0.0391  0.0228
12483W        W55577   1.215  19.191  16.387  0.0772 -0.1236  0.0824
12484W        W55578   0.915  18.099  19.141  0.0687 -0.0182 -0.0757
12485W        W55579   1.892  21.707  16.388 -0.1373  0.1610  0.1778
12486W        W55580   2.165  18.817  17.534  0.1097 -0.0043 -0.2251
12487W        W55581   2.240  18.553  17.959  0.1333 -0.2278  0.1464
12488W        W55582   0.944  19.365  17.992 -0.0676  0.1208  0.1772
12489W        W55583  34.629  21.851  18.987 -0.0858  0.0960  0.1065
12490W        W55584   0.607  19.471  17.115 -0.6022 -0.2455 -0.0250
12491W        W55585   0.198  19.181  17.487  0.2387 -0.1851  0.0843
12492W        W55586   1.736  21.989  17.906  0.1154  0.1181  0.1072
12493W        W55587   3.539  20.523  19.936  0.0738  0.1198 -0.0422
12494W        W55588   1.067  18.674  17.166  0.2590  0.0861 -0.1943
12495W        W55589   1.464  18.302  19.067 -0.1898 -0.2364  0.0142
12496W        W55590  34.335  21.601  17.497  0.1785 -0.1208 -0.4749
12497W        W55591   2.568  16.830  17.466 -0.1554 -0.1176  0.2077
12498W        W55592   0.467  22.294  18.613 -0.2783 -0.0344  0.0674
12499W        W55593   0.181  18.644  18.920 -0.0356  0.0721  0.0173
12500W        W55594  33.488  20.976  17.774  0.3708  0.1284  0.2684
12501W        W55595   1.233  18.574  19.468 -0.2138 -0.0079 -0.1327
12502W        W55596   1.650  19.376  18.832  0.1513  0.1363 -0.0320
12503W        W55597   1.839  21.860  18.364  0.0301 -0.5425 -0.0085
12504W        W55598   2.941  20.034  20.088 -0.0264 -0.1411 -0.0138
12505W        W55599   1.648  20.941  20.371 -0.0950 -0.1910 -0.0171
12506W        W55600   0.314  20.344  18.497  0.2986  0.0120  0.2005
12507W        W55601   2.548  22.543  18.846  0.0679 -0.2183 -0.1670
12508W        W55602   1.906  20.894  17.312  0.0298  0.3350  0.2361
12509W        W55603   0.132  21.377  17.715  0.1835 -0.2263  0.0887
12510W        W55604  33.983  19.549  19.013  0.3190 -0.3171 -0.0952
12511W        W55605   3.039  19.063  20.518  0.1100 -0.0440 -0.0974
12512W        W55606   2.189  20.024  18.188  0.0487 -0.0775 -0.2304
12513W        W55607   0.992  19.138  17.569  0.0341 -0.0490  0.0223
12514W        W55608   0.860  21.325  17.124 -0.1448 -0.1959 -0.2216
12515W        W55609   0.810  21.143  20.651 -0.1981 -0.0457  0.2068
12516W        W55610   0.687  19.494  18.872  0.2474  0.1893 -0.2604
12517W        W55611  34.392  22.387  16.629  0.2966  0.1756 -0.1267
12518W        W55612   2.048  21.799  17.473 -0.1424  0.3636 -0.1009
12519W        W55613   1.043  20.842  17.195  0.1041 -0.1793  0.0182
12520W        W55614   1.563  22.187  18.706  0.1088  0.1146 -0.0578
12521W        W55615   0.917  19.875  16.242  0.0217 -0.1828 -0.0741
12522W        W55616   0.532  21.299  18.045  0.0447  0.0454 -0.0510
12523W        W55617   0.814  20.315  16.946 -0.0428 -0.3522  0.1228
12524W        W55618   2.801  22.530  17.897  0.1215  0.0302  0.0806
12525W        W55619   0.002  21.227  18.293  0.1048  0.5299 -0.1734
12526W        W55620   2.219  20.093  19.389 -0.4716  0.2925  0.1586
12527W        W55621   3.899  17.199  16.415 -0.1590 -0.1644  0.0683
12528W        W55622   2.205  20.512  18.037 -0.1830  0.4072  0.0924
12529W        W55623   2.598  20.423  19.118 -0.0477 -0.1930  0.1376
12530W        W55624   1.988  22.157  19.647 -0.1627  0.0971  0.4571
12531W        W55625   1.459  19.784  18.472  0.0471  0.1438  0.0927
12532W        W55626   1.496  18.875  17.044  0.4061 -0.3727 -0.0460
12533W        W55627   1.336  19.598  19.780 -0.2535 -0.0471 -0.2675
12534W        W55628   3.110  17.347  19.547 -0.2218 -0.0222 -0.0317
12535W        W55629   0.045  21.633  21.476  0.2775 -0.0710  0.0297
12536W        W55630   2.323  22.592  17.923  0.1050 -0.2040  0.0143
12537W        W55631   0.446  18.577  18.125  0.2460 -0.0074 -0.1311
12538W        W55632   1.576  18.962  19.271 -0.2406  0.0630  0.0006
12539W        W55633   2.506  17.879  17.672  0.3226  0.1641 -0.0146
12540W        W55634   0.594  19.483  17.667 -0.1944 -0.2750  0.0191
12541W        W55635   2.229  18.327  18.523 -0.2984  0.0947  0.0708
12542W        W55636   1.164  21.544  18.394 -0.1378 -0.1099  0.2927
12543W        W55637   0.646  20.370  19.600  0.0758  0.1110 -0.1295
12544W        W55638   0.866  20.741  19.335  0.0027 -0.2023  0.0439
12545W        W55639  34.210  18.441  17.550 -0.4133  0.2911  0.4948
12546W        W55640   3.012  19.093  17.688  0.1168 -0.2634  0.4354
12547W        W55641   0.122  20.204  19.845 -0.0292 -0.0804 -0.3696
12548W        W55642   1.659  17.740  18.187 -0.0753 -0.2391 -0.1272
12549W        W55643   0.941  20.109  18.628 -0.0456 -0.5120 -0.0460
12550W        W55644   1.419  17.566  17.724 -0.0221 -0.1274 -0.1733
12551W        W55645   2.084  21.640  18.704  0.0039 -0.2963  0.0744
12552W        W55646   0.574  20.463  19.050  0.2368  0.1138 -0.0790
12553W        W55647   1.456  19.706  16.408  0.1287  0.1846  0.1146
12554W        W55648   3.059  20.699  20.859  0.1102  0.0821  0.1931
12555W        W55649   1.473  19.762  17.476 -0.3908  0.2474  0.2218
12556W        W55650   2.263  21.512  20.360 -0.2930  0.1834 -0.4548
12557W        W55651  34.193  19.121  18.943  0.2304 -0.2299 -0.1247
12558W        W55652   1.876  18.231  18.195 -0.0105  0.1557 -0.0444
12559W        W55653  34.081  19.709  17.725 -0.1428 -0.0575  0.3072
12560W        W55654   1.171  21.981  18.040 -0.2022  0.0574 -0.2602
12561W        W55655   3.020  21.307  18.819  0.1480 -0.2024 -0.1298
12562W        W55656   2.560  18.160  18.081  0.2052 -0.0559  0.3534
12563W        W55657   3.374  21.135  17.249  0.0421 -0.2943  0.1452
12564W        W55658   2.279  19.105  18.046  0.0566 -0.0136  0.2250
12565W        W55659   1.112  21.579  16.459  0.0503  0.3702 -0.0316
12566W        W55660   3.025  21.238  16.573  0.0101  0.0648  0.2888
12567W        W55661   2.207  22.112  18.749 -0.1079 -0.0586 -0.3834
12568W        W55662  34.404  19.072  18.524 -0.2430  0.1044  0.0156
12569W        W55663   3.036  22.173  19.230 -0.0824 -0.2474 -0.1089
12570W        W55664   2.232  20.043  18.890  0.1722 -0.2233 -0.0894
12571W        W55665   0.901  18.557  17.887 -0.3398 -0.0703  0.2645
12572W        W55666   0.537  20.793  18.631 -0.1400 -0.2202 -0.0623
12573W        W55667  33.913  22.189  17.561  0.0455 -0.0595 -0.2929
12574W        W55668   3.946  18.935  18.970  0.1767  0.0558  0.3062
12575W        W55669   3.583  19.650  19.968  0.1462  0.3314  0.0012
12576W        W55670   0.966  21.739  17.431 -0.2499  0.1601 -0.2546
12577W        W55671   2.442  18.154  19.353  0.1336  0.0246 -0.1760
12578W        W55672   1.783  20.868  19.436  0.3237 -0.0038  0.4616
12579W        W55673   1.198  22.719  19.805  0.3772 -0.1690  0.2414
12580W        W55674   0.242  19.541  18.063  0.2737  0.1270  0.2126
12581W        W55675   1.048  20.373  18.161 -0.1584 -0.1016  0.1837
12582W        W55676   1.584  22.784  17.509  0.0160 -0.0340  0.2043
12583W        W55677  34.529  21.790  17.966 -0.2752  0.1813  0.0329
12584W        W55678   3.261  19.964  18.375  0.1023 -0.1478  0.4361
12585W        W55679   2.727  19.391  17.939 -0.2937 -0.2196  0.3754
12586W        W55680   3.474  20.413  18.300  0.0247 -0.1636  0.1716
12587W        W55681   0.976  18.786  18.375  0.1467 -0.0859  0.1516
12588W        W55682   2.991  18.826  16.783  0.2340 -0.3154 -0.3545
12589W        W55683   2.349  19.285  17.527  0.0131 -0.1901 -0.2061
12590W        W55684   1.280  20.940  19.575 -0.3502 -0.0574 -0.2475
12591W        W55685  32.983  21.011  17.101 -0.0341  0.0866  0.0763
12592W        W55686   0.626  20.601  17.315  0.0499 -0.0084 -0.0334
12593W        W55687  34.648  19.732  17.627 -0.4141  0.0166 -0.1237
12594W        W55688   2.589  18.481  21.033 -0.0504  0.1357  0.0388
12595W        W55689  33.940  17.565  20.675 -0.0138 -0.0343  0.1503
12596W        W55690  33.863  21.146  18.128  0.0002 -0.2274  0.1124
12597W        W55691   1.021  17.949  17.757  0.3994 -0.0447  0.1192
12598W        W55692   2.980  20.798  17.419  0.0793  0.0557  0.1503
12599W        W55693   1.350  18.373  18.148 -0.0753  0.0146  0.0003
12600W        W55694   0.919  19.016  19.322  0.0497 -0.0187 -0.3065
12601W        W55695   1.684  21.325  16.746 -0.1998  0.1677 -0.3761
12602W        W55696   1.710  21.371  17.324  0.1395 -0.0566 -0.3454
12603W        W55697   0.823  18.292  17.387 -0.1062 -0.1869  0.1564
12604W        W55698   2.191  20.837  19.149 -0.1486  0.0962 -0.0615
12605W        W55699   1.491  21.804  17.509  0.0150  0.3174 -0.0332
12606W        W55700   1.614  18.320  19.948 -0.0196  0.1621 -0.0987
12607W        W55701   2.411  19.003  20.367  0.0418  0.0963 -0.1924
12608W        W55702  34.044  17.645  16.359 -0.2028 -0.2287 -0.1238
12609W        W55703   1.528  18.033  18.611 -0.1859  0.1037 -0.3455
12610W        W55704   2.065  21.577  16.953  0.2553  0.0390  0.2578
12611W        W55705   2.387  22.182  17.681 -0.3031  0.1202  0.3032
12612W        W55706   2.120  21.355  18.267 -0.1658  0.0647 -0.0241
12613W        W55707   1.678  21.232  18.435  0.1367 -0.2570 -0.0306
12614W        W55708  34.519  18.327  19.744 -0.0025  0.1104 -0.1497
12615W        W55709   2.814  21.287  17.092  0.0630  0.0971  0.1881
12616W        W55710   1.225  20.445  19.532  0.2824  0.2938 -0.0812
12617W        W55711   2.166  21.065  16.873 -0.0151  0.3636  0.1242
12618W        W55712   2.629  18.883  17.346 -0.0553  0.0304  0.6472
12619W        W55713   0.819  20.054  17.527 -0.1025 -0.0810  0.0772
12620W        W55714  34.657  18.072  20.144 -0.2100  0.0454  0.0144
12621W        W55715  34.351  20.241  19.906 -0.2860  0.0530 -0.2004
12622W        W55716   2.530  19.155  18.581 -0.1270 -0.0067 -0.0607
12623W        W55717  34.224  18.946  18.061 -0.1546 -0.1923  0.2518
12624W        W55718   1.828  18.527  19.313 -0.0779 -0.2017  0.0044
12625W        W55719   1.302  21.524  17.001  0.1672 -0.0152  0.1502
12626W        W55720  34.662  19.949  18.325  0.2649  0.1723  0.0493
12627W        W55721   1.784  19.658  18.048  0.3397 -0.0356  0.2191
12628W        W55722   1.879  20.390  18.413  0.1249 -0.2972 -0.1631
12629W        W55723   2.556  20.850  17.205  0.1234 -0.2170 -0.1700
12630W        W55724   1.993  20.467  20.833 -0.1954 -0.2063 -0.1287
12631W        W55725   1.642  19.846  16.878  0.1713  0.1449 -0.1211
12632W        W55726   3.506  21.079  16.704 -0.0222  0.0691  0.1644
12633W        W55727   1.491  22.486  18.344  0.1431 -0.1166 -0.1271
12634W        W55728   3.109  21.454  19.697 -0.2249  0.1541 -0.4634
12635W        W55729   1.719  21.390  19.537 -0.3047  0.2895  0.2932
12636W        W55730   2.891  20.577  18.595 -0.2118  0.0178 -0.0588
12637W        W55731  33.978  17.826  18.913 -0.2689  0.3526  0.1089
12638W        W55732   0.658  20.841  16.856  0.1727 -0.2361 -0.0497
12639W        W55733   0.963  21.500  17.894 -0.1877  0.0566 -0.1127
12640W        W55734   1.521  20.131  18.180 -0.1223  0.0827 -0.0462
12641W        W55735   1.354  19.951  19.387  0.2830  0.2644  0.1140
12642W        W55736   2.924  17.550  16.923  0.1115 -0.0633 -0.1310
12643W        W55737   0.989  22.185  18.587  0.1223 -0.1319  0.2560
12644W        W55738   1.175  19.826  17.933  0.1267  0.2309  0.0585
12645W        W55739   1.215  21.482  22.011  0.2853 -0.0104  0.4350
12646W        W55740  33.945  16.896  21.236  0.2280  0.2409  0.4699
12647W        W55741   3.146  17.970  22.214 -0.0697 -0.2203  0.1641
12648W        W55742   3.669  19.752  20.671 -0.2102 -0.1967  0.3041
12649W        W55743   0.963  20.617  20.516  0.1116  0.2245 -0.0683
12650W        W55744   3.729  21.940  21.503  0.1632  0.1416  0.0523
12651W        W55745  33.519  18.251  22.968  0.0741  0.2201  0.0054
12652W        W55746   1.565  22.811  21.874 -0.0103  0.3285 -0.2091
12653W        W55747   1.870  20.676  22.557  0.0376 -0.0190 -0.3165
12654W        W55748   2.458  22.012  21.076  0.2271 -0.1159  0.2871
12655W        W55749   2.507  19.177  22.809 -0.0221  0.1433 -0.1269
12656W        W55750   2.039  21.530  22.164 -0.3147 -0.0659  0.0952
12657W        W55751   2.730  17.317  19.889  0.3403  0.0898  0.2160
12658W        W55752  33.610  18.540  21.139 -0.1991  0.2060  0.1824
12659W        W55753   1.964  20.396  22.114 -0.0047  0.1417  0.0436
12660W        W55754   1.680  19.554  20.154 -0.1364  0.1483  0.2536
12661W        W55755   0.569  18.868  22.568 -0.0222 -0.1543 -0.2460
12662W        W55756   1.334  19.202  20.213 -0.2113  0.0562 -0.3879
12663W        W55757   0.905  21.775  19.621 -0.0910  0.0614 -0.2896
12664W        W55758   2.393  20.296  21.878  0.0041  0.2219  0.0706
12665W        W55759   1.363  18.329  22.345 -0.1790  0.0320  0.0157
12666W        W55760   1.685  20.366  19.530  0.1935 -0.0505 -0.1187
12667W        W55761  34.010  20.606  19.684 -0.0059  0.0093  0.0330
12668W        W55762   0.279  19.393  21.043 -0.1365  0.1240  0.0493
12669W        W55763   0.372  20.756  22.356 -0.0081 -0.1402 -0.0851
12670W        W55764   1.659  19.316  22.375  0.1447  0.0610 -0.0764
12671W        W55765   2.493  20.660  20.748  0.0535  0.0101 -0.2407
12672W        W55766   1.649  21.601  21.132 -0.2528  0.1028 -0.3412
12673W        W55767   3.251  21.895  21.099 -0.0901  0.3069  0.0191
12674W        W55768   2.868  19.235  23.489 -0.1876 -0.0641 -0.2833
12675W        W55769  33.341  20.362  21.373  0.0744 -0.0704 -0.0436
12676W        W55770   0.764  21.022  21.559 -0.0742  0.1932  0.4104
12677W        W55771   2.733  21.870  21.517 -0.1419 -0.1580 -0.1868
12678W        W55772   4.787  20.684  21.200  0.2513 -0.1154 -0.0813
12679W        W55773   2.347  22.094  23.349 -0.1574  0.2970  0.0760
12680W        W55774   1.641  21.916  22.713 -0.1211 -0.0845 -0.1241
12681W        W55775   0.212  21.053  19.540  0.2404 -0.1511 -0.0359
12682W        W55776   1.988  21.237  23.380 -0.4160 -0.0489 -0.0803
12683W        W55777   0.544  20.891  23.820 -0.0651  0.2901 -0.3480
12684W        W55778   0.437  18.905  23.034  0.1599 -0.1270 -0.1426
12685W        W55779   1.284  19.417  21.140  0.4063  0.1245 -0.0605
12686W        W55780   0.586  21.768  19.215  0.0022  0.1420 -0.2837
12687W        W55781   3.854  21.151  21.791  0.0209 -0.1285  0.0596
12688W        W55782   0.168  20.005  23.422 -0.4133 -0.1691 -0.2261
12689W        W55783   0.835  20.439  21.500 -0.0315 -0.1994  0.2091
12690W        W55784   2.863  18.801  24.192  0.1065 -0.3591 -0.0174
12691W        W55785   1.484  21.432  20.318  0.2414 -0.1796 -0.0246
12692W        W55786   2.166  18.446  19.796 -0.1075 -0.1947  0.1770
12693W        W55787   1.445  19.957  20.166  0.4256 -0.0898  0.1936
12694W        W55788   3.120  18.681  20.108  0.0914  0.0073 -0.1294
12695W        W55789   0.879  18.194  22.186 -0.0112  0.0557 -0.0929
12696W        W55790   1.106  21.002  20.227 -0.0158 -0.0249 -0.0170
12697W        W55791   1.645  17.863  21.680  0.3396 -0.0689 -0.0066
12698W        W55792   3.248  22.656  22.510 -0.1706  0.0549 -0.1205
12699W        W55793   1.697  18.273  21.080 -0.0898 -0.0706  0.3353
12700W        W55794   3.058  18.977  22.175  0.0322  0.1853 -0.1438
12701W        W55795   2.324  20.777  22.779 -0.1601 -0.0622  0.1790
12702W        W55796   0.859  18.883  21.666  0.1397 -0.0622  0.0414
12703W        W55797   3.155  20.860  19.061  0.4324 -0.1821 -0.3736
12704W        W55798   3.830  21.134  21.294 -0.4130  0.0351 -0.0153
12705W        W55799   2.963  20.771  21.437  0.0818 -0.0690 -0.1316
12706W        W55800   0.009  18.792  20.792 -0.2509  0.2127  0.1959
12707W        W55801   0.272  20.503  23.568 -0.0263  0.2079 -0.0640
12708W        W55802   0.368  20.404  23.061 -0.2311 -0.1084 -0.0780
12709W        W55803   2.162  19.501  20.420  0.0472  0.2097  0.3685
12710W        W55804   2.534  21.369  23.109 -0.0257  0.0750 -0.1485
12711W        W55805   0.718  21.959  23.043  0.0215  0.2296  0.1736
12712W        W55806   4.332  20.081  20.695 -0.0508  0.0330  0.0585
12713W        W55807   1.259  19.915  21.281 -0.2455 -0.0391 -0.2039
12714W        W55808   3.405  21.863  22.784 -0.0846  0.3079 -0.1524
12715W        W55809   3.815  20.230  20.618 -0.1801  0.0304 -0.0392
12716W        W55810   3.545  18.422  22.728 -0.2914  0.1292 -0.1565
12717W        W55811   2.377  17.663  22.946 -0.2422 -0.0849 -0.1000
12718W        W55812  34.206  20.232  20.391  0.0454 -0.1096 -0.2114
12719W        W55813   0.838  19.730  21.089  0.2562 -0.2551 -0.1254
12720W        W55814   4.445  22.085  22.078  0.1362 -0.1261  0.2876
12721W        W55815   2.536  20.462  19.976 -0.1006  0.2635  0.1050
12722W        W55816   1.673  21.434  22.520 -0.4389 -0.3708 -0.3555
12723W        W55817   1.484  18.688  23.520 -0.0109 -0.0160  0.0513
12724W        W55818   3.601  20.620  23.816 -0.3576  0.2096 -0.0252
12725W        W55819   1.086  21.960  21.753  0.0454  0.1660 -0.0747
12726W        W55820  34.432  19.982  22.332  0.1009 -0.1496 -0.1082
12727W        W55821   0.368  20.504  20.781  0.1833 -0.0170  0.4956
12728W        W55822   1.350  18.512  21.859  0.0097 -0.1745 -0.0548
12729W        W55823   2.046  20.967  22.011  0.0344 -0.2717  0.1143
12730W        W55824   2.773  17.482  22.416 -0.1210  0.1708 -0.0431
12731W        W55825   0.673  17.643  22.583  0.0904  0.1034 -0.2253
12732W        W55826   3.677  18.183  19.458 -0.0647 -0.1035 -0.1446
12733W        W55827   0.821  19.964  22.721 -0.0942 -0.1741  0.3030
12734W        W55828   3.342  21.518  21.375  0.1174 -0.1206 -0.1540
12735W        W55829   2.618  18.392  21.495 -0.2847 -0.0732 -0.1179
12736W        W55830   2.088  21.028  20.650 -0.3277  0.2602  0.0476
12737W        W55831  34.485  19.319  23.336 -0.0021 -0.3144  0.1389
12738W        W55832   0.217  18.097  22.089  0.0452 -0.0738 -0.1179
12739W        W55833   1.428  20.036  24.422 -0.0688  0.3105  0.1972
12740W        W55834   0.645  18.616  21.313 -0.3835 -0.3591 -0.0135
12741W        W55835   3.938  20.186  22.988  0.0977 -0.1867  0.1011
12742W        W55836   1.317  16.652  20.680  0.0234  0.2135 -0.1243
12743W        W55837   3.049  19.715  19.319  0.1122  0.3135 -0.3902
12744W        W55838   1.026  19.633  21.572  0.1629  0.2361  0.0352
12745W        W55839  33.999  20.041  21.269  0.0468  0.1202  0.1461
12746W        W55840   2.341  19.148  23.308 -0.1461 -0.1984  0.0502
12747W        W55841   2.152  22.340  20.105 -0.4024  0.1797 -0.1711
12748W        W55842   4.201  21.151  22.808  0.1571  0.0644 -0.2037
12749W        W55843   3.542  22.722  20.907  0.2001 -0.2124 -0.1591
12750W        W55844   0.166  17.971  23.946 -0.2599 -0.1813 -0.4461
12751W        W55845   0.199  19.025  20.378 -0.1685 -0.0632 -0.1204
12752W        W55846   0.990  21.252  21.134 -0.0089  0.1937  0.1794
12753W        W55847   1.487  20.475  21.842  0.1934 -0.1946  0.0136
12754W        W55848   2.805  18.384  22.200 -0.0823 -0.0117  0.0289
12755W        W55849   3.417  20.903  21.551  0.0251 -0.2223  0.0703
12756W        W55850   1.769  20.409  21.243 -0.0919 -0.0017 -0.2415
12757W        W55851   0.753  20.724  23.068 -0.1139  0.2197 -0.0901
12758W        W55852   1.558  18.818  22.235 -0.0559 -0.3575 -0.3016
12759W        W55853   3.870  20.420  21.887 -0.4277  0.3411  0.0139
12760W        W55854   1.551  20.071  22.107 -0.1959 -0.0207  0.0960
12761W        W55855  33.155  17.812  20.325 -0.1643 -0.2125  0.2060
12762W        W55856   1.902  21.323  21.635 -0.1592 -0.3633  0.0003
12763W        W55857   1.575  22.385  20.105 -0.1233  0.1190  0.0136
12764W        W55858  34.480  19.175  22.175  0.1523 -0.1816 -0.0042
12765W        W55859   2.182  21.310  21.209  0.0503  0.1131 -0.2235
12766W        W55860   3.875  18.147  21.404  0.0142 -0.2883 -0.1619
12767W        W55861   0.653  19.789  24.665 -0.0015 -0.4328 -0.1173
12768W        W55862   2.128  20.418  23.761 -0.1032 -0.1252 -0.5173
12769W        W55863   1.881  19.922  20.423  0.0978  0.1118 -0.1075
12770W        W55864   1.531  20.461  23.385 -0.2059  0.3092  0.1232
12771W        W55865   1.166  19.022  22.493 -0.0660  0.0315 -0.0381
12772W        W55866   2.251  18.901  19.472 -0.0818 -0.0995 -0.0121
12773W        W55867   0.252  19.398  23.165 -0.0267 -0.1265  0.1014
12774W        W55868   2.501  20.543  21.416  0.0372 -0.0947 -0.0855
12775W        W55869   3.554  19.805  19.306  0.1061 -0.4413  0.2476
12776W        W55870   1.885  19.676  19.241  0.1379  0.3292 -0.1045
12777W        W55871   1.640  21.471  23.140  0.1700 -0.0733 -0.0621
12778W        W55872   2.995  21.523  22.948 -0.2334  0.0251 -0.0960
12779W        W55873   1.576  20.396  22.889  0.2725  0.0893 -0.0756
12780W        W55874   2.541  19.875  21.178  0.1873 -0.1565 -0.0176
12781W        W55875   4.318  21.988  19.811  0.2080 -0.0398 -0.0997
12782W        W55876  34.204  20.471  21.416  0.1082 -0.0011 -0.1364
12783W        W55877   1.204  20.787  23.759 -0.3511  0.0918  0.1157
12784W        W55878   3.254  21.022  22.698  0.1108 -0.0620  0.1613
12785W        W55879   0.507  19.374  22.711 -0.2907  0.2187  0.2841
12786W        W55880   2.565  18.984  20.899 -0.6292  0.0283  0.2456
12787W        W55881   3.469  18.270  21.922 -0.1159  0.2620 -0.1081
12788W        W55882   0.571  22.296  20.437  0.0894  0.1194 -0.1253
12789W        W55883   3.225  18.348  23.330 -0.1451 -0.0473 -0.3017
12790W        W55884   3.862  18.126  23.451  0.2893  0.2061 -0.2453
12791W        W55885   1.594  18.212  22.919  0.1571 -0.0310  0.0155
12792W        W55886   3.398  20.168  23.763 -0.1557  0.2638  0.2184
12793W        W55887   4.190  20.500  20.292 -0.1263 -0.1490  0.1871
12794W        W55888   2.718  19.692  22.687  0.0488 -0.0490 -0.2290
12795W        W55889   1.765  19.336  19.644  0.2137  0.2342 -0.0052
12796W        W55890   1.387  17.720  23.059  0.0211 -0.1334  0.1619
12797W        W55891   0.924  19.132  22.920  0.0811  0.1685  0.0905
12798W        W55892   0.724  21.065  22.676 -0.2161 -0.2868 -0.1704
12799W        W55893   0.927  19.787  22.051  0.0059 -0.0762  0.1654
12800W        W55894   2.618  21.537  21.092  0.0001  0.3390  0.2720
12801W        W55895   2.806  18.868  23.102 -0.0732 -0.0226  0.1240
12802W        W55896   1.402  16.894  21.121 -0.3107 -0.2703 -0.0458
12803W        W55897   1.557  22.092  21.376  0.2087  0.1804  0.2915
12804W        W55898   0.473  20.841  20.404  0.0760 -0.2051 -0.1056
12805W        W55899   2.073  19.394  21.552 -0.2190 -0.0615 -0.3407
12806W        W55900   1.511  21.068  23.414  0.4305  0.0836 -0.1066
12807W        W55901   0.377  21.761  18.716  0.0046 -0.4269  0.2119
12808W        W55902   3.680  19.771  23.290 -0.0190  0.1048  0.2714
12809W        W55903   1.352  20.536  20.036 -0.1151 -0.0439  0.0421
12810W        W55904   2.866  18.725  23.741 -0.0583 -0.0137 -0.2087
12811W        W55905  34.090  20.873  22.727 -0.1012 -0.1169  0.3710
12812W        W55906   0.973  19.475  22.568 -0.1638 -0.0127  0.0266
12813W        W55907  34.132  19.312  20.830 -0.1042  0.2274 -0.1102
12814W        W55908   2.237  18.799  22.285  0.1311 -0.2389 -0.2457
12815W        W55909   2.803  21.421  20.208  0.1476  0.0630  0.1101
12816W        W55910   1.659  18.683  21.420  0.0699  0.3308 -0.1604
12817W        W55911   2.063  18.141  21.642  0.4113 -0.0499 -0.1250
12818W        W55912   0.370  20.989  20.936 -0.0589  0.2356 -0.1042
12819W        W55913   1.798  18.954  23.208  0.0503  0.1312  0.2159
12820W        W55914   2.373  19.503  18.893  0.2210 -0.1877 -0.2263
12821W        W55915   2.054  20.307  22.844  0.2707  0.2166 -0.0675
12822W        W55916   0.202  19.493  23.978  0.3145 -0.2753  0.0876
12823W        W55917   0.191  18.679  19.584 -0.1122  0.1093  0.2431
12824W        W55918   3.336  19.062  21.771 -0.0790  0.0410 -0.1621
12825W        W55919   1.839  18.448  22.491  0.2406 -0.1760  0.2272
12826W        W55920   0.487  21.371  21.380  0.1024  0.0988 -0.0096
12827W        W55921   1.136  20.728  22.677  0.0295  0.0313  0.1161
12828W        W55922   2.137  20.835  21.138 -0.1782  0.0053 -0.1963
12829W        W55923  34.632  20.635  21.658 -0.0895  0.1010  0.0329
12830W        W55924  34.491  19.798  24.208  0.0322  0.0239  0.3619
12831W        W55925   3.125  19.611  22.360 -0.1154  0.0852  0.2266
12832W        W55926   3.191  19.341  23.148 -0.1732  0.3202  0.0970
12833W        W55927   0.286  19.067  21.802  0.1353 -0.0211 -0.1325
12834W        W55928   1.264  19.937  22.477 -0.0610  0.0535  0.0700
12835W        W55929   2.056  20.584  21.603  0.1628 -0.1028  0.2660
12836W        W55930   2.451  19.404  23.755  0.1530 -0.0750 -0.0514
12837W        W55931   0.744  22.947  23.496  0.1699  0.2285  0.0467
12838W        W55932   3.550  19.357  22.490  0.2402  0.1812  0.4995
12839W        W55933   3.287  22.599  21.295 -0.0947  0.2847 -0.0463
12840W        W55934   2.172  19.651  23.409 -0.3315 -0.0049 -0.2572
12841W        W55935   2.164  19.972  20.900  0.1967 -0.1244  0.0106
12842W        W55936  34.238  19.476  22.463  0.3642 -0.1298  0.1858
12843W        W55937   1.486  20.760  22.259 -0.0042  0.5472 -0.1046
12844W        W55938   1.556  19.594  21.580 -0.0079  0.1496  0.2416
12845W        W55939   0.697  20.284  21.976 -0.0268  0.0138  0.0868
12846W        W55940   1.750  21.818  20.180 -0.0214 -0.3066 -0.3338
12847W        W55941   1.126  21.315  22.941 -0.0899 -0.1106 -0.1303
12848W        W55942   3.345  18.013  19.823  0.2808  0.2324  0.0769
12849W        W55943   0.971  19.051  21.176 -0.0741  0.3546  0.3526
12850W        W55944   1.733  19.205  21.203 -0.1789  0.0885  0.4060
12851W        W55945   3.034  19.897  23.263  0.1931  0.0300 -0.1105
12852W        W55946   1.837  20.483  19.045  0.0577  0.2508  0.0275
12853W        W55947   1.289  17.088  24.041  0.0540 -0.2058 -0.1321
12854W        W55948   0.791  16.674  20.675  0.1318 -0.0396 -0.1336
12855W        W55949   2.323  22.105  20.560 -0.0989 -0.2199  0.1503
12856W        W55950   0.666  19.337  22.013 -0.1579 -0.1918 -0.0036
12857W        W55951   2.376  22.241  23.833 -0.1150 -0.0162  0.1402
12858W        W55952   1.463  21.015  24.260 -0.1024 -0.1138  0.0106
12859W        W55953   2.599  19.349  21.398  0.1393  0.1076  0.0514
12860W        W55954   2.936  18.064  21.706  0.1427  0.3330 -0.0850
12861W        W55955   1.052  21.528  23.508 -0.1117  0.6371 -0.1169
12862W        W55956   3.989  22.164  22.287 -0.0532 -0.2158 -0.0234
12863W        W55957   1.800  22.417  20.600  0.0515 -0.1036  0.2315
12864W        W55958   4.167  20.612  22.580 -0.1379  0.1599 -0.0056
12865W        W55959   0.737  19.609  24.198  0.1486 -0.1655 -0.1112
12866W        W55960   2.392  19.977  20.229 -0.0649 -0.1700 -0.1969
12867W        W55961   2.516  20.929  20.317  0.2125  0.3166 -0.1075
12868W        W55962   1.662  20.876  21.659  0.0321 -0.0161  0.0326
12869W        W55963   1.798  17.957  22.487 -0.0108 -0.2698  0.0433
12870W        W55964   3.413  19.311  20.829 -0.0490  0.2287  0.0118
12871W        W55965   1.700  20.065  21.631  0.1857 -0.1821 -0.1045
12872W        W55966   2.999  18.448  22.913  0.0155  0.1342  0.4575
12873W        W55967   2.950  19.239  24.006 -0.2966 -0.1127  0.0153
12874W        W55968   0.208  18.525  22.708 -0.0132 -0.3560  0.3456
12875W        W55969  34.258  19.274  23.883 -0.0742  0.0470  0.0579
12876W        W55970   2.022  21.985  21.841 -0.4309  0.0008 -0.0467
12877W        W55971   3.046  18.142  20.158 -0.0969 -0.1608  0.0377
12878W        W55972   3.283  19.737  22.848  0.0225  0.1200 -0.2453
12879W        W55973   1.877  18.763  21.885 -0.0283 -0.0855 -0.0764
12880W        W55974   2.250  19.426  21.056 -0.1273 -0.2805 -0.1547
12881W        W55975   0.034  18.562  20.272 -0.0439 -0.0858 -0.1030
12882W        W55976   2.912  18.525  24.690 -0.0569 -0.2082 -0.1362
12883W        W55977   0.978  20.000  19.791  0.1883 -0.2881 -0.1627
12884W        W55978   2.861  18.200  24.290  0.0793  0.0460  0.2634
12885W        W55979   2.040  21.149  20.144 -0.1504 -0.3970 -0.1460
12886W        W55980   3.037  20.096  22.562 -0.0358 -0.1321 -0.3899
12887W        W55981   2.802  18.836  21.321 -0.1499  0.0470  0.0131
12888W        W55982  33.959  18.843  20.689  0.0087 -0.1244 -0.1178
12889W        W55983   0.790  22.311  24.049 -0.0062  0.4037 -0.2231
12890W        W55984  34.689  17.969  19.154 -0.0924  0.0644 -0.2113
12891W        W55985   1.402  20.790  18.350  0.2577 -0.3113 -0.0353
12892W        W55986  34.029  19.546  23.421 -0.0957 -0.0984  0.0083
12893W        W55987   1.955  20.362  24.246  0.6027 -0.0414 -0.1044
12894W        W55988   1.804  17.502  20.392 -0.0946 -0.1371 -0.0681
12895W        W55989   3.388  19.544  24.152 -0.0617  0.3769 -0.0871
12896W        W55990   1.849  22.031  20.939  0.1430 -0.0463  0.1211
12897W        W55991   3.490  18.934  22.865 -0.1180 -0.2307  0.3244
12898W        W55992   1.895  20.779  23.074 -0.1681 -0.2664  0.1461
12899W        W55993   1.240  21.809  23.140 -0.0831 -0.2414  0.2114
12900W        W55994   0.803  20.738  21.075  0.1993 -0.1992  0.0735
12901W        W55995   1.812  18.284  22.029  0.0653  0.0939  0.2279
12902W        W55996   3.031  20.314  22.976  0.1256  0.0608 -0.1160
12903W        W55997   1.867  19.700  21.200 -0.3947  0.1038  0.0118
12904W        W55998   3.109  19.212  22.656 -0.0917  0.1741 -0.0957
12905W        W55999   3.106  20.509  23.986 -0.0759 -0.1499  0.0971
12906W        W56000   0.391  19.802  21.409 -0.2338 -0.0125 -0.1781
12907W        W56001   2.107  22.686  23.178  0.0226 -0.0968 -0.3101
12908W        W56002   2.663  19.248  22.305 -0.2208 -0.0999  0.1562
12909W        W56003   0.908  20.756  19.855 -0.0538 -0.0471 -0.1202
12910W        W56004   0.258  19.242  22.301  0.0891  0.2112  0.2149
12911W        W56005   0.924  19.824  23.691 -0.0106 -0.1423  0.3451
12912W        W56006   2.577  19.813  21.789  0.3293  0.2090 -0.2769
12913W        W56007   2.382  17.981  21.116 -0.1873  0.0800  0.1276
12914W        W56008   2.591  22.056  19.082  0.1088 -0.1219 -0.0270
12915W        W56009   0.089  20.635  24.067  0.2931  0.0622  0.2167
12916W        W56010   1.103  20.284  21.038 -0.0196 -0.0771 -0.1075
12917W        W56011   1.113  22.183  22.236 -0.1572 -0.2168  0.0248
12918W        W56012   3.536  21.117  18.801  0.0939  0.3096 -0.3894
12919W        W56013   3.521  21.199  20.626  0.0016 -0.0224 -0.0214
12920W        W56014   1.533  21.604  23.695 -0.1009  0.3563 -0.0505
12921W        W56015   2.862  18.090  21.193 -0.2144 -0.1649 -0.1146
12922W        W56016   1.431  21.243  21.455  0.1202  0.2742 -0.2657
12923W        W56017  34.620  21.749  20.575 -0.1349  0.0944  0.0101
12924W        W56018   1.835  21.790  19.098 -0.2234  0.1129 -0.0612
12925W        W56019  34.223  20.951  21.381 -0.1456 -0.0020 -0.1099
12926W        W56020   2.715  20.496  22.663  0.0329  0.2973 -0.0020
12927W        W56021   2.081  17.840  18.665 -0.1405 -0.0492  0.1175
12928W        W56022   3.164  19.818  21.835 -0.0683  0.2341 -0.0392
12929W        W56023   1.874  17.877  20.792  0.2255  0.1528 -0.1155
12930W        W56024   2.599  22.890  23.252  0.0278 -0.0967 -0.0717
12931W        W56025   1.366  19.581  22.100  0.0782 -0.1908 -0.0488
12932W        W56026   1.675  19.520  20.771  0.0547  0.0328 -0.2884
12933W        W56027   1.710  19.554  23.320 -0.0827  0.1443 -0.1234
12934W        W56028   3.731  17.357  24.671  0.1206  0.1412  0.0853
12935W        W56029  34.626  20.712  23.135 -0.1113 -0.1348  0.4011
12936W        W56030   2.719  21.827  20.624 -0.0597 -0.1278  0.0641
12937W        W56031   1.201  19.765  20.743 -0.0697  0.0556 -0.0994
12938W        W56032   2.405  19.738  22.264 -0.1583  0.4148  0.0027
12939W        W56033   4.083  18.222  21.848  0.1554 -0.1518  0.0165
12940W        W56034   1.289  21.094  20.727  0.2277  0.1468  0.1342
12941W        W56035   1.753  19.727  22.644 -0.1496 -0.2305  0.2355
12942W        W56036   2.058  21.850  21.351  0.3564  0.1463  0.1271
12943W        W56037   0.825  19.578  23.230  0.0105 -0.0795  0.2172
12944W        W56038   1.600  21.875  22.172 -0.1051  0.0780 -0.2581
12945W        W56039  34.185  18.488  20.335  0.1138  0.0408 -0.2259
12946W        W56040   3.129  19.486  21.460  0.1401  0.3936 -0.2822
12947W        W56041   1.473  19.355  22.858  0.2317 -0.2416 -0.2614
12948W        W56042   3.283  17.976  22.757  0.0813  0.4346  0.0519
12949W        W56043   1.389  19.088  21.482  0.0445  0.3403  0.1691
12950W        W56044   2.834  20.595  20.401  0.0454  0.0284 -0.4475
12951W        W56045   2.172  19.854  22.936  0.2325  0.2526  0.2573
12952W        W56046   0.727  18.396  21.734  0.0256  0.1669  0.2052
12953W        W56047   2.132  18.433  21.252 -0.1146  0.2116 -0.0699
12954W        W56048   3.233  21.251  23.239 -0.0098  0.0678  0.0450
12955W        W56049   2.638  19.745  19.789  0.1997 -0.1680 -0.1273
12956W        W56050   1.523  21.029  22.758  0.2962 -0.1450 -0.0236
12957W        W56051   0.868  18.084  20.560 -0.1248  0.2764  0.0538
12958W        W56052   3.311  18.339  20.566 -0.1128 -0.1029  0.2259
12959W        W56053  34.648  19.365  20.714  0.0357  0.2145 -0.1895
12960W        W56054   2.394  18.946  23.931  0.0348 -0.1622  0.0961
12961W        W56055   2.031  21.220  22.858  0.3567 -0.1355  0.2316
12962W        W56056   1.125  18.215  23.119 -0.0250  0.0084  0.1286
12963W        W56057   3.050  21.052  20.504 -0.2275  0.0187 -0.1405
12964W        W56058   3.418  19.943  21.384  0.1028 -0.1641  0.1763
12965W        W56059   2.152  22.427  20.977 -0.1891 -0.3301 -0.0193
12966W        W56060   3.381  20.429  21.235  0.0322 -0.2274  0.1728
12967W        W56061   2.274  23.267  20.985 -0.0664  0.4494 -0.0279
12968W        W56062  34.563  19.327  22.851 -0.3139  0.1135  0.3200
12969W        W56063   1.199  20.939  21.882  0.0542 -0.2358 -0.0446
12970W        W56064   3.584  21.415  23.564  0.0857 -0.0522 -0.3866
12971W        W56065   1.039  19.184  20.701  0.0108  0.0149  0.0954
12972W        W56066   0.734  20.060  20.630  0.0443 -0.0759  0.2848
12973W        W56067  34.691  20.848  20.607  0.2616 -0.2599  0.0121
12974W        W56068   3.687  19.376  21.927  0.1699 -0.2781  0.2076
12975W        W56069   2.592  20.099  23.032 -0.1643 -0.1114  0.0652
12976W        W56070   1.212  21.598  20.722 -0.2972  0.2727  0.3420
12977W        W56071   3.899  17.716  23.884  0.1783 -0.0399 -0.0800
12978W        W56072   1.739  20.048  23.190 -0.0005 -0.0361  0.1108
12979W        W56073   1.575  19.808  24.817  0.2244  0.0134  0.0046
12980W        W56074  34.240  20.268  20.935  0.2723  0.0536 -0.1020
12981W        W56075   2.964  19.728  23.816  0.0304 -0.0352 -0.3270
12982W        W56076   1.716  21.047  21.093 -0.0826 -0.0588 -0.2351
12983W        W56077   1.591  21.104  19.935  0.0430 -0.1022  0.0737
12984W        W56078   2.210  21.701  20.797  0.0205 -0.3461  0.0520
12985W        W56079   1.884  18.768  20.945  0.1314 -0.1611  0.0812
12986W        W56080   3.564  22.251  22.563 -0.0966 -0.0482 -0.0416
12987W        W56081   2.615  17.898  22.108  0.1512 -0.2022 -0.0707
12988W        W56082   3.169  19.615  20.383  0.2738  0.1402 -0.0589
12989W        W56083   3.323  18.566  22.295 -0.0086  0.3901  0.0010
12990W        W56084   0.217  20.172  22.501 -0.0562 -0.0789 -0.1102
12991W        W56085  32.519  19.778  19.767 -0.1203 -0.2530 -0.2789
12992W        W56086   2.182  20.491  20.358 -0.1390  0.2572  0.1711
12993W        W56087   1.189  20.103  21.772  0.4241  0.1232 -0.3568
12994W        W56088   0.440  19.586  23.575 -0.0967  0.1444  0.0999
12995W        W56089  33.860  18.153  22.406  0.2277  0.2366 -0.1715
12996W        W56090  33.522  19.691  20.656  0.0042 -0.0488  0.1159
12997W        W56091   1.426  18.818  20.999  0.0357 -0.0145  0.0361
12998W        W56092   3.234  21.987  21.662  0.2044 -0.3886 -0.1888
12999W        W56093   0.025  17.695  21.752  0.2154 -0.3621 -0.0226
13000W        W56094  34.330  17.801  20.817 -0.1070 -0.0145  0.1386
13001W        W56095   2.445  22.371  22.072  0.0171 -0.3904  0.1105
13002W        W56096   2.682  20.765  19.488 -0.0979 -0.0142 -0.1184
13003W        W56097   2.704  17.791  19.554 -0.2329  0.0753 -0.2211
13004W        W56098   2.271  20.792  23.456 -0.1324  0.1550  0.0918
13005W        W56099   0.889  19.302  19.892 -0.1126  0.0117 -0.0599
13006W        W56100   1.207  19.784  24.093 -0.2399  0.0489 -0.0363
13007W        W56101   0.256  17.638  22.936  0.1477  0.0599  0.1167
13008W        W56102  34.316  18.083  21.250 -0.3754  0.1945  0.2304
13009W        W56103   2.643  18.914  21.836  0.1043 -0.2784 -0.0707
13010W        W56104   3.059  21.045  21.836 -0.1190  0.1227  0.0098
13011W        W56105   1.420  20.600  20.888  0.0027 -0.0296 -0.1739
13012W        W56106   2.009  19.390  22.934 -0.1620  0.0877  0.0624
13013W        W56107   2.367  20.745  24.085 -0.0725 -0.0753 -0.1114
13014W        W56108   0.656  17.426  20.491  0.2771 -0.1150 -0.1112
13015W        W56109   3.256  21.718  20.137  0.1463  0.3194 -0.1717
13016W        W56110   2.189  19.964  23.952  0.0086 -0.0687 -0.0325
13017W        W56111   3.914  22.103  19.587  0.1026 -0.3659  0.1946
13018W        W56112   5.011  18.817  22.943 -0.0299 -0.1276 -0.0588
13019W        W56113   2.176  19.989  21.477 -0.0166  0.0887 -0.1757
13020W        W56114   0.950  18.750  23.331 -0.2731 -0.2138 -0.0835
13021W        W56115   0.685  19.172  23.469  0.2528 -0.3771 -0.1155
13022W        W56116   1.235  20.769  23.150  0.2579  0.1021  0.0740
13023W        W56117   1.913  17.787  21.268 -0.0807  0.1277  0.0885
13024W        W56118   2.008  18.641  20.253 -0.1588  0.0762 -0.0298
13025W        W56119   1.771  21.386  20.722  0.0928  0.2238  0.0595
13026W        W56120   1.184  18.585  21.388  0.1415  0.1828  0.0344
13027W        W56121   1.729  19.224  21.860  0.1715 -0.2460 -0.1734
13028W        W56122   4.124  19.961  23.417 -0.0564  0.0138  0.1432
13029W        W56123   2.383  20.614  22.326  0.0733 -0.2110 -0.0655
13030W        W56124   2.201  20.188  23.342 -0.1273 -0.2852 -0.0477
13031W        W56125  34.676  20.228  20.676 -0.1683 -0.0619  0.1031
13032W        W56126   3.187  19.727  20.897  0.3328  0.0528  0.2825
13033W        W56127   1.671  23.641  22.193  0.2800  0.1569 -0.1441
13034W        W56128   3.693  21.187  22.974  0.0278 -0.1690 -0.1396
13035W        W56129   1.917  22.380  23.588 -0.0733  0.0557  0.4340
13036W        W56130   1.920  19.660  22.115 -0.2739 -0.3619  0.1584
13037W        W56131   0.758  17.380  21.681 -0.1325 -0.2159  0.0422
13038W        W56132   0.714  20.090  23.283 -0.0047 -0.0576 -0.1489
13039W        W56133   2.605  21.034  21.120 -0.3516  0.4517 -0.2823
13040W        W56134   3.877  20.419  23.471  0.4338  0.0754  0.2499
13041W        W56135   0.207  18.524  21.749 -0.2523  0.0354 -0.0291
13042W        W56136   1.647  18.368  20.590 -0.1277 -0.2130  0.0869
13043W        W56137   0.176  20.610  24.566 -0.1760 -0.0948 -0.0573
13044W        W56138   1.115  20.345  22.260  0.0734  0.4134 -0.1456
13045W        W56139   2.255  22.205  27.290  0.1302  0.0058  0.0688
13046W        W56140   1.355  20.622  25.341 -0.0834 -0.1406 -0.0348
13047W        W56141   1.740  19.680  23.886  0.0882 -0.1044 -0.0972
13048W        W56142   3.151  19.992  24.238  0.0934 -0.2013  0.2107
13049W        W56143  34.351  19.764  25.363 -0.0038 -0.0373  0.1447
13050W        W56144   3.017  21.879  24.646  0.1913  0.2148  0.1814
13051W        W56145   1.033  19.693  27.768  0.0226 -0.5439 -0.2068
13052W        W56146   2.351  22.427  25.373 -0.2389 -0.2449  0.4121
13053W        W56147   4.161  22.375  26.639 -0.2089  0.2953 -0.0919
13054W        W56148   0.329  19.894  24.261  0.1097 -0.1845  0.0235
13055W        W56149   2.224  20.333  28.105  0.3530 -0.0330  0.0193
13056W        W56150   0.784  20.972  27.462 -0.0846  0.3892  0.0334
13057W        W56151  34.443  17.335  23.954 -0.0736  0.0478  0.2617
13058W        W56152   0.323  17.734  25.726  0.1760 -0.0419  0.2325
13059W        W56153   2.088  20.134  27.440 -0.1739 -0.1256 -0.1594
13060W        W56154   2.649  20.386  25.480  0.0571 -0.0345 -0.1422
13061W        W56155  34.443  19.813  25.878 -0.2211  0.1000 -0.3381
13062W        W56156   1.557  20.211  25.163 -0.1935  0.0505  0.1911
13063W        W56157   3.225  22.510  24.984 -0.1819  0.1915 -0.0275
13064W        W56158   1.031  18.449  25.765  0.0791  0.1392  0.0144
13065W        W56159   4.373  18.725  26.252  0.0198  0.0859 -0.0189
13066W        W56160   3.249  22.086  25.715 -0.1548 -0.0871 -0.0454
13067W        W56161  34.521  19.748  23.682 -0.2344 -0.0193 -0.2692
13068W        W56162   0.375  20.539  26.405  0.0969  0.0768 -0.1726
13069W        W56163   0.649  20.144  26.077 -0.0664 -0.2417 -0.0732
13070W        W56164   2.334  20.132  24.468 -0.1524  0.2054 -0.1468
13071W        W56165   3.183  21.108  25.703  0.1127 -0.4405 -0.0941
13072W        W56166   1.178  21.108  25.244 -0.2256 -0.1501  0.1250
13073W        W56167   2.456  21.930  25.443 -0.1724 -0.0539  0.0581
13074W        W56168   2.300  20.749  27.161  0.1370 -0.0281 -0.2109
13075W        W56169   0.772  21.672  25.795 -0.0225  0.2054 -0.1733
13076W        W56170  34.044  22.007  25.535  0.1138 -0.0018 -0.0248
13077W        W56171   0.902  21.587  25.238  0.0594 -0.0699  0.0267
13078W        W56172   3.251  20.789  24.961 -0.1424  0.0143 -0.1390
13079W        W56173   3.315  20.845  26.264 -0.2439  0.2057  0.3528
13080W        W56174   2.479  23.483  26.964 -0.0169  0.4399  0.0672
13081W        W56175  34.086  20.891  25.092 -0.2280 -0.2030 -0.0124
13082W        W56176   2.915  22.445  27.191 -0.3343  0.2905  0.1116
13083W        W56177   1.552  22.805  26.732 -0.0482  0.1576 -0.0010
13084W        W56178   2.487  19.682  24.917 -0.0906 -0.2243 -0.0488
13085W        W56179   1.994  21.124  24.866  0.0819  0.0706  0.3980
13086W        W56180   0.782  22.140  23.493 -0.0442 -0.0137  0.1197
13087W        W56181   2.650  20.904  25.613 -0.0642 -0.0929  0.2265
13088W        W56182   1.759  19.466  27.142  0.0961  0.4259 -0.0103
13089W        W56183  34.648  21.621  25.606  0.0597  0.3242 -0.1723
13090W        W56184   3.325  18.640  26.086  0.1439  0.1044  0.3418
13091W        W56185  34.482  20.543  23.659 -0.0589  0.1520 -0.5836
13092W        W56186   1.692  20.335  24.696  0.0445  0.0131 -0.1778
13093W        W56187   0.148  19.056  23.601  0.1693  0.3250 -0.1474
13094W        W56188   2.610  19.911  23.575  0.0636 -0.3026 -0.1172
13095W        W56189   1.693  18.208  24.721  0.1673  0.3284  0.1718
13096W        W56190   1.661  21.847  25.846 -0.0865 -0.3035 -0.1180
13097W        W56191   1.199  18.351  26.375 -0.1576  0.0722  0.2845
13098W        W56192   3.253  20.435  26.561  0.0957 -0.2290 -0.0248
13099W        W56193   1.291  20.687  24.854 -0.2117  0.2195  0.2078
13100W        W56194   2.828  21.392  26.911  0.3511  0.1132 -0.1381
13101W        W56195  33.818  20.323  27.601  0.2657 -0.0203  0.0363
13102W        W56196  34.603  19.354  25.613  0.2757 -0.0362  0.0532
13103W        W56197   2.248  21.768  24.150 -0.2253  0.1863 -0.2071
13104W        W56198   3.925  21.005  24.508 -0.3371 -0.0667 -0.1241
13105W        W56199   1.857  21.651  24.856 -0.2514 -0.0646  0.3500
13106W        W56200  34.560  19.244  24.275 -0.3530  0.1566 -0.1263
13107W        W56201  33.245  20.944  27.966  0.1074  0.3297 -0.2772
13108W        W56202   0.458  20.554  27.415 -0.1249 -0.2670  0.1717
13109W        W56203   2.200  17.994  23.881 -0.1320 -0.0134  0.0874
13110W        W56204   2.576  21.648  26.166  0.2065  0.0038 -0.0780
13111W        W56205  34.283  20.615  28.056 -0.1780 -0.0745 -0.2281
13112W        W56206   2.763  19.863  25.312 -0.2549 -0.0887 -0.2110
13113W        W56207   2.805  20.808  26.393 -0.1532 -0.2504  0.0115
13114W        W56208   2.759  19.972  26.778 -0.0533 -0.1605  0.0169
13115W        W56209   3.584  20.934  23.411 -0.0737 -0.1843 -0.4110
13116W        W56210   1.454  18.514  25.515  0.1690  0.0035 -0.2552
13117W        W56211   3.170  18.913  28.027  0.1358  0.1078  0.2638
13118W        W56212   1.124  20.297  23.994 -0.0283 -0.2406  0.1623
13119W        W56213   1.126  19.632  24.607 -0.1653 -0.1791 -0.0959
13120W        W56214   3.791  21.058  26.411  0.1684 -0.2766 -0.0938
13121W        W56215   2.333  21.613  24.696 -0.3026 -0.1204  0.0439
13122W        W56216   1.067  21.029  26.128 -0.1343 -0.1946  0.0004
13123W        W56217   1.122  19.940  26.864 -0.0722  0.0170  0.0477
13124W        W56218   2.519  21.870  27.623 -0.0004  0.0961  0.0458
13125W        W56219   0.653  23.551  24.533  0.1185  0.0528  0.0461
13126W        W56220  34.031  20.934  27.064  0.0386  0.1442 -0.1481
13127W        W56221   0.090  21.219  23.959  0.0631  0.0101 -0.1699
13128W        W56222  34.407  19.589  24.698  0.0977 -0.2240  0.1633
13129W        W56223   2.351  20.072  26.469 -0.0972  0.2161 -0.0716
13130W        W56224   2.530  18.646  25.074 -0.0296  0.0942  0.0256
13131W        W56225   0.188  18.038  26.253  0.2120 -0.1770  0.2501
13132W        W56226   1.963  19.227  23.639  0.0372  0.3622 -0.2541
13133W        W56227  34.678  20.172  25.383  0.2497  0.3966  0.3978
13134W        W56228   3.179  22.042  25.158  0.0239 -0.1734  0.1760
13135W        W56229   2.663  20.583  24.403  0.3385  0.1411 -0.0015
13136W        W56230   1.983  21.418  23.823  0.0179  0.1313 -0.1183
13137W        W56231   0.103  19.453  26.103 -0.2792  0.0822 -0.1754
13138W        W56232   0.574  18.421  24.860 -0.2100  0.1170  0.1694
13139W        W56233   0.024  17.923  26.756 -0.0591  0.3551  0.4105
13140W        W56234  33.998  17.832  23.806  0.2463 -0.3505  0.0219
13141W        W56235   2.113  19.061  25.509  0.0515  0.0862 -0.0166
13142W        W56236  34.331  18.484  24.770  0.0024 -0.0251 -0.2815
13143W        W56237   2.010  19.455  25.183 -0.2889 -0.1051  0.1225
13144W        W56238   0.376  20.777  25.068  0.3886  0.0580 -0.0321
13145W        W56239   1.395  21.303  25.680 -0.2602  0.2108  0.0148
13146W        W56240   2.265  18.177  27.296  0.0608 -0.1416 -0.0077
13147W        W56241   1.956  21.015  24.094  0.2167 -0.0872  0.0155
13148W        W56242   3.556  21.839  26.148  0.0631 -0.0532 -0.1861
13149W        W56243   2.796  21.248  26.030 -0.0842 -0.1108 -0.1701
13150W        W56244   0.047  19.244  26.606  0.1747  0.1057  0.4069
13151W        W56245   0.441  18.524  22.163 -0.0036 -0.0793 -0.0712
13152W        W56246   0.324  22.123  25.760  0.0064 -0.2463  0.0711
13153W        W56247   1.462  20.778  25.965 -0.2988  0.0407  0.1026
13154W        W56248   1.970  19.819  24.358 -0.0917 -0.0312 -0.5699
13155W        W56249   4.941  23.217  25.905 -0.0297 -0.0530  0.0028
13156W        W56250   1.056  20.789  25.654 -0.0144 -0.1411 -0.0870
13157W        W56251  33.863  20.584  26.022 -0.1769  0.1316  0.0906
13158W        W56252   1.672  19.978  27.034  0.2413 -0.2123  0.0112
13159W        W56253   4.538  19.855  25.594  0.2105  0.2352  0.1372
13160W        W56254   3.198  20.466  24.590  0.0141 -0.2982  0.3010
13161W        W56255   0.853  18.862  24.799 -0.0380 -0.0903 -0.1849
13162W        W56256   4.313  22.436  24.221  0.0594 -0.0030  0.0126
13163W        W56257   0.264  21.684  24.435  0.1289 -0.1068  0.3566
13164W        W56258   0.710  20.698  26.027  0.2109  0.1297 -0.2719
13165W        W56259   1.586  19.506  24.399 -0.0650 -0.0220  0.0514
13166W        W56260   1.839  18.647  25.801 -0.0000  0.1113 -0.0861
13167W        W56261   0.495  21.435  27.558  0.2104 -0.1489 -0.2725
13168W        W56262   2.319  20.619  26.529 -0.0860  0.0603 -0.0849
13169W        W56263  34.194  20.229  23.917 -0.1213  0.0307 -0.1836
13170W        W56264   0.986  20.439  26.430 -0.0375 -0.2109 -0.2492
13171W        W56265   1.553  18.522  24.217 -0.1764 -0.2189  0.2338
13172W        W56266   3.395  19.297  25.484  0.5105  0.1139 -0.0607
13173W        W56267   1.882  20.893  26.390  0.1166 -0.1621  0.1435
13174W        W56268   4.245  21.148  24.121  0.0743 -0.1192  0.1230
13175W        W56269   0.609  20.419  24.134 -0.1535  0.3133  0.0362
13176W        W56270   0.654  17.966  23.852  0.0450 -0.0547  0.1326
13177W        W56271   1.367  20.852  27.621  0.1529 -0.3680  0.2628
13178W        W56272   0.839  20.561  25.157  0.0366  0.1984  0.0914
13179W        W56273   3.366  21.351  26.157  0.1869  0.1427  0.2274
13180W        W56274   1.977  18.956  24.968  0.1257  0.0716  0.2751
13181W        W56275   4.037  21.990  24.024  0.1129  0.2568 -0.1320
13182W        W56276   0.154  20.671  25.886 -0.0314  0.3485 -0.1313
13183W        W56277   2.080  21.114  27.470  0.0326  0.1586  0.1046
13184W        W56278   1.865  22.261  26.059 -0.0695 -0.1002  0.0623
13185W        W56279   2.952  19.393  28.048  0.2498  0.0096  0.1044
13186W        W56280   0.635  18.982  23.969 -0.1341  0.4475 -0.1535
13187W        W56281   2.484  19.409  25.472 -0.1789 -0.0413  0.0049
13188W        W56282  34.116  22.665  24.152  0.1302  0.2509  0.3390
13189W        W56283   3.481  18.797  27.524 -0.2742 -0.1019 -0.0637
13190W        W56284   2.920  19.519  24.537 -0.1505  0.2262 -0.1719
13191W        W56285   2.027  18.640  26.908  0.1680 -0.1524  0.0053
13192W        W56286   3.737  19.711  27.783 -0.0392 -0.1871  0.3096
13193W        W56287   0.944  20.068  24.363 -0.3600 -0.1517  0.1090
13194W        W56288   1.325  21.345  27.703 -0.1128 -0.0661  0.1361
13195W        W56289   0.989  18.694  22.137 -0.0076 -0.1014  0.1697
13196W        W56290   1.009  18.893  26.477 -0.3841 -0.0738 -0.2526
13197W        W56291   1.155  19.918  26.158  0.1685  0.1980 -0.1805
13198W        W56292   1.122  22.546  27.569  0.1772 -0.2064 -0.0263
13199W        W56293   3.673  21.595  26.597  0.0156  0.1001 -0.0714
13200W        W56294   1.984  20.542  26.078 -0.1250  0.0185  0.2690
13201W        W56295   1.366  19.374  27.983  0.1359 -0.0830  0.0435
13202W        W56296   1.319  19.504  23.657 -0.4680  0.2683  0.2140
13203W        W56297   1.173  21.709  24.791  0.1070 -0.2909  0.0694
13204W        W56298   1.347  19.997  23.525 -0.4141  0.2137  0.1038
13205W        W56299   0.817  16.618  25.748 -0.0180 -0.0138  0.3062
13206W        W56300   0.695  20.044  26.652 -0.0546 -0.3084  0.1572
13207W        W56301   2.867  21.322  23.584 -0.0457 -0.0337  0.2692
13208W        W56302   3.612  21.109  25.432 -0.0286 -0.0069  0.3799
13209W        W56303   1.517  21.997  24.560  0.2975 -0.1502  0.0170
13210W        W56304   1.709  17.734  25.751  0.0206  0.0935 -0.0150
13211W        W56305  33.553  21.597  26.351  0.0595 -0.1065  0.0251
13212W        W56306   0.142  18.824  24.225  0.0242 -0.1540  0.0106
13213W        W56307   0.774  19.338  24.886 -0.0011 -0.0093 -0.0958
13214W        W56308   2.936  19.386  25.181 -0.0918 -0.3342 -0.2245
13215W        W56309   2.793  20.592  24.865  0.0230  0.0295  0.0596
13216W        W56310   0.661  19.041  25.253  0.2118 -0.0676  0.3865
13217W        W56311   1.712  19.027  24.489  0.0989 -0.1874  0.1945
13218W        W56312  32.740  20.084  26.393 -0.1696  0.4902 -0.0250
13219W        W56313   3.456  19.111  26.362 -0.0033  0.0166  0.2152
13220W        W56314   3.405  18.637  24.811 -0.0289 -0.1917 -0.0407
13221W        W56315   2.371  21.502  27.193 -0.1871  0.4003  0.0654
13222W        W56316   2.139  21.082  26.830 -0.0743 -0.0638 -0.2741
13223W        W56317  34.266  19.716  22.871 -0.1720  0.1530  0.1904
13224W        W56318   2.148  19.497  27.463 -0.3085  0.3429  0.0461
13225W        W56319   0.333  19.826  25.589 -0.0045 -0.1785 -0.2036
13226W        W56320   0.686  21.199  25.094  0.0625 -0.2139  0.0771
13227W        W56321   1.961  21.874  26.431 -0.0427  0.1042 -0.1011
13228W        W56322   0.718  20.642  24.654  0.0737  0.0942  0.1443
13229W        W56323   3.972  23.145  25.397  0.3787 -0.1454  0.0707
13230W        W56324  34.596  19.746  28.003 -0.0421 -0.0315 -0.0212
13231W        W56325   4.044  20.072  27.350  0.2040 -0.3791  0.0148
13232W        W56326   1.891  19.371  26.366 -0.1994  0.0220 -0.1234
13233W        W56327   1.172  17.522  24.385 -0.3461  0.2519  0.0113
13234W        W56328   2.095  21.008  25.377  0.0836 -0.0759 -0.2433
13235W        W56329   2.400  22.472  25.883 -0.2513  0.1570 -0.0307
13236W        W56330   2.386  19.886  27.765  0.0654  0.1432 -0.0355
13237W        W56331   1.941  20.075  28.998 -0.2571  0.1677 -0.3409
13238W        W56332   1.334  18.757  26.112 -0.0949  0.0507 -0.2444
13239W        W56333   3.236  21.636  23.799  0.2221 -0.1987 -0.1620
13240W        W56334   3.569  19.306  27.203 -0.2325 -0.1313  0.0355
13241W        W56335   1.103  20.369  25.937  0.2858 -0.0071  0.1852
13242W        W56336   2.044  21.398  26.292 -0.3300  0.1822  0.2266
13243W        W56337   1.108  19.666  25.130  0.1990 -0.1123  0.0574
13244W        W56338   0.532  19.048  26.311  0.0371 -0.0649 -0.0865
13245W        W56339   0.987  21.852  26.746 -0.3285 -0.0544  0.0674
13246W        W56340   0.590  21.808  24.873  0.0447  0.4632 -0.0937
13247W        W56341  34.418  21.643  26.840  0.4535 -0.2396 -0.1064
13248W        W56342   3.578  17.398  25.610 -0.1569  0.3214 -0.0225
13249W        W56343   2.429  21.156  23.771 -0.0016  0.0449  0.0056
13250W        W56344   1.990  19.527  25.757 -0.0728  0.4594  0.1075
13251W        W56345   4.218  19.758  27.012 -0.1603 -0.0700  0.2352
13252W        W56346   1.659  20.729  23.856 -0.1265  0.1291 -0.4310
13253W        W56347   2.244  17.695  27.055  0.1567  0.0320 -0.2937
13254W        W56348   0.197  17.441  26.084  0.2251 -0.1597 -0.0406
13255W        W56349   2.343  21.413  25.173 -0.2280 -0.0359 -0.0122
13256W        W56350   1.001  20.453  27.476 -0.1358 -0.3984  0.3379
13257W        W56351   2.846  23.302  25.689 -0.3014 -0.1402 -0.0674
13258W        W56352   0.728  20.934  26.554  0.2996  0.1785 -0.0021
13259W        W56353   1.627  20.210  23.909  0.1887 -0.0181  0.1728
13260W        W56354   2.026  20.334  25.344  0.0742  0.4029  0.4051
13261W        W56355   0.932  19.432  25.504  0.1824 -0.3688 -0.0486
13262W        W56356   4.113  19.519  25.817  0.0619  0.1392  0.0370
13263W        W56357   1.341  20.537  24.334  0.1619  0.1527  0.1769
13264W        W56358   1.643  19.348  24.882 -0.1850  0.0816  0.1136
13265W        W56359   0.804  19.856  25.704  0.4079 -0.0691 -0.1679
13266W        W56360   3.863  20.894  25.914 -0.1322  0.2593 -0.0480
13267W        W56361  34.408  20.551  24.468  0.0024 -0.0575 -0.0118
13268W        W56362   1.796  20.666  25.608  0.3108  0.0687  0.0615
13269W        W56363  34.430  18.307  26.989  0.0571 -0.0397 -0.1524
13270W        W56364   2.277  19.357  26.988  0.1277  0.1010 -0.2930
13271W        W56365   0.385  17.661  24.803 -0.2524  0.2688 -0.1959
13272W        W56366   3.000  18.248  27.339  0.3199 -0.0635 -0.0750
13273W        W56367   1.990  19.644  26.717 -0.0533  0.0374  0.0879
13274W        W56368   1.422  21.724  26.499 -0.0300 -0.0182  0.2809
13275W        W56369  34.334  18.332  27.510  0.1536  0.0355  0.1662
13276W        W56370   3.591  22.013  27.180 -0.0327  0.0840  0.0601
13277W        W56371   3.345  18.991  23.989  0.0557  0.1748 -0.2571
13278W        W56372   3.202  17.748  27.363 -0.0141  0.0157 -0.3856
13279W        W56373   2.299  19.927  25.569 -0.1317  0.1788 -0.0492
13280W        W56374   2.422  20.239  25.075 -0.3357 -0.2833 -0.2213
13281W        W56375   0.939  20.110  25.324 -0.2422 -0.3340 -0.1536
13282W        W56376   2.770  20.465  26.815 -0.2176  0.0086 -0.4138
13283W        W56377   1.120  19.293  24.153 -0.0060 -0.2569  0.3021
13284W        W56378   4.321  19.919  26.034 -0.3270 -0.0717 -0.0851
13285W        W56379   1.464  22.845  25.816  0.0162 -0.0276  0.1132
13286W        W56380   2.607  20.953  26.832  0.1710  0.1482 -0.2482
13287W        W56381   2.097  19.331  24.603 -0.2999  0.1336  0.2169
13288W        W56382  33.952  19.435  26.676  0.0592  0.0966  0.0075
13289W        W56383   0.112  21.907  27.469 -0.0555 -0.3706  0.2855
13290W        W56384   0.880  18.319  24.199  0.1669 -0.3442  0.5396
13291W        W56385   0.860  21.008  23.446 -0.1767 -0.0840 -0.4318
13292W        W56386   2.216  21.998  24.993 -0.0197 -0.0672  0.1491
13293W        W56387   2.818  20.060  24.669  0.3593 -0.1043  0.1950
13294W        W56388   1.253  19.182  23.255  0.1175 -0.1956 -0.2697
13295W        W56389   3.641  19.710  25.575  0.0020  0.0424  0.2858
13296W        W56390   0.205  22.271  23.836  0.1721 -0.1411 -0.0153
13297W        W56391   1.119  20.231  24.856 -0.3070 -0.2296  0.0631
13298W        W56392   0.270  23.475  27.357 -0.0720 -0.1132  0.2792
13299W        W56393  33.538  20.703  28.395  0.1260  0.0972  0.2412
13300W        W56394   1.038  21.297  26.555  0.3210 -0.0387  0.2830
13301W        W56395   0.641  18.842  25.857  0.0208 -0.2719  0.0616
13302W        W56396   3.187  19.987  25.456  0.0039 -0.0848 -0.0103
13303W        W56397   1.537  19.397  25.469 -0.0964  0.1922  0.3420
13304W        W56398   3.618  19.799  27.044 -0.0511  0.0278 -0.1669
13305W        W56399   2.169  21.895  25.892  0.0992 -0.0135  0.0677
13306W        W56400   0.591  19.807  25.151 -0.0148 -0.0211  0.1743
13307W        W56401   3.478  23.247  26.764  0.1706  0.0814  0.0719
13308W        W56402   2.513  21.042  24.802 -0.3021 -0.0633  0.0569
13309W        W56403   1.428  21.593  25.200 -0.0050 -0.0994 -0.1198
13310W        W56404  34.368  19.193  26.902 -0.0893  0.0481 -0.0298
13311W        W56405   1.752  20.450  27.873  0.4724  0.3044  0.0572
13312W        W56406   2.726  21.706  25.057 -0.2339 -0.1037 -0.1904
13313W        W56407  33.556  19.388  24.469 -0.2389 -0.1342 -0.0845
13314W        W56408   1.812  20.669  25.069  0.1420 -0.1217  0.0897
13315W        W56409   0.528  21.900  27.071  0.3599  0.2192  0.0950
13316W        W56410   1.862  20.025  25.997  0.2163  0.1868  0.1705
13317W        W56411  34.438  22.034  25.221  0.2160 -0.1464  0.3051
13318W        W56412   2.960  20.991  24.550  0.0695  0.2513  0.2014
13319W        W56413   0.624  19.156  24.409 -0.1290  0.0074  0.3647
13320W        W56414   2.604  24.230  26.278 -0.1430  0.2944  0.1410
13321W        W56415   0.239  19.419  24.660  0.0084  0.0901 -0.2785
13322W        W56416   1.112  22.131  26.020  0.0527 -0.1705  0.2320
13323W        W56417  33.942  21.152  23.652  0.2262 -0.3453 -0.0569
13324W        W56418   2.397  21.241  24.271 -0.1023  0.1947 -0.3147
13325W        W56419   0.713  22.037  25.392 -0.2356 -0.0042 -0.2614
13326W        W56420   2.625  20.880  28.268 -0.0403  0.0642 -0.0713
13327W        W56421   3.862  18.997  24.914 -0.0853 -0.2176 -0.1652
13328W        W56422   3.612  20.070  25.156 -0.0822  0.0932 -0.0309
13329W        W56423   2.535  19.228  24.283 -0.0199 -0.6764  0.1414
13330W        W56424   2.733  21.478  25.543 -0.1814 -0.0290  0.0575
13331W        W56425   0.162  18.885  25.492 -0.1600  0.0609 -0.1212
13332W        W56426   0.622  18.354  22.974 -0.0147  0.2746  0.0427
13333W        W56427   1.678  21.019  27.085 -0.1080 -0.0279 -0.0838
13334W        W56428   4.619  19.519  28.038  0.1268 -0.0647 -0.3929
13335W        W56429  34.031  22.702  27.417  0.1959 -0.1858  0.1679
13336W        W56430   2.743  21.586  24.043 -0.2257 -0.5349  0.0087
13337W        W56431  33.411  18.931  24.645 -0.0119 -0.2544  0.1033
13338W        W56432   1.551  20.264  25.718 -0.2616  0.2712 -0.2466
13339W        W56433   3.379  16.394  26.996 -0.0887  0.2000 -0.3274
13340W        W56434   2.454  20.715  25.185 -0.3182 -0.0958 -0.3153
13341W        W56435   1.347  18.034  25.645  0.2149 -0.0148  0.3417
13342W        W56436   0.721  21.280  24.149 -0.1578 -0.2083  0.0298
13343W        W56437   1.076  21.655  26.161  0.1474 -0.1295 -0.1352
13344W        W56438   2.304  21.312  25.796  0.0318  0.0632 -0.1475
13345W        W56439   0.612  18.649  24.449 -0.1037  0.2432  0.2021
13346W        W56440   2.610  19.739  24.120 -0.0206  0.0954  0.1366
13347W        W56441   1.772  19.885  25.484  0.2796 -0.1345  0.0980
13348W        W56442   3.310  19.763  25.985 -0.0516 -0.1988  0.1339
13349W        W56443   0.526  20.309  25.538 -0.0201  0.3782 -0.1062
13350W        W56444   4.155  18.099  24.780  0.3763 -0.0531 -0.1165
13351W        W56445   1.549  20.365  26.254  0.0534 -0.0570 -0.0674
13352W        W56446  34.261  19.435  26.253 -0.1044  0.0543  0.5337
13353W        W56447   0.792  20.468  23.571 -0.3921 -0.1415  0.0130
13354W        W56448   3.991  20.253  27.810  0.1209  0.0112 -0.0091
13355W        W56449   2.260  20.620  24.715 -0.3255 -0.0784 -0.1621
13356W        W56450   3.785  22.929  26.582 -0.1332 -0.1326  0.0789
13357W        W56451  32.971  18.536  25.352  0.2194 -0.2452 -0.1458
13358W        W56452   2.345  18.819  24.448  0.0498 -0.1990 -0.3093
13359W        W56453   0.421  19.621  26.501  0.1840 -0.4474  0.1088
13360W        W56454   2.775  20.035  25.857  0.0746  0.0740  0.0095
13361W        W56455   3.890  23.797  27.593 -0.0654 -0.2422 -0.3207
13362W        W56456  34.096  17.704  22.578  0.1995 -0.3134 -0.1576
13363W        W56457   2.386  22.802  23.698 -0.1236  0.1076 -0.0108
13364W        W56458   4.125  19.982  26.531  0.0727 -0.0370 -0.0602
13365W        W56459   1.525  22.171  23.784  0.1374  0.2334 -0.2671
13366W        W56460   2.242  20.618  25.710 -0.1425  0.0322  0.2089
13367W        W56461   1.590  23.813  26.202  0.0094 -0.0884 -0.0820
13368W        W56462  33.595  19.932  25.928  0.0813  0.0904 -0.0655
13369W        W56463   2.410  22.641  26.362 -0.1979  0.2381 -0.0954
13370W        W56464   2.877  21.170  25.164  0.2589  0.0669 -0.2332
13371W        W56465   0.642  17.566  23.429 -0.2373 -0.0041  0.0883
13372W        W56466  34.510  19.335  25.146  0.0981  0.0542 -0.2047
13373W        W56467  33.461  22.420  24.799  0.1610  0.0944 -0.0952
13374W        W56468   3.668  18.924  25.790 -0.0891  0.1040  0.0368
13375W        W56469   3.575  20.201  25.649  0.2286 -0.2952 -0.1165
13376W        W56470   1.828  21.376  24.449 -0.3202 -0.1158 -0.0177
13377W        W56471   3.345  17.495  27.806 -0.0146  0.0555  0.2340
13378W        W56472   3.040  22.838  27.545 -0.0115  0.0765  0.1557
13379W        W56473   2.503  21.245  26.467 -0.1791  0.1710 -0.3665
13380W        W56474   0.433  21.530  25.454  0.2859 -0.1617 -0.1859
13381W        W56475   0.722  22.252  27.377 -0.2308 -0.0359 -0.1500
13382W        W56476   0.026  19.860  24.993 -0.1959  0.1424 -0.0025
13383W        W56477   1.019  22.400  25.525 -0.0594  0.1142 -0.1392
13384W        W56478   1.671  22.056  25.083  0.0126  0.0336 -0.0101
13385W        W56479   1.992  20.026  24.880  0.0323  0.0476  0.0471
13386W        W56480   3.874  21.045  25.041  0.2348 -0.0602  0.0313
13387W        W56481   1.524  18.757  26.711 -0.1357 -0.3245 -0.0150
13388W        W56482   3.492  18.558  24.256 -0.1471 -0.1482 -0.1479
13389W        W56483   3.537  18.836  25.352 -0.0792  0.4216  0.1588
13390W        W56484   1.377  20.578  27.169  0.2972 -0.1138  0.2132
13391W        W56485   0.836  21.229  25.591 -0.2178  0.0937  0.4048
13392W        W56486   1.795  20.815  24.543 -0.1343  0.1552  0.0219
13393W        W56487   1.321  20.799  26.476  0.2910 -0.1039  0.3931
13394W        W56488   0.780  17.453  26.172  0.0219 -0.0205  0.1784
13395W        W56489   0.518  20.764  27.828  0.3141  0.0999 -0.1615
13396W        W56490   0.485  19.142  26.811  0.2854 -0.2577 -0.2133
13397W        W56491  34.028  19.378  24.387 -0.0068 -0.0580  0.0800
13398W        W56492   3.162  21.459  24.891 -0.0813 -0.1584  0.1890
13399W        W56493   0.597  19.585  26.075 -0.0046 -0.1584 -0.2137
13400W        W56494  34.226  18.214  24.048 -0.0002 -0.0133 -0.0527
13401W        W56495   3.459  20.226  23.211 -0.1766  0.3230  0.2268
13402W        W56496   3.006  20.577  25.925  0.3926  0.1498  0.0051
13403W        W56497   1.443  18.779  24.830 -0.0753  0.0538 -0.1176
13404W        W56498   4.175  20.599  26.890  0.0847  0.0014 -0.2507
13405W        W56499   0.691  21.373  24.643  0.1147 -0.2245  0.0058
13406W        W56500   2.808  20.618  27.299 -0.0191 -0.1354 -0.1536
13407W        W56501   0.919  19.005  27.000 -0.0028 -0.1910  0.1596
13408W        W56502  34.650  20.140  24.573 -0.3310 -0.0008 -0.0180
13409W        W56503   2.270  20.292  26.951  0.1667  0.2477  0.1580
13410W        W56504   1.181  21.825  25.626  0.2815  0.0772 -0.0036
13411W        W56505   2.725  20.694  23.694  0.0355 -0.2693  0.1282
13412W        W56506   2.501  20.426  26.073 -0.0230  0.0584  0.0342
13413W        W56507   1.369  21.860  27.066  0.1891 -0.0147  0.2432
13414W        W56508  33.364  19.123  27.229  0.0373 -0.0323  0.0303
13415W        W56509   2.696  20.239  24.042 -0.0643 -0.0814 -0.1582
13416W        W56510   1.664  21.361  26.693  0.1685 -0.0514 -0.0409
13417W        W56511   4.928  21.407  24.665 -0.0460 -0.4301 -0.0728
13418W        W56512   3.011  18.658  25.655  0.1157 -0.1389  0.0836
13419W        W56513   1.597  19.146  25.893 -0.1126 -0.3516 -0.0377
13420W        W56514   0.600  18.127  25.848 -0.2021 -0.0284 -0.2970
13421W        W56515  34.478  21.093  27.082 -0.0883 -0.0964  0.0649
13422W        W56516   2.672  22.208  25.010 -0.4138  0.0031 -0.0777
13423W        W56517   1.408  17.830  24.829 -0.2266  0.0137  0.1148
13424W        W56518   3.023  18.780  25.143  0.0898 -0.0615 -0.0064
13425W        W56519   2.823  21.053  24.068 -0.0076  0.1093 -0.0140
13426W        W56520   1.248  19.171  25.128 -0.1333  0.1613 -0.1889
13427W        W56521   2.958  20.281  23.529  0.1725  0.0093 -0.1530
13428W        W56522   1.836  20.116  26.524 -0.1705  0.0553 -0.0003
13429W        W56523   2.745  22.094  25.968  0.1808  0.1794 -0.1083
13430W        W56524   3.552  20.066  27.460  0.4341 -0.0667 -0.1918
13431W        W56525   0.506  20.043  23.825 -0.1566  0.0177  0.0332
13432W        W56526   2.643  19.573  23.156  0.1547 -0.0160 -0.0990
13433W        W56527   1.899  21.445  25.402  0.0966 -0.0846 -0.0061
13434W        W56528   3.748  21.410  27.620  0.2261  0.3408  0.4771
13435W        W56529   1.282  22.327  27.084 -0.0849  0.0421 -0.0331
13436W        W56530   3.133  20.264  25.059 -0.1530 -0.2957  0.1370
13437W        W56531   0.031  19.674  26.806  0.1024 -0.0183 -0.0687
13438W        W56532   0.342  20.223  24.902 -0.1860  0.0404  0.1738
13439W        W56533   1.453  21.212  24.729 -0.1865  0.1398 -0.0750
13440W        W56534   2.903  19.596  25.665 -0.0639  0.1570  0.2266
13441W        W56535   1.874  19.083  26.797  0.1601  0.3971  0.0060
13442W        W56536   1.928  19.031  22.659  0.0685 -0.3159 -0.2226
13443W        W56537   1.142  22.841  27.124  0.1549 -0.1849 -0.1940
13444W        W56538   2.371  20.909  26.103 -0.0587 -0.1417  0.1390
13445W        W56539   2.797  20.392  30.087 -0.0081  0.1804  0.1594
13446W        W56540   1.861  20.629  27.418 -0.0176  0.1802 -0.1343
13447W        W56541   2.460  17.663  28.542 -0.0137 -0.0739 -0.0248
13448W        W56542   3.962  20.922  27.778  0.1101 -0.2601 -0.0033
13449W        W56543   0.851  21.574  27.863 -0.4750 -0.1433  0.1577
13450W        W56544   3.075  23.760  28.073 -0.3517 -0.0998  0.0873
13451W        W56545   0.938  17.922  30.459 -0.0619  0.0625  0.3384
13452W        W56546   2.843  21.731  27.975  0.0215 -0.1079  0.0280
13453W        W56547   3.708  22.020  30.623  0.2160 -0.1305 -0.1053
13454W        W56548   3.125  21.996  27.443  0.0660  0.1649  0.1371
13455W        W56549   1.482  17.546  30.041  0.0177  0.0105 -0.1335
13456W        W56550   2.648  20.034  30.353 -0.0666 -0.1089 -0.2830
13457W        W56551   1.829  19.998  27.898  0.2954 -0.2245  0.0203
13458W        W56552   0.534  17.734  28.973  0.1805 -0.3673 -0.0776
13459W        W56553   2.462  19.662  29.654 -0.3618 -0.0269 -0.0662
13460W        W56554   1.298  20.656  28.081 -0.1314  0.1668  0.0510
13461W        W56555   0.873  19.506  30.551 -0.0572 -0.0043 -0.0656
13462W        W56556   2.225  19.858  28.282 -0.0744 -0.0661  0.1962
13463W        W56557   2.801  21.985  26.631 -0.0114 -0.0625 -0.2537
13464W        W56558   1.030  19.924  30.158 -0.0211  0.1866 -0.2056
13465W        W56559   3.794  18.602  30.814  0.0031  0.0636  0.0119
13466W        W56560   3.151  20.820  26.827  0.0064 -0.1802  0.0973
13467W        W56561  33.825  20.860  27.954 -0.1229 -0.2844  0.2236
13468W        W56562  33.751  20.130  30.129  0.2007  0.3512  0.0240
13469W        W56563   1.370  19.693  29.713 -0.1533 -0.0147 -0.0494
13470W        W56564   2.683  19.000  28.972 -0.1030 -0.2381 -0.2538
13471W        W56565   3.058  20.888  28.596  0.3173  0.1059  0.1163
13472W        W56566   2.708  22.285  29.330 -0.4812 -0.1653  0.0718
13473W        W56567   2.172  21.719  28.098 -0.1740 -0.0056 -0.4000
13474W        W56568   3.222  19.205  31.163  0.0869 -0.0071 -0.2243
13475W        W56569   1.807  22.003  27.313  0.0344 -0.3171 -0.2093
13476W        W56570   0.381  21.491  28.646  0.1152  0.1694  0.1696
13477W        W56571   2.058  23.148  27.370 -0.0687 -0.1397 -0.1091
13478W        W56572   3.796  22.165  28.848 -0.1103 -0.0370  0.0784
13479W        W56573   2.909  21.316  31.230 -0.0563 -0.2456  0.2984
13480W        W56574   0.959  22.382  31.833  0.1796  0.1156  0.1555
13481W        W56575   2.030  22.443  26.629  0.3152  0.2125 -0.1487
13482W        W56576   2.843  21.688  30.341 -0.0154 -0.0452 -0.2304
13483W        W56577   1.463  21.679  29.785 -0.1105  0.1823 -0.3263
13484W        W56578   1.961  19.553  28.700  0.2815  0.2161 -0.3101
13485W        W56579   0.742  20.090  28.379  0.0688 -0.0518  0.1448
13486W        W56580   4.157  22.297  27.856 -0.1733 -0.2512 -0.0762
13487W        W56581   1.100  20.715  28.970  0.1703 -0.3641 -0.1395
13488W        W56582   1.785  20.592  31.136 -0.1734 -0.1145  0.1417
13489W        W56583   1.855  21.458  28.458  0.0409 -0.2605  0.0051
13490W        W56584   4.113  19.751  31.878 -0.0742 -0.0802 -0.1882
13491W        W56585   2.763  21.960  27.134  0.0327 -0.1556  0.1188
13492W        W56586   2.338  19.995  28.759 -0.0489 -0.1720  0.0787
13493W        W56587   1.490  19.591  26.033  0.0667 -0.0049  0.3288
13494W        W56588   3.193  20.548  28.236  0.1050  0.0074 -0.3970
13495W        W56589   1.165  18.427  29.206 -0.1650  0.0311 -0.3633
13496W        W56590   2.144  20.994  29.517  0.2652  0.1586 -0.1966
13497W        W56591   0.677  17.298  30.492 -0.5650 -0.2076 -0.1711
13498W        W56592   3.592  20.256  30.050  0.2476 -0.3990  0.1790
13499W        W56593   2.122  20.885  27.892 -0.3412  0.2245  0.0483
13500W        W56594   3.513  18.861  29.511 -0.3955 -0.0400 -0.0176
13501W        W56595   1.355  21.180  29.039 -0.0279  0.0142 -0.2027
13502W        W56596   0.871  20.559  29.444 -0.0112 -0.0320 -0.1061
13503W        W56597   3.419  21.028  27.756 -0.1068  0.3330  0.0751
13504W        W56598   3.035  21.663  29.225  0.0766 -0.0624 -0.0013
13505W        W56599   3.202  22.639  29.461 -0.1061 -0.1840 -0.0146
13506W        W56600   1.330  20.189  28.987 -0.2266  0.2030  0.3833
13507W        W56601   0.385  19.407   0.225 -0.1329  0.1747  0.2060
13508W        W56602  34.401  18.969  29.478  0.0219  0.0915  0.2571
13509W        W56603   1.822  18.665  28.701  0.2135 -0.1422  0.0278
13510W        W56604   3.038  21.223  30.656 -0.0022 -0.1061 -0.1577
13511W        W56605   1.664  20.796  30.318  0.0669  0.0147 -0.3428
13512W        W56606   2.643  18.126  28.757 -0.0635  0.3001  0.0645
13513W        W56607   1.077  19.311  28.989 -0.2747 -0.0774 -0.1159
13514W        W56608   2.562  21.168  29.724 -0.2516 -0.0840  0.3171
13515W        W56609   2.756  19.584  27.032  0.1957 -0.0361  0.0119
13516W        W56610   2.898  19.446  29.102  0.2644 -0.0417 -0.3527
13517W        W56611   3.650  17.757  30.296  0.2150 -0.0157 -0.0603
13518W        W56612   0.965  19.510  26.409 -0.2064  0.1680  0.1564
13519W        W56613   0.392  20.040  28.942 -0.2404  0.0297 -0.2337
13520W        W56614   3.279  20.154  29.205 -0.3054  0.2795 -0.1577
13521W        W56615   2.571  20.281  29.108  0.6867  0.1115  0.0748
13522W        W56616   0.222  22.346  30.039 -0.1827 -0.2474  0.2643
13523W        W56617   1.295  18.124  30.112 -0.0532 -0.2620  0.0263
13524W        W56618   2.239  20.183  31.397 -0.3549 -0.1562  0.2834
13525W        W56619  34.190  21.724  27.275  0.1828 -0.1044 -0.0942
13526W        W56620  34.287  20.810  30.495  0.1103 -0.1640 -0.0137
13527W        W56621   1.688  20.673  28.795  0.0892  0.1429 -0.0189
13528W        W56622  34.415  17.343  31.106  0.1936  0.2803  0.0729
13529W        W56623   1.465  20.149  30.056  0.2686  0.1397 -0.1178
13530W        W56624   4.056  18.180  27.730 -0.3593  0.1107 -0.2478
13531W        W56625  34.454  18.058  29.081  0.3277  0.0365 -0.2805
13532W        W56626   4.015  18.427  28.198  0.4135  0.1780 -0.3750
13533W        W56627   1.997  19.144  30.180  0.0574 -0.0292  0.0126
13534W        W56628   4.001  22.582  29.224 -0.1024 -0.1473  0.2057
13535W        W56629   3.629  21.299  28.573 -0.0346 -0.4076  0.2214
13536W        W56630   3.813  20.431  26.393  0.1189  0.0795  0.0097
13537W        W56631   0.648  19.566  30.115  0.0337  0.1761 -0.0641
13538W        W56632   0.852  18.828  29.358  0.1333 -0.3903 -0.1172
13539W        W56633   0.714  17.859  31.978  0.2401  0.1597 -0.1931
13540W        W56634   0.534  18.319  28.525 -0.3561 -0.1919 -0.2846
13541W        W56635   3.169  19.538  30.803 -0.1188  0.4052 -0.0728
13542W        W56636  34.332  17.715  27.000  0.0555 -0.0046 -0.1776
13543W        W56637   3.431  19.853  29.651  0.0281 -0.0666  0.1366
13544W        W56638   1.282  20.195  27.890  0.2078  0.1370 -0.1803
13545W        W56639  33.766  19.837  28.161  0.1636 -0.1883  0.0182
13546W        W56640   2.985  19.231  30.036  0.0477 -0.3128  0.0984
13547W        W56641   2.472  21.409  27.778 -0.2474  0.1428  0.2827
13548W        W56642   3.972  20.554  31.306 -0.1032  0.0487  0.1636
13549W        W56643   2.461  22.711  29.294  0.0243  0.2404 -0.2607
13550W        W56644   1.563  18.386  29.829  0.0631 -0.2934  0.0559
13551W        W56645   1.610  19.272  29.822 -0.1134 -0.4072 -0.0647
13552W        W56646  34.455  22.701  30.268  0.0483 -0.1352 -0.2342
13553W        W56647   1.905  21.092  29.014  0.4761  0.2117 -0.0785
13554W        W56648   1.628  19.836  28.302 -0.1137 -0.0834  0.1700
13555W        W56649   2.960  21.200  27.819 -0.0262  0.0953 -0.3484
13556W        W56650   2.079  22.768  28.447 -0.2498 -0.3712 -0.1084
13557W        W56651   2.284  19.891  31.921  0.1812  0.0330 -0.0045
13558W        W56652   2.720  17.321  30.492  0.1938  0.0273 -0.2825
13559W        W56653   2.438  19.311  29.276 -0.2618  0.1414 -0.0747
13560W        W56654   2.781  20.740  30.491  0.0721  0.1468 -0.1389
13561W        W56655  34.254  19.018  25.865  0.1792  0.1175  0.0917
13562W        W56656   2.518  22.649  28.753 -0.2350 -0.1497 -0.2551
13563W        W56657   1.818  22.474  28.040 -0.3297 -0.1258  0.0912
13564W        W56658   0.684  20.240  30.307 -0.0177  0.0943 -0.0056
13565W        W56659   1.868  21.034  29.932 -0.0712 -0.1960 -0.0356
13566W        W56660   3.390  18.412  29.290 -0.0826  0.0150 -0.3307
13567W        W56661  34.452  20.157   0.204 -0.3533 -0.2584 -0.1754
13568W        W56662   2.888  18.307  31.035  0.3075 -0.1030 -0.3221
13569W        W56663   0.801  19.013  28.554  0.1919 -0.0756 -0.0925
13570W        W56664   0.714  21.023  31.832  0.0993  0.2559  0.0044
13571W        W56665   2.276  18.114  28.421  0.0873 -0.3673  0.0341
13572W        W56666   2.622  19.158  28.355  0.1421 -0.0224 -0.0085
13573W        W56667   2.569  19.906  31.059  0.2710  0.0990  0.0581
13574W        W56668   3.861  20.537  27.303  0.1202 -0.0825 -0.1667
13575W        W56669   2.660  19.061  26.824  0.0068 -0.2633 -0.0811
13576W        W56670   2.573  18.601  27.155  0.1209 -0.0933 -0.0189
13577W        W56671   1.917  20.492  29.929 -0.1391  0.4569  0.3468
13578W        W56672   2.959  23.038  29.212  0.0864 -0.0940 -0.2906
13579W        W56673   2.787  19.607  31.407  0.0679 -0.2870  0.0974
13580W        W56674   3.059  17.951  26.888 -0.0423  0.0216  0.0861
13581W        W56675   4.358  22.537  28.850  0.3069 -0.1369 -0.0614
13582W        W56676   1.879  22.058  29.936  0.3443  0.2520 -0.1600
13583W        W56677   3.107  20.579  31.816 -0.0568  0.0571  0.5928
13584W        W56678   2.967  22.847  28.467 -0.4113 -0.3908  0.3195
13585W        W56679   2.219  18.569  30.307 -0.2161  0.3678  0.0121
13586W        W56680   0.628  18.020  26.434 -0.0692  0.0126  0.1048
13587W        W56681   1.605  18.273  28.960 -0.2760  0.1931 -0.0977
13588W        W56682  34.273  21.888  28.262  0.2211  0.0088 -0.3034
13589W        W56683   2.181  19.059  28.874 -0.2251 -0.0064 -0.3173
13590W        W56684   2.246  18.833  29.346 -0.0669 -0.3463 -0.2261
13591W        W56685   2.155  18.049  30.459  0.0741  0.0737 -0.3013
13592W        W56686   3.869  19.735  30.909  0.2365 -0.0805 -0.0597
13593W        W56687   3.983  19.966  28.204  0.1384 -0.0328  0.0016
13594W        W56688   2.878  21.133  30.148  0.2900 -0.1012 -0.1093
13595W        W56689   0.961  19.783  28.695 -0.3669 -0.2325 -0.1044
13596W        W56690   2.349  18.494  30.828  0.0289  0.1050 -0.0402
13597W        W56691   1.462  19.395  29.337 -0.0774 -0.1993 -0.2472
13598W        W56692   1.184  21.966  31.966 -0.0865 -0.0123 -0.3038
13599W        W56693   2.206  18.246  29.495 -0.1943  0.1152 -0.0747
13600W        W56694   2.237  21.107  28.479  0.4058  0.1576  0.3637
13601W        W56695   1.355  19.006  30.961 -0.2303  0.3657  0.1636
13602W        W56696   1.343  18.939  29.319  0.0079  0.2406 -0.0991
13603W        W56697   2.536  20.455  27.653 -0.2296 -0.0382 -0.0691
13604W        W56698   1.810  20.506  26.812 -0.0923  0.2441 -0.1202
13605W        W56699   0.803  18.690  27.653  0.0266  0.0960 -0.2472
13606W        W56700   2.988  22.276  27.840  0.1340 -0.1655  0.0577
13607W        W56701   1.843  21.745  26.903  0.0589 -0.0130  0.2776
13608W        W56702   1.195  17.268  29.777  0.1358 -0.0871 -0.1600
13609W        W56703   1.262  21.382  27.072  0.0908  0.1940 -0.1590
13610W        W56704   3.097  18.524  30.377  0.0828  0.1612 -0.0352
13611W        W56705   0.466  20.878  29.559 -0.2130 -0.2850  0.0577
13612W        W56706   3.337  20.641  27.301  0.0267 -0.0635 -0.1393
13613W        W56707   1.316  18.904  28.428 -0.1195  0.0994  0.1287
13614W        W56708   2.710  19.531  27.599 -0.0880  0.1899 -0.0455
13615W        W56709   2.500  20.749  29.327 -0.2325  0.2731  0.1606
13616W        W56710  34.522  18.902  30.141  0.1484 -0.2452  0.1967
13617W        W56711   0.766  18.279  30.776 -0.0113  0.2503  0.0129
13618W        W56712   0.683  21.473  29.605 -0.0326 -0.1202 -0.2945
13619W        W56713   1.935  18.730  29.849  0.3688 -0.0477 -0.0626
13620W        W56714   1.995  19.044  27.296 -0.0938  0.0320  0.2495
13621W        W56715   3.128  20.145  30.389  0.3689  0.0341  0.1157
13622W        W56716   1.590  19.670  30.169  0.1063 -0.1662 -0.0427
13623W        W56717   0.703  19.619  26.975  0.1156 -0.1001  0.1395
13624W        W56718   2.313  20.096  29.910  0.0220 -0.3238  0.0439
13625W        W56719   1.452  19.680  28.802 -0.0237  0.2312 -0.3586
13626W        W56720   1.423  21.257  28.220  0.0480  0.0230 -0.2237
13627W        W56721   2.331  21.337  29.123  0.0637 -0.0533 -0.2028
13628W        W56722   1.778  20.313  28.363  0.3639 -0.0913 -0.4288
13629W        W56723   0.447  20.210  29.829  0.3107  0.2830 -0.3659
13630W        W56724   0.537  17.592  31.310  0.0458  0.0880  0.1846
13631W        W56725   1.511  18.812  30.058  0.1700  0.2254 -0.0661
13632W        W56726   1.227  18.030  28.290  0.1830  0.3309  0.4281
13633W        W56727   1.717  18.450  30.353  0.0840 -0.0438  0.1397
13634W        W56728   2.071  19.640  30.051  0.1193  0.1120 -0.3661
13635W        W56729   1.955  21.286  30.459  0.2446  0.3141 -0.1034
13636W        W56730   2.464  17.622  29.736  0.0570  0.0126  0.2464
13637W        W56731  34.629  20.364  31.664 -0.1299 -0.0958 -0.1192
13638W        W56732   3.314  17.906  29.411  0.0649  0.3880  0.0119
13639W        W56733   3.759  23.172  28.587  0.2036  0.0702  0.1248
13640W        W56734   2.723  19.111  31.140  0.4617  0.2948  0.2262
13641W        W56735   1.708  21.474  27.310  0.1511 -0.2517 -0.3164
13642W        W56736   0.505  20.698  30.085 -0.1358 -0.0878  0.0953
13643W        W56737   1.812  20.859  28.292 -0.1753  0.1176  0.2101
13644W        W56738   2.692  18.191  30.596 -0.1158 -0.0756  0.0637
13645W        W56739   1.894  20.119  30.258 -0.0685 -0.1928 -0.2662
13646W        W56740   1.333  22.344  28.222  0.0372  0.0758 -0.0366
13647W        W56741   1.448  19.912  30.573  0.1665 -0.0317  0.0557
13648W        W56742   2.738  16.541  28.786 -0.0083  0.3057  0.1016
13649W        W56743   2.775  20.258  28.053  0.2172  0.3029  0.3617
13650W        W56744   2.902  18.244  28.287  0.0593  0.2537  0.0658
13651W        W56745   4.313  18.691  29.730  0.1544 -0.0330  0.0682
13652W        W56746   1.623  19.318  28.447 -0.1658  0.1855 -0.0570
13653W        W56747   1.946  17.625  31.330 -0.2057 -0.0117  0.0830
13654W        W56748  33.986  17.938  29.289  0.1871 -0.0109  0.4495
13655W        W56749   3.248  22.143  29.317 -0.2224 -0.5482 -0.2406
13656W        W56750   1.197  17.585  30.719 -0.1186 -0.0148 -0.0464
13657W        W56751   2.315  21.965  29.731  0.3102 -0.1106  0.2412
13658W        W56752   1.057  18.503  29.712 -0.0814  0.2422 -0.0739
13659W        W56753   2.639  18.468  29.198 -0.2155 -0.1341  0.1782
13660W        W56754   0.631  20.215  27.780  0.2333  0.0722 -0.1016
13661W        W56755   0.031  19.390  29.429  0.2312  0.0012  0.0238
13662W        W56756   2.382  20.682  29.851  0.0596  0.1193  0.2965
13663W        W56757   3.224  22.618  28.074  0.0158  0.0565 -0.1866
13664W        W56758   4.205  18.160  29.839 -0.2125  0.1565 -0.2013
13665W        W56759   1.550  19.932  29.334 -0.2644 -0.0079  0.0227
13666W        W56760   1.553  19.677  27.535 -0.1798  0.1164 -0.0759
13667W        W56761   2.119  22.691  27.505 -0.2920  0.0871 -0.0794
13668W        W56762   0.855  21.016  29.857 -0.0317  0.1332 -0.1360
13669W        W56763   0.480  17.260  29.042  0.3105 -0.1038 -0.0981
13670W        W56764   3.416  21.741  28.499  0.1149 -0.1719  0.4119
13671W        W56765   3.187  19.045  28.522  0.1984  0.1417 -0.2733
13672W        W56766   3.729  18.294  28.613 -0.0125  0.3140 -0.0181
13673W        W56767   2.650  19.509  30.751  0.0435 -0.0362  0.2380
13674W        W56768   2.233  19.675  30.539 -0.1512  0.0104  0.0433
13675W        W56769   1.536  17.901  31.568  0.1857 -0.2447  0.0442
13676W        W56770   2.779  20.876  31.518 -0.0594  0.1788 -0.0003
13677W        W56771   4.507  19.529  27.400  0.2309 -0.1096  0.0902
13678W        W56772   3.286  18.195  30.722  0.1069 -0.0569 -0.0147
13679W        W56773   2.740  20.455  28.637  0.0699  0.0445 -0.1053
13680W        W56774   2.444  19.446  28.003 -0.3445  0.0765  0.0749
13681W        W56775  34.111  18.847  29.072  0.2074 -0.2414 -0.0205
13682W        W56776   3.428  19.737  31.243  0.0407 -0.2885  0.0457
13683W        W56777  34.575  19.275  27.771  0.0266 -0.2107 -0.1865
13684W        W56778   2.573  17.760  30.248 -0.0890  0.0467 -0.0170
13685W        W56779   2.366  23.562  27.435  0.0100  0.3421  0.2113
13686W        W56780   3.036  22.477  28.989  0.0444  0.1256  0.1089
13687W        W56781   2.110  20.566  29.053 -0.1906 -0.1071  0.2947
13688W        W56782   0.535  19.573  27.727 -0.1515 -0.0215 -0.0566
13689W        W56783   1.657  21.490  30.803 -0.3583  0.1780 -0.0688
13690W        W56784   1.573  20.241  27.470  0.1920 -0.4856  0.5882
13691W        W56785   2.560  21.025  27.507  0.1453 -0.3342  0.0588
13692W        W56786   2.458  18.574  29.743 -0.0970 -0.0161 -0.2338
13693W        W56787   3.115  20.316  29.675  0.0759  0.1696  0.0295
13694W        W56788   2.409  18.590  28.613  0.3057 -0.0299  0.0712
13695W        W56789   2.626  18.262  30.070 -0.1591  0.2124 -0.1172
13696W        W56790   2.339  22.202  28.175 -0.1026  0.0276  0.0741
13697W        W56791   3.143  18.870  29.145 -0.4341  0.1804  0.2141
13698W        W56792   0.997  21.919  29.712  0.2609  0.3597  0.0944
13699W        W56793  34.265  20.664  29.930  0.1909  0.0768 -0.1705
13700W        W56794   3.625  20.704  26.833 -0.0078 -0.0090 -0.2446
13701W        W56795   1.685  17.962  29.874  0.1197  0.1952 -0.0650
13702W        W56796   3.424  20.580  28.677  0.1267 -0.1505  0.2424
13703W        W56797   3.394  21.318  29.262  0.0102 -0.4213 -0.0441
13704W        W56798   3.661  19.285  30.910  0.1167  0.2037 -0.1288
13705W        W56799   3.123  20.620   0.322  0.0836  0.1982  0.0321
13706W        W56800   1.101  19.757  29.311 -0.0066  0.1712 -0.0405
13707W        W56801   2.798  18.692  30.791 -0.1847 -0.0933  0.1912
13708W        W56802   3.561  20.890  28.217 -0.2390 -0.0696  0.4948
13709W        W56803   1.204  22.255  29.230  0.3238 -0.3108  0.1762
13710W        W56804   0.739  18.461  30.321 -0.1010  0.2257 -0.2175
13711W        W56805   1.753  19.534  30.681 -0.2800  0.3873  0.1745
13712W        W56806   2.786  21.870  29.902  0.0445 -0.1584  0.1182
13713W        W56807   1.618  19.139  28.929  0.2081  0.0836 -0.1184
13714W        W56808   2.364  22.145  26.359  0.4273 -0.0159  0.1368
13715W        W56809   0.660  21.937  31.975  0.0411 -0.1889  0.0694
13716W        W56810  34.628  19.322  29.944  0.2456 -0.2989 -0.0052
13717W        W56811   1.318  21.788  28.178  0.2059  0.0730  0.2516
13718W        W56812   2.857  21.483  27.389 -0.0163 -0.0793 -0.0752
13719W        W56813   2.567  20.880  28.802  0.3320 -0.0045 -0.1153
13720W        W56814   2.596  21.637  29.450 -0.0222  0.0599 -0.1908
13721W        W56815  34.558  18.508  26.334 -0.2055  0.2240  0.1703
13722W        W56816   1.802  21.344  27.897 -0.2157 -0.2805 -0.1279
13723W        W56817   3.043  21.230  26.458 -0.2531  0.2950  0.3002
13724W        W56818   1.799  22.467  27.076 -0.0548  0.1281  0.2756
13725W        W56819   1.273  20.902  28.550 -0.0374  0.2839  0.0506
13726W        W56820   2.433  21.884  30.642 -0.1302  0.0051  0.0637
13727W        W56821   1.828  18.054  27.109  0.0225 -0.2392 -0.2349
13728W        W56822   2.714  19.787  28.327  0.1903  0.0100  0.1575
13729W        W56823   3.634  20.182  28.780 -0.0639 -0.0728 -0.1983
13730W        W56824   2.819  22.761  30.170 -0.1982 -0.0627 -0.1472
13731W        W56825   2.597  19.490  28.735  0.0039  0.1932 -0.0568
13732W        W56826   1.167  20.006  27.354 -0.1602  0.0772 -0.0050
13733W        W56827   2.456  19.066  30.516 -0.0562  0.1161 -0.0174
13734W        W56828   4.237  19.527  31.427  0.0942  0.0584  0.0405
13735W        W56829   0.011  21.147   0.998 -0.0543  0.0024 -0.1163
13736W        W56830   3.424  22.582  25.962 -0.1121  0.0355  0.0935
13737W        W56831   2.507  18.056  26.835  0.1495  0.3266 -0.7350
13738W        W56832   2.166  19.255  29.703  0.3527  0.2559  0.1202
13739W        W56833   4.563  18.639  31.867  0.0361 -0.2146  0.0325
13740W        W56834   1.284  19.822  25.570 -0.1247 -0.2719 -0.1811
13741W        W56835   4.060  19.204  28.973  0.2165  0.3305 -0.1540
13742W        W56836   0.519  21.740  30.320 -0.1244  0.0310 -0.0824
13743W        W56837   2.635  20.298  29.613  0.1737  0.1749 -0.0277
13744W        W56838   1.663  21.356  29.438 -0.0444  0.1944  0.0478
13745W        W56839  34.206  19.103  27.484  0.1105  0.0756 -0.0549
13746W        W56840   3.774  20.116  29.302  0.1408 -0.2139  0.2973
13747W        W56841   1.460  18.948  30.502 -0.2873 -0.1779  0.0567
13748W        W56842   3.909  18.305  30.262 -0.3724  0.3557 -0.1327
13749W        W56843   0.612  19.558  28.201 -0.0682 -0.0818  0.3130
13750W        W56844   3.527  19.773  28.388  0.0324 -0.1562 -0.2586
13751W        W56845   1.305  19.992   0.087 -0.1921 -0.2026  0.1666
13752W        W56846   0.467  19.371  29.700 -0.2506  0.0134  0.1250
13753W        W56847   2.933  19.932  28.868 -0.1592  0.0220 -0.0979
13754W        W56848   3.577  20.462  29.578 -0.0943  0.2053  0.0140
13755W        W56849   3.081  20.276  27.632 -0.2544 -0.0542  0.3617
13756W        W56850   3.768  23.389  30.733  0.1123  0.0720  0.1537
13757W        W56851   0.536  18.762  27.176 -0.0802  0.1644  0.0445
13758W        W56852   2.330  19.836  27.038 -0.0825  0.0656 -0.0167
13759W        W56853   1.198  20.219  29.525  0.1452  0.0937  0.0882
13760W        W56854   0.921  19.249  31.127  0.1121  0.0703  0.3602
13761W        W56855   3.527  21.124  30.722  0.1033  0.0144  0.1118
13762W        W56856   0.592  19.203  27.402 -0.0782  0.0020  0.0709
13763W        W56857   3.679  21.036  27.290  0.1833 -0.1942  0.0848
13764W        W56858   3.733  20.738  29.950 -0.0344 -0.0098 -0.2392
13765W        W56859   2.254  22.826  26.910  0.0238 -0.0244  0.2000
13766W        W56860   3.583  20.507  27.776 -0.0952  0.2566 -0.0025
13767W        W56861   3.681  22.378  27.845 -0.1884  0.0442 -0.1330
13768W        W56862  34.447  18.389  30.891 -0.0345 -0.0834 -0.2421
13769W        W56863   3.023  23.167  30.608  0.0472 -0.2379 -0.2097
13770W        W56864   3.444  21.709  29.676 -0.2262 -0.1754 -0.1818
13771W        W56865   1.473  18.486  28.177  0.0564  0.1763  0.0550
13772W        W56866   1.451  20.636  29.867  0.3507 -0.0205 -0.0900
13773W        W56867  34.688  21.272  27.690 -0.1048 -0.1674  0.1762
13774W        W56868   2.107  18.458  29.064  0.1982  0.2016  0.1401
13775W        W56869   3.009  19.105  30.552 -0.4406  0.0810  0.2289
13776W        W56870   3.135  22.165  26.261  0.1056 -0.0264 -0.0918
13777W        W56871   3.148  18.173  31.474  0.0561  0.0777 -0.1986
13778W        W56872   1.495  21.364  30.288 -0.1539  0.0624  0.1313
13779W        W56873   2.779  19.941  31.758 -0.1784  0.0080 -0.2568
13780W        W56874   0.830  21.007  28.679  0.0041 -0.0201 -0.1795
13781W        W56875   2.230  19.262  30.971  0.2852  0.0576  0.0765
13782W        W56876   3.506  22.901  27.639 -0.1133  0.1649 -0.2720
13783W        W56877   1.312  21.762  29.081 -0.3351 -0.2369  0.1682
13784W        W56878   3.276  21.955  30.142 -0.1881 -0.4252 -0.1352
13785W        W56879   2.855  19.910  29.430 -0.0903 -0.2974 -0.1420
13786W        W56880   2.947  21.842  28.438 -0.0418 -0.2629 -0.1800
13787W        W56881   0.986  19.288  29.654 -0.1136  0.1915 -0.2097
13788W        W56882   3.033  18.436  27.827 -0.0082 -0.1408 -0.0104
13789W        W56883   3.118  19.512  28.584 -0.1378  0.1688 -0.1178
13790W        W56884   2.281  20.485  30.262 -0.0039  0.2149 -0.0696
13791W        W56885  34.035  21.244  27.503 -0.0258 -0.1695  0.0616
13792W        W56886   1.238  20.237  28.459  0.3170  0.1523 -0.1702
13793W        W56887   1.151  20.852  30.314 -0.2175  0.0745 -0.0187
13794W        W56888   2.972  17.747  30.924  0.1177  0.2377 -0.2427
13795W        W56889   1.787  20.232  31.903 -0.4321 -0.1213 -0.2489
13796W        W56890   0.900  21.442  28.405  0.1616  0.1826 -0.0730
13797W        W56891   0.781  19.206  27.893  0.2148 -0.1250  0.0053
13798W        W56892   4.083  22.121  27.385  0.0422 -0.1933 -0.0518
13799W        W56893  33.485  18.117  28.576 -0.0073 -0.1645 -0.1878
13800W        W56894   0.297  18.765  27.680  0.1949  0.0856  0.1637
13801W        W56895   2.862  20.747  29.729 -0.1954  0.4120  0.2187
13802W        W56896   2.864  22.377  28.510  0.0419  0.0954  0.1325
13803W        W56897   1.206  18.398  28.638  0.1940 -0.1765  0.0476
13804W        W56898   2.817  21.640  30.895 -0.0764 -0.0598  0.3518
13805W        W56899   0.929  21.026  27.917 -0.1648  0.0763  0.0446
13806W        W56900   2.062  18.639  31.227  0.1129 -0.1882  0.0135
13807W        W56901   2.002  17.578  30.003  0.1213 -0.0561  0.1365
13808W        W56902   0.446  19.309  25.664  0.0891  0.0864  0.1067
13809W        W56903   2.193  18.036  29.948 -0.0782  0.0097  0.0487
13810W        W56904   2.105  22.101  27.780  0.0292  0.0527 -0.1665
13811W        W56905   3.087  21.714  26.366  0.0468 -0.1990 -0.0724
13812W        W56906   2.749  20.310  30.743  0.3113  0.0481  0.0883
13813W        W56907   2.006  21.054  30.902  0.2155  0.1649 -0.3058
13814W        W56908  34.417  17.707  30.410  0.2638 -0.0136  0.4077
13815W        W56909   3.399  22.477  27.389  0.0778 -0.2002  0.1973
13816W        W56910   1.811  19.959  30.957 -0.0173 -0.6934 -0.0116
13817W        W56911   2.244  19.036  27.881  0.1827 -0.3110  0.1850
13818W        W56912   3.205  18.486  29.919 -0.0398  0.5294 -0.0111
13819W        W56913   1.945  19.647  29.384  0.1689  0.2854 -0.1458
13820W        W56914   1.184  17.243  30.359 -0.1700 -0.0927 -0.3762
13821W        W56915   0.320  18.656  29.244  0.0151  0.1276 -0.1370
13822W        W56916   3.644  19.787  30.116 -0.0163 -0.0946  0.0725
13823W        W56917   1.869  19.133  29.320 -0.0929  0.1828  0.1579
13824W        W56918   3.235  19.305  27.635  0.0468 -0.0502  0.0608
13825W        W56919   1.583  22.911  27.361  0.1051 -0.0383 -0.0334
13826W        W56920   0.201  19.165  28.540 -0.1012 -0.3112  0.0012
13827W        W56921   1.700  18.582  29.384  0.2232 -0.2975  0.0690
13828W        W56922   1.142  19.376  30.137  0.3514  0.1405 -0.2078
13829W        W56923   2.152  20.296  29.473 -0.0152 -0.1095  0.1737
13830W        W56924   2.757  20.388  31.265  0.1753  0.1738 -0.0068
13831W        W56925   2.440  19.808  29.206 -0.2368 -0.1288  0.0204
13832W        W56926   2.130  20.598  28.559  0.2027 -0.0883 -0.2118
13833W        W56927   2.745  22.014  28.918  0.2340 -0.0439  0.1400
13834W        W56928   4.681  21.928  31.601  0.3528 -0.1980  0.0987
13835W        W56929   1.672  20.418  29.281 -0.1071 -0.0703  0.1447
13836W        W56930   2.084  22.286  30.567  0.2930 -0.1522  0.1625
13837W        W56931   0.027  17.593  29.928 -0.2167  0.0615 -0.1284
13838W        W56932   2.670  21.513  28.841 -0.0328 -0.4360  0.3998
13839W        W56933   3.089  21.046  27.353  0.2312 -0.2364 -0.0349
13840W        W56934   2.950  18.208  29.521  0.2296 -0.0760 -0.1846
13841W        W56935   0.982  17.646  30.068  0.0846  0.1150  0.1377
13842W        W56936   1.320  19.426  26.869 -0.0264 -0.0399  0.0579
13843W        W56937   1.897  20.466  30.666 -0.0031 -0.0385  0.3829
13844W        W56938   2.495  19.387  30.123  0.0960  0.1397  0.0191
13845W        W56939   4.202  17.187  30.239 -0.2184  0.1655 -0.1137
13846W        W56940   1.204  21.054  31.629 -0.2567 -0.2605  0.0356
13847W        W56941   1.225  18.513  30.455  0.3314 -0.0974  0.0021
13848W        W56942   1.028  21.473  31.885  0.0429 -0.2375 -0.1970
13849W        W56943   0.878  21.224   0.321 -0.0121 -0.2205  0.3782
13850W        W56944   2.254  20.932  31.794 -0.0888 -0.1160  0.1015
13851W        W56945   2.014  18.025  30.938 -0.2643 -0.2410 -0.3951
13852W        W56946   2.698  18.818  30.110  0.3588  0.0226 -0.0919
13853W        W56947   2.432  18.071  31.209 -0.1636 -0.0539  0.1357
13854W        W56948   4.608  21.341  31.621  0.1633  0.2106  0.3835
13855W        W56949   2.219  21.589  31.864  0.0878 -0.0073 -0.2151
13856W        W56950   0.944  18.350   0.450  0.0404 -0.0744  0.1598
13857W        W56951   2.864  20.832  31.016  0.1364  0.1162  0.0318
13858W        W56952   2.244  19.536   0.922 -0.1045  0.2028  0.0866
13859W        W56953   3.537  19.937  30.615  0.2550  0.0099  0.0792
13860W        W56954  33.966  20.624  30.900 -0.0915 -0.0677  0.0032
13861W        W56955   1.441  20.483   0.248 -0.0278  0.0593  0.3998
13862W        W56956   3.197  20.614  30.754 -0.1381  0.1274  0.2407
13863W        W56957   0.606  16.858   0.143  0.3907 -0.0849  0.0979
13864W        W56958   1.681  17.364  31.785 -0.0509 -0.1676  0.0314
13865W        W56959   0.924  19.455  31.583  0.1188  0.3059  0.0107
13866W        W56960   0.534  21.444   0.029 -0.1713  0.0187  0.1593
13867W        W56961   2.442  18.487   0.327 -0.1298  0.0153 -0.1873
13868W        W56962   1.200  18.437  31.096 -0.0234  0.2554  0.2664
13869W        W56963   1.708  17.742  28.974 -0.0544 -0.1206 -0.2046
13870W        W56964   3.853  18.015  30.771 -0.2170 -0.0971 -0.0827
13871W        W56965   2.232  18.903   0.342 -0.4483 -0.1236  0.2921
13872W        W56966   0.256  21.761  31.506  0.0215  0.0777 -0.1172
13873W        W56967   1.664  19.024   0.015  0.1311  0.1639 -0.1771
13874W        W56968   1.536  19.917   1.081  0.1640  0.0726 -0.3793
13875W        W56969   1.838  20.697  31.605  0.1951  0.4307 -0.0423
13876W        W56970   2.280  16.725  31.467 -0.0036  0.2782 -0.0548
13877W        W56971   3.650  20.340  31.590 -0.0212  0.1585  0.1245
13878W        W56972   2.071  18.216  31.643  0.1492  0.2796  0.3779
13879W        W56973   1.922  19.002  30.668  0.0400  0.4025  0.0263
13880W        W56974   1.292  21.032   0.169 -0.0831  0.0303  0.1166
13881W        W56975   0.185  20.533   0.159 -0.2598  0.1696  0.0400
13882W        W56976   2.646  19.138  29.705  0.0657  0.2598 -0.0498
13883W        W56977   2.252  19.624  31.375  0.0033  0.2045  0.2895
13884W        W56978   2.177  18.136   0.144  0.1357  0.0312 -0.2321
13885W        W56979   3.386  18.900  30.751  0.1116  0.0788  0.0756
13886W        W56980   3.466  18.981   0.302  0.0982  0.1679  0.1550
13887W        W56981   1.709  17.515  30.821 -0.2148  0.0283 -0.1549
13888W        W56982   2.581  21.112   1.122 -0.3086 -0.0366  0.1583
13889W        W56983   0.710  18.425  31.253 -0.1740 -0.0849  0.2457
13890W        W56984   1.599  19.527  31.233 -0.0467  0.1071 -0.2784
13891W        W56985   0.932  17.820  31.088 -0.1152  0.3071 -0.0352
13892W        W56986   2.634  20.200   0.168  0.3264 -0.2661  0.1355
13893W        W56987   3.179  20.380   1.030  0.1193  0.2935  0.2352
13894W        W56988   1.214  19.832  31.212 -0.0051 -0.0649 -0.0865
13895W        W56989   3.546  20.350   0.108 -0.1720 -0.0916 -0.3684
13896W        W56990   4.051  19.545  30.450  0.1062  0.0532 -0.3042
13897W        W56991   1.918  17.235   0.225  0.1245  0.0789  0.2061
13898W        W56992   2.213  20.457  31.854  0.0651  0.1418  0.3798
13899W        W56993   2.564  17.979   0.560  0.1958 -0.3113 -0.3040
13900W        W56994   1.767  19.722   0.056  0.0965 -0.3520 -0.0570
13901W        W56995   2.826  19.910  29.938  0.1454  0.1630 -0.3233
13902W        W56996   1.892  21.558  29.975  0.3208 -0.0116 -0.1271
13903W        W56997   2.347  20.725  31.342  0.1153 -0.2151 -0.0179
13904W        W56998   2.809  19.727   0.295  0.2335 -0.0017  0.0166
13905W        W56999   1.206  18.956   0.583 -0.2043  0.0247 -0.1730
13906W        W57000   0.838  21.721   0.417  0.1601 -0.0506 -0.0955
13907W        W57001   0.635  19.807  31.049 -0.0411 -0.3140  0.1579
13908W        W57002   1.317  18.659   0.182 -0.2379 -0.0640  0.2569
13909W        W57003   3.415  21.413  31.086  0.0394 -0.4353  0.2155
13910W        W57004   4.648  19.338  31.348 -0.0615  0.0655 -0.1139
13911W        W57005   3.836  21.165  31.235  0.0031 -0.2983  0.3525
13912W        W57006   0.309  25.058  19.149 -0.0428  0.1994 -0.1066
13913W        W57007  33.803  24.021  17.787  0.2728 -0.2483  0.1231
13914W        W57008   1.683  24.026  16.354 -0.0913  0.0806  0.1328
13915W        W57009   3.865  22.068  16.149 -0.2973 -0.0810 -0.0822
13916W        W57010   0.537  23.399  18.320 -0.1647 -0.3990  0.4757
13917W        W57011   2.451  25.390  17.382  0.1621  0.2714 -0.1432
13918W        W57012  34.418  22.143  19.763 -0.1139 -0.1154 -0.1198
13919W        W57013   2.277  24.237  18.038 -0.2156  0.0764  0.0563
13920W        W57014   3.610  25.718  20.027 -0.0312  0.0979 -0.0396
13921W        W57015   2.850  23.896  15.851 -0.0849  0.1970 -0.1986
13922W        W57016   0.253  23.582  20.438 -0.0970  0.1375 -0.2856
13923W        W57017   1.885  26.091  19.234 -0.2912 -0.1528 -0.1710
13924W        W57018   0.828  22.228  17.715 -0.0620 -0.2156 -0.0925
13925W        W57019  34.244  22.658  19.284 -0.0639 -0.2917 -0.1045
13926W        W57020   1.492  24.347  18.482 -0.2846 -0.0167 -0.1350
13927W        W57021   0.575  24.731  16.729  0.2119 -0.1145 -0.0213
13928W        W57022  34.095  22.796  18.780 -0.2371 -0.0291 -0.0912
13929W        W57023   1.656  23.644  18.040 -0.0281  0.1509  0.0309
13930W        W57024   2.738  24.431  18.227 -0.1169 -0.1095  0.1460
13931W        W57025   0.352  22.768  19.091  0.4292  0.1349 -0.0846
13932W        W57026   1.201  22.416  18.991  0.0080  0.0204  0.2016
13933W        W57027   2.498  25.069  16.558 -0.1824  0.0062  0.0074
13934W        W57028   0.040  23.155  16.330 -0.0648 -0.1808 -0.1555
13935W        W57029  32.784  22.951  18.394 -0.1951  0.1573  0.0585
13936W        W57030  34.678  23.180  20.022  0.1023 -0.4470  0.1877
13937W        W57031   3.493  22.811  18.794  0.0072 -0.1176  0.0791
13938W        W57032   3.067  23.114  17.315  0.0187 -0.4473 -0.1714
13939W        W57033   0.979  25.571  18.473 -0.0062  0.0295 -0.0108
13940W        W57034   1.265  25.795  18.789  0.1898  0.0268  0.3883
13941W        W57035   2.570  22.216  18.348  0.1640 -0.0854 -0.2467
13942W        W57036   0.040  24.965  19.612 -0.1047 -0.0037  0.3886
13943W        W57037   0.620  25.762  18.091 -0.1426  0.0825 -0.0571
13944W        W57038   2.030  24.837  16.383 -0.0621  0.1902  0.2167
13945W        W57039   3.018  25.835  17.895  0.2151  0.1178 -0.0017
13946W        W57040   3.141  25.640  19.705  0.0525  0.1844  0.2080
13947W        W57041   1.510  26.807  20.663  0.4424  0.0181 -0.1255
13948W        W57042  33.903  25.090  15.955  0.3568  0.1237 -0.0067
13949W        W57043   1.003  24.611  20.741 -0.0718 -0.3695 -0.3155
13950W        W57044   1.989  24.560  18.715 -0.1837 -0.0048  0.1435
13951W        W57045   0.646  24.228  18.772  0.2185 -0.2104  0.0565
13952W        W57046   2.554  23.892  17.303  0.0442 -0.0933  0.1681
13953W        W57047   2.292  25.241  16.117 -0.0371  0.2378  0.2740
13954W        W57048   2.014  22.547  18.820  0.1501 -0.2480  0.0614
13955W        W57049   0.430  23.172  20.218  0.1793 -0.0195  0.1945
13956W        W57050   0.662  24.663  18.506  0.0273 -0.1291  0.0804
13957W        W57051   2.977  22.139  18.667  0.1584  0.0589  0.3143
13958W        W57052   1.494  26.625  17.691 -0.4598  0.1262  0.2147
13959W        W57053   2.733  23.265  16.575 -0.0509 -0.3149 -0.0500
13960W        W57054   1.819  23.329  17.374 -0.2171  0.2000  0.0112
13961W        W57055   2.937  22.995  16.182  0.0458  0.2186  0.0127
13962W        W57056   0.545  21.824  17.763 -0.1416 -0.1056 -0.0651
13963W        W57057   1.061  25.088  18.567  0.0079  0.0364  0.2403
13964W        W57058   1.008  23.076  18.957  0.0051  0.2200  0.0047
13965W        W57059   2.637  24.400  20.178  0.0604 -0.0496 -0.3223
13966W        W57060   2.277  23.599  16.778  0.0719  0.3016  0.0364
13967W        W57061   2.286  23.477  17.275 -0.0198  0.2236 -0.0157
13968W        W57062   1.665  24.059  19.318  0.3746  0.0275 -0.3123
13969W        W57063   0.800  23.709  18.608  0.2772  0.2853  0.1018
13970W        W57064   2.841  26.399  16.157  0.0684  0.1138  0.0681
13971W        W57065   3.182  25.751  17.009  0.2264 -0.0355  0.0683
13972W        W57066   2.006  25.290  17.173 -0.3612  0.2066 -0.3016
13973W        W57067   0.194  23.679  18.003  0.0004  0.3223  0.0114
13974W        W57068   1.261  24.174  18.956  0.1321 -0.0689  0.2815
13975W        W57069  34.390  22.681  20.618  0.1158 -0.1131 -0.0838
13976W        W57070   0.796  22.841  17.122 -0.3607  0.3008  0.1437
13977W        W57071   3.521  24.012  17.795 -0.4272  0.1757 -0.1849
13978W        W57072   0.152  24.682  20.325  0.0696  0.0266  0.1413
13979W        W57073   2.954  21.909  16.982  0.1460  0.1844  0.1999
13980W        W57074   0.176  24.172  17.872 -0.1251  0.2718 -0.0619
13981W        W57075   3.224  24.479  18.411  0.1496 -0.2260  0.1387
13982W        W57076   1.968  23.981  15.486 -0.1538 -0.2281  0.1953
13983W        W57077   2.311  23.266  18.537  0.0014  0.0660 -0.1425
13984W        W57078   3.778  22.386  17.958 -0.0874  0.2202 -0.2500
13985W        W57079   0.554  23.905  17.164  0.0168  0.1752  0.1150
13986W        W57080   1.814  23.479  16.470 -0.2217  0.1413  0.1762
13987W        W57081   2.942  25.696  19.182 -0.2771 -0.0608 -0.1369
13988W        W57082   3.235  24.916  15.883  0.0680  0.0142 -0.1960
13989W        W57083   0.796  24.361  19.238 -0.3671  0.3004  0.1908
13990W        W57084   1.477  23.210  18.699 -0.2056 -0.0907 -0.0698
13991W        W57085   1.760  23.860  19.984  0.0626 -0.1936 -0.0709
13992W        W57086   0.059  25.600  16.725 -0.1770  0.4434  0.0410
13993W        W57087  34.566  23.637  19.871  0.1754  0.2363  0.1779
13994W        W57088   1.326  23.997  16.791 -0.1943  0.2612 -0.4432
13995W        W57089  34.419  22.553  18.445 -0.1661 -0.3747 -0.0424
13996W        W57090   2.109  24.522  19.364 -0.1291  0.2313  0.0304
13997W        W57091   1.939  23.157  18.884 -0.3231 -0.2943  0.0142
13998W        W57092   0.792  21.604  20.402  0.5028  0.0607 -0.2500
13999W        W57093   2.599  22.285  16.666 -0.3583 -0.0877 -0.3589
14000W        W57094   0.430  24.457  16.309  0.1507  0.4130 -0.0277
14001W        W57095   1.945  25.011  17.574  0.0615 -0.1668  0.1227
14002W        W57096   4.167  23.499  18.220  0.3433 -0.1335  0.0409
14003W        W57097   3.562  24.631  16.245 -0.0243 -0.2191  0.1656
14004W        W57098  33.759  22.719  19.109  0.0002  0.3789 -0.2139
14005W        W57099   0.637  22.062  17.223 -0.2160  0.0778 -0.0727
14006W        W57100   0.943  22.217  19.804  0.0421 -0.4457 -0.1547
14007W        W57101  33.018  23.516  18.085 -0.0607  0.0751  0.1199
14008W        W57102   2.924  23.392  19.549  0.2005  0.1966  0.0455
14009W        W57103  34.496  22.432  17.259  0.1413 -0.0984  0.0340
14010W        W57104   1.472  21.505  17.981 -0.6873 -0.2887  0.1756
14011W        W57105   1.801  23.239  17.886  0.1755  0.0678  0.2612
14012W        W57106  34.311  23.819  17.789 -0.0746  0.0795 -0.0130
14013W        W57107   3.262  22.265  17.184 -0.0260  0.3396 -0.0965
14014W        W57108   2.185  24.508  16.779  0.1571 -0.0322 -0.0785
14015W        W57109   2.045  24.337  20.790  0.2695 -0.1972  0.2913
14016W        W57110   3.247  26.098  19.095 -0.0009  0.0839  0.0218
14017W        W57111   0.003  22.392  19.402 -0.3094 -0.1186  0.2355
14018W        W57112   1.227  23.113  17.148 -0.2312  0.1259 -0.0072
14019W        W57113   0.597  26.511  16.473  0.1737  0.3950 -0.3963
14020W        W57114   2.122  24.100  17.130 -0.0428 -0.0244 -0.1326
14021W        W57115   0.959  23.530  17.173  0.1616 -0.2462  0.2219
14022W        W57116   2.753  25.525  18.713  0.0887  0.0670 -0.0592
14023W        W57117   2.125  24.022  16.571  0.0265 -0.0874 -0.2064
14024W        W57118   0.184  23.702  19.348  0.1427 -0.1005 -0.0532
14025W        W57119   3.607  21.735  18.752 -0.0107  0.4482 -0.0725
14026W        W57120   1.725  23.563  19.039  0.1667  0.0735 -0.0041
14027W        W57121   2.243  23.099  18.107  0.1472 -0.0166 -0.1311
14028W        W57122   0.723  22.242  16.739  0.1158 -0.0482 -0.0694
14029W        W57123   1.726  25.584  19.055 -0.1813 -0.0831  0.1972
14030W        W57124   0.615  25.279  16.955  0.2296 -0.3466  0.1844
14031W        W57125  34.204  24.765  18.325  0.2331 -0.3063  0.3526
14032W        W57126   2.345  24.959  16.994  0.1155  0.0599 -0.0663
14033W        W57127   3.644  23.789  17.366 -0.1640  0.1206 -0.1180
14034W        W57128  33.632  25.740  18.994 -0.0629  0.0078 -0.0750
14035W        W57129   2.616  23.766  20.353  0.1839  0.3174 -0.2847
14036W        W57130   0.205  22.321  16.539  0.0662 -0.0236  0.0266
14037W        W57131  34.564  25.484  19.823 -0.0886 -0.0708  0.2733
14038W        W57132   1.080  22.691  17.606  0.0328 -0.0173  0.1985
14039W        W57133   2.793  22.142  16.249 -0.0770 -0.0227 -0.1844
14040W        W57134   2.090  23.080  19.924 -0.1727 -0.1419 -0.0255
14041W        W57135   3.715  24.310  17.013  0.2649 -0.3919 -0.1249
14042W        W57136   2.302  23.419  16.334  0.0539  0.0009 -0.2016
14043W        W57137   2.080  22.937  17.119 -0.2986 -0.2508  0.2229
14044W        W57138   1.413  24.588  20.165  0.1251  0.1384  0.3082
14045W        W57139   1.865  24.376  17.737  0.2217 -0.1240  0.5497
14046W        W57140  34.143  23.382  20.055 -0.3468 -0.2783 -0.2283
14047W        W57141   1.169  22.647  16.825  0.0933 -0.0724  0.0555
14048W        W57142   3.783  26.123  17.213 -0.0403  0.0596  0.1433
14049W        W57143  34.545  24.269  18.853 -0.0552 -0.1970  0.1627
14050W        W57144   0.151  25.512  19.392 -0.1053  0.1161 -0.1764
14051W        W57145   2.690  25.544  16.955  0.1512 -0.2613 -0.1402
14052W        W57146   1.786  22.679  17.972 -0.0351 -0.2256 -0.0829
14053W        W57147   0.863  24.304  16.136  0.1084 -0.3249  0.0877
14054W        W57148   1.408  23.269  18.210 -0.0366  0.1643 -0.1691
14055W        W57149   0.075  25.317  16.142  0.0771  0.0906 -0.0482
14056W        W57150   2.272  21.950  18.047  0.5624  0.1232 -0.0437
14057W        W57151   2.671  23.543  18.584  0.1801  0.0589 -0.2280
14058W        W57152   1.313  22.845  18.058  0.0668  0.0203 -0.1267
14059W        W57153   4.594  23.255  18.688 -0.0891 -0.1142  0.4762
14060W        W57154   4.065  23.210  16.876  0.0394  0.2488  0.0084
14061W        W57155   0.739  23.568  19.456  0.0976  0.2567 -0.4541
14062W        W57156   0.091  23.693  16.508  0.2102 -0.2320 -0.0652
14063W        W57157   2.790  22.958  19.756 -0.4290  0.0737  0.0081
14064W        W57158  34.069  22.545  19.772 -0.0864  0.0378  0.2664
14065W        W57159  34.404  24.100  19.345 -0.1631 -0.0037 -0.0843
14066W        W57160   1.761  24.997  19.000 -0.2615  0.1588 -0.2235
14067W        W57161   1.475  24.132  18.073 -0.2458 -0.1674  0.1793
14068W        W57162   3.070  22.594  19.012 -0.1939  0.0016  0.0064
14069W        W57163   0.152  22.820  17.962  0.2541 -0.0673  0.0811
14070W        W57164   0.828  25.156  16.498  0.1432  0.2059 -0.0788
14071W        W57165   1.930  24.378  16.207 -0.0700  0.0010 -0.1117
14072W        W57166   0.173  23.247  18.932 -0.1663  0.0713  0.4107
14073W        W57167   2.303  24.810  17.895  0.2224 -0.0863  0.0784
14074W        W57168   3.236  24.330  15.962  0.3450 -0.0403  0.2076
14075W        W57169   0.608  25.658  19.418 -0.1432  0.4218  0.1536
14076W        W57170   0.642  24.956  17.436  0.1516  0.0775 -0.0742
14077W        W57171   3.050  21.736  18.368  0.1355  0.4228 -0.0186
14078W        W57172   0.486  25.104  18.662 -0.2355  0.0504 -0.1003
14079W        W57173   1.349  23.488  16.708 -0.0388  0.0263  0.2920
14080W        W57174   0.135  23.616  17.025 -0.2250 -0.1876 -0.2085
14081W        W57175   2.594  23.926  17.782 -0.1896  0.0457 -0.3680
14082W        W57176   3.986  24.167  16.474  0.1154  0.2191 -0.0747
14083W        W57177   0.537  23.007  18.663  0.2799  0.1299  0.4122
14084W        W57178   1.367  22.396  17.867 -0.1334  0.1404 -0.2966
14085W        W57179  33.270  24.149  18.009 -0.3951  0.1282 -0.0506
14086W        W57180   0.733  24.350  18.014 -0.0935 -0.1405  0.0865
14087W        W57181   2.571  23.838  16.371 -0.1579 -0.0341 -0.0122
14088W        W57182   3.349  24.535  16.708  0.2177  0.3215  0.1468
14089W        W57183   2.139  23.707  19.295  0.3199 -0.1585 -0.1010
14090W        W57184   1.337  23.124  16.034 -0.1212  0.1875 -0.2570
14091W        W57185   2.177  23.725  18.735  0.0066 -0.0900  0.2501
14092W        W57186  34.592  23.026  18.457  0.0455  0.0242 -0.2263
14093W        W57187   0.320  23.199  17.587 -0.0316  0.0882 -0.1558
14094W        W57188   3.101  24.316  17.084  0.2756 -0.1465 -0.0001
14095W        W57189   1.388  23.182  17.654  0.2614 -0.0686  0.2790
14096W        W57190   0.538  24.814  17.922 -0.3115 -0.1418 -0.0302
14097W        W57191   0.641  22.526  19.435  0.1571 -0.0645  0.1856
14098W        W57192   1.539  24.829  18.541 -0.1175 -0.0696 -0.1096
14099W        W57193   1.836  23.456  18.437  0.0615 -0.3862  0.0470
14100W        W57194   0.692  21.806  18.300  0.0029 -0.3450  0.2344
14101W        W57195   3.668  23.636  18.217  0.0218  0.2496  0.3062
14102W        W57196   3.887  24.680  16.727  0.3934 -0.0001  0.3023
14103W        W57197   2.758  22.930  18.192  0.3703  0.1219  0.0655
14104W        W57198   3.483  25.993  20.454  0.3350  0.0517  0.1434
14105W        W57199   1.382  22.813  19.269 -0.1086 -0.0535 -0.1778
14106W        W57200   2.020  26.102  16.468 -0.1548  0.0218  0.0318
14107W        W57201   3.144  23.882  18.675  0.1071 -0.1884 -0.4169
14108W        W57202   1.446  25.271  17.686  0.0695  0.2714 -0.0777
14109W        W57203   0.481  24.344  20.057 -0.2803 -0.4628 -0.0292
14110W        W57204   1.113  24.399  17.066  0.2112 -0.2591 -0.0696
14111W        W57205   2.329  22.889  19.174 -0.0577 -0.2518 -0.1511
14112W        W57206   0.430  26.182  19.541 -0.0492 -0.0575 -0.2047
14113W        W57207   1.521  24.836  16.304  0.0336 -0.0648  0.1387
14114W        W57208   0.464  25.757  19.888 -0.1072  0.1200  0.1263
14115W        W57209   4.074  23.038  17.466  0.1462  0.0119  0.2487
14116W        W57210   3.056  24.094  16.335 -0.3357 -0.1562 -0.1891
14117W        W57211   1.554  24.775  17.880 -0.0296  0.1391 -0.1618
14118W        W57212   2.634  21.303  18.518 -0.1450 -0.2891 -0.1703
14119W        W57213  34.600  25.363  18.993 -0.0020  0.0034 -0.1046
14120W        W57214   2.745  21.938  17.892 -0.2768  0.1974 -0.0157
14121W        W57215  34.418  23.322  18.793 -0.2028  0.0332 -0.0157
14122W        W57216   2.346  24.832  18.466  0.0627 -0.0396  0.2454
14123W        W57217  34.206  22.299  18.842 -0.2187 -0.0764  0.1666
14124W        W57218   2.138  26.818  21.627  0.1433  0.0583  0.1143
14125W        W57219   0.789  23.514  19.978  0.0654 -0.0481 -0.0829
14126W        W57220   0.962  22.460  18.176 -0.1092  0.0844  0.3642
14127W        W57221   1.539  23.862  17.578 -0.1167 -0.1978 -0.1454
14128W        W57222   1.674  22.286  19.166 -0.3529 -0.0034 -0.1720
14129W        W57223   2.388  24.802  18.974 -0.0029 -0.0087 -0.2443
14130W        W57224   1.603  24.194  17.159 -0.0696 -0.1014 -0.3364
14131W        W57225   3.327  23.374  18.704 -0.1015  0.0396 -0.1816
14132W        W57226   0.942  23.298  17.961 -0.0769 -0.2166 -0.1219
14133W        W57227   3.612  23.224  17.143  0.3679  0.2004 -0.1135
14134W        W57228   1.285  24.811  17.374  0.0675  0.2275  0.0184
14135W        W57229   0.243  24.171  19.167  0.0111  0.0742 -0.2151
14136W        W57230   0.939  22.111  19.272 -0.0059 -0.0151 -0.0263
14137W        W57231   3.238  23.579  17.223  0.1890 -0.2440 -0.2668
14138W        W57232   2.148  23.087  16.635  0.1648  0.3899  0.2310
14139W        W57233   2.047  23.921  17.591 -0.6437 -0.0257  0.2769
14140W        W57234   2.820  23.051  19.163  0.0195  0.0145  0.0425
14141W        W57235   0.881  23.082  19.542 -0.0609  0.1154  0.2976
14142W        W57236   0.110  21.731  20.106 -0.0268 -0.1715  0.0640
14143W        W57237   2.114  25.929  19.674  0.2176 -0.0944 -0.1442
14144W        W57238   3.322  23.496  16.358  0.1457 -0.1461 -0.0719
14145W        W57239   2.885  22.793  16.649 -0.2019 -0.0073 -0.1048
14146W        W57240   3.155  23.090  17.833 -0.3076 -0.3036  0.0373
14147W        W57241   1.151  23.949  16.287 -0.0540  0.0230  0.2492
14148W        W57242   0.013  21.792  19.513 -0.3903 -0.0861  0.2743
14149W        W57243   1.830  25.155  20.418  0.2233  0.1252  0.0650
14150W        W57244   0.577  22.692  16.710  0.1508  0.0511 -0.1631
14151W        W57245   1.166  23.955  19.498 -0.4016  0.1673 -0.0268
14152W        W57246   1.480  23.586  16.080 -0.1107  0.2448 -0.1367
14153W        W57247   1.794  23.797  16.952  0.1398 -0.1028  0.0158
14154W        W57248   2.067  22.890  17.631  0.1208  0.1276  0.1291
14155W        W57249  34.175  22.606  17.880  0.0528 -0.2644  0.2651
14156W        W57250  34.489  26.255  20.085 -0.2282 -0.0451  0.0226
14157W        W57251  34.087  24.334  16.973 -0.1442 -0.0678 -0.2036
14158W        W57252   1.709  24.104  15.852  0.1704  0.0841 -0.2952
14159W        W57253   2.545  25.632  20.787  0.3659 -0.1145 -0.0147
14160W        W57254   3.282  23.806  19.511  0.3407 -0.1138 -0.2113
14161W        W57255   0.982  23.129  16.732  0.1736 -0.1368  0.2405
14162W        W57256   3.181  22.729  20.089 -0.0223 -0.3525  0.0609
14163W        W57257  34.673  24.635  19.263  0.3814 -0.1479  0.4943
14164W        W57258   1.877  21.199  18.997  0.1937  0.3755 -0.4619
14165W        W57259   0.718  25.392  17.702 -0.1869  0.1913  0.0649
14166W        W57260   1.956  24.968  19.845 -0.0137  0.0623 -0.0677
14167W        W57261   2.551  24.946  17.539 -0.1528  0.0996 -0.2487
14168W        W57262   1.437  23.600  17.181  0.0679 -0.0769  0.0261
14169W        W57263   2.709  23.479  17.550  0.1248 -0.0373 -0.2440
14170W        W57264   2.642  22.997  17.066 -0.1300  0.1712 -0.3075
14171W        W57265   3.143  23.500  18.224 -0.2885  0.0250  0.1148
14172W        W57266   1.872  25.165  18.229 -0.2130  0.2274 -0.0726
14173W        W57267   0.973  24.936  17.004  0.2298 -0.1951 -0.1217
14174W        W57268   2.979  26.007  20.525  0.0485 -0.0556  0.2381
14175W        W57269   3.943  23.857  16.918  0.5036  0.0976  0.0832
14176W        W57270   1.452  25.677  18.286 -0.1783  0.3181 -0.1328
14177W        W57271   0.140  22.746  20.242  0.3175  0.3010 -0.2635
14178W        W57272   3.113  23.389  20.856 -0.2732 -0.2939  0.1344
14179W        W57273   2.187  23.511  17.845  0.0436  0.0815 -0.2904
14180W        W57274   0.482  22.404  18.035 -0.1279  0.2006 -0.1005
14181W        W57275   3.085  22.322  16.727 -0.2533 -0.1578  0.0061
14182W        W57276   0.564  26.859  21.175  0.1367 -0.4598  0.2975
14183W        W57277   1.620  25.360  19.605 -0.0859  0.2534  0.1805
14184W        W57278   1.224  25.265  16.283  0.0309  0.2225  0.0246
14185W        W57279   2.706  23.533  17.016  0.3978 -0.0531 -0.2149
14186W        W57280   3.413  24.921  17.024  0.0507 -0.3731  0.0468
14187W        W57281   1.363  25.178  18.192 -0.2236  0.0063 -0.0421
14188W        W57282   0.620  23.656  17.698 -0.2080  0.0143 -0.0884
14189W        W57283   1.162  23.541  18.861  0.1145  0.0244 -0.1027
14190W        W57284  33.106  23.474  15.906 -0.1246 -0.0898 -0.0899
14191W        W57285   2.014  25.709  16.900 -0.2091 -0.1110 -0.2954
14192W        W57286  34.115  24.291  18.590  0.0392  0.0252 -0.0596
14193W        W57287   3.317  22.860  19.641 -0.0528 -0.0265 -0.0870
14194W        W57288   2.212  22.486  17.261  0.1215  0.1452 -0.0291
14195W        W57289   3.145  25.282  17.257  0.0653 -0.4477  0.1293
14196W        W57290   4.152  22.274  16.949 -0.0964  0.1748 -0.1681
14197W        W57291   2.257  24.142  19.097 -0.0240  0.0531  0.3544
14198W        W57292   1.423  23.838  18.572  0.1103 -0.3027  0.1370
14199W        W57293   0.447  21.553  17.288  0.3590  0.2829  0.0624
14200W        W57294   0.839  24.958  19.019 -0.2816  0.3461  0.0686
14201W        W57295   2.179  21.041  18.653 -0.2919  0.0509 -0.0336
14202W        W57296  33.872  24.822  19.255 -0.1179  0.3703  0.0874
14203W        W57297   2.486  25.188  18.191 -0.0685 -0.4594 -0.1343
14204W        W57298   0.192  24.594  17.545  0.1169  0.1864  0.0406
14205W        W57299   0.060  23.497  18.467 -0.0191  0.1176 -0.0302
14206W        W57300   3.459  20.612  18.758 -0.1968  0.1083 -0.1528
14207W        W57301   0.817  24.241  16.638 -0.1000  0.4059  0.1618
14208W        W57302   2.839  24.543  17.672 -0.2781 -0.0054 -0.4011
14209W        W57303   0.644  26.338  17.961 -0.0304 -0.0395  0.4973
14210W        W57304   1.031  24.148  18.403 -0.3998 -0.0677 -0.1549
14211W        W57305   2.564  25.594  19.533 -0.2232 -0.0259 -0.0756
14212W        W57306  33.888  22.178  16.452 -0.5008 -0.1554  0.1375
14213W        W57307   2.743  22.466  17.132  0.1175 -0.4040 -0.0223
14214W        W57308   0.376  23.364  19.769  0.2067 -0.0915 -0.0062
14215W        W57309   2.281  22.706  18.401  0.2574 -0.0778  0.4027
14216W        W57310   0.650  22.917  18.168 -0.0053  0.2892 -0.1899
14217W        W57311   2.563  22.962  17.652 -0.0061  0.1013 -0.0404
14218W        W57312   1.042  24.849  20.261  0.2736  0.0440  0.0829
14219W        W57313  33.592  22.568  19.745 -0.0834  0.0514 -0.0402
14220W        W57314   1.727  23.270  16.882  0.1899 -0.0474 -0.1920
14221W        W57315   4.063  23.431  18.761  0.0295 -0.2339 -0.0818
14222W        W57316   0.466  23.353  16.609  0.1290 -0.0339  0.2369
14223W        W57317   1.575  25.851  19.571  0.1528 -0.0903  0.0506
14224W        W57318  34.413  22.193  17.663  0.0714 -0.1506  0.0772
14225W        W57319   1.805  22.933  18.388  0.0864 -0.0953  0.0315
14226W        W57320   0.551  24.173  17.586 -0.0124  0.3123  0.2453
14227W        W57321   0.881  22.720  20.443  0.1372 -0.0056 -0.2863
14228W        W57322   2.274  23.879  20.774 -0.2064 -0.3638  0.1440
14229W        W57323  34.562  22.863  17.512 -0.1215 -0.2031 -0.0072
14230W        W57324   2.333  24.381  17.561  0.1883  0.1692 -0.2439
14231W        W57325   1.757  24.898  16.876  0.0098  0.2218  0.1273
14232W        W57326   1.313  24.737  15.454  0.1065 -0.2077 -0.0925
14233W        W57327   3.685  25.066  16.464  0.3754  0.1670 -0.1647
14234W        W57328   2.795  23.950  18.343 -0.3807 -0.0579  0.3087
14235W        W57329  33.938  23.302  18.638  0.1470 -0.0058  0.1139
14236W        W57330   2.371  26.027  18.475 -0.4043  0.0808 -0.4694
14237W        W57331   3.383  25.423  19.182  0.2013  0.0961  0.0805
14238W        W57332   0.212  22.360  17.571 -0.1719 -0.0673 -0.3013
14239W        W57333   1.217  23.419  19.356 -0.1411  0.1732  0.3742
14240W        W57334   0.287  25.449  18.200  0.1763 -0.0515  0.0802
14241W        W57335   3.948  21.328  18.667  0.0769  0.0935  0.4319
14242W        W57336   2.296  22.630  19.633  0.0476  0.2631  0.2171
14243W        W57337   2.771  25.040  15.971  0.0300 -0.1443  0.0743
14244W        W57338   3.847  23.253  17.834 -0.0660 -0.0289  0.0375
14245W        W57339   3.266  24.462  17.903 -0.0211 -0.0722  0.2419
14246W        W57340   1.609  24.503  19.064 -0.1757 -0.0209 -0.1249
14247W        W57341   0.294  22.756  17.204 -0.0553  0.3335  0.0975
14248W        W57342   1.105  24.716  18.234  0.1197 -0.0377 -0.1218
14249W        W57343   2.042  25.241  16.679  0.0509  0.0879 -0.0478
14250W        W57344   1.702  25.843  16.171 -0.0913  0.3315  0.0867
14251W        W57345   2.702  25.452  17.822  0.0211  0.2367 -0.2981
14252W        W57346   1.886  22.715  19.251  0.0538 -0.2749 -0.0285
14253W        W57347   2.434  25.683  18.215  0.2295  0.2778  0.3813
14254W        W57348   0.562  22.749  17.632  0.0759  0.4480 -0.2180
14255W        W57349   3.521  21.989  18.217  0.1024 -0.0618 -0.0579
14256W        W57350   3.037  23.957  17.446  0.3058 -0.0857  0.1604
14257W        W57351   1.140  23.608  17.632 -0.2156 -0.0972  0.1256
14258W        W57352  33.871  23.484  17.851  0.0116  0.0662 -0.0900
14259W        W57353   1.815  23.027  16.229 -0.2961 -0.2300  0.2135
14260W        W57354   1.141  23.693  18.165  0.0436 -0.0713  0.1146
14261W        W57355   1.923  22.913  20.426 -0.3879  0.4396 -0.0334
14262W        W57356   1.505  21.717  21.667  0.0040  0.1003  0.0564
14263W        W57357  34.091  23.167  19.128  0.0492 -0.0564 -0.0604
14264W        W57358  32.699  22.800  17.756  0.0044 -0.3199 -0.0526
14265W        W57359   2.734  24.689  16.755 -0.0488  0.0547 -0.0069
14266W        W57360   1.142  22.735  18.572 -0.0242  0.1621  0.2821
14267W        W57361  33.914  23.030  17.739 -0.1856 -0.0679  0.4255
14268W        W57362   4.722  24.808  17.715  0.0804 -0.3120 -0.1702
14269W        W57363   1.725  26.089  18.752 -0.0464  0.0643  0.1129
14270W        W57364   2.642  23.433  18.036  0.1469 -0.5345  0.1562
14271W        W57365   3.459  24.656  20.549  0.2149  0.2280  0.1301
14272W        W57366   0.441  24.450  15.826 -0.0816 -0.0205 -0.1018
14273W        W57367   1.488  23.158  19.746  0.0687 -0.0062  0.0675
14274W        W57368   1.532  21.990  20.546 -0.1580  0.0682 -0.1523
14275W        W57369   0.535  23.293  17.116  0.2982  0.1216 -0.2340
14276W        W57370   1.330  23.607  19.951  0.2284 -0.1422 -0.1432
14277W        W57371   2.148  27.116  18.257 -0.2746  0.0532  0.5919
14278W        W57372   2.173  25.611  16.348  0.3060  0.0454 -0.1038
14279W        W57373   0.335  23.814  18.798 -0.0374 -0.0266  0.2558
14280W        W57374   0.265  24.339  18.475  0.0170 -0.0848  0.2214
14281W        W57375   0.821  21.244  19.513  0.0586  0.0086  0.0424
14282W        W57376   3.387  23.895  15.778  0.2915  0.0377 -0.0014
14283W        W57377   0.910  24.392  20.261 -0.0096  0.2478 -0.0206
14284W        W57378   3.533  25.649  17.343 -0.1421  0.1558  0.0247
14285W        W57379   3.259  22.156  17.721 -0.0871  0.2360 -0.0219
14286W        W57380   2.510  24.353  16.410  0.0354 -0.0973  0.0594
14287W        W57381   0.268  22.841  19.610  0.2371  0.0240 -0.1508
14288W        W57382   1.289  23.548  20.944  0.1394  0.2623 -0.2486
14289W        W57383   2.382  24.897  19.561 -0.0887  0.2628  0.2361
14290W        W57384  34.088  22.981  18.292  0.0819  0.2921  0.0911
14291W        W57385   4.568  23.356  16.090  0.1806 -0.2920 -0.2358
14292W        W57386   2.382  24.736  16.041 -0.1991 -0.1234 -0.2391
14293W        W57387  33.940  23.863  18.321 -0.5912 -0.1090  0.2190
14294W        W57388  34.020  22.325  17.024 -0.1611  0.0524  0.2343
14295W        W57389   1.491  22.843  20.200  0.2176 -0.2379 -0.0524
14296W        W57390   2.881  24.846  17.238  0.2793 -0.1872 -0.0027
14297W        W57391   1.636  23.616  19.548  0.0002 -0.0790  0.0850
14298W        W57392   0.994  24.027  17.349  0.1988  0.3454 -0.0184
14299W        W57393   3.015  25.116  16.741 -0.2285 -0.1184  0.0791
14300W        W57394   1.090  25.569  18.031  0.1721  0.0583 -0.1169
14301W        W57395   4.287  24.818  19.869  0.1522  0.2359  0.1125
14302W        W57396   0.749  25.218  18.226 -0.1449 -0.0755  0.2301
14303W        W57397   3.451  24.475  17.405  0.1970 -0.2896 -0.3163
14304W        W57398  33.342  22.163  19.723 -0.0697 -0.2002  0.0433
14305W        W57399   0.932  24.529  17.588 -0.0360  0.0217  0.1455
14306W        W57400   0.240  24.830  18.316 -0.0718  0.1288 -0.0168
14307W        W57401   2.991  24.113  19.211  0.1184 -0.2684 -0.1243
14308W        W57402   0.195  22.633  18.428 -0.3119 -0.3212 -0.2033
14309W        W57403   1.914  22.380  17.638  0.1756 -0.2293 -0.1111
14310W        W57404   1.752  26.603  20.182  0.1741  0.0995  0.2209
14311W        W57405   1.390  24.376  17.575 -0.1288  0.0448 -0.1611
14312W        W57406   0.048  25.347  24.408 -0.0159 -0.1285  0.2057
14313W        W57407   0.616  22.179  22.560  0.0060 -0.2261 -0.1425
14314W        W57408   2.804  22.415  21.271  0.2610  0.2863 -0.0667
14315W        W57409   3.247  24.551  20.064  0.0582  0.2360  0.3007
14316W        W57410  34.559  23.919  23.541  0.1916  0.1501  0.0786
14317W        W57411   1.799  25.667  20.453 -0.0988 -0.4035  0.1264
14318W        W57412   1.147  21.140  22.421 -0.0425 -0.2450  0.2295
14319W        W57413   2.287  23.908  21.631  0.0698  0.1483 -0.0254
14320W        W57414   2.967  25.642  21.634 -0.2309 -0.2258  0.1164
14321W        W57415   1.842  24.086  18.852  0.0088 -0.1593 -0.2155
14322W        W57416   3.569  22.952  21.558  0.2477 -0.1380 -0.0351
14323W        W57417  34.503  26.116  22.672 -0.1483 -0.0353 -0.1360
14324W        W57418   2.312  22.732  21.686 -0.2539  0.2578  0.1279
14325W        W57419   0.068  21.121  21.959 -0.2107  0.0305 -0.1151
14326W        W57420   1.817  22.780  22.454  0.0480 -0.0823 -0.4510
14327W        W57421   0.293  23.850  19.968 -0.0461  0.2084 -0.0113
14328W        W57422   1.576  22.312  22.395 -0.1349 -0.1889  0.0737
14329W        W57423   1.279  22.729  22.274  0.1545  0.1173 -0.0393
14330W        W57424   2.556  25.984  21.537  0.1715  0.1991  0.0453
14331W        W57425   1.329  23.316  23.280  0.0813  0.1457  0.1527
14332W        W57426   0.816  21.824  24.257 -0.2466 -0.1478  0.2327
14333W        W57427  34.378  23.776  20.348 -0.2331  0.0143 -0.4429
14334W        W57428   0.528  24.005  19.512 -0.2156 -0.1782  0.3749
14335W        W57429  34.400  21.745  24.146  0.2403 -0.2904 -0.0169
14336W        W57430   1.736  24.272  23.071  0.1098 -0.2362  0.0769
14337W        W57431   4.026  23.069  21.208 -0.1401  0.1786 -0.1077
14338W        W57432   3.525  23.202  20.958 -0.0580 -0.1213 -0.3882
14339W        W57433   1.352  24.724  21.460 -0.2432  0.0981 -0.0037
14340W        W57434   1.338  25.823  20.194 -0.2700  0.1011  0.0462
14341W        W57435   2.368  23.077  22.838 -0.0784 -0.1521 -0.2017
14342W        W57436   0.416  24.180  22.357  0.2279  0.0799 -0.3647
14343W        W57437   0.016  25.927  21.735 -0.5133 -0.0083 -0.3460
14344W        W57438   0.021  24.207  20.254  0.0366 -0.1214 -0.2683
14345W        W57439   4.376  23.275  21.490  0.4375 -0.1938  0.1795
14346W        W57440   2.401  24.806  22.291 -0.1493  0.0845 -0.0465
14347W        W57441   1.184  25.343  24.041  0.3650  0.2371 -0.1427
14348W        W57442   0.563  24.855  20.531 -0.1677  0.0562 -0.1530
14349W        W57443   2.228  26.767  22.132  0.1297  0.0344 -0.0209
14350W        W57444  34.050  26.007  22.816  0.1695  0.2719  0.0569
14351W        W57445  34.548  22.555  22.418  0.0828  0.1862  0.0145
14352W        W57446   1.161  23.174  21.366  0.0078 -0.0833 -0.1163
14353W        W57447   0.579  23.432  21.222  0.1209  0.0987 -0.0483
14354W        W57448   0.831  24.192  21.478 -0.0671 -0.2072 -0.2127
14355W        W57449   0.842  25.461  23.513 -0.0995  0.2224 -0.2251
14356W        W57450   0.853  25.438  21.982  0.2120  0.0728  0.1708
14357W        W57451   3.577  22.507  23.462  0.2146 -0.0774  0.4400
14358W        W57452   0.875  26.016  20.116  0.1849 -0.2509 -0.0990
14359W        W57453   1.102  24.620  18.792 -0.1328 -0.0004  0.1282
14360W        W57454   1.954  22.897  21.024 -0.1542  0.1915 -0.0143
14361W        W57455   2.627  22.327  20.065 -0.0954  0.0391  0.0293
14362W        W57456   3.034  23.671  22.578  0.0774  0.3838 -0.1940
14363W        W57457   0.703  25.004  21.140  0.0356  0.2833  0.4351
14364W        W57458   2.488  21.863  22.116  0.1371  0.1258 -0.1937
14365W        W57459   2.521  24.543  22.783 -0.0770  0.1771 -0.1640
14366W        W57460   3.247  22.236  20.757  0.1762 -0.3259  0.0502
14367W        W57461   2.317  22.827  22.218  0.1033  0.2039 -0.3858
14368W        W57462   0.761  23.919  22.946  0.4325  0.0553 -0.0945
14369W        W57463  34.681  22.012  22.617 -0.2439  0.0121 -0.2169
14370W        W57464   2.301  25.417  20.432 -0.1358  0.2599  0.0171
14371W        W57465   3.637  25.203  20.092  0.1012  0.0416  0.1803
14372W        W57466   3.418  26.187  19.817 -0.0162  0.2856  0.1639
14373W        W57467  34.588  22.317  21.145  0.0273 -0.0658  0.0512
14374W        W57468  34.663  24.270  23.228 -0.0189 -0.0876 -0.0825
14375W        W57469   0.290  23.800  23.146  0.2753  0.1995 -0.1930
14376W        W57470   1.341  22.350  19.576 -0.2111 -0.1411  0.0381
14377W        W57471   3.083  24.515  23.322  0.0071 -0.0344 -0.4817
14378W        W57472  34.508  25.389  23.867  0.0537 -0.0124 -0.1207
14379W        W57473   5.326  23.236  22.549  0.2109 -0.1618 -0.0457
14380W        W57474   1.200  25.189  21.668  0.1372 -0.0818  0.1132
14381W        W57475   3.509  25.532  22.300  0.2455 -0.0972  0.0849
14382W        W57476   0.891  23.995  19.925  0.0389  0.0645 -0.1059
14383W        W57477   3.279  20.528  22.504  0.1825 -0.3089 -0.0059
14384W        W57478   3.214  21.909  22.307  0.1100  0.0257 -0.1551
14385W        W57479   1.421  22.938  21.015  0.0726 -0.0817  0.0250
14386W        W57480   0.029  23.144  20.550 -0.0813  0.0407 -0.2170
14387W        W57481   2.776  24.109  22.569 -0.1171  0.1352 -0.0614
14388W        W57482   2.934  24.671  20.535 -0.1377  0.3771  0.1961
14389W        W57483   0.290  26.024  22.728 -0.1283 -0.0265  0.0984
14390W        W57484   1.584  23.480  22.654 -0.1589 -0.2814  0.2375
14391W        W57485   2.308  24.274  22.401  0.0926 -0.0877  0.0469
14392W        W57486   1.587  27.774  20.632  0.3349  0.0106 -0.3466
14393W        W57487   1.496  24.912  22.027 -0.0846  0.0714  0.1624
14394W        W57488   0.504  25.232  19.660  0.2177  0.0709 -0.0371
14395W        W57489   1.829  22.595  21.548  0.0041 -0.2627  0.3121
14396W        W57490   0.063  25.030  21.945 -0.4306 -0.0829 -0.2303
14397W        W57491   2.526  22.855  21.123 -0.2421 -0.0655  0.3481
14398W        W57492   1.611  21.237  22.028  0.1602  0.0529 -0.1202
14399W        W57493   3.052  22.933  20.991  0.1662  0.0333 -0.0576
14400W        W57494  34.679  26.092  20.719  0.1554  0.3070 -0.0772
14401W        W57495   3.437  24.325  19.625 -0.1457 -0.1135 -0.1308
14402W        W57496   2.418  21.330  19.015  0.0465 -0.1324  0.0149
14403W        W57497   2.215  24.148  20.245 -0.1975  0.0896  0.0288
14404W        W57498   0.380  23.677  23.623 -0.1247  0.2267 -0.0738
14405W        W57499   0.875  21.548  21.608  0.1806 -0.0245 -0.2667
14406W        W57500   1.999  22.792  24.083  0.3516 -0.0059  0.0928
14407W        W57501   0.261  21.320  22.482  0.3127 -0.3961  0.3118
14408W        W57502   1.464  23.803  21.796 -0.0844  0.1256 -0.3129
14409W        W57503   0.835  21.787  22.133 -0.1008 -0.1618 -0.2621
14410W        W57504   3.801  22.557  21.355  0.1031 -0.3335 -0.0916
14411W        W57505   0.207  23.092  21.355 -0.0156 -0.0827 -0.1287
14412W        W57506  34.518  23.963  21.653  0.2028 -0.0235  0.2520
14413W        W57507   1.963  23.560  23.520 -0.2562 -0.3887  0.0009
14414W        W57508   0.704  25.458  20.903  0.1234 -0.0752  0.3056
14415W        W57509   3.156  24.918  22.241 -0.1852 -0.1107  0.0694
14416W        W57510   2.991  25.342  21.018 -0.0856  0.2944  0.1242
14417W        W57511   1.448  23.011  22.751  0.2241 -0.1631  0.0353
14418W        W57512  33.903  22.969  20.947 -0.1003 -0.1864  0.2511
14419W        W57513   0.386  26.170  22.007 -0.0349 -0.3936 -0.0697
14420W        W57514   1.340  24.074  20.182  0.1323 -0.1637 -0.2882
14421W        W57515   1.750  24.156  20.422 -0.0786 -0.0296  0.3567
14422W        W57516   2.707  24.282  21.671 -0.0268 -0.2419 -0.1353
14423W        W57517   0.933  23.951  21.991 -0.0306 -0.0276  0.4351
14424W        W57518   1.069  24.654  23.482 -0.1169  0.0819  0.1155
14425W        W57519   2.651  21.886  23.003 -0.4068  0.0425  0.1572
14426W        W57520   3.192  23.704  23.488 -0.1135  0.1964  0.0240
14427W        W57521   1.570  24.811  19.496 -0.1568 -0.0331 -0.2841
14428W        W57522   0.394  22.278  19.102  0.3184  0.0512  0.0695
14429W        W57523   2.808  24.632  21.120 -0.3105 -0.0051 -0.1512
14430W        W57524   0.589  25.477  21.366 -0.2564  0.1108 -0.2228
14431W        W57525   1.313  22.615  21.450 -0.2240 -0.0654  0.0768
14432W        W57526   0.182  25.248  21.450  0.2626 -0.1360 -0.1837
14433W        W57527   3.176  22.202  20.183  0.4423  0.0414  0.0591
14434W        W57528  33.996  23.829  22.844 -0.0605 -0.2103 -0.0937
14435W        W57529   1.841  23.197  23.107  0.0348  0.3854  0.1945
14436W        W57530  34.384  22.163  20.687  0.2613  0.0524  0.1511
14437W        W57531   1.186  23.774  23.355  0.2887 -0.0077  0.0397
14438W        W57532   4.068  21.591  21.273 -0.3067 -0.0647  0.1070
14439W        W57533   3.882  21.390  20.190  0.1525  0.0815  0.0711
14440W        W57534   0.855  23.819  22.498 -0.1261 -0.5123  0.2331
14441W        W57535   0.890  25.796  20.579 -0.1731  0.1018 -0.0512
14442W        W57536   2.466  22.831  20.115  0.0233 -0.1000  0.0806
14443W        W57537   2.575  22.189  19.554 -0.0392  0.1165  0.4713
14444W        W57538   0.667  23.529  22.147 -0.0657  0.2116  0.0420
14445W        W57539   1.129  24.328  21.123 -0.0757  0.0835  0.0947
14446W        W57540   1.278  24.245  23.275 -0.0744  0.4015  0.2030
14447W        W57541   1.515  25.037  19.979  0.0488  0.0565  0.0885
14448W        W57542   3.332  24.430  22.236  0.0185 -0.0362  0.2665
14449W        W57543  33.767  23.582  23.221  0.0502  0.0048 -0.0088
14450W        W57544   1.746  25.160  22.817 -0.0203  0.1123 -0.0101
14451W        W57545   1.902  24.941  20.868  0.1348  0.5531  0.1120
14452W        W57546   2.291  21.635  22.589 -0.0545  0.0278  0.2050
14453W        W57547   1.647  22.494  21.065 -0.3008  0.1097 -0.1322
14454W        W57548   2.015  24.212  21.288 -0.0061  0.0971  0.1950
14455W        W57549   0.508  24.391  20.570  0.2105  0.0237  0.0447
14456W        W57550   3.040  23.169  22.343 -0.2667  0.1850 -0.4596
14457W        W57551   1.389  24.632  22.551 -0.0344  0.1827  0.0080
14458W        W57552   0.908  20.834  24.138 -0.4047  0.1379 -0.1294
14459W        W57553   3.538  23.372  23.468 -0.2793  0.1142  0.1738
14460W        W57554   2.650  23.146  21.901 -0.2147 -0.0609  0.1628
14461W        W57555   1.009  23.995  20.709 -0.1088 -0.1127  0.2639
14462W        W57556   0.325  22.562  21.282  0.0473 -0.1704  0.1545
14463W        W57557   1.772  21.995  23.242  0.3834  0.1149 -0.1342
14464W        W57558   0.284  24.907  24.072 -0.0335  0.1207  0.0269
14465W        W57559   0.581  25.083  21.776 -0.1756 -0.0150 -0.0743
14466W        W57560   1.959  24.620  22.599  0.1290 -0.0103  0.0970
14467W        W57561   2.898  23.584  19.073  0.0003 -0.0963  0.0961
14468W        W57562   1.326  22.299  24.221  0.0528  0.1572  0.0639
14469W        W57563   0.169  23.356  22.093  0.0231 -0.3370  0.0717
14470W        W57564   1.262  25.349  20.272  0.0433 -0.2453  0.1377
14471W        W57565  34.369  25.062  19.328  0.2139 -0.0785 -0.2555
14472W        W57566   2.387  21.564  21.683  0.2111 -0.2186 -0.0010
14473W        W57567   1.269  24.268  21.728 -0.0884 -0.0236 -0.1772
14474W        W57568   0.542  24.547  21.099  0.2503  0.0579  0.2088
14475W        W57569   1.786  24.041  22.622  0.1259 -0.0709 -0.1348
14476W        W57570   0.454  25.956  20.990 -0.0541  0.1448  0.0853
14477W        W57571   2.871  22.503  24.147 -0.0366  0.1326 -0.1375
14478W        W57572  34.330  24.807  21.953  0.0497 -0.2560  0.0779
14479W        W57573   0.722  22.570  22.235 -0.3246  0.2176  0.0342
14480W        W57574  34.309  23.023  22.282  0.3146  0.1614 -0.1077
14481W        W57575   4.813  24.291  20.259  0.1634 -0.4864 -0.0344
14482W        W57576   4.019  23.467  19.623  0.1197  0.0446  0.1439
14483W        W57577   0.368  21.832  23.396 -0.3646  0.1840  0.4603
14484W        W57578   1.977  22.494  22.030 -0.0381  0.2250 -0.1164
14485W        W57579  34.272  26.825  21.959  0.1722  0.1337  0.2987
14486W        W57580   1.221  23.469  22.271  0.2597  0.0979 -0.1263
14487W        W57581   2.356  23.760  18.262 -0.1341 -0.2487 -0.1678
14488W        W57582   1.093  24.484  22.133  0.0534  0.1015  0.1807
14489W        W57583   1.912  25.453  23.227 -0.0371  0.1518  0.0620
14490W        W57584   1.087  23.105  20.086  0.0971 -0.0109  0.3237
14491W        W57585   4.112  23.003  22.299 -0.0701 -0.2911 -0.0867
14492W        W57586   0.810  22.368  21.440  0.1111 -0.1649 -0.2157
14493W        W57587  34.361  24.096  19.957  0.1056  0.2792 -0.1422
14494W        W57588   0.877  24.313  22.594  0.1728 -0.0415  0.2384
14495W        W57589   1.702  23.305  20.142  0.1253  0.1049 -0.0895
14496W        W57590   0.230  25.208  20.855 -0.1089  0.0838 -0.1125
14497W        W57591   0.659  23.198  24.116  0.0762 -0.0700  0.1264
14498W        W57592   1.855  24.383  21.698  0.1350  0.1797  0.1576
14499W        W57593   1.754  22.472  22.865 -0.0413 -0.1876 -0.0895
14500W        W57594   0.800  22.531  23.132 -0.1165  0.4041 -0.1448
14501W        W57595   1.150  23.587  22.914  0.1500  0.4167  0.0447
14502W        W57596   2.204  25.165  21.955 -0.1854  0.0485 -0.3812
14503W        W57597   2.581  22.419  23.012  0.1335  0.1106 -0.0218
14504W        W57598   0.039  24.920  23.050 -0.0807  0.1206 -0.2363
14505W        W57599   2.473  21.016  21.621  0.0600  0.1643  0.0319
14506W        W57600   4.002  25.903  20.603  0.1583 -0.1330 -0.4053
14507W        W57601   1.810  22.912  23.509 -0.2149 -0.0214  0.0153
14508W        W57602   0.683  23.576  20.772  0.1382  0.2438  0.0666
14509W        W57603   0.142  23.758  22.499  0.3209 -0.0951 -0.0790
14510W        W57604  33.935  24.511  20.941  0.1571 -0.1154 -0.1471
14511W        W57605   2.002  23.260  22.445 -0.2706  0.3508  0.1872
14512W        W57606   0.136  25.455  22.464 -0.0129  0.3841  0.0205
14513W        W57607   0.895  24.477  19.696  0.2927 -0.1443  0.2164
14514W        W57608   0.244  23.940  21.975 -0.3266 -0.0553  0.2067
14515W        W57609   3.362  23.073  20.494  0.2775  0.1401 -0.3575
14516W        W57610   1.881  24.031  18.352  0.2078  0.0213 -0.1509
14517W        W57611   2.926  22.466  23.345  0.2290 -0.3149  0.2622
14518W        W57612   4.267  22.523  23.213 -0.2222 -0.1990  0.1461
14519W        W57613   3.047  24.116  20.291  0.1717 -0.0711  0.0540
14520W        W57614   2.651  21.218  22.047 -0.0191 -0.1870  0.0062
14521W        W57615   2.798  21.665  22.501  0.0251  0.4501  0.1321
14522W        W57616   1.643  23.898  20.879 -0.1278 -0.1837  0.0306
14523W        W57617   2.058  22.011  22.374  0.1429  0.1609  0.1461
14524W        W57618   2.504  26.420  22.875 -0.1124 -0.1620  0.1849
14525W        W57619   0.056  24.664  23.552  0.1228  0.0168  0.1093
14526W        W57620   2.670  22.405  20.763 -0.2394  0.0836 -0.1032
14527W        W57621   1.012  22.091  20.480  0.2411 -0.3891 -0.2264
14528W        W57622   0.551  23.401  22.596  0.0822  0.0658 -0.0543
14529W        W57623   3.698  23.502  21.737  0.1019 -0.1490 -0.0363
14530W        W57624   1.653  24.361  19.810 -0.4627  0.3743 -0.1006
14531W        W57625   3.294  22.446  22.092 -0.1684  0.1231  0.1406
14532W        W57626   1.534  22.981  24.345  0.2179 -0.0475  0.0960
14533W        W57627   2.808  23.210  20.368 -0.2041  0.2872  0.0395
14534W        W57628   2.406  21.892  20.065  0.0956 -0.0674 -0.0579
14535W        W57629   1.369  25.820  20.706  0.0036 -0.0804  0.0068
14536W        W57630   0.391  21.817  23.968  0.1997 -0.2027  0.0736
14537W        W57631   2.083  23.716  21.198  0.0907 -0.1718 -0.0691
14538W        W57632   1.985  23.100  21.940 -0.0882  0.0458 -0.0345
14539W        W57633   2.887  22.153  22.063  0.2825  0.0940  0.0138
14540W        W57634   2.324  23.483  22.055 -0.1978 -0.0530  0.1190
14541W        W57635   1.779  24.577  25.098 -0.2656  0.0252 -0.0337
14542W        W57636  34.411  22.149  23.854 -0.0624  0.1727 -0.0778
14543W        W57637   4.309  26.556  22.505  0.1358 -0.1259  0.0009
14544W        W57638   3.269  22.624  18.021 -0.0532  0.0097  0.1145
14545W        W57639   3.084  22.814  23.760  0.1840 -0.4654  0.1382
14546W        W57640   4.401  23.692  21.156  0.2604  0.2884  0.0831
14547W        W57641   2.303  23.250  20.476  0.0292  0.0161  0.0404
14548W        W57642   0.264  22.315  22.211 -0.0598 -0.1553 -0.0705
14549W        W57643   2.635  24.591  23.520 -0.0184 -0.1067  0.2907
14550W        W57644   1.797  23.078  21.486  0.0188 -0.2165 -0.0122
14551W        W57645   2.300  22.585  22.635 -0.3707 -0.2716 -0.0466
14552W        W57646   3.009  27.210  19.488  0.1369 -0.1425 -0.2228
14553W        W57647   2.272  24.904  20.506 -0.0389  0.0053 -0.0455
14554W        W57648   2.045  23.658  20.360 -0.2453  0.3406 -0.0467
14555W        W57649  34.328  24.801  20.892 -0.0479 -0.1686 -0.0583
14556W        W57650  34.541  26.406  22.152  0.0862 -0.1375 -0.1444
14557W        W57651   0.940  22.675  20.956 -0.1548 -0.2054  0.0320
14558W        W57652   1.043  23.505  20.445 -0.1027 -0.3207  0.0551
14559W        W57653   1.329  23.936  22.375 -0.2128  0.1586  0.2109
14560W        W57654   3.295  24.089  22.622  0.1635 -0.2279  0.0125
14561W        W57655   3.587  22.360  20.440 -0.0993 -0.1887 -0.0132
14562W        W57656   3.933  22.285  22.860  0.0567 -0.3368  0.0595
14563W        W57657   0.032  24.530  19.882  0.4090 -0.0825 -0.2107
14564W        W57658   2.888  21.652  21.927 -0.0328 -0.1113  0.0148
14565W        W57659   0.570  25.236  22.298  0.0377  0.0276 -0.0092
14566W        W57660  34.335  24.289  22.834 -0.3364  0.0506 -0.0625
14567W        W57661   0.072  25.610  21.141  0.0239 -0.0221  0.0863
14568W        W57662   2.880  20.820  22.310  0.3441 -0.0333  0.1772
14569W        W57663   2.292  22.281  21.487 -0.2700  0.2165  0.3271
14570W        W57664   0.785  23.043  22.962  0.1717 -0.3726 -0.1157
14571W        W57665   2.327  24.485  21.872 -0.2733 -0.0946 -0.2852
14572W        W57666   0.365  23.223  23.756  0.3624 -0.0523  0.1944
14573W        W57667   0.260  24.685  21.619  0.1949  0.0508 -0.0477
14574W        W57668   1.620  24.339  22.156 -0.2721  0.0184  0.3566
14575W        W57669   2.522  23.974  19.870 -0.0431 -0.1686 -0.0359
14576W        W57670   1.583  25.780  21.751  0.0928 -0.3674 -0.1275
14577W        W57671   0.536  24.131  24.096 -0.1533 -0.3797 -0.0947
14578W        W57672   1.672  24.292  24.040 -0.2073 -0.1018 -0.1277
14579W        W57673   2.490  24.104  21.170  0.2961 -0.0153 -0.2811
14580W        W57674   2.621  22.139  22.625  0.2483 -0.2438  0.0654
14581W        W57675   1.248  24.936  20.988 -0.0763 -0.0538 -0.1011
14582W        W57676  32.911  25.677  24.581  0.3194 -0.1122 -0.0381
14583W        W57677  33.887  24.484  22.948 -0.0355  0.4028  0.2356
14584W        W57678   1.118  25.345  21.178  0.2534 -0.0704 -0.3533
14585W        W57679   1.721  24.606  21.190 -0.2783 -0.0481 -0.3033
14586W        W57680   0.793  25.300  20.168  0.1048 -0.0669  0.0477
14587W        W57681   2.948  24.712  21.773 -0.0307 -0.0945  0.0173
14588W        W57682   2.355  22.763  20.636 -0.1601  0.0342 -0.0270
14589W        W57683   0.118  24.872  21.180 -0.0381 -0.3241 -0.2650
14590W        W57684   0.067  24.140  19.621  0.0352 -0.2116 -0.2581
14591W        W57685   1.542  25.346  20.820 -0.4324 -0.0465  0.0425
14592W        W57686   1.376  26.801  21.238  0.3176  0.1294 -0.1329
14593W        W57687   3.494  25.197  23.862  0.0024 -0.0108 -0.1206
14594W        W57688   2.835  21.900  19.913 -0.0070  0.0653 -0.0394
14595W        W57689   3.157  23.576  21.420 -0.0637 -0.0554 -0.0032
14596W        W57690   2.458  23.373  19.053 -0.0752 -0.1162  0.0468
14597W        W57691   2.246  25.084  23.309  0.0163 -0.0990  0.2661
14598W        W57692   0.978  23.136  20.857  0.0942 -0.1444  0.0645
14599W        W57693   1.165  21.842  20.114  0.0115  0.0339 -0.1056
14600W        W57694   0.588  24.659  23.717  0.0017  0.1926 -0.0402
14601W        W57695   3.908  23.397  24.435 -0.1880 -0.0503 -0.0565
14602W        W57696  32.419  26.448  24.692 -0.1636 -0.0760  0.0122
14603W        W57697   2.880  25.858  21.088  0.2932 -0.1265 -0.1169
14604W        W57698   0.524  23.035  22.160  0.1389 -0.1714  0.5048
14605W        W57699   0.741  22.875  21.440 -0.0556  0.1200  0.1782
14606W        W57700   5.525  21.922  22.936 -0.1635 -0.1516 -0.2242
14607W        W57701   0.636  23.890  20.407 -0.2798 -0.0215  0.2021
14608W        W57702   2.832  23.087  21.430 -0.1130 -0.1421  0.1084
14609W        W57703   1.063  25.715  21.625  0.0919  0.3926  0.0239
14610W        W57704  34.583  25.460  22.006  0.1583 -0.3133  0.2096
14611W        W57705   0.516  24.747  22.190  0.0868  0.1439  0.0327
14612W        W57706  34.215  21.784  21.796  0.1568 -0.2541  0.4530
14613W        W57707   4.947  23.833  20.881  0.0998  0.0893  0.3194
14614W        W57708   0.973  23.762  21.233 -0.1064  0.0171  0.0724
14615W        W57709   3.379  23.042  22.801  0.0285 -0.0384  0.1371
14616W        W57710  34.690  22.685  21.639  0.1401 -0.0745  0.0181
14617W        W57711   3.602  22.035  22.009  0.1411 -0.2313 -0.1911
14618W        W57712   1.881  24.817  23.128  0.0314 -0.0464 -0.0642
14619W        W57713   0.324  23.048  23.229  0.0044 -0.2841 -0.1100
14620W        W57714   1.874  23.403  20.755  0.2788 -0.2451 -0.0967
14621W        W57715   3.898  23.693  23.151 -0.3316 -0.0202  0.1749
14622W        W57716   1.547  23.709  20.418  0.3513  0.1475  0.2035
14623W        W57717   2.525  25.410  23.041  0.1183  0.0937  0.1585
14624W        W57718   0.245  22.355  22.985  0.2472 -0.3441 -0.2102
14625W        W57719   1.426  23.308  21.804  0.0368 -0.0553  0.0865
14626W        W57720   0.204  24.016  20.681  0.1997 -0.1120  0.1034
14627W        W57721   1.037  23.553  21.717 -0.2491 -0.1345 -0.0448
14628W        W57722   1.257  25.834  23.776 -0.4364  0.0019  0.0098
14629W        W57723   0.980  23.058  21.890  0.3668  0.3624 -0.0236
14630W        W57724   1.885  24.663  20.265  0.2741 -0.0424  0.0762
14631W        W57725   2.816  22.689  21.746 -0.0656 -0.0693 -0.0693
14632W        W57726   0.559  24.799  20.000 -0.2624  0.1826 -0.0723
14633W        W57727   1.476  24.381  20.742  0.0328 -0.1078 -0.2722
14634W        W57728   2.525  25.541  21.901 -0.2611  0.1755  0.0994
14635W        W57729   0.076  23.012  22.603  0.1254 -0.2588 -0.1466
14636W        W57730   1.844  24.887  21.627  0.2488  0.0747 -0.0981
14637W        W57731   3.819  25.315  22.675  0.2360  0.1642 -0.1864
14638W        W57732   3.784  22.475  19.845 -0.1593  0.0345  0.0535
14639W        W57733   1.174  22.177  20.988  0.3457  0.0570 -0.1665
14640W        W57734  33.873  25.671  20.153  0.3397 -0.0940  0.0518
14641W        W57735   4.302  22.584  22.099 -0.0391  0.1079  0.0415
14642W        W57736   3.780  22.954  23.175  0.1219  0.1896 -0.2142
14643W        W57737   2.563  25.422  21.377 -0.1137  0.2025  0.1931
14644W        W57738   3.065  22.309  22.787 -0.0243 -0.0675  0.1348
14645W        W57739   2.188  25.489  23.634  0.0053  0.0107 -0.0146
14646W        W57740   0.282  25.593  23.749  0.0303 -0.1877  0.0396
14647W        W57741   0.527  24.038  21.067  0.1845  0.3120 -0.1075
14648W        W57742   3.903  24.914  22.981 -0.0423 -0.5883 -0.0783
14649W        W57743   0.600  24.324  21.897  0.1892  0.2128 -0.2401
14650W        W57744   3.015  25.131  21.491  0.0704 -0.1248  0.1995
14651W        W57745   2.529  24.407  20.676 -0.1591 -0.1357  0.0458
14652W        W57746   1.561  23.134  22.233 -0.1857  0.0521  0.1607
14653W        W57747   4.092  23.730  21.552 -0.0062 -0.1224 -0.1053
14654W        W57748   1.003  22.554  21.865  0.0543  0.0520  0.1476
14655W        W57749   4.213  24.177  21.307 -0.1666  0.0739  0.0232
14656W        W57750   3.900  20.803  18.869  0.0020  0.2917  0.1005
14657W        W57751   0.078  25.337  23.383  0.0120 -0.1121 -0.0898
14658W        W57752  34.313  22.739  21.224 -0.0717 -0.1865  0.0613
14659W        W57753   1.158  24.690  19.313 -0.3167 -0.0911  0.2922
14660W        W57754   0.113  23.561  21.618 -0.0698 -0.3473  0.2309
14661W        W57755   2.013  21.892  23.708  0.2170  0.0989  0.0669
14662W        W57756   0.963  23.071  22.475  0.0244  0.0374 -0.0536
14663W        W57757   0.246  23.488  24.167  0.1590 -0.0546  0.0013
14664W        W57758   1.207  22.152  22.732 -0.1059 -0.0741 -0.2322
14665W        W57759   1.809  25.427  20.044 -0.4210 -0.3731  0.3809
14666W        W57760   0.969  22.633  22.712 -0.0514 -0.1708  0.0211
14667W        W57761  34.210  21.614  23.166  0.0232  0.1751 -0.0646
14668W        W57762   2.264  24.649  21.267  0.0137 -0.0500  0.1209
14669W        W57763   3.672  25.510  20.480  0.2098  0.0469  0.1111
14670W        W57764   1.456  22.317  21.833 -0.2787 -0.3118 -0.2434
14671W        W57765   3.030  23.843  24.450  0.1646 -0.1623  0.0475
14672W        W57766   1.463  24.846  20.541 -0.0123 -0.2578  0.0019
14673W        W57767   2.404  24.353  24.797 -0.0967  0.3151  0.2015
14674W        W57768   2.182  22.139  22.839  0.0265  0.1877 -0.1409
14675W        W57769   0.058  22.178  20.345  0.0385 -0.2906  0.0695
14676W        W57770   3.460  22.553  22.977 -0.1803  0.0025 -0.2689
14677W        W57771   2.661  23.480  20.722 -0.0130 -0.0764 -0.1296
14678W        W57772   2.578  26.313  20.340 -0.2877  0.2871  0.0191
14679W        W57773   0.486  24.752  22.774  0.2866  0.1140 -0.2137
14680W        W57774   1.597  25.532  22.586 -0.2725  0.0280 -0.0632
14681W        W57775  34.622  21.987  23.204 -0.1972 -0.1058 -0.0158
14682W        W57776   1.623  23.515  21.344 -0.7000 -0.0762 -0.1346
14683W        W57777   1.420  25.062  23.213 -0.1963 -0.4562  0.0825
14684W        W57778   3.925  24.804  20.194  0.2094 -0.1183 -0.1512
14685W        W57779   4.560  22.684  21.112  0.1699  0.1735  0.1465
14686W        W57780   2.810  23.606  22.150  0.3060  0.2293  0.2234
14687W        W57781  34.371  22.372  23.004  0.0077 -0.0300  0.0137
14688W        W57782   0.548  24.914  23.241  0.2157 -0.0312 -0.1523
14689W        W57783   2.160  23.770  22.419  0.1216 -0.1467 -0.2102
14690W        W57784   0.685  20.444  22.608 -0.5438  0.1139 -0.1771
14691W        W57785   2.295  23.252  21.553 -0.0810 -0.0129 -0.0986
14692W        W57786   1.074  24.969  19.715  0.2042  0.1739  0.1065
14693W        W57787   0.051  22.869  22.078 -0.2303  0.0492 -0.3176
14694W        W57788   2.679  23.517  21.214 -0.2491 -0.0583 -0.2019
14695W        W57789   2.524  23.275  22.439  0.0805  0.3630  0.2838
14696W        W57790   1.486  24.019  21.342 -0.0870 -0.0791 -0.2430
14697W        W57791   1.599  24.598  23.452 -0.0727 -0.1869 -0.1718
14698W        W57792   1.158  21.727  21.250 -0.2158  0.1316  0.0886
14699W        W57793   3.871  22.975  19.218  0.0908 -0.0045 -0.0031
14700W        W57794   2.004  25.884  22.897 -0.2211 -0.2000 -0.1958
14701W        W57795   2.827  26.061  24.731  0.1275  0.0138  0.1572
14702W        W57796   1.916  23.584  21.736 -0.1363  0.1309 -0.0872
14703W        W57797   3.283  25.162  20.527  0.4290 -0.1424 -0.0854
14704W        W57798   0.379  20.965  23.349 -0.0897 -0.2986  0.1800
14705W        W57799   0.122  23.437  20.958 -0.0113  0.0411  0.1505
14706W        W57800   2.102  23.593  19.789  0.2777 -0.3098 -0.4819
14707W        W57801   2.624  23.637  23.564  0.1426 -0.0525  0.0155
14708W        W57802   0.500  22.693  21.807  0.0648 -0.0435  0.2489
14709W        W57803   3.082  22.647  20.615  0.1271  0.2548 -0.1064
14710W        W57804   0.620  24.416  23.208  0.1163  0.3902 -0.0163
14711W        W57805   3.127  23.613  20.421  0.0861  0.1774  0.3272
14712W        W57806   0.585  23.486  25.854 -0.2600 -0.2748  0.0197
14713W        W57807   1.933  23.647  24.755 -0.0046  0.1015  0.1616
14714W        W57808   2.490  23.667  22.793 -0.1602 -0.0653 -0.0048
14715W        W57809   0.740  24.557  24.259  0.2657 -0.1666  0.1967
14716W        W57810   1.564  23.285  25.973  0.0128 -0.0986 -0.3117
14717W        W57811   1.750  24.795  24.109  0.1099  0.0430 -0.0185
14718W        W57812   0.294  22.525  27.182  0.0309  0.2021 -0.0541
14719W        W57813   2.460  24.491  26.633  0.1809 -0.1843 -0.3359
14720W        W57814   3.200  24.911  25.982  0.1524  0.2298  0.0913
14721W        W57815   2.036  23.611  22.880  0.1536  0.0059 -0.1734
14722W        W57816   0.640  23.619  26.961 -0.1350 -0.0101 -0.0823
14723W        W57817   1.211  24.387  26.831 -0.3237 -0.0626 -0.1459
14724W        W57818   1.661  21.088  25.225  0.1376  0.1413  0.1819
14725W        W57819   0.822  22.810  26.506 -0.1665  0.1069 -0.1596
14726W        W57820   1.956  23.594  25.817  0.0520  0.0561  0.1432
14727W        W57821  34.194  25.681  24.924 -0.0081 -0.4409 -0.0035
14728W        W57822   1.049  22.369  26.608 -0.2237 -0.0236  0.2415
14729W        W57823   0.405  20.926  24.283  0.1680  0.1197 -0.0087
14730W        W57824   1.680  25.584  26.743  0.0594 -0.1464  0.1468
14731W        W57825   1.296  22.864  26.339 -0.1550  0.1954  0.0099
14732W        W57826   3.224  22.295  26.789 -0.0446  0.1801 -0.4008
14733W        W57827   0.897  26.119  25.515 -0.0792  0.3658  0.1691
14734W        W57828  33.853  23.115  22.480 -0.1394  0.0510  0.0005
14735W        W57829  34.598  22.531  25.315 -0.4771 -0.2039 -0.2537
14736W        W57830   1.596  24.182  26.545 -0.0833  0.1154  0.0701
14737W        W57831   1.533  24.145  25.392  0.1642  0.0354 -0.0216
14738W        W57832   2.775  23.208  25.209  0.0092  0.0262 -0.3973
14739W        W57833   1.729  25.377  24.570 -0.2075 -0.0948  0.2438
14740W        W57834   2.117  25.557  25.817  0.0706 -0.1200  0.1287
14741W        W57835   3.697  23.394  27.379  0.0805 -0.1321 -0.2351
14742W        W57836   0.008  24.859  24.596  0.2651  0.0605 -0.2126
14743W        W57837  34.498  24.833  26.305 -0.0305  0.4774 -0.0649
14744W        W57838   0.773  24.473  24.851  0.3445  0.1136  0.2389
14745W        W57839   1.891  25.326  24.039 -0.0238 -0.0711 -0.1460
14746W        W57840   3.964  24.478  26.100 -0.1327 -0.4183  0.0423
14747W        W57841   1.586  25.742  28.830  0.3206  0.0807 -0.0965
14748W        W57842  34.271  25.266  23.207  0.0552 -0.2083 -0.2580
14749W        W57843   2.975  25.524  26.822 -0.2945 -0.2612  0.1054
14750W        W57844   0.561  25.018  27.901 -0.0973 -0.2131 -0.4652
14751W        W57845   2.077  23.029  24.710 -0.1886 -0.0279  0.2172
14752W        W57846   0.947  24.110  25.180 -0.3058 -0.0616  0.2264
14753W        W57847   0.922  24.923  24.027 -0.0599  0.0745  0.0495
14754W        W57848   0.490  22.759  23.943 -0.1352  0.0276  0.1299
14755W        W57849   2.449  24.755  27.112 -0.0846  0.0713  0.1052
14756W        W57850   0.160  25.210  25.428 -0.0249  0.0033 -0.1841
14757W        W57851   4.027  21.973  26.887 -0.0567 -0.1058  0.0001
14758W        W57852  33.339  24.361  23.578  0.0892  0.1302  0.3590
14759W        W57853   3.027  21.944  24.164 -0.0823  0.0094 -0.1012
14760W        W57854   2.225  23.330  23.882 -0.3790  0.2182  0.1299
14761W        W57855   2.735  23.368  24.285 -0.0305  0.0200  0.2378
14762W        W57856   2.478  23.522  26.019 -0.0555 -0.1139 -0.1149
14763W        W57857   1.433  24.745  26.380 -0.0206 -0.3426 -0.2988
14764W        W57858   2.666  23.025  26.696  0.1799  0.0428 -0.0536
14765W        W57859   2.694  24.981  25.935  0.1862 -0.1173  0.0435
14766W        W57860   0.821  23.449  23.635  0.0167 -0.0837  0.1838
14767W        W57861   1.915  24.136  25.728  0.3434  0.0344  0.1405
14768W        W57862   1.033  24.928  26.769 -0.2524 -0.0089  0.0707
14769W        W57863   0.854  23.671  25.348 -0.0235  0.1467  0.0214
14770W        W57864   1.045  26.553  22.789 -0.0853 -0.0360 -0.1845
14771W        W57865   4.053  25.768  24.177 -0.2216 -0.0280  0.1144
14772W        W57866   0.370  25.244  22.895  0.1891  0.0693 -0.0396
14773W        W57867   0.052  24.111  25.305 -0.4355 -0.4522  0.2658
14774W        W57868   0.453  24.053  28.117 -0.0088 -0.1710  0.1362
14775W        W57869   0.897  23.509  27.862 -0.1063  0.0916  0.0149
14776W        W57870   1.562  22.913  24.845  0.2711  0.2454  0.3172
14777W        W57871   5.250  26.195  28.697 -0.1011 -0.1668 -0.2229
14778W        W57872   0.654  26.152  26.857  0.1829 -0.1065 -0.3941
14779W        W57873   2.570  22.133  24.373 -0.2771  0.0480  0.2774
14780W        W57874   0.738  23.611  26.386 -0.0433 -0.1097 -0.0907
14781W        W57875   1.933  25.969  26.078 -0.1595  0.0292 -0.1150
14782W        W57876   1.341  25.449  23.487  0.3496 -0.0573  0.2175
14783W        W57877   3.322  21.468  24.303  0.0554 -0.0484  0.0301
14784W        W57878   2.240  23.883  25.005 -0.1665  0.2794  0.0096
14785W        W57879   1.311  23.861  23.908  0.2761  0.1960 -0.2045
14786W        W57880   1.304  24.086  22.812  0.2177 -0.1186 -0.0313
14787W        W57881   3.512  24.514  26.913  0.2387  0.1030 -0.0786
14788W        W57882   2.828  24.028  24.880  0.3151  0.0657  0.3374
14789W        W57883   0.651  24.920  26.419 -0.2418 -0.2422 -0.5890
14790W        W57884   2.656  22.893  25.629 -0.0173 -0.0327 -0.0574
14791W        W57885   0.988  25.863  27.250  0.1177  0.1065 -0.2519
14792W        W57886  33.411  25.661  24.345  0.1799 -0.0547  0.1229
14793W        W57887  34.016  24.718  26.378  0.1912 -0.0585  0.0731
14794W        W57888  34.044  24.922  23.601 -0.0263  0.1190 -0.0052
14795W        W57889   0.250  22.376  27.663  0.1041 -0.2042 -0.0522
14796W        W57890   0.765  24.145  27.040  0.1691 -0.0600  0.2143
14797W        W57891   1.825  23.755  23.986  0.3031  0.2165 -0.1573
14798W        W57892   1.867  23.090  25.577 -0.1165 -0.0502 -0.0232
14799W        W57893   2.307  22.545  24.858 -0.2554  0.1193  0.1636
14800W        W57894   1.450  23.417  24.740 -0.0787 -0.2534  0.1868
14801W        W57895   2.198  25.907  23.914 -0.0428 -0.0783  0.0465
14802W        W57896   3.535  22.870  25.153  0.2012 -0.0026  0.2275
14803W        W57897   2.189  24.925  23.826  0.0499  0.0975 -0.2354
14804W        W57898  33.535  23.434  27.007 -0.1029 -0.0011  0.1424
14805W        W57899   0.163  22.552  25.881 -0.0927  0.1381 -0.1010
14806W        W57900   1.256  23.753  27.037 -0.0292 -0.0535 -0.0116
14807W        W57901   0.887  22.451  25.035 -0.1810 -0.2288 -0.3882
14808W        W57902   3.064  24.087  26.126 -0.0528  0.0049  0.1935
14809W        W57903   0.429  22.513  23.436  0.0744  0.1799 -0.0495
14810W        W57904   2.071  24.110  24.292  0.3042 -0.0118  0.3091
14811W        W57905   1.104  22.720  24.189 -0.2496  0.0780  0.1406
14812W        W57906   1.127  23.291  25.603 -0.0422 -0.0999 -0.3472
14813W        W57907   5.040  23.031  26.893 -0.0256  0.5962  0.1154
14814W        W57908   2.716  25.076  23.660  0.0597  0.0251 -0.0876
14815W        W57909   3.233  24.794  26.546  0.3063  0.1426  0.0354
14816W        W57910   2.336  25.807  24.850 -0.2458  0.1645 -0.0214
14817W        W57911   1.383  23.218  26.979  0.3694 -0.0018  0.1941
14818W        W57912   0.202  22.074  25.238  0.0333  0.2640  0.1356
14819W        W57913   1.169  25.783  25.761  0.0241  0.4812 -0.1927
14820W        W57914   1.141  25.542  25.325  0.1842  0.0761 -0.1028
14821W        W57915   1.941  22.617  25.172 -0.0907  0.0351  0.0267
14822W        W57916   1.951  25.172  26.987 -0.0575 -0.0018 -0.0874
14823W        W57917   1.126  24.146  24.310  0.1643  0.1845  0.1935
14824W        W57918   0.303  23.578  28.192  0.1319 -0.0039  0.0693
14825W        W57919   3.289  23.149  27.222  0.0240  0.0811 -0.1709
14826W        W57920   3.118  23.081  26.463 -0.2959 -0.1059  0.2141
14827W        W57921   0.987  23.085  24.537 -0.2242 -0.1227 -0.2177
14828W        W57922   2.257  23.294  24.367  0.0250 -0.1428 -0.2167
14829W        W57923   1.234  25.320  25.797  0.0624  0.0199 -0.0538
14830W        W57924  34.141  25.186  25.143  0.0958  0.3128  0.3427
14831W        W57925  33.098  23.161  25.787  0.2380 -0.2380  0.3056
14832W        W57926   1.333  24.935  23.795  0.0396 -0.1705 -0.1152
14833W        W57927   3.750  21.570  25.232  0.1160  0.3249  0.0722
14834W        W57928   1.475  24.362  29.158  0.0220  0.1132 -0.0335
14835W        W57929   2.707  23.027  26.159  0.1247  0.1840 -0.0367
14836W        W57930  34.391  24.380  23.726 -0.2420  0.0864  0.2239
14837W        W57931   1.497  25.961  26.247  0.1203  0.2142 -0.1325
14838W        W57932   3.816  21.452  24.267  0.2262 -0.0200  0.1530
14839W        W57933   3.498  21.978  24.762 -0.2633  0.1368 -0.1141
14840W        W57934   2.355  24.895  27.581  0.0991  0.5107  0.0867
14841W        W57935   3.353  24.155  23.648 -0.0247 -0.2062 -0.0465
14842W        W57936   2.281  23.268  23.344 -0.4257  0.2003 -0.0457
14843W        W57937   2.282  22.545  24.397  0.1073 -0.0166 -0.0079
14844W        W57938   0.851  25.054  28.335 -0.0248 -0.0675 -0.2361
14845W        W57939  34.337  25.126  24.279 -0.1445  0.3868  0.1665
14846W        W57940   0.983  25.744  24.408  0.0237 -0.0318 -0.1269
14847W        W57941   2.680  23.164  23.765  0.0542 -0.0634 -0.0045
14848W        W57942   3.220  25.000  23.456 -0.1320 -0.2119  0.1480
14849W        W57943  34.285  25.008  26.758 -0.1991 -0.3557  0.1846
14850W        W57944   1.419  25.927  27.063 -0.0795 -0.0810 -0.2720
14851W        W57945   0.341  25.029  24.962 -0.1528 -0.1916  0.2125
14852W        W57946   0.949  23.290  26.712  0.3732  0.1861  0.1389
14853W        W57947   0.762  24.024  23.534 -0.2975  0.1601  0.0757
14854W        W57948   2.596  23.015  24.707 -0.1191  0.2814 -0.1845
14855W        W57949  34.063  26.140  23.622 -0.3220 -0.0867  0.0013
14856W        W57950   4.169  22.790  25.149 -0.2188 -0.1930  0.1321
14857W        W57951   1.110  24.063  25.722  0.0361 -0.1696  0.0862
14858W        W57952   0.833  23.235  27.241 -0.0071  0.0729  0.1069
14859W        W57953   3.225  24.890  28.120 -0.2067  0.1000 -0.1717
14860W        W57954   3.048  22.943  24.360 -0.0331 -0.1763  0.2326
14861W        W57955   3.244  24.194  24.103 -0.2094  0.2932  0.0092
14862W        W57956   0.184  23.435  24.681  0.2574 -0.1099  0.0653
14863W        W57957   3.278  22.282  24.411 -0.0154 -0.0894 -0.1018
14864W        W57958   0.342  23.989  27.250 -0.1443  0.0304 -0.0641
14865W        W57959   0.534  25.847  26.529  0.1087  0.1382  0.0962
14866W        W57960   3.749  25.498  27.723 -0.1956 -0.0754  0.2302
14867W        W57961  34.557  24.836  25.212 -0.2176 -0.0478  0.1553
14868W        W57962   2.756  23.848  25.779 -0.1514 -0.1526 -0.0410
14869W        W57963   1.981  22.122  25.475  0.2258  0.0928  0.0766
14870W        W57964   2.256  24.944  22.795 -0.1807  0.1389 -0.1200
14871W        W57965   0.266  24.206  23.629 -0.0333 -0.0897  0.2850
14872W        W57966   2.524  22.331  26.875  0.3179  0.1698  0.1488
14873W        W57967   1.077  24.581  25.554  0.0021  0.0514 -0.1109
14874W        W57968   0.469  26.042  24.999 -0.0905  0.0143 -0.1858
14875W        W57969   3.053  23.418  26.810  0.2599  0.1697 -0.1578
14876W        W57970  33.877  25.411  24.210  0.0883 -0.0091  0.3198
14877W        W57971   2.851  22.582  25.994  0.0912  0.1040 -0.0658
14878W        W57972  33.818  25.981  26.735  0.0710  0.1140 -0.2587
14879W        W57973   0.452  25.122  23.691  0.1494 -0.0027 -0.1445
14880W        W57974   1.054  23.303  25.005  0.3033 -0.0725  0.1505
14881W        W57975   4.805  21.717  22.376  0.1092  0.0996  0.1416
14882W        W57976   2.247  24.074  22.827  0.0402  0.1740  0.1408
14883W        W57977   0.582  22.467  26.200  0.0596 -0.1588 -0.0692
14884W        W57978   2.297  22.918  25.233  0.2834 -0.0456  0.1430
14885W        W57979   0.073  25.777  26.751  0.1662  0.1774 -0.1067
14886W        W57980   1.856  24.138  24.790 -0.0134  0.2804  0.3165
14887W        W57981   1.612  23.673  23.130 -0.1672  0.0112  0.1066
14888W        W57982   1.587  25.324  25.392 -0.3391 -0.0492 -0.1264
14889W        W57983   2.069  23.608  26.348 -0.0976 -0.3361 -0.1192
14890W        W57984  34.656  22.271  24.783 -0.4885  0.1439 -0.0215
14891W        W57985   3.251  24.166  28.445 -0.2672 -0.1708  0.0700
14892W        W57986   2.283  23.134  26.409  0.4557  0.0089  0.2655
14893W        W57987  34.515  25.248  24.863  0.1283  0.3398  0.0510
14894W        W57988   1.181  25.218  26.356 -0.3879  0.2485  0.1125
14895W        W57989   0.158  22.157  26.265  0.1314  0.1808 -0.2011
14896W        W57990   0.326  24.775  25.502  0.1507  0.2351 -0.1405
14897W        W57991   2.249  23.947  26.059  0.1621  0.0882 -0.2400
14898W        W57992   2.865  22.572  26.563  0.2035  0.1422 -0.0415
14899W        W57993   2.345  23.373  25.474 -0.1068 -0.0825  0.4268
14900W        W57994   1.398  22.480  25.193 -0.0541 -0.0203  0.2477
14901W        W57995   1.876  23.215  25.107 -0.1016  0.0708  0.1773
14902W        W57996   3.461  23.661  27.061  0.0193  0.0274  0.3032
14903W        W57997   3.250  23.374  25.261  0.0030  0.3735 -0.2084
14904W        W57998   1.156  23.785  28.159  0.0949 -0.1553  0.0387
14905W        W57999   2.374  21.831  26.751  0.0781 -0.0685  0.0694
14906W        W58000   3.050  25.414  23.063  0.1963  0.0125  0.0122
14907W        W58001   1.898  25.573  28.481  0.0220  0.2100  0.2061
14908W        W58002  34.308  24.621  23.268 -0.2123  0.1046 -0.6004
14909W        W58003  34.481  24.141  27.031 -0.2692  0.2186 -0.0672
14910W        W58004   1.169  25.020  25.383 -0.0409  0.0787 -0.0120
14911W        W58005   2.999  23.471  26.165 -0.1414  0.1374 -0.3055
14912W        W58006   1.090  23.663  25.992  0.1218  0.1559  0.1598
14913W        W58007  34.460  24.882  23.875 -0.2356  0.1112 -0.0253
14914W        W58008   1.431  24.622  27.599  0.0317 -0.1998 -0.2488
14915W        W58009   2.105  21.672  23.084 -0.0757 -0.1505 -0.2078
14916W        W58010   1.350  24.172  24.871 -0.0109 -0.4723 -0.1610
14917W        W58011   1.144  21.282  23.936  0.0125 -0.1097 -0.3807
14918W        W58012   4.493  22.493  27.495  0.2571 -0.0368 -0.1609
14919W        W58013   2.292  23.846  23.269 -0.2883 -0.2375  0.3802
14920W        W58014   3.173  22.794  26.950  0.1167  0.0469  0.4180
14921W        W58015   0.383  22.991  26.019  0.0529 -0.0792  0.2681
14922W        W58016   2.130  25.047  25.995 -0.0581 -0.1007  0.6896
14923W        W58017  34.442  22.593  26.193 -0.1687  0.0299 -0.2325
14924W        W58018   2.103  26.621  25.829 -0.0407  0.1522 -0.1279
14925W        W58019   1.285  23.484  26.426  0.2393 -0.1637  0.0083
14926W        W58020   1.751  21.777  24.164  0.0706 -0.0842 -0.0350
14927W        W58021  34.430  22.774  25.756  0.1358  0.1020  0.0780
14928W        W58022   0.819  25.084  25.737  0.2107 -0.2827 -0.1374
14929W        W58023   2.850  24.651  25.057 -0.4533  0.0925 -0.0061
14930W        W58024   1.609  26.153  23.967  0.0997 -0.1689  0.0237
14931W        W58025   2.776  25.142  25.103 -0.1025  0.2554 -0.3152
14932W        W58026   2.224  23.022  25.945  0.4191 -0.0240 -0.3549
14933W        W58027   2.706  24.130  24.195 -0.2752  0.2832  0.0032
14934W        W58028   1.044  23.746  24.698 -0.2480  0.1765  0.0959
14935W        W58029   1.033  23.951  26.647 -0.1550 -0.0009  0.2287
14936W        W58030   1.233  23.372  27.473  0.2281  0.2417  0.0736
14937W        W58031   2.270  25.516  25.271 -0.1277  0.3078  0.1229
14938W        W58032   2.806  21.429  24.489  0.0801  0.0865  0.1421
14939W        W58033   2.745  22.739  25.123  0.1371 -0.2697 -0.0814
14940W        W58034   2.812  24.537  27.839 -0.0444 -0.3281 -0.0249
14941W        W58035   0.942  23.191  26.132 -0.3038 -0.2570 -0.3477
14942W        W58036  33.673  22.626  27.781  0.1108 -0.0689  0.2917
14943W        W58037   2.865  24.618  26.246 -0.1881  0.0165 -0.0797
14944W        W58038   4.070  24.738  23.921 -0.2574 -0.1563 -0.0220
14945W        W58039   4.459  23.545  27.291 -0.2223  0.0373 -0.1436
14946W        W58040   3.221  24.831  24.723  0.1965  0.0348 -0.1370
14947W        W58041   1.558  23.317  23.733  0.0107  0.0403  0.1951
14948W        W58042   1.484  22.306  25.678  0.2387  0.0469  0.0426
14949W        W58043   3.359  25.154  27.695  0.1213  0.0613  0.0738
14950W        W58044   0.413  22.493  24.865 -0.3078 -0.0040 -0.1210
14951W        W58045   2.660  23.682  25.220  0.2223 -0.0971 -0.0724
14952W        W58046   0.975  24.335  23.843  0.2922  0.0370 -0.4553
14953W        W58047   1.815  26.303  23.511  0.0785  0.0733  0.2240
14954W        W58048   0.711  24.844  25.229  0.2453 -0.0437 -0.1398
14955W        W58049   0.861  22.815  25.802  0.0952 -0.2015 -0.0192
14956W        W58050   0.412  25.347  26.588 -0.1084 -0.0947  0.1321
14957W        W58051   1.116  23.109  23.908 -0.0364  0.2541 -0.0762
14958W        W58052   2.333  23.754  24.073  0.2770 -0.1744 -0.0198
14959W        W58053   2.391  24.979  26.531 -0.0475 -0.1256  0.2015
14960W        W58054   3.540  24.282  29.236 -0.2471 -0.0134  0.0009
14961W        W58055   1.784  22.538  24.520 -0.3043 -0.1779 -0.0299
14962W        W58056   5.527  23.624  27.601  0.0967  0.0425  0.2510
14963W        W58057  33.175  24.315  22.965 -0.2393 -0.2789  0.1229
14964W        W58058   2.102  24.599  25.727 -0.1569 -0.3130  0.1081
14965W        W58059  33.889  26.528  26.950 -0.1428  0.0941 -0.1976
14966W        W58060   0.249  24.436  26.906  0.2427 -0.1263 -0.3049
14967W        W58061   0.364  23.901  25.690  0.0951  0.0115 -0.0970
14968W        W58062   2.991  24.502  25.780  0.0855  0.3866 -0.0074
14969W        W58063   1.502  24.401  25.845  0.0602 -0.1233  0.0630
14970W        W58064   1.855  24.836  24.635  0.0337 -0.1727 -0.0541
14971W        W58065   4.157  23.766  28.549  0.1485 -0.0034 -0.0897
14972W        W58066   3.012  25.999  27.716  0.0875 -0.1685  0.1094
14973W        W58067   0.640  23.181  25.493 -0.0610 -0.1486  0.4961
14974W        W58068   2.739  26.248  26.514  0.0113 -0.0729  0.0353
14975W        W58069   4.467  24.119  26.895  0.0407 -0.1109 -0.0803
14976W        W58070   1.235  24.627  25.103  0.1833 -0.3459 -0.0559
14977W        W58071  33.653  23.396  26.131 -0.0638  0.1082  0.0755
14978W        W58072   2.259  24.459  27.821  0.1404  0.1326 -0.0991
14979W        W58073   1.474  22.992  25.315  0.1829  0.0252  0.1805
14980W        W58074  34.528  23.452  23.818  0.1366 -0.0445 -0.2201
14981W        W58075   1.760  24.020  23.488 -0.2237  0.0284  0.2284
14982W        W58076   0.053  25.861  27.954 -0.1695 -0.0597 -0.0769
14983W        W58077   0.189  23.595  26.817 -0.1130  0.0825 -0.0182
14984W        W58078   0.348  24.201  22.843 -0.2819 -0.1172  0.0544
14985W        W58079   1.570  24.765  25.490  0.2343 -0.0471 -0.2668
14986W        W58080   2.308  23.389  24.980  0.4918  0.0033 -0.2247
14987W        W58081   2.541  25.496  26.594 -0.0374  0.0346  0.2147
14988W        W58082   1.081  22.450  23.674 -0.1738  0.0004 -0.0340
14989W        W58083   1.005  24.730  26.116  0.1659  0.0545 -0.0286
14990W        W58084  34.033  23.545  25.209 -0.1342  0.3417 -0.1019
14991W        W58085   1.514  24.513  24.497 -0.0687 -0.0398 -0.1995
14992W        W58086   2.054  25.469  26.409 -0.1031  0.2625 -0.4593
14993W        W58087   3.776  24.201  27.205 -0.0007  0.2001  0.0796
14994W        W58088   3.242  22.291  23.783 -0.1764  0.2373  0.2623
14995W        W58089   3.179  25.439  27.273  0.0624 -0.0194  0.1063
14996W        W58090   2.146  24.390  25.289 -0.1477 -0.1309  0.0701
14997W        W58091   2.501  26.011  27.907 -0.0078 -0.0308  0.0756
14998W        W58092   1.527  23.845  24.412 -0.3405  0.0578  0.1421
14999W        W58093   1.100  21.911  23.851  0.3904  0.2635  0.0235
15000W        W58094   1.668  23.684  26.747  0.0428 -0.0295  0.0626
15001W        W58095   4.291  23.045  27.378  0.1102  0.1557 -0.3229
15002W        W58096  34.502  26.533  28.673 -0.2472  0.0002  0.1020
15003W        W58097   2.800  24.897  23.089  0.2543  0.2075  0.1446
15004W        W58098  34.578  23.324  25.118  0.2537 -0.0357 -0.2264
15005W        W58099   0.212  23.961  24.482  0.2508  0.0806 -0.2064
15006W        W58100   4.841  21.549  25.151  0.0989  0.6767  0.1305
15007W        W58101  34.217  24.761  24.781  0.1380  0.0709  0.3233
15008W        W58102   3.713  23.284  24.966 -0.0155  0.0553  0.0066
15009W        W58103   2.146  25.591  24.391  0.2723 -0.0749 -0.0031
15010W        W58104   1.172  24.285  26.228 -0.3131  0.0462  0.1611
15011W        W58105   0.910  24.626  27.153 -0.1973  0.0789  0.0446
15012W        W58106  33.236  22.577  26.004  0.0012 -0.2845  0.0035
15013W        W58107   3.552  24.069  26.762 -0.0071  0.2356 -0.0329
15014W        W58108   0.439  24.030  26.688 -0.0710  0.0484  0.1882
15015W        W58109   3.188  23.225  27.750  0.0619  0.0671 -0.3260
15016W        W58110  34.306  23.196  25.993 -0.0054  0.1635 -0.1723
15017W        W58111   1.839  24.601  26.219 -0.1758 -0.0702 -0.3640
15018W        W58112   2.045  24.197  26.488 -0.1915 -0.1766  0.1178
15019W        W58113   0.648  22.758  27.465 -0.0522 -0.1170 -0.1936
15020W        W58114   2.907  24.418  24.573  0.3201  0.0546  0.0066
15021W        W58115   3.749  25.124  28.133 -0.1687 -0.0459 -0.0598
15022W        W58116   1.800  23.367  24.320  0.4866  0.1084 -0.0679
15023W        W58117   2.001  25.179  28.216 -0.0399  0.0530  0.0116
15024W        W58118   1.007  22.134  24.595 -0.3253 -0.1557  0.1660
15025W        W58119   2.324  23.913  25.523  0.1972 -0.2453  0.1778
15026W        W58120   1.194  23.481  24.227  0.1750 -0.1244  0.1977
15027W        W58121   1.442  23.712  25.672 -0.0674  0.0538  0.1040
15028W        W58122   4.112  25.168  28.517 -0.0717  0.2243  0.0443
15029W        W58123   0.423  22.974  24.477  0.0322  0.1258  0.2655
15030W        W58124   2.809  24.413  22.181 -0.2785 -0.4814  0.0208
15031W        W58125   3.971  23.237  26.995 -0.0951 -0.1197  0.1027
15032W        W58126   1.433  25.893  22.219 -0.0156 -0.2372 -0.0520
15033W        W58127   1.431  25.017  24.969  0.0596 -0.1956  0.0411
15034W        W58128   2.025  25.087  25.538  0.1921 -0.0912  0.1872
15035W        W58129  34.341  22.987  26.625 -0.1203  0.0413 -0.0043
15036W        W58130   1.298  26.281  25.954 -0.0475 -0.0285 -0.1590
15037W        W58131   4.396  25.025  26.665 -0.0542 -0.4327  0.2565
15038W        W58132   1.849  21.091  25.817 -0.0547 -0.1043  0.2108
15039W        W58133  34.678  23.173  26.306  0.2932 -0.2513  0.5425
15040W        W58134  33.650  25.206  25.289  0.0028 -0.1262 -0.1406
15041W        W58135   4.192  23.318  26.495  0.2561 -0.1199  0.1308
15042W        W58136   3.128  24.209  26.624 -0.0612 -0.0774 -0.2904
15043W        W58137   1.261  25.457  22.919  0.1465  0.0392  0.0556
15044W        W58138   4.578  23.159  26.889  0.1967 -0.0356  0.4440
15045W        W58139   2.675  24.126  26.974  0.2309 -0.3006  0.1740
15046W        W58140   0.397  25.500  28.046 -0.2508  0.0599  0.0333
15047W        W58141  34.212  23.867  23.965 -0.4505  0.1438  0.1397
15048W        W58142   2.404  23.916  26.639  0.0565 -0.1179 -0.0556
15049W        W58143  34.459  23.693  25.470 -0.2444  0.0165  0.2328
15050W        W58144   1.790  25.803  23.610  0.1481 -0.4131 -0.1922
15051W        W58145   2.491  25.189  25.549 -0.1333 -0.1038 -0.1576
15052W        W58146   1.002  22.855  25.260  0.1641 -0.1508 -0.0376
15053W        W58147   3.580  24.389  25.733 -0.2972  0.0198 -0.0358
15054W        W58148   2.009  22.058  24.562 -0.0180  0.2463  0.1040
15055W        W58149   4.185  22.348  24.845  0.1908 -0.3296  0.2781
15056W        W58150   2.548  22.872  24.188 -0.0153 -0.2520 -0.0738
15057W        W58151   2.339  24.638  26.159  0.2225  0.0895 -0.2558
15058W        W58152   0.059  23.927  23.969 -0.3295 -0.0545 -0.0786
15059W        W58153   0.543  24.871  24.580  0.0750  0.0801 -0.0050
15060W        W58154   0.726  24.073  26.248 -0.0537 -0.4740  0.1247
15061W        W58155   3.361  21.531  27.288 -0.2406 -0.4098 -0.0792
15062W        W58156   0.803  24.093  27.765 -0.1178 -0.1485 -0.0101
15063W        W58157  34.502  21.792  24.672  0.1064 -0.2429 -0.3719
15064W        W58158   0.594  23.019  24.996 -0.2170 -0.1317 -0.1171
15065W        W58159   1.929  23.722  25.367 -0.2101 -0.1028 -0.0398
15066W        W58160   1.825  22.741  26.277 -0.0748 -0.0491 -0.3836
15067W        W58161   1.271  21.676  24.301  0.1903  0.1097  0.0518
15068W        W58162   0.294  24.513  25.021  0.0533 -0.1800  0.0950
15069W        W58163   2.269  24.823  25.077 -0.0675  0.1468  0.1543
15070W        W58164   1.461  22.712  23.880 -0.0456  0.1534  0.0854
15071W        W58165   4.036  25.608  28.207  0.1487 -0.3036  0.0229
15072W        W58166  33.762  25.356  23.538  0.0243  0.2721 -0.1318
15073W        W58167   2.535  24.351  25.807 -0.0624 -0.1452 -0.1465
15074W        W58168   1.766  24.127  26.984  0.0538 -0.1921 -0.1786
15075W        W58169  33.567  22.760  24.431  0.1266 -0.1064  0.4249
15076W        W58170   1.910  22.609  25.653  0.0351  0.0661 -0.0029
15077W        W58171   1.881  26.860  24.386  0.0374 -0.2663  0.0429
15078W        W58172   2.179  26.448  24.508  0.0962  0.1442 -0.1299
15079W        W58173   2.300  25.524  27.881  0.2031  0.1022 -0.0880
15080W        W58174   2.837  25.017  27.332 -0.0289  0.0987 -0.1191
15081W        W58175   1.566  22.204  26.685 -0.3136  0.1951  0.2052
15082W        W58176   3.550  24.591  23.924  0.0612 -0.1011  0.1003
15083W        W58177   0.682  24.450  25.898 -0.1173  0.0234 -0.2330
15084W        W58178   2.188  24.416  23.270  0.1258  0.1602  0.1560
15085W        W58179   5.058  23.677  26.149 -0.0892  0.0204 -0.0507
15086W        W58180   2.283  24.082  23.681  0.5614 -0.2057 -0.1108
15087W        W58181  34.508  22.227  27.959  0.0778 -0.0775 -0.0777
15088W        W58182   2.479  25.394  27.058 -0.2070  0.1116 -0.2432
15089W        W58183   3.651  24.708  27.784 -0.1755  0.3869 -0.1650
15090W        W58184   1.396  23.644  25.186  0.0288  0.1604  0.1483
15091W        W58185   3.024  23.744  23.910  0.3317  0.3387  0.2238
15092W        W58186   2.913  26.755  24.337  0.1397 -0.0682 -0.2063
15093W        W58187   0.852  23.763  27.378  0.3193  0.0523  0.2372
15094W        W58188   1.930  22.248  24.118  0.2787  0.0746 -0.0817
15095W        W58189   3.688  22.389  25.062  0.1315  0.4678 -0.0236
15096W        W58190   1.618  25.451  26.150  0.1070 -0.3454  0.2052
15097W        W58191   2.792  25.044  26.864 -0.0823  0.2573  0.4068
15098W        W58192   2.490  23.741  24.575  0.0570 -0.2350  0.4575
15099W        W58193   4.125  24.394  22.869 -0.0251  0.1079  0.4374
15100W        W58194   2.257  25.785  27.299  0.2463  0.1957 -0.2048
15101W        W58195   2.896  26.551  27.629 -0.4074 -0.0525 -0.0175
15102W        W58196   1.737  26.134  26.645  0.3400 -0.1522  0.1256
15103W        W58197   3.786  24.647  26.559  0.2184  0.0520  0.3162
15104W        W58198   0.492  22.299  26.652  0.0332  0.1769 -0.2259
15105W        W58199   0.079  22.915  24.911 -0.1619 -0.2753 -0.0652
15106W        W58200   0.672  23.449  23.175  0.0925 -0.1054  0.1661
15107W        W58201   2.590  24.696  25.483  0.0390 -0.2586 -0.2296
15108W        W58202   0.764  22.633  24.498 -0.2913 -0.2629  0.2567
15109W        W58203   2.804  22.328  25.505  0.1517  0.2100  0.1357
15110W        W58204   1.774  25.772  27.471  0.0477 -0.0158  0.0784
15111W        W58205   1.980  24.724  27.306  0.0558 -0.1825  0.1279
15112W        W58206   1.519  23.269  30.115  0.2431 -0.0215  0.1622
15113W        W58207   2.267  23.398  27.925 -0.1473  0.0602  0.0092
15114W        W58208   3.262  23.742  26.495  0.2806 -0.1779  0.5391
15115W        W58209   2.605  24.424  29.369 -0.4051  0.0664 -0.0144
15116W        W58210   0.039  21.845  28.488 -0.0432 -0.0477  0.0143
15117W        W58211   3.235  24.794  28.629  0.2681 -0.3223  0.1293
15118W        W58212   1.083  21.149  31.102 -0.3325 -0.3281  0.0896
15119W        W58213   2.877  24.273  29.792 -0.0343 -0.3726  0.0300
15120W        W58214   3.980  23.740  31.070  0.4605  0.1556  0.2705
15121W        W58215   2.734  25.483  27.469 -0.1434 -0.2769 -0.5044
15122W        W58216   1.544  21.859  30.242  0.0862  0.0077  0.0383
15123W        W58217   0.338  26.585  28.837 -0.0765  0.0381 -0.0193
15124W        W58218   0.647  22.411  27.884 -0.2123 -0.3294  0.0750
15125W        W58219   0.600  22.298  29.458  0.0699  0.3921  0.0891
15126W        W58220   3.536  24.347  30.538  0.2197 -0.1917 -0.2181
15127W        W58221   1.148  22.474  28.703  0.2175  0.0183  0.2805
15128W        W58222   2.664  20.673   0.038 -0.2107  0.1200  0.0615
15129W        W58223   2.339  24.044  29.149 -0.0480  0.3984  0.2528
15130W        W58224   2.468  24.704  29.817  0.3506  0.2090 -0.0829
15131W        W58225   1.708  22.459  30.184  0.1238  0.1376  0.4063
15132W        W58226   1.713  22.186  29.028  0.1115  0.2719  0.2705
15133W        W58227   1.859  23.953  29.378  0.1263 -0.0286 -0.1071
15134W        W58228   0.444  23.758  27.703 -0.0643  0.4583  0.0947
15135W        W58229   1.984  22.020  30.979  0.1789 -0.1152  0.0503
15136W        W58230   1.569  22.227  30.594  0.0897  0.0086 -0.1915
15137W        W58231   3.034  22.269  29.751 -0.1529 -0.0549 -0.0835
15138W        W58232   2.965  24.919  29.048 -0.0587 -0.3588 -0.1069
15139W        W58233   1.209  25.175  29.950 -0.0543 -0.0493  0.2057
15140W        W58234   0.948  24.738  29.918  0.0333 -0.0162 -0.0297
15141W        W58235   1.990  23.075  30.248 -0.1678 -0.0669 -0.1927
15142W        W58236   0.610  22.710  28.691  0.1329  0.1544  0.0388
15143W        W58237  34.408  25.747  28.856  0.2931 -0.2415 -0.0324
15144W        W58238   2.213  23.164  29.474 -0.2345 -0.1590 -0.1081
15145W        W58239   5.535  23.238  30.124  0.0570 -0.0329 -0.1879
15146W        W58240   3.542  24.653  29.669 -0.3428  0.2364 -0.2832
15147W        W58241   0.161  25.152  31.607 -0.1452 -0.0633  0.0466
15148W        W58242   0.555  24.428  27.452  0.1896  0.0261 -0.1495
15149W        W58243   1.348  27.576  30.217 -0.2537  0.1681  0.1214
15150W        W58244   1.509  24.916  30.713 -0.4220  0.0502  0.1256
15151W        W58245   3.422  23.495  30.190 -0.1525  0.1279 -0.1191
15152W        W58246   3.554  23.319  29.321  0.0433  0.1547 -0.3109
15153W        W58247   1.940  23.750  27.567 -0.1220 -0.4634 -0.3324
15154W        W58248   2.802  25.058  30.942  0.1416  0.1591  0.0495
15155W        W58249  34.378  25.374  31.487 -0.1131 -0.0307  0.3202
15156W        W58250   0.653  24.786  29.400 -0.1317 -0.1290 -0.4480
15157W        W58251   2.503  23.162  30.343 -0.1543 -0.2564  0.1690
15158W        W58252   0.872  25.152  27.254  0.0387  0.1574  0.2218
15159W        W58253   3.039  24.371  28.877  0.0410 -0.0265 -0.2906
15160W        W58254   1.738  23.244  26.496  0.1657 -0.1425  0.1623
15161W        W58255   5.161  23.814  27.303  0.1629  0.1062 -0.1019
15162W        W58256   0.287  22.096  28.117 -0.1533  0.2774 -0.3677
15163W        W58257   0.593  26.754  29.832 -0.1288 -0.0429 -0.1266
15164W        W58258   1.347  21.472  28.658  0.1195 -0.0579 -0.0397
15165W        W58259   2.560  22.345  30.589 -0.0471 -0.1112 -0.0162
15166W        W58260   3.097  23.607  29.307 -0.4791  0.0909  0.2744
15167W        W58261   3.051  24.176  29.309  0.1729 -0.0034 -0.0356
15168W        W58262   0.989  24.218  29.103  0.1118 -0.1860  0.1821
15169W        W58263   1.737  22.910  29.836 -0.0025  0.1154 -0.0018
15170W        W58264   3.329  26.313  27.968 -0.2598 -0.0970  0.0403
15171W        W58265   1.763  27.683  26.680 -0.0157  0.1244 -0.2139
15172W        W58266   1.728  24.850  29.119  0.1489 -0.4629  0.0733
15173W        W58267   1.247  22.725  29.515 -0.0555 -0.1321  0.0275
15174W        W58268  34.282  23.659  30.757  0.1536  0.2378  0.1361
15175W        W58269   0.758  21.816  29.249 -0.0293  0.1491 -0.1452
15176W        W58270   1.093  22.081  27.839  0.0920 -0.1881  0.0040
15177W        W58271   4.983  22.807  30.805  0.0107 -0.1351  0.2303
15178W        W58272   0.579  23.217  30.606  0.0131  0.1448 -0.0133
15179W        W58273   3.205  22.039  28.841  0.0575 -0.1487  0.0903
15180W        W58274   0.542  23.968  29.457 -0.3854  0.1215  0.3902
15181W        W58275   3.521  25.609  30.450  0.1009  0.2698  0.3420
15182W        W58276   1.491  26.208  28.094  0.4441 -0.2686 -0.0810
15183W        W58277   3.325  22.901  28.970 -0.0673  0.0770 -0.1056
15184W        W58278   2.382  21.027  30.225  0.5089  0.0894  0.0432
15185W        W58279   1.724  24.216  27.482  0.1292 -0.2048 -0.2095
15186W        W58280   2.451  24.764  28.132  0.0777  0.1665  0.3074
15187W        W58281   3.461  24.196  31.568 -0.2707 -0.1513 -0.0044
15188W        W58282   2.569  24.388  28.853 -0.1358 -0.0410 -0.1853
15189W        W58283   0.513  25.242  28.608  0.1254  0.1029 -0.1888
15190W        W58284   0.453  22.642   0.652 -0.1046  0.1356  0.3554
15191W        W58285   1.066  24.804  31.431  0.3070 -0.0824 -0.2087
15192W        W58286   0.927  26.306  27.547 -0.2343 -0.1346 -0.2641
15193W        W58287   0.918  23.231  29.299  0.1168  0.3338 -0.1540
15194W        W58288   1.730  23.539  28.634  0.2090 -0.1367  0.1557
15195W        W58289   0.938  20.609  30.993  0.0737  0.0602 -0.4587
15196W        W58290   3.497  22.970  30.880  0.1862 -0.2202 -0.3584
15197W        W58291   4.569  21.897  27.824  0.0057  0.0897  0.0177
15198W        W58292   0.724  21.893  28.213 -0.0066 -0.0062  0.1617
15199W        W58293   2.535  22.415  29.767  0.4138  0.1027 -0.3785
15200W        W58294   1.160  24.037  28.638  0.1718  0.0321 -0.2237
15201W        W58295   4.387  25.520  29.339 -0.2829 -0.1105 -0.1093
15202W        W58296   3.874  24.169  29.624 -0.1553 -0.3816  0.2231
15203W        W58297   3.297  25.741  28.652 -0.1991 -0.0469 -0.2910
15204W        W58298   0.723  22.746  31.415 -0.0501  0.1869  0.0117
15205W        W58299   1.416  22.017  28.663  0.4660  0.2102  0.0230
15206W        W58300   0.131  22.040  30.401 -0.0059  0.0369 -0.0347
15207W        W58301   0.349  22.681  29.718 -0.0745  0.1072 -0.0332
15208W        W58302   3.068  23.829  31.600  0.0465  0.0691  0.2493
15209W        W58303  34.674  21.732  27.968  0.2067 -0.2835  0.1914
15210W        W58304   3.355  23.983  28.897 -0.0471  0.2652 -0.2140
15211W        W58305   2.348  24.332  28.427  0.0627 -0.0920  0.2693
15212W        W58306   1.735  23.651  28.036  0.0907 -0.1792 -0.3714
15213W        W58307   3.361  22.323  31.463  0.2036 -0.2510 -0.1536
15214W        W58308   2.094  24.589  29.561  0.2811  0.2350  0.2206
15215W        W58309   4.839  25.018  31.178 -0.1304 -0.0225 -0.3009
15216W        W58310   3.595  25.926  28.178 -0.0342  0.0575 -0.2049
15217W        W58311   1.392  23.548  31.468  0.1528  0.1112  0.0392
15218W        W58312   0.562  22.859  28.010  0.1833 -0.1954 -0.0207
15219W        W58313   1.463  26.355  29.641 -0.1401 -0.2014  0.0362
15220W        W58314   1.378  23.701  29.474  0.0363  0.0029  0.0172
15221W        W58315   1.158  24.149  27.348 -0.0306 -0.0085 -0.4284
15222W        W58316   5.039  24.153  29.658 -0.0070 -0.3635  0.1041
15223W        W58317   2.641  23.561  29.030  0.0349 -0.1124  0.4339
15224W        W58318   0.610  22.783  30.136 -0.0656  0.3086 -0.2841
15225W        W58319   2.360  21.613  30.095 -0.4435  0.1365 -0.1202
15226W        W58320   4.211  23.015  30.237  0.0195  0.0704  0.1948
15227W        W58321   2.533  22.698  28.009 -0.0532  0.0885 -0.2018
15228W        W58322   1.676  23.303  27.664 -0.0937  0.2631 -0.1823
15229W        W58323   2.346  24.181  29.692  0.6931  0.1074 -0.0644
15230W        W58324   0.446  26.234  28.163  0.2820 -0.2851  0.1896
15231W        W58325   0.765  23.763  28.443  0.1883 -0.3248 -0.0870
15232W        W58326   1.166  24.768  29.058  0.1222 -0.3430  0.0099
15233W        W58327   2.240  23.661  29.569 -0.1596 -0.0037  0.4257
15234W        W58328   0.023  22.324  31.427 -0.2984 -0.0357  0.0900
15235W        W58329   2.657  23.741  30.007  0.0023 -0.2128 -0.0413
15236W        W58330   0.097  22.851  27.882 -0.1878 -0.0454 -0.1033
15237W        W58331   0.761  23.531  29.632  0.1843 -0.0387 -0.1944
15238W        W58332   3.336  22.147  28.206 -0.3545 -0.0740  0.1104
15239W        W58333   3.947  22.681  27.476  0.0283 -0.1827  0.0888
15240W        W58334   3.249  23.288  31.582  0.0539 -0.1346  0.0673
15241W        W58335   3.550  23.997  30.043  0.2703 -0.1236 -0.1172
15242W        W58336   2.995  24.551  26.924 -0.2638  0.0709 -0.1414
15243W        W58337   3.759  23.553  25.923  0.1065  0.3370 -0.1153
15244W        W58338   0.281  23.139  29.549 -0.3479  0.0564  0.1660
15245W        W58339   1.591  23.990  28.420  0.1800 -0.2585 -0.0356
15246W        W58340   2.366  23.677  30.442 -0.2569 -0.1407  0.1914
15247W        W58341   2.796  23.199  27.294  0.3564 -0.0071 -0.3887
15248W        W58342   4.779  25.463  30.307  0.0680  0.5097 -0.2714
15249W        W58343   0.140  23.646  29.600 -0.0231 -0.0842  0.0035
15250W        W58344   3.755  24.235  30.988 -0.0555 -0.0568  0.2513
15251W        W58345   3.345  25.196  30.247  0.0259 -0.1784 -0.0110
15252W        W58346   2.136  22.296  29.334 -0.1846  0.0512  0.0464
15253W        W58347   2.634  23.473  26.513 -0.0138 -0.1002 -0.0801
15254W        W58348   1.848  21.593  29.053 -0.1293 -0.0680 -0.1058
15255W        W58349  34.336  25.871  27.150  0.1155  0.1212 -0.0908
15256W        W58350   2.886  22.914  29.713  0.0759  0.0153 -0.0698
15257W        W58351   2.476  23.075  28.339  0.0447  0.1011 -0.0080
15258W        W58352   2.296  21.835  29.110 -0.3155  0.2760 -0.0569
15259W        W58353   4.626  22.853  30.012  0.0737  0.2028 -0.2878
15260W        W58354   2.988  23.699  28.692 -0.4018  0.0838  0.2753
15261W        W58355   2.469  24.127  30.213  0.3629  0.3910  0.2450
15262W        W58356   1.902  24.192  28.036 -0.3070 -0.3580  0.0228
15263W        W58357   2.232  23.326  31.221 -0.2345 -0.2097 -0.0748
15264W        W58358   1.252  24.345  30.072 -0.0250  0.1185 -0.1747
15265W        W58359   0.797  24.145  30.311  0.1054 -0.0145  0.2546
15266W        W58360   1.614  24.735  31.163 -0.0020 -0.0022 -0.1124
15267W        W58361   2.142  23.798  28.278  0.0310  0.0047  0.2071
15268W        W58362   0.645  23.085   0.542 -0.0985 -0.0538  0.1749
15269W        W58363   4.165  22.854  28.413  0.0575  0.2247 -0.1702
15270W        W58364   0.769  25.954  28.474  0.1304  0.1121  0.0589
15271W        W58365   2.105  25.324  27.448 -0.3273  0.2964 -0.1113
15272W        W58366   2.621  21.478  28.346  0.1229  0.0712  0.1316
15273W        W58367   2.727  24.603  30.275  0.1499  0.2728 -0.0307
15274W        W58368   1.707  25.047  28.615  0.0181  0.0560 -0.3738
15275W        W58369   2.837  23.725  31.054 -0.1239 -0.1894 -0.2641
15276W        W58370   0.463  25.379  29.340  0.0295 -0.0177  0.1808
15277W        W58371   2.337  22.159  30.182 -0.1816  0.0843  0.1303
15278W        W58372   1.501  23.863  29.003 -0.0880  0.0137 -0.0996
15279W        W58373   2.686  24.020  28.130  0.0519  0.0188 -0.1409
15280W        W58374   1.895  23.608  30.393 -0.0502  0.0869 -0.2931
15281W        W58375   2.841  23.082  28.007  0.0170 -0.2339  0.0096
15282W        W58376   2.128  24.742  28.649 -0.1914  0.0501  0.3044
15283W        W58377   1.968  21.779  30.461 -0.0162  0.0584 -0.0012
15284W        W58378   1.787  23.046  28.748 -0.1352  0.1348  0.5155
15285W        W58379   0.091  24.839  29.097  0.3298  0.0848 -0.1339
15286W        W58380   2.882  23.780  30.565 -0.1794 -0.0636 -0.1147
15287W        W58381   3.805  24.030  28.318 -0.0343  0.0641 -0.0017
15288W        W58382   2.859  25.714  30.322  0.2813  0.4486  0.2165
15289W        W58383   1.768  24.408  29.956  0.2023 -0.0141  0.1956
15290W        W58384   0.754  22.579  26.994  0.0988 -0.3212  0.2154
15291W        W58385   2.843  22.578  31.176 -0.0619 -0.1335 -0.2809
15292W        W58386   3.169  23.721  29.782 -0.2173  0.1692  0.2418
15293W        W58387   0.277  26.062  28.635 -0.0116 -0.0445  0.1772
15294W        W58388   1.639  25.294  30.249  0.1240  0.0360  0.0341
15295W        W58389   2.406  22.976  29.854  0.1742 -0.1327 -0.2250
15296W        W58390   1.332  23.199  28.939 -0.0950 -0.5698 -0.3627
15297W        W58391   0.965  21.884  31.508  0.2186 -0.2683  0.0273
15298W        W58392   3.293  23.508  30.920  0.0575 -0.2962 -0.1081
15299W        W58393   2.775  23.199  28.728 -0.0364 -0.5264  0.0813
15300W        W58394   1.616  22.402  29.544 -0.2477  0.0033 -0.1124
15301W        W58395   3.600  22.390  29.631 -0.1895  0.1745 -0.3526
15302W        W58396   0.781  22.735  29.242 -0.1974 -0.1814 -0.0404
15303W        W58397   2.602  23.259  30.844 -0.1889 -0.0199 -0.0501
15304W        W58398   1.664  24.458  30.511 -0.2405 -0.1171  0.0420
15305W        W58399   2.255  21.682  28.614 -0.0629 -0.1043  0.1277
15306W        W58400   2.406  26.582  27.778  0.4039  0.0127 -0.0485
15307W        W58401   2.469  22.896  31.133 -0.0048 -0.1317 -0.0144
15308W        W58402   2.245  23.091  28.956 -0.1545 -0.0114 -0.1488
15309W        W58403  34.581  23.439  29.980  0.2443 -0.3601  0.1953
15310W        W58404   1.234  23.483  28.540  0.1966 -0.2621  0.0338
15311W        W58405   1.282  23.470  30.985 -0.1849 -0.1953 -0.1796
15312W        W58406   0.330  23.973  29.980 -0.2308  0.1225 -0.0487
15313W        W58407   1.559  24.472  28.565 -0.0740  0.0140  0.1009
15314W        W58408   0.108  24.454  30.114 -0.2746  0.0140  0.0779
15315W        W58409   4.709  21.379  27.333  0.0902  0.4343  0.2452
15316W        W58410   1.689  23.357  29.275  0.0485 -0.2342  0.2968
15317W        W58411   0.814  23.272  28.290  0.1648  0.1118 -0.1533
15318W        W58412   3.504  23.777  31.270  0.1268 -0.2329 -0.2098
15319W        W58413   2.469  23.923  28.694  0.1462  0.0817 -0.1247
15320W        W58414   2.157  21.536  30.915 -0.0207 -0.0179 -0.2563
15321W        W58415   1.170  21.443  29.445 -0.0442  0.0307  0.1784
15322W        W58416   3.423  24.657  30.952  0.1273 -0.3338  0.0763
15323W        W58417   1.329  20.655  31.316  0.4867 -0.2906  0.0102
15324W        W58418   2.123  25.584   0.473 -0.0601  0.0674  0.0214
15325W        W58419   0.093  23.272  30.406 -0.2346  0.1497  0.1850
15326W        W58420   2.090  23.633  29.083  0.1907  0.0494  0.1974
15327W        W58421   2.903  23.709  27.196  0.0922  0.2497 -0.2646
15328W        W58422   1.262  23.235  29.692 -0.0034  0.0099  0.2182
15329W        W58423   3.788  23.587  29.815 -0.2788 -0.0929  0.0048
15330W        W58424   2.844  25.112  27.871  0.4273 -0.1918  0.2391
15331W        W58425   3.329  22.638  29.965 -0.1084  0.0775  0.4944
15332W        W58426   1.857  22.826  29.346 -0.0869 -0.0196 -0.2417
15333W        W58427   4.194  23.829  29.532 -0.1597 -0.0038 -0.0119
15334W        W58428   2.762  24.438  27.337 -0.2987  0.1902 -0.0842
15335W        W58429   1.039  25.525  28.645 -0.1282 -0.1343  0.0844
15336W        W58430   1.011  21.516  30.046  0.0989  0.2502  0.1642
15337W        W58431   3.341  24.197  29.694 -0.0929  0.0084  0.2267
15338W        W58432   2.278  23.477  28.612 -0.1458  0.3248 -0.1700
15339W        W58433   2.176  22.843  31.681  0.1605  0.1912  0.0767
15340W        W58434   4.119  23.125  31.089  0.2834 -0.1177 -0.2411
15341W        W58435   3.562  23.882   0.179 -0.0457 -0.1694 -0.1700
15342W        W58436   1.815  21.139  31.911  0.1498  0.0026  0.2240
15343W        W58437   3.191  25.221  29.492 -0.1358  0.0011 -0.0319
15344W        W58438   2.893  24.045  27.637 -0.0855  0.2205 -0.0517
15345W        W58439   2.893  22.275  30.217 -0.1589 -0.0148 -0.1583
15346W        W58440   4.058  22.488  29.747 -0.1283  0.2391  0.0788
15347W        W58441   3.597  23.812  29.403  0.0694 -0.0994 -0.3402
15348W        W58442   0.825  22.366  30.315 -0.0753 -0.1999 -0.3299
15349W        W58443   4.107  23.469  31.509 -0.1178  0.0696 -0.0682
15350W        W58444   2.414  24.055  27.414  0.2179  0.1495 -0.1032
15351W        W58445   4.553  20.844  30.230 -0.0660 -0.0044  0.2193
15352W        W58446   1.323  25.937  28.469  0.2542  0.1907  0.0421
15353W        W58447   3.432  24.869  29.215 -0.2013  0.2763  0.4380
15354W        W58448   1.653  23.565  27.231  0.0273  0.1232 -0.1757
15355W        W58449   1.228  22.801  29.986  0.1284  0.3210  0.1807
15356W        W58450   0.866  24.862   0.316 -0.3140 -0.0615  0.0863
15357W        W58451  34.582  24.041  28.079 -0.4102 -0.2067  0.0287
15358W        W58452   1.864  24.613  26.788 -0.0029 -0.1437  0.1996
15359W        W58453   0.435  25.905  30.269 -0.0616 -0.1496  0.1365
15360W        W58454   4.616  22.948  31.148 -0.1227 -0.1333 -0.0712
15361W        W58455   3.217  21.734  26.858  0.1835  0.1279 -0.0363
15362W        W58456   3.725  22.541  30.688  0.1182 -0.2209  0.2609
15363W        W58457   1.752  25.424  27.809 -0.2836  0.0045  0.0753
15364W        W58458   2.315  22.212  28.722 -0.0894 -0.0883  0.1392
15365W        W58459   0.580  24.383  29.767 -0.0062  0.4050  0.1105
15366W        W58460   1.093  22.191  30.777  0.1157 -0.0708 -0.3321
15367W        W58461   1.318  24.757  28.204 -0.0520  0.4800  0.0210
15368W        W58462   2.067  22.489  29.821  0.2790 -0.2377 -0.3308
15369W        W58463   1.968  22.971  27.855  0.1039  0.0655  0.0101
15370W        W58464   3.237  24.582  30.122 -0.0201  0.1536 -0.0754
15371W        W58465   3.788  22.750  31.276 -0.0746  0.1159  0.1316
15372W        W58466   1.819  23.459  29.790  0.2294 -0.2666  0.2908
15373W        W58467   2.688  23.358  29.562 -0.2885 -0.0265 -0.0787
15374W        W58468   1.610  25.410  30.840  0.2988  0.1249 -0.2676
15375W        W58469   4.276  23.367  30.703 -0.0598  0.1229 -0.0060
15376W        W58470   0.467  23.434  29.237  0.2008  0.1487 -0.3080
15377W        W58471  34.339  23.070  29.644  0.1400  0.1364 -0.1258
15378W        W58472   1.188  23.118  31.911 -0.2008 -0.2545 -0.0260
15379W        W58473   4.247  23.396  29.840  0.1147  0.0112  0.1461
15380W        W58474   2.518  22.369  27.643  0.2248 -0.1794  0.1450
15381W        W58475   0.706  25.501  27.554  0.1841 -0.0892  0.1521
15382W        W58476   1.446  24.785  30.202  0.0267 -0.0858 -0.1483
15383W        W58477   1.794  23.556  31.107 -0.1402 -0.0150 -0.0758
15384W        W58478   1.486  25.026  27.379  0.0895 -0.0036  0.2333
15385W        W58479   3.802  25.110  28.939  0.0130 -0.0732 -0.1514
15386W        W58480   1.994  24.394  29.013 -0.0903  0.0732  0.1965
15387W        W58481   2.331  25.515  29.319 -0.0358 -0.1309 -0.2049
15388W        W58482   3.208  24.148  27.186  0.0657 -0.2340  0.0260
15389W        W58483   0.887  25.199  29.055 -0.0805 -0.0133  0.2187
15390W        W58484  34.555  25.280  28.992  0.0345 -0.4540 -0.4732
15391W        W58485   1.267  25.515  27.581  0.2262  0.2734 -0.1746
15392W        W58486   0.669  25.650  29.001 -0.1338  0.1856  0.0762
15393W        W58487   3.784  24.248  31.951  0.0198 -0.0107  0.0132
15394W        W58488   3.944  22.879  27.934  0.2461  0.1886  0.2509
15395W        W58489   3.895  23.989  30.513  0.2308 -0.0529 -0.1931
15396W        W58490   4.034  23.377  29.404 -0.0278  0.3300 -0.0465
15397W        W58491   3.748  25.281  31.163  0.3099  0.0288 -0.2697
15398W        W58492   2.938  23.321  30.058  0.2261 -0.1055  0.1515
15399W        W58493   1.447  22.390  26.260 -0.0709 -0.2312  0.1517
15400W        W58494   0.570  24.606  30.774 -0.4280 -0.0120  0.0168
15401W        W58495   2.936  22.095  31.297  0.0681 -0.1969 -0.0001
15402W        W58496   1.302  24.611   0.437 -0.3146  0.1928 -0.0377
15403W        W58497   2.302  25.187  28.715 -0.0600  0.0034 -0.2333
15404W        W58498   0.083  22.608  28.751  0.1606 -0.2036  0.0269
15405W        W58499   3.369  23.082  29.741  0.0504  0.1453  0.0144
15406W        W58500   4.159  21.498  31.516  0.1164 -0.2658 -0.1080
15407W        W58501   2.910  24.481  28.341  0.0870 -0.3692 -0.2203
15408W        W58502   3.384  22.456  28.625 -0.1967 -0.0395  0.0136
15409W        W58503   0.621  26.251  28.998  0.0280 -0.0210 -0.0877
15410W        W58504   1.511  24.730  29.576  0.0766  0.0841  0.0049
15411W        W58505   1.106  25.038  29.507 -0.6752  0.1629 -0.0876
15412W        W58506  33.463  22.055  26.598 -0.1850 -0.0291 -0.0288
15413W        W58507   4.160  23.882  30.057 -0.1559  0.0879  0.3298
15414W        W58508   0.597  23.027  31.045  0.2777  0.4730  0.1096
15415W        W58509   3.489  21.338  30.228  0.1074  0.3972  0.0487
15416W        W58510   1.444  22.739  29.038 -0.0615 -0.0837 -0.0534
15417W        W58511   4.266  23.338  27.764  0.0142 -0.1948  0.0741
15418W        W58512   2.705  23.886  29.460  0.0701  0.2143  0.0122
15419W        W58513   0.370  23.519  31.160 -0.2313  0.0198 -0.0237
15420W        W58514   2.010  23.269  26.889 -0.1337  0.2285  0.1312
15421W        W58515   4.028  22.540  30.271  0.1312  0.3247  0.2212
15422W        W58516   3.711  24.855  27.279 -0.2120  0.0311 -0.0043
15423W        W58517   1.540  26.191  31.372 -0.0773  0.0855  0.1452
15424W        W58518   0.245  23.013  29.041  0.0394 -0.2296  0.1113
15425W        W58519   2.486  23.065  27.662  0.2534 -0.0649 -0.2473
15426W        W58520   1.002  23.197  30.211  0.0720 -0.3512  0.0693
15427W        W58521   2.146  23.783  30.860 -0.1852 -0.1996 -0.0088
15428W        W58522   3.889  24.744  30.828  0.0119 -0.1492  0.0758
15429W        W58523   0.456  21.302  29.131  0.2522  0.0172 -0.0415
15430W        W58524   2.537  25.232  28.212  0.3410  0.0405  0.1624
15431W        W58525   3.621  22.958  30.337  0.0656  0.0291 -0.1874
15432W        W58526   0.925  26.547  28.689  0.2754 -0.1589  0.3327
15433W        W58527   3.566  24.517  28.808  0.1835  0.3853 -0.1372
15434W        W58528   2.211  23.475  30.027 -0.1055 -0.0324 -0.0129
15435W        W58529   0.226  21.251  31.454  0.0055  0.0512 -0.0134
15436W        W58530   3.050  25.508  29.940  0.1768 -0.1540 -0.0356
15437W        W58531   2.694  25.150  29.514 -0.1539  0.2328 -0.4586
15438W        W58532   2.060  22.623  28.905  0.1606 -0.5080  0.1126
15439W        W58533   1.013  22.719  28.129  0.1101 -0.2284  0.2440
15440W        W58534  34.555  26.000  28.397  0.1164  0.1108 -0.0629
15441W        W58535   3.124  23.357  28.380 -0.2358  0.0064 -0.0685
15442W        W58536   3.417  23.829  30.591 -0.0195  0.1209  0.3988
15443W        W58537   1.912  25.864  28.032 -0.0548  0.2706 -0.0382
15444W        W58538   2.496  21.663  31.259 -0.1373 -0.2823  0.0961
15445W        W58539   1.894  24.906  30.428 -0.1687  0.1958 -0.0749
15446W        W58540   1.162  25.310  30.574 -0.1644 -0.0256 -0.2540
15447W        W58541   1.298  23.220  28.062  0.0681 -0.0578 -0.0085
15448W        W58542   2.019  24.081  30.471  0.0668 -0.0422 -0.3168
15449W        W58543   1.843  24.666  28.195  0.0343 -0.4055  0.3700
15450W        W58544   1.098  25.182  27.907 -0.5068  0.1562 -0.4385
15451W        W58545   3.808  25.529  28.659 -0.2004 -0.1559  0.3544
15452W        W58546   2.674  23.539  28.296  0.2206  0.0143  0.0998
15453W        W58547   5.706  22.983  30.949  0.2617  0.2548 -0.0488
15454W        W58548   1.721  22.467  28.582 -0.2956  0.0236 -0.1158
15455W        W58549   3.755  23.613  28.975  0.0685  0.3010 -0.0091
15456W        W58550   2.563  22.754  27.271  0.0810 -0.2582  0.0918
15457W        W58551   0.551  24.595  30.250  0.0055  0.1054  0.1331
15458W        W58552  34.401  22.607  27.683  0.1565  0.1513 -0.0918
15459W        W58553   1.991  24.037  28.719  0.2289  0.1083 -0.0177
15460W        W58554   0.114  24.356  28.858  0.1579  0.1163  0.0574
15461W        W58555   1.726  21.921  29.489 -0.0823 -0.0810  0.2433
15462W        W58556   2.139  23.295  30.684  0.0792 -0.0781 -0.0560
15463W        W58557   1.317  22.204  29.941  0.1488 -0.1622  0.3451
15464W        W58558  34.605  23.095  28.663 -0.0436 -0.0375  0.3504
15465W        W58559   4.203  24.321  28.303  0.1386 -0.2812 -0.1873
15466W        W58560   1.802  22.646  30.695 -0.0591  0.0093  0.1197
15467W        W58561   1.367  20.820  29.427 -0.1703 -0.2604  0.0260
15468W        W58562   4.579  24.691  29.342  0.2256 -0.2696  0.2410
15469W        W58563   3.041  24.690  29.537  0.0632 -0.1224 -0.1924
15470W        W58564   1.954  23.218  28.295 -0.0235  0.5323 -0.0208
15471W        W58565   3.670  25.278  31.655 -0.0351 -0.1862 -0.1609
15472W        W58566  34.595  24.777  27.134 -0.0286 -0.0369 -0.0906
15473W        W58567   2.165  21.997  31.471  0.0473  0.0030  0.3366
15474W        W58568   2.099  21.236  31.470  0.2474  0.2020 -0.0197
15475W        W58569   0.272  22.521  28.263  0.2117  0.0539 -0.3073
15476W        W58570   1.601  22.584  31.182  0.2902  0.0336  0.2585
15477W        W58571   1.057  24.512  28.650 -0.1900  0.0775 -0.1303
15478W        W58572   2.783  25.658  28.037  0.0727 -0.1073  0.0729
15479W        W58573   1.974  25.434  29.931 -0.3046 -0.2031  0.2283
15480W        W58574   2.037  25.399  30.508 -0.0456  0.1124  0.0268
15481W        W58575  33.887  21.189  31.714 -0.3024  0.3617 -0.3095
15482W        W58576   2.382  24.845  29.079 -0.0631 -0.2203 -0.0540
15483W        W58577   1.352  23.526  30.495  0.0795 -0.0344  0.1011
15484W        W58578   4.241  25.217  28.022 -0.0658  0.3123  0.1890
15485W        W58579   3.885  22.015  29.885 -0.1265 -0.0107  0.2614
15486W        W58580   2.758  23.538  27.750 -0.2515  0.2372  0.1272
15487W        W58581   1.849  19.873  31.549  0.2528  0.0344  0.4210
15488W        W58582   1.274  22.670  30.651 -0.1916 -0.0302  0.2692
15489W        W58583   4.239  22.637  31.084 -0.0518 -0.2331  0.1297
15490W        W58584   1.806  22.001  28.382  0.2216 -0.0462  0.0563
15491W        W58585   3.695  22.882  27.090 -0.0490 -0.2440 -0.3248
15492W        W58586   2.870  25.449  28.502 -0.0007 -0.2129 -0.1723
15493W        W58587   0.846  22.451  29.814 -0.0418 -0.0795  0.4462
15494W        W58588   2.108  23.762  27.020 -0.0305 -0.1401 -0.1525
15495W        W58589   1.239  23.925  31.101  0.0131  0.1561  0.1984
15496W        W58590   2.089  25.110  29.488  0.0597  0.1652  0.1992
15497W        W58591   3.712  24.854  30.337 -0.2651 -0.1266  0.3527
15498W        W58592   2.181  24.338  27.068 -0.1409 -0.0540 -0.1992
15499W        W58593   3.844  24.987  29.880  0.1948  0.0203 -0.0067
15500W        W58594   2.362  25.083  30.165  0.0861  0.0543 -0.1518
15501W        W58595   3.440  25.617  31.038 -0.0038  0.4399 -0.0316
15502W        W58596   1.072  25.515  31.664  0.4292  0.2213 -0.0458
15503W        W58597   4.630  23.670  28.602  0.0059 -0.3413 -0.1859
15504W        W58598   1.080  21.827  30.389 -0.2006  0.2441 -0.0028
15505W        W58599   1.130  22.963  28.569  0.0246 -0.0318 -0.0133
15506W        W58600   2.216  24.562  30.333 -0.1576 -0.0394  0.3260
15507W        W58601   3.120  22.548  30.559 -0.1572  0.3213 -0.1491
15508W        W58602   0.810  22.340  28.329 -0.0393 -0.2026  0.3855
15509W        W58603   3.352  23.365  28.847 -0.2784 -0.1825  0.1638
15510W        W58604   1.125  25.853  30.712  0.0422 -0.3180  0.2890
15511W        W58605   3.856  23.041  29.915  0.1265 -0.0241  0.1391
15512W        W58606   2.449  21.176  31.137 -0.0899 -0.2549 -0.0260
15513W        W58607   2.992  23.144  31.161  0.1860  0.0162 -0.2761
15514W        W58608   0.708  23.155  31.802 -0.1288 -0.0214  0.0860
15515W        W58609   1.733  24.907   0.588  0.0979 -0.4160 -0.0261
15516W        W58610   2.835  24.745   0.196  0.2641 -0.2066 -0.0549
15517W        W58611   1.029  24.841  30.976 -0.0183 -0.2719  0.0073
15518W        W58612   1.069  22.335  31.271 -0.2191  0.2468 -0.2844
15519W        W58613   1.003  23.634  31.746 -0.0033  0.1000  0.2545
15520W        W58614   3.054  24.051  30.179 -0.1327  0.2039  0.1475
15521W        W58615   1.956  25.165  31.700  0.0178 -0.1543 -0.3123
15522W        W58616   2.857  25.189  31.892 -0.1907  0.3132 -0.2075
15523W        W58617   1.798  21.655  31.292  0.2731  0.2808 -0.1107
15524W        W58618   2.977  24.603  31.174 -0.3212  0.1227 -0.0099
15525W        W58619   1.571  22.366   0.629  0.4366  0.2248 -0.0684
15526W        W58620   3.486  24.048   0.977  0.0870 -0.1184  0.1953
15527W        W58621  34.272  25.754  30.975  0.1329 -0.1366  0.1749
15528W        W58622   0.392  23.518   0.368 -0.1777  0.1318  0.1726
15529W        W58623   2.739  25.200  30.434 -0.1576 -0.1659  0.1077
15530W        W58624   1.601  21.093  31.268  0.0379  0.0050  0.0065
15531W        W58625   0.548  22.242  31.588  0.0976  0.1350 -0.0770
15532W        W58626   1.383  21.613  31.594  0.0898 -0.1261  0.3639
15533W        W58627   2.549  23.900  31.824  0.0698  0.1588  0.1548
15534W        W58628   4.270  23.839   0.384  0.1241  0.1332 -0.2655
15535W        W58629   1.656  22.887  31.901  0.0645 -0.2329  0.0395
15536W        W58630   2.416  20.418   0.886  0.0686 -0.4119  0.0851
15537W        W58631   2.672  23.490  31.421  0.0413  0.3467 -0.0598
15538W        W58632   1.570  23.446   0.051  0.0320 -0.1875 -0.1531
15539W        W58633   0.157  25.762  31.820  0.1018 -0.0027  0.0265
15540W        W58634   0.980  23.693  30.171 -0.1677 -0.1629 -0.1364
15541W        W58635   0.989  22.745   0.962 -0.4175  0.0717 -0.1646
15542W        W58636   1.640  23.890  30.762 -0.2004  0.1345  0.0384
15543W        W58637   2.221  22.795  30.681  0.1891  0.0486  0.1338
15544W        W58638   6.279  24.356  30.562 -0.2527 -0.2816  0.1658
15545W        W58639   3.350  21.601  30.616 -0.1023  0.3182 -0.2881
15546W        W58640   1.132  23.061   0.500 -0.1715  0.0435 -0.3859
15547W        W58641   1.881  23.238  31.564 -0.3572 -0.3742 -0.1643
15548W        W58642   1.182  24.143   0.304 -0.0112 -0.1053 -0.0135
15549W        W58643   2.497  24.721  31.236  0.3371 -0.1463  0.1219
15550W        W58644   2.487  22.416  31.489 -0.3811 -0.1141 -0.1778
15551W        W58645   1.099  22.982  31.045 -0.0081  0.1282  0.0488
15552W        W58646   2.622  22.597   0.004  0.0775 -0.0976 -0.2752
15553W        W58647   4.092  24.575  31.298 -0.0594  0.1691  0.4096
15554W        W58648   1.404  22.273  31.629  0.0611  0.2583  0.1642
15555W        W58649   1.407  25.007   0.119 -0.0059 -0.0390  0.0357
15556W        W58650   0.728  22.781   0.149 -0.0504 -0.2002  0.0564
15557W        W58651   2.540  24.527  30.769 -0.1426 -0.3110  0.0429
15558W        W58652   2.347  22.643  30.221  0.5895  0.0782  0.1052
15559W        W58653   2.016  24.656  30.863 -0.1412 -0.1843 -0.1517
15560W        W58654   3.067  24.821  30.593 -0.0178  0.1717  0.0295
15561W        W58655   0.237  25.472  30.639  0.1997 -0.1563 -0.0488
15562W        W58656   2.857  25.008  31.445 -0.0747  0.1444  0.1347
15563W        W58657   3.333  21.129   0.561 -0.1111 -0.0673  0.2767
15564W        W58658   1.887  22.422  31.591  0.1310  0.0504 -0.0285
15565W        W58659   0.017  24.139  29.457 -0.0300 -0.3127 -0.2662
15566W        W58660   2.473  22.161  31.074 -0.1121 -0.0825  0.2615
15567W        W58661   3.571  23.663  31.748 -0.0951 -0.2279  0.1754
15568W        W58662   4.207  24.184  31.056  0.3330  0.4021  0.0635
15569W        W58663   2.911  25.551  31.209 -0.0646  0.2813  0.0368
15570W        W58664   1.277  25.915   0.292  0.1171  0.0459 -0.0555
15571W        W58665   0.796  23.628  30.841 -0.1669 -0.1815  0.1686
15572W        W58666   0.905  23.254  31.378  0.3486 -0.1083 -0.1766
15573W        W58667   2.259  24.216  31.089  0.1692 -0.2011  0.0909
15574W        W58668   1.025  24.546  30.518  0.0496 -0.1777  0.0039
15575W        W58669   0.218  23.475   1.224  0.2184  0.1855 -0.2583
15576W        W58670   1.203  24.341  31.411 -0.2450  0.1461  0.0063
15577W        W58671   5.682  23.493  31.002  0.3029 -0.0190 -0.3964
15578W        W58672   3.366  21.969  31.013  0.1568  0.2409 -0.1529
15579W        W58673   0.159  28.183  18.051  0.0889 -0.3492 -0.1639
15580W        W58674   1.325  25.134  16.751  0.0813  0.3365 -0.1814
15581W        W58675   3.027  24.708  16.283 -0.1732  0.2902  0.0583
15582W        W58676   3.785  27.005  16.447 -0.0710 -0.1084  0.0614
15583W        W58677  34.424  26.274  16.400 -0.2417 -0.0033 -0.0141
15584W        W58678   2.026  28.357  18.003  0.1524  0.3409 -0.1883
15585W        W58679   0.729  25.462  18.985  0.0573  0.0309 -0.2347
15586W        W58680   2.028  27.523  18.608 -0.2493 -0.1188  0.1239
15587W        W58681   3.796  29.252  18.088 -0.0554 -0.1765  0.1273
15588W        W58682   2.814  28.853  16.686 -0.1846  0.1445  0.6636
15589W        W58683   2.252  25.476  19.930  0.0692 -0.3498  0.0843
15590W        W58684   0.486  27.785  18.532 -0.1730  0.0489 -0.0373
15591W        W58685   1.261  25.967  16.408  0.3028  0.2901  0.2019
15592W        W58686  34.126  25.877  17.204  0.1812 -0.1235 -0.2102
15593W        W58687   2.461  26.741  18.978 -0.2664  0.0722 -0.2818
15594W        W58688   1.019  28.120  16.641  0.1902  0.1475  0.0464
15595W        W58689   1.533  25.350  18.680 -0.2787  0.0372  0.2393
15596W        W58690   1.599  26.679  18.664  0.3803 -0.1681  0.1491
15597W        W58691   2.465  28.158  18.060  0.0674 -0.1058 -0.0901
15598W        W58692   1.524  26.147  17.873 -0.0621 -0.4352  0.2376
15599W        W58693   3.875  26.869  19.907 -0.0946 -0.0080  0.1232
15600W        W58694   0.778  28.910  16.029 -0.1345 -0.4103  0.2492
15601W        W58695   0.584  27.861  16.159  0.1089 -0.1929 -0.2665
15602W        W58696  34.508  26.453  18.308 -0.0992 -0.1896 -0.1481
15603W        W58697   0.676  26.787  18.990  0.1333 -0.3275 -0.1661
15604W        W58698   1.924  24.579  17.234 -0.0079  0.1517  0.3743
15605W        W58699   2.568  27.081  17.568 -0.2174 -0.0195  0.0399
15606W        W58700   0.779  29.996  18.909  0.2373  0.3946 -0.0997
15607W        W58701   1.108  27.200  18.787 -0.1784 -0.1417 -0.0186
15608W        W58702   2.503  27.247  19.537  0.0627  0.1264  0.0750
15609W        W58703   0.529  28.120  17.204  0.1565  0.1095  0.1482
15610W        W58704   0.887  28.589  16.873 -0.1488  0.0462 -0.3491
15611W        W58705   2.438  28.649  16.448  0.0114 -0.2083 -0.1505
15612W        W58706   3.137  29.549  17.253 -0.0733 -0.0290  0.2154
15613W        W58707   1.768  28.430  18.931 -0.2498  0.0358  0.1724
15614W        W58708   1.920  28.541  19.474  0.1493 -0.0364  0.0898
15615W        W58709   0.371  28.568  16.984  0.1097 -0.1456  0.0902
15616W        W58710   0.365  30.828  20.147  0.0074  0.1186  0.3150
15617W        W58711   0.142  28.845  19.953  0.0298 -0.0765 -0.1393
15618W        W58712   1.727  26.590  17.263 -0.4222 -0.2996  0.0768
15619W        W58713   1.783  27.116  16.896  0.2537  0.0845  0.1845
15620W        W58714   1.357  28.692  15.424 -0.2840 -0.1877  0.1722
15621W        W58715   0.708  28.212  18.662  0.1845  0.1568  0.0770
15622W        W58716   1.948  27.299  19.607  0.4462  0.2883 -0.2508
15623W        W58717   1.262  28.193  18.697 -0.0192  0.1880  0.1706
15624W        W58718   4.752  26.076  19.327  0.1750 -0.3013  0.3772
15625W        W58719   0.009  30.278  17.335  0.0839  0.0951  0.0387
15626W        W58720   3.382  27.129  15.831  0.5061 -0.0966 -0.0543
15627W        W58721   1.369  26.197  15.872 -0.1171 -0.2684  0.2752
15628W        W58722   2.366  27.323  16.309 -0.2340  0.1808  0.0019
15629W        W58723   2.456  26.462  16.533 -0.0999 -0.0878 -0.2001
15630W        W58724   1.662  29.418  17.808  0.0969  0.5917 -0.1538
15631W        W58725   2.318  26.614  18.306 -0.1411  0.0804 -0.1204
15632W        W58726   2.057  28.111  19.307  0.3558 -0.0824  0.2595
15633W        W58727   1.356  26.780  16.919  0.2547  0.3028 -0.3917
15634W        W58728   2.559  26.928  18.565  0.1970 -0.0352  0.3625
15635W        W58729   0.902  28.656  17.818 -0.0925  0.0578  0.1220
15636W        W58730   0.361  27.849  17.664 -0.1079  0.0687  0.2128
15637W        W58731   3.268  29.015  16.874  0.2130  0.1961  0.2273
15638W        W58732   2.363  28.516  17.500  0.1012  0.3257 -0.2319
15639W        W58733   1.825  30.357  16.800 -0.2005  0.0345 -0.1068
15640W        W58734   0.558  27.823  16.709  0.1559  0.1314  0.1891
15641W        W58735  34.443  28.708  20.532  0.0625  0.2486 -0.1862
15642W        W58736  34.558  27.980  18.432 -0.2581 -0.1023  0.0833
15643W        W58737  34.524  23.982  16.860  0.0891 -0.0471 -0.1422
15644W        W58738   3.707  27.559  19.873  0.1734 -0.1750  0.2668
15645W        W58739  33.719  28.498  19.579 -0.1133  0.2460  0.1309
15646W        W58740   4.542  25.205  18.113 -0.3711  0.2004  0.0640
15647W        W58741   0.656  26.937  18.464  0.1805  0.0883  0.0943
15648W        W58742   1.881  27.960  18.863  0.0588 -0.1842  0.2218
15649W        W58743   2.886  26.889  15.827 -0.2675 -0.1677  0.0187
15650W        W58744   3.523  26.531  18.967  0.0358  0.2244  0.1540
15651W        W58745   2.886  24.916  19.044  0.1270 -0.3034 -0.3774
15652W        W58746   1.060  27.827  16.241 -0.0383 -0.1208  0.0642
15653W        W58747   1.479  27.060  17.344  0.2673 -0.0288 -0.3689
15654W        W58748   2.545  27.688  20.211  0.1337  0.0680  0.0105
15655W        W58749   2.918  28.769  17.599 -0.1036 -0.1364  0.1204
15656W        W58750   1.039  28.918  17.244  0.3012  0.0426  0.2919
15657W        W58751   3.786  26.222  19.263 -0.1858 -0.0469 -0.2758
15658W        W58752  34.521  29.243  19.659  0.0373  0.1163 -0.2321
15659W        W58753  34.149  29.159  15.839  0.0615  0.2262 -0.0445
15660W        W58754   0.427  28.657  18.966 -0.2128  0.3986 -0.0904
15661W        W58755   0.650  27.002  17.338 -0.2145 -0.4785  0.0819
15662W        W58756  33.636  25.298  19.741 -0.1458 -0.0840 -0.1584
15663W        W58757   0.843  26.389  19.291 -0.0668  0.0837  0.0853
15664W        W58758   3.511  27.176  17.068 -0.0010 -0.0640  0.2150
15665W        W58759   0.485  26.728  19.570 -0.0653 -0.2017  0.1482
15666W        W58760   4.216  25.937  19.405 -0.3987 -0.0776  0.0983
15667W        W58761   0.326  26.739  16.933 -0.0206 -0.0486 -0.1237
15668W        W58762   2.390  30.375  18.327 -0.1025  0.2445 -0.1330
15669W        W58763   4.383  27.546  18.911 -0.3196 -0.1280  0.3255
15670W        W58764   3.308  28.690  16.453 -0.0835  0.0099 -0.0179
15671W        W58765   0.312  26.281  19.988  0.3383  0.1049  0.0512
15672W        W58766   2.060  26.858  17.596 -0.1739 -0.1317 -0.0841
15673W        W58767   0.257  25.262  20.109  0.0275  0.0167  0.0615
15674W        W58768  34.178  26.057  18.568 -0.1460 -0.1874  0.0742
15675W        W58769   3.319  28.733  17.982 -0.0030 -0.1524  0.0713
15676W        W58770  33.768  26.197  16.291 -0.0453  0.2061  0.0228
15677W        W58771   1.872  26.597  16.705  0.3038 -0.2022  0.0914
15678W        W58772   2.118  27.339  17.308  0.0861  0.0885 -0.2140
15679W        W58773  33.294  28.403  18.459  0.0207  0.0008  0.1911
15680W        W58774   3.068  26.646  18.743 -0.2547 -0.1591 -0.0410
15681W        W58775   1.298  28.933  18.218  0.1077 -0.0549 -0.1194
15682W        W58776   2.997  29.796  19.878  0.0942  0.2955 -0.1573
15683W        W58777   2.581  28.195  19.364 -0.1630 -0.0728 -0.3134
15684W        W58778   2.088  25.944  17.936  0.3539  0.0755 -0.1345
15685W        W58779   0.918  26.663  17.121 -0.5118 -0.1137 -0.1272
15686W        W58780   0.341  28.932  17.718  0.2209 -0.1270  0.2886
15687W        W58781   1.550  28.101  16.368  0.1851  0.1961 -0.1192
15688W        W58782   2.970  26.394  16.698  0.0085 -0.1972  0.1964
15689W        W58783   2.870  28.595  18.113 -0.3040 -0.1553 -0.1606
15690W        W58784   2.833  28.138  17.188 -0.1508  0.3241 -0.0598
15691W        W58785   1.014  27.928  19.190 -0.0563  0.0635 -0.0428
15692W        W58786   2.503  26.155  20.988 -0.0332 -0.1437  0.4249
15693W        W58787   5.122  25.955  18.050  0.4071 -0.0918  0.1253
15694W        W58788   3.049  27.778  17.512  0.0279  0.3437  0.0676
15695W        W58789   0.635  24.475  17.121 -0.1112  0.1831 -0.5264
15696W        W58790   2.551  27.413  18.551  0.0735 -0.2137 -0.3030
15697W        W58791   0.590  29.818  16.386  0.0387 -0.2580 -0.0748
15698W        W58792  34.473  27.549  16.516  0.2891  0.2943 -0.3287
15699W        W58793   0.890  28.003  17.598  0.1023 -0.1619  0.3335
15700W        W58794   2.633  25.626  15.961  0.2017  0.0918  0.1360
15701W        W58795   0.571  28.037  20.526  0.0748 -0.1597 -0.2823
15702W        W58796   1.095  26.296  18.871 -0.0830 -0.2576 -0.2215
15703W        W58797   0.487  28.265  16.505 -0.0907  0.2259  0.0352
15704W        W58798  34.213  27.436  20.250  0.3893  0.2596  0.0073
15705W        W58799   3.055  27.176  17.831  0.0048  0.0346 -0.1875
15706W        W58800   2.786  26.715  17.152 -0.0404 -0.0890  0.0695
15707W        W58801   2.782  26.003  18.837  0.0737  0.1142  0.1874
15708W        W58802   2.779  28.705  18.780  0.2446  0.1453 -0.1804
15709W        W58803   3.611  25.841  15.948  0.1787  0.1020  0.1188
15710W        W58804   4.174  26.882  17.271 -0.2720 -0.2343 -0.2002
15711W        W58805   1.607  28.965  20.768  0.0212  0.0716  0.1643
15712W        W58806   2.492  28.413  18.458 -0.0426 -0.1376  0.0137
15713W        W58807   1.489  27.942  17.426  0.1544  0.3686  0.0362
15714W        W58808   2.212  25.899  15.961  0.0440  0.1521  0.2814
15715W        W58809   2.616  29.786  16.916  0.1487 -0.0873 -0.0291
15716W        W58810   0.154  27.696  18.085 -0.2384 -0.0356 -0.1931
15717W        W58811   1.506  27.602  21.439 -0.4591 -0.2113 -0.0541
15718W        W58812   3.012  27.161  17.133  0.1251 -0.0208 -0.4240
15719W        W58813   1.752  25.558  17.900 -0.1807  0.0345  0.3686
15720W        W58814  34.685  27.068  16.675 -0.4328 -0.2136  0.2381
15721W        W58815   2.561  26.837  16.182 -0.0969  0.0370 -0.1785
15722W        W58816  32.864  30.685  16.876  0.1396  0.3231  0.0346
15723W        W58817   3.460  25.753  18.207 -0.0970 -0.4573  0.0973
15724W        W58818   1.910  26.241  18.281  0.1240  0.0288 -0.0192
15725W        W58819   0.899  26.062  19.630  0.0409  0.3743  0.2477
15726W        W58820   4.362  25.808  18.575  0.0577  0.1254  0.1019
15727W        W58821   3.244  27.205  16.615  0.1788  0.0871  0.0938
15728W        W58822   1.972  27.518  19.168 -0.0568  0.0728 -0.2537
15729W        W58823   0.996  26.877  16.537  0.2269 -0.2468 -0.2050
15730W        W58824   2.182  26.850  19.730  0.3519 -0.1487 -0.1487
15731W        W58825   1.176  26.565  20.381  0.1982  0.1184  0.0979
15732W        W58826   0.342  28.140  19.989  0.0984 -0.3816  0.2141
15733W        W58827   1.494  29.061  20.111 -0.1265  0.0533  0.0318
15734W        W58828   2.308  28.421  16.878 -0.1210 -0.2124 -0.1469
15735W        W58829   1.676  27.529  17.606 -0.0969 -0.1350 -0.1639
15736W        W58830   3.198  26.792  16.290 -0.2762 -0.1399 -0.1310
15737W        W58831   0.306  29.554  16.004  0.0377 -0.1114  0.1164
15738W        W58832   2.011  28.371  16.460 -0.1492  0.0528 -0.1213
15739W        W58833   0.460  24.631  18.976 -0.0495 -0.0755 -0.0732
15740W        W58834   1.120  28.924  19.070 -0.3106  0.0355 -0.0997
15741W        W58835   2.357  28.000  17.282  0.1914  0.0741 -0.2131
15742W        W58836   1.643  27.142  19.070 -0.0033 -0.1573 -0.0497
15743W        W58837   0.657  29.590  18.253  0.5045  0.0519 -0.1478
15744W        W58838   4.047  25.404  19.771  0.0792  0.0441  0.1454
15745W        W58839  34.110  29.089  17.916 -0.4343  0.0135 -0.1421
15746W        W58840   0.273  26.292  16.114 -0.1930 -0.2486 -0.0191
15747W        W58841  34.291  27.067  16.379  0.1669  0.2128  0.2680
15748W        W58842   2.555  26.227  17.957 -0.1123  0.0309  0.1315
15749W        W58843   3.726  27.598  16.695 -0.0145  0.3028 -0.2472
15750W        W58844   0.248  25.572  18.665 -0.0522  0.2367 -0.0593
15751W        W58845   1.141  26.477  16.307 -0.2767  0.0983  0.0324
15752W        W58846  34.611  29.220  17.639 -0.0747 -0.0284  0.1801
15753W        W58847   1.921  27.928  18.351 -0.1584 -0.0152  0.1798
15754W        W58848   2.743  26.070  17.216 -0.2451 -0.4632  0.3074
15755W        W58849   0.820  27.426  18.429  0.3518 -0.2100  0.2195
15756W        W58850   1.506  27.531  20.072 -0.2776  0.0482 -0.1863
15757W        W58851   1.596  25.540  16.603  0.3396  0.1572  0.0519
15758W        W58852   2.936  26.460  19.183 -0.1235  0.1186 -0.0869
15759W        W58853   0.554  26.479  17.399  0.0334 -0.1661  0.4272
15760W        W58854   0.081  28.736  17.329  0.1188 -0.3557 -0.3291
15761W        W58855   0.802  28.160  20.068  0.0436  0.0772  0.2055
15762W        W58856   0.433  27.015  16.481 -0.3697 -0.1228 -0.3409
15763W        W58857   0.998  27.634  16.817  0.0024 -0.1574 -0.0354
15764W        W58858   0.846  25.933  19.066  0.0952  0.1988  0.1927
15765W        W58859   2.062  26.897  18.737  0.0721 -0.0019  0.0376
15766W        W58860   1.654  26.031  16.802  0.2167  0.3954  0.4006
15767W        W58861   0.062  25.679  17.756  0.1020  0.1037 -0.1897
15768W        W58862   1.233  27.496  17.976  0.0943  0.0297 -0.1695
15769W        W58863   1.745  27.416  18.101 -0.0258 -0.1223 -0.2460
15770W        W58864   1.972  25.704  18.450  0.0069  0.1908  0.0372
15771W        W58865   0.776  28.690  19.377 -0.3114 -0.3762 -0.3037
15772W        W58866   1.033  24.998  17.854 -0.0089  0.0746 -0.1897
15773W        W58867   3.600  28.658  17.298  0.2568  0.1176 -0.1898
15774W        W58868   3.455  26.591  18.428  0.2013 -0.1870  0.0100
15775W        W58869   0.923  27.991  15.826  0.0125 -0.0364 -0.1715
15776W        W58870   0.079  27.145  18.378 -0.3485  0.0959 -0.0605
15777W        W58871   1.016  28.761  16.390 -0.3268 -0.2358  0.0862
15778W        W58872   0.996  26.013  18.269 -0.2287 -0.1682 -0.2190
15779W        W58873   0.788  27.385  17.696  0.3945  0.1275  0.2306
15780W        W58874   1.906  28.883  16.486 -0.1109 -0.0235  0.0085
15781W        W58875  34.563  27.653  17.652 -0.0091 -0.1876  0.3043
15782W        W58876   2.957  25.920  16.503  0.3003 -0.1141 -0.1105
15783W        W58877   2.166  27.777  16.383  0.0448 -0.2077  0.1062
15784W        W58878   2.467  26.478  17.434 -0.3848 -0.1080 -0.0734
15785W        W58879   3.776  26.708  18.031 -0.4781  0.1318 -0.1225
15786W        W58880   2.541  27.229  15.860  0.1017 -0.0076  0.1865
15787W        W58881   3.984  25.732  18.945 -0.0519 -0.0288 -0.0128
15788W        W58882   0.676  25.945  18.612  0.0546  0.2004  0.0453
15789W        W58883   3.365  28.039  16.573  0.1780 -0.0251 -0.1598
15790W        W58884   0.012  26.591  19.721 -0.3937 -0.0438 -0.0905
15791W        W58885   1.026  27.657  20.502 -0.2328  0.2068  0.1803
15792W        W58886   1.241  28.941  19.616  0.0337  0.2808 -0.4858
15793W        W58887   2.247  26.964  16.641 -0.3552 -0.2917  0.0197
15794W        W58888   0.773  26.033  16.566 -0.2453  0.1068 -0.2271
15795W        W58889   1.853  28.266  17.404  0.1553  0.0905  0.0304
15796W        W58890   2.772  27.633  19.704  0.3128 -0.0091 -0.0109
15797W        W58891   2.683  26.739  17.965 -0.5050 -0.0739  0.0784
15798W        W58892   1.274  26.778  19.125  0.1324 -0.0655 -0.1479
15799W        W58893   0.539  27.289  16.876  0.2929  0.0837 -0.1245
15800W        W58894   3.242  29.053  17.338  0.0570 -0.2825  0.0641
15801W        W58895   1.531  28.080  16.874  0.3712  0.1924 -0.2913
15802W        W58896   0.724  27.463  16.416 -0.1343  0.2269  0.3236
15803W        W58897   1.361  26.234  19.307  0.0138  0.1380  0.1184
15804W        W58898   2.642  27.582  17.204  0.2429 -0.1839 -0.3160
15805W        W58899   1.432  26.126  17.354  0.1214  0.0562  0.1012
15806W        W58900   1.308  25.161  19.067 -0.0896 -0.0399 -0.2153
15807W        W58901   4.066  26.031  17.661  0.0504 -0.5028 -0.1940
15808W        W58902   0.514  27.230  19.335 -0.3603  0.3669 -0.2421
15809W        W58903   0.474  26.144  20.428 -0.4593  0.1600  0.0166
15810W        W58904   2.496  30.676  17.768  0.0653 -0.2488  0.0106
15811W        W58905   2.454  26.027  16.828 -0.2107  0.0379 -0.2338
15812W        W58906   3.996  27.345  20.209 -0.1053 -0.0923  0.0892
15813W        W58907   2.509  26.030  16.314  0.1398  0.0884 -0.3777
15814W        W58908   1.766  25.302  16.219  0.2248  0.1383  0.0955
15815W        W58909   0.256  26.124  18.230  0.0935 -0.3205  0.1675
15816W        W58910   2.503  28.538  19.678  0.0725  0.0171 -0.0358
15817W        W58911   1.794  27.134  16.359 -0.0037  0.2381 -0.1286
15818W        W58912   3.463  26.662  19.586 -0.2978  0.0630 -0.0483
15819W        W58913   0.675  29.832  15.907 -0.0280  0.0605 -0.2293
15820W        W58914   2.483  27.329  19.035  0.0532  0.1066  0.1493
15821W        W58915   3.561  27.852  17.654  0.0147 -0.1080  0.1220
15822W        W58916  34.425  26.751  16.940 -0.1859 -0.0364 -0.1826
15823W        W58917   0.276  28.977  19.476 -0.0259 -0.2318 -0.2342
15824W        W58918   1.766  25.949  15.720  0.3759 -0.2402 -0.1436
15825W        W58919   2.065  27.577  15.873  0.1965  0.5225  0.4923
15826W        W58920   2.328  27.300  20.005 -0.2178 -0.1368 -0.0671
15827W        W58921   2.980  26.069  19.546  0.1392 -0.3871  0.2428
15828W        W58922   2.066  26.243  17.035 -0.4337  0.2103 -0.0258
15829W        W58923   3.580  27.048  18.589 -0.0127  0.1819  0.1800
15830W        W58924   0.090  28.081  16.997 -0.2156 -0.1414 -0.1430
15831W        W58925   2.171  26.749  17.150 -0.0839  0.1306  0.0378
15832W        W58926   0.837  28.776  18.668 -0.0073 -0.1366  0.0001
15833W        W58927   0.144  28.366  18.609 -0.2081  0.0574 -0.1762
15834W        W58928   1.088  26.871  17.532 -0.1398 -0.1351 -0.2747
15835W        W58929   1.068  25.521  19.826  0.0603 -0.1628  0.0704
15836W        W58930   3.497  26.208  17.643  0.1762  0.0997 -0.1568
15837W        W58931   3.265  26.842  17.395  0.0500  0.0573 -0.0869
15838W        W58932   3.308  27.856  18.408 -0.2194 -0.2289 -0.2967
15839W        W58933   0.563  28.137  19.102  0.1782  0.0879 -0.1758
15840W        W58934   1.144  27.605  17.424 -0.1999  0.3601  0.1658
15841W        W58935   2.349  27.793  18.995 -0.1761 -0.0669  0.2569
15842W        W58936   3.921  27.449  17.822 -0.0843  0.0501 -0.0212
15843W        W58937   2.252  27.634  18.189 -0.2026  0.2953 -0.0159
15844W        W58938   0.622  26.641  20.478  0.1069 -0.0932  0.2458
15845W        W58939   2.070  26.991  19.229  0.1007 -0.0622  0.1706
15846W        W58940   2.851  27.695  18.246  0.2395  0.3136 -0.0466
15847W        W58941   2.122  26.435  17.836  0.1362  0.0005 -0.2004
15848W        W58942   1.281  28.994  15.847  0.2362 -0.0509  0.1578
15849W        W58943   0.067  29.238  20.340 -0.0523 -0.0802  0.1557
15850W        W58944   0.474  26.344  18.997  0.0173  0.1782 -0.0149
15851W        W58945   0.233  29.052  16.753 -0.0992 -0.2600  0.0004
15852W        W58946   3.059  28.292  16.294  0.0063  0.0671  0.0632
15853W        W58947   1.941  27.761  17.201 -0.1615  0.2217 -0.0136
15854W        W58948   1.295  28.977  17.722  0.1056  0.0183  0.0431
15855W        W58949   1.672  26.374  16.278  0.1716  0.5020  0.1851
15856W        W58950   1.434  28.417  17.753  0.0488 -0.0392 -0.1188
15857W        W58951   0.584  30.328  15.906  0.1846  0.0931 -0.1497
15858W        W58952   2.800  28.702  16.126  0.2976  0.0669  0.0879
15859W        W58953   1.517  27.494  17.091  0.0709  0.1272 -0.2464
15860W        W58954   3.187  27.462  19.934 -0.0920 -0.2391 -0.3642
15861W        W58955   1.799  25.667  17.410 -0.1741 -0.0403  0.3576
15862W        W58956   2.673  27.236  18.118 -0.3331  0.0490  0.4247
15863W        W58957   2.489  27.140  17.032  0.0062  0.2975  0.0762
15864W        W58958   2.625  30.198  19.963  0.1931  0.2237  0.1365
15865W        W58959   1.507  27.688  18.582  0.2916 -0.1684  0.0385
15866W        W58960   1.909  24.922  15.915 -0.0801 -0.0406  0.1600
15867W        W58961   0.072  27.795  20.325 -0.3885 -0.1244 -0.2583
15868W        W58962   3.125  26.260  18.105  0.1543 -0.1047  0.0525
15869W        W58963  33.703  30.092  19.649  0.2507  0.1833 -0.2570
15870W        W58964   3.039  29.591  16.769  0.1176  0.2126 -0.0915
15871W        W58965   0.280  27.397  17.494  0.0537 -0.2154 -0.0387
15872W        W58966   1.123  27.992  18.091 -0.2057  0.0806 -0.1014
15873W        W58967   2.894  25.238  19.436  0.0710  0.1975 -0.1210
15874W        W58968   2.755  26.063  15.160  0.2253 -0.1113  0.0704
15875W        W58969   2.319  25.917  17.524 -0.0048  0.1563 -0.0075
15876W        W58970   1.371  30.357  17.065 -0.0185  0.1593  0.1847
15877W        W58971   0.431  29.161  18.655  0.0439 -0.3721  0.3850
15878W        W58972   1.617  27.699  19.606  0.0576  0.2298  0.1181
15879W        W58973   0.609  26.819  17.825 -0.0388 -0.0595 -0.0760
15880W        W58974   3.491  25.385  16.825 -0.3009  0.0351  0.0659
15881W        W58975   1.157  26.590  19.601  0.2662 -0.1952 -0.1054
15882W        W58976   3.510  27.106  18.050  0.1472  0.2728  0.2996
15883W        W58977   1.668  27.681  16.641 -0.2957  0.0564  0.1515
15884W        W58978   2.803  28.379  16.737 -0.2835 -0.0135 -0.2628
15885W        W58979   2.060  27.926  17.689 -0.0791  0.0555  0.0550
15886W        W58980   0.445  27.213  18.086 -0.0972 -0.0082  0.0641
15887W        W58981   0.853  26.195  16.062 -0.1080 -0.0206  0.0743
15888W        W58982   2.973  28.109  20.827  0.2567  0.1492 -0.0497
15889W        W58983   1.465  26.791  16.435  0.2806  0.1492 -0.0097
15890W        W58984   1.982  29.398  19.058  0.0175  0.1770 -0.1944
15891W        W58985   0.995  26.332  17.533  0.1268 -0.1324  0.0358
15892W        W58986   3.385  25.669  16.411  0.0347  0.2023 -0.1250
15893W        W58987   1.372  26.244  18.431 -0.0954 -0.1864  0.0856
15894W        W58988   0.692  27.612  17.239  0.0840 -0.4163 -0.0748
15895W        W58989   1.076  28.118  20.827  0.3709  0.0154 -0.0929
15896W        W58990   1.133  24.671  16.597  0.1482  0.3789  0.2045
15897W        W58991   4.097  27.646  15.580  0.0952 -0.2534  0.1640
15898W        W58992   3.049  26.899  18.307 -0.1974  0.1398  0.0811
15899W        W58993   1.728  28.701  17.487  0.0573 -0.2958  0.1424
15900W        W58994   4.114  27.483  16.331 -0.0504 -0.2251 -0.0979
15901W        W58995   1.608  27.949  17.902  0.0839  0.0355 -0.0473
15902W        W58996   1.147  26.549  18.037 -0.2754  0.1852  0.3993
15903W        W58997   0.626  29.111  19.150  0.2447  0.1024 -0.1200
15904W        W58998   3.286  28.569  18.763  0.1740  0.2212 -0.0889
15905W        W58999   1.312  25.706  17.567  0.1162 -0.0837 -0.1591
15906W        W59000   1.750  26.715  18.180 -0.0663  0.0155  0.0305
15907W        W59001  34.143  29.690  17.387 -0.0810 -0.1122 -0.1111
15908W        W59002   5.390  26.289  18.394  0.1101 -0.0513  0.1452
15909W        W59003   2.895  25.843  18.352 -0.0843  0.4308 -0.2416
15910W        W59004   1.778  28.602  16.973  0.0835  0.0641 -0.2806
15911W        W59005   2.100  25.448  19.345  0.0936  0.0662 -0.1700
15912W        W59006   1.444  28.631  20.432 -0.0808 -0.1060  0.2245
15913W        W59007   0.943  29.430  19.523  0.3741  0.1581  0.3912
15914W        W59008   1.513  27.525  16.212  0.2078 -0.0093 -0.0062
15915W        W59009   1.792  26.602  19.126 -0.0049  0.0582 -0.2709
15916W        W59010   1.236  27.317  16.563  0.0799  0.2116 -0.4775
15917W        W59011   1.460  28.946  16.321 -0.0458  0.2557  0.2982
15918W        W59012   2.340  28.726  17.996  0.1725 -0.2403 -0.0401
15919W        W59013   1.127  26.275  16.837  0.1032  0.0239  0.3614
15920W        W59014   3.636  29.007  17.641  0.2011  0.0325 -0.0857
15921W        W59015   0.210  25.146  17.692 -0.0227  0.1659 -0.2297
15922W        W59016   3.591  26.558  16.419 -0.2282 -0.0327  0.0239
15923W        W59017   3.165  25.395  17.833 -0.1688  0.0346  0.1884
15924W        W59018  34.665  27.526  18.634  0.0378 -0.1017 -0.4056
15925W        W59019   1.206  27.091  16.119  0.0915  0.0322  0.0115
15926W        W59020  34.390  28.343  16.193 -0.0342  0.2043  0.5027
15927W        W59021   1.036  28.036  17.123 -0.1584 -0.1323 -0.0891
15928W        W59022   2.587  26.447  19.775 -0.1396  0.4897  0.0199
15929W        W59023   0.139  26.686  19.165  0.0839 -0.1036 -0.0118
15930W        W59024   1.559  27.198  18.553 -0.0422 -0.0708  0.1698
15931W        W59025   1.127  26.783  18.501  0.4802 -0.1533 -0.0157
15932W        W59026   2.802  29.195  17.011  0.1087  0.0371 -0.0088
15933W        W59027   1.535  25.203  17.201 -0.0435  0.0596 -0.0281
15934W        W59028   0.258  26.702  18.165 -0.0223 -0.0644  0.1851
15935W        W59029   2.685  29.423  15.460 -0.1521  0.0214 -0.0139
15936W        W59030   2.603  29.387  16.519  0.3059  0.3213  0.0482
15937W        W59031   2.314  25.045  15.622 -0.1943 -0.1806  0.3777
15938W        W59032   3.394  29.477  18.203  0.1504  0.2341 -0.2439
15939W        W59033  34.693  28.502  16.559  0.0802  0.0807 -0.1175
15940W        W59034   2.179  26.408  21.304  0.1442  0.1450 -0.0191
15941W        W59035   3.053  26.653  19.825  0.1870  0.0905 -0.3675
15942W        W59036   0.519  25.547  16.489 -0.2590 -0.0578 -0.2025
15943W        W59037   2.738  26.353  18.505 -0.2274 -0.0742  0.3716
15944W        W59038   2.138  27.443  16.810 -0.0124 -0.0862  0.1339
15945W        W59039   1.486  29.444  16.718 -0.0712 -0.1677  0.0638
15946W        W59040   0.637  27.554  20.199 -0.2058  0.0099 -0.4008
15947W        W59041   0.536  29.571  22.051  0.1313 -0.2281  0.1103
15948W        W59042  33.969  26.104  19.152  0.1377 -0.1156 -0.2058
15949W        W59043   2.468  28.126  16.317  0.3896 -0.1414 -0.2948
15950W        W59044   0.749  26.459  19.889 -0.2061 -0.0137  0.0487
15951W        W59045   3.070  27.657  17.037 -0.0374 -0.0929 -0.2292
15952W        W59046   3.403  25.006  18.105 -0.1943  0.0306 -0.1709
15953W        W59047   2.003  28.011  16.809  0.0429  0.1099 -0.1168
15954W        W59048  34.504  26.161  21.216  0.3896  0.1272  0.1341
15955W        W59049   0.022  27.178  19.042  0.0760  0.0108 -0.2191
15956W        W59050   2.942  27.197  18.839  0.1115  0.0639 -0.2369
15957W        W59051   0.994  25.908  17.172 -0.1062  0.0995 -0.1173
15958W        W59052   2.117  27.371  17.792 -0.1920 -0.0141  0.0319
15959W        W59053   3.068  29.234  16.446 -0.3859  0.2243 -0.2910
15960W        W59054   1.004  27.030  18.053 -0.0103  0.0731  0.0556
15961W        W59055   1.420  25.667  17.055 -0.1229  0.0963  0.0089
15962W        W59056   2.486  26.020  19.279  0.0264 -0.1585  0.3270
15963W        W59057   0.680  27.699  18.031  0.2471  0.1230 -0.2360
15964W        W59058   1.249  28.151  20.398 -0.1161  0.1912 -0.0918
15965W        W59059   0.252  27.519  16.461 -0.1215  0.1808 -0.0293
15966W        W59060   3.616  28.324  16.236  0.0954 -0.0904  0.1016
15967W        W59061   3.056  29.020  18.333 -0.0581  0.2302 -0.0763
15968W        W59062   1.110  28.640  20.027 -0.2268  0.0437 -0.3981
15969W        W59063   1.044  28.442  18.310  0.0419 -0.3754  0.1504
15970W        W59064   1.766  26.398  19.620  0.0318  0.3884 -0.1676
15971W        W59065   0.004  24.901  18.826  0.0994 -0.0609 -0.1718
15972W        W59066   1.076  27.217  17.051 -0.2029 -0.0480  0.0215
15973W        W59067   1.449  27.670  19.072  0.0741 -0.0250  0.2389
15974W        W59068   3.697  26.043  18.719 -0.0401 -0.5590 -0.0670
15975W        W59069   0.602  26.273  16.976 -0.0418 -0.0058  0.0873
15976W        W59070   2.821  26.902  16.601 -0.4335 -0.0159  0.0499
15977W        W59071   1.517  28.099  19.310  0.3569  0.2271  0.0004
15978W        W59072   2.690  27.425  16.661  0.0067  0.0812 -0.1241
15979W        W59073  34.165  26.569  23.889 -0.2706 -0.1551  0.0786
15980W        W59074  34.275  27.873  22.565  0.1856 -0.1425 -0.0122
15981W        W59075   2.853  26.742  20.372 -0.0617 -0.0690 -0.3623
15982W        W59076   2.317  27.173  20.969 -0.0166 -0.0330 -0.0465
15983W        W59077   0.869  27.116  20.410  0.3223 -0.1239 -0.1778
15984W        W59078   2.413  28.587  20.977 -0.0662  0.1707  0.3239
15985W        W59079   1.134  24.700  22.996 -0.0410  0.0433 -0.0210
15986W        W59080   1.060  28.339  22.153 -0.0242 -0.0339  0.0164
15987W        W59081   1.177  29.587  22.708  0.1789 -0.1541 -0.2280
15988W        W59082   1.486  28.033  19.948 -0.3208  0.4916 -0.1487
15989W        W59083   1.036  26.781  23.334 -0.3566  0.0983 -0.1008
15990W        W59084   2.640  28.655  23.650 -0.0227  0.2567 -0.1773
15991W        W59085   2.320  26.787  20.229 -0.1183 -0.1402 -0.2563
15992W        W59086  34.478  26.668  22.603  0.1421 -0.2023 -0.1345
15993W        W59087   3.088  27.112  21.610  0.2947 -0.1158  0.2634
15994W        W59088  34.587  28.172  20.732 -0.1433  0.2613  0.1653
15995W        W59089   0.826  26.222  22.426  0.1508  0.0943 -0.1649
15996W        W59090  34.567  27.423  21.399  0.0768 -0.2464  0.1488
15997W        W59091   0.929  27.846  22.234  0.1257  0.2612 -0.1094
15998W        W59092   2.108  26.859  23.144 -0.0065  0.1216 -0.2171
15999W        W59093   3.493  26.492  22.401 -0.0470  0.1164  0.0321
16000W        W59094   0.916  28.468  21.247 -0.1707 -0.1537  0.0399
16001W        W59095   2.278  27.693  19.495  0.3239 -0.1917 -0.1673
16002W        W59096  33.707  27.237  22.972  0.2852 -0.0834 -0.0781
16003W        W59097   0.270  27.998  21.852 -0.1006  0.1144  0.2078
16004W        W59098   1.616  25.250  21.368  0.2802  0.0504  0.0615
16005W        W59099   4.268  25.770  21.181 -0.1015  0.2698 -0.0305
16006W        W59100   1.029  28.179  23.029  0.1026 -0.0042 -0.2573
16007W        W59101   2.644  28.493  21.862  0.4027  0.1223  0.0701
16008W        W59102   4.241  27.363  23.068 -0.1488 -0.1564 -0.1574
16009W        W59103  32.626  28.052  23.963 -0.3287 -0.2553 -0.2600
16010W        W59104   0.674  29.392  22.603  0.0512  0.0058  0.1140
16011W        W59105  34.562  30.180  22.312  0.0311 -0.0249  0.2038
16012W        W59106   2.372  28.894  20.410  0.0760 -0.0457  0.2125
16013W        W59107   3.345  28.170  21.443 -0.0770  0.1260  0.2585
16014W        W59108   1.985  27.329  23.361  0.0059  0.0436 -0.1884
16015W        W59109  34.580  30.187  19.846  0.0470 -0.0976  0.2065
16016W        W59110   2.971  28.019  23.969  0.0158 -0.1454  0.3246
16017W        W59111   1.104  29.395  23.196 -0.2055  0.2647 -0.0414
16018W        W59112   1.729  26.735  22.184  0.0021  0.2221  0.0877
16019W        W59113   3.059  26.613  21.545 -0.2179 -0.0458  0.1054
16020W        W59114   2.149  29.130  20.826 -0.0495 -0.0806  0.1012
16021W        W59115   2.169  27.577  22.180  0.0828  0.1303  0.4422
16022W        W59116   0.532  27.507  23.811 -0.0213 -0.0535  0.2743
16023W        W59117  34.299  28.069  23.566  0.0447 -0.2351  0.1977
16024W        W59118   4.433  25.938  22.869 -0.0813 -0.2997  0.2934
16025W        W59119   0.121  28.691  20.954  0.0896 -0.1735  0.2702
16026W        W59120   2.983  26.481  21.032 -0.1398 -0.0334  0.1822
16027W        W59121   1.290  27.283  19.629  0.1272  0.1203 -0.0144
16028W        W59122   4.049  26.493  20.571  0.2972  0.0134  0.0203
16029W        W59123   2.010  25.104  22.396 -0.1305 -0.2607 -0.2191
16030W        W59124  34.276  28.819  22.405 -0.0277 -0.2597  0.2722
16031W        W59125   0.849  24.677  21.634 -0.0728  0.0335 -0.1227
16032W        W59126   2.271  28.442  22.904 -0.1791  0.1794 -0.0522
16033W        W59127   0.981  26.785  20.846 -0.3772  0.2297  0.2217
16034W        W59128   1.971  25.618  22.262  0.1247 -0.0014 -0.1746
16035W        W59129   0.101  28.448  23.112  0.1375 -0.1979  0.4707
16036W        W59130  33.772  28.247  22.707  0.0378  0.0042 -0.2795
16037W        W59131   2.833  28.571  20.659 -0.0918 -0.0681 -0.0350
16038W        W59132   4.243  29.554  21.516 -0.1437  0.1527  0.2423
16039W        W59133   2.120  29.372  19.826  0.2500 -0.0140 -0.0934
16040W        W59134   0.183  27.785  20.833  0.0621 -0.2620  0.2311
16041W        W59135  34.556  28.627  23.751 -0.0673  0.2496  0.1528
16042W        W59136   0.462  27.123  22.204  0.0870 -0.1381 -0.0510
16043W        W59137   1.803  27.107  20.165  0.0952  0.0286  0.2987
16044W        W59138   4.088  28.090  23.496  0.0732 -0.0209 -0.0948
16045W        W59139   0.062  29.062  23.409 -0.0707 -0.2688  0.2484
16046W        W59140   3.615  26.612  21.086  0.0709  0.0895 -0.2144
16047W        W59141   1.149  27.572  21.922 -0.1207  0.0115  0.2501
16048W        W59142   3.340  29.045  21.821 -0.3359  0.1886 -0.0839
16049W        W59143   1.987  27.483  20.505  0.4528  0.0591  0.1488
16050W        W59144   3.346  25.854  21.750 -0.1250 -0.1429 -0.0065
16051W        W59145   3.026  26.513  23.269  0.1801  0.0957 -0.0641
16052W        W59146   1.358  27.256  20.459 -0.1461  0.0888 -0.1904
16053W        W59147   0.640  27.864  21.013  0.2313 -0.1570  0.0841
16054W        W59148   4.027  27.813  23.043 -0.2474 -0.2051  0.4321
16055W        W59149   3.982  26.286  21.617  0.3284  0.1181 -0.1938
16056W        W59150   0.985  28.645  22.556  0.0348  0.0916  0.1688
16057W        W59151  34.382  25.689  23.460 -0.1440 -0.1235  0.0712
16058W        W59152   2.456  26.904  24.479 -0.0841 -0.1729 -0.3624
16059W        W59153   0.624  28.624  19.889  0.1688  0.1577  0.3547
16060W        W59154  34.340  28.521  23.349  0.0334  0.2199  0.1549
16061W        W59155  33.572  27.367  20.375 -0.0831  0.2760 -0.3442
16062W        W59156   0.248  26.423  22.410 -0.1304 -0.2711 -0.2111
16063W        W59157  33.455  28.361  22.329 -0.0379 -0.0675 -0.0740
16064W        W59158   3.183  25.549  20.251 -0.1727  0.1018  0.0529
16065W        W59159  34.639  25.632  22.949  0.0044 -0.1743 -0.1340
16066W        W59160   3.787  25.908  22.475  0.1761 -0.1353 -0.0453
16067W        W59161  33.296  27.480  22.760 -0.1559  0.0801  0.0132
16068W        W59162   2.673  26.838  19.430 -0.0286  0.1871  0.0138
16069W        W59163   2.905  27.058  20.746  0.0496 -0.1246 -0.3538
16070W        W59164   2.075  28.140  19.799 -0.1195 -0.1061 -0.0465
16071W        W59165  32.988  27.707  23.170  0.1182 -0.1957  0.0399
16072W        W59166   0.624  26.667  22.162  0.1031 -0.1581 -0.1989
16073W        W59167   0.702  26.198  24.346 -0.3196  0.0704 -0.0163
16074W        W59168   0.897  26.987  21.472 -0.0888  0.0087 -0.1300
16075W        W59169   2.875  26.663  22.280 -0.3581 -0.2066  0.0522
16076W        W59170   0.150  27.406  21.870  0.1402 -0.2306 -0.2741
16077W        W59171   2.432  26.315  22.241 -0.0907  0.1428 -0.1842
16078W        W59172  33.918  28.515  22.303  0.0835 -0.0007 -0.1338
16079W        W59173  34.067  26.867  22.438 -0.1383 -0.1625 -0.2774
16080W        W59174   1.544  26.642  23.208  0.1019  0.2743  0.2033
16081W        W59175   1.239  28.525  21.642 -0.0908  0.2449 -0.1856
16082W        W59176   2.907  28.924  23.999 -0.0959 -0.1941  0.0477
16083W        W59177   3.077  29.856  20.628  0.1445  0.0313 -0.5476
16084W        W59178   0.696  25.570  22.776 -0.1191 -0.0468  0.3209
16085W        W59179   0.726  28.112  19.572 -0.2975  0.3056 -0.1995
16086W        W59180   0.347  29.108  23.000 -0.1941 -0.2637  0.2059
16087W        W59181   0.754  28.566  21.713  0.0553  0.0127  0.2673
16088W        W59182   0.346  27.135  20.227 -0.0323  0.0941  0.0985
16089W        W59183   2.998  28.811  21.090  0.4824 -0.1350 -0.2712
16090W        W59184   1.939  27.134  22.024  0.0566  0.2307  0.3942
16091W        W59185   0.779  27.261  23.361 -0.0636 -0.2106  0.0206
16092W        W59186   2.544  26.393  24.137  0.0120 -0.0501  0.4460
16093W        W59187   3.935  28.227  21.773  0.0676 -0.1310  0.0785
16094W        W59188   1.785  26.411  20.997  0.1114 -0.2089  0.0092
16095W        W59189   1.596  27.258  20.923  0.0081 -0.2617 -0.5958
16096W        W59190   2.378  27.949  22.757  0.0474 -0.0148 -0.1679
16097W        W59191   0.920  29.164  21.960 -0.1354 -0.2169 -0.2496
16098W        W59192  34.203  27.615  23.070 -0.1077  0.0257  0.1429
16099W        W59193   1.708  28.821  21.566 -0.2305 -0.3811 -0.0210
16100W        W59194   2.111  25.755  21.257  0.0251 -0.2203  0.0206
16101W        W59195  34.432  27.334  24.049  0.0615 -0.0630  0.1330
16102W        W59196   1.701  27.123  22.992  0.2177  0.0772  0.2388
16103W        W59197   0.516  27.460  20.657  0.0557 -0.2552  0.1852
16104W        W59198   0.604  28.462  23.058  0.4298  0.0305 -0.1922
16105W        W59199   1.841  26.121  21.492 -0.0318 -0.0077 -0.4113
16106W        W59200   1.849  25.942  20.844 -0.1312  0.1193  0.0153
16107W        W59201   1.648  27.537  23.776 -0.1082 -0.1330  0.3340
16108W        W59202   2.739  27.632  20.787  0.2139  0.1177  0.3061
16109W        W59203   2.154  26.405  20.027  0.1852 -0.1649  0.1617
16110W        W59204   3.270  27.635  19.441  0.0617  0.0448 -0.1719
16111W        W59205  33.191  29.322  24.973 -0.1224 -0.0495  0.0382
16112W        W59206   1.699  27.570  21.909 -0.4920 -0.1089  0.1578
16113W        W59207   0.950  27.095  22.019 -0.2419 -0.1133  0.1353
16114W        W59208   1.929  27.304  21.489  0.0540 -0.2411  0.0233
16115W        W59209   4.710  27.321  21.014 -0.2480 -0.1796  0.1077
16116W        W59210  34.571  26.860  23.774 -0.1662  0.1106  0.6418
16117W        W59211   1.233  27.418  23.229  0.0838  0.3165 -0.0832
16118W        W59212   2.967  28.565  23.214 -0.1101  0.0205 -0.0023
16119W        W59213   0.964  25.813  23.141  0.2379  0.3339  0.2557
16120W        W59214   0.824  27.283  20.978 -0.0586 -0.2021 -0.1598
16121W        W59215   1.191  26.268  21.431 -0.1177  0.3197 -0.0329
16122W        W59216   0.580  28.929  21.000  0.2452  0.0510  0.3112
16123W        W59217   0.895  24.854  22.544  0.1045 -0.0313 -0.0715
16124W        W59218   2.427  25.331  22.348 -0.2021 -0.3039  0.2134
16125W        W59219   1.535  25.807  23.061  0.1720  0.1840  0.2341
16126W        W59220   3.798  26.811  23.953 -0.0935  0.2626 -0.0442
16127W        W59221   2.506  28.029  21.102 -0.1629 -0.0851  0.0096
16128W        W59222   2.139  26.371  21.825 -0.1527 -0.0819  0.0539
16129W        W59223  34.310  27.933  20.277 -0.2049 -0.2107 -0.0659
16130W        W59224   2.198  25.966  23.418  0.0456  0.1238  0.1625
16131W        W59225   0.829  26.978  23.813 -0.1039  0.2924 -0.1387
16132W        W59226  34.434  28.325  22.670 -0.0647 -0.1437 -0.0347
16133W        W59227   2.820  27.778  22.906 -0.2218  0.0609 -0.2525
16134W        W59228   1.167  27.624  20.997  0.2995 -0.0072  0.0483
16135W        W59229   2.935  25.855  23.077 -0.2222 -0.0377 -0.1155
16136W        W59230   1.393  27.197  22.155  0.0092 -0.0898  0.2102
16137W        W59231  32.763  27.894  21.110 -0.1769  0.3929 -0.0868
16138W        W59232   0.408  28.291  20.890 -0.2505 -0.0330  0.0867
16139W        W59233   1.408  25.438  22.046  0.2822 -0.1342  0.1601
16140W        W59234   0.946  27.156  22.910 -0.0611 -0.2762 -0.0979
16141W        W59235   0.741  30.221  20.592 -0.0348  0.2329 -0.0546
16142W        W59236   2.426  28.140  22.199  0.1255  0.2341  0.3332
16143W        W59237  34.379  30.408  20.755 -0.1267  0.1668 -0.0679
16144W        W59238   2.162  25.479  22.766  0.1569  0.0717  0.0950
16145W        W59239  33.736  29.321  23.359 -0.1552  0.1954  0.2506
16146W        W59240   1.573  26.801  19.542  0.2200 -0.0945 -0.2477
16147W        W59241  33.440  27.916  23.021 -0.4055 -0.0392 -0.0884
16148W        W59242   2.520  24.949  21.666  0.0088 -0.1732  0.0190
16149W        W59243   3.242  27.416  20.918 -0.1166  0.1886  0.0477
16150W        W59244   0.565  26.817  23.131 -0.1604  0.0321 -0.0046
16151W        W59245   2.404  25.846  22.392  0.1852 -0.0701  0.1492
16152W        W59246  34.468  29.824  22.689  0.1897 -0.5098 -0.3667
16153W        W59247   1.973  27.629  21.037  0.2171  0.0958  0.2400
16154W        W59248   1.294  26.302  20.966 -0.0975 -0.1278  0.3671
16155W        W59249   2.084  28.051  23.139  0.1080 -0.1796 -0.0669
16156W        W59250   1.999  26.967  22.647 -0.0623 -0.0105  0.0521
16157W        W59251   0.133  26.562  20.397  0.2293  0.1002  0.0751
16158W        W59252   3.014  25.610  22.222 -0.0501  0.0991 -0.2096
16159W        W59253  34.482  28.096  22.181  0.1965  0.0041  0.0775
16160W        W59254  34.531  29.011  21.867 -0.2117 -0.2702  0.0526
16161W        W59255   2.720  28.304  22.613 -0.0188  0.0751 -0.0130
16162W        W59256  34.071  28.097  20.965 -0.2501  0.0436 -0.2136
16163W        W59257   0.292  29.012  22.451  0.1968  0.0854  0.0157
16164W        W59258   0.379  26.161  23.750  0.0280  0.0967  0.0836
16165W        W59259   1.770  27.387  22.450  0.0587 -0.0998 -0.1917
16166W        W59260   3.096  26.320  22.005 -0.0994 -0.2494 -0.1486
16167W        W59261   1.408  27.148  21.669 -0.3137 -0.0133 -0.0836
16168W        W59262   1.581  27.966  21.133  0.1018 -0.1737 -0.0376
16169W        W59263   2.404  27.286  21.769  0.0503 -0.0708 -0.0164
16170W        W59264   1.936  27.607  22.884  0.2157 -0.2177  0.0494
16171W        W59265  33.546  28.164  24.148 -0.0507  0.1710 -0.0904
16172W        W59266   0.614  25.755  22.318  0.0500 -0.0084  0.3589
16173W        W59267   2.447  29.033  21.181  0.2590 -0.1529  0.0076
16174W        W59268   1.603  28.142  24.772 -0.1494 -0.0261  0.0266
16175W        W59269  34.503  26.928  20.164 -0.1321  0.0174 -0.2374
16176W        W59270  34.538  27.336  23.518 -0.4566 -0.2261 -0.0257
16177W        W59271  34.528  27.818  21.141  0.2625  0.0182 -0.2860
16178W        W59272   3.502  26.616  22.934  0.0936  0.2090  0.1729
16179W        W59273   0.179  26.537  23.430 -0.0571  0.0359  0.1591
16180W        W59274   0.396  28.918  20.492 -0.0071  0.2322  0.0240
16181W        W59275   0.325  27.533  23.334 -0.0193  0.0060  0.0400
16182W        W59276   2.931  26.213  20.079 -0.0973  0.1702  0.1066
16183W        W59277   0.275  27.746  21.327 -0.1449  0.0579 -0.2153
16184W        W59278   0.651  27.518  21.899  0.0874  0.2328 -0.1323
16185W        W59279   4.859  26.725  22.712 -0.1309 -0.2951  0.3084
16186W        W59280   1.994  26.928  20.576  0.1431 -0.0874 -0.1561
16187W        W59281   2.859  25.195  21.944 -0.5008 -0.2581  0.1044
16188W        W59282   0.098  26.060  23.178  0.0045  0.2501 -0.3821
16189W        W59283   3.274  26.937  22.485  0.0456  0.1933  0.1026
16190W        W59284  34.421  26.769  23.319 -0.0801  0.0199 -0.1102
16191W        W59285   2.118  29.195  23.706 -0.1776 -0.0670 -0.2991
16192W        W59286  34.240  26.937  24.274  0.2060 -0.1247 -0.0896
16193W        W59287   2.463  26.673  20.833  0.1820 -0.2466 -0.0845
16194W        W59288   0.926  25.840  21.198  0.0962  0.5539  0.1646
16195W        W59289   1.190  27.367  23.749 -0.2115 -0.0040  0.0225
16196W        W59290   4.002  27.241  21.680  0.2071  0.0068 -0.4738
16197W        W59291   1.396  27.997  21.830 -0.0319 -0.4494 -0.1036
16198W        W59292   1.316  26.345  22.306 -0.1764 -0.0974  0.0622
16199W        W59293   0.728  26.349  23.140  0.0170 -0.0597  0.0771
16200W        W59294   3.002  27.141  22.136 -0.2931  0.3295  0.1294
16201W        W59295   1.402  28.580  21.206  0.1277  0.1611 -0.0854
16202W        W59296   0.340  27.992  23.088  0.2835 -0.2232  0.3184
16203W        W59297   0.022  25.885  24.036  0.0755  0.0709 -0.1270
16204W        W59298   5.648  26.355  20.898 -0.0538  0.0226  0.1451
16205W        W59299   0.124  27.056  22.561 -0.0788  0.0833 -0.0613
16206W        W59300   0.657  28.097  22.683  0.1212  0.1349 -0.1501
16207W        W59301   2.712  26.877  21.816  0.0898  0.0619 -0.1479
16208W        W59302   2.490  26.876  22.635 -0.2281 -0.0952 -0.2486
16209W        W59303  33.773  26.149  24.969  0.1762 -0.4123 -0.2451
16210W        W59304   2.753  29.616  23.420 -0.0888 -0.2846 -0.0529
16211W        W59305   2.994  28.082  19.598  0.1609 -0.0922  0.2290
16212W        W59306   1.138  25.359  22.428  0.0032  0.3199  0.2329
16213W        W59307   1.951  25.497  21.699 -0.1500  0.1150  0.3997
16214W        W59308   2.362  27.592  21.333  0.1281 -0.1144  0.0261
16215W        W59309  34.411  27.204  22.321  0.0220 -0.1480 -0.4076
16216W        W59310   3.701  27.485  24.494 -0.0733 -0.0841  0.0741
16217W        W59311   2.082  26.420  20.554 -0.0983 -0.0901 -0.1335
16218W        W59312   3.156  26.976  23.235  0.3875 -0.1246  0.2429
16219W        W59313   0.138  28.455  21.769 -0.0253  0.2125 -0.2187
16220W        W59314   2.423  29.162  22.474  0.0856  0.3073 -0.1913
16221W        W59315   2.786  27.251  21.236  0.0360 -0.0859 -0.0904
16222W        W59316  34.527  28.045  23.127  0.2436  0.1999 -0.0661
16223W        W59317   0.800  29.253  24.662  0.0075 -0.1569 -0.2005
16224W        W59318   2.202  25.948  20.425  0.2443  0.1002  0.0832
16225W        W59319   1.547  29.463  19.795 -0.0985  0.0898  0.2598
16226W        W59320   3.206  28.397  22.817  0.0708 -0.1622  0.3041
16227W        W59321   1.923  26.118  24.920  0.0525 -0.3230  0.0196
16228W        W59322   1.363  26.226  19.938  0.1547 -0.3778 -0.0787
16229W        W59323   2.867  26.498  23.743  0.0923 -0.0252  0.1426
16230W        W59324   0.085  29.371  22.073  0.0623 -0.1320 -0.0257
16231W        W59325   0.977  25.198  20.596  0.1704  0.1226 -0.2469
16232W        W59326   1.386  27.838  22.315 -0.1356 -0.0676  0.0086
16233W        W59327   1.513  28.267  23.488  0.1763  0.0547 -0.0158
16234W        W59328  34.656  27.567  22.945 -0.0711 -0.0685 -0.0367
16235W        W59329   2.053  26.492  22.576  0.1460  0.1110 -0.2657
16236W        W59330   2.701  27.697  22.395  0.1702 -0.3567 -0.2451
16237W        W59331   0.597  26.799  22.617  0.0330 -0.0419 -0.0946
16238W        W59332   1.583  27.312  24.606 -0.2000  0.2049  0.3587
16239W        W59333   1.210  26.336  23.595 -0.0781 -0.3604  0.1270
16240W        W59334   0.850  27.318  22.444  0.1858 -0.0295 -0.2616
16241W        W59335   1.945  28.889  24.198 -0.0612 -0.2092  0.1076
16242W        W59336   1.992  26.864  21.095  0.3066 -0.1015 -0.0713
16243W        W59337  33.829  28.792  23.382  0.3041  0.3791 -0.0065
16244W        W59338   0.496  26.108  25.988  0.2581 -0.0703  0.0105
16245W        W59339   1.321  27.523  24.276 -0.2031 -0.0512 -0.2175
16246W        W59340   2.948  27.325  22.640  0.2202  0.0417  0.0426
16247W        W59341   0.986  24.964  22.081 -0.0896 -0.1166  0.1569
16248W        W59342   0.661  29.113  19.776 -0.1381  0.2272 -0.1226
16249W        W59343   0.302  29.647  24.200  0.0244 -0.0108 -0.1535
16250W        W59344  34.076  27.040  23.817  0.2161  0.0107  0.0577
16251W        W59345   0.840  29.976  21.976 -0.1845 -0.3171 -0.0496
16252W        W59346   2.829  27.098  19.939  0.2000  0.1606  0.0144
16253W        W59347   2.199  28.814  21.580 -0.0461  0.0407  0.0097
16254W        W59348   1.873  28.639  23.000  0.2846  0.0190  0.2249
16255W        W59349   1.584  26.283  20.539  0.0427  0.0531 -0.1408
16256W        W59350   1.086  29.125  22.431 -0.1014 -0.1626  0.1786
16257W        W59351  34.532  28.345  20.036 -0.3023  0.0718 -0.1404
16258W        W59352   1.098  29.406  20.123 -0.1442 -0.0161 -0.2360
16259W        W59353  34.139  27.982  21.866 -0.1422  0.1473 -0.1313
16260W        W59354   2.822  28.820  22.696 -0.2705 -0.2094 -0.0062
16261W        W59355   3.217  25.660  18.709 -0.3455 -0.1773 -0.3639
16262W        W59356   1.861  26.141  22.248 -0.2258 -0.1630 -0.1462
16263W        W59357   3.466  25.264  21.016  0.0103 -0.0176  0.1130
16264W        W59358   2.497  27.339  23.617 -0.0531 -0.1332  0.2919
16265W        W59359   1.535  26.643  22.694  0.1633  0.2486  0.1626
16266W        W59360   2.586  25.987  19.847  0.1451  0.1090 -0.0271
16267W        W59361   1.423  26.975  23.655 -0.0952  0.0926  0.0135
16268W        W59362   3.645  25.316  23.141 -0.0558  0.0556 -0.0195
16269W        W59363   0.456  28.872  24.837  0.0286  0.0897  0.0217
16270W        W59364   0.843  28.487  20.410  0.0089 -0.5090  0.0752
16271W        W59365  33.938  27.124  21.711  0.0159 -0.2273 -0.1628
16272W        W59366   0.123  27.042  23.080  0.4608 -0.2349  0.0200
16273W        W59367   3.176  23.999  21.863  0.0209  0.1265  0.1813
16274W        W59368   1.722  28.965  19.660 -0.0946 -0.3084 -0.0352
16275W        W59369   2.637  26.399  21.742 -0.0889  0.4906 -0.2857
16276W        W59370   0.843  28.041  21.778 -0.0868 -0.2026 -0.1745
16277W        W59371   2.739  27.308  23.140  0.0738 -0.1833  0.5039
16278W        W59372   1.354  28.673  23.070 -0.0310 -0.1832  0.0351
16279W        W59373   0.369  26.999  20.724  0.0177  0.2448  0.3369
16280W        W59374   3.201  26.945  21.108 -0.3308 -0.2942 -0.2100
16281W        W59375   1.106  25.863  22.647  0.0518 -0.0492 -0.2185
16282W        W59376   4.087  27.187  22.170  0.0517  0.1990 -0.0342
16283W        W59377   0.467  27.669  22.411 -0.4044  0.0432 -0.1067
16284W        W59378   2.019  25.438  20.829  0.1738 -0.1880  0.1022
16285W        W59379  34.561  27.985  21.600  0.5802 -0.1233 -0.2002
16286W        W59380  34.293  27.184  22.761 -0.1430  0.1077 -0.2542
16287W        W59381   2.116  26.311  18.854  0.1413 -0.1321 -0.0068
16288W        W59382   3.756  27.412  23.206 -0.1719  0.0195 -0.4074
16289W        W59383   2.250  26.417  19.365 -0.3391  0.2880  0.0443
16290W        W59384   2.898  30.096  24.194  0.0895  0.0411  0.0382
16291W        W59385   0.310  26.228  21.375 -0.1522  0.1023  0.1860
16292W        W59386   3.337  26.968  19.107  0.1089 -0.0662  0.1526
16293W        W59387  34.314  27.462  21.857  0.3679 -0.0083  0.2960
16294W        W59388   1.631  27.182  24.103 -0.2514  0.2770 -0.0236
16295W        W59389   3.531  27.277  23.807  0.2066 -0.1346 -0.2507
16296W        W59390   0.085  26.542  21.699  0.1610 -0.0459 -0.3030
16297W        W59391   1.913  28.935  20.308  0.3800  0.3060 -0.4259
16298W        W59392   2.763  25.547  22.616  0.0021 -0.1535 -0.0382
16299W        W59393   0.082  29.592  21.174  0.0073 -0.1117  0.3236
16300W        W59394   2.318  28.400  20.162  0.3786 -0.1292 -0.1406
16301W        W59395   3.474  28.838  20.575 -0.1478  0.0883  0.0683
16302W        W59396  34.140  27.213  21.242 -0.0256  0.0174 -0.2408
16303W        W59397   2.464  29.941  24.016  0.2234 -0.2206 -0.4442
16304W        W59398   3.520  28.488  22.458  0.0652  0.0890 -0.1859
16305W        W59399   2.632  26.760  21.309 -0.2281 -0.1194  0.0721
16306W        W59400   0.966  26.101  21.961  0.0480 -0.0810  0.0355
16307W        W59401  33.752  29.793  21.362  0.6071 -0.3446  0.6081
16308W        W59402   4.293  25.488  22.321  0.2310  0.0031  0.1009
16309W        W59403   2.466  25.928  22.941 -0.4596  0.2751  0.2288
16310W        W59404   1.094  28.791  20.913  0.1102  0.0378 -0.2083
16311W        W59405   2.785  24.985  22.626  0.0442 -0.2241 -0.0816
16312W        W59406   1.324  27.203  22.644 -0.2089 -0.1519 -0.2064
16313W        W59407   2.238  28.638  23.933 -0.0214 -0.2373  0.0148
16314W        W59408   1.155  28.348  19.636 -0.0596 -0.2176 -0.1371
16315W        W59409   0.490  27.439  22.864 -0.4026  0.0465 -0.1097
16316W        W59410   2.522  27.174  22.259 -0.0270 -0.1818  0.2233
16317W        W59411   1.109  29.700  21.663 -0.3308 -0.1427  0.0874
16318W        W59412   2.400  28.700  22.371  0.0485 -0.1608  0.0232
16319W        W59413   1.540  25.731  21.206 -0.0343  0.2134  0.2405
16320W        W59414   3.456  27.606  22.687  0.0147 -0.0274  0.1778
16321W        W59415   1.527  26.248  21.860  0.1143 -0.1515  0.3994
16322W        W59416   3.226  24.869  20.992 -0.0352  0.0966  0.2417
16323W        W59417   3.312  25.685  21.270  0.1602  0.4476  0.3080
16324W        W59418   1.456  27.677  22.811 -0.0167 -0.0137 -0.0592
16325W        W59419   0.104  25.847  20.220  0.3290 -0.0603  0.1064
16326W        W59420   1.001  27.838  18.619  0.2217 -0.0328 -0.0189
16327W        W59421   0.009  28.597  22.265  0.0204 -0.3407  0.0152
16328W        W59422   2.244  24.570  24.370  0.3712  0.0542  0.0673
16329W        W59423   0.214  26.218  24.497 -0.2233  0.0425  0.4859
16330W        W59424  33.646  27.154  23.497  0.1110  0.0206  0.0316
16331W        W59425   0.532  28.157  21.421 -0.0543  0.0339 -0.1171
16332W        W59426   1.823  28.297  20.269  0.0307  0.0658 -0.0351
16333W        W59427   0.005  25.871  22.277 -0.0399 -0.4881 -0.2306
16334W        W59428   0.729  26.514  21.591  0.0693  0.0716  0.1267
16335W        W59429   3.625  28.111  22.833  0.0896  0.3112  0.1472
16336W        W59430   1.945  27.879  21.504  0.1437  0.2464  0.1274
16337W        W59431   0.898  26.249  20.619  0.0286 -0.0626 -0.0814
16338W        W59432   3.165  28.015  22.474 -0.1163  0.1533  0.2687
16339W        W59433   0.437  27.652  19.674  0.1937  0.0409 -0.3122
16340W        W59434   0.589  25.281  24.263 -0.0661 -0.0224  0.1591
16341W        W59435   0.137  24.960  22.497  0.0772  0.2132 -0.0125
16342W        W59436   0.131  27.370  20.975 -0.3003  0.1017 -0.0816
16343W        W59437   2.780  26.182  22.567 -0.1011 -0.0457  0.1532
16344W        W59438   0.908  27.599  21.484  0.3127 -0.2024  0.1212
16345W        W59439   2.063  28.170  21.013  0.1373  0.0158  0.0615
16346W        W59440   1.262  28.199  22.583 -0.0856  0.0459  0.0871
16347W        W59441   1.959  28.222  23.699  0.1436  0.0112 -0.1901
16348W        W59442  34.657  24.418  22.431  0.0022  0.1248  0.0390
16349W        W59443   2.137  27.950  20.492 -0.2069 -0.0239  0.1178
16350W        W59444   0.081  28.153  23.569  0.1118 -0.0400 -0.0783
16351W        W59445   3.720  28.414  19.108 -0.0853  0.1613 -0.4513
16352W        W59446   3.262  26.014  22.341 -0.2754  0.3097 -0.1243
16353W        W59447   1.678  26.617  21.571  0.0651 -0.0998  0.3216
16354W        W59448  34.355  25.634  24.361 -0.2235  0.0377 -0.2661
16355W        W59449   0.990  28.506  23.374  0.0511 -0.3992 -0.3611
16356W        W59450   2.351  27.436  22.660  0.0962  0.0179 -0.0036
16357W        W59451   1.144  26.815  22.392  0.0603  0.1232 -0.0109
16358W        W59452   1.152  26.612  21.828 -0.0579  0.1360  0.3177
16359W        W59453   1.392  29.335  20.550  0.1457 -0.3501 -0.0907
16360W        W59454  33.891  26.690  23.493  0.0996  0.1454  0.0025
16361W        W59455   1.849  26.010  20.080 -0.0312  0.2718 -0.1926
16362W        W59456   1.609  26.890  24.924 -0.0628 -0.2916 -0.1439
16363W        W59457   0.552  28.233  22.182 -0.2010 -0.0890  0.1972
16364W        W59458   3.536  27.123  22.858  0.1441  0.0576 -0.2372
16365W        W59459  34.661  27.647  22.327  0.1440  0.0242 -0.1528
16366W        W59460   4.697  27.777  20.290 -0.1497  0.1389 -0.2131
16367W        W59461   2.543  29.312  22.941 -0.2099  0.1729  0.2907
16368W        W59462   3.905  29.701  22.874  0.1966 -0.3459 -0.2862
16369W        W59463   1.764  29.391  23.414 -0.0888 -0.2016 -0.0382
16370W        W59464   4.437  27.573  22.539  0.3193 -0.0386 -0.2371
16371W        W59465   0.059  26.848  22.118  0.0458  0.1060 -0.2585
16372W        W59466  33.780  27.792  20.371  0.0925 -0.1256  0.0567
16373W        W59467   2.185  28.821  19.851  0.0197  0.0275 -0.2029
16374W        W59468   2.174  25.913  21.893 -0.0497  0.1744  0.0745
16375W        W59469   1.624  26.114  22.678  0.1163 -0.3392 -0.0204
16376W        W59470   2.500  27.287  20.488  0.1497 -0.0623 -0.3068
16377W        W59471   0.553  28.063  23.629 -0.2084 -0.0615 -0.4128
16378W        W59472   3.623  27.263  22.382  0.0781 -0.1689  0.0670
16379W        W59473   2.264  28.263  26.603  0.0478 -0.0196 -0.2542
16380W        W59474   0.273  26.726  24.522  0.1931  0.1466 -0.2708
16381W        W59475   3.540  28.343  24.702  0.0161  0.2905  0.0972
16382W        W59476   2.578  27.585  24.570 -0.2607 -0.2274 -0.2235
16383W        W59477  34.627  24.871  25.839  0.0142 -0.1276  0.3660
16384W        W59478   2.993  28.071  24.521  0.2514  0.0887  0.2041
16385W        W59479   0.680  26.358  26.456  0.1288 -0.0870  0.0948
16386W        W59480   2.138  28.873  26.843  0.2916  0.0511  0.0279
16387W        W59481   2.609  27.900  25.844 -0.1309 -0.0911 -0.3846
16388W        W59482   2.794  27.783  23.458  0.1022 -0.3868  0.3772
16389W        W59483   0.050  27.384  25.726  0.2308  0.1963  0.1727
16390W        W59484   1.157  28.417  27.031 -0.0652  0.0078 -0.2174
16391W        W59485  34.679  25.945  24.870 -0.0425 -0.2137 -0.1305
16392W        W59486   0.752  25.478  26.183  0.0304 -0.2617  0.1993
16393W        W59487   2.054  27.926  27.060  0.0519 -0.0404 -0.0645
16394W        W59488   0.213  27.583  24.294 -0.0146  0.1233 -0.1351
16395W        W59489   0.530  27.143  27.016 -0.1213 -0.4329 -0.1512
16396W        W59490   1.869  26.841  23.740  0.1852  0.2955  0.1143
16397W        W59491   1.222  29.781  27.261  0.2075 -0.0641 -0.3260
16398W        W59492   0.972  25.941  26.235  0.0147  0.3499 -0.0325
16399W        W59493   3.092  27.144  26.776  0.0934 -0.3203  0.3251
16400W        W59494   1.745  28.883  23.404  0.0557  0.1062  0.0088
16401W        W59495  33.968  27.968  24.455  0.2164  0.0532 -0.1237
16402W        W59496  34.565  27.971  26.202  0.2014  0.1312  0.4315
16403W        W59497   0.785  26.409  25.120 -0.0437  0.2009 -0.1656
16404W        W59498   2.212  25.087  24.341  0.2740  0.0276  0.2229
16405W        W59499   2.121  27.872  26.323 -0.0555 -0.4088  0.1249
16406W        W59500   3.024  28.184  25.540  0.0317  0.1341 -0.0001
16407W        W59501   1.639  29.766  24.594 -0.1448 -0.1307 -0.0993
16408W        W59502   0.505  26.456  27.245 -0.0664 -0.2198  0.0265
16409W        W59503  34.119  28.154  26.451  0.1539  0.1002  0.0275
16410W        W59504   1.164  27.543  25.779  0.4712  0.2448 -0.0135
16411W        W59505   0.835  28.303  25.339 -0.3048 -0.2735 -0.1435
16412W        W59506   3.296  28.419  26.442  0.3311 -0.2989  0.0014
16413W        W59507   3.433  28.076  27.710  0.2615 -0.2070  0.2490
16414W        W59508   1.382  29.985  28.470 -0.3021 -0.1491  0.0028
16415W        W59509   0.224  28.288  24.019  0.1310  0.0420 -0.0885
16416W        W59510   0.945  29.181  26.728 -0.4092  0.0699  0.0726
16417W        W59511   1.956  28.462  27.577 -0.1360  0.0759  0.0625
16418W        W59512   0.099  26.982  24.960  0.2143  0.3098  0.0862
16419W        W59513   2.574  27.673  27.314  0.0856 -0.0117 -0.1529
16420W        W59514   1.000  27.746  22.721  0.0782  0.2033  0.2011
16421W        W59515   3.063  28.072  26.146 -0.1890 -0.2237  0.0094
16422W        W59516   1.554  27.715  27.869  0.2346 -0.0484  0.0846
16423W        W59517  33.718  29.617  26.232  0.1425  0.0182  0.2625
16424W        W59518   1.227  26.567  27.834  0.0493  0.0533 -0.1126
16425W        W59519   1.061  27.911  23.525 -0.2546 -0.0632  0.1602
16426W        W59520   2.093  27.949  24.598 -0.0258 -0.5074  0.0097
16427W        W59521   2.050  26.398  23.972 -0.0921  0.2407 -0.0103
16428W        W59522   2.447  27.160  24.873  0.0004  0.0683  0.2444
16429W        W59523   0.954  27.303  25.398 -0.1396 -0.1532  0.1038
16430W        W59524   0.646  29.040  25.770 -0.0665  0.0066  0.2794
16431W        W59525   1.567  24.567  27.146  0.0022 -0.2692  0.0296
16432W        W59526   3.866  27.557  26.743 -0.0188 -0.0336 -0.1925
16433W        W59527   1.150  26.630  24.500 -0.5074  0.3227 -0.1299
16434W        W59528   2.408  26.303  24.975 -0.1380  0.0170 -0.0695
16435W        W59529  34.377  28.849  26.036 -0.0198 -0.2664 -0.0290
16436W        W59530   0.508  27.173  24.599 -0.0892 -0.3291  0.1516
16437W        W59531   3.206  26.897  23.717  0.1075 -0.1371 -0.1174
16438W        W59532   3.840  28.863  24.722  0.1885 -0.0596  0.0782
16439W        W59533   3.431  28.897  23.930 -0.1489  0.0688 -0.0327
16440W        W59534   0.657  25.354  25.323 -0.2481  0.0387 -0.3513
16441W        W59535   0.093  29.336  27.366 -0.2092  0.2570 -0.2054
16442W        W59536  34.671  27.551  26.481  0.1127 -0.0736  0.0363
16443W        W59537   0.339  25.589  21.888 -0.0612  0.1878  0.0240
16444W        W59538   3.119  27.264  28.580  0.1067 -0.0146  0.0108
16445W        W59539   0.539  28.313  26.981 -0.1759  0.2254  0.1209
16446W        W59540   3.700  25.151  24.796  0.0702  0.1950 -0.0017
16447W        W59541   0.370  29.561  26.941 -0.0730  0.0013  0.1783
16448W        W59542   2.710  27.415  26.021  0.2238  0.2357  0.2731
16449W        W59543   3.964  27.403  22.656  0.4384  0.2086 -0.2027
16450W        W59544   2.030  25.995  25.408  0.1708 -0.1233  0.0735
16451W        W59545   2.603  26.130  27.442 -0.2335  0.2353 -0.1772
16452W        W59546  34.458  27.829  24.291  0.1839  0.0393 -0.0651
16453W        W59547   2.490  27.997  24.279  0.1625 -0.1837 -0.1363
16454W        W59548   3.752  28.620  26.524  0.1939  0.4146  0.0382
16455W        W59549   3.101  26.845  25.650 -0.3758  0.1858 -0.0500
16456W        W59550   0.321  29.472  26.016  0.3308  0.1249 -0.2049
16457W        W59551   1.705  26.284  25.687 -0.0163 -0.1981  0.1481
16458W        W59552   2.582  27.227  27.559 -0.1544 -0.1480  0.2739
16459W        W59553  33.941  28.454  24.252  0.1876 -0.0098 -0.1311
16460W        W59554  33.309  28.879  25.557 -0.4138  0.0463  0.2402
16461W        W59555   0.494  28.351  24.912  0.5004  0.2057 -0.0025
16462W        W59556  34.444  24.475  25.472  0.2772  0.0168 -0.0515
16463W        W59557   1.720  29.180  26.786 -0.1708 -0.3909 -0.0531
16464W        W59558   3.401  26.840  24.719 -0.3603 -0.3463  0.2669
16465W        W59559   0.711  25.643  25.740  0.3644 -0.2058  0.2843
16466W        W59560   1.884  25.117  25.034 -0.0589 -0.1707 -0.0611
16467W        W59561  34.656  28.012  24.923 -0.0370 -0.0792  0.0361
16468W        W59562   2.855  29.009  24.995  0.1651  0.1245 -0.3706
16469W        W59563   4.335  27.308  25.331  0.3651  0.0556  0.2939
16470W        W59564   2.980  26.671  22.756 -0.5786 -0.0138 -0.1834
16471W        W59565   0.674  27.691  26.166  0.3480 -0.2671  0.0905
16472W        W59566  34.073  25.160  26.137  0.0176  0.0462 -0.0164
16473W        W59567   1.064  27.115  26.523  0.3695 -0.3101  0.1689
16474W        W59568   0.250  25.674  26.131 -0.3800  0.1710  0.4522
16475W        W59569   1.958  26.917  26.366  0.0362  0.2565  0.0079
16476W        W59570  33.913  25.840  24.555 -0.1043 -0.0151  0.1023
16477W        W59571   1.653  26.834  25.911  0.0545  0.2500  0.1797
16478W        W59572   1.489  25.940  24.716 -0.0815 -0.0741 -0.4633
16479W        W59573  34.177  27.425  24.473 -0.1625 -0.1640 -0.0465
16480W        W59574   4.237  25.615  26.533 -0.0518 -0.3646 -0.1561
16481W        W59575   2.226  28.589  23.416  0.1598  0.0202 -0.4312
16482W        W59576   2.854  29.045  26.939 -0.0147  0.3641 -0.3158
16483W        W59577   3.479  27.848  26.399  0.0898  0.0531 -0.2572
16484W        W59578   1.542  27.284  26.538 -0.0425  0.3227  0.0625
16485W        W59579   0.685  26.512  24.675 -0.1655 -0.3347  0.2326
16486W        W59580   1.021  30.310  26.360  0.1575  0.2112  0.2699
16487W        W59581   1.540  28.434  25.795  0.1131 -0.1125  0.2139
16488W        W59582   0.823  25.256  24.819  0.2130  0.3088 -0.0855
16489W        W59583   4.598  28.025  27.429  0.1212 -0.0853  0.0914
16490W        W59584   0.998  29.134  26.124 -0.1781 -0.1141  0.0136
16491W        W59585   0.306  28.593  26.640  0.1909 -0.2828 -0.0302
16492W        W59586   3.011  25.892  27.250  0.0375 -0.3401  0.0668
16493W        W59587   2.674  27.282  27.030  0.1185 -0.1395  0.1063
16494W        W59588   1.643  27.702  24.988 -0.1935 -0.1539  0.0545
16495W        W59589  34.606  26.089  25.379 -0.2029 -0.2358  0.0094
16496W        W59590   1.239  27.702  24.735  0.3023  0.0539 -0.1471
16497W        W59591  34.646  29.509  24.530  0.0031 -0.0829  0.0446
16498W        W59592   0.629  26.887  24.961  0.1945  0.1146 -0.0564
16499W        W59593   0.608  28.827  26.204 -0.1667 -0.3084 -0.2570
16500W        W59594   2.612  27.330  26.535  0.1278  0.1449 -0.0105
16501W        W59595  34.569  27.372  26.982 -0.0016 -0.1013 -0.1489
16502W        W59596   1.464  26.654  28.322 -0.1758 -0.0697  0.1989
16503W        W59597  34.526  26.610  24.693 -0.1461 -0.1769  0.1295
16504W        W59598   0.150  28.894  27.046  0.0953  0.3054  0.1181
16505W        W59599   2.715  26.448  25.965  0.1121 -0.0240 -0.2672
16506W        W59600   3.278  27.424  25.366  0.2537  0.2244 -0.1481
16507W        W59601   3.576  27.674  28.000  0.1260 -0.0176  0.1143
16508W        W59602   3.590  28.089  23.895  0.3802  0.0804  0.0567
16509W        W59603   2.351  26.843  23.989 -0.0731 -0.1863  0.0231
16510W        W59604   3.404  26.380  23.809 -0.2481  0.0558  0.1391
16511W        W59605   1.040  28.519  28.083  0.1149 -0.3844  0.1183
16512W        W59606   1.341  27.316  25.033 -0.0766 -0.2976  0.0241
16513W        W59607   3.447  27.303  26.324  0.0364  0.0579 -0.0215
16514W        W59608   2.477  26.810  25.184  0.1257  0.1795 -0.1907
16515W        W59609   3.311  27.754  23.667  0.2325 -0.2982 -0.1445
16516W        W59610   1.125  29.810  26.404  0.1024 -0.2422 -0.1655
16517W        W59611   2.318  27.580  28.432  0.1995 -0.0744  0.1294
16518W        W59612   2.263  27.676  24.975 -0.0336  0.0468 -0.2481
16519W        W59613   1.903  24.992  26.481 -0.2108 -0.2245  0.2652
16520W        W59614   1.570  27.440  25.465  0.0495 -0.1237 -0.1712
16521W        W59615   1.072  24.811  24.583 -0.0359 -0.2230 -0.1662
16522W        W59616   0.268  28.607  24.437  0.0023 -0.3722 -0.2666
16523W        W59617   1.647  25.768  25.720  0.0314 -0.0011 -0.1746
16524W        W59618   1.816  27.319  25.926  0.2238  0.1653  0.1530
16525W        W59619   1.925  26.161  27.121 -0.3049 -0.2225 -0.0846
16526W        W59620   2.386  26.059  29.305  0.0727  0.1755  0.0782
16527W        W59621   3.948  26.812  24.484 -0.0944  0.2195 -0.0004
16528W        W59622   1.257  27.918  26.892 -0.0984 -0.0985  0.0006
16529W        W59623   2.676  26.906  23.432  0.1701 -0.1170 -0.2831
16530W        W59624   1.558  27.009  27.344  0.0110 -0.0614 -0.0918
16531W        W59625   0.868  28.172  26.240 -0.0053  0.0945 -0.0160
16532W        W59626   0.496  30.083  26.751 -0.0451  0.1712  0.0878
16533W        W59627   1.558  27.033  27.895 -0.1654  0.1629  0.0887
16534W        W59628   1.041  27.839  23.988 -0.0270  0.0512  0.0856
16535W        W59629   0.364  26.981  27.545  0.0053 -0.0823 -0.3350
16536W        W59630   1.494  25.683  24.162 -0.3161 -0.1160  0.1431
16537W        W59631   0.235  28.055  24.483  0.1961 -0.1948 -0.0321
16538W        W59632   0.642  25.779  24.027  0.0711  0.0827 -0.0476
16539W        W59633   1.609  24.923  25.963 -0.0372  0.3513 -0.0412
16540W        W59634   1.876  29.393  27.936 -0.2689  0.1650 -0.1435
16541W        W59635   1.263  28.902  24.608  0.0807  0.1922 -0.2988
16542W        W59636   1.612  27.742  27.304  0.2936  0.1463 -0.0720
16543W        W59637   0.710  27.988  24.651 -0.0190  0.0259 -0.2106
16544W        W59638   3.707  25.162  26.617  0.0847  0.0632 -0.1117
16545W        W59639  33.777  28.896  27.677  0.2222  0.2002 -0.0147
16546W        W59640   0.293  25.757  24.576  0.1073 -0.0430 -0.1030
16547W        W59641   0.806  27.466  24.248  0.3228 -0.0169 -0.1655
16548W        W59642   4.575  26.512  23.778  0.2165  0.1053  0.0251
16549W        W59643   2.477  28.165  23.765 -0.1207  0.0675  0.2399
16550W        W59644   1.088  26.885  25.688 -0.0413  0.2748 -0.1536
16551W        W59645   1.247  26.355  24.885 -0.0320  0.1549  0.2224
16552W        W59646  34.250  30.269  26.816 -0.0762  0.0843  0.2811
16553W        W59647   1.159  27.938  27.398 -0.1930  0.1118  0.1322
16554W        W59648   2.599  27.626  23.991 -0.1699  0.1752 -0.1259
16555W        W59649   2.779  26.731  26.733 -0.0095  0.1987  0.0823
16556W        W59650   0.945  28.384  27.561 -0.2421  0.3085 -0.1596
16557W        W59651   1.173  27.052  24.128 -0.0154 -0.0837  0.2511
16558W        W59652   3.779  27.384  25.351 -0.0798 -0.2900  0.3136
16559W        W59653   1.245  27.851  25.251 -0.3434 -0.0060 -0.0260
16560W        W59654  33.439  28.792  25.035  0.0406  0.0025  0.1450
16561W        W59655   1.892  29.677  26.541  0.0178 -0.0113 -0.0818
16562W        W59656   1.503  26.644  24.096  0.0645  0.0487  0.2505
16563W        W59657   0.441  28.714  25.385  0.0348  0.2233  0.0521
16564W        W59658   0.910  25.417  26.777  0.4805 -0.0835 -0.1980
16565W        W59659   2.207  27.183  27.201  0.0846  0.2198  0.1983
16566W        W59660   1.308  27.236  26.082  0.4004  0.3002 -0.0366
16567W        W59661   1.396  25.997  25.263  0.0777  0.0312 -0.0517
16568W        W59662   1.067  28.637  26.153 -0.1408 -0.0990 -0.0606
16569W        W59663   1.806  27.110  26.915  0.0812 -0.3278  0.1118
16570W        W59664   1.466  26.812  26.402  0.1922 -0.1077 -0.0227
16571W        W59665   1.943  27.346  28.084  0.4759 -0.0720 -0.1324
16572W        W59666   0.849  27.194  26.077 -0.2717  0.1243 -0.1490
16573W        W59667   2.977  29.085  23.103  0.0949  0.2898 -0.1398
16574W        W59668   1.025  26.716  26.230 -0.0847 -0.0114 -0.0526
16575W        W59669  34.040  26.525  24.532  0.1788 -0.3418  0.0625
16576W        W59670   0.212  29.071  26.303  0.2109 -0.1862 -0.0993
16577W        W59671  34.677  27.727  23.852 -0.2862 -0.0733 -0.0920
16578W        W59672   2.048  27.389  26.408 -0.1999 -0.1026 -0.3222
16579W        W59673   0.233  30.020  27.181 -0.1960  0.1779  0.0603
16580W        W59674   1.657  28.613  23.962 -0.0822 -0.0536 -0.1697
16581W        W59675  33.985  29.356  26.532  0.1192  0.1292  0.0840
16582W        W59676   2.106  26.798  24.895 -0.0384 -0.1649 -0.1389
16583W        W59677   3.634  27.907  23.296 -0.0189 -0.1307 -0.0136
16584W        W59678   1.662  26.477  24.598  0.1837  0.4042  0.1825
16585W        W59679   2.860  25.101  26.404 -0.4132  0.1431 -0.1530
16586W        W59680   2.380  26.455  23.394  0.4003  0.2593  0.2477
16587W        W59681   2.170  26.293  28.150 -0.2235  0.1849  0.0133
16588W        W59682   0.517  26.898  25.845  0.1687  0.0075 -0.1414
16589W        W59683   2.080  28.442  24.697  0.2058  0.0700 -0.1689
16590W        W59684   0.256  26.517  26.061 -0.2120  0.0499  0.0478
16591W        W59685   2.208  29.767  27.990 -0.0507 -0.1194  0.1418
16592W        W59686  34.331  27.801  26.815 -0.0627 -0.0597 -0.0433
16593W        W59687   1.468  26.972  25.402  0.1928 -0.2056  0.1821
16594W        W59688   1.102  26.810  25.008 -0.3773  0.0640 -0.1518
16595W        W59689   1.775  28.177  26.748  0.0742  0.0731 -0.1775
16596W        W59690   3.258  28.597  25.887  0.0437  0.2263  0.0506
16597W        W59691   3.149  27.576  24.110 -0.1214 -0.0525 -0.0093
16598W        W59692   2.497  25.404  26.112 -0.0317  0.0711  0.2050
16599W        W59693   0.717  27.902  25.650 -0.1052 -0.2204  0.0546
16600W        W59694   1.894  25.612  24.973 -0.1265 -0.1653  0.0705
16601W        W59695   1.251  26.178  23.008 -0.3652 -0.2427 -0.1291
16602W        W59696   1.085  27.187  24.592  0.1475 -0.0388  0.1513
16603W        W59697   1.352  25.431  27.076 -0.1829 -0.0579  0.0730
16604W        W59698   2.780  28.474  26.224  0.0670  0.1567 -0.1550
16605W        W59699   1.862  26.022  24.352 -0.2148  0.0243 -0.1263
16606W        W59700   2.343  26.369  25.529 -0.3120  0.0311 -0.1136
16607W        W59701   2.587  26.772  27.285  0.1486 -0.3315 -0.1216
16608W        W59702   1.330  27.433  27.547 -0.1670  0.2884 -0.1730
16609W        W59703   0.064  25.791  27.372  0.0475  0.1997  0.2697
16610W        W59704   2.830  28.992  26.078  0.2381 -0.0515 -0.0412
16611W        W59705   4.313  26.873  23.456 -0.2207  0.0007  0.4430
16612W        W59706   2.265  27.567  25.912  0.2829  0.0526  0.0369
16613W        W59707   2.670  27.878  25.307  0.3119  0.1835 -0.1094
16614W        W59708   0.398  28.272  26.202  0.0875  0.2181  0.1228
16615W        W59709  34.468  26.446  26.163  0.1831  0.1834 -0.0945
16616W        W59710   3.227  26.676  28.752 -0.0104 -0.1967 -0.1023
16617W        W59711   0.654  26.529  23.603  0.1842 -0.0117 -0.1847
16618W        W59712   1.911  26.612  26.778 -0.4397 -0.1713  0.1488
16619W        W59713   1.010  28.735  25.039 -0.0369 -0.3146 -0.0396
16620W        W59714   1.296  28.848  26.549 -0.5329 -0.2089 -0.0988
16621W        W59715   2.797  27.372  25.496 -0.2020 -0.1654 -0.0933
16622W        W59716  34.218  25.575  26.746 -0.2276 -0.1464  0.1580
16623W        W59717  34.062  28.587  27.432  0.1623 -0.3027  0.1455
16624W        W59718   0.993  26.568  23.983 -0.0012 -0.1236  0.0208
16625W        W59719   0.817  26.020  23.583 -0.3160  0.0594 -0.0634
16626W        W59720   1.361  28.234  26.314  0.1851  0.2884 -0.1263
16627W        W59721   3.074  27.704  27.704 -0.4302  0.0620  0.1290
16628W        W59722   2.640  24.846  24.091  0.2596 -0.1778  0.0703
16629W        W59723   4.511  26.007  27.419  0.3362  0.0584 -0.1617
16630W        W59724   0.325  29.144  24.428  0.1308 -0.0601 -0.0317
16631W        W59725   2.124  25.773  26.824 -0.1891 -0.1487  0.2713
16632W        W59726   1.717  30.311  28.366  0.0443  0.5087 -0.1519
16633W        W59727  33.566  28.216  26.209 -0.1591  0.0371  0.1149
16634W        W59728   1.451  27.962  25.655 -0.2979  0.0290  0.0518
16635W        W59729   1.486  25.084  26.753 -0.0893  0.3865 -0.2575
16636W        W59730   1.901  27.287  24.995 -0.1294 -0.2923  0.0769
16637W        W59731  34.643  29.262  26.759  0.1282 -0.3709 -0.0427
16638W        W59732   3.297  25.340  26.356  0.2324 -0.6175 -0.0809
16639W        W59733   3.565  27.624  25.954  0.1015  0.0474  0.3133
16640W        W59734  34.625  29.153  25.754 -0.0682  0.0470 -0.0120
16641W        W59735   3.012  28.138  27.416 -0.0537 -0.0431  0.0839
16642W        W59736   3.068  27.053  25.157  0.2101 -0.1122  0.2731
16643W        W59737   1.824  28.812  26.419 -0.0738  0.1040 -0.2687
16644W        W59738   0.257  26.512  27.762  0.2285  0.0738  0.1015
16645W        W59739   1.921  26.853  28.194 -0.0756  0.0288 -0.4249
16646W        W59740   1.797  27.648  24.335  0.2941  0.0924 -0.1448
16647W        W59741   1.267  26.176  24.287  0.2651 -0.1494  0.2061
16648W        W59742   1.640  27.759  23.325  0.1594 -0.0550 -0.0492
16649W        W59743  34.555  29.835  27.568 -0.1596 -0.0659 -0.1729
16650W        W59744   0.145  27.771  25.368  0.3808 -0.1540 -0.1284
16651W        W59745   0.351  29.400  25.539  0.1377 -0.1642 -0.1594
16652W        W59746   3.994  28.470  22.411  0.1117 -0.1159 -0.0195
16653W        W59747   2.594  28.133  23.178 -0.3186 -0.0232 -0.2806
16654W        W59748   2.556  28.174  26.978  0.0566 -0.0336  0.0131
16655W        W59749   1.919  26.316  23.071  0.2177  0.1327  0.1322
16656W        W59750   0.604  27.938  25.159 -0.1265  0.4556  0.0118
16657W        W59751   0.421  28.642  23.476  0.2223 -0.0368 -0.0419
16658W        W59752   2.503  28.919  25.323 -0.0604  0.0944 -0.0459
16659W        W59753   0.737  29.788  27.286  0.0951  0.2613  0.0389
16660W        W59754   3.193  28.718  28.323 -0.0856 -0.2232 -0.1632
16661W        W59755   1.473  27.749  26.100  0.3208  0.0484  0.0444
16662W        W59756   4.029  27.474  26.200  0.2345 -0.2552 -0.0154
16663W        W59757   3.174  25.737  24.487 -0.2016 -0.1380 -0.1502
16664W        W59758   2.931  28.569  27.120  0.1001  0.2179 -0.0964
16665W        W59759   0.258  27.806  25.882  0.2086  0.3251 -0.1103
16666W        W59760   0.870  25.211  23.084 -0.0879 -0.1552  0.0258
16667W        W59761   0.421  26.034  27.652  0.0517 -0.1909  0.0935
16668W        W59762   3.295  26.584  26.798 -0.2157  0.2030 -0.1589
16669W        W59763  34.183  29.167  27.427 -0.2265  0.0774  0.0081
16670W        W59764   2.604  28.629  25.754 -0.1482  0.2188 -0.1171
16671W        W59765   0.713  26.854  24.276 -0.1156  0.0570  0.3106
16672W        W59766   0.274  25.515  25.032 -0.1152 -0.0873 -0.0886
16673W        W59767   3.261  26.274  24.701 -0.1242 -0.0941  0.1744
16674W        W59768   0.365  27.006  23.581  0.0686 -0.0370  0.3358
16675W        W59769   2.342  28.252  26.032  0.0398 -0.4103 -0.3559
16676W        W59770   2.341  28.772  26.179  0.1069 -0.1121  0.1279
16677W        W59771  34.489  29.339  26.228  0.0158 -0.0753  0.1392
16678W        W59772   1.300  28.386  25.306 -0.3670  0.1863 -0.0380
16679W        W59773  34.354  27.714  25.196  0.2299  0.2193  0.1908
16680W        W59774   4.007  26.351  25.149  0.2689  0.2735 -0.3260
16681W        W59775  34.538  26.602  26.682  0.0438  0.0269  0.0217
16682W        W59776   3.625  26.098  25.947  0.2518  0.3469 -0.1846
16683W        W59777  34.368  26.739  25.165 -0.0748  0.0136  0.1679
16684W        W59778   2.267  27.064  26.000  0.0516  0.2666 -0.1521
16685W        W59779   2.177  27.005  27.698 -0.0900 -0.3366 -0.3274
16686W        W59780   0.656  27.411  26.580  0.0794  0.2081 -0.0698
16687W        W59781   2.774  26.190  25.316  0.1883  0.1508  0.0917
16688W        W59782   1.732  26.551  27.796  0.0444 -0.0709  0.1403
16689W        W59783   2.115  27.776  23.823  0.0742  0.0005  0.2155
16690W        W59784   3.316  27.796  27.255  0.1136 -0.0365  0.0671
16691W        W59785   1.021  25.907  24.894 -0.1188  0.1455  0.1277
16692W        W59786   2.723  25.586  23.438  0.1906  0.0416  0.2891
16693W        W59787  34.337  27.067  24.833  0.4042 -0.0119 -0.2140
16694W        W59788   1.706  26.498  25.208  0.0972 -0.4334 -0.0641
16695W        W59789   3.379  28.216  28.306  0.1191 -0.1334 -0.1236
16696W        W59790   0.820  24.451  26.589  0.1683  0.4673  0.1342
16697W        W59791   3.144  28.082  23.184 -0.3432  0.1734  0.3988
16698W        W59792   3.032  27.608  26.302 -0.0242  0.2101 -0.0245
16699W        W59793   1.847  29.647  22.946 -0.0885  0.3502  0.0024
16700W        W59794   2.123  27.282  23.964 -0.2341  0.1805  0.0353
16701W        W59795   2.438  28.925  27.233  0.0155  0.1483 -0.1395
16702W        W59796   0.007  26.114  25.895  0.0283 -0.1851  0.0132
16703W        W59797   3.404  28.261  27.132 -0.1539  0.0187 -0.0686
16704W        W59798   3.720  26.989  26.769  0.2531 -0.1812  0.0068
16705W        W59799   2.654  25.906  25.777  0.2932 -0.0800 -0.0268
16706W        W59800   1.270  26.320  26.539  0.1187 -0.2093 -0.0302
16707W        W59801  34.626  29.095  24.773  0.3001 -0.3341  0.2331
16708W        W59802   3.141  25.844  25.088 -0.2912 -0.1681 -0.3194
16709W        W59803   3.516  26.127  27.004 -0.0418 -0.1449 -0.0312
16710W        W59804   1.657  29.227  23.879 -0.1018  0.1048  0.2421
16711W        W59805   3.319  25.071  26.961 -0.3117  0.0774  0.2119
16712W        W59806   2.113  27.770  27.536  0.3117 -0.0266  0.0302
16713W        W59807   1.945  28.100  27.954  0.2380  0.1084 -0.2955
16714W        W59808   0.277  27.131  24.088 -0.0202  0.0434 -0.2863
16715W        W59809  34.588  28.844  27.449  0.2524 -0.0529  0.0445
16716W        W59810   0.560  27.433  25.730  0.1195 -0.2155 -0.3046
16717W        W59811   1.599  29.274  24.793 -0.2056  0.3647  0.0377
16718W        W59812   3.084  28.738  25.453 -0.0564 -0.1037  0.3017
16719W        W59813   1.968  27.926  25.745 -0.2359 -0.0344 -0.2041
16720W        W59814   2.645  27.993  26.470 -0.1842  0.0040  0.2714
16721W        W59815   1.138  25.834  26.681 -0.0285  0.1923 -0.3123
16722W        W59816   2.319  25.278  24.789 -0.2080  0.0269 -0.2916
16723W        W59817   2.554  25.415  24.158  0.2221 -0.0366 -0.0998
16724W        W59818   1.662  28.656  26.895  0.0601  0.2753 -0.1267
16725W        W59819  34.146  28.083  24.900 -0.0926 -0.1501 -0.0720
16726W        W59820   0.260  26.596  24.028 -0.0232 -0.1965  0.0270
16727W        W59821   0.330  28.233  25.417  0.1955 -0.1857  0.2487
16728W        W59822   1.930  26.606  28.656  0.1624  0.1520  0.0778
16729W        W59823   1.092  27.622  26.376 -0.0239 -0.0567 -0.1878
16730W        W59824  33.916  28.414  25.222 -0.5043  0.0118 -0.3117
16731W        W59825   0.764  27.458  24.964  0.0970 -0.3173 -0.1234
16732W        W59826   1.242  28.079  24.381 -0.0962  0.4098  0.1334
16733W        W59827   1.287  26.446  25.437 -0.2355  0.0328  0.0725
16734W        W59828   0.463  24.875  25.997  0.0717 -0.1430  0.0250
16735W        W59829   3.172  28.343  23.651 -0.0552  0.0406 -0.2367
16736W        W59830   2.891  27.682  26.804 -0.1051  0.3020 -0.4495
16737W        W59831  34.453  25.533  25.317 -0.0339  0.0154  0.1603
16738W        W59832   4.384  27.580  26.869  0.2284 -0.0076  0.1145
16739W        W59833  33.118  28.454  23.982  0.2463  0.1074  0.0099
16740W        W59834   1.727  26.408  26.190 -0.2204 -0.0897 -0.0144
16741W        W59835   0.030  26.670  27.274 -0.0254  0.1862  0.0049
16742W        W59836   0.272  27.527  24.845  0.3141 -0.2442  0.0314
16743W        W59837   2.634  25.925  26.924 -0.3105  0.2333 -0.0181
16744W        W59838   3.248  29.841  26.460  0.1366  0.1745  0.2207
16745W        W59839   3.704  28.442  23.579 -0.1204  0.1386 -0.2594
16746W        W59840   1.386  28.914  25.900  0.3129  0.2334  0.1022
16747W        W59841   1.401  29.371  26.405 -0.1185 -0.0286  0.3359
16748W        W59842   1.093  26.303  27.041  0.0558 -0.0182  0.1382
16749W        W59843   1.583  28.758  24.965  0.1756 -0.1614 -0.2031
16750W        W59844   3.640  27.352  28.417  0.0283  0.1152  0.3445
16751W        W59845   2.744  28.447  25.183 -0.0249  0.0748  0.0294
16752W        W59846   3.153  26.068  26.693  0.1921  0.1558  0.1653
16753W        W59847   0.381  27.217  25.313 -0.1499 -0.0909 -0.0363
16754W        W59848  34.679  26.143  29.001 -0.0651 -0.0300  0.0477
16755W        W59849   1.833  27.333  27.591  0.1702  0.2829  0.1213
16756W        W59850   3.085  27.204  27.513 -0.0348 -0.2653  0.1571
16757W        W59851   1.440  25.052  24.338 -0.3449 -0.1131 -0.2641
16758W        W59852   2.767  25.571  24.737 -0.1143 -0.1404  0.3707
16759W        W59853   1.576  28.050  24.039  0.0349 -0.0116 -0.1032
16760W        W59854  34.637  25.358  26.461 -0.1615  0.1983 -0.0537
16761W        W59855   1.949  26.945  25.467  0.0193 -0.1994  0.2732
16762W        W59856   0.618  27.938  27.335  0.1118 -0.0484 -0.1177
16763W        W59857   3.047  28.012  25.059 -0.1902 -0.2591  0.1425
16764W        W59858   2.712  28.669  27.567 -0.0423  0.1024  0.1706
16765W        W59859   0.225  26.500  25.078 -0.1646  0.0536  0.1314
16766W        W59860   3.455  27.058  24.257 -0.3550 -0.1016 -0.1163
16767W        W59861   2.343  29.340  26.928 -0.0804  0.1545 -0.3294
16768W        W59862   3.925  28.002  28.216 -0.0523 -0.1069 -0.0991
16769W        W59863   1.606  29.386  27.221  0.0808 -0.4822  0.0901
16770W        W59864   4.744  28.084  25.150  0.0256 -0.2334  0.1061
16771W        W59865   0.547  24.839  26.965  0.0825  0.0981 -0.2137
16772W        W59866   0.028  26.632  25.629  0.2587  0.2371 -0.0312
16773W        W59867   1.872  28.295  26.183  0.1925  0.1731  0.2007
16774W        W59868   2.258  27.325  25.377 -0.0763  0.3593 -0.1139
16775W        W59869   1.302  25.467  24.790  0.0849  0.1347 -0.0511
16776W        W59870   2.401  26.019  24.412 -0.0733  0.1790  0.0553
16777W        W59871   1.223  29.095  27.154  0.2626 -0.0531 -0.3965
16778W        W59872   2.573  26.902  25.675 -0.0345  0.0858  0.0820
16779W        W59873   2.080  27.576  29.606  0.0183  0.1094  0.1256
16780W        W59874   0.907  27.904  28.706 -0.0840 -0.0602 -0.4643
16781W        W59875   2.039  26.682  27.315 -0.0975  0.4458 -0.1031
16782W        W59876   3.841  26.380  28.916 -0.1106  0.2767  0.3781
16783W        W59877   0.296  27.928  28.357  0.1088  0.2991  0.0728
16784W        W59878   3.166  28.691  28.975  0.1317  0.0734 -0.0328
16785W        W59879   1.971  23.947  29.919  0.0677 -0.2406  0.0022
16786W        W59880   2.751  28.628  30.509 -0.0044 -0.0781 -0.3643
16787W        W59881   2.683  29.382  31.080  0.1465  0.1339 -0.0722
16788W        W59882   2.739  26.405  28.121 -0.3216  0.0102  0.1428
16789W        W59883   1.562  28.407  29.427 -0.1316 -0.0685  0.3715
16790W        W59884   1.683  30.603  31.435 -0.0870 -0.2736 -0.0630
16791W        W59885   1.758  25.656  29.403  0.0125  0.1317  0.1077
16792W        W59886  34.669  25.024  30.008 -0.2218 -0.4266 -0.1515
16793W        W59887   2.219  26.633  29.087  0.1801 -0.2531 -0.4051
16794W        W59888   1.337  28.780  28.421  0.0980  0.1064 -0.2777
16795W        W59889   0.327  26.403  31.398  0.0534 -0.0106  0.1964
16796W        W59890   0.780  27.677  28.250 -0.1792 -0.0022 -0.0017
16797W        W59891   2.370  28.422  28.785  0.0874 -0.3420  0.1662
16798W        W59892   1.054  25.933  29.436  0.3105 -0.2357  0.1988
16799W        W59893   1.230  26.300  30.916 -0.2221  0.3961  0.2238
16800W        W59894   2.900  28.018  28.016  0.0494  0.0884 -0.0724
16801W        W59895   0.353  27.466  27.398 -0.0544  0.1763  0.0777
16802W        W59896  33.898  27.620  30.010 -0.1088  0.1273  0.2010
16803W        W59897  34.604  26.712  30.024 -0.1269  0.1956 -0.0342
16804W        W59898   2.612  26.911  29.908  0.2177 -0.1004  0.0319
16805W        W59899   2.778  25.728  29.437 -0.0013  0.1034  0.0003
16806W        W59900   1.952  27.560  28.872  0.1447  0.1574  0.0578
16807W        W59901   2.655  28.228  29.921 -0.0680  0.1226 -0.0471
16808W        W59902   2.867  26.169  31.547  0.2002  0.0728 -0.1763
16809W        W59903   0.112  28.880  29.690 -0.3405 -0.0257  0.3201
16810W        W59904   0.448  30.354  29.969  0.2665 -0.0195 -0.1358
16811W        W59905   2.176  27.106  28.647 -0.0630  0.1740  0.5561
16812W        W59906   4.869  26.865  30.430  0.1786  0.1961 -0.0643
16813W        W59907   2.017  28.308  30.638 -0.2682  0.0201 -0.0428
16814W        W59908   2.021  28.735  31.090 -0.0441 -0.0582 -0.2350
16815W        W59909   1.568  28.953  27.978  0.2277  0.1227  0.2990
16816W        W59910   1.640  27.926  31.036  0.1246 -0.2429  0.1181
16817W        W59911   0.710  30.785  31.189  0.1861  0.1101  0.1496
16818W        W59912   1.891  27.114  30.063 -0.3194  0.0356 -0.4433
16819W        W59913   1.049  26.951  28.194  0.1890 -0.1863  0.3934
16820W        W59914   2.360  27.622  26.788  0.0032 -0.0163 -0.3199
16821W        W59915   2.742  27.333  30.176  0.0083 -0.2744  0.0303
16822W        W59916   1.131  27.943  30.450 -0.0087  0.0058  0.3896
16823W        W59917   0.717  29.198  28.559  0.1458 -0.2143  0.1106
16824W        W59918   3.587  26.579   0.104  0.0406 -0.2134  0.0813
16825W        W59919   0.489  29.013  27.573 -0.3000 -0.0211  0.1893
16826W        W59920   1.017  26.993  27.212  0.1898 -0.0740 -0.2777
16827W        W59921   0.337  26.575  26.759  0.0358 -0.1089  0.4604
16828W        W59922   3.329  26.794  27.700  0.3111 -0.0042  0.1776
16829W        W59923   1.977  26.280  29.565  0.1770 -0.2072  0.0149
16830W        W59924   1.603  29.132  28.825 -0.1792 -0.0343 -0.1326
16831W        W59925   0.865  27.294  29.078 -0.1694  0.0631  0.2206
16832W        W59926   2.336  27.281  29.884  0.1030  0.3029  0.0969
16833W        W59927   3.062  26.712  29.257  0.3780  0.0264 -0.0397
16834W        W59928   3.168  26.494  30.990 -0.4896 -0.1629 -0.3668
16835W        W59929  34.368  28.498  29.715  0.0201 -0.2591 -0.1184
16836W        W59930   2.299  28.173  29.535 -0.1451 -0.0725 -0.1165
16837W        W59931   3.500  28.277  30.182 -0.1194  0.0297  0.1387
16838W        W59932   4.049  27.667  28.902 -0.1792 -0.0945 -0.2430
16839W        W59933   2.770  28.837  28.031 -0.0954 -0.1426  0.1917
16840W        W59934   1.680  28.023  28.769 -0.1797  0.1863 -0.0545
16841W        W59935  34.276  27.658  30.701 -0.2552  0.0580 -0.2634
16842W        W59936   0.338  28.345   0.190  0.0977 -0.2922 -0.1018
16843W        W59937   2.213  26.222  26.531  0.2719  0.2719  0.0603
16844W        W59938   3.659  26.681  31.033 -0.3273 -0.0431 -0.2371
16845W        W59939   1.131  28.619  29.666 -0.1440  0.3313 -0.0940
16846W        W59940   3.060  25.822  29.078 -0.0345 -0.2157  0.1884
16847W        W59941   2.930  27.123  29.630  0.1226  0.0535  0.0134
16848W        W59942   1.808  29.558  30.927 -0.0697  0.1737 -0.2604
16849W        W59943   3.651  25.939  28.974 -0.0525 -0.2594  0.1806
16850W        W59944   1.562  26.959  29.674  0.1184 -0.1558 -0.2854
16851W        W59945   2.909  24.995  29.991 -0.0149  0.1566 -0.0669
16852W        W59946  34.657  26.435  28.128 -0.1395 -0.0401 -0.0777
16853W        W59947   0.649  26.984  28.574  0.0183 -0.1156 -0.1662
16854W        W59948   3.445  26.579  30.597  0.1057  0.0280 -0.2576
16855W        W59949   4.250  27.656  28.423  0.0779 -0.0539 -0.2257
16856W        W59950   1.265  28.097  29.733  0.4604 -0.2213 -0.1240
16857W        W59951   0.724  27.708  30.235  0.1576  0.0983  0.1890
16858W        W59952   0.905  30.016  31.536  0.0237 -0.0369  0.1288
16859W        W59953   1.780  28.497  28.568  0.0930 -0.2453  0.3281
16860W        W59954   0.734  28.710  28.673 -0.1199 -0.0301 -0.0785
16861W        W59955   3.129  27.933  28.818  0.1524  0.2457 -0.0276
16862W        W59956   0.546  25.994  29.459 -0.0904  0.0804 -0.1357
16863W        W59957   2.039  28.825  30.592  0.1691 -0.3473  0.3110
16864W        W59958   3.418  26.277  28.518  0.0188  0.0114 -0.0671
16865W        W59959   1.044  25.759  30.164  0.1979  0.2961 -0.1771
16866W        W59960   2.435  26.404  29.808 -0.0495 -0.0294  0.4209
16867W        W59961   2.523  27.916  29.043  0.1312  0.2343  0.2706
16868W        W59962   4.060  26.865  28.965  0.2352 -0.2090 -0.0544
16869W        W59963   3.655  26.903  28.094 -0.1157  0.0860 -0.0783
16870W        W59964   2.994  27.613  29.217  0.1107 -0.2250 -0.0645
16871W        W59965  33.740  27.044  29.355  0.0765  0.1492  0.1855
16872W        W59966   1.678  26.887  30.450 -0.1428 -0.1708 -0.0114
16873W        W59967  33.686  27.159  30.043  0.2843 -0.0553 -0.0978
16874W        W59968   0.463  27.318  30.518 -0.0149  0.1642  0.2045
16875W        W59969   4.250  25.704  31.247  0.3778  0.0511 -0.0620
16876W        W59970   0.951  25.914  27.898  0.1401  0.0749 -0.0122
16877W        W59971   1.868  25.352  29.029 -0.0125  0.0170 -0.0089
16878W        W59972  34.316  26.775  29.598  0.0937  0.2491  0.0588
16879W        W59973   0.487  28.522  27.983 -0.2581  0.4176 -0.1045
16880W        W59974   2.663  26.357  30.853 -0.1897 -0.0739 -0.1330
16881W        W59975   1.957  28.357  29.126 -0.0225 -0.1608  0.0839
16882W        W59976   3.948  28.130  30.695 -0.2415 -0.0653 -0.0849
16883W        W59977   4.678  27.968  29.437 -0.1957  0.0325 -0.1908
16884W        W59978   0.711  26.066  30.627  0.1189  0.0144  0.3904
16885W        W59979  33.852  28.029  27.365 -0.0647 -0.0376  0.1962
16886W        W59980   1.343  29.510  29.213  0.3907 -0.0013  0.2149
16887W        W59981   3.002  27.638  29.809 -0.0365 -0.1171  0.1986
16888W        W59982   2.692  26.011  29.905  0.0570 -0.0050  0.0282
16889W        W59983   2.857  27.901  30.204 -0.2059 -0.0133  0.4593
16890W        W59984   3.183  27.739  28.331  0.2602  0.0055 -0.0798
16891W        W59985   0.187  26.958  31.380 -0.1072  0.0333  0.0412
16892W        W59986   3.135  26.584  31.786  0.0421 -0.0209 -0.0034
16893W        W59987   3.099  26.934  30.233 -0.0436 -0.2159  0.1243
16894W        W59988   2.034  26.168  27.668 -0.1446  0.0513  0.0462
16895W        W59989   0.106  27.182  27.921  0.1978 -0.1639 -0.1020
16896W        W59990   2.094  30.131  30.180 -0.0112  0.0191  0.1927
16897W        W59991   1.511  29.788  28.056 -0.0640  0.3143 -0.0086
16898W        W59992  34.505  27.380  29.891  0.0683  0.0633 -0.2115
16899W        W59993   2.751  28.519  28.474 -0.1112 -0.2019  0.2095
16900W        W59994   3.298  25.258  28.783  0.1778  0.1499 -0.1739
16901W        W59995  33.736  28.791  31.290  0.2987  0.4373 -0.2851
16902W        W59996   0.253  26.094  29.859  0.1280  0.2226 -0.1452
16903W        W59997   0.824  27.573  27.618  0.1687 -0.1383  0.2598
16904W        W59998   1.553  28.136  30.091  0.0574 -0.0172  0.1051
16905W        W59999   1.486  26.066  29.228 -0.0950 -0.3394  0.0938
16906W        W60000   2.375  26.471  26.924 -0.0736  0.0536 -0.0215
16907W        W60001   1.733  25.842  30.410  0.1124  0.0736  0.2361
16908W        W60002   3.509  27.750  30.123 -0.1815  0.1542  0.0812
16909W        W60003   2.083  27.847  29.226 -0.1915  0.0868 -0.1433
16910W        W60004   1.547  26.521  27.240 -0.0361  0.0143 -0.0214
16911W        W60005   0.211  28.207  30.849  0.1679  0.0011 -0.0011
16912W        W60006   4.035  27.179  28.580 -0.0710  0.0497  0.0619
16913W        W60007   2.448  27.775  29.873  0.1281 -0.3513 -0.1543
16914W        W60008   2.154  25.856  29.712 -0.0038  0.2763  0.1752
16915W        W60009   4.829  27.900  28.440  0.1653 -0.1970 -0.2045
16916W        W60010   0.809  28.189  29.485 -0.0971  0.2476  0.2584
16917W        W60011   1.296  27.082  30.112 -0.1692  0.1485 -0.4204
16918W        W60012   2.397  26.691  28.342  0.1166  0.0373  0.5575
16919W        W60013   0.945  25.498  29.677 -0.3468  0.0941  0.2015
16920W        W60014   1.155  27.433  27.999 -0.0939  0.1267 -0.3088
16921W        W60015   1.421  27.506  28.886 -0.2625  0.1502  0.2394
16922W        W60016   0.912  29.346  27.625 -0.0071 -0.3602 -0.3302
16923W        W60017   2.513  25.951  31.087  0.0665  0.0346  0.0905
16924W        W60018   2.661  26.793  30.468 -0.2108  0.1067 -0.2665
16925W        W60019   1.328  26.142  30.071  0.1621 -0.0598 -0.0493
16926W        W60020   3.536  26.690  29.152 -0.0129  0.2627 -0.0998
16927W        W60021   3.459  25.489  29.180  0.3261 -0.2124  0.0065
16928W        W60022   0.995  26.893  29.579 -0.0096  0.0125  0.3277
16929W        W60023   1.342  27.776  28.463  0.0159 -0.0166 -0.1592
16930W        W60024   1.776  25.667  31.424  0.0410 -0.1359 -0.0992
16931W        W60025   0.326  27.590  29.799 -0.2584 -0.3794 -0.0441
16932W        W60026   0.071  29.043  30.867 -0.1891 -0.0045 -0.5557
16933W        W60027   1.675  27.941  30.533  0.1060 -0.0383 -0.1511
16934W        W60028   3.439  27.834  29.525 -0.0213  0.0019  0.0701
16935W        W60029   2.094  26.053  30.668  0.1968  0.1680  0.2266
16936W        W60030   2.938  26.358  28.625 -0.1547  0.1222  0.0755
16937W        W60031   1.480  28.808  27.485 -0.0031 -0.0229 -0.0697
16938W        W60032   2.755  27.502  28.167  0.2485  0.1495  0.0848
16939W        W60033   1.101  26.613  29.964 -0.1570 -0.2862 -0.1197
16940W        W60034   2.010  29.228  29.657  0.2528 -0.1731 -0.2717
16941W        W60035   1.029  29.106  28.191 -0.2052 -0.1234 -0.1367
16942W        W60036   1.813  28.022  29.675 -0.1515 -0.0337 -0.0293
16943W        W60037   2.330  29.474  27.535 -0.1222 -0.3931  0.0408
16944W        W60038   2.503  24.057  30.705  0.1105  0.0881  0.1422
16945W        W60039  33.038  29.569  29.498 -0.0191 -0.0932  0.1031
16946W        W60040   1.053  27.303  28.557 -0.2202 -0.1782  0.0139
16947W        W60041   0.828  27.790  29.190  0.0894 -0.0495  0.0405
16948W        W60042   1.220  25.539  29.249 -0.5440  0.2203 -0.2697
16949W        W60043   2.915  26.347  27.068  0.1920 -0.0947  0.1785
16950W        W60044   0.556  26.412  30.277  0.0687 -0.1647 -0.0635
16951W        W60045   1.353  25.284  31.341  0.3138  0.0361 -0.1087
16952W        W60046   0.430  28.719  30.105 -0.0026 -0.1023  0.4679
16953W        W60047   1.188  28.150  30.917  0.0539 -0.2424 -0.1935
16954W        W60048   3.289  26.255  29.024  0.2806  0.0406 -0.1828
16955W        W60049   1.612  28.952  30.851 -0.2734  0.0937  0.2228
16956W        W60050   1.623  27.313   0.762 -0.0865 -0.3175 -0.2042
16957W        W60051   0.340  27.655  27.947 -0.0917 -0.1363  0.3960
16958W        W60052   2.354  25.246  31.366 -0.1347  0.1245  0.1028
16959W        W60053   0.559  27.126  29.481 -0.1753 -0.1068 -0.2092
16960W        W60054   1.488  28.641  28.913  0.1501 -0.5103 -0.2820
16961W        W60055   1.818  29.753  31.630 -0.0340 -0.0508 -0.1364
16962W        W60056   1.251  26.990  29.194 -0.0357 -0.0064  0.1954
16963W        W60057   0.111  29.300  28.496 -0.1895  0.1307 -0.0729
16964W        W60058   0.695  26.779  31.474  0.1729  0.2391 -0.2250
16965W        W60059   2.124  28.134  30.147 -0.3661  0.1033 -0.6929
16966W        W60060  34.634  26.720  29.172 -0.1037  0.1721  0.1656
16967W        W60061   1.637  26.667  29.109 -0.2904  0.3274  0.1776
16968W        W60062   1.644  25.938  30.917 -0.2299  0.0998 -0.2975
16969W        W60063   3.127  27.186  29.074 -0.1009 -0.1791 -0.1566
16970W        W60064   1.657  27.071  31.312 -0.1789  0.1346 -0.0410
16971W        W60065   1.118  28.495  31.599 -0.1716  0.1810 -0.0323
16972W        W60066   1.895  24.913  29.921  0.2567 -0.1367 -0.0258
16973W        W60067   3.589  28.467  27.964  0.0530 -0.1932  0.0831
16974W        W60068   2.568  26.923  30.990 -0.4067 -0.1137 -0.0668
16975W        W60069   1.358  27.375  26.970 -0.2392  0.1587  0.2676
16976W        W60070   0.187  27.612  30.814 -0.3794  0.1919 -0.1794
16977W        W60071   2.446  27.746  27.901 -0.1718  0.3102  0.2651
16978W        W60072   1.223  26.475  29.142  0.0372  0.1909  0.1467
16979W        W60073   1.422  28.668  30.074 -0.0231  0.0899 -0.0385
16980W        W60074   2.102  28.170  28.459 -0.0330 -0.2513 -0.0228
16981W        W60075  34.671  28.501  30.301  0.1563 -0.1257  0.3244
16982W        W60076   2.335  26.300  28.621 -0.3253  0.0438  0.0221
16983W        W60077   3.633  27.827  28.576 -0.1621 -0.1155  0.1417
16984W        W60078   2.777  27.993  29.434  0.3757  0.1742  0.1154
16985W        W60079   3.204  25.970  31.292  0.2960  0.3550 -0.0970
16986W        W60080   3.645  27.148  28.976  0.1175  0.1099 -0.1198
16987W        W60081   4.372  25.233  30.090 -0.1764  0.1606  0.0149
16988W        W60082  32.542  26.853  30.277 -0.0585  0.1192  0.1547
16989W        W60083   3.426  27.324  29.414 -0.2821 -0.0075 -0.1294
16990W        W60084  33.804  27.366  28.951  0.1125  0.0723  0.3969
16991W        W60085  34.504  28.415   0.074 -0.3516  0.2254  0.1778
16992W        W60086   0.034  26.470   0.387  0.5418  0.2178  0.0762
16993W        W60087   2.895  26.353  29.602  0.0007 -0.1680  0.2989
16994W        W60088   1.041  26.056  28.904 -0.0605 -0.0231  0.2267
16995W        W60089   1.919  28.578  30.128 -0.4182 -0.1432 -0.0009
16996W        W60090   3.340  25.838  29.543  0.0227 -0.0875  0.1065
16997W        W60091   2.486  28.178  27.463  0.0421 -0.2986 -0.1379
16998W        W60092   4.118  25.992  28.575 -0.0631 -0.3823  0.0406
16999W        W60093   1.027  28.621  29.190  0.1465 -0.2188  0.0583
17000W        W60094   1.756  26.543  29.989  0.0342  0.2522 -0.1145
17001W        W60095   1.524  26.375  30.500  0.0023  0.1910 -0.0962
17002W        W60096   0.210  28.153  28.832  0.1658  0.5385 -0.0274
17003W        W60097   0.574  24.982  31.294 -0.1446  0.3762 -0.3789
17004W        W60098   3.451  26.672  29.984 -0.1875 -0.0646  0.0003
17005W        W60099   1.599  25.226  29.444 -0.0562 -0.4495 -0.2029
17006W        W60100   1.173  25.421   0.173  0.0045 -0.0010  0.1542
17007W        W60101   2.549  27.253  28.992 -0.3216 -0.1066  0.1168
17008W        W60102   2.376  26.991   0.177 -0.2047 -0.1592 -0.1012
17009W        W60103   0.843  25.939  31.918 -0.0538  0.1377  0.0610
17010W        W60104   3.197  27.576  30.475 -0.3524 -0.2029 -0.0888
17011W        W60105   3.660  26.757  27.287  0.3522 -0.1824 -0.2806
17012W        W60106   2.098  26.215  30.213 -0.1399 -0.0159  0.3793
17013W        W60107   3.952  25.820  26.918 -0.0597  0.2553  0.2830
17014W        W60108   1.311  26.826  28.717 -0.1722 -0.0288 -0.0223
17015W        W60109   0.123  26.912  29.643 -0.2749 -0.3347  0.1362
17016W        W60110   2.130  27.244  31.419 -0.0412 -0.2523 -0.3644
17017W        W60111   0.393  26.670  28.304  0.4167 -0.3694 -0.0365
17018W        W60112   1.934  25.118  31.101  0.0765 -0.3560 -0.0723
17019W        W60113   1.556  28.185  28.300  0.2454  0.1686  0.0942
17020W        W60114   3.295  27.308  29.889  0.1707  0.0991  0.0536
17021W        W60115   2.693  26.752  28.849  0.1754  0.0635 -0.1938
17022W        W60116  33.945  27.261  28.284  0.1726  0.3057  0.0799
17023W        W60117   1.252  28.864  30.493  0.1708  0.2488  0.0425
17024W        W60118   0.138  27.079  26.600 -0.2600 -0.1944 -0.1753
17025W        W60119   0.246  28.023  26.543 -0.1430 -0.0226 -0.2242
17026W        W60120   1.438  27.035  30.863  0.2351  0.1027  0.0179
17027W        W60121   3.440  27.011  31.368 -0.0511 -0.0610 -0.1965
17028W        W60122   2.383  25.701  28.340  0.0626  0.2758 -0.0973
17029W        W60123   2.902  26.363   0.823  0.0074 -0.2463 -0.1563
17030W        W60124   0.861  29.309  29.311  0.2571 -0.1585 -0.0811
17031W        W60125   3.909  25.353  30.228 -0.0535 -0.1104  0.0575
17032W        W60126   2.533  28.177  30.452 -0.3518 -0.3516  0.2987
17033W        W60127   0.312  28.643  30.644  0.0385 -0.0703 -0.0470
17034W        W60128   0.573  29.394  28.079 -0.2567 -0.0323  0.2340
17035W        W60129   1.379  25.674  29.817 -0.0362 -0.0540 -0.3407
17036W        W60130   3.614  25.459  29.858  0.0557  0.0210  0.2350
17037W        W60131   2.720  27.806  30.822  0.0055  0.1472 -0.0370
17038W        W60132   2.263  26.701  30.189  0.0233 -0.3133 -0.2404
17039W        W60133   1.762  27.444  30.535 -0.0085 -0.2210 -0.1276
17040W        W60134   3.144  29.122  30.217  0.2428 -0.1230 -0.1142
17041W        W60135   2.381  29.025  30.871 -0.0983  0.0371  0.0575
17042W        W60136   3.563  27.279  27.186  0.0148  0.2199  0.3048
17043W        W60137   0.279  28.476  28.514 -0.3504 -0.0013  0.2696
17044W        W60138  33.995  28.004  31.340 -0.0232  0.0318  0.2396
17045W        W60139   2.532  27.454  29.429 -0.2158  0.1410  0.2324
17046W        W60140   1.750  27.062  28.834  0.2762  0.1217 -0.1915
17047W        W60141   4.013  26.041  29.402  0.2262  0.0591  0.2821
17048W        W60142   2.711  27.624  28.664 -0.3907  0.1324  0.0003
17049W        W60143  34.308  28.879  31.252 -0.1964 -0.2738  0.2323
17050W        W60144   0.260  27.813  30.312 -0.3889  0.1649  0.2355
17051W        W60145   0.483  28.912  28.255  0.0953 -0.1698  0.0165
17052W        W60146   4.397  28.499  28.810  0.1149  0.0932 -0.1055
17053W        W60147   2.727  27.018  28.473  0.0992  0.2344 -0.0092
17054W        W60148   2.873  29.154  30.632 -0.0860  0.3672  0.1187
17055W        W60149   1.385  26.805  26.880  0.1231  0.2023 -0.1025
17056W        W60150   0.398  29.271  28.983 -0.1973 -0.0280 -0.2752
17057W        W60151   0.734  29.265  27.190  0.0373 -0.0494 -0.3293
17058W        W60152   3.075  28.439  27.925  0.0426 -0.1091  0.1575
17059W        W60153   1.905  28.599  28.100  0.2084 -0.1401  0.0235
17060W        W60154   2.685  27.261  31.471  0.2393  0.2248 -0.2778
17061W        W60155   1.500  26.330  28.723  0.2118 -0.0968  0.1060
17062W        W60156   4.426  26.298  28.939 -0.0155  0.0777  0.1599
17063W        W60157   5.041  26.372  28.256 -0.2142  0.0291 -0.0507
17064W        W60158   1.128  27.568  31.697  0.4719 -0.0163  0.3411
17065W        W60159   1.061  27.243  30.691  0.0943 -0.2447  0.1704
17066W        W60160   0.831  26.736  26.814  0.1098  0.0743  0.0422
17067W        W60161   1.131  27.131  31.366  0.2901  0.2886 -0.0254
17068W        W60162   4.184  26.321   0.338 -0.3168 -0.1096 -0.4418
17069W        W60163   0.752  28.743  31.975 -0.1797 -0.1814 -0.3570
17070W        W60164   4.546  28.707  28.331  0.0830  0.0466  0.0468
17071W        W60165  34.174  26.457  28.019  0.1276 -0.3250 -0.2145
17072W        W60166   2.900  28.579  29.383  0.1329 -0.1136 -0.0178
17073W        W60167   3.900  24.365  30.176  0.0935 -0.3254  0.2509
17074W        W60168   3.190  27.258  27.994  0.1458 -0.2726  0.0053
17075W        W60169   2.083  26.573  30.605  0.0833 -0.0312  0.1573
17076W        W60170   2.381  28.624  29.318  0.1070 -0.1905  0.3357
17077W        W60171   1.396  29.068  29.340 -0.1511 -0.0079 -0.0291
17078W        W60172   1.065  28.345  30.178  0.0359  0.1491 -0.0636
17079W        W60173  33.946  26.829  27.388 -0.0046  0.0133  0.0764
17080W        W60174   4.507  26.818  29.116  0.0926  0.0830  0.4108
17081W        W60175   0.494  25.722   0.411 -0.1832  0.1200 -0.2094
17082W        W60176   4.175  24.384  30.609 -0.0634  0.2951 -0.1028
17083W        W60177   1.548  27.808  29.344 -0.1513 -0.1669 -0.3511
17084W        W60178   4.711  27.528  29.213  0.1526  0.0466 -0.4524
17085W        W60179   1.555  28.467  30.510  0.1704 -0.0725  0.0375
17086W        W60180   0.304  27.177  30.044  0.0760  0.2763  0.0321
17087W        W60181   1.845  26.095  28.506  0.0803 -0.0386 -0.2141
17088W        W60182   2.930  26.462  30.069  0.0054 -0.2374 -0.4073
17089W        W60183   1.542  27.162  28.341 -0.0001 -0.0526 -0.1183
17090W        W60184   2.848  29.445   0.044 -0.2230 -0.4259 -0.2850
17091W        W60185   1.033  26.316  28.223  0.0740  0.0796 -0.0962
17092W        W60186   0.924  27.002  27.738  0.0096  0.0416 -0.0259
17093W        W60187   2.572  29.167  29.830  0.2003 -0.2727  0.1218
17094W        W60188   0.688  26.430  31.008 -0.2309  0.0913 -0.1526
17095W        W60189   3.507  28.950  31.065 -0.1820 -0.0722 -0.4551
17096W        W60190   0.548  27.086  28.018 -0.1991  0.4392  0.0695
17097W        W60191   3.895  28.548  29.013 -0.0766  0.0470 -0.1668
17098W        W60192   4.780  25.133  29.774 -0.0168 -0.0777  0.0563
17099W        W60193   2.281  28.951  27.722  0.0685  0.0361  0.0328
17100W        W60194   4.192  27.254  29.973  0.1825 -0.1051 -0.0429
17101W        W60195   3.766  27.489  29.846 -0.0373  0.0540 -0.3116
17102W        W60196  33.984  26.329  29.433  0.0206  0.1059  0.0140
17103W        W60197   2.030  28.542  29.669  0.0442 -0.1215 -0.1056
17104W        W60198   3.961  27.705  31.177 -0.1511 -0.1519 -0.1376
17105W        W60199   2.539  26.787  29.430 -0.0751  0.1096  0.0715
17106W        W60200   0.806  26.772  29.088 -0.0148 -0.2841  0.1192
17107W        W60201   1.115  29.534  28.658  0.0019  0.0994  0.0492
17108W        W60202   3.507  26.438  31.460  0.0634  0.1107  0.1987
17109W        W60203   3.736  25.992  29.862 -0.0918 -0.0058 -0.1163
17110W        W60204   1.937  29.076  27.388 -0.2799 -0.0237  0.3159
17111W        W60205   2.517  25.604  30.706 -0.0814  0.0275  0.1854
17112W        W60206   1.662  28.345  31.582 -0.1749  0.0160 -0.0547
17113W        W60207   1.690  29.288  31.641  0.0798 -0.1451 -0.2698
17114W        W60208   1.136  27.962  28.083  0.2236  0.0318  0.0327
17115W        W60209   0.576  28.104  29.884  0.1192  0.0022  0.1801
17116W        W60210   1.535  27.548  29.773 -0.2800 -0.1505 -0.1742
17117W        W60211   1.218  29.993  29.035  0.0602  0.2819 -0.0611
17118W        W60212   3.208  27.929  30.966 -0.0972 -0.0184  0.4408
17119W        W60213   2.766  26.340  29.100  0.0975  0.3218 -0.0309
17120W        W60214   4.784  26.090  29.832 -0.2476 -0.1203  0.1189
17121W        W60215   1.703  27.339  29.306 -0.0463 -0.0437 -0.2678
17122W        W60216   3.901  26.196  27.296  0.2895  0.3310 -0.2790
17123W        W60217   2.720  25.454  28.992 -0.0450  0.3867 -0.0217
17124W        W60218   0.780  27.247  29.911 -0.2289  0.1938 -0.0162
17125W        W60219   1.204  28.112  29.125 -0.2115  0.1560  0.0998
17126W        W60220   2.364  28.400  28.016  0.1478 -0.2028 -0.0712
17127W        W60221   1.068  29.083  28.929  0.1339  0.1793 -0.0198
17128W        W60222   2.151  25.620  30.979 -0.2500  0.0579 -0.1208
17129W        W60223   0.336  26.050  30.993  0.3129 -0.1847 -0.0572
17130W        W60224   0.749  26.927  30.282  0.0441 -0.0691 -0.0182
17131W        W60225  34.025  25.908  28.477 -0.0798  0.1413 -0.2697
17132W        W60226   2.143  27.142  29.223 -0.0489 -0.0069 -0.0352
17133W        W60227  34.458  26.810  31.041  0.0523  0.0923 -0.0510
17134W        W60228  34.555  28.531  29.094 -0.0351  0.1977 -0.0382
17135W        W60229   3.994  27.905  30.250  0.0869 -0.0321 -0.2457
17136W        W60230   3.748  28.013  29.082 -0.2146 -0.0650  0.0986
17137W        W60231   3.222  26.035  29.957  0.1973 -0.1680  0.0252
17138W        W60232   1.995  27.598  30.116  0.1113 -0.0619 -0.3475
17139W        W60233   1.148  28.351  28.644  0.2489 -0.1038 -0.0915
17140W        W60234   1.989  27.005  31.853  0.0790  0.0669  0.1885
17141W        W60235   1.564  25.429   0.484  0.0654  0.1746 -0.0394
17142W        W60236  34.133  26.730  29.083  0.0137  0.1973 -0.0120
17143W        W60237   2.305  25.748  30.209 -0.1106 -0.1037  0.3097
17144W        W60238   2.581  28.076  28.514 -0.0277 -0.1023 -0.0836
17145W        W60239   3.479  28.353  28.805 -0.2646 -0.0249  0.3069
17146W        W60240  34.662  28.126  29.937 -0.3056 -0.0006  0.1528
17147W        W60241   0.973  29.442  30.838  0.0532  0.1599 -0.0245
17148W        W60242   1.465  24.167  29.643  0.0765  0.0265 -0.1379
17149W        W60243   3.614  26.039  30.596 -0.0956  0.0906  0.0441
17150W        W60244   0.956  29.354  30.251  0.2227  0.1529 -0.0917
17151W        W60245   3.127  26.775  28.191  0.0752  0.0561  0.3419
17152W        W60246   3.064  26.308  30.506 -0.0779  0.2000 -0.0156
17153W        W60247   3.126  26.814  27.219  0.1265  0.1251  0.1751
17154W        W60248   1.358  25.238  28.864 -0.1073  0.2286  0.0236
17155W        W60249   0.140  27.472  31.307  0.2113  0.0118  0.1448
17156W        W60250   2.702  27.300  30.654 -0.0091 -0.0404  0.0886
17157W        W60251   0.710  26.604  27.969 -0.2240  0.0947  0.1086
17158W        W60252   4.517  26.087  29.406  0.1828 -0.0465  0.1104
17159W        W60253   3.452  27.592  29.005 -0.0783  0.0445 -0.1212
17160W        W60254  34.482  27.236  29.180 -0.0578 -0.3796 -0.1418
17161W        W60255   1.815  27.719  28.380 -0.1575 -0.0263  0.2623
17162W        W60256   2.009  26.937  30.987  0.1782  0.0028  0.2011
17163W        W60257   2.949  28.671  29.978 -0.2318 -0.0536  0.0918
17164W        W60258   2.383  27.682  30.415  0.1758  0.2021 -0.3647
17165W        W60259   0.881  27.528  27.125 -0.0928  0.0378  0.1005
17166W        W60260   4.895  27.625  27.561  0.0226 -0.1664 -0.0314
17167W        W60261   2.608  29.793  30.754  0.2889  0.0880 -0.1046
17168W        W60262   3.745  29.756  31.568 -0.0367 -0.3036  0.1791
17169W        W60263   0.933  28.881  30.098 -0.1468 -0.1626 -0.1820
17170W        W60264   4.503  25.901  30.223  0.2108 -0.4825 -0.1151
17171W        W60265  34.690  25.158  29.532  0.2843 -0.3323  0.1195
17172W        W60266   1.150  27.385  29.476 -0.1823  0.2016 -0.1477
17173W        W60267   0.667  28.304  29.022  0.3469  0.2031  0.0461
17174W        W60268   2.531  25.492  29.849  0.1089  0.1589  0.1804
17175W        W60269   1.756  25.993  29.952 -0.0810 -0.1742  0.0422
17176W        W60270   2.194  25.700  28.841 -0.2304  0.1037 -0.0440
17177W        W60271   1.115  29.219  29.738 -0.1644 -0.2183 -0.3194
17178W        W60272   2.062  26.856  29.664  0.2041  0.2247 -0.0498
17179W        W60273   3.318  24.932  31.745  0.1877  0.0761 -0.0885
17180W        W60274   0.538  25.654  29.869 -0.1439  0.1927  0.1144
17181W        W60275   1.364  26.673  31.348 -0.3128 -0.1108  0.0711
17182W        W60276   1.198  28.710  31.033  0.2342  0.0298  0.2908
17183W        W60277   1.537  28.841  31.890  0.1640  0.4025 -0.0950
17184W        W60278   1.036  30.335  31.145 -0.2063 -0.0796  0.0090
17185W        W60279   3.490  27.034  31.885 -0.0816  0.2232  0.0943
17186W        W60280   1.018  26.818  30.974  0.1202 -0.4292 -0.1929
17187W        W60281   2.663  27.280   0.815  0.1219  0.3682  0.1049
17188W        W60282   2.417  28.437  30.877  0.1914  0.0062  0.1650
17189W        W60283   2.090  28.228  31.190  0.2342 -0.1547  0.0481
17190W        W60284   0.441  25.509  31.122 -0.0449 -0.0382  0.3539
17191W        W60285   2.180  27.141  30.473  0.2648  0.0519  0.0081
17192W        W60286   0.846  27.029   0.287  0.0956  0.0411 -0.0005
17193W        W60287   4.389  27.041   0.761 -0.1127  0.0335 -0.2129
17194W        W60288   1.196  28.024  31.374  0.2773 -0.2082  0.1671
17195W        W60289   1.536  28.680   1.003  0.0790  0.0008 -0.3061
17196W        W60290   1.846  27.439  31.011 -0.3073 -0.2426 -0.0207
17197W        W60291   0.009  25.911   0.288 -0.0944 -0.1544  0.1285
17198W        W60292   0.107  26.318   1.557  0.2362  0.1897  0.1845
17199W        W60293   0.923  25.449  31.002 -0.3366 -0.1031 -0.0136
17200W        W60294   0.587  29.249  31.713 -0.1069  0.0331 -0.0068
17201W        W60295   3.222  25.509  31.569 -0.1759 -0.0749  0.2461
17202W        W60296   3.106  27.443   0.917 -0.2489  0.1368 -0.0692
17203W        W60297   2.352  25.963  31.934  0.0490 -0.2452  0.0821
17204W        W60298   2.187  27.115   0.656  0.0193 -0.0132  0.1331
17205W        W60299   0.580  26.805  30.744 -0.0613  0.1655  0.1140
17206W        W60300   1.004  29.578  31.759 -0.1127  0.0066 -0.2675
17207W        W60301   0.175  27.098  30.900 -0.1717  0.2250 -0.0783
17208W        W60302  34.574  26.783  31.971 -0.2335  0.0408  0.2435
17209W        W60303   1.853  28.591   0.675  0.4851  0.0533 -0.1159
17210W        W60304  34.159  25.004   1.097  0.1069 -0.1557  0.1995
17211W        W60305   2.770  26.706  31.395  0.0581 -0.0684 -0.1989
17212W        W60306   2.647  26.464  31.969 -0.0909  0.1089  0.0617
17213W        W60307   1.067  24.512  29.512 -0.0007  0.1453  0.0830
17214W        W60308   1.894  29.543   1.470 -0.1067  0.0501  0.0843
17215W        W60309   1.150  29.081  31.770  0.0385 -0.4902  0.0413
17216W        W60310   1.590  27.879  31.680 -0.2160  0.2366 -0.0455
17217W        W60311   2.074  27.708   0.591  0.1712 -0.0352 -0.1803
17218W        W60312   0.170  28.133  31.667 -0.0281  0.0618 -0.0399
17219W        W60313   4.740  28.267   0.490  0.1681  0.1765 -0.2977
17220W        W60314   2.987  26.795   1.202  0.2198  0.0745  0.1112
17221W        W60315   1.675  26.568  30.943  0.1387 -0.1875  0.3203
17222W        W60316   1.993  28.469   0.011 -0.1880 -0.0587  0.0029
17223W        W60317   1.143  26.530  31.959  0.0816 -0.0451  0.1498
17224W        W60318   0.115  28.620   0.749  0.1280 -0.0219 -0.1282
17225W        W60319   2.309  25.690  31.540 -0.0864 -0.1556  0.0933
17226W        W60320   1.656  28.435  30.988 -0.1443  0.0393  0.1776
17227W        W60321   1.063  27.841   0.463  0.3886 -0.0377 -0.0709
17228W        W60322  33.912  29.302  31.429 -0.0046  0.0824 -0.1911
17229W        W60323   3.059  26.866  30.752  0.1127 -0.2043  0.0065
17230W        W60324   3.019  26.885   0.735 -0.0701  0.1088 -0.3965
17231W        W60325   1.825  26.652   0.382 -0.1558  0.2299  0.2987
17232W        W60326   1.356  28.338   0.606  0.0844  0.2921  0.0521
17233W        W60327   1.218  25.792  31.298  0.3694  0.0636 -0.2206
17234W        W60328   3.482  27.782  31.781  0.0275  0.2142 -0.0333
17235W        W60329   3.410  27.607  31.284 -0.0607 -0.2232 -0.1568
17236W        W60330   1.509  29.365   0.995 -0.1551  0.0225 -0.2426
17237W        W60331   0.466  30.289  31.896 -0.0183 -0.1919  0.2121
17238W        W60332   0.378  26.827   0.158 -0.1729  0.1052 -0.0664
17239W        W60333   0.428  27.688  31.866 -0.0108  0.0436 -0.1324
17240W        W60334  34.361  27.623  31.465 -0.0800 -0.0185  0.0662
17241W        W60335   0.382  29.198   1.187  0.1798  0.0374  0.2181
17242W        W60336  34.310  25.701   0.569  0.0845 -0.0074  0.0454
17243W        W60337   0.934  29.225   0.181  0.1175 -0.0410  0.0653
17244W        W60338   3.673  28.767   0.032  0.0422 -0.0224  0.1867
17245W        W60339   2.777  27.772  31.780  0.0411  0.0339  0.0745
17246W        W60340   1.206  32.357  18.462 -0.2380  0.1647 -0.4676
17247W        W60341   0.020  30.975  17.142 -0.0078 -0.0214 -0.2537
17248W        W60342   2.921  29.680  16.233  0.1567 -0.0829  0.0464
17249W        W60343   2.574  31.431  16.383  0.0783 -0.0009 -0.0468
17250W        W60344  34.164  29.291  19.302  0.1086 -0.0883  0.1225
17251W        W60345   1.891  34.366  17.496  0.0719  0.2504  0.0017
17252W        W60346   1.510  29.407  18.309  0.2446 -0.0567 -0.0436
17253W        W60347   1.658  30.725  17.915  0.0475 -0.1251  0.1615
17254W        W60348   4.374  32.333  17.656  0.2521  0.1044 -0.1732
17255W        W60349   1.720  31.110  16.194 -0.0333 -0.0398 -0.1660
17256W        W60350   0.856  30.764  20.395 -0.0778 -0.3755 -0.1669
17257W        W60351   1.928  32.165  19.333  0.1584 -0.1601 -0.0275
17258W        W60352   0.789  28.510  17.346  0.1642  0.0510  0.1687
17259W        W60353  34.546  29.429  18.128  0.0381 -0.0036  0.3333
17260W        W60354   1.975  30.362  18.721  0.0325 -0.0216  0.3234
17261W        W60355   0.542  31.611  16.454  0.1293 -0.0035 -0.2405
17262W        W60356   1.844  30.366  18.196  0.0259 -0.0463  0.0057
17263W        W60357   1.048  29.929  18.041 -0.0526 -0.3467 -0.0676
17264W        W60358   1.451  32.319  16.150  0.0547  0.1955  0.3350
17265W        W60359   1.106  29.171  18.576 -0.0316  0.0335  0.4529
17266W        W60360   1.705  28.936  19.047  0.1213  0.0950  0.2933
17267W        W60361   2.573  31.016  16.657 -0.3317  0.0797  0.2930
17268W        W60362   1.229  30.483  16.564 -0.1854  0.1770 -0.2382
17269W        W60363  33.955  31.087  19.325  0.3009 -0.1836 -0.2101
17270W        W60364   0.951  31.000  18.271 -0.1171 -0.4787 -0.1543
17271W        W60365   1.813  30.209  17.291  0.2971  0.2337 -0.1719
17272W        W60366   3.029  31.011  16.940  0.0442 -0.0077  0.1710
17273W        W60367   1.292  34.310  18.161 -0.0217  0.1306 -0.1021
17274W        W60368   2.027  32.793  16.738  0.0392  0.0218 -0.1008
17275W        W60369   3.126  31.111  19.852  0.0246  0.0975 -0.2103
17276W        W60370  34.628  32.471  19.502 -0.2771 -0.0890  0.0319
17277W        W60371   0.048  31.969  17.789 -0.0439 -0.1633 -0.3026
17278W        W60372   2.005  31.697  16.408 -0.5266 -0.1717  0.1029
17279W        W60373   3.041  31.155  16.428 -0.2313 -0.3072 -0.0074
17280W        W60374   1.686  32.644  17.638 -0.1083 -0.0777  0.1375
17281W        W60375   1.900  32.805  18.755 -0.3135  0.1158  0.0446
17282W        W60376  34.546  32.796  16.633  0.1228  0.2172 -0.0360
17283W        W60377   1.546  33.040  20.470 -0.2871 -0.1077  0.1123
17284W        W60378   0.006  32.223  20.158 -0.0762 -0.1701  0.0527
17285W        W60379   1.377  30.141  19.427  0.2393 -0.1593  0.2307
17286W        W60380   0.834  31.354  16.976 -0.0373  0.0966 -0.2559
17287W        W60381   1.488  32.334  17.148  0.0169  0.0475  0.2603
17288W        W60382   0.622  32.213  19.664 -0.0767  0.0748 -0.0442
17289W        W60383   1.507  32.068  19.103  0.1107  0.1961  0.0146
17290W        W60384  34.586  30.607  17.735  0.0093  0.0920  0.2364
17291W        W60385   3.867  30.852  19.256  0.1712 -0.0041 -0.1665
17292W        W60386   1.375  32.401  15.631 -0.1686  0.2787  0.2790
17293W        W60387   2.078  30.269  16.242  0.0511 -0.2811 -0.0165
17294W        W60388   0.825  30.750  16.626  0.0940  0.0084  0.0748
17295W        W60389   0.911  30.131  16.229 -0.2478 -0.3216 -0.2574
17296W        W60390   0.744  29.035  16.758 -0.0583  0.0964  0.0628
17297W        W60391   0.959  32.940  18.197  0.0018 -0.2110 -0.1211
17298W        W60392   1.576  30.036  18.451 -0.0600  0.1681 -0.2726
17299W        W60393   3.929  31.915  18.720  0.0098 -0.1297  0.0547
17300W        W60394   0.865  30.660  17.954  0.1101 -0.3075 -0.0980
17301W        W60395   2.415  30.988  19.157 -0.1324  0.0081  0.3364
17302W        W60396  34.683  31.488  18.037 -0.2709  0.1542 -0.1701
17303W        W60397  34.531  29.942  17.897 -0.1541  0.0092 -0.0826
17304W        W60398   2.165  32.173  17.235  0.2061 -0.0313 -0.0855
17305W        W60399   2.112  33.366  16.733 -0.1347 -0.3808  0.4862
17306W        W60400   1.842  32.576  16.066  0.0534  0.0079  0.0956
17307W        W60401   0.500  30.301  17.154  0.2155 -0.1262  0.3079
17308W        W60402   0.349  31.913  18.708 -0.1958  0.2212  0.3974
17309W        W60403  34.556  32.372  20.864 -0.0534  0.1697 -0.0688
17310W        W60404   0.922  29.395  15.957 -0.2911  0.0422  0.0588
17311W        W60405   2.637  32.496  20.065  0.0263 -0.1000 -0.3205
17312W        W60406  34.097  31.657  19.208  0.1133  0.1348 -0.4701
17313W        W60407   3.034  29.724  17.741 -0.0414 -0.5186  0.0038
17314W        W60408  34.350  30.643  18.980 -0.5737  0.0087 -0.1325
17315W        W60409   2.132  32.162  18.152 -0.2526  0.1938  0.0114
17316W        W60410   2.748  32.417  17.543 -0.0716  0.2853 -0.1944
17317W        W60411   2.906  30.077  17.220  0.0146 -0.1299 -0.2407
17318W        W60412   1.743  28.839  18.006 -0.1125  0.0001  0.2229
17319W        W60413   1.253  30.989  16.346  0.1919 -0.2744 -0.1315
17320W        W60414   0.147  32.425  16.820  0.1852  0.0027  0.1325
17321W        W60415   3.454  32.091  18.622  0.3736 -0.0548 -0.2510
17322W        W60416   2.587  30.560  16.138  0.1007  0.0993 -0.0140
17323W        W60417   0.052  33.402  18.009  0.0015  0.2592  0.1935
17324W        W60418   0.417  31.082  21.062  0.0006  0.1732 -0.0091
17325W        W60419   1.395  32.820  19.400 -0.1052  0.1687 -0.1198
17326W        W60420   0.348  33.949  16.832  0.1632  0.1383  0.2941
17327W        W60421  34.353  32.260  17.324 -0.2082  0.1823 -0.1503
17328W        W60422  34.283  31.178  16.515  0.1637  0.3412  0.0868
17329W        W60423   0.066  30.314  18.173 -0.1347 -0.2692  0.0882
17330W        W60424   0.568  31.878  19.150  0.0592 -0.0259  0.0367
17331W        W60425   3.764  29.109  16.857  0.1697 -0.0310  0.3284
17332W        W60426  34.309  29.408  20.716 -0.1278 -0.3516  0.0056
17333W        W60427   1.277  29.587  17.516  0.0364 -0.2288  0.0249
17334W        W60428   0.859  31.468  18.005 -0.0156  0.1834 -0.0765
17335W        W60429   3.017  32.319  16.267 -0.0200  0.0921 -0.0918
17336W        W60430   2.862  30.085  16.630 -0.0403 -0.0570  0.0397
17337W        W60431   1.574  32.613  16.600 -0.0972  0.1391  0.3513
17338W        W60432   0.895  30.234  17.737  0.1216  0.1750 -0.0680
17339W        W60433   0.102  31.103  17.649  0.1614  0.1501  0.2082
17340W        W60434   1.811  30.083  19.086 -0.1826  0.0882  0.0195
17341W        W60435   1.057  29.285  16.448  0.0172  0.0924 -0.3588
17342W        W60436   0.607  29.346  20.321 -0.3491  0.2109  0.0639
17343W        W60437  33.637  30.045  16.785  0.3648 -0.1362 -0.0710
17344W        W60438   1.749  29.893  17.708  0.0515 -0.0872 -0.0826
17345W        W60439   0.916  31.845  16.750  0.1050 -0.1182 -0.4845
17346W        W60440  33.129  30.790  17.395 -0.1636 -0.0532 -0.0910
17347W        W60441   3.799  28.764  18.674  0.2090  0.4502 -0.0143
17348W        W60442   2.182  32.144  16.304  0.1801 -0.1964  0.2558
17349W        W60443   3.406  32.431  19.316 -0.0228  0.0654  0.1465
17350W        W60444   2.271  32.466  18.480  0.3022  0.0335 -0.0758
17351W        W60445   1.552  29.627  18.812 -0.2055  0.2621  0.0550
17352W        W60446  34.276  29.759  16.489  0.0747 -0.0119  0.0188
17353W        W60447  34.284  33.107  18.699  0.2771 -0.2931 -0.1406
17354W        W60448   0.941  31.539  17.472 -0.3490 -0.2290  0.1604
17355W        W60449   0.538  28.750  16.422  0.1791  0.0643  0.4119
17356W        W60450   4.199  32.144  16.856  0.0594  0.2002 -0.0432
17357W        W60451   1.663  30.967  18.336  0.1776 -0.3154  0.1345
17358W        W60452   0.562  30.743  19.465 -0.2869 -0.1997  0.3896
17359W        W60453   1.748  28.989  18.517  0.1605  0.0748  0.4346
17360W        W60454   3.881  31.356  19.342  0.0223  0.0393  0.0281
17361W        W60455   2.450  30.557  18.833 -0.2554  0.3092  0.0189
17362W        W60456   0.556  28.950  17.232  0.0684 -0.2920 -0.1679
17363W        W60457   3.301  32.332  17.749 -0.0547 -0.2024 -0.0037
17364W        W60458   1.325  32.776  15.998 -0.5030  0.1921  0.2134
17365W        W60459  33.833  30.350  17.222  0.1776 -0.0214  0.1589
17366W        W60460   2.387  32.456  16.764 -0.0497 -0.1752 -0.3203
17367W        W60461   2.587  30.022  18.691 -0.0667 -0.0416 -0.0462
17368W        W60462  34.359  31.773  20.085  0.2370  0.2294  0.1654
17369W        W60463   1.691  29.722  19.394 -0.1039  0.3048 -0.1420
17370W        W60464  34.613  31.049  16.113  0.3771 -0.1019  0.2931
17371W        W60465  33.296  32.303  18.761 -0.1091  0.0555  0.1182
17372W        W60466   1.325  29.005  16.865  0.0771 -0.0431  0.1881
17373W        W60467   2.406  30.441  16.542 -0.1039 -0.3249  0.2276
17374W        W60468   0.482  31.683  20.707  0.1055  0.0434 -0.0596
17375W        W60469   3.346  31.746  17.097 -0.2362 -0.1940 -0.1210
17376W        W60470   2.518  29.670  15.941 -0.0438 -0.0884 -0.0947
17377W        W60471   2.620  28.942  15.612  0.0121 -0.1545  0.2211
17378W        W60472   0.668  31.657  20.193  0.1693  0.2932 -0.0075
17379W        W60473   2.803  30.566  17.391  0.0255 -0.1294 -0.2444
17380W        W60474   0.750  31.674  18.430 -0.0879 -0.0820 -0.0651
17381W        W60475   2.209  30.408  15.705 -0.1996  0.0352 -0.1441
17382W        W60476   3.272  31.760  18.017  0.0846  0.0550 -0.0063
17383W        W60477   0.163  32.052  19.473 -0.0587 -0.0967  0.2059
17384W        W60478   1.789  30.460  19.573  0.0678 -0.1945 -0.0628
17385W        W60479   2.339  32.612  16.221  0.0921  0.1521  0.2031
17386W        W60480   2.157  29.347  17.335  0.0096 -0.3167  0.2014
17387W        W60481   2.101  30.764  16.085  0.0032  0.0259  0.1946
17388W        W60482   2.245  31.153  17.595 -0.1362 -0.2343 -0.0360
17389W        W60483  34.588  34.012  17.061  0.0292 -0.1946 -0.1812
17390W        W60484   3.075  30.866  17.882 -0.0666 -0.1406 -0.0280
17391W        W60485   1.713  31.540  18.269  0.1833 -0.2829 -0.1766
17392W        W60486   1.064  29.626  19.028 -0.1711  0.3187  0.1875
17393W        W60487   2.566  30.851  19.715 -0.0078  0.0175  0.0227
17394W        W60488   1.946  31.268  17.212 -0.1653 -0.0088 -0.0104
17395W        W60489   1.363  30.148  18.906  0.1551 -0.2123  0.0178
17396W        W60490   1.520  31.772  16.185  0.1722 -0.0754  0.2053
17397W        W60491   2.242  30.311  19.537  0.1069  0.5534 -0.0202
17398W        W60492  33.738  31.418  18.901 -0.2046 -0.0901 -0.1441
17399W        W60493  34.666  33.290  19.010 -0.0025 -0.0178  0.0813
17400W        W60494   4.689  32.550  19.813 -0.0297  0.1389 -0.3222
17401W        W60495   2.531  32.507  18.026 -0.3495  0.1128  0.0207
17402W        W60496   1.572  28.526  19.889 -0.0042 -0.0294  0.1778
17403W        W60497   1.173  31.039  16.842  0.2912  0.4956 -0.0851
17404W        W60498   1.261  32.382  17.645 -0.0739  0.0632  0.4240
17405W        W60499   2.327  31.737  16.021 -0.1741 -0.3883 -0.1973
17406W        W60500   0.497  29.456  16.946  0.1099 -0.0962 -0.3303
17407W        W60501   1.405  30.045  16.696  0.0498  0.1424 -0.4753
17408W        W60502   1.076  32.399  16.778 -0.0098  0.1679 -0.0338
17409W        W60503   1.221  30.548  19.631 -0.1870  0.4703  0.2912
17410W        W60504   1.902  32.611  18.076 -0.1218 -0.1109 -0.0222
17411W        W60505   2.681  29.065  17.971  0.4149  0.2514  0.2027
17412W        W60506   0.357  33.400  17.598 -0.0131  0.1395 -0.0643
17413W        W60507   1.839  31.741  17.038 -0.3066 -0.0655 -0.0105
17414W        W60508   0.075  31.452  16.868  0.0937  0.4708  0.2123
17415W        W60509   2.405  29.047  16.122 -0.0067 -0.0658 -0.1150
17416W        W60510   3.115  32.379  15.780  0.2370 -0.2557  0.0221
17417W        W60511   0.559  29.526  18.921  0.1280  0.2889  0.0357
17418W        W60512   2.154  29.346  18.576  0.1121 -0.3078 -0.2839
17419W        W60513  34.416  31.125  18.455  0.0433 -0.0123  0.1341
17420W        W60514   2.375  29.761  18.345 -0.0899 -0.2849 -0.0554
17421W        W60515   1.809  29.128  16.017  0.0197 -0.1078 -0.2255
17422W        W60516   1.495  30.557  18.608 -0.0213  0.2959 -0.0112
17423W        W60517   0.907  32.632  19.820  0.2044  0.2542  0.4022
17424W        W60518   0.823  29.149  17.686  0.0770 -0.0976  0.3966
17425W        W60519   4.545  30.894  18.679 -0.1364  0.0148 -0.1376
17426W        W60520   0.928  30.539  17.300  0.1904  0.3281 -0.1043
17427W        W60521   0.279  32.899  18.856 -0.1891  0.1978 -0.1959
17428W        W60522   1.493  30.970  19.658  0.0207 -0.2947  0.3592
17429W        W60523  34.628  30.790  16.507 -0.2014 -0.0027  0.0099
17430W        W60524   1.161  31.926  18.201  0.1911 -0.0258 -0.0065
17431W        W60525   0.168  29.563  18.532 -0.0234 -0.0101  0.3308
17432W        W60526   3.009  31.247  18.239 -0.2276  0.2392  0.3458
17433W        W60527   0.341  28.450  19.490  0.4099 -0.0893 -0.0782
17434W        W60528   0.511  29.334  16.453 -0.2933 -0.0302  0.1465
17435W        W60529   1.342  30.568  17.538  0.0797 -0.4156  0.1179
17436W        W60530   1.374  31.050  18.773 -0.0893 -0.2400  0.1771
17437W        W60531   3.769  29.139  19.065 -0.2604 -0.1839  0.0010
17438W        W60532   1.181  31.851  19.425  0.2610  0.2804 -0.0582
17439W        W60533   2.025  28.569  18.479 -0.0475  0.0111 -0.2817
17440W        W60534   3.040  31.851  17.534  0.0418  0.1161 -0.1438
17441W        W60535   1.445  31.257  19.226  0.4285 -0.2818  0.2348
17442W        W60536   0.405  31.066  16.597  0.2542  0.1369  0.3959
17443W        W60537   0.576  32.227  17.029  0.0630 -0.0942  0.1324
17444W        W60538   0.998  32.103  18.937 -0.1454 -0.0269 -0.0520
17445W        W60539   1.383  28.716  18.670 -0.1175 -0.2452  0.1109
17446W        W60540   1.373  32.670  18.051 -0.0609  0.1111  0.1999
17447W        W60541   2.189  32.542  17.678 -0.1929  0.2844  0.0421
17448W        W60542  34.679  31.580  18.509 -0.1401 -0.0511 -0.1096
17449W        W60543   3.965  29.374  15.882 -0.1374 -0.1808 -0.1479
17450W        W60544   2.698  31.483  16.873  0.4021 -0.0533 -0.2302
17451W        W60545   2.945  29.559  19.277 -0.0613 -0.2425  0.0435
17452W        W60546   3.484  29.093  18.509 -0.1878 -0.0195 -0.1650
17453W        W60547   3.447  30.887  16.627 -0.1541 -0.1504 -0.1000
17454W        W60548   0.050  29.645  20.659 -0.1451  0.0524  0.4622
17455W        W60549   0.338  29.378  17.462  0.2666  0.2692 -0.0809
17456W        W60550   2.678  31.946  16.341 -0.0139 -0.1102  0.2916
17457W        W60551  34.518  28.683  19.590  0.1819 -0.1551 -0.0717
17458W        W60552   1.069  33.923  19.407  0.1726  0.2621  0.4720
17459W        W60553   0.092  31.936  20.954  0.1068 -0.0010 -0.1159
17460W        W60554   1.326  28.544  17.216 -0.0223  0.0453  0.1503
17461W        W60555  34.647  29.194  17.094  0.0473  0.0833  0.1479
17462W        W60556   0.504  31.973  17.498 -0.2512  0.1775  0.0379
17463W        W60557   1.732  32.383  18.517 -0.1876 -0.1846 -0.0302
17464W        W60558   0.603  30.841  17.060  0.2512 -0.1048  0.1242
17465W        W60559   1.076  29.442  18.040 -0.2442 -0.0002  0.1789
17466W        W60560   0.823  31.440  19.181 -0.1859 -0.1263 -0.1756
17467W        W60561   1.315  30.095  17.598 -0.0002  0.0985  0.0639
17468W        W60562   1.040  29.372  16.982 -0.2524  0.0790  0.0738
17469W        W60563   1.437  31.899  17.457  0.1311 -0.0678  0.0772
17470W        W60564   1.883  29.452  20.259  0.0695 -0.1073 -0.1169
17471W        W60565   2.006  31.857  18.605  0.2189 -0.1804  0.0766
17472W        W60566   1.592  29.192  17.353  0.1239  0.2077 -0.0232
17473W        W60567   2.975  30.660  20.049  0.1942  0.3236  0.1966
17474W        W60568   2.912  30.893  18.974  0.2882 -0.0522 -0.1129
17475W        W60569   1.218  31.600  20.018  0.2412  0.0799 -0.0868
17476W        W60570  33.824  28.157  20.025  0.0968  0.1381 -0.1802
17477W        W60571   2.738  31.070  17.565  0.0851 -0.2276  0.1651
17478W        W60572   2.699  31.049  16.037 -0.0726 -0.1000  0.3095
17479W        W60573   3.134  29.223  17.779 -0.0048 -0.4098  0.1346
17480W        W60574   3.369  29.892  16.448  0.4282  0.2520 -0.1628
17481W        W60575   1.847  29.128  16.938 -0.0234  0.1201 -0.1835
17482W        W60576   1.020  30.686  18.773 -0.2224  0.1864 -0.0201
17483W        W60577   2.697  32.149  20.510  0.3255  0.1144  0.4232
17484W        W60578   1.708  30.695  16.462  0.1114  0.1260 -0.1598
17485W        W60579  34.441  29.646  20.281  0.0469  0.0687  0.1104
17486W        W60580   0.773  32.443  17.479 -0.1317 -0.0907  0.1135
17487W        W60581   1.361  31.608  17.831 -0.0915 -0.0900 -0.1755
17488W        W60582   2.338  30.237  16.973  0.0625 -0.2812 -0.0745
17489W        W60583  33.867  30.680  17.752 -0.1746 -0.1603 -0.1261
17490W        W60584   0.460  31.252  18.366 -0.2235  0.1727 -0.2911
17491W        W60585   0.305  30.561  16.814 -0.2527  0.0424 -0.0191
17492W        W60586   1.718  31.294  16.730 -0.0838  0.0452  0.1416
17493W        W60587   0.886  31.254  18.714  0.1510  0.1104  0.2083
17494W        W60588   3.158  30.981  20.430  0.2463  0.0691  0.3346
17495W        W60589   2.089  29.465  16.322  0.0210  0.0038 -0.0876
17496W        W60590   2.550  31.627  20.438  0.0127 -0.2047 -0.0566
17497W        W60591   0.376  32.774  16.483 -0.1011 -0.1465 -0.1532
17498W        W60592   2.489  30.228  17.569 -0.1286  0.1206  0.0616
17499W        W60593   1.423  32.943  18.581 -0.0203  0.0460 -0.1076
17500W        W60594  34.527  31.954  18.254 -0.2028  0.3787 -0.2257
17501W        W60595   1.253  31.488  16.533  0.2978 -0.1162  0.0095
17502W        W60596   1.918  29.770  18.219  0.0248  0.1107  0.1366
17503W        W60597   2.006  30.389  17.648  0.4279  0.1764 -0.0054
17504W        W60598   0.598  31.079  17.837  0.3334  0.0351 -0.1676
17505W        W60599   3.693  30.212  20.485  0.1094 -0.0276 -0.1192
17506W        W60600   2.703  30.538  19.302  0.0669 -0.3049  0.1756
17507W        W60601  33.962  31.036  18.215 -0.0769  0.2998 -0.1560
17508W        W60602   3.180  31.794  18.943  0.3631 -0.2570 -0.1960
17509W        W60603   3.514  32.482  18.188 -0.0492  0.0493 -0.0798
17510W        W60604  34.315  31.073  17.831  0.1079  0.1766  0.1459
17511W        W60605  34.135  32.311  19.895  0.1010  0.2428  0.1098
17512W        W60606   2.156  31.322  20.282  0.0677  0.0433  0.0496
17513W        W60607   1.326  30.354  18.070  0.2193  0.2683 -0.1792
17514W        W60608  34.648  29.661  17.359  0.2983 -0.2881 -0.0176
17515W        W60609   2.533  32.982  16.754  0.2823 -0.0440  0.0858
17516W        W60610  33.523  32.312  19.960 -0.1510 -0.0587  0.1651
17517W        W60611   0.043  30.899  18.135 -0.3272  0.3131 -0.1210
17518W        W60612   2.283  31.909  16.758  0.0044  0.0011 -0.1527
17519W        W60613   3.041  32.076  16.831 -0.0996 -0.1581 -0.3272
17520W        W60614   2.462  31.116  17.144 -0.2256  0.1154  0.2323
17521W        W60615   2.750  33.437  16.787  0.1479  0.2638 -0.0634
17522W        W60616   1.431  28.534  16.605  0.0042 -0.0974  0.0911
17523W        W60617   1.865  32.139  17.660 -0.1272 -0.1309  0.0394
17524W        W60618  33.991  32.685  17.076 -0.3123  0.0860  0.1187
17525W        W60619   3.485  31.401  17.455 -0.1525 -0.2157 -0.3055
17526W        W60620   0.788  34.005  17.045 -0.2078  0.6589 -0.2627
17527W        W60621   2.558  31.352  20.004  0.0326  0.1606  0.3230
17528W        W60622   2.136  29.476  16.824 -0.1638 -0.1122  0.0571
17529W        W60623   2.300  30.134  19.070 -0.1701 -0.1870 -0.0357
17530W        W60624   3.344  30.385  16.628  0.1463 -0.1197 -0.0036
17531W        W60625   2.698  32.220  21.837  0.0946  0.1422 -0.0122
17532W        W60626   1.511  30.560  19.164  0.2092  0.1149 -0.0016
17533W        W60627   1.984  28.415  15.558  0.2217  0.1544  0.2787
17534W        W60628   0.914  30.335  19.244  0.0130  0.1964  0.0431
17535W        W60629   5.928  30.078  17.571 -0.0641 -0.1388  0.2425
17536W        W60630  34.251  32.839  20.836 -0.0044  0.2651 -0.0132
17537W        W60631   2.621  32.564  15.567  0.1819 -0.0234 -0.0096
17538W        W60632  34.436  30.604  16.959  0.0266 -0.2492  0.2377
17539W        W60633   0.478  31.727  17.014  0.2710 -0.4630  0.4980
17540W        W60634   1.540  28.470  18.265 -0.3858  0.0883  0.2017
17541W        W60635   2.171  30.798  16.874 -0.2025  0.1113  0.2369
17542W        W60636   0.355  30.678  17.469  0.2017  0.1439 -0.1384
17543W        W60637  34.578  33.635  18.649 -0.3678 -0.2121 -0.0447
17544W        W60638   0.452  33.207  18.212 -0.1422 -0.1538  0.0704
17545W        W60639   1.649  32.021  18.122 -0.1245 -0.0772 -0.2980
17546W        W60640  34.354  30.085  16.038  0.0523  0.0855 -0.0713
17547W        W60641   3.792  29.590  16.392 -0.1933 -0.0668 -0.0524
17548W        W60642   2.050  29.804  18.744 -0.2692  0.0311  0.2904
17549W        W60643   2.231  28.448  18.920  0.2700 -0.0661  0.1169
17550W        W60644   1.252  31.094  17.870 -0.0586 -0.0475  0.0249
17551W        W60645   2.085  31.305  18.380  0.2970 -0.4213 -0.0096
17552W        W60646   1.860  31.381  19.910  0.0326 -0.1744  0.3042
17553W        W60647   0.704  30.304  19.798 -0.2869  0.1133 -0.1542
17554W        W60648   1.618  30.777  16.955 -0.2826 -0.1436  0.0614
17555W        W60649   2.643  31.735  18.832  0.0056  0.1633 -0.0714
17556W        W60650   2.738  31.561  15.845  0.0998  0.0303 -0.1933
17557W        W60651   0.366  32.180  20.634 -0.3166 -0.1150 -0.1751
17558W        W60652   0.980  29.954  17.165  0.0024 -0.0790  0.1348
17559W        W60653   1.855  29.842  16.565 -0.3429 -0.2041 -0.1689
17560W        W60654   0.492  31.218  17.362  0.0035 -0.0583  0.0610
17561W        W60655   0.399  31.453  18.898  0.0324  0.1560  0.0939
17562W        W60656   3.024  31.808  18.451  0.3184 -0.1807 -0.1812
17563W        W60657   0.404  31.517  17.768 -0.1246  0.2374  0.2810
17564W        W60658   2.668  31.911  17.157 -0.2718 -0.3091 -0.2792
17565W        W60659   3.637  31.488  18.947  0.0080  0.3720  0.4464
17566W        W60660   0.149  33.068  17.083 -0.0841  0.1731  0.0747
17567W        W60661   3.556  29.547  16.811 -0.1232 -0.0190  0.3162
17568W        W60662   3.588  32.529  17.428 -0.0850 -0.0346 -0.2461
17569W        W60663   1.059  30.891  19.274 -0.0165 -0.3054 -0.1012
17570W        W60664   3.440  31.440  19.604  0.0991 -0.2688 -0.0335
17571W        W60665   3.895  32.478  17.791  0.2671  0.3295 -0.1271
17572W        W60666   2.003  28.089  16.045  0.1448 -0.0160 -0.2087
17573W        W60667   0.610  30.499  18.428  0.0667  0.3210 -0.2567
17574W        W60668   0.329  32.597  17.289  0.2585 -0.1779  0.0826
17575W        W60669   2.531  31.022  18.578 -0.2152 -0.1796  0.1105
17576W        W60670   2.242  29.872  17.312  0.1145 -0.0490  0.5000
17577W        W60671   1.622  33.006  15.719 -0.3022  0.1400 -0.0968
17578W        W60672   2.553  29.322  19.513 -0.0739  0.0882 -0.2373
17579W        W60673   1.054  32.094  19.933  0.1094  0.1350  0.0065
17580W        W60674   1.163  33.119  18.994  0.0298  0.0063 -0.4062
17581W        W60675  34.237  30.277  17.566  0.5147 -0.3468  0.1565
17582W        W60676   2.072  30.889  18.771  0.2143 -0.2505 -0.1684
17583W        W60677   1.296  31.944  15.758  0.2320  0.0494 -0.1635
17584W        W60678   1.217  34.196  17.680 -0.1150 -0.0441  0.1023
17585W        W60679   2.551  31.071  18.062 -0.2524 -0.1139 -0.0258
17586W        W60680   0.980  29.747  16.667  0.1306  0.1146  0.1177
17587W        W60681   3.718  30.907  17.562  0.1546  0.1717  0.1865
17588W        W60682   0.418  30.575  17.948  0.2139  0.1920 -0.0457
17589W        W60683   2.038  29.050  17.701  0.3547 -0.0217  0.1652
17590W        W60684   2.395  28.944  18.430 -0.1419 -0.0964  0.0249
17591W        W60685   1.182  29.824  19.796 -0.0599  0.0269  0.0362
17592W        W60686  34.011  30.513  16.691  0.1937  0.1252  0.1982
17593W        W60687  34.477  32.676  17.132  0.0262 -0.0346  0.2244
17594W        W60688   0.708  32.197  18.482 -0.0616  0.0012  0.3026
17595W        W60689   0.274  29.356  19.941 -0.1154  0.2875 -0.2542
17596W        W60690   0.144  31.263  20.100  0.4214 -0.3084  0.0455
17597W        W60691  33.569  31.075  18.476  0.2307  0.0366 -0.2350
17598W        W60692   0.387  29.932  16.857  0.4629 -0.0855 -0.0801
17599W        W60693   2.160  32.777  15.696 -0.0310 -0.0737  0.1150
17600W        W60694   1.135  29.694  18.506  0.1902 -0.1336  0.0610
17601W        W60695   0.794  29.720  17.686  0.1801  0.3889  0.3994
17602W        W60696   1.406  31.976  16.639  0.2671 -0.0330 -0.0189
17603W        W60697   1.835  33.817  16.729  0.3078  0.3562  0.2067
17604W        W60698   1.503  31.373  17.441  0.1549  0.0790  0.0771
17605W        W60699   4.363  31.531  20.610 -0.1995  0.0196  0.0069
17606W        W60700   2.189  31.424  16.858  0.0290  0.1045  0.0630
17607W        W60701   1.463  31.157  20.128 -0.2900 -0.5549 -0.6127
17608W        W60702  34.124  29.466  19.844  0.3526 -0.0999 -0.1152
17609W        W60703  33.585  30.412  16.389  0.2040 -0.0475  0.0794
17610W        W60704   1.020  30.231  18.460  0.2397  0.0185 -0.2005
17611W        W60705   1.803  31.218  17.880  0.2532  0.0813  0.2709
17612W        W60706   2.309  33.832  16.720  0.0019  0.3371 -0.0143
17613W        W60707   0.967  32.499  19.324 -0.1307  0.1184 -0.0300
17614W        W60708   1.921  31.008  19.341  0.0340 -0.2344  0.1533
17615W        W60709   0.009  28.406  19.078 -0.2184 -0.0674  0.0552
17616W        W60710   3.218  30.953  17.391 -0.1775 -0.0287 -0.0788
17617W        W60711   0.728  33.619  20.640 -0.1517  0.0087  0.2860
17618W        W60712   3.509  31.351  16.323  0.0623 -0.2235  0.3494
17619W        W60713   2.231  28.963  18.889  0.3932 -0.0828  0.0496
17620W        W60714   2.367  31.970  17.620  0.0526  0.4033 -0.4315
17621W        W60715   0.708  29.707  19.891 -0.0012 -0.1362  0.1973
17622W        W60716   0.909  31.983  20.583  0.0523 -0.0636 -0.1956
17623W        W60717   2.240  31.781  19.253 -0.2432 -0.1830  0.1961
17624W        W60718   1.755  29.626  17.096  0.0513 -0.1652  0.0592
17625W        W60719   2.138  28.880  17.250 -0.1131  0.0301 -0.0095
17626W        W60720   1.510  33.096  16.422 -0.0608 -0.1071  0.0827
17627W        W60721   0.116  30.757  19.185  0.1432 -0.1183 -0.0704
17628W        W60722   1.267  31.629  17.025 -0.0700  0.0338 -0.0252
17629W        W60723   2.219  29.892  20.250  0.0112  0.1247 -0.0374
17630W        W60724   1.714  31.473  18.733  0.0001 -0.1554  0.1506
17631W        W60725   2.059  30.569  19.140  0.1236 -0.1697 -0.2149
17632W        W60726   0.837  31.229  16.412  0.1123 -0.1235  0.1167
17633W        W60727   2.988  30.666  16.436  0.3232  0.0010  0.1420
17634W        W60728   2.685  33.100  18.075 -0.0800  0.0194 -0.1401
17635W        W60729   2.980  31.853  20.754 -0.0206 -0.0427  0.0760
17636W        W60730   2.290  31.397  18.843 -0.3188  0.0012 -0.1135
17637W        W60731   2.242  31.666  18.067  0.2669 -0.0637 -0.2098
17638W        W60732   0.776  30.261  16.728 -0.0728  0.1498 -0.2923
17639W        W60733   1.928  32.263  16.808 -0.3120  0.1277  0.2993
17640W        W60734   0.590  32.844  17.743 -0.0618  0.0260 -0.3020
17641W        W60735   2.878  30.373  18.628 -0.0917 -0.1028 -0.0696
17642W        W60736   0.337  30.122  18.585 -0.0846  0.3515  0.1304
17643W        W60737   2.266  28.931  16.779  0.4798  0.1799  0.2877
17644W        W60738   0.412  32.580  19.336 -0.1850 -0.1449  0.1612
17645W        W60739   0.949  31.021  17.451 -0.2426  0.0923  0.0945
17646W        W60740   2.833  31.942  23.043 -0.0332  0.2852 -0.1610
17647W        W60741   0.393  30.277  19.360  0.1787 -0.1027 -0.2240
17648W        W60742   2.088  30.337  20.011  0.2247  0.0375  0.0954
17649W        W60743   1.763  31.408  20.908  0.2520  0.0545 -0.0554
17650W        W60744  34.542  29.527  23.110  0.2049 -0.0131 -0.0853
17651W        W60745   3.363  33.274  22.546 -0.1428  0.0723 -0.1068
17652W        W60746   1.282  28.990  23.482 -0.3190  0.1028 -0.0026
17653W        W60747   1.499  30.600  21.541  0.0042  0.0871 -0.0443
17654W        W60748   4.438  31.899  22.001 -0.0099  0.2405  0.0690
17655W        W60749   0.651  32.014  21.049 -0.1604 -0.2851  0.0580
17656W        W60750   1.885  29.567  25.602 -0.1328 -0.0582 -0.2185
17657W        W60751   1.218  32.535  22.682  0.0486 -0.1700 -0.0659
17658W        W60752   1.113  31.337  19.623 -0.0419  0.1188 -0.1759
17659W        W60753  34.264  29.334  22.201  0.0582  0.1778  0.2131
17660W        W60754   1.004  32.202  22.304 -0.1141  0.2823  0.1982
17661W        W60755  34.164  32.028  21.568  0.1049  0.0803 -0.1013
17662W        W60756   1.556  28.834  22.524 -0.2111 -0.1746 -0.0557
17663W        W60757   1.114  30.216  20.255 -0.0590 -0.0970  0.1583
17664W        W60758   1.167  32.223  21.290  0.1273  0.0905  0.1604
17665W        W60759   1.525  28.179  22.994 -0.1711  0.1601  0.1099
17666W        W60760   1.196  29.216  25.052  0.0140  0.0533 -0.1490
17667W        W60761   1.840  31.577  21.412  0.3952 -0.2520 -0.0164
17668W        W60762   0.022  31.658  19.116 -0.0878 -0.2076 -0.0188
17669W        W60763  34.520  30.544  22.737  0.0164  0.2298  0.0107
17670W        W60764   1.869  30.861  23.555 -0.0076 -0.0869 -0.0469
17671W        W60765   2.056  30.381  22.770 -0.0185  0.1732 -0.0446
17672W        W60766   2.211  30.059  21.581 -0.1363  0.1085 -0.0937
17673W        W60767   0.257  32.556  21.761 -0.1474 -0.1417  0.1877
17674W        W60768   2.262  32.095  22.046 -0.1852  0.0084 -0.1659
17675W        W60769   3.092  30.597  23.187 -0.2597  0.2169  0.0721
17676W        W60770   0.009  30.357  21.758  0.0416 -0.2122 -0.0295
17677W        W60771   0.107  32.424  22.387 -0.1998  0.2418  0.1191
17678W        W60772  34.381  32.072  20.554 -0.2763 -0.1526 -0.0490
17679W        W60773   4.639  31.051  20.293 -0.0107 -0.2988  0.0146
17680W        W60774   2.395  30.021  23.508 -0.0868 -0.0390  0.5132
17681W        W60775   2.036  33.213  23.088 -0.2473 -0.0088 -0.1047
17682W        W60776   0.662  32.190  20.246  0.1781  0.0122 -0.1796
17683W        W60777   1.818  31.352  23.744  0.1561  0.1055 -0.1829
17684W        W60778   1.895  32.105  22.354  0.1684 -0.0850  0.1264
17685W        W60779   1.625  30.079  22.926 -0.1042  0.1905 -0.2113
17686W        W60780   2.643  29.494  22.167 -0.3441  0.2433 -0.0938
17687W        W60781   1.262  31.596  18.918  0.2938 -0.0994  0.3040
17688W        W60782   2.366  30.899  22.010  0.1915  0.0253  0.2175
17689W        W60783   1.815  31.151  24.725 -0.1621  0.2217  0.0635
17690W        W60784   1.221  30.934  22.693 -0.3588 -0.3159  0.2715
17691W        W60785   3.567  30.075  24.824  0.1537 -0.1490 -0.1365
17692W        W60786   0.296  32.669  19.818 -0.1735  0.2472 -0.0105
17693W        W60787   1.643  32.338  20.909  0.0538 -0.0558  0.2358
17694W        W60788   0.265  29.779  20.195 -0.1605  0.1685  0.1304
17695W        W60789   2.212  30.152  21.002 -0.1242  0.0238 -0.0866
17696W        W60790   1.610  28.460  22.105  0.2708  0.0667 -0.2668
17697W        W60791   1.170  33.039  22.609  0.2376  0.1338 -0.0458
17698W        W60792   1.541  28.553  24.424  0.5717  0.0500 -0.0304
17699W        W60793   3.146  31.539  23.051  0.3074 -0.0771 -0.1362
17700W        W60794   0.279  31.855  19.878  0.2783  0.0530  0.1019
17701W        W60795   2.122  30.335  24.190 -0.0087 -0.0046 -0.0078
17702W        W60796   0.458  32.039  23.086  0.3889 -0.0083  0.5117
17703W        W60797  34.401  30.446  21.348 -0.0159 -0.2802  0.3778
17704W        W60798   3.484  30.692  18.914 -0.0247 -0.0226 -0.1706
17705W        W60799   3.511  32.755  20.766 -0.2198 -0.3172 -0.1635
17706W        W60800   2.162  32.325  21.141  0.0123  0.0799  0.1364
17707W        W60801  33.847  31.038  20.370  0.3659 -0.1798  0.2023
17708W        W60802   1.083  30.551  24.606 -0.2610  0.2199 -0.2113
17709W        W60803   0.886  30.880  23.720  0.2818  0.5013 -0.2075
17710W        W60804   1.304  30.447  20.659 -0.1136  0.3130  0.0370
17711W        W60805   3.491  30.223  23.052 -0.2327 -0.2228  0.0761
17712W        W60806   1.171  30.450  23.989  0.2233 -0.2513 -0.1350
17713W        W60807   2.520  30.109  22.949 -0.0289 -0.0212  0.0852
17714W        W60808   1.599  31.623  22.337 -0.1119 -0.4512  0.1226
17715W        W60809   2.987  31.014  21.437 -0.2399  0.0293 -0.2211
17716W        W60810   3.082  32.018  20.150 -0.1353  0.0056  0.1760
17717W        W60811   2.396  29.050  21.966  0.1278 -0.0929 -0.0375
17718W        W60812   3.707  29.058  23.336  0.0932  0.1067 -0.1262
17719W        W60813   0.323  30.012  19.750 -0.0139 -0.0501 -0.2059
17720W        W60814   2.167  30.932  21.478 -0.0278  0.1296  0.0023
17721W        W60815   2.988  30.491  23.905  0.1725  0.1943  0.0034
17722W        W60816   2.029  31.841  21.042  0.1292  0.0971 -0.2144
17723W        W60817  34.431  30.879  21.670  0.0047  0.1848  0.2033
17724W        W60818   2.078  29.652  23.744 -0.3260  0.1419  0.0682
17725W        W60819   3.340  31.014  23.053  0.0749  0.0300  0.3054
17726W        W60820   0.740  32.430  21.518 -0.0692 -0.0226 -0.2410
17727W        W60821   1.461  31.593  23.157 -0.1184 -0.1854 -0.3671
17728W        W60822  34.379  32.133  19.175 -0.0068 -0.0167  0.3064
17729W        W60823   0.289  30.326  22.637  0.1202  0.0379  0.1486
17730W        W60824   2.265  32.487  22.402  0.0248  0.0553 -0.0172
17731W        W60825   3.101  30.201  20.187  0.0305  0.1172  0.0478
17732W        W60826   0.746  28.995  23.314 -0.0943 -0.2317 -0.3510
17733W        W60827   2.578  30.407  21.556  0.1725  0.0193  0.2410
17734W        W60828   0.174  31.655  21.816 -0.1708  0.0682 -0.1575
17735W        W60829   4.216  33.582  20.736  0.2353 -0.2198 -0.1175
17736W        W60830   3.314  30.630  21.744  0.2263  0.0311 -0.1874
17737W        W60831   2.977  31.628  19.838 -0.1361 -0.1012 -0.2181
17738W        W60832   0.218  31.781  22.349 -0.2168 -0.0689  0.2541
17739W        W60833   1.038  29.592  22.255 -0.0714  0.0496 -0.0332
17740W        W60834   1.490  29.587  25.300  0.0905  0.0358 -0.0200
17741W        W60835  34.166  29.906  22.171  0.2695 -0.1121 -0.1293
17742W        W60836   5.394  31.089  22.985 -0.2807 -0.2813 -0.1205
17743W        W60837  33.451  30.565  20.921 -0.0660  0.0959 -0.0076
17744W        W60838   1.929  28.630  21.104  0.3120 -0.1070  0.2970
17745W        W60839   0.162  30.766  21.475  0.0443 -0.2646 -0.0037
17746W        W60840   0.747  31.301  21.418  0.2727  0.0652 -0.4297
17747W        W60841   3.023  29.373  23.770  0.3970  0.3676 -0.1623
17748W        W60842   3.222  31.797  21.170  0.1578  0.0661 -0.1544
17749W        W60843   3.152  32.235  22.146 -0.1861 -0.0450  0.3303
17750W        W60844   3.146  31.429  22.146  0.0223  0.1124  0.0817
17751W        W60845   0.787  27.710  23.150  0.0931 -0.2781 -0.4032
17752W        W60846   1.150  28.057  21.406 -0.1391  0.1236 -0.2837
17753W        W60847   0.335  31.317  22.494 -0.0709 -0.3046  0.1602
17754W        W60848   1.270  30.978  20.556  0.4455 -0.1784  0.3124
17755W        W60849   0.090  30.095  21.019  0.0191 -0.1004  0.0084
17756W        W60850   3.681  32.376  21.769  0.0042 -0.3711 -0.1139
17757W        W60851   1.690  30.529  21.993  0.0767 -0.1633  0.0973
17758W        W60852   1.112  31.166  23.138 -0.0960 -0.1390  0.0696
17759W        W60853   2.735  28.895  21.549 -0.1908 -0.0999 -0.2181
17760W        W60854   4.216  31.027  22.258  0.0932  0.2391 -0.1820
17761W        W60855   1.005  30.506  21.119 -0.1040  0.1952  0.0992
17762W        W60856  34.355  29.932  20.778  0.2694 -0.0874  0.1171
17763W        W60857   1.083  33.224  21.866  0.1768 -0.0240 -0.0263
17764W        W60858   0.557  30.517  18.918 -0.0883 -0.1893  0.0819
17765W        W60859  34.622  29.420  21.611 -0.0543  0.2381 -0.0526
17766W        W60860   0.391  32.144  21.599 -0.1114  0.2499  0.2985
17767W        W60861   1.869  29.889  22.447  0.2109  0.2703 -0.1007
17768W        W60862  34.507  30.880  24.274 -0.0840 -0.0095  0.0714
17769W        W60863   2.371  31.161  24.564  0.3208  0.2465 -0.5228
17770W        W60864   1.422  29.307  19.281  0.1892  0.3183  0.0615
17771W        W60865   0.197  31.751  22.808  0.0690 -0.2033  0.1692
17772W        W60866   3.320  28.931  22.698  0.4689  0.2901 -0.1786
17773W        W60867   3.102  29.293  19.741 -0.1811  0.0994  0.3499
17774W        W60868   1.664  30.264  23.994 -0.1051  0.0166 -0.0738
17775W        W60869   2.289  31.428  21.248  0.1910 -0.0577 -0.1077
17776W        W60870   2.485  29.647  19.045  0.1126 -0.2420  0.2008
17777W        W60871   1.704  28.314  21.616  0.1716 -0.0747 -0.1710
17778W        W60872   0.687  30.947  24.554  0.0576 -0.3003 -0.1110
17779W        W60873   1.143  30.400  21.808 -0.0373  0.0660  0.1672
17780W        W60874   2.020  29.669  20.650  0.1483 -0.0943 -0.2640
17781W        W60875   1.882  29.885  19.858 -0.1261  0.1031 -0.0857
17782W        W60876   1.613  31.593  20.349 -0.0510  0.0101  0.1374
17783W        W60877   0.535  30.328  21.592 -0.0931 -0.3914  0.0801
17784W        W60878   1.521  32.395  24.173  0.0779 -0.0464  0.0824
17785W        W60879   2.728  31.856  22.192 -0.2090 -0.1674 -0.1032
17786W        W60880   2.220  29.570  23.298  0.0892  0.0577  0.1812
17787W        W60881   1.687  31.099  21.409 -0.0534 -0.0076  0.1777
17788W        W60882   0.604  29.338  21.611  0.1609 -0.0477  0.3963
17789W        W60883   0.885  33.554  18.807 -0.2615 -0.1569  0.3916
17790W        W60884   2.956  28.886  22.118 -0.1161 -0.1965  0.2324
17791W        W60885   1.871  30.216  24.674 -0.0739  0.0391  0.1602
17792W        W60886   1.074  29.328  25.614  0.2496  0.0190  0.0739
17793W        W60887   4.304  30.662  24.218  0.0078 -0.0635  0.1227
17794W        W60888   2.444  30.652  20.136  0.0493 -0.3077  0.1394
17795W        W60889   1.308  30.480  22.878  0.0350 -0.1321  0.1656
17796W        W60890   0.996  31.349  21.835  0.2012 -0.1847  0.2481
17797W        W60891   2.779  29.910  22.449  0.0964  0.2295  0.1427
17798W        W60892   1.457  30.805  23.832 -0.1020  0.3335  0.0083
17799W        W60893   0.035  32.260  22.988  0.1023 -0.0871  0.2466
17800W        W60894   3.178  30.700  22.677 -0.1908  0.0107  0.3573
17801W        W60895   1.261  31.259  20.984  0.0921  0.2981  0.2789
17802W        W60896   2.909  30.086  25.797 -0.0030  0.0447  0.1462
17803W        W60897   2.196  28.349  21.441 -0.3734  0.1066  0.1276
17804W        W60898   1.327  32.523  21.697  0.2216  0.1220 -0.2010
17805W        W60899   2.209  29.729  19.452  0.1185  0.1779 -0.3076
17806W        W60900   0.800  28.974  22.828  0.0610 -0.0587 -0.1117
17807W        W60901   2.073  31.316  21.738 -0.2322 -0.0341  0.0043
17808W        W60902   1.367  31.718  20.950  0.0383 -0.1712 -0.1306
17809W        W60903   1.647  30.377  22.497 -0.3112 -0.1757 -0.0584
17810W        W60904  34.399  33.074  21.256 -0.0570  0.0652  0.0423
17811W        W60905   2.148  28.450  21.964  0.0575  0.2741 -0.1439
17812W        W60906  32.429  32.450  22.053 -0.1916 -0.2107  0.2856
17813W        W60907  34.024  29.173  20.380 -0.1190  0.1396 -0.1029
17814W        W60908  34.397  31.290  19.347  0.1321  0.1390  0.2000
17815W        W60909   1.324  28.874  22.099 -0.0419 -0.1636  0.1252
17816W        W60910   3.340  31.318  21.691 -0.0979  0.3195 -0.1556
17817W        W60911   1.798  29.860  21.190 -0.1650  0.0425  0.0261
17818W        W60912   2.097  29.076  23.121  0.1816  0.0127 -0.0172
17819W        W60913  34.338  31.356  23.322  0.2774 -0.2855 -0.0168
17820W        W60914   2.067  30.018  23.145  0.2630  0.1341 -0.0968
17821W        W60915   2.628  29.376  18.568 -0.1980  0.2409  0.1551
17822W        W60916   3.559  31.473  22.768 -0.0387  0.0514  0.0130
17823W        W60917   2.323  30.906  23.731  0.1546  0.1295  0.0435
17824W        W60918   0.700  31.254  20.589  0.0840  0.2591 -0.1267
17825W        W60919   3.696  30.558  22.205 -0.0809 -0.1062  0.0358
17826W        W60920   1.588  30.043  21.654 -0.0967  0.0050 -0.1013
17827W        W60921   1.520  32.036  22.044 -0.4032  0.4203 -0.3113
17828W        W60922   2.171  30.894  22.916 -0.4517  0.1609 -0.0873
17829W        W60923   0.491  30.706  20.663 -0.2169  0.0343  0.1214
17830W        W60924   0.069  31.698  20.405 -0.0748 -0.1673  0.0289
17831W        W60925   0.749  28.312  24.031  0.2583 -0.2881  0.0511
17832W        W60926   2.719  30.364  23.381  0.2096  0.1722 -0.0668
17833W        W60927   1.274  29.234  21.137 -0.1976 -0.2658  0.1595
17834W        W60928   0.204  31.127  20.589  0.2442  0.1503 -0.1737
17835W        W60929   0.798  30.718  22.665  0.1555  0.0024  0.4630
17836W        W60930   2.702  30.869  23.490  0.2591 -0.1833  0.1265
17837W        W60931   3.319  29.788  23.946 -0.0898 -0.2154 -0.3461
17838W        W60932   1.129  33.022  24.722 -0.1789 -0.0629  0.0667
17839W        W60933   1.925  28.899  22.123 -0.1576 -0.1364  0.1634
17840W        W60934   3.830  31.995  19.650 -0.2262  0.2601  0.1310
17841W        W60935   3.221  29.294  22.244  0.1072  0.1976  0.0096
17842W        W60936   1.402  30.991  21.869  0.0014 -0.0332 -0.0763
17843W        W60937   1.256  30.609  22.282 -0.1714  0.0223  0.1103
17844W        W60938   1.918  31.774  21.892  0.2779  0.0720 -0.3101
17845W        W60939   1.705  29.910  23.531  0.1951  0.3445  0.0632
17846W        W60940   1.918  31.921  24.750  0.2009 -0.0811  0.1932
17847W        W60941  34.451  31.749  22.069  0.3012 -0.0529  0.1812
17848W        W60942  34.306  31.744  23.756  0.0229  0.3137 -0.2319
17849W        W60943   2.925  29.002  19.391 -0.0161 -0.0336 -0.1204
17850W        W60944   2.353  31.708  21.639  0.0020 -0.0313 -0.0210
17851W        W60945   0.911  29.330  20.760 -0.2625 -0.0620  0.1316
17852W        W60946   2.642  29.955  21.289  0.1568  0.0577 -0.2073
17853W        W60947   1.758  31.054  20.556 -0.2923 -0.2687 -0.0307
17854W        W60948   2.914  29.712  22.988 -0.0020 -0.0030  0.2384
17855W        W60949   0.819  29.767  23.058  0.1941 -0.0864 -0.1539
17856W        W60950   1.151  30.960  21.412  0.2840  0.0347 -0.1297
17857W        W60951   0.786  28.893  24.218  0.3398 -0.0772 -0.0646
17858W        W60952   1.787  33.921  25.541  0.4266  0.0790  0.1166
17859W        W60953   0.921  30.248  23.409  0.1626  0.1428 -0.0600
17860W        W60954   1.788  27.980  22.520 -0.1591  0.2077 -0.1579
17861W        W60955   0.080  31.070  19.600  0.3279 -0.1801  0.0072
17862W        W60956   2.028  29.250  21.639  0.1406 -0.0616 -0.0057
17863W        W60957   3.558  30.471  21.311 -0.1922  0.2270  0.1416
17864W        W60958   1.140  32.399  20.291 -0.1872 -0.0601 -0.0382
17865W        W60959   2.910  29.372  21.765 -0.4409  0.2529 -0.0114
17866W        W60960   0.672  31.214  22.827 -0.0127  0.0462 -0.0954
17867W        W60961   1.353  29.697  21.190 -0.2071  0.5697  0.0541
17868W        W60962   1.076  31.533  20.511 -0.1427 -0.2627  0.1831
17869W        W60963   0.911  30.858  21.933  0.1168  0.2581  0.3123
17870W        W60964   0.519  27.886  24.109  0.0253 -0.1362  0.2379
17871W        W60965   2.506  30.623  22.672 -0.2894 -0.0518 -0.3907
17872W        W60966   1.332  29.207  21.675  0.2740 -0.0612 -0.0235
17873W        W60967   2.046  29.577  22.020 -0.0839 -0.2863 -0.1273
17874W        W60968   3.132  29.779  22.092  0.2722 -0.1522 -0.0201
17875W        W60969   2.341  31.648  23.079  0.3351  0.0825 -0.1519
17876W        W60970   1.507  29.404  24.307 -0.0218  0.1591  0.1482
17877W        W60971   3.676  32.591  21.300  0.3544 -0.0972  0.1246
17878W        W60972   3.472  29.677  18.968  0.0086 -0.0932  0.2118
17879W        W60973   1.829  29.354  21.150  0.1202  0.0987  0.0724
17880W        W60974   3.173  30.891  22.161  0.0506 -0.0606  0.1218
17881W        W60975   2.227  32.123  20.678  0.2314 -0.1845 -0.0883
17882W        W60976   1.698  31.129  23.198  0.1147 -0.0743  0.2308
17883W        W60977   3.963  29.812  23.731  0.3464  0.2224  0.2073
17884W        W60978  34.490  28.885  19.167 -0.2325 -0.4016  0.0199
17885W        W60979   2.212  29.850  24.404  0.3563  0.3449  0.2425
17886W        W60980   0.265  32.354  21.184 -0.0063 -0.1362  0.3630
17887W        W60981   1.421  30.774  20.997 -0.1029  0.3983  0.2485
17888W        W60982   1.777  30.359  20.822 -0.2247  0.2981 -0.1207
17889W        W60983  34.641  29.365  22.573 -0.0230  0.1173  0.2064
17890W        W60984   1.179  32.064  23.543  0.0731  0.0252  0.1901
17891W        W60985   0.261  29.883  19.097 -0.1379  0.0747 -0.1303
17892W        W60986  34.608  32.204  21.954  0.1017 -0.1272 -0.0729
17893W        W60987   2.352  32.038  23.438  0.0422  0.1338 -0.0735
17894W        W60988   3.421  30.152  23.665  0.0836 -0.1256  0.1102
17895W        W60989   1.755  30.135  20.350  0.1604  0.0102 -0.1815
17896W        W60990   4.264  29.389  23.043  0.1461  0.4717  0.0454
17897W        W60991   0.678  31.825  21.977  0.2533  0.2149  0.2238
17898W        W60992   1.584  29.117  23.024  0.1736  0.0889  0.3576
17899W        W60993   1.099  32.047  21.832 -0.0549  0.1547 -0.2266
17900W        W60994   0.115  31.366  23.576 -0.1801  0.1870  0.1323
17901W        W60995   1.467  32.036  20.532  0.0271 -0.1429  0.1119
17902W        W60996   1.943  29.593  24.944  0.0190  0.1023 -0.0891
17903W        W60997   2.097  30.611  22.308  0.1330 -0.1081  0.3294
17904W        W60998   1.294  29.602  23.590 -0.1569  0.0148 -0.3813
17905W        W60999   2.613  31.324  21.848  0.0801  0.1586 -0.0538
17906W        W61000   2.905  30.001  23.716 -0.1795 -0.2404  0.3066
17907W        W61001   1.710  29.775  24.075  0.4233 -0.3903 -0.0167
17908W        W61002   2.905  31.661  22.623 -0.2716 -0.0851 -0.1362
17909W        W61003   4.257  30.561  22.126  0.2728  0.1078 -0.2770
17910W        W61004   0.812  32.733  22.404  0.1876  0.5404  0.2344
17911W        W61005   0.843  29.548  24.238  0.2210  0.1442 -0.2295
17912W        W61006   3.040  31.286  25.382  0.0698  0.2124  0.0928
17913W        W61007   2.144  30.537  21.765  0.1171 -0.3881 -0.0171
17914W        W61008   0.162  28.112  22.582 -0.1341  0.2309 -0.0284
17915W        W61009   1.212  31.502  21.359 -0.1962  0.1401  0.2758
17916W        W61010  34.416  31.832  23.043  0.0616  0.1930 -0.2233
17917W        W61011   0.960  31.305  24.142 -0.0207  0.1851 -0.0717
17918W        W61012  33.745  34.369  22.327 -0.2699  0.1120  0.2808
17919W        W61013   2.978  31.636  21.689  0.0029 -0.3536  0.0173
17920W        W61014   1.411  30.218  21.217  0.2175 -0.2063  0.0175
17921W        W61015   2.316  31.994  22.638  0.0365  0.1261 -0.0700
17922W        W61016   0.523  30.381  21.055  0.0882 -0.1419  0.2571
17923W        W61017  34.132  32.999  21.706 -0.2291 -0.1349 -0.3985
17924W        W61018  33.927  31.752  19.807 -0.0571  0.2770 -0.1709
17925W        W61019   3.475  31.752  20.016 -0.0776  0.2133 -0.0069
17926W        W61020  34.251  31.998  21.075 -0.0200 -0.1178 -0.0326
17927W        W61021   2.150  31.535  22.245  0.2564 -0.2962  0.2425
17928W        W61022   2.467  29.505  21.609 -0.1574 -0.0159 -0.1474
17929W        W61023   2.243  29.615  22.620 -0.1163 -0.0650  0.0071
17930W        W61024   3.067  30.756  19.511 -0.0358  0.0192 -0.1642
17931W        W61025   2.330  32.694  24.276 -0.0904  0.1828 -0.0525
17932W        W61026   1.567  29.332  22.180 -0.0013  0.1701 -0.0518
17933W        W61027   0.813  29.902  19.404  0.1799 -0.0590  0.0092
17934W        W61028   1.196  29.963  23.963 -0.1811  0.0958  0.1673
17935W        W61029   3.374  29.738  22.634  0.0303 -0.1291 -0.5194
17936W        W61030  34.547  33.401  22.903 -0.1284  0.2987 -0.3762
17937W        W61031   2.642  32.283  21.003  0.1838  0.1776  0.4155
17938W        W61032   0.811  30.761  19.885  0.0051  0.3958  0.1713
17939W        W61033   0.523  31.350  21.970 -0.2925 -0.0169 -0.0842
17940W        W61034   2.925  29.386  22.629  0.1486 -0.0179  0.1274
17941W        W61035   1.651  31.620  19.482  0.0687 -0.0105  0.3575
17942W        W61036   2.521  29.656  19.882 -0.0310  0.1707  0.0452
17943W        W61037   0.404  33.259  21.834  0.0225  0.0683  0.1909
17944W        W61038   0.790  30.487  22.223  0.0392  0.1226 -0.0688
17945W        W61039   1.200  32.781  22.126 -0.3207  0.2097 -0.0994
17946W        W61040   0.387  30.292  20.194  0.1714  0.0801  0.0020
17947W        W61041   3.283  31.825  22.409  0.0636 -0.1294  0.2104
17948W        W61042   0.860  30.707  23.167 -0.2748  0.2830 -0.1336
17949W        W61043   2.292  30.511  23.215 -0.1572 -0.0954  0.0899
17950W        W61044   0.018  30.651  20.474 -0.1463  0.1949 -0.1932
17951W        W61045   2.228  30.351  20.541  0.1209 -0.0186 -0.0592
17952W        W61046   2.323  30.132  22.453  0.0517  0.2049 -0.2867
17953W        W61047   1.279  28.959  24.080  0.2506 -0.0474  0.0555
17954W        W61048   2.056  31.856  19.691 -0.0251 -0.2587  0.1842
17955W        W61049   3.483  29.301  22.965 -0.1801  0.0971 -0.1782
17956W        W61050   3.083  30.370  19.103 -0.0027  0.1480  0.0054
17957W        W61051   2.382  33.025  25.459  0.3793  0.2996  0.0416
17958W        W61052   0.454  29.803  21.556  0.3161  0.0382  0.4660
17959W        W61053   1.871  28.016  21.998  0.2472  0.2379 -0.4080
17960W        W61054   0.976  31.159  20.172  0.0087  0.0416  0.0784
17961W        W61055   0.711  29.122  25.190  0.3309  0.0313 -0.2344
17962W        W61056   2.745  31.493  23.883  0.0377  0.0592  0.1584
17963W        W61057   0.647  30.791  21.375 -0.1842 -0.1648  0.3400
17964W        W61058   2.500  31.808  21.007  0.0619  0.1158 -0.0568
17965W        W61059   3.120  31.231  22.629 -0.2418  0.2579  0.0860
17966W        W61060   0.769  32.464  20.678  0.1723 -0.2021  0.0926
17967W        W61061   2.829  31.197  19.384 -0.3857 -0.4373 -0.3104
17968W        W61062   3.112  32.456  23.021 -0.0607 -0.2171  0.0854
17969W        W61063   0.350  30.834  22.886  0.1132  0.0428  0.1090
17970W        W61064   2.024  31.425  22.752  0.1646  0.0243  0.1440
17971W        W61065   5.163  30.401  21.370 -0.1139  0.0589  0.0824
17972W        W61066   1.552  29.848  20.779  0.2282 -0.0205  0.1712
17973W        W61067   1.996  30.080  22.031 -0.2184  0.0166 -0.1582
17974W        W61068   0.637  33.313  20.079 -0.0341 -0.1009 -0.1441
17975W        W61069   1.933  28.546  22.483 -0.1804 -0.2140  0.3990
17976W        W61070   4.588  29.861  22.902  0.0202  0.0936 -0.0734
17977W        W61071   0.637  32.806  20.207 -0.2248  0.2091 -0.0626
17978W        W61072   4.155  29.364  23.986 -0.2140 -0.3234 -0.0334
17979W        W61073   1.195  31.606  23.808 -0.0483  0.2237  0.1101
17980W        W61074   1.551  33.275  24.727 -0.0357 -0.1773 -0.0691
17981W        W61075   1.309  32.650  20.676 -0.1825 -0.1230 -0.4339
17982W        W61076   1.539  31.341  22.727  0.2897  0.1040  0.3180
17983W        W61077   1.402  31.600  21.813 -0.1009  0.0959  0.1057
17984W        W61078   1.423  33.369  20.155 -0.1786  0.1806 -0.0790
17985W        W61079   1.742  30.843  22.675  0.1824 -0.1102  0.1965
17986W        W61080   1.846  30.616  20.336 -0.0902 -0.0134 -0.2630
17987W        W61081   2.804  31.424  21.170  0.0022 -0.0207  0.1379
17988W        W61082   0.668  28.727  22.149  0.0249  0.0761 -0.0972
17989W        W61083   2.310  29.626  21.099  0.0624  0.0773  0.0777
17990W        W61084   2.029  27.693  19.992  0.1792  0.0830  0.0517
17991W        W61085   2.037  30.707  24.523  0.0890 -0.0688  0.1939
17992W        W61086   1.273  30.714  20.114 -0.0024 -0.2725  0.0817
17993W        W61087   0.577  31.197  19.804 -0.1442  0.1076 -0.2374
17994W        W61088   1.299  31.272  22.235  0.0200  0.2751 -0.2234
17995W        W61089   1.473  30.707  24.319 -0.1435 -0.0011 -0.1672
17996W        W61090   0.914  31.324  25.260 -0.1305 -0.0228  0.3066
17997W        W61091   0.716  31.853  22.583  0.1549  0.1150  0.0003
17998W        W61092  33.946  30.266  21.211  0.0459 -0.0752 -0.0940
17999W        W61093   1.567  31.925  19.905 -0.0695 -0.0714 -0.0297
18000W        W61094   0.963  28.970  21.413  0.2576  0.0962 -0.1813
18001W        W61095  34.203  29.179  22.728 -0.1785 -0.1880  0.2336
18002W        W61096   1.908  30.843  19.859  0.0076  0.1906  0.2674
18003W        W61097   1.996  30.968  21.008  0.1271  0.0110  0.2966
18004W        W61098   1.041  28.955  20.454  0.0628 -0.1176  0.0031
18005W        W61099   4.227  29.830  23.285 -0.2315 -0.0277  0.2360
18006W        W61100  33.728  32.088  19.514  0.1531 -0.0770 -0.1761
18007W        W61101   2.433  30.779  24.195 -0.2604 -0.0531  0.1030
18008W        W61102   2.038  28.665  25.211 -0.1515  0.0146 -0.1316
18009W        W61103  33.887  31.710  20.714  0.3865  0.0220  0.2494
18010W        W61104   1.912  29.210  22.566 -0.0849  0.0159 -0.2260
18011W        W61105   2.194  31.069  22.457  0.1210  0.1652 -0.1850
18012W        W61106   2.910  33.571  20.563 -0.2791  0.1157 -0.1760
18013W        W61107   1.842  31.028  22.149  0.1438 -0.0164  0.2239
18014W        W61108   2.292  33.392  22.724 -0.0356 -0.1640 -0.3042
18015W        W61109  34.642  28.695  25.445  0.1033 -0.1019 -0.2430
18016W        W61110   1.651  32.856  20.978 -0.3418 -0.1474 -0.0678
18017W        W61111   3.234  32.120  23.334 -0.0768 -0.2031 -0.0933
18018W        W61112   3.244  30.737  21.019  0.0966 -0.0519 -0.2102
18019W        W61113   3.761  29.437  21.400  0.0639 -0.3299 -0.1123
18020W        W61114   2.261  31.342  19.556  0.0192  0.1996  0.0676
18021W        W61115   0.125  29.497  23.669 -0.3343  0.1147  0.0339
18022W        W61116   1.199  31.802  24.341  0.1134  0.2301  0.0665
18023W        W61117   3.693  32.055  21.278 -0.0154  0.2955  0.1129
18024W        W61118   0.902  30.053  21.379  0.2131  0.1765  0.2266
18025W        W61119   1.449  29.761  20.229 -0.3145  0.0551  0.1573
18026W        W61120   1.802  32.427  21.929  0.0230 -0.0911 -0.1418
18027W        W61121   0.370  30.807  22.375  0.3707 -0.1180 -0.0944
18028W        W61122   1.514  30.261  19.942  0.2492 -0.1589 -0.0894
18029W        W61123   1.161  30.037  22.655  0.1910  0.1924 -0.0052
18030W        W61124   1.306  31.212  23.557 -0.0418 -0.1533 -0.2031
18031W        W61125   1.999  30.362  23.623 -0.1328  0.2247  0.0714
18032W        W61126   1.464  32.018  22.633  0.2203 -0.0781 -0.2774
18033W        W61127   3.916  30.594  21.737  0.0797  0.0366  0.1001
18034W        W61128   2.804  32.371  23.414  0.5197 -0.1048  0.1873
18035W        W61129   3.252  31.429  24.644  0.1545 -0.1920 -0.1863
18036W        W61130   2.485  33.023  22.437  0.1815  0.1527  0.0548
18037W        W61131   3.942  30.849  23.195  0.0058 -0.1772  0.0609
18038W        W61132   0.398  28.565  22.642 -0.0017  0.3323 -0.0954
18039W        W61133  34.259  30.651  20.330  0.1687 -0.0229  0.0142
18040W        W61134   0.384  31.638  21.240  0.3305 -0.1349 -0.0313
18041W        W61135   1.806  30.595  23.101  0.0927 -0.1782  0.2001
18042W        W61136   1.042  30.001  20.901 -0.1894  0.1172 -0.2862
18043W        W61137   0.884  29.764  20.413  0.2280  0.2370  0.2240
18044W        W61138   1.437  32.138  23.102  0.0780  0.0601  0.0590
18045W        W61139   2.702  31.165  22.320 -0.0023 -0.0264 -0.0497
18046W        W61140   2.983  32.278  28.063 -0.1414 -0.3345  0.2064
18047W        W61141   2.434  30.109  25.984 -0.2269  0.4095  0.0573
18048W        W61142   3.551  30.563  24.776  0.0342  0.1580 -0.1115
18049W        W61143   3.455  31.512  25.215 -0.0256  0.1250 -0.0831
18050W        W61144   0.322  29.359  24.867 -0.1131 -0.2267  0.0421
18051W        W61145   1.926  33.208  26.252 -0.0678 -0.1848 -0.0583
18052W        W61146  34.674  30.061  26.712  0.0413  0.3527  0.0201
18053W        W61147   2.752  32.757  26.860 -0.2734  0.1465  0.1227
18054W        W61148   3.432  32.433  25.681 -0.0586  0.0573  0.1402
18055W        W61149   3.346  30.961  24.431 -0.0895  0.0461 -0.1861
18056W        W61150   1.922  30.489  26.488  0.2070 -0.2553 -0.4012
18057W        W61151   3.547  32.080  27.465  0.0767 -0.3247  0.2117
18058W        W61152   3.201  29.430  23.355 -0.0795  0.0709  0.0501
18059W        W61153  33.554  30.041  25.791 -0.1484  0.2793  0.0903
18060W        W61154   3.546  30.994  27.125 -0.1518  0.0361  0.0986
18061W        W61155   0.936  31.510  24.740  0.0323 -0.3914  0.0048
18062W        W61156   0.315  31.112  26.768  0.1684  0.1660  0.1838
18063W        W61157   2.507  28.709  24.754 -0.1907  0.0248 -0.2134
18064W        W61158   2.285  30.799  25.451  0.0608 -0.2733 -0.1515
18065W        W61159   1.131  30.111  26.819  0.0984  0.1666 -0.0053
18066W        W61160   1.414  29.441  27.721  0.1008  0.0656 -0.0988
18067W        W61161   1.630  32.096  25.113 -0.1709  0.0258 -0.3674
18068W        W61162   0.672  30.493  24.800  0.4036 -0.1024 -0.1272
18069W        W61163   1.492  31.122  27.422 -0.2399  0.1401  0.2148
18070W        W61164   1.480  32.941  27.409  0.2071 -0.2542  0.0229
18071W        W61165   2.502  30.391  26.599  0.0877 -0.2639 -0.0552
18072W        W61166   3.118  30.759  26.793  0.0207 -0.3194 -0.1012
18073W        W61167   1.102  32.365  25.032 -0.0410 -0.1547  0.1277
18074W        W61168   2.099  33.256  25.779  0.0368 -0.1185 -0.1313
18075W        W61169   3.637  29.431  28.846 -0.1911  0.1588 -0.2800
18076W        W61170   0.710  31.147  25.762 -0.2242 -0.4451  0.0754
18077W        W61171   0.321  32.945  25.675 -0.1730 -0.1576 -0.0766
18078W        W61172   1.808  33.151  25.197  0.1017 -0.1750 -0.1847
18079W        W61173   2.257  32.805  26.669  0.0096 -0.0966  0.4232
18080W        W61174   2.495  32.144  28.313  0.1394 -0.2186 -0.2717
18081W        W61175   1.981  34.474  26.207 -0.1572  0.3188 -0.1083
18082W        W61176   0.677  32.055  24.562 -0.0892  0.0278 -0.2071
18083W        W61177   2.541  31.907  27.520 -0.1611  0.1996 -0.3554
18084W        W61178   1.317  30.961  26.974 -0.1646 -0.0742 -0.1734
18085W        W61179   2.091  29.474  28.708 -0.1228 -0.0611  0.0135
18086W        W61180   2.270  29.484  25.315  0.1089 -0.0099  0.4179
18087W        W61181   1.481  32.512  23.652  0.0355 -0.0052  0.0901
18088W        W61182   1.057  31.522  26.459 -0.4862  0.0099 -0.1164
18089W        W61183   0.632  31.068  27.702 -0.2544  0.3344  0.0669
18090W        W61184   0.576  30.586  26.580 -0.0527 -0.2337 -0.2915
18091W        W61185   3.444  28.575  27.486  0.1633  0.2885  0.1554
18092W        W61186   1.542  32.803  24.504 -0.1852 -0.0457  0.2478
18093W        W61187   3.787  30.034  24.307  0.3561  0.1451 -0.2893
18094W        W61188   1.173  29.623  24.658 -0.2934  0.0248  0.1594
18095W        W61189   3.048  30.164  22.775 -0.2017 -0.0812 -0.3105
18096W        W61190   1.378  29.003  25.429 -0.2436 -0.0720 -0.0166
18097W        W61191   1.147  33.045  26.952  0.1435 -0.1295  0.1468
18098W        W61192   2.234  29.957  27.536  0.0509 -0.0091 -0.0229
18099W        W61193   3.195  31.702  26.614 -0.2252  0.0285 -0.3070
18100W        W61194   1.438  30.233  24.897  0.0767 -0.3736  0.1705
18101W        W61195   3.373  31.818  27.943  0.1558 -0.0718  0.0716
18102W        W61196   1.527  31.951  26.820 -0.0649 -0.0206  0.3392
18103W        W61197   0.165  31.350  24.442 -0.0673 -0.0071  0.2003
18104W        W61198   2.781  31.350  23.369  0.2509  0.1601 -0.1478
18105W        W61199   3.422  30.831  23.962  0.1931 -0.0293 -0.1378
18106W        W61200   2.544  31.280  22.824  0.0178  0.1788  0.0910
18107W        W61201   0.224  30.240  26.307 -0.1426  0.3878  0.0839
18108W        W61202   1.774  31.831  29.360  0.1046 -0.1532 -0.1251
18109W        W61203   0.242  31.737  27.403  0.0208 -0.0627  0.1592
18110W        W61204   0.974  30.127  24.837 -0.0315 -0.0820  0.0816
18111W        W61205   4.460  30.616  27.485  0.0397 -0.1495  0.0582
18112W        W61206   1.384  32.097  28.396  0.0509  0.4376 -0.1904
18113W        W61207   2.530  29.423  24.452 -0.0786  0.0642  0.0310
18114W        W61208   1.354  30.611  25.227 -0.1402  0.1330 -0.2157
18115W        W61209   4.595  30.203  27.285  0.1387  0.0464  0.4795
18116W        W61210   3.805  30.160  22.541 -0.0096 -0.1152 -0.0009
18117W        W61211   2.995  29.604  26.049 -0.0355  0.1868 -0.1598
18118W        W61212   2.653  29.222  26.446  0.3349  0.0275 -0.0062
18119W        W61213   0.145  32.084  23.857  0.2552  0.1822 -0.0302
18120W        W61214   1.952  31.565  23.342  0.0708  0.0347  0.3386
18121W        W61215   4.224  30.763  27.022 -0.0172 -0.3406  0.0703
18122W        W61216   4.356  30.149  24.118  0.2954 -0.1819 -0.0526
18123W        W61217   1.117  32.007  26.235 -0.2031 -0.0858 -0.0247
18124W        W61218   1.645  29.643  28.758  0.1294 -0.1709 -0.0855
18125W        W61219   2.170  33.659  28.777  0.1765  0.0284  0.0069
18126W        W61220  33.715  32.536  25.296 -0.1047 -0.3067 -0.3505
18127W        W61221  34.490  32.095  26.626 -0.4920 -0.0618 -0.3776
18128W        W61222   0.669  33.202  25.359  0.0434  0.2353 -0.0644
18129W        W61223  34.241  29.945  28.132 -0.0485 -0.2956  0.0271
18130W        W61224   1.830  30.968  25.223  0.1593 -0.1781 -0.1779
18131W        W61225   3.737  29.546  24.219  0.0433  0.3383  0.1335
18132W        W61226  34.552  30.706  27.173  0.3813  0.0066  0.0383
18133W        W61227   2.233  30.394  27.108  0.0446  0.0963  0.2612
18134W        W61228   0.557  32.318  24.009 -0.0408 -0.4685 -0.0273
18135W        W61229   3.017  31.763  24.385  0.1034 -0.0286  0.0184
18136W        W61230   3.095  30.329  26.513  0.1234  0.2169  0.2849
18137W        W61231   3.015  30.258  24.696  0.0397  0.0159 -0.2468
18138W        W61232   0.836  30.487  27.744  0.1562  0.2084  0.1035
18139W        W61233   1.864  29.151  25.200 -0.0063  0.2327  0.1233
18140W        W61234   1.475  28.268  27.724 -0.1859  0.2258 -0.1698
18141W        W61235   0.975  30.747  25.586  0.2886 -0.0962  0.1024
18142W        W61236   4.449  29.893  26.104 -0.0852  0.1986 -0.0770
18143W        W61237  34.563  29.549  25.092 -0.1685 -0.1555  0.0015
18144W        W61238   2.823  30.209  26.926  0.0347  0.3286 -0.2093
18145W        W61239   1.880  30.944  25.834 -0.0394 -0.1196  0.0927
18146W        W61240   0.709  31.817  24.124  0.1680 -0.1063 -0.2964
18147W        W61241   2.255  29.280  28.221  0.0973 -0.1577 -0.0457
18148W        W61242   2.304  31.587  24.890  0.0181  0.1002 -0.0314
18149W        W61243   3.023  31.399  27.058  0.1121 -0.1778 -0.0151
18150W        W61244   2.826  32.778  24.762 -0.2534  0.2559  0.2456
18151W        W61245   0.223  30.481  26.962 -0.2792 -0.0954 -0.2102
18152W        W61246   0.473  29.981  25.110 -0.2735 -0.2339 -0.0113
18153W        W61247   0.269  32.738  26.406  0.2904  0.1468  0.2444
18154W        W61248   2.671  30.660  27.103  0.2860  0.0996  0.1190
18155W        W61249   0.783  29.591  25.104  0.2303 -0.2088  0.1743
18156W        W61250   3.473  32.023  25.392  0.1896 -0.0358 -0.1893
18157W        W61251   1.325  31.302  24.975 -0.0935  0.0741  0.2313
18158W        W61252   2.536  32.072  25.660 -0.1410 -0.1926 -0.2910
18159W        W61253   2.315  31.492  27.245  0.1067  0.0068 -0.1927
18160W        W61254   2.737  30.782  27.743 -0.1296  0.1129  0.1661
18161W        W61255   2.257  31.358  26.589  0.1369 -0.1017  0.3069
18162W        W61256  34.538  31.392  24.809  0.1702  0.6459  0.0375
18163W        W61257   2.277  31.296  24.060  0.4510 -0.2290 -0.0308
18164W        W61258   1.484  32.777  25.025 -0.1264 -0.2016  0.0276
18165W        W61259   0.703  31.068  26.283 -0.0262 -0.0521 -0.0467
18166W        W61260   2.899  32.260  24.914  0.0213 -0.2349  0.0943
18167W        W61261   3.465  29.935  25.939  0.1193 -0.2239 -0.0236
18168W        W61262   0.992  32.072  26.703  0.1722  0.0183  0.0189
18169W        W61263   2.831  29.183  27.513 -0.0801 -0.3859  0.1430
18170W        W61264   1.809  30.046  25.187  0.2867  0.2584  0.0612
18171W        W61265   0.870  32.968  27.900  0.0621 -0.0361  0.1713
18172W        W61266   2.038  28.245  24.150 -0.2427  0.0944  0.2088
18173W        W61267   3.786  29.057  24.254  0.0357 -0.0245 -0.0494
18174W        W61268   2.635  29.356  27.905 -0.2987 -0.1610 -0.2294
18175W        W61269   3.394  30.865  25.259 -0.1715  0.3076 -0.1890
18176W        W61270   3.305  30.148  22.361  0.1497 -0.2648  0.0782
18177W        W61271   2.534  30.254  24.536  0.1363  0.0927  0.0248
18178W        W61272   0.823  32.548  26.920  0.2187  0.0873 -0.2030
18179W        W61273   1.341  31.566  25.434 -0.0081  0.0225  0.1025
18180W        W61274   2.786  32.384  27.311 -0.0186  0.0375  0.1499
18181W        W61275   2.329  29.207  24.877  0.1290 -0.1832 -0.0514
18182W        W61276   2.732  30.890  25.205 -0.1280 -0.0320  0.2145
18183W        W61277   2.312  32.472  27.075 -0.0463  0.1795  0.1444
18184W        W61278   4.023  31.173  28.290 -0.4054  0.1513 -0.2203
18185W        W61279   3.036  30.855  24.830  0.1889  0.0455 -0.0336
18186W        W61280   1.135  31.199  25.984  0.2758  0.2500 -0.1604
18187W        W61281   1.043  30.920  24.897  0.0765  0.0776 -0.2930
18188W        W61282   2.171  29.184  26.484 -0.2003 -0.2373  0.1522
18189W        W61283  33.977  32.905  23.484  0.4290 -0.0163 -0.2005
18190W        W61284   2.640  30.256  27.406 -0.3390  0.1325 -0.1080
18191W        W61285   1.787  28.849  25.637 -0.2953  0.1779  0.1814
18192W        W61286   1.472  30.152  27.751  0.0645  0.0675  0.1345
18193W        W61287   3.198  31.082  27.408 -0.1537 -0.0579  0.1997
18194W        W61288   2.816  29.479  25.149  0.3328 -0.0514 -0.1186
18195W        W61289   2.354  30.977  27.396  0.0798  0.0388 -0.2806
18196W        W61290   1.515  30.748  24.796  0.0864 -0.1643 -0.2333
18197W        W61291   0.823  28.481  26.609 -0.2115  0.0877  0.0114
18198W        W61292   0.847  31.650  26.957 -0.2349 -0.1049  0.1329
18199W        W61293   0.075  33.125  26.765  0.1093  0.1257 -0.0794
18200W        W61294   3.136  31.559  28.430  0.2477 -0.0035 -0.1758
18201W        W61295   3.196  30.581  27.262 -0.3034 -0.1149 -0.0686
18202W        W61296   3.089  30.363  27.788  0.0655 -0.1354 -0.1158
18203W        W61297   1.855  29.249  26.057 -0.1009 -0.3065  0.0140
18204W        W61298   1.942  32.963  24.780  0.1531 -0.0986  0.1309
18205W        W61299   1.069  32.292  24.017  0.1447  0.0711 -0.0793
18206W        W61300   0.959  28.720  25.596  0.2159  0.0775  0.2355
18207W        W61301   2.526  31.365  25.311  0.0901 -0.2547  0.1967
18208W        W61302   2.590  32.385  22.927  0.2117  0.0423 -0.3306
18209W        W61303   2.885  31.058  28.156  0.2321 -0.1148  0.1734
18210W        W61304   0.102  32.331  26.271 -0.3732 -0.1083 -0.1589
18211W        W61305   3.493  28.941  26.188 -0.0498 -0.0847  0.1367
18212W        W61306  33.737  33.192  26.342  0.1372  0.0912  0.0265
18213W        W61307   1.072  28.162  24.922  0.1792 -0.1007  0.2142
18214W        W61308   1.900  30.942  24.063  0.0188 -0.0083 -0.0231
18215W        W61309   3.499  29.599  25.565 -0.0698  0.1092  0.1630
18216W        W61310   2.463  30.427  23.801  0.0124 -0.2490  0.1341
18217W        W61311   2.167  30.088  26.382 -0.2567  0.0266  0.0386
18218W        W61312   2.328  29.937  26.834  0.0244 -0.3897 -0.2444
18219W        W61313   0.307  31.884  26.812 -0.3457  0.1348 -0.0678
18220W        W61314   2.274  30.528  27.628 -0.1860  0.4996  0.4927
18221W        W61315   3.145  28.952  23.535 -0.1670  0.0427 -0.0967
18222W        W61316   3.545  31.486  26.990 -0.2498  0.0840  0.0167
18223W        W61317   0.567  31.278  28.195  0.0936 -0.0031 -0.1898
18224W        W61318   0.069  29.950  25.362 -0.1803  0.1303 -0.0842
18225W        W61319   4.563  29.885  26.674 -0.1000  0.0453 -0.0553
18226W        W61320   1.889  30.266  27.422 -0.2551  0.0192 -0.0560
18227W        W61321   0.441  31.254  24.896 -0.2973 -0.0385 -0.0892
18228W        W61322   2.867  31.788  25.316 -0.0199  0.0325 -0.1334
18229W        W61323   0.836  30.335  25.271 -0.0049 -0.0998 -0.1203
18230W        W61324   1.856  31.430  25.282  0.0292  0.1471 -0.0393
18231W        W61325   2.001  31.444  28.099 -0.0598 -0.2629 -0.5453
18232W        W61326   3.346  32.010  28.522  0.2166  0.0929 -0.1432
18233W        W61327   1.407  29.456  25.930 -0.1018  0.1599 -0.1235
18234W        W61328   1.671  30.012  25.692 -0.3574  0.0901  0.2621
18235W        W61329   2.098  30.981  27.906  0.1232  0.1346  0.0892
18236W        W61330   2.139  32.801  26.143  0.1130 -0.0105  0.1236
18237W        W61331   0.880  29.944  28.497 -0.1346 -0.1141  0.0620
18238W        W61332   1.946  31.899  28.838  0.2461  0.2128  0.0648
18239W        W61333   1.457  30.561  26.604 -0.1036  0.0678 -0.0709
18240W        W61334   2.530  32.060  23.917 -0.2959  0.2547 -0.1080
18241W        W61335   3.495  30.272  27.515 -0.0601  0.1865  0.0048
18242W        W61336   1.674  31.886  23.620  0.2844 -0.1243 -0.2052
18243W        W61337  33.780  30.391  26.702  0.3034 -0.1704  0.4304
18244W        W61338   1.296  31.146  24.501  0.4766 -0.1502  0.3601
18245W        W61339   2.563  30.212  27.925  0.0293 -0.0163 -0.3010
18246W        W61340   1.857  31.596  26.827 -0.0117  0.3271  0.1618
18247W        W61341   1.807  33.166  24.314 -0.0502  0.1318 -0.2248
18248W        W61342  34.688  32.174  27.086 -0.2299 -0.2211 -0.1626
18249W        W61343   3.981  28.847  23.784  0.1142  0.0349 -0.0508
18250W        W61344   2.834  30.931  22.976  0.2803  0.1521 -0.2419
18251W        W61345   3.027  29.358  24.682 -0.0755 -0.3592 -0.3504
18252W        W61346   3.732  29.343  27.440  0.0566 -0.2843 -0.2797
18253W        W61347   4.016  31.447  24.940  0.1564 -0.1873  0.1963
18254W        W61348   2.768  29.085  28.443 -0.1389 -0.1041 -0.0553
18255W        W61349   1.464  29.699  26.869 -0.2587 -0.2770 -0.0580
18256W        W61350   2.637  31.035  25.753  0.1516 -0.2731 -0.0872
18257W        W61351   0.159  30.771  26.462 -0.1807  0.3284  0.0545
18258W        W61352   2.828  33.226  27.918 -0.0757  0.1033  0.1123
18259W        W61353   0.994  30.851  27.346 -0.1542  0.1847 -0.2477
18260W        W61354   3.330  29.265  24.275 -0.2718 -0.4259 -0.1739
18261W        W61355   0.867  29.560  25.983  0.1039  0.1232 -0.3132
18262W        W61356   2.219  31.303  25.789 -0.4328  0.1225  0.0442
18263W        W61357   4.319  32.500  26.343  0.1908  0.0833 -0.1058
18264W        W61358   1.162  32.075  25.598 -0.3301 -0.0089  0.2706
18265W        W61359   3.886  31.317  25.948 -0.2570 -0.2448  0.1270
18266W        W61360   1.685  31.388  25.744 -0.2046  0.1057 -0.2665
18267W        W61361   2.717  29.674  26.704 -0.0969 -0.2945  0.0301
18268W        W61362   2.883  30.019  25.291  0.2249  0.0280  0.1665
18269W        W61363   0.307  30.903  25.605 -0.1233 -0.3419 -0.0412
18270W        W61364   0.766  30.271  27.228 -0.1617 -0.2282 -0.0532
18271W        W61365   2.739  30.845  26.415 -0.0200 -0.1830  0.1091
18272W        W61366   2.734  29.220  25.636  0.0875 -0.2220  0.1335
18273W        W61367   2.411  31.363  27.783  0.1107 -0.1596  0.1237
18274W        W61368   4.648  29.687  25.715 -0.1718  0.0952  0.1668
18275W        W61369   2.348  31.100  28.420 -0.1811 -0.2623 -0.2044
18276W        W61370  34.515  29.730  27.039 -0.0424 -0.0640 -0.0426
18277W        W61371   3.161  32.804  28.091 -0.1175 -0.0484 -0.0857
18278W        W61372   4.848  30.045  23.835  0.0944 -0.0050  0.0734
18279W        W61373   3.457  30.128  27.052  0.0308  0.1505  0.0530
18280W        W61374   4.230  32.082  25.859 -0.1912  0.1072  0.3866
18281W        W61375   3.293  29.793  24.485  0.0778 -0.2328 -0.3811
18282W        W61376  34.597  30.676  26.049 -0.2739  0.1531 -0.0323
18283W        W61377   2.731  29.826  27.713  0.2568 -0.0850  0.1272
18284W        W61378   1.940  28.919  24.694 -0.0443  0.2262  0.0765
18285W        W61379   2.144  28.406  27.096 -0.0435 -0.2699  0.1078
18286W        W61380   2.033  32.672  25.186  0.2345 -0.1284 -0.0684
18287W        W61381   2.040  31.580  26.141 -0.1099  0.2019 -0.0048
18288W        W61382   2.560  29.153  23.421 -0.2746 -0.4669  0.0652
18289W        W61383  34.172  29.116  25.586  0.1479 -0.2515 -0.1538
18290W        W61384   2.118  33.640  27.952 -0.0133 -0.1129  0.2939
18291W        W61385   0.311  30.073  24.542 -0.2467  0.2000  0.1516
18292W        W61386   2.292  31.080  25.020  0.2072  0.1008  0.0899
18293W        W61387   1.293  33.426  27.322 -0.0555  0.2702  0.0171
18294W        W61388   4.301  31.278  27.826 -0.0164  0.1220 -0.0316
18295W        W61389   2.669  28.455  24.344 -0.2041 -0.1563  0.1417
18296W        W61390   2.593  30.411  28.901 -0.2741  0.3310  0.1378
18297W        W61391   1.823  30.583  25.529  0.0103  0.1566  0.4408
18298W        W61392   2.007  29.678  27.125  0.0541  0.1105  0.1081
18299W        W61393   2.456  32.546  25.729 -0.0609  0.1557 -0.0171
18300W        W61394   0.580  32.573  28.044 -0.0394  0.1596 -0.4523
18301W        W61395   2.366  31.555  23.596  0.0825  0.3505 -0.3782
18302W        W61396   1.841  30.103  26.819  0.0784  0.4754  0.3843
18303W        W61397   2.939  30.563  26.009 -0.3452 -0.2054 -0.2739
18304W        W61398   2.142  30.078  25.568 -0.0398  0.3197  0.1683
18305W        W61399   4.467  30.216  25.698  0.1389 -0.3200 -0.2644
18306W        W61400   3.121  31.901  27.107 -0.1265 -0.1131  0.0129
18307W        W61401   0.443  31.311  25.405 -0.1737 -0.1281 -0.1859
18308W        W61402   3.499  31.488  27.500 -0.0911  0.1161  0.2694
18309W        W61403   4.105  31.195  24.481 -0.0479 -0.1550  0.1231
18310W        W61404   1.198  33.148  26.069 -0.1627 -0.4150 -0.1233
18311W        W61405  34.550  30.855  28.163  0.0154  0.2078 -0.2305
18312W        W61406   2.121  30.307  29.136  0.1095 -0.1432  0.0631
18313W        W61407   3.161  31.160  25.976  0.1801 -0.0083  0.1090
18314W        W61408   1.186  28.446  23.900 -0.1322 -0.3155 -0.1739
18315W        W61409   2.806  29.807  24.617  0.2691 -0.1570 -0.2278
18316W        W61410   0.818  33.474  28.617 -0.0935  0.1521 -0.1680
18317W        W61411   1.338  32.351  26.504  0.2943  0.3423 -0.1300
18318W        W61412   1.548  32.279  25.959  0.0445  0.0014  0.4297
18319W        W61413   3.093  32.104  25.894 -0.1042 -0.1225  0.1523
18320W        W61414   2.520  31.643  24.335 -0.0816 -0.0299 -0.1879
18321W        W61415   2.622  31.311  26.136 -0.1482  0.0778 -0.3176
18322W        W61416   2.429  28.957  24.288 -0.1949  0.0850  0.3317
18323W        W61417   2.045  30.505  25.052 -0.1723 -0.0376 -0.1353
18324W        W61418   0.072  32.764  24.956 -0.2060  0.1728 -0.3471
18325W        W61419   2.997  32.922  24.307  0.0091  0.1211 -0.1356
18326W        W61420   1.429  30.946  25.640  0.3990  0.0987  0.0798
18327W        W61421   3.919  31.072  27.412 -0.1537  0.1027  0.3773
18328W        W61422   3.554  29.258  24.787 -0.0165 -0.2178  0.1409
18329W        W61423   3.235  31.638  25.653 -0.1471  0.1897  0.1915
18330W        W61424   2.610  30.447  25.586 -0.0292 -0.1869 -0.0261
18331W        W61425   2.103  31.502  28.580  0.1920 -0.1015  0.2061
18332W        W61426   2.125  32.055  25.999 -0.2698 -0.1490 -0.0303
18333W        W61427   2.003  29.368  24.491  0.0528  0.2169 -0.0569
18334W        W61428   1.906  31.126  27.066 -0.0473 -0.1174  0.0858
18335W        W61429   4.134  28.334  27.493  0.0119  0.1027  0.0507
18336W        W61430   1.964   0.421  28.211  0.3424 -0.0275 -0.0143
18337W        W61431   3.126  32.094  23.890 -0.3151 -0.2160 -0.1148
18338W        W61432   0.779  30.266  25.869 -0.1409  0.0266  0.2216
18339W        W61433   2.572  29.757  27.195 -0.1240  0.0092  0.0944
18340W        W61434   3.100  28.518  24.853  0.2969 -0.0234 -0.2250
18341W        W61435   2.303  31.180  23.289  0.1331  0.1370 -0.0006
18342W        W61436   2.282  30.781  26.774  0.0286  0.1126  0.2057
18343W        W61437   2.299  33.473  25.270  0.3584 -0.0629 -0.3239
18344W        W61438   3.247  30.750  26.310  0.2577 -0.0155  0.0527
18345W        W61439   3.137  31.227  26.508  0.0660  0.0140 -0.2601
18346W        W61440  33.750  29.064  24.686 -0.3313  0.2598 -0.0560
18347W        W61441   3.623  31.080  24.851  0.0271 -0.0623 -0.2431
18348W        W61442   1.804  30.607  27.023  0.1196  0.1991 -0.2444
18349W        W61443   3.329  29.064  27.210  0.1276 -0.0501 -0.0328
18350W        W61444   1.945  29.822  26.017  0.0716 -0.0201 -0.1672
18351W        W61445   3.856  30.203  25.742 -0.0541 -0.2529  0.1073
18352W        W61446   2.420  30.603  28.156  0.1012  0.4887 -0.1125
18353W        W61447  34.674  29.797  26.300 -0.0836  0.0440 -0.2316
18354W        W61448   2.473  30.745  24.758 -0.1337 -0.0678  0.1764
18355W        W61449   3.118  30.018  28.221  0.3262  0.1638 -0.0773
18356W        W61450   2.743  30.023  26.343 -0.0068  0.0654 -0.0140
18357W        W61451   3.506  32.786  28.373 -0.1486 -0.0333 -0.1573
18358W        W61452   1.585  30.050  26.285  0.1698 -0.4155  0.0381
18359W        W61453   2.486  29.396  23.931  0.0881 -0.1729 -0.1177
18360W        W61454   0.399  30.354  25.500  0.3700  0.1637  0.0794
18361W        W61455   0.871  31.119  26.807 -0.2329 -0.0003  0.0511
18362W        W61456   4.120  32.923  27.288 -0.2063 -0.0512  0.1326
18363W        W61457   0.499  29.018  26.697  0.0632  0.1766 -0.0006
18364W        W61458   4.013  31.271  22.935 -0.2389 -0.0526 -0.2522
18365W        W61459   4.097  30.116  26.444 -0.1051 -0.1280  0.0509
18366W        W61460   0.233  31.965  24.312  0.2939  0.1070 -0.3752
18367W        W61461   2.357  29.633  25.822 -0.2389  0.1978  0.0453
18368W        W61462   3.158  31.853  24.926  0.2131  0.2053  0.4015
18369W        W61463   1.480  30.780  26.115 -0.3910 -0.2682  0.0167
18370W        W61464   3.734  31.375  27.906  0.0947 -0.0901  0.2757
18371W        W61465   3.510  32.472  26.653  0.0849  0.0749 -0.2357
18372W        W61466   2.242  28.192  25.252  0.2482  0.0855 -0.1980
18373W        W61467   1.894  30.378  25.988 -0.2576  0.1451  0.2265
18374W        W61468  33.894  32.284  23.523 -0.0442 -0.0904 -0.2134
18375W        W61469   3.966  29.846  26.064  0.1168  0.0100  0.3770
18376W        W61470   3.002  31.631  26.157 -0.2214  0.0388  0.0594
18377W        W61471   2.575  32.652  25.203  0.2122 -0.0485  0.0774
18378W        W61472   3.357  28.703  26.912 -0.1533 -0.0028  0.2417
18379W        W61473   4.126  32.000  27.302 -0.0669 -0.0858 -0.1566
18380W        W61474   2.268  30.247  28.514  0.0150 -0.0621 -0.2331
18381W        W61475  34.522  31.771  24.471  0.2022 -0.1949  0.0602
18382W        W61476   2.785  32.290  26.238  0.1768  0.0174 -0.0236
18383W        W61477   2.462  32.073  25.184  0.2872 -0.2480  0.2565
18384W        W61478   1.494  32.474  25.433 -0.0887  0.1859 -0.1212
18385W        W61479   2.529  30.324  25.103 -0.0172  0.0917 -0.2488
18386W        W61480   2.983  29.617  25.585  0.0153 -0.1668 -0.1415
18387W        W61481   2.811  31.477  24.912 -0.0072 -0.2801 -0.1883
18388W        W61482   2.526  28.824  23.092  0.0288 -0.3921 -0.0668
18389W        W61483   3.725  29.918  25.284 -0.2128 -0.0718 -0.0658
18390W        W61484   2.217  29.161  25.662 -0.1218  0.1148  0.2828
18391W        W61485   2.261  30.948  26.284  0.0789 -0.1840 -0.2355
18392W        W61486  34.162  29.725  25.430 -0.2157  0.3284 -0.3069
18393W        W61487   1.660  31.876  24.144 -0.1500 -0.2039  0.0228
18394W        W61488   1.524  31.380  26.283  0.1145  0.0878 -0.0071
18395W        W61489   1.625  31.181  27.926  0.0635  0.0317  0.3464
18396W        W61490   1.245  31.005  26.459  0.0587  0.3157  0.0757
18397W        W61491  34.643  32.591  24.429  0.1824  0.4249 -0.3670
18398W        W61492  34.624  30.006  24.833 -0.2141  0.0409 -0.0076
18399W        W61493   3.682  29.678  23.306  0.0075 -0.3774  0.3098
18400W        W61494   1.237  30.006  25.284 -0.3197 -0.0165  0.0290
18401W        W61495   0.575  29.430  26.438 -0.0563 -0.2061 -0.0394
18402W        W61496   2.903  32.318  24.373 -0.3570 -0.0167 -0.2685
18403W        W61497   2.840  31.243  24.454  0.0115 -0.4109  0.0582
18404W        W61498   2.117  28.504  25.704  0.2308  0.1298  0.0244
18405W        W61499   3.340  32.321  26.210 -0.2024  0.1321  0.3956
18406W        W61500   0.741  31.893  25.036  0.2130  0.3258  0.1500
18407W        W61501   2.962  29.448  27.124  0.0684  0.1376 -0.0808
18408W        W61502   0.320  30.686  27.961  0.0955  0.3905 -0.1151
18409W        W61503   0.883  30.145  24.321  0.1669  0.1124  0.0607
18410W        W61504   1.751  30.952  26.559 -0.3196  0.0299  0.0187
18411W        W61505   2.297  32.162  24.335  0.1951 -0.0560  0.1187
18412W        W61506   3.117  32.641  25.174  0.0569  0.0239 -0.4228
18413W        W61507   3.053  32.076  27.566 -0.4612 -0.1529  0.1055
18414W        W61508   1.692  32.296  27.907 -0.0468 -0.4571 -0.0292
18415W        W61509  33.999  29.874  25.930 -0.0384  0.1156 -0.2227
18416W        W61510   3.329  30.177  25.461 -0.1966 -0.1384  0.1912
18417W        W61511   1.922  31.399  27.536 -0.2210 -0.1567  0.0857
18418W        W61512   3.852  31.943  24.212  0.3109  0.0557  0.1446
18419W        W61513   3.124  28.901  26.513 -0.1349  0.4435  0.0671
18420W        W61514   2.344  29.634  26.379  0.2264  0.0823 -0.0963
18421W        W61515   1.029  29.932  27.740  0.2215  0.0239 -0.0688
18422W        W61516   0.292  32.410  26.733 -0.0675 -0.1107 -0.0023
18423W        W61517   3.733  30.863  26.233  0.1834 -0.2035  0.0609
18424W        W61518   0.587  29.949  26.269  0.0038 -0.1076  0.0419
18425W        W61519   2.905  28.942  24.483 -0.0535  0.0814  0.0786
18426W        W61520   1.855  31.901  22.915 -0.0837  0.4378  0.1867
18427W        W61521   0.972  30.725  26.119 -0.0047  0.0084  0.2946
18428W        W61522   2.379  29.836  24.896  0.1871  0.1130  0.1388
18429W        W61523   3.070  29.973  27.347 -0.1418  0.3609  0.0468
18430W        W61524   2.378  30.649  25.947  0.0510  0.0738  0.1153
18431W        W61525   2.194  30.719  28.777 -0.0474  0.0068  0.1155
18432W        W61526   1.369  30.482  25.770  0.1706  0.0932  0.1102
18433W        W61527   3.911  30.990  25.265 -0.1100  0.2343 -0.2777
18434W        W61528   2.414  33.235  26.381 -0.0737  0.2379 -0.1890
18435W        W61529   3.414  32.509  27.770  0.1548 -0.1552 -0.0741
18436W        W61530   2.560  31.824  26.163 -0.2938  0.2798  0.4014
18437W        W61531   3.175  31.392  27.953  0.0279 -0.0347  0.3359
18438W        W61532  34.064  30.295  25.601 -0.0733  0.1678  0.1006
18439W        W61533   0.634  30.775  25.202  0.1713  0.2778 -0.2601
18440W        W61534   1.547  31.620  24.679  0.0731  0.2588  0.0020
18441W        W61535   3.987  31.816  25.485  0.3881 -0.0578 -0.2571
18442W        W61536   1.424  30.297  27.223 -0.1277  0.0425 -0.0345
18443W        W61537   2.947  29.587  24.176  0.1864 -0.0034  0.1194
18444W        W61538   2.663  31.800  27.015 -0.5027  0.0775 -0.2513
18445W        W61539   2.907  31.539  27.545 -0.4329  0.0131  0.0434
18446W        W61540   2.510  32.432   0.487 -0.0115  0.0513 -0.1928
18447W        W61541   0.509  31.706  28.369 -0.0806 -0.1332  0.0201
18448W        W61542   3.209  29.524  27.534  0.0855 -0.0504 -0.0292
18449W        W61543   2.599  30.457  29.860  0.2891 -0.1816 -0.4697
18450W        W61544   0.918  30.905  28.324 -0.0167  0.0919  0.1953
18451W        W61545   2.662  34.419  27.796 -0.0792 -0.0619  0.0114
18452W        W61546   0.620  28.882  30.980 -0.0578 -0.1829 -0.1591
18453W        W61547   3.475  31.508  29.638 -0.2898 -0.0857 -0.0724
18454W        W61548   2.817  31.603  30.380  0.0807  0.2167  0.0819
18455W        W61549   2.493  30.601  29.342  0.2163  0.0199 -0.2045
18456W        W61550   1.403  29.624  31.407 -0.0001 -0.0297  0.0829
18457W        W61551   1.538  32.505  31.374  0.1509  0.0564  0.2195
18458W        W61552   1.066  29.584  28.140  0.2074  0.0972 -0.1036
18459W        W61553   0.275  29.773  29.096  0.1042  0.1286  0.1753
18460W        W61554   4.177  31.725  30.190 -0.2738 -0.0333  0.2947
18461W        W61555   0.238  32.024  29.268 -0.0293 -0.0633  0.0114
18462W        W61556   1.400  30.634  30.417  0.1705  0.3684  0.0136
18463W        W61557   1.997  31.494  29.101 -0.1826 -0.0492 -0.0308
18464W        W61558   3.124  32.483  28.517  0.2802 -0.0431 -0.1693
18465W        W61559   1.646  31.004  31.112  0.2568  0.2937 -0.0607
18466W        W61560   2.020  29.991   0.144  0.2088  0.0113  0.0487
18467W        W61561   2.469  31.996  28.839 -0.3862 -0.0916  0.2245
18468W        W61562  34.667  31.885  27.960  0.0867 -0.0920 -0.1510
18469W        W61563   0.239  30.813  29.811  0.2156 -0.0266  0.1844
18470W        W61564   0.625  32.526  30.264 -0.1963  0.0839 -0.1922
18471W        W61565   1.209  29.783  30.463  0.1723  0.0408 -0.2348
18472W        W61566   2.966  30.347  29.401  0.0513  0.0256 -0.1740
18473W        W61567   2.144  32.436  28.097  0.1713  0.2709 -0.3309
18474W        W61568   2.563  32.479  29.616  0.4461  0.1733 -0.0457
18475W        W61569   2.485  30.138  31.191  0.2123  0.1223  0.1442
18476W        W61570  34.122  31.509  29.325  0.1068  0.2308  0.0579
18477W        W61571   1.372  32.642  27.765  0.2962 -0.0452 -0.0841
18478W        W61572   1.391  32.703  29.002  0.3402  0.0330  0.1140
18479W        W61573   4.724  31.993  29.340  0.0308  0.2443 -0.0344
18480W        W61574   3.197  32.673  30.814  0.1110 -0.0428  0.0453
18481W        W61575   1.373  34.171  31.298 -0.4837  0.1189 -0.1744
18482W        W61576   2.108  32.119  29.655  0.0688  0.0325 -0.2088
18483W        W61577   3.231  32.971  31.704  0.0899 -0.0507 -0.1718
18484W        W61578  34.482  32.590  29.938 -0.1369  0.1712  0.2089
18485W        W61579   2.359  31.125  29.617  0.0969 -0.2104  0.2413
18486W        W61580   1.589  32.374  29.854  0.1078 -0.2702 -0.2537
18487W        W61581   2.986  31.345  29.869 -0.1366 -0.2126  0.0558
18488W        W61582   2.369  32.349  30.308 -0.3461 -0.1321  0.2584
18489W        W61583  34.119  31.126  31.210 -0.0846 -0.2409 -0.0379
18490W        W61584   2.103  32.845  29.455 -0.0048 -0.0106 -0.0797
18491W        W61585   4.301  32.081  31.152 -0.0672  0.2863  0.2786
18492W        W61586   1.803  32.621  27.510  0.1524 -0.1546 -0.0632
18493W        W61587   3.598  28.486  29.673  0.0108 -0.1214  0.0095
18494W        W61588   3.841  29.342  27.985  0.1410 -0.1064  0.2697
18495W        W61589   2.661  29.670  30.099 -0.0525 -0.0979  0.0474
18496W        W61590   3.239  29.006  29.663  0.1439 -0.1702  0.2949
18497W        W61591   2.150  33.547  30.239  0.3367  0.1348 -0.2700
18498W        W61592   0.870  31.396  29.876  0.2318  0.0622  0.1213
18499W        W61593   3.720  31.805  31.702  0.0629  0.0646  0.0352
18500W        W61594   1.418  30.770  28.291  0.1937 -0.0276 -0.0134
18501W        W61595   1.405  29.898  30.912  0.3047 -0.1252 -0.1996
18502W        W61596   1.021  31.881  31.910  0.0828 -0.0304 -0.1019
18503W        W61597   1.001  31.893  28.696 -0.0343 -0.1795 -0.1689
18504W        W61598   3.407  30.964  28.952  0.1859 -0.2766 -0.0964
18505W        W61599   2.669  31.950  29.721 -0.0507  0.0545  0.1440
18506W        W61600   2.873  32.027  28.533 -0.3748  0.0983 -0.3176
18507W        W61601   1.082  31.160  29.461  0.1223 -0.1622  0.0107
18508W        W61602  34.065  31.281  30.773  0.3526 -0.0212 -0.1762
18509W        W61603   0.112  33.402  30.660  0.2114  0.2053  0.2103
18510W        W61604   0.428  29.947  28.109 -0.0538 -0.4231  0.1101
18511W        W61605   4.059  33.461   1.281  0.0647 -0.0740  0.1751
18512W        W61606   0.063  31.984  29.935  0.1571 -0.0633 -0.1529
18513W        W61607   3.092  28.183  30.514 -0.2615 -0.2424  0.0882
18514W        W61608   1.419  31.443  29.855  0.1856 -0.0195  0.2085
18515W        W61609   2.911  32.284  30.573  0.0143 -0.0341  0.2868
18516W        W61610   3.501  31.472  29.138  0.1951  0.2733 -0.0111
18517W        W61611   2.440  29.102  30.316  0.0001  0.0274  0.3941
18518W        W61612   2.336  30.301  30.564  0.2029  0.2308 -0.0631
18519W        W61613   1.653  32.217  27.296  0.0782  0.0502  0.1133
18520W        W61614   1.854  30.976  30.185  0.1075  0.1609 -0.0902
18521W        W61615   3.644  30.997  31.955 -0.0851 -0.3291  0.3283
18522W        W61616   2.214  29.746  29.227 -0.3623  0.0547  0.0193
18523W        W61617   0.773  32.953  30.117 -0.1968 -0.1057 -0.0832
18524W        W61618   2.595  30.672   0.354  0.0226  0.3595  0.0753
18525W        W61619   1.325  32.463  30.382 -0.2521 -0.1555  0.2000
18526W        W61620   1.226  32.424  27.188  0.3077 -0.1387 -0.1311
18527W        W61621   0.655  32.105  28.980  0.1483  0.1544 -0.0267
18528W        W61622   0.640  32.016  27.964 -0.2800 -0.0594  0.0670
18529W        W61623   0.257  30.672  30.334 -0.1686  0.2358  0.3362
18530W        W61624   1.479  32.959  31.497  0.2131  0.1803  0.0640
18531W        W61625   3.995  28.729  29.473  0.0970 -0.3289 -0.2472
18532W        W61626   0.447  29.346  30.967 -0.2124  0.1760 -0.0559
18533W        W61627   4.171  27.965  29.257 -0.2354 -0.0283 -0.2079
18534W        W61628   0.481  30.695  29.356 -0.4377 -0.1297 -0.1756
18535W        W61629   4.441  32.298  29.082  0.1396  0.2681  0.2028
18536W        W61630   4.073  29.057  30.011 -0.2150  0.0979  0.1667
18537W        W61631   3.087  29.617  28.610 -0.0023 -0.0879 -0.0124
18538W        W61632   0.374  32.849  31.440 -0.1754  0.0479  0.1492
18539W        W61633   0.281  30.307  29.164 -0.0976 -0.1866 -0.0808
18540W        W61634   1.210  30.932  31.381  0.0380 -0.4879 -0.0190
18541W        W61635   2.441  28.714  30.005  0.1858 -0.0267  0.3100
18542W        W61636   3.010  30.091  30.868 -0.3604 -0.0812 -0.1204
18543W        W61637  34.521  31.038  28.917 -0.1654  0.1349  0.1908
18544W        W61638   1.724  30.465  30.064  0.3500 -0.1849 -0.0079
18545W        W61639   1.509  31.408  29.391  0.3085 -0.0551  0.1212
18546W        W61640   0.277  32.169  28.239 -0.4133  0.1197  0.0394
18547W        W61641   2.518  28.948  31.342  0.0796 -0.0274  0.3431
18548W        W61642   3.096  32.738  29.652  0.0184  0.1331  0.0087
18549W        W61643   2.570  32.320  31.461 -0.0319 -0.1627 -0.0352
18550W        W61644   4.248  31.839  29.231 -0.0783  0.1235 -0.4091
18551W        W61645   0.336  30.985  30.799 -0.1593  0.3318  0.2563
18552W        W61646   0.093  31.258  28.019 -0.1949 -0.3105  0.3750
18553W        W61647   2.442  33.170  30.236 -0.2392  0.1655 -0.2164
18554W        W61648   1.207  32.755  29.886  0.3701 -0.0504  0.0203
18555W        W61649   1.983  30.739  28.310  0.2970 -0.1223 -0.5325
18556W        W61650   3.265  33.112  30.559  0.2533 -0.1716 -0.1507
18557W        W61651   1.966  31.469  29.661 -0.0745  0.3388 -0.1311
18558W        W61652   0.894  32.395  30.631  0.1201 -0.1186 -0.1692
18559W        W61653   2.953  29.802  31.242 -0.0253 -0.0599  0.0819
18560W        W61654   1.929  31.596  30.807  0.3285  0.0796 -0.1983
18561W        W61655   3.475  29.721  29.738  0.0703  0.1055 -0.0557
18562W        W61656  34.390  28.551  28.615  0.3034 -0.1204  0.3722
18563W        W61657   3.361  33.879  28.993 -0.1956 -0.0533 -0.1231
18564W        W61658   2.646  33.028  28.440 -0.0178  0.3075  0.0879
18565W        W61659  34.527  31.368  29.595 -0.1773  0.1390  0.0159
18566W        W61660   2.948  32.900  28.877  0.1780  0.2047 -0.0725
18567W        W61661   2.907  30.053  29.782 -0.1781 -0.2570  0.1783
18568W        W61662  34.506  32.753   0.457 -0.0515  0.0551  0.2082
18569W        W61663   3.152  30.522  29.952  0.1324 -0.3251 -0.0024
18570W        W61664   0.463  31.594  27.804 -0.0916  0.2795  0.3459
18571W        W61665   0.298  32.907  30.337 -0.1285  0.3663  0.7308
18572W        W61666   1.739  29.949  29.808 -0.0873 -0.0881 -0.1205
18573W        W61667   2.838  28.293  28.937  0.3005  0.2744 -0.1509
18574W        W61668   1.683  31.182   0.372  0.1436  0.0172  0.3135
18575W        W61669   3.010  30.752  29.087  0.1253  0.1783  0.0738
18576W        W61670   4.092  30.542  28.787  0.2013  0.0958 -0.0293
18577W        W61671   4.085  30.153  28.054  0.2270  0.3701 -0.0970
18578W        W61672  34.309  33.060  30.841 -0.1486  0.1745  0.2207
18579W        W61673   1.527  31.684  28.753  0.0536 -0.1265  0.0110
18580W        W61674   1.592  32.846  30.194  0.0129 -0.1043 -0.1091
18581W        W61675   2.378  29.162  29.321 -0.0435 -0.1786 -0.1064
18582W        W61676   5.101  32.088  29.845  0.3894  0.1740  0.1322
18583W        W61677   0.532  31.806  30.018  0.0347 -0.0586  0.2623
18584W        W61678   2.413  32.023  31.063 -0.1029 -0.4087  0.2062
18585W        W61679   2.841  32.488  30.034 -0.1299  0.0460  0.2020
18586W        W61680   1.648  28.905  29.739 -0.1246  0.1087 -0.0593
18587W        W61681   1.568  30.269  28.868 -0.0861  0.1544  0.0755
18588W        W61682   3.932  27.967  29.710 -0.0438  0.1149 -0.2984
18589W        W61683   0.248  33.690  27.649  0.1726 -0.0752  0.0811
18590W        W61684   1.840  30.067  31.292  0.1891 -0.3048 -0.0698
18591W        W61685   2.172  29.673  29.885  0.1307 -0.3873  0.0771
18592W        W61686   2.451  29.776   0.098 -0.0825  0.0448  0.3304
18593W        W61687   2.421  30.728  31.771  0.0030 -0.2074  0.0826
18594W        W61688   3.818  29.589  29.374 -0.0275  0.0611 -0.0137
18595W        W61689   2.542  31.064  30.152  0.0597 -0.2501  0.1683
18596W        W61690   1.780  30.415  29.501 -0.1349 -0.0172 -0.3295
18597W        W61691   2.521  29.458  31.608  0.1237  0.1324  0.3670
18598W        W61692   1.053  32.274  31.180 -0.0728 -0.1084  0.2251
18599W        W61693   0.797  34.057  30.344  0.0617 -0.0854  0.2551
18600W        W61694   2.915  31.370  31.633  0.0706 -0.0864  0.0258
18601W        W61695   1.301  31.265  28.533  0.0496 -0.3841 -0.1249
18602W        W61696   2.452  29.340   0.317 -0.1647  0.0188 -0.2525
18603W        W61697   2.015  30.203  27.946  0.0424 -0.1253  0.2617
18604W        W61698   1.918  31.951  28.296  0.0793 -0.3209  0.1614
18605W        W61699   2.319  31.848  27.973  0.1194  0.2306  0.1673
18606W        W61700   0.301  29.403  29.545 -0.1285 -0.0858 -0.1816
18607W        W61701   1.773  32.449  29.382 -0.0593 -0.3234 -0.2304
18608W        W61702   2.603  31.536  28.368  0.0784  0.0490 -0.0489
18609W        W61703   2.870  31.942  30.924  0.0461 -0.3135 -0.0008
18610W        W61704   1.430  33.175  27.881 -0.0862  0.0289  0.0923
18611W        W61705   1.440  29.389  30.605  0.2268 -0.2688  0.2578
18612W        W61706  34.685  32.121  30.709  0.2810 -0.0200 -0.2129
18613W        W61707   1.556  31.679  28.247  0.0274  0.0797  0.2504
18614W        W61708  34.299  32.292  29.183  0.1782 -0.0522  0.2326
18615W        W61709   3.486  30.031  30.638  0.2136 -0.2681 -0.1425
18616W        W61710   4.016  31.529  28.664 -0.0758 -0.0895  0.0218
18617W        W61711   0.804  31.178  30.755 -0.0108  0.1908 -0.1181
18618W        W61712   1.329  30.181  30.150 -0.0982 -0.2473 -0.0424
18619W        W61713  34.141  32.926  30.005 -0.0526 -0.1602  0.4194
18620W        W61714   2.210  31.297  30.467 -0.2953  0.3032 -0.0637
18621W        W61715   1.972  30.019  28.798  0.1414  0.1226  0.0713
18622W        W61716   2.649  31.534  30.859  0.0000  0.1085  0.3118
18623W        W61717   1.462  31.631  30.669  0.0905 -0.2155  0.0206
18624W        W61718   0.028  30.991  29.377 -0.3565 -0.1675 -0.3140
18625W        W61719   3.794  30.121  31.934  0.1262  0.2544  0.3027
18626W        W61720   1.725  30.155  30.492 -0.1399 -0.0044 -0.0051
18627W        W61721  34.025  33.356  29.097  0.1656 -0.0894 -0.0456
18628W        W61722   2.095  32.199  30.719  0.2225  0.0071  0.1029
18629W        W61723   1.057  31.739  28.132 -0.2261  0.2666  0.5391
18630W        W61724   1.614  31.031  29.098  0.2255  0.1249  0.3234
18631W        W61725   0.134  32.513   0.135 -0.0176 -0.2764  0.0722
18632W        W61726   3.565  31.048  30.540 -0.2378  0.2320 -0.1902
18633W        W61727   1.259  30.791  30.877 -0.0069  0.2256  0.1332
18634W        W61728   0.417  30.140  28.669  0.3799  0.0308 -0.1906
18635W        W61729   2.145  30.429  31.553  0.0046  0.1059  0.1079
18636W        W61730   2.560  30.978  29.041 -0.0211 -0.0885 -0.2399
18637W        W61731   1.381  30.189  31.463  0.0354  0.0752  0.2755
18638W        W61732   1.450  32.140  30.743 -0.1406  0.2948 -0.1817
18639W        W61733   1.888  28.840  29.303  0.1307 -0.0409 -0.2493
18640W        W61734   3.834  32.251  29.165  0.0187 -0.1194  0.0611
18641W        W61735   2.733  30.405  31.547  0.0903 -0.1854 -0.0571
18642W        W61736   1.160  31.398  28.990  0.0816  0.1024 -0.0491
18643W        W61737   0.384  32.535  30.818  0.1673 -0.0366 -0.1467
18644W        W61738   2.312  32.369  29.208  0.1236  0.0671 -0.1241
18645W        W61739   1.447  29.770  31.912  0.1259 -0.2066 -0.3874
18646W        W61740   0.919  32.025  29.550 -0.0651 -0.0405  0.3076
18647W        W61741   1.119  33.012  29.336 -0.0429  0.1895  0.1026
18648W        W61742   0.011  33.590  28.491  0.3650 -0.4924 -0.0413
18649W        W61743   3.759  28.540  28.456  0.5314  0.2189 -0.0789
18650W        W61744   3.547  30.358  28.018 -0.0778  0.0503  0.1337
18651W        W61745   1.327  30.521  29.729 -0.0121  0.3820  0.2090
18652W        W61746   3.133  30.435  31.189  0.0020 -0.2593  0.1250
18653W        W61747   1.684  30.709  28.714  0.0379 -0.3435 -0.1400
18654W        W61748   2.586  31.134   0.633  0.0691 -0.0160  0.0137
18655W        W61749   0.885  30.475  31.635 -0.1018 -0.2549 -0.0312
18656W        W61750   2.967  31.652  28.912  0.0004 -0.0253  0.2463
18657W        W61751   0.242  31.233  31.944  0.0614  0.0246  0.0752
18658W        W61752   3.027  34.297   0.894  0.0923  0.1588 -0.3511
18659W        W61753   1.481  31.161  31.774 -0.3889 -0.0486 -0.0049
18660W        W61754   2.642  29.393  28.866  0.1528 -0.2146 -0.0195
18661W        W61755   1.119  30.383  28.655 -0.0329 -0.1732  0.4527
18662W        W61756   2.246  30.619  30.210 -0.1954  0.1541  0.0349
18663W        W61757   4.262  31.058  28.689  0.0948  0.3199  0.1419
18664W        W61758   2.043  30.832  29.216 -0.1411  0.1965 -0.3290
18665W        W61759   2.770  30.577  30.377  0.2890  0.0131  0.3281
18666W        W61760   0.055  31.903  31.158 -0.0640 -0.2678  0.1396
18667W        W61761   1.763  29.604  30.282 -0.2065 -0.1537 -0.0861
18668W        W61762   1.197  30.841  27.870 -0.1343  0.0223 -0.1635
18669W        W61763   1.264  32.767  28.259 -0.2323  0.1686 -0.2326
18670W        W61764   1.757  30.235  31.780 -0.0086 -0.2011  0.0809
18671W        W61765   1.785  31.129  28.496 -0.0018  0.0195  0.0575
18672W        W61766   1.675  29.912  29.192 -0.3383 -0.0464  0.4006
18673W        W61767   2.080  29.955  30.844  0.1705  0.2969 -0.1761
18674W        W61768   2.374  30.819  31.222 -0.0956 -0.0753  0.1561
18675W        W61769   2.082  30.488   0.402 -0.0843  0.3570  0.1482
18676W        W61770   0.379  29.929  30.926 -0.3037 -0.2092 -0.3912
18677W        W61771   2.335  33.493  31.662 -0.1494  0.1320 -0.0208
18678W        W61772   3.792  29.634  28.414 -0.0413 -0.0483  0.0155
18679W        W61773   3.722  29.214  31.685 -0.1578  0.0652  0.0395
18680W        W61774   2.604  30.007  29.277 -0.0316 -0.0561 -0.0874
18681W        W61775   2.088  28.992  28.831 -0.2523  0.0376  0.0354
18682W        W61776   0.845  30.331  29.196 -0.0847  0.2109 -0.3768
18683W        W61777   2.827  30.944  31.373  0.0515 -0.0653  0.2668
18684W        W61778   1.469  29.322  28.364  0.0420  0.3102 -0.1962
18685W        W61779   1.930  30.669  30.617 -0.0023 -0.1445  0.0756
18686W        W61780   2.194  32.336  28.642  0.1978 -0.1800  0.1324
18687W        W61781   3.249  31.386  30.271 -0.1843 -0.0365  0.0303
18688W        W61782   3.019  29.673  29.204 -0.0824 -0.0701 -0.2624
18689W        W61783   0.663  31.521  30.404  0.0256  0.1294  0.1321
18690W        W61784   0.438  33.413  28.968  0.0312  0.0067 -0.2004
18691W        W61785   0.469  29.660  28.549  0.1804  0.3769 -0.2116
18692W        W61786   0.905  32.531  29.052  0.0064  0.1057 -0.0094
18693W        W61787   1.602  32.234  28.871 -0.2831 -0.1755 -0.1193
18694W        W61788   3.229  30.682  30.726  0.1937 -0.1569 -0.0584
18695W        W61789   1.944  29.858  28.362 -0.2348 -0.0327 -0.0560
18696W        W61790   2.860  28.306  30.997 -0.0369 -0.5770  0.0382
18697W        W61791   0.240  31.643  29.606 -0.0794  0.0448  0.0474
18698W        W61792   0.941  29.807  29.437  0.2772  0.0135 -0.1143
18699W        W61793   1.640  32.864  29.683 -0.1154  0.1453 -0.0534
18700W        W61794  34.526  31.619  30.653 -0.0799 -0.1650 -0.2120
18701W        W61795   2.091  33.777  29.271  0.4328 -0.0207 -0.3101
18702W        W61796   2.172  29.382  30.605 -0.1241 -0.0594  0.3978
18703W        W61797   3.039  30.163  30.409 -0.3772  0.0550  0.2955
18704W        W61798   0.697  31.682  30.887 -0.1302  0.0845  0.0308
18705W        W61799   3.991  29.317  31.081 -0.1873 -0.3678 -0.2744
18706W        W61800   1.232  32.416  29.478  0.0930 -0.0033 -0.0777
18707W        W61801   0.659  31.615  29.270  0.1625 -0.0802 -0.0983
18708W        W61802   3.398  32.897   0.191 -0.4127 -0.0410  0.0142
18709W        W61803   4.442  30.498  30.208  0.2191 -0.0465 -0.0841
18710W        W61804   1.009  31.803  30.060 -0.2924 -0.2100 -0.0355
18711W        W61805   0.163  31.202  31.425  0.1643 -0.2610 -0.3088
18712W        W61806   2.906  30.819   0.896  0.0015 -0.1729 -0.0443
18713W        W61807   1.562  30.418  30.887  0.2021  0.0318  0.0990
18714W        W61808   1.851  29.390  29.193  0.2009  0.0407 -0.0649
18715W        W61809   1.055  31.294  27.920 -0.0301 -0.0120 -0.1087
18716W        W61810  33.710  31.652  30.824 -0.0684  0.0553  0.1423
18717W        W61811   1.161  31.340  30.400 -0.0251  0.0572 -0.0783
18718W        W61812   1.006  32.971  28.832  0.0892 -0.3783  0.0988
18719W        W61813   4.675  31.638  28.981  0.0686  0.0710  0.0882
18720W        W61814   4.029  30.774  29.216 -0.0841  0.0962 -0.3916
18721W        W61815   3.491  33.440  31.810 -0.0124 -0.1657  0.0631
18722W        W61816   1.763  29.783  27.562  0.3926 -0.1384  0.1760
18723W        W61817   2.569  33.020  29.322  0.4005 -0.0627 -0.0438
18724W        W61818   0.588  32.149  27.190  0.3232  0.2522  0.0085
18725W        W61819   2.187  33.295  29.197  0.3455 -0.0501  0.1109
18726W        W61820   2.376  32.940  28.814  0.1104 -0.2267  0.0582
18727W        W61821   3.400  31.309  31.492  0.2120  0.0213  0.1106
18728W        W61822   2.332  28.781  28.342  0.1186  0.2694  0.1380
18729W        W61823   2.208  30.128  29.604  0.0421 -0.1538  0.0546
18730W        W61824   3.552  28.873  30.033 -0.2159 -0.1665  0.2120
18731W        W61825   3.150  33.478  31.424  0.0970 -0.2346  0.0979
18732W        W61826   0.951  29.865  31.048  0.0962 -0.0354  0.0990
18733W        W61827   1.117  30.229  28.133  0.0961 -0.3057 -0.1653
18734W        W61828   0.611  32.610  31.960 -0.1243  0.0181  0.0028
18735W        W61829   4.525  28.254  31.863 -0.1838  0.0434 -0.1661
18736W        W61830  33.745  32.139  30.151 -0.4505 -0.1729  0.0084
18737W        W61831   2.823  32.305  29.136 -0.1393  0.1481  0.0158
18738W        W61832   0.378  30.807  28.398  0.0310  0.0211 -0.0218
18739W        W61833   3.420  29.985  29.256  0.0317 -0.1293  0.0906
18740W        W61834   3.296  28.462  31.240  0.1264 -0.1542  0.1048
18741W        W61835   2.763  30.768  28.628 -0.1864 -0.2242 -0.2123
18742W        W61836   0.876  30.250  29.735 -0.0760  0.1656  0.3300
18743W        W61837   2.015  33.066  29.937 -0.1121 -0.3486  0.6203
18744W        W61838   0.496  32.275  29.749 -0.1334 -0.2758  0.2107
18745W        W61839   1.216  33.207  30.225  0.0192  0.5213 -0.1366
18746W        W61840  34.678  29.819  28.570  0.0038  0.1155 -0.0101
18747W        W61841   3.680  29.673  30.861 -0.1128 -0.0144 -0.0860
18748W        W61842   0.522  30.948  31.639  0.2543  0.1754 -0.1200
18749W        W61843   1.361  27.607  30.787  0.2582  0.1099  0.2215
18750W        W61844   1.238  31.295  30.945  0.0400  0.2634  0.0855
18751W        W61845   3.423  29.943  28.703 -0.0308 -0.1463 -0.0325
18752W        W61846   1.967  31.898  30.028 -0.1385 -0.0080 -0.3766
18753W        W61847   1.411  31.928  31.504  0.1804 -0.3458 -0.1437
18754W        W61848   2.752  30.277  28.441  0.1337 -0.1026 -0.0296
18755W        W61849   2.946  32.231  31.819 -0.0005  0.0219 -0.0062
18756W        W61850   2.717  31.094  26.835  0.1009  0.0462  0.3045
18757W        W61851   1.774  32.683  30.688 -0.3084  0.1029  0.0791
18758W        W61852   1.216  30.855  28.807 -0.0263  0.1398  0.0256
18759W        W61853   1.851  28.999  28.391  0.0553 -0.1895 -0.3492
18760W        W61854   2.346  31.529  30.033  0.1344  0.0392 -0.1460
18761W        W61855   1.526  31.458  31.349 -0.1285 -0.2615  0.1420
18762W        W61856   2.670  32.734  30.430  0.1893  0.1219  0.1243
18763W        W61857   1.962  29.158  30.165 -0.0058  0.2125  0.2796
18764W        W61858   3.528  31.111  28.279  0.0519 -0.2413  0.1159
18765W        W61859   3.394  31.049  29.894 -0.1624  0.2339  0.2186
18766W        W61860   1.691  33.792  27.076  0.0190 -0.4135 -0.4350
18767W        W61861   2.106  30.697  29.725  0.0282 -0.1244 -0.0651
18768W        W61862   2.669  33.491  29.288  0.0858  0.1698 -0.1216
18769W        W61863   0.738  30.610  30.643 -0.2715  0.0165  0.0000
18770W        W61864   2.349  31.815  29.329 -0.0795  0.2067  0.0385
18771W        W61865   3.869  32.142  30.461  0.1080  0.0551  0.1748
18772W        W61866   3.249  28.255  29.285  0.0307  0.1946 -0.2587
18773W        W61867   1.324  30.986  30.045 -0.2583  0.1020 -0.1110
18774W        W61868   1.893  32.688  28.869 -0.2483  0.0571  0.1448
18775W        W61869   3.046  29.470  29.777 -0.0420 -0.0155 -0.1300
18776W        W61870   3.452  29.195  30.619  0.0984 -0.0411 -0.2762
18777W        W61871   2.642  32.973  29.815  0.1637  0.0544 -0.1723
18778W        W61872   2.710  29.021  31.789 -0.2339 -0.2125  0.0910
18779W        W61873   2.600  32.518  30.933  0.2647 -0.3402 -0.0068
18780W        W61874   1.470  32.527   0.358 -0.0282  0.0496 -0.1010
18781W        W61875   2.114  31.932  27.157 -0.1753  0.0109  0.0740
18782W        W61876   3.212  31.801  31.532 -0.0460  0.4653 -0.0882
18783W        W61877   2.490  31.516  28.888  0.0281  0.0942  0.0580
18784W        W61878   2.249  32.932  30.843  0.0869  0.2653 -0.1202
18785W        W61879   3.911  32.487  29.983 -0.0159  0.1951 -0.2720
18786W        W61880   0.814  30.749  29.715  0.0410 -0.2034  0.0099
18787W        W61881   3.869  30.246  29.284  0.0951  0.0592 -0.1873
18788W        W61882   2.473  29.818  28.681  0.1852 -0.0144  0.3622
18789W        W61883   3.628  29.406  30.189  0.2442 -0.4196 -0.2172
18790W        W61884   4.449  28.419  29.314  0.0432  0.2958  0.1626
18791W        W61885   0.226  33.472  31.796 -0.0923  0.0396 -0.0003
18792W        W61886   1.031  31.310  27.317  0.2406  0.0096 -0.0625
18793W        W61887   1.887  30.779  27.495  0.2805 -0.1389  0.0214
18794W        W61888   1.682  30.933  29.698  0.1097 -0.0161 -0.1004
18795W        W61889   1.189  29.187  31.290  0.0372  0.0229  0.1270
18796W        W61890   0.692  31.428  31.920  0.1878  0.0919 -0.4916
18797W        W61891   0.209  31.302  30.483 -0.1266 -0.1842 -0.1314
18798W        W61892   0.175  28.881  28.745 -0.0760  0.0004  0.1236
18799W        W61893   4.419  32.720  30.013  0.0548  0.1450 -0.0027
18800W        W61894   0.837  29.929  30.158 -0.0846 -0.0502  0.0477
18801W        W61895  34.632  30.359  30.106  0.2342 -0.0231  0.2566
18802W        W61896   2.645  32.506  28.650  0.0965  0.3533  0.1771
18803W        W61897   2.676  31.388  29.362  0.0465 -0.4124 -0.3912
18804W        W61898   1.304  30.568  29.198 -0.0004 -0.0372 -0.1599
18805W        W61899   3.304  31.877  30.508 -0.0410  0.0696 -0.1753
18806W        W61900   1.266  32.124  27.693  0.1669  0.0840 -0.1314
18807W        W61901   2.052  30.404  31.023 -0.1827 -0.1042 -0.1441
18808W        W61902   1.492  29.316   0.152  0.0841  0.2072  0.3450
18809W        W61903   0.686  30.429  28.235 -0.1439  0.0578 -0.1538
18810W        W61904   2.088  29.225  31.373 -0.1140 -0.1217 -0.0263
18811W        W61905   3.210  31.119  29.389  0.1977  0.1340  0.2000
18812W        W61906   2.866  33.305  27.349  0.1462  0.0491 -0.0917
18813W        W61907   1.447  31.979  30.249  0.1915 -0.2387  0.1978
18814W        W61908   3.907  33.643  31.711  0.1087 -0.1980 -0.2288
18815W        W61909   0.269  29.471  30.463  0.0350 -0.0073 -0.0922
18816W        W61910   3.006  31.180  28.821 -0.3548  0.3342  0.0226
18817W        W61911   0.701  32.404  31.484  0.3936 -0.0734 -0.2234
18818W        W61912   3.675  32.037  29.625  0.0590  0.2156 -0.3783
18819W        W61913   3.072  28.879  31.347  0.2085 -0.0288 -0.2579
18820W        W61914   0.905  30.518  30.181 -0.2054  0.0211 -0.2337
18821W        W61915   1.111  30.174  31.970 -0.2734 -0.0193  0.2602
18822W        W61916   1.784  32.024  31.156 -0.2681 -0.2887 -0.2146
18823W        W61917   2.717  31.824  31.457 -0.3532 -0.2667 -0.1964
18824W        W61918   2.620  29.583  29.554  0.3503 -0.2054  0.1873
18825W        W61919   3.113  29.645  30.370  0.0789  0.0841  0.0360
18826W        W61920   3.314  30.617  28.517  0.2248 -0.1096  0.0349
18827W        W61921   1.115  30.300  30.685  0.0178 -0.0819 -0.2092
18828W        W61922   2.906  30.023  28.858  0.1428 -0.0857 -0.6052
18829W        W61923   4.099  30.876  30.161 -0.0635  0.0703  0.0070
18830W        W61924   3.746  31.307  30.076 -0.0291  0.0239 -0.1287
18831W        W61925   2.701  31.051  30.911  0.0395 -0.1633 -0.0342
18832W        W61926   1.866  31.835  27.791  0.1494  0.0823  0.1259
18833W        W61927   2.687  29.712  28.246 -0.2158 -0.0123 -0.0668
18834W        W61928   1.883  33.185  30.493 -0.0505 -0.1300 -0.1182
18835W        W61929   3.302  33.400   0.286  0.1552 -0.1928  0.0252
18836W        W61930   3.023  33.966  31.354  0.1400  0.0558 -0.0526
18837W        W61931   3.658  31.829  30.090 -0.0187 -0.2272  0.0273
18838W        W61932   0.720  29.542  29.835 -0.0245  0.0898  0.3224
18839W        W61933   1.379  31.929  29.728 -0.0297 -0.0757  0.2898
18840W        W61934   2.318  31.790  30.465 -0.0740  0.0099 -0.0391
18841W        W61935   3.304  28.711  30.462 -0.1177 -0.2717 -0.0083
18842W        W61936   0.776  30.698  28.797  0.0184  0.1280  0.2997
18843W        W61937   3.446  30.057  30.147  0.1981  0.1338  0.0980
18844W        W61938   1.649  33.483  30.110 -0.2475  0.0810  0.0424
18845W        W61939   2.904  30.791  29.595 -0.0569 -0.1815 -0.1237
18846W        W61940   3.880  30.973  30.935  0.3264  0.0497 -0.1455
18847W        W61941   3.017  31.393  31.170  0.2084 -0.1150 -0.0518
18848W        W61942   0.831  31.926  31.458 -0.0390  0.2878 -0.0063
18849W        W61943  34.478  33.955  31.292  0.2715 -0.0814  0.3314
18850W        W61944   2.731  33.225  31.486  0.0727 -0.0407  0.2891
18851W        W61945   0.998  33.653  31.264 -0.0384  0.0213 -0.0509
18852W        W61946   2.648  31.754   0.893  0.0279  0.1382  0.0496
18853W        W61947   3.072  30.970  30.381 -0.2521 -0.2613 -0.1331
18854W        W61948   2.376  30.288   0.026 -0.2509 -0.2212 -0.1981
18855W        W61949   4.069  30.375   1.000  0.0847 -0.3909 -0.1111
18856W        W61950   2.953  32.741  31.332 -0.1324 -0.2066 -0.2388
18857W        W61951   1.556  28.849  31.373 -0.2446 -0.2951 -0.2340
18858W        W61952   3.247  30.842  31.636 -0.4155  0.0309 -0.1673
18859W        W61953  34.472  33.246   0.684  0.2689  0.1542  0.4045
18860W        W61954   4.720  30.316   0.341  0.0528  0.2497  0.2294
18861W        W61955   0.536  32.068  30.487 -0.2543 -0.0510  0.2491
18862W        W61956  34.210  32.551  31.593  0.1449  0.0810  0.2458
18863W        W61957   2.380  31.683  31.853  0.0537  0.2743  0.0304
18864W        W61958   2.076  28.869   0.345 -0.1878 -0.0149  0.1838
18865W        W61959   1.050  31.427  31.536  0.0101  0.1506 -0.0662
18866W        W61960   0.769  30.565   0.723 -0.0365  0.3859  0.3063
18867W        W61961  33.448  33.052  30.588  0.1437  0.0929 -0.3230
18868W        W61962   3.982  30.638  30.537  0.0901  0.1128 -0.2649
18869W        W61963   3.191  31.348  30.746  0.1358 -0.0208 -0.3070
18870W        W61964   3.639  28.270  31.724 -0.1270  0.0437 -0.0171
18871W        W61965   2.249  30.063   1.001 -0.0552  0.1038 -0.0179
18872W        W61966   1.890  30.782  31.965 -0.3194  0.0421  0.4005
18873W        W61967   0.459  33.732   0.888  0.1039 -0.1606 -0.4027
18874W        W61968   1.721  30.825   0.729  0.1028 -0.0496  0.1223
18875W        W61969   0.949  32.348   0.411 -0.0393  0.1555  0.1527
18876W        W61970   0.838  33.485  30.206  0.0382 -0.1275  0.1389
18877W        W61971   1.924  31.201   0.915  0.1207 -0.0758  0.0670
18878W        W61972   2.693  31.510   0.320 -0.0006  0.1134  0.0653
18879W        W61973   3.809  27.418  31.627  0.2197 -0.0802  0.1456
18880W        W61974   1.580  29.725   0.380 -0.1324  0.2407 -0.0172
18881W        W61975   1.289  32.875  31.974 -0.2367 -0.0243  0.2286
18882W        W61976   1.243  32.714  30.981  0.2021 -0.0140 -0.1412
18883W        W61977   2.069  32.562  29.879 -0.2586  0.1314 -0.0780
18884W        W61978   2.664  31.069   0.069 -0.2038 -0.1913 -0.0502
18885W        W61979   2.093  31.139  30.917  0.0441  0.0499 -0.2075
18886W        W61980   4.688  29.512  31.800 -0.1861  0.0734 -0.2068
18887W        W61981   2.248  31.496   0.583  0.1926  0.3392  0.1280
18888W        W61982   1.404  30.648  31.878  0.2075 -0.0350  0.1130
18889W        W61983   2.045  31.848   0.247 -0.2853  0.1263  0.4071
18890W        W61984   1.576  30.524   0.317  0.2908 -0.0341 -0.0188
18891W        W61985   2.394  30.466   1.348  0.0714 -0.4035 -0.1783
18892W        W61986   2.315  29.971  31.628  0.4413 -0.2419  0.2598
18893W        W61987   2.503  31.324  31.280  0.0299  0.0019 -0.2030
18894W        W61988   2.069  32.108  31.780  0.1005 -0.5522  0.0459
18895W        W61989  34.581  32.810  31.822  0.2521 -0.0175 -0.0943
18896W        W61990   3.400  32.439  31.786 -0.1658 -0.0687  0.2110
18897W        W61991   3.003  29.366  31.463 -0.2019 -0.0025  0.2400
18898W        W61992   1.949  28.805  31.619 -0.1025 -0.1068 -0.1131
18899W        W61993   1.643  31.172  30.623 -0.2077  0.2326 -0.2119
18900W        W61994   2.198  30.904   1.243  0.1299  0.1649 -0.2614
18901W        W61995   3.089  30.807   0.103  0.0279 -0.0551 -0.1629
18902W        W61996   3.269  30.976  31.141 -0.2541  0.0303 -0.0703
18903W        W61997   1.814  31.496  30.265  0.2364 -0.4466  0.2067
18904W        W61998   1.994  32.816  31.532  0.0631  0.4257 -0.1560
18905W        W61999   1.220  31.773  31.078  0.1784  0.2188  0.0505
18906W        W62000  34.324  31.772   0.006  0.0030  0.1157 -0.4830
18907W        W62001   1.799  32.973  31.095  0.2190 -0.0363 -0.2582
18908W        W62002   0.162  32.991  30.915  0.0039 -0.1621 -0.3039
18909W        W62003   0.160  30.496  31.445 -0.3361 -0.0641  0.2567
18910W        W62004   4.271  33.616   0.147  0.1593  0.1789  0.1590
18911W        W62005   3.585  30.572  31.387 -0.0742 -0.3712 -0.0312
18912W        W62006   4.026  31.011   1.884  0.2074 -0.0003 -0.1870
18913W        W62007   0.109   0.308  16.269  0.2223  0.0188  0.0444
18914W        W62008   3.735  32.530  15.672  0.1995  0.0967  0.0940
18915W        W62009   3.488  34.602  17.302 -0.0602 -0.1777  0.1654
18916W        W62010   0.088  33.569  17.055 -0.1043 -0.1310 -0.0234
18917W        W62011   1.246  31.408  18.397  0.0460 -0.0805 -0.2347
18918W        W62012   2.548   0.364  16.040  0.3382  0.1056  0.1102
18919W        W62013   0.819  34.157  19.832 -0.0061  0.0370  0.0834
18920W        W62014   0.119  33.232  16.525  0.0590 -0.0696  0.0584
18921W        W62015   0.495  32.687  18.369  0.1423  0.1235  0.1001
18922W        W62016   2.642   0.866  18.563 -0.0986 -0.0852 -0.2703
18923W        W62017   1.514   0.283  16.981 -0.1514 -0.0579  0.1933
18924W        W62018   2.614  33.860  19.284  0.1056  0.0156 -0.0485
18925W        W62019   2.765  34.290  17.915  0.2201  0.3623  0.1819
18926W        W62020   1.235  33.877  18.938 -0.2419  0.4300  0.1360
18927W        W62021   2.323  33.042  19.413 -0.0631  0.1350  0.1317
18928W        W62022   0.858  34.206  15.899 -0.2735 -0.0140 -0.0721
18929W        W62023   0.967  34.320  19.059 -0.1140 -0.2055  0.0168
18930W        W62024   2.344  34.469  19.160  0.1009  0.0963 -0.0153
18931W        W62025   2.370  32.695  18.978  0.1935 -0.1243  0.3563
18932W        W62026   3.710   0.775  20.022  0.0693 -0.0350 -0.1520
18933W        W62027   1.970  32.372  19.774 -0.2751  0.1129 -0.1499
18934W        W62028   2.095   0.566  19.122  0.1952  0.3889  0.3089
18935W        W62029   2.617   0.257  17.628  0.2224 -0.1474  0.2316
18936W        W62030   2.085  33.360  20.934 -0.1145  0.2216  0.1069
18937W        W62031   3.185   0.059  16.328  0.1055 -0.0647  0.2231
18938W        W62032   0.159  33.082  16.038 -0.2293  0.0310 -0.3118
18939W        W62033   3.256   0.822  16.542 -0.2299  0.0777  0.0828
18940W        W62034   2.052  32.276  18.856  0.0140  0.0190 -0.3653
18941W        W62035   2.072  33.762  18.175  0.1209  0.4106  0.2524
18942W        W62036   2.474   0.529  18.186  0.0418 -0.0243  0.1435
18943W        W62037   1.563   0.429  19.297 -0.0743  0.0399 -0.0950
18944W        W62038   0.156   0.146  18.885 -0.4222 -0.3710  0.1577
18945W        W62039   1.578  34.186  16.959  0.1988 -0.3847  0.1014
18946W        W62040   1.070   0.456  19.926 -0.1645  0.0092  0.2656
18947W        W62041   0.702  32.933  19.095 -0.2127  0.3429 -0.0386
18948W        W62042   1.750  33.552  17.875 -0.0791  0.1474 -0.1325
18949W        W62043   2.845  33.038  17.138 -0.2356 -0.0700  0.1313
18950W        W62044   1.868  34.260  18.926 -0.0236  0.1030  0.0654
18951W        W62045   2.102  33.038  17.481 -0.0790  0.0234 -0.0384
18952W        W62046   3.046   0.834  16.029  0.1754 -0.1477 -0.0595
18953W        W62047   2.191  33.781  19.642  0.0296 -0.0860  0.0725
18954W        W62048   0.215  32.281  18.337  0.3237 -0.1627  0.3628
18955W        W62049   3.066   0.261  17.190 -0.1328 -0.0043  0.0966
18956W        W62050   0.991  32.729  18.702  0.1771 -0.1291  0.4736
18957W        W62051   2.261  32.924  18.321 -0.1035 -0.2171 -0.1621
18958W        W62052   2.672  34.663  16.299 -0.0945 -0.2092 -0.0497
18959W        W62053   0.074  32.952  19.363 -0.1221 -0.0562  0.1288
18960W        W62054   0.424   0.013  18.311 -0.2061 -0.0706 -0.6332
18961W        W62055   0.590  34.331  20.240  0.1146 -0.0694  0.1733
18962W        W62056   1.392  32.302  19.652 -0.3341 -0.1124 -0.1459
18963W        W62057   2.907   1.619  18.480 -0.1662  0.0785  0.0708
18964W        W62058   0.010  34.155  17.670 -0.1797 -0.1613 -0.1504
18965W        W62059   3.224  34.023  18.600 -0.0717 -0.1566 -0.0127
18966W        W62060   1.800  34.149  17.953  0.1100 -0.2980 -0.2450
18967W        W62061   3.084  33.198  19.961  0.2288  0.4972  0.4019
18968W        W62062   0.164  32.825  18.022  0.3273  0.0271 -0.1402
18969W        W62063   0.631  33.040  17.288 -0.1027 -0.0229  0.1488
18970W        W62064   1.848   0.931  17.425  0.0310 -0.0389 -0.0073
18971W        W62065   2.359  33.183  18.775 -0.2629 -0.0736 -0.3398
18972W        W62066   3.106  33.202  17.780 -0.0631  0.0787 -0.0090
18973W        W62067   1.048  33.148  16.649 -0.0162 -0.0957 -0.0077
18974W        W62068   0.548  34.046  18.621 -0.2438 -0.2171  0.1088
18975W        W62069   2.360  32.528  19.509 -0.3046  0.2914  0.0886
18976W        W62070  34.373  33.821  22.003 -0.0739 -0.3174  0.0933
18977W        W62071   2.826  34.408  18.473  0.3089 -0.1559 -0.0096
18978W        W62072  34.634  34.124  16.156 -0.0157  0.0018  0.0453
18979W        W62073   1.697  33.184  16.936  0.0722 -0.1103  0.5501
18980W        W62074   2.327  34.562  16.745 -0.1804 -0.1125  0.1579
18981W        W62075   2.169  33.643  16.300 -0.4642 -0.0813 -0.0665
18982W        W62076   2.388  33.430  18.345  0.1257  0.1577 -0.0388
18983W        W62077   2.616  34.221  17.076 -0.3231 -0.0508 -0.0675
18984W        W62078   0.883  33.626  19.761  0.0580  0.3493  0.0072
18985W        W62079   1.836  33.865  16.052 -0.0152  0.2124 -0.1549
18986W        W62080   1.310   0.039  17.753  0.3745 -0.2904  0.1078
18987W        W62081   2.927  32.191  18.900 -0.1559 -0.3839 -0.2918
18988W        W62082   2.588  33.422  17.685  0.1668 -0.0402 -0.3675
18989W        W62083   0.326  33.085  20.640 -0.3637 -0.1162 -0.2521
18990W        W62084   2.516  33.032  20.271 -0.0294 -0.3290 -0.1975
18991W        W62085   4.509   0.039  16.720  0.0441  0.1647 -0.1052
18992W        W62086   2.765   1.202  18.196  0.1283  0.1888 -0.1582
18993W        W62087   0.830  33.605  16.626  0.2674  0.1155 -0.5440
18994W        W62088   1.815  33.486  19.759 -0.0439 -0.0665 -0.0194
18995W        W62089   1.769  33.025  19.578 -0.1055  0.0125 -0.0723
18996W        W62090   1.899  32.629  17.188  0.1450  0.0640 -0.1719
18997W        W62091   1.610  33.070  17.893 -0.0335  0.1237 -0.2411
18998W        W62092   2.780  31.724  19.363  0.2174  0.0837 -0.0454
18999W        W62093   1.727   0.167  17.468 -0.1755 -0.0740 -0.0098
19000W        W62094   1.618  33.931  18.387  0.0296 -0.1602 -0.1321
19001W        W62095   2.277  34.209  16.320  0.0683  0.2280 -0.0471
19002W        W62096  34.486  32.680  19.050 -0.1440 -0.0255 -0.2539
19003W        W62097   0.905  33.363  19.354 -0.0561  0.0577 -0.2578
19004W        W62098   3.077   0.436  17.706  0.0930  0.2031  0.1913
19005W        W62099   1.264  33.910  17.221 -0.2972  0.0624  0.3158
19006W        W62100   0.892   0.813  20.188  0.2327 -0.0227  0.0105
19007W        W62101  34.432  33.247  16.817 -0.0309  0.2548  0.1798
19008W        W62102   2.648  33.953  18.361 -0.1688 -0.1804 -0.2471
19009W        W62103   1.337  33.425  18.597 -0.0809 -0.1407 -0.1581
19010W        W62104   1.625   0.428  17.954  0.1611 -0.4710  0.1090
19011W        W62105   0.698   0.333  20.310  0.1054 -0.0603  0.3588
19012W        W62106   2.145  34.009  19.179  0.3366  0.0172 -0.1198
19013W        W62107   1.464   0.140  18.311 -0.0003 -0.0400  0.2965
19014W        W62108   2.135  34.041  18.598 -0.2858 -0.2700 -0.0520
19015W        W62109   1.831  34.403  18.452 -0.1699  0.0046 -0.0929
19016W        W62110   2.130  33.615  17.541  0.2274  0.2666  0.2175
19017W        W62111   2.641  33.301  19.159 -0.1198  0.0499  0.2203
19018W        W62112   1.053  33.938  18.485  0.2336  0.2042  0.1593
19019W        W62113   1.854  34.679  17.923 -0.2333 -0.3374  0.0857
19020W        W62114   0.903  34.049  20.740 -0.1826 -0.1556 -0.0685
19021W        W62115   4.210  32.773  18.933  0.0799 -0.0607 -0.1984
19022W        W62116   4.204   0.459  16.688 -0.2930  0.2764 -0.2426
19023W        W62117   2.180  33.215  17.926  0.2433  0.0763  0.1359
19024W        W62118   0.849  32.429  18.008  0.2044 -0.1868 -0.0436
19025W        W62119  33.857   0.209  20.862 -0.0501  0.1709  0.0445
19026W        W62120   1.615   0.377  20.176 -0.1594  0.1166  0.1648
19027W        W62121   2.176   1.046  17.056 -0.2512  0.0971  0.1352
19028W        W62122   1.096  33.237  16.157  0.0873 -0.0841 -0.0555
19029W        W62123   1.884   0.861  18.336  0.0464 -0.2426 -0.1532
19030W        W62124   2.501  32.176  19.161 -0.1985  0.3271 -0.0354
19031W        W62125   1.271  34.327  19.695  0.0223  0.3559  0.0970
19032W        W62126   4.281  34.567  17.719 -0.3267 -0.3059  0.0034
19033W        W62127   0.028  33.781  19.211  0.1894 -0.0578  0.0310
19034W        W62128   2.719  32.671  18.480  0.1267 -0.2680 -0.0779
19035W        W62129   2.845  33.270  18.638  0.2545 -0.0203  0.2006
19036W        W62130   2.890  33.734  18.876  0.0983 -0.0254  0.1146
19037W        W62131   1.786  34.642  19.355 -0.2143 -0.5537  0.2459
19038W        W62132   1.056  33.090  19.853  0.1551  0.1792  0.1630
19039W        W62133   2.746  34.203  16.090  0.0618 -0.1076  0.1582
19040W        W62134   2.861   0.724  19.007  0.2179  0.3309 -0.2906
19041W        W62135   2.942   1.485  17.390 -0.2443 -0.0334  0.1392
19042W        W62136   1.865  33.177  18.349  0.1239 -0.0471 -0.0494
19043W        W62137   0.026  34.291  18.543  0.0289 -0.0502 -0.1539
19044W        W62138   4.547   0.037  18.763 -0.1371 -0.2346  0.2118
19045W        W62139   1.066  34.197  16.654  0.0385 -0.1471 -0.1803
19046W        W62140   3.921  32.426  19.338 -0.1595  0.2075 -0.1065
19047W        W62141   2.271  34.263  18.203  0.0778  0.2162  0.1149
19048W        W62142  34.300  34.134  20.191 -0.0346 -0.1123 -0.1034
19049W        W62143   1.699   1.280  17.079 -0.1224 -0.2298 -0.2339
19050W        W62144   1.897  34.291  16.643 -0.0249 -0.7042  0.0635
19051W        W62145   1.322  32.840  17.122  0.2139  0.1149  0.1193
19052W        W62146   3.204  33.196  20.507  0.2347 -0.2307 -0.2723
19053W        W62147   3.161  32.253  17.255 -0.1300  0.0915  0.0848
19054W        W62148   2.583  32.619  20.605 -0.2164 -0.1268  0.2525
19055W        W62149   4.751  34.342  16.598  0.0264 -0.3320 -0.2602
19056W        W62150   3.577  34.184  19.062 -0.1080  0.1916 -0.0597
19057W        W62151   3.770   0.196  19.010 -0.0361  0.1667 -0.0043
19058W        W62152   0.971   0.313  18.278 -0.0830 -0.0981  0.0695
19059W        W62153  33.992  33.762  18.600  0.2254 -0.0313  0.1379
19060W        W62154   0.422  34.414  17.695  0.0498 -0.1306  0.2116
19061W        W62155   1.293  33.581  17.613 -0.3049  0.0488  0.0581
19062W        W62156   2.068  33.104  16.283  0.0017 -0.2493 -0.0028
19063W        W62157   3.641   0.329  17.004 -0.1130 -0.0268 -0.0278
19064W        W62158   2.568   0.288  17.064 -0.3177  0.0191 -0.0533
19065W        W62159   2.499   0.289  18.976  0.0611  0.0790 -0.0069
19066W        W62160   0.672  32.700  16.850 -0.0985  0.1770 -0.1115
19067W        W62161   0.451   1.778  19.597 -0.2352 -0.2264 -0.1089
19068W        W62162   2.915  32.533  19.351  0.2687 -0.3254 -0.2313
19069W        W62163   0.318  34.204  18.122  0.0536 -0.0677  0.0401
19070W        W62164   3.269   0.342  16.708  0.1023  0.1037 -0.2872
19071W        W62165   4.867  32.130  18.376  0.1387 -0.0454  0.0516
19072W        W62166   4.294   0.425  18.671  0.0880 -0.0234 -0.0737
19073W        W62167  34.152  33.393  16.360  0.1192 -0.2488  0.0568
19074W        W62168   3.501   0.431  16.180  0.1894  0.2561 -0.0814
19075W        W62169   1.267  34.490  17.227 -0.1131 -0.0201 -0.0520
19076W        W62170   1.957  33.875  20.107 -0.1367 -0.2252  0.2077
19077W        W62171   0.243   1.593  19.193  0.1704 -0.0752  0.3414
19078W        W62172   3.911  33.761  17.422 -0.3135  0.0314 -0.0868
19079W        W62173   0.804  33.541  18.315  0.2187 -0.2800  0.1800
19080W        W62174   2.878   0.050  16.748 -0.1474 -0.0937  0.3863
19081W        W62175   3.384  33.898  17.477  0.0479  0.0036 -0.2160
19082W        W62176   2.400   0.360  16.593 -0.1110  0.0287  0.0614
19083W        W62177   0.803  34.035  18.067  0.0588  0.0321 -0.3173
19084W        W62178   2.404  32.688  17.221  0.0719 -0.1430 -0.1041
19085W        W62179   2.190   1.019  17.819  0.4806  0.1861  0.0759
19086W        W62180   1.762  34.229  19.695 -0.0419 -0.3274  0.0023
19087W        W62181  34.397  34.533  17.062 -0.0465 -0.0633  0.2659
19088W        W62182   2.901  33.875  17.608  0.0142  0.0348 -0.0291
19089W        W62183   4.665   0.602  16.897  0.1145 -0.3629  0.1249
19090W        W62184   0.301  33.686  18.358 -0.0733  0.0248  0.2557
19091W        W62185   1.280  33.805  18.039 -0.0203  0.1905  0.0294
19092W        W62186   1.367  34.345  18.717 -0.1392 -0.1190 -0.1078
19093W        W62187   3.531  32.856  19.047  0.1909  0.1606 -0.1404
19094W        W62188   2.182  32.369  20.250  0.2009 -0.4137 -0.0284
19095W        W62189   3.172  32.547  21.228 -0.0751 -0.2871  0.1388
19096W        W62190   2.304  34.603  17.813 -0.1799  0.0296  0.0597
19097W        W62191   1.658   0.591  18.775 -0.0247  0.1575  0.0062
19098W        W62192   3.833  33.383  16.934 -0.0259  0.3742 -0.1875
19099W        W62193   0.933  32.691  16.363 -0.1338  0.1224  0.2340
19100W        W62194   1.867   2.939  20.086  0.0842  0.0859  0.2762
19101W        W62195   1.055   0.755  17.205 -0.1138  0.0909 -0.3720
19102W        W62196   1.979  31.884  20.218  0.2793 -0.1400  0.1579
19103W        W62197   2.432  33.674  18.793  0.0683  0.0396  0.1299
19104W        W62198  34.342   0.804  18.209  0.0636 -0.0944  0.0026
19105W        W62199  34.677  32.513  17.571  0.0583 -0.0806  0.0251
19106W        W62200   1.269  33.301  18.131 -0.3992  0.1392  0.0865
19107W        W62201   0.985  31.979  17.716 -0.2902 -0.1720  0.2993
19108W        W62202   2.275  34.657  17.325 -0.1209 -0.1165  0.0721
19109W        W62203   1.208  33.470  20.608  0.2114 -0.0732  0.0653
19110W        W62204   1.755  33.270  19.039 -0.0145 -0.1709 -0.1281
19111W        W62205   0.566  33.195  16.792  0.1373  0.1405  0.2633
19112W        W62206   2.630  34.147  18.825  0.0828 -0.0954  0.0209
19113W        W62207  33.994  32.750  18.904  0.1284  0.1214 -0.1106
19114W        W62208   4.044  32.484  17.227  0.1511  0.2642 -0.1678
19115W        W62209   3.377  34.385  18.171  0.0212  0.1667  0.0970
19116W        W62210   1.738  32.560  20.342  0.4097  0.2522  0.1376
19117W        W62211   1.129  32.918  17.665 -0.0644  0.0417  0.1665
19118W        W62212   2.861  32.856  18.977 -0.1433  0.1354 -0.0154
19119W        W62213   0.450  34.415  18.952 -0.0850  0.1008 -0.2139
19120W        W62214   1.930  33.615  18.682  0.1481  0.3836  0.1111
19121W        W62215   1.986   0.417  19.593  0.0239  0.2116  0.2193
19122W        W62216   0.812  33.930  17.533 -0.1562  0.0145 -0.0175
19123W        W62217   2.832   1.299  15.838  0.0360 -0.2305  0.0413
19124W        W62218   1.499  31.920  18.615  0.0395  0.4563 -0.0967
19125W        W62219   0.546  34.401  16.859 -0.1841  0.1102  0.1495
19126W        W62220   2.949   0.765  17.370  0.0986 -0.4502  0.2140
19127W        W62221   3.129   0.914  18.561  0.1072  0.2894 -0.0619
19128W        W62222  34.303  34.664  18.773  0.1208  0.1644  0.1045
19129W        W62223   1.243  33.382  17.072 -0.0594  0.0731 -0.0390
19130W        W62224   1.430  32.786  20.017  0.1880 -0.2860 -0.2839
19131W        W62225   2.354   0.130  19.503 -0.2784 -0.4079 -0.0428
19132W        W62226   5.438  34.265  20.140 -0.0021  0.2140 -0.2698
19133W        W62227  34.437  33.608  21.070  0.0457 -0.0725 -0.2914
19134W        W62228   0.949  31.641  23.188  0.0514 -0.0796 -0.0609
19135W        W62229   3.327   0.207  20.377 -0.1891 -0.1302 -0.0829
19136W        W62230   2.281  34.522  24.218 -0.0012  0.1373 -0.0201
19137W        W62231   1.559  31.992  21.516 -0.0990 -0.2738  0.1402
19138W        W62232  33.261  32.188  22.193 -0.1991 -0.0007  0.0809
19139W        W62233   3.970  34.289  21.191  0.0718 -0.0031 -0.1893
19140W        W62234  34.418   0.148  20.639 -0.0567  0.1124 -0.1916
19141W        W62235   1.241  32.565  23.204  0.1612  0.0805 -0.2535
19142W        W62236   0.838  31.504  20.995  0.3103 -0.2293  0.0183
19143W        W62237   1.600  31.310  24.192  0.1710  0.0658  0.0063
19144W        W62238   2.857  31.866  23.552  0.0282 -0.0866  0.0476
19145W        W62239   0.737   0.214  19.067 -0.0837  0.0339  0.4110
19146W        W62240   0.031  34.422  22.746  0.0506  0.0867  0.1427
19147W        W62241   2.607  33.928  22.487  0.1636 -0.2260 -0.0034
19148W        W62242   2.852  32.588  22.214 -0.1909 -0.0618  0.1632
19149W        W62243   1.423  34.585  21.311 -0.1457  0.2079  0.0378
19150W        W62244   2.585  33.519  23.204  0.0704 -0.1492  0.0009
19151W        W62245   2.438  34.488  22.725  0.2336  0.1181 -0.2645
19152W        W62246   2.015  33.338  22.245 -0.0289 -0.0285  0.3966
19153W        W62247   3.849  32.671  22.818 -0.1722 -0.0375  0.1544
19154W        W62248   2.833  34.063  19.821  0.1177  0.2323  0.0938
19155W        W62249   2.375  34.090  20.672 -0.1241  0.1143  0.1084
19156W        W62250   3.620  32.815  19.562 -0.0065 -0.0747  0.0379
19157W        W62251   1.297  32.825  21.334  0.0087  0.2665 -0.0958
19158W        W62252   1.655  32.940  21.731  0.1965 -0.0474  0.0469
19159W        W62253   1.123  34.000  21.346  0.1571  0.0268 -0.2424
19160W        W62254   3.099  32.676  22.598 -0.0004  0.1135 -0.1710
19161W        W62255   0.337  32.811  22.164 -0.0584 -0.2173  0.2662
19162W        W62256  33.620  33.683  20.541 -0.0836 -0.2922 -0.0682
19163W        W62257   1.922  34.504  23.420 -0.2139  0.0478 -0.1097
19164W        W62258   1.197  33.985  23.321  0.0887  0.0273 -0.1767
19165W        W62259  34.616  33.556  21.553  0.1217 -0.0336  0.0863
19166W        W62260   4.443  32.917  19.583  0.0717 -0.0454  0.2773
19167W        W62261   3.320  32.016  22.896  0.0832  0.1339  0.0832
19168W        W62262   3.415  32.949  22.882  0.0558 -0.1913  0.0643
19169W        W62263   3.596   0.659  18.636  0.1609  0.0735 -0.0445
19170W        W62264   0.562  34.490  24.943 -0.0809  0.0873  0.0097
19171W        W62265   0.240  32.334  23.418 -0.0115  0.0003 -0.2933
19172W        W62266   3.695  32.043  20.361 -0.1301  0.1477  0.3395
19173W        W62267   1.629  32.608  22.343  0.1843 -0.0348  0.0415
19174W        W62268   4.011  31.848  21.704  0.3193  0.1284 -0.0417
19175W        W62269   4.385  34.077  20.748  0.0124  0.0440  0.3926
19176W        W62270   0.870   0.470  23.361 -0.1580  0.1687  0.4530
19177W        W62271   0.424  33.694  21.554 -0.2734 -0.0120 -0.0262
19178W        W62272   1.115  33.593  24.725  0.0642  0.2906  0.1917
19179W        W62273   0.082  33.565  23.315  0.3317 -0.1874  0.2798
19180W        W62274   3.403  34.212  22.414  0.0653 -0.1557 -0.2039
19181W        W62275  33.894  33.003  17.855 -0.0239 -0.0930 -0.0909
19182W        W62276   2.619  33.263  21.309  0.2524  0.0817  0.0581
19183W        W62277   1.934  32.900  22.564  0.0055 -0.2322 -0.1100
19184W        W62278   2.723  32.520  23.969  0.2398  0.2546 -0.3791
19185W        W62279  34.304  32.706  23.789 -0.4081  0.1585  0.0896
19186W        W62280   0.793  33.245  22.246 -0.1771 -0.1094 -0.1551
19187W        W62281   1.380  33.376  19.481 -0.1651  0.0024 -0.0540
19188W        W62282   1.843  32.423  24.725 -0.1972 -0.1755  0.0615
19189W        W62283   3.709  33.788  21.045  0.1993  0.1889  0.1464
19190W        W62284   0.593  33.025  19.619 -0.0053 -0.1809  0.3520
19191W        W62285  34.128  33.750  19.833 -0.0762 -0.0666 -0.1652
19192W        W62286   3.465  32.323  22.520 -0.1158  0.2178  0.0554
19193W        W62287   1.267  34.643  24.030 -0.0724 -0.3023 -0.1811
19194W        W62288   2.325  32.968  23.461  0.1402 -0.2631  0.2661
19195W        W62289  34.149  33.662  20.370 -0.0778  0.1500 -0.0781
19196W        W62290   1.028  32.998  20.367 -0.2874 -0.0756 -0.1656
19197W        W62291   4.129  32.784  20.804  0.2667 -0.0529 -0.1783
19198W        W62292   3.170  33.119  21.727 -0.3472  0.0549 -0.0037
19199W        W62293   1.465   0.047  18.977  0.1426  0.3864  0.0839
19200W        W62294   2.221  32.817  19.936 -0.2116  0.1800 -0.3208
19201W        W62295   1.763  34.319  22.613  0.0257  0.2231  0.3241
19202W        W62296   1.449  34.295  19.197  0.0741 -0.1938  0.1914
19203W        W62297   2.362  33.640  21.471 -0.1489 -0.5666  0.4468
19204W        W62298   2.311  32.559  23.728 -0.0041  0.1297  0.1237
19205W        W62299   2.184  32.817  21.442  0.0368  0.0515  0.2908
19206W        W62300   3.506  30.659  23.465  0.1311 -0.0894 -0.1207
19207W        W62301   3.148  33.489  23.095 -0.0248  0.3728 -0.1802
19208W        W62302   2.881  34.118  20.620 -0.0043 -0.1025  0.0754
19209W        W62303   2.848  33.361  22.687 -0.1961  0.3316 -0.2061
19210W        W62304   1.035  33.752  20.256  0.1197 -0.1239 -0.3049
19211W        W62305   2.185  33.091  23.929 -0.1522 -0.1189 -0.0291
19212W        W62306   1.841  32.318  23.339  0.1289 -0.0039 -0.0161
19213W        W62307  34.239  34.320  20.673  0.1821 -0.2733  0.0266
19214W        W62308  34.189  34.151  22.540 -0.1736 -0.0375  0.2315
19215W        W62309   2.947  32.213  22.583 -0.0886 -0.0269 -0.2878
19216W        W62310   0.083  34.129  20.242 -0.5387 -0.1619  0.0019
19217W        W62311   1.060  34.436  20.992 -0.0599  0.2189 -0.1298
19218W        W62312   2.083  32.869  22.100 -0.1275  0.4396  0.1201
19219W        W62313   0.954  32.845  23.490 -0.0374 -0.1801  0.0260
19220W        W62314   1.082  33.379  23.015  0.4352 -0.0756 -0.0950
19221W        W62315   1.889   0.423  23.148  0.0931 -0.2296 -0.2104
19222W        W62316   4.453  31.487  20.150  0.1026 -0.0695  0.2773
19223W        W62317   0.274  34.443  23.744  0.1839 -0.0126 -0.0948
19224W        W62318   0.649  33.318  21.038 -0.1675  0.1535  0.1981
19225W        W62319   3.984  34.686  23.607 -0.1895  0.2333 -0.0037
19226W        W62320   1.716  33.465  21.849  0.0917  0.1888  0.2502
19227W        W62321  34.021   0.574  19.056  0.0889 -0.4607  0.1449
19228W        W62322   0.012  33.481  23.991 -0.2168 -0.3176  0.1386
19229W        W62323   2.920  33.532  21.869 -0.0308 -0.1481  0.0551
19230W        W62324   1.072  33.070  20.931 -0.3154  0.0147 -0.2061
19231W        W62325   2.526  33.480  22.285  0.0145  0.1280  0.0156
19232W        W62326   1.473  33.047  23.039  0.2336 -0.3079  0.2134
19233W        W62327   0.588  32.302  22.064 -0.0757 -0.1075 -0.0956
19234W        W62328   3.335  34.426  23.440  0.1501  0.1702  0.1909
19235W        W62329   3.238  32.985  23.396  0.0527  0.0855  0.3772
19236W        W62330   3.949  31.404  20.924  0.1305 -0.0685  0.2360
19237W        W62331   1.298  33.344  21.411 -0.0948 -0.0569  0.1446
19238W        W62332   3.924  32.123  22.852 -0.0174  0.1821  0.0625
19239W        W62333   4.134  33.950  19.673 -0.0548 -0.4867  0.2184
19240W        W62334   2.952  32.985  23.823 -0.0155  0.0683  0.1576
19241W        W62335   1.787  32.448  22.822  0.1343  0.1248 -0.2786
19242W        W62336   0.622  33.197  23.317  0.1931  0.1973  0.4305
19243W        W62337   1.394   0.466  23.960 -0.1930  0.2916  0.2669
19244W        W62338   1.970  34.414  21.042 -0.3005  0.0513 -0.2026
19245W        W62339   0.595  32.500  18.910  0.0338 -0.2805  0.0852
19246W        W62340   2.604   0.036  22.192 -0.1213 -0.1241 -0.0509
19247W        W62341   3.712  33.646  22.777 -0.1238  0.1163 -0.1367
19248W        W62342   0.841   0.261  22.346  0.0202  0.0003 -0.0435
19249W        W62343   3.248  33.949  21.095  0.1750 -0.1260 -0.4377
19250W        W62344   0.640  31.908  23.645  0.0014 -0.0679 -0.1232
19251W        W62345   2.343  32.553  21.852 -0.1499 -0.0575 -0.1916
19252W        W62346   0.372  32.671  23.080  0.2327  0.0957  0.1538
19253W        W62347   3.662  33.022  22.274  0.1829  0.1088  0.2185
19254W        W62348   1.628  33.845  22.795  0.0655 -0.2181 -0.2683
19255W        W62349  34.486  33.037  24.091 -0.3687 -0.1534  0.2114
19256W        W62350   3.902  34.093  20.576  0.0587  0.3570 -0.2087
19257W        W62351   4.412  33.638  23.098  0.0791  0.1606 -0.5941
19258W        W62352   3.547  34.393  20.917 -0.0854  0.4373 -0.4074
19259W        W62353   2.212  34.128  21.480 -0.2438 -0.3132 -0.5177
19260W        W62354  34.406  33.273  22.093 -0.1762 -0.2466 -0.1943
19261W        W62355   3.173  33.529  23.577  0.1834  0.2060 -0.0945
19262W        W62356  34.253  32.538  20.417 -0.0539 -0.2464 -0.1561
19263W        W62357   2.344  32.880  22.888  0.1819 -0.0692 -0.2016
19264W        W62358   2.821  34.461  19.472 -0.1909  0.0087  0.0447
19265W        W62359  34.115  32.790  22.170 -0.1003 -0.2442 -0.0775
19266W        W62360   1.402   0.611  17.508 -0.0579  0.0604  0.2416
19267W        W62361   1.348  34.378  20.602 -0.0963  0.1154 -0.0128
19268W        W62362   3.096  34.261  19.100 -0.0216 -0.0080  0.1516
19269W        W62363   3.872  32.523  23.972  0.2067 -0.1828 -0.0918
19270W        W62364   1.740  32.563  21.404 -0.1250  0.0868  0.2279
19271W        W62365   3.605  32.388  23.091 -0.0530 -0.0439 -0.0914
19272W        W62366   3.185  32.211  21.643 -0.2291 -0.0793 -0.3540
19273W        W62367   3.314  33.961  21.910  0.0675  0.0615 -0.1310
19274W        W62368   4.366  34.399  22.626 -0.2803 -0.1834 -0.0804
19275W        W62369   1.690  33.734  21.360  0.2939 -0.0654 -0.1324
19276W        W62370   1.422  33.404  24.031 -0.2682 -0.0108 -0.0869
19277W        W62371   2.722  32.880  19.726 -0.0320  0.0282  0.0259
19278W        W62372   1.421  33.957  20.942  0.1460 -0.1993 -0.3881
19279W        W62373   3.397  32.157  20.815  0.1438  0.0879  0.0506
19280W        W62374   3.261  33.670  21.506  0.1108  0.0553  0.1895
19281W        W62375   2.682  32.586  21.377 -0.0843 -0.2971  0.0732
19282W        W62376   2.140  33.985  22.554  0.0240  0.0002 -0.0090
19283W        W62377   1.851  34.190  20.583  0.1133  0.0301  0.1230
19284W        W62378   1.759  33.249  23.672 -0.5381  0.1233  0.0755
19285W        W62379   4.418  31.152  23.220  0.2456 -0.2703  0.1910
19286W        W62380   0.033  32.837  20.961 -0.0753  0.1043 -0.0273
19287W        W62381   0.523  34.224  21.457  0.2298  0.0583 -0.2683
19288W        W62382   3.796  30.494  24.018 -0.1559 -0.2455  0.1391
19289W        W62383   3.908  33.919  21.729 -0.0022 -0.0334 -0.3473
19290W        W62384  34.245  33.081  19.185 -0.1565  0.1274  0.1111
19291W        W62385   2.615  32.962  21.842 -0.2732  0.0004 -0.4694
19292W        W62386   0.491  33.737  23.788  0.1475  0.0128 -0.0222
19293W        W62387   3.217  31.303  24.037 -0.0260 -0.3794 -0.3402
19294W        W62388   2.340  34.147  22.126 -0.3429  0.0617 -0.0326
19295W        W62389   1.828  33.097  20.081 -0.0082 -0.3596 -0.3030
19296W        W62390   1.731  33.747  22.301 -0.1541  0.0537  0.1113
19297W        W62391   2.316  33.585  20.414 -0.1120 -0.0479 -0.3306
19298W        W62392   2.918  33.877  23.964 -0.1821 -0.0054  0.0606
19299W        W62393   2.182  33.506  19.219  0.2496 -0.0625 -0.0534
19300W        W62394   0.936  33.591  21.573  0.2181  0.0713 -0.1296
19301W        W62395   2.945  32.873  20.900 -0.2186 -0.1398  0.0176
19302W        W62396   1.567  33.447  20.983  0.4187  0.2331  0.0887
19303W        W62397   1.385  34.379  21.781  0.1375  0.0736  0.0573
19304W        W62398   1.244  33.579  22.570 -0.3226  0.2494  0.2023
19305W        W62399   3.699  32.928  21.665 -0.2016 -0.0240 -0.1679
19306W        W62400   1.948  33.932  21.005 -0.1004 -0.1749  0.0621
19307W        W62401  33.457  34.093  22.947 -0.0622  0.0391  0.0761
19308W        W62402   3.086  34.549  20.843 -0.1329  0.0207  0.4480
19309W        W62403   1.408  33.884  21.764 -0.0408  0.0242  0.2549
19310W        W62404   3.676  33.850  22.268 -0.0495 -0.0700  0.1444
19311W        W62405   3.879  32.509  22.285  0.3009  0.3656 -0.2878
19312W        W62406   2.558  31.930  24.712 -0.0631  0.1135  0.0902
19313W        W62407   2.960   0.338  20.724  0.0259 -0.0070 -0.2192
19314W        W62408   1.852  33.199  21.330  0.2884 -0.1420  0.0788
19315W        W62409   4.338  32.784  20.181  0.1168 -0.1113 -0.1116
19316W        W62410   2.073  32.119  21.554  0.2614  0.0914  0.1066
19317W        W62411   1.420   0.271  23.403  0.2852 -0.0053  0.0333
19318W        W62412   0.392  34.067  20.616 -0.0028  0.0807  0.1773
19319W        W62413   1.866  32.748  23.970 -0.0991 -0.0389 -0.0158
19320W        W62414   0.276  34.079  23.331 -0.0464  0.1935  0.0038
19321W        W62415   0.542  34.340  20.966  0.2025  0.1067  0.2776
19322W        W62416   1.054  33.642  21.048  0.0437  0.0923 -0.2223
19323W        W62417   0.825  32.705  22.946  0.1803  0.1046 -0.0976
19324W        W62418  33.751  32.491  22.499 -0.0492  0.0618 -0.1595
19325W        W62419   0.179  33.308  21.198  0.3046  0.3020 -0.1737
19326W        W62420   3.004  33.102  22.245  0.1056 -0.4008 -0.1241
19327W        W62421   1.997  34.080  24.376 -0.1703  0.1498 -0.1552
19328W        W62422  33.863  33.513  19.455 -0.1969 -0.1588 -0.1481
19329W        W62423   2.189  33.734  21.885  0.0940 -0.1948  0.0156
19330W        W62424   0.510  32.337  22.678  0.0788  0.2782  0.0477
19331W        W62425   3.807  33.191  22.710  0.0591  0.0582 -0.0005
19332W        W62426   2.085  33.053  20.494  0.0155 -0.4022 -0.3297
19333W        W62427   0.826  33.339  23.944  0.1596  0.1255  0.0734
19334W        W62428   1.117  33.631  22.118  0.0819 -0.0534  0.0327
19335W        W62429   3.008  33.395  21.013 -0.0422  0.4277  0.1437
19336W        W62430   0.460  33.558  22.924  0.0844 -0.0977 -0.3046
19337W        W62431   2.566  33.288  20.759 -0.3923  0.3564  0.2429
19338W        W62432   1.953   2.735  22.788 -0.0316  0.2569  0.0386
19339W        W62433   1.198   0.450  22.039  0.0690  0.1040  0.4335
19340W        W62434   3.056  34.608  19.898  0.1934  0.0551  0.0963
19341W        W62435   0.321  33.271  23.704  0.1811 -0.2045 -0.0937
19342W        W62436   0.952  34.446  22.075  0.1248 -0.2458  0.1894
19343W        W62437   2.472  32.881  21.048  0.0818 -0.2374  0.1978
19344W        W62438   2.680  33.929  21.730  0.0839  0.1406  0.0999
19345W        W62439   1.569  33.116  22.266  0.0096  0.3306  0.2378
19346W        W62440   2.202  33.232  21.745  0.1469  0.0977 -0.4263
19347W        W62441   0.635  32.436  24.947  0.0625 -0.1028  0.2471
19348W        W62442   1.927  32.284  23.823  0.0771 -0.0158  0.0295
19349W        W62443   3.610  32.697  25.233  0.2178 -0.1225 -0.0479
19350W        W62444   0.552  33.009  24.911  0.1460 -0.1150 -0.0090
19351W        W62445   0.569  31.502  26.537 -0.2846  0.0397  0.0004
19352W        W62446   3.308   0.666  23.709  0.3800 -0.2614 -0.1989
19353W        W62447   2.325  32.748  27.663 -0.0731  0.0115 -0.0721
19354W        W62448   3.090  34.379  23.970  0.3492 -0.2496  0.1172
19355W        W62449  34.230  33.322  26.466 -0.0335  0.0908  0.2932
19356W        W62450   4.774   0.346  25.928 -0.3764  0.2262  0.1809
19357W        W62451  33.865   1.406  24.234  0.1653  0.2316 -0.0519
19358W        W62452   1.243  33.781  25.323  0.0442 -0.0026 -0.1028
19359W        W62453   2.867  34.400  24.391  0.0492 -0.1340 -0.2659
19360W        W62454   1.527  32.726  26.957 -0.0260  0.2781 -0.1498
19361W        W62455   1.910  32.290  26.861  0.3276 -0.0956  0.2550
19362W        W62456   0.857  32.858  23.962 -0.1822  0.0720 -0.1999
19363W        W62457   1.293  33.207  25.169  0.1570 -0.1716 -0.0457
19364W        W62458   2.165  34.326  25.635 -0.3662 -0.2328 -0.2008
19365W        W62459   3.097  33.921  25.390 -0.1651  0.1116  0.1444
19366W        W62460   3.176  33.436  25.254  0.0750  0.1181  0.1527
19367W        W62461   2.633  33.720  27.181  0.3082  0.1571 -0.0153
19368W        W62462   0.835   0.232  24.945 -0.1501  0.1303 -0.1044
19369W        W62463   1.793  34.512  25.144  0.1449  0.0096 -0.2928
19370W        W62464   4.096  33.785  26.589  0.0096  0.0068  0.0814
19371W        W62465   3.477  32.900  23.869 -0.0158 -0.0547 -0.0310
19372W        W62466   3.063  34.279  21.630  0.1588  0.3138 -0.1615
19373W        W62467   3.409  33.171  24.481 -0.1604 -0.2775 -0.2436
19374W        W62468   0.746  32.051  25.884  0.0699  0.0088 -0.2935
19375W        W62469   1.305  31.482  26.886 -0.1383 -0.2003 -0.0588
19376W        W62470   2.064   0.590  24.593  0.0903  0.0517  0.2473
19377W        W62471   2.989   0.821  25.826 -0.1763  0.0859  0.0334
19378W        W62472  34.659  34.616  24.376 -0.2524  0.3519 -0.0078
19379W        W62473   1.715  34.491  24.316 -0.1498  0.0131  0.1727
19380W        W62474   0.931   0.349  28.743  0.0108 -0.0703 -0.0367
19381W        W62475   1.697   0.882  28.288  0.1028 -0.1008 -0.0679
19382W        W62476   1.772  33.809  23.927  0.0182  0.2171  0.3100
19383W        W62477   5.374  31.714  25.715 -0.0787  0.3212 -0.1551
19384W        W62478   2.655  31.582  25.717 -0.1966  0.0147 -0.0996
19385W        W62479   3.986  31.551  27.513  0.0392 -0.3416 -0.1242
19386W        W62480   2.550  33.985  22.991 -0.1467  0.2826 -0.2925
19387W        W62481   2.361  33.957  27.626 -0.0597 -0.0300  0.2104
19388W        W62482   0.609  33.403  26.680 -0.1025 -0.0313  0.0251
19389W        W62483   3.346  31.620  23.512  0.1851  0.3249 -0.1130
19390W        W62484   0.796  32.346  27.633  0.1151 -0.0484  0.2163
19391W        W62485   4.670  32.388  25.870 -0.1635  0.0475 -0.2217
19392W        W62486   3.873  34.095  25.723 -0.2026 -0.2078 -0.1095
19393W        W62487   1.607  33.308  26.987 -0.1641  0.0945 -0.2733
19394W        W62488   1.266  32.825  26.543 -0.2843  0.1535 -0.0868
19395W        W62489   1.104  33.602  27.774 -0.1235  0.2949  0.2069
19396W        W62490   0.315  33.189  26.210 -0.0115  0.1744 -0.2291
19397W        W62491   4.042  32.260  26.692 -0.1981 -0.1212  0.0379
19398W        W62492   1.268  32.923  25.636  0.2236  0.0894  0.2010
19399W        W62493   3.255  33.016  24.926 -0.1203  0.0031  0.2844
19400W        W62494   2.454  33.917  24.196  0.1781  0.1816  0.0886
19401W        W62495   3.828  32.518  27.148 -0.3006 -0.2465 -0.0744
19402W        W62496   1.700  34.261  26.702 -0.0772  0.1381 -0.1880
19403W        W62497   1.632  33.460  23.194 -0.3197 -0.0319  0.2105
19404W        W62498   1.706   0.038  23.834  0.0017 -0.1246  0.1210
19405W        W62499   3.660  32.830  26.283  0.0912  0.2808  0.0030
19406W        W62500   3.396  34.018  25.803  0.3114 -0.0349  0.2170
19407W        W62501   0.102  33.572  24.772  0.2809  0.0118  0.2155
19408W        W62502   0.841   0.251  25.887 -0.0404  0.3799  0.1473
19409W        W62503   4.029  32.799  26.615 -0.1495 -0.1744 -0.1241
19410W        W62504   0.319   0.242  28.250  0.0283 -0.1874  0.1483
19411W        W62505   2.061  33.434  24.799 -0.0085 -0.1243  0.2917
19412W        W62506   1.742  33.865  23.428 -0.2781 -0.1652 -0.1058
19413W        W62507   3.374  33.652  24.744  0.0307 -0.0215  0.2349
19414W        W62508   3.640  31.335  23.235  0.0102  0.0950 -0.3159
19415W        W62509   2.076  33.717  23.058 -0.0656 -0.1775 -0.2246
19416W        W62510   2.400  33.124  24.424 -0.2864 -0.1347  0.3955
19417W        W62511   1.987  34.241  23.951  0.1473 -0.2064  0.0496
19418W        W62512   2.164  31.729  25.583  0.1430  0.1654 -0.0876
19419W        W62513   2.395  34.572  23.279  0.1608 -0.0522 -0.1340
19420W        W62514   3.112  32.758  26.442  0.3367  0.0142 -0.1749
19421W        W62515   3.837  34.174  26.358 -0.1876  0.3271 -0.0120
19422W        W62516   2.026  33.333  26.712  0.2277 -0.2129  0.3882
19423W        W62517   3.311  33.566  29.459  0.0554  0.1426  0.0771
19424W        W62518   4.372  33.363  26.418  0.0394 -0.0071 -0.2724
19425W        W62519   3.269  32.565  23.599 -0.0299 -0.0188 -0.5240
19426W        W62520   2.846  33.086  25.259 -0.0634 -0.0758 -0.0749
19427W        W62521   2.390  34.288  24.653 -0.2787 -0.0021 -0.0591
19428W        W62522   3.669  33.679  25.566 -0.0691  0.1898 -0.1776
19429W        W62523   2.564  33.798  26.657  0.0144 -0.0303  0.2069
19430W        W62524   1.978  32.265  25.558 -0.0213 -0.3219  0.1005
19431W        W62525   3.083  33.103  26.046 -0.2994 -0.2782  0.0042
19432W        W62526   3.713  34.623  24.945 -0.2178  0.4108 -0.0522
19433W        W62527   2.507  33.676  23.787 -0.4006  0.2360 -0.2262
19434W        W62528  33.690   0.716  23.509 -0.0183  0.1462 -0.0042
19435W        W62529   3.116  34.440  25.371 -0.1412  0.0637 -0.0383
19436W        W62530   0.461  34.354  25.762  0.0749 -0.0224  0.2778
19437W        W62531   2.316  33.706  25.795  0.2955 -0.2947 -0.0109
19438W        W62532   2.825  33.985  25.908 -0.1914 -0.1036  0.0295
19439W        W62533   2.431  32.464  24.696  0.0994  0.0987  0.0212
19440W        W62534   0.536  33.972  27.319 -0.0044  0.3729 -0.0239
19441W        W62535  33.700   0.130  23.960  0.1729 -0.0963  0.0138
19442W        W62536   4.873  34.455  26.696 -0.0976 -0.0260 -0.1096
19443W        W62537   1.264  34.079  24.770  0.2355 -0.2192  0.2285
19444W        W62538   0.524   1.213  23.746 -0.2166  0.0270  0.1353
19445W        W62539   1.143  33.935  27.336  0.4048 -0.3810  0.0071
19446W        W62540   1.612  33.436  25.550  0.4262 -0.0568  0.3195
19447W        W62541   1.124  32.700  26.063 -0.2497  0.1848 -0.0264
19448W        W62542   0.808  34.071  25.025  0.5126 -0.1938  0.0881
19449W        W62543   2.295  31.850  26.636 -0.0481  0.5449 -0.0390
19450W        W62544   3.650  32.966  26.888 -0.2849 -0.0948 -0.0674
19451W        W62545   1.636  34.441  25.746  0.0645  0.1980 -0.1663
19452W        W62546   3.371   0.514  25.772 -0.0436  0.0248 -0.3222
19453W        W62547   2.829  30.998  23.986  0.1231  0.1147  0.0587
19454W        W62548   1.854  32.824  25.634 -0.1911  0.2994 -0.0117
19455W        W62549   4.468  33.223  27.568 -0.0923  0.2788  0.3346
19456W        W62550   3.887   0.855  23.796  0.0834 -0.3378 -0.0795
19457W        W62551   2.648  32.646  28.159  0.0944  0.1445  0.1312
19458W        W62552   0.797  33.414  26.168  0.0721 -0.0687 -0.0212
19459W        W62553   0.675  33.422  28.053  0.0600 -0.3833  0.0927
19460W        W62554   1.257   1.101  28.393  0.0857 -0.2690  0.1227
19461W        W62555   1.983  31.566  24.412  0.1976 -0.1969  0.0144
19462W        W62556   1.723  34.150  24.794  0.1213 -0.2166  0.1630
19463W        W62557   0.866   1.732  26.924 -0.0423 -0.1702 -0.2238
19464W        W62558   4.205  32.593  25.790 -0.0072 -0.3725  0.1333
19465W        W62559   1.822   0.193  25.987 -0.2252 -0.1962  0.1045
19466W        W62560   3.824   0.358  24.059  0.0981 -0.2507  0.1536
19467W        W62561   0.739  32.937  26.457 -0.1173  0.1414 -0.0834
19468W        W62562   3.541  32.249  24.957 -0.2174  0.0241 -0.0821
19469W        W62563   3.185  34.575  24.838  0.1589 -0.3819 -0.2598
19470W        W62564   3.111  34.461  26.010 -0.3747  0.1618 -0.0646
19471W        W62565   2.662  33.576  26.193 -0.0996  0.0066 -0.2791
19472W        W62566  34.685  34.537  28.176  0.0962  0.0454 -0.0284
19473W        W62567   4.018  33.325  23.575 -0.1802 -0.1916  0.1749
19474W        W62568   3.600  34.291  25.330  0.0946  0.0971 -0.3549
19475W        W62569   2.614  32.768  26.328  0.3034  0.0883  0.2782
19476W        W62570   1.753  33.401  22.696  0.2341  0.0008  0.0059
19477W        W62571   1.863  32.428  26.329 -0.0633  0.1711 -0.0986
19478W        W62572   4.919  34.040  27.127  0.0404  0.0888  0.3003
19479W        W62573   1.257  33.252  23.492  0.3236 -0.1949  0.1781
19480W        W62574   2.472  34.236  26.979  0.2198  0.2130  0.2559
19481W        W62575   3.749  33.913  24.424  0.1240 -0.1448 -0.0302
19482W        W62576   1.686  31.904  25.580 -0.0651  0.0629  0.1966
19483W        W62577  34.274  33.920  24.739 -0.0071 -0.2951 -0.0515
19484W        W62578   2.113   1.040  23.905 -0.1639 -0.3242  0.3610
19485W        W62579   1.618  33.672  24.405  0.0988 -0.0117 -0.0285
19486W        W62580   2.902  33.220  26.518  0.0213 -0.0481  0.2729
19487W        W62581   1.788  32.883  26.586 -0.0607 -0.0304 -0.1145
19488W        W62582   2.774  33.454  25.570 -0.2631  0.1288  0.4113
19489W        W62583   4.194  33.769  25.459 -0.0784 -0.2577  0.1643
19490W        W62584   1.368  34.250  25.285 -0.0126  0.0994 -0.1268
19491W        W62585   4.349  34.134  25.894 -0.1001 -0.0864 -0.0377
19492W        W62586   0.785  33.829  26.533  0.0863  0.1068 -0.1907
19493W        W62587  34.392  34.466  27.757  0.1249  0.0111  0.0194
19494W        W62588   1.644  33.686  25.085  0.5200  0.4167 -0.0813
19495W        W62589   0.881   0.540  25.441  0.1883  0.1625 -0.0374
19496W        W62590   2.115  31.776  23.984  0.2900 -0.1907  0.1067
19497W        W62591   3.857  32.335  26.027 -0.1483  0.1888 -0.1228
19498W        W62592   4.042   0.792  26.312  0.1422  0.1783  0.2293
19499W        W62593   0.869  34.327  26.407 -0.3865  0.2783  0.0893
19500W        W62594   2.186  33.510  23.500 -0.0334  0.0898  0.2140
19501W        W62595   1.479  34.313  28.342 -0.1055  0.2172 -0.1380
19502W        W62596   3.627  32.037  26.927 -0.1964  0.0102  0.0406
19503W        W62597   1.493  34.332  23.585  0.4500 -0.0168  0.1428
19504W        W62598   0.564  34.569  24.315 -0.0412  0.1523 -0.0784
19505W        W62599   2.605  33.100  25.894 -0.0543  0.0589  0.2250
19506W        W62600   2.492  33.705  24.632  0.0246 -0.4242 -0.1575
19507W        W62601   0.658  33.142  24.426  0.1294 -0.0694 -0.0372
19508W        W62602   4.623  33.852  26.196  0.1900  0.1722 -0.1442
19509W        W62603   1.581  33.590  26.020 -0.0498 -0.0179  0.0558
19510W        W62604   4.773  32.818  27.480 -0.1242 -0.0631 -0.1731
19511W        W62605   0.237  34.060  24.729  0.0250  0.0932 -0.1065
19512W        W62606   3.009  32.624  25.927  0.0045 -0.1053  0.0716
19513W        W62607   1.371  34.216  26.302  0.1493  0.1073  0.1566
19514W        W62608   2.234  34.666  23.785  0.2047  0.1065  0.2577
19515W        W62609   3.801   0.198  25.777 -0.3896  0.0369  0.1197
19516W        W62610   2.128  33.505  24.183  0.1520 -0.1769 -0.0305
19517W        W62611   1.362  34.019  25.825 -0.1432  0.0253 -0.0446
19518W        W62612   3.292  34.099  24.882  0.1805  0.2467  0.0051
19519W        W62613   0.793  34.077  24.534  0.4506 -0.1995 -0.1169
19520W        W62614   1.081  33.383  25.626 -0.1966 -0.0982 -0.1221
19521W        W62615   0.755  33.049  25.851 -0.1433  0.3077  0.0533
19522W        W62616   4.601   0.036  26.270 -0.1978 -0.1382 -0.2164
19523W        W62617   4.168  33.661  24.193 -0.0891  0.0336  0.1404
19524W        W62618  33.804  32.967  24.967 -0.4062 -0.1783  0.0246
19525W        W62619   2.385  33.083  24.958 -0.1562 -0.0941  0.2390
19526W        W62620   1.133  34.551  26.732 -0.2002  0.0543 -0.2038
19527W        W62621   4.533  34.659  25.753 -0.0949  0.2902  0.2386
19528W        W62622   3.343  32.405  27.094 -0.1464 -0.1689  0.0118
19529W        W62623   5.642  32.572  26.157  0.4614  0.0101  0.0416
19530W        W62624   1.049  34.536  25.085  0.1921 -0.1491  0.1180
19531W        W62625   1.621  32.876  26.104 -0.3685  0.0757  0.2478
19532W        W62626   3.701  32.779  24.359  0.0845 -0.2208  0.1356
19533W        W62627   3.635  33.369  23.219  0.0730  0.1323 -0.0017
19534W        W62628   1.200  33.966  26.771  0.2656  0.0332  0.4003
19535W        W62629   0.349  34.152  25.295  0.0143  0.1014 -0.3151
19536W        W62630   2.084  32.813  28.448  0.1091 -0.1747 -0.2204
19537W        W62631   1.494  34.492  27.670  0.0427 -0.3511  0.1541
19538W        W62632   0.048  33.861  27.199 -0.0444  0.2240  0.2279
19539W        W62633   0.860  34.245  23.983 -0.0461 -0.0923  0.0243
19540W        W62634   1.639  31.692  27.279  0.0065 -0.2605  0.1776
19541W        W62635   0.640  33.547  24.740  0.1482  0.1580 -0.3036
19542W        W62636   1.758  32.829  23.341  0.1836  0.1127  0.1378
19543W        W62637   1.156  33.701  26.246  0.1761  0.0939 -0.1718
19544W        W62638   1.951  32.946  27.099 -0.1708 -0.0416 -0.0422
19545W        W62639   0.056  32.547  23.896 -0.0668  0.0205  0.0088
19546W        W62640   2.459  33.390  27.675 -0.0308 -0.1160 -0.2865
19547W        W62641   1.445  33.273  26.451 -0.0419 -0.0102  0.2955
19548W        W62642   3.656  32.834  27.520  0.0637 -0.0977 -0.0756
19549W        W62643   2.408   0.232  25.567 -0.1450 -0.2200  0.2521
19550W        W62644   2.295  33.100  28.007 -0.1332  0.1684  0.2774
19551W        W62645  34.159  33.266  25.998  0.1370 -0.2648 -0.0179
19552W        W62646   2.796  33.416  24.141  0.0140 -0.3255 -0.0991
19553W        W62647   2.327  32.358  26.523  0.3983  0.1072  0.0020
19554W        W62648   2.668   0.084  24.047 -0.1883  0.1617 -0.0088
19555W        W62649   2.192  33.693  26.359  0.1799 -0.0257  0.1881
19556W        W62650   0.989   0.270  22.886 -0.0514 -0.2644  0.2141
19557W        W62651   4.092  34.524  25.520  0.2739  0.0859 -0.3059
19558W        W62652   0.532  32.609  25.990 -0.2442 -0.3400 -0.0035
19559W        W62653   1.581   1.180  23.819 -0.1487 -0.2272  0.2680
19560W        W62654   2.855  34.631  23.526  0.1794 -0.2123  0.1852
19561W        W62655   2.855   0.873  24.027 -0.2515 -0.2973 -0.1920
19562W        W62656   1.414  32.147  24.664  0.0057 -0.1984 -0.2124
19563W        W62657   2.901  33.315  24.683 -0.1846 -0.2836  0.0212
19564W        W62658   1.903  34.278  29.450 -0.2105 -0.1724 -0.1669
19565W        W62659   3.002  32.279  26.789 -0.2395 -0.1215 -0.0957
19566W        W62660   3.931   0.423  28.142  0.1676 -0.0345  0.2005
19567W        W62661   0.643  32.940  29.179  0.0497  0.2682  0.1942
19568W        W62662   0.985  32.271  29.995 -0.0728  0.3725 -0.0005
19569W        W62663   2.141   0.390  28.664 -0.2883  0.1991 -0.0010
19570W        W62664   2.348  32.667  31.895 -0.1670 -0.1214 -0.1549
19571W        W62665   2.680  32.013  30.173  0.2759 -0.2928 -0.0493
19572W        W62666   0.305  33.169  29.433 -0.0016 -0.1461 -0.0841
19573W        W62667   2.189   0.227  30.747 -0.2597 -0.0937  0.1632
19574W        W62668  34.334  34.607  29.148 -0.2278  0.0271  0.0904
19575W        W62669   1.145  34.318  30.079  0.1577 -0.0604 -0.0621
19576W        W62670   1.894  33.885  28.361 -0.0453 -0.0316  0.1056
19577W        W62671   1.485  33.468  31.257 -0.3084  0.0652 -0.1254
19578W        W62672   2.125  32.775  30.318  0.1448  0.0219  0.0935
19579W        W62673   0.827   0.209  28.291 -0.3199  0.1356 -0.1800
19580W        W62674   1.661   1.124  28.754  0.2300  0.1906 -0.1721
19581W        W62675   1.752   1.545  30.078  0.1765 -0.0791  0.1612
19582W        W62676   5.030  34.304  27.588 -0.0129  0.1834 -0.0526
19583W        W62677   3.736  34.312  29.758  0.3992 -0.2392 -0.2519
19584W        W62678   3.739   0.588   0.984 -0.0975  0.0825  0.0841
19585W        W62679   1.479  34.193  30.593  0.0404  0.3426 -0.1200
19586W        W62680   2.864  34.671  29.183  0.0857 -0.0628 -0.1938
19587W        W62681   3.879  33.994  31.410 -0.2217  0.0246 -0.0515
19588W        W62682   2.534  33.338  26.875 -0.0463 -0.1560 -0.0284
19589W        W62683   1.909  33.103  27.597  0.2577 -0.3526  0.0548
19590W        W62684   4.235  33.630  28.160 -0.2860 -0.1400 -0.1885
19591W        W62685   2.318  33.422  29.721 -0.1156  0.0776 -0.2200
19592W        W62686   2.832  33.923  29.191  0.0963 -0.2573 -0.3276
19593W        W62687   2.979  33.964  27.600  0.0521 -0.4691 -0.1628
19594W        W62688   3.268  34.066  30.822  0.1345 -0.3652  0.2986
19595W        W62689   1.714   0.342  29.017  0.1069 -0.0357  0.1742
19596W        W62690   0.730  33.895  27.774 -0.0270  0.0964  0.4576
19597W        W62691  33.458   0.182  30.668  0.0242 -0.0887  0.2187
19598W        W62692   0.107  33.959  31.702 -0.1498 -0.1051 -0.3260
19599W        W62693   1.897  33.272  28.234 -0.1835  0.0907 -0.2870
19600W        W62694   3.764  34.305  29.061 -0.1732  0.3352  0.0856
19601W        W62695   3.100  33.120  29.351  0.1499  0.0340  0.0634
19602W        W62696   3.540  33.549  30.692 -0.2471  0.0033 -0.0601
19603W        W62697   3.987   0.459  26.753  0.1629  0.3033 -0.0964
19604W        W62698   1.848  34.503  30.665  0.3186  0.0140  0.0066
19605W        W62699   0.558  34.504  30.169 -0.1410  0.4222  0.2339
19606W        W62700   3.427  34.321  28.602  0.0552 -0.2629 -0.2739
19607W        W62701   1.173  32.362  31.727 -0.2618 -0.0795  0.1166
19608W        W62702   3.654  31.856  28.886 -0.0867  0.0278  0.1317
19609W        W62703   4.540  34.540  27.188 -0.1310  0.0838 -0.0455
19610W        W62704   1.623   0.881   0.486 -0.1415 -0.3350  0.0668
19611W        W62705   0.875  34.034  29.239  0.2513  0.1558  0.2555
19612W        W62706   0.613  33.227  30.563  0.0595 -0.1364 -0.2578
19613W        W62707   0.592  33.686  29.453 -0.0382  0.2230 -0.0165
19614W        W62708   3.935  33.860  28.974 -0.2266  0.0633 -0.0434
19615W        W62709   0.860  33.909  28.259  0.0594 -0.2695 -0.2364
19616W        W62710   1.604   0.812  29.391  0.2063  0.0521  0.0332
19617W        W62711   1.232   1.124  29.145 -0.0968 -0.2088 -0.3205
19618W        W62712   4.289  34.217  31.647  0.0068 -0.5805 -0.1187
19619W        W62713   0.890   0.208   0.343 -0.0158  0.0348 -0.0988
19620W        W62714   2.049  34.471  28.460  0.0131  0.3162  0.0152
19621W        W62715   2.605  33.411  28.770 -0.2874  0.0727 -0.1119
19622W        W62716   3.472  32.811  30.110  0.0801 -0.1336  0.4371
19623W        W62717   1.926   0.435  30.023 -0.0490 -0.3851 -0.0416
19624W        W62718   1.428  33.845  28.086  0.3542 -0.0526 -0.0790
19625W        W62719   0.138  34.018  29.480 -0.1531 -0.4768 -0.1398
19626W        W62720   2.734  33.053  30.964 -0.0591  0.0006  0.3318
19627W        W62721  33.905   0.548   1.210  0.1062 -0.0571  0.1885
19628W        W62722   2.481   0.243  31.724 -0.0016 -0.1613  0.1564
19629W        W62723   1.321   0.748  28.007 -0.1064  0.2760  0.0353
19630W        W62724   3.029  33.064  30.120  0.0350 -0.3394  0.2630
19631W        W62725   3.389  33.288  28.344  0.0366 -0.3221  0.0724
19632W        W62726   3.642  33.829  27.518  0.3703  0.1018 -0.1439
19633W        W62727   2.184  33.390  27.249  0.1389  0.1817 -0.3763
19634W        W62728   2.158  34.119  26.553  0.0897 -0.1817 -0.1104
19635W        W62729   1.867  33.888  30.462  0.0155 -0.3199  0.0188
19636W        W62730   1.792  34.687  28.065 -0.0100 -0.0588 -0.0756
19637W        W62731   3.588  32.546  30.520 -0.1299  0.1704  0.4215
19638W        W62732   4.235  33.677  30.707 -0.0051  0.0484 -0.2678
19639W        W62733   2.234  34.096  30.739 -0.0842 -0.2105 -0.1244
19640W        W62734   0.654   0.209  31.511 -0.1477 -0.1031  0.0553
19641W        W62735   3.775  34.672  30.900 -0.0349  0.0856 -0.1001
19642W        W62736   3.757   0.913  27.993 -0.0873 -0.1418  0.0901
19643W        W62737   1.947  34.585  30.189  0.0273  0.0816 -0.3532
19644W        W62738   0.543  33.970  28.680  0.2524 -0.1109 -0.1891
19645W        W62739   2.068  34.684  31.620 -0.3172  0.1414 -0.3433
19646W        W62740   3.055  33.872   0.209  0.2221  0.1904 -0.0072
19647W        W62741   2.454  34.131  28.832  0.0545  0.1283 -0.0436
19648W        W62742   2.619  33.619  30.112  0.1837 -0.1481 -0.2572
19649W        W62743   3.287  33.520  30.130  0.3224  0.0361 -0.2048
19650W        W62744   1.642   1.288  29.592 -0.1822  0.0937 -0.0722
19651W        W62745  34.552   0.988  28.462  0.0323  0.1430 -0.0771
19652W        W62746   4.104  34.107  27.727 -0.0475 -0.0031 -0.1546
19653W        W62747   1.262  33.540  29.360  0.1143  0.0873 -0.2217
19654W        W62748   3.719  33.507  27.982  0.0450 -0.4362  0.0962
19655W        W62749   1.898   0.561  31.023 -0.0369 -0.2107 -0.1880
19656W        W62750   2.395  33.472  28.329  0.3588 -0.1583  0.0404
19657W        W62751   2.263   1.109  31.849  0.0565 -0.1518 -0.2918
19658W        W62752   1.173  34.110  28.739 -0.2988 -0.1306  0.0071
19659W        W62753   3.941  33.527  31.074  0.0089 -0.1657  0.3599
19660W        W62754   1.712  33.577  29.117 -0.0000  0.2021 -0.1378
19661W        W62755   1.791  34.076  27.603  0.0225 -0.1262 -0.1080
19662W        W62756  33.723   0.048  31.532  0.1722  0.1449 -0.0755
19663W        W62757   3.254  34.460  29.959  0.2731 -0.2555  0.2858
19664W        W62758   1.646  34.202  30.140 -0.2352 -0.0308  0.2394
19665W        W62759   3.325  34.127  29.456  0.0780  0.1733 -0.1049
19666W        W62760   2.686  34.534  30.568  0.1470 -0.1104 -0.3624
19667W        W62761   3.581  33.014  29.312  0.0844 -0.0815  0.0685
19668W        W62762   3.379   0.826  30.429  0.2752  0.0737  0.1291
19669W        W62763   1.806  34.028  30.973  0.0383 -0.0985 -0.3630
19670W        W62764   3.166  32.819  27.244  0.1126 -0.0354  0.1394
19671W        W62765   1.733   0.087  28.574 -0.1079 -0.2149  0.1508
19672W        W62766   4.204  33.076  31.585  0.0234  0.3540 -0.0605
19673W        W62767   3.226  33.051  27.650 -0.0747  0.1246 -0.3456
19674W        W62768   2.313  33.614  30.796  0.0438 -0.4062  0.4433
19675W        W62769   0.979  32.810  31.497 -0.2142 -0.2975 -0.0251
19676W        W62770  34.592  33.941  29.926 -0.1537 -0.2351 -0.0013
19677W        W62771   1.638   1.693  31.856  0.0673 -0.2004 -0.1510
19678W        W62772   3.809  34.007  28.117  0.2413  0.0765  0.3234
19679W        W62773   1.117  33.250  28.285 -0.1993 -0.2608 -0.2643
19680W        W62774   2.966   0.845  29.167 -0.0748 -0.3891  0.3273
19681W        W62775   4.387  33.686  29.103  0.0282 -0.3339 -0.4241
19682W        W62776   1.531   0.091  30.419 -0.2307  0.2065 -0.1063
19683W        W62777   3.383  34.587  29.235 -0.1306 -0.2689 -0.4580
19684W        W62778  34.680  34.406  31.490  0.3898  0.0205  0.3209
19685W        W62779   3.579  33.697  28.529  0.1922  0.0117 -0.0668
19686W        W62780   4.089   0.164   1.073  0.0192 -0.0226 -0.2386
19687W        W62781   2.486  33.186   0.001 -0.0664  0.3166  0.1727
19688W        W62782   2.175  33.960  31.798 -0.0289  0.2443 -0.1426
19689W        W62783  33.986  33.803   0.012 -0.2357 -0.2149  0.3993
19690W        W62784   3.545  33.746  26.210  0.0972 -0.2564 -0.0228
19691W        W62785   4.360  33.300  31.101  0.1707  0.2194  0.1083
19692W        W62786   3.064   0.666  28.625  0.3765 -0.3907 -0.1189
19693W        W62787   2.148  34.191  28.042  0.1370 -0.1037  0.0413
19694W        W62788   2.226  34.182  30.207 -0.1216  0.1499  0.0128
19695W        W62789   3.306   0.134  31.145 -0.0214 -0.1685 -0.2466
19696W        W62790   3.102  33.677  27.129 -0.0294 -0.0516  0.4181
19697W        W62791   2.599  33.668  31.211 -0.2799  0.2274 -0.0016
19698W        W62792   3.593  33.416  26.997  0.1477 -0.0538 -0.0949
19699W        W62793   1.768  33.381  29.623 -0.0614  0.0761 -0.0695
19700W        W62794   1.415  33.989  29.139  0.1752  0.1373  0.0341
19701W        W62795   3.377  34.133  27.224 -0.1851  0.2929  0.1040
19702W        W62796   2.567  32.302  27.808  0.2765 -0.1203  0.3231
19703W        W62797   5.027  33.713   0.681 -0.1668  0.0619  0.1173
19704W        W62798   3.454  32.649  31.194 -0.2469  0.0619  0.0227
19705W        W62799   2.885  33.889  30.496 -0.0510 -0.2314 -0.0462
19706W        W62800   3.024  34.298  28.911 -0.0096 -0.1664 -0.1667
19707W        W62801   2.554   1.131  29.568  0.2828 -0.0779  0.1449
19708W        W62802   2.674   0.374  30.578  0.0739  0.0675  0.3240
19709W        W62803   2.042  33.938  29.841  0.1100 -0.1745  0.0140
19710W        W62804   0.887  33.359  29.145 -0.0293  0.2315  0.0811
19711W        W62805   1.924  33.233  28.777  0.1941 -0.0750 -0.0134
19712W        W62806   3.954  34.648  27.770 -0.3151  0.1433 -0.0890
19713W        W62807   2.804  32.798  27.683  0.2002  0.1512  0.1221
19714W        W62808   4.197   0.227  29.673  0.1688  0.1379  0.1273
19715W        W62809   4.341   0.132  28.042  0.0461  0.1530 -0.0455
19716W        W62810   2.512   0.930  28.831 -0.0362  0.2420 -0.1249
19717W        W62811   2.718  33.830  27.976  0.3338  0.0510  0.1260
19718W        W62812  34.555   0.152   0.024  0.2703 -0.0942  0.0992
19719W        W62813   3.536  33.875   0.083 -0.0387  0.1701  0.2759
19720W        W62814   0.732  32.758  28.456  0.0461 -0.1058  0.3178
19721W        W62815   2.060  34.655  29.071  0.2581 -0.1054 -0.2797
19722W        W62816   4.184  31.829  30.704 -0.0227  0.2389  0.0141
19723W        W62817   2.418  33.938  28.399 -0.0027 -0.0278  0.0022
19724W        W62818   1.091  34.588  29.103  0.0464 -0.1118 -0.1228
19725W        W62819   4.572   0.517  29.448 -0.2295  0.0628  0.0534
19726W        W62820   2.223  33.286  31.183 -0.2006  0.1266  0.0833
19727W        W62821   4.088  32.908  31.112 -0.0811 -0.1206  0.2126
19728W        W62822   1.423   0.416  28.304  0.0110  0.0256  0.2002
19729W        W62823   2.703   0.448  28.944 -0.0708  0.1657 -0.0684
19730W        W62824   0.453  34.630  29.499 -0.2897 -0.1772  0.1655
19731W        W62825   4.112  34.255  26.881 -0.1715 -0.0793 -0.3768
19732W        W62826   4.050  34.016  30.056  0.2594 -0.0571  0.1566
19733W        W62827   3.405  33.305  26.523  0.0240 -0.0248  0.1454
19734W        W62828   1.675  33.103  29.198 -0.1892  0.0131  0.4480
19735W        W62829   3.297  33.863  28.154 -0.0571  0.0204 -0.0405
19736W        W62830   2.399  34.246  29.295 -0.0392 -0.0703 -0.1454
19737W        W62831   2.307  34.456  29.775  0.0750  0.1043  0.4211
19738W        W62832   1.101  32.436  28.621  0.0971  0.3978  0.3104
19739W        W62833   3.366  33.169  29.781  0.2615  0.1159  0.0943
19740W        W62834   4.703  34.353  30.083 -0.1396 -0.0189 -0.2308
19741W        W62835   0.617  34.164  29.623 -0.0825  0.1975 -0.2226
19742W        W62836   2.951  33.905  29.895 -0.2472  0.0795 -0.3264
19743W        W62837   2.532  33.937  29.705 -0.2246 -0.6266 -0.4335
19744W        W62838   2.691  34.412  28.361 -0.1670  0.1274  0.0749
19745W        W62839   3.577  33.842  29.843 -0.1100  0.1733 -0.1681
19746W        W62840   3.978  34.449   0.309 -0.3037 -0.0019  0.1621
19747W        W62841   3.674   0.028  28.823  0.0716  0.1211  0.1247
19748W        W62842   1.920  34.135  28.924 -0.0406 -0.1660 -0.0124
19749W        W62843   3.680  33.370  28.900 -0.2254 -0.0558 -0.0051
19750W        W62844   3.078  31.750  29.442 -0.0523  0.1472 -0.2541
19751W        W62845   2.169   1.369  30.388  0.0839 -0.0651 -0.0873
19752W        W62846   0.225  34.197  27.640 -0.2226 -0.1071 -0.2612
19753W        W62847   1.817  33.472  30.888 -0.0613 -0.3813  0.1263
19754W        W62848   0.563  32.125  31.114  0.0693  0.0823 -0.1282
19755W        W62849   1.977   0.800  29.024 -0.3060 -0.0347  0.1101
19756W        W62850   1.261  34.667  28.609  0.1585  0.0398  0.4299
19757W        W62851   1.550  33.535  28.512  0.0569  0.1786  0.0765
19758W        W62852   1.377  33.294  30.699  0.1624  0.1650  0.1247
19759W        W62853   1.513  34.429  28.952  0.1592  0.3333  0.3655
19760W        W62854   1.738  34.122  31.609  0.2485  0.1584  0.0691
19761W        W62855   2.893  34.284  31.883 -0.2249  0.1642  0.0621
19762W        W62856  34.614  33.544  27.971 -0.1118 -0.2133  0.1206
19763W        W62857   3.362   1.863  29.492 -0.0885 -0.1792 -0.0748
19764W        W62858  34.525  33.043  30.389  0.3330  0.0112 -0.0856
19765W        W62859   2.800  32.685  31.783  0.1872 -0.1536  0.5361
19766W        W62860   2.922  33.966  28.512  0.1417  0.2371  0.0914
19767W        W62861   1.824  32.344  30.270 -0.2483  0.1344 -0.0069
19768W        W62862   1.518  33.012  28.629 -0.0655 -0.2244 -0.1622
19769W        W62863   3.955  33.190  28.374  0.3132  0.0679  0.1449
19770W        W62864   1.028  34.542  30.601 -0.2008 -0.1205  0.0743
19771W        W62865   3.558  34.247  27.748 -0.1927  0.1255 -0.1712
19772W        W62866   2.919   0.273  31.536  0.0797 -0.0907 -0.2510
19773W        W62867   2.770  34.169  26.407  0.2483 -0.1513 -0.0304
19774W        W62868   3.202  33.552  27.739  0.0440 -0.1889 -0.0739
19775W        W62869   1.261  31.840  29.202  0.1879  0.3103  0.4000
19776W        W62870   2.532   1.454  28.581  0.1686 -0.0801 -0.3249
19777W        W62871   2.447   0.154  29.361  0.2129 -0.0858 -0.0482
19778W        W62872   4.156   0.802   0.825 -0.2344 -0.0013 -0.1074
19779W        W62873   1.315  33.284  29.764 -0.1634  0.3929  0.0619
19780W        W62874   2.873  33.423  29.717  0.1455  0.0156  0.2522
19781W        W62875   3.876  34.178  31.887  0.0819  0.0649 -0.0458
19782W        W62876   2.824   0.600  31.075 -0.0005  0.2294 -0.0399
19783W        W62877   1.174  33.527   0.749 -0.2056 -0.3199  0.2685
19784W        W62878   3.189  34.545  31.552 -0.2817  0.3143 -0.1539
19785W        W62879   1.016  34.131  30.958 -0.3220 -0.3122  0.1499
19786W        W62880   4.196   0.163  31.375  0.1210  0.0538  0.0282
19787W        W62881   1.837  33.313  31.582  0.0177  0.6015 -0.0568
19788W        W62882   3.975   0.981  31.869 -0.4133  0.1208  0.0204
19789W        W62883   1.123  33.417   0.220 -0.2836 -0.0708  0.0393
19790W        W62884  33.993  33.889  30.983 -0.2362 -0.4911 -0.0027
19791W        W62885   0.838  33.284  29.632 -0.0563  0.1349 -0.2563
19792W        W62886   4.264  32.722   0.542 -0.1220 -0.0519  0.0251
19793W        W62887   2.850   0.682   0.498 -0.1343  0.0550  0.0351
19794W        W62888   1.676   0.377  31.466 -0.1678 -0.0790  0.0846
19795W        W62889   2.880  33.406  30.534  0.0294  0.1788  0.0541
19796W        W62890   2.394   0.170  30.171  0.0928  0.0310 -0.2090
19797W        W62891   1.433   0.028  30.906  0.1187  0.0901  0.2175
19798W        W62892   1.766  34.625   1.272  0.0170  0.0441  0.1420
19799W        W62893   3.559  34.306  31.177 -0.2512 -0.1059  0.4514
19800W        W62894   1.365  34.007   0.730  0.1025 -0.3420  0.3890
19801W        W62895   3.102   0.047   0.002 -0.2364  0.1083 -0.2652
19802W        W62896   3.943  32.368   0.637  0.1444 -0.1321  0.0386
19803W        W62897   3.557  33.630   0.667  0.1651 -0.0834 -0.1589
19804W        W62898   1.132   0.372  30.751  0.0663  0.2784 -0.0573
19805W        W62899   0.942  33.615  30.700 -0.2009  0.1392  0.3264
19806W        W62900   1.188   0.671   0.237  0.0043  0.3880 -0.0674
19807W        W62901   2.351  32.727   1.412 -0.2170  0.1218 -0.0495
19808W        W62902   3.505  33.762  31.190 -0.1931  0.4654  0.0369
19809W        W62903   3.176  33.398   1.093 -0.4622  0.1341  0.3939
19810W        W62904   3.017   1.134   0.760  0.1771 -0.1090  0.1291
19811W        W62905   2.391  34.401  31.887 -0.1038 -0.0615  0.0807
19812W        W62906   0.822  34.275  31.417  0.0762 -0.0175  0.1560
19813W        W62907   0.569  34.379  30.657  0.0926 -0.1870  0.0791
19814W        W62908   3.003  33.656   0.692 -0.1899 -0.1015 -0.0381
19815W        W62909   5.236   2.759  17.694  0.1372 -0.3207  0.0375
19816W        W62910   4.732   1.176  15.571  0.0893  0.2710 -0.0432
19817W        W62911   8.217   0.480  16.512  0.2432  0.0123 -0.1651
19818W        W62912   7.813   0.744  16.662  0.2536  0.3324 -0.1349
19819W        W62913   5.221  34.200  18.102  0.0532 -0.3449  0.1158
19820W        W62914   5.499   4.299  16.742 -0.1238 -0.2167  0.1197
19821W        W62915   4.012  34.624  16.844 -0.2004  0.1526  0.0616
19822W        W62916   6.621   1.962  18.161 -0.0095  0.3423  0.0764
19823W        W62917   5.431   2.577  18.718  0.1773  0.0735 -0.3953
19824W        W62918   5.871   2.077  16.168 -0.0769  0.0115  0.4445
19825W        W62919   4.711   1.290  18.119 -0.2367 -0.4223 -0.0083
19826W        W62920   5.312   0.909  17.763  0.5219  0.3126  0.3923
19827W        W62921   5.429   0.012  16.768 -0.3963 -0.2447  0.0633
19828W        W62922   3.248   0.266  18.335 -0.2511  0.0412 -0.2484
19829W        W62923   6.773   0.614  18.899 -0.0453  0.2196 -0.0540
19830W        W62924   5.013   2.681  17.255 -0.0612 -0.1397  0.1466
19831W        W62925   5.365   0.421  19.960  0.0065 -0.2592 -0.1218
19832W        W62926   5.246   1.374  18.075 -0.0457  0.1490  0.3076
19833W        W62927   3.906   3.313  17.363 -0.0813  0.2108  0.0793
19834W        W62928   4.851  34.271  19.450 -0.2100 -0.1208  0.2150
19835W        W62929   4.924  34.460  18.935 -0.3218  0.1387  0.1641
19836W        W62930   7.047   2.563  17.273 -0.1357  0.0221  0.1435
19837W        W62931   4.149   2.655  16.360 -0.0927  0.1494  0.2224
19838W        W62932   2.724   0.811  17.837 -0.1267 -0.0844  0.1460
19839W        W62933   3.702   1.634  18.739 -0.1351  0.0240 -0.2020
19840W        W62934   5.759   1.438  18.121 -0.3976  0.3805  0.1693
19841W        W62935   4.606   1.765  18.930 -0.1099  0.1832  0.2088
19842W        W62936   5.052   3.253  17.976 -0.1591 -0.1816 -0.0921
19843W        W62937   5.151   3.518  17.447 -0.1743  0.1399 -0.0425
19844W        W62938   7.006   1.817  19.524 -0.2753 -0.0890 -0.0165
19845W        W62939   5.496   3.194  17.601 -0.0106 -0.0816 -0.0333
19846W        W62940   3.734   3.937  17.216  0.1900  0.2573  0.1349
19847W        W62941   4.402   3.159  16.308  0.1259  0.1510 -0.0596
19848W        W62942   6.128   1.704  16.354 -0.0809  0.3765 -0.1405
19849W        W62943   6.127   2.722  18.002  0.2245  0.0429 -0.0819
19850W        W62944   5.334   3.558  20.464  0.2954  0.0148 -0.0659
19851W        W62945   4.413   2.642  15.873  0.0015  0.0017  0.1228
19852W        W62946   7.042   4.281  19.523  0.0488  0.0923  0.1478
19853W        W62947   3.660   3.625  20.384 -0.2254 -0.1375  0.3791
19854W        W62948   5.370   1.500  18.541  0.1226  0.2244 -0.3178
19855W        W62949   4.986   1.714  17.788 -0.6670  0.1727 -0.0460
19856W        W62950   4.825   2.279  17.028  0.0402  0.1421  0.1347
19857W        W62951   4.428   2.267  18.825 -0.0136  0.1419  0.4138
19858W        W62952   5.705   2.557  19.574  0.0924  0.0371 -0.1514
19859W        W62953   2.893   2.758  18.806  0.0120  0.3019  0.2956
19860W        W62954   7.700   0.119  18.865 -0.0702 -0.2122 -0.1528
19861W        W62955   5.280   3.475  16.140  0.0218  0.1248  0.1350
19862W        W62956   5.692   1.408  17.108  0.1070  0.0906 -0.3996
19863W        W62957   3.923   0.288  15.913 -0.2892  0.0285 -0.2772
19864W        W62958   5.194   1.230  16.943 -0.0012  0.1406  0.0525
19865W        W62959   5.229  34.216  16.712  0.0422 -0.0902  0.1025
19866W        W62960   4.113   3.687  17.652  0.2541 -0.2669 -0.2269
19867W        W62961   4.185   0.409  19.173  0.2095 -0.4018  0.2932
19868W        W62962   8.375   1.302  18.371  0.0996 -0.1293  0.0293
19869W        W62963   3.277   1.841  17.169  0.0959 -0.0664 -0.1991
19870W        W62964   5.445   1.021  17.341 -0.0839 -0.2114 -0.0708
19871W        W62965   4.603   2.774  20.517  0.0289 -0.0705 -0.1108
19872W        W62966   3.226   1.862  18.737 -0.3276  0.1848  0.2032
19873W        W62967   6.815   2.786  16.910  0.3160  0.0625 -0.1356
19874W        W62968   7.440   2.344  17.502  0.1554 -0.0194 -0.2758
19875W        W62969   5.227   2.781  16.811  0.0819 -0.1198 -0.0965
19876W        W62970   3.678   1.765  17.456  0.1774 -0.2351 -0.1256
19877W        W62971   1.932   2.516  19.149  0.1726 -0.0318 -0.0489
19878W        W62972   4.292   1.589  19.721 -0.1838 -0.2520  0.2309
19879W        W62973   4.127   0.435  15.515  0.0514  0.1330 -0.0056
19880W        W62974   7.677   2.416  19.030 -0.1013 -0.2124  0.0008
19881W        W62975   3.176   3.008  20.147  0.1816  0.3438  0.2751
19882W        W62976   7.108   0.006  18.277 -0.1055  0.3689  0.1868
19883W        W62977   3.706   1.004  17.945 -0.1084 -0.2307  0.1325
19884W        W62978   7.034   3.801  19.326  0.3359 -0.0748  0.5736
19885W        W62979   5.670   1.396  17.632  0.2014  0.2225  0.4296
19886W        W62980   5.658  34.508  16.366  0.2815 -0.3270 -0.1692
19887W        W62981   5.244   0.147  17.196 -0.1484 -0.2851 -0.0757
19888W        W62982   5.223   2.833  16.303 -0.3902 -0.0444 -0.0812
19889W        W62983   5.168   2.289  16.665  0.2472  0.1009 -0.0516
19890W        W62984   6.387   1.492  18.890  0.1608  0.0327 -0.0331
19891W        W62985   6.857   0.745  16.295 -0.4731  0.0419 -0.1355
19892W        W62986   3.765   2.839  18.121 -0.0147 -0.3239  0.1906
19893W        W62987   5.475   1.843  17.900  0.2934 -0.2423 -0.0973
19894W        W62988   5.189   2.729  19.659 -0.1932  0.0148 -0.1667
19895W        W62989   4.928   2.990  15.949 -0.4948 -0.3752 -0.1417
19896W        W62990   2.699   2.722  17.520  0.0015 -0.0018  0.0895
19897W        W62991   4.939   1.895  16.274  0.0518  0.2226 -0.1550
19898W        W62992   4.484   0.420  17.677  0.2276 -0.0636 -0.0906
19899W        W62993   3.332   1.339  18.703 -0.0992 -0.2351 -0.1115
19900W        W62994   6.659  34.570  16.608  0.1078  0.1464  0.0526
19901W        W62995   3.758  34.301  19.627 -0.0417  0.0150 -0.0994
19902W        W62996   6.157   0.940  18.882  0.5561 -0.0627 -0.2674
19903W        W62997   3.993   3.072  16.835 -0.2385 -0.4139 -0.1493
19904W        W62998   5.382   3.566  18.594  0.0298 -0.0254  0.2202
19905W        W62999   6.338  34.222  16.763 -0.2441 -0.2048  0.1152
19906W        W63000   6.560   2.480  17.299  0.4332  0.0555  0.1191
19907W        W63001   3.650   1.543  19.632 -0.1187 -0.0902 -0.1408
19908W        W63002   4.763   2.509  19.621 -0.0677 -0.0404 -0.0913
19909W        W63003   4.551   1.852  20.833 -0.3069  0.1100  0.2932
19910W        W63004   3.284   1.065  19.091  0.3295  0.0858 -0.1457
19911W        W63005   7.195   2.256  17.987 -0.2014 -0.1131  0.2877
19912W        W63006   3.989  34.656  15.545 -0.0396 -0.1221  0.1312
19913W        W63007   6.271   0.107  17.508  0.0626 -0.1578 -0.1318
19914W        W63008   5.941   1.007  17.397 -0.1272 -0.2800 -0.0326
19915W        W63009   3.684   2.718  16.620 -0.1694  0.0135  0.3042
19916W        W63010   6.369  34.003  17.582  0.2362 -0.0242 -0.3252
19917W        W63011   5.335   3.163  17.108 -0.0195  0.3439  0.2808
19918W        W63012   8.703   1.893  19.064  0.0548 -0.0336  0.2625
19919W        W63013   6.356   2.373  17.805 -0.1193 -0.0016 -0.3302
19920W        W63014   4.156   1.014  19.266 -0.0136 -0.3046 -0.1603
19921W        W63015   4.430   1.707  16.990 -0.3981 -0.0995 -0.0096
19922W        W63016   3.626   3.773  17.682  0.2805  0.1139 -0.0491
19923W        W63017   3.881   3.798  18.188 -0.0384  0.3492 -0.0520
19924W        W63018   4.253   1.019  17.177 -0.2381 -0.3083 -0.4918
19925W        W63019   6.925   3.952  17.684  0.1727 -0.2811  0.0029
19926W        W63020   4.597   2.795  17.854  0.1160 -0.1952 -0.1524
19927W        W63021   3.766   2.028  18.489  0.1876 -0.1681  0.0406
19928W        W63022   5.705   0.644  17.604 -0.0486 -0.1211 -0.2303
19929W        W63023   6.552   0.972  19.182 -0.1756 -0.1870 -0.0614
19930W        W63024   6.451   1.117  17.467 -0.0963  0.1221 -0.2571
19931W        W63025   4.421   0.825  15.835  0.0342  0.0415 -0.3589
19932W        W63026   5.080   3.694  18.111  0.0811  0.0378 -0.1008
19933W        W63027   3.746   3.675  16.030  0.0958  0.1943 -0.0792
19934W        W63028   4.771   2.214  18.107  0.1541 -0.1040 -0.1189
19935W        W63029   4.854   3.098  17.002  0.1429 -0.2981  0.3685
19936W        W63030   7.829   0.674  17.180  0.1695 -0.1650  0.2010
19937W        W63031   5.324   2.229  20.295  0.2903 -0.0539 -0.0527
19938W        W63032   5.100   1.927  18.821  0.1746  0.2313 -0.2342
19939W        W63033   2.714   2.007  18.072 -0.0381  0.0942 -0.1165
19940W        W63034   4.931   3.170  19.727  0.0763 -0.0298  0.2900
19941W        W63035   6.145  34.268  17.255  0.1635 -0.0432 -0.0445
19942W        W63036   7.344   1.024  16.390  0.0930 -0.2788  0.0298
19943W        W63037   6.549   3.227  19.464 -0.2420 -0.2944 -0.2163
19944W        W63038   6.338   0.687  16.164 -0.1504 -0.2105 -0.0467
19945W        W63039   6.303   0.238  16.015  0.1864  0.2357 -0.0937
19946W        W63040   6.165   0.078  16.934 -0.3246  0.1256  0.1958
19947W        W63041   4.373   1.978  19.307 -0.2958 -0.0295 -0.1817
19948W        W63042   4.440   2.799  16.791  0.0262  0.5007 -0.1054
19949W        W63043   3.917   1.586  18.279  0.2396 -0.0725  0.0425
19950W        W63044   5.236  33.617  16.870  0.3175 -0.5427  0.0697
19951W        W63045   6.786   3.345  17.024  0.2284 -0.1448 -0.2353
19952W        W63046   4.875   2.918  19.289 -0.1804  0.2471 -0.2571
19953W        W63047   5.663   1.352  19.624 -0.1182  0.0643  0.0446
19954W        W63048   5.726   2.785  17.707  0.0318  0.0018 -0.2403
19955W        W63049   5.608   0.955  16.770 -0.2114  0.2597  0.3327
19956W        W63050   5.275   1.058  16.273 -0.3333  0.0035  0.1304
19957W        W63051   4.311  34.210  16.939 -0.1161  0.0358 -0.1587
19958W        W63052   2.702   3.844  16.104 -0.2912  0.1018  0.0027
19959W        W63053   6.157   0.081  18.255 -0.2389  0.0799  0.1550
19960W        W63054   5.539   0.518  18.053  0.2117  0.1846  0.1580
19961W        W63055   6.085   0.830  19.411 -0.1449  0.0594 -0.1584
19962W        W63056   5.990   1.920  19.164 -0.0468  0.0071  0.0674
19963W        W63057   6.233  34.216  15.735 -0.0333 -0.0989 -0.1777
19964W        W63058   5.027   1.781  18.313 -0.4373 -0.2824 -0.0549
19965W        W63059   4.478   1.886  16.528 -0.1503 -0.1946  0.3578
19966W        W63060   5.028   0.926  18.209  0.0128  0.0522  0.0919
19967W        W63061   3.520   1.465  20.577  0.1642  0.1952  0.1028
19968W        W63062   4.108   3.684  20.587 -0.0296  0.1200 -0.1866
19969W        W63063   4.956   2.729  18.217  0.2888 -0.1105  0.0504
19970W        W63064   5.354   2.300  17.555  0.0959 -0.1927  0.0210
19971W        W63065   5.743   0.705  18.559 -0.1919 -0.2846  0.0762
19972W        W63066   4.167   1.502  16.604 -0.2414 -0.1013 -0.1778
19973W        W63067   4.049   2.549  17.174  0.1030  0.0693  0.0688
19974W        W63068   4.538   2.659  17.361 -0.0684 -0.0027  0.0085
19975W        W63069   4.503   0.767  18.214  0.3342 -0.3527 -0.0739
19976W        W63070   5.548   2.131  18.885  0.0345 -0.2936 -0.3177
19977W        W63071   3.909   2.283  17.599 -0.3446 -0.0192  0.1443
19978W        W63072   5.909   1.915  17.705  0.0636 -0.0188  0.1313
19979W        W63073   4.199   3.738  16.252  0.0135  0.1794 -0.0808
19980W        W63074   5.933  34.651  18.887  0.3430 -0.1693  0.0405
19981W        W63075   4.024   2.445  18.133 -0.1103  0.0425  0.0486
19982W        W63076   4.194   1.225  17.992 -0.2555 -0.2014 -0.0766
19983W        W63077   3.340   2.276  16.860 -0.3076  0.0301  0.1210
19984W        W63078   6.911  33.978  15.990  0.0635 -0.4518 -0.0976
19985W        W63079   6.417   1.573  15.868  0.4804  0.1749 -0.1774
19986W        W63080   4.942  34.012  17.134 -0.0506 -0.2271 -0.0210
19987W        W63081   7.027   1.532  17.262  0.1580 -0.1703 -0.0062
19988W        W63082   3.301   4.084  19.578 -0.2706  0.0272 -0.0979
19989W        W63083   5.623   0.676  19.097  0.1716 -0.1213 -0.0312
19990W        W63084   6.445   0.369  16.569 -0.0977 -0.0777 -0.0541
19991W        W63085   6.090   1.887  18.221  0.4211 -0.1576 -0.1613
19992W        W63086   4.310   2.817  18.985  0.0049 -0.1554  0.2387
19993W        W63087   3.202  34.341  17.729  0.2141 -0.0769  0.0791
19994W        W63088   6.455   0.467  19.257  0.0403  0.0217 -0.0184
19995W        W63089   4.699   1.273  16.885 -0.0836 -0.0363 -0.1601
19996W        W63090   3.380   1.964  17.787 -0.0176 -0.1623  0.0189
19997W        W63091   6.092   3.861  18.802  0.0261 -0.0391  0.1242
19998W        W63092   4.316   2.088  18.350  0.1052  0.0853 -0.3712
19999W        W63093   4.051   2.758  17.689  0.1338  0.3573 -0.0827
20000W        W63094   4.790   1.485  19.681  0.2922  0.1822 -0.2722
20001W        W63095   6.849   1.353  19.030  0.1222  0.0642  0.2710
20002W        W63096   5.066  34.131  17.664 -0.0705 -0.0277 -0.1165
20003W        W63097   4.713   0.973  18.771 -0.1081  0.1901  0.0376
20004W        W63098   4.983   1.275  17.595  0.1278  0.0765 -0.0700
20005W        W63099   7.326   2.978  19.070  0.2704 -0.2259 -0.1532
20006W        W63100   4.184   1.439  18.834 -0.1193  0.2535  0.1148
20007W        W63101   4.579   3.020  18.621  0.0198 -0.2023 -0.0171
20008W        W63102   6.112  34.406  17.879  0.2631 -0.1723 -0.0097
20009W        W63103   6.771   3.507  17.670 -0.1917 -0.0845 -0.1407
20010W        W63104   6.007   1.368  19.252 -0.0810 -0.1734  0.4269
20011W        W63105   4.474   1.414  17.460 -0.1830 -0.0156 -0.3521
20012W        W63106   3.705   0.499  17.941  0.2952 -0.2228  0.1190
20013W        W63107   4.381   3.139  17.184  0.0762 -0.0026  0.1473
20014W        W63108   6.160  33.785  17.168 -0.4159 -0.0779 -0.0672
20015W        W63109   3.734   2.929  18.614  0.1141 -0.2002 -0.0196
20016W        W63110   5.620   2.405  16.735  0.0025  0.1171 -0.0167
20017W        W63111   3.609   3.093  19.894 -0.2138 -0.2143 -0.1413
20018W        W63112   7.246  34.368  15.728  0.0137 -0.1832 -0.0127
20019W        W63113   5.756   1.936  17.240 -0.0021 -0.3225 -0.0513
20020W        W63114   4.754  34.665  17.595 -0.1623 -0.1242 -0.1507
20021W        W63115   8.122  34.065  18.423  0.1368 -0.0026  0.3400
20022W        W63116   4.609   0.922  17.738 -0.1981  0.2816  0.1238
20023W        W63117   6.043  33.932  19.624  0.0547 -0.1660 -0.0876
20024W        W63118   4.212   0.304  18.178 -0.0776 -0.0319  0.2677
20025W        W63119   6.487   1.887  16.780  0.0085 -0.1769  0.3120
20026W        W63120   4.512   2.548  18.416  0.0674  0.0263 -0.1245
20027W        W63121   4.619   3.010  21.051 -0.2644  0.1578  0.2066
20028W        W63122   3.941   2.964  19.505 -0.0006 -0.2514  0.0508
20029W        W63123   5.789  34.642  17.292  0.1233 -0.1832  0.1282
20030W        W63124   3.383   0.815  15.596  0.1094  0.2852  0.0016
20031W        W63125   4.339   2.687  19.459 -0.0385  0.1204 -0.1884
20032W        W63126   6.865   2.028  17.156 -0.2820 -0.1274 -0.1124
20033W        W63127   4.335   2.164  17.152 -0.1052  0.0031 -0.0055
20034W        W63128   7.196   0.841  19.101  0.0422  0.0029 -0.2337
20035W        W63129   4.469   3.228  19.519  0.2076 -0.1838  0.3604
20036W        W63130   6.558   0.889  16.653 -0.2124 -0.3050 -0.0645
20037W        W63131   5.269   1.723  17.351 -0.0458 -0.1035 -0.0251
20038W        W63132   3.157   2.129  18.298 -0.0964  0.0287  0.0641
20039W        W63133   4.386  34.691  20.106  0.1991 -0.2540 -0.0711
20040W        W63134   6.969   1.731  17.898  0.1006  0.1881 -0.1618
20041W        W63135   6.703   0.329  17.452 -0.0475  0.3382  0.0747
20042W        W63136   5.235   0.114  18.223 -0.1287 -0.2755  0.0977
20043W        W63137   6.017  34.361  19.407 -0.1431 -0.2997  0.0039
20044W        W63138   4.986   1.374  19.100  0.1048  0.0684 -0.3646
20045W        W63139   3.607  33.814  19.416  0.5329 -0.0503  0.1396
20046W        W63140   6.368   2.961  19.050 -0.3028 -0.0588 -0.1451
20047W        W63141   5.924   0.437  17.180 -0.0727 -0.0945 -0.0177
20048W        W63142   7.371   0.421  18.062 -0.0260 -0.1985 -0.0707
20049W        W63143   6.556   1.457  17.103  0.1717 -0.1144 -0.3036
20050W        W63144   6.106   1.523  17.346 -0.1646 -0.1239 -0.3459
20051W        W63145   5.567  33.949  18.449  0.0642 -0.0973  0.0662
20052W        W63146   4.990   1.351  20.168 -0.0108 -0.2232 -0.0405
20053W        W63147   3.475   1.345  16.805 -0.0359 -0.0798  0.2771
20054W        W63148   5.936  34.355  19.910 -0.0091 -0.0604  0.0514
20055W        W63149   4.406   3.340  16.772 -0.3884  0.0476  0.0314
20056W        W63150   5.490   2.948  18.113 -0.0987  0.1163 -0.0984
20057W        W63151   6.977   1.150  16.746  0.1577 -0.0467  0.1189
20058W        W63152   2.996   2.445  17.863 -0.2340 -0.0326 -0.4000
20059W        W63153   3.296   2.479  19.252 -0.1867 -0.1399  0.0123
20060W        W63154   4.451   1.335  16.147 -0.0611 -0.0990  0.0254
20061W        W63155   4.389   2.220  16.153 -0.0651 -0.1339  0.0758
20062W        W63156   5.318   3.260  16.569  0.0637 -0.1539 -0.0908
20063W        W63157   7.390   2.194  19.647 -0.2429  0.2432 -0.3561
20064W        W63158   4.276   0.110  16.280 -0.1729 -0.1064  0.0367
20065W        W63159   6.381  34.617  18.648 -0.4105  0.5251 -0.1595
20066W        W63160   2.476   3.530  17.637 -0.2308 -0.3329  0.0961
20067W        W63161   6.096   0.638  18.185 -0.4242 -0.0211 -0.2642
20068W        W63162   5.510   3.466  18.082  0.1162 -0.0533 -0.2510
20069W        W63163   3.732   2.482  19.576  0.0016 -0.1661  0.3950
20070W        W63164   3.462   3.892  18.460 -0.1191 -0.1352  0.1188
20071W        W63165   5.485   1.010  18.239  0.5565 -0.0057  0.0346
20072W        W63166   5.928   0.990  17.887  0.0072 -0.1716  0.2788
20073W        W63167   4.925   0.488  17.423 -0.1463  0.0330  0.0950
20074W        W63168   5.342  34.293  19.624  0.0130  0.0325 -0.0361
20075W        W63169   5.953   2.523  19.130  0.0504  0.2613  0.0188
20076W        W63170   3.602   1.061  19.494  0.2923  0.2316  0.0006
20077W        W63171   4.484   1.647  18.366  0.0874 -0.1682 -0.3549
20078W        W63172   6.540   1.354  16.619  0.0455 -0.3186 -0.2410
20079W        W63173   4.196   2.929  18.272  0.0860  0.1351  0.1913
20080W        W63174   4.769   0.172  19.228 -0.0544 -0.1630 -0.0828
20081W        W63175   7.165   2.406  19.174 -0.0876  0.1955  0.0604
20082W        W63176   6.795   2.216  17.674 -0.2332  0.2085 -0.2834
20083W        W63177   4.084   0.640  16.225 -0.0561  0.1082  0.2864
20084W        W63178   4.875   1.744  16.866 -0.1252 -0.2686 -0.1284
20085W        W63179   4.656   2.000  19.751  0.2391 -0.1112 -0.0997
20086W        W63180   2.350   2.850  19.025 -0.1450  0.5487  0.0955
20087W        W63181   3.534   3.203  15.933  0.2349 -0.1599  0.2903
20088W        W63182   6.723   1.907  16.358  0.1545 -0.1660  0.0739
20089W        W63183   5.989   2.081  16.803 -0.3346 -0.2145 -0.2271
20090W        W63184   5.875   1.664  18.611  0.0187 -0.1202 -0.2172
20091W        W63185   4.104   1.012  16.622 -0.2217  0.0609 -0.0954
20092W        W63186   4.046   4.250  18.148 -0.1820  0.0144 -0.0959
20093W        W63187   3.377   3.465  15.213 -0.1484  0.0659  0.0832
20094W        W63188   6.759   3.459  16.261  0.0324  0.3538 -0.0174
20095W        W63189   4.364   4.700  17.345 -0.5208  0.0566  0.2536
20096W        W63190   5.833   2.623  18.376  0.0027  0.0889 -0.1796
20097W        W63191   5.855   0.011  15.961 -0.0440  0.0359  0.3555
20098W        W63192   8.370  34.684  17.319 -0.2556 -0.0984  0.2042
20099W        W63193   7.622   0.185  16.596 -0.0189 -0.0662  0.0068
20100W        W63194   5.792   2.286  18.022  0.0806  0.0378  0.1666
20101W        W63195   5.268   0.550  18.533  0.4021  0.2356  0.0311
20102W        W63196   4.894   0.918  15.995 -0.2582 -0.2844 -0.1573
20103W        W63197   4.510   1.379  19.238 -0.0005  0.0914  0.4323
20104W        W63198   6.839   0.166  18.668  0.0101  0.6322 -0.1018
20105W        W63199   1.800   3.714  20.913 -0.0117 -0.1477 -0.0628
20106W        W63200   5.933   2.362  17.524  0.1624  0.3173  0.0661
20107W        W63201   4.657   2.429  16.546 -0.1073  0.1487 -0.3761
20108W        W63202   4.171   1.776  17.425 -0.0248 -0.0460 -0.0063
20109W        W63203   8.965   0.164  17.750 -0.2593  0.0804  0.1051
20110W        W63204   5.362   1.600  16.133  0.0874  0.4818 -0.2251
20111W        W63205   4.956   0.484  17.928 -0.0051  0.1817  0.0871
20112W        W63206   5.114   4.087  17.107 -0.1135  0.2949 -0.2081
20113W        W63207   4.041   4.599  18.819 -0.1781  0.2263 -0.3421
20114W        W63208   4.014   3.259  19.060  0.1023  0.0099  0.0242
20115W        W63209   4.028   1.091  16.021 -0.0727 -0.1163  0.1813
20116W        W63210   7.711   2.270  16.699  0.1248  0.4755 -0.0766
20117W        W63211   5.059   2.316  18.529  0.0972  0.0672 -0.0873
20118W        W63212   6.467   0.419  18.495  0.0394 -0.0506  0.1642
20119W        W63213   3.567   2.521  17.290  0.3192  0.0856 -0.0105
20120W        W63214   6.080  33.784  16.040 -0.0708  0.0361 -0.0871
20121W        W63215   6.429   1.546  18.362  0.3699 -0.0550  0.3459
20122W        W63216   4.783   2.395  19.119  0.2406  0.1189  0.2047
20123W        W63217   6.784  34.037  16.678 -0.1726  0.2071  0.2108
20124W        W63218   6.931   2.341  20.576  0.1519  0.1493  0.1268
20125W        W63219   6.275   2.256  16.350 -0.2195  0.0093  0.0434
20126W        W63220   6.230   3.706  20.038 -0.0151 -0.1459 -0.1240
20127W        W63221   3.664   1.806  16.712 -0.0618 -0.2965  0.0608
20128W        W63222   4.618   0.498  16.397  0.0749  0.1114  0.3099
20129W        W63223   3.571   3.009  17.616  0.1608 -0.3328 -0.2951
20130W        W63224   5.246   2.442  19.225 -0.0742  0.4586 -0.1036
20131W        W63225   7.292   1.861  18.292 -0.0859  0.0190  0.0846
20132W        W63226   4.328   1.186  18.462  0.1034 -0.3731 -0.0596
20133W        W63227   7.388   1.197  15.947  0.0105  0.0061 -0.2021
20134W        W63228   6.503   2.041  18.721  0.0168 -0.2696  0.0616
20135W        W63229   6.343   2.902  17.076 -0.0988 -0.2379 -0.2003
20136W        W63230   4.411   2.272  17.784 -0.1271  0.1568 -0.1072
20137W        W63231   6.195   3.452  19.122 -0.2377 -0.0054  0.3356
20138W        W63232   3.942   1.317  17.574 -0.2554 -0.0453  0.0524
20139W        W63233   6.708   4.320  18.113 -0.1325 -0.3921  0.1825
20140W        W63234   7.106   2.092  18.754  0.4011  0.1413  0.0352
20141W        W63235   6.737   0.216  16.939 -0.0254  0.0451  0.0459
20142W        W63236   4.057   1.949  18.872 -0.1048 -0.0197  0.2746
20143W        W63237   2.186   3.801  17.938  0.1657  0.1984  0.0826
20144W        W63238   7.256   1.095  17.430  0.1164  0.0689 -0.0679
20145W        W63239   8.290   1.584  17.979 -0.1091  0.0735  0.0766
20146W        W63240   4.829   3.084  16.544 -0.1169 -0.0185  0.0977
20147W        W63241   7.407  33.870  18.901 -0.2517 -0.2293  0.1605
20148W        W63242   4.827   3.955  17.516  0.1721  0.0906 -0.2347
20149W        W63243   4.689   3.567  18.574  0.0512  0.2042  0.0225
20150W        W63244   2.823   2.020  17.064 -0.2086  0.3131  0.2885
20151W        W63245   6.026   3.018  19.486  0.0306  0.1370  0.2613
20152W        W63246   4.713   3.522  17.217 -0.1828  0.0279  0.0701
20153W        W63247   6.454   2.960  18.355  0.1429 -0.0123  0.2250
20154W        W63248   6.295   2.617  18.731 -0.0640  0.1496  0.2481
20155W        W63249   6.097   1.582  16.859 -0.0498  0.0620  0.0881
20156W        W63250   7.267   1.899  17.507  0.2600  0.0803  0.0425
20157W        W63251   4.057   0.591  17.116 -0.0989  0.0162 -0.4460
20158W        W63252   7.871  33.947  17.419  0.3262 -0.0227 -0.2107
20159W        W63253   5.714  33.371  16.282 -0.3168  0.1481 -0.2798
20160W        W63254   5.924   3.018  18.953  0.1051  0.1356  0.2245
20161W        W63255   2.904   2.255  16.541 -0.2203 -0.0132 -0.1676
20162W        W63256   3.744   2.315  16.342  0.2686 -0.0894 -0.0690
20163W        W63257   2.372   2.228  19.095  0.3485 -0.1997 -0.4073
20164W        W63258   6.390   0.594  19.763  0.2606  0.0011 -0.2959
20165W        W63259   4.936   1.958  19.319 -0.1866 -0.3088 -0.1836
20166W        W63260   3.163   2.906  17.317 -0.4022  0.0651  0.0087
20167W        W63261   3.679  34.319  17.711 -0.0022  0.1229  0.1753
20168W        W63262   6.206   3.492  16.315 -0.0075 -0.2103  0.0939
20169W        W63263   4.050  34.257  17.391 -0.0842 -0.2863 -0.1041
20170W        W63264   3.667  33.526  16.448  0.1935 -0.2892 -0.0471
20171W        W63265   6.479   1.000  15.688  0.1037  0.1744 -0.1457
20172W        W63266   6.943   1.661  16.752 -0.0305 -0.1973 -0.2126
20173W        W63267   5.714   1.388  16.442 -0.0362 -0.2104 -0.3134
20174W        W63268   6.097   2.235  19.677  0.2889 -0.0287  0.0593
20175W        W63269   3.400   3.431  17.411  0.0413  0.2664 -0.2559
20176W        W63270   5.213   1.075  18.713  0.2000 -0.0204  0.0788
20177W        W63271   5.854  34.137  18.962 -0.0046  0.1116 -0.2585
20178W        W63272   3.913   1.541  17.066  0.0408  0.0459 -0.0693
20179W        W63273   6.257   1.491  17.896  0.2458 -0.0361  0.0794
20180W        W63274   3.957   2.474  18.653 -0.1091 -0.2175 -0.0602
20181W        W63275   4.765   1.904  17.356 -0.0792  0.1856  0.0047
20182W        W63276   4.861   1.464  18.632 -0.0281  0.1394 -0.0200
20183W        W63277   4.554   3.284  19.004  0.2477 -0.1603 -0.1893
20184W        W63278   2.623  33.522  19.631 -0.0511  0.2794 -0.0004
20185W        W63279   5.693   0.819  16.285 -0.2381  0.1095  0.1968
20186W        W63280   5.534   1.985  18.401 -0.0045  0.1780 -0.0317
20187W        W63281   6.435   2.476  16.767  0.2459 -0.0440  0.1631
20188W        W63282   6.924   0.646  17.892  0.1008  0.2844 -0.2912
20189W        W63283   6.530  34.573  17.191 -0.0638  0.0614  0.2406
20190W        W63284   3.132  32.998  19.395  0.0984  0.0715 -0.3343
20191W        W63285   3.689   3.486  19.453 -0.1930  0.3112 -0.0319
20192W        W63286   6.072   1.117  18.406 -0.0941  0.0295 -0.0753
20193W        W63287   4.364  33.829  17.723  0.1095 -0.0927 -0.1433
20194W        W63288   6.013  34.211  16.207  0.3233  0.0474 -0.1717
20195W        W63289   6.597   1.674  17.549 -0.0252  0.0628 -0.0339
20196W        W63290   3.756   0.692  19.187 -0.0551  0.3263  0.4870
20197W        W63291   4.791   0.946  17.214 -0.0351  0.0422  0.4013
20198W        W63292   4.605   0.632  19.235  0.0945 -0.2930  0.2344
20199W        W63293   5.309   2.150  17.090  0.3596 -0.1308  0.2322
20200W        W63294   6.527   1.466  19.370 -0.1383  0.1051  0.3070
20201W        W63295   3.427   1.324  17.356  0.2498  0.1428 -0.2872
20202W        W63296   7.378   1.532  16.328 -0.2219 -0.2182  0.1714
20203W        W63297   5.937   3.395  18.681  0.0501  0.1024  0.0484
20204W        W63298   6.429   3.893  17.816 -0.0718 -0.1524 -0.0731
20205W        W63299   5.271   2.301  18.018  0.1225 -0.0441 -0.2711
20206W        W63300   6.329   2.319  18.346 -0.0267 -0.1921 -0.0836
20207W        W63301   2.548   0.007  18.209 -0.1148 -0.0536 -0.0083
20208W        W63302   5.440   3.858  17.648 -0.0198  0.2755  0.3277
20209W        W63303   4.484   1.736  17.878 -0.1125  0.0632 -0.0183
20210W        W63304   8.378   0.420  16.967  0.3652 -0.0624  0.2094
20211W        W63305   3.774   1.212  19.009 -0.3802 -0.2170  0.2586
20212W        W63306   6.200  33.571  16.481  0.3089  0.0369  0.0199
20213W        W63307   5.426   4.495  18.449  0.1663 -0.1385 -0.2603
20214W        W63308   6.238   2.040  17.252  0.0020 -0.3964  0.1192
20215W        W63309   4.699   3.256  23.553  0.0630 -0.1409 -0.0390
20216W        W63310   4.873   1.012  21.257  0.0183 -0.0281  0.1719
20217W        W63311   6.044  34.338  20.454  0.1729  0.1112  0.2585
20218W        W63312   6.203   1.195  20.674  0.2141 -0.0813 -0.1152
20219W        W63313   4.446   1.435  20.626 -0.2677  0.0399 -0.0609
20220W        W63314   6.249   4.192  20.226  0.0240 -0.4694  0.1829
20221W        W63315   3.377  33.653  24.183 -0.3521 -0.1730  0.0130
20222W        W63316   6.200   2.335  23.506  0.3084 -0.1550 -0.4365
20223W        W63317   8.498   3.804  22.967 -0.2440 -0.0213 -0.1767
20224W        W63318   6.005   0.236  19.366  0.2213 -0.2364 -0.0037
20225W        W63319   4.938   1.808  22.812 -0.3514 -0.0491  0.1495
20226W        W63320   4.552   2.375  23.421 -0.0419  0.0964  0.3440
20227W        W63321   5.771  33.784  20.390  0.0729  0.1252 -0.0200
20228W        W63322   4.418  33.814  21.648  0.1336 -0.1267 -0.1474
20229W        W63323   7.723   0.855  21.420  0.0592 -0.0282  0.0452
20230W        W63324   4.309   1.885  20.203 -0.0927 -0.3247 -0.3266
20231W        W63325   3.440   0.256  21.995  0.2022 -0.0361  0.0474
20232W        W63326   4.837   1.115  20.636 -0.1711 -0.1124 -0.1115
20233W        W63327   5.373   4.493  20.540  0.1771  0.1087 -0.1271
20234W        W63328   4.623   1.597  21.309  0.2473  0.1925 -0.2584
20235W        W63329   6.132  33.480  22.712  0.0424 -0.0825 -0.2303
20236W        W63330   5.508   3.030  20.531  0.0945 -0.1032 -0.0727
20237W        W63331   2.746   1.104  19.934  0.3037  0.2067 -0.1561
20238W        W63332   3.884   2.312  22.129  0.5067  0.0615 -0.2418
20239W        W63333   6.056   1.281  21.942 -0.3256 -0.2408  0.1372
20240W        W63334   6.456   1.068  22.289 -0.2923 -0.1781  0.1166
20241W        W63335   5.132   1.682  22.018  0.2355  0.2029 -0.3013
20242W        W63336   5.925   2.766  23.479  0.2049  0.0419  0.1490
20243W        W63337   5.963   3.308  20.363 -0.0997  0.1073  0.1105
20244W        W63338   5.040   0.270  23.284  0.0031  0.0965  0.0497
20245W        W63339   4.570   2.864  19.934  0.0284  0.1590 -0.0654
20246W        W63340   3.550   4.769  21.634  0.0525  0.1382 -0.4726
20247W        W63341   4.704   3.416  20.665 -0.0326 -0.0539 -0.0484
20248W        W63342   6.242   2.152  21.151  0.3392  0.0148 -0.1280
20249W        W63343   7.250   1.336  24.161  0.1118 -0.1494 -0.2133
20250W        W63344   4.969   3.951  24.285 -0.0581  0.2074  0.1464
20251W        W63345   5.526   2.029  19.426 -0.0467 -0.0370 -0.1189
20252W        W63346   5.605   2.470  22.617 -0.2213  0.0295 -0.0085
20253W        W63347   4.945   2.881  23.152 -0.2016  0.1544  0.0418
20254W        W63348   5.742   0.939  22.237  0.2606  0.0608 -0.1036
20255W        W63349   3.465   2.366  22.329 -0.0167  0.1727  0.2307
20256W        W63350   4.376   2.358  19.969 -0.3332  0.0348  0.0902
20257W        W63351   5.103   1.555  21.509 -0.1705 -0.1601  0.0563
20258W        W63352   4.780   1.952  23.636 -0.2297 -0.3475  0.0448
20259W        W63353   3.890   2.770  21.633  0.0216 -0.2454 -0.0566
20260W        W63354   7.979   2.173  24.023 -0.0614 -0.1687  0.1161
20261W        W63355   4.903   4.278  20.594 -0.2237 -0.0387 -0.1076
20262W        W63356   5.663   0.056  19.733  0.0090 -0.1446 -0.0740
20263W        W63357   4.018   1.209  19.788  0.0605 -0.1699 -0.2615
20264W        W63358   6.172   0.190  19.928 -0.2574  0.1216 -0.2895
20265W        W63359   5.803   0.326  20.633  0.0228  0.0049  0.1972
20266W        W63360   4.354   3.148  22.660 -0.0540  0.0001  0.1908
20267W        W63361   4.800   0.927  22.395 -0.0021  0.1313  0.0388
20268W        W63362   5.860   2.561  21.899  0.1794  0.1272  0.1254
20269W        W63363   4.910   2.078  20.535 -0.0255 -0.1154  0.0068
20270W        W63364   5.536   1.148  23.103  0.1872 -0.1402 -0.2424
20271W        W63365   4.720   3.653  22.603  0.0521 -0.1933 -0.0427
20272W        W63366   2.046   0.935  21.863 -0.0603 -0.3975  0.3815
20273W        W63367   6.833   3.189  20.467  0.0428  0.0187 -0.0651
20274W        W63368   7.324   4.374  20.425  0.2299  0.2025 -0.2780
20275W        W63369   7.392   4.588  19.198 -0.1120  0.0457 -0.1072
20276W        W63370   3.345   0.701  20.791  0.4480  0.2217  0.0706
20277W        W63371   4.172   1.619  24.087  0.0520 -0.3337  0.0073
20278W        W63372   4.447   0.885  22.055 -0.0119  0.1991  0.0255
20279W        W63373   4.094  33.635  19.178 -0.0255 -0.2183  0.1200
20280W        W63374   5.888   2.797  22.877 -0.0839  0.3732 -0.2478
20281W        W63375   3.976   4.881  22.657  0.3482  0.1961  0.0715
20282W        W63376   6.260  33.614  20.992  0.1814 -0.0685  0.0386
20283W        W63377   5.142   2.100  21.626 -0.0891 -0.0324  0.0995
20284W        W63378   7.507   2.321  21.949 -0.0004 -0.0341 -0.1118
20285W        W63379   5.827   1.786  19.850 -0.1336 -0.1827 -0.0231
20286W        W63380   5.652  34.625  21.808  0.0415 -0.2101  0.1613
20287W        W63381   5.892   0.898  22.754  0.0198  0.0506 -0.1052
20288W        W63382   4.000   2.961  21.092  0.0362  0.0091 -0.2647
20289W        W63383   5.882   1.745  21.266 -0.2644  0.2402 -0.1067
20290W        W63384   6.901   1.923  21.365 -0.0107 -0.0241  0.2591
20291W        W63385   6.962   1.515  20.673  0.2928  0.4629  0.1617
20292W        W63386   5.526   3.642  22.088 -0.5281  0.1200  0.0314
20293W        W63387   6.165   0.006  22.965  0.4922 -0.2171 -0.1325
20294W        W63388   4.250   3.393  21.586 -0.1483 -0.1734  0.0620
20295W        W63389   4.791   5.170  21.673 -0.2784  0.1483 -0.2934
20296W        W63390   3.205   1.323  23.144  0.0909 -0.0074 -0.0136
20297W        W63391   3.745   3.933  20.838 -0.3733  0.0849  0.0415
20298W        W63392   4.218  34.263  23.161 -0.1441 -0.0736 -0.2780
20299W        W63393   5.298   2.609  21.741  0.0522  0.3745  0.0031
20300W        W63394   4.767   0.272  20.066  0.0080 -0.2114  0.1139
20301W        W63395   4.693   0.250  22.906 -0.0180  0.3261 -0.1322
20302W        W63396   6.536  34.553  20.790 -0.2895 -0.0804  0.0953
20303W        W63397   2.970   1.703  21.628  0.0518  0.2118  0.0698
20304W        W63398   6.604   3.705  19.565  0.3848 -0.0238 -0.1125
20305W        W63399   6.898   1.951  20.205 -0.0753 -0.2973 -0.2258
20306W        W63400   5.708   1.152  18.729 -0.3030  0.1507  0.2338
20307W        W63401   4.423  34.099  21.212  0.1099  0.0908 -0.0884
20308W        W63402   4.033   1.353  20.319 -0.1471 -0.2932 -0.0528
20309W        W63403   4.406   0.380  21.831  0.0164 -0.1047  0.0696
20310W        W63404   4.291  34.522  20.540 -0.3270  0.3043  0.0261
20311W        W63405   7.439   0.258  22.928 -0.2306 -0.0847 -0.0146
20312W        W63406   3.763   0.541  20.610 -0.0935 -0.4729 -0.1438
20313W        W63407   6.231   0.715  20.740 -0.3200 -0.0001 -0.1458
20314W        W63408   5.689   1.884  20.404 -0.0103 -0.0200 -0.3534
20315W        W63409   3.513   2.011  21.897 -0.1124 -0.1440  0.0941
20316W        W63410   6.619   0.683  23.051 -0.1749 -0.1059  0.1166
20317W        W63411   5.356   3.208  20.050  0.1009  0.2582 -0.1596
20318W        W63412   7.063   2.406  21.465 -0.0990  0.1392  0.0767
20319W        W63413   4.983   3.459  21.167 -0.1524 -0.0861  0.0573
20320W        W63414   4.550   0.150  20.929 -0.1232 -0.1122 -0.1231
20321W        W63415   3.566   1.293  20.091  0.0646 -0.2842  0.0050
20322W        W63416   4.078   3.717  21.123  0.0183  0.2991  0.2227
20323W        W63417   4.732   1.797  21.799  0.2265  0.0089 -0.1237
20324W        W63418   5.684   0.161  18.438  0.0619 -0.0486  0.0202
20325W        W63419   6.792   3.911  21.364 -0.1987 -0.0325  0.1717
20326W        W63420   3.842   1.734  21.658  0.0294  0.0018  0.0486
20327W        W63421   3.813   4.048  22.920 -0.3279  0.1622  0.0044
20328W        W63422   6.538   0.870  21.132 -0.0486 -0.0030 -0.2039
20329W        W63423   6.789   1.508  22.800 -0.1996 -0.1534  0.2641
20330W        W63424   5.044   1.518  20.981  0.2783  0.0188 -0.0692
20331W        W63425   4.780  34.612  20.443  0.1580 -0.1285  0.4617
20332W        W63426   6.193   4.451  21.224 -0.3024  0.1666  0.1552
20333W        W63427   3.455   4.091  20.415  0.0640  0.0679 -0.3737
20334W        W63428   3.422   1.580  21.349  0.1645 -0.1574  0.2541
20335W        W63429   4.486   3.469  21.108 -0.0769  0.2891 -0.0287
20336W        W63430   5.674   0.785  20.692 -0.3182  0.1273  0.0440
20337W        W63431   4.225   1.279  23.131 -0.0710 -0.1273 -0.0282
20338W        W63432   5.472   1.321  21.872 -0.2836 -0.0226  0.1931
20339W        W63433   4.044   1.872  20.671 -0.1879 -0.2675  0.0679
20340W        W63434   5.232   3.237  22.371 -0.0237 -0.0988  0.4119
20341W        W63435   5.619   0.380  21.459 -0.2113  0.1083 -0.0324
20342W        W63436   6.211   1.408  19.727 -0.1451  0.0160 -0.1121
20343W        W63437   5.185   2.606  22.309  0.0104  0.1988 -0.0183
20344W        W63438   6.167   2.568  21.384  0.1323  0.0011 -0.0609
20345W        W63439   5.992   2.148  18.670  0.1251  0.1094  0.2002
20346W        W63440   6.958   0.234  19.208  0.0100  0.2122  0.1806
20347W        W63441   4.205   1.754  23.366 -0.2650 -0.0324 -0.0776
20348W        W63442   5.444   3.808  21.155  0.1903  0.1026  0.3479
20349W        W63443   6.140   2.349  22.581  0.0228 -0.1630  0.1818
20350W        W63444   5.054   0.634  19.017  0.1370  0.1018 -0.0576
20351W        W63445   5.997   1.969  20.786  0.0338  0.0576 -0.2055
20352W        W63446   4.157   2.978  22.238 -0.0091 -0.2049 -0.2189
20353W        W63447   5.945   2.324  23.074  0.1688  0.1002 -0.1471
20354W        W63448   5.714   2.404  20.538 -0.1886 -0.0220 -0.0533
20355W        W63449   5.161  34.124  22.719 -0.0933  0.2999 -0.0700
20356W        W63450   6.401   2.622  19.401  0.0642  0.0489 -0.2519
20357W        W63451   6.678   0.249  20.034  0.1864 -0.1308 -0.1183
20358W        W63452   4.899   2.462  21.432  0.1376  0.2020  0.1399
20359W        W63453   6.045   0.096  21.496 -0.1146  0.0430 -0.1245
20360W        W63454   6.290  33.101  20.839  0.2243 -0.2722  0.0745
20361W        W63455   6.350  33.953  21.945 -0.0572 -0.2175  0.1267
20362W        W63456   6.077   1.327  22.560  0.2082  0.0543 -0.1282
20363W        W63457   6.686   0.980  20.667 -0.1155  0.1432  0.0023
20364W        W63458   5.213   0.005  20.192  0.1458 -0.0658 -0.3491
20365W        W63459   6.141   2.677  19.908 -0.2913 -0.2469  0.3578
20366W        W63460   4.537   2.221  22.627 -0.2094 -0.2976 -0.0746
20367W        W63461   4.102   3.532  22.185 -0.2328 -0.1822  0.2206
20368W        W63462   5.622   3.328  22.793  0.0762  0.2031 -0.1432
20369W        W63463   7.013   2.721  23.777  0.1043  0.2226  0.1599
20370W        W63464   5.302   2.564  21.142 -0.1289  0.2986  0.0048
20371W        W63465   6.216   0.735  21.988 -0.1337 -0.2060 -0.2033
20372W        W63466   5.834   0.524  19.760 -0.0179 -0.1908  0.2539
20373W        W63467   4.959   3.590  22.073 -0.2242 -0.1899 -0.0887
20374W        W63468   4.858   4.140  21.671 -0.2763  0.0229 -0.4351
20375W        W63469   5.081   0.024  21.070  0.0687 -0.1932 -0.1431
20376W        W63470   4.373   2.698  21.362  0.0853  0.1032  0.0497
20377W        W63471   5.486   2.865  19.136 -0.0633  0.0247 -0.0965
20378W        W63472   5.823   1.949  22.642  0.0513  0.0948 -0.2112
20379W        W63473   4.295   3.112  20.692 -0.1614  0.1750 -0.1126
20380W        W63474   5.676  34.527  22.298 -0.0991  0.2936  0.2838
20381W        W63475   3.361   3.135  22.495 -0.1177  0.0288  0.0849
20382W        W63476   5.015   1.835  20.087 -0.0004  0.0118  0.1130
20383W        W63477   2.879   2.190  20.643  0.0483 -0.3658 -0.1206
20384W        W63478   5.052   0.260  21.579 -0.2207 -0.2101  0.2373
20385W        W63479   7.356   3.229  20.481  0.2189  0.0694 -0.2400
20386W        W63480   4.227   0.057  21.374 -0.0234  0.1437  0.1157
20387W        W63481   5.996   0.426  21.103  0.2601  0.0149 -0.0602
20388W        W63482   3.172   2.683  22.657  0.0995  0.1546 -0.0221
20389W        W63483   4.277   1.807  22.423 -0.0960 -0.2512  0.0630
20390W        W63484   5.356   1.853  21.190  0.0378  0.0064  0.0644
20391W        W63485   5.439   2.661  23.256  0.1770  0.1615  0.0939
20392W        W63486   4.299   2.260  24.606 -0.2905  0.1172  0.4284
20393W        W63487   4.479   0.252  19.641  0.0070  0.0157  0.1847
20394W        W63488   8.089  34.423  20.584  0.2183 -0.3485 -0.3928
20395W        W63489   5.080   2.568  20.560  0.2225 -0.0609 -0.0427
20396W        W63490   3.569   4.201  21.969 -0.0452 -0.2847  0.0842
20397W        W63491   5.494   2.165  21.974  0.0124  0.1462  0.0064
20398W        W63492   4.059   2.772  20.008 -0.0204  0.0438 -0.3038
20399W        W63493   5.366   2.214  20.778 -0.0943  0.1093  0.2033
20400W        W63494   5.618  34.306  24.199  0.2005 -0.0752 -0.2099
20401W        W63495   6.682   2.752  24.546 -0.2229  0.0770 -0.0569
20402W        W63496   4.857   1.199  21.860  0.0355 -0.1333 -0.0489
20403W        W63497   3.300   2.194  21.397  0.2453 -0.3709 -0.2504
20404W        W63498   6.441   1.678  20.456 -0.2394  0.0710  0.1945
20405W        W63499   6.961   1.636  22.178 -0.1367  0.1253 -0.1829
20406W        W63500   5.649  34.025  22.398  0.1855 -0.0205  0.0942
20407W        W63501   3.994   2.262  23.396  0.1657  0.5018  0.0083
20408W        W63502   4.686  33.601  20.929 -0.0808 -0.0258  0.0765
20409W        W63503   6.909   3.148  20.946 -0.0001  0.0560  0.0252
20410W        W63504   5.886   3.006  20.831 -0.3097 -0.1853 -0.0621
20411W        W63505   4.195   1.898  21.224 -0.0398  0.0185  0.1944
20412W        W63506   2.967   1.235  21.277  0.0896  0.1789 -0.2030
20413W        W63507   3.817   1.169  21.823 -0.1885 -0.1747  0.0492
20414W        W63508   5.589   0.290  22.858  0.0795  0.0082 -0.0952
20415W        W63509   2.805   3.441  20.936 -0.0849  0.1992 -0.1152
20416W        W63510   6.195   3.845  22.303 -0.0530  0.0119  0.1809
20417W        W63511   5.318   1.874  22.483 -0.1703 -0.0089 -0.3229
20418W        W63512   6.375  34.634  19.192  0.0351 -0.2327  0.1299
20419W        W63513   6.514   2.205  20.000  0.0831  0.1193 -0.2906
20420W        W63514   5.527  34.563  20.615 -0.3762  0.1977 -0.0714
20421W        W63515   6.406   0.684  22.606 -0.1699 -0.2807  0.1377
20422W        W63516   6.009   1.470  20.236  0.0729  0.0415  0.2050
20423W        W63517   6.018   1.789  23.745 -0.1253 -0.1568  0.2723
20424W        W63518   5.391   0.500  20.978 -0.0866  0.0978 -0.0217
20425W        W63519   6.328   3.839  20.888 -0.0082  0.1504 -0.2212
20426W        W63520   3.899   0.274  21.725  0.0392 -0.0188  0.1125
20427W        W63521   6.594   1.500  23.450  0.0709  0.1001 -0.0615
20428W        W63522   4.529   0.988  22.805  0.0780 -0.3742  0.1587
20429W        W63523   6.666   1.876  20.899 -0.0369 -0.1304 -0.1564
20430W        W63524   3.797  33.087  20.415 -0.0043  0.2513 -0.1360
20431W        W63525   3.993   2.229  21.653 -0.0971  0.1821  0.1538
20432W        W63526   6.138   1.597  22.926 -0.0734  0.0698  0.3500
20433W        W63527   4.936   3.068  20.247 -0.4024  0.1141 -0.1326
20434W        W63528   7.203  34.579  21.335  0.2917  0.1639 -0.1909
20435W        W63529   3.031   0.989  22.392 -0.0479  0.2318 -0.0570
20436W        W63530   6.195   2.992  21.742 -0.0552 -0.2400 -0.1529
20437W        W63531   5.935   1.044  19.849  0.1877 -0.0027  0.2154
20438W        W63532   3.865   3.214  22.555  0.1150 -0.2139 -0.1262
20439W        W63533   5.583  34.018  21.331 -0.0673 -0.0053  0.0315
20440W        W63534   4.350   1.401  21.764  0.1786 -0.1530  0.0143
20441W        W63535   5.785  34.298  20.928  0.0706 -0.3194  0.3874
20442W        W63536   6.541   1.479  21.955  0.0447  0.0590  0.4240
20443W        W63537   5.598   1.522  22.837  0.0361  0.0605 -0.3339
20444W        W63538   5.996   0.328  22.607 -0.2263 -0.0609  0.0982
20445W        W63539   4.014   0.741  22.153  0.2377  0.0565 -0.0730
20446W        W63540   6.032   3.182  22.517  0.0034  0.0690 -0.2154
20447W        W63541   7.313   0.829  20.242  0.3429 -0.0566 -0.1087
20448W        W63542   6.542   0.340  21.307  0.3755  0.2462 -0.0872
20449W        W63543   6.579   2.226  21.519 -0.1678  0.0204  0.2408
20450W        W63544   5.318   1.387  20.576 -0.0839  0.1742 -0.0674
20451W        W63545   3.867   0.914  21.003 -0.0053 -0.0586 -0.0083
20452W        W63546   7.035   1.608  23.348  0.2252  0.1611  0.1399
20453W        W63547   6.714   1.843  19.101 -0.0114  0.1070 -0.0025
20454W        W63548   5.912   1.793  23.308 -0.0475  0.0701 -0.0437
20455W        W63549   5.776   2.979  19.969 -0.2751  0.2194  0.0436
20456W        W63550   5.511   3.258  21.207 -0.4054  0.0097 -0.0395
20457W        W63551   4.505   1.011  19.749 -0.3683  0.0940  0.1565
20458W        W63552   4.558   0.695  20.544 -0.1148  0.3263  0.0159
20459W        W63553   4.520   3.484  23.054  0.1933 -0.5169 -0.2289
20460W        W63554   3.703   1.962  21.091  0.3037  0.0436 -0.0697
20461W        W63555   5.182   2.217  19.797  0.1426  0.3636 -0.1715
20462W        W63556   6.493   1.988  22.886 -0.1846  0.1210  0.2842
20463W        W63557   6.557   0.248  22.797  0.3186 -0.3493 -0.0332
20464W        W63558   5.907  33.451  19.950  0.1399  0.1526 -0.2782
20465W        W63559   5.681   2.251  23.490  0.1691 -0.1902  0.3776
20466W        W63560   4.066   2.099  19.671 -0.0401  0.0056  0.0204
20467W        W63561   6.102  33.939  20.703  0.0662 -0.0897  0.2214
20468W        W63562   5.804   4.113  22.347  0.4424 -0.1499  0.2141
20469W        W63563   3.979   2.549  24.015 -0.2177 -0.1950  0.2083
20470W        W63564   5.554   1.751  21.691  0.1223 -0.3950 -0.1046
20471W        W63565   4.151  33.108  23.063 -0.4331  0.3490  0.1598
20472W        W63566   6.176   0.588  21.524  0.2327  0.2473  0.0871
20473W        W63567   5.319   0.878  21.513 -0.2933  0.0467  0.0995
20474W        W63568   7.386   1.971  22.310 -0.2198  0.3720  0.2181
20475W        W63569   7.522   1.812  23.193  0.4110  0.0512 -0.4019
20476W        W63570   4.039   2.822  22.909  0.2007 -0.0635 -0.1269
20477W        W63571   7.256   2.796  22.052 -0.3679  0.1800 -0.1837
20478W        W63572   5.947   3.630  21.713  0.1014 -0.0770  0.0613
20479W        W63573   4.510   2.167  21.590  0.1336 -0.0966 -0.2203
20480W        W63574   4.019   0.721  21.457 -0.1024  0.2576 -0.5085
20481W        W63575   5.703  34.122  23.193 -0.3549  0.0403 -0.0647
20482W        W63576   3.675   2.736  22.570 -0.1117  0.4295 -0.3413
20483W        W63577   3.569  34.663  19.899 -0.0180  0.0781  0.0325
20484W        W63578   4.712   2.380  20.935 -0.0817 -0.1193 -0.2205
20485W        W63579   3.702   3.712  23.727 -0.1242 -0.0026  0.1680
20486W        W63580   3.348   1.105  21.582  0.2077 -0.1865  0.1363
20487W        W63581   4.514   3.793  21.964  0.0458  0.0092  0.0956
20488W        W63582   6.474   3.576  20.446 -0.2309 -0.1131 -0.0378
20489W        W63583   5.244   0.989  19.945  0.0235  0.0248 -0.1082
20490W        W63584   7.160   4.312  22.731  0.0216  0.0431 -0.0473
20491W        W63585   4.461   1.260  20.151 -0.0880 -0.1087  0.1207
20492W        W63586   3.825   3.800  21.622  0.2091  0.3612  0.0706
20493W        W63587   3.528   4.468  21.199  0.0616 -0.1131  0.1329
20494W        W63588   6.316   3.150  20.011  0.1515 -0.0690 -0.1586
20495W        W63589   4.533   2.816  21.858  0.0116 -0.1139  0.3289
20496W        W63590   7.652   3.247  25.055 -0.0995  0.1343  0.0383
20497W        W63591   6.874   1.183  20.274  0.1657 -0.1518  0.1141
20498W        W63592   6.469   1.144  21.614  0.0078  0.0392 -0.0373
20499W        W63593   5.345   0.339  19.367 -0.1314  0.4227  0.1966
20500W        W63594   5.357   1.722  24.326  0.1001 -0.0265 -0.2390
20501W        W63595   4.636   2.776  22.353  0.4370 -0.0914 -0.2054
20502W        W63596   5.585  33.931  19.821  0.2738  0.1527 -0.1678
20503W        W63597   4.520   1.934  23.073  0.2328  0.2331 -0.0855
20504W        W63598   7.066   0.260  22.310  0.0462 -0.0873 -0.2061
20505W        W63599   3.600   4.734  24.067  0.0103  0.0018 -0.1671
20506W        W63600   6.028   3.837  20.476 -0.0351 -0.0285  0.0494
20507W        W63601   3.496   2.436  20.652  0.2421 -0.3428  0.1271
20508W        W63602   4.186   1.884  21.935  0.3320  0.1013 -0.3414
20509W        W63603   6.557  34.478  19.620 -0.1757 -0.1791  0.0861
20510W        W63604   5.441   1.570  20.068  0.2628 -0.2665 -0.2801
20511W        W63605   6.141   1.187  21.246 -0.2572  0.3232 -0.4856
20512W        W63606   5.747   3.544  20.021 -0.0481 -0.1908  0.1844
20513W        W63607   4.866   2.472  21.971 -0.1181 -0.2037 -0.2466
20514W        W63608   5.217   3.087  23.530  0.2022  0.1592  0.0078
20515W        W63609   4.803  34.384  20.903  0.3372  0.1970  0.0307
20516W        W63610   7.341  33.713  21.085 -0.1263 -0.1439 -0.0570
20517W        W63611   4.831   0.719  21.691  0.1279  0.1103  0.1760
20518W        W63612   6.345   0.281  22.263 -0.1062 -0.1519 -0.1106
20519W        W63613   3.091   1.250  20.270 -0.1523 -0.1193  0.2731
20520W        W63614   6.091   2.112  21.630 -0.1291 -0.3408  0.2133
20521W        W63615   5.689   1.605  22.249  0.1647 -0.0182 -0.1275
20522W        W63616   4.130   0.070  22.129 -0.3086  0.1190 -0.1307
20523W        W63617   4.827   0.792  20.117  0.1823 -0.0507  0.0405
20524W        W63618   6.493   1.983  23.361  0.0917  0.0912  0.0404
20525W        W63619   5.512   1.595  19.056  0.2461 -0.0040  0.1631
20526W        W63620   5.683   3.092  23.226  0.0337  0.3503  0.0149
20527W        W63621   6.221  33.816  20.206  0.2264 -0.2148 -0.2451
20528W        W63622   5.359   1.102  19.200 -0.1953 -0.0730  0.0810
20529W        W63623   4.938   0.691  20.893 -0.0628 -0.1823 -0.0934
20530W        W63624   5.316   1.064  20.986 -0.0878  0.0009 -0.1594
20531W        W63625   6.581   3.487  24.353  0.0910  0.2854 -0.1583
20532W        W63626   4.277  33.274  20.263 -0.2063 -0.2655  0.0049
20533W        W63627   6.721   2.762  20.767  0.1625  0.0094 -0.1909
20534W        W63628   5.752   0.856  21.222 -0.3118  0.0286  0.2237
20535W        W63629   4.398   3.836  18.327  0.0188  0.1296 -0.0086
20536W        W63630   5.636   1.068  20.271 -0.1240 -0.0635  0.0894
20537W        W63631   6.850   3.409  21.921  0.1716 -0.0520 -0.2136
20538W        W63632   4.582  34.204  22.244 -0.1033  0.1853 -0.1325
20539W        W63633   6.376   2.754  22.713  0.0876  0.0995  0.3783
20540W        W63634   8.215   2.885  22.461  0.1640  0.1737  0.1453
20541W        W63635   6.111  33.374  20.402  0.0453 -0.3816 -0.1534
20542W        W63636   6.373   1.726  21.424 -0.1037 -0.3513 -0.0416
20543W        W63637   5.059   3.773  20.803  0.0160  0.4132  0.1471
20544W        W63638   6.658   0.303  20.803  0.0405  0.0803 -0.0625
20545W        W63639   5.218   0.914  22.124 -0.3428  0.4008  0.0486
20546W        W63640   4.636   3.688  17.881 -0.0139  0.1003 -0.2366
20547W        W63641   5.937  34.269  23.602  0.1203 -0.1365 -0.1445
20548W        W63642   5.652   2.877  22.347 -0.1427 -0.0689 -0.2531
20549W        W63643   5.008   4.568  24.966  0.0520  0.0989  0.0789
20550W        W63644   4.166   0.652  19.641  0.1469  0.2209  0.1890
20551W        W63645   4.781   1.521  23.261 -0.1735 -0.1617 -0.1223
20552W        W63646   5.813   2.289  20.085  0.1980  0.2636 -0.0481
20553W        W63647   5.102   3.094  20.854  0.1967 -0.0207 -0.2663
20554W        W63648   6.874   1.937  22.538  0.1975 -0.1100 -0.0681
20555W        W63649   5.239   1.548  19.513 -0.1800 -0.2702 -0.0815
20556W        W63650   7.784   1.311  23.551 -0.2563  0.1722  0.2106
20557W        W63651   5.001  33.839  19.071  0.0744  0.0332  0.3902
20558W        W63652   6.226   1.575  20.962 -0.0692  0.0870 -0.0122
20559W        W63653   5.776   0.917  21.748  0.1504 -0.1168  0.0134
20560W        W63654   5.483   2.104  23.028 -0.0209  0.0937 -0.0399
20561W        W63655   2.627   1.107  21.661  0.3117  0.1502 -0.0961
20562W        W63656   4.393   2.216  20.577  0.2116 -0.1729  0.0242
20563W        W63657   4.678   1.390  22.264  0.0062 -0.0278  0.1692
20564W        W63658   6.945  33.437  23.999 -0.0897 -0.0771  0.4527
20565W        W63659   4.714  33.932  23.281 -0.0102  0.2175  0.1375
20566W        W63660   4.886   0.494  22.122 -0.2599 -0.0124  0.2364
20567W        W63661   3.347   0.452  19.857  0.1630 -0.2261 -0.1094
20568W        W63662   6.719   3.375  19.941  0.0325  0.0247  0.0627
20569W        W63663   4.587   0.467  21.343  0.2233 -0.0258  0.0708
20570W        W63664   4.985  34.145  20.501  0.2668  0.1841  0.0191
20571W        W63665   6.667   4.286  21.065 -0.2005  0.0550 -0.0338
20572W        W63666   6.021   2.056  22.129  0.2307  0.0885 -0.2650
20573W        W63667   5.249   0.632  20.384  0.1531 -0.0448 -0.1340
20574W        W63668   8.105   2.527  23.313 -0.0150  0.1635 -0.0590
20575W        W63669   3.588   1.979  19.403  0.0602  0.0993  0.0045
20576W        W63670   5.116   0.437  22.645  0.2288  0.1539 -0.3157
20577W        W63671   5.425   0.792  22.621  0.0900  0.0017 -0.1190
20578W        W63672   3.902   0.105  20.871  0.0597  0.2821  0.0482
20579W        W63673   5.543   1.335  21.322 -0.2218 -0.0178 -0.0481
20580W        W63674   5.723   3.506  20.798 -0.0675 -0.0821  0.1828
20581W        W63675   5.861   4.121  20.992 -0.2342  0.1689 -0.2832
20582W        W63676   4.968   2.188  23.202  0.2657 -0.2097  0.1396
20583W        W63677   7.419   3.888  22.662 -0.1909  0.1673  0.3133
20584W        W63678   3.266  32.579  24.627  0.2901 -0.1241  0.2601
20585W        W63679   4.732   3.595  21.563  0.2905 -0.0250  0.1996
20586W        W63680   3.551   2.699  23.469 -0.0927  0.1599  0.0706
20587W        W63681   6.353   3.118  20.579 -0.3229  0.0052 -0.2741
20588W        W63682   6.486   0.286  21.837 -0.1133 -0.3082  0.3101
20589W        W63683   5.728   1.308  20.838  0.2537 -0.1443  0.2009
20590W        W63684   4.954  33.501  22.755 -0.0987  0.1224 -0.1085
20591W        W63685   3.917   2.154  22.582 -0.1616 -0.4412  0.2945
20592W        W63686   6.907   3.371  21.441  0.0711  0.0947 -0.0723
20593W        W63687   4.132   2.384  21.031 -0.0321  0.2471 -0.0225
20594W        W63688   6.698   1.320  21.024 -0.1025  0.0401 -0.0759
20595W        W63689   5.613   2.281  21.481  0.0626 -0.2934  0.5507
20596W        W63690   4.488   2.231  22.148  0.0938  0.0333  0.2113
20597W        W63691   4.885   0.357  20.555  0.0595  0.1515 -0.0414
20598W        W63692   6.409   2.806  23.501  0.2257  0.0725 -0.0653
20599W        W63693   5.057   2.380  22.740  0.1583  0.0086  0.0568
20600W        W63694   6.298   1.756  22.400  0.3210  0.1160  0.2527
20601W        W63695   4.851   2.395  20.160 -0.0398 -0.0700  0.1164
20602W        W63696   6.389   2.286  20.623 -0.0593  0.0983  0.3780
20603W        W63697   5.506   4.978  23.503  0.0450 -0.2324  0.0000
20604W        W63698   6.610   2.681  25.061 -0.0279 -0.2532 -0.2463
20605W        W63699   6.565   3.545  23.130  0.1788  0.2646 -0.0560
20606W        W63700   6.482   1.935  19.536  0.2502 -0.0656 -0.0663
20607W        W63701   4.705   0.055  22.428 -0.2780 -0.0778  0.1654
20608W        W63702   4.859   2.023  21.203  0.2212  0.0574  0.1475
20609W        W63703   5.324   3.278  21.749 -0.1518  0.1792  0.2533
20610W        W63704   5.385   1.282  22.410  0.0539  0.0632 -0.0048
20611W        W63705   3.887   0.338  20.110 -0.2468  0.0603  0.1835
20612W        W63706   6.082  34.680  21.017  0.3198  0.1316 -0.0741
20613W        W63707   5.018   3.371  23.052 -0.0005  0.1420 -0.1736
20614W        W63708   4.785   1.885  22.304 -0.0383  0.1110  0.0480
20615W        W63709   3.914   3.129  26.192  0.1078 -0.0965 -0.2563
20616W        W63710   5.603  34.486  25.046 -0.0532  0.2400 -0.1336
20617W        W63711   6.375   1.108  22.915  0.1405  0.0654 -0.0541
20618W        W63712   6.222   1.798  24.622 -0.1953  0.0660 -0.2569
20619W        W63713   4.165   0.460  23.624  0.0126 -0.1168 -0.0668
20620W        W63714   7.549   3.592  24.067  0.3145 -0.3002  0.0974
20621W        W63715   5.027  34.137  25.656  0.1252  0.0419 -0.1843
20622W        W63716   6.157   3.111  25.827 -0.0739  0.1067 -0.3078
20623W        W63717   7.205   2.778  25.889  0.0765  0.2236 -0.1424
20624W        W63718   3.583   2.112  24.639  0.1233 -0.1356 -0.2394
20625W        W63719   6.092   2.214  24.909 -0.0492 -0.1992  0.3969
20626W        W63720   7.112   2.220  27.488 -0.1394  0.1246 -0.0218
20627W        W63721   5.161  33.635  23.831  0.2720 -0.0879 -0.0256
20628W        W63722   4.245  33.759  23.632  0.0858  0.0234  0.0170
20629W        W63723   7.286   1.862  25.172 -0.3434  0.2000 -0.2080
20630W        W63724   3.872   2.541  24.987  0.0333  0.1880  0.3875
20631W        W63725   3.879   1.215  25.456  0.1018 -0.4877  0.0499
20632W        W63726   4.600   0.659  23.984 -0.2036  0.0539  0.2735
20633W        W63727   5.648   3.011  25.432  0.2644  0.1208 -0.2852
20634W        W63728   6.312  33.769  27.005 -0.0725 -0.0926 -0.1337
20635W        W63729   6.620   1.264  26.428  0.1443 -0.1154 -0.1938
20636W        W63730   5.924   4.603  24.834 -0.3509 -0.2102 -0.0503
20637W        W63731   4.527   1.474  22.750  0.0067 -0.7067  0.1597
20638W        W63732   2.878   0.480  24.306 -0.1961 -0.2124 -0.1705
20639W        W63733   5.667   0.133  25.479  0.0729  0.1629 -0.1771
20640W        W63734   5.554   0.958  24.859 -0.1694  0.0579 -0.3595
20641W        W63735   7.114   2.152  24.472  0.0418  0.2398  0.0996
20642W        W63736   5.372   4.172  25.681 -0.0755  0.2550  0.2895
20643W        W63737   6.229   3.208  27.234 -0.0551  0.1099  0.2547
20644W        W63738   6.525   1.291  28.141  0.0023 -0.1280 -0.0510
20645W        W63739   3.730   1.321  24.984 -0.0603  0.2145 -0.1389
20646W        W63740   4.115   3.015  24.255  0.0290 -0.1245  0.0082
20647W        W63741   3.492   3.310  25.131  0.0544 -0.1279 -0.0122
20648W        W63742   8.785   3.148  24.109  0.1482 -0.1931 -0.2105
20649W        W63743   6.810   3.685  27.427 -0.0685  0.0410 -0.0711
20650W        W63744   5.804   3.615  26.540 -0.1746 -0.1061 -0.2156
20651W        W63745   4.145   4.480  23.857 -0.0857  0.0104 -0.1094
20652W        W63746   7.253   4.295  25.297  0.1529 -0.0137 -0.0171
20653W        W63747   5.085   3.088  26.634  0.1553  0.0031 -0.0322
20654W        W63748   5.080   2.774  25.543  0.2636  0.0645  0.0826
20655W        W63749   5.541   1.096  24.386  0.1867 -0.2337 -0.0258
20656W        W63750   5.297   2.948  24.171 -0.0394  0.0613 -0.1729
20657W        W63751   4.782   3.730  25.208 -0.0364 -0.2178  0.1161
20658W        W63752   5.009   2.579  26.766 -0.2381 -0.1163  0.2561
20659W        W63753   5.093   1.722  25.094 -0.0291  0.0296  0.2674
20660W        W63754   9.147   1.751  26.234 -0.1807  0.0874  0.3373
20661W        W63755   3.761   3.016  23.906  0.0842  0.0542  0.1553
20662W        W63756   6.287   1.557  24.121  0.0422 -0.0331 -0.1973
20663W        W63757   5.229   0.405  25.729  0.1182 -0.0730  0.2239
20664W        W63758   6.194   1.271  23.693  0.0910 -0.1300 -0.3806
20665W        W63759   5.397   0.846  26.210 -0.1727  0.0117 -0.0624
20666W        W63760   5.176   4.625  25.473 -0.2156  0.2212 -0.4332
20667W        W63761   6.514   1.447  24.821  0.1389  0.0813 -0.2125
20668W        W63762   6.940   3.220  27.667  0.0259  0.0503 -0.1358
20669W        W63763   4.810   1.094  23.764  0.2988  0.0455 -0.2587
20670W        W63764   4.746   1.516  26.342  0.2040  0.0152 -0.1444
20671W        W63765   5.440   2.820  25.928  0.2508  0.1046 -0.1625
20672W        W63766   3.354  34.216  24.345  0.0564 -0.0045  0.0950
20673W        W63767   6.208   3.163  23.091 -0.0272  0.0879 -0.1748
20674W        W63768   9.031   4.484  24.768  0.1115  0.1259  0.0231
20675W        W63769   6.069   3.247  24.683 -0.0535 -0.2489 -0.0587
20676W        W63770   4.734   1.376  25.112  0.0499 -0.0151  0.3288
20677W        W63771   4.439   1.084  26.458 -0.4582 -0.1355  0.0996
20678W        W63772   3.427  34.080  23.826 -0.2665  0.1414 -0.0036
20679W        W63773   5.114  34.114  24.184 -0.0188  0.0731  0.0579
20680W        W63774   6.787   3.218  26.586  0.3000 -0.1069 -0.2175
20681W        W63775   4.017   3.607  25.940  0.1190 -0.0656  0.0263
20682W        W63776   4.883  33.752  24.854  0.0972 -0.2730 -0.0118
20683W        W63777   5.039   1.103  24.656 -0.2108 -0.0168 -0.1763
20684W        W63778   7.337   3.686  26.039 -0.2194  0.2069 -0.1958
20685W        W63779   5.374   1.120  23.954  0.0578  0.1544 -0.1656
20686W        W63780   6.951   0.900  24.971  0.1820  0.2638 -0.0747
20687W        W63781   5.848   0.681  26.418 -0.0191 -0.1000  0.0864
20688W        W63782   4.452   2.812  23.731  0.3320 -0.1313  0.3262
20689W        W63783   4.819   1.300  25.783 -0.0986  0.0512  0.0573
20690W        W63784   8.104   3.046  27.223  0.1312 -0.0383 -0.1434
20691W        W63785   7.697   1.924  24.339  0.2698 -0.0355 -0.0163
20692W        W63786   4.762   3.166  25.603 -0.0065  0.0733  0.3747
20693W        W63787   4.720   1.050  27.207 -0.4214  0.0662  0.0089
20694W        W63788   5.820   3.338  27.973 -0.2530  0.1090 -0.0289
20695W        W63789   3.546   3.804  24.246 -0.3825  0.4562  0.0217
20696W        W63790   1.829   2.242  25.352 -0.1752 -0.3762  0.0718
20697W        W63791   3.990   2.056  24.247  0.3882 -0.0915 -0.2939
20698W        W63792   3.838   0.743  25.841  0.1258 -0.1896 -0.1266
20699W        W63793   5.678   3.469  25.212 -0.3364 -0.1439  0.0119
20700W        W63794   5.441   0.368  23.663  0.1146  0.1129  0.1757
20701W        W63795   4.572   0.718  26.815 -0.1076 -0.0553  0.0962
20702W        W63796   6.667   0.450  25.613 -0.1051 -0.0647 -0.0713
20703W        W63797   3.762   3.026  24.876  0.2493  0.0737  0.1410
20704W        W63798   8.044   4.630  24.888 -0.2163 -0.1416  0.2570
20705W        W63799   6.790   2.396  24.160  0.2334  0.1387 -0.1355
20706W        W63800   5.691   1.988  24.655  0.0653  0.3982 -0.1756
20707W        W63801   4.641  33.974  25.318 -0.1634  0.0814  0.2585
20708W        W63802   5.421   1.447  24.778 -0.1378 -0.0527  0.0563
20709W        W63803   4.412   1.358  27.044  0.1400 -0.4242 -0.0653
20710W        W63804   5.782   0.541  25.252  0.3881  0.2480 -0.0459
20711W        W63805   6.513   1.940  26.546  0.2136 -0.0798 -0.2812
20712W        W63806   4.234   0.018  25.008 -0.0720  0.0347  0.2543
20713W        W63807   5.711  34.646  23.797  0.2010  0.0421  0.0217
20714W        W63808   4.191   2.863  25.240 -0.3587  0.1948  0.2344
20715W        W63809   3.370   2.197  24.216  0.1524  0.2188  0.0143
20716W        W63810   7.784   0.916  26.444 -0.0339  0.0748 -0.0237
20717W        W63811   6.731   3.023  25.907  0.0538  0.1581  0.2254
20718W        W63812   7.798   3.891  26.837  0.3304 -0.1637 -0.0295
20719W        W63813   6.639   2.241  24.814 -0.1556  0.4104  0.1431
20720W        W63814   5.315  33.910  26.850  0.2220 -0.0529 -0.0469
20721W        W63815   5.013   1.242  22.868 -0.1659 -0.0042  0.2898
20722W        W63816   4.899   3.444  26.059 -0.0086  0.0749  0.0350
20723W        W63817   5.788   2.975  24.984  0.0670  0.1833  0.1164
20724W        W63818   4.600   0.085  23.589 -0.0063 -0.0417  0.0817
20725W        W63819   7.679   4.827  25.186  0.5467  0.0366 -0.4096
20726W        W63820   5.059   0.278  25.164  0.1236 -0.0035 -0.1169
20727W        W63821   3.291   1.976  27.284 -0.2116  0.1922 -0.0539
20728W        W63822   5.950  34.528  25.853  0.0974  0.0641 -0.1829
20729W        W63823   7.154   2.595  26.914 -0.3334  0.1983  0.0332
20730W        W63824   5.944   1.442  24.975  0.0868  0.1659 -0.1568
20731W        W63825   4.356  34.325  21.691 -0.3967 -0.0489  0.1473
20732W        W63826   6.452   4.668  24.820 -0.0014 -0.1084 -0.0267
20733W        W63827   4.624   4.407  24.074  0.0622 -0.0424  0.1528
20734W        W63828   3.319   2.542  24.688  0.0652  0.0616  0.0619
20735W        W63829   5.117   3.673  25.541  0.2048  0.2187  0.0024
20736W        W63830   6.313   0.062  25.450 -0.1549  0.1050 -0.3750
20737W        W63831   3.742   1.633  27.112 -0.0566  0.1320 -0.5203
20738W        W63832   6.686   2.332  26.257 -0.0445  0.1367 -0.2718
20739W        W63833   4.528   0.743  24.477 -0.0910  0.0080 -0.2911
20740W        W63834   4.225   1.438  25.031  0.1567  0.2843 -0.1752
20741W        W63835   6.109  34.355  25.229 -0.0703 -0.1661  0.1497
20742W        W63836   7.380   1.293  23.015  0.1415  0.0509  0.0418
20743W        W63837   5.871   1.507  25.482 -0.0612 -0.1902 -0.1774
20744W        W63838   7.804   3.251  23.735 -0.0451  0.2338  0.0410
20745W        W63839   6.014   1.189  23.234 -0.2210  0.0776  0.4369
20746W        W63840   5.597  33.783  23.557  0.2638 -0.0802 -0.1440
20747W        W63841   5.161   1.273  27.155  0.3114 -0.0446 -0.3537
20748W        W63842   7.239   2.983  25.302 -0.0756 -0.2282  0.0187
20749W        W63843   4.469   3.351  25.172  0.1180 -0.1906  0.0589
20750W        W63844   5.927   0.432  23.544  0.2575 -0.2231 -0.4177
20751W        W63845   6.675   2.432  23.616  0.0607 -0.1114 -0.0477
20752W        W63846   3.528   2.223  25.253  0.0033 -0.0415 -0.1108
20753W        W63847   5.409   3.590  27.367 -0.1693  0.4121 -0.1681
20754W        W63848   6.233   2.747  24.782 -0.1686  0.2387 -0.0574
20755W        W63849   6.935   1.142  25.649 -0.0691 -0.1967  0.4667
20756W        W63850   5.506   1.812  23.797  0.0846  0.0531  0.1633
20757W        W63851   5.489  34.610  25.868 -0.1492 -0.0006  0.2672
20758W        W63852   5.296   5.138  25.597 -0.3713  0.0531  0.2286
20759W        W63853   6.340   1.380  25.414 -0.3059  0.0097  0.1504
20760W        W63854   6.627   0.922  26.031 -0.0920  0.0460 -0.0594
20761W        W63855   5.874  34.100  26.791  0.0926  0.1054  0.1545
20762W        W63856   5.469   1.885  28.572  0.0976 -0.1677  0.0885
20763W        W63857   6.992   0.720  23.517  0.1690  0.0423 -0.1559
20764W        W63858   5.897   2.160  25.567 -0.0189  0.1888 -0.0333
20765W        W63859   5.106   0.820  23.102 -0.1039  0.3290  0.1243
20766W        W63860   6.096   1.164  26.403 -0.0396  0.0107 -0.2369
20767W        W63861   4.312   1.687  24.538  0.3275 -0.1961  0.0816
20768W        W63862   4.179   1.881  25.467  0.4713  0.2893  0.0392
20769W        W63863   5.870   2.387  26.907  0.0041  0.1333 -0.0181
20770W        W63864   5.906   2.651  25.764 -0.0914 -0.0535  0.1075
20771W        W63865   6.380   2.883  26.385 -0.0597  0.1411 -0.2314
20772W        W63866   5.408  34.143  24.613  0.2311 -0.0214 -0.1155
20773W        W63867   5.842   3.837  24.300 -0.0020  0.1680  0.1442
20774W        W63868   3.893   3.457  24.149 -0.1202  0.5393  0.0315
20775W        W63869   5.548   0.283  24.950 -0.1401 -0.0012  0.0278
20776W        W63870   6.320   2.558  27.169 -0.0069 -0.3038  0.0932
20777W        W63871   4.882   1.656  24.665  0.2772  0.0262  0.0937
20778W        W63872   6.582   1.907  26.008  0.2199 -0.2914 -0.3385
20779W        W63873   4.917   2.710  23.617  0.0165  0.0787 -0.0085
20780W        W63874   6.543  34.317  26.442 -0.1688  0.1886  0.1791
20781W        W63875   4.125   3.327  25.534  0.0290  0.0656  0.0440
20782W        W63876   5.749  34.494  22.807 -0.2638 -0.3828  0.2907
20783W        W63877   2.636   1.845  25.663 -0.2268  0.2279  0.0066
20784W        W63878   6.832  34.410  24.180  0.2106 -0.0232  0.0909
20785W        W63879   5.063   2.239  25.232  0.1653 -0.0196 -0.2065
20786W        W63880   3.525   0.698  26.716 -0.0874 -0.0600 -0.0737
20787W        W63881   5.371   1.374  25.661  0.2852 -0.0828  0.1212
20788W        W63882   4.636   2.616  25.783  0.1083 -0.1895  0.1221
20789W        W63883   6.002   0.451  25.714  0.0208 -0.2264 -0.2387
20790W        W63884   7.140  34.066  22.585  0.1108 -0.1989 -0.3903
20791W        W63885   5.087   2.389  25.864  0.4144 -0.0618  0.0297
20792W        W63886   4.185   2.269  27.438  0.0946 -0.2179 -0.0292
20793W        W63887   4.684   0.126  24.819  0.0421  0.0585  0.0732
20794W        W63888   6.836   1.795  25.538 -0.0655 -0.0247  0.2162
20795W        W63889   5.931  34.273  24.702 -0.0487  0.0739  0.0855
20796W        W63890   3.159   1.773  24.452 -0.0025 -0.1824  0.3166
20797W        W63891   6.069   2.833  26.799 -0.0534  0.0581 -0.1902
20798W        W63892   5.160   1.202  23.400 -0.2208  0.2421 -0.5764
20799W        W63893   5.385   3.209  24.696 -0.1881  0.0390 -0.4304
20800W        W63894   4.997   0.580  26.290 -0.0783  0.0057 -0.1472
20801W        W63895   6.070   2.289  27.525 -0.1268  0.0678 -0.2657
20802W        W63896   5.753   1.273  25.917  0.0004  0.0113  0.0435
20803W        W63897   3.360   0.524  24.155  0.0190 -0.0888  0.0002
20804W        W63898   5.193   0.760  23.605 -0.2732 -0.5027  0.0960
20805W        W63899   7.208   2.336  26.247  0.1687 -0.3263  0.4712
20806W        W63900   6.185   2.400  26.583 -0.0658 -0.2136 -0.1167
20807W        W63901   5.380   2.778  27.496 -0.0733  0.0104 -0.2536
20808W        W63902   6.236   1.631  26.224  0.0700  0.1737 -0.0044
20809W        W63903   7.507   3.977  25.718 -0.3099  0.2261  0.0247
20810W        W63904   6.667   2.828  26.835 -0.0296 -0.1073 -0.2294
20811W        W63905   5.141   2.305  23.649 -0.0320  0.1606  0.1069
20812W        W63906   3.661   0.741  24.563  0.0989  0.1262 -0.0762
20813W        W63907   5.516   2.301  24.227 -0.1072  0.3386  0.2286
20814W        W63908   6.025   0.840  26.827  0.4686  0.0122  0.0516
20815W        W63909   5.660   1.111  25.279 -0.2400  0.5653  0.0637
20816W        W63910   3.846   2.518  24.472 -0.1325 -0.0206  0.0599
20817W        W63911   2.931   2.085  26.944  0.1733  0.0791 -0.0377
20818W        W63912   6.514   1.018  23.396 -0.2411  0.0458 -0.1093
20819W        W63913   6.049   3.820  25.171 -0.0456  0.0449  0.3438
20820W        W63914   5.951   0.785  24.168 -0.2215  0.0480  0.3067
20821W        W63915   7.203   0.547  24.449  0.1261 -0.1160 -0.0598
20822W        W63916   4.616   1.897  24.997  0.2688  0.1360  0.3516
20823W        W63917   7.202   0.719  27.470  0.0227  0.1372  0.1498
20824W        W63918   5.582   1.065  26.624 -0.1796 -0.1738  0.0000
20825W        W63919   7.044   3.406  25.081  0.1058 -0.0443  0.3274
20826W        W63920   4.835   0.851  25.265  0.2207  0.1466 -0.4217
20827W        W63921   6.064   2.905  28.996 -0.1791 -0.0885  0.2908
20828W        W63922   5.283   2.163  28.181 -0.2415  0.3648 -0.0780
20829W        W63923   6.003   0.107  24.990 -0.1618  0.0839 -0.0630
20830W        W63924   4.883  34.527  24.421 -0.0099 -0.2244 -0.0754
20831W        W63925   5.514   2.562  25.431  0.1936 -0.0888 -0.1435
20832W        W63926   7.501   3.589  25.416  0.0773  0.0876 -0.0822
20833W        W63927   5.311   1.679  23.242  0.0443  0.1182 -0.0129
20834W        W63928   6.672   1.945  24.267 -0.0846  0.4852  0.0789
20835W        W63929   3.617   2.013  25.769 -0.0020 -0.2151  0.3172
20836W        W63930   5.029   1.342  24.256  0.2448  0.1155 -0.1236
20837W        W63931   5.414   2.684  24.630  0.0305  0.0765 -0.0743
20838W        W63932   3.384   1.724  24.960 -0.2791  0.0641 -0.3860
20839W        W63933   5.705   0.467  27.433  0.1323 -0.1992  0.0041
20840W        W63934   6.437   1.051  24.186  0.2758 -0.2378  0.3283
20841W        W63935   6.344   0.124  25.946  0.5037  0.0437 -0.2385
20842W        W63936   6.101   0.919  25.081  0.2050 -0.1490 -0.2987
20843W        W63937   7.459   0.877  25.012 -0.1138 -0.1208  0.1065
20844W        W63938   4.404   1.942  26.403 -0.1998 -0.2239  0.0126
20845W        W63939   3.881   1.916  26.189  0.0355 -0.1364  0.2728
20846W        W63940   6.528   2.910  27.520  0.1449  0.0163  0.2709
20847W        W63941   6.758   1.870  23.744 -0.1349 -0.1095 -0.1878
20848W        W63942   7.685   1.347  25.895  0.1166 -0.2861 -0.1017
20849W        W63943   8.251   2.403  25.179 -0.1588  0.0143 -0.1059
20850W        W63944   5.200   2.134  24.633 -0.4171  0.0764 -0.5772
20851W        W63945   5.095  34.078  25.141 -0.3462 -0.1275  0.2828
20852W        W63946   6.156   1.740  27.346 -0.1438 -0.0077 -0.0492
20853W        W63947   5.569   0.432  22.353  0.0081  0.0308 -0.3742
20854W        W63948   5.741   0.378  26.943 -0.0418 -0.1162 -0.2565
20855W        W63949   5.655   3.605  24.743 -0.1451 -0.2377  0.1728
20856W        W63950   4.966   2.968  24.597 -0.1631 -0.0472  0.3957
20857W        W63951   4.699   1.021  23.288 -0.0852  0.1600 -0.1576
20858W        W63952   4.328   0.216  24.022 -0.0331 -0.1571 -0.0177
20859W        W63953   4.595   3.160  26.488 -0.0171 -0.1532 -0.2341
20860W        W63954   4.049   1.762  22.919 -0.3793  0.2067  0.1074
20861W        W63955   4.642   2.856  25.178 -0.1248  0.0146 -0.0723
20862W        W63956   5.083   3.251  25.255 -0.1887  0.0386 -0.2969
20863W        W63957   6.132   1.175  27.262  0.3304 -0.1207 -0.3865
20864W        W63958   4.662  34.235  24.754  0.2830  0.0609  0.0804
20865W        W63959   7.037   1.131  27.095  0.0059  0.0513  0.0402
20866W        W63960   4.705   2.387  23.908  0.0316  0.0862 -0.0313
20867W        W63961   5.722  34.018  25.112 -0.0141 -0.0345 -0.0541
20868W        W63962   5.594   2.388  24.958  0.1274 -0.1225  0.0426
20869W        W63963   3.137   2.069  25.570 -0.2821  0.0896  0.3171
20870W        W63964   5.210   2.507  26.310  0.1635  0.1974  0.0354
20871W        W63965   5.024  33.774  26.488 -0.0568  0.3259  0.1940
20872W        W63966   5.073   2.540  24.288 -0.0433 -0.0105 -0.1591
20873W        W63967   3.732   3.477  24.635 -0.4407  0.0886  0.1711
20874W        W63968   6.718   2.241  27.849 -0.0104 -0.2860 -0.0981
20875W        W63969   4.768   2.101  27.517  0.1327  0.0120 -0.3204
20876W        W63970   5.046   0.759  24.278 -0.1090  0.0452 -0.1069
20877W        W63971   6.068   2.934  27.745 -0.1882 -0.1532  0.1291
20878W        W63972   8.916   3.517  25.910  0.1211 -0.0462 -0.0828
20879W        W63973   2.661   3.327  24.604  0.0306  0.1472  0.2686
20880W        W63974   3.657   0.697  25.400  0.0918 -0.1391 -0.3255
20881W        W63975   7.051   2.339  28.164  0.0413  0.2609  0.0172
20882W        W63976   5.964   2.540  25.252  0.2444 -0.0687  0.0348
20883W        W63977   5.140  34.512  24.891  0.1259 -0.1708 -0.2012
20884W        W63978   5.683   2.949  21.602 -0.1137 -0.1494 -0.0245
20885W        W63979   5.600   2.273  25.955  0.2207  0.0880  0.0082
20886W        W63980   4.588   1.257  24.545  0.2286 -0.0972  0.2019
20887W        W63981   4.315   2.061  23.803 -0.1262 -0.1748  0.0237
20888W        W63982   7.748   4.309  25.373 -0.4011  0.1044 -0.1165
20889W        W63983   5.229   2.779  25.077 -0.0454  0.0527  0.2632
20890W        W63984   5.768   4.123  24.884  0.0600 -0.1516  0.3068
20891W        W63985   5.729   0.058  23.285 -0.2724  0.1230 -0.0118
20892W        W63986   2.889   2.046  25.140 -0.1232  0.0112 -0.2012
20893W        W63987   3.202   3.295  23.048  0.0024  0.3200 -0.1873
20894W        W63988   6.682   1.375  23.944  0.0361 -0.1206 -0.0476
20895W        W63989   4.833   3.008  24.023  0.1250 -0.0216 -0.2354
20896W        W63990   6.364   3.357  27.746 -0.0524  0.1033 -0.1664
20897W        W63991   7.520  33.488  22.660 -0.2386 -0.1443 -0.0443
20898W        W63992   8.506   1.979  25.122 -0.0658 -0.3247 -0.1760
20899W        W63993   7.373   0.444  23.356  0.1148 -0.0010  0.0054
20900W        W63994   5.565   2.732  29.455 -0.3525 -0.1606  0.0118
20901W        W63995   4.442   2.648  24.259  0.1746  0.0187 -0.1941
20902W        W63996   4.208   0.216  22.636 -0.1391  0.1535  0.1459
20903W        W63997   5.249   1.471  26.670 -0.0747  0.1831  0.0597
20904W        W63998   7.436   0.262  27.078 -0.0692 -0.0896  0.0370
20905W        W63999   5.179   2.242  27.713  0.1409 -0.4085  0.2809
20906W        W64000   6.695   4.019  24.429  0.1596 -0.0008 -0.0642
20907W        W64001   3.831   1.207  24.109 -0.0273 -0.2558  0.0289
20908W        W64002   3.448   1.239  24.540 -0.0713  0.0423  0.0205
20909W        W64003   6.966   0.817  26.392  0.0698  0.0603  0.0137
20910W        W64004   4.384   1.082  24.045 -0.1728 -0.1825 -0.0086
20911W        W64005   5.831   1.384  23.996 -0.1417 -0.1419  0.0938
20912W        W64006   4.102   3.834  25.424 -0.0129 -0.0967 -0.0394
20913W        W64007   3.017   2.840  25.545 -0.2656  0.1075 -0.0237
20914W        W64008   5.918   3.684  26.067  0.1317  0.1637  0.2411
20915W        W64009   5.258   0.020  24.139  0.2984  0.0374  0.3585
20916W        W64010   7.490   2.572  25.164  0.1318 -0.0474 -0.1230
20917W        W64011   4.552   0.812  25.920  0.2170  0.0690 -0.1411
20918W        W64012   7.039   1.381  26.104 -0.0302  0.0519  0.1663
20919W        W64013   2.532   2.624  24.242 -0.1320 -0.2117  0.0825
20920W        W64014   6.480   0.365  23.465  0.1265 -0.0864  0.0325
20921W        W64015   5.876   1.995  26.502 -0.0443 -0.1859 -0.1751
20922W        W64016   5.049   0.832  25.783 -0.1906 -0.0864 -0.2710
20923W        W64017   6.330   0.580  24.355  0.2013 -0.0323 -0.0393
20924W        W64018   7.098   1.240  28.017  0.0621  0.0687 -0.1215
20925W        W64019   6.292   2.099  23.965  0.0230 -0.0711  0.2264
20926W        W64020   6.112   3.716  27.555 -0.0519  0.1545  0.2841
20927W        W64021   5.612  34.626  24.553  0.3672 -0.1798 -0.3568
20928W        W64022   7.350   0.830  22.999 -0.3495  0.0569 -0.2045
20929W        W64023   4.864   3.383  24.836  0.1759 -0.1146  0.1901
20930W        W64024   6.216   1.829  25.647  0.1443  0.1176  0.1201
20931W        W64025   6.763   5.263  28.753 -0.1054  0.0876 -0.0835
20932W        W64026   4.858  34.319  26.122 -0.0367 -0.1009  0.2555
20933W        W64027   5.652   1.378  23.553 -0.0435 -0.0164 -0.2257
20934W        W64028   7.684   2.845  25.563  0.1347 -0.0814  0.1036
20935W        W64029   5.868   3.754  22.651  0.0031 -0.0879  0.2477
20936W        W64030   6.851   1.513  24.400  0.0285  0.1160 -0.1103
20937W        W64031   6.336   2.800  25.509  0.2338 -0.1851 -0.1477
20938W        W64032   5.729   0.152  26.260  0.2687 -0.0922 -0.2173
20939W        W64033   7.403   5.596  26.065  0.0127  0.1697  0.3059
20940W        W64034   7.602   2.555  26.040  0.3691  0.1425 -0.0680
20941W        W64035   5.736  33.775  22.834 -0.1242 -0.1132  0.0471
20942W        W64036   6.045   0.297  24.011  0.5158  0.1526  0.2746
20943W        W64037   3.983   4.520  24.772 -0.2327 -0.0736 -0.0875
20944W        W64038   6.594   1.430  25.875  0.1826 -0.2013 -0.1671
20945W        W64039   7.342   1.574  26.946 -0.3046  0.0943 -0.0038
20946W        W64040   5.637   3.259  23.818 -0.4647  0.1175 -0.0374
20947W        W64041   7.201  34.052  27.522  0.0508 -0.0477 -0.0607
20948W        W64042   7.175   3.172  26.245  0.0352  0.3504  0.1678
20949W        W64043   6.241   5.203  28.500 -0.1407  0.1965  0.0272
20950W        W64044   3.825   0.887  23.180 -0.0073 -0.0425 -0.1130
20951W        W64045   4.833   1.953  26.730 -0.0289 -0.1778  0.3689
20952W        W64046   4.422   2.765  24.743  0.0600  0.0838 -0.1198
20953W        W64047   6.341   3.003  24.302 -0.1665  0.1055  0.3771
20954W        W64048   7.974   3.350  25.410  0.1649  0.1251 -0.0276
20955W        W64049   5.823   1.524  24.475  0.3532  0.0263 -0.1457
20956W        W64050   5.260   3.260  25.787  0.3624  0.1312  0.3472
20957W        W64051   6.498   0.861  24.770  0.1487  0.1748 -0.1705
20958W        W64052   7.895   1.143  22.962 -0.0814 -0.1466 -0.0329
20959W        W64053   6.122   0.118  24.479  0.2832  0.0411  0.0931
20960W        W64054   4.777   1.648  25.488 -0.2794  0.2886  0.4278
20961W        W64055   4.477   0.595  22.467  0.2367 -0.0648  0.1957
20962W        W64056   3.557   2.959  23.028 -0.1087 -0.1738 -0.0526
20963W        W64057   5.194   1.260  25.222  0.0425  0.0580 -0.0323
20964W        W64058   5.081   0.756  26.891  0.0237 -0.1289 -0.0398
20965W        W64059   3.140   0.404  26.620  0.0454 -0.0801 -0.2224
20966W        W64060   2.959   2.586  25.086 -0.3668 -0.0664  0.0182
20967W        W64061   4.691   1.656  24.122 -0.0268  0.0100 -0.1569
20968W        W64062   6.257   4.099  24.635  0.0786  0.0217 -0.0910
20969W        W64063   5.839  34.331  26.324 -0.0222 -0.4167 -0.3208
20970W        W64064   5.173   0.266  24.602  0.2079 -0.0210 -0.2553
20971W        W64065   6.407   1.879  25.203  0.2271 -0.1504  0.1008
20972W        W64066   5.236   3.714  25.029  0.2171  0.1388 -0.2313
20973W        W64067   3.787  32.793  25.708 -0.0200  0.2886 -0.0506
20974W        W64068   6.265   3.638  28.365 -0.0510  0.4040  0.0407
20975W        W64069   5.089   1.549  23.805 -0.0912 -0.1928  0.0132
20976W        W64070   6.948   0.666  26.903 -0.0407 -0.1500  0.0429
20977W        W64071   5.256   0.453  27.792  0.0553 -0.0375 -0.1509
20978W        W64072   4.311   0.074  23.202 -0.1784  0.0465 -0.0872
20979W        W64073   5.097   2.018  24.005 -0.1514  0.1144 -0.2179
20980W        W64074   4.611   3.612  24.457  0.1091 -0.0282  0.2731
20981W        W64075   7.340   3.440  23.595  0.2086  0.0217  0.0290
20982W        W64076   5.496   2.700  26.756  0.1960  0.1674 -0.1213
20983W        W64077   5.056   2.756  27.896  0.0258 -0.0907  0.0093
20984W        W64078   4.421  33.314  25.897  0.2265 -0.0530 -0.1020
20985W        W64079   5.621   1.805  25.153  0.3107 -0.0363 -0.0355
20986W        W64080   5.700   3.571  28.384 -0.1640 -0.0053  0.1766
20987W        W64081   7.825   1.725  25.024  0.3084 -0.2842 -0.1616
20988W        W64082   6.321   0.664  23.859  0.0799 -0.0897  0.0642
20989W        W64083   4.743   2.108  24.350 -0.2869 -0.1387  0.0091
20990W        W64084   5.566  34.111  27.265  0.1721  0.2159  0.0785
20991W        W64085   3.526   3.580  28.047 -0.1931  0.3240  0.0052
20992W        W64086   7.343   2.293  25.532 -0.2477  0.2442  0.0888
20993W        W64087   4.702   0.322  24.333 -0.0878  0.2388 -0.1524
20994W        W64088   6.413  34.185  24.381  0.2354 -0.1509 -0.0470
20995W        W64089   5.871   2.515  24.462  0.1384  0.2656 -0.2365
20996W        W64090   5.364   1.950  25.681  0.2427 -0.2083  0.1399
20997W        W64091   6.038   1.071  24.581 -0.1480  0.3054  0.4128
20998W        W64092   6.650   1.930  27.341 -0.0991  0.0778  0.1189
20999W        W64093   5.753   1.794  25.900  0.1325  0.0656 -0.0084
21000W        W64094   6.514   1.799  28.191 -0.0475  0.0023 -0.1624
21001W        W64095   4.987   0.325  23.879  0.1191  0.0076  0.0352
21002W        W64096   6.733   0.909  23.867 -0.0888  0.0809 -0.2441
21003W        W64097   7.288   4.325  25.976  0.0458  0.3146 -0.0313
21004W        W64098   7.985   4.974  28.245 -0.0190  0.3668  0.1590
21005W        W64099   4.388   3.273  25.986 -0.3435  0.0547 -0.3945
21006W        W64100   8.197   2.927  25.397 -0.3621 -0.2371 -0.0583
21007W        W64101   3.874  32.313  25.484  0.0348  0.0822  0.1188
21008W        W64102   4.059   2.031  24.954  0.2709  0.0877  0.1921
21009W        W64103   5.783   3.023  24.329 -0.1195 -0.0761 -0.1502
21010W        W64104   6.895   1.792  24.919 -0.0396  0.2660  0.0665
21011W        W64105   4.094   1.150  24.622 -0.1389 -0.0840  0.0523
21012W        W64106   5.786  33.746  24.546  0.2441  0.0599 -0.2017
21013W        W64107   5.217   3.108  27.205 -0.0218 -0.1114  0.2163
21014W        W64108   6.151   2.117  26.093  0.0231 -0.0556 -0.1346
21015W        W64109   4.630   1.930  31.141  0.1967  0.1302 -0.2083
21016W        W64110   4.183  34.662  26.599 -0.2556 -0.1043  0.0855
21017W        W64111   7.561   0.887  27.785 -0.0617 -0.2262 -0.1251
21018W        W64112   9.218   1.809  28.521  0.2201 -0.2569  0.0448
21019W        W64113   5.190  34.500  27.125  0.3099 -0.1547 -0.0639
21020W        W64114   6.293   3.089  29.413  0.1664 -0.2136 -0.0078
21021W        W64115   4.813  33.567  29.447  0.1598  0.0012  0.1271
21022W        W64116   5.244   3.109  29.473 -0.2779 -0.0118  0.0005
21023W        W64117   8.141   2.438  29.247  0.3247 -0.1091 -0.0195
21024W        W64118   6.100   1.599  28.412  0.2887  0.2552 -0.0968
21025W        W64119   4.458   1.057  29.630  0.2825 -0.1104 -0.2490
21026W        W64120   2.329   3.579  30.115  0.1393 -0.0956  0.1289
21027W        W64121   6.010  34.371  29.345 -0.1494  0.0091  0.1735
21028W        W64122   4.080  33.955  29.513 -0.1122 -0.1269 -0.0604
21029W        W64123   5.554  34.116  29.211  0.3522 -0.2812  0.0929
21030W        W64124   4.802   1.152  28.011 -0.0781 -0.1317  0.1604
21031W        W64125   5.581  34.590  31.515  0.3179 -0.0532 -0.0660
21032W        W64126   6.091  34.225  27.222 -0.1005  0.1358  0.1676
21033W        W64127   6.069   2.614  29.460  0.1366 -0.0511 -0.0759
21034W        W64128   5.372   1.205  30.941 -0.2046 -0.1267  0.0909
21035W        W64129   6.492   0.140  31.217  0.0608 -0.0321 -0.0733
21036W        W64130   6.246   2.994  28.230  0.3803  0.0535 -0.0980
21037W        W64131   4.076   1.477  26.323  0.0254 -0.0397  0.2589
21038W        W64132   3.855   1.397  28.239  0.3617 -0.0754 -0.1248
21039W        W64133   5.218   1.968  30.482  0.0534 -0.2010 -0.0568
21040W        W64134   6.040   0.116  30.183 -0.0081 -0.1846  0.1342
21041W        W64135   6.461   0.991  30.278  0.0384 -0.1637  0.1374
21042W        W64136   4.573   2.686  28.725  0.2530  0.1207 -0.0626
21043W        W64137   4.604   2.864  29.563  0.2018 -0.0912 -0.2716
21044W        W64138   7.494   0.696  31.256  0.1959 -0.0544  0.0485
21045W        W64139   2.961   3.315  27.899  0.2178  0.0995  0.0763
21046W        W64140   5.157   3.437  29.111 -0.1843  0.2164 -0.1632
21047W        W64141   4.513   2.118  28.076  0.1235 -0.0513 -0.0548
21048W        W64142   6.774   1.963  28.834 -0.1020 -0.0112 -0.3312
21049W        W64143   7.153   2.541  29.347 -0.3405 -0.2739  0.0321
21050W        W64144   4.517   2.635  31.532  0.1239  0.1829 -0.1985
21051W        W64145   5.285   1.923  26.229 -0.0592 -0.0244  0.3154
21052W        W64146   6.779   3.648  30.872 -0.1005 -0.0759  0.2877
21053W        W64147   4.395   1.584  30.826 -0.1308 -0.1580  0.2256
21054W        W64148   3.952   1.497  29.372  0.0026 -0.1701  0.1169
21055W        W64149   5.552   1.434  27.850 -0.3501  0.2624 -0.3352
21056W        W64150   5.372   2.316  27.191  0.0825  0.2779  0.0848
21057W        W64151   3.999   1.784  28.885  0.2381  0.1866 -0.0237
21058W        W64152   5.889   1.228  30.613 -0.0305 -0.2314  0.1034
21059W        W64153   5.103   2.718  29.750  0.1093  0.1300 -0.0404
21060W        W64154   7.709   1.549  30.016  0.0768  0.0625  0.3069
21061W        W64155   5.627   2.876  27.931  0.1697 -0.0602  0.0040
21062W        W64156   7.633   0.376  27.875  0.1925 -0.4009  0.0920
21063W        W64157   6.149   0.721  27.393  0.2662  0.0338  0.2871
21064W        W64158   7.819   1.357  27.708  0.1479 -0.0889 -0.1016
21065W        W64159   4.519  33.183  29.215  0.1641 -0.0434 -0.1234
21066W        W64160   4.703   3.118  30.241 -0.1631 -0.0447 -0.2919
21067W        W64161   3.692   0.179  29.782  0.0526  0.0300 -0.1685
21068W        W64162   6.929   1.782  29.248 -0.0137  0.3536  0.0515
21069W        W64163   4.889   1.855  25.885 -0.1766  0.3128 -0.2819
21070W        W64164   6.327   1.191  28.793  0.0204 -0.0427 -0.1191
21071W        W64165   4.763   2.653  30.071 -0.3374  0.1700  0.0994
21072W        W64166   3.933   0.661  29.668 -0.2953 -0.0049  0.0515
21073W        W64167   6.691   3.902  28.329  0.0881  0.2614  0.0165
21074W        W64168   7.872   2.066  28.361 -0.0039  0.0270  0.0004
21075W        W64169   5.722   2.304  28.414 -0.0843  0.1964  0.0972
21076W        W64170   4.711   1.670  27.814 -0.0817  0.2646  0.2641
21077W        W64171   4.773   2.358  29.637 -0.0344 -0.1100  0.2874
21078W        W64172   3.978   2.673  30.616 -0.3685  0.0750  0.1580
21079W        W64173   5.554  34.460  26.694  0.3637 -0.2486 -0.2299
21080W        W64174   7.647   1.612  30.514  0.2005 -0.3801  0.0661
21081W        W64175   3.712   2.907  30.295  0.1217  0.0466  0.2392
21082W        W64176   6.778   0.550  28.955  0.0075 -0.2292  0.3343
21083W        W64177   5.055   0.798  30.840  0.0159  0.1384  0.1807
21084W        W64178   6.580   2.716  29.619 -0.4749  0.0897 -0.3713
21085W        W64179   5.821   2.537  26.307  0.0632 -0.0148  0.2372
21086W        W64180   6.439   0.144  29.819 -0.2898 -0.1228  0.0094
21087W        W64181   6.452  34.019  30.525 -0.0893 -0.2293  0.1240
21088W        W64182   5.176   1.628  27.571 -0.0878 -0.0911 -0.1619
21089W        W64183   5.727   1.857  28.099  0.1063  0.0891 -0.0901
21090W        W64184   6.120   0.083  29.142 -0.2475  0.2279  0.2636
21091W        W64185   7.780   2.273  27.844  0.0149  0.5054  0.3620
21092W        W64186   4.936   3.772  29.441 -0.0861  0.0458 -0.0419
21093W        W64187   6.714   1.181  30.685  0.2011  0.0253  0.0876
21094W        W64188   6.376   0.967  31.630  0.1711  0.2869  0.3094
21095W        W64189   4.494   2.881  26.895 -0.0530  0.0416  0.1280
21096W        W64190   2.521   2.286  29.902 -0.1257  0.1678  0.2393
21097W        W64191   3.938   1.132  27.276 -0.1851  0.0108  0.0032
21098W        W64192   2.757  34.377  30.090 -0.0538 -0.0524  0.2687
21099W        W64193   4.498   2.707  30.641  0.2565 -0.1575  0.0520
21100W        W64194   6.403  34.369  27.979 -0.0084 -0.2163  0.1642
21101W        W64195   4.993   0.902  28.630 -0.0961 -0.1948 -0.1015
21102W        W64196   7.183   0.615  28.031  0.2674  0.0840 -0.0012
21103W        W64197   4.399   1.181  27.667 -0.2664 -0.0789 -0.1931
21104W        W64198   7.047   1.637  29.814  0.0492 -0.0362  0.4528
21105W        W64199   6.928   1.137  27.580  0.1354  0.1237  0.0534
21106W        W64200   5.165   2.291  28.703 -0.0924  0.1105 -0.1780
21107W        W64201   3.627   0.331  30.304 -0.0457 -0.0711 -0.4169
21108W        W64202   4.119   0.808  27.722  0.0318  0.3149 -0.2604
21109W        W64203   4.105  34.403  31.186 -0.0612 -0.0395  0.0289
21110W        W64204   4.622   0.192  28.930  0.2280 -0.0297  0.1608
21111W        W64205   7.869   2.061  30.177  0.0965 -0.3144  0.1542
21112W        W64206   4.586  34.019  26.769  0.3126  0.1557  0.0544
21113W        W64207   6.319   1.705  28.881  0.1985 -0.2241 -0.1145
21114W        W64208   5.592   1.412  28.397  0.2941 -0.1979  0.0258
21115W        W64209   3.141   1.316  29.071  0.0882  0.3468 -0.2696
21116W        W64210   7.603   1.181  31.232 -0.0707  0.2930  0.2216
21117W        W64211   7.834   2.775  27.699  0.0659 -0.1741 -0.1467
21118W        W64212   7.366   2.978  29.384  0.0085 -0.1288  0.2586
21119W        W64213   8.348   2.212  27.941  0.1030  0.1419  0.0674
21120W        W64214   5.894  33.881  30.536  0.0177  0.2150 -0.2502
21121W        W64215   5.164   0.055  26.254  0.4267 -0.1121  0.0656
21122W        W64216   4.236   2.258  28.980 -0.2333 -0.1130  0.3276
21123W        W64217   3.852   0.727  30.164  0.1389 -0.1728  0.3133
21124W        W64218   4.835   0.387  28.539 -0.2028 -0.1179  0.0294
21125W        W64219   7.657   2.755  29.712 -0.0386  0.1160  0.0998
21126W        W64220   6.328   0.886  28.342  0.1024 -0.1380  0.4179
21127W        W64221   5.191   3.994  30.885  0.1728 -0.0921  0.1733
21128W        W64222   6.989   0.171  28.545 -0.0140  0.0249  0.3475
21129W        W64223   6.700  33.990  29.357 -0.1729 -0.1344  0.2679
21130W        W64224   6.768   2.252  29.261  0.0581 -0.0701  0.0824
21131W        W64225   5.679   0.994  27.091 -0.1046 -0.1696 -0.1015
21132W        W64226   5.679   2.659  30.316  0.1597 -0.0304 -0.1204
21133W        W64227   4.426   3.233  27.432  0.1046  0.2460 -0.3201
21134W        W64228   4.429   1.861  28.499 -0.1335  0.3199  0.1450
21135W        W64229   5.309   2.637  28.311 -0.0212 -0.1459  0.0107
21136W        W64230   6.522   0.053  28.756 -0.1649  0.1316  0.4583
21137W        W64231   2.919   1.202  30.172 -0.2125 -0.0978 -0.2059
21138W        W64232   7.249   0.626  29.697  0.1958  0.1734 -0.1975
21139W        W64233   3.780   1.271  26.752 -0.3014  0.0411 -0.0809
21140W        W64234   4.376   2.059  29.531 -0.0832 -0.1622  0.2706
21141W        W64235   5.669   0.670  28.764 -0.0925 -0.1272 -0.0085
21142W        W64236   7.888   0.112  27.320 -0.1915 -0.1270  0.1078
21143W        W64237   4.644   2.450  31.058  0.0791 -0.1994  0.3408
21144W        W64238   6.770   1.020  28.613  0.0671  0.0608 -0.1593
21145W        W64239   5.392   0.479  26.590 -0.2820  0.3859 -0.0479
21146W        W64240   7.588   1.203  27.273 -0.1642  0.0102 -0.1145
21147W        W64241   4.997   1.069  31.284 -0.2713  0.1460 -0.0945
21148W        W64242   5.634   2.250  29.332 -0.4533 -0.0830 -0.1168
21149W        W64243   6.764   2.016  30.090 -0.2602 -0.0213  0.1981
21150W        W64244   5.874   1.391  26.869 -0.1422  0.2425 -0.0593
21151W        W64245   7.491   2.269  28.585  0.0144  0.0161 -0.0583
21152W        W64246   4.197   2.279  30.910  0.3468  0.3937  0.1005
21153W        W64247   5.754   2.483  29.842 -0.1219 -0.0370 -0.3045
21154W        W64248   7.432   2.679  28.954 -0.1217  0.1066  0.0349
21155W        W64249   5.488   0.473  30.622  0.3946 -0.0292 -0.3994
21156W        W64250   3.754   0.509  27.680 -0.2339 -0.3420 -0.0588
21157W        W64251   5.915  34.443  28.833  0.1464  0.2402  0.2729
21158W        W64252   3.136   4.135  27.741  0.1791 -0.3965  0.0045
21159W        W64253   6.837   0.251  28.047  0.0515 -0.0549 -0.0418
21160W        W64254   5.213  34.092  30.121 -0.2312 -0.2072 -0.1407
21161W        W64255   5.904   0.626  30.444  0.0647 -0.1627 -0.2011
21162W        W64256   6.937  34.053  30.769 -0.5613  0.1333  0.0258
21163W        W64257   6.205   0.668  28.806 -0.0046  0.1067 -0.0046
21164W        W64258   5.880   0.989  29.581  0.2313  0.1165  0.1854
21165W        W64259   5.307   0.788  27.293 -0.0864  0.2100  0.1502
21166W        W64260   6.880   1.545  30.274  0.2900  0.0945  0.2685
21167W        W64261   5.049   1.614  31.031 -0.2584 -0.1038  0.1629
21168W        W64262   3.495   2.432  30.479 -0.1123 -0.2525 -0.1533
21169W        W64263   5.406   2.383  30.659  0.0829 -0.0157 -0.1947
21170W        W64264   5.562   2.582  28.861 -0.1724  0.0738  0.0322
21171W        W64265   6.634   1.824  30.560 -0.0093 -0.1236 -0.1473
21172W        W64266   5.962   1.767  29.251 -0.2279 -0.1623  0.1740
21173W        W64267   4.971   3.656  28.302  0.3857 -0.1472  0.0930
21174W        W64268   4.156   0.958  26.822  0.0228 -0.1961  0.1002
21175W        W64269   4.832  34.476  28.049 -0.3354  0.1428  0.2074
21176W        W64270   5.364   4.639  29.416  0.1420  0.2289  0.1164
21177W        W64271   5.252   3.221  27.695 -0.2228  0.1930 -0.1714
21178W        W64272   5.946   3.212  29.768  0.1176 -0.2287 -0.1328
21179W        W64273   5.842   1.473  28.840  0.2867  0.3582 -0.6284
21180W        W64274   6.407  33.999  30.040 -0.1055  0.1106 -0.0207
21181W        W64275   4.643   2.224  28.731 -0.1248 -0.0774 -0.2176
21182W        W64276   5.310   0.481  28.382 -0.2217  0.1167 -0.1683
21183W        W64277   3.171   2.069  28.565  0.0588  0.4164 -0.1317
21184W        W64278   6.699   0.749  28.018 -0.1434  0.1684 -0.1855
21185W        W64279   7.535   1.796  27.733  0.2022 -0.1894  0.2705
21186W        W64280   4.126   0.088  29.054  0.1537  0.2540  0.1714
21187W        W64281   5.989  34.341  30.338  0.1394  0.1249  0.1592
21188W        W64282   3.787   4.283  30.188 -0.3888  0.1455  0.1597
21189W        W64283   6.377   1.966  31.190  0.2153  0.3004  0.1521
21190W        W64284   7.143   0.319  26.535 -0.0728  0.1968 -0.0513
21191W        W64285   5.684   3.190  30.324 -0.1400  0.1888 -0.1042
21192W        W64286   5.814   2.283  31.823  0.1183 -0.0274  0.1486
21193W        W64287   4.439   1.960  27.093 -0.1452 -0.0319 -0.0249
21194W        W64288   6.769   2.145  30.920 -0.1470 -0.2140 -0.1408
21195W        W64289   5.435   1.719  29.518 -0.4981  0.1660  0.0682
21196W        W64290   3.390   1.750  28.959 -0.0825 -0.1216  0.0552
21197W        W64291   4.393   3.968  29.696  0.1419  0.5442 -0.0346
21198W        W64292   4.252   1.710  27.549 -0.0996  0.0800  0.2360
21199W        W64293   3.949   1.810  26.695  0.0374 -0.1692  0.3344
21200W        W64294   2.191  34.139  31.321  0.0119  0.1757  0.1092
21201W        W64295   7.126   1.515  30.704 -0.1957  0.0222 -0.0398
21202W        W64296   6.219   1.862  30.141  0.0858 -0.1876 -0.0092
21203W        W64297   4.523  34.414  27.655  0.0492  0.0473 -0.1938
21204W        W64298   3.883   0.994  29.258  0.0607 -0.2369  0.0754
21205W        W64299   6.588   0.606  29.587  0.0768  0.1615  0.1663
21206W        W64300   5.180   1.224  30.247  0.1158 -0.2443 -0.1380
21207W        W64301   4.381   2.340  30.365 -0.1005 -0.2428 -0.2194
21208W        W64302   5.097  34.625  28.564 -0.3494  0.2163 -0.1328
21209W        W64303   6.442   1.873  29.576  0.0391 -0.1131 -0.0245
21210W        W64304   6.761   1.585  31.067  0.0704 -0.1021 -0.2033
21211W        W64305   5.721   3.171  27.500  0.2493 -0.0391  0.0741
21212W        W64306   3.551   2.371  28.512  0.1191  0.3920  0.0241
21213W        W64307   5.794   1.672  30.272  0.0472 -0.3551 -0.0443
21214W        W64308   5.603   0.060  29.132 -0.3083  0.0932  0.1041
21215W        W64309   3.776   2.025  31.096  0.0774 -0.1865  0.0646
21216W        W64310   4.574   2.548  27.778  0.1440 -0.0615 -0.1106
21217W        W64311   3.915   1.991  29.340  0.4622 -0.0683 -0.1237
21218W        W64312   6.402  33.622  27.436 -0.1638  0.0391 -0.0284
21219W        W64313   6.206   2.080  28.530 -0.0444 -0.1046 -0.0102
21220W        W64314   5.176   0.299  28.926  0.0117 -0.2476 -0.2190
21221W        W64315   6.873   0.176  30.362  0.2702 -0.1108 -0.1486
21222W        W64316   6.704   1.489  28.573 -0.0313 -0.0372  0.1122
21223W        W64317   5.064   0.325  30.807  0.1735 -0.0244  0.0327
21224W        W64318   4.764   0.373  30.297 -0.2263  0.1048 -0.0080
21225W        W64319   7.246   1.269  29.250 -0.0900 -0.0393  0.0937
21226W        W64320   3.743   0.605  30.709 -0.0072  0.0126 -0.1012
21227W        W64321   5.734   3.454  31.476 -0.0644 -0.4333  0.1975
21228W        W64322   3.662   2.328   0.790  0.0092 -0.1025  0.2900
21229W        W64323   5.392   0.432  29.582  0.0582  0.2205  0.0166
21230W        W64324   4.397   0.229  27.504  0.0908  0.0746  0.3398
21231W        W64325   6.119   1.943  31.614 -0.0670 -0.4765  0.0923
21232W        W64326   7.318   1.163  29.758  0.0459  0.2637  0.1914
21233W        W64327   5.795   1.899  27.007 -0.1203 -0.1129  0.1001
21234W        W64328   8.094   0.539  29.223  0.1780  0.0267  0.1412
21235W        W64329   4.759   1.448  30.068  0.0042  0.0829 -0.0026
21236W        W64330   5.892   2.163  28.893  0.1634  0.0384  0.1510
21237W        W64331   4.939   1.044  26.485 -0.1790  0.1430  0.0347
21238W        W64332   5.906   1.030  29.049  0.1810  0.0064  0.0388
21239W        W64333   4.144   1.172  30.880  0.0895  0.0302  0.1594
21240W        W64334   7.319   1.332  30.291 -0.0900 -0.2594 -0.3110
21241W        W64335   6.364   1.054  29.685  0.0911  0.0273 -0.0393
21242W        W64336   5.906   0.240  29.644  0.0830  0.2817 -0.0628
21243W        W64337   7.512   0.811  30.172 -0.2281 -0.3826 -0.1921
21244W        W64338   3.938   1.595  30.700  0.0726  0.1165  0.0589
21245W        W64339   3.664  34.683  31.520 -0.0073 -0.1062  0.1242
21246W        W64340   7.524   1.797  28.782 -0.0079 -0.2284  0.0404
21247W        W64341   6.527   1.122  26.906  0.2947  0.1422 -0.0857
21248W        W64342   8.940   1.650  30.596  0.0789  0.1229 -0.2791
21249W        W64343   6.638   0.473  28.499 -0.0104 -0.1224  0.2239
21250W        W64344   5.873   1.127  28.030  0.0828 -0.4620  0.0717
21251W        W64345   5.033   1.582  29.230 -0.1234  0.1109 -0.2532
21252W        W64346   5.828   0.057  30.638 -0.0126  0.0144  0.0137
21253W        W64347   3.197   2.003  26.082 -0.0028  0.1712  0.1434
21254W        W64348   6.939  33.539  30.741  0.1156  0.0290  0.1072
21255W        W64349   5.125   2.512  29.167 -0.2392  0.0938  0.4547
21256W        W64350   6.678   2.762  29.126 -0.0384 -0.1433 -0.0186
21257W        W64351   6.830   1.651  27.808 -0.1899 -0.0327  0.0898
21258W        W64352   3.669  34.587  28.179 -0.0391 -0.1901  0.3308
21259W        W64353   5.199   1.981   0.578  0.0293 -0.1850 -0.0678
21260W        W64354   3.621   0.565  26.213  0.1306  0.1271  0.0440
21261W        W64355   5.759   1.895  27.589  0.0924  0.1937 -0.0224
21262W        W64356   5.318   1.954  31.320 -0.0094  0.0723 -0.0776
21263W        W64357   7.022   2.090  29.610 -0.2070 -0.2390 -0.6234
21264W        W64358   4.928   0.288  26.786  0.0444  0.1265  0.1165
21265W        W64359   5.767   0.789  30.911  0.0461 -0.2846  0.3318
21266W        W64360   3.436   3.133  27.877  0.1440  0.1874 -0.0010
21267W        W64361   6.094  34.406  29.833 -0.1552  0.5409  0.0736
21268W        W64362   4.083   4.807  29.864 -0.1299 -0.0192  0.2638
21269W        W64363   4.045   2.348  31.824  0.1145  0.1271  0.0170
21270W        W64364   4.204   2.803  30.210 -0.0809  0.1320 -0.1386
21271W        W64365   6.295  33.448  30.161 -0.3158  0.1763 -0.0299
21272W        W64366   7.314   1.912  30.213  0.1835 -0.1025  0.1709
21273W        W64367   4.619   2.555  29.199 -0.2258 -0.5100  0.0140
21274W        W64368   8.294   1.953  29.850 -0.0071  0.2081 -0.2660
21275W        W64369   5.523   2.957  29.896 -0.0002  0.1380 -0.1134
21276W        W64370   4.754   0.640  29.042  0.2129  0.1303 -0.0871
21277W        W64371   3.870   2.463   0.283  0.1135 -0.2516 -0.1219
21278W        W64372   6.786   1.284  29.075  0.1467  0.1858  0.0411
21279W        W64373   4.590   2.015  30.661 -0.0411  0.3233  0.0753
21280W        W64374   4.570   0.907  31.059 -0.2547  0.1927  0.0011
21281W        W64375   6.088   3.532  30.742 -0.2068 -0.0465 -0.2596
21282W        W64376   5.408   1.560  30.633  0.1298 -0.4942  0.4546
21283W        W64377   5.283   0.305  27.200  0.0266 -0.4612 -0.1745
21284W        W64378   5.401   2.149  26.680 -0.0111  0.1309 -0.0758
21285W        W64379   4.266   2.763  31.127  0.1596  0.2734 -0.1243
21286W        W64380   3.727   1.877  28.376  0.0877 -0.0764 -0.2002
21287W        W64381   5.326   1.957  29.062  0.1061  0.2236  0.1443
21288W        W64382   6.462   2.416  28.837  0.5179 -0.1103 -0.0764
21289W        W64383   6.325   1.542  26.844 -0.1611  0.1724 -0.0966
21290W        W64384   8.356   3.710  29.665  0.2492 -0.2143 -0.3479
21291W        W64385   6.098  34.577  26.833  0.1337  0.2805 -0.0525
21292W        W64386   3.782   3.040  27.461  0.1884  0.1810 -0.0711
21293W        W64387   4.774   1.623  27.320 -0.2510 -0.3267  0.0404
21294W        W64388   6.586   2.304  28.343  0.3769  0.0586 -0.0439
21295W        W64389   5.383   3.884  29.081  0.1078  0.0252 -0.3170
21296W        W64390   6.023   3.764  29.714 -0.2276  0.4553 -0.2302
21297W        W64391   7.808   0.579  28.379  0.1992  0.0657 -0.0745
21298W        W64392   8.076   0.995  29.890  0.0500  0.1293  0.1908
21299W        W64393   7.165   0.961  28.876  0.1111  0.5106  0.0084
21300W        W64394   5.842   2.176  31.279  0.4625  0.0654 -0.0112
21301W        W64395   4.814   1.194  28.981 -0.1004  0.3540  0.0662
21302W        W64396   5.836   0.191  28.115  0.2074  0.1496 -0.0690
21303W        W64397   4.184   2.194  31.394 -0.0196  0.0816  0.0657
21304W        W64398   7.606   1.572   0.171 -0.2741 -0.0682 -0.1549
21305W        W64399   5.085   3.374  31.074 -0.4033 -0.1501  0.0676
21306W        W64400   6.286   2.083  27.004 -0.0406 -0.0317  0.1430
21307W        W64401   3.594   0.068  27.450 -0.2924  0.1128 -0.0721
21308W        W64402   4.129   2.511  29.412  0.1194  0.2362 -0.0808
21309W        W64403   7.796  33.718  30.747  0.1809 -0.1596 -0.0846
21310W        W64404   6.142   3.287  28.702  0.2640  0.1288 -0.2888
21311W        W64405   6.794   0.665  30.077 -0.0916  0.0487  0.2317
21312W        W64406   5.738   2.324  27.895  0.1225  0.0491  0.3201
21313W        W64407   4.784   1.789  29.658  0.0637 -0.0003  0.1872
21314W        W64408   6.041   4.563  28.651 -0.1510  0.0138  0.1511
21315W        W64409   3.878  33.332  26.390  0.0382  0.3005  0.0075
21316W        W64410   8.242   0.806  28.051 -0.3432  0.1422  0.2418
21317W        W64411   5.025   0.582  31.246  0.1996 -0.1579 -0.1743
21318W        W64412   6.531  33.159  29.447 -0.0289  0.1889 -0.3542
21319W        W64413   5.425   1.089  28.810 -0.1003 -0.2873 -0.1719
21320W        W64414   6.444   0.870  29.188 -0.0228 -0.0423  0.1144
21321W        W64415   5.735   2.010  29.847  0.0818  0.0084 -0.0037
21322W        W64416   5.129   0.915  29.274 -0.3760  0.0952 -0.3015
21323W        W64417   4.375   2.351  26.738 -0.0026  0.0010  0.0271
21324W        W64418   7.012   0.260  29.422  0.1682 -0.2440 -0.2120
21325W        W64419   5.692   0.982  27.604  0.0287 -0.0621  0.3859
21326W        W64420   7.130   3.662  28.442  0.0534  0.0766  0.3785
21327W        W64421   4.565   0.696  28.227 -0.2242  0.0338  0.2775
21328W        W64422   5.624   0.390  30.100  0.0983  0.0793  0.2188
21329W        W64423   5.911   1.497  29.677  0.0402 -0.0787 -0.0813
21330W        W64424   5.509   1.376  29.911  0.0034  0.0047 -0.1183
21331W        W64425   7.583   2.770  31.391 -0.1157  0.0596 -0.1790
21332W        W64426   4.676  33.894  28.264  0.1420  0.0068 -0.0166
21333W        W64427   6.740   3.304  27.154  0.0360 -0.1010 -0.1664
21334W        W64428   7.446   1.747  29.366 -0.0033 -0.0946 -0.0106
21335W        W64429   5.662   3.609  29.407 -0.0824  0.0135  0.1271
21336W        W64430   6.309   2.260  29.854 -0.1855 -0.4867  0.2780
21337W        W64431   6.037   3.010  30.712 -0.2671  0.1184  0.3315
21338W        W64432   3.836   1.088  30.490  0.1620  0.0756 -0.0865
21339W        W64433   6.122   2.564  30.474  0.0726  0.1657  0.1966
21340W        W64434   8.313   2.283  30.210  0.0945  0.0779  0.1721
21341W        W64435   6.092   1.538  27.804 -0.0349 -0.2954 -0.1781
21342W        W64436   4.466   0.558  29.958 -0.0473 -0.2363 -0.0812
21343W        W64437   4.865   2.971  29.194  0.1037  0.2267 -0.1262
21344W        W64438   5.957  33.388  29.419 -0.2338  0.2555  0.0672
21345W        W64439   6.317  34.612  30.613  0.3175  0.1647  0.0246
21346W        W64440   5.638   3.182  29.143  0.0764 -0.3017 -0.0766
21347W        W64441   7.840  34.681  31.621 -0.0992 -0.0139 -0.2024
21348W        W64442   4.850   3.270  29.775  0.0217  0.2485 -0.1918
21349W        W64443   4.176   3.782   0.548  0.2219 -0.0500  0.2543
21350W        W64444   4.698   2.472  27.222  0.0387 -0.6082 -0.1511
21351W        W64445   7.306   3.287   0.083 -0.3444  0.2723 -0.0569
21352W        W64446   4.834   2.426  28.240  0.2009  0.0493 -0.1508
21353W        W64447   6.244   2.492  27.968 -0.1882  0.1156 -0.3824
21354W        W64448   6.866   1.148  29.974  0.1098  0.0291 -0.2362
21355W        W64449   4.924   1.935  28.435 -0.0142 -0.2319 -0.1450
21356W        W64450   7.395   0.976  28.426 -0.2304 -0.0081 -0.0728
21357W        W64451   5.839  33.834  29.509 -0.0208 -0.3539 -0.2899
21358W        W64452   8.247  33.924  28.575 -0.1852  0.0743  0.1811
21359W        W64453   7.938   0.274  28.765  0.0829 -0.0324 -0.1616
21360W        W64454   4.426   1.762  30.307  0.4764 -0.0234  0.3273
21361W        W64455   4.427   1.684  25.919  0.0543 -0.0254  0.1354
21362W        W64456   3.483   1.602  26.367  0.0411  0.0559 -0.2218
21363W        W64457   3.900   2.431  30.179 -0.3229 -0.1421 -0.0884
21364W        W64458   3.979  33.594  30.240 -0.0572  0.0484  0.1283
21365W        W64459   5.519   0.852  29.950  0.0012 -0.2614  0.0137
21366W        W64460   4.688   1.695  28.882 -0.1709 -0.1218  0.0936
21367W        W64461   5.626   1.564  26.353  0.1213  0.2626  0.1627
21368W        W64462   7.250   3.416  27.264 -0.1194 -0.2508 -0.2744
21369W        W64463   4.991   0.600  29.741  0.0407  0.0026 -0.3565
21370W        W64464   4.141   0.558  29.209 -0.1378  0.1116 -0.1034
21371W        W64465   7.327   2.699  27.995  0.0465 -0.2771  0.1680
21372W        W64466   6.677   2.667  30.156 -0.1167 -0.1419 -0.1063
21373W        W64467   5.920   1.067  28.528  0.0340 -0.2383  0.0358
21374W        W64468   4.907   2.372  30.510 -0.3228  0.1401 -0.1209
21375W        W64469   3.382   2.758  27.455 -0.2489  0.2881 -0.0183
21376W        W64470   5.565   0.250  31.942 -0.0911 -0.3328  0.0268
21377W        W64471   6.365   0.443  30.368 -0.1294 -0.0055 -0.0389
21378W        W64472   3.263   0.816  27.543  0.0700 -0.3832  0.2239
21379W        W64473   3.984   1.471  30.186  0.1043  0.1616  0.0374
21380W        W64474   5.092   1.307  29.703 -0.0279 -0.2294  0.1666
21381W        W64475   6.910   3.229  28.453 -0.2022 -0.0748  0.2036
21382W        W64476   5.824   2.171  30.438 -0.1926  0.0868  0.0001
21383W        W64477   4.088   2.024  29.931  0.0969 -0.0009  0.1696
21384W        W64478   3.160   0.462  30.706  0.1679  0.2747  0.0718
21385W        W64479   5.879   0.571  29.261 -0.3779 -0.1308  0.1681
21386W        W64480   4.770   2.159  30.081 -0.0040  0.2336  0.1031
21387W        W64481   7.726   3.034  28.138 -0.0109  0.2969 -0.0316
21388W        W64482   5.715  34.036  30.028 -0.0886 -0.3137  0.1488
21389W        W64483   6.404   1.060  27.641  0.1703 -0.1465  0.5556
21390W        W64484   2.677  34.427  31.470  0.1185  0.0469 -0.1495
21391W        W64485   3.903   1.894   0.029  0.0217  0.0890  0.1657
21392W        W64486   7.556   0.636  30.681  0.2704 -0.1627  0.0704
21393W        W64487   4.054   0.043  28.516  0.0670 -0.1700  0.0909
21394W        W64488   6.918   0.233  27.228  0.3378 -0.2262  0.2435
21395W        W64489   7.241   2.131  28.994  0.0349  0.1764 -0.0012
21396W        W64490   4.864   1.630  30.559 -0.3418 -0.3021  0.0576
21397W        W64491   6.168   1.992  27.926  0.2205  0.1356  0.0536
21398W        W64492   5.466   0.923  30.498  0.0162 -0.2110 -0.1115
21399W        W64493   4.763   2.084  29.230 -0.1425  0.1085  0.0010
21400W        W64494   7.836   1.866  29.668  0.1300 -0.1589 -0.0189
21401W        W64495   3.988   0.888  28.459  0.2348 -0.1993  0.0490
21402W        W64496   9.074   0.813  27.556  0.1982  0.1591  0.0988
21403W        W64497   7.153   3.588  30.399 -0.0984  0.0201 -0.1706
21404W        W64498   7.780   4.680  31.637  0.2739 -0.0451  0.1039
21405W        W64499   5.553   2.909  30.726  0.1635  0.0756 -0.0794
21406W        W64500   6.761   1.370  29.556  0.1961  0.0720  0.5028
21407W        W64501   4.859  34.445  29.103  0.0532 -0.1351  0.0794
21408W        W64502   4.486   1.514  29.315 -0.0590  0.0178 -0.0585
21409W        W64503   5.147   1.483  28.647 -0.0378  0.2434 -0.1372
21410W        W64504   6.066   0.661  29.938 -0.1374  0.2284  0.1395
21411W        W64505   4.787   0.981  30.041  0.2812  0.0613  0.2389
21412W        W64506   6.613   1.452  27.371  0.0911  0.2229  0.1475
21413W        W64507   5.193   2.736  30.315 -0.0418 -0.0861  0.1043
21414W        W64508   5.811   2.585  30.982 -0.1524 -0.1490 -0.2599
21415W        W64509   8.280   0.119  30.122 -0.1085  0.2320  0.1649
21416W        W64510   5.715   1.642  31.225  0.1189  0.3015  0.1392
21417W        W64511   2.878   0.790  30.490  0.0150 -0.2891  0.1696
21418W        W64512   5.285   1.390  31.594  0.3642 -0.0349 -0.1640
21419W        W64513   6.366   3.707  31.267  0.2289  0.0171 -0.0358
21420W        W64514   6.421   3.263  30.920  0.2950 -0.2350 -0.3363
21421W        W64515   5.921  34.425  31.834  0.1411 -0.1220  0.1317
21422W        W64516   6.300   1.477  30.459  0.0689 -0.0803  0.0323
21423W        W64517   7.907   0.408  31.234 -0.2415 -0.2737  0.0101
21424W        W64518   6.800   4.100   0.090  0.0213  0.1662  0.1928
21425W        W64519   6.545   3.807  31.716  0.0022 -0.0716 -0.0083
21426W        W64520   4.671   0.337  31.435  0.1794 -0.1996 -0.0605
21427W        W64521   6.311   2.479  31.505  0.2379 -0.1454 -0.0369
21428W        W64522   4.593   0.482  30.842  0.2925 -0.1208 -0.1941
21429W        W64523   6.472   0.507  31.785  0.2359 -0.2036  0.1489
21430W        W64524   3.189   3.379   1.007  0.3657  0.2339 -0.0182
21431W        W64525   4.376   1.761  31.689 -0.0399 -0.0991 -0.2055
21432W        W64526   6.273   2.845  31.154  0.3820 -0.1556  0.1024
21433W        W64527   4.539   1.395  31.259  0.2803 -0.1645  0.0888
21434W        W64528   6.138   0.382  30.920  0.0301  0.1605  0.1405
21435W        W64529   3.995  34.349  30.562 -0.1296 -0.0790  0.3025
21436W        W64530   3.105   2.626  30.772  0.2764  0.1514 -0.3185
21437W        W64531   6.491  34.173  31.637  0.0445 -0.0176 -0.3313
21438W        W64532   5.995  33.789  31.010 -0.0268 -0.1257  0.2366
21439W        W64533   4.134   0.649  31.349  0.1548 -0.2021  0.4409
21440W        W64534   3.377   1.378  30.541  0.0832 -0.3065  0.1961
21441W        W64535   4.110   0.179  30.232 -0.2190  0.1362  0.2761
21442W        W64536   2.875   3.733  31.711  0.1074  0.4393 -0.1434
21443W        W64537   4.363   1.007  29.074 -0.0033 -0.1919  0.0535
21444W        W64538   5.053   3.618   0.093 -0.3467  0.0167  0.0510
21445W        W64539   4.867   1.683  31.513  0.2644 -0.1370  0.1039
21446W        W64540   5.062  33.729  31.292 -0.0948 -0.1296  0.0164
21447W        W64541   6.480   1.504  29.942 -0.1013 -0.1145  0.0586
21448W        W64542   6.175  33.975   0.065  0.4484  0.1194 -0.0934
21449W        W64543   4.427   1.257   0.819 -0.0551 -0.0374 -0.1826
21450W        W64544   3.889   2.634  31.435  0.2213  0.0921  0.1773
21451W        W64545   6.520   2.318  30.469  0.1516 -0.0134 -0.2898
21452W        W64546   7.695   3.197  31.638  0.1131  0.2123 -0.5415
21453W        W64547   6.207   1.970  30.731 -0.0113  0.0202 -0.0204
21454W        W64548   5.586   2.741   0.189  0.2036  0.2672  0.0477
21455W        W64549   7.223   1.500  31.265  0.3100 -0.0229 -0.3234
21456W        W64550   5.443   0.494  31.468  0.1474  0.0629 -0.2976
21457W        W64551   4.586   0.832  31.535  0.0401  0.1476 -0.0196
21458W        W64552   5.348   2.412  31.696 -0.2952  0.0587  0.0337
21459W        W64553   2.697  34.088  30.911 -0.1672 -0.3987  0.3548
21460W        W64554   4.833   2.629   0.942  0.0818  0.0065  0.1828
21461W        W64555   5.138   0.691  30.202 -0.1398  0.1447  0.2169
21462W        W64556   6.558   2.763  30.763 -0.1098 -0.0459  0.2891
21463W        W64557   7.116   2.901  31.714  0.0526 -0.0674  0.2044
21464W        W64558   3.745   3.163  31.605 -0.1357  0.3119 -0.3743
21465W        W64559   6.043   3.589   0.304 -0.0973 -0.4018 -0.0803
21466W        W64560   6.440  34.360  31.149  0.1465  0.4404 -0.1082
21467W        W64561   4.654   0.882  30.521  0.3609  0.2893  0.0822
21468W        W64562   6.740   2.664  31.272  0.1979  0.0356  0.2675
21469W        W64563   5.535   1.294  29.301 -0.0839  0.0704 -0.0495
21470W        W64564   6.631   0.523  30.801  0.2979 -0.1536 -0.1002
21471W        W64565   6.297   2.387  30.951 -0.3079 -0.2009 -0.3236
21472W        W64566   5.336   4.008   0.190 -0.0123  0.0674  0.1052
21473W        W64567   5.123   1.989  31.914 -0.1006  0.2817 -0.0434
21474W        W64568   4.383   1.308  30.446  0.0916 -0.0865  0.0360
21475W        W64569   2.748   0.101  31.056  0.0435 -0.0264  0.1600
21476W        W64570   6.465   1.664  31.940 -0.1018 -0.1139 -0.1549
21477W        W64571   3.461   1.617  31.015  0.1145  0.1916 -0.6400
21478W        W64572   3.633   0.212   0.052  0.0553 -0.3324  0.0325
21479W        W64573   7.913   3.632  30.883 -0.0214 -0.1504 -0.3199
21480W        W64574   8.765   3.286  31.057 -0.2619  0.0936  0.2214
21481W        W64575   5.979   1.137  30.054  0.2332 -0.1253 -0.0116
21482W        W64576   4.398   5.840  18.598 -0.0113  0.0352  0.0217
21483W        W64577   4.675   5.829  16.876 -0.0410  0.2065 -0.1028
21484W        W64578   6.056   2.508  17.072 -0.0787 -0.0831  0.0553
21485W        W64579   5.665   6.091  17.165 -0.2392 -0.1448  0.1832
21486W        W64580   4.696   3.907  16.927 -0.2103  0.3355 -0.2068
21487W        W64581   6.846   6.524  18.290  0.4387  0.1903  0.2396
21488W        W64582   3.706   4.754  19.901 -0.0398  0.0181  0.1308
21489W        W64583   4.764   6.954  16.673 -0.0645 -0.1718  0.1325
21490W        W64584   4.803   7.962  17.684 -0.0819  0.2112  0.0278
21491W        W64585   5.357   4.989  16.160 -0.0746  0.1078 -0.2394
21492W        W64586   5.847   4.787  18.132  0.0199  0.2030  0.1264
21493W        W64587   5.521   5.810  18.570 -0.0084  0.4376  0.0706
21494W        W64588   4.538   3.280  18.191 -0.0164 -0.1373  0.1025
21495W        W64589   4.102   3.283  19.887  0.0783 -0.0742  0.0126
21496W        W64590   7.360   6.068  18.159 -0.2028  0.0886  0.0798
21497W        W64591   4.443   4.444  16.726 -0.0108 -0.1128  0.0037
21498W        W64592   4.610   4.389  18.288 -0.1494  0.2602  0.1438
21499W        W64593   4.289   5.225  17.394  0.3249  0.2538 -0.3282
21500W        W64594   4.726   6.904  18.043  0.3566  0.0615  0.6259
21501W        W64595   5.625   3.462  19.071  0.3800 -0.0744 -0.0340
21502W        W64596   6.678   3.933  20.093 -0.4773  0.0215  0.1672
21503W        W64597   5.438   4.881  17.482  0.3558  0.2056 -0.0967
21504W        W64598   3.373   5.092  17.584 -0.2256 -0.0821 -0.2089
21505W        W64599   3.360   4.755  18.258 -0.3639 -0.2914  0.0519
21506W        W64600   5.409   4.975  18.294 -0.0385  0.1380  0.0826
21507W        W64601   6.419   5.098  17.669 -0.0853 -0.1423 -0.4326
21508W        W64602   7.122   5.656  18.515 -0.0930  0.1717 -0.0532
21509W        W64603   5.484   7.330  16.459  0.1870 -0.0200  0.2079
21510W        W64604   5.777   7.255  17.673 -0.0647  0.1068 -0.1341
21511W        W64605   6.973   4.738  18.968 -0.3186  0.0831  0.2633
21512W        W64606   3.439   6.492  18.004  0.2209  0.1702  0.0674
21513W        W64607   3.805   8.272  18.679  0.0625  0.1217  0.0276
21514W        W64608   6.096   6.345  16.450  0.1934  0.2778  0.1471
21515W        W64609   7.225   5.064  17.092  0.0496  0.2888  0.0692
21516W        W64610   6.749   6.613  19.202 -0.1553 -0.0833 -0.0644
21517W        W64611   5.373   7.650  17.732  0.3303  0.2512 -0.0152
21518W        W64612   3.924   6.384  17.319 -0.0281  0.0595  0.3830
21519W        W64613   5.827   7.273  19.158 -0.0133 -0.2646 -0.3669
21520W        W64614   4.953   7.090  17.232 -0.0598  0.1020 -0.0904
21521W        W64615   6.505   3.312  18.734  0.0548 -0.0389 -0.0883
21522W        W64616   6.491   5.540  16.544  0.2711  0.2231  0.1013
21523W        W64617   3.939   7.447  16.858 -0.2152 -0.5218 -0.0022
21524W        W64618   5.956   4.814  19.142  0.0508 -0.1930  0.0583
21525W        W64619   4.681   6.386  18.037 -0.1810  0.1508 -0.2397
21526W        W64620   4.818   5.504  18.054  0.1541  0.3756 -0.1930
21527W        W64621   6.228   4.733  19.586 -0.1965 -0.1867  0.0428
21528W        W64622   5.678   5.886  16.151 -0.3298 -0.2615  0.2490
21529W        W64623   6.161   6.077  16.933  0.3227 -0.0001  0.1178
21530W        W64624   4.804   4.176  15.769 -0.0099  0.0389  0.0578
21531W        W64625   6.677   5.002  16.860  0.2149 -0.0197  0.1541
21532W        W64626   6.236   4.416  18.289  0.1856  0.0384 -0.1449
21533W        W64627   4.531   7.340  18.294  0.0563 -0.3179 -0.1945
21534W        W64628   4.240   4.205  17.124  0.0360  0.2545  0.0583
21535W        W64629   5.319   6.899  19.990  0.0193  0.4031 -0.0312
21536W        W64630   5.595   5.672  17.475 -0.0425 -0.1897  0.1650
21537W        W64631   6.583   5.330  18.236 -0.0996  0.0246  0.0112
21538W        W64632   5.084   7.151  18.384 -0.2211  0.0801 -0.2772
21539W        W64633   2.925   5.444  19.137  0.0225 -0.1139  0.0846
21540W        W64634   6.018   7.197  15.834 -0.1357 -0.1874  0.0419
21541W        W64635   6.461   6.917  17.167  0.1662  0.0681 -0.0424
21542W        W64636   5.285   6.358  17.339 -0.0223 -0.0603  0.0129
21543W        W64637   4.125   5.967  19.410  0.0474  0.1918 -0.1861
21544W        W64638   2.883   6.499  20.088  0.1503  0.1165 -0.2785
21545W        W64639   4.524   4.839  19.258  0.0925 -0.0994 -0.0640
21546W        W64640   3.855   4.149  15.926 -0.3531 -0.0041 -0.4628
21547W        W64641   7.215   5.329  19.684  0.1478 -0.3426  0.3695
21548W        W64642   3.805   7.086  18.811 -0.0228 -0.1114  0.2293
21549W        W64643   6.598   4.827  18.077 -0.2067 -0.0737 -0.1715
21550W        W64644   4.859   5.973  18.289 -0.1960 -0.3332  0.0605
21551W        W64645   6.907   6.197  18.674 -0.0248 -0.0108  0.1743
21552W        W64646   5.696   5.752  18.139 -0.0738  0.1006  0.1808
21553W        W64647   5.936   4.864  17.535  0.0621 -0.0450 -0.2838
21554W        W64648   5.966   3.116  18.232 -0.1244  0.2710  0.0244
21555W        W64649   4.200   6.504  16.325 -0.1436  0.1910  0.2959
21556W        W64650   5.252   5.367  17.340 -0.2485 -0.1240  0.0956
21557W        W64651   8.042   6.693  17.790  0.2618  0.1869 -0.1998
21558W        W64652   5.545   5.082  15.687  0.0640  0.1038 -0.3525
21559W        W64653   4.719   6.355  16.769  0.0659  0.0551 -0.0799
21560W        W64654   5.364   4.336  19.864  0.0730 -0.3892  0.1643
21561W        W64655   6.096   6.626  18.419  0.2264 -0.0610 -0.0305
21562W        W64656   3.601   8.819  18.520  0.1857 -0.1001 -0.0302
21563W        W64657   2.487   6.448  18.655  0.1247 -0.0480 -0.0918
21564W        W64658   4.738   5.745  16.346 -0.1951  0.2972 -0.0388
21565W        W64659   2.914   4.164  19.315  0.0503  0.0908 -0.1317
21566W        W64660   4.792   6.367  18.638 -0.1810 -0.1179 -0.0148
21567W        W64661   7.959   4.928  17.411  0.1208 -0.1799  0.0542
21568W        W64662   3.918   4.368  19.691 -0.0758  0.0925  0.0815
21569W        W64663   6.049   3.257  17.763  0.2516  0.1237  0.1304
21570W        W64664   4.253   6.691  18.087  0.4259 -0.0537  0.1359
21571W        W64665   6.395   7.510  18.385  0.0416  0.0887  0.0922
21572W        W64666   6.012   5.389  17.606  0.0936 -0.0236  0.4884
21573W        W64667   6.477   6.088  16.514 -0.2465 -0.0351  0.1673
21574W        W64668   3.247   3.840  17.978 -0.0229 -0.0005 -0.1259
21575W        W64669   4.469   5.047  18.807  0.3773 -0.2538  0.2251
21576W        W64670   5.466   5.081  19.422 -0.0286 -0.2236  0.1825
21577W        W64671   4.242   3.388  18.634 -0.1136 -0.0899  0.2689
21578W        W64672   7.964   4.786  18.510 -0.2473 -0.0564 -0.1547
21579W        W64673   3.085   4.144  16.667 -0.0464  0.2918  0.1714
21580W        W64674   5.610   5.199  17.939 -0.0295 -0.0517  0.0469
21581W        W64675   5.805   4.308  17.852 -0.0282 -0.0251 -0.0243
21582W        W64676   3.466   7.399  17.246  0.4181 -0.1473  0.3907
21583W        W64677   6.793   3.740  18.133  0.1210 -0.1130  0.2219
21584W        W64678   6.500   8.690  16.554  0.1401 -0.0209 -0.0828
21585W        W64679   6.218   6.117  18.789 -0.0352  0.0970 -0.0851
21586W        W64680   6.379   6.518  17.986 -0.1958 -0.0391 -0.0297
21587W        W64681   5.096   4.294  18.995 -0.0447  0.0466 -0.0881
21588W        W64682   4.592   4.850  16.937 -0.0783 -0.1527 -0.0439
21589W        W64683   2.927   7.616  17.442 -0.0063 -0.0278  0.1204
21590W        W64684   4.464   6.992  17.594  0.0168 -0.0180 -0.0543
21591W        W64685   5.919   3.054  17.358 -0.0991 -0.1836  0.0347
21592W        W64686   7.086   6.594  19.566 -0.0280 -0.0047 -0.0162
21593W        W64687   6.999   5.253  16.609 -0.0807  0.1959 -0.3023
21594W        W64688   5.112   5.740  17.758 -0.1372 -0.0015  0.0475
21595W        W64689   6.830   4.667  17.667  0.2873  0.2790 -0.2776
21596W        W64690   6.220   5.259  18.702  0.0882  0.3707  0.1519
21597W        W64691   3.866   4.261  17.646  0.0329 -0.2390  0.2293
21598W        W64692   4.196   4.509  16.299  0.1034 -0.1927  0.1573
21599W        W64693   5.253   7.032  16.789  0.0018 -0.0686 -0.0224
21600W        W64694   4.020   7.511  16.314 -0.2589  0.2162  0.2425
21601W        W64695   3.590   5.178  18.070  0.2355 -0.0348  0.0755
21602W        W64696   6.828   5.996  18.142  0.1618 -0.2849  0.0604
21603W        W64697   6.095   4.436  17.369 -0.1084 -0.0338 -0.3157
21604W        W64698   3.465   5.936  19.274  0.0687  0.2790  0.2088
21605W        W64699   6.474   4.548  19.114 -0.0476  0.1275  0.3868
21606W        W64700   4.308   5.544  17.775 -0.3408  0.1602  0.4022
21607W        W64701   5.417   8.053  18.114 -0.0828 -0.0656 -0.1746
21608W        W64702   4.842   2.348  17.605  0.1362  0.0592  0.1512
21609W        W64703   6.353   6.134  18.291 -0.2181 -0.3037  0.1447
21610W        W64704   5.289   6.274  18.785  0.0636  0.2224 -0.1942
21611W        W64705   6.637   5.643  16.024 -0.1574 -0.2842 -0.0506
21612W        W64706   6.704   4.012  16.554 -0.0244 -0.1175  0.0257
21613W        W64707   5.914   4.166  16.132  0.0094 -0.0050 -0.2214
21614W        W64708   4.002   6.575  18.779  0.0791  0.1558  0.1708
21615W        W64709   5.630   6.184  16.659 -0.0688 -0.2269  0.3998
21616W        W64710   5.064   5.914  17.288 -0.5376  0.1447 -0.1790
21617W        W64711   5.271   5.068  16.947  0.0172  0.0173  0.1424
21618W        W64712   6.237   7.700  16.838 -0.1251 -0.0604 -0.2081
21619W        W64713   4.786   5.441  18.850  0.0835  0.1280  0.1484
21620W        W64714   5.275   5.819  19.656 -0.1880 -0.0431 -0.0356
21621W        W64715   4.913   4.966  17.303  0.0411  0.0354  0.2093
21622W        W64716   5.940   4.489  18.771  0.1434 -0.0480  0.0570
21623W        W64717   4.972   4.225  16.684  0.0599 -0.1826  0.0248
21624W        W64718   5.848   4.978  19.783 -0.2375 -0.1059  0.1438
21625W        W64719   2.844   6.970  16.370  0.0704  0.0035 -0.0235
21626W        W64720   6.068   5.737  18.475 -0.0509 -0.2818  0.1437
21627W        W64721   5.364   4.119  18.092  0.1045 -0.0336  0.1124
21628W        W64722   5.947   4.512  19.986  0.1850  0.2070 -0.5712
21629W        W64723   7.341   5.320  18.911  0.1503  0.0114  0.0439
21630W        W64724   6.484   5.567  17.517 -0.1267 -0.0326  0.1373
21631W        W64725   6.385   5.613  19.047  0.0173 -0.1985 -0.2252
21632W        W64726   4.598   4.810  16.408  0.0162 -0.2874  0.4778
21633W        W64727   6.259   4.136  19.736  0.0647 -0.0040 -0.3241
21634W        W64728   3.517   5.820  19.797 -0.0293 -0.1914  0.5012
21635W        W64729   4.426   7.056  19.268  0.2325 -0.1865  0.2400
21636W        W64730   5.908   6.838  19.371  0.1150 -0.1499 -0.1533
21637W        W64731   7.582   5.397  17.274  0.3633  0.0224  0.0321
21638W        W64732   6.316   4.814  18.566 -0.0869 -0.1021 -0.2744
21639W        W64733   5.169   4.609  17.002  0.0078 -0.4096  0.2131
21640W        W64734   3.099   7.604  16.940 -0.1519  0.1566 -0.1697
21641W        W64735   5.360   6.268  16.202  0.1742  0.1984 -0.0690
21642W        W64736   3.951   3.345  17.939  0.2643 -0.0060  0.0499
21643W        W64737   5.827   6.213  18.428  0.0394 -0.0002  0.0761
21644W        W64738   5.551   6.599  16.890 -0.0277  0.0959  0.0054
21645W        W64739   5.461   5.880  19.066 -0.0467 -0.1630 -0.3765
21646W        W64740   4.330   7.789  16.584  0.3167  0.1877 -0.0851
21647W        W64741   6.861   3.284  19.088 -0.0072  0.0697 -0.5482
21648W        W64742   3.366   7.073  18.522  0.1630 -0.2335  0.1596
21649W        W64743   4.005   4.949  17.019 -0.0565 -0.1920 -0.2288
21650W        W64744   4.160   7.161  18.001  0.2506 -0.3844  0.2193
21651W        W64745   6.252   3.554  16.923 -0.0941  0.1030 -0.0516
21652W        W64746   7.464   5.859  16.670 -0.1353  0.0777  0.1871
21653W        W64747   4.757   4.684  17.752  0.0535  0.1663 -0.2893
21654W        W64748   5.115   3.266  18.988 -0.1250 -0.1448  0.1768
21655W        W64749   4.556   9.511  19.878  0.2013  0.0267  0.1624
21656W        W64750   6.482   6.985  18.196  0.1065  0.1600  0.1020
21657W        W64751   6.336   5.226  17.154  0.2587  0.0533  0.1093
21658W        W64752   5.066   4.094  18.502  0.1404 -0.2596  0.2291
21659W        W64753   6.190   5.292  21.652  0.4697  0.3114  0.2258
21660W        W64754   3.498   5.703  16.856 -0.2669  0.0537 -0.5960
21661W        W64755   7.954   3.897  18.645 -0.1321 -0.2445  0.1053
21662W        W64756   5.110   4.395  17.522 -0.2112  0.0849  0.0447
21663W        W64757   4.594   6.769  18.498 -0.0038  0.0343  0.3004
21664W        W64758   5.836   7.524  18.088  0.1075  0.1267  0.2247
21665W        W64759   4.135   4.914  16.543 -0.1662  0.0734  0.1044
21666W        W64760   5.189   6.124  16.850  0.2018 -0.0356  0.0336
21667W        W64761   4.975   4.721  18.284  0.0493  0.2449  0.0590
21668W        W64762   6.582   5.706  18.589 -0.0269  0.4180  0.0473
21669W        W64763   3.844   4.688  18.358  0.0442  0.0437 -0.1234
21670W        W64764   3.863   4.756  19.275 -0.1068  0.2910  0.3949
21671W        W64765   5.772   4.089  18.342 -0.0593  0.0554 -0.1589
21672W        W64766   6.317   7.091  18.730  0.1980 -0.0945 -0.0264
21673W        W64767   4.621   5.672  19.796 -0.1304  0.1802 -0.0376
21674W        W64768   5.493   7.675  18.493  0.0501  0.1128 -0.2425
21675W        W64769   4.897   3.103  17.529 -0.1124 -0.2979 -0.0312
21676W        W64770   5.932   7.636  16.462 -0.1012 -0.1262 -0.0709
21677W        W64771   6.499   6.484  18.744  0.2866 -0.1571 -0.1663
21678W        W64772   4.379   7.173  16.470 -0.0813 -0.1997 -0.2669
21679W        W64773   3.407   6.550  19.824 -0.5845 -0.1282  0.1632
21680W        W64774   3.879   6.987  17.132 -0.1001 -0.0211 -0.3613
21681W        W64775   6.534   3.776  19.085  0.0807  0.0744 -0.0566
21682W        W64776   5.529   6.103  17.706  0.0761  0.1536  0.4094
21683W        W64777   4.445   7.186  17.090 -0.0816 -0.0627 -0.2563
21684W        W64778   2.428   7.712  17.719 -0.3527 -0.0555  0.0087
21685W        W64779   6.718   4.483  16.687  0.0066 -0.2253  0.0326
21686W        W64780   5.870   6.989  17.103 -0.4930  0.0034  0.0043
21687W        W64781   5.603   5.459  16.473  0.1351  0.0988 -0.3762
21688W        W64782   7.353   3.237  17.489 -0.0262  0.2034 -0.0648
21689W        W64783   5.612   6.687  16.387  0.1935 -0.0816  0.2462
21690W        W64784   6.773   4.138  20.540 -0.0926 -0.1152  0.3459
21691W        W64785   5.548   4.030  18.923  0.0524 -0.1980  0.1089
21692W        W64786   5.432   5.643  16.960 -0.3337  0.0618 -0.0233
21693W        W64787   4.699   4.619  18.862  0.2548 -0.2895  0.4207
21694W        W64788   5.810   8.063  20.126  0.0480 -0.3447  0.2414
21695W        W64789   5.807   6.888  19.897  0.7019 -0.1824  0.1082
21696W        W64790   5.578   4.248  17.287 -0.2544  0.1557 -0.3389
21697W        W64791   3.538   4.239  18.058 -0.0798  0.0207 -0.1999
21698W        W64792   4.752   5.396  17.535 -0.3888  0.2150 -0.0301
21699W        W64793   6.291   6.715  19.077  0.2359 -0.0148  0.0208
21700W        W64794   4.764   6.240  17.335 -0.0249  0.1626  0.1024
21701W        W64795   8.456   4.136  17.459 -0.0519  0.1189  0.3940
21702W        W64796   2.844   5.357  18.637  0.0595  0.0678  0.0350
21703W        W64797   6.831   5.125  17.346  0.0042  0.0054 -0.0229
21704W        W64798   3.962   6.802  17.634 -0.0959 -0.0871  0.3005
21705W        W64799   5.540   3.741  17.109 -0.0794  0.0380  0.2065
21706W        W64800   6.914   4.247  19.002  0.1461 -0.2640  0.2178
21707W        W64801   6.504   6.565  16.543  0.0772  0.1417 -0.0015
21708W        W64802   6.551   4.744  17.273 -0.1733 -0.4122  0.0542
21709W        W64803   6.110   3.473  19.592  0.2907 -0.0340  0.2065
21710W        W64804   7.706   5.107  18.251 -0.1730  0.0475 -0.2618
21711W        W64805   5.056   5.301  19.659  0.2780 -0.2905 -0.1337
21712W        W64806   4.053   3.898  18.729 -0.0356 -0.4723  0.3958
21713W        W64807   5.677   8.179  18.612 -0.0456  0.0185  0.1535
21714W        W64808   6.927   5.231  16.102  0.1603  0.0845 -0.1109
21715W        W64809   7.769   2.943  18.536  0.0219 -0.0975  0.2963
21716W        W64810   6.276   5.662  18.028 -0.2861 -0.2541 -0.0421
21717W        W64811   5.949   5.012  16.251  0.1110 -0.0039  0.1580
21718W        W64812   3.239   4.331  18.511 -0.3014 -0.3376  0.0005
21719W        W64813   5.956   5.875  19.126 -0.0635 -0.1316 -0.1379
21720W        W64814   4.514   4.079  16.171 -0.3329 -0.4155  0.2714
21721W        W64815   6.817   4.703  19.532 -0.0461  0.2937  0.3218
21722W        W64816   5.999   6.813  16.638 -0.2773  0.1777 -0.2902
21723W        W64817   5.998   5.800  16.545 -0.0846 -0.1351  0.3173
21724W        W64818   6.099   5.213  16.661 -0.0849 -0.0116 -0.2090
21725W        W64819   4.244   4.679  17.825 -0.2558  0.0225 -0.3725
21726W        W64820   3.682   5.645  21.085  0.0174 -0.0857  0.3985
21727W        W64821   3.332   3.958  16.074 -0.1059  0.2100 -0.0027
21728W        W64822   5.090   3.542  16.878  0.0800 -0.0820 -0.1336
21729W        W64823   5.271   5.443  18.228  0.0038 -0.1574 -0.0644
21730W        W64824   5.580   6.130  19.448  0.1007 -0.2561  0.0325
21731W        W64825   6.043   2.780  16.485 -0.3467  0.0539  0.1506
21732W        W64826   6.815   5.138  20.516  0.1184 -0.1326  0.0425
21733W        W64827   4.801   7.122  15.914  0.0819  0.1001 -0.0651
21734W        W64828   6.297   2.801  17.534  0.0341  0.0793  0.2451
21735W        W64829   4.786   8.898  17.754 -0.2467 -0.0075 -0.0294
21736W        W64830   3.975   7.492  18.404  0.0949 -0.1888  0.1450
21737W        W64831   4.521   6.701  17.174  0.0591  0.1126  0.1132
21738W        W64832   4.979   2.755  18.772 -0.1285 -0.0431 -0.0138
21739W        W64833   5.935   5.613  17.073  0.1606  0.0194 -0.1607
21740W        W64834   5.271   5.160  18.773  0.0387  0.2523 -0.0333
21741W        W64835   6.810   4.686  18.471 -0.1015 -0.0628 -0.1988
21742W        W64836   5.259   5.467  19.175 -0.1704  0.0557  0.0094
21743W        W64837   4.865   5.168  18.392 -0.3492  0.0546 -0.2967
21744W        W64838   6.120   6.338  19.333 -0.2167  0.2876 -0.1626
21745W        W64839   6.925   5.855  17.455 -0.1935 -0.1134  0.1282
21746W        W64840   5.124   6.594  18.245  0.2878  0.2235  0.0428
21747W        W64841   4.071   4.876  20.315  0.1912  0.1890  0.4064
21748W        W64842   6.601   4.153  19.352 -0.0565  0.2135 -0.2016
21749W        W64843   5.400   6.659  17.835  0.0056 -0.0542  0.1593
21750W        W64844   3.925   4.425  16.736  0.0248  0.1251 -0.0005
21751W        W64845   6.081   6.580  17.037 -0.1566  0.0488 -0.0911
21752W        W64846   4.088   7.407  19.188  0.3417 -0.2424 -0.0804
21753W        W64847   4.197   4.989  19.789 -0.0001 -0.0415  0.0707
21754W        W64848   2.800   7.111  16.814  0.2078 -0.0274 -0.0615
21755W        W64849   6.778   7.144  16.718  0.0347  0.0215  0.1824
21756W        W64850   7.863   5.690  16.934  0.1561 -0.1000  0.1301
21757W        W64851   7.405   9.144  18.717 -0.1719  0.1790 -0.2755
21758W        W64852   5.598   4.954  16.585 -0.0618 -0.1283  0.3519
21759W        W64853   4.254   6.509  19.443 -0.1108  0.2484 -0.0011
21760W        W64854   3.656   6.008  17.216 -0.1811 -0.0256 -0.1372
21761W        W64855   7.231   7.267  18.786  0.1367 -0.0773 -0.2183
21762W        W64856   3.371   7.451  18.171 -0.2195 -0.0275 -0.3068
21763W        W64857   6.988   5.079  17.841 -0.1793  0.1446  0.2473
21764W        W64858   5.774   3.349  16.779  0.0691 -0.0764 -0.3051
21765W        W64859   6.291   6.429  17.527 -0.1546 -0.0028  0.2865
21766W        W64860   5.767   5.177  17.139 -0.0020  0.1581  0.2759
21767W        W64861   5.940   6.701  20.341  0.2006 -0.0568  0.3009
21768W        W64862   5.636   4.633  19.477 -0.0662 -0.1516 -0.1774
21769W        W64863   5.066   4.740  16.543  0.0486  0.0277 -0.0274
21770W        W64864   4.727   6.181  19.589 -0.2223 -0.0038  0.1771
21771W        W64865   8.793   1.589  17.845  0.1249 -0.0986 -0.0548
21772W        W64866   3.235   8.099  17.981 -0.0182 -0.1426 -0.0398
21773W        W64867   6.962   5.724  16.405 -0.2458  0.2861  0.0892
21774W        W64868   2.235   5.673  16.967  0.0841  0.0619 -0.3079
21775W        W64869   3.907   5.566  17.214  0.1940 -0.4398  0.3706
21776W        W64870   6.648   2.442  19.023 -0.4453 -0.1103 -0.1471
21777W        W64871   5.028   6.647  17.039  0.1413  0.1934  0.2813
21778W        W64872   6.109   5.194  18.045  0.3355  0.1505 -0.1804
21779W        W64873   3.703   7.927  16.317  0.0251  0.2675  0.0872
21780W        W64874   3.843   7.120  16.472  0.1225  0.0113 -0.2623
21781W        W64875   6.288   7.231  16.666  0.1082 -0.2701  0.0647
21782W        W64876   4.260   4.003  16.642  0.1113 -0.1193  0.3907
21783W        W64877   7.257   4.302  17.558  0.2030  0.0544 -0.2196
21784W        W64878   4.377   6.169  19.929 -0.1516 -0.1529 -0.1342
21785W        W64879   7.070   2.760  18.253  0.2192 -0.1012  0.0585
21786W        W64880   5.052   6.219  17.741  0.2180 -0.1418 -0.2251
21787W        W64881   6.833   5.567  17.879  0.0850 -0.0120 -0.0371
21788W        W64882   5.674   4.678  17.045  0.0475 -0.0551 -0.0989
21789W        W64883   3.893   5.164  18.606  0.1257 -0.2318  0.1068
21790W        W64884   4.878   5.370  16.975  0.0278 -0.2809  0.3445
21791W        W64885   8.229   4.950  19.691  0.0193 -0.0912  0.1495
21792W        W64886   4.538   5.756  17.321 -0.0545 -0.0907 -0.0715
21793W        W64887   5.435   7.237  18.737  0.1980  0.1027  0.0667
21794W        W64888   4.523   5.079  17.955 -0.1136  0.2765  0.0035
21795W        W64889   5.975   4.242  16.915 -0.0695 -0.0936 -0.1895
21796W        W64890   4.204   7.044  18.509 -0.5120 -0.0656  0.0927
21797W        W64891   5.397   6.568  19.181  0.0482  0.0103 -0.1117
21798W        W64892   5.868   6.388  19.952 -0.3239 -0.0072 -0.0771
21799W        W64893   4.018   3.828  15.607 -0.0725  0.2544  0.1386
21800W        W64894   7.585   6.911  15.802  0.1644 -0.2085  0.1491
21801W        W64895   8.068   5.797  18.382 -0.1545  0.2121  0.0581
21802W        W64896   5.171   6.981  16.291  0.2799  0.0105 -0.1536
21803W        W64897   5.044   5.061  17.857  0.1481 -0.0231 -0.4316
21804W        W64898   6.227   6.891  17.677  0.1804 -0.0438 -0.2737
21805W        W64899   5.266   4.029  19.415 -0.0891  0.2580 -0.3097
21806W        W64900   7.946   7.082  18.929  0.2269 -0.3574 -0.3099
21807W        W64901   7.355   6.032  18.889  0.0617 -0.1299 -0.2740
21808W        W64902   4.458   4.221  17.735 -0.2502 -0.0921  0.1702
21809W        W64903   4.422   5.724  19.069 -0.0671 -0.2925 -0.4659
21810W        W64904   3.866   8.093  19.159  0.2495  0.1034 -0.0066
21811W        W64905   6.497   4.165  18.659 -0.0052 -0.0995 -0.1894
21812W        W64906   5.563   3.070  18.598  0.3225  0.1754 -0.2680
21813W        W64907   5.353   5.445  16.036  0.1910 -0.2998 -0.1470
21814W        W64908   7.249   3.565  18.386  0.5377 -0.0671  0.1386
21815W        W64909   5.979   7.045  18.160 -0.2168  0.0773  0.0909
21816W        W64910   4.981   7.823  20.197  0.4555  0.1062 -0.0835
21817W        W64911   4.330   6.305  15.856 -0.1268 -0.0809  0.4045
21818W        W64912   5.015   3.520  19.404  0.2034 -0.0221  0.0568
21819W        W64913   5.213   5.811  16.482 -0.1570 -0.1337  0.3706
21820W        W64914   5.260   7.532  16.854 -0.0121 -0.1966 -0.0561
21821W        W64915   4.995   9.100  19.330  0.3528 -0.2654  0.1312
21822W        W64916   5.327   4.586  17.920  0.2201 -0.1399  0.0618
21823W        W64917   7.808   5.656  17.915 -0.2341  0.0788  0.0624
21824W        W64918   5.939   3.765  17.954  0.2756 -0.1323  0.1253
21825W        W64919   6.386   3.152  16.607 -0.2696 -0.0324  0.1353
21826W        W64920   6.421   4.126  16.988 -0.0860  0.1283  0.3663
21827W        W64921   6.990   6.780  18.692  0.1360 -0.2343 -0.0568
21828W        W64922   3.591   4.840  16.639  0.2158 -0.1409 -0.1309
21829W        W64923   4.814   6.239  16.165  0.2312  0.2028 -0.0222
21830W        W64924   4.273   6.327  18.469 -0.2383 -0.0363  0.1403
21831W        W64925   4.220   3.621  19.388 -0.1016  0.3077 -0.0857
21832W        W64926   4.338   4.288  19.978 -0.0353  0.1781  0.2793
21833W        W64927   4.182   4.184  19.172 -0.1497  0.1642  0.0184
21834W        W64928   3.587   2.971  17.086 -0.4363  0.0208  0.2240
21835W        W64929   6.975   6.019  16.800 -0.3067  0.1815 -0.2555
21836W        W64930   3.357   3.153  18.947  0.1848 -0.1556 -0.0466
21837W        W64931   4.447   3.270  17.720  0.1677  0.2966 -0.0968
21838W        W64932   6.550   6.280  17.090 -0.1338 -0.1002  0.1266
21839W        W64933   7.394   5.964  17.158 -0.0588 -0.0080 -0.1620
21840W        W64934   4.687   4.375  17.173  0.0329  0.0142 -0.1256
21841W        W64935   7.774   6.441  18.947 -0.1395 -0.0504  0.0979
21842W        W64936   4.226   6.721  16.754  0.0664 -0.0972 -0.1384
21843W        W64937   4.592   3.923  20.693  0.2864 -0.1376 -0.1279
21844W        W64938   5.011   4.630  19.442  0.1221 -0.1943 -0.0415
21845W        W64939   3.340   3.546  16.327 -0.3495  0.4291  0.2904
21846W        W64940   7.439   4.814  18.630  0.2344 -0.0650  0.1335
21847W        W64941   5.810   7.461  16.906  0.2434 -0.0136  0.3795
21848W        W64942   6.614   6.967  16.283 -0.1857 -0.0371 -0.0121
21849W        W64943   5.567   6.824  18.336  0.1298  0.4035  0.1859
21850W        W64944   4.944   8.776  18.333 -0.0429  0.1532 -0.3831
21851W        W64945   3.704   4.217  18.761 -0.0457 -0.0010  0.0438
21852W        W64946   6.535   6.058  17.787 -0.0630 -0.0304 -0.1077
21853W        W64947   5.119   6.684  19.553  0.0533 -0.0471 -0.5960
21854W        W64948   7.033   5.568  17.022 -0.0130  0.1123  0.1967
21855W        W64949   7.887   2.518  17.672 -0.0766  0.3206 -0.0327
21856W        W64950   5.039   5.246  16.520 -0.4655  0.1028  0.1939
21857W        W64951   3.999   2.669  20.555 -0.3054  0.0681  0.1946
21858W        W64952   4.357   6.990  20.419  0.1602  0.0481  0.3698
21859W        W64953   8.255   5.524  18.785  0.0177 -0.0277  0.2591
21860W        W64954   5.146   3.808  19.032 -0.1130 -0.2706  0.0295
21861W        W64955   6.050   3.842  17.412  0.1277 -0.2320  0.5499
21862W        W64956   7.157   5.419  17.534 -0.1063 -0.0954  0.0543
21863W        W64957   4.496   4.428  19.495  0.1109  0.3004 -0.0523
21864W        W64958   6.239   4.658  16.852  0.0998  0.0503  0.4110
21865W        W64959   5.669   4.899  18.695 -0.1334  0.1055 -0.0974
21866W        W64960   4.664   6.734  16.263  0.3015  0.0272 -0.2140
21867W        W64961   5.815   5.351  18.941  0.0697 -0.2073  0.2325
21868W        W64962   4.221   3.698  17.088  0.1806  0.0012  0.1500
21869W        W64963   6.536   5.736  17.080  0.1540 -0.2191 -0.0504
21870W        W64964   4.867   5.927  18.897 -0.2159 -0.0207 -0.1163
21871W        W64965   6.332   6.335  20.151  0.0358  0.1090  0.0597
21872W        W64966   5.847   6.616  17.930  0.2671  0.0366  0.0262
21873W        W64967   5.809   5.270  18.405  0.2293 -0.1031  0.1212
21874W        W64968   4.728   3.999  19.267  0.1629  0.6399  0.3136
21875W        W64969   4.324   5.338  18.389  0.3139 -0.1381 -0.1587
21876W        W64970   4.896   4.171  17.984 -0.0636  0.0045 -0.0572
21877W        W64971   5.647   3.710  19.478 -0.3184 -0.3509  0.1992
21878W        W64972   5.041   3.161  18.469 -0.3239 -0.3730 -0.2628
21879W        W64973   5.321   4.197  15.891  0.0931  0.2226 -0.0410
21880W        W64974   4.894   6.740  17.597  0.0724  0.0804  0.0511
21881W        W64975   6.045   6.149  17.886  0.1478 -0.1612  0.0130
21882W        W64976   4.831   6.614  21.805 -0.1411 -0.1876  0.1857
21883W        W64977   5.049   4.672  20.854  0.0897  0.0006 -0.0282
21884W        W64978   6.248   4.686  20.365 -0.0569  0.4300 -0.2239
21885W        W64979   7.217   4.898  20.552 -0.0037  0.0086  0.2309
21886W        W64980   3.245   4.240  21.598  0.0400 -0.1331 -0.1141
21887W        W64981   6.880   6.927  20.400 -0.1372 -0.3954 -0.0847
21888W        W64982   3.951   3.301  23.133 -0.0381  0.0498 -0.2292
21889W        W64983   6.433   6.515  22.641 -0.1608 -0.3210  0.0563
21890W        W64984   7.673   7.345  21.364 -0.0293 -0.2952 -0.1971
21891W        W64985   5.148   5.511  21.457 -0.0041 -0.0560  0.3622
21892W        W64986   5.195   4.978  22.688  0.1335 -0.0033 -0.0543
21893W        W64987   4.354   6.756  21.564  0.3409 -0.0373 -0.1771
21894W        W64988   4.532   3.719  19.876  0.1603  0.2436 -0.1180
21895W        W64989   3.151   4.598  22.544 -0.0254  0.0711  0.0150
21896W        W64990   7.550   4.645  23.233 -0.1408  0.0082  0.0676
21897W        W64991   3.804   6.612  21.072  0.1625 -0.0012  0.1303
21898W        W64992   5.442   5.686  21.890 -0.0456 -0.4051  0.1086
21899W        W64993   4.935   3.551  20.168  0.0609 -0.0094 -0.0773
21900W        W64994   7.050   7.424  20.595 -0.0214  0.1352 -0.2666
21901W        W64995   4.837   4.255  23.274 -0.0103  0.0876 -0.0731
21902W        W64996   5.923   2.478  23.927  0.2403 -0.1806  0.0749
21903W        W64997   5.248   6.304  20.838  0.0732 -0.2387  0.3213
21904W        W64998   4.451   4.917  21.232 -0.1099  0.1604 -0.1709
21905W        W64999   4.025   4.518  22.135  0.1393  0.0904  0.4302
21906W        W65000   4.826   3.707  23.435 -0.1079  0.1180 -0.1685
21907W        W65001   6.323   3.406  22.033 -0.1001  0.0739 -0.2601
21908W        W65002   7.412   5.063  22.550 -0.2227  0.0725  0.2324
21909W        W65003   5.294   5.412  20.964 -0.2735  0.1255 -0.1166
21910W        W65004   6.960   7.082  21.717  0.2736 -0.2627 -0.4142
21911W        W65005   6.875   4.996  23.486  0.1839  0.2207 -0.4305
21912W        W65006   4.946   5.579  21.863 -0.2378 -0.0538  0.0961
21913W        W65007   2.936   7.193  21.632  0.2763 -0.1509  0.3856
21914W        W65008   4.431   7.703  20.312  0.0560 -0.0711 -0.0249
21915W        W65009   6.145   5.636  20.694 -0.0638  0.0993 -0.0945
21916W        W65010   7.326   8.174  23.251 -0.1338  0.0031 -0.0586
21917W        W65011   5.800   8.113  23.041 -0.1655  0.1185 -0.1743
21918W        W65012   4.049   8.677  20.201 -0.3762  0.1885  0.1845
21919W        W65013   6.783   7.526  23.610  0.0494 -0.1301 -0.1208
21920W        W65014   5.581   6.206  22.986 -0.1987 -0.3603 -0.1708
21921W        W65015   6.950   5.381  22.677 -0.1941 -0.0662  0.0525
21922W        W65016   5.707   5.399  21.595  0.1266 -0.0796  0.1414
21923W        W65017   5.112   7.509  19.109  0.1848  0.3071  0.1193
21924W        W65018   4.819   6.950  21.424  0.2442 -0.0642  0.2202
21925W        W65019   5.641   5.333  23.800 -0.0675  0.1595  0.0241
21926W        W65020   3.715   6.485  20.552  0.1213  0.2407 -0.2042
21927W        W65021   6.736   4.116  23.933 -0.3061 -0.3661 -0.0288
21928W        W65022   5.073   5.573  20.121  0.1480  0.0117 -0.4051
21929W        W65023   6.194   5.219  19.358 -0.0047 -0.1904  0.2313
21930W        W65024   4.337   4.802  18.363  0.1217  0.2400 -0.0132
21931W        W65025   5.341   4.901  19.862  0.1444 -0.2301  0.3119
21932W        W65026   5.332   2.918  22.860 -0.3837 -0.3236  0.1410
21933W        W65027   4.252   7.808  21.335  0.2534 -0.2566  0.1340
21934W        W65028   3.389   3.108  21.511 -0.1648 -0.3822 -0.0296
21935W        W65029   6.109   7.359  22.878  0.0705  0.0132 -0.0280
21936W        W65030   5.047   5.855  21.041  0.0015 -0.0401 -0.3864
21937W        W65031   6.098   5.172  23.052  0.0498  0.1370  0.0665
21938W        W65032   4.587   6.603  21.155 -0.0932 -0.0022  0.0679
21939W        W65033   4.908   5.368  20.539  0.0261  0.3174 -0.2809
21940W        W65034   6.206   6.384  20.616  0.3666 -0.1401  0.3748
21941W        W65035   7.897   4.737  22.445  0.0521  0.1328 -0.3079
21942W        W65036   5.794   6.872  18.831  0.2407  0.0687  0.3866
21943W        W65037   5.291   5.214  21.896 -0.0188 -0.1152  0.1570
21944W        W65038   4.208   5.467  22.522 -0.2592 -0.1750 -0.0724
21945W        W65039   4.980   4.960  23.632 -0.4112 -0.0158  0.0792
21946W        W65040   4.076   3.845  20.122 -0.0317  0.0645 -0.2004
21947W        W65041   8.613   7.211  24.709  0.1873 -0.1047  0.0949
21948W        W65042   4.166   6.278  21.829  0.1513 -0.1223 -0.1550
21949W        W65043   7.254   4.579  21.913  0.1806 -0.0096  0.0477
21950W        W65044   4.894   7.128  21.938 -0.1123 -0.0268 -0.2168
21951W        W65045   6.967   5.982  21.727  0.0363 -0.2442 -0.1389
21952W        W65046   5.333   6.332  19.883  0.3280 -0.0205 -0.2193
21953W        W65047   6.624   4.810  20.876 -0.1798  0.3961 -0.1812
21954W        W65048   5.513   4.556  22.591 -0.2614 -0.0110 -0.3707
21955W        W65049   4.799   6.613  20.717  0.1454  0.0450 -0.0750
21956W        W65050   4.625   5.645  20.836  0.0018  0.0858  0.1996
21957W        W65051   6.161   6.845  23.308  0.0422 -0.0719  0.0746
21958W        W65052   4.964   5.056  19.215 -0.3297 -0.1899 -0.1128
21959W        W65053   3.790   7.358  21.945  0.1986 -0.0023  0.1238
21960W        W65054   5.018   4.465  24.475 -0.2666 -0.2072  0.2989
21961W        W65055   6.864   7.081  24.001 -0.1996 -0.0274  0.3433
21962W        W65056   4.960   8.280  19.808  0.0449  0.1658 -0.0124
21963W        W65057   3.801   5.313  21.460 -0.2261  0.0114  0.0906
21964W        W65058   3.873   6.339  19.865 -0.1135 -0.0463 -0.1746
21965W        W65059   2.826   5.524  22.679  0.2499  0.1021  0.2396
21966W        W65060   6.497   5.705  21.757 -0.0335  0.2081 -0.1829
21967W        W65061   6.316   5.134  20.584 -0.1147  0.0417 -0.4520
21968W        W65062   5.107   3.421  23.906 -0.0748  0.1040  0.0641
21969W        W65063   7.650   4.131  21.406 -0.0397  0.0246 -0.1358
21970W        W65064   4.487   6.832  19.821  0.0088 -0.0318  0.0408
21971W        W65065   7.354   6.447  20.617 -0.0682 -0.0866 -0.0260
21972W        W65066   6.788   5.312  21.300 -0.1577  0.3010 -0.0689
21973W        W65067   5.093   7.257  21.171 -0.1889 -0.2860 -0.1637
21974W        W65068   4.245   4.425  23.363 -0.1651  0.1462  0.1788
21975W        W65069   4.721   4.173  22.548  0.1379 -0.0135  0.0159
21976W        W65070   5.105   4.592  23.986  0.1674  0.0178  0.0759
21977W        W65071   3.854   4.317  21.622 -0.1818 -0.2029 -0.3427
21978W        W65072   6.903   5.273  23.958  0.0783 -0.1764 -0.0375
21979W        W65073   4.027   4.230  21.181  0.1556 -0.1571 -0.0834
21980W        W65074   6.459   4.894  21.426  0.3280 -0.2092 -0.0461
21981W        W65075   4.615   6.108  21.085 -0.1350  0.0878 -0.0133
21982W        W65076   3.738   7.290  19.597  0.0548  0.2299  0.2770
21983W        W65077   7.645   3.493  23.114 -0.2408 -0.1858  0.1306
21984W        W65078   6.656   5.614  20.784 -0.1913  0.0206  0.1907
21985W        W65079   7.075   8.222  22.757 -0.0273 -0.0972 -0.0391
21986W        W65080   7.521   5.402  21.007 -0.3142  0.2460  0.0316
21987W        W65081   4.279   5.079  23.074 -0.0674 -0.0841  0.1479
21988W        W65082   3.912   4.379  20.259 -0.1484  0.0244 -0.1813
21989W        W65083   3.899   6.915  20.584 -0.1569 -0.4779 -0.2703
21990W        W65084   5.181   6.818  20.957  0.5466  0.1516  0.3260
21991W        W65085   4.913   4.601  21.878 -0.0175 -0.1229 -0.2188
21992W        W65086   5.307   5.838  20.603 -0.2004  0.1855  0.0007
21993W        W65087   5.281   4.271  21.437  0.3033 -0.2112 -0.0782
21994W        W65088   4.124   6.489  23.016  0.0765  0.3107 -0.1234
21995W        W65089   7.165   3.575  23.096 -0.0574 -0.2148 -0.1718
21996W        W65090   7.424   4.557  22.374  0.2242  0.1895  0.0604
21997W        W65091   6.473   4.199  22.098  0.3609  0.3224  0.2635
21998W        W65092   3.192   5.059  20.002  0.1511  0.0730 -0.0471
21999W        W65093   6.238   6.889  23.797 -0.0246  0.3662  0.0799
22000W        W65094   3.699   7.219  20.095  0.2369 -0.2808  0.0055
22001W        W65095   2.928   6.996  21.168  0.0944  0.1573  0.2711
22002W        W65096   6.561   7.392  20.427 -0.0030  0.0625  0.2758
22003W        W65097   6.963   4.787  21.296  0.0010 -0.2169  0.2443
22004W        W65098   4.468   5.587  22.955 -0.3427  0.0631  0.0274
22005W        W65099   5.584   5.078  22.260  0.0265  0.0337 -0.1842
22006W        W65100   3.237   6.394  20.503 -0.4470  0.0004 -0.0611
22007W        W65101   4.736   6.116  22.156  0.0650  0.0272  0.1377
22008W        W65102   5.698   4.042  21.528 -0.0611 -0.1658  0.0878
22009W        W65103   7.068   3.247  19.514 -0.2672 -0.1115 -0.0376
22010W        W65104   5.943   6.849  24.251  0.1268  0.0486  0.1357
22011W        W65105   6.174   6.707  21.380  0.0372 -0.1245  0.1246
22012W        W65106   6.092   4.257  19.217  0.2022 -0.0913 -0.2108
22013W        W65107   5.305   3.725  19.852 -0.2418  0.0383 -0.0471
22014W        W65108   4.848   5.383  23.864 -0.0951 -0.6237 -0.0092
22015W        W65109   5.690   6.161  21.848 -0.3817  0.0129  0.0294
22016W        W65110   5.041   6.054  21.683 -0.1544 -0.1758  0.0082
22017W        W65111   6.373   5.024  20.020  0.0829 -0.2199 -0.0791
22018W        W65112   7.574   4.662  21.528  0.0139  0.1375 -0.1685
22019W        W65113   5.613   5.309  22.783 -0.1660  0.0533  0.0084
22020W        W65114   5.406   6.470  23.661  0.1774  0.1970 -0.2397
22021W        W65115   6.622   7.068  23.366  0.3341 -0.0557  0.0151
22022W        W65116   5.478   4.370  23.068 -0.0944 -0.4305  0.1196
22023W        W65117   5.406   4.709  19.052  0.0778 -0.2046 -0.0158
22024W        W65118   6.751   4.584  20.390  0.0907  0.0032 -0.2136
22025W        W65119   3.376   7.605  17.685 -0.3309  0.1679 -0.1021
22026W        W65120   6.338   4.328  23.107  0.1010 -0.3914 -0.0878
22027W        W65121   5.278   4.015  23.360  0.2053 -0.2931  0.0594
22028W        W65122   6.333   2.366  24.433  0.0781  0.1774  0.0455
22029W        W65123   7.748   6.117  23.173  0.1433 -0.4829 -0.1073
22030W        W65124   6.758   5.430  19.355 -0.2858  0.1708 -0.0282
22031W        W65125   6.507   4.328  21.565  0.1667  0.0949 -0.0220
22032W        W65126   3.970   7.658  20.063  0.1302 -0.0503  0.0006
22033W        W65127   5.854   4.129  23.366  0.1753 -0.0844  0.2529
22034W        W65128   4.826   5.434  23.301  0.2781 -0.0769 -0.1995
22035W        W65129   3.378   6.101  22.339 -0.2476 -0.3416  0.2159
22036W        W65130   6.448   6.310  21.667  0.2797 -0.2107  0.1299
22037W        W65131   6.536   4.521  19.900 -0.1886  0.3539 -0.2924
22038W        W65132   6.151   3.441  24.160 -0.1081 -0.0650  0.0689
22039W        W65133   4.735   4.893  19.749 -0.2406  0.0436 -0.1926
22040W        W65134   6.431   7.104  21.081  0.0934  0.1519  0.0061
22041W        W65135   5.560   6.510  21.145 -0.0194  0.2182  0.0776
22042W        W65136   6.290   3.884  22.923  0.3072  0.0711  0.1663
22043W        W65137   5.782   5.518  22.200  0.2561  0.0591 -0.2124
22044W        W65138   4.478   5.733  20.319 -0.2734  0.0969 -0.2129
22045W        W65139   6.892   5.618  23.183  0.2227  0.0127 -0.1428
22046W        W65140   5.563   7.109  20.859 -0.1046 -0.0726 -0.1092
22047W        W65141   5.160   2.989  21.399  0.1878  0.0916 -0.1330
22048W        W65142   4.210   5.991  20.856 -0.0806 -0.1073 -0.0509
22049W        W65143   5.518   5.356  19.830 -0.1411 -0.1267 -0.1984
22050W        W65144   5.386   4.689  21.990  0.2355 -0.2308  0.1273
22051W        W65145   7.130   2.899  21.403 -0.0185  0.0281 -0.0424
22052W        W65146   6.407   5.763  19.507  0.3246 -0.3739 -0.3461
22053W        W65147   4.097   4.043  21.973 -0.4237  0.2299  0.1307
22054W        W65148   4.969   3.067  22.018 -0.2164 -0.0201 -0.2272
22055W        W65149   5.265   7.275  22.415  0.3111  0.0763 -0.3899
22056W        W65150   6.107   6.272  23.099 -0.3547 -0.0753  0.1148
22057W        W65151   5.685   4.021  20.157 -0.0235 -0.2394 -0.1778
22058W        W65152   5.233   5.434  23.588  0.3054  0.1794  0.1028
22059W        W65153   4.071   5.054  22.153 -0.1074 -0.1079  0.1124
22060W        W65154   3.078   5.988  20.254 -0.2615  0.0093  0.0254
22061W        W65155   7.869   4.254  23.420  0.1187  0.0908  0.2224
22062W        W65156   5.465   4.177  21.927  0.0486  0.0797 -0.0516
22063W        W65157   3.150   6.231  20.973  0.0626  0.0877  0.0758
22064W        W65158   6.539   7.506  21.842 -0.0010  0.0377  0.1409
22065W        W65159   4.818   4.502  20.141 -0.0159 -0.0117 -0.0954
22066W        W65160   3.986   7.462  20.489  0.0918 -0.1786  0.0182
22067W        W65161   5.493   3.792  23.864 -0.3671 -0.2313 -0.1474
22068W        W65162   6.088   5.462  24.042 -0.1623 -0.1769  0.0471
22069W        W65163   4.838   3.164  22.674 -0.1811 -0.0750 -0.2348
22070W        W65164   4.533   3.287  22.002  0.1108 -0.1595 -0.0210
22071W        W65165   6.630   5.231  23.095 -0.1232  0.1928 -0.1408
22072W        W65166   7.450   6.054  22.502  0.1020 -0.0123  0.0223
22073W        W65167   5.400   3.535  23.417 -0.2985 -0.0389  0.2272
22074W        W65168   5.555   6.495  24.231  0.2136  0.1595  0.1736
22075W        W65169   5.855   3.219  22.018 -0.0887  0.1849  0.1466
22076W        W65170   6.058   7.690  20.397  0.0379 -0.0697  0.0096
22077W        W65171   6.460   4.878  22.784  0.0011  0.0295  0.2843
22078W        W65172   4.869   5.723  19.386  0.1901 -0.5132  0.2436
22079W        W65173   4.278   5.221  21.653 -0.1958 -0.1712  0.2720
22080W        W65174   4.733   7.099  20.880  0.0525 -0.3897 -0.1125
22081W        W65175   5.394   4.199  24.131 -0.4585 -0.3247 -0.0525
22082W        W65176   4.807   8.275  22.285 -0.0008 -0.2063 -0.1028
22083W        W65177   4.029   5.321  20.150  0.5837  0.0119 -0.0160
22084W        W65178   5.418   6.352  22.437  0.0047  0.0405  0.1481
22085W        W65179   6.799   3.651  20.884 -0.1375  0.0443 -0.2028
22086W        W65180   5.423   7.149  17.984  0.0547 -0.0022  0.0788
22087W        W65181   5.864   4.646  22.148  0.0233 -0.1280 -0.1034
22088W        W65182   7.769   5.121  23.526 -0.2095 -0.0924 -0.1261
22089W        W65183   5.757   5.625  19.466  0.3010  0.2014  0.1734
22090W        W65184   6.858   3.135  23.012 -0.1274 -0.1932  0.0625
22091W        W65185   6.546   3.790  21.816  0.2376  0.2101  0.1694
22092W        W65186   5.963   6.222  21.405  0.1409 -0.0899 -0.1193
22093W        W65187   3.414   4.371  22.939 -0.0086  0.3973 -0.4555
22094W        W65188   5.044   6.448  24.282  0.1093 -0.1342 -0.2906
22095W        W65189   3.756   4.909  24.522  0.1234  0.0544  0.1041
22096W        W65190   6.032   4.192  21.933 -0.1427  0.1904 -0.1239
22097W        W65191   4.488   3.247  20.233  0.2160 -0.3193  0.3590
22098W        W65192   5.755   4.972  21.790  0.1659 -0.1515  0.1046
22099W        W65193   7.427   5.856  22.008 -0.1690  0.0186 -0.2535
22100W        W65194   5.787   6.672  21.651  0.1020  0.0329 -0.1848
22101W        W65195   6.020   5.815  21.750  0.4596 -0.0323 -0.0157
22102W        W65196   5.511   7.298  22.932 -0.2369 -0.0724  0.0661
22103W        W65197   8.059   5.300  20.235  0.0767 -0.1135 -0.1968
22104W        W65198   5.595   5.828  20.176  0.1536  0.1213 -0.1309
22105W        W65199   5.242   5.952  22.167  0.0392 -0.3289 -0.0524
22106W        W65200   6.425   2.941  22.178 -0.1925 -0.3116  0.2494
22107W        W65201   5.232   5.948  22.673 -0.0143  0.0334  0.0296
22108W        W65202   4.844   4.000  21.213  0.0107 -0.0529 -0.1928
22109W        W65203   6.588   3.577  23.840  0.3218 -0.2509 -0.2015
22110W        W65204   6.652   6.118  22.886  0.0409  0.0462 -0.0264
22111W        W65205   6.517   5.253  22.475  0.1810 -0.0409  0.2619
22112W        W65206   4.804   5.025  23.059  0.0178  0.1038 -0.0963
22113W        W65207   8.388   8.127  23.131 -0.1897 -0.0699  0.0822
22114W        W65208   7.131   5.166  18.347  0.0163 -0.1804 -0.0087
22115W        W65209   7.781   3.099  21.651 -0.1496  0.0549  0.0527
22116W        W65210   7.303   5.209  20.160 -0.3035 -0.1115 -0.0591
22117W        W65211   4.811   6.143  20.575 -0.0959  0.1644  0.3312
22118W        W65212   5.620   4.876  23.008 -0.0482 -0.0562  0.1016
22119W        W65213   6.516   3.426  22.672 -0.2709  0.0267  0.1578
22120W        W65214   4.922   4.653  21.338 -0.1363 -0.3087  0.2715
22121W        W65215   6.639   4.313  23.496 -0.1335 -0.2892 -0.0916
22122W        W65216   6.475   6.668  20.876 -0.3051 -0.0473 -0.0768
22123W        W65217   6.846   5.680  22.165  0.1192 -0.1608  0.0486
22124W        W65218   6.937   3.847  22.666 -0.1447  0.0541  0.1308
22125W        W65219   3.257   4.802  20.851 -0.0433  0.0969 -0.2760
22126W        W65220   3.793   5.808  22.324  0.1986 -0.0786  0.1574
22127W        W65221   3.893   5.204  20.654  0.2451 -0.0225  0.0879
22128W        W65222   4.538   5.248  20.091  0.2677  0.0617 -0.1456
22129W        W65223   5.437   5.359  20.362  0.2195  0.1675  0.3697
22130W        W65224   8.519   6.194  23.086  0.2225  0.0386 -0.1192
22131W        W65225   5.727   4.163  19.630  0.4751  0.3130  0.0580
22132W        W65226   6.951   4.620  23.086  0.0034 -0.0320  0.0637
22133W        W65227   4.801   7.185  18.943  0.0564 -0.0631  0.0519
22134W        W65228   6.013   3.590  21.193 -0.0755 -0.1046  0.1496
22135W        W65229   6.130   6.264  22.061  0.0080  0.0376  0.3334
22136W        W65230   4.137   5.979  22.714  0.2327 -0.3096  0.2712
22137W        W65231   5.448   6.837  22.711 -0.1590  0.3137  0.0542
22138W        W65232   7.310   3.047  23.180 -0.0003  0.0122 -0.2054
22139W        W65233   5.793   5.184  20.769  0.1728  0.2994 -0.0589
22140W        W65234   5.053   6.473  21.307  0.0521  0.1349 -0.2276
22141W        W65235   8.746   6.811  23.261 -0.0249 -0.0669  0.1170
22142W        W65236   5.914   6.429  22.601 -0.0785  0.1043 -0.2697
22143W        W65237   5.653   4.843  20.303  0.2810  0.0858 -0.2100
22144W        W65238   6.429   7.573  23.927  0.1352  0.0925  0.0870
22145W        W65239   6.584   4.307  22.610  0.2022  0.1709 -0.1748
22146W        W65240   4.234   6.492  20.732  0.2107 -0.1164 -0.3595
22147W        W65241   4.510   5.404  22.086 -0.1008 -0.2052  0.3693
22148W        W65242   5.790   4.162  23.854 -0.0486 -0.1993  0.2581
22149W        W65243   7.337   5.152  21.418  0.3354  0.4343  0.1896
22150W        W65244   4.339   3.951  21.509  0.0068 -0.1254 -0.0859
22151W        W65245   4.790   7.400  20.511 -0.1006  0.1582 -0.0486
22152W        W65246   4.464   6.293  23.532 -0.0962 -0.1099 -0.1884
22153W        W65247   5.232   5.391  22.384  0.4841 -0.0260 -0.2785
22154W        W65248   4.971   7.230  19.608  0.0740  0.1636  0.0760
22155W        W65249   5.140   6.521  20.369 -0.3566  0.0459 -0.2964
22156W        W65250   5.615   6.282  20.379  0.3236 -0.1505  0.0793
22157W        W65251   5.323   6.886  21.529  0.1149 -0.1551  0.1431
22158W        W65252   5.633   4.564  21.011  0.0770  0.2976 -0.1352
22159W        W65253   3.758   6.696  21.642 -0.2015  0.3436 -0.0566
22160W        W65254   3.214   6.761  20.875  0.5582  0.0193  0.1660
22161W        W65255   6.008   5.980  19.672  0.0253 -0.1399  0.1472
22162W        W65256   4.176   9.146  20.690  0.1604 -0.3885  0.1275
22163W        W65257   6.965   6.348  22.596 -0.1741  0.0206 -0.1828
22164W        W65258   5.547   3.991  20.640  0.1474  0.1956 -0.1402
22165W        W65259   7.121   5.110  19.267 -0.1768 -0.0382 -0.0501
22166W        W65260   6.873   4.937  20.014  0.1604  0.3223 -0.2366
22167W        W65261   5.732   6.071  23.413  0.1691  0.1847 -0.0816
22168W        W65262   6.256   4.638  21.857 -0.0953  0.0706  0.2045
22169W        W65263   4.698   4.009  20.216  0.1376  0.1148 -0.0692
22170W        W65264   4.551   4.947  23.941  0.1851  0.1471 -0.1722
22171W        W65265   6.468   5.352  23.626  0.0547 -0.0597  0.0816
22172W        W65266   3.629   5.965  23.580  0.1111 -0.1462 -0.0430
22173W        W65267   7.592   5.889  20.755  0.0400 -0.2142  0.2359
22174W        W65268   5.345   4.891  21.508  0.2686 -0.0476  0.0726
22175W        W65269   6.091   4.763  20.823 -0.0736 -0.1462 -0.1128
22176W        W65270   6.964   3.140  24.348 -0.1033 -0.4803 -0.0608
22177W        W65271   4.545   6.536  20.249  0.0363  0.1667  0.0822
22178W        W65272   5.047   4.389  22.823  0.0075 -0.4480  0.2058
22179W        W65273   6.014   6.810  20.888 -0.0920  0.2748  0.0609
22180W        W65274   4.944   7.021  22.801 -0.2872 -0.0813  0.1811
22181W        W65275   5.796   8.349  21.576  0.0508  0.0156 -0.0059
22182W        W65276   5.812   4.529  21.581 -0.2171 -0.0687 -0.1348
22183W        W65277   8.137   4.032  22.530 -0.0500  0.2335  0.1052
22184W        W65278   5.721   5.421  23.308 -0.0877  0.0101 -0.2231
22185W        W65279   8.658   3.466  23.413 -0.2350 -0.0317  0.0259
22186W        W65280   5.488   5.973  21.390 -0.0695  0.2624 -0.0212
22187W        W65281   7.607   4.376  20.922 -0.2494  0.2507 -0.1221
22188W        W65282   6.055   5.439  22.627  0.1071  0.2492  0.2999
22189W        W65283   4.849   4.621  22.464 -0.0208 -0.0697 -0.3228
22190W        W65284   4.984   5.036  20.133 -0.0652 -0.1390  0.0942
22191W        W65285   5.853   5.798  22.938  0.2345  0.2498  0.0528
22192W        W65286   6.120   5.442  19.815  0.1317 -0.1874 -0.3694
22193W        W65287   6.027   7.313  23.924  0.2471  0.0476  0.0504
22194W        W65288   3.096   5.603  21.136  0.1390 -0.0815 -0.0170
22195W        W65289   5.240   3.760  21.675 -0.0151 -0.1297  0.1545
22196W        W65290   4.814   5.102  20.982 -0.0222 -0.1798 -0.0443
22197W        W65291   4.867   5.027  22.163 -0.1127  0.2609  0.0030
22198W        W65292   6.452   6.960  22.865  0.0801  0.4329  0.0206
22199W        W65293   3.564   5.236  21.949  0.0782  0.0648 -0.0170
22200W        W65294   6.115   7.257  19.671 -0.1379  0.1254  0.0145
22201W        W65295   8.262   5.253  22.895 -0.1113 -0.1426  0.2050
22202W        W65296   5.255   7.470  20.692  0.2446  0.2029  0.1038
22203W        W65297   6.081   5.942  20.183 -0.1196 -0.0930  0.1998
22204W        W65298   6.534   5.654  22.744  0.1726 -0.1180 -0.0010
22205W        W65299   2.970   5.669  23.156 -0.0744 -0.0550  0.0920
22206W        W65300   5.355   5.769  23.128 -0.1483 -0.2150  0.1165
22207W        W65301   5.515   7.088  21.987 -0.1583 -0.1179 -0.0573
22208W        W65302   5.470   3.198  19.505 -0.0848 -0.0782  0.3856
22209W        W65303   5.707   5.968  22.466  0.0040 -0.1693 -0.0556
22210W        W65304   3.237   7.130  19.869 -0.1114  0.3921  0.2141
22211W        W65305   6.025   4.469  22.692 -0.0168  0.3125 -0.0280
22212W        W65306   6.763   4.075  23.049 -0.1130  0.1763  0.2587
22213W        W65307   5.557   6.689  20.609 -0.0942 -0.0704 -0.0639
22214W        W65308   7.388   3.950  23.327  0.1349  0.1623  0.2214
22215W        W65309   5.779   7.593  23.266  0.0020 -0.0629  0.3388
22216W        W65310   5.303   7.025  23.665 -0.1229  0.1922  0.1663
22217W        W65311   4.699   4.807  20.510  0.0684  0.2997 -0.3086
22218W        W65312   4.781   5.725  22.466 -0.0201  0.1265  0.2034
22219W        W65313   5.759   6.124  20.898 -0.0819 -0.1658 -0.0597
22220W        W65314   4.669   7.753  21.119  0.1673  0.2852  0.3871
22221W        W65315   7.429   5.308  22.010  0.4165  0.0896  0.2459
22222W        W65316   6.708   3.737  22.283  0.0271  0.0448  0.2872
22223W        W65317   7.141   4.317  21.393  0.0130 -0.1477 -0.2642
22224W        W65318   6.292   3.946  21.344  0.0359 -0.0548 -0.2128
22225W        W65319   7.470   3.730  20.577  0.3383  0.0671 -0.0214
22226W        W65320   6.102   3.085  21.284 -0.0590 -0.2711 -0.0185
22227W        W65321   4.853   5.953  22.990  0.0130  0.0325  0.0368
22228W        W65322   3.663   6.081  20.264 -0.1458 -0.0029 -0.0319
22229W        W65323   3.034   7.000  19.198  0.0991 -0.2095  0.1062
22230W        W65324   4.662   5.534  21.379  0.2689  0.1771  0.1953
22231W        W65325   5.957   3.610  23.257 -0.1469  0.0030 -0.1048
22232W        W65326   4.878   4.943  25.819 -0.0100 -0.0825 -0.0893
22233W        W65327   6.201   5.989  22.621 -0.3554 -0.3097  0.3790
22234W        W65328   5.111   4.241  22.272  0.2475  0.4621 -0.0869
22235W        W65329   6.614   5.199  21.938 -0.0482  0.2159 -0.3007
22236W        W65330   4.177   5.399  21.068  0.0272  0.4430  0.2310
22237W        W65331   4.478   4.848  21.878  0.1401 -0.1075 -0.1040
22238W        W65332   7.564   6.273  21.619 -0.2247  0.1594  0.1536
22239W        W65333   7.046   4.977  22.194  0.0859 -0.0320  0.0011
22240W        W65334   5.836   2.473  21.000  0.2694 -0.2610 -0.1109
22241W        W65335   6.822   6.053  20.867  0.0103 -0.0789  0.0519
22242W        W65336   4.387   5.211  20.562  0.1426  0.3488 -0.5131
22243W        W65337   6.418   4.796  23.271 -0.2523 -0.2192 -0.1904
22244W        W65338   5.311   3.756  22.530 -0.0088  0.0139 -0.1054
22245W        W65339   4.540   4.354  21.035 -0.2507  0.0191 -0.0228
22246W        W65340   5.961   4.954  22.575  0.1283  0.0404 -0.0315
22247W        W65341   6.177   6.754  21.906  0.1605 -0.3347  0.1712
22248W        W65342   6.424   5.548  20.257 -0.0101  0.2033 -0.1793
22249W        W65343   6.604   6.088  22.364 -0.4202 -0.1578 -0.3520
22250W        W65344   4.630   6.484  23.064  0.1422  0.2131 -0.2158
22251W        W65345   3.782   4.628  23.087  0.0881  0.0050 -0.1079
22252W        W65346   5.248   4.204  20.943  0.1541 -0.1241 -0.0194
22253W        W65347   6.587   7.403  23.036  0.1985  0.0894  0.2225
22254W        W65348   7.851   5.263  21.409  0.0444  0.0631 -0.0510
22255W        W65349   6.404   3.437  21.480 -0.4230 -0.1283 -0.0593
22256W        W65350   6.393   6.870  20.464  0.0608 -0.1157 -0.1468
22257W        W65351   4.442   4.084  22.996 -0.0812 -0.0717  0.2374
22258W        W65352   4.874   6.597  23.530  0.2802  0.0030  0.3486
22259W        W65353   7.040   5.482  21.807 -0.1697  0.0501  0.1884
22260W        W65354   4.212   2.579  22.502 -0.2597 -0.0049  0.1160
22261W        W65355   5.186   3.999  20.257  0.0150  0.2039  0.1300
22262W        W65356   6.333   6.242  21.071  0.3779 -0.0749 -0.0764
22263W        W65357   3.656   4.471  22.522 -0.1899  0.1898  0.0271
22264W        W65358   4.932   4.166  19.744 -0.3473 -0.0022  0.1324
22265W        W65359   6.256   5.631  23.164 -0.1599 -0.0846  0.2998
22266W        W65360   6.013   7.795  21.882  0.1050 -0.2343  0.0252
22267W        W65361   7.277   6.311  22.997 -0.0269  0.0162  0.2299
22268W        W65362   5.878   5.021  21.265  0.0715 -0.3109  0.1233
22269W        W65363   7.333   4.792  19.638  0.3469  0.2345 -0.0291
22270W        W65364   5.199   7.455  21.700  0.0879  0.0936 -0.0481
22271W        W65365   8.107   7.790  24.082  0.0195  0.1309  0.0889
22272W        W65366   4.972   7.501  22.857 -0.1321 -0.2457 -0.2295
22273W        W65367   7.271   3.988  21.056 -0.0880  0.0552 -0.0916
22274W        W65368   4.620   2.558  22.964 -0.2084 -0.2571 -0.0724
22275W        W65369   6.495   5.846  21.273 -0.0900  0.0993  0.1387
22276W        W65370   5.994   5.332  20.283 -0.4077  0.0982  0.3271
22277W        W65371   8.992   4.673  23.291 -0.1834 -0.2212  0.1099
22278W        W65372   4.532   4.300  22.109  0.1178 -0.1258  0.1528
22279W        W65373   5.852   4.359  20.501 -0.1022 -0.2235  0.0408
22280W        W65374   3.994   7.115  21.507  0.1032 -0.2705 -0.1966
22281W        W65375   6.106   7.250  20.667 -0.2097 -0.5829  0.0409
22282W        W65376   3.974   6.226  26.340  0.0658 -0.4898  0.1256
22283W        W65377   6.057   5.401  24.543  0.0921 -0.1653  0.1470
22284W        W65378   6.698   4.847  24.447  0.2137  0.0713 -0.2176
22285W        W65379   6.106   5.446  25.038 -0.3995  0.0002  0.0508
22286W        W65380   4.228   4.236  24.400  0.2030 -0.1027  0.3552
22287W        W65381   6.367   6.120  24.029 -0.0610  0.0573 -0.1589
22288W        W65382   4.194   3.519  26.507 -0.3729 -0.1428  0.0824
22289W        W65383   5.317   6.615  26.854 -0.0664  0.0291 -0.1333
22290W        W65384   6.852   7.223  27.073  0.2313  0.2431 -0.2491
22291W        W65385   6.170   6.430  23.556 -0.0868 -0.0577  0.2792
22292W        W65386   5.294   4.340  26.869 -0.0910  0.2819 -0.0696
22293W        W65387   4.519   6.873  27.883  0.0487  0.0150  0.1521
22294W        W65388   4.884   3.973  24.781 -0.0691  0.3121 -0.3688
22295W        W65389   4.122   2.865  25.753  0.1038 -0.0627 -0.1708
22296W        W65390   6.098   5.957  26.353 -0.0629 -0.1405 -0.1814
22297W        W65391   4.916   5.169  26.391 -0.2457 -0.1180  0.1761
22298W        W65392   4.893   3.613  26.474 -0.2294  0.0669 -0.1097
22299W        W65393   7.089   3.852  25.513  0.2927  0.3771  0.3937
22300W        W65394   4.419   8.316  25.233 -0.3013  0.0630  0.2535
22301W        W65395   6.041   4.642  26.118 -0.2559  0.2150  0.2169
22302W        W65396   6.604   2.857  28.631  0.3229  0.0481 -0.1115
22303W        W65397   5.484   6.542  25.392 -0.1283  0.0127  0.1442
22304W        W65398   5.213   5.060  24.022 -0.4113 -0.1495 -0.2827
22305W        W65399   2.700   3.274  25.176 -0.1406 -0.4419 -0.2861
22306W        W65400   4.386   5.197  26.472  0.2450 -0.2845  0.2084
22307W        W65401   5.690   4.175  26.121  0.1834  0.2672  0.2013
22308W        W65402   6.650   5.107  26.376  0.2486 -0.0504 -0.0987
22309W        W65403   5.760   6.661  24.931 -0.0448 -0.3335 -0.0972
22310W        W65404   6.819   6.602  26.050  0.0512  0.0349  0.0357
22311W        W65405   6.133   4.238  27.668 -0.1040 -0.2248 -0.2974
22312W        W65406   4.113   6.217  26.969  0.1255 -0.1706  0.2956
22313W        W65407   2.752   6.680  23.885 -0.1000  0.1417 -0.0894
22314W        W65408   5.101   6.071  25.443  0.0190 -0.0795 -0.3049
22315W        W65409   6.205   4.937  23.997  0.1147  0.2156  0.4942
22316W        W65410   5.851   7.877  27.377 -0.0395 -0.1352  0.3070
22317W        W65411   5.483   6.527  28.220 -0.2573 -0.0496 -0.0398
22318W        W65412   4.553   6.424  24.041  0.3463  0.0095  0.1929
22319W        W65413   4.849   6.789  28.812  0.0286 -0.4188  0.1432
22320W        W65414   5.524   5.979  27.467 -0.1767  0.2215 -0.0995
22321W        W65415   5.911   5.717  25.423  0.1474  0.0593 -0.3913
22322W        W65416   5.760   4.735  23.878 -0.2789 -0.2093 -0.2101
22323W        W65417   5.016   5.484  22.813 -0.3410 -0.0648 -0.0171
22324W        W65418   6.353   7.198  26.469 -0.0147 -0.1251  0.1337
22325W        W65419   4.868   5.925  26.376 -0.1189 -0.0772 -0.2036
22326W        W65420   4.254   7.538  25.847 -0.1273 -0.1562  0.6445
22327W        W65421   8.014   4.496  28.315 -0.1534 -0.0176 -0.0721
22328W        W65422   4.568   7.198  24.817  0.0469 -0.1431 -0.4094
22329W        W65423   6.333   3.864  23.426 -0.0576 -0.0293 -0.3086
22330W        W65424   5.696   5.194  24.307  0.0967  0.0386  0.2620
22331W        W65425   6.431   4.048  25.503  0.0853 -0.1076 -0.1946
22332W        W65426   4.668   3.709  23.947 -0.0550 -0.2418  0.4147
22333W        W65427   5.003   9.450  26.564 -0.2567 -0.1290 -0.3777
22334W        W65428   4.589   3.937  27.419  0.0776  0.0877  0.0252
22335W        W65429   6.438   6.590  27.452  0.2877 -0.1457  0.0724
22336W        W65430   5.278   6.400  24.912  0.1268 -0.0482 -0.0483
22337W        W65431   6.172   5.116  26.608  0.2132  0.0018 -0.0321
22338W        W65432   5.027   6.921  25.970 -0.0712 -0.4548  0.1170
22339W        W65433   4.137   4.428  26.305 -0.1328  0.0096 -0.3575
22340W        W65434   6.915   6.251  23.938  0.0609 -0.0762 -0.1218
22341W        W65435   8.355   7.683  24.548  0.2627  0.0217  0.2432
22342W        W65436   6.658   5.702  24.016  0.1299 -0.2387  0.0029
22343W        W65437   4.220   4.935  25.846 -0.2125 -0.3154  0.1007
22344W        W65438   5.196   6.122  26.861 -0.0688  0.0128 -0.1165
22345W        W65439   5.088   5.693  27.703  0.0012  0.1263 -0.0829
22346W        W65440   4.159   3.676  23.495  0.0287  0.0144 -0.0758
22347W        W65441   7.370   6.953  27.144 -0.0726 -0.2123  0.1189
22348W        W65442   3.796   5.729  26.871 -0.0889  0.0396 -0.1911
22349W        W65443   7.483   4.449  24.884  0.5116  0.1969 -0.1623
22350W        W65444   4.829   6.448  26.145  0.2291 -0.0327 -0.0249
22351W        W65445   6.990   7.188  25.443 -0.0562 -0.0874  0.2610
22352W        W65446   6.712   6.826  24.527 -0.0117  0.4158  0.0098
22353W        W65447   7.057   4.439  24.114  0.3071 -0.0882 -0.0089
22354W        W65448   5.584   4.742  25.874  0.4571  0.2385  0.1965
22355W        W65449   5.460   4.756  24.320  0.1535 -0.2166  0.2467
22356W        W65450   4.943   4.158  26.521  0.1805  0.1246 -0.1753
22357W        W65451   7.032   6.657  27.011  0.0796  0.1218 -0.1557
22358W        W65452   6.548   6.026  23.496 -0.1701 -0.1394 -0.0628
22359W        W65453   5.042   5.540  26.105  0.2069  0.0061  0.2413
22360W        W65454   5.416   3.909  26.423 -0.2498 -0.1247 -0.2511
22361W        W65455   6.021   6.729  28.328  0.1695 -0.1685 -0.3509
22362W        W65456   4.274   7.768  24.988  0.0962 -0.1433 -0.2304
22363W        W65457   4.025   6.471  25.596  0.2273 -0.2971  0.1248
22364W        W65458   3.660   6.127  25.026  0.2284  0.0219  0.0055
22365W        W65459   4.504   4.185  25.272  0.3150 -0.1440  0.0261
22366W        W65460   5.726   6.920  27.065 -0.2442  0.2735  0.0081
22367W        W65461   9.168   4.636  25.632  0.4103 -0.2966 -0.1211
22368W        W65462   3.939   4.503  28.067  0.0817  0.3819 -0.1006
22369W        W65463   6.615   3.170  24.797 -0.2922 -0.1005 -0.1362
22370W        W65464   4.562   4.796  26.180 -0.0448  0.2415  0.2617
22371W        W65465   8.548   6.937  23.759 -0.2017 -0.0803 -0.2073
22372W        W65466   7.691   5.211  26.278 -0.0605 -0.1885  0.1811
22373W        W65467   5.994   5.646  21.182  0.1535  0.0976 -0.0791
22374W        W65468   3.333   5.945  27.415  0.1162  0.0042 -0.0780
22375W        W65469   5.377   5.363  26.552  0.3520 -0.1795 -0.1392
22376W        W65470   5.297   4.463  28.531  0.3499  0.0267 -0.0063
22377W        W65471   4.505   5.241  25.547 -0.0017  0.3792  0.0540
22378W        W65472   7.046   5.694  26.463  0.0826 -0.0079  0.1926
22379W        W65473   3.592   3.022  24.427  0.2353  0.0925  0.0247
22380W        W65474   5.435   4.484  26.417  0.0353 -0.1568  0.0108
22381W        W65475   6.441   5.781  24.448 -0.1773  0.0735  0.1682
22382W        W65476   4.947   7.244  25.201  0.1715  0.1683 -0.1228
22383W        W65477   7.271   4.744  27.063  0.1179  0.0942  0.0261
22384W        W65478   6.236   6.877  24.742  0.0633  0.0607 -0.0710
22385W        W65479   7.959   6.708  25.389  0.0255 -0.0798 -0.0992
22386W        W65480   7.541   6.747  24.399  0.2829 -0.1489 -0.0455
22387W        W65481   4.512   3.833  26.237  0.0197 -0.0003 -0.0462
22388W        W65482   5.072   4.138  25.283  0.0366  0.0276 -0.1550
22389W        W65483   4.557   6.915  25.277  0.2288  0.1411  0.1836
22390W        W65484   5.913   5.866  24.805 -0.1145  0.1401  0.0598
22391W        W65485   5.396   4.005  24.597 -0.0869  0.2426  0.1625
22392W        W65486   6.456   7.889  25.638 -0.0377  0.0311 -0.1768
22393W        W65487   5.842   6.179  23.907  0.0546  0.3375 -0.1117
22394W        W65488   4.298   5.618  26.754  0.1113 -0.5085  0.3149
22395W        W65489   5.218   4.122  27.394  0.0230  0.0221  0.0726
22396W        W65490   6.843   4.887  26.761  0.0305  0.1282 -0.3204
22397W        W65491   6.403   4.421  24.291  0.0420  0.0740  0.1152
22398W        W65492   4.334   3.890  22.404  0.0359  0.1099  0.0229
22399W        W65493   6.396   8.778  26.250  0.4484 -0.0495 -0.5745
22400W        W65494   4.328   5.785  23.610  0.1502 -0.2237  0.1028
22401W        W65495   3.142   4.969  25.600 -0.0880 -0.3690 -0.1561
22402W        W65496   6.286   5.409  25.561 -0.1136  0.0702 -0.0007
22403W        W65497   7.454   4.688  25.680 -0.2331  0.2653  0.2574
22404W        W65498   4.072   4.010  26.493  0.3539 -0.1976 -0.5768
22405W        W65499   6.037   4.733  28.155 -0.0466 -0.3630 -0.1379
22406W        W65500   4.657   5.780  25.871 -0.0170  0.1981  0.0177
22407W        W65501   4.749   7.169  25.669 -0.0455  0.2131 -0.0753
22408W        W65502   7.067   3.448  24.011  0.1425 -0.2535  0.1071
22409W        W65503   6.186   4.301  25.130  0.2852 -0.0819 -0.3959
22410W        W65504   4.796   4.328  26.972 -0.0798  0.1488 -0.0763
22411W        W65505   6.983   6.281  23.426  0.0069 -0.2196  0.1008
22412W        W65506   6.062   5.098  23.528 -0.0736 -0.0999  0.2481
22413W        W65507   6.120   3.012  23.865 -0.0565  0.1617  0.1657
22414W        W65508   3.910   6.192  27.762  0.1123 -0.0440  0.1958
22415W        W65509   6.456   5.856  25.947  0.0814 -0.3426 -0.0198
22416W        W65510   6.282   6.663  25.364  0.0644  0.4461  0.2469
22417W        W65511   5.401   3.496  24.298 -0.0372  0.1249  0.1880
22418W        W65512   6.977   8.058  24.418 -0.1214 -0.2241  0.1788
22419W        W65513   4.756   5.654  26.863 -0.3170  0.1594 -0.6123
22420W        W65514   7.240   5.701  27.331 -0.1595 -0.1245 -0.3727
22421W        W65515   6.934   7.353  24.888  0.1278 -0.2393 -0.0630
22422W        W65516   5.445   5.642  25.699 -0.0841 -0.0482  0.0944
22423W        W65517   7.011   5.785  23.657 -0.3569  0.1303  0.0286
22424W        W65518   7.030   3.374  25.742  0.0665  0.0510 -0.0372
22425W        W65519   3.511   7.764  23.687  0.3202 -0.1543  0.1022
22426W        W65520   6.997   5.076  25.941 -0.0830  0.0613 -0.5121
22427W        W65521   5.411   4.978  26.850 -0.1951 -0.0016  0.1240
22428W        W65522   7.260   3.133  26.715 -0.1002 -0.0739  0.1977
22429W        W65523   7.979   6.389  27.664 -0.1150 -0.0642 -0.2630
22430W        W65524   6.442   4.908  25.920  0.1599  0.1535 -0.0293
22431W        W65525   6.188   6.193  26.756  0.0162  0.0124 -0.0062
22432W        W65526   6.235   4.447  23.787  0.0462  0.3311 -0.0586
22433W        W65527   6.950   4.375  26.899 -0.1384  0.1963  0.0278
22434W        W65528   3.264   5.415  25.750  0.0810  0.0533  0.1795
22435W        W65529   4.837   8.776  25.700 -0.1158  0.2048  0.0656
22436W        W65530   6.776   7.573  27.441  0.2158 -0.5028  0.3196
22437W        W65531   7.211   5.504  25.614  0.2322  0.1326 -0.4183
22438W        W65532   5.369   3.531  26.845 -0.0059 -0.0901  0.0126
22439W        W65533   7.168   1.252  23.719 -0.0314  0.0402 -0.2074
22440W        W65534   5.437   6.994  25.134  0.2786 -0.1514 -0.0870
22441W        W65535   5.226   5.101  24.618  0.0024  0.1353 -0.0264
22442W        W65536   5.587   3.924  25.377 -0.2430  0.1626 -0.0946
22443W        W65537   4.860   6.414  26.624 -0.1448  0.0144  0.0137
22444W        W65538   5.704   6.613  23.235 -0.0395  0.2731  0.2430
22445W        W65539   4.988   4.696  26.582 -0.1129 -0.0003  0.2207
22446W        W65540   4.635   6.807  24.379  0.2433  0.0054 -0.0049
22447W        W65541   7.815   3.757  26.366 -0.1831  0.0036 -0.0065
22448W        W65542   3.326   7.093  26.335  0.0061 -0.2681 -0.0924
22449W        W65543   4.469   4.128  23.673 -0.0739  0.1135 -0.0587
22450W        W65544   4.111   5.505  25.823  0.3188  0.1050 -0.0037
22451W        W65545   5.834   5.190  25.414  0.0794  0.0493 -0.2599
22452W        W65546   6.623   6.562  23.666  0.1498  0.0287  0.5444
22453W        W65547   3.705   5.024  25.859 -0.4083 -0.0176 -0.1405
22454W        W65548   4.858   4.997  25.215  0.1724 -0.0050  0.0459
22455W        W65549   5.639   7.079  26.040 -0.0774  0.0703 -0.1556
22456W        W65550   5.737   4.901  26.431  0.3642 -0.1139  0.2764
22457W        W65551   5.885   4.616  23.318 -0.1275  0.1614  0.0903
22458W        W65552   5.698   6.239  26.543 -0.1535  0.2942 -0.0321
22459W        W65553   5.277   4.840  27.595  0.2224 -0.1091 -0.0972
22460W        W65554   4.540   4.801  23.445  0.5302  0.0302 -0.1907
22461W        W65555   7.722   6.370  26.359  0.3844 -0.2654  0.0418
22462W        W65556   5.973   4.203  25.729 -0.0518  0.3063 -0.0084
22463W        W65557   3.387   6.078  25.493 -0.0439 -0.0633 -0.1788
22464W        W65558   4.858   6.756  27.029 -0.0550  0.0667 -0.0135
22465W        W65559   5.523   6.062  24.538 -0.1334 -0.3114 -0.1468
22466W        W65560   5.993   6.263  25.135  0.2674 -0.1630  0.2119
22467W        W65561   5.050   4.039  26.050 -0.2555  0.1123 -0.1795
22468W        W65562   6.374   5.506  26.255  0.1268  0.1170  0.0562
22469W        W65563   5.990   3.707  27.054  0.1116 -0.0396  0.2694
22470W        W65564   6.210   4.960  25.179  0.0180  0.1517  0.1556
22471W        W65565   6.334   5.886  25.258  0.1787 -0.0673 -0.3012
22472W        W65566   6.517   6.636  26.470 -0.1829 -0.1770 -0.0404
22473W        W65567   7.158   4.619  26.491 -0.0565 -0.1947 -0.1193
22474W        W65568   4.422   5.790  27.207 -0.2177  0.1408 -0.1221
22475W        W65569   7.531   3.919  24.946  0.2548 -0.0666  0.3620
22476W        W65570   8.619   6.747  25.048  0.2764 -0.1528 -0.2372
22477W        W65571   6.463   4.644  27.099  0.1367  0.0927  0.0385
22478W        W65572   4.832   6.257  25.019  0.0450  0.0673 -0.1350
22479W        W65573   4.231   5.695  26.284 -0.2090 -0.0950 -0.1560
22480W        W65574   5.540   6.026  25.131 -0.0539  0.1118 -0.0058
22481W        W65575   6.815   4.612  26.149 -0.0025 -0.1494 -0.3104
22482W        W65576   3.843   6.590  26.694  0.2881  0.1962  0.1973
22483W        W65577   5.382   4.956  25.099  0.2215  0.2054  0.1809
22484W        W65578   5.282   6.275  26.335 -0.0062 -0.0592  0.2514
22485W        W65579   6.278   3.384  23.520  0.1396  0.0115 -0.2204
22486W        W65580   6.629   6.524  23.127  0.1053 -0.1106 -0.0769
22487W        W65581   6.400   3.317  26.186 -0.0929  0.1883  0.2107
22488W        W65582   8.184   3.236  26.407 -0.1672 -0.0185 -0.0014
22489W        W65583   6.152   5.816  23.690  0.1472  0.1312 -0.0279
22490W        W65584   7.959   2.919  26.658 -0.3686  0.0583 -0.0443
22491W        W65585   4.805   4.239  25.647  0.0520 -0.1024  0.2680
22492W        W65586   6.652   5.951  26.523 -0.2169 -0.2112 -0.1417
22493W        W65587   3.706   4.353  27.392  0.1638 -0.1490 -0.2292
22494W        W65588   8.503   6.876  26.887 -0.0765 -0.1948  0.0998
22495W        W65589   3.909   5.254  27.465 -0.1311  0.0972  0.1100
22496W        W65590   6.839   4.181  25.826  0.0487  0.2144  0.1769
22497W        W65591   4.861   2.423  24.789 -0.3990 -0.2431  0.1313
22498W        W65592   5.660   5.847  26.817 -0.0818  0.3370  0.2048
22499W        W65593   7.351   8.307  25.411  0.0424  0.4523 -0.0212
22500W        W65594   5.312   5.589  24.272  0.3492 -0.1246 -0.1484
22501W        W65595   7.653   6.275  24.676 -0.3325 -0.0971 -0.0415
22502W        W65596   5.593   6.088  25.731  0.1373 -0.1765  0.0441
22503W        W65597   5.503   5.845  23.830 -0.0651 -0.0665  0.0025
22504W        W65598   6.161   4.925  24.503  0.0172  0.2777 -0.3500
22505W        W65599   4.316   5.297  27.222 -0.0100  0.1034 -0.0323
22506W        W65600   4.874   3.464  27.407  0.1526 -0.0864  0.3629
22507W        W65601   6.208   5.728  26.773  0.1913  0.1290 -0.2600
22508W        W65602   6.144   4.155  26.296  0.1455 -0.0511  0.1849
22509W        W65603   6.344   3.756  26.514  0.2165 -0.0026  0.2159
22510W        W65604   5.830   5.373  26.952  0.0583 -0.3014 -0.0071
22511W        W65605   4.848   2.921  27.452  0.0200  0.2018 -0.2088
22512W        W65606   3.936   2.441  27.031  0.1054  0.1276  0.3877
22513W        W65607   6.734   8.339  26.884 -0.2900  0.3258 -0.1935
22514W        W65608   6.598   5.195  24.891 -0.0601 -0.1483 -0.2550
22515W        W65609   6.035   5.137  26.059  0.0573 -0.0585  0.1271
22516W        W65610   7.212   6.093  25.521  0.2952  0.0166  0.4026
22517W        W65611   5.847   5.532  26.427 -0.2386 -0.1957  0.0088
22518W        W65612   3.804   4.593  26.680 -0.6196 -0.0891  0.0277
22519W        W65613   7.243   7.260  26.739 -0.0976  0.0580 -0.2793
22520W        W65614   6.228   3.966  24.044  0.0017 -0.0922 -0.0254
22521W        W65615   6.884   3.627  26.780 -0.0988 -0.1338  0.2907
22522W        W65616   7.110   7.717  24.101  0.0866  0.2988 -0.0239
22523W        W65617   6.757   5.746  25.497  0.0267  0.2186  0.0393
22524W        W65618   6.514   4.572  25.389 -0.0020 -0.0196  0.3005
22525W        W65619   3.589   4.224  25.551 -0.1377 -0.4799  0.2125
22526W        W65620   4.770   7.402  29.168 -0.1482  0.0521 -0.0400
22527W        W65621   3.917   5.822  23.199 -0.0616  0.1718  0.2103
22528W        W65622   5.165   6.315  23.280 -0.1214  0.0811  0.1960
22529W        W65623   6.511   6.818  26.948 -0.0024 -0.0858 -0.0450
22530W        W65624   6.846   5.846  26.956 -0.2612 -0.0213  0.2371
22531W        W65625   5.501   2.733  23.783 -0.1849 -0.1175  0.2678
22532W        W65626   6.387   4.643  26.504 -0.4153 -0.1945  0.1277
22533W        W65627   4.123   6.243  24.762 -0.2705 -0.0082  0.1334
22534W        W65628   6.883   4.011  25.041  0.0889 -0.2070  0.0390
22535W        W65629   5.564   7.568  25.880  0.0694  0.0338 -0.2625
22536W        W65630   3.242   6.200  26.343 -0.0458 -0.0053 -0.3166
22537W        W65631   4.983   7.186  24.457 -0.0274  0.0077 -0.0798
22538W        W65632   5.780   3.223  26.955  0.0151  0.1156 -0.2969
22539W        W65633   6.665   5.714  24.890  0.2240  0.0490  0.2582
22540W        W65634   7.206   5.154  26.423  0.0619 -0.2559  0.0753
22541W        W65635   7.184   5.411  28.242 -0.1785 -0.1091  0.1129
22542W        W65636   6.552   8.155  27.355 -0.0726  0.0677  0.0648
22543W        W65637   3.889   4.574  25.833  0.1205  0.1420  0.0540
22544W        W65638   5.835   7.419  28.113 -0.1983 -0.2080 -0.1734
22545W        W65639   6.877   3.825  23.472 -0.0698 -0.3657 -0.0286
22546W        W65640   5.637   6.883  26.515 -0.1175  0.3487  0.2168
22547W        W65641   2.997   4.079  27.199 -0.4185 -0.1315  0.1601
22548W        W65642   6.474   4.585  27.845 -0.1087 -0.0624 -0.2596
22549W        W65643   5.578   5.876  26.240  0.1719  0.2421  0.2254
22550W        W65644   3.054   3.584  24.896 -0.3643 -0.2128 -0.0376
22551W        W65645   6.033   6.263  24.484  0.0636 -0.0435  0.1100
22552W        W65646   4.181   7.015  26.151  0.0909 -0.1616  0.0516
22553W        W65647   3.817   6.825  27.660 -0.2222 -0.2998 -0.1346
22554W        W65648   3.590   6.730  25.409  0.4944  0.1346  0.1605
22555W        W65649   7.237   5.347  23.505  0.1447 -0.1192 -0.0446
22556W        W65650   6.569   6.419  24.774  0.0957  0.1251 -0.3364
22557W        W65651   5.615   7.747  26.393 -0.2633 -0.0909  0.0137
22558W        W65652   5.252   4.990  26.136 -0.0986  0.3448 -0.1708
22559W        W65653   3.994   6.566  25.111  0.2466 -0.2082 -0.2254
22560W        W65654   4.956   5.835  23.490 -0.2646 -0.0699  0.0640
22561W        W65655   7.127   6.676  24.158 -0.1685  0.5606  0.5308
22562W        W65656   4.419   6.670  24.889 -0.3764 -0.0603 -0.0177
22563W        W65657   6.992   6.227  27.257 -0.1597 -0.2787 -0.0482
22564W        W65658   7.935   3.867  23.022 -0.1597  0.3245  0.0454
22565W        W65659   6.876   6.179  25.080  0.3095 -0.1165  0.6208
22566W        W65660   6.649   5.056  25.452  0.0500  0.0930 -0.1963
22567W        W65661   5.334   8.451  27.227 -0.1035  0.0160 -0.2701
22568W        W65662   7.014   6.401  26.547  0.0759 -0.3556  0.3036
22569W        W65663   5.390   4.494  23.579 -0.1365 -0.3528 -0.0298
22570W        W65664   4.419   6.052  26.579 -0.0470  0.0927 -0.0782
22571W        W65665   8.367   4.038  25.590 -0.0047  0.0698  0.0929
22572W        W65666   4.354   6.516  26.510  0.3794  0.5128  0.0941
22573W        W65667   7.917   9.099  23.977 -0.2186  0.1093  0.0391
22574W        W65668   4.796   6.355  25.641  0.2233 -0.0971  0.1939
22575W        W65669   5.592   5.298  26.036 -0.2931 -0.1595  0.0825
22576W        W65670   8.417   3.294  26.838 -0.0888 -0.0181 -0.0826
22577W        W65671   5.257   5.194  23.147 -0.2423  0.1660  0.1070
22578W        W65672   7.172   5.021  25.439  0.1284  0.1730  0.1109
22579W        W65673   4.276   5.985  25.604 -0.1150 -0.0504  0.0814
22580W        W65674   6.061   7.145  25.134  0.0514 -0.2807  0.0930
22581W        W65675   6.118   7.688  26.468 -0.1593  0.1621  0.0727
22582W        W65676   4.788   5.497  24.360 -0.1178 -0.0007 -0.1361
22583W        W65677   7.648   4.919  24.626  0.1357 -0.2665  0.1923
22584W        W65678   4.493   4.527  26.613  0.0185 -0.0988 -0.0193
22585W        W65679   6.408   4.404  25.902 -0.3448  0.1000  0.2054
22586W        W65680   4.493   3.772  25.730  0.2084 -0.2128 -0.1601
22587W        W65681   5.837   4.397  24.335  0.0146  0.1097 -0.1198
22588W        W65682   6.018   5.352  27.564 -0.0225  0.0738 -0.1499
22589W        W65683   4.025   5.020  26.871  0.0988 -0.0026  0.1364
22590W        W65684   4.115   3.878  23.992 -0.1311  0.2054 -0.1003
22591W        W65685   6.347   6.047  27.253  0.1798  0.2499  0.1603
22592W        W65686   5.541   3.840  23.011 -0.1008 -0.0240 -0.0215
22593W        W65687   7.271   7.414  27.770  0.0815  0.1831 -0.1333
22594W        W65688   4.615   4.299  26.148 -0.0299  0.1269 -0.0497
22595W        W65689   6.679   3.046  23.910 -0.0878 -0.0907  0.1336
22596W        W65690   5.793   7.153  24.655 -0.4518  0.1524 -0.0824
22597W        W65691   5.067   4.725  27.136  0.1838  0.3445  0.0372
22598W        W65692   6.859   6.470  27.710 -0.1243  0.0865  0.0975
22599W        W65693   5.603   4.435  25.270 -0.0565 -0.3774  0.2339
22600W        W65694   7.655   6.721  23.894  0.2146 -0.1551 -0.1111
22601W        W65695   7.917   4.338  25.894  0.2224  0.2178 -0.1646
22602W        W65696   5.098   6.883  24.091 -0.0312  0.0345 -0.1027
22603W        W65697   7.352   4.894  23.692  0.2872  0.0871 -0.2955
22604W        W65698   6.055   7.600  25.381  0.0570  0.3129  0.3987
22605W        W65699   4.562   4.711  25.553 -0.1189 -0.0808  0.0226
22606W        W65700   5.973   5.829  27.824 -0.1308  0.1039 -0.2610
22607W        W65701   7.428   7.456  25.837  0.0424 -0.0366  0.2364
22608W        W65702   6.214   3.267  25.145 -0.1658 -0.0820  0.2540
22609W        W65703   4.608   5.326  26.044  0.0976  0.0361  0.0918
22610W        W65704   2.759   7.335  24.436 -0.1423 -0.0384  0.0305
22611W        W65705   7.781   6.911  25.983 -0.0635  0.3338  0.1744
22612W        W65706   6.473   3.724  27.080  0.0346  0.0211  0.2791
22613W        W65707   6.476   5.259  24.309 -0.0997 -0.4136  0.0466
22614W        W65708   7.683   4.138  27.273  0.0242 -0.1339 -0.3188
22615W        W65709   6.934   6.953  27.540  0.1061  0.2589 -0.0514
22616W        W65710   4.724   6.540  27.468 -0.1263 -0.0148 -0.0246
22617W        W65711   5.559   5.525  24.721 -0.0212  0.1489  0.1608
22618W        W65712   5.256   5.583  26.963  0.0299 -0.0603  0.0840
22619W        W65713   7.404   6.517  25.173 -0.3004 -0.1205  0.2731
22620W        W65714   5.400   6.830  24.602 -0.1462  0.0680  0.0487
22621W        W65715   6.646   6.266  25.535 -0.2857  0.4843  0.0469
22622W        W65716   5.331   5.505  25.189 -0.1905  0.1022 -0.2072
22623W        W65717   7.694   6.883  24.855 -0.1784  0.1517  0.0977
22624W        W65718   5.473   4.500  24.756  0.2754  0.0210  0.1477
22625W        W65719   8.378   3.663  25.229  0.0710  0.1158  0.0491
22626W        W65720   8.218   4.536  25.439 -0.3226  0.1085  0.0717
22627W        W65721   4.891   5.186  26.908  0.4052 -0.0460 -0.2192
22628W        W65722   4.496   5.907  24.188 -0.1427 -0.2016 -0.0279
22629W        W65723   5.001   4.109  23.796 -0.0108 -0.1269  0.1976
22630W        W65724   5.003   5.594  25.551 -0.2498 -0.1852 -0.0237
22631W        W65725   5.807   2.703  27.273 -0.1692 -0.3883 -0.1188
22632W        W65726   3.439   3.353  25.915  0.0892 -0.0804 -0.0547
22633W        W65727   2.412   5.946  25.479 -0.0822  0.1766 -0.0571
22634W        W65728   4.285   4.305  25.754 -0.1289 -0.0085 -0.3012
22635W        W65729   7.464   5.988  23.811  0.0568  0.0085 -0.2273
22636W        W65730   3.125   4.409  25.516  0.0181 -0.1466  0.1631
22637W        W65731   3.110   3.472  25.441 -0.1188 -0.2004  0.1591
22638W        W65732   5.543   7.473  25.175  0.1321  0.0548 -0.2556
22639W        W65733   7.447   7.334  24.966  0.1958  0.1767  0.0798
22640W        W65734   5.938   3.665  23.766  0.0828  0.2006  0.0727
22641W        W65735   6.950   7.839  27.091  0.1387 -0.0716 -0.2419
22642W        W65736   5.111   5.858  24.902 -0.2107  0.3466 -0.2265
22643W        W65737   4.980   3.814  27.007 -0.0803 -0.1572  0.2293
22644W        W65738   5.806   3.030  26.374 -0.1129  0.0694  0.0140
22645W        W65739   3.225   3.389  24.450 -0.0049  0.0104  0.1766
22646W        W65740   5.695   3.260  25.957 -0.1940  0.1273  0.2589
22647W        W65741   6.131   6.150  25.707  0.0387 -0.1863  0.1768
22648W        W65742   8.430   8.474  23.540  0.1358  0.1569 -0.0185
22649W        W65743   5.030   6.782  25.384  0.1885  0.1890  0.1494
22650W        W65744   6.508   6.100  27.797  0.1592  0.0264 -0.0811
22651W        W65745   4.817   2.249  26.328  0.1156 -0.0460 -0.1132
22652W        W65746   6.817   6.154  24.407  0.0205 -0.0743 -0.2802
22653W        W65747   4.460   6.710  25.804 -0.1392  0.3571 -0.0632
22654W        W65748   7.102   6.458  24.734 -0.1008  0.1242 -0.1017
22655W        W65749   6.422   3.747  25.924 -0.2905 -0.0020 -0.0574
22656W        W65750   6.926   6.693  25.172  0.0328 -0.2116  0.0777
22657W        W65751   4.041   4.053  28.512 -0.2198  0.0658  0.0987
22658W        W65752   4.466   4.361  28.258 -0.0901  0.0228 -0.1888
22659W        W65753   6.406   8.316  26.026 -0.2166 -0.0596  0.0199
22660W        W65754   5.076   4.558  26.082  0.2437 -0.1880  0.0630
22661W        W65755   6.653   3.598  25.307  0.0717 -0.0999  0.0494
22662W        W65756   5.896   5.814  24.273 -0.1896  0.1416  0.0776
22663W        W65757   4.208   4.522  27.320  0.0431  0.1032 -0.1747
22664W        W65758   6.021   4.686  25.618  0.3047  0.0987  0.2092
22665W        W65759   5.741   4.284  28.270  0.2973  0.1871  0.1223
22666W        W65760   5.847   6.325  26.065 -0.2273  0.0738  0.0149
22667W        W65761   6.219   5.090  27.149  0.3280 -0.0919  0.0651
22668W        W65762   5.724   5.047  24.766  0.2653  0.0712 -0.1234
22669W        W65763   8.339   6.128  24.006 -0.1614 -0.2077 -0.1114
22670W        W65764   6.272   8.674  26.731 -0.4595  0.1639 -0.1352
22671W        W65765   7.369   7.156  26.263 -0.0645 -0.0660 -0.1439
22672W        W65766   5.478   7.548  27.282  0.0645  0.0712  0.2018
22673W        W65767   6.923   6.101  25.949 -0.0685  0.1016  0.0820
22674W        W65768   5.374   3.364  26.329 -0.1302  0.1516  0.1705
22675W        W65769   3.802   6.002  25.873 -0.0953  0.3851  0.1112
22676W        W65770   5.131   6.009  25.942  0.0011  0.1885 -0.0168
22677W        W65771   7.769   6.102  25.923 -0.1006 -0.3433  0.1079
22678W        W65772   6.089   3.556  25.588 -0.0766 -0.1084  0.0213
22679W        W65773   4.402   3.298  23.929  0.0411 -0.0266  0.3945
22680W        W65774   5.978   5.675  25.962  0.1631 -0.2155 -0.0879
22681W        W65775   5.667   4.990  27.286  0.2544 -0.1260 -0.0195
22682W        W65776   5.750   4.424  31.598  0.1308 -0.2180  0.1020
22683W        W65777   5.869   5.169  28.974  0.1786  0.1898 -0.2804
22684W        W65778   7.257   3.900  26.991  0.3131  0.0424 -0.2067
22685W        W65779   7.823   5.092  27.745 -0.0910  0.2961  0.0164
22686W        W65780   5.282   3.382  28.616 -0.0980 -0.2249  0.0130
22687W        W65781   8.176   7.748  29.693 -0.1522 -0.0042  0.1099
22688W        W65782   6.322   4.070  30.558  0.1492  0.1100  0.0159
22689W        W65783   6.286   7.315  28.732  0.0101 -0.1271  0.0002
22690W        W65784   7.891   7.441  30.146  0.1943  0.1593  0.0406
22691W        W65785   5.568   4.512  27.304  0.1024 -0.1359  0.0092
22692W        W65786   6.670   3.626  30.427 -0.4546  0.0997 -0.0566
22693W        W65787   5.412   5.474  30.025  0.1655  0.1921 -0.1422
22694W        W65788   4.864   3.819  27.814 -0.3012  0.3475  0.1456
22695W        W65789   4.745   3.331  28.728 -0.2476 -0.0668  0.2443
22696W        W65790   7.035   5.636  28.933 -0.0560 -0.1867 -0.1786
22697W        W65791   4.088   6.106  28.268 -0.0105  0.0450  0.0862
22698W        W65792   4.025   5.504  29.887 -0.0578 -0.0235 -0.0746
22699W        W65793   5.205   3.126  28.200 -0.1375  0.1924 -0.4032
22700W        W65794   5.996   6.914  28.818 -0.1675  0.2033  0.2556
22701W        W65795   5.627   1.995  30.855  0.0699 -0.0777 -0.0503
22702W        W65796   5.587   3.386  30.767  0.2089  0.3583 -0.4442
22703W        W65797   5.385   6.338  29.334 -0.3150  0.0015  0.2720
22704W        W65798   3.633   3.664  26.269 -0.0528 -0.0388 -0.2953
22705W        W65799   6.084   4.557  30.488  0.0093  0.0336  0.1180
22706W        W65800   4.012   5.318  29.327 -0.2667  0.1340 -0.1385
22707W        W65801   7.363   4.512  28.313  0.1609 -0.1185 -0.1970
22708W        W65802   7.062   5.404  29.826  0.1873 -0.0168 -0.1882
22709W        W65803   5.013   6.578  30.184 -0.0489  0.1789 -0.0772
22710W        W65804   5.042   6.200  30.976  0.0139 -0.1364  0.2006
22711W        W65805   6.459   4.576  31.185 -0.1466  0.1943  0.1253
22712W        W65806   4.385   5.561  29.063 -0.2612 -0.0344 -0.0170
22713W        W65807   3.101   8.336  29.445  0.0031 -0.4745  0.2922
22714W        W65808   3.672   7.671  28.343 -0.1378 -0.1823  0.0227
22715W        W65809   7.175   6.265  28.143  0.0095  0.0344  0.2079
22716W        W65810   6.240   6.030  29.907  0.0440 -0.1750 -0.1341
22717W        W65811   4.583   6.437  30.892  0.1480 -0.3991 -0.0091
22718W        W65812   5.194   6.653  27.828  0.1063  0.1801  0.1412
22719W        W65813   5.326   6.305  30.546  0.2505  0.0368 -0.0840
22720W        W65814   5.241   7.596  30.586 -0.0470  0.0802  0.0480
22721W        W65815   6.389   4.886  29.896 -0.0532 -0.3097  0.3135
22722W        W65816   5.632   5.177  28.404  0.1040 -0.0742 -0.0013
22723W        W65817   5.077   5.892  27.295  0.1219 -0.1606 -0.1761
22724W        W65818   4.736   5.343  28.011 -0.1870  0.0945 -0.1027
22725W        W65819   4.064   6.304  30.668  0.1602  0.0285 -0.2988
22726W        W65820   4.036   6.502  29.907  0.0864  0.2914 -0.0953
22727W        W65821   7.231   5.293  29.308 -0.0018 -0.0888  0.1303
22728W        W65822   4.538   5.840  28.301 -0.0620  0.2049 -0.2327
22729W        W65823   6.926   5.306  27.775  0.1933 -0.2579 -0.1740
22730W        W65824   5.701   5.042  27.804  0.0100  0.0244  0.3064
22731W        W65825   6.428   5.568  27.862  0.4317 -0.2132 -0.1379
22732W        W65826   4.315   3.609  28.774  0.1147  0.2353  0.3286
22733W        W65827   4.017   6.955  28.959 -0.0071  0.2181 -0.0978
22734W        W65828   5.341   3.678  27.946  0.1132 -0.3065  0.1258
22735W        W65829   6.017   6.008  30.650 -0.2502  0.0804  0.0190
22736W        W65830   4.961   4.257  29.017  0.0464  0.0163  0.0073
22737W        W65831   6.297   6.513  29.520  0.3368 -0.0154 -0.0229
22738W        W65832   3.860   5.889  30.199  0.0810 -0.0086 -0.1520
22739W        W65833   4.477   3.811  29.212 -0.4654 -0.1587  0.1080
22740W        W65834   6.937   8.259  25.765 -0.1335 -0.0769  0.1524
22741W        W65835   8.457   7.457  29.315 -0.1871  0.1869 -0.1488
22742W        W65836   5.925   5.752  27.251  0.2704  0.0443  0.2885
22743W        W65837   3.664   4.777  27.630  0.0344 -0.1098 -0.1911
22744W        W65838   4.261   5.185  31.729  0.2512 -0.1372 -0.2894
22745W        W65839   4.750   4.527  31.643  0.1837 -0.0897  0.0202
22746W        W65840   4.347   2.620  28.203 -0.0405 -0.2622  0.1731
22747W        W65841   6.851   5.646  30.951 -0.0794 -0.0434  0.2947
22748W        W65842   4.616   5.317  30.555 -0.1708  0.4103 -0.0751
22749W        W65843   7.162   4.247  27.403  0.1527  0.0019 -0.1082
22750W        W65844   5.671   5.951  30.032 -0.5187  0.0148  0.1285
22751W        W65845   5.755   6.676  29.374  0.1910  0.1140  0.2241
22752W        W65846   5.114   5.245  27.328  0.1942 -0.1105 -0.2541
22753W        W65847   7.244   4.035  28.116  0.0363  0.0264 -0.2927
22754W        W65848   6.504   4.355  29.665  0.2468  0.0528 -0.0412
22755W        W65849   4.940   4.162  28.392 -0.0754 -0.0014  0.1495
22756W        W65850   5.707   3.987  27.542 -0.0938 -0.0710  0.1510
22757W        W65851   7.523   6.273  30.460  0.2394 -0.1227 -0.0790
22758W        W65852   6.042   4.237  27.201 -0.0264  0.4850  0.0754
22759W        W65853   4.649   5.734  30.927  0.1610  0.3576 -0.3096
22760W        W65854   4.943   4.967  29.408 -0.2821  0.2522 -0.1525
22761W        W65855   5.275   6.809  29.128  0.2754 -0.0439 -0.5254
22762W        W65856   3.589   8.591  29.305  0.1326  0.4646 -0.2376
22763W        W65857   4.360   5.865  30.551 -0.0946  0.2739 -0.3588
22764W        W65858   2.960   4.791  28.143  0.1146 -0.2126  0.0357
22765W        W65859   3.581   4.225  28.473  0.2330  0.1168  0.1270
22766W        W65860   4.991   6.385  29.677 -0.1442 -0.0207  0.0118
22767W        W65861   5.917   3.911  28.006  0.0604  0.0827  0.1439
22768W        W65862   6.850   3.963  29.537 -0.0841  0.1168  0.2270
22769W        W65863   7.165   4.141  28.668 -0.1150  0.1788 -0.0926
22770W        W65864   3.555   5.351  27.099  0.0519 -0.0190 -0.0083
22771W        W65865   7.518   6.181  28.652 -0.2224 -0.3066 -0.2344
22772W        W65866   7.694   5.468  28.174 -0.2315 -0.1614  0.1616
22773W        W65867   8.666   6.908  28.065 -0.3013 -0.0903 -0.0209
22774W        W65868   5.590   4.039  29.900  0.3169 -0.1066 -0.1698
22775W        W65869   4.378   4.717  27.710  0.0683 -0.2803 -0.3628
22776W        W65870   5.080   3.083  30.636  0.2021 -0.0588 -0.0572
22777W        W65871   4.339   3.495  29.583  0.0978  0.4374  0.2308
22778W        W65872   6.651   4.907  29.300 -0.2089  0.2238  0.2406
22779W        W65873   4.237   2.998  27.848 -0.3070 -0.0569  0.4054
22780W        W65874   7.779   4.604  27.880 -0.1399  0.2435 -0.2441
22781W        W65875   5.392   5.132  29.163  0.0329  0.1074  0.0455
22782W        W65876   4.387   5.877  27.759  0.0764  0.2398  0.0362
22783W        W65877   7.202   3.990  29.170 -0.1848 -0.1477 -0.1676
22784W        W65878   4.257   7.595  29.190  0.0288 -0.1345  0.0697
22785W        W65879   4.859   6.806  31.307  0.0622 -0.1052  0.2874
22786W        W65880   7.273   7.117  29.738  0.0117 -0.0276  0.0203
22787W        W65881   6.475   3.520  29.547  0.3192 -0.0423  0.0664
22788W        W65882   5.127   2.878  28.719  0.2447 -0.2578 -0.1492
22789W        W65883   4.598   5.147  31.072  0.0473 -0.1411  0.1807
22790W        W65884   6.257   5.744  29.543  0.1629  0.0511  0.0937
22791W        W65885   4.708   3.377  26.943  0.0878  0.0239 -0.1066
22792W        W65886   8.398   7.929  29.073  0.1335  0.1127 -0.1707
22793W        W65887   5.952   6.276  28.058 -0.3159 -0.1485 -0.1122
22794W        W65888   5.463   5.475  31.368 -0.0439  0.0354  0.0841
22795W        W65889   6.863   4.419  29.308 -0.0011  0.0977 -0.1397
22796W        W65890   6.906   3.536  29.852  0.0444 -0.1792 -0.0110
22797W        W65891   5.668   6.031  28.929  0.0251  0.2512  0.1508
22798W        W65892   4.330   3.561  27.766 -0.1895  0.0411 -0.4176
22799W        W65893   6.217   8.639  30.413  0.1084  0.2545 -0.1068
22800W        W65894   4.363   6.113  28.991  0.2948  0.0442  0.0098
22801W        W65895   4.085   3.179  28.617  0.3397  0.0577 -0.2523
22802W        W65896   5.279   7.210  28.818  0.2488  0.1933  0.0691
22803W        W65897   7.909   2.094  28.942  0.0016 -0.0964  0.0235
22804W        W65898   3.134   4.690  31.008 -0.1538 -0.1484 -0.0471
22805W        W65899   6.538   5.980  28.809 -0.1630 -0.0217  0.1855
22806W        W65900   4.284   4.590  28.657 -0.1279 -0.0221  0.2722
22807W        W65901   6.107   5.596  28.813  0.1858  0.1679  0.5122
22808W        W65902   6.313   4.041  29.339 -0.1845 -0.0211 -0.2446
22809W        W65903   7.806   7.175  28.260 -0.2087 -0.0795 -0.4182
22810W        W65904   4.642   5.008  31.544 -0.2322  0.2409  0.3317
22811W        W65905   6.885   5.844  27.957 -0.0291 -0.0592 -0.3625
22812W        W65906   7.260   4.533  27.803  0.0911 -0.0836 -0.2162
22813W        W65907   5.997   5.362  28.067 -0.3075  0.2753 -0.1001
22814W        W65908   3.140   6.388  29.268  0.1313  0.0054  0.0196
22815W        W65909   5.604   4.769  28.718 -0.0657 -0.0854 -0.1064
22816W        W65910   5.898   6.372  29.788 -0.1609 -0.1269 -0.0341
22817W        W65911   5.814   4.380  26.677 -0.2573 -0.2563 -0.0436
22818W        W65912   7.858   5.975  28.206 -0.0421 -0.1505  0.2124
22819W        W65913   5.265   5.818  29.146 -0.2416 -0.2631  0.0739
22820W        W65914   7.012   5.749   0.940  0.3273 -0.1264  0.0781
22821W        W65915   7.254   6.891  28.952  0.1733  0.3960  0.1025
22822W        W65916   6.487   3.883  29.874  0.1503  0.0989 -0.2460
22823W        W65917   5.554   5.548  27.858  0.0201 -0.1939  0.2277
22824W        W65918   5.044   2.147  30.938 -0.1151 -0.1030 -0.0156
22825W        W65919   3.240   7.350  27.610  0.1114 -0.1591  0.0696
22826W        W65920   8.193   4.051  28.523  0.0078 -0.0727 -0.2645
22827W        W65921   6.842   3.174  29.426 -0.0613  0.0075  0.2735
22828W        W65922   5.145   3.618  30.496 -0.0432 -0.0081 -0.3826
22829W        W65923   6.227   5.151  30.351 -0.1155 -0.0537  0.0276
22830W        W65924   7.681   5.964  27.661  0.1550 -0.1521 -0.0434
22831W        W65925   6.217   4.764  29.444  0.0577  0.1658  0.0021
22832W        W65926   5.379   4.177  27.953  0.0784  0.0696  0.1707
22833W        W65927   6.704   4.374  28.674 -0.1424  0.1775 -0.3192
22834W        W65928   5.027   5.581  30.367  0.1983  0.0975 -0.2099
22835W        W65929   3.896   6.761  29.502  0.1234 -0.1207 -0.4156
22836W        W65930   5.451   5.814  30.539  0.2202 -0.1046 -0.1090
22837W        W65931   7.669   6.388  28.016  0.5007  0.0848  0.0532
22838W        W65932   7.273   4.768  29.360 -0.1508 -0.0690 -0.0376
22839W        W65933   5.571   3.957  26.949 -0.1291 -0.1024  0.0452
22840W        W65934   3.875   9.095  29.223 -0.1102 -0.0457  0.0028
22841W        W65935   4.846   4.778  27.952  0.0789  0.0904  0.1840
22842W        W65936   4.083   5.159  30.216 -0.1230 -0.0266  0.1078
22843W        W65937   5.447   6.804  30.617 -0.3055  0.1905  0.2130
22844W        W65938   5.181   6.439  27.328 -0.2696 -0.0789 -0.6050
22845W        W65939   7.147   6.209  29.668 -0.0273 -0.0930 -0.2763
22846W        W65940   4.054   6.702  28.170  0.0213 -0.3856 -0.1660
22847W        W65941   6.270   3.267  26.726 -0.1243  0.0819 -0.0182
22848W        W65942   4.488   6.328  28.519  0.0370 -0.0961 -0.1718
22849W        W65943   2.899   5.228  27.732  0.2125 -0.1729 -0.2922
22850W        W65944   3.397   5.445  27.684  0.2613 -0.1251 -0.1124
22851W        W65945   7.086   3.042  28.932 -0.3272 -0.2478  0.2172
22852W        W65946   5.959   6.233  27.520 -0.2034  0.0468 -0.1424
22853W        W65947   3.150   4.890  29.981 -0.1010 -0.0252  0.0597
22854W        W65948   5.758   3.665  28.904  0.2774 -0.0787 -0.2664
22855W        W65949   4.343   7.046  29.352  0.3569  0.1599  0.2813
22856W        W65950   6.487   5.344  29.768 -0.0314  0.1323  0.2844
22857W        W65951   6.837   4.604  27.446  0.1127  0.3357  0.0563
22858W        W65952   7.608   7.667  29.608  0.0980  0.1940 -0.0881
22859W        W65953   4.784   4.737   0.497 -0.0913  0.1073 -0.3558
22860W        W65954   4.756   3.273  27.903  0.1966 -0.0501  0.2921
22861W        W65955   7.676   3.197  31.043 -0.1058  0.1970 -0.1896
22862W        W65956   3.665   3.713  28.503  0.3457 -0.0444 -0.1006
22863W        W65957   3.018   6.949  28.369  0.2996 -0.0088 -0.2420
22864W        W65958   5.924   6.321  30.273  0.3296 -0.0185 -0.4319
22865W        W65959   4.895   6.241  29.001  0.0670 -0.0140 -0.4207
22866W        W65960   4.888   5.027  28.383 -0.2149  0.2890 -0.0911
22867W        W65961   4.574   3.554  31.902  0.0562 -0.1683 -0.0695
22868W        W65962   5.818   5.071  29.485 -0.1796  0.2180 -0.0719
22869W        W65963   4.984   5.393  29.741  0.1520  0.0299 -0.3011
22870W        W65964   5.760   4.218  30.652 -0.1613  0.0716  0.0342
22871W        W65965   5.700   4.501  27.761 -0.1327  0.1571 -0.1418
22872W        W65966   7.216   6.085  27.662  0.0939  0.0715  0.3365
22873W        W65967   6.725   3.986  29.050  0.3569  0.0535  0.0051
22874W        W65968   3.822   6.761  30.900  0.2141  0.0645  0.2859
22875W        W65969   4.671   3.104  31.081  0.2052 -0.0080  0.0022
22876W        W65970   8.006   5.852  26.412  0.2124  0.1485 -0.1059
22877W        W65971   5.779   4.670  29.779 -0.2031 -0.1141  0.5671
22878W        W65972   2.480   5.018  26.873  0.1450 -0.0179  0.0695
22879W        W65973   4.240   5.464  30.884 -0.2761  0.2992 -0.2341
22880W        W65974   5.444   4.374  29.017  0.1717  0.1373  0.3762
22881W        W65975   5.304   4.142  29.500 -0.1065 -0.2343 -0.2134
22882W        W65976   6.482   6.465  31.300  0.0532  0.2242 -0.1231
22883W        W65977   3.861   5.996  27.327  0.1224  0.0712 -0.1106
22884W        W65978   3.941   6.367  29.178  0.1601  0.1580 -0.1508
22885W        W65979   6.623   4.137  26.323 -0.1093  0.0495  0.1670
22886W        W65980   7.699   5.830  27.121  0.2209 -0.1691  0.1914
22887W        W65981   5.493   3.550  29.925 -0.1357 -0.0136  0.2553
22888W        W65982   7.010   4.534  31.198 -0.1576 -0.1769  0.1816
22889W        W65983   6.084   4.679  27.441  0.0874  0.1874  0.0750
22890W        W65984   7.982   3.481  30.367  0.2063 -0.1182 -0.1519
22891W        W65985   4.721   3.454  30.707  0.0123 -0.1670  0.3252
22892W        W65986   8.013   6.165  30.252  0.0578 -0.1333  0.0003
22893W        W65987   3.680   4.977  29.579 -0.5144 -0.1092 -0.1947
22894W        W65988   6.202   9.121  30.359  0.3106  0.3376 -0.1130
22895W        W65989   4.925   5.027   0.075 -0.0823  0.0402  0.2680
22896W        W65990   6.527   4.194  27.335 -0.0327 -0.0740 -0.1636
22897W        W65991   4.701   3.008  28.366 -0.2139  0.1944 -0.2698
22898W        W65992   5.760   5.054  30.599 -0.2702  0.0917 -0.1455
22899W        W65993   5.858   5.486  29.797  0.1030  0.0496  0.0594
22900W        W65994   6.786   7.313  27.957  0.6938  0.0281 -0.1831
22901W        W65995   6.263   2.204  29.237 -0.1767  0.0219 -0.1664
22902W        W65996   4.998   4.876  31.191 -0.1490  0.2109 -0.2382
22903W        W65997   6.521   5.089  28.079  0.2741 -0.1761  0.0530
22904W        W65998   6.499   5.485  27.128 -0.2935  0.1876 -0.0073
22905W        W65999   3.492   5.658  28.839  0.0456  0.0895  0.2397
22906W        W66000   4.488   4.760   0.061 -0.2228  0.0470  0.3249
22907W        W66001   6.123   6.034  29.169  0.2404 -0.2370 -0.2435
22908W        W66002   7.471   3.310  29.020  0.1630 -0.2654 -0.0270
22909W        W66003   6.877   4.408  28.172 -0.1366  0.4342 -0.3612
22910W        W66004   6.271   4.910  28.913  0.1845  0.2087 -0.0549
22911W        W66005   6.146   4.221  31.158  0.4339 -0.1445 -0.4514
22912W        W66006   4.618   4.541  31.145  0.1316  0.0375 -0.0638
22913W        W66007   6.263   6.618  30.030 -0.1251 -0.0025  0.1353
22914W        W66008   7.630   5.330  27.273  0.0887 -0.2708 -0.4062
22915W        W66009   8.178   4.402  28.931 -0.0321 -0.0478  0.0356
22916W        W66010   7.832   4.755  29.142 -0.1193 -0.1263 -0.1239
22917W        W66011   6.979   4.956  28.367  0.1136  0.4097 -0.0595
22918W        W66012   4.577   4.732  29.139 -0.1759  0.1062 -0.3984
22919W        W66013   5.726   3.786  30.413  0.0096 -0.0937  0.1639
22920W        W66014   4.323   4.159  27.823  0.0241  0.0225  0.2794
22921W        W66015   4.638   5.555  30.032 -0.1392 -0.0132 -0.1155
22922W        W66016   4.386   6.631  28.964 -0.1288 -0.0189  0.0919
22923W        W66017   7.076   5.957  28.492 -0.0908  0.1568  0.1012
22924W        W66018   7.662   4.202  28.607 -0.0194  0.2015  0.0057
22925W        W66019   4.308   2.900  29.069  0.2922 -0.2883  0.0935
22926W        W66020   4.980   6.621  30.691  0.0903  0.0810  0.0706
22927W        W66021   4.884   4.261  27.930  0.0600  0.2789  0.1662
22928W        W66022   5.415   4.750  28.088  0.1336  0.1339 -0.0939
22929W        W66023   5.484   6.495  30.081 -0.0703  0.3469 -0.1092
22930W        W66024   6.035   4.299  29.946  0.0425  0.3006  0.3858
22931W        W66025   5.919   4.770  26.919  0.1035 -0.1940 -0.1199
22932W        W66026   6.889   3.200  30.745 -0.3563 -0.3594  0.4101
22933W        W66027   4.316   6.284  27.423 -0.3487 -0.1031 -0.1627
22934W        W66028   6.278   1.348  29.286  0.0991  0.2546  0.2459
22935W        W66029   3.375   6.596  30.098 -0.0174  0.0537 -0.2667
22936W        W66030   3.542   5.241  29.980  0.1339 -0.1838 -0.1320
22937W        W66031   5.516   5.511  27.350  0.0217 -0.0940 -0.0591
22938W        W66032   6.938   3.152  30.275 -0.1285  0.0085 -0.2302
22939W        W66033   5.166   5.866  29.664 -0.3460 -0.2548 -0.0954
22940W        W66034   5.564   5.554  28.794 -0.2679  0.0954 -0.1578
22941W        W66035   7.758   6.640  31.484 -0.1283  0.1179  0.1183
22942W        W66036   5.384   5.322  30.573 -0.1829 -0.0085  0.0873
22943W        W66037   5.182   4.473  29.884  0.1674  0.0052  0.1437
22944W        W66038   5.287   6.746  29.634  0.2760  0.1340 -0.0271
22945W        W66039   5.207   6.482  28.721 -0.2531 -0.0302 -0.1432
22946W        W66040   3.857   4.970  28.015 -0.0719 -0.0123  0.0463
22947W        W66041   3.695   3.771  31.637  0.3668  0.1263  0.0088
22948W        W66042   5.809   4.871   0.377  0.1034 -0.2425  0.1628
22949W        W66043   7.775   5.819  30.006 -0.2607 -0.0004  0.0616
22950W        W66044   5.238   2.193  29.594  0.0451  0.2214  0.2654
22951W        W66045   6.656   6.337  26.919 -0.2281 -0.2239  0.1164
22952W        W66046   4.315   8.240   0.411  0.1998  0.0170  0.0442
22953W        W66047   3.480   5.674  29.729 -0.2355  0.0537 -0.1810
22954W        W66048   3.302   7.327  28.237 -0.0437 -0.3791  0.0230
22955W        W66049   5.747   6.521  28.885 -0.1512  0.3271 -0.0419
22956W        W66050   6.912   4.825  27.905 -0.1549  0.1160  0.0412
22957W        W66051   6.214   6.492  29.006 -0.0133 -0.2749 -0.2547
22958W        W66052   6.419   3.850  27.917  0.1146 -0.0638  0.4661
22959W        W66053   3.999   6.506  28.618  0.2028  0.0080 -0.2721
22960W        W66054   3.579   7.801  27.583  0.2027 -0.0048  0.1360
22961W        W66055   6.119   6.855  27.795 -0.0460  0.0068 -0.1143
22962W        W66056   2.798   7.955  29.158  0.1745 -0.1313 -0.1416
22963W        W66057   6.480   7.188  31.047 -0.2012 -0.3350  0.0669
22964W        W66058   7.576   5.223  25.743 -0.0943  0.0405  0.1296
22965W        W66059   7.361   4.491  28.958  0.1047  0.0041  0.0384
22966W        W66060   7.955   4.057  28.113  0.1863 -0.0042 -0.1782
22967W        W66061   8.197   6.980  30.798  0.2202  0.2514 -0.1465
22968W        W66062   6.685   5.377  29.218 -0.1675  0.0352  0.3421
22969W        W66063   6.670   5.526  28.313  0.0674  0.1975  0.0706
22970W        W66064   5.191   5.069  30.241  0.2204  0.0175 -0.0733
22971W        W66065   7.330   3.845  29.951 -0.1864  0.0940  0.1408
22972W        W66066   2.933   7.750  30.576 -0.0398  0.0151 -0.3685
22973W        W66067   8.226   7.301  27.021  0.0332  0.0832  0.0235
22974W        W66068   2.485   4.046  27.147  0.4457 -0.1698  0.1828
22975W        W66069   5.220   5.201  28.701  0.2424  0.1364  0.0789
22976W        W66070   8.101   3.951  30.318 -0.0242 -0.0018  0.1514
22977W        W66071   5.620   6.271  27.089  0.2186  0.1189  0.2839
22978W        W66072   7.610   3.803  28.949  0.2001 -0.2324 -0.0145
22979W        W66073   6.298   7.138  28.254  0.1601 -0.0580  0.1608
22980W        W66074   4.779   6.193  30.493  0.2057  0.3612  0.1665
22981W        W66075   5.846   5.529  30.366  0.1994 -0.2215 -0.0829
22982W        W66076   4.453   3.825  28.248 -0.2978  0.2874 -0.0978
22983W        W66077   8.218   5.699  29.169  0.0800  0.2551 -0.2460
22984W        W66078   6.016   4.800  30.991  0.2137 -0.2558  0.0781
22985W        W66079   6.191   2.810  30.047  0.3103 -0.4075 -0.1054
22986W        W66080   5.857   4.659  29.115  0.0947 -0.1012  0.1301
22987W        W66081   6.253   5.824  28.282 -0.0646 -0.0573  0.1898
22988W        W66082   5.796   5.078  30.093  0.2342 -0.1233  0.0836
22989W        W66083   4.933   5.000  30.718 -0.0204  0.0859 -0.1564
22990W        W66084   5.446   3.738  25.908 -0.0665  0.0884 -0.3418
22991W        W66085   6.919   4.934  30.889 -0.0527 -0.0833  0.3183
22992W        W66086   5.405   3.974  28.511  0.0609  0.2371 -0.0144
22993W        W66087   6.273   8.274  29.878 -0.1034 -0.0447 -0.0235
22994W        W66088   6.153   3.541  29.182  0.0982 -0.1915  0.3572
22995W        W66089   5.876   4.143  28.841  0.0232 -0.0277 -0.1806
22996W        W66090   3.999   5.096  28.460 -0.1733 -0.2946  0.1045
22997W        W66091   6.417   4.837  30.696 -0.2941  0.3246 -0.1028
22998W        W66092   6.780   5.743  30.338  0.0197 -0.2937  0.0210
22999W        W66093   6.363   4.412  29.049 -0.0969  0.1914  0.0727
23000W        W66094   6.384   8.592  27.213 -0.0261  0.3234  0.2077
23001W        W66095   7.264   5.255  28.721 -0.1281 -0.1902 -0.0621
23002W        W66096   5.002   6.737  28.277 -0.0651 -0.1486  0.2256
23003W        W66097   6.938   6.538  29.379  0.1530 -0.2195 -0.3201
23004W        W66098   7.406   6.841  28.018 -0.2081  0.1058  0.0600
23005W        W66099   4.353   3.301  28.200 -0.0859 -0.0373 -0.0356
23006W        W66100   8.268   7.357  28.309 -0.0226  0.0668 -0.1621
23007W        W66101   8.543   6.476  29.430 -0.1107 -0.0579  0.2517
23008W        W66102   5.807   4.080  29.331 -0.2098 -0.1042 -0.0879
23009W        W66103   5.413   5.474  29.492 -0.1410  0.1692  0.0838
23010W        W66104   2.383   7.213  29.115 -0.1948  0.1275  0.0279
23011W        W66105   6.539   3.228  29.006 -0.0972  0.0596 -0.3210
23012W        W66106   6.526   3.147  29.930 -0.0877  0.1260 -0.0433
23013W        W66107   5.502   6.044  28.022 -0.1196  0.2694 -0.1119
23014W        W66108   5.391   2.446  31.169  0.1777  0.2611  0.3487
23015W        W66109   4.114   5.108  31.252 -0.0895 -0.2518  0.0342
23016W        W66110   3.866   5.783   0.481  0.1284 -0.4017  0.3581
23017W        W66111   3.642   5.410  28.386  0.1906  0.2424 -0.0323
23018W        W66112   5.595   4.549  30.271 -0.1116  0.2821  0.0655
23019W        W66113   5.194   5.198  28.012 -0.2425 -0.0013 -0.0407
23020W        W66114   6.704   6.454  28.875  0.0939 -0.1631  0.0030
23021W        W66115   5.711   5.712  28.318  0.0040  0.0536 -0.1359
23022W        W66116   5.388   5.018  29.732 -0.0232 -0.2508  0.2209
23023W        W66117   7.134   6.459  28.615  0.4113 -0.0157  0.3482
23024W        W66118   7.006   3.556  28.951  0.1170  0.0289  0.0098
23025W        W66119   7.783   2.566  28.260  0.0159  0.0862  0.1159
23026W        W66120   5.203   1.785  29.949 -0.1283  0.1523  0.2341
23027W        W66121   5.307   4.911   0.336  0.1766  0.0572  0.0424
23028W        W66122   5.286   6.003  28.670 -0.1687 -0.1194  0.2790
23029W        W66123   4.679   5.516  27.500 -0.2328 -0.0870  0.2371
23030W        W66124   3.009   4.022  28.657  0.0889  0.2721 -0.1438
23031W        W66125   4.608   4.339  30.654  0.3957  0.1951 -0.1498
23032W        W66126   4.754   4.196  29.956  0.1407 -0.2394  0.2234
23033W        W66127   4.266   4.219  29.264  0.3912 -0.1064  0.0782
23034W        W66128   5.085   3.828  29.979  0.0832 -0.2008  0.0919
23035W        W66129   6.604   7.339  29.667  0.1526  0.0440 -0.0566
23036W        W66130   3.960   4.241  29.726  0.2087  0.1178 -0.0093
23037W        W66131   4.550   3.301  29.178  0.0009  0.0252 -0.1272
23038W        W66132   7.402   5.862  28.092  0.0941 -0.1102 -0.1691
23039W        W66133   7.319   7.702  28.645  0.3291 -0.1621 -0.0455
23040W        W66134   6.107   2.618  28.537  0.3561  0.1106  0.0079
23041W        W66135   6.596   6.265  30.759  0.0461 -0.1050  0.2806
23042W        W66136   2.942   6.834  27.437  0.1461  0.0823 -0.0670
23043W        W66137   5.047   2.687  30.893 -0.2718  0.0738  0.0355
23044W        W66138   5.748   3.898  31.054 -0.1109 -0.0008  0.0479
23045W        W66139   2.387   4.587  27.927  0.2295 -0.1589 -0.0263
23046W        W66140   6.323   3.847  28.810 -0.1200  0.1172  0.0487
23047W        W66141   5.113   7.692  28.588 -0.2230  0.2437 -0.1139
23048W        W66142   5.881   9.076  26.763  0.0543 -0.0770 -0.1426
23049W        W66143   4.821   4.041  31.373 -0.1316 -0.0369 -0.0789
23050W        W66144   5.415   7.081  31.356  0.1356  0.1819 -0.1554
23051W        W66145   6.491   4.492  30.199 -0.1514  0.1839 -0.1819
23052W        W66146   6.929   5.106  27.253  0.1274 -0.0486 -0.1210
23053W        W66147   8.056   5.813  28.626 -0.2446  0.2300 -0.1765
23054W        W66148   7.737   6.318  27.271 -0.2298  0.0765 -0.3242
23055W        W66149   7.213   2.799  28.449 -0.0473  0.2527  0.1961
23056W        W66150   6.712   6.421  28.267 -0.0186 -0.1447 -0.0116
23057W        W66151   3.686   3.838  30.430 -0.3963 -0.0774  0.0086
23058W        W66152   4.907   4.593  30.273  0.0731 -0.1384 -0.0034
23059W        W66153   7.439   5.337  30.167  0.4187 -0.1527  0.3060
23060W        W66154   3.175   4.470  28.566  0.1890  0.3415 -0.1173
23061W        W66155   6.529   4.814  28.487 -0.0967 -0.1266  0.0404
23062W        W66156   6.593   6.845  28.006 -0.1525 -0.4980 -0.3165
23063W        W66157   3.960   5.844  29.203  0.0485  0.1179  0.0168
23064W        W66158   6.212   5.237  29.315 -0.1614 -0.2204 -0.1800
23065W        W66159   5.814   5.588  29.229 -0.5566  0.1204  0.0326
23066W        W66160   4.809   6.679  29.318  0.0178  0.0094  0.0050
23067W        W66161   8.017   5.874   0.233 -0.1684 -0.2938 -0.1524
23068W        W66162   4.517   4.115  28.737 -0.2246  0.1127 -0.0686
23069W        W66163   7.460   5.503  27.754  0.0154  0.4070 -0.2087
23070W        W66164   3.455   6.314  30.570 -0.0699  0.1722  0.3769
23071W        W66165   7.189   5.907  31.351 -0.2692 -0.2481 -0.2121
23072W        W66166   5.631   4.502  31.108 -0.0753 -0.2072 -0.0138
23073W        W66167   6.334   5.613  30.203  0.2652  0.1809 -0.3294
23074W        W66168   5.308   2.285  30.078  0.1388 -0.1072  0.3200
23075W        W66169   3.893   3.879  28.917 -0.2281 -0.1243 -0.0906
23076W        W66170   4.714   5.971  29.355  0.0858 -0.0663  0.0432
23077W        W66171   8.079   3.592  28.781 -0.1302  0.0688  0.0535
23078W        W66172   6.109   3.470  30.235  0.3159  0.2420 -0.3922
23079W        W66173   6.274   4.271  28.297  0.0488 -0.0367  0.0332
23080W        W66174   5.061   6.399  31.479  0.3544  0.1787  0.0898
23081W        W66175   5.670   5.937  29.541  0.0626  0.1742  0.0067
23082W        W66176   6.620   3.611   0.227 -0.0318 -0.0508 -0.0553
23083W        W66177   6.320   5.368  31.619 -0.0009 -0.0537 -0.0520
23084W        W66178   4.788   3.937  30.395  0.2644 -0.3635 -0.0620
23085W        W66179   4.388   7.125   1.138 -0.0616 -0.1711  0.2758
23086W        W66180   4.843   7.188   0.286  0.1197  0.1042  0.1259
23087W        W66181   4.111   6.534  31.177 -0.1849 -0.1400 -0.0666
23088W        W66182   5.641   5.690   1.240  0.1574 -0.1216 -0.0467
23089W        W66183   6.468   3.123  30.418  0.0824  0.4208 -0.1878
23090W        W66184   6.849   4.702  29.743 -0.0678 -0.1067  0.1177
23091W        W66185   6.701   5.799  29.816 -0.1457 -0.2056 -0.1445
23092W        W66186   5.661   5.111   0.764 -0.1611 -0.3087 -0.0848
23093W        W66187   4.679   3.519  31.397  0.0405  0.0018  0.1637
23094W        W66188   7.223   4.346  29.748 -0.2981 -0.2608 -0.1999
23095W        W66189   6.565   5.094  31.206  0.1437 -0.0470 -0.0921
23096W        W66190   7.563   5.900  31.929 -0.2826 -0.1932 -0.0897
23097W        W66191   4.584   8.760   0.727  0.0639  0.1951  0.0151
23098W        W66192   3.854   4.904   0.898  0.3410  0.2675 -0.1812
23099W        W66193   5.757   6.400  30.765 -0.0265  0.0279  0.0921
23100W        W66194   3.813   3.989  31.203  0.0250 -0.1114 -0.1661
23101W        W66195   4.275   4.739   0.527  0.1322  0.2214  0.0335
23102W        W66196   3.128   4.590   2.166  0.3295 -0.0988  0.0933
23103W        W66197   4.308   7.015  31.462 -0.0616  0.2304 -0.1458
23104W        W66198   8.152   3.292  31.153 -0.1088  0.3289 -0.1030
23105W        W66199   5.782   4.011   0.505  0.0851  0.0125 -0.1390
23106W        W66200   5.799   3.931  31.527  0.0456  0.1346 -0.0424
23107W        W66201   5.850   4.162   0.021  0.0199 -0.0672  0.1985
23108W        W66202   6.212   4.216  31.655 -0.1459  0.3608  0.0218
23109W        W66203   4.045   8.347  31.547 -0.3495  0.0147  0.2644
23110W        W66204   4.454   4.289   0.672  0.1147 -0.3018 -0.0130
23111W        W66205   5.515   5.064  31.041  0.1919 -0.1392  0.1710
23112W        W66206   5.000   5.264   0.594 -0.1441  0.2498 -0.2978
23113W        W66207   3.928   4.349   0.567 -0.1025  0.3962 -0.0821
23114W        W66208   5.579   6.876  31.842  0.0762 -0.0002  0.1734
23115W        W66209   6.067   4.641  31.955 -0.0481  0.0818  0.2300
23116W        W66210   3.441   4.334  31.193  0.1074  0.0217  0.1663
23117W        W66211   3.343   4.846   0.900  0.1673 -0.0966  0.1351
23118W        W66212   4.988   5.431  31.255  0.0298 -0.2748  0.2067
23119W        W66213   5.443   5.365   0.061  0.0120 -0.1245 -0.3298
23120W        W66214   6.786   6.047   1.396  0.2931  0.1020 -0.0279
23121W        W66215   5.132   5.106  31.629 -0.2433 -0.0096 -0.0777
23122W        W66216   5.839   5.388   0.398  0.1899  0.0653 -0.0997
23123W        W66217   6.156   4.822  31.478 -0.0535 -0.2433  0.0922
23124W        W66218   4.191   3.159  31.547 -0.2815  0.1291  0.2484
23125W        W66219   4.944   7.266  31.009  0.0237  0.2627  0.0731
23126W        W66220   4.301   4.127  31.239 -0.1026 -0.1329  0.0874
23127W        W66221   6.954   3.769  31.376  0.4148 -0.2099 -0.0562
23128W        W66222   7.447   4.260  31.640 -0.2427  0.0970 -0.0491
23129W        W66223   5.033   7.760  31.943 -0.1321  0.1090  0.3926
23130W        W66224   5.472   8.112  31.339 -0.2237  0.3012 -0.0397
23131W        W66225   3.718   6.487  31.733  0.1443 -0.4024  0.3574
23132W        W66226   4.550   7.509   0.847  0.0615 -0.2900 -0.1117
23133W        W66227   7.277   4.061  31.095 -0.2321 -0.2071  0.1824
23134W        W66228   4.930   2.258  31.399 -0.5399 -0.1222 -0.3676
23135W        W66229   5.908   5.357  31.887 -0.0873 -0.1333  0.1267
23136W        W66230   4.415   4.129  31.709  0.0712  0.4584  0.0569
23137W        W66231   6.094   4.420   0.426 -0.5299  0.1556  0.1123
23138W        W66232   6.230   5.274  30.830  0.4077  0.2298 -0.1360
23139W        W66233   5.729   5.870  31.819 -0.4054  0.2060 -0.1263
23140W        W66234   5.169   6.006  30.151 -0.1477  0.1547 -0.1640
23141W        W66235   4.718   4.319  29.462 -0.2385 -0.1304 -0.2089
23142W        W66236   4.280   3.611  30.510 -0.0624 -0.0805  0.1470
23143W        W66237   5.581   4.484   0.566 -0.0370  0.1292 -0.1364
23144W        W66238   3.767   5.395  31.072 -0.1387 -0.0760  0.0961
23145W        W66239   3.344   3.383  31.000 -0.1531 -0.0248  0.0548
23146W        W66240   5.446   8.281  29.898 -0.2624 -0.0377 -0.0653
23147W        W66241   5.743   6.859  29.881  0.0340  0.0808 -0.0449
23148W        W66242   5.276   5.662  30.952  0.0826  0.2516  0.1627
23149W        W66243   3.101  11.082  19.149  0.1031 -0.0044  0.0378
23150W        W66244   4.615   8.166  15.982  0.1701 -0.1843 -0.2477
23151W        W66245   5.548   7.362  15.631 -0.1936  0.3698  0.1391
23152W        W66246   5.679   9.048  16.978  0.1487 -0.0226  0.2137
23153W        W66247   3.657   8.855  16.359 -0.1599  0.0545  0.3414
23154W        W66248   5.015   9.288  17.453 -0.3402 -0.2186 -0.0396
23155W        W66249   4.559   7.837  18.155 -0.0884  0.3884 -0.0807
23156W        W66250   5.182   9.409  18.976 -0.0497 -0.2874 -0.1998
23157W        W66251   6.963  11.801  19.116  0.1134  0.0194  0.2028
23158W        W66252   6.338   9.210  16.406 -0.3541  0.3277  0.2261
23159W        W66253   4.521   8.500  18.436 -0.0477 -0.0926  0.0141
23160W        W66254   4.413  11.218  19.635 -0.0345  0.0578 -0.0286
23161W        W66255   5.426   6.857  17.340  0.1752 -0.0426 -0.0415
23162W        W66256   2.528   7.746  20.303 -0.0651  0.0408  0.1944
23163W        W66257   6.476   9.006  17.377 -0.1172  0.1140  0.0235
23164W        W66258   2.314   9.904  16.197 -0.3191  0.5352 -0.0588
23165W        W66259   5.365   9.166  18.527  0.1693  0.0126  0.0126
23166W        W66260   4.419   9.253  17.594 -0.2510  0.0707  0.0755
23167W        W66261   6.144   9.615  19.071 -0.0964 -0.1592 -0.0097
23168W        W66262   5.307   7.857  16.283  0.1381  0.0440 -0.2067
23169W        W66263   5.985   7.849  18.421  0.1174  0.1449 -0.1245
23170W        W66264   6.049  10.001  17.533 -0.1157  0.3212 -0.0270
23171W        W66265   4.271   8.456  15.767  0.0707  0.0232  0.0312
23172W        W66266   4.001   8.537  17.584  0.2408 -0.1366  0.1821
23173W        W66267   2.760   9.575  19.578 -0.2545 -0.0049 -0.0770
23174W        W66268   4.839   9.661  18.365  0.3336  0.1702  0.0920
23175W        W66269   6.270   8.176  19.421 -0.0022 -0.1356  0.3528
23176W        W66270   5.721   9.656  17.687  0.1548  0.1345  0.0259
23177W        W66271   4.876  12.083  17.866  0.2368  0.1472  0.2617
23178W        W66272   7.139   8.276  19.826 -0.0725 -0.1469  0.1675
23179W        W66273   3.099   9.039  17.366 -0.1541  0.2138 -0.0802
23180W        W66274   3.030  10.761  17.482  0.0495  0.1116  0.0716
23181W        W66275   4.492   9.936  16.841 -0.0130 -0.0018  0.1773
23182W        W66276   7.904  10.488  16.722  0.0790  0.1525  0.4990
23183W        W66277   5.458  10.588  20.669 -0.1461  0.2796 -0.1071
23184W        W66278   5.654  11.576  19.398 -0.1658 -0.0592  0.0158
23185W        W66279   3.151   9.523  17.455 -0.0099  0.2449  0.3702
23186W        W66280   5.297  11.533  19.953  0.0788 -0.2977 -0.1870
23187W        W66281   4.115  10.196  20.463 -0.2869  0.0820 -0.0493
23188W        W66282   5.690   9.674  18.821 -0.2313 -0.1325 -0.0482
23189W        W66283   6.196   9.542  17.514  0.1160 -0.1503  0.2829
23190W        W66284   4.751   8.921  17.224  0.4539 -0.1370  0.2318
23191W        W66285   7.089   9.999  18.574 -0.0719  0.0633 -0.0357
23192W        W66286   3.259   9.534  19.995 -0.1173  0.3523 -0.0233
23193W        W66287   4.338  10.667  18.601  0.0285  0.4860  0.3499
23194W        W66288   6.846   8.371  18.758 -0.1661 -0.3154 -0.1059
23195W        W66289   3.767  10.381  16.537 -0.1244  0.1603  0.2051
23196W        W66290   6.467   8.198  16.934 -0.2524  0.1532  0.2181
23197W        W66291   5.813   7.636  15.983 -0.0046 -0.3026 -0.0756
23198W        W66292   4.772   7.589  16.829  0.0362  0.0842  0.1829
23199W        W66293   6.115   7.444  17.357 -0.1360  0.0438  0.0557
23200W        W66294   5.060  11.736  17.524  0.1485 -0.2948  0.1477
23201W        W66295   3.148   7.833  18.429 -0.1947 -0.0648 -0.0764
23202W        W66296   8.038   9.423  18.392  0.2952 -0.0155  0.1290
23203W        W66297   5.917   9.535  17.072 -0.0311  0.2281 -0.2917
23204W        W66298   5.186   8.905  18.914  0.3053 -0.1196  0.0846
23205W        W66299   3.357  10.653  19.145  0.1237  0.1205 -0.0596
23206W        W66300   4.620   8.307  17.971  0.2819  0.0407  0.0240
23207W        W66301   6.827   9.628  16.591  0.0466  0.1958  0.0854
23208W        W66302   6.316  11.160  17.895 -0.1556 -0.1626 -0.1705
23209W        W66303   4.729  10.102  17.294  0.1071 -0.2510  0.0953
23210W        W66304   2.540   9.034  16.295 -0.1853  0.2854 -0.3024
23211W        W66305   2.535  10.424  19.579 -0.1497  0.0051 -0.1907
23212W        W66306   4.963   8.368  18.691 -0.2196  0.0542  0.2519
23213W        W66307   4.684   8.115  17.007  0.0199 -0.3728  0.1643
23214W        W66308   7.744   8.301  20.815 -0.1278  0.4738 -0.3379
23215W        W66309   3.432  11.192  18.505  0.1093  0.2799 -0.3955
23216W        W66310   5.900   8.592  16.786  0.1528 -0.0386  0.1392
23217W        W66311   3.793  10.228  19.217 -0.1106 -0.1379  0.1110
23218W        W66312   5.942   9.148  18.763  0.0356 -0.1179  0.2818
23219W        W66313   5.535   9.646  16.094  0.1796  0.1289  0.0233
23220W        W66314   6.307   7.376  17.901 -0.0177  0.0141  0.3254
23221W        W66315   5.314   7.954  19.886 -0.0605  0.1047  0.0552
23222W        W66316   4.475   9.697  16.324 -0.1555  0.1443  0.2183
23223W        W66317   5.060  10.020  16.731 -0.0030  0.1552 -0.0863
23224W        W66318   6.563  10.046  18.450  0.0317 -0.0369  0.3337
23225W        W66319   7.087   8.738  16.746 -0.0342  0.1312 -0.2698
23226W        W66320   4.475  11.581  16.743 -0.0507 -0.0973 -0.1681
23227W        W66321   4.636   7.968  18.735  0.0084 -0.0952  0.1028
23228W        W66322   4.313   9.859  19.376 -0.0806  0.2203  0.0052
23229W        W66323   4.217  11.729  16.362  0.0968  0.1836  0.2444
23230W        W66324   2.955   9.179  17.811  0.0980 -0.0162  0.0741
23231W        W66325   3.335   8.820  16.944  0.2269  0.2178  0.0646
23232W        W66326   4.969   8.037  18.305 -0.0832  0.2397 -0.0091
23233W        W66327   5.276   9.705  18.571 -0.0243 -0.5686  0.1449
23234W        W66328   7.209   7.335  16.940 -0.0702 -0.0577  0.3004
23235W        W66329   3.526   8.616  18.970 -0.4123  0.1049 -0.0440
23236W        W66330   6.099   5.911  17.447 -0.0777 -0.1637  0.1980
23237W        W66331   2.850  11.189  18.403  0.0946 -0.0283  0.0971
23238W        W66332   7.025  11.180  17.593  0.0643  0.0315 -0.1887
23239W        W66333   6.346   8.821  16.069  0.0851 -0.0069 -0.1954
23240W        W66334   7.481  10.058  15.739  0.0871  0.0369  0.2011
23241W        W66335   4.387   7.838  19.201 -0.1077 -0.2262 -0.0317
23242W        W66336   2.859   8.082  17.617 -0.0999  0.2755 -0.2739
23243W        W66337   4.907   6.087  20.053  0.1492 -0.1708 -0.0953
23244W        W66338   3.581   6.566  18.509 -0.1053 -0.1893 -0.5768
23245W        W66339   5.687   9.318  19.176  0.0216 -0.1343  0.0276
23246W        W66340   3.180   8.221  16.139  0.1343  0.2331 -0.2887
23247W        W66341   5.396   8.468  16.894  0.0124  0.0366 -0.1997
23248W        W66342   5.429   8.840  16.586 -0.2737 -0.2691 -0.2477
23249W        W66343   3.054   9.972  17.127  0.4351  0.0700 -0.2120
23250W        W66344   6.581   8.013  18.579  0.3161  0.0236 -0.0303
23251W        W66345   5.470  10.311  16.834 -0.2973  0.3853 -0.2769
23252W        W66346   7.663  10.293  17.910 -0.0360 -0.1118  0.0705
23253W        W66347   6.496  10.770  18.224  0.1579  0.2142 -0.2314
23254W        W66348   4.092   7.919  20.644 -0.0501 -0.0707 -0.4299
23255W        W66349   2.682   7.750  16.642  0.3534 -0.5098 -0.0393
23256W        W66350   5.406   9.552  17.298  0.0586  0.0131 -0.2019
23257W        W66351   4.975  11.112  18.743 -0.0968  0.3036  0.1581
23258W        W66352   2.975   8.364  17.205  0.3206 -0.2673  0.2554
23259W        W66353   6.908  10.445  18.104 -0.0624  0.0968  0.0930
23260W        W66354   7.466   8.541  18.072  0.2635  0.2145 -0.1545
23261W        W66355   2.948   9.718  18.161  0.1332  0.2703  0.0708
23262W        W66356   5.055   7.577  18.096 -0.1860 -0.0119  0.2828
23263W        W66357   7.070   7.871  18.723 -0.3280  0.2453  0.1438
23264W        W66358   6.135   9.080  18.280 -0.2286 -0.0061 -0.0080
23265W        W66359   2.625   7.259  16.007  0.1958 -0.4119  0.0204
23266W        W66360   4.687   9.672  17.605 -0.2656  0.3233 -0.1311
23267W        W66361   2.302  10.306  17.688 -0.0767  0.1237 -0.1506
23268W        W66362   2.699   9.556  17.097  0.1227  0.1742  0.0805
23269W        W66363   5.673  10.697  18.754  0.3365  0.0675 -0.1325
23270W        W66364   5.355   8.518  18.322 -0.0234 -0.2583 -0.0083
23271W        W66365   3.310  10.034  19.105  0.0194 -0.5157  0.0170
23272W        W66366   5.171   8.708  19.986 -0.0481  0.0514  0.1682
23273W        W66367   2.144   9.900  16.757 -0.0746  0.0450 -0.1869
23274W        W66368   3.277  10.343  18.708  0.2375 -0.3750 -0.0073
23275W        W66369   4.223   8.937  17.271  0.0526  0.1318  0.1202
23276W        W66370   7.033   7.301  16.283 -0.0556 -0.1196 -0.0067
23277W        W66371   5.189   9.934  19.769 -0.0945 -0.1024  0.5590
23278W        W66372   7.174   7.717  17.209  0.0645 -0.0580  0.0588
23279W        W66373   6.199   8.436  15.784 -0.0184 -0.0721 -0.2632
23280W        W66374   5.391   7.873  15.765 -0.4103 -0.1681  0.0416
23281W        W66375   3.589  11.340  20.487  0.1744 -0.1772 -0.1491
23282W        W66376   4.231  10.034  17.301  0.1639  0.0706 -0.2265
23283W        W66377   4.142   9.951  18.927  0.0825  0.2186  0.1909
23284W        W66378   5.796   8.711  15.659  0.1395 -0.2381 -0.0820
23285W        W66379   6.349   9.700  18.071 -0.0346 -0.3569  0.2033
23286W        W66380   3.203   8.965  18.830  0.0229  0.1282  0.0011
23287W        W66381   4.712   9.660  18.888 -0.0368 -0.1218  0.2114
23288W        W66382   6.897  11.212  18.087  0.2055  0.1946 -0.5273
23289W        W66383   5.828   7.817  17.693  0.1471  0.2418  0.3119
23290W        W66384   4.564   8.644  16.250  0.0129  0.0500 -0.0087
23291W        W66385   5.165   8.013  16.735  0.3189 -0.2858 -0.2067
23292W        W66386   4.203  10.104  16.377  0.0971  0.0035  0.2617
23293W        W66387   5.850   8.802  19.110 -0.1247  0.2370 -0.0573
23294W        W66388   4.889   9.230  18.654 -0.3680 -0.0663  0.1504
23295W        W66389   6.349   8.555  18.378  0.1149  0.3381  0.2847
23296W        W66390   6.342   8.779  20.208  0.1584 -0.3550 -0.0884
23297W        W66391   6.762   8.772  17.901  0.1346 -0.0597 -0.3712
23298W        W66392   5.689   9.951  17.160 -0.2725 -0.0066 -0.1026
23299W        W66393   3.719   8.291  17.169 -0.0999 -0.1307  0.1533
23300W        W66394   6.191   7.676  19.409  0.1731  0.3375  0.1569
23301W        W66395   2.935   9.936  19.892  0.2308  0.0240 -0.0956
23302W        W66396   4.263   9.531  17.233  0.1021  0.3693  0.2862
23303W        W66397   6.437  10.025  19.261 -0.2529  0.2445  0.1777
23304W        W66398   5.722   8.581  17.297 -0.1814 -0.1190 -0.0427
23305W        W66399   3.433   7.250  19.162 -0.0885 -0.1194 -0.1116
23306W        W66400   4.785   7.895  16.392 -0.0615 -0.3168 -0.2454
23307W        W66401   4.691  10.194  16.399 -0.2071  0.1245  0.1754
23308W        W66402   4.847   9.628  17.079  0.0489  0.0298  0.1614
23309W        W66403   3.975   7.709  17.931  0.1431  0.0844  0.0348
23310W        W66404   2.924  11.365  19.757  0.2144 -0.0500 -0.3059
23311W        W66405   4.314   8.977  15.921  0.2340 -0.1396 -0.0463
23312W        W66406   7.216   9.974  18.051  0.0645 -0.1890  0.0680
23313W        W66407   3.714   9.865  16.460  0.1331  0.0348  0.1857
23314W        W66408   5.802   6.513  17.448  0.0444  0.2383  0.2116
23315W        W66409   2.403  10.884  17.608 -0.0015  0.2134  0.2729
23316W        W66410   3.464   8.318  16.731  0.1375  0.0070 -0.0689
23317W        W66411   3.020   9.270  16.336 -0.1349  0.1875  0.0214
23318W        W66412   5.457   8.226  17.629  0.1014 -0.0821 -0.0753
23319W        W66413   5.868   9.393  16.448  0.4215 -0.1188  0.1498
23320W        W66414   3.277   7.967  17.341 -0.0227  0.1526 -0.1188
23321W        W66415   4.959   7.588  17.334  0.0946 -0.0026  0.1952
23322W        W66416   3.631   9.722  17.450 -0.1304 -0.0019 -0.1271
23323W        W66417   5.380   9.600  20.110 -0.3854  0.0427  0.1808
23324W        W66418   7.245   7.775  16.070 -0.0814  0.5354  0.1756
23325W        W66419   4.878   9.786  20.269 -0.0148 -0.0832 -0.1489
23326W        W66420   4.266   8.913  19.679 -0.0388  0.1733 -0.1270
23327W        W66421   4.101   8.564  16.260  0.0240 -0.1422  0.1063
23328W        W66422   5.928  10.253  19.034  0.0190  0.1100  0.4409
23329W        W66423   4.551   7.469  17.746  0.1064  0.0438  0.2202
23330W        W66424   4.399  10.165  18.481  0.0691  0.0800 -0.2270
23331W        W66425   5.215   9.795  17.697  0.0107  0.0159  0.0274
23332W        W66426   3.675   8.388  16.210 -0.1228  0.0669 -0.0387
23333W        W66427   3.421  10.014  18.284 -0.1369  0.2634 -0.6067
23334W        W66428   4.418   8.186  20.395 -0.1277  0.0571 -0.0130
23335W        W66429   6.733   8.567  19.193 -0.4705 -0.2972  0.0373
23336W        W66430   4.203   8.061  17.664  0.0017  0.1262 -0.3664
23337W        W66431   3.969   8.327  18.068 -0.2090  0.2038 -0.0007
23338W        W66432   4.211   8.384  17.166 -0.2160 -0.3102  0.0384
23339W        W66433   6.096  10.423  18.524  0.1083  0.3033  0.1436
23340W        W66434   5.794   8.288  19.223 -0.1065 -0.0274  0.0957
23341W        W66435   4.441  11.468  20.418  0.0950 -0.0445 -0.0403
23342W        W66436   5.401   6.222  18.207  0.4769 -0.2474  0.0536
23343W        W66437   6.401  10.161  16.566  0.1601 -0.0333  0.1029
23344W        W66438   5.456   8.369  20.245 -0.2117  0.1933  0.0043
23345W        W66439   6.367   9.187  17.821  0.1721 -0.1316 -0.0461
23346W        W66440   2.912   9.055  19.863 -0.0531  0.0176  0.0926
23347W        W66441   3.949   9.185  16.804 -0.3745  0.1315 -0.0169
23348W        W66442   5.338   8.708  19.386  0.0213 -0.1162  0.3267
23349W        W66443   3.199  11.685  18.367 -0.3595 -0.0675 -0.0465
23350W        W66444   4.469   9.930  15.867  0.3662 -0.0432 -0.2875
23351W        W66445   3.163  10.849  18.710 -0.2506 -0.0064  0.3911
23352W        W66446   7.251   6.391  16.512  0.3148  0.2463 -0.1007
23353W        W66447   5.443   9.073  17.466 -0.2038  0.0817  0.1319
23354W        W66448   5.076   8.489  17.934 -0.0609 -0.3513  0.0734
23355W        W66449   6.695   9.166  18.249 -0.0308  0.3111 -0.1277
23356W        W66450   6.390   9.506  16.817  0.2273 -0.2189  0.2537
23357W        W66451   5.805   7.770  19.020 -0.1279 -0.0238 -0.3439
23358W        W66452   5.277   7.060  19.192  0.1193 -0.2572 -0.0310
23359W        W66453   7.384  10.373  18.283  0.3887  0.0130  0.1650
23360W        W66454   3.055   8.449  19.099  0.4810  0.2652 -0.2051
23361W        W66455   7.331  10.436  20.218 -0.4234 -0.1065  0.3793
23362W        W66456   3.760   9.750  19.255 -0.3567  0.0580  0.2205
23363W        W66457   5.144   8.103  17.214  0.0830  0.0607  0.0346
23364W        W66458   4.929   8.371  16.477 -0.0199  0.1160  0.1417
23365W        W66459   4.884   9.355  17.996  0.1163 -0.2578  0.0353
23366W        W66460   6.307   9.503  18.559  0.1139 -0.2570  0.1277
23367W        W66461   4.816  10.616  17.325  0.0299 -0.2026  0.1049
23368W        W66462   7.192   8.663  18.547 -0.0174  0.1056  0.0974
23369W        W66463   3.451  11.337  19.910 -0.2501 -0.1133 -0.0497
23370W        W66464   7.076   8.360  17.719  0.1718  0.2077 -0.1899
23371W        W66465   5.835   9.194  17.863  0.3042  0.0666 -0.2082
23372W        W66466   3.037  10.742  18.246 -0.0201  0.0358 -0.1300
23373W        W66467   5.398   7.325  17.290  0.2309 -0.3715  0.2546
23374W        W66468   6.957   9.374  18.653  0.0966 -0.2428  0.1101
23375W        W66469   5.929   8.893  16.381  0.2436  0.2292  0.0830
23376W        W66470   6.764   8.594  19.892  0.4637  0.0925 -0.2409
23377W        W66471   4.996   9.477  19.667  0.1563  0.3026  0.2309
23378W        W66472   4.843   9.139  20.804  0.0953 -0.3205  0.0778
23379W        W66473   4.490   9.054  18.372  0.1446 -0.2492 -0.0558
23380W        W66474   7.020  11.312  18.628 -0.3205  0.0361 -0.0336
23381W        W66475   4.894   7.434  16.379 -0.1329 -0.3264  0.1531
23382W        W66476   7.134   8.966  18.155  0.1029  0.0103  0.0369
23383W        W66477   6.830   9.273  17.729  0.0990 -0.2050 -0.0749
23384W        W66478   4.481   7.523  16.108  0.1669 -0.0616 -0.4779
23385W        W66479   3.369   9.190  19.551  0.0267  0.2232 -0.2378
23386W        W66480   5.177   9.161  20.198  0.2189 -0.1066  0.2595
23387W        W66481   4.188   7.999  16.181  0.0422 -0.4963  0.0569
23388W        W66482   6.590   9.734  20.310 -0.2557 -0.0829  0.0577
23389W        W66483   5.506   9.723  16.790  0.1047  0.1570  0.0844
23390W        W66484   5.637  10.447  18.113 -0.2474  0.0431 -0.0080
23391W        W66485   5.960   8.179  17.112  0.2428  0.1517  0.2280
23392W        W66486   3.624   9.903  18.748 -0.1028  0.2060  0.0041
23393W        W66487   3.903   9.668  18.126  0.1552 -0.2608  0.1912
23394W        W66488   2.881   7.769  16.176  0.3640  0.0688 -0.1883
23395W        W66489   3.101   9.235  16.873  0.2285  0.2698 -0.0257
23396W        W66490   5.669   8.879  18.269  0.0170  0.1468 -0.1207
23397W        W66491   6.673   8.035  19.776 -0.1441  0.0252 -0.0200
23398W        W66492   6.835   7.801  18.258 -0.0556  0.2163 -0.2154
23399W        W66493   6.393   8.243  20.241 -0.3555 -0.0300 -0.1922
23400W        W66494   4.338  10.664  17.186  0.1330 -0.3952 -0.0154
23401W        W66495   4.593   7.955  19.867  0.0623 -0.2964  0.0495
23402W        W66496   3.573  11.129  18.980 -0.1146  0.2153  0.0394
23403W        W66497   4.221  10.409  19.081  0.2048  0.1350 -0.1644
23404W        W66498   4.170  10.350  16.844  0.1446 -0.0043  0.3313
23405W        W66499   6.651   7.493  17.211  0.2275 -0.0968 -0.3129
23406W        W66500   3.748   8.796  17.173  0.0087 -0.4122  0.0948
23407W        W66501   4.929   8.552  16.945 -0.1092  0.1837  0.0369
23408W        W66502   5.564   8.356  19.688  0.2439 -0.1669 -0.3630
23409W        W66503   5.515  10.130  19.403 -0.0899 -0.1544  0.0104
23410W        W66504   3.413   9.573  17.884 -0.0218  0.0444 -0.0796
23411W        W66505   5.534  10.219  18.715  0.0020  0.1782 -0.0631
23412W        W66506   7.802   8.530  17.530 -0.1247 -0.1138  0.0284
23413W        W66507   2.702   9.531  20.074 -0.1221 -0.0183 -0.2710
23414W        W66508   3.560   8.454  20.045 -0.2198  0.1361  0.0117
23415W        W66509   4.682  10.173  19.008 -0.1171  0.2655  0.2348
23416W        W66510   5.436   9.377  18.094  0.1168 -0.1316  0.1027
23417W        W66511   4.073   7.350  17.467 -0.1341  0.0368  0.1638
23418W        W66512   5.437  10.000  16.419  0.1075 -0.1763  0.1200
23419W        W66513   4.135  11.167  20.689 -0.0521 -0.2175  0.1928
23420W        W66514   4.196   8.008  18.476  0.1390  0.3301  0.1641
23421W        W66515   3.867  10.369  17.374 -0.0879 -0.2584  0.3739
23422W        W66516   6.449   9.917  15.919 -0.0456 -0.1187  0.2509
23423W        W66517   6.565  10.001  17.371  0.2638 -0.0527 -0.4966
23424W        W66518   6.545  11.545  18.872  0.0512 -0.2254 -0.0417
23425W        W66519   5.093   8.701  16.150  0.0470  0.0987 -0.2806
23426W        W66520   5.036  10.154  18.613  0.0278 -0.1755 -0.0794
23427W        W66521   3.712  10.885  16.521  0.0571  0.2267 -0.0091
23428W        W66522   6.840  10.049  16.784  0.0185  0.0500 -0.3927
23429W        W66523   3.832   9.344  17.769 -0.1988 -0.1206  0.1728
23430W        W66524   6.383  11.072  19.227 -0.0077 -0.2837  0.2814
23431W        W66525   6.400   7.491  16.269  0.2364  0.2418 -0.1035
23432W        W66526   6.215  10.054  17.038  0.2152  0.0775  0.0925
23433W        W66527   6.226   8.337  16.501 -0.2547  0.0355  0.0605
23434W        W66528   6.036   9.931  18.619  0.1111 -0.0205 -0.1270
23435W        W66529   4.405   8.715  18.008  0.2132 -0.0287  0.0892
23436W        W66530   5.088   6.581  16.502 -0.3748  0.1397  0.1220
23437W        W66531   3.900   8.852  17.946  0.1378 -0.0412  0.0623
23438W        W66532   7.110   7.003  19.970  0.1434  0.0537  0.0961
23439W        W66533   4.045   9.652  20.531 -0.0098 -0.0154 -0.2270
23440W        W66534   7.291   9.388  17.938 -0.0534 -0.0626 -0.0973
23441W        W66535   4.264   7.899  15.706 -0.0052 -0.1859 -0.0945
23442W        W66536   4.701   9.242  16.300  0.0742  0.4328 -0.6733
23443W        W66537   5.150   6.124  19.308  0.1263 -0.2820  0.1151
23444W        W66538   3.235   9.692  16.484  0.0349 -0.0450 -0.0765
23445W        W66539   5.223   8.961  17.971 -0.2623 -0.1852  0.2827
23446W        W66540   5.116  11.220  16.405  0.0966  0.1172 -0.0783
23447W        W66541   3.831  10.279  18.438 -0.1338 -0.1180 -0.0069
23448W        W66542   4.368   9.447  18.061 -0.0375 -0.3363  0.1641
23449W        W66543   3.378   7.549  15.677 -0.0238  0.2821 -0.0745
23450W        W66544   7.554   8.914  16.515 -0.1582 -0.0956 -0.0475
23451W        W66545   5.320   7.571  19.603  0.1118  0.0134 -0.1794
23452W        W66546   6.087   8.465  19.754 -0.0126 -0.2031 -0.0705
23453W        W66547   4.464   8.311  16.616  0.2860 -0.1314 -0.1620
23454W        W66548   7.182   7.740  16.553 -0.1314 -0.2493 -0.1574
23455W        W66549   5.456   9.869  18.136  0.2157  0.1106 -0.0980
23456W        W66550   5.451   9.658  19.424  0.0508 -0.0525 -0.1709
23457W        W66551   6.225   7.925  15.972 -0.3511  0.3934  0.2778
23458W        W66552   7.788   9.460  18.827  0.1758  0.1468  0.0931
23459W        W66553   5.409   8.384  16.378 -0.2368 -0.1967  0.0269
23460W        W66554   5.194  11.813  18.617 -0.0669  0.0752 -0.4287
23461W        W66555   2.932   8.177  16.555 -0.0577  0.0967 -0.0573
23462W        W66556   5.663   8.094  16.726  0.0077 -0.2017 -0.0285
23463W        W66557   4.012   9.180  18.333  0.0657  0.0237 -0.1585
23464W        W66558   3.277   9.694  19.490  0.1131 -0.2157  0.1373
23465W        W66559   6.563  10.856  19.713  0.0375  0.2510  0.0759
23466W        W66560   3.926   7.730  18.845  0.4084 -0.2004  0.3889
23467W        W66561   7.902   9.473  16.310 -0.2651  0.0709  0.1936
23468W        W66562   5.373   8.446  18.936 -0.0541 -0.1687  0.1008
23469W        W66563   4.405   9.450  15.840  0.2500 -0.0083 -0.1671
23470W        W66564   7.109   9.620  16.994 -0.0036 -0.1749  0.0423
23471W        W66565   6.679  10.703  18.981 -0.1772  0.0284 -0.0473
23472W        W66566   3.518   8.533  18.088  0.0007  0.1198 -0.2693
23473W        W66567   5.746  10.691  19.270 -0.4147  0.1202 -0.0633
23474W        W66568   6.795  10.729  17.675 -0.0367  0.0140  0.1401
23475W        W66569   6.675   7.100  17.626 -0.0020 -0.1239 -0.0634
23476W        W66570   4.175   9.725  17.731  0.0086  0.0102  0.1532
23477W        W66571   4.052   9.694  16.786  0.2626  0.2041 -0.2285
23478W        W66572   7.728   8.544  18.496  0.1755  0.2031  0.0768
23479W        W66573   5.914   9.576  18.273 -0.1027  0.1668 -0.0736
23480W        W66574   3.260  10.202  16.499 -0.0109  0.0257  0.1267
23481W        W66575   5.234   7.020  20.491  0.0360 -0.2881 -0.0522
23482W        W66576   4.995  11.378  20.380 -0.0114  0.0105 -0.1008
23483W        W66577   3.744  11.242  19.495  0.0048  0.1544 -0.0773
23484W        W66578   4.281   9.041  16.446 -0.0825 -0.0614 -0.1257
23485W        W66579   4.909  10.313  19.488 -0.0466 -0.1210  0.0271
23486W        W66580   4.936   9.544  16.605  0.4007  0.4345 -0.1704
23487W        W66581   5.378  10.433  15.960  0.2209 -0.1653 -0.1765
23488W        W66582   6.753  10.489  18.570 -0.0980 -0.1742 -0.1551
23489W        W66583   5.184   9.188  16.861  0.0608 -0.2000 -0.1505
23490W        W66584   7.744   9.899  18.206 -0.0360  0.0310 -0.2377
23491W        W66585   3.695   7.956  18.302  0.2689  0.0494  0.3558
23492W        W66586   7.737   6.959  18.094  0.1946 -0.1870 -0.0030
23493W        W66587   5.954   7.163  16.309 -0.0468 -0.0942 -0.0276
23494W        W66588   3.833  10.728  19.546 -0.0211  0.2937 -0.2195
23495W        W66589   3.133   9.966  17.670  0.1439 -0.2177 -0.2296
23496W        W66590   4.463   9.427  16.725  0.1069  0.1466  0.0916
23497W        W66591   3.446   9.974  19.880  0.0719  0.0393 -0.0592
23498W        W66592   5.639   7.233  19.601  0.0076  0.1110  0.0290
23499W        W66593   4.457   8.953  19.197 -0.1826 -0.2559 -0.0049
23500W        W66594   3.968   8.183  16.633  0.0258 -0.3023  0.2691
23501W        W66595   4.470   7.690  17.307 -0.1225 -0.2276  0.1859
23502W        W66596   6.241   8.565  17.169  0.3352  0.0361 -0.2503
23503W        W66597   4.196   8.942  18.811  0.0275 -0.1845 -0.0114
23504W        W66598   1.852   8.245  16.954  0.0740  0.2522 -0.0584
23505W        W66599   5.561  10.174  17.703 -0.1656  0.1684  0.0481
23506W        W66600   6.388  10.353  17.904  0.1864  0.1236 -0.0886
23507W        W66601   5.542   7.844  17.192 -0.0215 -0.0180  0.1633
23508W        W66602   6.211  10.795  18.828 -0.1506 -0.0281  0.0963
23509W        W66603   1.398   9.658  16.475 -0.1740 -0.0446 -0.3883
23510W        W66604   4.339   8.305  19.431  0.1609  0.1228  0.1559
23511W        W66605   4.923   7.579  18.596  0.2083 -0.0299 -0.1162
23512W        W66606   3.851   8.763  15.829 -0.0107 -0.1924  0.2618
23513W        W66607   4.131   7.949  17.038 -0.0537  0.0343 -0.1769
23514W        W66608   5.914  10.527  17.722  0.1831 -0.0835  0.3335
23515W        W66609   5.867  10.387  17.274 -0.2693 -0.0063  0.0164
23516W        W66610   5.108  10.363  18.162  0.1095  0.1294 -0.3154
23517W        W66611   4.436  10.473  20.762 -0.2128 -0.1230  0.1401
23518W        W66612   4.077   6.674  20.177 -0.0487 -0.0405 -0.2760
23519W        W66613   6.658   9.492  17.258  0.4096 -0.0450  0.0605
23520W        W66614   4.900  10.784  19.337 -0.2020  0.1910 -0.3606
23521W        W66615   6.734   9.111  16.852  0.1849 -0.4183  0.0454
23522W        W66616   5.931   7.373  18.663 -0.1716  0.0061  0.2798
23523W        W66617   5.550   8.857  16.095 -0.0983 -0.1829  0.0589
23524W        W66618   5.273   7.411  20.080  0.1815  0.0115 -0.0893
23525W        W66619   3.305  10.973  19.588  0.3651 -0.1485  0.1677
23526W        W66620   7.433   9.586  18.411  0.0264  0.1622 -0.1117
23527W        W66621   3.638   7.850  16.900  0.1313  0.0373  0.0624
23528W        W66622   5.130   8.676  17.432 -0.1811 -0.1985  0.1756
23529W        W66623   5.975   9.867  16.589 -0.2272 -0.3971  0.0868
23530W        W66624   3.438   8.987  17.698 -0.2333  0.1063 -0.0047
23531W        W66625   5.586   8.731  17.783 -0.4567  0.0312  0.2610
23532W        W66626   4.370  10.714  19.509  0.0117  0.0559  0.0072
23533W        W66627   3.781  10.649  18.856 -0.2712  0.1045  0.0802
23534W        W66628   5.745   8.844  19.622  0.1863  0.2939  0.0868
23535W        W66629   4.912   8.908  16.583 -0.1796 -0.2741 -0.0096
23536W        W66630   5.986  10.356  16.699 -0.2636  0.1981  0.0924
23537W        W66631   4.938  11.099  19.697  0.0085 -0.2129  0.0607
23538W        W66632   5.668  10.417  19.785 -0.0913  0.1297 -0.3252
23539W        W66633   5.116  12.277  18.764  0.1086 -0.0782 -0.2401
23540W        W66634   8.016   8.911  18.576 -0.3263  0.1549 -0.1506
23541W        W66635   4.852   6.472  19.153  0.1243 -0.1708  0.1642
23542W        W66636   3.483   9.251  17.213 -0.1179 -0.1012  0.1616
23543W        W66637   5.184   9.946  19.037 -0.2036  0.0329 -0.1458
23544W        W66638   4.643   8.459  17.415  0.3991  0.1674 -0.2329
23545W        W66639   3.355   8.479  17.490 -0.1803 -0.3453 -0.0090
23546W        W66640   6.151   6.741  16.099 -0.1414  0.2230 -0.1308
23547W        W66641   5.802  11.504  19.865  0.1069 -0.1484 -0.1783
23548W        W66642   4.153   9.393  19.589 -0.2114 -0.1207 -0.4167
23549W        W66643   4.213   9.652  22.862 -0.2984 -0.3469  0.0211
23550W        W66644   5.480  10.345  21.980 -0.0161  0.1737  0.1899
23551W        W66645   5.204   7.955  18.791  0.1044  0.3090  0.0169
23552W        W66646   7.137   8.783  20.223  0.0238  0.0308  0.1693
23553W        W66647   3.630   8.189  22.453 -0.1417  0.1049  0.0209
23554W        W66648   5.613  11.534  20.339 -0.0615  0.3022 -0.2026
23555W        W66649   3.972   7.354  23.596 -0.2829 -0.1440 -0.0230
23556W        W66650   6.076   8.832  21.003  0.0537  0.1264 -0.0583
23557W        W66651   7.663   8.429  22.456  0.1369  0.0781 -0.1257
23558W        W66652   7.517   9.220  19.231 -0.0619 -0.1375  0.1046
23559W        W66653   4.774   8.778  21.414 -0.3357  0.0933 -0.0929
23560W        W66654   4.504   9.525  20.864 -0.2044 -0.1735 -0.0593
23561W        W66655   6.050   7.424  21.132  0.2488 -0.1097  0.0341
23562W        W66656   3.251   6.643  22.267 -0.0021 -0.3655 -0.1289
23563W        W66657   5.938   9.430  23.642 -0.0567  0.0595 -0.2791
23564W        W66658   4.246   9.366  19.049  0.2203 -0.0229 -0.2234
23565W        W66659   4.610  10.141  21.437  0.1582  0.1112 -0.0897
23566W        W66660   4.519   8.235  20.863 -0.0571  0.1389  0.2929
23567W        W66661   5.311  10.134  20.741  0.1288 -0.1131 -0.0107
23568W        W66662   5.793   7.164  22.420  0.1520 -0.0029 -0.2152
23569W        W66663   5.933   6.908  22.847 -0.1051  0.4866  0.0627
23570W        W66664   5.173  11.887  21.079  0.0992  0.0242 -0.2079
23571W        W66665   3.742   9.563  19.815 -0.0219 -0.1933 -0.1120
23572W        W66666   3.225   9.392  21.662 -0.1524  0.0167 -0.1428
23573W        W66667   5.414   9.582  22.357  0.1038 -0.1019  0.0020
23574W        W66668   6.951   7.114  22.820 -0.0307  0.2333  0.1710
23575W        W66669   7.999   8.787  21.007  0.2174 -0.0822 -0.1670
23576W        W66670   4.895  10.384  22.830  0.1551 -0.1342 -0.0554
23577W        W66671   4.713   9.220  21.697 -0.0292 -0.1950  0.0663
23578W        W66672   6.185   8.060  23.925  0.0819  0.0074 -0.1640
23579W        W66673   4.352  10.370  22.034 -0.1409  0.1767  0.2146
23580W        W66674   3.357  11.502  21.572  0.2878  0.1770  0.1179
23581W        W66675   4.824  10.638  20.563 -0.5823  0.1697 -0.0511
23582W        W66676   5.898  10.724  20.539  0.0191  0.3773 -0.0960
23583W        W66677   6.281  10.013  21.142 -0.0638 -0.2899  0.1609
23584W        W66678   5.406  10.634  23.428 -0.4440 -0.1418 -0.0153
23585W        W66679   2.656  11.094  18.894  0.3661  0.2802 -0.0709
23586W        W66680   6.777  10.086  23.081 -0.3833  0.1840 -0.2064
23587W        W66681   4.856  11.989  23.163 -0.2192 -0.0549 -0.0892
23588W        W66682   4.716   9.354  20.373  0.0393  0.3481  0.1626
23589W        W66683   7.348   9.164  20.668  0.3193 -0.0765  0.0185
23590W        W66684   4.970  11.579  22.628 -0.0673  0.0477  0.1135
23591W        W66685   5.081  11.176  21.759 -0.0231 -0.0497 -0.2860
23592W        W66686   4.295   8.245  24.725 -0.3638  0.0873 -0.0217
23593W        W66687   3.858  11.522  21.614  0.2511  0.1795  0.1321
23594W        W66688   6.947   7.791  23.184 -0.2060 -0.1088  0.2331
23595W        W66689   3.897  10.103  19.691 -0.2313  0.0726  0.1622
23596W        W66690   8.322   8.693  19.465 -0.0354 -0.2647 -0.1564
23597W        W66691   4.423   7.308  21.913 -0.1524  0.0362  0.1155
23598W        W66692   6.824   8.866  18.778 -0.1238  0.0696  0.1962
23599W        W66693   4.162   7.239  19.925 -0.0325 -0.4739 -0.1315
23600W        W66694   4.236  10.400  21.221 -0.1057  0.1170  0.0881
23601W        W66695   5.445   8.123  22.108 -0.0921  0.0591  0.0055
23602W        W66696   7.008   9.215  21.815 -0.0912  0.1651  0.1869
23603W        W66697   5.052   9.904  21.141  0.1821 -0.2774 -0.2213
23604W        W66698   5.912   9.644  21.339 -0.0129 -0.2653 -0.0992
23605W        W66699   4.612  10.189  22.426  0.1180  0.1585 -0.1297
23606W        W66700   3.901   8.224  22.966 -0.0506  0.1770  0.2023
23607W        W66701   6.359   9.629  19.865  0.1285 -0.2517  0.0587
23608W        W66702   7.019   8.624  21.357  0.1229 -0.1308  0.0599
23609W        W66703   5.278  10.686  19.617  0.0766 -0.1515  0.2375
23610W        W66704   4.141   8.258  21.145 -0.0691  0.3007  0.0693
23611W        W66705   5.105   9.084  22.370  0.2621  0.0914  0.2170
23612W        W66706   4.703   7.924  22.656 -0.0869 -0.1210  0.0613
23613W        W66707   4.862   6.906  20.170 -0.0880 -0.0447  0.3704
23614W        W66708   7.928  10.101  23.752 -0.0056  0.2986  0.0831
23615W        W66709   3.622   9.824  23.284 -0.2752 -0.1651 -0.0172
23616W        W66710   6.760   6.826  21.345  0.1841 -0.4952 -0.1743
23617W        W66711   5.537   8.776  20.630  0.2012  0.1200  0.0100
23618W        W66712   6.792   9.151  23.373 -0.1293 -0.0603  0.1761
23619W        W66713   5.878   9.144  20.464  0.1272  0.2023  0.0445
23620W        W66714   6.342   7.109  21.584  0.0520  0.3205 -0.0384
23621W        W66715   6.102   8.085  22.427  0.0862  0.1999 -0.2680
23622W        W66716   4.497   8.693  20.471 -0.2999 -0.2032 -0.0534
23623W        W66717   4.672  11.105  20.611  0.2511 -0.0796  0.2638
23624W        W66718   6.644  11.466  20.377 -0.0392 -0.0344  0.3252
23625W        W66719   7.749   8.824  19.634  0.1306 -0.0534  0.0969
23626W        W66720   3.651   9.617  21.411  0.1591  0.0496 -0.4415
23627W        W66721   5.416   8.413  23.169  0.3557 -0.3022  0.1038
23628W        W66722   5.853  11.727  23.040 -0.0003  0.1957  0.2329
23629W        W66723   2.929  10.842  19.990 -0.0051  0.0478  0.4251
23630W        W66724   3.000  11.392  21.917  0.2358 -0.3393  0.3277
23631W        W66725   4.569   9.911  18.043  0.2677  0.2041  0.1553
23632W        W66726   3.699   6.438  22.156 -0.1895  0.0825 -0.0561
23633W        W66727   5.443  10.038  22.650 -0.1051 -0.0003 -0.3317
23634W        W66728   6.586   5.929  19.953  0.3390  0.1417  0.2907
23635W        W66729   3.968   7.848  22.194 -0.1961  0.3271  0.3625
23636W        W66730   6.969   8.987  20.936  0.0329  0.0003  0.0759
23637W        W66731   3.696   9.272  20.946  0.2630 -0.3518 -0.1185
23638W        W66732   6.225   7.877  20.846 -0.2292 -0.0414 -0.0851
23639W        W66733   7.229   8.812  19.140 -0.2167 -0.0812 -0.3704
23640W        W66734   5.158  11.945  21.586  0.0801  0.0612 -0.2065
23641W        W66735   4.504   7.685  22.289 -0.2491 -0.5411  0.0782
23642W        W66736   3.722   8.597  21.531  0.0471  0.4345  0.0513
23643W        W66737   5.811   8.483  22.155 -0.1091 -0.1341  0.0854
23644W        W66738   5.352   6.519  21.845  0.2021 -0.3603  0.1456
23645W        W66739   7.220   9.613  22.759 -0.0939  0.0626  0.0736
23646W        W66740   3.488   6.688  18.997  0.1952  0.1905 -0.1411
23647W        W66741   6.180   8.664  21.695 -0.0293 -0.0691  0.0365
23648W        W66742   4.120   8.928  21.785  0.1947 -0.2339 -0.2538
23649W        W66743   3.270   8.864  21.650  0.1226 -0.0344  0.1869
23650W        W66744   8.040   6.765  23.035 -0.2550 -0.1102 -0.1133
23651W        W66745   5.978   9.299  19.557  0.3567  0.1811  0.2469
23652W        W66746   6.406   9.186  20.826 -0.0798 -0.1789 -0.0012
23653W        W66747   8.009  11.146  21.558  0.1244  0.0834 -0.0793
23654W        W66748   4.209   7.983  22.600 -0.0441 -0.1856  0.0339
23655W        W66749   3.780   9.094  19.845 -0.1655  0.1175  0.2928
23656W        W66750   4.296  10.473  22.773  0.1388  0.0742 -0.0643
23657W        W66751   5.357   9.301  20.681  0.0281 -0.0905  0.0398
23658W        W66752   4.820   7.922  20.632 -0.0412  0.0327 -0.0155
23659W        W66753   5.766   8.793  22.625  0.0618 -0.2361  0.2861
23660W        W66754   4.771   8.993  19.964 -0.0420  0.1954 -0.0874
23661W        W66755   5.921   9.408  22.630 -0.1129 -0.1144  0.1743
23662W        W66756   7.471   7.828  22.919  0.0666  0.0436 -0.0436
23663W        W66757   7.441   9.459  22.060  0.1597 -0.0693  0.0560
23664W        W66758   7.492   9.562  20.381 -0.0484 -0.0074 -0.0474
23665W        W66759   3.536   7.520  18.654 -0.2821  0.3743  0.3190
23666W        W66760   5.389   9.913  21.500 -0.0114  0.1257  0.5397
23667W        W66761   3.379   9.764  20.897 -0.2758  0.0007  0.1723
23668W        W66762   3.537   8.591  22.933 -0.0609  0.4765  0.2432
23669W        W66763   4.862  10.409  21.059  0.1265  0.0420 -0.1404
23670W        W66764   8.297   7.966  19.974  0.1916 -0.1529  0.0710
23671W        W66765   4.156   8.905  23.474 -0.1026  0.1261  0.1944
23672W        W66766   6.838   7.855  21.489 -0.2228  0.1846 -0.0117
23673W        W66767   4.583  10.363  20.218 -0.3319 -0.1716  0.0606
23674W        W66768   4.821  10.720  22.349  0.4318 -0.0817  0.0843
23675W        W66769   6.984   7.654  22.028  0.0633  0.1777  0.2215
23676W        W66770   6.952   7.552  19.995 -0.0366 -0.0145  0.0114
23677W        W66771   5.593   9.968  24.006  0.1842 -0.0168  0.0225
23678W        W66772   7.240   8.704  19.589  0.0798  0.1510  0.0748
23679W        W66773   5.790   7.859  19.650  0.1261 -0.2036  0.3040
23680W        W66774   6.314   8.642  18.898 -0.0111 -0.2662  0.0568
23681W        W66775   4.557   8.406  23.923  0.1250  0.0174 -0.0233
23682W        W66776   5.470  11.098  20.522 -0.1222 -0.0370 -0.1065
23683W        W66777   6.335   9.515  22.915  0.0730 -0.1925  0.0695
23684W        W66778   5.248   8.101  19.309 -0.1017  0.0690  0.0654
23685W        W66779   5.537  10.115  20.239 -0.2799 -0.1653  0.2035
23686W        W66780   5.628   8.277  22.620  0.2168  0.1422  0.0171
23687W        W66781   6.196  10.475  22.724 -0.0047 -0.2565  0.2516
23688W        W66782   4.598  10.826  21.179 -0.4086 -0.1036  0.2156
23689W        W66783   6.198   7.563  22.378 -0.0603 -0.1552 -0.0941
23690W        W66784   4.623   9.411  19.365  0.1058 -0.1540 -0.0994
23691W        W66785   5.040   8.764  20.490 -0.1170  0.1065 -0.0918
23692W        W66786   5.175  11.463  19.445 -0.1731 -0.2922  0.0582
23693W        W66787   7.888   8.166  22.854  0.2762 -0.1138  0.0352
23694W        W66788   6.639   8.651  22.641  0.1653 -0.0966 -0.5288
23695W        W66789   5.782   7.143  23.396  0.0884 -0.1821  0.0642
23696W        W66790   6.157   8.668  24.585  0.3827 -0.1579 -0.1180
23697W        W66791   7.048   9.584  20.169  0.0961 -0.1791 -0.1888
23698W        W66792   6.083   8.906  22.207  0.2517 -0.0123 -0.0024
23699W        W66793   5.079   8.092  21.620  0.2045 -0.0211  0.2922
23700W        W66794   6.227   7.381  23.429  0.4507  0.0840  0.0528
23701W        W66795   6.238   8.978  22.695  0.1706 -0.2942 -0.1761
23702W        W66796   3.560  11.010  22.159  0.0530 -0.2834 -0.0561
23703W        W66797   5.811   9.529  22.013 -0.1688  0.0680  0.0566
23704W        W66798   6.739   8.802  20.506  0.0071  0.1219  0.0244
23705W        W66799   6.739   8.607  23.673  0.3017  0.3050  0.1213
23706W        W66800   4.634   7.345  20.027  0.3912 -0.1811 -0.1483
23707W        W66801   4.901  11.559  21.454  0.0402 -0.0036  0.0834
23708W        W66802   5.491  11.985  20.104  0.2309  0.3354  0.0439
23709W        W66803   5.065   8.267  22.698  0.1676  0.1697  0.0555
23710W        W66804   6.231   9.804  21.892  0.1569  0.2043  0.0672
23711W        W66805   4.154   9.957  21.490 -0.3496 -0.2896 -0.0340
23712W        W66806   5.458   8.394  24.295  0.0769  0.0905  0.3380
23713W        W66807   4.422   9.993  20.990  0.0164  0.0696  0.1158
23714W        W66808   7.391   6.579  22.560  0.1394  0.1547  0.0143
23715W        W66809   3.933  10.688  22.087  0.2252 -0.3679 -0.1063
23716W        W66810   3.768   9.307  20.333 -0.0278  0.1876 -0.1456
23717W        W66811   3.185   8.474  22.518 -0.1992  0.2492  0.1926
23718W        W66812   6.369   7.698  21.411 -0.3169 -0.1575  0.2918
23719W        W66813   6.365   9.250  20.353 -0.1301 -0.0491  0.1430
23720W        W66814   4.628   7.159  22.431  0.3970  0.0448  0.2174
23721W        W66815   5.833   9.036  21.737  0.0068 -0.1269  0.2088
23722W        W66816   3.454  11.941  21.761 -0.0345  0.2182  0.5159
23723W        W66817   6.737   9.147  22.872  0.0030 -0.1931  0.0230
23724W        W66818   6.181   8.179  18.898 -0.0942  0.0614 -0.1677
23725W        W66819   6.302   9.876  23.299 -0.3704  0.1068  0.1238
23726W        W66820   4.941   8.092  24.056  0.1517  0.0153 -0.0032
23727W        W66821   3.228   8.617  20.583 -0.2719  0.1673  0.2148
23728W        W66822   6.915   8.450  22.253 -0.1200  0.0893 -0.0809
23729W        W66823   4.915   9.353  21.210 -0.0436 -0.3321  0.1449
23730W        W66824   2.868  10.097  19.358  0.1511 -0.0770  0.3939
23731W        W66825   5.590   9.023  22.205 -0.1905 -0.0317  0.0088
23732W        W66826   4.129   8.539  20.737  0.1016 -0.0568 -0.2122
23733W        W66827   3.621   9.766  20.407  0.1464 -0.2858  0.0565
23734W        W66828   3.657   8.119  24.130  0.0418 -0.3899  0.0718
23735W        W66829   6.440   9.477  23.546 -0.2701 -0.0114  0.2128
23736W        W66830   6.745   8.072  23.887 -0.0382 -0.1050 -0.3012
23737W        W66831   5.725   8.823  21.289  0.4083 -0.1304 -0.0650
23738W        W66832   6.581   9.095  21.392  0.1341  0.0967 -0.2372
23739W        W66833   6.267   9.317  21.861 -0.0908  0.1296  0.0569
23740W        W66834   6.619   6.988  22.075 -0.0524 -0.2350 -0.2340
23741W        W66835   5.482   9.231  22.675  0.3081  0.1751  0.0400
23742W        W66836   5.514   7.867  21.599  0.2752 -0.0095 -0.0102
23743W        W66837   8.655  10.118  20.093  0.1640  0.1242  0.1070
23744W        W66838   5.438   9.486  23.135 -0.1861 -0.3771 -0.0539
23745W        W66839   4.789   8.658  19.503  0.0678  0.0068  0.0476
23746W        W66840   2.866   9.296  22.906 -0.2777  0.0649 -0.2471
23747W        W66841   4.453   9.850  20.449  0.1497 -0.1120  0.1899
23748W        W66842   6.156   7.783  23.068 -0.1878  0.0082  0.1242
23749W        W66843   3.768  10.214  22.112 -0.0445 -0.2112 -0.1534
23750W        W66844   4.771  10.610  19.850 -0.1523  0.1045  0.3195
23751W        W66845   3.125  11.991  22.750  0.0944 -0.1094 -0.0009
23752W        W66846   6.687   6.397  20.452 -0.0696  0.0184 -0.4327
23753W        W66847   4.835   9.847  19.384 -0.2906  0.2457 -0.1823
23754W        W66848   4.982   8.261  21.108 -0.1574 -0.0677  0.0328
23755W        W66849   7.613   9.695  22.478  0.0149 -0.1049 -0.2795
23756W        W66850   6.364   9.125  19.805 -0.2963  0.1652 -0.2271
23757W        W66851   6.744   7.796  24.841  0.3395  0.2317 -0.0861
23758W        W66852   5.761   7.719  22.679  0.1959  0.0910  0.3314
23759W        W66853   5.766  10.053  21.010 -0.1706  0.0482  0.1054
23760W        W66854   5.035   6.429  22.705 -0.0737 -0.0792 -0.1098
23761W        W66855   6.372   9.034  23.751 -0.0580  0.4196 -0.4647
23762W        W66856   5.297   8.767  22.739  0.0396 -0.0698 -0.2654
23763W        W66857   5.476   8.204  21.215  0.2659 -0.2418  0.1518
23764W        W66858   4.010   7.428  21.043 -0.1559 -0.0453 -0.0010
23765W        W66859   4.934   9.731  21.620 -0.2206 -0.2047  0.1055
23766W        W66860   5.777   9.960  22.245  0.0279  0.1597  0.1956
23767W        W66861   5.108  10.936  20.170  0.0243  0.0135 -0.1283
23768W        W66862   7.088   9.561  20.814 -0.0282  0.1973  0.2282
23769W        W66863   4.524   9.119  22.446 -0.3851  0.0157 -0.5319
23770W        W66864   6.864   8.344  20.295 -0.2040  0.0260  0.1943
23771W        W66865   5.266   8.174  20.700  0.1433  0.0617  0.2719
23772W        W66866   4.814  10.100  20.645  0.0984 -0.3748 -0.3090
23773W        W66867   4.817   7.130  23.319  0.1498  0.0904  0.0200
23774W        W66868   6.667  10.426  21.267 -0.1098 -0.3735 -0.2816
23775W        W66869   6.371   8.537  20.694  0.2583  0.3872  0.2066
23776W        W66870   6.122   8.468  22.749  0.0731  0.1202  0.0994
23777W        W66871   6.089   7.308  21.991  0.1236 -0.1582 -0.1728
23778W        W66872   4.726   8.396  24.437 -0.0670 -0.1693  0.2778
23779W        W66873   4.632   7.585  23.218 -0.0697  0.3547 -0.0384
23780W        W66874   5.990  10.961  21.346 -0.0510 -0.1710  0.0532
23781W        W66875   7.593   8.368  19.455 -0.0654 -0.2546  0.1967
23782W        W66876   6.662   7.987  22.446 -0.0121 -0.1366  0.0393
23783W        W66877   6.595   8.173  21.164  0.2739  0.2278 -0.0716
23784W        W66878   5.649   8.825  20.123 -0.0823 -0.0518 -0.1417
23785W        W66879   4.521   8.363  22.789  0.0748 -0.3595  0.0017
23786W        W66880   7.309   9.426  23.205  0.2512 -0.3734 -0.5686
23787W        W66881   3.952   6.790  19.235 -0.0509  0.0305 -0.1964
23788W        W66882   7.408   9.145  22.775 -0.0421  0.3268  0.3335
23789W        W66883   4.679  10.038  19.826 -0.2072 -0.1364 -0.0613
23790W        W66884   6.409   9.623  21.420  0.2275 -0.0786 -0.3096
23791W        W66885   6.097   8.320  21.086  0.3766 -0.0593 -0.0699
23792W        W66886   4.453   7.307  21.313 -0.1340 -0.0417  0.0978
23793W        W66887   5.072   9.570  23.518  0.0891  0.2050  0.0615
23794W        W66888   1.934   9.167  21.416 -0.0230 -0.0031 -0.2007
23795W        W66889   4.088  11.169  21.186 -0.0783  0.1791  0.1840
23796W        W66890   5.357   8.537  21.657  0.0800 -0.3159 -0.1318
23797W        W66891   7.127   9.734  22.275 -0.2066 -0.2688  0.0923
23798W        W66892   6.546   6.133  19.111 -0.0813 -0.0655 -0.3393
23799W        W66893   5.537   8.970  23.121 -0.0647 -0.1485  0.2548
23800W        W66894   2.792   9.574  20.580 -0.1841 -0.2017 -0.1452
23801W        W66895   5.527   7.514  21.253  0.0048 -0.2448 -0.3883
23802W        W66896   3.420  12.312  22.159 -0.0463  0.2082 -0.3136
23803W        W66897   3.926   9.470  23.222 -0.2051  0.4741 -0.1548
23804W        W66898   4.188  10.399  19.913  0.1027 -0.1034  0.0784
23805W        W66899   6.435   8.453  22.082  0.0895  0.1226  0.0224
23806W        W66900   5.923   7.880  21.234 -0.3374  0.2615 -0.3009
23807W        W66901   6.905   9.493  21.274  0.0286 -0.0295  0.0710
23808W        W66902   7.104   7.727  22.597 -0.3362 -0.1550 -0.2200
23809W        W66903   4.933   8.665  23.099  0.2680 -0.1971 -0.3840
23810W        W66904   5.286   9.384  21.857  0.2458 -0.2375 -0.2696
23811W        W66905   5.360  10.491  22.865  0.0570 -0.1654 -0.2794
23812W        W66906   6.816   9.009  19.518 -0.2305  0.1302  0.3283
23813W        W66907   5.880   9.321  20.945 -0.0146 -0.0725  0.3981
23814W        W66908   4.790   8.703  22.570 -0.1212  0.0010 -0.2460
23815W        W66909   5.580  10.101  23.101  0.0180  0.1769 -0.2430
23816W        W66910   6.299   8.174  21.589 -0.1146 -0.0984  0.0982
23817W        W66911   5.810   7.125  21.465 -0.1915 -0.0696  0.2572
23818W        W66912   5.382  11.501  20.775  0.0850  0.1958  0.0819
23819W        W66913   4.099   9.979  24.060  0.0040 -0.0459  0.1789
23820W        W66914   4.908   8.312  23.574 -0.0233  0.0793  0.1588
23821W        W66915   3.522  11.499  21.113 -0.0471 -0.0017  0.0140
23822W        W66916   5.896   9.450  20.031  0.3467  0.0960  0.1110
23823W        W66917   5.168  10.853  21.200 -0.0731  0.3237  0.0879
23824W        W66918   6.437  11.849  23.082 -0.2347  0.2485 -0.6307
23825W        W66919   4.271   7.822  21.790 -0.0756  0.1031  0.1201
23826W        W66920   3.472  11.548  22.081  0.0634 -0.0072  0.0237
23827W        W66921   2.169  11.184  19.965 -0.0752 -0.0311 -0.2437
23828W        W66922   6.249   8.776  19.409 -0.0300 -0.1369 -0.0174
23829W        W66923   4.686  11.942  21.176  0.0911  0.4904 -0.3071
23830W        W66924   6.992   9.981  20.517  0.3366 -0.1439 -0.2861
23831W        W66925   6.643   6.960  19.506 -0.1103  0.3473 -0.1268
23832W        W66926   7.533   8.793  21.199 -0.0122  0.3052 -0.1605
23833W        W66927   7.081   7.932  20.333 -0.1674 -0.1681 -0.0967
23834W        W66928   7.510  10.012  21.199 -0.1457 -0.0662 -0.0649
23835W        W66929   5.217   8.896  21.076 -0.3574 -0.1994  0.1331
23836W        W66930   5.674   7.223  20.395  0.2268 -0.2201  0.3252
23837W        W66931   4.965   8.648  24.005 -0.0903 -0.1792  0.2939
23838W        W66932   7.055   6.771  23.221  0.2386  0.0578 -0.0583
23839W        W66933   4.552  11.629  22.917  0.3915 -0.1611 -0.2294
23840W        W66934   7.501  12.018  22.060  0.3254  0.2346 -0.3487
23841W        W66935   3.635   8.399  21.108 -0.1614 -0.2396 -0.2118
23842W        W66936   4.278   9.142  20.195  0.0815 -0.0606  0.1190
23843W        W66937   7.669   7.399  23.142 -0.1611  0.0749 -0.0272
23844W        W66938   4.629  11.012  20.133 -0.3161 -0.2111  0.1107
23845W        W66939   6.482   8.638  21.257 -0.0160  0.1782 -0.0008
23846W        W66940   5.247  10.765  22.033 -0.1587 -0.0562  0.4229
23847W        W66941   4.978   9.890  22.448  0.0154 -0.0488 -0.1704
23848W        W66942   5.105  10.272  23.268 -0.2356 -0.2996 -0.0384
23849W        W66943   4.598   8.168  21.380 -0.1929 -0.0939  0.2645
23850W        W66944   6.964   8.469  20.873 -0.1641 -0.1059  0.1891
23851W        W66945   6.255   8.545  23.675  0.2397  0.0566  0.3003
23852W        W66946   7.176   7.264  22.245  0.0049  0.2042  0.2549
23853W        W66947   4.491   9.692  22.402  0.0911  0.0646  0.0517
23854W        W66948   5.724   7.582  20.778  0.0210 -0.0704  0.1216
23855W        W66949   6.259   9.448  22.321  0.0455 -0.2070 -0.2640
23856W        W66950   5.100   8.932  21.785  0.0657 -0.2762  0.3880
23857W        W66951   5.498   9.241  19.757 -0.1350  0.0180  0.1549
23858W        W66952   7.121   9.189  22.332 -0.0890  0.1787  0.3423
23859W        W66953   4.491   8.425  19.934 -0.2203  0.1432  0.0808
23860W        W66954   7.024  11.687  23.481 -0.0361  0.2129  0.0926
23861W        W66955   4.258   6.932  21.059  0.2340  0.3802 -0.0754
23862W        W66956   5.920   8.630  18.610 -0.3422  0.1057  0.0965
23863W        W66957   4.348   9.186  21.212 -0.1098  0.0820 -0.0463
23864W        W66958   4.892   8.062  23.110 -0.0037 -0.0020 -0.0019
23865W        W66959   6.575   9.044  22.290  0.1069  0.0046  0.0784
23866W        W66960   3.379   7.900  21.375 -0.1516  0.2222 -0.3151
23867W        W66961   7.224   9.678  18.919  0.1264  0.1303  0.0834
23868W        W66962   6.381   8.884  23.276 -0.3405  0.3502 -0.3453
23869W        W66963   4.513   9.635  21.402 -0.0869  0.2347 -0.1050
23870W        W66964   7.572   8.758  20.670 -0.0381 -0.1917 -0.1212
23871W        W66965   5.693  10.589  21.218 -0.0988  0.0590  0.2755
23872W        W66966   3.184   8.281  23.139  0.0891 -0.2115 -0.2445
23873W        W66967   6.140  10.249  22.175 -0.0388 -0.0699 -0.0161
23874W        W66968   7.026  10.524  20.617  0.0545 -0.0979  0.0849
23875W        W66969   6.359   7.613  19.962  0.1421  0.1063  0.0297
23876W        W66970   4.326   8.601  21.460 -0.1114 -0.0863 -0.0796
23877W        W66971   4.972  11.230  20.951 -0.0067  0.2358  0.1488
23878W        W66972   7.398   7.019  20.475  0.0909 -0.1108 -0.0008
23879W        W66973   7.499   7.109  22.779  0.0101  0.0709  0.1200
23880W        W66974   4.410  12.419  21.321  0.0288 -0.0859  0.0002
23881W        W66975   7.178   7.203  23.341 -0.0475 -0.2118 -0.0842
23882W        W66976   6.170  10.873  23.250  0.1345  0.1035 -0.0029
23883W        W66977   5.829  10.569  23.078 -0.4162 -0.0347 -0.0362
23884W        W66978   4.770   8.163  19.213  0.0474  0.0842 -0.1186
23885W        W66979   5.910   8.223  23.532  0.0054  0.4311 -0.1769
23886W        W66980   5.012   9.637  20.721 -0.0155  0.0855  0.0642
23887W        W66981   4.045  12.055  21.487 -0.0181  0.1160 -0.1588
23888W        W66982   5.636  10.991  20.964  0.0743  0.2755  0.0229
23889W        W66983   5.476   7.814  20.389  0.0509 -0.0509 -0.0047
23890W        W66984   7.509  10.379  20.826 -0.0900  0.2396 -0.1543
23891W        W66985   5.141   7.796  21.123 -0.0277  0.0337  0.0765
23892W        W66986   7.006   6.221  19.953  0.0035  0.0658 -0.1723
23893W        W66987   4.942   8.307  20.299  0.0691  0.2990  0.2057
23894W        W66988   5.178  10.334  22.337 -0.0479 -0.1756  0.1384
23895W        W66989   4.148   9.786  20.049  0.2651 -0.1884 -0.2133
23896W        W66990   3.078   9.795  18.649  0.2583 -0.0855  0.0261
23897W        W66991   3.765  10.446  20.109  0.2832  0.5825 -0.2353
23898W        W66992   6.232   6.921  22.366  0.2753  0.2241  0.1852
23899W        W66993   5.724   6.645  22.171  0.0327  0.1168 -0.0150
23900W        W66994   5.229   8.597  22.180  0.0070  0.0486  0.0679
23901W        W66995   4.659   8.723  20.968  0.0139  0.3632 -0.2300
23902W        W66996   7.287   8.373  20.527  0.0759 -0.3599 -0.1036
23903W        W66997   4.456   7.457  19.546  0.0631  0.2305 -0.2438
23904W        W66998   3.284   7.417  21.442 -0.3095 -0.3261 -0.0423
23905W        W66999   5.712  10.881  22.113  0.3663  0.2749 -0.0327
23906W        W67000   6.083  10.213  20.609  0.0465  0.0471  0.3111
23907W        W67001   4.776   8.421  21.773 -0.1145 -0.2865 -0.0905
23908W        W67002   7.978  10.280  22.758  0.2560  0.1708  0.1138
23909W        W67003   4.326   9.294  22.055 -0.0566  0.0223 -0.1392
23910W        W67004   6.378   7.821  23.492 -0.0576  0.0407 -0.0123
23911W        W67005   5.589   7.998  24.056 -0.1876 -0.0823  0.1211
23912W        W67006   3.609   7.819  20.541 -0.0190 -0.0811 -0.1115
23913W        W67007   5.676   7.572  22.183  0.0011 -0.0789 -0.2922
23914W        W67008   5.705   9.770  20.553  0.3057  0.2349 -0.0890
23915W        W67009   5.843  11.967  20.432  0.0374 -0.0849  0.2536
23916W        W67010   5.497  10.935  23.045  0.2958 -0.0591  0.3860
23917W        W67011   5.706  10.203  24.455  0.0722 -0.2278  0.0708
23918W        W67012   2.556   5.916  22.795 -0.0958  0.2130  0.1162
23919W        W67013   6.076   9.981  20.140 -0.1805 -0.0837 -0.2182
23920W        W67014   4.825   9.474  22.694  0.2330 -0.0397  0.1563
23921W        W67015   8.093   8.454  19.870  0.1489 -0.0422 -0.1289
23922W        W67016   7.694   8.241  21.951  0.0896 -0.2262 -0.1489
23923W        W67017   6.610   7.882  20.561 -0.0042 -0.1455 -0.4445
23924W        W67018   5.102   7.513  23.360  0.0101 -0.3775  0.0789
23925W        W67019   5.431   8.455  23.746  0.1433 -0.0230  0.0750
23926W        W67020   8.459  10.077  22.929 -0.1930 -0.1912  0.3993
23927W        W67021   5.488   9.665  20.996  0.0755  0.1437  0.1944
23928W        W67022   7.467   5.634  21.505 -0.1232 -0.1218 -0.2573
23929W        W67023   6.114  10.528  19.991  0.0435  0.0994 -0.3423
23930W        W67024   3.709   9.382  22.798 -0.2282 -0.2648 -0.1554
23931W        W67025   4.396   7.450  20.762 -0.3657 -0.1849  0.1840
23932W        W67026   6.621   6.490  22.081 -0.0456 -0.1222  0.0616
23933W        W67027   6.633  10.818  20.704 -0.2444  0.0777 -0.3027
23934W        W67028   5.902   9.673  23.125 -0.3479 -0.0561  0.1197
23935W        W67029   3.920   8.511  19.674 -0.3728  0.2951 -0.0011
23936W        W67030   7.634   9.053  20.186  0.2681  0.1167  0.1447
23937W        W67031   6.281  11.034  21.897  0.0312 -0.3561 -0.1936
23938W        W67032   6.489  10.500  21.853 -0.1203 -0.3392  0.0890
23939W        W67033   6.558  10.074  22.187 -0.0372  0.1451  0.1783
23940W        W67034   6.940   9.986  21.150 -0.0534  0.1481 -0.4223
23941W        W67035   5.303   7.867  22.543  0.3021  0.0403 -0.0702
23942W        W67036   3.313   8.787  21.118 -0.1737  0.0851  0.0202
23943W        W67037   6.103   9.188  21.339 -0.3366  0.3410  0.1473
23944W        W67038   6.805   7.378  21.351 -0.0428 -0.0466 -0.0932
23945W        W67039   3.345   8.360  21.791 -0.3706 -0.0067  0.3315
23946W        W67040   5.817   8.100  20.660 -0.1441 -0.0236 -0.1625
23947W        W67041   6.093  11.764  22.053  0.0527 -0.3970  0.4794
23948W        W67042   5.988   9.172  23.124 -0.0430  0.3316 -0.1509
23949W        W67043   5.891   9.747  24.425  0.2980  0.1202  0.0950
23950W        W67044   5.056   9.562  24.778 -0.3588  0.2378  0.0251
23951W        W67045   6.633   7.510  25.303 -0.0696  0.3811 -0.0357
23952W        W67046   5.778   9.497  26.536  0.0858  0.1058 -0.0774
23953W        W67047   3.714   7.811  25.824  0.1448 -0.3916  0.0546
23954W        W67048   7.177  10.654  23.197 -0.1586 -0.1945  0.0927
23955W        W67049   5.302   7.925  26.977 -0.0322  0.2233 -0.0643
23956W        W67050   7.373  10.648  23.717  0.2268  0.2207 -0.0521
23957W        W67051   6.851  10.917  25.022  0.0314  0.0517  0.0078
23958W        W67052   6.413   8.474  24.156  0.0507 -0.2884 -0.1585
23959W        W67053   4.970   8.562  26.899 -0.0226 -0.1224 -0.1837
23960W        W67054   5.440  10.248  26.216 -0.0711  0.2587 -0.0586
23961W        W67055   5.716   7.564  24.260  0.0203 -0.1868 -0.2611
23962W        W67056   4.049   7.011  25.490 -0.0350 -0.0343  0.0591
23963W        W67057   6.659   9.781  26.502 -0.1539 -0.0673  0.1538
23964W        W67058   4.842   9.422  22.119 -0.0370  0.0761  0.6335
23965W        W67059   5.754   9.905  25.243 -0.1620 -0.1073  0.2466
23966W        W67060   4.964   8.736  25.201  0.1577  0.0053  0.3512
23967W        W67061   5.401  10.435  24.047  0.3192  0.0486  0.3452
23968W        W67062   6.161   7.141  26.962 -0.0433 -0.1371 -0.2747
23969W        W67063   3.911   9.006  27.216 -0.1479  0.0291  0.2486
23970W        W67064   5.057  10.576  26.053 -0.1568  0.0576  0.1682
23971W        W67065   5.924   8.611  23.198 -0.1245  0.0711 -0.3618
23972W        W67066   4.251   9.845  25.022 -0.0028 -0.2257 -0.0662
23973W        W67067   5.507   9.173  27.152 -0.0139  0.0171 -0.2865
23974W        W67068   5.036   7.843  26.071  0.0571  0.0858  0.2141
23975W        W67069   6.385   8.847  25.026  0.3019  0.0385 -0.1189
23976W        W67070   5.701  12.099  24.712 -0.0955  0.2332  0.2067
23977W        W67071   5.920  10.940  25.141 -0.0056 -0.1947 -0.0157
23978W        W67072   6.333   9.240  26.936 -0.1575 -0.2176  0.1544
23979W        W67073   4.860   9.022  26.694  0.4741  0.0085 -0.2164
23980W        W67074   3.502  11.758  25.202 -0.0881  0.2519 -0.1398
23981W        W67075   4.834  10.518  24.605 -0.0577  0.2443 -0.0210
23982W        W67076   7.364  10.090  23.607  0.0927 -0.0231  0.3939
23983W        W67077   7.349   9.589  26.993  0.0375  0.0195  0.0731
23984W        W67078   6.081  11.254  26.699 -0.2363 -0.2307  0.2547
23985W        W67079   4.637   8.743  23.503  0.1180 -0.2715  0.1966
23986W        W67080   6.650  11.648  26.143  0.0124  0.0225  0.1335
23987W        W67081   4.144   9.723  27.951 -0.2105  0.1389  0.1917
23988W        W67082   5.909  10.471  26.392 -0.1328  0.1424  0.3101
23989W        W67083   5.543   9.189  26.170 -0.1667  0.4483 -0.1242
23990W        W67084   6.209  10.963  24.028  0.3932 -0.0039  0.0193
23991W        W67085   5.303   9.580  24.002  0.1075  0.0493 -0.1551
23992W        W67086   4.588   9.763  28.362 -0.0620 -0.1614  0.1101
23993W        W67087   4.256  10.274  27.127  0.2543  0.2478  0.0024
23994W        W67088   6.380   9.076  27.412  0.0742 -0.2288  0.3222
23995W        W67089   4.807  10.431  23.609  0.1612  0.0460 -0.2673
23996W        W67090   6.563   7.970  22.932  0.0116 -0.1075 -0.1493
23997W        W67091   5.170   8.897  24.386 -0.1991  0.0023 -0.1815
23998W        W67092   8.161   8.869  23.261 -0.3225  0.0475 -0.2136
23999W        W67093   5.833   6.714  25.758  0.0442  0.0565 -0.0614
24000W        W67094   5.118  10.543  26.536 -0.2358 -0.2682 -0.1290
24001W        W67095   5.315   9.480  25.808  0.1851 -0.2394 -0.1302
24002W        W67096   6.387   9.818  27.173  0.0542 -0.1129  0.1463
24003W        W67097   5.596   8.495  24.781  0.0506  0.2375 -0.1489
24004W        W67098   7.482   9.798  26.391 -0.0052 -0.1334 -0.1367
24005W        W67099   5.097   9.986  26.498 -0.0701 -0.1556 -0.0055
24006W        W67100   4.068   8.674  24.904  0.1901 -0.0278  0.1179
24007W        W67101   6.932  10.133  22.569  0.3380  0.1769 -0.2888
24008W        W67102   6.828   9.623  25.091 -0.0188 -0.0701 -0.1897
24009W        W67103   7.033  10.276  22.097  0.1309 -0.0058 -0.4173
24010W        W67104   4.599   7.947  23.577 -0.0403  0.2016 -0.0564
24011W        W67105   4.497   9.430  26.567  0.2007  0.1579 -0.0881
24012W        W67106   4.424   9.317  25.986  0.2349  0.0365 -0.0004
24013W        W67107   5.503   7.121  24.150  0.0567 -0.3120 -0.2068
24014W        W67108   6.868   8.964  26.298 -0.3234 -0.0644  0.0765
24015W        W67109   3.907  11.089  27.098  0.3021  0.0637  0.0207
24016W        W67110   5.470   7.457  23.751 -0.2422  0.0170  0.0055
24017W        W67111   5.723   9.940  25.847  0.1621  0.2255  0.1257
24018W        W67112   7.177   9.576  24.723 -0.0062  0.0041 -0.0032
24019W        W67113   6.704   9.432  23.972 -0.0739  0.0950  0.2219
24020W        W67114   5.470   8.269  26.529 -0.1076  0.0570  0.0361
24021W        W67115   6.769   9.429  26.014 -0.4617 -0.0952  0.0027
24022W        W67116   4.571   8.691  24.931 -0.1901  0.1248  0.1379
24023W        W67117   5.748   9.395  24.098  0.2157 -0.1870 -0.0277
24024W        W67118   7.368  10.104  27.298  0.2272  0.0176  0.1335
24025W        W67119   6.577   8.330  24.876  0.0407  0.1963 -0.0023
24026W        W67120   4.654  10.125  26.422 -0.0865  0.1482 -0.1759
24027W        W67121   7.564   6.703  28.538 -0.0363  0.0937  0.0905
24028W        W67122   6.613  11.066  26.773 -0.2078  0.1906  0.1596
24029W        W67123   5.104  10.060  23.792 -0.1900 -0.1238 -0.4447
24030W        W67124   5.118  10.058  27.012 -0.1375  0.0493  0.0343
24031W        W67125   3.405   8.294  24.932  0.3595  0.0997  0.1268
24032W        W67126   3.618   7.988  26.335  0.1236  0.1170 -0.0713
24033W        W67127   4.750   9.562  23.885 -0.2436  0.0640  0.2240
24034W        W67128   8.163   7.636  23.050  0.1146  0.0539 -0.1653
24035W        W67129   4.406   8.419  26.242  0.0738 -0.1674  0.1799
24036W        W67130   6.822   8.179  23.443 -0.0576 -0.0643  0.1712
24037W        W67131   3.160  10.038  25.671 -0.2111  0.2040 -0.2675
24038W        W67132   7.283  11.046  24.675  0.1030  0.1705  0.0545
24039W        W67133   6.049   8.200  24.577  0.1460 -0.0321 -0.0433
24040W        W67134   5.906   8.911  23.665 -0.1828  0.1330 -0.2350
24041W        W67135   4.974   9.669  27.342  0.3400 -0.0066  0.1197
24042W        W67136   4.431   7.386  25.336 -0.3679 -0.0809 -0.1835
24043W        W67137   4.836   8.227  26.425  0.0659  0.1173 -0.0973
24044W        W67138   4.566   7.866  26.001 -0.1641  0.0494 -0.2079
24045W        W67139   6.822   9.367  26.793  0.3038 -0.0341  0.0470
24046W        W67140   4.927   7.406  23.942 -0.0311  0.2021  0.1927
24047W        W67141   5.773   7.206  25.582  0.1382 -0.1306  0.3070
24048W        W67142   6.537  10.139  24.666  0.0474 -0.0081  0.4486
24049W        W67143   4.560   9.140  23.781 -0.0417 -0.1600 -0.4103
24050W        W67144   6.627   7.841  26.634 -0.0787  0.2236 -0.3728
24051W        W67145   5.950  10.683  23.624  0.0637 -0.0137  0.1091
24052W        W67146   7.085  10.512  25.378 -0.1302 -0.2113  0.1931
24053W        W67147   6.061  11.328  24.343  0.0006 -0.1888 -0.2121
24054W        W67148   4.702   9.233  27.204  0.0269 -0.1646  0.0106
24055W        W67149   5.228   6.822  23.190  0.1844  0.0229  0.0594
24056W        W67150   5.109  10.955  24.849 -0.0798 -0.0164  0.0669
24057W        W67151   4.747  10.936  25.796 -0.2095 -0.3972  0.1931
24058W        W67152   4.955   8.209  25.422 -0.1962 -0.1192 -0.1372
24059W        W67153   6.280  10.617  26.695  0.0801 -0.1405 -0.3254
24060W        W67154   4.669   8.952  24.268  0.1360  0.1110 -0.3723
24061W        W67155   4.747   9.596  27.748  0.2610  0.1876  0.1308
24062W        W67156   5.731   8.367  26.921  0.2239  0.0601 -0.0384
24063W        W67157   6.213   9.933  25.727  0.0608  0.0763  0.2203
24064W        W67158   6.636   9.906  25.996  0.3060  0.3973 -0.3229
24065W        W67159   5.330   8.011  23.526 -0.3598 -0.1984  0.0648
24066W        W67160   6.883   9.932  25.545  0.0970  0.0153 -0.0467
24067W        W67161   4.911  10.042  24.832 -0.2511  0.1777  0.2633
24068W        W67162   4.273   9.110  24.607 -0.1830 -0.1535 -0.2178
24069W        W67163   5.994  10.099  24.859  0.0339 -0.0295  0.1920
24070W        W67164   5.930   8.248  26.137 -0.1092  0.3139  0.1839
24071W        W67165   4.303   9.263  27.457  0.0772  0.1278  0.0811
24072W        W67166   6.213   7.956  27.723 -0.1475  0.2569  0.0551
24073W        W67167   4.398   7.474  22.753  0.3856  0.2462 -0.0495
24074W        W67168   4.630  10.650  26.407  0.2039  0.0119 -0.3136
24075W        W67169   5.280   9.038  25.641 -0.0172 -0.2500  0.0250
24076W        W67170   6.684   7.394  22.483 -0.1174  0.2091 -0.3139
24077W        W67171   5.956   8.829  27.725 -0.0127 -0.2483 -0.0653
24078W        W67172   7.259  10.607  24.885  0.0560  0.1407  0.1669
24079W        W67173   6.237   7.655  24.413 -0.1486  0.0048 -0.1468
24080W        W67174   5.781   8.028  25.093 -0.1531  0.2030 -0.0769
24081W        W67175   4.306  10.278  27.636 -0.2879  0.0140 -0.1852
24082W        W67176   5.857   9.563  24.901 -0.3012  0.4111  0.2359
24083W        W67177   6.125   7.324  25.969  0.1389 -0.0458 -0.1233
24084W        W67178   5.924   8.508  24.144  0.1522 -0.1296 -0.0223
24085W        W67179   7.067  11.095  23.615 -0.0373  0.2276  0.0877
24086W        W67180   2.788   8.550  26.450  0.0522  0.0747  0.0668
24087W        W67181   5.120   9.247  27.554 -0.0235  0.1405  0.1867
24088W        W67182   5.525   9.934  24.796  0.0618 -0.2620  0.1370
24089W        W67183   5.563   7.339  26.824  0.2214 -0.1700 -0.0128
24090W        W67184   5.624   9.274  25.248  0.4287  0.0716  0.1840
24091W        W67185   6.752   7.513  24.390 -0.2781 -0.1570  0.2599
24092W        W67186   3.700  10.484  26.006 -0.2607 -0.0266 -0.0939
24093W        W67187   6.544   9.566  25.581 -0.2732 -0.1644 -0.0492
24094W        W67188   7.087   8.321  27.258 -0.1646  0.0436  0.2266
24095W        W67189   6.441   7.126  27.551 -0.1906  0.0764  0.0748
24096W        W67190   7.417   8.949  26.349 -0.0504  0.3851  0.1957
24097W        W67191   6.836   8.690  24.590  0.1490  0.0643  0.1533
24098W        W67192   6.485   9.267  26.430 -0.1353  0.0257  0.2241
24099W        W67193   3.642   7.901  23.223  0.1124  0.1266  0.0206
24100W        W67194   5.689   6.950  28.005  0.1217 -0.1123 -0.3140
24101W        W67195   5.936   9.464  27.159 -0.0827  0.0167 -0.2695
24102W        W67196   4.298  11.662  26.332 -0.1060 -0.1838  0.1015
24103W        W67197   7.406  10.282  26.481 -0.0480 -0.2365 -0.2167
24104W        W67198   7.013   9.169  24.260 -0.3144  0.0649 -0.1460
24105W        W67199   6.111   6.770  26.172  0.0166  0.2287 -0.1740
24106W        W67200   5.921   7.628  24.845  0.3656  0.0889  0.5116
24107W        W67201   3.869  10.279  24.603  0.0879 -0.1770  0.2557
24108W        W67202   5.005   9.138  23.908  0.0709  0.0649  0.0268
24109W        W67203   5.317   6.497  25.855 -0.1450 -0.0982 -0.0279
24110W        W67204   5.572  10.648  26.023  0.2598 -0.1051 -0.1739
24111W        W67205   4.583  10.079  23.908  0.0082 -0.0508 -0.0432
24112W        W67206   6.696  10.259  26.847 -0.0156  0.2402 -0.3123
24113W        W67207   6.715  10.843  23.239 -0.4229  0.0930 -0.1048
24114W        W67208   6.051   6.521  27.143  0.2161  0.0304 -0.3066
24115W        W67209   3.772   9.965  26.035 -0.3362 -0.0704  0.0241
24116W        W67210   3.889   9.062  25.084  0.2043  0.2537 -0.1644
24117W        W67211   3.891  10.295  23.527  0.1984  0.2189 -0.1513
24118W        W67212   6.056   8.452  25.046 -0.2064 -0.2332 -0.0069
24119W        W67213   7.907  10.567  23.591 -0.1692  0.3677  0.2156
24120W        W67214   3.908   8.612  26.253 -0.1953  0.2685  0.3026
24121W        W67215   5.008   7.761  25.160 -0.0199 -0.0299 -0.0493
24122W        W67216   3.412  11.263  25.065 -0.1727 -0.0479 -0.0045
24123W        W67217   6.227   9.587  26.102 -0.2560 -0.2570  0.2630
24124W        W67218   7.144   7.219  24.382 -0.0102 -0.1336  0.2394
24125W        W67219   7.332   9.685  25.179  0.0365 -0.0350 -0.3193
24126W        W67220   5.454   8.837  28.088  0.1043 -0.0681  0.0356
24127W        W67221   5.365   8.512  25.644 -0.0032 -0.0515 -0.0659
24128W        W67222   6.781   8.374  26.389 -0.0501 -0.2009 -0.2592
24129W        W67223   4.570   9.554  24.690  0.0903 -0.1070  0.0346
24130W        W67224   3.482  11.218  26.218  0.0298  0.2081  0.0764
24131W        W67225   6.191   9.248  24.615  0.0780  0.1914 -0.2918
24132W        W67226   6.345   8.312  23.237 -0.0374 -0.0356  0.4382
24133W        W67227   4.303  10.505  24.235  0.2881 -0.1193  0.1703
24134W        W67228   5.236   7.019  27.182 -0.2007  0.2387 -0.0804
24135W        W67229   5.979   8.734  25.934 -0.0342  0.0375  0.0978
24136W        W67230   4.436   8.365  25.734  0.1161 -0.1549  0.1481
24137W        W67231   5.257   7.726  24.226  0.0641  0.1629 -0.0010
24138W        W67232   6.043   9.148  26.241  0.3785  0.0131  0.3113
24139W        W67233   5.391   8.652  26.119  0.0132 -0.1286 -0.1042
24140W        W67234   6.756   8.728  25.870  0.2472 -0.3882 -0.0668
24141W        W67235   5.171  10.151  27.753  0.0469 -0.1662 -0.2017
24142W        W67236   6.079   6.702  26.697 -0.1300 -0.2944  0.0362
24143W        W67237   6.386  10.376  23.203 -0.0011 -0.1840 -0.1406
24144W        W67238   6.814   8.830  26.984 -0.0282 -0.2627 -0.3821
24145W        W67239   4.574  10.141  24.438  0.0868  0.1268  0.0613
24146W        W67240   3.529   9.128  25.415  0.0543 -0.1281 -0.4304
24147W        W67241   4.569   9.522  23.247 -0.0520  0.0056  0.0028
24148W        W67242   6.159   8.073  27.014 -0.0458 -0.0664  0.1390
24149W        W67243   4.194   9.732  27.000  0.2475  0.0791  0.0661
24150W        W67244   4.276   8.627  24.405 -0.1055 -0.1545 -0.2979
24151W        W67245   2.255  10.581  26.422  0.2335 -0.4529 -0.0283
24152W        W67246   7.761   7.902  23.376 -0.2220 -0.1259  0.0032
24153W        W67247   5.476   9.275  23.619  0.2351 -0.0397  0.1087
24154W        W67248   4.720   9.737  26.944  0.0963  0.1202  0.2626
24155W        W67249   7.753   8.323  27.487 -0.2268 -0.2857 -0.1829
24156W        W67250   7.551   9.878  24.577  0.0858 -0.2181  0.1715
24157W        W67251   6.410   8.696  28.319 -0.0917  0.2956 -0.0154
24158W        W67252   4.222   7.080  27.537 -0.2561  0.1609 -0.3185
24159W        W67253   7.095   9.566  23.637  0.1973  0.3268 -0.1433
24160W        W67254   4.496   7.621  27.295 -0.2644  0.0286 -0.1907
24161W        W67255   6.169  10.954  27.089 -0.2189  0.0157 -0.0253
24162W        W67256   5.120   9.507  28.474  0.2030  0.1502 -0.3544
24163W        W67257   5.017   9.263  25.221  0.0600 -0.0234  0.2931
24164W        W67258   4.934   6.766  24.792 -0.0169 -0.1929 -0.2526
24165W        W67259   6.308  10.128  26.351 -0.0025  0.1693 -0.2313
24166W        W67260   6.596  10.881  25.831  0.0469 -0.2015  0.0943
24167W        W67261   6.070   9.852  23.770 -0.0018  0.2774 -0.0939
24168W        W67262   5.859   8.263  25.602  0.0813 -0.0096 -0.1702
24169W        W67263   4.173   7.783  28.325 -0.0196  0.0619  0.3417
24170W        W67264   7.200   7.663  24.604  0.0294  0.3127 -0.0452
24171W        W67265   5.674   8.841  24.494 -0.1172  0.0639 -0.2282
24172W        W67266   3.946   9.487  24.789 -0.2032 -0.1238  0.0214
24173W        W67267   4.998   7.136  27.931  0.3927 -0.0134  0.0731
24174W        W67268   6.540  10.570  26.230 -0.0089  0.0085  0.1556
24175W        W67269   6.388   7.412  24.815 -0.1411 -0.2027 -0.0300
24176W        W67270   5.876   7.294  26.427 -0.0051  0.3151 -0.0234
24177W        W67271   6.108   8.769  25.411 -0.0494 -0.2695 -0.3769
24178W        W67272   5.625   8.261  28.268  0.2349  0.1183  0.0659
24179W        W67273   4.057   8.871  27.850  0.0043  0.0357  0.3682
24180W        W67274   6.732  11.663  25.642 -0.2697 -0.1497  0.0361
24181W        W67275   6.707   8.799  21.848  0.1381 -0.4072  0.0247
24182W        W67276   7.329   7.974  25.771  0.1868  0.2314  0.4073
24183W        W67277   7.059   9.010  23.772  0.1837 -0.4680  0.0117
24184W        W67278   5.500   8.086  26.027 -0.0115  0.0531  0.2752
24185W        W67279   5.312   7.327  26.251 -0.0385  0.2385 -0.1053
24186W        W67280   5.036   8.634  27.598  0.1992 -0.1534 -0.0685
24187W        W67281   3.841   7.892  24.571 -0.1545  0.1834 -0.0049
24188W        W67282   6.432   8.372  25.460  0.0944 -0.1904  0.0648
24189W        W67283   4.580  11.282  22.563 -0.1764  0.0241  0.0616
24190W        W67284   6.392   9.907  25.179  0.0110 -0.4415  0.1558
24191W        W67285   6.509   8.036  24.296 -0.2365 -0.0041  0.1566
24192W        W67286   3.752   7.517  26.283 -0.0714 -0.3079  0.0595
24193W        W67287   5.721  11.046  26.406  0.0491  0.4605 -0.1951
24194W        W67288   4.063   7.917  23.583  0.2409 -0.1121  0.1533
24195W        W67289   6.393   9.696  24.678  0.0763  0.0996  0.0201
24196W        W67290   5.760  10.528  24.841 -0.1993 -0.3510 -0.0950
24197W        W67291   6.887   9.941  28.432 -0.0548  0.1215  0.0195
24198W        W67292   5.314   8.142  25.004  0.0994 -0.1266  0.1895
24199W        W67293   6.554   7.079  26.020 -0.4428 -0.0876  0.0999
24200W        W67294   3.897  10.689  25.562  0.2549 -0.1179  0.1537
24201W        W67295   5.877   8.628  26.482 -0.0162  0.0845 -0.1512
24202W        W67296   3.627  11.416  27.369 -0.0953 -0.0373  0.0525
24203W        W67297   3.698   8.789  26.657 -0.1775  0.1722  0.1339
24204W        W67298   5.463   8.790  26.717  0.1222 -0.1183  0.2096
24205W        W67299   6.278   7.671  27.323  0.0881 -0.1635  0.1203
24206W        W67300   6.825   9.349  27.277  0.2499 -0.1106 -0.0977
24207W        W67301   4.846   9.081  24.746  0.0863 -0.0624  0.2671
24208W        W67302   7.775   8.836  26.754  0.2739  0.6170 -0.1442
24209W        W67303   5.828   9.130  25.672 -0.1245  0.3303  0.0092
24210W        W67304   5.047   9.186  26.143 -0.1237  0.0042 -0.1610
24211W        W67305   6.129  10.952  25.581  0.0523  0.0066  0.0624
24212W        W67306   8.515  10.751  24.797 -0.1528  0.0378 -0.1719
24213W        W67307   4.014   9.289  26.726 -0.0838  0.0490  0.2039
24214W        W67308   5.356   8.496  28.655 -0.3680 -0.0404 -0.0963
24215W        W67309   6.055   8.071  28.353  0.0489  0.3611 -0.1519
24216W        W67310   6.025   9.547  25.472 -0.1517 -0.1445 -0.2455
24217W        W67311   4.382   8.877  25.393 -0.4284  0.0331 -0.0850
24218W        W67312   5.105   8.944  23.461  0.1849 -0.0714  0.2385
24219W        W67313   3.513  10.617  27.090 -0.1144  0.3050  0.1370
24220W        W67314   4.490   9.870  27.366 -0.0628 -0.0698  0.2281
24221W        W67315   5.304  11.397  23.839 -0.4443  0.0710  0.1792
24222W        W67316   6.508  11.001  24.444 -0.1328  0.2416 -0.4223
24223W        W67317   6.308   9.373  25.100 -0.1068 -0.3998 -0.0379
24224W        W67318   6.481  11.993  25.321 -0.0478  0.1366  0.1033
24225W        W67319   5.944   7.722  23.709 -0.3189  0.0424  0.3185
24226W        W67320   4.495  10.866  24.588 -0.0788  0.0496 -0.5192
24227W        W67321   5.142   9.860  23.004 -0.1646  0.2377 -0.0134
24228W        W67322   6.286   9.485  24.183 -0.0684 -0.2102 -0.0193
24229W        W67323   4.568  10.366  25.848  0.0566  0.2829 -0.1248
24230W        W67324   6.056   9.531  27.987  0.1835 -0.0253  0.2519
24231W        W67325   7.884   8.397  23.358 -0.2007 -0.1171  0.2062
24232W        W67326   7.314  10.163  25.037  0.3893 -0.1390  0.1078
24233W        W67327   7.168   8.265  24.847  0.0467 -0.0600 -0.5327
24234W        W67328   7.109  10.014  26.764  0.1267  0.0650  0.2242
24235W        W67329   5.061   9.224  28.058  0.1242  0.0334 -0.1132
24236W        W67330   5.571   7.967  24.590 -0.1180  0.0172 -0.0336
24237W        W67331   4.740  10.465  26.885  0.3617 -0.1828 -0.2711
24238W        W67332   7.585   9.075  28.390  0.1197 -0.0468 -0.2176
24239W        W67333   2.924  10.374  26.427  0.1119 -0.1201 -0.1665
24240W        W67334   6.766   9.922  23.572 -0.3517 -0.0057 -0.0795
24241W        W67335   4.759   8.162  24.937 -0.0142  0.0391  0.2372
24242W        W67336   5.149  10.066  25.880  0.1175  0.0932  0.0034
24243W        W67337   6.913   7.696  25.722 -0.3204  0.0665  0.3113
24244W        W67338   5.081   9.168  22.985 -0.0209 -0.1215 -0.1168
24245W        W67339   5.368   7.932  25.557  0.1485 -0.1461 -0.0599
24246W        W67340   5.203  10.942  25.353  0.4214  0.1412 -0.0955
24247W        W67341   4.665   9.856  25.634 -0.0770  0.2681 -0.0896
24248W        W67342   4.837   9.709  26.060  0.3876 -0.3513  0.5419
24249W        W67343   3.603   7.441  24.587  0.1118  0.1655 -0.1839
24250W        W67344   8.840   8.540  25.176 -0.1560  0.2084 -0.1168
24251W        W67345   5.751   7.796  26.913  0.2491 -0.1614 -0.0837
24252W        W67346   7.792   8.063  28.102 -0.1334 -0.3070  0.0917
24253W        W67347   5.400   7.526  24.685 -0.0629 -0.0551  0.2797
24254W        W67348   7.291   8.946  23.279 -0.3104  0.0341  0.1296
24255W        W67349   5.519  10.185  26.748  0.2218 -0.1237  0.2627
24256W        W67350   5.375   7.978  27.544 -0.2734 -0.2024 -0.2639
24257W        W67351   4.741   9.696  25.149  0.0927  0.3389 -0.0821
24258W        W67352   7.355   9.537  24.212  0.0003  0.0472  0.0979
24259W        W67353   5.096   8.526  24.709 -0.2074 -0.0105  0.0898
24260W        W67354   6.002  11.499  28.668  0.1297  0.0761 -0.2804
24261W        W67355   3.235   6.555  24.468  0.2961  0.0982  0.3328
24262W        W67356   6.415   7.126  24.245  0.5282 -0.2395 -0.0299
24263W        W67357   4.330   9.438  25.379 -0.2946 -0.0436  0.0037
24264W        W67358   4.845   8.713  26.240 -0.1652  0.0125 -0.1686
24265W        W67359   6.066  10.434  27.113  0.0148  0.2583 -0.0772
24266W        W67360   4.399   6.303  25.242  0.0611  0.2203  0.0454
24267W        W67361   6.402  10.216  23.692  0.0011  0.2035  0.4898
24268W        W67362   7.067   9.386  25.597 -0.0795  0.3825 -0.0493
24269W        W67363   4.220   9.451  23.654  0.0324  0.1089  0.1435
24270W        W67364   7.054  10.194  24.586  0.1204 -0.0653  0.1106
24271W        W67365   6.235  11.287  24.778 -0.0408 -0.0421 -0.1557
24272W        W67366   3.347   8.505  26.242  0.2121  0.2323 -0.2786
24273W        W67367   5.871   9.935  26.976 -0.1242 -0.1122 -0.2057
24274W        W67368   7.473  11.275  25.637 -0.2567 -0.1073 -0.0083
24275W        W67369   5.077   8.050  24.567  0.3198  0.1458 -0.3170
24276W        W67370   4.024   8.162  26.027 -0.2599  0.1410 -0.1268
24277W        W67371   4.393  11.588  24.964  0.1171 -0.0453  0.1262
24278W        W67372   6.563   7.061  25.152  0.0227 -0.2302  0.0771
24279W        W67373   7.643  10.123  26.865  0.4458 -0.1652 -0.0759
24280W        W67374   5.029  10.960  23.353 -0.0279  0.0972  0.1344
24281W        W67375   5.910   8.365  27.442 -0.1099 -0.0494 -0.1252
24282W        W67376   5.114   8.889  27.187  0.2207 -0.1417 -0.1940
24283W        W67377   5.183  10.588  27.070  0.1286  0.5310  0.1094
24284W        W67378   3.881   8.946  24.400 -0.2220 -0.0363 -0.2188
24285W        W67379   5.715  11.903  26.355 -0.3024  0.1154 -0.0419
24286W        W67380   4.553  10.213  25.301 -0.2171 -0.0429  0.2580
24287W        W67381   4.347   9.366  24.204  0.1547  0.0677 -0.0747
24288W        W67382   6.843   9.752  24.368 -0.4099  0.0767 -0.1152
24289W        W67383   6.797  10.382  25.804 -0.1772 -0.4046  0.0776
24290W        W67384   7.327  10.421  24.195  0.2990  0.1798 -0.0487
24291W        W67385   6.523   7.671  26.077  0.0817 -0.1942 -0.2460
24292W        W67386   6.808   8.019  25.288 -0.3149  0.0261  0.1570
24293W        W67387   7.234   6.950  24.783 -0.2323  0.1981  0.3553
24294W        W67388   4.380   9.271  28.011 -0.2719  0.1204  0.0473
24295W        W67389   2.888   8.362  24.201  0.1406 -0.2648  0.1001
24296W        W67390   4.161  11.107  22.977  0.0749 -0.2647 -0.0160
24297W        W67391   5.414   9.704  26.255 -0.1507  0.0669  0.2629
24298W        W67392   6.254   7.463  27.877 -0.3412 -0.0474 -0.0039
24299W        W67393   4.471   8.482  26.741 -0.2562  0.0493 -0.3624
24300W        W67394   3.988   9.198  25.611 -0.0943  0.0102  0.2702
24301W        W67395   3.196   7.867  25.764 -0.1427 -0.1662 -0.0617
24302W        W67396   6.556   8.985  24.251  0.0624  0.0776 -0.4779
24303W        W67397   5.850   7.196  27.505 -0.1653 -0.1121  0.2274
24304W        W67398   3.639   7.310  25.439 -0.3292 -0.1086 -0.2108
24305W        W67399   5.726  10.860  24.351 -0.1508 -0.0508 -0.0198
24306W        W67400   5.399   8.949  24.887  0.5319  0.1789 -0.0389
24307W        W67401   6.674   6.839  25.639  0.0219 -0.3429  0.1825
24308W        W67402   7.093  10.924  28.352  0.1652  0.0270 -0.2476
24309W        W67403   3.310   8.564  24.381  0.2004  0.2174  0.0217
24310W        W67404   5.374   7.293  28.358  0.1240  0.2181  0.2606
24311W        W67405   5.062   7.656  26.607  0.1997 -0.0620  0.1307
24312W        W67406   3.931   6.882  23.446 -0.2070  0.0820  0.0095
24313W        W67407   5.270   7.211  25.650  0.1086 -0.4385  0.0330
24314W        W67408   6.737  10.332  24.071  0.1423  0.3780 -0.0294
24315W        W67409   6.037   9.013  24.171  0.0433  0.0728 -0.0686
24316W        W67410   5.324  10.343  25.129  0.0151 -0.3009 -0.1096
24317W        W67411   5.429   9.615  26.816  0.0935  0.0153 -0.1757
24318W        W67412   4.757   7.959  26.807 -0.0129  0.0109 -0.0641
24319W        W67413   7.997   9.614  25.198  0.2250 -0.0761 -0.2553
24320W        W67414   6.002   8.981  28.320 -0.1777 -0.1580 -0.0105
24321W        W67415   6.781   9.605  23.171  0.0548 -0.0279 -0.0673
24322W        W67416   7.316   8.349  26.189  0.3703  0.2437  0.2070
24323W        W67417   6.734   9.208  24.713  0.4595  0.2555 -0.0202
24324W        W67418   5.141   7.077  26.645  0.1876 -0.2287 -0.0384
24325W        W67419   5.351  10.453  28.284  0.0999 -0.1328  0.1781
24326W        W67420   7.561  10.758  26.822 -0.0901 -0.0338  0.1906
24327W        W67421   4.654   8.737  27.243 -0.3533  0.0954 -0.0458
24328W        W67422   6.307   7.984  25.166 -0.0167  0.4543  0.1333
24329W        W67423   6.308  10.029  24.182 -0.0203 -0.3898 -0.2178
24330W        W67424   3.975   8.269  25.509  0.0040  0.2445 -0.1168
24331W        W67425   5.508   8.921  23.985  0.1107  0.0449 -0.2146
24332W        W67426   4.660   8.997  27.685 -0.0678  0.0951 -0.1278
24333W        W67427   5.432   9.380  24.512  0.0833  0.0504  0.2986
24334W        W67428   6.309   9.188  25.761 -0.1975  0.2214 -0.0965
24335W        W67429   4.954   9.359  24.340  0.2129  0.2350 -0.0070
24336W        W67430   7.046  10.014  26.246  0.1196 -0.0123  0.3801
24337W        W67431   5.694  11.248  25.874  0.0971 -0.2896  0.3143
24338W        W67432   6.801  11.063  27.990 -0.1252  0.1385 -0.0347
24339W        W67433   6.056  10.384  25.322 -0.0960  0.1576 -0.0798
24340W        W67434   7.621   9.386  26.054  0.0947  0.1508  0.0563
24341W        W67435   4.685   7.403  26.163 -0.2587 -0.2881  0.0215
24342W        W67436   3.791   9.657  23.732 -0.0987 -0.2138  0.2205
24343W        W67437   5.164   9.892  25.455 -0.3884  0.0099 -0.0691
24344W        W67438   4.416   8.839  25.924 -0.0120  0.0294 -0.1358
24345W        W67439   4.767   7.711  24.748 -0.5283  0.0085  0.0792
24346W        W67440   6.933   6.556  21.722 -0.1822  0.0424 -0.0850
24347W        W67441   5.518  10.284  25.581 -0.0538 -0.1393  0.1221
24348W        W67442   5.583   8.681  25.243 -0.3846  0.1379 -0.5781
24349W        W67443   6.513  10.674  29.997 -0.2625 -0.1766 -0.3576
24350W        W67444   5.232   7.612  29.108 -0.0129 -0.0130 -0.0338
24351W        W67445   4.914   8.317  25.935 -0.1461  0.1764 -0.0321
24352W        W67446   5.630  10.783  27.270  0.2243 -0.2988  0.2442
24353W        W67447   2.302   8.085  28.817 -0.2226  0.0037  0.1239
24354W        W67448   7.221  11.387  28.217  0.0051  0.2898 -0.2267
24355W        W67449   4.521   6.627  29.860 -0.2182 -0.1529 -0.1304
24356W        W67450   6.757   9.687  30.021  0.3367 -0.1293 -0.1560
24357W        W67451   7.837  10.085  29.995  0.3221 -0.1884 -0.2198
24358W        W67452   5.553   6.900  28.521  0.0145 -0.5060 -0.1470
24359W        W67453   3.542   8.233  29.660  0.3748 -0.0717 -0.2438
24360W        W67454   5.995   9.960  29.914  0.0573  0.1484  0.2370
24361W        W67455   4.987   6.165  27.738 -0.2816 -0.2202 -0.0603
24362W        W67456   4.427   6.643  30.460  0.1340  0.3246 -0.1717
24363W        W67457   7.391   9.072  29.584 -0.0108 -0.1491 -0.1054
24364W        W67458   5.549   9.941  29.013 -0.0927  0.2076  0.2018
24365W        W67459   3.933   8.374  30.966  0.0480 -0.0470 -0.1430
24366W        W67460   5.574   7.995  28.776 -0.1471  0.0799  0.0649
24367W        W67461   6.493  11.410  27.814  0.0578  0.1457 -0.0056
24368W        W67462   3.561   8.322  31.778 -0.3156 -0.0225  0.2280
24369W        W67463   4.958   7.081  30.532  0.0746  0.1618 -0.0122
24370W        W67464   5.725  11.360  27.076 -0.1162 -0.0138 -0.0384
24371W        W67465   3.547   9.973  27.794  0.2952 -0.0734  0.1304
24372W        W67466   4.208  10.287  29.665 -0.0746  0.0453 -0.1980
24373W        W67467   4.536   9.804  29.793  0.1782  0.0947 -0.0478
24374W        W67468   6.265   6.265  28.545  0.0967  0.0678  0.0326
24375W        W67469   6.850   9.938  28.944  0.0404 -0.0723 -0.1555
24376W        W67470   5.669   9.922  29.539  0.4723 -0.1779  0.5646
24377W        W67471   5.242  10.665  29.160 -0.3647  0.0155 -0.0040
24378W        W67472   5.387   8.612  31.616 -0.2160 -0.0548  0.0866
24379W        W67473   5.200   9.583  29.737  0.2472 -0.0794 -0.0427
24380W        W67474   5.162  11.642  27.482 -0.0040  0.0607 -0.0370
24381W        W67475   5.350  10.362  28.778  0.0930 -0.1506 -0.2004
24382W        W67476   6.759   9.035  29.007  0.0419  0.5125 -0.0484
24383W        W67477   7.001  10.401  29.652 -0.0573 -0.1886  0.3033
24384W        W67478   4.231  11.540  30.594  0.1549  0.1106 -0.0026
24385W        W67479   4.817   9.030  28.956  0.1529 -0.2671 -0.4137
24386W        W67480   5.936  10.208  31.595  0.1441  0.1794 -0.1300
24387W        W67481   4.419  10.243  30.364 -0.2450  0.0003  0.1445
24388W        W67482   5.364  10.212  29.936 -0.0084  0.0666 -0.2211
24389W        W67483   6.776   8.388  29.934 -0.6664 -0.1892 -0.2487
24390W        W67484   5.512   9.670  27.883 -0.2740 -0.0563  0.1877
24391W        W67485   6.113   9.462  28.469  0.2187 -0.1179  0.1391
24392W        W67486   4.531   9.746  31.523 -0.5103  0.1885  0.0065
24393W        W67487   5.052  10.562  29.587 -0.2629 -0.3007 -0.2832
24394W        W67488   7.882   6.640  30.490  0.2349  0.0440 -0.3042
24395W        W67489   4.504  11.212  28.873 -0.4700  0.1772 -0.2029
24396W        W67490   5.892  10.017  27.515 -0.1043 -0.1773 -0.3979
24397W        W67491   5.400   7.303  27.696  0.2657  0.3139  0.0374
24398W        W67492   6.854   8.309  27.744  0.2093 -0.0868 -0.2847
24399W        W67493   4.581   7.127  30.220  0.2449  0.5497  0.0300
24400W        W67494   7.114  10.417  28.899 -0.0798  0.0031 -0.1432
24401W        W67495   4.591   7.607  28.699 -0.1051 -0.0119  0.1812
24402W        W67496   7.391   9.007  30.645 -0.0894  0.0719  0.0811
24403W        W67497   6.966   6.878  28.460  0.3168 -0.1039 -0.3043
24404W        W67498   7.069   7.317  28.903 -0.0893  0.2347 -0.2324
24405W        W67499   4.087   9.947  30.024 -0.0167 -0.0650  0.1971
24406W        W67500   3.753   8.445  28.877  0.2111 -0.0928 -0.1084
24407W        W67501   5.730   9.590  28.707 -0.2140 -0.3003  0.1287
24408W        W67502   7.879   8.636  29.798 -0.0183 -0.0515  0.1104
24409W        W67503   6.920   9.899  27.409  0.0657  0.0680  0.0906
24410W        W67504   5.201   9.013  28.521  0.0097 -0.0293 -0.0579
24411W        W67505   3.360   9.261  29.942 -0.0710 -0.1843  0.3639
24412W        W67506   4.173   8.899  31.559  0.0578 -0.1905  0.0058
24413W        W67507   3.766   7.272  27.417  0.0897 -0.0271 -0.0364
24414W        W67508   7.493   9.648  31.201 -0.0852  0.3147 -0.0575
24415W        W67509   4.214  10.565   0.550  0.0807  0.1782 -0.2290
24416W        W67510   7.572   8.317  31.098  0.1184 -0.1160  0.0967
24417W        W67511   4.337   7.549  30.247 -0.0489 -0.1366 -0.4603
24418W        W67512   5.481  10.356  29.449 -0.0934  0.4041 -0.0234
24419W        W67513   5.000   8.161  27.945  0.1905 -0.1369  0.2845
24420W        W67514   8.292   6.446  28.115 -0.0381 -0.3571 -0.1741
24421W        W67515   5.365   7.844  29.534 -0.0872 -0.2090 -0.2560
24422W        W67516   5.497   8.878  27.579  0.1878  0.0085  0.2054
24423W        W67517   5.631  10.153  27.964  0.0412 -0.0797  0.2122
24424W        W67518   8.721   8.787  31.607  0.2629  0.1441 -0.0113
24425W        W67519   7.070   9.104  28.401 -0.1974  0.1770  0.3176
24426W        W67520   3.891  10.426  31.574  0.0645 -0.0343  0.0219
24427W        W67521   4.373   7.919  31.701 -0.0279 -0.1264 -0.1433
24428W        W67522   5.699   9.227  30.234 -0.1446  0.0721 -0.3089
24429W        W67523   4.522  11.844  27.270  0.3824 -0.0956 -0.0967
24430W        W67524   4.647   9.990  29.242  0.2902  0.1871 -0.0325
24431W        W67525   4.659  10.367  29.849  0.0574 -0.0771  0.1384
24432W        W67526   4.206   8.095  30.531  0.1852  0.0813  0.0793
24433W        W67527   4.914  10.568  27.892 -0.2035  0.1915 -0.1473
24434W        W67528   6.868   7.788  28.304 -0.4845  0.1926 -0.1444
24435W        W67529   3.932   6.678  30.358  0.0760  0.1350 -0.1043
24436W        W67530   8.065   7.607  28.836  0.0950 -0.3169  0.1658
24437W        W67531   5.026   8.612  28.169  0.4549  0.0514  0.1412
24438W        W67532   7.518  12.188  28.585 -0.2069  0.0396 -0.2034
24439W        W67533   7.226   9.575  27.577 -0.1330 -0.1753 -0.0185
24440W        W67534   6.460   9.583  27.596 -0.0578 -0.1782 -0.1500
24441W        W67535   3.877   8.486  30.365 -0.0729 -0.0352 -0.0514
24442W        W67536   3.478   7.399  29.743  0.0700 -0.1268 -0.2780
24443W        W67537   5.038   7.811  31.035 -0.1150 -0.0791 -0.3858
24444W        W67538   3.617   7.773  29.479 -0.3178 -0.1573 -0.2273
24445W        W67539   6.039   9.576  30.231  0.0649 -0.1759 -0.0171
24446W        W67540   4.029   7.955  28.879 -0.3207  0.1285  0.0673
24447W        W67541   7.155   9.555  29.124 -0.3811  0.1427  0.0132
24448W        W67542   6.377   9.585  29.680  0.0675  0.0341 -0.1358
24449W        W67543   5.152   9.347  28.920 -0.2018 -0.2849  0.0478
24450W        W67544   7.491   7.667  31.898  0.1178  0.0634 -0.0537
24451W        W67545   6.003  10.625  27.656  0.2059 -0.1908 -0.0191
24452W        W67546   8.398   9.267  29.799 -0.0759 -0.1242  0.1975
24453W        W67547   6.590  11.022  29.213 -0.0912 -0.0668 -0.2927
24454W        W67548   4.370   8.471  30.102  0.2259  0.1838  0.2169
24455W        W67549   4.914   6.185  28.225 -0.0173  0.2968 -0.1404
24456W        W67550   3.986  10.834  28.993  0.1042 -0.1523  0.0099
24457W        W67551   4.982  10.655  28.543  0.0861  0.0479  0.0898
24458W        W67552   5.673   7.148  29.186 -0.0641  0.0402  0.0053
24459W        W67553   6.335  10.644  29.564  0.1862  0.0459 -0.0105
24460W        W67554   6.047   8.477  28.139  0.2364  0.1396  0.0562
24461W        W67555   1.924   8.697  31.755 -0.1513 -0.1843  0.0029
24462W        W67556   6.233   7.391  29.989  0.1482  0.1967  0.0277
24463W        W67557   6.938   8.856  29.847 -0.0193  0.1234 -0.1211
24464W        W67558   5.965   8.546  29.643  0.1899  0.0713  0.0654
24465W        W67559   5.001   7.467  27.106  0.0819  0.0814  0.0211
24466W        W67560   7.396  10.519  29.346 -0.0572  0.1593  0.1614
24467W        W67561   4.951  10.173  28.460  0.1889  0.0569  0.0877
24468W        W67562   3.919  10.334  28.932  0.5581 -0.2304  0.0123
24469W        W67563   5.285  11.095  29.293  0.2572  0.1550  0.0228
24470W        W67564   6.088   7.857  28.812  0.3355  0.1199  0.0001
24471W        W67565   4.068   9.727   0.213  0.1847  0.3335  0.0140
24472W        W67566   5.886   8.313  30.204  0.1469 -0.0943 -0.0091
24473W        W67567   4.779   8.676  28.569 -0.2926 -0.0104 -0.0412
24474W        W67568   3.291   9.477  30.438 -0.0879 -0.2197 -0.1248
24475W        W67569   6.185   7.480  30.586 -0.0141 -0.3160 -0.2983
24476W        W67570   6.695   7.842  27.861 -0.0133  0.1905 -0.3793
24477W        W67571   5.282   9.533   0.164 -0.3829  0.1208  0.3308
24478W        W67572   5.709   9.060  28.709  0.3983 -0.1635 -0.2108
24479W        W67573   5.243   7.696  28.067  0.2798 -0.0647  0.1733
24480W        W67574   7.160   7.863  27.594 -0.1229  0.1239  0.2838
24481W        W67575   3.102   9.969  31.156  0.2518 -0.2680  0.1152
24482W        W67576   5.638   9.434  29.147 -0.0938  0.0401  0.0641
24483W        W67577   6.292  11.335  30.264 -0.1501  0.1398 -0.0465
24484W        W67578   5.765   6.199  28.499 -0.0779 -0.3946 -0.2610
24485W        W67579   7.761   9.817  30.419  0.1889 -0.1497 -0.0897
24486W        W67580   4.025   9.960  30.601 -0.1271 -0.0734 -0.3042
24487W        W67581   3.947  10.857  31.321  0.1576 -0.1884 -0.3303
24488W        W67582   7.403  10.165  29.766  0.1071 -0.1470 -0.0894
24489W        W67583   5.241   7.265  29.505 -0.2664  0.1659 -0.0716
24490W        W67584   4.217   8.679  27.448  0.3339 -0.0312  0.1127
24491W        W67585   4.854   7.014  29.765  0.0345 -0.2372  0.1042
24492W        W67586   3.673   9.641  28.120 -0.2552 -0.0727 -0.0058
24493W        W67587   7.364   7.535  31.362  0.2146  0.0066  0.0069
24494W        W67588   7.900   9.688  29.649  0.0443 -0.0552  0.1949
24495W        W67589   4.485   6.904  31.008 -0.2130  0.2827 -0.0103
24496W        W67590   6.266   8.206  31.864  0.0001  0.1600  0.0069
24497W        W67591   5.480   8.415  27.738  0.1505  0.0537 -0.0320
24498W        W67592   4.635   8.706  30.918 -0.1792  0.2888  0.3127
24499W        W67593   4.560   8.433  27.737 -0.0301 -0.0576  0.2142
24500W        W67594   4.204   6.985  29.852  0.0045 -0.2006 -0.0864
24501W        W67595   3.741   9.233  30.292  0.1117  0.3414 -0.2098
24502W        W67596   4.825  12.570  29.079 -0.1062  0.0006  0.1360
24503W        W67597   6.727   9.814  31.454 -0.0689  0.3087  0.1388
24504W        W67598   6.822   9.796  29.499 -0.0997 -0.1632  0.3953
24505W        W67599   3.519   7.382  31.815 -0.0341  0.1439 -0.1608
24506W        W67600   6.475   6.805  28.597  0.1510 -0.0154  0.0524
24507W        W67601   3.437   9.585  27.505  0.0945  0.2023 -0.0581
24508W        W67602   5.442   9.935  28.450 -0.0324 -0.1565 -0.2850
24509W        W67603   5.696   7.772  29.187  0.2285 -0.2209 -0.2379
24510W        W67604   6.511  11.096  31.331 -0.0133 -0.1781 -0.2138
24511W        W67605   5.469   9.674  27.368  0.1025  0.1601 -0.1268
24512W        W67606   6.135   8.505  31.420  0.1042 -0.1653 -0.1243
24513W        W67607   4.311  11.074  26.737  0.4210 -0.1040  0.0883
24514W        W67608   6.131   7.482  29.301 -0.0356  0.2403 -0.3286
24515W        W67609   4.240  10.791  29.830 -0.0242 -0.1148 -0.0548
24516W        W67610   2.958   9.602  29.267  0.2815  0.0918 -0.0778
24517W        W67611   5.009   8.759  29.423  0.1634 -0.1310 -0.2955
24518W        W67612   5.830   8.964  29.295  0.2999 -0.1144 -0.1347
24519W        W67613   7.066  10.184  27.867 -0.0593  0.0388  0.1310
24520W        W67614   4.730   8.179  28.796  0.1716 -0.0657 -0.0116
24521W        W67615   4.612   6.031  29.857  0.1042 -0.1944 -0.3348
24522W        W67616   3.389  10.951  28.959 -0.1474  0.2900 -0.0731
24523W        W67617   5.702   9.376  29.739 -0.0549 -0.3514  0.0315
24524W        W67618   7.416   7.274  29.287  0.0446  0.2089 -0.1356
24525W        W67619   6.456   9.444  30.911 -0.2271 -0.0826  0.1656
24526W        W67620   4.178   8.774   0.360  0.1153 -0.0216 -0.1771
24527W        W67621   4.102   9.468  28.830  0.0880  0.0042  0.0540
24528W        W67622   6.159   7.019  29.621 -0.1809 -0.2435  0.1171
24529W        W67623   6.643   7.856  28.787  0.0458  0.2039  0.0244
24530W        W67624   3.807  11.009  28.416 -0.0899  0.0294 -0.0704
24531W        W67625   5.561   9.714  30.018  0.1669  0.0902 -0.2210
24532W        W67626   5.174   9.788  29.308 -0.3164 -0.1832 -0.1102
24533W        W67627   5.937  10.904  28.596  0.1543 -0.2148 -0.2340
24534W        W67628   4.128   8.681  29.216 -0.4053  0.3352  0.2894
24535W        W67629   7.171  10.965  30.563  0.0640  0.0003  0.4750
24536W        W67630   6.256   8.638  28.943 -0.1865 -0.3202 -0.0820
24537W        W67631   4.132   9.027  29.663 -0.0357  0.1321  0.0666
24538W        W67632   5.842   8.056  29.669 -0.4911  0.1301 -0.0327
24539W        W67633   7.252   9.829  30.121  0.1636 -0.0403 -0.0190
24540W        W67634   5.170   8.346  30.406 -0.1360 -0.1193  0.0072
24541W        W67635   5.018  10.600  30.154  0.3337  0.0482 -0.2252
24542W        W67636   5.934   8.808  30.079 -0.2294  0.1783  0.0065
24543W        W67637   6.290  11.000  27.717 -0.2272  0.1217  0.0946
24544W        W67638   5.464   8.765  30.251 -0.1096 -0.1824  0.3232
24545W        W67639   5.369   8.842  29.050  0.1643 -0.1522  0.1180
24546W        W67640   2.302   8.327  29.715 -0.2469  0.1032  0.1435
24547W        W67641   5.761   9.268  27.688  0.0659 -0.2100 -0.0186
24548W        W67642   4.721   7.870  29.388  0.0792 -0.1144  0.2463
24549W        W67643   3.681  10.236  31.014 -0.2082  0.1680  0.0850
24550W        W67644   4.761   9.480  29.283  0.3333  0.0716  0.0781
24551W        W67645   2.470  10.801  30.384 -0.2319 -0.1890  0.1437
24552W        W67646   8.208   7.086  27.854 -0.1787  0.0847 -0.0521
24553W        W67647   5.530  10.309  27.273  0.0881 -0.0069  0.1759
24554W        W67648   4.997   7.628  29.716  0.1189  0.4238 -0.0547
24555W        W67649   6.699   6.651  30.326 -0.3175  0.0623  0.3609
24556W        W67650   7.178   9.131  27.886 -0.2156 -0.0319 -0.0545
24557W        W67651   6.464   7.712  30.284  0.2210 -0.1999  0.2004
24558W        W67652   3.994   8.061  30.027  0.0136 -0.0380  0.2254
24559W        W67653   6.651  11.575  28.821 -0.0404  0.0996 -0.2090
24560W        W67654   2.730   8.377  29.957  0.0137  0.0572  0.2449
24561W        W67655   5.774  10.716  31.568  0.2807 -0.0567  0.0260
24562W        W67656   4.845   9.258   0.209  0.1248  0.2999 -0.1292
24563W        W67657   4.394   9.097  29.247  0.0806 -0.2882  0.3401
24564W        W67658   4.894   7.508  30.234  0.1512 -0.0627  0.1781
24565W        W67659   5.517   9.941  30.927 -0.0213 -0.1392 -0.1715
24566W        W67660   7.912   9.126  29.779  0.0942 -0.3352  0.2958
24567W        W67661   5.609  11.276  28.930  0.0602 -0.1320  0.0519
24568W        W67662   6.394   7.972  29.189  0.2372  0.0636  0.0308
24569W        W67663   1.863  10.141  30.326 -0.0455 -0.1604  0.1082
24570W        W67664   6.539  10.244  28.747  0.1954  0.2604 -0.0633
24571W        W67665   4.968   7.602  27.632  0.1060  0.1771  0.4367
24572W        W67666   5.455  10.819  28.656 -0.1622 -0.2821  0.2235
24573W        W67667   4.302   8.446  31.943  0.0647 -0.1744 -0.0268
24574W        W67668   5.496  10.926  30.532  0.2156 -0.2980 -0.0894
24575W        W67669   7.279   7.328  28.287 -0.0169 -0.1695 -0.1703
24576W        W67670   7.391   7.398  30.139 -0.1703  0.1097  0.1636
24577W        W67671   4.995   8.961  29.990  0.0831 -0.2397 -0.1263
24578W        W67672   6.074  10.203  29.424  0.0907 -0.2203  0.0805
24579W        W67673   4.476   8.629   1.191 -0.2432  0.2390 -0.1298
24580W        W67674   8.561   9.291  31.409  0.2362 -0.1215  0.1108
24581W        W67675   6.557   9.385  28.184 -0.0324 -0.3086  0.1876
24582W        W67676   6.020   9.690  29.305 -0.2372 -0.1980 -0.2819
24583W        W67677   7.776   9.282  29.323 -0.1620  0.0632 -0.0183
24584W        W67678   7.348   8.029  29.423  0.0234  0.2742 -0.1116
24585W        W67679   4.192   9.530  30.427 -0.0093 -0.2353  0.0210
24586W        W67680   6.547   8.667  31.188  0.0860 -0.2426  0.0645
24587W        W67681   4.900   7.946  27.317  0.2004 -0.0461  0.2040
24588W        W67682   6.487   6.168  30.291 -0.2734  0.2177  0.0429
24589W        W67683   5.228  11.080  26.868 -0.0386  0.1481 -0.2085
24590W        W67684   6.621  10.587  27.994  0.1278 -0.4332 -0.2046
24591W        W67685   6.752   7.305  28.444  0.3536  0.1205  0.2311
24592W        W67686   2.661   8.420  29.181 -0.3366  0.1968 -0.2838
24593W        W67687   4.883  10.712  31.350  0.2254  0.1980 -0.1363
24594W        W67688   3.660   9.692  26.941 -0.1390 -0.0918 -0.0613
24595W        W67689   5.634   7.756  28.357  0.3540  0.2559 -0.4594
24596W        W67690   5.833  10.835  30.910  0.1183  0.1330  0.1131
24597W        W67691   6.054   8.737   0.448  0.3251 -0.0701 -0.1803
24598W        W67692   7.028   8.250  28.506  0.1017  0.0521 -0.0125
24599W        W67693   6.204   8.465  30.886 -0.4291 -0.0226 -0.1369
24600W        W67694   4.018   9.923  28.504  0.0159  0.2338  0.1275
24601W        W67695   6.057   9.070  29.707 -0.0537  0.2002  0.0907
24602W        W67696   4.988  10.052  29.643  0.1243 -0.3298  0.0087
24603W        W67697   2.130  10.584  31.844  0.1289 -0.1880 -0.0796
24604W        W67698   5.608  11.748  28.292 -0.0139  0.2415  0.2571
24605W        W67699   3.759   7.359  30.779 -0.0086 -0.5446 -0.2217
24606W        W67700   7.643   9.470  30.048 -0.0216 -0.0119 -0.0357
24607W        W67701   6.540   9.607  28.686  0.3191  0.0466  0.2052
24608W        W67702   6.381   8.242  28.641  0.0266 -0.1904 -0.1413
24609W        W67703   4.003  10.417  30.140 -0.2329 -0.0094  0.0689
24610W        W67704   3.893   9.426  31.295 -0.1271  0.1987  0.0810
24611W        W67705   6.502   9.970  30.976  0.1625  0.0283  0.3659
24612W        W67706   7.672   9.696  29.094 -0.0017 -0.1255 -0.0398
24613W        W67707   5.403   8.692  30.861 -0.1717  0.0722 -0.1623
24614W        W67708   3.232   7.340  29.299  0.1534 -0.0332  0.0574
24615W        W67709   6.648   9.399  31.914  0.1160 -0.1211  0.1203
24616W        W67710   5.967   9.870  31.195 -0.3061 -0.0849  0.1688
24617W        W67711   4.501   7.353  29.800 -0.0058  0.0123  0.1494
24618W        W67712   6.808   8.695  28.623  0.3728 -0.0592  0.1077
24619W        W67713   4.454  11.273   0.096 -0.0737 -0.3478 -0.0432
24620W        W67714   1.902   9.219  30.763 -0.2000 -0.1805  0.1095
24621W        W67715   3.049  11.083  30.142 -0.1999  0.0573 -0.2959
24622W        W67716   5.730   7.846  27.849  0.1430 -0.3605 -0.5927
24623W        W67717   6.845   8.669  28.077  0.0617  0.2723 -0.1927
24624W        W67718   6.382  11.154  28.731  0.1834 -0.3595 -0.1158
24625W        W67719   3.840   9.318  27.720 -0.0725  0.3205  0.2840
24626W        W67720   3.840  10.505  29.434  0.2671  0.0141  0.3137
24627W        W67721   2.955   9.778  26.520  0.0232 -0.2295  0.0828
24628W        W67722   7.706  11.390  28.004 -0.0561  0.3507  0.2251
24629W        W67723   4.036  11.026  27.994 -0.1929 -0.0281 -0.2996
24630W        W67724   6.897   9.320  29.600 -0.1638 -0.0675  0.4692
24631W        W67725   6.034   7.827  25.934 -0.0677  0.1763  0.0095
24632W        W67726   6.377   7.017  29.169  0.0166  0.2480 -0.2140
24633W        W67727   7.321   8.505  28.222 -0.0503 -0.0791 -0.0739
24634W        W67728   6.323  10.909  30.846 -0.1053 -0.1631 -0.1784
24635W        W67729   3.444   8.102  29.119  0.1033  0.1630  0.1872
24636W        W67730   3.450   9.207  26.979  0.3682 -0.2264 -0.1193
24637W        W67731   4.454   8.065  31.114 -0.0202  0.2315 -0.0643
24638W        W67732   7.113   6.037  30.748  0.0033  0.0541 -0.2264
24639W        W67733   5.075  10.208  30.581  0.1643  0.1090  0.0285
24640W        W67734   6.601  10.097  27.813  0.0704  0.0907  0.2524
24641W        W67735   3.536   6.832  28.131  0.1493 -0.2363  0.1752
24642W        W67736   5.276   9.191  29.386  0.1199  0.1748 -0.0949
24643W        W67737   6.968   7.078  29.350  0.2070  0.1219  0.0444
24644W        W67738   5.941   8.857  27.203 -0.2606  0.0374  0.0301
24645W        W67739   5.192   7.050  30.109 -0.0319  0.0836  0.1690
24646W        W67740   4.580  10.073  27.965 -0.2348  0.1311 -0.0754
24647W        W67741   4.602   8.587  29.102 -0.3608 -0.1323 -0.1697
24648W        W67742   6.584  11.479  29.654  0.0748 -0.0062  0.1384
24649W        W67743   3.477   8.038  28.053  0.1364 -0.2552 -0.3955
24650W        W67744   7.746   7.801  27.596 -0.0392  0.0009  0.0404
24651W        W67745   4.100   8.900  30.158 -0.3259  0.1582  0.1428
24652W        W67746   5.392   7.554  30.047  0.0092 -0.3121 -0.0989
24653W        W67747   3.488   7.874  30.049 -0.3376  0.1942 -0.4299
24654W        W67748   7.335  10.030  29.319 -0.0808  0.1853  0.1706
24655W        W67749   6.012  10.010  28.776  0.0225 -0.0481 -0.1467
24656W        W67750   4.166   7.139  30.552 -0.0917  0.1848  0.0234
24657W        W67751   4.778   5.808  28.800 -0.2776  0.0770  0.2664
24658W        W67752   7.905   9.251  31.186  0.1939 -0.0568 -0.2565
24659W        W67753   7.322   8.732  28.684  0.1920  0.0964  0.2034
24660W        W67754   6.671  10.467  31.009  0.1085  0.1126 -0.0417
24661W        W67755   3.929   7.344  30.008 -0.0993 -0.2067  0.0909
24662W        W67756   5.702   7.474  28.756  0.0826  0.2110  0.3668
24663W        W67757   4.743   9.359  29.762 -0.2372  0.0355  0.2777
24664W        W67758   4.559  10.551  30.860 -0.0106 -0.1070 -0.2871
24665W        W67759   7.682  10.573  29.848  0.0650  0.0132 -0.0077
24666W        W67760   4.861   7.269  28.483 -0.2569  0.0789  0.0246
24667W        W67761   6.484  10.496  27.497 -0.0987  0.1405  0.0851
24668W        W67762   6.465  10.039  29.230 -0.0732  0.0825 -0.2297
24669W        W67763   5.721  10.756  26.813  0.1470  0.0615 -0.1064
24670W        W67764   6.732  10.525  29.227 -0.0898  0.0444 -0.0778
24671W        W67765   8.239   9.407  29.325 -0.3621 -0.0585  0.0781
24672W        W67766   4.233   9.546  29.439  0.1506 -0.0696  0.0134
24673W        W67767   6.794   9.270  30.568 -0.1304 -0.0992 -0.2627
24674W        W67768   7.726  12.169  30.582 -0.0910  0.1198  0.2707
24675W        W67769   6.382   7.694  28.357 -0.0508 -0.0410 -0.1914
24676W        W67770   5.050   8.258  29.569 -0.0412  0.0334 -0.0511
24677W        W67771   2.923  10.936  28.760  0.0813  0.1470  0.0056
24678W        W67772   7.899   6.977  29.219  0.1002 -0.1436 -0.1195
24679W        W67773   6.043   7.508  31.075 -0.3758 -0.0192  0.0445
24680W        W67774   6.216  11.520  27.095  0.4682 -0.0199  0.1402
24681W        W67775   6.491   8.176  31.252 -0.1074 -0.2036 -0.2334
24682W        W67776   5.983  11.169  31.276 -0.1255  0.1048  0.0835
24683W        W67777   4.370  11.327   1.202 -0.0644  0.1992 -0.3078
24684W        W67778   4.852  10.384  28.959 -0.2551  0.0385 -0.1794
24685W        W67779   5.099   9.720  30.720 -0.1006 -0.2418  0.3032
24686W        W67780   5.547   8.816  29.781  0.2962 -0.1810 -0.2612
24687W        W67781   6.572  11.269  27.284  0.0347 -0.1862  0.0756
24688W        W67782   7.204   9.505  30.526  0.1644 -0.1129 -0.1238
24689W        W67783   6.139   9.353  28.989  0.0705  0.0052 -0.0074
24690W        W67784   7.178  12.039  29.418  0.3168 -0.1474 -0.1819
24691W        W67785   4.087   7.775  31.317  0.1846 -0.0381 -0.0843
24692W        W67786   7.297   7.840  28.138  0.0638  0.1534  0.1036
24693W        W67787   5.180   8.161  29.089  0.0351 -0.1253 -0.0926
24694W        W67788   4.236   8.660  30.677  0.1648 -0.0187  0.3015
24695W        W67789   3.969   9.292  28.412  0.6100 -0.0316 -0.0904
24696W        W67790   5.085   9.845  28.108 -0.3558 -0.1641  0.1127
24697W        W67791   5.511   9.597  31.688 -0.2374 -0.3264 -0.0367
24698W        W67792   5.075   7.944  30.090 -0.1658 -0.0776 -0.0714
24699W        W67793   3.402   9.540  31.400  0.0259  0.2101  0.0933
24700W        W67794   5.685   8.270  29.252  0.2487  0.1066  0.1375
24701W        W67795   4.557   7.413  27.826  0.2252 -0.5498  0.4435
24702W        W67796   6.368   9.974  28.286  0.0194 -0.4299 -0.1304
24703W        W67797   4.663   7.471  30.646  0.1426  0.0446  0.2175
24704W        W67798   3.130   7.822  29.551 -0.1749 -0.0013 -0.0808
24705W        W67799   6.213  11.058  28.220  0.3554 -0.0896  0.4659
24706W        W67800   6.165  10.351  27.970  0.0307  0.0308 -0.0717
24707W        W67801   3.845   7.700  30.375 -0.1936  0.0669 -0.1166
24708W        W67802   6.891  10.095  30.696 -0.1314  0.0593  0.0087
24709W        W67803   3.971   9.891  27.455 -0.0963 -0.0281 -0.2864
24710W        W67804   4.592   7.902  29.939  0.0727  0.0720 -0.2829
24711W        W67805   3.392   8.477  30.658 -0.0952 -0.0064 -0.1834
24712W        W67806   3.666   8.192  27.240  0.2135  0.4148  0.2302
24713W        W67807   4.859   8.399  30.005 -0.1349  0.0395  0.2649
24714W        W67808   5.887   9.867  28.293  0.1496 -0.1267 -0.0891
24715W        W67809   6.430  11.579  26.606  0.1464  0.2834  0.3688
24716W        W67810   4.734   9.358  30.315 -0.1167 -0.0182  0.1347
24717W        W67811   5.442  10.859  29.723  0.0700 -0.0105 -0.0188
24718W        W67812   3.287   7.681  30.976 -0.0297 -0.2864 -0.3144
24719W        W67813   6.478   8.956  27.868  0.2973  0.1241 -0.0169
24720W        W67814   6.107   9.583  31.638  0.2604 -0.4148  0.1140
24721W        W67815   7.382  10.029  28.815 -0.1428 -0.2954  0.1131
24722W        W67816   6.293   7.757  29.665 -0.1649 -0.1084  0.0538
24723W        W67817   7.040   8.315  30.370 -0.0861 -0.0430 -0.4102
24724W        W67818   3.852   5.846  30.681 -0.0371  0.2256 -0.5915
24725W        W67819   3.660   9.669  30.034 -0.0566 -0.2223  0.2715
24726W        W67820   6.752   8.349  29.009 -0.0831  0.5144  0.1554
24727W        W67821   3.656   7.628  29.007 -0.3378  0.3437 -0.0474
24728W        W67822   6.611   7.484  29.174  0.0545  0.0269  0.1086
24729W        W67823   6.458   9.148  28.596 -0.1075  0.1835  0.0209
24730W        W67824   4.251   9.430  29.970  0.2732 -0.0935  0.0384
24731W        W67825   5.655   6.675  27.541 -0.0038  0.1810 -0.1325
24732W        W67826   5.758   9.213   0.144 -0.0653 -0.2566  0.2401
24733W        W67827   7.400   9.598  29.582 -0.0038 -0.0505 -0.0743
24734W        W67828   7.308  10.267   0.037  0.2115 -0.1887 -0.2671
24735W        W67829   4.694   9.144  28.428  0.1314 -0.2443 -0.0045
24736W        W67830   7.126   9.570  28.647 -0.0047  0.0542  0.2227
24737W        W67831   6.135   9.921  30.687  0.1857  0.0562  0.1295
24738W        W67832   6.977  10.168   0.398 -0.0261 -0.0534  0.1017
24739W        W67833   5.052  11.224  30.924  0.1310 -0.0187 -0.1665
24740W        W67834   6.624   9.487  29.186 -0.2031  0.1052  0.0233
24741W        W67835   3.109   8.117  29.915  0.0377 -0.2850  0.3342
24742W        W67836   5.922   8.428  28.660 -0.0949  0.1034 -0.3349
24743W        W67837   5.735  10.599  29.058 -0.1134 -0.1360 -0.3054
24744W        W67838   6.413   8.742  29.861 -0.2697  0.0219 -0.1612
24745W        W67839   4.610   8.800  29.693  0.1844 -0.1897 -0.2388
24746W        W67840   7.452   8.090  27.046 -0.1256 -0.0833  0.2046
24747W        W67841   5.263  11.503  30.432 -0.0715  0.0554 -0.1501
24748W        W67842   5.835  10.682  28.125 -0.1375 -0.3013  0.2044
24749W        W67843   5.965   9.453  30.725  0.2086  0.0923  0.0244
24750W        W67844   5.985   7.843  30.109  0.0218 -0.1071 -0.3510
24751W        W67845   3.810   7.674   0.554  0.3030  0.0769 -0.1929
24752W        W67846   3.969  10.131   0.528  0.0324  0.0740 -0.3041
24753W        W67847   4.203  11.282   0.530  0.1717  0.1609  0.1267
24754W        W67848   4.398  12.286  31.283 -0.3785  0.0134 -0.0916
24755W        W67849   7.105   7.805  31.678  0.0328 -0.2134 -0.0793
24756W        W67850   3.930   8.188  29.307  0.0305 -0.1484  0.1214
24757W        W67851   4.184   7.610  30.725  0.0393  0.0686  0.0187
24758W        W67852   6.903   9.694   1.835 -0.1060  0.1642 -0.1342
24759W        W67853   5.776  10.380  31.120 -0.1657  0.0141  0.1501
24760W        W67854   5.180   5.823  31.665  0.2654  0.0778 -0.2071
24761W        W67855   6.913   9.672  30.957 -0.2657  0.0706  0.2056
24762W        W67856   3.781   7.933  30.846 -0.0693  0.1626  0.0391
24763W        W67857   7.117   9.464  31.627  0.0848 -0.0937 -0.1303
24764W        W67858   3.975  11.516  31.848 -0.1151 -0.1192 -0.0705
24765W        W67859   2.936   8.783  30.224 -0.0868 -0.1098  0.0954
24766W        W67860   7.172   9.266  31.104  0.3454  0.1141  0.2753
24767W        W67861   5.402   6.419   0.309  0.1547 -0.0380  0.0952
24768W        W67862   5.176   8.093   0.339  0.0945  0.3359 -0.0067
24769W        W67863   5.450   7.559  31.238  0.0323 -0.1371 -0.0864
24770W        W67864   2.114  12.308  31.342  0.0656  0.1403 -0.2145
24771W        W67865   5.437   8.074  30.853  0.1497  0.1662  0.0784
24772W        W67866   4.995   8.975  30.581  0.0365  0.1720 -0.1551
24773W        W67867   4.540   7.495  31.292  0.2087  0.0515  0.1926
24774W        W67868   4.468   7.522  31.977 -0.1342 -0.1207 -0.0731
24775W        W67869   4.517   8.434  31.483 -0.1148 -0.1174  0.0767
24776W        W67870   2.506  11.599  30.724 -0.1174 -0.1251  0.1581
24777W        W67871   3.077   8.323  31.504  0.0156  0.0744 -0.0147
24778W        W67872   4.233   9.222   0.612 -0.2121  0.1322  0.0051
24779W        W67873   4.402  10.384  31.448  0.1342  0.4636  0.4071
24780W        W67874   5.685   7.218  30.428 -0.0199  0.0931  0.2206
24781W        W67875   5.837   9.878  31.929 -0.1382  0.0434  0.1292
24782W        W67876   5.707   7.285  29.643  0.0482  0.0110 -0.0615
24783W        W67877   3.720   9.536  31.820  0.1908 -0.0345 -0.0545
24784W        W67878   4.493   9.202  30.742  0.0088 -0.2680  0.2581
24785W        W67879   4.604   9.767  30.550  0.1196 -0.3139  0.1424
24786W        W67880   6.726  10.525   0.090  0.0397 -0.1857 -0.3867
24787W        W67881   4.563   8.915  30.312 -0.0430 -0.1851  0.0429
24788W        W67882   7.361   8.539  31.488  0.3141  0.0564  0.1929
24789W        W67883   7.852   9.203  30.412  0.1650  0.0218  0.1906
24790W        W67884   4.163   7.282  31.140  0.1822 -0.1017  0.0835
24791W        W67885   3.448   6.839  30.562  0.0316 -0.0364 -0.1965
24792W        W67886   4.732  11.126   0.549 -0.0629  0.2727 -0.0097
24793W        W67887   3.066   7.458   0.190 -0.2571 -0.0275 -0.2872
24794W        W67888   5.766   9.414  31.240  0.2740  0.0056  0.1684
24795W        W67889   5.523   7.978  30.346  0.2066  0.1005 -0.0423
24796W        W67890   5.192   9.471  30.274 -0.0421 -0.1814 -0.0101
24797W        W67891   5.694   9.645   0.415  0.1735 -0.0204 -0.3316
24798W        W67892   3.136   9.804  29.699  0.0785 -0.0710  0.2883
24799W        W67893   7.830   8.672  31.345 -0.3556 -0.2544  0.0333
24800W        W67894   6.347   7.021  30.397  0.0343 -0.0749  0.4526
24801W        W67895   4.840   8.323  31.869  0.0658 -0.2617 -0.2129
24802W        W67896   6.039  10.976  30.015 -0.1075  0.2149 -0.0564
24803W        W67897   4.762   9.466  31.080 -0.2046  0.2250  0.0743
24804W        W67898   5.049   8.437  31.066 -0.0005 -0.0481 -0.2398
24805W        W67899   6.970   8.855  31.454 -0.0588 -0.0739  0.1453
24806W        W67900   2.556  10.795   0.073 -0.1597 -0.0281 -0.1040
24807W        W67901   4.191   9.609  30.945  0.3054  0.0523  0.3252
24808W        W67902   4.377   9.312  31.315  0.2652 -0.1723  0.1400
24809W        W67903   3.621   8.917   0.550  0.3567  0.0370  0.3015
24810W        W67904   5.454  11.959   0.014 -0.1255 -0.2325  0.0279
24811W        W67905   1.983  10.015  31.491 -0.1079 -0.1194 -0.2982
24812W        W67906   3.487   7.764   0.145  0.0590 -0.6397  0.0524
24813W        W67907   7.155  10.307   0.853  0.1142 -0.0417 -0.2568
24814W        W67908   6.648   9.291  31.360  0.0444 -0.2061  0.1433
24815W        W67909   6.484   8.839   0.599 -0.1797 -0.0952 -0.1236
24816W        W67910   4.174  13.102  18.694  0.1191 -0.0711 -0.2161
24817W        W67911   3.590  11.512  16.644  0.2111  0.0587  0.2871
24818W        W67912   6.413  12.951  17.372  0.2441  0.1387  0.0751
24819W        W67913   6.701  12.716  17.721  0.2934  0.2807  0.0533
24820W        W67914   4.380  11.941  17.672 -0.5999  0.0551  0.0894
24821W        W67915   6.417  13.668  18.721  0.2770  0.1900  0.0618
24822W        W67916   4.532  13.149  20.069  0.1790  0.1488  0.2697
24823W        W67917   6.202  12.311  18.429 -0.2851  0.0959 -0.2088
24824W        W67918   6.099  13.575  19.703 -0.0471  0.0897  0.2662
24825W        W67919   5.513  12.916  16.691 -0.2342 -0.1725  0.0139
24826W        W67920   5.269  12.232  18.258 -0.0137 -0.0947  0.2677
24827W        W67921   7.056  13.608  20.547 -0.0332  0.0602 -0.1563
24828W        W67922   5.169  11.000  17.146  0.2261 -0.0001  0.1735
24829W        W67923   3.305  10.344  17.381 -0.2131 -0.2221  0.0730
24830W        W67924   7.305  13.001  19.038  0.2485  0.1688  0.1898
24831W        W67925   2.782  12.156  17.377  0.3306  0.0369  0.0551
24832W        W67926   4.593  11.078  17.016  0.0156  0.1347 -0.1128
24833W        W67927   4.761  10.431  16.839  0.0333 -0.2081  0.0764
24834W        W67928   5.875  14.625  18.676  0.2360 -0.3498  0.0275
24835W        W67929   5.425  11.920  19.105  0.1205  0.0936 -0.0132
24836W        W67930   4.474  12.581  20.367  0.1201 -0.0452 -0.0355
24837W        W67931   5.167  13.597  17.445  0.2336 -0.1700  0.3064
24838W        W67932   1.604  11.263  17.425  0.2004  0.1101  0.2020
24839W        W67933   2.859  11.246  17.335 -0.4288 -0.0636  0.3204
24840W        W67934   4.834  13.745  19.127 -0.1831  0.2589 -0.1317
24841W        W67935   7.185  12.010  17.215 -0.2892 -0.2309  0.2434
24842W        W67936   6.679  12.236  17.820 -0.1257 -0.1452 -0.3766
24843W        W67937   4.741  14.141  19.479  0.0182  0.1160 -0.0129
24844W        W67938   5.561  13.310  19.835  0.0080 -0.0972  0.0207
24845W        W67939   6.402  11.744  19.953  0.1779 -0.3950  0.2095
24846W        W67940   3.292  13.201  17.907  0.0687  0.1319 -0.0204
24847W        W67941   3.402  13.925  18.645 -0.0321 -0.0294 -0.0161
24848W        W67942   4.853  13.813  17.705  0.0521  0.0893 -0.1018
24849W        W67943   7.604  14.708  16.802  0.0957 -0.0602  0.1674
24850W        W67944   5.694  14.143  19.048  0.0908 -0.3057 -0.2784
24851W        W67945   5.116  13.575  19.531 -0.0246  0.1467  0.1202
24852W        W67946   4.278  13.456  16.407  0.1697  0.0528 -0.2382
24853W        W67947   5.179  14.023  19.737  0.1162  0.0270 -0.1520
24854W        W67948   4.628  12.326  19.494 -0.0523 -0.3191  0.2692
24855W        W67949   6.119  12.782  18.335 -0.1407 -0.0697 -0.3236
24856W        W67950   5.857  11.684  16.719 -0.1762  0.2957  0.0287
24857W        W67951   4.861  13.593  17.091  0.0538 -0.0966  0.0816
24858W        W67952   5.416  12.783  19.938 -0.4709 -0.3446  0.0025
24859W        W67953   5.213  14.158  19.193  0.1078 -0.0908  0.1186
24860W        W67954   2.625  12.575  18.344  0.1195 -0.1365 -0.0550
24861W        W67955   6.994  11.273  20.815 -0.4632 -0.1739 -0.1562
24862W        W67956   4.396  14.143  16.681  0.1678  0.3394 -0.2118
24863W        W67957   4.125  11.003  17.507 -0.1081  0.2372  0.1010
24864W        W67958   4.522  11.091  17.910  0.4124  0.3293 -0.1033
24865W        W67959   6.419  11.719  16.698  0.2900 -0.1578  0.0024
24866W        W67960   5.326  10.613  17.525 -0.0335 -0.1714 -0.0276
24867W        W67961   4.544  13.363  17.760 -0.0418  0.1440 -0.2320
24868W        W67962   4.867  11.606  16.509 -0.3176 -0.1040 -0.2545
24869W        W67963   5.980  12.104  18.855 -0.5570  0.2198  0.0382
24870W        W67964   6.584  12.440  17.330  0.0107 -0.1599 -0.1972
24871W        W67965   5.641  12.365  19.793 -0.1743  0.2923  0.0968
24872W        W67966   4.797  12.759  19.703 -0.3429 -0.3696  0.1166
24873W        W67967   3.503  12.739  17.854 -0.3572 -0.2825  0.0081
24874W        W67968   6.365  13.507  17.135  0.2080  0.0913 -0.1778
24875W        W67969   5.561  13.756  18.648 -0.1744  0.1126 -0.1619
24876W        W67970   6.066  15.128  16.760 -0.3285  0.0415 -0.2518
24877W        W67971   2.679  11.786  16.487 -0.1339 -0.0324 -0.3489
24878W        W67972   3.960  13.414  19.984  0.1868 -0.0538  0.0615
24879W        W67973   5.226  12.516  19.518  0.3320 -0.2756  0.3098
24880W        W67974   4.029   9.773  16.004  0.1814 -0.0439 -0.1312
24881W        W67975   8.073  14.321  19.097  0.0297 -0.0864  0.1509
24882W        W67976   4.522  14.189  20.288 -0.0717  0.0405  0.0545
24883W        W67977   6.573  11.908  17.155 -0.0759  0.0501  0.0370
24884W        W67978   4.863  13.003  17.593  0.1625 -0.3060 -0.0900
24885W        W67979   7.991  13.436  18.824 -0.0616  0.3267 -0.3887
24886W        W67980   6.798  13.271  17.249  0.2858 -0.1332  0.0919
24887W        W67981   6.049  12.967  18.852  0.0580  0.0428  0.0552
24888W        W67982   6.479  12.056  18.715  0.0827 -0.1253  0.2681
24889W        W67983   5.363  13.014  16.177 -0.1719  0.1450  0.0459
24890W        W67984   4.747  13.052  17.123  0.3551 -0.1594 -0.0381
24891W        W67985   6.342  12.834  19.371  0.1979  0.2662  0.1711
24892W        W67986   6.962  13.073  18.115 -0.1380 -0.2680  0.2871
24893W        W67987   3.749  13.342  19.476 -0.0947  0.3298  0.2147
24894W        W67988   5.965  11.989  19.947 -0.2105 -0.0048 -0.0367
24895W        W67989   6.176  12.273  20.800  0.1089  0.0701  0.3875
24896W        W67990   3.836  13.305  16.602 -0.4082  0.0243 -0.1343
24897W        W67991   2.081  13.717  18.611  0.2367 -0.0556 -0.2550
24898W        W67992   2.179  13.045  17.814  0.0328 -0.3814  0.1407
24899W        W67993   3.958  12.800  17.396 -0.2277 -0.0821  0.1852
24900W        W67994   4.269  14.417  18.848 -0.0326  0.3473 -0.0160
24901W        W67995   6.895  10.368  17.276  0.3033 -0.1181 -0.1320
24902W        W67996   4.718  11.600  17.903  0.2360  0.1749  0.2382
24903W        W67997   5.450  11.346  17.284 -0.1589  0.2035  0.1760
24904W        W67998   2.732  13.811  17.635 -0.1320 -0.1040  0.4955
24905W        W67999   6.418  14.735  17.637  0.1862 -0.1439  0.1652
24906W        W68000   6.502  12.231  16.711 -0.0377 -0.3592 -0.1730
24907W        W68001   6.328  14.028  17.905  0.2650 -0.0064 -0.0450
24908W        W68002   3.155  12.389  17.684  0.2459 -0.2866 -0.3687
24909W        W68003   4.507  11.923  18.255  0.4235 -0.1748 -0.2149
24910W        W68004   4.062  10.995  19.144  0.2105  0.0803 -0.2671
24911W        W68005   3.505  11.667  17.903  0.0123  0.2631 -0.1564
24912W        W68006   7.457  11.989  18.981  0.0046 -0.3532 -0.1363
24913W        W68007   4.140  11.454  15.933  0.0803  0.1955  0.3097
24914W        W68008   5.316  12.786  21.092  0.0125 -0.0002 -0.0855
24915W        W68009   5.353  12.084  17.753  0.1985  0.0998 -0.2228
24916W        W68010   3.399  14.364  18.791 -0.0755  0.0055  0.0484
24917W        W68011   6.986  11.750  20.031 -0.1261  0.1474  0.2210
24918W        W68012   5.115  12.651  16.862 -0.0463  0.0210  0.0948
24919W        W68013   7.022  13.163  19.723 -0.2315 -0.1173 -0.0574
24920W        W68014   4.725  14.855  18.109  0.1790 -0.2626  0.1520
24921W        W68015   5.363  11.034  19.279  0.2104  0.3556 -0.1467
24922W        W68016   3.283  11.120  16.510 -0.2328  0.0118  0.1033
24923W        W68017   3.733  13.352  18.016 -0.2337  0.2198 -0.1172
24924W        W68018   5.198  14.073  18.178 -0.1264  0.0113  0.2963
24925W        W68019   4.467  12.415  17.871  0.2226  0.3184 -0.0133
24926W        W68020   6.994  13.388  18.793 -0.1625 -0.2133  0.2782
24927W        W68021   5.006  13.363  17.943  0.2372  0.0347  0.0145
24928W        W68022   3.529  13.947  19.169  0.2606 -0.3129  0.0473
24929W        W68023   6.286  11.267  19.915  0.0901 -0.0944 -0.1260
24930W        W68024   5.483  12.549  17.549 -0.0299 -0.1444  0.4148
24931W        W68025   6.084  11.656  19.010  0.0059 -0.2173  0.0232
24932W        W68026   5.178  10.422  16.481  0.0836 -0.0400  0.2091
24933W        W68027   5.996  14.218  17.071 -0.1068  0.1514  0.1589
24934W        W68028   3.442  13.603  16.689  0.3488  0.2565  0.1290
24935W        W68029   3.601  12.174  17.895  0.1838 -0.2555  0.1367
24936W        W68030   5.777  12.901  17.181 -0.0892  0.3447 -0.1104
24937W        W68031   6.249  11.944  18.120  0.0444 -0.0073 -0.0137
24938W        W68032   2.512  13.516  21.648 -0.1537  0.0272 -0.1256
24939W        W68033   4.873  12.376  21.154 -0.2225  0.1161 -0.0180
24940W        W68034   3.523  13.736  17.290 -0.1349 -0.2291 -0.0370
24941W        W68035   4.053  12.150  19.575 -0.0894  0.1110 -0.1836
24942W        W68036   5.558  10.799  16.780  0.2483 -0.2892  0.0669
24943W        W68037   6.909  11.846  16.764  0.0223 -0.0224  0.1622
24944W        W68038   5.302  12.361  20.894  0.1696  0.1801  0.2598
24945W        W68039   7.367  13.297  18.458 -0.0418 -0.0013 -0.1898
24946W        W68040   6.139  10.738  17.001  0.1917  0.3287  0.0954
24947W        W68041   5.884  11.218  16.994  0.0144  0.1869  0.1732
24948W        W68042   2.657  13.312  19.517  0.1964 -0.1181 -0.2621
24949W        W68043   5.600  14.399  17.857 -0.2969  0.1449 -0.0489
24950W        W68044   6.677  12.393  20.490  0.1279 -0.0333 -0.0492
24951W        W68045   5.619  12.329  16.770 -0.0008  0.0896  0.0496
24952W        W68046   6.269  15.954  17.483  0.1316  0.1404  0.1091
24953W        W68047   3.385  13.286  17.066 -0.0868  0.2241  0.3611
24954W        W68048   7.014  12.041  21.912  0.1482  0.0008 -0.2154
24955W        W68049   7.110  14.321  18.959  0.0859  0.3242 -0.1469
24956W        W68050   4.769  11.525  18.375 -0.3414  0.0677  0.0889
24957W        W68051   3.716  12.687  16.427  0.1662 -0.0573 -0.3613
24958W        W68052   6.316  10.531  19.346  0.3781 -0.1243 -0.4844
24959W        W68053   3.962  12.468  17.034 -0.0872  0.2686  0.0541
24960W        W68054   7.461  11.239  18.085  0.0039 -0.1643  0.0794
24961W        W68055   5.821  11.961  17.809 -0.0570 -0.0716  0.1127
24962W        W68056   5.091  11.081  18.183  0.1430  0.0527  0.1526
24963W        W68057   7.135  11.710  21.260 -0.0495 -0.1901  0.0265
24964W        W68058   6.302  12.965  17.957  0.4708  0.0009 -0.0782
24965W        W68059   5.333  12.007  19.640 -0.0279  0.1320 -0.0408
24966W        W68060   3.948  12.558  17.926  0.0434 -0.2216  0.3163
24967W        W68061   5.628  12.418  18.649 -0.1587 -0.1671  0.0958
24968W        W68062   4.689  11.294  19.241  0.0749 -0.2442 -0.1440
24969W        W68063   5.849  13.452  20.217  0.5614  0.0948 -0.2750
24970W        W68064   5.838  13.287  21.522 -0.0054 -0.0850 -0.3411
24971W        W68065   5.885  13.325  18.527  0.2894  0.3851  0.2414
24972W        W68066   4.462  12.751  17.478  0.1098  0.3805 -0.1111
24973W        W68067   4.987  11.190  17.626  0.2170  0.1648 -0.1395
24974W        W68068   3.815  15.969  17.598 -0.0449  0.2114  0.1399
24975W        W68069   3.932  14.301  17.949 -0.1054 -0.1016 -0.1368
24976W        W68070   5.885  11.269  17.567 -0.0355  0.2049 -0.2107
24977W        W68071   3.727  12.344  18.364 -0.3168  0.4507  0.1257
24978W        W68072   5.821  13.251  16.125  0.3376 -0.0355 -0.2708
24979W        W68073   6.653  12.077  20.934  0.1227 -0.0819  0.0198
24980W        W68074   3.897  13.517  17.067 -0.0840  0.3876 -0.0477
24981W        W68075   7.244  10.808  17.923 -0.2589  0.1843  0.0056
24982W        W68076   3.190  13.609  17.633 -0.1306  0.1280 -0.1361
24983W        W68077   4.414  13.302  18.240  0.0818  0.2493  0.1794
24984W        W68078   3.699  11.811  17.017 -0.1824  0.1648 -0.1152
24985W        W68079   5.871  11.356  18.066 -0.0385  0.1089 -0.2635
24986W        W68080   5.912  12.841  17.632  0.0076  0.1138  0.3452
24987W        W68081   4.072  12.096  18.036 -0.1886  0.2760 -0.3284
24988W        W68082   5.022  10.847  16.707  0.3072  0.1731  0.1063
24989W        W68083   3.854  15.188  18.868 -0.1980  0.1515  0.0156
24990W        W68084   6.892  11.188  19.975  0.3125  0.0737  0.0691
24991W        W68085   5.688  10.878  17.325  0.0276  0.0829  0.3283
24992W        W68086   6.523  13.205  18.995  0.2530 -0.1144  0.0553
24993W        W68087   4.082  12.947  20.217 -0.1408  0.1327 -0.1590
24994W        W68088   3.801  11.781  16.101  0.0518 -0.0687 -0.2260
24995W        W68089   6.713  12.329  19.196 -0.1107 -0.2335  0.0242
24996W        W68090   5.413  12.964  17.763  0.2375 -0.0543  0.3569
24997W        W68091   1.179  13.068  18.619 -0.2038 -0.0054 -0.0708
24998W        W68092   4.354  13.928  19.165 -0.2538 -0.2267 -0.0492
24999W        W68093   3.564  12.873  19.106  0.0795 -0.0717  0.1324
25000W        W68094   2.914  13.377  17.290 -0.0099 -0.0746  0.0824
25001W        W68095   6.040  13.257  19.303  0.3150  0.0621  0.1832
25002W        W68096   5.681  12.291  19.266 -0.0340 -0.0458 -0.1102
25003W        W68097   4.154  11.453  17.712  0.1266 -0.1087 -0.3819
25004W        W68098   4.621  11.096  16.537  0.1280  0.0827 -0.2586
25005W        W68099   4.807  12.912  18.126  0.2887 -0.3570 -0.0715
25006W        W68100   6.579  12.662  18.209 -0.4861  0.0482 -0.0202
25007W        W68101   4.266  12.355  18.447  0.0359  0.1274 -0.2141
25008W        W68102   4.318  13.971  20.768  0.2320  0.1444 -0.1775
25009W        W68103   4.557  10.482  18.124 -0.3089 -0.2206  0.0223
25010W        W68104   6.935  14.236  17.080  0.1822 -0.1206 -0.1883
25011W        W68105   6.484  11.911  19.264 -0.1004  0.2120 -0.0406
25012W        W68106   3.944  13.850  16.648  0.1277  0.1938 -0.0272
25013W        W68107   4.353  11.965  19.184  0.0594 -0.0061  0.1043
25014W        W68108   4.118  12.951  16.837  0.2321 -0.0764 -0.0554
25015W        W68109   4.276  11.481  18.279  0.3306 -0.0023 -0.0055
25016W        W68110   3.090  13.872  17.118  0.1518 -0.0591 -0.1544
25017W        W68111   4.306  14.178  17.560 -0.3102 -0.0369 -0.2910
25018W        W68112   4.265  13.895  20.006 -0.0554  0.2260 -0.2206
25019W        W68113   7.864  10.024  16.342  0.0161 -0.0776 -0.1542
25020W        W68114   5.047  14.337  17.638 -0.0427 -0.0260  0.2872
25021W        W68115   4.849  13.691  18.258  0.1837  0.0814 -0.1268
25022W        W68116   5.769  12.592  20.837  0.1090 -0.3117 -0.2278
25023W        W68117   5.986  12.173  15.945  0.2616  0.0343 -0.1853
25024W        W68118   6.655  11.513  21.045 -0.0290 -0.3217  0.1680
25025W        W68119   4.757  11.839  18.893  0.2693  0.0351  0.2319
25026W        W68120   5.683  12.512  18.086 -0.0599  0.0159  0.1512
25027W        W68121   4.493  11.124  18.477 -0.0468  0.2870  0.2621
25028W        W68122   5.729  14.368  20.567  0.1505  0.0476  0.0753
25029W        W68123   3.723  13.261  20.478  0.2487 -0.0154 -0.1147
25030W        W68124   6.508  11.508  18.374  0.1482 -0.1648 -0.0814
25031W        W68125   4.608  11.461  16.155 -0.2232 -0.0869 -0.0561
25032W        W68126   5.171  13.429  18.568 -0.0036 -0.0258  0.0747
25033W        W68127   7.037  13.647  16.229 -0.3338 -0.0680 -0.0344
25034W        W68128   5.783  13.957  17.786  0.2650  0.1147  0.1262
25035W        W68129   6.856  11.322  17.042 -0.2561  0.0195 -0.1965
25036W        W68130   4.703  13.346  18.624  0.4677 -0.0236 -0.5820
25037W        W68131   5.062  12.542  17.828  0.0894  0.0149  0.1779
25038W        W68132   4.733  13.412  16.628 -0.0383  0.2853 -0.0646
25039W        W68133   5.417  13.636  18.121 -0.1171 -0.3728  0.1069
25040W        W68134   4.322  11.831  19.962  0.0053 -0.0465 -0.2494
25041W        W68135   5.529  13.153  18.197  0.3778 -0.2478  0.4026
25042W        W68136   5.805  12.036  18.310 -0.1037 -0.0289 -0.0202
25043W        W68137   5.252  12.183  17.259  0.2259 -0.1677 -0.1063
25044W        W68138   6.084  11.262  18.643 -0.0497 -0.1718  0.0541
25045W        W68139   5.602  11.879  21.328 -0.2492  0.1559 -0.3565
25046W        W68140   2.517  12.716  17.857  0.1237  0.0493 -0.0706
25047W        W68141   6.356  13.514  20.153 -0.1047 -0.4489  0.1833
25048W        W68142   6.891  11.392  16.501  0.0930 -0.1599 -0.0146
25049W        W68143   7.184  11.639  18.177 -0.1674 -0.1879 -0.2622
25050W        W68144   6.234  12.120  17.518  0.2658 -0.1382 -0.0654
25051W        W68145   5.369  12.544  16.363 -0.4256 -0.1729  0.1051
25052W        W68146   4.963  12.090  19.312 -0.2444 -0.1144  0.2207
25053W        W68147   6.708  12.632  19.617  0.1714 -0.0409 -0.1867
25054W        W68148   2.532  11.278  16.970  0.1546 -0.0559 -0.0008
25055W        W68149   6.194  12.597  17.035  0.0363 -0.3008  0.3078
25056W        W68150   5.829  13.358  16.692 -0.1407 -0.2294 -0.1417
25057W        W68151   5.557  13.308  18.941  0.2932 -0.2527  0.0848
25058W        W68152   5.752  12.221  17.280  0.1130  0.2221 -0.2968
25059W        W68153   4.554  10.869  19.022  0.2853  0.1220 -0.0623
25060W        W68154   4.507  12.903  19.156 -0.1864 -0.1849 -0.1015
25061W        W68155   2.392  11.780  17.226  0.0651 -0.5098 -0.2473
25062W        W68156   3.914  11.842  17.462 -0.2106 -0.1935  0.0307
25063W        W68157   7.201  13.068  20.549  0.0072 -0.0634  0.0465
25064W        W68158   7.289  13.419  20.134 -0.0590 -0.1089  0.1342
25065W        W68159   5.489  11.295  16.720 -0.0377 -0.1990 -0.0017
25066W        W68160   8.345  11.685  19.136 -0.0924 -0.2686  0.0886
25067W        W68161   3.526  14.562  17.667  0.5296  0.0711  0.1231
25068W        W68162   5.819  12.767  19.451  0.0020  0.2246 -0.0097
25069W        W68163   4.904  14.848  21.027  0.0884  0.0200 -0.2591
25070W        W68164   4.429  13.407  19.105  0.2042 -0.2673  0.1549
25071W        W68165   4.041  13.036  19.204 -0.0908  0.0520 -0.1809
25072W        W68166   4.649  12.801  18.668 -0.0519 -0.0438 -0.1252
25073W        W68167   5.413  11.846  16.952  0.2644 -0.1535 -0.1472
25074W        W68168   6.189  12.432  17.939  0.2024 -0.2289  0.0138
25075W        W68169   8.046  12.614  18.871  0.1855  0.0359 -0.0405
25076W        W68170   6.152  13.074  22.589  0.2557 -0.1119  0.0024
25077W        W68171   4.708  12.162  17.412  0.0870  0.0215 -0.3003
25078W        W68172   6.578  14.176  20.376  0.1520  0.0732 -0.3373
25079W        W68173   7.525  12.792  17.638  0.0231 -0.0699 -0.0410
25080W        W68174   4.736  14.265  18.967  0.3271 -0.1586 -0.2397
25081W        W68175   3.476  11.979  19.324 -0.0753  0.1759 -0.0599
25082W        W68176   5.414  13.601  21.743 -0.0598 -0.0396 -0.1189
25083W        W68177   4.434  13.701  17.395  0.2032 -0.0709 -0.1213
25084W        W68178   5.016  11.489  17.077  0.0599  0.1653  0.2469
25085W        W68179   4.093  14.068  17.060  0.0013 -0.0229 -0.2883
25086W        W68180   5.623  13.085  20.783 -0.0418  0.1350 -0.1596
25087W        W68181   2.026  12.517  19.770  0.4681 -0.0562  0.2065
25088W        W68182   3.514  14.060  16.886  0.0417  0.2423 -0.1463
25089W        W68183   7.487  13.466  17.801  0.2851  0.4430 -0.1006
25090W        W68184   6.634  13.236  16.224 -0.1269 -0.0222 -0.1761
25091W        W68185   5.668  13.732  19.470  0.2342  0.0089  0.0362
25092W        W68186   4.800  11.984  16.926  0.0572  0.1905  0.0706
25093W        W68187   3.930  14.277  19.218  0.0812  0.1356  0.1622
25094W        W68188   2.083  12.443  17.806 -0.0907 -0.2764 -0.1720
25095W        W68189   6.132  14.060  16.436  0.1036  0.0106  0.0824
25096W        W68190   4.593  14.686  17.385  0.0172  0.0229 -0.0951
25097W        W68191   6.831  11.918  19.602  0.0304  0.1797  0.0952
25098W        W68192   5.226  10.187  17.212  0.1841  0.1010 -0.0590
25099W        W68193   7.742  12.254  18.632 -0.0968 -0.1948 -0.0952
25100W        W68194   6.933  12.348  16.885 -0.1271  0.1008 -0.1407
25101W        W68195   6.426  13.276  21.483 -0.2168  0.1930  0.0254
25102W        W68196   4.790  12.376  18.335  0.0898 -0.2693  0.2470
25103W        W68197   5.552  10.999  16.327 -0.2064 -0.1075  0.1693
25104W        W68198   5.456  12.785  19.090  0.0295  0.1611  0.0140
25105W        W68199   6.019  10.129  19.541 -0.1432  0.0085  0.1849
25106W        W68200   4.209  15.215  20.215 -0.0023  0.2419  0.0333
25107W        W68201   6.247  16.004  18.700  0.0086  0.0427 -0.1049
25108W        W68202   4.497  12.670  17.015 -0.0591  0.1762 -0.0068
25109W        W68203   5.917  13.315  17.961  0.0861  0.0426 -0.2790
25110W        W68204   7.308  10.822  17.406  0.0119 -0.0176  0.0031
25111W        W68205   4.150  12.551  16.573  0.1125  0.1890  0.3781
25112W        W68206   4.983  10.728  17.853 -0.1165 -0.2803  0.2442
25113W        W68207   5.416  14.637  17.426  0.1808  0.0746  0.0066
25114W        W68208   2.806  14.657  17.212  0.1703  0.1993 -0.0291
25115W        W68209   5.939  15.129  18.521  0.1233 -0.0281  0.1026
25116W        W68210   3.419  11.939  16.410 -0.1237 -0.0397 -0.2422
25117W        W68211   6.276  11.651  17.634 -0.1861 -0.0921  0.1802
25118W        W68212   6.039  11.981  19.419 -0.0459 -0.0571  0.2493
25119W        W68213   7.304  11.473  18.971 -0.0263 -0.0448  0.1054
25120W        W68214   4.616  11.508  17.374 -0.2250  0.0429 -0.1985
25121W        W68215   6.124  12.071  17.007  0.0968 -0.3917 -0.1057
25122W        W68216   5.344  13.215  20.353 -0.0183 -0.0224 -0.0099
25123W        W68217   5.438  11.379  17.831  0.1584  0.0793  0.3025
25124W        W68218   5.135  12.150  16.596  0.0651  0.0579  0.0669
25125W        W68219   6.440  12.541  18.824  0.1264  0.2200  0.1469
25126W        W68220   5.567  12.095  16.260 -0.0878 -0.3016 -0.2668
25127W        W68221   6.526  13.185  19.640  0.2407  0.1868 -0.3486
25128W        W68222   3.791  10.663  16.978  0.0773 -0.2941  0.0373
25129W        W68223   6.000  12.272  16.481  0.0255 -0.1774  0.1250
25130W        W68224   4.085  12.338  17.514 -0.0484 -0.2819 -0.1004
25131W        W68225   5.531  14.050  21.347  0.0787 -0.0595  0.0154
25132W        W68226   6.170  12.382  19.199  0.4350 -0.1780 -0.0392
25133W        W68227   4.180  10.860  16.728 -0.2253  0.1730 -0.0484
25134W        W68228   6.253  13.112  16.896 -0.1735  0.1935  0.2267
25135W        W68229   8.166  12.953  18.579 -0.0878 -0.0634 -0.2479
25136W        W68230   6.134  14.506  16.682  0.0444  0.0873 -0.1435
25137W        W68231   6.676  11.715  17.942  0.0826  0.1383 -0.2657
25138W        W68232   5.574  12.915  18.617 -0.1894 -0.1102  0.1253
25139W        W68233   2.301  11.427  17.524 -0.0580  0.0500 -0.1142
25140W        W68234   5.628  14.233  18.480  0.1770  0.3847  0.0905
25141W        W68235   4.333  15.158  18.857 -0.3352 -0.3330 -0.1205
25142W        W68236   4.487   8.772  16.839  0.0260  0.0818 -0.0534
25143W        W68237   5.663  11.710  18.728  0.0004 -0.1380 -0.1073
25144W        W68238   4.084  14.607  17.525 -0.1461 -0.0572  0.3588
25145W        W68239   6.827  10.919  16.448  0.0683 -0.2168  0.0980
25146W        W68240   7.528  11.295  18.547  0.0809 -0.3084  0.0925
25147W        W68241   5.335  13.722  16.829 -0.1667 -0.1798  0.0172
25148W        W68242   6.480  10.937  20.204  0.0485 -0.2514 -0.0476
25149W        W68243   7.136  12.788  20.026 -0.1939 -0.3948 -0.0361
25150W        W68244   4.866  14.051  20.720 -0.0119  0.2128  0.3970
25151W        W68245   4.382  13.634  16.898  0.0079  0.3221 -0.1442
25152W        W68246   6.200  12.678  20.548  0.1739  0.4483  0.0826
25153W        W68247   4.578  13.857  18.707  0.4613  0.1641  0.0390
25154W        W68248   4.642  14.099  17.163  0.0410 -0.0627  0.1663
25155W        W68249   5.981  13.672  18.965 -0.1013 -0.2279 -0.1028
25156W        W68250   5.249  13.025  17.256  0.0254  0.2853 -0.1272
25157W        W68251   6.566  12.780  16.636 -0.0748  0.0704  0.1067
25158W        W68252   3.690  11.269  16.222  0.0726 -0.1080  0.0813
25159W        W68253   6.585  10.884  17.189 -0.1225  0.2092 -0.0175
25160W        W68254   5.238  10.511  19.125  0.1363  0.0039 -0.0617
25161W        W68255   5.279  13.006  19.512 -0.1170  0.1670  0.3181
25162W        W68256   2.913  12.953  16.644 -0.0841  0.1587 -0.2931
25163W        W68257   3.899  11.984  16.620 -0.1790 -0.0428 -0.0383
25164W        W68258   4.550  12.301  18.851 -0.1136  0.0277  0.2291
25165W        W68259   5.061  12.345  19.972 -0.0357  0.2515 -0.1401
25166W        W68260   3.991  10.435  21.652 -0.5621 -0.1880  0.2097
25167W        W68261   3.644  13.190  17.476 -0.0787  0.0338 -0.3643
25168W        W68262   2.854  11.698  17.220  0.0940 -0.0324  0.0412
25169W        W68263   7.950  13.854  17.176  0.1132  0.4230  0.2155
25170W        W68264   5.526  10.912  17.901  0.3024  0.4891 -0.1404
25171W        W68265   4.352  10.397  17.669 -0.0129  0.0003  0.2357
25172W        W68266   6.443  13.370  17.795 -0.1230 -0.0085 -0.4188
25173W        W68267   5.147  12.725  18.433 -0.2517 -0.0292  0.1892
25174W        W68268   4.974  10.286  17.658 -0.3017  0.3120 -0.2061
25175W        W68269   7.356  13.961  19.737  0.0856 -0.1816 -0.1617
25176W        W68270   2.386  13.036  16.612  0.1610  0.1435 -0.0656
25177W        W68271   5.954  12.653  22.288  0.3363 -0.2507 -0.4388
25178W        W68272   5.762  12.441  20.303 -0.2947 -0.0950 -0.3324
25179W        W68273   3.716  10.716  15.691  0.1080  0.1388 -0.1689
25180W        W68274   5.137  11.724  18.090 -0.2424  0.0398  0.0001
25181W        W68275   5.993  13.792  16.848  0.1757  0.1225 -0.0426
25182W        W68276   6.396  13.562  19.296 -0.2306  0.0980  0.1180
25183W        W68277   6.071  14.466  19.677  0.2393  0.1380  0.0089
25184W        W68278   5.582  14.571  21.470 -0.3697 -0.0168 -0.2718
25185W        W68279   2.663  12.167  18.785  0.0191 -0.0997  0.0781
25186W        W68280   6.328  12.520  16.256  0.0748 -0.2462 -0.4052
25187W        W68281   4.782  13.175  19.453  0.0196 -0.1415  0.2230
25188W        W68282   7.834  14.458  17.506 -0.0151  0.0952  0.0768
25189W        W68283   8.272  10.860  19.042 -0.1601  0.0231 -0.0919
25190W        W68284   7.166  13.569  17.354  0.0671  0.2144  0.0119
25191W        W68285   4.692  11.741  19.521  0.1072  0.2482  0.0071
25192W        W68286   3.982  12.312  20.036  0.1245  0.0233  0.2330
25193W        W68287   7.859  13.224  18.307  0.1959  0.0884  0.1289
25194W        W68288   4.914  12.579  17.321  0.2997 -0.1668  0.0547
25195W        W68289   6.420  10.456  17.428  0.3136  0.1495 -0.1018
25196W        W68290   4.458  13.895  18.039 -0.1607 -0.2580  0.2485
25197W        W68291   5.008  13.109  18.972  0.3159  0.0667  0.2409
25198W        W68292   6.164  10.915  17.455  0.2671 -0.3413 -0.1141
25199W        W68293   5.910  11.896  20.919  0.0672 -0.1510 -0.0586
25200W        W68294   7.018  12.830  18.541  0.1577  0.0793  0.1052
25201W        W68295   6.000  13.085  21.106  0.1185 -0.0181  0.2223
25202W        W68296   4.249  13.166  17.241 -0.0959 -0.1223  0.1474
25203W        W68297   5.134  13.943  18.643  0.1399  0.1261 -0.0495
25204W        W68298   5.379  15.026  19.511  0.1599 -0.0274 -0.1849
25205W        W68299   7.473  13.418  20.729 -0.0841 -0.2117  0.0903
25206W        W68300   4.940  12.584  19.083  0.0683 -0.2395 -0.0349
25207W        W68301   6.921  11.815  18.599 -0.1171  0.0571  0.1581
25208W        W68302   4.100  10.239  18.038  0.1500  0.0407  0.0758
25209W        W68303   4.342  12.825  18.260  0.3177 -0.0214  0.2377
25210W        W68304   3.744  13.378  18.595  0.0271 -0.3172 -0.0316
25211W        W68305   6.881  12.215  18.296  0.1302  0.0278  0.0735
25212W        W68306   3.761  11.337  17.456 -0.0977 -0.0856  0.0537
25213W        W68307   5.893  10.866  18.309  0.0768  0.2240 -0.1788
25214W        W68308   3.847  12.986  19.771 -0.0441  0.2257 -0.3264
25215W        W68309   6.089  13.821  20.579  0.0265  0.2691 -0.0426
25216W        W68310   4.903  13.167  23.674  0.1020  0.0655 -0.0397
25217W        W68311   6.475  13.114  20.994  0.2267 -0.0687  0.0243
25218W        W68312   6.269  11.816  21.245 -0.0380  0.2119  0.1095
25219W        W68313   7.263  12.485  21.833  0.0841  0.0012 -0.1307
25220W        W68314   2.744  11.560  19.117  0.1771  0.2634 -0.4190
25221W        W68315   6.571  13.744  21.889  0.2096 -0.0163  0.0823
25222W        W68316   4.723   9.949  22.024  0.1290 -0.0161 -0.0581
25223W        W68317   7.385  14.741  22.721  0.1132  0.3865 -0.3383
25224W        W68318   6.646  14.591  24.120  0.2639  0.0975  0.0567
25225W        W68319   5.348  12.359  21.370 -0.0357  0.4169  0.1629
25226W        W68320   5.705  12.802  21.432  0.2429 -0.3008 -0.1141
25227W        W68321   4.350  12.641  22.488  0.0940  0.1011  0.1870
25228W        W68322   4.217  11.600  22.025  0.1953  0.0586 -0.0061
25229W        W68323   2.889  10.435  21.675 -0.0745  0.1497  0.0627
25230W        W68324   5.690  12.507  23.707  0.2925 -0.0080 -0.0355
25231W        W68325   3.965  12.420  21.101 -0.2070  0.0774  0.0656
25232W        W68326   4.389  12.081  22.021 -0.3219  0.1071 -0.3926
25233W        W68327   4.093  12.088  22.473 -0.2368 -0.0081 -0.1239
25234W        W68328   6.070  14.202  21.297  0.0230  0.0998  0.1533
25235W        W68329   3.154  11.658  23.719 -0.3439  0.0127  0.1726
25236W        W68330   7.239  12.574  23.239  0.4442  0.0018  0.0657
25237W        W68331   5.174  13.665  21.182 -0.1655  0.0853  0.0133
25238W        W68332   2.940  11.851  21.182 -0.0056 -0.0016 -0.1998
25239W        W68333   3.628  11.847  22.441  0.1742 -0.1299  0.0396
25240W        W68334   5.294  12.564  21.811 -0.1234 -0.0249  0.3913
25241W        W68335   8.794  11.458  23.666  0.2309 -0.0251  0.0787
25242W        W68336   6.465  13.226  22.163 -0.3058  0.1829  0.2246
25243W        W68337   4.111  13.817  21.197 -0.0078  0.1429  0.2613
25244W        W68338   4.970  15.061  21.805  0.0578  0.0656  0.0384
25245W        W68339   7.108  11.302  23.123  0.0652  0.0673  0.1052
25246W        W68340   4.951  12.770  20.770 -0.0689 -0.2466 -0.3399
25247W        W68341   4.682  14.551  22.456  0.0927  0.3996 -0.0988
25248W        W68342   3.956  15.087  21.429 -0.0179 -0.1185 -0.0186
25249W        W68343   7.285  13.538  21.289  0.3810  0.1035 -0.0208
25250W        W68344   6.373  14.299  24.451 -0.1244  0.2191 -0.0431
25251W        W68345   5.691  15.751  22.734 -0.0147 -0.0456 -0.1233
25252W        W68346   4.599  13.612  19.591  0.0373 -0.1203  0.1483
25253W        W68347   5.802  14.267  22.881 -0.3505 -0.3619 -0.0892
25254W        W68348   4.384  13.144  23.168  0.1355  0.1986  0.0502
25255W        W68349   4.474  13.947  22.019  0.0183 -0.0844  0.0916
25256W        W68350   6.494  12.243  22.678 -0.1753  0.1403  0.0961
25257W        W68351   6.141  14.202  20.136 -0.0413  0.0990 -0.0588
25258W        W68352   4.373  13.660  21.623  0.1499  0.1547 -0.2772
25259W        W68353   5.716  13.057  23.768 -0.0265 -0.3165  0.2212
25260W        W68354   3.086  13.421  22.767 -0.1901  0.0367 -0.2571
25261W        W68355   8.384  11.846  21.654 -0.0963  0.0299  0.2449
25262W        W68356   3.754  14.594  19.949 -0.0006 -0.2013 -0.3084
25263W        W68357   6.197  11.469  21.590 -0.3073  0.1177 -0.1785
25264W        W68358   5.412  11.395  18.402 -0.1970 -0.1424 -0.3196
25265W        W68359   6.063  12.011  21.640  0.3017 -0.2582  0.1940
25266W        W68360   5.090  10.362  20.190 -0.4545  0.0788 -0.0643
25267W        W68361   3.719  15.456  21.649  0.0268 -0.1161  0.2332
25268W        W68362   4.641  10.745  23.013 -0.1367 -0.1190 -0.1376
25269W        W68363   5.563  13.868  23.392 -0.0652  0.4091  0.1461
25270W        W68364   5.549  12.000  21.924 -0.0073 -0.3236 -0.2485
25271W        W68365   6.820  12.475  23.530 -0.0983 -0.1808  0.2774
25272W        W68366   4.552  12.723  22.968 -0.3033 -0.0767 -0.0274
25273W        W68367   4.463  13.558  22.365  0.0860 -0.2352  0.0459
25274W        W68368   6.708  13.624  21.214 -0.2068 -0.0823  0.1485
25275W        W68369   7.332  12.900  22.203  0.1074 -0.0577 -0.2161
25276W        W68370   6.202  14.496  21.687  0.0956  0.0982  0.3828
25277W        W68371   2.144  11.589  21.923  0.0359  0.0741 -0.1828
25278W        W68372   4.004  12.578  24.388  0.0607 -0.1468 -0.0585
25279W        W68373   4.034  11.541  23.275  0.1560 -0.0249 -0.0309
25280W        W68374   5.416  12.723  20.486  0.2080  0.0482 -0.1792
25281W        W68375   8.304  13.039  24.828  0.1057 -0.0510 -0.2462
25282W        W68376   3.816  15.112  24.410 -0.1031  0.0284  0.2656
25283W        W68377   7.105  11.795  22.338  0.3233 -0.2304  0.1009
25284W        W68378   4.732  13.469  21.352 -0.1021  0.1159  0.2735
25285W        W68379   5.626  14.653  22.677 -0.0418  0.2611  0.1224
25286W        W68380   6.502  13.938  20.878  0.1198 -0.0639 -0.1432
25287W        W68381   6.791   9.093  20.025 -0.1437 -0.2210  0.1233
25288W        W68382   6.225  10.763  22.294 -0.3862  0.2143 -0.0437
25289W        W68383   2.857  13.843  19.705  0.0351 -0.1752  0.0631
25290W        W68384   4.983  13.255  21.749 -0.0216 -0.2255 -0.0498
25291W        W68385   7.172  14.405  22.239  0.0968 -0.0656  0.0953
25292W        W68386   7.147  11.519  19.519  0.0386  0.0799 -0.0491
25293W        W68387   3.504  14.316  23.576  0.0297 -0.1815  0.2766
25294W        W68388   5.320  12.211  23.543 -0.0386 -0.1549  0.0145
25295W        W68389   6.205  14.337  24.956  0.1245  0.0617 -0.0276
25296W        W68390   5.371  15.080  20.995  0.0907 -0.0733 -0.1068
25297W        W68391   3.884  12.312  23.484 -0.2065  0.0786  0.0330
25298W        W68392   3.437  13.366  19.007 -0.0875 -0.1659 -0.0661
25299W        W68393   3.374  10.464  23.801  0.2531 -0.1251 -0.0653
25300W        W68394   4.902  12.999  23.159  0.2025  0.1307 -0.0852
25301W        W68395   4.890  10.660  21.540 -0.0428 -0.3705  0.0493
25302W        W68396   4.318  10.826  23.437  0.3276  0.4253  0.0765
25303W        W68397   6.619  11.866  22.328 -0.0222 -0.0811  0.3634
25304W        W68398   3.580  12.661  20.095 -0.1446 -0.0375  0.3030
25305W        W68399   7.114  14.560  23.076 -0.2028 -0.0386  0.4067
25306W        W68400   6.719   9.965  21.648 -0.0730  0.4748  0.2804
25307W        W68401   6.258  14.848  19.958  0.1776 -0.1012 -0.0868
25308W        W68402   3.058  11.955  22.239 -0.2196  0.1514 -0.1162
25309W        W68403   4.260  13.325  21.209  0.3445 -0.0994  0.2468
25310W        W68404   4.703  11.809  24.038 -0.1014  0.0117 -0.1713
25311W        W68405   3.635  12.324  22.666  0.2085  0.2042 -0.2409
25312W        W68406   5.951  13.789  23.058 -0.1462  0.0467  0.0352
25313W        W68407   3.897  10.026  20.885  0.1652  0.0833  0.2080
25314W        W68408   5.577  10.675  20.181 -0.0848 -0.0483  0.0892
25315W        W68409   5.594  13.094  22.376  0.0942 -0.1932 -0.3894
25316W        W68410   4.074  12.345  20.497 -0.3957  0.1804 -0.1172
25317W        W68411   6.332  11.485  22.752  0.1587  0.0460  0.1156
25318W        W68412   4.953  14.373  20.041  0.0553 -0.0884  0.1028
25319W        W68413   6.180  13.100  23.649 -0.0345 -0.2011  0.0203
25320W        W68414   6.705  13.806  22.459 -0.1572 -0.1524  0.1322
25321W        W68415   4.525  11.843  22.445 -0.0381 -0.3721 -0.1455
25322W        W68416   3.409  11.973  21.278  0.0924  0.2920 -0.1433
25323W        W68417   3.661  14.246  21.387 -0.2906 -0.0119  0.1362
25324W        W68418   4.937  13.775  21.635  0.1954 -0.0168  0.4274
25325W        W68419   3.644  11.331  22.521 -0.0826 -0.1408 -0.1005
25326W        W68420   6.383  13.614  22.835  0.0676 -0.2398  0.0498
25327W        W68421   5.210  14.162  21.781  0.2323  0.3393  0.1295
25328W        W68422   4.475  12.191  22.836  0.2578  0.1451  0.0748
25329W        W68423   6.838  11.769  22.791 -0.3343  0.0855 -0.0037
25330W        W68424   7.247  13.202  22.666 -0.2676 -0.1574  0.0390
25331W        W68425   6.557  12.590  20.966 -0.2264  0.0060 -0.1133
25332W        W68426   4.782  11.494  19.936  0.0298  0.1693 -0.0103
25333W        W68427   5.058  15.007  20.602 -0.0320  0.0032 -0.1832
25334W        W68428   2.756  13.211  21.916 -0.2168 -0.0889 -0.1206
25335W        W68429   2.219  13.940  21.788 -0.0377 -0.2487  0.0122
25336W        W68430   5.495  14.033  22.169 -0.1795 -0.2116 -0.0461
25337W        W68431   6.857  12.437  22.152  0.1668  0.2253  0.2311
25338W        W68432   2.962  12.080  25.130  0.1603 -0.0071  0.2369
25339W        W68433   6.116  11.756  23.460 -0.3409  0.3181  0.0004
25340W        W68434   4.046  11.664  20.630 -0.3250  0.3452 -0.0107
25341W        W68435   3.752  13.267  22.223 -0.0037 -0.0047  0.0155
25342W        W68436   6.575  10.194  20.736  0.1550  0.2039  0.4343
25343W        W68437   6.715   9.777  18.902  0.0184 -0.1287  0.2984
25344W        W68438   5.918  12.868  25.279 -0.3240  0.1428  0.2622
25345W        W68439   6.328  11.143  20.587  0.0017 -0.3932 -0.0317
25346W        W68440   5.902  11.186  19.081  0.1150  0.0139  0.0673
25347W        W68441   4.743  11.756  21.984  0.1115 -0.0267 -0.1331
25348W        W68442   2.844  12.726  23.294 -0.3445  0.0804 -0.1618
25349W        W68443   5.960  12.348  21.242 -0.0435  0.2080 -0.2432
25350W        W68444   6.724  14.272  22.189  0.2801 -0.1019  0.1879
25351W        W68445   6.339  11.771  20.763 -0.1227 -0.0766  0.0155
25352W        W68446   6.759  12.250  20.031 -0.2468  0.0002  0.3114
25353W        W68447   3.363  12.283  23.103  0.1054  0.0986  0.1297
25354W        W68448   6.095  12.773  24.008  0.0450  0.1406 -0.0020
25355W        W68449   6.924  13.496  21.654 -0.2624  0.1131 -0.1877
25356W        W68450   5.001  11.037  22.770 -0.0697 -0.1382 -0.1601
25357W        W68451   5.842  12.978  20.278  0.4152 -0.1093 -0.1101
25358W        W68452   5.398  10.892  22.510 -0.0418  0.2760 -0.2555
25359W        W68453   3.450  14.881  20.780  0.0350  0.2590  0.1907
25360W        W68454   6.465  12.698  22.390  0.1016 -0.2095 -0.1212
25361W        W68455   5.532  10.978  21.603 -0.0287  0.2643 -0.3159
25362W        W68456   5.926  10.224  23.463 -0.2493 -0.4792 -0.1918
25363W        W68457   6.550  13.057  24.006 -0.0513 -0.0009  0.0472
25364W        W68458   5.072  11.205  22.310 -0.1571 -0.0923 -0.0768
25365W        W68459   5.659  13.271  23.309 -0.0396 -0.1103  0.3249
25366W        W68460   4.820  11.751  20.749  0.0360 -0.0305 -0.1143
25367W        W68461   5.482  11.433  22.828  0.0117 -0.1510  0.2094
25368W        W68462   4.355  12.345  23.314 -0.0210  0.0371  0.3104
25369W        W68463   3.763  15.185  23.005  0.0071 -0.1412  0.1744
25370W        W68464   7.019  12.918  24.278  0.1253  0.1167  0.0269
25371W        W68465   7.072  13.896  20.962  0.1086 -0.0310 -0.1366
25372W        W68466   5.031  12.826  22.719  0.1707 -0.1607 -0.4230
25373W        W68467   5.781  12.463  21.797  0.0997 -0.0660 -0.3754
25374W        W68468   4.980  14.531  20.625  0.4676  0.1664 -0.2092
25375W        W68469   4.745  13.511  20.851  0.3848  0.0323  0.0597
25376W        W68470   4.307  10.819  21.679  0.1435  0.0035  0.1050
25377W        W68471   4.838  13.527  22.819 -0.0261  0.0315 -0.0565
25378W        W68472   6.830  13.263  20.219 -0.1706 -0.0324 -0.0551
25379W        W68473   5.422  12.563  23.114  0.0436 -0.2627 -0.0128
25380W        W68474   4.636  13.944  21.199 -0.1000 -0.1537 -0.2026
25381W        W68475   6.652   9.673  20.870 -0.0280  0.2095  0.0067
25382W        W68476   3.546  13.256  22.681 -0.0931 -0.0344  0.3044
25383W        W68477   4.979  11.892  20.201  0.0302  0.1300 -0.1191
25384W        W68478   5.150  13.221  20.893  0.1490 -0.1301 -0.1086
25385W        W68479   5.813  11.413  21.307 -0.1134  0.0713  0.4820
25386W        W68480   7.210  12.719  19.456  0.2355 -0.1154  0.0243
25387W        W68481   5.337  11.925  23.059 -0.1724 -0.1084 -0.2345
25388W        W68482   7.241  11.465  22.676 -0.0276 -0.0114  0.1838
25389W        W68483   3.197  14.349  21.638 -0.2276  0.0985  0.1597
25390W        W68484   5.612  13.338  24.181  0.4037 -0.0481  0.0092
25391W        W68485   5.999  10.957  19.625 -0.0985 -0.2003  0.1313
25392W        W68486   5.370  14.204  22.609  0.1825 -0.0385  0.1598
25393W        W68487   4.874  13.521  24.580 -0.0061 -0.0484  0.0671
25394W        W68488   2.630  11.254  20.187  0.1194 -0.2844  0.1761
25395W        W68489   6.892  13.888  24.822  0.1832  0.1250 -0.0371
25396W        W68490   4.776  12.243  21.694 -0.0396  0.2225  0.2614
25397W        W68491   2.859  13.691  22.066  0.2791  0.2635  0.0024
25398W        W68492   5.326  13.813  22.928 -0.0491  0.2159  0.2337
25399W        W68493   4.451  12.026  20.438 -0.0997  0.0483  0.0225
25400W        W68494   3.339  13.306  21.823 -0.3298  0.0565  0.0205
25401W        W68495   4.574  11.234  23.256 -0.6580 -0.0152  0.0999
25402W        W68496   5.187  14.117  23.665  0.0827 -0.1573 -0.0310
25403W        W68497   6.648  11.367  23.206  0.3292 -0.1390 -0.2641
25404W        W68498   5.564  12.637  22.584  0.0658 -0.1106  0.0536
25405W        W68499   4.109  11.574  22.536 -0.2136  0.3162  0.0687
25406W        W68500   7.143  13.035  23.138  0.3704 -0.1526 -0.3622
25407W        W68501   5.701  10.450  22.471 -0.2810 -0.3007 -0.0690
25408W        W68502   4.417  13.985  25.095 -0.0368 -0.1360 -0.3145
25409W        W68503   5.502   9.308  21.312 -0.1251 -0.1232  0.0257
25410W        W68504   6.368  12.849  20.136 -0.0787 -0.0812 -0.4720
25411W        W68505   6.652  12.960  23.296 -0.0803 -0.0893 -0.2230
25412W        W68506   4.481  11.834  21.583  0.0103 -0.1063  0.0029
25413W        W68507   3.965  13.751  22.060  0.0530 -0.1925  0.0955
25414W        W68508   4.946  12.741  21.519  0.2846 -0.0310  0.1897
25415W        W68509   6.140  12.545  22.756  0.0842 -0.0129  0.3185
25416W        W68510   4.184  13.617  23.254  0.2687 -0.1793  0.0714
25417W        W68511   5.000  12.829  20.235 -0.1060  0.0928  0.0318
25418W        W68512   3.147  13.853  21.650 -0.0024  0.0923  0.3610
25419W        W68513   7.909   9.664  22.034 -0.1710 -0.2234 -0.1590
25420W        W68514   5.550  13.057  21.885  0.0710  0.0462  0.0417
25421W        W68515   6.734  12.719  22.837  0.1970  0.0942  0.1584
25422W        W68516   7.724  12.427  23.293 -0.0086  0.0720  0.0164
25423W        W68517   8.277  12.266  22.007  0.3384  0.0956 -0.2664
25424W        W68518   6.901  12.116  23.151 -0.1188 -0.0067 -0.4191
25425W        W68519   5.351  11.950  22.508  0.0413  0.3691  0.2692
25426W        W68520   7.007  12.745  20.964  0.0262  0.0080 -0.0615
25427W        W68521   3.006  11.758  23.225 -0.0073 -0.0303 -0.1956
25428W        W68522   6.072  15.460  22.560 -0.3066 -0.2597  0.0533
25429W        W68523   3.859  13.008  24.142  0.1319  0.0297 -0.3899
25430W        W68524   4.570  11.239  22.060 -0.0902  0.1561 -0.2157
25431W        W68525   3.617  11.112  21.545 -0.1838 -0.1050 -0.2657
25432W        W68526   4.437  14.478  22.003 -0.0885  0.0541  0.0585
25433W        W68527   5.600  13.545  22.192 -0.0609  0.1320 -0.0492
25434W        W68528   5.762  14.216  21.735  0.3209 -0.0168  0.2633
25435W        W68529   5.902  11.137  20.198 -0.1432  0.1870 -0.1046
25436W        W68530   5.058  12.147  22.109 -0.1087 -0.0061 -0.0384
25437W        W68531   6.740  12.540  21.623  0.0513 -0.3251  0.1428
25438W        W68532   5.309  13.627  20.120 -0.1167 -0.0571  0.1476
25439W        W68533   3.046  12.511  22.483  0.4562  0.2438  0.0303
25440W        W68534   2.598  11.668  24.179  0.0103 -0.3696  0.1899
25441W        W68535   8.349  13.539  21.395 -0.1020  0.1043  0.1242
25442W        W68536   5.932  10.670  21.767 -0.0252  0.0665  0.0771
25443W        W68537   6.162  11.324  22.278 -0.2177 -0.0474 -0.0008
25444W        W68538   6.851  13.422  23.501  0.1130  0.2865 -0.3913
25445W        W68539   5.111  12.166  23.993  0.0574 -0.0040 -0.0819
25446W        W68540   3.802  10.600  24.226  0.0321  0.2962 -0.0445
25447W        W68541   6.099  13.260  24.120  0.0069 -0.0392  0.2630
25448W        W68542   6.405  12.205  19.689 -0.2266  0.1367  0.3774
25449W        W68543   7.789  12.945  22.485  0.2196 -0.0479 -0.0714
25450W        W68544   6.527  12.066  21.853  0.0009  0.3778 -0.0802
25451W        W68545   5.086  13.153  22.278 -0.1149  0.3117 -0.1998
25452W        W68546   2.294  11.416  22.415  0.1620 -0.0228 -0.3199
25453W        W68547   6.986  12.947  23.745 -0.1186 -0.0329  0.1440
25454W        W68548   5.324  11.939  20.608 -0.0508  0.2528 -0.1236
25455W        W68549   4.586  11.256  24.091  0.1004  0.0094  0.2535
25456W        W68550   5.073  14.143  21.317 -0.2548  0.1046  0.2508
25457W        W68551   6.926  13.980  21.589 -0.2031 -0.1133  0.2098
25458W        W68552   5.260  11.629  22.121 -0.1157  0.1901  0.3869
25459W        W68553   5.235   9.870  21.992 -0.0380 -0.0241  0.0474
25460W        W68554   4.019  14.581  22.681 -0.4423 -0.4443 -0.2020
25461W        W68555   3.077  11.372  20.902 -0.3998  0.0715  0.2540
25462W        W68556   6.078  13.064  19.795 -0.0212  0.1673  0.0324
25463W        W68557   5.358  12.884  24.057 -0.4127 -0.1022 -0.0083
25464W        W68558   7.786  13.685  24.237 -0.2854 -0.0683 -0.2467
25465W        W68559   5.337  11.329  21.249 -0.0864 -0.1339 -0.0581
25466W        W68560   6.939  12.455  24.553 -0.1116  0.2184 -0.0580
25467W        W68561   4.098  14.307  21.093 -0.1163 -0.0449 -0.0163
25468W        W68562   6.199   9.753  20.674 -0.1415  0.1153 -0.2557
25469W        W68563   5.091  16.412  21.257 -0.1019  0.0291  0.0214
25470W        W68564   2.639  13.209  22.501  0.3454 -0.0801  0.4976
25471W        W68565   3.507  14.236  22.997 -0.3068  0.0938  0.2117
25472W        W68566   5.057  11.466  23.134  0.2506  0.4382 -0.2217
25473W        W68567   6.111  13.586  22.341 -0.0626 -0.2000  0.1005
25474W        W68568   4.685  14.185  21.634 -0.1677 -0.1452  0.1250
25475W        W68569   6.357  12.572  23.635 -0.0109  0.2219 -0.4346
25476W        W68570   4.875  14.135  22.792  0.0158 -0.3977  0.2023
25477W        W68571   4.480  13.102  21.677 -0.0120  0.0072 -0.2445
25478W        W68572   6.707  13.228  22.733 -0.0843 -0.1294  0.0345
25479W        W68573   8.110  13.118  22.915 -0.4364  0.1136  0.1787
25480W        W68574   4.899  13.946  23.250  0.1320 -0.0668 -0.2389
25481W        W68575   3.971  11.790  24.460  0.0915  0.1023 -0.0586
25482W        W68576   5.035  12.631  23.755  0.0592 -0.2927  0.1636
25483W        W68577   6.898  14.126  22.846 -0.1322  0.3023  0.3190
25484W        W68578   4.522  11.448  20.988 -0.0512  0.1395  0.0656
25485W        W68579   6.912  13.059  21.337  0.1766 -0.0576 -0.1581
25486W        W68580   4.642  13.094  22.690 -0.1004 -0.0176  0.0581
25487W        W68581   3.606  12.854  21.933 -0.0856  0.1929 -0.3434
25488W        W68582   4.424  13.050  20.593  0.0354  0.3792 -0.1222
25489W        W68583   6.671  14.419  19.914 -0.2575  0.1624  0.0645
25490W        W68584   5.366  15.042  21.517  0.1249  0.1939 -0.0602
25491W        W68585   6.083  14.649  23.403 -0.1291  0.0035 -0.1176
25492W        W68586   4.912  12.327  20.556  0.1246 -0.2125 -0.2435
25493W        W68587   3.980  13.677  22.556  0.0088 -0.4154  0.2519
25494W        W68588   2.043  14.807  21.202 -0.0607 -0.0756 -0.0614
25495W        W68589   8.187  14.448  22.431  0.0106  0.1184 -0.2472
25496W        W68590   3.381  14.079  20.549 -0.2700 -0.1327 -0.2551
25497W        W68591   7.007  13.424  23.948  0.2291 -0.1942 -0.4047
25498W        W68592   7.789   9.977  20.311  0.0951  0.0646 -0.0622
25499W        W68593   7.368  13.400  21.887  0.0764  0.0935 -0.0408
25500W        W68594   5.470  11.554  21.680 -0.4933  0.1611 -0.1514
25501W        W68595   5.270  14.359  24.151  0.1263  0.3173  0.0205
25502W        W68596   5.350  13.175  22.869  0.0560 -0.1151 -0.4812
25503W        W68597   3.076  11.935  17.847  0.1403 -0.2537 -0.0748
25504W        W68598   3.093  12.925  22.783  0.2282 -0.2876 -0.3838
25505W        W68599   7.440  12.281  22.915 -0.0490 -0.2003 -0.0492
25506W        W68600   3.513  13.845  23.901 -0.1066 -0.1423 -0.0923
25507W        W68601   6.147  13.557  21.049 -0.1998 -0.1271  0.0257
25508W        W68602   3.695  11.800  19.718 -0.0220 -0.1069 -0.2123
25509W        W68603   6.244  14.127  22.007  0.0049 -0.0800 -0.1710
25510W        W68604   6.552  10.448  20.285 -0.2086 -0.2072 -0.3822
25511W        W68605   6.526  14.653  20.406 -0.1543  0.0336 -0.2963
25512W        W68606   6.039  13.056  21.949 -0.0656 -0.1253  0.4633
25513W        W68607   5.941  13.739  21.531 -0.0242 -0.1203 -0.0889
25514W        W68608   4.923  14.999  22.283 -0.0886 -0.1827 -0.3172
25515W        W68609   4.011  15.218  22.519 -0.0385  0.0562 -0.1240
25516W        W68610   4.012  11.324  19.930  0.2050  0.1209 -0.1879
25517W        W68611   7.735  11.283  21.137  0.0610 -0.2848 -0.3812
25518W        W68612   3.960  12.030  23.055 -0.2017  0.0583  0.3097
25519W        W68613   7.265  12.672  22.693  0.2408  0.1175  0.0258
25520W        W68614   3.768  12.485  21.620 -0.0965 -0.0869  0.1943
25521W        W68615   5.618  12.247  22.291  0.0337 -0.2034  0.1462
25522W        W68616   6.270  12.999  23.074 -0.1012  0.2851  0.3649
25523W        W68617   4.007  12.535  22.959 -0.0608 -0.2531  0.1097
25524W        W68618   4.460  12.527  20.862  0.1005  0.2978  0.1570
25525W        W68619   7.370  13.524  23.254 -0.1198  0.2149  0.2217
25526W        W68620   6.695  11.806  21.498 -0.0935  0.3450  0.1406
25527W        W68621   5.773  15.744  21.790 -0.0538  0.0846  0.0642
25528W        W68622   3.277  12.251  20.771  0.0200  0.2132  0.0318
25529W        W68623   6.129  11.718  18.523  0.1236 -0.0728  0.0352
25530W        W68624   4.305  12.018  20.891  0.1711  0.3699 -0.0805
25531W        W68625   5.199  13.788  22.490  0.0982  0.0658 -0.0074
25532W        W68626   6.061  13.827  24.157 -0.2626 -0.3141  0.0841
25533W        W68627   3.785  11.752  20.196 -0.1433 -0.1060 -0.3373
25534W        W68628   7.227  12.559  20.453  0.2036  0.0688 -0.0261
25535W        W68629   7.561  11.526  22.151  0.2319 -0.0148 -0.0109
25536W        W68630   5.242  14.550  19.705 -0.5778  0.0399 -0.0964
25537W        W68631   6.367  12.695  21.911  0.0917  0.0398 -0.0081
25538W        W68632   6.991  13.311  20.916 -0.2284  0.0779 -0.3710
25539W        W68633   2.113  10.848  22.381 -0.0679  0.0040 -0.1795
25540W        W68634   6.249  14.068  23.620  0.1578 -0.1037  0.0721
25541W        W68635   8.393  12.646  22.805 -0.0659 -0.0927 -0.1812
25542W        W68636   5.707  11.313  22.384 -0.1015 -0.0369  0.2598
25543W        W68637   4.177  14.089  21.633  0.2861  0.3817  0.2415
25544W        W68638   2.570  13.935  21.287 -0.2692  0.2183  0.0164
25545W        W68639   7.130  11.263  22.215  0.0450  0.0936 -0.0292
25546W        W68640   6.435  14.052  23.095 -0.1999  0.1396 -0.0714
25547W        W68641   6.272  14.414  20.821  0.0103 -0.2700  0.4264
25548W        W68642   7.201  10.131  21.596  0.1287  0.3728  0.2469
25549W        W68643   4.783  13.039  24.590  0.0670  0.2089 -0.0360
25550W        W68644   4.589  13.962  24.391 -0.2523  0.0962 -0.1147
25551W        W68645   4.144  11.630  19.531  0.1241 -0.1065  0.2775
25552W        W68646   5.104  11.786  23.576 -0.1510  0.2983 -0.0271
25553W        W68647   4.170  13.431  20.757 -0.0898 -0.1874  0.1242
25554W        W68648   3.548  14.773  21.522 -0.1159  0.0723  0.0548
25555W        W68649   7.079  13.388  22.260 -0.1280 -0.1575 -0.1177
25556W        W68650   5.740  12.204  22.801  0.0456  0.0855  0.2712
25557W        W68651   8.486  13.090  21.866 -0.0568  0.4370 -0.2814
25558W        W68652   4.031  11.159  21.969 -0.0833 -0.2047  0.1638
25559W        W68653   6.274  11.240  21.105 -0.0535 -0.0490 -0.0375
25560W        W68654   6.143  11.530  20.345  0.0448 -0.0272 -0.0356
25561W        W68655   4.747  12.352  22.448 -0.2023  0.2758  0.1597
25562W        W68656   4.679  12.969  21.121 -0.2556 -0.0427  0.1732
25563W        W68657   4.869  13.320  20.388 -0.1985  0.5291 -0.1126
25564W        W68658   4.562  13.109  22.193  0.3034  0.0916 -0.0313
25565W        W68659   6.742  10.606  22.328  0.1650  0.0355 -0.2605
25566W        W68660   3.178  10.847  25.325  0.0769 -0.0003 -0.0947
25567W        W68661   3.196  12.956  21.374 -0.2711 -0.1433  0.1941
25568W        W68662   3.577  12.187  20.325  0.2387 -0.1521  0.0002
25569W        W68663   7.326  14.398  21.775  0.1549 -0.0458 -0.1629
25570W        W68664   5.774  12.197  23.306  0.1241  0.0884  0.1114
25571W        W68665   3.509  10.570  21.771 -0.2526 -0.0450 -0.0177
25572W        W68666   6.264  12.735  21.425 -0.0454 -0.1166  0.2325
25573W        W68667   4.901  14.156  22.169  0.0505 -0.1529  0.5883
25574W        W68668   5.865  10.113  21.610 -0.0130 -0.2330 -0.0580
25575W        W68669   7.326  14.864  23.405  0.1262  0.0743 -0.1251
25576W        W68670   2.461  12.667  21.307 -0.4014 -0.0453  0.1225
25577W        W68671   4.692  12.641  21.981 -0.2654 -0.1977  0.0833
25578W        W68672   6.398  12.395  23.186  0.2620  0.2735  0.4702
25579W        W68673   3.860  10.550  20.845 -0.1891  0.1590  0.2079
25580W        W68674   5.854  11.786  22.535  0.2017  0.0195 -0.0590
25581W        W68675   7.462  13.976  22.181 -0.2578  0.3258 -0.3457
25582W        W68676   6.593  13.456  20.632  0.2747 -0.1030 -0.0842
25583W        W68677   4.633  13.526  23.460 -0.1237 -0.2016 -0.2558
25584W        W68678   6.103  16.035  22.722  0.1341 -0.5471 -0.6210
25585W        W68679   2.024  12.610  23.753 -0.1525  0.1028 -0.0069
25586W        W68680   5.846  11.386  20.749 -0.0275 -0.1484  0.4836
25587W        W68681   4.040  14.071  22.833  0.1411 -0.0130 -0.1284
25588W        W68682   7.842  12.490  21.309 -0.0308 -0.0518 -0.1640
25589W        W68683   7.612  11.052  21.889  0.0201  0.2149  0.0716
25590W        W68684   7.825  12.457  22.636 -0.2931 -0.2080  0.2381
25591W        W68685   3.970  10.909  24.611 -0.0018 -0.0028 -0.0342
25592W        W68686   3.488  11.509  23.376 -0.1625 -0.1671 -0.1538
25593W        W68687   5.395  13.416  23.712  0.2617  0.0198  0.1354
25594W        W68688   2.822  11.285  22.781  0.0391  0.4409 -0.0359
25595W        W68689   5.160  12.350  22.741  0.0415  0.2409 -0.0455
25596W        W68690   5.881  14.329  22.363  0.2415  0.1040 -0.1849
25597W        W68691   4.230  12.529  21.856 -0.4442 -0.0397 -0.2249
25598W        W68692   5.565  13.650  20.578  0.1950 -0.1296 -0.0404
25599W        W68693   5.295  12.918  23.444 -0.2800  0.0451 -0.2016
25600W        W68694   5.781  12.895  22.909  0.2798  0.1256 -0.0720
25601W        W68695   5.935  12.662  23.336  0.2450  0.0929  0.0544
25602W        W68696   5.400  13.209  21.422 -0.1615  0.1282  0.1771
25603W        W68697   7.171  12.248  20.860 -0.3241  0.0710 -0.1184
25604W        W68698   5.570  13.821  23.925  0.0741  0.1073  0.1129
25605W        W68699   7.956  14.309  24.407 -0.1103  0.0234 -0.4381
25606W        W68700   5.731  13.869  22.532 -0.0465 -0.0215 -0.1286
25607W        W68701   6.683  12.573  24.074 -0.0736 -0.2903 -0.2428
25608W        W68702   3.818  10.374  22.671 -0.0365  0.2371 -0.1266
25609W        W68703   4.108  12.875  21.438 -0.0751  0.0606 -0.0816
25610W        W68704   3.766  13.402  21.139  0.0738  0.0229  0.0415
25611W        W68705   6.773  13.035  21.867 -0.0562  0.1108  0.2712
25612W        W68706   3.905  11.952  21.998 -0.1172  0.2750 -0.0997
25613W        W68707   5.468  11.082  19.867 -0.3277  0.1522  0.1303
25614W        W68708   5.994  13.614  23.727 -0.1780  0.0286  0.0107
25615W        W68709   5.177  12.609  22.276  0.0161 -0.1044  0.2443
25616W        W68710   5.253  13.903  25.759  0.2192  0.2999  0.0917
25617W        W68711   4.968  11.024  24.353 -0.2700 -0.1815 -0.1869
25618W        W68712   5.497  11.335  24.358  0.1811  0.1752 -0.0901
25619W        W68713   5.593  13.975  24.941 -0.0440  0.0246 -0.2361
25620W        W68714   3.392  12.216  24.254  0.1938 -0.1323 -0.0589
25621W        W68715   6.117  14.764  24.350  0.1521 -0.1820 -0.0713
25622W        W68716   3.994  11.525  27.819 -0.0268  0.0698 -0.0653
25623W        W68717   7.363  14.237  25.154 -0.1335  0.0730  0.0307
25624W        W68718   7.486  14.299  25.647 -0.1802  0.1468  0.1581
25625W        W68719   5.153  13.470  23.292 -0.2614 -0.1408 -0.1700
25626W        W68720   6.040  11.496  26.277  0.0810  0.2841  0.1114
25627W        W68721   5.343  15.300  27.546  0.0172 -0.2952 -0.1649
25628W        W68722   4.904  10.409  24.100  0.1868 -0.0481  0.2420
25629W        W68723   4.497  12.760  25.541 -0.2049  0.0901 -0.1239
25630W        W68724   6.389  12.320  25.783 -0.2649  0.3468 -0.1528
25631W        W68725   3.188  13.336  25.055 -0.5440 -0.0460  0.0451
25632W        W68726   6.237  12.045  26.383 -0.2018  0.4651  0.1799
25633W        W68727   4.772  11.310  24.726 -0.3689 -0.3518 -0.2790
25634W        W68728   5.998  15.873  26.599  0.1591  0.1200  0.0653
25635W        W68729   5.215  12.445  26.119 -0.0996  0.0473 -0.4046
25636W        W68730   6.369  11.981  27.943 -0.1419  0.0332 -0.0234
25637W        W68731   4.615  13.006  24.026  0.0278 -0.0772  0.1845
25638W        W68732   3.792  11.809  23.647 -0.1991  0.3019 -0.0284
25639W        W68733   5.367  12.152  25.533  0.1279 -0.3166 -0.0961
25640W        W68734   5.609  12.548  27.038 -0.1133 -0.0903 -0.1457
25641W        W68735   7.177  12.132  24.846  0.0224  0.0824 -0.0466
25642W        W68736   6.169  13.437  25.794  0.3272 -0.0014 -0.0211
25643W        W68737   5.115  14.164  26.558 -0.0014  0.0399 -0.0239
25644W        W68738   5.544  15.114  25.073  0.1100  0.5889  0.3264
25645W        W68739   7.547  13.106  26.393 -0.1261 -0.0793  0.3952
25646W        W68740   5.177  13.946  25.216 -0.3560  0.0987  0.0060
25647W        W68741   3.657  13.034  23.629 -0.1066 -0.2920 -0.0920
25648W        W68742   4.970  14.835  24.164 -0.0717  0.0503  0.2005
25649W        W68743   7.035  14.812  23.799 -0.1588  0.0055 -0.0717
25650W        W68744   6.784  14.115  26.045 -0.2009 -0.0097  0.0794
25651W        W68745   5.238  14.376  28.112  0.0210  0.0665  0.0753
25652W        W68746   3.556  12.712  22.971 -0.1001 -0.0168 -0.1395
25653W        W68747   4.526  14.680  27.066  0.1722 -0.1149 -0.3333
25654W        W68748   4.872  14.114  27.064 -0.0885 -0.0296  0.2488
25655W        W68749   5.928  11.732  26.735  0.3592  0.0558  0.1512
25656W        W68750   5.305  13.519  26.179 -0.0569  0.1725 -0.0623
25657W        W68751   5.218  14.746  25.022 -0.0589  0.0018 -0.0927
25658W        W68752   5.054  15.239  25.244 -0.1082 -0.1081  0.0025
25659W        W68753   6.566  12.812  27.588  0.1032  0.0350  0.2571
25660W        W68754   4.641  14.110  23.873 -0.3385 -0.0781 -0.1387
25661W        W68755   7.290  12.147  26.723 -0.2213  0.3234 -0.0784
25662W        W68756   4.521  15.745  25.150  0.5642  0.2093 -0.0366
25663W        W68757   7.849  12.804  23.605  0.0052 -0.0947 -0.0291
25664W        W68758   5.781  11.482  23.918 -0.4221  0.1374 -0.0439
25665W        W68759   5.629  11.118  24.779 -0.3555 -0.4402 -0.1360
25666W        W68760   6.804  10.235  25.079  0.2047 -0.1656  0.1036
25667W        W68761   5.204  14.404  25.850 -0.1728 -0.0835  0.0125
25668W        W68762   6.652  13.325  27.710 -0.2635 -0.0404 -0.1834
25669W        W68763   6.376  14.179  27.235  0.0040 -0.2985 -0.4488
25670W        W68764   6.592  11.996  23.558  0.0194 -0.0928  0.1873
25671W        W68765   7.570  12.355  25.804  0.0073 -0.2425  0.0576
25672W        W68766   4.019  13.387  26.131  0.1162  0.3480 -0.0783
25673W        W68767   4.206  12.546  25.005 -0.2893  0.0316 -0.4447
25674W        W68768   6.464  16.091  24.526 -0.1412 -0.2046  0.0229
25675W        W68769   7.047  15.111  26.002  0.0188 -0.1986 -0.2823
25676W        W68770   5.564  14.014  24.385  0.1661 -0.1432 -0.0149
25677W        W68771   6.034  12.491  24.804 -0.1502  0.1558 -0.2712
25678W        W68772   4.707  14.325  28.347  0.2581 -0.1595 -0.0171
25679W        W68773   5.809  13.410  26.291  0.1356  0.1749 -0.1336
25680W        W68774   4.412  10.347  23.279  0.0735  0.3036 -0.1007
25681W        W68775   6.674  13.355  28.325  0.0552 -0.2001 -0.2304
25682W        W68776   3.132  14.131  28.192  0.1068  0.0707 -0.0020
25683W        W68777   5.677  12.605  26.112  0.2732  0.1207  0.2523
25684W        W68778   5.428  13.135  25.812  0.0201  0.2237  0.0132
25685W        W68779   7.250  14.555  26.029 -0.1489  0.1088 -0.1619
25686W        W68780   6.887  13.330  24.516  0.3352  0.1635  0.2898
25687W        W68781   6.604  10.580  25.380  0.1181 -0.3206  0.0466
25688W        W68782   6.276  10.486  25.783  0.4420 -0.0838  0.2062
25689W        W68783   4.589  11.669  23.535  0.1271 -0.2553 -0.0744
25690W        W68784   3.397  13.414  24.327  0.1531 -0.0228  0.2943
25691W        W68785   6.728  14.910  26.627 -0.0963  0.1643  0.2301
25692W        W68786   7.576  13.526  23.786 -0.0972  0.2733  0.4140
25693W        W68787   3.875  15.210  25.328 -0.0294  0.1122  0.0187
25694W        W68788   6.372  12.555  27.117  0.1048 -0.1328 -0.1597
25695W        W68789   5.720  14.663  25.283  0.0224 -0.1973 -0.0874
25696W        W68790   4.375  14.118  23.246  0.0461 -0.0314 -0.0201
25697W        W68791   5.280  13.710  26.630  0.5073 -0.0344  0.2350
25698W        W68792   4.195  12.723  23.935 -0.2465 -0.1739  0.3695
25699W        W68793   4.957  11.020  26.399 -0.0159  0.2678 -0.0960
25700W        W68794   4.216  14.242  25.829  0.0548 -0.0332 -0.0895
25701W        W68795   6.861  10.800  23.936  0.0204 -0.1386  0.1947
25702W        W68796   5.608   9.361  28.305 -0.0509  0.1212  0.2499
25703W        W68797   6.433  10.614  24.893 -0.2305 -0.2137  0.0369
25704W        W68798   4.913  13.615  22.118  0.1027  0.0498  0.0850
25705W        W68799   8.448  14.060  25.255 -0.0140 -0.0837  0.3100
25706W        W68800   6.747  12.904  24.833 -0.1718 -0.0393  0.1632
25707W        W68801   6.325  15.115  23.287  0.1289 -0.3980 -0.1086
25708W        W68802   4.525  13.571  25.909  0.0143  0.0733  0.0875
25709W        W68803   5.205  11.411  25.053  0.0940  0.1466  0.2737
25710W        W68804   5.092  11.836  25.912  0.4309 -0.0180  0.0185
25711W        W68805   4.476  13.322  24.895  0.0542 -0.0179  0.2435
25712W        W68806   6.679  13.566  25.668  0.3231 -0.0671 -0.1984
25713W        W68807   3.835  11.512  24.879  0.1142 -0.0215  0.1362
25714W        W68808   6.798  12.939  25.348  0.2848  0.0128 -0.1753
25715W        W68809   4.514  12.187  25.198  0.0501 -0.0712 -0.2450
25716W        W68810   2.632  13.995  24.774  0.3142  0.1177  0.0196
25717W        W68811   6.853  12.262  27.187  0.0566  0.0391  0.1790
25718W        W68812   5.070  13.351  24.147  0.0287 -0.0788 -0.1673
25719W        W68813   7.626  15.260  27.249 -0.1307  0.1341 -0.4238
25720W        W68814   5.820  15.068  25.569 -0.1298 -0.0557  0.1459
25721W        W68815   3.735  11.663  26.059  0.0508 -0.3150  0.1547
25722W        W68816   4.211  11.336  23.668  0.2382 -0.0758  0.1996
25723W        W68817   3.743  16.451  25.558 -0.1930  0.0258  0.3373
25724W        W68818   5.845  14.556  26.339 -0.1342 -0.0670 -0.1099
25725W        W68819   5.737  11.978  23.890  0.1948 -0.0554  0.4406
25726W        W68820   6.839  15.355  26.387 -0.1473  0.1596 -0.1651
25727W        W68821   5.227  12.787  24.866 -0.0228 -0.0045  0.4583
25728W        W68822   5.812  14.712  26.861  0.0955  0.2635  0.1234
25729W        W68823   6.497  12.056  26.915  0.1957 -0.0677 -0.3629
25730W        W68824   7.076  14.018  27.070 -0.1950 -0.0798  0.1987
25731W        W68825   6.446  12.937  25.791 -0.1183 -0.2624  0.1213
25732W        W68826   3.732  11.295  23.901 -0.1197  0.0208  0.0082
25733W        W68827   5.166  15.093  24.665 -0.0556 -0.0983 -0.2152
25734W        W68828   4.638  14.478  24.233  0.1928  0.1006 -0.1548
25735W        W68829   5.573  11.748  25.700  0.0481  0.0052  0.3163
25736W        W68830   5.573  14.827  23.160 -0.2104  0.3633 -0.0001
25737W        W68831   7.185  10.752  26.139  0.1742  0.1885  0.1372
25738W        W68832   4.756  12.585  27.803 -0.0899 -0.0639  0.1381
25739W        W68833   7.264  13.031  26.869 -0.2958 -0.0357 -0.0743
25740W        W68834   5.931  10.325  23.984  0.0977 -0.0452 -0.0601
25741W        W68835   5.802  12.915  29.241 -0.1135  0.4637 -0.2075
25742W        W68836   6.855  10.626  24.429  0.1434  0.1068  0.0142
25743W        W68837   5.992  12.373  24.273 -0.0905 -0.1345  0.2517
25744W        W68838   5.429  14.224  27.612  0.1494  0.0454 -0.0026
25745W        W68839   6.087  14.847  24.904  0.2977 -0.1217 -0.0106
25746W        W68840   7.005  12.264  22.677 -0.0607  0.0353 -0.1849
25747W        W68841   6.383  12.742  24.450  0.1293  0.1310 -0.0482
25748W        W68842   4.372  13.318  27.293  0.3905 -0.2004  0.1104
25749W        W68843   5.184  14.192  24.643 -0.1945 -0.2235  0.0061
25750W        W68844   6.527  14.371  25.449 -0.0797 -0.0765 -0.1368
25751W        W68845   4.946  12.505  23.255  0.1777  0.1950  0.0056
25752W        W68846   7.502  14.122  24.127 -0.2936 -0.2519  0.4650
25753W        W68847   4.780  13.594  27.068  0.0753 -0.0204  0.0405
25754W        W68848   6.315  13.609  26.562  0.0724  0.3995  0.0123
25755W        W68849   4.797  14.772  24.693  0.2021  0.1497  0.1393
25756W        W68850   6.036  10.850  26.088 -0.1606  0.4176 -0.1144
25757W        W68851   4.327  12.142  24.227  0.1856  0.1358  0.0168
25758W        W68852   6.441  11.015  22.795  0.1005  0.1828  0.4718
25759W        W68853   4.146  14.208  23.674  0.0332  0.1713 -0.2953
25760W        W68854   7.140  11.858  26.166 -0.3671  0.0373  0.1256
25761W        W68855   6.314  11.849  25.839 -0.0578  0.6189 -0.1891
25762W        W68856   6.222   9.638  26.684 -0.1614  0.0160  0.0530
25763W        W68857   7.668  13.802  26.564 -0.1832  0.0468 -0.0486
25764W        W68858   7.750  13.872  23.503 -0.0233  0.0158 -0.0553
25765W        W68859   6.361  12.565  25.380  0.0463 -0.0638 -0.0360
25766W        W68860   5.007  11.527  24.299 -0.1742  0.0987 -0.2434
25767W        W68861   7.333  13.661  27.549 -0.1239  0.0248 -0.1301
25768W        W68862   5.049  13.245  26.636 -0.1726  0.0848 -0.0575
25769W        W68863   5.326  14.344  27.017  0.1771 -0.1586  0.1421
25770W        W68864   5.318  13.355  27.814  0.4166  0.0143  0.2601
25771W        W68865   5.186  12.183  24.992 -0.0087  0.0710 -0.3907
25772W        W68866   5.421  13.013  26.334  0.0977 -0.4537  0.2020
25773W        W68867   5.615  11.722  23.479  0.0499  0.0171  0.1050
25774W        W68868   3.954  14.744  25.382 -0.3173  0.1479 -0.0569
25775W        W68869   4.135  12.959  24.702 -0.1880 -0.0742 -0.2574
25776W        W68870   5.866   9.989  26.470  0.2049  0.0151  0.1884
25777W        W68871   5.697  14.612  25.862 -0.0733 -0.1181  0.1802
25778W        W68872   4.932  14.447  23.270  0.0027 -0.2089 -0.0742
25779W        W68873   6.384  13.748  26.124  0.2240 -0.0865 -0.4254
25780W        W68874   3.541  13.516  23.406  0.0193  0.2699  0.0446
25781W        W68875   7.100  11.576  26.550  0.0100  0.1668 -0.4739
25782W        W68876   3.708  15.932  25.612 -0.2354  0.3426  0.1079
25783W        W68877   4.076  12.780  23.405 -0.6050  0.0508  0.1572
25784W        W68878   4.832  13.883  24.861 -0.1279 -0.0241 -0.0050
25785W        W68879   6.774  12.402  25.243  0.2659  0.1191  0.2958
25786W        W68880   6.417  13.210  24.527 -0.0000 -0.1203 -0.1680
25787W        W68881   4.664  11.500  26.753  0.0702 -0.0146 -0.2571
25788W        W68882   6.692  11.858  24.790 -0.2556 -0.0999  0.2045
25789W        W68883   4.355  14.804  26.122 -0.0513 -0.0393  0.4443
25790W        W68884   6.212  13.106  26.349 -0.4448  0.0920  0.3583
25791W        W68885   6.722  10.516  22.871  0.2386 -0.5718  0.3606
25792W        W68886   6.972  14.542  25.302 -0.1394  0.2388  0.0998
25793W        W68887   4.827  15.100  26.970  0.3047 -0.1539  0.1353
25794W        W68888   4.326  12.039  23.744 -0.2131 -0.1569  0.7172
25795W        W68889   7.862  12.682  26.180 -0.2313  0.2910 -0.0146
25796W        W68890   4.785  12.447  24.799  0.2311  0.0616 -0.0118
25797W        W68891   3.791  13.328  24.641  0.2823  0.5299  0.1730
25798W        W68892   6.204  15.754  25.608 -0.2426 -0.0170 -0.0723
25799W        W68893   5.954  13.006  24.536 -0.0271 -0.1523 -0.1806
25800W        W68894   4.209  13.858  24.052  0.1016 -0.1638 -0.0660
25801W        W68895   4.705  12.016  26.554 -0.3819  0.0666 -0.0732
25802W        W68896   6.816  13.663  26.872  0.0347  0.1305  0.0092
25803W        W68897   5.267  10.996  25.867  0.1120  0.1698  0.2408
25804W        W68898   4.526  11.723  24.488  0.0202 -0.1024  0.0343
25805W        W68899   4.873  11.906  25.438  0.1216  0.0854 -0.1305
25806W        W68900   5.788  13.622  27.194 -0.1683 -0.3329  0.2397
25807W        W68901   6.286  11.380  25.809 -0.4433  0.1632 -0.1894
25808W        W68902   4.702  13.415  26.306  0.1630  0.0471 -0.1289
25809W        W68903   5.164  11.941  26.419 -0.0199 -0.0146  0.0510
25810W        W68904   7.748  14.557  25.265  0.0889  0.0032 -0.0897
25811W        W68905   7.020  13.688  26.007  0.1357 -0.0034  0.0473
25812W        W68906   5.295  11.759  24.714  0.1113 -0.3043  0.0458
25813W        W68907   2.220  13.149  25.228  0.1675  0.1709  0.1254
25814W        W68908   5.001  12.658  24.368 -0.2803 -0.1484  0.1041
25815W        W68909   5.486  12.486  26.557  0.1981 -0.0782 -0.1446
25816W        W68910   5.337  14.611  26.543 -0.0125  0.4380  0.0206
25817W        W68911   4.614  12.859  25.060  0.0355  0.2838  0.2138
25818W        W68912   4.500  12.927  26.592  0.2683 -0.1530  0.1955
25819W        W68913   6.145  12.030  24.971 -0.1568 -0.4247  0.2143
25820W        W68914   5.686  14.424  24.808  0.2387 -0.1637  0.0171
25821W        W68915   6.637  11.210  25.453 -0.0615 -0.1360 -0.0613
25822W        W68916   8.634  11.583  25.518 -0.0387  0.0452 -0.4325
25823W        W68917   6.999  13.887  23.832 -0.2540  0.3091  0.2726
25824W        W68918   6.252  11.788  27.502  0.2271  0.0009 -0.1829
25825W        W68919   5.689  10.776  25.591 -0.1489 -0.2007 -0.2033
25826W        W68920   6.750  14.366  24.838  0.3020 -0.1937 -0.1199
25827W        W68921   4.257  12.591  26.156  0.0914  0.1148  0.1902
25828W        W68922   5.585  15.228  28.232  0.1184 -0.1147 -0.0407
25829W        W68923   5.085  12.649  27.240 -0.0382  0.0972 -0.2332
25830W        W68924   5.556  12.640  24.451 -0.2744  0.2622  0.0869
25831W        W68925   4.608  10.802  23.958  0.2974 -0.0235  0.1245
25832W        W68926   4.677  12.396  26.226 -0.2120  0.2427  0.0271
25833W        W68927   7.965  13.972  25.953 -0.1180 -0.0826 -0.3732
25834W        W68928   6.177  11.909  24.432  0.0161  0.1835  0.1754
25835W        W68929   7.181  13.154  25.155  0.0077 -0.0445 -0.1745
25836W        W68930   5.483  14.017  26.204  0.3130 -0.2826  0.1855
25837W        W68931   6.205  12.596  26.173 -0.1618 -0.0030  0.2020
25838W        W68932   5.649  13.794  25.387 -0.1449  0.1439 -0.0956
25839W        W68933   5.043  13.849  24.230  0.0657  0.0637  0.0500
25840W        W68934   3.904  10.449  27.385 -0.2829  0.0849 -0.0026
25841W        W68935   4.973  15.962  25.055  0.1253  0.0120 -0.0012
25842W        W68936   5.928  11.242  23.063  0.1298  0.0345 -0.0920
25843W        W68937   6.702  11.643  24.353  0.0865  0.1045  0.0943
25844W        W68938   6.676  12.386  28.036 -0.3093 -0.0687  0.0987
25845W        W68939   5.799  12.893  26.649  0.0460  0.0529  0.0872
25846W        W68940   4.824  11.351  27.287 -0.0153 -0.1535  0.0345
25847W        W68941   5.194  15.425  27.053  0.1672  0.3116 -0.1252
25848W        W68942   7.614  12.901  25.014 -0.2939  0.0542  0.2447
25849W        W68943   7.612  11.740  27.068  0.1842  0.0057  0.1769
25850W        W68944   6.362  13.279  25.369 -0.2901 -0.1543 -0.2565
25851W        W68945   6.228  12.997  24.940 -0.1525  0.2866  0.0482
25852W        W68946   4.283  12.322  25.654 -0.0581  0.2952  0.2709
25853W        W68947   7.970  11.893  26.721 -0.0103 -0.1337 -0.3027
25854W        W68948   5.869  10.903  22.670  0.1026  0.0504  0.1070
25855W        W68949   8.235  11.991  26.305  0.1815  0.0392  0.4470
25856W        W68950   5.409  16.910  23.137 -0.3434  0.1311 -0.2422
25857W        W68951   5.458  15.434  24.302 -0.1345  0.1041  0.0481
25858W        W68952   6.624  13.437  24.969 -0.0327 -0.3628  0.1637
25859W        W68953   5.249  13.481  25.515 -0.2100 -0.1152  0.0745
25860W        W68954   4.064  16.405  28.153 -0.0764 -0.3853  0.3059
25861W        W68955   3.674  11.308  24.449  0.2502 -0.3435 -0.1431
25862W        W68956   5.329  11.442  26.184  0.1617 -0.0780  0.2941
25863W        W68957   5.686  13.638  25.858  0.0608  0.1660  0.2817
25864W        W68958   7.481  13.181  27.432 -0.5538 -0.0321  0.2791
25865W        W68959   5.121  10.882  23.831 -0.1631 -0.0855  0.1027
25866W        W68960   7.640  12.104  26.391  0.2279 -0.3139 -0.2972
25867W        W68961   3.502  13.678  22.961 -0.0724 -0.1469 -0.3719
25868W        W68962   5.934  12.102  25.431 -0.0219 -0.2949  0.0863
25869W        W68963   3.920  14.671  25.885  0.1271  0.2005  0.0546
25870W        W68964   4.535  12.879  27.473  0.1230  0.0896  0.0732
25871W        W68965   5.288  14.806  25.530 -0.0691  0.1219 -0.2687
25872W        W68966   7.062  12.982  26.409 -0.0036 -0.0867  0.1319
25873W        W68967   7.113  11.359  25.266  0.1111  0.0233 -0.0964
25874W        W68968   5.306  12.222  24.512 -0.1217  0.1215 -0.0851
25875W        W68969   8.175  13.707  26.382  0.1100 -0.1586 -0.0271
25876W        W68970   5.705  13.715  27.681  0.0984  0.0864  0.3040
25877W        W68971   4.988  12.576  25.277  0.2264  0.2382  0.0838
25878W        W68972   6.748  14.618  25.949 -0.1031 -0.0802  0.0082
25879W        W68973   5.830  13.311  25.459 -0.0677 -0.0390 -0.0115
25880W        W68974   3.807  13.805  24.559  0.0898  0.0006  0.1554
25881W        W68975   4.239  13.856  25.533 -0.0543  0.1493 -0.1320
25882W        W68976   6.178  13.630  27.481 -0.1246 -0.3179 -0.0335
25883W        W68977   6.292  13.958  25.631 -0.0232  0.1096 -0.0149
25884W        W68978   5.345  10.624  24.512 -0.0195  0.3056  0.0063
25885W        W68979   5.443  15.206  23.672 -0.1835  0.0811  0.1105
25886W        W68980   4.215  14.032  27.855  0.0116 -0.0876  0.0228
25887W        W68981   4.980  13.319  25.922  0.0068 -0.2958  0.3392
25888W        W68982   4.128  15.795  24.841 -0.1358  0.0553  0.2953
25889W        W68983   6.079  13.689  24.984  0.1840 -0.2385 -0.0780
25890W        W68984   5.484  14.257  25.435  0.0202  0.1070  0.1604
25891W        W68985   6.877  15.912  27.151  0.0414  0.1197  0.0273
25892W        W68986   6.104  11.393  25.273 -0.0684 -0.0654  0.2581
25893W        W68987   3.755  15.428  24.807 -0.0058  0.1732 -0.1119
25894W        W68988   2.252  13.171  22.998  0.0420 -0.0911  0.1744
25895W        W68989   5.387  15.313  25.928 -0.4409 -0.3536  0.0399
25896W        W68990   3.123  15.035  25.051  0.1196  0.3613  0.1041
25897W        W68991   7.614  14.120  27.215  0.1397  0.1371  0.1575
25898W        W68992   7.363  10.982  22.952  0.0259  0.4071  0.1633
25899W        W68993   7.858  13.987  25.312  0.3831 -0.4079 -0.2017
25900W        W68994   6.488  12.407  24.870 -0.0942  0.2261  0.0476
25901W        W68995   6.735  14.462  26.882  0.1222  0.2427  0.1100
25902W        W68996   5.368  12.663  25.650 -0.1692 -0.0018  0.1488
25903W        W68997   6.737  10.943  21.982  0.0012  0.1894  0.0525
25904W        W68998   4.844  12.827  25.964 -0.0985  0.0466  0.0663
25905W        W68999   6.807  12.821  27.066 -0.0416  0.3213 -0.1665
25906W        W69000   2.976  13.060  28.164 -0.1571 -0.0621 -0.2139
25907W        W69001   6.344  14.942  23.735 -0.3478  0.2641 -0.0877
25908W        W69002   3.414  11.797  24.597  0.1837  0.1839 -0.0317
25909W        W69003   5.444  11.815  24.182  0.3901  0.0229 -0.0413
25910W        W69004   8.009  13.165  27.288  0.1375  0.1094 -0.1266
25911W        W69005   5.009  13.671  23.786  0.0821  0.2048 -0.0337
25912W        W69006   5.602  11.833  25.159  0.0336  0.2113  0.5626
25913W        W69007   6.021  15.359  25.196  0.2810  0.0643  0.1540
25914W        W69008   6.013  14.089  26.276  0.0915 -0.0048  0.0769
25915W        W69009   5.754  16.090  26.196  0.2025 -0.0653 -0.1019
25916W        W69010   3.867  12.378  25.392  0.1572 -0.1715  0.0047
25917W        W69011   7.736  13.017  25.870  0.1676  0.2627 -0.0246
25918W        W69012   4.057  11.914  25.155 -0.2781  0.0618  0.3832
25919W        W69013   7.915  11.546  25.679 -0.0884 -0.1917 -0.2253
25920W        W69014   4.582  12.029  25.925 -0.0169 -0.0770  0.1513
25921W        W69015   5.560  12.397  25.210  0.3384  0.0722 -0.0866
25922W        W69016   5.909  13.046  25.943 -0.1339  0.0687  0.0558
25923W        W69017   4.337  13.900  26.289  0.1190  0.0153  0.1255
25924W        W69018   5.463  11.290  23.336  0.0052  0.0360 -0.2064
25925W        W69019   7.722  14.965  27.804 -0.0461 -0.0786  0.0187
25926W        W69020   4.616  12.441  23.994 -0.4074 -0.0633  0.2892
25927W        W69021   6.422  14.468  26.464  0.2561 -0.2324  0.0704
25928W        W69022   4.359  11.099  25.556  0.0490 -0.0444  0.0763
25929W        W69023   6.592  11.151  23.667 -0.3580 -0.1150  0.1321
25930W        W69024   3.364  13.938  24.396  0.3737 -0.1486  0.2274
25931W        W69025   5.782  15.150  26.474 -0.1808 -0.3478 -0.0709
25932W        W69026   7.472  14.044  26.162  0.2983  0.0733  0.1112
25933W        W69027   4.881  11.317  23.645  0.1464  0.3467  0.0045
25934W        W69028   6.193  14.409  23.964 -0.1141  0.1160  0.1122
25935W        W69029   7.606  13.395  25.325  0.0946 -0.2546 -0.0744
25936W        W69030   4.542  15.103  24.367  0.1054  0.1243 -0.1327
25937W        W69031   6.942  13.986  25.615  0.2269  0.0516  0.6077
25938W        W69032   7.576  14.945  26.061  0.0321 -0.1013  0.2734
25939W        W69033   4.757  13.774  25.406 -0.0253 -0.1249 -0.2350
25940W        W69034   6.319  15.240  25.597 -0.0515 -0.0330 -0.0389
25941W        W69035   6.597  14.786  24.611 -0.1565 -0.0535  0.1700
25942W        W69036   5.088   9.874  24.378 -0.1647 -0.1512  0.3860
25943W        W69037   4.498  12.640  24.434 -0.4777  0.3237  0.2675
25944W        W69038   1.760  14.337  25.169  0.0759  0.0415  0.0546
25945W        W69039   7.275  12.211  25.364  0.0798 -0.1871  0.2207
25946W        W69040   6.631  12.258  26.186  0.2711  0.0797  0.0589
25947W        W69041   5.649  15.548  23.331 -0.2625  0.0755  0.2749
25948W        W69042   6.368  11.112  26.328  0.0482  0.3722  0.1094
25949W        W69043   5.851  14.178  27.151  0.0654  0.1421 -0.0009
25950W        W69044   5.099  14.126  28.572  0.1706  0.1431  0.1990
25951W        W69045   4.840  11.820  24.929 -0.0675 -0.0168  0.2310
25952W        W69046   5.720  13.038  27.146 -0.2297  0.0821 -0.1987
25953W        W69047   4.387  14.401  25.397  0.0625  0.0158  0.1173
25954W        W69048   6.272  15.428  24.019  0.1439  0.0296  0.0310
25955W        W69049   6.177  15.231  24.574  0.0098 -0.1607  0.0414
25956W        W69050   5.832  11.589  24.780  0.0086  0.2244  0.0543
25957W        W69051   8.480  14.673  26.329 -0.1991  0.1854  0.3090
25958W        W69052   5.614  11.292  25.292  0.1507 -0.3470 -0.2070
25959W        W69053   7.199  11.638  24.793 -0.3062 -0.1644  0.1443
25960W        W69054   5.577  10.987  23.867 -0.1317 -0.1247 -0.0430
25961W        W69055   5.779  14.093  25.810 -0.3498 -0.4297  0.2850
25962W        W69056   4.823  12.089  24.411 -0.0570 -0.1407  0.2492
25963W        W69057   4.048  13.574  25.118 -0.1882  0.2515  0.2141
25964W        W69058   5.957  14.184  25.355  0.3850 -0.3466 -0.1108
25965W        W69059   5.453  12.203  27.326  0.0072 -0.1449  0.0197
25966W        W69060   5.288  13.808  27.091  0.0495 -0.1589  0.0531
25967W        W69061   3.945  14.039  25.179  0.3407 -0.0117  0.0298
25968W        W69062   4.128  11.014  24.148  0.3323 -0.2693  0.1567
25969W        W69063   9.177  13.295  24.975  0.3779  0.2422 -0.0127
25970W        W69064   4.425  10.720  27.871 -0.0339  0.3785 -0.0744
25971W        W69065   5.196  11.490  25.560 -0.1502  0.2017  0.3158
25972W        W69066   5.834  13.521  24.565  0.1143 -0.0950  0.0331
25973W        W69067   6.935  15.294  24.568  0.0227  0.4114  0.1414
25974W        W69068   5.526   9.813  23.506  0.1503  0.1530 -0.1012
25975W        W69069   7.548  14.903  26.855 -0.1466  0.0360 -0.0575
25976W        W69070   3.907  12.801  22.555 -0.0436 -0.0394 -0.3453
25977W        W69071   6.086  13.387  29.050  0.0909  0.0209 -0.3521
25978W        W69072   5.444  11.419  27.902 -0.2881  0.3677 -0.0814
25979W        W69073   3.364  10.450  24.387 -0.0934 -0.0623  0.1035
25980W        W69074   4.521  13.270  25.411  0.0343 -0.0249  0.1268
25981W        W69075   4.343  13.186  23.696 -0.2476 -0.1312 -0.0318
25982W        W69076   6.506  15.587  24.474 -0.0021 -0.2122  0.1060
25983W        W69077   6.139  14.199  26.725  0.1104 -0.1529  0.0824
25984W        W69078   5.021  15.533  26.158 -0.2321 -0.0994  0.0533
25985W        W69079   2.370  10.220  27.225 -0.1031  0.0030  0.1426
25986W        W69080   6.512  14.009  25.128  0.0353  0.0312  0.0937
25987W        W69081   6.314  14.659  27.045  0.1214  0.0476 -0.2194
25988W        W69082   7.191  15.240  25.466  0.1027 -0.1051  0.1898
25989W        W69083   7.318  12.707  26.080  0.1175  0.1683  0.1431
25990W        W69084   4.792  12.189  23.586  0.1991  0.0949  0.2086
25991W        W69085   4.790  11.038  28.272 -0.3918 -0.1303 -0.3151
25992W        W69086   6.320  12.759  26.687 -0.1695 -0.3627  0.2504
25993W        W69087   6.478  15.058  26.088 -0.0590  0.1700 -0.0537
25994W        W69088   4.460  11.652  25.421  0.0352  0.0596 -0.0968
25995W        W69089   6.031  11.164  23.633 -0.1003 -0.3494  0.5002
25996W        W69090   5.306  14.560  23.612 -0.3894 -0.1077  0.2183
25997W        W69091   3.179  13.555  26.217 -0.1112 -0.1651 -0.1043
25998W        W69092   5.868  12.144  25.955 -0.1586 -0.2091 -0.1473
25999W        W69093   5.938  12.605  25.639  0.0816  0.0953  0.1389
26000W        W69094   6.049  16.089  25.205  0.0953 -0.0835  0.0952
26001W        W69095   7.043  13.005  27.548 -0.1373 -0.3751  0.0399
26002W        W69096   3.634  13.150  25.151 -0.1804 -0.0606 -0.0012
26003W        W69097   7.314  13.597  24.331  0.2817 -0.0995  0.0857
26004W        W69098   5.921  14.535  27.558 -0.1474  0.2838  0.0847
26005W        W69099   5.913  15.466  27.330  0.0994 -0.0796 -0.3797
26006W        W69100   6.198  15.934  26.081 -0.3488 -0.2192 -0.1198
26007W        W69101   6.749  13.239  26.052  0.0642 -0.3416  0.1727
26008W        W69102   3.958  11.194  25.912 -0.3306 -0.0935  0.2098
26009W        W69103   4.440  13.072  25.967 -0.4577  0.1584 -0.1457
26010W        W69104   5.383  13.030  25.288 -0.2161  0.2223 -0.2193
26011W        W69105   7.985  13.361  26.735  0.1233 -0.2055  0.0367
26012W        W69106   4.439  11.227  26.090 -0.2880 -0.2918 -0.2906
26013W        W69107   6.261  10.587  24.297  0.1979  0.5614 -0.1727
26014W        W69108   4.870  14.278  27.565 -0.2748  0.0333 -0.0810
26015W        W69109   5.245  15.521  24.897 -0.1557 -0.1659  0.0073
26016W        W69110   5.702  14.250  30.000  0.2637 -0.0316  0.0372
26017W        W69111   3.038  12.792  29.088  0.2107  0.1446 -0.0233
26018W        W69112   7.131  10.704  27.938  0.0706 -0.1813  0.1514
26019W        W69113   5.406  12.961  27.483 -0.1417 -0.0317 -0.0406
26020W        W69114   5.096  11.971  28.413  0.1262 -0.3231 -0.3243
26021W        W69115   5.794  14.522  28.864  0.1733 -0.0785 -0.2475
26022W        W69116   6.465  11.830  30.191  0.2835 -0.2901 -0.1017
26023W        W69117   5.117  12.958  30.249 -0.0608  0.2172 -0.1318
26024W        W69118   5.929  13.543  30.526 -0.5182 -0.0031 -0.1458
26025W        W69119   4.929  13.145  28.503  0.0979 -0.2011 -0.0338
26026W        W69120   6.054  11.616  29.742  0.2394 -0.0565 -0.1941
26027W        W69121   6.420  14.879  31.545 -0.2203  0.1079  0.2253
26028W        W69122   4.404  10.734  27.191  0.1124  0.0026  0.0746
26029W        W69123   4.702  11.274  29.505  0.0837  0.1089 -0.0108
26030W        W69124   4.865  12.438  31.165 -0.3645  0.0999 -0.1726
26031W        W69125   4.084  12.778  28.905 -0.2069 -0.3858  0.2993
26032W        W69126   5.652  12.326  29.920  0.1282 -0.0289 -0.0014
26033W        W69127   5.070  12.342  26.793 -0.0186  0.0447 -0.1602
26034W        W69128   5.606  14.530  29.500 -0.1395 -0.0610 -0.0496
26035W        W69129   5.750  12.087  30.529 -0.0902  0.1430 -0.2508
26036W        W69130   6.211  11.426  30.867  0.3056 -0.0885  0.0939
26037W        W69131   6.675  13.639  30.961 -0.0935 -0.2655  0.0942
26038W        W69132   4.800  11.615  26.257  0.2371  0.2333 -0.1177
26039W        W69133   4.060  12.327  28.681 -0.1265 -0.1814  0.1205
26040W        W69134   4.904  11.587  30.134 -0.0087 -0.1549 -0.0135
26041W        W69135   6.751  11.455  31.132  0.0765  0.4147  0.1388
26042W        W69136   6.774  11.039  29.722 -0.1528 -0.2222  0.3192
26043W        W69137   4.626  14.573  29.354  0.0041  0.1490 -0.2888
26044W        W69138   7.237  14.036  28.260 -0.0053  0.1312  0.3478
26045W        W69139   5.379  11.841  31.404 -0.1170  0.0552 -0.3527
26046W        W69140   4.465  13.351  28.873 -0.2673 -0.0185 -0.0995
26047W        W69141   5.255  13.766  28.933 -0.3615 -0.0065 -0.2111
26048W        W69142   5.896  13.401  29.533  0.0772 -0.1471  0.1941
26049W        W69143   7.148  14.781  28.540  0.4949 -0.0302  0.0228
26050W        W69144   7.224  14.978  31.942 -0.2549 -0.0815  0.1273
26051W        W69145   4.975  15.588  31.516 -0.2198 -0.3835 -0.2454
26052W        W69146   4.419  13.796  28.270  0.0383  0.0427 -0.0168
26053W        W69147   5.108  15.235  30.483  0.0239  0.0468 -0.1437
26054W        W69148   4.255  13.705  30.856 -0.1247  0.0764  0.4061
26055W        W69149   4.501  11.256  30.206  0.2478  0.1482 -0.1401
26056W        W69150   5.609  13.079  29.756 -0.1242  0.0960 -0.1111
26057W        W69151   4.587  14.053  28.974  0.1338 -0.2505  0.0035
26058W        W69152   6.182  14.443  31.342 -0.1010 -0.1547  0.1651
26059W        W69153   5.443  13.619  30.607 -0.5844 -0.0860  0.0093
26060W        W69154   4.065  13.144  30.283 -0.0604  0.0615  0.1704
26061W        W69155   7.130  10.527  30.810  0.0210 -0.1812  0.1196
26062W        W69156   4.209  14.037  29.837  0.0020  0.0770  0.2562
26063W        W69157   6.686  12.085  28.948  0.0479  0.1809 -0.1944
26064W        W69158   5.601  14.237  26.642 -0.2484  0.2514 -0.0120
26065W        W69159   7.862  13.043  28.707 -0.0024  0.1980 -0.0805
26066W        W69160   4.750  10.965  26.963 -0.7430  0.1322 -0.0997
26067W        W69161   3.932  15.107  28.926 -0.1945 -0.0287 -0.0364
26068W        W69162   4.387  11.696  28.737 -0.0972  0.2373  0.3624
26069W        W69163   6.307  14.389  29.205 -0.1332  0.1143  0.0317
26070W        W69164   5.887  12.510  28.900 -0.1595  0.3741 -0.0260
26071W        W69165   5.787  12.549  30.732  0.2188  0.2331 -0.0485
26072W        W69166   4.148  14.224  29.371 -0.1362  0.0462  0.0433
26073W        W69167   4.194  11.293  29.744 -0.0659  0.2214  0.2686
26074W        W69168   6.600  14.011  26.584 -0.1702 -0.2116  0.0591
26075W        W69169   7.913  14.769  29.668 -0.1630 -0.0331 -0.1738
26076W        W69170   5.993  15.000  26.066 -0.1077 -0.4437 -0.0875
26077W        W69171   5.039  12.438  28.166  0.0357 -0.0457  0.0552
26078W        W69172   4.602  12.959  30.092 -0.1619  0.3494  0.0160
26079W        W69173   4.276  11.329  31.195  0.3356 -0.2229  0.2241
26080W        W69174   5.490  11.969  26.853  0.0163  0.0270  0.1596
26081W        W69175   6.281  13.888  30.687  0.2170 -0.1152 -0.0519
26082W        W69176   5.197  14.747  31.372  0.1733  0.2898 -0.0087
26083W        W69177   6.282  12.543  29.379 -0.1271  0.0803 -0.3120
26084W        W69178   5.005  14.224  29.814  0.1982 -0.0341  0.1532
26085W        W69179   6.616  14.211  30.415  0.2503  0.1772  0.0477
26086W        W69180   5.983  12.392  26.694  0.1543 -0.2425  0.1492
26087W        W69181   7.072  11.835  28.455 -0.1206 -0.1672 -0.0092
26088W        W69182   7.464  10.270  30.304  0.2215  0.3797  0.1582
26089W        W69183   4.374  13.244  28.399  0.2347 -0.2264  0.2392
26090W        W69184   5.548  12.681  28.485  0.0937  0.1124  0.1765
26091W        W69185   6.379  12.746  30.988 -0.1630  0.0275  0.0400
26092W        W69186   6.107  12.481  28.001  0.2205  0.0468 -0.0108
26093W        W69187   4.740  14.984  30.247  0.1565 -0.0944  0.2708
26094W        W69188   4.840  11.567   0.217 -0.0300  0.0983 -0.2416
26095W        W69189   5.405  13.442  31.362  0.1145  0.1136  0.0262
26096W        W69190   3.207  12.365  28.914 -0.0799 -0.1109  0.0187
26097W        W69191   3.203  12.024  29.307  0.0468 -0.0467 -0.0203
26098W        W69192   4.922  13.055  29.192  0.1817 -0.3550  0.1149
26099W        W69193   3.910  11.653  29.587  0.1290  0.0969  0.1511
26100W        W69194   3.285  12.525  29.431  0.1911 -0.0266  0.1606
26101W        W69195   6.642  12.057  28.441 -0.2208  0.0528  0.1208
26102W        W69196   5.702  11.261  29.627 -0.3463  0.0889 -0.0052
26103W        W69197   7.682  11.144  29.902  0.0094  0.0758 -0.0262
26104W        W69198   3.513  12.286  28.491 -0.0629  0.0857 -0.3510
26105W        W69199   8.345  14.083  29.007  0.1276 -0.2541  0.1825
26106W        W69200   7.423  13.042  28.529  0.0977 -0.1179 -0.1151
26107W        W69201   5.681  12.889  27.983  0.1101  0.2905  0.2361
26108W        W69202   3.507  11.304  29.913 -0.1359 -0.3675 -0.0059
26109W        W69203   5.913  12.090  27.673 -0.1028 -0.1790 -0.2690
26110W        W69204   4.096  11.965  30.984  0.1453 -0.2475 -0.1857
26111W        W69205   5.394  11.714  28.733  0.1147  0.0240 -0.0317
26112W        W69206   5.726  12.464  29.454 -0.0850 -0.0870  0.3537
26113W        W69207   4.626  12.328  27.093  0.0839  0.2860 -0.0072
26114W        W69208   6.378  12.341  29.848 -0.3380  0.0500  0.1176
26115W        W69209   6.010  12.760  29.817  0.1800 -0.0792  0.1901
26116W        W69210   4.477  13.498  30.395 -0.0317 -0.0822  0.2729
26117W        W69211   7.506  12.690  31.789 -0.2109 -0.0421  0.1165
26118W        W69212   6.653  15.347  30.340 -0.0124  0.0393 -0.1711
26119W        W69213   6.419  13.442  30.425 -0.0083  0.0424  0.0399
26120W        W69214   7.156  15.037  30.434  0.2500 -0.3216 -0.0595
26121W        W69215   5.166  11.412  29.759  0.0458  0.3115 -0.2403
26122W        W69216   4.765  12.049  28.014  0.1943 -0.2658 -0.1179
26123W        W69217   4.565  14.924  28.969 -0.1529 -0.0392  0.0740
26124W        W69218   6.040  14.350  29.647 -0.1486 -0.2124 -0.1230
26125W        W69219   6.824  10.842  28.813 -0.0618  0.4142 -0.4458
26126W        W69220   8.731  15.629  29.720 -0.0469  0.0329 -0.0880
26127W        W69221   5.698  13.508  28.724 -0.4482  0.2531  0.1301
26128W        W69222   4.212  13.279  31.424  0.2359 -0.1276 -0.2468
26129W        W69223   5.941  12.046   0.232 -0.0842  0.1704 -0.2734
26130W        W69224   7.182  12.633  30.294  0.3690  0.2945  0.0454
26131W        W69225   7.326  11.863  30.394  0.2652  0.0585  0.1788
26132W        W69226   3.263  10.621  27.557  0.3921  0.2374  0.1562
26133W        W69227   5.627  14.027  28.744 -0.4613  0.0089 -0.2040
26134W        W69228   2.810  13.103  28.685 -0.4611  0.0923 -0.5480
26135W        W69229   3.451  13.146  28.488 -0.1033  0.0369 -0.1727
26136W        W69230   6.707  13.465  30.085  0.3189 -0.1962 -0.2396
26137W        W69231   8.396  11.962  28.165 -0.2766  0.0507 -0.3240
26138W        W69232   4.445  12.763   0.150 -0.1214  0.0234  0.2147
26139W        W69233   5.316  11.471  31.978 -0.0066 -0.0586  0.2230
26140W        W69234   5.095  12.111  28.893  0.1496  0.1098 -0.3697
26141W        W69235   4.847  12.540  30.251  0.0668  0.0020 -0.0297
26142W        W69236   5.138  12.322  29.357 -0.0657  0.0681 -0.2140
26143W        W69237   7.561  12.132  29.095 -0.0007 -0.1484  0.0341
26144W        W69238   5.473  11.923  29.581 -0.3928 -0.2363 -0.3258
26145W        W69239   7.215  14.132  27.771  0.1099  0.0765 -0.3995
26146W        W69240   6.797  11.974  26.544 -0.0605 -0.0303  0.2079
26147W        W69241   4.943  12.766  26.466  0.2247  0.2670 -0.1054
26148W        W69242   3.666  13.035   0.121 -0.0313 -0.1343 -0.0758
26149W        W69243   6.263  14.202  30.109 -0.0454  0.4685 -0.2654
26150W        W69244   6.188  13.687  30.093 -0.0436  0.0770 -0.1656
26151W        W69245   6.596  13.192  26.653  0.1125  0.1093 -0.0189
26152W        W69246   5.739  13.350  28.219 -0.1516 -0.0853  0.3796
26153W        W69247   4.212  12.783  29.742  0.1486 -0.0789  0.0591
26154W        W69248   5.920  13.175  31.457 -0.0104  0.1598  0.1800
26155W        W69249   6.379  13.565  29.624  0.0515  0.1896 -0.0499
26156W        W69250   6.722  12.299  30.977 -0.1993  0.0548 -0.1332
26157W        W69251   5.270  12.571  27.728  0.2157  0.5010 -0.0890
26158W        W69252   5.812  11.263  28.210  0.0277  0.1716 -0.4714
26159W        W69253   3.395  14.733  27.926  0.2825 -0.0942 -0.2836
26160W        W69254   5.692  12.328  28.153 -0.2314 -0.3212 -0.1687
26161W        W69255   6.776  12.711  30.609  0.2814  0.1484 -0.0099
26162W        W69256   4.814  10.925  29.850  0.0939  0.0336  0.0273
26163W        W69257   6.014  12.134  31.427 -0.3833  0.2312  0.0177
26164W        W69258   6.417  12.279  27.487  0.0660  0.1608 -0.1044
26165W        W69259   6.684  12.780  29.605 -0.0605  0.0452 -0.4172
26166W        W69260   6.285  13.128  27.357 -0.1316 -0.0022 -0.1528
26167W        W69261   5.544  10.572  30.149 -0.0912  0.2015  0.0059
26168W        W69262   4.063  13.277  29.325  0.0138 -0.1166 -0.2416
26169W        W69263   4.722  14.767  30.731 -0.4076  0.0440  0.0071
26170W        W69264   6.457  12.315  30.465 -0.0905  0.0766 -0.1928
26171W        W69265   4.602  12.760  28.272 -0.1294 -0.1920  0.0880
26172W        W69266   5.080  10.704  30.669 -0.1449 -0.1549 -0.4151
26173W        W69267   5.982  11.010  29.113 -0.1360  0.0226 -0.1546
26174W        W69268   5.387  14.300  29.069 -0.1234  0.3185 -0.2402
26175W        W69269   5.386  13.882  27.983 -0.0206 -0.1082 -0.1698
26176W        W69270   5.425  10.955  28.218  0.0129 -0.1344 -0.0494
26177W        W69271   5.520  14.873  29.152  0.1579  0.0306 -0.0125
26178W        W69272   4.732  14.004  27.956 -0.1516  0.5479  0.1197
26179W        W69273   5.893  13.011  30.572  0.0704 -0.2052  0.1183
26180W        W69274   4.836  13.649  28.592 -0.2311 -0.2559 -0.2898
26181W        W69275   8.153  10.752  29.852  0.1922 -0.1532  0.0960
26182W        W69276   4.320  13.756  29.317  0.0138  0.0246  0.0567
26183W        W69277   5.247  11.340  28.432  0.0161  0.1740  0.4058
26184W        W69278   4.361  11.867  27.800  0.0644 -0.2379 -0.1456
26185W        W69279   7.441  11.629  27.565 -0.0754 -0.0158 -0.0803
26186W        W69280   6.614  12.872  28.514  0.0082  0.0181  0.0049
26187W        W69281   4.993  11.000  28.848 -0.1012 -0.0556 -0.0035
26188W        W69282   5.205  11.655  29.232  0.0950  0.1423  0.1468
26189W        W69283   4.474  14.819  28.414  0.1217  0.0321  0.0195
26190W        W69284   7.269  15.313  30.026  0.0209  0.2345 -0.2111
26191W        W69285   5.676  11.684  27.494 -0.0843  0.0308 -0.1338
26192W        W69286   7.236  13.996  29.618 -0.1463  0.1496  0.0480
26193W        W69287   4.754  11.935  31.481 -0.0156 -0.2305 -0.1501
26194W        W69288   5.299  12.032  27.883  0.1471  0.1875  0.0703
26195W        W69289   7.786  12.083  29.611  0.0505 -0.3075  0.2580
26196W        W69290   5.396  12.575  28.971  0.0084 -0.2438  0.1171
26197W        W69291   3.770  13.970  29.093 -0.1057  0.1605 -0.1913
26198W        W69292   7.056  14.396  29.808  0.0180 -0.0318 -0.3175
26199W        W69293   6.425  11.584  28.291 -0.2298 -0.5195 -0.3441
26200W        W69294   5.885  13.883  29.693 -0.2598 -0.0869 -0.1437
26201W        W69295   4.117  10.890  30.348 -0.3022  0.1584  0.1694
26202W        W69296   7.198  12.263  30.663  0.0902  0.1460 -0.1556
26203W        W69297   5.400  13.340  29.362  0.1213 -0.6577  0.0231
26204W        W69298   5.321  10.645  27.632  0.0579 -0.1691 -0.3206
26205W        W69299   3.881  13.277  27.561 -0.2832  0.2551  0.0621
26206W        W69300   5.405  12.939  30.660  0.2556 -0.2773  0.1384
26207W        W69301   4.993  11.706  31.113 -0.0278  0.0209 -0.0828
26208W        W69302   3.970  12.732  30.619 -0.1871  0.2157 -0.3606
26209W        W69303   7.888  10.223  29.502  0.0181  0.0813 -0.0644
26210W        W69304   7.178  15.417  28.206  0.1412 -0.1813 -0.0080
26211W        W69305   7.472  11.750  30.886  0.1711  0.1031  0.1101
26212W        W69306   4.851  13.731  29.628  0.2532 -0.1448 -0.0012
26213W        W69307   3.765  11.864  30.043  0.3327 -0.1695 -0.1648
26214W        W69308   5.405  13.971  29.474 -0.0551 -0.4266  0.0750
26215W        W69309   5.202  12.593  29.906 -0.1697  0.4704  0.2854
26216W        W69310   4.419  14.199  31.047  0.0022 -0.0374  0.0562
26217W        W69311   4.409  14.473  28.780 -0.0020 -0.0431 -0.0384
26218W        W69312   3.600  13.070  30.531 -0.1134  0.0760  0.4091
26219W        W69313   6.767  11.919  29.807  0.2217 -0.5053 -0.3070
26220W        W69314   6.695  14.236  27.811  0.0039  0.2311  0.0619
26221W        W69315   5.076  12.009  30.691 -0.1934  0.0166 -0.1862
26222W        W69316   7.125  10.615  30.226  0.3843  0.1135  0.0987
26223W        W69317   6.124  13.195  26.875  0.1165  0.1255 -0.3627
26224W        W69318   7.642  10.807  30.312 -0.5455  0.4577 -0.1630
26225W        W69319   6.161  11.157  29.561  0.1086 -0.3321 -0.2584
26226W        W69320   7.351  14.262  29.196 -0.0131 -0.0408 -0.0859
26227W        W69321   4.767  10.818  29.257 -0.1191  0.0918  0.1933
26228W        W69322   6.385  14.013  31.206 -0.0626  0.0585 -0.0144
26229W        W69323   4.788  11.197  31.320  0.0445  0.1980  0.2095
26230W        W69324   7.108  11.804  28.953  0.0875  0.0030 -0.2093
26231W        W69325   6.121  12.131  28.381 -0.0092 -0.0593  0.0243
26232W        W69326   5.482  11.808  30.859  0.1151  0.2635  0.0753
26233W        W69327   7.106  14.300  28.747  0.0262  0.3056  0.2271
26234W        W69328   5.008  12.997  27.980 -0.0104  0.2831  0.0859
26235W        W69329   5.805  10.125  30.363 -0.2108 -0.1875  0.0041
26236W        W69330   3.786  12.474   0.426  0.1068 -0.2209  0.2259
26237W        W69331   5.599  12.094  29.082  0.1186  0.2335  0.1945
26238W        W69332   6.773  14.573  28.989 -0.1490  0.1639 -0.1042
26239W        W69333   5.094  12.094  29.951  0.1013  0.2009 -0.0201
26240W        W69334   4.483  11.505  31.595  0.1935  0.2592  0.5069
26241W        W69335   8.408  12.922  29.172 -0.4217  0.1165  0.0635
26242W        W69336   6.566  10.633  30.543  0.1366  0.1670  0.2679
26243W        W69337   7.393   9.911  30.746 -0.0048 -0.1021 -0.5178
26244W        W69338   4.173  12.153  30.541 -0.0949 -0.0790  0.1093
26245W        W69339   5.184  11.429   0.575  0.3392  0.1602 -0.2865
26246W        W69340   4.963  11.094  30.390 -0.3353 -0.1627  0.2019
26247W        W69341   6.881  15.050  30.905 -0.0932  0.0831 -0.0254
26248W        W69342   7.706  12.841  27.055 -0.1307  0.1023  0.1612
26249W        W69343   6.462  11.870  31.117  0.0476 -0.0115 -0.0823
26250W        W69344   7.122  12.252  28.201 -0.0563  0.1506  0.1221
26251W        W69345   7.124  12.312  26.296 -0.1248  0.1430 -0.2244
26252W        W69346   3.316  13.053  29.521  0.0176 -0.0383  0.0388
26253W        W69347   6.695  10.653  31.523 -0.0415 -0.2914 -0.2508
26254W        W69348   4.005  12.246  27.077 -0.4416 -0.2313 -0.0601
26255W        W69349   5.966  11.118  30.530  0.3847 -0.1531 -0.2125
26256W        W69350   5.291  13.206  28.924 -0.0904 -0.0504  0.0037
26257W        W69351   6.425  13.686  28.592  0.1037 -0.2057  0.0552
26258W        W69352   6.717  12.315  29.392  0.3451  0.3390  0.0285
26259W        W69353   4.667  11.619  28.312 -0.0796  0.2205  0.0987
26260W        W69354   5.547  15.150   0.715 -0.1039  0.3651  0.0228
26261W        W69355   4.748  12.971  27.031 -0.1715 -0.2331 -0.0857
26262W        W69356   6.031  12.126  27.152 -0.1110  0.3191  0.1005
26263W        W69357   6.361  14.027  29.503 -0.3140 -0.2030 -0.2380
26264W        W69358   6.852  11.861  30.661  0.3718  0.0143 -0.1381
26265W        W69359   5.024  11.899  27.008  0.0712  0.3313  0.1570
26266W        W69360   5.612  11.767   0.453  0.0454 -0.0486 -0.1389
26267W        W69361   4.127  13.732  28.770  0.0191  0.2022 -0.0441
26268W        W69362   6.689  11.058  30.284 -0.1347  0.1370  0.1575
26269W        W69363   4.061  13.254  30.775 -0.2743 -0.2170  0.3276
26270W        W69364   4.545  12.289  29.915  0.2251 -0.0492 -0.0182
26271W        W69365   4.413  14.105  30.548  0.2633  0.1739  0.0726
26272W        W69366   5.839  11.658  29.166 -0.3057  0.3059 -0.0843
26273W        W69367   4.913  11.874  29.522  0.0763  0.0823  0.2417
26274W        W69368   6.928  11.569  30.158 -0.0998 -0.0588 -0.3272
26275W        W69369   7.515  10.811  31.036 -0.0896  0.2594 -0.0398
26276W        W69370   5.933  14.165  30.972 -0.0328  0.0576  0.0098
26277W        W69371   4.408  12.956  30.595  0.0809 -0.0401  0.1139
26278W        W69372   5.285  14.379  30.220  0.3150 -0.1797 -0.0773
26279W        W69373   6.702  12.629  30.140  0.3472  0.0768 -0.0593
26280W        W69374   6.667  13.980  29.932 -0.2074 -0.0149  0.1611
26281W        W69375   4.829  11.532  30.636 -0.2105 -0.0382 -0.2124
26282W        W69376   5.094  13.280  31.009 -0.0013 -0.0003 -0.1441
26283W        W69377   6.206  12.953  27.925 -0.1480 -0.0163  0.1980
26284W        W69378   5.062  11.091  27.850 -0.0485  0.4260 -0.1573
26285W        W69379   5.911  12.727  27.511 -0.2153  0.2797 -0.1718
26286W        W69380   6.835  15.965   0.322  0.0397  0.0478  0.3115
26287W        W69381   4.539  12.980  31.634  0.1488 -0.1739 -0.0859
26288W        W69382   5.125  15.294  28.485  0.0095 -0.1823  0.0133
26289W        W69383   7.013  14.454  28.181 -0.2067 -0.2153  0.1894
26290W        W69384   5.000  12.672  28.585  0.1680 -0.0332 -0.1263
26291W        W69385   5.349  15.169  29.607 -0.0687  0.0468 -0.1089
26292W        W69386   5.727  13.699  29.168 -0.0038  0.1951 -0.1134
26293W        W69387   5.191  14.744  31.915 -0.2128 -0.2946 -0.0596
26294W        W69388   3.005  14.796  27.460  0.1211 -0.2297  0.0144
26295W        W69389   5.854  14.982  27.290 -0.0595  0.2386 -0.2276
26296W        W69390   4.055  15.223  27.804 -0.1708  0.0599 -0.4087
26297W        W69391   6.682  14.579  31.171  0.0829  0.0570  0.1068
26298W        W69392   7.113  10.965  26.954 -0.1098 -0.3281  0.0761
26299W        W69393   7.238  11.183  30.143  0.0368  0.2309  0.0436
26300W        W69394   8.478  11.461  29.006 -0.0112  0.4743  0.2345
26301W        W69395   5.636  14.936   0.007  0.1114 -0.1434 -0.0647
26302W        W69396   5.296  12.814  29.406  0.1417  0.4110 -0.1217
26303W        W69397   5.488  11.502  26.633 -0.2139  0.1949 -0.1801
26304W        W69398   4.755  14.461  30.197 -0.0028  0.3195 -0.2137
26305W        W69399   7.473   9.989  31.574  0.0764  0.1747 -0.2107
26306W        W69400   3.711  14.599  31.010  0.0784  0.2463 -0.1108
26307W        W69401   6.300  15.848  28.852  0.1325 -0.0927 -0.2750
26308W        W69402   4.956  12.218  27.472  0.2682 -0.0329 -0.1200
26309W        W69403   5.540  11.829  30.058  0.0301 -0.1856  0.0508
26310W        W69404   7.291  13.009  29.413  0.0057 -0.3005 -0.1280
26311W        W69405   6.049  12.771  28.367 -0.1827  0.0598 -0.0063
26312W        W69406   6.061  12.069  30.087 -0.1105  0.0839  0.1072
26313W        W69407   4.928  14.801  27.406  0.3484 -0.3554  0.1367
26314W        W69408   5.673  13.758  30.127 -0.0950 -0.0899 -0.1215
26315W        W69409   6.943  14.539  30.270  0.0555 -0.1029 -0.0750
26316W        W69410   3.708  10.923  27.528  0.1687  0.0610  0.0574
26317W        W69411   7.108  12.014  27.681 -0.0441  0.2464  0.0616
26318W        W69412   5.549  12.202  28.588 -0.0152  0.0139 -0.1616
26319W        W69413   6.194  10.389  30.817  0.2434  0.0392  0.0607
26320W        W69414   3.489  13.470  29.309  0.2032 -0.2696 -0.3535
26321W        W69415   6.280  12.889  28.940 -0.4555 -0.1902 -0.0895
26322W        W69416   5.531  13.249  30.277  0.2583 -0.3110 -0.1406
26323W        W69417   3.322  11.439  30.351 -0.1390 -0.1546 -0.1051
26324W        W69418   5.776  13.036  28.788  0.0526 -0.1263 -0.0678
26325W        W69419   5.389  12.413  30.424  0.2163 -0.0495 -0.0518
26326W        W69420   6.967  12.495  27.684  0.2313  0.0380  0.0309
26327W        W69421   6.250  16.441  30.856  0.0404  0.1696 -0.1744
26328W        W69422   7.091  11.423  29.675  0.3289  0.1449  0.1064
26329W        W69423   6.700  13.747  27.422  0.1200 -0.0892  0.0786
26330W        W69424   4.408  12.863  29.259  0.1601 -0.1247  0.2049
26331W        W69425   4.905  13.693  31.379  0.2463  0.0064  0.0132
26332W        W69426   5.986  13.162  30.102 -0.0117  0.0600 -0.1973
26333W        W69427   4.791  10.806  27.451  0.0181  0.2604 -0.0184
26334W        W69428   6.758  13.971  28.292  0.1414 -0.1051  0.0158
26335W        W69429   6.374  12.920  30.340  0.0647  0.1257 -0.1385
26336W        W69430   5.791  14.199  28.246 -0.0777 -0.0170  0.3173
26337W        W69431   7.361  13.627  26.974 -0.0248  0.1542  0.2043
26338W        W69432   6.542  14.455  29.686 -0.2954 -0.2328  0.0502
26339W        W69433   5.988  10.651  30.412 -0.0532 -0.0514 -0.1025
26340W        W69434   6.804  14.811  29.501 -0.1273  0.1862  0.1086
26341W        W69435   7.243  12.772  30.960  0.0067 -0.2779  0.0849
26342W        W69436   6.911  11.701  27.978 -0.0894 -0.0086  0.0343
26343W        W69437   4.344  12.429  28.017 -0.0635  0.2379  0.4342
26344W        W69438   4.891  13.496  28.027 -0.0513  0.2632  0.0209
26345W        W69439   6.007  10.446  29.935 -0.2681  0.1768  0.0957
26346W        W69440   4.880  12.894  30.687  0.1681 -0.4282  0.0244
26347W        W69441   6.326  13.688  27.014  0.2009  0.0928 -0.0368
26348W        W69442   6.777  11.806  31.530 -0.2168  0.1331 -0.0267
26349W        W69443   4.921  14.244  30.654  0.0510  0.0791 -0.1075
26350W        W69444   4.594  13.419  31.049 -0.3435  0.0949 -0.0157
26351W        W69445   3.852  13.398  28.387  0.1260 -0.1041 -0.0007
26352W        W69446   4.508  12.530  30.804 -0.1050 -0.1234  0.0520
26353W        W69447   5.352  13.540  29.834 -0.2046 -0.2679 -0.2576
26354W        W69448   5.053  13.820  27.590  0.0914  0.1419  0.2226
26355W        W69449   6.929  13.597  29.549  0.3321  0.1009  0.0979
26356W        W69450   6.154  11.940  28.889  0.0112 -0.1209  0.0406
26357W        W69451   7.167  13.700  30.999 -0.1106 -0.0014  0.1931
26358W        W69452   4.504  10.711  28.780 -0.0525 -0.0234 -0.1500
26359W        W69453   9.231  10.408  28.470 -0.0749 -0.3234  0.0700
26360W        W69454   6.299  11.527  29.191  0.1416 -0.0999  0.0153
26361W        W69455   4.494  11.675  29.766 -0.1044 -0.0096 -0.0173
26362W        W69456   4.851  13.286  27.502 -0.0755 -0.1307 -0.1212
26363W        W69457   4.544  12.790  28.763  0.0533 -0.1539  0.1857
26364W        W69458   4.196  14.478  30.244 -0.1328 -0.1256  0.0580
26365W        W69459   5.537  10.428  30.708 -0.1424  0.2784 -0.1764
26366W        W69460   5.922  11.651  30.325  0.0670  0.2227 -0.0718
26367W        W69461   3.775  12.729  30.121  0.0162  0.2104 -0.0861
26368W        W69462   4.509  11.286  27.911 -0.2204 -0.1576 -0.1118
26369W        W69463   5.792  15.317  29.168  0.3334 -0.2441  0.1051
26370W        W69464   5.965  11.594  27.888 -0.0354 -0.0729  0.0964
26371W        W69465   5.291  11.158  27.436 -0.2677  0.3323  0.1874
26372W        W69466   5.372  13.693  28.445  0.0197  0.2688 -0.0716
26373W        W69467   6.584  14.678  28.059 -0.1406  0.3702 -0.1769
26374W        W69468   5.315  12.891  26.861 -0.1867 -0.0554 -0.0753
26375W        W69469   7.645  13.840   0.273 -0.3770  0.1690  0.1145
26376W        W69470   4.826  13.599  29.156 -0.2332 -0.0688 -0.0215
26377W        W69471   4.341  13.255   0.670 -0.0476 -0.0207 -0.1549
26378W        W69472   3.752  13.159  31.602 -0.1902  0.4164 -0.1089
26379W        W69473   3.314  11.226  27.795  0.4357  0.1141 -0.2452
26380W        W69474   6.431  13.777  27.892  0.0570  0.0256 -0.0589
26381W        W69475   7.406  16.102  30.197 -0.1416  0.1564 -0.1078
26382W        W69476   6.176  14.276  28.667  0.0740  0.0738  0.1981
26383W        W69477   6.329  15.220  30.717 -0.0064 -0.0555 -0.1060
26384W        W69478   4.245  13.560  29.838 -0.0491  0.0089 -0.0348
26385W        W69479   3.537  10.177  29.781  0.1600  0.1835 -0.1359
26386W        W69480   5.822  13.274  27.535 -0.3033 -0.0540 -0.0718
26387W        W69481   5.187  13.877  30.237 -0.1788 -0.0927 -0.4100
26388W        W69482   6.015  13.771  28.143  0.0544  0.5012  0.0919
26389W        W69483   7.308  11.859  29.877 -0.0479 -0.2661  0.1046
26390W        W69484   6.805  14.162  29.354 -0.0737 -0.0937  0.5148
26391W        W69485   4.198  10.410   1.008 -0.0524 -0.2771  0.2065
26392W        W69486   4.636  12.277  29.461 -0.3092 -0.0537 -0.2141
26393W        W69487   7.694  11.258  28.947 -0.4069 -0.0706  0.1762
26394W        W69488   5.867  10.780  29.587  0.2766 -0.1474 -0.0940
26395W        W69489   5.999  11.285  27.485 -0.0603  0.0835 -0.0271
26396W        W69490   5.367  13.087  28.318  0.0753  0.0964  0.2334
26397W        W69491   4.589  13.236  29.605  0.2467 -0.0587 -0.0820
26398W        W69492   6.775  13.314  27.194  0.1344 -0.0615  0.3230
26399W        W69493   4.699  10.957  31.755 -0.0511 -0.1651  0.0444
26400W        W69494   6.036  12.499  30.274 -0.0862 -0.1198  0.0416
26401W        W69495   6.316  12.725  31.525 -0.0254  0.0102  0.0587
26402W        W69496   4.730  12.724  29.657  0.0628  0.0689 -0.0271
26403W        W69497   6.321  11.975  29.485 -0.1791 -0.3514 -0.2769
26404W        W69498   7.182  13.704  30.067  0.2314  0.4422  0.0644
26405W        W69499   6.135  14.831   0.002 -0.0921  0.2542  0.0222
26406W        W69500   5.884  14.272  30.469  0.1551  0.1142 -0.1417
26407W        W69501   7.041  12.571  28.618 -0.0763  0.3991  0.1435
26408W        W69502   4.316  10.960  29.339 -0.2622 -0.0635 -0.1249
26409W        W69503   5.090  13.138  29.705  0.2735  0.0318 -0.1884
26410W        W69504   4.693  13.953  30.070 -0.0570 -0.0373 -0.1010
26411W        W69505   7.104  11.419  30.778 -0.1717 -0.0626  0.0921
26412W        W69506   4.205  12.038  28.327  0.0158 -0.2053  0.0339
26413W        W69507   6.244  10.538  28.986  0.0692 -0.1609  0.0298
26414W        W69508   4.945  14.421  31.650 -0.0407  0.1780 -0.2353
26415W        W69509   6.439  13.125  29.867  0.0811  0.2802  0.1561
26416W        W69510   5.843  11.697  31.678 -0.0108 -0.4751 -0.0277
26417W        W69511   6.037  12.554   0.317 -0.1543 -0.1331 -0.4177
26418W        W69512   3.696  10.043   0.060  0.0842 -0.2913  0.0841
26419W        W69513   4.058  13.657  31.762  0.1015  0.0461 -0.3577
26420W        W69514   5.004  13.253  31.579 -0.0034  0.0655 -0.0217
26421W        W69515   4.599  15.405   0.369 -0.1043 -0.2782 -0.1471
26422W        W69516   5.387  11.325  31.266  0.0327 -0.1912  0.0206
26423W        W69517   4.243  10.584  31.866 -0.0843 -0.0409  0.1104
26424W        W69518   5.893  11.749  31.144  0.0020 -0.1039  0.2645
26425W        W69519   7.666  12.734  31.325 -0.1719  0.0276 -0.0088
26426W        W69520   5.385  14.353  30.762 -0.2599 -0.0758 -0.2238
26427W        W69521   4.288   9.552   0.987  0.0612  0.1773 -0.1348
26428W        W69522   8.504  11.935  30.053 -0.0220  0.1579  0.1447
26429W        W69523   4.525  13.490  31.807 -0.3279  0.2625 -0.3269
26430W        W69524   6.076  12.280   0.710  0.0876  0.1018  0.0086
26431W        W69525   6.188  14.486   1.317  0.3854  0.0002  0.2235
26432W        W69526   3.400  13.561  31.415 -0.2102  0.0452 -0.0284
26433W        W69527   6.969  13.219  31.076  0.1616  0.1975 -0.2646
26434W        W69528   4.014  12.554  31.923  0.0676  0.0002  0.2273
26435W        W69529   3.541  12.651  31.726 -0.1109  0.3954  0.0500
26436W        W69530   4.199  11.097  31.668 -0.0358  0.4484 -0.0129
26437W        W69531   3.643  14.730   0.570  0.4642 -0.2790 -0.0956
26438W        W69532   8.015   9.660  31.458 -0.0702  0.0148 -0.0592
26439W        W69533   4.906   9.984  30.112 -0.1281  0.2253 -0.1020
26440W        W69534   7.153  10.711  31.832  0.1354 -0.1494 -0.3081
26441W        W69535   3.415   9.695  30.904  0.0291 -0.1277 -0.0144
26442W        W69536   4.925  12.898   0.007  0.2898  0.2169 -0.1229
26443W        W69537   3.939  14.183  30.711  0.0416  0.0511 -0.0166
26444W        W69538   5.573  11.170  30.111  0.1113 -0.3317  0.1354
26445W        W69539   4.270  15.817  29.713  0.0122 -0.1500 -0.2874
26446W        W69540   4.453  14.452  31.504  0.2148 -0.2308  0.0420
26447W        W69541   4.590  10.757   0.231  0.1102  0.3371  0.1760
26448W        W69542   7.233  12.377  31.462 -0.0979 -0.2132  0.4455
26449W        W69543   6.291  11.861  30.653 -0.1680 -0.0207  0.2656
26450W        W69544   3.315  11.765   0.754 -0.0635 -0.1242 -0.1497
26451W        W69545   5.811  15.367  31.728  0.0396  0.2647 -0.0243
26452W        W69546   4.055  14.462   0.373 -0.0482 -0.2126 -0.0679
26453W        W69547   7.945  12.574  30.879 -0.1779  0.2913  0.1689
26454W        W69548   7.878  11.680  30.562  0.0807 -0.0254 -0.2005
26455W        W69549   4.777  10.409  31.781 -0.0873  0.1065 -0.1254
26456W        W69550   5.561  12.311   0.488 -0.1399  0.1102  0.0114
26457W        W69551   3.934  10.959   0.872 -0.2529  0.0111 -0.3317
26458W        W69552   4.438  10.831  31.225 -0.0625  0.0334  0.2227
26459W        W69553   4.870  13.465  30.022 -0.1053  0.3583 -0.2105
26460W        W69554   4.748  12.097   0.310  0.0668  0.1609 -0.0883
26461W        W69555   7.574  15.306  31.874 -0.2062  0.1961 -0.0651
26462W        W69556   6.400  10.131  31.902  0.2963  0.2898 -0.0904
26463W        W69557   6.522  12.397   0.317 -0.0879  0.1418  0.1007
26464W        W69558   7.362  12.451   0.711  0.4166 -0.0521  0.3102
26465W        W69559   3.558  12.703  30.883 -0.0849  0.0505 -0.1334
26466W        W69560   5.602  12.459  31.876 -0.0443 -0.1519 -0.0717
26467W        W69561   7.731  11.290  31.980  0.1668  0.3380 -0.2198
26468W        W69562   5.878  10.909   0.659  0.1395  0.0758 -0.1794
26469W        W69563   5.233  13.894  30.980  0.1642 -0.1072  0.0406
26470W        W69564   5.023  11.503  31.603  0.0387 -0.1884 -0.1533
26471W        W69565   5.150  12.284   0.789 -0.0533 -0.2259  0.0146
26472W        W69566   6.126  12.260  30.855 -0.0867  0.0553 -0.0458
26473W        W69567   8.182  14.868  31.799  0.0571 -0.0879 -0.0828
26474W        W69568   5.593  15.848  30.305  0.1431  0.2887 -0.0047
26475W        W69569   3.375  11.772   0.198  0.0620  0.1782  0.1682
26476W        W69570   3.459  12.928   0.662 -0.1830 -0.2232 -0.1404
26477W        W69571   4.295  12.917  31.052 -0.0658 -0.1399  0.0123
26478W        W69572   2.477  14.147  31.405 -0.3084  0.1345 -0.0873
26479W        W69573   4.572  10.690  30.395  0.1529 -0.1409  0.0815
26480W        W69574   6.893  14.185  31.451  0.0748  0.3150  0.1765
26481W        W69575   5.624  13.789   0.128  0.1285  0.0708 -0.1995
26482W        W69576   6.818  10.901  30.868 -0.1716  0.0852 -0.4228
26483W        W69577   4.411  17.213  19.291  0.1395 -0.0816 -0.0863
26484W        W69578   4.398  16.054  18.366 -0.2429  0.0519 -0.0604
26485W        W69579   6.366  16.671  17.021  0.2821  0.0250 -0.1744
26486W        W69580   5.266  17.462  16.880 -0.2786 -0.1485 -0.0617
26487W        W69581   5.001  15.686  17.741 -0.0224 -0.0807 -0.1959
26488W        W69582   7.382  19.000  17.417 -0.0632 -0.0794  0.1190
26489W        W69583   4.126  14.280  19.742 -0.1579 -0.1365 -0.0799
26490W        W69584   4.970  17.401  19.719 -0.0505 -0.3695 -0.2964
26491W        W69585   6.322  18.414  19.336 -0.3191 -0.0656  0.0364
26492W        W69586   5.561  16.538  16.545 -0.0133  0.0080 -0.0447
26493W        W69587   4.931  15.903  19.525  0.0495  0.4605 -0.2046
26494W        W69588   4.907  17.857  19.508 -0.1183  0.0392 -0.2233
26495W        W69589   3.715  15.007  17.636  0.0016  0.3162  0.1275
26496W        W69590   3.536  14.877  20.313 -0.0998  0.0221  0.4132
26497W        W69591   4.252  17.416  18.829 -0.2026 -0.3612  0.2364
26498W        W69592   3.801  18.139  16.928 -0.0963  0.0764  0.0748
26499W        W69593   5.716  16.959  17.810  0.0355  0.1400  0.0252
26500W        W69594   5.135  16.283  17.693 -0.1139  0.1361  0.2152
26501W        W69595   4.340  18.925  18.558  0.2009 -0.0898  0.1320
26502W        W69596   4.343  15.203  19.358  0.1639  0.1435 -0.2590
26503W        W69597   5.890  15.974  19.488 -0.0109  0.1743 -0.2660
26504W        W69598   4.366  19.250  17.770 -0.6064 -0.2786  0.1890
26505W        W69599   4.410  15.822  16.897  0.1616 -0.0785  0.0216
26506W        W69600   2.738  15.747  17.400  0.0450  0.3158 -0.0373
26507W        W69601   3.516  15.232  19.235 -0.1468 -0.0882  0.1342
26508W        W69602   5.632  15.813  19.070  0.2105 -0.0222  0.4492
26509W        W69603   6.120  16.647  18.564 -0.0402 -0.1025 -0.0572
26510W        W69604   4.567  18.022  18.110  0.0860 -0.1849 -0.2428
26511W        W69605   4.123  19.374  19.216  0.0921 -0.0131 -0.0678
26512W        W69606   6.885  15.271  19.064 -0.1559 -0.2152  0.2928
26513W        W69607   2.248  15.766  17.396  0.1271 -0.0837 -0.1248
26514W        W69608   2.935  18.530  18.291  0.2040  0.1894  0.0137
26515W        W69609   4.086  16.833  16.756  0.2589 -0.0453  0.2033
26516W        W69610   7.533  18.269  16.574  0.0388 -0.3051  0.3399
26517W        W69611   5.698  18.745  18.268  0.2263  0.1875  0.3010
26518W        W69612   5.491  17.575  19.917 -0.1421 -0.1749 -0.0101
26519W        W69613   3.555  16.849  16.421 -0.1513 -0.1283  0.0194
26520W        W69614   4.922  18.772  19.826 -0.0719 -0.1631  0.0630
26521W        W69615   5.029  16.843  19.852  0.0574 -0.2396  0.0997
26522W        W69616   3.934  16.965  17.940 -0.1198 -0.2336 -0.0453
26523W        W69617   5.460  17.236  17.349  0.0973 -0.4152 -0.0678
26524W        W69618   4.337  17.318  16.084  0.1026  0.0401 -0.1692
26525W        W69619   5.268  16.143  16.399 -0.2936 -0.1199  0.2357
26526W        W69620   2.730  15.427  19.585 -0.1369  0.4816 -0.0193
26527W        W69621   3.422  16.382  17.362  0.0865  0.0980  0.1388
26528W        W69622   7.326  14.366  19.971  0.1795  0.2120 -0.0304
26529W        W69623   3.310  17.988  16.938  0.2339  0.0944 -0.0733
26530W        W69624   5.476  16.292  17.291  0.3688  0.1820 -0.1386
26531W        W69625   4.744  14.374  16.418  0.0707 -0.1577 -0.0078
26532W        W69626   6.318  15.593  17.040  0.1574  0.4610  0.0073
26533W        W69627   4.614  14.437  17.866 -0.0339 -0.1660  0.1311
26534W        W69628   4.002  18.259  17.510  0.0767  0.3118 -0.0311
26535W        W69629   3.969  14.798  19.355 -0.0141  0.1799 -0.2066
26536W        W69630   7.169  16.078  20.403  0.1716  0.1437 -0.3333
26537W        W69631   4.407  16.738  17.858  0.0694 -0.2622  0.6226
26538W        W69632   5.535  17.323  19.464  0.0957 -0.0285  0.0553
26539W        W69633   4.261  18.535  18.032  0.1763 -0.0043 -0.0349
26540W        W69634   3.829  16.490  17.703 -0.0871 -0.1419 -0.0870
26541W        W69635   6.002  18.306  16.072 -0.1024  0.0142  0.0607
26542W        W69636   7.423  17.845  15.987  0.3298  0.0656  0.1334
26543W        W69637   5.485  17.982  16.746  0.0195  0.2408 -0.0943
26544W        W69638   3.297  16.683  17.023  0.1057 -0.0889 -0.1470
26545W        W69639   3.591  16.909  18.995 -0.0597  0.1324  0.1590
26546W        W69640   4.386  15.021  21.096  0.2546 -0.0485 -0.0599
26547W        W69641   4.714  13.780  16.274 -0.1497 -0.3543 -0.2147
26548W        W69642   5.424  17.583  17.697 -0.1392  0.2829 -0.1340
26549W        W69643   2.159  16.133  19.874 -0.0672 -0.2681 -0.0500
26550W        W69644   7.691  15.113  18.003  0.1832 -0.0026  0.0252
26551W        W69645   4.156  16.533  18.280  0.2346 -0.1837  0.2299
26552W        W69646   5.872  17.673  19.611 -0.4292 -0.2989  0.1181
26553W        W69647   6.310  16.278  16.054 -0.2420 -0.3945 -0.0151
26554W        W69648   5.351  15.009  17.823 -0.0307  0.0418  0.0004
26555W        W69649   5.108  14.445  18.658 -0.0083  0.0287  0.0821
26556W        W69650   4.913  17.062  17.087  0.0892 -0.2486  0.1678
26557W        W69651   5.433  15.519  17.894 -0.2887  0.0705 -0.1020
26558W        W69652   5.716  17.917  17.944  0.0285 -0.3834  0.1442
26559W        W69653   6.521  16.513  17.458 -0.0451  0.1233 -0.1543
26560W        W69654   3.935  19.191  17.964 -0.0956  0.1821  0.1363
26561W        W69655   5.358  15.468  19.234  0.0780 -0.0803 -0.1333
26562W        W69656   4.441  17.607  19.732 -0.0767 -0.0389  0.0868
26563W        W69657   3.766  18.051  15.824  0.0843  0.0545 -0.1791
26564W        W69658   3.186  16.503  19.348 -0.1430  0.0740  0.0789
26565W        W69659   2.667  17.283  16.442 -0.2856 -0.0220  0.1782
26566W        W69660   3.158  15.121  19.996  0.0347  0.1941  0.0943
26567W        W69661   3.858  17.510  18.268 -0.0393 -0.0995  0.0942
26568W        W69662   4.947  15.986  18.121  0.1884  0.0576  0.1577
26569W        W69663   4.122  17.178  20.569  0.2959  0.2427 -0.2108
26570W        W69664   5.900  14.726  17.198  0.0676 -0.1618 -0.0242
26571W        W69665   3.085  16.330  17.724  0.0627 -0.2046  0.3777
26572W        W69666   7.070  17.351  16.042  0.0368 -0.2308 -0.0203
26573W        W69667   5.789  16.857  17.297  0.2974  0.2132 -0.0891
26574W        W69668   5.967  17.361  16.173  0.3260 -0.1112  0.1004
26575W        W69669   4.796  17.061  18.126 -0.1673  0.1437  0.1951
26576W        W69670   4.189  16.143  17.933  0.1411 -0.0241 -0.0517
26577W        W69671   4.507  14.604  19.936 -0.0654  0.1883  0.1370
26578W        W69672   3.241  14.546  19.745 -0.2422  0.2161  0.2623
26579W        W69673   5.502  16.129  18.103 -0.2573 -0.1345  0.0533
26580W        W69674   3.011  15.132  19.082 -0.0995  0.1988  0.3928
26581W        W69675   6.355  16.295  17.852 -0.0447 -0.3272 -0.1066
26582W        W69676   3.787  17.382  17.630  0.0204  0.1159  0.2548
26583W        W69677   1.963  16.158  17.622 -0.1520  0.1829  0.1054
26584W        W69678   5.946  15.246  20.094 -0.1375 -0.1175 -0.1543
26585W        W69679   4.769  18.843  17.806 -0.0936 -0.0319 -0.0009
26586W        W69680   5.596  18.366  19.337 -0.4988 -0.0124 -0.0383
26587W        W69681   5.007  18.396  20.163  0.2741 -0.1935 -0.3194
26588W        W69682   4.510  15.583  20.089 -0.0975 -0.1457  0.0975
26589W        W69683   3.752  14.569  17.149  0.0108 -0.0207 -0.1473
26590W        W69684   4.223  19.722  17.770  0.0220 -0.2043 -0.2743
26591W        W69685   4.301  17.274  18.141  0.2404 -0.1457 -0.1814
26592W        W69686   4.510  15.317  17.229  0.1379  0.1985  0.1813
26593W        W69687   5.811  17.519  17.051 -0.0072 -0.1165 -0.0330
26594W        W69688   4.875  15.602  17.050 -0.2939 -0.0120  0.0087
26595W        W69689   2.867  16.061  19.016 -0.0904 -0.0987  0.0051
26596W        W69690   6.538  15.258  17.912  0.1028 -0.0851  0.2482
26597W        W69691   6.698  15.672  17.653 -0.0930  0.0169 -0.0109
26598W        W69692   6.051  16.132  18.259 -0.1604 -0.0965  0.2237
26599W        W69693   3.411  15.590  16.761 -0.1424  0.2416 -0.4392
26600W        W69694   5.282  18.973  18.540 -0.0093 -0.1436  0.2272
26601W        W69695   3.931  18.537  16.699  0.3029 -0.0641  0.1007
26602W        W69696   3.191  15.408  17.660  0.1628  0.1031  0.1237
26603W        W69697   2.942  17.046  18.231 -0.0641 -0.1195  0.0090
26604W        W69698   6.632  14.278  17.587  0.0823  0.0688  0.1976
26605W        W69699   3.356  16.803  20.770  0.1212  0.1848  0.0630
26606W        W69700   6.749  15.574  19.386  0.0092 -0.1495 -0.3799
26607W        W69701   3.282  14.914  17.990  0.0188 -0.3800 -0.2882
26608W        W69702   3.182  16.948  18.694  0.0894 -0.3593  0.2087
26609W        W69703   6.117  13.809  17.436 -0.2776 -0.1098 -0.2515
26610W        W69704   5.930  13.808  18.229  0.0746  0.0807  0.1294
26611W        W69705   6.380  17.124  19.293  0.1829 -0.4216 -0.1611
26612W        W69706   7.650  16.650  16.622  0.1396  0.2628  0.3184
26613W        W69707   6.362  14.948  17.148  0.2982 -0.0350 -0.2388
26614W        W69708   5.818  15.967  17.719  0.3004  0.4726  0.0882
26615W        W69709   4.261  17.772  20.122 -0.2193  0.3459 -0.0844
26616W        W69710   6.227  17.493  16.701  0.2389  0.1410 -0.0659
26617W        W69711   4.738  17.327  18.939 -0.1802 -0.0357  0.1089
26618W        W69712   5.675  15.871  16.574  0.1103 -0.1836 -0.2235
26619W        W69713   7.908  17.441  16.271 -0.0164  0.0260  0.4199
26620W        W69714   2.986  14.918  19.549 -0.3974  0.4122  0.2293
26621W        W69715   5.113  16.247  19.906  0.1270  0.1543 -0.1165
26622W        W69716   5.949  18.594  17.481  0.3318  0.0835  0.1014
26623W        W69717   5.832  15.667  18.273 -0.1235 -0.1571  0.0363
26624W        W69718   4.851  15.080  16.928  0.0666  0.0020  0.0299
26625W        W69719   5.657  13.835  17.301  0.0941 -0.1538  0.1920
26626W        W69720   3.132  18.073  16.452 -0.3195 -0.1345 -0.0164
26627W        W69721   6.955  14.637  18.573 -0.1244 -0.0297 -0.1449
26628W        W69722   4.491  15.236  18.347 -0.2845 -0.2462 -0.1327
26629W        W69723   5.554  14.365  20.058  0.0859 -0.1146 -0.0120
26630W        W69724   7.780  16.098  18.831  0.1820 -0.1833  0.1528
26631W        W69725   6.735  16.209  16.734  0.0271  0.2813  0.2532
26632W        W69726   4.845  18.768  18.378  0.1742 -0.1798 -0.1851
26633W        W69727   3.815  16.097  17.059 -0.0535 -0.2402 -0.0110
26634W        W69728   4.173  15.566  18.618  0.3625  0.2970  0.2031
26635W        W69729   4.046  16.459  19.754 -0.4116 -0.1210 -0.0983
26636W        W69730   3.830  17.998  18.556  0.3422  0.1913 -0.1641
26637W        W69731   7.028  16.731  18.745 -0.1991 -0.1211  0.0007
26638W        W69732   6.341  17.265  17.295 -0.1368  0.4950 -0.0708
26639W        W69733   5.425  14.888  18.738  0.5536 -0.0497 -0.0075
26640W        W69734   4.403  15.884  17.506  0.3233  0.0239 -0.1598
26641W        W69735   5.206  18.335  17.025  0.0528 -0.0791  0.0465
26642W        W69736   4.611  16.230  17.047  0.0250  0.2616 -0.2903
26643W        W69737   5.332  13.692  19.093  0.2636  0.1968  0.1419
26644W        W69738   3.886  17.803  19.012  0.1188 -0.2493 -0.0488
26645W        W69739   4.191  16.400  17.337  0.2158  0.0166  0.2450
26646W        W69740   7.532  15.384  17.584 -0.0842 -0.0054 -0.1551
26647W        W69741   3.363  18.335  17.762 -0.1422  0.2412 -0.0889
26648W        W69742   5.622  14.307  19.538  0.3000 -0.2085 -0.2015
26649W        W69743   4.557  18.499  20.022 -0.2320 -0.0918  0.0302
26650W        W69744   4.390  15.265  17.816 -0.0196  0.0388  0.0932
26651W        W69745   3.363  16.159  16.859 -0.0128 -0.0085  0.2543
26652W        W69746   6.167  15.600  17.848 -0.1661 -0.1082  0.0265
26653W        W69747   6.644  18.079  16.902  0.1766 -0.1966 -0.0054
26654W        W69748   3.711  15.641  18.397  0.0499  0.2493 -0.2414
26655W        W69749   4.304  14.410  18.277 -0.0883  0.0648  0.4199
26656W        W69750   3.212  18.295  18.734 -0.0268  0.3815 -0.0774
26657W        W69751   5.210  16.438  18.891  0.1005  0.1060  0.1715
26658W        W69752   6.112  13.570  16.314 -0.4968 -0.1204  0.0592
26659W        W69753   6.495  16.386  18.299 -0.0731  0.1112 -0.4073
26660W        W69754   6.059  18.514  19.802 -0.0198 -0.2083  0.0475
26661W        W69755   2.386  15.705  16.142  0.1529 -0.3563 -0.0627
26662W        W69756   6.203  14.913  18.884  0.3861 -0.0079 -0.0560
26663W        W69757   5.274  15.258  17.346  0.1410 -0.0152  0.0453
26664W        W69758   2.996  17.950  17.949  0.0435  0.1246  0.0965
26665W        W69759   4.694  16.009  20.030 -0.1882 -0.1606 -0.2513
26666W        W69760   3.645  17.967  17.353  0.1796 -0.0100 -0.1275
26667W        W69761   4.690  17.575  17.887 -0.0241  0.1641 -0.0072
26668W        W69762   4.770  15.493  19.108  0.2890  0.1731 -0.1736
26669W        W69763   5.085  16.327  19.342 -0.0440  0.0194 -0.1266
26670W        W69764   4.505  15.627  19.578  0.1300  0.0611  0.1356
26671W        W69765   3.909  14.366  16.727  0.0313  0.0966  0.0106
26672W        W69766   4.703  15.633  18.616 -0.1477  0.1978 -0.1744
26673W        W69767   6.356  16.288  19.533 -0.1698 -0.1095  0.0635
26674W        W69768   6.577  15.047  18.564  0.1469 -0.1455 -0.0959
26675W        W69769   3.440  16.966  19.538  0.0758  0.2735  0.2834
26676W        W69770   5.577  13.483  17.647 -0.0891 -0.0494  0.1281
26677W        W69771   5.438  19.378  16.682 -0.2482  0.2708  0.1517
26678W        W69772   6.088  17.252  19.791 -0.0592  0.2262  0.0783
26679W        W69773   4.714  17.523  16.956  0.0038  0.0198  0.1968
26680W        W69774   4.082  16.090  18.825  0.0055 -0.2946 -0.0023
26681W        W69775   3.990  17.529  17.183 -0.2658  0.0081 -0.1537
26682W        W69776   5.586  16.331  19.264 -0.1790  0.2674 -0.1514
26683W        W69777   4.122  16.799  20.077 -0.1363  0.0572 -0.0482
26684W        W69778   3.341  17.133  17.341  0.4921  0.0261 -0.0584
26685W        W69779   2.444  16.360  17.528 -0.2433 -0.1698  0.1947
26686W        W69780   6.435  13.626  16.651 -0.1688 -0.1957 -0.1876
26687W        W69781   5.699  17.378  18.063  0.0016 -0.2974 -0.0228
26688W        W69782   3.548  16.601  18.512 -0.3658  0.0567  0.0808
26689W        W69783   6.877  15.019  17.654  0.2686  0.1500 -0.2720
26690W        W69784   5.435  15.770  17.403 -0.0016 -0.2472 -0.1993
26691W        W69785   7.595  14.482  20.931 -0.0691  0.1829  0.1673
26692W        W69786   4.080  14.939  19.783 -0.3045 -0.0574  0.0919
26693W        W69787   6.219  17.241  17.913  0.2250 -0.0972  0.1324
26694W        W69788   3.950  15.378  19.581  0.0367 -0.2539  0.1192
26695W        W69789   3.918  18.559  20.567 -0.0573 -0.1286 -0.3300
26696W        W69790   3.495  15.882  17.997  0.1099 -0.3060  0.3510
26697W        W69791   4.868  15.138  17.667 -0.0244  0.0766 -0.0896
26698W        W69792   4.294  14.578  16.473  0.0350 -0.1751 -0.4116
26699W        W69793   5.546  15.436  18.756  0.0197 -0.0499  0.0039
26700W        W69794   6.024  18.399  18.032 -0.1048  0.1486 -0.0189
26701W        W69795   5.074  17.928  17.811 -0.1097  0.1392  0.0220
26702W        W69796   6.400  14.469  17.207  0.0969 -0.4158 -0.0699
26703W        W69797   4.983  15.990  17.306  0.0074 -0.2713  0.5042
26704W        W69798   7.838  15.500  17.195  0.0475 -0.0056 -0.2167
26705W        W69799   5.374  16.910  16.912  0.3029  0.0815  0.0897
26706W        W69800   3.981  17.064  18.503 -0.1200 -0.2115 -0.1109
26707W        W69801   4.904  15.396  20.863 -0.0584 -0.2818  0.0286
26708W        W69802   4.435  16.424  18.707  0.1349  0.1357  0.5476
26709W        W69803   5.557  14.395  17.002 -0.0297  0.0219  0.0480
26710W        W69804   4.609  14.796  19.096 -0.3100 -0.1341  0.1079
26711W        W69805   4.612  14.676  18.554 -0.5278 -0.2452  0.1931
26712W        W69806   6.042  15.503  19.462  0.3080  0.1822 -0.2348
26713W        W69807   4.806  15.305  20.277 -0.0104 -0.1616 -0.0441
26714W        W69808   6.723  18.361  20.384 -0.1404  0.3459  0.0685
26715W        W69809   5.892  16.554  16.927  0.2425 -0.1854 -0.2385
26716W        W69810   6.794  15.326  17.195  0.2625  0.0182  0.0566
26717W        W69811   7.203  15.729  17.374  0.2402  0.0994  0.1731
26718W        W69812   6.380  15.352  17.459 -0.0377 -0.0742  0.1627
26719W        W69813   4.039  15.504  17.557  0.3054  0.0818 -0.0898
26720W        W69814   6.187  15.710  21.016 -0.0317  0.0995  0.1851
26721W        W69815   4.071  15.529  16.598 -0.1976 -0.1705 -0.1160
26722W        W69816   4.982  14.991  18.558 -0.1163  0.1572  0.1480
26723W        W69817   5.006  17.920  16.773  0.1417 -0.1577 -0.1077
26724W        W69818   5.164  17.537  18.149  0.2189 -0.0444  0.2337
26725W        W69819   6.204  15.448  16.379  0.0325 -0.2937  0.2303
26726W        W69820   3.494  14.980  16.920  0.1810 -0.2070 -0.1243
26727W        W69821   2.200  17.458  19.555 -0.1866 -0.0589 -0.2301
26728W        W69822   4.091  15.044  17.324 -0.3396  0.4667 -0.1035
26729W        W69823   4.316  17.092  17.097 -0.3524  0.2771  0.1498
26730W        W69824   5.008  18.330  19.575  0.3517  0.3026 -0.0594
26731W        W69825   6.225  18.048  19.671  0.0986  0.0858 -0.0127
26732W        W69826   4.877  13.966  16.755  0.2406  0.2607 -0.0472
26733W        W69827   6.842  16.914  20.568  0.0155  0.2491  0.0644
26734W        W69828   2.849  17.733  16.043 -0.1323 -0.1480 -0.1019
26735W        W69829   5.174  14.588  18.197  0.0237  0.0410 -0.1975
26736W        W69830   4.214  18.156  18.867  0.0271 -0.1553  0.2835
26737W        W69831   3.989  16.639  18.774  0.2321 -0.2274 -0.3413
26738W        W69832   3.033  18.647  17.543  0.1365  0.3508 -0.1143
26739W        W69833   5.399  14.914  16.948  0.1576 -0.1188  0.0392
26740W        W69834   5.244  17.148  17.826  0.0141 -0.3441  0.0023
26741W        W69835   5.143  16.698  17.961  0.0789  0.2225 -0.0123
26742W        W69836   6.758  16.068  18.577  0.2200  0.1852 -0.0724
26743W        W69837   4.578  18.787  19.040 -0.1561 -0.1127  0.2103
26744W        W69838   2.274  15.618  20.032  0.1215 -0.0883 -0.1046
26745W        W69839   6.770  17.210  19.591  0.2502  0.2603 -0.3742
26746W        W69840   6.683  16.954  16.135 -0.1587  0.1865  0.1212
26747W        W69841   4.685  16.500  18.266  0.1597 -0.3138 -0.1298
26748W        W69842   3.680  15.328  20.064  0.3061 -0.1586 -0.3077
26749W        W69843   4.847  16.998  19.278  0.3579 -0.1218 -0.0161
26750W        W69844   5.990  17.062  16.918  0.2600  0.1999 -0.0335
26751W        W69845   3.027  15.143  18.538  0.3482 -0.1561 -0.1336
26752W        W69846   4.083  17.875  16.580 -0.1374 -0.1486  0.0634
26753W        W69847   3.245  15.385  19.587  0.2966  0.0020  0.0942
26754W        W69848   3.240  17.375  19.057  0.1796 -0.1743  0.0612
26755W        W69849   4.595  19.394  16.806  0.3073  0.0598 -0.1064
26756W        W69850   6.061  16.556  16.485 -0.1005  0.0046 -0.2603
26757W        W69851   6.128  16.792  16.062  0.0661 -0.1817  0.0208
26758W        W69852   7.443  19.889  18.269  0.1250 -0.1471 -0.0175
26759W        W69853   4.748  15.449  16.524  0.0342 -0.4277 -0.1470
26760W        W69854   5.070  18.008  18.463  0.2457 -0.1142  0.2650
26761W        W69855   4.174  16.360  16.849 -0.2437  0.1227 -0.1765
26762W        W69856   6.045  17.963  16.769 -0.0917  0.0192 -0.0483
26763W        W69857   4.252  17.441  16.773 -0.1158  0.0324 -0.2832
26764W        W69858   6.010  17.691  20.072 -0.0962  0.1885  0.1569
26765W        W69859   6.511  13.996  17.025  0.1489  0.1115  0.2090
26766W        W69860   6.615  16.860  17.850  0.3348  0.0800  0.4066
26767W        W69861   6.566  16.508  18.779  0.2643  0.0846  0.1213
26768W        W69862   6.338  18.207  20.121 -0.1851  0.3460  0.0332
26769W        W69863   5.047  15.097  19.015 -0.2611 -0.1925 -0.2841
26770W        W69864   5.241  16.792  17.458  0.2017  0.1324 -0.0495
26771W        W69865   5.409  15.932  19.592  0.3031  0.0493 -0.0313
26772W        W69866   7.226  15.557  20.535 -0.1271  0.0083 -0.0307
26773W        W69867   3.550  18.730  18.740 -0.0034 -0.0836  0.0628
26774W        W69868   6.980  18.337  16.618  0.2208 -0.0050 -0.1170
26775W        W69869   3.579  15.379  17.256 -0.1840 -0.0547 -0.2340
26776W        W69870   3.651  16.383  19.165 -0.4197  0.1430  0.0437
26777W        W69871   6.008  13.284  17.478 -0.0776 -0.0046  0.1278
26778W        W69872   3.800  16.777  17.302  0.0877  0.0162 -0.0047
26779W        W69873   5.200  16.402  18.382 -0.2471 -0.5336  0.1144
26780W        W69874   5.432  18.814  16.910  0.0022  0.0583  0.3277
26781W        W69875   3.504  16.959  18.201 -0.0257 -0.2228 -0.3893
26782W        W69876   4.953  18.314  18.126  0.0268  0.0187 -0.2193
26783W        W69877   3.008  13.815  16.612  0.0405 -0.0067 -0.2870
26784W        W69878   7.252  15.059  17.224  0.0186 -0.2850 -0.1558
26785W        W69879   3.387  15.453  18.797  0.0997 -0.0275  0.2337
26786W        W69880   5.641  14.742  18.272  0.0634 -0.1844 -0.0425
26787W        W69881   4.495  15.673  18.078  0.0586 -0.0424  0.1589
26788W        W69882   5.642  14.719  16.530 -0.1537  0.0482 -0.0218
26789W        W69883   4.725  17.838  18.754 -0.2134  0.3661 -0.1659
26790W        W69884   3.715  15.656  19.099  0.2023 -0.0674 -0.0568
26791W        W69885   5.676  15.367  16.441  0.0883 -0.1778 -0.0628
26792W        W69886   5.686  16.237  18.641  0.0287 -0.1167  0.0154
26793W        W69887   5.308  15.870  16.913 -0.2069  0.0538  0.0590
26794W        W69888   4.964  19.138  20.356 -0.0848  0.3691  0.0170
26795W        W69889   3.451  14.710  19.253 -0.2341 -0.0752  0.0289
26796W        W69890   5.211  14.445  16.597 -0.0457 -0.0684  0.0016
26797W        W69891   3.486  16.821  17.689  0.3140 -0.1055  0.0833
26798W        W69892   6.026  15.572  18.879 -0.1131  0.1680 -0.0949
26799W        W69893   5.195  17.135  18.926  0.2117 -0.2447 -0.1334
26800W        W69894   3.034  14.516  17.741  0.0798 -0.0979 -0.3124
26801W        W69895   6.424  18.634  16.821 -0.0657  0.1143  0.2421
26802W        W69896   5.656  16.434  17.703 -0.0839 -0.4669  0.3104
26803W        W69897   4.486  18.037  16.987  0.1964  0.1736 -0.1241
26804W        W69898   5.308  16.784  19.250 -0.1278 -0.0846  0.3450
26805W        W69899   4.959  17.429  17.442 -0.0240 -0.2083 -0.0800
26806W        W69900   4.529  16.044  19.120  0.4389 -0.2882  0.1184
26807W        W69901   4.149  18.506  19.180  0.2184  0.2401  0.3000
26808W        W69902   6.679  17.483  18.189  0.1529  0.0440 -0.1227
26809W        W69903   5.202  14.152  17.186  0.0672  0.2933  0.2711
26810W        W69904   4.205  14.829  18.000 -0.1401  0.2700 -0.1212
26811W        W69905   4.078  18.767  17.633 -0.0846 -0.0708  0.1025
26812W        W69906   7.432  14.808  17.673  0.1336 -0.1614  0.1478
26813W        W69907   5.628  14.686  19.176 -0.2308 -0.1683  0.0203
26814W        W69908   3.432  18.286  18.247  0.1231 -0.4920  0.1203
26815W        W69909   6.729  12.920  20.629  0.0590 -0.1028  0.0848
26816W        W69910   5.438  17.934  19.491  0.0007 -0.1243  0.0339
26817W        W69911   4.229  16.424  19.260 -0.0815  0.4667  0.0868
26818W        W69912   2.816  17.075  17.156 -0.2682  0.0927 -0.1487
26819W        W69913   5.319  15.769  18.363 -0.3192  0.3017  0.0451
26820W        W69914   5.151  17.573  18.680  0.0216  0.4982  0.0567
26821W        W69915   5.988  17.528  17.560  0.0638  0.2149  0.3655
26822W        W69916   6.427  18.705  18.910  0.0412  0.0388  0.0012
26823W        W69917   4.805  16.964  17.631 -0.2572 -0.1141  0.3042
26824W        W69918   5.543  18.146  17.552  0.3425 -0.1923 -0.0813
26825W        W69919   5.156  14.648  19.178  0.1642  0.1623 -0.0450
26826W        W69920   7.008  15.398  16.594  0.1384  0.1458 -0.2965
26827W        W69921   5.836  15.410  17.520 -0.2843 -0.3577  0.2593
26828W        W69922   4.041  17.261  19.859 -0.3012 -0.1163 -0.2284
26829W        W69923   3.513  16.252  16.353 -0.2025 -0.0925  0.2282
26830W        W69924   3.916  17.608  16.107 -0.1833 -0.0257  0.1434
26831W        W69925   2.497  16.107  18.375  0.0810 -0.2724 -0.0308
26832W        W69926   4.107  14.848  18.507 -0.2693 -0.1504 -0.1596
26833W        W69927   3.442  15.994  19.350  0.0670  0.0700  0.4352
26834W        W69928   2.591  14.668  18.332 -0.1933 -0.4882 -0.1524
26835W        W69929   4.237  14.602  17.020 -0.3018  0.0730 -0.2786
26836W        W69930   5.690  18.991  17.816 -0.1287  0.1731  0.0329
26837W        W69931   4.265  15.643  19.108 -0.2556 -0.0848 -0.1141
26838W        W69932   3.843  14.709  18.916  0.3695  0.0618 -0.0549
26839W        W69933   6.305  17.730  17.167 -0.1693 -0.0494  0.2711
26840W        W69934   5.940  18.832  16.764 -0.1145  0.2531  0.1450
26841W        W69935   4.020  15.257  18.243 -0.1990 -0.2627  0.1890
26842W        W69936   5.118  17.530  19.228 -0.0113 -0.4993 -0.1820
26843W        W69937   2.658  15.613  16.560 -0.2332 -0.2466 -0.3331
26844W        W69938   4.847  14.905  19.529 -0.3754  0.5274 -0.3344
26845W        W69939   6.119  12.587  19.802 -0.0382 -0.0785  0.0790
26846W        W69940   1.330  13.107  17.335 -0.0016 -0.0466  0.2785
26847W        W69941   4.980  15.319  18.163 -0.1371  0.1260 -0.1793
26848W        W69942   5.062  18.402  17.636 -0.1654  0.0607  0.0116
26849W        W69943   5.657  17.586  16.533  0.0882  0.2171  0.2320
26850W        W69944   3.684  18.302  18.946 -0.1744 -0.2299  0.0438
26851W        W69945   5.595  17.348  18.724  0.0843  0.0179  0.1266
26852W        W69946   4.902  14.882  20.020 -0.2689  0.1079 -0.0762
26853W        W69947   6.288  17.085  16.443 -0.1168  0.0512 -0.0528
26854W        W69948   3.989  15.949  19.412 -0.2344  0.0266  0.0733
26855W        W69949   7.612  17.173  16.641  0.2145  0.0765 -0.2406
26856W        W69950   6.363  15.303  19.121  0.1828  0.1957  0.1771
26857W        W69951   4.896  16.786  18.677 -0.2053  0.1581  0.2015
26858W        W69952   4.252  13.214  19.604 -0.1032 -0.0358 -0.0535
26859W        W69953   3.621  16.798  19.968  0.2657  0.0120  0.4210
26860W        W69954   4.694  17.435  18.440  0.2876  0.2247 -0.1012
26861W        W69955   3.879  16.114  18.321  0.1844  0.1795  0.0384
26862W        W69956   6.675  14.022  16.476 -0.1235  0.0165 -0.0980
26863W        W69957   4.505  17.607  17.413  0.0385  0.1249  0.5296
26864W        W69958   4.197  17.684  17.787  0.2683 -0.0110 -0.2017
26865W        W69959   5.630  15.514  16.928  0.0150 -0.2888 -0.0580
26866W        W69960   6.084  13.963  19.377  0.0425 -0.1429  0.0498
26867W        W69961   5.520  16.796  18.721  0.0858 -0.2795  0.0679
26868W        W69962   5.344  16.534  20.251 -0.1641  0.1046 -0.1175
26869W        W69963   5.121  16.415  16.881 -0.2049  0.1214  0.0024
26870W        W69964   7.573  15.908  17.103 -0.1498 -0.0128  0.0317
26871W        W69965   6.905  19.306  19.368 -0.0834 -0.1741 -0.0511
26872W        W69966   6.683  18.014  19.834 -0.1953  0.1308 -0.3315
26873W        W69967   4.528  18.410  18.535  0.1763  0.0678 -0.0786
26874W        W69968   4.570  16.274  17.714 -0.0292  0.0861 -0.0997
26875W        W69969   3.913  13.807  19.470 -0.1581  0.2063  0.2817
26876W        W69970   3.921  18.088  17.978 -0.1132  0.1874 -0.0795
26877W        W69971   4.282  17.125  17.560  0.0476 -0.0310 -0.3157
26878W        W69972   5.792  16.896  19.412 -0.1900  0.0004  0.3728
26879W        W69973   4.382  14.507  19.396  0.1953 -0.1736 -0.0664
26880W        W69974   5.569  13.368  17.114  0.0074 -0.0186  0.1406
26881W        W69975   5.246  19.125  18.969  0.0788 -0.0214 -0.0940
26882W        W69976   5.355  17.839  17.201 -0.0156  0.0616  0.3139
26883W        W69977   5.138  18.336  23.868 -0.0253 -0.0184  0.1778
26884W        W69978   5.278  15.211  20.108  0.1774  0.2850  0.1090
26885W        W69979   6.748  14.906  18.139  0.1397 -0.0169  0.3697
26886W        W69980   6.897  17.473  20.583 -0.0411  0.1740 -0.1395
26887W        W69981   3.903  14.762  21.073  0.3754  0.0636 -0.1606
26888W        W69982   5.386  18.565  19.930  0.3150 -0.3211  0.1587
26889W        W69983   4.429  14.591  23.496  0.1233 -0.0499 -0.0809
26890W        W69984   6.029  16.844  20.614 -0.0728  0.1111  0.0807
26891W        W69985   6.494  19.038  21.684 -0.0234  0.0998  0.0185
26892W        W69986   4.864  16.099  18.660  0.3882  0.0478 -0.0078
26893W        W69987   6.267  15.820  20.236 -0.0541  0.2156  0.1005
26894W        W69988   5.603  18.109  22.616 -0.4343 -0.1290 -0.1490
26895W        W69989   4.544  15.178  19.834 -0.3526  0.0150  0.1824
26896W        W69990   3.675  14.234  21.922 -0.5776  0.1353 -0.2688
26897W        W69991   6.717  16.788  21.043  0.1637  0.3453 -0.1861
26898W        W69992   5.397  14.725  20.418 -0.0993  0.0524 -0.2507
26899W        W69993   3.798  15.619  22.153 -0.1555 -0.1374 -0.1363
26900W        W69994   5.023  15.401  19.669  0.0396 -0.1678 -0.0480
26901W        W69995   6.370  19.781  21.596 -0.2344  0.1869  0.2466
26902W        W69996   5.310  14.559  22.273  0.0087  0.2131 -0.4792
26903W        W69997   5.299  15.210  23.215  0.1452 -0.2053  0.2655
26904W        W69998   6.173  17.547  20.548  0.2508  0.0287  0.0710
26905W        W69999   4.554  14.836  20.380  0.3134 -0.1182  0.0535
26906W        W70000   3.506  17.198  21.065 -0.0738  0.0045  0.1885
26907W        W70001   2.946  16.965  22.850 -0.1440  0.2134 -0.0200
26908W        W70002   6.220  16.866  21.798 -0.0457  0.0485 -0.2291
26909W        W70003   6.114  18.810  21.843 -0.2056 -0.3206 -0.0842
26910W        W70004   3.534  17.763  21.726  0.1796 -0.1773  0.0067
26911W        W70005   7.317  19.013  20.779 -0.0005 -0.0123  0.0826
26912W        W70006   6.857  16.453  22.935 -0.0839  0.0715  0.0560
26913W        W70007   5.084  18.062  21.190  0.0016  0.2230  0.0620
26914W        W70008   2.828  18.622  20.598  0.1075  0.4348  0.0631
26915W        W70009   5.475  16.550  19.721 -0.0821  0.0126  0.4932
26916W        W70010   7.609  18.654  21.667 -0.0048  0.1668 -0.2171
26917W        W70011   7.032  17.381  21.439  0.0511  0.1181 -0.3958
26918W        W70012   4.384  18.168  22.865 -0.1728 -0.0128 -0.2031
26919W        W70013   3.884  17.343  19.240 -0.0019 -0.1716 -0.3898
26920W        W70014   5.567  18.735  23.822 -0.3794  0.0467  0.4486
26921W        W70015   2.884  17.479  22.893 -0.0996 -0.1766  0.0974
26922W        W70016   4.536  17.001  22.906  0.0161 -0.0602 -0.0308
26923W        W70017   5.197  16.793  21.691 -0.1517  0.0463 -0.0496
26924W        W70018   6.131  17.977  21.435  0.0259  0.0675  0.3884
26925W        W70019   5.271  17.325  20.776 -0.0327 -0.0126 -0.4082
26926W        W70020   4.870  17.361  24.235 -0.2663  0.1176  0.2720
26927W        W70021   4.154  17.873  21.094  0.2766  0.1769  0.1123
26928W        W70022   7.379  15.160  23.019  0.1677 -0.2031 -0.1858
26929W        W70023   3.015  16.951  19.193  0.1800 -0.2231  0.3849
26930W        W70024   6.843  15.405  18.282 -0.2075 -0.1514 -0.3443
26931W        W70025   5.724  13.862  19.946  0.0387 -0.0650  0.1087
26932W        W70026   7.504  15.025  21.080  0.0817  0.2322 -0.0266
26933W        W70027   4.914  14.592  21.923  0.2331  0.2554  0.1834
26934W        W70028   4.244  18.190  22.416 -0.2289  0.2706 -0.1144
26935W        W70029   4.742  15.821  20.617  0.0488  0.2440  0.1892
26936W        W70030   5.724  16.703  21.808 -0.0957  0.1174 -0.2003
26937W        W70031   6.340  15.106  20.560 -0.1171  0.4464  0.3856
26938W        W70032   6.275  16.385  21.912 -0.2478 -0.1255 -0.3029
26939W        W70033   3.223  18.906  23.439  0.3314  0.0106  0.0484
26940W        W70034   4.272  15.870  20.809 -0.0951  0.1261 -0.2006
26941W        W70035   5.729  18.042  19.921 -0.1578 -0.1378  0.0745
26942W        W70036   7.719  18.731  22.143 -0.2092 -0.3085  0.3342
26943W        W70037   4.406  17.804  19.188 -0.1465  0.1670  0.0429
26944W        W70038   3.967  15.982  21.725 -0.2986 -0.0747 -0.1093
26945W        W70039   5.092  17.478  22.346 -0.1865  0.0869  0.1407
26946W        W70040   3.217  16.016  23.551 -0.2178  0.1279 -0.0121
26947W        W70041   5.054  13.224  19.890  0.0026 -0.0482 -0.2565
26948W        W70042   8.949  16.586  24.055  0.0000  0.1701 -0.2056
26949W        W70043   4.238  17.723  22.689  0.0801  0.0353  0.5903
26950W        W70044   6.994  14.848  21.241  0.1693  0.1595  0.0996
26951W        W70045   4.860  17.007  21.420 -0.0323  0.0342 -0.1468
26952W        W70046   6.564  18.562  21.898 -0.3280  0.0834  0.1447
26953W        W70047   7.313  16.076  20.910  0.0308  0.1160  0.0051
26954W        W70048   6.535  14.605  23.067  0.4657  0.1839  0.0624
26955W        W70049   5.948  14.965  22.344 -0.0843  0.2516  0.1920
26956W        W70050   3.966  16.879  19.394  0.1315  0.3976 -0.1148
26957W        W70051   5.952  17.048  18.898 -0.1599  0.0267 -0.0417
26958W        W70052   6.519  17.605  21.509 -0.1905  0.2286  0.1173
26959W        W70053   6.872  16.422  20.225 -0.1186 -0.0598  0.1147
26960W        W70054   3.271  17.482  22.531 -0.0214  0.0175 -0.2016
26961W        W70055   4.526  15.215  21.529  0.0039 -0.0219 -0.3259
26962W        W70056   5.446  16.730  22.583 -0.2728 -0.0116 -0.1301
26963W        W70057   3.485  17.672  19.404  0.0267 -0.1748 -0.1680
26964W        W70058   3.700  16.517  21.015 -0.0239 -0.3037  0.1949
26965W        W70059   4.433  16.917  19.711  0.0408 -0.0368  0.0492
26966W        W70060   5.157  15.470  22.334 -0.1716 -0.1425  0.0775
26967W        W70061   5.604  17.335  21.878 -0.1462 -0.0717 -0.0237
26968W        W70062   6.854  14.335  20.799 -0.0821  0.0255  0.2418
26969W        W70063   4.636  13.554  24.093 -0.1755 -0.2871  0.2807
26970W        W70064   8.022  14.210  21.022 -0.1231 -0.1756 -0.0183
26971W        W70065   4.244  18.123  19.517  0.0582  0.2865  0.3389
26972W        W70066   7.191  18.020  19.644 -0.3066  0.0524 -0.0598
26973W        W70067   6.275  15.443  18.385 -0.2718  0.0661 -0.1685
26974W        W70068   5.939  18.625  19.154  0.1502  0.0724  0.3041
26975W        W70069   3.960  16.226  22.732 -0.0548  0.1856  0.0430
26976W        W70070   3.590  16.809  21.379  0.2068  0.0168 -0.1249
26977W        W70071   3.271  17.001  23.718  0.1664 -0.2405  0.0281
26978W        W70072   3.656  14.425  22.365 -0.0364  0.1568 -0.2999
26979W        W70073   6.750  16.720  21.870 -0.1396  0.0132  0.0686
26980W        W70074   5.341  14.529  20.918  0.2172 -0.0016 -0.4038
26981W        W70075   6.362  14.629  22.189  0.3120  0.0191  0.1587
26982W        W70076   3.502  17.359  19.899 -0.0913  0.4429 -0.0064
26983W        W70077   3.523  16.306  21.449 -0.1811 -0.1814  0.1255
26984W        W70078   5.710  14.266  23.698  0.1497 -0.2486  0.1175
26985W        W70079   6.373  18.556  21.468  0.4659  0.0653 -0.0453
26986W        W70080   5.999  18.096  22.360 -0.0436  0.4425 -0.1134
26987W        W70081   8.216  18.531  20.864 -0.0161  0.0134 -0.0664
26988W        W70082   4.119  15.214  21.979  0.1078  0.1778 -0.0624
26989W        W70083   3.446  13.822  22.075  0.0035 -0.0711  0.0554
26990W        W70084   3.812  18.658  23.106 -0.1293 -0.1057  0.0894
26991W        W70085   5.008  16.872  20.417  0.2905 -0.0776  0.0456
26992W        W70086   5.267  14.110  20.413 -0.0193  0.0426 -0.2140
26993W        W70087   8.001  18.629  20.032 -0.2462 -0.2722 -0.0208
26994W        W70088   6.251  16.202  20.875 -0.0013  0.2657  0.2215
26995W        W70089   4.275  17.017  23.345 -0.2420 -0.1448  0.0355
26996W        W70090   6.265  14.187  22.651  0.2046 -0.3352  0.0402
26997W        W70091   5.145  17.217  22.830 -0.3127  0.0467 -0.1904
26998W        W70092   5.493  16.883  21.007  0.1013  0.1080  0.2006
26999W        W70093   5.137  15.755  20.065  0.1298 -0.4106 -0.1447
27000W        W70094   6.711  19.818  20.795  0.0251 -0.1738  0.4535
27001W        W70095   3.550  18.443  20.174 -0.0010 -0.0408 -0.0305
27002W        W70096   4.527  17.161  20.145  0.2320  0.3904  0.0967
27003W        W70097   4.578  16.585  21.300  0.0270  0.1569 -0.1133
27004W        W70098   6.142  15.578  23.067  0.0327  0.0910  0.1760
27005W        W70099   3.646  15.745  23.520 -0.1260 -0.3337  0.1693
27006W        W70100   5.365  15.986  21.888  0.1290 -0.0848 -0.0259
27007W        W70101   4.888  16.347  20.382  0.1006  0.1774  0.1267
27008W        W70102   4.225  17.738  22.150  0.1061  0.2280 -0.1883
27009W        W70103   7.431  13.931  21.647 -0.0680 -0.0604  0.2189
27010W        W70104   8.209  14.445  21.527 -0.2093  0.1368  0.0327
27011W        W70105   4.754  15.867  23.626  0.3183  0.0296 -0.1670
27012W        W70106   6.448  17.129  20.775  0.0823  0.1265 -0.1263
27013W        W70107   6.824  15.778  20.175 -0.1533  0.1586  0.0008
27014W        W70108   5.819  15.205  19.077 -0.0533  0.4187 -0.0362
27015W        W70109   2.575  16.498  23.969  0.2805 -0.0550  0.1796
27016W        W70110   5.909  16.763  19.910 -0.2531 -0.1236  0.0742
27017W        W70111   5.496  18.227  20.799  0.1288  0.0496  0.1989
27018W        W70112   5.625  14.828  19.917  0.0987 -0.3276  0.2303
27019W        W70113   7.790  17.350  20.121  0.1706  0.1604 -0.2519
27020W        W70114   4.857  16.361  21.747  0.2717 -0.4838  0.0501
27021W        W70115   5.919  17.683  23.291 -0.0088 -0.1266  0.0777
27022W        W70116   6.120  16.880  21.099  0.3717  0.0342 -0.0681
27023W        W70117   4.398  14.926  22.624 -0.0045  0.1174 -0.1092
27024W        W70118   4.429  16.817  18.981 -0.1897 -0.0203  0.0773
27025W        W70119   4.669  14.434  21.146  0.1120 -0.2428 -0.0161
27026W        W70120   4.011  18.435  19.793  0.2746 -0.3238  0.1352
27027W        W70121   7.758  14.902  23.214 -0.1466  0.0109 -0.0286
27028W        W70122   7.828  14.243  20.436 -0.1665  0.1816  0.2216
27029W        W70123   4.786  15.071  23.005  0.1616 -0.1661 -0.0918
27030W        W70124   5.438  16.410  22.197 -0.2356  0.1082  0.1814
27031W        W70125   7.037  15.331  21.365  0.0719 -0.2862  0.0637
27032W        W70126   4.466  17.377  22.415  0.2997  0.4582  0.1434
27033W        W70127   6.193  15.389  21.527  0.4070  0.0419  0.0198
27034W        W70128   5.404  15.038  22.194 -0.5137 -0.5472 -0.0396
27035W        W70129   4.171  18.591  23.524 -0.2324  0.1434  0.0702
27036W        W70130   3.532  16.357  22.879 -0.0873 -0.1694  0.3374
27037W        W70131   4.687  17.862  22.437 -0.2222  0.1694  0.1168
27038W        W70132   5.410  15.899  21.395  0.1042  0.0406 -0.0259
27039W        W70133   4.740  15.616  23.101 -0.1796  0.0751  0.0714
27040W        W70134   5.914  14.945  19.506 -0.2082  0.1321  0.1147
27041W        W70135   4.658  18.714  20.515 -0.3290  0.2930 -0.0569
27042W        W70136   6.343  16.756  19.650 -0.0214  0.2054  0.2624
27043W        W70137   4.179  13.227  22.721  0.0750 -0.2514  0.1381
27044W        W70138   5.407  19.257  24.141 -0.2507 -0.0804  0.1263
27045W        W70139   4.174  17.767  20.609  0.2224 -0.2271 -0.1112
27046W        W70140   6.015  16.973  22.622 -0.1142  0.2177 -0.3658
27047W        W70141   3.887  17.490  20.886 -0.0283  0.1778  0.2130
27048W        W70142   7.596  15.358  23.424  0.0366  0.0691 -0.1065
27049W        W70143   4.872  16.974  22.469 -0.2125  0.0633 -0.3204
27050W        W70144   5.606  15.436  19.689 -0.1315 -0.0246 -0.1053
27051W        W70145   4.649  15.658  21.167 -0.1851 -0.0140 -0.0806
27052W        W70146   6.877  12.935  22.325 -0.0786  0.0798 -0.4964
27053W        W70147   7.721  15.809  21.524 -0.1193 -0.1362  0.3239
27054W        W70148   5.055  14.604  22.777 -0.2824  0.2334 -0.0227
27055W        W70149   5.307  15.889  22.447  0.0076 -0.0292  0.0351
27056W        W70150   3.393  16.793  21.976 -0.1465  0.3444  0.0281
27057W        W70151   5.392  17.949  24.337  0.1171 -0.2821  0.2455
27058W        W70152   6.431  15.360  20.112 -0.2001 -0.1391  0.0957
27059W        W70153   6.883  18.722  21.484 -0.2347  0.3067  0.0847
27060W        W70154   4.146  17.285  23.742  0.0560 -0.1495 -0.0077
27061W        W70155   3.992  16.115  21.242  0.0144  0.1761 -0.0198
27062W        W70156   5.225  17.862  23.844  0.0621 -0.2028  0.2301
27063W        W70157   6.385  14.888  21.269  0.0042  0.2316  0.3159
27064W        W70158   2.539  17.159  20.948  0.0392  0.2727  0.1962
27065W        W70159   6.137  17.364  21.146  0.0310 -0.1149 -0.3265
27066W        W70160   5.522  16.178  20.970 -0.4326 -0.1679  0.2425
27067W        W70161   4.642  17.561  21.997 -0.0968  0.1847 -0.3650
27068W        W70162   4.247  16.158  24.189  0.2600 -0.3252  0.1820
27069W        W70163   7.034  18.121  22.198 -0.1470  0.1098 -0.1058
27070W        W70164   5.034  15.373  21.400  0.2853  0.0480  0.2048
27071W        W70165   4.389  15.386  20.739  0.2020 -0.2164  0.0297
27072W        W70166   5.641  15.442  21.400  0.1104 -0.2102  0.1644
27073W        W70167   6.883  18.050  20.741 -0.0955 -0.0494 -0.3852
27074W        W70168   5.604  16.253  22.650 -0.3752 -0.1421  0.1445
27075W        W70169   5.506  18.908  22.823 -0.1572  0.1714 -0.3903
27076W        W70170   7.304  13.755  22.707 -0.1254  0.0203 -0.4580
27077W        W70171   8.879  20.406  20.977  0.1361  0.1163 -0.0997
27078W        W70172   5.819  16.239  21.856 -0.0754  0.0175 -0.2616
27079W        W70173   3.826  16.726  20.585 -0.1390 -0.3979 -0.0670
27080W        W70174   3.148  16.453  21.740 -0.0914 -0.1791 -0.1585
27081W        W70175   4.420  16.115  19.626  0.2448  0.0920 -0.3078
27082W        W70176   4.671  17.536  22.831  0.1180  0.0104 -0.1222
27083W        W70177   4.514  16.528  23.082  0.0498 -0.1998 -0.0111
27084W        W70178   5.012  17.799  20.623 -0.1515 -0.0474  0.3963
27085W        W70179   3.822  16.866  23.723 -0.2202 -0.0993  0.1421
27086W        W70180   6.983  14.452  20.319  0.0222 -0.3833  0.1599
27087W        W70181   4.991  16.943  20.894 -0.0023 -0.0562  0.0448
27088W        W70182   6.811  14.595  21.723  0.2532  0.0554 -0.0372
27089W        W70183   6.814  14.923  23.359  0.0570  0.0122 -0.0488
27090W        W70184   5.496  15.675  20.946 -0.1980 -0.1456  0.2935
27091W        W70185   6.116  14.638  22.711  0.1666  0.1000 -0.1168
27092W        W70186   5.794  13.403  22.744 -0.0286 -0.1983 -0.0715
27093W        W70187   7.179  15.953  21.536 -0.0422  0.1664  0.0623
27094W        W70188   4.373  15.933  22.702 -0.0956  0.2244 -0.1819
27095W        W70189   6.502  17.725  24.245 -0.5316  0.0381  0.4572
27096W        W70190   3.432  16.372  23.879  0.0895 -0.0058 -0.0458
27097W        W70191   5.881  15.012  21.405 -0.1223  0.1129  0.4037
27098W        W70192   4.808  13.789  20.080  0.0292 -0.1767  0.1568
27099W        W70193   4.784  17.029  21.963 -0.1962  0.2349  0.3081
27100W        W70194   5.815  17.583  21.418  0.1217  0.1344  0.0248
27101W        W70195   5.549  17.705  20.525 -0.0290  0.0703 -0.2642
27102W        W70196   6.537  15.647  22.557 -0.1150  0.1111  0.1148
27103W        W70197   5.172  18.017  22.423  0.0439 -0.0167  0.0432
27104W        W70198   6.981  15.223  20.876  0.2986 -0.4985 -0.0223
27105W        W70199   6.503  16.581  20.564 -0.1001  0.0315 -0.1747
27106W        W70200   5.375  17.756  21.601 -0.0258 -0.0985 -0.2161
27107W        W70201   4.675  15.379  22.066 -0.1401  0.1566  0.0856
27108W        W70202   6.555  15.360  21.123  0.0635  0.1412  0.1193
27109W        W70203   6.626  14.405  21.215 -0.0389  0.1344 -0.1516
27110W        W70204   4.094  14.590  21.606  0.0524 -0.3310  0.3203
27111W        W70205   5.544  16.363  21.457 -0.1383  0.2183 -0.2417
27112W        W70206   4.023  17.145  24.258 -0.0594 -0.1277 -0.2272
27113W        W70207   3.213  15.947  24.738 -0.0223 -0.1089 -0.2205
27114W        W70208   5.277  18.706  21.878  0.4107 -0.0191  0.3588
27115W        W70209   6.823  15.389  19.863 -0.1792 -0.0899  0.0438
27116W        W70210   8.079  15.180  24.379  0.1308  0.1036  0.1364
27117W        W70211   6.446  16.111  21.343  0.2267  0.1828 -0.0154
27118W        W70212   6.023  15.531  20.556 -0.2474  0.2341 -0.0130
27119W        W70213   4.421  16.280  22.118  0.1862 -0.1029 -0.1208
27120W        W70214   6.341  18.804  25.087 -0.2369  0.0538 -0.1278
27121W        W70215   3.523  14.978  19.666  0.1162 -0.1554  0.1000
27122W        W70216   5.818  16.576  22.987  0.3050  0.1649  0.2111
27123W        W70217   4.935  19.483  19.845 -0.0105  0.0820  0.0867
27124W        W70218   6.751  15.959  20.624  0.1166  0.2485  0.0966
27125W        W70219   7.139  14.830  20.582  0.3566 -0.4175  0.1351
27126W        W70220   4.033  14.979  20.580  0.4952 -0.1015 -0.1866
27127W        W70221   4.139  18.803  24.005 -0.0065 -0.0301 -0.0265
27128W        W70222   5.618  15.575  20.231  0.2972  0.0352 -0.1317
27129W        W70223   4.120  15.788  19.933 -0.0791  0.0660 -0.2927
27130W        W70224   6.027  18.467  20.993 -0.0561  0.0070  0.3428
27131W        W70225   6.413  17.261  22.576 -0.0259  0.2779  0.0300
27132W        W70226   5.919  15.260  20.986  0.1824  0.3642 -0.0722
27133W        W70227   5.435  17.697  23.375 -0.1976 -0.1190  0.2448
27134W        W70228   1.518  17.060  18.871 -0.1092  0.1135 -0.1679
27135W        W70229   5.792  16.019  20.558  0.1618 -0.0924  0.0805
27136W        W70230   4.800  18.419  23.064  0.2670  0.2479  0.1271
27137W        W70231   1.517  15.585  21.599  0.4012 -0.0059  0.2309
27138W        W70232   4.738  19.055  21.713  0.3215 -0.2494  0.1780
27139W        W70233   5.759  15.233  21.882  0.1190  0.1158  0.3992
27140W        W70234   7.116  16.163  22.099  0.1338 -0.2427  0.3423
27141W        W70235   4.851  16.570  22.176  0.1290  0.2524 -0.0624
27142W        W70236   6.426  15.039  22.512  0.2477 -0.0147 -0.3768
27143W        W70237   6.254  15.898  21.745  0.1563 -0.1718  0.1239
27144W        W70238   4.550  16.519  22.629 -0.0448 -0.0113 -0.2110
27145W        W70239   5.440  18.195  22.054 -0.0423  0.1028 -0.1651
27146W        W70240   5.895  16.475  20.367  0.4091 -0.1273 -0.3719
27147W        W70241   4.510  18.130  21.368 -0.3143 -0.0052 -0.1985
27148W        W70242   3.196  14.966  23.264  0.2155 -0.1816  0.0881
27149W        W70243   3.983  16.618  23.262 -0.0240 -0.1695  0.0011
27150W        W70244   5.814  17.913  21.843 -0.1635  0.0577  0.2778
27151W        W70245   5.239  15.498  20.525  0.0471  0.0751 -0.0901
27152W        W70246   5.869  17.265  20.246 -0.3714 -0.1161  0.1715
27153W        W70247   3.610  17.279  23.936  0.0149  0.0603  0.1005
27154W        W70248   3.476  15.913  22.385  0.1318  0.0994  0.0569
27155W        W70249   3.881  17.330  21.371  0.4216 -0.3827  0.3747
27156W        W70250   5.428  18.161  20.306  0.0320  0.1909  0.1490
27157W        W70251   6.307  16.788  20.186  0.0439  0.4592  0.1419
27158W        W70252   6.903  19.450  21.677 -0.1976 -0.0582 -0.0956
27159W        W70253   5.636  13.487  21.071 -0.1856  0.1026 -0.0418
27160W        W70254   4.369  17.428  21.137 -0.2487 -0.0384 -0.0798
27161W        W70255   3.968  17.707  19.565 -0.1372  0.0702  0.1824
27162W        W70256   6.112  19.067  20.753  0.0302 -0.1472  0.0498
27163W        W70257   3.630  17.767  21.207  0.1567  0.1449  0.1684
27164W        W70258   6.083  18.606  23.975  0.0562  0.0334  0.1646
27165W        W70259   7.327  14.194  20.564  0.1908  0.0150  0.0412
27166W        W70260   7.492  15.674  22.688 -0.2583 -0.2003  0.1025
27167W        W70261   7.205  14.376  21.263  0.1981  0.1540 -0.0226
27168W        W70262   4.828  18.560  24.186 -0.0358  0.1948 -0.1044
27169W        W70263   4.701  15.467  22.573  0.1533  0.2363  0.2042
27170W        W70264   4.641  16.217  20.866 -0.1034 -0.1864  0.0896
27171W        W70265   3.196  17.353  23.368  0.1412  0.1439 -0.0480
27172W        W70266   8.400  15.405  23.107  0.3455  0.2900 -0.1251
27173W        W70267   3.504  16.736  24.228  0.1722  0.2342 -0.1036
27174W        W70268   5.746  18.921  20.132 -0.1311  0.0996  0.2897
27175W        W70269   3.476  17.110  20.363  0.1430  0.2781 -0.2817
27176W        W70270   4.363  16.914  22.403  0.3705  0.0011  0.2280
27177W        W70271   6.944  14.968  22.684  0.0831  0.2245  0.1709
27178W        W70272   5.193  16.510  20.763  0.4206  0.2226 -0.0372
27179W        W70273   6.659  15.148  21.615  0.0236 -0.0473 -0.1348
27180W        W70274   5.619  18.130  21.295  0.1788 -0.3139  0.1439
27181W        W70275   5.371  17.206  21.352  0.2067 -0.0317  0.2485
27182W        W70276   3.873  18.117  22.928 -0.4124 -0.0022  0.1846
27183W        W70277   3.739  13.974  20.896 -0.1326  0.0633  0.0100
27184W        W70278   5.807  14.777  21.873  0.2874  0.0245 -0.0724
27185W        W70279   3.942  16.235  23.696  0.6699  0.4546  0.0641
27186W        W70280   6.242  16.314  23.216  0.0630  0.3438  0.1177
27187W        W70281   4.521  16.980  20.998 -0.0424  0.0044 -0.0967
27188W        W70282   5.550  16.064  20.119 -0.0318  0.0308 -0.0951
27189W        W70283   4.846  15.993  22.802  0.2185  0.0327 -0.1129
27190W        W70284   5.266  18.371  22.931 -0.1385  0.3289 -0.2854
27191W        W70285   5.612  15.151  20.552  0.0021  0.0714  0.2160
27192W        W70286   7.138  17.091  23.248 -0.0136  0.1963 -0.2533
27193W        W70287   6.114  16.490  19.145  0.3006  0.0808 -0.2654
27194W        W70288   5.671  18.605  22.251 -0.0624 -0.1272 -0.1687
27195W        W70289   3.505  16.017  21.872 -0.0169  0.2359 -0.3994
27196W        W70290   6.545  15.530  20.665 -0.2543 -0.1898  0.1296
27197W        W70291   3.521  17.347  23.005 -0.1260 -0.1492 -0.0732
27198W        W70292   4.761  16.580  23.551  0.1564 -0.0019  0.1012
27199W        W70293   6.384  18.351  22.668 -0.0930  0.1851 -0.1907
27200W        W70294   4.374  15.680  21.737  0.1300 -0.4131  0.2306
27201W        W70295   6.775  16.823  19.943  0.1472  0.3565  0.0603
27202W        W70296   6.177  15.483  22.057  0.0350 -0.1027 -0.0608
27203W        W70297   4.635  17.863  20.970 -0.1568 -0.1868 -0.0957
27204W        W70298   6.929  16.373  21.279  0.1748 -0.0342 -0.1182
27205W        W70299   6.885  19.038  21.952 -0.0640 -0.1549  0.0894
27206W        W70300   3.932  16.170  22.260 -0.1245 -0.0282  0.1789
27207W        W70301   6.363  18.182  20.784 -0.0398  0.4680 -0.0165
27208W        W70302   7.650  17.190  20.960  0.1914 -0.1857  0.1975
27209W        W70303   7.018  13.873  22.051  0.0394 -0.1227 -0.2233
27210W        W70304   5.070  14.596  21.449  0.0074  0.2460  0.0669
27211W        W70305   3.023  16.872  22.330  0.0841  0.1326  0.3245
27212W        W70306   6.412  16.835  22.308  0.2177 -0.3208  0.0124
27213W        W70307   6.584  16.026  22.838 -0.0102  0.0024 -0.2351
27214W        W70308   5.671  18.776  19.638 -0.1824 -0.1459  0.1450
27215W        W70309   7.854  14.565  22.790 -0.0279 -0.1737  0.2267
27216W        W70310   5.321  16.918  22.156  0.0023  0.2118  0.0919
27217W        W70311   3.452  16.857  22.702  0.5430 -0.2307  0.2440
27218W        W70312   4.547  16.714  20.560  0.0081 -0.2177  0.1867
27219W        W70313   4.607  16.235  23.900  0.0784 -0.0456  0.2757
27220W        W70314   5.030  17.839  21.981 -0.0834  0.1283  0.0322
27221W        W70315   5.735  18.409  21.742 -0.1076 -0.0951 -0.1383
27222W        W70316   7.051  17.809  20.225 -0.0622 -0.0982 -0.1434
27223W        W70317   5.814  14.014  20.925 -0.3028  0.0999 -0.2262
27224W        W70318   6.598  17.082  21.568 -0.2591 -0.0334 -0.3129
27225W        W70319   4.905  15.845  21.611 -0.0169 -0.0453  0.3449
27226W        W70320   8.188  13.685  23.295  0.1044 -0.1259  0.0586
27227W        W70321   7.701  14.488  22.311  0.0346  0.0723 -0.0631
27228W        W70322   4.965  18.365  22.112  0.1511  0.1142  0.1643
27229W        W70323   4.005  15.729  20.418 -0.0103 -0.2980 -0.1070
27230W        W70324   5.531  16.991  20.458  0.1058  0.2986 -0.1242
27231W        W70325   4.116  17.244  22.869 -0.1051  0.0490 -0.0860
27232W        W70326   5.338  15.869  24.578  0.0522 -0.0580  0.1441
27233W        W70327   3.903  13.604  23.692 -0.1478 -0.0674 -0.0512
27234W        W70328   4.469  16.090  21.392  0.4219  0.0159  0.1824
27235W        W70329   5.283  16.004  20.522  0.0386 -0.2176  0.0180
27236W        W70330   6.416  16.283  20.020 -0.0697 -0.1398 -0.0370
27237W        W70331   4.538  14.941  21.997 -0.0997 -0.1741  0.0792
27238W        W70332   4.090  14.265  22.253  0.0674 -0.0705  0.0559
27239W        W70333   5.990  18.073  20.482 -0.2017 -0.1242 -0.0529
27240W        W70334   8.395  17.904  21.163 -0.0450  0.1537  0.1631
27241W        W70335   6.003  14.789  20.392  0.1705  0.2450  0.1122
27242W        W70336   6.405  19.021  22.154 -0.1341  0.0322  0.0498
27243W        W70337   3.166  16.134  20.168  0.0962  0.1644 -0.1047
27244W        W70338   5.564  17.274  23.481 -0.0893 -0.0011  0.0512
27245W        W70339   5.003  15.282  23.991 -0.1244  0.1789  0.1263
27246W        W70340   3.390  16.249  20.750 -0.0713 -0.1602 -0.0121
27247W        W70341   4.792  16.001  22.303 -0.3659  0.3799  0.4145
27248W        W70342   5.096  17.379  21.848  0.0770  0.0469 -0.2684
27249W        W70343   6.703  16.751  19.272  0.3612 -0.2119  0.1543
27250W        W70344   5.459  17.674  21.011  0.0929  0.0089  0.2330
27251W        W70345   5.553  18.811  21.463 -0.0905 -0.1296 -0.0518
27252W        W70346   2.783  14.173  23.394  0.0999  0.0185 -0.2022
27253W        W70347   5.847  16.526  20.984  0.0512 -0.1004 -0.0883
27254W        W70348   4.628  18.436  23.704  0.0814 -0.0165 -0.4778
27255W        W70349   7.715  16.898  20.214  0.0002 -0.2283 -0.2915
27256W        W70350   7.822  14.034  22.515  0.1638 -0.0053  0.1229
27257W        W70351   5.929  15.756  19.912  0.2144 -0.0760  0.2088
27258W        W70352   5.394  14.354  23.164  0.0874  0.2377 -0.0902
27259W        W70353   3.480  17.856  23.209 -0.0028 -0.0355 -0.3022
27260W        W70354   6.530  16.593  21.472  0.0552 -0.0226 -0.1109
27261W        W70355   3.662  12.930  21.297  0.1322 -0.0101  0.0186
27262W        W70356   6.042  13.278  20.629 -0.3984 -0.1927 -0.0768
27263W        W70357   4.605  18.075  19.836 -0.1611 -0.1316  0.2818
27264W        W70358   4.019  16.944  21.013  0.1375  0.1313  0.0377
27265W        W70359   5.164  15.878  19.090  0.0377  0.0073 -0.1131
27266W        W70360   5.100  16.357  22.587 -0.0583 -0.1119  0.1251
27267W        W70361   5.031  15.963  20.994 -0.1086 -0.1520 -0.0693
27268W        W70362   7.184  17.575  23.394 -0.0214  0.1238  0.0133
27269W        W70363   4.591  16.461  19.975  0.0588  0.0087  0.0038
27270W        W70364   6.415  17.269  20.252  0.0172 -0.0614  0.0440
27271W        W70365   5.442  19.049  23.366 -0.0177  0.2114 -0.1148
27272W        W70366   7.749  18.952  24.066 -0.3975  0.2229  0.0170
27273W        W70367   5.903  18.479  22.737 -0.1797  0.0974 -0.3428
27274W        W70368   7.371  16.479  23.047  0.2211 -0.1653  0.1644
27275W        W70369   4.275  15.664  22.243 -0.2026  0.0936 -0.1263
27276W        W70370   4.351  16.205  20.406 -0.0124 -0.0988 -0.0041
27277W        W70371   4.918  17.422  21.099 -0.1771 -0.3963 -0.0150
27278W        W70372   6.586  15.734  23.334  0.3559 -0.1759  0.0589
27279W        W70373   5.335  15.494  21.800 -0.4943  0.0301 -0.0037
27280W        W70374   6.642  14.886  20.821 -0.2932  0.1275 -0.0698
27281W        W70375   5.684  19.045  21.956  0.1249  0.1202 -0.0771
27282W        W70376   4.400  17.472  23.335 -0.0896 -0.2334  0.3413
27283W        W70377   3.157  16.900  28.492 -0.0959  0.1005 -0.0412
27284W        W70378   5.026  16.061  24.130 -0.0774 -0.1483  0.3014
27285W        W70379   5.592  17.247  22.530 -0.1931 -0.2688  0.0665
27286W        W70380   5.277  17.779  24.796 -0.3217 -0.1171 -0.0943
27287W        W70381   4.098  15.699  24.325 -0.0917  0.1056 -0.0352
27288W        W70382   6.960  18.151  26.057  0.3026 -0.0970 -0.1984
27289W        W70383   4.876  14.711  26.176  0.5341 -0.3603 -0.0953
27290W        W70384   7.049  17.842  25.074  0.0433 -0.0509  0.2383
27291W        W70385   7.349  18.066  24.698  0.0571 -0.0182  0.0197
27292W        W70386   5.306  16.487  23.331  0.1731  0.3657 -0.2143
27293W        W70387   4.884  15.592  26.637 -0.0370  0.0831 -0.3289
27294W        W70388   4.785  16.521  25.612 -0.0580 -0.6562  0.0360
27295W        W70389   4.624  14.606  25.741  0.0470 -0.1348  0.4516
27296W        W70390   3.812  14.196  24.271 -0.0214  0.0649 -0.0386
27297W        W70391   5.453  17.072  25.184 -0.0692  0.0531  0.1552
27298W        W70392   4.236  15.998  26.499  0.0842  0.1181  0.2374
27299W        W70393   4.920  15.116  25.800  0.0964  0.1393 -0.2045
27300W        W70394   5.602  15.972  24.214 -0.2622  0.1167 -0.2800
27301W        W70395   5.192  17.292  24.687 -0.0249 -0.1881 -0.3965
27302W        W70396   4.280  14.978  25.639 -0.0991 -0.0656  0.1826
27303W        W70397   6.354  15.616  27.983  0.2274 -0.1086  0.0422
27304W        W70398   6.147  17.469  23.936  0.0754  0.0011  0.0466
27305W        W70399   3.243  17.193  24.262  0.0777 -0.2150  0.1126
27306W        W70400   3.617  15.929  24.041  0.1686 -0.2403 -0.0694
27307W        W70401   5.467  16.226  26.663  0.3023  0.2534 -0.4352
27308W        W70402   6.664  16.678  24.895  0.0221  0.2738  0.2071
27309W        W70403   6.950  16.263  24.657 -0.0893  0.2550  0.0668
27310W        W70404   4.638  16.757  27.549  0.0497  0.0946  0.0857
27311W        W70405   6.078  18.026  26.196  0.0174  0.0055 -0.2248
27312W        W70406   7.656  15.483  25.545  0.0453  0.4172  0.2329
27313W        W70407   4.064  17.282  26.325 -0.2073 -0.0642 -0.0920
27314W        W70408   3.820  17.119  25.922  0.1025 -0.0933  0.1383
27315W        W70409   5.770  17.543  25.484  0.2686 -0.1258 -0.0555
27316W        W70410   6.165  17.565  24.954  0.2823 -0.1352  0.0227
27317W        W70411   5.686  17.392  26.109  0.2809  0.2696 -0.2346
27318W        W70412   4.414  18.497  27.039  0.0385  0.0857 -0.0010
27319W        W70413   3.259  18.070  24.716  0.1838 -0.1181  0.1687
27320W        W70414   6.754  17.067  27.969  0.0452  0.0594  0.1159
27321W        W70415   4.309  17.816  26.130  0.1795  0.0880  0.0681
27322W        W70416   6.679  17.958  23.851  0.2459 -0.0387  0.1594
27323W        W70417   6.345  17.310  24.543  0.1582 -0.0974  0.1181
27324W        W70418   4.609  18.336  24.760  0.0240 -0.0528 -0.2290
27325W        W70419   5.200  16.981  24.198  0.1583 -0.1008 -0.1194
27326W        W70420   5.000  16.928  26.644 -0.1205  0.0957 -0.2209
27327W        W70421   2.969  17.485  26.367  0.0107 -0.0398  0.2657
27328W        W70422   6.970  16.075  27.671  0.1698 -0.1599 -0.4854
27329W        W70423   4.106  17.037  25.016 -0.2422  0.2432 -0.2022
27330W        W70424   5.848  17.158  23.034  0.1263 -0.4046  0.3257
27331W        W70425   5.690  16.752  23.516  0.0150  0.1352  0.1046
27332W        W70426   6.215  16.858  23.107 -0.1623 -0.0207 -0.3702
27333W        W70427   4.670  15.301  24.892 -0.4166 -0.0433  0.0188
27334W        W70428   5.183  16.579  26.285  0.1788  0.0164 -0.1357
27335W        W70429   3.394  15.020  24.653 -0.5253  0.0696  0.2739
27336W        W70430   6.640  17.400  27.202  0.1092  0.1522  0.0661
27337W        W70431   5.659  17.637  23.819 -0.2377 -0.0561 -0.3059
27338W        W70432   5.878  15.490  26.131 -0.4473 -0.2221  0.0116
27339W        W70433   4.043  17.107  27.258 -0.2394 -0.3214  0.2068
27340W        W70434   5.174  16.138  25.515  0.3889  0.1828 -0.1640
27341W        W70435   6.634  18.132  24.465 -0.2085  0.0010  0.0119
27342W        W70436   6.528  17.906  25.250 -0.3239  0.1220 -0.0251
27343W        W70437   5.676  18.542  23.158 -0.3716  0.2542  0.0626
27344W        W70438   4.607  15.671  24.090  0.2581  0.1127  0.3558
27345W        W70439   4.559  16.041  27.477  0.1855  0.1222  0.1460
27346W        W70440   5.592  15.782  27.046 -0.0920 -0.0533 -0.4200
27347W        W70441   4.846  14.509  23.751  0.1407  0.0133  0.1181
27348W        W70442   6.694  17.738  26.708  0.2674  0.3478  0.0406
27349W        W70443   3.848  17.609  25.968 -0.0875 -0.3388  0.0287
27350W        W70444   7.413  15.548  26.228  0.1351  0.1342 -0.2894
27351W        W70445   5.671  16.776  26.121 -0.1377  0.0232 -0.0477
27352W        W70446   7.433  16.843  25.941  0.0202  0.1788 -0.0940
27353W        W70447   5.560  17.727  22.322 -0.0651  0.1869 -0.0377
27354W        W70448   6.467  15.562  27.493 -0.0368 -0.4083 -0.1238
27355W        W70449   5.370  14.574  28.604  0.1206 -0.0076  0.3096
27356W        W70450   4.605  16.496  24.361 -0.1255  0.2079 -0.0159
27357W        W70451   4.128  15.299  24.029 -0.0968  0.2904 -0.1391
27358W        W70452   6.764  17.508  28.176  0.0542 -0.0339  0.0252
27359W        W70453   6.160  16.995  24.004 -0.4056  0.1818 -0.0056
27360W        W70454   4.735  18.083  26.055  0.1501 -0.1289  0.2415
27361W        W70455   5.169  15.423  28.028  0.0819  0.1146  0.1761
27362W        W70456   4.537  17.671  27.226  0.2377 -0.2537 -0.2199
27363W        W70457   3.323  16.999  24.724  0.2861 -0.3696  0.1208
27364W        W70458   4.248  16.433  25.545 -0.1366  0.0551  0.0488
27365W        W70459   2.373  15.789  23.989  0.1625 -0.0796  0.0468
27366W        W70460   4.531  14.334  26.218 -0.2008  0.2859 -0.0426
27367W        W70461   4.033  16.685  26.810  0.2045  0.0055 -0.1717
27368W        W70462   6.668  15.111  24.150 -0.2054  0.1856  0.0499
27369W        W70463   3.823  14.106  26.779 -0.1513  0.0588 -0.0829
27370W        W70464   6.567  14.719  25.107  0.0243 -0.2530  0.3359
27371W        W70465   4.441  16.944  25.389 -0.0974 -0.0505  0.1057
27372W        W70466   6.211  19.268  23.298 -0.1440 -0.0806 -0.1924
27373W        W70467   5.856  17.673  22.731 -0.2670  0.2625  0.2380
27374W        W70468   6.424  18.367  25.398 -0.0014  0.1070 -0.1843
27375W        W70469   2.629  14.688  25.965  0.2000 -0.1145  0.2181
27376W        W70470   4.646  16.146  25.408 -0.3284  0.3713 -0.0146
27377W        W70471   5.194  14.891  27.930  0.0097  0.0110 -0.0160
27378W        W70472   4.573  13.802  27.461 -0.4017 -0.1903 -0.5846
27379W        W70473   7.032  16.506  25.856  0.2215  0.1588 -0.0755
27380W        W70474   4.192  14.790  24.169  0.0022 -0.1717 -0.0420
27381W        W70475   6.670  16.054  25.964  0.0483 -0.0177  0.2873
27382W        W70476   5.865  15.146  24.099  0.0504 -0.2788  0.0354
27383W        W70477   4.068  16.667  24.185 -0.0668  0.1586 -0.1920
27384W        W70478   6.744  14.902  25.537  0.1623  0.0066  0.2229
27385W        W70479   5.411  17.911  25.355 -0.1731 -0.0117  0.1517
27386W        W70480   7.377  17.900  25.897 -0.1402 -0.1063  0.2486
27387W        W70481   5.967  18.445  25.574 -0.1142  0.0247 -0.1221
27388W        W70482   5.278  15.144  26.470 -0.0303  0.1041 -0.2596
27389W        W70483   4.145  15.751  23.779 -0.2854 -0.1867  0.2437
27390W        W70484   5.488  18.120  26.964 -0.0974 -0.1191 -0.1499
27391W        W70485   4.258  18.652  24.948  0.0008  0.1519 -0.0129
27392W        W70486   5.983  15.679  24.289 -0.1555  0.2188  0.0102
27393W        W70487   7.068  18.499  24.563 -0.0004 -0.3476  0.1291
27394W        W70488   5.008  17.520  23.209 -0.0234  0.0556  0.2400
27395W        W70489   4.224  15.774  27.138 -0.2389  0.2401 -0.0864
27396W        W70490   8.148  15.416  25.304  0.0415 -0.0519 -0.0461
27397W        W70491   7.417  17.517  27.003  0.1532  0.0032  0.3273
27398W        W70492   6.601  16.750  25.834  0.0366  0.0441  0.2658
27399W        W70493   5.872  15.169  22.928  0.4959  0.3068  0.2686
27400W        W70494   6.638  19.210  25.140  0.0560 -0.2567  0.1965
27401W        W70495   4.370  18.310  25.327  0.0617 -0.0484  0.1096
27402W        W70496   4.890  16.519  24.996 -0.2225  0.2323 -0.0300
27403W        W70497   5.288  17.586  25.856  0.3472  0.1371 -0.1335
27404W        W70498   7.403  17.413  25.871 -0.0188  0.1048  0.4452
27405W        W70499   3.807  14.832  26.334  0.0558 -0.0946  0.0009
27406W        W70500   6.130  16.085  27.713  0.4494  0.1970 -0.1654
27407W        W70501   4.834  17.056  23.300 -0.1058  0.3048  0.0611
27408W        W70502   3.414  17.456  28.463  0.5798 -0.4101 -0.1121
27409W        W70503   6.231  15.666  27.035 -0.0290 -0.2016  0.1387
27410W        W70504   5.816  16.062  23.131  0.1890  0.1892  0.0903
27411W        W70505   7.783  16.634  26.735 -0.3919  0.0849 -0.0491
27412W        W70506   6.693  18.379  24.975 -0.2531 -0.0066 -0.1911
27413W        W70507   5.193  15.549  22.888  0.1755  0.1530 -0.0498
27414W        W70508   5.146  15.702  23.375  0.3650 -0.4261  0.0619
27415W        W70509   3.874  16.644  27.307 -0.0285  0.0210 -0.1638
27416W        W70510   4.810  17.479  24.936  0.3497 -0.2354 -0.0523
27417W        W70511   5.063  16.014  26.436 -0.1798 -0.1163  0.1650
27418W        W70512   5.649  15.548  22.263 -0.2417 -0.0208 -0.0459
27419W        W70513   7.375  18.461  23.704 -0.0825  0.2739  0.1141
27420W        W70514   3.614  16.578  26.032 -0.1108 -0.1535  0.4556
27421W        W70515   6.682  15.506  26.860  0.2914  0.0064  0.1836
27422W        W70516   7.733  18.312  25.187  0.2551  0.2462  0.3084
27423W        W70517   4.881  15.717  25.726 -0.0018  0.0599 -0.1263
27424W        W70518   5.431  16.543  23.972 -0.1841 -0.0694  0.1213
27425W        W70519   4.632  15.296  25.453 -0.1651  0.0549 -0.3481
27426W        W70520   2.977  17.793  23.396  0.0702  0.2119 -0.2229
27427W        W70521   7.316  15.407  26.886 -0.0673 -0.0369  0.1456
27428W        W70522   7.346  16.581  26.963 -0.1359  0.2411 -0.0118
27429W        W70523   4.647  15.594  27.090 -0.1190  0.3142 -0.0398
27430W        W70524   6.885  16.539  27.266  0.1015 -0.0081 -0.1222
27431W        W70525   5.777  16.563  24.363  0.0925 -0.0065 -0.0123
27432W        W70526   4.610  15.760  24.643  0.0035  0.2862  0.0961
27433W        W70527   4.973  16.716  22.941 -0.4361  0.0933 -0.0798
27434W        W70528   6.594  15.099  28.719 -0.2878  0.1251 -0.0522
27435W        W70529   5.250  14.875  26.997 -0.0519 -0.0241 -0.2599
27436W        W70530   3.319  18.375  26.685  0.0650 -0.0016  0.0286
27437W        W70531   5.698  16.567  25.168 -0.3563  0.0018  0.1161
27438W        W70532   6.148  15.877  23.464 -0.2091 -0.2259  0.1237
27439W        W70533   5.883  16.579  28.531  0.1283 -0.2338 -0.0441
27440W        W70534   7.001  15.571  25.819  0.0866  0.1159 -0.2897
27441W        W70535   3.985  18.522  24.470  0.1100 -0.0521  0.0574
27442W        W70536   5.182  17.377  23.777  0.1268  0.1197  0.2107
27443W        W70537   4.426  15.427  25.933  0.1529  0.2245 -0.0677
27444W        W70538   5.073  17.172  25.558 -0.2483  0.0342  0.2239
27445W        W70539   4.461  16.942  24.188  0.0387  0.0253 -0.1310
27446W        W70540   7.058  17.440  26.204  0.1783 -0.0719  0.0019
27447W        W70541   3.214  17.621  25.204 -0.1464 -0.0718 -0.0077
27448W        W70542   8.798  15.119  25.845  0.6631  0.3361  0.1141
27449W        W70543   3.634  17.942  25.469  0.3292 -0.1481 -0.2303
27450W        W70544   5.813  14.754  23.811 -0.0569 -0.2626  0.1459
27451W        W70545   3.263  15.575  23.859 -0.0238  0.0929  0.1216
27452W        W70546   7.874  14.830  25.686  0.1287  0.2623  0.0500
27453W        W70547   6.461  17.695  23.432  0.1362 -0.4567  0.1945
27454W        W70548   4.665  14.123  25.753 -0.0726 -0.0521 -0.1895
27455W        W70549   6.208  14.873  26.546 -0.1532  0.3448  0.0637
27456W        W70550   3.730  18.179  26.263 -0.1458 -0.0914 -0.0661
27457W        W70551   5.948  16.481  26.776  0.1731 -0.1950  0.2570
27458W        W70552   5.928  15.186  23.567  0.0535 -0.5958  0.0555
27459W        W70553   5.930  17.007  25.374  0.3582  0.0804  0.5504
27460W        W70554   4.997  15.776  27.434 -0.0894 -0.2517  0.2755
27461W        W70555   3.542  14.177  24.762  0.1279 -0.1692  0.1264
27462W        W70556   6.566  15.146  27.225  0.0623  0.0420  0.0795
27463W        W70557   5.911  16.083  24.568  0.2557  0.0233  0.0061
27464W        W70558   3.419  16.526  24.692  0.2053  0.2611  0.1166
27465W        W70559   5.854  17.121  26.570 -0.2112 -0.0669 -0.0314
27466W        W70560   4.351  17.197  24.629 -0.0217 -0.2544 -0.2515
27467W        W70561   3.903  16.927  25.455 -0.1687 -0.0846 -0.0322
27468W        W70562   5.190  15.850  28.766 -0.1708  0.2688 -0.3726
27469W        W70563   8.222  17.165  25.463  0.1059  0.0866  0.2869
27470W        W70564   5.566  17.051  25.637 -0.2817  0.1975 -0.3832
27471W        W70565   3.886  15.208  25.844  0.0870  0.0510  0.1238
27472W        W70566   5.320  15.865  25.984 -0.3267  0.0223 -0.2113
27473W        W70567   5.537  17.181  27.414 -0.3860  0.0732  0.1374
27474W        W70568   5.839  16.920  24.846  0.2721  0.0640 -0.1074
27475W        W70569   5.446  18.134  28.751 -0.1529 -0.0385  0.0574
27476W        W70570   6.178  14.738  25.432  0.0138  0.1015  0.0475
27477W        W70571   8.104  17.963  22.218 -0.2766 -0.0433  0.0418
27478W        W70572   5.781  17.463  27.731  0.0037 -0.0636 -0.0143
27479W        W70573   3.284  17.552  24.731  0.0423 -0.1751  0.3466
27480W        W70574   3.096  16.111  26.684  0.2205  0.0580  0.2415
27481W        W70575   5.467  17.412  24.287 -0.2766 -0.0178  0.0498
27482W        W70576   6.069  16.601  27.478  0.0125 -0.0256 -0.0914
27483W        W70577   4.836  18.230  25.580 -0.2980  0.0154 -0.1333
27484W        W70578   4.801  17.583  26.055 -0.0562  0.1806  0.1225
27485W        W70579   4.516  16.507  26.645 -0.1001  0.1214  0.1521
27486W        W70580   5.316  14.663  24.545 -0.1615  0.1669 -0.1408
27487W        W70581   6.197  17.970  22.916  0.1954  0.0639 -0.2386
27488W        W70582   6.689  16.414  26.294 -0.0716 -0.3132  0.0147
27489W        W70583   7.837  15.879  28.004  0.0347  0.2275  0.0197
27490W        W70584   5.359  17.681  22.814 -0.1290 -0.0627 -0.0273
27491W        W70585   5.585  15.232  26.917  0.1952 -0.0882 -0.0566
27492W        W70586   5.712  15.920  25.610  0.2603  0.1360 -0.0759
27493W        W70587   5.392  17.163  26.439  0.0809  0.1095 -0.0386
27494W        W70588   3.521  14.886  25.548  0.1801  0.1126 -0.2586
27495W        W70589   6.702  17.129  26.469 -0.1934  0.0377  0.1212
27496W        W70590   4.391  15.487  27.549 -0.4921  0.2334  0.1949
27497W        W70591   6.032  16.053  23.976  0.0006 -0.2745  0.1825
27498W        W70592   4.195  14.169  24.704  0.0657 -0.2317 -0.0025
27499W        W70593   4.710  16.748  26.145 -0.1657  0.1759  0.0748
27500W        W70594   7.461  16.745  23.858 -0.2125  0.0194  0.0033
27501W        W70595   4.257  16.632  23.689 -0.3033  0.1536 -0.0994
27502W        W70596   7.684  15.646  25.112  0.0925 -0.1738 -0.0140
27503W        W70597   4.314  15.509  26.705 -0.2246 -0.0368 -0.2158
27504W        W70598   6.248  16.582  25.271 -0.1322 -0.1175  0.1183
27505W        W70599   4.841  17.666  23.644  0.0590 -0.2196  0.5629
27506W        W70600   5.858  17.074  24.398  0.1893 -0.1033  0.2382
27507W        W70601   4.441  14.969  27.591  0.0722 -0.1836  0.2075
27508W        W70602   5.653  17.442  24.925  0.0335  0.0490 -0.0317
27509W        W70603   6.626  15.972  25.452  0.0448 -0.0323 -0.0500
27510W        W70604   7.037  15.451  27.325  0.2074  0.0422  0.2221
27511W        W70605   6.360  16.437  27.069  0.1105 -0.0798  0.0640
27512W        W70606   6.908  16.321  26.821 -0.1621  0.1047 -0.1319
27513W        W70607   4.222  14.783  27.985 -0.7426 -0.1920 -0.2810
27514W        W70608   7.066  17.084  25.724  0.2013 -0.1290 -0.0201
27515W        W70609   6.670  16.230  23.557  0.1179  0.1098  0.1527
27516W        W70610   7.875  15.635  26.030  0.0466  0.0919  0.0620
27517W        W70611   6.553  16.809  24.439  0.1663  0.0177  0.3523
27518W        W70612   6.133  17.123  23.510 -0.1558  0.3277  0.0212
27519W        W70613   4.399  15.910  25.817  0.0269 -0.2715 -0.4261
27520W        W70614   7.994  17.693  28.153 -0.0609  0.0570  0.0510
27521W        W70615   4.175  14.926  23.130  0.1211  0.1059 -0.0711
27522W        W70616   6.919  15.595  27.782  0.3188 -0.0611  0.1174
27523W        W70617   5.555  18.216  23.645 -0.4107  0.0562 -0.1570
27524W        W70618   6.066  16.714  25.758 -0.0924  0.0447 -0.2323
27525W        W70619   6.736  17.362  25.194  0.0470  0.0897 -0.0417
27526W        W70620   5.511  15.904  25.104  0.1129  0.0897  0.1333
27527W        W70621   3.260  17.205  27.407 -0.1071 -0.1948 -0.1772
27528W        W70622   4.461  14.013  22.519  0.1251 -0.1116  0.1602
27529W        W70623   5.639  17.028  23.890 -0.1569  0.1558 -0.3089
27530W        W70624   5.373  17.288  26.964  0.1512 -0.1516 -0.0627
27531W        W70625   7.020  16.275  28.170  0.2827  0.1353  0.0223
27532W        W70626   5.753  15.577  23.832  0.1686 -0.4002  0.0962
27533W        W70627   6.400  16.913  27.123 -0.2297 -0.1319 -0.0072
27534W        W70628   3.825  17.273  26.800 -0.2854  0.2691 -0.2209
27535W        W70629   6.701  15.464  25.374  0.1412  0.1456 -0.0638
27536W        W70630   3.571  18.407  27.813 -0.0085 -0.1235 -0.2714
27537W        W70631   3.217  16.182  28.003 -0.4131 -0.1560 -0.1046
27538W        W70632   5.716  17.982  25.821 -0.0214  0.2656  0.0120
27539W        W70633   4.802  16.182  24.664  0.0539 -0.0420 -0.4331
27540W        W70634   6.404  16.698  26.650 -0.0398 -0.1221 -0.1146
27541W        W70635   5.888  17.676  24.441 -0.0358 -0.0277 -0.2075
27542W        W70636   5.795  16.173  28.006  0.0579  0.3996 -0.4596
27543W        W70637   5.194  17.774  27.355  0.0508  0.0250  0.3912
27544W        W70638   4.410  18.455  25.829 -0.0972 -0.1423  0.0081
27545W        W70639   7.897  18.793  27.530 -0.0771  0.2615  0.0958
27546W        W70640   8.291  16.724  25.206 -0.1103 -0.0543  0.2919
27547W        W70641   4.685  17.239  27.013 -0.1418 -0.3411 -0.0904
27548W        W70642   4.072  14.572  26.833  0.0061 -0.1967  0.2282
27549W        W70643   4.840  16.304  27.774 -0.0265 -0.0571  0.1833
27550W        W70644   7.626  17.281  25.033  0.1943  0.1741  0.0571
27551W        W70645   3.112  15.087  23.754  0.0758 -0.0313 -0.5038
27552W        W70646   6.040  17.529  22.294  0.0336 -0.2560 -0.1879
27553W        W70647   3.630  17.115  28.155  0.1601 -0.5490 -0.2597
27554W        W70648   5.237  16.713  25.826 -0.0881  0.0903 -0.0521
27555W        W70649   3.408  17.778  23.703 -0.1964 -0.4467 -0.0477
27556W        W70650   6.232  18.105  24.176  0.0695  0.1825 -0.1864
27557W        W70651   6.622  18.795  25.529 -0.2556  0.0049  0.2071
27558W        W70652   6.221  18.029  24.710 -0.3709  0.0402  0.0469
27559W        W70653   4.811  15.404  23.601 -0.0648 -0.0500 -0.1966
27560W        W70654   5.072  18.186  26.424  0.3785 -0.1666  0.0097
27561W        W70655   2.426  16.746  23.548 -0.0174 -0.1595  0.1779
27562W        W70656   6.024  17.921  23.746 -0.1752 -0.1071 -0.4934
27563W        W70657   5.043  17.147  26.067 -0.2340 -0.1092 -0.0448
27564W        W70658   6.909  16.828  26.763 -0.4630  0.1651 -0.0234
27565W        W70659   8.317  14.518  25.047 -0.0826 -0.3457 -0.0124
27566W        W70660   7.695  15.695  26.745 -0.6007  0.0997  0.3183
27567W        W70661   6.655  17.111  24.000  0.2121 -0.1735 -0.3281
27568W        W70662   6.333  17.259  26.752  0.1780 -0.1693  0.3915
27569W        W70663   3.973  16.172  25.984 -0.5112 -0.2773  0.1784
27570W        W70664   5.218  16.907  23.679 -0.0116  0.2689  0.1978
27571W        W70665   4.215  15.906  27.881  0.3122 -0.0651  0.2050
27572W        W70666   8.544  15.691  27.458 -0.0573 -0.1956  0.0230
27573W        W70667   3.633  19.263  28.664 -0.0727  0.0460 -0.0839
27574W        W70668   5.731  18.953  26.004  0.0024 -0.1836  0.0051
27575W        W70669   4.468  16.256  24.980  0.0618  0.0573 -0.4061
27576W        W70670   4.710  15.231  26.395 -0.3055  0.0696  0.3341
27577W        W70671   8.052  13.958  26.941  0.3208  0.0994  0.0108
27578W        W70672   4.938  16.618  24.019  0.0549  0.1310 -0.0621
27579W        W70673   7.594  17.227  26.261 -0.0379 -0.0823 -0.2258
27580W        W70674   5.138  17.579  26.470 -0.0386  0.0243 -0.1207
27581W        W70675   4.915  17.677  25.411  0.0994  0.3049  0.1139
27582W        W70676   5.188  16.829  27.231  0.2097 -0.2929 -0.1082
27583W        W70677   3.998  16.460  25.100  0.0983 -0.0903  0.0928
27584W        W70678   7.089  16.078  25.691 -0.2297 -0.4273 -0.0141
27585W        W70679   4.295  16.427  27.180 -0.2608  0.1331 -0.0020
27586W        W70680   7.232  14.958  26.435 -0.1230 -0.2442 -0.0426
27587W        W70681   5.135  16.476  24.431  0.0968  0.0770 -0.1367
27588W        W70682   6.488  15.939  23.930  0.1465  0.0248  0.2712
27589W        W70683   5.943  16.034  27.253  0.1237 -0.4383 -0.1391
27590W        W70684   3.580  15.425  26.400 -0.0657 -0.2608  0.0652
27591W        W70685   5.303  16.074  23.011  0.0345 -0.1066  0.0842
27592W        W70686   7.446  17.039  26.743  0.2434  0.0694 -0.1684
27593W        W70687   4.946  17.974  22.875  0.1777  0.1056  0.0483
27594W        W70688   7.600  18.083  26.820  0.0112  0.0257  0.0223
27595W        W70689   4.200  15.549  25.487  0.2843  0.0111 -0.1625
27596W        W70690   6.686  17.093  23.443  0.0220 -0.1155  0.0851
27597W        W70691   4.457  16.708  24.858  0.0149  0.1461 -0.1108
27598W        W70692   4.403  14.928  26.612 -0.1675 -0.1111 -0.1590
27599W        W70693   6.574  17.307  25.799 -0.2144 -0.0706  0.0939
27600W        W70694   2.999  15.303  24.250 -0.0920 -0.3237  0.0128
27601W        W70695   7.196  17.958  23.754 -0.2079  0.0383  0.2050
27602W        W70696   7.545  15.899  25.791 -0.0277  0.3854  0.3512
27603W        W70697   3.929  17.665  23.098 -0.1776 -0.1988 -0.0699
27604W        W70698   4.938  17.056  25.094  0.1099  0.0565 -0.1980
27605W        W70699   7.368  18.082  25.448  0.1821 -0.1407  0.0960
27606W        W70700   2.288  14.296  25.101 -0.1592  0.0262  0.4222
27607W        W70701   5.725  17.722  27.299  0.0077  0.3674  0.2735
27608W        W70702   6.723  16.495  25.385 -0.0974  0.1679 -0.2109
27609W        W70703   5.317  13.130  24.515  0.1680  0.0355  0.1499
27610W        W70704   4.189  16.665  26.056  0.1686  0.0177  0.1399
27611W        W70705   4.066  17.887  25.283  0.1286 -0.2916  0.1525
27612W        W70706   6.665  15.833  26.410 -0.1098 -0.1142  0.1062
27613W        W70707   6.521  16.164  28.041  0.1711 -0.0726 -0.0562
27614W        W70708   4.515  17.825  25.640  0.2239 -0.0057 -0.1592
27615W        W70709   6.857  14.368  27.372 -0.1055  0.2963  0.1778
27616W        W70710   5.971  18.081  26.757  0.2272 -0.2095 -0.2889
27617W        W70711   3.879  18.576  27.245 -0.0321  0.0712  0.2230
27618W        W70712   4.834  16.971  24.542  0.0456 -0.0927  0.1824
27619W        W70713   5.236  16.627  25.370  0.1247  0.0465 -0.1310
27620W        W70714   4.953  16.178  25.974 -0.0475 -0.3824 -0.1427
27621W        W70715   4.507  17.562  26.563 -0.1765 -0.0576 -0.0385
27622W        W70716   8.085  19.809  25.660 -0.2006 -0.0011 -0.1252
27623W        W70717   6.150  16.465  24.788 -0.0052 -0.0042  0.4063
27624W        W70718   7.131  18.909  24.218  0.0914 -0.0500 -0.0514
27625W        W70719   5.309  15.576  25.521  0.1699  0.1758 -0.0302
27626W        W70720   7.022  15.000  25.072 -0.0964 -0.0925 -0.0563
27627W        W70721   5.757  15.547  24.734  0.0088 -0.0669 -0.2697
27628W        W70722   5.252  18.134  25.781  0.0800  0.1744 -0.5377
27629W        W70723   4.205  16.367  24.617 -0.0209  0.0813 -0.0295
27630W        W70724   4.381  15.209  23.451  0.2890 -0.1153  0.0116
27631W        W70725   4.457  17.403  25.309  0.1227  0.2200  0.0767
27632W        W70726   4.967  14.785  28.350  0.2965  0.1531 -0.0216
27633W        W70727   3.486  15.200  26.911  0.2398  0.2363  0.2805
27634W        W70728   3.887  16.401  26.421  0.0109  0.1535  0.2651
27635W        W70729   4.927  15.436  24.466 -0.0255 -0.0304 -0.0442
27636W        W70730   6.310  18.496  25.922  0.1274  0.4685 -0.2069
27637W        W70731   4.127  15.300  26.273  0.2063 -0.1079  0.3609
27638W        W70732   4.215  15.305  24.702 -0.0931  0.4186  0.0212
27639W        W70733   6.211  16.976  26.252 -0.1478 -0.0727 -0.0316
27640W        W70734   6.224  17.455  23.011  0.1177 -0.1650 -0.2892
27641W        W70735   5.429  16.295  24.772 -0.2980 -0.0492  0.1938
27642W        W70736   7.614  17.615  28.533  0.2768 -0.0313  0.0212
27643W        W70737   2.881  17.191  24.658 -0.2949  0.3730  0.0551
27644W        W70738   6.342  16.337  25.724 -0.0358  0.1871  0.0914
27645W        W70739   3.810  14.678  28.250 -0.1216 -0.0024 -0.2084
27646W        W70740   4.611  14.952  23.886 -0.4239  0.0626 -0.0088
27647W        W70741   3.804  16.878  26.367  0.2860  0.0364 -0.0918
27648W        W70742   5.425  19.273  25.223  0.2975  0.0392  0.0095
27649W        W70743   6.223  19.403  25.931  0.2550 -0.2248 -0.1693
27650W        W70744   4.624  15.790  26.232 -0.1309 -0.1034  0.0750
27651W        W70745   5.056  17.213  27.453 -0.0382  0.2613 -0.0618
27652W        W70746   3.833  13.880  25.832 -0.0395  0.1473 -0.2068
27653W        W70747   5.741  17.998  24.946 -0.1194 -0.0041  0.0281
27654W        W70748   4.512  17.027  26.561 -0.3096 -0.0993 -0.2413
27655W        W70749   6.925  16.911  25.251  0.1685 -0.1518 -0.0677
27656W        W70750   7.110  16.021  26.197 -0.0036 -0.0846 -0.0805
27657W        W70751   6.788  15.770  24.912  0.0698  0.2249  0.0245
27658W        W70752   3.927  15.116  26.701  0.0843  0.0632 -0.0133
27659W        W70753   3.563  15.900  26.437  0.0420  0.2063 -0.1710
27660W        W70754   8.940  16.450  25.888  0.0134 -0.1006 -0.3772
27661W        W70755   4.609  16.061  26.954 -0.0404 -0.0628 -0.0878
27662W        W70756   5.628  16.024  23.637  0.0013  0.1868 -0.4375
27663W        W70757   4.924  19.125  25.340  0.0250  0.3280 -0.0394
27664W        W70758   3.848  15.662  26.771  0.1345  0.1090 -0.0285
27665W        W70759   5.184  16.184  23.696 -0.2443  0.1832 -0.1111
27666W        W70760   6.216  16.446  26.276 -0.0772 -0.1880 -0.0236
27667W        W70761   5.746  18.164  24.089 -0.2179  0.1107  0.0087
27668W        W70762   5.519  16.752  26.740  0.1635  0.4409 -0.1137
27669W        W70763   4.905  16.190  23.250 -0.2586 -0.0333  0.1723
27670W        W70764   4.547  17.906  25.076  0.1201  0.3562  0.3377
27671W        W70765   4.917  17.724  26.959 -0.0300  0.2433 -0.2645
27672W        W70766   6.796  18.464  26.680  0.1159 -0.0771 -0.2933
27673W        W70767   5.087  18.794  27.792 -0.0554  0.1126  0.0205
27674W        W70768   6.541  16.206  25.018 -0.0702 -0.0858  0.2731
27675W        W70769   4.259  13.426  26.582  0.4673 -0.0909  0.2895
27676W        W70770   5.273  15.661  23.876 -0.3685 -0.0207  0.2729
27677W        W70771   6.033  17.947  25.352  0.3433  0.1112 -0.0238
27678W        W70772   6.510  15.550  25.981  0.2521  0.2345  0.1254
27679W        W70773   3.182  16.180  25.564  0.1508  0.3242  0.0107
27680W        W70774   6.648  15.363  23.725 -0.4733 -0.0016  0.1018
27681W        W70775   6.191  17.543  26.387 -0.3528  0.0506 -0.3303
27682W        W70776   5.264  16.817  24.743 -0.1294  0.1673  0.0329
27683W        W70777   4.648  17.644  31.871 -0.0082  0.1819  0.0199
27684W        W70778   3.767  15.275  30.146  0.2127  0.0822  0.1752
27685W        W70779   7.379  15.783  27.205 -0.0578 -0.0986 -0.1289
27686W        W70780   7.619  16.380  28.738 -0.1128 -0.1051  0.1349
27687W        W70781   1.876  15.477  28.466  0.1876  0.4220  0.0757
27688W        W70782   6.289  17.786  28.221 -0.0957 -0.0774  0.1568
27689W        W70783   3.821  15.008  31.723 -0.1021  0.0791  0.0773
27690W        W70784   5.911  17.492  28.937 -0.0420 -0.1077 -0.0867
27691W        W70785   8.604  16.736  30.400  0.1691 -0.2853 -0.0519
27692W        W70786   5.247  16.941  28.768  0.3090 -0.2169  0.1525
27693W        W70787   3.902  17.628  31.070 -0.0335 -0.0513  0.1775
27694W        W70788   5.528  17.583  30.496  0.0976  0.0210 -0.1188
27695W        W70789   4.690  15.745  27.881 -0.2526 -0.1159 -0.2179
27696W        W70790   3.632  14.828  29.263  0.0884 -0.3582  0.2064
27697W        W70791   6.870  17.008  30.923 -0.2722  0.2937  0.1201
27698W        W70792   4.282  16.847  29.173 -0.2660 -0.3006 -0.0426
27699W        W70793   3.600  15.097  29.680 -0.0252 -0.3822 -0.1985
27700W        W70794   5.165  18.001  29.975  0.1334  0.1037  0.0511
27701W        W70795   5.021  17.071  30.008  0.1680 -0.1236 -0.3987
27702W        W70796   6.126  15.953  31.572 -0.0654 -0.1570 -0.2008
27703W        W70797   6.203  15.710  30.677 -0.2756  0.1468 -0.2165
27704W        W70798   5.466  18.726  28.082 -0.1991  0.2491 -0.1505
27705W        W70799   5.004  16.296  28.233 -0.0908  0.1629 -0.1432
27706W        W70800   3.393  15.399  28.838 -0.1303  0.2535  0.2230
27707W        W70801   4.120  15.272  29.492  0.0019 -0.2583  0.3901
27708W        W70802   6.713  15.790  30.495 -0.1098 -0.0828  0.2802
27709W        W70803   7.153  16.061  30.680  0.4644  0.2117  0.0552
27710W        W70804   5.569  18.916  29.637 -0.0232 -0.1884 -0.3910
27711W        W70805   6.419  18.379  29.694  0.0697 -0.0100 -0.1022
27712W        W70806   4.700  16.006  30.610  0.0402  0.0469  0.3730
27713W        W70807   3.777  17.518  28.878 -0.1960 -0.0094  0.2137
27714W        W70808   3.621  18.899  28.320  0.1397  0.3628  0.4369
27715W        W70809   5.968  17.721  30.044  0.0893 -0.2226 -0.3244
27716W        W70810   7.589  18.393  27.491 -0.0514  0.5783  0.2176
27717W        W70811   6.912  18.492  29.587  0.2940  0.1672 -0.1213
27718W        W70812   5.971  18.784  30.747  0.0564  0.0662  0.0805
27719W        W70813   4.002  17.407  28.436  0.0151 -0.0409  0.0827
27720W        W70814   4.462  18.483  31.364 -0.0469 -0.1972  0.0551
27721W        W70815   4.718  16.966  30.948 -0.2239 -0.0142 -0.1337
27722W        W70816   5.976  16.273  29.040 -0.1972  0.0741 -0.2243
27723W        W70817   7.145  17.558  27.549  0.1818  0.0430  0.1537
27724W        W70818   7.221  17.671  28.051 -0.0030  0.1631 -0.1210
27725W        W70819   6.563  17.897  29.910  0.1604  0.1207  0.0731
27726W        W70820   4.459  17.191  29.675  0.0301 -0.0277  0.3109
27727W        W70821   4.546  17.517  30.346  0.2909 -0.2322  0.0337
27728W        W70822   6.040  14.863  30.510  0.2493 -0.0852 -0.0985
27729W        W70823   5.231  17.299  28.432  0.0857  0.2754 -0.2428
27730W        W70824   5.881  15.623  28.114  0.0152  0.0286  0.0798
27731W        W70825   6.522  16.053  26.818  0.2877 -0.0067  0.2121
27732W        W70826   5.304  16.056  29.606  0.3325  0.0626 -0.1403
27733W        W70827   5.881  14.177  29.226  0.1544 -0.0820 -0.1302
27734W        W70828   4.993  18.950  29.701 -0.1769  0.0426  0.0691
27735W        W70829   4.391  15.109  30.876 -0.2347  0.0987 -0.2866
27736W        W70830   8.088  16.928  30.083  0.0874 -0.0920 -0.0925
27737W        W70831   4.726  16.750  28.876 -0.0120 -0.2429  0.0726
27738W        W70832   5.978  14.739  30.021 -0.0910 -0.1312 -0.0876
27739W        W70833   5.737  19.232  30.523 -0.2544  0.0154  0.1409
27740W        W70834   2.900  15.403  29.023  0.1490 -0.0402  0.4401
27741W        W70835   7.608  17.874  27.530  0.3864  0.2820 -0.1190
27742W        W70836   6.299  17.922  28.943  0.1563 -0.1236 -0.1715
27743W        W70837   5.008  17.862  28.674 -0.0989  0.0336  0.0724
27744W        W70838   3.201  14.730  30.520  0.1667 -0.3947 -0.3702
27745W        W70839   5.308  17.020  31.858  0.3874 -0.0658  0.0828
27746W        W70840   2.950  14.249  30.526 -0.0457 -0.1737 -0.0390
27747W        W70841   6.329  15.831  29.656 -0.0629  0.1736  0.1979
27748W        W70842   6.048  16.315   0.231 -0.4344 -0.1852 -0.1999
27749W        W70843   4.900  17.872  30.587  0.2182 -0.1075 -0.0397
27750W        W70844   7.249  16.438  29.831  0.2897  0.0310  0.0336
27751W        W70845   4.932  16.545  30.369 -0.3532 -0.2764 -0.0116
27752W        W70846   8.941  16.804  29.371  0.1255  0.0967  0.0103
27753W        W70847   6.018  17.098  29.435  0.0813  0.0426  0.1479
27754W        W70848   6.589  15.109  29.204  0.0093  0.2112 -0.0483
27755W        W70849   6.196  14.878  31.033  0.2669 -0.1732  0.2179
27756W        W70850   4.744  17.118  27.965 -0.1387  0.3545  0.2551
27757W        W70851   4.422  17.530  28.696  0.2122 -0.0231 -0.0351
27758W        W70852   7.560  18.373  29.508  0.0801  0.0240 -0.1958
27759W        W70853   7.016  17.354  26.758  0.2427  0.1416  0.0222
27760W        W70854   5.091  18.602  30.567  0.0889  0.1211 -0.0195
27761W        W70855   4.683  16.727  29.466 -0.0153  0.2351  0.1253
27762W        W70856   6.519  17.479  30.796 -0.1509  0.0069  0.0920
27763W        W70857   4.080  16.921  28.267 -0.2475 -0.0877  0.1699
27764W        W70858   2.707  16.464  29.723 -0.0543 -0.0982 -0.1325
27765W        W70859   4.607  16.786  27.061  0.1655 -0.3416 -0.4292
27766W        W70860   4.833  15.303  30.878 -0.0471 -0.4277  0.0885
27767W        W70861   5.020  17.532  30.251 -0.0429  0.0141  0.1446
27768W        W70862   6.096  16.660  29.909  0.2538  0.1595 -0.0503
27769W        W70863   3.989  14.182  31.252 -0.1782  0.1458  0.0561
27770W        W70864   7.052  15.281  29.477 -0.2003  0.0003 -0.2125
27771W        W70865   4.491  16.375  29.124 -0.1161  0.1102 -0.0539
27772W        W70866   6.508  16.991  29.897  0.2104 -0.2616 -0.3164
27773W        W70867   6.167  16.009  28.312 -0.1234 -0.0569  0.1780
27774W        W70868   5.668  17.703  26.622  0.1435  0.1502  0.1550
27775W        W70869   2.413  14.443  30.512  0.2178  0.2698  0.1281
27776W        W70870   3.724  15.576  29.729 -0.1095 -0.1605  0.1627
27777W        W70871   4.868  14.367  31.139 -0.2187  0.0283 -0.1505
27778W        W70872   5.098  14.974  28.865  0.2222  0.1115  0.0957
27779W        W70873   6.123  16.126  30.077  0.0942 -0.0024 -0.3006
27780W        W70874   3.359  15.739  27.760  0.0298 -0.0184  0.0293
27781W        W70875   6.756  15.979  30.022 -0.0155  0.2144  0.1780
27782W        W70876   4.492  17.029  28.551 -0.0093 -0.0798  0.2811
27783W        W70877   3.635  16.012  29.132  0.1805 -0.2896 -0.3053
27784W        W70878   5.782  14.671  30.941  0.1037  0.1650  0.1557
27785W        W70879   4.596  18.536  28.901 -0.0389 -0.2563  0.0382
27786W        W70880   7.741  18.531  30.063  0.0764  0.1517 -0.0310
27787W        W70881   6.910  19.292  28.731  0.0392  0.2052 -0.1156
27788W        W70882   3.980  15.375  31.242  0.0677  0.1066  0.1044
27789W        W70883   3.828  15.636  27.611  0.3156  0.2386 -0.0984
27790W        W70884   4.747  18.408  29.792 -0.2944 -0.1106  0.1307
27791W        W70885   5.403  18.011  30.912  0.0990  0.0187  0.1755
27792W        W70886   4.712  14.626  27.920  0.0502 -0.0286 -0.0488
27793W        W70887   8.039  18.244  29.545  0.2462  0.0888  0.0966
27794W        W70888   5.091  15.878  26.966  0.1567 -0.2238  0.2232
27795W        W70889   4.099  16.745  29.638 -0.0809 -0.3245  0.0130
27796W        W70890   6.500  16.295  30.427 -0.1356 -0.0751 -0.0454
27797W        W70891   7.210  16.502  30.996  0.0405 -0.0623  0.0870
27798W        W70892   6.752  16.619  28.883  0.1792  0.1695 -0.4701
27799W        W70893   3.734  14.007  28.416  0.0271 -0.2310  0.0991
27800W        W70894   5.745  19.089  28.773  0.1348  0.4460 -0.0593
27801W        W70895   4.179  17.800  29.042  0.1727  0.0328 -0.0741
27802W        W70896   3.617  16.929  29.542  0.1083 -0.0959 -0.1482
27803W        W70897   7.122  16.893  29.968  0.3707 -0.2691 -0.1143
27804W        W70898   7.123  15.482  30.718 -0.0742 -0.0874  0.2126
27805W        W70899   3.324  16.573  30.936 -0.0633  0.3965 -0.0414
27806W        W70900   5.544  15.402   0.189  0.4531 -0.4313  0.1819
27807W        W70901   4.126  17.124  28.805 -0.1740 -0.3079 -0.0018
27808W        W70902   5.064  17.434  31.713 -0.2433  0.3096 -0.1403
27809W        W70903   7.370  14.919  29.479  0.0685 -0.1738  0.0949
27810W        W70904   6.734  15.514  29.795  0.2879  0.2063 -0.0763
27811W        W70905   6.710  16.582  30.749  0.1019 -0.1543 -0.0843
27812W        W70906   7.058  16.851  28.261  0.3943  0.3919  0.2110
27813W        W70907   5.062  16.727  27.859  0.1278 -0.1518  0.1775
27814W        W70908   6.165  15.104  28.277  0.0121 -0.0874 -0.3075
27815W        W70909   6.248  15.773   0.494  0.0372 -0.3506 -0.3629
27816W        W70910   5.042  16.555  29.790  0.0319 -0.1541 -0.0336
27817W        W70911   4.874  17.977  29.550 -0.1948 -0.1397 -0.1686
27818W        W70912   5.999  14.645  28.313  0.2363  0.2912  0.1268
27819W        W70913   7.450  17.318  28.891 -0.0881 -0.0376  0.2789
27820W        W70914   3.157  17.107  30.593 -0.2257 -0.3995  0.3061
27821W        W70915   6.165  17.171  30.174 -0.2127 -0.0026 -0.0070
27822W        W70916   6.678  18.256  28.936  0.0310  0.1369  0.1935
27823W        W70917   5.559  15.291  30.198 -0.2889 -0.0419 -0.2229
27824W        W70918   5.521  16.142  29.187 -0.3832 -0.2679  0.0271
27825W        W70919   5.015  15.166  29.253  0.0897 -0.0912 -0.1305
27826W        W70920   2.909  17.346  28.535  0.3531 -0.0613 -0.0926
27827W        W70921   7.596  16.740  30.274 -0.1646 -0.0475 -0.1966
27828W        W70922   4.809  15.417  28.899  0.1173  0.0158 -0.1722
27829W        W70923   4.327  15.899  31.430 -0.0990  0.0268 -0.0057
27830W        W70924   5.209  16.199  30.685 -0.0575 -0.0371 -0.1769
27831W        W70925   7.800  16.339  29.187  0.0944 -0.1665  0.1665
27832W        W70926   7.403  16.769  29.466  0.0288 -0.1731  0.0944
27833W        W70927   5.076  16.256  27.287  0.0331 -0.1888 -0.0462
27834W        W70928   5.522  16.113   0.233 -0.0716  0.0758  0.0053
27835W        W70929   4.365  16.501  30.531  0.1127  0.2183  0.1572
27836W        W70930   4.092  16.110  28.852 -0.1461  0.1507  0.1571
27837W        W70931   6.136  17.265  31.541 -0.1206 -0.0458 -0.0477
27838W        W70932   5.108  16.500  29.192  0.3771 -0.2273  0.1648
27839W        W70933   5.853  15.113  29.685 -0.3647 -0.0080 -0.0283
27840W        W70934   5.784  15.596  28.740 -0.0924 -0.1609 -0.2966
27841W        W70935   4.793  17.471  28.343  0.3855 -0.1841 -0.1462
27842W        W70936   4.736  17.717  29.098 -0.1736 -0.0361  0.0129
27843W        W70937   4.069  15.769  29.271 -0.1700 -0.3093 -0.2601
27844W        W70938   5.588  17.154  29.164 -0.1140 -0.2483 -0.1455
27845W        W70939   3.996  18.001  27.270 -0.0272 -0.1932 -0.3407
27846W        W70940   7.979  17.725  30.707 -0.1540 -0.0012  0.1454
27847W        W70941   4.118  17.718  30.022  0.0356  0.0637  0.1854
27848W        W70942   7.625  15.414  29.554 -0.1334 -0.1879  0.3690
27849W        W70943   3.121  17.199  28.952 -0.0378 -0.0970  0.1094
27850W        W70944   5.496  15.618  26.419 -0.2888 -0.1677 -0.3212
27851W        W70945   3.006  16.086  28.469 -0.1701  0.5764 -0.0682
27852W        W70946   7.145  15.701  29.150  0.1493 -0.1727  0.0067
27853W        W70947   7.585  16.820  28.972  0.2356  0.0902  0.0313
27854W        W70948   4.307  15.164  31.781 -0.0722 -0.5442  0.1132
27855W        W70949   6.136  14.881  29.352 -0.2630  0.3574 -0.0196
27856W        W70950   4.643  17.913  30.050 -0.0585 -0.1387 -0.0770
27857W        W70951   6.347  17.001  30.785  0.1909  0.0029  0.0868
27858W        W70952   5.959  15.807  29.271 -0.1124 -0.1351  0.0138
27859W        W70953   8.251  17.231  30.546  0.2231 -0.3310 -0.1180
27860W        W70954   6.378  15.865   0.027  0.0475 -0.0199 -0.0048
27861W        W70955   3.479  16.492  29.266  0.3686  0.3023  0.1620
27862W        W70956   5.791  16.316  30.401  0.0234  0.0078  0.0978
27863W        W70957   4.723  15.703  29.925 -0.2965 -0.2133  0.1301
27864W        W70958   4.106  17.878  28.555  0.0998 -0.1334  0.1316
27865W        W70959   6.272  17.898  30.858 -0.1791  0.3181  0.1265
27866W        W70960   4.992  16.413  26.767 -0.2283  0.1497 -0.1906
27867W        W70961   4.839  17.489  29.727 -0.3635 -0.0182 -0.1216
27868W        W70962   4.254  16.553  31.724  0.1841  0.1122 -0.1832
27869W        W70963   7.526  16.363  30.635  0.2681  0.2467 -0.0313
27870W        W70964   5.257  16.389  28.674 -0.2374 -0.0364  0.1166
27871W        W70965   4.573  15.846  29.228  0.2460 -0.0154 -0.0768
27872W        W70966   5.327  17.066  29.603 -0.2323 -0.1458  0.0135
27873W        W70967   7.429  17.199  30.720  0.0731 -0.0028  0.1094
27874W        W70968   6.151  16.711  30.415 -0.1958 -0.1663 -0.1335
27875W        W70969   4.293  17.968  30.479 -0.2770 -0.2668 -0.0146
27876W        W70970   4.340  15.371  30.013 -0.0427  0.0276  0.0528
27877W        W70971   7.676  17.868  29.496 -0.0706 -0.1207  0.0999
27878W        W70972   6.668  16.852  30.370 -0.0164  0.4359  0.0540
27879W        W70973   5.806  17.166  28.605 -0.1294 -0.0556 -0.3813
27880W        W70974   3.804  16.588  30.728  0.1346 -0.2393  0.0106
27881W        W70975   5.400  17.130  27.948  0.2325 -0.1690 -0.1276
27882W        W70976   4.965  15.609  29.483  0.0864 -0.1565  0.4410
27883W        W70977   4.580  16.768  30.018  0.0588  0.0709  0.1325
27884W        W70978   4.142  18.404  28.903  0.1838 -0.0452  0.3151
27885W        W70979   4.066  15.408  30.620  0.1221 -0.1546 -0.1113
27886W        W70980   6.656  14.126  28.837  0.0448  0.2342 -0.0885
27887W        W70981   5.666  17.480  28.209 -0.0290 -0.1797 -0.0036
27888W        W70982   4.863  15.281  27.534 -0.2066 -0.0148 -0.2795
27889W        W70983   6.399  15.090  29.744 -0.1186 -0.1377  0.1824
27890W        W70984   6.122  16.574  28.000  0.0493  0.1944  0.1231
27891W        W70985   5.290  15.663  29.923  0.0474 -0.1786  0.0878
27892W        W70986   5.161  14.686  29.407  0.0571  0.0540 -0.1925
27893W        W70987   8.928  16.177  28.457 -0.1498  0.1388 -0.0560
27894W        W70988   3.122  13.972  30.110  0.1043  0.0697 -0.1093
27895W        W70989   6.338  18.311  31.950  0.0964 -0.1902 -0.0753
27896W        W70990   4.159  14.891  31.297  0.3375  0.2497  0.1477
27897W        W70991   5.823  15.571  29.871  0.0773  0.3254  0.1297
27898W        W70992   5.355  15.405  28.976  0.2350 -0.2567 -0.1458
27899W        W70993   4.663  16.204  30.068 -0.0302 -0.2800 -0.0420
27900W        W70994   8.744  17.130  29.109 -0.0690  0.1780  0.0157
27901W        W70995   5.451  16.259  27.696 -0.1546 -0.3650 -0.0257
27902W        W70996   8.542  15.035  29.277 -0.3369 -0.0901 -0.1472
27903W        W70997   2.857  14.284  29.813 -0.0002 -0.0083 -0.0285
27904W        W70998   6.217  16.926  28.405 -0.0049  0.0825  0.2266
27905W        W70999   5.274  17.724  28.202 -0.2138  0.0859 -0.1694
27906W        W71000   4.388  15.741  28.776 -0.1928 -0.0542  0.2992
27907W        W71001   5.103  15.769  30.415  0.0109  0.3228  0.1031
27908W        W71002   6.390  16.136  29.282 -0.0548 -0.1432 -0.3351
27909W        W71003   6.994  14.693  31.584  0.0757  0.1068 -0.0303
27910W        W71004   4.748  16.195  29.578  0.2751 -0.1240 -0.2412
27911W        W71005   5.652  17.051  31.049 -0.0553  0.0834 -0.4034
27912W        W71006   4.595  15.485  30.421 -0.0337 -0.0380  0.0396
27913W        W71007   3.226  16.422  31.782 -0.0235  0.1197  0.0429
27914W        W71008   4.893  17.377  30.705 -0.1550 -0.0119 -0.1466
27915W        W71009   7.127  16.450  28.568  0.0836 -0.0682 -0.1688
27916W        W71010   7.617  16.990  29.832 -0.1371  0.1219  0.2830
27917W        W71011   6.664  16.094  28.576  0.2176  0.2037  0.0095
27918W        W71012   6.232  13.914  29.030 -0.1416  0.0410 -0.0969
27919W        W71013   4.375  16.527  28.601  0.1176 -0.2223  0.4585
27920W        W71014   6.256  15.979  31.091 -0.1271 -0.0002  0.2836
27921W        W71015   5.482  14.751  27.515 -0.0202  0.1841 -0.0941
27922W        W71016   6.878  15.482   1.622 -0.1074  0.0588 -0.2065
27923W        W71017   3.753  16.511  27.788  0.2764 -0.4159 -0.0233
27924W        W71018   8.153  17.933  30.250  0.1963  0.2720 -0.2884
27925W        W71019   5.483  15.635  29.420  0.1417 -0.0748  0.1437
27926W        W71020   3.499  14.844  28.723 -0.3258 -0.0169 -0.0701
27927W        W71021   5.467  18.817  30.794  0.1203  0.1166  0.1716
27928W        W71022   4.064  14.818  27.277 -0.2392 -0.0166  0.2703
27929W        W71023   3.556  16.572  28.292 -0.0498 -0.3670  0.5882
27930W        W71024   6.078  18.235  29.990 -0.0946  0.0150 -0.0174
27931W        W71025   8.847  14.972   0.000  0.0366 -0.0711  0.0912
27932W        W71026   6.194  15.193  26.911 -0.1009  0.1077  0.3121
27933W        W71027   7.967  16.797  31.368 -0.0216 -0.3639  0.0133
27934W        W71028   3.663  17.030  27.690  0.0350  0.0450  0.0682
27935W        W71029   6.475  14.693  30.150 -0.1374 -0.2631  0.2539
27936W        W71030   4.691  18.857  31.164 -0.0471  0.0287 -0.1957
27937W        W71031   4.703  18.241   0.118  0.0370 -0.2231 -0.1422
27938W        W71032   4.891  16.710  28.433 -0.2234 -0.1660  0.0806
27939W        W71033   5.172  16.172  30.155  0.2443  0.0343 -0.2703
27940W        W71034   6.494  16.362  29.758 -0.0987  0.1344  0.2588
27941W        W71035   5.313  18.090  29.229 -0.2561  0.0041 -0.1159
27942W        W71036   7.090  15.438  31.209 -0.1073  0.3396  0.3388
27943W        W71037   7.050  17.491  30.857 -0.0126 -0.1438  0.1067
27944W        W71038   4.836  17.286  28.788  0.2350  0.2519  0.2331
27945W        W71039   6.337  18.562  30.961 -0.1391  0.0796 -0.2193
27946W        W71040   8.892  16.346  28.919  0.0836 -0.1392  0.0286
27947W        W71041   4.468  17.269  29.136 -0.0235 -0.2179 -0.0201
27948W        W71042   3.333  15.819  31.106  0.2869 -0.3669 -0.0900
27949W        W71043   5.776  16.206  31.790  0.0219 -0.1519  0.0978
27950W        W71044   5.791  17.674  31.112  0.0322  0.0986  0.0691
27951W        W71045   4.833  16.158  28.796  0.0067  0.0139  0.2223
27952W        W71046   4.969  18.303  28.545  0.1218 -0.2442 -0.3634
27953W        W71047   3.826  18.134  31.487  0.3271 -0.0586  0.0165
27954W        W71048   3.679  15.325  29.276 -0.1187 -0.0737  0.1903
27955W        W71049   4.500  18.263  29.292 -0.0355  0.1479  0.1401
27956W        W71050   8.046  18.081  27.772  0.0161 -0.0752 -0.0067
27957W        W71051   6.268  17.009  28.914 -0.1331  0.0245  0.2775
27958W        W71052   5.904  18.591  28.839 -0.2314 -0.0129  0.1344
27959W        W71053   4.812  15.767  28.403 -0.0350 -0.2375  0.0941
27960W        W71054   3.720  18.111  29.852  0.0137  0.3131  0.1746
27961W        W71055   3.639  17.947  27.588  0.1341  0.3229 -0.0642
27962W        W71056   7.143  17.062  27.161  0.2136  0.3218  0.3800
27963W        W71057   6.946  17.783  30.360 -0.1603  0.0076 -0.0260
27964W        W71058   8.986  17.653  29.282  0.1554  0.0377  0.0965
27965W        W71059   5.615  14.679  28.025 -0.4778  0.3191  0.0782
27966W        W71060   7.993  14.786  28.754 -0.1736 -0.0285  0.1503
27967W        W71061   7.039  15.180  28.935 -0.0036 -0.0366 -0.2757
27968W        W71062   5.624  17.974  29.649 -0.1078  0.1005 -0.1098
27969W        W71063   5.439  16.742  30.105  0.0728  0.1218 -0.2252
27970W        W71064   4.908  14.618  26.730  0.1900 -0.1875  0.3269
27971W        W71065   4.771  16.044  31.701  0.1279 -0.0333  0.3638
27972W        W71066   6.689  15.694  31.546  0.0575  0.1701  0.0906
27973W        W71067   4.082  18.492  31.772 -0.0069 -0.1260 -0.3556
27974W        W71068   6.491  17.422  27.711  0.1185  0.0757 -0.0099
27975W        W71069   3.513  15.963  28.543  0.0242  0.0533 -0.2662
27976W        W71070   4.963  17.145  29.273  0.2478  0.0267  0.3244
27977W        W71071   7.891  15.018   0.158  0.0369  0.0643 -0.0378
27978W        W71072   4.926  18.195  26.988 -0.2019 -0.1064 -0.2276
27979W        W71073   7.740  16.360  27.652 -0.0068 -0.0210 -0.2063
27980W        W71074   4.538  18.535  28.387 -0.0918  0.2447 -0.0547
27981W        W71075   4.527  18.079  28.720  0.1767 -0.1197  0.0738
27982W        W71076   5.831  16.741  28.994 -0.4063  0.2141  0.1303
27983W        W71077   3.544  14.436  26.492 -0.0796  0.1837  0.3889
27984W        W71078   8.459  16.423  28.563  0.0167  0.3642 -0.2192
27985W        W71079   5.927  15.545  31.111 -0.0335 -0.2244  0.3086
27986W        W71080   5.654  12.785  30.210  0.0460 -0.0693 -0.1155
27987W        W71081   5.457  15.770  28.339  0.0481  0.0354 -0.1434
27988W        W71082   5.795  17.548  29.502 -0.0498 -0.0009  0.1336
27989W        W71083   5.260  15.366  31.177 -0.0172 -0.0377 -0.1554
27990W        W71084   5.388  14.878  30.028  0.0864 -0.1621 -0.1999
27991W        W71085   5.798  16.923  28.144 -0.0265  0.3464 -0.1885
27992W        W71086   6.937  17.281  30.447 -0.0890 -0.3266  0.1089
27993W        W71087   5.727  16.132  28.595  0.2621 -0.1693  0.1753
27994W        W71088   6.011  16.920   0.879  0.0805 -0.0508  0.0466
27995W        W71089   4.597  15.077  29.499  0.1883  0.0721 -0.2254
27996W        W71090   6.256  15.426  29.427  0.1007 -0.1741  0.1066
27997W        W71091   4.513  15.304  28.536  0.2269 -0.0930 -0.1196
27998W        W71092   4.512  14.389  29.789 -0.0231 -0.2016  0.1557
27999W        W71093   5.557  17.677  31.809  0.0597  0.0193 -0.1349
28000W        W71094   3.395  15.147  28.331  0.3888 -0.1584  0.1312
28001W        W71095   7.871  17.676  27.112  0.1011  0.0851 -0.1534
28002W        W71096   7.502  16.303  28.114 -0.1743  0.1099  0.1910
28003W        W71097   3.048  19.153  27.131  0.1763  0.2292 -0.1843
28004W        W71098   6.553  16.569  27.663  0.1195 -0.1113  0.1877
28005W        W71099   6.671  17.142  28.480  0.2954  0.1809  0.0085
28006W        W71100   4.524  15.329  31.352  0.1978  0.2020 -0.1309
28007W        W71101   7.389  17.250  30.206  0.3345 -0.1120  0.3795
28008W        W71102   6.235  17.460  29.713  0.1696 -0.1148  0.2786
28009W        W71103   5.806  15.015  28.694  0.0902  0.4067 -0.0581
28010W        W71104   1.976  15.968  29.365 -0.2134  0.0045  0.1084
28011W        W71105   4.175  17.826  28.092  0.3400 -0.0127  0.3827
28012W        W71106   7.002  16.397  30.338  0.1778 -0.0914  0.1857
28013W        W71107   4.940  15.269  29.857  0.3732  0.2039  0.4641
28014W        W71108   5.303  18.272  28.199  0.1025 -0.1001 -0.1069
28015W        W71109   7.060  16.491   0.090  0.0392 -0.3602  0.3910
28016W        W71110   5.054  19.078  30.225  0.2406 -0.5594 -0.2378
28017W        W71111   5.214  18.378  31.223  0.0052  0.0304  0.0907
28018W        W71112   4.140  16.821  27.764 -0.2630  0.2308 -0.1071
28019W        W71113   5.699  16.574  30.874 -0.0709 -0.0584 -0.0037
28020W        W71114   4.233  17.348  27.978 -0.2444 -0.1603  0.5335
28021W        W71115   7.008  17.416  29.954 -0.4370 -0.2721 -0.3603
28022W        W71116   8.298  19.544  30.376  0.0637 -0.3125  0.3558
28023W        W71117   5.799  15.259  27.792  0.0696 -0.2351  0.1095
28024W        W71118   6.516  17.010  29.396 -0.0518 -0.0560  0.0433
28025W        W71119   4.362  15.375  29.104  0.0163 -0.1479 -0.1705
28026W        W71120   7.470  14.583  30.465  0.1367  0.0433  0.1516
28027W        W71121   6.272  14.744  28.806 -0.1421 -0.1684  0.0255
28028W        W71122   5.645  16.733  31.543  0.0966 -0.1665 -0.0740
28029W        W71123   2.566  14.327  27.340  0.0961  0.4369  0.1209
28030W        W71124   4.316  16.396  27.709 -0.1780 -0.1177 -0.0934
28031W        W71125   4.030  17.239  29.362  0.1074 -0.4126  0.2700
28032W        W71126   5.505  14.883  30.499 -0.1250  0.1740  0.2584
28033W        W71127   4.577  15.601  31.745  0.4402 -0.0384  0.0395
28034W        W71128   4.514  16.694  28.100  0.0730 -0.0057 -0.1304
28035W        W71129   4.085  15.165  28.343  0.0862 -0.0143 -0.0253
28036W        W71130   7.750  16.778  30.879 -0.1591  0.0976  0.0552
28037W        W71131   4.864  14.765  29.770  0.1370  0.1860  0.1087
28038W        W71132   3.892  13.734  29.571 -0.1160 -0.0798 -0.3164
28039W        W71133   6.228  16.589  29.429  0.2146 -0.1481 -0.0144
28040W        W71134   6.706  17.630  28.771  0.0327 -0.1158  0.1561
28041W        W71135   5.569  16.645  29.400 -0.0066  0.3621 -0.2249
28042W        W71136   8.495  17.722  30.492  0.0720  0.2041 -0.0620
28043W        W71137   2.828  17.336  27.218 -0.1884 -0.0958 -0.0977
28044W        W71138   5.278  15.811  31.900 -0.0986 -0.0042 -0.0613
28045W        W71139   6.286  15.339   0.186  0.0086 -0.2799 -0.0197
28046W        W71140   4.696  15.172  28.039 -0.1851  0.0872 -0.0718
28047W        W71141   5.925  16.178  29.562  0.2272 -0.0896  0.2307
28048W        W71142   6.278  16.964  27.748  0.1422  0.1239  0.1478
28049W        W71143   7.562  17.037  28.385 -0.2509  0.1407 -0.0413
28050W        W71144   5.192  17.100  31.242  0.0348  0.0780  0.3424
28051W        W71145   5.877  17.980  30.476 -0.0440 -0.1184  0.0472
28052W        W71146   4.187  14.951  30.328 -0.4042 -0.3408  0.1220
28053W        W71147   5.463  16.581  28.124 -0.1451 -0.0420  0.3179
28054W        W71148   5.155  16.844  30.759 -0.3266  0.0810 -0.1702
28055W        W71149   6.777  16.970  27.469 -0.2064  0.1779  0.2375
28056W        W71150   7.670  15.485  31.415  0.1217  0.2980  0.0740
28057W        W71151   5.606  16.437  27.292  0.0208 -0.0179  0.4700
28058W        W71152   3.722  13.487  30.175  0.0454  0.1471  0.2230
28059W        W71153   5.129  16.608  31.199  0.1191 -0.1065  0.2243
28060W        W71154   8.317  16.943  30.931  0.2313  0.1346 -0.0023
28061W        W71155   4.537  16.160  28.228 -0.1766 -0.1281  0.1553
28062W        W71156   6.168  15.229  30.165  0.2571 -0.1863  0.0436
28063W        W71157   5.494  17.637  28.629  0.2025 -0.0340 -0.0549
28064W        W71158   3.298  15.682  29.412 -0.1849  0.1708 -0.1156
28065W        W71159   6.419  15.487  28.504 -0.2271  0.2119 -0.1587
28066W        W71160   6.296  15.396  31.587 -0.0750  0.1576 -0.4232
28067W        W71161   6.608  18.654  29.230 -0.2001  0.0251 -0.1170
28068W        W71162   6.421  17.195  31.975  0.2271 -0.0878  0.1234
28069W        W71163   4.210  16.310  29.874  0.1108 -0.0985 -0.1154
28070W        W71164   7.158  16.527  27.733 -0.0496  0.0300  0.0001
28071W        W71165   5.462  17.572  29.953  0.0675 -0.1662 -0.1060
28072W        W71166   6.798  19.610  31.759 -0.0515  0.2779  0.0879
28073W        W71167   6.073  18.848  29.232  0.2191  0.2790 -0.1687
28074W        W71168   7.496  16.068  29.498  0.3635  0.2759  0.1789
28075W        W71169   3.291  13.475  29.859  0.0755  0.2836  0.0164
28076W        W71170   4.129  15.894  28.381 -0.1762  0.1604 -0.0078
28077W        W71171   6.567  17.468  30.173 -0.1099 -0.1568  0.0195
28078W        W71172   6.679  16.132  30.870  0.0696 -0.1392  0.4198
28079W        W71173   3.161  15.855  28.906  0.0049 -0.0986 -0.0798
28080W        W71174   6.175  15.290  28.876 -0.0735 -0.0720  0.3089
28081W        W71175   4.675  17.022  30.446 -0.1686 -0.1576 -0.0626
28082W        W71176   5.620  16.305  29.914  0.1428  0.1574 -0.1675
28083W        W71177   8.232  16.430  29.564 -0.2954  0.2760 -0.1771
28084W        W71178   6.196  17.762  31.328 -0.2163  0.0859 -0.1761
28085W        W71179   4.584  15.881   0.168 -0.3259 -0.2056  0.2516
28086W        W71180   4.472  16.495   0.212 -0.0825 -0.5280  0.0802
28087W        W71181   5.035  17.820   0.519 -0.2381 -0.0980 -0.0696
28088W        W71182   5.187  16.233   0.585  0.0777 -0.2903  0.0448
28089W        W71183   6.979  15.942  31.213  0.0112  0.2081 -0.0384
28090W        W71184   4.288  16.195  31.038  0.0027  0.3203  0.2068
28091W        W71185   7.307  16.943  31.188 -0.6083 -0.0548 -0.0696
28092W        W71186   8.179  17.645  31.746 -0.2784  0.0774  0.0653
28093W        W71187   6.237  17.161   0.510 -0.1973 -0.0146  0.2374
28094W        W71188   5.196  14.876  30.882  0.0559  0.1911  0.2564
28095W        W71189   6.675  17.747  31.178 -0.3229  0.2160 -0.2470
28096W        W71190   6.422  15.556   0.943  0.0923 -0.6519 -0.0016
28097W        W71191   6.905  16.915  31.528 -0.0658 -0.2568 -0.2408
28098W        W71192   5.618  18.054  31.453  0.2824 -0.2033 -0.0112
28099W        W71193   1.081  17.106   0.035  0.0280 -0.0277 -0.2004
28100W        W71194   5.913  18.194  30.974 -0.1848 -0.0095  0.0514
28101W        W71195   4.750  17.047  31.920  0.0713  0.2675 -0.3674
28102W        W71196   4.701  16.287  31.282  0.4676 -0.1155  0.0086
28103W        W71197   3.822  15.988  31.349  0.1222 -0.1489 -0.2409
28104W        W71198   3.099  17.073   0.593  0.0534 -0.0658 -0.1516
28105W        W71199   7.804  16.294   0.692  0.0984 -0.0151 -0.1686
28106W        W71200   6.512  15.316  31.159 -0.1198  0.2865 -0.0427
28107W        W71201   6.500  16.708  31.294  0.0222 -0.1647 -0.0434
28108W        W71202   5.756  17.105  30.510 -0.3833 -0.1362 -0.0968
28109W        W71203   6.150  16.478  31.657 -0.1404 -0.0622 -0.0915
28110W        W71204   4.595  17.938   0.444 -0.0782 -0.2079  0.0645
28111W        W71205   4.421  15.682  30.840  0.0322 -0.1652 -0.0169
28112W        W71206   4.757  15.006  31.730 -0.1890  0.0533 -0.1392
28113W        W71207   6.554  17.054   1.196  0.2932  0.3117 -0.1703
28114W        W71208   4.358  17.292  31.732 -0.2437 -0.0603 -0.0178
28115W        W71209   7.588  17.229  31.617 -0.0834  0.0019 -0.2611
28116W        W71210   6.672  15.013   0.115 -0.0084  0.0665  0.4449
28117W        W71211   3.363  15.714  30.404  0.2037 -0.2727  0.0107
28118W        W71212   6.721  16.874   0.318 -0.0572 -0.2509  0.1891
28119W        W71213   4.803  17.519  31.218 -0.1548  0.3090  0.1362
28120W        W71214   5.609  17.379  31.430 -0.0958  0.1418  0.0709
28121W        W71215   6.835  16.056  31.855 -0.2852  0.0785  0.2632
28122W        W71216   5.951  17.638   0.221  0.0048  0.0394  0.1121
28123W        W71217   7.740  15.767  31.886  0.4392 -0.4193 -0.0917
28124W        W71218   5.371  15.177  31.684  0.0535  0.2571 -0.0876
28125W        W71219   3.254  15.387  29.841  0.1505  0.2169  0.1430
28126W        W71220   5.266  19.382  31.968 -0.0375  0.1860  0.3569
28127W        W71221   3.720  15.960   0.146  0.0658 -0.1096 -0.1182
28128W        W71222   6.614  16.619  31.869 -0.4723 -0.0802  0.0061
28129W        W71223   5.720  15.065  31.293  0.0202  0.1501 -0.1032
28130W        W71224   5.678  16.610   1.144  0.0299 -0.3343  0.0543
28131W        W71225   6.466  17.573   1.030 -0.1626  0.2363  0.0061
28132W        W71226   4.713  17.082  31.409 -0.1540 -0.4241 -0.1843
28133W        W71227   5.870  15.776   0.057 -0.1023  0.0116  0.5240
28134W        W71228   4.965  13.352  30.510 -0.2181  0.0128  0.0201
28135W        W71229   5.387  15.538  30.714 -0.0211 -0.1520  0.1796
28136W        W71230   4.438  16.729  31.299  0.0132  0.1541 -0.2117
28137W        W71231   5.930  17.387   0.800  0.2726 -0.0901  0.1613
28138W        W71232   5.870  16.320  31.284  0.1278  0.0763  0.0391
28139W        W71233   7.111  17.404  31.342  0.0762  0.3955  0.2672
28140W        W71234   5.760  18.441  31.863  0.1085  0.0819 -0.0893
28141W        W71235   5.847  17.129  31.936 -0.0580 -0.5131  0.3127
28142W        W71236   4.242  15.886  30.323  0.0227  0.1489  0.0242
28143W        W71237   4.772  16.460  30.801  0.1365  0.2426 -0.0691
28144W        W71238   6.239  16.079   0.943 -0.1055  0.1072 -0.0731
28145W        W71239   3.348  16.276  31.313 -0.2182  0.2421  0.0320
28146W        W71240   4.686  14.962   0.224  0.2382 -0.0177 -0.1902
28147W        W71241   8.811  17.005  30.896  0.2351 -0.0684  0.0281
28148W        W71242   7.263  18.089  30.128  0.3646 -0.2006  0.0037
28149W        W71243   7.506  16.693  31.742  0.0458  0.0216 -0.0294
28150W        W71244   4.217  21.505  17.858 -0.0216  0.0902 -0.1309
28151W        W71245   4.456  20.354  16.989  0.2211  0.0421 -0.0814
28152W        W71246   5.900  19.422  16.434 -0.3434 -0.3399 -0.2271
28153W        W71247   7.248  22.106  17.004  0.1585  0.0053  0.3188
28154W        W71248   3.717  18.779  17.075  0.0222 -0.3180  0.1614
28155W        W71249   5.545  23.676  19.545  0.0118  0.1568  0.1633
28156W        W71250   4.466  16.879  18.492 -0.0462 -0.2137 -0.2679
28157W        W71251   6.634  21.894  16.649  0.1655 -0.0608  0.0718
28158W        W71252   6.284  22.693  18.776 -0.1005  0.1177  0.0465
28159W        W71253   5.861  20.973  16.374 -0.0993  0.2049  0.4061
28160W        W71254   3.729  21.076  19.742  0.2879 -0.2522 -0.3345
28161W        W71255   5.159  20.618  18.267 -0.2360  0.1710  0.1638
28162W        W71256   5.456  18.666  17.477 -0.0570 -0.2626  0.0547
28163W        W71257   2.673  18.842  17.864  0.2332  0.4298  0.0323
28164W        W71258   6.184  19.622  19.960  0.2813 -0.0510  0.3969
28165W        W71259   2.663  20.166  16.767  0.0146  0.1328 -0.1932
28166W        W71260   4.687  19.764  18.543 -0.0787 -0.2229  0.2563
28167W        W71261   5.010  19.261  16.512  0.1905 -0.0496  0.0285
28168W        W71262   5.373  22.405  17.446 -0.0509  0.4281 -0.0449
28169W        W71263   3.920  20.583  19.577  0.2152 -0.2298 -0.3973
28170W        W71264   5.898  19.353  20.345  0.1705  0.1214  0.2940
28171W        W71265   6.518  21.615  17.440  0.1195  0.2074  0.0974
28172W        W71266   2.782  19.308  16.399 -0.0756  0.0192 -0.0400
28173W        W71267   3.555  19.202  17.560 -0.1494 -0.1598 -0.0097
28174W        W71268   4.625  20.174  20.299 -0.0163  0.0991 -0.1497
28175W        W71269   5.222  18.110  19.022 -0.0521 -0.0204  0.0520
28176W        W71270   6.155  20.499  18.137  0.2839  0.0062 -0.1234
28177W        W71271   3.102  21.204  17.648  0.0726 -0.1415 -0.1156
28178W        W71272   5.071  21.238  16.586 -0.2526 -0.1067 -0.2215
28179W        W71273   6.452  19.026  18.539  0.0375  0.2559 -0.0478
28180W        W71274   3.210  20.206  18.883  0.0880 -0.2818  0.1540
28181W        W71275   2.608  21.581  17.498  0.1217  0.0561  0.0685
28182W        W71276   5.305  19.837  17.241 -0.1706  0.0974 -0.4871
28183W        W71277   8.083  21.855  16.965 -0.2053 -0.2740  0.2001
28184W        W71278   6.410  21.230  19.683  0.0086 -0.0813  0.2087
28185W        W71279   5.685  20.822  18.537 -0.1348 -0.0783  0.1089
28186W        W71280   2.040  20.466  17.494 -0.2365  0.2152  0.0319
28187W        W71281   5.475  22.275  19.215  0.3643  0.1959  0.0610
28188W        W71282   4.183  19.356  18.692 -0.1762 -0.0705  0.2017
28189W        W71283   4.504  19.949  19.863  0.1190  0.0502  0.1285
28190W        W71284   7.042  21.466  18.892 -0.0672  0.3712  0.0751
28191W        W71285   4.026  20.463  17.260  0.4166 -0.0828  0.0653
28192W        W71286   4.685  20.647  18.184  0.1236  0.0292  0.4214
28193W        W71287   4.675  21.956  18.607 -0.2346  0.3690 -0.4634
28194W        W71288   4.382  20.058  18.115  0.0829 -0.0475  0.2805
28195W        W71289   6.767  19.052  18.911 -0.1820 -0.1894  0.1792
28196W        W71290   4.191  20.582  16.171 -0.0979  0.0673 -0.2102
28197W        W71291   5.105  20.338  17.517  0.1060  0.1714  0.1096
28198W        W71292   6.137  19.761  16.061  0.0584 -0.0288  0.3665
28199W        W71293   6.207  19.910  16.525 -0.3871  0.2018 -0.1714
28200W        W71294   4.893  17.980  17.340  0.1777  0.0931 -0.0035
28201W        W71295   4.518  21.670  18.973 -0.1680  0.0640  0.0203
28202W        W71296   5.011  18.619  18.860 -0.1615  0.0112 -0.0064
28203W        W71297   5.698  20.712  19.788 -0.1250  0.1306 -0.1478
28204W        W71298   3.614  20.055  17.240  0.0014  0.0350 -0.0915
28205W        W71299   6.549  20.358  19.226 -0.1386  0.2413 -0.5220
28206W        W71300   3.446  22.394  18.508  0.1837  0.2783  0.1018
28207W        W71301   3.580  18.695  17.504 -0.1347  0.0430 -0.1079
28208W        W71302   6.834  20.584  16.124 -0.1435 -0.0887  0.3387
28209W        W71303   7.678  23.109  19.015 -0.0223  0.0421  0.0023
28210W        W71304   7.784  20.300  16.520  0.0552 -0.1387  0.0859
28211W        W71305   2.887  20.787  18.047  0.0815  0.0791 -0.1915
28212W        W71306   4.331  21.170  18.894 -0.4530  0.2239  0.3628
28213W        W71307   3.208  18.601  19.128  0.0177  0.0983  0.0792
28214W        W71308   3.305  20.610  17.823  0.0453  0.2872 -0.0693
28215W        W71309   5.935  21.295  19.874 -0.0034 -0.0954  0.1054
28216W        W71310   4.221  20.981  18.410  0.0278 -0.0125  0.2714
28217W        W71311   6.090  20.161  19.034 -0.1414 -0.1597  0.0284
28218W        W71312   4.905  20.137  17.011  0.0852 -0.1969 -0.2994
28219W        W71313   7.411  20.475  19.761 -0.1049  0.0229 -0.2381
28220W        W71314   5.655  19.551  17.748 -0.3631 -0.0918 -0.1924
28221W        W71315   5.736  19.067  18.733  0.3028 -0.0012  0.2117
28222W        W71316   5.243  17.101  18.405  0.1953  0.0730  0.0717
28223W        W71317   5.392  20.231  16.637  0.0868 -0.0318  0.1628
28224W        W71318   4.705  18.421  17.262 -0.0438  0.1370  0.1424
28225W        W71319   6.075  20.160  19.897  0.0808 -0.0709  0.3278
28226W        W71320   7.090  20.124  16.069  0.0354  0.1250  0.2345
28227W        W71321   4.890  22.074  18.171 -0.3650 -0.1985  0.0162
28228W        W71322   5.310  19.082  19.902 -0.0521  0.0399  0.2168
28229W        W71323   5.911  22.058  19.411 -0.0351 -0.2146 -0.5713
28230W        W71324   3.690  21.703  17.432 -0.0668  0.0962  0.0166
28231W        W71325   2.927  19.532  18.368 -0.0756  0.1794 -0.4457
28232W        W71326   4.063  20.715  16.697 -0.0187  0.0161  0.2646
28233W        W71327   2.757  19.273  19.600  0.2259 -0.0661  0.0535
28234W        W71328   5.600  21.317  17.312 -0.2213 -0.2933 -0.3030
28235W        W71329   6.938  18.691  17.631  0.0871 -0.0583  0.0519
28236W        W71330   4.309  17.809  18.459  0.1343 -0.0301 -0.1124
28237W        W71331   5.295  18.447  18.448  0.1766 -0.4090  0.1795
28238W        W71332   3.846  20.993  17.093 -0.1306  0.3589  0.0801
28239W        W71333   8.060  22.744  17.989 -0.1588  0.1054 -0.1216
28240W        W71334   5.865  20.233  16.767  0.1471 -0.1173  0.1817
28241W        W71335   7.650  19.903  16.172  0.1056 -0.3049 -0.0456
28242W        W71336   2.803  19.895  18.827  0.3825 -0.0440  0.0263
28243W        W71337   3.633  19.613  18.419  0.0066  0.2653  0.1284
28244W        W71338   3.026  20.521  19.942  0.1876 -0.2384 -0.2220
28245W        W71339   3.365  17.538  17.091  0.0322  0.2658  0.1749
28246W        W71340   5.733  21.171  18.991 -0.1577 -0.0648 -0.0701
28247W        W71341   4.118  18.876  16.307  0.3657  0.1339  0.1009
28248W        W71342   5.145  19.758  16.756 -0.1815  0.1214  0.1809
28249W        W71343   5.364  19.737  18.094  0.0228  0.0916  0.2214
28250W        W71344   2.856  19.407  17.309 -0.4169  0.2030  0.2076
28251W        W71345   5.648  20.200  19.336  0.0074  0.1044  0.0337
28252W        W71346   5.613  21.383  16.515 -0.1532 -0.3679  0.2175
28253W        W71347   6.251  23.472  17.968  0.1639 -0.0671 -0.0920
28254W        W71348   5.379  22.144  17.042  0.1075 -0.0542 -0.0375
28255W        W71349   5.725  20.673  19.140  0.1036 -0.0676  0.1275
28256W        W71350   4.366  19.879  16.838  0.3401 -0.1574 -0.1784
28257W        W71351   3.934  22.682  17.084 -0.1296 -0.1876 -0.0824
28258W        W71352   5.269  21.125  18.547 -0.0979 -0.0539  0.1887
28259W        W71353   2.952  19.035  18.242 -0.0018  0.0328  0.4663
28260W        W71354   8.735  22.218  18.668  0.0575 -0.2887 -0.0419
28261W        W71355   4.634  19.735  16.433 -0.0025  0.2908 -0.0287
28262W        W71356   3.186  20.075  19.632 -0.2292 -0.3299 -0.3368
28263W        W71357   5.675  19.848  19.901 -0.1937  0.1039 -0.0933
28264W        W71358   8.145  19.997  18.250 -0.0443 -0.2691  0.2008
28265W        W71359   5.295  20.943  18.999 -0.0319 -0.4856  0.1541
28266W        W71360   3.724  19.710  16.838  0.4408  0.2648  0.0658
28267W        W71361   5.323  21.814  18.318 -0.0721 -0.0884 -0.0835
28268W        W71362   4.318  21.417  17.411 -0.2391  0.1073 -0.3526
28269W        W71363   2.595  20.578  17.693 -0.1547 -0.0495  0.0611
28270W        W71364   4.415  22.300  18.835  0.1193  0.1345  0.0054
28271W        W71365   4.701  19.655  17.985 -0.0400 -0.1539  0.0624
28272W        W71366   3.112  19.554  19.774 -0.2095 -0.0317 -0.0392
28273W        W71367   5.774  20.270  20.880  0.0578 -0.1240 -0.0560
28274W        W71368   3.174  19.056  16.336 -0.1482 -0.0952 -0.1084
28275W        W71369   4.260  20.489  21.000  0.0834 -0.2828  0.0232
28276W        W71370   6.506  18.454  17.788  0.1304 -0.1374  0.1309
28277W        W71371   6.105  20.399  16.331 -0.1827 -0.1999  0.0486
28278W        W71372   4.247  20.187  19.456  0.1289 -0.0491  0.1034
28279W        W71373   7.085  21.618  17.538  0.1469  0.1075  0.1619
28280W        W71374   6.989  18.778  17.065  0.2484 -0.1098  0.1759
28281W        W71375   5.105  19.298  17.917 -0.1014  0.2247 -0.1484
28282W        W71376   4.038  20.325  19.046 -0.0111 -0.1497  0.1759
28283W        W71377   5.540  21.113  17.735  0.0893 -0.1575 -0.1109
28284W        W71378   6.291  20.478  17.186  0.1000 -0.0427  0.2152
28285W        W71379   4.958  18.779  16.826  0.1281  0.1467 -0.0701
28286W        W71380   6.865  21.269  17.222 -0.0112 -0.0569 -0.2431
28287W        W71381   2.634  20.856  18.939 -0.1328  0.0316  0.0464
28288W        W71382   6.285  19.932  19.445 -0.0144 -0.1284  0.0643
28289W        W71383   4.885  20.662  16.967  0.4211 -0.1587 -0.1680
28290W        W71384   5.378  20.459  18.726  0.0097  0.0600  0.3564
28291W        W71385   3.072  20.828  16.898 -0.2633 -0.0201  0.0176
28292W        W71386   5.480  18.310  18.001  0.0862 -0.1845  0.0848
28293W        W71387   3.553  21.512  16.421 -0.1998 -0.3301 -0.1340
28294W        W71388   6.624  19.102  17.009 -0.2358  0.1612 -0.1590
28295W        W71389   6.962  19.582  17.975  0.0140  0.0330 -0.2969
28296W        W71390   3.353  18.978  21.249 -0.0742  0.3978 -0.0769
28297W        W71391   6.979  20.597  19.018  0.3732 -0.1732 -0.0918
28298W        W71392   6.130  20.726  16.745 -0.1365 -0.0968  0.1872
28299W        W71393   6.758  20.715  18.537 -0.2506 -0.3547 -0.0428
28300W        W71394   2.703  19.834  16.318 -0.1658  0.2833  0.0234
28301W        W71395   5.958  19.525  18.835 -0.0510 -0.4115 -0.0958
28302W        W71396   5.396  19.509  18.656 -0.0352 -0.3542 -0.0130
28303W        W71397   3.581  21.839  19.291  0.0068  0.1019  0.4759
28304W        W71398   4.020  19.849  19.104 -0.0212  0.1517  0.2520
28305W        W71399   5.563  20.702  18.074  0.2976 -0.2071 -0.0328
28306W        W71400   5.248  19.878  19.495 -0.1251 -0.0898 -0.1006
28307W        W71401   5.531  19.257  18.227  0.2466  0.1192 -0.0573
28308W        W71402   3.657  22.266  17.456 -0.1513  0.1985 -0.0862
28309W        W71403   5.592  20.671  16.744 -0.3581 -0.3383  0.0705
28310W        W71404   5.529  18.638  18.867 -0.5261 -0.0939 -0.4155
28311W        W71405   6.599  22.193  17.620 -0.0475  0.0435 -0.0349
28312W        W71406   5.238  19.901  16.296 -0.1463  0.1241 -0.2593
28313W        W71407   5.526  21.149  19.485  0.0453 -0.0205  0.1550
28314W        W71408   3.647  21.621  17.918 -0.2850 -0.0968  0.1938
28315W        W71409   6.568  18.621  19.809  0.2541 -0.0547 -0.0682
28316W        W71410   3.711  20.843  18.406  0.1724 -0.0210  0.3982
28317W        W71411   4.849  19.669  17.172 -0.2792 -0.0649  0.1929
28318W        W71412   2.407  20.959  18.217  0.2158  0.0406  0.4003
28319W        W71413   5.817  20.111  18.166 -0.0149 -0.1976 -0.0777
28320W        W71414   7.197  20.789  16.544 -0.0780  0.0427  0.3230
28321W        W71415   4.237  19.494  18.203  0.0527 -0.3284  0.1111
28322W        W71416   6.312  18.205  18.784  0.1043  0.1210  0.2010
28323W        W71417   2.244  21.245  17.355  0.2055 -0.1282  0.0578
28324W        W71418   6.677  19.926  18.216 -0.0796 -0.0425 -0.0785
28325W        W71419   7.374  20.404  17.060 -0.1638  0.0513  0.0748
28326W        W71420   6.689  20.988  18.947  0.0231  0.0319  0.1525
28327W        W71421   5.233  21.484  19.205  0.1639 -0.1090 -0.0521
28328W        W71422   2.113  18.276  18.972  0.3574  0.0627 -0.2267
28329W        W71423   6.042  20.704  17.643 -0.1544 -0.1321 -0.3373
28330W        W71424   4.928  20.760  17.715  0.0882 -0.0538 -0.2195
28331W        W71425   2.582  21.465  18.019 -0.0546  0.1231 -0.1412
28332W        W71426   4.760  20.733  19.128 -0.0315 -0.1746 -0.0464
28333W        W71427   4.200  19.987  16.232  0.2015 -0.1089  0.0313
28334W        W71428   4.389  20.460  17.592 -0.1090  0.0539 -0.3080
28335W        W71429   4.560  19.507  19.481 -0.1011 -0.1892  0.2179
28336W        W71430   6.926  21.125  19.456 -0.1342 -0.3305  0.0863
28337W        W71431   4.454  19.451  20.009  0.1683 -0.0782  0.2726
28338W        W71432   4.054  19.177  17.357  0.0346  0.2592  0.2740
28339W        W71433   5.622  19.688  19.163  0.0368  0.1437  0.0343
28340W        W71434   6.146  21.406  19.007 -0.0419  0.2794  0.0692
28341W        W71435   6.029  21.043  19.377  0.1135  0.0865 -0.0064
28342W        W71436   3.234  20.945  19.618  0.2331  0.3749 -0.3419
28343W        W71437   5.047  19.566  19.138 -0.0995 -0.0420  0.2920
28344W        W71438   7.111  22.713  17.062  0.2234 -0.0117  0.0582
28345W        W71439   4.930  21.494  18.720 -0.0853 -0.1185  0.4001
28346W        W71440   4.671  18.897  16.444  0.1761  0.0331 -0.0353
28347W        W71441   3.765  19.721  17.900  0.0264  0.1970 -0.1798
28348W        W71442   5.804  19.647  17.303  0.2351  0.0572  0.1508
28349W        W71443   4.715  19.978  19.373 -0.2664 -0.0421  0.3297
28350W        W71444   3.578  20.305  19.212  0.0442  0.1233  0.0421
28351W        W71445   4.801  21.256  17.582  0.1999  0.1067  0.2602
28352W        W71446   5.145  21.601  17.365 -0.0664 -0.0999  0.2168
28353W        W71447   7.209  19.225  17.009 -0.5043 -0.3789 -0.1766
28354W        W71448   5.810  20.763  15.923 -0.1730 -0.0917 -0.0470
28355W        W71449   4.610  19.176  18.232 -0.1992  0.2117  0.2389
28356W        W71450   6.786  18.784  19.419 -0.0545 -0.2573 -0.0288
28357W        W71451   5.741  20.216  17.257  0.0238  0.0940 -0.2369
28358W        W71452   6.479  19.276  19.700 -0.1529 -0.3438 -0.1027
28359W        W71453   5.229  18.777  19.393 -0.0699 -0.1923  0.1290
28360W        W71454   6.378  21.197  17.667  0.1847  0.1007  0.1451
28361W        W71455   4.060  19.602  19.703 -0.4002  0.3918  0.0705
28362W        W71456   7.257  22.993  19.230  0.2135 -0.1831  0.2147
28363W        W71457   5.185  20.245  19.158  0.0118 -0.1180 -0.0838
28364W        W71458   6.546  19.859  18.997  0.2368 -0.0451 -0.0266
28365W        W71459   3.828  19.624  17.394  0.0997  0.4060 -0.0509
28366W        W71460   5.075  19.721  17.657  0.0550  0.1635 -0.0137
28367W        W71461   6.144  19.728  17.831  0.1562 -0.0620  0.3884
28368W        W71462   5.443  19.446  16.205  0.2227 -0.0511 -0.0476
28369W        W71463   6.788  20.202  18.688 -0.3242  0.0888  0.2942
28370W        W71464   3.293  19.669  18.869 -0.0066 -0.2325  0.1337
28371W        W71465   6.438  20.983  17.017 -0.2894  0.0818 -0.0870
28372W        W71466   5.083  19.226  17.025  0.0666 -0.1439  0.4021
28373W        W71467   4.865  21.205  19.254  0.1666  0.0564 -0.1579
28374W        W71468   4.663  16.540  19.491 -0.3812  0.1778 -0.3995
28375W        W71469   6.675  20.762  16.571 -0.1937 -0.0248 -0.1233
28376W        W71470   5.261  18.799  18.025  0.0949  0.1895  0.1264
28377W        W71471   5.380  19.417  19.504  0.1345 -0.0179 -0.1065
28378W        W71472   7.540  18.741  19.088  0.1641 -0.0347 -0.2867
28379W        W71473   4.519  19.604  18.972 -0.0305  0.0503 -0.0365
28380W        W71474   3.130  17.577  20.090 -0.2326  0.1309 -0.2570
28381W        W71475   6.600  22.511  20.458 -0.1376  0.2841 -0.3777
28382W        W71476   6.335  19.091  16.628  0.2023  0.0272 -0.2737
28383W        W71477   6.920  18.255  18.277  0.1471  0.1675 -0.1185
28384W        W71478   6.721  21.738  17.899  0.3011 -0.5529 -0.1082
28385W        W71479   6.506  19.526  18.590  0.3821 -0.2444 -0.2474
28386W        W71480   4.190  18.727  20.238 -0.0210 -0.0232  0.0441
28387W        W71481   6.380  20.029  20.251 -0.0887 -0.1361  0.0096
28388W        W71482   4.861  19.462  16.063  0.0881  0.2737  0.0008
28389W        W71483   4.089  18.940  19.508 -0.4210  0.1428 -0.0167
28390W        W71484   5.218  21.721  16.404 -0.2753 -0.0920  0.1501
28391W        W71485   6.141  19.979  17.108 -0.3088  0.0213  0.0243
28392W        W71486   6.381  20.433  18.659  0.1033  0.0006 -0.1032
28393W        W71487   4.461  18.293  17.633  0.1500 -0.0876 -0.0267
28394W        W71488   4.539  23.524  19.623 -0.4694  0.0191  0.1486
28395W        W71489   3.396  18.459  16.639  0.2027 -0.0543 -0.1380
28396W        W71490   3.101  20.008  16.608  0.1193  0.1993  0.1355
28397W        W71491   6.225  21.038  18.588 -0.0825  0.0829  0.0149
28398W        W71492   6.420  21.249  20.233  0.1771 -0.3578  0.0243
28399W        W71493   5.546  17.731  18.409 -0.0508 -0.0561  0.0226
28400W        W71494   7.106  20.113  17.999 -0.1937  0.2772 -0.0245
28401W        W71495   3.496  20.613  17.316 -0.2463 -0.2106 -0.2189
28402W        W71496   3.295  18.448  17.167  0.0937  0.4788  0.0802
28403W        W71497   4.188  20.625  18.065 -0.1186  0.0772  0.1912
28404W        W71498   3.476  18.775  20.638 -0.2339 -0.0653 -0.0039
28405W        W71499   4.724  22.358  17.383 -0.1528 -0.1081  0.1790
28406W        W71500   6.537  20.342  19.745  0.1866 -0.1066  0.2501
28407W        W71501   7.109  19.966  17.537  0.2587  0.1768 -0.0214
28408W        W71502   4.966  20.116  17.988 -0.1853 -0.1782 -0.1441
28409W        W71503   7.829  20.371  18.371 -0.1264 -0.2047  0.1050
28410W        W71504   4.433  21.478  18.434  0.0700 -0.1389  0.0411
28411W        W71505   3.388  19.661  17.580  0.4191 -0.2016 -0.0910
28412W        W71506   6.800  21.697  19.603  0.2076 -0.1070  0.2291
28413W        W71507   7.201  19.938  17.016 -0.0152  0.0520  0.2691
28414W        W71508   4.142  20.037  17.302 -0.1137 -0.0197  0.4360
28415W        W71509   2.715  18.516  18.726  0.0367 -0.1161  0.1673
28416W        W71510   4.206  21.009  19.889  0.0957  0.0164  0.0601
28417W        W71511   5.967  21.433  17.716  0.1484 -0.0560  0.3261
28418W        W71512   3.990  20.228  16.745 -0.1215 -0.3178 -0.0485
28419W        W71513   6.360  21.058  16.338 -0.0076  0.2104  0.1724
28420W        W71514   4.050  21.662  20.775 -0.0606  0.0126  0.1192
28421W        W71515   3.851  20.056  18.221 -0.2271 -0.2022 -0.0155
28422W        W71516   4.089  22.412  17.600 -0.3460  0.0404  0.0569
28423W        W71517   7.397  21.360  17.246 -0.0304 -0.1320  0.4450
28424W        W71518   6.350  20.680  15.979  0.2053 -0.1169  0.1195
28425W        W71519   6.487  20.875  18.075  0.2664 -0.0560  0.0687
28426W        W71520   6.210  18.735  16.303  0.0305  0.0289  0.0006
28427W        W71521   4.399  21.195  19.378 -0.1621  0.0212 -0.0829
28428W        W71522   4.294  21.062  16.267 -0.2590  0.3540  0.1307
28429W        W71523   5.287  20.416  17.083 -0.1096 -0.2380 -0.1186
28430W        W71524   3.240  20.930  18.467 -0.0115 -0.0834 -0.2664
28431W        W71525   6.874  20.097  20.325 -0.1786 -0.3582  0.1087
28432W        W71526   7.252  16.949  16.967  0.1797 -0.0615 -0.0937
28433W        W71527   7.025  20.464  17.498  0.0206  0.1094  0.2656
28434W        W71528   6.426  19.453  17.349 -0.0334  0.2535  0.1867
28435W        W71529   4.201  21.786  20.278 -0.0987  0.1827 -0.0934
28436W        W71530   6.062  20.436  19.463  0.2050 -0.0163  0.1810
28437W        W71531   4.550  18.493  16.780  0.4796  0.3069 -0.1394
28438W        W71532   4.501  21.528  21.027 -0.0002  0.4052 -0.3112
28439W        W71533   7.236  18.241  20.421 -0.3327 -0.2447  0.0979
28440W        W71534   2.593  21.425  19.774  0.3188  0.2993  0.1507
28441W        W71535   7.531  22.908  17.313 -0.2726 -0.0412  0.0390
28442W        W71536   3.450  21.028  18.006 -0.2063  0.1360 -0.0881
28443W        W71537   4.804  19.294  17.515  0.1145 -0.1254  0.1437
28444W        W71538   6.680  14.781  19.014 -0.1186 -0.1009  0.0173
28445W        W71539   5.992  19.327  15.914 -0.1554 -0.0934  0.0540
28446W        W71540   4.190  19.968  18.646 -0.1684  0.0913 -0.1187
28447W        W71541   4.563  21.194  18.026 -0.0136 -0.0388  0.0886
28448W        W71542   5.379  20.170  18.297 -0.0381 -0.0335 -0.3434
28449W        W71543   4.332  22.468  18.293 -0.1207 -0.0407 -0.2626
28450W        W71544   2.539  19.514  15.940 -0.1959 -0.4337 -0.0007
28451W        W71545   7.874  20.404  17.033 -0.4691 -0.1769 -0.0002
28452W        W71546   3.831  20.044  19.630  0.2660 -0.1090 -0.4827
28453W        W71547   6.145  18.603  20.545  0.0022  0.0286  0.0253
28454W        W71548   4.356  19.584  17.313  0.1342 -0.0961  0.2160
28455W        W71549   6.903  20.423  16.943 -0.1037 -0.1354 -0.2936
28456W        W71550   3.684  19.345  18.937 -0.2175  0.1615  0.0310
28457W        W71551   3.585  20.836  19.240 -0.5310  0.0334  0.2205
28458W        W71552   6.212  18.259  17.192  0.1237 -0.1741 -0.0454
28459W        W71553   6.961  19.335  17.551  0.0704  0.3310  0.0728
28460W        W71554   5.734  19.749  16.760 -0.1628 -0.0299 -0.0096
28461W        W71555   5.522  21.595  18.805 -0.0998 -0.5384 -0.0915
28462W        W71556   3.569  19.308  17.062  0.2951  0.0008  0.2544
28463W        W71557   6.509  19.344  18.081  0.0410  0.0003 -0.0276
28464W        W71558   3.116  21.722  19.132 -0.1931 -0.2072 -0.0663
28465W        W71559   5.164  20.661  19.418  0.1694  0.2335  0.2537
28466W        W71560   5.893  20.423  18.629  0.2147  0.1687  0.1680
28467W        W71561   4.078  19.376  16.848 -0.3183  0.0282 -0.3477
28468W        W71562   6.420  20.337  16.741  0.1715 -0.0386  0.0469
28469W        W71563   6.620  20.015  17.181  0.1927 -0.0405  0.3235
28470W        W71564   5.426  21.168  16.907 -0.1063 -0.2542  0.0385
28471W        W71565   5.576  21.368  18.242  0.0792  0.0381  0.1323
28472W        W71566   6.124  22.293  18.606 -0.0084  0.2002 -0.3562
28473W        W71567   3.795  19.033  18.435  0.0908 -0.1987  0.1753
28474W        W71568   6.539  21.507  18.690  0.4433  0.1881  0.1183
28475W        W71569   7.166  21.977  18.559  0.1436  0.1454 -0.1821
28476W        W71570   6.196  18.920  17.215  0.3323  0.0332  0.0364
28477W        W71571   4.169  18.485  17.131 -0.0518 -0.0635  0.0444
28478W        W71572   4.368  20.850  17.133  0.0882  0.2473 -0.1056
28479W        W71573   7.278  19.198  17.999  0.1724 -0.0719  0.1428
28480W        W71574   7.240  18.581  19.563 -0.1338  0.2351  0.2329
28481W        W71575   4.576  20.984  16.715 -0.0399 -0.0497  0.4325
28482W        W71576   7.244  19.254  20.344 -0.0472 -0.2527 -0.0151
28483W        W71577   7.537  21.612  18.867 -0.1469  0.2358  0.0165
28484W        W71578   2.948  22.604  18.507  0.2105 -0.0506  0.2226
28485W        W71579   3.816  20.707  17.723  0.3514  0.3066 -0.0734
28486W        W71580   4.255  20.712  19.254 -0.0439  0.1369 -0.1504
28487W        W71581   5.726  19.991  16.314 -0.1720 -0.2715 -0.3200
28488W        W71582   4.762  21.359  16.224 -0.1672 -0.1587  0.0872
28489W        W71583   6.385  21.440  18.103 -0.2717  0.1159  0.6050
28490W        W71584   5.313  19.251  17.503 -0.2144 -0.2587  0.0284
28491W        W71585   7.731  21.326  19.238  0.1720 -0.1902  0.1661
28492W        W71586   4.863  20.315  19.651 -0.0784  0.0824 -0.1554
28493W        W71587   6.918  19.300  18.424 -0.3983 -0.2666 -0.0654
28494W        W71588   7.312  17.777  17.411 -0.4620 -0.1913 -0.1395
28495W        W71589   3.198  19.239  19.196  0.1493  0.0025 -0.1770
28496W        W71590   3.133  20.324  17.026 -0.1427 -0.2051 -0.1962
28497W        W71591   2.628  20.348  17.212  0.1371  0.0887  0.0591
28498W        W71592   4.306  20.968  17.600 -0.0197  0.0185 -0.1823
28499W        W71593   5.050  17.863  20.059 -0.0714  0.3479  0.0568
28500W        W71594   4.031  18.526  18.599 -0.2846 -0.2312  0.0760
28501W        W71595   3.105  19.352  16.905 -0.0147  0.2347  0.0936
28502W        W71596   4.527  18.957  17.323 -0.0468  0.1011  0.0232
28503W        W71597   7.247  21.271  16.698  0.1950  0.1283 -0.1883
28504W        W71598   5.018  19.433  18.364  0.3112  0.2539  0.0881
28505W        W71599   2.236  17.872  16.754  0.3051 -0.2630  0.2956
28506W        W71600   5.248  21.693  16.904  0.2994  0.3309  0.0674
28507W        W71601   7.783  22.148  17.825 -0.1004 -0.1313 -0.2999
28508W        W71602   4.571  20.200  18.876  0.1239 -0.2162 -0.1204
28509W        W71603   5.932  22.502  19.034  0.0516 -0.1235 -0.0518
28510W        W71604   3.807  20.948  16.332  0.4364 -0.2713  0.0210
28511W        W71605   4.919  21.250  21.107 -0.0419  0.1110  0.1023
28512W        W71606   4.511  18.599  19.512 -0.1199 -0.1177 -0.1139
28513W        W71607   3.275  18.920  15.897 -0.2759 -0.1872  0.1005
28514W        W71608   5.583  17.684  19.121  0.1538  0.1200  0.2072
28515W        W71609   3.955  20.162  17.722 -0.0575 -0.5297 -0.1974
28516W        W71610   6.008  21.267  16.764  0.0248  0.2614 -0.0486
28517W        W71611   4.445  20.693  18.722 -0.0952 -0.0184 -0.1979
28518W        W71612   4.865  21.936  19.154 -0.0075  0.1719  0.2075
28519W        W71613   2.519  18.425  17.579 -0.0154 -0.2080  0.2096
28520W        W71614   7.260  19.609  16.180 -0.0257 -0.4418 -0.2260
28521W        W71615   5.979  21.505  18.505 -0.1102  0.2174 -0.0164
28522W        W71616   9.110  21.287  15.622  0.0453  0.0084  0.4319
28523W        W71617   7.531  18.742  16.931  0.1588  0.1602  0.2134
28524W        W71618   5.513  20.063  17.663  0.0198 -0.1067  0.2838
28525W        W71619   3.410  17.827  18.810  0.2595 -0.0345  0.1866
28526W        W71620   4.888  20.222  18.495  0.0480  0.0524 -0.4511
28527W        W71621   8.328  21.069  18.424 -0.1307 -0.0192 -0.0104
28528W        W71622   4.733  19.157  18.727 -0.1020 -0.0825 -0.1178
28529W        W71623   5.041  18.829  17.327  0.0211 -0.5275  0.2802
28530W        W71624   5.845  20.819  17.175  0.0906 -0.0877  0.1740
28531W        W71625   4.684  20.054  17.459  0.2102 -0.0248  0.2137
28532W        W71626   4.293  18.896  16.864  0.0552 -0.3153  0.0996
28533W        W71627   4.679  20.879  19.668  0.1351  0.1090 -0.2946
28534W        W71628   5.856  19.669  18.305  0.2726  0.2290  0.1812
28535W        W71629   6.995  19.590  18.863  0.0795 -0.0075  0.1138
28536W        W71630   5.726  18.419  17.073 -0.0387 -0.0789  0.3533
28537W        W71631   7.783  20.271  15.882  0.4472 -0.5206  0.1171
28538W        W71632   6.408  21.557  16.947 -0.0634  0.2888  0.0806
28539W        W71633   6.300  21.896  18.367 -0.1653  0.1141  0.3625
28540W        W71634   6.185  21.699  19.529  0.0584 -0.0676 -0.1974
28541W        W71635   5.710  21.582  19.321 -0.3171 -0.2338 -0.1004
28542W        W71636   3.778  18.654  18.097  0.3256 -0.0124 -0.0692
28543W        W71637   5.523  20.564  17.533  0.2611  0.2335  0.0444
28544W        W71638   4.889  21.572  18.166  0.2810  0.0657  0.2667
28545W        W71639   6.869  19.571  17.088 -0.0341 -0.1736 -0.0768
28546W        W71640   3.387  18.891  17.925 -0.0437  0.0758 -0.0149
28547W        W71641   5.849  17.935  17.267 -0.1610 -0.3282 -0.2862
28548W        W71642   4.078  21.733  19.291 -0.1653 -0.3105 -0.1143
28549W        W71643   6.185  20.773  18.981 -0.5955  0.1143  0.2236
28550W        W71644   4.654  20.870  22.816 -0.0323 -0.3434 -0.2076
28551W        W71645   4.026  18.560  22.675 -0.2275  0.0245 -0.3181
28552W        W71646   6.265  18.910  20.062 -0.0586 -0.2001  0.2079
28553W        W71647   5.526  20.933  21.297 -0.0228  0.3151 -0.0097
28554W        W71648   5.263  19.472  21.305 -0.1954  0.1175  0.0459
28555W        W71649   5.996  21.955  20.769  0.0157  0.2007  0.0841
28556W        W71650   4.320  18.759  20.937 -0.2144  0.1897 -0.1452
28557W        W71651   5.766  22.054  22.134 -0.0782  0.1538 -0.1693
28558W        W71652   8.003  21.444  21.171  0.2303  0.2174  0.0683
28559W        W71653   4.615  20.715  20.163  0.1849  0.0947 -0.1742
28560W        W71654   5.282  18.531  22.497  0.3545  0.0742  0.0607
28561W        W71655   4.654  19.599  21.762 -0.0681  0.1978 -0.3135
28562W        W71656   4.740  19.580  20.351 -0.1170 -0.2545  0.1790
28563W        W71657   3.875  19.780  21.567  0.0868  0.2458  0.0886
28564W        W71658   6.720  20.696  20.829 -0.2339 -0.0639  0.0005
28565W        W71659   2.839  20.335  21.075 -0.0340  0.0275 -0.1076
28566W        W71660   4.567  18.039  21.943 -0.0706  0.0887 -0.1316
28567W        W71661   4.163  19.437  21.717 -0.3068  0.1537 -0.2311
28568W        W71662   5.498  21.381  21.967 -0.0261 -0.2134 -0.0289
28569W        W71663   5.219  19.330  22.941  0.0184  0.3948 -0.1771
28570W        W71664   5.705  18.059  23.113  0.2039  0.0520 -0.3542
28571W        W71665   5.090  22.376  18.532 -0.4590  0.4958  0.1916
28572W        W71666   3.226  18.981  19.658  0.0877 -0.2891 -0.0400
28573W        W71667   4.236  19.848  21.955 -0.1112 -0.1582 -0.0837
28574W        W71668   4.296  19.408  22.695 -0.2776  0.2136 -0.2002
28575W        W71669   4.879  20.179  21.553 -0.1025  0.0068 -0.0440
28576W        W71670   5.603  19.960  22.128 -0.2035  0.0386  0.1224
28577W        W71671   4.766  22.797  22.055  0.0326  0.0324  0.0506
28578W        W71672   4.928  19.441  22.242 -0.0648 -0.1641  0.1062
28579W        W71673   8.042  19.079  23.620  0.0848  0.1254 -0.1428
28580W        W71674   2.624  21.264  20.664 -0.1796  0.0125 -0.2103
28581W        W71675   4.895  22.037  21.734 -0.0336 -0.1151 -0.2601
28582W        W71676   5.026  21.525  21.927  0.0147  0.0067  0.0908
28583W        W71677   6.396  20.879  22.024  0.0324 -0.0299 -0.4977
28584W        W71678   5.122  19.781  23.175  0.3328  0.1104  0.0953
28585W        W71679   4.616  22.129  24.522 -0.0644  0.4243  0.0046
28586W        W71680   4.590  22.413  21.585  0.0833 -0.1059  0.2283
28587W        W71681   6.037  21.169  22.159 -0.3408 -0.1191  0.3192
28588W        W71682   4.259  22.715  22.724 -0.0204 -0.0273 -0.2510
28589W        W71683   5.116  19.957  23.859 -0.1810 -0.1074  0.1554
28590W        W71684   5.008  20.460  20.348  0.1225  0.1110 -0.0862
28591W        W71685   2.695  22.632  19.382  0.1583  0.0935  0.0625
28592W        W71686   6.152  20.998  21.119  0.3713  0.0097  0.0991
28593W        W71687   4.019  20.758  23.130  0.0755  0.0978 -0.1436
28594W        W71688   2.793  20.169  21.582  0.0187  0.1409  0.1246
28595W        W71689   6.866  19.045  22.937  0.3059 -0.0419  0.2309
28596W        W71690   4.513  21.884  20.684 -0.1285  0.2351 -0.2459
28597W        W71691   7.523  20.260  20.725  0.1579 -0.1283 -0.0905
28598W        W71692   5.111  19.909  18.788 -0.0118  0.0386 -0.1341
28599W        W71693   5.852  19.281  19.846  0.1476 -0.0879 -0.1304
28600W        W71694   4.541  17.829  24.555  0.1478  0.1355  0.1173
28601W        W71695   5.616  22.502  23.119 -0.0426 -0.3913 -0.1926
28602W        W71696   4.235  18.558  21.442 -0.1628  0.0865  0.1409
28603W        W71697   6.378  22.301  23.391  0.0273  0.4119  0.3275
28604W        W71698   3.968  19.151  19.996  0.1640  0.1474  0.1301
28605W        W71699   7.082  19.522  20.869 -0.0914  0.2513  0.1302
28606W        W71700   4.383  21.547  22.028  0.0518 -0.2869  0.6448
28607W        W71701   2.622  21.196  22.613 -0.1886 -0.0625  0.0382
28608W        W71702   5.924  21.872  18.973  0.1656  0.2028 -0.0650
28609W        W71703   6.104  22.383  20.602 -0.0423 -0.2906  0.1807
28610W        W71704   4.664  22.761  19.768 -0.2788  0.1130 -0.0991
28611W        W71705   2.952  19.253  21.080  0.1039 -0.1509  0.0833
28612W        W71706   3.170  20.744  23.560 -0.0609  0.0160 -0.1119
28613W        W71707   3.971  19.075  22.891  0.1951  0.4898 -0.0226
28614W        W71708   5.129  17.336  20.269 -0.1033  0.2010 -0.1415
28615W        W71709   6.099  20.530  22.940 -0.0517  0.0768 -0.1155
28616W        W71710   3.815  21.069  23.876 -0.3083 -0.1968  0.0396
28617W        W71711   7.202  19.044  19.876 -0.3110  0.5732  0.3071
28618W        W71712   5.522  20.035  23.526  0.0886  0.1702  0.3835
28619W        W71713   6.681  20.548  22.953 -0.0842 -0.3838  0.0316
28620W        W71714   5.554  21.742  19.920 -0.3529  0.0077 -0.0274
28621W        W71715   7.274  18.233  21.052 -0.0997 -0.1664 -0.1529
28622W        W71716   5.883  19.005  22.471 -0.0763 -0.0440 -0.1403
28623W        W71717   3.426  20.666  20.496  0.5094  0.2169 -0.0240
28624W        W71718   6.232  20.733  19.881 -0.1840 -0.1657 -0.0847
28625W        W71719   7.082  20.350  21.750  0.1830 -0.0513 -0.1678
28626W        W71720   7.733  21.087  20.173 -0.0866 -0.2611  0.0153
28627W        W71721   3.754  22.553  21.973 -0.0807  0.2507  0.4203
28628W        W71722   3.385  19.519  23.634 -0.0174  0.0779 -0.1545
28629W        W71723   6.132  22.659  25.685  0.0309 -0.0243 -0.2207
28630W        W71724   3.628  21.875  20.557 -0.0639 -0.0714  0.1431
28631W        W71725   2.791  20.245  22.136 -0.1531  0.0799  0.2646
28632W        W71726   3.429  21.524  21.891  0.2790  0.3474 -0.0217
28633W        W71727   3.690  19.084  24.447 -0.2017 -0.1484 -0.3306
28634W        W71728   4.787  19.197  22.620  0.0472 -0.3190 -0.2804
28635W        W71729   7.802  19.819  20.597  0.0085  0.2370 -0.0810
28636W        W71730   4.297  19.094  23.583  0.1615 -0.0229  0.0493
28637W        W71731   5.048  18.805  20.847 -0.1105 -0.1178  0.3347
28638W        W71732   4.312  19.731  21.349 -0.1181  0.0757 -0.0629
28639W        W71733   5.330  21.870  22.371  0.3403  0.1993 -0.1654
28640W        W71734   5.938  20.859  20.256  0.0346 -0.1076  0.1699
28641W        W71735   5.907  21.416  21.378 -0.0230  0.0783  0.2669
28642W        W71736   4.685  20.066  21.976  0.0597  0.2514 -0.0527
28643W        W71737   4.445  19.347  22.129 -0.1819  0.0048 -0.2170
28644W        W71738   4.437  18.802  22.996  0.0510 -0.1000 -0.6387
28645W        W71739   3.063  18.574  21.741  0.0532  0.0739  0.4638
28646W        W71740   6.686  19.291  23.411 -0.1696  0.1815  0.1439
28647W        W71741   3.802  19.125  21.473 -0.1074 -0.2826 -0.3949
28648W        W71742   4.193  19.394  20.900  0.1951 -0.1344  0.1745
28649W        W71743   4.630  18.134  20.332 -0.1836  0.2543  0.3538
28650W        W71744   3.473  20.064  20.168  0.1533  0.0364 -0.2202
28651W        W71745   7.769  19.555  22.814 -0.1458 -0.4810  0.2356
28652W        W71746   4.213  22.761  21.598  0.0124 -0.0839  0.1675
28653W        W71747   8.092  22.059  21.947 -0.1303  0.1248  0.2477
28654W        W71748   6.474  22.990  20.496  0.0622 -0.2701  0.0077
28655W        W71749   3.993  19.537  22.341 -0.1060 -0.1990 -0.0372
28656W        W71750   4.904  18.538  21.502 -0.1608 -0.0905  0.2067
28657W        W71751   4.629  23.074  22.790  0.1195 -0.0127 -0.2448
28658W        W71752   3.690  19.530  21.155 -0.2626 -0.1540 -0.0107
28659W        W71753   5.699  18.702  20.709 -0.0367  0.3425 -0.2013
28660W        W71754   7.654  21.964  22.254 -0.2186  0.0323  0.0611
28661W        W71755   5.456  21.805  20.704 -0.0418  0.5014 -0.1152
28662W        W71756   3.322  20.693  23.068 -0.0623 -0.3159  0.1535
28663W        W71757   6.514  18.770  23.195  0.2993 -0.0129  0.0010
28664W        W71758   4.716  21.251  19.990  0.1207 -0.1400  0.2119
28665W        W71759   5.968  20.368  20.380  0.0203 -0.2384 -0.3978
28666W        W71760   4.003  19.991  20.124  0.1731  0.0115 -0.4273
28667W        W71761   6.263  20.875  20.677 -0.0702 -0.0242 -0.0672
28668W        W71762   4.234  22.505  20.040  0.1651  0.1567  0.4645
28669W        W71763   3.151  18.471  21.028  0.3131 -0.0672  0.0142
28670W        W71764   4.082  22.250  21.754  0.1881 -0.1846  0.0266
28671W        W71765   6.779  19.989  22.911  0.0748 -0.2593  0.0651
28672W        W71766   4.097  20.336  24.513 -0.2686 -0.2980  0.1215
28673W        W71767   5.006  18.648  24.666 -0.0712 -0.2193 -0.0154
28674W        W71768   3.780  19.224  20.462 -0.0384 -0.0285  0.0604
28675W        W71769   3.331  21.091  23.951 -0.1911 -0.3489  0.0539
28676W        W71770   4.633  19.138  20.899  0.0617  0.2574 -0.0757
28677W        W71771   5.370  20.276  19.780  0.0666 -0.1832 -0.2408
28678W        W71772   6.882  20.824  21.911 -0.2896 -0.3184 -0.0251
28679W        W71773   4.911  20.607  21.858 -0.1905 -0.4215  0.1678
28680W        W71774   3.913  20.907  20.368 -0.0009  0.3340  0.1726
28681W        W71775   4.967  19.961  19.986  0.0966  0.0456 -0.3349
28682W        W71776   2.264  18.741  22.950 -0.1374 -0.4372  0.1376
28683W        W71777   4.758  22.705  22.524 -0.1818 -0.2479 -0.0416
28684W        W71778   5.725  20.160  23.040 -0.1939 -0.3910 -0.0123
28685W        W71779   3.668  18.126  20.902 -0.3974 -0.0929  0.4616
28686W        W71780   7.212  21.487  21.378  0.1036  0.0333  0.2857
28687W        W71781   2.790  20.645  21.877  0.0100 -0.0729  0.0996
28688W        W71782   5.057  19.244  24.801 -0.0025 -0.1812  0.0540
28689W        W71783   5.861  21.682  21.785 -0.1748 -0.1014 -0.2159
28690W        W71784   4.647  19.215  23.111  0.1693 -0.1082  0.3637
28691W        W71785   3.421  21.145  20.147 -0.1142 -0.0265  0.1430
28692W        W71786   6.503  19.073  21.202 -0.2133  0.1215  0.3910
28693W        W71787   2.782  21.750  19.431 -0.0593  0.2248 -0.1736
28694W        W71788   7.866  18.836  21.279 -0.1244 -0.0804  0.1861
28695W        W71789   5.800  20.420  21.425 -0.0335  0.1514  0.1319
28696W        W71790   6.757  18.101  21.706 -0.2318 -0.0758  0.0347
28697W        W71791   5.654  19.815  24.569  0.1802 -0.3175  0.0641
28698W        W71792   5.630  19.937  18.649  0.2074 -0.2560  0.0312
28699W        W71793   4.353  18.313  24.198 -0.2401  0.1935  0.0354
28700W        W71794   4.008  21.184  20.826 -0.0903 -0.2155  0.3201
28701W        W71795   6.206  19.290  22.747  0.2633 -0.1394  0.1996
28702W        W71796   5.053  20.946  21.536 -0.2723 -0.3078 -0.1086
28703W        W71797   3.688  21.702  22.410 -0.0896 -0.1394  0.1018
28704W        W71798   5.739  20.796  23.265 -0.1607  0.0387  0.0532
28705W        W71799   6.174  19.933  22.127 -0.3724  0.2369  0.0357
28706W        W71800   4.749  17.939  24.086  0.0214 -0.3484  0.0311
28707W        W71801   6.531  18.621  20.996  0.0575 -0.2329 -0.0468
28708W        W71802   4.830  23.628  21.352  0.0192 -0.0226 -0.1987
28709W        W71803   5.247  21.947  19.460 -0.1937  0.0432  0.2982
28710W        W71804   4.700  18.486  21.052 -0.0485  0.2624 -0.2674
28711W        W71805   5.393  19.897  22.744 -0.4156 -0.2125  0.1419
28712W        W71806   3.919  22.132  19.012  0.1019  0.0575  0.0083
28713W        W71807   4.853  19.729  22.736  0.1846 -0.3245  0.0061
28714W        W71808   3.960  19.947  21.045  0.1677  0.2031 -0.1116
28715W        W71809   7.006  19.196  21.254 -0.5076 -0.1762 -0.0537
28716W        W71810   4.848  23.241  22.320 -0.2028  0.1176  0.0035
28717W        W71811   4.157  19.561  20.403  0.0553 -0.0441  0.1470
28718W        W71812   3.276  20.172  20.687  0.1366 -0.2747 -0.1976
28719W        W71813   7.467  19.381  19.644 -0.1012  0.0647  0.0770
28720W        W71814   6.647  19.764  19.949  0.1841 -0.3027  0.2759
28721W        W71815   3.580  18.954  22.177 -0.0079  0.0863 -0.0073
28722W        W71816   4.804  17.651  21.547 -0.1462 -0.1208 -0.0487
28723W        W71817   4.286  21.761  22.423  0.0321 -0.2115 -0.0870
28724W        W71818   4.813  20.190  23.334 -0.0227  0.0265 -0.2041
28725W        W71819   6.777  19.819  19.473 -0.0242  0.2239 -0.0811
28726W        W71820   5.760  20.919  20.795  0.0081 -0.3057 -0.0720
28727W        W71821   5.146  20.883  22.905 -0.1066  0.0875  0.0453
28728W        W71822   3.271  18.486  19.653 -0.2665 -0.4222 -0.1608
28729W        W71823   6.557  20.405  21.679  0.0209 -0.4049 -0.3453
28730W        W71824   6.169  19.480  21.195  0.0940 -0.3283 -0.3694
28731W        W71825   3.436  20.853  22.134 -0.0382 -0.1542  0.1065
28732W        W71826   4.784  21.212  24.237 -0.0072  0.0551 -0.3551
28733W        W71827   4.492  18.975  19.835  0.5194  0.2169 -0.0133
28734W        W71828   5.294  22.277  21.934  0.2953  0.2910 -0.2007
28735W        W71829   3.815  18.379  25.004 -0.0412  0.0353 -0.0100
28736W        W71830   5.607  19.577  23.291  0.1496  0.1196  0.2100
28737W        W71831   5.352  21.172  20.603  0.1591 -0.2201  0.0645
28738W        W71832   3.308  19.227  20.132  0.1887 -0.1735  0.3560
28739W        W71833   6.255  20.526  21.083  0.3534  0.0437  0.0763
28740W        W71834   6.746  19.971  21.912  0.1709  0.1813 -0.2667
28741W        W71835   5.145  18.593  23.421 -0.0484 -0.0574 -0.4212
28742W        W71836   4.453  20.276  24.152  0.0640  0.3353  0.0467
28743W        W71837   7.383  18.481  22.394  0.0201 -0.0556 -0.0575
28744W        W71838   7.252  22.022  21.328  0.0443 -0.1204  0.3614
28745W        W71839   7.201  21.091  22.271  0.0712 -0.0469  0.2164
28746W        W71840   5.161  20.823  20.914  0.1928 -0.1064 -0.0408
28747W        W71841   4.221  20.209  21.568  0.1618  0.0808  0.1436
28748W        W71842   4.702  20.377  20.765 -0.0036  0.2310 -0.0992
28749W        W71843   5.449  19.551  22.343  0.0081 -0.0300  0.0227
28750W        W71844   4.539  20.758  22.261 -0.0739 -0.2424 -0.1068
28751W        W71845   5.583  20.806  21.886  0.1787 -0.1341 -0.2648
28752W        W71846   3.697  21.231  22.346  0.1847  0.0733 -0.1319
28753W        W71847   7.047  19.525  19.902  0.0671 -0.4814  0.0745
28754W        W71848   4.980  22.079  20.497  0.1075 -0.1022 -0.2891
28755W        W71849   6.123  17.340  21.718  0.1383  0.0114 -0.1806
28756W        W71850   8.053  20.228  20.533 -0.0691 -0.2115 -0.0650
28757W        W71851   5.223  20.489  21.348  0.0523 -0.1347  0.0734
28758W        W71852   5.170  19.606  24.462 -0.0299 -0.0210 -0.0624
28759W        W71853   4.584  18.942  23.974  0.0015  0.0354 -0.0305
28760W        W71854   6.508  20.876  21.496 -0.1466 -0.1135 -0.2013
28761W        W71855   4.290  20.301  22.168  0.3667 -0.1304 -0.1882
28762W        W71856   6.446  21.678  24.352 -0.1959 -0.1670 -0.0107
28763W        W71857   2.817  20.987  23.017  0.0250  0.0194  0.1617
28764W        W71858   4.988  19.935  20.583  0.0497 -0.0834 -0.1765
28765W        W71859   5.037  18.271  20.656 -0.1165  0.0437 -0.0768
28766W        W71860   6.156  19.713  23.697  0.2876 -0.0013  0.1712
28767W        W71861   6.714  20.428  22.146  0.1861  0.1715  0.1277
28768W        W71862   3.882  21.270  19.175 -0.0403 -0.0859 -0.2504
28769W        W71863   7.285  19.604  21.339 -0.2939  0.0664  0.1196
28770W        W71864   4.849  19.286  23.569 -0.2589 -0.2059  0.0614
28771W        W71865   5.965  20.940  21.609  0.0501  0.2904 -0.0782
28772W        W71866   5.668  22.622  21.434 -0.0562 -0.1225 -0.0479
28773W        W71867   4.528  20.124  21.209  0.0737 -0.1484  0.1358
28774W        W71868   3.881  19.725  22.839 -0.1840 -0.0682 -0.3315
28775W        W71869   7.285  21.765  21.812 -0.0890  0.0514  0.0141
28776W        W71870   4.595  19.679  20.904 -0.3100 -0.2207  0.1960
28777W        W71871   6.055  18.819  23.507  0.1601 -0.0675 -0.1900
28778W        W71872   7.118  20.883  22.849  0.3502 -0.1364  0.0526
28779W        W71873   5.100  18.089  23.388 -0.0730  0.0712  0.2673
28780W        W71874   5.100  18.930  23.815 -0.0665 -0.1355 -0.0320
28781W        W71875   8.084  22.049  22.981  0.3346 -0.2027 -0.1174
28782W        W71876   7.724  19.093  18.246 -0.3634  0.1576 -0.0950
28783W        W71877   6.351  20.142  23.006  0.2966 -0.0584 -0.0239
28784W        W71878   7.809  19.798  21.965 -0.4553 -0.1186  0.3742
28785W        W71879   5.466  20.088  20.396  0.2046 -0.1411  0.0298
28786W        W71880   5.767  19.311  21.425 -0.0779 -0.1328 -0.4751
28787W        W71881   6.172  21.974  25.286  0.2712 -0.1819  0.0087
28788W        W71882   3.793  20.704  20.849  0.0101 -0.1908  0.2806
28789W        W71883   5.846  18.956  24.245 -0.1970 -0.1141 -0.0144
28790W        W71884   5.170  22.899  18.445  0.1111 -0.1581 -0.2162
28791W        W71885   8.083  22.467  21.545  0.2283  0.1717  0.1589
28792W        W71886   5.712  19.163  19.227  0.0349  0.0681 -0.1809
28793W        W71887   4.416  19.016  21.335  0.1365  0.0185 -0.2324
28794W        W71888   4.562  20.816  23.841 -0.3815 -0.0174 -0.0230
28795W        W71889   4.088  18.161  20.315 -0.1858 -0.0086 -0.0230
28796W        W71890   5.533  20.659  20.372  0.1838  0.5291  0.0337
28797W        W71891   6.302  19.773  22.606  0.0268  0.0192 -0.2621
28798W        W71892   7.767  20.021  22.415  0.1687  0.1048 -0.2211
28799W        W71893   6.130  19.311  21.784 -0.0009 -0.1726  0.0658
28800W        W71894   6.531  19.531  22.024  0.1732  0.0660 -0.4327
28801W        W71895   3.169  21.542  20.594 -0.3904  0.5194  0.1165
28802W        W71896   5.607  19.146  21.004  0.0118  0.0729  0.1643
28803W        W71897   4.882  22.312  22.213  0.1673 -0.0540  0.2069
28804W        W71898   3.562  19.955  22.507 -0.3173  0.1703 -0.1002
28805W        W71899   4.204  21.090  22.291 -0.0052  0.2965  0.1163
28806W        W71900   4.850  18.835  22.225  0.0020  0.0816 -0.0160
28807W        W71901   7.869  20.529  22.327  0.0152 -0.0307 -0.1497
28808W        W71902   5.949  19.543  22.325 -0.3362  0.0806  0.0679
28809W        W71903   7.094  19.490  22.692  0.0207  0.0400 -0.0612
28810W        W71904   4.477  21.070  23.308  0.2416  0.1615  0.2700
28811W        W71905   3.924  21.614  21.940 -0.0510 -0.2635 -0.1700
28812W        W71906   5.231  21.347  22.453 -0.2177 -0.0770  0.1721
28813W        W71907   7.618  21.777  21.052  0.2702  0.0916  0.1193
28814W        W71908   3.054  21.277  20.993 -0.2222 -0.1299 -0.3521
28815W        W71909   3.687  19.187  23.287  0.0333 -0.0050  0.0432
28816W        W71910   5.329  18.487  24.319 -0.1223 -0.1862  0.0963
28817W        W71911   5.274  19.517  23.670 -0.1074 -0.0892  0.0324
28818W        W71912   5.305  18.745  20.399 -0.2734 -0.1709 -0.1949
28819W        W71913   5.222  22.540  20.531  0.1466 -0.1250  0.0270
28820W        W71914   3.090  21.305  22.372 -0.2279  0.0385  0.0790
28821W        W71915   2.349  20.140  22.472 -0.1261  0.1272 -0.0180
28822W        W71916   5.416  21.845  21.656  0.3570  0.3939  0.1984
28823W        W71917   5.801  21.437  20.857 -0.1056  0.1769 -0.1286
28824W        W71918   5.578  20.934  22.405 -0.0502  0.3171  0.2199
28825W        W71919   6.260  21.341  22.566  0.0983 -0.0570  0.0418
28826W        W71920   2.904  17.633  20.532  0.0607 -0.0409 -0.2360
28827W        W71921   4.386  20.672  21.729  0.0232 -0.1314  0.2001
28828W        W71922   3.405  20.926  21.067 -0.1783 -0.0955  0.0702
28829W        W71923   5.131  22.390  23.157  0.1239 -0.1336 -0.0043
28830W        W71924   5.239  22.738  22.260  0.0464  0.0599 -0.3227
28831W        W71925   7.028  21.334  21.850  0.2695  0.0022 -0.2414
28832W        W71926   6.168  18.928  19.570 -0.0701 -0.0465  0.0262
28833W        W71927   6.624  21.157  20.950 -0.0483  0.0850 -0.0474
28834W        W71928   7.523  19.873  21.022 -0.1241  0.2467  0.0674
28835W        W71929   6.257  23.396  22.219 -0.2021 -0.2442  0.1835
28836W        W71930   5.064  19.983  22.317 -0.0052 -0.0856  0.0558
28837W        W71931   4.595  21.637  19.549  0.0263  0.3640  0.1548
28838W        W71932   5.593  20.120  24.992  0.1626 -0.4927 -0.1024
28839W        W71933   6.019  18.336  23.410 -0.0266 -0.3150  0.3914
28840W        W71934   3.763  21.939  23.177  0.2346 -0.1573  0.1747
28841W        W71935   6.433  23.449  19.926  0.1742 -0.2712  0.1596
28842W        W71936   4.696  20.970  20.742  0.0773 -0.0565 -0.1252
28843W        W71937   6.388  20.301  22.535 -0.2081  0.3180  0.0296
28844W        W71938   5.291  20.248  21.830  0.2445  0.1214  0.3733
28845W        W71939   5.516  21.158  20.054 -0.2086 -0.0545  0.1184
28846W        W71940   5.451  20.430  22.268  0.0686 -0.1948  0.0190
28847W        W71941   4.633  22.015  21.250  0.1697 -0.0458 -0.0887
28848W        W71942   4.663  21.117  21.916 -0.2460  0.0977  0.1837
28849W        W71943   5.576  22.054  23.469  0.2622 -0.0514 -0.3677
28850W        W71944   5.258  18.237  21.617  0.3607  0.0637  0.1873
28851W        W71945   6.742  20.379  21.249 -0.2690  0.0290 -0.1646
28852W        W71946   3.685  20.767  22.708 -0.1693 -0.0118  0.1080
28853W        W71947   6.061  18.946  21.361 -0.1171  0.0693  0.2751
28854W        W71948   2.927  19.368  21.907 -0.1277 -0.1160 -0.1125
28855W        W71949   5.414  19.837  20.885  0.2931 -0.2498  0.0546
28856W        W71950   4.850  20.448  23.937 -0.2435  0.3158 -0.1831
28857W        W71951   3.748  19.846  22.069  0.1419  0.0072  0.0855
28858W        W71952   5.183  20.360  20.904  0.2785  0.0070  0.2939
28859W        W71953   6.023  18.896  22.993 -0.2161  0.0512 -0.1746
28860W        W71954   5.980  19.494  19.423 -0.0003  0.1106 -0.1616
28861W        W71955   5.948  21.227  23.397 -0.0316 -0.0583 -0.1856
28862W        W71956   4.106  18.972  21.921 -0.2357 -0.0290 -0.0522
28863W        W71957   4.432  19.104  20.401  0.3381 -0.2233 -0.0032
28864W        W71958   3.877  20.611  21.436  0.1277  0.1259 -0.1752
28865W        W71959   4.645  20.310  22.642 -0.0793 -0.3869 -0.1368
28866W        W71960   5.836  21.735  24.280 -0.1227  0.0171  0.3161
28867W        W71961   4.327  18.297  20.740  0.1090  0.0438  0.1255
28868W        W71962   5.290  21.552  20.302  0.1880 -0.0211 -0.4970
28869W        W71963   6.022  20.296  21.874  0.0643  0.2068 -0.1029
28870W        W71964   4.776  21.452  20.573  0.0462  0.1841  0.1559
28871W        W71965   6.325  23.863  21.511  0.0157  0.1178  0.1445
28872W        W71966   6.946  21.649  23.007 -0.0042  0.1399  0.3502
28873W        W71967   4.494  18.667  21.901  0.1634  0.0237  0.0457
28874W        W71968   7.755  20.961  22.128  0.1100  0.0904 -0.2133
28875W        W71969   7.381  20.621  22.192  0.1035  0.1136 -0.1765
28876W        W71970   5.736  17.268  20.871 -0.0400 -0.0253  0.0495
28877W        W71971   4.714  18.845  23.432 -0.0900  0.2117 -0.2028
28878W        W71972   4.330  20.948  21.258 -0.0996 -0.0098 -0.1063
28879W        W71973   8.541  21.630  21.130  0.1248  0.0531  0.0760
28880W        W71974   5.601  20.505  23.706  0.1896  0.0373  0.1792
28881W        W71975   4.086  22.628  20.955 -0.2124 -0.0911  0.2438
28882W        W71976   7.356  19.097  22.212 -0.1617 -0.1267  0.1782
28883W        W71977   5.555  20.566  22.754 -0.1740 -0.1141  0.1341
28884W        W71978   5.151  20.970  24.388 -0.2799  0.0617 -0.2798
28885W        W71979   4.223  21.493  19.871  0.0208  0.0921  0.0286
28886W        W71980   3.955  20.190  23.918 -0.1639 -0.0661 -0.1653
28887W        W71981   5.185  22.379  22.635 -0.3075  0.0766 -0.0282
28888W        W71982   4.532  22.464  20.687 -0.2471 -0.2219 -0.1071
28889W        W71983   6.978  22.408  21.763 -0.3636  0.4049 -0.0683
28890W        W71984   4.381  18.858  22.480  0.0527 -0.0451 -0.1274
28891W        W71985   5.856  21.292  20.389  0.2687 -0.0391 -0.1999
28892W        W71986   5.187  19.228  21.854  0.2476  0.3744 -0.1360
28893W        W71987   5.859  19.647  20.801 -0.1369  0.0653  0.0387
28894W        W71988   6.424  19.443  20.757 -0.1607 -0.0092  0.2489
28895W        W71989   4.548  20.624  25.140  0.2621 -0.0465 -0.0648
28896W        W71990   2.302  18.932  21.320  0.1150 -0.0116 -0.0455
28897W        W71991   4.842  22.056  19.707 -0.0770 -0.3178 -0.4002
28898W        W71992   3.223  20.402  21.734 -0.0839  0.1212 -0.1100
28899W        W71993   4.006  17.690  24.439  0.1035  0.0816  0.1949
28900W        W71994   4.327  18.017  23.805  0.2559  0.0799  0.0716
28901W        W71995   1.233  19.767  23.076 -0.2563  0.0004  0.0805
28902W        W71996   5.855  19.724  21.776  0.1373  0.0406 -0.2346
28903W        W71997   5.118  20.723  19.885  0.0180 -0.1646  0.0409
28904W        W71998   5.107  19.000  21.361 -0.0512 -0.3563  0.1625
28905W        W71999   3.348  17.398  22.080  0.1321 -0.2793  0.1333
28906W        W72000   5.891  19.895  21.267 -0.1387 -0.2657  0.1126
28907W        W72001   7.040  20.274  20.830  0.0215 -0.2795 -0.2984
28908W        W72002   5.388  20.056  21.414 -0.0506  0.3837 -0.1321
28909W        W72003   5.991  20.431  25.090 -0.1169  0.0497  0.2971
28910W        W72004   3.633  21.611  20.996  0.2360  0.0336 -0.0017
28911W        W72005   4.802  19.519  24.110  0.0807 -0.0147  0.0769
28912W        W72006   5.283  18.537  21.139 -0.2355 -0.0238 -0.1528
28913W        W72007   3.199  17.846  20.954  0.1942 -0.0892 -0.1986
28914W        W72008   5.100  19.763  21.820  0.1512  0.1208  0.0290
28915W        W72009   5.949  22.560  19.550 -0.1093  0.0126 -0.0202
28916W        W72010   5.581  23.298  19.218 -0.3765 -0.2708 -0.2589
28917W        W72011   5.035  20.704  22.437  0.0272 -0.0872 -0.2583
28918W        W72012   5.163  21.026  22.055 -0.1285 -0.4114  0.0651
28919W        W72013   2.504  18.050  23.489  0.0314 -0.0949 -0.0013
28920W        W72014   5.014  20.965  20.308 -0.0125 -0.1230 -0.0288
28921W        W72015   4.934  20.471  24.451 -0.0070 -0.2214  0.0119
28922W        W72016   5.899  19.883  20.361  0.0920 -0.0212 -0.3115
28923W        W72017   6.770  20.796  22.530  0.0319  0.0856  0.0816
28924W        W72018   5.025  19.449  20.803  0.0413 -0.2999 -0.0043
28925W        W72019   3.846  18.386  23.908  0.0425  0.1067  0.0192
28926W        W72020   3.754  20.428  22.340  0.0427 -0.2650 -0.0371
28927W        W72021   5.918  20.519  22.327 -0.0568  0.1839 -0.1286
28928W        W72022   3.743  18.559  21.219 -0.1148 -0.1099  0.0755
28929W        W72023   5.436  19.228  20.541  0.0295  0.2417  0.1540
28930W        W72024   6.580  21.463  19.230  0.0158 -0.2692 -0.1233
28931W        W72025   4.316  19.586  23.742 -0.1520 -0.0084  0.0759
28932W        W72026   5.016  19.903  21.137  0.0928  0.2865 -0.2790
28933W        W72027   4.971  18.060  24.543 -0.2129  0.1189  0.0671
28934W        W72028   5.345  19.033  22.338 -0.4364  0.0716 -0.0432
28935W        W72029   6.324  21.352  21.838  0.0582  0.1060 -0.1174
28936W        W72030   4.391  20.488  19.797  0.2663  0.0574 -0.0018
28937W        W72031   7.036  20.051  19.812 -0.2664  0.1722 -0.0448
28938W        W72032   6.980  21.792  24.061 -0.0574 -0.0773 -0.2871
28939W        W72033   6.726  21.229  22.203  0.0281  0.2411  0.0740
28940W        W72034   6.323  22.027  21.726 -0.0715  0.0008 -0.1987
28941W        W72035   6.295  21.676  21.121  0.0348  0.0882 -0.2917
28942W        W72036   3.850  18.529  22.211  0.1493 -0.1062 -0.0036
28943W        W72037   3.856  18.920  20.948 -0.1078 -0.1776 -0.1828
28944W        W72038   4.790  19.480  21.307 -0.0307 -0.0730  0.3577
28945W        W72039   7.295  19.025  21.677  0.2336 -0.1851 -0.0504
28946W        W72040   4.772  18.352  22.577 -0.2356  0.0320  0.0644
28947W        W72041   6.740  21.001  20.497  0.1322 -0.1378 -0.1229
28948W        W72042   5.710  21.926  21.209  0.0704 -0.3371 -0.1954
28949W        W72043   4.964  21.223  23.407  0.2710  0.0655  0.1840
28950W        W72044   4.815  20.100  25.899  0.1121 -0.3404  0.0222
28951W        W72045   4.661  19.030  24.960 -0.1842  0.2943 -0.0637
28952W        W72046   5.558  19.343  24.715 -0.1956 -0.1838 -0.0964
28953W        W72047   6.854  20.723  23.391  0.0721 -0.1011  0.2507
28954W        W72048   4.253  19.061  25.843 -0.3171  0.1841 -0.1188
28955W        W72049   6.290  22.451  24.698  0.0469 -0.2986  0.0338
28956W        W72050   3.607  16.935  28.606 -0.0021 -0.1059  0.2645
28957W        W72051   5.647  20.629  26.591  0.0178 -0.2053  0.0896
28958W        W72052   5.820  21.200  26.849 -0.0413 -0.2858  0.0411
28959W        W72053   5.322  20.537  23.283 -0.1066 -0.3153 -0.3630
28960W        W72054   4.766  18.582  25.173  0.1228  0.1286  0.0973
28961W        W72055   4.636  21.691  26.919 -0.2691  0.1574 -0.1350
28962W        W72056   5.462  18.412  24.806 -0.1583  0.0023 -0.1950
28963W        W72057   3.336  19.199  24.939  0.2799 -0.0089 -0.0310
28964W        W72058   6.247  18.947  26.240  0.0224  0.0288 -0.0068
28965W        W72059   4.482  21.134  25.158  0.0232  0.2397 -0.0144
28966W        W72060   2.836  20.262  26.351  0.0427  0.1646  0.2827
28967W        W72061   5.211  19.986  26.733  0.1141  0.2385 -0.1799
28968W        W72062   5.529  22.217  24.366 -0.0290 -0.1020  0.1201
28969W        W72063   6.257  19.403  26.477  0.1232  0.1088  0.1548
28970W        W72064   5.500  18.724  27.512 -0.2662  0.0751  0.3062
28971W        W72065   5.780  20.283  25.629  0.1375 -0.0179  0.4185
28972W        W72066   4.500  19.827  22.386 -0.2352  0.2096  0.1315
28973W        W72067   1.798  18.498  25.121  0.0028 -0.0772 -0.1132
28974W        W72068   4.081  20.363  26.004 -0.0887 -0.1763  0.3954
28975W        W72069   8.149  17.951  25.007  0.0789  0.0460  0.0095
28976W        W72070   5.707  19.388  22.757 -0.1275 -0.4757 -0.1233
28977W        W72071   4.260  22.154  25.514 -0.1622  0.1295  0.0610
28978W        W72072   4.547  21.447  25.935 -0.1446  0.0258  0.0465
28979W        W72073   5.757  19.299  26.644 -0.0753  0.1970  0.0493
28980W        W72074   3.418  20.042  24.643 -0.0594  0.2721  0.3335
28981W        W72075   3.545  21.571  25.723 -0.0387 -0.1095 -0.4700
28982W        W72076   5.309  21.290  23.975  0.0470  0.1340 -0.0553
28983W        W72077   6.765  22.040  26.057 -0.0271  0.4257  0.2426
28984W        W72078   6.683  18.100  27.077  0.3926 -0.3884  0.1823
28985W        W72079   4.731  22.318  25.637 -0.2813  0.2286 -0.0513
28986W        W72080   4.200  21.445  23.234 -0.0486  0.0606 -0.0106
28987W        W72081   6.306  21.995  27.941  0.2641  0.1066 -0.2371
28988W        W72082   3.677  22.237  26.436  0.0850 -0.1625 -0.2205
28989W        W72083   5.572  19.003  27.036  0.0550  0.2570 -0.0047
28990W        W72084   5.153  18.654  25.637  0.2043  0.0939 -0.1921
28991W        W72085   3.172  23.016  26.003 -0.0987 -0.2522 -0.2039
28992W        W72086   4.988  20.475  24.930  0.2556  0.1944 -0.0290
28993W        W72087   3.857  22.671  26.169 -0.1849 -0.0334 -0.2944
28994W        W72088   3.420  20.321  26.128  0.1194 -0.3005  0.0697
28995W        W72089   7.828  19.594  26.084 -0.1449 -0.1663 -0.0636
28996W        W72090   4.490  21.561  22.829  0.4816 -0.2931  0.0802
28997W        W72091   6.647  19.788  25.702 -0.0989  0.0511 -0.1315
28998W        W72092   4.410  18.810  24.502 -0.0783  0.1628 -0.0236
28999W        W72093   7.072  20.039  25.037 -0.0520  0.2024 -0.1672
29000W        W72094   4.090  18.112  25.758  0.0083  0.0038  0.2423
29001W        W72095   4.042  21.696  25.781  0.1548  0.1059 -0.2349
29002W        W72096   5.506  18.344  26.514 -0.0804 -0.2129  0.0191
29003W        W72097   7.456  20.383  26.319 -0.1625  0.0458  0.1609
29004W        W72098   5.054  21.540  26.276  0.3357 -0.0794  0.3777
29005W        W72099   5.321  20.255  25.863 -0.1369 -0.2631 -0.1573
29006W        W72100   4.851  21.126  26.227 -0.1015  0.0567 -0.0170
29007W        W72101   4.686  19.531  24.646 -0.1570 -0.1185 -0.1212
29008W        W72102   6.266  21.642  23.450  0.2002 -0.1412 -0.1693
29009W        W72103   7.135  21.596  25.142  0.2890 -0.0322 -0.1435
29010W        W72104   6.353  20.575  23.348 -0.0097 -0.2734 -0.4047
29011W        W72105   4.632  19.668  23.337  0.1091  0.0380 -0.3244
29012W        W72106   4.287  20.969  26.485  0.1697 -0.1241 -0.0385
29013W        W72107   4.735  19.804  26.924 -0.2889 -0.0916 -0.3081
29014W        W72108   4.089  19.993  22.496 -0.0980 -0.1925  0.0039
29015W        W72109   7.062  20.561  27.684  0.2680 -0.0701  0.3359
29016W        W72110   4.251  21.008  27.277 -0.2756 -0.0875 -0.2375
29017W        W72111   7.811  20.305  25.497  0.1355 -0.0247  0.0075
29018W        W72112   5.409  19.654  25.969  0.1022  0.2678 -0.0850
29019W        W72113   6.600  21.575  26.355  0.1346 -0.0425  0.0337
29020W        W72114   5.423  20.491  24.629  0.0050 -0.3149  0.2233
29021W        W72115   5.627  18.840  26.511  0.1430  0.1522 -0.2463
29022W        W72116   7.771  18.219  25.786 -0.1558 -0.3643 -0.1880
29023W        W72117   5.922  20.901  23.779  0.0469 -0.0086  0.0209
29024W        W72118   5.050  21.828  25.878 -0.1191 -0.0718  0.0977
29025W        W72119   8.131  22.225  27.200  0.1473 -0.0290  0.0208
29026W        W72120   6.733  20.604  23.846  0.1504  0.2129  0.4645
29027W        W72121   3.837  22.339  24.517  0.0758  0.0573 -0.1365
29028W        W72122   4.863  19.299  27.678 -0.0637  0.1272  0.0011
29029W        W72123   7.532  20.500  27.437 -0.3287  0.2011  0.0516
29030W        W72124   3.561  21.250  24.731 -0.1172  0.1203  0.0808
29031W        W72125   3.098  20.708  25.420  0.2158  0.1401  0.3309
29032W        W72126   3.737  20.606  24.804  0.1406  0.1738  0.0747
29033W        W72127   3.655  18.673  26.542  0.1789 -0.2423  0.0350
29034W        W72128   4.141  20.743  25.479  0.0964  0.3029  0.2381
29035W        W72129   7.182  18.320  25.067 -0.0202 -0.0713 -0.0354
29036W        W72130   4.188  18.738  26.671 -0.2629 -0.0769 -0.1153
29037W        W72131   6.730  18.915  24.683  0.1478  0.0954  0.2480
29038W        W72132   3.810  19.842  24.299  0.0820 -0.1593 -0.2332
29039W        W72133   5.620  22.390  26.349 -0.3124 -0.2065  0.0869
29040W        W72134   6.458  19.569  24.438 -0.0316 -0.0084 -0.3709
29041W        W72135   5.331  20.334  24.139 -0.0222 -0.1110  0.1422
29042W        W72136   4.053  19.996  25.644  0.0752  0.1386  0.0226
29043W        W72137   4.430  20.366  25.638  0.0485  0.2385 -0.2618
29044W        W72138   4.521  18.923  27.415  0.1968 -0.1866 -0.1822
29045W        W72139   4.467  17.983  26.823 -0.0948 -0.1409 -0.0583
29046W        W72140   7.304  19.774  26.197 -0.0468 -0.0156  0.1905
29047W        W72141   2.841  19.069  24.738 -0.2674  0.3480 -0.2024
29048W        W72142   5.390  17.930  26.185 -0.0396 -0.2389 -0.1336
29049W        W72143   5.179  20.041  24.686 -0.1640  0.2785  0.1308
29050W        W72144   3.454  20.668  25.781 -0.0612 -0.1671  0.3172
29051W        W72145   6.085  18.922  26.708 -0.3574  0.2181  0.1702
29052W        W72146   5.335  20.484  25.333 -0.1185 -0.2156  0.2949
29053W        W72147   8.554  22.061  26.740  0.0460 -0.0961 -0.3415
29054W        W72148   6.310  22.965  26.016  0.1404 -0.1852 -0.0788
29055W        W72149   4.670  18.424  26.566  0.0275 -0.4672  0.0590
29056W        W72150   3.941  19.102  25.434 -0.1351  0.2287 -0.0413
29057W        W72151   3.522  23.215  25.632  0.2406 -0.1322  0.1447
29058W        W72152   5.401  18.910  24.566 -0.0828  0.4611 -0.0179
29059W        W72153   4.397  17.469  24.170  0.2394  0.0208  0.1692
29060W        W72154   6.558  22.469  26.084  0.4161  0.2045  0.1358
29061W        W72155   5.504  19.859  25.563 -0.0712  0.0117  0.3043
29062W        W72156   5.101  20.026  25.303  0.0816 -0.1358  0.2481
29063W        W72157   6.034  19.117  27.288 -0.0286 -0.0307 -0.2406
29064W        W72158   5.458  21.570  25.968  0.0557 -0.0805  0.2380
29065W        W72159   4.792  19.565  25.136 -0.0639  0.0598 -0.0997
29066W        W72160   3.755  18.819  23.660 -0.0880  0.0353  0.0069
29067W        W72161   5.827  21.839  26.230  0.4323 -0.2967 -0.0646
29068W        W72162   2.409  21.625  23.616  0.1180  0.1526  0.0565
29069W        W72163   3.483  19.532  24.625  0.2703 -0.5060  0.0483
29070W        W72164   5.397  22.024  27.371  0.0510  0.0189  0.2840
29071W        W72165   6.526  18.075  25.767  0.3961  0.0598  0.0229
29072W        W72166   3.677  20.344  28.267 -0.0582  0.2283  0.2175
29073W        W72167   4.644  20.020  28.913 -0.4860 -0.1352 -0.2421
29074W        W72168   4.643  19.928  23.792 -0.1768 -0.2053 -0.2403
29075W        W72169   3.786  21.527  27.093 -0.2333  0.0171  0.1078
29076W        W72170   6.560  18.606  24.222  0.0563 -0.1910 -0.1355
29077W        W72171   7.083  18.870  23.383 -0.0064  0.3604 -0.1071
29078W        W72172   4.694  20.747  27.155  0.2163  0.0449  0.2076
29079W        W72173   6.045  22.065  24.810 -0.1124  0.2721  0.2493
29080W        W72174   6.060  19.541  24.799 -0.3893 -0.0892  0.5045
29081W        W72175   6.273  19.175  24.004 -0.2319  0.1054 -0.0440
29082W        W72176   3.185  19.755  27.414 -0.3711  0.0228 -0.1945
29083W        W72177   5.810  22.498  24.834 -0.1338 -0.0669  0.0256
29084W        W72178   5.250  19.996  26.268 -0.0100  0.1919 -0.4590
29085W        W72179   4.987  19.630  25.643  0.2077 -0.2104  0.2607
29086W        W72180   6.947  21.209  23.211  0.1018  0.2234  0.1650
29087W        W72181   4.850  20.355  26.664  0.2984 -0.0849 -0.0119
29088W        W72182   7.973  21.688  27.475 -0.3067 -0.1465 -0.2255
29089W        W72183   5.813  18.566  26.943  0.0853  0.1189 -0.1077
29090W        W72184   5.834  18.195  27.258  0.1606 -0.1715 -0.0495
29091W        W72185   4.881  19.090  24.384 -0.1771  0.3991 -0.2151
29092W        W72186   4.631  19.508  26.029  0.2631 -0.1944  0.0225
29093W        W72187   4.175  21.205  25.636  0.1875  0.0648 -0.2555
29094W        W72188   6.527  18.171  26.377  0.0968  0.0679 -0.0371
29095W        W72189   6.123  17.780  27.718 -0.0266 -0.2457  0.1560
29096W        W72190   6.282  17.397  28.615  0.3811  0.1049 -0.0534
29097W        W72191   7.587  19.668  25.677  0.2189 -0.1203  0.0793
29098W        W72192   5.802  21.305  23.997  0.0989 -0.1484 -0.0613
29099W        W72193   5.437  19.620  26.476 -0.0867  0.0517  0.5420
29100W        W72194   4.377  20.330  23.670  0.1758 -0.3432  0.1273
29101W        W72195   7.112  18.011  28.431 -0.4389  0.1722  0.0203
29102W        W72196   5.238  20.643  26.902 -0.0332 -0.2167  0.3903
29103W        W72197   5.236  22.734  26.459  0.2689 -0.1407  0.1157
29104W        W72198   5.347  21.027  26.631  0.2664  0.0717 -0.1622
29105W        W72199   4.980  20.898  25.209  0.0902  0.0696 -0.1986
29106W        W72200   6.083  17.662  25.910 -0.2775  0.1397  0.0768
29107W        W72201   6.610  18.881  23.693 -0.1083 -0.1386 -0.2133
29108W        W72202   5.479  21.006  23.614  0.3031  0.0745 -0.2439
29109W        W72203   6.062  22.371  26.041  0.0041 -0.1351  0.1061
29110W        W72204   3.976  18.584  25.507  0.3601  0.2101  0.1627
29111W        W72205   6.120  20.746  25.566 -0.1942  0.2983 -0.0059
29112W        W72206   6.121  20.140  23.429  0.0053  0.0119  0.2688
29113W        W72207   7.568  19.340  26.471 -0.1330  0.0713  0.2457
29114W        W72208   5.051  20.885  23.864  0.0958  0.2550 -0.1799
29115W        W72209   5.599  16.741  27.662  0.0859 -0.1687  0.0695
29116W        W72210   5.027  21.645  23.774 -0.1467  0.1934  0.3595
29117W        W72211   4.301  19.780  24.205 -0.2475 -0.0332  0.3323
29118W        W72212   4.007  19.447  24.642 -0.1539 -0.3263  0.2141
29119W        W72213   7.127  19.022  25.624 -0.0093 -0.1532 -0.2049
29120W        W72214   6.136  19.942  25.252 -0.0231 -0.0014  0.1771
29121W        W72215   3.453  18.827  26.946  0.0040 -0.2506 -0.0822
29122W        W72216   3.555  18.403  25.701  0.2411  0.1153  0.0399
29123W        W72217   3.457  21.209  26.831  0.1487  0.2973 -0.1746
29124W        W72218   6.306  19.467  25.420  0.0731  0.1303  0.0906
29125W        W72219   6.608  19.556  23.921  0.0327 -0.0522  0.1183
29126W        W72220   5.570  20.264  27.011 -0.2562  0.2907 -0.0057
29127W        W72221   5.758  19.932  26.171  0.1193  0.2238 -0.0646
29128W        W72222   3.857  19.940  24.777  0.3647 -0.0989 -0.0965
29129W        W72223   8.285  20.347  25.718 -0.0219 -0.1748 -0.0627
29130W        W72224   4.123  17.352  25.614  0.2917 -0.0391 -0.1919
29131W        W72225   3.630  20.608  25.316 -0.0060 -0.3233  0.1046
29132W        W72226   6.943  22.060  26.953  0.0814  0.2195 -0.0433
29133W        W72227   4.809  20.899  24.712 -0.3322 -0.0691  0.0573
29134W        W72228   5.435  21.348  25.487  0.1543  0.2707 -0.0662
29135W        W72229   4.974  19.471  27.214 -0.1109  0.1490  0.0225
29136W        W72230   5.215  20.543  26.329 -0.2251 -0.3554 -0.2260
29137W        W72231   4.414  18.908  25.419  0.2610 -0.0514 -0.1791
29138W        W72232   3.954  18.561  26.058  0.1925 -0.1724  0.1048
29139W        W72233   5.668  18.839  25.495 -0.0304 -0.0758 -0.1274
29140W        W72234   6.008  20.331  26.115 -0.0763 -0.0934 -0.0644
29141W        W72235   4.576  17.710  27.875 -0.0869  0.0676 -0.2299
29142W        W72236   4.143  21.714  27.763 -0.1300 -0.0127  0.0944
29143W        W72237   5.215  19.194  26.716 -0.0590  0.2540 -0.1342
29144W        W72238   6.663  21.570  25.343 -0.5625 -0.1908  0.0567
29145W        W72239   4.541  19.339  26.862 -0.0607  0.1657 -0.0221
29146W        W72240   3.643  20.350  24.303  0.1022 -0.2688 -0.3411
29147W        W72241   3.255  19.719  24.993 -0.1995 -0.3545  0.1761
29148W        W72242   5.267  22.057  26.525 -0.2008 -0.0729  0.2472
29149W        W72243   5.286  19.141  25.682  0.1468 -0.0833 -0.1016
29150W        W72244   4.218  20.769  24.815  0.1111  0.0182 -0.0671
29151W        W72245   4.991  21.374  25.707 -0.0309  0.1873  0.1265
29152W        W72246   3.054  21.639  25.887  0.5527  0.2070 -0.1127
29153W        W72247   6.888  18.430  23.527 -0.0884 -0.2455  0.1158
29154W        W72248   5.698  22.275  26.928 -0.2946 -0.3911 -0.0096
29155W        W72249   6.652  19.266  25.726  0.2180  0.3778  0.3183
29156W        W72250   6.411  19.383  27.537  0.2280  0.0805 -0.3786
29157W        W72251   6.230  19.958  24.169  0.0904  0.0039 -0.1785
29158W        W72252   5.788  18.408  27.828  0.0998 -0.2229 -0.1409
29159W        W72253   3.955  18.728  27.747  0.3475  0.1552  0.0331
29160W        W72254   6.537  21.164  25.643 -0.1283 -0.1751 -0.4573
29161W        W72255   3.950  19.582  27.384 -0.1568  0.0145  0.0633
29162W        W72256   6.501  20.571  26.804  0.1306  0.0593  0.0109
29163W        W72257   4.925  21.042  28.140  0.0252 -0.3309 -0.0666
29164W        W72258   5.904  17.430  26.975 -0.0035  0.2245  0.2333
29165W        W72259   4.326  18.009  23.331 -0.3922  0.4422  0.1731
29166W        W72260   3.940  21.105  26.878 -0.1048 -0.1424 -0.0682
29167W        W72261   6.559  20.360  26.367 -0.1524  0.2133 -0.1189
29168W        W72262   5.760  21.592  25.043  0.0083 -0.2149  0.1094
29169W        W72263   6.918  19.458  24.697 -0.0700 -0.2638 -0.1718
29170W        W72264   3.709  19.414  26.028 -0.2813 -0.1744 -0.2133
29171W        W72265   6.523  20.090  23.772  0.1875  0.0212  0.0569
29172W        W72266   5.863  20.404  24.316  0.3613  0.3062  0.3295
29173W        W72267   4.862  20.474  25.488 -0.2469  0.0889 -0.1874
29174W        W72268   5.232  18.311  27.458 -0.1179 -0.2620 -0.6096
29175W        W72269   7.076  18.901  26.845  0.0620 -0.0558  0.1290
29176W        W72270   7.089  17.833  27.104 -0.2384 -0.0803 -0.2280
29177W        W72271   4.757  19.003  25.855 -0.2937 -0.0484 -0.1037
29178W        W72272   6.311  18.479  26.967 -0.0397  0.1943 -0.0272
29179W        W72273   5.313  20.696  27.381  0.1651  0.2841 -0.0231
29180W        W72274   5.781  19.798  27.270 -0.1119 -0.2293 -0.0454
29181W        W72275   5.228  21.563  27.030 -0.1245  0.0469  0.0330
29182W        W72276   6.597  20.333  24.200  0.3631  0.0271  0.1677
29183W        W72277   6.932  19.971  26.417  0.4017  0.2018  0.1986
29184W        W72278   7.937  18.329  24.708 -0.3264 -0.1365 -0.3624
29185W        W72279   5.749  19.963  23.997  0.0076 -0.4448  0.0406
29186W        W72280   5.082  18.966  27.309 -0.4650  0.1677 -0.2632
29187W        W72281   6.269  19.235  27.972  0.0719 -0.0684 -0.2056
29188W        W72282   5.289  18.770  25.088 -0.0359 -0.1035 -0.2600
29189W        W72283   5.470  17.914  27.731 -0.4521  0.1160 -0.0307
29190W        W72284   6.132  21.169  24.444  0.1184  0.1840 -0.0627
29191W        W72285   5.841  21.043  26.317 -0.2918  0.1548  0.0425
29192W        W72286   5.999  19.176  25.206  0.1739  0.1066 -0.1626
29193W        W72287   2.654  19.131  25.992 -0.2292  0.1594  0.1504
29194W        W72288   4.670  19.949  26.389 -0.1507 -0.3477 -0.2039
29195W        W72289   4.402  20.391  23.133 -0.1195  0.0361 -0.0879
29196W        W72290   4.359  19.933  24.705 -0.0805 -0.1023  0.0197
29197W        W72291   4.842  20.522  27.516 -0.3487  0.0445  0.1720
29198W        W72292   8.789  20.559  26.662  0.0510 -0.4097 -0.0547
29199W        W72293   4.149  17.530  24.980  0.1390  0.3306 -0.2213
29200W        W72294   7.321  20.121  27.759 -0.0576  0.0759  0.0017
29201W        W72295   5.313  21.392  24.965 -0.1055 -0.3655  0.1723
29202W        W72296   6.270  17.504  25.435 -0.0196 -0.1849  0.0385
29203W        W72297   6.245  22.916  26.849 -0.0281 -0.0749  0.0085
29204W        W72298   3.327  19.882  26.537 -0.2952  0.1046 -0.0227
29205W        W72299   5.635  21.288  24.524  0.2020  0.2117 -0.0475
29206W        W72300   6.285  17.784  27.040 -0.2003  0.1234 -0.3745
29207W        W72301   6.381  21.939  26.908  0.3059  0.3315  0.0530
29208W        W72302   4.748  20.586  26.032 -0.1109 -0.1884 -0.1937
29209W        W72303   8.530  18.375  28.094 -0.0654  0.0895 -0.2488
29210W        W72304   5.357  21.084  26.133  0.3338 -0.3600  0.3082
29211W        W72305   4.198  18.287  26.407 -0.2490  0.2155  0.2016
29212W        W72306   6.429  23.238  27.719  0.1990 -0.0245  0.0464
29213W        W72307   7.066  19.517  25.879  0.1833 -0.1789  0.1017
29214W        W72308   4.555  22.069  25.069  0.0736 -0.5805  0.1493
29215W        W72309   4.076  19.142  26.303  0.1446 -0.1575 -0.2534
29216W        W72310   5.918  20.146  27.598 -0.0191 -0.3105 -0.2651
29217W        W72311   4.617  21.809  25.573 -0.1564  0.1437 -0.1083
29218W        W72312   5.236  18.578  26.913 -0.0519 -0.1113  0.0284
29219W        W72313   5.714  20.846  25.302 -0.1116 -0.0572 -0.0396
29220W        W72314   4.313  20.507  27.443  0.2111 -0.1494  0.1441
29221W        W72315   3.719  19.958  26.137  0.1007 -0.0912  0.2232
29222W        W72316   4.095  21.455  24.802  0.3052 -0.0214 -0.1594
29223W        W72317   5.803  19.411  26.177 -0.0626  0.1599  0.1044
29224W        W72318   6.646  20.384  25.883 -0.0150 -0.0107  0.0853
29225W        W72319   5.848  22.764  26.661  0.1659  0.0252 -0.1018
29226W        W72320   5.966  18.419  25.041  0.2147 -0.1359 -0.1367
29227W        W72321   4.345  20.872  26.034 -0.0076 -0.2181 -0.2883
29228W        W72322   3.566  20.820  24.278 -0.1631  0.1266 -0.1980
29229W        W72323   5.501  22.892  24.536  0.3193 -0.0962 -0.0496
29230W        W72324   5.020  21.929  24.764 -0.0524 -0.0494  0.1514
29231W        W72325   6.435  21.110  27.007  0.0053 -0.0944  0.1558
29232W        W72326   6.411  18.349  23.690 -0.0841  0.1515 -0.1708
29233W        W72327   7.038  19.660  25.350 -0.0507  0.0934 -0.2031
29234W        W72328   6.951  18.320  24.079 -0.1310  0.0668 -0.2442
29235W        W72329   4.664  20.968  25.645 -0.2642  0.3853  0.0534
29236W        W72330   7.926  17.414  26.681 -0.2562 -0.1611 -0.3084
29237W        W72331   6.280  19.093  24.521 -0.0949 -0.0004 -0.0340
29238W        W72332   4.461  20.187  27.023 -0.0425  0.1463 -0.2705
29239W        W72333   7.754  18.293  29.015 -0.2630 -0.0651  0.3046
29240W        W72334   4.102  21.453  26.225 -0.0762 -0.1544 -0.2346
29241W        W72335   5.890  21.771  23.713  0.3596  0.1039 -0.1640
29242W        W72336   4.197  19.779  25.192 -0.0307  0.0258  0.0658
29243W        W72337   4.775  19.994  24.381 -0.0544  0.2482  0.4174
29244W        W72338   6.927  17.756  25.636 -0.0005 -0.0400 -0.2196
29245W        W72339   6.237  21.612  24.894  0.2552 -0.2080  0.0067
29246W        W72340   5.755  19.637  25.181  0.0734  0.1479 -0.0209
29247W        W72341   4.554  21.712  24.722 -0.2559  0.0230  0.0733
29248W        W72342   3.722  19.551  26.534  0.1717 -0.0319 -0.0635
29249W        W72343   3.354  22.445  25.443 -0.0486 -0.4498 -0.0660
29250W        W72344   3.710  19.497  25.135 -0.2687  0.0540  0.0826
29251W        W72345   6.228  20.166  24.660  0.1628 -0.0177  0.2652
29252W        W72346   4.358  19.547  26.458 -0.0280  0.2486  0.0018
29253W        W72347   7.089  19.745  26.973  0.2489  0.0965 -0.1022
29254W        W72348   5.335  19.134  26.176  0.0569  0.0702 -0.0705
29255W        W72349   6.712  19.508  26.238  0.1968 -0.1220  0.0554
29256W        W72350   5.022  21.073  27.015 -0.0388 -0.0212  0.0494
29257W        W72351   5.223  21.400  27.476  0.2561  0.0357 -0.2922
29258W        W72352   4.146  19.468  23.204  0.0653  0.1499  0.0664
29259W        W72353   7.034  20.612  26.142  0.0573  0.0853  0.0408
29260W        W72354   5.838  20.039  22.578  0.0204 -0.0680 -0.3382
29261W        W72355   6.817  22.474  28.352  0.0111  0.1241 -0.2182
29262W        W72356   4.641  20.101  25.133 -0.2545  0.2275  0.3127
29263W        W72357   6.333  18.491  24.671 -0.0348  0.2440  0.2451
29264W        W72358   2.627  18.945  25.493 -0.0782  0.3145 -0.0694
29265W        W72359   6.715  18.660  26.191 -0.0605  0.0540  0.1329
29266W        W72360   6.940  21.069  27.732 -0.0513 -0.0277 -0.2416
29267W        W72361   2.990  18.704  26.825  0.0997 -0.0318 -0.0235
29268W        W72362   7.236  20.332  23.130  0.1664 -0.1045  0.2280
29269W        W72363   5.509  21.475  26.429 -0.1879 -0.0200 -0.0258
29270W        W72364   4.794  21.571  21.486  0.0464  0.1250  0.0476
29271W        W72365   6.977  19.165  23.839 -0.2568 -0.0777 -0.0728
29272W        W72366   6.094  21.513  26.484  0.1391 -0.1824 -0.0419
29273W        W72367   4.785  18.833  26.862 -0.2502  0.0542 -0.1250
29274W        W72368   6.138  22.338  26.594  0.1553  0.1128 -0.1332
29275W        W72369   6.057  21.077  24.973 -0.0014  0.4831  0.0378
29276W        W72370   5.957  18.880  24.795  0.1147  0.4396  0.2939
29277W        W72371   6.049  19.835  25.763  0.0274  0.1640 -0.2757
29278W        W72372   3.881  22.185  25.956  0.2868  0.0938 -0.0280
29279W        W72373   6.624  18.983  26.626  0.0198  0.2191 -0.1457
29280W        W72374   6.131  20.324  26.639  0.1439 -0.1420  0.2093
29281W        W72375   5.907  21.010  22.781 -0.1515  0.3619 -0.0519
29282W        W72376   6.881  18.760  28.801  0.0436  0.2160 -0.2451
29283W        W72377   6.278  20.601  27.428 -0.0610 -0.0861  0.0255
29284W        W72378   4.653  22.117  28.927 -0.0634  0.0435 -0.1557
29285W        W72379   4.830  20.706  23.353  0.2057 -0.3777 -0.0467
29286W        W72380   4.919  19.491  26.445  0.0420  0.0320 -0.3462
29287W        W72381   5.142  20.828  25.729 -0.3198 -0.1439 -0.1877
29288W        W72382   5.609  22.122  25.882 -0.2483 -0.0216 -0.1594
29289W        W72383   6.549  21.635  25.866 -0.3538  0.2956  0.0263
29290W        W72384   6.004  18.500  26.416  0.0797  0.0453  0.2177
29291W        W72385   6.305  20.714  24.374  0.1073  0.2428 -0.0340
29292W        W72386   4.300  19.258  24.264 -0.0717  0.3968 -0.1287
29293W        W72387   7.715  18.011  23.167 -0.0030  0.1650  0.0878
29294W        W72388   6.473  18.282  23.228  0.0698  0.3191  0.1909
29295W        W72389   4.438  20.435  26.392 -0.2091  0.0968  0.0582
29296W        W72390   4.356  19.918  22.907 -0.1445 -0.0873  0.0211
29297W        W72391   5.057  20.215  22.901  0.0028 -0.1011  0.0337
29298W        W72392   5.310  19.695  24.972 -0.3127  0.2758 -0.3554
29299W        W72393   6.249  18.241  27.983  0.0697 -0.1182 -0.0589
29300W        W72394   4.841  18.565  27.365  0.0188 -0.3075  0.3837
29301W        W72395   4.156  20.305  25.067 -0.0352  0.0578  0.3708
29302W        W72396   4.732  19.029  26.397 -0.2051 -0.1743  0.2246
29303W        W72397   6.485  21.203  23.468  0.3758 -0.0495 -0.0025
29304W        W72398   5.136  18.729  26.476 -0.1705 -0.0596  0.3978
29305W        W72399   2.601  18.308  25.622 -0.0748 -0.3325  0.0473
29306W        W72400   5.862  22.419  25.321  0.0098 -0.3824  0.0674
29307W        W72401   4.242  22.633  25.837 -0.0065 -0.0669  0.1490
29308W        W72402   5.572  18.479  26.006  0.0147  0.0878  0.0819
29309W        W72403   8.114  20.500  27.174  0.1938  0.2808 -0.2386
29310W        W72404   2.628  20.517  23.202 -0.3991  0.0197  0.1684
29311W        W72405   4.608  18.960  28.057  0.3583 -0.1162  0.0547
29312W        W72406   5.373  19.184  27.945 -0.0692  0.0935  0.0063
29313W        W72407   5.009  18.165  25.060  0.1952  0.3837 -0.1371
29314W        W72408   4.926  18.083  27.757 -0.0188  0.0715  0.0347
29315W        W72409   6.318  20.780  26.086  0.2116 -0.0508 -0.3993
29316W        W72410   6.406  20.969  22.956  0.0279 -0.1643  0.1989
29317W        W72411   4.561  21.522  26.424 -0.0682  0.1345  0.0183
29318W        W72412   5.179  22.567  27.020 -0.2744 -0.0586 -0.0353
29319W        W72413   3.463  18.257  27.187 -0.0144  0.2242 -0.1074
29320W        W72414   7.105  19.148  25.068  0.0051  0.1545 -0.3162
29321W        W72415   4.870  20.834  26.625  0.1031  0.1412 -0.0375
29322W        W72416   5.823  20.787  24.635 -0.0283  0.1595  0.1534
29323W        W72417   7.985  19.325  25.302  0.1173  0.0239  0.1379
29324W        W72418   5.583  20.879  24.194 -0.0459  0.2536  0.1013
29325W        W72419   4.260  19.825  27.819 -0.2256  0.0354  0.1539
29326W        W72420   5.775  20.593  27.372  0.3641  0.1544 -0.1437
29327W        W72421   6.927  19.083  26.119 -0.2500  0.0602 -0.0918
29328W        W72422   5.504  18.365  25.338 -0.0695 -0.1874  0.0685
29329W        W72423   6.163  18.991  25.721 -0.0823 -0.0444  0.5253
29330W        W72424   6.096  21.957  25.783  0.0487 -0.1037 -0.1468
29331W        W72425   3.191  19.143  25.924 -0.1928 -0.0809 -0.2488
29332W        W72426   5.753  19.345  25.599  0.1833  0.1514  0.1368
29333W        W72427   5.770  19.892  26.727  0.1127  0.1351 -0.0558
29334W        W72428   5.189  21.818  25.384  0.2459  0.0363  0.0138
29335W        W72429   7.178  21.377  26.973 -0.1889 -0.0955  0.1351
29336W        W72430   5.932  19.513  24.313  0.0324  0.0595 -0.0322
29337W        W72431   7.197  20.087  22.213  0.0110 -0.0750  0.1021
29338W        W72432   5.740  21.743  26.814  0.1300  0.0100  0.1486
29339W        W72433   7.740  20.470  27.918 -0.0466  0.0437  0.0066
29340W        W72434   4.445  21.199  24.615 -0.1108  0.2871  0.1793
29341W        W72435   6.445  19.934  26.118 -0.0734 -0.0165 -0.0060
29342W        W72436   4.519  19.353  25.537 -0.0436  0.0424  0.0314
29343W        W72437   3.792  19.716  23.804 -0.1202 -0.0334 -0.3696
29344W        W72438   4.530  20.734  24.361 -0.0714 -0.2746  0.1300
29345W        W72439   6.431  19.872  26.600  0.1950  0.0666 -0.0329
29346W        W72440   4.250  19.248  25.050  0.0199  0.1052  0.0934
29347W        W72441   6.306  17.035  24.942  0.1896  0.1019 -0.0899
29348W        W72442   3.142  22.890  25.528 -0.1669 -0.1697 -0.2854
29349W        W72443   5.744  21.113  25.785 -0.3609  0.1845 -0.2150
29350W        W72444   4.393  19.900  30.608  0.1522 -0.1176 -0.2629
29351W        W72445   5.134  19.958  27.320  0.0800 -0.0801 -0.1019
29352W        W72446   5.989  18.660  27.430  0.3310 -0.1300  0.0740
29353W        W72447   7.789  19.592  27.315  0.0231  0.1288  0.2122
29354W        W72448   3.508  17.978  28.285  0.1052 -0.0886 -0.0196
29355W        W72449   8.429  20.714  28.525  0.0286 -0.2027  0.0363
29356W        W72450   4.731  18.270  30.889 -0.1997  0.1665  0.0768
29357W        W72451   6.952  20.343  28.492 -0.1758  0.1610 -0.0530
29358W        W72452   8.166  21.434  29.956  0.1926  0.1717  0.0104
29359W        W72453   5.464  19.264  27.465  0.2380  0.0720  0.1939
29360W        W72454   5.378  20.700  29.780  0.1868  0.3880  0.2166
29361W        W72455   5.054  21.256  30.148  0.2777  0.1559  0.2095
29362W        W72456   4.493  17.236  27.550 -0.1231  0.1258  0.0155
29363W        W72457   3.822  17.365  29.878  0.2025 -0.0680 -0.0549
29364W        W72458   8.558  19.895  30.602 -0.0574 -0.0332  0.0552
29365W        W72459   5.399  21.018  27.772 -0.3336 -0.0977 -0.0800
29366W        W72460   6.045  18.708  29.791 -0.0668  0.1359 -0.0116
29367W        W72461   5.545  18.702  29.149  0.2120 -0.1166  0.1168
29368W        W72462   4.785  20.933  29.115 -0.2052 -0.2393  0.1399
29369W        W72463   5.829  19.188  29.941  0.2545  0.0995  0.0741
29370W        W72464   5.275  19.102  29.233 -0.1515  0.1011 -0.0925
29371W        W72465   5.770  21.318  27.782  0.1295  0.2155  0.1263
29372W        W72466   3.774  20.230  26.894  0.1435  0.0247  0.1422
29373W        W72467   3.766  21.118  29.022  0.0175  0.3587 -0.3292
29374W        W72468   5.872  20.421  31.605  0.1257  0.1012  0.0334
29375W        W72469   6.353  19.289  30.059  0.2028 -0.3402 -0.1112
29376W        W72470   5.493  19.912  28.589 -0.3519 -0.2894  0.1227
29377W        W72471   5.708  21.175  30.601  0.1446 -0.1568  0.0161
29378W        W72472   8.239  21.657  28.537 -0.0266  0.0886  0.4947
29379W        W72473   6.621  18.703  31.943  0.3178  0.0580  0.0573
29380W        W72474   3.854  22.646  28.743 -0.2793 -0.0617  0.0358
29381W        W72475   3.728  22.615  28.256  0.1342  0.0065  0.1539
29382W        W72476   4.072  20.491  29.618  0.0721 -0.0565 -0.2818
29383W        W72477   7.907  19.627  28.263 -0.0588  0.2073  0.1441
29384W        W72478   9.165  21.341  30.050  0.2012  0.0570 -0.2743
29385W        W72479   5.779  21.713  30.726  0.0483  0.0489 -0.0585
29386W        W72480   3.340  22.647  26.523 -0.0808 -0.2443  0.2012
29387W        W72481   6.298  20.550  30.091  0.2830  0.2271 -0.0995
29388W        W72482   6.470  21.448  30.332  0.0302  0.0758  0.1095
29389W        W72483   6.380  20.009  30.833  0.2083 -0.0145  0.0075
29390W        W72484   6.046  18.823  30.281 -0.1528 -0.0060  0.1175
29391W        W72485   5.959  21.030  28.238  0.0162  0.0295  0.0439
29392W        W72486   5.979  20.077  28.609  0.0980 -0.3852 -0.1484
29393W        W72487   5.022  21.357   0.643  0.1300 -0.0562 -0.0131
29394W        W72488   3.052  21.422  29.680  0.0693  0.1546  0.0016
29395W        W72489   6.697  18.187  30.602  0.0083  0.2827  0.0172
29396W        W72490   4.272  21.578  27.281  0.1409 -0.1557  0.3261
29397W        W72491   6.795  19.641  27.375 -0.0826  0.1263 -0.1743
29398W        W72492   4.456  18.487  27.790 -0.1617 -0.0668  0.1363
29399W        W72493   5.452  19.814  27.740  0.0049  0.0020  0.0621
29400W        W72494   6.827  17.220  29.062  0.2847 -0.0277 -0.2904
29401W        W72495   5.010  21.483  30.752 -0.0361  0.1161 -0.0431
29402W        W72496   4.330  19.446  30.911 -0.1264  0.0927 -0.0176
29403W        W72497   6.976  19.761  29.667 -0.0084 -0.1672 -0.4884
29404W        W72498   6.114  19.602  26.981 -0.0333 -0.0379  0.5079
29405W        W72499   6.552  19.511  30.935 -0.0181 -0.0095  0.0507
29406W        W72500   3.959  20.034  29.749 -0.0660  0.0754  0.0722
29407W        W72501   4.447  19.221  29.487 -0.2776  0.2249 -0.0703
29408W        W72502   6.271  21.118  27.803 -0.0241 -0.1778 -0.0530
29409W        W72503   8.179  20.484  28.930  0.3326 -0.1622  0.2113
29410W        W72504   6.981  20.401  26.622  0.0790 -0.0150  0.1785
29411W        W72505   4.385  19.461  28.633  0.0716 -0.0594 -0.1947
29412W        W72506   5.604  18.747   0.937 -0.0350  0.3460  0.1463
29413W        W72507   4.741  19.354  30.526  0.3345  0.0780 -0.0837
29414W        W72508   3.983  18.778  28.659  0.0294  0.2450 -0.0299
29415W        W72509   7.861  19.643  31.135 -0.2848  0.1286 -0.0800
29416W        W72510   3.976  21.291  30.735 -0.0402 -0.0361 -0.0115
29417W        W72511   6.341  19.856  27.905  0.1999  0.1845 -0.3812
29418W        W72512   5.014  21.117  29.596  0.0982  0.4298 -0.1852
29419W        W72513   6.780  20.024  28.981  0.2847  0.4101 -0.0880
29420W        W72514   6.097  20.214  27.150 -0.0661 -0.2680 -0.1606
29421W        W72515   6.843  18.452  28.355 -0.0756 -0.0218  0.0421
29422W        W72516   7.438  18.884  29.563 -0.1233  0.1319 -0.2371
29423W        W72517   5.099  20.535  28.016  0.1448 -0.2252 -0.0962
29424W        W72518   5.967  21.070  27.347 -0.0498  0.0175 -0.0536
29425W        W72519   7.189  20.224  30.656 -0.0273 -0.3256  0.0084
29426W        W72520   7.503  19.589  27.847  0.2016  0.1852  0.0782
29427W        W72521   4.859  21.622  29.772 -0.1148  0.0175 -0.4257
29428W        W72522   5.373  20.877  30.295  0.1585  0.2160  0.2288
29429W        W72523   4.529  21.864   1.113 -0.0491 -0.0573 -0.3183
29430W        W72524   4.076  22.333  28.402  0.0049  0.3364 -0.0732
29431W        W72525   3.654  21.690  28.986  0.0138  0.0983  0.0974
29432W        W72526   4.558  20.041  27.462 -0.0907 -0.0284  0.3200
29433W        W72527   4.362  18.929  31.523  0.0626  0.0404  0.0517
29434W        W72528   4.478  19.791  29.636 -0.1560 -0.0738 -0.2116
29435W        W72529   6.670  18.483  27.857  0.0882 -0.0507 -0.1565
29436W        W72530   4.862  19.057  31.865  0.1823 -0.0585  0.1878
29437W        W72531   6.179  19.051  31.103  0.1061  0.2756 -0.4078
29438W        W72532   4.591  20.822  27.871  0.0188  0.2892 -0.1412
29439W        W72533   7.282  21.781  28.293 -0.0967 -0.0008 -0.3207
29440W        W72534   7.364  19.790  27.423 -0.1508 -0.0417 -0.1031
29441W        W72535   7.816  22.643  27.170  0.0752 -0.1385 -0.3338
29442W        W72536   2.918  20.608  29.087  0.1359  0.3594 -0.0204
29443W        W72537   3.827  18.794  29.144 -0.0970 -0.0375  0.2066
29444W        W72538   5.113  20.283   1.214 -0.1170 -0.0898  0.0891
29445W        W72539   3.344  18.112  30.252 -0.0219  0.1587  0.1585
29446W        W72540   6.188  19.484  29.467  0.3761 -0.0125  0.0608
29447W        W72541   3.078  17.852  28.586  0.2194  0.0051 -0.0700
29448W        W72542   5.481  20.397  28.844 -0.1339 -0.0710 -0.0933
29449W        W72543   4.654  20.546  28.484 -0.1155  0.1123 -0.3520
29450W        W72544   3.340  21.607  27.979  0.1136 -0.1704  0.0103
29451W        W72545   6.588  18.811  30.064 -0.2349  0.0213 -0.0771
29452W        W72546   5.643  21.229  29.501 -0.0421 -0.2203 -0.1271
29453W        W72547   8.716  20.357  30.547 -0.1510  0.4263  0.0031
29454W        W72548   7.917  20.655  28.486  0.0429 -0.0250 -0.0428
29455W        W72549   3.399  19.360  30.367 -0.2071 -0.1113  0.1989
29456W        W72550   3.947  19.483  28.209  0.1616  0.4539  0.0348
29457W        W72551   4.917  21.758  28.222  0.0078  0.0660  0.2979
29458W        W72552   6.148  21.540  28.100  0.0656  0.2883  0.0771
29459W        W72553   4.612  18.161  28.122  0.2327 -0.0019  0.1370
29460W        W72554   7.814  21.433  28.855  0.1736  0.0212 -0.1112
29461W        W72555   5.089  20.534  29.344  0.0934  0.0784  0.0505
29462W        W72556   3.435  19.741  28.926  0.2815 -0.0592 -0.2596
29463W        W72557   8.593  18.433  30.437 -0.1023  0.0816  0.1070
29464W        W72558   6.720  20.207  29.881  0.0330  0.2490  0.2273
29465W        W72559   6.342  19.040  29.635 -0.1436 -0.1240  0.1737
29466W        W72560   3.877  18.231  26.797 -0.0183 -0.3128 -0.1742
29467W        W72561   6.653  19.977  28.493  0.5359  0.3019 -0.0106
29468W        W72562   4.321  21.879  28.243  0.0628  0.3715 -0.2065
29469W        W72563   3.900  20.634  29.088 -0.4763 -0.0113 -0.0096
29470W        W72564   5.437  21.664  29.351 -0.2914  0.1424  0.0868
29471W        W72565   7.172  19.860  29.252  0.3493  0.0013 -0.1386
29472W        W72566   2.999  18.779  29.580  0.1373  0.1506 -0.0133
29473W        W72567   6.459  20.945  31.073 -0.1680 -0.2448 -0.1164
29474W        W72568   3.709  19.207  27.707 -0.3162 -0.0930 -0.0251
29475W        W72569   4.716  22.074  30.527 -0.0304 -0.0324  0.0829
29476W        W72570   6.946  18.940  28.348  0.1080  0.3578  0.1280
29477W        W72571   6.419  18.826  27.589 -0.0651  0.0220  0.0873
29478W        W72572   5.249  21.171  31.116 -0.0936  0.2129  0.3506
29479W        W72573   7.432  21.169  28.577 -0.0474 -0.1951 -0.3056
29480W        W72574   7.096  18.070  26.676 -0.1468 -0.2794  0.2785
29481W        W72575   6.785  18.009  28.055 -0.2876 -0.0892  0.0648
29482W        W72576   3.833  19.587  29.468 -0.1242  0.2645  0.2232
29483W        W72577   6.595  20.100  27.041 -0.0109 -0.0841  0.0229
29484W        W72578   5.253  19.613  29.373 -0.1795  0.0850 -0.0359
29485W        W72579   6.322  19.202  28.576 -0.2300 -0.2328  0.0913
29486W        W72580   6.637  21.572  27.846 -0.3667 -0.0938  0.0780
29487W        W72581   4.044  19.053  31.084 -0.0891  0.0669  0.2552
29488W        W72582   6.543  20.862  30.434 -0.1041  0.1036 -0.2639
29489W        W72583   6.209  19.851  29.078 -0.1877  0.1125 -0.1444
29490W        W72584   6.047  19.540  31.208  0.0029  0.0883  0.1828
29491W        W72585   6.807  21.091  26.139  0.1855  0.1375 -0.3417
29492W        W72586   6.180  17.877  29.455  0.0884  0.2074  0.2674
29493W        W72587   4.431  23.365  28.216 -0.1101 -0.1700  0.1207
29494W        W72588   6.693  18.074  29.386  0.1667  0.0676 -0.1970
29495W        W72589   5.822  18.402  29.472  0.1012 -0.1658 -0.1287
29496W        W72590   6.268  18.359  30.518 -0.0634 -0.1464  0.1222
29497W        W72591   6.906  20.011  31.402  0.0783  0.0057 -0.0334
29498W        W72592   6.728  19.134  27.877  0.2191  0.2523 -0.1373
29499W        W72593   7.073  20.415  31.233  0.3112  0.0042  0.0677
29500W        W72594   2.944  19.827  27.877  0.1442 -0.1226 -0.1154
29501W        W72595   6.451  18.817  30.540 -0.2611  0.0037 -0.0454
29502W        W72596   5.407  19.410  29.816  0.0574 -0.1693 -0.3510
29503W        W72597   4.519  21.223  30.547  0.3258  0.0888  0.0632
29504W        W72598   7.532  21.137  31.263 -0.1537 -0.3477 -0.0381
29505W        W72599   5.820  20.537  28.400 -0.2339  0.0444 -0.1042
29506W        W72600   5.547  20.288  31.944  0.1456  0.2790 -0.1016
29507W        W72601   5.064  17.510  27.845  0.2309  0.0637  0.0376
29508W        W72602   5.913  21.985  28.277 -0.2112 -0.2573  0.1685
29509W        W72603   5.887  22.191  27.651  0.1070  0.0617  0.1612
29510W        W72604   4.664  18.819  30.065  0.1607 -0.1491  0.0313
29511W        W72605   5.806  20.361  29.775 -0.0152 -0.1207  0.1507
29512W        W72606   5.106  21.845  27.765 -0.0452 -0.2393 -0.3852
29513W        W72607   5.963  21.661  29.112 -0.0918 -0.0589 -0.0572
29514W        W72608   4.233  21.784  28.933  0.0310 -0.0529 -0.3460
29515W        W72609   7.276  18.532  29.923 -0.1151  0.2983  0.3078
29516W        W72610   3.169  21.417  28.779  0.0555  0.2974  0.0772
29517W        W72611   4.386  20.019  28.468  0.1218 -0.0176  0.2199
29518W        W72612   3.219  21.235  28.326 -0.2010  0.1839  0.1676
29519W        W72613   7.857  17.500  30.176  0.2296 -0.2872 -0.1622
29520W        W72614   6.750  20.798  27.347  0.2788 -0.1666 -0.2579
29521W        W72615   4.670  18.346  30.360  0.1031  0.1829  0.1649
29522W        W72616   4.631  19.133  29.018  0.0347 -0.0758 -0.3088
29523W        W72617   3.448  20.814  29.207  0.0154 -0.1851  0.0230
29524W        W72618   6.690  19.479  30.399 -0.2640  0.0316 -0.2381
29525W        W72619   5.928  19.602  27.765 -0.0590  0.0040  0.1733
29526W        W72620   6.424  20.775  28.974 -0.0709  0.0550  0.4106
29527W        W72621   5.314  19.352  30.774  0.0700  0.0276 -0.0858
29528W        W72622   2.941  20.741  27.842 -0.3818  0.1022  0.1770
29529W        W72623   7.454  17.685  30.428 -0.0545 -0.0640 -0.2449
29530W        W72624   5.911  19.061  28.303 -0.4336  0.3004 -0.3166
29531W        W72625   3.790  22.034  29.375  0.0025 -0.0655  0.1624
29532W        W72626   6.019  21.127  28.732 -0.0551 -0.3783  0.1451
29533W        W72627   4.039  19.126  27.310  0.0885 -0.4046 -0.4874
29534W        W72628   4.932  20.980  27.540  0.0063 -0.1359 -0.4139
29535W        W72629   5.375  18.105  30.413  0.3248 -0.4181 -0.2019
29536W        W72630   6.935  19.462  31.268  0.0165  0.2876 -0.1242
29537W        W72631   4.323  18.729  29.223  0.1323 -0.1235  0.0785
29538W        W72632   4.831  19.276  28.477  0.0422  0.2634  0.2139
29539W        W72633   5.371  19.171  28.418 -0.4412 -0.0240 -0.2539
29540W        W72634   6.574  19.710  29.954 -0.2676 -0.0435 -0.1648
29541W        W72635   7.005  19.019  29.785 -0.3454 -0.3103 -0.2195
29542W        W72636   4.932  20.053  30.541 -0.0215  0.1686  0.0607
29543W        W72637   5.942  19.609  28.726  0.2033 -0.1438  0.0474
29544W        W72638   6.085  20.642  27.882  0.0964 -0.1128 -0.1606
29545W        W72639   7.142  20.970  30.580  0.3539  0.0487  0.1569
29546W        W72640   5.225  21.242  28.617  0.2550 -0.0321  0.0464
29547W        W72641   4.726  21.112  28.641 -0.0822 -0.1287  0.1277
29548W        W72642   7.338  20.901  30.032 -0.1794  0.4522 -0.0302
29549W        W72643   5.114  18.463  28.976 -0.1447 -0.0370  0.1482
29550W        W72644   4.095  21.281  28.702 -0.1315  0.3209 -0.4387
29551W        W72645   4.163  20.489  28.265 -0.1403 -0.1135 -0.2635
29552W        W72646   2.840  21.137  29.126 -0.1627  0.0693  0.0349
29553W        W72647   7.306  18.632  29.134 -0.0143 -0.3307  0.0456
29554W        W72648   6.296  18.703  28.234  0.0160  0.0843 -0.1769
29555W        W72649   5.262  17.662  29.495 -0.0408  0.1588  0.0748
29556W        W72650   8.454  19.293  30.799  0.2746 -0.0642 -0.0536
29557W        W72651   5.961  20.532  28.963  0.0971  0.0070  0.1752
29558W        W72652   5.531  19.525  31.518 -0.3361  0.1681 -0.0793
29559W        W72653   5.244  17.473  29.023  0.1020 -0.0415  0.1758
29560W        W72654   6.866  20.269  29.416  0.1364  0.0555  0.0452
29561W        W72655   4.231  18.642  30.398  0.1105 -0.0597  0.0627
29562W        W72656   5.546  20.854  31.397 -0.1867  0.2412  0.0777
29563W        W72657   6.473  20.465  30.987 -0.0192  0.1185  0.0112
29564W        W72658   5.849  18.092  29.099 -0.0617 -0.0262 -0.0839
29565W        W72659   5.013  18.813  28.323  0.1860  0.5618 -0.2068
29566W        W72660   6.556  19.872  29.443  0.1130 -0.2413 -0.1448
29567W        W72661   8.922  21.224  29.168  0.0467  0.0382  0.1906
29568W        W72662   5.586  20.584  27.928  0.1161  0.1111 -0.1153
29569W        W72663   6.128  19.574  28.309  0.2606 -0.2254  0.0157
29570W        W72664   5.946  19.638  30.133 -0.2108 -0.2715  0.0078
29571W        W72665   6.376  20.380  28.695  0.1937 -0.2608 -0.2461
29572W        W72666   6.625  19.511  26.860 -0.0493  0.1682  0.2794
29573W        W72667   4.571  21.745  29.365 -0.1266  0.0276 -0.5667
29574W        W72668   5.068  18.453  30.113 -0.0455  0.4886  0.1623
29575W        W72669   5.890  19.976  28.092 -0.1823 -0.1856 -0.1404
29576W        W72670   5.918  17.921  28.637 -0.2796  0.2707  0.2900
29577W        W72671   7.068  19.046  29.233 -0.1301 -0.2170  0.0870
29578W        W72672   6.701  19.384  29.651 -0.3607 -0.1152  0.1628
29579W        W72673   5.013  19.561  30.136 -0.0912 -0.3012  0.1280
29580W        W72674   3.641  20.253  30.971 -0.0569 -0.0185 -0.0586
29581W        W72675   7.342  21.736  29.991  0.2448  0.5397 -0.1229
29582W        W72676   7.153  18.312  27.943  0.0189  0.0080 -0.0050
29583W        W72677   8.513  18.647  29.456  0.3569  0.1683  0.0433
29584W        W72678   5.373  20.270  27.650  0.2838  0.0331  0.3261
29585W        W72679   5.257  19.477  28.853 -0.0268  0.1544  0.1023
29586W        W72680   4.459  18.950  28.558 -0.0757  0.2071 -0.0798
29587W        W72681   7.420  19.343  31.486  0.2818 -0.0725  0.1836
29588W        W72682   4.269  19.269  27.753 -0.0033  0.1751  0.1463
29589W        W72683   7.205  19.053  31.131  0.3309 -0.0253  0.1513
29590W        W72684   6.521  22.468  26.898  0.1275  0.4854 -0.1672
29591W        W72685   7.362  20.656  28.564  0.1875  0.1312  0.0143
29592W        W72686   7.315  19.002  28.732 -0.0070 -0.0876 -0.1593
29593W        W72687   3.993  19.077  29.576  0.2786 -0.0801  0.0297
29594W        W72688   3.845  21.473   0.162  0.0286 -0.1373  0.1799
29595W        W72689   4.863  18.561  26.063  0.0878 -0.1890 -0.2248
29596W        W72690   5.422  21.000  28.264  0.0078 -0.0266  0.3190
29597W        W72691   5.981  19.830  30.579  0.1009 -0.3418 -0.0073
29598W        W72692   6.518  21.929   0.643  0.1642  0.1243  0.0076
29599W        W72693   5.836  17.941  28.074 -0.1089  0.3796 -0.2322
29600W        W72694   4.712  17.363   0.385  0.3353 -0.1494  0.1597
29601W        W72695   4.602  20.327  27.995 -0.0367 -0.0992 -0.1798
29602W        W72696   6.770  18.345  30.093  0.4578  0.2246 -0.0359
29603W        W72697   6.086  21.089  30.224 -0.0551  0.2774  0.0026
29604W        W72698   3.294  21.038  29.807 -0.0771  0.0849  0.3154
29605W        W72699   5.622  21.333  28.985  0.1596  0.0343 -0.0454
29606W        W72700   6.346  17.674   0.506  0.0023  0.0492  0.1812
29607W        W72701   6.983  19.297  30.749  0.0771  0.0070  0.1575
29608W        W72702   5.390  20.177  28.164 -0.1598 -0.3526 -0.0160
29609W        W72703   7.981  18.662  30.989  0.0413 -0.1904 -0.1794
29610W        W72704   7.411  20.731  30.986  0.1328 -0.2643 -0.1636
29611W        W72705   4.816  20.480  28.935 -0.0470 -0.1580 -0.0270
29612W        W72706   7.093  20.464  30.217 -0.1605 -0.0679  0.2447
29613W        W72707   8.603  20.810  28.971  0.0016  0.0913 -0.3897
29614W        W72708   3.953  21.500  28.135  0.2206 -0.0818  0.2629
29615W        W72709   5.050  19.584  31.569  0.2275 -0.1430  0.0691
29616W        W72710   5.204  19.346   0.838  0.1221  0.2080 -0.3428
29617W        W72711   4.858  20.118  29.452  0.0330 -0.1244 -0.1952
29618W        W72712   5.081  18.937  28.813  0.0196  0.1444 -0.4915
29619W        W72713   6.081  20.688  26.975  0.1168 -0.2069  0.1833
29620W        W72714   3.933  19.977  31.382 -0.2864 -0.2782  0.1894
29621W        W72715   3.087  18.117  29.014 -0.3778 -0.0582  0.2217
29622W        W72716   5.485  22.211  28.053 -0.0443 -0.2471 -0.1436
29623W        W72717   7.377  19.347  29.046  0.1402  0.1684  0.1254
29624W        W72718   5.458  19.521  26.982 -0.0131  0.0294  0.2552
29625W        W72719   7.259  21.659  29.064  0.2162 -0.2784 -0.2086
29626W        W72720   4.515  18.117  27.405 -0.2257  0.0315 -0.0244
29627W        W72721   3.789  21.980  28.114  0.0330 -0.0221  0.1924
29628W        W72722   3.611  21.857  27.631 -0.1251 -0.1927  0.0791
29629W        W72723   6.810  20.146  28.014 -0.0229 -0.1050  0.0601
29630W        W72724   4.294  20.108  29.281  0.0627  0.0475  0.0062
29631W        W72725   6.291  20.700  31.773 -0.1617  0.1470  0.0968
29632W        W72726   6.754  17.835  27.523  0.1637  0.2013 -0.2874
29633W        W72727   9.074  20.507  28.111 -0.0350 -0.1441 -0.4380
29634W        W72728   4.267  20.334  28.821 -0.0646 -0.1697  0.0948
29635W        W72729   6.796  20.711  29.957 -0.0390 -0.1256  0.1151
29636W        W72730   5.547  19.867  29.986 -0.0263  0.2683 -0.1072
29637W        W72731   6.934  19.159  27.316 -0.2768  0.0311 -0.0005
29638W        W72732   4.346  19.902  31.079  0.1308 -0.1722 -0.0993
29639W        W72733   5.593  18.340  30.021  0.0738 -0.0918  0.4306
29640W        W72734   3.933  21.436  29.827 -0.1726 -0.1301  0.1769
29641W        W72735   6.875  20.936  26.848  0.1274  0.1375  0.1988
29642W        W72736   4.378  20.803  28.767  0.1301 -0.0333 -0.1475
29643W        W72737   4.552  20.475  29.317 -0.1993 -0.1736 -0.1889
29644W        W72738   7.274  18.111  30.679  0.2306  0.0293 -0.1133
29645W        W72739   6.577  20.780  28.017 -0.3278 -0.2226 -0.0523
29646W        W72740   7.779  19.274  28.626 -0.0287 -0.3015  0.1667
29647W        W72741   4.855  21.431  27.826 -0.1372  0.1093  0.1034
29648W        W72742   6.110  20.303  30.486 -0.1032  0.3202 -0.1113
29649W        W72743   3.873  20.768  28.609  0.1077 -0.1473  0.1595
29650W        W72744   4.116  17.652  27.629 -0.2232 -0.0344  0.0276
29651W        W72745   7.969  19.200  27.839 -0.0125 -0.1127  0.0989
29652W        W72746   4.962  20.486  30.266 -0.3633  0.3157  0.0749
29653W        W72747   6.231  18.329  31.439 -0.3051 -0.0178 -0.2717
29654W        W72748   4.456  19.275  30.016 -0.1027  0.1080  0.1898
29655W        W72749   7.029  19.586  27.821 -0.1567 -0.0591  0.0453
29656W        W72750   7.507  21.805  30.543  0.2537 -0.0149 -0.0508
29657W        W72751   5.417  20.344  30.191  0.3355 -0.2551  0.2169
29658W        W72752   5.139  20.682  28.604 -0.2052  0.1226 -0.1017
29659W        W72753   8.488  20.094  29.154  0.0995 -0.0003  0.0391
29660W        W72754   6.321  20.282  28.165 -0.1809  0.0465  0.1058
29661W        W72755   5.926  22.503  30.877  0.2508  0.2028  0.0508
29662W        W72756   3.147  20.129  28.468  0.1788 -0.0215  0.2019
29663W        W72757   6.348  18.255  27.465 -0.0836 -0.2384  0.0999
29664W        W72758   4.163  21.012  28.245  0.0581 -0.1358  0.1032
29665W        W72759   6.023  20.712  31.253  0.0960  0.0027  0.1265
29666W        W72760   7.738  20.328  29.439  0.2240 -0.0217 -0.0933
29667W        W72761   2.425  17.183  28.639 -0.0596 -0.1315  0.0549
29668W        W72762   8.298  20.831  27.631 -0.0605  0.2049 -0.1934
29669W        W72763   8.621  18.803  29.995  0.0623  0.2317 -0.1953
29670W        W72764   5.476  21.112  27.201  0.2426  0.0251  0.3541
29671W        W72765   6.789  19.565  29.176  0.1877  0.0029  0.0475
29672W        W72766   8.540  20.981  29.453 -0.0371 -0.2582  0.3083
29673W        W72767   4.064  18.991  30.066  0.0791 -0.0662  0.0627
29674W        W72768   6.881  20.830  28.535  0.1206  0.0744 -0.6250
29675W        W72769   8.389  20.222  28.560 -0.0917  0.4023  0.4234
29676W        W72770   6.294  18.291  28.545 -0.1540  0.0250  0.0180
29677W        W72771   5.433  18.620  28.585  0.3060  0.2893  0.0934
29678W        W72772   4.530  21.384  28.219  0.1025  0.1333  0.0627
29679W        W72773   7.726  19.431  30.308 -0.4356 -0.1202  0.0237
29680W        W72774   7.420  19.685  30.005 -0.0686 -0.1613  0.3517
29681W        W72775   6.645  21.784  27.338  0.1183 -0.1087  0.3222
29682W        W72776   6.377  17.877  30.368 -0.2246  0.1413  0.0192
29683W        W72777   6.991  21.737  30.601 -0.0163 -0.0108  0.3753
29684W        W72778   4.327  21.350  31.073 -0.0578 -0.4612 -0.1542
29685W        W72779   4.872  19.452  29.667 -0.2191 -0.1717 -0.0921
29686W        W72780   6.272  21.420  31.215 -0.3908  0.0092 -0.0789
29687W        W72781   5.091  19.623  28.172 -0.2214 -0.0550 -0.2510
29688W        W72782   6.077  22.134  28.934 -0.0181  0.2208 -0.2121
29689W        W72783   7.295  20.126  29.686  0.0955  0.0991  0.0849
29690W        W72784   7.725  18.897  28.988  0.0287 -0.0849 -0.2422
29691W        W72785   7.948  20.059  29.055  0.1537 -0.0806  0.0289
29692W        W72786   4.787  18.691  29.326  0.2505  0.2283  0.1105
29693W        W72787   5.875  18.496  28.342 -0.0923  0.4031  0.3048
29694W        W72788   7.202  17.785  28.881 -0.4070 -0.0639  0.0161
29695W        W72789   5.026  20.054  29.975 -0.0688  0.0780  0.0290
29696W        W72790   3.378  20.066  27.992  0.2104 -0.1256  0.0186
29697W        W72791   4.359  21.237  27.727  0.1723 -0.1366 -0.0073
29698W        W72792   4.436  21.300  30.090  0.0784 -0.0550  0.0787
29699W        W72793   6.247  19.673  31.795 -0.0098  0.2130 -0.0782
29700W        W72794   5.530  18.881  30.259 -0.1197  0.1849  0.1110
29701W        W72795   4.054  19.853  28.817  0.2020  0.1948 -0.2250
29702W        W72796   2.930  18.573  28.741  0.0515 -0.2662 -0.0595
29703W        W72797   7.312  20.877  26.455  0.1600 -0.3617  0.1320
29704W        W72798   3.733  18.608  29.916  0.0554 -0.2608  0.1614
29705W        W72799   3.368  18.479  28.291  0.1519  0.0338  0.0879
29706W        W72800   5.758  19.195  29.233 -0.0821  0.0514  0.0810
29707W        W72801   7.563  21.615  27.854  0.2649  0.0697  0.4402
29708W        W72802   5.315  18.495  29.612 -0.1745  0.2311 -0.3593
29709W        W72803   6.619  20.167  30.386 -0.0717 -0.1655  0.3386
29710W        W72804   4.514  21.220  26.853  0.1078  0.0843 -0.5299
29711W        W72805   5.944  20.048  31.248  0.1340  0.2109 -0.2898
29712W        W72806   5.273  20.028  31.489  0.1762 -0.0968  0.2974
29713W        W72807   3.873  19.099  26.795  0.0753  0.0324  0.3790
29714W        W72808   4.040  19.531  29.923 -0.1196  0.2110  0.0113
29715W        W72809   4.353  20.205  30.029  0.0925 -0.0023  0.2852
29716W        W72810   8.449  21.696  27.206 -0.0762 -0.1501 -0.1306
29717W        W72811   4.086  20.555  30.266  0.1000 -0.0327 -0.1505
29718W        W72812   5.589  20.864  28.737  0.2040 -0.4266 -0.1295
29719W        W72813   4.396  19.634  29.176 -0.2433  0.1075 -0.1028
29720W        W72814   7.678  20.010  28.077  0.0295 -0.2582 -0.3271
29721W        W72815   5.865  20.907  29.825  0.0831 -0.0484 -0.0692
29722W        W72816   9.084  21.552  28.452 -0.0934  0.1301 -0.1322
29723W        W72817   7.319  19.438  29.581 -0.0627  0.2157  0.1252
29724W        W72818   5.604  19.888  29.082  0.0893 -0.0210  0.0108
29725W        W72819   4.206  18.064  31.169 -0.0557  0.0845 -0.2756
29726W        W72820   3.053  19.392  29.581  0.0367  0.0938 -0.2021
29727W        W72821   7.266  20.808  29.457  0.1899  0.2374 -0.0921
29728W        W72822   4.591  18.869  30.684 -0.0686  0.1423 -0.1303
29729W        W72823   5.387  20.090  29.549  0.0576 -0.2085  0.1620
29730W        W72824   4.862  21.822  27.354 -0.0789  0.1532  0.2545
29731W        W72825   4.624  20.761  29.743  0.0632 -0.0207 -0.4057
29732W        W72826   5.613  19.565  28.224  0.1189  0.0505  0.0712
29733W        W72827   7.063  20.507  31.761  0.0086  0.1534 -0.1824
29734W        W72828   5.781  19.707  29.565 -0.1421 -0.0479  0.0754
29735W        W72829   6.862  20.636  30.777 -0.0396 -0.0983  0.0442
29736W        W72830   4.965  19.994  27.817 -0.0183  0.2026 -0.0055
29737W        W72831   8.710  19.624  27.694 -0.2255 -0.0897  0.1102
29738W        W72832   7.228  20.924  28.194  0.1259 -0.1617 -0.0675
29739W        W72833   7.776  19.546  31.883  0.2748  0.1404  0.0366
29740W        W72834   5.025  21.422  29.119 -0.3021 -0.1223 -0.1658
29741W        W72835   7.116  19.323  30.241  0.0838  0.4513  0.0163
29742W        W72836   6.055  17.518  30.537  0.0442  0.0283  0.1970
29743W        W72837   4.914  20.097  28.464 -0.0305  0.0318 -0.0939
29744W        W72838   5.656  21.407  28.483 -0.0672  0.2092 -0.2419
29745W        W72839   8.384  19.269  29.925 -0.2235 -0.2060 -0.0513
29746W        W72840   3.471  18.818  30.266  0.1573 -0.2638 -0.0541
29747W        W72841   5.739  17.123  29.888  0.2363  0.3421  0.3845
29748W        W72842   5.315  21.650  30.359 -0.0820  0.1306 -0.0696
29749W        W72843   5.158  20.044  29.032  0.1497  0.1320 -0.1848
29750W        W72844   7.140  18.567   0.012 -0.2399 -0.2266  0.0683
29751W        W72845   6.021  20.762  30.777 -0.0344 -0.0013 -0.0427
29752W        W72846   5.216  20.514  31.598 -0.2698 -0.3051 -0.2239
29753W        W72847   3.633  20.784  31.041 -0.2812 -0.1722  0.1953
29754W        W72848   5.096  22.636   0.803  0.1346  0.0488  0.0936
29755W        W72849   4.149  20.937  29.843 -0.1094 -0.2932 -0.2854
29756W        W72850   7.304  21.851  31.419  0.1481 -0.2274  0.2725
29757W        W72851   5.320  19.847  31.023 -0.1091  0.3996  0.0878
29758W        W72852   5.543  20.380  31.211 -0.1221 -0.1358 -0.1098
29759W        W72853   6.978  19.923  30.212 -0.0285 -0.0946 -0.2114
29760W        W72854   5.483  20.677   0.301  0.1251 -0.2277 -0.2068
29761W        W72855   4.806  19.696  30.927 -0.1491 -0.1166 -0.0457
29762W        W72856   6.266  21.082   0.081  0.2374  0.3213  0.0681
29763W        W72857   4.108  20.292  30.824 -0.2452 -0.1024  0.2312
29764W        W72858   6.367  20.161   0.043 -0.0196 -0.1962 -0.1739
29765W        W72859   6.161  21.290  30.744  0.1528  0.0420 -0.0216
29766W        W72860   4.378  20.035  31.558 -0.0079 -0.2058  0.0251
29767W        W72861   7.742  19.902  31.560  0.0777 -0.3988  0.1407
29768W        W72862   4.264  18.324   0.271 -0.0689  0.0750  0.0632
29769W        W72863   4.141  17.844   0.473 -0.0328  0.0766 -0.1125
29770W        W72864   3.395  19.522   0.117 -0.1173 -0.1145  0.2119
29771W        W72865   4.362  21.741  30.687  0.2024  0.0880  0.0876
29772W        W72866   6.595  18.709  31.424  0.1517  0.2960  0.1378
29773W        W72867   8.374  17.561  31.005  0.0805 -0.0247  0.0355
29774W        W72868   5.707  19.552   0.044  0.0708  0.0631 -0.0812
29775W        W72869   6.819  18.181   0.190  0.2355  0.0150  0.1559
29776W        W72870   5.145  19.127  31.355  0.1420  0.3163  0.0875
29777W        W72871   3.084  22.986   0.046 -0.2712 -0.3887 -0.0554
29778W        W72872   4.932  20.123  31.107 -0.1295  0.0202 -0.0213
29779W        W72873   5.468  19.919  30.522  0.4608 -0.0551 -0.0463
29780W        W72874   5.229  20.394  30.718  0.1655 -0.4211  0.1443
29781W        W72875   5.456  21.313  31.570 -0.1335  0.0726  0.0364
29782W        W72876   6.403  19.909  31.304 -0.0992  0.2562  0.2405
29783W        W72877   7.455  18.605  30.944 -0.2964 -0.2930 -0.0171
29784W        W72878   3.852  19.077  30.480  0.1751 -0.0334 -0.1759
29785W        W72879   4.456  19.743  30.177 -0.3819 -0.2278  0.1962
29786W        W72880   4.232  21.130   0.055 -0.3408  0.0101 -0.2420
29787W        W72881   4.270  20.587  31.735 -0.0032 -0.2164  0.1430
29788W        W72882   6.741  20.874  31.930  0.0183  0.0289  0.0630
29789W        W72883   5.795  21.224  31.130  0.1671 -0.1064 -0.0119
29790W        W72884   7.985  18.496  30.519 -0.0838  0.0114 -0.2434
29791W        W72885   6.706  21.206  31.460 -0.1313  0.0529 -0.2485
29792W        W72886   6.191  19.334  30.579 -0.0546  0.0521 -0.0801
29793W        W72887   5.347  23.257   0.535  0.0658  0.2778  0.2222
29794W        W72888   5.662  19.085  31.252 -0.2921 -0.2165  0.2117
29795W        W72889   5.533  19.291   0.464 -0.0653 -0.2844 -0.1083
29796W        W72890   6.038  16.793  31.188  0.4764  0.1922  0.0533
29797W        W72891   5.167  20.651  31.133 -0.0848  0.1013 -0.2155
29798W        W72892   8.230  19.874  31.628  0.2907  0.1728 -0.0977
29799W        W72893   3.987  20.038  30.353 -0.1606  0.1800 -0.3295
29800W        W72894   8.617  19.474  31.348 -0.1908 -0.2520  0.0402
29801W        W72895   8.244  18.777  31.455  0.1498 -0.2409 -0.0615
29802W        W72896   5.292  19.869  31.950  0.0560 -0.0064  0.3889
29803W        W72897   4.732  20.440  30.764  0.1511  0.1769 -0.0684
29804W        W72898   7.357  21.546  30.957 -0.2205 -0.1532  0.0506
29805W        W72899   4.862  21.504  31.219  0.0381  0.0141 -0.1074
29806W        W72900   5.885  21.467   0.128  0.3425  0.0409 -0.1083
29807W        W72901   4.417  21.680  31.926  0.0510 -0.0265  0.1278
29808W        W72902   4.792  21.051  31.026 -0.0126 -0.1811  0.2196
29809W        W72903   3.635  20.465  30.522 -0.1378 -0.0151 -0.0922
29810W        W72904   3.498  19.411  29.835 -0.3411  0.1109 -0.2926
29811W        W72905   5.632  21.330  30.059  0.1084  0.1740 -0.0468
29812W        W72906   3.480  19.313  29.286  0.0252  0.2117  0.1093
29813W        W72907   3.737  18.542   0.207  0.2839  0.2715  0.1723
29814W        W72908   7.623  21.002  31.753 -0.4971  0.0008 -0.1367
29815W        W72909   7.714  19.977   0.133  0.0719 -0.3229  0.0125
29816W        W72910   8.667  20.085  30.093  0.1771 -0.3751  0.2748
29817W        W72911   5.237  23.702  17.880  0.3068 -0.2659  0.0879
29818W        W72912   3.892  21.944  16.615 -0.1647  0.0300  0.2432
29819W        W72913   6.735  22.645  16.282  0.3321  0.0269 -0.0604
29820W        W72914   7.266  23.256  17.024  0.1820 -0.1063 -0.0920
29821W        W72915   3.157  21.656  17.824  0.1032 -0.1302  0.2710
29822W        W72916   6.071  26.798  17.221 -0.2625  0.0591 -0.1534
29823W        W72917   4.449  22.104  19.360  0.2018 -0.1435  0.2337
29824W        W72918   6.285  25.701  17.603 -0.0722  0.3420  0.0527
29825W        W72919   6.029  25.024  19.478  0.1669  0.0561 -0.1542
29826W        W72920   5.995  24.512  16.308  0.1027 -0.2086 -0.0831
29827W        W72921   4.855  21.336  17.080 -0.1971 -0.2360 -0.1336
29828W        W72922   4.601  24.356  17.847  0.2286  0.0481  0.0492
29829W        W72923   5.675  23.237  18.196  0.0387 -0.0198  0.0140
29830W        W72924   4.768  22.618  18.254  0.1981 -0.0126 -0.1859
29831W        W72925   3.803  23.911  19.465 -0.2423 -0.0282 -0.0358
29832W        W72926   4.719  24.457  16.997  0.0270  0.1362 -0.1721
29833W        W72927   5.145  22.950  17.942 -0.1476  0.0262  0.0020
29834W        W72928   4.143  21.958  17.301 -0.1393 -0.6067 -0.0183
29835W        W72929   5.599  25.537  16.857 -0.0789  0.0187 -0.0826
29836W        W72930   5.780  21.851  18.157  0.1873  0.0462 -0.0709
29837W        W72931   4.371  21.217  20.421  0.1345 -0.1771 -0.2060
29838W        W72932   5.789  24.873  16.747 -0.5457  0.1701 -0.1589
29839W        W72933   2.597  24.101  16.856  0.3391 -0.2513 -0.1240
29840W        W72934   3.254  23.095  16.660  0.3125 -0.1272 -0.1680
29841W        W72935   6.127  23.071  18.329 -0.1652  0.3680 -0.2633
29842W        W72936   6.672  23.782  19.599 -0.3638 -0.1055 -0.2561
29843W        W72937   7.166  23.187  18.256  0.3763  0.3080 -0.2113
29844W        W72938   5.799  24.386  18.392 -0.3139  0.3306  0.0614
29845W        W72939   6.777  25.638  17.481  0.3049 -0.1684  0.3297
29846W        W72940   5.892  23.249  17.619  0.2763  0.1519 -0.2102
29847W        W72941   6.070  24.771  17.603  0.1838 -0.0091 -0.0519
29848W        W72942   4.230  25.784  16.538  0.0086 -0.0316 -0.0968
29849W        W72943   5.522  24.370  16.553  0.2093  0.1143 -0.0630
29850W        W72944   7.063  24.594  17.859  0.2868  0.1572 -0.3827
29851W        W72945   7.196  24.902  21.197 -0.0787  0.1470 -0.1149
29852W        W72946   5.500  27.355  20.532  0.3179 -0.1129 -0.2896
29853W        W72947   3.527  24.107  16.474 -0.1318  0.0635 -0.1819
29854W        W72948   4.739  27.623  19.720 -0.1188 -0.4014 -0.1612
29855W        W72949   3.315  25.167  18.572  0.0423  0.2460 -0.0389
29856W        W72950   5.981  22.802  17.908  0.1267 -0.0812  0.1058
29857W        W72951   5.203  23.828  17.379  0.3002 -0.2557  0.1459
29858W        W72952   4.486  26.139  16.257  0.0182 -0.2540  0.0294
29859W        W72953   5.076  24.500  18.577 -0.2035 -0.0436  0.0257
29860W        W72954   4.013  24.385  17.784 -0.2479  0.2763 -0.1183
29861W        W72955   3.744  25.701  17.814 -0.1129  0.1088 -0.0472
29862W        W72956   6.609  23.278  20.985 -0.2047  0.0616  0.2147
29863W        W72957   4.035  24.780  16.228 -0.0593  0.0053 -0.0635
29864W        W72958   5.469  24.246  17.425  0.0902 -0.1556  0.0920
29865W        W72959   5.273  23.015  16.761  0.1971 -0.1512  0.2652
29866W        W72960   6.187  22.750  16.237 -0.2452 -0.0450  0.0450
29867W        W72961   6.408  23.180  18.786  0.0201 -0.0516 -0.3635
29868W        W72962   4.265  24.811  17.977 -0.1502  0.0317 -0.0637
29869W        W72963   5.118  23.491  19.275  0.0811  0.0971 -0.1077
29870W        W72964   6.442  25.269  19.264 -0.0304  0.1250 -0.1676
29871W        W72965   5.193  23.419  18.262 -0.0876 -0.2133  0.0857
29872W        W72966   5.089  22.676  19.520 -0.2481 -0.1264  0.0265
29873W        W72967   2.896  25.658  17.425  0.1327  0.2052 -0.0112
29874W        W72968   3.232  24.490  18.938  0.2619  0.0697 -0.2655
29875W        W72969   6.116  26.410  15.875 -0.0555 -0.2522 -0.2683
29876W        W72970   7.665  25.463  17.766  0.1489  0.0108 -0.1674
29877W        W72971   5.512  26.500  16.546  0.2401 -0.0604  0.0334
29878W        W72972   2.310  24.176  18.515  0.2100 -0.2012  0.1044
29879W        W72973   4.720  22.767  18.708  0.3587 -0.3775 -0.1435
29880W        W72974   2.423  23.244  19.519 -0.0804 -0.0835  0.0982
29881W        W72975   5.029  22.500  17.771  0.0062  0.2917 -0.1515
29882W        W72976   7.264  25.717  19.587 -0.0743 -0.1548 -0.4848
29883W        W72977   3.195  23.229  20.009  0.0661  0.1971 -0.1822
29884W        W72978   5.975  22.620  17.216 -0.1080 -0.2333 -0.1089
29885W        W72979   5.340  23.296  17.574 -0.2128 -0.1768 -0.0671
29886W        W72980   7.176  24.667  18.319 -0.0269  0.1012 -0.0315
29887W        W72981   6.294  24.573  16.703 -0.1961  0.2047  0.3181
29888W        W72982   6.981  23.665  18.157 -0.3436 -0.0385 -0.2555
29889W        W72983   8.485  22.842  18.838 -0.1859 -0.1278  0.0614
29890W        W72984   4.801  24.203  16.099 -0.1054  0.0160 -0.3373
29891W        W72985   4.888  23.817  16.894 -0.2495  0.1797 -0.2253
29892W        W72986   6.070  25.150  20.672  0.2182  0.0465 -0.0413
29893W        W72987   6.700  22.851  16.791 -0.0057 -0.0236  0.0697
29894W        W72988   3.437  24.055  18.310 -0.2989  0.0050 -0.0617
29895W        W72989   4.303  23.002  19.504 -0.0696  0.5580 -0.3179
29896W        W72990   6.309  25.028  19.977 -0.0317  0.3899 -0.3656
29897W        W72991   3.596  23.571  16.819  0.2925  0.4109 -0.0832
29898W        W72992   1.095  24.083  17.812 -0.2380 -0.1255 -0.1818
29899W        W72993   2.220  25.329  17.827 -0.1202  0.1818 -0.2644
29900W        W72994   4.526  22.211  17.862 -0.1988 -0.1478 -0.2035
29901W        W72995   4.136  25.091  17.608  0.0124 -0.2013 -0.3679
29902W        W72996   7.579  22.076  16.087  0.1302 -0.0095  0.0871
29903W        W72997   3.245  21.945  19.615 -0.3657  0.2518  0.2353
29904W        W72998   6.912  22.681  19.029  0.1886  0.4157 -0.1318
29905W        W72999   3.975  24.151  17.372 -0.1340  0.0874 -0.6010
29906W        W73000   6.573  25.502  16.962  0.2251 -0.2294 -0.1981
29907W        W73001   8.048  22.851  17.236 -0.2881 -0.5398  0.2882
29908W        W73002   5.856  25.716  16.439  0.0410 -0.0031 -0.2196
29909W        W73003   3.977  23.742  17.738 -0.2770 -0.0794  0.2695
29910W        W73004   3.566  22.863  17.660 -0.2957 -0.4203  0.1716
29911W        W73005   4.276  23.366  19.200 -0.0476  0.1811  0.1160
29912W        W73006   3.999  21.941  17.817 -0.4573  0.0989 -0.1522
29913W        W73007   7.340  23.534  19.031  0.0673  0.3348  0.2154
29914W        W73008   3.318  21.536  16.879  0.3064  0.2578  0.2780
29915W        W73009   6.406  23.001  17.322 -0.1122 -0.0946  0.2125
29916W        W73010   4.604  22.722  17.720 -0.0793  0.0443  0.0705
29917W        W73011   4.296  23.944  16.086 -0.2253 -0.1841 -0.1555
29918W        W73012   6.355  22.271  19.220 -0.0588 -0.4913 -0.0563
29919W        W73013   5.779  25.659  17.377 -0.2738  0.2486  0.0474
29920W        W73014   4.891  24.813  20.430  0.0120 -0.0569 -0.2273
29921W        W73015   6.611  26.369  16.573  0.2453  0.0535  0.0537
29922W        W73016   5.965  23.972  18.751 -0.1228  0.2993 -0.0714
29923W        W73017   4.537  22.588  16.288  0.3445 -0.0092  0.0205
29924W        W73018   2.957  25.393  18.271 -0.0674 -0.0019  0.1064
29925W        W73019   4.873  24.664  18.164  0.1060  0.3071 -0.4763
29926W        W73020   4.169  22.826  17.966 -0.2309  0.0240  0.0627
29927W        W73021   7.879  24.840  17.241  0.0325  0.0234  0.2780
29928W        W73022   6.857  23.450  17.255  0.2507 -0.1915  0.2476
29929W        W73023   5.079  24.660  17.402  0.0146  0.1295  0.1771
29930W        W73024   7.315  21.454  18.472 -0.1836  0.2692 -0.0796
29931W        W73025   7.468  23.836  19.893 -0.3795  0.0676  0.1821
29932W        W73026   5.352  24.101  19.265 -0.3308 -0.2658 -0.0579
29933W        W73027   4.294  21.337  16.910 -0.1466  0.2537  0.2140
29934W        W73028   6.043  26.173  17.195 -0.2319 -0.0683  0.1341
29935W        W73029   4.744  25.820  16.622 -0.2604  0.0613  0.0721
29936W        W73030   3.369  23.559  17.747 -0.0605 -0.1896 -0.0020
29937W        W73031   6.067  25.279  17.453 -0.3208  0.0950 -0.2342
29938W        W73032   6.717  21.994  17.178  0.0294  0.0318  0.2457
29939W        W73033   3.702  23.370  20.023  0.3015 -0.0507  0.0789
29940W        W73034   5.804  24.300  17.837 -0.1572  0.0717  0.1863
29941W        W73035   4.130  23.565  16.440 -0.1011  0.0814  0.0375
29942W        W73036   1.918  23.215  19.383  0.1185  0.3223  0.0834
29943W        W73037   6.103  21.275  17.222 -0.1349  0.0228  0.2062
29944W        W73038   6.183  22.844  16.714 -0.1935  0.0086 -0.2398
29945W        W73039   4.452  23.980  17.066 -0.0679  0.0938 -0.2483
29946W        W73040   6.554  25.193  17.364 -0.0452 -0.0126  0.0298
29947W        W73041   6.340  22.257  16.842  0.1894 -0.0427  0.3346
29948W        W73042   5.874  22.214  16.975  0.1069 -0.4442 -0.1349
29949W        W73043   5.240  24.569  19.044 -0.2324  0.1422  0.0897
29950W        W73044   6.989  24.975  16.370  0.2607 -0.2002  0.1652
29951W        W73045   5.140  22.988  19.075 -0.1339 -0.1075  0.3244
29952W        W73046   5.610  22.564  16.718 -0.0230  0.0498 -0.1146
29953W        W73047   5.341  25.543  17.333 -0.2430  0.3435  0.0263
29954W        W73048   2.246  25.713  18.897 -0.1642  0.1436  0.0684
29955W        W73049   5.341  24.692  19.584 -0.3493 -0.0632 -0.1329
29956W        W73050   6.469  25.067  16.698  0.2416  0.0130  0.1211
29957W        W73051   5.937  21.026  18.075 -0.0132 -0.2893  0.1178
29958W        W73052   4.878  23.041  16.389  0.0334 -0.2991 -0.1972
29959W        W73053   5.868  23.602  16.776  0.3962  0.1363 -0.0622
29960W        W73054   3.778  26.862  15.968 -0.2056  0.1725 -0.0743
29961W        W73055   6.644  22.287  18.840 -0.0376  0.0891  0.0817
29962W        W73056   5.439  24.214  18.743 -0.0543  0.0524  0.0697
29963W        W73057   6.234  20.062  18.447  0.0567  0.1361 -0.0080
29964W        W73058   6.986  24.708  20.761  0.0737  0.1225  0.4484
29965W        W73059   6.442  23.350  16.853 -0.0400 -0.0885 -0.3427
29966W        W73060   6.377  24.029  19.136  0.0079  0.0801 -0.2017
29967W        W73061   5.418  23.799  16.013  0.1936  0.4159  0.0905
29968W        W73062   5.026  22.016  17.593 -0.1130 -0.1175 -0.3508
29969W        W73063   2.548  24.344  19.466  0.0846  0.1614  0.0452
29970W        W73064   2.634  25.753  20.254  0.1009 -0.0324 -0.2568
29971W        W73065   6.875  24.063  22.187  0.1149 -0.1538 -0.0063
29972W        W73066   6.582  24.233  16.977  0.1719 -0.1199  0.2331
29973W        W73067   7.261  22.931  18.672 -0.2740  0.0979  0.1003
29974W        W73068   5.431  22.163  16.154 -0.0759  0.1191 -0.0333
29975W        W73069   3.854  25.756  16.860  0.1854  0.0037  0.0426
29976W        W73070   5.583  23.990  16.931  0.1998 -0.0589  0.2637
29977W        W73071   6.027  20.196  17.714  0.1788 -0.0888  0.0902
29978W        W73072   5.166  24.257  16.938 -0.0342  0.3482  0.0017
29979W        W73073   4.542  23.442  16.848 -0.0418 -0.3328  0.0028
29980W        W73074   6.282  24.673  19.147 -0.0926 -0.2336  0.1232
29981W        W73075   4.728  24.950  16.744  0.0730 -0.0690 -0.1651
29982W        W73076   6.840  21.229  17.786  0.2367 -0.1160 -0.1107
29983W        W73077   3.184  26.203  18.604 -0.0030  0.0135 -0.0352
29984W        W73078   4.351  22.912  15.830  0.0492  0.2899 -0.2676
29985W        W73079   3.008  23.803  16.722 -0.0645 -0.0493 -0.0680
29986W        W73080   6.632  22.506  17.161 -0.1469  0.0103  0.2753
29987W        W73081   6.821  24.564  15.998  0.1083  0.0609  0.3447
29988W        W73082   5.623  22.260  18.600 -0.0052  0.3569 -0.1379
29989W        W73083   5.904  22.313  17.627  0.0490  0.2406 -0.0821
29990W        W73084   3.689  26.228  18.105  0.0143  0.0679 -0.2020
29991W        W73085   5.561  22.796  19.317 -0.1901 -0.3139 -0.0405
29992W        W73086   6.227  21.608  15.655 -0.0563  0.2001  0.5660
29993W        W73087   6.634  24.272  17.860 -0.0627  0.0146 -0.0267
29994W        W73088   4.321  24.020  19.574  0.0160 -0.0908  0.0934
29995W        W73089   4.717  22.925  16.851 -0.1742  0.0184  0.0613
29996W        W73090   8.964  25.841  18.843 -0.0022 -0.0434  0.0187
29997W        W73091   5.786  23.695  17.809 -0.0261 -0.2479  0.1421
29998W        W73092   3.905  25.212  18.049  0.2994 -0.0622 -0.2109
29999W        W73093   4.756  24.173  19.263  0.1796 -0.2666  0.0180
30000W        W73094   4.873  23.349  17.643 -0.2675 -0.2428 -0.6004
30001W        W73095   3.951  24.929  18.440 -0.1309 -0.1759  0.0769
30002W        W73096   4.615  23.054  18.118  0.2614  0.2312 -0.1682
30003W        W73097   6.990  25.082  18.681  0.3348  0.0462 -0.1618
30004W        W73098   5.412  22.188  17.879 -0.0341  0.3038 -0.0529
30005W        W73099   7.027  24.494  17.332  0.1106 -0.0314 -0.1078
30006W        W73100   6.815  23.994  17.342 -0.1898  0.0495  0.0358
30007W        W73101   5.960  23.938  18.157 -0.0877 -0.1853 -0.2669
30008W        W73102   6.415  22.746  19.219  0.0875 -0.0678  0.2147
30009W        W73103   4.968  25.479  19.981  0.0822  0.0928  0.2039
30010W        W73104   5.190  20.918  17.311  0.3427 -0.1231 -0.2000
30011W        W73105   6.147  25.111  17.982  0.1087 -0.4643 -0.0125
30012W        W73106   4.284  23.460  20.101 -0.0713  0.1833 -0.0344
30013W        W73107   2.597  23.838  19.366  0.4937 -0.3219  0.0030
30014W        W73108   4.367  23.941  17.593  0.0192 -0.2585 -0.0652
30015W        W73109   5.125  24.243  17.780  0.1396 -0.0391 -0.2883
30016W        W73110   5.352  21.553  17.853 -0.0686 -0.0079 -0.0852
30017W        W73111   5.022  23.807  19.647 -0.2004  0.0533  0.1937
30018W        W73112   5.532  24.547  17.051 -0.3771 -0.3517 -0.1292
30019W        W73113   2.564  25.289  19.099  0.2259  0.0458 -0.0697
30020W        W73114   7.803  22.484  16.390  0.4046  0.1134  0.0643
30021W        W73115   4.999  24.520  16.523 -0.0716 -0.0224  0.0201
30022W        W73116   4.983  23.265  17.136  0.1403 -0.1467 -0.1336
30023W        W73117   7.239  23.202  19.826  0.0049  0.1053 -0.1144
30024W        W73118   7.212  22.929  16.628  0.4397 -0.4386  0.0371
30025W        W73119   6.372  22.658  18.195 -0.1883 -0.0953 -0.2753
30026W        W73120   4.246  22.961  18.535  0.0748 -0.2171  0.1027
30027W        W73121   5.540  25.175  18.223 -0.1847 -0.2589  0.1864
30028W        W73122   5.071  23.506  18.800 -0.0439 -0.0635 -0.0427
30029W        W73123   6.335  25.450  19.725  0.0506  0.3133  0.0661
30030W        W73124   4.376  24.725  20.397  0.0433  0.0859 -0.0144
30031W        W73125   5.645  23.568  17.274  0.2274  0.2973  0.3261
30032W        W73126   5.587  23.002  17.128 -0.0990  0.2414 -0.0134
30033W        W73127   3.928  25.281  17.088  0.0521 -0.1397  0.1186
30034W        W73128   6.743  25.891  18.390  0.0784 -0.0201  0.4286
30035W        W73129   5.605  25.291  17.730  0.0006 -0.3123 -0.2332
30036W        W73130   6.513  23.838  18.162 -0.2923 -0.0745  0.2418
30037W        W73131   4.695  24.684  18.923  0.4282  0.4324  0.2832
30038W        W73132   5.753  23.621  18.499  0.1945  0.5062 -0.2611
30039W        W73133   4.194  24.341  16.935 -0.1966  0.3896  0.0909
30040W        W73134   4.836  24.134  17.350 -0.1323 -0.0377 -0.3683
30041W        W73135   3.682  21.619  19.751  0.1539 -0.1863 -0.0044
30042W        W73136   5.417  25.348  18.752  0.1320  0.0588 -0.2010
30043W        W73137   6.080  24.054  20.004 -0.1173 -0.2313  0.0973
30044W        W73138   6.270  21.913  17.824  0.1346  0.3652  0.1726
30045W        W73139   6.229  23.570  18.475 -0.1895  0.0764 -0.0016
30046W        W73140   5.550  23.227  20.180 -0.2011 -0.1396  0.3558
30047W        W73141   3.336  23.077  19.197 -0.2879  0.0721 -0.3011
30048W        W73142   7.468  25.954  19.026  0.1601 -0.0358 -0.0263
30049W        W73143   6.557  23.138  16.389 -0.1734  0.0387  0.0199
30050W        W73144   6.587  23.582  19.106  0.0478 -0.1145 -0.0361
30051W        W73145   7.492  23.660  18.134  0.2456 -0.1033 -0.2196
30052W        W73146   5.885  23.967  17.389 -0.0326  0.1022  0.5049
30053W        W73147   4.168  21.808  18.708  0.4769  0.0224 -0.3451
30054W        W73148   5.153  22.837  20.062  0.0237 -0.0159  0.0732
30055W        W73149   4.762  21.603  16.709  0.2878  0.1930 -0.4410
30056W        W73150   5.754  22.754  18.490 -0.0434  0.0502  0.1455
30057W        W73151   4.930  25.559  16.196 -0.1178 -0.3582  0.1386
30058W        W73152   5.057  22.837  17.419 -0.1833 -0.2120  0.0956
30059W        W73153   7.573  24.509  17.598 -0.2256  0.2899  0.1817
30060W        W73154   3.087  22.650  17.541  0.1969 -0.1893  0.0282
30061W        W73155   3.842  25.191  18.937 -0.0482 -0.1122 -0.0509
30062W        W73156   3.998  21.674  18.269 -0.0607  0.1363 -0.0221
30063W        W73157   5.490  23.385  16.387 -0.1504 -0.1859  0.0760
30064W        W73158   4.542  24.384  19.828 -0.1284 -0.2695  0.2558
30065W        W73159   6.448  22.692  19.704 -0.0724 -0.3256  0.0950
30066W        W73160   6.236  21.126  15.823  0.2233 -0.1214 -0.0230
30067W        W73161   5.965  23.459  19.946  0.0648 -0.0350 -0.0351
30068W        W73162   4.339  24.684  16.631 -0.0911 -0.1789  0.3430
30069W        W73163   6.001  22.278  18.149  0.2292  0.1846  0.3320
30070W        W73164   4.154  24.864  18.884 -0.2616  0.0106  0.0430
30071W        W73165   3.689  24.739  17.778 -0.3572 -0.0978 -0.0263
30072W        W73166   4.053  25.653  17.346  0.1403 -0.0646  0.2499
30073W        W73167   6.337  22.604  17.611 -0.0572  0.2014  0.1237
30074W        W73168   5.827  23.944  19.246 -0.2424 -0.0366 -0.3543
30075W        W73169   5.001  22.412  19.093  0.2237  0.4207  0.0432
30076W        W73170   5.990  23.539  18.983  0.0631  0.0222  0.2946
30077W        W73171   6.519  24.455  22.055 -0.0854 -0.0557 -0.1652
30078W        W73172   3.726  23.790  18.684 -0.1154  0.0865 -0.1206
30079W        W73173   6.810  24.360  19.887  0.2292 -0.2329  0.2518
30080W        W73174   6.997  25.985  17.899  0.0170  0.2097  0.1595
30081W        W73175   4.390  24.440  17.394  0.0446  0.1224 -0.0219
30082W        W73176   2.597  21.735  18.722  0.3258 -0.0064  0.2896
30083W        W73177   4.376  24.489  19.262  0.0850 -0.2024  0.1389
30084W        W73178   5.157  23.514  20.067  0.2405 -0.1123  0.0112
30085W        W73179   3.786  21.233  17.577 -0.3046 -0.1311 -0.1764
30086W        W73180   6.030  24.112  16.809  0.0550 -0.2381  0.1550
30087W        W73181   3.840  24.465  19.138 -0.1181 -0.1893  0.1594
30088W        W73182   3.257  24.920  17.601  0.2574  0.1790  0.2309
30089W        W73183   4.505  26.036  19.810  0.0824  0.2033 -0.0532
30090W        W73184   6.780  24.488  16.466  0.0671 -0.1495 -0.1604
30091W        W73185   6.965  25.286  16.726 -0.1064 -0.0924  0.2865
30092W        W73186   5.326  24.577  18.111  0.0873  0.0614  0.1292
30093W        W73187   4.105  23.532  17.292 -0.0157  0.2883  0.0029
30094W        W73188   2.124  25.239  18.695 -0.0450  0.0082  0.1685
30095W        W73189   3.234  25.180  16.289  0.2714 -0.3483 -0.2296
30096W        W73190   5.056  25.304  16.657  0.0907 -0.1706  0.0523
30097W        W73191   4.263  25.147  16.039 -0.1068  0.6224 -0.2217
30098W        W73192   7.240  25.243  19.748 -0.2036 -0.1198 -0.0643
30099W        W73193   7.139  20.847  17.207 -0.0914  0.1534  0.3974
30100W        W73194   7.266  23.772  16.712 -0.1437  0.0520 -0.1722
30101W        W73195   6.729  21.239  16.696  0.1140 -0.3237 -0.0801
30102W        W73196   5.968  25.533  19.410 -0.0270  0.1027 -0.0605
30103W        W73197   6.225  23.951  17.747 -0.0241 -0.1649 -0.1133
30104W        W73198   5.609  21.951  16.611 -0.1113  0.1004 -0.0248
30105W        W73199   4.576  22.199  20.178 -0.0777  0.1948  0.2079
30106W        W73200   6.829  24.443  19.295  0.2771  0.3189 -0.0788
30107W        W73201   2.852  24.832  19.931  0.0835  0.1221  0.0849
30108W        W73202   4.534  25.301  16.380  0.2490  0.1215  0.0328
30109W        W73203   4.224  22.690  16.671 -0.1125 -0.0671 -0.1798
30110W        W73204   4.943  24.145  18.203 -0.1008  0.0173 -0.0133
30111W        W73205   7.424  22.526  18.914 -0.0014  0.1755 -0.2252
30112W        W73206   2.571  24.493  17.170  0.4509  0.1835 -0.0712
30113W        W73207   6.860  22.672  18.028 -0.1616  0.2000 -0.0427
30114W        W73208   4.695  25.240  15.785 -0.1418  0.3196  0.2524
30115W        W73209   3.831  24.763  17.296  0.1456  0.0189 -0.0807
30116W        W73210   4.341  23.987  18.083  0.2894  0.0436  0.1740
30117W        W73211   4.383  21.847  16.833 -0.0703 -0.2515 -0.0016
30118W        W73212   7.874  23.543  16.589 -0.1386  0.0639 -0.2522
30119W        W73213   5.228  23.853  18.497 -0.1483  0.1138 -0.0210
30120W        W73214   6.915  21.880  19.099  0.2806  0.4328 -0.0528
30121W        W73215   4.351  23.418  17.717 -0.1339 -0.3476 -0.4476
30122W        W73216   7.502  22.501  16.801 -0.0057  0.1200 -0.1711
30123W        W73217   5.474  22.701  18.862 -0.2308  0.0111  0.0484
30124W        W73218   3.493  23.368  19.548 -0.1671 -0.3153 -0.2723
30125W        W73219   5.320  23.556  16.862  0.0226 -0.2316 -0.0322
30126W        W73220   6.176  23.741  19.521  0.2156  0.0847  0.0075
30127W        W73221   4.566  23.116  17.329  0.0942 -0.1976  0.2157
30128W        W73222   6.645  26.283  19.770 -0.0458  0.0017 -0.1014
30129W        W73223   5.110  21.141  18.014 -0.1999  0.1062  0.1436
30130W        W73224   6.336  23.792  17.088  0.1851  0.4238 -0.4300
30131W        W73225   1.919  24.525  18.239  0.0727  0.0048  0.1445
30132W        W73226   3.887  24.057  18.155  0.3355 -0.4140 -0.0936
30133W        W73227   6.674  24.088  20.868 -0.0734  0.2342  0.0319
30134W        W73228   4.345  22.000  18.245 -0.2070  0.1309 -0.3332
30135W        W73229   6.296  25.528  16.344 -0.3679 -0.0680  0.1384
30136W        W73230   8.413  23.915  18.314 -0.0955  0.4398  0.2492
30137W        W73231   4.812  26.394  15.912  0.0238  0.1909 -0.0435
30138W        W73232   8.395  23.474  18.152 -0.0417  0.0095  0.3161
30139W        W73233   5.520  25.667  18.296  0.1297  0.0412  0.0911
30140W        W73234   3.666  23.177  18.439 -0.3705 -0.0224  0.0525
30141W        W73235   5.917  25.634  18.022  0.1279 -0.1387  0.2680
30142W        W73236   6.980  26.107  19.396  0.0778 -0.2019 -0.1526
30143W        W73237   5.611  21.808  17.431 -0.0783 -0.0573  0.2225
30144W        W73238   4.667  21.768  17.291 -0.0374 -0.2074 -0.0795
30145W        W73239   2.771  25.422  16.392 -0.4130 -0.1355 -0.3007
30146W        W73240   5.485  23.263  18.707 -0.1107  0.1342  0.0985
30147W        W73241   8.494  23.437  19.457 -0.0084 -0.4021  0.1321
30148W        W73242   3.215  26.311  17.188  0.3178 -0.1576  0.0639
30149W        W73243   6.809  21.927  20.122  0.1367  0.1135  0.2671
30150W        W73244   5.768  24.285  20.390 -0.2571 -0.1215 -0.0669
30151W        W73245   5.907  25.060  18.881  0.0819  0.1007 -0.1194
30152W        W73246   3.356  22.751  17.049 -0.0436  0.1786  0.1638
30153W        W73247   4.773  23.725  18.445  0.4143 -0.0563  0.0824
30154W        W73248   5.165  25.027  17.909  0.1769  0.1752 -0.1263
30155W        W73249   3.892  25.467  16.303  0.4567 -0.1069 -0.3654
30156W        W73250   6.097  25.721  17.019  0.3622  0.1791  0.1220
30157W        W73251   5.942  23.011  18.952  0.2569  0.2086 -0.1004
30158W        W73252   7.115  23.776  18.615 -0.0089  0.0859 -0.1988
30159W        W73253   4.428  22.631  17.142  0.0030  0.1343  0.2184
30160W        W73254   6.080  21.910  17.320 -0.0234  0.0067 -0.2355
30161W        W73255   6.888  22.345  16.716 -0.0670 -0.2131 -0.1544
30162W        W73256   3.842  22.727  18.409 -0.1828  0.1048  0.0385
30163W        W73257   3.718  23.812  16.166  0.1869 -0.3488  0.0802
30164W        W73258   4.976  23.466  16.546 -0.4214  0.0929  0.2361
30165W        W73259   3.633  25.209  17.599 -0.2441  0.2922  0.1948
30166W        W73260   4.645  22.595  19.315  0.0357  0.4568 -0.0803
30167W        W73261   3.046  22.449  19.718 -0.0552 -0.1690  0.0388
30168W        W73262   4.319  24.878  17.149 -0.2275  0.1394  0.0225
30169W        W73263   4.879  22.023  16.964  0.0244  0.0381  0.2220
30170W        W73264   5.654  25.128  17.212 -0.2873  0.0844  0.2768
30171W        W73265   4.667  21.746  17.803  0.2492 -0.3035  0.0687
30172W        W73266   3.910  21.187  18.105 -0.1493 -0.2673 -0.1628
30173W        W73267   7.278  24.309  16.697 -0.0987  0.1836  0.1175
30174W        W73268   7.017  25.735  17.004  0.2156  0.1463  0.1540
30175W        W73269   5.074  22.512  17.046  0.2884 -0.0532 -0.2232
30176W        W73270   6.546  24.991  20.695  0.1902  0.2995  0.1646
30177W        W73271   1.876  26.134  17.527  0.1948 -0.2454 -0.2004
30178W        W73272   4.279  24.184  20.251 -0.2346 -0.1518 -0.1901
30179W        W73273   5.254  21.983  18.884 -0.1757  0.3448  0.1687
30180W        W73274   2.833  22.034  17.459 -0.3196 -0.1716 -0.0606
30181W        W73275   6.745  22.203  18.200 -0.0665  0.1092  0.0959
30182W        W73276   5.776  26.074  16.795  0.1417  0.0530 -0.1135
30183W        W73277   5.421  24.732  16.268 -0.1002 -0.2531  0.1163
30184W        W73278   4.222  24.354  18.809 -0.2568 -0.1435  0.1569
30185W        W73279   5.467  25.554  20.103 -0.0799 -0.0676  0.1865
30186W        W73280   3.897  22.194  18.455  0.0249  0.0484 -0.1404
30187W        W73281   7.724  23.812  17.056 -0.0652 -0.2069 -0.2639
30188W        W73282   5.567  24.984  19.232  0.2875  0.1112  0.1233
30189W        W73283   7.733  24.600  16.706 -0.3440 -0.7345  0.1741
30190W        W73284   7.207  21.971  17.931 -0.1475 -0.0783 -0.2844
30191W        W73285   6.038  25.346  16.719 -0.1701 -0.0231  0.2078
30192W        W73286   4.089  22.228  20.619  0.2967 -0.0385  0.7435
30193W        W73287   2.060  24.089  19.639  0.1832  0.1240 -0.1604
30194W        W73288   6.545  24.866  17.782  0.4630  0.2264  0.0413
30195W        W73289   4.648  22.398  16.722  0.0095  0.1784  0.1523
30196W        W73290   6.448  23.020  17.855 -0.2347 -0.1340  0.0248
30197W        W73291   6.157  24.895  17.128 -0.2853 -0.2491  0.1596
30198W        W73292   3.237  22.995  18.327  0.0511 -0.1825  0.0321
30199W        W73293   6.095  24.389  17.202 -0.0212 -0.0316 -0.0888
30200W        W73294   2.968  24.161  19.687  0.0174  0.3127 -0.0153
30201W        W73295   5.508  23.720  18.994  0.2366  0.0015 -0.2923
30202W        W73296   6.247  24.094  20.620 -0.1224  0.1343 -0.0349
30203W        W73297   4.354  23.119  16.465 -0.0042 -0.0822 -0.2104
30204W        W73298   6.918  23.333  16.657  0.0202 -0.2342  0.0185
30205W        W73299   6.553  25.777  19.246  0.0591  0.0870 -0.0113
30206W        W73300   7.422  24.360  18.093 -0.0113  0.0132 -0.0488
30207W        W73301   3.697  24.275  18.684 -0.1402  0.1489  0.1494
30208W        W73302   6.200  24.523  18.026 -0.0623 -0.0516 -0.1790
30209W        W73303   3.027  21.293  18.142 -0.2015 -0.0880  0.0242
30210W        W73304   4.672  23.645  17.336 -0.2263 -0.0527  0.0274
30211W        W73305   5.562  22.820  17.664  0.2286  0.0661  0.2641
30212W        W73306   6.284  24.232  18.408  0.1361  0.0669 -0.1504
30213W        W73307   4.748  23.812  17.859 -0.1122  0.3711  0.1986
30214W        W73308   6.866  22.088  16.224  0.0136  0.1029  0.0309
30215W        W73309   4.898  24.110  18.785 -0.4336  0.2151  0.0099
30216W        W73310   5.510  24.795  18.696 -0.4687  0.2351 -0.1872
30217W        W73311   4.533  24.727  21.314 -0.0466  0.0693  0.1005
30218W        W73312   4.715  24.194  22.055  0.2473  0.1248  0.3101
30219W        W73313   6.889  23.503  20.090 -0.0086 -0.0689 -0.0143
30220W        W73314   6.565  23.906  20.162  0.0192  0.2196  0.1436
30221W        W73315   3.432  23.857  20.031 -0.1575 -0.2027 -0.1473
30222W        W73316   7.254  25.712  22.179  0.1327 -0.0383 -0.0949
30223W        W73317   4.629  21.346  23.810  0.3664  0.0623 -0.1266
30224W        W73318   6.195  27.146  22.526  0.0342  0.0112 -0.2306
30225W        W73319   7.367  25.840  21.715 -0.1582  0.0647 -0.0623
30226W        W73320   5.717  23.772  20.208  0.0593  0.1412 -0.1574
30227W        W73321   4.733  22.534  22.966 -0.1811 -0.0318 -0.4149
30228W        W73322   4.279  25.003  22.145  0.0309  0.2956  0.0490
30229W        W73323   4.197  22.989  19.995  0.0576  0.2025  0.1773
30230W        W73324   3.976  21.642  22.852  0.0368  0.1099 -0.2604
30231W        W73325   6.055  24.204  23.205 -0.3008  0.0852 -0.2670
30232W        W73326   2.944  23.673  19.910  0.0106  0.1994 -0.0965
30233W        W73327   5.115  23.667  21.830  0.4587 -0.2461 -0.0630
30234W        W73328   3.622  23.580  20.604 -0.1654 -0.0181  0.0627
30235W        W73329   5.797  24.891  20.314 -0.1089  0.1382 -0.0971
30236W        W73330   6.073  22.995  22.874  0.0151 -0.0396 -0.0261
30237W        W73331   6.609  21.701  22.542 -0.2956 -0.1492 -0.3762
30238W        W73332   5.720  25.182  21.002 -0.2383  0.0971  0.1169
30239W        W73333   2.744  24.514  18.764 -0.0017 -0.3307 -0.1005
30240W        W73334   4.349  23.386  22.038 -0.3325 -0.2426 -0.0371
30241W        W73335   5.084  24.128  21.611  0.4486 -0.0826  0.1511
30242W        W73336   7.022  22.547  22.373  0.1986  0.1938 -0.0228
30243W        W73337   6.005  24.389  21.765  0.0044 -0.0289 -0.0916
30244W        W73338   5.223  26.158  21.069  0.3409  0.2151  0.4014
30245W        W73339   6.010  25.791  22.644 -0.0990  0.3585 -0.1077
30246W        W73340   5.818  23.154  24.208 -0.1885  0.0430  0.3173
30247W        W73341   3.365  24.342  21.022 -0.1673 -0.1425 -0.2556
30248W        W73342   3.046  26.126  21.506 -0.1811  0.0444  0.3590
30249W        W73343   3.774  25.055  20.662 -0.0350 -0.4072 -0.2505
30250W        W73344   6.909  24.077  21.705 -0.0404  0.0993  0.2807
30251W        W73345   5.844  26.440  23.922  0.0298  0.0575  0.0858
30252W        W73346   4.817  25.974  24.025 -0.0820  0.1515  0.0087
30253W        W73347   2.378  25.039  20.066 -0.1015  0.0463  0.1299
30254W        W73348   5.989  26.754  22.699  0.0647 -0.1816  0.2635
30255W        W73349   3.725  25.530  23.590  0.0344 -0.0241 -0.0307
30256W        W73350   5.715  22.981  21.097  0.0546  0.1517 -0.0082
30257W        W73351   5.135  24.497  22.037 -0.1793 -0.0251 -0.0977
30258W        W73352   5.319  25.013  20.002  0.0004  0.1737  0.2733
30259W        W73353   5.554  24.102  21.897 -0.1902 -0.1577 -0.0274
30260W        W73354   4.619  25.487  23.472 -0.1250  0.3242  0.0337
30261W        W73355   3.308  24.433  21.574  0.3617 -0.0568  0.0560
30262W        W73356   6.063  24.242  23.951 -0.1371 -0.1563  0.2954
30263W        W73357   3.980  24.447  19.755 -0.1417  0.1787 -0.3480
30264W        W73358   6.676  23.244  19.551 -0.3386  0.0171 -0.2707
30265W        W73359   4.712  23.698  19.090  0.1302 -0.1232 -0.1077
30266W        W73360   3.967  23.840  19.958 -0.0642  0.4307 -0.1563
30267W        W73361   5.926  21.819  20.304  0.6424 -0.0947 -0.2500
30268W        W73362   6.140  26.125  21.010 -0.1011 -0.1609  0.2695
30269W        W73363   5.089  21.459  19.758  0.2944 -0.2486  0.1588
30270W        W73364   7.058  25.066  23.244 -0.1452  0.1432  0.2359
30271W        W73365   5.321  24.022  20.635 -0.1249  0.1629  0.3227
30272W        W73366   6.172  22.767  23.487 -0.1341  0.3675  0.1464
30273W        W73367   3.547  26.354  23.348 -0.0744  0.1540 -0.0871
30274W        W73368   4.490  24.545  20.857 -0.1165  0.2099 -0.1042
30275W        W73369   6.378  25.788  20.166  0.0863  0.0637 -0.3030
30276W        W73370   6.572  24.294  22.534  0.2110 -0.0271 -0.0739
30277W        W73371   6.060  25.413  21.884  0.0326 -0.2310 -0.0714
30278W        W73372   2.551  23.346  20.010  0.0615 -0.1150 -0.1003
30279W        W73373   2.743  23.734  21.659  0.0332  0.1936 -0.3750
30280W        W73374   6.208  22.914  22.297 -0.3196  0.1380  0.0978
30281W        W73375   4.801  21.712  20.153 -0.2916  0.1450  0.0892
30282W        W73376   5.836  24.383  24.450  0.2464 -0.2168  0.2653
30283W        W73377   3.359  23.525  22.229  0.0383  0.1854 -0.2746
30284W        W73378   6.388  23.951  22.041  0.2715  0.0877  0.4120
30285W        W73379   5.933  25.254  22.522  0.1042 -0.1047  0.0228
30286W        W73380   7.718  25.308  22.615 -0.0554 -0.2336  0.0917
30287W        W73381   6.057  26.014  19.215 -0.0105  0.2686 -0.1785
30288W        W73382   6.085  22.266  21.166 -0.1658  0.2338  0.0152
30289W        W73383   6.420  21.525  22.975  0.2058 -0.0705 -0.1967
30290W        W73384   3.842  23.912  21.018 -0.0149  0.2152 -0.0888
30291W        W73385   4.726  23.844  20.405 -0.1937  0.3614 -0.1537
30292W        W73386   7.877  25.860  23.116  0.0801  0.1155  0.0957
30293W        W73387   5.653  22.592  20.248  0.1259 -0.0673 -0.2063
30294W        W73388   6.583  24.908  21.974  0.0543  0.1130  0.1863
30295W        W73389   4.997  23.751  24.586  0.0659  0.0271  0.0495
30296W        W73390   5.495  25.134  22.347  0.2060 -0.2196  0.2160
30297W        W73391   2.786  25.140  20.494 -0.5702  0.2342 -0.0113
30298W        W73392   2.813  22.690  22.293 -0.1335  0.2105 -0.3357
30299W        W73393   2.751  25.359  20.004  0.0176  0.1919 -0.2033
30300W        W73394   3.696  22.192  20.970  0.3195 -0.1722 -0.0496
30301W        W73395   4.912  25.547  23.027  0.0626  0.2274  0.3599
30302W        W73396   6.414  21.690  19.940 -0.0181  0.1264 -0.2733
30303W        W73397   4.406  22.114  22.938  0.1134  0.1772 -0.2987
30304W        W73398   6.541  22.106  22.979 -0.3614 -0.0194 -0.0771
30305W        W73399   2.837  23.299  22.783  0.2141 -0.0405  0.2828
30306W        W73400   5.600  26.417  20.335 -0.2665  0.1586 -0.0920
30307W        W73401   7.338  22.788  21.902 -0.0005  0.1511  0.1367
30308W        W73402   7.133  24.246  20.641  0.0833  0.0500  0.2609
30309W        W73403   2.514  23.990  22.100  0.0659 -0.1921  0.1520
30310W        W73404   4.701  23.262  21.071 -0.0310 -0.0329 -0.0751
30311W        W73405   3.755  22.710  22.572 -0.1941 -0.0578 -0.1758
30312W        W73406   4.156  22.202  21.154  0.4290  0.2430  0.1180
30313W        W73407   7.058  24.271  23.896  0.3525  0.1787  0.0548
30314W        W73408   4.953  22.360  20.932 -0.0160 -0.1719  0.1033
30315W        W73409   5.411  23.026  20.689  0.1358  0.1817  0.2405
30316W        W73410   5.848  22.178  21.642  0.2665 -0.0925  0.2368
30317W        W73411   4.131  23.856  19.069 -0.0338 -0.0169 -0.3584
30318W        W73412   7.119  20.393  22.642 -0.0148  0.1630 -0.0611
30319W        W73413   7.781  26.224  20.899  0.2361  0.1829  0.0027
30320W        W73414   7.427  25.786  23.967  0.0411 -0.1338 -0.0825
30321W        W73415   6.919  25.671  21.437 -0.0336 -0.1139 -0.0567
30322W        W73416   4.186  23.491  23.539  0.1626  0.0844  0.2244
30323W        W73417   4.064  22.714  20.500 -0.2045  0.1456 -0.0427
30324W        W73418   5.021  26.246  21.989 -0.0620 -0.0594 -0.0758
30325W        W73419   6.205  25.045  21.113  0.0467 -0.0133 -0.2503
30326W        W73420   4.299  21.290  21.614  0.3948 -0.2892  0.0668
30327W        W73421   7.365  25.925  21.207 -0.1081  0.1089  0.1359
30328W        W73422   3.483  24.060  20.609  0.3718 -0.0994  0.1362
30329W        W73423   3.817  23.340  23.873 -0.0618 -0.3153  0.3977
30330W        W73424   5.075  22.164  23.767  0.0196  0.3082 -0.2075
30331W        W73425   6.598  24.136  24.003 -0.0963  0.2789  0.1052
30332W        W73426   5.484  23.998  23.115 -0.1175 -0.0003  0.0449
30333W        W73427   3.964  23.190  20.446  0.0645  0.1338 -0.2299
30334W        W73428   6.792  25.118  22.601  0.0593  0.0124 -0.3723
30335W        W73429   6.109  24.235  21.228  0.0882  0.0432  0.0976
30336W        W73430   4.713  24.135  21.222  0.0520  0.0613  0.1980
30337W        W73431   5.808  24.925  21.453 -0.0004  0.0839  0.2926
30338W        W73432   6.893  22.888  21.775 -0.2745  0.1310 -0.0070
30339W        W73433   2.882  24.109  23.565 -0.0076  0.0579 -0.0214
30340W        W73434   5.565  23.201  22.957 -0.0016  0.0816  0.2655
30341W        W73435   2.333  21.729  19.400 -0.0819 -0.3293 -0.1340
30342W        W73436   3.821  25.206  22.048 -0.2421 -0.3299  0.0762
30343W        W73437   4.460  22.343  22.492  0.0087 -0.2108 -0.3129
30344W        W73438   6.170  23.240  19.347 -0.1797 -0.0819 -0.0961
30345W        W73439   5.471  25.955  23.700 -0.2675 -0.0373 -0.0837
30346W        W73440   6.852  22.299  21.176 -0.1359  0.1010  0.2256
30347W        W73441   5.292  23.132  19.647 -0.2514 -0.0235  0.0406
30348W        W73442   6.885  21.243  18.264 -0.1785 -0.1074 -0.0966
30349W        W73443   3.213  22.881  23.263  0.1579 -0.0513 -0.0849
30350W        W73444   5.802  23.913  20.718  0.0797  0.1818 -0.0337
30351W        W73445   4.414  24.162  22.474 -0.4360 -0.1217 -0.1013
30352W        W73446   4.382  23.012  20.799  0.3148  0.1684  0.1701
30353W        W73447   6.035  26.240  22.371 -0.2012 -0.2463 -0.1784
30354W        W73448   1.999  24.041  22.055 -0.0890 -0.0206  0.1472
30355W        W73449   5.214  23.893  24.095  0.0961  0.0773 -0.3855
30356W        W73450   6.054  24.957  21.998  0.0402 -0.0075  0.1314
30357W        W73451   5.443  21.213  23.139 -0.0547 -0.1784  0.0126
30358W        W73452   4.656  23.929  19.963 -0.2728  0.0363  0.0757
30359W        W73453   5.452  22.123  20.309 -0.2360  0.0299 -0.1564
30360W        W73454   2.185  24.480  19.905  0.1398  0.1291  0.2892
30361W        W73455   7.505  23.099  20.281 -0.0571 -0.0243  0.0051
30362W        W73456   5.136  22.834  22.865  0.0124  0.3985  0.0425
30363W        W73457   4.362  21.635  24.227  0.1089  0.2661  0.1728
30364W        W73458   6.277  22.968  24.082 -0.0709 -0.0998  0.0057
30365W        W73459   5.607  22.325  20.726 -0.2613  0.0581  0.1019
30366W        W73460   6.150  22.814  21.360  0.1966 -0.0828 -0.2989
30367W        W73461   4.356  23.543  20.567 -0.0456  0.1220  0.2817
30368W        W73462   5.718  22.598  22.148 -0.2057 -0.0255 -0.1299
30369W        W73463   3.226  23.299  23.890 -0.2590 -0.2656 -0.1819
30370W        W73464   3.215  23.286  21.853  0.4048  0.0846 -0.0182
30371W        W73465   6.364  23.719  23.286 -0.2659 -0.1511  0.1192
30372W        W73466   5.713  23.585  21.121 -0.5251 -0.1256  0.1482
30373W        W73467   5.469  21.523  23.545 -0.3260  0.0606 -0.0408
30374W        W73468   4.762  21.041  18.516 -0.1345 -0.0879 -0.1313
30375W        W73469   5.597  24.783  21.941 -0.0869 -0.0095  0.0533
30376W        W73470   4.542  25.164  19.626 -0.0070 -0.1520 -0.3584
30377W        W73471   5.326  21.346  21.460 -0.3526  0.2219 -0.1102
30378W        W73472   6.441  25.442  22.227  0.3854 -0.0512  0.1215
30379W        W73473   2.793  24.973  18.570 -0.1522  0.0650  0.1113
30380W        W73474   5.684  22.766  22.700 -0.2636  0.1542 -0.3886
30381W        W73475   3.688  25.766  21.000 -0.4405 -0.0988 -0.2147
30382W        W73476   6.634  21.343  21.446 -0.1247 -0.2676 -0.2345
30383W        W73477   3.328  26.153  20.924 -0.0587  0.0358  0.0895
30384W        W73478   3.815  22.945  19.715  0.0191 -0.0064  0.0913
30385W        W73479   2.892  23.959  20.762  0.0615 -0.0968 -0.1401
30386W        W73480   7.457  22.501  21.411  0.2575  0.1490 -0.0716
30387W        W73481   4.871  24.280  20.738  0.1043 -0.1093  0.0855
30388W        W73482   4.857  22.016  22.753 -0.2802 -0.1723  0.0521
30389W        W73483   5.724  22.257  22.646  0.1860 -0.3287 -0.0232
30390W        W73484   3.622  23.958  22.259 -0.2002  0.0261  0.2050
30391W        W73485   6.101  21.839  22.723  0.0048 -0.0283 -0.0191
30392W        W73486   7.355  22.509  19.475  0.0939  0.1624  0.2420
30393W        W73487   5.535  24.201  22.440  0.2485 -0.0579  0.2569
30394W        W73488   4.648  24.161  23.075  0.2405  0.2042  0.0024
30395W        W73489   3.635  23.530  19.081  0.1371  0.1057  0.0731
30396W        W73490   6.532  24.238  23.049 -0.2550  0.1490  0.0005
30397W        W73491   3.676  23.533  21.266  0.0059  0.2195 -0.2372
30398W        W73492   4.058  24.767  21.029 -0.2332 -0.1775 -0.0631
30399W        W73493   6.058  26.417  21.854 -0.3419  0.1413  0.1243
30400W        W73494   2.059  21.591  19.883  0.1166 -0.2325  0.0322
30401W        W73495   3.803  24.368  22.481  0.0227  0.2198  0.4986
30402W        W73496   3.083  22.004  23.250  0.1678 -0.1635  0.0367
30403W        W73497   5.630  23.543  23.927 -0.1406 -0.1354  0.1182
30404W        W73498   5.354  22.656  21.064  0.1876  0.2409  0.1049
30405W        W73499   4.947  24.755  20.924  0.4193 -0.0668  0.1087
30406W        W73500   5.863  24.749  22.490 -0.4343  0.1403  0.2108
30407W        W73501   6.230  25.028  22.940  0.1083 -0.0420 -0.1258
30408W        W73502   4.372  24.136  24.503  0.0944 -0.2957  0.0315
30409W        W73503   3.202  24.085  23.111 -0.1634  0.3075 -0.2318
30410W        W73504   5.749  23.174  22.074 -0.0629 -0.1528 -0.1283
30411W        W73505   6.950  26.009  20.214 -0.0243 -0.3391  0.1512
30412W        W73506   6.724  22.828  23.697 -0.1683 -0.2779 -0.4855
30413W        W73507   4.378  25.059  20.785 -0.0925 -0.2242 -0.4991
30414W        W73508   2.152  25.173  21.366  0.1879 -0.1268 -0.0094
30415W        W73509   5.157  24.348  21.170  0.0374  0.0197  0.0257
30416W        W73510   5.973  22.010  23.170  0.1735  0.0705  0.1349
30417W        W73511   5.020  24.719  21.561  0.0037 -0.3772 -0.2868
30418W        W73512   3.916  24.483  20.632  0.1486 -0.2571 -0.0087
30419W        W73513   3.633  26.179  21.991 -0.1877 -0.4882  0.2465
30420W        W73514   6.210  22.516  20.098  0.0786 -0.0325  0.0541
30421W        W73515   5.271  24.020  20.136  0.0620 -0.1350 -0.1207
30422W        W73516   5.102  22.588  21.582  0.1091  0.0772  0.2223
30423W        W73517   7.153  22.061  22.282  0.1070 -0.0200  0.1677
30424W        W73518   4.405  24.044  20.782  0.0726  0.1635  0.0654
30425W        W73519   6.554  23.732  24.315 -0.0862  0.4274  0.1297
30426W        W73520   6.281  20.857  22.510  0.0675  0.2373 -0.0629
30427W        W73521   5.917  23.176  21.557  0.2652 -0.1202 -0.0781
30428W        W73522   2.902  23.273  23.353  0.0422  0.0266  0.2965
30429W        W73523   7.764  26.005  24.298  0.0987  0.1757 -0.0622
30430W        W73524   4.548  24.350  23.571 -0.0027  0.1936  0.0357
30431W        W73525   3.961  22.565  18.852 -0.0692  0.2469  0.1973
30432W        W73526   4.328  22.890  19.013  0.1111 -0.0213  0.3032
30433W        W73527   3.619  22.934  23.718  0.2485  0.0663 -0.1834
30434W        W73528   6.085  24.869  23.679  0.1648  0.0542 -0.0715
30435W        W73529   6.601  23.807  22.590  0.1009 -0.1051 -0.1845
30436W        W73530   5.767  23.976  21.428  0.1035 -0.1529  0.0700
30437W        W73531   4.426  24.474  21.701  0.1518  0.1066  0.0926
30438W        W73532   5.816  23.382  20.670 -0.0411  0.3767 -0.0544
30439W        W73533   3.507  24.104  19.139  0.0060 -0.3674  0.0516
30440W        W73534   3.919  23.052  21.846  0.2007  0.0848  0.3145
30441W        W73535   4.093  20.627  24.118 -0.2109 -0.0614 -0.1645
30442W        W73536   6.911  24.703  22.345  0.0059  0.1124  0.2132
30443W        W73537   5.367  22.230  21.359  0.0791 -0.0492  0.2163
30444W        W73538   6.509  23.136  21.909  0.0934 -0.3879 -0.2611
30445W        W73539   5.430  23.692  22.600 -0.0857 -0.2886  0.1211
30446W        W73540   5.135  24.013  22.231  0.2926 -0.1140 -0.1439
30447W        W73541   3.643  21.914  23.740  0.0587 -0.0047  0.2474
30448W        W73542   6.150  27.138  23.099  0.1276 -0.0083  0.0398
30449W        W73543   7.117  22.789  20.359  0.0417 -0.2164 -0.1208
30450W        W73544   6.958  22.141  22.704  0.0463 -0.1574  0.1867
30451W        W73545   7.662  23.456  20.571 -0.1174 -0.0451  0.4770
30452W        W73546   5.955  22.109  19.944  0.2922  0.0810 -0.0327
30453W        W73547   4.716  22.785  23.375  0.0621 -0.2255 -0.0502
30454W        W73548   5.927  22.709  23.874 -0.2211 -0.0253  0.2725
30455W        W73549   3.396  22.147  18.952 -0.0002  0.1033 -0.2660
30456W        W73550   5.516  23.069  23.766 -0.0130 -0.2419 -0.1620
30457W        W73551   5.651  25.437  20.560  0.1155  0.3349 -0.1826
30458W        W73552   6.546  24.310  21.449  0.0765  0.1865 -0.0526
30459W        W73553   5.161  21.739  21.210 -0.1897  0.0183 -0.4319
30460W        W73554   2.839  22.818  22.827 -0.1226  0.0898 -0.2449
30461W        W73555   2.794  23.787  23.151 -0.2990 -0.2923  0.1281
30462W        W73556   4.127  22.498  19.351 -0.1926 -0.2524  0.0822
30463W        W73557   3.614  25.204  19.521 -0.0460  0.0337  0.1595
30464W        W73558   4.894  23.824  22.685  0.2434 -0.1229  0.2441
30465W        W73559   5.347  23.987  23.642 -0.0650  0.0559  0.0557
30466W        W73560   5.528  22.616  18.112  0.2362  0.2678  0.2200
30467W        W73561   6.548  23.143  23.251 -0.3120 -0.0784  0.1631
30468W        W73562   3.330  23.826  21.035  0.0337  0.1298 -0.0401
30469W        W73563   6.492  20.276  20.671 -0.3636 -0.0451 -0.1370
30470W        W73564   3.741  25.908  22.967  0.0001  0.0635 -0.1623
30471W        W73565   3.481  23.676  24.138 -0.0708 -0.1202  0.0138
30472W        W73566   5.622  24.266  21.050  0.2268 -0.0350  0.0101
30473W        W73567   6.427  21.985  23.834 -0.1049 -0.1143 -0.0440
30474W        W73568   5.904  23.460  23.240 -0.0298  0.0444 -0.1782
30475W        W73569   6.173  22.284  22.333 -0.0646 -0.0391  0.3212
30476W        W73570   6.527  23.335  23.722  0.4175  0.1624 -0.0759
30477W        W73571   6.039  24.326  22.295 -0.1343  0.0447  0.1661
30478W        W73572   4.854  25.219  20.797 -0.2123  0.1512 -0.2513
30479W        W73573   6.244  26.187  22.836  0.1249 -0.3987 -0.4142
30480W        W73574   6.248  23.553  22.779 -0.1582 -0.0389  0.2448
30481W        W73575   5.998  25.460  20.220 -0.0312  0.4306  0.0284
30482W        W73576   3.564  21.914  24.228  0.0998  0.0327  0.0177
30483W        W73577   3.956  23.925  22.724 -0.0556  0.1946 -0.2751
30484W        W73578   6.027  23.637  21.790  0.0502  0.1845 -0.3155
30485W        W73579   3.662  22.821  20.165  0.3025 -0.0119 -0.1740
30486W        W73580   5.417  24.513  20.158  0.5001  0.0695  0.2048
30487W        W73581   3.676  24.199  23.039 -0.0008 -0.1730  0.0927
30488W        W73582   3.862  24.299  23.721 -0.2602  0.0955  0.0994
30489W        W73583   3.266  25.664  20.744 -0.0216  0.0157 -0.3132
30490W        W73584   6.663  24.371  20.384  0.0246  0.0053  0.1185
30491W        W73585   5.343  23.552  20.596  0.1728 -0.0013  0.0240
30492W        W73586   7.810  25.502  21.608 -0.1106  0.0158  0.0115
30493W        W73587   3.998  23.464  20.901 -0.3838  0.0132  0.1227
30494W        W73588   3.369  25.330  21.881 -0.0800 -0.1001  0.0245
30495W        W73589   2.523  25.125  20.918  0.0225 -0.4812 -0.2767
30496W        W73590   6.429  24.544  20.917  0.2740 -0.0323  0.0189
30497W        W73591   3.956  26.187  21.075  0.0291  0.0514 -0.1012
30498W        W73592   7.202  24.878  21.967  0.1563 -0.2623  0.0518
30499W        W73593   6.756  22.885  18.543 -0.0631  0.1699  0.1583
30500W        W73594   8.739  23.155  20.368  0.1650 -0.2900 -0.0367
30501W        W73595   6.662  22.151  22.172 -0.1275 -0.1015  0.0516
30502W        W73596   7.007  25.529  23.438 -0.0796  0.0114 -0.1640
30503W        W73597   6.042  22.615  21.806 -0.5669 -0.0432 -0.2256
30504W        W73598   6.154  23.673  20.385  0.0607 -0.0245  0.4615
30505W        W73599   3.573  23.583  22.677  0.0768  0.0259  0.3110
30506W        W73600   6.796  24.546  24.282 -0.1525 -0.0185 -0.2215
30507W        W73601   4.447  24.986  23.514  0.0147  0.0924 -0.1073
30508W        W73602   6.483  25.867  21.675  0.0522  0.1100 -0.0581
30509W        W73603   4.151  23.966  21.953 -0.3308  0.6039 -0.2280
30510W        W73604   3.778  24.420  21.333  0.0513  0.0154 -0.1409
30511W        W73605   7.000  22.371  23.171 -0.0913 -0.0519 -0.3863
30512W        W73606   6.667  24.878  21.228 -0.0058  0.1124  0.1401
30513W        W73607   6.165  21.718  22.201 -0.2935  0.0740  0.1300
30514W        W73608   5.271  25.478  20.883 -0.3015  0.0792  0.1291
30515W        W73609   4.604  25.519  21.542 -0.2668  0.0323 -0.1393
30516W        W73610   6.378  27.034  24.040  0.0574  0.1334 -0.0008
30517W        W73611   3.550  22.403  19.384 -0.3339 -0.0397 -0.3789
30518W        W73612   6.820  23.501  22.255 -0.0171  0.0346  0.3733
30519W        W73613   4.710  22.172  23.364  0.0862 -0.0321  0.1234
30520W        W73614   6.573  23.171  22.609 -0.3336 -0.0754  0.2567
30521W        W73615   4.733  23.689  22.159  0.2850 -0.0370  0.1679
30522W        W73616   5.868  22.837  20.644  0.1494 -0.1579 -0.1280
30523W        W73617   7.123  25.454  22.920 -0.0876  0.1031 -0.1493
30524W        W73618   3.532  22.986  22.175 -0.0141  0.1405 -0.1653
30525W        W73619   4.185  23.942  18.537 -0.0524 -0.1957 -0.0027
30526W        W73620   7.223  23.896  23.516  0.6721  0.3680  0.2908
30527W        W73621   6.578  23.476  20.496  0.0044  0.3128 -0.1438
30528W        W73622   7.177  25.359  24.252  0.0261  0.0642 -0.0213
30529W        W73623   5.237  22.966  23.347 -0.1702 -0.1793 -0.0108
30530W        W73624   5.575  24.150  19.707 -0.0500 -0.1932 -0.4164
30531W        W73625   4.187  24.494  22.159 -0.0553 -0.1745  0.3306
30532W        W73626   4.691  24.692  22.135 -0.1756 -0.1101 -0.4097
30533W        W73627   8.315  24.344  22.389  0.0150 -0.0875  0.0228
30534W        W73628   5.047  22.316  20.076  0.4959 -0.2586 -0.3893
30535W        W73629   7.439  23.854  20.855 -0.1834 -0.2032 -0.4765
30536W        W73630   6.795  23.792  23.064  0.0229  0.1345  0.0274
30537W        W73631   5.379  24.804  21.077 -0.0632 -0.0736 -0.0683
30538W        W73632   5.898  24.592  20.837 -0.1299  0.4997 -0.2215
30539W        W73633   6.879  24.587  21.665 -0.1634  0.5174  0.0565
30540W        W73634   3.922  23.223  22.714 -0.1898  0.0192 -0.1283
30541W        W73635   7.511  25.000  24.198  0.0958  0.0375 -0.2255
30542W        W73636   7.353  23.347  22.478  0.1211 -0.2148  0.1091
30543W        W73637   5.503  22.361  19.795 -0.0013  0.3009  0.2879
30544W        W73638   6.312  24.538  20.106 -0.0129 -0.3883  0.3081
30545W        W73639   4.658  25.385  21.987 -0.2677 -0.0038 -0.1387
30546W        W73640   6.671  23.591  21.783  0.0615  0.2927 -0.0558
30547W        W73641   7.855  22.757  23.168  0.1220  0.1517  0.3340
30548W        W73642   7.234  25.506  20.252 -0.2085  0.0468  0.1479
30549W        W73643   5.850  21.521  23.046 -0.1607 -0.1262  0.1869
30550W        W73644   6.373  25.516  22.791 -0.0957 -0.1803 -0.1295
30551W        W73645   3.968  25.230  23.921  0.0999 -0.2077 -0.1283
30552W        W73646   3.035  24.619  19.514  0.0684 -0.0884  0.4213
30553W        W73647   4.570  23.154  23.744  0.1246  0.0879  0.3537
30554W        W73648   2.974  24.134  21.266 -0.2009  0.0494 -0.0899
30555W        W73649   4.465  25.680  20.590 -0.3689 -0.1944 -0.0264
30556W        W73650   7.407  24.428  21.596 -0.2910  0.0399 -0.1197
30557W        W73651   6.738  21.708  21.982 -0.0439  0.4816  0.3151
30558W        W73652   6.399  24.790  22.497  0.0735  0.0814  0.1366
30559W        W73653   4.737  23.196  19.984  0.1349 -0.2587  0.0797
30560W        W73654   6.552  22.577  21.554  0.0635 -0.2073 -0.2449
30561W        W73655   6.476  22.158  19.761  0.1886  0.0282  0.0285
30562W        W73656   4.816  23.273  21.835 -0.2518 -0.1240 -0.5030
30563W        W73657   2.661  24.045  18.816  0.1595  0.0442 -0.1628
30564W        W73658   4.759  24.849  19.927  0.2814  0.0805 -0.0716
30565W        W73659   5.336  25.063  21.464  0.1302  0.1333  0.2150
30566W        W73660   6.096  24.020  22.754  0.1743 -0.0925  0.2793
30567W        W73661   4.340  23.573  22.491 -0.0858  0.1087 -0.3064
30568W        W73662   4.816  22.950  21.442  0.1291  0.2907  0.0021
30569W        W73663   4.950  22.886  20.886 -0.0828 -0.0399  0.0856
30570W        W73664   7.156  24.672  19.639  0.0781  0.1743  0.0203
30571W        W73665   4.997  23.418  22.909 -0.0245  0.1765 -0.3543
30572W        W73666   2.902  21.338  21.476 -0.1895 -0.2998  0.1315
30573W        W73667   6.679  23.304  18.211 -0.0969 -0.3147 -0.1427
30574W        W73668   6.284  25.639  21.218 -0.0715 -0.1047 -0.3163
30575W        W73669   4.865  23.305  20.585 -0.0051 -0.3518 -0.2211
30576W        W73670   6.891  26.445  25.021  0.0465 -0.1046 -0.0616
30577W        W73671   3.666  24.279  20.095  0.1046  0.1072  0.0997
30578W        W73672   5.015  23.525  23.808  0.3180 -0.1006  0.1764
30579W        W73673   4.958  21.436  22.958  0.0550  0.2578  0.1212
30580W        W73674   2.222  22.345  19.238  0.2034 -0.2239 -0.3563
30581W        W73675   6.511  22.568  22.602  0.0984 -0.0800  0.2744
30582W        W73676   7.208  24.527  20.208 -0.0098 -0.0796  0.0994
30583W        W73677   5.647  26.009  21.957 -0.0481 -0.1230 -0.4353
30584W        W73678   5.791  22.977  23.346 -0.1540 -0.1145  0.0814
30585W        W73679   5.312  24.482  23.814 -0.1842  0.2333 -0.1353
30586W        W73680   4.749  21.266  22.492 -0.0650 -0.3166 -0.0374
30587W        W73681   5.712  22.905  19.802 -0.1407 -0.1030 -0.2564
30588W        W73682   5.056  25.434  22.332  0.0133  0.1318  0.0280
30589W        W73683   6.984  25.206  20.604  0.0875  0.1294 -0.1393
30590W        W73684   7.908  22.473  22.207 -0.0054 -0.0394  0.0643
30591W        W73685   5.335  24.493  20.668  0.1637  0.1457  0.1231
30592W        W73686   2.793  22.578  24.631 -0.0497  0.5000 -0.0562
30593W        W73687   3.835  24.347  21.810 -0.1720 -0.2371  0.0694
30594W        W73688   7.272  23.876  22.000  0.1516 -0.1645  0.3502
30595W        W73689   5.516  23.457  21.591 -0.0696  0.0052 -0.2410
30596W        W73690   4.564  22.792  20.306 -0.0333  0.2903  0.1686
30597W        W73691   5.235  23.336  21.086 -0.1632  0.1206 -0.0321
30598W        W73692   3.911  23.556  22.211 -0.0509  0.2583  0.3284
30599W        W73693   5.331  23.005  21.488 -0.1638  0.0071  0.3425
30600W        W73694   6.059  23.261  23.653 -0.0173 -0.0243 -0.2077
30601W        W73695   4.536  23.902  21.648  0.0855 -0.1901 -0.0835
30602W        W73696   5.900  23.972  23.581 -0.1416 -0.1401  0.2095
30603W        W73697   3.553  24.814  21.867  0.1155  0.0542  0.3029
30604W        W73698   6.427  23.315  21.432  0.1595  0.1261  0.3081
30605W        W73699   7.454  25.783  23.420  0.2172 -0.2471  0.1139
30606W        W73700   6.838  26.856  23.834  0.0606 -0.1679  0.0821
30607W        W73701   6.686  25.011  23.604 -0.1758 -0.0940 -0.1261
30608W        W73702   5.880  24.841  23.242  0.2552  0.2296  0.1822
30609W        W73703   5.755  21.425  22.483 -0.0330  0.1165 -0.1188
30610W        W73704   3.956  23.897  20.472 -0.0846  0.4596 -0.0675
30611W        W73705   5.496  24.494  21.543  0.0936 -0.1775 -0.2481
30612W        W73706   6.964  22.821  22.812  0.2242 -0.2667 -0.2346
30613W        W73707   3.519  23.929  21.531 -0.4237  0.2586  0.1473
30614W        W73708   4.730  23.138  19.354 -0.1255 -0.0251  0.0482
30615W        W73709   6.218  25.867  22.093 -0.1370  0.1811 -0.0400
30616W        W73710   5.265  23.203  22.031 -0.0638 -0.2432 -0.0592
30617W        W73711   5.367  24.639  25.351  0.1044  0.0672  0.2076
30618W        W73712   4.572  22.673  24.806  0.1120 -0.1037  0.0799
30619W        W73713   5.863  22.222  23.904  0.0897 -0.0761  0.2254
30620W        W73714   7.971  24.180  23.629  0.0850 -0.1067 -0.0404
30621W        W73715   3.949  23.059  25.896  0.3165 -0.1909 -0.0062
30622W        W73716   5.775  25.349  23.485 -0.0818 -0.1223 -0.1772
30623W        W73717   4.608  21.644  28.663  0.2606  0.1611 -0.1478
30624W        W73718   5.535  24.461  26.122  0.0053 -0.1425 -0.0382
30625W        W73719   7.876  26.237  27.023  0.2656 -0.0294  0.0161
30626W        W73720   6.032  23.827  24.291  0.2789 -0.1039 -0.1163
30627W        W73721   6.029  24.001  28.005  0.1709 -0.0851  0.2454
30628W        W73722   3.702  23.688  25.377 -0.0222 -0.3164  0.0870
30629W        W73723   5.681  21.768  25.537  0.4597 -0.3087  0.1383
30630W        W73724   3.197  24.307  24.963 -0.3819  0.1887  0.1053
30631W        W73725   6.370  24.355  26.217  0.3660 -0.1272 -0.0456
30632W        W73726   2.799  21.936  23.660  0.2859 -0.0966 -0.0528
30633W        W73727   3.593  23.236  26.251 -0.1405 -0.0463 -0.1273
30634W        W73728   5.393  22.244  25.476  0.0861 -0.1872  0.1497
30635W        W73729   6.952  25.159  25.451  0.3511 -0.0406 -0.2086
30636W        W73730   5.493  22.944  27.081  0.1742  0.0069 -0.2634
30637W        W73731   7.570  22.581  26.628 -0.1999  0.0199 -0.1082
30638W        W73732   5.426  25.484  22.675 -0.0414 -0.1346 -0.1817
30639W        W73733   4.532  23.613  23.102  0.1476 -0.1626  0.0609
30640W        W73734   6.622  23.236  27.190  0.3406 -0.0530 -0.1690
30641W        W73735   4.077  23.722  27.019 -0.0258  0.0684  0.0418
30642W        W73736   5.979  22.018  27.235 -0.3053  0.1430 -0.1962
30643W        W73737   5.990  24.148  24.867 -0.1451 -0.0699  0.0584
30644W        W73738   4.364  24.911  25.306 -0.0681 -0.1999  0.0878
30645W        W73739   6.027  25.257  25.221  0.1140 -0.2689 -0.3266
30646W        W73740   7.372  23.420  26.751 -0.0610  0.1573  0.0424
30647W        W73741   4.310  24.788  24.430  0.0166 -0.0032  0.1108
30648W        W73742   2.924  25.193  24.452  0.0288  0.1358  0.3695
30649W        W73743   5.339  25.497  23.965  0.5753  0.1812  0.4777
30650W        W73744   6.014  24.294  25.350 -0.0214 -0.2213  0.0740
30651W        W73745   8.368  24.204  25.591  0.2273 -0.1583 -0.1713
30652W        W73746   5.532  26.477  28.271 -0.2698 -0.0003 -0.1657
30653W        W73747   4.898  24.179  23.848 -0.0192 -0.2554  0.1647
30654W        W73748   4.184  26.173  26.544  0.1474  0.0926  0.2631
30655W        W73749   4.760  25.738  26.611 -0.0528 -0.1019 -0.0814
30656W        W73750   4.461  25.273  27.511  0.1064 -0.3094 -0.3284
30657W        W73751   5.252  23.250  24.193 -0.0627  0.0831 -0.1754
30658W        W73752   4.190  25.294  23.156  0.0021 -0.1223  0.4856
30659W        W73753   4.202  24.444  25.621  0.1716  0.1004 -0.0247
30660W        W73754   4.880  23.066  28.093  0.0415  0.1119 -0.1662
30661W        W73755   2.665  24.207  25.342  0.1764  0.3768  0.0054
30662W        W73756   7.749  22.111  27.483  0.0779 -0.0163  0.1539
30663W        W73757   5.088  25.049  22.745  0.2013  0.1987  0.0645
30664W        W73758   4.608  22.483  23.780 -0.0111  0.3149 -0.2508
30665W        W73759   4.253  23.987  23.884  0.1159 -0.2814  0.0944
30666W        W73760   5.435  22.710  25.228 -0.0317  0.1256  0.1598
30667W        W73761   5.185  21.824  23.301 -0.2378  0.0632 -0.1931
30668W        W73762   3.603  25.634  24.096  0.1108  0.3588 -0.0676
30669W        W73763   5.281  22.897  26.047 -0.0054 -0.2318  0.3627
30670W        W73764   6.777  24.870  26.340 -0.1466  0.1792  0.2005
30671W        W73765   5.386  23.449  23.389  0.3230 -0.2379 -0.2905
30672W        W73766   6.080  22.478  27.208  0.1500  0.3038  0.2004
30673W        W73767   4.456  24.863  27.191  0.0860 -0.0540  0.0455
30674W        W73768   4.224  23.375  24.895  0.1501 -0.2680  0.0605
30675W        W73769   6.938  26.482  23.539 -0.1602  0.0766  0.1191
30676W        W73770   8.783  25.797  25.737  0.1779  0.0410  0.1548
30677W        W73771   7.185  26.001  23.040 -0.1844 -0.0012  0.1846
30678W        W73772   3.054  24.522  23.797 -0.2222 -0.0496  0.1071
30679W        W73773   4.429  24.743  26.081  0.2435  0.0543  0.4428
30680W        W73774   4.882  22.941  27.370 -0.2187  0.0187  0.2592
30681W        W73775   4.373  21.862  21.621  0.0516  0.2142  0.2253
30682W        W73776   8.557  25.116  27.412  0.1528 -0.2036 -0.1267
30683W        W73777   3.252  24.666  27.393 -0.2855  0.0654 -0.3831
30684W        W73778   7.591  23.799  27.027  0.3324 -0.3794  0.1097
30685W        W73779   4.055  24.801  24.898  0.0364 -0.3187  0.0592
30686W        W73780   7.646  24.066  25.546  0.0221  0.1686 -0.0137
30687W        W73781   7.655  24.919  23.025 -0.0091  0.0951  0.0272
30688W        W73782   5.894  23.273  25.889 -0.0398  0.0066  0.0129
30689W        W73783   6.490  22.774  27.284  0.0628  0.1435 -0.0957
30690W        W73784   4.865  24.434  22.497 -0.0989  0.1730  0.0686
30691W        W73785   4.176  24.035  23.338 -0.1205 -0.2074  0.2570
30692W        W73786   8.065  24.741  28.179  0.1397  0.0029 -0.0361
30693W        W73787   6.641  23.374  24.680  0.0249 -0.1140  0.0313
30694W        W73788   5.112  24.088  26.895 -0.2590  0.3090  0.2216
30695W        W73789   6.748  22.936  28.107  0.0929  0.3654 -0.3415
30696W        W73790   4.366  24.346  27.832  0.0188  0.0128  0.0161
30697W        W73791   4.463  24.440  24.068  0.0046 -0.1628 -0.1539
30698W        W73792   4.947  23.425  27.201 -0.1421 -0.0089 -0.0450
30699W        W73793   3.884  24.261  24.785 -0.1342 -0.2438 -0.0218
30700W        W73794   4.260  24.073  27.342 -0.1261 -0.1275 -0.2192
30701W        W73795   3.648  24.874  26.137 -0.0752  0.0045  0.4282
30702W        W73796   6.393  23.100  25.458  0.0367 -0.0358  0.2900
30703W        W73797   4.459  22.856  27.869  0.0557  0.3285  0.0984
30704W        W73798   6.305  21.951  26.310  0.0192 -0.0969 -0.1498
30705W        W73799   5.311  24.410  24.308 -0.0154 -0.4126 -0.0044
30706W        W73800   6.836  25.982  24.339  0.2313  0.2735  0.1570
30707W        W73801   4.845  24.244  24.345  0.0943 -0.0264 -0.1315
30708W        W73802   5.104  26.270  23.770  0.0021 -0.1512 -0.0710
30709W        W73803   4.760  22.961  26.423  0.1202 -0.1750 -0.1850
30710W        W73804   3.911  24.413  24.255  0.0483  0.0954 -0.0063
30711W        W73805   5.309  21.439  28.013 -0.1613 -0.1118  0.1826
30712W        W73806   4.654  22.410  26.463 -0.1531  0.1586 -0.1211
30713W        W73807   7.760  24.316  26.903 -0.1225  0.1330  0.0184
30714W        W73808   4.327  21.602  25.220  0.1444  0.2952  0.3874
30715W        W73809   6.770  23.647  26.004  0.0161 -0.4527  0.0541
30716W        W73810   4.646  23.824  24.159  0.4106  0.0108  0.0092
30717W        W73811   3.610  24.038  26.180 -0.2592 -0.0681  0.1574
30718W        W73812   7.028  22.711  26.481 -0.0446 -0.1280 -0.1166
30719W        W73813   5.755  24.894  25.936 -0.0018 -0.1612  0.0535
30720W        W73814   7.717  25.282  26.495 -0.1732  0.3977  0.2499
30721W        W73815   6.560  25.026  25.729 -0.0530  0.0950  0.2814
30722W        W73816   5.627  24.062  27.238  0.2056  0.1271 -0.3107
30723W        W73817   4.311  23.470  24.036  0.2739 -0.2237 -0.1685
30724W        W73818   3.211  25.335  24.811 -0.0489 -0.0143 -0.2530
30725W        W73819   4.216  24.360  25.123  0.1707  0.0485  0.1199
30726W        W73820   4.528  23.218  25.209  0.1121 -0.2924 -0.0675
30727W        W73821   6.450  24.768  27.385 -0.0828  0.3411  0.0195
30728W        W73822   5.316  23.860  21.255 -0.2078 -0.1481  0.0724
30729W        W73823   3.610  24.501  28.281 -0.2705 -0.1447  0.4580
30730W        W73824   7.204  22.987  26.115  0.2259 -0.0193 -0.0681
30731W        W73825   7.156  24.861  27.264 -0.0923 -0.2816 -0.1176
30732W        W73826   5.564  23.895  26.032 -0.0895  0.0652  0.2644
30733W        W73827   4.187  22.843  23.657 -0.2885  0.0343  0.2148
30734W        W73828   6.421  25.420  26.078 -0.0876  0.2162  0.0710
30735W        W73829   4.417  25.053  24.018  0.2281  0.0870  0.0205
30736W        W73830   3.465  24.474  24.503  0.1212  0.0382 -0.1064
30737W        W73831   5.537  25.786  23.118 -0.0459  0.1623 -0.1122
30738W        W73832   6.057  21.439  25.991 -0.1740 -0.0053 -0.2818
30739W        W73833   3.325  24.257  27.661 -0.3352  0.2950 -0.0389
30740W        W73834   5.967  23.322  26.418 -0.2664 -0.0996  0.2387
30741W        W73835   3.971  22.827  24.114 -0.2174  0.0230  0.1710
30742W        W73836   4.936  24.930  26.327 -0.0027  0.1254  0.0736
30743W        W73837   5.137  22.720  25.592 -0.0076 -0.0138 -0.0269
30744W        W73838   6.539  24.205  25.070  0.2497  0.0283  0.2291
30745W        W73839   6.108  22.681  27.663 -0.1234 -0.0388  0.1183
30746W        W73840   6.792  25.572  23.984 -0.1289  0.1036 -0.0796
30747W        W73841   7.043  23.537  24.458 -0.2752  0.2541  0.2977
30748W        W73842   4.550  21.957  23.804  0.2332 -0.1353 -0.6213
30749W        W73843   4.991  25.397  27.578 -0.0727 -0.0891 -0.0362
30750W        W73844   5.108  24.031  25.322 -0.0951  0.0425  0.1542
30751W        W73845   4.485  24.259  25.976 -0.1070  0.0479 -0.4079
30752W        W73846   5.489  22.668  24.114  0.0370  0.2205  0.0966
30753W        W73847   6.268  24.713  24.852  0.0002  0.1506 -0.3779
30754W        W73848   5.167  24.354  27.281 -0.1372  0.0769 -0.0232
30755W        W73849   4.738  26.221  27.862 -0.1648 -0.1482  0.2848
30756W        W73850   5.278  24.961  24.041  0.2891 -0.2275  0.0774
30757W        W73851   5.448  23.440  26.148  0.1418  0.0363  0.0246
30758W        W73852   4.497  23.657  24.617  0.1471 -0.1888 -0.2201
30759W        W73853   4.597  22.759  25.466  0.3334 -0.1431 -0.0961
30760W        W73854   3.249  25.885  23.906 -0.1352 -0.1115 -0.0585
30761W        W73855   7.132  23.006  25.585  0.0857  0.0648 -0.2410
30762W        W73856   7.164  24.020  26.916  0.0341  0.2291 -0.0997
30763W        W73857   4.442  22.139  26.021 -0.1225  0.0478 -0.0378
30764W        W73858   6.340  24.739  26.626 -0.0788 -0.1564  0.0326
30765W        W73859   4.790  23.650  25.036  0.2305 -0.0999  0.0669
30766W        W73860   6.200  23.772  25.217 -0.0220 -0.2376  0.0283
30767W        W73861   4.619  23.778  23.637  0.3108 -0.1116 -0.1106
30768W        W73862   7.273  24.179  26.454  0.1905 -0.0502  0.0126
30769W        W73863   4.527  23.652  26.789  0.0153 -0.1498  0.2630
30770W        W73864   4.540  25.340  26.243  0.3035  0.3558 -0.2238
30771W        W73865   5.543  24.390  26.742  0.2697 -0.2907 -0.0158
30772W        W73866   5.434  24.027  24.617  0.0930  0.3332  0.2362
30773W        W73867   5.629  21.776  27.849 -0.0208 -0.3631 -0.0992
30774W        W73868   6.491  22.916  24.614 -0.1610 -0.2079  0.1708
30775W        W73869   5.219  25.194  25.928  0.0879  0.1485  0.1828
30776W        W73870   3.439  25.869  23.351  0.0815 -0.3221  0.2501
30777W        W73871   5.644  22.643  25.694 -0.1113  0.0729 -0.0496
30778W        W73872   4.638  25.136  24.453  0.1410  0.1735 -0.0800
30779W        W73873   4.628  26.055  23.531  0.3174 -0.3294 -0.3165
30780W        W73874   7.229  24.610  26.179 -0.1852 -0.1081  0.2121
30781W        W73875   3.663  25.541  25.147  0.1242 -0.1092 -0.0252
30782W        W73876   6.393  21.110  26.501  0.1426  0.2796 -0.3770
30783W        W73877   1.747  25.161  23.616 -0.3322  0.0696  0.1132
30784W        W73878   5.131  23.234  24.719 -0.3296  0.3457 -0.0514
30785W        W73879   4.594  24.559  24.787  0.1575  0.1527 -0.0450
30786W        W73880   6.661  22.710  25.600 -0.0697  0.3089 -0.0087
30787W        W73881   6.372  24.299  24.506  0.0895  0.1859 -0.0611
30788W        W73882   3.956  21.945  25.029 -0.0913  0.1353  0.0962
30789W        W73883   6.773  23.156  25.863  0.2493  0.1415 -0.2764
30790W        W73884   3.365  24.462  26.145 -0.1366 -0.0675  0.1343
30791W        W73885   6.904  23.442  27.720  0.0290  0.1563 -0.0725
30792W        W73886   6.415  22.489  23.970 -0.3011  0.1597 -0.2298
30793W        W73887   6.157  23.534  27.401  0.0915 -0.0682  0.0954
30794W        W73888   7.178  23.302  28.167  0.1723  0.0713 -0.1733
30795W        W73889   3.328  23.479  24.595 -0.0280  0.1004 -0.0370
30796W        W73890   8.449  23.843  25.955 -0.0160  0.2464 -0.2945
30797W        W73891   5.303  23.650  25.705  0.0691 -0.1981 -0.0381
30798W        W73892   2.976  24.976  25.538  0.1464  0.2628 -0.1594
30799W        W73893   6.651  24.998  24.693 -0.0423 -0.1473 -0.0649
30800W        W73894   4.000  23.873  24.319 -0.3123  0.0171  0.1451
30801W        W73895   3.711  24.864  24.280 -0.0079 -0.3110  0.0302
30802W        W73896   4.689  22.607  27.001 -0.1196  0.1770 -0.2023
30803W        W73897   7.270  23.485  26.173  0.1786  0.3213  0.0633
30804W        W73898   5.469  23.697  26.576  0.2663 -0.0193 -0.0232
30805W        W73899   5.411  21.742  24.455  0.0008 -0.0210 -0.1228
30806W        W73900   4.970  25.031  25.348 -0.0931  0.0303  0.1678
30807W        W73901   5.890  24.092  26.312 -0.1396  0.0384  0.0422
30808W        W73902   5.247  24.700  25.828  0.3474 -0.1881 -0.1125
30809W        W73903   3.956  25.079  27.639  0.0634 -0.1518 -0.0893
30810W        W73904   5.529  23.155  26.603  0.0304 -0.1585  0.0955
30811W        W73905   8.907  26.357  25.510  0.1109  0.4339 -0.0435
30812W        W73906   4.448  24.845  27.714  0.0255  0.2531  0.0793
30813W        W73907   3.485  23.978  24.561 -0.0841  0.0003  0.0396
30814W        W73908   4.276  22.784  26.454 -0.1354  0.3160 -0.2447
30815W        W73909   5.044  24.279  23.395  0.3556 -0.1166  0.3167
30816W        W73910   5.131  22.297  25.964  0.2154  0.2265  0.1707
30817W        W73911   4.062  24.582  27.435 -0.1912 -0.0538  0.1094
30818W        W73912   4.787  24.486  25.185  0.2725  0.2096 -0.1077
30819W        W73913   3.881  25.328  27.084  0.1158 -0.2227  0.2064
30820W        W73914   6.209  22.174  24.295  0.3535 -0.0530  0.0103
30821W        W73915   5.673  24.460  23.474  0.1610 -0.0503 -0.1364
30822W        W73916   6.488  23.315  26.695 -0.2228 -0.0444 -0.1234
30823W        W73917   7.818  24.823  27.768  0.0505  0.1866 -0.2577
30824W        W73918   5.814  24.654  24.899 -0.1213 -0.1157 -0.0665
30825W        W73919   7.068  21.312  26.529  0.3999 -0.1647 -0.0674
30826W        W73920   4.143  21.949  26.351  0.1158 -0.2399 -0.1609
30827W        W73921   6.422  24.346  25.659  0.0801 -0.0022  0.3379
30828W        W73922   3.875  24.282  27.884 -0.1235 -0.0808 -0.0214
30829W        W73923   5.946  24.591  26.340  0.1814  0.2209  0.0712
30830W        W73924   5.942  22.860  29.391  0.0878  0.1085 -0.1396
30831W        W73925   5.906  23.033  25.377 -0.1210 -0.0896 -0.1713
30832W        W73926   4.064  21.503  23.736  0.2239 -0.1433 -0.0051
30833W        W73927   4.676  23.780  25.929  0.1260  0.2033 -0.0808
30834W        W73928   6.111  24.517  27.060 -0.1061 -0.1667 -0.3782
30835W        W73929   3.695  23.839  23.605 -0.3205  0.1671  0.1558
30836W        W73930   7.017  22.371  25.424 -0.4056  0.0439  0.0274
30837W        W73931   3.319  23.725  27.550 -0.1146  0.1463  0.1170
30838W        W73932   4.998  24.171  25.843 -0.0263 -0.1134  0.0047
30839W        W73933   5.263  22.511  24.631  0.0058 -0.2863 -0.0974
30840W        W73934   4.447  24.008  24.931  0.0348  0.0286  0.1788
30841W        W73935   3.844  22.745  25.587 -0.1578 -0.0650 -0.2356
30842W        W73936   5.073  24.710  24.770 -0.1875  0.3129 -0.0712
30843W        W73937   5.520  23.534  24.487  0.0392  0.1069  0.0844
30844W        W73938   6.745  24.422  27.000 -0.4852  0.0823 -0.0468
30845W        W73939   7.243  23.896  27.792 -0.2260  0.2692 -0.0447
30846W        W73940   6.004  22.465  28.119  0.2551  0.0005  0.0297
30847W        W73941   4.490  22.580  29.416 -0.0611  0.0071 -0.2130
30848W        W73942   5.944  25.101  26.399 -0.0431  0.1423 -0.1530
30849W        W73943   6.992  23.429  23.359 -0.0109  0.0553  0.0236
30850W        W73944   8.085  23.667  26.243  0.1066  0.0893 -0.2600
30851W        W73945   5.304  23.684  24.971 -0.1268 -0.2681  0.5607
30852W        W73946   4.577  24.142  25.504 -0.0345  0.1739 -0.0087
30853W        W73947   3.936  24.003  25.819 -0.0615 -0.2705  0.0438
30854W        W73948   6.362  23.720  26.952  0.3043 -0.0246  0.0113
30855W        W73949   4.999  22.404  24.207 -0.0041 -0.0957 -0.0476
30856W        W73950   6.553  22.791  26.474 -0.0483  0.2341 -0.1790
30857W        W73951   6.258  25.270  23.364  0.2778  0.0830 -0.0905
30858W        W73952   5.480  24.240  25.038 -0.1537 -0.0259 -0.0352
30859W        W73953   6.882  23.521  26.871  0.0123 -0.0128  0.0920
30860W        W73954   4.628  21.654  23.391 -0.2629  0.1593  0.5143
30861W        W73955   4.904  25.771  28.043  0.1448 -0.0061  0.1351
30862W        W73956   4.217  21.963  23.392 -0.1417  0.2777  0.1512
30863W        W73957   5.829  23.430  22.605 -0.0169 -0.0479 -0.1142
30864W        W73958   3.944  24.116  26.532 -0.2562  0.5257  0.2405
30865W        W73959   7.095  25.296  27.622 -0.0867 -0.2240  0.3627
30866W        W73960   4.036  22.378  23.700 -0.1569  0.0244 -0.2896
30867W        W73961   7.987  24.125  25.915 -0.1181 -0.0498  0.0030
30868W        W73962   3.129  24.731  24.200 -0.1303 -0.3602  0.0062
30869W        W73963   6.394  23.377  26.221 -0.0507  0.0353  0.1015
30870W        W73964   4.070  24.901  25.782 -0.3230 -0.0024 -0.2178
30871W        W73965   4.613  24.399  27.335  0.1834  0.0503  0.0427
30872W        W73966   3.382  25.046  25.180 -0.0413  0.3826 -0.1499
30873W        W73967   5.471  23.143  25.625  0.1390  0.1522 -0.1354
30874W        W73968   5.175  24.167  26.326 -0.2093 -0.1748 -0.1539
30875W        W73969   6.218  23.324  25.036  0.1230  0.2215 -0.1550
30876W        W73970   7.617  23.131  25.738 -0.1108  0.0410 -0.0341
30877W        W73971   8.319  24.127  26.445 -0.0983 -0.0712 -0.0702
30878W        W73972   4.091  25.057  26.284  0.0843  0.0021  0.2417
30879W        W73973   4.779  25.159  26.928  0.1331 -0.1425 -0.0913
30880W        W73974   9.286  24.787  24.542 -0.1908  0.1297  0.1295
30881W        W73975   3.587  24.614  25.001  0.1554  0.4462 -0.2110
30882W        W73976   3.888  24.106  28.798 -0.2088  0.2117 -0.0615
30883W        W73977   5.493  23.159  28.064 -0.3386 -0.0735 -0.3207
30884W        W73978   4.446  23.076  25.827  0.2499  0.0383  0.0377
30885W        W73979   4.111  21.942  24.573 -0.0950  0.2288 -0.1644
30886W        W73980   5.650  24.452  22.905 -0.1340 -0.0843 -0.1041
30887W        W73981   5.022  25.742  28.579 -0.1616 -0.0310  0.0147
30888W        W73982   4.104  24.710  28.042  0.0648 -0.1502  0.2098
30889W        W73983   3.902  25.017  23.477 -0.4758 -0.2817 -0.0032
30890W        W73984   5.465  24.937  23.608 -0.1108 -0.0404 -0.1464
30891W        W73985   5.633  24.089  24.063 -0.2986 -0.1852 -0.1268
30892W        W73986   6.853  24.572  25.906 -0.1720  0.4629  0.1025
30893W        W73987   4.466  22.897  24.164 -0.0273 -0.1610 -0.1856
30894W        W73988   3.389  25.313  24.361 -0.0972  0.0716 -0.3837
30895W        W73989   2.582  24.871  24.607 -0.0556  0.1634  0.3476
30896W        W73990   6.466  26.747  23.240 -0.0558  0.0651 -0.2282
30897W        W73991   3.838  24.650  25.423  0.1997 -0.3120  0.4710
30898W        W73992   7.592  24.643  26.496  0.0663  0.2300 -0.0770
30899W        W73993   6.743  22.261  24.248 -0.3089  0.1407 -0.2919
30900W        W73994   6.636  23.573  25.153 -0.3098  0.1596  0.2946
30901W        W73995   6.731  23.064  25.128 -0.1389  0.0750  0.1374
30902W        W73996   7.289  24.153  27.359  0.0431 -0.1830  0.2555
30903W        W73997   4.734  24.510  26.372  0.0531 -0.1016 -0.0251
30904W        W73998   6.312  21.481  23.944 -0.0909  0.0690  0.2592
30905W        W73999   5.565  22.526  27.380  0.0894 -0.0695 -0.2531
30906W        W74000   8.438  24.008  27.564 -0.2865  0.1467 -0.2374
30907W        W74001   4.256  26.434  27.759 -0.2584  0.0532  0.1002
30908W        W74002   6.432  25.692  24.372  0.3466  0.2329  0.3402
30909W        W74003   3.109  23.034  24.817 -0.2611  0.1221 -0.0354
30910W        W74004   3.903  23.789  24.884 -0.2464 -0.1119 -0.0795
30911W        W74005   7.669  22.214  26.978 -0.1793  0.1721 -0.2595
30912W        W74006   4.976  23.802  23.261 -0.0084 -0.0771 -0.0019
30913W        W74007   6.394  23.525  25.694 -0.2464 -0.4323  0.0593
30914W        W74008   4.486  25.599  23.928  0.1300 -0.1005  0.3571
30915W        W74009   4.776  23.616  25.518 -0.1869  0.3914 -0.2381
30916W        W74010   4.960  26.637  27.664  0.4264 -0.0814  0.1327
30917W        W74011   2.871  23.502  24.812  0.1218  0.2554 -0.3407
30918W        W74012   5.062  22.790  23.798  0.0958 -0.2134 -0.2879
30919W        W74013   4.629  23.409  26.301  0.0568 -0.0710 -0.0852
30920W        W74014   7.346  22.429  27.294 -0.1388 -0.2057  0.1269
30921W        W74015   4.679  23.156  24.761 -0.1733 -0.1635  0.0924
30922W        W74016   5.925  22.593  24.386  0.0424  0.0688 -0.0291
30923W        W74017   6.926  23.223  26.480  0.0501 -0.0078 -0.0689
30924W        W74018   4.167  21.511  26.756  0.1584  0.0545  0.2720
30925W        W74019   4.924  24.156  24.848 -0.1635 -0.3658  0.1149
30926W        W74020   7.607  24.544  27.338 -0.1758  0.1689 -0.2580
30927W        W74021   5.557  25.328  21.875  0.2256 -0.4236  0.2249
30928W        W74022   6.088  26.100  26.370 -0.1212  0.0031  0.2734
30929W        W74023   4.228  23.526  25.738  0.1792 -0.2326  0.2289
30930W        W74024   5.481  22.537  23.614 -0.0447 -0.1754  0.2202
30931W        W74025   3.537  23.089  24.219  0.1709 -0.0641 -0.2224
30932W        W74026   5.848  24.786  25.385 -0.2849  0.0447  0.1761
30933W        W74027   6.870  24.220  27.573 -0.0458 -0.1309  0.1955
30934W        W74028   5.361  20.957  24.853 -0.2854  0.0880 -0.0385
30935W        W74029   5.742  24.626  24.039 -0.3118 -0.2199 -0.1623
30936W        W74030   6.207  23.750  26.507  0.3754 -0.0804 -0.0461
30937W        W74031   4.630  25.139  22.998  0.2333 -0.0108 -0.1551
30938W        W74032   5.839  23.644  24.836  0.1487 -0.0110  0.3231
30939W        W74033   5.064  26.019  27.444  0.2532 -0.2263 -0.0472
30940W        W74034   4.810  22.687  26.003  0.0332 -0.2872  0.0626
30941W        W74035   7.962  24.094  27.336 -0.0185  0.1384  0.3928
30942W        W74036   7.777  25.819  26.495 -0.3077 -0.1060 -0.3611
30943W        W74037   5.932  23.005  24.774 -0.0332 -0.1348 -0.3135
30944W        W74038   3.341  23.785  25.009 -0.0886  0.1587  0.0332
30945W        W74039   5.584  24.949  22.830 -0.0204 -0.0310  0.0893
30946W        W74040   7.033  21.774  26.535  0.1288 -0.0757 -0.0270
30947W        W74041   6.277  25.059  27.031  0.2064 -0.0073 -0.0856
30948W        W74042   6.676  25.313  23.116 -0.2811  0.1420  0.3500
30949W        W74043   6.704  21.567  26.898 -0.0452 -0.1909 -0.0894
30950W        W74044   6.064  25.524  26.730  0.2740  0.4071 -0.0161
30951W        W74045   3.304  25.497  28.148 -0.2482 -0.0788  0.0359
30952W        W74046   3.280  23.437  23.042  0.0248 -0.0533 -0.0059
30953W        W74047   6.257  24.845  26.042 -0.1560 -0.4223 -0.1980
30954W        W74048   4.877  23.299  23.366 -0.0710  0.0394 -0.0136
30955W        W74049   4.732  24.641  25.658 -0.1917 -0.3546 -0.0062
30956W        W74050   8.274  25.394  27.080 -0.0340 -0.0540 -0.1951
30957W        W74051   5.548  23.232  25.014  0.0813  0.1571 -0.0635
30958W        W74052   7.475  25.527  25.084 -0.0898 -0.1532  0.0320
30959W        W74053   5.575  22.102  24.968  0.1075  0.3731  0.2625
30960W        W74054   7.995  22.688  23.786  0.0741 -0.3573  0.2669
30961W        W74055   7.055  22.547  25.885  0.1231  0.0340 -0.1243
30962W        W74056   4.049  24.647  26.962 -0.1576 -0.0075  0.0245
30963W        W74057   2.689  24.270  23.125  0.1950 -0.1308  0.0503
30964W        W74058   3.590  24.599  23.416  0.0989  0.1014  0.0949
30965W        W74059   3.319  23.756  25.842 -0.0931  0.1720 -0.0325
30966W        W74060   6.596  21.265  27.422  0.2557  0.1374 -0.1431
30967W        W74061   5.042  22.099  26.926  0.0707 -0.1122 -0.1438
30968W        W74062   3.677  24.174  25.227 -0.1768  0.1411 -0.2363
30969W        W74063   5.461  21.887  23.956 -0.0000 -0.4365 -0.1572
30970W        W74064   6.454  25.017  25.268  0.2033  0.0671 -0.0762
30971W        W74065   3.817  23.641  26.575  0.0473  0.0963  0.0209
30972W        W74066   3.584  22.579  24.100 -0.4786  0.4782 -0.5696
30973W        W74067   6.160  23.352  24.493 -0.1202 -0.0324  0.1594
30974W        W74068   5.849  23.924  26.801 -0.0412  0.0229 -0.2372
30975W        W74069   5.034  22.331  25.129 -0.0607  0.2330  0.0215
30976W        W74070   6.912  25.524  25.834  0.0521 -0.0640  0.1659
30977W        W74071   4.313  23.124  23.179 -0.2142 -0.2492  0.1392
30978W        W74072   5.563  23.181  28.651 -0.1961  0.1086 -0.1322
30979W        W74073   6.899  22.973  27.541 -0.0416 -0.2134  0.0376
30980W        W74074   3.567  22.766  24.669 -0.2950 -0.0749 -0.1248
30981W        W74075   4.606  24.036  26.404  0.0376 -0.3273 -0.0473
30982W        W74076   5.416  25.934  24.319 -0.0672  0.2981  0.1199
30983W        W74077   6.574  26.212  23.311  0.3369  0.0968 -0.0745
30984W        W74078   4.790  24.590  26.891 -0.0886 -0.2510  0.0739
30985W        W74079   5.416  23.498  27.038 -0.1550  0.3381 -0.0842
30986W        W74080   3.734  22.065  25.460 -0.1036 -0.2931 -0.1916
30987W        W74081   5.957  24.422  25.852  0.4538 -0.2216 -0.1385
30988W        W74082   5.224  24.766  26.916 -0.1734 -0.0656 -0.1970
30989W        W74083   5.353  25.317  23.219  0.0501 -0.1997  0.0257
30990W        W74084   8.018  22.756  25.251 -0.0152 -0.1614  0.1461
30991W        W74085   5.118  23.296  25.238  0.0147  0.0917 -0.0300
30992W        W74086   3.677  22.433  26.894  0.2221 -0.0393  0.2786
30993W        W74087   6.529  22.532  27.922 -0.0202 -0.1965 -0.1320
30994W        W74088   7.724  24.890  26.993  0.2417 -0.0742  0.3226
30995W        W74089   4.942  21.903  24.212 -0.3284 -0.1289  0.1081
30996W        W74090   6.334  23.772  23.779  0.0449  0.3351 -0.1124
30997W        W74091   5.125  24.254  22.894  0.4376  0.0877  0.0378
30998W        W74092   3.220  24.061  25.415 -0.0695  0.0700  0.2442
30999W        W74093   4.961  22.859  25.094 -0.0464 -0.2302 -0.3018
31000W        W74094   4.272  24.556  26.511 -0.2112 -0.1784 -0.3875
31001W        W74095   6.005  26.017  23.660  0.1861  0.0996 -0.2736
31002W        W74096   8.022  23.883  27.781  0.0594 -0.1286 -0.3573
31003W        W74097   4.760  23.308  24.251 -0.0304  0.0470 -0.2462
31004W        W74098   7.959  24.246  24.102  0.0771 -0.0796 -0.2335
31005W        W74099   4.763  25.051  24.930  0.0870 -0.0207 -0.2421
31006W        W74100   7.668  25.805  27.069 -0.1472  0.1365 -0.3946
31007W        W74101   3.733  25.594  26.317  0.0129 -0.4305 -0.0464
31008W        W74102   6.097  23.969  25.742 -0.0559  0.1984  0.0512
31009W        W74103   3.237  21.570  25.373  0.0918 -0.1445 -0.2883
31010W        W74104   4.125  22.893  24.573 -0.1071  0.0296  0.0234
31011W        W74105   6.822  23.817  26.488 -0.0309  0.1100  0.1997
31012W        W74106   4.800  21.981  26.497 -0.0492  0.0601 -0.2689
31013W        W74107   4.176  23.785  26.231 -0.1080 -0.0888 -0.2678
31014W        W74108   4.882  22.808  24.475 -0.2146  0.0597  0.1079
31015W        W74109   4.970  25.628  26.168  0.1790 -0.0649  0.0603
31016W        W74110   5.064  25.369  26.556  0.0340  0.1226  0.3261
31017W        W74111   5.136  23.603  30.238 -0.1930 -0.0814  0.1343
31018W        W74112   4.542  23.465  29.397 -0.0373 -0.1442 -0.1701
31019W        W74113   6.885  23.737  27.328  0.0305  0.2932 -0.0273
31020W        W74114   8.505  23.711  27.996  0.0212  0.3404 -0.1360
31021W        W74115   3.506  23.099  28.163 -0.0516 -0.0174 -0.2742
31022W        W74116   5.502  24.020  28.040  0.3231 -0.0797  0.2138
31023W        W74117   3.556  21.900   0.193  0.0917  0.0320  0.2795
31024W        W74118   8.108  24.964  29.103  0.3787  0.1851  0.1903
31025W        W74119   6.125  24.597  29.657 -0.1760  0.0367 -0.1141
31026W        W74120   5.594  24.544  27.225 -0.1326 -0.1150  0.1414
31027W        W74121   6.278  22.878  30.659 -0.0060  0.1227  0.0733
31028W        W74122   6.135  23.689  30.590  0.1560 -0.0308  0.2510
31029W        W74123   5.735  22.354  28.573 -0.1155  0.2668  0.1057
31030W        W74124   5.704  20.364  30.687 -0.3600 -0.0938 -0.1167
31031W        W74125   6.528  23.799  30.233 -0.0472  0.2910  0.1893
31032W        W74126   3.548  23.853  27.939 -0.2833 -0.1239  0.2470
31033W        W74127   4.515  22.788  30.673 -0.2892  0.1391  0.1921
31034W        W74128   6.450  24.000  28.369  0.1958  0.3078 -0.2302
31035W        W74129   5.668  24.496  28.213  0.1630  0.0333 -0.2051
31036W        W74130   4.717  23.044  29.543  0.1047 -0.0826 -0.2407
31037W        W74131   7.281  21.297  29.636  0.0593  0.1209 -0.0248
31038W        W74132   4.166  23.855  28.018  0.0718  0.1044 -0.1303
31039W        W74133   4.731  23.710  28.084  0.3334 -0.0712  0.1655
31040W        W74134   3.949  23.420  30.241  0.0734 -0.1767  0.0440
31041W        W74135   5.213  22.995  29.801 -0.1605 -0.2256  0.3546
31042W        W74136   6.869  24.201  31.067  0.2859  0.0209  0.1390
31043W        W74137   7.527  23.547  29.740  0.2115 -0.2979  0.0834
31044W        W74138   5.451  23.486  29.145  0.1549 -0.2762  0.0950
31045W        W74139   7.055  24.824  29.751  0.1330 -0.0965  0.0884
31046W        W74140   7.066  22.157  30.184  0.2619  0.0650  0.0888
31047W        W74141   6.484  23.348  30.434 -0.1897  0.0325 -0.1330
31048W        W74142   5.108  24.712  29.020  0.0489 -0.1450 -0.0887
31049W        W74143   4.445  25.706  27.827  0.3754  0.3198  0.2415
31050W        W74144   7.901  25.144  28.686  0.1365  0.0911  0.1747
31051W        W74145   7.975  24.947  31.691 -0.1497  0.0243 -0.3205
31052W        W74146   5.366  25.435  30.418  0.1691  0.0045  0.2517
31053W        W74147   6.152  23.010  28.090  0.0398 -0.5025  0.1226
31054W        W74148   6.250  24.516  31.582 -0.2703  0.0373  0.0910
31055W        W74149   4.548  23.560  31.074  0.1258  0.2285  0.2680
31056W        W74150   6.606  22.545  30.163 -0.0819  0.1710  0.1511
31057W        W74151   5.833  22.908  29.908 -0.0526  0.4331  0.2623
31058W        W74152   6.074  25.570  28.314 -0.6211  0.2018  0.1673
31059W        W74153   6.660  23.034  28.545  0.1515  0.2613 -0.2240
31060W        W74154   5.609  23.717  30.459  0.2461 -0.0328 -0.1629
31061W        W74155   5.157  24.504  28.207 -0.1591 -0.0023 -0.0836
31062W        W74156   7.427  22.301  30.487 -0.1861 -0.0465 -0.2459
31063W        W74157   5.871  26.034  28.131 -0.5041  0.0685 -0.1466
31064W        W74158   6.431  22.284  27.529 -0.0257 -0.0373  0.3172
31065W        W74159   6.945  22.665  27.121 -0.1659 -0.0665  0.1393
31066W        W74160   6.838  22.053  27.962 -0.1102 -0.1773 -0.2169
31067W        W74161   5.122  22.054  29.123  0.0195  0.0340  0.2156
31068W        W74162   4.370  25.096  29.549  0.0005  0.1663  0.0312
31069W        W74163   6.061  23.112  28.600  0.1446 -0.1391  0.1022
31070W        W74164   7.320  24.247  30.364  0.1680 -0.1141  0.2421
31071W        W74165   6.045  22.637  28.903 -0.1728  0.1568 -0.1068
31072W        W74166   7.235  22.640  28.672 -0.3549 -0.0818  0.1878
31073W        W74167   4.948  24.101  31.112 -0.3170  0.0015 -0.1381
31074W        W74168   4.483  22.974  29.070  0.0856 -0.1832 -0.0066
31075W        W74169   6.269  25.168  27.583  0.3817  0.1550  0.0431
31076W        W74170   6.916  24.440  30.092  0.1580 -0.0770 -0.1150
31077W        W74171   5.315  25.199  27.091 -0.0493  0.2361 -0.3581
31078W        W74172   3.933  23.467  28.208  0.0248 -0.0357  0.0698
31079W        W74173   5.035  23.585  31.063 -0.0610  0.3030 -0.0761
31080W        W74174   5.223  23.084  31.132 -0.2944  0.0412  0.2846
31081W        W74175   5.052  22.383  27.490 -0.1149  0.1645 -0.0103
31082W        W74176   7.838  23.864  31.444  0.1830  0.0067 -0.1178
31083W        W74177   3.458  25.084   0.316  0.1413  0.1690  0.1477
31084W        W74178   7.422  22.447  29.174  0.1931  0.0864 -0.3505
31085W        W74179   5.859  24.072  28.515  0.0284  0.0563  0.0048
31086W        W74180   7.336  23.190  30.143  0.1875  0.1114 -0.0627
31087W        W74181   6.447  25.240  26.533 -0.2819 -0.0215 -0.1786
31088W        W74182   8.638  21.601  28.165 -0.0107 -0.0732  0.2526
31089W        W74183   7.975  22.352  30.188  0.2315  0.0738  0.0032
31090W        W74184   6.949  22.027  28.610 -0.0690 -0.3992  0.2210
31091W        W74185   5.076  23.480  28.488 -0.1375 -0.4512 -0.2351
31092W        W74186   6.283  25.167  29.564 -0.0590  0.0450  0.4993
31093W        W74187   7.493  22.556  26.110  0.0721 -0.0112 -0.1318
31094W        W74188   4.337  23.856  30.684 -0.3661  0.2008 -0.0312
31095W        W74189   5.205  21.930  30.868  0.0234  0.0067  0.5815
31096W        W74190   5.927  24.404  31.939 -0.0505  0.1012  0.4259
31097W        W74191   4.918  27.134  27.897  0.3953 -0.1245 -0.1722
31098W        W74192   4.757  23.759  29.756 -0.1849  0.0518  0.0150
31099W        W74193   5.373  23.120  27.520 -0.2906 -0.0870  0.2957
31100W        W74194   3.303  22.525  31.026  0.2473  0.1826  0.1971
31101W        W74195   5.547  22.744  28.841 -0.1341  0.2873  0.2075
31102W        W74196   6.193  21.623  27.595  0.0272  0.0378 -0.1394
31103W        W74197   5.340  21.667  29.800  0.1688  0.0382 -0.0896
31104W        W74198   7.988  21.305  27.800 -0.1495 -0.2426 -0.0667
31105W        W74199   3.829  25.196  29.417 -0.0335 -0.3270 -0.0701
31106W        W74200   6.846  25.504  26.786 -0.0807  0.0334 -0.0856
31107W        W74201   6.544  21.725  28.306  0.1552 -0.3201 -0.2043
31108W        W74202   5.704  24.887  26.838  0.0765 -0.4212 -0.0259
31109W        W74203   3.565  22.356  30.271 -0.4640 -0.1744  0.2686
31110W        W74204   5.221  22.295  28.577 -0.2074 -0.2206 -0.2009
31111W        W74205   4.758  21.353   0.153  0.0224  0.1192 -0.3410
31112W        W74206   3.868  20.982  30.322 -0.0854  0.1671  0.0746
31113W        W74207   6.228  23.296  30.949 -0.0473  0.0859 -0.0707
31114W        W74208   4.187  23.346  28.772  0.4576  0.0821 -0.2818
31115W        W74209   6.498  23.715  27.728 -0.1301 -0.3743 -0.0944
31116W        W74210   4.870  24.364  28.624  0.0389  0.2175  0.1776
31117W        W74211   5.098  23.867  29.018 -0.0795  0.0076 -0.0273
31118W        W74212   7.165  21.415  31.592 -0.0606  0.3211 -0.3936
31119W        W74213   5.432  25.147  27.568  0.0186  0.1273  0.3237
31120W        W74214   5.305  24.338  28.776 -0.1364 -0.2716 -0.2374
31121W        W74215   7.551  23.986  29.523  0.1822 -0.0866 -0.0763
31122W        W74216   5.872  20.673  30.284  0.0934 -0.1573 -0.1211
31123W        W74217   4.605  22.192  28.443  0.0245 -0.1494 -0.2690
31124W        W74218   3.931  25.717  30.871 -0.0251  0.0295  0.3275
31125W        W74219   6.488  24.218  27.896  0.1572  0.2702  0.0013
31126W        W74220   4.468  21.319  29.063  0.1229  0.0324 -0.2293
31127W        W74221   6.144  25.062  28.177 -0.0245 -0.1689  0.0467
31128W        W74222   4.853  23.287  29.940  0.0968 -0.1922 -0.0130
31129W        W74223   5.481  22.903  30.512 -0.0123  0.0170 -0.1133
31130W        W74224   7.456  22.923  29.063  0.0998 -0.0446 -0.0647
31131W        W74225   6.755  22.175  30.715 -0.0722 -0.2036 -0.1498
31132W        W74226   6.661  22.286  29.704  0.0812  0.2624 -0.0288
31133W        W74227   4.281  20.900  29.342  0.0976  0.0595  0.0991
31134W        W74228   7.007  23.801  30.836 -0.1717  0.0584  0.4818
31135W        W74229   5.267  26.800  28.044 -0.2449  0.6747 -0.1048
31136W        W74230   3.892  23.055  29.081 -0.0654 -0.2355  0.2654
31137W        W74231   5.103  23.423  29.530  0.2297  0.1235  0.2681
31138W        W74232   7.237  23.020  29.589 -0.2837 -0.0378 -0.2713
31139W        W74233   3.915  22.522  31.717 -0.2276 -0.2752  0.2188
31140W        W74234   8.226  22.244  30.993 -0.1774 -0.2765  0.2306
31141W        W74235   4.232  23.755  29.057 -0.2908  0.0343 -0.0320
31142W        W74236   5.395  23.907  30.846  0.1635 -0.2330 -0.2064
31143W        W74237   5.266  20.960  29.114 -0.0627  0.0779  0.4038
31144W        W74238   7.440  22.042  28.756 -0.0165 -0.0949  0.0889
31145W        W74239   5.652  24.077  31.241 -0.1122  0.3033 -0.4317
31146W        W74240   7.242  22.805  28.190 -0.1570  0.3676 -0.2054
31147W        W74241   6.442  21.184  28.325 -0.1861  0.0465  0.3163
31148W        W74242   6.702  22.251  26.497 -0.0282 -0.2823  0.0936
31149W        W74243   4.411  24.751  30.950  0.1349 -0.1010 -0.1519
31150W        W74244   5.942  23.580  28.749  0.0819 -0.3689  0.3006
31151W        W74245   6.065  24.040  29.690  0.1293  0.0293 -0.0209
31152W        W74246   6.266  24.709  27.823  0.2480  0.4200  0.1140
31153W        W74247   9.077  24.705  28.073 -0.1366 -0.1565 -0.1847
31154W        W74248   5.250  23.340  30.695  0.0738  0.1324  0.1637
31155W        W74249   7.015  23.629   0.156  0.0336  0.2506 -0.2074
31156W        W74250   5.843  25.262  28.655 -0.4249 -0.1778 -0.0325
31157W        W74251   6.378  23.611  31.744 -0.2673 -0.3888 -0.0669
31158W        W74252   5.408  21.833  28.309 -0.0078 -0.0528 -0.0248
31159W        W74253   6.550  21.896  28.849  0.0870  0.4503 -0.1384
31160W        W74254   2.682  25.874  28.691  0.0513 -0.0821 -0.2020
31161W        W74255   7.537  22.065  29.512  0.2044  0.1327 -0.0649
31162W        W74256   5.560  22.336  29.114  0.0356 -0.1106 -0.1319
31163W        W74257   5.992  21.680  30.234 -0.0862 -0.2404 -0.2027
31164W        W74258   7.174  22.511  29.666  0.3116  0.1283  0.0925
31165W        W74259   7.762  22.603  28.205  0.1442  0.0538  0.3006
31166W        W74260   7.170  24.035  29.152  0.0681  0.1810 -0.0468
31167W        W74261   5.953  23.395  27.860 -0.1765 -0.1029 -0.1647
31168W        W74262   6.473  21.195  29.864 -0.1223 -0.0570 -0.0664
31169W        W74263   4.214  22.940  29.616  0.1061 -0.1299  0.1880
31170W        W74264   4.283  25.178  31.194 -0.1391 -0.1356  0.0944
31171W        W74265   6.578  23.482  31.304  0.0587 -0.1284 -0.2432
31172W        W74266   7.368  24.189  28.692 -0.1310 -0.0416  0.2655
31173W        W74267   7.024  23.180  31.451 -0.0778  0.2265  0.2324
31174W        W74268   5.913  23.069  27.487  0.1212 -0.3109  0.0407
31175W        W74269   5.801  25.322  27.243  0.1698  0.1040 -0.0732
31176W        W74270   6.347  23.494  28.316  0.3007  0.3483  0.0330
31177W        W74271   5.601  20.598  29.352  0.0538  0.1463 -0.1159
31178W        W74272   6.460  23.697  29.694  0.0194  0.1476  0.2542
31179W        W74273   4.682  24.228  28.186  0.0071  0.2265  0.0833
31180W        W74274   6.559  24.934  29.969 -0.0068  0.0494  0.2944
31181W        W74275   5.930  23.671  29.398 -0.0934 -0.2038 -0.2084
31182W        W74276   8.060  21.333  29.481  0.1712  0.3430 -0.3495
31183W        W74277   3.503  25.928  27.695 -0.1018  0.0794 -0.1701
31184W        W74278   6.320  22.674  28.520 -0.2901 -0.2345  0.1856
31185W        W74279   4.252  24.245  29.232  0.5321 -0.2416 -0.0143
31186W        W74280   5.109  21.743  28.710  0.0030  0.3142 -0.0540
31187W        W74281   7.313  24.711  27.720 -0.2012  0.0079  0.3012
31188W        W74282   4.769  22.424  30.958  0.1056  0.0089  0.1110
31189W        W74283   7.096  21.056  28.980  0.0483  0.0345 -0.1372
31190W        W74284   4.309  26.254  29.854 -0.0716  0.0657  0.1424
31191W        W74285   6.529  23.967  30.812  0.2306  0.0294 -0.3562
31192W        W74286   7.445  21.003  27.090  0.2601  0.2178  0.0743
31193W        W74287   7.121  23.092  30.813 -0.0169  0.0639 -0.0629
31194W        W74288   5.870  24.623  31.279 -0.1370 -0.1956 -0.0865
31195W        W74289   5.555  22.701  27.827 -0.1003  0.0078  0.0493
31196W        W74290   7.264  24.489  31.269 -0.0815 -0.1391  0.2438
31197W        W74291   6.329  22.185  28.465 -0.0616 -0.1934  0.1514
31198W        W74292   4.223  24.759  30.282 -0.0195  0.1426 -0.2088
31199W        W74293   5.748  24.920  27.851 -0.1103 -0.0418 -0.3347
31200W        W74294   5.948  22.346  29.411  0.0848  0.1372 -0.0503
31201W        W74295   4.657  24.729  28.249 -0.0137 -0.1419 -0.1699
31202W        W74296   6.367  22.386  30.549  0.1737 -0.0498 -0.3051
31203W        W74297   6.989  23.504  30.331 -0.1020  0.0878 -0.0388
31204W        W74298   5.552  22.587  29.576  0.4259 -0.2463  0.1636
31205W        W74299   5.721  22.800  28.338 -0.1205  0.0166 -0.0439
31206W        W74300   6.761  21.525  29.321 -0.0630 -0.2254 -0.0201
31207W        W74301   6.016  22.238  30.000 -0.1353 -0.2248  0.1690
31208W        W74302   6.518  22.565  29.270  0.3270 -0.1092 -0.1691
31209W        W74303   5.591  23.640  31.552  0.0478 -0.0899  0.1060
31210W        W74304   5.942  20.180  29.313  0.0244 -0.0405 -0.0191
31211W        W74305   7.937  24.579  30.066  0.1055 -0.0300  0.0067
31212W        W74306   6.173  22.090  30.876  0.0794 -0.1224  0.4776
31213W        W74307   5.133  23.972  28.327 -0.3536 -0.0194  0.1832
31214W        W74308   4.844  23.761  30.676  0.2633  0.1392 -0.2104
31215W        W74309   4.653  24.006  27.678  0.3074  0.3506 -0.2991
31216W        W74310   6.975  22.645  31.331 -0.1250  0.0547 -0.1665
31217W        W74311   4.674  23.907  29.278 -0.2573  0.2022 -0.0787
31218W        W74312   3.022  25.976  28.277  0.1240 -0.6902 -0.0522
31219W        W74313   4.526  24.198  30.260 -0.1539 -0.1013  0.2360
31220W        W74314   7.229  23.355  27.281  0.2063  0.0149 -0.0139
31221W        W74315   4.823  23.380  27.682 -0.0959  0.1681  0.0810
31222W        W74316   6.574  20.931  29.467  0.1224  0.1161  0.1221
31223W        W74317   8.691  21.638  31.323  0.1546 -0.0476 -0.2751
31224W        W74318   7.011  25.810  27.103 -0.0939  0.1568  0.0016
31225W        W74319   6.915  21.201  30.064 -0.0820  0.0298  0.1371
31226W        W74320   4.403  21.789  29.941 -0.0055  0.2290  0.0153
31227W        W74321   6.859  24.214  29.671  0.0193 -0.0695  0.1649
31228W        W74322   4.326  22.333  30.719 -0.0951  0.2452  0.0920
31229W        W74323   6.157  25.362  30.668 -0.1444  0.4194  0.2721
31230W        W74324   4.588  23.339  31.611 -0.0543  0.1377  0.1886
31231W        W74325   6.443  21.331  28.928 -0.1592 -0.2191  0.0225
31232W        W74326   5.094  22.573  27.988 -0.0131  0.1107 -0.0962
31233W        W74327   4.832  23.398  28.995  0.2765 -0.1493  0.1512
31234W        W74328   5.868  24.375  28.874 -0.2333  0.3147 -0.1342
31235W        W74329   5.892  24.368  27.650  0.0984  0.1402  0.2853
31236W        W74330   7.774  23.201  29.520  0.2157  0.2616 -0.0953
31237W        W74331   3.682  22.866  29.469  0.2281  0.0134 -0.1430
31238W        W74332   6.378  22.017  29.432 -0.2747 -0.1091  0.1315
31239W        W74333   6.756  25.141  27.273  0.0555  0.0109 -0.1978
31240W        W74334   5.463  23.021  29.296 -0.1205  0.1556  0.2720
31241W        W74335   5.105  22.033  31.323  0.0510  0.0048  0.0135
31242W        W74336   6.624  24.662  29.533 -0.0417  0.2296  0.0154
31243W        W74337   5.637  21.837  28.767  0.2526 -0.3279 -0.1115
31244W        W74338   6.149  21.375  29.510  0.2041 -0.0116 -0.3175
31245W        W74339   7.194  22.673  30.162  0.3228  0.3939  0.1977
31246W        W74340   6.576  21.934  30.307 -0.1761  0.1123 -0.1334
31247W        W74341   4.579  22.468  31.410  0.0745 -0.0182  0.1790
31248W        W74342   6.749  24.554  31.395  0.0260  0.2229 -0.1958
31249W        W74343   7.923  23.288  27.617  0.1777 -0.2031  0.1910
31250W        W74344   8.830  20.991  30.353  0.0459 -0.1150  0.1174
31251W        W74345   7.300  22.306  28.308 -0.0277  0.2654  0.0626
31252W        W74346   8.013  23.920  26.720  0.1122 -0.1154 -0.1400
31253W        W74347   4.259  22.150  29.448 -0.4238  0.0839  0.3215
31254W        W74348   6.057  21.116  31.581 -0.3149  0.0421 -0.1845
31255W        W74349   5.682  21.567  27.369 -0.1466  0.0312 -0.0024
31256W        W74350   7.941  20.746  30.955  0.2539  0.0733 -0.0622
31257W        W74351   4.915  26.116  25.904 -0.4178  0.4349 -0.1235
31258W        W74352   6.609  23.954  29.320  0.0276  0.1235  0.0817
31259W        W74353   8.259  22.775  28.234  0.0806 -0.0255 -0.0099
31260W        W74354   2.117  21.528  29.530 -0.1750  0.1052  0.1413
31261W        W74355   4.563  23.783  31.915 -0.1169  0.1355 -0.0214
31262W        W74356   4.175  22.690  27.047 -0.1192 -0.2048 -0.0151
31263W        W74357   7.480  23.178  27.729  0.0846 -0.0761 -0.0577
31264W        W74358   5.604  23.953  28.966 -0.1973 -0.0879  0.1494
31265W        W74359   6.811  22.053  31.227  0.0084 -0.0458  0.0332
31266W        W74360   5.627  20.660  25.966 -0.2169  0.1004 -0.3856
31267W        W74361   8.544  22.853  30.790  0.0855 -0.1968 -0.0676
31268W        W74362   4.756  23.252  30.734  0.1010 -0.3115  0.1764
31269W        W74363   4.983  22.557  29.871 -0.1130 -0.1119  0.1339
31270W        W74364   5.048  24.723  29.653  0.0383  0.5243 -0.0691
31271W        W74365   4.122  22.989  31.558 -0.1300  0.0605 -0.1437
31272W        W74366   5.166  23.529  28.016  0.0001  0.1780 -0.1056
31273W        W74367   6.393  20.388  29.416  0.0086  0.1718 -0.0665
31274W        W74368   7.361  23.144  28.581 -0.3703  0.1444 -0.2639
31275W        W74369   6.275  23.158  29.523 -0.0810  0.1147  0.2589
31276W        W74370   7.779  22.399  30.849 -0.0293 -0.1379 -0.0970
31277W        W74371   5.107  23.486  31.648  0.0917 -0.0220  0.0816
31278W        W74372   6.406  23.703  28.757 -0.0225 -0.1624  0.0857
31279W        W74373   7.179  24.643  30.751  0.0184 -0.1346  0.0354
31280W        W74374   6.927  23.455  28.541 -0.1500 -0.2018 -0.1472
31281W        W74375   5.232  22.775  28.471  0.0557 -0.1124 -0.1221
31282W        W74376   4.607  21.981  31.037  0.2909  0.0315  0.1740
31283W        W74377   6.106  22.348  31.341  0.1034 -0.2230  0.1680
31284W        W74378   6.483  22.520  31.026  0.1084  0.0004 -0.0661
31285W        W74379   6.990  23.172  28.949  0.0501 -0.1115 -0.0142
31286W        W74380   5.382  25.965  28.214  0.0373  0.1521  0.2365
31287W        W74381   5.060  24.434  30.072  0.1997  0.0664  0.2522
31288W        W74382   4.429  22.369  30.037  0.1882  0.0895  0.0093
31289W        W74383   4.538  25.535  28.301  0.3840  0.3027  0.3599
31290W        W74384   7.824  24.615  28.698  0.2977  0.0500 -0.0570
31291W        W74385   7.597  24.310  27.857 -0.4641 -0.2443  0.2917
31292W        W74386   7.328  24.804  30.300  0.0545 -0.0856  0.2464
31293W        W74387   4.489  22.122  27.122  0.2257  0.0255 -0.3568
31294W        W74388   4.451  24.194  29.788 -0.4611 -0.4072  0.2045
31295W        W74389   4.119  24.603  28.697 -0.0637  0.0621  0.1299
31296W        W74390   6.656  25.396  27.786  0.1476 -0.1157  0.1405
31297W        W74391   3.939  25.562  29.131 -0.2485 -0.2199  0.4190
31298W        W74392   6.513  24.026  31.428 -0.1993  0.1765 -0.4828
31299W        W74393   7.655  23.710  27.475 -0.1763 -0.3720  0.0805
31300W        W74394   8.144  23.403  28.037 -0.0273 -0.0264  0.2245
31301W        W74395   8.354  23.485  27.532 -0.0943 -0.2317 -0.3368
31302W        W74396   5.099  24.993  31.667  0.0815  0.2444 -0.1904
31303W        W74397   5.274  22.173  30.363 -0.0224 -0.1879  0.0049
31304W        W74398   6.162  21.693  28.623 -0.0119 -0.0461 -0.0597
31305W        W74399   5.474  22.601  30.112  0.1922  0.1565  0.0035
31306W        W74400   8.357  21.923  30.169  0.0221 -0.0922 -0.3174
31307W        W74401   4.034  24.920  31.611  0.0879  0.0427  0.1187
31308W        W74402   7.229  25.335  27.057 -0.4094 -0.0030  0.0550
31309W        W74403   4.767  22.182  29.527 -0.0186 -0.1775 -0.2896
31310W        W74404   4.883  22.560  28.852 -0.2946  0.1878  0.1978
31311W        W74405   7.453  20.609  30.478  0.1186 -0.2041 -0.1411
31312W        W74406   5.888  23.385  26.884 -0.3420  0.0186  0.0261
31313W        W74407   6.790  22.825  29.807 -0.3203  0.3909 -0.1592
31314W        W74408   6.440  24.274  28.744 -0.0354 -0.0161 -0.0883
31315W        W74409   5.356  24.062  30.190  0.1635 -0.0122 -0.1802
31316W        W74410   5.718  23.751  29.904 -0.1610  0.1335  0.0815
31317W        W74411   3.520  23.667  28.454  0.1224 -0.0780 -0.0648
31318W        W74412   8.344  23.113  29.617 -0.0858 -0.2441  0.1028
31319W        W74413   4.774  21.614  30.322 -0.1278  0.3163  0.2386
31320W        W74414   7.662  21.646  29.656  0.0627  0.0132  0.0707
31321W        W74415   4.638  22.381  28.009 -0.0710 -0.3454  0.0219
31322W        W74416   7.633  23.577  27.994 -0.2258 -0.2110 -0.2047
31323W        W74417   6.237  22.612  29.730  0.1030 -0.0139  0.1666
31324W        W74418   4.514  21.296  29.596  0.2827 -0.2039 -0.0352
31325W        W74419   7.276  24.674  28.737 -0.1238 -0.2490  0.0017
31326W        W74420   6.610  22.990  31.143 -0.1634 -0.0162  0.2825
31327W        W74421   6.926  22.190  27.485 -0.0434  0.1871 -0.0455
31328W        W74422   6.015  24.973  29.987 -0.1459 -0.0382 -0.2994
31329W        W74423   3.556  22.477  29.103  0.3098  0.1422 -0.1646
31330W        W74424   7.324  21.797  27.250 -0.0137 -0.2467  0.1726
31331W        W74425   3.947  24.670  29.169 -0.1286 -0.0321  0.3704
31332W        W74426   3.981  21.568  30.252  0.0196 -0.0994  0.2760
31333W        W74427   6.750  24.714  30.923  0.0253 -0.1213 -0.1731
31334W        W74428   5.105  22.604  29.337  0.0982  0.0141 -0.0543
31335W        W74429   8.303  24.202  28.017  0.0899  0.3840  0.0887
31336W        W74430   7.533  22.825  30.470  0.0025 -0.1578 -0.4611
31337W        W74431   4.998  25.586  27.089 -0.1266 -0.0929  0.2738
31338W        W74432   7.791  24.189  28.304  0.2657 -0.1643  0.1743
31339W        W74433   6.699  24.741  28.734  0.2888 -0.0798  0.4205
31340W        W74434   4.957  21.012  30.568 -0.1307 -0.2245  0.3014
31341W        W74435   7.696  24.395  29.098 -0.3678  0.1225  0.3447
31342W        W74436   7.741  24.603  30.581  0.2043 -0.1608  0.0075
31343W        W74437   7.856  20.865  27.437  0.2791 -0.1511  0.0441
31344W        W74438   4.679  23.131  28.585  0.2446 -0.0408  0.0490
31345W        W74439   4.293  25.586  28.793  0.0149  0.0553  0.0392
31346W        W74440   7.277  23.390  29.272  0.0753  0.0628 -0.1131
31347W        W74441   6.990  22.673  29.237 -0.0705 -0.1752 -0.0294
31348W        W74442   4.939  24.923  27.397 -0.0853  0.5656  0.2527
31349W        W74443   6.946  22.145  29.137 -0.1103  0.1358  0.1215
31350W        W74444   6.119  24.011  29.045 -0.0248  0.1289  0.0643
31351W        W74445   3.937  25.840   0.530 -0.0596  0.1561  0.4219
31352W        W74446   4.859  24.324  29.096  0.0938 -0.1213 -0.3447
31353W        W74447   5.674  23.292  29.642 -0.1251 -0.1068 -0.0488
31354W        W74448   5.939  24.856  27.414  0.2091  0.2444  0.0005
31355W        W74449   5.147  24.124  27.742  0.1019 -0.3416  0.0309
31356W        W74450   6.988  25.218  30.016 -0.1832  0.2757 -0.3246
31357W        W74451   6.791  23.178  29.371  0.2838  0.2788 -0.2377
31358W        W74452   7.748  22.853  28.672  0.3140  0.1848 -0.0600
31359W        W74453   6.406  23.063  28.990  0.0961 -0.1260 -0.0395
31360W        W74454   7.819  22.350  28.728 -0.1372  0.0691  0.0412
31361W        W74455   6.332  19.885  27.408 -0.1029  0.0876  0.0866
31362W        W74456   5.017  23.019  30.299  0.2803 -0.0120 -0.3235
31363W        W74457   2.704  24.951  28.546  0.1483  0.2613 -0.1812
31364W        W74458   4.319  25.090  28.993  0.0962 -0.2676 -0.3757
31365W        W74459   5.162  23.047  28.865  0.1906  0.1976 -0.1285
31366W        W74460   7.536  20.501  31.481  0.1051  0.0426 -0.0543
31367W        W74461   3.203  20.643  30.218 -0.0502 -0.3629  0.0630
31368W        W74462   4.543  23.512  30.327 -0.0538 -0.0348  0.1636
31369W        W74463   3.977  21.483  29.336 -0.3482  0.2591 -0.0885
31370W        W74464   7.844  25.233  28.207  0.3203 -0.1350  0.0251
31371W        W74465   3.918  21.743  28.548  0.0887 -0.3106 -0.0631
31372W        W74466   4.197  22.047  30.337  0.0263  0.2344  0.1548
31373W        W74467   6.809  24.389  29.063  0.3003  0.0681  0.1785
31374W        W74468   7.202  23.880  30.041 -0.1358 -0.1589  0.3528
31375W        W74469   6.145  21.492  27.113 -0.1551  0.0984 -0.1639
31376W        W74470   7.898  24.132  31.833  0.2485  0.1087 -0.3041
31377W        W74471   4.397  24.163  28.718 -0.0579  0.2468 -0.5497
31378W        W74472   5.891  22.728  31.680 -0.2196  0.1106 -0.3185
31379W        W74473   6.598  21.457   1.083 -0.0090 -0.1328  0.0776
31380W        W74474   4.666  22.706  28.379  0.0285  0.1966  0.1148
31381W        W74475   7.402  23.635  28.846  0.1895 -0.2208 -0.1124
31382W        W74476   5.942  23.260  29.108 -0.0783 -0.2439  0.1779
31383W        W74477   5.910  26.458  27.650 -0.3645  0.1575 -0.4663
31384W        W74478   4.633  24.746  28.818 -0.2650  0.0001 -0.4394
31385W        W74479   6.316  24.927  30.423  0.1133 -0.0259  0.1741
31386W        W74480   3.933  21.763  31.088 -0.0260 -0.1274  0.2434
31387W        W74481   8.215  24.341  29.066 -0.0486 -0.2856  0.1534
31388W        W74482   4.623  24.295  30.750  0.0641 -0.0022 -0.0243
31389W        W74483   8.030  25.641  27.975 -0.2312  0.0508 -0.0453
31390W        W74484   8.070  22.872  29.248  0.2005 -0.1490  0.0015
31391W        W74485   6.420  23.505  29.222 -0.2697  0.1593 -0.1926
31392W        W74486   5.009  22.739   0.144  0.2309  0.0044 -0.0132
31393W        W74487   5.933  22.630  30.385  0.0091 -0.1312  0.2292
31394W        W74488   7.838  23.716  29.133 -0.1257 -0.0093 -0.1709
31395W        W74489   5.818  21.852  29.613 -0.1916 -0.2492  0.1031
31396W        W74490   6.878  21.349  28.621 -0.1184  0.0417  0.1232
31397W        W74491   6.280  24.179  26.749  0.0766  0.0423 -0.1379
31398W        W74492   3.701  23.335  31.292  0.1580  0.2772  0.1771
31399W        W74493   7.638  23.083  28.184  0.0003 -0.1831  0.0947
31400W        W74494   4.891  22.099  30.029  0.2552  0.0644 -0.0941
31401W        W74495   5.610  25.446  28.118  0.2446 -0.0811  0.0878
31402W        W74496   7.287  22.577  30.853  0.3950  0.2807 -0.0313
31403W        W74497   6.671  22.424  28.804 -0.1001  0.0698  0.2983
31404W        W74498   7.099  24.323  28.162 -0.1315  0.1734  0.3907
31405W        W74499   5.514  24.957  28.372 -0.3208 -0.4424  0.1515
31406W        W74500   7.170  24.483   0.648  0.0600 -0.4707  0.3090
31407W        W74501   6.413  24.315  30.043  0.0776 -0.1992  0.1208
31408W        W74502   8.314  24.112  29.976 -0.2090 -0.2829 -0.4142
31409W        W74503   3.763  21.019  29.521  0.0277  0.2119 -0.3837
31410W        W74504   5.167  24.968  27.969  0.1224 -0.1334 -0.2466
31411W        W74505   5.757  23.597  28.296  0.1987 -0.2998  0.1009
31412W        W74506   6.256  22.950  30.137 -0.1555  0.1232 -0.0384
31413W        W74507   5.766  22.141  30.529  0.0622 -0.2173 -0.0739
31414W        W74508   6.826  20.130  27.500  0.1200 -0.3413 -0.0321
31415W        W74509   4.133  24.656  29.648  0.2910  0.1711 -0.2429
31416W        W74510   6.242  24.491  29.180 -0.0127  0.3085  0.1256
31417W        W74511   5.984  23.233  31.921  0.1172 -0.0837  0.0254
31418W        W74512   5.724  22.216  31.643  0.3235 -0.2531 -0.2861
31419W        W74513   4.203  22.041  31.433 -0.3668 -0.0600  0.0509
31420W        W74514   3.789  22.240  31.128 -0.1176  0.0316 -0.0580
31421W        W74515   5.575  24.615  31.675  0.0655  0.2727  0.0106
31422W        W74516   6.117  23.769  31.118 -0.0518  0.2097  0.1560
31423W        W74517   5.464  22.922   1.768 -0.0336  0.2720 -0.0181
31424W        W74518   6.857  20.531  28.927  0.0155 -0.1041  0.0127
31425W        W74519   6.941  22.295  31.657  0.0278 -0.0437 -0.1978
31426W        W74520   7.348  24.025  31.422 -0.1048  0.0964 -0.0040
31427W        W74521   5.454  23.316   2.217 -0.0581  0.0048 -0.1845
31428W        W74522   7.282  21.344  30.362 -0.3416  0.4503  0.0694
31429W        W74523   6.122  23.390   0.983  0.0415 -0.0746  0.4014
31430W        W74524   6.524  21.687  30.806 -0.1951  0.0159 -0.3136
31431W        W74525   6.357  23.105  31.602  0.0347 -0.0201 -0.1103
31432W        W74526   4.748  24.381  31.893  0.0430  0.1409 -0.1620
31433W        W74527   5.204  22.613   1.536 -0.0526  0.1553  0.0954
31434W        W74528   5.818  23.410   0.440 -0.0980 -0.2380 -0.1099
31435W        W74529   2.851  23.254   1.329  0.0100 -0.0831  0.2734
31436W        W74530   4.167  22.229   0.996  0.0559  0.1641  0.0832
31437W        W74531   4.477  22.748  31.835  0.0373  0.0893 -0.1978
31438W        W74532   5.598  24.056  31.791 -0.2993  0.0079 -0.1184
31439W        W74533   8.330  21.881   0.264  0.1684  0.2275 -0.3406
31440W        W74534   7.267  22.054  30.931 -0.0210 -0.2126 -0.0470
31441W        W74535   6.316  21.676  29.872 -0.0377  0.0308  0.1373
31442W        W74536   6.901  21.568  31.162 -0.1743 -0.1429  0.1954
31443W        W74537   4.557  22.685   0.886 -0.1854 -0.1986  0.3430
31444W        W74538   5.514  24.857   0.124  0.0381 -0.1704 -0.3836
31445W        W74539   3.877  22.265   0.215 -0.0947  0.0543 -0.0383
31446W        W74540   5.679  24.452   0.403  0.1927  0.0742 -0.0182
31447W        W74541   6.799  22.682  30.660  0.2704  0.0707  0.0887
31448W        W74542   4.692  22.369   1.687 -0.0277 -0.0202 -0.0219
31449W        W74543   8.040  21.167  31.329  0.1597 -0.1142 -0.0978
31450W        W74544   6.232  22.749   0.066  0.0595 -0.1085  0.4636
31451W        W74545   3.296  22.848  31.426 -0.0312 -0.1000  0.0543
31452W        W74546   4.801  22.839   1.308 -0.1861  0.2800 -0.0666
31453W        W74547   6.145  22.821  31.211  0.2538 -0.0489  0.3246
31454W        W74548   5.253  24.413   0.008  0.1360  0.3025 -0.0031
31455W        W74549   5.570  23.104  31.515  0.1730  0.0747  0.2082
31456W        W74550   6.010  25.456  30.190  0.0246 -0.1117 -0.1722
31457W        W74551   8.534  21.730  30.729  0.0689 -0.0741  0.1564
31458W        W74552   5.452  21.674  31.234  0.0120  0.1027  0.0914
31459W        W74553   5.093  22.553  31.306 -0.0933  0.1563  0.2976
31460W        W74554   6.227  24.320  31.141  0.0225 -0.1995 -0.0463
31461W        W74555   4.796  21.935   0.165  0.0312 -0.0169 -0.0557
31462W        W74556   6.557  23.042   0.807 -0.3589 -0.2973  0.3353
31463W        W74557   5.878  20.992   0.390 -0.0828  0.1045 -0.0005
31464W        W74558   5.866  23.266  30.494  0.4615 -0.0446 -0.0466
31465W        W74559   6.983  23.672  31.640 -0.0666  0.1509 -0.0979
31466W        W74560   4.607  24.490  31.387 -0.0977  0.1133  0.0407
31467W        W74561   6.422  24.177  31.901 -0.0333 -0.4001 -0.1546
31468W        W74562   8.079  20.876  29.260 -0.1868  0.2923 -0.1684
31469W        W74563   5.872  22.397   0.994 -0.1055  0.0881 -0.3503
31470W        W74564   5.367  22.482  30.776 -0.3595 -0.0700 -0.2639
31471W        W74565   5.149  22.285   0.270  0.3193  0.0875  0.1900
31472W        W74566   5.596  22.059  29.984 -0.0219  0.0866  0.0102
31473W        W74567   6.770  23.232  31.884 -0.2600  0.0374  0.1875
31474W        W74568   5.543  24.505  30.296 -0.4005  0.0377  0.2126
31475W        W74569   5.839  24.092  30.705  0.1918 -0.1730  0.0012
31476W        W74570   4.971  22.948  31.599  0.1108 -0.1138 -0.0473
31477W        W74571   3.910  24.014  31.479  0.1693 -0.3156  0.0029
31478W        W74572   5.387  22.693  31.741 -0.0291 -0.0890  0.3765
31479W        W74573   4.279  24.287  31.753 -0.2139  0.0238  0.0716
31480W        W74574   3.146  21.652   0.482 -0.0657 -0.1698  0.1616
31481W        W74575   5.819  25.065  30.958 -0.1134 -0.0323 -0.1987
31482W        W74576   6.945  24.922   0.372  0.1917  0.0400  0.2354
31483W        W74577   7.153  22.750   1.332 -0.1896 -0.3072  0.3464
31484W        W74578   3.904  28.283  18.541 -0.0872  0.4507 -0.0335
31485W        W74579   5.159  26.127  16.738  0.1873  0.0706  0.0381
31486W        W74580   5.857  26.984  16.815 -0.0318  0.1697  0.2929
31487W        W74581   7.136  27.708  17.127  0.4303 -0.0124 -0.2383
31488W        W74582   4.261  26.376  17.261 -0.0972  0.0561  0.1249
31489W        W74583   5.491  28.327  16.953  0.0519 -0.0449  0.1189
31490W        W74584   2.891  24.930  18.012 -0.2452 -0.1594 -0.0251
31491W        W74585   5.840  27.849  17.775  0.1826 -0.0393  0.2380
31492W        W74586   5.070  28.494  19.065  0.2844  0.1059  0.1984
31493W        W74587   6.071  29.101  16.489 -0.0522  0.1049  0.2655
31494W        W74588   4.076  27.308  19.676 -0.0757 -0.1410  0.0349
31495W        W74589   4.823  28.554  18.129  0.3913  0.1855  0.3048
31496W        W74590   5.549  26.853  17.525 -0.2176 -0.1396 -0.3168
31497W        W74591   4.541  24.338  18.439  0.2880  0.1455  0.0872
31498W        W74592   5.833  27.610  18.246  0.2694 -0.2016 -0.2307
31499W        W74593   3.003  27.551  15.850  0.3751 -0.2134 -0.2482
31500W        W74594   4.924  26.776  18.672  0.1016  0.0848 -0.0458
31501W        W74595   4.431  26.758  18.097 -0.3069 -0.1031  0.2222
31502W        W74596   5.141  29.140  18.713 -0.2506 -0.2312  0.0677
31503W        W74597   4.247  26.298  18.088  0.0991 -0.2291  0.1773
31504W        W74598   5.022  24.274  19.782  0.1909  0.0135 -0.0921
31505W        W74599   4.191  29.820  17.502  0.0745 -0.1507 -0.1530
31506W        W74600   2.872  27.213  16.246 -0.4312 -0.1457  0.1203
31507W        W74601   4.046  25.840  18.202 -0.0274  0.1295  0.1396
31508W        W74602   3.814  27.038  17.575  0.2209 -0.1130 -0.2779
31509W        W74603   4.997  25.464  18.189 -0.0514 -0.1669 -0.3049
31510W        W74604   6.620  27.195  18.794  0.1157 -0.1583 -0.2888
31511W        W74605   4.220  28.889  17.769 -0.1228 -0.1502 -0.4835
31512W        W74606   5.521  28.273  17.524  0.0353  0.0623 -0.0917
31513W        W74607   6.178  26.914  18.667  0.2919 -0.0048  0.3229
31514W        W74608   3.267  26.676  17.902 -0.2169 -0.0664 -0.1176
31515W        W74609   2.774  28.297  17.708  0.0960 -0.0930  0.2188
31516W        W74610   5.030  29.077  17.388 -0.2947  0.0646 -0.0021
31517W        W74611   5.208  28.182  16.082  0.1159 -0.1510 -0.1010
31518W        W74612   5.466  27.513  19.699  0.0482  0.1417 -0.0243
31519W        W74613   5.624  29.719  17.437  0.0501  0.2572  0.1283
31520W        W74614   3.655  29.083  16.347 -0.2431  0.1552  0.1198
31521W        W74615   4.918  30.014  20.380  0.0025  0.0153  0.1239
31522W        W74616   4.262  28.967  19.058 -0.1154 -0.3445 -0.1294
31523W        W74617   4.715  27.744  18.614 -0.2242 -0.3840 -0.0188
31524W        W74618   4.017  26.294  16.771  0.2211  0.0941 -0.2430
31525W        W74619   5.545  27.830  16.597  0.2046  0.1360  0.1193
31526W        W74620   5.440  28.475  16.501  0.1063  0.0341  0.1573
31527W        W74621   3.819  27.904  18.134 -0.0591  0.0091  0.2201
31528W        W74622   2.639  27.758  17.729  0.4208 -0.0443  0.0109
31529W        W74623   6.570  25.363  20.325 -0.0022 -0.1014 -0.1652
31530W        W74624   3.545  29.261  15.543 -0.1972  0.0369 -0.0153
31531W        W74625   7.015  27.413  15.392 -0.2399  0.1510  0.3610
31532W        W74626   5.209  23.940  16.497  0.4095 -0.1331  0.1832
31533W        W74627   5.968  28.604  16.254 -0.1961 -0.0636  0.0271
31534W        W74628   5.525  25.200  16.428  0.1618  0.1019  0.2220
31535W        W74629   3.843  28.762  18.092 -0.1996  0.1108 -0.3877
31536W        W74630   5.369  26.606  18.876 -0.1925  0.1872 -0.1005
31537W        W74631   6.249  28.622  19.485 -0.0089 -0.0153 -0.1744
31538W        W74632   5.259  27.537  16.195 -0.2950  0.1018  0.0067
31539W        W74633   5.798  25.918  18.635 -0.0027 -0.1499 -0.1582
31540W        W74634   3.835  30.311  19.160 -0.1736  0.1024 -0.0664
31541W        W74635   4.277  26.162  18.962 -0.1505 -0.2875 -0.5461
31542W        W74636   6.435  28.514  15.905 -0.0097 -0.0404 -0.1581
31543W        W74637   5.130  30.336  18.138  0.3131  0.1471 -0.1366
31544W        W74638   6.736  29.088  15.359  0.1958  0.2011  0.0109
31545W        W74639   2.914  27.816  16.351  0.1324 -0.0794 -0.1363
31546W        W74640   3.294  26.588  20.625  0.1312  0.2448  0.4946
31547W        W74641   4.846  29.224  20.298  0.1882 -0.2008  0.1776
31548W        W74642   5.318  26.198  15.938 -0.0176 -0.1254 -0.0140
31549W        W74643   6.735  28.437  20.146  0.2284  0.4319  0.1437
31550W        W74644   2.558  28.070  19.825  0.0807  0.1815  0.0957
31551W        W74645   6.782  26.448  18.074 -0.1808 -0.0234 -0.0647
31552W        W74646   3.403  27.006  20.000  0.0650 -0.2042 -0.5015
31553W        W74647   5.042  28.160  17.888 -0.2908 -0.2928 -0.1010
31554W        W74648   6.350  27.633  15.456 -0.0486  0.2022 -0.2711
31555W        W74649   4.993  25.160  17.200  0.3410  0.0556  0.0468
31556W        W74650   5.465  26.564  17.001  0.1158 -0.2981 -0.2681
31557W        W74651   3.915  28.657  16.466  0.2443 -0.0565 -0.0049
31558W        W74652   6.042  27.472  16.887 -0.2706 -0.2121  0.1708
31559W        W74653   4.497  28.201  17.715  0.1244 -0.0578 -0.2182
31560W        W74654   7.093  27.467  17.684  0.1119  0.0501  0.0202
31561W        W74655   5.423  30.161  16.144 -0.0159  0.0859  0.1939
31562W        W74656   6.769  25.744  19.769  0.3266  0.1575  0.0244
31563W        W74657   5.495  27.696  18.640  0.2232  0.1358 -0.0816
31564W        W74658   4.575  28.915  16.381  0.1980 -0.4058  0.0459
31565W        W74659   3.594  27.175  19.553  0.2401 -0.0341  0.1573
31566W        W74660   4.758  28.796  16.834 -0.0065  0.1165  0.0567
31567W        W74661   4.309  25.325  18.632 -0.1461  0.2566 -0.0695
31568W        W74662   4.395  28.206  18.554 -0.4715 -0.4581  0.0261
31569W        W74663   6.629  27.325  16.721 -0.0785 -0.0387  0.0718
31570W        W74664   5.921  26.023  20.430 -0.2397 -0.0449  0.0497
31571W        W74665   7.593  27.205  18.628 -0.2853  0.1622  0.0727
31572W        W74666   4.672  27.619  16.273  0.0441 -0.0445 -0.1877
31573W        W74667   5.616  28.968  16.466 -0.4180  0.0961 -0.1430
31574W        W74668   7.406  27.003  16.968  0.0104  0.1182 -0.0235
31575W        W74669   5.728  28.084  16.199 -0.0158 -0.1132 -0.1343
31576W        W74670   2.845  27.739  18.749 -0.1621  0.3680  0.2952
31577W        W74671   3.701  24.515  18.221 -0.0583  0.1276 -0.0862
31578W        W74672   4.198  25.366  19.288 -0.2058  0.0440  0.2166
31579W        W74673   4.136  25.137  16.598 -0.1693  0.0905  0.1095
31580W        W74674   7.639  27.212  19.693 -0.0236 -0.0730  0.0048
31581W        W74675   4.384  25.640  16.087  0.1549  0.1401  0.1580
31582W        W74676   5.930  26.021  17.678  0.3798 -0.2390 -0.2265
31583W        W74677   4.808  27.110  16.400  0.3693  0.2843 -0.1736
31584W        W74678   2.411  27.940  18.528 -0.2577  0.2119  0.1785
31585W        W74679   6.886  26.629  19.394  0.3847  0.0577  0.0086
31586W        W74680   6.623  30.008  16.533  0.0988  0.3573  0.1942
31587W        W74681   7.199  29.382  18.110  0.3717 -0.3771 -0.1085
31588W        W74682   7.141  30.243  16.551  0.2636  0.3541 -0.0799
31589W        W74683   4.507  25.924  17.495 -0.2313 -0.0985  0.0281
31590W        W74684   3.352  26.628  15.882  0.0678  0.2341  0.0084
31591W        W74685   3.278  29.940  16.961 -0.0178 -0.0765 -0.2318
31592W        W74686   4.478  27.721  17.477 -0.0720 -0.0023  0.0331
31593W        W74687   4.445  27.304  16.663  0.3782 -0.1905 -0.0070
31594W        W74688   8.116  28.882  16.764  0.1012 -0.1461  0.0008
31595W        W74689   5.493  28.776  17.355  0.1114 -0.0451 -0.0899
31596W        W74690   3.449  28.346  18.324  0.1491 -0.2144 -0.0666
31597W        W74691   5.774  25.169  19.885  0.1425  0.1649  0.1215
31598W        W74692   5.207  27.793  18.250  0.0004  0.4716  0.0761
31599W        W74693   5.372  26.821  18.394  0.1516 -0.0764  0.4181
31600W        W74694   4.157  26.566  16.394 -0.0282  0.0668  0.0987
31601W        W74695   5.444  29.293  17.162  0.0366 -0.0905 -0.0859
31602W        W74696   3.299  28.362  17.512  0.2148  0.1591  0.2124
31603W        W74697   2.901  28.174  18.367  0.3511 -0.0242 -0.0175
31604W        W74698   5.906  28.992  17.018  0.1792  0.1483 -0.4594
31605W        W74699   6.897  26.765  17.114  0.1584 -0.2204  0.1219
31606W        W74700   3.666  28.923  19.617  0.0124 -0.0559  0.3339
31607W        W74701   5.161  27.864  19.510 -0.1875  0.2106 -0.0800
31608W        W74702   4.796  27.225  17.741 -0.2965  0.5001 -0.3864
31609W        W74703   3.566  29.993  19.876 -0.1882  0.1315  0.0889
31610W        W74704   4.644  25.967  18.141 -0.1742 -0.1551 -0.0796
31611W        W74705   6.621  27.376  15.728  0.2654  0.0387 -0.1528
31612W        W74706   3.983  28.935  17.252  0.2579 -0.1564  0.1093
31613W        W74707   6.687  27.845  16.580 -0.0640 -0.1358 -0.1190
31614W        W74708   5.062  26.633  16.775  0.0651 -0.1384 -0.1111
31615W        W74709   6.007  26.512  16.788 -0.2295  0.0820 -0.0331
31616W        W74710   4.043  29.750  19.911 -0.2927  0.1418  0.3027
31617W        W74711   5.577  28.054  18.252 -0.4109 -0.1165  0.3127
31618W        W74712   6.004  27.034  18.223  0.2151 -0.0248  0.1710
31619W        W74713   4.838  27.066  16.890 -0.1108  0.0311 -0.0592
31620W        W74714   8.272  28.904  17.304  0.3972  0.1663  0.0488
31621W        W74715   1.559  28.405  20.816  0.1003  0.1462 -0.0817
31622W        W74716   7.176  27.435  19.595  0.0123 -0.3038  0.3873
31623W        W74717   5.303  29.366  16.617  0.1099 -0.0869 -0.2727
31624W        W74718   3.480  24.784  19.239  0.0207  0.1765  0.1101
31625W        W74719   4.649  26.634  17.149 -0.0382  0.0469  0.1600
31626W        W74720   3.829  25.495  18.483 -0.1876  0.3994  0.0520
31627W        W74721   3.358  29.339  16.047  0.0509  0.1175 -0.0549
31628W        W74722   6.940  25.969  18.933  0.0894 -0.1092 -0.1538
31629W        W74723   5.891  26.179  18.245 -0.0899  0.2464  0.0296
31630W        W74724   5.539  24.732  17.621 -0.1110  0.0310  0.2732
31631W        W74725   6.777  28.336  20.707 -0.1883  0.0429  0.1485
31632W        W74726   6.047  28.096  16.643 -0.2599 -0.0087  0.0175
31633W        W74727   5.010  25.938  17.543  0.0814  0.0363  0.0360
31634W        W74728   3.795  27.876  16.225  0.0844  0.1142 -0.5750
31635W        W74729   4.593  25.172  19.039 -0.0723 -0.0550 -0.1407
31636W        W74730   4.215  28.003  20.311 -0.0234  0.0604  0.0849
31637W        W74731   4.348  29.681  18.477  0.1564 -0.2368 -0.1178
31638W        W74732   7.373  28.302  19.018  0.0089  0.3250 -0.2691
31639W        W74733   5.954  28.116  17.186 -0.1751 -0.1240 -0.0020
31640W        W74734   5.364  25.039  20.577  0.1284 -0.2545  0.0421
31641W        W74735   4.297  26.996  16.251 -0.2202  0.0239 -0.0260
31642W        W74736   4.406  28.460  16.627  0.0828  0.0590  0.1621
31643W        W74737   4.295  28.210  15.629  0.0163 -0.1952  0.1510
31644W        W74738   5.468  24.045  18.105  0.0821 -0.1289  0.2938
31645W        W74739   4.188  27.744  18.468  0.2780 -0.1005  0.2668
31646W        W74740   5.022  28.659  16.027 -0.2290  0.0132  0.0078
31647W        W74741   5.180  27.273  18.567  0.1291  0.1412  0.0660
31648W        W74742   3.327  28.108  17.039 -0.1737 -0.0332 -0.3246
31649W        W74743   6.555  25.370  17.870 -0.0196  0.0567  0.3050
31650W        W74744   3.571  29.538  17.731 -0.1274  0.1637  0.1371
31651W        W74745   4.483  26.263  16.726 -0.3758 -0.0391  0.1318
31652W        W74746   3.693  26.611  17.330 -0.0595 -0.3484 -0.0368
31653W        W74747   7.452  25.889  17.832  0.1157 -0.0988 -0.1759
31654W        W74748   6.045  27.853  15.807 -0.3024  0.1388  0.1415
31655W        W74749   4.808  25.439  18.675 -0.0705  0.2580 -0.0275
31656W        W74750   4.826  24.726  19.413  0.1536  0.1359 -0.0316
31657W        W74751   2.810  27.696  19.215  0.1021  0.0970  0.0795
31658W        W74752   5.981  26.444  19.423 -0.1136  0.1506  0.0585
31659W        W74753   5.687  26.588  16.013  0.0749  0.0961 -0.1634
31660W        W74754   6.250  26.466  17.683  0.3052 -0.1862  0.0581
31661W        W74755   5.780  28.019  21.651  0.2054  0.1199  0.3143
31662W        W74756   3.279  26.202  16.204  0.0409  0.2137 -0.1191
31663W        W74757   7.555  28.033  19.821 -0.1189  0.0489  0.0934
31664W        W74758   4.303  27.136  17.736  0.2001  0.1962 -0.0981
31665W        W74759   4.267  28.909  16.819  0.0825 -0.0446  0.1611
31666W        W74760   5.333  29.434  18.209 -0.0697 -0.0225 -0.0416
31667W        W74761   4.328  26.517  15.941  0.0533 -0.2352  0.1755
31668W        W74762   2.544  29.017  17.448 -0.1338 -0.2182 -0.0417
31669W        W74763   3.933  26.775  19.420 -0.1777  0.2145 -0.2809
31670W        W74764   6.652  26.848  18.430 -0.1796  0.1496 -0.3985
31671W        W74765   4.882  25.509  17.687  0.2851  0.0853 -0.1014
31672W        W74766   4.783  26.140  17.125 -0.1051  0.1408  0.0017
31673W        W74767   4.621  26.787  17.610 -0.0854 -0.1103 -0.1334
31674W        W74768   4.700  28.023  18.179 -0.0472  0.3609 -0.0454
31675W        W74769   5.229  26.993  19.152 -0.2830 -0.2895  0.1460
31676W        W74770   3.064  28.429  19.226  0.3006  0.4390  0.1304
31677W        W74771   5.696  24.477  19.336 -0.0278 -0.1496  0.1339
31678W        W74772   7.392  28.653  16.629  0.0810 -0.0751  0.0165
31679W        W74773   6.381  26.054  18.709 -0.1091 -0.3361  0.2231
31680W        W74774   4.452  27.306  15.887  0.0976 -0.0971  0.0674
31681W        W74775   4.485  26.381  18.541 -0.0323 -0.1338  0.1894
31682W        W74776   5.114  27.430  16.691  0.0914 -0.0437 -0.1059
31683W        W74777   3.580  24.721  18.722  0.0904 -0.2996  0.1062
31684W        W74778   3.262  27.599  17.954  0.0674 -0.2722 -0.0760
31685W        W74779   4.854  27.734  17.741  0.1374  0.0385  0.1129
31686W        W74780   3.805  29.738  18.191 -0.2101  0.0116 -0.3529
31687W        W74781   7.009  26.328  15.576 -0.2315  0.2008  0.1034
31688W        W74782   5.095  29.106  15.527  0.1963  0.0608  0.0705
31689W        W74783   5.056  26.922  17.305  0.4837  0.1817  0.0526
31690W        W74784   5.940  25.328  18.449 -0.0846 -0.0861  0.0346
31691W        W74785   5.544  27.627  17.084 -0.3264 -0.1706 -0.0363
31692W        W74786   5.166  26.749  20.274 -0.1852 -0.3614 -0.0471
31693W        W74787   4.614  25.631  19.556  0.1559  0.1324  0.0474
31694W        W74788   4.202  28.460  18.952 -0.1204 -0.0774  0.4605
31695W        W74789   4.205  26.451  19.928  0.1174  0.2129  0.1222
31696W        W74790   4.506  30.112  20.795  0.0585  0.3104  0.3599
31697W        W74791   3.299  27.086  20.501  0.2599  0.1614 -0.0407
31698W        W74792   5.676  26.406  17.444  0.3961 -0.0720 -0.1297
31699W        W74793   4.462  25.427  16.851 -0.0296 -0.1814 -0.0360
31700W        W74794   3.914  27.165  19.072 -0.1005 -0.3991 -0.1248
31701W        W74795   6.430  28.091  17.356  0.1767 -0.3180  0.2858
31702W        W74796   5.820  27.200  17.292  0.0879 -0.0564 -0.0430
31703W        W74797   4.290  28.685  18.355 -0.2668  0.2891 -0.1736
31704W        W74798   3.492  28.033  19.255 -0.1382  0.2934  0.1873
31705W        W74799   5.301  27.311  17.607  0.1907  0.0954 -0.0064
31706W        W74800   4.728  27.727  16.968  0.0369  0.5857  0.3226
31707W        W74801   4.843  28.115  17.368  0.2269 -0.0255 -0.1347
31708W        W74802   5.117  25.541  20.445  0.0095 -0.3453 -0.1740
31709W        W74803   4.769  28.194  16.874  0.2523 -0.0219  0.0279
31710W        W74804   4.557  24.852  18.459 -0.0569 -0.2017  0.0659
31711W        W74805   5.293  25.893  18.728 -0.1413  0.0794 -0.0693
31712W        W74806   5.311  27.489  19.074  0.0002  0.0106  0.2820
31713W        W74807   6.318  27.147  19.137 -0.1297 -0.0835 -0.3520
31714W        W74808   5.502  25.488  19.584  0.2226 -0.3187 -0.0811
31715W        W74809   6.303  29.159  17.293  0.1349  0.0674  0.2234
31716W        W74810   6.854  27.332  16.227 -0.2463 -0.2015  0.0364
31717W        W74811   5.790  26.546  18.576 -0.0930  0.0132 -0.1867
31718W        W74812   6.412  26.464  17.166 -0.1449 -0.2152 -0.1099
31719W        W74813   5.652  27.369  16.466  0.1130  0.1099  0.3405
31720W        W74814   5.046  25.014  18.497  0.0730 -0.0205 -0.1434
31721W        W74815   6.638  27.758  19.863 -0.3126  0.0906 -0.0188
31722W        W74816   4.020  27.248  16.872  0.3675 -0.0225 -0.0259
31723W        W74817   4.698  26.470  18.991  0.0015  0.0425  0.0674
31724W        W74818   5.098  28.958  16.462  0.1694 -0.0399 -0.2547
31725W        W74819   6.104  28.590  17.259 -0.4172 -0.1156  0.1922
31726W        W74820   6.714  26.875  16.353 -0.0025 -0.2489 -0.1017
31727W        W74821   4.124  26.613  17.670 -0.3290 -0.1646 -0.1052
31728W        W74822   4.799  27.714  19.216  0.1955 -0.1057 -0.0353
31729W        W74823   5.056  27.925  16.561  0.1825  0.1771  0.0911
31730W        W74824   3.449  27.455  16.232 -0.0192  0.2341 -0.1449
31731W        W74825   4.058  27.100  18.219  0.0427 -0.0354 -0.0460
31732W        W74826   6.458  27.657  20.298  0.1214  0.1701  0.0949
31733W        W74827   5.296  24.887  16.804  0.1217 -0.1328 -0.1405
31734W        W74828   5.675  25.639  19.055 -0.1832  0.3259 -0.0215
31735W        W74829   2.680  28.663  17.160 -0.0819 -0.0810  0.0769
31736W        W74830   5.745  24.797  18.050 -0.3832 -0.2845 -0.1665
31737W        W74831   4.500  29.154  18.156  0.1200  0.0171 -0.2328
31738W        W74832   3.392  29.287  19.342  0.2439  0.4149 -0.0655
31739W        W74833   4.459  28.816  17.307 -0.1564  0.0168  0.3308
31740W        W74834   7.733  25.501  18.712 -0.1077 -0.1213 -0.3065
31741W        W74835   7.095  26.431  18.935  0.0973  0.2761 -0.0903
31742W        W74836   3.728  27.813  18.727  0.2017  0.3394  0.1201
31743W        W74837   6.447  26.858  17.984  0.1315  0.1750 -0.1172
31744W        W74838   5.189  28.006  18.919  0.0711  0.0183 -0.2070
31745W        W74839   3.696  27.678  17.175 -0.0122 -0.1499  0.5423
31746W        W74840   4.130  28.738  19.489  0.0102 -0.1210  0.0073
31747W        W74841   6.709  28.819  18.061 -0.1233  0.1430 -0.1067
31748W        W74842   3.698  28.398  17.809 -0.2823  0.0745  0.1802
31749W        W74843   3.203  27.361  18.448  0.0787  0.0658  0.1314
31750W        W74844   5.097  27.833  20.000 -0.0820 -0.4680  0.1239
31751W        W74845   6.140  27.681  17.431 -0.1206  0.0696  0.0752
31752W        W74846   4.838  25.660  17.143 -0.0885  0.2537  0.1326
31753W        W74847   5.223  29.690  15.421  0.0535 -0.0141  0.1078
31754W        W74848   3.801  29.469  18.654 -0.2283  0.1861  0.1034
31755W        W74849   3.995  26.472  18.544  0.2111  0.0288  0.1357
31756W        W74850   4.127  29.108  16.367 -0.1300 -0.1371  0.1454
31757W        W74851   6.759  29.532  15.612 -0.2047 -0.2455 -0.0231
31758W        W74852   5.702  28.078  15.438 -0.0995 -0.0949  0.3360
31759W        W74853   5.186  29.223  19.204 -0.0606  0.1313  0.2605
31760W        W74854   4.559  27.261  17.316  0.0395 -0.1239  0.0028
31761W        W74855   3.374  27.401  17.501 -0.3589  0.2774 -0.0440
31762W        W74856   3.877  28.100  16.712  0.0130 -0.3144 -0.2271
31763W        W74857   7.133  29.068  16.625  0.2150  0.0569  0.3298
31764W        W74858   3.559  28.454  16.797  0.2004 -0.1159 -0.0300
31765W        W74859   4.727  28.625  18.719  0.0722  0.2393  0.0950
31766W        W74860   4.988  26.039  16.256  0.2194  0.0647  0.0252
31767W        W74861   7.559  28.067  17.897 -0.0651 -0.2235 -0.0609
31768W        W74862   6.425  27.322  18.342  0.2351  0.2507 -0.0999
31769W        W74863   4.820  30.302  19.504 -0.0024  0.0193  0.1723
31770W        W74864   4.821  27.253  19.011 -0.1779 -0.1004  0.0747
31771W        W74865   4.366  26.816  16.746 -0.2093  0.0643 -0.1416
31772W        W74866   5.689  26.257  19.000 -0.1161 -0.0514 -0.0421
31773W        W74867   6.305  25.956  19.639  0.0653 -0.1638 -0.1069
31774W        W74868   2.658  29.171  19.037 -0.1155 -0.2773  0.1509
31775W        W74869   6.890  28.671  16.764  0.0057  0.0527 -0.0455
31776W        W74870   4.914  26.461  18.274  0.0388  0.0186 -0.0715
31777W        W74871   4.481  25.682  19.026  0.0292  0.2365 -0.0644
31778W        W74872   6.681  26.198  17.538 -0.0200 -0.2477  0.0006
31779W        W74873   4.915  28.477  16.454 -0.2537 -0.0936  0.2045
31780W        W74874   5.105  26.438  17.429 -0.0271 -0.3643  0.2016
31781W        W74875   4.028  28.533  16.997 -0.2414  0.0134 -0.1999
31782W        W74876   4.100  28.491  17.491  0.2396 -0.2049 -0.2122
31783W        W74877   4.241  30.596  18.340  0.1169 -0.1488 -0.1805
31784W        W74878   3.836  26.757  16.849 -0.2616 -0.3408 -0.1464
31785W        W74879   6.927  27.267  17.198  0.3495  0.0252 -0.1470
31786W        W74880   5.441  26.513  19.358 -0.1963 -0.2706 -0.0637
31787W        W74881   6.172  24.772  18.461 -0.2780  0.1845 -0.1446
31788W        W74882   4.185  27.774  16.981 -0.5397  0.0199 -0.2589
31789W        W74883   5.995  27.699  16.352 -0.2815  0.0253 -0.1584
31790W        W74884   4.198  26.742  18.955  0.1901  0.0049 -0.3381
31791W        W74885   5.058  25.595  19.123 -0.2282 -0.1757  0.2582
31792W        W74886   5.750  27.331  17.787 -0.1159  0.1848 -0.1259
31793W        W74887   6.731  27.627  18.043  0.0295 -0.0013 -0.1817
31794W        W74888   5.877  26.953  16.313  0.0790 -0.1435 -0.0851
31795W        W74889   4.701  29.670  20.764 -0.1543 -0.1478  0.4349
31796W        W74890   4.337  25.583  17.823  0.1290 -0.0832  0.1420
31797W        W74891   5.424  27.137  16.980 -0.2385  0.4447  0.0682
31798W        W74892   4.003  27.933  17.555  0.0020 -0.1489 -0.1603
31799W        W74893   5.342  27.208  18.078 -0.2799  0.0592 -0.1804
31800W        W74894   5.128  28.505  20.989  0.2588 -0.1179 -0.2210
31801W        W74895   2.925  26.458  17.590  0.0323  0.2210  0.2319
31802W        W74896   7.179  29.386  15.298 -0.2002 -0.0749 -0.0436
31803W        W74897   6.091  27.017  17.679  0.1280 -0.1557  0.1540
31804W        W74898   6.112  29.056  15.937 -0.0359  0.1287  0.1788
31805W        W74899   6.332  28.881  15.549  0.1559  0.0954  0.2600
31806W        W74900   7.033  30.679  17.449  0.0380  0.0407  0.1082
31807W        W74901   4.347  25.884  17.035 -0.0070 -0.2622 -0.0853
31808W        W74902   4.831  29.486  18.449 -0.0796 -0.0084  0.0572
31809W        W74903   5.790  28.389  18.554 -0.1391  0.1565  0.1974
31810W        W74904   5.447  25.909  17.710 -0.2053  0.2051  0.2795
31811W        W74905   4.009  24.882  19.324 -0.1130  0.1700  0.0507
31812W        W74906   3.623  29.360  17.243 -0.0171  0.0152 -0.0235
31813W        W74907   5.831  26.631  17.925  0.4201  0.0067  0.1216
31814W        W74908   6.402  25.098  18.809 -0.1769  0.1272  0.0180
31815W        W74909   4.638  28.727  15.605 -0.0507  0.0021  0.2945
31816W        W74910   5.486  27.053  20.007  0.0874 -0.1401 -0.0625
31817W        W74911   4.123  27.971  18.952  0.1147  0.0279  0.0383
31818W        W74912   5.560  28.076  21.184 -0.0351 -0.2661  0.0848
31819W        W74913   3.329  27.968  16.027 -0.1631  0.3416 -0.1782
31820W        W74914   4.701  28.183  19.028  0.1409 -0.0026 -0.2571
31821W        W74915   4.515  29.748  17.169 -0.1164  0.1136 -0.0318
31822W        W74916   5.293  27.813  17.547  0.2680 -0.0225 -0.3247
31823W        W74917   6.603  28.617  17.278  0.3367 -0.1974 -0.1008
31824W        W74918   5.412  26.359  17.862  0.1368 -0.0083 -0.3472
31825W        W74919   5.387  29.302  17.685 -0.2767  0.1833 -0.0822
31826W        W74920   5.241  26.085  19.141 -0.2807  0.1548 -0.1323
31827W        W74921   6.747  26.308  18.623  0.1652  0.0763  0.0349
31828W        W74922   5.963  26.230  16.381 -0.1023 -0.0288  0.0093
31829W        W74923   3.184  28.073  18.856 -0.3286  0.1250 -0.1837
31830W        W74924   3.338  26.667  16.845 -0.0106 -0.3170 -0.4831
31831W        W74925   4.318  27.896  16.510  0.0921 -0.0879 -0.1568
31832W        W74926   3.390  27.495  18.872  0.0868  0.0599 -0.0748
31833W        W74927   4.573  25.227  20.320  0.2271  0.0441  0.1427
31834W        W74928   3.518  27.480  20.317  0.1657 -0.1560  0.0904
31835W        W74929   3.229  28.122  17.916 -0.0531  0.3821  0.0495
31836W        W74930   4.293  27.771  17.991 -0.3310  0.1116  0.0003
31837W        W74931   6.902  29.477  16.070 -0.0515  0.0495  0.2971
31838W        W74932   5.100  25.064  18.994 -0.0432  0.0475  0.1145
31839W        W74933   3.435  26.164  16.692 -0.0002 -0.2161  0.4812
31840W        W74934   6.389  27.821  16.948 -0.0657 -0.2388 -0.0918
31841W        W74935   6.303  29.484  15.876 -0.5089  0.0699 -0.1643
31842W        W74936   5.454  26.088  17.157  0.1014  0.0504  0.0432
31843W        W74937   6.439  28.149  18.784 -0.0544  0.0880  0.0173
31844W        W74938   2.513  27.856  16.785 -0.1531 -0.1100  0.3047
31845W        W74939   5.610  27.694  20.223  0.2610 -0.0623  0.2462
31846W        W74940   6.169  25.563  18.917 -0.0022  0.1715 -0.0738
31847W        W74941   3.774  25.997  16.398  0.2105  0.0136 -0.1456
31848W        W74942   5.657  27.125  18.692 -0.0219 -0.0086 -0.0639
31849W        W74943   5.225  28.742  17.788  0.2000  0.2236 -0.1239
31850W        W74944   6.686  30.746  15.620 -0.2173 -0.4418 -0.1004
31851W        W74945   3.756  27.615  19.236 -0.0264 -0.1604  0.1754
31852W        W74946   4.587  28.565  19.281  0.3696  0.1329  0.0853
31853W        W74947   3.599  24.771  19.741 -0.0188 -0.0529  0.4805
31854W        W74948   5.030  27.443  17.233  0.1401 -0.2407  0.1538
31855W        W74949   4.084  29.091  18.530  0.1366 -0.1580 -0.2003
31856W        W74950   6.332  27.221  16.314 -0.2065 -0.1813  0.1137
31857W        W74951   6.736  26.997  19.710 -0.3128  0.1180 -0.5281
31858W        W74952   5.084  26.776  17.837 -0.1860  0.0460 -0.2656
31859W        W74953   3.755  26.220  20.131  0.3175 -0.0957 -0.1938
31860W        W74954   2.591  28.131  20.478 -0.1404  0.3280  0.1898
31861W        W74955   7.988  27.786  17.649  0.1202 -0.0902  0.0843
31862W        W74956   4.518  25.373  17.362 -0.4459  0.3488 -0.2236
31863W        W74957   6.431  26.758  16.769  0.3579  0.0530  0.0951
31864W        W74958   5.915  28.616  16.739 -0.2180  0.0787  0.0575
31865W        W74959   3.694  27.474  18.325 -0.2083  0.2454  0.1570
31866W        W74960   4.881  27.039  18.213 -0.1762  0.0360  0.1923
31867W        W74961   4.657  26.427  20.246 -0.2274 -0.1508  0.3492
31868W        W74962   5.322  29.625  18.868 -0.0982  0.3400 -0.1663
31869W        W74963   6.642  28.204  18.242 -0.0555 -0.0915  0.2134
31870W        W74964   4.377  28.201  17.181  0.3283 -0.0042  0.0998
31871W        W74965   6.529  27.703  16.091 -0.2528 -0.0894 -0.1217
31872W        W74966   4.979  29.065  18.167 -0.0107  0.3544  0.0293
31873W        W74967   5.980  28.292  19.142  0.0158  0.0590 -0.0300
31874W        W74968   3.940  28.035  19.533  0.0716  0.1906 -0.2165
31875W        W74969   6.381  27.814  18.324  0.0254 -0.1666 -0.1706
31876W        W74970   3.762  25.703  19.410  0.1150  0.0760 -0.1919
31877W        W74971   4.075  27.395  17.334  0.0295 -0.0274 -0.1347
31878W        W74972   4.795  27.507  18.188  0.2886 -0.3292 -0.1525
31879W        W74973   6.294  26.465  18.404 -0.2762 -0.0470  0.1876
31880W        W74974   4.659  26.309  17.739 -0.1737  0.0229  0.0729
31881W        W74975   6.460  25.964  17.985  0.1906 -0.0446  0.0753
31882W        W74976   4.692  29.467  19.063  0.1437 -0.0149  0.2247
31883W        W74977   4.550  27.192  18.540 -0.1942  0.0103 -0.0468
31884W        W74978   4.780  27.432  23.233  0.1053 -0.2298 -0.1322
31885W        W74979   4.795  25.616  21.083  0.4139  0.0398 -0.2532
31886W        W74980   5.564  26.059  19.997  0.0432  0.1093  0.0456
31887W        W74981   5.902  26.875  20.221  0.0268  0.0660 -0.1807
31888W        W74982   4.891  25.949  21.584  0.0532 -0.1232  0.1446
31889W        W74983   6.632  29.091  20.306 -0.0726  0.1125 -0.2340
31890W        W74984   3.352  24.834  22.974 -0.1314 -0.0079 -0.0228
31891W        W74985   6.447  27.513  22.778 -0.2131  0.0280  0.3835
31892W        W74986   6.315  28.245  20.952 -0.0394  0.2571  0.1991
31893W        W74987   5.026  28.774  19.485 -0.2568 -0.1478  0.0722
31894W        W74988   5.306  26.678  21.191 -0.0585 -0.0542 -0.0488
31895W        W74989   4.797  27.682  21.307 -0.0527  0.0053  0.3069
31896W        W74990   4.477  25.608  20.010 -0.0600  0.0240 -0.4405
31897W        W74991   3.631  25.316  21.466 -0.1779 -0.2646  0.2214
31898W        W74992   5.713  28.339  23.777 -0.1178  0.1743 -0.1306
31899W        W74993   4.376  26.437  19.391  0.2346 -0.0589 -0.0317
31900W        W74994   5.274  28.152  22.549  0.0394  0.0201  0.1301
31901W        W74995   5.201  27.491  22.239 -0.1033  0.3301 -0.0027
31902W        W74996   3.937  28.929  20.527  0.1599  0.0722 -0.0981
31903W        W74997   4.698  26.686  22.214  0.0088 -0.0441 -0.0875
31904W        W74998   6.608  26.073  22.491 -0.0157 -0.0669  0.1525
31905W        W74999   5.201  27.954  21.551  0.0699  0.1843 -0.1604
31906W        W75000   4.324  27.763  19.906 -0.2029 -0.0466  0.0963
31907W        W75001   4.547  27.157  22.280 -0.0711  0.2067  0.0468
31908W        W75002   4.533  27.846  22.891  0.4483 -0.1285 -0.1404
31909W        W75003   6.002  27.623  22.965 -0.1531 -0.0895 -0.0014
31910W        W75004   5.851  26.912  24.149  0.1407 -0.1113 -0.0054
31911W        W75005   3.314  28.374  20.224 -0.1548  0.0601  0.1387
31912W        W75006   6.699  27.950  21.180 -0.0752  0.3808 -0.2276
31913W        W75007   5.941  28.048  24.111 -0.0542  0.3087  0.4490
31914W        W75008   4.281  27.536  20.597  0.1210 -0.2704 -0.1695
31915W        W75009   2.738  29.902  21.804  0.2430 -0.1011  0.1776
31916W        W75010   3.096  28.569  21.669 -0.1714 -0.0101 -0.3497
31917W        W75011   6.904  26.478  21.279  0.1809 -0.0536 -0.3048
31918W        W75012   6.225  29.311  22.632  0.0622  0.1106 -0.0522
31919W        W75013   4.249  28.908  24.218 -0.1418 -0.3925 -0.2148
31920W        W75014   2.722  28.179  18.887 -0.0637 -0.2066  0.0468
31921W        W75015   4.393  27.570  23.537  0.1527 -0.0891  0.1629
31922W        W75016   4.933  27.885  23.177 -0.0355  0.1270  0.2070
31923W        W75017   4.501  27.392  21.603 -0.2310 -0.0219 -0.1748
31924W        W75018   6.499  28.956  22.872  0.1887  0.1302 -0.0018
31925W        W75019   2.965  27.975  20.119 -0.2394 -0.0305  0.0251
31926W        W75020   4.574  28.577  22.376  0.4157 -0.0938  0.0071
31927W        W75021   3.844  26.833  22.471  0.1927 -0.0560 -0.0753
31928W        W75022   3.386  27.894  20.965 -0.1947 -0.3426  0.1950
31929W        W75023   6.221  26.727  24.653  0.0066 -0.1593  0.1310
31930W        W75024   2.241  30.841  20.572 -0.1295 -0.3309  0.0385
31931W        W75025   4.304  28.997  20.173  0.3480  0.2561 -0.0418
31932W        W75026   4.797  26.009  18.734 -0.0830 -0.1964  0.0750
31933W        W75027   6.411  26.071  20.575  0.4405  0.3836 -0.0718
31934W        W75028   5.160  27.503  20.973 -0.0324  0.0801 -0.2585
31935W        W75029   4.148  29.016  22.357 -0.1329 -0.2377  0.0277
31936W        W75030   5.666  26.753  23.220 -0.2970 -0.0598 -0.0418
31937W        W75031   5.292  28.997  24.121 -0.1655  0.0519 -0.0503
31938W        W75032   5.124  26.868  19.676 -0.0699 -0.1443 -0.3050
31939W        W75033   6.662  27.446  23.905  0.2836  0.1494  0.0508
31940W        W75034   4.598  28.014  22.404 -0.0691  0.2156 -0.3649
31941W        W75035   3.970  26.793  21.491 -0.0118  0.3254  0.0976
31942W        W75036   4.998  28.263  18.585  0.2107 -0.0306  0.5387
31943W        W75037   6.993  28.820  19.335  0.4293  0.0613 -0.2448
31944W        W75038   5.192  28.902  20.092  0.1282  0.0091  0.1203
31945W        W75039   3.526  27.273  21.866  0.0281 -0.1032  0.2969
31946W        W75040   4.400  27.004  22.698  0.1192  0.2407 -0.1628
31947W        W75041   4.444  26.501  23.040 -0.1204 -0.0739 -0.0088
31948W        W75042   4.755  26.533  19.686 -0.1166 -0.0030  0.1475
31949W        W75043   7.216  28.740  24.004  0.3031 -0.1901  0.4793
31950W        W75044   3.940  28.405  20.510 -0.1050 -0.0609  0.3401
31951W        W75045   5.961  27.158  21.745 -0.3223  0.1660  0.1885
31952W        W75046   5.178  28.631  22.446 -0.0626  0.1857  0.1101
31953W        W75047   7.310  28.634  22.929 -0.0084 -0.1090 -0.2071
31954W        W75048   6.447  28.115  19.333  0.3906 -0.0245 -0.0427
31955W        W75049   6.100  25.765  23.242 -0.2477  0.2035  0.0561
31956W        W75050   5.634  27.432  23.966 -0.1102 -0.1444 -0.4097
31957W        W75051   3.399  27.930  19.819 -0.2194 -0.1276 -0.1797
31958W        W75052   5.501  28.418  19.385  0.1059  0.0683  0.3057
31959W        W75053   6.476  28.808  23.312  0.1058  0.1279 -0.0374
31960W        W75054   7.049  27.892  20.293  0.1686  0.2573 -0.3105
31961W        W75055   3.309  29.748  21.642  0.0635  0.0308 -0.3208
31962W        W75056   5.155  25.867  22.764  0.1042  0.2345  0.2776
31963W        W75057   4.928  28.022  24.182 -0.0495 -0.2013  0.0212
31964W        W75058   3.326  29.828  19.417 -0.0999 -0.3021  0.1976
31965W        W75059   2.793  28.390  21.258  0.3167  0.1901 -0.5363
31966W        W75060   4.321  27.678  21.102  0.0439 -0.1273  0.0830
31967W        W75061   3.285  25.727  22.771  0.1659 -0.0700 -0.0110
31968W        W75062   4.298  26.024  22.377 -0.3999  0.1888 -0.3413
31969W        W75063   6.309  26.892  20.531 -0.0358  0.1888  0.3786
31970W        W75064   3.308  26.765  22.023 -0.1898 -0.0587  0.1913
31971W        W75065   6.014  25.864  21.576 -0.1340 -0.0695 -0.3958
31972W        W75066   3.824  27.929  20.607  0.1265  0.0905  0.2216
31973W        W75067   6.543  30.040  20.478 -0.4002 -0.0239 -0.0942
31974W        W75068   5.977  27.283  20.725 -0.1075 -0.2538 -0.1688
31975W        W75069   5.851  28.459  19.732  0.2801 -0.0011  0.2313
31976W        W75070   3.240  27.589  22.217  0.2882  0.2655 -0.2483
31977W        W75071   3.537  27.021  21.456 -0.0772  0.1632  0.0358
31978W        W75072   4.020  24.862  21.711  0.1573 -0.2510 -0.2940
31979W        W75073   2.789  25.975  22.016  0.1459 -0.0196  0.0107
31980W        W75074   6.813  26.454  24.074 -0.4515  0.1856 -0.3783
31981W        W75075   3.548  26.171  21.366 -0.2500  0.1001  0.2253
31982W        W75076   5.565  26.802  20.607  0.0077  0.1299 -0.0486
31983W        W75077   5.106  26.297  19.974  0.1340 -0.0922 -0.0295
31984W        W75078   4.300  26.677  21.098 -0.1056  0.3062  0.1464
31985W        W75079   7.256  26.318  24.072 -0.1463 -0.2077 -0.3310
31986W        W75080   4.661  28.357  20.796  0.2577  0.0030 -0.2643
31987W        W75081   8.025  28.005  23.627 -0.3860 -0.1695  0.1591
31988W        W75082   5.964  27.803  20.542 -0.0551  0.0828 -0.1676
31989W        W75083   4.632  25.181  22.475 -0.3040  0.1968 -0.2837
31990W        W75084   4.503  26.170  20.761  0.0540  0.0382 -0.1876
31991W        W75085   5.893  28.290  23.256  0.0123 -0.0012  0.0646
31992W        W75086   4.063  28.751  21.952 -0.0598 -0.0475 -0.2260
31993W        W75087   5.583  26.523  22.108  0.0905  0.2809 -0.1008
31994W        W75088   6.343  28.623  20.520 -0.2779 -0.0127  0.0370
31995W        W75089   5.601  26.554  19.865 -0.0787 -0.0719 -0.2524
31996W        W75090   4.385  28.274  22.026 -0.1358  0.2619 -0.2423
31997W        W75091   7.321  26.805  23.622 -0.0319 -0.1878 -0.0509
31998W        W75092   6.125  28.039  23.609  0.3142  0.0240 -0.0040
31999W        W75093   4.712  28.013  21.697 -0.0099  0.2443  0.0875
32000W        W75094   4.047  25.880  19.845  0.0521  0.1735 -0.2042
32001W        W75095   6.040  27.662  21.212 -0.2589 -0.1091  0.2515
32002W        W75096   2.776  28.538  20.135  0.3104 -0.2758  0.1833
32003W        W75097   4.223  27.795  21.668  0.2243  0.0426 -0.2680
32004W        W75098   6.168  28.625  20.066 -0.1230  0.0368  0.0503
32005W        W75099   6.513  27.154  21.826 -0.0671  0.1715 -0.0956
32006W        W75100   3.601  26.840  23.447 -0.0187  0.0846 -0.0865
32007W        W75101   5.345  27.623  24.595  0.1001  0.0911  0.2918
32008W        W75102   4.495  27.316  20.175 -0.0977 -0.0312 -0.2860
32009W        W75103   3.860  27.613  23.678  0.0206 -0.0190  0.1224
32010W        W75104   6.439  25.328  21.524 -0.0768  0.0784 -0.2737
32011W        W75105   4.747  26.828  19.295 -0.2906  0.1540 -0.3832
32012W        W75106   4.537  28.498  24.298  0.0227  0.1948  0.2980
32013W        W75107   5.960  27.192  21.226 -0.2477 -0.0029  0.1386
32014W        W75108   5.570  27.030  19.509  0.0998  0.1874 -0.2262
32015W        W75109   6.051  27.795  19.441 -0.2104 -0.1894  0.3118
32016W        W75110   4.796  25.959  25.259  0.0404  0.0182  0.0275
32017W        W75111   6.168  27.854  19.935 -0.2126 -0.3098  0.0286
32018W        W75112   4.509  28.576  21.644  0.0323  0.1311  0.1400
32019W        W75113   6.365  28.254  19.853  0.2510  0.0266  0.0174
32020W        W75114   6.379  29.135  21.250  0.0601 -0.0923  0.1268
32021W        W75115   3.291  27.566  21.482  0.2087 -0.3180  0.0523
32022W        W75116   5.713  27.225  23.270 -0.1671  0.0570  0.0142
32023W        W75117   5.244  29.410  21.739  0.0180  0.2771 -0.3151
32024W        W75118   5.576  26.202  21.503 -0.2754 -0.3246 -0.3575
32025W        W75119   5.622  25.934  19.431 -0.2609 -0.1363 -0.0002
32026W        W75120   5.507  23.648  22.100 -0.0346  0.0201  0.1160
32027W        W75121   3.111  29.477  18.694  0.2011  0.0046 -0.0923
32028W        W75122   6.427  26.534  22.477  0.0810  0.0384 -0.0272
32029W        W75123   6.468  27.579  22.209  0.3835 -0.1327 -0.0209
32030W        W75124   5.268  25.639  21.356 -0.2877 -0.3437  0.1878
32031W        W75125   8.187  25.888  21.802 -0.0676 -0.0583 -0.1100
32032W        W75126   6.379  27.664  18.947 -0.0608  0.0408  0.3373
32033W        W75127   5.867  27.520  22.296 -0.0863  0.0594 -0.0364
32034W        W75128   3.777  28.117  20.099  0.0019  0.1754 -0.2077
32035W        W75129   5.236  26.391  22.467  0.4285  0.1503  0.4099
32036W        W75130   3.976  26.828  23.002  0.0155 -0.2089 -0.2020
32037W        W75131   3.819  28.811  22.724  0.0144 -0.1275  0.1982
32038W        W75132   6.670  28.507  22.706 -0.0334 -0.1572 -0.2095
32039W        W75133   5.684  27.965  22.262 -0.2071 -0.3450 -0.2545
32040W        W75134   6.703  25.810  22.995  0.1784  0.1393  0.2669
32041W        W75135   4.837  25.895  20.146 -0.0561  0.2335  0.2925
32042W        W75136   4.963  28.391  21.443 -0.0338 -0.0416 -0.1383
32043W        W75137   4.407  28.509  20.399 -0.0575 -0.0059 -0.1756
32044W        W75138   5.315  24.723  23.160  0.1670 -0.0703  0.1307
32045W        W75139   3.574  28.570  21.918 -0.1236 -0.2855 -0.4657
32046W        W75140   3.604  29.482  19.724 -0.2217  0.3278 -0.1110
32047W        W75141   5.300  27.407  23.539 -0.2221 -0.0600  0.0933
32048W        W75142   3.136  29.041  18.940 -0.4008  0.2494 -0.2626
32049W        W75143   6.944  26.932  23.291 -0.1727 -0.1075  0.1281
32050W        W75144   3.191  29.727  21.177 -0.1311  0.0905 -0.3670
32051W        W75145   4.428  27.271  19.297  0.2090 -0.0007 -0.0658
32052W        W75146   3.565  26.592  21.648  0.0049  0.1564 -0.0773
32053W        W75147   7.221  26.467  20.877  0.1059 -0.0384  0.0421
32054W        W75148   6.434  27.123  20.978  0.1021 -0.1542  0.0808
32055W        W75149   3.631  24.882  22.497 -0.0639  0.1340  0.0321
32056W        W75150   5.735  26.214  23.220  0.0549 -0.0083 -0.2948
32057W        W75151   3.622  29.355  23.755  0.0396  0.0530  0.0110
32058W        W75152   4.845  27.516  24.483 -0.2605  0.0955  0.0034
32059W        W75153   6.692  26.050  21.198  0.2564 -0.1518  0.0566
32060W        W75154   4.599  28.011  23.759  0.3567 -0.1336 -0.2867
32061W        W75155   4.032  26.184  23.297 -0.2410 -0.0327 -0.1488
32062W        W75156   3.402  26.532  20.163  0.2711  0.1675 -0.1187
32063W        W75157   7.315  27.341  21.260 -0.0249 -0.2324 -0.0707
32064W        W75158   4.978  26.460  21.499 -0.1005  0.1824 -0.1525
32065W        W75159   4.164  27.041  20.790 -0.3005  0.1623 -0.0163
32066W        W75160   5.194  29.155  23.282  0.2160  0.1313  0.1905
32067W        W75161   5.029  27.158  21.454  0.0332 -0.0841 -0.0972
32068W        W75162   2.828  27.580  21.720  0.0250 -0.0991  0.1445
32069W        W75163   4.522  26.247  21.337  0.0550 -0.0990  0.0158
32070W        W75164   7.084  27.252  24.046 -0.3837 -0.1014  0.1183
32071W        W75165   4.854  26.451  21.019 -0.0917 -0.4272  0.0036
32072W        W75166   4.324  25.907  21.647 -0.0902  0.3153  0.0489
32073W        W75167   5.161  26.762  21.938  0.0169 -0.0387 -0.2999
32074W        W75168   6.402  27.393  21.401  0.1382  0.2592 -0.1043
32075W        W75169   5.291  26.331  24.642  0.1594  0.2531  0.0081
32076W        W75170   4.053  28.258  23.966  0.0063 -0.4285  0.0168
32077W        W75171   5.732  25.612  22.281 -0.0046 -0.1190  0.0175
32078W        W75172   8.018  29.290  20.701  0.0395 -0.2529 -0.0779
32079W        W75173   6.877  28.270  24.185 -0.1455 -0.0456  0.0259
32080W        W75174   4.713  27.801  20.761 -0.3843  0.1211  0.1345
32081W        W75175   2.955  27.933  22.055  0.1702  0.0192 -0.0567
32082W        W75176   3.180  28.782  20.004 -0.2320  0.0671  0.3386
32083W        W75177   5.752  27.210  22.766  0.2301  0.0285  0.0356
32084W        W75178   2.946  27.795  21.219  0.1549 -0.0420 -0.1360
32085W        W75179   5.339  28.703  20.555 -0.1577 -0.0249  0.0077
32086W        W75180   4.313  28.853  22.800  0.2727 -0.2664  0.0107
32087W        W75181   6.760  25.714  20.640  0.1114 -0.0832  0.2600
32088W        W75182   5.519  27.135  20.994  0.2120 -0.1062 -0.1322
32089W        W75183   4.872  25.137  21.296  0.0949  0.1709 -0.0278
32090W        W75184   7.190  26.190  22.081 -0.1160 -0.1591  0.1492
32091W        W75185   6.364  26.715  19.462 -0.1857 -0.0212 -0.0082
32092W        W75186   6.794  26.396  22.889  0.2372  0.1685  0.1397
32093W        W75187   4.218  25.439  21.768  0.4016 -0.1146 -0.1055
32094W        W75188   6.100  30.264  22.957 -0.1819  0.2698  0.0673
32095W        W75189   5.530  26.807  22.614  0.0616  0.1466  0.3136
32096W        W75190   6.117  27.595  25.172 -0.4352 -0.1003 -0.0289
32097W        W75191   4.059  26.507  23.683 -0.2477  0.1345 -0.0391
32098W        W75192   5.396  25.970  20.523  0.1631  0.0531 -0.0835
32099W        W75193   4.937  25.868  20.726  0.1554  0.1028  0.2337
32100W        W75194   5.908  26.576  21.275 -0.0510  0.1654 -0.0940
32101W        W75195   6.842  27.930  23.365  0.1123  0.3564  0.0484
32102W        W75196   5.183  27.736  20.555  0.0140 -0.1557 -0.0877
32103W        W75197   6.260  26.873  21.499  0.0051  0.0401 -0.2999
32104W        W75198   3.934  28.435  23.034  0.2038  0.1969  0.0072
32105W        W75199   5.489  27.680  22.655 -0.0594 -0.0369  0.0441
32106W        W75200   4.393  28.196  21.267  0.1375 -0.2435 -0.4101
32107W        W75201   2.967  29.027  20.466  0.0962  0.0307  0.1638
32108W        W75202   5.087  25.029  21.986  0.1618 -0.0139  0.1868
32109W        W75203   7.059  27.250  21.720  0.2342  0.1322 -0.3154
32110W        W75204   6.145  26.798  22.139  0.1770 -0.1686  0.4047
32111W        W75205   5.809  27.639  23.520  0.1528  0.0772  0.0182
32112W        W75206   7.124  26.880  22.818  0.4971 -0.0649 -0.2204
32113W        W75207   5.050  28.030  22.107  0.2459 -0.1528 -0.0472
32114W        W75208   3.945  26.363  22.843 -0.2337  0.1103 -0.2269
32115W        W75209   6.857  28.434  23.153 -0.1718 -0.4748 -0.0767
32116W        W75210   7.738  26.728  20.404 -0.2021  0.1171 -0.1410
32117W        W75211   6.398  27.679  23.364 -0.0451  0.1035  0.0162
32118W        W75212   5.924  25.748  19.837  0.0731  0.0155 -0.2492
32119W        W75213   8.036  28.394  19.718  0.1477  0.1115 -0.0301
32120W        W75214   3.748  27.062  20.983  0.0643  0.4442  0.0877
32121W        W75215   5.611  28.046  24.997 -0.0504  0.1943 -0.3465
32122W        W75216   4.538  26.679  20.650 -0.1699 -0.1568  0.1727
32123W        W75217   5.915  26.820  25.071  0.1197  0.1780 -0.0094
32124W        W75218   5.856  28.761  20.503  0.3819 -0.1322  0.1127
32125W        W75219   6.829  27.803  20.687  0.1715  0.2970 -0.1716
32126W        W75220   5.093  28.010  21.029  0.2584  0.1630  0.0789
32127W        W75221   4.379  26.913  21.811  0.0069 -0.0788  0.0596
32128W        W75222   3.636  28.041  22.182  0.0356 -0.0776  0.0996
32129W        W75223   4.270  26.856  20.197  0.0780 -0.3216  0.1855
32130W        W75224   3.658  28.341  20.928  0.3518  0.2589  0.1562
32131W        W75225   6.230  29.028  23.693 -0.1322 -0.2298 -0.0394
32132W        W75226   7.347  27.829  23.593 -0.2361  0.0335 -0.0729
32133W        W75227   5.851  24.654  19.818 -0.0401  0.0167  0.0767
32134W        W75228   7.949  27.856  21.874  0.2220  0.1074 -0.1329
32135W        W75229   3.020  27.475  20.403  0.5903  0.2693  0.0264
32136W        W75230   6.764  24.829  20.090 -0.2512  0.2521 -0.0824
32137W        W75231   2.453  27.984  21.734 -0.0546 -0.0764  0.0712
32138W        W75232   3.041  28.411  22.183  0.2256  0.3520 -0.1479
32139W        W75233   6.364  28.043  22.981  0.3821  0.1406 -0.0773
32140W        W75234   5.616  27.032  22.184 -0.0449  0.1211  0.3109
32141W        W75235   5.575  27.431  21.856  0.4101  0.2291  0.2291
32142W        W75236   5.259  27.352  23.045  0.1610  0.1896 -0.2616
32143W        W75237   8.709  26.972  23.132  0.1009  0.2900 -0.0828
32144W        W75238   5.374  27.807  24.130  0.3258  0.2951  0.0918
32145W        W75239   4.869  27.356  20.527  0.3686  0.4303  0.3890
32146W        W75240   6.892  27.566  24.380  0.1348 -0.4077  0.3821
32147W        W75241   8.091  27.476  22.192  0.1330 -0.2134 -0.2074
32148W        W75242   3.834  29.001  21.584  0.1699 -0.0603  0.0247
32149W        W75243   2.865  26.609  24.823 -0.0370  0.0282  0.1985
32150W        W75244   4.824  27.309  22.726  0.1300 -0.3969  0.1539
32151W        W75245   4.871  28.430  21.973 -0.3818 -0.0604  0.2969
32152W        W75246   4.402  26.349  21.962 -0.1867 -0.0550 -0.1392
32153W        W75247   6.115  29.088  19.672 -0.0384 -0.0822 -0.1009
32154W        W75248   3.498  28.710  21.186  0.0027  0.0991  0.2032
32155W        W75249   4.076  27.215  23.838  0.1951 -0.2090 -0.1167
32156W        W75250   3.916  28.012  21.267  0.2292 -0.0726  0.0175
32157W        W75251   5.441  28.197  20.677  0.1544  0.0868  0.0247
32158W        W75252   7.057  28.482  21.227  0.1904 -0.1300  0.1919
32159W        W75253   7.258  28.826  22.390 -0.2032 -0.2894 -0.0182
32160W        W75254   3.874  25.780  21.508 -0.0102  0.1071 -0.0140
32161W        W75255   3.716  28.801  20.077 -0.0326  0.1081 -0.2503
32162W        W75256   2.515  28.721  19.218  0.2797 -0.2439 -0.1051
32163W        W75257   6.156  28.705  20.974 -0.5388  0.1147 -0.1269
32164W        W75258   3.497  28.392  19.672 -0.1689 -0.2508 -0.0260
32165W        W75259   6.840  27.865  22.830  0.0856  0.1965 -0.3719
32166W        W75260   6.355  26.631  20.090  0.3530  0.0664 -0.1336
32167W        W75261   7.164  27.342  20.454  0.2153  0.2500 -0.0802
32168W        W75262   8.536  26.263  20.611 -0.1001  0.2431 -0.2055
32169W        W75263   6.980  29.007  23.148  0.1831  0.1215 -0.0326
32170W        W75264   4.270  27.156  21.267  0.3085  0.1224  0.2034
32171W        W75265   5.158  25.607  21.863  0.0781 -0.0526 -0.0177
32172W        W75266   4.649  26.818  21.354  0.2096 -0.1787  0.2074
32173W        W75267   8.315  26.935  23.393  0.1373  0.1262  0.1308
32174W        W75268   4.301  28.276  22.747 -0.0287 -0.0691 -0.2801
32175W        W75269   7.102  29.189  20.478  0.1536  0.1484 -0.2465
32176W        W75270   4.394  26.920  19.637  0.0583 -0.1454 -0.0064
32177W        W75271   5.067  27.533  21.781 -0.2871 -0.0302 -0.0472
32178W        W75272   6.869  25.631  22.533 -0.2298  0.1336 -0.0098
32179W        W75273   7.997  25.943  18.904 -0.0881 -0.0598 -0.0933
32180W        W75274   6.148  27.691  21.779  0.3169  0.0503  0.0338
32181W        W75275   4.700  29.730  21.287  0.0842  0.1306  0.3423
32182W        W75276   4.694  28.923  21.979 -0.3382 -0.2545 -0.3018
32183W        W75277   5.331  30.358  23.641 -0.0644 -0.0570  0.2994
32184W        W75278   4.751  26.928  19.995  0.1069  0.2261  0.1738
32185W        W75279   8.741  26.112  21.160 -0.3033  0.2116  0.2459
32186W        W75280   5.645  26.297  22.711 -0.0297  0.4842  0.2021
32187W        W75281   7.398  27.058  23.235 -0.0463  0.1203 -0.1809
32188W        W75282   4.106  25.347  20.266  0.1969 -0.3503  0.0997
32189W        W75283   5.986  26.833  20.862 -0.1041 -0.0289 -0.2800
32190W        W75284   4.957  28.703  22.917 -0.0584  0.0969 -0.0376
32191W        W75285   3.005  27.341  23.667 -0.0247 -0.1496  0.1598
32192W        W75286   5.765  27.324  19.176 -0.1599 -0.0720 -0.0360
32193W        W75287   7.845  26.942  22.095  0.1965 -0.1047  0.0043
32194W        W75288   5.103  25.823  19.597  0.0936 -0.2315 -0.0901
32195W        W75289   6.280  29.341  23.127 -0.3493 -0.0116  0.3356
32196W        W75290   3.885  26.726  21.979  0.2575 -0.0487 -0.3625
32197W        W75291   5.032  27.332  19.445 -0.5441 -0.0995  0.1009
32198W        W75292   5.500  27.028  21.603  0.0119  0.2799 -0.1103
32199W        W75293   5.263  26.561  22.966  0.1057  0.2825 -0.1910
32200W        W75294   6.863  28.780  23.636  0.1789  0.2208  0.0745
32201W        W75295   4.252  25.219  21.301  0.1162 -0.3180 -0.1217
32202W        W75296   7.047  29.338  19.426 -0.1000 -0.2384 -0.1425
32203W        W75297   6.101  28.569  23.629  0.1847 -0.1116  0.0951
32204W        W75298   2.896  29.431  20.210 -0.2043  0.2909 -0.2956
32205W        W75299   5.638  28.584  22.883 -0.2159 -0.1673 -0.3335
32206W        W75300   6.516  28.325  23.527  0.1455  0.2837  0.1235
32207W        W75301   4.728  25.869  22.019 -0.1525  0.0343  0.0577
32208W        W75302   5.195  28.323  23.136 -0.1226  0.0262  0.0555
32209W        W75303   6.956  28.402  22.178 -0.3636 -0.2165 -0.1346
32210W        W75304   6.080  26.435  20.584  0.2643 -0.2643  0.0321
32211W        W75305   4.865  26.205  22.929 -0.2081  0.0968  0.0777
32212W        W75306   2.416  29.359  20.292  0.6157 -0.4568  0.1098
32213W        W75307   8.568  26.190  21.622 -0.2852 -0.0548  0.0133
32214W        W75308   6.419  27.194  23.504 -0.1713  0.1435 -0.1587
32215W        W75309   4.729  28.932  17.738  0.1296 -0.2704 -0.3898
32216W        W75310   7.389  26.511  23.214  0.0165 -0.0013  0.0602
32217W        W75311   4.977  27.784  22.661  0.1871  0.2266  0.1611
32218W        W75312   5.330  29.053  22.741  0.2006 -0.0367  0.0360
32219W        W75313   3.293  27.890  20.467 -0.2967 -0.2227  0.1564
32220W        W75314   5.144  27.014  22.388 -0.2433 -0.3548  0.2045
32221W        W75315   5.639  28.663  20.995 -0.0394  0.0573 -0.1208
32222W        W75316   4.272  28.085  20.796 -0.2131  0.4272  0.2805
32223W        W75317   5.966  28.213  20.174 -0.2194  0.0446 -0.1701
32224W        W75318   5.919  28.288  20.691 -0.0186 -0.1359  0.3821
32225W        W75319   7.851  27.269  21.733 -0.0174 -0.4840  0.1308
32226W        W75320   5.732  25.427  21.404 -0.0153 -0.2881 -0.1116
32227W        W75321   6.904  26.849  20.795  0.3272  0.1581  0.0673
32228W        W75322   6.575  26.297  21.943  0.0397  0.1116  0.0620
32229W        W75323   4.693  26.971  23.111  0.2844  0.1501  0.1044
32230W        W75324   2.066  28.531  20.612 -0.1605 -0.1986 -0.0938
32231W        W75325   4.165  28.472  19.912  0.2285  0.0376  0.1229
32232W        W75326   3.749  26.909  20.425 -0.0449 -0.1397  0.0397
32233W        W75327   4.941  25.092  23.423  0.0510 -0.1133 -0.2278
32234W        W75328   4.141  24.547  23.339  0.0244  0.0897  0.1528
32235W        W75329   4.105  27.675  22.098 -0.0245  0.0656 -0.0143
32236W        W75330   5.000  25.180  19.531  0.1812  0.0779  0.1797
32237W        W75331   7.790  29.473  19.816  0.0908  0.0327 -0.0793
32238W        W75332   3.977  25.793  21.999  0.1921  0.0203  0.1678
32239W        W75333   3.539  24.848  21.378 -0.1696 -0.1033  0.1833
32240W        W75334   6.354  28.098  20.479 -0.0311 -0.3151  0.1167
32241W        W75335   5.611  27.674  20.920 -0.0777  0.1060 -0.0051
32242W        W75336   4.079  25.450  20.761 -0.4830 -0.0174  0.1686
32243W        W75337   6.336  29.142  24.731 -0.2099  0.0432 -0.2111
32244W        W75338   3.720  27.483  20.763  0.0944  0.0972  0.2115
32245W        W75339   5.215  26.563  25.089  0.2444 -0.1748  0.1314
32246W        W75340   4.910  26.001  24.490  0.0014 -0.0122  0.0590
32247W        W75341   3.213  25.166  19.865  0.2343 -0.0465  0.1419
32248W        W75342   5.050  26.907  20.767 -0.3409 -0.0743  0.0203
32249W        W75343   5.535  27.514  21.391  0.0633 -0.3805  0.0187
32250W        W75344   3.362  28.773  19.271 -0.0427  0.2122 -0.1368
32251W        W75345   4.649  27.647  22.034  0.0726 -0.0769 -0.5390
32252W        W75346   5.020  29.670  23.616  0.0817  0.3051  0.0930
32253W        W75347   3.044  24.564  22.686  0.3106  0.3180  0.1537
32254W        W75348   6.038  26.210  19.960  0.0624 -0.2692 -0.0763
32255W        W75349   5.517  28.785  24.725 -0.0586  0.1912  0.0788
32256W        W75350   6.785  28.468  19.560  0.2307  0.0880 -0.0379
32257W        W75351   6.424  26.479  23.708 -0.2178 -0.1889  0.0836
32258W        W75352   5.036  27.336  20.036 -0.1607 -0.3672 -0.0726
32259W        W75353   3.201  25.510  23.535 -0.0501 -0.1656 -0.1752
32260W        W75354   4.074  27.891  22.534  0.0535  0.0609 -0.1259
32261W        W75355   6.753  27.370  23.125 -0.1340  0.0274  0.0325
32262W        W75356   4.541  24.966  21.747 -0.1037 -0.0834 -0.1841
32263W        W75357   5.996  26.889  19.689 -0.0885 -0.0606 -0.3011
32264W        W75358   5.552  28.325  21.956  0.0677  0.1622  0.2766
32265W        W75359   3.698  27.476  21.263  0.2769 -0.2943  0.2427
32266W        W75360   5.616  25.841  21.052 -0.1637 -0.0792  0.0125
32267W        W75361   5.753  27.815  24.510 -0.2655  0.0209 -0.3421
32268W        W75362   5.479  28.475  21.413  0.0180 -0.3612  0.0176
32269W        W75363   5.094  27.971  23.670 -0.3507 -0.3920  0.0923
32270W        W75364   4.878  28.252  19.480 -0.2638 -0.1164  0.2592
32271W        W75365   7.309  28.418  19.529 -0.1869  0.0279 -0.1670
32272W        W75366   5.492  29.372  23.821 -0.1440 -0.0833 -0.0719
32273W        W75367   6.393  29.967  24.268 -0.0222 -0.0216 -0.0539
32274W        W75368   5.114  28.576  24.447  0.0394 -0.0041  0.3252
32275W        W75369   6.916  26.515  22.375  0.0395  0.0507  0.0964
32276W        W75370   4.352  24.820  22.631 -0.1070 -0.2170 -0.0080
32277W        W75371   4.355  26.044  20.277 -0.1341  0.0823  0.1777
32278W        W75372   5.088  26.396  20.580 -0.3491 -0.0641  0.1264
32279W        W75373   6.051  26.721  23.593  0.0714  0.5186 -0.5375
32280W        W75374   5.262  25.869  22.303 -0.2245  0.0661 -0.0179
32281W        W75375   5.902  26.857  19.134  0.2319  0.0381 -0.1284
32282W        W75376   3.735  29.323  21.957  0.0286 -0.1679 -0.2777
32283W        W75377   5.762  28.902  23.855  0.0016 -0.0668  0.1103
32284W        W75378   5.281  28.028  28.149 -0.2802  0.0783  0.2264
32285W        W75379   4.022  25.235  25.357  0.2802 -0.1459 -0.0026
32286W        W75380   6.369  27.442  24.445 -0.0836  0.0793  0.1330
32287W        W75381   5.409  28.164  24.497  0.1747  0.0008 -0.1935
32288W        W75382   2.887  27.573  24.988 -0.2333  0.3878  0.0635
32289W        W75383   5.659  28.493  25.695 -0.3649 -0.1517  0.0937
32290W        W75384   4.150  25.671  27.359 -0.1044  0.0410 -0.2124
32291W        W75385   5.169  26.866  25.858  0.1739  0.2528  0.0184
32292W        W75386   4.701  28.879  26.855  0.0996 -0.1242  0.1438
32293W        W75387   7.142  27.856  24.061 -0.3738 -0.1602  0.0094
32294W        W75388   5.758  25.128  24.102  0.1324  0.0248 -0.0479
32295W        W75389   5.363  26.449  25.964 -0.0523  0.4048  0.3139
32296W        W75390   5.530  24.115  25.557 -0.2183  0.1544 -0.0148
32297W        W75391   3.632  26.532  25.575 -0.0957  0.1969 -0.0497
32298W        W75392   7.112  26.186  25.377 -0.0130 -0.0686 -0.2731
32299W        W75393   4.450  26.773  24.477  0.1936 -0.0484 -0.1125
32300W        W75394   3.213  26.794  26.357  0.0965  0.1912  0.1132
32301W        W75395   4.504  26.353  25.360  0.1470  0.0544 -0.0248
32302W        W75396   3.991  28.840  25.179 -0.2817 -0.2650  0.4502
32303W        W75397   5.582  25.683  25.392 -0.1408  0.1304 -0.1535
32304W        W75398   5.194  26.536  27.161  0.0810  0.3314 -0.1517
32305W        W75399   4.287  27.669  24.603 -0.0318  0.1113 -0.1588
32306W        W75400   3.609  26.029  24.418  0.0379  0.1946 -0.2625
32307W        W75401   3.319  26.370  25.254 -0.0749  0.1011 -0.0335
32308W        W75402   5.046  26.064  26.947  0.1887 -0.0921  0.1936
32309W        W75403   8.380  26.618  25.411 -0.1321 -0.0616  0.1866
32310W        W75404   7.017  27.604  26.312  0.1958 -0.1732  0.1765
32311W        W75405   4.329  28.033  26.367 -0.2035  0.0201  0.2334
32312W        W75406   4.977  29.342  27.020 -0.0442  0.0981 -0.0056
32313W        W75407   6.331  26.516  26.048 -0.3789  0.2164  0.3675
32314W        W75408   4.052  27.754  25.200 -0.2053 -0.0171 -0.0460
32315W        W75409   3.960  27.995  26.029  0.0957 -0.1032 -0.2586
32316W        W75410   5.164  28.453  23.819 -0.3362  0.1676 -0.1764
32317W        W75411   6.271  29.000  24.211  0.2483  0.0352 -0.1506
32318W        W75412   6.273  28.612  26.982 -0.1798  0.0513  0.2965
32319W        W75413   5.216  28.486  28.079 -0.1593  0.1495 -0.1819
32320W        W75414   4.459  28.479  23.731 -0.0827 -0.1172  0.0531
32321W        W75415   4.878  27.230  26.870 -0.3135 -0.0786  0.2831
32322W        W75416   5.253  28.543  27.287 -0.0456 -0.1384  0.2361
32323W        W75417   6.426  28.108  26.800  0.0864 -0.1837 -0.2190
32324W        W75418   6.225  26.179  24.655 -0.0048  0.2766  0.1435
32325W        W75419   5.283  29.124  22.171 -0.0031 -0.2334 -0.2472
32326W        W75420   4.746  26.756  25.225  0.0314  0.0548  0.0511
32327W        W75421   4.845  28.820  27.897 -0.2089 -0.2043  0.0383
32328W        W75422   4.083  27.074  27.136 -0.3254 -0.0162 -0.0717
32329W        W75423   7.186  26.570  28.135  0.1632 -0.1363 -0.1314
32330W        W75424   4.486  28.037  24.389  0.1252 -0.0496 -0.0810
32331W        W75425   6.345  28.271  24.343 -0.0379  0.2741  0.0987
32332W        W75426   5.360  27.096  24.238  0.0371 -0.0641 -0.0213
32333W        W75427   6.302  26.433  25.174  0.2218 -0.1824 -0.1192
32334W        W75428   4.918  24.745  24.308 -0.1670  0.2108 -0.2551
32335W        W75429   4.702  28.283  26.143 -0.2944 -0.2247 -0.0847
32336W        W75430   4.388  26.738  26.319 -0.3195 -0.3340 -0.1241
32337W        W75431   5.846  25.820  25.818  0.0673 -0.1752  0.1857
32338W        W75432   5.105  27.255  24.823 -0.3530  0.3854  0.4065
32339W        W75433   6.623  25.942  25.452 -0.3555 -0.2165 -0.1024
32340W        W75434   5.032  29.135  26.480 -0.3179  0.0243 -0.1172
32341W        W75435   4.568  25.393  25.316 -0.2401 -0.0896 -0.1222
32342W        W75436   4.677  27.648  24.893  0.0386 -0.2719  0.1603
32343W        W75437   6.540  29.269  25.434 -0.2566  0.1464 -0.0817
32344W        W75438   5.620  28.909  25.257  0.3115 -0.2062  0.0211
32345W        W75439   4.130  25.261  24.416 -0.3000 -0.2149  0.0967
32346W        W75440   3.965  27.334  28.037  0.2276  0.1010  0.0726
32347W        W75441   4.455  27.244  28.214 -0.1441 -0.1147 -0.1872
32348W        W75442   3.004  26.215  24.235 -0.1488  0.1493 -0.1549
32349W        W75443   8.321  28.088  28.361 -0.1750  0.0092  0.2106
32350W        W75444   3.495  28.166  25.911 -0.1689 -0.0559 -0.1279
32351W        W75445   6.734  25.017  24.191  0.4444 -0.0355  0.3882
32352W        W75446   4.772  27.057  24.217 -0.3370 -0.1101 -0.2512
32353W        W75447   6.598  28.239  26.219 -0.0874  0.2378 -0.0290
32354W        W75448   5.501  28.561  24.188 -0.0091  0.2268 -0.1679
32355W        W75449   7.176  24.226  25.546  0.3504  0.0964 -0.1565
32356W        W75450   7.410  25.763  25.912 -0.0989  0.1351  0.2119
32357W        W75451   4.807  27.110  21.873  0.3709 -0.1700 -0.1488
32358W        W75452   5.336  26.069  25.171 -0.1285 -0.1508 -0.1917
32359W        W75453   6.146  28.665  25.536  0.1886  0.1123 -0.2743
32360W        W75454   6.500  28.645  23.928 -0.0631  0.1658  0.3600
32361W        W75455   5.199  29.544  25.542  0.2958 -0.0370 -0.1804
32362W        W75456   3.250  25.448  25.460 -0.0336  0.3077  0.0781
32363W        W75457   5.732  27.969  27.866  0.1492 -0.0158  0.1204
32364W        W75458   4.825  29.009  22.472  0.1381 -0.0681  0.2527
32365W        W75459   4.098  27.591  25.671  0.1240  0.1017 -0.1100
32366W        W75460   4.477  27.572  24.083 -0.0610  0.1060  0.1349
32367W        W75461   3.607  25.073  25.631 -0.0763 -0.2585 -0.0585
32368W        W75462   4.353  28.556  26.710  0.0277  0.1012 -0.0405
32369W        W75463   5.493  25.432  24.432  0.1183 -0.0790  0.0349
32370W        W75464   6.297  25.414  24.814  0.1287  0.2500  0.0525
32371W        W75465   8.921  25.242  25.640 -0.4157  0.2369 -0.0854
32372W        W75466   4.651  27.643  25.458 -0.2335 -0.1665 -0.2115
32373W        W75467   5.710  29.282  24.871  0.0228  0.3779 -0.0882
32374W        W75468   6.695  26.377  24.557 -0.0663 -0.0567  0.0257
32375W        W75469   5.511  26.835  24.657  0.3698  0.1381  0.1995
32376W        W75470   2.774  26.896  26.175  0.1339  0.1373 -0.1549
32377W        W75471   3.953  25.704  25.662 -0.0070 -0.5310  0.2141
32378W        W75472   6.775  26.241  28.068 -0.1822 -0.1789 -0.1066
32379W        W75473   3.454  25.628  25.849  0.1886 -0.1318  0.0927
32380W        W75474   7.487  26.311  26.751  0.1167  0.1899 -0.0140
32381W        W75475   2.015  24.484  23.746 -0.0364  0.2572  0.0603
32382W        W75476   6.975  26.006  23.780 -0.1556 -0.2702 -0.1328
32383W        W75477   5.568  24.816  24.453 -0.1032  0.1249  0.1460
32384W        W75478   2.561  28.177  24.791 -0.1960 -0.0055 -0.0643
32385W        W75479   6.324  26.016  28.470 -0.3258 -0.1728  0.0350
32386W        W75480   4.506  27.150  24.772 -0.0101  0.1110  0.1011
32387W        W75481   6.550  27.507  26.848 -0.0378  0.1500 -0.0595
32388W        W75482   5.900  28.308  24.570 -0.1811 -0.1414  0.3891
32389W        W75483   5.875  25.314  25.762  0.1756 -0.1446 -0.0438
32390W        W75484   3.926  25.650  24.688 -0.2209  0.1601  0.1557
32391W        W75485   3.742  28.583  25.977  0.0892  0.2626  0.0067
32392W        W75486   5.556  27.970  26.513  0.1218  0.2099  0.2934
32393W        W75487   4.278  26.171  24.735 -0.1057  0.0041  0.2051
32394W        W75488   4.965  28.065  25.695 -0.0533 -0.1076  0.1842
32395W        W75489   5.884  27.224  24.646 -0.1247 -0.5381 -0.0775
32396W        W75490   3.973  26.846  25.296  0.2611  0.2399 -0.0616
32397W        W75491   6.779  27.113  28.242  0.2079 -0.0494  0.3411
32398W        W75492   6.816  28.224  27.152  0.1244 -0.0180 -0.2646
32399W        W75493   7.393  26.556  25.204 -0.1893  0.2487  0.0590
32400W        W75494   3.270  25.248  22.671  0.1936  0.0698 -0.0666
32401W        W75495   6.981  28.827  24.936  0.0209  0.0156  0.1686
32402W        W75496   3.705  28.575  24.168  0.1661  0.2829  0.2043
32403W        W75497   3.665  26.008  25.414 -0.1417  0.2749 -0.1700
32404W        W75498   4.961  27.986  24.682  0.1750 -0.2066  0.1277
32405W        W75499   8.283  25.509  25.552  0.0244 -0.2606  0.1142
32406W        W75500   4.000  26.934  27.673  0.0592 -0.0368  0.0632
32407W        W75501   7.460  26.476  25.744  0.0544 -0.1326 -0.0034
32408W        W75502   4.462  26.109  24.296  0.1402 -0.1399 -0.1361
32409W        W75503   4.900  28.997  27.363  0.0126 -0.1169  0.1776
32410W        W75504   4.323  23.679  25.274 -0.0976  0.3066  0.0698
32411W        W75505   7.585  26.060  24.805  0.3378  0.1526  0.0999
32412W        W75506   5.783  26.699  27.225  0.0247  0.1018 -0.1372
32413W        W75507   7.505  28.277  23.790  0.0635  0.1035 -0.2779
32414W        W75508   5.070  26.773  23.837  0.0818 -0.0462 -0.4449
32415W        W75509   5.217  26.150  23.257 -0.2683  0.0513  0.0419
32416W        W75510   4.032  28.161  28.689  0.0329  0.0146 -0.1026
32417W        W75511   4.918  27.161  25.521 -0.0209 -0.0577 -0.3364
32418W        W75512   5.754  26.428  24.461  0.5565 -0.0907  0.3680
32419W        W75513   4.648  27.202  23.768  0.1231 -0.0047 -0.2045
32420W        W75514   8.103  29.716  24.393 -0.0034  0.1313  0.2305
32421W        W75515   3.498  27.256  24.960  0.1223  0.0454  0.3379
32422W        W75516   7.179  28.714  27.080 -0.3516  0.0947 -0.2495
32423W        W75517   6.087  28.944  25.134 -0.1596  0.0901  0.3758
32424W        W75518   5.101  26.093  26.356  0.0908  0.2250 -0.1238
32425W        W75519   4.845  26.486  23.337  0.2840  0.0470 -0.2906
32426W        W75520   4.888  25.262  23.847 -0.2303  0.4457 -0.1698
32427W        W75521   3.390  28.800  24.500 -0.0363 -0.1126 -0.1455
32428W        W75522   5.763  25.936  26.854 -0.4041 -0.0161 -0.0975
32429W        W75523   5.422  25.009  24.968  0.2248 -0.0551 -0.0118
32430W        W75524   5.593  26.151  27.332 -0.1372 -0.0135  0.0231
32431W        W75525   6.635  26.761  26.359  0.1778 -0.0283  0.1409
32432W        W75526   7.033  28.229  23.678 -0.0080  0.0433  0.1147
32433W        W75527   7.740  25.574  25.527 -0.0048 -0.3603  0.1184
32434W        W75528   3.986  26.291  24.245  0.0902 -0.0366  0.1076
32435W        W75529   6.141  26.204  25.689 -0.0190  0.0751  0.1232
32436W        W75530   4.417  27.885  27.998  0.0368 -0.3036 -0.2833
32437W        W75531   3.879  29.407  25.783  0.3430  0.0204 -0.1821
32438W        W75532   5.675  26.897  26.214  0.0944  0.3356  0.0537
32439W        W75533   5.383  26.589  24.172  0.0428  0.0275 -0.0476
32440W        W75534   7.129  26.713  26.586  0.0152 -0.0376 -0.0861
32441W        W75535   6.522  25.675  23.560  0.1733  0.0761 -0.1546
32442W        W75536   3.924  28.283  25.061  0.1684 -0.0815 -0.1583
32443W        W75537   2.919  27.160  24.667  0.1271 -0.2661  0.1690
32444W        W75538   4.472  25.810  25.620 -0.1530 -0.2120 -0.3364
32445W        W75539   4.843  26.690  26.771 -0.2423  0.0033  0.0742
32446W        W75540   3.957  27.775  24.177 -0.0389  0.0472 -0.1860
32447W        W75541   6.618  27.174  27.318  0.0453 -0.0416 -0.4367
32448W        W75542   3.416  28.357  25.253 -0.0297 -0.0886  0.0870
32449W        W75543   6.332  25.445  25.555  0.1662  0.1908  0.0861
32450W        W75544   4.793  27.052  26.213 -0.1067 -0.1760 -0.3357
32451W        W75545   4.183  25.768  23.538  0.0985 -0.2991  0.1458
32452W        W75546   2.788  27.184  24.071  0.1148  0.2407  0.1253
32453W        W75547   7.194  25.696  25.485 -0.1984 -0.0747  0.0138
32454W        W75548   8.571  27.270  23.757 -0.0790 -0.1344  0.3341
32455W        W75549   3.725  26.489  27.742 -0.2435  0.0630  0.1473
32456W        W75550   4.754  25.098  25.832  0.0941 -0.0313 -0.0431
32457W        W75551   3.040  28.140  26.780  0.0542 -0.1862 -0.0954
32458W        W75552   5.081  26.578  26.378 -0.2887 -0.1400 -0.3362
32459W        W75553   6.462  26.011  23.919 -0.1463 -0.0113  0.0592
32460W        W75554   5.010  26.447  25.563 -0.0033 -0.2493  0.2915
32461W        W75555   3.875  26.995  26.281 -0.1691 -0.0969  0.2274
32462W        W75556   3.007  26.056  23.547 -0.2323  0.0605 -0.1495
32463W        W75557   5.682  25.981  24.756  0.3075 -0.0979 -0.3664
32464W        W75558   4.311  25.860  25.149 -0.2770  0.1175  0.2715
32465W        W75559   3.578  27.798  24.868 -0.2810  0.0268 -0.2132
32466W        W75560   5.854  26.484  25.960  0.0470  0.1468  0.2099
32467W        W75561   4.697  25.745  22.530 -0.0400 -0.0591 -0.0967
32468W        W75562   3.208  27.550  24.599  0.0889  0.0177  0.0733
32469W        W75563   5.611  25.374  26.778 -0.1644  0.1312  0.1737
32470W        W75564   6.606  26.429  25.613  0.0958  0.0392  0.0910
32471W        W75565   6.128  26.755  25.649  0.3328  0.1398 -0.0093
32472W        W75566   5.324  25.771  25.824  0.1409 -0.2933 -0.1585
32473W        W75567   7.633  26.053  25.353 -0.1797  0.1564  0.1133
32474W        W75568   6.146  26.974  26.157 -0.3068 -0.0058  0.1449
32475W        W75569   7.016  26.698  25.535  0.0477  0.0504 -0.2282
32476W        W75570   4.377  28.202  28.383 -0.0964 -0.0108  0.2526
32477W        W75571   5.340  25.773  26.642  0.2389 -0.4552 -0.0994
32478W        W75572   7.767  30.321  24.858 -0.0332  0.1471  0.0462
32479W        W75573   6.606  28.622  27.405  0.2747 -0.1573 -0.3458
32480W        W75574   4.435  29.373  22.577 -0.0776  0.0914 -0.3405
32481W        W75575   3.152  27.209  25.939  0.1362 -0.1296 -0.1424
32482W        W75576   4.190  27.224  24.378  0.0945 -0.3646 -0.0505
32483W        W75577   6.689  25.486  25.178 -0.2895 -0.2398 -0.1197
32484W        W75578   4.952  28.670  26.459  0.1020 -0.1117 -0.0779
32485W        W75579   5.787  27.562  25.549  0.1971 -0.0668 -0.2465
32486W        W75580   3.562  27.228  27.654  0.2474  0.1738 -0.1067
32487W        W75581   7.807  26.852  23.451 -0.0386 -0.2465 -0.1679
32488W        W75582   4.884  28.716  23.515 -0.2720 -0.3030  0.1667
32489W        W75583   5.128  25.478  25.167  0.1445  0.0239 -0.1838
32490W        W75584   7.307  25.783  26.689 -0.1025  0.0019  0.1678
32491W        W75585   6.471  27.784  24.732  0.1271 -0.0086 -0.0150
32492W        W75586   6.534  26.028  27.074 -0.0843 -0.0560 -0.0259
32493W        W75587   5.478  25.708  27.190  0.1516  0.1141 -0.1150
32494W        W75588   6.752  29.550  24.339  0.2356  0.4019 -0.0091
32495W        W75589   2.978  25.745  26.214 -0.0475  0.0533  0.0142
32496W        W75590   6.108  28.281  27.907 -0.1346  0.1464 -0.4197
32497W        W75591   2.810  26.959  27.892 -0.3231 -0.0277 -0.0589
32498W        W75592   6.074  26.050  24.218 -0.1691 -0.1774 -0.1911
32499W        W75593   5.324  24.682  22.450  0.1738  0.0564 -0.0030
32500W        W75594   3.509  27.865  25.445 -0.1547  0.1342  0.1962
32501W        W75595   7.386  27.082  25.782  0.0825 -0.1492 -0.1584
32502W        W75596   4.599  28.263  23.287  0.6294 -0.0169 -0.3770
32503W        W75597   8.269  28.577  24.024 -0.2338  0.0998  0.2046
32504W        W75598   4.238  27.085  26.638  0.0377 -0.1101 -0.1435
32505W        W75599   6.609  26.801  25.245  0.1731 -0.0294 -0.2198
32506W        W75600   4.931  27.593  23.933  0.1569  0.0672  0.0040
32507W        W75601   4.281  26.808  24.035  0.0206  0.0110  0.3256
32508W        W75602   4.981  23.567  26.688 -0.1331  0.0912  0.2086
32509W        W75603   5.560  25.980  26.222 -0.0717 -0.0493 -0.0230
32510W        W75604   4.931  25.519  24.360 -0.1072 -0.0995  0.2004
32511W        W75605   8.238  25.836  25.956 -0.1418 -0.0766  0.1342
32512W        W75606   8.681  25.823  26.226 -0.0906  0.0345 -0.1647
32513W        W75607   7.358  26.163  26.290 -0.4233  0.2057  0.2723
32514W        W75608   3.919  26.526  26.849  0.3506 -0.1859 -0.2111
32515W        W75609   6.120  28.426  27.419  0.2060  0.0384 -0.1170
32516W        W75610   6.658  27.039  24.433  0.1246 -0.1683 -0.0161
32517W        W75611   7.306  25.437  26.269 -0.1358 -0.2467  0.0953
32518W        W75612   5.611  27.550  25.012 -0.1118 -0.0376 -0.0744
32519W        W75613   4.825  26.539  24.221 -0.1040  0.2349  0.1831
32520W        W75614   3.832  26.491  26.327 -0.1931  0.1790  0.2566
32521W        W75615   6.459  27.220  27.781  0.2727 -0.3543 -0.0717
32522W        W75616   3.635  26.018  24.947  0.0651 -0.1815  0.1175
32523W        W75617   7.046  26.594  26.023 -0.1247  0.0320  0.1613
32524W        W75618   5.871  29.340  23.534  0.1669 -0.0100 -0.1048
32525W        W75619   5.215  25.717  24.771  0.0551 -0.2593  0.0427
32526W        W75620   7.666  24.603  25.421 -0.3337 -0.0522  0.2334
32527W        W75621   3.759  26.476  24.744 -0.0038 -0.1058  0.1868
32528W        W75622   3.290  28.959  27.826 -0.2214  0.0846  0.2407
32529W        W75623   4.267  26.120  23.859 -0.1327  0.2764  0.1120
32530W        W75624   6.150  27.578  23.950  0.2948  0.0522 -0.0713
32531W        W75625   4.452  27.806  25.919  0.2516 -0.0238  0.4325
32532W        W75626   7.129  27.865  27.452 -0.0574  0.0223 -0.2828
32533W        W75627   6.154  24.513  22.829 -0.1084 -0.0996  0.2311
32534W        W75628   8.265  26.084  26.385 -0.0911 -0.3603 -0.0922
32535W        W75629   3.502  27.920  24.336  0.3668  0.3321 -0.0067
32536W        W75630   6.223  25.225  24.333 -0.4265  0.1990  0.0638
32537W        W75631   5.283  28.373  26.711 -0.0932  0.0513 -0.3177
32538W        W75632   3.892  28.091  26.648 -0.1306  0.0029 -0.1563
32539W        W75633   4.745  28.454  24.771  0.1001 -0.5553 -0.0306
32540W        W75634   5.493  24.904  26.385  0.0965  0.0371  0.0820
32541W        W75635   7.037  27.049  26.182 -0.0978 -0.1978  0.2375
32542W        W75636   5.982  25.962  25.170 -0.2057  0.2361  0.1213
32543W        W75637   7.436  27.840  26.533 -0.1816  0.0705 -0.0918
32544W        W75638   5.431  27.057  27.118 -0.0194  0.1443 -0.0501
32545W        W75639   4.426  26.538  26.814  0.0687  0.1241  0.0631
32546W        W75640   5.690  28.188  27.393  0.1701 -0.3672  0.0220
32547W        W75641   6.550  27.794  26.379  0.0392  0.2443  0.0840
32548W        W75642   5.310  27.311  26.120 -0.3403  0.0221 -0.3349
32549W        W75643   2.293  27.033  26.728 -0.4013  0.0571 -0.0716
32550W        W75644   4.895  27.629  28.054 -0.2028  0.3153  0.0602
32551W        W75645   4.586  27.491  26.365  0.1041 -0.0743  0.2429
32552W        W75646   4.895  25.557  25.630 -0.2215 -0.0674  0.0703
32553W        W75647   4.807  28.273  22.802  0.0644  0.0147  0.0726
32554W        W75648   4.409  28.696  27.233  0.2256 -0.2098  0.2850
32555W        W75649   3.371  27.594  26.779  0.2934  0.0083 -0.3519
32556W        W75650   3.212  28.444  24.160 -0.1708 -0.4922  0.0829
32557W        W75651   5.826  29.244  22.926 -0.0169 -0.0458 -0.1862
32558W        W75652   7.118  26.836  24.837  0.0635  0.1122 -0.0400
32559W        W75653   5.676  28.993  25.736  0.1447  0.0349  0.3287
32560W        W75654   4.943  26.800  24.708  0.0247 -0.0461  0.2198
32561W        W75655   4.771  26.346  24.853 -0.0489  0.1769 -0.0413
32562W        W75656   3.218  27.488  23.175  0.0294 -0.0632 -0.6079
32563W        W75657   7.425  28.953  24.464  0.4598  0.0191 -0.2158
32564W        W75658   3.445  28.839  25.088 -0.1247 -0.0630 -0.1120
32565W        W75659   7.658  28.719  26.885 -0.0644  0.0095 -0.3392
32566W        W75660   7.331  27.442  24.854  0.2970  0.0833 -0.2797
32567W        W75661   7.546  27.070  25.166 -0.4706 -0.0887  0.0386
32568W        W75662   7.888  26.485  25.179  0.2572 -0.0364  0.0625
32569W        W75663   5.614  28.924  28.344  0.1103 -0.0274  0.0463
32570W        W75664   5.313  27.570  27.075 -0.0726  0.1413 -0.1350
32571W        W75665   5.094  25.638  23.549 -0.0048 -0.2051 -0.1080
32572W        W75666   3.166  25.999  25.580 -0.0648 -0.1261 -0.0044
32573W        W75667   6.691  25.172  28.231  0.1764  0.2341 -0.0726
32574W        W75668   3.182  29.401  26.664 -0.1059 -0.1227 -0.0364
32575W        W75669   7.146  29.326  23.550  0.0801  0.0057  0.1653
32576W        W75670   4.735  25.631  24.911 -0.0126  0.0039 -0.0133
32577W        W75671   5.626  26.201  25.575 -0.1349 -0.0952  0.0030
32578W        W75672   7.555  24.973  26.088 -0.0220 -0.0299  0.0207
32579W        W75673   6.250  26.506  24.218 -0.2066  0.2180 -0.0309
32580W        W75674   4.708  24.687  23.156  0.3122 -0.1801  0.1699
32581W        W75675   4.947  28.463  25.394  0.1382  0.1300 -0.1317
32582W        W75676   4.702  29.486  26.327 -0.1630  0.2149 -0.1040
32583W        W75677   5.148  27.707  25.125  0.0306  0.0861 -0.3535
32584W        W75678   2.674  25.910  23.951 -0.2990 -0.1767  0.0962
32585W        W75679   7.390  28.074  25.162  0.1734  0.1775  0.0824
32586W        W75680   6.252  26.368  28.049  0.0193 -0.1636  0.3005
32587W        W75681   6.754  26.289  26.316 -0.1157  0.0030 -0.1803
32588W        W75682   2.091  27.305  24.536 -0.2506  0.1261  0.1454
32589W        W75683   8.032  26.742  25.900  0.1106  0.1444 -0.1337
32590W        W75684   5.771  27.139  25.804 -0.1347  0.0243 -0.2725
32591W        W75685   2.377  26.662  26.413  0.1811  0.0228  0.2004
32592W        W75686   4.464  25.650  24.454 -0.1088  0.0611 -0.1199
32593W        W75687   7.526  27.518  27.295  0.1850  0.1776  0.1637
32594W        W75688   5.990  27.152  23.722  0.0823  0.4258  0.1666
32595W        W75689   6.247  28.923  27.637 -0.0024 -0.0094  0.0219
32596W        W75690   2.997  25.384  25.861 -0.3927  0.0589 -0.0869
32597W        W75691   4.852  24.680  23.753 -0.1787 -0.1991  0.3465
32598W        W75692   4.286  26.658  24.933  0.0249 -0.1436 -0.2694
32599W        W75693   4.926  27.010  27.324  0.1340  0.0492  0.1358
32600W        W75694   6.629  29.160  27.332  0.2545 -0.2183  0.1870
32601W        W75695   3.769  26.070  23.865  0.1780  0.2789  0.0935
32602W        W75696   6.139  28.704  24.644 -0.4886  0.1933 -0.0727
32603W        W75697   5.683  26.433  25.139  0.3882 -0.0244 -0.3527
32604W        W75698   3.512  26.972  25.394 -0.0636 -0.0181  0.0350
32605W        W75699   5.865  28.460  25.069  0.0798  0.1616 -0.0294
32606W        W75700   7.063  27.173  25.290 -0.0777  0.3357  0.3981
32607W        W75701   4.716  26.264  26.584  0.4008 -0.0391  0.0029
32608W        W75702   5.407  30.157  26.941 -0.4518  0.2435 -0.0039
32609W        W75703   6.096  27.255  26.555  0.0944  0.4749 -0.2595
32610W        W75704   5.870  25.106  24.693  0.0761 -0.0111 -0.2228
32611W        W75705   3.486  26.835  25.972 -0.2646 -0.0540  0.0530
32612W        W75706   4.408  28.438  25.689  0.2692 -0.1591  0.0961
32613W        W75707   7.237  27.187  27.676 -0.2159 -0.0716  0.0806
32614W        W75708   6.637  26.913  26.815  0.0020  0.1443  0.1030
32615W        W75709   6.765  27.345  24.928  0.0298  0.0897  0.4267
32616W        W75710   8.173  25.972  27.301 -0.2182  0.2461  0.2297
32617W        W75711   6.002  27.915  26.286  0.2646  0.2831  0.0663
32618W        W75712   5.953  27.448  28.058 -0.1718  0.1894 -0.0082
32619W        W75713   3.505  26.505  24.288  0.1705 -0.0470 -0.1819
32620W        W75714   5.238  28.076  27.116  0.2490 -0.0915 -0.1356
32621W        W75715   5.620  26.674  25.568  0.0960 -0.1306 -0.5456
32622W        W75716   5.225  27.038  26.573 -0.0804  0.0546 -0.2389
32623W        W75717   6.563  28.388  24.800 -0.0912  0.1329 -0.0542
32624W        W75718   5.648  25.511  24.889  0.2461 -0.0462 -0.0240
32625W        W75719   7.436  28.822  25.515 -0.0247  0.0983 -0.0529
32626W        W75720   5.680  26.809  26.738  0.2044 -0.2149  0.2906
32627W        W75721   7.617  24.441  25.905  0.1514 -0.0230  0.0522
32628W        W75722   6.416  24.616  23.356  0.0371  0.2332 -0.0012
32629W        W75723   3.097  27.720  25.726 -0.0866 -0.0037 -0.0872
32630W        W75724   2.990  25.471  24.013 -0.1801  0.3004  0.0737
32631W        W75725   4.050  28.283  24.536  0.0297 -0.0741 -0.1897
32632W        W75726   3.848  27.165  25.784  0.2036  0.0007 -0.0312
32633W        W75727   5.426  25.165  25.474  0.0449 -0.5789 -0.1019
32634W        W75728   5.418  26.790  27.542  0.1493 -0.1077 -0.0739
32635W        W75729   3.627  26.058  26.513 -0.1451 -0.1149  0.0642
32636W        W75730   4.327  25.363  25.751  0.1736 -0.3712 -0.4384
32637W        W75731   6.246  27.229  25.563 -0.0305 -0.2429  0.1174
32638W        W75732   4.008  27.160  24.888 -0.0810  0.2139  0.1205
32639W        W75733   2.800  25.594  25.418  0.3239  0.2849 -0.3413
32640W        W75734   6.640  27.569  25.432  0.2045 -0.0575  0.1709
32641W        W75735   5.873  28.871  23.241 -0.0240  0.0718 -0.0105
32642W        W75736   4.540  26.784  25.673 -0.0992 -0.1080 -0.2154
32643W        W75737   5.903  29.389  28.479  0.1134  0.0350  0.0742
32644W        W75738   3.252  26.234  22.824  0.0066 -0.1538  0.1953
32645W        W75739   6.549  26.716  27.863 -0.0317 -0.4745 -0.2200
32646W        W75740   6.777  26.101  28.645 -0.2298  0.0945 -0.0618
32647W        W75741   4.736  26.247  22.418 -0.1429  0.1070 -0.0442
32648W        W75742   7.629  26.574  24.440  0.1482  0.2210 -0.1350
32649W        W75743   5.243  28.387  24.950 -0.3105  0.3207 -0.0558
32650W        W75744   6.166  28.095  25.052  0.1399  0.2087 -0.0086
32651W        W75745   5.588  26.387  26.460 -0.0601 -0.3625  0.2830
32652W        W75746   5.233  27.650  25.688  0.2432  0.2333 -0.1996
32653W        W75747   3.840  25.302  25.957 -0.1231 -0.1748  0.0475
32654W        W75748   5.957  25.647  24.507 -0.0230  0.2478 -0.0098
32655W        W75749   4.552  26.904  27.107 -0.0813 -0.0003  0.0182
32656W        W75750   7.038  27.711  25.214  0.1435  0.1063  0.1004
32657W        W75751   6.439  25.917  25.988 -0.0258  0.1592 -0.1052
32658W        W75752   6.288  27.147  24.986 -0.3773  0.1619 -0.0981
32659W        W75753   3.665  25.723  27.307  0.1534 -0.0738 -0.3263
32660W        W75754   3.670  29.230  26.607 -0.0459 -0.0288 -0.0912
32661W        W75755   7.520  26.668  26.192  0.0304 -0.1444  0.1758
32662W        W75756   3.306  24.607  25.387  0.0276 -0.1138 -0.1313
32663W        W75757   5.109  25.172  24.621 -0.0913  0.0376 -0.0901
32664W        W75758   3.450  28.670  23.181  0.2337 -0.0204  0.1009
32665W        W75759   3.218  26.278  26.155  0.1288  0.3710 -0.1531
32666W        W75760   5.551  26.967  23.658  0.3731  0.0776  0.1241
32667W        W75761   4.375  27.428  27.758  0.1064  0.0442  0.1159
32668W        W75762   4.861  27.467  25.974  0.1975  0.0708  0.0968
32669W        W75763   7.344  29.165  27.072 -0.0802 -0.3415  0.0211
32670W        W75764   5.178  26.912  23.344  0.1138 -0.0192 -0.4406
32671W        W75765   7.105  28.436  25.279 -0.3668  0.1976 -0.4247
32672W        W75766   5.924  28.234  26.855  0.4790  0.0375  0.0779
32673W        W75767   7.052  29.388  27.529  0.2703  0.2812 -0.0868
32674W        W75768   5.036  27.858  26.187 -0.1536  0.3203 -0.5864
32675W        W75769   7.925  26.419  26.509  0.3197  0.3397  0.0132
32676W        W75770   4.059  25.941  26.126 -0.0996  0.0782  0.2522
32677W        W75771   4.127  26.205  25.637 -0.1282  0.1918  0.0065
32678W        W75772   4.537  25.936  26.205 -0.1570 -0.0780 -0.1875
32679W        W75773   6.991  26.028  25.851 -0.2489  0.1221  0.1450
32680W        W75774   4.041  26.652  25.903 -0.2182  0.1500  0.1846
32681W        W75775   5.502  26.485  23.590  0.0483  0.1130 -0.1594
32682W        W75776   6.819  29.005  26.365 -0.3524 -0.3319 -0.0191
32683W        W75777   6.580  27.971  23.941  0.0084  0.1062  0.2762
32684W        W75778   4.756  27.353  31.444  0.2845 -0.0158  0.1418
32685W        W75779   6.483  26.062  29.043 -0.4239  0.1070  0.0730
32686W        W75780   6.910  26.852  27.540 -0.2803  0.1475  0.2157
32687W        W75781   6.656  26.802  29.767 -0.3262  0.0579 -0.1337
32688W        W75782   4.594  24.688  29.874  0.1738 -0.2649 -0.2394
32689W        W75783   6.059  29.023  29.280 -0.1910  0.1638 -0.0846
32690W        W75784   3.525  25.095  30.704  0.1152 -0.3911 -0.0215
32691W        W75785   5.232  27.761  30.588 -0.2813 -0.0362 -0.0868
32692W        W75786   6.410  28.688  30.407 -0.0642  0.1428 -0.1771
32693W        W75787   6.083  26.562  26.513  0.3036  0.1244 -0.2259
32694W        W75788   5.671  26.370  29.554 -0.2208  0.0694  0.1226
32695W        W75789   5.056  27.496  30.181 -0.2029 -0.0963  0.0380
32696W        W75790   7.081  24.836  28.284 -0.2468 -0.2979  0.0839
32697W        W75791   2.528  26.119  30.482  0.1575 -0.1144  0.0142
32698W        W75792   4.937  26.096  30.328 -0.1546  0.1196  0.1107
32699W        W75793   5.221  26.731  28.625  0.0246 -0.2669 -0.2365
32700W        W75794   4.259  26.300  30.364 -0.1167 -0.0734 -0.1585
32701W        W75795   5.754  26.919  29.985 -0.0787  0.1110  0.3322
32702W        W75796   5.800  29.823  29.084  0.0612 -0.0701  0.1766
32703W        W75797   5.675  25.412  29.135 -0.2251 -0.0961 -0.3128
32704W        W75798   5.227  25.410   0.004  0.0241 -0.0347  0.4040
32705W        W75799   4.849  28.364  29.604 -0.1772 -0.0474 -0.2976
32706W        W75800   3.989  27.503  27.367 -0.0397  0.0558 -0.0996
32707W        W75801   5.420  24.435  30.982 -0.0738  0.2451 -0.0039
32708W        W75802   4.915  27.057  29.464 -0.1195  0.1375  0.1507
32709W        W75803   5.895  26.042  29.924 -0.1163 -0.1061  0.0781
32710W        W75804   6.488  28.129  28.163  0.0438 -0.2525  0.1090
32711W        W75805   5.612  28.817  29.383 -0.0312 -0.2710 -0.0578
32712W        W75806   6.184  28.542  29.039 -0.1438  0.3264  0.1226
32713W        W75807   5.794  25.972  30.879  0.5079 -0.0115 -0.3412
32714W        W75808   4.443  27.184  29.457 -0.0249 -0.1717 -0.3527
32715W        W75809   4.884  27.068  28.937 -0.0071  0.0440  0.2164
32716W        W75810   4.984  27.778  28.900  0.0572  0.1310  0.1060
32717W        W75811   7.026  26.829  29.391  0.1678  0.5500 -0.1290
32718W        W75812   5.730  27.854  28.884  0.6265 -0.2168  0.0687
32719W        W75813   5.438  28.445  31.689 -0.1029  0.1279 -0.3453
32720W        W75814   4.446  28.482  27.868  0.1016  0.1279 -0.2187
32721W        W75815   5.469  27.903  29.871  0.0377  0.1512 -0.0026
32722W        W75816   6.473  28.040  29.784  0.0251  0.2465  0.1317
32723W        W75817   5.155  26.154  29.414  0.0739 -0.0538  0.0412
32724W        W75818   5.873  26.832  27.999  0.1120 -0.2435  0.1467
32725W        W75819   5.648  27.085  28.389  0.3015  0.3008 -0.4530
32726W        W75820   6.819  27.416  29.204 -0.2189  0.0221  0.0346
32727W        W75821   5.530  27.380  30.912  0.0890 -0.0360  0.3341
32728W        W75822   3.908  28.518  31.082  0.2039 -0.0263  0.1423
32729W        W75823   6.078  26.496  31.016  0.1192 -0.0415  0.1212
32730W        W75824   4.584  27.349  27.255  0.1335  0.0485 -0.3779
32731W        W75825   6.813  27.689  27.799  0.1113 -0.1695 -0.1224
32732W        W75826   6.049  26.283  27.043  0.4582  0.1304 -0.0747
32733W        W75827   6.450  26.569  27.225 -0.2132  0.0987  0.0556
32734W        W75828   6.583  25.780  27.544  0.0970  0.2448  0.1413
32735W        W75829   4.416  28.882  29.198 -0.0763  0.1691 -0.0098
32736W        W75830   6.011  26.727  29.446  0.3398 -0.1729  0.3339
32737W        W75831   7.540  28.150  30.576 -0.0135 -0.1872  0.0775
32738W        W75832   6.274  27.044  28.237  0.0772 -0.3476 -0.0498
32739W        W75833   6.802  27.403  28.703  0.0499 -0.0065  0.0959
32740W        W75834   5.236  28.029  31.428  0.0021  0.0733  0.0223
32741W        W75835   4.040  27.499  29.379  0.0385 -0.1612 -0.1437
32742W        W75836   5.659  28.374  28.242  0.0666  0.2034  0.0507
32743W        W75837   7.061  28.079  28.841 -0.0553  0.1648 -0.0318
32744W        W75838   5.299  28.592  28.547  0.0480 -0.0256 -0.3109
32745W        W75839   4.455  26.931  28.601  0.1821 -0.2098 -0.2612
32746W        W75840   2.247  26.522  31.065 -0.0812 -0.1697 -0.3545
32747W        W75841   3.965  25.873  30.246 -0.0728  0.2317  0.1062
32748W        W75842   4.390  25.488  26.959  0.0635 -0.1364  0.3831
32749W        W75843   6.997  27.458  30.575 -0.2560  0.2133 -0.0550
32750W        W75844   2.136  27.855  30.808  0.1560 -0.3855 -0.3017
32751W        W75845   7.435  26.023  30.105 -0.0420  0.0109  0.2547
32752W        W75846   6.596  25.612  28.695  0.1503  0.2768 -0.0152
32753W        W75847   6.428  26.463  29.411  0.0898 -0.0913  0.2276
32754W        W75848   7.406  27.899  28.525 -0.1065 -0.1886 -0.3896
32755W        W75849   6.461  25.902  30.200 -0.1357  0.0223  0.0742
32756W        W75850   6.793  24.787  30.435  0.0069  0.2685 -0.0222
32757W        W75851   3.837  27.879  27.103  0.1088 -0.0048  0.1239
32758W        W75852   5.387  27.327  28.032 -0.0356 -0.0632 -0.3790
32759W        W75853   6.348  27.631  30.058 -0.2672 -0.2065  0.0373
32760W        W75854   5.229  25.208  28.817 -0.3061  0.1076  0.0598
32761W        W75855   4.605  28.746  29.793 -0.0699 -0.2408  0.0080
32762W        W75856   5.663  25.026  30.313  0.5098 -0.4195 -0.2467
32763W        W75857   5.983  27.252   0.370  0.0227  0.4620 -0.0288
32764W        W75858   4.822  28.184  27.924  0.0826 -0.0596  0.0628
32765W        W75859   3.812  26.403  30.208 -0.1456 -0.1961 -0.1634
32766W        W75860   4.795  28.503  27.509  0.0462 -0.0185  0.1618
32767W        W75861   4.649  25.590  29.830  0.0211 -0.0047  0.1737
32768W        W75862   5.193  27.007  29.997  0.0007  0.1083 -0.1979
32769W        W75863   7.694  24.698  29.529 -0.0813  0.1031  0.1216
32770W        W75864   5.086  24.954  30.230  0.2218 -0.0526 -0.0138
32771W        W75865   6.540  26.620  28.383  0.0270 -0.1403 -0.0181
32772W        W75866   5.644  26.231  29.075  0.1252  0.0356  0.0332
32773W        W75867   6.285  29.569  28.763  0.0427  0.0524  0.1852
32774W        W75868   6.908  25.213  28.697 -0.1694  0.2833 -0.0463
32775W        W75869   7.593  29.845  27.516 -0.1139 -0.0936  0.1185
32776W        W75870   3.385  26.387  29.567 -0.1225 -0.2043 -0.1115
32777W        W75871   5.498  27.015  29.016  0.2753 -0.0015  0.1744
32778W        W75872   5.290  26.216  31.538 -0.0558  0.0183 -0.3730
32779W        W75873   4.950  25.714  30.726  0.0376 -0.1908 -0.2792
32780W        W75874   4.934  25.472  31.156 -0.1294 -0.2159 -0.3719
32781W        W75875   4.284  26.163  28.132  0.0223 -0.1435 -0.1863
32782W        W75876   7.582  25.604  28.473  0.0658  0.1641 -0.2502
32783W        W75877   6.171  26.900  27.496 -0.1503  0.0450 -0.0312
32784W        W75878   4.181  26.510  29.306  0.2515  0.4217  0.2865
32785W        W75879   7.060  26.353   0.153 -0.1592  0.2056 -0.0025
32786W        W75880   7.303  29.213  28.273 -0.0746 -0.2577 -0.0949
32787W        W75881   5.169  28.410  30.665 -0.1714 -0.1590  0.2272
32788W        W75882   6.564  28.897  29.506  0.1637  0.0772 -0.3481
32789W        W75883   6.318  24.632   0.217  0.1809 -0.1708  0.2912
32790W        W75884   4.623  26.087  28.463 -0.0787  0.0858  0.2632
32791W        W75885   3.490  28.309  30.756 -0.0088 -0.1643 -0.0464
32792W        W75886   5.419  27.414  29.762  0.1382  0.0442 -0.4398
32793W        W75887   4.734  25.162  27.989  0.3703 -0.2161 -0.3425
32794W        W75888   6.813  29.144  31.249 -0.1953  0.1884 -0.0029
32795W        W75889   6.484  26.972  28.720  0.2288  0.0709 -0.1109
32796W        W75890   4.429  26.007  30.777 -0.1086  0.3547 -0.0347
32797W        W75891   6.120  24.772  28.780 -0.0644  0.0334  0.1140
32798W        W75892   7.505  24.952  29.889 -0.0267  0.0451  0.2821
32799W        W75893   7.138  25.851  29.212 -0.0080 -0.1064  0.0106
32800W        W75894   3.471  25.631  26.812 -0.0141  0.2213 -0.0800
32801W        W75895   5.275  29.134  29.096 -0.0396 -0.0973  0.2521
32802W        W75896   3.922  29.059  29.094  0.3922  0.3305  0.2178
32803W        W75897   4.119  26.801  28.152  0.0827 -0.1329  0.0520
32804W        W75898   6.089  27.902  27.231 -0.0315 -0.1662  0.0424
32805W        W75899   6.475  25.098  29.119  0.0140 -0.2734 -0.3276
32806W        W75900   2.409  27.466  31.068 -0.1955 -0.1365  0.0572
32807W        W75901   5.562  25.648  29.930  0.0639 -0.1338  0.2036
32808W        W75902   5.785  27.233  27.655  0.2182 -0.1434  0.0932
32809W        W75903   4.314  27.061  31.548  0.1588  0.0584 -0.0526
32810W        W75904   8.642  23.954  28.445  0.1724 -0.0256  0.2529
32811W        W75905   8.249  26.184  28.386 -0.0090  0.1231  0.0042
32812W        W75906   4.707  26.897  31.034 -0.4921  0.0688 -0.1696
32813W        W75907   4.718  27.436  28.610  0.1545 -0.1251  0.3031
32814W        W75908   6.570  25.819  26.515  0.0575  0.1339 -0.1602
32815W        W75909   5.486  25.452  26.281  0.0760  0.0430 -0.1053
32816W        W75910   4.100  28.546  31.864 -0.0480  0.0440 -0.1230
32817W        W75911   5.860  28.389  28.715 -0.0180  0.1041 -0.0710
32818W        W75912   5.245  28.395  30.020 -0.0457  0.0117  0.2793
32819W        W75913   5.575  24.776  28.940 -0.1554  0.1457 -0.0650
32820W        W75914   7.554  28.314  27.785  0.3106 -0.0734 -0.3549
32821W        W75915   3.184  27.273  31.006  0.1120 -0.2846 -0.2014
32822W        W75916   6.555  27.375  31.418  0.2459 -0.1668 -0.0631
32823W        W75917   7.785  29.445  29.093  0.1169 -0.0442  0.3766
32824W        W75918   4.550  24.933  31.599  0.1134 -0.1909  0.0083
32825W        W75919   4.527  26.896  27.645  0.1995 -0.3357  0.0307
32826W        W75920   6.005  25.833  27.500  0.4066  0.3056 -0.3310
32827W        W75921   4.220  29.689  27.679  0.0827  0.2397 -0.1880
32828W        W75922   5.548  24.822  29.838  0.0567 -0.0829  0.1105
32829W        W75923   6.070  26.135  29.315 -0.2389 -0.3668  0.0261
32830W        W75924   6.011  24.514  30.222 -0.0029 -0.2258  0.1087
32831W        W75925   6.114  26.134  31.339  0.2548 -0.0471 -0.3190
32832W        W75926   7.590  26.349  28.552 -0.4167 -0.0676 -0.1147
32833W        W75927   3.964  26.370  31.361  0.0082  0.1166  0.2158
32834W        W75928   4.863  27.745  27.031 -0.0979  0.1174  0.0884
32835W        W75929   6.097  25.552  31.130 -0.3680 -0.1703  0.0457
32836W        W75930   3.847  26.464  29.704 -0.1221 -0.1923  0.0071
32837W        W75931   5.459  28.073  30.927 -0.1038 -0.1259 -0.1480
32838W        W75932   6.561  26.707  30.247  0.0021  0.4757 -0.0173
32839W        W75933   7.310  27.189  29.164  0.1093 -0.1632 -0.4546
32840W        W75934   5.616  26.328  31.196 -0.0105  0.1473  0.3655
32841W        W75935   6.643  24.473  28.305  0.4716  0.1576  0.0483
32842W        W75936   4.651  29.759  28.820  0.0651 -0.0006  0.2695
32843W        W75937   5.757  28.680  27.737  0.1109  0.0104 -0.2186
32844W        W75938   5.437  23.936  29.419 -0.0750 -0.1055 -0.1761
32845W        W75939   5.158  29.295  30.334  0.0524 -0.0539 -0.2474
32846W        W75940   6.121  27.512  28.536  0.2750 -0.3211  0.1469
32847W        W75941   6.610  28.185  30.210 -0.3836  0.1402  0.0013
32848W        W75942   4.830  27.472  29.746  0.1687 -0.1988 -0.2142
32849W        W75943   6.226  26.548  29.919  0.1482 -0.0867 -0.4215
32850W        W75944   3.889  27.342  30.364 -0.0291  0.2211 -0.4835
32851W        W75945   3.818  26.403  28.240  0.0815 -0.0495  0.0981
32852W        W75946   5.278  27.471  28.544  0.0186  0.0633  0.0656
32853W        W75947   6.180  24.524  28.284 -0.1438  0.3335 -0.3957
32854W        W75948   7.233  27.611  28.894  0.1414  0.2474 -0.0813
32855W        W75949   2.977  24.295  30.675 -0.0122 -0.1443  0.1285
32856W        W75950   6.007  24.031  30.205 -0.2720 -0.0370  0.0786
32857W        W75951   4.881  28.824  30.341  0.0836  0.3159 -0.0741
32858W        W75952   4.545  27.515  30.245 -0.3834  0.2704  0.0791
32859W        W75953   5.956  25.618  26.287 -0.0255 -0.0369  0.0302
32860W        W75954   7.487  27.736  29.863 -0.0271  0.0315  0.4909
32861W        W75955   5.538  25.458  30.882  0.0877  0.1578  0.0224
32862W        W75956   4.607  26.629  28.253  0.0220  0.2090  0.3393
32863W        W75957   6.384  26.432   0.137 -0.0129  0.2852  0.5387
32864W        W75958   6.375  25.160  28.629 -0.2932 -0.0689  0.1924
32865W        W75959   4.276  28.334  29.829  0.2792 -0.1026  0.1812
32866W        W75960   5.685  27.810  29.394  0.1625  0.0239 -0.0041
32867W        W75961   4.962  27.029  28.367 -0.3531 -0.0935 -0.0880
32868W        W75962   4.678  29.608  29.787 -0.0656 -0.0622 -0.1624
32869W        W75963   5.463  25.954  30.389 -0.1008 -0.0541  0.4902
32870W        W75964   5.194  26.720  30.833  0.1055  0.0132  0.0464
32871W        W75965   5.112  25.686  30.046  0.1048 -0.2656 -0.0482
32872W        W75966   4.875  24.538  27.806 -0.0023 -0.0232 -0.3477
32873W        W75967   6.522  27.044  29.269  0.2011 -0.2481  0.0057
32874W        W75968   5.880  27.567  29.868 -0.0447 -0.0879  0.0649
32875W        W75969   6.775  26.510  29.019 -0.0684  0.2644 -0.0501
32876W        W75970   4.609  28.917  31.617 -0.1221  0.0749 -0.0600
32877W        W75971   5.794  24.274  29.354 -0.0151  0.1383  0.1733
32878W        W75972   6.792  29.130  28.012 -0.2239 -0.2656 -0.0316
32879W        W75973   6.056  26.947  29.027 -0.0652 -0.0172 -0.1672
32880W        W75974   4.269  26.530  27.283  0.1322  0.4260 -0.0536
32881W        W75975   3.585  27.595  30.820 -0.0519 -0.1958  0.0866
32882W        W75976   4.478  26.047  26.949 -0.3585  0.2711  0.0985
32883W        W75977   6.132  25.680  29.642 -0.2738 -0.1407  0.4808
32884W        W75978   4.423  27.801  29.804 -0.0714  0.0852  0.0778
32885W        W75979   3.721  26.771  28.616 -0.1553 -0.1102 -0.2722
32886W        W75980   3.658  28.134  31.193 -0.3329 -0.2105  0.2738
32887W        W75981   8.067  25.626  28.497 -0.2908  0.0490 -0.1213
32888W        W75982   5.684  27.664  27.419  0.1460 -0.1997 -0.2940
32889W        W75983   5.123  26.571  29.770  0.1081  0.1135 -0.0871
32890W        W75984   8.404  25.658  30.896  0.0736  0.0814  0.0453
32891W        W75985   6.516  26.453  26.759  0.3468  0.0577  0.2053
32892W        W75986   6.680  25.073  31.323  0.2364  0.4537  0.3183
32893W        W75987   5.095  24.253  30.620  0.2139  0.1941 -0.2057
32894W        W75988   6.163  27.172  29.704 -0.1339 -0.3447 -0.2141
32895W        W75989   5.385  24.868  30.690 -0.1728  0.3244 -0.1791
32896W        W75990   7.286  27.264  31.588 -0.0312 -0.0990 -0.1901
32897W        W75991   4.153  26.802  31.111 -0.0636 -0.2669  0.1780
32898W        W75992   6.695  25.752  28.214 -0.2619  0.0592  0.0632
32899W        W75993   4.920  25.059  29.288 -0.2077 -0.0288  0.2305
32900W        W75994   5.079  27.274  30.662 -0.0510 -0.0717  0.1714
32901W        W75995   3.983  26.861  30.576 -0.0860 -0.2442 -0.1372
32902W        W75996   5.191  28.144  27.595 -0.0692 -0.3310  0.1627
32903W        W75997   6.895  25.788  29.665 -0.5126 -0.0292  0.3022
32904W        W75998   4.466  28.070  30.549  0.1421  0.0307 -0.1848
32905W        W75999   6.931  27.840  28.358 -0.0104  0.1375  0.0536
32906W        W76000   7.117  28.857  27.550 -0.0927  0.1177  0.3353
32907W        W76001   4.989  27.936  29.873  0.3164 -0.2970 -0.1505
32908W        W76002   4.949  24.684  30.859  0.1030 -0.0370 -0.2936
32909W        W76003   7.064  26.383  30.806 -0.1360  0.1504 -0.1602
32910W        W76004   6.424  26.092  29.767 -0.2951  0.2151  0.1948
32911W        W76005   5.561  27.557  30.219 -0.0433  0.0210 -0.0814
32912W        W76006   6.765  25.525  30.434 -0.2175  0.0040 -0.1774
32913W        W76007   4.785  26.010  31.099  0.0119 -0.0975 -0.3470
32914W        W76008   5.586  25.141   0.799  0.2547  0.0829 -0.0006
32915W        W76009   6.136  30.044  30.670 -0.3244 -0.0621 -0.0977
32916W        W76010   7.013  25.808  26.337  0.2870  0.0733 -0.0186
32917W        W76011   7.374  26.121  31.108  0.0409  0.2044  0.1037
32918W        W76012   7.548  26.259  29.224  0.2082  0.0574 -0.2109
32919W        W76013   7.315  27.123  28.620  0.1764 -0.1527 -0.0765
32920W        W76014   4.660  26.514  30.131 -0.0002  0.0529  0.3846
32921W        W76015   5.237  27.589   0.138  0.1076  0.0088 -0.4119
32922W        W76016   5.160  25.421  28.258 -0.0196 -0.1394  0.0719
32923W        W76017   6.276  25.045  30.988  0.2642  0.0415  0.1157
32924W        W76018   4.062  28.728  28.081 -0.2617  0.1570 -0.3017
32925W        W76019   6.917  26.990  28.925  0.3217 -0.2364 -0.2211
32926W        W76020   6.886  26.227  27.451 -0.0287 -0.1361  0.0970
32927W        W76021   4.785  26.599  28.766  0.2328 -0.2771 -0.0152
32928W        W76022   3.990  27.967  31.885  0.1147 -0.0375  0.0382
32929W        W76023   3.975  25.988  27.814  0.0623 -0.0037  0.3812
32930W        W76024   5.828  26.155  28.619  0.1371 -0.1956 -0.0761
32931W        W76025   6.233  27.126  30.192 -0.2567 -0.1355 -0.0900
32932W        W76026   6.132  27.629  31.557  0.0989 -0.2694  0.0926
32933W        W76027   5.330  25.686  27.801  0.1003  0.1772  0.1489
32934W        W76028   6.945  24.186  31.669  0.1862 -0.1344 -0.1740
32935W        W76029   4.710  28.385  30.162  0.0634  0.0291  0.2548
32936W        W76030   6.494  25.668  29.372 -0.1899  0.1605  0.3998
32937W        W76031   5.882  29.546  29.907  0.1599 -0.0778 -0.1477
32938W        W76032   4.121  28.168  31.431 -0.0628 -0.0690 -0.0142
32939W        W76033   6.489  27.923  28.669  0.2221  0.0911 -0.2424
32940W        W76034   5.735  26.432  30.195  0.0247  0.1817  0.0223
32941W        W76035   7.822  27.015  29.087  0.4856 -0.2013  0.3261
32942W        W76036   3.964  26.351  30.764  0.0441  0.0377  0.0569
32943W        W76037   7.702  27.961  31.020 -0.0891 -0.1395 -0.0542
32944W        W76038   5.580  27.944  31.820 -0.0623 -0.1267 -0.2815
32945W        W76039   4.465  27.910  28.862 -0.2191  0.3048 -0.0812
32946W        W76040   6.110  28.025  30.327 -0.2435 -0.3142  0.3627
32947W        W76041   6.832  27.647  30.072 -0.0723  0.0475 -0.0729
32948W        W76042   5.088  26.616  29.218 -0.0886  0.0007  0.1261
32949W        W76043   3.610  26.167  31.062 -0.1266 -0.0824 -0.0740
32950W        W76044   4.829  25.802   1.276 -0.0141 -0.1283 -0.2092
32951W        W76045   7.096  26.333  29.463  0.2985 -0.1947 -0.0519
32952W        W76046   4.690  25.236  28.687 -0.0644  0.1142  0.3164
32953W        W76047   6.341  28.447  28.490  0.2149 -0.2071  0.3770
32954W        W76048   4.421  27.141  30.689  0.3161 -0.0986  0.3488
32955W        W76049   4.384  26.909  30.277  0.1813  0.0391 -0.0648
32956W        W76050   4.930  28.769  28.851  0.1772 -0.0371  0.0579
32957W        W76051   6.533  28.616  27.947  0.2555  0.0480  0.0385
32958W        W76052   6.235  27.449  27.429  0.0848  0.2791 -0.1338
32959W        W76053   6.159  28.597  29.543 -0.1774  0.2228  0.1014
32960W        W76054   6.060  25.748  28.848 -0.0177  0.1522  0.0510
32961W        W76055   3.881  27.228  31.019  0.0395  0.2369  0.1293
32962W        W76056   4.874  28.385  28.536 -0.0299  0.1730 -0.3786
32963W        W76057   6.527  28.863  28.952 -0.3175 -0.1121 -0.4412
32964W        W76058   5.169  27.842  29.461  0.5190 -0.0486 -0.1866
32965W        W76059   8.458  27.878  30.806  0.0758 -0.0100 -0.0457
32966W        W76060   6.989  24.900  29.147  0.0525  0.3680 -0.2712
32967W        W76061   7.129  27.273  29.670 -0.1343  0.3089  0.0462
32968W        W76062   8.280  26.416  27.451  0.1082  0.2266 -0.0048
32969W        W76063   6.829  26.799   0.147 -0.0529  0.0975  0.1406
32970W        W76064   5.715  26.603  28.807 -0.1835  0.0449  0.1034
32971W        W76065   6.431  25.549  27.165 -0.1639  0.0572  0.0642
32972W        W76066   3.860  26.916  29.501 -0.0751  0.0398 -0.1412
32973W        W76067   6.854  24.531   0.089 -0.0619 -0.1639  0.0660
32974W        W76068   5.080  28.915  30.789  0.0955 -0.3281 -0.1053
32975W        W76069   6.875  28.347  28.452  0.2290  0.1596  0.0754
32976W        W76070   6.061  26.583  28.418 -0.1043  0.0806  0.3114
32977W        W76071   6.296  27.530  29.016  0.3380 -0.0468 -0.0655
32978W        W76072   7.071  25.718  30.116  0.2210 -0.1181  0.3447
32979W        W76073   5.151  27.751  26.629  0.2260 -0.1018 -0.0746
32980W        W76074   7.932  26.540  29.067  0.2808  0.1905  0.1429
32981W        W76075   5.795  27.380  28.851 -0.1393  0.1023  0.1431
32982W        W76076   4.303  28.939  30.970  0.0816 -0.0543  0.1213
32983W        W76077   5.768  28.849  28.877 -0.2932 -0.1009 -0.2144
32984W        W76078   4.834  26.031  29.013 -0.0965  0.1490 -0.0639
32985W        W76079   7.725  25.903  27.636 -0.3832  0.1320 -0.0842
32986W        W76080   4.734  24.659  30.416 -0.3585  0.0436 -0.1114
32987W        W76081   5.703  25.288  29.615  0.0371 -0.0601  0.2819
32988W        W76082   4.273  26.768  29.732 -0.3701  0.0380 -0.3533
32989W        W76083   7.946  26.023  28.757 -0.0536 -0.1148  0.0467
32990W        W76084   6.234  27.741  29.460  0.0677  0.0654 -0.1095
32991W        W76085   3.798  25.804  31.402 -0.0588 -0.0627  0.0500
32992W        W76086   5.289  27.300  27.541 -0.1244 -0.1728 -0.2242
32993W        W76087   7.209  27.756  30.893 -0.4138  0.0139 -0.0040
32994W        W76088   4.739  26.427  27.223  0.0041  0.3521  0.0862
32995W        W76089   6.252  26.439  28.872  0.2009 -0.0028 -0.3946
32996W        W76090   5.080  24.842  28.529  0.3042 -0.4063 -0.1243
32997W        W76091   7.352  26.159  27.876 -0.0541  0.1606 -0.0183
32998W        W76092   4.206  26.472  28.571 -0.0244  0.1154 -0.2907
32999W        W76093   5.474  26.863  29.568  0.0468 -0.0150  0.1910
33000W        W76094   7.690  28.150  31.498  0.1588 -0.0403  0.2224
33001W        W76095   3.347  26.369  27.417 -0.0479 -0.1699  0.0043
33002W        W76096   7.244  28.374  27.425  0.1895 -0.2301 -0.1231
33003W        W76097   8.027  27.918  30.483 -0.3988  0.0146 -0.1284
33004W        W76098   4.003  29.012  28.539 -0.0165  0.1941  0.1437
33005W        W76099   6.876  26.244  29.912  0.2339  0.0921 -0.1016
33006W        W76100   5.856  28.566  30.422 -0.1529 -0.2186 -0.1149
33007W        W76101   4.287  25.575  30.490 -0.0044  0.1006 -0.1630
33008W        W76102   7.099  29.834  29.693 -0.3094  0.1016  0.6064
33009W        W76103   5.924  28.118  29.855  0.0274  0.1350  0.1910
33010W        W76104   5.409  24.581  27.708  0.1964  0.0416 -0.3166
33011W        W76105   4.789  25.502  29.053 -0.3983 -0.1621 -0.2027
33012W        W76106   4.369  29.716  30.665  0.2230 -0.0022 -0.0070
33013W        W76107   5.433  27.022  30.426 -0.1037  0.0518 -0.5600
33014W        W76108   6.705  25.391  31.874  0.3010 -0.0394  0.0897
33015W        W76109   6.042  28.734  28.180 -0.2211  0.2329 -0.0270
33016W        W76110   7.525  25.152  30.698 -0.2412  0.0574  0.3480
33017W        W76111   6.486  26.950  30.699 -0.0571 -0.0027  0.1436
33018W        W76112   4.934  28.119  31.000 -0.1256  0.0908  0.2345
33019W        W76113   4.535  26.373  25.938  0.0233 -0.1200 -0.1237
33020W        W76114   4.534  25.478  30.921 -0.1153  0.0414 -0.0365
33021W        W76115   6.580  27.407  29.689 -0.0478 -0.1709  0.0459
33022W        W76116   6.700  28.835  28.415  0.0035  0.0273  0.1180
33023W        W76117   7.082  28.264  29.295 -0.1533  0.1652  0.2423
33024W        W76118   5.578  25.720  28.643  0.1784 -0.0621 -0.0736
33025W        W76119   7.392  28.394  28.386  0.1435  0.0533  0.0446
33026W        W76120   5.440  24.941  29.395  0.2320 -0.1153 -0.0005
33027W        W76121   7.954  24.271  29.576  0.0785  0.0583  0.1732
33028W        W76122   7.123  25.432  28.217 -0.1825  0.0076  0.2030
33029W        W76123   4.971  26.431  31.152  0.0591 -0.4222 -0.0195
33030W        W76124   1.434  26.088  27.616 -0.1681 -0.1933  0.0930
33031W        W76125   5.350  28.993  27.758 -0.2817 -0.0914 -0.1864
33032W        W76126   3.468  27.135  30.570  0.0966 -0.0064 -0.1262
33033W        W76127   6.100  23.457  30.029  0.0025  0.1224 -0.1074
33034W        W76128   4.297  25.542   0.341  0.0432  0.1238  0.0296
33035W        W76129   4.709  26.570  29.520 -0.2617 -0.2396 -0.3228
33036W        W76130   5.860  27.255  27.071  0.0690  0.0292  0.2961
33037W        W76131   7.158  28.749  28.074  0.1693 -0.1160  0.2251
33038W        W76132   5.351  24.443  29.330  0.3278  0.0514 -0.0817
33039W        W76133   4.126  25.477  29.763  0.1827  0.1017 -0.3274
33040W        W76134   6.154  28.039  29.053  0.0062  0.1102 -0.0884
33041W        W76135   7.238  28.362  30.171 -0.2919 -0.0198  0.0048
33042W        W76136   5.313  25.240  29.880 -0.1370 -0.1646  0.2041
33043W        W76137   6.957  30.045  31.469 -0.0419 -0.1340 -0.1480
33044W        W76138   4.362  27.284  28.923 -0.0357 -0.1178 -0.2227
33045W        W76139   5.235  26.126  30.818 -0.2790  0.2063 -0.0707
33046W        W76140   5.094  24.474  31.468  0.1047 -0.0560 -0.0374
33047W        W76141   2.462  25.877  26.297 -0.1529  0.0075 -0.2174
33048W        W76142   5.255  25.770  29.034 -0.2943 -0.1636  0.1494
33049W        W76143   5.689  29.829  28.594 -0.2127 -0.1853  0.1120
33050W        W76144   7.868  29.188  27.077  0.0079 -0.0151 -0.0749
33051W        W76145   4.876  27.966  30.349  0.0578 -0.1377 -0.0231
33052W        W76146   5.694  27.728  31.285 -0.2122  0.0763  0.2502
33053W        W76147   4.477  25.101  30.587 -0.1605 -0.0463  0.0943
33054W        W76148   6.213  27.791  27.826  0.0841  0.0705 -0.1624
33055W        W76149   4.173  27.691  30.700  0.1139  0.4962 -0.2303
33056W        W76150   7.876  27.694  26.979  0.0323  0.1820  0.1776
33057W        W76151   6.815  26.299  30.393  0.2291 -0.1570  0.2679
33058W        W76152   7.092  25.642  28.704 -0.1319  0.0342  0.1401
33059W        W76153   3.990  25.193  30.720 -0.2152 -0.1267  0.0354
33060W        W76154   4.363  26.616  30.721  0.0990 -0.2854  0.0327
33061W        W76155   7.432  26.669  30.350  0.1223  0.0459 -0.1125
33062W        W76156   5.573  25.899  29.479  0.0672  0.1455 -0.0884
33063W        W76157   6.218  24.030  27.416  0.1332  0.3232 -0.7217
33064W        W76158   5.806  28.327  29.337  0.1248 -0.0431 -0.1574
33065W        W76159   3.852  26.812  31.626 -0.0268  0.0879  0.1532
33066W        W76160   6.316  25.912  27.958  0.0347  0.2768 -0.0193
33067W        W76161   4.630  28.624  30.756 -0.0293 -0.2844 -0.1207
33068W        W76162   5.307  27.443  29.185  0.1131 -0.1821  0.1489
33069W        W76163   5.571  28.153  30.380 -0.0794  0.0727  0.1269
33070W        W76164   5.920  25.479  27.754 -0.0761 -0.1835  0.0579
33071W        W76165   7.768  27.370  28.342 -0.3242 -0.2090 -0.2472
33072W        W76166   4.981  28.023  31.935  0.1455  0.0623  0.4643
33073W        W76167   7.382  29.848  31.286  0.0812  0.1634 -0.1661
33074W        W76168   5.737  27.242  29.389  0.0019 -0.0024 -0.0290
33075W        W76169   6.804  27.165  31.055  0.3778  0.0345 -0.0095
33076W        W76170   5.048  25.536  29.563 -0.2497 -0.1181  0.0099
33077W        W76171   5.435  26.326  27.800 -0.0371  0.3726  0.1192
33078W        W76172   4.692  27.023  29.909  0.2383 -0.0473 -0.1182
33079W        W76173   7.898  26.098  30.914 -0.1051 -0.1589 -0.0065
33080W        W76174   5.662  24.261  29.850  0.1024  0.0517 -0.0555
33081W        W76175   6.870  24.864  27.784  0.1352  0.0655  0.0707
33082W        W76176   5.249  28.839  29.752 -0.0041  0.1393 -0.0093
33083W        W76177   7.966  26.846  30.296 -0.2035 -0.1470  0.1655
33084W        W76178   6.679  26.033   0.080  0.0869 -0.2035 -0.0000
33085W        W76179   6.755  26.756  31.607  0.3305  0.1245  0.1247
33086W        W76180   4.257  26.553  31.725 -0.1175  0.2126  0.4006
33087W        W76181   4.040  26.794   0.165  0.1067  0.3484  0.1085
33088W        W76182   4.738  27.685  30.846 -0.1687  0.0857 -0.0168
33089W        W76183   3.991  27.798   0.401  0.2491  0.1966  0.0250
33090W        W76184   6.603  25.730   0.756 -0.2356  0.1539 -0.0197
33091W        W76185   5.395  24.858  31.243  0.0633 -0.2188 -0.3300
33092W        W76186   6.660  25.387  30.901  0.2066 -0.2213 -0.0793
33093W        W76187   7.613  27.272   0.343  0.0848  0.3682 -0.1471
33094W        W76188   5.299  26.701  31.347 -0.2770  0.0698 -0.0688
33095W        W76189   5.177  26.004   0.015 -0.2728 -0.0058 -0.1830
33096W        W76190   6.589  27.591  30.951 -0.2231  0.2125 -0.2456
33097W        W76191   5.743  25.834   0.126 -0.1640 -0.1063  0.0495
33098W        W76192   6.271  25.239  31.452  0.1734 -0.0101 -0.2320
33099W        W76193   3.900  28.661  30.624  0.0112  0.0868  0.2405
33100W        W76194   3.034  26.620   0.307  0.1617 -0.3192 -0.1608
33101W        W76195   5.629  26.839   0.447  0.1416  0.0513  0.0143
33102W        W76196   3.693  25.722  31.916  0.1345  0.1905 -0.3477
33103W        W76197   3.505  25.969   0.903  0.1011  0.1168  0.2772
33104W        W76198   4.336  24.732   0.044  0.0356  0.2490  0.0700
33105W        W76199   4.534  27.823   0.429 -0.1558  0.0006  0.2111
33106W        W76200   6.520  26.152  31.644  0.2206  0.2909 -0.0255
33107W        W76201   6.201  26.332  30.357  0.2402  0.3813  0.2396
33108W        W76202   5.276  25.340  31.450 -0.4810  0.3242 -0.3142
33109W        W76203   5.882  24.604  30.767 -0.2252 -0.3397 -0.2437
33110W        W76204   5.189  27.667  31.114  0.0047 -0.0825  0.0358
33111W        W76205   3.177  29.556  30.885 -0.3418 -0.1199 -0.2528
33112W        W76206   6.510  26.434  30.757  0.1143  0.1323  0.1973
33113W        W76207   5.124  27.149  31.143  0.2616 -0.0891 -0.0342
33114W        W76208   4.735  27.594  31.935  0.0906  0.0024  0.0206
33115W        W76209   5.355  25.816  31.206  0.0699 -0.5141 -0.0434
33116W        W76210   6.749  27.188  30.284  0.0507  0.1351 -0.1200
33117W        W76211   6.551  25.462  29.926  0.1521  0.0778  0.0518
33118W        W76212   2.523  26.032   0.902 -0.0675 -0.0494  0.1930
33119W        W76213   4.729  27.081  31.958  0.2618 -0.0176 -0.3341
33120W        W76214   4.803  26.380  30.692  0.0802  0.0561 -0.3009
33121W        W76215   5.709  26.904  31.004 -0.0687  0.0595 -0.1636
33122W        W76216   5.681  26.119   0.715 -0.0608 -0.0347 -0.0414
33123W        W76217   5.241  26.467  30.374 -0.2888  0.1753  0.0849
33124W        W76218   6.021  26.763  30.545 -0.1039  0.0288  0.1149
33125W        W76219   5.494  27.348   0.483  0.0679  0.0165 -0.3037
33126W        W76220   4.757  26.281  31.599  0.0781  0.2281 -0.2340
33127W        W76221   5.529  26.626  31.970 -0.0877 -0.0297  0.0869
33128W        W76222   3.574  24.679  31.453  0.1466 -0.0080  0.0328
33129W        W76223   5.016  26.554   0.055  0.0348  0.0673 -0.1361
33130W        W76224   4.498  26.688   0.152  0.0361  0.1670 -0.2252
33131W        W76225   6.101  27.346  31.110  0.0903 -0.0997  0.0429
33132W        W76226   6.525  27.129   0.019 -0.0813 -0.3387 -0.1240
33133W        W76227   2.489  27.918  31.244 -0.2336 -0.0301 -0.4485
33134W        W76228   6.170  27.863  30.990  0.0061 -0.2383 -0.2317
33135W        W76229   6.043  24.895  31.896  0.2755  0.2533 -0.0524
33136W        W76230   4.812  25.740   0.295  0.1492 -0.0867  0.0069
33137W        W76231   4.668  27.842  31.488  0.0516  0.1856 -0.1510
33138W        W76232   5.602  26.469  30.739 -0.1697 -0.0597  0.0506
33139W        W76233   5.363  26.160  29.978  0.4231  0.1635  0.0366
33140W        W76234   7.161  27.306   0.078  0.1631  0.0735  0.0656
33141W        W76235   5.091  27.950   0.641  0.0088 -0.0749 -0.2989
33142W        W76236   5.236  27.537  31.589  0.0413  0.2111  0.1548
33143W        W76237   3.831  26.286  31.810 -0.0780 -0.2090 -0.2699
33144W        W76238   4.407  26.335  31.249 -0.0634  0.1429 -0.0565
33145W        W76239   4.413  27.388  31.125  0.3677  0.0559  0.1275
33146W        W76240   2.899  27.646  31.284  0.0925 -0.0730  0.1400
33147W        W76241   4.699  25.326   0.026 -0.0051 -0.1564 -0.1164
33148W        W76242   7.301  28.144  31.245  0.0980  0.0530 -0.0468
33149W        W76243   8.465  28.031   0.208 -0.1146  0.1663 -0.0476
33150W        W76244   7.704  28.057  30.122 -0.0029  0.0010 -0.1306
33151W        W76245   3.132  32.628  19.853  0.1748 -0.1054  0.2638
33152W        W76246   5.071  30.504  15.975 -0.0892 -0.0309  0.0529
33153W        W76247   6.322  30.056  16.130 -0.0382  0.0022  0.0510
33154W        W76248   7.140  31.046  15.770 -0.0600  0.1780  0.1924
33155W        W76249   4.481  31.334  16.509 -0.2603  0.3886  0.2429
33156W        W76250   5.457  33.126  16.984  0.0698  0.1801 -0.1441
33157W        W76251   3.457  30.229  18.806 -0.0149 -0.1194  0.2017
33158W        W76252   5.810  31.209  19.038  0.2201 -0.0473  0.1853
33159W        W76253   6.472  32.915  17.752 -0.2195  0.2809  0.2335
33160W        W76254   6.432  31.904  16.555 -0.2989  0.0131 -0.0128
33161W        W76255   4.464  31.091  18.182 -0.2329 -0.0274  0.1515
33162W        W76256   4.704  32.744  17.518 -0.2183 -0.0243  0.0563
33163W        W76257   4.868  29.442  16.318  0.2083  0.0675 -0.2013
33164W        W76258   2.201  29.989  17.875  0.1617 -0.0262  0.2189
33165W        W76259   6.762  29.431  19.029  0.2023 -0.1960 -0.0771
33166W        W76260   3.034  31.635  16.536 -0.0413  0.3551  0.0782
33167W        W76261   3.773  30.503  16.332 -0.3125 -0.0438 -0.0658
33168W        W76262   5.362  30.260  16.760  0.0346  0.2959  0.0876
33169W        W76263   5.425  33.685  18.856  0.1701 -0.1888  0.1903
33170W        W76264   4.896  29.612  16.860  0.2141  0.1563  0.1053
33171W        W76265   4.631  28.185  19.901  0.0749  0.1311 -0.1247
33172W        W76266   3.798  32.718  16.750 -0.0049  0.0214 -0.0272
33173W        W76267   3.968  30.585  16.778  0.1904 -0.0797  0.2443
33174W        W76268   3.888  31.041  16.600  0.2110 -0.2714 -0.1105
33175W        W76269   4.331  30.610  19.116  0.2076 -0.1630 -0.1436
33176W        W76270   6.314  29.973  17.279 -0.0335  0.0031 -0.0683
33177W        W76271   7.196  30.647  16.213  0.0207 -0.0212 -0.2130
33178W        W76272   6.360  32.485  16.481 -0.2383  0.1504 -0.1978
33179W        W76273   5.430  32.144  17.528  0.2612 -0.0694  0.0092
33180W        W76274   5.255  29.384  20.008 -0.1535 -0.2578 -0.3433
33181W        W76275   3.523  31.584  18.474 -0.0056  0.0698  0.0952
33182W        W76276   1.751  33.319  17.416 -0.1580  0.0720 -0.2200
33183W        W76277   4.574  32.384  17.198  0.0910  0.3767  0.2351
33184W        W76278   6.195  33.089  16.391  0.2680 -0.0637  0.0339
33185W        W76279   7.020  32.904  17.610 -0.2078  0.0104 -0.1103
33186W        W76280   4.081  31.022  21.170  0.1133 -0.0482 -0.0959
33187W        W76281   3.405  32.528  16.508 -0.0582 -0.3246 -0.0950
33188W        W76282   6.191  32.931  18.776 -0.2639 -0.0590  0.1688
33189W        W76283   5.379  32.189  18.537 -0.0816  0.0993  0.0904
33190W        W76284   5.597  30.062  18.233  0.1190 -0.0809 -0.1281
33191W        W76285   4.987  30.913  17.445 -0.1902 -0.0412  0.2222
33192W        W76286   5.901  32.659  16.630  0.0724 -0.0966 -0.0567
33193W        W76287   5.453  31.225  17.555  0.1377 -0.0185 -0.4561
33194W        W76288   4.823  31.394  20.577  0.2484  0.0226  0.1635
33195W        W76289   2.940  31.419  17.283 -0.0768  0.2045 -0.0743
33196W        W76290   6.558  28.820  19.816  0.0188 -0.1891 -0.3296
33197W        W76291   3.823  31.732  17.190  0.2350 -0.1040  0.0485
33198W        W76292   5.898  30.389  16.083 -0.0906 -0.3157 -0.0526
33199W        W76293   5.312  29.593  16.154 -0.1544  0.0149 -0.2116
33200W        W76294   6.172  31.002  18.303  0.2473 -0.1985  0.2307
33201W        W76295   3.397  29.981  17.998 -0.0010  0.0380  0.1437
33202W        W76296   4.771  32.786  16.779  0.3176  0.3796 -0.1592
33203W        W76297   4.553  30.434  16.832  0.0485 -0.0051  0.1711
33204W        W76298   5.732  31.817  18.370 -0.2148  0.0620 -0.0935
33205W        W76299   4.522  30.000  16.633  0.0642 -0.3546 -0.2336
33206W        W76300   5.157  31.196  17.074  0.3239 -0.3952  0.1584
33207W        W76301   4.857  32.378  17.941  0.3215 -0.1532  0.3878
33208W        W76302   3.694  30.334  17.416 -0.0773  0.0741  0.0551
33209W        W76303   7.855  32.412  15.483 -0.0384 -0.3303 -0.1048
33210W        W76304   7.693  32.169  16.582  0.0842  0.1371 -0.0760
33211W        W76305   6.257  33.332  17.152 -0.1213 -0.2184 -0.2409
33212W        W76306   4.857  30.924  16.774 -0.1096 -0.4965  0.0330
33213W        W76307   3.948  31.523  19.834  0.3273  0.2050 -0.1262
33214W        W76308   3.094  30.286  19.668 -0.1143  0.2299  0.0869
33215W        W76309   3.806  30.056  16.097  0.2071 -0.0168 -0.2418
33216W        W76310   5.258  30.665  19.909  0.2423 -0.3229  0.2613
33217W        W76311   4.582  32.626  19.204  0.3181  0.1234  0.1270
33218W        W76312   5.780  29.344  16.145 -0.1532 -0.0059 -0.0927
33219W        W76313   5.127  31.275  17.928 -0.1716 -0.2122 -0.0770
33220W        W76314   6.698  31.026  18.698 -0.2565 -0.1805 -0.2225
33221W        W76315   5.923  31.880  15.328  0.1832 -0.0916 -0.2319
33222W        W76316   5.766  29.412  16.752 -0.1253 -0.1295 -0.0816
33223W        W76317   7.872  29.038  18.051 -0.0800  0.1057  0.2833
33224W        W76318   5.505  31.656  16.384 -0.3842  0.1100 -0.0519
33225W        W76319   5.370  30.631  16.444  0.0081 -0.0937 -0.1887
33226W        W76320   7.274  32.357  17.674  0.1427 -0.0060 -0.1077
33227W        W76321   7.553  31.641  15.846 -0.0733  0.0269  0.0806
33228W        W76322   3.451  32.870  17.844 -0.1116 -0.1078 -0.0283
33229W        W76323   5.414  29.816  20.142  0.0694  0.0806 -0.0291
33230W        W76324   6.462  31.391  18.388  0.0611 -0.2993  0.1525
33231W        W76325   3.346  32.785  16.034 -0.0200 -0.1618 -0.2123
33232W        W76326   2.162  30.810  18.133 -0.2219  0.0600  0.0294
33233W        W76327   4.006  31.372  16.263  0.1150  0.0531  0.2345
33234W        W76328   2.727  29.951  19.474  0.0021 -0.3909  0.0602
33235W        W76329   5.049  32.322  17.069  0.0237  0.1346 -0.1035
33236W        W76330   4.922  30.075  17.121  0.0180  0.0671 -0.1066
33237W        W76331   4.514  29.073  19.514 -0.0652 -0.2106  0.3225
33238W        W76332   7.567  29.544  16.760  0.2143  0.0082  0.2439
33239W        W76333   3.087  31.368  17.746  0.0322  0.3644 -0.0755
33240W        W76334   6.551  33.114  16.842 -0.0712 -0.0402  0.0033
33241W        W76335   6.886  31.362  17.121  0.1331 -0.2402 -0.0866
33242W        W76336   7.622  32.989  16.653 -0.1280  0.1451  0.0866
33243W        W76337   4.395  31.197  19.197  0.0893  0.4185  0.0482
33244W        W76338   4.789  29.978  17.666  0.3087  0.1070 -0.2468
33245W        W76339   3.181  29.236  20.879 -0.2323 -0.3136 -0.0887
33246W        W76340   2.653  29.947  18.006 -0.1430 -0.2073  0.0988
33247W        W76341   5.791  29.146  18.027 -0.0425 -0.2883  0.0608
33248W        W76342   3.134  28.565  17.047  0.1353 -0.1711 -0.0508
33249W        W76343   7.291  31.173  16.270  0.0274 -0.0029 -0.1547
33250W        W76344   4.864  32.082  17.477  0.0789 -0.1627 -0.1727
33251W        W76345   3.776  29.820  17.244  0.0842 -0.0316  0.0648
33252W        W76346   6.547  28.524  19.059  0.0125 -0.2491  0.3492
33253W        W76347   4.892  33.279  16.796 -0.2122  0.2987  0.0891
33254W        W76348   6.603  32.564  17.363 -0.1691  0.3251 -0.1915
33255W        W76349   7.000  31.835  17.478  0.0508  0.0745 -0.0047
33256W        W76350   4.428  27.966  19.386 -0.1442  0.1897  0.1105
33257W        W76351   4.222  29.364  17.124 -0.0975 -0.0472  0.5517
33258W        W76352   2.725  33.511  20.110 -0.0150  0.0850 -0.0405
33259W        W76353   3.678  32.457  18.848  0.0376 -0.1650  0.2002
33260W        W76354   3.758  30.103  16.779  0.4363  0.2277 -0.0071
33261W        W76355   7.191  31.347  17.927 -0.0178  0.3103  0.1153
33262W        W76356   4.223  31.436  17.375  0.2058 -0.0303  0.1483
33263W        W76357   4.428  31.380  18.677  0.2261 -0.0596 -0.0402
33264W        W76358   5.227  28.623  18.419 -0.1809  0.1067 -0.0370
33265W        W76359   6.595  32.101  17.589 -0.0313  0.3725  0.2079
33266W        W76360   6.280  30.245  16.894  0.0369 -0.2323  0.4326
33267W        W76361   4.876  30.339  16.425  0.0845 -0.0787  0.1867
33268W        W76362   6.322  30.880  17.419  0.1764  0.1239 -0.0140
33269W        W76363   3.667  32.300  16.963  0.0548  0.2402 -0.0554
33270W        W76364   2.754  30.541  16.895 -0.0132  0.2523 -0.0558
33271W        W76365   4.626  31.677  18.208 -0.3079 -0.0619  0.0213
33272W        W76366   6.627  30.445  17.266  0.0291  0.1393  0.0984
33273W        W76367   2.687  31.074  20.456  0.1855  0.1896 -0.0170
33274W        W76368   5.559  30.718  21.487 -0.0376 -0.2738  0.0202
33275W        W76369   5.006  31.233  16.199  0.0006  0.2736 -0.2447
33276W        W76370   3.390  32.459  20.348 -0.0513 -0.2241  0.1188
33277W        W76371   4.216  30.119  18.274  0.1357 -0.2064 -0.0426
33278W        W76372   6.962  29.597  16.589 -0.2184 -0.2244 -0.2060
33279W        W76373   5.516  30.623  18.992  0.1328  0.2108  0.2396
33280W        W76374   7.724  32.253  17.166 -0.0507 -0.3197 -0.0263
33281W        W76375   6.610  31.798  17.052 -0.1132 -0.1260  0.1682
33282W        W76376   4.967  29.588  15.808 -0.1352  0.3851  0.0953
33283W        W76377   3.583  31.269  20.133  0.2299  0.3828 -0.2433
33284W        W76378   5.273  31.622  18.333 -0.3839 -0.1679  0.3873
33285W        W76379   6.166  30.016  18.101 -0.1909  0.0927 -0.1853
33286W        W76380   5.769  31.313  16.118  0.1237  0.3673  0.2059
33287W        W76381   8.004  31.980  15.745  0.3239  0.1897 -0.1193
33288W        W76382   3.452  30.484  20.042  0.0657 -0.3194  0.2420
33289W        W76383   5.152  30.657  19.384 -0.1794 -0.0417 -0.1518
33290W        W76384   5.955  31.132  17.292  0.0430  0.5019 -0.0578
33291W        W76385   6.217  29.643  17.693 -0.3156  0.3080 -0.2527
33292W        W76386   5.812  30.794  15.839  0.0252  0.0998  0.0920
33293W        W76387   6.479  29.479  16.873 -0.2390 -0.0233 -0.0788
33294W        W76388   2.518  33.747  17.224 -0.3864  0.4373  0.0976
33295W        W76389   6.202  28.908  18.265 -0.0702 -0.2813  0.1423
33296W        W76390   3.895  30.135  17.860  0.4804  0.0001  0.3469
33297W        W76391   5.824  30.002  19.775  0.3829 -0.0087  0.1412
33298W        W76392   5.129  32.064  18.968 -0.0110  0.1461 -0.1369
33299W        W76393   8.083  30.507  15.998  0.1501 -0.2833 -0.1444
33300W        W76394   6.122  29.867  16.621 -0.0847 -0.0260 -0.0421
33301W        W76395   4.252  31.653  15.875  0.0002  0.0421 -0.3411
33302W        W76396   6.003  29.561  17.118  0.1354  0.1184 -0.3651
33303W        W76397   4.027  31.142  18.878 -0.0102 -0.0693 -0.0367
33304W        W76398   3.310  31.887  19.541  0.1462 -0.0154  0.0670
33305W        W76399   5.889  32.030  20.134 -0.1238  0.0383  0.2581
33306W        W76400   5.329  31.702  17.352 -0.0106  0.1743  0.2443
33307W        W76401   4.063  30.119  19.578  0.1553 -0.3620 -0.1575
33308W        W76402   4.377  30.483  19.724  0.1340 -0.3852  0.0306
33309W        W76403   5.485  32.981  16.532  0.5111  0.1939  0.3375
33310W        W76404   4.579  32.065  16.169 -0.3214  0.0377 -0.1766
33311W        W76405   2.833  29.512  18.159  0.1826 -0.3688 -0.0489
33312W        W76406   6.917  32.759  16.953  0.1274 -0.0503  0.0604
33313W        W76407   4.214  31.452  16.876 -0.0630  0.1225 -0.0606
33314W        W76408   5.566  30.266  20.079  0.0331  0.0745 -0.0324
33315W        W76409   3.333  32.681  16.986 -0.1459  0.2245  0.1355
33316W        W76410   5.846  29.256  17.509 -0.0853 -0.2200  0.1926
33317W        W76411   3.618  33.289  18.214 -0.0876  0.1590  0.0776
33318W        W76412   5.349  30.893  16.049 -0.2358 -0.2817 -0.1669
33319W        W76413   3.774  31.691  16.648 -0.1183 -0.2534 -0.2126
33320W        W76414   6.876  31.104  17.620  0.0125 -0.0739  0.1131
33321W        W76415   6.557  32.406  16.030 -0.1191  0.1393 -0.2189
33322W        W76416   4.113  31.115  17.806 -0.2412 -0.1050 -0.1029
33323W        W76417   4.026  29.361  17.652  0.1915 -0.2586 -0.0815
33324W        W76418   4.324  32.670  17.996 -0.3079 -0.0980 -0.1201
33325W        W76419   5.179  29.511  20.518  0.0015 -0.1503 -0.1529
33326W        W76420   6.643  30.703  15.088 -0.3518 -0.2775  0.0195
33327W        W76421   5.718  29.550  18.471 -0.1616  0.1150 -0.0724
33328W        W76422   4.355  30.292  18.719  0.0656  0.2225 -0.5246
33329W        W76423   3.487  30.860  15.611  0.4825  0.0767  0.0673
33330W        W76424   7.403  30.267  17.440 -0.0300  0.0274 -0.1143
33331W        W76425   5.319  29.795  17.015 -0.0531 -0.0746  0.2353
33332W        W76426   4.346  31.545  17.798 -0.0832 -0.0757  0.4347
33333W        W76427   5.862  32.303  18.267 -0.0038 -0.0215  0.0532
33334W        W76428   3.729  31.823  16.089  0.1322  0.1269 -0.5918
33335W        W76429   5.076  31.853  17.941 -0.1144  0.1477 -0.1772
33336W        W76430   6.088  28.984  18.971 -0.0584 -0.3359  0.2867
33337W        W76431   6.085  30.277  18.524 -0.1132 -0.2685  0.0017
33338W        W76432   3.520  30.552  17.851  0.2092  0.2043 -0.2298
33339W        W76433   5.010  30.574  17.073  0.2788 -0.0033 -0.1855
33340W        W76434   5.966  30.495  17.260  0.2474  0.3257  0.0325
33341W        W76435   6.639  30.225  18.191  0.2347  0.0709  0.1127
33342W        W76436   5.211  29.862  17.909 -0.2386  0.0125 -0.1383
33343W        W76437   3.556  31.106  20.641  0.1246  0.0822 -0.0715
33344W        W76438   4.172  28.308  18.049  0.0912 -0.4039 -0.0004
33345W        W76439   7.964  31.775  16.724  0.0789 -0.1344 -0.0842
33346W        W76440   6.346  29.830  19.770  0.1663 -0.0160 -0.3436
33347W        W76441   3.445  32.009  16.454  0.0629  0.0867 -0.4172
33348W        W76442   1.781  30.873  17.462 -0.2823 -0.0496  0.1651
33349W        W76443   4.045  31.055  17.112  0.1597 -0.1618 -0.2612
33350W        W76444   4.830  29.855  18.804  0.0323 -0.1121 -0.0631
33351W        W76445   3.445  31.091  19.215  0.2855 -0.1069  0.1828
33352W        W76446   4.268  32.642  16.574 -0.1626 -0.0310  0.1195
33353W        W76447   3.127  32.761  17.477 -0.0580 -0.2687 -0.1580
33354W        W76448   6.469  28.655  16.369 -0.2480  0.0430  0.0830
33355W        W76449   5.937  32.533  16.109 -0.1223  0.0520 -0.1940
33356W        W76450   4.561  31.082  17.605 -0.0149 -0.1438 -0.1470
33357W        W76451   4.551  29.141  18.651 -0.0274 -0.1695  0.0633
33358W        W76452   6.291  31.636  15.559  0.0265  0.1401 -0.0186
33359W        W76453   6.737  30.016  16.989 -0.1341  0.2336 -0.1683
33360W        W76454   2.712  30.698  18.237 -0.4081 -0.1856 -0.1824
33361W        W76455   6.032  32.174  16.728 -0.0379 -0.1170 -0.1845
33362W        W76456   3.602  31.084  18.614  0.2176 -0.1232  0.1299
33363W        W76457   5.110  31.673  20.174  0.1609 -0.0010 -0.0726
33364W        W76458   4.848  31.242  18.915 -0.1740  0.3763  0.0914
33365W        W76459   5.364  28.911  16.882  0.2180 -0.3084  0.0518
33366W        W76460   5.812  30.877  16.326  0.0207 -0.0540 -0.2724
33367W        W76461   3.727  31.902  18.174 -0.1143 -0.1320 -0.4536
33368W        W76462   6.397  31.271  17.012  0.4040  0.3151 -0.1664
33369W        W76463   4.210  31.818  16.332  0.3220  0.0315  0.1225
33370W        W76464   6.956  30.940  16.564 -0.0455  0.2163  0.0577
33371W        W76465   5.352  31.230  18.893 -0.0201 -0.3767  0.0846
33372W        W76466   6.729  31.407  16.611 -0.0221  0.3540  0.0241
33373W        W76467   4.927  31.459  16.714  0.0277 -0.4218  0.0144
33374W        W76468   4.541  30.847  17.186 -0.0183 -0.2965  0.1197
33375W        W76469   3.972  31.072  18.319 -0.2504 -0.0849 -0.1730
33376W        W76470   5.426  31.180  16.520  0.0625 -0.4415 -0.4452
33377W        W76471   5.749  28.925  18.445 -0.0746 -0.0860 -0.1096
33378W        W76472   5.565  29.914  19.219 -0.5354 -0.0180 -0.0592
33379W        W76473   5.703  29.657  17.948 -0.1687  0.0379 -0.2179
33380W        W76474   3.850  30.539  19.779  0.0746  0.0525 -0.2314
33381W        W76475   4.060  29.318  19.445 -0.2786 -0.0495  0.0088
33382W        W76476   6.366  33.482  17.626  0.2581  0.2321 -0.0599
33383W        W76477   7.591  30.280  16.130 -0.3581 -0.2775  0.2675
33384W        W76478   7.015  29.124  18.592  0.1379  0.0181  0.0372
33385W        W76479   5.925  31.179  16.730 -0.0442  0.1286 -0.1413
33386W        W76480   5.085  29.919  16.522 -0.1228 -0.1844  0.0080
33387W        W76481   3.269  30.423  17.171 -0.1554 -0.1905 -0.2771
33388W        W76482   5.680  30.996  20.640  0.1747 -0.1804  0.1837
33389W        W76483   4.080  29.736  16.803 -0.5619  0.1864 -0.0317
33390W        W76484   5.476  29.612  19.619  0.1056 -0.0627 -0.2192
33391W        W76485   4.987  33.090  16.294 -0.1540  0.2358  0.0898
33392W        W76486   4.780  31.533  17.538  0.1804  0.2072 -0.0070
33393W        W76487   4.655  31.322  17.140  0.1161  0.1844  0.0289
33394W        W76488   2.748  32.004  17.978  0.0985 -0.0491  0.1204
33395W        W76489   4.865  31.601  19.712 -0.3892  0.0340 -0.0183
33396W        W76490   4.538  30.462  15.835 -0.1815 -0.0079 -0.0774
33397W        W76491   3.592  30.837  17.084 -0.1215  0.1915  0.3014
33398W        W76492   5.856  30.810  18.634  0.1729  0.1676  0.2757
33399W        W76493   6.532  29.008  19.309  0.0168 -0.1095  0.2724
33400W        W76494   5.916  29.455  15.565  0.0165  0.2010 -0.3689
33401W        W76495   6.528  28.993  18.768  0.0163  0.1147 -0.2529
33402W        W76496   3.523  32.305  16.074  0.0521 -0.4254 -0.3231
33403W        W76497   4.669  29.239  17.065  0.0223 -0.1359 -0.2625
33404W        W76498   4.356  32.287  19.558  0.0244 -0.0345 -0.1256
33405W        W76499   3.103  31.427  20.294 -0.1381  0.3210 -0.1041
33406W        W76500   3.392  33.254  17.331  0.2386 -0.2673  0.2209
33407W        W76501   5.228  30.242  19.143  0.4335  0.1597 -0.0446
33408W        W76502   5.424  30.311  17.267 -0.1808 -0.4099 -0.1778
33409W        W76503   5.618  30.425  17.801 -0.3256  0.1389  0.4041
33410W        W76504   6.179  28.593  18.688 -0.0203  0.0906 -0.2176
33411W        W76505   5.311  30.170  19.657  0.2302  0.1581 -0.0565
33412W        W76506   2.239  30.702  17.342 -0.2822 -0.1978 -0.0912
33413W        W76507   4.323  29.648  17.945  0.1380  0.1391 -0.1939
33414W        W76508   7.603  30.504  17.032 -0.2279 -0.4356  0.2277
33415W        W76509   4.917  30.879  18.156  0.0049 -0.1280 -0.0474
33416W        W76510   3.483  30.456  19.423 -0.3705 -0.0238  0.0332
33417W        W76511   4.505  30.668  21.583  0.0760  0.0503 -0.2867
33418W        W76512   5.795  31.362  18.529  0.0098 -0.0470 -0.5404
33419W        W76513   3.794  28.169  17.209  0.3157 -0.0690  0.0509
33420W        W76514   6.219  32.592  15.663 -0.3767  0.0697 -0.2153
33421W        W76515   4.670  31.642  19.232 -0.0339  0.3963 -0.1461
33422W        W76516   4.485  31.905  18.664  0.0026 -0.0676  0.2517
33423W        W76517   2.764  33.196  16.341 -0.0784  0.0441  0.3948
33424W        W76518   6.614  31.874  16.081  0.1867 -0.0474 -0.1733
33425W        W76519   4.906  31.768  17.103  0.1307  0.0592  0.1614
33426W        W76520   6.201  31.814  18.268 -0.2583  0.0312  0.1715
33427W        W76521   5.089  30.071  15.721 -0.0173 -0.0611  0.0868
33428W        W76522   2.609  32.078  18.433 -0.2220  0.1056 -0.0605
33429W        W76523   2.574  31.542  17.748  0.1864  0.3397  0.0497
33430W        W76524   4.688  32.700  16.277  0.0545 -0.1112 -0.4300
33431W        W76525   3.995  33.621  18.409  0.1557 -0.1101 -0.1460
33432W        W76526   7.241  30.148  19.275 -0.4562  0.0255 -0.1542
33433W        W76527   5.868  29.818  16.113  0.2364  0.0177  0.0807
33434W        W76528   6.652  29.141  16.400 -0.1117 -0.0601 -0.0611
33435W        W76529   7.865  29.269  16.977  0.0799 -0.0089  0.1710
33436W        W76530   6.224  30.318  19.539 -0.2136 -0.2115 -0.2984
33437W        W76531   3.203  30.398  18.280 -0.0215 -0.2170  0.3382
33438W        W76532   7.098  29.137  15.755  0.0440  0.1470 -0.1425
33439W        W76533   2.999  29.930  18.940  0.2228  0.2992  0.2019
33440W        W76534   5.850  28.833  19.337 -0.1380 -0.4593 -0.1940
33441W        W76535   3.683  32.007  19.149  0.3972 -0.0463 -0.3818
33442W        W76536   5.653  32.296  16.423  0.0357  0.2807 -0.0157
33443W        W76537   4.255  30.207  17.168  0.1981  0.0825 -0.0702
33444W        W76538   3.648  30.658  18.304 -0.0518 -0.1621 -0.1058
33445W        W76539   5.972  27.906  18.697  0.1153  0.0999  0.0078
33446W        W76540   4.683  32.312  16.721 -0.0180 -0.2744 -0.1982
33447W        W76541   6.256  30.522  16.447  0.2742  0.1212 -0.1044
33448W        W76542   4.453  33.158  17.821  0.0736  0.0984  0.0784
33449W        W76543   4.210  31.660  19.042 -0.1609  0.2106  0.0034
33450W        W76544   4.605  30.604  17.941  0.1926 -0.1500 -0.0722
33451W        W76545   3.571  31.320  16.862 -0.0218 -0.0605 -0.1635
33452W        W76546   5.854  30.989  17.807 -0.0164  0.0540 -0.0287
33453W        W76547   3.852  29.784  19.249 -0.1998  0.1000  0.0740
33454W        W76548   6.926  30.100  17.440 -0.2609 -0.2331  0.1075
33455W        W76549   3.814  31.575  17.777 -0.0950  0.2098  0.2286
33456W        W76550   6.715  30.371  16.192  0.3692  0.3100 -0.0035
33457W        W76551   4.193  30.592  20.697  0.2127  0.0671  0.2478
33458W        W76552   4.726  30.476  18.392  0.2362 -0.2609 -0.0889
33459W        W76553   5.953  31.293  15.598 -0.0861  0.4015 -0.3766
33460W        W76554   6.716  30.515  19.176 -0.3005  0.0689 -0.1598
33461W        W76555   5.480  31.155  15.604  0.1753 -0.0133  0.2616
33462W        W76556   6.951  31.576  18.376 -0.0313  0.1898  0.0210
33463W        W76557   4.633  30.405  17.425 -0.0690 -0.0613 -0.1930
33464W        W76558   4.528  29.363  17.554 -0.3212  0.0191 -0.0598
33465W        W76559   4.383  30.181  17.822  0.0767 -0.0076 -0.0452
33466W        W76560   3.191  31.299  18.712  0.1101 -0.0792 -0.3391
33467W        W76561   6.207  31.158  18.763  0.0385 -0.1049 -0.3633
33468W        W76562   3.099  30.707  15.897  0.0236  0.0545 -0.0915
33469W        W76563   5.374  32.007  16.034 -0.1278  0.2477  0.0195
33470W        W76564   6.114  29.493  18.159 -0.1468  0.0754  0.1249
33471W        W76565   5.475  33.597  15.402 -0.1280 -0.0045  0.0006
33472W        W76566   5.288  31.529  15.904 -0.1497 -0.2076 -0.2170
33473W        W76567   6.557  30.680  18.389  0.3302 -0.3464  0.1189
33474W        W76568   3.529  31.202  18.032 -0.2262 -0.0763  0.0057
33475W        W76569   7.349  31.329  17.387 -0.1633 -0.3069 -0.1005
33476W        W76570   6.704  30.454  16.716  0.1064 -0.1470  0.1457
33477W        W76571   5.559  29.792  15.705  0.4721  0.0377  0.0895
33478W        W76572   4.057  32.004  17.818  0.1686  0.2724 -0.1437
33479W        W76573   3.549  31.953  17.599  0.2024  0.1810 -0.3726
33480W        W76574   7.056  30.441  17.931 -0.4847  0.1193 -0.3247
33481W        W76575   6.781  29.384  17.881  0.0232  0.0033 -0.0947
33482W        W76576   5.862  32.401  17.237 -0.0165  0.0428  0.1845
33483W        W76577   6.080  29.148  20.270  0.0082 -0.1657 -0.0277
33484W        W76578   5.197  31.625  19.205 -0.2445  0.1324 -0.1447
33485W        W76579   5.469  31.010  19.317  0.0403  0.5974 -0.0425
33486W        W76580   3.685  31.279  15.843  0.2516 -0.0211  0.0426
33487W        W76581   4.134  30.914  19.629  0.0375  0.0271 -0.0070
33488W        W76582   4.348  30.904  16.709 -0.2607  0.0139 -0.0056
33489W        W76583   5.157  32.562  16.507 -0.0964 -0.2580  0.0248
33490W        W76584   5.962  32.856  17.462  0.2501  0.0852  0.1165
33491W        W76585   4.135  31.583  18.289  0.1782  0.3390  0.1432
33492W        W76586   5.496  31.488  16.895 -0.2946  0.1007  0.0241
33493W        W76587   5.017  29.569  17.370 -0.0665  0.0004  0.0269
33494W        W76588   8.368  31.711  16.350 -0.2887  0.1154 -0.0050
33495W        W76589   6.238  30.786  16.924 -0.0638 -0.0438  0.1932
33496W        W76590   5.079  30.966  20.613  0.3470  0.0640  0.2481
33497W        W76591   3.169  31.248  15.936  0.0694 -0.1822  0.0895
33498W        W76592   5.628  30.794  16.843 -0.2451  0.1026 -0.0397
33499W        W76593   5.258  30.339  18.657  0.1512  0.2363 -0.1556
33500W        W76594   4.760  28.972  19.032 -0.0165 -0.2832  0.2687
33501W        W76595   3.941  30.554  18.711 -0.2166 -0.0468  0.1165
33502W        W76596   3.170  30.842  18.504  0.1389  0.0844  0.3239
33503W        W76597   5.166  27.968  17.059 -0.2882 -0.0875 -0.2158
33504W        W76598   6.496  32.851  15.981  0.3574 -0.2078 -0.4291
33505W        W76599   2.648  29.498  17.548  0.3625 -0.2555 -0.0772
33506W        W76600   3.371  29.965  17.466  0.1100  0.2708 -0.2938
33507W        W76601   6.809  32.706  16.471  0.1242  0.0160 -0.0483
33508W        W76602   6.096  31.477  17.946 -0.0120 -0.0266  0.0411
33509W        W76603   5.089  30.430  17.631 -0.1379 -0.0314  0.1619
33510W        W76604   6.336  30.643  18.815 -0.1052 -0.0431  0.2067
33511W        W76605   2.306  31.589  17.340  0.2014 -0.0371 -0.1129
33512W        W76606   4.133  30.187  20.083  0.0073  0.0193 -0.1824
33513W        W76607   4.157  30.621  17.428 -0.2375 -0.1138  0.2156
33514W        W76608   3.725  30.175  18.350  0.2152 -0.0758 -0.1873
33515W        W76609   6.575  30.515  17.790 -0.0745 -0.2796 -0.1968
33516W        W76610   4.535  31.812  16.692  0.0473 -0.0625  0.1876
33517W        W76611   5.259  33.486  16.408 -0.0364 -0.1973  0.1428
33518W        W76612   5.062  31.174  20.054 -0.0268  0.1222 -0.1141
33519W        W76613   4.077  34.185  19.224  0.0570 -0.1350  0.2789
33520W        W76614   2.133  29.021  19.387 -0.6064  0.1075  0.1289
33521W        W76615   6.335  31.479  16.189 -0.0987  0.0256 -0.1969
33522W        W76616   4.786  30.363  18.987  0.1628  0.3075  0.0215
33523W        W76617   6.836  31.617  15.653  0.0372  0.0644 -0.0898
33524W        W76618   6.128  28.251  18.254  0.0630  0.2226  0.0352
33525W        W76619   5.607  32.112  16.948  0.1838  0.0425  0.1946
33526W        W76620   3.355  29.185  20.171  0.2891  0.1350  0.0965
33527W        W76621   3.882  31.566  20.347  0.4311  0.1244 -0.1530
33528W        W76622   6.965  31.702  18.932  0.1211  0.0414 -0.0779
33529W        W76623   4.455  29.433  16.627 -0.0792 -0.0746  0.0666
33530W        W76624   5.547  30.792  17.326 -0.0257 -0.0610  0.0412
33531W        W76625   5.767  32.327  15.690 -0.0838  0.0390  0.1568
33532W        W76626   3.588  30.972  19.703  0.2907 -0.1134  0.2305
33533W        W76627   5.599  29.827  16.565 -0.0298 -0.0657 -0.0052
33534W        W76628   4.985  29.798  19.333 -0.0530 -0.0642  0.2214
33535W        W76629   4.407  31.916  17.211 -0.0297  0.1697 -0.0679
33536W        W76630   6.118  31.657  18.885  0.1028 -0.0605 -0.1332
33537W        W76631   6.729  30.854  17.013 -0.0059  0.0319 -0.0239
33538W        W76632   6.440  31.536  17.476 -0.1495  0.0682 -0.1760
33539W        W76633   5.007  31.187  19.389 -0.0741  0.2626  0.2027
33540W        W76634   7.159  32.157  19.107  0.0202 -0.3941 -0.3796
33541W        W76635   4.283  32.902  17.026 -0.0808 -0.0897 -0.0648
33542W        W76636   7.420  30.896  18.076  0.0576 -0.2038 -0.2709
33543W        W76637   2.307  29.395  17.984 -0.0169 -0.0675  0.0725
33544W        W76638   4.582  32.256  15.717  0.2092  0.1863 -0.0644
33545W        W76639   4.056  30.611  17.886 -0.2664  0.1104  0.0539
33546W        W76640   5.607  28.553  18.039  0.2883  0.1414  0.1771
33547W        W76641   4.712  30.825  16.237  0.0804  0.1967  0.0424
33548W        W76642   7.422  29.187  16.201 -0.1980  0.1991 -0.1111
33549W        W76643   4.580  34.282  17.964 -0.1462 -0.1787  0.1247
33550W        W76644   5.314  30.829  17.929 -0.3482  0.3436 -0.0505
33551W        W76645   4.528  31.118  24.102  0.0661  0.1312 -0.0021
33552W        W76646   3.888  30.237  20.950 -0.0979  0.0105 -0.1248
33553W        W76647   5.684  28.848  20.031 -0.2214 -0.0427 -0.0713
33554W        W76648   6.663  29.652  19.495  0.0749  0.1137  0.0171
33555W        W76649   2.303  30.591  21.069  0.0089 -0.0027 -0.0640
33556W        W76650   7.647  32.615  22.608 -0.0802 -0.3352  0.3024
33557W        W76651   5.054  29.870  22.967  0.0287 -0.0166  0.1800
33558W        W76652   5.744  32.738  21.142  0.0882  0.0737 -0.0774
33559W        W76653   6.040  32.590  23.058  0.0928 -0.0123 -0.0110
33560W        W76654   4.194  31.036  21.708 -0.0394 -0.3212 -0.1994
33561W        W76655   4.303  29.010  21.487 -0.1729 -0.0309 -0.1964
33562W        W76656   6.143  30.746  21.391 -0.0841 -0.1755 -0.1232
33563W        W76657   4.246  29.403  20.419 -0.0403 -0.0215 -0.2576
33564W        W76658   2.472  30.279  21.998 -0.0388  0.0024  0.0032
33565W        W76659   6.635  30.856  21.767  0.0065 -0.2282 -0.0992
33566W        W76660   3.384  31.329  21.239  0.0865  0.0773  0.1885
33567W        W76661   4.378  30.187  22.490 -0.2004 -0.1393 -0.2558
33568W        W76662   4.457  29.812  20.190 -0.2730  0.1350 -0.0092
33569W        W76663   5.737  31.933  20.753 -0.1338 -0.0900 -0.1441
33570W        W76664   4.898  30.023  21.627  0.0693 -0.1578 -0.2120
33571W        W76665   5.754  28.969  24.372  0.0678 -0.0748 -0.1225
33572W        W76666   5.440  32.167  21.103  0.4789 -0.0743 -0.2242
33573W        W76667   2.929  30.293  17.808  0.2161  0.2435  0.1824
33574W        W76668   2.788  30.469  22.329 -0.0164  0.1209 -0.1685
33575W        W76669   6.097  29.002  22.222 -0.0531  0.0789 -0.0554
33576W        W76670   6.117  28.127  22.045 -0.2290 -0.0130 -0.0836
33577W        W76671   7.732  29.652  21.902  0.0263 -0.0905  0.0457
33578W        W76672   5.230  32.447  23.265 -0.1612 -0.0136  0.1112
33579W        W76673   5.792  30.641  22.395 -0.0368 -0.0875  0.1659
33580W        W76674   6.741  30.650  23.379  0.2124 -0.0205 -0.0714
33581W        W76675   2.664  30.932  21.086 -0.0143 -0.0125 -0.0794
33582W        W76676   4.432  32.523  22.284 -0.3436 -0.1842 -0.0345
33583W        W76677   5.503  30.066  20.588 -0.1443 -0.1459  0.1229
33584W        W76678   6.939  30.874  20.056 -0.1083 -0.0733  0.0737
33585W        W76679   7.468  30.933  22.031 -0.2157 -0.1355  0.0788
33586W        W76680   6.012  32.093  23.787  0.0973  0.1214 -0.3402
33587W        W76681   4.082  31.077  20.593  0.3324 -0.1850 -0.2213
33588W        W76682   4.617  32.062  22.446 -0.0098 -0.2834  0.0666
33589W        W76683   5.646  32.477  22.173  0.2528 -0.2559  0.0884
33590W        W76684   5.977  28.463  21.700  0.0356 -0.1629  0.2172
33591W        W76685   5.575  31.453  21.004  0.2824  0.1366 -0.1481
33592W        W76686   5.659  32.971  18.200 -0.0374 -0.0833 -0.2187
33593W        W76687   6.047  30.161  21.469  0.2639  0.0791  0.4425
33594W        W76688   4.083  30.364  24.558  0.1444 -0.3512 -0.0740
33595W        W76689   5.060  31.082  21.640  0.2054 -0.2552 -0.0625
33596W        W76690   7.704  29.178  22.004  0.3782  0.0233 -0.0331
33597W        W76691   4.641  30.823  19.391 -0.0717  0.2058 -0.0891
33598W        W76692   6.796  29.581  20.397  0.0549 -0.0682  0.0046
33599W        W76693   4.463  29.791  19.588  0.3365 -0.1077  0.0764
33600W        W76694   6.644  28.773  20.927 -0.0397 -0.1979  0.1076
33601W        W76695   5.396  29.130  20.885 -0.3706  0.3066 -0.2665
33602W        W76696   5.874  32.100  22.969 -0.3210 -0.2682 -0.2078
33603W        W76697   4.633  29.280  21.111  0.5332 -0.0075 -0.1118
33604W        W76698   6.880  31.877  23.110  0.1012  0.4366 -0.1551
33605W        W76699   4.320  30.211  21.664  0.3768  0.1079  0.0773
33606W        W76700   6.469  29.911  23.014 -0.1108  0.1413 -0.1686
33607W        W76701   4.724  32.217  23.489 -0.0992 -0.0663 -0.0220
33608W        W76702   3.302  30.198  20.934 -0.1370  0.1432 -0.1168
33609W        W76703   5.584  31.337  18.068 -0.2497  0.0919  0.2090
33610W        W76704   6.964  31.827  19.694  0.3057  0.2268  0.1286
33611W        W76705   5.571  31.719  20.326  0.0747  0.1378  0.0321
33612W        W76706   2.813  29.389  21.231  0.1987 -0.0152 -0.1076
33613W        W76707   4.207  30.768  22.682  0.0674 -0.0625 -0.1588
33614W        W76708   5.525  30.934  21.945  0.2656  0.1003 -0.2655
33615W        W76709   4.922  29.432  17.907  0.0677 -0.3463  0.0956
33616W        W76710   6.135  32.335  24.281 -0.0132 -0.1640 -0.1737
33617W        W76711   4.563  31.632  22.811 -0.3276  0.5039  0.1050
33618W        W76712   7.619  29.556  21.377 -0.0292  0.1670 -0.0185
33619W        W76713   4.696  30.516  22.755  0.0805  0.0820 -0.1322
33620W        W76714   6.750  31.718  22.605  0.1063  0.1124 -0.0130
33621W        W76715   7.090  30.786  18.896 -0.0889 -0.2135 -0.2871
33622W        W76716   5.789  28.088  22.772 -0.1330 -0.2177  0.0117
33623W        W76717   5.697  29.072  21.910 -0.2610  0.1572  0.3017
33624W        W76718   4.295  30.677  20.219 -0.1063 -0.3643  0.0851
33625W        W76719   5.850  32.460  19.488 -0.0084 -0.2583  0.5520
33626W        W76720   7.515  31.616  23.310 -0.0767 -0.1436 -0.2018
33627W        W76721   6.023  30.279  19.008  0.0517  0.1604 -0.3813
33628W        W76722   4.625  31.197  21.946  0.0277 -0.2381  0.1070
33629W        W76723   5.592  30.348  24.483 -0.0052 -0.2508  0.3601
33630W        W76724   6.128  31.464  21.928 -0.0723 -0.1621  0.0148
33631W        W76725   4.102  31.101  20.081  0.1687  0.0836 -0.2565
33632W        W76726   2.820  30.747  21.871  0.0667  0.3037  0.0175
33633W        W76727   4.340  32.186  20.384 -0.0314  0.1206  0.1124
33634W        W76728   2.705  29.849  20.314  0.1346  0.0240  0.0524
33635W        W76729   5.394  29.922  22.528  0.0565  0.1672 -0.4275
33636W        W76730   7.421  28.818  20.489 -0.2256  0.3185  0.0308
33637W        W76731   3.050  30.193  21.449  0.0407 -0.0087  0.0945
33638W        W76732   6.335  29.125  20.706 -0.1483  0.1453  0.0908
33639W        W76733   3.657  30.993  21.471  0.0882 -0.1130 -0.0937
33640W        W76734   6.248  31.762  20.279 -0.0727 -0.1133  0.2210
33641W        W76735   6.938  30.298  21.156 -0.0148  0.2306 -0.0163
33642W        W76736   5.859  29.630  20.570 -0.1671  0.0437 -0.0516
33643W        W76737   3.020  30.289  21.992 -0.1969  0.2370  0.2206
33644W        W76738   3.676  29.734  20.951  0.0933 -0.0791 -0.3338
33645W        W76739   4.814  29.790  22.493 -0.1281 -0.1449  0.1385
33646W        W76740   3.642  28.912  22.230  0.0775  0.1196  0.0380
33647W        W76741   7.531  29.731  22.732 -0.0329 -0.0290 -0.2528
33648W        W76742   3.875  29.241  20.071 -0.0577  0.0041  0.0338
33649W        W76743   7.136  30.798  21.711  0.0874 -0.0909  0.3609
33650W        W76744   5.515  32.083  21.640 -0.1940  0.1288 -0.0059
33651W        W76745   2.782  31.948  21.394  0.0904 -0.0200  0.2803
33652W        W76746   7.220  29.473  23.105 -0.0154  0.0741 -0.2028
33653W        W76747   5.086  32.180  19.850  0.1606  0.1972  0.1509
33654W        W76748   7.815  32.188  22.501  0.1588  0.0558 -0.0801
33655W        W76749   6.805  32.472  21.230 -0.2353  0.3313 -0.0147
33656W        W76750   4.738  29.418  21.645 -0.1861  0.1375 -0.0400
33657W        W76751   2.841  30.277  21.021  0.0311 -0.0145  0.3911
33658W        W76752   4.485  31.983  21.525  0.2680  0.0823  0.1193
33659W        W76753   5.447  31.614  21.434 -0.3419 -0.1364  0.1353
33660W        W76754   3.632  29.409  20.494  0.2179  0.0536 -0.4006
33661W        W76755   6.658  31.751  21.183  0.1551  0.1985 -0.0025
33662W        W76756   5.888  31.421  20.003  0.0647  0.1238 -0.3953
33663W        W76757   5.530  31.097  22.412  0.1141  0.4004 -0.2327
33664W        W76758   5.911  29.382  24.032  0.1490  0.0667  0.0811
33665W        W76759   7.798  30.164  21.873  0.2833  0.2251 -0.1153
33666W        W76760   6.907  30.309  22.497  0.0831 -0.1381 -0.0455
33667W        W76761   3.338  29.707  20.265  0.0248  0.2675  0.1674
33668W        W76762   7.056  32.100  20.978  0.0374 -0.3540  0.1650
33669W        W76763   4.131  31.965  20.081  0.1349  0.1256  0.1793
33670W        W76764   4.128  31.538  22.519  0.0980 -0.0139  0.3516
33671W        W76765   6.637  32.084  20.008 -0.6257 -0.4053  0.1237
33672W        W76766   8.052  29.316  21.578  0.1315 -0.4505 -0.0992
33673W        W76767   4.734  30.459  24.428  0.1330 -0.1424  0.0256
33674W        W76768   4.437  30.248  23.594 -0.3723  0.0101 -0.3384
33675W        W76769   2.812  30.467  20.463 -0.2002  0.0608  0.0391
33676W        W76770   4.080  31.467  24.040  0.1799  0.0246 -0.0832
33677W        W76771   4.422  29.384  19.897 -0.0335  0.1058 -0.0557
33678W        W76772   7.336  30.371  21.484  0.2362 -0.0817  0.2017
33679W        W76773   6.178  30.686  23.377 -0.0769  0.1852 -0.1336
33680W        W76774   5.322  30.498  20.858  0.0985  0.0935  0.0142
33681W        W76775   4.793  30.804  19.871 -0.0564  0.2227 -0.0077
33682W        W76776   4.975  29.305  19.647 -0.1820 -0.0398 -0.1278
33683W        W76777   3.966  30.980  23.975  0.1916 -0.1406 -0.2455
33684W        W76778   6.305  32.153  21.098  0.0739 -0.0292  0.0316
33685W        W76779   6.062  31.062  22.296 -0.1967  0.1922 -0.2972
33686W        W76780   5.438  29.128  19.670  0.3458 -0.0862  0.1331
33687W        W76781   7.469  31.790  20.516  0.2227 -0.1293 -0.1077
33688W        W76782   4.902  30.815  23.125 -0.0101 -0.0606 -0.2671
33689W        W76783   6.316  31.846  24.472  0.2689 -0.1048  0.0255
33690W        W76784   7.001  32.316  19.738  0.0946  0.0773 -0.0676
33691W        W76785   4.885  28.921  21.535  0.2421 -0.1950 -0.0475
33692W        W76786   4.663  28.696  21.130 -0.0162  0.0552 -0.1404
33693W        W76787   4.387  28.977  20.688  0.1572 -0.3608 -0.0453
33694W        W76788   3.034  32.448  20.693 -0.1349 -0.2301  0.3018
33695W        W76789   6.898  30.401  21.804 -0.1030  0.0664 -0.0005
33696W        W76790   6.803  28.884  21.380  0.1342 -0.0865  0.0574
33697W        W76791   5.742  30.730  23.675 -0.0483  0.1314 -0.0392
33698W        W76792   6.967  31.444  24.856  0.0230  0.0155 -0.0284
33699W        W76793   7.035  30.088  20.534  0.1308 -0.1447  0.3160
33700W        W76794   6.392  29.977  21.823 -0.0980 -0.0971  0.1521
33701W        W76795   3.774  30.763  20.321 -0.1322  0.1739  0.1076
33702W        W76796   4.882  29.620  24.859  0.0070  0.0462  0.1797
33703W        W76797   3.921  30.298  23.489  0.2001  0.2704  0.0143
33704W        W76798   4.964  31.310  23.310  0.1826 -0.0002  0.3942
33705W        W76799   7.304  31.159  23.698  0.1141  0.1455  0.3209
33706W        W76800   6.160  31.677  20.993  0.0785  0.1826 -0.0779
33707W        W76801   5.185  29.217  24.664  0.0664  0.0033 -0.2798
33708W        W76802   4.724  28.682  20.002 -0.0321  0.0944  0.1934
33709W        W76803   4.451  31.278  19.714 -0.2354 -0.0974 -0.0500
33710W        W76804   6.616  31.985  19.271  0.1345  0.2993 -0.3028
33711W        W76805   5.072  30.588  21.896 -0.0017  0.2260  0.1061
33712W        W76806   5.387  32.012  22.137 -0.0015  0.0627 -0.0281
33713W        W76807   4.789  31.924  20.549 -0.0244  0.1161 -0.2166
33714W        W76808   6.178  30.355  23.922 -0.1176 -0.1290  0.1746
33715W        W76809   5.944  31.468  20.544 -0.1366 -0.0538  0.0203
33716W        W76810   6.636  29.456  22.447  0.1973 -0.1484  0.1759
33717W        W76811   4.924  32.046  21.958 -0.2661 -0.2658 -0.0516
33718W        W76812   4.117  30.525  21.230 -0.2720 -0.0792 -0.1044
33719W        W76813   4.011  30.316  22.950  0.1364  0.2460 -0.2521
33720W        W76814   6.794  29.865  20.004 -0.0844  0.1636  0.1344
33721W        W76815   5.168  30.967  21.125 -0.1960  0.2656  0.0925
33722W        W76816   4.992  30.210  22.430  0.0261  0.0585  0.0590
33723W        W76817   6.386  29.638  21.361 -0.1164  0.0599 -0.0289
33724W        W76818   4.404  31.501  21.571 -0.3496  0.0317 -0.1808
33725W        W76819   5.878  31.159  23.819 -0.1345  0.1888  0.0933
33726W        W76820   5.581  29.217  20.331  0.1026  0.1511  0.0214
33727W        W76821   6.229  30.447  22.477  0.0707  0.2035  0.1139
33728W        W76822   5.099  31.243  23.806 -0.2896  0.2251 -0.1315
33729W        W76823   3.966  29.933  18.746  0.0507 -0.1474  0.0625
33730W        W76824   7.464  30.009  22.289  0.2190  0.2446  0.0858
33731W        W76825   4.722  30.271  22.002  0.2365 -0.1792  0.2150
33732W        W76826   5.332  31.366  20.557  0.0820 -0.2926 -0.1359
33733W        W76827   6.370  31.266  22.630 -0.0770  0.2296  0.2797
33734W        W76828   3.573  31.011  22.466  0.1214  0.0057  0.2243
33735W        W76829   4.610  31.118  21.360  0.2445  0.0642 -0.2668
33736W        W76830   5.274  29.950  24.109  0.0542 -0.2677  0.2587
33737W        W76831   6.474  31.148  21.260  0.0638  0.0607  0.3690
33738W        W76832   5.803  29.820  21.745  0.0055 -0.1886 -0.0493
33739W        W76833   4.074  29.881  20.630 -0.2659  0.0721  0.4286
33740W        W76834   6.213  31.001  20.036 -0.1619 -0.0328 -0.1754
33741W        W76835   6.626  31.434  21.717 -0.0892 -0.3904  0.0570
33742W        W76836   5.897  29.749  22.776  0.0923  0.1559  0.1161
33743W        W76837   4.058  29.357  23.469 -0.1695 -0.1139  0.2006
33744W        W76838   5.881  28.899  21.384 -0.0261 -0.4002  0.1132
33745W        W76839   7.387  30.929  19.858  0.0767  0.1125 -0.0595
33746W        W76840   7.981  30.758  23.173 -0.2882  0.0900  0.1144
33747W        W76841   5.672  30.146  21.112 -0.1804 -0.1423  0.0301
33748W        W76842   4.628  31.486  22.343 -0.2545 -0.0055 -0.0122
33749W        W76843   4.587  30.922  20.894  0.1783  0.0405  0.0140
33750W        W76844   5.379  30.852  23.950 -0.1564  0.1627 -0.0276
33751W        W76845   4.287  30.760  23.606 -0.0050 -0.2064  0.0832
33752W        W76846   4.816  32.988  20.281  0.2641 -0.0290  0.2963
33753W        W76847   3.675  31.510  22.145  0.0789 -0.0129  0.0071
33754W        W76848   7.260  29.382  21.112 -0.0260 -0.3522  0.4009
33755W        W76849   4.746  30.490  20.589  0.1056 -0.0995  0.1349
33756W        W76850   5.949  29.738  21.156 -0.2015  0.2623 -0.0639
33757W        W76851   7.952  31.098  21.858  0.0657  0.2936  0.2112
33758W        W76852   6.331  32.708  19.455  0.0820  0.1910  0.0097
33759W        W76853   6.034  29.829  23.821 -0.2032  0.0109 -0.4388
33760W        W76854   4.666  29.364  22.176 -0.0997  0.0382 -0.2336
33761W        W76855   7.020  31.237  21.969 -0.2294  0.1265  0.0010
33762W        W76856   5.072  30.866  22.675 -0.2887 -0.0992  0.0352
33763W        W76857   6.310  33.225  23.587  0.1932  0.0484 -0.0239
33764W        W76858   5.374  30.172  22.128  0.0803  0.1633  0.1783
33765W        W76859   3.731  30.035  21.358  0.0598  0.1236  0.1356
33766W        W76860   4.433  29.996  19.136 -0.1568 -0.0067  0.0232
33767W        W76861   5.632  30.706  23.202  0.0475  0.3399  0.1837
33768W        W76862   6.809  30.753  21.307 -0.2318 -0.0005  0.1258
33769W        W76863   5.859  31.776  22.078  0.1610 -0.4220  0.0633
33770W        W76864   6.433  30.176  21.149  0.1877  0.3710  0.0523
33771W        W76865   5.147  31.439  22.744  0.2090  0.2466 -0.2090
33772W        W76866   6.412  29.383  19.930 -0.4677  0.0118 -0.0573
33773W        W76867   5.063  31.132  22.202 -0.1629  0.1834 -0.0848
33774W        W76868   3.928  29.764  21.802 -0.0159  0.0546  0.1805
33775W        W76869   4.820  29.944  24.370 -0.3144 -0.1643  0.0738
33776W        W76870   7.061  30.652  20.673 -0.1801  0.0175 -0.0239
33777W        W76871   5.501  29.658  20.941 -0.1331  0.1105 -0.3170
33778W        W76872   5.337  28.968  21.314 -0.3461 -0.1521  0.0114
33779W        W76873   6.794  29.813  23.370 -0.2663 -0.1636  0.0251
33780W        W76874   4.954  30.875  24.294  0.2496 -0.0725  0.0096
33781W        W76875   4.739  29.946  23.361  0.0452  0.0845 -0.0228
33782W        W76876   6.580  32.163  22.451 -0.0110 -0.0666 -0.2819
33783W        W76877   5.897  29.643  18.930 -0.0438  0.0256  0.0822
33784W        W76878   7.340  29.500  22.300  0.2234  0.2441  0.1351
33785W        W76879   5.811  31.897  19.687  0.0544  0.3652  0.0884
33786W        W76880   4.164  29.505  18.976  0.1962  0.1831  0.0495
33787W        W76881   4.040  28.569  21.407 -0.1175  0.3711  0.2180
33788W        W76882   7.559  31.674  24.500  0.2586 -0.1908 -0.0870
33789W        W76883   3.456  29.820  18.543  0.1302  0.3329  0.1490
33790W        W76884   5.537  30.883  24.419  0.0441  0.1841  0.0644
33791W        W76885   6.711  30.168  19.612  0.1369  0.0852  0.1181
33792W        W76886   5.879  29.142  20.857 -0.0352  0.0569 -0.1391
33793W        W76887   6.834  29.410  21.380 -0.0152  0.0209  0.0111
33794W        W76888   4.071  30.125  22.110 -0.1666 -0.2561 -0.2758
33795W        W76889   5.388  32.437  22.777  0.0619 -0.0120 -0.0391
33796W        W76890   5.603  30.928  20.164 -0.1340  0.1016 -0.0140
33797W        W76891   4.650  32.628  20.625  0.0598  0.0231  0.1506
33798W        W76892   6.005  30.544  21.947  0.2441  0.1584  0.0576
33799W        W76893   6.456  31.712  23.438  0.2487 -0.0761  0.0143
33800W        W76894   6.151  27.849  22.500  0.0411  0.0978 -0.0407
33801W        W76895   6.895  29.874  22.173 -0.1529 -0.2298 -0.0256
33802W        W76896   4.123  31.435  21.979 -0.2850 -0.3985  0.1036
33803W        W76897   5.744  28.508  22.416  0.0217  0.1731 -0.0225
33804W        W76898   5.191  32.424  24.324 -0.1843  0.2398 -0.0658
33805W        W76899   4.609  31.430  23.735 -0.0872  0.0825 -0.0994
33806W        W76900   5.084  31.447  21.018  0.0617 -0.1113  0.1747
33807W        W76901   5.697  29.199  22.446 -0.0709 -0.0289  0.4031
33808W        W76902   5.459  28.688  23.389 -0.1310 -0.0681 -0.2046
33809W        W76903   5.054  29.753  22.040  0.0106  0.0785 -0.1932
33810W        W76904   7.224  31.294  25.292  0.2764 -0.0044  0.3789
33811W        W76905   5.582  30.260  21.660  0.1045  0.0483 -0.1293
33812W        W76906   4.750  30.955  23.630  0.0619 -0.1284 -0.1941
33813W        W76907   6.162  32.142  23.362 -0.2311 -0.0740 -0.0584
33814W        W76908   6.596  30.799  20.816 -0.2913 -0.1947  0.0254
33815W        W76909   4.639  31.108  22.733 -0.1106 -0.3456  0.0248
33816W        W76910   4.395  30.649  23.174  0.2310 -0.0362 -0.2677
33817W        W76911   5.648  29.331  21.279  0.0266  0.1187 -0.4321
33818W        W76912   7.811  29.602  23.947 -0.0092  0.0343  0.4014
33819W        W76913   2.666  29.309  20.718  0.0534  0.0826 -0.0207
33820W        W76914   3.859  31.450  21.397  0.1999  0.1562 -0.1314
33821W        W76915   5.571  31.655  23.926  0.0993  0.2013 -0.0039
33822W        W76916   3.291  29.283  21.402 -0.3643  0.2341  0.0979
33823W        W76917   4.568  31.573  21.078  0.4521  0.0309 -0.2835
33824W        W76918   6.396  30.254  20.052 -0.2663 -0.1049 -0.2002
33825W        W76919   6.511  31.357  20.778  0.3837  0.1122  0.0527
33826W        W76920   6.544  32.456  20.830 -0.1297 -0.2773 -0.2072
33827W        W76921   5.418  29.815  21.444  0.2206 -0.0073  0.1693
33828W        W76922   5.083  31.644  22.274  0.2160 -0.0210 -0.1046
33829W        W76923   2.453  31.934  20.056 -0.1439  0.0861 -0.1247
33830W        W76924   5.461  31.764  18.747  0.0163  0.0843 -0.1321
33831W        W76925   3.717  33.406  21.515  0.1625 -0.2067 -0.1190
33832W        W76926   7.723  31.689  22.405 -0.1807 -0.1762  0.0260
33833W        W76927   5.832  29.534  19.985 -0.3130 -0.1407 -0.3340
33834W        W76928   8.206  31.925  21.629  0.0441  0.0361  0.1151
33835W        W76929   7.150  29.649  20.711  0.1217 -0.1300  0.0003
33836W        W76930   5.846  32.016  25.819  0.0004 -0.2341 -0.2123
33837W        W76931   4.798  30.721  22.265 -0.3180  0.2362  0.2911
33838W        W76932   4.790  30.361  20.076  0.0998 -0.5460  0.0061
33839W        W76933   5.360  30.308  25.114  0.2498 -0.2563  0.0230
33840W        W76934   8.211  30.342  23.308 -0.5102 -0.1920  0.2514
33841W        W76935   4.323  31.850  23.870 -0.0016  0.1759 -0.0341
33842W        W76936   7.483  31.183  19.390  0.1076  0.2254 -0.0509
33843W        W76937   3.750  30.707  20.905 -0.1863  0.1405 -0.1050
33844W        W76938   5.137  29.984  20.923 -0.1369 -0.1073 -0.0269
33845W        W76939   7.259  28.080  23.189 -0.0229  0.1828 -0.0234
33846W        W76940   5.034  30.822  18.842  0.0210 -0.2192 -0.1667
33847W        W76941   6.039  31.117  21.024 -0.0925  0.0234 -0.2363
33848W        W76942   4.133  31.831  21.226 -0.2512  0.3227  0.1853
33849W        W76943   5.506  31.660  23.031 -0.1478 -0.3077 -0.2196
33850W        W76944   5.031  31.762  23.667  0.1135 -0.0991  0.1971
33851W        W76945   3.017  29.936  18.451  0.0344 -0.2664 -0.1870
33852W        W76946   6.980  30.932  19.537 -0.0027 -0.0194 -0.0312
33853W        W76947   5.606  29.512  22.106  0.1634 -0.0620 -0.0482
33854W        W76948   6.935  29.056  22.036  0.1702  0.1288  0.1487
33855W        W76949   4.610  30.287  21.266 -0.2490  0.1575  0.2629
33856W        W76950   6.094  30.018  20.764 -0.0197  0.0434 -0.3858
33857W        W76951   5.562  29.435  24.380 -0.0154 -0.2353 -0.0554
33858W        W76952   5.644  30.408  22.757  0.1478 -0.1555 -0.1768
33859W        W76953   5.859  29.396  19.341 -0.0820  0.0709  0.0733
33860W        W76954   6.500  31.951  23.993  0.1416 -0.0063 -0.3437
33861W        W76955   6.285  29.685  20.279  0.0079  0.4941 -0.1168
33862W        W76956   6.409  34.143  23.855 -0.0069  0.0419 -0.0140
33863W        W76957   3.678  27.790  21.739  0.0939 -0.0182  0.0950
33864W        W76958   5.214  30.468  20.367 -0.0974 -0.1389 -0.1697
33865W        W76959   1.883  30.368  21.340  0.2038 -0.1891 -0.0610
33866W        W76960   5.468  30.092  23.174  0.0315 -0.1171  0.0908
33867W        W76961   6.496  30.539  22.922 -0.1580  0.0986 -0.1031
33868W        W76962   2.609  29.857  20.783 -0.1886  0.0191 -0.0624
33869W        W76963   5.531  32.126  19.303 -0.2146  0.0232  0.0170
33870W        W76964   7.345  30.368  21.994 -0.0392  0.0148 -0.2781
33871W        W76965   5.628  30.617  18.251  0.1018 -0.0488 -0.2697
33872W        W76966   6.225  30.535  20.543  0.2475 -0.0141 -0.0387
33873W        W76967   7.950  34.530  22.288  0.1006 -0.0739 -0.0447
33874W        W76968   4.259  29.970  21.197  0.0927 -0.2582  0.3582
33875W        W76969   6.984  30.705  22.242 -0.2842  0.0371  0.0542
33876W        W76970   7.058  31.718  21.793 -0.2056  0.0567  0.2882
33877W        W76971   7.409  27.641  20.763  0.0126  0.0622  0.1713
33878W        W76972   3.643  29.813  22.211  0.0520  0.3588  0.0451
33879W        W76973   4.626  32.439  21.763 -0.2182 -0.0583 -0.2131
33880W        W76974   7.660  29.773  20.824 -0.1531  0.1317 -0.1418
33881W        W76975   6.665  28.906  22.428  0.0506  0.0246  0.0616
33882W        W76976   6.934  30.974  18.136  0.0474  0.0197 -0.1674
33883W        W76977   8.203  29.070  23.979 -0.5576 -0.2321  0.0113
33884W        W76978   6.470  30.424  21.571  0.2271 -0.0197 -0.1887
33885W        W76979   6.756  33.031  22.982 -0.1823 -0.1345  0.0897
33886W        W76980   2.333  31.314  20.750  0.1793  0.0731 -0.0398
33887W        W76981   5.245  31.866  24.324  0.0164 -0.0624 -0.3220
33888W        W76982   4.927  31.563  21.614 -0.1549  0.1794 -0.2244
33889W        W76983   5.243  31.825  20.753 -0.2247 -0.1337  0.0118
33890W        W76984   7.155  32.136  21.527 -0.0650 -0.1419 -0.1943
33891W        W76985   6.592  29.456  21.844 -0.4118  0.0431 -0.0662
33892W        W76986   5.961  30.584  21.005  0.0289  0.2529  0.4397
33893W        W76987   4.206  28.615  20.908  0.3904  0.0971  0.1801
33894W        W76988   8.231  28.936  21.146 -0.0070  0.1907 -0.3249
33895W        W76989   4.955  29.813  19.890  0.0284  0.1422 -0.2718
33896W        W76990   5.947  31.620  23.459 -0.1331 -0.5413  0.0634
33897W        W76991   2.570  31.498  18.384 -0.0425 -0.2618 -0.1303
33898W        W76992   3.987  32.458  19.881 -0.3400 -0.0483  0.1664
33899W        W76993   3.742  31.053  21.974 -0.3274  0.0382  0.2861
33900W        W76994   4.438  29.725  23.734 -0.2143 -0.1617 -0.0686
33901W        W76995   4.701  30.536  23.933 -0.3051 -0.0043 -0.1514
33902W        W76996   3.637  32.057  22.121  0.0520 -0.0066  0.2838
33903W        W76997   4.213  29.460  20.963 -0.2349  0.1461  0.1999
33904W        W76998   6.539  31.151  19.673 -0.1502 -0.0808  0.0215
33905W        W76999   5.329  28.748  21.785 -0.0883  0.0092 -0.3018
33906W        W77000   3.518  30.143  21.868 -0.0921 -0.0285 -0.1207
33907W        W77001   5.726  30.511  20.540  0.3713  0.1622  0.1449
33908W        W77002   6.938  31.704  20.730 -0.0431  0.2071  0.0037
33909W        W77003   5.078  29.440  21.242 -0.3656 -0.3487 -0.2561
33910W        W77004   8.392  32.920  23.120  0.1807  0.3482  0.3318
33911W        W77005   3.150  31.277  20.801 -0.1312 -0.0810 -0.1145
33912W        W77006   4.551  30.910  24.603  0.2770  0.0758  0.0632
33913W        W77007   5.193  29.492  22.479 -0.1626 -0.1145  0.1834
33914W        W77008   2.643  29.035  19.979  0.3120 -0.0604 -0.2516
33915W        W77009   6.170  29.589  22.240 -0.0201 -0.0266 -0.1254
33916W        W77010   5.994  32.392  20.807 -0.0964  0.1773 -0.1160
33917W        W77011   5.359  30.980  18.473 -0.2592 -0.2665  0.0362
33918W        W77012   5.914  31.150  23.314  0.0264 -0.0362  0.0205
33919W        W77013   6.042  30.768  22.836 -0.1931 -0.1341  0.1246
33920W        W77014   4.227  29.253  21.914  0.0277  0.1949  0.2955
33921W        W77015   7.280  29.913  21.208  0.0512 -0.2196  0.0586
33922W        W77016   5.807  31.251  21.442 -0.0134 -0.4176  0.3539
33923W        W77017   7.014  31.311  19.885 -0.0331 -0.2919 -0.0725
33924W        W77018   6.452  28.562  22.044  0.1124 -0.0369  0.3085
33925W        W77019   6.101  29.313  21.584 -0.0129 -0.0501  0.1884
33926W        W77020   3.763  29.316  22.523 -0.1419 -0.1039 -0.1654
33927W        W77021   4.096  31.296  23.565  0.1298  0.0027 -0.1076
33928W        W77022   6.761  29.906  21.505 -0.2237 -0.0858  0.4461
33929W        W77023   3.916  29.089  21.044 -0.2642 -0.0736 -0.2832
33930W        W77024   5.957  28.317  21.251  0.2852  0.2312 -0.0259
33931W        W77025   5.964  30.118  20.290  0.1796 -0.1593  0.0688
33932W        W77026   3.178  29.954  23.299 -0.0682  0.0707  0.1393
33933W        W77027   5.207  29.878  18.464  0.0437 -0.1500  0.2359
33934W        W77028   5.967  29.806  23.341  0.3715 -0.1116  0.1118
33935W        W77029   6.511  30.411  22.086 -0.0299 -0.0562  0.2629
33936W        W77030   6.378  31.025  23.075 -0.0822  0.2418  0.3083
33937W        W77031   3.284  30.506  20.555  0.0035 -0.2032 -0.1618
33938W        W77032   6.533  31.004  19.196 -0.3201 -0.1560  0.2664
33939W        W77033   6.350  32.434  21.570 -0.0584  0.0582 -0.0155
33940W        W77034   8.258  33.013  23.683 -0.1560  0.0772 -0.1729
33941W        W77035   6.362  31.999  22.932  0.1017  0.2300 -0.0464
33942W        W77036   7.102  29.554  21.856 -0.3588 -0.0143  0.1547
33943W        W77037   4.869  29.283  22.862  0.2208  0.2043  0.1884
33944W        W77038   4.079  29.623  22.298 -0.2270  0.2011  0.4320
33945W        W77039   5.494  31.441  22.029  0.2229  0.0618 -0.0733
33946W        W77040   7.728  31.164  23.226 -0.0705  0.1287 -0.1065
33947W        W77041   4.445  29.801  21.999 -0.1119 -0.3035  0.4465
33948W        W77042   4.803  29.938  18.157  0.0446 -0.3074 -0.0995
33949W        W77043   5.855  32.307  21.341  0.0673  0.0973 -0.0548
33950W        W77044   5.292  30.597  22.346  0.1060 -0.3230  0.0008
33951W        W77045   5.403  30.498  27.821  0.3892  0.4327  0.0545
33952W        W77046   4.460  30.477  24.860  0.0222  0.0019 -0.2862
33953W        W77047   6.547  31.302  24.643  0.1162  0.0896  0.1755
33954W        W77048   6.107  29.708  25.585 -0.0884  0.2900 -0.0428
33955W        W77049   3.534  30.244  26.306  0.1775 -0.1045  0.2446
33956W        W77050   6.946  33.751  23.245  0.4106 -0.1200  0.0643
33957W        W77051   3.880  27.871  27.637 -0.0674 -0.0971 -0.1940
33958W        W77052   4.952  31.997  25.897  0.0809  0.1798  0.0555
33959W        W77053   6.378  32.559  26.485  0.0323 -0.0679 -0.2099
33960W        W77054   6.363  30.954  23.874 -0.0586  0.0909  0.3577
33961W        W77055   4.561  29.440  26.875  0.1860 -0.1131  0.2982
33962W        W77056   3.994  32.044  28.472  0.0907 -0.0006 -0.0103
33963W        W77057   4.301  28.064  25.439 -0.0369 -0.2080  0.2761
33964W        W77058   3.265  29.257  25.806 -0.0411  0.2461 -0.1502
33965W        W77059   6.276  30.053  27.067 -0.1632 -0.0269  0.0974
33966W        W77060   3.059  30.804  25.601 -0.0856  0.0526  0.0251
33967W        W77061   4.965  30.382  26.988  0.1194  0.0886  0.2048
33968W        W77062   4.294  29.383  26.021 -0.2030 -0.2876  0.0454
33969W        W77063   7.359  32.233  22.339  0.1369 -0.0195 -0.4249
33970W        W77064   5.527  27.938  25.869  0.1675  0.2156  0.3606
33971W        W77065   6.335  28.924  26.508  0.3258  0.2159  0.2260
33972W        W77066   7.001  32.400  23.160 -0.0778  0.2079  0.1534
33973W        W77067   4.388  32.301  24.749  0.2248  0.2545  0.1202
33974W        W77068   3.498  31.414  26.298  0.2432 -0.4739 -0.0198
33975W        W77069   4.940  30.396  25.935  0.1403 -0.2079  0.0680
33976W        W77070   6.150  30.578  25.460 -0.1022 -0.1043  0.1086
33977W        W77071   5.991  30.917  25.781 -0.0047 -0.0566 -0.5231
33978W        W77072   4.802  32.470  26.369  0.0145 -0.0277 -0.0014
33979W        W77073   5.831  31.815  26.294 -0.0204 -0.2613  0.1759
33980W        W77074   8.344  31.176  27.844  0.1435  0.1801  0.2171
33981W        W77075   4.400  32.292  25.464 -0.1390 -0.2736  0.1725
33982W        W77076   4.684  32.488  24.335  0.1397 -0.1123  0.0019
33983W        W77077   5.096  31.625  24.754 -0.0185 -0.1687  0.1305
33984W        W77078   7.904  31.144  24.639 -0.0210 -0.0287 -0.1695
33985W        W77079   8.862  32.796  26.528 -0.0595  0.3391 -0.1154
33986W        W77080   3.926  32.651  28.216 -0.2497  0.0342 -0.4704
33987W        W77081   4.331  30.577  25.313  0.0194  0.0190 -0.1954
33988W        W77082   8.599  31.533  28.172 -0.1023 -0.0548  0.2351
33989W        W77083   5.659  31.742  28.943  0.1004  0.1646  0.4343
33990W        W77084   4.166  30.530  26.094  0.4787 -0.1592 -0.0705
33991W        W77085   5.251  30.820  26.382  0.1443 -0.1220  0.0407
33992W        W77086   4.162  32.597  25.184  0.0412  0.1787 -0.1427
33993W        W77087   4.529  31.558  26.564 -0.2373  0.0364  0.1387
33994W        W77088   5.548  30.166  28.198  0.1740  0.4467  0.0445
33995W        W77089   4.940  31.457  25.654 -0.0101 -0.4245 -0.0053
33996W        W77090   7.588  29.672  28.330 -0.1977  0.1906 -0.0538
33997W        W77091   4.769  31.894  24.494  0.2258  0.2450 -0.0338
33998W        W77092   7.318  30.641  23.741 -0.0887  0.0748  0.0430
33999W        W77093   4.780  28.838  24.038 -0.3073 -0.1359  0.3875
34000W        W77094   6.673  32.142  26.082  0.2266  0.0702 -0.1299
34001W        W77095   5.344  28.039  25.405  0.1038  0.0175  0.1366
34002W        W77096   5.655  32.195  24.431 -0.0774 -0.0744 -0.0414
34003W        W77097   5.185  28.885  25.494  0.1907 -0.1069 -0.3277
34004W        W77098   5.897  30.123  25.807  0.1779  0.2632  0.1095
34005W        W77099   5.264  30.019  24.615  0.1262  0.0277 -0.0037
34006W        W77100   6.459  29.529  26.970 -0.2395 -0.1542 -0.0004
34007W        W77101   4.495  31.120  26.797 -0.0649 -0.1037  0.2585
34008W        W77102   3.977  30.770  25.704  0.0416 -0.1174 -0.0412
34009W        W77103   6.732  32.674  23.575  0.3643  0.0616 -0.0489
34010W        W77104   7.818  32.700  25.649 -0.2569  0.1301 -0.0133
34011W        W77105   7.193  31.489  24.269  0.2245  0.1764  0.3404
34012W        W77106   5.276  29.790  25.080 -0.4906  0.3741 -0.2326
34013W        W77107   5.057  29.899  25.999 -0.2067 -0.1836 -0.1470
34014W        W77108   3.818  30.612  27.657 -0.0512  0.0254 -0.0168
34015W        W77109   6.176  27.806  25.742 -0.1413  0.3450  0.1854
34016W        W77110   7.410  31.700  27.575  0.1260 -0.0017 -0.0508
34017W        W77111   3.809  30.513  27.162 -0.0413  0.1134  0.2910
34018W        W77112   6.978  29.120  24.514 -0.0457 -0.0436  0.2063
34019W        W77113   4.095  30.625  26.587  0.2181 -0.1121 -0.2113
34020W        W77114   6.696  30.809  26.107  0.0389  0.3354  0.1977
34021W        W77115   6.269  31.558  23.025 -0.0423  0.0532  0.1898
34022W        W77116   5.198  28.313  26.198  0.2166 -0.1507  0.0773
34023W        W77117   5.780  29.349  29.009  0.0221 -0.1371 -0.0434
34024W        W77118   4.228  29.640  25.086  0.0876  0.1450  0.2158
34025W        W77119   5.665  30.659  24.915 -0.2510 -0.0496 -0.4082
34026W        W77120   7.080  32.600  27.128  0.0564 -0.0046 -0.0878
34027W        W77121   7.916  32.047  24.362  0.1427  0.1382  0.1743
34028W        W77122   3.684  31.669  28.334 -0.0431  0.2087 -0.2171
34029W        W77123   3.884  28.408  27.044  0.4725  0.1174  0.1408
34030W        W77124   5.821  30.034  27.296 -0.0009 -0.1040  0.2540
34031W        W77125   5.445  31.393  23.498 -0.0352  0.0410 -0.0442
34032W        W77126   4.816  31.034  25.396 -0.0692  0.1116 -0.6255
34033W        W77127   5.682  31.810  24.842  0.2528  0.0403 -0.0375
34034W        W77128   4.802  28.136  26.604 -0.0447  0.2793  0.1129
34035W        W77129   5.791  30.742  27.245 -0.0492  0.0623  0.2050
34036W        W77130   6.997  30.005  24.505 -0.2187 -0.1682 -0.2613
34037W        W77131   3.740  29.854  27.436 -0.1003  0.0873  0.0816
34038W        W77132   5.981  28.787  26.144  0.2471 -0.0669 -0.1758
34039W        W77133   4.182  31.808  24.610 -0.2027 -0.0624  0.0037
34040W        W77134   7.203  31.852  24.797 -0.1583 -0.1255 -0.1096
34041W        W77135   7.015  30.838  25.300  0.4918  0.2906 -0.1630
34042W        W77136   6.132  33.032  24.382  0.1002  0.0023  0.1829
34043W        W77137   5.508  30.004  25.495 -0.3256  0.0396  0.0692
34044W        W77138   4.904  30.461  25.343 -0.4230 -0.1835 -0.0616
34045W        W77139   4.369  28.151  27.007  0.0130 -0.0623  0.3817
34046W        W77140   3.996  29.044  26.262 -0.2896  0.3038  0.0235
34047W        W77141   7.346  29.613  27.847  0.1511 -0.1924 -0.1221
34048W        W77142   3.355  29.676  25.051 -0.2560 -0.0338  0.0677
34049W        W77143   6.136  30.018  24.744  0.0172 -0.1246 -0.1043
34050W        W77144   5.649  30.538  25.443  0.0277  0.1982 -0.1009
34051W        W77145   2.975  30.655  24.393  0.1913  0.1354  0.1084
34052W        W77146   7.262  29.302  28.797  0.1886  0.1792 -0.2153
34053W        W77147   8.175  32.737  22.657  0.0357  0.0734  0.1440
34054W        W77148   6.310  32.697  27.296 -0.0728  0.0771  0.2983
34055W        W77149   6.569  33.666  24.260  0.2608 -0.2652  0.0978
34056W        W77150   3.730  29.765  26.551 -0.2413  0.0460 -0.1090
34057W        W77151   4.417  28.493  25.163 -0.1088 -0.1345 -0.4345
34058W        W77152   5.035  31.243  26.596  0.0523  0.3933  0.0332
34059W        W77153   5.215  31.426  25.227 -0.1154  0.1166 -0.1787
34060W        W77154   2.360  27.675  23.211  0.1367  0.0492  0.0496
34061W        W77155   7.318  33.279  24.896  0.0108  0.0131 -0.5554
34062W        W77156   5.403  30.939  25.223  0.0877 -0.0307  0.3612
34063W        W77157   4.289  29.820  27.167  0.1277  0.2220  0.1607
34064W        W77158   6.052  27.703  26.741  0.0280  0.1742  0.2867
34065W        W77159   7.216  30.493  26.678  0.1435  0.1161 -0.0732
34066W        W77160   4.241  31.376  25.443 -0.0363 -0.0713  0.0217
34067W        W77161   4.501  29.157  23.713  0.0978  0.1859 -0.0423
34068W        W77162   5.796  31.591  26.868  0.0475 -0.2072  0.1668
34069W        W77163   4.718  32.100  24.047  0.1403 -0.1408 -0.2329
34070W        W77164   3.055  30.496  25.162  0.0265 -0.1452 -0.0724
34071W        W77165   5.202  31.960  25.250 -0.2463 -0.1201  0.2852
34072W        W77166   7.775  28.672  24.185 -0.1052 -0.3213 -0.2428
34073W        W77167   4.347  29.713  28.132  0.0351  0.0764  0.2621
34074W        W77168   6.104  30.410  27.387  0.2969  0.0268 -0.3195
34075W        W77169   4.637  29.464  23.346  0.0301  0.1193 -0.1485
34076W        W77170   5.924  30.363  27.895 -0.0779  0.2047 -0.0412
34077W        W77171   7.413  28.353  24.347 -0.0693  0.0659 -0.1255
34078W        W77172   6.929  30.290  22.990  0.1045  0.0005  0.1545
34079W        W77173   5.717  30.799  28.178 -0.0944 -0.1100 -0.2067
34080W        W77174   6.567  30.682  25.121 -0.1912 -0.1554 -0.2209
34081W        W77175   5.904  30.278  23.509 -0.1033 -0.2103  0.1872
34082W        W77176   5.079  29.451  24.144 -0.0954  0.0927  0.0590
34083W        W77177   3.989  29.449  26.974  0.1312  0.0659 -0.0783
34084W        W77178   6.484  31.543  25.660 -0.0862 -0.3010  0.2708
34085W        W77179   6.279  30.975  26.368 -0.0012  0.0085  0.0927
34086W        W77180   5.201  30.421  24.225  0.2398  0.0486  0.4257
34087W        W77181   6.511  32.604  23.127  0.0697 -0.1229 -0.1839
34088W        W77182   3.680  32.056  26.425 -0.5018 -0.2161  0.0884
34089W        W77183   6.565  31.977  27.243  0.0634  0.0721  0.0935
34090W        W77184   6.179  32.624  24.731  0.0549  0.3596 -0.0294
34091W        W77185   4.264  29.050  26.712 -0.1856  0.1986 -0.0421
34092W        W77186   5.139  30.596  24.694 -0.2789  0.0525 -0.2623
34093W        W77187   6.151  29.284  25.929  0.1081 -0.1615  0.1382
34094W        W77188   3.692  30.621  22.766 -0.0401 -0.0256 -0.0726
34095W        W77189   6.949  28.923  25.423 -0.0408  0.1114 -0.1392
34096W        W77190   5.646  29.233  26.184  0.1239  0.1976 -0.0084
34097W        W77191   5.424  29.185  27.269  0.2334 -0.2144 -0.1541
34098W        W77192   8.610  31.953  27.256 -0.2852  0.1326  0.2782
34099W        W77193   7.397  31.136  24.541 -0.0178 -0.0997 -0.2843
34100W        W77194   5.513  30.238  26.477  0.1528  0.1440 -0.1003
34101W        W77195   4.871  30.383  23.380  0.0030 -0.1864 -0.2040
34102W        W77196   6.787  29.194  25.854 -0.2719  0.4842 -0.1279
34103W        W77197   4.663  31.591  26.026 -0.1685  0.1867 -0.0125
34104W        W77198   4.371  31.903  28.730 -0.0349  0.0125 -0.1555
34105W        W77199   6.679  31.618  26.844 -0.2388 -0.1283  0.0781
34106W        W77200   6.533  31.782  24.965 -0.1470  0.0344 -0.1294
34107W        W77201   5.319  29.703  29.091 -0.1150  0.0088 -0.0740
34108W        W77202   5.540  29.865  23.616  0.1188 -0.0803 -0.1873
34109W        W77203   4.850  31.515  24.139 -0.2204 -0.0221 -0.1169
34110W        W77204   6.209  31.821  25.379  0.0858 -0.2761  0.1082
34111W        W77205   3.504  29.493  26.179  0.2993 -0.2364 -0.1575
34112W        W77206   6.244  31.432  26.571  0.0979 -0.2600 -0.0673
34113W        W77207   6.673  31.444  23.829 -0.0283 -0.2086  0.2618
34114W        W77208   6.941  30.855  27.579 -0.0888  0.0220  0.1687
34115W        W77209   5.652  31.613  25.292  0.1295 -0.2628  0.0358
34116W        W77210   6.820  28.389  25.727  0.0157 -0.0505  0.3260
34117W        W77211   2.935  32.306  25.459  0.2291 -0.1447  0.2765
34118W        W77212   4.368  28.114  24.857 -0.2537 -0.0245  0.1234
34119W        W77213   4.192  29.733  24.300  0.2191  0.0707 -0.1008
34120W        W77214   5.022  28.796  25.028  0.1738 -0.2770 -0.1940
34121W        W77215   7.498  31.942  22.878  0.1647 -0.2559  0.0474
34122W        W77216   5.422  30.233  25.947  0.0640 -0.0440  0.1367
34123W        W77217   5.917  29.467  26.566  0.0508  0.0269  0.2619
34124W        W77218   4.515  30.857  26.311 -0.1338 -0.2559  0.1443
34125W        W77219   6.796  30.330  25.976  0.0854 -0.0148 -0.0007
34126W        W77220   7.363  30.111  25.086  0.1515  0.1434 -0.3337
34127W        W77221   5.533  31.274  26.466 -0.3196 -0.1549 -0.2266
34128W        W77222   6.781  30.589  27.145  0.2344 -0.0055  0.1403
34129W        W77223   3.806  29.665  24.758 -0.0407  0.0636 -0.0978
34130W        W77224   6.991  30.968  28.047 -0.0571  0.2490 -0.0780
34131W        W77225   4.304  29.298  25.430 -0.1222 -0.1202  0.0026
34132W        W77226   4.214  32.648  24.355 -0.0126 -0.0165 -0.0351
34133W        W77227   5.427  30.681  26.841  0.1960  0.1246  0.2970
34134W        W77228   4.586  31.449  24.630  0.1876 -0.3069  0.1106
34135W        W77229   5.551  31.234  24.834  0.0010  0.2224  0.0601
34136W        W77230   5.546  30.013  27.705  0.3956 -0.0716  0.1108
34137W        W77231   7.565  32.339  27.213 -0.0582  0.1730  0.0201
34138W        W77232   5.790  29.531  27.573 -0.0212  0.0079 -0.0005
34139W        W77233   4.649  29.996  25.175  0.0094 -0.1958 -0.1649
34140W        W77234   4.598  29.333  24.215  0.1380  0.0354  0.0676
34141W        W77235   6.849  30.101  26.475 -0.0139  0.0633 -0.0677
34142W        W77236   5.705  28.625  27.136 -0.0899 -0.3182  0.3685
34143W        W77237   6.023  30.842  27.672  0.2323 -0.1037  0.3973
34144W        W77238   4.213  29.542  26.498 -0.1067 -0.2119 -0.1858
34145W        W77239   6.982  31.843  23.914  0.0662  0.0719 -0.0080
34146W        W77240   5.796  30.681  26.416  0.0114  0.0038 -0.0231
34147W        W77241   5.222  31.262  24.369 -0.0413 -0.0389  0.1265
34148W        W77242   4.485  31.104  27.338  0.5110  0.1169 -0.1608
34149W        W77243   5.500  31.240  25.613 -0.2986 -0.2950  0.1534
34150W        W77244   5.410  28.762  26.110 -0.0473  0.0155 -0.1898
34151W        W77245   5.076  30.085  27.448  0.1961 -0.0531  0.0413
34152W        W77246   4.432  32.463  23.854  0.0218  0.1476 -0.0364
34153W        W77247   4.524  30.371  26.420  0.2045 -0.2707  0.2367
34154W        W77248   6.349  29.628  23.505  0.2175  0.1503 -0.0444
34155W        W77249   5.216  32.612  25.204  0.0780 -0.0962 -0.0933
34156W        W77250   5.785  29.927  24.311 -0.1189 -0.2224 -0.1013
34157W        W77251   7.241  28.318  26.670  0.3972  0.0487 -0.2517
34158W        W77252   6.047  31.502  24.771 -0.3048  0.0615  0.1256
34159W        W77253   7.385  30.171  27.911 -0.0508  0.0644  0.1286
34160W        W77254   4.510  28.964  26.268  0.0099 -0.0360  0.1828
34161W        W77255   7.123  32.282  25.049 -0.1036  0.2093  0.2519
34162W        W77256   3.828  28.907  26.996  0.0300  0.2309 -0.1202
34163W        W77257   5.826  31.626  27.349 -0.0884  0.0783  0.0458
34164W        W77258   6.354  30.504  26.859  0.0936 -0.4168 -0.1965
34165W        W77259   6.996  30.458  24.894 -0.3214 -0.4497 -0.0091
34166W        W77260   4.240  28.651  23.346  0.0894 -0.1893  0.1339
34167W        W77261   5.403  31.132  27.055  0.2297  0.0248  0.4319
34168W        W77262   7.154  30.766  25.832  0.0273  0.0915  0.1524
34169W        W77263   5.773  32.693  24.445 -0.3342 -0.0590 -0.1908
34170W        W77264   6.583  29.620  25.798 -0.0451 -0.0262  0.1832
34171W        W77265   5.425  29.705  27.174  0.0681 -0.2891 -0.2339
34172W        W77266   6.421  30.759  24.645  0.1011 -0.1715  0.4209
34173W        W77267   6.169  31.578  23.942  0.0569  0.2517 -0.0828
34174W        W77268   5.138  30.820  25.737 -0.0242 -0.1602  0.0330
34175W        W77269   5.776  27.454  26.199 -0.0994  0.0535  0.0521
34176W        W77270   6.997  32.707  26.076 -0.1651 -0.0034 -0.2916
34177W        W77271   5.195  29.235  25.954  0.0436 -0.1282  0.1992
34178W        W77272   5.777  29.891  26.796 -0.0371 -0.0109  0.0361
34179W        W77273   7.756  30.487  28.090  0.1211  0.2365 -0.0216
34180W        W77274   4.416  28.942  27.718 -0.3366  0.0414  0.1112
34181W        W77275   3.578  28.898  28.706  0.3196 -0.0507 -0.1264
34182W        W77276   5.868  32.455  26.649  0.1757 -0.0470  0.2027
34183W        W77277   6.576  29.930  23.812 -0.0332 -0.1385 -0.3550
34184W        W77278   6.913  29.603  26.375 -0.3848  0.0689 -0.3322
34185W        W77279   6.482  30.210  25.106 -0.0053  0.2310 -0.2617
34186W        W77280   5.983  30.933  24.684  0.1600 -0.0787  0.0844
34187W        W77281   2.575  28.654  26.701 -0.0121 -0.0990 -0.1520
34188W        W77282   6.597  31.256  27.388 -0.1059 -0.2892 -0.0737
34189W        W77283   4.589  28.997  23.188 -0.1829  0.2066  0.2333
34190W        W77284   6.672  29.346  28.550 -0.2317  0.0349 -0.0723
34191W        W77285   5.879  31.327  22.805  0.3683 -0.1849 -0.0992
34192W        W77286   6.530  30.917  25.628 -0.0716  0.0487 -0.3520
34193W        W77287   6.106  30.425  24.446  0.2705  0.1298  0.0613
34194W        W77288   5.501  29.732  26.319 -0.0547 -0.0358 -0.1549
34195W        W77289   5.398  31.601  27.690  0.3167 -0.0971 -0.1415
34196W        W77290   5.470  29.559  23.128  0.1628 -0.0522  0.0017
34197W        W77291   5.209  30.434  22.928 -0.0682  0.0776 -0.1400
34198W        W77292   7.063  32.113  25.620  0.1041  0.1154 -0.1330
34199W        W77293   6.645  32.222  26.802  0.0951  0.0566  0.1075
34200W        W77294   4.735  28.942  24.533  0.0189  0.2440 -0.0809
34201W        W77295   7.102  29.982  27.573  0.2566 -0.1422  0.1838
34202W        W77296   4.795  32.764  23.660 -0.0673  0.0049 -0.1981
34203W        W77297   5.259  28.873  26.805 -0.1275 -0.0741 -0.3236
34204W        W77298   5.013  32.628  26.986  0.1649  0.0884  0.2460
34205W        W77299   4.348  30.275  26.841 -0.0760 -0.1337 -0.2044
34206W        W77300   3.636  31.406  24.356  0.0079  0.0338  0.0958
34207W        W77301   6.202  29.948  27.649  0.1304  0.0356  0.1541
34208W        W77302   6.021  29.714  26.129 -0.2316 -0.3501  0.1408
34209W        W77303   5.891  30.394  26.890  0.2653 -0.1879 -0.2152
34210W        W77304   7.250  29.317  26.602  0.2157 -0.1053  0.1616
34211W        W77305   5.478  32.074  27.520 -0.1654  0.3542  0.0428
34212W        W77306   6.044  30.139  26.391  0.0843 -0.0478  0.1632
34213W        W77307   4.949  31.844  27.547 -0.0513  0.2533  0.0831
34214W        W77308   6.628  31.256  25.237 -0.1624  0.1033 -0.0264
34215W        W77309   6.303  30.569  25.940  0.3279 -0.1241  0.5468
34216W        W77310   3.278  29.558  28.036  0.1238 -0.1006  0.0678
34217W        W77311   6.352  29.838  26.588 -0.0947 -0.1339 -0.0001
34218W        W77312   6.122  30.525  24.928  0.3070 -0.1388  0.1705
34219W        W77313   3.849  29.355  25.242  0.0231  0.2613 -0.4152
34220W        W77314   7.139  30.927  23.276 -0.2593 -0.1858 -0.2588
34221W        W77315   4.024  31.872  27.901 -0.2463 -0.2522  0.2779
34222W        W77316   4.542  31.109  28.249 -0.0635 -0.2293  0.0623
34223W        W77317   3.203  31.035  23.579 -0.0984  0.2216 -0.0155
34224W        W77318   6.169  32.128  24.915  0.0146 -0.0779 -0.0083
34225W        W77319   5.775  32.099  25.327  0.1164 -0.0047 -0.2570
34226W        W77320   6.373  32.145  25.675 -0.0756 -0.2583 -0.0070
34227W        W77321   4.278  28.744  24.797  0.1905 -0.1525  0.0825
34228W        W77322   3.719  31.834  24.754  0.0600 -0.0990  0.0144
34229W        W77323   3.609  31.268  23.732  0.1818  0.0174 -0.0159
34230W        W77324   6.787  31.773  24.442  0.4988 -0.0513  0.1056
34231W        W77325   3.858  31.716  23.654 -0.0704  0.0061 -0.2196
34232W        W77326   7.017  32.391  26.506 -0.0908  0.0038  0.2274
34233W        W77327   6.213  29.543  24.473 -0.1758 -0.0107  0.2373
34234W        W77328   6.748  30.757  26.617 -0.2459  0.4566  0.0597
34235W        W77329   5.290  29.292  25.145  0.4785 -0.0196 -0.1529
34236W        W77330   6.776  32.369  27.422  0.2196 -0.1050  0.4207
34237W        W77331   6.010  29.562  27.095  0.2370 -0.0990 -0.1477
34238W        W77332   4.442  30.011  24.649  0.0280  0.0652  0.0630
34239W        W77333   3.579  30.464  26.733  0.0232 -0.0325 -0.1315
34240W        W77334   6.819  29.169  26.886 -0.0301  0.0064  0.0699
34241W        W77335   4.166  31.669  26.261  0.0870 -0.3496  0.0331
34242W        W77336   6.805  33.195  23.574 -0.2006 -0.0280  0.2449
34243W        W77337   4.785  29.419  25.314  0.1113  0.2886  0.0761
34244W        W77338   4.114  29.294  24.579 -0.1066 -0.0728  0.1511
34245W        W77339   5.483  27.093  25.241 -0.2782  0.2658 -0.3357
34246W        W77340   7.425  31.586  23.870  0.1812 -0.3465  0.2096
34247W        W77341   6.487  31.348  26.102  0.0851 -0.0998  0.1944
34248W        W77342   5.902  31.812  24.274 -0.4475 -0.2781  0.2296
34249W        W77343   4.870  32.261  25.449  0.0296  0.1952 -0.0424
34250W        W77344   5.501  32.866  26.872  0.1551 -0.0962 -0.1452
34251W        W77345   5.001  29.193  23.732  0.0300 -0.0884 -0.2714
34252W        W77346   7.558  30.526  25.455  0.2147 -0.0226  0.0955
34253W        W77347   4.433  29.316  27.395 -0.4458 -0.1835 -0.5244
34254W        W77348   6.732  28.520  26.697 -0.2895  0.2975  0.0062
34255W        W77349   4.044  30.230  25.008 -0.0069  0.1531 -0.0722
34256W        W77350   7.463  30.241  24.506  0.0583 -0.3801  0.1231
34257W        W77351   6.506  30.399  26.416 -0.1082  0.1172  0.0463
34258W        W77352   4.170  29.736  25.557  0.0180 -0.3284 -0.2584
34259W        W77353   4.897  30.206  24.826 -0.0137 -0.0979  0.2769
34260W        W77354   6.416  30.028  26.115 -0.1556  0.1052 -0.2828
34261W        W77355   7.683  31.047  24.098  0.1512 -0.1445  0.0186
34262W        W77356   5.042  33.024  28.312  0.3282 -0.1229 -0.1335
34263W        W77357   4.200  28.922  25.769 -0.0366  0.0388  0.1410
34264W        W77358   4.741  29.202  25.763 -0.0086 -0.0732  0.0645
34265W        W77359   4.964  31.049  24.876  0.1322  0.1032  0.1995
34266W        W77360   5.016  30.256  26.521 -0.2072  0.1330 -0.1002
34267W        W77361   5.856  32.265  28.047 -0.1656  0.0575 -0.1214
34268W        W77362   3.238  29.264  25.327 -0.2467  0.1892 -0.3535
34269W        W77363   7.432  30.728  24.974 -0.0554 -0.3757  0.2662
34270W        W77364   7.306  30.296  26.099 -0.3247  0.0876  0.0722
34271W        W77365   6.238  32.672  23.564  0.1374  0.1018 -0.1125
34272W        W77366   7.009  30.942  24.776  0.1900  0.0184 -0.0957
34273W        W77367   6.740  33.172  24.967 -0.0382 -0.1996  0.0130
34274W        W77368   3.546  31.150  25.641 -0.0801  0.1598  0.1692
34275W        W77369   4.850  31.147  26.031  0.0324  0.0183 -0.1313
34276W        W77370   6.811  32.593  25.556  0.0121 -0.3766  0.2912
34277W        W77371   4.917  28.710  25.883  0.0230  0.0829 -0.0257
34278W        W77372   5.619  29.608  25.847 -0.1596 -0.3644  0.1135
34279W        W77373   3.429  30.348  24.302 -0.1262 -0.1487  0.0829
34280W        W77374   7.048  30.378  25.512 -0.0715 -0.1209  0.2313
34281W        W77375   7.630  28.915  26.012  0.4386 -0.2209  0.0952
34282W        W77376   6.716  31.136  23.448  0.0224  0.1729 -0.0930
34283W        W77377   7.590  29.356  27.464 -0.0585  0.0244  0.0364
34284W        W77378   5.364  31.686  27.144  0.1657  0.2706  0.0942
34285W        W77379   5.126  30.848  27.427  0.0127 -0.0667 -0.0435
34286W        W77380   5.908  30.082  25.234 -0.0039 -0.1727  0.1894
34287W        W77381   6.448  30.506  27.858 -0.4068 -0.0067 -0.0939
34288W        W77382   4.935  32.412  24.760 -0.3274 -0.1169  0.0348
34289W        W77383   4.748  32.021  24.992  0.2119  0.2890  0.0997
34290W        W77384   6.475  31.889  26.426 -0.4192  0.0301 -0.2044
34291W        W77385   4.711  31.481  25.115 -0.0399 -0.2769 -0.1236
34292W        W77386   7.406  32.505  24.237 -0.1380  0.0765  0.2048
34293W        W77387   6.164  28.335  25.924 -0.1211 -0.0041 -0.2319
34294W        W77388   8.107  30.099  26.199 -0.4919 -0.2403  0.1666
34295W        W77389   6.890  31.130  24.219  0.0599  0.2877  0.0231
34296W        W77390   5.880  31.032  26.708 -0.1454 -0.1390  0.0600
34297W        W77391   4.628  28.882  25.419  0.2749 -0.0989  0.2428
34298W        W77392   5.266  30.907  23.447  0.2370  0.0758  0.3149
34299W        W77393   4.593  30.699  25.745  0.0156  0.4191  0.2560
34300W        W77394   4.785  29.370  27.780 -0.1306 -0.0191  0.0931
34301W        W77395   5.097  29.739  26.613  0.0776 -0.3190  0.1237
34302W        W77396   4.339  31.140  25.946  0.0679 -0.1122  0.1867
34303W        W77397   3.637  28.931  25.599  0.0992  0.3377 -0.0542
34304W        W77398   8.672  32.442  24.035 -0.0473  0.1164 -0.3632
34305W        W77399   4.276  28.510  26.156  0.2593 -0.1582  0.3905
34306W        W77400   3.717  30.477  25.298 -0.0198  0.0021 -0.0828
34307W        W77401   6.586  32.252  25.214  0.1958  0.1450 -0.0424
34308W        W77402   6.663  32.188  23.465 -0.1308 -0.1149  0.3690
34309W        W77403   6.163  29.603  24.984  0.0935  0.3964 -0.0548
34310W        W77404   8.503  32.177  27.663  0.2423 -0.1290  0.0553
34311W        W77405   3.792  30.779  24.400  0.0986  0.4635 -0.0785
34312W        W77406   6.111  29.550  28.008  0.0508  0.1463 -0.0561
34313W        W77407   5.475  29.331  26.705 -0.0427 -0.1335 -0.4573
34314W        W77408   3.976  30.754  24.868  0.4197 -0.0811  0.1234
34315W        W77409   5.830  28.039  25.444 -0.3184  0.2479  0.1824
34316W        W77410   5.778  32.952  25.031  0.1333  0.2857  0.2223
34317W        W77411   7.417  32.021  24.171 -0.3662 -0.2896 -0.0205
34318W        W77412   6.066  31.144  27.209  0.4904 -0.1006  0.2130
34319W        W77413   6.055  31.825  28.382  0.1595  0.3222 -0.2340
34320W        W77414   4.123  30.262  27.469 -0.1714 -0.2474  0.1380
34321W        W77415   6.899  31.268  25.724  0.1227  0.0453  0.3395
34322W        W77416   5.043  31.322  27.444  0.2722 -0.0581  0.1762
34323W        W77417   7.238  31.491  22.856  0.0529 -0.0734  0.1561
34324W        W77418   5.732  28.636  26.590 -0.0612 -0.0506  0.1489
34325W        W77419   6.212  31.202  24.275  0.0469  0.3582 -0.0858
34326W        W77420   3.612  28.921  28.185 -0.1638  0.1118 -0.0096
34327W        W77421   4.856  31.071  28.706 -0.0190  0.1248 -0.2017
34328W        W77422   6.603  32.653  24.983  0.2856  0.1734  0.0313
34329W        W77423   3.477  30.685  25.842  0.1669  0.3209 -0.0561
34330W        W77424   5.666  29.753  24.853 -0.1094 -0.2760  0.2062
34331W        W77425   6.158  31.073  25.141  0.1234 -0.0180 -0.0134
34332W        W77426   5.037  30.012  25.495 -0.4056 -0.2633 -0.0023
34333W        W77427   3.810  28.265  25.543  0.1581  0.0885 -0.1067
34334W        W77428   6.403  30.998  26.906 -0.0521  0.1120  0.0940
34335W        W77429   4.813  31.449  27.017 -0.0666 -0.1952 -0.2652
34336W        W77430   7.749  31.302  27.555 -0.1281 -0.0634  0.1050
34337W        W77431   5.771  31.373  24.381 -0.2674 -0.1279  0.1031
34338W        W77432   7.692  30.344  23.342 -0.3787  0.0540 -0.2542
34339W        W77433   4.773  32.499  28.168  0.0499 -0.0223  0.0220
34340W        W77434   7.179  32.122  27.440 -0.4769 -0.2007  0.1336
34341W        W77435   7.045  31.999  26.974  0.2666  0.1340 -0.0439
34342W        W77436   7.313  32.584  25.569  0.2270  0.2654  0.0895
34343W        W77437   3.513  29.644  27.029 -0.1940 -0.2926  0.1710
34344W        W77438   4.449  31.054  25.051  0.1292 -0.2180 -0.0355
34345W        W77439   5.583  30.952  26.004 -0.0549 -0.2354  0.4705
34346W        W77440   6.468  29.423  26.277  0.2708  0.0519  0.0756
34347W        W77441   4.312  27.154  25.918 -0.1596  0.2627  0.0417
34348W        W77442   4.468  29.194  24.970  0.1282 -0.4321 -0.1183
34349W        W77443   4.637  32.125  27.242  0.2737  0.0128  0.3049
34350W        W77444   6.279  31.618  27.097  0.2038  0.0990 -0.1932
34351W        W77445   4.584  31.517  30.466  0.0650  0.1385 -0.0799
34352W        W77446   4.901  30.486  27.715 -0.3891 -0.1140  0.0587
34353W        W77447   7.117  29.683  26.922  0.0012  0.2113  0.1372
34354W        W77448   6.732  31.074  29.928  0.1412 -0.1415  0.0558
34355W        W77449   3.733  29.136  29.609  0.1198 -0.2208 -0.0201
34356W        W77450   6.296  32.451  29.144  0.0112 -0.0356  0.1806
34357W        W77451   4.329  28.834  30.379  0.1111 -0.3606 -0.4401
34358W        W77452   6.352  31.157  29.380 -0.0674  0.3156  0.0113
34359W        W77453   8.586  32.068  28.591  0.1267 -0.0396  0.1434
34360W        W77454   8.111  31.101  27.253  0.1693 -0.2625 -0.2616
34361W        W77455   5.690  30.038  30.414  0.0792 -0.4323 -0.1808
34362W        W77456   4.355  32.321   0.235  0.0551  0.0032  0.0096
34363W        W77457   4.692  29.335  29.280 -0.0227  0.5260 -0.0611
34364W        W77458   3.895  26.889  29.994 -0.1749 -0.0586  0.3074
34365W        W77459   5.499  31.750  30.179 -0.0934  0.1639 -0.1163
34366W        W77460   4.257  29.479  29.110  0.1052  0.1765  0.2535
34367W        W77461   5.013  29.574  30.808 -0.0610  0.0281 -0.0699
34368W        W77462   5.909  29.097  27.364  0.0387  0.1450  0.4649
34369W        W77463   5.797  32.590  30.038  0.0931 -0.1934 -0.1399
34370W        W77464   5.061  29.395  31.249 -0.3534  0.1133 -0.1700
34371W        W77465   6.910  29.566  30.119 -0.3629 -0.1702  0.4554
34372W        W77466   5.337  30.629  28.428 -0.0334  0.2816 -0.2109
34373W        W77467   4.539  30.223  28.891 -0.0611  0.0691 -0.1907
34374W        W77468   4.184  30.569  31.041  0.1276  0.0130  0.0117
34375W        W77469   5.197  30.377  30.881 -0.1015 -0.3511  0.3049
34376W        W77470   5.096  29.971  29.894 -0.0396  0.0210 -0.5630
34377W        W77471   6.287  30.807  31.758  0.0170 -0.3420  0.3001
34378W        W77472   5.045  32.401  30.729 -0.0665 -0.2356  0.2576
34379W        W77473   5.402  32.190  28.744 -0.1291  0.3119  0.3269
34380W        W77474   6.572  30.151  31.032 -0.0837 -0.1995  0.0373
34381W        W77475   4.496  31.194  29.154 -0.0425 -0.1132 -0.2078
34382W        W77476   3.909  32.520  30.911 -0.0592  0.0042  0.0070
34383W        W77477   5.112  32.483  29.369  0.1910 -0.0588 -0.2249
34384W        W77478   7.604  32.416  28.705 -0.0978  0.2236 -0.1707
34385W        W77479   7.439  30.527  30.074  0.1318 -0.1836 -0.0585
34386W        W77480   5.240  31.075  30.995  0.0701 -0.3109 -0.0495
34387W        W77481   2.842  31.809  28.056 -0.1443  0.0016  0.0278
34388W        W77482   6.915  32.652   1.198  0.3334 -0.1409  0.0922
34389W        W77483   5.246  29.913  30.585  0.0756 -0.2252 -0.0506
34390W        W77484   5.424  31.266  30.460  0.0251  0.1124 -0.0989
34391W        W77485   4.286  29.486  28.609 -0.2774 -0.1546 -0.4472
34392W        W77486   4.457  30.574  28.070 -0.2470 -0.0835  0.1945
34393W        W77487   5.843  30.963  29.293  0.0634  0.0220 -0.0607
34394W        W77488   4.292  32.516  31.403 -0.0258  0.0225  0.1012
34395W        W77489   4.672  32.322  29.802  0.1962  0.3963  0.1857
34396W        W77490   7.561  29.270   0.557  0.2356  0.3164  0.0050
34397W        W77491   3.550  31.349  28.688 -0.0022  0.0987  0.3222
34398W        W77492   6.950  30.490  27.874 -0.2925  0.0111 -0.2236
34399W        W77493   6.288  29.470  27.491  0.0280 -0.2781  0.0939
34400W        W77494   6.042  30.428  29.102  0.0093 -0.3204  0.2128
34401W        W77495   5.229  29.382  28.061 -0.0633  0.1376 -0.1092
34402W        W77496   5.068  32.027  30.986 -0.0787  0.0366 -0.2147
34403W        W77497   4.830  29.140  29.974 -0.1938  0.0206  0.2892
34404W        W77498   6.294  31.221  30.233 -0.1041  0.0134 -0.0562
34405W        W77499   6.203  30.298  29.864  0.0507 -0.1318 -0.2524
34406W        W77500   6.700  30.839  29.410  0.0525 -0.1268 -0.2306
34407W        W77501   4.548  32.289  31.755 -0.3246 -0.4307  0.3764
34408W        W77502   4.251  31.395  30.994 -0.1925 -0.2901  0.2369
34409W        W77503   7.246  33.135  29.121 -0.1381 -0.1286 -0.2252
34410W        W77504   7.922  31.612  29.699 -0.4424 -0.0956  0.1538
34411W        W77505   7.470  33.209  27.748  0.0420  0.1303 -0.2914
34412W        W77506   3.943  30.329  30.179  0.2100 -0.0924 -0.0388
34413W        W77507   4.859  31.347  31.980  0.1201  0.1096 -0.0930
34414W        W77508   3.991  30.712   0.620 -0.1753  0.0164 -0.0273
34415W        W77509   4.827  28.402  27.028 -0.1823  0.2521  0.0845
34416W        W77510   7.796  31.882   0.767 -0.1184  0.0145  0.1970
34417W        W77511   3.798  31.955  30.994  0.2555  0.0102 -0.0861
34418W        W77512   6.613  30.397  28.520 -0.1401  0.0955  0.2810
34419W        W77513   4.063  31.600  29.682  0.1940 -0.2113 -0.1529
34420W        W77514   5.980  32.123   0.014 -0.4374  0.0402  0.0222
34421W        W77515   8.965  30.946  29.435  0.0052  0.0461  0.0722
34422W        W77516   6.661  30.545  29.839  0.0052  0.2590 -0.0063
34423W        W77517   5.659  27.697  28.346  0.2327 -0.1687 -0.2631
34424W        W77518   6.419  30.793  27.380  0.0185 -0.0981  0.1490
34425W        W77519   5.176  31.619  28.227 -0.2868  0.0066 -0.2015
34426W        W77520   6.867  32.255  31.320  0.2963 -0.1208 -0.0890
34427W        W77521   5.874  32.215  28.843 -0.2676 -0.0164 -0.0926
34428W        W77522   4.577  31.566  29.506 -0.0262 -0.1305 -0.1317
34429W        W77523   5.610  29.522  30.443 -0.0388 -0.0274  0.2198
34430W        W77524   6.284  32.700  31.939  0.1507  0.0279 -0.0158
34431W        W77525   3.954  31.229  29.059  0.1951  0.0641 -0.3349
34432W        W77526   3.751  31.093  29.483 -0.2713  0.1236  0.0885
34433W        W77527   3.734  30.313  28.544  0.0334  0.1871 -0.0058
34434W        W77528   4.010  29.241  30.572 -0.1222 -0.3508 -0.0434
34435W        W77529   4.691  31.709  30.978 -0.1039 -0.0747 -0.0420
34436W        W77530   7.469  28.607  29.377  0.1336 -0.0817 -0.2177
34437W        W77531   5.549  28.956  30.476 -0.1199 -0.0436 -0.0021
34438W        W77532   6.017  29.948  29.581  0.5055 -0.2004 -0.2174
34439W        W77533   3.955  30.650  28.260  0.1320  0.0309  0.1945
34440W        W77534   6.955  33.177  27.962 -0.2297  0.3105 -0.2504
34441W        W77535   6.877  30.002  28.050  0.0556  0.2572  0.1144
34442W        W77536   5.552  31.103  27.546  0.1582 -0.1878 -0.1839
34443W        W77537   3.898  29.811  30.325  0.0918 -0.0828  0.0355
34444W        W77538   3.354  29.375  29.307 -0.2655 -0.2859  0.4008
34445W        W77539   4.814  28.880  31.166 -0.1634  0.2130  0.0138
34446W        W77540   3.892  30.009  29.797  0.0940  0.1408  0.0582
34447W        W77541   6.733  30.173  29.381  0.2498 -0.0593  0.2836
34448W        W77542   4.923  28.864  29.360 -0.0792  0.1023 -0.0896
34449W        W77543   5.496  29.800  29.555 -0.1852 -0.2073  0.3942
34450W        W77544   5.682  30.114  29.920 -0.3136 -0.1703  0.3744
34451W        W77545   4.799  31.460  27.970  0.0428  0.0803  0.0630
34452W        W77546   5.978  29.204  31.024 -0.0873 -0.0026 -0.2838
34453W        W77547   6.799  32.387  28.129  0.1563  0.2860 -0.0367
34454W        W77548   5.854  32.221  30.799  0.3783  0.0367 -0.1641
34455W        W77549   7.229  32.220  27.959 -0.2181 -0.1561  0.1544
34456W        W77550   4.899  28.281  29.085  0.1220 -0.1894 -0.0958
34457W        W77551   2.857  29.197  29.319  0.0221 -0.2379  0.0070
34458W        W77552   3.364  32.306  30.136 -0.1629  0.3843 -0.0973
34459W        W77553   4.922  30.797  29.433 -0.1607  0.1021  0.1843
34460W        W77554   5.012  30.669  28.931 -0.0377 -0.0153 -0.0924
34461W        W77555   8.061  34.099  29.517 -0.1971 -0.0768  0.3437
34462W        W77556   3.747  30.674  29.814 -0.0369 -0.0528  0.1681
34463W        W77557   3.601  31.366  31.051  0.0374  0.0218 -0.0618
34464W        W77558   8.226  30.191  30.222  0.3353 -0.0549  0.1661
34465W        W77559   7.525  31.333  29.889 -0.0931 -0.1229 -0.1422
34466W        W77560   5.320  30.352  30.285  0.1019 -0.0346 -0.0569
34467W        W77561   3.928  29.983  26.923  0.1968  0.1726 -0.0497
34468W        W77562   6.917  30.707  30.240  0.1239  0.1325 -0.0799
34469W        W77563   4.329  31.678  28.287 -0.1222  0.1751  0.0215
34470W        W77564   3.494  30.528  30.329  0.1452  0.6199 -0.3586
34471W        W77565   5.581  31.717  29.693 -0.3593  0.3559 -0.0438
34472W        W77566   6.033  29.030  29.839  0.0289 -0.0530 -0.2931
34473W        W77567   3.219  31.285   0.022  0.0975 -0.0407  0.1123
34474W        W77568   5.549  29.424  31.314 -0.1174 -0.3715  0.0825
34475W        W77569   2.720  28.898  28.954 -0.1508  0.1014  0.0862
34476W        W77570   4.169  30.879  31.873  0.0880 -0.2416  0.0701
34477W        W77571   7.130  28.771  28.723 -0.2006  0.2048  0.2401
34478W        W77572   7.420  30.778  27.881  0.0149  0.0843 -0.4659
34479W        W77573   5.677  31.260  30.947 -0.2882  0.1545  0.1501
34480W        W77574   5.888  32.102  29.300  0.1104  0.2340  0.0548
34481W        W77575   6.132  30.585  28.598  0.1588 -0.3520 -0.0443
34482W        W77576   6.326  29.127  28.112 -0.2005  0.1598 -0.1283
34483W        W77577   3.798  32.727  31.548  0.3899 -0.0921 -0.1512
34484W        W77578   5.245  31.170  28.421  0.1951 -0.0075 -0.1654
34485W        W77579   4.863  30.315  29.361 -0.1249 -0.1432  0.0439
34486W        W77580   4.223  29.871  29.434 -0.0812 -0.0711  0.1823
34487W        W77581   6.800  31.427  27.779  0.1756 -0.1204 -0.4419
34488W        W77582   4.111  31.202  30.559 -0.0919  0.0142  0.0637
34489W        W77583   5.319  31.081  31.970 -0.3589  0.1050  0.0263
34490W        W77584   5.210  31.571  28.769  0.2163 -0.1002  0.1974
34491W        W77585   6.302  30.025  29.181  0.1445 -0.0268 -0.3790
34492W        W77586   6.794  30.081  27.015  0.1731 -0.1926 -0.3306
34493W        W77587   5.731  30.293  28.662 -0.0887  0.2825 -0.2000
34494W        W77588   4.760  30.991  27.758  0.2580 -0.0280 -0.0975
34495W        W77589   6.531  29.906  30.299  0.0778  0.0439  0.0658
34496W        W77590   6.081  29.972  30.220 -0.2473 -0.1689 -0.1544
34497W        W77591   5.527  28.008   0.345  0.0110  0.0364 -0.0876
34498W        W77592   7.858  29.886  31.173 -0.0349 -0.0664 -0.1835
34499W        W77593   7.499  30.156  28.388  0.1268 -0.0005  0.0032
34500W        W77594   6.676  31.660  28.784  0.1962 -0.2502  0.0413
34501W        W77595   3.552  30.992  26.642  0.2214  0.2801 -0.1313
34502W        W77596   6.664  28.429  31.727 -0.0690  0.1347 -0.2993
34503W        W77597   4.833  30.264  30.412  0.1328 -0.2379 -0.0648
34504W        W77598   3.992  31.599  31.322 -0.1160  0.2267  0.1331
34505W        W77599   7.733  31.075  31.841  0.0341  0.1282  0.1089
34506W        W77600   6.030  30.004  28.233  0.1130 -0.0206 -0.0208
34507W        W77601   5.148  29.179  31.658  0.0438 -0.1930 -0.0040
34508W        W77602   5.350  28.124  28.688  0.2612  0.1582 -0.3661
34509W        W77603   6.240  30.768  30.041  0.2278 -0.1256  0.3053
34510W        W77604   4.771  31.537  28.502  0.5350  0.1507  0.1929
34511W        W77605   5.639  29.326  29.468 -0.2199  0.1327  0.0793
34512W        W77606   4.881  29.714  30.270  0.2809 -0.0989  0.1707
34513W        W77607   6.067  31.336  27.751  0.0353  0.1768  0.0971
34514W        W77608   6.057  30.557  31.299  0.0245 -0.0725  0.1493
34515W        W77609   4.305  32.316  28.203 -0.0684 -0.2201 -0.0272
34516W        W77610   5.716  28.632  29.861 -0.1703  0.0237 -0.0002
34517W        W77611   3.386  32.222  30.873 -0.1518 -0.0229  0.3375
34518W        W77612   4.691  30.041  28.370 -0.1071 -0.0422 -0.0031
34519W        W77613   2.626  30.125  30.227  0.2121 -0.0186  0.1040
34520W        W77614   6.197  29.486  29.543  0.0869 -0.3472  0.0215
34521W        W77615   6.699  31.880  28.285 -0.0290 -0.2551  0.1315
34522W        W77616   4.421  30.002  30.197  0.0860 -0.0568  0.1326
34523W        W77617   6.813  28.594  30.085  0.1041  0.4307  0.1626
34524W        W77618   2.994  32.618   0.799 -0.2582 -0.0572 -0.1625
34525W        W77619   6.028  29.031  30.315  0.0483  0.1116 -0.3327
34526W        W77620   5.604  29.700  28.080 -0.3616 -0.2829  0.2178
34527W        W77621   6.318  30.932  28.841 -0.1008 -0.2611 -0.1106
34528W        W77622   4.840  31.329  31.340 -0.1107 -0.1685  0.2788
34529W        W77623   3.625  29.909  27.937 -0.0046  0.2702 -0.0512
34530W        W77624   6.142  28.318  31.235  0.0729  0.2397 -0.0329
34531W        W77625   4.667  30.186  29.805  0.2591  0.3551  0.0334
34532W        W77626   5.948  31.192  29.750 -0.0184  0.1548  0.1467
34533W        W77627   4.723  31.835  30.114  0.1049  0.1403  0.0532
34534W        W77628   4.579  30.137  27.815  0.1058 -0.2190  0.2478
34535W        W77629   5.366  30.862  30.150  0.0622  0.3685  0.1746
34536W        W77630   6.065  28.147   0.317  0.1562 -0.0739 -0.0238
34537W        W77631   5.718  31.536  31.425  0.4618  0.1421  0.2619
34538W        W77632   6.348  30.355  30.351  0.0753  0.1236  0.2311
34539W        W77633   5.442  29.331  28.671  0.0226 -0.3318  0.1223
34540W        W77634   4.915  29.797  29.343  0.0387 -0.2745  0.0279
34541W        W77635   5.074  31.485  30.715 -0.2631  0.1898 -0.0174
34542W        W77636   4.690  29.703  31.355  0.0608 -0.0007  0.0621
34543W        W77637   3.918  31.407  31.887  0.0057  0.0104  0.0029
34544W        W77638   7.167  29.082  29.542 -0.0716 -0.0370 -0.4562
34545W        W77639   7.128  33.382  28.661  0.1799 -0.2847  0.0139
34546W        W77640   7.942  31.033  29.262 -0.1794 -0.1570  0.3138
34547W        W77641   5.378  31.083  28.903  0.2901 -0.0056  0.0788
34548W        W77642   4.581  30.526  31.435  0.0369  0.0065  0.0005
34549W        W77643   4.969  31.249  30.213  0.0012  0.2451 -0.0482
34550W        W77644   5.605  29.130  30.008  0.0220 -0.0268  0.1342
34551W        W77645   4.006  32.192  31.733  0.1501  0.1049  0.3268
34552W        W77646   4.562  32.576  26.828  0.0189  0.1411 -0.0895
34553W        W77647   3.201  31.843  29.898 -0.0318 -0.1961 -0.0860
34554W        W77648   8.153  30.220  27.594 -0.2494 -0.1297 -0.0689
34555W        W77649   6.673  30.226  27.500  0.0263 -0.0184  0.3421
34556W        W77650   5.402  30.138  29.027  0.0155 -0.0151  0.0724
34557W        W77651   6.790  29.625  30.604  0.0498 -0.2248 -0.2167
34558W        W77652   5.302  30.462  29.778  0.1771  0.0389  0.1115
34559W        W77653   5.723  30.320  30.832  0.1898 -0.4200 -0.0233
34560W        W77654   5.264  28.487  31.141 -0.2483  0.0685  0.3190
34561W        W77655   6.528  32.638  29.578  0.1986 -0.3050  0.0665
34562W        W77656   4.479  28.524  31.257  0.0031  0.2355 -0.0632
34563W        W77657   6.981  32.398   0.760 -0.0099  0.1806  0.2076
34564W        W77658   4.036  30.504  31.555  0.1002  0.0575 -0.1777
34565W        W77659   7.917  29.925  29.127 -0.0950  0.0023  0.0857
34566W        W77660   5.330  28.308  29.513 -0.0062 -0.1650  0.0862
34567W        W77661   5.463  29.279  30.859  0.1047  0.0780  0.1982
34568W        W77662   5.824  31.026  30.181  0.1278 -0.1084  0.0615
34569W        W77663   7.278  31.769  28.138 -0.0985  0.2082  0.5944
34570W        W77664   7.606  29.715  29.550  0.0356  0.0835 -0.0524
34571W        W77665   4.580  30.977  30.386  0.1397  0.0339 -0.1715
34572W        W77666   7.106  30.204  28.703 -0.0143  0.0486 -0.0681
34573W        W77667   5.745  31.244  28.545 -0.1851  0.1436 -0.2433
34574W        W77668   5.220  31.129  27.876 -0.2282 -0.0077  0.0672
34575W        W77669   4.934  28.389  31.480  0.3054  0.1282 -0.1419
34576W        W77670   7.688  32.530  28.208  0.1177  0.0534 -0.1503
34577W        W77671   5.693  30.254  29.428 -0.2964 -0.0978  0.1641
34578W        W77672   6.190  29.514  30.474  0.0928  0.1258  0.3320
34579W        W77673   5.743  30.638  29.770  0.1067 -0.2936 -0.1293
34580W        W77674   3.923  31.045  31.515 -0.1679 -0.1149  0.1207
34581W        W77675   4.120  28.938  31.509 -0.0534  0.2332  0.2134
34582W        W77676   6.563  33.179  28.734  0.0166  0.0189 -0.3900
34583W        W77677   7.343  30.963  26.827  0.2356  0.0336  0.2222
34584W        W77678   8.482  29.110  30.059 -0.1059  0.5462  0.0808
34585W        W77679   7.711  29.307  28.612  0.2026 -0.2233 -0.0992
34586W        W77680   6.723  29.684  27.677 -0.1979  0.1343  0.0304
34587W        W77681   4.218  29.769  31.131 -0.0951  0.0081  0.2887
34588W        W77682   6.575  30.580   0.087 -0.1418 -0.3263 -0.1680
34589W        W77683   5.087  30.284  28.117 -0.0930  0.1344 -0.0951
34590W        W77684   6.404  28.881  31.285 -0.1286  0.0455 -0.2325
34591W        W77685   6.191  32.336  26.998  0.0014 -0.0353  0.1791
34592W        W77686   6.485  31.788  29.220 -0.0418 -0.1743 -0.0839
34593W        W77687   6.629  29.879  28.569  0.1702 -0.3733  0.1004
34594W        W77688   4.666  29.287  30.515  0.4076 -0.0968 -0.1853
34595W        W77689   4.381  32.439  30.818  0.1158  0.1437 -0.1982
34596W        W77690   4.196  30.141  28.540 -0.3144  0.1042 -0.1052
34597W        W77691   5.761  30.815  28.832  0.3778 -0.0648  0.4525
34598W        W77692   6.190  31.389  31.221  0.1969 -0.1358 -0.2705
34599W        W77693   7.051  31.610  30.680  0.0700 -0.0615  0.5012
34600W        W77694   5.189  29.733  28.433 -0.3310  0.2290  0.0255
34601W        W77695   6.927  30.177  30.162 -0.0970 -0.1735  0.1173
34602W        W77696   4.905  30.818  28.195 -0.0087 -0.0068  0.1648
34603W        W77697   5.389  29.566  29.962 -0.1708  0.0014  0.1364
34604W        W77698   4.751  32.279  31.295 -0.1908 -0.2533 -0.0099
34605W        W77699   3.758  31.554  30.521  0.0632 -0.0351  0.0994
34606W        W77700   4.215  31.107  29.551  0.0257  0.2240  0.0429
34607W        W77701   6.735  28.647  30.932  0.4489  0.0402 -0.0198
34608W        W77702   7.017  31.364  29.552 -0.1593  0.3015  0.0524
34609W        W77703   5.259  31.944  29.361 -0.2011  0.0454  0.0000
34610W        W77704   8.226  29.518  29.357 -0.2185  0.4474  0.0309
34611W        W77705   5.897  31.730  30.960  0.2001 -0.0364 -0.2094
34612W        W77706   4.432  30.737  29.751  0.3437  0.0292  0.2481
34613W        W77707   6.331  32.305  31.644 -0.4500  0.0144 -0.0147
34614W        W77708   7.148  31.650  28.656  0.1722 -0.1066  0.0344
34615W        W77709   5.073  31.527  29.693 -0.1516 -0.3565  0.2360
34616W        W77710   3.390  30.165   0.237 -0.0705 -0.3060 -0.2708
34617W        W77711   5.218  31.161   0.471 -0.1410 -0.1159  0.0640
34618W        W77712   6.993  30.747  28.681  0.0279  0.0624  0.0872
34619W        W77713   3.914  28.796  27.508 -0.3184  0.2217  0.2088
34620W        W77714   6.254  32.545  27.747 -0.1418  0.1672  0.0662
34621W        W77715   4.339  31.290  30.035 -0.1945  0.0224 -0.0305
34622W        W77716   3.655  30.486  30.876  0.0208 -0.3443 -0.0989
34623W        W77717   3.974  32.756  29.200 -0.1997  0.2397  0.1348
34624W        W77718   6.912  31.878  27.843  0.1181 -0.0719  0.1338
34625W        W77719   5.792  31.773  27.912  0.0467  0.1654  0.0142
34626W        W77720   6.580  32.656  28.711 -0.0065 -0.0260  0.1101
34627W        W77721   4.710  29.741  27.480 -0.0685 -0.1949  0.0679
34628W        W77722   3.987  32.769  30.421 -0.2378 -0.0344 -0.2155
34629W        W77723   3.202  32.040  29.069 -0.1567  0.0417 -0.2444
34630W        W77724   6.426  32.122  29.572 -0.0853  0.0846 -0.3450
34631W        W77725   5.170  32.640  28.805 -0.2015 -0.0635 -0.0032
34632W        W77726   6.877  32.001  30.343 -0.2829 -0.0974  0.1444
34633W        W77727   7.227  30.445  27.432  0.0109  0.0527  0.1421
34634W        W77728   6.975  31.516  30.052  0.0177  0.0041  0.2567
34635W        W77729   6.755  31.164  29.027 -0.0120  0.1531 -0.2868
34636W        W77730   5.969  32.478   1.238  0.0790  0.1566 -0.0745
34637W        W77731   5.107  29.353  29.531 -0.2376  0.3770  0.4240
34638W        W77732   5.280  29.614  27.637 -0.2101  0.2256 -0.0611
34639W        W77733   4.637  30.946  31.711 -0.1744 -0.1153 -0.1806
34640W        W77734   7.245  29.323  30.477 -0.3247  0.0137 -0.3911
34641W        W77735   3.648  32.253  31.393 -0.1084 -0.0982  0.1965
34642W        W77736   6.680  32.801  27.762 -0.0135  0.0710  0.1498
34643W        W77737   3.449  30.222  29.705  0.0707  0.5187 -0.0042
34644W        W77738   4.095  30.182  30.679 -0.1510  0.1759 -0.0418
34645W        W77739   8.353  28.632  30.234  0.1618 -0.0311  0.0236
34646W        W77740   5.656  31.264  28.017  0.1119  0.1587  0.1191
34647W        W77741   6.284  28.439  29.988  0.1014  0.0444  0.0147
34648W        W77742   6.581  32.812  30.038 -0.3715  0.1200  0.1512
34649W        W77743   5.453  31.326  29.938 -0.0933 -0.2737 -0.0092
34650W        W77744   4.679  32.028  30.597  0.3613 -0.1882 -0.3151
34651W        W77745   3.139  29.198  28.860  0.0098  0.1202 -0.0408
34652W        W77746   7.758  31.563  28.009  0.2576  0.0924 -0.0807
34653W        W77747   5.036  30.285  31.398 -0.2352 -0.1613  0.1978
34654W        W77748   9.151  28.283  29.719  0.0766 -0.0885 -0.2637
34655W        W77749   4.357  30.347  29.371 -0.1424  0.2936 -0.4675
34656W        W77750   6.564  29.965  29.807 -0.1494  0.1375  0.0211
34657W        W77751   5.769  29.698  30.877  0.3239  0.0945  0.0136
34658W        W77752   4.396  30.963  31.250 -0.1123 -0.3220  0.0058
34659W        W77753   4.931  29.341  28.787  0.1994  0.1120 -0.3432
34660W        W77754   6.865  32.377  29.938  0.1517  0.2715 -0.1702
34661W        W77755   6.037  31.444  29.054 -0.4187 -0.1730  0.0183
34662W        W77756   6.913  34.103  30.223 -0.2215  0.0042 -0.0178
34663W        W77757   4.550  30.733  29.033 -0.1430  0.1845 -0.2033
34664W        W77758   5.851  29.139  27.920  0.2343 -0.1034 -0.2157
34665W        W77759   4.736  31.146  29.734  0.2248 -0.1233 -0.0631
34666W        W77760   5.069  30.758  30.574  0.2970  0.1331  0.0991
34667W        W77761   6.518  32.295  30.425 -0.0218 -0.0717 -0.4219
34668W        W77762   4.354  29.163  28.174 -0.5479 -0.1554 -0.2968
34669W        W77763   6.643  33.138  27.402 -0.4538 -0.0337  0.0836
34670W        W77764   6.041  30.959  30.962  0.1542  0.1863  0.0344
34671W        W77765   5.295  32.555  28.274  0.2070  0.3697 -0.1455
34672W        W77766   6.737  29.370  29.692 -0.4431  0.0205 -0.4194
34673W        W77767   7.125  30.843  30.716 -0.3142 -0.1231  0.0390
34674W        W77768   4.714  30.088  30.993  0.1001  0.1399  0.1506
34675W        W77769   5.551  32.006  31.712  0.1566 -0.4260 -0.0001
34676W        W77770   7.258  31.092  30.187 -0.1404  0.3201 -0.1119
34677W        W77771   5.072  29.003  28.409  0.2155 -0.0438 -0.1951
34678W        W77772   6.215  30.633  29.511 -0.0066  0.0541 -0.1223
34679W        W77773   4.219  32.485  28.648 -0.0182 -0.0106 -0.0409
34680W        W77774   7.650  29.141  30.159 -0.2538 -0.0043 -0.2068
34681W        W77775   6.445  29.329  30.892  0.1834 -0.0917 -0.1493
34682W        W77776   4.414  32.602  27.677 -0.3608  0.2579 -0.1459
34683W        W77777   6.223  28.986  28.612  0.2561  0.1687  0.0337
34684W        W77778   5.884  31.031  31.483  0.0844 -0.2110  0.3128
34685W        W77779   4.900  31.819  31.903  0.1809 -0.1067  0.0490
34686W        W77780   4.720  30.520  28.540  0.2193 -0.3719 -0.0472
34687W        W77781   5.258  31.559  31.173 -0.1312  0.1925 -0.1833
34688W        W77782   5.948  32.052  29.790  0.4444  0.0882  0.1980
34689W        W77783   5.159  32.095  27.957 -0.2468 -0.3702 -0.0311
34690W        W77784   6.114  32.916  29.256 -0.1748  0.0877  0.1165
34691W        W77785   6.146  30.056  28.708 -0.0108  0.0623 -0.0140
34692W        W77786   6.502  31.472  29.741 -0.4002  0.0929  0.3208
34693W        W77787   5.403  28.525  29.040 -0.2081 -0.3368 -0.0826
34694W        W77788   7.317  30.063  29.238  0.1935  0.1106  0.3143
34695W        W77789   6.748  29.276  29.154  0.0000 -0.1065 -0.1027
34696W        W77790   4.549  29.370  30.965  0.0538  0.1972 -0.0715
34697W        W77791   3.523  28.812  29.264 -0.1296 -0.3020  0.2278
34698W        W77792   5.416  30.430  27.371 -0.1734 -0.1443 -0.2009
34699W        W77793   5.395  30.964  29.623 -0.0355  0.1300  0.0037
34700W        W77794   5.984  29.440   0.266 -0.1927  0.0527 -0.2135
34701W        W77795   5.901  28.729  31.372  0.0858 -0.1999 -0.0583
34702W        W77796   3.491  30.657  29.348 -0.1539  0.0771 -0.0711
34703W        W77797   3.367  29.272  28.429  0.1576 -0.0615  0.2279
34704W        W77798   6.636  32.167  28.852 -0.1241  0.2265 -0.0696
34705W        W77799   4.296  29.490  30.227 -0.2089  0.1624 -0.0668
34706W        W77800   3.164  28.119  29.846 -0.1219  0.0578 -0.1583
34707W        W77801   6.385  31.511  28.109 -0.1991 -0.5002 -0.0736
34708W        W77802   7.246  32.632  29.276  0.1585  0.2682  0.1134
34709W        W77803   5.109  30.226  28.615  0.0167 -0.2569  0.2386
34710W        W77804   6.245  31.272  31.871  0.2778 -0.1850 -0.0981
34711W        W77805   3.793  30.903  28.703 -0.2893 -0.1050 -0.1703
34712W        W77806   6.627  30.514  31.409 -0.2034  0.0010  0.0460
34713W        W77807   5.630  28.464   0.168 -0.1366  0.0616 -0.2160
34714W        W77808   4.951  29.820  27.954 -0.0881 -0.1323  0.0338
34715W        W77809   5.409  30.687  29.206  0.1848 -0.2826  0.1895
34716W        W77810   5.887  31.443  30.537  0.1432 -0.1246 -0.1378
34717W        W77811   6.434  33.206  27.938 -0.0738  0.0941 -0.1477
34718W        W77812   5.463  31.809  30.785  0.0282 -0.1641 -0.4012
34719W        W77813   4.619  31.857  31.459 -0.1011 -0.0766 -0.0700
34720W        W77814   3.900  28.489  30.157  0.3210  0.2020 -0.1010
34721W        W77815   6.559  30.868  28.429  0.2147 -0.0454 -0.0067
34722W        W77816   5.551  32.006  31.227  0.2335 -0.0397  0.2919
34723W        W77817   8.164  31.629  27.625  0.0782  0.4651 -0.0857
34724W        W77818   7.540  29.442  30.844 -0.0912 -0.3185 -0.2478
34725W        W77819   6.104  31.042  28.239  0.0753  0.0229  0.0008
34726W        W77820   4.387  27.999  31.064 -0.3335  0.0176 -0.1906
34727W        W77821   4.961  30.563  31.829 -0.2388  0.1949 -0.3211
34728W        W77822   7.118  32.425  30.348  0.0338 -0.1640 -0.1639
34729W        W77823   4.583  29.019  28.697  0.2153  0.0617  0.2128
34730W        W77824   6.527  27.553  28.208 -0.3872  0.2971  0.1123
34731W        W77825   5.579  31.373  29.364 -0.1369  0.0194  0.0756
34732W        W77826   3.947  29.536  29.883  0.3060 -0.1939  0.1246
34733W        W77827   4.889  29.867  27.035  0.4136 -0.0806 -0.0853
34734W        W77828   5.327  31.139  31.476 -0.0450  0.0035 -0.1179
34735W        W77829   4.890  30.662  30.011 -0.3230  0.0449  0.2084
34736W        W77830   6.332  31.265  30.694  0.0323 -0.0772  0.0440
34737W        W77831   4.782  29.415  28.324 -0.0015  0.0959 -0.0803
34738W        W77832   7.299  31.080  28.919  0.2890 -0.1812 -0.0348
34739W        W77833   6.205  33.057  30.521 -0.0472  0.2574  0.2642
34740W        W77834   7.860  32.419   0.702  0.1587 -0.0731 -0.3328
34741W        W77835   6.444  31.781  31.281 -0.1550  0.0439 -0.1119
34742W        W77836   7.205  30.897  29.732 -0.2203 -0.1249  0.1945
34743W        W77837   4.362  29.303  29.635 -0.1193  0.1891  0.2354
34744W        W77838   6.414  31.706  27.636 -0.0304 -0.0988  0.0075
34745W        W77839   3.978  29.901  28.896  0.0738  0.0378 -0.0094
34746W        W77840   7.064  30.510  29.129  0.0303 -0.2149 -0.0523
34747W        W77841   3.327  30.369  28.931 -0.0161  0.5542 -0.0595
34748W        W77842   6.625  28.399  28.882  0.1560 -0.0261  0.1083
34749W        W77843   4.603  32.808  31.093  0.0239 -0.2583  0.0705
34750W        W77844   4.731  31.105  30.879  0.3774  0.1383  0.0284
34751W        W77845   6.544  27.900  31.347 -0.0871  0.0481  0.0467
34752W        W77846   6.820  30.938  31.579  0.0557 -0.0930  0.1302
34753W        W77847   5.192  29.729  31.641 -0.1309 -0.2087  0.1766
34754W        W77848   4.403  30.749   0.379  0.1937  0.1472  0.2244
34755W        W77849   6.689  31.446  30.963  0.1274 -0.1470 -0.2504
34756W        W77850   4.200  32.654  31.872  0.1117  0.2119 -0.1092
34757W        W77851   6.271  30.512  30.826 -0.0005  0.0259 -0.0828
34758W        W77852   5.639  28.699  30.914  0.0215 -0.1855 -0.0235
34759W        W77853   6.552  29.591  31.703 -0.0341  0.0039  0.0074
34760W        W77854   7.915  32.016   1.303  0.1053  0.2257 -0.3005
34761W        W77855   6.489  30.793  30.466 -0.1966  0.0412  0.0349
34762W        W77856   4.259  29.130  31.966  0.2091 -0.0435 -0.1276
34763W        W77857   7.051  31.586  31.269  0.0066 -0.1699 -0.0221
34764W        W77858   4.719  30.572  30.929 -0.2144  0.0572  0.0618
34765W        W77859   7.355  30.871  31.570  0.0750 -0.3468  0.0643
34766W        W77860   3.422  32.523   0.545 -0.2159  0.0148 -0.1515
34767W        W77861   4.838  29.847   0.527  0.2737  0.3265  0.1517
34768W        W77862   7.349  33.667  31.606 -0.2160  0.1451  0.3126
34769W        W77863   3.146  27.391  31.631  0.1722  0.0012 -0.1029
34770W        W77864   5.448  30.684  31.677  0.3224  0.1931  0.0440
34771W        W77865   4.439  29.869   0.205  0.1496  0.0314  0.2019
34772W        W77866   4.880  32.262   0.429 -0.0140  0.1465  0.1754
34773W        W77867   7.962  30.252  31.762 -0.0453  0.0523 -0.1852
34774W        W77868   5.617  30.803  30.644 -0.1798 -0.2663 -0.2085
34775W        W77869   5.921  29.482   1.646  0.3096  0.1945 -0.0922
34776W        W77870   5.592  30.778  31.166 -0.0024 -0.1004  0.2974
34777W        W77871   3.773  30.554   0.193 -0.2878 -0.1726  0.0074
34778W        W77872   2.502  32.709   0.948 -0.1298 -0.1138  0.2769
34779W        W77873   5.675  28.310  31.273 -0.1325 -0.1380  0.0665
34780W        W77874   3.724  31.943   0.773 -0.1072 -0.0476 -0.1333
34781W        W77875   6.065  31.327   0.370  0.2064 -0.1233 -0.0050
34782W        W77876   5.580  29.486  31.848  0.0154 -0.2461 -0.1213
34783W        W77877   6.839  31.154  30.474 -0.0650 -0.0934 -0.1513
34784W        W77878   6.416  27.863  31.906  0.0966 -0.0999  0.0891
34785W        W77879   5.366  28.972  31.289  0.2428  0.0006  0.1694
34786W        W77880   6.243  31.730  31.771 -0.1630 -0.0096  0.3930
34787W        W77881   4.716  32.752  31.584  0.3781 -0.2739  0.2814
34788W        W77882   5.990  31.986  31.405 -0.4526 -0.3164 -0.2833
34789W        W77883   5.522  30.336  31.339 -0.1661  0.1726  0.1274
34790W        W77884   5.616  31.453   0.481 -0.3743 -0.3308 -0.0860
34791W        W77885   7.928  29.325   0.140  0.2360  0.0891 -0.0499
34792W        W77886   4.343  31.332  31.633  0.0231 -0.0358  0.2589
34793W        W77887   6.167  28.740  30.834 -0.1756 -0.0537 -0.4271
34794W        W77888   7.021  31.390   0.450 -0.0733 -0.2382 -0.1166
34795W        W77889   5.058  29.561   0.147  0.1545  0.1867  0.2150
34796W        W77890   5.274  29.862  31.115 -0.2107 -0.0135  0.1698
34797W        W77891   5.822  28.973   0.227  0.0807  0.0193  0.2942
34798W        W77892   6.460  32.039   0.144  0.0463  0.0617  0.4971
34799W        W77893   7.423  31.758   1.270 -0.0900  0.2666 -0.0445
34800W        W77894   3.826  31.132   0.395 -0.0249 -0.0890  0.3536
34801W        W77895   7.138  31.785   0.090  0.2562 -0.1070 -0.1527
34802W        W77896   6.989  28.872  31.802 -0.0917 -0.0785 -0.0252
34803W        W77897   5.963  28.286  30.793  0.1599 -0.2189 -0.1816
34804W        W77898   6.454  30.069  31.524  0.1301  0.1112 -0.1942
34805W        W77899   5.837  30.558  30.261  0.1457 -0.0361 -0.1991
34806W        W77900   6.643  30.105  31.965 -0.3762 -0.0252  0.0675
34807W        W77901   6.226  32.305  31.104  0.0825  0.3541 -0.0983
34808W        W77902   5.315  31.595  31.855  0.3534  0.1881  0.3664
34809W        W77903   6.615  31.565   0.133 -0.0172 -0.0469  0.0407
34810W        W77904   4.899  30.052   1.016  0.0131 -0.0298 -0.1228
34811W        W77905   3.293  30.266  31.741 -0.0516  0.0627  0.1368
34812W        W77906   4.862  30.893   0.220 -0.0415  0.2959  0.0927
34813W        W77907   4.231  31.134   0.724  0.0152 -0.0025  0.0655
34814W        W77908   3.459  29.468  31.303 -0.0543  0.2179 -0.1336
34815W        W77909   6.463  32.497   0.959 -0.2570  0.1084 -0.1363
34816W        W77910   8.866  31.628   0.581 -0.1043 -0.0895  0.0699
34817W        W77911   7.447  31.257  30.626  0.2741 -0.1439 -0.1865
34818W        W77912   3.089   0.292  15.828 -0.1928  0.1892  0.2084
34819W        W77913   5.927  33.385  15.777 -0.3173  0.2775 -0.0911
34820W        W77914   5.924  33.976  16.620 -0.1382  0.0923 -0.1631
34821W        W77915   4.956  33.910  16.422  0.0366 -0.0294  0.1672
34822W        W77916   3.911  34.661  18.054  0.1758 -0.1443  0.0665
34823W        W77917   5.827  34.034  15.526 -0.3466  0.0096 -0.0137
34824W        W77918   4.179  32.312  18.859 -0.0780  0.0363 -0.1546
34825W        W77919   4.623  33.200  17.305 -0.2819 -0.2323  0.0807
34826W        W77920   3.228  33.040  18.250 -0.1458 -0.2395  0.1134
34827W        W77921   6.148  33.661  19.138 -0.1490  0.2015 -0.0274
34828W        W77922   3.326   0.746  17.004 -0.0330 -0.1644 -0.1945
34829W        W77923   5.080   0.643  16.436  0.2138  0.0068 -0.0655
34830W        W77924   7.018  33.559  16.434  0.2595 -0.1956  0.3868
34831W        W77925   4.208  32.875  17.537  0.0933 -0.0862 -0.1020
34832W        W77926   6.574  31.479  18.860 -0.3878  0.3690 -0.2977
34833W        W77927   3.163  33.593  16.531  0.0118  0.0342  0.1676
34834W        W77928   2.878  33.527  18.105 -0.1445  0.0973  0.1040
34835W        W77929   4.644   0.091  18.034  0.0463  0.0777  0.1685
34836W        W77930   3.987  33.212  18.865  0.1960 -0.0916  0.0386
34837W        W77931   5.628  34.217  17.646 -0.0660  0.1871 -0.1543
34838W        W77932   6.276  33.229  19.260  0.2062 -0.2474 -0.0273
34839W        W77933   6.597  34.594  18.176 -0.1711  0.0639 -0.1490
34840W        W77934   6.140   1.119  16.899  0.1414  0.0740 -0.0376
34841W        W77935   7.134  33.297  18.919  0.5385 -0.1103  0.2454
34842W        W77936   7.051  33.798  16.970 -0.0516  0.0471  0.2690
34843W        W77937   4.542  33.157  16.496 -0.0524  0.1721 -0.1960
34844W        W77938   7.286  32.498  16.338  0.1229  0.1680  0.2096
34845W        W77939   4.409  32.152  18.199 -0.2833 -0.2929 -0.0982
34846W        W77940   4.627  33.322  18.282 -0.0164 -0.2970 -0.1069
34847W        W77941   6.492  34.299  16.239  0.0169  0.4226  0.3345
34848W        W77942   6.693  34.068  17.225 -0.1067  0.1637  0.0067
34849W        W77943   4.043  33.824  16.819  0.0664  0.2693  0.0322
34850W        W77944   3.136  34.207  16.353  0.2333  0.5866 -0.3120
34851W        W77945   5.054  34.684  19.650 -0.2713  0.1485 -0.0264
34852W        W77946   3.279  34.096  19.637  0.1158  0.0794 -0.1491
34853W        W77947   3.495  33.417  16.006  0.0355 -0.0470  0.0099
34854W        W77948   6.280  32.692  17.006 -0.0111  0.0583  0.0833
34855W        W77949   6.609  32.678  18.279  0.2833 -0.0410 -0.0404
34856W        W77950   5.685  30.048  18.718 -0.0960 -0.1645 -0.0763
34857W        W77951   7.325  34.223  16.598 -0.4977 -0.1300  0.1115
34858W        W77952   6.361  34.140  18.211  0.3145 -0.0856 -0.4366
34859W        W77953   2.829  32.101  19.688 -0.0416 -0.0904  0.0500
34860W        W77954   6.721  33.592  17.311 -0.0306 -0.0874  0.3399
34861W        W77955   3.430  33.110  21.214 -0.1678 -0.0986  0.0854
34862W        W77956   6.855  33.103  18.141  0.0352 -0.1683  0.0877
34863W        W77957   6.674  34.512  15.817 -0.2773  0.0136  0.0042
34864W        W77958   4.183  33.752  20.265 -0.3126 -0.0404  0.0072
34865W        W77959   3.358  33.715  17.041  0.0928 -0.1055 -0.1343
34866W        W77960   4.472  32.522  18.499 -0.2266 -0.1071  0.1686
34867W        W77961   2.595  32.904  17.619  0.1781  0.0606  0.0049
34868W        W77962   6.859  34.399  19.188  0.0959  0.5086  0.1723
34869W        W77963   2.962  32.826  16.506  0.1582  0.1136  0.0249
34870W        W77964   4.877  34.517  17.059  0.0902 -0.0262  0.0186
34871W        W77965   3.970  34.316  16.484  0.1059 -0.1354  0.0778
34872W        W77966   6.255  32.334  18.567  0.0230 -0.3551 -0.1900
34873W        W77967   3.264  33.671  20.137 -0.4168 -0.0136  0.0031
34874W        W77968   2.924  33.891  16.891 -0.0992  0.1982  0.3298
34875W        W77969   2.971  33.519  17.250 -0.3543 -0.1589  0.0652
34876W        W77970   6.308  33.150  18.313  0.1741 -0.0380 -0.1884
34877W        W77971   6.973  34.409  16.975  0.0094  0.2494 -0.1400
34878W        W77972   2.983  32.873  15.511 -0.1647  0.0346  0.1188
34879W        W77973   4.558  34.223  17.420 -0.3496 -0.0475 -0.1352
34880W        W77974   6.540  33.596  16.835  0.0248  0.0316  0.0145
34881W        W77975   5.170  32.459  19.435  0.0133  0.2639 -0.1247
34882W        W77976   4.042  33.468  17.953  0.0339  0.0026 -0.2835
34883W        W77977   3.730   0.644  16.598  0.2707  0.1092 -0.2360
34884W        W77978   5.130  32.085  16.628 -0.2825 -0.0080 -0.1150
34885W        W77979   6.177  33.082  15.523 -0.1620 -0.0987 -0.0020
34886W        W77980   5.427  32.579  16.055 -0.1621 -0.4157 -0.3816
34887W        W77981   4.799  33.601  17.680 -0.2366  0.0242 -0.2334
34888W        W77982   4.498   0.321  15.858  0.2964  0.0740  0.2001
34889W        W77983   6.427  34.129  18.851  0.2548  0.0558  0.2337
34890W        W77984   4.050  33.371  16.095  0.6168  0.2306  0.2293
34891W        W77985   4.993  33.119  17.764  0.2167 -0.2699 -0.2873
34892W        W77986   7.313  33.080  18.299  0.0132  0.0027 -0.0883
34893W        W77987   3.827  33.142  17.659  0.1265 -0.0172 -0.0904
34894W        W77988   5.251  32.635  18.393 -0.0337 -0.0481  0.1737
34895W        W77989   7.769   0.621  18.903  0.1316 -0.1428  0.0672
34896W        W77990   7.555  34.032  16.995 -0.0096  0.1362  0.1513
34897W        W77991   7.526  34.613  16.993  0.0011  0.2450 -0.1440
34898W        W77992   4.564  33.636  16.243  0.0298  0.0361  0.2263
34899W        W77993   5.397  32.258  18.043  0.2390  0.0571  0.0763
34900W        W77994   6.037  33.170  17.840  0.0239 -0.1782  0.0856
34901W        W77995   4.735   0.009  16.213 -0.2319 -0.1710  0.0271
34902W        W77996   4.004  32.434  18.344 -0.0582  0.1694  0.0447
34903W        W77997   6.956  33.903  17.712 -0.0319 -0.1345 -0.2681
34904W        W77998   4.374  33.408  16.888  0.0769 -0.0348  0.0718
34905W        W77999   3.538  33.533  17.769  0.1823  0.2977 -0.2004
34906W        W78000   5.698  32.565  17.754 -0.1460  0.0871  0.2249
34907W        W78001   3.118  33.709  19.380  0.3660  0.4043  0.1055
34908W        W78002   5.841  31.565  17.531  0.0824 -0.0030 -0.1074
34909W        W78003   6.105   0.417  18.796  0.0993 -0.2074 -0.1354
34910W        W78004   6.987  33.297  16.909 -0.1727 -0.2683  0.0232
34911W        W78005   4.500  34.223  18.884  0.1645  0.2900 -0.3955
34912W        W78006   3.635  33.927  16.117  0.0507  0.0666 -0.0499
34913W        W78007   7.050  32.868  19.875 -0.2219 -0.0271 -0.0056
34914W        W78008   5.361  34.344  17.246 -0.0535  0.0429 -0.2247
34915W        W78009   4.090  33.890  16.276  0.1505  0.1486  0.0100
34916W        W78010   5.181  32.655  20.027  0.0601  0.0091  0.1737
34917W        W78011   4.953   0.513  19.625 -0.2167  0.2218  0.0792
34918W        W78012   5.479  33.409  17.910  0.2697  0.1008 -0.4121
34919W        W78013   6.913  33.957  18.936 -0.0034 -0.2109 -0.0358
34920W        W78014   5.813   0.156  17.772  0.1255 -0.0643  0.0379
34921W        W78015   4.903  32.464  18.773  0.1686  0.1225 -0.1110
34922W        W78016   6.608  33.822  18.525  0.2310  0.4033 -0.1594
34923W        W78017   5.841  34.011  18.045 -0.0659 -0.2519 -0.3208
34924W        W78018   7.211  33.096  15.853 -0.2997  0.0172  0.2322
34925W        W78019   5.304  32.758  17.940  0.0638  0.2900 -0.2562
34926W        W78020   7.220   0.548  17.472 -0.1630 -0.0734 -0.1324
34927W        W78021   6.143  34.654  16.429  0.3106  0.2588  0.2002
34928W        W78022   6.633  32.033  18.682  0.1883 -0.0159  0.0739
34929W        W78023   4.889  31.650  18.707 -0.3457 -0.2667  0.1673
34930W        W78024   3.767  33.582  20.535 -0.0157  0.1300 -0.1635
34931W        W78025   4.491  33.165  19.023 -0.0850 -0.0883 -0.1959
34932W        W78026   5.153  32.544  17.530  0.2828  0.2758  0.0772
34933W        W78027   3.957  33.108  16.555  0.1046 -0.0179 -0.0811
34934W        W78028   3.763   1.127  18.441  0.0133 -0.0395  0.3377
34935W        W78029   7.377   0.397  18.597  0.1261 -0.3232  0.1445
34936W        W78030   4.365  34.594  17.191 -0.1109  0.1569 -0.1739
34937W        W78031   7.111   0.060  17.325  0.0188  0.1417 -0.2304
34938W        W78032   3.651  32.895  18.500  0.3102 -0.0935 -0.2200
34939W        W78033   5.604  31.801  17.916  0.0124 -0.0990  0.0317
34940W        W78034   6.117  31.905  17.745 -0.1227 -0.3854  0.0960
34941W        W78035   7.115  33.773  18.493  0.0291  0.0310  0.1885
34942W        W78036   5.468   0.228  18.884  0.2793 -0.0944 -0.2887
34943W        W78037   2.075  32.615  20.771  0.4044 -0.1355 -0.0008
34944W        W78038   6.703  33.158  15.649  0.1480 -0.1779  0.0790
34945W        W78039   7.681  34.349  17.554 -0.0133 -0.2806  0.2424
34946W        W78040   7.746  34.061  15.433  0.4203 -0.1134  0.1733
34947W        W78041   5.367  33.788  17.532 -0.1991  0.0085 -0.2271
34948W        W78042   3.249  33.332  19.016  0.0803 -0.1186 -0.1428
34949W        W78043   7.683   1.136  18.987 -0.0360 -0.1634 -0.0648
34950W        W78044   3.769  33.048  15.818 -0.1904 -0.0264 -0.1491
34951W        W78045   5.980  34.361  18.497  0.1536 -0.1706  0.1683
34952W        W78046   7.137   0.094  16.576 -0.0575  0.1286  0.1189
34953W        W78047   1.939  32.671  19.239  0.1479 -0.3323 -0.1672
34954W        W78048   4.158  33.281  15.599  0.0538  0.2565 -0.1243
34955W        W78049   3.364  34.495  16.729  0.2777 -0.1103 -0.1485
34956W        W78050   5.434  33.620  15.894 -0.3822  0.1086  0.0984
34957W        W78051   8.275  33.837  19.393  0.3164  0.0261 -0.0436
34958W        W78052   4.948  31.262  18.406 -0.0524  0.1189 -0.0007
34959W        W78053   2.968  32.733  17.953 -0.1706  0.5749 -0.2514
34960W        W78054   5.500  32.936  17.530 -0.1685 -0.2033  0.0847
34961W        W78055   5.983  33.212  16.797  0.1354  0.0045 -0.0966
34962W        W78056   7.207  33.538  18.112  0.1269 -0.0423 -0.3597
34963W        W78057   4.354  34.510  18.370  0.3529  0.3432 -0.0412
34964W        W78058   3.485  33.265  19.726  0.2403 -0.2541  0.2074
34965W        W78059   2.861  32.563  16.916  0.0463 -0.3319  0.1155
34966W        W78060   3.518  33.956  16.619 -0.0593 -0.0009  0.1501
34967W        W78061   6.679  33.117  17.340  0.3139  0.0426 -0.3121
34968W        W78062   7.235  34.222  17.362 -0.0251 -0.0293  0.1292
34969W        W78063   8.027  32.901  18.290  0.1926  0.1611  0.0139
34970W        W78064   3.746   0.164  18.495 -0.1437 -0.0157  0.3720
34971W        W78065   3.948  32.224  16.459 -0.2158 -0.0306  0.1407
34972W        W78066   3.990  34.448  18.797  0.0581  0.2721  0.1854
34973W        W78067   6.130  33.653  18.061  0.1313 -0.0257  0.0454
34974W        W78068   3.539  34.432  16.275 -0.1439 -0.0628 -0.0462
34975W        W78069   5.229  33.314  17.396 -0.0649 -0.2000  0.3064
34976W        W78070   6.469  31.094  17.910  0.0047  0.2892  0.1549
34977W        W78071   4.643  34.070  18.405 -0.1814  0.0515  0.0889
34978W        W78072   2.449  33.249  17.213  0.1435 -0.3486  0.1097
34979W        W78073   6.511   0.351  17.948  0.0184  0.0168  0.0123
34980W        W78074   3.884  32.897  18.061 -0.3095  0.1862 -0.0501
34981W        W78075   7.220  32.464  18.565  0.1136  0.5795 -0.1585
34982W        W78076   4.412  33.789  17.219  0.0885 -0.0059 -0.2604
34983W        W78077   7.047   0.177  17.826 -0.0323  0.2877  0.1417
34984W        W78078   4.015  34.029  18.097  0.4658 -0.0248  0.2572
34985W        W78079   4.450  34.208  16.217 -0.1678 -0.1418 -0.0172
34986W        W78080   7.896  33.740  18.799  0.1502 -0.3616 -0.1616
34987W        W78081   5.335   0.265  16.291 -0.0498  0.0313 -0.3784
34988W        W78082   2.650  33.772  16.375  0.1597  0.0085 -0.2231
34989W        W78083   6.702  33.210  16.343  0.1220  0.2476  0.1533
34990W        W78084   4.597  33.835  16.758 -0.1498 -0.1870 -0.0378
34991W        W78085   5.072  34.118  18.640 -0.1247 -0.1424  0.1490
34992W        W78086   3.412  33.078  16.419  0.2243 -0.1368  0.0216
34993W        W78087   6.790  34.359  18.601 -0.3469 -0.2007  0.0886
34994W        W78088   5.793  34.407  16.833  0.0484 -0.2626  0.0778
34995W        W78089   4.106  33.945  18.753 -0.0316 -0.0299 -0.2026
34996W        W78090   3.813  32.746  16.201  0.2634 -0.0285 -0.2235
34997W        W78091   4.145  33.330  17.293 -0.2625  0.1320  0.1261
34998W        W78092   5.657  33.975  17.080 -0.0838  0.0701  0.1217
34999W        W78093   7.240  34.390  17.883 -0.1500 -0.0711 -0.2260
35000W        W78094   7.044  32.016  17.948 -0.2680  0.5418  0.2027
35001W        W78095   5.490  32.574  16.927  0.1468 -0.2129  0.1823
35002W        W78096   3.773  32.949  17.170 -0.1386  0.1472  0.0253
35003W        W78097   7.426  33.463  16.660 -0.1328  0.1306  0.2435
35004W        W78098   6.232  32.428  17.655 -0.0842 -0.0523  0.5371
35005W        W78099   5.298  34.604  17.696 -0.0102 -0.0688 -0.0277
35006W        W78100   3.125  33.781  16.062  0.0168 -0.1454 -0.0995
35007W        W78101   5.427  33.048  18.688  0.1185 -0.0828 -0.2169
35008W        W78102   3.388  34.587  18.719 -0.0303  0.1801  0.1463
35009W        W78103   4.886  34.533  18.375  0.2238 -0.0049 -0.2656
35010W        W78104   3.754   0.137  16.478  0.4055  0.2235 -0.1397
35011W        W78105   3.293  33.555  18.474  0.0222 -0.0085 -0.1167
35012W        W78106   2.388  34.200  17.554 -0.1578 -0.0402  0.0859
35013W        W78107   5.002   0.194  16.703  0.0183  0.0570  0.0027
35014W        W78108   4.466  34.374  19.720  0.0818  0.1020  0.1383
35015W        W78109   5.811  32.157  18.856 -0.0051  0.1095  0.1363
35016W        W78110   3.026  33.232  15.906  0.0145 -0.0447  0.0103
35017W        W78111   5.356   0.474  16.810 -0.3405 -0.1995  0.1177
35018W        W78112   2.239  33.334  19.949 -0.0082  0.0434 -0.0048
35019W        W78113   6.840  31.404  19.379  0.0960  0.0010  0.0082
35020W        W78114   6.690  34.556  17.660 -0.2695  0.2816 -0.0755
35021W        W78115   3.207  32.505  18.665  0.0042  0.1060  0.0762
35022W        W78116   4.994  33.737  18.177 -0.1675 -0.0304 -0.1046
35023W        W78117   5.777  33.464  17.231  0.2062 -0.1118 -0.0608
35024W        W78118   3.668  33.755  18.860  0.1341 -0.2179 -0.1112
35025W        W78119   6.608  33.773  16.268 -0.1279  0.5784 -0.1965
35026W        W78120   5.895  33.757  17.596 -0.0301 -0.0662  0.4478
35027W        W78121   5.718  33.594  16.768 -0.1198  0.0443 -0.4785
35028W        W78122   7.232  33.951  15.505 -0.0333 -0.3552 -0.1953
35029W        W78123   3.079  32.245  18.233  0.1363  0.0390  0.0531
35030W        W78124   3.118  34.202  17.198  0.2007  0.1677 -0.0428
35031W        W78125   5.655  34.473  18.099 -0.0226  0.0187 -0.0866
35032W        W78126   6.877  34.088  18.159  0.4990 -0.3311  0.2546
35033W        W78127   3.208  33.184  16.880  0.3146 -0.0584  0.0404
35034W        W78128   5.068  32.904  17.201  0.3373  0.1221  0.1480
35035W        W78129   4.199  32.941  18.444  0.1095  0.3471  0.0802
35036W        W78130   6.657  33.501  19.216  0.0380 -0.1171 -0.1983
35037W        W78131   5.975   0.710  20.280 -0.0292 -0.2127  0.0514
35038W        W78132   3.479  32.300  19.842 -0.1240  0.0776  0.0002
35039W        W78133   5.463  32.939  21.972 -0.0580 -0.0863 -0.0988
35040W        W78134   5.495  34.427  18.638 -0.0168  0.3723  0.0410
35041W        W78135   5.382  33.467  19.755 -0.0761 -0.2715 -0.0199
35042W        W78136   4.347  31.755  19.653  0.0236  0.3112  0.1001
35043W        W78137   4.454  32.104  23.004  0.2459 -0.0702 -0.1026
35044W        W78138   6.156  34.168  22.871 -0.1309 -0.1883 -0.1704
35045W        W78139   2.220  34.636  20.628  0.0297 -0.1283  0.0994
35046W        W78140   5.273  33.134  21.507 -0.1698 -0.1091 -0.3583
35047W        W78141   4.615  32.153  19.046 -0.0038  0.0232 -0.2581
35048W        W78142   5.246  33.677  20.571  0.2139 -0.3790 -0.0170
35049W        W78143   5.139  33.056  23.315  0.2192  0.1531  0.0622
35050W        W78144   4.719  33.483  19.381  0.1012  0.1575 -0.0926
35051W        W78145   4.072  31.909  20.719  0.3517  0.0492 -0.1109
35052W        W78146   4.353  34.253  23.620 -0.1789  0.2466 -0.3297
35053W        W78147   6.302  34.157  21.109 -0.3154 -0.2163  0.2404
35054W        W78148   6.489  33.101  20.082 -0.1525  0.2028 -0.3011
35055W        W78149   6.983   1.108  22.542  0.2726 -0.1709 -0.1773
35056W        W78150   6.709  34.174  22.324  0.0564 -0.0282  0.0166
35057W        W78151   5.806  32.895  20.714 -0.0594 -0.0070 -0.1658
35058W        W78152   7.308  34.057  23.458  0.0092 -0.0828 -0.0008
35059W        W78153   6.564  33.979  19.340 -0.0845  0.0414  0.1715
35060W        W78154   4.974  32.924  19.040  0.2649  0.1253 -0.0275
35061W        W78155   4.846  32.373  20.278  0.2256  0.0899 -0.0305
35062W        W78156   5.259  32.441  21.891 -0.0326  0.1348  0.0909
35063W        W78157   4.489  32.176  20.987 -0.0624  0.1802  0.0500
35064W        W78158   5.754  33.310  19.373  0.0174 -0.0437 -0.1801
35065W        W78159   5.153  33.583  21.122  0.1564  0.1294 -0.0048
35066W        W78160   4.137  33.232  21.612  0.4124 -0.0851 -0.0689
35067W        W78161   5.288  34.250  21.080 -0.0609  0.2622 -0.3288
35068W        W78162   3.686  33.667  23.703 -0.2417  0.0897  0.0935
35069W        W78163   2.908  33.916  24.559 -0.2049  0.2264  0.0890
35070W        W78164   3.663  33.344  19.294  0.0687 -0.0600 -0.0087
35071W        W78165   7.102  33.362  21.383 -0.2186  0.5493 -0.1806
35072W        W78166   4.623  32.732  21.095  0.0616  0.0577  0.1335
35073W        W78167   5.523  32.805  23.084 -0.1877  0.1043 -0.1858
35074W        W78168   7.052   1.312  19.668  0.3712  0.1340  0.0120
35075W        W78169   5.581  33.526  21.443 -0.3405  0.1723 -0.0895
35076W        W78170   4.548  32.921  21.981 -0.3930 -0.0158 -0.3133
35077W        W78171   7.382  32.594  19.431  0.1622  0.1117 -0.4528
35078W        W78172   5.093  32.348  22.346 -0.0992  0.0795 -0.2094
35079W        W78173   5.779  32.534  20.336  0.2232  0.0049 -0.2791
35080W        W78174   6.759  33.157  19.617 -0.0756 -0.0492 -0.1199
35081W        W78175   4.401  33.020  23.535  0.0842  0.1470 -0.0929
35082W        W78176   4.253  33.393  19.625 -0.2757  0.2592 -0.1766
35083W        W78177   4.703  33.148  22.971  0.1978 -0.0103  0.0214
35084W        W78178   3.479  33.431  21.995  0.2554  0.1136 -0.0073
35085W        W78179   6.565  33.664  23.717  0.0693 -0.4063  0.1191
35086W        W78180   3.509  32.903  20.084 -0.0411 -0.1491 -0.2440
35087W        W78181   6.475  34.042  19.858  0.0564 -0.1185 -0.0951
35088W        W78182   4.940  34.288  20.039 -0.1781 -0.0737  0.1347
35089W        W78183   7.079  33.199  22.575 -0.2179  0.1460 -0.0685
35090W        W78184   4.154  32.333  21.882 -0.1585 -0.1096 -0.2924
35091W        W78185   4.717  33.689  20.435  0.1517  0.0795  0.2105
35092W        W78186   5.365  33.163  20.201  0.1172  0.0934  0.1462
35093W        W78187   7.964  32.354  22.954  0.0739  0.1162 -0.1371
35094W        W78188   5.248  34.286  22.204  0.2329 -0.0949 -0.2181
35095W        W78189   4.824  32.051  19.478  0.3137  0.2240 -0.1685
35096W        W78190   3.876  32.506  20.400  0.1073  0.1468  0.1488
35097W        W78191   5.433  32.817  22.474  0.2449  0.2026 -0.0846
35098W        W78192   3.258  32.929  25.614 -0.3699 -0.1294  0.1391
35099W        W78193   7.004  33.628  22.768 -0.3495  0.2370 -0.0036
35100W        W78194   4.437   0.979  21.544  0.0310  0.0341  0.1873
35101W        W78195   6.270  32.789  21.227  0.0393  0.0616 -0.1401
35102W        W78196   6.030  33.056  19.699 -0.0118  0.0880  0.0920
35103W        W78197   5.855  32.999  20.174  0.0162  0.1490 -0.2694
35104W        W78198   5.816  32.853  19.148  0.0063 -0.2054  0.0605
35105W        W78199   5.177  33.205  18.265 -0.0143  0.1939 -0.3175
35106W        W78200   5.716  32.390  23.401  0.1265 -0.1006  0.1640
35107W        W78201   4.822  32.829  18.197 -0.1196  0.0972  0.2241
35108W        W78202   5.195  32.715  21.108 -0.0950 -0.0260 -0.1440
35109W        W78203   5.952  33.275  21.211 -0.1096  0.1067  0.0338
35110W        W78204   6.724  33.781  20.168 -0.0520  0.3147  0.0465
35111W        W78205   4.951  33.199  21.942  0.0180  0.0007  0.1016
35112W        W78206   7.016  34.253  23.122 -0.2615 -0.1411  0.0598
35113W        W78207   5.807   0.028  20.225  0.1456 -0.3605  0.2181
35114W        W78208   4.676  33.677  22.315  0.0064 -0.0691  0.0475
35115W        W78209   3.790  33.615  19.844  0.3177 -0.2371  0.1653
35116W        W78210   6.723  32.944  21.104 -0.2089 -0.0347 -0.1268
35117W        W78211   6.253  33.431  22.003 -0.0581  0.0170 -0.1062
35118W        W78212   4.656  31.942  20.020  0.0816  0.1440 -0.1330
35119W        W78213   5.152  33.241  22.368  0.0144  0.2227 -0.0563
35120W        W78214   6.400  32.608  22.622  0.1192  0.5016  0.0925
35121W        W78215   4.574  33.198  20.684 -0.0335 -0.3016  0.2044
35122W        W78216   4.638  33.850  19.850  0.2066  0.0413  0.1760
35123W        W78217   7.906  32.867  21.859 -0.0303 -0.1774 -0.1086
35124W        W78218   4.623  31.734  23.338 -0.1545 -0.1036 -0.1527
35125W        W78219   4.205  32.934  22.499  0.1073  0.3732  0.1130
35126W        W78220   6.856  33.568  22.308 -0.2075  0.2620  0.2068
35127W        W78221   5.528  32.912  19.615 -0.0995 -0.0531  0.0006
35128W        W78222   4.470   1.464  23.669 -0.0878  0.0540  0.1455
35129W        W78223   1.843  33.490  20.462 -0.3159 -0.0410  0.3285
35130W        W78224   5.888  33.277  21.711 -0.0589  0.0414 -0.4226
35131W        W78225   4.501  34.175  20.274 -0.2328  0.1098 -0.0164
35132W        W78226   4.556  33.725  18.850 -0.2237 -0.3262 -0.1117
35133W        W78227   4.637  33.946  22.712  0.0743  0.4107 -0.3571
35134W        W78228   4.874  32.361  21.313 -0.2274  0.1637 -0.0095
35135W        W78229   3.944  33.059  21.196 -0.1227  0.1300 -0.1309
35136W        W78230   5.088  33.845  20.099  0.5681  0.2461  0.2464
35137W        W78231   5.841  33.358  22.308  0.1748  0.0518 -0.0444
35138W        W78232   6.166  31.820  22.516 -0.0902  0.0792  0.0708
35139W        W78233   6.123  33.974  22.425 -0.0083 -0.1592 -0.1394
35140W        W78234   5.071  31.965  22.657 -0.3500  0.2068  0.0689
35141W        W78235   7.296  31.741  19.337 -0.1446  0.1536 -0.1662
35142W        W78236   5.272  32.667  20.592 -0.3486  0.0804 -0.0120
35143W        W78237   7.333  32.013  23.558 -0.2563  0.1570  0.1248
35144W        W78238   5.612  33.780  19.382  0.0395  0.0552  0.0057
35145W        W78239   6.775  33.552  21.802 -0.1830 -0.0246 -0.2023
35146W        W78240   4.806  32.380  22.787 -0.2787 -0.2035 -0.0085
35147W        W78241   4.076  32.865  21.985  0.2413 -0.2497  0.1206
35148W        W78242   4.236  32.604  23.380  0.0453 -0.1411 -0.2001
35149W        W78243   5.318  32.168  20.398 -0.1205 -0.0337 -0.2287
35150W        W78244   3.701  34.135  18.535  0.3201 -0.3565 -0.1853
35151W        W78245   5.571   0.071  21.100 -0.1765  0.4321 -0.1062
35152W        W78246   6.405  33.566  19.717 -0.1649  0.0625  0.1697
35153W        W78247   4.742   0.000  21.859 -0.0122  0.0133  0.0720
35154W        W78248   7.131  33.632  20.622 -0.0531  0.2371 -0.0950
35155W        W78249   5.860  32.975  22.748 -0.1913 -0.0958 -0.1354
35156W        W78250   7.447  33.011  22.236  0.3922 -0.0503 -0.2263
35157W        W78251   4.852  34.149  21.870 -0.1810 -0.0567  0.1067
35158W        W78252   6.318  34.505  22.047 -0.0122  0.0558  0.1379
35159W        W78253   5.478  34.041  21.802 -0.2847  0.0846 -0.4211
35160W        W78254   4.312  32.162  24.289 -0.2039  0.1546  0.2224
35161W        W78255   7.169  34.165  19.484 -0.2359 -0.0447 -0.0573
35162W        W78256   6.803  33.015  22.179  0.0715  0.3552 -0.2257
35163W        W78257   6.552  34.448  20.167  0.3781  0.2077 -0.1197
35164W        W78258   5.807  33.441  18.364  0.3134  0.1390  0.0681
35165W        W78259   5.228   0.134  22.112  0.1702  0.4446 -0.1804
35166W        W78260   6.039  33.962  24.190 -0.0036  0.1685  0.0302
35167W        W78261   4.967  31.879  21.165  0.2062  0.0414  0.0698
35168W        W78262   6.028  34.257  21.613 -0.3065  0.3456 -0.0526
35169W        W78263   5.112  33.812  19.553  0.0011 -0.1665 -0.1963
35170W        W78264   4.155  32.425  21.318 -0.1271  0.0897 -0.0248
35171W        W78265   4.987  33.295  18.781 -0.1574 -0.1382  0.0621
35172W        W78266   3.782   0.308  19.546 -0.3429 -0.0444 -0.1634
35173W        W78267   5.421  31.298  19.746  0.0818 -0.2251 -0.2533
35174W        W78268   6.891  34.305  23.663  0.2092  0.2573  0.0759
35175W        W78269   5.927  32.865  22.183 -0.0639 -0.1908 -0.1002
35176W        W78270   5.528  31.711  22.534 -0.1894 -0.1435 -0.1231
35177W        W78271   5.584  33.711  20.943  0.0521 -0.0294  0.1211
35178W        W78272   3.742  34.554  20.425  0.0815 -0.0903 -0.1762
35179W        W78273   6.480  34.585  21.525  0.0363  0.3069 -0.1744
35180W        W78274   4.185   0.986  20.599  0.1820 -0.2669 -0.0735
35181W        W78275   3.751  32.831  23.456 -0.1480  0.2467 -0.1190
35182W        W78276   4.675  33.171  22.455 -0.0627 -0.1660  0.0097
35183W        W78277   6.108  32.667  18.078 -0.0532  0.0161  0.2594
35184W        W78278   5.888  33.337  18.824  0.1834  0.2871 -0.1534
35185W        W78279   6.901  33.781  19.727  0.2457  0.0628  0.2432
35186W        W78280   6.720  32.603  20.213  0.1248 -0.2877  0.0073
35187W        W78281   4.866  32.810  21.517  0.2714  0.0231 -0.1595
35188W        W78282   4.665  32.946  18.658 -0.1195 -0.2197  0.1563
35189W        W78283   4.294  33.464  22.570 -0.0872  0.2251 -0.2912
35190W        W78284   7.640  33.632  23.333 -0.0363  0.4314  0.3613
35191W        W78285   3.940  33.060  19.864 -0.1492  0.0759 -0.0615
35192W        W78286   5.067  33.700  21.783 -0.1252 -0.0710 -0.2156
35193W        W78287   6.151  32.382  22.047  0.4701  0.0899  0.0247
35194W        W78288   5.603  33.361  20.590 -0.2446  0.1091 -0.2163
35195W        W78289   4.055  33.015  19.313  0.1228 -0.4267 -0.0750
35196W        W78290   7.273  32.629  20.283  0.1008 -0.2200  0.0751
35197W        W78291   4.681  33.457  23.487 -0.0258  0.0508  0.1079
35198W        W78292   7.046  32.127  22.707  0.1597  0.2283 -0.2084
35199W        W78293   3.858  32.353  20.882 -0.0813  0.0589  0.1105
35200W        W78294   6.259  32.281  20.405  0.1339 -0.1574  0.0903
35201W        W78295   4.338  32.542  22.781  0.1857 -0.2213  0.3712
35202W        W78296   4.217   0.348  20.455 -0.2592 -0.0852 -0.0593
35203W        W78297   7.499  33.704  22.230  0.0594  0.2562  0.2888
35204W        W78298   5.367  34.178  19.096 -0.3265  0.1188 -0.2109
35205W        W78299   3.561  31.658  20.711 -0.0645  0.0657 -0.0113
35206W        W78300   5.802  32.666  18.631  0.0861 -0.2906 -0.3088
35207W        W78301   3.984   1.388  20.912 -0.0697  0.4191 -0.0855
35208W        W78302   5.260  34.534  23.108  0.0344  0.1013 -0.2647
35209W        W78303   5.107  33.227  20.638  0.1279  0.0692  0.5072
35210W        W78304   7.425  33.828  22.957 -0.2992 -0.0535 -0.0092
35211W        W78305   6.247   0.122  20.489  0.0907 -0.0599  0.1360
35212W        W78306   4.436  33.430  21.945 -0.0524 -0.2293  0.2444
35213W        W78307   5.447  33.169  21.033 -0.0981  0.0766  0.0865
35214W        W78308   5.358   0.546  21.865  0.0001 -0.0428  0.1966
35215W        W78309   8.040  34.100  21.380  0.2270  0.2230  0.0133
35216W        W78310   7.606  32.599  22.116 -0.1436  0.5199 -0.2254
35217W        W78311   7.104  32.862  23.306  0.0544  0.1591 -0.0617
35218W        W78312   6.603  33.493  20.590 -0.2982 -0.1408 -0.1930
35219W        W78313   6.502  31.253  22.144 -0.0589 -0.1712 -0.0685
35220W        W78314   5.594  32.346  19.894 -0.1313  0.3214  0.3718
35221W        W78315   5.433  32.521  18.994 -0.4166  0.0688  0.0637
35222W        W78316   5.270  34.599  22.597 -0.1289  0.1765  0.0175
35223W        W78317   4.087  34.651  19.654 -0.1287  0.1078  0.0364
35224W        W78318   6.289  33.113  23.085  0.2597 -0.0427 -0.1971
35225W        W78319   5.042  33.140  23.894 -0.1673  0.1439 -0.1830
35226W        W78320   4.025   1.271  21.383  0.2041 -0.2787 -0.2231
35227W        W78321   4.511  33.925  19.326 -0.3527 -0.2078 -0.0333
35228W        W78322   4.131  31.685  23.164  0.3837 -0.1984 -0.0149
35229W        W78323   3.483  31.825  21.719  0.0481  0.1020 -0.1882
35230W        W78324   4.867  33.393  19.991 -0.0258 -0.2524 -0.0263
35231W        W78325   5.173  33.815  22.322 -0.1294  0.1789  0.1526
35232W        W78326   5.356  33.264  22.880 -0.3805 -0.1309 -0.0603
35233W        W78327   2.956  32.777  20.303  0.2004 -0.1771  0.3153
35234W        W78328   5.500  33.542  21.965 -0.0494 -0.0024  0.0183
35235W        W78329   5.019  31.929  23.126 -0.0024 -0.0990  0.2238
35236W        W78330   8.878  32.790  22.121 -0.2608  0.2983  0.1266
35237W        W78331   6.229  32.803  20.427  0.4040  0.2709  0.1239
35238W        W78332   5.498  31.947  23.462 -0.1589 -0.1707  0.1042
35239W        W78333   4.335  32.802  21.540  0.1932  0.0656 -0.1080
35240W        W78334   6.878  32.194  20.437 -0.1151 -0.0905  0.0705
35241W        W78335   4.859  34.475  22.806 -0.1625 -0.1154 -0.0608
35242W        W78336   4.974  32.950  19.689 -0.2274  0.0754  0.2012
35243W        W78337   5.576   0.633  23.222  0.1255 -0.2844  0.0675
35244W        W78338   5.269  33.373  19.212 -0.2903 -0.3830  0.0300
35245W        W78339   6.345   1.031  20.163  0.2367  0.0260  0.3281
35246W        W78340   4.209  33.818  22.193  0.1824 -0.1193  0.0390
35247W        W78341   4.704  33.448  21.518 -0.2740  0.3336  0.0346
35248W        W78342   4.428  33.253  21.141 -0.1804 -0.1272 -0.2639
35249W        W78343   6.742  33.889  20.854  0.0181 -0.0573 -0.1297
35250W        W78344   4.927  34.029  21.359  0.2311  0.0208 -0.2657
35251W        W78345   4.921  33.138  21.094 -0.4994 -0.0182  0.2291
35252W        W78346   5.213  34.614  23.635  0.1721 -0.0155  0.2702
35253W        W78347   5.774  33.384  23.142  0.2130 -0.1776 -0.0293
35254W        W78348   6.793   0.098  23.765  0.0451 -0.1529 -0.0381
35255W        W78349   4.140  32.941  23.937  0.2625  0.1195 -0.2524
35256W        W78350   4.268  31.576  27.065  0.0077  0.0383  0.0744
35257W        W78351   4.638   0.552  23.430 -0.0474  0.2604 -0.0407
35258W        W78352   5.861  33.322  26.714  0.0879 -0.0487 -0.2573
35259W        W78353   6.023  32.617  25.774  0.0791 -0.0868 -0.2832
35260W        W78354   3.966  31.193  26.842 -0.0692 -0.0442 -0.1681
35261W        W78355   5.251  33.712  24.405 -0.1568 -0.0997 -0.1348
35262W        W78356   4.182  34.175  24.633 -0.0394  0.1339  0.1076
35263W        W78357   5.304  32.825  27.354 -0.2650 -0.1974 -0.0738
35264W        W78358   4.953  32.871  24.504  0.0510 -0.0515  0.0309
35265W        W78359   5.631  33.687  26.405 -0.1564  0.1247 -0.0808
35266W        W78360   6.388  33.700  27.995  0.0804  0.1151  0.0780
35267W        W78361   3.320  32.509  24.091  0.0428 -0.1057 -0.3838
35268W        W78362   4.468  31.981  26.828  0.0824  0.1440  0.0175
35269W        W78363   5.611  33.034  26.394  0.2335  0.0557  0.0726
35270W        W78364   6.547  34.026  23.341 -0.0234  0.2955  0.1906
35271W        W78365   5.985  33.186  25.384  0.2570  0.0863  0.3435
35272W        W78366   6.505  34.426  27.486  0.3138 -0.2312 -0.0687
35273W        W78367   5.580   0.790  25.718  0.0354 -0.1732  0.1258
35274W        W78368   5.400  33.708  24.931  0.1834  0.1654 -0.0068
35275W        W78369   7.884  33.638  26.735 -0.0828 -0.2487 -0.1683
35276W        W78370   7.265   0.347  23.802  0.0748  0.0713  0.1063
35277W        W78371   3.628  33.207  25.287 -0.1504 -0.4186  0.0269
35278W        W78372   6.456  33.279  22.397 -0.0716  0.0460 -0.0384
35279W        W78373   5.479  33.297  23.592  0.1581  0.0785  0.0176
35280W        W78374   5.026  33.180  27.123 -0.1774 -0.1411 -0.2997
35281W        W78375   4.734  33.861  24.352  0.0699  0.3314 -0.1165
35282W        W78376   6.734  34.443  25.303 -0.0460  0.0712  0.1702
35283W        W78377   4.094  34.554  26.049 -0.2555 -0.3023 -0.1055
35284W        W78378   4.301  33.210  24.466  0.4399 -0.0746 -0.0166
35285W        W78379   5.483  34.089  25.855 -0.2402  0.2186 -0.2050
35286W        W78380   3.953  31.720  26.728 -0.0531  0.1474  0.2175
35287W        W78381   5.857  32.965  23.462  0.2042  0.0898  0.0622
35288W        W78382   7.134  34.151  25.054 -0.2775 -0.1097  0.2330
35289W        W78383   6.041  33.478  24.154  0.3811  0.2067  0.2860
35290W        W78384   4.964  31.891  26.907  0.0499  0.0851  0.0581
35291W        W78385   7.065  34.614  22.681 -0.2450 -0.1071 -0.0845
35292W        W78386   5.907  33.353  28.031 -0.1065 -0.1327 -0.0632
35293W        W78387   4.534  33.025  27.013 -0.1437  0.0443  0.1076
35294W        W78388   6.342  32.770  24.007  0.0738  0.0043 -0.1596
35295W        W78389   5.392  32.216  26.968  0.2064  0.3659  0.1124
35296W        W78390   7.050  33.664  25.029  0.1679  0.0615  0.0589
35297W        W78391   7.809   0.392  23.651 -0.0450 -0.0043  0.1844
35298W        W78392   4.458  31.688  27.528 -0.4643  0.2017  0.1863
35299W        W78393   3.467  31.760  23.989 -0.2224  0.0147 -0.1494
35300W        W78394   3.444  32.965  28.816 -0.1424 -0.2515 -0.1563
35301W        W78395   4.131  31.197  26.392  0.1902  0.2186  0.0876
35302W        W78396   7.486   0.043  26.290  0.0266 -0.0250 -0.0850
35303W        W78397   5.058  32.842  22.774 -0.1130  0.0635 -0.3695
35304W        W78398   6.440  32.936  25.395  0.1169  0.2960 -0.2484
35305W        W78399   4.568  33.313  24.863  0.1433 -0.3181  0.2149
35306W        W78400   5.557  32.531  27.741 -0.3561 -0.1392  0.1753
35307W        W78401   4.145  33.605  27.636  0.0354 -0.1119  0.0793
35308W        W78402   5.514  32.169  23.974  0.1631 -0.0065 -0.1218
35309W        W78403   4.602  32.952  24.148 -0.1713 -0.1529 -0.0020
35310W        W78404   6.134  32.869  26.799 -0.1705 -0.1926 -0.0917
35311W        W78405   5.797  33.445  24.946 -0.0342  0.1599  0.2363
35312W        W78406   4.101  32.077  22.325  0.0295 -0.2239  0.0040
35313W        W78407   4.221  34.189  25.136 -0.0598 -0.1200  0.1716
35314W        W78408   7.179  33.890  25.568  0.0315 -0.2368 -0.3440
35315W        W78409   3.596  33.829  26.746 -0.2296 -0.0795  0.1836
35316W        W78410   5.992  33.950  25.923 -0.0963 -0.0157 -0.0040
35317W        W78411   4.163  32.122  23.478  0.1645 -0.3186 -0.1177
35318W        W78412   5.310  32.119  24.764 -0.2157 -0.1066 -0.0813
35319W        W78413   6.446  33.265  24.067 -0.2735 -0.0376  0.1164
35320W        W78414   5.174  34.112  23.706  0.0367  0.1051 -0.0093
35321W        W78415   5.606  33.809  24.060 -0.1733 -0.2882 -0.2140
35322W        W78416   5.799  33.066  23.925  0.1637  0.1464  0.1255
35323W        W78417   6.900  31.107  27.029  0.2593 -0.0963  0.0545
35324W        W78418   5.390  32.870  24.130  0.0586 -0.4044 -0.0821
35325W        W78419   5.081  32.957  26.557 -0.2905 -0.1992  0.0525
35326W        W78420   6.350  33.329  26.594  0.1854 -0.0979  0.1802
35327W        W78421   6.558  33.497  26.104 -0.2077 -0.2167 -0.3555
35328W        W78422   5.828  32.034  27.095  0.1033  0.0337 -0.5007
35329W        W78423   6.704  34.053  27.731  0.0073 -0.1113 -0.0806
35330W        W78424   6.612  33.484  23.001 -0.0755 -0.0938 -0.3520
35331W        W78425   5.518  33.213  25.403  0.0130  0.1004 -0.0704
35332W        W78426   4.496  32.911  25.507  0.0232  0.0636 -0.1915
35333W        W78427   5.632  33.226  27.203 -0.1792  0.1140 -0.0059
35334W        W78428   6.692   0.080  26.788  0.1066 -0.2735 -0.4621
35335W        W78429   5.860  32.582  23.921 -0.1162  0.0696  0.2516
35336W        W78430   4.005  32.116  25.014 -0.0966 -0.0097 -0.1866
35337W        W78431   5.984  31.358  25.552  0.3859 -0.1038 -0.5162
35338W        W78432   4.973  32.784  22.226  0.2683  0.3503 -0.1478
35339W        W78433   4.455  34.217  24.164 -0.0631 -0.1183  0.0987
35340W        W78434   6.963  33.340  24.490  0.2392  0.3372 -0.1827
35341W        W78435   5.376  31.773  26.653 -0.0686 -0.2352 -0.0234
35342W        W78436   5.384  32.067  26.214  0.3283 -0.4266 -0.0506
35343W        W78437   6.519  34.255  26.908 -0.4196  0.2062 -0.0525
35344W        W78438   6.609  32.835  24.540  0.0361 -0.2424  0.0358
35345W        W78439   6.417   0.214  27.697 -0.1762  0.0090  0.0501
35346W        W78440   4.030  33.282  25.599 -0.0914 -0.0282 -0.1543
35347W        W78441   6.501  34.594  24.719  0.4585  0.0372 -0.3685
35348W        W78442   6.223  31.788  25.991 -0.1407  0.2479 -0.1550
35349W        W78443   5.206  34.459  21.600 -0.1755  0.0130  0.3971
35350W        W78444   4.784  33.378  26.743 -0.0939  0.0101 -0.0435
35351W        W78445   6.343  33.051  25.876 -0.1741  0.4382  0.2753
35352W        W78446   5.215  31.546  26.223  0.0757 -0.1608  0.3178
35353W        W78447   6.387  33.516  25.186 -0.1058  0.2186 -0.2999
35354W        W78448   6.259   0.636  26.146  0.0468  0.2656 -0.1296
35355W        W78449   6.020  33.389  26.200  0.1513 -0.0320  0.0615
35356W        W78450   6.198   0.238  26.525  0.0726 -0.2616 -0.0723
35357W        W78451   5.655  34.314  25.486 -0.0377 -0.0080  0.3972
35358W        W78452   7.482  32.406  23.192 -0.1639 -0.0808 -0.2291
35359W        W78453   6.062  34.411  24.078 -0.2188  0.0653  0.2625
35360W        W78454   6.144  33.786  26.468  0.3969 -0.2328 -0.0088
35361W        W78455   5.426  33.794  25.445 -0.0278 -0.3393 -0.0211
35362W        W78456   7.538  32.669  26.749 -0.0237 -0.1522 -0.3678
35363W        W78457   4.773  32.018  28.403  0.2943 -0.1343  0.0090
35364W        W78458   4.150  32.956  26.153  0.0670 -0.2241  0.0296
35365W        W78459   3.095  33.718  26.502 -0.1270  0.0643  0.0045
35366W        W78460   5.643  32.689  25.453 -0.0128 -0.0753 -0.0849
35367W        W78461   4.699  32.686  23.164 -0.3743  0.2156  0.1058
35368W        W78462   4.713  33.692  25.749  0.2558  0.3496 -0.1648
35369W        W78463   7.495  33.868  24.854  0.0403  0.2891  0.1190
35370W        W78464   3.577  33.222  25.920 -0.4094 -0.2184  0.1337
35371W        W78465   5.672   0.375  24.422 -0.3150  0.0426 -0.4155
35372W        W78466   4.784  33.661  27.400  0.0365 -0.0140 -0.1037
35373W        W78467   6.621  32.977  26.883 -0.0138 -0.2726  0.1010
35374W        W78468   6.753  33.946  27.258 -0.1487 -0.0925  0.0576
35375W        W78469   6.664   0.611  27.446 -0.0506 -0.0872  0.1468
35376W        W78470   5.297  33.347  26.200  0.0504  0.1265  0.0256
35377W        W78471   3.916  32.395  27.672  0.2787  0.3495  0.3348
35378W        W78472   7.609  34.521  23.684 -0.1103  0.0529 -0.2279
35379W        W78473   7.831  33.063  26.597  0.1235  0.0678 -0.2497
35380W        W78474   6.041   0.578  24.714  0.2770 -0.0990 -0.0722
35381W        W78475   7.838  34.064  25.150  0.0794  0.0067 -0.0278
35382W        W78476   3.680  32.177  23.615 -0.1828 -0.1692  0.0448
35383W        W78477   6.215  33.241  27.092 -0.1367 -0.2753  0.1145
35384W        W78478   5.392  32.756  23.620 -0.0634  0.3551 -0.1144
35385W        W78479   6.114  32.247  26.192 -0.0031 -0.3220  0.0451
35386W        W78480   7.783  33.326  23.679 -0.0921 -0.1429 -0.2485
35387W        W78481   4.547  31.862  25.588  0.3077  0.2094  0.0405
35388W        W78482   4.955  33.072  25.132  0.1411  0.2653  0.0415
35389W        W78483   4.842  33.328  24.428 -0.1909 -0.2378  0.1505
35390W        W78484   6.267  33.069  24.903  0.0312  0.1881  0.0064
35391W        W78485   7.259  33.030  26.350  0.0311 -0.3061 -0.0688
35392W        W78486   6.464  32.573  25.927  0.0203  0.0283  0.1722
35393W        W78487   5.764  32.560  27.231 -0.1373 -0.0373 -0.3073
35394W        W78488   6.138  33.922  25.438  0.2350  0.0298 -0.1783
35395W        W78489   5.792  33.070  25.793  0.0465 -0.0324 -0.0552
35396W        W78490   6.963  34.617  26.325  0.2793  0.1634 -0.1077
35397W        W78491   5.108  33.704  25.977  0.2664  0.1584  0.1643
35398W        W78492   4.609  32.875  25.997  0.1491 -0.1757 -0.2327
35399W        W78493   3.833  33.603  25.128  0.1175 -0.0319  0.3994
35400W        W78494   4.702  33.906  23.827 -0.0919 -0.3593  0.1660
35401W        W78495   6.940  32.579  22.504 -0.2820 -0.1722 -0.1603
35402W        W78496   6.696   0.373  24.610  0.2918  0.1095  0.0571
35403W        W78497   7.746   0.564  24.161 -0.2262  0.2153 -0.1728
35404W        W78498   4.961  32.694  25.632 -0.1134 -0.0085  0.4423
35405W        W78499   6.643  33.960  22.883  0.2618  0.0178 -0.3174
35406W        W78500   5.115  32.783  27.825 -0.0975  0.0870 -0.1289
35407W        W78501   8.080  32.109  27.445  0.0327  0.0935  0.0787
35408W        W78502   4.430  33.355  23.925  0.0049 -0.2251 -0.0374
35409W        W78503   4.315  33.709  24.748  0.1894 -0.0891 -0.1013
35410W        W78504   7.838  33.576  25.907 -0.0403  0.0926 -0.4538
35411W        W78505   6.922  34.390  27.149  0.0229  0.0172  0.0688
35412W        W78506   3.676  33.260  24.076 -0.2448  0.3646  0.1307
35413W        W78507   6.067  33.728  23.714  0.0966  0.0486  0.0992
35414W        W78508   4.368  34.238  26.421 -0.0030  0.0055  0.1534
35415W        W78509   6.614  33.848  26.544 -0.0575  0.2882 -0.0958
35416W        W78510   6.072  32.821  26.280 -0.1247  0.0767  0.2890
35417W        W78511   6.621  32.414  23.947  0.0191  0.1623 -0.2675
35418W        W78512   5.314  32.922  25.901  0.0916 -0.2732  0.0759
35419W        W78513   6.148  33.725  23.159  0.2543  0.0544  0.2771
35420W        W78514   8.099   0.253  26.652  0.0341 -0.3920  0.1232
35421W        W78515   6.971  32.875  23.988  0.1946 -0.0861 -0.2218
35422W        W78516   5.349  32.682  24.716  0.1133  0.0155 -0.0125
35423W        W78517   7.175  33.930  21.946  0.1962  0.1748 -0.0860
35424W        W78518   5.242  33.806  23.180 -0.0825 -0.1509 -0.0590
35425W        W78519   5.632  33.610  25.878 -0.3245  0.0032  0.1127
35426W        W78520   3.697  31.812  25.908 -0.3305  0.2401 -0.1019
35427W        W78521   6.660  34.000  24.871 -0.1629  0.2035 -0.0284
35428W        W78522   7.122   0.123  24.237 -0.1783  0.4072  0.0764
35429W        W78523   4.511  32.913  26.512 -0.1176 -0.4411  0.2473
35430W        W78524   5.717  32.453  24.941 -0.2601  0.0710  0.0917
35431W        W78525   4.910  33.234  25.716  0.1685  0.1687  0.1505
35432W        W78526   6.439  34.347  25.677 -0.0930  0.0457  0.2006
35433W        W78527   6.632  33.956  25.364  0.1523  0.0456  0.3736
35434W        W78528   7.265  32.152  28.499  0.1876  0.0707 -0.0326
35435W        W78529   4.177  33.131  25.082  0.0642  0.0294  0.1668
35436W        W78530   4.689  32.586  25.129  0.1224 -0.3532  0.1212
35437W        W78531   8.430  33.877  24.059  0.0893  0.1368 -0.2216
35438W        W78532   7.862  33.950  24.568  0.2978  0.1523 -0.3221
35439W        W78533   6.243  33.516  25.740  0.2167 -0.0086  0.1287
35440W        W78534   3.395  32.081  24.393 -0.1249 -0.2568  0.1605
35441W        W78535   6.979  31.648  27.326  0.1027  0.0953  0.1511
35442W        W78536   4.466   0.556  26.379 -0.1440 -0.0482  0.2689
35443W        W78537   3.775  34.067  24.881  0.1004 -0.0695 -0.1064
35444W        W78538   3.910  32.342  24.572  0.1771 -0.0722 -0.3557
35445W        W78539   4.540  32.011  26.301  0.1556  0.1460  0.1201
35446W        W78540   5.885  31.374  26.074 -0.1467  0.0830  0.0478
35447W        W78541   5.686  33.273  24.482  0.2169  0.0560  0.2611
35448W        W78542   6.225   0.050  27.253 -0.1293 -0.0709 -0.0095
35449W        W78543   4.974  31.935  26.448 -0.0174  0.0894  0.3972
35450W        W78544   3.664  31.840  23.228 -0.1893  0.3243 -0.0201
35451W        W78545   6.163   1.038  25.811  0.1072 -0.1189  0.2406
35452W        W78546   4.632  32.190  27.746  0.0151 -0.1033  0.3123
35453W        W78547   6.798  33.429  25.422  0.0518  0.0564  0.2664
35454W        W78548   5.384  32.223  25.668 -0.1310  0.1551  0.0541
35455W        W78549   5.591  31.934  28.310  0.0790 -0.0113 -0.1286
35456W        W78550   4.811  33.278  26.199 -0.4533 -0.0468  0.1114
35457W        W78551   6.115  32.528  25.243  0.2980 -0.0083 -0.0561
35458W        W78552   5.187  34.539  25.418  0.3313  0.1345 -0.2761
35459W        W78553   5.283  33.186  24.700  0.2167  0.1129 -0.2002
35460W        W78554   5.621   1.438  27.326 -0.1556 -0.1514  0.2254
35461W        W78555   4.832  34.416  23.314 -0.1922  0.0897 -0.1131
35462W        W78556   6.598  34.442  22.852 -0.1654 -0.2293 -0.2696
35463W        W78557   4.957  30.931  26.948 -0.2974 -0.5713 -0.1724
35464W        W78558   4.819  34.418  23.872 -0.1367  0.0902  0.2615
35465W        W78559   4.503  32.792  24.745  0.2409  0.0141 -0.0950
35466W        W78560   7.014  33.742  26.079  0.1870 -0.0544  0.1784
35467W        W78561   5.160  32.484  26.004 -0.1419  0.0537 -0.1228
35468W        W78562   6.235  33.516  24.616 -0.1829  0.1181  0.0733
35469W        W78563   4.150  33.022  27.932 -0.1310  0.0584  0.2547
35470W        W78564   7.112  33.121  27.349 -0.0703  0.0722  0.0608
35471W        W78565   7.208   0.257  27.664  0.0691  0.1877 -0.1267
35472W        W78566   4.402  32.827  28.322 -0.1581  0.0513  0.0048
35473W        W78567   5.048  33.232   0.118  0.1046  0.1770 -0.1231
35474W        W78568   6.928  34.530  27.735  0.1314  0.2137 -0.0731
35475W        W78569   5.815  32.122  30.254  0.1782  0.1463  0.1233
35476W        W78570   6.210  33.918  29.112  0.0439 -0.1566 -0.2698
35477W        W78571   3.329  31.786  31.028  0.1025 -0.2728 -0.3103
35478W        W78572   7.290  33.481  31.105  0.1734  0.0680  0.3501
35479W        W78573   5.458   0.005  27.612 -0.0865 -0.3499 -0.0924
35480W        W78574   4.569  32.818  30.491  0.2598  0.1860  0.0831
35481W        W78575   6.128  33.244  27.582 -0.0706 -0.1580  0.1061
35482W        W78576   6.170  31.907  30.626  0.1429 -0.0913  0.0179
35483W        W78577   6.778  31.877  31.676  0.0192  0.0415 -0.2607
35484W        W78578   3.130  33.192  26.946  0.2815 -0.0096  0.0316
35485W        W78579   3.552  32.529  29.577 -0.0395 -0.1185  0.2334
35486W        W78580   4.624  34.031  29.421 -0.0292  0.2029 -0.3169
35487W        W78581   7.735  32.023  28.305 -0.0410 -0.0053  0.0353
35488W        W78582   5.286  33.497  29.167 -0.0772 -0.0454 -0.1976
35489W        W78583   7.694  33.515   0.345  0.0186  0.0603 -0.0842
35490W        W78584   5.667  33.099  29.045 -0.0669  0.2801  0.0794
35491W        W78585   7.351   0.101  28.165 -0.4240 -0.2165 -0.1330
35492W        W78586   6.964  32.279   0.223 -0.2048  0.1363 -0.0598
35493W        W78587   5.917  34.404  28.192  0.2120  0.0893  0.0177
35494W        W78588   7.384  34.502  27.316  0.1632  0.1936 -0.0270
35495W        W78589   7.207  34.172  27.983 -0.2544 -0.0280  0.1870
35496W        W78590   3.686  33.213  30.308 -0.0354  0.2436 -0.1724
35497W        W78591   4.765  32.803  29.625  0.1450  0.1358 -0.0267
35498W        W78592   5.774  33.636  27.588 -0.2918  0.0312  0.1025
35499W        W78593   5.938  33.999  28.579  0.2499  0.0826  0.0118
35500W        W78594   4.386  33.932  28.659  0.0717 -0.0135  0.0949
35501W        W78595   5.868  33.684  27.115  0.0314  0.2112 -0.0055
35502W        W78596   3.797   0.685   0.419  0.2677  0.1067 -0.1203
35503W        W78597   4.760  34.523   0.750 -0.0470  0.2365  0.1895
35504W        W78598   5.068  32.381  27.467  0.0934  0.2831  0.0243
35505W        W78599   6.769  33.488  28.310 -0.2633 -0.2546  0.0424
35506W        W78600   7.058  32.593  28.753  0.0683  0.1152  0.1031
35507W        W78601   6.121  32.985  29.892 -0.0137 -0.0063  0.2958
35508W        W78602   7.581  33.909  27.789  0.5145  0.2674  0.2246
35509W        W78603   5.611   0.260  31.087 -0.0055  0.1456 -0.2927
35510W        W78604   2.731  32.897   0.321  0.4053  0.1828  0.1937
35511W        W78605   6.817  33.968  28.184  0.1695  0.3246  0.0749
35512W        W78606   3.788  33.993  30.791  0.1917  0.2412  0.1500
35513W        W78607   5.634  32.672  28.600 -0.2261  0.0787  0.1193
35514W        W78608   6.115  33.986  27.700 -0.0994  0.0397  0.3982
35515W        W78609   5.336  33.987  29.682  0.1206  0.2246  0.0870
35516W        W78610   4.279  33.418  28.675 -0.0677 -0.1860 -0.3442
35517W        W78611   3.819  33.115  31.887 -0.0795  0.0579  0.0706
35518W        W78612   3.197  32.229  29.567  0.4477  0.3328  0.0042
35519W        W78613   7.774  33.921  29.187 -0.0008 -0.1799  0.0366
35520W        W78614   3.653  32.155  28.113 -0.1354  0.0623 -0.0076
35521W        W78615   6.286  32.282  28.375  0.1074  0.0534 -0.2018
35522W        W78616   4.953   0.099  27.547 -0.2004  0.1167  0.0632
35523W        W78617   6.575  34.487  30.188  0.0825  0.2193 -0.3395
35524W        W78618   3.656  32.995  30.854  0.5647 -0.2028 -0.3474
35525W        W78619   4.353  32.925  28.822 -0.2680  0.2237 -0.2253
35526W        W78620   4.671  32.411  28.680  0.2718 -0.0909 -0.4573
35527W        W78621   6.781  32.933  29.106 -0.1373  0.2228 -0.1024
35528W        W78622   5.446  34.232  30.514  0.3374  0.1733 -0.1078
35529W        W78623   3.866  32.836  28.690 -0.4113  0.0960  0.2202
35530W        W78624   4.563  34.673  28.454 -0.1130  0.1742 -0.2007
35531W        W78625   6.806  34.468  28.243 -0.0818 -0.0359  0.4183
35532W        W78626   3.049  34.380  31.115 -0.2717 -0.2469 -0.0453
35533W        W78627   5.473  33.444  29.574 -0.0922 -0.0847 -0.1304
35534W        W78628   4.440  33.623  26.949 -0.1416 -0.0112  0.2137
35535W        W78629   5.618  32.540  29.116 -0.0097  0.2506 -0.2400
35536W        W78630   5.824   0.669  28.280 -0.0141 -0.1246  0.2012
35537W        W78631   5.585  33.071  27.754 -0.2017 -0.1445  0.1662
35538W        W78632   6.124  32.091  27.519  0.0468 -0.1351  0.0017
35539W        W78633   6.029  34.526  27.633  0.1508  0.0144 -0.2903
35540W        W78634   5.815  31.536  31.971  0.1127 -0.0823 -0.0850
35541W        W78635   5.727  34.603  27.202 -0.1246  0.3024  0.2146
35542W        W78636   5.194  32.633  29.842  0.1668  0.0831 -0.0779
35543W        W78637   7.650  34.347  31.321 -0.0143 -0.0810  0.1510
35544W        W78638   5.155  34.634  30.426 -0.0309 -0.0883 -0.0774
35545W        W78639   5.099  31.990  31.471 -0.1795  0.0876  0.1959
35546W        W78640   8.040  34.599  31.047  0.0255 -0.0051  0.1470
35547W        W78641   5.640  33.579  28.508 -0.0802 -0.0899  0.1028
35548W        W78642   7.386  34.596  29.363 -0.1247  0.0030  0.1025
35549W        W78643   5.378  34.654  28.155 -0.2910  0.0436 -0.0102
35550W        W78644   6.814  33.175  30.387 -0.3151 -0.2486  0.0085
35551W        W78645   5.971  33.144  31.474  0.0346 -0.1382  0.2397
35552W        W78646   4.674  32.975  27.981 -0.2376  0.3966 -0.2781
35553W        W78647   4.317  32.258  30.301 -0.0561  0.3582  0.0593
35554W        W78648   7.265  33.383  29.770  0.2496  0.0204 -0.0848
35555W        W78649   3.603  32.364  28.734 -0.2856  0.0868 -0.0481
35556W        W78650   4.750   0.498  27.250  0.1185  0.0255 -0.0822
35557W        W78651   6.870  33.777  29.767 -0.0895  0.0093 -0.3649
35558W        W78652   4.465  34.620  30.489 -0.3909  0.0400  0.2351
35559W        W78653   5.058  33.948  29.243 -0.1032  0.2707 -0.0500
35560W        W78654   7.235  34.271   0.323 -0.2479 -0.0464 -0.0727
35561W        W78655   5.618  34.230  27.776 -0.1553  0.0006  0.1250
35562W        W78656   4.032  34.494  29.422 -0.0390  0.3555  0.3227
35563W        W78657   3.694  33.339  27.510  0.3150 -0.1011 -0.1980
35564W        W78658   6.480  34.318  29.100  0.0579  0.2263  0.2277
35565W        W78659   4.238   0.501  28.706  0.2223  0.1520  0.4720
35566W        W78660   5.355  34.143  26.354  0.2313 -0.1271 -0.1889
35567W        W78661   3.763   0.200   0.677  0.4006  0.1053 -0.0159
35568W        W78662   4.856  33.921  29.887 -0.0065  0.0906 -0.1741
35569W        W78663   3.896  32.950  29.836  0.0408  0.1996 -0.0919
35570W        W78664   5.346  33.527  27.983  0.1020  0.1767  0.0274
35571W        W78665   5.239  33.206  30.370 -0.1990 -0.0712 -0.1985
35572W        W78666   6.374  32.791  28.217 -0.0477 -0.1610 -0.1170
35573W        W78667   4.651  34.677  31.036  0.1768 -0.1931  0.0899
35574W        W78668   4.867  33.419  29.942 -0.1062 -0.2673 -0.1214
35575W        W78669   7.677  32.172  27.744 -0.1500  0.2688 -0.3100
35576W        W78670   5.523  34.269  28.528  0.0267 -0.1112  0.0266
35577W        W78671   7.898  33.949  30.060  0.1313 -0.0494 -0.0841
35578W        W78672   5.406   1.012  28.116  0.2712 -0.3101 -0.1052
35579W        W78673   7.351  33.779   0.142 -0.0352  0.4344 -0.3747
35580W        W78674   3.806  33.502   0.233 -0.0153 -0.1158  0.1366
35581W        W78675   4.330  34.253  29.052 -0.1928 -0.1364  0.3338
35582W        W78676   4.819  33.188  31.337 -0.1498 -0.0630  0.1093
35583W        W78677   6.000  31.619  30.058  0.2609 -0.2427  0.0786
35584W        W78678   4.858  33.039  28.783  0.0035  0.1298 -0.0206
35585W        W78679   4.203   0.706  30.506  0.2020  0.0725  0.0015
35586W        W78680   6.369  33.695  29.640 -0.1886 -0.1671 -0.3479
35587W        W78681   4.690   0.135  29.807 -0.2587 -0.0031 -0.2565
35588W        W78682   5.563   0.063  28.618  0.1627 -0.1742 -0.1612
35589W        W78683   5.377  32.997  30.800 -0.2467 -0.2155 -0.1519
35590W        W78684   5.383  32.315  30.307  0.2111 -0.1751  0.0367
35591W        W78685   5.182  32.997  29.195 -0.1997 -0.1058 -0.1803
35592W        W78686   6.650  33.154  30.894 -0.0761 -0.2151  0.2914
35593W        W78687   5.839  34.262  30.828 -0.0824 -0.0455  0.3093
35594W        W78688   5.496  33.083   0.014  0.1109  0.2875  0.0169
35595W        W78689   7.249  33.301  26.827  0.1393  0.2784  0.0682
35596W        W78690   6.696  34.323  29.775  0.1566 -0.1675  0.1923
35597W        W78691   6.059  33.122  28.456  0.1153 -0.0768 -0.0804
35598W        W78692   6.358   0.060  28.269 -0.1412  0.2450 -0.0981
35599W        W78693   3.291  32.539  29.109 -0.0426 -0.2669  0.1313
35600W        W78694   6.973  34.010  31.838  0.1038  0.0259  0.0444
35601W        W78695   5.042  33.244  27.622 -0.3629  0.0464  0.1583
35602W        W78696   6.049  34.673  31.222  0.1286  0.1648 -0.2777
35603W        W78697   6.674  33.737  28.753  0.0819  0.3439  0.0488
35604W        W78698   4.796  33.636  28.870  0.1179 -0.0579  0.2386
35605W        W78699   4.255  32.541  29.523  0.0624  0.2117  0.1769
35606W        W78700   6.158   0.628  27.866  0.2370 -0.2006 -0.1001
35607W        W78701   8.124  32.737  26.810 -0.3356 -0.1546 -0.2802
35608W        W78702   7.254  34.389  29.907 -0.3164  0.0276 -0.2368
35609W        W78703   6.683  33.293  29.895  0.1501  0.3037  0.1714
35610W        W78704   6.348  32.391  29.968  0.4036 -0.2084 -0.1804
35611W        W78705   6.864  34.256  28.764  0.1722  0.0037 -0.1605
35612W        W78706   5.173   0.187  29.944 -0.1436  0.0183  0.2149
35613W        W78707   7.345   0.269  30.215 -0.0526 -0.0464  0.2296
35614W        W78708   4.221  33.176  30.125 -0.0352  0.4318 -0.0912
35615W        W78709   4.862  34.590   1.323  0.0796  0.1536 -0.1653
35616W        W78710   5.039  31.244  29.204 -0.1449  0.1290 -0.0954
35617W        W78711   4.940  32.114  28.943  0.4565  0.0812  0.2244
35618W        W78712   8.023  33.489  28.383  0.1539 -0.3748 -0.2733
35619W        W78713   5.809  33.555  30.029  0.0607  0.3441 -0.1505
35620W        W78714   7.404   0.548  28.685 -0.5110 -0.2685  0.1255
35621W        W78715   4.524  34.659  29.380 -0.1657  0.3410 -0.1860
35622W        W78716   5.123  33.693  28.427 -0.1409 -0.0050  0.2920
35623W        W78717   4.073   0.008  31.861 -0.0059 -0.3281  0.1991
35624W        W78718   8.209  32.454  30.040 -0.1495  0.0629 -0.0792
35625W        W78719   4.785  33.516  27.972  0.1950  0.4028  0.2117
35626W        W78720   5.486  34.523  29.594  0.0780 -0.2012  0.0485
35627W        W78721   7.346  32.552  29.879  0.0832  0.1359 -0.0226
35628W        W78722   5.327  33.889  28.809 -0.0596  0.1890 -0.1367
35629W        W78723   2.479  32.984  27.272 -0.2990  0.2381 -0.4278
35630W        W78724   6.684  32.716  30.517 -0.0498 -0.1697 -0.1218
35631W        W78725   5.096   0.024  31.315  0.1529 -0.1738  0.1171
35632W        W78726   7.278  32.633  31.155  0.4591 -0.1383 -0.2286
35633W        W78727   5.271  34.083  28.121 -0.1997  0.1733  0.0378
35634W        W78728   5.781  33.851  28.110  0.3313 -0.3233  0.0518
35635W        W78729   5.202  33.722  31.820 -0.3697 -0.1232  0.1074
35636W        W78730   6.254  33.591  28.482 -0.0685  0.0223 -0.4289
35637W        W78731   7.961   1.123  30.408  0.0620  0.1091 -0.0350
35638W        W78732   7.203  33.732  27.116 -0.0619  0.1303  0.1443
35639W        W78733   4.686  32.710  29.085 -0.2056 -0.1179  0.1148
35640W        W78734   5.500  32.311  29.727  0.2295  0.3253 -0.1274
35641W        W78735   6.041   0.235  28.631  0.0460 -0.0224 -0.1817
35642W        W78736   5.323  33.168  28.717  0.0411  0.2470  0.3155
35643W        W78737   4.374  33.107  29.666  0.0242 -0.1032  0.1146
35644W        W78738   7.160  34.419  30.508 -0.1078  0.1116  0.0197
35645W        W78739   5.575  34.547  30.159  0.0281 -0.1324  0.1683
35646W        W78740   4.204  32.137  29.802 -0.2639 -0.1053 -0.2851
35647W        W78741   5.538  32.816  29.493 -0.0584 -0.0097 -0.1111
35648W        W78742   5.147  33.117  29.688 -0.1821 -0.0144  0.3211
35649W        W78743   6.143  33.316  28.903 -0.1379  0.1933 -0.0253
35650W        W78744   5.354  33.582  30.061 -0.1257 -0.0989  0.1634
35651W        W78745   7.405  32.389   0.398  0.0403 -0.1293  0.1808
35652W        W78746   5.513  33.104  28.266  0.2158  0.2063  0.1220
35653W        W78747   5.116  31.962  30.466  0.1412 -0.4498  0.1790
35654W        W78748   7.454  33.392  28.303  0.0786  0.1551  0.5072
35655W        W78749   6.879  33.572  27.525 -0.0336 -0.2461 -0.3646
35656W        W78750   4.875  34.203  30.482  0.1602 -0.2323  0.1085
35657W        W78751   4.345  34.321  28.199 -0.2264  0.1057 -0.0007
35658W        W78752   5.477  32.491  30.899  0.2511 -0.0149  0.1660
35659W        W78753   4.061  33.213  30.658  0.0581 -0.1795 -0.0744
35660W        W78754   5.047   0.129  29.377 -0.1440 -0.2113  0.3581
35661W        W78755   5.273  33.880  27.644  0.1986  0.2343 -0.1554
35662W        W78756   4.476  33.821  30.249 -0.1901  0.2624  0.1132
35663W        W78757   3.164  33.412  28.837 -0.3109  0.1479  0.0575
35664W        W78758   6.078  32.667  28.750 -0.2334  0.2075 -0.3498
35665W        W78759   5.438  33.708  30.515 -0.1194 -0.2275 -0.1351
35666W        W78760   5.004  33.720  30.397  0.2345 -0.2089  0.0575
35667W        W78761   4.723  33.396  28.451 -0.0187 -0.0461 -0.2240
35668W        W78762   5.557  33.076  29.975 -0.1356 -0.1643  0.3360
35669W        W78763   3.571  31.614   0.338 -0.1129  0.0594  0.0001
35670W        W78764   7.714  33.239  30.809 -0.0481  0.0476 -0.0170
35671W        W78765   5.786  33.689  29.007  0.0679 -0.0805  0.0154
35672W        W78766   4.585  33.757  31.702 -0.0748  0.0542  0.1607
35673W        W78767   4.787  32.443  30.294 -0.1783 -0.0112 -0.0778
35674W        W78768   6.405  32.108  27.943  0.1718 -0.2910  0.0248
35675W        W78769   4.949  34.384  29.609 -0.1538  0.1058  0.0819
35676W        W78770   5.338  33.638  27.240 -0.1183 -0.0210  0.2286
35677W        W78771   5.410  34.550  30.926 -0.1128 -0.2400 -0.0472
35678W        W78772   5.270  32.426  26.518  0.1283 -0.1192  0.3219
35679W        W78773   7.699   0.673  27.275 -0.1182 -0.1173 -0.1051
35680W        W78774   4.022  33.315  29.232 -0.2589 -0.3457  0.2019
35681W        W78775   4.630  33.959  27.770 -0.0972  0.2110  0.0025
35682W        W78776   3.695  34.550  30.231 -0.1679  0.1288  0.0453
35683W        W78777   5.860  32.838  30.914  0.3736  0.0408  0.1533
35684W        W78778   4.695  33.320  30.425  0.0925  0.1187  0.1196
35685W        W78779   5.863  32.805  28.046 -0.1067  0.3330  0.0847
35686W        W78780   7.445  33.957  31.108 -0.1023  0.1272 -0.1071
35687W        W78781   6.767  34.478   0.576  0.1876  0.1180 -0.0657
35688W        W78782   4.343  33.840  31.284 -0.3820 -0.1147 -0.0406
35689W        W78783   8.109  34.067  30.502  0.2135 -0.0469 -0.3674
35690W        W78784   4.370  33.671  29.803  0.1765 -0.1004 -0.2255
35691W        W78785   6.173  32.940   1.196  0.0229 -0.0856  0.0961
35692W        W78786   3.790  32.537   0.159  0.0522  0.3023 -0.0098
35693W        W78787   6.627  33.697  31.569  0.2864  0.0591  0.0558
35694W        W78788   4.995  34.621   0.302  0.1186  0.4001 -0.0391
35695W        W78789   4.105   0.281   0.288 -0.0696 -0.2458  0.2129
35696W        W78790   4.907  33.038  30.762  0.0127  0.1440  0.1850
35697W        W78791   6.851  31.877   0.549  0.2294 -0.2495  0.3553
35698W        W78792   7.103  33.514   0.547 -0.2949  0.2043  0.0143
35699W        W78793   6.538  32.996   0.837  0.1139 -0.0283 -0.0528
35700W        W78794   6.973  33.279  31.390  0.0559 -0.1492 -0.0314
35701W        W78795   5.801  33.340  30.631 -0.3231 -0.0395 -0.1747
35702W        W78796   5.821  32.486  31.277 -0.2756 -0.2314  0.0415
35703W        W78797   5.441  33.925  30.975 -0.0971 -0.2347 -0.1308
35704W        W78798   7.562  32.735   0.046  0.0401 -0.1930  0.1333
35705W        W78799   4.322  31.834  31.837 -0.1877 -0.0689  0.1593
35706W        W78800   6.271  32.735  31.423  0.0238 -0.0657  0.0088
35707W        W78801   7.443  34.247  31.853  0.0122 -0.3207 -0.2176
35708W        W78802   6.270  32.352   0.456  0.1600  0.2553 -0.2255
35709W        W78803   4.721  32.665   0.096 -0.2856  0.1512 -0.1340
35710W        W78804   5.090  32.689  31.137 -0.0731  0.1728 -0.1901
35711W        W78805   4.487  34.090  30.806 -0.2301 -0.3915  0.0934
35712W        W78806   5.057  32.344  31.861 -0.0262 -0.0940  0.1717
35713W        W78807   5.944  32.506  29.572  0.1281  0.2627  0.2084
35714W        W78808   5.566  32.788  30.428 -0.2374 -0.3098  0.1821
35715W        W78809   4.479   0.281  31.943  0.1504 -0.0987 -0.1519
35716W        W78810   6.952  33.947  31.268  0.0776 -0.4908  0.0976
35717W        W78811   3.651  33.240  31.383 -0.0394 -0.0564 -0.1689
35718W        W78812   3.499  32.385   1.025 -0.2859 -0.0543 -0.0383
35719W        W78813   8.604   0.309   0.723 -0.0795  0.2462  0.0050
35720W        W78814   7.229   1.366  18.229  0.2338 -0.0131  0.2396
35721W        W78815   8.833   1.171  16.457 -0.1825 -0.0723 -0.3728
35722W        W78816  10.028   0.418  16.221 -0.1590  0.1056 -0.0094
35723W        W78817   9.469   2.378  15.972  0.0348  0.4307  0.3311
35724W        W78818   7.900   0.231  17.425  0.1277 -0.0605 -0.4609
35725W        W78819   9.813   3.368  17.076 -0.1143 -0.1508 -0.1808
35726W        W78820   8.214  33.896  17.005 -0.0732  0.0477  0.0224
35727W        W78821  10.635   4.656  16.632 -0.0104  0.3087 -0.1733
35728W        W78822  11.434   3.217  17.538 -0.4699 -0.1284 -0.0267
35729W        W78823   8.848   1.249  15.413 -0.2561 -0.1586  0.1771
35730W        W78824   8.946   1.319  16.970  0.4877  0.4710  0.4097
35731W        W78825   8.863   1.457  18.917  0.0247 -0.0691 -0.3300
35732W        W78826   9.803  34.227  16.867  0.3345 -0.0310 -0.2749
35733W        W78827   8.794  34.467  17.459  0.1435 -0.1670 -0.0417
35734W        W78828  10.251   2.129  17.317 -0.1471  0.0780  0.1231
35735W        W78829   8.310   3.301  15.747  0.0881 -0.0210 -0.1158
35736W        W78830   8.260   0.947  17.932  0.1748  0.2315 -0.0649
35737W        W78831   7.753   0.631  17.759 -0.0548  0.1567  0.0209
35738W        W78832   9.426   3.658  17.218  0.0362 -0.1431  0.2084
35739W        W78833   9.150   0.180  18.170 -0.3592 -0.3630 -0.2463
35740W        W78834   8.166   0.377  18.709 -0.1101 -0.0782 -0.0460
35741W        W78835   8.546   2.050  16.973  0.1843  0.0277  0.1222
35742W        W78836   7.576   0.737  16.006 -0.0822 -0.2648 -0.0786
35743W        W78837   7.860   1.146  17.625  0.1152  0.0803 -0.0364
35744W        W78838   9.418   0.701  18.166  0.0585  0.0037 -0.1458
35745W        W78839   8.078   1.928  18.352  0.2497 -0.1543  0.3553
35746W        W78840  10.788   1.795  15.992  0.1352  0.1656  0.0567
35747W        W78841   8.641   3.323  16.724  0.1104 -0.1448  0.0967
35748W        W78842   8.738   3.736  18.039 -0.2145 -0.1192 -0.0580
35749W        W78843  11.091   1.227  19.075  0.0785 -0.0150  0.0623
35750W        W78844   7.691   2.155  16.076 -0.1682 -0.4318 -0.1134
35751W        W78845   7.274   3.603  17.854 -0.0686 -0.1954 -0.0487
35752W        W78846   8.202   2.460  16.780 -0.5076 -0.1111  0.1561
35753W        W78847   9.864   4.191  17.274 -0.1050  0.3630  0.0437
35754W        W78848  10.289   2.425  19.455 -0.0452 -0.0780  0.1685
35755W        W78849   8.634   4.126  19.729 -0.1343  0.2333  0.0504
35756W        W78850   7.993   2.841  15.669  0.2168 -0.0715 -0.0385
35757W        W78851   9.852   4.346  18.825  0.1944  0.1021  0.1411
35758W        W78852   8.685   2.876  17.791  0.2059 -0.2097 -0.0647
35759W        W78853   8.614   1.948  18.241 -0.0288 -0.1082  0.1491
35760W        W78854   9.424   1.853  15.767  0.1120  0.0265  0.0581
35761W        W78855   8.479   2.858  16.072  0.0912  0.0006 -0.2114
35762W        W78856   8.799   2.339  17.860  0.2895 -0.0358 -0.0308
35763W        W78857   8.822   1.513  18.378  0.1087 -0.2314  0.0172
35764W        W78858   6.801   2.992  17.438  0.0291 -0.2289  0.0024
35765W        W78859  10.821   0.385  20.370 -0.1799 -0.2338  0.0018
35766W        W78860   8.529   2.301  16.038 -0.0943 -0.0597  0.2184
35767W        W78861  10.296   1.181  14.531 -0.0641  0.0008  0.1763
35768W        W78862   9.172   0.411  15.511 -0.1719  0.1721  0.1788
35769W        W78863   9.588   1.121  15.089  0.2613  0.0209 -0.0436
35770W        W78864   9.310  34.616  15.741  0.0010  0.0738  0.1620
35771W        W78865   9.395   4.100  16.989 -0.0068  0.0612  0.0856
35772W        W78866   6.565   1.152  18.585  0.2100  0.2065 -0.0498
35773W        W78867  11.117   2.564  18.988  0.2577 -0.2040 -0.4830
35774W        W78868   8.655   2.608  16.571  0.0084 -0.1727 -0.2024
35775W        W78869  10.334   0.921  18.907  0.3152  0.0448 -0.1243
35776W        W78870   8.924   3.314  17.922  0.0311 -0.1712 -0.0931
35777W        W78871   7.573   1.443  17.294  0.0085 -0.1537  0.0405
35778W        W78872   8.839   3.113  16.320  0.2538 -0.1530  0.1002
35779W        W78873  10.107   2.600  16.647  0.1432  0.0419 -0.0331
35780W        W78874   9.074   3.668  15.372  0.1617  0.2243  0.0922
35781W        W78875   7.456   0.950  16.982  0.4014 -0.0297 -0.0694
35782W        W78876   7.681   0.846  19.452  0.3315 -0.1566  0.1884
35783W        W78877   7.953   1.304  19.396  0.5596  0.0202  0.1985
35784W        W78878  10.494   0.983  17.381  0.0419 -0.0265  0.1798
35785W        W78879   9.914   2.946  19.271  0.0168 -0.2160  0.0644
35786W        W78880   7.057   2.768  20.356 -0.0100  0.3158  0.1320
35787W        W78881  10.456   0.991  15.974  0.2066 -0.0849 -0.1146
35788W        W78882   8.110   2.076  18.944  0.0707  0.4250 -0.0204
35789W        W78883   9.515   2.325  18.790  0.2566 -0.0117 -0.3413
35790W        W78884  10.873   2.696  14.516  0.1543 -0.3673 -0.0950
35791W        W78885   9.900   1.279  18.033 -0.0702 -0.0363 -0.2302
35792W        W78886   9.972  34.664  16.973  0.2478 -0.1336 -0.2236
35793W        W78887   8.731   3.025  15.627  0.2471  0.1978 -0.3192
35794W        W78888   9.401   1.175  16.189 -0.1165 -0.1159 -0.2377
35795W        W78889  10.588   3.635  19.166 -0.0007  0.1402 -0.0303
35796W        W78890  11.143   2.028  15.722  0.2703  0.1227  0.2159
35797W        W78891   7.469   1.473  17.780  0.2733 -0.0891  0.2640
35798W        W78892   8.627   0.556  17.939 -0.0943 -0.3583  0.0097
35799W        W78893   8.399   2.634  19.688  0.0242  0.0531 -0.0910
35800W        W78894   7.949   3.882  16.530 -0.2589  0.1631 -0.0022
35801W        W78895   6.385   0.717  17.149  0.0294  0.2059 -0.0663
35802W        W78896   7.648   2.658  15.991 -0.1275 -0.0905  0.0905
35803W        W78897   8.069  34.591  18.367  0.2351  0.0488  0.2582
35804W        W78898   9.338   2.319  17.735 -0.4745 -0.0056 -0.0307
35805W        W78899   8.644   0.269  16.514 -0.0905  0.4175 -0.1812
35806W        W78900   5.588  34.622  19.240 -0.2517  0.1599 -0.1023
35807W        W78901  11.184  33.768  16.864  0.3435 -0.3542 -0.0613
35808W        W78902   7.932   2.254  17.281  0.0062 -0.4662  0.1263
35809W        W78903  10.589   4.082  16.494  0.3382 -0.1514  0.0742
35810W        W78904  10.204   1.661  14.763  0.1961 -0.2080 -0.0029
35811W        W78905  10.946   1.326  16.227  0.2018  0.1485  0.1490
35812W        W78906   6.602   1.565  19.990  0.0477 -0.0110 -0.0494
35813W        W78907   7.679   1.381  18.517 -0.2124 -0.1955  0.1912
35814W        W78908   8.603   1.470  20.262 -0.0150  0.1368 -0.1917
35815W        W78909   7.943   0.176  16.964 -0.0566 -0.0217  0.0771
35816W        W78910   8.690   2.391  20.081 -0.0434 -0.1112  0.1801
35817W        W78911   9.659  34.498  16.102  0.0163 -0.0718  0.1860
35818W        W78912   9.997   3.235  17.557 -0.1599 -0.0866  0.1784
35819W        W78913   8.425   1.348  17.014  0.0985  0.1497  0.2147
35820W        W78914   6.796   0.807  17.358 -0.1594  0.0258 -0.0203
35821W        W78915   9.917  33.624  18.310  0.3606 -0.0995 -0.0966
35822W        W78916   9.625   3.981  15.992  0.2504 -0.1073  0.0767
35823W        W78917   9.207   3.332  19.837 -0.1918 -0.0414 -0.1287
35824W        W78918  10.345   2.975  16.815 -0.0162 -0.1461 -0.1796
35825W        W78919   7.810  34.332  16.654  0.2539 -0.2726  0.1274
35826W        W78920  10.106  34.524  16.400  0.1413 -0.1818  0.1016
35827W        W78921   7.239   3.072  18.567 -0.1905  0.1501 -0.0005
35828W        W78922   6.520   3.084  17.854  0.2094 -0.0405 -0.0194
35829W        W78923   8.876   0.290  15.955  0.0778 -0.1141 -0.0385
35830W        W78924   9.761   4.218  17.820 -0.1759 -0.0817  0.2523
35831W        W78925   8.406   1.036  15.435 -0.1748 -0.1931 -0.1207
35832W        W78926   7.167   1.105  18.715  0.0675 -0.0657  0.1891
35833W        W78927  10.804   0.223  18.396  0.0685  0.1613  0.1447
35834W        W78928  10.232   1.570  18.208 -0.0027 -0.0225  0.1568
35835W        W78929  11.196   3.718  17.505 -0.0694  0.0832 -0.0919
35836W        W78930   8.735   0.772  15.704 -0.2738  0.1236  0.2011
35837W        W78931  10.977   3.082  17.466  0.2559  0.1645 -0.4535
35838W        W78932   7.482   3.534  16.640  0.2956 -0.1491 -0.0222
35839W        W78933   6.924   1.252  16.202  0.0281  0.0491 -0.1945
35840W        W78934   8.395   2.579  17.475 -0.1724  0.2874 -0.0216
35841W        W78935  10.194   2.025  16.758 -0.2613 -0.0742  0.3199
35842W        W78936   7.245   1.618  20.018 -0.1477  0.0489  0.0166
35843W        W78937   8.429   1.269  17.552  0.3018  0.2041  0.1941
35844W        W78938   7.274   0.340  16.120 -0.0966  0.2257  0.1112
35845W        W78939   6.841   2.318  19.582 -0.1077  0.0869  0.3303
35846W        W78940  10.451   0.242  16.518  0.2704 -0.0572 -0.0602
35847W        W78941  10.304   0.124  15.921  0.1550 -0.0150 -0.0281
35848W        W78942   9.436   2.561  19.355  0.1803 -0.0986 -0.1179
35849W        W78943  10.409   2.573  16.239 -0.1691 -0.1133  0.2672
35850W        W78944   9.708   1.616  14.993  0.1121 -0.1136 -0.3281
35851W        W78945   9.997   0.001  15.591  0.2919  0.2900  0.0817
35852W        W78946   6.352   3.424  18.173  0.0845  0.1428 -0.0512
35853W        W78947   8.772   2.243  17.370  0.0043  0.1125 -0.0764
35854W        W78948   8.297   2.012  16.522 -0.1753 -0.1381  0.1833
35855W        W78949   8.822   0.681  15.208  0.1961  0.3268  0.0689
35856W        W78950  11.385   3.566  15.393 -0.3529  0.0007 -0.1183
35857W        W78951   7.577   3.142  17.991 -0.2909  0.2915 -0.0485
35858W        W78952   8.630   2.832  18.335 -0.1363  0.1585  0.1063
35859W        W78953   9.995   2.840  17.104 -0.1263  0.1720  0.0388
35860W        W78954   9.011   0.634  18.424  0.2416  0.2208 -0.2286
35861W        W78955   8.002   0.974  16.251  0.1876  0.1995 -0.0911
35862W        W78956   8.293   0.967  16.660 -0.0168  0.1217  0.3021
35863W        W78957   7.264   3.219  17.022  0.2899 -0.1187  0.0101
35864W        W78958   9.304   2.290  17.193  0.2582 -0.1676 -0.0684
35865W        W78959   9.254   0.256  17.266  0.0969  0.5515 -0.0547
35866W        W78960   9.028  33.967  18.930 -0.0309 -0.0727  0.0641
35867W        W78961   9.528   1.013  19.704 -0.4364 -0.0905  0.0360
35868W        W78962   9.810   0.869  15.491  0.0402 -0.1537 -0.1468
35869W        W78963   9.891   1.376  18.579  0.1797 -0.0902  0.2770
35870W        W78964   7.893   0.350  16.119  0.0615 -0.1214  0.0491
35871W        W78965  10.090  34.458  18.630 -0.1939 -0.0519 -0.0068
35872W        W78966   8.128   0.907  19.175 -0.0808 -0.1082  0.2597
35873W        W78967   8.712   1.089  18.047 -0.0452  0.3652 -0.4711
35874W        W78968   9.006   1.914  18.645  0.0465  0.1394  0.0191
35875W        W78969   9.726   1.825  16.763 -0.0696  0.1774  0.1184
35876W        W78970   9.230   1.323  19.246 -0.0315 -0.2064 -0.3449
35877W        W78971   9.362  34.133  15.940 -0.1510  0.0474  0.0529
35878W        W78972   9.313   3.180  16.491  0.2317 -0.1017 -0.0943
35879W        W78973   8.604   1.771  16.103 -0.2108  0.1947  0.0108
35880W        W78974   9.521  34.061  17.668  0.1641 -0.3251  0.1717
35881W        W78975   9.445   5.121  18.243  0.0884  0.2259 -0.0108
35882W        W78976   8.082   2.318  15.742 -0.0274  0.0368 -0.1642
35883W        W78977   9.039   2.685  17.434 -0.0004 -0.1347  0.2904
35884W        W78978   8.278   2.984  16.557  0.2113  0.2578  0.0638
35885W        W78979  10.450  34.440  18.113  0.1487 -0.1180 -0.1785
35886W        W78980   6.958   3.169  16.588  0.3699  0.1689 -0.3000
35887W        W78981   9.063   0.635  16.286 -0.0172  0.0099 -0.0984
35888W        W78982   6.956   0.679  16.888  0.1278  0.0550  0.0301
35889W        W78983   9.981   1.217  16.388 -0.2742  0.1573  0.2897
35890W        W78984  10.500   0.646  15.097  0.1461  0.1606  0.1794
35891W        W78985   6.841   1.659  18.607 -0.1105 -0.1964  0.0062
35892W        W78986   9.150  34.463  16.273  0.0434 -0.1005  0.0814
35893W        W78987   7.973   2.732  17.200  0.1561 -0.2484 -0.0272
35894W        W78988   9.563   1.604  18.280 -0.2260  0.0895 -0.2462
35895W        W78989  10.694  32.446  15.865  0.1299  0.1444 -0.0813
35896W        W78990   9.825   3.743  17.542  0.0210 -0.1497 -0.0918
35897W        W78991   8.236   1.771  19.358  0.1808 -0.0412  0.3595
35898W        W78992   9.350   0.621  15.124  0.1481  0.1638  0.0659
35899W        W78993   9.382   2.090  19.587 -0.0373  0.4729  0.0776
35900W        W78994   7.996   1.581  17.472  0.1186  0.0997 -0.0677
35901W        W78995   7.199   2.318  16.385  0.0986 -0.1744 -0.0186
35902W        W78996   8.260   3.942  19.048 -0.1292  0.2090 -0.0163
35903W        W78997   6.206   0.623  17.581 -0.0419 -0.3636 -0.0578
35904W        W78998   7.324   2.242  17.004 -0.2399  0.4753 -0.0566
35905W        W78999   9.183   0.654  17.629 -0.1046  0.2296  0.0499
35906W        W79000   9.870   0.907  18.524 -0.0717 -0.0692 -0.0948
35907W        W79001   9.123   1.829  18.099 -0.1002 -0.1267 -0.1059
35908W        W79002   7.937   1.190  17.063  0.1888  0.0809  0.0735
35909W        W79003   9.115   1.813  16.881 -0.2911 -0.0978 -0.0908
35910W        W79004   9.303   2.213  18.285  0.2785  0.0828  0.1360
35911W        W79005   9.421   1.097  17.174 -0.0878  0.2059 -0.1454
35912W        W79006   7.522   2.599  18.287  0.0381 -0.1329  0.0167
35913W        W79007   9.510   0.078  17.840 -0.1364 -0.0746  0.0186
35914W        W79008  10.102   3.400  15.898  0.0199  0.0430 -0.2188
35915W        W79009   9.636   1.837  17.832  0.2050  0.0123 -0.0383
35916W        W79010   9.536   0.365  16.840 -0.0336  0.1296  0.0979
35917W        W79011   7.814   2.005  17.717  0.0281 -0.1830 -0.0772
35918W        W79012   9.006   3.305  15.890  0.0258 -0.2462 -0.1375
35919W        W79013   9.084  34.364  17.876  0.1287  0.1964  0.0872
35920W        W79014   9.154   1.815  17.551  0.1682 -0.0487 -0.0668
35921W        W79015   7.594   3.793  16.196 -0.0683  0.0522 -0.0233
35922W        W79016   7.229   2.569  18.711  0.0864 -0.0918  0.1925
35923W        W79017   9.523  33.293  15.657 -0.0885  0.2662 -0.1346
35924W        W79018   9.709   3.009  15.259  0.1432 -0.1065  0.1496
35925W        W79019   8.729   0.423  17.344  0.0171  0.0844  0.1095
35926W        W79020  10.735  34.666  19.751  0.2548 -0.0419 -0.2695
35927W        W79021  10.341   0.196  15.204  0.3539  0.1576 -0.0843
35928W        W79022  10.917   1.209  19.701  0.0477 -0.2397  0.2626
35929W        W79023   8.601  34.221  19.105  0.1348  0.0249 -0.0535
35930W        W79024  10.385   2.069  15.974 -0.1562 -0.2947 -0.0231
35931W        W79025   8.500   0.046  18.992 -0.0050 -0.1759 -0.0224
35932W        W79026   8.794   4.085  19.217  0.1641  0.2032 -0.1202
35933W        W79027   7.263   0.836  19.702  0.0631 -0.3277  0.0905
35934W        W79028   8.051  34.593  16.306 -0.2101 -0.0777 -0.1429
35935W        W79029   8.603  34.259  15.198 -0.0719 -0.0102  0.1321
35936W        W79030   7.712   2.198  18.184  0.0356  0.0708  0.1246
35937W        W79031  10.628   1.975  16.943 -0.3042 -0.2535 -0.2461
35938W        W79032  10.579   4.006  17.357  0.0055 -0.1730 -0.0637
35939W        W79033  10.404  33.521  16.650 -0.1579 -0.0415 -0.1430
35940W        W79034   6.872   2.293  18.414 -0.4089 -0.4122 -0.0232
35941W        W79035  10.568   2.013  16.416  0.1515 -0.1568 -0.1328
35942W        W79036   8.534   0.816  16.213 -0.3509 -0.1135  0.1348
35943W        W79037   8.730   0.873  17.523 -0.0492 -0.1584 -0.1200
35944W        W79038   8.763   0.922  20.587  0.0330 -0.1281 -0.3643
35945W        W79039   9.876   2.232  16.313  0.0104 -0.0995 -0.1353
35946W        W79040   8.810  34.077  16.200 -0.0259  0.4086  0.0005
35947W        W79041  10.305   1.036  18.344  0.0107 -0.0549  0.0054
35948W        W79042  10.192   0.572  18.171 -0.0383 -0.0066  0.1809
35949W        W79043   9.660   0.302  18.366  0.2074  0.1599 -0.2917
35950W        W79044   6.621   1.095  19.691 -0.0032 -0.1200 -0.3500
35951W        W79045  11.478   3.405  19.445 -0.0231 -0.1811  0.0169
35952W        W79046  10.755   1.294  15.789  0.1551 -0.1796 -0.1768
35953W        W79047   9.240  34.441  16.931  0.3161 -0.0886 -0.2878
35954W        W79048  10.789   0.814  16.444  0.0620 -0.2665  0.3784
35955W        W79049   8.906   1.168  15.952  0.0691 -0.1022 -0.0431
35956W        W79050   8.441   0.725  18.380  0.2075  0.2631 -0.1624
35957W        W79051   9.181   1.857  19.185  0.0840 -0.1453 -0.0753
35958W        W79052   8.234   0.794  15.810 -0.3175 -0.1275 -0.0044
35959W        W79053   9.075   0.704  17.108 -0.2852 -0.0184  0.1377
35960W        W79054  10.112   2.685  15.277  0.0469 -0.2152  0.0988
35961W        W79055   9.393   1.412  16.693 -0.1014  0.1040 -0.2870
35962W        W79056   9.774   1.499  16.023 -0.2115  0.0018  0.1558
35963W        W79057   7.405   0.995  17.993 -0.0685  0.1926  0.1370
35964W        W79058   7.328   1.612  18.742 -0.0424  0.1950 -0.1536
35965W        W79059   8.812   2.134  16.458  0.1499  0.2737 -0.0884
35966W        W79060   9.174   1.106  18.179 -0.1744 -0.1231  0.3027
35967W        W79061   9.804   3.799  18.183  0.0884 -0.1040 -0.2441
35968W        W79062   9.078   0.878  19.575 -0.1044 -0.2110  0.0232
35969W        W79063  10.115  33.100  16.697  0.3567  0.1094 -0.0328
35970W        W79064  10.337   0.650  20.174 -0.0927  0.1907  0.3015
35971W        W79065   7.456   2.820  17.198  0.3558 -0.1993  0.1030
35972W        W79066  10.668  32.954  17.729 -0.0432  0.0685 -0.0469
35973W        W79067   8.274   2.364  18.018  0.0112 -0.3238 -0.1725
35974W        W79068   7.848   1.107  18.131  0.0451  0.2199  0.2893
35975W        W79069   8.449   2.962  17.036  0.2644 -0.0613 -0.0101
35976W        W79070  10.399  34.641  17.594  0.1188 -0.0305 -0.1741
35977W        W79071   9.886   0.876  16.825 -0.3407  0.0147 -0.1084
35978W        W79072   9.434   1.418  17.872  0.4248  0.0861 -0.1148
35979W        W79073  10.718   2.769  19.408 -0.0297  0.0267 -0.1584
35980W        W79074   9.300   1.252  18.649 -0.0228  0.0640  0.1756
35981W        W79075   8.662   1.633  16.658 -0.0214 -0.1596 -0.2213
35982W        W79076   9.592   2.612  18.305 -0.0268  0.0227 -0.0288
35983W        W79077  10.827   2.486  16.600 -0.0401  0.0274 -0.0521
35984W        W79078   7.836   1.779  16.537  0.3000 -0.0091 -0.1575
35985W        W79079   7.417   0.380  19.168 -0.0987 -0.1131  0.0586
35986W        W79080   9.513   4.018  18.610  0.1445 -0.2920  0.2767
35987W        W79081   9.795   2.319  16.955  0.0418  0.0999 -0.0116
35988W        W79082   7.019  34.392  16.197  0.0282  0.2643  0.0023
35989W        W79083   8.700   1.751  17.338  0.2671  0.2358  0.1870
35990W        W79084   7.997   3.394  19.160  0.1113 -0.0436  0.2204
35991W        W79085   6.906   0.824  18.402 -0.4587  0.0866  0.1447
35992W        W79086   7.424   2.716  17.816  0.0710 -0.1115 -0.0351
35993W        W79087   9.777   2.998  15.771  0.1589  0.0839 -0.0523
35994W        W79088   9.232   3.373  17.525 -0.2839 -0.1380 -0.1624
35995W        W79089   9.283   3.628  18.301  0.2797 -0.2768  0.0638
35996W        W79090   9.637   0.431  15.691  0.3600 -0.1699  0.3496
35997W        W79091   6.384   3.379  17.417 -0.0617 -0.0486  0.0543
35998W        W79092   7.754   2.763  16.568  0.1280 -0.0856  0.0903
35999W        W79093   9.805   3.206  16.615  0.1064 -0.2768 -0.1386
36000W        W79094   7.225   4.627  17.976  0.1287  0.0745 -0.1825
36001W        W79095   9.159   3.629  20.246 -0.1174  0.1002  0.0024
36002W        W79096  11.083  32.602  15.020  0.2761 -0.1523 -0.3468
36003W        W79097   9.983   1.751  16.370  0.2023  0.0788 -0.0740
36004W        W79098  10.980   0.410  17.289  0.2017  0.0552 -0.2089
36005W        W79099   9.666   3.340  17.889  0.1434  0.1144 -0.1799
36006W        W79100   9.508   1.639  17.175  0.4431 -0.1416 -0.0872
36007W        W79101   9.556  34.584  16.582  0.1472  0.0425 -0.0964
36008W        W79102   8.748   1.056  18.610 -0.1853  0.0866 -0.0042
36009W        W79103  11.761   0.715  19.390  0.2756 -0.0868 -0.1532
36010W        W79104   7.956   2.457  18.591 -0.0240  0.1492  0.0709
36011W        W79105  10.321   2.866  15.724  0.2302  0.0506  0.1951
36012W        W79106   7.370   0.374  16.997  0.0349  0.0222  0.0695
36013W        W79107   9.042   1.591  16.339  0.1022 -0.1234  0.0967
36014W        W79108  10.905   0.124  16.891  0.2177 -0.2292 -0.2058
36015W        W79109   9.031   2.112  15.972 -0.2017  0.0823  0.4074
36016W        W79110   9.949   2.202  17.750 -0.1675 -0.0954  0.1388
36017W        W79111   8.847   4.190  17.788 -0.3838 -0.1535 -0.0288
36018W        W79112   7.584   1.832  16.984 -0.1567  0.0266  0.0315
36019W        W79113   8.140   3.347  17.263  0.3897  0.0127  0.2200
36020W        W79114   7.459  33.377  16.166  0.0906  0.4000 -0.1268
36021W        W79115  11.250   1.116  16.638  0.0956 -0.3344  0.1299
36022W        W79116   8.528   0.244  18.290 -0.0456 -0.0258  0.0576
36023W        W79117  10.447  33.707  18.506 -0.0370  0.0682 -0.2293
36024W        W79118   7.637   2.055  18.665 -0.0066 -0.0999  0.2769
36025W        W79119   9.290   0.774  15.892 -0.2683  0.2153 -0.3335
36026W        W79120   9.149   2.794  18.006 -0.1069  0.1050  0.1383
36027W        W79121   9.029  34.508  19.011 -0.0172 -0.1041 -0.1500
36028W        W79122   9.316   2.258  15.402  0.1016  0.0669 -0.2630
36029W        W79123  10.234   0.920  19.384  0.0041  0.1070  0.0416
36030W        W79124   8.378   0.400  15.990  0.0373 -0.1571  0.2021
36031W        W79125   8.256   3.736  18.275  0.4134  0.1717  0.0980
36032W        W79126   7.699  34.372  18.648  0.2493 -0.0324  0.0668
36033W        W79127   9.527  34.004  18.217  0.0114 -0.3625 -0.2779
36034W        W79128   7.289   2.723  16.747 -0.1895 -0.1309  0.0214
36035W        W79129  10.046   2.227  18.997  0.3373 -0.1031  0.3773
36036W        W79130  10.458   3.192  19.370  0.1118  0.1357  0.1431
36037W        W79131   8.292   0.557  17.595  0.1189 -0.2927  0.3795
36038W        W79132   9.956   2.556  14.718 -0.0326 -0.1623 -0.0863
36039W        W79133  11.079   0.355  17.756 -0.2332 -0.3434  0.0200
36040W        W79134   9.372   3.003  16.024  0.2161 -0.1432 -0.0365
36041W        W79135   9.856   2.006  15.884 -0.3647 -0.1016  0.0333
36042W        W79136  10.400   4.719  18.454  0.0317 -0.0268 -0.1763
36043W        W79137   6.883   0.646  19.460  0.0755 -0.3387  0.0225
36044W        W79138   9.717   2.587  19.776  0.0789 -0.0749  0.3605
36045W        W79139  10.452   2.966  17.269 -0.2646 -0.0327 -0.1116
36046W        W79140  10.074   1.281  15.056  0.0183 -0.1497 -0.1134
36047W        W79141   7.992   0.467  19.302 -0.1496  0.5154 -0.0528
36048W        W79142   7.354   1.909  16.589 -0.0495  0.0061 -0.0769
36049W        W79143   9.348   0.253  16.169 -0.0955  0.0438  0.0130
36050W        W79144   9.824   1.474  17.547 -0.1486  0.1594  0.2190
36051W        W79145   9.415   3.587  16.159  0.2009 -0.0972 -0.0672
36052W        W79146   9.459  33.091  18.943  0.0708 -0.2096 -0.1301
36053W        W79147   9.322   3.210  16.974  0.0174 -0.1488 -0.0012
36054W        W79148   7.553   2.684  21.613  0.0066  0.0676  0.0874
36055W        W79149   6.876   2.235  16.728  0.1598 -0.1450 -0.1863
36056W        W79150   8.223   3.085  17.866  0.0394 -0.1707 -0.0456
36057W        W79151   8.076   1.786  17.011 -0.3502 -0.0362 -0.1301
36058W        W79152   8.952   2.941  16.819  0.1416  0.2772 -0.0003
36059W        W79153  10.298   3.582  17.724  0.0835  0.2686 -0.0064
36060W        W79154   8.694  34.044  17.742 -0.1835  0.3511 -0.1246
36061W        W79155  10.420   2.484  16.999  0.3777  0.1055  0.5789
36062W        W79156   9.300   0.933  16.676  0.0717  0.1456 -0.3024
36063W        W79157   9.824   1.331  16.894 -0.0455 -0.5458  0.0341
36064W        W79158   9.706   1.536  15.528  0.3293  0.2557 -0.3278
36065W        W79159   8.505   2.266  19.318  0.0570 -0.0246  0.4964
36066W        W79160   7.248   0.580  16.547 -0.3231  0.1176  0.2811
36067W        W79161   8.149   2.510  16.259  0.0260  0.0551 -0.0295
36068W        W79162   8.197   1.497  16.461  0.1634  0.1748 -0.0464
36069W        W79163   8.677  33.231  19.019  0.1457  0.0810 -0.1150
36070W        W79164   7.584   0.847  18.487  0.3957 -0.2508  0.0015
36071W        W79165   6.895   2.690  17.800  0.2952 -0.0840 -0.0592
36072W        W79166   8.697   0.741  16.789  0.0252  0.0950 -0.1960
36073W        W79167  10.825   2.331  14.898  0.0041 -0.0546 -0.1019
36074W        W79168   8.479   0.077  17.802 -0.0324 -0.0857  0.2815
36075W        W79169   7.585   0.045  18.336 -0.0797  0.1255 -0.0328
36076W        W79170   9.511   3.552  15.644  0.0128  0.0005  0.0251
36077W        W79171  10.027   2.481  15.891 -0.0942  0.0182 -0.0867
36078W        W79172  10.644  33.574  17.611 -0.2204  0.1828 -0.1776
36079W        W79173  11.064   2.942  19.770 -0.1185 -0.0340  0.2111
36080W        W79174   6.112   0.719  16.601  0.0966  0.2078  0.0601
36081W        W79175   8.100   1.681  19.803  0.2925  0.1756 -0.1017
36082W        W79176   7.291   0.271  20.080 -0.1242 -0.3208  0.2257
36083W        W79177   8.141  34.661  15.822  0.2085 -0.0606  0.0819
36084W        W79178   9.803   2.024  18.247 -0.1374 -0.0329  0.0388
36085W        W79179  10.126   3.951  15.939 -0.1202  0.0915 -0.2668
36086W        W79180  10.117   3.302  15.385 -0.1761  0.0563 -0.1645
36087W        W79181   7.765   1.667  18.076  0.0106  0.1064 -0.2541
36088W        W79182   7.745   3.803  19.097 -0.0806  0.0636  0.1790
36089W        W79183   9.119  34.541  19.703  0.0309  0.3133  0.1080
36090W        W79184   8.966   1.621  15.718 -0.5697 -0.4911 -0.0956
36091W        W79185   8.096   2.508  19.311  0.1306  0.0667  0.0826
36092W        W79186  11.306   2.525  16.826 -0.3578  0.1350  0.2070
36093W        W79187  11.163  33.604  18.058 -0.1694 -0.1089 -0.0097
36094W        W79188   9.360   2.238  16.590 -0.4135 -0.0038  0.1017
36095W        W79189   8.885   0.361  18.950  0.1341  0.1938 -0.0297
36096W        W79190   6.647   2.756  19.826 -0.1776 -0.1097 -0.2743
36097W        W79191   9.519   1.766  18.771  0.3876  0.0024  0.1893
36098W        W79192   8.678  34.581  16.179 -0.2066 -0.4068 -0.1981
36099W        W79193   8.928   2.641  16.015 -0.3093  0.2510  0.0860
36100W        W79194   8.958   2.373  16.883  0.2998 -0.0920 -0.1143
36101W        W79195   6.932   1.162  17.851 -0.2255  0.3212 -0.2498
36102W        W79196   8.350   0.843  17.211 -0.1124  0.3815 -0.1253
36103W        W79197   9.445   0.746  18.684 -0.0982  0.1568 -0.3513
36104W        W79198   9.204   4.119  17.444  0.0643 -0.6132 -0.2254
36105W        W79199   9.907   2.069  19.637 -0.2251 -0.0325  0.0320
36106W        W79200   7.350   1.423  16.863 -0.0779  0.0106  0.1130
36107W        W79201  10.109   1.712  15.279 -0.0703 -0.0614  0.2536
36108W        W79202   9.649   3.254  18.408 -0.1333 -0.1983 -0.0951
36109W        W79203  10.062   3.932  20.113 -0.0183  0.0257 -0.0833
36110W        W79204   8.488   3.733  17.167  0.0715  0.4416 -0.0274
36111W        W79205   9.531   2.942  17.364  0.0385  0.0893 -0.5618
36112W        W79206   8.827   0.113  17.004 -0.2367  0.1250  0.1217
36113W        W79207   9.629   0.725  16.348  0.1004 -0.1324 -0.0445
36114W        W79208   8.449   1.986  17.686  0.0629 -0.3210  0.3568
36115W        W79209  10.236   0.619  17.098 -0.1179 -0.1394 -0.0565
36116W        W79210   9.135   0.103  16.603 -0.1553  0.1080  0.1284
36117W        W79211   9.467  33.653  16.528  0.2161  0.0613  0.2702
36118W        W79212   8.387   3.502  17.645 -0.0399 -0.2559  0.2343
36119W        W79213  10.670   2.488  17.411  0.0389 -0.1430 -0.0314
36120W        W79214   8.253   2.493  22.779 -0.0037  0.4255 -0.0784
36121W        W79215   7.510   0.645  20.939 -0.2346  0.1447 -0.0235
36122W        W79216   9.460   0.739  20.139 -0.1542 -0.0800  0.1484
36123W        W79217  11.156   1.482  20.653 -0.0518 -0.2828 -0.2431
36124W        W79218   7.050  33.855  21.459 -0.0156 -0.0010 -0.0236
36125W        W79219  10.449   4.116  20.473 -0.1568  0.1747  0.2128
36126W        W79220   8.141   0.242  22.412  0.3523  0.1683 -0.1096
36127W        W79221   9.011   2.298  21.965  0.0006  0.1670 -0.0455
36128W        W79222  10.532   3.408  22.835  0.2011  0.1676 -0.0645
36129W        W79223   9.093   2.867  19.058  0.0377  0.5179  0.0026
36130W        W79224   8.707  33.858  21.674  0.0491 -0.0025  0.1182
36131W        W79225   8.698   3.332  22.853 -0.0329  0.1869  0.0638
36132W        W79226   9.298   0.084  18.689  0.1201 -0.1265 -0.0565
36133W        W79227   6.709  33.458  21.126 -0.1301  0.0060  0.1049
36134W        W79228   9.602   1.103  21.733 -0.0548 -0.0794  0.2256
36135W        W79229   8.763   2.003  20.359 -0.0907  0.1280 -0.1176
36136W        W79230   7.692   1.622  22.159 -0.0468  0.2181  0.6804
36137W        W79231   8.773   1.773  20.779  0.2536 -0.0028 -0.1747
36138W        W79232   9.613   3.063  22.266  0.2708  0.0806  0.1745
36139W        W79233   8.676   0.157  21.689 -0.1740 -0.3028 -0.0199
36140W        W79234   8.972  34.509  22.549  0.1877 -0.0117  0.0093
36141W        W79235   9.161   3.116  22.068 -0.0313 -0.0859 -0.1263
36142W        W79236   7.853   2.117  19.380 -0.0050 -0.3922 -0.0396
36143W        W79237   7.402   2.515  21.159 -0.1452 -0.0375 -0.0115
36144W        W79238   6.781   2.559  22.251  0.0065 -0.0252 -0.0670
36145W        W79239   8.293   0.094  21.985 -0.0327  0.1000 -0.2238
36146W        W79240   8.955   0.716  20.111 -0.1005 -0.2777  0.2709
36147W        W79241   9.736   3.488  21.425  0.1631  0.0766  0.1118
36148W        W79242  10.025   1.926  21.929 -0.2703 -0.2999  0.0117
36149W        W79243  11.122   2.767  22.522 -0.3612 -0.2903 -0.0034
36150W        W79244   7.708   2.685  22.903 -0.4189  0.1160 -0.0494
36151W        W79245   6.448   3.341  21.008 -0.0679 -0.3298 -0.1424
36152W        W79246   8.546   4.696  20.434 -0.0979  0.0659  0.1980
36153W        W79247   9.930   4.082  20.586  0.1324 -0.1360 -0.2421
36154W        W79248   9.552   2.092  21.937 -0.0271  0.0543  0.0132
36155W        W79249   9.702   2.643  22.504  0.0795 -0.1516 -0.1707
36156W        W79250   6.846   3.772  18.708  0.1068 -0.0640  0.0772
36157W        W79251   9.720   4.094  23.684 -0.1219 -0.1236 -0.1095
36158W        W79252   7.553   4.441  23.861  0.0107 -0.1015  0.0156
36159W        W79253   9.032   1.363  22.155 -0.1006 -0.0545  0.2601
36160W        W79254   8.862   2.861  21.138  0.1230  0.0073  0.1040
36161W        W79255   9.988   3.447  20.030  0.3347  0.3067 -0.1970
36162W        W79256   9.031   1.945  21.615 -0.1525  0.0565  0.1075
36163W        W79257   7.784   2.964  23.279  0.4450  0.1526  0.2502
36164W        W79258   6.765   2.889  21.850 -0.1517 -0.0341  0.2282
36165W        W79259  11.031   1.338  23.133 -0.0160  0.0959  0.0761
36166W        W79260   7.813   2.100  19.916 -0.2229 -0.0429  0.1116
36167W        W79261   9.327   0.548  19.139  0.1332 -0.0334 -0.0054
36168W        W79262   9.478   1.316  20.115  0.3194 -0.2347 -0.4929
36169W        W79263  10.068   0.468  18.656  0.0118 -0.2306 -0.1829
36170W        W79264   8.362   0.199  21.315  0.2051  0.1159 -0.0064
36171W        W79265   6.891   4.112  21.838 -0.0245  0.4787 -0.1860
36172W        W79266   7.447  34.399  22.980  0.2490 -0.0431 -0.1486
36173W        W79267  11.074   2.295  21.553 -0.0126  0.2792 -0.0999
36174W        W79268   7.393   1.764  20.562 -0.0580  0.1956  0.2447
36175W        W79269  10.271  34.196  21.594 -0.0141 -0.0780 -0.2271
36176W        W79270   9.045   2.563  22.843 -0.3483  0.1864 -0.0404
36177W        W79271   6.885   1.463  21.558  0.1905 -0.0221  0.0099
36178W        W79272  10.067   3.884  19.103  0.1940 -0.2457  0.2885
36179W        W79273   9.929   1.490  19.956 -0.0755  0.0368  0.1354
36180W        W79274  10.229   1.913  20.170  0.3726 -0.2171  0.2811
36181W        W79275   8.267   0.975  20.568 -0.3339  0.0262  0.1374
36182W        W79276   6.959   0.645  22.651  0.0221 -0.1004  0.2976
36183W        W79277   7.969   2.476  20.979  0.1356  0.2824 -0.0130
36184W        W79278   8.091  34.500  20.103  0.0729  0.1699 -0.0189
36185W        W79279  12.106   4.963  23.034  0.3071  0.6410 -0.1129
36186W        W79280   7.229   2.502  22.931 -0.0885 -0.1072 -0.1031
36187W        W79281  10.020   0.697  19.773  0.0849  0.0425  0.0337
36188W        W79282   7.850   1.140  21.951  0.3498 -0.3642  0.3294
36189W        W79283   9.751   2.571  21.470  0.2792  0.0977 -0.2420
36190W        W79284   9.065   2.554  18.653  0.0388  0.0061  0.0102
36191W        W79285   8.403  34.448  22.426 -0.0008 -0.1419  0.1946
36192W        W79286   8.667   0.258  22.589 -0.1687  0.1398  0.1323
36193W        W79287   7.627   1.741  19.626 -0.0012 -0.1379  0.2102
36194W        W79288   8.901   2.060  19.572  0.1660  0.3053  0.2981
36195W        W79289  10.518   3.196  23.750  0.4377 -0.3007 -0.2595
36196W        W79290   9.620   2.135  20.953  0.2608 -0.1950 -0.2833
36197W        W79291   8.495   3.681  21.914 -0.0356  0.2167  0.0751
36198W        W79292   9.483   1.307  23.088  0.1105 -0.1048 -0.1310
36199W        W79293   9.263   3.050  22.752 -0.2773  0.0288  0.0516
36200W        W79294   8.378   3.133  19.264  0.4824 -0.1762 -0.0863
36201W        W79295   6.409   2.429  21.961 -0.0130 -0.1271 -0.1903
36202W        W79296   8.061   3.415  22.025  0.2339  0.1600 -0.3243
36203W        W79297   6.715   0.697  21.583 -0.1679 -0.1419 -0.1545
36204W        W79298   7.956   2.134  23.023 -0.0500  0.0052  0.1976
36205W        W79299  11.018   1.777  19.883  0.0189  0.2468  0.0817
36206W        W79300   6.137  34.529  22.486  0.0411  0.0390 -0.0208
36207W        W79301  10.258   1.405  21.157 -0.3573  0.0129  0.0964
36208W        W79302   8.397   3.024  21.295 -0.3125 -0.0122 -0.1267
36209W        W79303   9.012   3.483  20.683 -0.1257 -0.0145 -0.2923
36210W        W79304  10.539   1.100  20.309 -0.1080  0.0950 -0.0052
36211W        W79305  10.228   2.745  20.940 -0.1177 -0.2535 -0.0730
36212W        W79306   7.561   0.407  21.366  0.2398 -0.0785 -0.0850
36213W        W79307   7.253   2.785  20.798  0.3255 -0.2055 -0.0695
36214W        W79308   7.725   0.067  23.258 -0.2164 -0.0081 -0.0787
36215W        W79309   7.610  33.218  21.137  0.0198 -0.1503 -0.2689
36216W        W79310   9.931   0.687  22.420  0.2078  0.0987  0.1164
36217W        W79311   6.469   1.949  21.941 -0.5406  0.0248  0.3821
36218W        W79312   8.310   2.094  20.879  0.2392 -0.3832  0.3212
36219W        W79313   8.521   2.344  21.697  0.1618  0.0267  0.1939
36220W        W79314   6.259   2.749  20.944 -0.0158 -0.0092  0.0534
36221W        W79315  10.969   0.811  23.188  0.3674  0.1217  0.2820
36222W        W79316   8.834   3.043  19.447  0.1394 -0.2838  0.3513
36223W        W79317  10.032   3.365  22.038 -0.0868 -0.0183  0.2375
36224W        W79318   9.744   3.011  21.774  0.0215  0.0011 -0.1122
36225W        W79319   8.193   0.866  21.675 -0.1719 -0.0373 -0.2976
36226W        W79320   7.265   1.605  21.086  0.3740 -0.1902 -0.0212
36227W        W79321   6.460   2.408  23.099  0.1273  0.1753  0.1476
36228W        W79322   8.988   2.421  21.352 -0.2571 -0.1920 -0.2016
36229W        W79323   9.390  33.453  18.401  0.5633 -0.1342 -0.2402
36230W        W79324  10.407   4.375  21.087 -0.1328 -0.0575 -0.1076
36231W        W79325   9.253   2.065  20.510  0.1377  0.2316  0.0882
36232W        W79326   8.295   2.862  21.824  0.1157 -0.0069  0.0720
36233W        W79327   9.423   1.147  23.608  0.2631  0.0216  0.0459
36234W        W79328   9.858   1.631  20.990  0.0210  0.0776 -0.0187
36235W        W79329   9.064   1.538  20.441  0.3870  0.1790 -0.0662
36236W        W79330   7.033   0.037  19.655  0.0400  0.0576 -0.3001
36237W        W79331  10.282   3.459  21.522  0.0553  0.1779  0.2434
36238W        W79332   7.732   3.025  20.094  0.0205 -0.1335  0.0344
36239W        W79333   7.399   2.059  20.176  0.1102  0.0398 -0.0841
36240W        W79334   7.773   3.315  20.787  0.0121  0.1152 -0.2318
36241W        W79335   8.895   1.563  21.284  0.2129  0.3386  0.1712
36242W        W79336   5.740   0.841  23.749  0.1314 -0.0109 -0.1699
36243W        W79337   8.353   1.370  21.489  0.2907  0.0099  0.0314
36244W        W79338   8.079   1.204  20.087  0.0352 -0.3182  0.2725
36245W        W79339   9.629   3.002  23.557  0.5500  0.2169 -0.0361
36246W        W79340   9.700   0.066  20.656 -0.2862  0.0882  0.3857
36247W        W79341   9.916  34.594  20.150 -0.1797  0.0512  0.1886
36248W        W79342   9.604   1.525  22.053  0.0683  0.0303  0.1300
36249W        W79343  10.647   3.132  20.749  0.1402  0.4913 -0.0380
36250W        W79344  10.586   1.314  19.247 -0.3366  0.1475  0.1784
36251W        W79345   9.799   0.154  18.931 -0.0653 -0.3268  0.0077
36252W        W79346   6.778   2.430  22.727  0.1647 -0.1360 -0.1990
36253W        W79347   9.124   2.050  21.071  0.0988 -0.0511  0.1749
36254W        W79348   7.212   2.450  22.438 -0.3932 -0.0974  0.0638
36255W        W79349   7.776  33.868  19.287 -0.0018  0.0496 -0.1218
36256W        W79350   9.590   3.309  20.274  0.1051 -0.1779  0.1007
36257W        W79351   6.965   2.010  23.059 -0.0134  0.0378  0.2794
36258W        W79352   9.982   2.141  22.383  0.0119  0.0200  0.4041
36259W        W79353   8.533   3.257  22.301  0.0548 -0.2991  0.1148
36260W        W79354   6.647  34.656  22.389 -0.2528 -0.0993 -0.0057
36261W        W79355   8.409   1.320  18.954  0.0624  0.2772 -0.2671
36262W        W79356   8.784  34.203  22.169  0.3605 -0.2250 -0.0834
36263W        W79357   7.417   1.895  19.185 -0.1865  0.1437 -0.0936
36264W        W79358   8.934   0.662  22.352  0.3491  0.3950  0.5167
36265W        W79359   7.626   1.246  20.489  0.1931  0.0325 -0.1580
36266W        W79360   9.408  34.559  21.603 -0.1612 -0.3179  0.5127
36267W        W79361  10.269   2.101  22.846  0.0657 -0.3748 -0.1333
36268W        W79362   9.978   3.079  20.615 -0.2090  0.2324  0.2479
36269W        W79363   9.925   1.578  20.489  0.1442  0.1277  0.1532
36270W        W79364   7.459   2.361  20.574 -0.1170  0.0818 -0.1608
36271W        W79365   8.597   0.608  21.465  0.0863  0.1010 -0.0388
36272W        W79366   8.550   1.501  22.360  0.0455  0.1780  0.0442
36273W        W79367   6.874   3.290  23.488 -0.1530  0.3007  0.2505
36274W        W79368   9.761   3.144  22.901 -0.2875  0.1070 -0.0711
36275W        W79369   9.164   1.772  19.985  0.0620  0.2477  0.2324
36276W        W79370   9.191   0.610  23.729 -0.1415  0.3837  0.0411
36277W        W79371   8.448   1.297  19.707 -0.2929 -0.2643  0.2832
36278W        W79372   7.714   2.798  20.596 -0.0257 -0.3203 -0.1741
36279W        W79373   8.197   2.876  20.835 -0.1617 -0.0830  0.0223
36280W        W79374   7.585  33.980  20.634  0.0851 -0.1632  0.2459
36281W        W79375   9.466   3.923  22.822 -0.1661 -0.1746  0.1940
36282W        W79376   8.483   2.729  19.060 -0.1325  0.2525  0.1475
36283W        W79377   8.263   2.948  22.984 -0.0666  0.0397 -0.1591
36284W        W79378   7.984   2.641  21.480 -0.2766  0.2792 -0.0367
36285W        W79379  11.218   0.930  22.785 -0.4343 -0.1250  0.1760
36286W        W79380   7.734   2.196  23.550 -0.2183  0.1276 -0.0813
36287W        W79381   7.929   1.602  19.016  0.0358 -0.0979  0.0423
36288W        W79382   7.152   2.082  20.915  0.0918  0.0682  0.0273
36289W        W79383   8.986   0.211  20.051 -0.1887 -0.0869 -0.3525
36290W        W79384   9.404   1.707  20.766 -0.1856  0.2254 -0.3884
36291W        W79385   7.556   0.508  22.463 -0.1119 -0.1802 -0.0403
36292W        W79386   9.370   0.400  21.406  0.0111 -0.0660  0.0320
36293W        W79387   8.296   2.309  22.192 -0.0989 -0.2038 -0.1753
36294W        W79388   9.842   0.735  20.641  0.3426 -0.0459  0.0142
36295W        W79389   9.537  34.484  18.296  0.0316 -0.0292 -0.2016
36296W        W79390  10.268   4.514  22.897 -0.0983  0.0925 -0.2796
36297W        W79391   8.637   1.770  23.238  0.0296 -0.0570  0.1701
36298W        W79392   8.538   0.988  20.097 -0.2417 -0.0884  0.3603
36299W        W79393   9.137   0.403  21.946 -0.0563  0.1007  0.0113
36300W        W79394   7.428  34.617  21.762 -0.1093 -0.0291  0.1422
36301W        W79395   8.335   2.112  20.212  0.0101 -0.0417  0.1249
36302W        W79396   9.466   3.473  22.521  0.0148  0.0335  0.0832
36303W        W79397   7.638   1.969  20.986 -0.0638 -0.1635 -0.0052
36304W        W79398   8.204   3.430  20.987  0.0137  0.2648  0.0854
36305W        W79399   9.711   0.831  23.038 -0.0417  0.0645 -0.3196
36306W        W79400   8.731   1.995  22.258  0.5452  0.0528  0.1055
36307W        W79401   7.945   0.432  21.641  0.1608 -0.4039  0.1243
36308W        W79402   8.553   0.517  20.435 -0.1630 -0.1440  0.0014
36309W        W79403  11.025   1.291  21.494  0.1902  0.0112 -0.1626
36310W        W79404  10.000   2.348  20.637  0.1027  0.3085 -0.2420
36311W        W79405   7.764   0.261  22.062  0.1211 -0.1174  0.2816
36312W        W79406   8.684   2.433  22.482  0.2899  0.2370 -0.2741
36313W        W79407   8.851   1.557  22.802  0.0036 -0.2050  0.2040
36314W        W79408  10.762   4.115  19.680  0.3152 -0.1661 -0.1950
36315W        W79409  10.032   2.136  21.468  0.1601  0.0704 -0.0379
36316W        W79410   7.546   2.142  21.478 -0.0039 -0.1486 -0.0123
36317W        W79411   7.087   2.156  23.499 -0.0286 -0.0240 -0.1476
36318W        W79412   8.387   2.469  20.611  0.1671 -0.2618  0.2136
36319W        W79413   8.222   0.975  21.179 -0.0553 -0.1675 -0.2815
36320W        W79414   7.404   1.689  24.658  0.1398  0.0578  0.0969
36321W        W79415   9.338   2.908  21.308 -0.1039  0.0365 -0.4455
36322W        W79416   9.529   3.450  23.769  0.5312  0.0962 -0.2730
36323W        W79417   8.375  33.712  18.920  0.1252 -0.0051 -0.2312
36324W        W79418  10.941   2.212  19.577  0.0738  0.1128 -0.1621
36325W        W79419   8.030   2.104  21.313 -0.2180 -0.0654  0.3423
36326W        W79420  10.728   1.406  22.401  0.1069 -0.0908  0.1965
36327W        W79421   8.609   1.787  19.910  0.2019 -0.0271  0.0837
36328W        W79422  10.243   0.400  23.917 -0.0077 -0.1743 -0.0278
36329W        W79423   7.909  34.078  23.318 -0.1605 -0.1226 -0.1355
36330W        W79424  11.435   3.309  20.385 -0.1811  0.0823  0.0979
36331W        W79425   6.680   0.671  22.171 -0.0347 -0.2036  0.4835
36332W        W79426   9.179   3.895  24.869  0.3720 -0.0078  0.1438
36333W        W79427   7.314   1.778  21.759  0.2328 -0.2428 -0.0496
36334W        W79428   8.630   0.961  19.382  0.0812  0.1247 -0.0835
36335W        W79429   6.846   0.753  19.999 -0.0073  0.1394  0.0459
36336W        W79430  10.074   1.257  21.734 -0.2417  0.3752 -0.0283
36337W        W79431   9.601   3.283  20.929 -0.2607  0.3894  0.0690
36338W        W79432   8.244   2.138  19.698  0.1286 -0.1842 -0.0218
36339W        W79433  12.009   1.258  21.555 -0.1531 -0.0250 -0.1442
36340W        W79434   8.166   1.969  22.536  0.1879  0.1093  0.1884
36341W        W79435  11.429   1.924  20.468  0.1903  0.0823  0.3442
36342W        W79436   9.258   2.785  19.798  0.3130  0.0417  0.0196
36343W        W79437   7.365   1.219  21.642 -0.2966 -0.0610 -0.0516
36344W        W79438   7.647  34.080  22.612 -0.1060 -0.1898  0.0917
36345W        W79439  11.110   2.978  20.735  0.1960  0.1641 -0.1622
36346W        W79440   9.732   0.870  19.267 -0.0602  0.1490  0.0772
36347W        W79441   9.285   1.522  22.547 -0.0190  0.1628  0.1751
36348W        W79442  10.054   0.498  21.594 -0.2658  0.0602  0.0672
36349W        W79443   9.493   1.824  23.062  0.0767  0.3832 -0.1037
36350W        W79444   6.898   0.297  23.204  0.0089 -0.0845 -0.2567
36351W        W79445  10.024   3.623  22.830  0.1251 -0.0671 -0.1976
36352W        W79446  11.985   0.658  18.423  0.2009 -0.1239 -0.0643
36353W        W79447   8.741   0.047  22.162 -0.0434 -0.1097 -0.0208
36354W        W79448  10.941   2.128  20.736  0.1783  0.2841 -0.4109
36355W        W79449   8.381   1.771  18.681 -0.1462  0.2598 -0.3142
36356W        W79450   7.206   0.718  21.651 -0.0992 -0.6322 -0.1638
36357W        W79451   9.310   1.483  24.069 -0.0385 -0.1995  0.0391
36358W        W79452   6.974   2.377  20.042 -0.0959  0.0365  0.3883
36359W        W79453   8.924   1.090  22.646  0.4711 -0.0435  0.2861
36360W        W79454   9.144   3.067  20.256 -0.4705 -0.0423 -0.0181
36361W        W79455  10.036   0.951  21.373 -0.1063 -0.2833 -0.2048
36362W        W79456  10.057   1.852  18.691 -0.0091  0.1321  0.1801
36363W        W79457   7.703  33.479  20.701 -0.0177 -0.0671 -0.1554
36364W        W79458   6.889   2.666  23.239  0.2631  0.2650  0.3660
36365W        W79459   8.525   0.702  18.965  0.1173  0.1352  0.3696
36366W        W79460   8.123   1.649  20.625 -0.0778  0.0630 -0.1583
36367W        W79461   8.706   2.836  22.081  0.0306  0.2925  0.4464
36368W        W79462  11.066   0.662  23.672 -0.2909 -0.0223  0.0799
36369W        W79463   7.692  34.162  20.164  0.1790  0.2432  0.0069
36370W        W79464   9.249   0.989  21.420 -0.1214 -0.2362 -0.1228
36371W        W79465   6.599   2.854  21.301 -0.3062  0.1054  0.1595
36372W        W79466   7.907  34.487  21.803 -0.3023 -0.1216  0.0087
36373W        W79467   9.857   3.504  23.334 -0.2562  0.0410  0.0847
36374W        W79468   8.314   1.861  22.027 -0.1668 -0.1620 -0.0619
36375W        W79469   8.776   1.626  21.840 -0.0315  0.1374  0.2101
36376W        W79470   9.044  33.600  22.107 -0.0087  0.0477 -0.0122
36377W        W79471   9.211   0.788  20.540 -0.0398 -0.1796  0.1994
36378W        W79472   9.188   1.403  21.659 -0.1221 -0.1944 -0.1120
36379W        W79473  10.346   1.098  22.375  0.0398  0.0011  0.0757
36380W        W79474   9.506   2.163  22.432 -0.1623 -0.0053  0.1242
36381W        W79475   8.749   1.103  21.402  0.2567  0.3097 -0.0680
36382W        W79476   9.973   3.014  21.284  0.2541 -0.1568 -0.2759
36383W        W79477  11.779   2.341  21.512 -0.1682  0.0538 -0.2232
36384W        W79478   7.811   2.270  22.360 -0.0125  0.1398 -0.1248
36385W        W79479   5.888   1.950  24.190 -0.1264  0.4167 -0.1455
36386W        W79480   9.694   2.661  24.905 -0.0379  0.0008 -0.1202
36387W        W79481   8.137   1.656  21.083 -0.2190 -0.0771 -0.0462
36388W        W79482   7.409  34.497  19.957 -0.0834  0.0855  0.0616
36389W        W79483  10.974   3.465  19.422  0.4397  0.0307 -0.3164
36390W        W79484   6.822   3.006  22.522 -0.1041  0.0296 -0.2780
36391W        W79485   7.502   1.033  22.561  0.1845  0.4175 -0.0337
36392W        W79486   7.775   2.528  19.690  0.1968  0.1121 -0.0125
36393W        W79487  11.079   3.830  19.947 -0.0191 -0.2054 -0.2790
36394W        W79488   9.765   1.645  21.537  0.2556  0.1066 -0.0370
36395W        W79489   9.568   3.500  22.006  0.2853  0.1001  0.2727
36396W        W79490   7.796   1.358  21.366 -0.0958  0.0253  0.0936
36397W        W79491   9.685   1.899  20.068 -0.0102  0.1929 -0.1371
36398W        W79492   5.964   2.817  20.408 -0.1032 -0.1950 -0.0751
36399W        W79493  10.519   3.023  21.204 -0.2771 -0.1495  0.1027
36400W        W79494   8.789   2.932  22.576 -0.1924 -0.0336 -0.2436
36401W        W79495  10.385   4.883  22.545 -0.1556 -0.2990 -0.1152
36402W        W79496   9.671   1.492  19.099  0.3005 -0.1783  0.2911
36403W        W79497  10.687   2.593  21.040 -0.0932  0.0528 -0.2129
36404W        W79498   9.506  33.766  20.168 -0.1116 -0.0196  0.0127
36405W        W79499   9.910   2.177  23.709  0.1350 -0.1781 -0.1384
36406W        W79500   7.965   2.233  21.801  0.1342  0.1260  0.0457
36407W        W79501   7.762   0.138  20.814 -0.1134 -0.1517  0.3381
36408W        W79502   7.339   1.251  22.140  0.0787  0.1025 -0.1232
36409W        W79503   9.947   1.208  23.403 -0.0147 -0.0569  0.0745
36410W        W79504   7.015   3.589  24.583 -0.0149 -0.1591 -0.1507
36411W        W79505  10.615   4.896  20.943 -0.2855  0.1880  0.1301
36412W        W79506   7.288   1.108  21.185  0.1475 -0.0323 -0.0460
36413W        W79507   8.768   2.322  20.857  0.2606 -0.2561  0.0958
36414W        W79508  12.376  34.208  21.248  0.0897 -0.0477 -0.1134
36415W        W79509   9.545   1.605  19.640  0.0980  0.0343  0.1450
36416W        W79510   8.005   1.151  22.467  0.2877  0.2917 -0.1633
36417W        W79511   8.746   3.243  21.635 -0.1308 -0.4842  0.2793
36418W        W79512   8.901   4.533  22.392 -0.1959  0.0173  0.1883
36419W        W79513   9.545   2.405  22.923 -0.1574  0.0375 -0.1304
36420W        W79514   6.480   0.584  20.322 -0.0132 -0.2364  0.0516
36421W        W79515   9.866   0.416  20.135 -0.0308  0.0413 -0.0849
36422W        W79516   7.941   0.678  22.762 -0.0746  0.3671  0.3730
36423W        W79517  10.396   0.070  22.609 -0.0871 -0.0668  0.1162
36424W        W79518   9.143   1.291  20.900 -0.2024  0.0572  0.1831
36425W        W79519  10.368   1.399  20.619  0.1306  0.0479 -0.2224
36426W        W79520   9.545   2.591  23.815 -0.0093 -0.0100 -0.0624
36427W        W79521   6.932   1.158  21.908 -0.1672  0.2200  0.1826
36428W        W79522   7.763   1.635  20.167 -0.1764 -0.3552 -0.0804
36429W        W79523  11.032   2.987  21.205  0.1931  0.2417 -0.2028
36430W        W79524  10.642   0.693  18.445  0.0656 -0.4415  0.3272
36431W        W79525   9.064   3.914  22.529 -0.1289 -0.0682 -0.0024
36432W        W79526   6.762  34.324  21.147  0.1523  0.1790  0.1036
36433W        W79527  10.399   1.719  19.652 -0.1624 -0.1973 -0.2023
36434W        W79528   7.874   2.090  20.429 -0.3505 -0.0861 -0.1321
36435W        W79529   7.846   2.693  22.064 -0.0427  0.2066  0.5489
36436W        W79530   9.906   2.977  24.600 -0.0314  0.2180 -0.0393
36437W        W79531   6.929   0.583  21.081 -0.0005  0.2229  0.0516
36438W        W79532   9.202   2.297  19.997 -0.1545  0.0411 -0.0399
36439W        W79533   9.675   2.759  20.969 -0.4376  0.0550 -0.1451
36440W        W79534   8.318   4.223  20.276  0.0504 -0.0224 -0.1651
36441W        W79535  11.129   4.323  19.976  0.1820  0.2057 -0.0677
36442W        W79536  10.573   3.631  20.701 -0.2991 -0.3414  0.0616
36443W        W79537   8.081  33.937  20.838  0.1120 -0.5096  0.0818
36444W        W79538  10.491   3.215  22.173 -0.2689  0.0990  0.0711
36445W        W79539  10.631   2.976  22.672  0.0108 -0.1397 -0.1219
36446W        W79540   8.998   0.943  19.020  0.0367  0.1426  0.2771
36447W        W79541   8.600   2.006  21.315  0.0865 -0.0281  0.2422
36448W        W79542   8.798   2.921  19.930  0.0091 -0.2632 -0.1100
36449W        W79543   9.991  34.636  21.681 -0.0865  0.2788 -0.0622
36450W        W79544   8.534   0.561  21.992 -0.2149 -0.3214 -0.0439
36451W        W79545   9.087   3.149  18.397  0.3458  0.0635  0.5908
36452W        W79546   9.780  34.202  22.612 -0.2059 -0.0749 -0.1984
36453W        W79547   9.892   2.515  22.024 -0.1894  0.2166  0.1071
36454W        W79548   8.045   3.708  24.000 -0.1373  0.0449 -0.1267
36455W        W79549   7.098   3.768  19.807 -0.0942 -0.0756  0.1555
36456W        W79550   7.592   0.730  21.954 -0.0420  0.1845  0.3409
36457W        W79551   7.610   3.165  22.141 -0.0898  0.2010 -0.1651
36458W        W79552   8.787   3.523  21.156  0.2413  0.0763 -0.0218
36459W        W79553   9.515   2.798  20.500 -0.2926 -0.1119  0.0022
36460W        W79554   8.965   1.363  19.914  0.1819 -0.1182  0.2881
36461W        W79555  10.063   3.195  22.489  0.1333 -0.1540 -0.1504
36462W        W79556   7.846  34.656  21.309 -0.1318  0.3264  0.2901
36463W        W79557  10.383   0.148  20.070 -0.0423  0.3026  0.3509
36464W        W79558   9.645  34.330  20.946 -0.1261 -0.2387 -0.2455
36465W        W79559   8.958   2.107  23.116 -0.2580 -0.0579 -0.2600
36466W        W79560   7.578   1.266  19.754  0.0737  0.0858 -0.1448
36467W        W79561   8.056   2.495  20.112  0.0572  0.1294 -0.3932
36468W        W79562   7.031   2.183  22.002  0.1206 -0.2012 -0.1313
36469W        W79563   8.163  34.098  22.670 -0.1166 -0.3151  0.5088
36470W        W79564   8.343   0.641  24.393 -0.1936 -0.1272 -0.2355
36471W        W79565   6.697   2.394  21.091 -0.0243 -0.1777  0.3546
36472W        W79566   7.796   1.049  20.956 -0.3271  0.0637 -0.4141
36473W        W79567  11.421   3.317  21.041  0.0528 -0.0684 -0.0762
36474W        W79568   8.622   1.272  20.934 -0.1409  0.2276  0.0605
36475W        W79569   6.572  33.867  21.462 -0.2402  0.4479 -0.0962
36476W        W79570  10.280   2.722  20.444  0.3569  0.1169  0.0077
36477W        W79571   9.169   3.032  20.826 -0.0833 -0.0781  0.4317
36478W        W79572   8.603   0.464  19.878 -0.1377 -0.2142  0.1305
36479W        W79573   8.975   4.164  21.937 -0.3047  0.2279 -0.0558
36480W        W79574   6.787   2.868  18.721  0.0284 -0.2373  0.0944
36481W        W79575   8.581   1.986  22.784 -0.1933 -0.2598 -0.1626
36482W        W79576   8.646   0.128  23.801 -0.0406 -0.1695  0.0751
36483W        W79577   7.366   1.375  19.318 -0.1586  0.1263 -0.6340
36484W        W79578   9.477   1.398  21.262  0.0026 -0.0937 -0.1064
36485W        W79579   9.505   3.972  22.165 -0.1012  0.1273 -0.3026
36486W        W79580  10.003   3.385  19.501  0.0493 -0.2157 -0.1303
36487W        W79581   7.444   0.930  23.494 -0.0956 -0.0678  0.0936
36488W        W79582   8.988   3.384  22.463 -0.0493  0.0601  0.0070
36489W        W79583   5.926   0.306  21.951 -0.1829 -0.0141 -0.0240
36490W        W79584   9.035   2.360  19.091 -0.0311 -0.2881  0.2775
36491W        W79585   9.191   2.671  22.339 -0.3104  0.1388 -0.3127
36492W        W79586   9.364   3.166  19.365  0.0227 -0.1945 -0.0503
36493W        W79587   9.405   0.370  22.356 -0.0694 -0.1525 -0.2900
36494W        W79588   9.699   2.372  20.233 -0.2859 -0.3148  0.1105
36495W        W79589   7.982   0.541  21.060  0.1585  0.2895 -0.2180
36496W        W79590   8.036   0.684  22.197 -0.3016 -0.1189 -0.1315
36497W        W79591  10.175   2.697  22.443 -0.2222  0.1358  0.0751
36498W        W79592   8.190   0.610  20.106  0.0821  0.0954 -0.1286
36499W        W79593   9.563   1.202  20.600 -0.2698 -0.5227 -0.1636
36500W        W79594   8.915   3.760  21.587 -0.0535  0.0745  0.2934
36501W        W79595   7.249   1.572  22.600 -0.1753 -0.0119 -0.0824
36502W        W79596   8.765   1.546  19.446  0.2353  0.1085  0.0931
36503W        W79597   8.939   1.985  23.658 -0.0536 -0.0121  0.3545
36504W        W79598   8.605   3.718  22.434  0.2873 -0.5527 -0.0585
36505W        W79599  10.250   2.955  21.769 -0.3279 -0.1635  0.0381
36506W        W79600   7.431   0.389  20.526  0.3162  0.0889  0.2004
36507W        W79601  10.858   1.055  20.741  0.2220  0.0263 -0.0175
36508W        W79602   9.393   3.791  23.429  0.1273 -0.0042  0.0323
36509W        W79603  10.715   3.063  23.217 -0.4302 -0.0536 -0.2169
36510W        W79604  11.476   3.546  23.009  0.5253  0.4893  0.1054
36511W        W79605  10.588   1.809  21.955  0.2377  0.1538  0.1660
36512W        W79606   7.486  33.534  20.156  0.0339  0.0612 -0.4254
36513W        W79607   8.385   2.941  20.232  0.1183  0.3366  0.5433
36514W        W79608   8.680   3.398  20.193 -0.0481  0.1087 -0.0699
36515W        W79609  11.050  34.433  22.072  0.0637  0.0602 -0.1787
36516W        W79610   7.690   0.756  19.974  0.0584  0.1263 -0.1953
36517W        W79611   9.300   0.290  20.423  0.2090  0.0757  0.0762
36518W        W79612   8.642   4.215  21.579  0.0465  0.0286 -0.2620
36519W        W79613  10.208   1.545  22.167  0.1318  0.3534  0.0406
36520W        W79614   8.422   3.051  27.854 -0.0695  0.1359 -0.0268
36521W        W79615   8.168   1.542  24.724 -0.0304  0.1535  0.0916
36522W        W79616   9.741   0.569  21.948 -0.1404  0.2613 -0.0564
36523W        W79617  11.381   1.282  25.306  0.0308  0.1332 -0.2953
36524W        W79618   7.342   1.324  25.176  0.3033 -0.0150 -0.1953
36525W        W79619  10.949   3.679  24.703  0.4661  0.0451 -0.0489
36526W        W79620   9.006   1.220  26.283  0.1801 -0.0884  0.0502
36527W        W79621  10.620   1.133  26.455 -0.1455 -0.0328  0.1051
36528W        W79622   9.816   2.935  26.117 -0.2456 -0.0961 -0.1208
36529W        W79623   9.098   1.980  22.659  0.3702 -0.1936  0.0654
36530W        W79624   8.064   2.165  26.008  0.0117 -0.3707 -0.3755
36531W        W79625   8.063   2.773  26.203 -0.0937 -0.0134 -0.2101
36532W        W79626   8.751   0.547  24.003 -0.1970  0.2863 -0.1450
36533W        W79627   6.754   0.382  25.118 -0.0881  0.0140  0.1157
36534W        W79628  11.625   1.783  27.274  0.1736  0.2258  0.3903
36535W        W79629   8.128   1.629  23.240 -0.2303  0.2045 -0.0871
36536W        W79630   6.835   1.383  25.227  0.4262 -0.2552 -0.1520
36537W        W79631   8.489   0.964  24.040 -0.1697 -0.3005 -0.1071
36538W        W79632  10.242   3.436  25.439  0.3001 -0.2975  0.2194
36539W        W79633   8.577   1.406  26.118  0.0289  0.0075 -0.0105
36540W        W79634   8.867  34.568  26.383  0.1376 -0.0152 -0.1902
36541W        W79635   8.579   2.652  24.016 -0.0557  0.0182 -0.0044
36542W        W79636   7.510   2.115  22.751 -0.1238  0.0233  0.2803
36543W        W79637   6.894   2.234  25.245  0.0330 -0.1634 -0.1074
36544W        W79638   8.960   2.223  25.144  0.0401 -0.0976 -0.1020
36545W        W79639   9.797   0.797  24.821 -0.1102 -0.0082  0.2200
36546W        W79640  10.567   1.694  25.740 -0.1616  0.2117 -0.0589
36547W        W79641   9.198   3.123  25.859  0.0103 -0.1663  0.2406
36548W        W79642   9.230   3.493  25.491 -0.2385 -0.2232  0.0240
36549W        W79643   9.585   2.230  27.031  0.0944 -0.2715 -0.3205
36550W        W79644   6.373   3.630  24.850  0.0264 -0.2363  0.0611
36551W        W79645   6.381   2.624  23.965 -0.2992 -0.1140 -0.0975
36552W        W79646   8.392   3.224  24.922  0.1854  0.1130  0.0856
36553W        W79647  12.939   2.958  25.102  0.3381  0.4572  0.6325
36554W        W79648  10.771   2.787  27.389 -0.0340 -0.3650  0.0713
36555W        W79649  10.215   3.475  27.329  0.1181  0.0626 -0.2620
36556W        W79650   7.946   3.628  24.971  0.1388  0.1677 -0.0336
36557W        W79651   9.002   3.371  27.774 -0.3735 -0.0031 -0.1413
36558W        W79652   6.980   2.739  26.447  0.1704  0.1847  0.0866
36559W        W79653   8.680   2.342  26.751 -0.1973 -0.0760 -0.3268
36560W        W79654  10.882   3.167  24.641 -0.0366  0.0827 -0.0107
36561W        W79655   8.549   3.789  23.843  0.0744  0.1713 -0.2553
36562W        W79656  10.444   2.034  26.058  0.1177  0.2472  0.2972
36563W        W79657   8.557   2.778  26.552 -0.0796  0.0020 -0.0726
36564W        W79658   8.666   3.137  26.193 -0.0920 -0.0403  0.1639
36565W        W79659  11.374   0.623  26.846  0.1042  0.0184  0.0888
36566W        W79660   7.678   4.062  24.184 -0.1642 -0.1585  0.4651
36567W        W79661   8.651   1.253  23.170 -0.0850 -0.0594  0.1472
36568W        W79662   7.960   0.948  23.898  0.2441  0.2288 -0.1179
36569W        W79663  11.103   0.087  24.313 -0.0334  0.0458 -0.1183
36570W        W79664   8.018  34.474  25.369  0.1898 -0.0794 -0.0625
36571W        W79665   8.749   3.677  26.917  0.0166  0.2680 -0.3433
36572W        W79666   9.552   1.675  25.892  0.0126  0.0441 -0.1803
36573W        W79667   9.910   1.654  25.590 -0.0507  0.1999 -0.2145
36574W        W79668  10.386   1.830  23.321 -0.1721 -0.0931  0.0050
36575W        W79669  10.022   0.784  25.645  0.0883 -0.0753  0.3574
36576W        W79670   7.765   2.537  27.051  0.0334 -0.1924 -0.2358
36577W        W79671   7.703   2.166  24.767  0.2334  0.0933  0.4167
36578W        W79672   9.489   2.197  23.390  0.1222 -0.0838 -0.0131
36579W        W79673  11.361   2.368  24.905 -0.1088 -0.1003 -0.1588
36580W        W79674   9.780   3.499  24.242 -0.1654  0.1417  0.0698
36581W        W79675   8.026   2.983  24.203 -0.0134  0.1101  0.0751
36582W        W79676   6.908   2.265  25.830  0.1313 -0.1494 -0.0052
36583W        W79677   7.115   1.254  26.623  0.2960  0.0772  0.1756
36584W        W79678   9.865   0.285  23.459  0.1895 -0.0372 -0.0229
36585W        W79679  10.141   3.235  26.449  0.1473 -0.4452  0.1611
36586W        W79680   7.904   2.011  26.958  0.1671  0.0642 -0.1728
36587W        W79681  10.517   0.816  25.631  0.3235  0.2901  0.0873
36588W        W79682   8.681   2.861  24.976  0.0295 -0.0992  0.0002
36589W        W79683  10.603   2.394  26.808  0.0828  0.1806  0.3594
36590W        W79684   9.197   1.859  22.127 -0.1266 -0.1683 -0.0563
36591W        W79685  10.494   1.350  24.960  0.0958  0.1062  0.2321
36592W        W79686  10.309   0.676  26.449  0.2031  0.2609  0.0095
36593W        W79687   8.528   2.960  23.394  0.1515 -0.0713  0.1072
36594W        W79688   9.853   1.788  24.077  0.0941  0.0224 -0.2970
36595W        W79689  11.374   2.458  25.748  0.1946 -0.0800  0.0513
36596W        W79690  10.161   3.110  23.177 -0.1712  0.1622 -0.0586
36597W        W79691   8.454   1.908  26.998  0.0103 -0.0927 -0.0169
36598W        W79692   7.248   1.539  25.620 -0.2081 -0.1206  0.1251
36599W        W79693   9.888   3.610  28.253 -0.2928  0.1078  0.2792
36600W        W79694   6.908   4.597  25.134  0.3058 -0.2656  0.1284
36601W        W79695   7.388   3.640  26.628  0.1257  0.1541  0.1233
36602W        W79696   7.673   2.718  24.669  0.0907  0.0052 -0.1802
36603W        W79697   6.697   0.406  26.182  0.1514  0.1185 -0.1332
36604W        W79698   8.365   2.676  27.473  0.0324  0.1403  0.0388
36605W        W79699   9.801   0.795  23.719 -0.0141 -0.0182 -0.1842
36606W        W79700   7.829   1.643  27.298  0.1258 -0.0252  0.1326
36607W        W79701   9.578  34.132  25.357  0.2517  0.1888 -0.1253
36608W        W79702   7.629   2.622  24.154 -0.2630  0.0073 -0.1155
36609W        W79703  11.371   3.019  25.885 -0.1721  0.1085  0.0035
36610W        W79704  10.017   2.716  22.924  0.1210  0.1362  0.0127
36611W        W79705   9.919   2.426  24.158  0.1010 -0.2798  0.2898
36612W        W79706   8.093   0.603  25.289  0.0455 -0.1394 -0.1433
36613W        W79707   8.123   2.816  24.894  0.0568 -0.2518 -0.0361
36614W        W79708   7.484   0.590  26.175  0.1796  0.0310  0.1939
36615W        W79709   7.073   0.667  25.373  0.2356  0.3349  0.0813
36616W        W79710   9.730   0.647  26.567 -0.2323 -0.0496  0.1360
36617W        W79711   8.400   1.085  23.506  0.0650  0.3083  0.2745
36618W        W79712   9.319   0.637  25.084 -0.3532  0.0315 -0.1979
36619W        W79713   9.177   2.597  24.884 -0.0794 -0.1599  0.0183
36620W        W79714   7.158   2.705  24.284  0.0821  0.0311 -0.0923
36621W        W79715  10.696  34.272  25.963 -0.0081 -0.4659 -0.0156
36622W        W79716   9.220   3.379  25.004 -0.0644  0.0401  0.4982
36623W        W79717  11.804   3.608  26.941 -0.0637  0.1322  0.2077
36624W        W79718  10.211   2.458  26.101  0.2851 -0.0745 -0.0772
36625W        W79719   8.584   1.282  24.795 -0.0026 -0.3095  0.0273
36626W        W79720   8.030   1.780  23.741  0.0729  0.0327  0.0915
36627W        W79721   8.454   3.622  26.267 -0.0545 -0.0591  0.0922
36628W        W79722   8.021   2.351  26.595 -0.0126 -0.0445  0.0147
36629W        W79723   9.126   0.211  22.796 -0.1286  0.0476  0.1750
36630W        W79724  11.748   3.911  25.088  0.0145 -0.0106 -0.3566
36631W        W79725  10.244   2.471  24.710  0.0085 -0.1403  0.0073
36632W        W79726   7.491   2.024  27.230 -0.2013  0.0168 -0.3643
36633W        W79727   9.535   0.753  25.692  0.0953  0.0200  0.1679
36634W        W79728  10.696   2.538  26.182  0.0377 -0.1431 -0.0991
36635W        W79729   8.944   1.142  24.067 -0.0352 -0.2899  0.1228
36636W        W79730   8.569   0.552  23.468 -0.2106 -0.2927 -0.0349
36637W        W79731   9.905   4.566  26.097  0.1349  0.1214  0.3199
36638W        W79732   8.070   2.646  23.800  0.1166 -0.0314 -0.0417
36639W        W79733   8.963   1.739  25.008 -0.1843  0.0593 -0.1085
36640W        W79734   9.022   2.338  24.039  0.1693  0.1362 -0.0654
36641W        W79735   9.246   0.355  25.517  0.0704  0.1037 -0.0151
36642W        W79736   5.253   1.338  26.136 -0.1372 -0.2936  0.1326
36643W        W79737   9.783   1.445  27.198 -0.1055 -0.0794 -0.0524
36644W        W79738   7.737   1.645  22.790  0.0164 -0.0277  0.0958
36645W        W79739   7.380   2.632  27.438 -0.2056 -0.1694 -0.2899
36646W        W79740   9.071  34.688  24.523  0.0903  0.0460 -0.0960
36647W        W79741  10.374   1.838  23.902 -0.2443 -0.1662 -0.1108
36648W        W79742  10.168   1.784  26.436  0.0209 -0.0260 -0.0599
36649W        W79743  12.152   2.998  24.571  0.1513  0.0200  0.2740
36650W        W79744   8.902  34.186  23.834 -0.0224 -0.2329  0.0137
36651W        W79745   8.223   0.471  23.889 -0.1804  0.0429 -0.2292
36652W        W79746   7.075   2.960  27.263  0.2779 -0.0376 -0.0077
36653W        W79747  10.655   3.096  25.040  0.1697  0.1317 -0.2090
36654W        W79748   9.698   3.168  26.584  0.2088  0.2282 -0.1663
36655W        W79749   8.862   0.998  23.567 -0.1417 -0.0331 -0.3861
36656W        W79750  11.092   2.229  25.324 -0.0145  0.2854 -0.2126
36657W        W79751   6.858   2.646  25.531  0.2286  0.1033 -0.1534
36658W        W79752   9.315   1.721  28.018 -0.3770 -0.1927 -0.1777
36659W        W79753   9.109   2.905  25.385 -0.0216 -0.0353  0.0797
36660W        W79754   8.972   0.379  24.786 -0.2039 -0.2011  0.0281
36661W        W79755   8.625   1.449  24.297  0.0241  0.4468  0.1850
36662W        W79756  10.509  33.993  24.153 -0.5545  0.1105  0.1434
36663W        W79757   8.594   4.163  24.178 -0.7293  0.3910 -0.1137
36664W        W79758   9.820   0.521  25.270  0.2673 -0.2574 -0.2193
36665W        W79759  10.001   0.327  24.847  0.0317 -0.0476  0.3018
36666W        W79760   8.410  34.138  25.150 -0.0861 -0.1164 -0.0675
36667W        W79761  12.130  34.683  26.597 -0.1734 -0.0700 -0.0510
36668W        W79762  10.389   1.562  24.348  0.0799 -0.3194  0.0560
36669W        W79763  10.056   1.657  24.694 -0.2988 -0.0308  0.0726
36670W        W79764   7.580   0.946  24.486  0.0823  0.3289  0.1370
36671W        W79765   8.539   2.163  25.602  0.1787  0.2615  0.0734
36672W        W79766   8.068   1.921  25.439 -0.0779 -0.3926 -0.3802
36673W        W79767   8.745   3.673  27.475 -0.0487  0.1355 -0.0889
36674W        W79768  10.848   1.496  26.773  0.0686  0.2822 -0.0621
36675W        W79769  10.377   2.710  25.207 -0.0243  0.3573  0.1177
36676W        W79770   9.273  33.972  26.361 -0.4338  0.1170 -0.2857
36677W        W79771   9.065   1.504  23.331  0.4629  0.2330 -0.0965
36678W        W79772   7.522   3.133  24.265 -0.0587  0.0159 -0.2137
36679W        W79773   8.361   2.147  23.438  0.1398 -0.3188 -0.0861
36680W        W79774   8.343  34.567  26.298 -0.1079 -0.4209  0.0755
36681W        W79775   8.334   2.605  25.845 -0.1112 -0.0562 -0.0511
36682W        W79776   8.616   2.540  23.130 -0.2984 -0.2793  0.1652
36683W        W79777   9.979   1.108  26.450 -0.1321 -0.1495  0.1878
36684W        W79778   8.791   3.252  25.293  0.0819 -0.0420  0.0592
36685W        W79779   9.770  34.623  24.664 -0.3494  0.1249  0.1167
36686W        W79780   8.279   3.767  26.710  0.1217  0.0354  0.2002
36687W        W79781   8.331   1.379  23.895  0.3731  0.2124  0.0751
36688W        W79782   6.086   0.540  23.053 -0.0153  0.1964  0.0467
36689W        W79783  10.334   1.359  23.770 -0.1398  0.1489 -0.0177
36690W        W79784  10.123   2.856  25.706  0.0788  0.1460  0.0837
36691W        W79785   8.461   1.027  25.342  0.1583 -0.3282 -0.2690
36692W        W79786   7.685   1.301  24.788  0.1081  0.0324  0.1727
36693W        W79787   7.678   3.179  26.378  0.2277  0.0995 -0.0990
36694W        W79788   9.762   2.103  25.435  0.1824 -0.0016  0.1347
36695W        W79789  10.819  34.692  23.854 -0.0322 -0.0148  0.2041
36696W        W79790   9.717   2.399  26.262 -0.5289  0.0166 -0.3880
36697W        W79791   9.875   1.169  25.932  0.0063  0.0856  0.1439
36698W        W79792   7.344   2.262  23.962 -0.0744  0.0294  0.1671
36699W        W79793  10.527   0.516  26.041 -0.0286  0.2219  0.0349
36700W        W79794   8.871   3.189  24.630 -0.1531  0.3188 -0.2384
36701W        W79795   7.747   5.074  24.111 -0.0868  0.1411  0.1754
36702W        W79796  11.439   2.514  26.264  0.0272 -0.2294  0.0854
36703W        W79797   8.209   1.756  24.246  0.1245  0.0123  0.3053
36704W        W79798   7.821   4.203  24.616  0.0186  0.2995 -0.2251
36705W        W79799   7.606   0.483  26.658  0.1004 -0.0836 -0.2126
36706W        W79800  10.007   3.135  26.974  0.1110 -0.3354  0.1720
36707W        W79801   9.373   1.484  25.477 -0.2731 -0.1033 -0.1818
36708W        W79802   9.328   0.876  24.621 -0.0506  0.1919  0.1042
36709W        W79803  10.230   0.835  25.135 -0.1479  0.2023  0.0204
36710W        W79804   9.708   3.320  25.794  0.0722 -0.0869 -0.0784
36711W        W79805  10.350   1.448  26.754  0.0528 -0.4116  0.1013
36712W        W79806   8.634   1.333  26.934 -0.0061 -0.0275  0.1828
36713W        W79807   9.697   1.898  26.362  0.0870 -0.3608 -0.1129
36714W        W79808  11.738   3.402  24.246 -0.1122 -0.1595  0.0689
36715W        W79809  10.537   1.950  26.724 -0.0479 -0.0852  0.3078
36716W        W79810   8.312   1.512  25.197 -0.1038  0.0970  0.1896
36717W        W79811   8.071   1.620  25.917 -0.1216 -0.0722  0.2111
36718W        W79812   7.930   3.674  24.449  0.2976  0.0352 -0.1306
36719W        W79813   9.639   1.240  24.498  0.0527 -0.1627  0.2207
36720W        W79814   6.700   3.077  25.389  0.1427  0.2482 -0.0263
36721W        W79815   9.058   2.452  23.478 -0.1604  0.0887 -0.0920
36722W        W79816   7.091   1.786  26.513  0.1104  0.1845  0.1372
36723W        W79817  10.827   0.981  24.007  0.1001  0.1506  0.4158
36724W        W79818   9.298   0.696  22.693  0.2536  0.0139 -0.1745
36725W        W79819   8.892   0.965  25.003  0.2314 -0.1666 -0.0972
36726W        W79820  10.402   0.367  25.537 -0.1933  0.0681 -0.1698
36727W        W79821  10.528   2.298  23.951  0.1281 -0.1924 -0.0135
36728W        W79822  11.022  33.888  26.357  0.6711 -0.1664 -0.1675
36729W        W79823   8.253   0.651  26.235 -0.2499 -0.1325  0.0634
36730W        W79824  10.300   1.280  25.553  0.1789  0.0783  0.0475
36731W        W79825   7.852   1.494  25.431  0.1791  0.0959 -0.0535
36732W        W79826  10.371   3.059  27.672 -0.1879 -0.0152  0.1383
36733W        W79827   8.952   2.255  25.886  0.0831 -0.0502 -0.0466
36734W        W79828   9.462   0.849  24.089 -0.2260  0.1832  0.0587
36735W        W79829   8.796   1.514  23.791 -0.2636  0.1010 -0.2727
36736W        W79830   9.436   2.137  25.981  0.2611  0.1786 -0.0837
36737W        W79831  10.778   1.691  26.248 -0.1784 -0.0251 -0.2079
36738W        W79832   9.982   1.560  23.061  0.1659 -0.0054 -0.0263
36739W        W79833   9.970   1.316  25.053  0.1467  0.0244 -0.0417
36740W        W79834   7.628   1.886  25.736 -0.0761  0.0635 -0.2617
36741W        W79835  10.257   1.070  24.569 -0.0925 -0.0800 -0.0792
36742W        W79836   9.918   2.207  23.164 -0.0772 -0.0514  0.1557
36743W        W79837   8.927   2.689  24.400  0.2618  0.1013  0.0438
36744W        W79838   8.933  34.289  27.884 -0.1180  0.2432  0.1543
36745W        W79839  10.103   2.140  25.072 -0.0147  0.1632  0.1626
36746W        W79840   9.543   0.402  24.581 -0.1575 -0.0168  0.3185
36747W        W79841  10.437   0.860  26.862  0.0319 -0.2254 -0.0470
36748W        W79842  10.221   1.185  27.242 -0.3591  0.0583  0.0016
36749W        W79843   8.962   1.599  25.798  0.3284 -0.0455  0.0415
36750W        W79844   8.524   1.656  25.639  0.2277 -0.1110  0.0254
36751W        W79845  10.945   3.313  26.080 -0.0995  0.3585  0.3197
36752W        W79846   8.052   1.665  21.699  0.2147  0.1286 -0.2048
36753W        W79847   9.491  34.595  25.580  0.2670  0.2268 -0.0417
36754W        W79848  10.581   0.906  23.545  0.0635 -0.2247  0.1528
36755W        W79849  10.275   0.957  24.011  0.1466  0.0112  0.0123
36756W        W79850   7.150   0.141  25.342  0.0314  0.0752 -0.3120
36757W        W79851  11.343   2.488  26.743  0.0331 -0.0775 -0.0014
36758W        W79852   8.371   0.870  23.034  0.4828  0.1168 -0.2163
36759W        W79853   9.444   0.317  26.047 -0.3075 -0.0544 -0.3779
36760W        W79854   9.447   2.547  24.349 -0.0988  0.2340 -0.1398
36761W        W79855   9.747   2.493  25.771  0.2922 -0.0428 -0.0818
36762W        W79856  10.238   2.045  24.387  0.2146  0.1245  0.1263
36763W        W79857   7.066   1.320  24.774  0.0708 -0.0297  0.0598
36764W        W79858   7.747   3.627  27.325  0.1102  0.0924 -0.0631
36765W        W79859   7.962   0.815  23.368  0.0171  0.1383 -0.1648
36766W        W79860   9.437   2.058  23.951  0.0712 -0.0253  0.2089
36767W        W79861  10.634   2.225  25.136  0.2218 -0.0388  0.2031
36768W        W79862  10.811   2.298  28.304  0.0147 -0.1785  0.1587
36769W        W79863   8.963   0.247  23.397 -0.2776  0.1315  0.1411
36770W        W79864  12.451  34.689  27.962 -0.1468 -0.0262  0.1099
36771W        W79865   8.107   2.538  24.500  0.1726  0.2238  0.0069
36772W        W79866   9.477   0.143  25.004 -0.0817  0.0347 -0.4562
36773W        W79867   9.525   4.847  25.316  0.0222  0.1919  0.0742
36774W        W79868   8.156   2.232  27.314  0.1220 -0.2550 -0.0675
36775W        W79869   8.994   3.067  26.537 -0.2140  0.0882 -0.1294
36776W        W79870   9.443   2.798  26.347 -0.1612 -0.3134  0.2897
36777W        W79871  10.347   0.986  26.085 -0.0760 -0.0712  0.0021
36778W        W79872   9.596   2.925  25.496 -0.2382  0.2417 -0.0828
36779W        W79873  12.103   0.615  26.152 -0.0763 -0.1961  0.3441
36780W        W79874   9.292   4.113  27.256 -0.2025  0.0559 -0.0218
36781W        W79875   7.938   3.215  24.637 -0.0705 -0.0555  0.1039
36782W        W79876   9.037   3.957  27.737  0.0814  0.1848 -0.2183
36783W        W79877   9.439   1.749  24.436 -0.0136  0.3407  0.1964
36784W        W79878   9.162   2.381  26.333  0.1286 -0.2614  0.0978
36785W        W79879   6.772   2.515  27.227 -0.0175  0.0826  0.1914
36786W        W79880   8.919   0.927  26.696  0.1597  0.2968  0.0260
36787W        W79881   9.321   2.431  25.401  0.1137 -0.0151  0.2618
36788W        W79882   8.075   1.032  24.948  0.0037 -0.0664  0.1251
36789W        W79883   9.354   2.807  23.226 -0.2403  0.1921  0.0696
36790W        W79884   7.583   4.156  27.748  0.0983  0.0051  0.0299
36791W        W79885   6.481   2.460  25.868  0.3424 -0.2020  0.1796
36792W        W79886   8.292   3.966  24.548 -0.1085 -0.0636 -0.1945
36793W        W79887  10.246   3.354  24.818 -0.0989  0.0532 -0.1967
36794W        W79888  10.468   3.025  26.153  0.2948  0.2587  0.0750
36795W        W79889   9.159   4.089  25.636 -0.2411 -0.2259  0.0251
36796W        W79890   9.160   0.926  23.169 -0.0815  0.1206 -0.1274
36797W        W79891   8.681   3.931  25.926 -0.1167 -0.0410  0.0371
36798W        W79892   7.814   3.753  23.591  0.0299 -0.1583 -0.0385
36799W        W79893  10.590   3.541  24.318 -0.2407 -0.3408 -0.1666
36800W        W79894   8.483   2.903  24.505 -0.0974 -0.2316 -0.2829
36801W        W79895  10.989   2.092  26.446 -0.0055 -0.0021  0.0445
36802W        W79896  11.263   1.960  23.494 -0.1063  0.2344 -0.2336
36803W        W79897  10.346   1.748  25.277  0.1178  0.2894  0.1160
36804W        W79898  10.709   1.085  22.814  0.0532 -0.1216 -0.0656
36805W        W79899   9.677   1.515  26.728  0.1463  0.0931 -0.1019
36806W        W79900   8.159   1.527  26.933  0.0108 -0.1655 -0.0584
36807W        W79901   9.119  34.514  23.087 -0.0570 -0.0090 -0.0561
36808W        W79902   7.718   1.293  26.779 -0.2396  0.1534 -0.0053
36809W        W79903   9.636  33.601  25.940  0.3326 -0.4328 -0.1013
36810W        W79904   6.903   3.616  27.962 -0.0700 -0.0674 -0.2227
36811W        W79905  11.421   3.770  23.900 -0.0732  0.1986  0.3643
36812W        W79906   6.948   1.064  23.163  0.1665 -0.0994 -0.0896
36813W        W79907   8.705   2.979  25.674  0.1134 -0.0898 -0.1295
36814W        W79908   9.215  34.524  26.040 -0.0331  0.0960  0.0584
36815W        W79909   9.317   2.966  24.067  0.1917 -0.0110 -0.1999
36816W        W79910   8.418   0.275  25.347 -0.0509  0.1544 -0.3267
36817W        W79911   7.492   3.523  24.605  0.0523 -0.1719  0.1003
36818W        W79912   7.480   2.693  26.517  0.1711 -0.0129  0.2068
36819W        W79913   7.629   3.309  25.879 -0.0244  0.0107 -0.0500
36820W        W79914   9.237   0.401  24.210  0.1222 -0.2236 -0.0869
36821W        W79915  11.260   2.236  24.329  0.1657  0.0102  0.2094
36822W        W79916   7.781   0.943  25.468  0.2895  0.0341 -0.1913
36823W        W79917  11.077   0.013  25.485  0.0141 -0.1249  0.0484
36824W        W79918   9.026   2.215  24.619  0.2258  0.1930  0.0262
36825W        W79919  10.756   0.453  24.037  0.1233 -0.0554 -0.0025
36826W        W79920   9.117   1.513  26.704 -0.2215  0.2150 -0.1996
36827W        W79921   8.215   1.847  26.536  0.0237 -0.0807 -0.2012
36828W        W79922   8.582   2.189  24.327  0.0839  0.0426  0.2626
36829W        W79923  10.969   0.975  26.771  0.1612  0.0480 -0.0306
36830W        W79924  10.689   0.354  23.507  0.1918 -0.4018  0.1484
36831W        W79925  10.494   3.606  28.325  0.0647  0.3789  0.2008
36832W        W79926   8.075   1.083  24.416 -0.1150 -0.2087 -0.0174
36833W        W79927   9.743   1.697  22.537 -0.0102  0.0810 -0.2471
36834W        W79928   8.150   2.045  24.704  0.1422  0.0444  0.0850
36835W        W79929  10.262   2.168  25.530 -0.0435  0.0030  0.4198
36836W        W79930  10.445   3.551  27.845  0.3116 -0.1057 -0.1807
36837W        W79931   7.282   0.813  23.951  0.0694 -0.0163 -0.0771
36838W        W79932  10.542   2.612  23.048  0.0373  0.3242 -0.2337
36839W        W79933   9.058   1.432  24.530  0.2849  0.0393 -0.1625
36840W        W79934   8.353   3.269  23.871  0.0213 -0.0835  0.1284
36841W        W79935   9.434   1.223  25.043  0.0216 -0.2571 -0.3270
36842W        W79936   9.876   3.771  26.153 -0.3892  0.3121 -0.1269
36843W        W79937   7.955   2.447  25.547  0.1517  0.0861 -0.0523
36844W        W79938  11.459   3.445  26.169  0.2896 -0.0374 -0.0785
36845W        W79939  10.649   3.943  26.017  0.0313  0.1062  0.1512
36846W        W79940   8.818  34.235  24.422 -0.0574  0.1557  0.2089
36847W        W79941   8.528   2.418  24.756 -0.1478  0.0218 -0.0142
36848W        W79942   8.272   4.184  25.090 -0.1642 -0.1596 -0.1671
36849W        W79943  10.569   0.237  25.026  0.0060 -0.1737 -0.1470
36850W        W79944   9.515   1.376  26.293 -0.0824 -0.1430 -0.2203
36851W        W79945  10.432   2.910  24.592  0.2260 -0.1527 -0.0261
36852W        W79946   9.942  33.690  25.072 -0.3439  0.1564 -0.4049
36853W        W79947   8.475   2.370  26.211 -0.2955  0.2198 -0.3545
36854W        W79948   7.892   3.418  26.804 -0.1043  0.0756  0.3604
36855W        W79949   8.248   1.490  22.785  0.1009  0.1030 -0.1126
36856W        W79950   9.212   1.958  25.567  0.0288  0.0894 -0.0441
36857W        W79951   9.305   2.623  25.862  0.2727 -0.1544  0.1342
36858W        W79952   9.995   3.065  25.105 -0.0661 -0.0845 -0.0714
36859W        W79953  11.044   3.225  25.393 -0.0261 -0.2018 -0.2776
36860W        W79954   7.795   1.406  24.133 -0.1567 -0.1224 -0.3709
36861W        W79955  11.636   1.406  25.722 -0.0041  0.1521  0.0965
36862W        W79956   7.507   0.085  24.629 -0.2284  0.0097 -0.0686
36863W        W79957  11.422   0.025  24.726 -0.1079 -0.0944  0.2913
36864W        W79958  10.373  34.194  23.731  0.1081 -0.1671 -0.4095
36865W        W79959   6.771   2.318  26.731  0.2354 -0.1268 -0.2690
36866W        W79960   7.168   0.761  22.159  0.0719  0.0212  0.1363
36867W        W79961   7.453   1.733  23.787 -0.3140 -0.1224  0.3505
36868W        W79962   6.439   2.328  25.371  0.3312  0.1398  0.0219
36869W        W79963   9.333  32.939  26.711  0.1935  0.1667 -0.0202
36870W        W79964   7.872   0.554  25.809 -0.1721 -0.0340  0.0890
36871W        W79965   7.135   1.782  24.143 -0.2795 -0.2296  0.0405
36872W        W79966   7.075  34.680  24.817  0.2000 -0.2457 -0.0884
36873W        W79967  11.783   4.649  23.637 -0.3562  0.0002 -0.1496
36874W        W79968   7.167  34.372  25.481 -0.1538  0.1045 -0.5344
36875W        W79969   6.936   0.967  24.370  0.2632 -0.0756  0.3535
36876W        W79970  10.787   1.161  25.890  0.1122  0.0380 -0.0180
36877W        W79971  10.570   3.621  25.108 -0.3211 -0.1304  0.2187
36878W        W79972   8.783   0.915  24.450  0.0973  0.2385 -0.0144
36879W        W79973  11.672   4.137  26.081  0.3582 -0.0697 -0.1946
36880W        W79974   7.063   2.466  24.825 -0.0315 -0.0674  0.0201
36881W        W79975   8.587   1.906  26.083 -0.1261 -0.0245  0.0011
36882W        W79976   8.830   0.574  25.280 -0.0721  0.1395 -0.1879
36883W        W79977   8.441   0.823  22.568 -0.1868 -0.1265  0.3663
36884W        W79978   8.872   1.397  25.367 -0.0585 -0.1392  0.3640
36885W        W79979  10.356   3.897  25.523  0.2789 -0.2125  0.0859
36886W        W79980   9.878   4.147  24.148 -0.0172  0.0980  0.0301
36887W        W79981   8.700   2.576  25.359 -0.0014 -0.1480  0.0923
36888W        W79982   9.484   3.807  26.435 -0.2154  0.1073  0.2479
36889W        W79983   7.362  34.207  26.380 -0.0312 -0.2201 -0.0384
36890W        W79984  10.551   1.815  24.808  0.4151 -0.0010  0.1851
36891W        W79985   8.722   2.662  28.065  0.2609 -0.1367 -0.1207
36892W        W79986  11.177   1.381  24.873 -0.0871  0.2579 -0.0420
36893W        W79987  11.777   0.985  25.438 -0.2021 -0.0614 -0.1069
36894W        W79988   9.440   2.173  25.007 -0.0592  0.0156 -0.1705
36895W        W79989   9.613   0.995  27.323 -0.3612 -0.1081  0.1071
36896W        W79990   8.344   1.832  28.269  0.3599 -0.3376 -0.0257
36897W        W79991  10.517   2.569  25.723  0.0219  0.2113 -0.1510
36898W        W79992   7.609   0.252  25.317 -0.0119 -0.0692  0.0449
36899W        W79993   9.942   1.695  23.571 -0.4655  0.0235  0.2174
36900W        W79994   9.880   3.733  25.560  0.0171 -0.1220 -0.0325
36901W        W79995   6.601   0.938  25.331 -0.1782  0.2714 -0.2922
36902W        W79996   9.442   1.688  23.573  0.0296 -0.0329 -0.1726
36903W        W79997   9.240   2.499  27.366  0.0432 -0.1194 -0.0555
36904W        W79998  10.360   4.017  24.851  0.3689  0.1138 -0.1609
36905W        W79999  11.213   1.829  27.053 -0.2519 -0.0138  0.1678
36906W        W80000   8.512   1.994  23.888  0.2666  0.0094 -0.1100
36907W        W80001  10.089   2.759  23.549 -0.0629  0.1128  0.4054
36908W        W80002   9.874   3.420  27.791 -0.1939  0.2645  0.1498
36909W        W80003   9.966   4.391  26.862  0.1902  0.0973  0.1685
36910W        W80004   9.025   4.382  26.075  0.1592  0.0570  0.0530
36911W        W80005   9.719   1.099  25.403  0.1227  0.1467  0.1159
36912W        W80006   6.984  34.174  26.728 -0.2898 -0.0861  0.1183
36913W        W80007   7.177   2.977  24.788 -0.2924  0.1696 -0.0764
36914W        W80008   9.775   2.149  24.563 -0.0342  0.2372  0.0717
36915W        W80009  10.026   1.830  26.889  0.3660 -0.1207  0.2482
36916W        W80010   8.612   1.797  24.612 -0.3115  0.0095  0.2491
36917W        W80011   9.026   1.844  24.185  0.1158  0.0361 -0.0901
36918W        W80012   9.962   3.761  26.653 -0.1429 -0.1154  0.2686
36919W        W80013  10.236   1.482  26.008  0.1436  0.0002  0.0465
36920W        W80014   7.979   2.375  29.823  0.0878 -0.2940 -0.3074
36921W        W80015   7.886  34.553  29.378 -0.1687  0.1628  0.0689
36922W        W80016  10.004  33.950  26.047 -0.0543 -0.0038 -0.0759
36923W        W80017  10.789   1.751  27.220  0.2078  0.0963 -0.0414
36924W        W80018   7.711   0.800  28.962  0.0457 -0.0235  0.1618
36925W        W80019   8.839   2.796  28.614  0.0307 -0.2860 -0.0998
36926W        W80020   8.207  34.168   0.300  0.3048  0.1746  0.1960
36927W        W80021  10.162   2.706  28.095 -0.1695  0.0523  0.1553
36928W        W80022  10.722   4.204  29.769 -0.1298  0.1949  0.0547
36929W        W80023   9.315   2.048  27.526 -0.1334 -0.0754  0.1807
36930W        W80024  11.112   1.196  29.506 -0.1333 -0.0173  0.0884
36931W        W80025   9.789   2.120  30.602 -0.2174 -0.1091  0.0363
36932W        W80026   8.921   0.098  29.196 -0.1200  0.1495  0.1373
36933W        W80027   7.994  34.534  30.466 -0.1189 -0.0765  0.0771
36934W        W80028  10.716   1.156  29.145 -0.2225  0.0122 -0.0893
36935W        W80029   7.124   1.532  28.832 -0.2561  0.0570  0.3182
36936W        W80030   9.651   1.062  30.299  0.0776 -0.4307 -0.1692
36937W        W80031   8.297   0.524  28.507 -0.1135 -0.0546 -0.2896
36938W        W80032   9.422   3.873  28.522 -0.1089  0.0318 -0.1842
36939W        W80033   8.476   0.701  30.892  0.1681  0.1826 -0.1914
36940W        W80034  10.157   0.237  30.192  0.1733  0.0754  0.1114
36941W        W80035   9.674   3.825  27.512  0.0665  0.0663 -0.0194
36942W        W80036   7.476   0.888  26.881 -0.0277 -0.0798  0.1177
36943W        W80037   9.212   1.437  30.938  0.0144  0.1259 -0.0195
36944W        W80038   9.955   1.490  29.801  0.0384 -0.1403 -0.0370
36945W        W80039   9.698  34.635  30.269 -0.5595  0.1467 -0.0710
36946W        W80040   9.967   2.017  27.917 -0.1128  0.1801 -0.1050
36947W        W80041   7.452   2.012  28.141 -0.2574  0.0378  0.3524
36948W        W80042   8.991   3.738  28.927  0.2369  0.1991 -0.0937
36949W        W80043  10.971   0.478  29.569 -0.3567 -0.0514 -0.2228
36950W        W80044   8.595   0.510  29.909  0.2060 -0.5046 -0.1403
36951W        W80045   6.954   2.679  27.670  0.1780 -0.0641  0.1114
36952W        W80046   9.116   2.960  28.095  0.0589  0.0435 -0.2491
36953W        W80047  10.403   2.303  27.987  0.0707 -0.2108 -0.2018
36954W        W80048  11.471   2.693  30.180  0.1390  0.1751  0.1682
36955W        W80049   8.632   4.032  30.814 -0.1582 -0.0676  0.1582
36956W        W80050   7.897   2.576  28.770  0.2042 -0.0390  0.1313
36957W        W80051   9.394   2.422  30.626 -0.1004  0.0105 -0.0084
36958W        W80052   9.870   1.794  29.413  0.2197  0.0662 -0.0867
36959W        W80053   9.604   1.411  29.437 -0.1688 -0.2261  0.4142
36960W        W80054   9.280   1.451  28.962  0.1670 -0.0354 -0.1090
36961W        W80055   8.749   2.072  27.479 -0.1515 -0.1179 -0.3964
36962W        W80056   9.724   2.317  28.743  0.1145  0.0646  0.1106
36963W        W80057   9.329   1.942  30.785 -0.0154  0.0119 -0.3672
36964W        W80058   7.439   2.808  30.818 -0.0389 -0.0654  0.0223
36965W        W80059  11.103   0.652  30.244 -0.0581 -0.0353 -0.0284
36966W        W80060   8.573   3.171  27.351 -0.0505 -0.2625  0.3933
36967W        W80061  10.189   2.246  27.139  0.0064  0.3787 -0.2879
36968W        W80062   9.143   0.972  25.394 -0.0004 -0.0069 -0.0776
36969W        W80063  11.163  34.506  26.116 -0.1234 -0.1082 -0.0925
36970W        W80064   9.459  34.276  28.782 -0.2022 -0.0559  0.0142
36971W        W80065   7.058   2.687  30.541  0.1463  0.1144 -0.1426
36972W        W80066   8.225  33.559  31.035 -0.2255  0.0666 -0.2157
36973W        W80067   9.654   2.872  30.702  0.0491  0.3277  0.3338
36974W        W80068   9.812   2.106  27.448  0.1759  0.0334  0.1918
36975W        W80069  10.712   0.646  29.996  0.1775  0.1868  0.1384
36976W        W80070   8.485   3.202  29.536  0.2427 -0.1773  0.4308
36977W        W80071   7.614   0.917  29.452 -0.0867  0.0919  0.3299
36978W        W80072  11.167   2.925  26.477 -0.1910 -0.1024  0.1947
36979W        W80073  10.495   2.965  28.949  0.2550 -0.1436 -0.7704
36980W        W80074  10.377   2.546  27.585 -0.2532  0.2155 -0.3352
36981W        W80075   8.595   0.996  28.438  0.1356  0.3934  0.1503
36982W        W80076   8.629   1.828  30.209 -0.1901  0.0610  0.0471
36983W        W80077   6.784  34.558  30.819  0.1026 -0.0899 -0.0118
36984W        W80078   9.005  32.293  27.193  0.0048  0.2258 -0.1897
36985W        W80079  11.622   2.193   0.033 -0.0509  0.0854  0.0895
36986W        W80080   7.536   2.354  30.456 -0.2761 -0.1849  0.0732
36987W        W80081  11.538  33.607  28.817 -0.1135 -0.0177 -0.1659
36988W        W80082   8.348   0.868  29.510  0.1742  0.2447  0.0435
36989W        W80083  11.288   2.334  29.107 -0.2740 -0.1467  0.0420
36990W        W80084  10.336   2.772  26.606  0.0563  0.2752  0.0762
36991W        W80085  10.713  33.229  30.547 -0.0816  0.4575 -0.1150
36992W        W80086   9.376  34.037  29.303 -0.0962  0.0682  0.2301
36993W        W80087   8.450   1.077  26.512  0.0304 -0.1065 -0.3023
36994W        W80088   9.184   1.338  28.327 -0.1535 -0.0451 -0.1402
36995W        W80089  11.670   1.965  28.413 -0.1232 -0.0448 -0.1499
36996W        W80090  10.210   1.656  27.316  0.0567 -0.2065  0.1178
36997W        W80091   8.398   1.291  28.861  0.0497  0.1284 -0.0877
36998W        W80092   9.049  34.628  30.731 -0.0326  0.0537 -0.0465
36999W        W80093   9.384   3.677  29.254  0.2668 -0.2431  0.4427
37000W        W80094   8.619   3.718  28.476 -0.0787 -0.0190  0.0158
37001W        W80095   6.978   0.866  29.389  0.0477  0.1292  0.0563
37002W        W80096   7.073   1.944  28.458 -0.3165 -0.0386 -0.0607
37003W        W80097   8.321  34.499  29.673  0.2439 -0.0299 -0.1946
37004W        W80098   8.714   1.858  29.576 -0.0002  0.4120 -0.2172
37005W        W80099  11.302   0.627  28.477  0.1168  0.1485  0.2810
37006W        W80100   7.237  34.408  31.030 -0.1286 -0.2827 -0.0002
37007W        W80101  11.151  33.629  28.464  0.0376  0.0155 -0.1176
37008W        W80102   8.118   0.910  27.478  0.2450 -0.0078 -0.0371
37009W        W80103  11.687   3.646  27.551  0.0615  0.3005  0.0736
37010W        W80104  11.571  34.599  26.397 -0.3207  0.1931 -0.1430
37011W        W80105  10.856   2.852  26.876 -0.1802  0.0972 -0.0098
37012W        W80106   8.515   2.843  30.057  0.1286  0.0024  0.0301
37013W        W80107   8.974  34.233  29.045  0.0031 -0.0313  0.3434
37014W        W80108   8.678   0.282  30.546 -0.0007 -0.0240 -0.1538
37015W        W80109   8.877   0.055  29.726  0.3681  0.4244  0.0756
37016W        W80110  11.141   1.762  31.957  0.0130  0.2348  0.2138
37017W        W80111   8.770   0.572  27.113  0.1254  0.0233 -0.0672
37018W        W80112  11.022   1.039  27.719 -0.2262  0.0682  0.1140
37019W        W80113   9.073   2.478  28.327 -0.0174  0.0314  0.1912
37020W        W80114   7.511   1.472  26.378  0.0299 -0.0003  0.4676
37021W        W80115   9.525  34.661  30.864 -0.0420  0.2173 -0.0874
37022W        W80116   8.934   1.713  27.166 -0.1205 -0.3089  0.3164
37023W        W80117   9.891   4.490  30.520  0.1763 -0.0465 -0.0452
37024W        W80118  10.073   2.808  28.734  0.0431 -0.1539  0.0673
37025W        W80119   9.946   2.022   0.514  0.3320 -0.3366  0.1069
37026W        W80120   8.786   1.631  28.112  0.1300  0.3661  0.0652
37027W        W80121   7.591   1.293  28.880  0.1152  0.0678  0.1110
37028W        W80122  10.453   2.662  28.440  0.0177 -0.0242  0.0094
37029W        W80123  10.798  33.370  27.281 -0.1216 -0.0634 -0.2381
37030W        W80124  10.735   2.789  29.441 -0.0884  0.0715 -0.1409
37031W        W80125   8.674   1.034  27.279  0.0920 -0.0176 -0.1654
37032W        W80126   7.840   2.518   0.327  0.1729  0.0970  0.1000
37033W        W80127  10.856   1.386  31.259  0.1821 -0.1234  0.2791
37034W        W80128  10.211   0.674  30.764 -0.0503 -0.1146 -0.1365
37035W        W80129  10.802   1.140  27.196  0.0659 -0.2347 -0.0475
37036W        W80130   8.539  34.590  26.786 -0.3613  0.0092 -0.1052
37037W        W80131  10.349   1.971  29.175 -0.0414  0.3692  0.1174
37038W        W80132   7.478   3.090  27.582  0.0627  0.0141  0.0281
37039W        W80133   7.458   0.453  29.245 -0.0380  0.1411  0.0655
37040W        W80134   8.549   2.339  28.894  0.4137 -0.1385 -0.0383
37041W        W80135  10.472  34.158  29.861  0.2841  0.0809  0.2468
37042W        W80136   6.888  34.455  31.401 -0.2798 -0.3233 -0.3088
37043W        W80137  10.247   2.319  30.154 -0.3805 -0.2001 -0.0431
37044W        W80138   7.167   1.646  27.391  0.0302  0.2110  0.0131
37045W        W80139   8.928   2.590  30.746  0.0228  0.1519 -0.0412
37046W        W80140  10.797  34.170  27.597 -0.1143 -0.1747 -0.0355
37047W        W80141   9.902  33.903  26.967  0.2396  0.0849 -0.4701
37048W        W80142  10.719   1.800  30.526 -0.1405  0.2038 -0.2089
37049W        W80143  10.111   2.256  28.373  0.3073  0.0883  0.1766
37050W        W80144   9.371   0.860  26.179 -0.0638 -0.0050  0.1997
37051W        W80145  10.119   0.210  26.238 -0.2217  0.2651 -0.4018
37052W        W80146   7.044   2.159  30.477 -0.1334  0.2762 -0.0667
37053W        W80147  10.458   1.638  28.811  0.0279  0.1475 -0.1840
37054W        W80148   9.609   2.325  28.200 -0.2072  0.4095  0.0960
37055W        W80149   9.681  34.544  26.081  0.0854 -0.0722 -0.0714
37056W        W80150   9.849   3.139  27.402  0.0920  0.0604 -0.3224
37057W        W80151   8.815   2.425   0.379 -0.0600 -0.0541 -0.1735
37058W        W80152  10.061   2.863  31.030 -0.0964  0.3538 -0.4271
37059W        W80153   9.518   2.882  27.636  0.2468  0.1366  0.1479
37060W        W80154   9.091   0.302  30.225 -0.1521  0.0994  0.0115
37061W        W80155   8.715   1.730  26.532  0.4980 -0.0252 -0.1054
37062W        W80156   9.956   1.591  28.969 -0.1916  0.1563  0.0029
37063W        W80157   6.700   2.737  28.052  0.0947  0.2604  0.0811
37064W        W80158  10.704   0.292  30.896  0.0123 -0.2465 -0.3009
37065W        W80159   9.375   0.028  28.969 -0.1757  0.0364  0.2463
37066W        W80160   9.606  34.441  31.308 -0.2005  0.2963  0.2074
37067W        W80161  11.306   0.813  31.791  0.0550  0.1369  0.3467
37068W        W80162   9.966   0.930  26.892 -0.0188 -0.0769 -0.2048
37069W        W80163   9.706   1.448  28.106  0.0496 -0.0692  0.0951
37070W        W80164   9.092   0.305  27.451  0.0064 -0.1194  0.0083
37071W        W80165   9.444   1.547  29.897  0.1620 -0.2254 -0.3731
37072W        W80166   9.083   1.393  29.530  0.1893 -0.0578 -0.1343
37073W        W80167   8.888   2.847  29.670  0.3190  0.1725  0.0972
37074W        W80168   9.142   2.304  31.117 -0.1778  0.1654  0.1944
37075W        W80169   8.828   1.497  28.700  0.0077  0.1258 -0.1224
37076W        W80170   9.321   1.822  31.241  0.0738 -0.1722  0.2691
37077W        W80171   9.524   0.979  28.372 -0.3153 -0.2772 -0.0002
37078W        W80172   9.542   4.114  26.833 -0.2428 -0.1515  0.0276
37079W        W80173   7.036   2.008  27.051  0.1385  0.3758  0.1004
37080W        W80174   8.723  34.345  29.506  0.3073  0.0693 -0.0073
37081W        W80175   8.532   1.467  29.367 -0.0085  0.1214  0.2960
37082W        W80176   8.271   2.664  26.969  0.0922  0.0893  0.2522
37083W        W80177  11.176   1.783  30.328 -0.0691 -0.1566 -0.1384
37084W        W80178   8.974   1.872  28.997  0.0763 -0.1842  0.0981
37085W        W80179   9.396  34.098  30.659 -0.2202 -0.1090 -0.2293
37086W        W80180   7.146   2.832  29.783 -0.0796  0.3445  0.0845
37087W        W80181  10.494  34.558  27.840  0.0309 -0.1673 -0.0863
37088W        W80182   9.378   1.243  27.755 -0.0164 -0.0202 -0.4149
37089W        W80183   9.970  34.470  29.844  0.0701 -0.1508  0.1336
37090W        W80184  10.860   2.290  27.691  0.0838 -0.0819  0.4493
37091W        W80185   9.697  34.420  29.216 -0.3311  0.0225 -0.2687
37092W        W80186   9.422   0.692  27.903 -0.0589 -0.1478  0.1834
37093W        W80187   7.846   3.638  29.935 -0.1332 -0.1373 -0.2480
37094W        W80188   9.924   1.865  30.174 -0.1573  0.1489 -0.0104
37095W        W80189  10.388   0.022  26.758  0.2012  0.4374 -0.0915
37096W        W80190   9.880   1.636  30.673  0.4076  0.2548 -0.2787
37097W        W80191   9.862   3.616  30.452 -0.0915 -0.0698  0.0244
37098W        W80192   8.063   1.357  26.351  0.1479  0.0301 -0.0117
37099W        W80193  11.541   0.339  30.365 -0.2881 -0.1075  0.0753
37100W        W80194   9.119   0.259  28.000  0.0289 -0.2456 -0.0818
37101W        W80195   7.813   1.064  28.156  0.0641 -0.0919  0.1091
37102W        W80196   8.592   3.289  28.827  0.0561 -0.0861 -0.2648
37103W        W80197   9.574   1.881  28.878  0.2934  0.0894  0.2238
37104W        W80198   9.239   2.530  27.839  0.1428 -0.1732  0.2398
37105W        W80199   9.238  34.050  31.585  0.1994 -0.0937  0.1782
37106W        W80200   9.993   1.118  29.440  0.2428 -0.1574 -0.0419
37107W        W80201  10.430   1.144  29.989  0.1850 -0.1432 -0.1130
37108W        W80202   8.599   0.506  27.637 -0.1492 -0.0943 -0.2786
37109W        W80203   9.600   1.485  28.585 -0.1069 -0.0540 -0.0413
37110W        W80204  10.026   1.285  28.470  0.1799  0.1334  0.0953
37111W        W80205  10.730   0.768  31.370  0.0149 -0.0893  0.3043
37112W        W80206   7.371   4.973  31.089  0.3077 -0.0877  0.0737
37113W        W80207   9.159   0.565  29.818 -0.1099 -0.1309  0.0763
37114W        W80208  10.053   2.278  26.646  0.0880  0.0231  0.2742
37115W        W80209  11.483   2.105  31.036  0.2152 -0.0207  0.0725
37116W        W80210   7.910   1.588  28.103 -0.1518 -0.1787 -0.1418
37117W        W80211   8.177   1.458  29.880  0.1661 -0.1033 -0.0042
37118W        W80212   8.170   2.867  28.270  0.1791 -0.0701  0.0114
37119W        W80213   9.591   1.047  29.763 -0.1746 -0.1064 -0.0259
37120W        W80214   8.208   1.577  30.435 -0.0213  0.1237 -0.0970
37121W        W80215   7.385   2.204  26.711  0.2453 -0.1501 -0.1498
37122W        W80216   8.840   1.917  31.105  0.2215 -0.1098 -0.1533
37123W        W80217  10.656  34.506  27.249  0.0757 -0.0308  0.5910
37124W        W80218   9.020   2.204  27.070 -0.0024  0.1134 -0.2466
37125W        W80219   8.578  34.191  27.132  0.4363 -0.2005  0.0863
37126W        W80220  11.919   2.873  30.430  0.2339  0.2026  0.0782
37127W        W80221  10.990   2.310  27.163 -0.1007  0.1268 -0.1939
37128W        W80222   9.527   0.054  31.691  0.2990 -0.0295 -0.0624
37129W        W80223   8.132   0.348  30.728 -0.0369 -0.3244  0.2205
37130W        W80224  11.379   3.426  28.713 -0.0349 -0.1763 -0.2951
37131W        W80225   8.766   0.734  30.410  0.1249  0.3355  0.2919
37132W        W80226   9.610   2.828  31.454  0.1199  0.0163  0.2414
37133W        W80227   9.233   0.806  30.257 -0.0405  0.2927 -0.1745
37134W        W80228  10.788   0.216  27.525  0.0211  0.1717  0.4621
37135W        W80229   8.678   0.092  27.230 -0.0371  0.1509 -0.1780
37136W        W80230   9.225   0.823  29.349 -0.1193 -0.1067 -0.0343
37137W        W80231   9.913   3.180  29.017  0.3590 -0.1014  0.2843
37138W        W80232   9.975   1.980  25.983 -0.0937 -0.3480 -0.0629
37139W        W80233  11.246   2.530  28.204  0.0435  0.3064 -0.1561
37140W        W80234   9.649   2.156  29.705 -0.4040  0.2010 -0.3857
37141W        W80235  11.218   0.253  26.550  0.1863  0.0236  0.0923
37142W        W80236   9.439   1.739  27.075  0.1942  0.0597  0.0816
37143W        W80237   8.046   1.083  29.166  0.0615  0.2162  0.2754
37144W        W80238   8.491  34.016  30.856  0.1768 -0.2381 -0.1085
37145W        W80239  10.517   2.036  28.576 -0.2104 -0.1792  0.0706
37146W        W80240  10.223   0.147  28.261  0.0576 -0.0993 -0.1706
37147W        W80241  10.149   0.678  29.734  0.0144  0.1175 -0.2563
37148W        W80242  11.024   1.629  30.857 -0.4564  0.1108 -0.1921
37149W        W80243  10.108   1.140  30.569 -0.3057  0.0890  0.2867
37150W        W80244   8.196   1.670  31.172 -0.3964 -0.1615 -0.1428
37151W        W80245  10.230   4.240  29.875 -0.1001  0.4629 -0.4957
37152W        W80246  10.671   0.106  26.322 -0.4208 -0.0231  0.0510
37153W        W80247  10.127  34.415  28.891 -0.1200  0.2149  0.0151
37154W        W80248  11.260   3.883  28.508 -0.0076  0.2009 -0.1205
37155W        W80249  11.157   0.081  27.237 -0.2642 -0.0279  0.1182
37156W        W80250   8.069   0.497  29.750  0.0932  0.1617 -0.2756
37157W        W80251  10.736   1.711  31.600 -0.1957 -0.0054 -0.0714
37158W        W80252   8.793  34.606  28.240 -0.0229 -0.1050  0.2244
37159W        W80253  10.418   1.127  31.718 -0.1591 -0.1198  0.0088
37160W        W80254   8.823   2.781  27.075  0.0682  0.1981  0.0968
37161W        W80255  10.428   2.030  27.537  0.1106 -0.0167 -0.0580
37162W        W80256  10.027  33.934  27.529  0.2522 -0.3720  0.1230
37163W        W80257   9.404   0.488  28.451  0.0875 -0.0083 -0.1227
37164W        W80258   6.734   4.370  30.701 -0.2799  0.0235 -0.1914
37165W        W80259   6.362   0.403  26.999 -0.2262 -0.0238 -0.2135
37166W        W80260   8.842   1.112  25.744 -0.2793 -0.2474  0.0013
37167W        W80261   9.996   2.329  29.389  0.0267 -0.2196  0.0194
37168W        W80262   9.819   1.014   0.379 -0.0523 -0.3314 -0.0584
37169W        W80263   9.072   0.406  26.433  0.2099 -0.0314 -0.0682
37170W        W80264  11.837   1.507  31.481  0.0336  0.2951  0.0860
37171W        W80265   7.624   3.012  27.088  0.1461 -0.4673 -0.1553
37172W        W80266  10.251   0.706  30.259  0.2118 -0.1982  0.1500
37173W        W80267   7.444   2.862  30.264 -0.1600 -0.2085 -0.0099
37174W        W80268   8.862   1.099  29.057 -0.0477 -0.4120 -0.2110
37175W        W80269   9.317   1.859  29.478 -0.2979 -0.1919 -0.1863
37176W        W80270   8.558   0.282  28.879  0.1491 -0.1035 -0.0189
37177W        W80271  10.303   1.525  29.386  0.2586  0.0289 -0.1009
37178W        W80272   8.111   0.988  28.592  0.2255  0.0556 -0.2910
37179W        W80273  11.178   2.547  31.042 -0.4047 -0.0677 -0.2580
37180W        W80274   8.582   2.401  29.768 -0.2446  0.3905 -0.0482
37181W        W80275   9.411   1.473  30.470 -0.0149  0.1605  0.0183
37182W        W80276  10.085   2.546  30.608 -0.2043 -0.1914  0.0054
37183W        W80277  10.306   2.379  28.897 -0.1434  0.0691  0.1850
37184W        W80278   7.940   1.554  28.612  0.0480  0.1012  0.3570
37185W        W80279   7.394   1.956  30.844  0.1879  0.2714 -0.0088
37186W        W80280   9.321   2.848  30.285  0.1800  0.1622 -0.1726
37187W        W80281  10.450   0.988  27.680  0.2193 -0.2265 -0.0559
37188W        W80282   8.540   0.297  28.076  0.0155  0.2343 -0.0036
37189W        W80283   9.311   2.054  26.669  0.0939  0.0186  0.0852
37190W        W80284   8.461   3.453  30.097  0.0239  0.1833 -0.2188
37191W        W80285   8.928   2.138  30.641  0.0930  0.1782 -0.3305
37192W        W80286  10.353   2.699  27.126 -0.0799 -0.0621  0.0541
37193W        W80287  10.913   2.089  25.891 -0.0662  0.4077 -0.0413
37194W        W80288   9.780   1.867  28.322 -0.2994  0.1558 -0.0376
37195W        W80289   9.160   2.706  29.194  0.1489  0.0204  0.1101
37196W        W80290   8.731  32.973  27.908  0.2791  0.0391 -0.0002
37197W        W80291   9.033   2.131  29.849  0.4024 -0.1531  0.2329
37198W        W80292   6.989   2.518  28.822 -0.1497 -0.0953 -0.0585
37199W        W80293   9.068   3.287  27.047  0.1860  0.0642  0.3269
37200W        W80294   8.432   1.800  28.908  0.0475 -0.1850 -0.2599
37201W        W80295   9.494   3.317  30.442  0.2546  0.2773 -0.3460
37202W        W80296  10.093   0.459  26.902 -0.2117  0.1727  0.0813
37203W        W80297  11.390   2.223  27.719  0.1341 -0.3061 -0.2197
37204W        W80298  10.862  34.133  28.601  0.2747  0.3074 -0.1374
37205W        W80299   9.976   2.516  31.441  0.0873 -0.0457  0.2740
37206W        W80300   9.432   0.294  29.410 -0.1380 -0.0902  0.0427
37207W        W80301   9.495  34.653  27.102 -0.1201 -0.1861 -0.3413
37208W        W80302   8.407   2.837  30.889 -0.1526  0.2672 -0.0107
37209W        W80303  11.056  33.949  30.581 -0.1752 -0.2422  0.2126
37210W        W80304   7.574   3.812  30.374  0.0497  0.4037  0.1810
37211W        W80305  10.644   4.482  28.316 -0.0519  0.0431  0.2377
37212W        W80306   8.247   1.458  27.422  0.4519  0.2387  0.3660
37213W        W80307   9.935   1.067  27.838 -0.1680 -0.0489 -0.2344
37214W        W80308  11.146   0.008  31.190  0.0674  0.2860 -0.1877
37215W        W80309   9.430   1.010  26.654 -0.2900 -0.0638 -0.3003
37216W        W80310  10.622   1.584  29.739 -0.1064  0.0267  0.1474
37217W        W80311   9.343   4.261  28.146 -0.1672  0.1255  0.0732
37218W        W80312   9.520   2.279  29.206  0.1155  0.1991  0.1805
37219W        W80313   7.784   1.356  29.532 -0.3076  0.3468  0.0508
37220W        W80314   8.059   0.156  28.153  0.1829  0.0651  0.2018
37221W        W80315  11.462   0.168  28.240  0.2088 -0.0714  0.0919
37222W        W80316   9.694   2.412  30.207  0.0312 -0.2736  0.3529
37223W        W80317   9.899  33.825  30.660 -0.3512  0.0165  0.4163
37224W        W80318   9.590   0.370  27.530 -0.0888 -0.2535 -0.1569
37225W        W80319  11.127   0.569  27.389  0.0710 -0.1786 -0.3204
37226W        W80320   9.128   0.944  28.587 -0.1253  0.0906 -0.2042
37227W        W80321   7.565   0.079  30.860 -0.0430  0.2893 -0.0591
37228W        W80322   8.104   1.873  27.655  0.3388  0.0240  0.0163
37229W        W80323  11.583   2.020  30.397 -0.3508  0.0828 -0.0459
37230W        W80324   9.733   0.046  26.527  0.1748 -0.0387 -0.2249
37231W        W80325  10.119   2.691  29.870  0.2400 -0.1045  0.2105
37232W        W80326   8.792   0.509  28.472  0.2261  0.1896 -0.0228
37233W        W80327  10.168   1.555  27.802 -0.0480 -0.2132 -0.0182
37234W        W80328   8.742   0.576  29.371 -0.0353  0.1165  0.3082
37235W        W80329   9.061   1.080  31.714  0.1521  0.1594 -0.0192
37236W        W80330  10.747   1.747  29.300  0.4874  0.3472  0.1150
37237W        W80331   7.344  34.163  29.099  0.1449 -0.1043 -0.2529
37238W        W80332  10.974   3.597  28.081 -0.1307 -0.3225 -0.1644
37239W        W80333  10.838   1.450  30.189 -0.1392  0.1507 -0.1136
37240W        W80334   9.681   3.520  27.095  0.2010  0.4770  0.0315
37241W        W80335  10.282   1.717  28.259 -0.5112 -0.0503  0.0091
37242W        W80336  12.366   2.735  31.914 -0.2695 -0.2021 -0.1995
37243W        W80337   8.672   1.415  29.834 -0.3441  0.1223  0.0444
37244W        W80338  10.315   3.707  30.718  0.0553  0.2031 -0.1601
37245W        W80339  11.195   1.952  28.204 -0.0881 -0.0131 -0.2498
37246W        W80340  10.561   0.497  28.369  0.1312  0.1414  0.2753
37247W        W80341   9.523   0.568  28.951  0.4951  0.1711 -0.1015
37248W        W80342   7.650   2.305  29.306  0.1994 -0.0721  0.2272
37249W        W80343  10.558   0.894  29.579 -0.2801  0.3837 -0.1250
37250W        W80344  10.487  34.654  29.809  0.1573  0.5941  0.1352
37251W        W80345   9.537   4.194  26.077 -0.1056 -0.1286 -0.0599
37252W        W80346  10.238  33.928  31.591  0.0270 -0.1759 -0.3178
37253W        W80347   8.920   2.247  29.343  0.3818  0.1104  0.1676
37254W        W80348   8.001   3.599  31.524 -0.0373 -0.0076 -0.3630
37255W        W80349   8.312   1.337  28.263  0.0805 -0.1654 -0.2055
37256W        W80350   9.642   2.880  29.939  0.2658 -0.0689 -0.1694
37257W        W80351   9.069   3.279  28.482 -0.1317 -0.3534 -0.0874
37258W        W80352   9.282   5.155  28.679  0.1862 -0.2766 -0.0538
37259W        W80353  10.806   1.669  28.476  0.0850  0.2301 -0.0081
37260W        W80354   9.896   0.614  28.547 -0.1500 -0.3068 -0.1591
37261W        W80355  10.941   2.783  28.663 -0.3356  0.5229 -0.1146
37262W        W80356   9.715   0.666  29.482  0.2533  0.0479  0.0652
37263W        W80357  11.562   0.318  29.824  0.0250  0.1327 -0.3540
37264W        W80358  10.481   0.465  27.854 -0.0981  0.1068  0.1397
37265W        W80359   8.451   1.914  30.796  0.3822  0.1801  0.3614
37266W        W80360   7.186   1.913  26.012  0.0604  0.0120  0.3255
37267W        W80361   7.405   1.460  28.415  0.2082  0.1997  0.2762
37268W        W80362   8.837   0.926  29.692 -0.0394  0.1805 -0.2458
37269W        W80363   9.737   0.863  30.782 -0.2454 -0.0731  0.4551
37270W        W80364   8.256   0.738  31.454  0.1565  0.2393 -0.1093
37271W        W80365   8.290   0.668  30.362  0.0289 -0.2107 -0.1090
37272W        W80366   8.034  34.254  28.939  0.1123 -0.0603  0.2928
37273W        W80367  10.905   3.185  27.640  0.2035  0.1784  0.1227
37274W        W80368   9.070   0.883   0.212 -0.1283  0.2161  0.1334
37275W        W80369   6.731  33.660  30.283 -0.0025 -0.1588 -0.0493
37276W        W80370   9.791   2.590  27.301  0.0534 -0.3299 -0.1027
37277W        W80371  10.319   4.057  28.211  0.3420 -0.0578  0.1075
37278W        W80372   9.364  34.624  27.672 -0.1068  0.1733 -0.1158
37279W        W80373  11.881   3.344   0.629 -0.0931 -0.3774  0.2803
37280W        W80374   6.800   1.562  26.925 -0.2721 -0.0069 -0.1549
37281W        W80375   8.830   1.488  31.805  0.3472 -0.2268 -0.1747
37282W        W80376   9.538   1.091  31.935  0.1467 -0.1172  0.0784
37283W        W80377   7.224  34.576  26.808  0.1233  0.0338 -0.0580
37284W        W80378   9.103   1.233  30.060 -0.0585  0.1816 -0.2207
37285W        W80379  10.159   3.196  28.138  0.1036 -0.0977  0.0402
37286W        W80380  10.701   5.508  26.782 -0.1093 -0.0620 -0.2950
37287W        W80381  10.984   2.186  29.517  0.1697  0.1986 -0.1152
37288W        W80382   8.411   4.393  30.411  0.2030  0.2231 -0.0108
37289W        W80383   8.717   0.178  31.575  0.1238  0.1366  0.2552
37290W        W80384   9.629   1.632  27.625 -0.0114 -0.1013  0.1562
37291W        W80385   8.896   2.412  30.247 -0.3015  0.3283  0.1849
37292W        W80386  10.699   3.981  27.851  0.1552  0.0440 -0.0727
37293W        W80387   9.848  34.334  30.588 -0.0811  0.1815 -0.1798
37294W        W80388   9.201   1.287  27.161 -0.0394  0.1307  0.0357
37295W        W80389   8.083  34.203  31.627 -0.0229 -0.0597  0.1417
37296W        W80390   7.074   0.864  30.455  0.0512 -0.2568  0.1130
37297W        W80391  10.396   0.800  28.775 -0.0693  0.0983 -0.2246
37298W        W80392   9.064  34.199  28.459  0.2377 -0.0007  0.0433
37299W        W80393  10.717   0.307  26.976 -0.2452  0.2679  0.1507
37300W        W80394   9.175   2.647  26.758  0.0288  0.1154  0.0724
37301W        W80395   9.684   0.542  29.991 -0.0998 -0.3310 -0.0785
37302W        W80396  10.552   0.676  27.301 -0.0064  0.0103  0.3822
37303W        W80397  11.134   1.676  29.657  0.0490  0.1380  0.0301
37304W        W80398   9.277   1.901  30.291  0.0292  0.0234  0.1024
37305W        W80399  11.672   2.505   0.422  0.1771 -0.0881  0.1944
37306W        W80400   8.858   1.357  27.612 -0.2222  0.1716 -0.2046
37307W        W80401  11.942   2.066  27.565  0.2126 -0.1373 -0.0555
37308W        W80402   9.150   3.102  30.752  0.3077 -0.1135  0.1226
37309W        W80403  10.090   3.750  31.170  0.1305  0.0937 -0.2680
37310W        W80404   9.776   1.055  28.941 -0.1637 -0.1957 -0.0843
37311W        W80405   9.817   0.122  28.739  0.2980 -0.0943  0.1268
37312W        W80406   8.461   0.764  28.945  0.0608  0.1737 -0.1880
37313W        W80407   7.019   0.141  29.865 -0.1751 -0.2565 -0.0091
37314W        W80408   8.835   2.179  27.999  0.2117  0.2205  0.1675
37315W        W80409   9.451  34.679  29.846 -0.1458 -0.0893 -0.0929
37316W        W80410   8.981   0.838  28.099 -0.0164 -0.4275 -0.1025
37317W        W80411  10.275   0.005  29.269  0.1851 -0.0834 -0.2448
37318W        W80412   8.722   4.537  29.903  0.2267 -0.1658  0.1258
37319W        W80413  10.309   0.918  28.194 -0.0219 -0.0127 -0.0118
37320W        W80414  10.110   1.571  31.248  0.3776  0.3006  0.1171
37321W        W80415  12.176   2.825  31.388  0.0593 -0.2248  0.3821
37322W        W80416  10.638   1.014  30.463 -0.0226 -0.2342  0.1907
37323W        W80417   7.308   4.547  30.771 -0.1887  0.0181  0.0350
37324W        W80418   8.536   2.935   0.532 -0.0414 -0.3989 -0.0350
37325W        W80419   8.953   3.413  31.540  0.0828  0.1315  0.2399
37326W        W80420  11.003   0.842   0.230  0.2706 -0.2506 -0.2074
37327W        W80421   8.514  34.151   0.679 -0.0004 -0.4761 -0.0574
37328W        W80422  10.438  34.309  31.783 -0.2715 -0.2669  0.2475
37329W        W80423  12.146   3.697   0.913  0.1189 -0.1127  0.0089
37330W        W80424  10.793   2.706  31.792 -0.0450  0.1340  0.1787
37331W        W80425   9.881   0.143   0.945 -0.0466  0.0003 -0.3060
37332W        W80426  10.226   2.017  29.693  0.4845  0.1507 -0.0613
37333W        W80427   9.285   3.247  31.246  0.2288  0.3386  0.2282
37334W        W80428  11.205   1.297   0.111 -0.0215  0.0401 -0.0914
37335W        W80429   7.403   3.300  29.878 -0.0042 -0.0373  0.1179
37336W        W80430   7.761   3.150   0.182 -0.0853 -0.0365 -0.1724
37337W        W80431  10.756   2.312  30.356 -0.4198  0.1211  0.0237
37338W        W80432   7.938   1.377  30.876 -0.3977  0.1792 -0.1769
37339W        W80433   7.656   0.682   0.767 -0.1916  0.0233  0.5048
37340W        W80434   8.473  34.504  31.455  0.4106  0.2331 -0.2555
37341W        W80435   7.958   1.929  30.718  0.0945  0.1613  0.0328
37342W        W80436  10.536   0.734   0.154  0.4453 -0.2463 -0.3022
37343W        W80437  10.120   2.862  29.358  0.0066 -0.0434 -0.2096
37344W        W80438   9.416   0.417  30.585 -0.1876  0.0157 -0.2761
37345W        W80439  10.392   1.562  30.843  0.0962 -0.0347 -0.2005
37346W        W80440   8.906  34.398  31.169 -0.1721 -0.2225  0.3119
37347W        W80441   7.706   1.798  31.200 -0.0441 -0.3806 -0.0641
37348W        W80442   9.829   1.244  31.521 -0.3768  0.1883 -0.0436
37349W        W80443   8.127   2.613   0.793  0.1824  0.2599  0.1354
37350W        W80444   8.179   3.141  31.779  0.1846  0.0162 -0.0802
37351W        W80445   9.679   1.412  31.066  0.0352 -0.1683  0.0398
37352W        W80446  11.038   3.026   0.120 -0.0449 -0.3800  0.0586
37353W        W80447  10.304   0.579  31.649  0.3860 -0.0286 -0.3741
37354W        W80448   8.569   1.276  30.320 -0.1698 -0.0437 -0.0626
37355W        W80449   7.098   3.043  31.161 -0.3236 -0.2431 -0.3642
37356W        W80450   8.905   3.710  30.516  0.1309  0.2074  0.0841
37357W        W80451  10.512   2.104   0.615  0.1605  0.1273  0.2230
37358W        W80452  10.340   1.781   0.235  0.1031 -0.3012  0.2063
37359W        W80453  10.593   2.377  30.813  0.0396  0.2012  0.0254
37360W        W80454  10.414   0.116  31.970  0.5465 -0.1770 -0.2854
37361W        W80455   8.977  34.487  31.743 -0.1365 -0.2374  0.0948
37362W        W80456   8.043   0.728   0.438 -0.2291 -0.1889 -0.0977
37363W        W80457  10.066   2.831   0.256 -0.0896  0.4594 -0.2014
37364W        W80458   8.155   2.204  31.160 -0.2344 -0.0469 -0.2135
37365W        W80459  10.249   2.093  31.517  0.0900  0.0861 -0.0731
37366W        W80460   9.125   0.404   0.383  0.0633  0.0625  0.0352
37367W        W80461   8.836   3.768  31.154  0.2535  0.0554 -0.0300
37368W        W80462  11.407   2.403  31.509  0.1152  0.0749 -0.0949
37369W        W80463   8.031   3.080  30.647 -0.1165  0.0433 -0.0367
37370W        W80464  11.312   3.465   0.328  0.0699 -0.1871 -0.1125
37371W        W80465  12.260   1.178  31.734 -0.0746 -0.0250  0.1861
37372W        W80466   8.234   0.769  31.945 -0.2834 -0.0086  0.0412
37373W        W80467   9.320   2.577  29.858  0.0386 -0.0526  0.0556
37374W        W80468   8.998   1.152  30.625  0.1169  0.1185 -0.1427
37375W        W80469   9.789   1.936  31.053 -0.2691 -0.2977  0.1168
37376W        W80470  11.368   2.695  31.926  0.2074  0.1671 -0.0806
37377W        W80471  11.065   2.308  31.928 -0.0973 -0.0024 -0.2574
37378W        W80472   9.289   3.736  29.797 -0.1554  0.0838  0.0896
37379W        W80473   8.601   2.339  31.058 -0.1279 -0.0693  0.1560
37380W        W80474   7.377   2.349   0.132 -0.0505 -0.0228  0.1122
37381W        W80475   9.552   2.968   0.431  0.0195 -0.0658 -0.1655
37382W        W80476   6.866   3.108   0.202 -0.1809 -0.1177  0.0003
37383W        W80477   6.654   1.032  31.142 -0.2514 -0.1692  0.1520
37384W        W80478   9.704   2.438  31.028 -0.1605 -0.1733  0.1268
37385W        W80479  12.857   2.248  31.895 -0.1482 -0.0730  0.0567
37386W        W80480  11.946   2.953   0.117  0.3356  0.1295 -0.0784
37387W        W80481   9.443   5.423  19.054  0.0239 -0.2864 -0.0857
37388W        W80482   8.917   4.220  16.119  0.1694 -0.2011  0.0545
37389W        W80483  10.838   4.028  15.560  0.1806 -0.0611  0.0466
37390W        W80484  10.844   5.539  16.320  0.1799  0.2151 -0.0347
37391W        W80485   7.955   3.924  17.181 -0.0572 -0.1789 -0.1197
37392W        W80486   8.591   7.368  17.699 -0.0423  0.0531  0.2695
37393W        W80487   7.430   3.917  18.651  0.1713 -0.3122  0.3540
37394W        W80488  10.993   6.445  17.051 -0.0241  0.1688 -0.1383
37395W        W80489  10.541   6.694  18.429 -0.0851 -0.3132  0.1123
37396W        W80490  10.583   5.962  17.133  0.2661 -0.0911 -0.2086
37397W        W80491  11.346   5.031  18.412 -0.0137 -0.1785 -0.0999
37398W        W80492   9.457   6.373  19.824 -0.0541 -0.1973  0.1181
37399W        W80493   9.199   2.681  16.468 -0.1692 -0.1881  0.3567
37400W        W80494   7.994   2.952  19.528 -0.0470  0.3124  0.0207
37401W        W80495   9.989   4.984  18.298  0.2378 -0.6245 -0.1564
37402W        W80496   7.554   4.096  16.831 -0.0396  0.1562  0.1106
37403W        W80497   8.873   3.719  17.534  0.1658  0.1623 -0.1904
37404W        W80498   7.133   3.651  17.290 -0.0965  0.1933 -0.1869
37405W        W80499   8.840   6.576  17.052  0.0566  0.0420  0.1075
37406W        W80500   8.878   3.700  19.800  0.0265  0.0964 -0.1894
37407W        W80501  10.173   4.768  18.877  0.2699  0.0520  0.0662
37408W        W80502   8.306   7.828  16.983 -0.2232  0.1143  0.0971
37409W        W80503   6.971   4.766  16.353  0.0556  0.2041 -0.3828
37410W        W80504   7.704   4.718  17.819  0.0622  0.0689  0.1281
37411W        W80505   8.175   4.003  17.823  0.0639 -0.0245 -0.1662
37412W        W80506  10.823   5.110  18.425  0.1129  0.0558  0.0045
37413W        W80507  11.654   4.135  18.145 -0.4091  0.0703  0.0292
37414W        W80508   8.841   6.486  17.550 -0.0253 -0.2623  0.0079
37415W        W80509  10.243   5.617  17.163 -0.1269 -0.1697  0.1492
37416W        W80510   9.466   6.512  21.405 -0.2327  0.1249  0.1716
37417W        W80511   8.390   6.330  17.796 -0.1257  0.0115  0.1850
37418W        W80512   7.137   7.263  17.545 -0.0401  0.2830 -0.2162
37419W        W80513   8.809   6.790  16.422 -0.1749 -0.0238 -0.1914
37420W        W80514   9.423   7.386  16.683 -0.1632  0.0352 -0.0650
37421W        W80515  11.601   6.339  18.134  0.1743  0.0379 -0.1097
37422W        W80516   8.467   7.139  20.455 -0.1834 -0.0538 -0.0244
37423W        W80517   7.893   6.371  16.557 -0.1571 -0.0018  0.5954
37424W        W80518   8.958   7.049  18.137 -0.1368  0.0517  0.0804
37425W        W80519   7.796   6.195  20.346  0.0798 -0.1318 -0.0799
37426W        W80520   9.920   4.777  19.582  0.1098 -0.0359  0.0802
37427W        W80521   8.186   5.387  17.540  0.2592 -0.0032  0.1384
37428W        W80522   7.609   7.354  16.671  0.1370  0.1249 -0.2831
37429W        W80523  10.160   6.468  17.807 -0.0394 -0.3113 -0.0761
37430W        W80524   7.274   5.749  19.286  0.1217  0.2146 -0.4217
37431W        W80525   8.711   6.018  18.140 -0.0364  0.0700  0.0367
37432W        W80526   9.530   3.820  20.008 -0.0165 -0.0542 -0.0198
37433W        W80527   6.545   7.980  16.419 -0.1398 -0.3835  0.2346
37434W        W80528  11.215   4.835  16.425  0.2419  0.1478  0.2520
37435W        W80529   8.504   4.618  16.149  0.1028 -0.2897 -0.0968
37436W        W80530  10.911   4.432  16.147  0.3120  0.1230 -0.1592
37437W        W80531   9.249   4.678  17.683 -0.2795 -0.0124  0.1405
37438W        W80532   8.518   6.776  19.232 -0.0655  0.3291  0.4849
37439W        W80533   8.006   3.297  18.294 -0.1588  0.0258  0.0212
37440W        W80534  10.592   7.142  18.622  0.5152 -0.0214 -0.3449
37441W        W80535   9.542   5.805  16.406 -0.0585  0.1933 -0.1989
37442W        W80536  10.215   5.523  17.881  0.0286 -0.2555  0.1801
37443W        W80537   8.520   5.326  18.004  0.1279 -0.3376 -0.1395
37444W        W80538   8.405   4.516  17.781 -0.3218 -0.4516  0.2365
37445W        W80539  10.683   7.159  15.482  0.2256  0.2601 -0.0920
37446W        W80540  10.570   6.694  17.111  0.1415 -0.0413 -0.2565
37447W        W80541   9.208   7.060  16.261  0.0197  0.0153  0.0635
37448W        W80542   7.523   4.397  17.200 -0.0128  0.2744  0.0561
37449W        W80543   9.873   5.180  19.315 -0.0390 -0.0220  0.1113
37450W        W80544   8.606   4.813  19.210  0.1079 -0.0247 -0.2921
37451W        W80545   8.951   3.684  17.053 -0.0723 -0.0063  0.1239
37452W        W80546  12.299   6.033  18.736 -0.0061 -0.0940 -0.0283
37453W        W80547   8.236   7.645  18.436  0.0569 -0.0847 -0.0903
37454W        W80548  10.688   5.419  18.045  0.3046  0.2100  0.1104
37455W        W80549   8.392   4.893  18.745  0.0816 -0.0227  0.2046
37456W        W80550   8.874   7.058  17.425  0.1823  0.1877 -0.3699
37457W        W80551  10.468   6.518  16.167 -0.0961  0.2496 -0.2244
37458W        W80552  10.231   4.285  16.802 -0.2296  0.0408 -0.2366
37459W        W80553  10.433   5.001  17.994  0.0334  0.1777  0.1390
37460W        W80554   9.874   5.999  16.129 -0.0725  0.2159  0.2903
37461W        W80555   9.152   4.956  15.854  0.1532 -0.2382  0.2157
37462W        W80556  11.758   7.269  17.262  0.0602 -0.0597  0.2223
37463W        W80557  10.425   4.992  15.696  0.1353 -0.2816 -0.2018
37464W        W80558   8.506   6.827  18.687  0.1137  0.1469  0.2738
37465W        W80559  10.707   2.667  19.971  0.0733 -0.2764 -0.0487
37466W        W80560   9.375   4.828  19.854 -0.0876  0.1347  0.0004
37467W        W80561   7.637   8.135  15.942  0.0004  0.1850  0.3249
37468W        W80562   7.904   5.808  17.449 -0.1204  0.2971 -0.0711
37469W        W80563   8.069   5.249  17.017 -0.0104  0.2184  0.1173
37470W        W80564   7.096   3.154  17.919  0.1833  0.0425 -0.4846
37471W        W80565   9.642   4.708  17.944 -0.0728 -0.1549 -0.1935
37472W        W80566  10.655   2.446  15.769 -0.1037 -0.1651 -0.1105
37473W        W80567   7.645   3.392  18.707  0.3226 -0.2583 -0.0884
37474W        W80568  10.580   4.766  17.569  0.2688 -0.3185 -0.0049
37475W        W80569   6.735   6.588  17.508  0.1750  0.0471  0.0327
37476W        W80570   9.684   7.116  17.104  0.1836 -0.3456 -0.3344
37477W        W80571   9.154   6.228  17.305 -0.1296 -0.0705 -0.0360
37478W        W80572   9.241   7.227  15.789 -0.1249  0.0623  0.0072
37479W        W80573   7.018   6.190  19.306  0.0015 -0.3877 -0.3607
37480W        W80574   6.319   4.420  17.795  0.3529 -0.3343 -0.0996
37481W        W80575   9.027   4.011  18.425 -0.0096 -0.2100  0.1834
37482W        W80576   9.009   3.953  16.643 -0.2265 -0.0853 -0.0916
37483W        W80577  10.748   5.412  19.648  0.0076  0.1885  0.2187
37484W        W80578   8.795   3.264  17.253 -0.1520 -0.1115  0.4196
37485W        W80579  10.686   4.948  16.168 -0.2976  0.2138 -0.0102
37486W        W80580   7.949   5.040  16.579  0.0086 -0.0621  0.1016
37487W        W80581   7.378   4.775  17.481 -0.1242  0.4306 -0.3437
37488W        W80582  10.053   3.595  20.538  0.2153  0.1416 -0.0554
37489W        W80583   9.667   6.905  16.545  0.0364 -0.1766 -0.0103
37490W        W80584  10.972   8.423  18.189 -0.0387 -0.0838 -0.1564
37491W        W80585   9.617   7.246  18.443 -0.0405  0.0573 -0.2380
37492W        W80586   8.040   4.410  18.173 -0.1595 -0.1084 -0.3156
37493W        W80587   8.168   3.438  16.765 -0.1493 -0.0781 -0.0079
37494W        W80588   8.065   7.043  18.449 -0.3044 -0.1297 -0.1971
37495W        W80589  10.364   7.742  16.977 -0.0746  0.4401  0.0635
37496W        W80590   7.766   3.146  16.854 -0.1849 -0.2917  0.1137
37497W        W80591  10.551   7.411  17.770 -0.2876 -0.2906  0.2158
37498W        W80592   9.346   6.239  16.319  0.2290 -0.0473 -0.0206
37499W        W80593   6.804   5.157  18.688 -0.0839  0.1779  0.1228
37500W        W80594  11.543   2.852  19.759 -0.1417  0.2460  0.1301
37501W        W80595  10.466   5.073  19.361 -0.0792 -0.1761  0.1159
37502W        W80596  10.067   7.213  16.668 -0.1936 -0.0435 -0.1659
37503W        W80597   6.607   3.792  17.294 -0.2715  0.1420  0.1586
37504W        W80598   8.561   6.938  16.912  0.0392  0.1746  0.0209
37505W        W80599   7.798   6.184  17.012 -0.4772  0.2772 -0.0599
37506W        W80600   8.522   4.967  17.690  0.1558  0.0322  0.3228
37507W        W80601   8.919   5.787  17.157 -0.0891 -0.1924 -0.2714
37508W        W80602  11.448   4.870  19.357  0.0085 -0.5157 -0.0628
37509W        W80603   8.544   4.575  19.944  0.0247  0.3616 -0.2278
37510W        W80604   9.516   4.728  18.536  0.0018 -0.3301  0.0976
37511W        W80605   7.726   5.162  16.069  0.3726  0.1564  0.0406
37512W        W80606   8.846   7.724  18.684 -0.0477  0.1564  0.1666
37513W        W80607   9.800   2.745  16.293  0.0608  0.0985 -0.0183
37514W        W80608  11.234   4.331  17.277 -0.0358 -0.0358  0.1608
37515W        W80609   7.676   5.160  19.840  0.0006 -0.0897 -0.1361
37516W        W80610  10.656   6.345  15.108 -0.0064  0.1457  0.6799
37517W        W80611  10.321   5.223  16.659 -0.1241  0.0091  0.0746
37518W        W80612  11.236   4.444  15.632 -0.0821  0.3456  0.1050
37519W        W80613   9.686   4.717  19.101 -0.1590 -0.0139  0.2477
37520W        W80614   8.777   5.423  17.565 -0.0822  0.3732 -0.0196
37521W        W80615   8.837   5.154  18.361 -0.0151  0.2274  0.0347
37522W        W80616   9.940   4.737  15.801  0.2954 -0.2745  0.0335
37523W        W80617   9.162   7.516  18.306 -0.0046 -0.2012 -0.0762
37524W        W80618   8.140   6.385  19.250  0.1503 -0.1997 -0.1794
37525W        W80619  10.149   6.593  18.727  0.2492 -0.0830  0.0662
37526W        W80620  10.239   5.672  16.329  0.4153 -0.1360 -0.0291
37527W        W80621   9.170   3.882  18.935 -0.1782 -0.0377  0.2167
37528W        W80622   9.657   5.025  16.044  0.2023 -0.0127  0.0110
37529W        W80623  10.093   4.725  16.592  0.0390  0.1683 -0.0988
37530W        W80624   6.801   8.133  17.278 -0.0611  0.1164 -0.3851
37531W        W80625  10.664   4.845  18.925  0.2377 -0.0082  0.1413
37532W        W80626   9.070   5.026  17.310 -0.0415 -0.1211 -0.0324
37533W        W80627   8.429   3.240  19.769 -0.1649  0.3935  0.1830
37534W        W80628  12.023   4.696  18.356  0.1956 -0.2400 -0.1219
37535W        W80629   9.569   5.951  17.171 -0.3307  0.1368 -0.4084
37536W        W80630   9.931   5.145  16.970 -0.0318 -0.0613  0.1855
37537W        W80631   8.353   5.470  16.683 -0.0736 -0.1151  0.4049
37538W        W80632   9.971   2.670  18.689  0.3120  0.1572  0.3503
37539W        W80633   7.945   2.887  19.020 -0.1033  0.0436  0.2938
37540W        W80634   9.451   5.807  19.371 -0.2028 -0.0679 -0.1144
37541W        W80635  11.102   5.555  17.619  0.0882  0.1196 -0.2402
37542W        W80636   9.806   5.162  17.804  0.1705 -0.2401 -0.2196
37543W        W80637   8.829   4.528  17.482  0.0221  0.0149  0.2723
37544W        W80638   9.517   3.702  16.711 -0.0761  0.0000 -0.2571
37545W        W80639   8.571   6.124  17.141 -0.0546  0.3819  0.4011
37546W        W80640   7.209   6.463  17.298 -0.4011  0.2170 -0.0970
37547W        W80641   8.859   3.559  18.573 -0.2363 -0.0076 -0.1174
37548W        W80642   8.948   6.741  18.891  0.0654  0.1827  0.0016
37549W        W80643   8.130   5.978  15.759 -0.1255  0.4247  0.1239
37550W        W80644   9.821   5.475  18.312  0.0127 -0.0973 -0.2261
37551W        W80645   9.240   6.609  16.617  0.0829 -0.0513  0.0310
37552W        W80646   8.540   3.303  18.221 -0.1410  0.0730  0.0184
37553W        W80647   8.431   6.671  17.352  0.1682  0.0478 -0.0006
37554W        W80648   7.988   4.427  17.494 -0.2036 -0.1902 -0.0203
37555W        W80649   8.282   6.250  18.324  0.1508 -0.2743  0.0704
37556W        W80650  10.215   4.161  17.727  0.1654  0.0285 -0.1430
37557W        W80651   9.882   5.631  16.766 -0.4239  0.4733  0.1113
37558W        W80652   7.680   3.766  18.168  0.1538 -0.0117 -0.1643
37559W        W80653   8.589   2.364  18.510 -0.0806 -0.1345  0.0307
37560W        W80654   7.258   6.525  19.056 -0.0992 -0.0256  0.0281
37561W        W80655   9.727   5.806  20.496 -0.3130  0.2205 -0.1200
37562W        W80656   9.498   4.233  14.854  0.0256  0.0274 -0.3732
37563W        W80657   8.980   4.867  18.872 -0.1166 -0.2333  0.1555
37564W        W80658   8.536   4.010  18.652  0.2541  0.0717 -0.1074
37565W        W80659   8.032   4.779  16.076  0.1863 -0.0365  0.0367
37566W        W80660  10.041   5.907  17.521 -0.0045  0.0830 -0.1698
37567W        W80661   8.277   4.161  16.911  0.1500  0.1212 -0.0325
37568W        W80662   6.925   7.333  18.002 -0.0194 -0.2097 -0.3864
37569W        W80663   8.640   6.279  19.098  0.1340 -0.3237 -0.2823
37570W        W80664   9.650   4.948  17.383  0.1290 -0.1999  0.1520
37571W        W80665   9.253   5.486  18.628  0.3226  0.1413  0.0538
37572W        W80666   7.957   4.701  19.012 -0.0147 -0.2674  0.1104
37573W        W80667   9.545   5.852  18.851 -0.0591 -0.0064  0.0968
37574W        W80668  10.402   4.343  18.784 -0.0303  0.0117  0.0145
37575W        W80669   8.872   5.361  16.837 -0.0337  0.1959 -0.0039
37576W        W80670   9.954   4.651  17.137  0.4172 -0.2834  0.0000
37577W        W80671   9.542   6.031  17.687 -0.0347 -0.0246  0.0264
37578W        W80672   9.581   4.158  19.196  0.0139  0.0451 -0.1014
37579W        W80673   7.837   4.739  19.494  0.1412  0.0629 -0.0337
37580W        W80674  10.815   3.944  18.820  0.2260  0.0670  0.2158
37581W        W80675  10.926   6.531  16.454  0.0777 -0.2882 -0.2992
37582W        W80676   9.041   5.982  18.502 -0.2822  0.3684 -0.0129
37583W        W80677   8.861   4.893  16.342 -0.1684  0.1871 -0.0986
37584W        W80678   7.063   6.290  17.714  0.3060  0.0657  0.3017
37585W        W80679   9.074   7.037  16.887  0.0621  0.1284 -0.0422
37586W        W80680   8.584   4.324  18.210 -0.1021  0.2197 -0.1025
37587W        W80681   7.876   6.572  18.373 -0.3398 -0.0896 -0.0306
37588W        W80682   8.060   5.891  16.242 -0.4229  0.1733 -0.1611
37589W        W80683   7.759   6.092  18.535  0.2455 -0.0355  0.2104
37590W        W80684  10.197   5.048  16.184 -0.0159  0.0572 -0.2964
37591W        W80685   9.827   5.980  15.307  0.2675 -0.0785 -0.0717
37592W        W80686   8.513   5.026  16.651  0.2964 -0.2100 -0.1074
37593W        W80687  11.508   3.881  19.503 -0.1463  0.0396 -0.0369
37594W        W80688  10.388   4.891  17.042 -0.4409  0.0649  0.2865
37595W        W80689   9.558   3.733  20.681  0.0899 -0.2478  0.1467
37596W        W80690   8.221   3.467  18.727 -0.2314 -0.1902  0.1966
37597W        W80691   9.940   6.481  16.184  0.0166 -0.1808 -0.1671
37598W        W80692   8.152   5.256  18.388 -0.1930 -0.0051 -0.2648
37599W        W80693   9.660   7.579  20.136  0.0430 -0.1151  0.3395
37600W        W80694   9.007   5.776  18.959  0.3717 -0.0461 -0.0400
37601W        W80695   9.423   4.436  15.894  0.2724  0.0342 -0.2004
37602W        W80696   7.817   4.461  16.645  0.0884 -0.1173  0.3620
37603W        W80697  10.223   5.326  19.696 -0.0338  0.2016  0.0192
37604W        W80698  11.687   6.156  17.216  0.2016  0.1469  0.1337
37605W        W80699   9.230   6.150  16.816  0.0226  0.2106  0.1749
37606W        W80700  11.468   3.066  16.869 -0.0817 -0.1343  0.0893
37607W        W80701   8.483   5.063  17.182 -0.1324  0.3787 -0.0735
37608W        W80702  11.368   4.802  17.340  0.2511  0.1516  0.1666
37609W        W80703  11.216   4.835  15.928 -0.1239 -0.1924 -0.2649
37610W        W80704   7.943   6.246  17.969  0.1174  0.3751  0.0422
37611W        W80705   7.694   4.187  17.865  0.0424 -0.3106 -0.0873
37612W        W80706   9.771   5.248  16.516 -0.1464 -0.3545 -0.0339
37613W        W80707  10.385   4.436  17.256  0.1033 -0.1256  0.0118
37614W        W80708  10.042   4.402  19.278 -0.1577  0.1449 -0.1711
37615W        W80709   9.313   5.619  21.867 -0.2899  0.1687  0.0913
37616W        W80710   9.065   4.739  20.250 -0.1818  0.2197 -0.1302
37617W        W80711   6.429   2.695  20.312  0.3289 -0.1004 -0.2860
37618W        W80712  10.629   7.581  18.307 -0.0980  0.1203  0.0648
37619W        W80713  11.146   4.340  16.637  0.0689 -0.4258 -0.2449
37620W        W80714  10.590   2.876  18.455  0.1705 -0.1603 -0.2214
37621W        W80715  10.904   5.594  17.067 -0.0208 -0.1919  0.4442
37622W        W80716   9.543   4.861  15.493  0.0200 -0.0057 -0.1425
37623W        W80717   9.003   5.601  18.051  0.0564  0.0614 -0.0911
37624W        W80718   9.103   4.437  21.554 -0.0662 -0.1924 -0.2321
37625W        W80719   8.769   4.684  16.977  0.1182 -0.3367  0.0371
37626W        W80720   8.582   4.233  20.742 -0.1910  0.4637  0.0998
37627W        W80721   8.430   7.773  16.491 -0.1552 -0.2792  0.4692
37628W        W80722  10.053   6.059  17.017 -0.1159  0.3261 -0.0491
37629W        W80723   8.788   7.060  15.939 -0.0748  0.0909 -0.0178
37630W        W80724   7.867   3.526  17.672  0.1064 -0.1025 -0.2569
37631W        W80725   6.936   7.093  19.165 -0.0968 -0.1141 -0.0402
37632W        W80726   8.521   4.323  15.695 -0.3504 -0.0658  0.3894
37633W        W80727   9.357   5.361  15.583  0.0123 -0.2366 -0.1874
37634W        W80728   9.199   6.237  18.909 -0.0496 -0.0226 -0.1642
37635W        W80729  11.053   6.056  17.367  0.0833 -0.2530  0.0756
37636W        W80730   8.983   3.558  16.358 -0.2608  0.1540 -0.3814
37637W        W80731  11.589   4.393  19.503  0.0469 -0.0606 -0.0509
37638W        W80732   7.656   4.872  16.970 -0.2398 -0.0394 -0.1251
37639W        W80733  10.585   3.865  16.894 -0.0075  0.0257 -0.0017
37640W        W80734   7.601   7.898  19.168 -0.2401 -0.0476  0.3052
37641W        W80735   8.197   6.071  18.871 -0.2739  0.2141  0.2234
37642W        W80736   7.252   7.545  18.341 -0.0615 -0.1315 -0.0080
37643W        W80737   8.518   4.811  18.254 -0.2412 -0.1674  0.2072
37644W        W80738  10.994   5.994  16.773  0.0078 -0.1042  0.3946
37645W        W80739   9.291   5.604  17.467 -0.1514 -0.2397  0.1783
37646W        W80740  11.288   5.398  18.103  0.1133 -0.1385  0.2275
37647W        W80741   9.102   4.495  19.292 -0.0396  0.1441  0.3545
37648W        W80742   7.376   5.856  17.627 -0.1288  0.2321 -0.0413
37649W        W80743  10.332   6.324  17.375 -0.0138  0.0850  0.1735
37650W        W80744  10.438   7.167  17.010  0.3295  0.0314  0.4585
37651W        W80745   7.383   6.393  18.525 -0.1664 -0.2797 -0.1739
37652W        W80746   7.594   4.353  18.417  0.0797  0.1796  0.1219
37653W        W80747  10.030   6.026  18.708  0.1624  0.1020 -0.1059
37654W        W80748  10.780   4.278  16.960 -0.3532 -0.5820  0.0854
37655W        W80749   7.816   3.010  17.597  0.0094 -0.2099  0.1121
37656W        W80750   8.246   6.502  16.899  0.2331 -0.1858 -0.1322
37657W        W80751   8.589   6.154  20.464 -0.2783  0.1833 -0.3713
37658W        W80752   6.828   7.210  18.508  0.0415  0.0100  0.3096
37659W        W80753   7.657   6.273  17.479 -0.1707 -0.2093 -0.1914
37660W        W80754   9.737   7.009  15.935 -0.0989  0.1191 -0.2115
37661W        W80755   9.323   4.745  16.278  0.0745  0.2879 -0.0445
37662W        W80756   8.923   6.911  19.453  0.0353  0.0579  0.1131
37663W        W80757   9.157   5.008  16.736  0.2333  0.0393  0.1895
37664W        W80758   8.142   6.211  17.400 -0.0199  0.2755  0.0667
37665W        W80759   8.292   6.812  15.991 -0.3481 -0.1169 -0.0570
37666W        W80760  10.572   6.908  16.598 -0.0584  0.0345  0.0797
37667W        W80761   8.214   6.007  16.740  0.0401 -0.1964  0.2931
37668W        W80762  10.272   7.164  19.087 -0.0634 -0.2563 -0.5869
37669W        W80763   9.712   3.790  14.837 -0.0248 -0.0398  0.2944
37670W        W80764  10.827   3.772  18.331  0.0910 -0.2628  0.0722
37671W        W80765  11.082   3.862  16.873  0.0515 -0.1197 -0.3906
37672W        W80766  10.195   6.377  18.275  0.3906  0.0971  0.0435
37673W        W80767   9.556   5.570  17.895  0.0135  0.0878  0.0015
37674W        W80768   8.448   3.788  16.571  0.3184 -0.0385  0.3664
37675W        W80769   8.508   5.779  19.169 -0.2408 -0.2365 -0.1511
37676W        W80770   8.485   3.652  19.438 -0.1335  0.1744 -0.3351
37677W        W80771   6.855   5.908  20.409 -0.2007  0.1615 -0.1143
37678W        W80772  10.143   6.734  16.774  0.1393  0.1757  0.1107
37679W        W80773   7.250   4.409  16.639 -0.2498  0.1731  0.0986
37680W        W80774   8.691   4.413  16.578 -0.1276  0.1184 -0.1169
37681W        W80775  10.080   1.783  19.277 -0.2937 -0.2703 -0.2621
37682W        W80776   8.754   6.341  16.638 -0.0442 -0.1405 -0.0263
37683W        W80777   9.930   5.946  18.114 -0.0808  0.1537 -0.0606
37684W        W80778   9.198   6.200  18.104  0.1084  0.1863 -0.2940
37685W        W80779   9.727   6.491  17.483  0.0496  0.0681 -0.1134
37686W        W80780   8.206   5.869  20.245  0.0555  0.2392  0.0367
37687W        W80781   6.911   4.066  17.008 -0.2629 -0.4087 -0.0665
37688W        W80782  11.987   5.735  17.211 -0.0055 -0.0891 -0.1916
37689W        W80783   9.736   4.292  18.286 -0.1248  0.0231  0.1371
37690W        W80784   9.257   3.343  18.842  0.1038 -0.1514  0.1465
37691W        W80785   9.607   4.816  16.843  0.0556  0.1717  0.0628
37692W        W80786  10.040   4.042  16.410 -0.2929 -0.2188  0.1734
37693W        W80787   9.759   6.950  17.683  0.0415  0.0436  0.0882
37694W        W80788   9.111   5.109  17.837  0.3349 -0.2056 -0.0844
37695W        W80789   9.041   5.783  16.342  0.5079  0.0347  0.3581
37696W        W80790  10.385   3.741  19.563  0.0462 -0.1872 -0.1288
37697W        W80791  10.335   4.481  16.252  0.0872 -0.6149  0.1927
37698W        W80792   9.237   9.033  18.863 -0.0610 -0.0431 -0.0889
37699W        W80793   8.377   4.611  17.308 -0.4650  0.1427 -0.0340
37700W        W80794   9.974   5.202  15.714  0.0299 -0.1491 -0.1132
37701W        W80795   7.042   4.552  17.125 -0.0960 -0.0231 -0.1717
37702W        W80796  10.104   4.828  21.229  0.2225 -0.0173  0.1480
37703W        W80797   9.341   6.701  19.338  0.2564  0.0417 -0.1195
37704W        W80798   8.825   4.195  17.095 -0.0000  0.1728 -0.1634
37705W        W80799  10.066   6.296  15.715 -0.0669 -0.1747  0.0052
37706W        W80800  10.688   5.186  17.339  0.2572 -0.3759 -0.0113
37707W        W80801   8.916   6.278  16.032 -0.1412  0.0732  0.0340
37708W        W80802  11.674   5.342  16.639  0.1345  0.1332  0.5311
37709W        W80803   9.496   5.850  18.352  0.2644  0.0615 -0.1685
37710W        W80804   8.076   4.975  17.988 -0.1664 -0.3317  0.1891
37711W        W80805  10.404   6.868  17.678  0.1290  0.1022  0.5583
37712W        W80806  10.698   6.408  17.989  0.1082  0.2260  0.0294
37713W        W80807   9.881   3.559  16.317  0.3410 -0.2052  0.0646
37714W        W80808   9.775   5.126  18.791  0.1013  0.1452  0.2653
37715W        W80809   7.508   5.349  16.810 -0.1266 -0.2675 -0.2213
37716W        W80810  10.919   4.709  18.110 -0.0850 -0.0008  0.0645
37717W        W80811  10.897   4.429  18.990  0.0861 -0.1421 -0.1029
37718W        W80812   8.327   6.929  16.495 -0.4242 -0.2809 -0.1185
37719W        W80813   8.969   3.495  19.306  0.1047 -0.0542 -0.0635
37720W        W80814   9.608   6.314  18.511 -0.0339  0.1680  0.2269
37721W        W80815   7.461   7.392  20.838  0.2690  0.0708 -0.0487
37722W        W80816   7.705   5.674  15.875  0.0189 -0.0755  0.1804
37723W        W80817   7.585   5.628  18.473  0.0297  0.0340  0.0301
37724W        W80818   8.971   5.935  17.681 -0.4389 -0.2087 -0.1300
37725W        W80819   6.957   6.973  17.225  0.1335  0.0958 -0.0233
37726W        W80820  11.425   6.425  17.495  0.2518 -0.0406  0.2216
37727W        W80821   8.673   5.827  16.675  0.1582  0.0931  0.1895
37728W        W80822  11.371   5.261  16.212  0.0716 -0.0003  0.0736
37729W        W80823   9.290   4.335  18.041 -0.0317  0.1501 -0.0432
37730W        W80824  10.602   4.024  16.029  0.2081  0.3485  0.1798
37731W        W80825   9.586   2.761  16.794 -0.0831 -0.1369 -0.1504
37732W        W80826   9.012   4.597  18.419  0.2595  0.0270 -0.0619
37733W        W80827   7.380   4.872  16.570 -0.3363  0.3168 -0.3017
37734W        W80828   7.651   6.753  16.295  0.1899  0.1135 -0.1781
37735W        W80829   8.336   5.639  17.145  0.4523 -0.2074 -0.0167
37736W        W80830   7.474   2.597  20.102  0.0091 -0.2776 -0.1296
37737W        W80831   7.327   3.534  19.053  0.0378  0.0334 -0.3705
37738W        W80832   7.327   5.564  18.013 -0.1068 -0.1636 -0.2231
37739W        W80833   7.655   3.493  17.160  0.0709 -0.0254  0.3482
37740W        W80834  10.587   8.125  16.643  0.1443  0.2437  0.2518
37741W        W80835   9.374   4.212  16.376 -0.1321 -0.0062  0.2971
37742W        W80836   6.833   3.314  18.392  0.1759 -0.2486 -0.1059
37743W        W80837  10.529   5.692  16.741 -0.1396 -0.2252 -0.0754
37744W        W80838   9.454   6.645  16.032  0.0076 -0.0067 -0.1798
37745W        W80839   8.778   5.364  16.375  0.0664  0.2713  0.2266
37746W        W80840  12.009   6.426  17.561  0.1169  0.2159 -0.4025
37747W        W80841   6.502   5.937  15.675  0.0978 -0.1597 -0.0546
37748W        W80842   9.323   4.518  21.097  0.0569 -0.1375  0.1482
37749W        W80843   6.845   2.804  19.270 -0.0424 -0.0070  0.2597
37750W        W80844   7.524   3.865  17.521 -0.0810 -0.1410  0.3936
37751W        W80845   9.217   3.967  19.511  0.1091 -0.1934  0.2617
37752W        W80846   9.673   6.326  16.715  0.1795  0.2772  0.1094
37753W        W80847  10.495   7.416  16.428  0.0038 -0.0497  0.3784
37754W        W80848   9.310   4.951  19.338 -0.0645  0.0837  0.0675
37755W        W80849   7.730   5.654  18.965 -0.2210 -0.2617 -0.1033
37756W        W80850   8.263   3.013  18.611  0.1617  0.0933 -0.0811
37757W        W80851  10.130   6.147  16.524  0.0587 -0.2040  0.0456
37758W        W80852   7.830   5.167  18.787  0.0603  0.0657  0.3790
37759W        W80853  10.978   7.305  16.142 -0.4005  0.0882 -0.0011
37760W        W80854  10.213   4.218  18.348  0.3828  0.1908 -0.1956
37761W        W80855   9.751   5.311  15.247 -0.1276 -0.0525 -0.0719
37762W        W80856   7.198   4.055  18.081  0.2846  0.0822 -0.0931
37763W        W80857   7.432   6.074  19.686  0.2695 -0.0548  0.3285
37764W        W80858  10.210   5.145  17.473 -0.0991 -0.0074 -0.1539
37765W        W80859   6.658   4.274  17.406  0.0108 -0.1569  0.0096
37766W        W80860   9.406   5.555  16.813 -0.1531  0.1376  0.2844
37767W        W80861   8.530   5.780  16.167  0.0966 -0.2222  0.0578
37768W        W80862   7.597   5.222  17.739 -0.2911  0.0238  0.0116
37769W        W80863   9.733   4.383  16.709  0.2514  0.0975  0.1037
37770W        W80864   9.820   5.168  19.943  0.0923 -0.2470 -0.3200
37771W        W80865  10.070   6.824  17.277 -0.2919  0.0301  0.2321
37772W        W80866  10.757   5.307  19.041 -0.2372  0.0739 -0.0386
37773W        W80867   8.124   4.693  16.922 -0.0983  0.2660  0.1515
37774W        W80868  10.351   5.964  15.853  0.4198 -0.0326  0.0018
37775W        W80869  10.092   7.730  19.129  0.0901 -0.1441 -0.2121
37776W        W80870  11.911   6.712  18.072  0.3791 -0.2285 -0.1786
37777W        W80871   8.657   6.647  20.069  0.0778 -0.1481 -0.0877
37778W        W80872  10.341   5.625  18.381 -0.0218 -0.0036 -0.1195
37779W        W80873   7.988   2.749  18.138 -0.0694  0.0240 -0.3314
37780W        W80874   8.435   5.763  17.713  0.1317 -0.0997  0.0538
37781W        W80875   8.658   5.575  18.487  0.2384 -0.0191  0.4602
37782W        W80876  10.364   5.301  18.753  0.0392 -0.0244  0.1235
37783W        W80877   9.147   4.484  16.722  0.0644  0.4778 -0.0088
37784W        W80878  10.314   3.595  17.236  0.2830 -0.0066  0.2752
37785W        W80879   8.789   6.463  19.606  0.1507  0.0293 -0.0941
37786W        W80880  11.370   5.718  17.204  0.1844 -0.3430  0.1609
37787W        W80881   9.343   6.976  22.563  0.0585  0.1316  0.1302
37788W        W80882   7.520   3.482  20.039  0.1081  0.0482 -0.2254
37789W        W80883   8.697   4.963  20.836 -0.0585  0.1297  0.1890
37790W        W80884  11.391   4.733  19.857  0.0204 -0.1174  0.1896
37791W        W80885   7.142   3.113  20.009 -0.2253  0.3377 -0.2032
37792W        W80886  11.057   6.462  19.924 -0.5608 -0.4811  0.1006
37793W        W80887   9.398   2.619  21.895  0.2659 -0.1396 -0.1627
37794W        W80888  10.569   6.904  22.029 -0.2671 -0.2442  0.1683
37795W        W80889  10.447   7.674  20.853 -0.0710 -0.0553  0.0216
37796W        W80890   9.446   5.375  19.649  0.0865  0.0661 -0.1196
37797W        W80891   9.268   5.155  22.151  0.3405 -0.2660  0.0945
37798W        W80892   8.953   7.321  22.463 -0.1898 -0.1261  0.0970
37799W        W80893   8.919   2.802  21.635 -0.1409  0.1502  0.2342
37800W        W80894   7.292   3.224  21.746  0.1953  0.3644 -0.0102
37801W        W80895  10.467   6.506  20.603 -0.0211  0.0061 -0.1599
37802W        W80896   7.578   4.689  20.100 -0.1714  0.2340  0.0944
37803W        W80897   9.381   5.391  20.672 -0.0516  0.0424  0.3666
37804W        W80898   9.847   4.364  20.120  0.2051  0.0409 -0.1500
37805W        W80899   8.068   6.165  20.770 -0.0822 -0.0756  0.1669
37806W        W80900   8.092   3.435  23.251 -0.1205 -0.0224 -0.0178
37807W        W80901   7.792   3.100  22.627 -0.0359 -0.4529 -0.0437
37808W        W80902   8.679   6.688  20.546  0.3461 -0.1202  0.0968
37809W        W80903   7.786   4.204  20.390 -0.2831 -0.0352 -0.1844
37810W        W80904   7.075   4.529  20.861  0.0858 -0.0927  0.0852
37811W        W80905   8.637   5.797  21.668  0.0243 -0.0024 -0.1551
37812W        W80906  10.931   5.729  22.034  0.1724  0.1016  0.0324
37813W        W80907  10.887   5.456  21.632  0.0645  0.0683  0.3242
37814W        W80908   8.975   6.154  21.686 -0.3667  0.2116  0.2116
37815W        W80909   9.280   5.900  20.925 -0.3086 -0.2556  0.4150
37816W        W80910   9.939   4.567  23.885 -0.1235 -0.2816  0.0151
37817W        W80911   7.632   5.611  19.662  0.2459 -0.1436 -0.0620
37818W        W80912   5.945   8.499  20.394 -0.0202  0.1209 -0.2153
37819W        W80913   8.978   6.288  20.220  0.1617  0.0121  0.3561
37820W        W80914  11.915   6.515  20.815 -0.2807  0.1871 -0.3250
37821W        W80915   9.998   7.609  23.536 -0.1028  0.1910 -0.1881
37822W        W80916   8.509   8.960  23.685 -0.1132 -0.0447  0.2399
37823W        W80917   6.526   5.038  19.090  0.2280 -0.0247  0.2715
37824W        W80918   9.008   7.200  23.485  0.3195 -0.0055 -0.1074
37825W        W80919   8.203   8.284  21.807 -0.1168 -0.2820  0.1294
37826W        W80920   9.266   4.975  21.660  0.2933  0.4995 -0.3695
37827W        W80921   9.591   4.324  21.793  0.1301  0.1748  0.1771
37828W        W80922   8.231   6.500  20.402  0.3163 -0.1148 -0.3486
37829W        W80923   8.921   5.735  21.243  0.3402  0.0924 -0.1571
37830W        W80924   7.760   4.450  21.950  0.3910 -0.2967 -0.1501
37831W        W80925   8.023   7.233  22.760 -0.2106  0.0959 -0.0235
37832W        W80926  10.944   6.256  23.642  0.1241  0.1169 -0.2965
37833W        W80927   8.237   5.146  22.263 -0.0595  0.1176  0.1150
37834W        W80928  11.033   5.912  19.794 -0.0425 -0.2475  0.1692
37835W        W80929   9.217   4.367  18.812 -0.2226 -0.1160  0.1229
37836W        W80930  10.771   3.420  21.191 -0.0959 -0.2116 -0.0584
37837W        W80931   9.029   3.677  22.096 -0.0485  0.0571  0.2074
37838W        W80932   6.168   7.172  20.158  0.2517  0.2867 -0.1313
37839W        W80933   9.736   4.875  21.951  0.2292  0.0571 -0.1539
37840W        W80934   9.386   6.379  21.868 -0.1334  0.0779 -0.3854
37841W        W80935   9.841   5.352  20.435 -0.2294 -0.0177  0.1255
37842W        W80936   9.003   6.014  23.365  0.2642  0.4175 -0.3652
37843W        W80937   8.591   7.580  23.480 -0.0619 -0.4704  0.2984
37844W        W80938   7.292   4.061  22.236  0.0051  0.0112  0.1388
37845W        W80939  11.035   5.547  18.726 -0.0103 -0.2178 -0.2106
37846W        W80940  10.811   7.687  22.473  0.1895  0.1400  0.1663
37847W        W80941   8.405   6.284  19.936  0.0874  0.3244  0.2737
37848W        W80942   7.216   3.743  21.566  0.0574  0.1622 -0.1508
37849W        W80943   9.328   7.452  22.711 -0.1545 -0.2889  0.0915
37850W        W80944   9.081   4.826  25.194 -0.3619 -0.1318  0.1399
37851W        W80945   8.142   3.950  19.576 -0.1758 -0.0148  0.2632
37852W        W80946  11.594   6.574  22.712  0.1816 -0.0349 -0.1651
37853W        W80947   7.116   6.769  23.694 -0.1588  0.2506  0.4939
37854W        W80948   9.588   7.037  20.621 -0.1120 -0.0340 -0.0543
37855W        W80949   8.826   4.988  22.102  0.1965  0.0757 -0.0270
37856W        W80950  10.056   7.061  21.991 -0.1947  0.0369 -0.0093
37857W        W80951   9.797   6.381  18.979 -0.5835  0.3050  0.0417
37858W        W80952   9.425   2.191  21.456  0.0081 -0.2575  0.1183
37859W        W80953  10.080   4.300  22.026 -0.0432 -0.3065  0.0021
37860W        W80954   8.170   4.334  18.794  0.0377 -0.1807 -0.2559
37861W        W80955   8.527   5.083  20.092 -0.2354 -0.2188  0.0756
37862W        W80956  10.054   6.871  20.600 -0.0574 -0.0771  0.0699
37863W        W80957  11.074   4.434  19.492 -0.2086  0.5207 -0.0325
37864W        W80958   7.434   6.095  21.153 -0.3256  0.1088  0.1582
37865W        W80959   9.490   4.926  22.605 -0.2025 -0.3157  0.2775
37866W        W80960   8.572   6.081  22.117 -0.5387  0.2320 -0.0237
37867W        W80961   6.605   7.126  19.959  0.2216 -0.1228  0.0034
37868W        W80962   7.813   4.321  22.767 -0.1485  0.2336  0.1649
37869W        W80963   6.352   5.280  21.081 -0.1095 -0.0520  0.1272
37870W        W80964   8.163   4.173  23.804 -0.0711 -0.3510 -0.2084
37871W        W80965   7.868   5.372  22.498 -0.2389  0.0712 -0.0753
37872W        W80966  10.784   4.473  20.630  0.1194 -0.1524  0.1797
37873W        W80967   7.014   4.395  24.626 -0.2512 -0.0924  0.0587
37874W        W80968  10.925   4.258  21.417  0.1312 -0.0411 -0.4608
37875W        W80969   8.354   4.509  22.574  0.3509 -0.0828  0.2334
37876W        W80970  10.495   6.250  18.704 -0.0689  0.1388  0.3598
37877W        W80971  10.126   5.966  21.226  0.1432  0.2995  0.4408
37878W        W80972   9.140   6.744  19.878  0.1308 -0.1387 -0.0176
37879W        W80973   7.664   5.574  23.426  0.0538  0.0451 -0.0248
37880W        W80974   7.774   3.630  21.631  0.3268  0.0191 -0.1379
37881W        W80975   7.603   5.836  24.278  0.0482  0.1479 -0.1216
37882W        W80976   6.922   4.416  22.272  0.2129  0.1864  0.0182
37883W        W80977  10.633   6.076  21.303  0.1722 -0.1194 -0.0303
37884W        W80978   7.559   3.759  19.587 -0.0848 -0.2036  0.2320
37885W        W80979  10.294   4.042  23.032  0.0510 -0.3042 -0.0053
37886W        W80980   9.836   4.839  20.758  0.0186  0.1572  0.0884
37887W        W80981   7.244   6.586  21.310  0.0058 -0.0217 -0.1227
37888W        W80982  10.744   5.767  23.081 -0.1251  0.1288 -0.0201
37889W        W80983   8.999   5.993  19.457  0.1337  0.1117  0.0496
37890W        W80984   9.362   8.138  22.312 -0.2426 -0.1324 -0.1359
37891W        W80985  10.981   7.561  20.262  0.4520  0.0285  0.1932
37892W        W80986   8.629   6.969  22.195 -0.2416  0.1303  0.2671
37893W        W80987   8.382   3.761  19.999  0.1927 -0.3243 -0.1786
37894W        W80988   8.026   7.732  22.584 -0.0837 -0.0576 -0.3296
37895W        W80989   9.753   6.519  22.243 -0.3045 -0.1341  0.3079
37896W        W80990   8.354   3.326  20.553 -0.3586 -0.0715 -0.2008
37897W        W80991  10.103   7.434  21.676  0.0855  0.2290  0.2689
37898W        W80992  10.262   6.831  20.077 -0.3265  0.0895  0.1171
37899W        W80993   8.092   4.634  21.590 -0.2741  0.0307  0.3939
37900W        W80994   9.911   4.651  22.376  0.0494  0.1484 -0.1999
37901W        W80995  11.097   5.937  21.503 -0.2533 -0.4979  0.1580
37902W        W80996   9.572   5.265  22.919  0.0560  0.1281 -0.0673
37903W        W80997   8.100   4.751  20.144 -0.1267  0.4495  0.1281
37904W        W80998   9.000   7.193  21.887 -0.0510 -0.1283  0.0469
37905W        W80999   7.322   6.053  20.329 -0.0736 -0.1136  0.0075
37906W        W81000   7.407   4.833  21.041  0.2564 -0.0663 -0.2314
37907W        W81001   9.314   7.459  21.554 -0.0718  0.4054  0.2751
37908W        W81002  10.645   3.236  21.698 -0.1883  0.0342  0.0762
37909W        W81003   7.443   6.435  23.521 -0.2946 -0.0047 -0.1060
37910W        W81004  10.047   5.107  22.899  0.3379 -0.0323  0.3227
37911W        W81005   7.962   3.472  19.806 -0.0822  0.0187 -0.1512
37912W        W81006   7.847   6.254  22.704  0.0509  0.1191  0.0326
37913W        W81007   8.222   3.880  20.721 -0.4349 -0.1323 -0.0767
37914W        W81008  10.032   4.285  21.452 -0.0918  0.0165 -0.3085
37915W        W81009   8.809   6.321  24.338  0.1419 -0.0462  0.0740
37916W        W81010  10.326   5.328  20.223 -0.1752  0.3259 -0.2270
37917W        W81011   9.402   5.509  20.158 -0.1195 -0.0543  0.0274
37918W        W81012   8.725   4.442  18.781 -0.0480  0.0357  0.2727
37919W        W81013   6.250   5.686  22.223  0.4400  0.4257 -0.1632
37920W        W81014  10.145   6.079  19.658 -0.2487  0.1991  0.1278
37921W        W81015   8.381   4.974  21.299 -0.1444 -0.3600 -0.1308
37922W        W81016   9.222   3.314  21.563 -0.0368 -0.2357  0.3186
37923W        W81017  10.020   6.869  18.066 -0.2188  0.3213  0.2428
37924W        W81018   6.791   4.676  21.749  0.0145 -0.0660 -0.3202
37925W        W81019   9.807   5.113  23.369  0.1055 -0.1988  0.1652
37926W        W81020   9.924   7.175  20.212  0.1990 -0.0808 -0.1196
37927W        W81021   8.284   3.491  21.512 -0.1423 -0.0642  0.3721
37928W        W81022   8.725   5.295  19.022  0.1240  0.0704 -0.1268
37929W        W81023   9.138   5.090  21.163  0.0420  0.2127  0.1006
37930W        W81024   6.883   5.768  18.965 -0.1313  0.1715 -0.7547
37931W        W81025  10.499   4.254  21.708  0.0085 -0.1554  0.0559
37932W        W81026  10.220   4.728  21.668  0.0694 -0.2142 -0.0918
37933W        W81027   8.625   4.271  23.484 -0.0242 -0.2731 -0.0212
37934W        W81028  10.983   5.685  22.585 -0.2038  0.1552  0.2526
37935W        W81029  10.118   7.028  19.614 -0.0540 -0.4252 -0.0587
37936W        W81030   8.768   4.527  21.145  0.2232  0.1762  0.2253
37937W        W81031   8.851   4.656  17.946  0.1731 -0.1290 -0.2203
37938W        W81032  10.466   5.510  21.950 -0.0176 -0.1783  0.0957
37939W        W81033   7.202   4.418  23.466 -0.2725  0.2785  0.4462
37940W        W81034   8.851   6.168  22.572  0.1002  0.2816 -0.2910
37941W        W81035  10.252   6.426  21.409  0.0627 -0.2396 -0.0875
37942W        W81036   9.050   5.447  19.436 -0.2219 -0.2273 -0.0905
37943W        W81037   8.917   2.994  23.107 -0.1059 -0.0724  0.2875
37944W        W81038   8.996   4.465  20.639  0.1580  0.1048  0.0098
37945W        W81039   8.040   6.626  21.761  0.2425 -0.1484  0.2066
37946W        W81040   9.091   5.803  19.946  0.0541 -0.1871  0.0411
37947W        W81041   8.826   4.258  22.887  0.2268  0.3134  0.0013
37948W        W81042   9.285   6.825  22.055  0.0420 -0.3451  0.0096
37949W        W81043   6.958   5.758  19.653 -0.3633  0.3356  0.0774
37950W        W81044   8.901   6.519  22.067  0.0534  0.0891  0.1561
37951W        W81045   7.138   5.554  20.617  0.0816 -0.0956  0.0503
37952W        W81046   9.800   6.208  21.645 -0.0862  0.3023  0.0382
37953W        W81047   6.748   5.419  19.942 -0.0283  0.2336  0.1542
37954W        W81048   7.395   4.109  19.226  0.1792 -0.0283 -0.0411
37955W        W81049   8.367   4.392  19.352  0.1351 -0.1052 -0.0319
37956W        W81050  10.709   5.013  21.858 -0.1632  0.0944 -0.1619
37957W        W81051  10.185   6.915  21.512  0.1172 -0.1328 -0.3548
37958W        W81052   8.152   3.423  22.631 -0.3684  0.2914  0.0089
37959W        W81053   8.315   4.325  23.050 -0.0121  0.0671 -0.0234
37960W        W81054   7.899   5.921  22.305  0.0475 -0.1132 -0.2690
37961W        W81055  11.155   6.082  20.960 -0.2155  0.1908  0.1369
37962W        W81056   9.311   4.287  20.185  0.3283 -0.0067 -0.2668
37963W        W81057   9.981   6.109  23.182 -0.0402  0.2643 -0.2549
37964W        W81058   9.723   6.490  23.251 -0.0042 -0.3638 -0.0638
37965W        W81059   7.377   3.985  20.140  0.0271  0.0588  0.0696
37966W        W81060  11.753   4.865  21.585 -0.0051  0.1430 -0.1973
37967W        W81061   8.424   2.476  21.219  0.0995 -0.2313 -0.0369
37968W        W81062   7.559   5.715  22.891 -0.3311  0.0513 -0.0187
37969W        W81063   9.765   7.261  22.433 -0.0464 -0.0120 -0.2611
37970W        W81064   9.614   5.172  21.075  0.0121  0.0306  0.2247
37971W        W81065   8.913   5.444  20.864 -0.0855 -0.0173 -0.0219
37972W        W81066   7.883   5.534  21.950  0.0765  0.0260  0.1665
37973W        W81067   8.865   5.317  21.689 -0.0331  0.1996 -0.0202
37974W        W81068   9.047   4.071  21.158  0.0733 -0.0251 -0.0803
37975W        W81069   7.938   4.799  21.040  0.0048 -0.0903 -0.0579
37976W        W81070   9.455   5.574  22.404  0.1226  0.0897 -0.3321
37977W        W81071   9.749   6.705  21.764  0.1678 -0.0609 -0.0398
37978W        W81072   9.823   5.417  21.959  0.0897  0.1991  0.0531
37979W        W81073   8.162   5.841  25.039  0.3091  0.0473 -0.0700
37980W        W81074   8.160   3.995  21.510 -0.1670  0.1653  0.0137
37981W        W81075  11.931   7.872  18.654  0.1419 -0.1552 -0.0885
37982W        W81076   9.554   7.188  23.052 -0.0952  0.2991 -0.1760
37983W        W81077   7.041   4.245  18.559 -0.1051  0.1484 -0.0114
37984W        W81078   5.354   4.994  20.689  0.1326 -0.0344 -0.1402
37985W        W81079   7.947   6.322  21.280  0.0462 -0.1195 -0.3332
37986W        W81080   7.693   5.363  20.537 -0.1422  0.0816  0.2499
37987W        W81081   8.561   4.992  22.604  0.6457  0.2827  0.0404
37988W        W81082   8.114   5.193  19.241  0.0627 -0.0939 -0.0054
37989W        W81083   8.873   8.048  23.026  0.0547 -0.0542 -0.4204
37990W        W81084   8.977   2.624  20.391 -0.0097 -0.1616  0.1505
37991W        W81085   9.889   5.604  19.477 -0.0896  0.1907 -0.0881
37992W        W81086  10.222   5.063  22.040 -0.0593 -0.2930  0.6336
37993W        W81087  11.057   6.391  21.343 -0.0157 -0.3576  0.0274
37994W        W81088   9.589   5.848  19.837  0.0317  0.0030 -0.0795
37995W        W81089   9.791   2.909  24.090 -0.1910 -0.0135  0.1456
37996W        W81090   9.239   4.594  22.048 -0.1641  0.0515  0.3219
37997W        W81091   9.715   5.688  21.544 -0.1463  0.0325  0.1420
37998W        W81092   7.723   2.965  21.136 -0.2668 -0.0137  0.0661
37999W        W81093   9.745   8.969  23.486  0.1702  0.0630 -0.0962
38000W        W81094   7.137   5.079  22.970  0.0054 -0.2484 -0.2882
38001W        W81095   9.276   4.877  20.762  0.1485 -0.1442 -0.0833
38002W        W81096   8.736   3.147  18.784 -0.0125 -0.2463 -0.1632
38003W        W81097   8.564   5.530  22.606 -0.0691  0.2173  0.0750
38004W        W81098  10.028   4.814  20.248  0.1339  0.0305  0.0169
38005W        W81099   7.632   5.255  19.290 -0.3907 -0.1804 -0.0969
38006W        W81100   9.898   4.224  22.659 -0.1444  0.0883 -0.0087
38007W        W81101   8.047   3.976  22.010 -0.0532 -0.1776 -0.0150
38008W        W81102  10.018   7.393  20.697  0.1522  0.1421  0.0281
38009W        W81103   8.999   5.726  20.446  0.0766 -0.1186  0.2336
38010W        W81104   8.041   6.042  21.772  0.0086  0.0207 -0.1773
38011W        W81105   8.138   5.182  20.774  0.0592  0.2713 -0.0419
38012W        W81106   9.317   5.929  21.444  0.2743  0.2267 -0.2222
38013W        W81107   9.791   5.148  21.539 -0.0301 -0.1789 -0.0243
38014W        W81108   9.363   3.809  21.692 -0.0296  0.2451  0.0455
38015W        W81109  10.640   3.856  23.753  0.0724  0.0684  0.1004
38016W        W81110   9.293   5.025  23.171  0.0576  0.1426  0.1151
38017W        W81111   7.475   4.511  24.353 -0.0529 -0.2038  0.3230
38018W        W81112  10.259   7.291  22.426 -0.3155  0.1136  0.2281
38019W        W81113  10.652   4.681  21.407  0.2274 -0.0975  0.0472
38020W        W81114  10.442   5.641  21.470  0.1427  0.1261 -0.1402
38021W        W81115  10.539   6.077  21.827  0.3002  0.0012 -0.1632
38022W        W81116  10.550   4.846  20.446 -0.0880 -0.3980  0.2380
38023W        W81117   8.730   4.830  21.602 -0.2257  0.2533 -0.1883
38024W        W81118  11.089   5.990  23.295  0.0544 -0.2112  0.1059
38025W        W81119   9.497   5.005  20.300  0.0096  0.2750  0.0147
38026W        W81120   9.459   4.386  22.472 -0.1270  0.0850  0.0431
38027W        W81121  10.414   7.431  19.529 -0.1007 -0.0834  0.1195
38028W        W81122  10.921   6.469  19.177 -0.1116 -0.0665  0.0620
38029W        W81123   9.570   4.118  21.367 -0.0570  0.1870  0.0549
38030W        W81124   6.317   4.331  20.686 -0.1947 -0.0639 -0.2095
38031W        W81125   9.477   6.977  23.496 -0.2306  0.1805  0.1489
38032W        W81126   7.225   2.670  19.707 -0.0380 -0.0633  0.1750
38033W        W81127   8.073   4.462  20.715 -0.0729  0.2326  0.1014
38034W        W81128   9.050   5.316  22.615  0.0036 -0.0254 -0.0367
38035W        W81129   9.877   6.845  22.862 -0.0099  0.2779 -0.0067
38036W        W81130   9.213   2.519  20.914 -0.0386  0.0841  0.1800
38037W        W81131  11.196   5.502  23.120  0.0489 -0.5729  0.3419
38038W        W81132   7.890   5.802  21.250  0.1028  0.1982  0.1820
38039W        W81133   9.857   3.844  21.046 -0.0073 -0.1405  0.1066
38040W        W81134   7.368   5.556  22.420  0.2834  0.2016  0.3399
38041W        W81135   7.037   5.894  22.772 -0.0337  0.0702  0.1610
38042W        W81136   8.012   5.621  23.095 -0.1790  0.3618 -0.0333
38043W        W81137   9.521   4.615  23.402 -0.3519  0.1153  0.3056
38044W        W81138  12.284   5.323  22.000 -0.0286  0.0258  0.0271
38045W        W81139   9.673   5.957  22.068 -0.0260  0.3527  0.0836
38046W        W81140  11.034   4.498  23.239 -0.2034 -0.1023  0.1025
38047W        W81141  10.158   7.288  24.300 -0.2048 -0.1537  0.0615
38048W        W81142   8.852   5.516  22.191  0.0648  0.2875  0.4046
38049W        W81143   9.349   6.710  22.982  0.1098 -0.0632 -0.0697
38050W        W81144  12.876   4.151  20.951  0.3321 -0.2661 -0.2608
38051W        W81145   8.490   6.358  20.951 -0.2404  0.2389 -0.1787
38052W        W81146   6.494   4.720  22.315 -0.0129  0.0950 -0.0733
38053W        W81147  10.877   6.199  22.846  0.1846  0.0953 -0.0274
38054W        W81148   9.104   5.932  22.205  0.2293 -0.2368 -0.1578
38055W        W81149   7.804   3.754  20.959 -0.1273 -0.2862 -0.3331
38056W        W81150   8.789   4.895  19.661  0.1880 -0.1935  0.3738
38057W        W81151   8.835   7.271  23.966  0.1241 -0.1826 -0.0226
38058W        W81152   7.873   6.720  22.485  0.3625  0.0175  0.0479
38059W        W81153   6.810   6.304  21.306 -0.2864  0.3224  0.1463
38060W        W81154  10.626   7.011  19.371 -0.3911 -0.0220 -0.3205
38061W        W81155   9.993   5.726  20.047 -0.1918  0.1832 -0.1082
38062W        W81156   9.833   7.597  22.068 -0.3551 -0.0535  0.0476
38063W        W81157   8.930   5.173  20.420  0.2745  0.2064 -0.3179
38064W        W81158   7.641   6.372  22.126 -0.0269 -0.1663 -0.1181
38065W        W81159   7.073   5.200  20.929  0.1343 -0.0751 -0.2491
38066W        W81160  10.301   6.178  19.153 -0.5435  0.0202 -0.4631
38067W        W81161   7.826   6.678  20.812  0.2179  0.0229 -0.0480
38068W        W81162   9.977   6.983  23.364  0.1440 -0.1914  0.0260
38069W        W81163   9.684   3.098  19.782 -0.0309  0.2108  0.2674
38070W        W81164  11.055   4.954  21.515  0.2509 -0.0085  0.1974
38071W        W81165  11.004   6.894  21.339 -0.1977  0.0055  0.3920
38072W        W81166   8.919   8.968  23.199  0.3454  0.2577 -0.2648
38073W        W81167  10.397   6.350  20.134 -0.0527 -0.0798  0.0614
38074W        W81168  10.555   4.576  19.370 -0.1827 -0.1384  0.1963
38075W        W81169   8.797   5.210  23.077 -0.1687 -0.0427  0.3609
38076W        W81170  10.997   4.367  23.810  0.0829  0.3141 -0.1107
38077W        W81171   7.652   7.686  23.805 -0.1589 -0.0375  0.1882
38078W        W81172  10.730   7.371  21.131 -0.0975  0.0151 -0.1206
38079W        W81173   7.856   4.278  19.302 -0.3814 -0.1775  0.0118
38080W        W81174   8.308   6.121  22.593 -0.0770 -0.0596  0.2161
38081W        W81175   9.926   3.797  22.341 -0.2195  0.2186 -0.1935
38082W        W81176   9.309   6.668  20.349  0.3674  0.0741  0.1435
38083W        W81177  10.497   6.120  23.363  0.0238  0.1164 -0.0203
38084W        W81178   7.401   6.865  20.924 -0.0337  0.0428 -0.0917
38085W        W81179   7.492   6.895  21.753  0.1507 -0.2639  0.0953
38086W        W81180   8.770   6.806  21.035  0.0231  0.3355 -0.0141
38087W        W81181   8.285   4.375  21.172  0.0801  0.2067 -0.3053
38088W        W81182  11.338   5.682  21.202 -0.4584  0.2379  0.0821
38089W        W81183   9.311   4.468  22.935  0.2002  0.1299  0.3744
38090W        W81184  10.676   2.746  22.262  0.1865  0.1241  0.1349
38091W        W81185   8.619   3.781  20.481  0.1569 -0.2429  0.0189
38092W        W81186   9.690   5.642  20.962  0.0650 -0.1751  0.1032
38093W        W81187  10.339   7.366  23.278 -0.0732  0.1939  0.1047
38094W        W81188   8.217   5.942  23.461  0.0340 -0.0939  0.0240
38095W        W81189   8.517   5.465  20.498  0.1593 -0.4340  0.0463
38096W        W81190  11.525   5.524  22.789  0.0533 -0.1714  0.2341
38097W        W81191   9.003   5.243  19.895 -0.2240 -0.0813  0.0035
38098W        W81192   9.653   8.021  23.813 -0.0900  0.2415 -0.1408
38099W        W81193   7.348   3.393  21.069 -0.2184  0.1306  0.1090
38100W        W81194   9.557   4.433  20.603 -0.0345 -0.1270  0.2192
38101W        W81195   7.872   3.968  19.992 -0.1092 -0.2891  0.0876
38102W        W81196   9.905   5.622  22.751 -0.2116 -0.0052 -0.3436
38103W        W81197  10.488   7.791  23.425  0.0598 -0.1265 -0.0264
38104W        W81198   7.044   3.625  20.347  0.2552 -0.0027  0.2977
38105W        W81199  10.379   5.681  19.394 -0.2950  0.1114 -0.2621
38106W        W81200  10.129   6.763  22.430  0.1172 -0.0773  0.0945
38107W        W81201   7.547   6.861  18.674 -0.2415 -0.0083  0.2899
38108W        W81202  10.695   5.373  20.565  0.0209  0.1678  0.0007
38109W        W81203  10.562   6.660  19.715  0.2022  0.2841  0.0452
38110W        W81204   7.147   3.291  22.267  0.5476 -0.0010 -0.2699
38111W        W81205  10.486   8.545  22.545 -0.0716  0.1136 -0.0309
38112W        W81206   9.538   7.976  21.905  0.2413 -0.5142 -0.3117
38113W        W81207   9.171   3.515  22.953 -0.1388 -0.2374  0.0734
38114W        W81208   6.155   5.147  22.157 -0.0069 -0.1392 -0.2002
38115W        W81209   7.043   5.777  21.231  0.1089 -0.0285  0.2124
38116W        W81210  10.976   4.498  21.889 -0.3067 -0.1617 -0.0054
38117W        W81211  11.062   6.175  22.343 -0.1107  0.0034  0.1010
38118W        W81212   7.916   6.233  19.848  0.1077 -0.2019 -0.0789
38119W        W81213   9.812   4.021  23.173  0.0835 -0.1801  0.0414
38120W        W81214   9.613   6.087  23.511 -0.1465  0.2154 -0.1914
38121W        W81215   8.427   8.226  24.012  0.4234  0.1978  0.0232
38122W        W81216   7.754   4.836  20.547  0.1434  0.2032 -0.3416
38123W        W81217   8.348   5.224  21.780 -0.1425  0.0062  0.2462
38124W        W81218   8.913   6.713  22.605 -0.0507  0.4398  0.2305
38125W        W81219   9.461   7.543  20.624  0.1194  0.1479  0.1747
38126W        W81220  10.260   5.660  20.794 -0.4723  0.3713 -0.1978
38127W        W81221   8.794   4.193  20.186  0.0633 -0.2092  0.0546
38128W        W81222  11.219   7.167  22.297  0.0370 -0.3737  0.1348
38129W        W81223   8.303   3.914  23.378  0.0009  0.1828 -0.1215
38130W        W81224  10.115   6.184  20.585 -0.1143 -0.3773  0.0175
38131W        W81225   9.691   4.645  21.412 -0.0459 -0.1691 -0.2807
38132W        W81226   9.229   6.520  23.453  0.3759 -0.3649  0.1652
38133W        W81227   6.316   3.870  18.293 -0.5106  0.1200 -0.1610
38134W        W81228   8.268   6.001  19.566 -0.0676  0.1430  0.0017
38135W        W81229   7.143   5.670  20.103  0.3056 -0.4161 -0.2194
38136W        W81230   8.662   4.970  23.532 -0.2231 -0.2831 -0.0233
38137W        W81231   7.751   3.645  22.405  0.0428  0.1766  0.2532
38138W        W81232   8.323   5.481  21.347 -0.2734  0.0838  0.0053
38139W        W81233   7.589   3.269  19.506  0.1450 -0.1405 -0.1878
38140W        W81234  10.499   5.754  18.880  0.0084  0.2253  0.0681
38141W        W81235   7.433   3.630  22.011  0.1565 -0.3049 -0.0020
38142W        W81236   7.037   4.481  19.989 -0.0670 -0.0874  0.1168
38143W        W81237  10.430   5.162  21.473  0.2126 -0.0374  0.2825
38144W        W81238  10.593   6.748  18.920  0.0517 -0.1324  0.1242
38145W        W81239   8.500   3.935  21.120 -0.1255 -0.3162 -0.3769
38146W        W81240   9.285   5.769  23.739 -0.0630 -0.0631 -0.2564
38147W        W81241   7.676   4.321  18.879 -0.0358  0.0754  0.1469
38148W        W81242  10.022   3.217  23.713 -0.0666  0.1397 -0.1244
38149W        W81243   9.189   4.252  23.402  0.0669  0.1713 -0.1707
38150W        W81244   7.525   4.293  19.714 -0.1615  0.1643  0.0550
38151W        W81245   8.332   4.693  22.017  0.0256 -0.1494  0.0238
38152W        W81246   9.679   6.411  20.663 -0.2056  0.1558  0.3352
38153W        W81247   9.806   7.001  19.250 -0.1252 -0.3421 -0.3325
38154W        W81248   7.858   5.004  21.831 -0.2262  0.0469 -0.0640
38155W        W81249   9.336   7.998  22.842 -0.0126 -0.0133 -0.0038
38156W        W81250   7.408   2.994  23.785  0.0071 -0.1559 -0.2821
38157W        W81251  10.844   7.190  20.621 -0.1327 -0.0413  0.2544
38158W        W81252   9.251   7.609  22.224 -0.1646 -0.0293  0.2907
38159W        W81253  10.942   6.481  18.625 -0.0069  0.0038 -0.1159
38160W        W81254  10.304   2.592  21.459  0.0834  0.0036  0.0665
38161W        W81255  10.511   5.827  19.866 -0.2052  0.3179 -0.1631
38162W        W81256   8.757   3.598  24.912 -0.0385  0.0813 -0.1466
38163W        W81257   9.772   6.220  24.073  0.3171 -0.2378  0.0999
38164W        W81258  11.061   6.294  21.827  0.0035  0.1580  0.0002
38165W        W81259   7.954   3.545  20.318  0.0218 -0.2201  0.2085
38166W        W81260  11.149   5.239  22.596  0.2092 -0.0352 -0.1108
38167W        W81261   9.204   8.974  19.426  0.0250 -0.0256 -0.2257
38168W        W81262   8.488   4.200  22.201  0.1138 -0.1721  0.1968
38169W        W81263   8.993   4.472  19.784  0.0356 -0.0653 -0.3045
38170W        W81264   8.113   5.515  19.796 -0.2500  0.3496 -0.2688
38171W        W81265   9.450   6.158  22.997 -0.0143 -0.1146  0.2967
38172W        W81266   9.052   5.829  22.860  0.1442 -0.2479  0.2275
38173W        W81267   8.096   4.432  19.783 -0.3514 -0.0081  0.1496
38174W        W81268  11.213   5.385  19.262 -0.1532 -0.1072  0.2812
38175W        W81269   9.800   8.194  23.078  0.1257  0.1995  0.0238
38176W        W81270   9.908   6.345  22.684  0.0245 -0.0792 -0.0898
38177W        W81271   7.692   5.089  23.042 -0.0760  0.1504  0.1195
38178W        W81272  11.806   6.224  21.681  0.1988 -0.0317 -0.2522
38179W        W81273   7.413   2.574  23.379  0.0801  0.1077  0.0989
38180W        W81274   8.020   5.650  20.746 -0.0246  0.0086  0.0894
38181W        W81275   8.600   5.741  19.892  0.1304  0.3458 -0.0575
38182W        W81276  11.150   2.984  23.011 -0.1127 -0.0822  0.1632
38183W        W81277   7.341   2.880  22.560 -0.0893 -0.4288  0.1916
38184W        W81278   9.153   3.998  20.614  0.3308 -0.2206  0.1065
38185W        W81279  10.093   6.115  23.713 -0.1383  0.3003 -0.0969
38186W        W81280   9.359   6.997  21.469 -0.2583 -0.0436  0.0152
38187W        W81281   8.699   8.394  24.660 -0.1315 -0.0233  0.1174
38188W        W81282   8.536   4.759  23.120  0.2029 -0.2589  0.1255
38189W        W81283   9.946   5.618  23.350  0.0332  0.0575  0.0419
38190W        W81284   9.953   5.171  23.981 -0.2247 -0.1914  0.1717
38191W        W81285   8.041   5.636  23.879 -0.0240  0.3083 -0.1470
38192W        W81286   9.681   7.067  26.110  0.0454  0.1770 -0.2131
38193W        W81287   8.946   2.900  27.609  0.1331 -0.2287 -0.1264
38194W        W81288   9.089   7.246  24.934  0.0019 -0.1728 -0.3304
38195W        W81289  10.352   7.455  26.107  0.1370 -0.0311  0.1941
38196W        W81290   9.764   4.702  22.950 -0.2493 -0.1083  0.1707
38197W        W81291   9.580   3.916  24.537 -0.2943 -0.0387 -0.1198
38198W        W81292   8.327   6.501  24.552 -0.0499  0.1493 -0.0069
38199W        W81293   8.904   2.725  26.131 -0.0694 -0.2433 -0.0609
38200W        W81294   8.020   4.692  26.346  0.2480  0.2314 -0.1101
38201W        W81295  11.128   4.816  26.176 -0.2085 -0.1602 -0.0930
38202W        W81296   9.111   4.892  23.774  0.0417  0.4495 -0.1533
38203W        W81297   8.393   4.793  25.878  0.1105  0.2084  0.0395
38204W        W81298   8.008   5.441  24.412  0.0234  0.0010  0.1571
38205W        W81299  10.081   7.636  24.726  0.1056  0.2332  0.2219
38206W        W81300   7.475   4.802  26.152  0.0675 -0.1403 -0.1134
38207W        W81301  10.219   4.773  26.448 -0.0856 -0.1749 -0.3005
38208W        W81302  10.224   6.552  23.203  0.1330  0.4377 -0.0969
38209W        W81303   7.955   4.717  23.815 -0.0867  0.1048 -0.0067
38210W        W81304   8.717   6.164  25.700 -0.0392  0.1171  0.3224
38211W        W81305   8.028   5.134  26.587 -0.2018 -0.0319 -0.0257
38212W        W81306  10.413   4.583  25.830 -0.1339  0.2128 -0.2917
38213W        W81307  10.236   5.578  26.049 -0.1770 -0.0021 -0.2107
38214W        W81308   8.977   5.879  26.163 -0.1111 -0.1257  0.1255
38215W        W81309   8.899   7.929  25.751  0.1431 -0.0259  0.1357
38216W        W81310   9.803   5.607  27.262 -0.0817  0.2808 -0.1473
38217W        W81311   8.119   6.702  23.541 -0.0050  0.1210 -0.0508
38218W        W81312   9.139   8.031  26.261 -0.0663 -0.4196 -0.0550
38219W        W81313   7.897   6.306  23.732  0.2240  0.3638 -0.0912
38220W        W81314  11.633   7.049  23.636  0.1615 -0.0149  0.2374
38221W        W81315  11.979   5.778  27.556  0.1273 -0.0939  0.2981
38222W        W81316  10.436   8.453  26.941 -0.1140  0.1594  0.0468
38223W        W81317   8.038   4.719  23.203  0.6056 -0.1835  0.0323
38224W        W81318   8.922   6.715  26.793 -0.0720  0.4208 -0.0264
38225W        W81319   7.939   6.981  27.236  0.0597 -0.0068  0.0306
38226W        W81320  10.852   4.004  25.555  0.0306  0.1882 -0.0895
38227W        W81321   9.048   5.325  24.485  0.1014  0.2202 -0.1702
38228W        W81322   8.087   7.402  23.532 -0.3164 -0.0729  0.0249
38229W        W81323  10.100   6.028  24.451  0.1143 -0.1280  0.2630
38230W        W81324   9.037   7.778  28.236  0.1503 -0.4818  0.1406
38231W        W81325   9.152   6.958  26.090  0.0196  0.0761 -0.2124
38232W        W81326  10.883   3.285  26.573 -0.3575 -0.1436 -0.2845
38233W        W81327   8.258   6.664  24.053  0.0092 -0.0673 -0.0638
38234W        W81328   9.425   4.364  23.940  0.0581  0.1165  0.3014
38235W        W81329   9.184   3.329  23.420 -0.0014 -0.0916 -0.1177
38236W        W81330  11.228   4.794  23.586 -0.0275  0.0703  0.1864
38237W        W81331   7.747   1.884  26.411  0.0838 -0.4438 -0.0260
38238W        W81332   7.154   7.773  25.105 -0.1085  0.0557  0.0919
38239W        W81333   9.000   3.671  26.347  0.5356 -0.0761  0.4703
38240W        W81334  10.812   6.325  27.668 -0.1610 -0.1160 -0.2304
38241W        W81335   8.647   6.065  24.727 -0.1292 -0.1649 -0.1326
38242W        W81336   9.687   5.835  26.217 -0.2892  0.1688 -0.0168
38243W        W81337   6.937   7.426  26.258  0.0364 -0.0536 -0.0515
38244W        W81338   8.153   5.190  26.083  0.0174 -0.0345 -0.0333
38245W        W81339  10.967   6.950  24.347  0.2188  0.1730  0.1291
38246W        W81340  11.406   5.838  25.259  0.2614 -0.1314  0.0285
38247W        W81341   8.805   8.103  24.290 -0.1899 -0.3182  0.0090
38248W        W81342   8.721   5.786  23.809  0.1162 -0.1405 -0.1570
38249W        W81343   6.506   4.984  27.538  0.0442 -0.1489  0.1459
38250W        W81344   6.769   5.419  26.729 -0.0545  0.0892 -0.1445
38251W        W81345   8.984   2.891  23.693 -0.2465  0.2513  0.0886
38252W        W81346  10.466   5.708  29.447 -0.2590 -0.1151  0.0480
38253W        W81347   7.769   7.981  26.310  0.3167 -0.0895  0.1154
38254W        W81348  10.670   4.760  23.665 -0.1588  0.0075 -0.1898
38255W        W81349   8.660   5.781  25.194  0.0211  0.2035 -0.1358
38256W        W81350   9.419   6.308  24.943  0.0609 -0.2836  0.0423
38257W        W81351  10.889   5.674  23.673  0.2229  0.1481  0.1264
38258W        W81352   9.592   4.262  24.943 -0.0557 -0.1737 -0.2667
38259W        W81353  10.371   4.079  26.784 -0.0332  0.0830  0.1428
38260W        W81354   8.339   7.196  23.170  0.0366 -0.0585 -0.0871
38261W        W81355   9.003   5.368  23.527  0.1050 -0.1197 -0.0691
38262W        W81356  11.623   6.147  26.812  0.2910 -0.0341 -0.1703
38263W        W81357  11.214   6.520  23.055  0.0265  0.1020 -0.0850
38264W        W81358   8.186   6.448  25.693  0.1720  0.2351  0.2185
38265W        W81359  10.755   4.621  26.472 -0.1030 -0.1408 -0.2029
38266W        W81360   8.277   6.078  26.031 -0.1000 -0.1567 -0.4519
38267W        W81361   7.404   8.291  24.251 -0.0809 -0.1662  0.0800
38268W        W81362   7.101   6.577  25.633  0.0524  0.0852  0.2321
38269W        W81363   7.336   6.256  24.258 -0.4333  0.2440 -0.1293
38270W        W81364   8.459   5.403  25.508 -0.4079 -0.1135 -0.0006
38271W        W81365   8.731   7.083  25.851  0.1542 -0.1852  0.3159
38272W        W81366   9.635   4.426  25.581  0.2221 -0.0729  0.3476
38273W        W81367   9.414   3.353  27.561 -0.0958 -0.1097  0.1068
38274W        W81368  11.510   3.326  25.144 -0.4079  0.1912 -0.1203
38275W        W81369   7.358   5.436  24.577 -0.1043 -0.0122 -0.2058
38276W        W81370  10.346   7.721  23.958  0.0074 -0.1337  0.0686
38277W        W81371   9.850   5.709  23.849 -0.1431 -0.0856 -0.0669
38278W        W81372   9.370   7.729  24.174  0.1358  0.1628 -0.0277
38279W        W81373   8.134   5.149  27.080 -0.0408  0.0261  0.1708
38280W        W81374   8.865   3.808  25.325  0.3047  0.2949  0.0334
38281W        W81375   8.901   4.535  26.853 -0.0186 -0.0826  0.1416
38282W        W81376   7.630   4.245  26.284  0.0222  0.0102 -0.3523
38283W        W81377  10.710   5.144  26.141 -0.3561  0.0981 -0.0789
38284W        W81378   8.503   3.462  25.675 -0.0272  0.0234 -0.2967
38285W        W81379  10.411   4.339  26.333 -0.1273  0.2695 -0.3728
38286W        W81380   9.910   5.578  24.323  0.1466  0.1456 -0.1967
38287W        W81381   7.581   6.648  23.120 -0.2434 -0.1649 -0.0915
38288W        W81382  10.609   3.735  27.415 -0.0915 -0.0933  0.2238
38289W        W81383   8.589   7.116  22.732  0.1574 -0.2152 -0.1598
38290W        W81384  10.029   7.672  27.518 -0.2757  0.0694  0.2743
38291W        W81385  10.948   7.262  25.113  0.0094  0.2221 -0.2398
38292W        W81386   7.979   4.409  26.843 -0.2131  0.0017 -0.0335
38293W        W81387   7.191   3.929  23.909  0.2923 -0.0066 -0.1595
38294W        W81388   7.798   7.498  27.138  0.1674  0.1569 -0.1020
38295W        W81389  10.229   7.036  25.548 -0.1629 -0.0621  0.0027
38296W        W81390   7.945   5.368  25.480  0.0230 -0.3109  0.0410
38297W        W81391  10.259   6.322  25.604  0.1043  0.2816 -0.0446
38298W        W81392   8.440   5.411  24.852 -0.2523  0.0603  0.1527
38299W        W81393   7.361   6.766  26.647 -0.4143 -0.2570 -0.0278
38300W        W81394   9.416   5.316  27.194  0.1474 -0.0427  0.0376
38301W        W81395  11.382   5.950  27.222 -0.0886 -0.2896 -0.1725
38302W        W81396  10.349   5.492  24.706 -0.0685 -0.1165 -0.0306
38303W        W81397   7.963   4.624  24.317  0.1971  0.2164 -0.1637
38304W        W81398  10.144   6.670  25.173 -0.5992  0.0622 -0.0630
38305W        W81399   7.675   7.057  23.523 -0.2217 -0.2021  0.0704
38306W        W81400   7.107   5.772  24.126  0.1811  0.2306 -0.0151
38307W        W81401   8.826   7.622  24.376 -0.0821 -0.0656 -0.0833
38308W        W81402  10.239   3.570  25.938  0.2368  0.0745  0.1553
38309W        W81403   8.538   4.933  26.355 -0.0309 -0.2800 -0.2697
38310W        W81404  10.154   6.205  26.568 -0.1508 -0.0018 -0.5329
38311W        W81405   8.948   4.573  24.210 -0.2802 -0.1437 -0.0125
38312W        W81406   6.354   4.175  26.807 -0.1804 -0.0889  0.2069
38313W        W81407   9.445   3.737  25.892  0.1027  0.0146 -0.0437
38314W        W81408  11.545   3.318  23.623  0.2756  0.0987 -0.0363
38315W        W81409   8.601   5.715  25.877 -0.0066  0.0060 -0.2527
38316W        W81410   9.027   4.836  22.809  0.0291  0.0904 -0.1800
38317W        W81411  10.379   5.696  23.691  0.0547  0.0861  0.0744
38318W        W81412   9.435   3.842  24.049  0.1763  0.0580 -0.5106
38319W        W81413   8.592   5.896  26.540  0.1161  0.0140 -0.0052
38320W        W81414   9.490   5.835  24.231 -0.4022 -0.2243  0.0357
38321W        W81415   8.719   6.628  25.525  0.1048  0.1650  0.0587
38322W        W81416   9.732   5.122  24.418  0.1210 -0.2316 -0.4303
38323W        W81417  10.603   5.926  25.044 -0.2972  0.1599  0.2044
38324W        W81418   8.019   6.979  24.462  0.1872  0.1547 -0.1117
38325W        W81419   9.084   6.999  27.265  0.0036  0.0403 -0.0843
38326W        W81420  11.069   6.476  25.888  0.3795 -0.0146  0.0774
38327W        W81421   9.505   5.888  26.731 -0.0955 -0.1127 -0.2962
38328W        W81422   7.862   6.401  24.233  0.0709  0.0652 -0.3139
38329W        W81423   8.607   4.495  26.362  0.0885 -0.1430  0.0954
38330W        W81424   8.831   8.569  23.814 -0.1045  0.1096  0.0073
38331W        W81425  10.534   3.563  26.295 -0.0906 -0.0719 -0.1799
38332W        W81426   9.949   3.806  25.054 -0.2473  0.1263  0.0133
38333W        W81427   9.893   4.200  26.400  0.0059 -0.1934  0.0287
38334W        W81428  10.457   5.806  26.450  0.0285  0.0254  0.1943
38335W        W81429  10.475   5.335  23.336  0.1113  0.2301  0.1831
38336W        W81430   9.490   5.352  25.397  0.0182  0.2227  0.0402
38337W        W81431   9.468   5.247  23.690 -0.2253  0.1266  0.0697
38338W        W81432   8.764   4.386  25.616  0.1128  0.0715  0.0498
38339W        W81433   8.569   7.016  27.399 -0.3381 -0.1950 -0.0001
38340W        W81434   6.949   6.962  26.469 -0.2099 -0.0975 -0.1997
38341W        W81435   9.871   7.847  25.719 -0.0427  0.0783 -0.0051
38342W        W81436   9.879   6.506  24.750 -0.0793  0.1904  0.3215
38343W        W81437  11.425   3.338  27.192  0.1017 -0.0247  0.0222
38344W        W81438   8.959   4.077  23.867  0.1951  0.2459  0.1335
38345W        W81439   8.705   6.790  24.222  0.1904  0.0497 -0.2332
38346W        W81440   9.544   7.488  23.558  0.0734 -0.2330  0.0424
38347W        W81441   8.186   4.142  26.361 -0.0195  0.0616 -0.1480
38348W        W81442   8.622   7.497  25.608  0.1176  0.0402 -0.1207
38349W        W81443   9.397   7.105  24.002 -0.0666 -0.1465  0.0795
38350W        W81444  10.751   6.866  25.480 -0.0337 -0.1039  0.2136
38351W        W81445   9.038   6.845  23.767  0.0144 -0.1628 -0.1076
38352W        W81446  11.113   3.680  25.171  0.4295  0.0741 -0.1917
38353W        W81447   7.984   7.279  25.738  0.1329 -0.0624 -0.1355
38354W        W81448   6.938   4.789  22.625  0.0694 -0.0545 -0.0320
38355W        W81449   6.662   4.711  23.914 -0.3039 -0.2275  0.0379
38356W        W81450   9.877   4.667  24.424  0.1342  0.1513  0.0455
38357W        W81451  10.646   6.106  24.063  0.0357  0.2108  0.1581
38358W        W81452   8.844   4.980  24.806  0.5447  0.0150 -0.4335
38359W        W81453  10.017   4.211  25.346 -0.2276  0.2261 -0.1176
38360W        W81454   7.735   7.142  26.747  0.2257  0.2588  0.1077
38361W        W81455   9.016   5.666  26.772 -0.2553  0.0295  0.0849
38362W        W81456   9.476   4.753  24.834  0.3774  0.1722 -0.0374
38363W        W81457   8.961   6.793  24.674 -0.3180 -0.1655 -0.0627
38364W        W81458   8.349   5.154  27.930 -0.0659 -0.1300  0.0144
38365W        W81459   7.392   3.400  22.732  0.1533 -0.1456  0.2090
38366W        W81460  10.804   5.407  27.363 -0.0665  0.0142 -0.0162
38367W        W81461   9.231   3.537  24.422 -0.1641  0.0250 -0.2189
38368W        W81462   8.396   7.945  25.631 -0.1569  0.0326  0.3128
38369W        W81463   9.068   6.087  25.316 -0.0114  0.2221 -0.0201
38370W        W81464   7.186   4.994  24.945 -0.0323  0.1412  0.0525
38371W        W81465   8.400   7.288  24.216  0.0136  0.0849 -0.1500
38372W        W81466   8.935   5.307  26.387 -0.0042  0.0324 -0.0814
38373W        W81467   9.654   6.114  25.365 -0.0991 -0.1169  0.1001
38374W        W81468   8.013   3.644  25.913 -0.0141 -0.0701 -0.1930
38375W        W81469   8.219   4.991  24.618 -0.1814  0.1401  0.2061
38376W        W81470   8.638   4.599  25.114  0.0709 -0.0839  0.2198
38377W        W81471   9.840   5.706  25.642 -0.0713  0.1646 -0.3312
38378W        W81472   9.649   5.044  25.744 -0.2906 -0.1710  0.3969
38379W        W81473   6.560   8.230  28.150  0.0763  0.5465 -0.0622
38380W        W81474   9.353   3.020  24.578 -0.1746  0.0759  0.4919
38381W        W81475  11.377   4.871  24.143 -0.0179  0.0150 -0.2755
38382W        W81476   9.763   5.253  26.208 -0.0254 -0.0540  0.1058
38383W        W81477   6.386   7.221  25.590 -0.2275  0.0546  0.0956
38384W        W81478   7.527   5.721  26.649 -0.1025  0.0444 -0.0356
38385W        W81479   8.930   6.381  24.982 -0.1768 -0.1440 -0.2934
38386W        W81480   8.510   5.536  24.237 -0.3544 -0.1124  0.0323
38387W        W81481   7.442   6.975  25.536 -0.0113 -0.1711  0.0826
38388W        W81482   8.701   6.410  23.895 -0.2316 -0.0822 -0.0521
38389W        W81483   7.085   7.008  25.918  0.1098 -0.0061  0.3124
38390W        W81484  11.649   4.551  24.419  0.2055  0.0259 -0.2287
38391W        W81485  10.427   5.555  24.169  0.1802  0.1135 -0.2005
38392W        W81486  10.081   4.133  25.835  0.2442 -0.0459 -0.0281
38393W        W81487  10.882   3.357  27.110  0.2485  0.1294 -0.1671
38394W        W81488  10.128   5.681  22.260 -0.1817 -0.2866  0.1196
38395W        W81489  10.353   4.670  27.020 -0.1746 -0.2843 -0.1748
38396W        W81490   8.924   4.840  26.046 -0.0108  0.0566 -0.1012
38397W        W81491  10.381   4.571  24.807 -0.0796  0.0113 -0.1149
38398W        W81492   8.259   5.634  26.891  0.0496  0.1058 -0.2783
38399W        W81493  10.038   8.142  27.186  0.1320 -0.0680  0.1106
38400W        W81494  10.210   6.571  26.935 -0.2935  0.1589 -0.0518
38401W        W81495   9.288   5.239  24.996 -0.0498 -0.0108  0.0349
38402W        W81496   8.120   5.987  24.485 -0.1184 -0.1559 -0.0873
38403W        W81497   8.168   6.986  26.453 -0.2263  0.3232 -0.0563
38404W        W81498   9.729   7.012  25.243 -0.2253 -0.3932 -0.3630
38405W        W81499   9.543   6.575  23.831  0.1183 -0.7060 -0.1253
38406W        W81500  11.183   6.672  25.191  0.3561  0.1434  0.1802
38407W        W81501   8.251   5.873  25.548 -0.4296  0.0459 -0.2386
38408W        W81502   9.444   4.396  24.448 -0.2179 -0.0278 -0.0478
38409W        W81503   8.618   5.730  23.227 -0.1088 -0.2600  0.3729
38410W        W81504   7.704   5.749  24.817  0.3345  0.0913  0.1763
38411W        W81505   8.345   2.841  28.736  0.2315  0.2702 -0.0411
38412W        W81506   9.391   6.279  24.434 -0.1797  0.0605 -0.2177
38413W        W81507  10.368   4.080  24.149 -0.2451  0.0856 -0.2130
38414W        W81508  10.019   5.249  25.493  0.0436  0.0750 -0.1611
38415W        W81509  10.743   4.063  26.537 -0.0514  0.2109 -0.3463
38416W        W81510   9.433   5.429  26.591 -0.2527 -0.0179  0.1654
38417W        W81511   7.751   4.664  27.271  0.0401 -0.1593  0.0086
38418W        W81512   8.983   8.579  26.460  0.0509  0.3591  0.1073
38419W        W81513  10.260   4.184  23.650  0.1898  0.1562  0.2486
38420W        W81514  10.919   6.061  27.262 -0.2621  0.0270  0.0812
38421W        W81515  10.590   5.184  23.910 -0.1539  0.0499 -0.0190
38422W        W81516   9.558   4.854  24.043  0.1815 -0.3299  0.1044
38423W        W81517   6.943   4.679  25.628 -0.1014  0.0852 -0.0865
38424W        W81518  10.693   6.613  27.109 -0.2852 -0.1102  0.0872
38425W        W81519   8.480   4.520  24.574 -0.0234 -0.0027 -0.0584
38426W        W81520  10.081   5.582  28.043  0.1270  0.0619  0.0203
38427W        W81521   9.065   8.131  23.878  0.0744 -0.0700  0.1784
38428W        W81522   8.874   5.275  24.009 -0.0739 -0.1074  0.1292
38429W        W81523  10.240   4.958  23.612 -0.0937 -0.1185 -0.1647
38430W        W81524   7.919   3.856  25.459 -0.0440  0.0768  0.0625
38431W        W81525   9.645   8.443  27.578  0.0873  0.0229 -0.0226
38432W        W81526   6.877   5.532  24.475  0.0645 -0.2230 -0.2968
38433W        W81527   8.985   5.787  24.224 -0.0852 -0.3172  0.0219
38434W        W81528   9.460   6.893  27.729  0.1918 -0.1477  0.2820
38435W        W81529  11.473   5.750  27.711 -0.2027 -0.0454  0.2557
38436W        W81530   9.023   3.564  23.863  0.1669 -0.3438  0.1093
38437W        W81531  10.986   5.151  26.557  0.1615  0.3442 -0.0964
38438W        W81532   8.616   7.683  23.947  0.0436  0.0058  0.1889
38439W        W81533   9.053   4.310  25.224  0.4610 -0.1343  0.1470
38440W        W81534   6.382   6.326  26.122  0.2234  0.1339 -0.0999
38441W        W81535   6.276   8.188  26.535  0.0313 -0.0386  0.4000
38442W        W81536   7.280   7.262  23.883 -0.1856  0.0772 -0.3338
38443W        W81537  10.887   4.404  26.033 -0.4877  0.1313 -0.0541
38444W        W81538  10.377   4.604  24.271 -0.0010  0.0027  0.2467
38445W        W81539   7.925   4.852  25.660 -0.0750 -0.1077  0.3410
38446W        W81540  10.831   5.479  29.094  0.2218 -0.4037  0.2064
38447W        W81541   9.405   5.728  25.138 -0.1417  0.3214  0.0012
38448W        W81542   8.663   5.565  27.821 -0.1650  0.3441  0.3762
38449W        W81543   9.106   5.109  25.685  0.1630 -0.2419 -0.1118
38450W        W81544   9.888   5.160  22.394  0.0208  0.2802 -0.4749
38451W        W81545   8.191   6.825  24.894  0.2533 -0.0261  0.2057
38452W        W81546   6.750   5.696  27.481  0.0879  0.0981  0.1195
38453W        W81547  10.384   5.748  27.087 -0.0385 -0.0631 -0.0243
38454W        W81548   9.469   5.503  24.636  0.1606 -0.1523 -0.1426
38455W        W81549   7.495   5.351  25.154 -0.1389 -0.1981  0.0083
38456W        W81550   9.218   6.749  24.215  0.1350  0.2262 -0.0055
38457W        W81551   8.752   7.306  26.866 -0.2488  0.0379  0.0579
38458W        W81552   7.588   6.549  25.693 -0.2858 -0.1716 -0.3314
38459W        W81553   8.464   8.029  24.931 -0.5005 -0.0788  0.0814
38460W        W81554  10.342   5.106  24.419 -0.1571 -0.0250  0.0570
38461W        W81555   8.902   3.873  23.245 -0.1352 -0.2595  0.0479
38462W        W81556   9.844   9.328  25.683 -0.1213  0.1489 -0.2215
38463W        W81557   7.190   5.811  25.055  0.1660  0.2464 -0.2611
38464W        W81558   8.247   8.618  26.675 -0.0875 -0.2710 -0.0106
38465W        W81559   7.298   5.898  23.266 -0.0923  0.0278 -0.4405
38466W        W81560   9.123   7.621  25.301 -0.0176 -0.0143  0.1371
38467W        W81561   9.111   7.423  25.802 -0.1811  0.0468  0.3618
38468W        W81562   9.289   6.512  25.565  0.2957 -0.0288 -0.0284
38469W        W81563  10.766   4.660  22.724  0.3128  0.2488 -0.4175
38470W        W81564  10.834   6.197  26.264 -0.3251  0.0934  0.1726
38471W        W81565  11.181   3.456  24.318 -0.2610  0.5893 -0.1034
38472W        W81566  11.312   7.919  28.103 -0.1649  0.2683  0.0877
38473W        W81567   9.227   4.913  24.430 -0.3442 -0.2024  0.0295
38474W        W81568   8.676   4.993  24.342  0.1142  0.2080 -0.3194
38475W        W81569   9.488   4.819  26.183  0.2715 -0.4215  0.3897
38476W        W81570  12.296   4.330  28.074  0.2404 -0.2672 -0.1981
38477W        W81571   7.874   6.634  26.839 -0.1631 -0.3559 -0.1447
38478W        W81572   9.334   6.767  25.123 -0.1747 -0.1152  0.1998
38479W        W81573   7.199   5.029  24.326  0.0765 -0.1347 -0.0770
38480W        W81574   7.296   5.223  26.891 -0.0320  0.0946  0.0135
38481W        W81575  11.491   3.033  24.042 -0.0274 -0.0893 -0.3603
38482W        W81576   8.348   5.169  23.933 -0.2502  0.0484 -0.2962
38483W        W81577  10.235   5.027  24.992  0.2333 -0.2971 -0.2646
38484W        W81578   7.932   7.174  23.959  0.1004  0.0732 -0.0929
38485W        W81579   7.985   7.395  24.789  0.2259 -0.1946  0.3997
38486W        W81580   8.684   7.510  26.123  0.2189 -0.1958 -0.0316
38487W        W81581   7.310   4.006  24.523 -0.4403  0.0620 -0.1665
38488W        W81582   9.951   4.249  24.648 -0.1302  0.0002 -0.1552
38489W        W81583   8.539   4.201  26.773 -0.3794  0.3012  0.0889
38490W        W81584  11.041   4.464  25.468 -0.1375  0.0398 -0.1491
38491W        W81585   6.827   5.535  25.986 -0.1008  0.3657 -0.0563
38492W        W81586  11.193   5.260  25.378 -0.1781 -0.0815  0.1990
38493W        W81587   9.058   5.001  27.009  0.0380  0.1187 -0.3281
38494W        W81588   7.634   4.816  26.653 -0.0745  0.0118  0.1912
38495W        W81589   8.555   4.596  23.892 -0.2470  0.0222  0.0002
38496W        W81590   9.000   5.597  25.594  0.0224  0.1327 -0.3045
38497W        W81591  10.759   5.326  22.873  0.0943 -0.0665 -0.2229
38498W        W81592   9.967   8.910  27.639 -0.0320  0.0524  0.1184
38499W        W81593   7.183   4.061  26.444  0.1091  0.0350 -0.3370
38500W        W81594   9.719   3.454  24.710 -0.1029 -0.0554  0.0416
38501W        W81595   8.100   6.377  24.977 -0.0806 -0.1390  0.0163
38502W        W81596   8.493   4.144  27.543  0.0205 -0.0491  0.1271
38503W        W81597   9.477   7.844  27.983 -0.0012  0.1313 -0.4134
38504W        W81598   8.199   3.157  25.861  0.2912  0.2164 -0.0327
38505W        W81599  10.516   6.442  23.739 -0.0985 -0.0274  0.0153
38506W        W81600  10.372   5.812  25.545 -0.2813 -0.3119  0.1149
38507W        W81601   8.695   8.067  23.487 -0.1478 -0.0140 -0.2875
38508W        W81602   9.941   5.666  25.112 -0.0386  0.0427 -0.2053
38509W        W81603   9.798   6.602  25.589 -0.5344  0.3537 -0.1650
38510W        W81604   8.724   5.077  27.352 -0.1574  0.3989 -0.0336
38511W        W81605   9.744   7.766  26.969 -0.0854  0.0255  0.0337
38512W        W81606  11.140   5.628  26.342  0.4197 -0.0225  0.0195
38513W        W81607   9.641   3.402  25.279  0.0284 -0.0570 -0.1545
38514W        W81608   9.099   4.838  26.517  0.3071  0.1053 -0.3113
38515W        W81609   8.188   7.929  23.610 -0.1020  0.2222 -0.1030
38516W        W81610  11.086   5.386  25.898  0.2083  0.1971  0.1278
38517W        W81611  11.218   4.736  26.709 -0.2176  0.0379  0.0232
38518W        W81612   8.410   6.619  22.614 -0.0866  0.1777 -0.1194
38519W        W81613  10.381   3.512  26.838  0.0858  0.0822  0.0705
38520W        W81614   9.416   7.024  25.631 -0.0904  0.0991 -0.2195
38521W        W81615   8.416   5.467  27.414  0.1859 -0.0430 -0.2205
38522W        W81616   7.448   5.469  23.894 -0.0769 -0.0651  0.0526
38523W        W81617   9.910   6.199  25.888  0.2453 -0.2902  0.2731
38524W        W81618   9.457   6.976  24.626 -0.1402 -0.1919  0.1587
38525W        W81619   9.095   7.220  24.432  0.0396 -0.0099  0.1896
38526W        W81620   8.953   7.070  25.388 -0.0956  0.0436  0.0465
38527W        W81621   9.078   4.072  24.380 -0.0362 -0.0880  0.1890
38528W        W81622  10.636   6.394  25.226 -0.0557  0.1551  0.0201
38529W        W81623   9.473   3.877  25.317  0.0577  0.4572  0.2776
38530W        W81624  11.293   4.129  25.048 -0.0570  0.2291 -0.1922
38531W        W81625  10.480   4.421  25.293  0.2226 -0.0802 -0.0273
38532W        W81626   7.898   6.135  25.382  0.0215 -0.2608 -0.4130
38533W        W81627   6.939   5.351  25.169  0.2806 -0.1288  0.1151
38534W        W81628   8.966   6.353  23.026 -0.1104  0.0365  0.0743
38535W        W81629   7.337   6.074  26.290 -0.4153  0.0893 -0.1077
38536W        W81630   9.448   2.974  27.097 -0.1343  0.3055 -0.2697
38537W        W81631   8.665   5.247  26.838 -0.1041 -0.0851  0.0922
38538W        W81632   7.262   5.923  24.590 -0.0081  0.1564  0.0793
38539W        W81633   8.724   4.889  25.518 -0.4686 -0.1154  0.0466
38540W        W81634  10.636   7.838  24.348 -0.1274  0.0159 -0.1851
38541W        W81635   9.231   3.729  26.946  0.1537 -0.4298 -0.1093
38542W        W81636   6.868   3.645  26.249 -0.0300 -0.0370  0.0795
38543W        W81637  10.299   6.434  24.199  0.1865  0.1461 -0.0894
38544W        W81638  11.301   6.033  24.543 -0.1084  0.0864 -0.0375
38545W        W81639   8.351   3.421  24.420  0.1823 -0.1820 -0.1516
38546W        W81640   9.938   6.822  26.638  0.0820  0.0725  0.1200
38547W        W81641   8.278   5.360  23.448  0.0620  0.0576 -0.5380
38548W        W81642   9.998   6.005  27.015  0.1793 -0.1216  0.0053
38549W        W81643  11.039   4.848  25.163  0.1636 -0.0652  0.0126
38550W        W81644   8.336   5.007  25.255  0.2246 -0.2904  0.3890
38551W        W81645   9.779   5.204  24.940  0.1127  0.0543 -0.1346
38552W        W81646   9.358   5.364  24.124  0.1702  0.1659  0.1886
38553W        W81647  10.386   6.284  24.711 -0.1080 -0.1699  0.1660
38554W        W81648   8.428   6.279  25.290  0.2863  0.2341  0.0175
38555W        W81649   8.617   5.244  25.983  0.3483  0.0253  0.0895
38556W        W81650   8.060   3.541  28.305 -0.3001 -0.1097 -0.0440
38557W        W81651  10.286   5.934  22.788  0.1597  0.0069  0.1891
38558W        W81652   8.386   5.430  26.462  0.0401 -0.1618 -0.0845
38559W        W81653  12.254   5.415  23.990  0.5318 -0.0466 -0.1127
38560W        W81654  11.438   2.764  25.342  0.2020  0.0840 -0.2277
38561W        W81655  10.708   4.102  23.303  0.1495 -0.1298 -0.2795
38562W        W81656   7.280   3.282  28.061  0.0448 -0.0363 -0.0883
38563W        W81657   7.311   6.600  26.119  0.1780 -0.1431 -0.0484
38564W        W81658  12.507   6.070  25.487 -0.1744 -0.2791  0.2149
38565W        W81659   8.790   3.718  24.360 -0.2905 -0.0178  0.0187
38566W        W81660  10.207   3.237  24.215  0.0917 -0.1710 -0.2065
38567W        W81661  10.802   5.422  24.431 -0.1615  0.1363 -0.1137
38568W        W81662   7.946   5.653  25.938 -0.1362 -0.0257 -0.1149
38569W        W81663   9.385   5.596  23.248  0.0700  0.2257 -0.0613
38570W        W81664  10.297   5.294  26.510 -0.2019  0.1677  0.0855
38571W        W81665   9.320   7.498  26.212 -0.1739  0.1556  0.1840
38572W        W81666   8.801   5.276  25.231 -0.0067  0.2581  0.0694
38573W        W81667   8.721   4.092  24.894  0.2413 -0.1655 -0.2205
38574W        W81668  11.405   6.075  23.650  0.0851  0.0921  0.1882
38575W        W81669   8.957   7.783  27.039  0.2787 -0.1958 -0.2865
38576W        W81670  10.866   7.172  27.782 -0.2713 -0.2056  0.3111
38577W        W81671   9.361   7.809  26.669  0.0887  0.5539  0.2076
38578W        W81672  11.959   6.664  27.063 -0.1136 -0.2530 -0.3364
38579W        W81673   8.786   4.123  27.171  0.2201 -0.2987 -0.0803
38580W        W81674   8.344   7.170  25.189 -0.2237 -0.0813 -0.3588
38581W        W81675   7.838   7.165  25.264  0.4232  0.2080 -0.0586
38582W        W81676  10.193   5.033  25.943 -0.2136 -0.3279 -0.0541
38583W        W81677   7.625   5.715  25.528 -0.3066  0.0845  0.0395
38584W        W81678  10.852   4.879  24.369 -0.2141 -0.0008  0.2128
38585W        W81679   8.762   8.636  26.876 -0.1325 -0.2991 -0.6048
38586W        W81680   9.694   6.006  24.720 -0.0447  0.1531 -0.1951
38587W        W81681   9.015   4.606  29.348 -0.0242 -0.1884 -0.1386
38588W        W81682   8.015   6.069  29.587 -0.1043  0.2141  0.0123
38589W        W81683   9.667   5.299  27.744 -0.3615  0.0545  0.0939
38590W        W81684  10.189   5.561  28.973  0.1492  0.0500 -0.2307
38591W        W81685   6.821   4.130  27.763 -0.0916 -0.2103  0.1141
38592W        W81686  10.343   7.746  29.046 -0.0240 -0.1083  0.1958
38593W        W81687   8.813   3.854  30.006  0.0368  0.1824  0.2820
38594W        W81688   9.710   5.146  29.583 -0.2823 -0.3246  0.0470
38595W        W81689  10.355   7.033  29.315  0.0511  0.1979  0.1468
38596W        W81690   9.418   5.506  25.897  0.0313  0.0453 -0.3165
38597W        W81691   9.806   4.694  27.856  0.0716 -0.5243 -0.1890
38598W        W81692   9.667   6.802  30.295  0.1108 -0.1885 -0.0848
38599W        W81693   8.273   2.415  28.421 -0.1630  0.2964  0.2026
38600W        W81694   8.208   2.771  29.580 -0.0303  0.2334 -0.0649
38601W        W81695  10.106   4.577  28.353  0.0515 -0.2263 -0.0601
38602W        W81696   8.299   5.378  28.757  0.2100 -0.0224 -0.1438
38603W        W81697   8.325   4.632  29.381  0.1247 -0.1725  0.0990
38604W        W81698   9.073   5.197  28.202  0.1689  0.1299 -0.0907
38605W        W81699   8.971   6.170  28.510 -0.0964  0.0647  0.1150
38606W        W81700   9.683   3.447  30.003  0.3364  0.1040  0.0098
38607W        W81701  10.576   2.991  29.849  0.1009  0.0517  0.0074
38608W        W81702   9.443   5.762  29.316  0.0551  0.0142  0.0253
38609W        W81703   8.618   5.871  27.079 -0.0398 -0.1404 -0.2539
38610W        W81704   7.722   4.749  28.619  0.2188 -0.0423  0.4608
38611W        W81705   8.132   5.065  29.595  0.2817 -0.1849 -0.2322
38612W        W81706  11.033   4.455  28.625 -0.0837  0.2950  0.3321
38613W        W81707   9.096   5.573  28.889 -0.2367  0.5338 -0.3025
38614W        W81708   8.898   6.183  29.833  0.0610  0.0405 -0.1305
38615W        W81709   8.830   8.442  30.247 -0.0135 -0.1756 -0.0412
38616W        W81710   9.157   4.090  30.820  0.0538  0.1780 -0.0969
38617W        W81711   7.641   7.190  28.815 -0.4364 -0.1118  0.2343
38618W        W81712   8.961   7.190  27.730  0.0173  0.4738 -0.5310
38619W        W81713   9.113   7.657  27.728 -0.1996  0.1608 -0.0525
38620W        W81714  10.334   4.956  28.656  0.0638 -0.0326  0.0254
38621W        W81715   9.647   5.881  30.200 -0.1544  0.1140  0.5474
38622W        W81716   9.280   8.174  30.203 -0.2168  0.0069  0.1519
38623W        W81717   8.187   6.498  27.194 -0.0252 -0.2599 -0.2001
38624W        W81718   9.853   6.227  31.620 -0.2815 -0.0038 -0.0588
38625W        W81719   7.110   5.317  31.251  0.0310 -0.0707 -0.1061
38626W        W81720  10.091   4.624  29.500 -0.2359  0.1258  0.1104
38627W        W81721   8.005   6.561  29.487  0.3092 -0.0651 -0.1548
38628W        W81722  10.229   6.428  27.736 -0.0239  0.0636  0.2225
38629W        W81723   9.158   6.897  29.045  0.1265  0.1986 -0.0117
38630W        W81724   8.735   4.761  30.379 -0.1662 -0.1498 -0.3184
38631W        W81725   8.485   6.181  28.957  0.3189 -0.0372  0.3627
38632W        W81726  10.363   4.167   0.331  0.0887 -0.0956  0.0035
38633W        W81727   8.224   7.621  27.510 -0.0712  0.1782  0.0940
38634W        W81728   9.808   5.083  27.085 -0.3707  0.1669  0.0480
38635W        W81729   9.138   5.658  27.910 -0.3048  0.0390  0.2524
38636W        W81730  10.071   5.028  27.530 -0.1724 -0.0216 -0.1064
38637W        W81731   7.488   2.251  29.760 -0.0954  0.0523 -0.1375
38638W        W81732  10.036   6.450  30.182  0.1693 -0.0197 -0.1360
38639W        W81733   7.665   3.958  29.577 -0.1531 -0.1717 -0.1099
38640W        W81734   9.293   7.658  30.367 -0.2246 -0.1542 -0.1264
38641W        W81735   9.631   4.926  26.650  0.3007  0.1839  0.0660
38642W        W81736  10.432   4.183  30.317  0.0934  0.1374  0.5809
38643W        W81737   8.219   7.014  29.625 -0.0193  0.0754 -0.0230
38644W        W81738   6.788   5.050  30.106 -0.1340 -0.0575 -0.0976
38645W        W81739  11.289   6.111  28.038  0.4381 -0.0896  0.2110
38646W        W81740   9.773   6.783  28.508 -0.1091 -0.2971 -0.0568
38647W        W81741   9.501   6.605  26.057 -0.0106  0.0694 -0.1727
38648W        W81742   7.574   5.649  29.137  0.1700  0.2183 -0.0913
38649W        W81743   7.616   5.809  30.574  0.0820 -0.0483 -0.2480
38650W        W81744   6.412   5.024   0.005  0.1192  0.1085 -0.1554
38651W        W81745   9.501   3.848  27.967 -0.0427 -0.0055  0.2077
38652W        W81746  11.047   6.516  31.403  0.0018  0.0796 -0.0252
38653W        W81747   6.829   6.761  31.444 -0.0065 -0.0136 -0.0548
38654W        W81748  10.198   3.966  27.657  0.1791 -0.2938 -0.0033
38655W        W81749   8.197   6.482  29.943 -0.1915  0.0631 -0.0228
38656W        W81750  10.097   4.591  28.983  0.2634 -0.3264  0.4367
38657W        W81751   8.306   8.386  27.274  0.0213  0.0255  0.1792
38658W        W81752   9.797   2.511  27.778 -0.4442  0.0243  0.0523
38659W        W81753  10.456   2.775  30.336  0.0291  0.0415  0.0094
38660W        W81754   8.450   3.559  27.960  0.2646  0.0743  0.1547
38661W        W81755   9.039   6.150  26.957 -0.2364  0.3725 -0.0526
38662W        W81756  10.790   5.765  30.289  0.0412 -0.1127  0.2787
38663W        W81757  11.117   5.410  28.660 -0.2008 -0.0454  0.1316
38664W        W81758   8.441   7.167  28.749 -0.1458 -0.2075  0.1305
38665W        W81759   9.433   3.726  31.267 -0.1567 -0.1772 -0.2717
38666W        W81760   9.331   6.362  31.940 -0.1411 -0.2625  0.3233
38667W        W81761   8.774   7.457  27.379 -0.0737 -0.2175  0.2057
38668W        W81762   6.669   6.086  29.271 -0.0664 -0.1330  0.4169
38669W        W81763   8.472   6.027  28.369  0.4697  0.0306 -0.1368
38670W        W81764   6.948   4.748  28.886  0.1112  0.0056  0.0100
38671W        W81765   8.445   5.077  29.142  0.1078 -0.0820 -0.1217
38672W        W81766  11.724   4.954  27.442 -0.0391 -0.0879 -0.2314
38673W        W81767   7.005   5.758  29.453 -0.1504 -0.1984 -0.1213
38674W        W81768  10.809   2.474  29.066 -0.2495  0.2005 -0.0091
38675W        W81769   8.873   6.684  28.527 -0.0355  0.2783 -0.0606
38676W        W81770  10.418   6.275  27.264 -0.2869  0.0287  0.2552
38677W        W81771   9.595   5.263  29.106  0.3413  0.2090 -0.1535
38678W        W81772   9.736   6.764  27.060 -0.0004  0.0623 -0.1556
38679W        W81773   6.963   4.586  30.209 -0.0493  0.0116  0.1094
38680W        W81774   8.174   5.492  28.269  0.2034 -0.1268  0.2013
38681W        W81775   8.070   4.876  31.213  0.3743  0.0258 -0.0010
38682W        W81776   7.601   3.507  28.461 -0.2097 -0.1956  0.0178
38683W        W81777  10.143   4.959  30.526  0.0965 -0.1768  0.0033
38684W        W81778   8.032   3.304  27.648 -0.1960  0.0697  0.0338
38685W        W81779  11.076   5.030  27.741 -0.2678  0.0366  0.0058
38686W        W81780   8.872   6.065  27.955 -0.1180 -0.0949 -0.1571
38687W        W81781   7.591   6.268  29.933  0.1195  0.2241  0.0518
38688W        W81782  10.522   4.525  31.266  0.0949 -0.3533  0.0457
38689W        W81783   8.763   8.051  27.856 -0.0852  0.2294 -0.1660
38690W        W81784  10.446   7.306  30.762 -0.0756 -0.1369  0.1254
38691W        W81785  11.200   7.613  29.160 -0.2327 -0.1382  0.1696
38692W        W81786   7.988   5.567  29.582 -0.1577  0.1956 -0.0605
38693W        W81787   9.338   3.322  26.285 -0.3527 -0.1299 -0.1053
38694W        W81788   8.067   8.836  29.314 -0.1651 -0.2147 -0.0774
38695W        W81789   7.229   4.971  30.479  0.1339 -0.0345  0.3216
38696W        W81790   8.091   3.861  27.636 -0.1756  0.2285  0.2634
38697W        W81791   9.996   7.010  28.948 -0.0655  0.2623 -0.1108
38698W        W81792   9.660   6.667  29.160 -0.0969  0.2292 -0.0801
38699W        W81793   7.894   6.049  29.004 -0.0739 -0.1842 -0.0476
38700W        W81794   9.635   4.564  30.119  0.1144  0.2120 -0.0142
38701W        W81795   9.645   6.949  29.835  0.2288  0.1591 -0.3089
38702W        W81796   9.464   4.855  27.438 -0.1525 -0.1515 -0.1528
38703W        W81797   8.227   3.560  27.248  0.0215 -0.0873  0.2637
38704W        W81798   9.734   9.237  29.337  0.0958  0.3010  0.0471
38705W        W81799   8.765   7.285  28.321 -0.2832 -0.1574  0.0449
38706W        W81800   7.512   6.112  29.333 -0.1999 -0.0878  0.2416
38707W        W81801   8.135   5.512  30.492  0.0414  0.1445  0.0310
38708W        W81802  11.068   3.025  30.936 -0.0666  0.0413 -0.1324
38709W        W81803   8.380   5.780  31.147  0.1767  0.0924 -0.1137
38710W        W81804   9.166   4.271  29.927  0.0001  0.0124 -0.1216
38711W        W81805   8.309   4.756  26.745 -0.3886 -0.1926 -0.4264
38712W        W81806   7.964   6.267  31.837  0.2259 -0.0096 -0.1263
38713W        W81807  10.664   3.184  28.105  0.2400 -0.1287  0.0103
38714W        W81808  11.193   5.414  26.930 -0.2366 -0.1103 -0.4950
38715W        W81809   8.696   5.038  29.607  0.1334  0.1373  0.3023
38716W        W81810   9.376   6.191  27.820 -0.1443 -0.2304  0.1412
38717W        W81811  11.227   5.084  27.293 -0.4437 -0.1371 -0.1799
38718W        W81812   9.998   3.941  27.151  0.1040 -0.0949 -0.2143
38719W        W81813   7.643   4.142  30.763  0.0252 -0.0893  0.2848
38720W        W81814  10.332   7.356  28.747  0.2277  0.0672  0.0244
38721W        W81815   9.658   4.744  29.156  0.2791  0.1149 -0.1335
38722W        W81816   8.970   4.581  27.437 -0.0195 -0.2440 -0.3538
38723W        W81817   9.228   5.335  29.414  0.0675  0.1376 -0.1540
38724W        W81818   7.944   5.280  29.987  0.1718  0.0581 -0.0881
38725W        W81819   9.295   4.837  31.427 -0.0260 -0.0485 -0.0356
38726W        W81820   9.686   7.311  30.305 -0.1475 -0.1330  0.1985
38727W        W81821   9.798   4.131  28.318 -0.2869 -0.0588  0.1346
38728W        W81822   9.008   3.724  28.151  0.0575 -0.2832 -0.0056
38729W        W81823  10.298   3.753  29.546 -0.3052 -0.3466  0.1661
38730W        W81824   7.333   6.237  26.819 -0.0419  0.1402  0.1021
38731W        W81825  10.382   3.360  30.354 -0.0938  0.1267  0.0429
38732W        W81826   9.699   3.641  28.906  0.2732 -0.2436 -0.1800
38733W        W81827   8.222   4.226  29.784  0.1449  0.1786  0.1624
38734W        W81828  11.195   4.197  29.948 -0.0193  0.0266 -0.0276
38735W        W81829  10.320   5.259  27.054 -0.2046 -0.0130  0.0347
38736W        W81830  10.002   6.033  29.862 -0.2045  0.0039 -0.0144
38737W        W81831   9.380   4.596  27.010 -0.1281 -0.2733  0.1320
38738W        W81832   9.608   4.300  28.824 -0.0185  0.1142 -0.1421
38739W        W81833   8.108   6.973  30.207  0.1083  0.0345 -0.2055
38740W        W81834   8.226   5.688  30.013 -0.0765  0.2900  0.0753
38741W        W81835   8.613   6.797  29.881 -0.3697 -0.0346 -0.1312
38742W        W81836   9.462   5.551  29.785 -0.0558  0.0467 -0.1537
38743W        W81837  10.505   4.026  31.083 -0.0689 -0.1809  0.0355
38744W        W81838   8.621   3.139  28.315 -0.0959 -0.0357 -0.3222
38745W        W81839   9.509   7.234  29.032  0.1111 -0.2128 -0.0603
38746W        W81840   9.157   5.226  27.709 -0.0169 -0.1655  0.0227
38747W        W81841   9.243   4.704  28.838  0.2272 -0.0731 -0.0828
38748W        W81842   8.663   6.777  29.063 -0.0827 -0.4263  0.0155
38749W        W81843   8.487   6.367  26.858  0.0384  0.0486 -0.1616
38750W        W81844   9.040   5.735  31.896 -0.1810  0.3101 -0.3655
38751W        W81845   8.993   6.052  27.455 -0.1319 -0.2521  0.4056
38752W        W81846  10.794   3.468  30.746 -0.2461 -0.0652  0.1128
38753W        W81847   8.417   5.904  30.681  0.0149 -0.1076 -0.0695
38754W        W81848   9.396   4.394  26.490 -0.1207  0.3822  0.2989
38755W        W81849   8.939   5.577  27.331  0.1561 -0.0742  0.1650
38756W        W81850  10.119   3.286  29.950 -0.2529 -0.2737  0.0041
38757W        W81851  10.506   5.718  28.448 -0.0079 -0.0172 -0.0883
38758W        W81852   8.483   3.604  29.190  0.1066 -0.3589  0.0444
38759W        W81853   9.238   3.220  29.837  0.3817  0.4965 -0.2343
38760W        W81854   7.749   6.757  29.925 -0.0340 -0.2538 -0.3435
38761W        W81855   9.511   4.532  29.606 -0.1010 -0.5409 -0.3632
38762W        W81856  10.523   5.904  27.564  0.0303 -0.0872  0.0722
38763W        W81857   8.968   5.714  29.719  0.0724 -0.1335  0.0391
38764W        W81858   9.051   4.375  31.263  0.0204 -0.1045  0.0389
38765W        W81859   8.037   4.350  27.579  0.3122  0.1730 -0.0128
38766W        W81860  10.789   4.388  29.168  0.1248 -0.1515  0.0136
38767W        W81861   8.910   4.414  27.916 -0.1928 -0.1264 -0.2710
38768W        W81862   7.602   6.516  29.038  0.1955  0.0166  0.0457
38769W        W81863   8.708   5.505  29.197  0.1633 -0.1030  0.1565
38770W        W81864   9.410   4.440  27.679  0.0394  0.1114  0.2073
38771W        W81865   7.502   6.580  29.508  0.0621  0.2364 -0.1566
38772W        W81866   7.779   4.660  29.648 -0.1036 -0.3111 -0.1250
38773W        W81867  10.524   5.626  30.714 -0.1148 -0.0027 -0.1341
38774W        W81868   7.439   4.984  28.080 -0.0651  0.0954 -0.1925
38775W        W81869   8.573   4.104  28.950  0.1173 -0.1940  0.2541
38776W        W81870   8.646   5.483  28.328 -0.0648  0.1725 -0.1679
38777W        W81871   9.943   5.559  29.394 -0.2472  0.0557 -0.1096
38778W        W81872  10.596   3.983  28.901 -0.1573 -0.2041 -0.1051
38779W        W81873   8.398   7.942  31.522  0.1917  0.1680 -0.0106
38780W        W81874   7.840   2.870  29.206 -0.0905  0.0054 -0.1222
38781W        W81875  10.951   8.921  29.150  0.1288 -0.0038 -0.0991
38782W        W81876  10.219   3.761  30.089 -0.2195 -0.1527 -0.0621
38783W        W81877   9.284   7.292  28.134  0.2430  0.2504  0.0066
38784W        W81878   7.186   5.551  30.543 -0.1522 -0.1452  0.0431
38785W        W81879   8.170   6.827  28.426 -0.1680  0.0215 -0.0129
38786W        W81880   9.517   4.639  28.463  0.0469 -0.1317  0.2743
38787W        W81881   8.472   5.450  29.665  0.0897  0.0667 -0.0185
38788W        W81882   7.987   5.553  27.758  0.0093  0.2082 -0.3713
38789W        W81883   7.088   6.194  29.013  0.2399  0.2712 -0.0927
38790W        W81884  10.776   4.433  26.957  0.1382 -0.0668 -0.0282
38791W        W81885   9.494   6.106  27.188 -0.2592 -0.0571  0.3500
38792W        W81886   9.184   4.096  29.403 -0.0830  0.1451  0.1494
38793W        W81887  10.353   3.225  31.138 -0.0385  0.0440  0.1566
38794W        W81888  10.049   6.038  27.534  0.0350 -0.2952  0.2781
38795W        W81889   8.995   3.340  30.247  0.0437 -0.1361  0.1086
38796W        W81890   7.776   4.246  29.128  0.2198 -0.0787  0.4182
38797W        W81891  10.171   7.907  28.521  0.1515 -0.3254  0.2547
38798W        W81892   7.553   4.453  31.199 -0.1285  0.0770 -0.3667
38799W        W81893  11.200   7.817  31.037 -0.0478 -0.1025  0.1669
38800W        W81894   6.759   4.940  31.636 -0.1247 -0.1060  0.2902
38801W        W81895   9.391   3.393  28.104  0.0787  0.1061 -0.1065
38802W        W81896   8.519   4.057  28.054  0.0337 -0.0042 -0.2549
38803W        W81897   9.809   4.047  29.284  0.2072 -0.5327 -0.2237
38804W        W81898   9.200   4.892  29.734 -0.0951 -0.2541 -0.2982
38805W        W81899  10.978   6.978  26.885 -0.0096  0.0900  0.0382
38806W        W81900   9.619   3.288  28.564  0.1793 -0.1048  0.1277
38807W        W81901   8.449   5.143  30.114  0.3225 -0.0775  0.1466
38808W        W81902  11.369   4.592  27.385  0.0943  0.4333  0.0571
38809W        W81903   9.383   6.093  25.823 -0.2148  0.0128  0.1752
38810W        W81904   9.006   5.037  29.138 -0.0556  0.1313 -0.5456
38811W        W81905   8.156   3.224  29.146  0.1728 -0.2438 -0.1840
38812W        W81906   8.508   6.413  27.682 -0.1528 -0.0090 -0.0435
38813W        W81907   9.016   4.674  28.329  0.2072  0.0212 -0.0952
38814W        W81908  10.652   3.542  29.806  0.0033 -0.0478  0.0641
38815W        W81909  11.132   4.700  29.718  0.2329 -0.2362  0.1502
38816W        W81910   7.720   4.204  29.963  0.0143  0.2281  0.1457
38817W        W81911   7.052   4.003  30.668 -0.1292 -0.1227  0.0727
38818W        W81912   8.917   8.550  28.668  0.4955 -0.1702  0.2745
38819W        W81913  10.126   4.508  27.480 -0.1207  0.2625 -0.2068
38820W        W81914  11.063   4.818  30.681  0.2055 -0.2075  0.2273
38821W        W81915  10.331   5.222  29.522 -0.0121  0.1378 -0.1506
38822W        W81916  10.581   5.574  27.950 -0.0588 -0.0338  0.0678
38823W        W81917   7.343   4.970  27.525  0.1298  0.0986 -0.0908
38824W        W81918  10.221   5.268  30.995  0.1061  0.2361 -0.0158
38825W        W81919   9.047   4.088  26.618  0.4203 -0.0865  0.2243
38826W        W81920  11.519   4.267  28.799 -0.0391  0.0378  0.0967
38827W        W81921  11.530   7.812  27.546  0.0564  0.1650 -0.3333
38828W        W81922   8.728   6.568  27.226  0.0194  0.0943  0.1809
38829W        W81923   9.322   4.835  27.945 -0.0589  0.3184  0.1526
38830W        W81924   8.603   6.075  30.189  0.0590 -0.1644 -0.0093
38831W        W81925   8.127   5.374  31.400 -0.1142  0.0469 -0.2654
38832W        W81926   7.463   4.327  26.776  0.1013  0.1262 -0.2144
38833W        W81927   8.726   6.392  26.429  0.0299  0.4787  0.3642
38834W        W81928   9.327   5.366  30.370  0.2219 -0.1017  0.0235
38835W        W81929  10.092   5.910  30.851 -0.2309 -0.0310 -0.3400
38836W        W81930   9.788   2.682  26.774  0.2241  0.1946 -0.1763
38837W        W81931  12.124   4.914  30.445 -0.1172 -0.0774 -0.1314
38838W        W81932   9.168   7.504  28.631  0.0889  0.3450 -0.0873
38839W        W81933   9.449   2.759  28.667  0.2763 -0.1743  0.1237
38840W        W81934   7.603   7.754  30.939  0.1109  0.0214  0.1418
38841W        W81935   8.168   5.759  31.694 -0.2251  0.0967  0.1817
38842W        W81936   8.647   5.767  28.752 -0.2636  0.3258  0.0323
38843W        W81937  10.818   3.835  30.170 -0.0426  0.2214  0.0878
38844W        W81938  12.307   4.457  26.938  0.1317 -0.1024  0.1115
38845W        W81939   9.279   6.644  28.112 -0.1053 -0.0929 -0.0475
38846W        W81940   9.586   5.048  30.083  0.1250 -0.2975  0.0412
38847W        W81941   8.360   6.515  30.509 -0.0701  0.0007  0.1065
38848W        W81942   7.142   6.561  30.039 -0.1279  0.1186  0.2757
38849W        W81943   9.914   7.260  31.169  0.0441  0.0352  0.0301
38850W        W81944  10.449   6.309  29.698 -0.2374  0.3089 -0.1500
38851W        W81945   8.030   6.352  28.521  0.0829 -0.0566  0.0780
38852W        W81946   8.411   3.623  30.598 -0.0164 -0.1282  0.0608
38853W        W81947   9.409   3.748  31.903  0.1269  0.1042 -0.1765
38854W        W81948   9.122   5.724  28.403 -0.1683 -0.1287 -0.0897
38855W        W81949   9.056   2.332  28.813 -0.0092 -0.0674  0.0625
38856W        W81950   9.870   7.816  26.514  0.1096 -0.1080 -0.1667
38857W        W81951   8.427   8.486   0.578 -0.1128  0.1348 -0.0034
38858W        W81952   7.245   4.909  29.863  0.1223 -0.1048  0.3101
38859W        W81953   8.639   7.576  27.858  0.1526 -0.0111 -0.0509
38860W        W81954   9.273   6.516  27.226  0.0630 -0.0429 -0.0178
38861W        W81955  10.070   6.632  29.483  0.2281 -0.1750 -0.2773
38862W        W81956   8.859   9.118  28.412 -0.2229 -0.3266 -0.0604
38863W        W81957  10.196   5.539  27.591 -0.0147 -0.1776 -0.1693
38864W        W81958   9.043   6.618  27.691 -0.0241  0.1009  0.0011
38865W        W81959   7.451   6.547  27.584 -0.1566 -0.4393  0.2535
38866W        W81960   9.523   7.947  28.476 -0.1122 -0.0158 -0.1323
38867W        W81961   9.120   6.599  29.825 -0.1709  0.2765 -0.1830
38868W        W81962  10.422   6.745  30.305  0.3983  0.1381 -0.0712
38869W        W81963  10.797   4.023  28.374  0.1010  0.0003  0.0185
38870W        W81964  10.609   4.659  29.642  0.0334 -0.0821  0.0289
38871W        W81965  10.077   5.080  28.104 -0.2958 -0.0098  0.3729
38872W        W81966  10.129   7.961  29.905 -0.2228  0.0589  0.0553
38873W        W81967   8.571   4.994  28.305  0.1858  0.0229 -0.1534
38874W        W81968   9.963   5.526  26.782  0.2627 -0.0218 -0.1206
38875W        W81969   8.683   5.129   0.005  0.1440 -0.0082  0.0261
38876W        W81970  10.042   3.061  31.647  0.0513 -0.4691 -0.2271
38877W        W81971   8.919   6.146  31.114  0.0048  0.0768  0.3396
38878W        W81972   9.705   7.443  28.464 -0.1767 -0.3222  0.1402
38879W        W81973   8.480   4.517  27.206  0.0403 -0.0920  0.0786
38880W        W81974   9.292   6.012  28.868  0.2023 -0.0978 -0.1679
38881W        W81975  11.290   3.479  30.885 -0.1932  0.3634  0.3028
38882W        W81976   9.030   6.438  29.038  0.1518  0.3491 -0.1130
38883W        W81977   9.576   5.594  28.704  0.1653  0.2430  0.2364
38884W        W81978   9.293   6.370  29.436  0.1297  0.1128  0.2954
38885W        W81979   7.619   7.036  30.483 -0.2343 -0.1473  0.1248
38886W        W81980   8.893   6.150  30.629  0.1837 -0.3974 -0.1633
38887W        W81981   8.800   4.921  27.840  0.0149  0.0103 -0.1123
38888W        W81982  10.511   4.932  27.918 -0.1626  0.2057 -0.2551
38889W        W81983   9.690   4.037  29.730  0.2504 -0.1671  0.0727
38890W        W81984  10.292   2.058  30.544 -0.1943 -0.3689 -0.1381
38891W        W81985   9.608   5.101  28.269  0.3065 -0.2571 -0.1410
38892W        W81986  10.306   6.291  28.441 -0.2204  0.2685  0.1104
38893W        W81987   8.973   5.225  30.009 -0.0259 -0.1251  0.2468
38894W        W81988   7.486   5.705  29.623 -0.0553 -0.1462 -0.2298
38895W        W81989   8.214   4.047  27.138  0.1193  0.0602  0.0607
38896W        W81990  11.049   5.742  30.858  0.3192 -0.0276  0.1316
38897W        W81991  10.626   6.169  26.736  0.3909 -0.0407 -0.2254
38898W        W81992   9.330   7.618  30.922 -0.1765 -0.0792 -0.1682
38899W        W81993   8.419   4.537  27.894  0.0392  0.1677  0.1538
38900W        W81994   9.885   4.237  27.843  0.0214 -0.1157  0.0132
38901W        W81995   8.897   5.979  29.172  0.0336  0.0805  0.0452
38902W        W81996  10.044   5.047  29.127 -0.3916 -0.0134 -0.1828
38903W        W81997   9.999   6.378  31.118  0.1493 -0.0077 -0.0416
38904W        W81998   8.531   4.481  28.368  0.0165  0.1487  0.3263
38905W        W81999   9.703   7.110  28.069 -0.1847 -0.0178  0.3148
38906W        W82000  10.499   4.506  28.776 -0.0778 -0.1018 -0.1152
38907W        W82001   9.140   8.636  27.241 -0.0880 -0.0895 -0.0527
38908W        W82002  10.655   4.892  27.427  0.1187 -0.0740 -0.1722
38909W        W82003  10.821   7.935  29.000  0.2136 -0.1188 -0.0390
38910W        W82004   7.686   3.544  27.880 -0.0274 -0.0211 -0.1574
38911W        W82005   8.862   6.909  29.470 -0.1678  0.0074  0.1146
38912W        W82006  10.188   6.114  29.305  0.0148  0.1231  0.1105
38913W        W82007   9.741   4.347  27.269  0.1341 -0.1865  0.1561
38914W        W82008   8.534   5.898  29.504  0.1160 -0.3519  0.2445
38915W        W82009   7.800   6.852  27.743 -0.3501 -0.0110  0.2822
38916W        W82010  10.433   5.994  28.850  0.0541  0.0008 -0.1694
38917W        W82011   9.858   5.935  29.012 -0.2034 -0.0436  0.0802
38918W        W82012   9.650   7.413  27.664  0.0557  0.2084 -0.0457
38919W        W82013  10.926   3.388  31.261  0.0426 -0.1451  0.0464
38920W        W82014   9.238   6.958  30.453 -0.2658  0.2141  0.0300
38921W        W82015   7.946   5.730  30.897 -0.1761 -0.0950  0.0472
38922W        W82016   8.297   5.905  27.915 -0.1180 -0.0752  0.0821
38923W        W82017   7.938   5.253  29.101 -0.1553  0.1394  0.2135
38924W        W82018   7.828   5.287  28.639 -0.0243  0.1843 -0.1174
38925W        W82019  10.124   7.209  27.707 -0.1990 -0.1356  0.1950
38926W        W82020   9.493   7.480  29.912 -0.2773  0.1301 -0.2306
38927W        W82021   8.888   4.166  28.541 -0.0153 -0.2257 -0.1451
38928W        W82022  10.740   6.379  28.805  0.0109  0.0358  0.3446
38929W        W82023   9.457   3.162  29.008 -0.1412 -0.2955 -0.1224
38930W        W82024  10.757   3.515  28.884 -0.3638 -0.1313 -0.0219
38931W        W82025   9.580   3.164  29.492 -0.0221 -0.2846 -0.0764
38932W        W82026   7.928   4.487  30.346  0.3086  0.0049 -0.0399
38933W        W82027   7.519   5.679  28.572 -0.2302  0.1997  0.0579
38934W        W82028   8.692   7.587  28.751  0.1403  0.0067  0.1937
38935W        W82029   7.633   5.138  29.611 -0.0775 -0.1056  0.0408
38936W        W82030   9.355   3.832  30.332  0.1704  0.2267  0.2959
38937W        W82031   5.784   5.603  30.874  0.1545 -0.3551  0.0762
38938W        W82032   8.169   6.643  28.981 -0.0364  0.1092 -0.0815
38939W        W82033   8.239   4.878  27.534  0.0119  0.0903 -0.3269
38940W        W82034  10.738   6.906  28.945 -0.3028 -0.0217 -0.4037
38941W        W82035   7.926   1.576  29.095 -0.1909 -0.2911 -0.3479
38942W        W82036   7.860   3.137  28.739 -0.1509 -0.1026 -0.4097
38943W        W82037  10.117   6.794  27.410  0.2400 -0.1191  0.1474
38944W        W82038  10.111   7.122  28.410 -0.0672 -0.1520 -0.1237
38945W        W82039   8.755   2.063  28.486  0.1768  0.3775 -0.1726
38946W        W82040  10.925   6.774  30.278  0.0233 -0.3756 -0.2038
38947W        W82041   8.157   5.973  27.406  0.0639  0.0514 -0.1973
38948W        W82042   9.537   2.252  31.486  0.0683 -0.1952 -0.0079
38949W        W82043   8.991   3.181  29.310 -0.4210  0.1703  0.1069
38950W        W82044   7.316   3.760  27.589 -0.2962  0.1688 -0.1017
38951W        W82045   8.194   4.883  28.670 -0.0402  0.0223  0.0609
38952W        W82046   9.297   7.017  28.529  0.0876  0.0992  0.1485
38953W        W82047   9.107   8.598  29.151  0.0516  0.1919  0.3078
38954W        W82048   9.372   6.497  28.692 -0.2308 -0.0759  0.0864
38955W        W82049   8.303   7.342  31.883 -0.0340 -0.1110 -0.1147
38956W        W82050   8.091   3.131  30.004  0.0307  0.0165 -0.0450
38957W        W82051   9.815   6.016  27.952 -0.1931 -0.1411 -0.0442
38958W        W82052   8.851   6.624  30.289 -0.0932  0.1690  0.1478
38959W        W82053  10.346   6.719  28.650 -0.1309 -0.0034 -0.2985
38960W        W82054  10.679   2.823  31.325 -0.2294  0.0340  0.0057
38961W        W82055   9.590   5.596  28.158  0.0517  0.0890 -0.1429
38962W        W82056   7.318   3.563  29.431  0.2688  0.3153 -0.3806
38963W        W82057   7.429   5.592  31.009  0.1025 -0.0016 -0.2521
38964W        W82058   9.771   6.211  30.623 -0.1591 -0.0771  0.2906
38965W        W82059   8.242   1.964  29.326 -0.0159 -0.0709  0.1267
38966W        W82060   9.795   4.945  28.693  0.1476 -0.1513 -0.0064
38967W        W82061  10.033   7.588  28.079  0.2864  0.0767 -0.0794
38968W        W82062   9.778   4.109  30.205  0.3403  0.0090  0.1429
38969W        W82063  10.761   4.984  26.957 -0.0192 -0.2139  0.0376
38970W        W82064   9.838   5.584  31.132 -0.0239  0.1051  0.7069
38971W        W82065   9.896   7.508  29.050 -0.0281  0.0120 -0.4738
38972W        W82066   9.493   4.847  30.696 -0.0938  0.1006  0.2616
38973W        W82067   9.457   5.731  27.582  0.0248  0.0253  0.0883
38974W        W82068   9.710   6.365  26.757  0.5102 -0.0736 -0.0159
38975W        W82069   9.806   7.639  30.733  0.1147  0.2822  0.0968
38976W        W82070  12.261   8.074  30.872  0.2459  0.0278 -0.1548
38977W        W82071   9.137   7.140  29.965  0.0286 -0.2294  0.0441
38978W        W82072   9.791   3.595  29.555  0.0586 -0.0562  0.1292
38979W        W82073   7.813   3.225  29.562 -0.2191 -0.0199  0.0685
38980W        W82074   8.737   5.195  28.767  0.1874 -0.2121  0.1215
38981W        W82075   8.703   4.724  28.873  0.2381  0.1703  0.1750
38982W        W82076  11.476   5.406  29.145  0.0765  0.3257 -0.0872
38983W        W82077   8.865   3.672  29.481 -0.3841  0.1521 -0.2115
38984W        W82078  10.105   4.141  28.745 -0.1900 -0.2331 -0.0520
38985W        W82079   9.077   4.604  30.805 -0.1419 -0.1278 -0.0147
38986W        W82080   9.364   6.066  29.833  0.1002 -0.0391  0.1680
38987W        W82081   9.739   5.085  31.174 -0.1832 -0.1229  0.1006
38988W        W82082   9.373   5.799  30.641 -0.0535  0.0147 -0.0681
38989W        W82083   6.707   5.236  30.583 -0.4350 -0.1996  0.1144
38990W        W82084   8.377   5.356  30.887  0.1517  0.4079  0.3464
38991W        W82085   9.525   7.780   0.797  0.4086  0.1332 -0.2789
38992W        W82086   7.927   8.577  31.961  0.0267  0.0630  0.4604
38993W        W82087   9.918   3.721  31.628  0.4648 -0.0941 -0.1474
38994W        W82088   8.226   4.068  29.311  0.0904  0.0722  0.4232
38995W        W82089  10.645   5.091  30.011 -0.0570  0.0790  0.0020
38996W        W82090   8.088   6.857  31.848 -0.1122 -0.2401  0.1178
38997W        W82091   9.033   6.416  31.527  0.0086 -0.0115  0.3166
38998W        W82092   8.642   2.791  29.250  0.3796  0.0602  0.0194
38999W        W82093   9.327   6.368  30.825 -0.0154  0.3121  0.0860
39000W        W82094   8.490   6.568  31.673  0.0718 -0.1902 -0.1115
39001W        W82095  10.735   6.037  31.615 -0.1893 -0.1177 -0.2043
39002W        W82096   6.529   7.648  31.165  0.0969 -0.0188 -0.4726
39003W        W82097   8.161   6.407   1.483 -0.0042 -0.0257 -0.1946
39004W        W82098   8.987   5.909   0.423  0.2227 -0.1736  0.1799
39005W        W82099   6.960   6.073   0.488  0.2009  0.1227 -0.0146
39006W        W82100   8.883   4.242  30.414  0.0585 -0.2441 -0.1225
39007W        W82101   7.717   4.851  30.155  0.0330 -0.1695 -0.3482
39008W        W82102   6.712   6.190   0.136  0.2610 -0.0168  0.2439
39009W        W82103  10.576   3.568   0.380  0.1239  0.0951 -0.0935
39010W        W82104   9.628   3.863  30.788 -0.0256 -0.2286  0.2125
39011W        W82105   9.783   3.316  31.256 -0.0259 -0.2339 -0.4210
39012W        W82106   8.037   4.081  31.383 -0.3034  0.0621 -0.0594
39013W        W82107   7.878   5.468  31.943 -0.1266  0.0927  0.3039
39014W        W82108   5.423   4.746   1.206 -0.2601  0.0155  0.0571
39015W        W82109   7.595   5.295  30.616 -0.0808  0.1310  0.0370
39016W        W82110   8.682   4.166  29.556  0.0698  0.1707  0.1045
39017W        W82111   8.628   6.387   0.588 -0.1350 -0.1087 -0.0063
39018W        W82112   6.729   5.563  31.478 -0.0857  0.3260 -0.1005
39019W        W82113  10.516   6.140  31.181 -0.2860 -0.0204 -0.0955
39020W        W82114   9.585   3.278  31.847 -0.2416  0.2579  0.2850
39021W        W82115   7.324   4.256  30.244  0.1894  0.2878 -0.2037
39022W        W82116   8.574   6.053  31.511  0.0926  0.0555  0.0044
39023W        W82117   8.546   7.056  31.372  0.2825  0.1726 -0.2406
39024W        W82118  10.061   7.041  30.541  0.0401  0.1237  0.1351
39025W        W82119   8.753   6.641  31.034  0.1526 -0.0782  0.1439
39026W        W82120   9.158   5.648  31.179  0.1504  0.0952  0.4209
39027W        W82121  10.073   4.749  31.053  0.1294 -0.0501  0.0396
39028W        W82122   9.197   4.776  30.214  0.2259  0.0480  0.0528
39029W        W82123   7.941   3.652  29.305 -0.1742 -0.3182 -0.1464
39030W        W82124   9.120   6.416   1.183 -0.4123 -0.0299  0.2384
39031W        W82125   7.651   5.014   0.031 -0.0893 -0.1824 -0.3714
39032W        W82126   8.551   5.084  31.437 -0.1062 -0.1165 -0.0258
39033W        W82127   8.797   2.779  31.207  0.1647 -0.4366 -0.0686
39034W        W82128   9.156   6.763   1.513 -0.0163  0.2855  0.1541
39035W        W82129  10.551   4.952  31.804  0.0574 -0.2435 -0.2486
39036W        W82130   6.692   6.310  29.820 -0.0360 -0.0181  0.1745
39037W        W82131  10.225   6.855  30.998 -0.3032 -0.1379 -0.2240
39038W        W82132   9.995   3.253  30.769  0.1563  0.1485  0.0760
39039W        W82133   9.244   3.621  30.855 -0.3326 -0.3195  0.1108
39040W        W82134   9.441   5.313  30.866  0.2898 -0.1103  0.0703
39041W        W82135   7.436   5.853   0.532  0.1767 -0.0962 -0.3325
39042W        W82136  10.019   4.224  31.014  0.0167 -0.0734  0.0098
39043W        W82137  11.049   6.201  30.975 -0.4707  0.2542 -0.1670
39044W        W82138   9.124   8.173   0.828  0.2492 -0.1969  0.0914
39045W        W82139   9.495   6.479  31.272 -0.1957 -0.1002 -0.1395
39046W        W82140   6.846   4.212  31.585  0.2802  0.1767 -0.0480
39047W        W82141   7.300   4.915   0.351  0.1236  0.0680  0.1191
39048W        W82142   8.199   4.724  29.956 -0.1000  0.1635  0.0517
39049W        W82143   5.394   4.689  30.716  0.0306 -0.0978 -0.0753
39050W        W82144   6.837   4.047  30.200  0.2122  0.0163  0.0452
39051W        W82145  10.432   8.061   0.149  0.0789  0.0169  0.3711
39052W        W82146  11.773   5.070  31.935  0.3437 -0.2890 -0.0351
39053W        W82147   9.676   6.681  31.701 -0.0671  0.4473 -0.0784
39054W        W82148   7.360   9.683  19.465  0.1503 -0.0706  0.2295
39055W        W82149   7.998   8.680  16.588  0.0677 -0.0064 -0.1038
39056W        W82150  10.543   9.487  16.772  0.1226 -0.1417 -0.0082
39057W        W82151   9.755   9.886  17.233 -0.3233  0.0445  0.0817
39058W        W82152   7.087   7.570  19.179 -0.0215 -0.0227  0.1459
39059W        W82153   7.021  10.890  16.913 -0.3387 -0.2827  0.1522
39060W        W82154   8.585   5.357  19.566 -0.0526 -0.2472 -0.2625
39061W        W82155   8.791  11.100  17.607 -0.0432 -0.0979  0.1309
39062W        W82156   9.828  10.389  17.977 -0.1767  0.0778  0.0530
39063W        W82157   8.861  10.612  17.086  0.0924  0.2742  0.1490
39064W        W82158   8.667   9.673  19.294 -0.4516  0.1876 -0.0885
39065W        W82159   8.965  10.517  18.205 -0.0226  0.0558  0.3575
39066W        W82160   9.468   6.663  17.082  0.1942 -0.1521 -0.0908
39067W        W82161   7.519   6.526  18.009 -0.1321 -0.0519 -0.0522
39068W        W82162  10.182   8.928  18.312  0.0290 -0.1503 -0.1637
39069W        W82163   8.014   9.673  16.745  0.1050  0.3665 -0.2384
39070W        W82164   9.140   7.954  19.055 -0.0124  0.2859  0.2577
39071W        W82165   8.143   7.620  17.508 -0.1971  0.2245 -0.0133
39072W        W82166   9.143  10.721  18.645  0.0650 -0.1788  0.0679
39073W        W82167   8.704   7.867  19.465  0.1122  0.1388  0.0568
39074W        W82168  10.728   7.859  19.456  0.1402 -0.0451  0.1311
39075W        W82169   7.327  11.272  17.087 -0.3371  0.2771 -0.0072
39076W        W82170   6.727   8.634  17.080  0.0450 -0.2310 -0.2819
39077W        W82171   5.963  10.043  18.036  0.0566 -0.2054 -0.0422
39078W        W82172   7.997   8.527  18.061 -0.0199  0.1340  0.1772
39079W        W82173   8.896   7.780  17.784  0.1605 -0.0607 -0.1978
39080W        W82174  10.485   8.746  17.291  0.0084  0.0290  0.2191
39081W        W82175   8.302   9.749  17.139  0.0965  0.3749  0.0048
39082W        W82176  10.617  11.159  17.542 -0.0507 -0.2695  0.4874
39083W        W82177   9.914   8.569  18.652  0.2411  0.0421  0.0954
39084W        W82178   8.259   8.601  18.960 -0.0108  0.1085  0.0698
39085W        W82179   7.073  10.465  16.545  0.2152 -0.2938  0.2611
39086W        W82180   8.787   9.160  17.144 -0.0534  0.0118  0.2340
39087W        W82181  10.327  10.088  17.182  0.3301  0.1748 -0.2664
39088W        W82182   9.850  11.721  19.105  0.0988 -0.0081 -0.1264
39089W        W82183   8.193  10.785  19.526 -0.1324  0.3649  0.2810
39090W        W82184   8.290  10.127  16.672  0.0709  0.3296  0.1509
39091W        W82185   8.724   9.833  18.332  0.3834 -0.0586 -0.1151
39092W        W82186   9.311   8.449  20.376 -0.0128  0.2480  0.0567
39093W        W82187   8.559   7.915  17.445  0.2360  0.3484 -0.2940
39094W        W82188   7.872   9.220  16.863  0.0563 -0.0931 -0.0528
39095W        W82189   8.244  11.500  16.544 -0.1144  0.3357  0.2079
39096W        W82190   9.699  11.517  17.619  0.3715 -0.2976 -0.4311
39097W        W82191   6.839   9.521  19.717  0.1844  0.2996 -0.4118
39098W        W82192   7.670  10.978  17.701 -0.2216 -0.1888  0.0042
39099W        W82193   9.949   8.080  19.988 -0.1817 -0.1927 -0.0744
39100W        W82194   8.679  10.536  16.358  0.2961 -0.2656 -0.0179
39101W        W82195   9.370   8.296  17.125 -0.5454 -0.1347  0.4245
39102W        W82196   8.504   8.187  16.100 -0.1832  0.1439 -0.0220
39103W        W82197  10.901   7.720  16.841  0.2602  0.2558  0.1658
39104W        W82198   9.685   6.379  18.010 -0.0167  0.0597 -0.1443
39105W        W82199   8.173  10.498  16.232  0.1024  0.1034  0.0836
39106W        W82200   8.152   6.610  19.685 -0.0491  0.2862 -0.1966
39107W        W82201   9.281  10.851  17.834  0.0181 -0.0464 -0.2836
39108W        W82202  10.130   8.086  16.425 -0.0248  0.0884 -0.0118
39109W        W82203   8.920   8.926  18.448 -0.0405  0.0111 -0.0227
39110W        W82204   8.113   9.945  17.618  0.2240 -0.1518 -0.3638
39111W        W82205   6.787   8.371  18.226 -0.1912  0.0091 -0.1958
39112W        W82206  10.372  10.993  15.984 -0.2186  0.0255  0.0468
39113W        W82207  11.437  10.090  16.099 -0.1505  0.1400  0.2345
39114W        W82208   9.121  10.117  17.389  0.0633  0.0987 -0.0546
39115W        W82209   6.794   7.806  16.845 -0.2892 -0.1834 -0.0154
39116W        W82210   7.391   8.301  18.829 -0.1928  0.0771 -0.1328
39117W        W82211   6.431   9.229  18.978 -0.1328 -0.4013 -0.0033
39118W        W82212   9.882   7.627  17.078 -0.1052  0.0830 -0.0893
39119W        W82213   9.847   9.876  18.759  0.1707 -0.4212 -0.3296
39120W        W82214   7.878  10.356  18.393 -0.1291 -0.3354  0.0818
39121W        W82215  11.497   8.199  18.240 -0.1826 -0.0825  0.2259
39122W        W82216   8.587   9.260  17.544  0.1415  0.1631 -0.1111
39123W        W82217   9.847   9.815  18.029 -0.1945 -0.2566 -0.0261
39124W        W82218   9.918   8.911  15.972 -0.0432 -0.0085  0.0737
39125W        W82219  10.835   7.549  17.293 -0.0219  0.1152  0.0209
39126W        W82220  10.092   7.061  18.644 -0.1907 -0.2745 -0.0736
39127W        W82221   8.853   7.532  16.124  0.0912  0.0048  0.2351
39128W        W82222   9.069   7.723  16.722  0.0602  0.3031 -0.2413
39129W        W82223   8.863  11.274  17.112 -0.1384 -0.1181  0.2914
39130W        W82224  11.281   9.862  16.524  0.2382  0.0637  0.0181
39131W        W82225   6.755  10.416  19.478 -0.1457 -0.0851 -0.1015
39132W        W82226   8.799   7.447  20.923  0.0305 -0.1200  0.1106
39133W        W82227   7.796   9.340  19.643  0.1285 -0.2402 -0.0603
39134W        W82228   7.982   9.727  15.902 -0.2984 -0.0677 -0.2129
39135W        W82229   6.485   9.433  19.402  0.2526 -0.0398 -0.1429
39136W        W82230   7.488   8.790  15.871  0.2923  0.0660 -0.0631
39137W        W82231   6.714   7.498  18.871 -0.1566  0.0356  0.2926
39138W        W82232   8.077   9.440  17.644  0.0079 -0.2098 -0.0045
39139W        W82233   9.952   8.682  16.964  0.0458  0.1097  0.0676
39140W        W82234   6.272   7.679  18.850  0.2462 -0.2265 -0.2929
39141W        W82235  11.116   8.172  18.663  0.1222  0.0826 -0.0455
39142W        W82236   8.796  10.140  16.956 -0.0284  0.1204 -0.1070
39143W        W82237   9.315  11.580  17.038 -0.1151 -0.1300 -0.0361
39144W        W82238  10.068   7.205  15.495  0.2374 -0.0731  0.1017
39145W        W82239   8.107  11.053  16.753  0.0778 -0.0628  0.3904
39146W        W82240   7.889   8.287  18.970  0.0586 -0.1097 -0.0554
39147W        W82241   8.004   8.072  18.366 -0.0510  0.1061  0.0060
39148W        W82242   8.370   6.615  21.375  0.1623 -0.2191  0.0562
39149W        W82243   7.493   6.790  17.589  0.1114  0.0995 -0.0852
39150W        W82244   9.599   6.825  18.732  0.1567  0.2083  0.3623
39151W        W82245   7.508   6.583  16.888 -0.0878 -0.4184  0.2021
39152W        W82246   9.819   7.701  18.580  0.0152  0.0782 -0.0518
39153W        W82247   5.943   8.304  17.610  0.3132  0.0670 -0.3116
39154W        W82248   8.666  10.858  15.951  0.2872  0.1565 -0.3850
39155W        W82249  11.107   7.421  18.282 -0.2017 -0.2425  0.2777
39156W        W82250   8.752  11.836  16.360 -0.2815 -0.0337  0.0947
39157W        W82251   8.877   9.772  19.795 -0.4371 -0.0526 -0.1537
39158W        W82252  10.391  12.565  17.097 -0.3053  0.2146  0.2946
39159W        W82253   8.187   6.978  20.071  0.1929  0.3007 -0.1033
39160W        W82254   8.011   8.092  16.248 -0.2433 -0.0815 -0.0841
39161W        W82255   8.163  10.772  18.470 -0.2822 -0.0899  0.2953
39162W        W82256   8.556  10.740  18.097 -0.0687  0.1857 -0.0845
39163W        W82257   8.339   8.442  17.546 -0.0472 -0.3099  0.1638
39164W        W82258  11.640  11.415  18.481 -0.1307 -0.1519  0.0037
39165W        W82259   7.481   9.807  17.698 -0.1362 -0.5106 -0.0924
39166W        W82260   7.167   8.869  17.656 -0.1389  0.0132 -0.2212
39167W        W82261   9.814   7.335  18.922 -0.1056  0.0920  0.0837
39168W        W82262   9.633   9.022  17.654 -0.0055 -0.0836  0.0954
39169W        W82263   8.829   7.368  19.217  0.0215  0.3302  0.2057
39170W        W82264   7.098   9.218  16.522  0.0273 -0.4009  0.0001
39171W        W82265   9.812  11.328  17.070  0.0484 -0.0036  0.0665
39172W        W82266   5.944  10.412  15.688 -0.2271 -0.0809  0.0360
39173W        W82267   6.888   9.627  18.233 -0.1581 -0.6022 -0.1969
39174W        W82268   8.438  11.027  17.164 -0.0555 -0.0006 -0.3016
39175W        W82269   8.929   8.264  17.633 -0.2097 -0.0746  0.0551
39176W        W82270   7.104   8.247  19.262  0.0947  0.0288 -0.1054
39177W        W82271   9.075   9.667  17.648 -0.1836  0.0079  0.1202
39178W        W82272   7.681   8.551  16.216 -0.0694 -0.0201  0.2116
39179W        W82273   7.191  10.339  17.708  0.0164  0.0524  0.0163
39180W        W82274   9.844   7.729  16.561  0.4779  0.1359 -0.4241
39181W        W82275   9.851   8.205  16.839 -0.0496 -0.2269  0.1959
39182W        W82276   9.758  10.969  17.539 -0.1343 -0.0804 -0.4818
39183W        W82277  10.139   8.975  16.410  0.1404  0.1733 -0.0801
39184W        W82278   9.415   8.132  16.589  0.4284  0.3290 -0.0331
39185W        W82279   9.430   8.175  15.771  0.1879  0.3899  0.0355
39186W        W82280   7.959  10.108  20.790  0.1618  0.0288  0.3512
39187W        W82281   9.392  10.431  17.038  0.1358 -0.0428 -0.0328
39188W        W82282   8.110   8.890  17.411 -0.1576 -0.3192  0.0192
39189W        W82283   9.888   8.571  16.474  0.0776  0.0853 -0.2639
39190W        W82284  11.417  10.261  17.287  0.0140 -0.0785  0.1132
39191W        W82285   8.328   9.555  19.750  0.1867 -0.2375  0.2157
39192W        W82286   9.855   8.100  19.440 -0.0280  0.0899 -0.3893
39193W        W82287  10.182  10.683  17.713 -0.0537 -0.0286 -0.0919
39194W        W82288   8.298   7.385  19.257 -0.2311 -0.1075  0.3383
39195W        W82289   7.946   6.923  16.822 -0.1428 -0.0636  0.2670
39196W        W82290   7.675   7.353  19.291  0.4522 -0.0832 -0.3576
39197W        W82291   5.984   9.128  17.383 -0.2187  0.2202  0.1566
39198W        W82292   8.893   8.449  18.353  0.2361  0.4316  0.0846
39199W        W82293   9.232   7.330  17.793  0.1180 -0.2051  0.1054
39200W        W82294   7.981   7.613  18.892  0.0444  0.0880  0.1029
39201W        W82295  11.261   8.615  18.501 -0.1862 -0.4374  0.2807
39202W        W82296  10.258   9.582  17.210 -0.2777  0.1744 -0.1170
39203W        W82297   9.703   9.327  17.265  0.0752 -0.0290  0.4479
39204W        W82298   8.974   8.942  16.685 -0.0142  0.2679  0.1194
39205W        W82299   9.334   7.117  19.088  0.1148 -0.0134  0.2122
39206W        W82300   8.082   9.020  18.071 -0.1049  0.0245  0.0727
39207W        W82301   7.250  10.344  19.620 -0.0709 -0.4473  0.2067
39208W        W82302   9.421   8.919  20.389  0.0739  0.1274 -0.1007
39209W        W82303   9.269   9.590  17.179  0.1982 -0.2978  0.4046
39210W        W82304   8.516   6.956  19.728  0.0651 -0.3756  0.2907
39211W        W82305  10.277   8.476  16.122  0.2081  0.1270  0.1701
39212W        W82306   8.918  11.444  17.903  0.1116 -0.0058 -0.2940
39213W        W82307   8.855   9.585  16.128 -0.2595  0.3766 -0.1816
39214W        W82308   7.873   7.581  18.063  0.1996 -0.2393  0.2432
39215W        W82309   9.405   9.222  16.883  0.1697  0.0918 -0.2114
39216W        W82310   8.782   9.882  16.534  0.3236 -0.1992  0.0718
39217W        W82311   9.637   8.798  19.028 -0.0402 -0.0672  0.1012
39218W        W82312   8.699  11.705  15.672 -0.1101  0.2400  0.2531
39219W        W82313  10.480   7.094  18.150  0.1456 -0.3893  0.2085
39220W        W82314   7.465  11.554  17.642 -0.3672  0.1083 -0.0939
39221W        W82315   7.988   8.458  17.075 -0.0555  0.1288  0.1800
39222W        W82316   7.254   7.006  18.275  0.1541  0.4025 -0.1351
39223W        W82317  11.493   7.667  18.007 -0.3235 -0.0464 -0.2525
39224W        W82318  10.404   9.019  16.898  0.0943  0.0549 -0.5873
39225W        W82319   8.185   7.194  17.965 -0.2119  0.0065 -0.0702
39226W        W82320   9.448   6.890  18.101  0.4031  0.1586  0.2119
39227W        W82321   7.471  10.091  19.137  0.3997 -0.4066 -0.1240
39228W        W82322   9.400   8.650  18.476  0.0738  0.3395  0.1363
39229W        W82323   9.698   7.378  16.243  0.2352  0.0607  0.0885
39230W        W82324   8.808   8.729  19.647 -0.0539 -0.3677  0.1344
39231W        W82325   8.495   9.080  18.767 -0.2121  0.1335 -0.2560
39232W        W82326   6.917   6.648  16.840 -0.2341 -0.0052 -0.3707
39233W        W82327   8.865   8.317  18.869 -0.2079 -0.1955 -0.0323
39234W        W82328   8.285   7.146  17.367 -0.2143  0.0977  0.3759
39235W        W82329   8.353   8.256  16.628 -0.2231 -0.1575 -0.1431
39236W        W82330   9.617  10.420  17.464 -0.2400 -0.0039  0.2488
39237W        W82331   7.971   8.027  17.311  0.2620  0.2310 -0.0327
39238W        W82332   9.692  11.974  17.955  0.2041  0.1471  0.2890
39239W        W82333   8.646   8.379  19.286 -0.0438  0.0281  0.1347
39240W        W82334  10.615   8.051  18.534  0.1000  0.1580 -0.1169
39241W        W82335   8.401   7.778  17.930  0.1501 -0.2561 -0.1150
39242W        W82336   8.831   8.184  16.683  0.0351  0.2175  0.4020
39243W        W82337   7.578   7.616  17.505 -0.0760  0.0764 -0.1099
39244W        W82338   9.934  10.315  17.084 -0.2692 -0.1463  0.1219
39245W        W82339  10.131   7.345  18.273 -0.2517  0.0595  0.3762
39246W        W82340   7.857   9.839  19.115 -0.0417  0.0118  0.4277
39247W        W82341   8.686   6.326  18.625 -0.0024 -0.2753 -0.1119
39248W        W82342  10.570  11.063  16.449  0.0323  0.1535 -0.3399
39249W        W82343  10.073   8.570  19.766 -0.2064  0.4464  0.0153
39250W        W82344   9.085   8.791  16.253 -0.3269  0.1161 -0.0779
39251W        W82345   7.590   8.417  16.778  0.3253  0.0246  0.0701
39252W        W82346   8.409  10.595  16.865 -0.3144 -0.0015  0.0899
39253W        W82347   8.484   8.146  18.567  0.1852 -0.0130  0.1802
39254W        W82348   7.357  10.992  18.934  0.0784 -0.1416  0.0975
39255W        W82349   9.552  10.777  16.442  0.0019 -0.0832  0.0596
39256W        W82350   6.927  10.194  19.012 -0.1259 -0.1887  0.1156
39257W        W82351  10.405   7.768  17.457 -0.1177 -0.1980  0.2852
39258W        W82352  10.679  10.532  16.565 -0.0153  0.2764  0.3975
39259W        W82353   8.734   7.461  17.087 -0.0659 -0.0595  0.1973
39260W        W82354   9.656   8.651  19.485  0.1706 -0.0575 -0.3103
39261W        W82355  10.289  11.536  17.392 -0.0632 -0.4989  0.1378
39262W        W82356  10.139   8.096  18.820  0.2072 -0.0209  0.1186
39263W        W82357   5.815   8.343  18.128  0.0061 -0.2019 -0.0388
39264W        W82358   9.839  10.385  16.601  0.1610  0.2783  0.0551
39265W        W82359   7.548   7.832  18.698 -0.0320  0.1649 -0.0563
39266W        W82360   9.850  11.748  20.212 -0.1486 -0.2408  0.2856
39267W        W82361   7.243   9.229  19.878  0.0685  0.1442  0.3324
39268W        W82362   8.919   8.537  17.043  0.3256  0.0878  0.2193
39269W        W82363   7.966   6.398  16.016  0.1025 -0.2630  0.0505
39270W        W82364   7.361   7.893  19.618 -0.3232 -0.3100 -0.0331
39271W        W82365   9.807  10.963  18.031  0.3904  0.4799 -0.1115
39272W        W82366   9.095  10.526  16.602  0.0850  0.1779 -0.0458
39273W        W82367   9.681   8.708  18.042 -0.0135 -0.2511 -0.2753
39274W        W82368   7.022   9.067  17.232  0.3549  0.0119 -0.2579
39275W        W82369   7.990  10.793  17.210 -0.1022 -0.2261  0.1873
39276W        W82370   8.063  10.179  17.170 -0.0877 -0.2300 -0.2869
39277W        W82371   7.521   9.506  16.631  0.0606 -0.2310 -0.2352
39278W        W82372   8.068   7.192  19.662 -0.0781 -0.0695 -0.2988
39279W        W82373   9.477   9.917  17.729  0.2883  0.0309  0.0466
39280W        W82374   9.256   7.361  17.263 -0.0393 -0.2520  0.0015
39281W        W82375   9.318   7.525  18.780 -0.2327  0.0718 -0.0880
39282W        W82376   7.686   9.005  17.738 -0.2614 -0.2585 -0.0543
39283W        W82377   9.144   9.739  18.127  0.4275  0.2843 -0.2410
39284W        W82378   8.952   7.182  18.672  0.0837 -0.1554 -0.0013
39285W        W82379   9.946  11.882  19.584  0.1868 -0.0213 -0.1955
39286W        W82380   9.792  10.818  16.990  0.2408 -0.0232  0.1457
39287W        W82381  11.675   8.701  17.512  0.2260 -0.4446  0.0185
39288W        W82382  10.677   8.341  17.555 -0.2525 -0.1154  0.1384
39289W        W82383   9.538   8.613  16.092 -0.1542  0.0559 -0.0220
39290W        W82384   7.832   7.216  17.619  0.0236  0.0235  0.1973
39291W        W82385   9.703   9.039  18.595 -0.0285  0.0623  0.3588
39292W        W82386   9.841   5.468  16.111  0.2734  0.1338 -0.1600
39293W        W82387   9.727   7.354  17.961  0.2605  0.0008  0.3305
39294W        W82388   8.421  11.909  17.149  0.0761  0.2405 -0.0572
39295W        W82389   9.109  11.420  16.584  0.1724 -0.0281  0.3066
39296W        W82390   8.460   8.782  17.026 -0.0701 -0.0643  0.1585
39297W        W82391   6.235   8.986  16.895 -0.1197  0.1412 -0.2045
39298W        W82392   8.725   9.201  19.930  0.1304  0.2756 -0.1241
39299W        W82393   6.685   8.405  16.101  0.4512 -0.1147 -0.0364
39300W        W82394   8.682   9.135  16.277  0.1387 -0.2139  0.0459
39301W        W82395   8.090   9.924  18.600 -0.0065 -0.1694 -0.2073
39302W        W82396   8.550   9.146  19.293  0.3020 -0.1712 -0.0643
39303W        W82397   9.337   7.748  16.227  0.0579  0.0645 -0.1063
39304W        W82398  11.400   8.681  19.467  0.3023  0.1788  0.1813
39305W        W82399   7.919  10.250  15.885  0.0054  0.1496  0.0339
39306W        W82400   8.334   6.739  18.165  0.0390  0.0156 -0.1027
39307W        W82401   6.951  10.662  19.973  0.2003  0.0749 -0.1882
39308W        W82402   7.632  10.013  18.702 -0.0035  0.0216  0.0463
39309W        W82403   7.655  10.814  18.361 -0.3669  0.1138 -0.0592
39310W        W82404   9.524   7.702  19.172 -0.0058  0.4826 -0.3025
39311W        W82405   9.371   8.577  17.630 -0.0717 -0.1972 -0.2837
39312W        W82406   8.383  10.590  17.492  0.1743 -0.1302 -0.0114
39313W        W82407  10.125   8.442  18.125 -0.0127  0.0500  0.0648
39314W        W82408   9.785   8.346  20.593  0.2500 -0.0126  0.2057
39315W        W82409   7.574   8.050  17.994  0.1429  0.2107 -0.1153
39316W        W82410   9.078  11.029  19.036  0.2001  0.3986 -0.3227
39317W        W82411   9.963   9.260  16.767 -0.1667  0.1033  0.1295
39318W        W82412   7.592   8.827  17.048  0.1685  0.1712 -0.1891
39319W        W82413   7.247   7.364  19.619 -0.1810 -0.2279 -0.0299
39320W        W82414   8.993   7.881  20.606  0.0810  0.0554 -0.1320
39321W        W82415   9.245   9.137  17.383  0.0707  0.2113  0.0760
39322W        W82416   9.772   8.187  17.885 -0.0059  0.3428  0.0046
39323W        W82417   9.057  11.008  16.296 -0.2782 -0.1495 -0.1279
39324W        W82418   6.433  10.148  19.813 -0.1126 -0.0558 -0.1596
39325W        W82419   7.992   9.032  19.252  0.0949  0.0235  0.1530
39326W        W82420   8.659  10.992  16.742 -0.0761  0.1299  0.1377
39327W        W82421   7.985  10.877  15.937 -0.4997  0.1147 -0.1532
39328W        W82422   9.571   9.002  16.446 -0.1515 -0.0459 -0.2180
39329W        W82423   8.558  11.541  17.462 -0.1053 -0.0553 -0.0342
39330W        W82424   9.040   8.188  16.132 -0.0683  0.2658  0.0477
39331W        W82425   7.803   9.660  17.281 -0.4558  0.1345 -0.0984
39332W        W82426   8.324   9.922  15.588 -0.2834  0.3615 -0.5364
39333W        W82427   9.542   9.326  16.018  0.2176  0.0208 -0.2898
39334W        W82428   7.245   8.546  17.193  0.0433  0.1958  0.2636
39335W        W82429  10.198   9.403  20.532 -0.0961  0.2114 -0.2461
39336W        W82430  11.084   8.204  16.638 -0.1831 -0.0812  0.0552
39337W        W82431   9.419   8.637  16.731  0.0550  0.2076 -0.0232
39338W        W82432  10.906   7.263  16.696  0.2034 -0.1422 -0.1002
39339W        W82433   9.475  10.001  19.054 -0.0406 -0.0782 -0.2837
39340W        W82434   8.856   7.978  18.226  0.3010  0.0774  0.2174
39341W        W82435   8.824   7.284  16.551  0.3945 -0.0990  0.0433
39342W        W82436   8.665   8.263  19.760 -0.0886  0.0551 -0.1187
39343W        W82437  10.506   8.528  18.403 -0.0618  0.0764 -0.2187
39344W        W82438   7.542  10.877  20.357  0.2625 -0.1939  0.2118
39345W        W82439  10.043  11.257  16.269  0.2122 -0.2284 -0.1624
39346W        W82440   7.479   8.152  17.382 -0.1982  0.0348 -0.2224
39347W        W82441   7.448   9.294  17.164  0.0084 -0.0448 -0.2510
39348W        W82442  12.396   6.539  18.502 -0.0100 -0.0649  0.2309
39349W        W82443   9.167   9.255  16.335  0.0397  0.1140 -0.1603
39350W        W82444   8.483   8.262  17.121  0.3542  0.0069 -0.0385
39351W        W82445   8.495   9.172  18.299  0.1505  0.3400 -0.3034
39352W        W82446   8.639  10.974  18.599  0.0449 -0.2586  0.1732
39353W        W82447   8.892  10.106  17.927  0.2384 -0.0062 -0.0192
39354W        W82448   7.624   7.842  17.017 -0.3253  0.1731 -0.0917
39355W        W82449  11.249   8.872  17.194  0.1283 -0.0053  0.1168
39356W        W82450   7.678   8.799  18.952  0.3825 -0.1602 -0.1254
39357W        W82451  10.627   7.495  19.075  0.0375 -0.1638  0.1542
39358W        W82452   8.792   6.545  18.032 -0.2194 -0.1266  0.2047
39359W        W82453   9.499   7.783  18.059 -0.0017  0.2657 -0.0495
39360W        W82454   8.795   8.801  19.032 -0.1031 -0.0125 -0.0871
39361W        W82455   7.174   8.112  16.881  0.1159 -0.0391 -0.1711
39362W        W82456   8.968   7.941  17.160 -0.2573  0.1338  0.0498
39363W        W82457  11.389  10.864  18.583 -0.3532  0.0395 -0.0693
39364W        W82458  10.101   9.360  16.038  0.2484 -0.0864  0.1487
39365W        W82459   9.592  10.898  18.824 -0.1705  0.0546  0.1406
39366W        W82460   7.590   7.091  17.192 -0.2401  0.0142 -0.0326
39367W        W82461   8.573   8.309  18.000 -0.3088  0.2276 -0.3794
39368W        W82462   7.162   7.808  17.878  0.1183  0.0117 -0.1022
39369W        W82463   8.447   8.683  18.316 -0.0098 -0.0451  0.0288
39370W        W82464  10.405  11.171  18.957 -0.0569  0.0102 -0.0735
39371W        W82465   6.703   7.733  17.685 -0.1743 -0.2250 -0.0068
39372W        W82466  10.811   9.871  16.614 -0.0548  0.0820  0.1342
39373W        W82467  10.602   8.100  18.034  0.0846  0.0839  0.2056
39374W        W82468  10.387   9.898  16.093  0.1064 -0.0256 -0.0984
39375W        W82469   8.521   8.898  17.896 -0.0529  0.1620  0.1546
39376W        W82470   9.418  10.010  16.749 -0.0645  0.3339 -0.1524
39377W        W82471   6.312   8.131  18.113  0.0197  0.0042 -0.0013
39378W        W82472   8.864  10.572  17.721 -0.1879  0.1655 -0.2270
39379W        W82473   9.381  10.907  17.282  0.2390  0.0013  0.2009
39380W        W82474   8.577   6.903  17.766  0.1781  0.2913  0.0790
39381W        W82475   8.892   9.270  17.994 -0.1155  0.0152 -0.1851
39382W        W82476   7.360  10.214  16.194 -0.0558 -0.0434 -0.1754
39383W        W82477  12.158   8.437  17.559 -0.0195 -0.1353  0.2772
39384W        W82478   9.748   6.271  19.435  0.0615  0.0935  0.0494
39385W        W82479   9.153   9.585  16.678  0.0034 -0.3482 -0.0587
39386W        W82480   9.500   8.142  19.863  0.0038 -0.0405  0.2369
39387W        W82481   9.324   9.069  18.183  0.2024  0.1400  0.0564
39388W        W82482   8.633   9.416  20.727  0.1771  0.2832  0.1508
39389W        W82483   6.818   8.305  16.576  0.0302  0.0231 -0.0257
39390W        W82484   9.261   8.224  18.106 -0.1870  0.0727 -0.0567
39391W        W82485   8.297   9.283  17.077  0.0611 -0.1692 -0.1589
39392W        W82486   7.717  11.434  16.835  0.1309  0.1154  0.0287
39393W        W82487  10.824   9.002  17.637 -0.0669 -0.1841 -0.0075
39394W        W82488   8.634   7.395  18.330 -0.1399  0.1277 -0.2452
39395W        W82489  10.139   9.017  17.830  0.1475  0.0118 -0.0738
39396W        W82490   9.266   6.751  17.653  0.1818  0.2752 -0.0040
39397W        W82491   9.620   7.598  17.534 -0.0795 -0.1337 -0.2449
39398W        W82492   9.304   7.974  17.567 -0.0926  0.0085 -0.0797
39399W        W82493   8.011   8.035  17.827  0.0601 -0.2972  0.2991
39400W        W82494   8.395   9.562  16.301  0.1051 -0.2621  0.1071
39401W        W82495   8.261   9.104  16.544  0.0366 -0.1796 -0.5863
39402W        W82496   7.303  10.030  17.256 -0.2305 -0.1679 -0.1746
39403W        W82497   9.153   6.579  18.449  0.0859  0.4168  0.0296
39404W        W82498   8.226   8.178  19.460  0.1107 -0.1594 -0.2606
39405W        W82499   7.943   7.446  17.073  0.4386 -0.0710 -0.2021
39406W        W82500   7.002   6.788  17.872  0.0555 -0.1076 -0.1595
39407W        W82501  11.024   9.466  16.711  0.0734 -0.0158  0.2978
39408W        W82502   8.350   7.368  16.752 -0.0423  0.1759 -0.0435
39409W        W82503   6.380   7.870  17.410 -0.2567 -0.0666 -0.2427
39410W        W82504   9.977   9.933  16.809  0.0992  0.1121 -0.0982
39411W        W82505  10.210  11.061  17.253  0.1300  0.1010 -0.0396
39412W        W82506   8.433   7.270  18.784 -0.2466 -0.1547  0.0609
39413W        W82507  10.517   9.198  18.632 -0.1417  0.0183 -0.2921
39414W        W82508   8.426  10.051  16.175  0.0671  0.0997  0.4450
39415W        W82509   9.961   6.498  19.787  0.3553 -0.0802  0.1803
39416W        W82510   8.975   6.296  20.714  0.0953  0.1761  0.1129
39417W        W82511   7.988   7.131  15.799 -0.1495 -0.0399  0.0660
39418W        W82512  10.011   7.760  17.799 -0.0993 -0.2680  0.1401
39419W        W82513  10.726  11.015  18.035  0.2999  0.1432  0.0663
39420W        W82514  10.344   9.875  15.581 -0.3572  0.0089 -0.0019
39421W        W82515   8.050  10.360  18.859  0.3757 -0.0563 -0.3713
39422W        W82516   8.487  10.222  18.606  0.1061 -0.4170 -0.1423
39423W        W82517   6.510   8.346  17.636 -0.2596 -0.0722 -0.4300
39424W        W82518   9.628   9.632  16.528 -0.4095 -0.0077 -0.3248
39425W        W82519   8.477   8.643  20.122 -0.1722 -0.2017  0.0608
39426W        W82520   9.847  11.199  18.511 -0.1261  0.1103 -0.2171
39427W        W82521  11.146   8.097  17.837 -0.0766  0.0578 -0.2168
39428W        W82522  10.108   9.605  16.469 -0.1676 -0.0337 -0.2073
39429W        W82523   7.428   7.396  17.931 -0.2713  0.0568 -0.1697
39430W        W82524   7.874   9.822  19.651  0.2619  0.0157 -0.3210
39431W        W82525  10.532   9.338  17.569 -0.1592 -0.0565 -0.0275
39432W        W82526   7.895   6.715  17.304 -0.1402  0.0094  0.1215
39433W        W82527  10.085   7.308  17.523 -0.1384  0.1462  0.1470
39434W        W82528   9.250  11.014  16.832 -0.2004 -0.1985  0.1110
39435W        W82529   7.202   8.170  18.318  0.0227 -0.1479  0.1851
39436W        W82530   8.596   8.634  16.418 -0.4676 -0.0217  0.0968
39437W        W82531   8.804   9.726  17.200  0.4215 -0.4043  0.1925
39438W        W82532   8.516   9.723  17.723 -0.1716  0.1445 -0.2828
39439W        W82533  10.354   7.626  18.704  0.1842 -0.0332 -0.0301
39440W        W82534   7.986   7.746  16.572  0.1929  0.2303 -0.0502
39441W        W82535  12.048   9.455  16.416 -0.0390 -0.0472 -0.3133
39442W        W82536   9.071  11.404  19.385  0.2628  0.1911 -0.1386
39443W        W82537  10.080   9.436  18.535 -0.1655 -0.1644 -0.0808
39444W        W82538   8.200   9.957  20.020 -0.1653  0.3538 -0.1086
39445W        W82539   8.420   7.811  19.008 -0.2809 -0.1728 -0.0092
39446W        W82540   7.684   7.360  18.487 -0.1057 -0.1142 -0.0752
39447W        W82541   9.420   7.789  17.048  0.0198  0.0155  0.2026
39448W        W82542   9.508   8.807  17.176 -0.1146 -0.1172  0.3804
39449W        W82543  10.130   7.901  18.255  0.1680 -0.1724  0.1637
39450W        W82544   8.960   9.384  18.451 -0.1674 -0.0190 -0.1902
39451W        W82545   9.680   8.202  18.437 -0.1128  0.1159  0.1509
39452W        W82546   8.624  11.188  19.657 -0.0568  0.1518 -0.0868
39453W        W82547   8.755   8.681  17.487 -0.0653  0.2374 -0.2763
39454W        W82548   8.776  10.957  22.924  0.1457  0.1933  0.0903
39455W        W82549   7.690   5.743  20.105 -0.3045 -0.1874  0.2145
39456W        W82550   9.871   7.834  20.956 -0.1330 -0.0174  0.0417
39457W        W82551  10.316   8.573  21.180  0.2476  0.0481 -0.2701
39458W        W82552   7.356   7.416  21.774  0.0968  0.1573 -0.1084
39459W        W82553   9.860  11.834  21.060  0.2539 -0.1430  0.0442
39460W        W82554   8.324   8.375  20.776 -0.3644 -0.0459  0.3027
39461W        W82555  10.122  10.049  21.438  0.0619  0.0295  0.2574
39462W        W82556   9.637  12.121  22.044 -0.0414 -0.1872  0.0859
39463W        W82557   9.705   8.553  20.122  0.2751 -0.0172 -0.1601
39464W        W82558   9.022   8.900  21.363  0.2283 -0.0551 -0.1990
39465W        W82559   9.005  10.513  23.561 -0.1748  0.0440  0.1973
39466W        W82560   8.958   6.315  21.221  0.0407  0.1078 -0.1896
39467W        W82561   6.648   7.609  20.973  0.0142 -0.1256  0.1416
39468W        W82562   8.620  10.739  21.147 -0.1455  0.0989  0.1979
39469W        W82563   7.886   9.200  20.638 -0.2209  0.0981  0.1369
39470W        W82564   8.787   8.438  20.585 -0.1070 -0.0770  0.1208
39471W        W82565   7.888   7.197  20.496 -0.0831  0.0264  0.0669
39472W        W82566   8.652  12.933  23.077  0.0242  0.1054  0.1714
39473W        W82567   8.489   9.434  22.464 -0.1999  0.2633  0.4340
39474W        W82568   9.113   7.589  23.184  0.2291  0.2313 -0.3469
39475W        W82569   9.261   8.650  19.917  0.4675 -0.1472  0.1371
39476W        W82570   6.666   7.862  19.207 -0.0417 -0.2798  0.1132
39477W        W82571   8.319   8.271  21.307 -0.2228 -0.0533  0.1118
39478W        W82572   7.849   9.191  21.290  0.0743  0.0208  0.1284
39479W        W82573  11.203   7.520  21.423 -0.0732 -0.0503  0.0389
39480W        W82574   9.511   7.257  21.946  0.0641  0.0214 -0.1521
39481W        W82575   9.677   9.810  21.454 -0.0288  0.0653  0.3180
39482W        W82576   9.048   9.436  19.461  0.0945  0.1606  0.4513
39483W        W82577   9.891   8.738  23.978 -0.4064 -0.0121 -0.0726
39484W        W82578   7.463   9.826  19.913 -0.1230  0.2003  0.0433
39485W        W82579   7.157  11.020  21.683  0.4096  0.0006 -0.1621
39486W        W82580   8.195  10.678  21.418 -0.2382  0.2562 -0.1577
39487W        W82581  10.392   9.894  20.441 -0.0706 -0.2278 -0.0449
39488W        W82582  12.215  10.052  23.436  0.0847  0.1430 -0.1305
39489W        W82583   8.413  10.885  21.935  0.2067 -0.0066  0.0257
39490W        W82584   7.436   9.911  20.708 -0.2693 -0.2402  0.2876
39491W        W82585   9.220  11.329  20.796 -0.0457 -0.1142 -0.1226
39492W        W82586   7.506   9.978  22.015 -0.1896  0.0912 -0.0582
39493W        W82587   8.535   8.715  21.084  0.1002  0.0282  0.0569
39494W        W82588   9.420   9.742  20.594  0.1623 -0.0471 -0.2665
39495W        W82589   8.221  10.447  19.884  0.2084  0.0033  0.2329
39496W        W82590   9.890   8.984  20.305 -0.2450  0.0698  0.2575
39497W        W82591   8.650  10.641  22.256  0.1971  0.4946 -0.1583
39498W        W82592   7.270   9.209  21.285  0.1382 -0.2070  0.2380
39499W        W82593  12.094   7.703  22.967  0.1263 -0.2418  0.1282
39500W        W82594   9.321   9.166  19.937  0.1297 -0.0819  0.1213
39501W        W82595   9.488   8.626  20.856  0.2654  0.1389  0.3026
39502W        W82596   9.226   7.254  19.577  0.0606  0.0830  0.1301
39503W        W82597   9.330   7.655  21.108 -0.2002 -0.1203 -0.0521
39504W        W82598   8.355   5.940  21.281 -0.1846 -0.0503 -0.0638
39505W        W82599   8.799  12.123  22.367  0.0372  0.1258  0.1375
39506W        W82600   7.953   7.699  21.538 -0.1833 -0.1898  0.1697
39507W        W82601  10.374   9.878  24.358  0.2941 -0.2205  0.2904
39508W        W82602  10.707   8.099  20.894 -0.0354 -0.0736  0.4255
39509W        W82603  10.011   7.339  22.903 -0.3890  0.0051 -0.0219
39510W        W82604   8.368  11.544  22.492  0.0476  0.2096 -0.1659
39511W        W82605   8.116   7.946  20.945 -0.1536  0.1087 -0.1611
39512W        W82606  10.347   9.834  18.769 -0.0630  0.0142  0.0371
39513W        W82607  10.140  11.852  20.705  0.0652  0.2568 -0.2124
39514W        W82608   9.603   9.482  18.903  0.2855  0.3447  0.0976
39515W        W82609   7.566   7.911  20.190 -0.7264 -0.1143  0.1830
39516W        W82610   9.483   9.500  22.814  0.1528  0.1278  0.0935
39517W        W82611   6.555   8.005  21.965 -0.2829  0.0909  0.0013
39518W        W82612   7.412   6.945  19.325  0.0967  0.1110 -0.0064
39519W        W82613  11.865   9.923  23.856 -0.2602 -0.0790 -0.1612
39520W        W82614   6.745   9.555  22.647  0.3433  0.1269  0.2987
39521W        W82615  11.907   7.647  20.371  0.1377  0.0276  0.3805
39522W        W82616   9.600   9.179  22.401  0.0322 -0.0230  0.1115
39523W        W82617  10.160   7.904  21.798 -0.1464  0.3545  0.2484
39524W        W82618   9.401   7.689  19.665  0.0570  0.1048 -0.3084
39525W        W82619   9.746   6.865  21.117 -0.0049 -0.2132  0.0879
39526W        W82620   9.698   9.451  21.984  0.2104  0.2179  0.0900
39527W        W82621   8.095   7.571  20.191  0.0993 -0.1054  0.1382
39528W        W82622   9.010   8.034  20.102  0.0641 -0.2818 -0.1203
39529W        W82623   9.078  10.190  22.164 -0.0455  0.2795 -0.0165
39530W        W82624  10.477  10.272  17.794 -0.1417 -0.0004 -0.2355
39531W        W82625   7.932  10.179  21.667 -0.3028  0.0339  0.1020
39532W        W82626   7.973   9.168  21.815  0.0960 -0.1160  0.0959
39533W        W82627  10.092  10.194  23.880 -0.1150  0.0231 -0.1488
39534W        W82628   8.226   9.794  18.144  0.1252  0.2194  0.2785
39535W        W82629   8.029   9.756  21.146  0.3791  0.1635  0.0450
39536W        W82630   8.278   9.136  20.266 -0.0339 -0.0299  0.0502
39537W        W82631   8.003   8.174  20.337  0.3802 -0.2075 -0.2129
39538W        W82632   8.034   9.665  20.558 -0.1714 -0.0725  0.0062
39539W        W82633   8.904   6.724  21.527  0.3006 -0.0884  0.1034
39540W        W82634   8.835   7.688  21.933  0.3868 -0.2129  0.4060
39541W        W82635  10.406   7.524  22.042 -0.0112  0.1498  0.2330
39542W        W82636   8.167  10.587  20.889 -0.1358 -0.0574  0.2395
39543W        W82637   9.738  11.654  21.684 -0.1010 -0.0114 -0.0655
39544W        W82638  10.997   7.677  18.765  0.1174 -0.1710  0.0840
39545W        W82639   9.966   9.883  19.964 -0.3638 -0.0391 -0.2368
39546W        W82640   7.308   8.728  22.097  0.0285 -0.1896  0.0293
39547W        W82641   7.618   7.805  21.153  0.2262 -0.1751 -0.1590
39548W        W82642   9.461   8.641  23.211  0.1202  0.4327  0.0122
39549W        W82643   7.156   7.624  21.146 -0.1382 -0.1155  0.0625
39550W        W82644  10.427   8.870  23.038 -0.2866 -0.2280  0.1353
39551W        W82645   7.463   7.947  20.661  0.2026  0.0078 -0.1909
39552W        W82646   8.448   7.456  21.689 -0.1160  0.0598 -0.2796
39553W        W82647   8.544   7.999  20.479  0.2568  0.3026 -0.2714
39554W        W82648   6.831   9.296  20.507  0.0402  0.1341  0.0576
39555W        W82649  10.888   7.700  23.778 -0.2661  0.2067  0.2828
39556W        W82650   7.996  11.647  21.820  0.0453 -0.4124 -0.0666
39557W        W82651  12.094   9.764  24.779 -0.3409 -0.3691  0.3460
39558W        W82652  11.402  10.742  20.836 -0.1311 -0.1702 -0.1395
39559W        W82653   8.508   7.490  22.314  0.0768  0.1041  0.1300
39560W        W82654   8.364   5.623  22.184 -0.0103 -0.0089 -0.0508
39561W        W82655   8.311  12.157  22.596 -0.2322  0.3157 -0.0170
39562W        W82656   9.322  10.666  22.040  0.0438 -0.3682 -0.1009
39563W        W82657   8.573   8.020  21.606 -0.1902 -0.4645  0.0464
39564W        W82658  10.754  10.265  20.268 -0.0693 -0.0370  0.3343
39565W        W82659  10.138   9.285  21.029 -0.4796  0.0983  0.1200
39566W        W82660   7.864  10.982  22.904  0.0664  0.2896 -0.0610
39567W        W82661   9.544   9.466  24.435 -0.1494  0.0958  0.3200
39568W        W82662  11.613   9.375  24.085 -0.0229  0.0613 -0.1806
39569W        W82663  10.229   8.131  20.683 -0.0985  0.2245  0.0127
39570W        W82664   7.661   6.497  19.495  0.0703  0.0738 -0.2154
39571W        W82665   8.904  11.119  20.342  0.1110 -0.3304 -0.1343
39572W        W82666   8.619   9.792  21.225 -0.1453 -0.1146  0.0959
39573W        W82667   6.965   7.995  20.883  0.0638  0.0428  0.1413
39574W        W82668   9.634  10.310  20.183  0.0171  0.0866 -0.2955
39575W        W82669  10.691   6.605  21.669  0.2502 -0.0324  0.1677
39576W        W82670   8.013   9.271  23.483  0.3368 -0.1201 -0.0020
39577W        W82671   7.942   8.464  24.248  0.2089  0.1997 -0.0029
39578W        W82672   7.696   7.562  19.731 -0.1042 -0.1163 -0.0413
39579W        W82673   8.044  10.785  22.427  0.0572  0.0684  0.0986
39580W        W82674   9.195   7.165  21.014 -0.0111 -0.0910  0.2827
39581W        W82675   9.802   9.005  19.800  0.2395 -0.0494 -0.0870
39582W        W82676   9.128  10.088  23.766 -0.1388 -0.1733 -0.0678
39583W        W82677  10.461   9.015  20.451  0.0045 -0.0996 -0.0058
39584W        W82678   9.990   9.481  17.651 -0.2786  0.2527  0.2513
39585W        W82679   8.941   9.377  21.140 -0.1529 -0.1534 -0.0707
39586W        W82680   7.797  10.127  23.193 -0.1248  0.0757 -0.3598
39587W        W82681  10.456   9.794  19.807  0.1188  0.2303 -0.1712
39588W        W82682  10.070  10.373  20.622 -0.0153 -0.0608 -0.0983
39589W        W82683   7.311   6.582  20.129  0.1888  0.1669 -0.0883
39590W        W82684  10.891  10.474  18.640 -0.1153  0.0785 -0.4274
39591W        W82685   7.002   8.279  21.686  0.1783 -0.0400 -0.1948
39592W        W82686  10.253   9.505  21.494 -0.1315  0.0927 -0.0600
39593W        W82687  10.365  10.776  21.994  0.2850  0.1117  0.0013
39594W        W82688   8.939   7.849  22.547  0.1578 -0.0542  0.2711
39595W        W82689   8.209   9.452  19.120 -0.0708 -0.1962  0.0722
39596W        W82690   7.993   7.323  21.003  0.1343  0.2479  0.2284
39597W        W82691   6.938   9.971  19.451  0.1010  0.0787  0.0293
39598W        W82692  10.576   9.304  23.178 -0.1341 -0.0477  0.2946
39599W        W82693  10.519   7.503  22.819 -0.1051 -0.1384 -0.0269
39600W        W82694   9.321   6.288  22.464 -0.2669  0.1100 -0.0473
39601W        W82695  11.281   9.802  23.200  0.0654  0.0260 -0.0190
39602W        W82696   9.137   8.175  19.542 -0.1889  0.0902 -0.0136
39603W        W82697   9.870  10.363  21.680  0.0176  0.1867 -0.0564
39604W        W82698   8.329   9.178  21.063  0.0106 -0.3654  0.1746
39605W        W82699   9.069   7.148  23.003  0.0870 -0.1874 -0.1086
39606W        W82700   8.481   8.579  22.967  0.2449 -0.1153 -0.0908
39607W        W82701   6.948  11.024  22.629  0.3147  0.0754  0.0212
39608W        W82702  10.870  10.898  21.838  0.2007 -0.0953  0.2248
39609W        W82703   8.481   9.007  21.512  0.2538  0.0145  0.1744
39610W        W82704   9.208   8.877  23.619 -0.1166  0.0738 -0.0920
39611W        W82705   9.583   6.941  19.712 -0.2770 -0.1265  0.1142
39612W        W82706   8.396   8.750  21.960 -0.4527 -0.1676 -0.0206
39613W        W82707   9.026   8.862  20.833 -0.1791 -0.0814 -0.0735
39614W        W82708   8.513   5.816  20.816  0.1171  0.0610  0.0787
39615W        W82709   9.448  10.784  20.794 -0.1805 -0.0542 -0.1951
39616W        W82710   9.210   9.974  19.435 -0.1481  0.0053  0.1558
39617W        W82711   9.517  10.555  22.478 -0.3562  0.1225  0.1121
39618W        W82712   6.877  10.133  20.018  0.0875 -0.0458  0.1523
39619W        W82713  10.718   7.338  24.087  0.0866  0.0321  0.0287
39620W        W82714   7.664   9.654  21.569 -0.0555  0.3675  0.0377
39621W        W82715   7.863   8.045  19.765 -0.1679  0.0028  0.4075
39622W        W82716   7.584   8.502  20.045 -0.1530 -0.1315  0.0616
39623W        W82717   9.760   7.717  21.423  0.0532  0.1745  0.2125
39624W        W82718   9.440   9.424  17.819 -0.2121  0.0361  0.0276
39625W        W82719   9.094   9.227  21.986  0.0733  0.1376  0.1102
39626W        W82720  10.249   7.811  22.472 -0.0556 -0.1894  0.1581
39627W        W82721   8.227   9.663  21.594  0.1205 -0.2449 -0.0307
39628W        W82722   9.873   8.273  22.109  0.0573  0.2765 -0.0862
39629W        W82723  10.142   7.496  21.210  0.1581 -0.5106  0.0050
39630W        W82724   9.310  11.488  22.003 -0.0211  0.0284 -0.1078
39631W        W82725   7.811  10.502  24.076  0.0920  0.0786 -0.0355
39632W        W82726   6.254   6.695  19.800 -0.1698  0.2081 -0.2815
39633W        W82727  10.062   9.440  22.307  0.2775 -0.1681 -0.2079
39634W        W82728   9.681   7.319  21.066 -0.3467  0.2306  0.0416
39635W        W82729   7.970  10.661  21.878 -0.1118 -0.1260  0.2472
39636W        W82730   9.535  10.214  21.227  0.1643 -0.0400  0.0895
39637W        W82731   7.485   7.430  20.243  0.2266 -0.0011  0.1739
39638W        W82732   8.884  10.551  20.286  0.2337 -0.0272 -0.1324
39639W        W82733   8.520   8.061  22.679  0.2875 -0.1567  0.1097
39640W        W82734  11.290  10.006  21.078  0.0938  0.0057  0.1494
39641W        W82735   8.959   8.707  21.877 -0.0644  0.4199  0.1510
39642W        W82736   9.304   6.647  20.886 -0.1620 -0.2031 -0.1207
39643W        W82737   9.057   8.400  21.085 -0.1530  0.2073 -0.1424
39644W        W82738  10.071  10.461  19.550  0.1435 -0.0357  0.0541
39645W        W82739  10.297   8.351  23.056 -0.2530  0.2437 -0.0120
39646W        W82740   7.595  10.553  22.970  0.1774 -0.2692 -0.0449
39647W        W82741   9.856   6.198  20.157 -0.0948 -0.0920 -0.4081
39648W        W82742  12.120  10.019  20.681  0.1142 -0.0541  0.2012
39649W        W82743   9.653   9.941  23.661 -0.0237  0.2352  0.2876
39650W        W82744   9.132   7.571  20.197 -0.2907  0.2228 -0.0370
39651W        W82745   6.641   9.553  22.022 -0.0706 -0.1468 -0.0104
39652W        W82746   7.478   9.078  21.768  0.0447  0.1272 -0.0604
39653W        W82747   8.647   8.015  21.004  0.1312 -0.1201 -0.1810
39654W        W82748   8.919  10.356  22.660 -0.1660  0.2268  0.0879
39655W        W82749   8.246   9.075  19.714 -0.2333 -0.0400  0.0424
39656W        W82750   7.482  10.186  22.651 -0.1765 -0.3925 -0.0288
39657W        W82751   9.778   6.706  20.216 -0.1229 -0.4016  0.1660
39658W        W82752   8.699   8.482  21.517 -0.1922  0.0214  0.0846
39659W        W82753   9.405   7.124  20.180  0.0463 -0.2123  0.1823
39660W        W82754  10.100   7.813  22.924 -0.3056  0.0642  0.0132
39661W        W82755   9.594   9.506  19.715  0.1138 -0.3701  0.1233
39662W        W82756   9.653   7.675  23.081  0.2282 -0.2568 -0.2125
39663W        W82757   7.405   7.954  21.626 -0.2588 -0.0077  0.2836
39664W        W82758   9.851   9.804  20.942  0.1576 -0.0854  0.1483
39665W        W82759   6.830   8.598  23.175 -0.2828 -0.1688 -0.1738
39666W        W82760   9.978  11.279  21.371 -0.2503 -0.3392 -0.2481
39667W        W82761   8.246   9.809  23.451 -0.3556  0.1196  0.0837
39668W        W82762  10.552   7.677  21.487  0.0901 -0.0561  0.2244
39669W        W82763   6.640   6.391  19.638 -0.0257  0.0986 -0.1764
39670W        W82764  10.064   8.271  22.591  0.0553 -0.0459 -0.2938
39671W        W82765  10.320   8.232  22.141 -0.3369 -0.0102 -0.4237
39672W        W82766   8.475   8.949  20.671  0.1948  0.1755 -0.3013
39673W        W82767  10.696   7.209  19.987  0.2706 -0.0131  0.1759
39674W        W82768   8.816   9.822  22.668  0.2104 -0.0424  0.2989
39675W        W82769   9.919   8.842  21.274 -0.0460 -0.3776  0.2020
39676W        W82770   9.425   8.105  21.404 -0.0046 -0.1282  0.0308
39677W        W82771   9.395   9.588  21.083 -0.0626 -0.0443 -0.0456
39678W        W82772   7.764   7.660  22.028  0.0873 -0.0043  0.1163
39679W        W82773  10.103   7.727  20.336  0.6029 -0.2042  0.2139
39680W        W82774  10.233   8.618  21.803 -0.1294  0.0786 -0.0837
39681W        W82775  10.879   8.193  22.367  0.1358 -0.2181 -0.0464
39682W        W82776   9.347   8.964  22.784  0.0440 -0.0557 -0.2172
39683W        W82777   9.214   9.813  23.358 -0.0908  0.0003  0.2224
39684W        W82778   8.079   8.231  22.290  0.2058  0.2950  0.0204
39685W        W82779   9.976  10.833  21.624 -0.1760 -0.1546 -0.2167
39686W        W82780  10.639   9.182  19.148  0.0871 -0.0755 -0.0499
39687W        W82781  11.302   8.730  23.217  0.2538  0.0626 -0.0938
39688W        W82782  11.073   7.693  20.864  0.1236 -0.2328 -0.0960
39689W        W82783   9.145   9.356  20.641 -0.3490 -0.0587 -0.3962
39690W        W82784   7.454   8.596  21.648  0.1127 -0.1894 -0.2129
39691W        W82785  10.044   9.599  22.846 -0.2191  0.0985 -0.1150
39692W        W82786   7.817   5.991  19.330  0.3705  0.1063 -0.3279
39693W        W82787   8.923   8.340  22.479 -0.2248 -0.1563  0.0553
39694W        W82788   9.068   9.498  18.924  0.1537 -0.1253 -0.0400
39695W        W82789  10.373   9.762  21.048 -0.1394  0.1402 -0.0903
39696W        W82790   8.595   7.586  20.173  0.1591 -0.1167 -0.1184
39697W        W82791   7.416   7.973  22.269 -0.0679  0.1975 -0.3183
39698W        W82792   6.948  10.576  21.656  0.2568 -0.0580  0.0302
39699W        W82793   6.764   6.650  20.031  0.3536  0.0312 -0.0026
39700W        W82794   8.268   6.802  20.908 -0.0431  0.2729  0.0585
39701W        W82795  10.197   8.031  21.237 -0.2171  0.2579 -0.0464
39702W        W82796  11.003   9.455  25.911  0.0634 -0.0662 -0.2501
39703W        W82797  10.482   8.535  20.746 -0.0047  0.0334  0.1107
39704W        W82798  11.394   9.268  23.117 -0.4026  0.0010  0.2071
39705W        W82799   5.717   9.853  19.833  0.0144 -0.0876  0.1540
39706W        W82800   8.511   6.943  21.707  0.4703  0.0238  0.1588
39707W        W82801   7.221  10.552  21.217  0.3645 -0.0910 -0.0533
39708W        W82802   7.190   9.647  21.638 -0.4736 -0.2541 -0.0688
39709W        W82803   8.019   8.831  22.796 -0.0389 -0.0473  0.1689
39710W        W82804  10.220   6.159  22.300  0.0356 -0.0183 -0.1273
39711W        W82805  11.195   7.717  21.858  0.0844  0.0821  0.1974
39712W        W82806   9.134   9.855  21.426 -0.0430  0.0684 -0.0304
39713W        W82807  11.424   8.293  23.087  0.0812  0.0210  0.2179
39714W        W82808   9.309   8.777  22.289  0.0018 -0.1058 -0.1062
39715W        W82809   8.645  10.561  23.188 -0.0020  0.1564  0.2482
39716W        W82810   9.776  10.973  23.762  0.1949 -0.0749 -0.2166
39717W        W82811  10.079   9.114  21.838  0.0254 -0.0787  0.1900
39718W        W82812   8.165   9.835  22.587  0.1106  0.0438 -0.0635
39719W        W82813   7.171   6.779  22.157 -0.1992  0.0636  0.2872
39720W        W82814   9.324   9.844  21.900  0.0272 -0.1935 -0.1375
39721W        W82815   9.866   8.290  21.585  0.2738 -0.1626  0.0043
39722W        W82816   8.385   7.616  21.217  0.2560  0.1178  0.0999
39723W        W82817   8.465  10.362  21.812 -0.0503 -0.1763 -0.1833
39724W        W82818   7.531  11.923  23.756 -0.1371 -0.1711  0.1769
39725W        W82819   7.263  10.134  23.102  0.1994 -0.1407  0.1943
39726W        W82820   8.439   9.900  20.780  0.1338 -0.1924  0.0225
39727W        W82821   9.843   9.291  18.118 -0.0996 -0.5185 -0.1658
39728W        W82822  10.920   9.802  20.376 -0.2262 -0.0076  0.3991
39729W        W82823   9.357  11.013  20.328  0.0042 -0.2253  0.2497
39730W        W82824   8.308   7.571  20.668 -0.1275  0.0025 -0.1574
39731W        W82825   8.434   9.768  22.041 -0.1264  0.0614  0.0816
39732W        W82826   6.212  10.580  20.975  0.2813 -0.0850  0.1001
39733W        W82827  10.064  11.288  20.395 -0.0257 -0.2081  0.1922
39734W        W82828   7.792  10.506  21.257 -0.0678 -0.2899 -0.1315
39735W        W82829  11.236  10.543  23.534  0.2215 -0.0861 -0.3312
39736W        W82830   9.190   8.554  19.160  0.1877 -0.1907 -0.1776
39737W        W82831  11.332   7.074  21.687  0.1836  0.1021  0.4948
39738W        W82832  10.199   8.488  20.259  0.0799  0.1781  0.1625
39739W        W82833   8.520  10.193  22.450  0.3017  0.0635  0.1456
39740W        W82834   6.911   7.095  20.946  0.0256 -0.0387 -0.2097
39741W        W82835   8.862   7.086  20.096  0.4216 -0.0033 -0.1219
39742W        W82836   8.933  10.162  23.136  0.0499 -0.0218 -0.1491
39743W        W82837  11.703   7.517  23.626  0.2254 -0.0274  0.0018
39744W        W82838   6.476  10.670  23.685 -0.3845 -0.2690  0.1493
39745W        W82839  10.677  10.739  21.400 -0.4419 -0.0095 -0.1986
39746W        W82840   6.752   7.509  19.545 -0.1331  0.3709 -0.0499
39747W        W82841   8.333   7.596  19.711  0.1728  0.1287  0.1886
39748W        W82842  11.557   8.113  22.579  0.2168 -0.3383 -0.1908
39749W        W82843   8.788   7.367  19.732  0.0975 -0.2987 -0.0039
39750W        W82844   9.701   8.676  22.713 -0.0268 -0.0083  0.3367
39751W        W82845   8.849  10.358  21.383 -0.0766  0.0497 -0.1288
39752W        W82846   9.510  11.164  21.260  0.0682 -0.1667  0.1066
39753W        W82847   8.777  10.003  21.786  0.5679  0.0480  0.1993
39754W        W82848   7.618   7.003  19.905 -0.3369 -0.1924 -0.2441
39755W        W82849  10.965   8.885  19.435  0.0862 -0.1720  0.0336
39756W        W82850   8.800   8.917  22.322 -0.1427 -0.0795  0.1745
39757W        W82851  10.103   8.091  23.436 -0.0598 -0.0723  0.0961
39758W        W82852   7.813   8.202  21.439  0.2070 -0.0628  0.0599
39759W        W82853  11.092   6.921  19.748 -0.1493 -0.1095 -0.0434
39760W        W82854   9.572   9.003  21.735  0.0544 -0.0430  0.1341
39761W        W82855   7.547   7.519  22.454  0.1177 -0.1588  0.0619
39762W        W82856  10.244   6.667  19.292  0.1798  0.4431  0.2026
39763W        W82857   9.048   8.203  21.805  0.1644 -0.0952 -0.4174
39764W        W82858   9.015   8.715  17.950  0.0496 -0.1247 -0.0526
39765W        W82859  10.354  10.400  23.042 -0.0663  0.0444 -0.0428
39766W        W82860   8.015   7.182  21.710  0.1927 -0.0529 -0.0592
39767W        W82861   9.449   8.001  20.360  0.0812 -0.1731  0.2686
39768W        W82862   7.521  10.926  20.883  0.0672  0.1511 -0.1069
39769W        W82863   8.560   9.177  21.968  0.0518 -0.0238 -0.2300
39770W        W82864   9.419  10.798  23.493  0.0721 -0.3110 -0.1508
39771W        W82865   7.130   6.264  22.105 -0.0498 -0.1480  0.0332
39772W        W82866  10.078  10.793  19.059  0.0998  0.1033 -0.2597
39773W        W82867  10.753   9.428  21.329 -0.1075  0.5089  0.0029
39774W        W82868   9.207  10.622  19.553  0.0212 -0.1231 -0.0592
39775W        W82869   9.731   9.241  20.738 -0.1615 -0.2183 -0.2699
39776W        W82870   9.657  10.214  22.182  0.1084  0.5953 -0.1209
39777W        W82871   7.360   8.226  21.211  0.1631  0.3116  0.0297
39778W        W82872   9.496  11.076  22.296 -0.0075 -0.0270  0.0737
39779W        W82873  10.356  10.994  21.156  0.1086 -0.1168 -0.1619
39780W        W82874   9.429   8.586  21.432 -0.0274  0.3575 -0.2497
39781W        W82875   7.975   8.735  20.442 -0.1055  0.1209 -0.2407
39782W        W82876   7.604   9.528  21.001 -0.2712 -0.0722 -0.0484
39783W        W82877  10.936   7.303  21.947  0.0302  0.1922  0.1129
39784W        W82878  10.216   9.072  23.526  0.1041 -0.2607 -0.1618
39785W        W82879   9.556  10.390  18.670  0.2376  0.0049  0.1897
39786W        W82880  10.427   6.463  22.708 -0.1756  0.0105 -0.1044
39787W        W82881   9.980  10.635  22.644  0.5046  0.0363  0.0888
39788W        W82882   8.193   9.525  22.979  0.0081  0.0651  0.1821
39789W        W82883   7.863   7.725  20.603  0.0353 -0.1690 -0.0030
39790W        W82884   8.956   9.250  22.685 -0.0001  0.2402 -0.0546
39791W        W82885   8.875   7.250  21.394  0.4209 -0.1433 -0.0134
39792W        W82886   9.585  10.276  20.683  0.0574  0.2131 -0.0596
39793W        W82887   9.221  12.120  21.218  0.4441 -0.3340 -0.2476
39794W        W82888   8.912   7.773  21.338 -0.1434  0.3340  0.1254
39795W        W82889   9.121  10.750  21.172  0.0529  0.0083 -0.0356
39796W        W82890   8.507   6.265  21.634  0.1401  0.1060 -0.0616
39797W        W82891  11.955   6.665  20.323  0.3946  0.2348  0.1034
39798W        W82892   9.365   6.059  20.359 -0.1856 -0.1284 -0.0815
39799W        W82893   9.790  10.671  24.178 -0.0389  0.2366 -0.0091
39800W        W82894   6.388   7.278  19.202  0.1680  0.0883  0.0600
39801W        W82895   7.903   9.523  20.113 -0.0475 -0.2991  0.2226
39802W        W82896   8.072   8.721  21.557 -0.3438 -0.0452 -0.1929
39803W        W82897   9.295   9.304  23.230 -0.0700  0.2118  0.0012
39804W        W82898   8.335  10.737  22.782 -0.3577 -0.1981 -0.0916
39805W        W82899   8.955   9.769  20.375  0.1384  0.0261 -0.3137
39806W        W82900   7.804   6.853  21.349  0.3472 -0.2613  0.1650
39807W        W82901   9.461   9.492  18.405  0.1440 -0.1477  0.0058
39808W        W82902   8.252   7.828  21.957  0.0530 -0.0120  0.2504
39809W        W82903   7.001   6.561  20.911  0.0075 -0.0252 -0.0670
39810W        W82904  10.534  10.460  20.755  0.0806 -0.3223 -0.3142
39811W        W82905   9.338  11.547  20.272  0.0175 -0.0092 -0.3267
39812W        W82906   9.079   7.088  20.560  0.2085  0.0351 -0.0660
39813W        W82907  10.654  10.238  22.608  0.3070  0.1190  0.0120
39814W        W82908   6.209   8.715  17.828 -0.2793 -0.0736  0.2365
39815W        W82909   9.819   8.360  21.096 -0.1962 -0.1063 -0.1374
39816W        W82910   8.643   7.540  22.983 -0.0578  0.1552  0.0627
39817W        W82911   5.774   6.317  18.933 -0.0384 -0.1386  0.0750
39818W        W82912   9.093   8.354  23.426 -0.2866 -0.1290  0.2157
39819W        W82913   9.133  10.343  20.917 -0.0241  0.0186  0.0743
39820W        W82914   9.347   9.811  20.039 -0.1408  0.0861 -0.1459
39821W        W82915   9.817   8.788  22.141 -0.1584  0.1064 -0.1044
39822W        W82916   9.317   9.654  22.340  0.0259 -0.1251 -0.0379
39823W        W82917   8.135   6.415  22.205 -0.2953 -0.1315 -0.0327
39824W        W82918  10.143  10.323  22.191  0.0949 -0.2116 -0.1924
39825W        W82919   8.140  12.366  23.623  0.1482  0.1283 -0.3009
39826W        W82920  12.135   8.919  19.971  0.0819 -0.4944  0.3229
39827W        W82921  11.822   6.669  21.371  0.0169  0.0493  0.5202
39828W        W82922   8.945   9.865  20.869 -0.2123  0.3671 -0.1627
39829W        W82923   8.064   7.304  22.207 -0.0084  0.2494 -0.2579
39830W        W82924   9.337   9.387  21.564  0.0285 -0.0124  0.1376
39831W        W82925  10.018   9.851  21.986 -0.1864 -0.1970 -0.2554
39832W        W82926   6.823   6.774  22.469  0.1129 -0.2065  0.0851
39833W        W82927   9.821   7.465  19.481  0.2294  0.2682  0.3179
39834W        W82928   9.639  10.124  19.669  0.0492 -0.1654 -0.0677
39835W        W82929   7.871   8.684  22.021 -0.0044  0.0061 -0.1114
39836W        W82930  10.048   8.807  20.728 -0.0271  0.1800 -0.1586
39837W        W82931   9.489   8.494  21.910 -0.1343  0.2619  0.3315
39838W        W82932   8.872   9.646  22.175 -0.1650 -0.3391 -0.3240
39839W        W82933  10.032   9.032  22.622 -0.0544  0.0588 -0.2462
39840W        W82934   7.791   6.716  20.295  0.0618 -0.2082  0.0316
39841W        W82935  10.948   8.601  20.629 -0.2105 -0.4299  0.2031
39842W        W82936   9.632  10.776  23.000  0.3997  0.1670 -0.0381
39843W        W82937  12.037  12.121  24.176 -0.1880 -0.0657  0.1658
39844W        W82938   9.413   9.067  21.095  0.0817 -0.1978 -0.0322
39845W        W82939  10.516   8.272  21.614 -0.2636  0.0544  0.0113
39846W        W82940   7.251   7.105  21.342  0.0027  0.3702 -0.1403
39847W        W82941   8.931   8.869  20.316 -0.2278  0.3298 -0.0569
39848W        W82942   8.754   9.448  21.620 -0.0010  0.4615  0.2997
39849W        W82943  10.943   8.133  23.358  0.2087 -0.2458  0.2681
39850W        W82944   8.404   7.115  21.225 -0.2987 -0.5874 -0.0177
39851W        W82945   9.430   8.080  20.856 -0.1179 -0.1778  0.1065
39852W        W82946   7.759  11.504  22.725  0.0478  0.0838 -0.0088
39853W        W82947  10.633   9.813  22.805  0.1286 -0.1659  0.2054
39854W        W82948   8.211   9.940  25.974  0.1876 -0.3155 -0.0951
39855W        W82949   8.095   8.665  23.835  0.1392 -0.0486 -0.0099
39856W        W82950  10.503   8.882  23.890  0.3175 -0.0479 -0.2164
39857W        W82951  10.571   8.178  23.716  0.0586 -0.2970 -0.0478
39858W        W82952   7.531   9.112  24.352  0.1903  0.0774  0.1175
39859W        W82953   8.777  10.102  25.946 -0.1510  0.1087  0.0744
39860W        W82954   9.212   7.195  26.603  0.0591  0.0919  0.2964
39861W        W82955  10.616  10.074  25.639 -0.2540 -0.0226  0.2938
39862W        W82956  11.140  11.345  25.541  0.3465  0.0714  0.1003
39863W        W82957  10.100   8.888  25.519  0.0477 -0.0519 -0.3280
39864W        W82958   8.495   8.659  26.202  0.0601  0.0317 -0.2848
39865W        W82959   8.398   8.942  25.248  0.2734 -0.0647  0.0253
39866W        W82960   9.690   7.846  24.515 -0.3937 -0.2565 -0.0932
39867W        W82961   7.359   8.831  25.564  0.0426 -0.1315  0.2050
39868W        W82962   9.049   9.047  26.953  0.1778 -0.0992  0.1272
39869W        W82963   7.641   9.341  24.996 -0.2567 -0.2251 -0.0642
39870W        W82964   8.192   8.634  24.790 -0.2623 -0.0265  0.1466
39871W        W82965   7.859  10.116  25.245 -0.4273 -0.0755  0.1652
39872W        W82966   8.004   9.074  26.324  0.0574 -0.0238  0.2950
39873W        W82967   9.118   8.090  27.406  0.0295  0.0367  0.1280
39874W        W82968   9.104   8.217  26.793  0.1112 -0.3295 -0.4026
39875W        W82969   7.082   9.927  23.980 -0.0994 -0.0533  0.0046
39876W        W82970   7.139   8.760  22.634 -0.1286 -0.4197 -0.2681
39877W        W82971   7.755   8.949  25.936 -0.1142 -0.0968  0.1915
39878W        W82972   7.735   8.387  24.681  0.0045 -0.0271  0.3675
39879W        W82973  10.428   8.942  24.555  0.0722  0.0250  0.0211
39880W        W82974   9.218  10.007  25.786 -0.0403 -0.0098  0.0160
39881W        W82975   8.013  11.765  25.248 -0.1903 -0.0129  0.1556
39882W        W82976   9.653  10.530  25.612 -0.0741  0.2633  0.3498
39883W        W82977   9.552   9.147  27.474  0.0869  0.1579  0.1291
39884W        W82978   8.211  10.555  25.307  0.4343 -0.0352 -0.0089
39885W        W82979   7.356  10.928  25.254  0.0035 -0.2284  0.3322
39886W        W82980   8.132  11.328  24.389  0.1027 -0.0724  0.2272
39887W        W82981  11.001  10.267  25.403 -0.1121 -0.3946 -0.1211
39888W        W82982  10.953  10.413  25.860  0.0515  0.3256  0.1651
39889W        W82983   8.965  11.287  25.883  0.3023  0.1632  0.2340
39890W        W82984   7.647   9.713  22.961  0.2914  0.0862 -0.2394
39891W        W82985   8.648  11.222  27.907 -0.1787  0.0730  0.2381
39892W        W82986   8.392  11.164  26.751  0.0572 -0.0402 -0.1452
39893W        W82987   7.775   8.538  27.969 -0.1008 -0.2087 -0.0246
39894W        W82988   8.676   8.903  24.650 -0.2088 -0.0828 -0.1496
39895W        W82989   9.249  10.305  21.679 -0.0078  0.0919 -0.1729
39896W        W82990   8.059   9.251  25.623  0.2242  0.0780  0.1795
39897W        W82991   8.223  10.533  27.300  0.0173  0.0573  0.0433
39898W        W82992   7.917  10.336  25.791  0.0459  0.1771 -0.0119
39899W        W82993  10.127  10.366  28.035  0.2836  0.0062 -0.0632
39900W        W82994   8.150  11.504  23.277 -0.0497 -0.1849  0.2011
39901W        W82995   9.994  10.198  23.363  0.0886  0.1888 -0.2700
39902W        W82996   9.427   8.786  24.370  0.0063 -0.1760  0.0617
39903W        W82997  10.539   7.453  24.711  0.1483 -0.1214  0.3344
39904W        W82998   9.322   8.104  25.461  0.1038 -0.3049  0.0578
39905W        W82999   7.597  10.490  25.382  0.1738  0.2155 -0.0975
39906W        W83000   7.848   7.376  26.230 -0.1321 -0.0621 -0.2698
39907W        W83001   9.551   9.495  26.510 -0.5331  0.1727  0.0809
39908W        W83002  10.138   7.958  24.386 -0.0612 -0.0293  0.2172
39909W        W83003  10.284   8.756  27.302 -0.1590 -0.3725  0.0838
39910W        W83004   7.011  10.922  25.605  0.0563 -0.1032 -0.0756
39911W        W83005   7.906   8.995  25.226  0.0524 -0.0463  0.1287
39912W        W83006  10.237   9.967  22.587  0.0313  0.3211 -0.0139
39913W        W83007  11.056  12.188  24.324  0.0162 -0.1679  0.0072
39914W        W83008   9.676  11.250  23.303  0.3255 -0.0780 -0.1018
39915W        W83009   8.962   9.105  26.074 -0.1643 -0.0098 -0.1190
39916W        W83010   6.980  10.426  27.413  0.2013 -0.0198 -0.0769
39917W        W83011   7.207   9.089  25.937 -0.0156  0.1006  0.1748
39918W        W83012   9.023   8.502  22.946 -0.0852  0.1735  0.1219
39919W        W83013  10.750   8.875  28.535 -0.1855  0.1125  0.2632
39920W        W83014   6.802  11.563  26.915  0.1166 -0.1391 -0.2047
39921W        W83015  10.097   9.589  25.257  0.0585 -0.0921 -0.1487
39922W        W83016   8.130   8.085  26.593  0.1370 -0.0826  0.3914
39923W        W83017   8.103   9.255  26.799 -0.1465 -0.3576 -0.1849
39924W        W83018  10.424   9.435  21.931  0.0254  0.2404 -0.1893
39925W        W83019   9.782   8.334  25.288  0.2230  0.1302 -0.0101
39926W        W83020   9.979   7.472  25.232 -0.2683  0.0000 -0.0075
39927W        W83021   8.509   9.132  22.850  0.2112 -0.1363 -0.2269
39928W        W83022   8.344   9.368  23.871  0.1238  0.0994  0.2370
39929W        W83023  12.282  10.423  26.040 -0.1521 -0.1854  0.0566
39930W        W83024  10.350   9.897  23.255  0.1487 -0.0516 -0.2089
39931W        W83025   7.347  11.108  26.486  0.0621  0.2167  0.2043
39932W        W83026   9.609   7.927  27.422  0.2054  0.0302 -0.0377
39933W        W83027  10.054  10.737  27.369 -0.0007 -0.3137  0.0617
39934W        W83028   7.937  12.738  24.157 -0.2546  0.0247  0.0470
39935W        W83029   7.737   9.787  25.722 -0.2378  0.0685 -0.0216
39936W        W83030   7.650  10.969  23.344  0.4420  0.0164 -0.2209
39937W        W83031   7.158   8.578  26.627 -0.0229 -0.2690  0.0334
39938W        W83032   8.237  10.434  26.183  0.0788 -0.0300  0.1411
39939W        W83033  10.757   9.685  24.918  0.1877 -0.3199  0.2446
39940W        W83034   7.167   8.013  26.659 -0.1724  0.1065  0.0713
39941W        W83035  11.044   5.473  24.896  0.1863 -0.1641  0.0915
39942W        W83036   9.776   9.156  23.013  0.3928 -0.1916 -0.1251
39943W        W83037   9.417   9.092  24.857 -0.0952  0.2988  0.0469
39944W        W83038  10.204   8.507  24.457 -0.2170 -0.0613 -0.3208
39945W        W83039  11.696  10.660  23.328  0.3662 -0.1184 -0.1606
39946W        W83040   7.239   9.737  25.905  0.2464 -0.0618  0.3674
39947W        W83041   6.699   9.143  25.259 -0.1513 -0.0611 -0.0365
39948W        W83042   8.719   6.916  26.363 -0.0220  0.1144  0.2096
39949W        W83043   8.160   7.752  25.203 -0.0185 -0.0794 -0.0629
39950W        W83044  10.139   8.941  26.866 -0.4434  0.0164  0.0742
39951W        W83045   9.085   7.636  23.755 -0.0980  0.1616 -0.0020
39952W        W83046   9.261   7.637  24.639  0.1041 -0.2404 -0.1411
39953W        W83047   7.939   7.894  24.783  0.0458  0.0458  0.0546
39954W        W83048   7.500   9.263  23.718  0.0799 -0.3376  0.1875
39955W        W83049  10.792   7.175  28.541 -0.1838  0.1969 -0.1212
39956W        W83050   7.602  11.353  25.127 -0.0614 -0.0236 -0.1487
39957W        W83051  10.387  11.175  27.638  0.0654  0.2615  0.2825
39958W        W83052  10.124  10.754  26.669  0.2684  0.0098 -0.1588
39959W        W83053   7.524   8.116  28.536  0.0461 -0.2557 -0.1798
39960W        W83054   7.658   7.853  24.279 -0.0667  0.0111  0.1048
39961W        W83055   7.415  12.471  23.765 -0.0595 -0.2762 -0.0226
39962W        W83056   6.897  10.399  23.540  0.3197  0.3958  0.0194
39963W        W83057   7.948   9.349  22.588  0.1192  0.2982 -0.1188
39964W        W83058   9.689  10.009  25.506 -0.1379  0.1403  0.2108
39965W        W83059   8.279  10.349  24.000  0.3019 -0.1723  0.0458
39966W        W83060   8.223  10.986  26.250 -0.1681  0.2882  0.4411
39967W        W83061  10.917   8.464  27.073 -0.0831  0.1435 -0.0749
39968W        W83062   9.883   8.944  26.440 -0.4219 -0.0515  0.0611
39969W        W83063   9.817   8.280  24.800  0.1221  0.2826 -0.0101
39970W        W83064   7.718   8.850  23.587 -0.1363 -0.1911  0.1030
39971W        W83065   9.733  10.801  26.029 -0.1744 -0.0798  0.2787
39972W        W83066   8.179  10.935  23.325  0.0384 -0.1570 -0.0312
39973W        W83067   7.170   9.202  25.111 -0.0636 -0.1141 -0.1708
39974W        W83068   6.912  11.245  24.079 -0.1995 -0.2329 -0.0228
39975W        W83069   9.026   9.353  25.639 -0.1632  0.2223 -0.0063
39976W        W83070   7.756   9.773  27.401  0.0885  0.1211  0.2403
39977W        W83071   9.650   9.379  28.769 -0.1927  0.1124 -0.3313
39978W        W83072   8.184   8.985  22.326 -0.0822  0.0662  0.0702
39979W        W83073   8.937  11.161  25.342  0.2520  0.0329  0.0160
39980W        W83074   9.743   8.383  24.270 -0.1497  0.1802 -0.4071
39981W        W83075  11.966   7.167  23.275 -0.3064  0.0171 -0.2936
39982W        W83076   7.478   9.925  27.785 -0.1400 -0.3371 -0.1612
39983W        W83077   9.325  10.005  22.752  0.0131 -0.1163  0.0403
39984W        W83078   9.724   7.810  22.599  0.1589  0.1734  0.2078
39985W        W83079   9.283   8.127  24.475 -0.4853  0.0096  0.0460
39986W        W83080   7.475  10.609  28.458  0.0080 -0.0415  0.0084
39987W        W83081   8.455  11.273  24.777 -0.0454  0.4073 -0.1258
39988W        W83082   8.680   9.410  24.859 -0.4310 -0.0493  0.1420
39989W        W83083   8.820   9.508  24.087  0.0890  0.2526  0.0164
39990W        W83084  11.699  11.004  25.216 -0.2432  0.1986 -0.0513
39991W        W83085   8.433   9.448  25.335  0.2507  0.2264  0.3330
39992W        W83086   9.331   8.983  26.509  0.2523  0.1716 -0.1693
39993W        W83087   9.354   8.632  25.399 -0.0450  0.0502 -0.2667
39994W        W83088   8.352   7.482  26.579 -0.1884  0.2045  0.0405
39995W        W83089   9.749   9.255  23.977 -0.1903 -0.1582  0.2465
39996W        W83090   9.450   6.737  26.572 -0.0358 -0.2112 -0.3255
39997W        W83091   6.608  12.048  24.079  0.0261  0.0325 -0.0401
39998W        W83092  10.679   7.239  25.800  0.0369 -0.0552  0.2009
39999W        W83093   7.911   8.406  26.953 -0.0076  0.1497 -0.0459
40000W        W83094   9.874   7.520  26.089 -0.1545  0.1242  0.3058
40001W        W83095  10.027   9.977  25.895 -0.0382  0.1767  0.0489
40002W        W83096  10.676   8.471  24.706 -0.0866 -0.0926 -0.3132
40003W        W83097   9.142   9.570  26.840  0.3087  0.1332  0.1072
40004W        W83098   8.595   8.141  22.165 -0.2102 -0.2101 -0.1463
40005W        W83099   7.374   7.703  26.285 -0.1672 -0.1275 -0.0408
40006W        W83100   7.694   8.351  25.842 -0.0654 -0.4164  0.1679
40007W        W83101   7.042  11.317  25.903 -0.1967  0.0033 -0.0802
40008W        W83102   7.967   9.663  26.365  0.1259  0.2146  0.1211
40009W        W83103  10.271   9.304  24.139  0.0624  0.0200 -0.2074
40010W        W83104   9.072   9.203  27.931 -0.1720  0.3537 -0.0521
40011W        W83105   8.983   9.307  23.654  0.2501 -0.1354 -0.2120
40012W        W83106   7.059  12.017  24.387  0.2479 -0.1311 -0.2282
40013W        W83107   8.187  10.378  23.202  0.1534  0.0281  0.1106
40014W        W83108   7.803   7.776  25.862 -0.3692  0.0705 -0.1386
40015W        W83109   8.357   9.120  27.611  0.0264 -0.1732  0.0619
40016W        W83110   8.780  10.550  24.020  0.1119  0.1482 -0.1053
40017W        W83111   8.555  10.839  27.591  0.1382  0.1082 -0.0474
40018W        W83112   7.611  10.014  24.116  0.1704  0.0474  0.0169
40019W        W83113  10.545   7.567  27.679 -0.3361 -0.0918  0.0551
40020W        W83114   7.325  10.101  25.541  0.0380 -0.1251  0.0118
40021W        W83115   8.696   9.047  24.119 -0.2631  0.1148  0.0764
40022W        W83116   8.551   9.368  23.372  0.1365 -0.0487 -0.4416
40023W        W83117   9.930   7.055  24.727  0.0001  0.3061 -0.0044
40024W        W83118   9.072  10.161  24.378 -0.2895  0.0766 -0.1984
40025W        W83119   6.936   7.949  26.209  0.0202 -0.0103  0.2529
40026W        W83120   8.482   7.769  26.932  0.1930  0.0927 -0.0081
40027W        W83121   6.930  10.658  26.563  0.2610 -0.3749  0.1102
40028W        W83122   8.919   9.920  26.573 -0.3168 -0.1481  0.2518
40029W        W83123   9.815   7.551  24.034 -0.2984  0.0925  0.0243
40030W        W83124  10.579  10.118  25.078  0.2790  0.3288 -0.1911
40031W        W83125   7.350  10.047  28.334  0.0728 -0.0517 -0.0155
40032W        W83126   7.764   8.234  23.829 -0.1027  0.1398  0.2038
40033W        W83127  11.618   7.255  27.416  0.1750  0.1319 -0.0925
40034W        W83128   7.884   8.084  25.470 -0.1612 -0.0415 -0.3724
40035W        W83129   8.423  10.662  23.647  0.1656 -0.3054  0.2024
40036W        W83130   9.153   9.587  26.058  0.0160 -0.0752 -0.0790
40037W        W83131   7.877   9.629  23.907  0.2863  0.0209 -0.0014
40038W        W83132   7.314  10.978  24.137  0.1704  0.1690  0.2577
40039W        W83133   7.885   9.902  28.111  0.1335 -0.1697 -0.1801
40040W        W83134   9.793   8.832  25.956  0.4826  0.1096  0.0486
40041W        W83135   7.602   7.620  25.387  0.1148  0.2978  0.0598
40042W        W83136   8.239   8.849  24.347  0.1512  0.0906  0.0720
40043W        W83137   9.116   8.643  24.776 -0.0303  0.0851  0.2218
40044W        W83138   9.721  10.322  25.088  0.1918  0.2065  0.3492
40045W        W83139   8.487   9.822  27.299  0.1990 -0.0309  0.4636
40046W        W83140   7.552  11.666  28.610 -0.2189 -0.0156  0.0231
40047W        W83141   8.417   6.668  26.054  0.1067 -0.1445 -0.0819
40048W        W83142  10.789  10.265  24.130  0.0943 -0.1056  0.1486
40049W        W83143   7.996  10.538  26.785 -0.0327 -0.5110  0.1239
40050W        W83144   8.249   8.376  25.252  0.1836 -0.0567  0.2912
40051W        W83145   7.449  10.314  25.972  0.0734 -0.0601 -0.1487
40052W        W83146   8.010  10.103  24.423  0.0333 -0.1343 -0.0885
40053W        W83147  10.215   7.687  26.927 -0.0782  0.2353 -0.1260
40054W        W83148   8.618   9.653  25.782 -0.0921 -0.2303 -0.4084
40055W        W83149   7.172  10.576  22.646  0.0290 -0.1194 -0.0732
40056W        W83150   7.377  10.839  27.372 -0.3140 -0.2781 -0.0816
40057W        W83151  11.064   5.872  24.085 -0.0292 -0.0203  0.0078
40058W        W83152   8.143   9.684  24.724 -0.2298 -0.1389  0.0748
40059W        W83153   8.175   8.223  25.980 -0.1426 -0.3094  0.0547
40060W        W83154  11.895   7.065  27.795 -0.1252 -0.1643  0.0324
40061W        W83155  10.168   9.639  23.703  0.0264  0.0645  0.0231
40062W        W83156  10.564   8.356  28.296 -0.4224 -0.1542 -0.0057
40063W        W83157   7.196   8.991  27.294 -0.1713  0.1502 -0.0069
40064W        W83158  10.620  10.653  26.144  0.2982  0.3502  0.0763
40065W        W83159   7.697   9.341  27.670 -0.0471  0.1840  0.2416
40066W        W83160  10.648  10.626  26.927 -0.0253 -0.0903 -0.2593
40067W        W83161   8.093  10.082  27.639 -0.1664  0.3053  0.1262
40068W        W83162   9.659   7.826  25.214  0.0659  0.0105 -0.2103
40069W        W83163   8.647   7.528  25.085 -0.1382  0.4968 -0.0642
40070W        W83164   7.543   9.307  25.487  0.1810  0.2250 -0.1991
40071W        W83165  11.146  10.109  24.905 -0.1819 -0.1588  0.0666
40072W        W83166   9.580   9.563  24.952  0.0492 -0.0254 -0.2701
40073W        W83167   9.953   9.024  24.581  0.3192 -0.1130  0.1690
40074W        W83168   7.549  10.815  25.825 -0.4074 -0.4152  0.1456
40075W        W83169   9.412   9.618  25.617  0.0543  0.3536  0.0656
40076W        W83170   9.169   9.756  24.699  0.2364 -0.0454  0.1092
40077W        W83171   7.395  11.421  23.789 -0.0221  0.1665  0.0717
40078W        W83172   8.932   6.485  25.978  0.1004 -0.0289  0.1407
40079W        W83173   9.114   9.513  25.176  0.0551 -0.2074  0.0710
40080W        W83174   9.841   8.547  26.737 -0.0600 -0.0132  0.3526
40081W        W83175   7.995   7.954  27.175  0.1711 -0.2025 -0.0271
40082W        W83176   7.596   8.317  26.606  0.0390 -0.0851 -0.0674
40083W        W83177   8.082  10.062  27.135  0.1058 -0.1943  0.2223
40084W        W83178  10.343   7.158  26.658 -0.0353  0.0836  0.1071
40085W        W83179  10.505  11.041  26.539  0.0888  0.3152  0.1176
40086W        W83180  10.624   7.993  22.878 -0.1323  0.3137  0.1843
40087W        W83181   9.659   7.431  25.639 -0.1155  0.1222 -0.0443
40088W        W83182   9.350   8.120  24.967 -0.0898 -0.0214 -0.1708
40089W        W83183   9.779   8.437  23.586 -0.0069 -0.1699  0.0827
40090W        W83184   8.602  10.203  23.536 -0.2542  0.0212 -0.1209
40091W        W83185   7.896   8.796  27.317  0.2895 -0.3650  0.1362
40092W        W83186   8.257   8.206  24.523 -0.0275  0.0183 -0.2093
40093W        W83187   9.648   9.055  26.870  0.0187 -0.2870  0.2652
40094W        W83188   9.459  11.046  24.137  0.0372 -0.1933 -0.0732
40095W        W83189   9.269   9.702  24.083  0.1254 -0.1791  0.0991
40096W        W83190   9.627   8.696  24.970 -0.1315  0.0453 -0.0658
40097W        W83191   7.571   8.746  24.062 -0.2266  0.1952  0.1440
40098W        W83192   9.070  11.774  25.976 -0.2998 -0.0718  0.0258
40099W        W83193   7.703   9.019  22.312  0.0965 -0.1462 -0.0740
40100W        W83194   8.782   9.903  25.392  0.0024 -0.0536 -0.1664
40101W        W83195   8.107   9.410  27.281 -0.0821  0.3160  0.0784
40102W        W83196   8.584  10.214  27.000 -0.2103 -0.1053 -0.1373
40103W        W83197   8.871   9.563  23.074 -0.2867  0.0831 -0.0187
40104W        W83198  10.415  10.216  26.156  0.4493 -0.0216 -0.2160
40105W        W83199   7.856  11.900  23.266  0.0772  0.1687 -0.0447
40106W        W83200   9.656   8.089  26.208 -0.0345  0.1272 -0.2213
40107W        W83201   7.891  10.170  26.345 -0.1749  0.0149  0.3358
40108W        W83202   7.650   9.214  27.110 -0.0222  0.1090  0.0835
40109W        W83203   8.341  11.279  25.798 -0.0751  0.1638  0.0030
40110W        W83204  10.586   6.822  27.559 -0.1121 -0.1459  0.1582
40111W        W83205   9.337   8.900  25.828 -0.0182  0.0631  0.0103
40112W        W83206   9.284   8.366  25.851 -0.2282  0.3612  0.0765
40113W        W83207  12.225   8.647  27.503 -0.0200  0.1871  0.0659
40114W        W83208   8.937   9.036  25.139  0.1210  0.0115 -0.2983
40115W        W83209   7.922   9.406  24.351  0.0712  0.3249 -0.1749
40116W        W83210   8.809  10.365  26.379  0.0732  0.3220 -0.0550
40117W        W83211   8.424   9.331  24.432 -0.3913 -0.0081 -0.2748
40118W        W83212   8.155  10.654  24.481  0.2021 -0.0481  0.0418
40119W        W83213   7.104   9.445  26.352 -0.1562  0.2407 -0.1696
40120W        W83214   9.229   9.552  27.344  0.0963  0.1011  0.0205
40121W        W83215   9.854   8.331  25.799  0.0740 -0.1950  0.1447
40122W        W83216   9.063   5.767  24.711  0.0268 -0.2912  0.1353
40123W        W83217   9.734   9.803  22.493  0.0260 -0.0756 -0.0817
40124W        W83218   6.695  10.678  27.075 -0.0542 -0.0642  0.0577
40125W        W83219   6.879   9.677  27.976 -0.0645 -0.1195 -0.0736
40126W        W83220   6.356  11.510  23.962  0.1264  0.1128  0.0935
40127W        W83221   9.669   9.830  23.115 -0.2642 -0.0694  0.1733
40128W        W83222   8.680   9.824  24.512 -0.2440 -0.0181 -0.0058
40129W        W83223  10.811  10.549  24.975  0.0937  0.2067  0.2516
40130W        W83224   9.414   9.467  23.662  0.0414 -0.0964  0.1914
40131W        W83225   8.072  10.826  25.789 -0.0270  0.1992 -0.0121
40132W        W83226   6.864  11.266  24.652 -0.0608 -0.2111  0.2102
40133W        W83227   9.952   9.730  24.131  0.1064 -0.0039  0.1690
40134W        W83228   7.733  10.951  24.454 -0.1480 -0.1016 -0.0027
40135W        W83229   9.901   9.911  26.510  0.0867  0.3262  0.2319
40136W        W83230  10.943   7.924  24.775  0.0994  0.1061  0.1746
40137W        W83231  10.206   8.769  25.021 -0.0034  0.0089  0.0869
40138W        W83232  11.517   8.615  24.822 -0.0902  0.0452  0.2676
40139W        W83233   8.726  10.386  28.390  0.0380 -0.1559  0.0732
40140W        W83234   7.599   7.662  26.711 -0.1448 -0.2413 -0.1074
40141W        W83235   7.293   8.583  23.638  0.1770  0.0726  0.3654
40142W        W83236   7.848   8.554  26.258  0.2170  0.3317  0.2644
40143W        W83237  10.325   8.095  26.484  0.2302  0.0356 -0.2048
40144W        W83238   8.430  10.621  26.620  0.0600  0.1390  0.2497
40145W        W83239   8.428  10.390  25.738 -0.3013 -0.0678  0.0462
40146W        W83240   8.716   9.750  23.674  0.0289  0.0014 -0.2779
40147W        W83241   7.337   8.751  24.918  0.1350  0.2356  0.3046
40148W        W83242  11.552   7.534  26.551 -0.1621 -0.1546  0.0447
40149W        W83243   7.755  10.977  23.830  0.0149 -0.2606  0.3152
40150W        W83244   8.629   8.376  25.698  0.5214 -0.1905 -0.3200
40151W        W83245   7.961  12.658  25.645 -0.0615  0.1989 -0.0875
40152W        W83246   8.902  11.957  27.368  0.3566 -0.0171 -0.0478
40153W        W83247   7.778  11.191  26.147 -0.1953  0.3556 -0.0024
40154W        W83248   5.885   8.923  24.944  0.1521  0.3183 -0.0687
40155W        W83249  10.521   9.471  25.952 -0.0595  0.0350  0.1203
40156W        W83250   8.661   9.397  27.070 -0.1995  0.0455 -0.2095
40157W        W83251   9.464   8.599  26.259 -0.4205  0.0570 -0.0257
40158W        W83252   7.799   8.523  25.173 -0.0118 -0.1907  0.1638
40159W        W83253   9.393   8.494  23.928 -0.0445  0.1102 -0.1819
40160W        W83254   8.687  10.723  26.088 -0.2761  0.3256  0.0469
40161W        W83255   8.882   9.364  26.492 -0.1107 -0.0068  0.2190
40162W        W83256   9.024  11.414  22.826 -0.0247  0.1605  0.0372
40163W        W83257   9.485   9.245  26.120  0.2334 -0.2104 -0.0323
40164W        W83258   9.187   9.160  24.059  0.0869 -0.2198 -0.1632
40165W        W83259   9.372  10.549  26.453  0.0246 -0.2138  0.2651
40166W        W83260   7.301   8.114  23.734 -0.0126 -0.1390 -0.2325
40167W        W83261   9.048   8.554  24.240  0.1856  0.2230 -0.2120
40168W        W83262   8.193  10.296  24.856 -0.2932 -0.0725  0.1434
40169W        W83263   8.359  10.152  26.552  0.0269  0.0974  0.2371
40170W        W83264   9.436  10.705  27.011  0.0935  0.3682  0.0893
40171W        W83265   7.342   7.669  23.448  0.1369 -0.3172 -0.4364
40172W        W83266  10.214  10.701  23.872 -0.3083 -0.4583 -0.0007
40173W        W83267  10.663   8.081  25.650  0.1407  0.4740 -0.2723
40174W        W83268   8.667  11.434  23.171  0.0735 -0.3417 -0.3120
40175W        W83269  10.798   9.834  23.459 -0.0547 -0.2951 -0.2123
40176W        W83270   9.644   9.712  26.070 -0.2281 -0.3619  0.0818
40177W        W83271   7.241   9.107  26.834  0.2611 -0.1499 -0.1406
40178W        W83272   9.851  11.058  27.083  0.0647 -0.1948  0.1851
40179W        W83273  11.384  10.520  26.188  0.0188 -0.0806  0.0832
40180W        W83274   9.664   7.355  24.440  0.4185 -0.3458  0.0830
40181W        W83275   9.040   9.275  24.548  0.2493  0.1044  0.2149
40182W        W83276   7.756  11.669  24.139 -0.3317  0.0654  0.0047
40183W        W83277   9.695   7.344  26.550 -0.0067  0.1463  0.0824
40184W        W83278   8.610   8.028  26.151 -0.3107 -0.0714  0.0860
40185W        W83279   7.598  11.459  23.264  0.0313 -0.0403  0.0843
40186W        W83280  12.217   6.782  28.080  0.0734  0.1581  0.2677
40187W        W83281   9.289  10.047  26.229 -0.0600 -0.1023 -0.0387
40188W        W83282   8.206  12.134  27.123 -0.3449 -0.0986  0.1640
40189W        W83283   7.005   8.553  24.116  0.0664  0.1970  0.3951
40190W        W83284   7.755  10.666  26.255  0.0836  0.0367 -0.0571
40191W        W83285   8.474   9.877  25.027  0.0650  0.0689  0.1105
40192W        W83286   9.266  11.249  23.657 -0.0702  0.1741 -0.1785
40193W        W83287  10.471  10.504  25.454 -0.0935  0.0308  0.0003
40194W        W83288   9.995   8.472  26.236 -0.1856  0.1720  0.1502
40195W        W83289  10.792   8.826  25.210 -0.0172 -0.1189  0.0631
40196W        W83290   8.219   7.775  26.183 -0.2683 -0.0241 -0.0835
40197W        W83291  10.612   7.696  25.163  0.5034 -0.1044  0.1611
40198W        W83292  10.606   8.265  25.163  0.2518 -0.5180 -0.0534
40199W        W83293   7.225  10.493  27.000  0.0749 -0.0449  0.0271
40200W        W83294   7.713   9.133  23.155  0.2769  0.0052 -0.0208
40201W        W83295   8.427   8.527  22.445 -0.2496 -0.1802  0.2849
40202W        W83296   8.275   9.417  26.039  0.1712 -0.2423  0.1702
40203W        W83297   9.355   7.353  27.073  0.0032 -0.1075  0.1281
40204W        W83298   7.377   8.648  27.635 -0.1501  0.0074 -0.1421
40205W        W83299   8.904   8.816  25.579  0.0140 -0.0428 -0.2681
40206W        W83300   7.499   8.613  22.933 -0.1592 -0.1972  0.2660
40207W        W83301   8.935  10.661  24.511  0.0328  0.0643 -0.1907
40208W        W83302   7.934   5.246  24.904  0.0085 -0.2211  0.2493
40209W        W83303   7.597   7.287  24.373 -0.0198  0.1825  0.1231
40210W        W83304   8.285   9.780  24.148 -0.1115 -0.0799  0.2297
40211W        W83305   9.678   9.921  24.599  0.2560  0.1421  0.1138
40212W        W83306   8.898   7.960  24.756  0.0140  0.0024 -0.0719
40213W        W83307  11.529  10.115  26.466  0.0920 -0.1196  0.1883
40214W        W83308   8.304  11.236  22.937  0.1548 -0.0294  0.0059
40215W        W83309   8.229   8.618  27.714 -0.0724 -0.1260  0.0430
40216W        W83310   9.202   6.205  26.442 -0.3335 -0.1352  0.1313
40217W        W83311   7.621   7.079  22.244 -0.3461 -0.0573  0.2173
40218W        W83312   8.156   9.625  27.696  0.0912 -0.1148 -0.4684
40219W        W83313   9.306  10.592  24.047  0.0015 -0.4773 -0.1710
40220W        W83314  10.263  12.345  24.999  0.1511 -0.0362 -0.0208
40221W        W83315   8.465  11.298  27.337 -0.0008 -0.0299 -0.1224
40222W        W83316   9.793  11.095  26.487  0.0730 -0.0882 -0.0599
40223W        W83317   9.384   7.796  25.841  0.2860  0.2206 -0.0494
40224W        W83318   8.311   9.978  25.474 -0.1239 -0.0703  0.1094
40225W        W83319   7.538  11.120  28.414  0.0353 -0.1604  0.3095
40226W        W83320  10.512  10.352  23.756 -0.0583 -0.0958 -0.1199
40227W        W83321  10.196   8.002  25.285 -0.3107  0.1044 -0.0622
40228W        W83322   8.202   9.205  24.864  0.0805  0.2299  0.4298
40229W        W83323   8.235   6.327  26.433 -0.2286 -0.1077 -0.0384
40230W        W83324   7.884   9.667  26.913  0.0440  0.0638 -0.4894
40231W        W83325  11.793   9.483  26.524  0.1903  0.2657 -0.0875
40232W        W83326   8.880   8.047  25.238  0.0036  0.2808  0.1106
40233W        W83327   9.449   9.140  25.397  0.0388 -0.2929 -0.1142
40234W        W83328   8.578   9.764  26.250  0.4474 -0.1948  0.3371
40235W        W83329   8.181   8.652  25.727 -0.0370 -0.0210 -0.0950
40236W        W83330   9.564   7.406  24.954 -0.1651 -0.0490  0.2738
40237W        W83331   9.258  11.163  26.865  0.2226  0.3422 -0.0663
40238W        W83332   8.560   9.147  25.734  0.0536 -0.2126 -0.0723
40239W        W83333  10.159   9.829  26.925  0.0401 -0.1685 -0.1419
40240W        W83334   7.722   9.673  23.457  0.4270  0.0475 -0.0910
40241W        W83335  10.968   9.064  22.930 -0.2684 -0.2694  0.1656
40242W        W83336   8.837  10.934  26.588  0.1749 -0.0149 -0.0791
40243W        W83337  13.926  10.609  27.596 -0.2044  0.1099  0.1881
40244W        W83338   9.555  11.273  26.004 -0.1563  0.1382 -0.0670
40245W        W83339  10.790   8.968  26.233 -0.1544  0.1732 -0.1926
40246W        W83340   8.891   7.645  26.553 -0.1496  0.1634  0.2673
40247W        W83341   7.785   8.884  24.700  0.0822  0.2666 -0.1221
40248W        W83342   6.876   8.549  25.175 -0.0995 -0.1425  0.2724
40249W        W83343   8.199   8.093  27.670  0.1428 -0.1996 -0.2420
40250W        W83344   6.422   6.606  24.193  0.1315  0.1090  0.0481
40251W        W83345   9.389   7.999  23.397 -0.0518  0.1425  0.0919
40252W        W83346   8.107  12.421  26.535  0.0365  0.0755  0.1185
40253W        W83347   8.378   9.786  26.824  0.0249  0.2100  0.0576
40254W        W83348   9.773   9.043  30.800 -0.2159 -0.1566 -0.3198
40255W        W83349   8.342   8.592  28.644  0.0573 -0.0361 -0.1020
40256W        W83350  11.105   8.572  28.271 -0.0936  0.0672  0.0047
40257W        W83351  11.914   8.800  27.874 -0.0525  0.1408 -0.2142
40258W        W83352   6.376   8.488  27.763  0.1918 -0.3481 -0.0267
40259W        W83353  10.500  11.244  28.893 -0.0542  0.0211  0.2779
40260W        W83354   7.313   6.887  30.868 -0.1235  0.3563  0.1192
40261W        W83355  10.835  10.398  30.644 -0.1320 -0.0705 -0.0423
40262W        W83356  10.147  10.827  29.971  0.1887 -0.2562  0.3607
40263W        W83357  10.250  11.352  28.180  0.1223  0.0379  0.2889
40264W        W83358   8.396   7.819  30.797 -0.1421  0.1918  0.0608
40265W        W83359   8.093  11.079  29.286 -0.0500 -0.0050 -0.0206
40266W        W83360  11.123   6.709  27.358 -0.2268 -0.4641  0.0059
40267W        W83361   7.804   7.332  27.611 -0.1238  0.3605 -0.0190
40268W        W83362  10.605  10.028  29.776  0.2391  0.3509  0.3150
40269W        W83363   7.928  10.221  28.491  0.0199 -0.0564  0.2108
40270W        W83364   7.877   8.963  30.823  0.0901  0.2514 -0.2848
40271W        W83365   8.730   8.419  28.186  0.1488  0.1405  0.3504
40272W        W83366  10.636  10.207  29.200  0.1633  0.0174 -0.1082
40273W        W83367   8.555   6.991  30.386  0.0978 -0.0460  0.1320
40274W        W83368   9.987   7.815  29.468  0.2808 -0.0481 -0.0469
40275W        W83369   9.517  12.057  29.156 -0.0564 -0.1675  0.0852
40276W        W83370   7.802  10.369  28.035  0.6224 -0.2763 -0.1153
40277W        W83371   7.760   8.586  28.475 -0.2952 -0.2255  0.1698
40278W        W83372   7.711  10.088  31.131  0.1257 -0.0903 -0.0522
40279W        W83373  11.397   8.450  30.303 -0.1788  0.0301 -0.0820
40280W        W83374  10.174   9.346  28.684  0.1577  0.2482 -0.2247
40281W        W83375  10.288  11.737  28.529  0.1901 -0.1948  0.0545
40282W        W83376   9.356  10.124  29.751  0.0922  0.0147  0.1173
40283W        W83377  10.349   8.729  30.070  0.3155 -0.2717  0.0873
40284W        W83378   5.813  10.334  28.458 -0.0151 -0.0240  0.0534
40285W        W83379   7.221  11.268  28.785  0.0991  0.3072  0.2110
40286W        W83380   8.024  11.444  26.974 -0.2036 -0.0510 -0.0900
40287W        W83381  11.331  10.097  28.831  0.2042  0.0335  0.1423
40288W        W83382  10.942   9.272  30.474 -0.2663  0.0135  0.2115
40289W        W83383   8.596  10.071  30.957 -0.0384  0.0830 -0.3666
40290W        W83384   8.575  10.815  27.037  0.1807  0.4533  0.1277
40291W        W83385   9.249   9.941  31.775 -0.1451 -0.0178  0.1294
40292W        W83386   9.095   8.983  30.580  0.2006 -0.2010 -0.2445
40293W        W83387   8.375   9.054  28.940 -0.1508 -0.1935 -0.1455
40294W        W83388  10.067   9.530  29.578  0.1552  0.0729 -0.1438
40295W        W83389   8.392  10.255  29.610 -0.0037  0.1339 -0.0568
40296W        W83390   9.751   8.354  30.009 -0.1042 -0.1214  0.0461
40297W        W83391   7.607   9.424  30.777 -0.3138 -0.0261 -0.1524
40298W        W83392   7.503   9.305  28.853 -0.4191 -0.2071 -0.2602
40299W        W83393  11.748   7.772  31.742 -0.1403 -0.0373  0.1833
40300W        W83394   7.096  12.377  29.023 -0.3061 -0.0222 -0.0093
40301W        W83395   8.936   9.902  27.115  0.0722  0.0343  0.1196
40302W        W83396   8.366   8.943  27.113 -0.1694  0.0071  0.1590
40303W        W83397  10.798   8.240  29.843  0.1760 -0.0455  0.1857
40304W        W83398   8.006   8.396  29.009 -0.3372 -0.0567 -0.0569
40305W        W83399   9.284  11.072  28.661 -0.3144 -0.0779  0.1647
40306W        W83400   9.253   8.120  29.325  0.0284 -0.3558  0.2754
40307W        W83401  10.907  10.831  29.819 -0.1789  0.0444  0.2131
40308W        W83402   8.212  10.396  29.205  0.3636 -0.2661 -0.0370
40309W        W83403  10.225   8.279  29.233 -0.0606  0.1784 -0.0678
40310W        W83404   8.916  10.777  28.597 -0.3719  0.0087  0.1350
40311W        W83405   7.345   8.505  30.718 -0.0774 -0.1872  0.0976
40312W        W83406  10.208  10.950  26.151 -0.1839 -0.2524  0.0440
40313W        W83407  11.298  10.158  27.544  0.0570  0.2515 -0.1574
40314W        W83408   9.159   8.469  29.681 -0.1857 -0.1757  0.1212
40315W        W83409   8.400   9.794  28.414  0.2087  0.2690 -0.3183
40316W        W83410   8.374   9.338  30.447  0.2416 -0.1800  0.3679
40317W        W83411   7.606   7.240  31.035 -0.0818  0.1377  0.1020
40318W        W83412   9.138   7.823  29.863  0.0185  0.2637 -0.1438
40319W        W83413  10.469  10.329  31.951 -0.0414  0.0142  0.1097
40320W        W83414   8.230   9.333  31.821  0.1096 -0.1277 -0.0353
40321W        W83415  11.551   8.534  28.111 -0.1359  0.1530 -0.0023
40322W        W83416   9.355   9.075  29.022  0.0127 -0.1953  0.3131
40323W        W83417  10.862  10.367  30.067 -0.0001  0.3517  0.0748
40324W        W83418  11.350   9.578  27.654  0.4668  0.2364 -0.2522
40325W        W83419  11.046   8.143  30.363  0.0457 -0.0229  0.2773
40326W        W83420  10.500   8.026  30.305  0.2341  0.0613 -0.0009
40327W        W83421   8.022  10.843  28.275 -0.2192  0.1058 -0.1085
40328W        W83422   8.898  10.458  27.342 -0.0519 -0.3820  0.2534
40329W        W83423  12.127  10.050  29.797  0.2047 -0.3637  0.0252
40330W        W83424   9.873   9.432  28.278 -0.0066 -0.1561  0.1234
40331W        W83425   8.634   9.019  29.418  0.1500 -0.2004  0.0432
40332W        W83426   9.552   9.110  30.308 -0.1433 -0.0744  0.3811
40333W        W83427   8.865   9.475  30.463  0.0362 -0.0240 -0.0793
40334W        W83428   7.531  11.240  26.927 -0.3855 -0.1229 -0.0499
40335W        W83429   6.861   8.625  29.389 -0.0493 -0.2459  0.1275
40336W        W83430   8.401   9.752  29.647 -0.0150  0.2768  0.0802
40337W        W83431   7.024   7.574  29.524  0.1919 -0.4424  0.1951
40338W        W83432   9.667  10.304  28.826 -0.0993  0.2519  0.2847
40339W        W83433  11.681   7.659  28.487 -0.1135  0.1872 -0.0710
40340W        W83434   8.169   6.634  31.161  0.0052  0.2378 -0.0732
40341W        W83435  11.918   7.699  29.375 -0.1167  0.2881 -0.2784
40342W        W83436   8.044   9.489  28.824 -0.0928  0.0966 -0.0616
40343W        W83437   9.826  10.666  28.500 -0.0643  0.0480  0.0285
40344W        W83438  10.006   9.329  27.230 -0.0363 -0.3037 -0.1437
40345W        W83439   9.362  10.066  26.781 -0.0013  0.0962  0.1766
40346W        W83440   6.368   8.419  29.383 -0.1657  0.3071 -0.1372
40347W        W83441   8.066   8.483  30.917 -0.0590 -0.1286 -0.0447
40348W        W83442   7.978   6.209  30.821  0.1015 -0.0969 -0.0924
40349W        W83443   7.007   6.170  30.274  0.5054  0.0340 -0.1706
40350W        W83444  11.325   9.959  29.965 -0.2015  0.0541  0.0456
40351W        W83445   8.018   6.148  26.831 -0.3766  0.1461 -0.0399
40352W        W83446  10.022   9.390  27.819  0.0373  0.0863 -0.3156
40353W        W83447   8.802   9.491  27.670 -0.1295 -0.0520  0.0704
40354W        W83448   7.021   7.782  29.053  0.0714 -0.0796 -0.1069
40355W        W83449   9.084   5.887  30.233 -0.1636  0.0616  0.0929
40356W        W83450  10.614   9.351  28.362  0.3128 -0.2614  0.4975
40357W        W83451   9.660  11.439  30.528  0.1415  0.2271 -0.1434
40358W        W83452  10.468  10.472  28.482 -0.1190 -0.1598  0.1742
40359W        W83453   8.434   7.346  29.992  0.0840  0.2280 -0.3618
40360W        W83454   7.885   8.014  29.278  0.1978  0.1848  0.1025
40361W        W83455   8.972  10.755  27.862 -0.0704 -0.0524 -0.3021
40362W        W83456   9.381  11.846  29.729 -0.0207  0.1724  0.0396
40363W        W83457   8.481   9.375  28.047  0.3494 -0.2180 -0.0889
40364W        W83458  10.960  10.439  28.816  0.1649 -0.0607 -0.1461
40365W        W83459   8.842   9.955  29.781 -0.0313 -0.0020  0.2378
40366W        W83460   8.312   9.228  30.958 -0.0997  0.1728 -0.1327
40367W        W83461  10.635   6.434   0.338  0.0740 -0.1136  0.1129
40368W        W83462  10.535   9.478  29.725 -0.0757  0.4428 -0.0862
40369W        W83463   9.329   8.828  28.597 -0.0151 -0.0866  0.0600
40370W        W83464   7.286   8.205  28.935 -0.1420 -0.0281 -0.1059
40371W        W83465   9.492  11.464  29.403  0.0624 -0.1362  0.0927
40372W        W83466   7.297  11.175  27.793  0.0395  0.1129  0.1426
40373W        W83467   8.503   8.616  29.143  0.1925 -0.0676 -0.0125
40374W        W83468  10.883  10.945  28.616  0.1341 -0.3467  0.2412
40375W        W83469  10.485   7.940  29.528  0.0602 -0.0692  0.3576
40376W        W83470   8.876   7.884  31.203  0.0390 -0.3742 -0.3900
40377W        W83471   9.979   8.799  29.457  0.2671  0.1054  0.3188
40378W        W83472   7.324   9.539  28.149  0.1327 -0.4621  0.1408
40379W        W83473   6.967   8.866  30.877 -0.0693  0.3205 -0.2193
40380W        W83474   8.712   8.857  27.910 -0.0795 -0.3282 -0.1205
40381W        W83475  11.023   8.102  28.458  0.3770 -0.3779  0.1561
40382W        W83476  11.051   8.276  31.164  0.1849  0.0475  0.0344
40383W        W83477  12.807   9.047  28.820 -0.0741  0.1216  0.0106
40384W        W83478   9.848   8.628  27.194 -0.1023 -0.4128 -0.0886
40385W        W83479  10.823   9.969  27.628 -0.0900 -0.1680  0.2238
40386W        W83480   8.801   9.580  31.023  0.1643 -0.0324 -0.1216
40387W        W83481   9.127   9.878  29.285 -0.1210 -0.1256 -0.0986
40388W        W83482   9.813  10.315  29.595 -0.0258  0.0634 -0.4227
40389W        W83483   9.329   9.369  28.394  0.1421  0.1351 -0.1154
40390W        W83484  11.381  11.142  26.725  0.0763  0.1853  0.0072
40391W        W83485   8.061  11.079  30.237 -0.2226 -0.0317  0.2037
40392W        W83486   9.486   9.999  30.568  0.0078  0.0549  0.2120
40393W        W83487   9.990  11.323  28.699 -0.0338  0.2181  0.0171
40394W        W83488   7.764   8.163  29.766  0.4211 -0.0357 -0.2593
40395W        W83489   8.279  10.256  28.163  0.1760  0.2414  0.0516
40396W        W83490   9.761   8.294  29.319 -0.0171  0.1396 -0.1620
40397W        W83491   7.718  10.449  27.204 -0.3190 -0.2381 -0.1116
40398W        W83492  10.158   7.612  30.364 -0.1005  0.1170 -0.2315
40399W        W83493   9.965   5.445  30.006  0.3510  0.3424 -0.2333
40400W        W83494   8.797   8.276  31.560  0.2056  0.1151 -0.1136
40401W        W83495  12.192   9.627  30.290  0.0665  0.2899 -0.1343
40402W        W83496  10.230  10.110  27.662  0.0786  0.1204  0.1541
40403W        W83497  10.406   8.720  29.024 -0.0256 -0.0095  0.1829
40404W        W83498   7.435   8.607  27.052 -0.0296  0.2422  0.2786
40405W        W83499   8.971   7.243  31.255  0.4152 -0.0001  0.0941
40406W        W83500   8.041   8.030  31.151 -0.0317  0.4908 -0.0397
40407W        W83501   6.355  10.107  30.273 -0.2616 -0.1221  0.0033
40408W        W83502  10.529  10.537  29.648  0.1380 -0.0696 -0.2111
40409W        W83503  10.741   7.393  29.100 -0.0086 -0.1843  0.2151
40410W        W83504   8.376   7.395  31.070 -0.1237  0.0846 -0.0491
40411W        W83505   9.799   8.959  28.440 -0.3594  0.1339  0.2213
40412W        W83506  10.013   9.854  28.036  0.0282  0.0358  0.2888
40413W        W83507   8.175  10.636  27.822  0.0406  0.1431  0.0188
40414W        W83508   8.215   8.352  29.555 -0.1548  0.1337  0.3350
40415W        W83509  10.218   9.149  29.860 -0.0242 -0.2579 -0.3332
40416W        W83510   9.808  10.268  27.582 -0.2333 -0.3060 -0.2715
40417W        W83511  10.874   8.664  29.595  0.2785 -0.4020 -0.0327
40418W        W83512   9.059  10.018  30.229  0.2651  0.0718 -0.0035
40419W        W83513  10.385   7.462  29.447 -0.0983  0.0862  0.3297
40420W        W83514   7.106  10.936  29.313 -0.0116  0.0034  0.1025
40421W        W83515   8.279   8.230  28.169  0.0371  0.2885 -0.0617
40422W        W83516   7.408   8.211  27.854 -0.0432 -0.4136 -0.2124
40423W        W83517  10.641   7.111  29.721  0.1742 -0.0289  0.1891
40424W        W83518  10.648  10.510  27.702 -0.0555  0.2779  0.1357
40425W        W83519   7.780   7.224  29.705 -0.1980 -0.2238 -0.2488
40426W        W83520   9.379   7.642  29.445 -0.1250 -0.1438  0.0618
40427W        W83521   7.841  10.674  29.350  0.0980 -0.0051  0.1492
40428W        W83522  11.194   8.460  29.264 -0.0771 -0.2150  0.5823
40429W        W83523  10.616   8.872  28.087 -0.0746 -0.0762 -0.1008
40430W        W83524  10.174  10.310  29.929  0.1138  0.1341 -0.0102
40431W        W83525   8.433   8.739  31.219 -0.1348 -0.3032 -0.0145
40432W        W83526   8.368   9.218  28.483  0.4874 -0.0902 -0.1969
40433W        W83527  10.246   9.254  30.748 -0.2654 -0.2538 -0.1030
40434W        W83528   8.570   7.761  28.282  0.3062 -0.1125 -0.1113
40435W        W83529   8.607   9.681  30.106  0.0400 -0.2838  0.3837
40436W        W83530  10.590  10.744  30.322  0.1695 -0.1320  0.0844
40437W        W83531   7.459  10.427  27.642 -0.0467 -0.1256  0.2084
40438W        W83532   8.570   9.524  28.861  0.1770  0.0559 -0.0761
40439W        W83533   8.709   7.526  31.608  0.2184  0.0740  0.1532
40440W        W83534  11.821  10.539  31.321 -0.2594  0.0477 -0.0167
40441W        W83535   7.481   8.824  30.099 -0.2327 -0.0987 -0.0451
40442W        W83536   8.567   8.114  28.580  0.1873  0.1731 -0.4433
40443W        W83537   8.894   7.802  29.224  0.0612 -0.6118 -0.3509
40444W        W83538  11.115  10.743  30.361 -0.1020 -0.2527 -0.1729
40445W        W83539  10.342   8.400  29.713  0.1075  0.0425  0.0025
40446W        W83540   9.907  10.018  30.312  0.1770 -0.1347  0.1869
40447W        W83541   9.436   7.805  28.993  0.0756  0.2155  0.4849
40448W        W83542  11.208  10.179  28.150  0.2139 -0.0157  0.0786
40449W        W83543  11.008   9.059  30.953 -0.3218  0.1485  0.2349
40450W        W83544   7.200   8.850  29.147 -0.0843  0.1780 -0.4382
40451W        W83545   6.519   9.002  29.461  0.1824 -0.0904 -0.1311
40452W        W83546   9.259   9.648  27.931 -0.3294  0.0960  0.0554
40453W        W83547   9.739   7.828  30.170  0.0809 -0.0092 -0.3358
40454W        W83548   8.661   9.956  29.194  0.2137  0.1206 -0.1345
40455W        W83549   8.589  10.970  29.005  0.3152 -0.1307  0.2461
40456W        W83550   9.559  10.579  29.231  0.2096 -0.2084 -0.2470
40457W        W83551  10.438   7.998  27.429 -0.0820  0.0206 -0.0789
40458W        W83552   9.494  10.656  27.476  0.1778  0.1688 -0.0348
40459W        W83553   9.413   8.355  28.877  0.1185  0.2823  0.0589
40460W        W83554  12.073   7.557  31.197  0.0650 -0.2434 -0.0454
40461W        W83555   9.010  10.474  26.834  0.1597  0.0268  0.1292
40462W        W83556   9.625   8.041  29.667  0.1961 -0.0451  0.1391
40463W        W83557   7.303   5.799  30.084  0.1466 -0.1560  0.2183
40464W        W83558  11.280   9.620  29.039 -0.0347  0.1794 -0.0064
40465W        W83559   7.236   7.893  29.964  0.0539  0.0760 -0.0741
40466W        W83560   9.159  11.201  31.814 -0.0461  0.3666  0.1318
40467W        W83561   6.856   8.970  31.939 -0.1654  0.0428  0.1316
40468W        W83562   8.851   9.004  28.900  0.0919 -0.1679 -0.3571
40469W        W83563   9.254   8.726  27.688  0.2297  0.1307 -0.0789
40470W        W83564   9.015   9.898  30.700  0.0334 -0.0311  0.2046
40471W        W83565  11.384   9.236  30.102 -0.1300 -0.0251  0.0873
40472W        W83566   8.956  10.341  29.503 -0.1474  0.1230 -0.0940
40473W        W83567   9.823   8.405  28.503 -0.1810 -0.0858 -0.1359
40474W        W83568   6.976   8.341  31.137  0.0896 -0.3715  0.0058
40475W        W83569  11.852   9.729  28.415  0.2175 -0.1878  0.1516
40476W        W83570   9.678   9.684  27.591  0.3149 -0.1090 -0.1917
40477W        W83571   8.149   9.857  29.127  0.0273 -0.1569  0.4625
40478W        W83572   7.541   7.970  31.459  0.2564 -0.2424  0.2219
40479W        W83573  11.312  10.887  28.975 -0.1018  0.0587 -0.3707
40480W        W83574   9.491   8.716  29.455 -0.2648 -0.0764  0.2352
40481W        W83575   8.860   7.407  30.353  0.0031  0.2984  0.1891
40482W        W83576   9.862   8.073  28.843  0.3168 -0.0061  0.0269
40483W        W83577   7.883   8.604  30.414  0.1253 -0.0811 -0.3662
40484W        W83578   7.589   7.804  30.355  0.1702 -0.0069 -0.3678
40485W        W83579  10.861  10.926  31.261  0.0828  0.1470  0.1680
40486W        W83580  11.147   9.732  27.232 -0.2059 -0.1029 -0.2159
40487W        W83581  11.809   7.346  30.853 -0.0371 -0.0102 -0.0906
40488W        W83582  11.098   9.345  28.554  0.0797  0.1033 -0.2182
40489W        W83583   8.860   9.592  28.312 -0.0530 -0.1237  0.1082
40490W        W83584   7.490   8.329  30.137  0.1962  0.1100 -0.2832
40491W        W83585  10.285   7.952  31.657 -0.0764 -0.0632 -0.0098
40492W        W83586   8.276   8.763  28.185  0.1251 -0.2071  0.1588
40493W        W83587   9.552   7.186  30.765  0.3630  0.0801  0.2398
40494W        W83588   8.529  10.740  28.132 -0.0813  0.1173 -0.2993
40495W        W83589  10.941   9.346  29.410  0.2150 -0.2688 -0.1042
40496W        W83590   8.356  10.110  28.764  0.2257 -0.1442 -0.0067
40497W        W83591   7.277   7.452  30.688 -0.0655  0.3411  0.1846
40498W        W83592   9.203   9.564  31.317 -0.0742 -0.2910 -0.2125
40499W        W83593   7.958   9.118  28.040 -0.0606 -0.0553  0.1573
40500W        W83594   8.623  10.367  27.806  0.2362 -0.0106  0.0281
40501W        W83595  10.373   8.500  30.488  0.0631  0.1675  0.1409
40502W        W83596  12.213   9.184  31.827  0.2930  0.0957  0.0261
40503W        W83597   8.708   8.575  27.523 -0.0377  0.1331 -0.0451
40504W        W83598  10.719   6.655  30.707  0.1714 -0.1296 -0.0635
40505W        W83599   8.376  10.678  28.578 -0.0196 -0.1612  0.1111
40506W        W83600   8.791   7.902  30.281 -0.2695 -0.1145  0.2447
40507W        W83601   8.570  11.125  28.409  0.0680  0.2958 -0.0334
40508W        W83602   6.468   8.978  30.784 -0.0399 -0.1186  0.0333
40509W        W83603   6.978  10.428  28.385  0.0044  0.1912 -0.0047
40510W        W83604   9.682   6.017  31.193 -0.1739  0.0094 -0.2240
40511W        W83605  12.136   7.464  28.366  0.2291 -0.1134  0.0139
40512W        W83606   8.343  10.094  30.120 -0.0534 -0.1437 -0.6000
40513W        W83607  12.263   8.465  31.343  0.0886  0.1519  0.0863
40514W        W83608   9.707   9.545  30.648  0.2404 -0.1738  0.3778
40515W        W83609   9.924   9.494  30.226  0.0065  0.0031 -0.0746
40516W        W83610  10.104  12.456  30.136 -0.1283  0.2269  0.2785
40517W        W83611  10.474   9.571  29.242 -0.1672  0.0453  0.3732
40518W        W83612   8.859  10.007  28.730  0.1693  0.1522  0.0782
40519W        W83613   6.500   8.178  30.382  0.2599  0.0580 -0.0673
40520W        W83614  10.852   9.318  31.328  0.2343  0.0835  0.4677
40521W        W83615  10.738   9.274  28.903  0.0613 -0.0674  0.0422
40522W        W83616   8.976   7.340  29.088 -0.3748  0.0833  0.2320
40523W        W83617   8.645  11.248  26.260  0.0241  0.1594  0.0144
40524W        W83618   8.869   9.924  31.387  0.1141  0.1646  0.2951
40525W        W83619   7.143   9.353  30.013  0.2485 -0.1834  0.4932
40526W        W83620   9.492  12.111  28.586 -0.0727 -0.1669  0.2012
40527W        W83621   9.801   8.828  29.945  0.0953  0.0571  0.1401
40528W        W83622   9.406   9.898  28.798 -0.1467  0.4097 -0.1955
40529W        W83623  11.106  10.285  29.656 -0.0046 -0.2231 -0.1181
40530W        W83624   8.843   9.051  27.425  0.2186  0.2032 -0.3087
40531W        W83625   7.753  10.290  29.001  0.1508  0.2103 -0.0023
40532W        W83626   7.697  10.837  27.783  0.0884  0.1343 -0.0219
40533W        W83627   8.960  10.032  28.172 -0.1313 -0.0013 -0.3175
40534W        W83628   9.871  11.757  28.888  0.0486 -0.1457  0.0399
40535W        W83629  10.538  10.033  31.480 -0.3185  0.3971  0.1231
40536W        W83630   9.948   8.115  28.131 -0.0210  0.1005 -0.1531
40537W        W83631  11.609   9.354  28.709 -0.1876 -0.3142 -0.1582
40538W        W83632  11.708   9.169  27.662  0.3123  0.1027 -0.0347
40539W        W83633   9.905  10.812   0.272  0.1010  0.1797 -0.0625
40540W        W83634  10.192   9.079  28.156  0.1218 -0.0528 -0.3919
40541W        W83635   8.611   8.211  26.655  0.0991  0.1537  0.1336
40542W        W83636   7.734   8.996   0.839  0.1798 -0.0907 -0.2885
40543W        W83637  11.958   7.314  29.716  0.0728 -0.2681  0.0782
40544W        W83638   9.798   9.874  29.820 -0.0402 -0.0618  0.1969
40545W        W83639   9.390  10.151  27.285 -0.2373  0.1170 -0.1426
40546W        W83640   7.735   7.656  28.364 -0.3018 -0.1481 -0.1090
40547W        W83641   8.866   9.400  29.783 -0.3013  0.0341  0.2235
40548W        W83642  11.569   7.600  31.321  0.0002  0.0655 -0.1534
40549W        W83643   7.732  11.234  27.458 -0.0295 -0.2292  0.0359
40550W        W83644   9.475  10.288  28.069 -0.0987 -0.0474 -0.0626
40551W        W83645   9.375  11.939  27.537  0.1307  0.0407  0.0221
40552W        W83646   9.856  10.974  29.521  0.4328 -0.1132 -0.0767
40553W        W83647  10.784  11.979  28.216  0.0856 -0.1506 -0.1306
40554W        W83648   6.849   8.746  27.574  0.0336  0.0889  0.0001
40555W        W83649  11.277   8.109  28.908  0.0567 -0.1238  0.0169
40556W        W83650   8.112   9.654  30.094 -0.1146  0.0599  0.0535
40557W        W83651   9.893   7.158  31.680 -0.0738  0.2981  0.0424
40558W        W83652   8.310   8.302  30.039 -0.2331  0.0402 -0.0927
40559W        W83653  10.251   8.775  28.533 -0.2810 -0.1234 -0.1054
40560W        W83654  10.245   9.795  30.015 -0.0003 -0.0760 -0.1448
40561W        W83655   7.854   7.442  30.627 -0.0263  0.1079 -0.3685
40562W        W83656   8.513   9.870  27.914  0.0568  0.3047  0.2143
40563W        W83657  10.346   8.871  31.563  0.1130 -0.0745  0.1669
40564W        W83658   8.932  10.020  27.593 -0.1714  0.0071 -0.1043
40565W        W83659   9.523  10.501  31.073 -0.0341 -0.1561 -0.0234
40566W        W83660   7.293   7.510  27.251  0.2110  0.0001  0.0644
40567W        W83661   9.292   7.126  29.490  0.0632 -0.4267  0.0443
40568W        W83662   6.498  10.124  29.731 -0.1477 -0.4360  0.0310
40569W        W83663   9.352   9.583  29.621  0.0482  0.0253  0.2092
40570W        W83664  10.964  10.193  31.667 -0.2413 -0.0627 -0.0754
40571W        W83665   8.147   7.739  27.982  0.1021  0.2504 -0.4133
40572W        W83666   9.671  11.148  28.215 -0.0713 -0.2679 -0.2726
40573W        W83667  11.002   8.580  30.727  0.0652 -0.1793 -0.1331
40574W        W83668   8.072  11.005  27.155 -0.1338 -0.1603 -0.3125
40575W        W83669  10.538   9.056  29.446  0.3221  0.2399  0.1152
40576W        W83670  11.256  10.227  30.397  0.1427 -0.4753  0.1268
40577W        W83671   8.022   8.097  28.558  0.1779 -0.0164 -0.1959
40578W        W83672  10.177  11.583  30.239 -0.1180 -0.4013  0.1298
40579W        W83673  11.767  10.382  29.600  0.3247  0.1490  0.2014
40580W        W83674   9.729   6.425  27.464  0.0033 -0.0313 -0.1749
40581W        W83675   7.624   8.461  29.334 -0.1523 -0.0469  0.1042
40582W        W83676   7.105  11.304  27.360 -0.1853 -0.1454 -0.1525
40583W        W83677  11.257   8.896  30.484 -0.2393 -0.3524  0.1092
40584W        W83678  10.635   7.891  31.253  0.1256 -0.0388 -0.2242
40585W        W83679   9.038  10.974  27.278  0.1026  0.1279 -0.2067
40586W        W83680  10.796   7.490  31.012 -0.0144  0.2202  0.1230
40587W        W83681   8.894  11.689  29.248  0.0367 -0.2233  0.0217
40588W        W83682   8.221   8.851  30.019  0.1238  0.2744 -0.2444
40589W        W83683   9.238   8.251  27.912  0.6395 -0.1903  0.2689
40590W        W83684   9.441   9.666  30.134  0.2454 -0.0189  0.1316
40591W        W83685   8.426  10.742  29.451 -0.0631 -0.1119 -0.2079
40592W        W83686   9.335  11.135  27.750 -0.2964 -0.0544  0.1943
40593W        W83687  10.144   9.106  29.106  0.0027  0.0296  0.0115
40594W        W83688   9.643   8.591  28.031 -0.2364  0.1994  0.3280
40595W        W83689  11.903   9.693  29.437 -0.0271  0.0296  0.1764
40596W        W83690   9.333   8.361  28.391  0.1405 -0.0983  0.0244
40597W        W83691  11.984   8.437  29.974  0.2121  0.3284 -0.0468
40598W        W83692  10.297   6.078  30.353 -0.2278 -0.0725  0.0884
40599W        W83693   8.578   8.256  31.103  0.2975 -0.1883 -0.0750
40600W        W83694   9.079   9.487  28.805 -0.1898  0.1086 -0.1721
40601W        W83695   7.668   9.622  28.490 -0.1560  0.2352 -0.1284
40602W        W83696   8.312   8.850  30.565 -0.0997  0.3290 -0.3730
40603W        W83697   9.779   8.123  31.532  0.0104  0.2651  0.0012
40604W        W83698   8.226   8.386  31.559 -0.1700  0.1482  0.1321
40605W        W83699   7.241   8.475  29.692  0.0671  0.0598 -0.2177
40606W        W83700   9.082   7.982  28.674  0.0606  0.4093  0.2194
40607W        W83701  10.450   7.911  28.062  0.0505 -0.1971 -0.2645
40608W        W83702   8.366   7.460  30.509  0.2712 -0.1979 -0.0457
40609W        W83703   7.533   7.727  29.066  0.0655  0.1281 -0.0691
40610W        W83704  10.496  10.638  29.000  0.1439 -0.0676 -0.0695
40611W        W83705  10.928   9.682  28.081  0.3606 -0.1880  0.1526
40612W        W83706   9.840   8.730  28.922  0.0485  0.2774 -0.3867
40613W        W83707  10.875  10.334  31.207  0.1982  0.0258  0.0836
40614W        W83708   6.846  10.917  27.496  0.3585  0.0861  0.1146
40615W        W83709  11.677   8.844  30.040  0.0417  0.1336 -0.4288
40616W        W83710   8.876   7.604  30.793 -0.5167  0.2319  0.0543
40617W        W83711   8.592   7.910  27.408  0.0722  0.0343 -0.0846
40618W        W83712   8.608   8.598  29.736 -0.0216 -0.2188  0.0410
40619W        W83713  11.581   9.906  27.949  0.1959 -0.0378  0.1983
40620W        W83714  11.163  10.686  27.639 -0.3669 -0.1328 -0.2988
40621W        W83715   7.829   8.122  30.704 -0.0469  0.2943 -0.0492
40622W        W83716   9.589  11.152  29.034  0.0174  0.1330 -0.2958
40623W        W83717   7.078   6.977  30.453  0.2512  0.0025  0.2685
40624W        W83718  10.071   8.194  27.686  0.0684 -0.0133 -0.0880
40625W        W83719   8.141  10.174  30.746 -0.0854  0.2511  0.0324
40626W        W83720  10.281  10.909  28.568 -0.0149 -0.4396  0.0799
40627W        W83721   9.995   7.487  29.868  0.2648  0.1378 -0.0327
40628W        W83722  10.069  11.583  27.769  0.1362 -0.0830 -0.3504
40629W        W83723   8.192   7.848  30.287 -0.0037  0.1143 -0.0412
40630W        W83724   6.949   8.358  31.693 -0.0677 -0.1957 -0.2043
40631W        W83725  10.219  10.035  29.443  0.0027 -0.2014 -0.0973
40632W        W83726   8.804   8.223  29.033 -0.1583  0.4628 -0.1326
40633W        W83727  10.117   8.562  28.085 -0.0915  0.3015  0.2600
40634W        W83728   9.657   9.999  29.211 -0.3443  0.1103  0.0148
40635W        W83729   6.617   9.213  30.064 -0.2192  0.3116  0.0042
40636W        W83730   7.778   8.902  28.865 -0.3338 -0.0461 -0.0488
40637W        W83731   9.161   9.043  29.571  0.5052  0.2241 -0.1234
40638W        W83732  10.049   9.005  30.357 -0.0643 -0.0014  0.2135
40639W        W83733  10.239   9.852  31.871  0.0966 -0.1064 -0.1343
40640W        W83734   9.594   9.097  27.955 -0.0326 -0.1798 -0.0934
40641W        W83735  12.023   8.586  28.446  0.2382 -0.1396  0.1218
40642W        W83736  10.040   9.706  29.018 -0.0683  0.0134  0.4176
40643W        W83737  10.126  11.164  31.875  0.2036  0.2187 -0.5341
40644W        W83738   9.690   9.254  29.853  0.0809 -0.1207  0.1856
40645W        W83739  10.581   8.927  30.538 -0.1419  0.0666 -0.4528
40646W        W83740   8.891   7.394  29.627 -0.1586 -0.2260 -0.2436
40647W        W83741   8.691  10.444  28.928  0.0220  0.2820  0.1218
40648W        W83742   9.109   8.736  28.145  0.1340 -0.2566  0.1023
40649W        W83743   8.757   9.039  30.189 -0.3554  0.2300  0.0790
40650W        W83744   7.959   7.506  29.299  0.2227 -0.3632 -0.1381
40651W        W83745   9.880   7.086  29.417 -0.2019  0.0705  0.1557
40652W        W83746   8.723   8.695  30.705 -0.2913  0.1518  0.3619
40653W        W83747   9.332   8.669  30.099  0.2825 -0.0859 -0.3051
40654W        W83748  12.478   7.839  31.285 -0.0002  0.1657 -0.0373
40655W        W83749  10.311   7.430  31.448 -0.1850  0.1765  0.0446
40656W        W83750   8.720   7.164  30.794 -0.2729  0.2688 -0.0092
40657W        W83751   7.400   8.847   0.527  0.2336 -0.2631  0.2867
40658W        W83752   8.253   9.713  31.029 -0.3668 -0.2666  0.2359
40659W        W83753   7.763   9.528  31.910  0.1663  0.0193 -0.1303
40660W        W83754  10.404   7.814  30.828  0.0343 -0.2246  0.0945
40661W        W83755  10.070   7.801  31.222 -0.0604  0.2278 -0.1673
40662W        W83756  11.609   6.453  31.676 -0.0469  0.2740 -0.0563
40663W        W83757   9.092  10.129   0.272  0.1640  0.0084  0.3633
40664W        W83758   9.187   8.518  30.595  0.2705 -0.0665 -0.5049
40665W        W83759   8.601   8.067  29.594  0.2418 -0.0040  0.0379
40666W        W83760  10.250  10.471  30.909 -0.0167 -0.1166 -0.3083
40667W        W83761   8.150   8.927  31.642 -0.2617  0.0324 -0.2093
40668W        W83762  11.682   9.614   0.367 -0.2271 -0.3723 -0.3804
40669W        W83763   9.349   8.057  31.179 -0.1694 -0.0520 -0.4799
40670W        W83764   7.923  10.093   1.886  0.2556 -0.0466 -0.0327
40671W        W83765  10.847   9.908  30.331  0.0481 -0.1977 -0.1495
40672W        W83766   7.539   9.185  31.508  0.0130 -0.3205  0.2044
40673W        W83767   9.011   8.464   0.022 -0.0437  0.0086  0.1203
40674W        W83768   8.509   8.465   0.012  0.2015  0.0648  0.1708
40675W        W83769   6.871  11.093   0.367  0.3252  0.0433 -0.2696
40676W        W83770  11.340   9.333   0.069 -0.1105 -0.0843  0.0303
40677W        W83771   9.383   8.448  31.472 -0.1231  0.2418  0.1197
40678W        W83772  10.026   8.220  30.979  0.1852  0.0849 -0.1233
40679W        W83773  12.399   7.088  30.638  0.0664 -0.1214 -0.1007
40680W        W83774   9.013   8.486  31.109  0.1188  0.2064  0.2151
40681W        W83775   7.374  11.321   0.404 -0.1145  0.0131 -0.0907
40682W        W83776   6.740   8.754  30.291  0.2233 -0.4267  0.1890
40683W        W83777   9.294   9.405  30.843  0.0454 -0.4653 -0.0214
40684W        W83778   7.217  11.444  31.890  0.1494 -0.1485 -0.0980
40685W        W83779   9.328   8.138  31.858 -0.0499 -0.2813 -0.0338
40686W        W83780  10.761   7.917  31.777  0.0646  0.3536  0.0123
40687W        W83781  12.039   8.686   0.568  0.1835 -0.2357 -0.2602
40688W        W83782   7.866   7.589  31.331  0.1328  0.2270 -0.0918
40689W        W83783   9.661   9.010   0.206 -0.1749 -0.1570  0.0209
40690W        W83784   9.670   9.398  31.197  0.2434  0.0602  0.1511
40691W        W83785   9.885   8.554  31.374 -0.0234 -0.0659 -0.4735
40692W        W83786   9.360   8.822  30.975 -0.2825 -0.1329  0.1052
40693W        W83787  10.471  10.222  30.391  0.1759 -0.0669 -0.0802
40694W        W83788  12.117   9.437  30.762 -0.0826  0.0937  0.4337
40695W        W83789  10.478   9.328  30.238 -0.0331 -0.0117 -0.1078
40696W        W83790   7.052   7.249  31.070  0.1268  0.1550  0.3004
40697W        W83791   9.273   9.502   0.217  0.0324  0.3815 -0.0781
40698W        W83792   9.086   7.162   0.409 -0.3108  0.2415 -0.1303
40699W        W83793  10.153   8.701  30.951 -0.0218  0.0431  0.2060
40700W        W83794   7.279   6.834   0.339  0.5048  0.4918  0.1347
40701W        W83795   8.871   9.344  31.779 -0.0067  0.5412 -0.2193
40702W        W83796   7.940   9.963   0.533 -0.3014  0.0953  0.3757
40703W        W83797   8.461   9.820  30.565 -0.0875  0.1255  0.1153
40704W        W83798   8.382  11.284  30.536  0.2289  0.4112 -0.0957
40705W        W83799  11.171   7.749  31.526 -0.2322 -0.0592  0.5647
40706W        W83800   9.548   8.101  30.693  0.2289  0.2503  0.2010
40707W        W83801  10.109  10.498  29.253  0.2153 -0.1835 -0.1808
40708W        W83802  10.817   8.071   0.774  0.2107  0.1144  0.2775
40709W        W83803  10.548   8.988  31.098 -0.0797 -0.0512  0.1691
40710W        W83804  10.128   9.663  30.996  0.0123  0.0080  0.0693
40711W        W83805   9.128  10.191  31.085  0.1480 -0.0647 -0.1810
40712W        W83806  10.370   9.719  30.508 -0.1983  0.0637 -0.5628
40713W        W83807   8.389   8.317  30.580  0.0877 -0.1027  0.2721
40714W        W83808   7.242   7.997  30.733  0.2052  0.3642  0.1596
40715W        W83809   8.858   9.052  31.039 -0.0680  0.1678  0.2478
40716W        W83810   6.680   8.510  30.712 -0.1509 -0.0394 -0.2002
40717W        W83811   7.558   6.173  31.056 -0.1754 -0.1120  0.1541
40718W        W83812   9.339  10.965   0.338 -0.1174 -0.2045  0.1077
40719W        W83813  10.822  10.672  31.711 -0.4323  0.1911 -0.1106
40720W        W83814  12.127  10.120  30.487  0.1287  0.1515  0.0205
40721W        W83815   8.460  13.465  18.980  0.0031 -0.0290 -0.1055
40722W        W83816   6.563  11.071  18.652  0.0415 -0.1392 -0.0800
40723W        W83817   9.124  12.246  16.261  0.1430 -0.0162  0.1364
40724W        W83818   9.785  13.329  16.349 -0.3279 -0.3784  0.2391
40725W        W83819   6.394  10.316  18.913 -0.2158 -0.2927  0.1148
40726W        W83820  10.644  14.841  18.319  0.0015  0.1978 -0.2923
40727W        W83821   7.216  10.633  19.217 -0.1771 -0.1098  0.1782
40728W        W83822   9.345  14.264  18.162 -0.3415 -0.1868  0.0063
40729W        W83823  10.835  14.825  17.838 -0.2677 -0.0307 -0.1647
40730W        W83824   9.196  12.623  15.569 -0.0372  0.1262 -0.2911
40731W        W83825   8.900  11.733  19.009  0.0577 -0.0692  0.3867
40732W        W83826   7.946  13.634  17.949  0.0325  0.1497 -0.0368
40733W        W83827   8.296  11.259  16.022 -0.0781 -0.0873 -0.3037
40734W        W83828   8.027  12.159  16.970  0.1403  0.1045 -0.0822
40735W        W83829   9.526  12.440  17.967 -0.0619 -0.1508 -0.1287
40736W        W83830   7.395  12.638  17.102  0.0254  0.1367 -0.1095
40737W        W83831   8.319  11.940  18.632  0.2276 -0.1837  0.0227
40738W        W83832   8.875  11.729  17.185 -0.1285  0.3397  0.0811
40739W        W83833   9.425  15.428  18.644 -0.0046  0.3577  0.0663
40740W        W83834   9.147  11.641  18.260 -0.1774 -0.1487 -0.0491
40741W        W83835   8.744  10.565  18.875  0.1395 -0.2480 -0.1457
40742W        W83836   8.921  13.674  17.160 -0.1531  0.0806  0.1110
40743W        W83837   6.502  11.161  16.767  0.1316 -0.2081  0.0244
40744W        W83838   7.820  12.592  16.755 -0.1125  0.0291  0.4539
40745W        W83839   7.824  11.046  18.847 -0.3291 -0.2661  0.3415
40746W        W83840   9.432  11.278  17.950 -0.1343 -0.3554 -0.1414
40747W        W83841   9.308  12.786  17.115  0.0061 -0.0238  0.2628
40748W        W83842   7.072  14.178  18.434  0.3379  0.0822 -0.1871
40749W        W83843   8.263  15.093  18.577 -0.0180  0.1043 -0.1703
40750W        W83844   9.505  11.060  19.493  0.0176  0.0475 -0.0543
40751W        W83845   6.848  13.643  18.392  0.0188 -0.2431  0.0908
40752W        W83846   5.871  14.788  17.773 -0.0253 -0.2522 -0.0520
40753W        W83847   8.247  12.915  17.387 -0.1899 -0.1635  0.3272
40754W        W83848   9.744  12.765  17.659  0.2093 -0.0848  0.1369
40755W        W83849  10.671  13.775  17.760  0.0302  0.1168  0.2092
40756W        W83850   8.760  14.518  20.674 -0.1088  0.0399  0.2148
40757W        W83851   8.700  13.493  16.196  0.0364  0.2473  0.0983
40758W        W83852   9.563  14.266  20.538 -0.1738  0.0840 -0.1174
40759W        W83853   7.829  14.155  19.910 -0.2532  0.0418  0.0026
40760W        W83854   8.162  12.673  17.942  0.0678 -0.3613 -0.0453
40761W        W83855   9.174  11.888  17.804  0.2426 -0.0367  0.1185
40762W        W83856   7.690  13.416  16.960  0.2291 -0.2246  0.2497
40763W        W83857   8.167  13.320  17.085  0.4639 -0.4088  0.0611
40764W        W83858   8.112  14.551  20.024 -0.1871  0.0491  0.1669
40765W        W83859   8.693  13.303  17.350  0.0293  0.2027 -0.1598
40766W        W83860  11.289  10.660  19.822 -0.0410  0.1755  0.1013
40767W        W83861   7.812  14.335  17.028 -0.1719 -0.1672  0.3077
40768W        W83862   9.251  12.740  16.051  0.0593  0.1182 -0.2952
40769W        W83863   8.654  11.596  16.775 -0.0682 -0.1591  0.0273
40770W        W83864   9.721  10.965  16.028 -0.2255  0.1664  0.0512
40771W        W83865   9.365  10.333  17.883 -0.1689 -0.0826 -0.0044
40772W        W83866   8.250  13.890  18.246 -0.1444  0.0019 -0.0879
40773W        W83867   8.588  12.171  18.998 -0.0399 -0.0396  0.1040
40774W        W83868  11.094  12.695  17.964  0.0975  0.0853 -0.2731
40775W        W83869   9.884  11.926  17.322 -0.1726  0.0434 -0.1011
40776W        W83870  10.170  11.820  17.776  0.0431 -0.3402  0.1202
40777W        W83871   7.223  12.274  19.959 -0.0897 -0.0035 -0.0096
40778W        W83872   7.119  13.092  17.624  0.1187  0.2469 -0.3311
40779W        W83873   8.865  14.366  16.251  0.1558 -0.0483 -0.0674
40780W        W83874  10.065  13.777  16.511 -0.1847  0.2945  0.0132
40781W        W83875   9.737  12.784  16.314  0.0989 -0.2543  0.0159
40782W        W83876   8.833  12.794  16.349 -0.1121  0.1999  0.0398
40783W        W83877   7.958  12.071  19.092 -0.3832  0.0530 -0.0198
40784W        W83878   8.371  12.426  18.563  0.0807  0.0117  0.1850
40785W        W83879   7.100   9.597  17.504 -0.1028 -0.3653 -0.1970
40786W        W83880  11.501  13.103  18.987 -0.0683 -0.1872 -0.0217
40787W        W83881   7.398  13.352  19.472  0.2241  0.2305 -0.3149
40788W        W83882  11.110  11.578  16.955 -0.0691 -0.1771 -0.1430
40789W        W83883   7.871  12.656  18.323 -0.1088 -0.2945  0.0271
40790W        W83884   9.187  13.911  18.561  0.0920 -0.0167  0.0834
40791W        W83885  10.476  13.521  16.324  0.2769  0.1422  0.2627
40792W        W83886  10.622  11.788  16.966  0.0164 -0.0806  0.3306
40793W        W83887   9.933  12.346  17.683  0.1379  0.0819  0.0166
40794W        W83888   8.847  13.001  15.510  0.0532  0.2419 -0.0685
40795W        W83889   7.865  12.549  17.275  0.1503 -0.1462  0.1781
40796W        W83890  10.491  13.360  18.192 -0.0284 -0.0178  0.0374
40797W        W83891  11.192  11.712  16.404 -0.1173 -0.0735  0.0136
40798W        W83892   7.807  13.896  18.925  0.2309  0.2655 -0.0956
40799W        W83893   8.048  11.904  20.443 -0.3029  0.0871 -0.3151
40800W        W83894   8.510  13.397  20.004  0.0227 -0.0495 -0.2591
40801W        W83895   8.257  15.042  16.584  0.0286  0.1204 -0.2023
40802W        W83896   7.085  12.619  17.979  0.0631  0.0902 -0.4163
40803W        W83897   6.894  13.184  16.758 -0.1892  0.0787  0.0066
40804W        W83898   7.385  12.055  18.322 -0.1903 -0.1354  0.1253
40805W        W83899   9.314  14.502  17.117 -0.0968 -0.0547  0.0352
40806W        W83900  10.074  11.934  16.413  0.0779 -0.2022  0.1532
40807W        W83901   8.008  11.243  18.365  0.0711  0.1349  0.1151
40808W        W83902  10.689  11.979  17.752  0.0312  0.0008 -0.3126
40809W        W83903   6.631  14.523  16.758 -0.0417  0.0777  0.1090
40810W        W83904   9.713  14.587  16.773  0.0596  0.3042  0.0836
40811W        W83905  10.123  12.719  18.056 -0.1112  0.1498  0.0026
40812W        W83906   9.006  13.196  15.944  0.0788  0.2132 -0.2318
40813W        W83907   7.578  12.430  19.101  0.1028 -0.0937 -0.3584
40814W        W83908   7.156  12.454  17.472  0.2485  0.0864 -0.0812
40815W        W83909   8.081  11.294  19.266  0.0964 -0.1456 -0.4409
40816W        W83910   7.333  11.713  16.825 -0.3275  0.0628  0.1705
40817W        W83911  10.968  12.446  18.723  0.1100 -0.0754 -0.0463
40818W        W83912   6.857  10.044  16.308  0.2441  0.0981  0.1347
40819W        W83913   9.691  13.641  16.875 -0.3712  0.0095  0.2433
40820W        W83914   9.175  10.527  19.101 -0.1882 -0.1535 -0.0021
40821W        W83915   5.657  13.658  16.344 -0.0882 -0.3089 -0.0403
40822W        W83916   9.380  11.464  18.989 -0.0300  0.0280  0.0409
40823W        W83917   9.868  14.397  18.204 -0.4853  0.1952 -0.5726
40824W        W83918  10.461  14.724  19.306  0.0356 -0.0689 -0.1462
40825W        W83919   9.632  14.810  17.400  0.2819  0.1905 -0.2029
40826W        W83920   6.827  11.196  19.094 -0.1541  0.1127 -0.1567
40827W        W83921   6.282  11.480  17.154 -0.0650 -0.0932  0.1178
40828W        W83922   7.523  14.571  18.103 -0.0153  0.3679  0.2296
40829W        W83923   8.037  14.187  18.590  0.3498  0.0350  0.3610
40830W        W83924   5.858  11.714  17.306  0.2348  0.0884  0.1623
40831W        W83925  11.144  13.954  17.796 -0.0465  0.0707  0.0531
40832W        W83926   8.682  11.823  18.151  0.2222  0.0441  0.2023
40833W        W83927   8.270  14.903  19.150 -0.3871  0.1076 -0.0384
40834W        W83928   9.066  11.996  19.858  0.1500  0.1083 -0.2955
40835W        W83929  11.728  12.224  18.896  0.0994 -0.1314  0.0567
40836W        W83930   9.285  12.939  17.619  0.0893 -0.2366 -0.0087
40837W        W83931   8.605   9.487  16.769 -0.0031  0.0094 -0.1634
40838W        W83932   8.504  14.252  18.471 -0.4459  0.0619  0.0008
40839W        W83933   7.175  14.523  16.778 -0.1984  0.1118  0.1008
40840W        W83934   7.511  13.034  16.708 -0.3463 -0.2853  0.0809
40841W        W83935   8.650  13.009  18.728  0.0053  0.0315  0.0593
40842W        W83936  10.088  10.082  17.607  0.1379 -0.1476 -0.0857
40843W        W83937   7.508  11.288  19.838  0.1185 -0.0002  0.0495
40844W        W83938  10.000  10.716  18.584 -0.0745 -0.1693 -0.0775
40845W        W83939   7.599  11.993  16.021  0.1515  0.0197 -0.2982
40846W        W83940   6.880  14.052  19.452 -0.2958 -0.0228 -0.1383
40847W        W83941   8.258  11.450  17.035  0.0203 -0.0846  0.1824
40848W        W83942  10.004  11.953  15.899 -0.2475 -0.1261  0.1426
40849W        W83943   7.769  12.239  19.556 -0.0613 -0.0088 -0.1163
40850W        W83944  10.369  13.625  17.378  0.2460  0.3370 -0.3328
40851W        W83945   9.706  10.454  16.116 -0.1192  0.1030  0.2523
40852W        W83946   6.914  11.661  17.483 -0.3798 -0.1237 -0.1246
40853W        W83947   7.980  13.067  19.685 -0.2120  0.0442  0.3630
40854W        W83948   9.590  14.243  17.401  0.0172  0.1463 -0.2166
40855W        W83949   8.710  13.634  18.486  0.3966  0.2021 -0.0705
40856W        W83950   7.536  12.195  16.860  0.3964 -0.0052 -0.0456
40857W        W83951  11.491  14.589  15.000  0.0837 -0.3527 -0.0127
40858W        W83952   8.673  14.565  19.100  0.3753  0.0961 -0.0652
40859W        W83953   9.074  13.595  19.204 -0.0193 -0.1374 -0.2438
40860W        W83954   9.683  13.875  18.337  0.0182 -0.3193  0.0192
40861W        W83955   8.644  11.304  19.089 -0.4155 -0.1253  0.1195
40862W        W83956   7.622  12.126  17.444 -0.0639  0.2037 -0.1639
40863W        W83957   9.217  11.415  17.471  0.1734  0.0803 -0.1880
40864W        W83958   7.346  15.061  16.560  0.2082 -0.1105  0.2512
40865W        W83959  11.366  10.762  17.263 -0.2703 -0.3181  0.0161
40866W        W83960   8.750  12.067  16.822 -0.2260  0.2872  0.0662
40867W        W83961   7.906  10.303  19.453  0.0611  0.4969  0.0434
40868W        W83962   9.011  12.855  19.453  0.0540  0.1924 -0.0711
40869W        W83963  10.215  12.028  16.843  0.0882  0.1426  0.1149
40870W        W83964  10.327  12.140  17.410 -0.0120  0.1250  0.0042
40871W        W83965   7.786  12.364  16.329  0.4312  0.1035  0.1823
40872W        W83966   9.175  11.981  19.410  0.0797 -0.2191 -0.1976
40873W        W83967   7.102  12.323  18.731 -0.0638 -0.1143  0.0853
40874W        W83968   7.039  13.586  19.234  0.1089  0.2306  0.2472
40875W        W83969   8.818  13.209  18.273 -0.0649 -0.2211  0.0442
40876W        W83970   8.931  12.302  17.347 -0.0995  0.2209  0.1416
40877W        W83971   8.748  11.756  19.508 -0.2350 -0.0019  0.3207
40878W        W83972   7.806  11.295  17.320 -0.0542  0.0135 -0.0809
40879W        W83973   7.840  14.339  16.428 -0.2664  0.2826 -0.1252
40880W        W83974   8.465  12.953  16.950  0.0415 -0.0182  0.0177
40881W        W83975   8.387  10.250  17.962  0.1440  0.3481  0.0999
40882W        W83976   9.046  13.642  18.093 -0.1407 -0.1087 -0.4841
40883W        W83977   9.945  14.708  15.882  0.2271 -0.0556 -0.1291
40884W        W83978   9.047  12.772  18.142  0.0152  0.0902  0.0892
40885W        W83979   6.933  13.569  17.869  0.2590 -0.0797  0.3396
40886W        W83980  10.530   9.824  17.573 -0.0629  0.0256 -0.3677
40887W        W83981   7.841  13.452  17.438 -0.0166  0.0302 -0.1357
40888W        W83982   7.385  11.598  16.326 -0.1350  0.1861  0.1242
40889W        W83983   6.895  12.766  17.178  0.5784 -0.1862 -0.1871
40890W        W83984   9.663  11.603  16.191  0.2678  0.1236  0.1009
40891W        W83985   9.760  13.160  15.387 -0.0622 -0.0019  0.0668
40892W        W83986   8.391  10.064  19.588 -0.3234 -0.1350 -0.1045
40893W        W83987   9.262  11.254  18.511  0.1114  0.1199  0.3658
40894W        W83988   6.550  13.169  18.478 -0.0566 -0.2242 -0.0866
40895W        W83989   8.898  12.528  18.563 -0.1432  0.0739  0.0969
40896W        W83990   8.334  12.031  16.549  0.1591  0.0787  0.0120
40897W        W83991   8.742  13.753  19.550  0.0211 -0.1553  0.3964
40898W        W83992   7.882  11.714  19.526 -0.0616 -0.0006 -0.1219
40899W        W83993   6.638  10.541  16.229  0.1551  0.1304  0.0110
40900W        W83994  10.216  12.077  19.202  0.1881 -0.0867 -0.1285
40901W        W83995   8.209  13.539  16.612  0.0779  0.0957  0.0037
40902W        W83996   8.331  13.233  17.799  0.1583 -0.1019  0.0043
40903W        W83997  10.002  14.885  19.218  0.0253 -0.1794  0.1195
40904W        W83998   7.990  13.058  16.754  0.0768  0.1808 -0.0298
40905W        W83999   7.706  13.899  16.740 -0.0282 -0.1388  0.0826
40906W        W84000   7.168  11.394  20.356  0.0123  0.0641  0.1586
40907W        W84001   9.852  11.534  18.155  0.3655  0.2209  0.0290
40908W        W84002   7.716  11.785  17.112 -0.2147 -0.0343 -0.0364
40909W        W84003   7.637  10.922  16.832 -0.1057 -0.1949 -0.3014
40910W        W84004   9.732  11.822  16.782  0.0944  0.0627  0.2864
40911W        W84005  10.167  14.176  17.577 -0.1300  0.1551  0.0729
40912W        W84006   9.703  11.332  19.989  0.0026  0.0585 -0.0725
40913W        W84007   8.166  13.594  22.785  0.0383 -0.0270  0.0831
40914W        W84008   9.524  10.713  18.324  0.2300  0.2257  0.3326
40915W        W84009  10.753  14.199  15.398 -0.0052 -0.5155 -0.1890
40916W        W84010   8.422  12.907  20.617 -0.0531 -0.1850 -0.1190
40917W        W84011   7.230  13.152  17.124 -0.1871 -0.0125  0.3264
40918W        W84012   8.219  12.466  19.855 -0.1468 -0.0737 -0.1195
40919W        W84013   7.757  13.319  16.379  0.0785 -0.0736  0.1355
40920W        W84014   8.886  11.948  18.581 -0.1130  0.0639  0.1124
40921W        W84015   8.413  14.179  19.682 -0.5792 -0.2240 -0.0693
40922W        W84016   9.437  13.712  17.391 -0.0057 -0.0960 -0.0135
40923W        W84017   7.733  12.591  19.903 -0.0817  0.3121 -0.0999
40924W        W84018   9.645  12.087  16.306 -0.3224  0.1421 -0.1175
40925W        W84019   9.557  13.052  16.793 -0.1564  0.1579  0.2393
40926W        W84020  10.821  11.591  17.400  0.1225 -0.2363 -0.1561
40927W        W84021  10.799  11.426  19.390 -0.2002  0.0985  0.4133
40928W        W84022  10.373  12.315  17.900 -0.0678  0.1989  0.2872
40929W        W84023  10.304  11.533  19.421  0.3280 -0.1204 -0.0752
40930W        W84024   9.494  10.037  18.277 -0.0692 -0.3024 -0.0344
40931W        W84025  10.780  13.311  17.414  0.2927  0.1639 -0.2398
40932W        W84026   8.278  11.342  18.809 -0.0869  0.0907  0.1586
40933W        W84027   9.072  13.110  20.657 -0.0100  0.1023  0.2160
40934W        W84028   7.249  12.990  21.677  0.1302 -0.1265 -0.1454
40935W        W84029   7.467  11.145  16.037 -0.0353  0.0398 -0.2705
40936W        W84030   6.984  11.273  16.001 -0.0112  0.0301  0.0341
40937W        W84031   8.206  12.222  18.128  0.3458 -0.0604  0.1412
40938W        W84032   9.546  14.769  18.131 -0.1540  0.2383  0.1185
40939W        W84033  10.163  13.924  16.025 -0.2700  0.3482 -0.1532
40940W        W84034   9.774  12.453  16.706  0.0444 -0.2548  0.1390
40941W        W84035   8.387  13.983  19.261  0.0670 -0.1357 -0.2352
40942W        W84036   8.771  12.556  16.850 -0.2868 -0.0237  0.1659
40943W        W84037   8.073  11.688  17.509 -0.2551 -0.1079  0.1367
40944W        W84038   9.011  13.489  17.637  0.0296  0.0381  0.0686
40945W        W84039   9.422  12.530  18.549 -0.0658  0.1536 -0.2066
40946W        W84040  10.648  13.066  17.785 -0.2245 -0.1424 -0.0170
40947W        W84041   8.647  12.342  16.333 -0.0738  0.1242  0.2314
40948W        W84042   9.401  12.558  19.542 -0.0465  0.2463  0.3301
40949W        W84043   8.109  12.548  19.357 -0.1040 -0.1076  0.2338
40950W        W84044   7.888  13.442  19.336 -0.0622 -0.2958  0.2120
40951W        W84045   7.703  10.801  19.288  0.0017 -0.0481  0.0468
40952W        W84046   9.075  15.318  18.984  0.0604  0.0794 -0.0984
40953W        W84047  10.390  11.611  16.156  0.3411  0.0235 -0.0320
40954W        W84048  10.471  10.550  17.339  0.1175 -0.2277 -0.1878
40955W        W84049  10.212  13.431  16.859 -0.2255  0.2033  0.0964
40956W        W84050   8.298  12.608  16.615  0.2572  0.0754 -0.2425
40957W        W84051   8.980  11.053  18.172  0.2005 -0.1515 -0.0682
40958W        W84052   9.431  13.273  20.401 -0.4245 -0.1293 -0.0460
40959W        W84053   7.317  11.136  16.557 -0.0052 -0.0261  0.0460
40960W        W84054   9.371  11.931  17.408 -0.4149 -0.1219  0.1550
40961W        W84055   9.188  14.813  16.288  0.0340 -0.0087  0.2850
40962W        W84056   9.364  14.087  15.988  0.0190 -0.0009  0.5020
40963W        W84057   9.324  12.627  16.597 -0.0050  0.0603  0.3052
40964W        W84058   7.079  10.857  18.558 -0.2389 -0.1381 -0.0265
40965W        W84059   8.216  13.761  19.758  0.0173  0.1609 -0.0272
40966W        W84060   7.294  12.045  16.382  0.1197 -0.1460 -0.1009
40967W        W84061   9.299  13.189  16.321 -0.0514 -0.1595 -0.0685
40968W        W84062   9.479  13.465  17.820  0.1021  0.1469 -0.0202
40969W        W84063   9.672  13.051  18.699  0.0515  0.2658  0.0453
40970W        W84064   9.835  11.388  15.811 -0.0375 -0.0791  0.2457
40971W        W84065   9.890  12.144  18.722  0.3484  0.2115  0.1467
40972W        W84066   6.845  13.929  18.800 -0.0852 -0.0076 -0.1109
40973W        W84067   7.689  10.416  17.406  0.0924  0.2094  0.0016
40974W        W84068   6.901  13.983  18.018  0.1238 -0.0637 -0.0641
40975W        W84069   6.258  12.288  20.188  0.1749 -0.0962  0.0993
40976W        W84070   6.775  13.616  19.748  0.1874 -0.1376 -0.0145
40977W        W84071   9.312  12.744  20.376  0.3672  0.0517 -0.0876
40978W        W84072   9.942  12.297  18.269 -0.0920 -0.0567 -0.1027
40979W        W84073   9.685  12.281  19.233 -0.0879 -0.0256 -0.1875
40980W        W84074  10.761  12.422  17.575 -0.2462  0.2732 -0.1037
40981W        W84075   8.845  14.173  18.042  0.0052 -0.1368 -0.0298
40982W        W84076   8.192  14.160  16.730  0.0248  0.0613  0.2539
40983W        W84077   9.842  14.086  19.038  0.4237  0.2101  0.2208
40984W        W84078   9.880  13.778  17.398 -0.0310 -0.0861 -0.1272
40985W        W84079   8.550  12.445  17.727 -0.0377 -0.0511  0.1144
40986W        W84080   7.971  11.021  20.604  0.0887 -0.2037  0.0461
40987W        W84081   8.884  12.980  20.142  0.0949 -0.0134 -0.1286
40988W        W84082   8.527  14.491  17.749  0.0275  0.1451 -0.1327
40989W        W84083   7.572   9.989  16.805  0.3920 -0.1439 -0.0556
40990W        W84084   8.454  13.823  16.997 -0.0991  0.1080 -0.0622
40991W        W84085   6.944  13.978  20.075 -0.3246  0.0351  0.0539
40992W        W84086   8.641  12.684  19.074  0.3097  0.0655  0.0250
40993W        W84087   7.114  14.086  17.575  0.1749  0.0878 -0.0521
40994W        W84088  10.346  12.697  17.572 -0.3778 -0.5514  0.0818
40995W        W84089   8.775  13.005  17.825 -0.1498  0.2490 -0.1619
40996W        W84090   8.325  13.870  18.753 -0.0674 -0.1403  0.1952
40997W        W84091   7.637  10.749  16.301 -0.1387  0.0648 -0.0238
40998W        W84092   7.559  13.969  17.650 -0.0423 -0.1655  0.2879
40999W        W84093   7.708  14.388  15.946 -0.0714 -0.1509  0.1262
41000W        W84094   9.886  14.752  15.326  0.1297 -0.0098  0.2177
41001W        W84095   7.716  14.105  18.121 -0.3445 -0.1263 -0.1029
41002W        W84096   9.564  12.966  18.107 -0.0232  0.2843  0.1576
41003W        W84097   9.360  12.273  16.947  0.0694  0.0440 -0.2037
41004W        W84098  10.046  12.936  16.810  0.2307  0.1514  0.0806
41005W        W84099  10.591  11.280  17.039  0.3561 -0.2595  0.1233
41006W        W84100   8.764  14.991  19.311  0.0225 -0.1491  0.2116
41007W        W84101   8.639  11.974  17.622  0.1486 -0.1220  0.0824
41008W        W84102   7.819  11.893  16.562 -0.4030  0.0799  0.0052
41009W        W84103   9.321  12.030  18.937 -0.2557 -0.1168  0.0391
41010W        W84104   9.654  10.652  19.291  0.0649  0.1153  0.1915
41011W        W84105   7.862  13.440  21.104 -0.2425  0.1226 -0.2937
41012W        W84106   9.634  14.996  16.355  0.2425  0.3343  0.0285
41013W        W84107   8.357  10.960  16.374  0.1842  0.1316  0.0420
41014W        W84108   7.752  13.022  17.219  0.1508 -0.0543  0.1407
41015W        W84109  10.166  11.529  19.886  0.0808  0.4421  0.1344
41016W        W84110   9.806  14.238  15.839  0.1181  0.0638  0.1442
41017W        W84111  10.684  12.034  16.539 -0.0725 -0.0983  0.2598
41018W        W84112   7.356  14.541  17.264  0.3165 -0.1452  0.0690
41019W        W84113   7.382  13.959  19.203 -0.0580  0.0048  0.1776
41020W        W84114   6.520  14.752  19.494  0.0847 -0.2267 -0.0512
41021W        W84115   6.186  11.319  16.375 -0.0195  0.1748 -0.1660
41022W        W84116  10.693  13.701  15.338  0.1861 -0.1618  0.3038
41023W        W84117   7.587  11.338  19.347 -0.0343 -0.2682  0.0177
41024W        W84118  10.948  11.807  18.209 -0.1740  0.0669 -0.1312
41025W        W84119   8.468  11.287  18.068  0.0521  0.1691 -0.0421
41026W        W84120   9.249  11.914  16.607  0.0439 -0.1006  0.0127
41027W        W84121   9.389  13.406  18.390  0.3994 -0.0536  0.1287
41028W        W84122   8.200  11.723  18.130 -0.0458 -0.2424  0.0467
41029W        W84123   8.408  12.491  17.185 -0.1523  0.3792 -0.1968
41030W        W84124  10.144  12.780  18.606  0.0082  0.2979  0.1048
41031W        W84125   8.762  12.663  15.871 -0.0468  0.0821 -0.0366
41032W        W84126   9.974  14.927  19.843 -0.3367 -0.0448  0.0038
41033W        W84127   7.396  10.500  17.041  0.0780 -0.1410  0.2159
41034W        W84128   9.149  11.754  15.961  0.1386  0.2660  0.0621
41035W        W84129   9.060  12.481  17.779  0.0856 -0.0722  0.0070
41036W        W84130   7.870  13.110  17.816  0.0870 -0.1130 -0.1606
41037W        W84131  10.106  13.191  17.731  0.0338  0.0639 -0.3147
41038W        W84132   6.727   9.980  17.859  0.1818  0.1017  0.2329
41039W        W84133   9.469  13.906  16.530  0.1304 -0.1594 -0.0593
41040W        W84134  10.874  12.813  17.199 -0.0134  0.1504  0.3334
41041W        W84135   8.340  14.627  16.337 -0.3176  0.4537 -0.1611
41042W        W84136   9.251  13.977  17.015 -0.4893  0.0923  0.1410
41043W        W84137   9.841  14.198  16.385  0.0376  0.1621 -0.2188
41044W        W84138   7.752  11.890  17.910  0.3580 -0.0362  0.1619
41045W        W84139   9.137  15.192  18.369  0.2957 -0.4110 -0.3473
41046W        W84140   9.723  14.109  16.935 -0.3282  0.0241 -0.0780
41047W        W84141   8.527   9.579  18.727 -0.3396 -0.0661  0.0402
41048W        W84142   7.569  12.352  17.919 -0.0809 -0.1812 -0.0836
41049W        W84143   6.100  14.321  17.584  0.4699  0.1421  0.0336
41050W        W84144  11.330  11.629  17.412 -0.1877  0.2929 -0.0625
41051W        W84145  11.470  10.698  19.273 -0.4223 -0.1408  0.1241
41052W        W84146   7.925  13.845  16.275 -0.0886  0.1076 -0.0829
41053W        W84147  10.073  10.251  18.429 -0.0518 -0.2120  0.0193
41054W        W84148   8.369  13.349  19.463  0.1471  0.1962 -0.1798
41055W        W84149   6.759  14.904  19.994 -0.0563  0.1508 -0.0357
41056W        W84150   7.308  12.590  16.243  0.0199 -0.1564 -0.3098
41057W        W84151   9.630  14.025  17.827  0.0347 -0.3555  0.0916
41058W        W84152   8.634  13.991  17.452 -0.1346  0.1930  0.0252
41059W        W84153   7.339  13.728  18.176 -0.0425 -0.3136  0.0401
41060W        W84154   9.193  14.714  19.099  0.1816 -0.1623 -0.1257
41061W        W84155   9.244  12.177  18.283  0.1015  0.3145  0.0619
41062W        W84156  11.204  14.223  17.324  0.0256  0.0436 -0.3931
41063W        W84157   8.724  11.482  18.561  0.1426 -0.0142  0.0432
41064W        W84158  10.254  11.555  16.725 -0.1177 -0.0204 -0.4738
41065W        W84159   9.601  11.329  16.585  0.2327  0.2876 -0.1264
41066W        W84160   7.722  13.726  18.443 -0.3937 -0.0823 -0.3326
41067W        W84161   7.068  12.766  16.638  0.2173  0.2478  0.1776
41068W        W84162   8.438  13.094  16.479  0.1139  0.0718 -0.0894
41069W        W84163   8.557  12.788  18.231 -0.0119  0.4301  0.1229
41070W        W84164   8.737  10.791  19.352 -0.0422 -0.1378  0.1804
41071W        W84165   7.853  11.575  18.930  0.0660  0.1343  0.1884
41072W        W84166   6.937  13.727  16.810 -0.0823 -0.3029  0.0874
41073W        W84167   6.611  10.629  16.773  0.0651 -0.0306 -0.1771
41074W        W84168   9.030  14.425  15.803 -0.2348  0.1666  0.1898
41075W        W84169   8.218  11.088  17.645  0.2624 -0.0434  0.0704
41076W        W84170   7.554  10.548  18.806  0.0312  0.2911  0.1476
41077W        W84171   9.123  14.116  17.558  0.2507 -0.3077 -0.3074
41078W        W84172   9.175  13.524  16.731 -0.1047 -0.2431  0.0202
41079W        W84173   7.616   9.060  18.262 -0.2380  0.2465 -0.1372
41080W        W84174  10.547  13.244  19.100 -0.0158 -0.1545 -0.2215
41081W        W84175   8.309  13.619  17.508  0.0154 -0.0553 -0.1274
41082W        W84176   7.814  11.596  20.083 -0.0939  0.0633  0.0571
41083W        W84177   7.445  10.783  19.867 -0.0039 -0.2446 -0.0136
41084W        W84178   7.158  10.682  16.088 -0.0703  0.1408 -0.2148
41085W        W84179  10.970  12.063  17.273  0.2106  0.2826  0.2460
41086W        W84180   8.350  13.362  18.329 -0.0971  0.0076 -0.0821
41087W        W84181   8.866  13.903  16.639 -0.2733 -0.0975  0.0931
41088W        W84182   8.223  14.395  18.097 -0.2143 -0.1262 -0.2194
41089W        W84183   8.012  14.530  19.535  0.2153  0.1251  0.4389
41090W        W84184   7.075  11.044  19.491 -0.1532  0.1724 -0.1744
41091W        W84185   9.447  12.246  15.825  0.2709 -0.2824 -0.2950
41092W        W84186   8.522  12.922  19.725 -0.0189 -0.0739 -0.0504
41093W        W84187  10.971  13.269  15.752 -0.1867  0.0770 -0.1023
41094W        W84188  10.884  11.347  18.864  0.1852  0.2023 -0.0509
41095W        W84189   8.863  12.802  17.277  0.1744  0.0365 -0.0456
41096W        W84190   6.955   9.224  19.124 -0.1620 -0.2628  0.0845
41097W        W84191   9.032  12.399  19.127  0.2219 -0.3120 -0.0975
41098W        W84192  11.560  12.434  17.854  0.2324  0.1403 -0.0121
41099W        W84193   8.844  10.283  19.488 -0.0399 -0.1864 -0.0618
41100W        W84194   8.688  11.341  16.319 -0.0582  0.0852  0.1405
41101W        W84195   9.305  13.272  17.228  0.1904  0.0689  0.1784
41102W        W84196   7.453  13.439  18.952 -0.2460 -0.0142 -0.0329
41103W        W84197   7.113  11.994  17.873  0.1501  0.2097 -0.0855
41104W        W84198   7.887  11.367  17.856 -0.3773 -0.1155 -0.0299
41105W        W84199   9.633  14.567  19.061 -0.1838 -0.2193 -0.0322
41106W        W84200   9.878  13.319  18.319 -0.0125 -0.2209  0.3204
41107W        W84201   8.639  13.392  16.819  0.0786  0.2825 -0.0674
41108W        W84202  10.064  13.373  15.936  0.0034 -0.0839  0.1807
41109W        W84203   9.197  12.979  18.697 -0.0535  0.0923  0.0241
41110W        W84204   8.520  15.341  19.027  0.0717  0.0599  0.0817
41111W        W84205   7.731  15.597  18.653  0.3311 -0.2279  0.2747
41112W        W84206   9.425  12.414  17.473  0.0241 -0.1134 -0.1195
41113W        W84207   8.034  10.651  17.986  0.1953 -0.1731 -0.0579
41114W        W84208   7.343  13.538  16.658  0.1171  0.1217 -0.0038
41115W        W84209   9.566  11.777  18.549  0.3540  0.0596 -0.0250
41116W        W84210  11.280  11.603  19.188 -0.0148 -0.0168 -0.1064
41117W        W84211   8.123  12.263  17.582  0.2425  0.0286  0.0922
41118W        W84212  10.362  10.076  16.517 -0.0240 -0.1749 -0.2325
41119W        W84213   7.487  14.426  19.415 -0.0417 -0.3732 -0.2603
41120W        W84214   8.981  13.040  16.741 -0.1016 -0.0085  0.3065
41121W        W84215   8.839  13.980  22.064  0.1504 -0.0095 -0.0664
41122W        W84216   8.554  12.482  21.089  0.0622 -0.1901  0.3649
41123W        W84217   9.866  11.230  19.073 -0.3160  0.3180  0.0594
41124W        W84218  10.398  12.353  18.643 -0.2089 -0.0805  0.1842
41125W        W84219   6.226  12.250  22.211  0.0362  0.3420  0.1237
41126W        W84220  10.312  14.284  20.506 -0.1095 -0.0552 -0.0691
41127W        W84221   7.956  11.253  22.289 -0.1880  0.0433 -0.0992
41128W        W84222   9.356  15.068  22.940  0.2380  0.1417  0.0231
41129W        W84223  11.185  13.119  21.035  0.2437 -0.5031  0.0571
41130W        W84224   8.793  13.937  18.957 -0.0309 -0.1472  0.1275
41131W        W84225   9.513  10.736  21.480  0.1152 -0.1522 -0.0438
41132W        W84226   9.525  14.705  22.637 -0.0287  0.0337  0.0880
41133W        W84227   9.150  10.212  19.880  0.1153 -0.0489  0.0840
41134W        W84228   6.235  10.411  21.453 -0.2429 -0.1283  0.0727
41135W        W84229  10.330  12.766  23.452 -0.0668  0.2639 -0.1215
41136W        W84230   8.090  12.097  20.939 -0.1876  0.1116  0.1876
41137W        W84231   7.994  11.849  22.301  0.0822  0.2033 -0.4136
41138W        W84232  10.236  11.487  21.030 -0.2893 -0.0726 -0.0165
41139W        W84233  10.159  13.213  23.265  0.0780 -0.2011 -0.1818
41140W        W84234   8.467  11.422  21.957  0.0805 -0.0003  0.1522
41141W        W84235   8.898  11.493  22.309  0.0768 -0.2353  0.1212
41142W        W84236   8.483  11.794  20.274 -0.1063  0.1845 -0.2863
41143W        W84237   7.768  11.681  18.393  0.1459  0.3810  0.0800
41144W        W84238   8.294  11.080  21.092 -0.0407  0.3134 -0.3278
41145W        W84239   9.060  13.715  23.052  0.2530 -0.2355 -0.2510
41146W        W84240   9.887  12.346  20.985  0.0112  0.1198 -0.0607
41147W        W84241  11.377  12.402  20.090  0.2140  0.2578 -0.2153
41148W        W84242   7.565  13.490  22.373 -0.2414  0.1294 -0.0454
41149W        W84243  11.124  14.174  24.015  0.0026  0.0857  0.1369
41150W        W84244  10.463  12.477  22.995  0.3431  0.1321  0.0311
41151W        W84245   7.796  13.007  21.961  0.0094 -0.5469  0.1169
41152W        W84246   8.132  14.529  23.259 -0.1366  0.0860  0.1963
41153W        W84247   8.062  12.606  20.874  0.4216 -0.2428 -0.0550
41154W        W84248  10.331  13.583  19.777  0.0659  0.0732 -0.0630
41155W        W84249  11.016  13.837  22.872  0.0337  0.2494 -0.1402
41156W        W84250  10.320  14.068  24.709 -0.0335  0.2203  0.1321
41157W        W84251   8.674  13.339  20.462 -0.0228  0.1513 -0.0726
41158W        W84252   9.538  14.199  23.768  0.1385  0.0230  0.1299
41159W        W84253   7.970  15.731  23.375 -0.1581 -0.0471  0.0642
41160W        W84254   9.571  13.445  23.149  0.1407 -0.0102  0.1578
41161W        W84255   9.570  12.463  22.959 -0.0923 -0.1191  0.1945
41162W        W84256   7.629  12.301  20.326  0.1321 -0.0469 -0.0383
41163W        W84257   9.294  13.293  21.760 -0.0749 -0.0715 -0.0572
41164W        W84258   7.949  12.603  24.646  0.1402 -0.0760  0.0763
41165W        W84259   8.084  13.391  22.325  0.0696 -0.4363  0.1847
41166W        W84260  10.328  12.521  21.771 -0.0287 -0.2309 -0.2106
41167W        W84261   8.156  13.395  20.657  0.0832 -0.0523  0.0916
41168W        W84262  10.046  11.699  18.621 -0.0153 -0.0732  0.0707
41169W        W84263   8.409  10.249  21.193  0.0697  0.2255  0.3358
41170W        W84264  10.699  11.445  19.922 -0.0987 -0.1887 -0.0475
41171W        W84265   8.017  11.548  20.788  0.3574 -0.0103 -0.1951
41172W        W84266   8.432  13.736  22.396  0.1733  0.3549  0.3546
41173W        W84267   7.517  11.128  22.500 -0.0767 -0.2473 -0.0013
41174W        W84268  10.488  14.303  22.826  0.0541 -0.2120  0.0347
41175W        W84269   8.936  12.489  21.440 -0.1483  0.0738 -0.2162
41176W        W84270  10.165  13.353  22.770 -0.1922  0.2239  0.0220
41177W        W84271   9.509  14.513  23.094  0.0015 -0.3122  0.1312
41178W        W84272   6.431  12.264  21.412  0.0600  0.0224  0.3560
41179W        W84273  10.472  14.820  18.798  0.1842 -0.3665  0.4346
41180W        W84274  10.805  13.598  20.960 -0.0371 -0.0728  0.2450
41181W        W84275   9.008  14.335  18.661  0.0425 -0.0993 -0.1876
41182W        W84276   8.489  11.578  21.253  0.0312  0.2523  0.3539
41183W        W84277   7.277  11.764  23.048 -0.0715  0.0666  0.1143
41184W        W84278   8.118  12.299  23.042  0.0376 -0.3025  0.1380
41185W        W84279   8.649  10.143  17.474  0.1332 -0.0016  0.1362
41186W        W84280  10.323  13.654  23.549 -0.1870 -0.0120  0.3935
41187W        W84281   7.357  12.407  22.326 -0.1232  0.3595  0.0359
41188W        W84282   8.826  11.553  21.651 -0.1289  0.1282  0.1076
41189W        W84283  10.111  12.826  22.992 -0.2047 -0.2251  0.1403
41190W        W84284  10.252  13.150  20.966  0.1168 -0.1921  0.3040
41191W        W84285   9.551  13.786  19.337 -0.0851  0.1597 -0.0592
41192W        W84286   9.405  12.108  20.283  0.0088  0.0312  0.1236
41193W        W84287   9.928  13.077  22.450 -0.2863  0.1462  0.3803
41194W        W84288   8.492  10.930  20.122 -0.0393  0.1445  0.3108
41195W        W84289   8.199  11.418  20.329 -0.0483  0.1266  0.0859
41196W        W84290   9.871  13.539  24.538  0.0371  0.2410  0.2195
41197W        W84291   9.001  13.417  18.790 -0.2478  0.0013  0.2773
41198W        W84292   7.716  14.322  23.764  0.0292  0.0187  0.2790
41199W        W84293   9.255  11.688  23.278  0.0013  0.0036  0.1909
41200W        W84294   9.136  14.393  24.522 -0.2504 -0.2469 -0.1870
41201W        W84295   7.283  15.594  20.029 -0.1067 -0.0069  0.0220
41202W        W84296   9.732  12.843  22.017 -0.1029  0.1048 -0.3017
41203W        W84297   7.449  12.887  18.145  0.2931  0.0849 -0.1820
41204W        W84298   7.868  12.214  24.060  0.2041 -0.0397  0.1137
41205W        W84299   8.889  12.406  24.464  0.0837  0.3454 -0.0557
41206W        W84300  10.100  12.545  22.197  0.0402 -0.0631 -0.1831
41207W        W84301   9.109  11.905  23.733  0.1218 -0.0944  0.2023
41208W        W84302   9.256  11.897  21.749 -0.1245 -0.1082 -0.1397
41209W        W84303   6.580  11.943  20.381  0.1611  0.1796  0.4104
41210W        W84304   9.403  13.834  20.344 -0.1496  0.1191  0.2264
41211W        W84305  10.094  12.513  19.023  0.5181  0.0764 -0.0854
41212W        W84306   9.584  14.747  19.503  0.0427 -0.2023 -0.0918
41213W        W84307   7.665  13.381  22.858  0.0910 -0.1691  0.0705
41214W        W84308   7.458  11.660  20.901  0.1439  0.1729  0.0733
41215W        W84309   9.106  11.520  24.040  0.0849  0.1119 -0.0850
41216W        W84310   6.914  12.212  21.299 -0.0575 -0.0468 -0.0649
41217W        W84311  11.291  13.101  22.367 -0.0239 -0.2557  0.2214
41218W        W84312   9.720   9.226  19.296 -0.0637  0.1944 -0.0686
41219W        W84313   9.970  11.090  20.897 -0.0963 -0.0307  0.1882
41220W        W84314   9.059  12.794  22.799 -0.0604 -0.0361  0.1120
41221W        W84315   6.157  11.472  19.485  0.1158 -0.1185  0.2109
41222W        W84316  10.030  12.334  22.691  0.0193 -0.0703 -0.0653
41223W        W84317   9.195  15.124  19.536  0.2809 -0.1774  0.0145
41224W        W84318   9.575  14.975  23.547 -0.0741 -0.0268  0.1282
41225W        W84319   9.037  13.577  20.175 -0.0989 -0.2075  0.1564
41226W        W84320   9.329  12.294  24.064 -0.2039  0.1999 -0.2256
41227W        W84321   9.892   9.923  20.461  0.0786  0.1358  0.2070
41228W        W84322   6.697  14.602  22.559  0.0300  0.0089 -0.3973
41229W        W84323   8.548  13.116  22.643  0.1905  0.1435 -0.1107
41230W        W84324   8.534  11.110  21.506 -0.4723  0.1497 -0.1156
41231W        W84325   9.934  13.906  20.357  0.0707  0.0264 -0.1335
41232W        W84326  10.138  12.209  21.453 -0.2082  0.1871  0.0868
41233W        W84327   8.869  13.952  24.483  0.0323  0.3020 -0.0012
41234W        W84328  10.111  11.068  23.039  0.0542 -0.4447 -0.1296
41235W        W84329  10.253  13.424  22.277 -0.2560  0.0889 -0.0047
41236W        W84330   9.661  13.084  21.506 -0.0373  0.0791  0.0180
41237W        W84331   8.512   9.609  20.202 -0.1957 -0.1208 -0.0593
41238W        W84332   9.163  14.048  19.963  0.0043 -0.1992  0.0220
41239W        W84333   7.892  12.173  21.680 -0.2255 -0.2719 -0.0394
41240W        W84334   7.358  12.710  21.322  0.1605  0.0646  0.0488
41241W        W84335   8.548  12.823  21.445 -0.0260 -0.1194  0.1421
41242W        W84336  10.485  10.799  22.541 -0.0967  0.1252 -0.0869
41243W        W84337   8.710  14.740  25.301 -0.1242 -0.3799  0.0196
41244W        W84338  10.610  12.957  22.941 -0.1339 -0.3581  0.5141
41245W        W84339   6.613  11.418  19.576 -0.2143  0.2073  0.3302
41246W        W84340   8.586  14.378  23.933  0.1127 -0.0818  0.5679
41247W        W84341  12.204  10.903  19.779 -0.1799 -0.0007 -0.0803
41248W        W84342   9.626  10.747  19.898  0.3533 -0.3770 -0.4093
41249W        W84343  10.035  13.516  23.978 -0.1042  0.4978 -0.1108
41250W        W84344   9.240  12.859  21.132 -0.1629 -0.0969 -0.2404
41251W        W84345  11.135  11.771  19.790 -0.2051  0.1199 -0.1064
41252W        W84346  10.073  12.408  19.569  0.1600 -0.0439 -0.1912
41253W        W84347   7.262  14.076  24.572 -0.3645  0.2233  0.0776
41254W        W84348   8.198  13.060  20.202 -0.3136 -0.1992 -0.0994
41255W        W84349   8.569  13.337  23.927  0.0117 -0.2280  0.1982
41256W        W84350   8.341  12.121  19.493 -0.0756 -0.2275  0.0571
41257W        W84351  10.926  13.203  20.067 -0.0955 -0.1212  0.0176
41258W        W84352   6.780  13.867  23.396  0.0647 -0.0559 -0.1441
41259W        W84353   8.649  13.861  23.919  0.1739 -0.1758  0.4880
41260W        W84354   9.485  13.239  22.253 -0.2294  0.1563 -0.0745
41261W        W84355   8.872  11.107  22.076  0.2746 -0.0692  0.2955
41262W        W84356   8.698  12.472  19.539 -0.3137  0.5172 -0.0448
41263W        W84357  10.265  12.102  20.025  0.4740 -0.0562 -0.0987
41264W        W84358   7.699  12.859  19.343  0.1587  0.2246  0.0774
41265W        W84359  10.050  11.125  22.256  0.1250 -0.0813  0.1076
41266W        W84360   9.030  12.264  23.339  0.3871 -0.0750 -0.2101
41267W        W84361   9.134  10.595  23.076 -0.1885  0.4831  0.0214
41268W        W84362  10.548  12.208  22.385  0.0859  0.2094  0.1990
41269W        W84363   9.960  12.966  19.830 -0.0904  0.0954  0.1096
41270W        W84364   9.766  13.145  23.631 -0.0595  0.2156 -0.1560
41271W        W84365   7.729  10.355  19.939 -0.0708  0.2254  0.4717
41272W        W84366   9.509  12.288  23.496  0.0736  0.0384  0.1807
41273W        W84367   9.056  13.786  22.603  0.2514 -0.2175  0.0060
41274W        W84368   8.561  14.871  22.491 -0.0514 -0.2843 -0.0958
41275W        W84369   9.627  13.666  23.626 -0.3242  0.1450 -0.0160
41276W        W84370   8.765  12.950  21.018  0.2503 -0.0417  0.1571
41277W        W84371   9.737  11.504  23.841  0.1130  0.2953  0.1623
41278W        W84372  10.186  10.874  20.002  0.0010 -0.0638 -0.3310
41279W        W84373   8.997  15.229  21.198 -0.1065 -0.0769  0.2457
41280W        W84374   8.297  14.188  20.256  0.1258 -0.2803 -0.0715
41281W        W84375   8.777  11.005  23.490 -0.3364 -0.0353 -0.0816
41282W        W84376   9.087  14.145  22.900 -0.0659  0.2516  0.3205
41283W        W84377   7.062  14.566  19.537  0.0861 -0.2881 -0.3376
41284W        W84378  10.204  12.229  23.656 -0.2720  0.0806 -0.0818
41285W        W84379   8.246  13.060  21.118 -0.0138 -0.1416  0.0493
41286W        W84380  10.010  10.487  21.148 -0.0261 -0.4037 -0.0463
41287W        W84381  10.171  14.134  23.752  0.1266 -0.1454 -0.1948
41288W        W84382   8.941  11.222  21.169  0.3435  0.1550 -0.0364
41289W        W84383   7.639  12.125  20.810 -0.0210  0.2025 -0.2617
41290W        W84384  10.626  12.417  20.503 -0.0504 -0.2322  0.2722
41291W        W84385   9.559  14.281  18.664  0.0421  0.0948  0.2124
41292W        W84386   7.598  10.559  22.279 -0.1060  0.0068 -0.0445
41293W        W84387   9.024  13.213  23.164 -0.2571 -0.3924  0.0816
41294W        W84388   6.368  13.618  23.391  0.2386 -0.0090 -0.1942
41295W        W84389  10.056  12.676  24.595  0.0313 -0.3194 -0.0669
41296W        W84390  10.912  10.414  19.221  0.2206 -0.0225 -0.4027
41297W        W84391   9.818  12.828  20.430  0.1061 -0.0017 -0.0263
41298W        W84392   8.363  13.528  24.336  0.1491  0.0132 -0.1878
41299W        W84393   8.451  10.826  20.587  0.1403 -0.0708  0.0346
41300W        W84394  11.244  12.150  21.321  0.1936  0.0084  0.0480
41301W        W84395   9.433  12.587  21.509 -0.0509 -0.3437 -0.0892
41302W        W84396   7.825  13.029  21.408  0.1149 -0.0226 -0.2788
41303W        W84397   8.757  15.105  22.879  0.1187  0.0157  0.1881
41304W        W84398   8.543  12.626  20.209  0.3366 -0.2735  0.1639
41305W        W84399   8.212  13.020  19.080 -0.0740  0.2906 -0.2210
41306W        W84400   8.645  13.535  23.479  0.0754  0.1840  0.1797
41307W        W84401   9.759  12.354  23.942 -0.0717 -0.1256  0.0259
41308W        W84402   8.139  12.727  21.715 -0.2339  0.0558 -0.2163
41309W        W84403   9.143  12.416  22.001  0.0215  0.1145 -0.0244
41310W        W84404   8.719  12.062  21.311  0.0830 -0.1089 -0.1889
41311W        W84405  10.000  13.966  21.903  0.3342 -0.0684 -0.0052
41312W        W84406   8.721  12.939  23.536 -0.2164  0.2263 -0.1647
41313W        W84407   7.200  14.358  23.570 -0.0846 -0.1170 -0.1351
41314W        W84408   9.381  10.276  23.352  0.0627  0.0541  0.2590
41315W        W84409  10.092  15.477  18.727  0.0817 -0.0231  0.2039
41316W        W84410  10.077  14.693  23.950 -0.2292  0.0004  0.0709
41317W        W84411   8.286  11.658  19.812 -0.2028  0.0354  0.0288
41318W        W84412   7.729  12.524  21.928 -0.1666 -0.0849  0.2474
41319W        W84413   8.896  12.175  20.326  0.2913  0.1369 -0.2620
41320W        W84414   9.254  12.015  22.910  0.1200  0.2045  0.0195
41321W        W84415   9.228  14.271  22.377 -0.2233 -0.2792 -0.0077
41322W        W84416   7.401  11.898  19.653  0.3027 -0.0828  0.0489
41323W        W84417   8.102  14.037  24.015  0.3337 -0.0691 -0.1133
41324W        W84418  11.667  11.064  21.125 -0.3767  0.0974 -0.1115
41325W        W84419   9.394  14.253  19.515 -0.2033  0.5894  0.0375
41326W        W84420   9.111  11.100  19.829 -0.1483  0.1424 -0.1076
41327W        W84421  10.553  11.586  21.902  0.0514  0.0213 -0.0656
41328W        W84422   9.445  14.545  19.990  0.0121 -0.0372  0.3125
41329W        W84423   9.879  11.234  24.379  0.0633 -0.0993  0.1889
41330W        W84424   9.183  12.345  22.543  0.0032 -0.0228  0.2237
41331W        W84425   9.585  12.109  19.837 -0.0385 -0.0406  0.0496
41332W        W84426   7.194  10.764  22.122 -0.0053 -0.0521  0.0731
41333W        W84427   9.281  13.056  23.627  0.2944 -0.2507 -0.2443
41334W        W84428   7.941  11.520  23.712  0.1189 -0.1387 -0.2649
41335W        W84429   9.976  11.196  19.561  0.3546  0.1243 -0.0480
41336W        W84430   8.396  10.420  19.256  0.0592 -0.1342  0.0637
41337W        W84431   7.635  11.306  20.538  0.1827  0.0290 -0.0113
41338W        W84432   8.830  13.492  22.224  0.0431 -0.0954  0.0390
41339W        W84433   7.606  12.862  20.321 -0.1299 -0.0146  0.0329
41340W        W84434  11.261  11.308  21.064  0.3231  0.0380 -0.2041
41341W        W84435   8.591  13.432  23.006 -0.1072  0.0477 -0.0024
41342W        W84436  10.240  11.648  21.537 -0.1178  0.1030 -0.0538
41343W        W84437   8.569  12.083  19.910 -0.2526 -0.1796  0.1371
41344W        W84438   9.454  14.018  23.280 -0.1273  0.2156 -0.1509
41345W        W84439   9.229  11.890  22.279  0.0636  0.0864 -0.2194
41346W        W84440   9.904  12.638  21.424  0.0661 -0.4903  0.2719
41347W        W84441   8.885  12.626  20.635  0.1911  0.0783 -0.0764
41348W        W84442  10.304  11.318  22.617  0.3276 -0.4095  0.1118
41349W        W84443   9.438  11.550  22.577  0.0995 -0.1150  0.0179
41350W        W84444   8.279  12.316  21.421 -0.1645 -0.3662 -0.1492
41351W        W84445   7.057  12.206  23.939  0.2110 -0.1980 -0.0791
41352W        W84446   9.265  14.720  21.642  0.0281  0.1194  0.1739
41353W        W84447  10.988  12.995  18.705 -0.1354  0.1362  0.0101
41354W        W84448   9.764  11.626  22.174 -0.1831  0.2341 -0.0079
41355W        W84449  11.290  11.015  21.448  0.1971  0.0842  0.1347
41356W        W84450  10.419  11.644  20.349 -0.0238  0.1795  0.0646
41357W        W84451   7.262  11.214  21.247  0.0620  0.2291 -0.0050
41358W        W84452  10.315  13.108  23.784  0.0895  0.1506  0.0465
41359W        W84453   8.354   9.947  19.057 -0.2944  0.1125 -0.0406
41360W        W84454   9.638  12.022  22.529  0.0981 -0.2391 -0.1090
41361W        W84455   8.789  13.481  21.619  0.2010 -0.1904 -0.0869
41362W        W84456   8.910  11.708  21.020 -0.2457  0.1298 -0.1444
41363W        W84457  11.052  11.840  22.670 -0.1340  0.0655 -0.0830
41364W        W84458   8.086  10.236  22.229  0.0521 -0.1190  0.0324
41365W        W84459   8.042  14.914  25.212 -0.1498  0.1591  0.0491
41366W        W84460   7.847  10.505  20.472 -0.0794  0.1823 -0.0308
41367W        W84461   7.933  12.062  19.978 -0.0029 -0.0529 -0.1643
41368W        W84462   9.630  13.696  21.624  0.1344  0.2552 -0.1939
41369W        W84463  10.008  11.800  23.481  0.0259  0.0205  0.0226
41370W        W84464   9.065  10.030  18.776 -0.1153  0.0833 -0.3049
41371W        W84465  10.842  12.145  23.009  0.3355 -0.1060 -0.0346
41372W        W84466   7.122  11.576  21.789 -0.0162 -0.0370  0.3128
41373W        W84467   9.118  10.869  22.562  0.1854 -0.0399  0.6122
41374W        W84468   8.488  14.327  22.036  0.0240 -0.2048 -0.1124
41375W        W84469   7.613  12.883  23.064  0.1292 -0.0090  0.2378
41376W        W84470   8.426  12.322  20.600 -0.0427 -0.0294  0.0769
41377W        W84471   9.180  12.801  22.336 -0.1527  0.4821  0.3315
41378W        W84472  10.649  11.667  22.404 -0.1248  0.1108  0.2993
41379W        W84473   7.081  12.053  20.383 -0.2143 -0.0836 -0.1407
41380W        W84474  10.731  13.472  23.792  0.3299  0.0547  0.1123
41381W        W84475  11.379  13.344  23.796 -0.1379 -0.1009 -0.1630
41382W        W84476   7.043  10.939  20.384 -0.2322  0.0748  0.0097
41383W        W84477   9.084  15.014  22.493 -0.0646  0.1458 -0.1374
41384W        W84478  11.230  12.942  19.684 -0.1521  0.2375  0.2002
41385W        W84479   8.759  12.089  21.789  0.0958  0.0448 -0.2117
41386W        W84480   7.967  13.215  23.897 -0.1907  0.2130 -0.1993
41387W        W84481   9.337  13.663  24.570 -0.1930  0.0075 -0.1201
41388W        W84482  10.269  12.782  20.691  0.1726 -0.0302  0.2342
41389W        W84483   8.498  11.815  20.768  0.0347 -0.0439 -0.0319
41390W        W84484   8.036  12.617  20.369 -0.0845  0.3254 -0.2295
41391W        W84485   7.461  14.634  24.053  0.0499  0.3022 -0.1010
41392W        W84486   7.343  14.260  22.716 -0.2953 -0.0105  0.1381
41393W        W84487   7.493  13.870  20.272  0.1503  0.1237 -0.1193
41394W        W84488   9.073  12.480  19.963  0.0451  0.0046 -0.2230
41395W        W84489   8.877  12.176  20.831  0.3103  0.0016 -0.2176
41396W        W84490   8.912  14.589  22.184 -0.1562 -0.0208 -0.2607
41397W        W84491   7.904  10.832  20.049  0.2060  0.0728  0.0727
41398W        W84492   6.924  13.611  23.031 -0.1466 -0.0378  0.1959
41399W        W84493   7.383  13.080  21.060  0.0525 -0.0095 -0.0018
41400W        W84494   8.915  13.329  19.688  0.1424 -0.2661 -0.1461
41401W        W84495   9.039  13.255  22.657 -0.0217  0.0901 -0.0769
41402W        W84496   9.723  12.232  24.411 -0.0063 -0.0883 -0.0455
41403W        W84497   9.689  11.509  20.661 -0.0553 -0.0852  0.1426
41404W        W84498  10.214  13.785  20.776  0.4190  0.0795  0.2355
41405W        W84499  11.242  12.211  18.410 -0.1522 -0.0024 -0.1907
41406W        W84500   9.568  12.789  24.110  0.3277  0.0003  0.2901
41407W        W84501   7.520  12.670  20.846  0.4154 -0.5079  0.2523
41408W        W84502   9.554  11.572  19.463  0.4954 -0.2887  0.1176
41409W        W84503  10.029  12.764  23.884 -0.3045  0.0161  0.1101
41410W        W84504  11.500  12.547  23.176  0.1071  0.1815 -0.0082
41411W        W84505   8.268  14.130  23.559 -0.1430  0.2113  0.1381
41412W        W84506  10.024  13.937  19.523  0.3003  0.0324  0.2398
41413W        W84507   7.490  11.769  20.423 -0.1848 -0.1020  0.0449
41414W        W84508   8.655  11.321  20.742  0.0078  0.0081  0.0799
41415W        W84509  11.107   9.036  22.457 -0.1651  0.1329  0.0484
41416W        W84510   7.884  13.983  19.440 -0.0709 -0.2058  0.1154
41417W        W84511   8.891  10.645  21.778 -0.0256  0.0941  0.2693
41418W        W84512   8.953  12.945  21.776  0.1699 -0.2012 -0.1884
41419W        W84513   9.512  13.013  22.800 -0.1447  0.0088 -0.1967
41420W        W84514   8.606  14.005  23.065 -0.3187  0.2589 -0.2413
41421W        W84515   6.815  10.962  21.131 -0.3005 -0.0163  0.0513
41422W        W84516  11.492  11.648  20.127 -0.1480 -0.0691  0.3851
41423W        W84517   9.659  12.629  22.499  0.3724  0.3197  0.4452
41424W        W84518  10.656  11.324  23.360 -0.0732 -0.3152  0.4332
41425W        W84519   7.543  11.616  21.479 -0.0630  0.2076  0.6198
41426W        W84520  10.795  11.455  20.810  0.1277  0.1277  0.1300
41427W        W84521  10.300  12.971  22.091  0.1159 -0.0447 -0.1748
41428W        W84522   8.021  11.747  21.316  0.1859  0.2374 -0.0045
41429W        W84523   8.757  12.266  18.189 -0.1219 -0.0374 -0.0020
41430W        W84524  10.903  14.325  23.225  0.4859  0.0960  0.1087
41431W        W84525   8.844  11.553  19.995 -0.3160 -0.0510  0.3050
41432W        W84526  10.414  14.121  23.277 -0.0484  0.1442  0.0423
41433W        W84527   6.585  11.504  21.948 -0.1143 -0.0601 -0.3134
41434W        W84528  10.498  11.958  19.584  0.2378 -0.2013  0.1170
41435W        W84529   8.215  12.710  22.252 -0.1145  0.0073  0.2769
41436W        W84530   8.442  11.781  23.666 -0.2106 -0.0797  0.0814
41437W        W84531  11.050  13.121  22.969 -0.1083  0.2631 -0.0664
41438W        W84532   7.597  10.884  21.429 -0.2725 -0.0947  0.0210
41439W        W84533  10.205  13.297  18.681 -0.0696  0.1132 -0.2726
41440W        W84534  10.680  12.416  21.404 -0.2209 -0.4363 -0.0808
41441W        W84535   7.580  14.748  20.327  0.0125  0.0139 -0.0900
41442W        W84536  11.561  13.114  20.632  0.1852 -0.0674 -0.2523
41443W        W84537  10.176  14.315  20.984  0.0970 -0.1552 -0.1227
41444W        W84538   8.755  12.333  22.828  0.3431  0.0823  0.3711
41445W        W84539   9.568  13.227  20.867 -0.0402 -0.1115  0.2773
41446W        W84540   9.749  12.548  19.986 -0.3110  0.0962  0.2766
41447W        W84541   9.403  11.665  21.282 -0.1521  0.3083 -0.0996
41448W        W84542   8.525  11.846  22.147  0.0565  0.1860 -0.1849
41449W        W84543   7.894  13.452  21.700  0.0159 -0.1372  0.1831
41450W        W84544  10.749  11.305  21.386 -0.1911  0.1203  0.4962
41451W        W84545  10.596  13.248  22.555 -0.0426  0.0047 -0.2069
41452W        W84546   8.740  14.441  19.949  0.1223  0.1683  0.2468
41453W        W84547  11.015  10.976  23.341 -0.0855 -0.1521 -0.0607
41454W        W84548  10.714  14.040  23.770 -0.0533 -0.1407  0.0287
41455W        W84549   9.475  14.551  24.180  0.0367  0.2650 -0.1320
41456W        W84550   8.040  11.209  19.749 -0.0506 -0.1427 -0.1943
41457W        W84551  10.941  13.707  24.160 -0.0718  0.0696 -0.0416
41458W        W84552   9.855  12.745  23.408  0.0378  0.2648 -0.2119
41459W        W84553   9.101  13.368  21.187 -0.1108 -0.0206  0.0782
41460W        W84554   9.665  12.132  21.486  0.0615  0.0011  0.0847
41461W        W84555  10.143  11.834  22.439 -0.1694 -0.1404  0.0622
41462W        W84556  11.131  12.642  20.516 -0.0512  0.0529 -0.1764
41463W        W84557   9.798  10.691  22.099  0.1230  0.1579 -0.0025
41464W        W84558  11.431  12.030  19.414 -0.0060  0.1019  0.2087
41465W        W84559  11.284  11.879  20.816 -0.0606  0.0054  0.1768
41466W        W84560   9.106  14.096  24.027  0.0854  0.0233 -0.2621
41467W        W84561   7.641  12.925  18.682 -0.0541  0.0224 -0.0414
41468W        W84562   7.156  12.186  19.363 -0.4778 -0.5760  0.1193
41469W        W84563   9.603  14.136  22.774  0.1216 -0.0372  0.2149
41470W        W84564   9.179  11.122  23.190 -0.1241  0.0102  0.1290
41471W        W84565   8.262  11.883  24.195  0.0814 -0.2886  0.0983
41472W        W84566   6.963  11.762  20.734 -0.0986  0.2914  0.1641
41473W        W84567   8.332  10.345  20.360 -0.1507 -0.1997 -0.1979
41474W        W84568   9.887  13.435  19.559  0.2315  0.0823 -0.0538
41475W        W84569   6.735  11.309  21.513  0.0330 -0.0473  0.1365
41476W        W84570   7.534  11.868  22.552 -0.3231 -0.1378  0.1027
41477W        W84571  10.423  12.206  21.000  0.0547 -0.1056 -0.0341
41478W        W84572   8.948  11.715  20.547  0.0851 -0.1144 -0.1191
41479W        W84573   9.195  10.192  20.374  0.0514 -0.0997  0.2954
41480W        W84574  10.511  13.623  24.589  0.2327 -0.1859 -0.2571
41481W        W84575   6.805  12.817  19.112 -0.0015  0.1516 -0.2605
41482W        W84576   8.700  11.849  22.776  0.1674  0.0923 -0.1947
41483W        W84577   8.545  12.040  24.640  0.2838  0.1002 -0.5041
41484W        W84578   6.528  10.841  21.503 -0.2792  0.1535 -0.0569
41485W        W84579   9.328  13.725  22.180  0.2222 -0.0366  0.0207
41486W        W84580   9.364  13.792  21.162 -0.1215  0.2419 -0.2617
41487W        W84581   9.940  14.400  19.630  0.0951 -0.0028  0.0729
41488W        W84582   9.333  14.199  21.885 -0.2915  0.0208  0.1956
41489W        W84583   9.590  14.714  24.735  0.3479  0.0409  0.1337
41490W        W84584   6.749  11.435  22.463 -0.0063  0.2490  0.0307
41491W        W84585   9.360  11.929  20.758  0.0926 -0.0217 -0.0274
41492W        W84586  10.527  12.749  25.065 -0.1442  0.0574 -0.1776
41493W        W84587  10.130  13.606  19.126  0.0203 -0.1699 -0.0351
41494W        W84588  11.199  12.332  21.775  0.1672  0.1498 -0.1755
41495W        W84589   9.419  12.993  19.881 -0.2334  0.0179 -0.0946
41496W        W84590   5.821  11.300  21.907 -0.4770  0.1241  0.2478
41497W        W84591   8.715  12.174  23.769 -0.1625  0.2868  0.2597
41498W        W84592  10.811  12.840  20.873 -0.0225  0.0173  0.0371
41499W        W84593   8.676  10.360  20.763  0.2651  0.1184  0.4683
41500W        W84594   9.827  12.856  20.951  0.2428  0.0757  0.1091
41501W        W84595   9.142  13.792  21.710 -0.0584  0.0364  0.0182
41502W        W84596   8.706  12.691  22.419  0.1611 -0.3596  0.1351
41503W        W84597   9.118  11.128  21.613 -0.0646  0.1539 -0.0058
41504W        W84598   8.348  11.253  23.749 -0.1561  0.0544 -0.1948
41505W        W84599   9.942  13.983  23.331 -0.3057  0.0732 -0.0059
41506W        W84600  10.446  11.633  23.792 -0.1594  0.3764  0.0187
41507W        W84601   8.684  10.593  19.831 -0.1620  0.0486  0.2048
41508W        W84602  10.589  12.509  19.710  0.2884  0.2491 -0.0330
41509W        W84603   9.387  14.695  22.120  0.0540 -0.0294  0.3095
41510W        W84604  10.967  14.645  24.003 -0.0951 -0.4072  0.0600
41511W        W84605   9.882  14.523  23.538 -0.0155 -0.2179  0.0245
41512W        W84606  11.046  13.238  20.574  0.1873  0.1992 -0.0505
41513W        W84607   7.475  10.533  21.771  0.1624  0.2551  0.0238
41514W        W84608   7.377  12.145  21.543  0.3197 -0.1307 -0.3878
41515W        W84609   9.439  12.466  20.838 -0.0893  0.0596  0.0006
41516W        W84610  10.985  12.082  22.212 -0.0020 -0.0427 -0.1146
41517W        W84611   8.665  12.587  21.897  0.1243 -0.1096  0.1362
41518W        W84612   9.833  12.259  20.482 -0.0702 -0.1298  0.0799
41519W        W84613   9.591  13.608  22.732  0.1794  0.1353 -0.0190
41520W        W84614  10.354  12.807  22.546  0.1462 -0.1526  0.1445
41521W        W84615   7.842  11.938  25.962  0.0590 -0.0205  0.1744
41522W        W84616   7.393  13.333  24.752  0.5083 -0.2295 -0.2768
41523W        W84617   8.877  10.128  24.867 -0.2070 -0.1513 -0.1572
41524W        W84618  10.749  12.888  23.821 -0.0602 -0.0398 -0.0305
41525W        W84619   7.585  10.385  24.610  0.1246 -0.0187 -0.1457
41526W        W84620  10.185  14.644  25.133  0.0583  0.0667 -0.0396
41527W        W84621   6.969  11.876  25.207  0.1085 -0.1702 -0.0264
41528W        W84622   9.311  14.773  26.952 -0.1563  0.2944 -0.2194
41529W        W84623  10.622  13.353  24.982 -0.0276 -0.0382 -0.0267
41530W        W84624  10.446  12.822  24.216  0.0936 -0.2370  0.2735
41531W        W84625   8.559  11.763  25.077 -0.1884  0.0747 -0.2442
41532W        W84626   8.447  13.804  25.815 -0.1270 -0.0194 -0.0710
41533W        W84627   9.025  10.975  24.880 -0.0553  0.1484 -0.0650
41534W        W84628   7.181  12.627  25.063  0.0158 -0.1084 -0.1225
41535W        W84629  10.480  11.826  25.827  0.2726  0.0657  0.0195
41536W        W84630   6.058  14.003  24.637  0.1574  0.1963  0.2803
41537W        W84631   8.288  12.836  25.977  0.1016  0.1160  0.3267
41538W        W84632   9.174  12.404  25.542 -0.2059  0.3552 -0.0539
41539W        W84633   9.913  14.354  24.841  0.0608  0.0350 -0.1777
41540W        W84634  10.390  11.081  25.640  0.0794  0.0931  0.1094
41541W        W84635  10.912  10.596  28.117 -0.0714  0.3058 -0.0586
41542W        W84636  10.856  14.694  24.544 -0.0075  0.0769  0.1435
41543W        W84637   9.049  12.571  23.805 -0.3248  0.0512 -0.2432
41544W        W84638   7.480  13.121  24.078 -0.3313  0.2041 -0.0674
41545W        W84639  10.658  11.457  25.475 -0.2559 -0.1627  0.2146
41546W        W84640  11.081  11.752  25.062 -0.0064  0.0357  0.0637
41547W        W84641  10.042  11.987  25.837 -0.0355  0.2494 -0.1498
41548W        W84642   8.838  14.553  26.760  0.3906 -0.1248 -0.0958
41549W        W84643   8.604  14.314  25.662  0.2085 -0.3770  0.1222
41550W        W84644  10.133  11.777  26.253  0.0042 -0.0718  0.2679
41551W        W84645   7.817  14.408  26.022 -0.1273  0.3864 -0.3439
41552W        W84646   7.878  15.208  24.815 -0.0532  0.0322 -0.2293
41553W        W84647   9.470  14.014  25.455  0.2496 -0.4205  0.1700
41554W        W84648  10.674  11.067  23.863  0.2829 -0.0616  0.1574
41555W        W84649  10.031  12.777  25.997  0.1837  0.1290  0.0272
41556W        W84650   8.489  14.599  27.242  0.2204 -0.2141 -0.0029
41557W        W84651   6.552  14.053  23.995 -0.3374 -0.0414 -0.0050
41558W        W84652   8.894  15.239  27.690 -0.0823  0.0853 -0.1832
41559W        W84653   6.668  14.600  28.503 -0.0538  0.1178  0.0947
41560W        W84654   8.774  12.110  25.752 -0.1927  0.0093  0.1664
41561W        W84655   9.202  12.954  26.577 -0.0306 -0.0601 -0.1140
41562W        W84656   7.549  15.104  24.115 -0.0661 -0.1054  0.0811
41563W        W84657   9.679  13.101  24.629 -0.0061  0.1467  0.0183
41564W        W84658   8.117  12.809  26.788  0.0480 -0.0327  0.0502
41565W        W84659   8.852  15.268  25.262 -0.1695  0.1726  0.1742
41566W        W84660  10.726  10.867  27.377  0.2100 -0.0267  0.0545
41567W        W84661   9.642  14.839  25.242  0.2509  0.0717  0.0207
41568W        W84662  10.460  11.946  22.807 -0.5269  0.0659  0.2183
41569W        W84663   9.050  13.589  24.052  0.0473  0.0393 -0.1754
41570W        W84664  10.160  10.149  25.366  0.1246 -0.2490 -0.0038
41571W        W84665   9.240  10.064  25.204 -0.0819  0.2483 -0.0005
41572W        W84666  10.093  15.210  25.269  0.3931 -0.0042 -0.4235
41573W        W84667   8.469  12.523  24.763 -0.0135  0.2810 -0.3015
41574W        W84668   9.681  14.247  26.380  0.0114  0.0631  0.1968
41575W        W84669   9.301  12.693  24.511  0.1044  0.1600 -0.0484
41576W        W84670  11.149  10.591  27.048  0.0919 -0.1613  0.2232
41577W        W84671   8.477  13.426  26.681  0.1854  0.0090 -0.3840
41578W        W84672   7.026  13.605  25.277 -0.2729 -0.1458  0.1153
41579W        W84673  10.041  14.457  23.081  0.0133  0.1201  0.2320
41580W        W84674   9.519  13.671  25.858  0.1682 -0.2067 -0.0783
41581W        W84675  10.675  15.433  23.633 -0.0018  0.2909 -0.2124
41582W        W84676   8.120  14.275  25.606  0.0686 -0.0413  0.3342
41583W        W84677   7.833  14.800  27.327  0.2599  0.0707 -0.0865
41584W        W84678   7.146  13.478  26.502 -0.0558  0.1955  0.2036
41585W        W84679   8.597  12.496  23.378  0.0043 -0.1229 -0.1124
41586W        W84680   9.640  14.766  27.321 -0.3001  0.0792  0.1578
41587W        W84681   7.492  14.500  26.438 -0.1657 -0.1496 -0.0970
41588W        W84682  10.551  10.277  24.619 -0.0471  0.1205  0.1832
41589W        W84683   9.471  12.904  25.066  0.2596  0.1561  0.1236
41590W        W84684  11.724  12.419  25.442  0.1487 -0.0704 -0.1524
41591W        W84685  10.635  13.500  23.019  0.0055  0.0066  0.0187
41592W        W84686  10.175  11.973  25.313 -0.0362  0.0876  0.1448
41593W        W84687  10.759  11.075  25.940 -0.0536  0.1135 -0.3047
41594W        W84688   9.155  12.723  23.276 -0.2262  0.0339  0.3772
41595W        W84689   9.294  12.004  24.568  0.0390 -0.2005 -0.2753
41596W        W84690  11.836  12.005  26.096  0.1665  0.1450 -0.2131
41597W        W84691  10.595  11.729  25.057  0.0453 -0.0124 -0.1758
41598W        W84692   7.591  14.989  25.195  0.1049 -0.0421 -0.0491
41599W        W84693  10.583  11.859  26.426  0.1101  0.3063  0.1100
41600W        W84694   9.546  14.320  27.098 -0.2625 -0.0136  0.1245
41601W        W84695   8.721  15.404  23.542 -0.1033  0.2684  0.0980
41602W        W84696   6.283  14.362  25.902  0.2438  0.0410 -0.0202
41603W        W84697   5.439  14.937  24.137 -0.3312  0.5923 -0.2461
41604W        W84698   7.907  11.092  26.650 -0.1179  0.0545  0.0893
41605W        W84699   8.094  13.144  25.390  0.1426 -0.0733  0.3199
41606W        W84700   9.580  10.170  24.139 -0.1438  0.1669 -0.0466
41607W        W84701   9.272  11.887  26.403  0.1993 -0.0966  0.3217
41608W        W84702  11.233   9.643  25.068  0.1737 -0.3020 -0.0551
41609W        W84703   7.553  13.775  24.956 -0.0675 -0.1570  0.2059
41610W        W84704  11.345  12.895  24.049 -0.2421  0.3022  0.0512
41611W        W84705   9.878  11.716  24.528 -0.2677 -0.3494 -0.1175
41612W        W84706   9.914  14.526  24.392 -0.2174 -0.0019 -0.0808
41613W        W84707   7.276  12.530  27.055  0.0375 -0.0098  0.1997
41614W        W84708   7.721  12.019  24.562 -0.0210 -0.0704 -0.0576
41615W        W84709   7.646  11.555  26.532 -0.1187 -0.2612  0.0727
41616W        W84710   8.244  12.335  25.853 -0.1850  0.1090  0.1420
41617W        W84711  11.656  12.796  27.408 -0.1211  0.1636  0.1030
41618W        W84712   8.197  12.763  23.281  0.4606 -0.1680 -0.3907
41619W        W84713   9.465  13.190  26.192  0.0812  0.3274 -0.0660
41620W        W84714   8.941  12.050  24.895  0.1416 -0.1528  0.1063
41621W        W84715   7.296  14.004  23.214  0.2264  0.1516  0.1014
41622W        W84716  11.047  12.862  28.078  0.1071 -0.0412  0.0471
41623W        W84717  10.276  13.406  25.341 -0.2329  0.0711 -0.3998
41624W        W84718  11.079  14.394  26.175 -0.0069  0.3193 -0.1093
41625W        W84719  10.765  14.158  24.419  0.2362 -0.2090 -0.2235
41626W        W84720   9.986  12.395  26.759  0.4509  0.1264 -0.2610
41627W        W84721   7.653  11.497  24.631 -0.1872  0.0123 -0.0712
41628W        W84722   7.060  14.376  24.214  0.1179  0.0426 -0.4317
41629W        W84723   9.392  13.552  27.208  0.0089  0.0267  0.1298
41630W        W84724   9.490  11.835  24.140 -0.1176  0.0116 -0.2139
41631W        W84725  10.549  14.889  23.943  0.2343  0.3184  0.1551
41632W        W84726   8.736  13.379  24.682  0.1915  0.0062  0.2568
41633W        W84727   7.140  13.159  25.698 -0.1703  0.1630 -0.1030
41634W        W84728  10.398  11.126  27.012  0.0417  0.0288  0.0029
41635W        W84729  10.308  12.834  26.388  0.3813 -0.0011 -0.0621
41636W        W84730   8.933  12.514  25.040  0.2386 -0.0589 -0.0846
41637W        W84731   8.187  11.790  22.904 -0.1494 -0.0060 -0.3053
41638W        W84732  10.792  13.289  25.470 -0.0442 -0.0206 -0.0229
41639W        W84733   8.555  14.368  24.431 -0.0009 -0.1308 -0.1987
41640W        W84734   6.612  12.817  26.295 -0.0862 -0.2233  0.1494
41641W        W84735   7.995  15.058  26.919 -0.0841 -0.3112 -0.1784
41642W        W84736  10.798  11.853  24.671 -0.1206  0.0852  0.1728
41643W        W84737   6.387  12.445  28.774 -0.1142 -0.1304  0.0563
41644W        W84738  10.833  11.935  25.537 -0.0064 -0.1898  0.1074
41645W        W84739   7.454  13.062  23.571  0.3093 -0.0353 -0.1578
41646W        W84740   8.525  13.348  26.163 -0.1460  0.2137 -0.0716
41647W        W84741  10.213   9.519  24.676 -0.1133 -0.1179 -0.4194
41648W        W84742  10.776  11.156  24.672  0.1237  0.1446  0.3445
41649W        W84743   9.279  14.381  26.674  0.1499  0.1500  0.0529
41650W        W84744  10.955  13.426  24.588  0.1392 -0.1095 -0.0190
41651W        W84745   9.355  10.330  24.753 -0.3201  0.2385 -0.1781
41652W        W84746   8.899  11.048  23.979  0.0090 -0.1901 -0.2634
41653W        W84747   7.139  14.024  26.542  0.1544  0.2120 -0.2343
41654W        W84748   9.440  10.742  24.527  0.2076  0.0350 -0.0073
41655W        W84749  10.174  14.760  26.389 -0.0332 -0.0024  0.2175
41656W        W84750   8.488  10.997  24.312  0.0392 -0.4648 -0.0569
41657W        W84751  10.638  13.781  25.430  0.3011 -0.1464  0.1912
41658W        W84752   7.329  14.774  25.615  0.1013  0.0760 -0.1291
41659W        W84753  10.336  14.510  25.990  0.1787  0.1127 -0.0239
41660W        W84754   9.994  13.678  25.875 -0.0300  0.0135 -0.3604
41661W        W84755   8.898  13.004  26.001  0.2405  0.1562 -0.0100
41662W        W84756   9.022  11.186  24.436 -0.2195 -0.1056  0.2508
41663W        W84757   9.834  10.360  24.593  0.2370  0.1168  0.0214
41664W        W84758   6.840  13.781  24.300  0.0048  0.1805  0.3045
41665W        W84759   9.286  10.938  25.687 -0.0768 -0.0468  0.0396
41666W        W84760  11.554  11.186  24.749  0.1368 -0.0125 -0.0967
41667W        W84761   8.812  11.385  26.882 -0.4141 -0.4054  0.0780
41668W        W84762  11.120  13.337  26.287  0.2636 -0.0345  0.0234
41669W        W84763  10.666  12.403  24.090 -0.0483 -0.0243 -0.3488
41670W        W84764   9.133  12.449  26.604  0.2342 -0.1687 -0.0708
41671W        W84765   8.349  12.804  23.864 -0.1311 -0.1745 -0.0316
41672W        W84766   9.636  11.440  26.783 -0.2134 -0.1096 -0.2680
41673W        W84767   8.731  12.538  26.096 -0.1748  0.2944  0.0283
41674W        W84768   8.165  15.360  27.920  0.0387 -0.0259 -0.0718
41675W        W84769   9.817  13.516  27.536  0.0139 -0.2391  0.2261
41676W        W84770   9.726  13.823  24.907  0.0285 -0.1362 -0.2986
41677W        W84771   9.585  12.338  26.455  0.0608 -0.1278 -0.0540
41678W        W84772   8.508  10.275  24.429  0.1769  0.0942 -0.2847
41679W        W84773   9.190  15.061  24.540  0.1696  0.1113  0.2691
41680W        W84774   8.820  14.327  26.313  0.1564  0.0633  0.5029
41681W        W84775   7.650   9.329  26.562 -0.3017  0.4013 -0.1012
41682W        W84776   9.129  13.960  27.158 -0.0781 -0.1101  0.1092
41683W        W84777   8.709  13.799  24.927  0.0097 -0.0136  0.3908
41684W        W84778   9.074  14.018  25.838 -0.3342  0.1482 -0.1442
41685W        W84779   8.389  14.225  26.075  0.2144  0.1615 -0.0419
41686W        W84780  10.278  11.367  25.224  0.0310  0.2011 -0.1202
41687W        W84781   8.466  14.117  26.642 -0.2619  0.1417 -0.0889
41688W        W84782   7.294  11.472  24.300 -0.1806  0.1379  0.1520
41689W        W84783   6.426  13.706  24.589  0.0519 -0.2016 -0.1403
41690W        W84784  11.152  12.261  25.292  0.0712  0.0420  0.2560
41691W        W84785  10.188  12.376  24.205 -0.0993  0.3075  0.0660
41692W        W84786   8.122  12.177  24.952 -0.0984 -0.3054 -0.1442
41693W        W84787   9.527  11.683  25.040  0.1833 -0.1043 -0.6065
41694W        W84788   6.581  15.255  24.980  0.1611 -0.4317 -0.0717
41695W        W84789  10.970  11.259  26.377  0.0167  0.0404  0.1150
41696W        W84790  10.912  12.758  24.348  0.2652 -0.2935  0.1856
41697W        W84791  10.174  13.690  24.966  0.0070  0.0807 -0.2419
41698W        W84792   8.919  14.017  27.640 -0.0170 -0.0870  0.1835
41699W        W84793   7.012  11.718  23.963  0.1333  0.0521  0.0638
41700W        W84794  12.155  11.612  26.389  0.1324  0.0422 -0.1465
41701W        W84795   9.410  13.170  25.574  0.0974 -0.3135  0.2572
41702W        W84796   8.442  15.139  24.983 -0.2527 -0.1947 -0.1712
41703W        W84797   9.479  15.307  27.070  0.0573  0.2465  0.0816
41704W        W84798   9.523  12.362  24.865 -0.0129 -0.0812 -0.0361
41705W        W84799   7.956  14.229  26.442 -0.3135 -0.1743 -0.0807
41706W        W84800   9.166  12.411  27.247 -0.0204  0.0551 -0.2306
41707W        W84801  11.746  11.743  26.886 -0.0816 -0.1657  0.0107
41708W        W84802   8.176  11.701  24.782 -0.0906  0.2272  0.1840
41709W        W84803   8.580  11.462  24.153  0.0206 -0.2506 -0.2341
41710W        W84804   8.610  12.232  25.278 -0.0365  0.0111 -0.0785
41711W        W84805   9.865  13.744  25.383  0.0576 -0.3204  0.0143
41712W        W84806   9.568  12.681  27.508  0.0703 -0.2461  0.0448
41713W        W84807   9.204  14.847  27.617 -0.0252  0.0280 -0.0321
41714W        W84808   9.457  11.211  25.116  0.1210  0.1041  0.1554
41715W        W84809  12.019  14.885  25.470  0.1437 -0.2358 -0.1152
41716W        W84810  12.115  12.134  26.515 -0.0271 -0.0197  0.0586
41717W        W84811   8.821  12.933  24.090  0.0350  0.1495 -0.0651
41718W        W84812   8.677  12.949  26.520 -0.0546 -0.2008 -0.0110
41719W        W84813   8.777  14.292  24.933 -0.0236  0.3218 -0.2500
41720W        W84814   8.942  10.437  25.634 -0.2719 -0.0335  0.1263
41721W        W84815   8.636  12.626  25.624 -0.1454 -0.2045 -0.2521
41722W        W84816   9.549  13.835  24.184  0.4622  0.1565 -0.4231
41723W        W84817   7.949  14.740  26.367  0.1012 -0.0125 -0.0560
41724W        W84818  11.174  10.850  24.739  0.3081 -0.0947 -0.0084
41725W        W84819   8.879  11.996  24.154  0.0934  0.1031  0.0044
41726W        W84820   9.757  10.779  24.927 -0.0797  0.1012 -0.2435
41727W        W84821  10.482  11.402  26.200 -0.1525 -0.0393 -0.0435
41728W        W84822  10.030  13.071  24.244 -0.0128  0.1124  0.1128
41729W        W84823  10.121  11.458  27.255 -0.0658  0.0225  0.3683
41730W        W84824   8.566  11.709  26.053 -0.0756 -0.1147  0.1868
41731W        W84825   9.731  12.774  25.549 -0.0134 -0.0705 -0.0781
41732W        W84826   6.712  12.448  26.715  0.0959  0.2223 -0.0862
41733W        W84827   9.768  14.734  26.036  0.1649  0.0901  0.1772
41734W        W84828   9.044  14.452  27.296  0.5670 -0.2321  0.2820
41735W        W84829   8.337  13.050  24.290 -0.0865  0.1168  0.2253
41736W        W84830   8.535  11.105  22.450 -0.0028  0.2807  0.5275
41737W        W84831   9.271  13.979  26.321  0.1800  0.1268  0.2633
41738W        W84832  10.086  10.844  24.579 -0.0469  0.2336 -0.0446
41739W        W84833   9.262  14.068  24.957  0.3525  0.2061  0.0591
41740W        W84834  10.283  12.034  24.591  0.0507  0.0661  0.1459
41741W        W84835   8.026  13.149  26.325  0.1424 -0.2348  0.1256
41742W        W84836  10.593  10.964  25.190 -0.0198 -0.2162 -0.1996
41743W        W84837  10.522  12.523  24.588  0.1781 -0.3113 -0.1408
41744W        W84838   7.982  13.525  24.915 -0.2429 -0.2350 -0.3218
41745W        W84839   8.174  11.467  26.277 -0.2865 -0.0607 -0.2003
41746W        W84840   8.558  15.040  28.053 -0.1714  0.3218 -0.3557
41747W        W84841  10.135  10.618  25.796 -0.1855 -0.1239  0.0350
41748W        W84842  10.856  11.636  26.058  0.2143  0.0317  0.2591
41749W        W84843   9.808  11.941  26.633 -0.2097 -0.5534 -0.3286
41750W        W84844   8.425  13.269  27.570 -0.3486  0.0300  0.2370
41751W        W84845   6.685  11.833  27.378 -0.1159 -0.1596 -0.4131
41752W        W84846  10.402  15.085  26.108  0.0712 -0.5229 -0.3030
41753W        W84847   9.684  10.472  23.731 -0.1795 -0.0288  0.1108
41754W        W84848  11.524  12.330  27.518  0.1855  0.0314  0.0281
41755W        W84849   9.855  11.647  25.462 -0.2160 -0.1125 -0.0765
41756W        W84850   8.875  11.617  24.510  0.1990  0.2308 -0.3772
41757W        W84851   9.447  11.372  24.626 -0.3865  0.0595  0.3310
41758W        W84852   9.984  12.789  27.228 -0.2649 -0.1923 -0.0297
41759W        W84853   8.579  10.865  25.629 -0.0277  0.2150  0.1160
41760W        W84854  11.387  12.612  27.021 -0.2138  0.3133  0.2275
41761W        W84855  10.499  13.314  24.235 -0.4862  0.0438  0.3488
41762W        W84856  11.021  13.045  25.895  0.2981 -0.1093  0.1996
41763W        W84857   9.555  12.642  26.906 -0.2780  0.1436 -0.0251
41764W        W84858   6.849  12.666  25.879 -0.2305 -0.1641 -0.1807
41765W        W84859   7.876  14.439  26.882  0.0785  0.2223 -0.1421
41766W        W84860   7.859  13.344  23.322 -0.0486  0.3117  0.0051
41767W        W84861   8.734  10.523  25.145  0.2272 -0.0603  0.2394
41768W        W84862   9.859  13.634  27.051 -0.2868 -0.2811  0.1856
41769W        W84863   9.685  13.584  26.401 -0.1623 -0.2465  0.2291
41770W        W84864   9.007  11.534  25.005 -0.2424 -0.1047  0.1061
41771W        W84865  12.037  12.709  27.834  0.0843  0.4157 -0.0522
41772W        W84866   8.670  12.978  25.174 -0.0481 -0.4177  0.0158
41773W        W84867  11.514  11.531  25.144 -0.0080  0.0079 -0.0291
41774W        W84868   9.307  14.982  25.955 -0.3300 -0.1554 -0.0629
41775W        W84869   7.613  13.545  26.058 -0.1555 -0.1783  0.2548
41776W        W84870   9.556  14.170  24.540 -0.0526 -0.2195  0.2590
41777W        W84871   8.517  11.629  26.596 -0.3024 -0.1253  0.0432
41778W        W84872  10.067  13.261  26.205  0.1688 -0.5513  0.1978
41779W        W84873   9.642  11.577  26.330  0.0117 -0.0730 -0.2487
41780W        W84874  11.430  11.271  26.161  0.0045  0.1060 -0.2634
41781W        W84875  10.397  12.352  25.935 -0.1039 -0.0516 -0.2822
41782W        W84876   8.045  13.448  25.860  0.0610 -0.0582  0.2103
41783W        W84877   9.389  13.193  27.667 -0.1519  0.0811 -0.1115
41784W        W84878  11.482  12.209  25.818  0.1703  0.0724  0.2532
41785W        W84879   8.988  13.953  25.357  0.3685  0.0919  0.1903
41786W        W84880   8.539  12.476  26.764  0.3041 -0.3523 -0.3330
41787W        W84881   8.880  12.795  26.999  0.1470  0.3358  0.0103
41788W        W84882   8.327  13.587  25.428 -0.3707 -0.0555 -0.0737
41789W        W84883   8.176  13.625  23.766  0.5032  0.0454  0.0087
41790W        W84884   9.979  12.763  25.098 -0.0372  0.0492 -0.1165
41791W        W84885   6.875  15.637  28.756 -0.1578 -0.1754  0.1390
41792W        W84886   5.843  13.803  26.684 -0.1240 -0.2996  0.0108
41793W        W84887   7.109  14.857  24.323 -0.2716  0.0042  0.0851
41794W        W84888  10.164  13.141  24.792  0.1354 -0.0079 -0.0150
41795W        W84889   9.361  12.708  25.923  0.2194  0.0223 -0.1655
41796W        W84890  10.153  15.249  26.536  0.1214 -0.2278  0.0005
41797W        W84891   8.417  11.148  25.240 -0.0995  0.2325 -0.0776
41798W        W84892   8.254  13.895  24.630  0.0259  0.0066 -0.2139
41799W        W84893   7.738  14.675  24.744 -0.0499 -0.2503 -0.2405
41800W        W84894   9.979  14.046  24.220  0.0108  0.0911  0.0023
41801W        W84895   7.859  16.554  25.023  0.1532 -0.2086 -0.0032
41802W        W84896  10.225  13.741  26.317 -0.0310 -0.0956  0.0985
41803W        W84897  10.519  11.831  23.366 -0.2114  0.0534 -0.0268
41804W        W84898  11.893  11.937  25.482  0.1922 -0.2210  0.0264
41805W        W84899  10.503  11.930  24.159  0.0293  0.0288  0.2885
41806W        W84900   9.459  13.963  27.529  0.2891  0.1716  0.0652
41807W        W84901   8.928  13.275  27.007  0.3785 -0.3202  0.1970
41808W        W84902   9.638  11.147  21.781 -0.1535  0.1439 -0.1924
41809W        W84903   9.699  12.387  25.862  0.1633  0.3135 -0.4750
41810W        W84904  10.645  11.496  26.781  0.1491  0.1171 -0.0415
41811W        W84905   7.701  15.201  26.477 -0.2217  0.0344 -0.0726
41812W        W84906  11.372  14.132  21.322  0.1807 -0.0714 -0.0293
41813W        W84907   7.682  13.869  22.969 -0.2637  0.0850  0.0695
41814W        W84908   8.464  13.110  27.071 -0.0815  0.1141  0.2361
41815W        W84909  11.337  10.646  25.173  0.1515 -0.1602  0.0624
41816W        W84910  10.024  11.902  24.074 -0.0841 -0.0618 -0.2085
41817W        W84911  11.264  10.912  25.873  0.3551 -0.1394 -0.0058
41818W        W84912   8.902  16.056  25.005  0.0884 -0.0507  0.2311
41819W        W84913   9.036  13.521  25.844 -0.0789  0.0936  0.3892
41820W        W84914   9.007  13.369  26.334  0.0379 -0.0914 -0.1968
41821W        W84915   8.000  11.181  24.912 -0.1156 -0.3645  0.0688
41822W        W84916  11.248  13.032  24.580 -0.2634 -0.2400  0.4134
41823W        W84917   7.973  12.377  27.995 -0.0390 -0.1080 -0.2371
41824W        W84918  11.507  10.520  27.337 -0.0697 -0.2088  0.1923
41825W        W84919   9.543  12.103  25.325 -0.3763  0.0001  0.2283
41826W        W84920  10.082  12.430  25.553 -0.0829 -0.0410 -0.1082
41827W        W84921   9.791  12.783  26.462 -0.2670  0.4243 -0.0417
41828W        W84922   7.443  12.154  27.328  0.0650  0.0584  0.1317
41829W        W84923  10.014  12.321  23.189  0.1447  0.1694 -0.0824
41830W        W84924  10.395  12.852  27.809 -0.0596  0.1534  0.1999
41831W        W84925  10.991  11.706  23.292 -0.0483 -0.0021  0.0035
41832W        W84926   9.151  17.066  26.553  0.0813  0.1506  0.1565
41833W        W84927   6.967  12.188  25.797  0.0455  0.1689  0.1124
41834W        W84928  10.184  10.528  25.013  0.1435  0.5105 -0.0008
41835W        W84929   7.213  14.593  24.803  0.4330  0.2220  0.1576
41836W        W84930   9.850  11.050  25.364 -0.1226 -0.1404 -0.1776
41837W        W84931  11.436  16.012  26.822  0.1883 -0.1217  0.0321
41838W        W84932   7.474  12.799  24.565  0.0322  0.2454 -0.0099
41839W        W84933  11.712  14.485  23.028 -0.0694  0.0788  0.0722
41840W        W84934  11.057  12.369  26.658 -0.1612  0.2594  0.2939
41841W        W84935   9.087  15.475  24.785 -0.1545 -0.2036  0.2477
41842W        W84936  10.340  11.409  24.617  0.3346 -0.1470 -0.0277
41843W        W84937  11.071  13.173  24.992 -0.0668 -0.1125  0.2576
41844W        W84938   9.075  11.460  26.468 -0.1056 -0.1345  0.0679
41845W        W84939  10.246  14.263  26.421 -0.2722 -0.0364 -0.0191
41846W        W84940   9.903  13.234  25.658 -0.0160 -0.0104 -0.0667
41847W        W84941   9.857  11.331  24.894  0.0962  0.1122  0.2400
41848W        W84942   7.610  12.372  24.978 -0.1142  0.1501 -0.0285
41849W        W84943   8.427  12.370  24.140 -0.0314 -0.1057  0.0582
41850W        W84944  12.506   9.997  25.016  0.1996 -0.0639 -0.1949
41851W        W84945  10.834  13.354  27.404 -0.0650 -0.5022  0.0450
41852W        W84946   9.587  13.299  24.095  0.0652  0.0720  0.3793
41853W        W84947  12.048  10.934  27.352 -0.2395 -0.0494 -0.2947
41854W        W84948   8.632  14.131  27.245  0.1036 -0.0830 -0.1012
41855W        W84949   7.337  15.845  27.940  0.0598  0.1255  0.1137
41856W        W84950   8.789  12.893  24.650 -0.2694 -0.0381 -0.2697
41857W        W84951   9.649  13.214  28.144  0.0455 -0.0157 -0.1093
41858W        W84952   8.560  13.129  25.649 -0.0527  0.1202  0.1150
41859W        W84953   9.141  14.708  24.927  0.2774  0.0148  0.3454
41860W        W84954  11.166  13.782  23.685  0.1515  0.0723  0.0707
41861W        W84955  10.137  10.029  24.812 -0.1634 -0.0634 -0.0445
41862W        W84956  11.667  12.024  25.023 -0.0120 -0.2645 -0.2872
41863W        W84957   9.209  10.948  26.210  0.2559  0.1318 -0.1105
41864W        W84958  12.191  10.931  25.217 -0.0891  0.3544  0.3388
41865W        W84959  11.272  11.684  24.566 -0.1334  0.2604  0.1542
41866W        W84960   9.363  13.026  27.185  0.3280  0.0255 -0.1066
41867W        W84961   8.298  13.181  23.524  0.1345  0.1836 -0.0475
41868W        W84962   9.134  13.203  24.460  0.2594 -0.2504 -0.1140
41869W        W84963   7.240  12.655  25.559 -0.1154  0.1795 -0.2259
41870W        W84964   7.725  12.314  26.961  0.1915 -0.2301  0.0693
41871W        W84965   7.746  12.641  28.372  0.0210 -0.0916  0.0050
41872W        W84966   7.426  13.766  25.633 -0.0607  0.3107 -0.1074
41873W        W84967   8.304  12.609  25.225  0.1150 -0.2374 -0.1268
41874W        W84968  10.428  14.360  24.166  0.0003 -0.0494  0.4277
41875W        W84969   7.921  11.065  25.417  0.0641 -0.0174  0.2045
41876W        W84970   6.618  11.465  25.037 -0.2331 -0.0108  0.2354
41877W        W84971   8.789  13.792  26.199 -0.3398  0.0774  0.0115
41878W        W84972  10.663  13.033  24.659  0.1823  0.1709 -0.0576
41879W        W84973   7.731  10.727  24.981 -0.0102  0.0498  0.0708
41880W        W84974  12.917  13.285  26.935 -0.0250  0.0125  0.2958
41881W        W84975   7.885  14.180  24.868  0.2676  0.2403  0.2414
41882W        W84976   6.881  12.938  28.042 -0.0536 -0.0278  0.1442
41883W        W84977   8.554  11.732  27.159  0.0098 -0.0270 -0.2989
41884W        W84978   7.424  12.369  24.287  0.1544  0.3133 -0.2067
41885W        W84979   9.525  11.929  25.965  0.2330  0.1069 -0.0841
41886W        W84980   9.572  13.955  26.762  0.0874  0.1605  0.2828
41887W        W84981  10.294  14.077  25.257  0.0399 -0.1698  0.0579
41888W        W84982   8.943  13.884  26.668 -0.0122 -0.1960 -0.1670
41889W        W84983   7.329  15.360  27.719 -0.1493  0.2692  0.1775
41890W        W84984   7.550  11.607  26.044 -0.1483 -0.0207 -0.0312
41891W        W84985   9.796  13.273  25.170 -0.2398 -0.1642  0.0729
41892W        W84986   8.935  13.398  27.721  0.1376 -0.0271  0.0475
41893W        W84987  11.446  13.432  22.090  0.0837 -0.1547 -0.0147
41894W        W84988  11.090  11.579  26.963  0.0009 -0.0227  0.1155
41895W        W84989  10.107  11.279  23.555 -0.1302  0.0127 -0.2437
41896W        W84990   8.257  11.887  25.706 -0.0270  0.3379  0.2308
41897W        W84991   7.184  14.930  28.006 -0.0677 -0.0764  0.1051
41898W        W84992  11.228  12.854  26.437 -0.0682 -0.0127  0.2911
41899W        W84993   7.338  11.753  25.551  0.2066  0.0793  0.2455
41900W        W84994   9.360  10.634  25.213  0.1836  0.0983 -0.0503
41901W        W84995  10.348  14.552  24.608 -0.0023 -0.1287 -0.1502
41902W        W84996   7.847  12.241  25.390  0.2277 -0.0539 -0.0841
41903W        W84997   9.898  12.056  24.931 -0.0862 -0.1085 -0.2815
41904W        W84998   9.025  11.955  25.365  0.0946 -0.2772  0.1080
41905W        W84999   9.914  15.170  23.851  0.2164  0.2286 -0.2459
41906W        W85000  10.290  12.824  26.869 -0.1455 -0.1887  0.3258
41907W        W85001   7.848  13.161  24.499  0.2258  0.3460  0.4984
41908W        W85002  11.354  14.128  23.383 -0.1893 -0.1475 -0.0503
41909W        W85003  10.655  15.462  25.581  0.0982  0.0134  0.0944
41910W        W85004  10.662  14.119  26.764 -0.1443 -0.2116  0.1064
41911W        W85005   9.903  15.072  26.994  0.1360  0.1653 -0.0280
41912W        W85006  10.793  13.668  26.584 -0.0634 -0.1210  0.0638
41913W        W85007   7.540  11.843  25.093 -0.1328 -0.0387  0.0301
41914W        W85008   9.017  12.907  25.487 -0.0491  0.0093  0.0705
41915W        W85009   8.907  13.431  25.329 -0.0507  0.1009  0.2121
41916W        W85010  11.561  11.691  26.441  0.1425 -0.2597 -0.1093
41917W        W85011   9.282  10.515  25.986  0.1536 -0.1344 -0.1660
41918W        W85012   9.203  12.287  26.112 -0.0758  0.0706 -0.1515
41919W        W85013   9.587  15.846  27.821 -0.1950 -0.1726  0.2716
41920W        W85014   9.282  13.516  26.703 -0.0487  0.0042  0.0952
41921W        W85015   7.476  12.454  29.479 -0.3519  0.1584  0.0000
41922W        W85016   7.804  13.089  28.148  0.2711  0.0241  0.1788
41923W        W85017  11.657  10.962  27.073 -0.0424  0.1776  0.0094
41924W        W85018  10.029  13.541  27.974 -0.0911 -0.1664 -0.0124
41925W        W85019   8.066  11.704  28.758 -0.3575  0.0004  0.1357
41926W        W85020  10.564  13.797  28.734 -0.2706 -0.0414  0.0967
41927W        W85021   8.557  10.520  30.071  0.1814  0.0232 -0.1870
41928W        W85022   9.921  13.878  29.978  0.0624  0.1237  0.0660
41929W        W85023  10.760  14.714  29.645  0.0563 -0.2737 -0.2703
41930W        W85024  10.686  15.137  27.925 -0.2091 -0.1634  0.2557
41931W        W85025   8.638  12.463  30.558 -0.0364 -0.0227  0.0530
41932W        W85026   8.849  12.742  28.875 -0.1493 -0.1604  0.2839
41933W        W85027   9.177  11.681  27.028  0.1145  0.1742 -0.1986
41934W        W85028   9.094  11.108  28.239  0.0714 -0.3020  0.0858
41935W        W85029  10.649  12.577  28.798 -0.1563 -0.0968 -0.4305
41936W        W85030   6.650  13.699  29.147 -0.0816 -0.2423  0.0586
41937W        W85031   9.044  11.205  29.094 -0.3329  0.0476 -0.2493
41938W        W85032  10.336  12.201  28.596 -0.1654  0.0984 -0.0702
41939W        W85033   7.827  14.893  30.433  0.2136 -0.1227 -0.1439
41940W        W85034   9.095  11.031  30.061  0.3034  0.0112 -0.1374
41941W        W85035   9.164  10.379  31.508 -0.0826 -0.4049  0.1863
41942W        W85036   7.215  13.550  28.332  0.1293 -0.0506 -0.0694
41943W        W85037   6.947  14.448  26.403  0.0405 -0.2397  0.0127
41944W        W85038   7.774  10.450  30.740  0.0947  0.0906  0.4848
41945W        W85039   9.142  12.841  29.936 -0.0875 -0.0697 -0.0476
41946W        W85040  11.402  11.964  29.028  0.0557  0.0132  0.1694
41947W        W85041  10.704  13.222  29.768  0.1763 -0.0852 -0.1649
41948W        W85042   9.178  14.141  28.631 -0.1291  0.2960  0.0317
41949W        W85043  10.198  13.425  30.062  0.3671 -0.0448 -0.0585
41950W        W85044   9.099  12.346  30.663 -0.0035  0.0365 -0.1879
41951W        W85045   6.948  13.679  27.877 -0.1051  0.1245 -0.1319
41952W        W85046   6.883  16.678  29.591 -0.0655  0.2686 -0.0890
41953W        W85047   6.724  15.153  28.184  0.1711  0.2204  0.0802
41954W        W85048  10.353  12.395  27.275 -0.2134 -0.0486  0.0354
41955W        W85049   9.524  14.797  29.533 -0.0253 -0.0468 -0.0098
41956W        W85050   6.561  14.827  30.603 -0.1881  0.0992 -0.1075
41957W        W85051   6.330  14.304  28.217  0.0075 -0.1101  0.2489
41958W        W85052   8.545  13.758  30.358 -0.2319 -0.0218  0.1786
41959W        W85053   8.161  12.724  31.329  0.1540 -0.0724 -0.0579
41960W        W85054   8.704  13.239  30.453 -0.1554 -0.0057  0.0220
41961W        W85055   8.845  14.263  29.128 -0.0737  0.0342  0.0698
41962W        W85056   7.356  14.559  27.498 -0.2582  0.0355 -0.0753
41963W        W85057   9.371  13.442  28.575 -0.2825 -0.0933 -0.2569
41964W        W85058   8.250  13.432  30.720 -0.0838 -0.0841  0.0645
41965W        W85059   7.095  12.317  29.861 -0.0672 -0.0804 -0.1255
41966W        W85060  10.660  12.130   0.002  0.0073  0.2170 -0.3642
41967W        W85061   7.347  14.430  26.974  0.4275  0.1510 -0.2271
41968W        W85062  11.198  12.712  27.574  0.3048 -0.1338  0.2383
41969W        W85063   8.851  12.140  26.887  0.1816 -0.1534 -0.1340
41970W        W85064  12.023  12.195  27.556 -0.1230 -0.0508 -0.0030
41971W        W85065  10.786  11.325  29.734  0.0645  0.0475 -0.3009
41972W        W85066   8.362  13.777  29.822 -0.1166  0.2751  0.1303
41973W        W85067   8.747  10.865  30.410  0.0529  0.2401  0.2355
41974W        W85068   9.977  13.728  30.432 -0.0329 -0.0287 -0.0637
41975W        W85069   8.671  12.403  27.296  0.0940 -0.1324 -0.2019
41976W        W85070  10.226  12.737  29.164  0.1662  0.0075 -0.0127
41977W        W85071   7.438  13.501  29.537  0.1669  0.0271  0.0517
41978W        W85072   7.492  12.330  27.852  0.0984 -0.0453  0.2003
41979W        W85073  11.151  14.502  26.892  0.0477 -0.0631  0.2433
41980W        W85074  10.262  13.372  28.666  0.2441  0.0251 -0.0077
41981W        W85075  11.788  13.961  27.324 -0.2843  0.0737 -0.1109
41982W        W85076   7.413  11.873  28.079 -0.0964 -0.0911  0.3970
41983W        W85077   7.499  14.163  30.862  0.3987  0.2343 -0.0417
41984W        W85078   7.792  10.075   0.030 -0.1119 -0.1501  0.0079
41985W        W85079   9.506  11.410  27.300  0.0296  0.2950 -0.4366
41986W        W85080  10.871  12.145  30.562 -0.0057  0.1293  0.1794
41987W        W85081   7.392  13.122  30.228  0.0700 -0.0680 -0.0393
41988W        W85082   9.745  13.178  26.820 -0.0172 -0.0289 -0.1727
41989W        W85083   7.681  13.861  29.294 -0.2008 -0.0232  0.0373
41990W        W85084   9.986  14.390  30.026  0.0341  0.2739 -0.0110
41991W        W85085  10.002  14.039  28.667  0.2393  0.2308 -0.1335
41992W        W85086   9.046  11.577  27.952 -0.0947  0.1610  0.0006
41993W        W85087   9.936  10.116  30.774  0.2516 -0.6339  0.0074
41994W        W85088   7.895  14.618  28.232 -0.1868  0.0529  0.0340
41995W        W85089   8.568  13.253  28.071 -0.0961 -0.0972 -0.0426
41996W        W85090   9.656  14.129  30.320  0.3464  0.0250 -0.2495
41997W        W85091  10.242  12.008  26.971  0.0475  0.0358 -0.1973
41998W        W85092   7.794  13.966  29.722  0.1626 -0.0068 -0.1183
41999W        W85093   8.197  10.129  31.301 -0.0937 -0.0557  0.0164
42000W        W85094   8.862  12.887  31.356  0.2170  0.0664  0.1281
42001W        W85095   7.255  15.930  28.466 -0.0211 -0.1399  0.0950
42002W        W85096   6.868  13.095  30.360 -0.2441 -0.1906  0.2958
42003W        W85097   7.587  13.698  28.098 -0.1392 -0.2223 -0.1535
42004W        W85098   8.113  10.485  30.359  0.0194 -0.0099  0.0831
42005W        W85099   7.424  13.747  30.545  0.0442  0.1785  0.1759
42006W        W85100  10.895  10.227  27.246  0.1018  0.0366  0.1335
42007W        W85101   7.893  12.598  29.743 -0.2307  0.0509  0.1442
42008W        W85102  10.245  10.233  28.847 -0.1130 -0.1300  0.0860
42009W        W85103   8.410  14.593  28.215  0.2369 -0.1520  0.1969
42010W        W85104  11.844  14.513  28.306  0.1592  0.1039  0.0313
42011W        W85105  10.017  12.425  28.223 -0.2528 -0.2219  0.0633
42012W        W85106  10.934  14.179  27.513  0.1544  0.0903 -0.3959
42013W        W85107   6.901  12.122  30.254 -0.1010 -0.0748  0.1233
42014W        W85108   8.989  11.503  28.637 -0.2678 -0.1416  0.1774
42015W        W85109   8.049  11.392  29.647  0.0564  0.1384  0.1267
42016W        W85110   8.534  11.611  28.526 -0.1826 -0.1422  0.0374
42017W        W85111   9.684  11.798  30.883 -0.0103 -0.3667  0.4647
42018W        W85112   7.396  10.810  28.922  0.2036  0.0186 -0.2160
42019W        W85113   9.118  12.457  28.288 -0.0103 -0.3145 -0.2530
42020W        W85114   7.971  12.860  27.695 -0.1309  0.1493  0.1542
42021W        W85115   6.244  13.203  28.558 -0.1279 -0.3754  0.0178
42022W        W85116   8.802  11.625   0.958  0.2264  0.0810  0.1040
42023W        W85117   8.253  14.945  30.162 -0.3031  0.1598 -0.2399
42024W        W85118  12.939  14.738  28.850  0.3493  0.0374 -0.1061
42025W        W85119  11.648  12.978  28.425 -0.0569  0.2463 -0.0435
42026W        W85120   8.144  11.201  28.668  0.0048  0.1523  0.3042
42027W        W85121   7.897  11.891  28.198 -0.1237 -0.1320  0.1510
42028W        W85122   8.485  15.262  28.507 -0.1225 -0.1226  0.0369
42029W        W85123   7.846  14.216  28.940 -0.1138 -0.0963 -0.0263
42030W        W85124   8.171  11.165  27.751 -0.2013  0.3481  0.4567
42031W        W85125  12.294  14.924  27.394 -0.2609  0.1917  0.0786
42032W        W85126   8.728  14.376  28.648  0.0365  0.3365 -0.0493
42033W        W85127   7.744  12.304  31.542 -0.1894 -0.0760 -0.1131
42034W        W85128   9.877  11.224  31.451 -0.1474  0.2600 -0.2852
42035W        W85129   9.888  11.792  29.502  0.0556  0.0216 -0.2280
42036W        W85130   8.594  13.561  29.018  0.1412 -0.2780  0.0981
42037W        W85131   6.875  11.157  26.347  0.1589 -0.1587  0.2155
42038W        W85132   9.362  13.453  29.239 -0.1046  0.2537  0.0213
42039W        W85133   8.166  15.644  28.322  0.2602 -0.2557 -0.0081
42040W        W85134   6.789  11.756  29.294  0.2862  0.0690 -0.3769
42041W        W85135   9.887  14.269  29.119 -0.0061  0.0136 -0.2699
42042W        W85136  10.583  11.855  27.336  0.1004  0.0703  0.1285
42043W        W85137   6.606  11.448  30.624 -0.0706  0.0104 -0.2098
42044W        W85138  10.328  10.928  29.392  0.1381  0.3641  0.2461
42045W        W85139   8.129  13.559  28.222 -0.3835 -0.2683  0.0122
42046W        W85140   8.662  12.812  30.154 -0.0459 -0.1685  0.0804
42047W        W85141  12.003  10.955  28.560 -0.2967 -0.3446 -0.1115
42048W        W85142  10.117  11.999  27.542 -0.2263  0.4139  0.3351
42049W        W85143   9.341  11.863  30.575  0.0850  0.0677 -0.3186
42050W        W85144  10.839  11.920  29.692  0.1088 -0.1672 -0.1719
42051W        W85145  10.770  12.028  26.903  0.2816  0.1927  0.1346
42052W        W85146   9.861  11.178  27.601 -0.1969  0.0013 -0.1314
42053W        W85147   6.896  13.656  31.489  0.1143 -0.3784 -0.0524
42054W        W85148   8.860  13.303  28.678 -0.0951  0.0907  0.2346
42055W        W85149   7.629  13.395  29.085  0.0418  0.3370 -0.1532
42056W        W85150   8.243  12.832  28.174  0.2783  0.2777 -0.0061
42057W        W85151  11.331  14.124  27.251 -0.2501  0.1907 -0.0546
42058W        W85152   8.216  12.210  30.736 -0.0094  0.0209 -0.1410
42059W        W85153   9.645  13.653  30.971 -0.0468  0.2511  0.1541
42060W        W85154   9.784  14.071  27.921  0.1258  0.5415  0.0987
42061W        W85155   8.007  12.030  30.185 -0.3333 -0.3867 -0.0717
42062W        W85156   8.782  13.652  27.333 -0.0092 -0.1332  0.1136
42063W        W85157  10.875  12.053  29.201 -0.0123 -0.1681 -0.1300
42064W        W85158   6.305  16.432  28.690 -0.0617 -0.2192 -0.0732
42065W        W85159  11.080  11.340  28.922  0.3507  0.1387 -0.1520
42066W        W85160  10.088  10.529  30.404 -0.2156  0.2030  0.1982
42067W        W85161  10.011  10.943  29.010  0.3693 -0.1088  0.1704
42068W        W85162  10.432  11.197  30.096  0.0020  0.1240 -0.1195
42069W        W85163  10.576  13.293  26.343 -0.1430 -0.4374 -0.0389
42070W        W85164  10.110  12.562  29.652  0.0915 -0.1730  0.1216
42071W        W85165   8.251  12.677  27.307  0.1436 -0.2069 -0.1183
42072W        W85166   9.169  10.297  29.016 -0.1330 -0.3256 -0.0034
42073W        W85167   8.461  11.650  29.648  0.1944 -0.1440  0.1833
42074W        W85168   8.122  13.414  30.100  0.0685  0.0092 -0.0047
42075W        W85169   9.243  13.206  30.812 -0.0884 -0.0027  0.1819
42076W        W85170  10.116  13.214  27.125  0.2042  0.0650  0.1590
42077W        W85171   8.079  10.866  30.722 -0.0203  0.0130 -0.4333
42078W        W85172  10.730  11.392  28.379  0.2414  0.0152  0.2217
42079W        W85173   9.401  14.384  29.255 -0.1062  0.2859 -0.1701
42080W        W85174   8.484  12.773  27.759  0.1469 -0.0970  0.1155
42081W        W85175   9.801  12.307  27.208 -0.0419  0.0668  0.0974
42082W        W85176   7.464  14.107  30.109 -0.3133  0.0528 -0.0578
42083W        W85177   8.689  14.766  27.663  0.3363  0.3287 -0.1401
42084W        W85178  10.912  14.037  30.761  0.0210 -0.0379  0.1627
42085W        W85179   6.130  14.134  27.672 -0.0272  0.2421 -0.3863
42086W        W85180   8.900  12.363  30.123 -0.0439  0.0239 -0.1264
42087W        W85181   7.523  14.461  29.659 -0.3306  0.1324 -0.0786
42088W        W85182   7.898  12.354  27.459  0.0218 -0.1097 -0.0958
42089W        W85183   7.528  12.628  26.640  0.1022  0.0831 -0.0671
42090W        W85184  10.834  11.349  27.342 -0.3633 -0.0211 -0.0489
42091W        W85185  11.468  13.078  26.854 -0.1266  0.1077 -0.2057
42092W        W85186   7.983  10.798  28.902 -0.3470 -0.0657 -0.2708
42093W        W85187   8.618  11.235  29.421  0.1897 -0.0902 -0.1031
42094W        W85188   8.853  13.612  29.504  0.0550  0.0377  0.2118
42095W        W85189   9.332  11.987  28.104  0.0562  0.1771 -0.0109
42096W        W85190  10.937  12.498  27.176 -0.2532  0.0127 -0.1298
42097W        W85191   8.540  12.416  29.224  0.3177 -0.0363  0.2222
42098W        W85192   8.621  11.549  30.875 -0.3703 -0.1527 -0.2207
42099W        W85193   7.797  11.953  27.710  0.1103  0.1306 -0.0810
42100W        W85194   9.941  12.278  29.288 -0.1110 -0.0442 -0.0947
42101W        W85195   7.851  12.572  28.830  0.1394  0.0101  0.1144
42102W        W85196   8.875  13.915  29.964 -0.5400  0.0610 -0.0382
42103W        W85197   9.556  13.905  28.344 -0.2133  0.2646  0.0772
42104W        W85198   7.862  12.886  29.241 -0.2302 -0.4629 -0.0704
42105W        W85199   7.704  13.448  28.518 -0.2486  0.0920  0.0517
42106W        W85200   8.182  12.212  31.740  0.0444 -0.0406 -0.1238
42107W        W85201   9.933  13.052  30.272 -0.0725 -0.1833  0.0425
42108W        W85202   8.805  11.908  30.516 -0.2113 -0.1629 -0.0943
42109W        W85203   8.094  11.722  27.417  0.0489  0.2578  0.1872
42110W        W85204   8.027  12.354  29.256  0.1135  0.1270  0.0276
42111W        W85205  10.158  13.120  28.196 -0.3683  0.0007 -0.0062
42112W        W85206   8.687  12.348  28.643 -0.1186 -0.0521  0.2299
42113W        W85207   6.375  14.278  31.930  0.0496 -0.0165  0.0371
42114W        W85208  10.274  11.487  29.718  0.3121  0.1194 -0.1058
42115W        W85209  11.441  14.331  26.462  0.0680  0.0303 -0.0126
42116W        W85210  10.100  11.615  30.714 -0.2264 -0.0926  0.0494
42117W        W85211   7.922  13.386  27.759  0.3969 -0.2046  0.3148
42118W        W85212   7.033  13.171  29.850 -0.0024 -0.2468 -0.0323
42119W        W85213   8.065  13.891  27.614  0.2113 -0.1050 -0.0579
42120W        W85214   9.817  11.265  29.938 -0.2791  0.0207 -0.2464
42121W        W85215   8.103  14.270  29.517 -0.2483 -0.0658 -0.2236
42122W        W85216   8.235  14.375  28.596  0.2801  0.2089  0.0335
42123W        W85217   7.800  13.329  30.519 -0.2836  0.0800 -0.0653
42124W        W85218   9.763  10.703  27.956 -0.1071 -0.0756  0.2995
42125W        W85219   8.462  14.840  28.757 -0.1672  0.2561 -0.1822
42126W        W85220   9.755  12.190  29.799 -0.2361  0.1466  0.1780
42127W        W85221  10.983  12.823  30.115 -0.0107 -0.1094 -0.0566
42128W        W85222   9.069  12.805  27.975  0.0162 -0.1892  0.2755
42129W        W85223   9.435  11.618  31.649 -0.1809 -0.0579 -0.1974
42130W        W85224   7.592  11.158  29.417 -0.2666 -0.1647 -0.1715
42131W        W85225  10.234  12.786  28.618 -0.3150  0.0988 -0.3083
42132W        W85226   7.224  10.806  29.771 -0.1579  0.0089 -0.1422
42133W        W85227  10.146  13.543  31.686  0.1873  0.2016  0.2224
42134W        W85228   7.671  11.590  30.120  0.0598  0.2370 -0.3286
42135W        W85229  10.876  11.079  27.797 -0.0536  0.0845 -0.1371
42136W        W85230  10.090  11.442  25.888  0.0475 -0.2428  0.1562
42137W        W85231   8.139  13.306  29.114 -0.1704  0.1131  0.2868
42138W        W85232   8.958  13.218  29.177 -0.3621  0.1606  0.2166
42139W        W85233   8.904  12.916  27.482 -0.0694 -0.1066 -0.0285
42140W        W85234  10.690  12.465  28.272  0.0335  0.0898 -0.0372
42141W        W85235   7.679  13.572  30.009 -0.2080 -0.1698 -0.0427
42142W        W85236   9.342  13.013  28.933 -0.3946  0.1720  0.1180
42143W        W85237   9.056  13.293  28.222 -0.3958  0.0885  0.0648
42144W        W85238   7.127  13.764  29.137 -0.2156 -0.3079 -0.2558
42145W        W85239   8.897  10.827  29.685  0.0737  0.2059  0.0671
42146W        W85240  10.704  13.256  27.876 -0.0838  0.1188 -0.0557
42147W        W85241   9.544  12.608  29.232  0.0707  0.1429  0.1380
42148W        W85242  11.303  11.150  29.897 -0.2143 -0.0846 -0.0872
42149W        W85243   9.463  13.145  30.386 -0.2871 -0.1053 -0.0461
42150W        W85244   8.232  11.530  30.082  0.1984 -0.1865 -0.3578
42151W        W85245   7.013  11.640   0.493 -0.2734  0.0582 -0.1525
42152W        W85246   9.104  13.796  28.981  0.0226  0.2442 -0.0046
42153W        W85247  11.687  13.322  27.323 -0.2127 -0.0943  0.0193
42154W        W85248  10.247  12.007  29.855 -0.0622  0.1676  0.2419
42155W        W85249   8.940  11.442  27.465  0.0236 -0.1144 -0.0946
42156W        W85250   9.216  12.391  27.739 -0.0524 -0.0080 -0.2511
42157W        W85251   8.313  12.291  29.654  0.1940  0.0942  0.4712
42158W        W85252   9.857  12.464  31.296  0.1835  0.2750 -0.1016
42159W        W85253   8.568  11.689  27.677  0.0173  0.0172 -0.1185
42160W        W85254   9.817  12.039  30.363  0.1548 -0.3158  0.0444
42161W        W85255   8.475  13.682  27.832 -0.2290 -0.1181 -0.4496
42162W        W85256   8.708  12.889  28.448  0.0795  0.3302  0.1318
42163W        W85257   8.780  12.129  27.817  0.0109  0.2002  0.2717
42164W        W85258   8.065  11.822  29.310  0.2015  0.0705  0.1183
42165W        W85259   7.453  14.945  30.847  0.0697  0.1090  0.0374
42166W        W85260   7.143  11.825  27.129 -0.0164 -0.1159 -0.1132
42167W        W85261   9.930  14.174  27.415  0.0210 -0.1018 -0.0091
42168W        W85262   8.779  13.041  29.630  0.0627  0.1196  0.3301
42169W        W85263  10.472  12.496  30.706  0.2419 -0.0302  0.0193
42170W        W85264   9.829  10.374  26.256  0.1738 -0.0172  0.0932
42171W        W85265  10.938  11.588  31.618  0.2186 -0.1422 -0.2520
42172W        W85266   7.364  13.308  27.923 -0.1110 -0.1211  0.1121
42173W        W85267   9.057  11.354  29.619  0.3065 -0.0850 -0.1005
42174W        W85268   7.321  15.056  31.429 -0.2154 -0.2966 -0.0813
42175W        W85269   7.435  12.784  29.848 -0.1229 -0.0556 -0.0482
42176W        W85270   8.654  14.112  28.163 -0.0214  0.1288  0.4420
42177W        W85271  10.066  11.363  29.259 -0.0159 -0.1096 -0.0601
42178W        W85272  10.172  13.041  29.664 -0.1372 -0.3292  0.5276
42179W        W85273   9.338  12.538  28.758 -0.1242  0.0208  0.0078
42180W        W85274  10.302  11.960  29.056 -0.1501 -0.4035 -0.2339
42181W        W85275   7.879  13.295  29.603  0.2414  0.0694  0.0383
42182W        W85276   8.549  11.941  28.957 -0.0396  0.0489  0.1411
42183W        W85277  10.348  14.807  30.604  0.1170 -0.0961 -0.1764
42184W        W85278  10.479  14.195  30.383 -0.0195  0.0477 -0.4524
42185W        W85279   7.102  14.529  30.819 -0.2065 -0.0008 -0.2747
42186W        W85280   6.264  11.518  31.498  0.0184  0.2356  0.4552
42187W        W85281   9.644  10.879  30.186  0.1045  0.0748  0.2007
42188W        W85282   8.371  13.201  28.640  0.0265 -0.0072 -0.0072
42189W        W85283   7.417  12.841  28.979  0.1067  0.2162 -0.0510
42190W        W85284   7.721  14.622  29.195  0.0171  0.2006  0.0202
42191W        W85285   7.943  14.451  30.014 -0.0793  0.0526  0.0709
42192W        W85286   5.509  12.509  31.356 -0.2235 -0.0365  0.0280
42193W        W85287   8.173  14.717  27.821  0.2252 -0.0778  0.0304
42194W        W85288   9.581  14.427  28.699 -0.1389 -0.1660  0.2932
42195W        W85289  10.461  13.713  28.260 -0.1643  0.1377  0.2428
42196W        W85290  10.400  14.032  30.819 -0.0079  0.1994  0.0200
42197W        W85291   8.115  12.181  28.583 -0.0867 -0.1864 -0.3564
42198W        W85292   7.362  14.809  29.992  0.3133  0.2595  0.1208
42199W        W85293   7.224  14.706  29.088 -0.1528  0.1937  0.2406
42200W        W85294   9.549  13.943  28.857  0.1614  0.1517  0.1499
42201W        W85295   8.227  14.468  30.621 -0.2591  0.2839  0.0516
42202W        W85296  11.325  14.484  30.313 -0.2065  0.0583  0.1305
42203W        W85297  11.163  13.059  27.244 -0.1592  0.3447 -0.0769
42204W        W85298   9.701  13.433  30.007  0.3047 -0.1303  0.1727
42205W        W85299  11.026  12.219  28.692  0.1132  0.6072  0.0859
42206W        W85300   9.361  13.832  29.907 -0.2041 -0.0125 -0.1466
42207W        W85301   8.774  12.558  29.671  0.0096  0.3614 -0.3122
42208W        W85302   8.317  12.169  27.596  0.1812  0.1207 -0.3613
42209W        W85303   8.331  12.930  29.756 -0.0943 -0.1267  0.0919
42210W        W85304   9.609  11.999  31.365 -0.0606  0.0535 -0.0227
42211W        W85305   7.635  12.755  30.496  0.0538  0.4078 -0.4259
42212W        W85306  10.252  14.283  27.869 -0.3834 -0.0651  0.1870
42213W        W85307   7.461  12.687  27.500 -0.0324 -0.0964 -0.0431
42214W        W85308   7.815  14.143  28.374 -0.2019  0.4504 -0.1174
42215W        W85309   9.870  11.248  30.948 -0.0576  0.0082 -0.0363
42216W        W85310   9.854  14.934  28.324  0.1627  0.1770 -0.1276
42217W        W85311   9.733  10.676  30.639 -0.1992  0.2632 -0.1601
42218W        W85312   9.062  15.167  29.554  0.2563 -0.2465 -0.0170
42219W        W85313  10.187  14.041  29.543  0.3812  0.0825  0.0902
42220W        W85314   6.942  13.599  30.534  0.0458  0.2318 -0.1258
42221W        W85315   9.549  11.551  27.893  0.0900 -0.0331 -0.1392
42222W        W85316  11.169  13.159  28.579 -0.0887  0.3821  0.2866
42223W        W85317   9.470  10.666  29.768  0.0621 -0.1144 -0.1458
42224W        W85318  10.651  11.925  31.084 -0.2066 -0.3422  0.1053
42225W        W85319   7.429  13.915  28.771  0.4122 -0.2058  0.0190
42226W        W85320   9.879  13.552  28.443 -0.2495  0.1258 -0.0856
42227W        W85321   9.975  12.504  30.612 -0.0319 -0.2284  0.0888
42228W        W85322   8.528  11.860  31.865 -0.2056  0.2447 -0.3690
42229W        W85323   8.761  12.078  26.312  0.1118  0.0549  0.0080
42230W        W85324  10.898  14.174  30.116 -0.2091  0.0519  0.0257
42231W        W85325   9.346  12.107  26.846 -0.0976  0.3529 -0.0931
42232W        W85326   9.438  13.639  30.365 -0.0524 -0.0023 -0.0774
42233W        W85327   7.168  13.363  28.869  0.0315  0.1052 -0.3590
42234W        W85328  10.693  11.560  27.836  0.0634 -0.0290 -0.4278
42235W        W85329   9.029  10.734  29.154  0.0086  0.1678 -0.3317
42236W        W85330   7.619  12.206  31.080  0.0529  0.1878  0.3833
42237W        W85331  10.644  13.556  31.595 -0.1045 -0.1269 -0.1802
42238W        W85332   6.360  10.619  28.463 -0.1140  0.2286  0.2402
42239W        W85333  11.767  13.972  26.709  0.0205 -0.1989  0.0441
42240W        W85334  10.753  11.803  28.796  0.0970 -0.0980  0.2362
42241W        W85335   7.605  15.115  28.397 -0.2040  0.1499 -0.1092
42242W        W85336   9.159  12.869  29.424 -0.1501 -0.3914 -0.0550
42243W        W85337   9.333  14.350  27.741 -0.1219 -0.0051 -0.0435
42244W        W85338   6.867  13.157  29.295 -0.0200  0.1462  0.2211
42245W        W85339   9.852  13.482  29.547  0.1328 -0.0088 -0.2916
42246W        W85340  10.289  13.200  30.570 -0.2728  0.0412  0.0338
42247W        W85341   9.647  12.835  29.667  0.5402 -0.1480  0.2917
42248W        W85342   9.388  11.599  28.904 -0.0731 -0.1120  0.1422
42249W        W85343   6.886  14.962  29.995 -0.1617 -0.0588 -0.0131
42250W        W85344   9.641  11.166  31.924 -0.2402  0.1058 -0.3467
42251W        W85345   9.396  11.497  30.096  0.2750 -0.1144 -0.1655
42252W        W85346  10.301  13.825  27.681 -0.2638  0.4098 -0.1122
42253W        W85347   9.960  11.514   0.261 -0.2826  0.1090 -0.0435
42254W        W85348   9.096  13.367  30.160  0.0415 -0.0656 -0.1890
42255W        W85349   6.825  14.467   0.060 -0.0599 -0.2362  0.1660
42256W        W85350   8.082  14.357  27.332  0.0213  0.0452 -0.2201
42257W        W85351   8.151  13.760  29.299  0.0585  0.0882 -0.0858
42258W        W85352   8.121  15.023  28.290 -0.1275 -0.0940 -0.0383
42259W        W85353   9.188  15.760  29.639 -0.0271  0.2021  0.0106
42260W        W85354  10.397  13.222  31.125  0.0604 -0.0295  0.1734
42261W        W85355   8.321  12.687  28.697 -0.0258  0.0113  0.3718
42262W        W85356  10.791  13.052  28.875  0.0906 -0.2074  0.0274
42263W        W85357   9.394  11.562  28.356  0.0152 -0.2396 -0.0160
42264W        W85358  10.315  11.975  28.040  0.0768 -0.4246 -0.1827
42265W        W85359   9.781  10.352  26.784  0.1677  0.0850  0.3006
42266W        W85360   6.774  14.139  30.893 -0.0768  0.3676 -0.0864
42267W        W85361   6.649  13.259  28.841  0.1082  0.1097  0.1370
42268W        W85362   7.719  14.209  27.841 -0.2100  0.2114  0.1976
42269W        W85363   6.372  13.110  29.349 -0.0604 -0.1798 -0.1186
42270W        W85364   9.287  10.460  30.508  0.1131 -0.5092 -0.0521
42271W        W85365   8.913   9.399  29.238 -0.1680 -0.1138  0.0850
42272W        W85366   9.061  12.002  28.833 -0.0465  0.0774 -0.2906
42273W        W85367   8.165  11.444  28.195 -0.0775  0.0771 -0.1446
42274W        W85368  10.788  14.054  29.110 -0.2503  0.1836  0.4203
42275W        W85369   6.765  12.758  29.033  0.4306  0.0416 -0.0630
42276W        W85370   6.809  11.336  28.438 -0.2843  0.2859 -0.2439
42277W        W85371   9.841  13.494  28.953 -0.1750 -0.0928 -0.0352
42278W        W85372  11.634  13.476  28.156 -0.1424 -0.1500  0.0385
42279W        W85373   8.967  11.739  30.072  0.1777 -0.0239  0.0505
42280W        W85374  11.096  14.379  29.407 -0.3607  0.4308 -0.1175
42281W        W85375   7.338  12.743  28.086  0.1901 -0.2312  0.3542
42282W        W85376   8.913  11.397  30.444 -0.3924  0.1856 -0.1111
42283W        W85377   8.071  11.309  30.936  0.1924 -0.1103 -0.0311
42284W        W85378   6.900  13.716  28.695  0.1488 -0.3041 -0.1304
42285W        W85379   9.301  12.131  30.134  0.0798 -0.0955 -0.0658
42286W        W85380   9.924  14.411  28.298 -0.2332  0.3235 -0.0127
42287W        W85381  10.083  15.480  27.846  0.0168 -0.2137  0.1415
42288W        W85382   7.269  13.204  30.697 -0.0183 -0.0703 -0.0794
42289W        W85383   7.874  12.969  30.077 -0.1194 -0.0781  0.4072
42290W        W85384   6.563   9.714  30.471 -0.0841 -0.1987  0.0600
42291W        W85385  11.105  13.499  28.068 -0.0217 -0.1481 -0.2294
42292W        W85386   9.033  12.347  29.205 -0.1333  0.2095 -0.2230
42293W        W85387  11.216  14.435  27.854 -0.1046 -0.1566  0.0050
42294W        W85388  11.208  11.077  28.176 -0.1532 -0.0086  0.1172
42295W        W85389   9.302  12.948  28.443 -0.3190  0.1165 -0.2622
42296W        W85390   8.345  11.765  30.532 -0.0154 -0.0816  0.1168
42297W        W85391   7.248  13.295  31.586  0.0660  0.0180 -0.1091
42298W        W85392   9.592  13.881  29.359  0.0578  0.1917  0.0152
42299W        W85393   9.917  12.498  28.842  0.3929 -0.1547 -0.3029
42300W        W85394   9.740  11.806  27.205  0.0351 -0.0731  0.4916
42301W        W85395   9.837  15.202  29.212 -0.2207 -0.0978 -0.0527
42302W        W85396   9.328  10.982  29.462  0.0012  0.0746  0.0258
42303W        W85397   8.899  11.939  28.372  0.1974  0.1241  0.3054
42304W        W85398   8.331  12.886  30.764 -0.4525 -0.0786 -0.0089
42305W        W85399   9.135  14.078  28.126 -0.1727  0.0368  0.0883
42306W        W85400   9.472  13.930  31.321 -0.1005 -0.1316 -0.2465
42307W        W85401   7.799  13.599  27.314 -0.0172 -0.1553  0.2334
42308W        W85402  10.990  13.341  26.904 -0.0220 -0.2005 -0.0695
42309W        W85403   8.899  13.765  28.444 -0.0155 -0.0825 -0.0116
42310W        W85404  10.976  15.067  29.928 -0.0051 -0.0312 -0.0723
42311W        W85405   8.383  13.364  29.520 -0.0329 -0.0367 -0.3784
42312W        W85406  10.665  13.293  30.257 -0.0458 -0.0199  0.0623
42313W        W85407   8.393  10.546  31.010 -0.2872  0.1676  0.1337
42314W        W85408   7.948  13.712  28.818 -0.2255  0.1328 -0.0666
42315W        W85409   8.298  13.635  27.212 -0.0024 -0.0369 -0.1673
42316W        W85410  10.582  11.583  29.293 -0.2046  0.0892 -0.2016
42317W        W85411   8.730  13.249  30.993  0.0133 -0.2989  0.0199
42318W        W85412   9.546   9.833  28.281  0.2095  0.2373 -0.1449
42319W        W85413   7.427  14.566  31.287 -0.0419 -0.1851  0.3129
42320W        W85414   8.542  12.405  28.165  0.1420 -0.1893 -0.2750
42321W        W85415  10.019  10.743  31.287  0.0319  0.1227 -0.2298
42322W        W85416   9.527  12.564  30.173  0.4008 -0.2028 -0.1671
42323W        W85417   7.345  11.509  31.253 -0.2690 -0.2450 -0.1346
42324W        W85418   6.480  12.183  31.471 -0.1343  0.0711  0.0742
42325W        W85419   9.109  14.455  30.695  0.1385 -0.0812 -0.2067
42326W        W85420   6.703  12.938  31.844 -0.2439  0.1829 -0.2281
42327W        W85421   8.716  12.097  30.934 -0.2460  0.1281  0.0492
42328W        W85422   9.436  11.529  31.161  0.1072  0.1084  0.1592
42329W        W85423  10.669  11.932   0.447 -0.2933 -0.2212 -0.1360
42330W        W85424  11.121  15.437  30.851  0.0158  0.1159 -0.0453
42331W        W85425   9.319  13.292  31.285 -0.0477  0.0104  0.2010
42332W        W85426   9.424   9.398  31.744 -0.1171 -0.0670  0.1529
42333W        W85427   9.878  13.299  31.323 -0.0944 -0.0774  0.2156
42334W        W85428   6.935  10.262  31.721  0.2107 -0.1171 -0.2396
42335W        W85429  10.141  11.028  30.465 -0.0864  0.0151  0.3187
42336W        W85430   7.204  13.088   1.242  0.0254  0.2364 -0.2095
42337W        W85431   7.473  11.654  29.349 -0.0066 -0.1200 -0.2935
42338W        W85432   9.968  14.988  30.255  0.0012  0.1285 -0.1187
42339W        W85433   8.692  11.291  29.979  0.2493  0.1276  0.1496
42340W        W85434   6.387  10.956   0.278 -0.0120  0.0521 -0.0002
42341W        W85435   9.852   9.530   0.139  0.0760  0.2275  0.1990
42342W        W85436   7.851  14.739   1.541  0.0247 -0.4578 -0.0811
42343W        W85437   9.869   9.712  31.518 -0.1526  0.2891 -0.1720
42344W        W85438   8.918  10.570  30.888  0.2366  0.0923  0.1656
42345W        W85439   9.373  11.074  31.351  0.0200  0.1550 -0.5762
42346W        W85440   8.915  10.840  31.425 -0.0803 -0.1089 -0.2552
42347W        W85441   7.593  10.500  31.700  0.1618  0.2103  0.0338
42348W        W85442   7.511  15.962  31.092 -0.2099  0.1478  0.2203
42349W        W85443   7.915  10.511  31.281 -0.0365  0.0595 -0.0922
42350W        W85444   8.480  12.536  31.063  0.3049  0.0630 -0.0610
42351W        W85445   7.946  13.720   0.652  0.2042  0.1350  0.1899
42352W        W85446   8.501  10.686  31.707 -0.1432 -0.1594 -0.1116
42353W        W85447   9.234  12.574  31.643  0.0534 -0.1116 -0.1990
42354W        W85448   9.882  13.170  31.803  0.2760  0.0550 -0.1800
42355W        W85449   8.075  12.493  30.345  0.1069  0.2045  0.1686
42356W        W85450   8.033  13.769  30.403  0.2967  0.0348 -0.3521
42357W        W85451   9.133  12.966   0.368 -0.0040 -0.4657  0.2669
42358W        W85452   9.402  13.142  31.757  0.0793 -0.2190  0.0032
42359W        W85453   9.228  12.007  31.053  0.0323 -0.0509  0.0008
42360W        W85454   9.835  13.209  30.801  0.0075  0.0298  0.0888
42361W        W85455  11.980  12.495  31.770  0.1509  0.1159 -0.0210
42362W        W85456   8.574  12.529  31.612 -0.1078  0.2328 -0.2907
42363W        W85457   8.933  11.474  31.429 -0.0649 -0.0345  0.1534
42364W        W85458   8.608  14.572  31.581  0.3676 -0.2774  0.0826
42365W        W85459   8.666  10.330  30.514 -0.0493 -0.2066 -0.0310
42366W        W85460   8.109  10.356   0.323  0.1712 -0.0602  0.2540
42367W        W85461  10.075  10.069  31.273 -0.2707 -0.1392 -0.0685
42368W        W85462   8.927  13.607  30.671 -0.1198 -0.0571  0.0148
42369W        W85463   9.069  13.480   0.065  0.0100 -0.0949  0.1759
42370W        W85464   5.869  14.098  31.596  0.1543 -0.1213 -0.2383
42371W        W85465  10.649  12.815  31.250 -0.0633 -0.0001 -0.3215
42372W        W85466  10.293  10.961  30.961 -0.2744 -0.0872 -0.2574
42373W        W85467   9.627  10.748  31.635  0.1741  0.2591  0.1992
42374W        W85468   8.890  12.005  29.626  0.0989  0.2060  0.1114
42375W        W85469   7.756  10.638   0.180 -0.1211 -0.0603 -0.0984
42376W        W85470  10.054  12.288  31.745  0.0415  0.0372 -0.0263
42377W        W85471  10.657  13.072  31.725 -0.0811  0.4552 -0.2616
42378W        W85472   9.474  14.524  30.987  0.0482  0.2351 -0.0123
42379W        W85473   7.555  12.275  30.138 -0.4559  0.0576  0.0763
42380W        W85474   5.620  11.212   0.363 -0.2075 -0.3231  0.2019
42381W        W85475   7.026  12.135   0.520 -0.1291 -0.4776 -0.2148
42382W        W85476   8.182  14.031  30.864 -0.0260 -0.1681 -0.2965
42383W        W85477   7.367  14.007  31.408 -0.0172  0.1869 -0.2261
42384W        W85478   7.480  10.976  31.567 -0.1914 -0.1363 -0.0848
42385W        W85479  10.786  14.002  31.473 -0.0905  0.1868 -0.3259
42386W        W85480   9.604  12.288  30.921  0.1105 -0.1875 -0.1797
42387W        W85481  11.120  12.762  31.547  0.2266  0.2671 -0.1050
42388W        W85482   7.226  16.163  18.837  0.3182 -0.1725  0.1957
42389W        W85483   7.722  14.989  17.281  0.2832  0.0438 -0.0927
42390W        W85484   8.836  14.206  17.040 -0.1040 -0.1587 -0.1093
42391W        W85485  10.862  15.590  16.278  0.0995  0.1882 -0.0377
42392W        W85486   6.265  14.901  18.167  0.1789  0.2715  0.2926
42393W        W85487   8.790  17.831  16.940 -0.0435 -0.0916  0.3234
42394W        W85488   7.769  13.380  20.325 -0.0489 -0.0557  0.1346
42395W        W85489  10.307  17.294  17.728  0.0777  0.0612  0.0601
42396W        W85490   8.814  18.427  19.054 -0.3775  0.1744  0.1036
42397W        W85491   9.074  18.207  16.086  0.0327 -0.4851 -0.1734
42398W        W85492   7.591  16.362  19.185 -0.2036 -0.1546  0.1111
42399W        W85493   7.473  17.706  18.088 -0.3151 -0.3316  0.2012
42400W        W85494   7.165  14.801  19.005 -0.1921 -0.1146  0.2724
42401W        W85495   5.791  15.962  17.109 -0.1423 -0.0936  0.1680
42402W        W85496   8.402  15.505  17.873  0.0286 -0.1358 -0.0849
42403W        W85497   8.594  16.092  16.748  0.1431  0.1566  0.1476
42404W        W85498   7.074  15.419  17.862 -0.1170  0.2179  0.1985
42405W        W85499   9.118  14.990  17.343  0.0993  0.2070  0.0900
42406W        W85500   9.275  18.250  17.633 -0.1700  0.0507 -0.2884
42407W        W85501   7.592  15.717  19.168  0.4280 -0.1722  0.1527
42408W        W85502   8.939  14.010  20.444 -0.2239  0.0489 -0.0923
42409W        W85503   9.295  17.851  16.921  0.1193  0.0287  0.0670
42410W        W85504   5.672  14.192  16.559  0.1533 -0.1805  0.0532
42411W        W85505   7.517  15.929  18.296  0.2500 -0.0791 -0.0328
42412W        W85506   7.869  15.877  17.554  0.0670 -0.2162  0.4675
42413W        W85507  10.489  15.334  18.387  0.1682 -0.0901 -0.3129
42414W        W85508   9.001  16.783  17.776 -0.0665  0.0649 -0.2938
42415W        W85509   7.337  18.700  18.184 -0.1771 -0.0587 -0.0602
42416W        W85510   8.532  16.501  17.764  0.1681 -0.3871  0.0136
42417W        W85511   8.016  15.017  20.251  0.0087 -0.2344 -0.2465
42418W        W85512   7.595  16.485  17.055  0.0300 -0.2287 -0.0616
42419W        W85513   6.073  19.216  17.677  0.2439  0.2336  0.0164
42420W        W85514   8.267  18.031  17.099  0.1013 -0.4509 -0.0199
42421W        W85515  10.264  15.586  17.436  0.0207 -0.0373  0.3010
42422W        W85516   9.106  18.236  17.128 -0.0727 -0.0519 -0.1210
42423W        W85517   8.233  18.443  19.307 -0.2855  0.1632 -0.0403
42424W        W85518   6.877  17.812  15.866  0.2261  0.0714  0.2263
42425W        W85519   8.214  18.595  18.140  0.3044 -0.1036 -0.1457
42426W        W85520   8.032  16.912  18.978 -0.2871 -0.2263  0.2231
42427W        W85521   6.990  17.125  19.093 -0.0503 -0.0335 -0.0936
42428W        W85522   8.680  15.244  18.276  0.3008 -0.0399 -0.1846
42429W        W85523   8.155  16.979  16.863  0.1338 -0.3324 -0.0196
42430W        W85524   7.668  16.651  17.537 -0.0697  0.3931  0.0882
42431W        W85525   7.680  16.306  20.678 -0.1020  0.2216  0.0249
42432W        W85526   5.653  18.170  18.696  0.2722 -0.2906  0.3190
42433W        W85527  10.373  16.253  18.631 -0.0480  0.0850  0.0843
42434W        W85528   7.518  18.410  16.064  0.2894  0.2574 -0.2382
42435W        W85529   8.738  15.442  16.036 -0.2059 -0.0479 -0.0234
42436W        W85530   8.150  14.648  16.825  0.1873  0.2262  0.1251
42437W        W85531  10.239  15.646  16.036  0.3173 -0.0011  0.2589
42438W        W85532   8.595  13.710  17.911  0.0401  0.4075  0.0658
42439W        W85533   7.745  17.171  17.655  0.1848  0.0474 -0.1979
42440W        W85534   6.472  14.532  18.568 -0.1438  0.2118  0.1928
42441W        W85535   8.482  15.978  19.394 -0.2706  0.0667  0.0347
42442W        W85536   9.969  15.820  16.514  0.1123  0.0258 -0.0335
42443W        W85537   8.926  16.118  18.611 -0.0632  0.4621 -0.3763
42444W        W85538   5.673  16.616  18.265  0.2343  0.1358  0.2336
42445W        W85539   8.097  16.557  17.102  0.0145 -0.3474  0.0911
42446W        W85540   9.963  18.329  15.867 -0.0788  0.1590 -0.0564
42447W        W85541  10.676  18.315  16.493  0.0555  0.1182  0.0407
42448W        W85542   9.821  17.236  15.683  0.1829  0.0038  0.0967
42449W        W85543   6.541  16.562  16.397 -0.3160  0.0768  0.1446
42450W        W85544   6.726  16.200  19.130  0.2216  0.2741  0.2024
42451W        W85545   6.867  16.416  17.958  0.0550  0.0477 -0.4661
42452W        W85546   8.243  16.004  16.417 -0.0854  0.2190  0.3842
42453W        W85547   9.989  16.831  19.499 -0.2026  0.1902  0.1630
42454W        W85548   6.677  18.851  18.020  0.3468 -0.0646 -0.1626
42455W        W85549  11.384  15.636  16.535 -0.1665 -0.0839  0.0373
42456W        W85550   8.077  16.341  17.572  0.3476  0.0391 -0.1919
42457W        W85551  10.191  16.627  19.005  0.1794 -0.1072  0.1521
42458W        W85552   9.406  16.608  16.144  0.0086  0.3883  0.2971
42459W        W85553   8.837  14.896  17.867 -0.0698  0.3908  0.1816
42460W        W85554   9.352  15.847  17.408 -0.0222  0.0588 -0.1586
42461W        W85555   8.935  16.373  17.045 -0.3429  0.0579 -0.0291
42462W        W85556   8.513  16.784  16.254  0.0041  0.4317  0.1338
42463W        W85557   9.858  17.001  17.776  0.0829 -0.2895 -0.0397
42464W        W85558  10.804  15.186  15.384  0.1562 -0.0688 -0.0075
42465W        W85559   6.578  18.588  17.304 -0.0805 -0.2435  0.0326
42466W        W85560   8.445  16.698  19.021  0.0096 -0.1083  0.1852
42467W        W85561   7.729  17.334  19.102 -0.1641 -0.0509  0.3145
42468W        W85562   8.229  18.802  15.724 -0.3446  0.0115  0.0410
42469W        W85563   6.635  17.131  16.761 -0.3564 -0.0545  0.3072
42470W        W85564   7.821  17.534  15.797  0.1551 -0.1774  0.0976
42471W        W85565   6.142  14.108  18.749  0.0644  0.3285  0.0152
42472W        W85566   6.902  17.217  18.575  0.2757 -0.1359 -0.1811
42473W        W85567  11.139  14.482  16.905  0.3769 -0.1329  0.1165
42474W        W85568   7.637  15.194  20.040  0.0647 -0.1212 -0.2262
42475W        W85569  10.024  14.605  17.156  0.4738 -0.1109 -0.3015
42476W        W85570   8.963  17.084  16.278  0.1302 -0.3205 -0.3663
42477W        W85571   9.111  18.200  16.614  0.0311  0.0077  0.3526
42478W        W85572  11.679  15.380  16.160 -0.2624 -0.0969  0.2486
42479W        W85573   9.541  17.197  16.384 -0.4612  0.1955 -0.0472
42480W        W85574   7.021  14.548  17.870 -0.2260 -0.0710  0.1197
42481W        W85575   6.925  16.142  17.549  0.0672  0.0334  0.1290
42482W        W85576   7.410  15.257  19.012 -0.1265  0.0798 -0.0760
42483W        W85577   6.501  14.041  18.421 -0.0784 -0.1138 -0.3151
42484W        W85578   9.750  15.318  19.539  0.0365 -0.0073  0.0180
42485W        W85579   7.790  15.137  16.791 -0.1013 -0.1391  0.2383
42486W        W85580   9.415  15.761  16.483 -0.0100  0.1898 -0.2969
42487W        W85581   8.502  16.289  18.337  0.5387  0.1719 -0.0090
42488W        W85582   8.867  16.922  16.886  0.1628  0.0033  0.1517
42489W        W85583   7.951  15.298  19.163  0.1002  0.0805 -0.2936
42490W        W85584   9.675  17.565  16.060 -0.1017  0.0739 -0.2383
42491W        W85585  10.547  19.285  18.073  0.2398 -0.3311 -0.0349
42492W        W85586   9.528  18.511  16.424  0.1718 -0.0951  0.0775
42493W        W85587   6.200  16.891  17.578  0.0801 -0.3395  0.0144
42494W        W85588   8.882  14.588  17.365  0.3376 -0.0873  0.0927
42495W        W85589   7.834  18.843  17.443  0.1623  0.0117 -0.1174
42496W        W85590   6.605  18.115  17.433  0.0181  0.4274 -0.1318
42497W        W85591   8.871  15.885  17.137 -0.1047 -0.0101 -0.3577
42498W        W85592   9.463  17.861  18.060  0.0284 -0.4989  0.0039
42499W        W85593   8.713  17.526  16.142  0.0491 -0.0626 -0.1595
42500W        W85594   6.180  16.738  18.066 -0.0351 -0.1581  0.1396
42501W        W85595   7.221  14.913  19.897 -0.2549  0.0357  0.0339
42502W        W85596   8.770  16.602  18.664 -0.4590 -0.4287 -0.0501
42503W        W85597   7.023  16.357  17.118  0.3500  0.0143  0.1529
42504W        W85598   8.736  14.925  16.531 -0.1864 -0.0354 -0.1351
42505W        W85599   9.860  17.562  16.940  0.2136 -0.3831  0.0991
42506W        W85600   7.039  17.861  16.327  0.2526 -0.0767 -0.0690
42507W        W85601   6.846  16.697  16.804  0.2725 -0.0790  0.3659
42508W        W85602   8.382  15.663  17.402  0.1756 -0.3805  0.0294
42509W        W85603   9.851  13.280  17.200 -0.1915 -0.0542  0.1068
42510W        W85604   7.364  16.508  20.106 -0.1114 -0.0828 -0.2806
42511W        W85605   8.462  14.325  21.116  0.3087 -0.2125 -0.0262
42512W        W85606   6.853  14.637  17.275 -0.0338 -0.4306  0.0240
42513W        W85607   6.724  17.529  18.947 -0.0293  0.4078 -0.2354
42514W        W85608   9.255  14.361  16.592 -0.0971 -0.2066 -0.2717
42515W        W85609   9.665  15.990  16.092  0.3951  0.1071  0.1657
42516W        W85610   8.851  18.722  20.291 -0.1900  0.0939 -0.3445
42517W        W85611   9.763  16.512  17.022 -0.2956 -0.2665  0.2947
42518W        W85612   9.383  15.479  16.939  0.1456  0.2229 -0.1756
42519W        W85613   9.403  14.708  15.776 -0.1688  0.2222 -0.0976
42520W        W85614   7.222  16.096  19.388 -0.1889 -0.0019  0.2032
42521W        W85615   8.833  16.483  16.442  0.0589  0.0772  0.1375
42522W        W85616   6.879  17.248  17.813 -0.0762  0.0520  0.0408
42523W        W85617   8.603  14.428  16.670 -0.1572  0.3069  0.0289
42524W        W85618  10.047  17.930  17.155  0.1745 -0.0384  0.1977
42525W        W85619   6.853  16.981  17.340 -0.1818  0.0343 -0.2787
42526W        W85620   8.267  17.609  19.848  0.1207  0.2668  0.1815
42527W        W85621   9.445  17.401  17.207  0.1375  0.1674 -0.1197
42528W        W85622   7.642  15.133  20.589  0.0490 -0.1354 -0.0207
42529W        W85623   8.500  16.616  16.785 -0.3187  0.0729 -0.1047
42530W        W85624   9.527  15.141  19.105  0.0372 -0.1257 -0.1407
42531W        W85625   6.344  18.272  16.461 -0.2438  0.1313  0.2139
42532W        W85626   9.789  15.586  19.102 -0.4743  0.0386  0.0401
42533W        W85627   7.517  16.585  18.775 -0.0033  0.1766  0.0425
42534W        W85628   8.116  15.988  18.364 -0.0901 -0.2943  0.1823
42535W        W85629   9.324  15.594  19.354 -0.0137 -0.1830  0.0774
42536W        W85630  11.206  15.196  16.164  0.3408 -0.0553 -0.1459
42537W        W85631   8.105  15.506  18.330  0.0391 -0.0793  0.1881
42538W        W85632   7.079  15.862  16.891  0.0203 -0.0996  0.3021
42539W        W85633   9.257  14.568  17.689  0.2003  0.1693 -0.1384
42540W        W85634   6.401  15.717  19.760  0.2895 -0.0407  0.1782
42541W        W85635   7.170  16.351  18.380 -0.1698  0.0146  0.1673
42542W        W85636  10.220  17.396  18.618  0.1329 -0.2584  0.1577
42543W        W85637   9.099  16.340  17.493 -0.3737  0.0736  0.0050
42544W        W85638   8.657  15.177  19.828 -0.0196  0.2445 -0.0043
42545W        W85639   8.928  15.382  17.817  0.0861 -0.1382  0.0491
42546W        W85640   8.104  18.588  16.154  0.1187  0.0869 -0.1689
42547W        W85641   9.130  17.507  15.902  0.1269  0.0702 -0.0462
42548W        W85642   6.909  15.028  19.488 -0.3243 -0.1181  0.0114
42549W        W85643   6.765  16.798  18.353 -0.0961 -0.0986 -0.2030
42550W        W85644   9.281  17.638  16.408 -0.3005 -0.0047  0.0381
42551W        W85645   8.587  17.567  18.519  0.1018  0.2694 -0.0877
42552W        W85646   7.779  18.749  16.519 -0.1714  0.0505  0.0748
42553W        W85647   8.207  14.732  17.349  0.3038  0.3126  0.1320
42554W        W85648   6.526  18.977  17.572 -0.3071 -0.2465 -0.2985
42555W        W85649   7.825  15.488  15.919  0.4350  0.0219  0.4913
42556W        W85650   6.510  17.617  17.720 -0.4288 -0.0774 -0.0261
42557W        W85651  10.417  15.827  16.684  0.1289  0.1376 -0.0866
42558W        W85652   9.599  16.252  16.507  0.3332 -0.1260  0.1048
42559W        W85653   6.400  15.228  19.587  0.0460  0.1836  0.0848
42560W        W85654   7.696  14.695  19.863 -0.1038 -0.0901  0.2526
42561W        W85655   6.094  17.693  18.177  0.2106 -0.0278 -0.0994
42562W        W85656   7.254  17.613  18.919 -0.1929 -0.0570 -0.3118
42563W        W85657   9.186  15.286  16.415  0.0854 -0.0034  0.0792
42564W        W85658  10.513  17.149  18.302  0.0199 -0.3518  0.1810
42565W        W85659   6.821  15.967  19.692  0.2754  0.0555  0.1878
42566W        W85660   6.076  14.353  18.271  0.2586  0.1047  0.0188
42567W        W85661   9.717  16.696  18.244  0.1385 -0.0879 -0.0571
42568W        W85662   7.209  14.991  18.135 -0.0308  0.1579  0.0673
42569W        W85663   6.764  17.482  17.287  0.2999 -0.1410 -0.1882
42570W        W85664   7.920  18.228  18.051 -0.5702 -0.2401 -0.1936
42571W        W85665   8.003  15.441  16.354  0.2609  0.1422  0.1351
42572W        W85666   7.328  17.259  17.390  0.3518  0.1956 -0.0683
42573W        W85667   6.933  16.451  19.696  0.0474  0.1401 -0.0807
42574W        W85668   8.768  17.126  18.968  0.2054  0.3034 -0.1563
42575W        W85669   7.982  14.748  17.845 -0.1117 -0.1006  0.0857
42576W        W85670   8.239  15.108  18.069 -0.0297  0.1001  0.2473
42577W        W85671   9.011  16.715  19.078 -0.1716 -0.0435  0.0315
42578W        W85672   8.920  17.316  17.252 -0.0730  0.1261 -0.0404
42579W        W85673   8.256  17.186  18.129  0.0553 -0.2488  0.0949
42580W        W85674   6.657  15.591  18.764 -0.4653 -0.1051  0.3169
42581W        W85675   9.371  15.067  17.824  0.1095 -0.1889  0.0640
42582W        W85676  10.626  17.827  15.375 -0.0284 -0.1054 -0.1732
42583W        W85677   8.827  15.481  19.436  0.1441  0.1221 -0.0661
42584W        W85678   7.961  16.352  16.277 -0.0974  0.1794 -0.1596
42585W        W85679   4.634  18.260  19.149  0.0534  0.1559  0.1173
42586W        W85680   8.949  17.403  16.732 -0.2270  0.0426 -0.0205
42587W        W85681   7.817  15.592  17.944  0.1664  0.2510 -0.1976
42588W        W85682   6.091  17.552  19.146 -0.4384  0.0502 -0.1632
42589W        W85683   8.845  16.681  15.916 -0.1937 -0.1268 -0.4041
42590W        W85684   5.917  17.103  18.410  0.0096 -0.0105  0.2722
42591W        W85685  10.683  14.697  15.963 -0.0054 -0.1878  0.0135
42592W        W85686   9.192  16.359  15.717 -0.0026 -0.0050 -0.0775
42593W        W85687   8.139  15.709  18.939 -0.1014 -0.1459 -0.1112
42594W        W85688   9.404  14.810  18.616 -0.0732  0.0313  0.0918
42595W        W85689   9.236  16.707  17.231  0.1615  0.1310 -0.1055
42596W        W85690   9.560  15.576  19.884  0.1417 -0.1774  0.2233
42597W        W85691   7.470  14.413  18.612 -0.1604 -0.3419  0.2618
42598W        W85692  10.145  17.464  15.993 -0.2461  0.0547 -0.0852
42599W        W85693   7.454  16.232  17.465  0.1596 -0.0453 -0.0459
42600W        W85694   7.641  18.020  18.487  0.2339 -0.0374  0.1808
42601W        W85695   7.267  17.000  20.008 -0.2860  0.0800  0.0795
42602W        W85696   9.673  15.475  16.087 -0.1882  0.0651  0.1691
42603W        W85697   8.833  15.330  16.865 -0.1731  0.1242  0.0463
42604W        W85698   6.981  15.895  18.118  0.0269  0.1809  0.0824
42605W        W85699  11.079  18.468  18.462 -0.3427 -0.3418  0.1279
42606W        W85700   9.148  16.164  16.685  0.0916  0.2282 -0.1726
42607W        W85701  10.043  16.527  17.724 -0.2735  0.0831 -0.0825
42608W        W85702   7.835  17.755  17.308 -0.2345  0.0760  0.0930
42609W        W85703  10.318  15.407  16.476  0.2256 -0.2626 -0.0641
42610W        W85704   8.487  17.199  16.489 -0.2062  0.0898 -0.2430
42611W        W85705   7.116  17.277  16.586  0.1033  0.2342  0.0428
42612W        W85706   7.292  15.490  19.498  0.2730  0.0475 -0.3332
42613W        W85707   9.311  16.603  16.696 -0.0970 -0.1232 -0.0926
42614W        W85708  10.087  15.043  17.400  0.2644 -0.0139 -0.1041
42615W        W85709  10.692  15.295  19.015  0.0158  0.1005  0.0857
42616W        W85710   8.152  16.850  17.607  0.1968 -0.1150 -0.0170
42617W        W85711   8.181  16.280  19.116 -0.1291 -0.1684  0.0819
42618W        W85712   7.087  15.734  19.078  0.0176 -0.0910 -0.1087
42619W        W85713   9.943  17.946  18.125  0.3884  0.5068 -0.1039
42620W        W85714  10.321  15.391  15.605 -0.0162  0.0192 -0.3123
42621W        W85715  11.535  16.430  17.281 -0.3569 -0.1457 -0.1414
42622W        W85716  10.794  16.284  18.239  0.1663 -0.4515  0.0790
42623W        W85717   9.374  16.118  17.817 -0.0156 -0.2106 -0.3774
42624W        W85718   8.086  14.058  17.702  0.0158 -0.1372  0.2503
42625W        W85719   8.870  15.777  19.073 -0.1878  0.2026 -0.0280
42626W        W85720   9.600  16.010  16.951 -0.0587 -0.1890 -0.2109
42627W        W85721   8.828  14.901  18.766  0.0035  0.1401 -0.3541
42628W        W85722  10.019  17.248  16.420  0.2755 -0.2583 -0.0498
42629W        W85723   9.752  18.111  17.702 -0.1713 -0.1917 -0.0798
42630W        W85724   9.483  16.651  17.690  0.1890  0.2563  0.0369
42631W        W85725   8.379  14.302  17.167 -0.0801  0.0501 -0.2731
42632W        W85726   5.961  18.037  19.226 -0.1462  0.2354 -0.3850
42633W        W85727   7.417  15.432  16.911 -0.0871 -0.1732 -0.0525
42634W        W85728   9.164  16.176  16.188 -0.0312 -0.2142 -0.1725
42635W        W85729   8.180  17.318  17.386 -0.1862  0.2210  0.0634
42636W        W85730   9.045  15.798  18.120 -0.3358 -0.3779 -0.0952
42637W        W85731   8.485  13.949  16.319 -0.2320 -0.1627  0.0047
42638W        W85732   9.707  16.488  20.845  0.1922  0.0224  0.3659
42639W        W85733   8.109  19.078  16.197 -0.0111 -0.1565  0.2107
42640W        W85734   9.563  15.057  16.865  0.2668  0.2745 -0.0999
42641W        W85735   7.304  18.204  19.146 -0.2651  0.2436 -0.0838
42642W        W85736   6.348  15.847  19.210  0.0322 -0.0196  0.1083
42643W        W85737   7.199  17.941  16.903 -0.1008 -0.0438 -0.0664
42644W        W85738   8.479  14.730  19.586  0.1441 -0.0478  0.0723
42645W        W85739  10.079  15.011  16.751  0.0999 -0.0921  0.0021
42646W        W85740   7.099  15.139  18.593  0.1565 -0.0031  0.1423
42647W        W85741   9.718  16.192  19.087  0.2035 -0.1423  0.2481
42648W        W85742   9.743  17.341  18.875  0.0050 -0.0194  0.2400
42649W        W85743   7.731  16.994  17.200 -0.0115 -0.1486  0.1431
42650W        W85744   8.537  17.619  17.921 -0.1118 -0.0213 -0.2541
42651W        W85745   8.884  15.592  18.570  0.1664  0.0948  0.1470
42652W        W85746   7.294  16.997  17.827  0.0613 -0.1014  0.0273
42653W        W85747   6.456  15.863  18.183 -0.0056  0.0274  0.3963
42654W        W85748   8.779  16.280  19.138 -0.0347  0.0199  0.0574
42655W        W85749   9.366  16.263  18.261  0.2492 -0.3319 -0.1734
42656W        W85750   7.324  13.834  18.714 -0.0171  0.1531 -0.1889
42657W        W85751   9.650  18.259  15.389 -0.4637 -0.2290 -0.0574
42658W        W85752   6.956  17.699  19.437 -0.0771  0.0432  0.0559
42659W        W85753   6.443  17.586  19.561  0.2524 -0.1876  0.2020
42660W        W85754   7.090  19.486  16.627  0.1466 -0.0266 -0.0819
42661W        W85755  10.412  17.191  16.746  0.0048 -0.1238  0.1463
42662W        W85756   8.560  16.179  17.363 -0.0792 -0.2774  0.0846
42663W        W85757   8.439  16.955  18.546 -0.2923 -0.0719 -0.1607
42664W        W85758   8.628  14.828  16.989  0.1515 -0.1347 -0.1341
42665W        W85759   5.719  19.049  17.250  0.0719 -0.0888  0.1047
42666W        W85760   6.457  18.477  18.344 -0.2047  0.2089 -0.1198
42667W        W85761   9.314  17.954  15.688 -0.0413 -0.1724 -0.0759
42668W        W85762   7.493  18.499  17.533 -0.0181  0.0932  0.1273
42669W        W85763  11.251  17.135  19.123  0.0785  0.0364  0.0387
42670W        W85764  10.371  14.928  16.391 -0.1815  0.2680 -0.4561
42671W        W85765   9.864  16.211  18.057 -0.2333  0.1668 -0.1191
42672W        W85766  10.056  16.252  16.719  0.1838 -0.0435  0.0221
42673W        W85767   7.735  17.287  18.168  0.0116 -0.1977  0.3118
42674W        W85768   8.623  17.148  17.735  0.1235  0.1105 -0.1271
42675W        W85769   8.904  15.482  15.590  0.0863 -0.2233  0.0281
42676W        W85770   7.187  17.083  20.941  0.6200  0.3253 -0.2373
42677W        W85771  11.023  13.991  18.639  0.2031 -0.3250  0.1686
42678W        W85772   6.265  17.381  18.680  0.3952  0.3600  0.1518
42679W        W85773   9.639  18.158  16.831 -0.4367  0.1307  0.1302
42680W        W85774   6.586  15.720  16.629  0.0635  0.8500 -0.2621
42681W        W85775   7.694  16.742  17.997 -0.1716 -0.0535  0.0357
42682W        W85776   9.838  15.023  18.748  0.1228 -0.0862 -0.1392
42683W        W85777   9.171  15.679  16.067 -0.0990 -0.3580 -0.2445
42684W        W85778   9.418  17.050  16.848 -0.3040 -0.0575  0.3044
42685W        W85779   7.966  18.407  16.837  0.0302 -0.0337  0.0832
42686W        W85780   5.936  17.736  18.725  0.1217  0.0905  0.2820
42687W        W85781   8.906  17.996  17.884  0.3509 -0.0385  0.0652
42688W        W85782   7.391  14.021  17.082  0.0543 -0.0923  0.0058
42689W        W85783  10.075  15.446  18.091 -0.2282 -0.0853  0.1364
42690W        W85784   8.082  17.748  18.309  0.0697 -0.1937  0.0357
42691W        W85785   9.849  14.511  17.738 -0.1342  0.1454 -0.1651
42692W        W85786   8.244  15.175  17.123  0.1576  0.1152  0.0439
42693W        W85787  10.502  15.456  17.022  0.0257 -0.3120  0.3394
42694W        W85788   8.579  15.157  17.502 -0.1524  0.2052  0.0657
42695W        W85789   6.582  17.017  18.830 -0.0986 -0.2941 -0.2743
42696W        W85790  10.059  15.895  17.065  0.0234  0.1940  0.2744
42697W        W85791  10.172  15.899  18.278  0.0447 -0.0665 -0.1484
42698W        W85792   9.729  15.142  15.658  0.1589 -0.1444  0.2195
42699W        W85793   8.206  19.046  19.709  0.0418 -0.0923  0.1756
42700W        W85794   7.382  15.839  17.786 -0.0413  0.2416  0.2292
42701W        W85795   9.535  15.336  17.425 -0.1706  0.0812  0.1150
42702W        W85796   8.474  15.627  16.793  0.0196  0.5899 -0.1306
42703W        W85797   7.979  16.637  19.393  0.1319 -0.3877 -0.2416
42704W        W85798   8.009  17.777  18.822  0.0774  0.3430  0.6535
42705W        W85799   6.692  13.752  17.457 -0.2530 -0.1949  0.1642
42706W        W85800   9.838  16.733  16.586 -0.0447  0.1172  0.0288
42707W        W85801   7.768  16.407  18.332  0.1522 -0.2454 -0.0381
42708W        W85802   8.320  18.649  17.140 -0.0294  0.1838  0.0553
42709W        W85803  10.472  16.869  17.899 -0.1966  0.0071  0.0194
42710W        W85804   8.644  16.799  18.124  0.0402 -0.2041 -0.0002
42711W        W85805   6.560  14.256  18.980 -0.0463 -0.0560 -0.4396
42712W        W85806   9.912  17.786  19.098  0.0219 -0.1084 -0.2095
42713W        W85807  10.204  16.316  17.305  0.0405 -0.1646 -0.0428
42714W        W85808   8.249  14.646  18.714  0.0291  0.0310  0.0109
42715W        W85809   8.164  16.019  17.071  0.0532  0.2257 -0.1672
42716W        W85810   6.988  18.192  17.756  0.2917  0.1187  0.1785
42717W        W85811   9.071  15.489  17.325  0.0600  0.2569  0.1190
42718W        W85812  10.019  16.963  18.696 -0.0484 -0.0414  0.0017
42719W        W85813   7.844  17.935  16.764 -0.1770  0.0052  0.2195
42720W        W85814   8.549  14.763  18.344  0.0963 -0.1183  0.3572
42721W        W85815   7.402  18.196  18.051  0.1721 -0.4050 -0.0451
42722W        W85816   7.004  17.776  17.953  0.1317 -0.1080 -0.2075
42723W        W85817   7.971  15.699  16.760 -0.3454 -0.3558 -0.0442
42724W        W85818   7.771  14.785  19.062 -0.0141  0.1898  0.3462
42725W        W85819   8.189  16.661  18.100 -0.0094  0.1588 -0.3188
42726W        W85820   7.476  17.542  16.985 -0.0009 -0.2603  0.1206
42727W        W85821  10.582  16.630  17.228 -0.1375 -0.0366 -0.1076
42728W        W85822   9.390  15.564  17.821  0.0925  0.0352 -0.4844
42729W        W85823   9.946  17.090  16.898  0.0760 -0.0458  0.2653
42730W        W85824   7.412  15.441  18.287  0.2317 -0.2746 -0.2237
42731W        W85825  10.226  14.347  16.743 -0.3593  0.0352 -0.1702
42732W        W85826  10.235  14.388  16.150 -0.2186 -0.0111  0.0120
42733W        W85827   6.732  17.623  16.776  0.4417 -0.1389 -0.1542
42734W        W85828   5.998  16.348  17.368  0.0100 -0.1076 -0.0610
42735W        W85829   6.652  15.922  17.135  0.0516 -0.0552  0.2713
42736W        W85830   6.860  18.260  19.390  0.0125 -0.2108 -0.0694
42737W        W85831   8.788  16.194  20.047 -0.0942 -0.2546  0.1873
42738W        W85832   7.755  15.623  19.674 -0.0545  0.1920 -0.1996
42739W        W85833   7.131  16.578  17.568 -0.0644  0.1418 -0.2106
42740W        W85834   6.904  14.799  16.398 -0.1893 -0.1514 -0.1680
42741W        W85835  10.338  17.929  16.218 -0.1600 -0.1290  0.1055
42742W        W85836   6.535  14.422  18.096 -0.2572  0.0501  0.0550
42743W        W85837   5.827  15.236  17.990  0.2368 -0.1813  0.0711
42744W        W85838   8.703  17.944  16.388 -0.0801 -0.0779 -0.2466
42745W        W85839   9.787  16.906  16.064  0.3431  0.0926  0.1253
42746W        W85840   8.059  15.185  17.576  0.0827 -0.1777 -0.2279
42747W        W85841  10.123  18.212  19.225  0.0698 -0.0239  0.1646
42748W        W85842   7.278  16.308  16.679 -0.0770 -0.0895  0.0230
42749W        W85843   7.153  15.732  18.588 -0.0403 -0.1285  0.3343
42750W        W85844   8.176  15.423  20.028  0.1343  0.3817 -0.2690
42751W        W85845   4.776  14.209  18.389  0.1046 -0.0287  0.1068
42752W        W85846   8.385  16.062  17.879 -0.0011  0.1439  0.3304
42753W        W85847   8.064  17.368  18.624 -0.2723  0.0848 -0.2402
42754W        W85848   8.647  18.299  16.853 -0.4353  0.2765 -0.2005
42755W        W85849   7.904  16.181  19.536  0.1954  0.2167  0.2309
42756W        W85850   7.053  18.414  20.014 -0.2023  0.1096 -0.0172
42757W        W85851   6.321  13.545  18.244 -0.0503 -0.0605 -0.0203
42758W        W85852   9.899  16.753  15.452 -0.1695  0.1700 -0.0119
42759W        W85853   7.819  16.919  18.529 -0.2345 -0.1535 -0.1007
42760W        W85854  10.294  16.127  15.993  0.4418 -0.2089  0.2068
42761W        W85855  10.761  15.166  17.409  0.1529  0.0625  0.2548
42762W        W85856   9.732  16.223  17.467 -0.1196 -0.0474  0.1555
42763W        W85857   8.205  14.557  20.608 -0.0962 -0.0727  0.1326
42764W        W85858   5.448  15.247  18.333  0.0817  0.0464  0.2036
42765W        W85859  10.349  17.032  19.103 -0.0201  0.1064  0.0951
42766W        W85860   7.615  14.968  18.542 -0.1095 -0.1063 -0.1956
42767W        W85861   9.850  15.059  17.828 -0.0280  0.1391  0.0884
42768W        W85862   8.893  15.753  16.535 -0.1074  0.1217  0.0933
42769W        W85863   7.409  16.347  17.928  0.2992  0.1113 -0.5878
42770W        W85864   8.907  16.332  18.046 -0.2219  0.1576 -0.2577
42771W        W85865   7.525  16.905  19.236  0.2519  0.1228 -0.0889
42772W        W85866   8.497  17.438  16.976  0.1376 -0.3004 -0.3111
42773W        W85867   8.638  17.164  19.923  0.1929  0.1098 -0.1956
42774W        W85868   9.245  15.194  15.914 -0.2118  0.2381 -0.0640
42775W        W85869  10.288  16.684  16.797 -0.1614 -0.1826  0.2459
42776W        W85870   9.060  17.796  17.394 -0.1389  0.0282  0.0935
42777W        W85871  10.259  17.892  18.560 -0.1547 -0.3104  0.0118
42778W        W85872   8.523  18.802  18.674  0.5861 -0.0850 -0.1572
42779W        W85873   9.212  16.727  18.249 -0.0471 -0.2419 -0.0556
42780W        W85874   6.432  13.962  19.742 -0.0489 -0.2081 -0.0603
42781W        W85875   7.922  16.910  16.344 -0.0099 -0.0494 -0.0853
42782W        W85876   8.865  15.857  17.672 -0.0717  0.0186  0.1282
42783W        W85877   8.570  15.810  18.236  0.2179 -0.1958 -0.2311
42784W        W85878   7.842  15.371  21.026 -0.2177  0.6167 -0.1399
42785W        W85879   9.094  14.783  16.807 -0.2948  0.1719  0.2650
42786W        W85880   6.546  17.821  18.587  0.1277 -0.2359 -0.0105
42787W        W85881   7.821  16.096  17.972  0.1555 -0.1505 -0.0161
42788W        W85882   7.513  16.912  22.904 -0.2830 -0.4159 -0.0665
42789W        W85883   7.886  15.607  22.322 -0.2428  0.1165  0.1324
42790W        W85884   8.615  14.937  20.820  0.1849  0.1980 -0.1225
42791W        W85885   9.529  15.290  20.412 -0.0027  0.0047 -0.0980
42792W        W85886   8.629  13.441  20.954  0.0736 -0.0482  0.1757
42793W        W85887   9.629  18.378  19.258  0.1064  0.1751  0.0107
42794W        W85888   8.468  14.509  22.846 -0.2095 -0.0713 -0.2527
42795W        W85889   9.579  17.912  22.386  0.2594 -0.2855  0.2403
42796W        W85890   9.138  19.045  22.470 -0.0261 -0.3964 -0.1536
42797W        W85891   8.477  16.015  18.762 -0.0236  0.1191 -0.1589
42798W        W85892   8.157  14.950  22.936  0.1174 -0.1739  0.0053
42799W        W85893   7.224  17.836  21.649 -0.0615  0.1590 -0.1313
42800W        W85894   8.765  15.482  20.723 -0.2421  0.4296  0.1308
42801W        W85895   8.666  14.442  23.383 -0.0674 -0.0349  0.4168
42802W        W85896   9.142  17.632  22.174  0.1705  0.0347 -0.0549
42803W        W85897   6.030  16.542  21.451 -0.2479 -0.2848  0.3321
42804W        W85898   8.315  15.156  22.008  0.0432 -0.3530 -0.1377
42805W        W85899   8.207  13.764  20.969  0.2577 -0.1146 -0.0176
42806W        W85900   8.444  18.837  22.077  0.1152  0.0023 -0.0619
42807W        W85901   8.521  14.911  23.271 -0.0003  0.3012  0.0447
42808W        W85902   9.109  13.580  23.517 -0.0391  0.0523 -0.3107
42809W        W85903   6.603  18.214  21.238 -0.1514  0.2393 -0.5235
42810W        W85904   5.919  14.644  21.030  0.1931  0.1612  0.1564
42811W        W85905   6.720  15.081  22.109 -0.1608 -0.1952 -0.0210
42812W        W85906   8.101  16.143  21.599 -0.0163 -0.0717  0.1016
42813W        W85907   9.173  16.552  21.015 -0.3939 -0.1645  0.1647
42814W        W85908   9.280  17.955  21.363 -0.0821 -0.1067 -0.1275
42815W        W85909   9.132  17.392  21.054  0.0770  0.0810 -0.2185
42816W        W85910   7.932  17.224  21.685 -0.0497 -0.1848  0.1511
42817W        W85911   9.956  14.880  22.746  0.0390 -0.0216  0.0900
42818W        W85912   7.079  16.921  21.385  0.2495 -0.0767  0.0756
42819W        W85913   6.872  19.547  20.382  0.3753  0.0624  0.3044
42820W        W85914   7.628  18.084  20.720 -0.1036 -0.2419  0.0829
42821W        W85915   9.970  16.322  19.536  0.2872 -0.2242 -0.2784
42822W        W85916   9.126  17.034  23.877  0.3706  0.2938  0.0470
42823W        W85917   7.377  17.776  22.235 -0.1381 -0.1271  0.1536
42824W        W85918   5.822  18.463  20.211  0.3544 -0.0276 -0.1940
42825W        W85919   8.966  18.476  22.670 -0.2396  0.0310 -0.1956
42826W        W85920   7.661  17.382  22.642 -0.0914 -0.2109  0.2359
42827W        W85921   8.670  15.713  21.253 -0.0054  0.1277  0.3343
42828W        W85922   8.148  16.559  19.951  0.1588  0.1448 -0.0163
42829W        W85923   7.357  17.125  18.758  0.0292  0.3577 -0.0601
42830W        W85924   9.849  17.417  21.861  0.0597 -0.1477  0.0305
42831W        W85925   7.382  15.689  23.145 -0.0071  0.8002 -0.2032
42832W        W85926   7.513  17.812  21.183  0.2231  0.0032  0.0132
42833W        W85927  10.404  15.641  22.054 -0.0127  0.0076  0.1071
42834W        W85928   7.514  16.520  19.648  0.3314 -0.3081  0.1442
42835W        W85929   9.095  15.456  19.863  0.3532 -0.0622  0.0942
42836W        W85930   8.435  15.887  20.774 -0.0253 -0.0416  0.0307
42837W        W85931   8.910  16.200  21.917  0.0058 -0.1030  0.1569
42838W        W85932   9.153  13.615  20.732 -0.0155 -0.2211 -0.0947
42839W        W85933   7.491  17.039  21.912 -0.1537 -0.3235 -0.2513
42840W        W85934   8.421  15.284  21.041  0.1571 -0.1632 -0.0706
42841W        W85935   8.488  16.904  22.971  0.0515  0.0888  0.2637
42842W        W85936   7.177  16.523  21.700  0.3577 -0.0162 -0.2483
42843W        W85937   8.102  14.709  21.967  0.1044 -0.1505  0.0223
42844W        W85938   8.006  19.186  22.125  0.1672  0.4647 -0.0260
42845W        W85939   7.029  17.110  21.892  0.5484 -0.1850 -0.0106
42846W        W85940  11.337  17.170  19.603  0.1298  0.0505  0.1176
42847W        W85941   9.210  18.692  20.767  0.1564 -0.1726 -0.1412
42848W        W85942   8.890  17.751  18.929 -0.0281  0.4414  0.2264
42849W        W85943   5.797  17.057  21.465 -0.2600  0.1107  0.3708
42850W        W85944   6.618  16.858  22.748  0.0541 -0.1555  0.2159
42851W        W85945   6.292  15.000  21.868  0.2892  0.2236  0.2447
42852W        W85946   6.873  15.764  21.096  0.4342  0.0598  0.2295
42853W        W85947   9.394  16.507  22.698 -0.2144 -0.0415  0.0542
42854W        W85948   7.106  18.578  21.956 -0.0015 -0.1039  0.2865
42855W        W85949  10.388  13.953  21.583 -0.0498  0.1295  0.1612
42856W        W85950   6.750  16.419  22.392  0.0877 -0.0541 -0.0272
42857W        W85951   9.200  15.139  20.742  0.0263 -0.0405 -0.2216
42858W        W85952  10.410  17.781  19.103  0.1461 -0.3535 -0.1073
42859W        W85953   9.720  14.219  21.605  0.2339 -0.0621  0.2389
42860W        W85954  11.238  13.810  21.855 -0.1150 -0.1684  0.3565
42861W        W85955   6.848  17.315  20.068  0.2785  0.0968  0.0181
42862W        W85956   8.136  17.196  21.230 -0.0889 -0.0349 -0.1423
42863W        W85957   9.172  18.192  21.792 -0.1286  0.2740  0.1387
42864W        W85958   8.928  17.078  20.770  0.1738 -0.2248  0.3787
42865W        W85959   7.988  19.571  20.947  0.0914 -0.0241 -0.0491
42866W        W85960   9.249  14.590  23.711 -0.0865 -0.1217 -0.0929
42867W        W85961   8.396  15.926  24.448 -0.0056 -0.1706  0.0062
42868W        W85962   8.149  19.488  20.234  0.1445 -0.0028 -0.2477
42869W        W85963   5.909  16.025  21.309 -0.1085  0.1099  0.1328
42870W        W85964   7.115  16.889  19.534 -0.2365 -0.1626  0.0434
42871W        W85965   8.172  14.104  22.920 -0.0193 -0.1599 -0.1293
42872W        W85966   6.954  15.710  22.905 -0.2864  0.1269 -0.1423
42873W        W85967   9.937  14.485  20.151  0.1451  0.0810 -0.3174
42874W        W85968   8.157  14.652  23.723 -0.0729 -0.0461  0.1698
42875W        W85969   9.295  16.509  20.087 -0.1087 -0.2219  0.2282
42876W        W85970   7.888  16.774  20.961 -0.0741 -0.0865 -0.3571
42877W        W85971   9.309  17.289  20.503 -0.0751 -0.1146 -0.1993
42878W        W85972   8.795  15.192  20.334 -0.0507  0.0809 -0.1568
42879W        W85973   9.790  17.965  19.580 -0.0802  0.1739 -0.2423
42880W        W85974   7.627  15.224  22.542  0.1023 -0.0690 -0.2725
42881W        W85975   7.624  15.339  21.526  0.0068  0.0335 -0.0368
42882W        W85976   8.196  14.820  24.670  0.0746  0.1452  0.0519
42883W        W85977   7.226  15.019  22.249  0.1439 -0.0735 -0.0450
42884W        W85978  10.019  14.781  22.258 -0.0604  0.0585  0.1366
42885W        W85979   7.522  13.013  19.837 -0.2088  0.2553 -0.0045
42886W        W85980   9.816  14.744  21.209  0.2940 -0.1428  0.0076
42887W        W85981   8.288  17.082  19.459 -0.1776  0.0456  0.2342
42888W        W85982   7.915  15.761  20.776  0.0604  0.1393 -0.1032
42889W        W85983  10.021  14.405  22.603  0.0984  0.2270  0.2065
42890W        W85984  10.193  17.372  19.392 -0.0957 -0.0774  0.1599
42891W        W85985   9.998  18.140  22.939  0.1928 -0.1742 -0.0063
42892W        W85986  10.292  18.758  20.916  0.2386  0.0973 -0.0846
42893W        W85987   8.700  15.500  21.916  0.1814 -0.0345 -0.0383
42894W        W85988   7.632  15.846  20.394 -0.1285  0.0119 -0.2171
42895W        W85989   7.666  18.601  20.842 -0.1166 -0.1083 -0.1860
42896W        W85990   8.489  15.938  21.855 -0.1030  0.0749 -0.2827
42897W        W85991   9.206  16.367  22.254 -0.1694 -0.1463 -0.1241
42898W        W85992  11.311  19.352  21.870  0.0515  0.1046  0.0418
42899W        W85993   8.689  17.051  21.279  0.0180 -0.0179  0.0325
42900W        W85994   7.191  16.666  22.483 -0.1817 -0.0404  0.3508
42901W        W85995   9.918  13.285  21.961 -0.2575  0.0557  0.4884
42902W        W85996   9.517  15.961  21.582  0.3040  0.3533 -0.0149
42903W        W85997   7.531  14.923  19.440  0.1445 -0.1105 -0.2001
42904W        W85998   7.570  13.991  21.093  0.2507 -0.3304  0.2153
42905W        W85999   9.049  18.174  21.002  0.2130  0.0711  0.1808
42906W        W86000   6.563  17.719  20.887 -0.0534  0.2210  0.0525
42907W        W86001   6.841  17.562  21.923  0.2233 -0.1969 -0.1269
42908W        W86002   8.297  17.523  21.989  0.0570  0.1212  0.0848
42909W        W86003   9.194  15.298  21.694  0.0435  0.1868 -0.2977
42910W        W86004   6.285  15.717  24.971 -0.0600 -0.3397 -0.0797
42911W        W86005   9.314  15.297  23.900  0.0137 -0.3158  0.2734
42912W        W86006   7.377  16.560  21.128  0.2127 -0.0514  0.1637
42913W        W86007   7.615  16.930  21.414  0.1192  0.0805  0.2291
42914W        W86008   9.875  13.424  21.254  0.1096 -0.1669 -0.2230
42915W        W86009  10.743  14.256  20.198 -0.2779 -0.4389  0.0959
42916W        W86010   7.990  17.607  23.056 -0.1226 -0.0611  0.1162
42917W        W86011  10.034  17.173  21.426  0.3540 -0.1858 -0.0596
42918W        W86012   8.499  14.787  20.227 -0.0702  0.2183 -0.0791
42919W        W86013   7.925  15.147  19.645  0.2136 -0.2991 -0.2935
42920W        W86014   7.329  17.257  22.304  0.0380  0.0016  0.0853
42921W        W86015   8.823  16.444  20.576  0.0542  0.0334  0.0771
42922W        W86016   7.674  16.416  22.648  0.2424  0.2829  0.1939
42923W        W86017   8.250  16.641  21.363  0.2090  0.1513 -0.1385
42924W        W86018   9.969  18.276  18.745 -0.1370 -0.0061  0.1947
42925W        W86019   6.901  17.510  22.472  0.1019  0.0258 -0.1332
42926W        W86020   8.337  15.911  22.954  0.0575  0.1822  0.0426
42927W        W86021   9.558  17.339  21.441 -0.1742  0.1266 -0.0497
42928W        W86022   9.022  14.650  22.798  0.0711 -0.2164  0.2608
42929W        W86023   7.557  16.041  19.849  0.0164  0.0880 -0.1163
42930W        W86024   8.572  13.979  21.578 -0.1073 -0.0582 -0.0933
42931W        W86025   8.386  18.853  20.504  0.0080 -0.0843 -0.0427
42932W        W86026   9.640  16.598  21.366  0.0727 -0.0885  0.5013
42933W        W86027   8.969  14.620  21.211  0.1112  0.2041 -0.1269
42934W        W86028  10.126  13.883  22.868  0.1278 -0.2285  0.1047
42935W        W86029  10.768  15.198  21.757 -0.1800  0.0492 -0.1488
42936W        W86030   9.038  14.623  19.587 -0.0624 -0.0780  0.1113
42937W        W86031   8.937  16.047  20.895 -0.0122 -0.2940  0.2680
42938W        W86032   8.324  16.116  19.850 -0.3486 -0.1905  0.7262
42939W        W86033   9.156  15.266  23.439 -0.0361 -0.0167  0.1641
42940W        W86034   6.850  17.047  22.337 -0.0581 -0.0387  0.5377
42941W        W86035   7.263  18.305  21.532  0.2248  0.1138  0.2831
42942W        W86036   9.997  16.901  23.112 -0.1298 -0.1084  0.1739
42943W        W86037   8.047  17.173  20.672 -0.1715 -0.1587 -0.0242
42944W        W86038   9.234  16.019  22.720  0.0251 -0.2147  0.1597
42945W        W86039   8.434  13.642  21.921 -0.2127 -0.3649 -0.0698
42946W        W86040   7.762  17.887  19.750  0.1373 -0.1383  0.0417
42947W        W86041   7.029  16.443  20.750 -0.0120 -0.1334  0.0487
42948W        W86042   8.871  14.383  21.696 -0.2288  0.2872  0.1006
42949W        W86043   9.256  17.122  23.353 -0.3239  0.3049 -0.0150
42950W        W86044   7.749  18.845  19.668  0.2201  0.0219 -0.1228
42951W        W86045   6.662  15.714  22.069  0.3169 -0.2719  0.1305
42952W        W86046   7.791  18.248  21.258 -0.0381 -0.2056 -0.0885
42953W        W86047   9.699  14.300  21.059  0.0317 -0.2635 -0.2105
42954W        W86048   6.696  15.671  21.561  0.2888  0.2538 -0.0060
42955W        W86049   8.625  16.657  20.052 -0.0471 -0.2282 -0.1293
42956W        W86050   6.400  16.086  22.335 -0.4604 -0.0065  0.0463
42957W        W86051   9.066  16.228  21.399 -0.0790 -0.0383 -0.2483
42958W        W86052   9.332  16.202  20.567 -0.0150  0.2756  0.2305
42959W        W86053   7.063  15.526  21.856  0.1124  0.3337  0.3479
42960W        W86054   8.136  13.708  20.275 -0.1106  0.3331 -0.2462
42961W        W86055   7.577  19.261  21.188  0.0524 -0.2278  0.0177
42962W        W86056   9.644  15.231  22.271 -0.2051  0.0118  0.0531
42963W        W86057   9.384  14.673  20.967 -0.1144 -0.0573 -0.0215
42964W        W86058   9.283  18.396  23.675  0.1329  0.2540 -0.0451
42965W        W86059   8.031  16.512  22.245 -0.0670  0.0960  0.0902
42966W        W86060   6.887  15.233  20.352  0.1144  0.1947  0.2860
42967W        W86061  10.586  15.829  22.542  0.1830  0.1248 -0.1492
42968W        W86062   8.518  14.871  21.360 -0.1678  0.3076 -0.0988
42969W        W86063   7.665  17.795  20.264 -0.2268  0.1897 -0.0397
42970W        W86064   8.109  17.517  22.522  0.2013  0.0242  0.1623
42971W        W86065   7.834  16.264  20.208 -0.1108  0.2718  0.0466
42972W        W86066   7.378  17.264  20.438 -0.3317 -0.0898 -0.1089
42973W        W86067   7.400  15.062  24.679 -0.1782 -0.0071 -0.2105
42974W        W86068   8.915  16.602  22.585  0.0501 -0.3224  0.0330
42975W        W86069   8.445  16.990  21.683  0.1613  0.0819 -0.2775
42976W        W86070   7.858  13.035  20.735  0.0001  0.2364  0.1198
42977W        W86071   9.912  16.605  22.646 -0.1257 -0.0376  0.1496
42978W        W86072   9.045  17.074  22.443 -0.1121  0.0471 -0.1207
42979W        W86073   8.020  16.034  22.562 -0.1382 -0.1855  0.1316
42980W        W86074   7.526  18.196  21.998 -0.2388 -0.1101  0.1202
42981W        W86075   9.772  13.877  22.328  0.2419  0.1903 -0.0482
42982W        W86076   8.573  18.098  20.755  0.3062  0.1458 -0.0855
42983W        W86077   9.349  18.704  22.956 -0.1656  0.1373  0.1094
42984W        W86078   7.441  16.747  20.601  0.1610  0.0965  0.2436
42985W        W86079   6.350  17.821  21.915  0.1122  0.1273 -0.0478
42986W        W86080   8.845  17.740  21.258 -0.2757  0.1795  0.1144
42987W        W86081   9.448  15.073  21.320 -0.1675 -0.0353 -0.1313
42988W        W86082   6.534  18.179  22.228  0.0602 -0.1142  0.1297
42989W        W86083   7.705  16.953  19.737 -0.0674 -0.0257 -0.0166
42990W        W86084   6.916  17.791  21.165  0.4406  0.2776  0.0200
42991W        W86085   9.659  13.904  19.884 -0.1497 -0.1471  0.2679
42992W        W86086   8.114  17.958  19.382  0.0764 -0.1269  0.1306
42993W        W86087   9.292  14.269  21.393 -0.0511  0.0829 -0.0389
42994W        W86088  10.852  13.835  23.339 -0.0402  0.0253  0.0643
42995W        W86089   8.892  16.971  19.487  0.1429 -0.2736 -0.0368
42996W        W86090  10.918  15.183  23.178 -0.1061  0.0374  0.0136
42997W        W86091   8.543  12.032  23.204 -0.2057  0.3077  0.1557
42998W        W86092  10.579  16.660  22.211  0.5329 -0.1621  0.0966
42999W        W86093   5.924  15.936  22.215 -0.1410  0.3543 -0.0477
43000W        W86094   8.391  18.732  23.804  0.3005 -0.1683 -0.0935
43001W        W86095   7.992  14.878  22.414  0.1035  0.1766 -0.0334
43002W        W86096   8.130  15.833  20.272  0.2139 -0.4334  0.1144
43003W        W86097   8.059  14.773  21.033  0.0579 -0.1475 -0.1585
43004W        W86098   6.612  15.293  22.958 -0.1884 -0.1863  0.0660
43005W        W86099   8.857  17.221  23.055  0.0476 -0.1936 -0.0891
43006W        W86100   7.581  16.310  21.598  0.3615  0.1010  0.1606
43007W        W86101   9.289  16.711  20.557 -0.1192 -0.0420  0.1286
43008W        W86102   8.016  17.127  23.161 -0.1444  0.2911 -0.3694
43009W        W86103   9.674  16.173  22.393 -0.1435  0.2401 -0.0791
43010W        W86104   8.433  17.552  19.053 -0.1311 -0.3272 -0.0590
43011W        W86105   8.629  17.943  20.237  0.5419 -0.0129  0.2117
43012W        W86106   7.775  14.904  23.741 -0.2611  0.0473 -0.0566
43013W        W86107   9.412  16.806  22.264 -0.2420 -0.0848  0.2769
43014W        W86108   8.134  16.725  20.515  0.1266 -0.1941 -0.2501
43015W        W86109  10.356  13.467  21.800 -0.1156 -0.1915  0.0425
43016W        W86110   9.441  15.809  22.081  0.2682 -0.1026 -0.0408
43017W        W86111   8.897  15.863  22.301  0.0020 -0.2228  0.3215
43018W        W86112   6.985  15.793  23.674 -0.0349 -0.2818  0.0828
43019W        W86113  10.455  19.890  22.232  0.2340 -0.3578  0.1581
43020W        W86114  10.282  15.205  19.529  0.1355  0.0712  0.1577
43021W        W86115   8.711  15.352  22.375  0.0167 -0.1203  0.1932
43022W        W86116   9.012  15.997  19.587 -0.2369  0.2399  0.1751
43023W        W86117   8.474  15.303  21.544  0.0051  0.0943  0.1547
43024W        W86118   8.094  15.522  21.836 -0.0210 -0.1578 -0.0892
43025W        W86119   9.124  16.256  23.171 -0.1591  0.3089 -0.1557
43026W        W86120   7.420  15.598  21.149 -0.0525 -0.3350 -0.0470
43027W        W86121  10.094  15.266  22.012  0.1429  0.2436  0.1826
43028W        W86122   6.752  17.295  21.067  0.0542 -0.0532  0.0543
43029W        W86123   8.688  16.868  22.142 -0.4344 -0.0294 -0.1591
43030W        W86124   8.411  16.885  20.894 -0.1812  0.2470  0.1071
43031W        W86125   6.507  13.586  23.867  0.1734  0.4412 -0.0593
43032W        W86126   6.471  17.319  22.087 -0.1094 -0.0199  0.0412
43033W        W86127   8.249  15.342  20.561  0.0752 -0.2865 -0.0872
43034W        W86128   8.367  16.285  20.337  0.1328 -0.1520 -0.0053
43035W        W86129   8.959  18.512  22.120 -0.1408 -0.0229 -0.1158
43036W        W86130  10.412  16.236  21.573  0.1917  0.0576  0.0085
43037W        W86131   9.178  14.168  20.866  0.1027 -0.0838 -0.0698
43038W        W86132  10.324  15.512  21.587  0.2566 -0.0751  0.1381
43039W        W86133   7.655  18.293  20.028  0.0848  0.0475 -0.1631
43040W        W86134   9.956  13.909  21.258  0.2010 -0.0918  0.2941
43041W        W86135   7.677  19.314  21.719  0.0055 -0.2547  0.2422
43042W        W86136   6.916  18.022  23.197  0.3881 -0.0348  0.1487
43043W        W86137   8.065  18.858  21.739  0.2282  0.1181 -0.0010
43044W        W86138   8.375  15.726  22.317 -0.0758 -0.0550  0.0466
43045W        W86139   9.302  16.548  21.772  0.0623 -0.0590  0.3175
43046W        W86140   9.033  15.813  21.617  0.1223  0.1746 -0.2098
43047W        W86141   9.694  14.946  21.857 -0.0698  0.0715  0.0279
43048W        W86142   9.145  17.749  23.173  0.2399  0.1592  0.0500
43049W        W86143   8.195  15.351  22.655 -0.3047 -0.1273 -0.0879
43050W        W86144   8.960  18.898  23.709 -0.0149  0.2332 -0.3133
43051W        W86145   9.791  16.588  19.913 -0.0054 -0.0451  0.0704
43052W        W86146   7.799  17.564  22.069 -0.2105  0.1368  0.1899
43053W        W86147   6.165  18.296  21.928 -0.0445  0.2303 -0.1549
43054W        W86148   8.686  16.171  24.078  0.1424 -0.1133  0.0288
43055W        W86149   8.528  17.040  20.461 -0.1723 -0.1043 -0.0969
43056W        W86150   7.643  14.815  21.728 -0.2482  0.3409 -0.3903
43057W        W86151   8.499  17.502  21.465 -0.3410  0.1011  0.1207
43058W        W86152   5.852  19.271  23.722 -0.2312 -0.2272  0.3364
43059W        W86153   6.846  18.140  22.623  0.3416 -0.2007 -0.0639
43060W        W86154   7.668  19.368  20.617 -0.1123  0.2890 -0.5014
43061W        W86155   9.180  17.287  19.775  0.4255  0.2899 -0.1807
43062W        W86156  10.412  16.931  20.820  0.0616  0.1941 -0.1167
43063W        W86157   9.680  19.216  24.182 -0.2259  0.0418  0.3061
43064W        W86158   8.159  15.739  21.274 -0.1000 -0.2966  0.1143
43065W        W86159   7.494  17.370  21.560  0.3407  0.1036  0.2106
43066W        W86160   6.008  17.854  20.965  0.1937 -0.2045  0.0559
43067W        W86161   9.726  17.587  18.423  0.3159  0.0818  0.5524
43068W        W86162   8.161  16.968  22.126  0.1171  0.1124  0.0180
43069W        W86163  10.910  16.147  24.218  0.5231  0.1536  0.0151
43070W        W86164   8.842  15.786  20.345 -0.1211 -0.2675 -0.0880
43071W        W86165   9.849  15.675  21.319  0.1692 -0.2025 -0.0990
43072W        W86166   9.942  14.667  20.727 -0.2769  0.1128 -0.1798
43073W        W86167   9.669  17.682  24.724  0.0774 -0.0537  0.3016
43074W        W86168   9.141  16.902  21.426  0.1850 -0.1332  0.1231
43075W        W86169   8.658  13.908  20.057  0.2039 -0.0617 -0.0190
43076W        W86170   8.204  15.137  23.908 -0.0977  0.3951  0.0147
43077W        W86171  12.097  13.889  24.442 -0.1559  0.2090 -0.0067
43078W        W86172   6.824  18.683  22.369 -0.1346  0.2180  0.0997
43079W        W86173   9.113  18.934  19.876 -0.1450 -0.1179 -0.0531
43080W        W86174   7.107  15.636  22.349 -0.1603 -0.0513 -0.0902
43081W        W86175   8.084  17.020  22.665 -0.3875 -0.0490 -0.1438
43082W        W86176  10.560  13.804  22.597 -0.1716 -0.0406 -0.2510
43083W        W86177   7.823  18.383  19.534  0.0978 -0.0334  0.0618
43084W        W86178   9.597  16.149  22.998  0.3918  0.1862 -0.1423
43085W        W86179   9.698  18.754  21.462  0.3277  0.0287  0.0182
43086W        W86180   8.601  16.235  21.398 -0.1872 -0.1596  0.0229
43087W        W86181   8.411  17.284  23.393 -0.3372  0.0818  0.1076
43088W        W86182   6.063  14.522  19.150  0.0603 -0.3318  0.0907
43089W        W86183  10.290  15.584  19.240 -0.1453  0.1384 -0.0595
43090W        W86184   8.095  15.238  23.447  0.0699 -0.0108 -0.1701
43091W        W86185  10.555  14.484  23.663 -0.1524 -0.0638  0.0697
43092W        W86186   5.912  17.054  22.151 -0.0796  0.0376  0.1057
43093W        W86187   9.243  15.652  20.619  0.3968 -0.3197 -0.1118
43094W        W86188   9.103  16.994  21.891 -0.0838  0.1007 -0.1829
43095W        W86189   7.560  16.036  22.313  0.1082 -0.2199  0.0146
43096W        W86190   8.135  16.504  18.658  0.2347  0.1672  0.3494
43097W        W86191   9.630  17.724  22.848  0.0552  0.0141 -0.1207
43098W        W86192   8.835  15.011  22.005 -0.1963  0.0689  0.1078
43099W        W86193   9.516  19.171  22.186 -0.0135  0.0823 -0.0558
43100W        W86194   7.507  16.536  22.072  0.0117 -0.2299 -0.1997
43101W        W86195   8.823  13.824  21.167 -0.0406 -0.0027 -0.1054
43102W        W86196   7.812  16.338  21.205 -0.0648  0.0985  0.0515
43103W        W86197   9.144  15.389  22.168  0.2499  0.1039 -0.0840
43104W        W86198   9.488  18.257  22.756 -0.1257  0.0707  0.1234
43105W        W86199   7.926  13.810  22.101 -0.0134  0.0970  0.2352
43106W        W86200   9.243  16.200  19.130 -0.1092  0.5361  0.1594
43107W        W86201   9.738  16.458  21.978  0.0546  0.1921 -0.1777
43108W        W86202   7.406  19.441  18.462 -0.0144 -0.0578 -0.3569
43109W        W86203   9.414  16.849  19.662  0.3198 -0.3667 -0.1228
43110W        W86204   9.729  18.567  20.876  0.0466  0.1257  0.0258
43111W        W86205   7.722  14.458  21.367 -0.0832  0.0435  0.0769
43112W        W86206   8.346  18.549  23.353  0.0530 -0.1309  0.0706
43113W        W86207   9.540  16.989  20.132 -0.2013 -0.0049  0.1684
43114W        W86208   8.586  14.024  20.754 -0.0677 -0.4940 -0.0053
43115W        W86209   7.833  15.404  23.017  0.1312  0.1778  0.3216
43116W        W86210   8.334  19.007  21.089  0.1221  0.1435 -0.3701
43117W        W86211  10.567  15.628  20.734 -0.1626 -0.0623  0.0194
43118W        W86212   9.742  14.351  22.136  0.1959 -0.2294  0.2522
43119W        W86213   7.960  17.645  21.187 -0.2540  0.2052  0.0923
43120W        W86214  11.048  15.163  23.984 -0.0548  0.0187 -0.0920
43121W        W86215   8.107  19.277  21.411 -0.0875 -0.0553  0.3168
43122W        W86216   7.237  19.801  21.821 -0.0291  0.3429  0.1450
43123W        W86217   8.256  16.347  20.919 -0.0181 -0.0423 -0.2237
43124W        W86218   7.689  16.889  22.427 -0.1737  0.1544 -0.2516
43125W        W86219   8.091  17.931  20.768  0.1776  0.2154  0.0161
43126W        W86220   8.518  17.424  20.865 -0.3448  0.1297 -0.1861
43127W        W86221   9.955  18.543  22.720  0.0853 -0.0218  0.3852
43128W        W86222   8.800  16.633  21.663  0.0828  0.1935 -0.3723
43129W        W86223   9.454  17.663  19.784  0.1362 -0.1980 -0.1613
43130W        W86224   7.798  13.784  20.647 -0.4837 -0.4339  0.1429
43131W        W86225   9.392  13.473  19.651 -0.1559  0.1687  0.2430
43132W        W86226   9.692  13.722  20.806  0.0078  0.0440  0.0096
43133W        W86227   5.922  16.543  22.402  0.2808 -0.0195  0.0373
43134W        W86228   6.578  17.803  20.347 -0.0185  0.0286 -0.0750
43135W        W86229   7.930  16.735  21.753 -0.2563 -0.3054 -0.1143
43136W        W86230   6.278  16.520  22.746 -0.0302 -0.2308 -0.0096
43137W        W86231   8.980  14.069  23.465  0.1222 -0.0553  0.4416
43138W        W86232   7.357  15.879  24.151  0.3983 -0.1568  0.2251
43139W        W86233   7.063  16.172  23.281 -0.0109 -0.3844  0.1051
43140W        W86234   8.015  13.912  21.531  0.1635 -0.2312 -0.1842
43141W        W86235   8.465  18.051  18.929 -0.2604 -0.1239  0.2326
43142W        W86236   7.556  15.712  21.965  0.2203  0.0552 -0.1386
43143W        W86237   6.759  16.128  21.779 -0.1379 -0.0458  0.0803
43144W        W86238   9.199  18.148  18.948 -0.0092  0.4272 -0.0033
43145W        W86239   9.886  17.793  21.299  0.1201 -0.0173 -0.3716
43146W        W86240   7.807  15.175  22.022 -0.0249  0.0507  0.2852
43147W        W86241   9.991  19.640  23.347 -0.0873 -0.0416  0.2840
43148W        W86242   7.159  16.544  19.168 -0.0811  0.0056 -0.0519
43149W        W86243   7.556  15.914  23.587 -0.0966  0.1693 -0.0924
43150W        W86244   9.277  15.452  22.647  0.1242 -0.3434 -0.1929
43151W        W86245   7.776  13.574  19.864 -0.0877 -0.2084 -0.0545
43152W        W86246   8.280  16.497  22.748 -0.4600 -0.1387 -0.0416
43153W        W86247   8.289  17.498  20.401 -0.0191 -0.0708  0.0269
43154W        W86248   7.784  18.564  18.397 -0.1011 -0.0259 -0.1001
43155W        W86249   8.849  17.953  23.769  0.2051 -0.0544 -0.3122
43156W        W86250   9.009  18.963  21.266  0.2605  0.3241 -0.2166
43157W        W86251   7.630  14.351  23.142  0.0262  0.1475 -0.0354
43158W        W86252   9.932  16.907  21.049  0.2590 -0.3147 -0.1153
43159W        W86253   7.566  17.288  23.757 -0.0659 -0.0964  0.1657
43160W        W86254   8.997  16.522  19.662  0.3020  0.0388 -0.1110
43161W        W86255  10.467  15.076  21.353  0.1989  0.0632 -0.1307
43162W        W86256   8.808  17.422  20.298  0.1258 -0.0047 -0.1313
43163W        W86257   7.920  14.734  24.218  0.0709 -0.2005  0.0192
43164W        W86258   6.996  15.331  23.260  0.0227 -0.1790 -0.0287
43165W        W86259   8.888  17.728  20.705 -0.1646 -0.1171  0.0283
43166W        W86260   8.742  14.183  22.548 -0.1248  0.3330  0.0886
43167W        W86261   8.897  14.212  19.392  0.0922  0.1719 -0.0620
43168W        W86262   8.157  17.075  19.987  0.5450  0.1024 -0.1217
43169W        W86263   8.033  16.023  22.042  0.1676 -0.1284 -0.1535
43170W        W86264   8.281  15.478  19.493 -0.0058 -0.1885 -0.0657
43171W        W86265   9.726  15.620  22.837  0.4812  0.2810 -0.2688
43172W        W86266   8.563  18.419  21.835 -0.1596  0.0293 -0.2428
43173W        W86267  10.474  15.604  23.071 -0.0178 -0.0285  0.1327
43174W        W86268   8.637  15.738  19.836  0.3038  0.0379  0.0501
43175W        W86269   9.042  14.838  20.053  0.3090 -0.2025 -0.0400
43176W        W86270  10.115  18.497  21.767  0.2049  0.1866  0.2217
43177W        W86271   9.768  16.965  23.516  0.0494 -0.1641  0.1143
43178W        W86272   8.061  18.368  21.946 -0.0277 -0.1864 -0.3414
43179W        W86273  10.352  14.138  22.334  0.2300  0.3884  0.2196
43180W        W86274   7.823  14.289  21.854 -0.1539 -0.0639  0.0244
43181W        W86275   7.218  15.019  21.702 -0.0987  0.1301 -0.2493
43182W        W86276   8.359  16.476  21.873  0.2762  0.0268 -0.2510
43183W        W86277  10.157  15.505  22.599 -0.1789 -0.1259  0.0111
43184W        W86278   8.035  15.051  21.476  0.1448 -0.0427  0.1524
43185W        W86279   9.109  14.425  20.365 -0.1287  0.2466 -0.1501
43186W        W86280   7.292  18.084  22.815  0.0619  0.1400 -0.0927
43187W        W86281   8.751  17.341  21.976  0.0189 -0.0278 -0.0153
43188W        W86282   8.780  17.533  26.701 -0.1533  0.1205  0.0584
43189W        W86283   7.556  16.899  24.729  0.3508 -0.0435  0.0978
43190W        W86284  10.223  14.964  24.336 -0.1345 -0.2524  0.2226
43191W        W86285   9.446  16.527  23.987  0.2724 -0.0508  0.1537
43192W        W86286   7.546  16.363  25.817  0.0752 -0.1203 -0.1542
43193W        W86287   9.162  19.375  23.512 -0.1434  0.1556 -0.4113
43194W        W86288   9.285  14.900  28.088  0.1625  0.0509  0.0302
43195W        W86289  11.074  17.186  25.287  0.1140  0.2466  0.0527
43196W        W86290   9.943  17.575  25.290 -0.1298 -0.1471 -0.0323
43197W        W86291   9.463  17.388  23.692 -0.0308  0.2143 -0.1310
43198W        W86292   9.188  17.122  25.603 -0.1200 -0.3152 -0.0186
43199W        W86293   9.803  17.952  26.654 -0.0780  0.1075  0.1367
43200W        W86294   9.373  15.616  23.174 -0.0743 -0.1446  0.0458
43201W        W86295   8.406  15.598  26.100  0.0874 -0.1177  0.3843
43202W        W86296  10.082  17.017  24.452  0.0561  0.3828 -0.0049
43203W        W86297   7.928  16.090  25.130 -0.0797  0.2731  0.1744
43204W        W86298   8.963  15.990  25.566 -0.1071  0.4342 -0.2492
43205W        W86299   7.384  16.105  24.858 -0.0634  0.2785 -0.1369
43206W        W86300   9.281  18.840  24.173  0.0294  0.0528 -0.0195
43207W        W86301   9.089  16.619  26.855  0.2902 -0.0667 -0.0155
43208W        W86302   8.870  15.131  28.861  0.4203 -0.0304 -0.1479
43209W        W86303  10.072  17.415  24.829 -0.1953 -0.0522 -0.3413
43210W        W86304   7.746  16.088  23.004  0.2914 -0.0085 -0.2727
43211W        W86305   6.447  17.035  25.397  0.0676 -0.2924 -0.1093
43212W        W86306   6.258  15.369  26.456  0.2152 -0.0650 -0.0647
43213W        W86307   9.426  15.255  25.072  0.1553  0.0636 -0.0808
43214W        W86308  10.667  16.249  26.021 -0.1592 -0.1735  0.0931
43215W        W86309   9.632  17.132  24.779  0.3816  0.1375  0.2336
43216W        W86310   9.192  16.505  25.436 -0.0410  0.2506 -0.1671
43217W        W86311   9.784  16.474  26.683  0.0564 -0.0639 -0.2343
43218W        W86312   7.065  17.880  24.333 -0.2423 -0.0879  0.1685
43219W        W86313   8.153  18.735  24.928  0.3534  0.1520  0.0444
43220W        W86314   8.268  18.234  23.741  0.0476  0.0677  0.0498
43221W        W86315  11.435  16.560  23.564  0.4555  0.2867 -0.0169
43222W        W86316  10.783  17.432  25.602  0.0099 -0.1265 -0.4245
43223W        W86317   9.943  18.810  28.179  0.3007  0.3064 -0.0812
43224W        W86318   7.844  17.990  23.721  0.2180  0.0924 -0.0410
43225W        W86319  10.809  18.060  27.104  0.0687  0.4217 -0.4609
43226W        W86320   7.945  17.834  26.445  0.0918  0.1750 -0.0440
43227W        W86321  10.603  16.412  25.347  0.1754 -0.0872  0.0743
43228W        W86322   8.443  15.643  24.024  0.0325  0.0318  0.1791
43229W        W86323   8.243  16.737  23.387 -0.0443  0.0484 -0.2091
43230W        W86324   8.758  16.581  25.055  0.0934 -0.1871 -0.1324
43231W        W86325   8.495  17.834  28.019  0.0006 -0.1812 -0.0317
43232W        W86326   6.614  17.702  26.154 -0.0695 -0.1555 -0.0137
43233W        W86327  10.748  15.080  26.554  0.1509  0.0661  0.0051
43234W        W86328   7.839  18.379  22.487  0.1274 -0.2455  0.1891
43235W        W86329  10.823  15.984  22.964  0.0534 -0.2733  0.0257
43236W        W86330   8.971  15.770  23.365  0.2987 -0.0025  0.1006
43237W        W86331  10.882  14.194  22.262 -0.2121  0.0009  0.1574
43238W        W86332   8.423  14.954  26.760 -0.1981 -0.0330  0.3022
43239W        W86333   8.766  18.324  25.664  0.1520 -0.1088 -0.1397
43240W        W86334   9.689  15.597  25.407 -0.2620  0.0962  0.1022
43241W        W86335   9.788  17.044  25.708  0.1755  0.1320 -0.0564
43242W        W86336   8.091  16.003  23.770  0.2427 -0.0924  0.1451
43243W        W86337  10.461  15.495  25.105  0.0571 -0.1851 -0.1615
43244W        W86338   7.373  18.633  25.466  0.3380 -0.1251 -0.2346
43245W        W86339   7.814  16.871  25.409  0.0557 -0.1760  0.2127
43246W        W86340  11.026  16.501  23.864  0.0084  0.0561  0.1436
43247W        W86341  11.239  17.356  24.322 -0.4114  0.1634 -0.0326
43248W        W86342   9.615  18.360  23.272 -0.0440  0.2013 -0.1387
43249W        W86343   7.060  15.784  24.539 -0.1943 -0.0487  0.2329
43250W        W86344   8.061  16.996  26.322 -0.0546  0.0079  0.1580
43251W        W86345   8.680  16.352  26.660 -0.2414  0.3305  0.0670
43252W        W86346   8.951  14.691  24.180 -0.0015  0.0264  0.2784
43253W        W86347  10.461  17.612  26.104  0.0175  0.0337 -0.0309
43254W        W86348   7.599  17.819  25.011 -0.0926 -0.0513 -0.1578
43255W        W86349  11.362  15.853  22.867 -0.1546  0.1455 -0.0631
43256W        W86350   7.757  17.847  24.487  0.1637 -0.0687 -0.2845
43257W        W86351  11.348  18.011  24.543 -0.2050  0.2466  0.0623
43258W        W86352  11.320  15.290  22.059  0.1408 -0.0126  0.0635
43259W        W86353   9.443  14.480  25.721 -0.2979  0.0024  0.0960
43260W        W86354   7.683  15.383  28.030 -0.0408 -0.2298  0.1844
43261W        W86355   7.080  16.118  22.623  0.2245 -0.0292 -0.1174
43262W        W86356   8.693  17.725  24.894  0.1324  0.0735 -0.0344
43263W        W86357   9.985  18.332  25.832  0.0878 -0.1118  0.1446
43264W        W86358  10.974  15.690  22.099  0.0904 -0.0263  0.3748
43265W        W86359   8.227  18.432  25.317  0.2385  0.1487 -0.2793
43266W        W86360   8.673  15.652  24.951  0.0743 -0.3415 -0.1301
43267W        W86361   8.364  19.261  26.381  0.1794  0.0953 -0.2811
43268W        W86362   7.775  17.845  21.647  0.0763  0.1377 -0.3012
43269W        W86363   8.882  15.646  25.974  0.0337 -0.0463  0.0976
43270W        W86364   7.508  17.622  24.112  0.2744 -0.0938 -0.2676
43271W        W86365   9.035  15.021  26.363 -0.3016  0.0582  0.0840
43272W        W86366   7.647  16.761  27.321 -0.0427  0.1276  0.0365
43273W        W86367  10.405  14.896  21.895 -0.2821 -0.0116 -0.2660
43274W        W86368   8.596  15.168  26.290  0.2553  0.2544 -0.2218
43275W        W86369  11.561  14.740  25.634 -0.2367  0.4462 -0.1286
43276W        W86370   7.339  17.512  24.617  0.4877 -0.0052 -0.0592
43277W        W86371   9.664  18.682  23.897  0.2427 -0.3331  0.1700
43278W        W86372  10.197  16.029  22.867  0.1411 -0.1543 -0.1313
43279W        W86373   9.320  17.288  24.443  0.1745  0.2727  0.1722
43280W        W86374   7.325  16.256  27.344  0.0780  0.1514  0.1462
43281W        W86375   7.299  15.954  26.670  0.3628  0.3030  0.2957
43282W        W86376   9.011  15.516  27.153 -0.1113 -0.1834 -0.0056
43283W        W86377   8.903  14.911  27.200 -0.0548 -0.2354 -0.0033
43284W        W86378  11.501  13.850  24.031  0.1469  0.1560 -0.2827
43285W        W86379   7.064  16.897  26.242  0.2092 -0.0941  0.0453
43286W        W86380   9.941  15.900  23.303  0.0132 -0.3607 -0.0165
43287W        W86381   7.776  17.311  24.540 -0.2344 -0.1352  0.3663
43288W        W86382   6.615  17.718  24.758  0.0384 -0.0575  0.3431
43289W        W86383   9.243  15.733  25.178  0.1470  0.0501  0.1261
43290W        W86384  10.679  17.041  23.639  0.0349  0.1347 -0.0289
43291W        W86385  10.540  17.141  26.471  0.0453 -0.0236 -0.3487
43292W        W86386   9.286  15.929  26.019 -0.1142  0.0039  0.0287
43293W        W86387   8.775  16.860  25.562  0.3338 -0.1780 -0.3101
43294W        W86388   8.509  16.760  24.062 -0.2529  0.1975  0.2243
43295W        W86389   8.334  17.437  27.139  0.1191  0.0909  0.1318
43296W        W86390   7.938  17.515  23.499 -0.0468 -0.1044 -0.2420
43297W        W86391   7.206  15.491  24.936 -0.0838 -0.2232 -0.0291
43298W        W86392  10.588  18.344  25.634 -0.1753  0.2839  0.1723
43299W        W86393   8.012  16.615  24.553  0.1218 -0.2514  0.1278
43300W        W86394   7.425  17.633  26.469  0.3840  0.2845 -0.0818
43301W        W86395   9.919  15.702  26.916  0.2022 -0.1641  0.0968
43302W        W86396  11.027  16.235  25.555 -0.0333  0.0194 -0.0887
43303W        W86397  10.713  15.193  24.381 -0.3436 -0.2158 -0.1621
43304W        W86398   8.053  15.118  26.061 -0.0933  0.0819  0.2615
43305W        W86399  10.167  18.098  25.427 -0.4230 -0.1704  0.2150
43306W        W86400   8.620  18.274  23.029  0.0403 -0.4215  0.1326
43307W        W86401   7.331  16.661  25.467 -0.1040 -0.2237  0.0354
43308W        W86402   8.408  16.394  23.693 -0.1464  0.1129  0.0760
43309W        W86403  11.525  15.712  23.348 -0.0050  0.0271 -0.2028
43310W        W86404   8.143  16.536  27.885 -0.1815 -0.0884  0.1727
43311W        W86405  10.271  16.040  26.824 -0.0153 -0.1482 -0.4056
43312W        W86406   6.135  16.430  23.683  0.0929  0.3246  0.1531
43313W        W86407   8.978  16.953  26.015 -0.0789  0.1615  0.0574
43314W        W86408  10.737  13.843  24.947 -0.0143 -0.2226 -0.0462
43315W        W86409  10.499  14.665  22.395  0.0086 -0.1746 -0.0434
43316W        W86410   9.407  16.709  24.944  0.0902 -0.0907  0.1267
43317W        W86411   9.909  15.709  22.216 -0.3487  0.0963  0.0499
43318W        W86412   9.979  15.215  23.169 -0.2864  0.1337  0.0591
43319W        W86413   7.960  16.073  24.675 -0.2930  0.0622  0.0695
43320W        W86414   8.761  17.504  27.309 -0.2168  0.2398  0.2367
43321W        W86415   9.498  15.787  23.941 -0.3395  0.1180 -0.0824
43322W        W86416   7.946  16.617  23.761 -0.2913  0.1140  0.0146
43323W        W86417   9.699  14.976  24.252  0.0339 -0.1047 -0.2288
43324W        W86418  10.391  18.363  24.504  0.0345  0.1863 -0.1783
43325W        W86419   8.016  17.594  27.645 -0.3470  0.0833 -0.2082
43326W        W86420   9.751  17.571  26.940  0.2292  0.1574 -0.1085
43327W        W86421   9.689  17.217  24.103 -0.1022 -0.0482 -0.2313
43328W        W86422   9.937  14.598  26.855  0.1685 -0.0327 -0.0538
43329W        W86423   8.521  15.940  23.463 -0.0718 -0.4111  0.1795
43330W        W86424  10.194  15.395  24.613  0.1869  0.1207 -0.0103
43331W        W86425   6.486  17.766  22.560  0.0854 -0.0084  0.0638
43332W        W86426   9.687  15.412  26.636  0.0370  0.0592 -0.1022
43333W        W86427  10.464  15.857  27.253  0.1447  0.3274 -0.3330
43334W        W86428   9.614  14.906  26.548  0.2810  0.0807  0.0079
43335W        W86429  11.887  16.124  26.470  0.2004 -0.0255 -0.0932
43336W        W86430  10.029  15.931  23.852 -0.3717  0.0615  0.0293
43337W        W86431   8.837  17.127  24.293  0.0241  0.2329 -0.0244
43338W        W86432   6.612  16.664  23.821 -0.2862 -0.3704 -0.2335
43339W        W86433  10.529  15.446  27.010  0.1321  0.1683  0.1071
43340W        W86434   7.897  16.666  28.343  0.1278  0.0497  0.0618
43341W        W86435   7.703  18.690  25.885  0.0036 -0.0102  0.1473
43342W        W86436  10.634  18.888  26.419  0.0782  0.0782 -0.1158
43343W        W86437   9.764  16.697  25.369  0.2281 -0.0383  0.1603
43344W        W86438   8.699  17.153  25.184  0.0161 -0.0659 -0.3496
43345W        W86439   7.547  15.708  24.596  0.0944  0.0571 -0.0918
43346W        W86440   6.852  17.420  24.398  0.2853  0.1657  0.0756
43347W        W86441   9.366  18.467  24.539 -0.4009  0.1243  0.3788
43348W        W86442  10.123  16.137  25.824 -0.0960 -0.3531 -0.1351
43349W        W86443   8.978  18.735  25.929  0.0221  0.2344  0.1071
43350W        W86444   7.781  16.141  24.235  0.0353  0.2295 -0.2085
43351W        W86445   8.926  15.848  24.494 -0.0117 -0.1570  0.1358
43352W        W86446   8.246  17.975  23.318 -0.2443 -0.0412 -0.1398
43353W        W86447  10.505  14.467  25.524  0.0440  0.0712 -0.1371
43354W        W86448   7.561  18.151  26.322  0.1772  0.0890  0.2109
43355W        W86449   9.213  16.119  24.207 -0.2131  0.0800 -0.0817
43356W        W86450   4.740  17.085  23.750  0.2960 -0.0777 -0.1714
43357W        W86451  10.015  15.008  24.836  0.0970 -0.1461  0.1194
43358W        W86452   8.871  17.852  22.712  0.2293  0.0141  0.1919
43359W        W86453   8.204  15.098  27.394  0.0296 -0.2949 -0.0077
43360W        W86454   8.586  16.406  25.471 -0.0211  0.4082 -0.1760
43361W        W86455   7.855  18.818  25.313  0.2332 -0.0014 -0.0018
43362W        W86456  10.589  15.965  25.572 -0.0553 -0.1070 -0.1400
43363W        W86457  10.450  13.824  24.139  0.0838 -0.0345 -0.0670
43364W        W86458   8.287  17.798  26.806 -0.0849 -0.0561 -0.1479
43365W        W86459   9.469  15.825  27.064  0.2685  0.2727 -0.1721
43366W        W86460   8.681  14.929  23.804  0.0507  0.2055  0.0960
43367W        W86461   9.573  15.955  26.534 -0.4101  0.0230 -0.3711
43368W        W86462   8.382  17.598  25.332 -0.1836  0.0192  0.3763
43369W        W86463   8.162  18.070  24.239  0.0682  0.1360  0.2380
43370W        W86464  10.002  16.696  24.881 -0.0895  0.1733  0.0744
43371W        W86465   8.149  16.251  23.289 -0.0307  0.0577 -0.0345
43372W        W86466   7.012  16.635  23.475 -0.0477  0.1284 -0.3470
43373W        W86467   8.318  16.030  26.925  0.1518  0.2273 -0.2486
43374W        W86468  11.175  17.060  25.776 -0.0018  0.0690 -0.0327
43375W        W86469   8.677  15.660  26.531  0.0203  0.1540  0.0544
43376W        W86470   8.320  14.730  25.884  0.1437 -0.0838  0.2293
43377W        W86471   7.624  16.372  23.460 -0.1272 -0.0419  0.0773
43378W        W86472   9.641  16.624  24.476  0.0396  0.0196  0.1886
43379W        W86473   8.394  15.979  25.251 -0.0173 -0.0934  0.3006
43380W        W86474   7.841  17.728  25.958 -0.2779 -0.3598 -0.0223
43381W        W86475   9.807  15.281  26.182 -0.0194 -0.2702  0.1747
43382W        W86476  10.685  18.252  23.399 -0.1726  0.3566  0.1456
43383W        W86477  11.180  18.325  26.060 -0.0355 -0.1016  0.1594
43384W        W86478   7.872  16.633  23.054 -0.0755  0.1064 -0.2214
43385W        W86479   6.826  15.731  28.251  0.1456  0.2237  0.0039
43386W        W86480   7.086  17.522  23.912  0.1908 -0.1259  0.1982
43387W        W86481   9.287  14.585  26.214  0.2345 -0.0425 -0.0860
43388W        W86482   8.192  17.658  24.585  0.0823 -0.1128 -0.2098
43389W        W86483   6.798  16.214  24.190 -0.2797 -0.0292  0.0119
43390W        W86484   7.282  17.130  24.267 -0.2589 -0.1459  0.0672
43391W        W86485  11.213  13.617  24.997  0.3672 -0.0199 -0.0829
43392W        W86486   8.810  15.596  22.815 -0.0736  0.3718 -0.2063
43393W        W86487   8.953  16.439  24.584 -0.2162 -0.1440 -0.0335
43394W        W86488  11.172  14.785  26.491 -0.2195 -0.3092  0.3053
43395W        W86489   8.437  16.225  22.346  0.1266 -0.2188  0.1180
43396W        W86490   9.826  15.577  27.402 -0.0784 -0.1535  0.2524
43397W        W86491   9.188  14.949  25.453 -0.2129 -0.0690  0.0247
43398W        W86492  10.007  16.444  24.069 -0.0754  0.2124  0.0921
43399W        W86493   8.628  15.600  25.472  0.0500 -0.2107 -0.2736
43400W        W86494   9.941  17.958  26.216 -0.1200  0.1324  0.1214
43401W        W86495   7.909  17.244  25.835  0.1408 -0.1864  0.3085
43402W        W86496   7.790  16.976  24.160  0.0671  0.1743 -0.2060
43403W        W86497   7.118  15.353  23.762  0.0205  0.0026  0.0831
43404W        W86498   7.747  19.169  24.862 -0.3089 -0.1173 -0.0140
43405W        W86499  12.276  16.200  25.284  0.1804  0.1452  0.3509
43406W        W86500   9.110  18.170  24.218  0.0150 -0.1125  0.2760
43407W        W86501  10.716  15.678  24.135  0.2477  0.1012  0.0104
43408W        W86502   8.594  17.898  25.757  0.1296 -0.3019  0.2360
43409W        W86503   9.191  17.359  24.955 -0.1310 -0.0580 -0.0384
43410W        W86504   8.590  17.225  23.834 -0.1357 -0.0895 -0.1980
43411W        W86505   7.035  16.716  24.146  0.3726  0.0989 -0.0342
43412W        W86506   8.607  16.766  26.390 -0.2517  0.0146 -0.1848
43413W        W86507  10.604  16.702  24.024  0.1156 -0.0737  0.0593
43414W        W86508   8.531  15.985  25.796  0.2080  0.0780 -0.1558
43415W        W86509  10.983  15.845  26.036 -0.2435 -0.1142 -0.0334
43416W        W86510  11.051  16.611  25.184 -0.0172  0.0703 -0.2019
43417W        W86511   9.362  15.459  26.260 -0.1688  0.0002  0.2790
43418W        W86512   6.669  15.626  29.278 -0.0682 -0.1360 -0.0812
43419W        W86513   9.869  18.766  26.033 -0.0184 -0.0489  0.1039
43420W        W86514  11.408  14.645  21.548 -0.2282 -0.1550  0.0391
43421W        W86515  11.189  15.204  25.640 -0.1163 -0.3068 -0.0803
43422W        W86516  10.406  15.961  21.150  0.1850  0.2150  0.1471
43423W        W86517  10.316  15.363  24.071  0.1998  0.0188 -0.2724
43424W        W86518   8.092  16.219  28.311 -0.1594  0.2030 -0.1428
43425W        W86519   9.385  16.703  27.612  0.1455 -0.0343  0.0150
43426W        W86520   7.526  16.451  24.511 -0.2569  0.0169  0.0469
43427W        W86521  10.478  15.650  26.568  0.2898  0.1568  0.3109
43428W        W86522   8.330  17.909  22.800  0.0573 -0.0201 -0.0197
43429W        W86523   9.693  15.554  23.567  0.1142  0.3535 -0.0962
43430W        W86524  10.294  16.513  24.495 -0.1500  0.3960  0.0196
43431W        W86525   7.252  16.450  26.470 -0.2589  0.0157  0.1531
43432W        W86526   8.128  16.500  26.396  0.0549  0.4278 -0.0105
43433W        W86527   8.862  15.296  24.188 -0.1580  0.1900 -0.0928
43434W        W86528   7.229  17.536  22.900  0.1249 -0.7679 -0.1515
43435W        W86529   9.579  17.764  24.143 -0.0393 -0.0403 -0.0183
43436W        W86530  11.549  17.299  26.732  0.0124 -0.1055  0.3550
43437W        W86531   9.842  14.312  25.372 -0.0788 -0.2844 -0.2010
43438W        W86532  11.357  15.244  26.511  0.0189  0.0468 -0.2383
43439W        W86533   8.094  17.164  23.801 -0.4367  0.3263  0.0857
43440W        W86534   8.942  14.640  25.815 -0.2171 -0.3183  0.1405
43441W        W86535   9.557  17.478  25.688  0.0806 -0.3745 -0.0707
43442W        W86536   6.033  17.189  25.831  0.0232 -0.0983 -0.0039
43443W        W86537   8.659  17.999  24.379  0.1973  0.1819  0.1959
43444W        W86538   9.349  16.616  26.492 -0.1607  0.1070  0.0049
43445W        W86539  10.934  15.311  25.196  0.1039 -0.0654 -0.1991
43446W        W86540   8.215  16.386  24.140  0.0061 -0.0152 -0.1165
43447W        W86541  11.036  15.667  23.297 -0.4598  0.1000  0.3279
43448W        W86542   9.524  16.628  25.811  0.2668 -0.0335 -0.1094
43449W        W86543   8.413  16.312  24.824  0.2229 -0.0722 -0.3620
43450W        W86544   9.975  17.482  25.981 -0.0428 -0.4098  0.0019
43451W        W86545  11.826  15.986  24.154 -0.1730 -0.0950  0.0946
43452W        W86546   8.017  18.511  26.271  0.2856  0.1786 -0.0574
43453W        W86547   7.783  16.128  26.979 -0.1749  0.3104  0.0435
43454W        W86548   9.025  17.838  27.596  0.1556  0.0394 -0.0474
43455W        W86549   9.045  16.924  24.732  0.0661  0.0799  0.1675
43456W        W86550   9.422  13.570  25.280 -0.0585  0.2871 -0.0983
43457W        W86551   8.139  18.327  22.880  0.1098  0.1059  0.0368
43458W        W86552   6.120  17.345  27.386 -0.0663  0.2846 -0.0817
43459W        W86553   8.477  16.090  26.279  0.0072 -0.0560 -0.1467
43460W        W86554   8.749  16.824  23.528 -0.1434  0.0726  0.3140
43461W        W86555  11.824  16.050  23.073 -0.0245 -0.0273  0.0498
43462W        W86556   9.755  15.761  24.659  0.0826 -0.2425 -0.0257
43463W        W86557  10.276  17.867  24.781 -0.2803  0.0507 -0.0349
43464W        W86558   7.965  15.658  24.332 -0.1616 -0.2989 -0.0771
43465W        W86559   7.444  18.205  24.185  0.3255 -0.0137  0.0085
43466W        W86560   6.707  17.559  22.954 -0.1060  0.2307  0.0981
43467W        W86561  10.123  18.213  23.389 -0.0358 -0.1706 -0.1568
43468W        W86562   7.668  17.599  25.487  0.1442 -0.0391  0.0441
43469W        W86563  10.710  17.294  27.442 -0.2263  0.0089 -0.0555
43470W        W86564  10.697  15.203  22.384  0.5593  0.0899 -0.0834
43471W        W86565   9.834  16.472  23.570  0.1328 -0.1514  0.2335
43472W        W86566  10.941  14.817  22.121  0.3025 -0.0334  0.1274
43473W        W86567  10.117  17.105  25.299  0.0810  0.1825 -0.1317
43474W        W86568   9.614  16.346  26.193  0.0359  0.0939 -0.4222
43475W        W86569   9.055  14.767  23.269  0.0852  0.0905  0.5205
43476W        W86570   9.521  16.588  27.118  0.1256 -0.2046  0.0908
43477W        W86571  10.612  15.804  27.729 -0.0287 -0.3125 -0.1022
43478W        W86572   7.207  18.352  28.763 -0.2682 -0.0412 -0.0847
43479W        W86573  10.086  19.192  24.612 -0.2495  0.2986  0.3266
43480W        W86574   6.992  16.112  25.160  0.1494 -0.2096  0.2325
43481W        W86575   7.974  16.181  25.970 -0.0321  0.0731 -0.1651
43482W        W86576  10.367  14.912  26.921  0.0336 -0.2471 -0.0252
43483W        W86577   8.495  16.767  24.708 -0.1941 -0.6072  0.2816
43484W        W86578   9.796  16.041  24.248 -0.0815  0.1776  0.1059
43485W        W86579   8.182  17.247  24.947 -0.0876 -0.0415  0.1846
43486W        W86580   8.011  17.632  24.040 -0.0048 -0.0147 -0.3653
43487W        W86581   8.413  16.982  25.930 -0.0143  0.2408  0.0490
43488W        W86582   6.870  15.636  24.125  0.0543 -0.1244 -0.0619
43489W        W86583   9.845  15.513  24.185 -0.1816 -0.1004 -0.2471
43490W        W86584   8.141  15.434  26.495 -0.1321  0.2376  0.1412
43491W        W86585  10.016  15.731  26.349 -0.0226 -0.2240 -0.3387
43492W        W86586   8.252  17.153  24.317  0.2613 -0.6391 -0.1043
43493W        W86587  10.032  16.893  23.925 -0.0890  0.1865 -0.2275
43494W        W86588   9.173  17.492  26.295 -0.0531 -0.0698  0.2670
43495W        W86589   8.562  16.653  27.647  0.2460 -0.1692 -0.0081
43496W        W86590   9.473  16.182  23.615  0.2192  0.0394 -0.1102
43497W        W86591  11.095  16.484  26.082  0.0538  0.0336 -0.1452
43498W        W86592   8.433  14.857  24.229 -0.1589  0.2971  0.3408
43499W        W86593  11.361  17.531  25.651 -0.0154 -0.0217 -0.2972
43500W        W86594   5.647  16.420  25.701  0.2930 -0.0933  0.1127
43501W        W86595   9.309  15.605  24.336 -0.1870  0.1412  0.1117
43502W        W86596   7.016  17.067  24.752  0.0692 -0.1105  0.0269
43503W        W86597   9.947  16.243  24.727  0.3483  0.0902 -0.2118
43504W        W86598  10.363  17.170  25.772  0.2061 -0.0232 -0.0431
43505W        W86599   6.592  14.434  23.562 -0.0630 -0.5325 -0.0703
43506W        W86600  10.820  16.483  23.365 -0.2271  0.0118  0.0462
43507W        W86601  10.781  14.770  26.103  0.0062  0.3216  0.0956
43508W        W86602   8.758  16.126  22.761 -0.1166  0.1176  0.0024
43509W        W86603  11.112  15.334  24.677 -0.0469 -0.2699  0.0329
43510W        W86604  10.460  16.954  24.905 -0.1520  0.1416 -0.1109
43511W        W86605   8.097  16.587  27.346 -0.4124  0.0845  0.2393
43512W        W86606  10.603  16.934  25.369  0.1942 -0.0654  0.0477
43513W        W86607  10.188  15.844  24.891  0.0721 -0.0570 -0.0315
43514W        W86608   8.140  15.586  24.822 -0.2505 -0.2301 -0.1063
43515W        W86609   7.568  16.099  26.305  0.1148  0.1798  0.1029
43516W        W86610   8.968  15.732  23.924  0.0996  0.1490  0.1409
43517W        W86611  10.912  16.012  23.675 -0.0666 -0.0628  0.1592
43518W        W86612  10.116  14.814  25.630 -0.3839  0.0356  0.3958
43519W        W86613   8.310  17.939  21.683 -0.2910 -0.2566 -0.0239
43520W        W86614   9.482  13.652  27.915  0.0378  0.1722  0.1264
43521W        W86615   8.570  18.026  25.266  0.0216  0.0731  0.0443
43522W        W86616   8.047  18.173  28.273 -0.0117 -0.2535 -0.1304
43523W        W86617   7.598  16.915  23.410 -0.0022 -0.0090  0.2135
43524W        W86618   9.752  17.928  25.734  0.1143 -0.0140 -0.0703
43525W        W86619   8.400  17.702  23.701  0.1798  0.1478 -0.2363
43526W        W86620   8.780  18.312  23.464 -0.0407  0.2428  0.0186
43527W        W86621  11.130  16.982  23.523  0.1644  0.0532  0.0378
43528W        W86622   9.610  15.311  24.632  0.1219  0.0912  0.0116
43529W        W86623  10.410  17.194  24.037  0.2821 -0.0266 -0.2450
43530W        W86624   9.105  14.416  25.379 -0.3273 -0.1587  0.2495
43531W        W86625  10.281  15.014  23.519 -0.0893  0.0722  0.0094
43532W        W86626  11.268  14.392  24.411 -0.0108 -0.0598 -0.0257
43533W        W86627   7.221  17.350  25.322 -0.0729  0.0064 -0.2683
43534W        W86628   5.874  18.439  24.437 -0.1783  0.1251  0.1235
43535W        W86629   6.316  16.459  24.164 -0.0766 -0.3004  0.3119
43536W        W86630   5.845  16.905  27.092 -0.0424  0.0632 -0.2220
43537W        W86631   8.175  14.110  28.053 -0.1461  0.1566  0.0676
43538W        W86632   7.937  15.815  27.486  0.0449  0.1898  0.2537
43539W        W86633   7.217  16.609  24.980  0.0928 -0.1823 -0.0100
43540W        W86634   7.172  16.289  23.872  0.3074 -0.1101 -0.0143
43541W        W86635  10.708  17.474  23.444  0.0268  0.3171  0.0889
43542W        W86636   8.563  15.344  27.116 -0.1422  0.5311  0.1087
43543W        W86637   7.214  15.716  25.361  0.3517  0.0948 -0.1610
43544W        W86638   8.612  16.417  23.192 -0.0352 -0.0136  0.0632
43545W        W86639   9.782  18.264  24.224 -0.3386  0.1110 -0.0540
43546W        W86640   8.110  15.766  25.592  0.0966 -0.2047  0.1176
43547W        W86641  10.700  18.269  26.204 -0.1830  0.0332 -0.0373
43548W        W86642   7.565  17.368  23.188 -0.0492  0.2936 -0.1410
43549W        W86643  10.660  14.632  26.588  0.2892  0.1770 -0.0477
43550W        W86644   9.826  15.072  27.683  0.2905 -0.0115  0.0044
43551W        W86645   7.796  15.554  23.852  0.1496  0.1029 -0.1085
43552W        W86646   9.371  16.056  24.693 -0.0170 -0.0967  0.1188
43553W        W86647   9.842  17.820  23.331  0.1074  0.3697 -0.1514
43554W        W86648   8.658  17.715  23.240  0.0626 -0.2836 -0.2363
43555W        W86649   9.079  17.632  25.838  0.0924 -0.1490 -0.0155
43556W        W86650   9.449  18.520  25.883 -0.1092  0.0282 -0.0973
43557W        W86651   6.157  14.884  27.794  0.2048 -0.1222 -0.3309
43558W        W86652   8.907  16.214  23.611  0.0300 -0.1897  0.3133
43559W        W86653   9.513  16.986  26.142 -0.1312  0.2637  0.1581
43560W        W86654  10.271  15.812  24.329 -0.2025 -0.0435  0.1123
43561W        W86655  10.165  15.787  25.424  0.0101  0.2030  0.0089
43562W        W86656  11.379  16.067  23.902  0.0478  0.1306  0.0614
43563W        W86657   7.061  14.919  27.128 -0.0725 -0.1214 -0.0841
43564W        W86658   8.440  16.967  28.603 -0.1505 -0.2448 -0.0328
43565W        W86659   9.712  15.716  25.894  0.0267 -0.3443 -0.1215
43566W        W86660   9.172  15.452  25.593 -0.0255  0.1463 -0.0128
43567W        W86661   9.682  15.131  25.623 -0.1824  0.1888 -0.2908
43568W        W86662   8.906  17.453  23.546  0.1078 -0.0794  0.1078
43569W        W86663   7.884  16.709  25.948 -0.0077  0.1561  0.1244
43570W        W86664   8.525  15.371  24.514  0.0890  0.0034 -0.0488
43571W        W86665  10.788  16.719  25.761 -0.0392  0.1588  0.2132
43572W        W86666   8.289  17.489  26.357 -0.1230 -0.0857 -0.5381
43573W        W86667  10.459  16.778  26.120 -0.0130  0.3487 -0.1041
43574W        W86668   7.083  17.037  23.765  0.0288 -0.1499 -0.1336
43575W        W86669  10.452  15.113  22.895  0.0502 -0.0442  0.0362
43576W        W86670   9.044  18.218  24.819 -0.0903  0.0476  0.1997
43577W        W86671  11.391  17.889  27.729 -0.0926 -0.1053 -0.1970
43578W        W86672   9.662  16.131  25.636 -0.2686 -0.2323 -0.0186
43579W        W86673  10.440  16.865  27.258 -0.0854 -0.0492  0.0995
43580W        W86674   8.428  15.057  25.524 -0.2216  0.1548 -0.0220
43581W        W86675   8.095  16.392  25.521  0.1586  0.2006  0.1862
43582W        W86676   7.493  16.145  25.349  0.0496 -0.0760  0.0531
43583W        W86677  10.549  16.143  24.694 -0.1670 -0.0322 -0.1310
43584W        W86678   8.025  15.981  26.481 -0.3289  0.1867  0.2233
43585W        W86679   8.700  14.800  24.677  0.0006  0.0326 -0.2638
43586W        W86680   9.419  17.913  26.118  0.0494  0.0051 -0.3177
43587W        W86681   9.074  17.570  23.996  0.1824 -0.2998  0.1895
43588W        W86682   7.548  15.323  30.417  0.3008 -0.0692 -0.0342
43589W        W86683   8.119  15.542  27.059 -0.1527 -0.1502  0.0107
43590W        W86684  10.306  16.365  27.270  0.1181  0.0689  0.1156
43591W        W86685  10.000  16.725  27.075 -0.0028 -0.0186 -0.2028
43592W        W86686   7.229  15.753  29.788  0.3065  0.0225  0.3298
43593W        W86687   8.915  17.446  28.014  0.4529 -0.0485  0.0266
43594W        W86688   7.871  14.993  31.343  0.0339  0.0105  0.0162
43595W        W86689  10.796  16.507  27.446  0.0877  0.0102  0.0188
43596W        W86690  10.693  17.267  28.279 -0.0338 -0.0224  0.3841
43597W        W86691   8.833  17.047  26.999  0.1314  0.0328  0.1465
43598W        W86692   9.578  14.613  30.489 -0.1985  0.0551 -0.0423
43599W        W86693   9.112  17.587  30.323 -0.2854 -0.4369 -0.0744
43600W        W86694   9.112  14.109  29.523  0.0960  0.0799  0.1775
43601W        W86695   8.061  15.416  31.670 -0.2012  0.1397 -0.1276
43602W        W86696  11.543  15.697  28.090  0.2403  0.1979  0.1248
43603W        W86697   8.072  16.074  28.818 -0.0617  0.0329 -0.1145
43604W        W86698   9.170  16.763  30.631  0.2053 -0.0500 -0.1675
43605W        W86699   8.785  15.783  28.116  0.1100 -0.2165  0.3989
43606W        W86700   9.152  17.980  28.876 -0.0193 -0.0251 -0.2648
43607W        W86701   9.943  15.660  29.666  0.1486 -0.2221  0.0689
43608W        W86702   8.965  14.845  31.091  0.0584 -0.3202 -0.3348
43609W        W86703   9.115  16.866  28.894 -0.0821  0.2759 -0.1858
43610W        W86704   9.138  15.732  26.673 -0.0414  0.1082 -0.1103
43611W        W86705   7.785  15.175  30.026 -0.1778  0.0928  0.4109
43612W        W86706   8.944  15.999  29.980  0.0377 -0.0332  0.1048
43613W        W86707  10.445  14.286  29.901  0.2204  0.0452  0.1398
43614W        W86708  11.183  16.044  27.786 -0.0972  0.0101 -0.1309
43615W        W86709   8.248  18.422  30.059 -0.0927  0.0720  0.0787
43616W        W86710   8.273  18.024  29.154 -0.1946 -0.1047 -0.2820
43617W        W86711  10.255  13.794  31.307 -0.0075  0.1767  0.0554
43618W        W86712   7.516  17.497  29.785 -0.3268 -0.5032 -0.1097
43619W        W86713   7.613  15.900  29.013  0.0355 -0.4988 -0.0342
43620W        W86714   9.535  17.711  28.730  0.0905  0.2893 -0.0974
43621W        W86715  12.130  17.350  28.016 -0.0906  0.1133  0.2997
43622W        W86716  11.802  17.374  28.390  0.2052 -0.0323 -0.0990
43623W        W86717   9.532  17.245  31.515 -0.2246 -0.3969 -0.0869
43624W        W86718   7.805  18.580  28.594  0.1294  0.0353  0.2079
43625W        W86719  10.462  17.305   0.004  0.1155  0.3974  0.1539
43626W        W86720   9.805  18.090  31.078 -0.1421  0.1290  0.0049
43627W        W86721  11.158  16.042  29.590  0.0174 -0.0717  0.0976
43628W        W86722  11.803  15.900  29.064  0.1887  0.0992 -0.0812
43629W        W86723   8.018  18.136  27.241 -0.3031  0.1626 -0.2567
43630W        W86724  10.228  17.549  29.764 -0.0730 -0.2830 -0.0629
43631W        W86725   9.301  17.920  30.029  0.1298  0.1407 -0.1549
43632W        W86726   8.188  15.888  29.524 -0.1653 -0.1375 -0.2781
43633W        W86727   9.879  15.365  31.489 -0.0056  0.2616 -0.1960
43634W        W86728   8.485  18.901  26.010  0.1077 -0.0172  0.1648
43635W        W86729  10.948  15.616  26.526  0.2528 -0.2224 -0.2996
43636W        W86730   9.446  14.434  28.212  0.0046 -0.2286 -0.1630
43637W        W86731  10.205  14.741  27.371  0.3025 -0.2382 -0.0268
43638W        W86732   9.860  14.574  27.712 -0.0408 -0.0084 -0.5818
43639W        W86733   9.463  17.690  29.260 -0.2072  0.1580 -0.0068
43640W        W86734   8.711  14.487  30.358  0.1646 -0.0742 -0.1540
43641W        W86735   9.622  16.415  28.000 -0.2504  0.1385  0.1345
43642W        W86736   9.426  15.500  28.339  0.1082  0.0110  0.1971
43643W        W86737  10.581  16.087  28.223  0.0412 -0.1872  0.2105
43644W        W86738   9.368  17.489  29.737  0.1629  0.1925 -0.2016
43645W        W86739   8.033  16.595  28.849  0.2990  0.1838 -0.0848
43646W        W86740  10.365  18.050  25.942 -0.1124  0.0385  0.3560
43647W        W86741  10.969  17.558  27.793  0.0479  0.3396  0.1902
43648W        W86742   9.738  16.975  26.730 -0.3877  0.0540 -0.0410
43649W        W86743   6.845  16.077  29.030 -0.4695 -0.1114 -0.0442
43650W        W86744   7.204  16.779  30.577 -0.1527 -0.0876  0.1542
43651W        W86745   8.539  15.440  31.776  0.2024 -0.0190 -0.1830
43652W        W86746   9.096  15.834  27.563  0.4621 -0.2029 -0.0524
43653W        W86747  10.558  17.605  30.243  0.1597 -0.0232 -0.0064
43654W        W86748   8.784  16.658  31.297  0.4071  0.0544  0.1810
43655W        W86749  10.345  16.650  29.897 -0.3286 -0.0509 -0.0409
43656W        W86750  10.792  16.443  28.550  0.1060 -0.0592  0.0474
43657W        W86751   8.460  17.427  28.826 -0.3340  0.1204 -0.1919
43658W        W86752  10.073  17.069  26.282  0.0233 -0.4162  0.0604
43659W        W86753  10.862  15.462  29.640  0.0025 -0.3389  0.0605
43660W        W86754  10.391  14.659  28.640  0.0283  0.0770 -0.2161
43661W        W86755   8.696  17.254  26.295  0.2382 -0.0255  0.2265
43662W        W86756  11.205  16.438  27.112 -0.2016  0.0317 -0.1739
43663W        W86757  10.711  18.004  29.929 -0.0265 -0.1319  0.1051
43664W        W86758  11.198  16.854  26.834 -0.0173  0.0093  0.0552
43665W        W86759   7.828  17.797  28.989  0.1403 -0.0990 -0.0469
43666W        W86760   9.156  14.801  31.631  0.1605  0.1983  0.2635
43667W        W86761   9.723  17.851  29.738  0.0127  0.2729  0.2988
43668W        W86762   7.128  17.761  29.591 -0.4476 -0.2880 -0.0230
43669W        W86763   6.249  18.343  29.229  0.0319  0.0091 -0.0379
43670W        W86764   8.270  16.594  26.852 -0.5546  0.0181  0.0142
43671W        W86765   8.312  15.946  31.518  0.0164 -0.0699  0.0427
43672W        W86766  10.026  16.085  29.404 -0.1507  0.0852 -0.1801
43673W        W86767  10.839  15.542  27.375 -0.4037  0.2670  0.1873
43674W        W86768   8.090  15.532  30.620 -0.0983  0.0240  0.0662
43675W        W86769  10.384  14.264  28.930 -0.2490 -0.0534 -0.2157
43676W        W86770   8.627  17.366  29.544 -0.2286  0.0956 -0.0335
43677W        W86771  10.215  16.701  28.546  0.1078  0.3408  0.0776
43678W        W86772  10.109  15.946  27.592 -0.1927 -0.1358  0.0769
43679W        W86773   9.871  17.412  28.472 -0.0544  0.0786 -0.3104
43680W        W86774   7.695  16.430  31.220  0.1046 -0.1462  0.5431
43681W        W86775   8.462  15.949  28.549  0.1260 -0.2696 -0.0148
43682W        W86776   8.137  15.530   0.148  0.1237 -0.0051  0.0521
43683W        W86777   8.622  15.258  30.993  0.0331 -0.1706  0.0703
43684W        W86778   9.463  16.530  31.029  0.1246 -0.0230 -0.1901
43685W        W86779   6.499  14.675  27.470 -0.3117  0.0034  0.2444
43686W        W86780   9.922  16.396  27.597  0.1211  0.1885  0.1036
43687W        W86781   9.673  15.411  28.791  0.0067 -0.0691  0.2250
43688W        W86782   8.112  17.052  27.599  0.1283  0.1086 -0.0072
43689W        W86783  11.039  14.950  29.321 -0.0986  0.0102  0.2015
43690W        W86784   8.808  18.283  27.700 -0.3918  0.0092 -0.1709
43691W        W86785  10.995  17.978  30.393 -0.0458 -0.3119 -0.2226
43692W        W86786  11.814  17.852  28.750  0.0913 -0.2453 -0.0221
43693W        W86787   9.174  14.313  30.203  0.1161  0.2634 -0.0014
43694W        W86788   7.584  17.361  27.942  0.0707 -0.0177  0.1446
43695W        W86789   7.749  18.040  29.952  0.2197 -0.0537 -0.0656
43696W        W86790   8.555  16.712  29.000  0.0671  0.0589 -0.2006
43697W        W86791   8.027  15.018  29.156 -0.0361 -0.2114 -0.0181
43698W        W86792  10.925  16.947  29.094 -0.0852 -0.3048 -0.1905
43699W        W86793   8.515  15.926  29.071 -0.2046  0.0405  0.1657
43700W        W86794   8.091  17.312  29.732  0.1080 -0.1705 -0.1043
43701W        W86795   8.951  14.551  29.849  0.2482  0.0855 -0.0361
43702W        W86796  10.863  16.459  29.700  0.2810 -0.1836  0.3672
43703W        W86797  10.714  14.669  28.214 -0.0492 -0.3068 -0.1081
43704W        W86798   5.626  15.839  27.601 -0.0779 -0.0436  0.0196
43705W        W86799   9.576  18.149  29.054 -0.1254 -0.0183 -0.0228
43706W        W86800   7.674  18.492  27.958 -0.3306  0.0522  0.0264
43707W        W86801   6.144  17.326  28.071 -0.2136  0.2324 -0.3426
43708W        W86802   9.314  19.102  28.686 -0.0922 -0.2258 -0.1844
43709W        W86803  10.867  13.769  27.755  0.2206  0.0439 -0.1121
43710W        W86804   9.013  15.363  30.613 -0.1976 -0.2426  0.1190
43711W        W86805   9.957  14.000  31.609 -0.0555  0.0205 -0.0161
43712W        W86806   7.731  16.805  27.834 -0.2795  0.0740 -0.0568
43713W        W86807   9.140  17.650  31.339 -0.0191  0.0595 -0.2823
43714W        W86808  10.713  15.523  28.298 -0.4303  0.2505  0.3334
43715W        W86809  11.109  14.922  28.288 -0.0381 -0.3646  0.0540
43716W        W86810   9.813  15.501  30.168  0.1811 -0.0822 -0.0032
43717W        W86811  11.231  17.382  28.203  0.0476  0.0643  0.2702
43718W        W86812  10.231  16.234  26.366  0.0614  0.3506  0.1973
43719W        W86813  10.082  15.925  28.133 -0.0672  0.0342 -0.2774
43720W        W86814   8.579  16.048  31.000 -0.1215  0.0220  0.0532
43721W        W86815   8.859  16.685  28.341 -0.0878  0.1561 -0.2241
43722W        W86816   9.324  16.550  28.541  0.0975 -0.0186  0.3082
43723W        W86817   8.996  16.133  26.980 -0.3357  0.0538 -0.1575
43724W        W86818   9.333  17.123  27.151  0.2157 -0.0089 -0.1918
43725W        W86819   7.741  15.802  28.559  0.1803  0.2237  0.2006
43726W        W86820  10.823  16.857  31.145 -0.1024 -0.2716 -0.0655
43727W        W86821   7.745  17.305  29.360  0.0936  0.2327  0.0764
43728W        W86822   8.619  13.328  29.993 -0.1425  0.0792  0.2391
43729W        W86823   8.577  14.096  29.508 -0.2460 -0.2932 -0.4874
43730W        W86824   7.404  15.470  28.701  0.1548  0.0243  0.2578
43731W        W86825   6.432  19.146  29.128  0.0983  0.0562 -0.0788
43732W        W86826  11.671  14.887  29.172 -0.2013  0.2875  0.1289
43733W        W86827  11.582  15.230  27.891 -0.0922 -0.0828 -0.0934
43734W        W86828   9.556  14.602  29.975 -0.1001  0.1440  0.2014
43735W        W86829  10.643  15.729  31.588  0.2009 -0.1216  0.1050
43736W        W86830  10.243  17.347  27.626  0.2247 -0.0681  0.2582
43737W        W86831  10.176  17.168  28.835 -0.3193 -0.0450 -0.3378
43738W        W86832   9.242  17.067  27.978 -0.0767  0.0124  0.2683
43739W        W86833   9.546  15.349  29.741 -0.0006 -0.0835  0.1601
43740W        W86834   8.696  15.114  29.812  0.2476 -0.3787 -0.0572
43741W        W86835   9.261  19.359  30.233  0.0065  0.0970  0.2131
43742W        W86836   9.906  17.398  30.736  0.0507  0.2579  0.1951
43743W        W86837   9.827  16.922  27.784  0.0679  0.2733  0.2560
43744W        W86838   9.058  15.910  31.208  0.0066 -0.1702  0.0563
43745W        W86839   8.313  15.862  27.904 -0.2214  0.4697 -0.1689
43746W        W86840   8.678  18.778  28.639 -0.1956 -0.2864  0.0537
43747W        W86841   7.678  17.247  27.433  0.0229 -0.0231  0.0247
43748W        W86842   9.924  16.401  29.069  0.0326  0.0787 -0.0015
43749W        W86843   9.733  17.341  28.964  0.0368 -0.0561  0.0766
43750W        W86844   9.286  18.758  26.346  0.0769  0.0096  0.1793
43751W        W86845  11.145  16.093  28.642  0.1009  0.1846  0.1991
43752W        W86846   8.234  19.141  29.376 -0.0862  0.4050  0.2544
43753W        W86847  10.928  13.930  28.374  0.0632 -0.3253 -0.1145
43754W        W86848   7.448  18.961  30.118  0.0681  0.1807  0.0957
43755W        W86849   9.165  16.162  27.976  0.1186  0.0340  0.0430
43756W        W86850   7.147  16.903  28.779  0.0551 -0.0067  0.0369
43757W        W86851  10.874  15.860  29.150  0.0128  0.0066 -0.0212
43758W        W86852  10.661  16.172  26.560 -0.1990 -0.0809  0.0366
43759W        W86853   9.858  15.918  28.936  0.0547  0.3427 -0.1845
43760W        W86854   9.083  14.645  28.805  0.1178  0.0963 -0.0074
43761W        W86855   9.288  16.520  29.608 -0.0366  0.3914  0.0138
43762W        W86856   9.558  16.939  29.754 -0.1144 -0.1105 -0.2647
43763W        W86857  10.194  13.812  29.083 -0.0893 -0.0496 -0.2684
43764W        W86858   9.819  17.396  29.456  0.2404  0.0771  0.0858
43765W        W86859   8.905  15.816  30.722 -0.3799  0.0176 -0.3472
43766W        W86860   6.460  16.049  27.416 -0.3180 -0.0839  0.4855
43767W        W86861  10.865  17.007  29.569 -0.1242  0.0168  0.2264
43768W        W86862   8.411  15.385  28.960  0.1554 -0.2568 -0.0882
43769W        W86863   8.080  18.608  29.110 -0.1204  0.3494  0.0010
43770W        W86864   9.517  17.276  27.581 -0.3608  0.0738  0.1741
43771W        W86865   9.683  18.342  27.454 -0.2042 -0.2636  0.2096
43772W        W86866   7.222  18.127  29.275 -0.0576  0.1833 -0.3816
43773W        W86867  10.063  16.173   0.292  0.0601  0.0316 -0.2268
43774W        W86868  10.813  15.368  29.168 -0.2574 -0.0002  0.2013
43775W        W86869   9.430  16.155  30.297  0.3077  0.1058 -0.5310
43776W        W86870   9.374  15.044  28.576  0.1313 -0.2890  0.0117
43777W        W86871   9.533  16.002  28.317  0.1480 -0.1936  0.1206
43778W        W86872  10.207  15.307  28.321 -0.2391  0.0902 -0.0144
43779W        W86873  10.343  15.309  30.143 -0.0337  0.2457 -0.0289
43780W        W86874   9.053  17.186  29.925 -0.2132 -0.0343 -0.1694
43781W        W86875  10.596  16.050  29.590  0.2853 -0.1726 -0.2396
43782W        W86876  12.258  17.098  25.731 -0.1766 -0.1836 -0.0875
43783W        W86877  11.030  16.178  30.141  0.1856  0.2603  0.0575
43784W        W86878   8.371  17.086  26.757 -0.0129 -0.2948 -0.1431
43785W        W86879   7.918  16.813  29.476 -0.0839  0.3888  0.2061
43786W        W86880   7.180  17.348  28.473 -0.0046  0.2356 -0.2192
43787W        W86881   8.713  14.080  30.833  0.0971 -0.0203 -0.0783
43788W        W86882   9.366  15.556  29.180 -0.0451  0.0886  0.0766
43789W        W86883   9.024  19.202  27.501 -0.0739 -0.2798  0.1718
43790W        W86884   7.516  17.693  30.953  0.2611  0.0432  0.0099
43791W        W86885   8.402  13.881  28.507  0.1377 -0.1011  0.1978
43792W        W86886   8.066  17.122  28.111 -0.4726  0.4016  0.2503
43793W        W86887  10.064  14.406  30.623 -0.1930  0.1064  0.0411
43794W        W86888  10.562  16.202  30.076 -0.2666  0.0779  0.1851
43795W        W86889   9.844  16.137  27.122 -0.1181  0.1020  0.0787
43796W        W86890   9.375  13.243  29.690 -0.0714 -0.0899 -0.2184
43797W        W86891   7.813  13.685  30.916  0.5089  0.1806 -0.3059
43798W        W86892  10.583  16.772  28.175 -0.0345 -0.1628  0.0400
43799W        W86893   9.723  16.524  30.042 -0.0954 -0.0652 -0.1488
43800W        W86894  10.304  17.148  31.108 -0.3963 -0.2121  0.0917
43801W        W86895   8.304  16.223   0.827 -0.2478  0.0395 -0.2359
43802W        W86896  11.254  16.585  27.592  0.1359  0.2927 -0.4011
43803W        W86897   8.884  14.856  28.378 -0.2509 -0.0263 -0.1710
43804W        W86898   9.554  16.837  29.257  0.2062  0.1109 -0.1375
43805W        W86899  12.276  17.316  27.232 -0.0637 -0.0804 -0.2583
43806W        W86900   8.977  16.610  27.891 -0.2661  0.3035  0.0082
43807W        W86901  10.545  15.127  28.743  0.0642  0.0936 -0.1131
43808W        W86902   8.586  16.953  29.970 -0.0826 -0.0637  0.3180
43809W        W86903  10.526  16.646  29.413 -0.1565  0.0227  0.1938
43810W        W86904   8.863  15.226  26.779 -0.0918 -0.3341 -0.1266
43811W        W86905   9.844  16.548  29.561  0.1562  0.3935  0.0096
43812W        W86906   9.391  15.584  31.430  0.2256  0.1673 -0.2043
43813W        W86907  11.030  15.902  28.225  0.0085 -0.0819 -0.3157
43814W        W86908  10.459  16.094  29.095 -0.0779 -0.1449 -0.1463
43815W        W86909   9.830  14.822  28.868 -0.1388 -0.2398  0.0473
43816W        W86910   9.964  15.039  29.694 -0.0417  0.0206  0.1045
43817W        W86911  10.312  16.795  31.547  0.0404 -0.4693 -0.3573
43818W        W86912   7.647  14.700  31.699 -0.4164 -0.0930 -0.1441
43819W        W86913  10.230  17.917  30.096 -0.1960 -0.1223  0.0759
43820W        W86914  11.931  16.988  26.928 -0.0432  0.0312 -0.2076
43821W        W86915  12.219  15.588  29.160 -0.2106 -0.0007 -0.0455
43822W        W86916   9.897  17.142  27.287  0.2409 -0.3696  0.2483
43823W        W86917  10.108  16.247  25.329  0.1589  0.1322  0.3065
43824W        W86918   9.122  15.402  30.044 -0.1041 -0.0880  0.1752
43825W        W86919  10.220  16.354  30.510  0.4489 -0.3182 -0.0871
43826W        W86920   7.792  15.785  29.891  0.0071  0.1814  0.0239
43827W        W86921  10.024  17.015  29.756 -0.0034 -0.0910 -0.1318
43828W        W86922   8.315  18.059  26.152  0.2628  0.0500 -0.0210
43829W        W86923  10.261  18.370  29.919  0.0166  0.0506 -0.0915
43830W        W86924   8.474  14.273  27.732 -0.0701  0.2406 -0.1097
43831W        W86925   9.344  16.014  30.809 -0.0281 -0.1011  0.0788
43832W        W86926   8.492  18.483  30.925  0.3038 -0.0790  0.0098
43833W        W86927   9.378  15.390  27.535 -0.4281 -0.0963  0.5739
43834W        W86928   7.969  17.227  28.623 -0.2244 -0.2202 -0.1760
43835W        W86929   9.686  17.519  30.184  0.0855 -0.0649 -0.1498
43836W        W86930   9.805  15.918  31.087 -0.1468  0.1106 -0.0867
43837W        W86931  10.237  15.246  27.387 -0.1705  0.0328  0.0016
43838W        W86932  10.515  15.719  29.884 -0.2212  0.3275 -0.0283
43839W        W86933   8.392  17.873  27.404 -0.1333  0.4002  0.0814
43840W        W86934  10.280  14.851  29.224  0.1750  0.3500  0.0257
43841W        W86935   8.913  18.033  30.611 -0.1558  0.1333 -0.4254
43842W        W86936   9.087  17.456  28.865 -0.2647 -0.2165 -0.0834
43843W        W86937   8.960  18.623  28.120  0.2285  0.1911 -0.2448
43844W        W86938   8.939  14.708  29.343 -0.1672 -0.3073 -0.0740
43845W        W86939   8.514  17.438  27.705  0.0218 -0.2253  0.1633
43846W        W86940  10.317  15.614  29.329 -0.1060 -0.0485 -0.1109
43847W        W86941  11.712  15.778  30.617 -0.0327 -0.0931  0.3114
43848W        W86942   9.540  17.069   0.021 -0.1662 -0.3335  0.0968
43849W        W86943   9.377  15.666  30.392  0.1540 -0.0161 -0.1968
43850W        W86944  10.106  17.657  31.174 -0.3924  0.4762  0.0323
43851W        W86945   9.347  17.682  27.292 -0.0813  0.3100 -0.1433
43852W        W86946   7.651  18.139  28.522  0.0498 -0.0046  0.0510
43853W        W86947   5.756  16.008  30.866 -0.2082  0.1517  0.1432
43854W        W86948   9.796  16.772  31.468  0.1245 -0.2721 -0.0496
43855W        W86949  11.366  16.461  26.573  0.0003 -0.1624  0.1500
43856W        W86950   7.564  14.517  28.655 -0.0997  0.1807 -0.2235
43857W        W86951   8.159  17.537  29.292  0.0437 -0.0895 -0.1858
43858W        W86952   9.248  17.196  29.306  0.1541 -0.0584  0.0424
43859W        W86953   8.064  16.602  30.473  0.3824  0.0257 -0.1693
43860W        W86954   7.268  17.096  27.680  0.0100 -0.1509  0.0273
43861W        W86955  10.231  16.624  25.567 -0.0491 -0.1789 -0.3693
43862W        W86956  10.131  16.488  28.095  0.2456  0.1345  0.0701
43863W        W86957   9.974  17.826  29.210 -0.0797  0.1003 -0.1993
43864W        W86958   8.311  16.151  27.556 -0.0898  0.1065 -0.0374
43865W        W86959   8.394  16.930  29.491  0.1952  0.0595 -0.1293
43866W        W86960   6.363  18.783  28.792 -0.2502  0.1291 -0.0019
43867W        W86961  10.247  17.617  26.583  0.2296 -0.4501 -0.0949
43868W        W86962   8.745  19.166  29.541  0.0987  0.2569 -0.0168
43869W        W86963  10.486  17.865  29.033  0.0049 -0.1567 -0.0756
43870W        W86964  11.110  14.916  27.789 -0.2917  0.2190  0.4482
43871W        W86965  10.960  16.437  28.039  0.3572  0.3915 -0.3609
43872W        W86966  11.926  16.019  28.255 -0.0222  0.1534  0.2265
43873W        W86967  10.641  16.939  28.650  0.2683  0.0477  0.2194
43874W        W86968   8.397  14.250  30.031 -0.2901  0.0233 -0.0457
43875W        W86969   8.304  14.564  29.162  0.0180  0.2163 -0.0617
43876W        W86970   9.218  16.735  31.744 -0.1607  0.2534  0.1272
43877W        W86971  11.942  15.507  30.948  0.1953  0.1507  0.2917
43878W        W86972   7.578  18.368  31.372  0.2491  0.2072  0.1538
43879W        W86973  11.036  16.952  27.309 -0.2907  0.0739 -0.2629
43880W        W86974   7.210  17.256  29.442 -0.1106  0.3575  0.1392
43881W        W86975  10.142  16.152  29.870 -0.0547 -0.0397  0.1456
43882W        W86976  11.310  14.431  28.381 -0.1268 -0.1539 -0.2014
43883W        W86977   8.541  16.378  27.207  0.0487 -0.0893 -0.2562
43884W        W86978   8.802  15.527  29.248 -0.2249 -0.3211 -0.0128
43885W        W86979   8.278  18.360  28.718  0.2520 -0.2034 -0.1040
43886W        W86980   8.735  16.520  29.820  0.1794 -0.0784 -0.0473
43887W        W86981   9.600  16.012  29.889  0.3663  0.0185 -0.0490
43888W        W86982   7.008  16.081  29.505  0.1814 -0.2032  0.0076
43889W        W86983  11.098  15.378  28.019  0.0397 -0.1693 -0.1813
43890W        W86984  10.018  15.023  31.800 -0.0577  0.1176 -0.4673
43891W        W86985  10.405  16.534  28.964  0.0882 -0.2267 -0.0783
43892W        W86986   9.799  16.368  28.562  0.1684  0.0826 -0.0267
43893W        W86987  10.598  15.783  28.729 -0.0515 -0.3074  0.2889
43894W        W86988   9.800  15.911  30.584 -0.3676 -0.1427 -0.2649
43895W        W86989   8.765  14.936  30.580  0.0058 -0.0891 -0.0700
43896W        W86990   8.621  16.265  28.074 -0.3877  0.0849 -0.1059
43897W        W86991  11.404  14.950  30.229  0.0941  0.2718  0.2069
43898W        W86992   8.711  17.315  25.742  0.1675  0.2990  0.2828
43899W        W86993  10.713  18.551  31.753  0.3688  0.4641  0.1928
43900W        W86994   7.568  15.120  29.057  0.1870 -0.1785 -0.1903
43901W        W86995   9.033  16.609  27.325 -0.1250 -0.1060  0.2361
43902W        W86996   9.327  16.429  29.139 -0.0414  0.2666  0.2078
43903W        W86997  10.492  15.246   0.053  0.1408 -0.3306 -0.1972
43904W        W86998  10.387  17.217  29.392 -0.0552  0.0968 -0.1696
43905W        W86999   7.974  15.278  28.723 -0.3353  0.1039 -0.1580
43906W        W87000   9.857  17.446  27.995  0.2927  0.0197  0.0320
43907W        W87001  11.947  15.473  28.273 -0.0093  0.2327 -0.2890
43908W        W87002   8.978  17.069  27.529  0.1368 -0.0578  0.0040
43909W        W87003  10.844  17.047  27.860  0.2626  0.0393 -0.3185
43910W        W87004   8.607  18.013  30.046  0.0130  0.0979 -0.0900
43911W        W87005   8.638  16.078  29.541  0.1699  0.0555 -0.0886
43912W        W87006  10.505  18.900  29.710  0.0247  0.1686 -0.1093
43913W        W87007  10.995  17.324  28.730 -0.1021  0.1734  0.4394
43914W        W87008   8.966  15.315  28.306 -0.0844  0.0548 -0.0029
43915W        W87009  10.521  17.119  30.032  0.4055  0.1050 -0.3172
43916W        W87010   7.268  16.348  29.103 -0.0497  0.4491 -0.0229
43917W        W87011  12.465  15.205  28.654  0.2033 -0.3065  0.4734
43918W        W87012  10.814  14.344  28.627  0.0270  0.0439 -0.2917
43919W        W87013  10.238  18.350  26.322  0.0956 -0.0224 -0.1381
43920W        W87014  10.446  14.415  29.410  0.0358  0.1302 -0.0760
43921W        W87015   9.692  16.819  28.293 -0.0466 -0.0608  0.0533
43922W        W87016  10.040  17.951   1.661  0.2104 -0.2059 -0.1938
43923W        W87017   8.400  16.490  25.964  0.1036  0.3691  0.3485
43924W        W87018   8.234  16.164   0.007 -0.0353  0.0567 -0.0883
43925W        W87019   8.509  18.030  28.484 -0.1727  0.0575 -0.0997
43926W        W87020   8.464  16.954  27.281 -0.5103 -0.1552  0.0003
43927W        W87021   8.790  18.361  29.025 -0.0773  0.1397  0.3162
43928W        W87022   8.943  15.693  28.734 -0.3052 -0.0578 -0.4247
43929W        W87023  11.727  16.813  29.118  0.0328  0.1779 -0.0364
43930W        W87024   8.631  15.668  31.308 -0.2640  0.1732 -0.0397
43931W        W87025  10.467  15.178  29.659  0.0189  0.1098 -0.1697
43932W        W87026  10.671  14.693  29.050 -0.0352  0.1288  0.0392
43933W        W87027   9.812  16.967  31.013 -0.0957  0.2292 -0.1246
43934W        W87028   6.606  16.626  28.329  0.0678  0.0005 -0.0920
43935W        W87029   9.075  16.176  26.437  0.3987 -0.2037  0.1281
43936W        W87030   8.111  17.765  28.608  0.1826 -0.0981 -0.0527
43937W        W87031   9.523  15.164  30.386  0.1199  0.2562 -0.1587
43938W        W87032   9.084  15.363  31.072 -0.1285 -0.1562  0.1904
43939W        W87033   7.797  16.368  29.831 -0.1384 -0.0502 -0.0377
43940W        W87034   9.023  16.042  29.268  0.0745  0.0227 -0.0233
43941W        W87035  11.739  17.453  27.209  0.1972  0.2207 -0.1887
43942W        W87036   8.194  14.993  30.830  0.1460  0.0166  0.1363
43943W        W87037   7.695  15.888  30.606  0.1524  0.2421  0.0313
43944W        W87038  12.792  17.306  27.209 -0.1396 -0.1907 -0.1320
43945W        W87039  10.255  16.160  28.562  0.0143  0.6154  0.1344
43946W        W87040   8.662  17.034  27.987  0.1338  0.1377 -0.0748
43947W        W87041  10.706  18.589  30.078  0.2943  0.0352 -0.0657
43948W        W87042   9.264  17.472  26.828 -0.4342  0.0191  0.2348
43949W        W87043   9.845  14.889  30.811 -0.0758 -0.1742  0.2565
43950W        W87044   7.912  14.534  31.038  0.0475 -0.0255  0.0167
43951W        W87045   6.835  14.977  27.684 -0.0203 -0.3741  0.0324
43952W        W87046   7.985  15.561  29.126  0.5040 -0.0023 -0.1955
43953W        W87047   8.948  17.190  28.457  0.0318  0.0122  0.2135
43954W        W87048   9.170  18.273  27.349  0.1621  0.1275  0.0591
43955W        W87049   9.609  17.597  31.111 -0.1270  0.1639  0.0962
43956W        W87050   9.795  18.233  30.121  0.0292  0.2912 -0.0146
43957W        W87051   7.568  15.494  30.877  0.0005 -0.1755 -0.1810
43958W        W87052   9.996  16.609  25.972 -0.0520 -0.0950  0.0582
43959W        W87053   9.727  17.848  30.575 -0.3336  0.0426  0.5676
43960W        W87054  13.748  16.451  26.870  0.2378  0.1766  0.1947
43961W        W87055  10.768  14.219  28.004 -0.2295 -0.2036 -0.2853
43962W        W87056   8.823  16.226  27.586  0.1192  0.1717 -0.0980
43963W        W87057   8.462  16.075  29.977  0.2412 -0.2116 -0.0004
43964W        W87058   8.163  15.520  31.138 -0.0481  0.0105 -0.1607
43965W        W87059   9.786  16.846  28.786  0.2177 -0.0541  0.1355
43966W        W87060   8.241  15.501  30.065  0.1451  0.1467 -0.1134
43967W        W87061  10.075  14.054  26.862 -0.1874  0.1591 -0.1760
43968W        W87062   9.382  17.562  28.271 -0.4928  0.0379 -0.4337
43969W        W87063   7.973  16.126  30.218  0.0105 -0.0795 -0.2928
43970W        W87064   9.389  16.222  27.522  0.1769 -0.1614 -0.1092
43971W        W87065   9.507  15.484  30.904 -0.0268  0.0721 -0.0915
43972W        W87066   8.954  17.699  28.484 -0.1424 -0.3157  0.1833
43973W        W87067   9.789  16.615  30.592 -0.0851  0.0496 -0.1177
43974W        W87068   9.281  16.051  28.809  0.1835 -0.0071 -0.1259
43975W        W87069  12.338  16.859  26.587  0.1671 -0.0473 -0.1148
43976W        W87070   9.297  17.984  30.988  0.0506  0.0052 -0.1624
43977W        W87071  11.213  18.686  31.542 -0.0231 -0.0622  0.3782
43978W        W87072   9.462  18.666  30.165 -0.0505 -0.2308  0.0026
43979W        W87073  10.135  17.058  28.158 -0.0824  0.2740 -0.0243
43980W        W87074   6.333  14.452  30.809 -0.0366 -0.0235  0.0510
43981W        W87075   9.451  17.133  28.621  0.0185 -0.1998 -0.0463
43982W        W87076   9.530  15.988  29.376  0.1873 -0.1440  0.2047
43983W        W87077  10.634  15.623  30.566 -0.3395 -0.2851 -0.0072
43984W        W87078   9.363  15.041  29.137  0.1758  0.1543  0.2464
43985W        W87079   8.961  14.507  28.069  0.0334  0.0008  0.0294
43986W        W87080   8.829  17.238  30.431  0.1152 -0.0323 -0.3883
43987W        W87081  10.082  16.876  29.207 -0.0258  0.0055 -0.1699
43988W        W87082   8.459  14.745  29.644  0.0291 -0.2145  0.1925
43989W        W87083  10.520  17.640  31.460  0.3015 -0.0150 -0.0047
43990W        W87084   6.549  16.192  31.432 -0.2808  0.0441  0.0953
43991W        W87085   6.580  17.241  31.285 -0.1649  0.0343  0.1400
43992W        W87086   8.973  16.362  30.925 -0.0432 -0.2015 -0.0175
43993W        W87087   9.727  18.430  31.450  0.1666 -0.1964  0.1323
43994W        W87088   9.124  14.916  30.118  0.3390  0.0532  0.1776
43995W        W87089   9.320  14.004  30.792  0.1007  0.1281  0.1763
43996W        W87090  11.830  17.209  30.256  0.1674  0.0407 -0.2375
43997W        W87091  11.044  17.291  31.954  0.3943  0.1351 -0.1141
43998W        W87092  11.532  16.349  30.379  0.4856  0.1633 -0.0271
43999W        W87093   9.080  15.445   0.093  0.0831  0.0697 -0.1525
44000W        W87094  10.780  15.906  30.983 -0.3946  0.0134 -0.1609
44001W        W87095   8.767  16.541   0.005 -0.0127 -0.1065 -0.0237
44002W        W87096  11.170  15.955  30.631 -0.2198 -0.0796  0.0045
44003W        W87097   6.809  17.800   0.519  0.0979 -0.3153 -0.0153
44004W        W87098   8.506  16.489  30.818  0.0853 -0.3127 -0.4811
44005W        W87099  10.775  17.536  29.678 -0.0979 -0.1325 -0.0271
44006W        W87100   6.401  14.914   1.159 -0.1295 -0.1133  0.0712
44007W        W87101   9.095  14.318  31.796  0.0466 -0.0163 -0.2198
44008W        W87102   8.698  14.961   0.737 -0.0479 -0.0487 -0.0976
44009W        W87103   9.129  19.251  30.700  0.0463  0.0235 -0.0739
44010W        W87104  10.191  15.781  31.371  0.0804 -0.2232 -0.1216
44011W        W87105  10.100  15.143  31.148  0.1380  0.0344 -0.1383
44012W        W87106  11.412  13.275  31.077  0.1399  0.2901  0.1115
44013W        W87107   9.488  14.409  31.494 -0.4504  0.0460  0.2162
44014W        W87108   8.346  15.032  31.372 -0.1577 -0.0882  0.1809
44015W        W87109   7.779  17.990   0.257 -0.0150 -0.2230 -0.0842
44016W        W87110   8.354  14.941   0.312 -0.0030  0.1922  0.1427
44017W        W87111   8.207  15.188  29.672  0.0988 -0.1194 -0.0247
44018W        W87112   7.969  15.757   0.730  0.1378 -0.4019  0.0252
44019W        W87113   6.247  13.803  31.772 -0.0571 -0.0334 -0.2803
44020W        W87114  10.755  17.053  31.595  0.1271 -0.2536 -0.0111
44021W        W87115  10.732  14.453  31.771  0.2145 -0.3702 -0.1368
44022W        W87116   6.442  15.104   0.657  0.0595  0.1192 -0.3048
44023W        W87117   8.426  15.792   0.542 -0.1573  0.1161  0.1504
44024W        W87118   9.444  15.089  31.242 -0.0014  0.0768  0.0795
44025W        W87119  10.917  16.064  31.396 -0.2538 -0.2288  0.0561
44026W        W87120  10.364  18.054  30.968 -0.1945 -0.1537 -0.2937
44027W        W87121  10.373  16.551   0.171  0.0405  0.0071 -0.1065
44028W        W87122   9.995  16.422  31.002  0.1726  0.5459  0.1104
44029W        W87123   8.833  16.026  31.943  0.0536  0.0604  0.0063
44030W        W87124   7.952  13.615  31.395 -0.0304  0.1488  0.1363
44031W        W87125  10.265  18.624  30.322  0.0709  0.1056 -0.0148
44032W        W87126   9.335  14.951  30.767  0.2833  0.3122  0.3221
44033W        W87127   7.894  14.735   0.547 -0.1377 -0.0240 -0.1655
44034W        W87128  11.186  14.879  31.176  0.0579 -0.0334  0.2627
44035W        W87129   9.110  15.021   0.412  0.1394  0.0350  0.2825
44036W        W87130  10.503  18.021  31.799  0.2853 -0.2323  0.3293
44037W        W87131   7.411  18.543  30.424 -0.0744  0.3723  0.0994
44038W        W87132  10.951  18.442  30.631 -0.1801  0.0051  0.1949
44039W        W87133  10.005  15.335  30.616  0.0231  0.2056  0.1377
44040W        W87134   8.107  14.504  31.513  0.3163  0.3363 -0.0662
44041W        W87135   9.097  16.783  30.135 -0.1152 -0.2165 -0.2795
44042W        W87136   9.010  15.287  31.547 -0.0147 -0.0327 -0.1829
44043W        W87137   9.809  15.820  31.701  0.0021  0.0490 -0.2322
44044W        W87138   9.943  16.682  31.926 -0.1242  0.1357 -0.0215
44045W        W87139   9.561  17.973  31.525  0.0895 -0.0843  0.2116
44046W        W87140   9.069  18.328  30.182  0.4132 -0.1221  0.0219
44047W        W87141   6.869  17.389  31.807  0.1313 -0.0250 -0.1776
44048W        W87142   7.072  14.069  30.459 -0.0088  0.2170  0.3103
44049W        W87143   8.723  15.718  30.290  0.1983 -0.1020 -0.2748
44050W        W87144   6.849  15.162  31.656  0.0067  0.1928 -0.0449
44051W        W87145   5.673  13.709  31.061  0.0592  0.1136  0.2557
44052W        W87146  10.349  18.086  29.459 -0.0612 -0.1828 -0.0200
44053W        W87147  10.460  16.238  31.209 -0.1878  0.1384  0.0783
44054W        W87148  11.065  18.135  31.863 -0.2071  0.0906 -0.0561
44055W        W87149   7.373  21.268  19.588  0.0534  0.0658 -0.0006
44056W        W87150   8.338  18.746  16.561  0.1355 -0.1243  0.1447
44057W        W87151   9.066  18.684  16.126 -0.0837  0.1132  0.2800
44058W        W87152   9.820  20.570  16.789  0.0008  0.1553  0.0847
44059W        W87153   7.729  19.245  17.736  0.3420  0.1440  0.0348
44060W        W87154   8.813  21.261  18.169 -0.0828 -0.0674  0.2203
44061W        W87155   7.835  18.226  19.041  0.0659  0.4892  0.2937
44062W        W87156   9.641  19.663  17.736 -0.1512 -0.2462 -0.1874
44063W        W87157   9.453  21.755  19.019  0.3911 -0.4393  0.2971
44064W        W87158   9.739  21.959  15.532 -0.2880 -0.0771 -0.0922
44065W        W87159   8.733  19.775  18.453  0.0096  0.0785  0.2014
44066W        W87160   8.201  21.541  18.963 -0.2338  0.0193  0.1031
44067W        W87161   7.510  17.668  16.543  0.1947  0.1085  0.0001
44068W        W87162   7.794  16.178  16.712 -0.0173  0.0958 -0.1142
44069W        W87163   9.244  19.881  18.505  0.0459 -0.1799  0.1121
44070W        W87164   8.108  21.274  16.423  0.1660  0.1705 -0.1204
44071W        W87165   8.338  18.590  17.650 -0.2370  0.1920 -0.3286
44072W        W87166   8.950  19.271  16.160 -0.1725 -0.0354  0.0710
44073W        W87167   9.170  23.330  18.364  0.1002  0.3134 -0.0621
44074W        W87168   8.399  19.694  18.770  0.1310 -0.1454  0.2317
44075W        W87169   8.563  18.795  19.931 -0.2039 -0.1967 -0.2414
44076W        W87170   8.299  22.568  17.545 -0.0715 -0.0462  0.2094
44077W        W87171   6.483  19.109  16.125 -0.3223 -0.2047  0.0052
44078W        W87172   6.506  20.422  17.628  0.0234  0.3390 -0.2390
44079W        W87173   7.898  20.839  18.489 -0.2638  0.2239 -0.2149
44080W        W87174   8.599  19.728  16.963 -0.1515 -0.3431  0.4182
44081W        W87175   9.114  20.446  17.212  0.0343 -0.1034 -0.0575
44082W        W87176   8.661  21.926  17.658  0.1523 -0.0898 -0.1631
44083W        W87177   9.758  22.126  16.968  0.0056  0.1964  0.1520
44084W        W87178   8.398  19.716  19.799 -0.1293  0.1349  0.4105
44085W        W87179   6.649  20.859  17.435  0.1213  0.1520 -0.0849
44086W        W87180   8.333  23.907  19.406  0.0203  0.0860  0.0879
44087W        W87181   8.877  21.295  16.988 -0.0804  0.0528 -0.1460
44088W        W87182  10.877  21.481  17.019  0.1636 -0.0181 -0.0159
44089W        W87183   9.784  23.361  19.446 -0.0789  0.1830  0.3353
44090W        W87184   7.806  20.517  19.392 -0.0733 -0.0806  0.1410
44091W        W87185   8.437  21.592  16.350 -0.0230  0.0681 -0.1234
44092W        W87186   8.766  23.762  19.703 -0.0527 -0.0530  0.1905
44093W        W87187   7.484  21.717  19.393  0.3920 -0.0451 -0.1452
44094W        W87188   9.439  19.325  18.851  0.0189 -0.1281 -0.0429
44095W        W87189   8.741  20.205  18.752  0.0383 -0.3968  0.2402
44096W        W87190   7.877  21.704  16.408  0.1843 -0.0564 -0.1858
44097W        W87191   8.421  21.569  18.503 -0.1050 -0.0094  0.3094
44098W        W87192   8.535  20.671  18.708  0.3592  0.2002  0.0223
44099W        W87193   7.577  19.579  18.961  0.0438 -0.2165 -0.0373
44100W        W87194   9.201  18.771  19.213 -0.1121 -0.0111  0.1659
44101W        W87195   9.243  22.197  16.408  0.0789 -0.0323 -0.1941
44102W        W87196   9.061  19.171  17.048 -0.1784  0.0752  0.0671
44103W        W87197   8.631  20.008  16.514 -0.2120 -0.0394 -0.0057
44104W        W87198   8.603  18.900  16.109  0.0323 -0.0125  0.1540
44105W        W87199   9.548  17.899  17.297 -0.0231  0.0105 -0.4583
44106W        W87200   9.207  22.597  17.712  0.0672  0.0056  0.1262
44107W        W87201   6.971  18.552  19.010 -0.0454 -0.1238  0.2482
44108W        W87202  10.009  23.221  18.878  0.0405 -0.2372  0.2921
44109W        W87203   8.084  19.934  16.762 -0.1001  0.2160  0.0602
44110W        W87204   7.905  19.699  17.553 -0.1211 -0.2916  0.2215
44111W        W87205   7.800  21.287  17.689  0.1307  0.0252  0.1951
44112W        W87206   7.570  20.153  17.466 -0.1807 -0.0088 -0.2713
44113W        W87207  10.869  22.399  16.713 -0.1476 -0.2283  0.2119
44114W        W87208  10.332  20.445  16.682 -0.2570  0.3102  0.0257
44115W        W87209   8.514  22.054  15.937 -0.3420  0.3569 -0.2022
44116W        W87210   7.274  19.020  15.659 -0.0580  0.1148  0.0465
44117W        W87211   8.034  20.903  20.555 -0.3108  0.1373  0.0795
44118W        W87212   7.278  20.932  18.403  0.2168  0.0245  0.1874
44119W        W87213   7.560  18.147  15.659  0.0070 -0.0722  0.2401
44120W        W87214  10.203  20.785  18.319 -0.4933 -0.0019 -0.1680
44121W        W87215   7.388  20.315  19.302  0.2136  0.0734  0.1984
44122W        W87216   9.352  18.542  18.591  0.4338  0.3131  0.1647
44123W        W87217   8.344  21.360  17.375 -0.1721 -0.0606  0.3253
44124W        W87218   8.655  20.936  17.412 -0.2599 -0.2190  0.4005
44125W        W87219   9.939  21.407  15.696  0.1123  0.2718 -0.2325
44126W        W87220   9.197  17.530  18.302  0.0227  0.0396  0.2038
44127W        W87221   8.139  18.346  18.701  0.1565  0.1958 -0.1007
44128W        W87222   8.917  21.461  17.587  0.1310 -0.1485 -0.2466
44129W        W87223   8.966  21.113  16.480 -0.3645  0.1169 -0.2476
44130W        W87224  10.074  21.385  17.956  0.4319 -0.1932 -0.0689
44131W        W87225   9.521  18.521  15.928  0.1613  0.0329  0.1882
44132W        W87226   8.621  22.901  17.337  0.1791 -0.3377  0.1055
44133W        W87227   7.811  20.086  18.933  0.3821  0.0997 -0.0863
44134W        W87228   9.605  21.364  18.186  0.0532  0.1934  0.0342
44135W        W87229   7.932  21.786  15.275 -0.3380 -0.1673 -0.2664
44136W        W87230   7.277  20.017  18.771  0.0129  0.0800 -0.2254
44137W        W87231   7.845  21.397  16.019 -0.0979 -0.0254 -0.1581
44138W        W87232   7.936  19.754  19.280 -0.2073  0.1115 -0.2093
44139W        W87233   7.933  21.382  18.515  0.0041  0.1825 -0.0244
44140W        W87234  10.276  19.952  16.654 -0.0895 -0.1755 -0.0362
44141W        W87235   7.713  19.148  18.781  0.1264 -0.0173 -0.1723
44142W        W87236  10.346  18.408  18.413  0.4134 -0.1372 -0.1104
44143W        W87237   8.366  22.315  17.085 -0.1646  0.2347  0.2601
44144W        W87238  10.094  23.341  18.353  0.1217  0.0973 -0.0937
44145W        W87239   9.286  21.051  16.081 -0.1270  0.0735 -0.0131
44146W        W87240   9.566  21.404  16.327 -0.1057  0.1064  0.3286
44147W        W87241   6.984  20.090  19.134  0.1834  0.0647 -0.1393
44148W        W87242   8.851  18.737  17.002  0.0451  0.1270 -0.0529
44149W        W87243   7.373  17.361  19.419  0.0919  0.0051 -0.0571
44150W        W87244   6.907  18.095  18.824  0.0740  0.0490 -0.1246
44151W        W87245   9.633  18.986  19.424  0.1110 -0.3509 -0.0194
44152W        W87246   6.597  18.581  15.983  0.0627  0.0153  0.3903
44153W        W87247   9.009  20.001  16.893  0.1942  0.0642 -0.0249
44154W        W87248   8.566  20.524  17.856  0.1329  0.0242 -0.2545
44155W        W87249   8.645  21.703  17.144  0.3393  0.0995  0.2716
44156W        W87250   8.979  17.980  18.435 -0.1010  0.4156  0.1555
44157W        W87251   9.836  21.817  15.999 -0.1249  0.3228  0.1694
44158W        W87252   9.155  22.058  18.442 -0.1390 -0.0400 -0.2086
44159W        W87253   8.517  23.347  19.976 -0.0615  0.1644  0.0212
44160W        W87254   8.162  19.209  18.381  0.0028 -0.1442  0.2427
44161W        W87255   9.887  19.331  16.006 -0.0396 -0.1325 -0.2267
44162W        W87256   7.582  23.905  17.637  0.1773 -0.1453 -0.0268
44163W        W87257   8.732  21.976  16.359  0.0221  0.1174 -0.1476
44164W        W87258   9.543  18.062  16.118 -0.2859 -0.1151  0.2156
44165W        W87259   9.125  22.512  18.816 -0.0503  0.1013  0.0906
44166W        W87260   8.052  20.477  17.678 -0.2561  0.0332  0.2458
44167W        W87261   8.891  21.313  19.660 -0.3925 -0.0508 -0.3834
44168W        W87262   8.713  19.187  19.607  0.0361 -0.2639  0.2446
44169W        W87263   9.323  20.065  18.072  0.2924  0.3627 -0.1589
44170W        W87264   9.200  22.217  17.452 -0.1226  0.1284 -0.0846
44171W        W87265   7.765  18.623  15.714  0.3921  0.0085 -0.2858
44172W        W87266   8.908  22.277  17.934  0.0158  0.0925 -0.1459
44173W        W87267   6.063  21.399  16.297 -0.0808  0.3460  0.0181
44174W        W87268   8.534  20.905  16.282 -0.2799  0.1954 -0.0958
44175W        W87269   8.873  23.317  17.929  0.1093  0.4339 -0.0008
44176W        W87270   9.131  18.961  18.084  0.4025 -0.0198 -0.0755
44177W        W87271   6.697  20.952  19.961 -0.0484  0.0093  0.0775
44178W        W87272   7.902  19.213  19.267 -0.3744  0.2995  0.0550
44179W        W87273   6.966  19.225  16.049 -0.0926  0.0692  0.0505
44180W        W87274   7.529  22.217  18.261  0.1244 -0.1839  0.0487
44181W        W87275   8.034  18.978  16.946  0.1325  0.2737 -0.0009
44182W        W87276   9.539  18.702  17.891  0.0826  0.2199 -0.0017
44183W        W87277   8.896  18.590  17.804  0.2554  0.1041 -0.2498
44184W        W87278   9.970  21.839  17.542 -0.3830  0.0918  0.0058
44185W        W87279   8.836  21.417  16.084 -0.2999 -0.0046 -0.0043
44186W        W87280   7.938  17.488  16.901 -0.0353  0.1218  0.0721
44187W        W87281   6.266  21.533  20.687 -0.3126 -0.2437 -0.1394
44188W        W87282   8.342  21.452  15.828 -0.0958 -0.1312  0.2344
44189W        W87283   9.394  22.124  17.980 -0.3670  0.1707 -0.0553
44190W        W87284   7.945  18.349  17.428  0.0197  0.1703  0.3286
44191W        W87285  11.011  21.134  16.616 -0.0470 -0.0482  0.3677
44192W        W87286   8.407  19.999  19.158 -0.1310 -0.0853  0.0696
44193W        W87287   9.156  21.620  18.111 -0.2940 -0.2705 -0.3779
44194W        W87288  10.203  22.261  17.259 -0.1397  0.0402  0.0765
44195W        W87289   8.647  18.292  17.391 -0.1336  0.1105  0.1181
44196W        W87290   8.200  20.447  15.232 -0.0124  0.1492 -0.0386
44197W        W87291   7.628  17.564  18.625  0.0284  0.0144 -0.1647
44198W        W87292   6.088  21.852  16.624 -0.2963  0.0578 -0.1334
44199W        W87293   9.008  19.556  17.349  0.1077 -0.3206  0.0591
44200W        W87294   7.701  19.327  17.017 -0.4517  0.0607 -0.1426
44201W        W87295   7.895  19.565  18.112 -0.0455 -0.0200  0.1562
44202W        W87296   8.857  20.440  20.183  0.0843  0.1818 -0.1233
44203W        W87297   9.028  19.477  15.608  0.1340  0.0441 -0.1911
44204W        W87298   8.223  20.188  18.676 -0.0654 -0.3072 -0.1793
44205W        W87299   8.081  20.601  16.166  0.0862  0.1692  0.2411
44206W        W87300   7.305  18.373  18.606  0.1312  0.1858  0.1056
44207W        W87301   9.703  20.139  20.199  0.2148  0.0365 -0.2941
44208W        W87302   7.668  22.116  19.789 -0.1929  0.1098 -0.0439
44209W        W87303  10.352  21.852  20.207  0.1798 -0.0471  0.4880
44210W        W87304   8.408  20.511  17.089 -0.2455 -0.0411 -0.2749
44211W        W87305   7.057  18.730  20.360 -0.0116 -0.1347  0.0235
44212W        W87306  10.766  17.826  16.503 -0.0803 -0.0635  0.2733
44213W        W87307   8.782  22.196  16.865 -0.2008 -0.0861  0.1950
44214W        W87308   8.839  20.969  15.861 -0.0460 -0.0192  0.0447
44215W        W87309   6.514  17.992  18.092 -0.0387 -0.0795 -0.0062
44216W        W87310   8.508  22.524  18.336 -0.0218  0.2090  0.1021
44217W        W87311   9.121  21.789  16.059  0.1240  0.0682  0.0732
44218W        W87312   8.950  20.548  19.723  0.0342 -0.1978  0.0350
44219W        W87313   8.240  22.177  16.582  0.1524 -0.1843 -0.1169
44220W        W87314  10.016  17.137  18.265 -0.1360  0.3102 -0.2347
44221W        W87315   7.014  20.779  17.960  0.0940 -0.0910  0.0159
44222W        W87316   8.181  20.110  16.209  0.4569 -0.0491  0.1836
44223W        W87317   6.806  19.932  16.630 -0.0586  0.0491  0.2036
44224W        W87318   9.924  17.393  17.414  0.2751  0.2555  0.1398
44225W        W87319  10.023  20.209  17.040  0.0088  0.2666 -0.1212
44226W        W87320   6.182  19.081  19.045  0.2426  0.0654 -0.2018
44227W        W87321   8.334  18.237  19.802 -0.0629  0.1364 -0.1291
44228W        W87322   7.684  22.090  18.781 -0.0431 -0.1136 -0.0587
44229W        W87323   8.729  21.201  18.680 -0.3012  0.3806  0.3051
44230W        W87324  10.243  18.808  17.070 -0.1892 -0.1346  0.3204
44231W        W87325   8.239  21.372  18.036 -0.0105 -0.1306  0.0715
44232W        W87326   7.277  19.758  19.308  0.0704 -0.1469  0.0476
44233W        W87327   7.498  20.578  16.159  0.0734 -0.3200 -0.1896
44234W        W87328   9.923  19.392  17.383  0.0142  0.3851 -0.0917
44235W        W87329   8.906  19.762  16.051  0.0992 -0.0135 -0.2260
44236W        W87330   8.140  21.891  18.228 -0.2125 -0.0136 -0.0329
44237W        W87331   9.441  21.430  19.469 -0.1101 -0.2650  0.1619
44238W        W87332   7.716  19.829  17.077  0.0691 -0.0457 -0.0250
44239W        W87333   7.048  22.457  18.521  0.0921 -0.0023  0.2646
44240W        W87334   8.183  19.069  17.892 -0.0902  0.0982  0.0462
44241W        W87335   9.033  20.018  20.267 -0.3200 -0.0268 -0.0828
44242W        W87336   7.997  18.779  18.961 -0.0565 -0.2039 -0.4299
44243W        W87337   8.145  20.078  17.230 -0.1074  0.1146  0.0121
44244W        W87338   8.853  20.728  18.349  0.1555 -0.2405 -0.0181
44245W        W87339   9.557  20.176  17.692 -0.2324 -0.2899 -0.0637
44246W        W87340   6.619  19.858  17.698 -0.0288  0.0701 -0.0311
44247W        W87341   7.771  20.910  19.727  0.0562 -0.1321  0.2422
44248W        W87342   8.055  17.609  17.838 -0.0661 -0.0990  0.0282
44249W        W87343  10.458  21.575  16.709  0.2309 -0.4359  0.0165
44250W        W87344   8.882  20.534  19.191  0.3331 -0.0917 -0.1268
44251W        W87345   9.487  20.610  15.945  0.1151  0.0466  0.0547
44252W        W87346   7.469  21.097  18.921  0.1926 -0.1235 -0.0424
44253W        W87347   7.655  21.023  16.373 -0.1933  0.0051 -0.2536
44254W        W87348   8.546  20.353  19.479  0.0254  0.0595 -0.3026
44255W        W87349   7.890  21.589  19.888 -0.1227 -0.0188 -0.2303
44256W        W87350   9.702  22.363  17.578  0.2574  0.5224  0.3001
44257W        W87351   7.895  22.018  20.507  0.1057 -0.1055 -0.1669
44258W        W87352   9.168  18.721  17.427  0.0047  0.0237  0.0650
44259W        W87353  10.134  20.861  17.656  0.2666 -0.2520 -0.0031
44260W        W87354   8.200  19.169  17.373 -0.5137  0.4283 -0.2092
44261W        W87355  10.689  19.232  19.508  0.0079 -0.1718 -0.1138
44262W        W87356  10.019  20.952  15.307  0.2125  0.0436  0.1078
44263W        W87357   8.809  19.644  19.450  0.0113  0.5115  0.1918
44264W        W87358   7.162  17.342  18.201 -0.2386 -0.1021  0.3026
44265W        W87359   9.225  19.980  17.372 -0.0660  0.0782  0.4443
44266W        W87360   6.143  18.883  18.085  0.2725  0.0791 -0.2836
44267W        W87361   8.715  22.477  19.119 -0.0589 -0.3489 -0.1287
44268W        W87362   7.044  20.529  20.147 -0.0165  0.1835  0.3754
44269W        W87363   7.506  19.792  16.659  0.0670 -0.2378  0.4620
44270W        W87364   8.317  17.664  16.544  0.2063 -0.0587 -0.1780
44271W        W87365   8.233  20.497  19.088  0.1380  0.2522  0.0899
44272W        W87366   9.635  19.267  18.007 -0.1028 -0.3080  0.3684
44273W        W87367   9.006  20.627  16.186  0.2069  0.1141 -0.3101
44274W        W87368   8.551  19.648  17.456 -0.0043 -0.0513  0.3001
44275W        W87369   8.090  20.139  19.637 -0.0605 -0.1296  0.4517
44276W        W87370   9.850  20.290  15.805 -0.0193  0.0522  0.1043
44277W        W87371   9.336  20.420  16.600  0.1409 -0.0376  0.0459
44278W        W87372   7.638  20.768  17.422  0.1382  0.1776 -0.1896
44279W        W87373   7.290  16.838  18.306  0.2303  0.0195 -0.3378
44280W        W87374   8.952  20.848  17.868  0.2692 -0.2365 -0.2778
44281W        W87375   9.331  17.140  17.639 -0.1356 -0.3614 -0.2749
44282W        W87376   8.283  18.053  17.683 -0.0319  0.0020 -0.0558
44283W        W87377   8.791  19.324  17.804  0.1213  0.3890  0.1276
44284W        W87378   9.033  20.326  17.737 -0.2391  0.1777  0.2479
44285W        W87379   6.388  19.327  20.267  0.1829 -0.4868 -0.0202
44286W        W87380   9.594  23.895  17.337  0.2617  0.0126  0.0010
44287W        W87381   9.543  20.039  16.131  0.0996  0.0252 -0.1338
44288W        W87382   9.129  19.379  18.352 -0.1310  0.1915 -0.1872
44289W        W87383   8.849  19.860  17.823 -0.1185  0.0120 -0.1147
44290W        W87384   8.796  20.541  16.610  0.0113 -0.3115  0.0655
44291W        W87385   8.423  20.066  17.719  0.0199  0.0502  0.2308
44292W        W87386   8.799  19.220  19.067  0.1725  0.0874  0.1432
44293W        W87387   8.516  19.491  16.349  0.0325 -0.2210  0.0220
44294W        W87388   9.021  18.937  18.666  0.0772 -0.3751 -0.1768
44295W        W87389   9.468  21.482  15.872  0.0293 -0.1652 -0.4036
44296W        W87390   9.438  23.140  17.075 -0.2582 -0.2831 -0.2105
44297W        W87391   8.415  19.529  18.015  0.2123 -0.1898  0.1358
44298W        W87392   6.003  19.351  16.906 -0.0852  0.2139 -0.0213
44299W        W87393   8.019  22.498  19.651 -0.2288  0.5025 -0.2111
44300W        W87394   8.643  20.304  16.116 -0.0509 -0.2531  0.1722
44301W        W87395   8.311  20.423  16.555  0.0460 -0.0402 -0.2711
44302W        W87396   7.782  22.261  19.305  0.2285  0.1421 -0.0391
44303W        W87397   9.559  18.815  18.930  0.1162 -0.1269 -0.1032
44304W        W87398   9.145  20.000  16.419  0.0547 -0.1013  0.0114
44305W        W87399   9.272  19.264  20.331  0.0137 -0.0025  0.1622
44306W        W87400   7.336  21.081  17.686  0.0799  0.1553 -0.1240
44307W        W87401   9.740  19.064  17.001  0.0210 -0.0946  0.0963
44308W        W87402   8.049  23.148  17.631  0.1215 -0.1156 -0.3274
44309W        W87403   7.241  20.909  19.926 -0.2556  0.1173  0.0462
44310W        W87404   8.282  21.405  16.869 -0.2595  0.0039  0.0359
44311W        W87405   8.594  19.001  18.154 -0.1717  0.1855  0.2738
44312W        W87406  10.094  19.459  18.024  0.2105  0.0141 -0.0150
44313W        W87407   8.023  21.719  17.783 -0.0880  0.1527  0.2699
44314W        W87408   8.679  18.354  18.534 -0.3169  0.0374 -0.1882
44315W        W87409   8.731  20.931  20.052 -0.2705 -0.0525  0.0658
44316W        W87410   8.055  20.819  16.664  0.0504 -0.0558  0.1566
44317W        W87411   9.105  22.686  17.211 -0.0743 -0.0574 -0.2116
44318W        W87412   9.783  20.483  16.297  0.0597  0.3582  0.3022
44319W        W87413   7.668  21.754  18.232 -0.0063 -0.0267 -0.0416
44320W        W87414   7.620  17.815  19.231 -0.2079  0.0152 -0.3186
44321W        W87415   9.241  19.987  21.040 -0.4772 -0.1431  0.0276
44322W        W87416   9.157  21.738  17.111 -0.4449  0.1219  0.0518
44323W        W87417   7.786  20.074  17.898 -0.0539  0.0177 -0.1627
44324W        W87418   9.199  20.851  16.887 -0.1394  0.0837 -0.0194
44325W        W87419   8.755  22.097  21.191  0.0550  0.0048  0.2707
44326W        W87420   9.155  21.352  19.066  0.1557  0.0184  0.1397
44327W        W87421   7.905  23.344  17.026 -0.4550 -0.3904  0.1554
44328W        W87422   9.365  21.373  16.818  0.4675  0.0821  0.2525
44329W        W87423   9.503  19.825  16.730 -0.0802  0.4630  0.0575
44330W        W87424   8.665  23.509  18.635  0.0704 -0.0476 -0.2929
44331W        W87425   9.446  19.428  17.091  0.1909  0.1959  0.1133
44332W        W87426   8.511  23.050  18.341  0.2305  0.2855 -0.1879
44333W        W87427   7.088  22.302  15.793 -0.1234  0.1082  0.1637
44334W        W87428   9.385  21.646  17.557  0.0386  0.6010 -0.4988
44335W        W87429   9.473  23.432  17.481 -0.2477  0.2681  0.0494
44336W        W87430   8.680  21.498  19.097  0.0899  0.6229 -0.0977
44337W        W87431   9.819  17.827  16.496 -0.2853 -0.1929 -0.0410
44338W        W87432  10.734  19.669  16.743  0.3209  0.1219  0.2276
44339W        W87433   9.924  19.587  16.865  0.0725  0.1075 -0.0088
44340W        W87434   9.522  22.489  18.470 -0.0901 -0.2275  0.2585
44341W        W87435   7.348  22.090  19.149 -0.1705  0.0736  0.0729
44342W        W87436   7.890  19.761  15.735 -0.2581 -0.4340  0.1516
44343W        W87437   6.447  20.813  19.433 -0.0414 -0.0349 -0.1687
44344W        W87438  10.537  18.246  18.857  0.0526  0.1072  0.1163
44345W        W87439   7.150  22.100  19.676 -0.2257  0.0413 -0.0457
44346W        W87440   9.694  21.080  17.031  0.0234 -0.1470  0.2822
44347W        W87441   7.276  18.929  16.531 -0.0103  0.1760  0.1518
44348W        W87442   7.426  20.571  18.828  0.1590  0.2478  0.2034
44349W        W87443  11.234  17.936  18.317 -0.0980  0.0543  0.0213
44350W        W87444   9.284  21.085  15.091 -0.1903 -0.0490  0.1844
44351W        W87445   8.718  18.899  17.475 -0.4322 -0.0676 -0.1954
44352W        W87446   9.350  22.644  15.952  0.1922 -0.0506  0.1170
44353W        W87447   7.975  22.452  18.358 -0.0958  0.1057  0.0234
44354W        W87448   8.345  21.303  19.423  0.3535  0.0526 -0.0634
44355W        W87449   6.442  19.597  16.878  0.1914 -0.2232  0.2636
44356W        W87450  10.343  19.178  15.936 -0.1667  0.2689  0.0041
44357W        W87451   8.774  20.196  18.169  0.3754  0.0490 -0.1121
44358W        W87452   9.184  19.549  17.865 -0.1700 -0.2154 -0.2346
44359W        W87453   8.020  19.611  16.224 -0.0909 -0.0247 -0.0181
44360W        W87454   8.909  18.951  16.513  0.1090  0.1892  0.1826
44361W        W87455   8.504  21.783  19.567  0.2411  0.0593 -0.3211
44362W        W87456   7.782  18.723  17.882 -0.2565  0.0311 -0.2556
44363W        W87457   8.426  19.805  15.846 -0.2225  0.0341  0.0319
44364W        W87458   9.874  19.301  19.170  0.1434  0.0738  0.3749
44365W        W87459   9.194  20.788  15.546 -0.0138 -0.2083 -0.2036
44366W        W87460   9.277  21.933  20.014 -0.0404  0.0046  0.0401
44367W        W87461   7.678  17.989  17.671 -0.1250 -0.1062  0.1503
44368W        W87462   9.522  19.015  16.208 -0.1021 -0.1999  0.0635
44369W        W87463   7.878  21.345  17.196  0.0086 -0.1571  0.0669
44370W        W87464   8.334  20.592  20.288  0.1212  0.1046  0.2122
44371W        W87465   9.877  22.388  21.304  0.0108 -0.0341  0.2597
44372W        W87466   7.102  18.321  17.215 -0.0575 -0.2161  0.4125
44373W        W87467  11.349  20.327  16.276 -0.0096 -0.0597  0.1395
44374W        W87468  10.992  19.683  19.715  0.1096  0.0151  0.0003
44375W        W87469   9.583  20.920  16.525  0.0897 -0.0903  0.1181
44376W        W87470   9.659  19.551  18.471 -0.2538  0.0434 -0.2104
44377W        W87471   9.818  21.903  18.448 -0.2650  0.2113 -0.0063
44378W        W87472   7.368  19.556  17.342  0.1762  0.1952 -0.1527
44379W        W87473   9.980  22.894  20.233  0.0364  0.4763  0.2199
44380W        W87474  10.003  21.304  18.483 -0.2161  0.1220 -0.1622
44381W        W87475   8.544  17.693  17.391  0.1311  0.0870  0.1110
44382W        W87476   8.246  18.117  16.435  0.1465 -0.1170  0.0884
44383W        W87477   7.679  22.059  16.694 -0.1007  0.3819  0.3886
44384W        W87478   9.915  19.101  18.659  0.2629 -0.1993  0.0797
44385W        W87479   9.560  18.102  18.487 -0.3812  0.3230  0.2684
44386W        W87480   5.764  21.662  16.960  0.0036  0.2518  0.2587
44387W        W87481   8.924  17.150  18.299  0.0173  0.0084  0.0354
44388W        W87482   9.244  21.306  19.984  0.0527 -0.2988  0.2574
44389W        W87483   8.338  23.870  20.215 -0.2014  0.2587 -0.0448
44390W        W87484   7.685  19.280  16.447  0.4467 -0.0418  0.0331
44391W        W87485   9.141  20.841  18.779 -0.3144  0.2275 -0.2303
44392W        W87486   8.261  22.265  17.985 -0.3302  0.1074 -0.0931
44393W        W87487   9.177  21.920  15.452  0.0256  0.2278 -0.2003
44394W        W87488  10.452  22.241  17.679 -0.1838 -0.0703 -0.1227
44395W        W87489   9.358  19.219  17.515  0.0852 -0.3054 -0.0522
44396W        W87490  10.166  19.895  18.518  0.2900 -0.0134  0.0684
44397W        W87491   7.121  17.747  18.456 -0.0211  0.0667  0.1391
44398W        W87492  11.035  18.702  17.269  0.1039  0.1311  0.0703
44399W        W87493   9.519  19.287  15.712 -0.4816  0.4663 -0.0187
44400W        W87494   7.660  21.582  20.382  0.0381 -0.0275 -0.2230
44401W        W87495   6.637  19.540  16.338  0.0522 -0.2951 -0.0104
44402W        W87496   7.611  21.049  15.755 -0.2412 -0.1139  0.0687
44403W        W87497   7.538  21.694  17.639  0.0767 -0.0442 -0.2287
44404W        W87498   8.840  18.268  19.944 -0.0516 -0.0531 -0.3474
44405W        W87499   7.721  20.767  17.963  0.0734 -0.0541  0.0183
44406W        W87500   6.669  20.383  18.106  0.1917 -0.1778 -0.0228
44407W        W87501   7.208  20.257  16.636 -0.2814  0.1222  0.1237
44408W        W87502   9.342  19.523  16.292 -0.1823 -0.0353  0.1388
44409W        W87503   8.445  18.086  18.148 -0.4001  0.1735  0.1589
44410W        W87504   6.849  18.713  18.495 -0.2782  0.0592  0.0543
44411W        W87505   9.762  21.164  17.531  0.1525  0.0663  0.3264
44412W        W87506  10.098  21.319  16.289 -0.0095 -0.0409 -0.0798
44413W        W87507   7.550  18.206  17.070 -0.2097 -0.2010  0.0308
44414W        W87508   9.680  20.753  19.421 -0.2746  0.2209  0.0444
44415W        W87509   7.957  20.697  15.677 -0.3259 -0.0047  0.2071
44416W        W87510   8.728  19.318  18.577 -0.1746  0.1445 -0.0474
44417W        W87511   7.283  18.911  18.664 -0.1974  0.2022  0.2665
44418W        W87512   6.751  18.761  16.471  0.0499 -0.0052 -0.0004
44419W        W87513   9.010  17.494  17.747 -0.1994 -0.3762  0.2058
44420W        W87514   8.108  20.918  19.378 -0.0424  0.2022  0.0765
44421W        W87515  11.189  22.682  17.579  0.1082  0.0626 -0.2094
44422W        W87516   8.023  21.751  19.382 -0.0982  0.1208  0.0584
44423W        W87517   7.994  22.729  19.202 -0.2656  0.1025  0.1656
44424W        W87518   6.010  18.568  18.648 -0.1969  0.2144  0.2767
44425W        W87519   9.491  21.805  16.639 -0.3753 -0.2462  0.3092
44426W        W87520   9.181  20.896  19.351 -0.0039 -0.0051  0.0051
44427W        W87521  10.612  20.969  16.255  0.0538 -0.3980 -0.1654
44428W        W87522  10.136  18.691  18.971 -0.0774  0.1393 -0.1693
44429W        W87523   8.669  20.123  17.323 -0.2716 -0.0688 -0.0301
44430W        W87524   6.461  17.931  19.167  0.1804  0.3491 -0.0568
44431W        W87525   9.117  22.408  19.467  0.0270  0.0507 -0.1034
44432W        W87526  10.896  20.691  18.410  0.3941  0.3527  0.1700
44433W        W87527   8.663  16.750  17.327  0.0934 -0.1696 -0.0099
44434W        W87528   9.873  18.843  17.414  0.0072  0.2658 -0.4263
44435W        W87529   9.263  21.210  17.343 -0.0894 -0.2972 -0.1977
44436W        W87530   7.151  20.391  18.380  0.0591  0.2336 -0.1633
44437W        W87531   8.695  18.468  16.375  0.0670  0.2705  0.0881
44438W        W87532   8.174  20.964  17.751 -0.0939  0.0470  0.1513
44439W        W87533   8.861  21.717  18.681 -0.0630  0.1205  0.2379
44440W        W87534   8.857  20.057  19.808 -0.1515  0.1646 -0.0125
44441W        W87535   8.122  20.908  17.249 -0.0243 -0.1354  0.4435
44442W        W87536   8.927  19.474  16.631 -0.0294 -0.0746 -0.2411
44443W        W87537   8.731  23.763  19.110 -0.1659 -0.2351 -0.0411
44444W        W87538   9.031  22.858  19.129 -0.0652 -0.1488  0.2815
44445W        W87539   8.507  21.940  19.042  0.3556 -0.0124 -0.1640
44446W        W87540   9.721  20.837  18.483  0.0415  0.0922  0.2793
44447W        W87541   6.126  18.045  17.652  0.0384  0.2656 -0.2220
44448W        W87542   7.634  20.959  16.913 -0.1922  0.2157  0.3988
44449W        W87543   8.097  19.377  16.689 -0.1797  0.0564 -0.3179
44450W        W87544   8.553  19.255  16.801  0.0576 -0.0946  0.1477
44451W        W87545   8.141  19.590  17.142 -0.2718 -0.1270  0.0317
44452W        W87546   9.891  18.647  16.742 -0.1858 -0.0710  0.0676
44453W        W87547   9.455  23.647  20.085  0.1746  0.0333  0.0607
44454W        W87548   7.651  21.227  18.149 -0.2847  0.0963 -0.0574
44455W        W87549   8.497  19.794  24.034 -0.3277  0.0521 -0.1676
44456W        W87550   8.306  19.835  20.691 -0.1718 -0.0911 -0.0682
44457W        W87551   8.628  20.240  20.557  0.4646  0.1264 -0.2401
44458W        W87552   9.743  19.112  20.012 -0.0706 -0.0281 -0.0885
44459W        W87553   8.604  19.235  21.543  0.0848  0.1934  0.5853
44460W        W87554   8.672  22.450  20.838  0.0067  0.3021 -0.0577
44461W        W87555   7.882  20.569  20.899  0.3224 -0.1758 -0.0378
44462W        W87556   9.063  21.464  22.600 -0.2225  0.0498 -0.0714
44463W        W87557  10.634  20.776  21.625 -0.1133  0.4165 -0.2275
44464W        W87558  10.114  21.523  18.940 -0.1684 -0.2617  0.2152
44465W        W87559   8.220  20.150  22.156 -0.0289  0.3444  0.2078
44466W        W87560   8.050  20.536  21.460 -0.0130  0.0973 -0.3898
44467W        W87561   7.935  18.409  20.464  0.1707  0.0417 -0.0430
44468W        W87562   8.983  18.649  21.645 -0.0043 -0.0658  0.0514
44469W        W87563   9.539  19.813  23.245 -0.1670  0.2087 -0.0181
44470W        W87564   9.177  20.893  20.252  0.0934  0.2448  0.0167
44471W        W87565   8.260  19.512  23.648 -0.0074 -0.0473 -0.2066
44472W        W87566   8.760  19.860  20.884 -0.0097 -0.4283 -0.0193
44473W        W87567   8.184  22.415  18.827  0.0188  0.0692 -0.0316
44474W        W87568   7.253  18.887  22.664  0.1609  0.1451  0.2263
44475W        W87569  10.238  18.359  22.279  0.2980  0.0164  0.1901
44476W        W87570   9.424  21.567  21.453  0.0190 -0.2317  0.2141
44477W        W87571   6.909  20.582  19.524  0.0331  0.0910  0.3221
44478W        W87572   8.165  21.621  20.665 -0.1940  0.0047  0.1694
44479W        W87573   7.432  19.893  23.464  0.0431  0.0184  0.1060
44480W        W87574   8.648  19.465  22.407  0.0419 -0.0953  0.1954
44481W        W87575  10.820  20.691  23.040  0.2506 -0.0828 -0.0257
44482W        W87576   9.316  21.914  23.237 -0.1148  0.0240 -0.0300
44483W        W87577  10.617  21.320  22.571  0.1319  0.1112 -0.3787
44484W        W87578   8.875  18.739  23.140  0.1558 -0.0896 -0.2542
44485W        W87579   6.892  21.723  21.049  0.1161 -0.2749  0.0605
44486W        W87580   6.102  23.047  20.163 -0.2434 -0.2194  0.0215
44487W        W87581   7.390  22.083  20.659 -0.2616 -0.1760  0.1969
44488W        W87582  10.083  20.389  17.957  0.1133  0.2059 -0.0628
44489W        W87583  11.099  22.066  20.593 -0.2073  0.0830 -0.2466
44490W        W87584   9.056  21.964  23.667 -0.0301 -0.2005  0.2224
44491W        W87585   6.489  20.544  20.247  0.2662  0.2618  0.0916
44492W        W87586   7.876  21.243  22.835  0.2049  0.0985 -0.0965
44493W        W87587   8.380  21.988  24.705 -0.2179  0.0315  0.0993
44494W        W87588   8.795  20.238  23.921  0.0911 -0.1102 -0.0048
44495W        W87589   9.347  20.919  20.737  0.0035 -0.0243  0.1068
44496W        W87590   8.805  21.641  20.040  0.1478 -0.1737  0.1804
44497W        W87591   9.351  19.461  22.601  0.2761 -0.4358  0.0038
44498W        W87592   7.679  22.325  23.279  0.0748  0.1727 -0.2605
44499W        W87593   8.330  21.241  23.793 -0.1182  0.2336  0.0908
44500W        W87594  10.385  18.666  23.369 -0.0710  0.1265  0.1244
44501W        W87595   6.848  22.297  19.384  0.2415 -0.0402  0.0904
44502W        W87596   8.859  19.467  20.587 -0.0927  0.2646 -0.3000
44503W        W87597   7.976  19.952  20.062 -0.2230 -0.1315 -0.1790
44504W        W87598   9.082  19.445  21.696 -0.0844 -0.0613 -0.2518
44505W        W87599   7.091  17.106  22.769 -0.1202  0.0833 -0.0221
44506W        W87600   8.518  20.329  21.779 -0.0034 -0.2383  0.2334
44507W        W87601   8.305  19.727  22.776  0.0184  0.1800  0.0989
44508W        W87602   9.320  20.556  23.003 -0.1539  0.1582  0.0747
44509W        W87603   9.613  19.436  21.774 -0.1215 -0.2415 -0.0832
44510W        W87604   8.848  19.696  23.730  0.0913  0.2248  0.3096
44511W        W87605   7.700  23.121  22.194  0.1271  0.1350 -0.1728
44512W        W87606   8.175  20.039  21.576 -0.0364 -0.0500 -0.1934
44513W        W87607   9.381  23.087  18.864 -0.0091 -0.0020  0.2218
44514W        W87608   9.401  21.147  21.204 -0.0733  0.1648 -0.2511
44515W        W87609   8.842  22.941  20.763 -0.1530  0.4487  0.3499
44516W        W87610   7.264  21.170  20.370  0.1144  0.2617 -0.0024
44517W        W87611   6.123  19.707  23.114 -0.4902 -0.1564 -0.2067
44518W        W87612   6.416  18.843  22.661 -0.2032  0.0171  0.1791
44519W        W87613   7.828  17.439  19.582  0.0804 -0.2342  0.1495
44520W        W87614  11.266  21.381  23.416 -0.0018 -0.0194 -0.4201
44521W        W87615   7.652  21.483  22.380 -0.0870 -0.0942  0.2131
44522W        W87616  10.286  17.713  21.015  0.1422  0.0458  0.1391
44523W        W87617   8.824  22.050  20.342  0.1423  0.1793  0.2672
44524W        W87618  10.783  21.941  21.841  0.0452  0.3291  0.1109
44525W        W87619   9.817  19.990  18.070  0.0546  0.1213  0.1179
44526W        W87620   9.138  18.109  22.358  0.0870 -0.2024 -0.2057
44527W        W87621  10.534  18.727  22.594 -0.0342 -0.1286  0.3128
44528W        W87622   7.626  19.898  19.711  0.1310 -0.0872  0.3550
44529W        W87623   9.353  20.382  19.440  0.2007  0.1220  0.1335
44530W        W87624  10.977  20.671  21.269  0.1818 -0.0980 -0.1798
44531W        W87625   9.379  20.711  21.500  0.0068 -0.1844  0.2066
44532W        W87626   8.868  22.501  22.830 -0.0169 -0.1603 -0.0392
44533W        W87627   9.610  20.276  23.311  0.2604 -0.3108 -0.1306
44534W        W87628   9.504  22.328  23.674 -0.0600 -0.1186  0.2404
44535W        W87629   8.173  22.048  19.891 -0.3172  0.3212 -0.0313
44536W        W87630   7.783  21.822  21.564 -0.0818  0.1264  0.1457
44537W        W87631   7.891  22.397  20.155  0.2983  0.2775 -0.2924
44538W        W87632   9.509  20.201  22.298 -0.1906  0.1553  0.0979
44539W        W87633   8.105  19.894  23.291  0.1934  0.0427  0.0755
44540W        W87634   8.702  16.551  21.057  0.2055  0.1291 -0.0011
44541W        W87635   7.571  19.524  22.371 -0.1831 -0.4213  0.2178
44542W        W87636   8.997  17.366  21.549 -0.1854  0.1338 -0.0047
44543W        W87637   7.308  22.141  20.164  0.5971 -0.0995  0.2073
44544W        W87638  10.608  21.310  20.060 -0.0526 -0.1516 -0.0102
44545W        W87639   8.758  18.965  20.828 -0.0936 -0.1904  0.0583
44546W        W87640   9.613  22.549  20.287 -0.2012  0.1712 -0.4369
44547W        W87641   6.986  20.860  21.299  0.0009  0.2049 -0.1456
44548W        W87642   9.095  19.951  22.435 -0.1255  0.1043  0.1931
44549W        W87643   8.742  19.823  22.074  0.0411 -0.0515 -0.0135
44550W        W87644   7.331  18.722  21.203  0.0880 -0.1637 -0.3916
44551W        W87645  10.117  20.053  24.087 -0.0098 -0.0635  0.0321
44552W        W87646   6.483  19.442  19.229  0.2500 -0.1917  0.0838
44553W        W87647  10.905  19.344  21.572 -0.2722  0.0939 -0.0337
44554W        W87648   9.558  20.099  22.811 -0.2378 -0.1983 -0.1180
44555W        W87649   7.700  21.211  20.758 -0.0992  0.3247 -0.0673
44556W        W87650   7.547  20.274  24.960 -0.0477  0.0203  0.1570
44557W        W87651   9.036  22.068  19.099  0.0587  0.0452 -0.0619
44558W        W87652   8.968  23.354  24.432  0.0801  0.0656 -0.0495
44559W        W87653   8.836  21.341  22.042 -0.1322 -0.1377  0.4034
44560W        W87654   7.912  19.776  24.197  0.0346  0.1692  0.4925
44561W        W87655   7.014  18.578  20.826 -0.0689  0.1384 -0.0739
44562W        W87656   8.160  20.664  21.925  0.1043 -0.1851 -0.1850
44563W        W87657   8.013  20.744  22.804 -0.1285 -0.1772  0.0271
44564W        W87658   8.371  20.578  20.840 -0.0338 -0.0948 -0.1290
44565W        W87659  10.765  22.134  25.667 -0.0156  0.2378 -0.2125
44566W        W87660   9.920  18.505  20.450 -0.1390  0.1254  0.2018
44567W        W87661   7.930  21.334  24.208  0.1005 -0.2498 -0.2126
44568W        W87662  10.920  17.105  22.263 -0.2003 -0.0026 -0.0416
44569W        W87663  10.238  19.622  23.806  0.1527 -0.2844  0.2093
44570W        W87664  10.428  19.215  21.716 -0.1817 -0.2387  0.0814
44571W        W87665   8.836  19.754  18.979 -0.2498  0.0177 -0.0607
44572W        W87666  10.299  21.872  22.639  0.1919  0.0387 -0.2150
44573W        W87667   7.290  22.515  20.933 -0.0021  0.0256  0.0515
44574W        W87668   6.379  20.027  21.170  0.0541 -0.0487  0.0199
44575W        W87669   9.265  20.943  22.233 -0.0629 -0.0993  0.0300
44576W        W87670  11.383  18.497  22.084 -0.0007 -0.0252 -0.1286
44577W        W87671   6.784  19.184  22.451  0.0155 -0.0582  0.3023
44578W        W87672  10.150  19.796  24.557  0.3036 -0.0717 -0.2121
44579W        W87673   8.426  20.151  19.982 -0.1308 -0.1700  0.0152
44580W        W87674   8.146  22.141  23.821 -0.0245  0.0545 -0.4301
44581W        W87675   9.505  17.758  21.769  0.1959 -0.1284  0.4153
44582W        W87676   9.370  18.621  20.213 -0.1201  0.1594  0.1297
44583W        W87677   9.906  19.627  24.184  0.1341  0.1567  0.1764
44584W        W87678   9.609  19.453  19.609  0.1807  0.1187  0.3075
44585W        W87679   8.969  19.435  21.149  0.2986  0.0442  0.1281
44586W        W87680   7.340  17.487  19.928  0.2635  0.1144 -0.0682
44587W        W87681   7.669  21.746  22.820 -0.2454  0.1434  0.1405
44588W        W87682   8.989  20.197  22.896  0.1184  0.2045 -0.2287
44589W        W87683   8.810  20.674  23.356  0.0330 -0.0528  0.0618
44590W        W87684   8.617  19.773  20.255 -0.0509 -0.1512  0.0606
44591W        W87685  10.135  21.057  20.220 -0.0007 -0.1662  0.3430
44592W        W87686   9.059  20.540  22.514 -0.1451 -0.1296 -0.0674
44593W        W87687   8.490  19.998  23.568  0.1160  0.0784 -0.1260
44594W        W87688   9.959  20.713  22.274 -0.2395  0.1669  0.1788
44595W        W87689   8.450  18.787  22.923  0.2036  0.1081  0.3895
44596W        W87690   8.679  17.879  19.367 -0.0043 -0.1686 -0.2608
44597W        W87691   7.783  17.595  20.688 -0.0684 -0.1366  0.3037
44598W        W87692   7.852  23.450  19.401 -0.0063  0.2055  0.1150
44599W        W87693   9.700  18.303  22.070  0.0891  0.1731  0.1912
44600W        W87694   8.843  17.804  21.818  0.1571 -0.0623  0.1280
44601W        W87695   8.618  19.265  23.882 -0.1434 -0.0727  0.0881
44602W        W87696  11.276  20.087  23.889  0.1198  0.0349 -0.3311
44603W        W87697  10.071  20.555  20.659 -0.3801 -0.0308 -0.1121
44604W        W87698   8.958  20.107  23.406  0.0501  0.1746  0.0256
44605W        W87699   7.445  19.742  17.780  0.1482  0.1565 -0.2145
44606W        W87700   9.002  19.026  21.966 -0.5106  0.3488 -0.0778
44607W        W87701   7.309  19.901  22.710 -0.0546 -0.1289  0.1391
44608W        W87702   7.489  22.098  24.667  0.0548  0.1036  0.1792
44609W        W87703   9.918  20.693  23.197  0.1953  0.4873 -0.2430
44610W        W87704  10.007  19.552  19.989  0.1152  0.3277 -0.0575
44611W        W87705   9.405  20.116  23.748  0.1498  0.0688 -0.5099
44612W        W87706   8.447  18.391  20.312  0.0751  0.2979 -0.1689
44613W        W87707   9.818  21.675  20.334  0.0863 -0.1231 -0.0344
44614W        W87708   8.737  20.764  20.593 -0.1014  0.0603  0.2551
44615W        W87709   8.592  17.817  22.277  0.1938  0.1430 -0.3680
44616W        W87710   9.797  21.233  23.693  0.1157  0.0779 -0.3593
44617W        W87711   8.534  20.945  19.084 -0.3953 -0.0883 -0.2778
44618W        W87712   9.848  19.936  23.676  0.1127  0.0443  0.0918
44619W        W87713   7.185  21.173  20.932 -0.0619 -0.0152  0.2152
44620W        W87714   9.864  17.365  22.514  0.0207 -0.0628  0.1838
44621W        W87715   8.157  21.040  22.430 -0.1189  0.1525 -0.0205
44622W        W87716   7.305  19.215  19.124 -0.3411  0.1207  0.0170
44623W        W87717   8.207  21.072  19.913 -0.1113 -0.1142  0.0253
44624W        W87718  10.738  18.426  22.062  0.1962 -0.0678  0.0019
44625W        W87719   9.271  19.873  19.583  0.4057  0.1484  0.1121
44626W        W87720   8.488  20.211  21.192 -0.0948  0.0037 -0.1888
44627W        W87721   9.397  18.680  21.905  0.0616  0.1198  0.3272
44628W        W87722   7.768  20.326  21.878  0.0591  0.2301  0.0048
44629W        W87723  10.175  20.988  22.766  0.0961  0.1725  0.1870
44630W        W87724   8.116  17.971  20.177 -0.2560  0.1048  0.1465
44631W        W87725   9.012  21.491  23.513  0.0824 -0.1820 -0.1512
44632W        W87726   7.722  20.846  23.983 -0.0454 -0.2080  0.1273
44633W        W87727   5.216  19.619  20.258 -0.0944 -0.1492  0.3610
44634W        W87728   9.921  19.314  22.426  0.0655  0.0294  0.2896
44635W        W87729   7.302  19.831  20.587 -0.1200 -0.4071  0.0998
44636W        W87730   7.517  22.251  21.864  0.1940  0.1213  0.1784
44637W        W87731  10.747  21.682  22.276  0.3695  0.1186 -0.1481
44638W        W87732   8.205  20.603  19.786  0.4349  0.2180 -0.1018
44639W        W87733   8.367  22.973  20.640  0.0862  0.0364 -0.0497
44640W        W87734   7.016  19.621  23.162 -0.6332  0.1592  0.2274
44641W        W87735   9.970  20.390  22.710  0.1734 -0.1754 -0.0304
44642W        W87736   9.193  21.118  23.209  0.1095  0.2148  0.0293
44643W        W87737   9.807  17.385  20.994  0.0329  0.0543 -0.5320
44644W        W87738   9.387  19.888  20.568  0.1651 -0.1064 -0.2352
44645W        W87739  10.312  21.005  23.257  0.0516  0.0607 -0.2136
44646W        W87740   9.115  19.702  23.025  0.0520 -0.3919  0.1050
44647W        W87741   7.441  21.272  23.347  0.0857 -0.1420  0.2279
44648W        W87742   8.596  17.221  22.451 -0.1214  0.2158 -0.0476
44649W        W87743  11.215  22.130  20.066  0.0042 -0.0971 -0.1884
44650W        W87744   9.455  21.172  24.013  0.0368  0.1566 -0.1628
44651W        W87745   7.492  19.603  20.159  0.1355  0.3806  0.1222
44652W        W87746   7.144  20.065  21.285  0.3353 -0.1242 -0.0535
44653W        W87747   9.213  22.475  20.635 -0.2848  0.0811  0.2641
44654W        W87748   9.188  19.201  23.081 -0.2594 -0.1665  0.4222
44655W        W87749   8.097  21.629  22.496  0.1042 -0.0197 -0.1626
44656W        W87750   8.455  22.785  19.390 -0.2243 -0.2408 -0.1473
44657W        W87751   7.600  20.449  22.764 -0.0101 -0.1049  0.2640
44658W        W87752   9.304  18.132  19.751 -0.2225 -0.0578 -0.2186
44659W        W87753   9.767  20.411  19.752 -0.0629 -0.3524 -0.0066
44660W        W87754   9.710  19.702  21.028 -0.0496 -0.0380  0.0450
44661W        W87755  10.144  18.171  20.858 -0.0274  0.0121  0.2918
44662W        W87756  10.996  18.657  21.314  0.0990  0.1305 -0.1934
44663W        W87757   9.962  17.662  23.857  0.0056  0.1456  0.1541
44664W        W87758   8.215  19.378  23.166 -0.0738 -0.0887  0.1298
44665W        W87759   9.470  19.618  20.039 -0.3320 -0.0284 -0.1555
44666W        W87760   6.507  19.723  24.948 -0.1209 -0.4102  0.1090
44667W        W87761   9.376  22.636  24.692 -0.4917 -0.3903 -0.0167
44668W        W87762   7.122  21.596  22.303  0.0082  0.2138 -0.0246
44669W        W87763   9.373  19.380  20.849  0.0888  0.4438 -0.0304
44670W        W87764   7.525  18.728  20.377  0.0521  0.1386  0.0923
44671W        W87765   8.513  20.254  23.198  0.0320 -0.0148 -0.0893
44672W        W87766  10.247  20.325  22.299  0.1896  0.2089  0.1104
44673W        W87767   8.839  20.676  21.807 -0.0902  0.2345 -0.2669
44674W        W87768  10.206  21.155  21.923  0.0326 -0.2093  0.1064
44675W        W87769   9.177  20.527  23.631 -0.0078  0.1215 -0.1434
44676W        W87770   8.349  19.460  19.349  0.1049  0.1862 -0.2040
44677W        W87771  10.154  20.612  19.272 -0.0299 -0.3442 -0.3235
44678W        W87772   7.825  22.348  21.037  0.1882  0.0789  0.1108
44679W        W87773   8.278  19.543  21.830  0.3891 -0.2286  0.0747
44680W        W87774  10.569  20.474  20.931  0.2076  0.0573  0.2107
44681W        W87775  10.000  17.957  21.844 -0.1592 -0.1095 -0.0471
44682W        W87776  10.138  18.949  21.333 -0.2325 -0.2206 -0.1442
44683W        W87777   8.625  19.133  23.367  0.0548  0.5037  0.0111
44684W        W87778   8.349  19.915  24.461  0.1083 -0.3770 -0.1628
44685W        W87779   6.772  19.059  20.678  0.1995 -0.0813  0.0040
44686W        W87780   8.347  23.423  24.590  0.1935 -0.3756  0.0372
44687W        W87781   9.366  18.586  19.635 -0.1505 -0.2509  0.4026
44688W        W87782  11.996  19.686  21.703 -0.0524 -0.3612  0.0923
44689W        W87783  10.357  18.826  22.013 -0.0746  0.0875 -0.2210
44690W        W87784   8.410  18.903  19.270 -0.1380 -0.1958  0.1245
44691W        W87785   7.804  19.699  21.393  0.1802 -0.0720 -0.0314
44692W        W87786  10.907  20.466  22.286  0.0101  0.2925  0.1075
44693W        W87787   9.337  20.448  18.536 -0.0200 -0.1131  0.0340
44694W        W87788   8.763  18.894  24.187 -0.0416 -0.4293 -0.0076
44695W        W87789   8.819  22.186  19.776  0.2141  0.1240 -0.1997
44696W        W87790   9.591  20.761  22.667 -0.1575 -0.0293 -0.1244
44697W        W87791   9.695  19.478  20.510 -0.2159 -0.3234  0.1240
44698W        W87792   6.646  19.580  21.211  0.0744  0.0007  0.0293
44699W        W87793   7.584  23.451  23.395  0.1796 -0.2422  0.0095
44700W        W87794   7.870  19.676  18.588  0.3926 -0.4480 -0.1020
44701W        W87795   9.798  19.908  19.776 -0.2401  0.2591 -0.2223
44702W        W87796   8.648  19.638  23.209 -0.0663  0.2693  0.2761
44703W        W87797  10.212  21.544  23.725  0.0504  0.3075 -0.0305
44704W        W87798   9.325  18.525  21.248  0.1097 -0.4238  0.1587
44705W        W87799  11.134  19.094  23.212  0.0064 -0.0490  0.1166
44706W        W87800   6.803  21.537  20.541 -0.5601  0.1097  0.1386
44707W        W87801   8.662  20.183  22.529 -0.1455  0.0973  0.1143
44708W        W87802   8.291  20.743  23.244 -0.0066  0.0686  0.2047
44709W        W87803   8.582  20.649  21.347  0.3256  0.2239  0.3305
44710W        W87804   8.981  22.203  21.733 -0.0889 -0.1343 -0.2014
44711W        W87805   8.690  19.235  22.884 -0.0966  0.0047  0.1903
44712W        W87806  10.654  19.014  21.246 -0.0100 -0.0016 -0.0826
44713W        W87807   8.674  20.670  22.913 -0.3290  0.0791 -0.2439
44714W        W87808  11.211  19.599  23.892  0.2254  0.0956 -0.0710
44715W        W87809   7.995  20.373  23.137  0.0305 -0.3845 -0.0380
44716W        W87810   7.562  20.907  22.592 -0.0692  0.0017 -0.1733
44717W        W87811   9.203  21.917  24.135 -0.2468  0.0600 -0.1041
44718W        W87812   9.703  21.152  23.048  0.3126  0.1483 -0.1501
44719W        W87813   8.386  20.622  22.420  0.1542 -0.0055  0.0438
44720W        W87814   6.206  20.461  23.876 -0.2900 -0.2516 -0.0580
44721W        W87815   8.289  20.602  25.248  0.0113  0.0509  0.1215
44722W        W87816   9.952  19.407  21.363  0.0839 -0.2360  0.3144
44723W        W87817   9.379  17.729  20.775 -0.1881 -0.3530  0.1935
44724W        W87818   9.565  20.578  18.967  0.1709  0.1491 -0.3406
44725W        W87819   7.496  22.917  23.453  0.0081 -0.1441 -0.1981
44726W        W87820   7.870  21.488  23.520  0.0951  0.0980  0.1425
44727W        W87821   7.394  22.724  19.922  0.0537  0.1389 -0.0519
44728W        W87822   9.732  21.165  19.895 -0.4374 -0.1342  0.0685
44729W        W87823   9.580  19.669  22.212 -0.1240  0.0034 -0.1112
44730W        W87824   9.414  21.707  23.715 -0.1057 -0.0795 -0.2474
44731W        W87825   7.864  20.584  20.100 -0.3448 -0.1605 -0.1590
44732W        W87826   9.272  21.610  20.369 -0.3314 -0.0719  0.1496
44733W        W87827   7.393  20.637  21.058  0.0474 -0.0784  0.1838
44734W        W87828   8.838  23.116  19.554 -0.2353  0.0208 -0.1697
44735W        W87829   6.458  22.054  20.796  0.4020 -0.2689  0.0834
44736W        W87830  10.261  20.637  21.849 -0.0488  0.1244  0.1671
44737W        W87831  10.175  18.121  19.817 -0.3492  0.0733 -0.2113
44738W        W87832  11.641  20.369  22.351 -0.0124 -0.1951 -0.2152
44739W        W87833   9.198  19.298  19.336 -0.3155 -0.0472  0.0228
44740W        W87834   8.863  22.739  24.334 -0.2919 -0.2991 -0.2800
44741W        W87835  10.073  19.529  22.014  0.1040  0.2594 -0.0283
44742W        W87836   7.719  19.185  20.153  0.1165  0.0894 -0.1140
44743W        W87837   7.263  19.450  23.547 -0.0368  0.2544 -0.0069
44744W        W87838   9.625  19.013  22.675 -0.1324  0.1024 -0.0783
44745W        W87839   6.558  22.655  23.137  0.0589 -0.0029 -0.0659
44746W        W87840   9.538  22.375  20.960 -0.1492 -0.0148  0.0577
44747W        W87841   8.405  21.143  22.008 -0.1061 -0.0786 -0.1549
44748W        W87842   9.957  19.891  22.379  0.0300 -0.1936  0.1347
44749W        W87843  11.205  16.881  22.681 -0.0202  0.1335 -0.0563
44750W        W87844   9.279  21.416  18.610  0.0232 -0.0054 -0.0332
44751W        W87845  10.072  20.010  21.446  0.1014 -0.1213  0.2089
44752W        W87846   7.953  21.118  21.650 -0.1814  0.0139 -0.2159
44753W        W87847   7.566  21.104  21.331 -0.0878  0.2082 -0.0493
44754W        W87848   8.030  22.010  24.330 -0.4489  0.1076  0.2653
44755W        W87849   7.514  20.725  21.665  0.3844  0.0973  0.0479
44756W        W87850  10.424  19.610  20.301 -0.3365  0.0862  0.1424
44757W        W87851   7.790  19.475  23.451  0.3486 -0.2054  0.2947
44758W        W87852   9.663  17.356  23.198 -0.0370  0.0107 -0.0171
44759W        W87853   9.201  21.013  22.746 -0.1733 -0.2080  0.0379
44760W        W87854  10.109  18.693  19.547  0.1972 -0.2554 -0.1056
44761W        W87855  10.294  19.723  22.945  0.0858  0.3588  0.3893
44762W        W87856   7.663  19.980  23.035  0.1377  0.0653 -0.3404
44763W        W87857   8.953  21.224  20.553  0.0913  0.2369  0.0714
44764W        W87858  10.939  19.482  23.450 -0.0057  0.1410  0.0158
44765W        W87859   9.658  19.739  19.100 -0.4124 -0.1323  0.0271
44766W        W87860   8.815  20.875  24.546 -0.0880 -0.0826 -0.1083
44767W        W87861   7.518  20.140  20.191  0.1251 -0.2204  0.0279
44768W        W87862   8.579  19.227  20.131  0.1114 -0.0289  0.2639
44769W        W87863   9.635  21.195  20.372  0.1006  0.2028 -0.0288
44770W        W87864   9.456  19.155  21.320  0.0474  0.1222  0.3542
44771W        W87865   9.000  21.038  23.689 -0.0785  0.3497 -0.0844
44772W        W87866   6.750  19.069  20.082  0.0923  0.0031 -0.1423
44773W        W87867  10.048  21.162  19.342  0.1349  0.0613  0.0426
44774W        W87868  10.784  18.787  20.837  0.0534  0.2081 -0.0530
44775W        W87869   8.374  21.844  20.271  0.2850  0.4004 -0.1302
44776W        W87870  10.507  20.755  20.469 -0.2245  0.2463  0.0876
44777W        W87871   9.933  20.225  21.948 -0.2622 -0.1084  0.0810
44778W        W87872   7.963  19.442  19.726 -0.3142 -0.1965  0.1632
44779W        W87873  10.065  23.085  23.828  0.2166  0.1107  0.1911
44780W        W87874   9.445  21.153  21.797  0.2032  0.2249 -0.3884
44781W        W87875   8.793  18.219  21.442 -0.0548  0.2002  0.2041
44782W        W87876   7.684  19.427  23.903  0.0925  0.0474  0.1872
44783W        W87877   7.280  21.562  20.707  0.0093  0.0011 -0.0186
44784W        W87878  11.029  18.069  22.185  0.1441  0.1669  0.1953
44785W        W87879  10.054  17.853  22.468 -0.0917  0.1763  0.0834
44786W        W87880   8.811  22.594  20.376  0.0059  0.1330  0.2902
44787W        W87881  10.306  19.224  23.476 -0.4408 -0.1446 -0.1497
44788W        W87882   9.170  22.351  22.410 -0.0165  0.0875 -0.0508
44789W        W87883   8.504  22.543  23.900  0.1735 -0.0597  0.0893
44790W        W87884   6.906  21.404  20.005 -0.1059  0.0890 -0.1812
44791W        W87885  11.507  20.263  21.829  0.1064  0.1632  0.0280
44792W        W87886   9.154  20.393  20.560  0.3369  0.0823 -0.1131
44793W        W87887   9.922  22.291  19.475  0.0261 -0.0851 -0.0017
44794W        W87888  10.928  21.140  22.084 -0.1951  0.1187  0.3328
44795W        W87889   9.841  19.060  20.968  0.0924  0.1235 -0.1584
44796W        W87890   9.738  22.184  19.979 -0.3797 -0.3338  0.1813
44797W        W87891   8.793  19.908  21.590  0.0536 -0.0305 -0.1141
44798W        W87892   9.886  17.788  20.703 -0.1284  0.0273 -0.0996
44799W        W87893   9.241  17.796  20.252 -0.3590 -0.3042  0.0508
44800W        W87894   8.106  19.616  22.343 -0.1985 -0.1601  0.0081
44801W        W87895   9.000  20.354  21.466 -0.5061  0.1772  0.0561
44802W        W87896   8.385  22.065  20.699 -0.1156 -0.0780  0.0210
44803W        W87897   7.517  21.300  21.859 -0.1398 -0.3617 -0.0038
44804W        W87898   9.663  20.101  24.251  0.1097  0.0665 -0.2020
44805W        W87899   9.256  19.978  21.912  0.0202 -0.0856  0.1849
44806W        W87900   8.438  21.222  20.398  0.1457  0.2619  0.2756
44807W        W87901   8.377  19.337  20.670  0.2220 -0.2398 -0.3125
44808W        W87902  10.520  20.836  19.978  0.0308  0.1768  0.1336
44809W        W87903   8.332  18.435  21.403 -0.1569 -0.2891  0.0137
44810W        W87904   7.287  17.789  20.649  0.1166  0.1542  0.0217
44811W        W87905  10.306  21.500  20.528 -0.1669  0.0044  0.1748
44812W        W87906   9.036  21.151  21.549  0.0960  0.0373  0.1110
44813W        W87907   8.958  20.857  21.152  0.2699 -0.3946  0.2329
44814W        W87908  10.255  21.889  24.167  0.2561 -0.2968  0.1241
44815W        W87909   6.740  21.844  21.476 -0.0780 -0.0290 -0.1071
44816W        W87910   8.447  20.624  24.792 -0.1539  0.0295  0.1589
44817W        W87911   7.739  18.812  22.677  0.0174 -0.1354 -0.0269
44818W        W87912   7.367  20.848  19.332 -0.1351  0.2056  0.1035
44819W        W87913   8.499  18.281  22.424  0.0980 -0.2480 -0.2533
44820W        W87914  10.217  21.037  20.778  0.2363 -0.2546  0.2495
44821W        W87915  10.141  23.558  17.913 -0.3535 -0.2260 -0.2981
44822W        W87916   8.421  21.106  22.867 -0.0923 -0.2501  0.2444
44823W        W87917   8.515  21.661  23.492 -0.2247  0.1077 -0.1034
44824W        W87918   6.143  18.606  22.312  0.0897 -0.2931 -0.1595
44825W        W87919   8.470  21.122  20.858 -0.1196 -0.2194  0.0464
44826W        W87920   8.640  21.049  24.105  0.1719  0.3561  0.2092
44827W        W87921   9.268  20.983  18.333  0.1070  0.1485  0.1193
44828W        W87922  10.529  18.530  21.404  0.2145 -0.2359 -0.3271
44829W        W87923   7.480  20.752  20.563  0.1010 -0.2733 -0.0714
44830W        W87924   7.608  20.295  21.357 -0.0314 -0.0027  0.0452
44831W        W87925   7.877  20.933  23.480  0.0952  0.0986 -0.2941
44832W        W87926   9.540  20.187  21.448  0.0546 -0.1143 -0.4179
44833W        W87927   8.737  18.567  21.109 -0.2060  0.0083  0.0714
44834W        W87928   9.001  18.252  20.472  0.1938  0.0558 -0.1537
44835W        W87929   9.614  20.548  21.909 -0.2327  0.0170 -0.1472
44836W        W87930   8.061  20.962  21.104  0.0348  0.1520  0.1467
44837W        W87931   9.892  19.027  21.800 -0.0768  0.2627 -0.1556
44838W        W87932  10.027  19.828  25.328 -0.0521 -0.0659  0.1029
44839W        W87933  10.112  19.521  20.802 -0.1752 -0.0388  0.0464
44840W        W87934  10.031  20.296  24.532  0.1865  0.1388  0.4008
44841W        W87935   8.613  20.891  19.569  0.0959  0.2756  0.1073
44842W        W87936  11.083  19.485  19.306  0.1977  0.1977  0.0324
44843W        W87937   9.633  22.764  23.877  0.1485  0.2238  0.0510
44844W        W87938  10.214  21.454  23.083  0.3808  0.0772 -0.2404
44845W        W87939   8.901  21.811  24.484  0.0417  0.0810 -0.0321
44846W        W87940  10.093  20.096  23.216  0.0969  0.2108 -0.1282
44847W        W87941   8.432  19.694  21.332  0.3457 -0.2922 -0.1701
44848W        W87942   9.355  20.467  21.061  0.1383 -0.2219 -0.0126
44849W        W87943   8.688  21.641  20.667 -0.2752 -0.0500  0.2126
44850W        W87944   9.772  19.579  22.800 -0.3097 -0.2526  0.4765
44851W        W87945   7.966  20.085  21.040 -0.0657  0.2354  0.1170
44852W        W87946   9.207  17.742  19.299  0.3231  0.0490 -0.4467
44853W        W87947   9.374  21.564  22.982  0.0360  0.1942 -0.0927
44854W        W87948   8.779  21.023  22.479 -0.3010 -0.3507  0.2022
44855W        W87949   8.734  21.123  26.773  0.0792 -0.0695 -0.1449
44856W        W87950   8.004  18.956  24.507  0.0534  0.1619  0.1033
44857W        W87951   9.609  19.265  23.313  0.1478  0.1822 -0.1702
44858W        W87952  10.774  20.587  24.448 -0.0878 -0.1265 -0.0161
44859W        W87953   7.294  19.134  24.639  0.0916  0.1358  0.2150
44860W        W87954  10.378  21.807  24.903  0.0630  0.0633  0.0207
44861W        W87955   8.731  17.795  26.260 -0.0273  0.1138  0.4572
44862W        W87956   9.643  20.280  25.449 -0.2094  0.0840  0.0234
44863W        W87957  11.084  21.646  26.062 -0.2659  0.0353 -0.2370
44864W        W87958   9.958  22.062  23.747 -0.1810  0.1290 -0.1668
44865W        W87959   8.243  18.495  25.794  0.1237 -0.0248 -0.0201
44866W        W87960   7.969  21.533  26.488  0.0695  0.3771  0.0162
44867W        W87961   8.541  17.573  24.191 -0.1006 -0.0379  0.0117
44868W        W87962   7.659  18.904  26.662 -0.0842 -0.1246 -0.2466
44869W        W87963   9.439  20.592  25.811 -0.3009 -0.2221 -0.2037
44870W        W87964   8.051  20.324  24.767 -0.0724  0.1568 -0.2364
44871W        W87965   9.131  20.919  25.495 -0.2069  0.6122 -0.2124
44872W        W87966   9.150  17.951  26.558 -0.1245 -0.1348 -0.1373
44873W        W87967   8.413  22.768  26.145  0.4716 -0.0696 -0.0185
44874W        W87968   8.934  18.316  28.534 -0.1400  0.1542  0.1679
44875W        W87969  10.308  19.403  26.677  0.0547 -0.1946  0.0403
44876W        W87970   8.967  22.384  24.679 -0.3407 -0.1623  0.2637
44877W        W87971   6.984  20.823  24.261  0.0909 -0.3847 -0.0237
44878W        W87972   7.332  20.181  25.469  0.1058  0.1946 -0.1996
44879W        W87973   7.728  22.204  26.331  0.0275  0.2062 -0.2454
44880W        W87974  11.132  18.815  25.118 -0.2511  0.2585 -0.3831
44881W        W87975   8.990  20.393  24.673  0.1272 -0.0556  0.0422
44882W        W87976   8.403  22.925  25.575  0.0991 -0.0703  0.3673
44883W        W87977   9.003  21.427  25.234  0.2973 -0.0552  0.0302
44884W        W87978  10.000  19.096  26.914  0.0568  0.0730  0.1089
44885W        W87979   7.068  21.134  24.747  0.2373  0.2740 -0.2731
44886W        W87980   7.103  22.686  25.053 -0.0459 -0.2467  0.0857
44887W        W87981   7.699  22.438  25.043 -0.1854 -0.3067 -0.1430
44888W        W87982   9.798  22.793  24.367 -0.2396  0.2804  0.0977
44889W        W87983  10.338  20.768  26.999  0.4431 -0.1167 -0.0012
44890W        W87984   8.799  20.587  27.596  0.0893  0.0398 -0.0236
44891W        W87985   8.102  22.133  22.433 -0.1316  0.2126 -0.1481
44892W        W87986  10.777  21.666  26.466  0.1034 -0.6145 -0.2298
44893W        W87987   9.432  21.227  28.206  0.0318 -0.0121  0.1071
44894W        W87988   7.513  18.732  24.934 -0.2802  0.2189 -0.2224
44895W        W87989   8.946  19.331  25.989  0.2542 -0.2165 -0.0904
44896W        W87990   7.345  20.819  23.623 -0.1708 -0.0164  0.2933
44897W        W87991   8.993  20.322  26.161  0.1783 -0.0014 -0.2712
44898W        W87992   9.085  21.510  27.931  0.0888 -0.3239  0.2242
44899W        W87993   6.524  19.115  27.087  0.0290 -0.2498 -0.0908
44900W        W87994  12.063  19.755  25.979  0.0891  0.4165 -0.3788
44901W        W87995   7.332  22.129  23.678 -0.0378 -0.2817 -0.0008
44902W        W87996   9.238  20.506  25.104  0.0840 -0.0544 -0.0293
44903W        W87997   7.444  19.931  24.039 -0.2130 -0.1472 -0.1470
44904W        W87998   9.358  21.627  24.848 -0.2717  0.0228  0.0343
44905W        W87999   9.101  19.292  24.184  0.1434 -0.2965  0.1347
44906W        W88000   9.215  22.946  25.858 -0.2108  0.3166  0.4032
44907W        W88001   9.541  19.095  27.342  0.1539 -0.0612 -0.0342
44908W        W88002   9.552  19.923  26.857  0.1100 -0.2557 -0.2613
44909W        W88003   9.421  19.541  25.902  0.1485  0.0593 -0.2453
44910W        W88004  10.151  18.557  25.282  0.0743  0.0761  0.0521
44911W        W88005   7.252  22.209  26.629 -0.0320 -0.2424 -0.0336
44912W        W88006   7.895  20.800  25.578 -0.3219 -0.3411 -0.1428
44913W        W88007  10.032  23.446  24.239  0.0680  0.3057  0.1960
44914W        W88008   9.602  21.710  24.409 -0.0988  0.0536 -0.0148
44915W        W88009   7.588  20.391  23.970 -0.0944 -0.0172 -0.0238
44916W        W88010   8.518  19.329  24.429  0.1851  0.1368  0.1156
44917W        W88011   7.216  18.331  27.070 -0.0320 -0.3542  0.3413
44918W        W88012   7.325  21.150  26.011  0.2054 -0.1417  0.1980
44919W        W88013   7.931  18.982  20.670 -0.0606 -0.2326  0.4217
44920W        W88014  10.843  20.008  27.043  0.0877 -0.0705 -0.1751
44921W        W88015   7.433  20.694  25.856  0.4376 -0.0829 -0.3282
44922W        W88016  10.483  18.843  24.037  0.0964 -0.1443  0.0681
44923W        W88017   7.390  21.614  25.757  0.1403  0.0522  0.0473
44924W        W88018   9.261  20.760  26.501  0.0583  0.0140  0.0553
44925W        W88019  10.746  20.267  24.060 -0.0313 -0.3478  0.0665
44926W        W88020   9.948  18.768  24.283  0.0832  0.2128 -0.0688
44927W        W88021  10.013  19.828  26.704 -0.2223 -0.2485 -0.3145
44928W        W88022   8.140  20.180  22.689 -0.2157  0.1742 -0.1390
44929W        W88023   7.410  21.704  24.234 -0.4577 -0.1907  0.1493
44930W        W88024  12.283  20.363  27.209 -0.0382  0.2182 -0.2567
44931W        W88025   9.923  20.837  24.599 -0.1282  0.1155 -0.1738
44932W        W88026   7.478  21.984  25.381  0.1698 -0.2567 -0.1135
44933W        W88027   9.198  19.725  27.628  0.0000 -0.3245  0.0028
44934W        W88028   9.579  21.389  27.754  0.0578 -0.3813 -0.0204
44935W        W88029   7.343  22.760  23.922 -0.2938  0.2003  0.0829
44936W        W88030   6.557  19.731  23.401 -0.0127  0.1475 -0.0202
44937W        W88031   6.454  21.017  24.018 -0.0545 -0.3670  0.0010
44938W        W88032   6.909  18.398  25.646  0.0800 -0.3221  0.2730
44939W        W88033   8.386  21.107  25.014 -0.0839  0.0157 -0.3651
44940W        W88034  11.149  19.355  24.669  0.0177  0.1221  0.1663
44941W        W88035   7.333  18.793  27.259 -0.0292  0.0025 -0.0600
44942W        W88036   9.055  18.422  25.259 -0.1082 -0.1673  0.0864
44943W        W88037   6.750  21.508  24.756 -0.2041 -0.0229  0.0332
44944W        W88038  11.620  22.172  25.302  0.0805 -0.1014  0.2016
44945W        W88039   7.836  20.735  25.027 -0.0593 -0.3595  0.0499
44946W        W88040   8.203  20.768  24.111  0.0914  0.2002 -0.2061
44947W        W88041   7.836  20.695  26.170 -0.0013 -0.1151  0.0925
44948W        W88042   8.358  19.599  25.301 -0.0958 -0.2184 -0.3590
44949W        W88043   8.591  18.202  26.700 -0.2964  0.5069  0.4761
44950W        W88044   8.105  18.312  26.735 -0.1165 -0.1458  0.2946
44951W        W88045  10.718  20.124  27.603 -0.4114 -0.1340  0.0967
44952W        W88046   7.490  18.523  23.021 -0.0450  0.1762 -0.0352
44953W        W88047   9.256  20.348  24.296  0.0493  0.0534  0.2741
44954W        W88048   7.418  19.574  24.904 -0.4197 -0.2271  0.0750
44955W        W88049   6.540  20.232  25.093 -0.4503  0.4358  0.0790
44956W        W88050  11.753  17.863  24.809 -0.0054 -0.0626 -0.0123
44957W        W88051   8.298  22.425  24.956 -0.1634  0.0807 -0.0474
44958W        W88052  12.722  22.435  25.899 -0.2401 -0.0420  0.0262
44959W        W88053   9.431  23.933  25.533  0.2331  0.1662 -0.0817
44960W        W88054   7.318  18.488  26.596  0.1719 -0.0126  0.0201
44961W        W88055   7.702  17.899  22.627 -0.0491 -0.3611 -0.1262
44962W        W88056   6.995  21.942  24.570  0.1506 -0.0797 -0.0287
44963W        W88057   7.931  22.714  26.233  0.1072 -0.1209  0.1322
44964W        W88058   7.848  18.474  23.913 -0.1646  0.1189  0.3769
44965W        W88059  10.905  22.094  26.150  0.0787 -0.0666  0.1526
44966W        W88060   9.411  19.825  25.453  0.2802  0.1059  0.2224
44967W        W88061   8.320  21.922  25.735 -0.0768 -0.0703 -0.3477
44968W        W88062  11.326  17.774  26.843  0.2108 -0.4540  0.0231
44969W        W88063  10.232  19.513  25.662 -0.1579 -0.0442 -0.0774
44970W        W88064   9.561  20.447  24.698  0.0335  0.0182 -0.0270
44971W        W88065   6.955  19.818  23.704 -0.0837  0.0767  0.0344
44972W        W88066   9.085  22.923  26.988 -0.1317  0.0322 -0.1485
44973W        W88067   7.854  22.444  22.734 -0.1949 -0.2356 -0.1427
44974W        W88068   8.071  17.959  25.511 -0.0742  0.1712 -0.2454
44975W        W88069   9.230  21.412  25.689 -0.1587 -0.2740 -0.0112
44976W        W88070  11.914  18.709  23.883 -0.0843 -0.1715 -0.0013
44977W        W88071   7.196  20.195  27.159  0.0643  0.3322  0.1754
44978W        W88072   9.829  20.623  26.345  0.0923  0.0502 -0.0996
44979W        W88073   6.738  19.998  24.617  0.0330 -0.1592  0.1604
44980W        W88074   7.502  21.594  26.228 -0.0357 -0.0747 -0.0884
44981W        W88075   8.749  18.390  23.977  0.2552  0.0519 -0.0928
44982W        W88076   9.781  20.022  24.877  0.1201  0.1027 -0.0548
44983W        W88077   9.753  19.606  26.286 -0.1960  0.2057  0.0022
44984W        W88078   8.437  21.502  24.387  0.0275  0.3698 -0.2289
44985W        W88079   9.047  19.884  24.137  0.1428  0.0287 -0.2239
44986W        W88080   9.305  19.978  24.628  0.0508 -0.4778 -0.3412
44987W        W88081   7.786  21.824  28.506 -0.1373 -0.0649  0.1065
44988W        W88082   6.952  20.747  25.681 -0.0320  0.2125 -0.1205
44989W        W88083   8.631  21.315  26.301  0.1083 -0.1173  0.3159
44990W        W88084   8.653  20.267  25.109 -0.5815  0.2125  0.0076
44991W        W88085   9.476  22.579  25.526 -0.1529 -0.2338  0.0594
44992W        W88086   7.375  20.768  24.840 -0.1254  0.0475 -0.2866
44993W        W88087  10.241  20.952  27.692  0.1685  0.1209  0.0710
44994W        W88088   9.211  21.258  26.615 -0.1696  0.1841  0.1828
44995W        W88089   9.711  18.726  25.056  0.0152 -0.0580 -0.3107
44996W        W88090   8.177  18.723  22.461  0.4839 -0.0896 -0.1464
44997W        W88091   9.223  18.118  25.682  0.2539 -0.2783  0.0090
44998W        W88092   6.116  22.498  22.951  0.1899 -0.2623  0.0820
44999W        W88093  11.507  18.280  25.101 -0.2149 -0.2829 -0.1812
45000W        W88094  10.535  18.308  25.005  0.2400  0.1935  0.1394
45001W        W88095   9.718  17.535  26.386  0.2041 -0.2797  0.2235
45002W        W88096  12.205  19.458  24.774 -0.2037 -0.0041  0.0949
45003W        W88097   8.421  19.151  25.151  0.0503  0.2671 -0.0165
45004W        W88098   9.600  20.114  26.395  0.1524 -0.0507 -0.0485
45005W        W88099   7.156  20.345  23.615  0.1561 -0.0844 -0.1991
45006W        W88100  10.689  17.524  26.937  0.1248 -0.0042 -0.2583
45007W        W88101   8.397  20.416  26.214  0.1652  0.2648 -0.3599
45008W        W88102   7.843  20.141  27.451  0.1690 -0.0941 -0.1065
45009W        W88103   9.675  19.477  26.770  0.2040 -0.0600  0.1104
45010W        W88104  10.547  19.870  25.348 -0.0207 -0.1584  0.0608
45011W        W88105   9.178  18.460  26.741  0.1523  0.2395 -0.3001
45012W        W88106   9.406  20.877  24.426 -0.0666 -0.2565  0.1495
45013W        W88107   6.729  20.220  23.370 -0.1218 -0.0950  0.0488
45014W        W88108   7.647  20.430  23.459  0.0601 -0.0174  0.0922
45015W        W88109   9.556  17.164  25.261 -0.0371  0.0058 -0.1333
45016W        W88110   8.414  21.500  25.404  0.1492 -0.0124  0.3553
45017W        W88111   7.092  22.130  25.003 -0.2231 -0.2567 -0.0811
45018W        W88112   9.150  20.168  26.612 -0.0654 -0.4698 -0.1358
45019W        W88113   6.614  21.162  24.470 -0.0864  0.2982  0.0793
45020W        W88114   9.612  18.387  25.409 -0.2549  0.0634 -0.2109
45021W        W88115   8.414  22.482  25.724 -0.2350 -0.2550 -0.1530
45022W        W88116   7.343  19.216  23.106 -0.0273 -0.1857  0.1864
45023W        W88117   7.070  20.396  24.132 -0.1652 -0.0500 -0.2103
45024W        W88118   9.736  18.140  23.742  0.1834  0.3160 -0.1525
45025W        W88119  10.001  21.189  24.222  0.5269  0.1074  0.0666
45026W        W88120   7.787  19.159  25.707  0.2120  0.1902  0.1718
45027W        W88121   8.922  17.617  25.356 -0.4424 -0.0773 -0.2599
45028W        W88122   7.014  21.577  26.077  0.1220  0.0128  0.0637
45029W        W88123   9.086  18.843  27.104  0.1675  0.1780  0.2963
45030W        W88124   9.362  18.846  23.406  0.2261  0.0779 -0.1032
45031W        W88125  10.527  21.816  26.058 -0.0568  0.0379  0.3841
45032W        W88126   8.617  20.088  26.532 -0.3625  0.4243  0.0143
45033W        W88127   6.628  19.505  22.916  0.0437  0.0846 -0.0901
45034W        W88128   9.871  19.278  25.877  0.0285  0.1950 -0.0986
45035W        W88129   7.835  19.776  25.204 -0.0176  0.0413 -0.0864
45036W        W88130   6.567  22.074  25.607 -0.2040 -0.0454  0.0817
45037W        W88131   9.595  21.100  25.777  0.0026  0.0163 -0.0477
45038W        W88132   7.333  21.382  22.793 -0.0639 -0.1457 -0.1651
45039W        W88133   6.748  21.894  23.416  0.1548  0.1663 -0.1454
45040W        W88134   8.471  19.149  26.938  0.2063  0.0586  0.0124
45041W        W88135   9.839  19.785  25.804  0.0371 -0.0003 -0.3918
45042W        W88136   8.789  21.659  25.906 -0.1206  0.1303  0.1722
45043W        W88137   8.668  18.699  25.213 -0.1640 -0.0576 -0.2506
45044W        W88138   8.896  19.162  25.121 -0.3937  0.1034  0.0078
45045W        W88139   9.807  21.815  24.995 -0.0961  0.0225  0.0518
45046W        W88140   8.955  19.789  25.719 -0.1523  0.1833  0.2439
45047W        W88141   9.686  21.644  28.188 -0.0463  0.0063  0.1305
45048W        W88142   9.069  19.226  24.627 -0.1390 -0.0861 -0.0221
45049W        W88143  10.612  21.736  24.466  0.1754 -0.0560 -0.0236
45050W        W88144  10.350  20.274  27.230 -0.2334 -0.3135  0.0273
45051W        W88145   8.543  22.054  23.122  0.0666 -0.0222 -0.2948
45052W        W88146   6.145  21.474  25.462  0.3622 -0.0129 -0.1999
45053W        W88147   7.847  21.545  25.653 -0.0952  0.0763 -0.0984
45054W        W88148   9.131  19.387  25.487 -0.0604  0.2310  0.4388
45055W        W88149   7.938  21.195  25.279 -0.2413 -0.0143  0.0191
45056W        W88150   6.793  19.878  22.384  0.3619  0.0913  0.0922
45057W        W88151   7.966  21.031  26.456 -0.0591  0.1643 -0.1947
45058W        W88152  10.401  17.821  23.665  0.1829  0.5884  0.0748
45059W        W88153   7.903  19.843  24.681  0.1042 -0.0302  0.0855
45060W        W88154   9.099  18.752  24.874  0.1067 -0.0536 -0.0594
45061W        W88155  10.942  18.736  25.838  0.1166  0.0009 -0.0602
45062W        W88156   7.619  20.188  24.414  0.0362  0.5208  0.1285
45063W        W88157  10.527  17.751  27.703 -0.0947 -0.1484  0.2092
45064W        W88158   8.930  19.336  26.866  0.3095  0.2663 -0.0206
45065W        W88159   8.273  21.061  24.517 -0.0995 -0.0813 -0.1982
45066W        W88160   7.682  18.576  27.055  0.0763  0.1685  0.0559
45067W        W88161  10.081  22.392  26.291  0.1431  0.3406  0.1604
45068W        W88162   7.342  20.064  26.677  0.1058 -0.0626 -0.1442
45069W        W88163   9.090  17.675  24.611  0.3465 -0.0477 -0.0672
45070W        W88164   8.682  18.814  22.499 -0.1192  0.0643 -0.1696
45071W        W88165   7.041  19.364  26.589 -0.2211 -0.1754  0.1756
45072W        W88166   9.642  20.850  25.063  0.0296  0.0570  0.0795
45073W        W88167   8.375  21.039  25.521  0.1531 -0.4169  0.0479
45074W        W88168  10.949  19.653  25.201 -0.2181 -0.0016 -0.1429
45075W        W88169   7.938  21.794  26.062 -0.1171  0.0960  0.2709
45076W        W88170  10.326  18.777  24.845  0.2791  0.0362  0.2101
45077W        W88171   8.606  20.431  24.361 -0.1318 -0.0557  0.1642
45078W        W88172   7.225  19.482  24.139 -0.0607  0.2452  0.0864
45079W        W88173   7.965  17.019  26.988 -0.1397  0.0368  0.0163
45080W        W88174   8.852  19.842  25.253 -0.2381  0.1424  0.1346
45081W        W88175  10.011  19.105  25.235 -0.2507 -0.1724  0.2876
45082W        W88176   8.600  18.551  26.342 -0.0685  0.4883 -0.1430
45083W        W88177   9.854  19.499  27.252 -0.0416  0.5970 -0.1444
45084W        W88178   8.691  18.704  26.859  0.2903 -0.1277  0.1479
45085W        W88179   7.863  19.098  27.158 -0.1058  0.1310 -0.0754
45086W        W88180  10.794  20.863  24.891  0.3100  0.0637  0.0702
45087W        W88181   9.880  19.085  23.742 -0.2137  0.4334  0.5396
45088W        W88182  10.677  19.406  26.310 -0.1211 -0.1397  0.0254
45089W        W88183  11.260  20.025  25.270  0.2146  0.0805 -0.0813
45090W        W88184   8.873  18.536  24.498 -0.2107  0.0014 -0.2584
45091W        W88185   7.191  18.613  26.122  0.1075 -0.2890 -0.0529
45092W        W88186  10.046  18.772  26.477 -0.3509  0.0018  0.1028
45093W        W88187   6.518  20.654  24.798  0.0545  0.2669 -0.0504
45094W        W88188  11.342  18.905  25.595 -0.3341 -0.2663  0.0703
45095W        W88189   8.671  21.780  23.988 -0.0011  0.4557  0.0148
45096W        W88190   9.393  22.115  24.564 -0.0546  0.0623  0.2409
45097W        W88191   9.685  18.863  25.540  0.1967 -0.3604  0.1824
45098W        W88192   8.217  18.937  25.606 -0.0488 -0.3075 -0.1314
45099W        W88193   8.883  21.396  27.184  0.4003  0.1236  0.1845
45100W        W88194   8.101  19.327  24.110 -0.0240 -0.1035 -0.1186
45101W        W88195   8.145  20.302  23.642 -0.0693 -0.0649 -0.0984
45102W        W88196   9.255  19.491  26.549  0.0919  0.0190 -0.0078
45103W        W88197  10.696  20.196  26.279  0.0822  0.2220  0.1522
45104W        W88198   8.201  19.212  22.688 -0.0644 -0.0293 -0.0144
45105W        W88199  10.529  19.278  25.291  0.1398  0.1550 -0.2646
45106W        W88200   7.425  20.697  24.350  0.1009 -0.2489 -0.0410
45107W        W88201   8.528  18.358  24.875  0.2056  0.2691 -0.1242
45108W        W88202   7.909  22.966  26.721 -0.2903 -0.0538 -0.1370
45109W        W88203   6.280  20.287  25.623 -0.1840 -0.2471 -0.1007
45110W        W88204   8.121  22.387  26.684 -0.1821 -0.4771  0.0888
45111W        W88205   9.624  18.378  26.326 -0.1977 -0.2939 -0.0521
45112W        W88206  10.431  18.699  25.994  0.0171  0.0674 -0.2810
45113W        W88207   8.781  21.153  25.809 -0.0791 -0.1113  0.0201
45114W        W88208  10.524  19.880  26.593  0.2603 -0.2028  0.3098
45115W        W88209   9.509  20.852  27.767 -0.0726  0.0181  0.0205
45116W        W88210   7.849  21.191  25.989  0.2291  0.1711 -0.1290
45117W        W88211   9.621  21.181  26.376  0.0264  0.0667  0.2216
45118W        W88212   7.939  22.056  24.919  0.0833 -0.1162  0.0653
45119W        W88213   7.990  23.293  25.434  0.1029 -0.1648  0.2278
45120W        W88214   7.987  19.288  26.717  0.2527  0.1153 -0.1025
45121W        W88215   8.506  19.649  26.798  0.3165  0.2124  0.3397
45122W        W88216   9.186  21.117  24.907 -0.1396  0.1953  0.1267
45123W        W88217   8.892  19.674  24.590  0.0339 -0.0370 -0.0081
45124W        W88218   8.176  21.584  24.977  0.1447 -0.0609  0.0539
45125W        W88219   7.482  22.701  27.749  0.0691 -0.1048 -0.2840
45126W        W88220   8.077  21.906  26.832 -0.1494 -0.0309  0.0375
45127W        W88221   7.461  21.319  23.906  0.1161  0.3041 -0.2022
45128W        W88222   8.476  20.795  23.681 -0.0204  0.0530 -0.1531
45129W        W88223   9.009  20.713  24.049 -0.1485  0.4032 -0.2565
45130W        W88224   9.892  21.622  25.475  0.0379 -0.0042  0.1514
45131W        W88225   8.091  20.296  24.180 -0.1236 -0.1659 -0.0393
45132W        W88226   6.567  20.740  25.339  0.0437  0.1006  0.2534
45133W        W88227   6.525  22.024  24.768 -0.0428  0.2804  0.3414
45134W        W88228   7.049  20.999  25.246 -0.1636  0.3786 -0.1819
45135W        W88229   6.567  21.126  25.046 -0.2090 -0.1253  0.0911
45136W        W88230   8.989  20.474  27.096 -0.2620 -0.0121  0.1040
45137W        W88231   9.341  17.892  23.629 -0.0413  0.0679 -0.1956
45138W        W88232   9.940  20.401  23.655 -0.0976  0.0758 -0.0914
45139W        W88233  10.741  18.828  23.600  0.0198 -0.0011 -0.1983
45140W        W88234   9.154  20.962  26.087 -0.0802  0.0680 -0.1576
45141W        W88235   8.652  20.649  25.631 -0.2613 -0.1116 -0.0406
45142W        W88236   7.838  19.864  23.726 -0.0155 -0.1365 -0.0733
45143W        W88237   8.375  19.183  27.447  0.1831  0.2744 -0.0564
45144W        W88238  10.845  19.109  28.194 -0.1353  0.2222  0.0918
45145W        W88239   7.938  19.741  27.799  0.1153 -0.0611  0.0057
45146W        W88240  10.845  22.490  24.890  0.1262 -0.2053 -0.0849
45147W        W88241   7.601  18.990  23.464  0.0100 -0.3192  0.2203
45148W        W88242   6.897  19.910  24.172 -0.2123 -0.1822  0.0340
45149W        W88243  12.401  18.194  25.273 -0.2673 -0.0474  0.3757
45150W        W88244   9.579  19.510  23.752 -0.3146  0.1498 -0.0975
45151W        W88245   9.390  17.729  25.233 -0.0389  0.0995  0.0971
45152W        W88246   8.252  22.960  24.149 -0.0694 -0.0685  0.3278
45153W        W88247   8.388  21.981  25.212 -0.0255 -0.0400 -0.2839
45154W        W88248   9.088  22.040  26.324 -0.0890  0.0825 -0.0058
45155W        W88249   7.691  19.338  24.398  0.2607 -0.0297  0.1632
45156W        W88250   9.999  18.327  24.779 -0.0240 -0.3396 -0.1989
45157W        W88251   8.290  18.824  26.553  0.0556  0.1494 -0.1438
45158W        W88252  11.668  18.733  25.225 -0.2224 -0.1120 -0.2926
45159W        W88253   7.159  20.383  24.641 -0.1135  0.0817 -0.1211
45160W        W88254   9.478  19.583  24.419 -0.0785  0.0684  0.1339
45161W        W88255   8.349  21.422  26.771  0.0661  0.2552 -0.0451
45162W        W88256   7.537  20.132  25.922 -0.2126 -0.2318  0.1766
45163W        W88257   7.571  20.842  23.109 -0.3738 -0.0954 -0.1758
45164W        W88258  10.139  20.968  25.993  0.2626 -0.0353 -0.0637
45165W        W88259   9.805  21.613  23.983 -0.1313 -0.3607  0.1121
45166W        W88260  11.995  21.966  26.828 -0.1361 -0.1423  0.0399
45167W        W88261   8.184  19.461  24.843 -0.0600 -0.1814 -0.3391
45168W        W88262   9.425  19.165  25.047  0.1718 -0.0496  0.0997
45169W        W88263   6.842  20.266  25.460 -0.0815 -0.4045 -0.2041
45170W        W88264   7.954  19.047  26.156  0.2492 -0.1633 -0.0531
45171W        W88265  11.097  22.828  26.343 -0.2862 -0.0986 -0.0748
45172W        W88266   7.894  18.433  23.420  0.0424 -0.0353  0.0947
45173W        W88267  11.636  21.479  23.745  0.0490  0.1550 -0.0160
45174W        W88268   9.230  21.370  24.416  0.3118 -0.1389 -0.3367
45175W        W88269   6.757  23.240  24.176 -0.2239  0.0970 -0.2046
45176W        W88270   8.788  20.797  25.151 -0.4071  0.1118  0.0287
45177W        W88271   8.005  22.301  25.439  0.2269 -0.1530  0.2726
45178W        W88272   8.194  20.094  25.240  0.1272 -0.0159  0.3032
45179W        W88273  10.167  21.522  25.838  0.3108 -0.0254  0.0933
45180W        W88274  10.530  21.328  26.149  0.0246  0.1648 -0.2614
45181W        W88275   9.089  16.770  23.037 -0.0083 -0.1138  0.1401
45182W        W88276   8.006  18.938  23.164  0.1853  0.2269  0.0678
45183W        W88277   6.943  23.495  25.517  0.0981 -0.1495 -0.2606
45184W        W88278  10.957  20.103  25.647 -0.0689 -0.3692  0.0763
45185W        W88279  10.795  18.428  26.701 -0.2149 -0.1351 -0.0782
45186W        W88280   8.998  21.436  24.010 -0.1728 -0.0044  0.0037
45187W        W88281  10.722  19.670  25.775 -0.1570 -0.0929  0.1222
45188W        W88282   8.167  22.254  26.140 -0.2114 -0.0762 -0.1616
45189W        W88283   9.263  21.158  27.455 -0.0524 -0.1610 -0.0208
45190W        W88284   7.098  21.624  23.598  0.0422 -0.0933 -0.2359
45191W        W88285   8.009  20.162  26.043 -0.0095  0.0892 -0.3073
45192W        W88286   8.917  22.666  25.596  0.1562  0.0272 -0.1393
45193W        W88287   7.510  21.163  24.403 -0.1953 -0.0239  0.0872
45194W        W88288   8.638  21.584  24.905 -0.2181 -0.1177  0.2450
45195W        W88289   9.421  20.075  25.917 -0.0599 -0.3782 -0.0526
45196W        W88290  10.525  21.439  25.242 -0.3920  0.2982 -0.1456
45197W        W88291   8.645  18.871  24.763 -0.0281  0.0771 -0.0995
45198W        W88292   9.882  18.833  22.250 -0.1082  0.1205  0.1020
45199W        W88293   9.558  18.983  24.614  0.0626  0.1198  0.1151
45200W        W88294   7.887  20.962  26.948 -0.2937 -0.2416  0.2566
45201W        W88295   6.762  21.240  22.728 -0.0513 -0.0462  0.0800
45202W        W88296   8.539  21.157  23.345 -0.1792  0.2700  0.1189
45203W        W88297   7.012  21.921  25.651  0.1898  0.1918  0.1630
45204W        W88298   9.516  18.615  27.091  0.1352 -0.0566 -0.0335
45205W        W88299   6.794  18.647  27.177 -0.2136 -0.2414  0.1378
45206W        W88300   7.042  20.053  25.930 -0.0574  0.1339 -0.0992
45207W        W88301   6.940  18.538  22.966 -0.0593 -0.5232  0.0743
45208W        W88302  10.542  21.295  24.749  0.1399  0.0038 -0.0237
45209W        W88303   8.294  17.522  25.862 -0.1462  0.1633  0.4837
45210W        W88304   7.476  19.330  25.321  0.1245  0.0539 -0.0309
45211W        W88305   9.052  20.248  25.500  0.1398  0.3167 -0.2185
45212W        W88306   9.002  21.976  24.978  0.2533 -0.1694  0.2790
45213W        W88307   8.606  17.263  24.716 -0.0960 -0.0860 -0.5518
45214W        W88308  11.318  22.509  28.014  0.1221  0.1202 -0.5344
45215W        W88309   6.897  21.110  23.729 -0.2781 -0.0396 -0.3274
45216W        W88310   8.263  19.364  25.881  0.0913  0.1428 -0.1719
45217W        W88311   9.215  18.704  27.582  0.2316  0.0134  0.2163
45218W        W88312   7.079  19.519  22.205 -0.1039 -0.1143  0.2455
45219W        W88313   9.963  18.462  26.825  0.1067  0.0138 -0.0075
45220W        W88314   8.810  22.187  25.833 -0.0771  0.2386  0.0798
45221W        W88315   9.944  23.811  24.585  0.1313  0.1979 -0.2641
45222W        W88316   7.004  21.344  25.629 -0.2202  0.0992  0.3656
45223W        W88317  10.247  22.436  26.758 -0.2006 -0.0452  0.0509
45224W        W88318   8.600  18.275  27.213  0.0404  0.1415 -0.4124
45225W        W88319   7.027  21.335  24.217  0.3193 -0.1214  0.1797
45226W        W88320   9.504  21.338  25.260 -0.1567 -0.0305 -0.1248
45227W        W88321  11.552  20.867  24.971  0.2020  0.2696 -0.2419
45228W        W88322   9.581  18.198  24.934 -0.0062  0.1114 -0.1139
45229W        W88323   9.191  18.848  25.421 -0.0417  0.0070 -0.1218
45230W        W88324   8.203  18.611  27.125  0.4122  0.3358 -0.0344
45231W        W88325   7.019  22.517  27.831 -0.1492 -0.3514  0.1688
45232W        W88326   9.575  21.733  26.392  0.2038 -0.1405 -0.0794
45233W        W88327   7.560  18.580  24.467 -0.0121  0.0489 -0.2336
45234W        W88328   9.274  19.648  24.992  0.0752  0.2065  0.0308
45235W        W88329   9.532  22.250  25.130 -0.1210 -0.1114  0.1025
45236W        W88330   8.596  19.971  25.992 -0.2145 -0.0401 -0.0427
45237W        W88331   8.404  18.568  24.350  0.4428  0.2145 -0.2127
45238W        W88332   8.675  19.179  25.607 -0.1123 -0.0383  0.2036
45239W        W88333   7.387  20.645  25.338 -0.1632 -0.2054 -0.1616
45240W        W88334   9.873  21.717  26.815  0.1942  0.1292  0.0967
45241W        W88335   7.223  19.866  24.533 -0.1030  0.2398  0.4317
45242W        W88336  11.086  20.415  23.576  0.1439  0.0962  0.1679
45243W        W88337   9.965  20.960  25.391 -0.1518 -0.0562  0.0637
45244W        W88338  11.572  21.713  26.977 -0.1222 -0.1802  0.1263
45245W        W88339   9.475  20.418  26.865 -0.2143  0.0309  0.0949
45246W        W88340  10.092  21.349  25.089  0.1251 -0.2255 -0.1318
45247W        W88341   7.426  19.127  26.039 -0.1820  0.0654  0.0463
45248W        W88342   6.951  20.527  25.099  0.1865  0.0012  0.0399
45249W        W88343   8.297  21.458  25.943 -0.0248  0.0650 -0.3722
45250W        W88344  10.177  18.949  25.669  0.1426  0.1573 -0.1755
45251W        W88345   9.645  19.140  26.331 -0.2073  0.0840 -0.0715
45252W        W88346   9.123  18.245  23.107 -0.3567  0.0216 -0.3324
45253W        W88347   7.612  21.868  26.654 -0.1933  0.1324  0.1909
45254W        W88348  10.038  20.494  25.107 -0.2342  0.0342  0.1811
45255W        W88349   7.725  19.841  30.693 -0.0356  0.0764  0.0358
45256W        W88350   8.275  19.716  27.370  0.1666  0.3239 -0.0576
45257W        W88351  11.281  18.901  26.912 -0.2051  0.0806 -0.0343
45258W        W88352  11.333  19.136  28.258  0.1345 -0.0369 -0.1041
45259W        W88353   6.795  19.551  28.303 -0.1392  0.0638  0.0743
45260W        W88354   9.699  22.251  28.164 -0.0035  0.0541  0.0141
45261W        W88355   8.335  19.665  29.383 -0.1997  0.0902 -0.0164
45262W        W88356  11.607  21.751  29.239  0.1148  0.1671 -0.0515
45263W        W88357  10.891  22.639  30.151  0.0585  0.4760  0.0517
45264W        W88358  10.054  20.335  26.777  0.2196  0.2467  0.1717
45265W        W88359   9.338  20.103  30.852  0.1241  0.1243 -0.1885
45266W        W88360   9.311  20.876  30.121  0.1250  0.1290  0.2879
45267W        W88361   8.509  18.980  27.944 -0.1567 -0.0458  0.1205
45268W        W88362   6.689  17.565  29.498 -0.0460  0.2145  0.2907
45269W        W88363   9.510  20.584  29.460 -0.0235  0.0935  0.0149
45270W        W88364   7.372  20.107  28.772  0.0467 -0.4870  0.0746
45271W        W88365   8.748  19.388  30.374 -0.0017  0.0338  0.2167
45272W        W88366   8.771  19.536  27.245 -0.1718  0.0589 -0.1827
45273W        W88367   9.677  21.903  28.667  0.2514 -0.1686 -0.0844
45274W        W88368   9.255  18.927  31.088 -0.0943  0.0914 -0.4837
45275W        W88369   9.516  18.156   0.776  0.1375 -0.3144  0.0729
45276W        W88370  11.004  21.639  28.397 -0.0375  0.0379 -0.0619
45277W        W88371   8.319  20.943  25.970  0.0907  0.1862  0.3012
45278W        W88372   8.223  20.964  29.876 -0.1916 -0.0647 -0.2313
45279W        W88373   9.855  19.950  30.462 -0.1180  0.0834  0.1558
45280W        W88374  10.306  18.600  29.337  0.3445 -0.0347  0.1685
45281W        W88375  10.216  18.690  28.770 -0.3332  0.0003  0.1790
45282W        W88376  10.177  22.331  28.580  0.0990 -0.0239 -0.0156
45283W        W88377  10.575  22.643  29.705 -0.0140  0.1051 -0.2237
45284W        W88378  10.126  19.297  31.129 -0.0709  0.2078 -0.0872
45285W        W88379   8.157  20.319  28.113  0.2144  0.3268 -0.0876
45286W        W88380   7.641  20.744  29.027  0.1379  0.0605  0.1647
45287W        W88381   9.188  20.054  28.967  0.2087 -0.0856  0.0728
45288W        W88382  11.553  21.373  27.385 -0.0384  0.1392  0.0260
45289W        W88383  10.441  22.688  31.205  0.1826  0.2984 -0.1405
45290W        W88384   9.911  22.935  31.145 -0.0011 -0.0674 -0.1530
45291W        W88385   8.361  19.657  28.090  0.0201 -0.0996 -0.0831
45292W        W88386  11.364  21.991  30.429 -0.1047  0.2342 -0.0438
45293W        W88387   8.579  21.084  31.891  0.3961 -0.1856  0.0182
45294W        W88388   9.195  18.957  29.644 -0.2140 -0.2146  0.2591
45295W        W88389   9.669  19.494  28.983 -0.4173  0.1491 -0.0603
45296W        W88390   8.584  20.672  28.045 -0.1545  0.1330  0.0676
45297W        W88391  10.417  20.365  28.486  0.0830  0.0372 -0.1072
45298W        W88392   9.616  20.513  30.964  0.4108 -0.0583 -0.0272
45299W        W88393   9.054  20.939  29.643  0.0670  0.0687  0.2532
45300W        W88394  11.112  19.181  31.345  0.0530 -0.1045  0.1285
45301W        W88395   8.324  20.724  26.670  0.0551  0.0378  0.0748
45302W        W88396  10.034  19.289  28.482 -0.0759 -0.0065  0.0246
45303W        W88397   9.107  18.318  26.230  0.0127 -0.2173 -0.1319
45304W        W88398   9.917  18.049  27.140  0.4443  0.0749  0.2113
45305W        W88399   9.613  19.175  29.940  0.0389 -0.1212 -0.0089
45306W        W88400   8.231  22.082  28.816 -0.1467  0.1694  0.4603
45307W        W88401   9.285  18.828  30.616  0.0868  0.0132 -0.1351
45308W        W88402  11.460  20.053  29.719  0.1745 -0.1664 -0.1156
45309W        W88403   9.224  18.109  29.510 -0.1502 -0.0075  0.1633
45310W        W88404  11.067  19.450  29.402 -0.1178 -0.2306 -0.1219
45311W        W88405   7.879  21.828  30.069  0.1862 -0.1686 -0.1637
45312W        W88406   9.287  20.434  28.619 -0.0837 -0.0928 -0.0851
45313W        W88407   9.950  22.142  27.114  0.1106 -0.0947 -0.0470
45314W        W88408  10.757  21.623  29.214 -0.1569 -0.0907 -0.0525
45315W        W88409  10.403  21.238  27.226  0.4621  0.0743 -0.0842
45316W        W88410   7.575  21.019  27.815 -0.1277 -0.0690  0.1558
45317W        W88411   7.785  20.063  29.853 -0.2219 -0.1472  0.2074
45318W        W88412   7.458  19.409  30.894  0.1122 -0.0124  0.1496
45319W        W88413   7.028  18.235  27.489  0.2232  0.0095 -0.0883
45320W        W88414  10.966  21.614  29.782 -0.3360 -0.0030  0.0229
45321W        W88415   7.581  20.464  29.975 -0.1336 -0.0983 -0.1785
45322W        W88416   8.958  18.924  29.065 -0.1640  0.2661  0.2227
45323W        W88417  10.194  21.707  29.096  0.1016  0.0175  0.0348
45324W        W88418  11.541  22.702  30.595 -0.0466 -0.0820  0.2037
45325W        W88419  10.402  19.255  27.225  0.0327 -0.2230 -0.0184
45326W        W88420   9.767  18.947  28.717 -0.3682 -0.0745  0.3214
45327W        W88421  10.052  18.574  31.051 -0.1162  0.0786 -0.2242
45328W        W88422  10.131  19.239  27.651 -0.0241 -0.1949  0.0026
45329W        W88423   8.817  20.063  27.448  0.1915  0.0051 -0.0797
45330W        W88424  10.241  21.244  30.375  0.1425  0.1347  0.1073
45331W        W88425  10.335  19.784  27.105  0.1988  0.1944 -0.1365
45332W        W88426   8.992  22.058  29.866  0.2747 -0.1624 -0.5769
45333W        W88427  10.825  20.489  31.014 -0.1601  0.0702 -0.1294
45334W        W88428  10.111  20.052  31.797  0.2834 -0.1736 -0.0669
45335W        W88429   9.272  21.623  27.433 -0.2568 -0.0051  0.0895
45336W        W88430   8.343  21.370  29.081 -0.1315 -0.1384  0.2052
45337W        W88431   7.719  19.964  26.354  0.2669 -0.1500  0.0375
45338W        W88432   8.070  20.494  29.986 -0.1140 -0.0333 -0.0000
45339W        W88433  10.360  19.928  30.321  0.1789 -0.1798 -0.1277
45340W        W88434   8.138  17.027  29.083  0.1216  0.2057  0.2389
45341W        W88435   9.090  20.419  29.903  0.4235  0.3772  0.1879
45342W        W88436   9.692  18.738  27.749  0.2001 -0.1306  0.1518
45343W        W88437   8.337  20.198  27.648  0.1978  0.1650 -0.1609
45344W        W88438  12.862  21.362  26.925  0.0745  0.0036  0.0498
45345W        W88439  10.580  18.796  27.406  0.1418  0.1301 -0.2491
45346W        W88440  11.302  21.443  26.445  0.0110  0.1623  0.0636
45347W        W88441   6.937  18.577  30.865  0.1313 -0.2047 -0.0502
45348W        W88442   7.680  19.738  28.816 -0.2320  0.3829 -0.0500
45349W        W88443   8.782  18.876  30.580  0.1380  0.1578 -0.1518
45350W        W88444   9.452  19.635  30.570  0.0756  0.2150 -0.1796
45351W        W88445  11.308  19.911  30.202  0.4010 -0.0911  0.0650
45352W        W88446   8.971  18.064  28.130  0.0497  0.0026  0.1414
45353W        W88447   9.366  18.620  28.833 -0.0797 -0.0728 -0.1881
45354W        W88448   8.415  21.194  28.179  0.0839 -0.1227  0.0168
45355W        W88449   7.326  20.407  28.143 -0.0573 -0.1731 -0.3233
45356W        W88450  11.180  18.314  31.056 -0.0946 -0.0981 -0.1860
45357W        W88451   8.909  20.939  28.380  0.2243  0.1210 -0.0348
45358W        W88452  12.649  20.662  30.324 -0.1040 -0.1948  0.2505
45359W        W88453  11.556  22.247  29.361  0.2168  0.0121  0.1067
45360W        W88454   8.430  17.533  30.046 -0.0267  0.3299  0.0747
45361W        W88455   8.171  19.022  28.850  0.1463 -0.0311  0.0850
45362W        W88456   8.241  22.684  28.741 -0.0993 -0.0949 -0.2562
45363W        W88457   9.179  20.585  29.119  0.1614  0.0297  0.3148
45364W        W88458   8.936  19.094  28.249  0.2276  0.1959 -0.1617
45365W        W88459   9.696  20.575  29.944  0.4467  0.1675  0.1659
45366W        W88460   9.074  19.989  28.448  0.1396 -0.0590 -0.0669
45367W        W88461   8.261  20.433  29.436  0.1990  0.1265  0.0363
45368W        W88462  10.390  19.089  30.226  0.0279 -0.0934 -0.3121
45369W        W88463  10.917  20.425  29.100 -0.2900 -0.4181 -0.0198
45370W        W88464   9.415  19.084  29.206 -0.1468 -0.0967  0.0616
45371W        W88465   5.847  19.018  27.769  0.1503 -0.2182  0.2789
45372W        W88466   9.627  20.958  29.110  0.0692 -0.0824  0.1134
45373W        W88467   8.119  21.744  28.064 -0.0253 -0.2071  0.1474
45374W        W88468   8.817  19.818  28.919  0.4776 -0.2105  0.2096
45375W        W88469  10.687  21.152  29.669  0.0155  0.0578  0.5155
45376W        W88470  10.229  18.260  28.459  0.2297 -0.4360 -0.4842
45377W        W88471   8.048  20.041  30.275  0.3192 -0.1632 -0.0548
45378W        W88472  10.845  21.068  30.944  0.2095  0.0657  0.3252
45379W        W88473   8.041  20.309  26.537 -0.3373 -0.2388  0.1188
45380W        W88474   7.975  20.636  30.428  0.0458 -0.1246 -0.0415
45381W        W88475   8.675  17.857  28.972  0.1387 -0.0708 -0.0384
45382W        W88476  10.414  18.687  26.918 -0.0909 -0.1500  0.0669
45383W        W88477   9.425  18.946   0.242 -0.1634  0.3086  0.2086
45384W        W88478  10.589  20.421  26.760  0.0150  0.0668  0.2981
45385W        W88479  10.045  20.123  26.263 -0.1082  0.0779 -0.0137
45386W        W88480   8.846  19.102  26.435 -0.3512 -0.0164  0.1374
45387W        W88481   7.959  19.354  30.756  0.0859 -0.3711  0.2315
45388W        W88482  10.194  20.859  29.060  0.0666 -0.0590 -0.1092
45389W        W88483  10.330  20.767  30.668 -0.1996 -0.1453 -0.0998
45390W        W88484   9.862  17.606  27.437  0.0152  0.1705  0.0619
45391W        W88485  13.143  20.015  27.031  0.2643 -0.1586  0.1988
45392W        W88486   9.255  21.886  28.856  0.1358  0.3004  0.0462
45393W        W88487  10.461  22.062  30.904 -0.2064  0.1992 -0.0512
45394W        W88488  10.613  21.369  30.105 -0.1764 -0.0724  0.2070
45395W        W88489  10.235  17.788  30.564 -0.2440 -0.1776  0.0177
45396W        W88490   9.681  19.359  27.773 -0.0572 -0.2149 -0.1114
45397W        W88491   7.464  19.161  27.536  0.0474 -0.2738 -0.0846
45398W        W88492   9.586  23.083  27.001  0.1708 -0.2858 -0.0611
45399W        W88493  10.520  19.059  29.005  0.1222  0.0234 -0.0185
45400W        W88494  10.152  18.257  28.961 -0.0675  0.2859  0.1992
45401W        W88495   9.775  18.963  31.202  0.5276 -0.1112  0.0906
45402W        W88496  10.560  19.869  31.912 -0.0691  0.3981 -0.3418
45403W        W88497  10.245  19.805  27.645 -0.4571 -0.0744 -0.0931
45404W        W88498   9.800  19.544  29.538 -0.0575  0.0246  0.0389
45405W        W88499   8.511  20.270  27.089 -0.2459  0.0386 -0.2450
45406W        W88500   8.931  17.705  29.807 -0.1186  0.2043  0.1115
45407W        W88501   9.901  19.985   0.949 -0.1914 -0.2927 -0.1637
45408W        W88502   7.725  21.092  30.657  0.1255 -0.0030 -0.1900
45409W        W88503  10.754  20.963  30.426  0.2260  0.1269 -0.1701
45410W        W88504  10.275  19.735  28.510  0.0001  0.0983 -0.1461
45411W        W88505  10.256  17.791   0.241 -0.2008 -0.2394  0.0080
45412W        W88506   8.966  17.874  27.061  0.0042  0.0784  0.0914
45413W        W88507   9.937  21.352  28.519 -0.0287 -0.2918  0.4029
45414W        W88508   9.372  19.572  27.172  0.0495  0.1629 -0.0544
45415W        W88509   8.209  17.814  29.717 -0.1530 -0.0158 -0.3051
45416W        W88510  10.165  22.763  30.704 -0.1699 -0.4156 -0.2804
45417W        W88511   9.869  21.049  28.130 -0.0190  0.2648  0.0813
45418W        W88512  10.137  20.266  30.684 -0.0660  0.1138  0.0567
45419W        W88513   7.714  22.084  28.071 -0.0674 -0.0263  0.0643
45420W        W88514  10.821  18.823  29.305  0.0541 -0.0369 -0.0933
45421W        W88515   7.947  21.243  28.370 -0.1773  0.1446  0.0200
45422W        W88516  10.012  19.581  28.050 -0.3082  0.1985 -0.0064
45423W        W88517   7.090  19.710  28.774  0.0702 -0.1558  0.0590
45424W        W88518  10.497  18.156  27.976  0.0817 -0.1659 -0.0521
45425W        W88519   9.376  20.070  27.288  0.3334  0.1610  0.0118
45426W        W88520   9.451  20.299  30.271 -0.0567 -0.2311 -0.1623
45427W        W88521   9.645  19.668  30.063 -0.3137  0.0004  0.0364
45428W        W88522   9.677  21.802  29.186 -0.0621  0.4159 -0.2563
45429W        W88523  10.064  20.287  30.154 -0.2800  0.3024  0.2455
45430W        W88524  10.049  17.815  28.734  0.2191 -0.1941 -0.1685
45431W        W88525  10.255  21.776  30.071 -0.4453 -0.1446 -0.0164
45432W        W88526  10.370  19.776  30.982 -0.1010 -0.1330  0.0583
45433W        W88527   7.338  19.430  28.433 -0.0374 -0.1067  0.0627
45434W        W88528  10.072  19.161  29.671 -0.1270  0.0304 -0.0177
45435W        W88529   8.413  19.235  28.408  0.3269  0.0627  0.4021
45436W        W88530   8.688  20.913  27.244 -0.2101 -0.1224  0.0893
45437W        W88531   9.756  20.954  31.462  0.3630 -0.0632  0.0190
45438W        W88532   7.610  19.708  26.852 -0.2543 -0.1308 -0.2664
45439W        W88533   9.211  21.018  28.784  0.0474  0.1292  0.5027
45440W        W88534   9.162  19.348  31.374 -0.2082 -0.0282 -0.1397
45441W        W88535  10.109  19.523  30.079  0.0999 -0.0363  0.3043
45442W        W88536   8.875  19.422  28.610 -0.2040 -0.1373 -0.2578
45443W        W88537   9.092  19.523  28.071 -0.0354 -0.0424  0.0130
45444W        W88538  10.087  20.582  28.049  0.1866  0.0031  0.0582
45445W        W88539  11.114  22.214  30.075  0.1210 -0.2542 -0.1899
45446W        W88540  10.268  19.017  30.726 -0.1473 -0.1573 -0.0930
45447W        W88541   9.582  21.311  31.766  0.0226  0.2386  0.1354
45448W        W88542   7.915  18.787  29.542 -0.1271 -0.1293  0.0761
45449W        W88543  12.331  21.778  28.742 -0.2876  0.4384 -0.4414
45450W        W88544   9.816  18.597  29.129  0.0716  0.1820  0.1259
45451W        W88545   8.266  19.790  26.385  0.0475 -0.2628 -0.1427
45452W        W88546   8.104  21.022  28.773 -0.1518  0.2006  0.0569
45453W        W88547   9.369  20.626  27.347  0.1076 -0.2599  0.0046
45454W        W88548   9.496  18.295  30.561  0.3394  0.2437 -0.1507
45455W        W88549   8.821  20.350  28.852 -0.2274  0.0862 -0.1114
45456W        W88550   8.934  21.897  27.659  0.3703 -0.1631  0.1172
45457W        W88551   6.847  19.908  30.848 -0.0738  0.1560  0.0962
45458W        W88552  10.320  16.783  27.744 -0.1430  0.0882 -0.0381
45459W        W88553  10.133  20.815  28.542 -0.0183  0.0378  0.1479
45460W        W88554   9.500  19.830  29.277 -0.0423 -0.2305  0.0086
45461W        W88555  12.124  19.333  29.259  0.1028  0.2049 -0.0108
45462W        W88556  10.714  19.078  26.849  0.1539 -0.0525  0.1011
45463W        W88557   8.971  19.718  30.881 -0.0912 -0.0773 -0.0330
45464W        W88558   9.709  17.010  30.310  0.2489  0.2399 -0.1290
45465W        W88559  12.368  21.207  27.912 -0.0381  0.0030 -0.1908
45466W        W88560   6.976  18.747  30.342 -0.1108 -0.2146 -0.0970
45467W        W88561  10.463  21.682  31.713 -0.1562  0.0965 -0.3081
45468W        W88562   7.216  19.720  30.573  0.1095  0.1318 -0.1598
45469W        W88563  10.306  17.679  27.224  0.2134 -0.2677  0.1449
45470W        W88564   7.572  17.987  28.031 -0.0352  0.2711  0.1154
45471W        W88565   8.663  18.072  29.553 -0.0601 -0.0812  0.0928
45472W        W88566  11.065  21.473  28.851 -0.0565 -0.0293 -0.2034
45473W        W88567  11.025  19.552  28.411  0.1659 -0.0203  0.1854
45474W        W88568  10.556  19.601  28.131 -0.2113 -0.0880 -0.0054
45475W        W88569   9.128  20.149  29.467 -0.1573  0.1956  0.0182
45476W        W88570   9.910  20.622  27.168  0.0783  0.1362  0.0913
45477W        W88571   9.712  20.354  27.618 -0.1879 -0.0529  0.1368
45478W        W88572   9.862  20.280  28.524 -0.0377  0.1060 -0.0588
45479W        W88573   8.985  18.451  30.900  0.0559  0.1168 -0.1520
45480W        W88574   9.180  18.549  29.309 -0.0647 -0.0501 -0.1856
45481W        W88575   9.463  18.799  28.330  0.3909 -0.1186 -0.0575
45482W        W88576   9.945  18.768  30.000  0.2380  0.0865  0.3656
45483W        W88577  10.573  20.663  28.841  0.3073 -0.0327  0.5271
45484W        W88578   8.700  18.907  31.164 -0.0547  0.0030 -0.1910
45485W        W88579   6.444  17.712  31.745 -0.3270  0.0805  0.1955
45486W        W88580  10.850  23.122  31.519  0.0860 -0.0607 -0.1402
45487W        W88581  10.859  19.585  26.799  0.0723  0.0342  0.1483
45488W        W88582  11.661  18.625  28.822 -0.0467  0.0606 -0.0011
45489W        W88583  10.334  19.120  28.130 -0.0403 -0.0568 -0.3205
45490W        W88584   9.383  19.042  26.763 -0.0684  0.0877 -0.0994
45491W        W88585   8.236  19.600  28.714  0.1902 -0.0789  0.0276
45492W        W88586  10.611  19.088  31.062  0.3092  0.1087  0.0100
45493W        W88587   7.367  18.629  28.348 -0.1802  0.0660  0.0920
45494W        W88588   9.554  18.565  30.989  0.0474  0.2304  0.0539
45495W        W88589  10.360  21.771  27.392 -0.1202  0.0755  0.0069
45496W        W88590   9.837  21.408  29.431  0.1012  0.1055 -0.1314
45497W        W88591   9.352  19.975  28.056  0.0765  0.1870  0.2751
45498W        W88592   8.856  19.738  29.415  0.1867 -0.1869 -0.0062
45499W        W88593  10.227  21.672  30.686  0.1173 -0.1557  0.2525
45500W        W88594   7.683  20.271  26.980 -0.6944 -0.2994 -0.0532
45501W        W88595   8.930  19.943  26.968 -0.0242  0.4702 -0.1381
45502W        W88596  10.689  21.448  30.640 -0.0001 -0.1869  0.1382
45503W        W88597  11.240  21.173  30.511 -0.3275  0.2677  0.1543
45504W        W88598   9.452  18.059  26.986  0.0317 -0.1295 -0.2966
45505W        W88599  10.425  18.876   0.012  0.2187 -0.1274 -0.1310
45506W        W88600   8.737  21.254  27.722 -0.1722  0.1709 -0.2885
45507W        W88601   9.273  19.057  27.892 -0.2437  0.0059  0.1072
45508W        W88602   8.262  21.819  29.288 -0.0980 -0.1138 -0.1052
45509W        W88603   7.701  20.824  29.631 -0.1324  0.2732 -0.2634
45510W        W88604   8.745  21.857  29.081  0.2012 -0.0602  0.0750
45511W        W88605  11.217  17.803  29.803 -0.2508 -0.3350  0.1938
45512W        W88606  10.561  19.339  29.503  0.3128 -0.1836 -0.1481
45513W        W88607  11.056  20.879  29.478 -0.2744  0.0487 -0.1295
45514W        W88608  10.511  20.252  29.473  0.6016 -0.1396  0.1294
45515W        W88609   9.825  19.892  30.936 -0.2323 -0.2440  0.0398
45516W        W88610   7.855  20.147  28.567 -0.1782  0.2000  0.3287
45517W        W88611  10.958  21.971  30.877 -0.1389  0.2479 -0.0771
45518W        W88612  11.414  20.570  28.219 -0.2855  0.0078  0.0679
45519W        W88613  10.366  21.322  29.365  0.3031  0.1479 -0.0197
45520W        W88614   6.673  19.002  31.006  0.2673  0.0205 -0.0010
45521W        W88615   9.490  19.919  31.915  0.0271 -0.3876 -0.0303
45522W        W88616   9.313  19.611  28.660  0.2462 -0.4189 -0.1512
45523W        W88617   8.536  17.425  28.367 -0.0412 -0.1018 -0.4365
45524W        W88618   8.705  20.772  26.240 -0.1704 -0.1084  0.0220
45525W        W88619   8.845  20.793  30.858  0.0289 -0.0743 -0.0941
45526W        W88620   9.647  21.047  29.706  0.0336  0.0647  0.2356
45527W        W88621   8.664  21.924  28.600 -0.1040 -0.0737  0.2062
45528W        W88622  11.405  20.871  27.183  0.0984 -0.3381  0.0869
45529W        W88623  10.616  21.682  28.085 -0.0195 -0.0514  0.1546
45530W        W88624   8.480  22.031  29.701  0.0899 -0.0280 -0.0758
45531W        W88625   8.073  19.966  26.894  0.0307 -0.0777  0.0663
45532W        W88626   8.650  21.302  28.589 -0.2621  0.0188 -0.0215
45533W        W88627   7.559  21.392  27.374 -0.1381  0.1940 -0.1947
45534W        W88628  10.845  21.753  27.587  0.0542  0.0012  0.0745
45535W        W88629   9.506  21.435  28.720  0.1079 -0.2495 -0.1126
45536W        W88630  11.103  20.217  30.656 -0.1130  0.1039  0.4606
45537W        W88631  10.246  16.718  26.654 -0.2293 -0.1740 -0.0062
45538W        W88632  10.749  20.834  27.705  0.1690 -0.1046  0.2399
45539W        W88633  10.308  17.555  28.139 -0.1962  0.0222  0.0218
45540W        W88634  11.720  20.957  30.622 -0.2292  0.2576  0.3912
45541W        W88635   9.565  19.351  28.266  0.0215 -0.3962 -0.1657
45542W        W88636  10.619  17.875  26.457  0.2529  0.1815 -0.3043
45543W        W88637   8.689  21.186  29.939  0.2177  0.1488  0.1225
45544W        W88638  11.013  17.478  30.113 -0.1005  0.5237  0.0882
45545W        W88639   8.506  21.228  30.870  0.0186  0.1478 -0.1839
45546W        W88640  11.922  22.009  28.908  0.3118  0.4615  0.3394
45547W        W88641   7.363  19.279  27.000 -0.3255  0.1835 -0.1601
45548W        W88642  10.164  20.414  28.948 -0.0246  0.3245  0.0839
45549W        W88643  11.926  18.364  28.491  0.0878  0.1544 -0.1800
45550W        W88644  11.035  20.660  26.781  0.0562 -0.2040 -0.0461
45551W        W88645   9.876  20.037  27.985 -0.0662 -0.1329 -0.0291
45552W        W88646  11.705  20.954  29.418  0.0571 -0.0097  0.2000
45553W        W88647   9.339  21.458  29.324  0.0389 -0.0202  0.0985
45554W        W88648   9.709  21.439  29.961 -0.2879  0.1982 -0.1384
45555W        W88649   8.256  18.713  28.395  0.5028  0.0923 -0.2270
45556W        W88650  10.683  18.727  28.636  0.1633 -0.1815 -0.2254
45557W        W88651   9.926  19.173  30.343 -0.0817 -0.2876  0.4616
45558W        W88652  10.674  18.319  29.046 -0.1182  0.0413  0.0501
45559W        W88653   7.900  19.376  29.112  0.3369 -0.1499 -0.2010
45560W        W88654   9.805  18.430  28.619  0.1418 -0.0320  0.1120
45561W        W88655   9.931  20.179  29.359 -0.2808  0.1268  0.2705
45562W        W88656   9.267  20.689  30.617 -0.1276  0.1509 -0.0497
45563W        W88657  10.441  18.297  27.375 -0.2975 -0.0680 -0.1288
45564W        W88658  10.267  20.834  30.035  0.2607  0.1420  0.0795
45565W        W88659   9.399  19.020  25.922 -0.1279  0.0436  0.1377
45566W        W88660  10.626  23.063  30.250  0.0379 -0.3705 -0.3260
45567W        W88661   8.073  19.613  29.921 -0.0101 -0.0795 -0.3531
45568W        W88662  11.257  18.285  26.905 -0.0209  0.1817 -0.2228
45569W        W88663   8.862  20.064  27.980  0.0331 -0.1275 -0.1649
45570W        W88664  10.063  19.519  30.721  0.0202  0.1159 -0.2116
45571W        W88665  11.059  22.955  30.467  0.0012 -0.3511  0.0430
45572W        W88666   6.369  17.452  29.094 -0.1760 -0.4296  0.0533
45573W        W88667  11.060  20.108  26.604  0.3070  0.0603  0.0453
45574W        W88668   9.501  18.088  28.341 -0.2094  0.3284 -0.0038
45575W        W88669  10.025  21.463  26.321  0.2416 -0.1366  0.0969
45576W        W88670  10.994  19.928  28.819  0.1624 -0.0358 -0.2204
45577W        W88671   9.814  20.993  30.253 -0.0220  0.0318  0.0641
45578W        W88672   9.059  19.934  30.424  0.1418 -0.0269  0.0467
45579W        W88673  11.419  20.688  29.822  0.1745 -0.1658 -0.0963
45580W        W88674  11.649  20.882  28.511 -0.3483  0.0336  0.0108
45581W        W88675  10.345  18.078  26.804 -0.2010  0.1296 -0.0796
45582W        W88676   8.771  20.497  29.424  0.4241  0.1510 -0.0978
45583W        W88677   8.609  21.531  29.519 -0.1151 -0.4963  0.4837
45584W        W88678  11.306  18.266  28.524  0.1088 -0.1533 -0.0936
45585W        W88679  10.505  19.999  28.847  0.2426  0.0092  0.0455
45586W        W88680   9.428  22.110  27.283 -0.0309 -0.1594  0.0183
45587W        W88681   9.919  18.337  29.557  0.1651  0.0751  0.2342
45588W        W88682  10.137  22.251  30.574 -0.0668 -0.0957 -0.4055
45589W        W88683   8.981  19.607  31.777 -0.1436  0.1502 -0.1816
45590W        W88684   7.215  19.934  28.265 -0.2458 -0.0481 -0.1710
45591W        W88685   9.769  20.585  30.506  0.1842  0.0252  0.0722
45592W        W88686  10.571  21.660  28.669  0.1201 -0.6093 -0.2397
45593W        W88687  10.293  21.275  28.870  0.0482 -0.1658  0.7156
45594W        W88688  11.077  20.939  28.056  0.1433  0.0149  0.2329
45595W        W88689   9.356  18.296  27.882 -0.1162 -0.0880  0.0261
45596W        W88690  12.527  22.225  29.366  0.1172  0.0440 -0.1934
45597W        W88691   7.706  19.739  29.379  0.0026 -0.2168 -0.2420
45598W        W88692  11.434  17.562  28.742  0.1706 -0.0763  0.1781
45599W        W88693  11.012  18.128  28.079  0.1293  0.2341  0.2519
45600W        W88694   8.303  20.036  29.734 -0.0668 -0.1736 -0.0128
45601W        W88695   7.042  18.756  27.659 -0.0627  0.4629 -0.1007
45602W        W88696   9.070  19.831  26.250  0.1733 -0.0831  0.0824
45603W        W88697   9.685  20.452  28.989  0.1078  0.0373 -0.1076
45604W        W88698  10.214  18.934   0.511  0.1060  0.3860 -0.0122
45605W        W88699   8.600  20.281  31.026 -0.3680 -0.3605  0.0744
45606W        W88700   8.027  20.854  28.048  0.3637 -0.0135 -0.0916
45607W        W88701   8.606  19.301  29.112  0.1144  0.0145 -0.2831
45608W        W88702  11.011  20.349  28.013 -0.3385  0.1171  0.2427
45609W        W88703   7.769  19.294  29.703 -0.0264  0.3205  0.2500
45610W        W88704   7.263  20.397  29.206  0.1733  0.2414  0.0620
45611W        W88705  11.234  20.046  27.467 -0.0435 -0.0774 -0.0352
45612W        W88706  11.010  22.471  28.917  0.0542  0.1549 -0.0826
45613W        W88707   8.795  19.558  29.897  0.1348  0.1367  0.0407
45614W        W88708  10.329  21.731   0.281  0.2057  0.1147  0.0532
45615W        W88709   7.568  21.251  26.681 -0.0712 -0.0611  0.2384
45616W        W88710  10.389  18.844  31.433  0.2933  0.0730  0.3324
45617W        W88711   9.389  18.428  31.809  0.1470 -0.2721  0.0046
45618W        W88712   7.353  19.104  28.010  0.1865  0.1199 -0.1144
45619W        W88713   7.741  18.978  28.231  0.3654 -0.1469 -0.2954
45620W        W88714  10.042  20.932  29.509 -0.0946 -0.2519 -0.0100
45621W        W88715  11.469  22.155  28.321 -0.1022  0.0916  0.0513
45622W        W88716   9.188  20.330  31.278  0.0998  0.1816  0.0762
45623W        W88717   8.503  22.615  31.197 -0.0419  0.0909 -0.0826
45624W        W88718   8.303  18.053  30.820  0.0003 -0.1819  0.0545
45625W        W88719  10.550  20.733  28.168 -0.0380  0.1600  0.1576
45626W        W88720   9.888  21.060  30.792  0.1577 -0.1637  0.3005
45627W        W88721  11.326  21.287  28.415 -0.1351  0.1256  0.0304
45628W        W88722   9.958  19.924  28.923  0.0174  0.1647 -0.1609
45629W        W88723  10.558  20.726  29.368  0.1191  0.0708 -0.3434
45630W        W88724   7.825  18.942  30.571  0.0118 -0.1118  0.2930
45631W        W88725   6.178  20.020  29.850 -0.0727 -0.2631  0.0327
45632W        W88726  10.693  20.708  29.847 -0.1191 -0.2073 -0.0228
45633W        W88727   9.047  18.899  30.125 -0.0438 -0.0668 -0.1309
45634W        W88728   9.929  17.872  28.231  0.1499 -0.1105 -0.1348
45635W        W88729   9.699  19.838  27.614  0.3630  0.3498  0.0177
45636W        W88730   9.676  20.068  29.752  0.2402  0.4476  0.2185
45637W        W88731   9.531  17.814  27.879 -0.0067  0.0256 -0.1805
45638W        W88732  10.177  19.470  28.906  0.0119 -0.3189  0.0638
45639W        W88733  10.133  20.512  29.695  0.0001 -0.4529 -0.0421
45640W        W88734  11.037  20.363  29.604  0.1366 -0.4517  0.2586
45641W        W88735   8.737  18.831  27.442 -0.0141  0.0824  0.0858
45642W        W88736  10.082  18.734  27.321  0.1996  0.1404 -0.1257
45643W        W88737   9.425  22.817  30.263 -0.1311 -0.1270 -0.0875
45644W        W88738  10.168  20.702  31.133  0.1262 -0.3167 -0.1370
45645W        W88739  11.156  22.414  29.636 -0.0039 -0.3662 -0.1323
45646W        W88740  10.542  19.343  28.566 -0.1638 -0.2341  0.3393
45647W        W88741   9.299  19.469  29.605  0.3834 -0.1014  0.1239
45648W        W88742   9.183  20.309  27.645 -0.0548 -0.0932  0.0940
45649W        W88743   9.072  20.982  27.909  0.0208  0.1217  0.0215
45650W        W88744   9.851  18.757  30.592  0.0289  0.0575  0.0232
45651W        W88745   9.191  19.903  29.901  0.0347 -0.2331 -0.0285
45652W        W88746   8.371  18.547  27.664  0.0655 -0.2561 -0.0293
45653W        W88747   9.864  22.557  30.342  0.0747  0.1433 -0.0452
45654W        W88748  11.174  22.367  30.699  0.0291 -0.1166  0.1859
45655W        W88749  11.308  19.008  29.719  0.1068 -0.0099  0.1954
45656W        W88750   9.442  19.413  31.895  0.2311  0.0906 -0.1098
45657W        W88751   8.320  19.853  31.144 -0.3127 -0.3647 -0.3112
45658W        W88752   7.958  20.256  31.285 -0.0799 -0.3070  0.1791
45659W        W88753   8.724  20.955   0.434 -0.0668 -0.1726 -0.0809
45660W        W88754   8.436  20.398  31.536 -0.0124  0.2440 -0.2749
45661W        W88755  10.047  18.261  30.542  0.0414  0.2270  0.0373
45662W        W88756  10.209  19.917  29.763 -0.3751  0.2401  0.2145
45663W        W88757  11.232  19.160  31.931 -0.2956  0.1017  0.0957
45664W        W88758  10.973  21.465  31.244  0.5063 -0.1274 -0.1696
45665W        W88759  10.357  20.384   0.205  0.2886  0.1486  0.0272
45666W        W88760   8.869  17.557  30.879  0.1880 -0.1152  0.0368
45667W        W88761  11.368  22.199   0.645 -0.1580  0.0526  0.0805
45668W        W88762   9.740  20.057   0.448 -0.0883  0.0510 -0.0417
45669W        W88763  11.600  20.365  30.593  0.1950  0.2097 -0.0434
45670W        W88764   8.664  22.066  31.639 -0.1217  0.3398 -0.1753
45671W        W88765   8.593  21.472   0.935  0.3655  0.1448 -0.0741
45672W        W88766  10.653  22.474  30.563  0.1756  0.1290  0.1571
45673W        W88767   8.350  19.003  30.401 -0.1898 -0.2012 -0.1541
45674W        W88768   8.340  18.396   0.405 -0.1654 -0.2172  0.0470
45675W        W88769   8.965  17.910  31.733 -0.0339  0.2069  0.0546
45676W        W88770   6.727  21.184  30.755 -0.0261  0.1393 -0.1054
45677W        W88771  10.535  19.710   0.790 -0.3119  0.0973  0.1038
45678W        W88772  10.481  17.559  30.852 -0.1458 -0.0212 -0.1838
45679W        W88773   9.777  18.697  31.937  0.4438  0.2270 -0.0202
45680W        W88774   9.789  19.328   1.762  0.0984 -0.0601 -0.1340
45681W        W88775   9.569  21.322  31.071 -0.1730 -0.2668  0.0991
45682W        W88776   6.114  20.809  29.405 -0.0839 -0.0263  0.1030
45683W        W88777   9.011  18.772   0.001  0.0932  0.2966  0.1181
45684W        W88778   9.874  20.416   0.090 -0.2924 -0.3346  0.2106
45685W        W88779   9.278  21.555  31.457 -0.1022 -0.2994 -0.0243
45686W        W88780   8.207  18.453  31.877 -0.2681 -0.0054 -0.1355
45687W        W88781  11.098  20.377  30.082  0.0484 -0.2567 -0.0375
45688W        W88782  10.602  19.214   0.702  0.1337 -0.2128 -0.1025
45689W        W88783   7.367  19.026  30.611  0.1588  0.3356  0.1730
45690W        W88784   9.606  19.162  30.794  0.1004 -0.2545 -0.1071
45691W        W88785   9.502  20.882   0.960 -0.1288  0.0361  0.0134
45692W        W88786  10.255  21.236  31.534 -0.0519 -0.1053 -0.1036
45693W        W88787  11.150  19.428   0.502 -0.0921 -0.0706 -0.0686
45694W        W88788   9.972  19.113  29.172 -0.1035  0.3064  0.3973
45695W        W88789  11.478  19.057   0.341  0.0229 -0.2538  0.0241
45696W        W88790   9.187  19.747   0.245 -0.5504  0.0052  0.3155
45697W        W88791  10.067  17.695  31.791 -0.0186  0.0428 -0.0816
45698W        W88792   9.842  20.464   1.054 -0.2089 -0.1993 -0.1496
45699W        W88793   8.775  20.005  31.412 -0.1127  0.0205  0.1843
45700W        W88794  10.291  19.926   0.381  0.0394  0.0123  0.1359
45701W        W88795   9.670  16.625   0.353  0.0681  0.0045  0.1317
45702W        W88796  11.557  21.138  30.004 -0.0763 -0.0856  0.2603
45703W        W88797  10.626  20.890  31.466 -0.1848  0.0678 -0.3277
45704W        W88798   8.133  20.232  30.770 -0.3017 -0.2952  0.1653
45705W        W88799   9.958  20.473  31.537 -0.0354  0.2184 -0.1370
45706W        W88800  11.249  17.562  31.182 -0.1438  0.0417  0.0322
45707W        W88801   9.244  18.350  31.370  0.0800 -0.0562  0.1112
45708W        W88802   9.749  21.545  30.571 -0.0980 -0.0495 -0.0110
45709W        W88803   9.639  20.108  31.408 -0.3906 -0.0793  0.3864
45710W        W88804  12.482  18.612  31.949 -0.3152  0.1150 -0.2099
45711W        W88805  11.348  21.154  31.098 -0.2192 -0.0987 -0.3376
45712W        W88806   8.401  22.340   0.130  0.0152 -0.1100 -0.0177
45713W        W88807  10.873  22.439  31.122 -0.4600 -0.1838  0.2416
45714W        W88808   8.657  20.640  29.997 -0.2097  0.4064  0.0048
45715W        W88809   8.164  19.263  31.224 -0.0094 -0.1422  0.4014
45716W        W88810   8.172  20.254  31.909 -0.0689  0.3255  0.1239
45717W        W88811   7.325  19.803  31.247 -0.1739  0.2986 -0.0840
45718W        W88812   8.498  18.860   0.082  0.1593  0.1312  0.1118
45719W        W88813  10.268  21.704  31.168 -0.1180 -0.0543 -0.1533
45720W        W88814  11.594  22.782  29.584  0.2305 -0.0676 -0.0819
45721W        W88815  10.696  19.553  29.038 -0.1148  0.0441  0.1679
45722W        W88816   8.354  24.989  17.210  0.1726 -0.2054 -0.0601
45723W        W88817   8.631  22.697  16.908  0.2037 -0.0519 -0.1407
45724W        W88818  10.274  22.795  15.659 -0.0396 -0.0925  0.2496
45725W        W88819  10.328  22.788  17.209  0.3679 -0.0696 -0.1599
45726W        W88820   7.081  24.046  17.820  0.1451  0.1313 -0.2109
45727W        W88821  10.272  25.903  16.522 -0.0450  0.3213 -0.2714
45728W        W88822   7.619  23.347  18.594  0.1341 -0.3261 -0.2160
45729W        W88823  10.633  25.329  18.563 -0.0365 -0.0328 -0.1642
45730W        W88824   9.508  25.572  17.754 -0.1525  0.0193  0.0038
45731W        W88825   8.791  25.505  16.157 -0.0588  0.1035  0.0704
45732W        W88826   9.083  24.009  20.060 -0.0169  0.0477  0.3471
45733W        W88827   7.269  24.623  18.876 -0.0004 -0.3003  0.1132
45734W        W88828   9.461  22.697  16.431  0.0044  0.1736  0.6224
45735W        W88829   6.784  23.121  19.083 -0.1778 -0.0657  0.1144
45736W        W88830   8.722  24.433  18.446 -0.2161  0.3934 -0.0418
45737W        W88831   7.710  24.818  16.201 -0.0282  0.0306  0.0525
45738W        W88832   7.118  24.083  19.532  0.0535 -0.2780 -0.0432
45739W        W88833   7.337  22.420  17.806  0.1607 -0.0790  0.2071
45740W        W88834   8.380  26.412  17.204  0.1969  0.1800 -0.0254
45741W        W88835   7.589  22.550  20.518  0.1139  0.0566  0.1632
45742W        W88836   8.574  24.151  18.846  0.2331  0.1614 -0.3187
45743W        W88837   9.125  24.387  16.655 -0.0797  0.2496  0.0762
45744W        W88838   7.441  23.332  16.503 -0.2079 -0.1003  0.1758
45745W        W88839   8.252  24.483  17.194  0.0058 -0.3736  0.2515
45746W        W88840   7.225  24.981  19.212 -0.1022 -0.0017  0.3570
45747W        W88841   9.740  22.214  18.954  0.0997 -0.0714 -0.2595
45748W        W88842  10.030  24.733  16.477  0.0378 -0.2326  0.1149
45749W        W88843   7.715  25.074  16.800  0.1399 -0.2468  0.1017
45750W        W88844   8.823  25.236  18.139  0.0806  0.0679  0.1123
45751W        W88845   9.754  25.739  19.331 -0.0193  0.0256  0.2140
45752W        W88846   7.647  24.546  18.540  0.1607 -0.1952  0.1430
45753W        W88847   7.367  26.475  17.154  0.1700 -0.0944  0.1506
45754W        W88848   8.478  25.819  17.038 -0.4069 -0.1132 -0.2356
45755W        W88849  11.978  24.503  16.944  0.0817 -0.1535  0.1215
45756W        W88850   8.885  26.485  18.739 -0.2619 -0.1361  0.2777
45757W        W88851   7.703  25.983  18.349 -0.0850 -0.0085  0.0163
45758W        W88852   6.498  24.505  17.443  0.0238  0.0449  0.0780
45759W        W88853   9.250  25.831  19.460  0.1999  0.0645  0.0280
45760W        W88854   9.754  23.825  20.441  0.2054  0.3601  0.1805
45761W        W88855   9.064  24.429  18.084  0.2916 -0.1827 -0.0518
45762W        W88856   9.075  24.887  18.483 -0.1203 -0.0185  0.1892
45763W        W88857   7.280  25.548  17.402  0.0220  0.0809  0.0621
45764W        W88858   7.774  25.376  17.273  0.2015  0.1259 -0.0463
45765W        W88859   7.234  25.884  20.676 -0.0098  0.0227 -0.3141
45766W        W88860   6.981  25.030  17.572 -0.0215 -0.2720 -0.1390
45767W        W88861  11.253  22.773  19.594 -0.1905  0.3533  0.0474
45768W        W88862   8.203  24.354  16.732  0.0665  0.2710  0.0866
45769W        W88863   9.019  23.866  16.614 -0.0569 -0.0558 -0.4898
45770W        W88864   7.448  22.024  15.402 -0.2736 -0.1624  0.1714
45771W        W88865   8.752  22.412  17.454  0.0229  0.0700  0.0587
45772W        W88866   8.666  24.383  17.414  0.0530 -0.2176 -0.0713
45773W        W88867   8.758  27.740  17.629  0.2658  0.1665 -0.0282
45774W        W88868   8.562  23.833  20.745 -0.1043  0.0727  0.3010
45775W        W88869  10.009  25.195  17.646  0.1008  0.1801  0.2674
45776W        W88870   8.711  24.186  16.896 -0.1941 -0.1957  0.1635
45777W        W88871   9.672  24.012  18.674 -0.0744 -0.1347 -0.5703
45778W        W88872   6.701  25.517  18.761 -0.0584  0.0789 -0.0785
45779W        W88873   6.686  23.710  17.714 -0.1508  0.0550  0.1957
45780W        W88874  10.462  25.057  16.426  0.0513  0.2165 -0.0318
45781W        W88875   9.553  25.900  17.186 -0.0814 -0.1072  0.1476
45782W        W88876   7.878  26.316  17.043  0.3877 -0.0607  0.1673
45783W        W88877   8.102  24.445  16.275 -0.0552 -0.4758 -0.0920
45784W        W88878   7.799  25.646  21.138 -0.1547 -0.0758  0.2865
45785W        W88879   7.063  24.043  20.152  0.3790  0.3948 -0.3821
45786W        W88880   7.104  22.799  15.901 -0.2656 -0.3653 -0.1519
45787W        W88881  10.040  26.307  19.543 -0.0323 -0.0386 -0.3412
45788W        W88882   7.463  26.997  20.061 -0.1049  0.1497 -0.0654
45789W        W88883   8.902  23.991  17.773 -0.0057 -0.0899 -0.0338
45790W        W88884   7.107  25.992  17.434  0.2877 -0.2315  0.2896
45791W        W88885  10.569  23.553  16.657  0.0878  0.2007  0.0748
45792W        W88886   9.310  26.342  17.507 -0.1499  0.0393  0.1019
45793W        W88887   9.835  22.647  17.202 -0.1766  0.2650  0.0836
45794W        W88888   7.826  23.172  18.106  0.2257  0.1145  0.2903
45795W        W88889   8.052  24.213  15.396  0.1381  0.2990  0.0125
45796W        W88890   9.121  25.059  15.897 -0.0831  0.1177 -0.2726
45797W        W88891   9.883  25.897  19.836 -0.1665 -0.1601 -0.4150
45798W        W88892   9.858  23.496  16.163  0.1880 -0.5068  0.2766
45799W        W88893   8.222  25.541  17.536 -0.2848 -0.0498  0.0348
45800W        W88894   7.754  24.009  19.400 -0.0268  0.0850  0.1156
45801W        W88895   8.602  25.093  19.174 -0.1009  0.2078 -0.0919
45802W        W88896   8.156  24.926  16.728  0.1394 -0.2061 -0.1874
45803W        W88897   9.184  24.886  17.903 -0.0461  0.2566  0.1490
45804W        W88898   7.539  23.832  16.243 -0.0812  0.3222 -0.0233
45805W        W88899   7.265  21.449  18.003  0.2318  0.3297  0.0902
45806W        W88900   7.895  24.194  18.074  0.0264  0.0527  0.0494
45807W        W88901  10.843  23.846  17.079  0.0642 -0.2294 -0.3666
45808W        W88902   7.707  22.951  19.539 -0.0487  0.1234 -0.3614
45809W        W88903   9.071  24.012  17.270 -0.0677 -0.0537  0.1566
45810W        W88904   7.239  24.859  16.794 -0.2498  0.0089 -0.1589
45811W        W88905  11.164  25.593  16.020  0.0984  0.1465 -0.0837
45812W        W88906  10.702  22.848  17.744 -0.0642 -0.2463  0.0611
45813W        W88907  10.540  25.379  15.959 -0.4095 -0.0337 -0.3799
45814W        W88908   6.121  24.313  19.473  0.1977  0.0202 -0.1380
45815W        W88909   7.115  22.197  17.476  0.3873  0.0366 -0.1293
45816W        W88910   6.957  25.418  19.168  0.1584  0.3082  0.1510
45817W        W88911   8.191  23.227  19.127  0.0193  0.1578 -0.0439
45818W        W88912   9.631  23.021  18.330  0.0632  0.1200  0.0087
45819W        W88913   8.144  22.051  17.425 -0.2253 -0.0929  0.1830
45820W        W88914   8.877  23.759  18.217  0.1184  0.0441 -0.0001
45821W        W88915   9.882  25.288  16.644  0.0131 -0.1221  0.0652
45822W        W88916   7.812  24.338  17.098  0.1465  0.0360 -0.1334
45823W        W88917  10.267  23.623  19.275  0.0428  0.0788  0.2091
45824W        W88918   9.174  26.241  15.880 -0.1737  0.1278  0.1666
45825W        W88919  11.141  25.200  19.981 -0.1461 -0.1465  0.0514
45826W        W88920   9.924  25.641  17.432 -0.1276  0.1754  0.0732
45827W        W88921   8.006  24.101  20.996  0.1424  0.4566  0.1185
45828W        W88922   7.242  22.495  16.384 -0.0554  0.1909  0.0205
45829W        W88923   8.188  26.419  18.512 -0.0829 -0.0555 -0.0835
45830W        W88924   8.799  26.484  16.907  0.1220 -0.2243 -0.2317
45831W        W88925   8.497  23.904  16.494  0.0377  0.0502 -0.2169
45832W        W88926  10.186  25.355  17.173 -0.1990 -0.1200 -0.0995
45833W        W88927   8.610  24.692  16.932 -0.0381 -0.0847 -0.0872
45834W        W88928   7.495  24.358  19.852 -0.4408  0.2368 -0.1956
45835W        W88929  10.109  23.550  20.722 -0.0539 -0.1703 -0.2091
45836W        W88930  10.513  25.073  18.970  0.3279  0.3243  0.0590
45837W        W88931   8.495  23.394  17.282 -0.0287 -0.1665  0.0546
45838W        W88932   7.232  21.985  16.534  0.3274 -0.3072 -0.1972
45839W        W88933   9.488  26.640  18.671 -0.3586 -0.0470  0.1860
45840W        W88934   6.902  25.044  18.102 -0.1524  0.0646 -0.1229
45841W        W88935   7.810  23.425  16.082  0.0691 -0.2918  0.1639
45842W        W88936   8.715  26.413  15.616 -0.0869  0.2913  0.0565
45843W        W88937   9.307  22.974  17.989 -0.0406 -0.2051  0.1173
45844W        W88938   7.083  23.417  20.994  0.0398 -0.0537 -0.1601
45845W        W88939  10.404  23.100  19.260 -0.2866 -0.2135  0.1610
45846W        W88940   6.282  23.488  17.419  0.0900  0.0030 -0.0782
45847W        W88941   8.271  26.065  17.568 -0.3308 -0.1964 -0.1458
45848W        W88942   6.885  23.351  18.670  0.3552 -0.1398 -0.0871
45849W        W88943  10.153  21.772  17.049 -0.1609 -0.1494  0.0138
45850W        W88944  10.183  24.935  19.332  0.2863 -0.0720  0.0795
45851W        W88945  10.234  23.156  16.456 -0.0278 -0.1630  0.2056
45852W        W88946   9.122  24.382  15.808  0.3290 -0.0375  0.1035
45853W        W88947   9.481  22.384  15.535  0.1232 -0.0484 -0.0347
45854W        W88948   7.239  26.927  19.513 -0.1586  0.0532 -0.1270
45855W        W88949   8.564  26.706  16.521 -0.0271 -0.0291  0.0379
45856W        W88950   8.957  24.713  19.010  0.0779  0.2704  0.1730
45857W        W88951   8.763  21.716  15.640  0.0506  0.3332 -0.2814
45858W        W88952  10.655  26.839  16.882 -0.1760  0.1929 -0.2223
45859W        W88953   8.539  25.031  18.540  0.0742 -0.0951 -0.2562
45860W        W88954   9.588  25.626  20.474 -0.3065  0.1022 -0.0014
45861W        W88955  10.526  25.485  16.717  0.1882 -0.0385 -0.1900
45862W        W88956   8.190  23.352  20.323 -0.0209 -0.1723 -0.2183
45863W        W88957   8.024  23.028  16.317 -0.0511  0.3364 -0.0825
45864W        W88958   7.977  22.480  16.849  0.1511  0.0603 -0.2454
45865W        W88959   6.755  24.826  17.096  0.0404  0.2131 -0.2054
45866W        W88960   7.988  23.729  17.900  0.1126  0.3212 -0.2043
45867W        W88961   8.133  25.012  19.019 -0.0028  0.0566 -0.1201
45868W        W88962   9.190  23.883  20.827 -0.1408  0.0575  0.0165
45869W        W88963  10.190  24.002  20.913 -0.0942 -0.0285 -0.0466
45870W        W88964   9.947  23.805  16.991 -0.2590  0.4696  0.6914
45871W        W88965   9.549  23.699  19.071 -0.0970  0.1712 -0.2594
45872W        W88966   7.660  21.924  17.255  0.1209 -0.1412 -0.0390
45873W        W88967   9.252  24.489  19.353 -0.1119 -0.0689  0.1286
45874W        W88968   8.454  25.021  21.052  0.0832 -0.0354  0.1785
45875W        W88969   7.040  24.080  19.020 -0.0954  0.3669 -0.2972
45876W        W88970   8.447  26.273  18.054 -0.0270  0.1792  0.1169
45877W        W88971  10.000  24.239  17.363  0.1979  0.1353 -0.1108
45878W        W88972  10.224  22.758  21.195  0.1593 -0.1079  0.0548
45879W        W88973   8.547  22.879  15.582  0.1649  0.2574  0.0549
45880W        W88974   7.374  25.389  16.930  0.0756  0.1203  0.1563
45881W        W88975   8.441  23.928  15.540 -0.2695 -0.0130  0.1320
45882W        W88976   8.101  24.224  17.613 -0.2424 -0.0106 -0.2115
45883W        W88977   9.157  26.731  17.811  0.1954 -0.1430  0.0807
45884W        W88978   8.286  25.613  16.171  0.0431  0.1481 -0.2783
45885W        W88979   9.998  25.383  19.676 -0.1680 -0.2300 -0.0809
45886W        W88980   8.699  25.342  17.209 -0.1249  0.1042 -0.0364
45887W        W88981  10.218  22.691  18.969  0.0209  0.0189  0.1513
45888W        W88982   9.078  25.339  17.748  0.4190 -0.1351  0.0690
45889W        W88983   7.641  21.590  16.845 -0.0904 -0.1078  0.0597
45890W        W88984   7.169  24.191  16.186 -0.3093 -0.1637 -0.1606
45891W        W88985  10.194  23.842  18.784  0.1177 -0.2210  0.3631
45892W        W88986  11.724  23.759  16.743  0.1934  0.3379  0.0185
45893W        W88987   8.727  23.211  19.091  0.1877 -0.0368  0.3523
45894W        W88988   8.786  23.641  20.301  0.1149 -0.1293  0.4498
45895W        W88989   7.194  25.686  18.267  0.2520 -0.3061 -0.0333
45896W        W88990   9.220  25.007  19.334  0.0573  0.1768 -0.1129
45897W        W88991   8.428  23.462  16.822  0.0518  0.0577 -0.2507
45898W        W88992   8.204  26.039  19.407  0.2570  0.2551  0.1519
45899W        W88993   7.767  24.848  19.304 -0.0014  0.3031 -0.0610
45900W        W88994   6.901  21.766  15.839 -0.1022 -0.1235  0.0462
45901W        W88995  10.501  23.764  18.324 -0.0547 -0.0812 -0.2194
45902W        W88996   8.350  22.626  16.482 -0.2657 -0.1457 -0.0076
45903W        W88997   7.999  24.149  18.612  0.0004 -0.2587  0.0326
45904W        W88998   9.353  25.269  18.158  0.2331 -0.1252 -0.0199
45905W        W88999   7.667  24.315  16.157 -0.0103 -0.1135  0.2250
45906W        W89000   8.049  25.770  17.959 -0.0296 -0.0824  0.3777
45907W        W89001   8.277  24.890  19.623  0.1956  0.4018  0.1532
45908W        W89002  11.230  25.373  18.477 -0.2231  0.3129  0.2327
45909W        W89003   9.035  22.632  18.309  0.1357  0.1580  0.1694
45910W        W89004   7.062  21.663  16.996 -0.1318 -0.2205 -0.1175
45911W        W89005   9.519  24.359  17.087 -0.1383  0.1801  0.3930
45912W        W89006   9.712  25.324  18.603  0.2603  0.3585  0.0656
45913W        W89007   9.328  23.065  19.472 -0.1856  0.0824 -0.1742
45914W        W89008   7.487  25.373  19.172 -0.0563 -0.1249 -0.0569
45915W        W89009   8.667  21.863  18.196  0.1083 -0.1357 -0.3021
45916W        W89010  10.869  25.471  15.595 -0.0050 -0.0433 -0.1110
45917W        W89011   9.971  23.901  18.299  0.1667  0.1195 -0.2451
45918W        W89012   8.168  24.934  16.066  0.1568  0.1592  0.1274
45919W        W89013   6.523  24.801  19.558  0.0356 -0.0198  0.1171
45920W        W89014   9.024  24.985  16.663 -0.3497  0.0795  0.1158
45921W        W89015   8.538  24.227  19.854 -0.0414  0.0170  0.0156
45922W        W89016   8.762  25.625  18.490  0.0914 -0.1043  0.1749
45923W        W89017   8.376  26.216  16.774  0.0482  0.0891 -0.0433
45924W        W89018   8.203  24.550  18.360  0.2627 -0.2412  0.2004
45925W        W89019   9.604  22.909  17.555 -0.3307 -0.3199  0.1142
45926W        W89020   9.883  25.681  15.398  0.3283 -0.0538  0.1254
45927W        W89021   8.392  24.521  19.346 -0.0017 -0.0293  0.0363
45928W        W89022   9.457  22.049  19.529  0.1416 -0.0275  0.2719
45929W        W89023   9.293  24.983  17.063 -0.0209 -0.1550 -0.0456
45930W        W89024   9.075  24.531  19.898 -0.1293 -0.2675  0.4449
45931W        W89025   7.781  22.803  18.639 -0.2479  0.0351 -0.3974
45932W        W89026  10.020  24.863  16.991 -0.2645  0.2519  0.2543
45933W        W89027   7.608  24.175  18.907  0.2753  0.3147  0.1248
45934W        W89028   9.243  25.510  18.538 -0.0099  0.1847  0.0326
45935W        W89029   7.220  24.987  20.164  0.0489  0.3524 -0.2320
45936W        W89030   8.063  22.880  15.828  0.0744 -0.3074  0.3603
45937W        W89031   8.881  22.564  16.465 -0.1641  0.1933  0.1883
45938W        W89032   8.430  25.452  19.481  0.2024 -0.0139 -0.1532
45939W        W89033   9.511  24.000  16.752 -0.2557 -0.2883 -0.3286
45940W        W89034   8.994  24.672  16.274  0.0880  0.1921  0.3426
45941W        W89035   8.963  23.238  17.068  0.3119  0.1707  0.0263
45942W        W89036   7.514  24.043  18.480  0.2063 -0.2343 -0.5430
45943W        W89037   7.681  22.977  16.716 -0.0605 -0.3658 -0.1567
45944W        W89038   8.667  22.570  16.016  0.2555 -0.5932 -0.0622
45945W        W89039   8.564  25.310  16.682  0.3041  0.0938 -0.0355
45946W        W89040   8.253  23.765  18.845  0.1880  0.2221 -0.0711
45947W        W89041   9.322  23.638  17.010  0.1423  0.0303 -0.1794
45948W        W89042   9.049  24.080  18.564  0.0608 -0.0787  0.0183
45949W        W89043   9.753  23.848  19.544 -0.2719 -0.1385  0.0219
45950W        W89044   9.562  24.240  20.242 -0.2297 -0.2079 -0.1236
45951W        W89045   9.359  25.522  19.006  0.1386 -0.0919 -0.3382
45952W        W89046   7.306  23.597  20.264  0.1504  0.1541 -0.0963
45953W        W89047   9.282  26.055  18.473  0.0942  0.1075  0.1224
45954W        W89048  10.494  23.120  16.879  0.0612 -0.3352 -0.2043
45955W        W89049  10.454  23.364  18.722  0.0602 -0.0330 -0.0239
45956W        W89050  11.383  22.120  17.858  0.1258  0.0877 -0.0846
45957W        W89051   8.651  23.061  16.458 -0.0544 -0.0227  0.0679
45958W        W89052   8.876  24.864  17.497  0.2416 -0.2684  0.0181
45959W        W89053   9.669  24.755  19.313 -0.3553  0.0014  0.3200
45960W        W89054   7.562  22.919  16.188  0.0916  0.1821  0.3263
45961W        W89055   9.170  24.009  19.596  0.1889  0.0885  0.2031
45962W        W89056   7.724  25.593  16.700 -0.0673  0.0152 -0.0132
45963W        W89057  10.163  25.690  18.428 -0.2577  0.2199  0.0160
45964W        W89058   9.588  24.602  17.916 -0.1776  0.1958  0.2900
45965W        W89059   7.783  23.678  18.891  0.0374  0.1980  0.0562
45966W        W89060   7.520  26.237  20.434  0.0585  0.0953 -0.1776
45967W        W89061   7.057  23.657  16.322 -0.1020  0.0325  0.0303
45968W        W89062   8.458  23.177  15.953  0.0454 -0.1403 -0.2657
45969W        W89063   7.114  26.447  19.873 -0.0747  0.0290  0.0321
45970W        W89064   9.874  24.793  18.818  0.0313 -0.2142 -0.1815
45971W        W89065   9.529  22.190  15.976  0.2176  0.1512  0.1245
45972W        W89066  10.847  23.231  20.360 -0.6332  0.1496 -0.0782
45973W        W89067   7.383  25.244  16.428 -0.0438  0.0377 -0.0680
45974W        W89068   7.673  22.369  17.332 -0.0353 -0.1335  0.1555
45975W        W89069   8.613  25.785  18.039 -0.1249 -0.0723  0.0293
45976W        W89070   5.884  24.456  18.878 -0.3426  0.3390  0.2735
45977W        W89071   9.511  24.705  16.009  0.2926 -0.1006  0.1530
45978W        W89072   9.617  23.183  19.941  0.1701 -0.2795  0.1285
45979W        W89073   8.443  23.736  17.765  0.1099  0.1287 -0.0896
45980W        W89074   8.917  25.268  18.827 -0.0982  0.1077 -0.1224
45981W        W89075   9.960  24.030  19.965  0.4196  0.0315 -0.1514
45982W        W89076   8.639  24.748  18.030 -0.0511 -0.0489 -0.0683
45983W        W89077   9.225  24.114  19.073  0.2175 -0.0003  0.0314
45984W        W89078   9.431  25.801  19.997  0.0736 -0.2016 -0.1522
45985W        W89079   9.514  24.185  18.240  0.1267  0.0167  0.1107
45986W        W89080   8.341  25.356  18.155 -0.0953  0.0942 -0.0760
45987W        W89081   7.008  23.798  20.592  0.1180  0.1493  0.0386
45988W        W89082   7.414  24.397  19.337  0.0420  0.0064 -0.1127
45989W        W89083  10.009  24.339  16.810  0.2945 -0.1097  0.3154
45990W        W89084   8.140  22.429  16.053  0.1021  0.1790 -0.4532
45991W        W89085   9.653  25.333  17.155 -0.1875 -0.1043 -0.0689
45992W        W89086   6.405  27.358  19.560  0.0197 -0.2275 -0.0033
45993W        W89087   6.176  23.102  20.918  0.1462  0.1759 -0.1899
45994W        W89088   7.246  25.540  15.989 -0.0193 -0.0465 -0.0982
45995W        W89089   9.606  25.380  15.759  0.1574  0.0125  0.1786
45996W        W89090   8.843  24.148  16.140 -0.0595  0.3091 -0.0262
45997W        W89091   9.732  24.971  19.753 -0.1570 -0.2778 -0.2832
45998W        W89092   7.606  21.577  15.648 -0.0802  0.1543  0.0968
45999W        W89093   8.084  26.651  16.344 -0.1306 -0.0849  0.0426
46000W        W89094   6.326  26.020  16.704  0.1698 -0.0477  0.1577
46001W        W89095   9.139  23.363  16.577 -0.1740  0.1251 -0.1203
46002W        W89096   7.563  25.909  17.144  0.1413 -0.1567 -0.3006
46003W        W89097   9.912  26.177  19.042 -0.0882 -0.1104  0.3013
46004W        W89098  10.289  23.199  17.587 -0.1749  0.4398  0.0604
46005W        W89099  10.178  24.418  19.101  0.2068  0.1154 -0.1172
46006W        W89100  10.667  23.684  17.629  0.0802  0.2472 -0.2945
46007W        W89101   9.729  26.668  19.154  0.3125  0.2967  0.1112
46008W        W89102   8.521  24.279  17.998  0.1075  0.0971  0.1825
46009W        W89103   8.071  21.863  15.745 -0.2501 -0.1847 -0.0462
46010W        W89104   8.696  24.215  20.400  0.2967  0.0670 -0.3140
46011W        W89105  10.867  22.718  18.376  0.2209 -0.2688 -0.1111
46012W        W89106   7.244  25.574  18.783  0.0604  0.0462  0.2371
46013W        W89107   9.618  26.120  16.721 -0.0061  0.2433 -0.0975
46014W        W89108   8.562  20.932  16.844  0.3050 -0.5159  0.1493
46015W        W89109   7.758  24.088  16.666 -0.0671 -0.2273  0.3225
46016W        W89110  11.057  22.525  18.808 -0.0808  0.1015 -0.1484
46017W        W89111   8.761  24.738  15.828 -0.0591 -0.1734 -0.1352
46018W        W89112   8.565  25.202  17.643 -0.4329  0.0972 -0.2699
46019W        W89113   7.938  25.276  16.423 -0.2445  0.3631  0.0711
46020W        W89114   8.080  24.208  19.092  0.4889  0.2713 -0.1925
46021W        W89115   7.204  25.398  17.884 -0.1480 -0.0586 -0.2060
46022W        W89116   8.290  23.403  16.356  0.3501  0.3048 -0.2296
46023W        W89117  11.620  21.693  16.632  0.1202  0.0599 -0.0689
46024W        W89118   9.179  23.517  19.341  0.3305  0.0585 -0.0672
46025W        W89119   9.751  22.661  17.955  0.2352 -0.0672 -0.0078
46026W        W89120   9.227  24.418  17.563 -0.0326  0.2271  0.1080
46027W        W89121   8.565  23.944  17.315 -0.2022  0.2288 -0.0474
46028W        W89122  10.032  24.536  19.600 -0.1663  0.1787  0.1437
46029W        W89123   8.368  24.746  17.664  0.0570  0.2002 -0.0823
46030W        W89124   9.552  23.153  16.238  0.1522 -0.1932  0.1487
46031W        W89125  10.566  24.054  19.200 -0.1085  0.1236  0.2004
46032W        W89126   8.881  23.555  16.211 -0.0464  0.6704  0.1262
46033W        W89127   9.052  26.286  19.223  0.2852 -0.0815 -0.0139
46034W        W89128   6.612  24.699  18.233  0.0162 -0.2329 -0.1167
46035W        W89129   9.395  22.424  16.859 -0.0854  0.1739 -0.4380
46036W        W89130   7.352  23.066  17.808 -0.3610  0.1004 -0.3772
46037W        W89131   8.136  23.242  18.635 -0.0250  0.0446 -0.1041
46038W        W89132   8.822  26.308  17.398 -0.0938 -0.1481 -0.0706
46039W        W89133   6.928  21.570  16.347  0.2414 -0.0034  0.2857
46040W        W89134  11.010  24.836  16.628 -0.0375 -0.3092 -0.1265
46041W        W89135   8.986  23.578  17.492 -0.0627  0.2400  0.0990
46042W        W89136   8.653  25.048  16.230  0.5651  0.0204  0.1204
46043W        W89137  10.082  23.145  15.962  0.0165  0.1704 -0.0787
46044W        W89138   9.609  25.722  18.243 -0.0345  0.0651  0.0825
46045W        W89139   7.434  25.043  17.329  0.0117  0.1244  0.2545
46046W        W89140  10.328  26.570  19.940 -0.2522 -0.1166 -0.0849
46047W        W89141  10.457  24.569  17.764 -0.0215  0.3463 -0.0937
46048W        W89142   9.761  23.447  16.694 -0.1295 -0.0064 -0.3433
46049W        W89143   8.112  23.689  17.424  0.1438 -0.1430 -0.0489
46050W        W89144   8.146  25.411  16.940  0.1602  0.0995 -0.1553
46051W        W89145   9.375  24.446  18.729  0.0233  0.2024  0.2301
46052W        W89146  10.612  22.441  19.009 -0.0132 -0.0034  0.0974
46053W        W89147   7.341  26.522  15.789 -0.2818  0.2241  0.1230
46054W        W89148   9.626  24.352  19.744 -0.1847 -0.0989  0.1723
46055W        W89149   7.996  24.600  18.885  0.2652 -0.2072 -0.1049
46056W        W89150   8.203  25.381  18.667 -0.2090 -0.3485  0.1707
46057W        W89151   7.323  24.630  16.371 -0.2315 -0.5301  0.0790
46058W        W89152   8.241  24.354  20.265  0.0791  0.2082  0.0027
46059W        W89153   8.991  25.520  16.800  0.0463  0.0113  0.2715
46060W        W89154   8.168  25.783  16.631  0.1421  0.0048 -0.0077
46061W        W89155   9.919  23.304  17.206 -0.0044 -0.0321 -0.1901
46062W        W89156   9.068  24.601  17.122  0.1291 -0.1944 -0.0474
46063W        W89157   9.781  24.013  17.798 -0.1197 -0.1774  0.1178
46064W        W89158   6.751  23.856  16.710 -0.1487  0.0589 -0.0423
46065W        W89159   9.144  23.059  17.559 -0.0817  0.1013  0.2360
46066W        W89160   8.710  22.802  17.853 -0.1827  0.3851 -0.0374
46067W        W89161   7.939  24.474  19.572  0.1332 -0.1427  0.2552
46068W        W89162   8.080  23.968  16.291  0.0002 -0.0299  0.3227
46069W        W89163   8.600  24.470  16.461  0.0591  0.2960 -0.0971
46070W        W89164   7.835  24.705  18.094  0.1038 -0.0263  0.1887
46071W        W89165   6.937  22.257  20.679 -0.0180 -0.0782  0.1913
46072W        W89166   7.167  23.519  19.488 -0.0884 -0.2330  0.3842
46073W        W89167   7.015  22.731  17.567 -0.0463 -0.2490  0.1063
46074W        W89168   7.529  22.782  18.229 -0.0195  0.0387  0.1540
46075W        W89169  10.567  24.588  16.664  0.2762  0.1707  0.2690
46076W        W89170   8.005  23.656  18.403 -0.1773 -0.1610 -0.0218
46077W        W89171   7.193  23.555  17.703 -0.1612 -0.3823 -0.3622
46078W        W89172   9.953  24.452  16.027 -0.5347  0.3302  0.1092
46079W        W89173  10.914  25.920  17.770 -0.1981 -0.0307 -0.0841
46080W        W89174   8.244  23.014  16.766 -0.4936  0.1166 -0.0907
46081W        W89175  10.779  24.665  18.957  0.2547 -0.1031 -0.1549
46082W        W89176   6.005  23.243  17.080 -0.1034 -0.0748 -0.0205
46083W        W89177   8.532  25.535  19.000 -0.1848  0.3431 -0.1016
46084W        W89178   8.671  22.960  21.256 -0.1586 -0.0669  0.1597
46085W        W89179   7.043  23.140  16.235 -0.2338  0.1972 -0.0472
46086W        W89180   9.116  23.593  18.814  0.2130  0.1187  0.0325
46087W        W89181  10.374  24.909  17.409 -0.0321 -0.0855 -0.0513
46088W        W89182  10.728  25.708  16.317  0.0331  0.3790  0.0965
46089W        W89183   7.643  26.753  18.415  0.3955  0.0548 -0.0993
46090W        W89184   8.003  25.004  18.419  0.1245 -0.2039  0.1517
46091W        W89185   6.573  23.916  18.697 -0.1448 -0.1970 -0.1680
46092W        W89186   9.800  25.070  16.126 -0.1569  0.0846  0.0385
46093W        W89187   8.496  24.648  18.869  0.0546 -0.1170  0.0973
46094W        W89188  11.273  24.541  15.728 -0.1615 -0.0189  0.4683
46095W        W89189  10.002  23.041  17.942  0.0410  0.2199  0.1325
46096W        W89190   8.203  23.890  16.909 -0.0883  0.2133  0.0736
46097W        W89191   6.708  22.987  20.020 -0.2342 -0.2542  0.1699
46098W        W89192   6.779  23.707  21.230 -0.2170 -0.0364 -0.3019
46099W        W89193   9.712  25.771  18.720 -0.1773 -0.2883 -0.0729
46100W        W89194   6.857  24.205  18.328 -0.0892 -0.1325 -0.0289
46101W        W89195   9.299  23.699  17.949 -0.2180  0.0739  0.1355
46102W        W89196   9.408  25.123  16.422 -0.0542 -0.3194  0.1762
46103W        W89197   7.978  25.084  17.762  0.0814  0.3004 -0.0086
46104W        W89198   7.267  23.737  17.211  0.5599  0.1158  0.0315
46105W        W89199  10.803  24.068  20.245 -0.1459  0.0898 -0.1356
46106W        W89200  10.679  24.887  18.206  0.0636 -0.0446  0.1590
46107W        W89201   9.684  23.506  18.592  0.2305 -0.0794 -0.5755
46108W        W89202   8.713  23.456  15.678 -0.3097  0.2289  0.1938
46109W        W89203   9.592  24.408  16.365 -0.0757  0.1388  0.1942
46110W        W89204   8.982  25.965  17.082 -0.1074 -0.0885  0.2005
46111W        W89205  10.075  25.579  20.203 -0.4298 -0.3035  0.0999
46112W        W89206   7.603  26.549  19.961 -0.0820 -0.0691  0.0241
46113W        W89207  10.065  24.377  18.592 -0.2024 -0.1629  0.0427
46114W        W89208   8.890  23.015  18.620 -0.0141  0.0439  0.1903
46115W        W89209   7.658  23.425  17.488 -0.0132  0.1164  0.0987
46116W        W89210   8.631  25.814  16.523  0.0058 -0.1848 -0.1344
46117W        W89211   9.485  25.365  19.564 -0.0541  0.1646  0.0401
46118W        W89212   6.896  23.163  17.726  0.0111 -0.1072  0.0762
46119W        W89213   9.022  22.241  15.896  0.1614  0.1689 -0.1024
46120W        W89214   7.802  25.668  20.164  0.2749 -0.0183 -0.1544
46121W        W89215   9.655  24.882  18.379 -0.1757  0.2720 -0.1307
46122W        W89216   8.686  25.296  21.987  0.1827 -0.0321 -0.3017
46123W        W89217   8.218  21.605  21.577 -0.1740 -0.1834 -0.0383
46124W        W89218   9.327  23.297  21.617  0.0366  0.1286  0.0247
46125W        W89219  10.438  24.734  20.399 -0.1679 -0.2206  0.2629
46126W        W89220   6.430  22.580  20.984 -0.0520  0.0934 -0.0682
46127W        W89221   9.420  26.472  20.470 -0.2991 -0.1449 -0.1188
46128W        W89222   7.691  21.822  23.825 -0.0509 -0.1583  0.1022
46129W        W89223   9.639  25.149  22.388 -0.1011  0.2102 -0.1953
46130W        W89224   9.639  25.397  21.952 -0.3209  0.0833 -0.1053
46131W        W89225  10.394  24.373  20.040 -0.1115 -0.0597 -0.1404
46132W        W89226   8.582  23.385  23.298 -0.1012  0.0542 -0.2636
46133W        W89227   9.430  25.266  20.852 -0.2662 -0.3054 -0.1451
46134W        W89228   8.375  22.330  20.243 -0.1067 -0.2184 -0.2077
46135W        W89229   9.050  22.456  23.733  0.0848 -0.0376  0.0982
46136W        W89230  10.409  22.068  22.150  0.0537  0.0274 -0.1506
46137W        W89231   7.735  23.695  22.296  0.1913 -0.0301 -0.0215
46138W        W89232   7.941  23.162  21.560  0.0143  0.0482 -0.0416
46139W        W89233   9.494  22.095  20.431  0.1193 -0.0457 -0.1037
46140W        W89234   8.763  25.182  21.485  0.1947 -0.0877 -0.0506
46141W        W89235   8.186  23.676  23.499  0.1582 -0.0086  0.0579
46142W        W89236  10.090  23.193  24.667 -0.1312  0.1604 -0.2512
46143W        W89237   8.927  26.354  20.346  0.1994 -0.1716  0.2803
46144W        W89238   6.929  22.816  19.549 -0.1609  0.0717 -0.3667
46145W        W89239   7.627  23.513  21.826 -0.0519 -0.3964 -0.0527
46146W        W89240   8.330  22.945  22.940 -0.2292 -0.1227  0.0851
46147W        W89241   9.923  23.184  20.972  0.0422  0.0910 -0.1177
46148W        W89242   9.991  22.375  22.034  0.0344 -0.3819  0.1215
46149W        W89243   8.165  24.084  21.985 -0.0388  0.1868  0.0694
46150W        W89244   9.990  25.862  20.611 -0.1478  0.0788 -0.0659
46151W        W89245  10.304  22.819  23.223  0.1324  0.0273  0.0264
46152W        W89246   6.574  22.629  22.067  0.0752 -0.1055 -0.0822
46153W        W89247   6.926  25.337  21.988 -0.1972 -0.0837 -0.1714
46154W        W89248   8.634  24.621  20.160 -0.0442  0.0874  0.0652
46155W        W89249   9.911  24.530  20.074 -0.4136 -0.1878 -0.1147
46156W        W89250   9.537  26.023  22.712  0.3122 -0.1441  0.0166
46157W        W89251   9.862  26.208  23.702 -0.3319  0.2983  0.0475
46158W        W89252   6.789  24.919  19.122  0.0756 -0.1135  0.0073
46159W        W89253   8.825  24.556  23.749 -0.3459 -0.1897  0.0777
46160W        W89254   7.976  24.408  22.817  0.1488  0.0211  0.1366
46161W        W89255   9.658  23.456  22.770  0.0431 -0.3462 -0.0521
46162W        W89256   9.214  23.768  21.331 -0.1201  0.0171 -0.1172
46163W        W89257   9.146  25.486  20.315 -0.1557 -0.0938 -0.1943
46164W        W89258   9.232  24.746  20.827 -0.2679 -0.3760  0.2785
46165W        W89259   8.087  23.830  24.620 -0.2093  0.1477 -0.0106
46166W        W89260   8.920  25.261  20.816 -0.0415 -0.2133 -0.5342
46167W        W89261  10.698  23.514  23.064 -0.0877 -0.0343 -0.2843
46168W        W89262   7.914  25.237  19.528 -0.0055  0.1636 -0.1134
46169W        W89263  11.400  23.675  19.988 -0.2725  0.2618  0.0982
46170W        W89264   9.037  23.334  19.977  0.3438  0.0662 -0.0636
46171W        W89265  10.888  22.612  20.643  0.2547  0.1736  0.0847
46172W        W89266   8.236  21.586  23.032 -0.1088  0.0387  0.2445
46173W        W89267   8.031  24.590  21.950 -0.0876  0.1085 -0.1631
46174W        W89268   8.577  21.472  22.539 -0.2394 -0.4803  0.1737
46175W        W89269   9.537  26.002  22.155 -0.2848  0.0100  0.2071
46176W        W89270   9.197  22.997  21.240  0.2609  0.0421 -0.2613
46177W        W89271   8.743  23.824  21.188 -0.1484 -0.3819  0.0213
46178W        W89272   8.188  23.899  22.588 -0.4525 -0.0024  0.1276
46179W        W89273   8.087  23.246  21.072  0.1759  0.1084 -0.1849
46180W        W89274  10.451  25.538  19.922  0.0062 -0.1819  0.1614
46181W        W89275   9.587  25.683  21.609  0.0031  0.0212  0.1275
46182W        W89276   9.474  26.898  19.599  0.3153 -0.1114  0.1104
46183W        W89277   7.968  23.766  21.440  0.0959 -0.0381  0.0426
46184W        W89278   6.801  24.677  22.867 -0.1461 -0.2561 -0.2169
46185W        W89279   7.423  24.440  24.286  0.0956  0.4543 -0.0468
46186W        W89280   8.139  23.124  19.700 -0.0679 -0.1097  0.0995
46187W        W89281   9.824  25.683  23.556 -0.0549  0.0887 -0.1306
46188W        W89282   9.235  24.846  23.913 -0.0298  0.2609 -0.0925
46189W        W89283   9.685  22.828  21.268  0.0476  0.0905 -0.1569
46190W        W89284   8.531  24.500  21.848  0.1467 -0.1925 -0.1649
46191W        W89285   9.716  24.365  21.795 -0.2527  0.0289 -0.0842
46192W        W89286   9.972  23.518  19.955  0.0647 -0.1930  0.0835
46193W        W89287  10.768  21.715  23.322  0.0648  0.0961  0.0340
46194W        W89288   9.027  22.947  23.918  0.0494  0.1437  0.3961
46195W        W89289   8.470  25.846  19.804 -0.1588  0.2146  0.5008
46196W        W89290   8.386  24.327  20.762 -0.0606 -0.2668  0.3233
46197W        W89291   9.891  26.392  22.937 -0.3682  0.0907  0.0431
46198W        W89292  11.300  25.872  21.417  0.2391 -0.0235  0.2732
46199W        W89293   7.565  24.864  22.336  0.0361 -0.1054 -0.1138
46200W        W89294   9.228  22.668  23.289  0.2972 -0.3240  0.0052
46201W        W89295   7.962  25.333  23.120  0.0873  0.0761 -0.1823
46202W        W89296   7.225  25.407  21.052  0.0249 -0.0384  0.0901
46203W        W89297   7.731  23.023  22.746 -0.2761 -0.3334  0.2659
46204W        W89298   8.505  25.277  20.376  0.0726 -0.2152  0.1311
46205W        W89299   7.189  23.311  21.886  0.2715  0.0448  0.0856
46206W        W89300   7.802  24.302  22.382  0.1963 -0.1056  0.0207
46207W        W89301  10.128  23.177  21.484  0.0577  0.2998  0.2588
46208W        W89302   8.159  22.904  22.402  0.1939  0.0722 -0.1276
46209W        W89303   9.706  21.569  21.963 -0.0222  0.0330 -0.1449
46210W        W89304   7.960  25.252  20.423  0.2382  0.3076 -0.2692
46211W        W89305  10.702  26.280  20.313  0.0901  0.0792  0.3308
46212W        W89306  11.351  24.660  21.288 -0.1019 -0.1391  0.1254
46213W        W89307   8.987  25.428  19.312  0.0064  0.0507  0.1102
46214W        W89308   5.925  23.860  22.355  0.2206  0.1826 -0.1255
46215W        W89309   8.702  22.517  21.511 -0.1145  0.1387  0.2278
46216W        W89310   6.968  23.405  22.793 -0.3114 -0.0684 -0.1691
46217W        W89311   7.392  22.169  22.882  0.1270  0.1657  0.2576
46218W        W89312  10.566  24.664  24.333  0.1986  0.0396 -0.0505
46219W        W89313   6.341  22.097  20.265  0.3270  0.1623  0.0705
46220W        W89314   9.837  22.092  21.697  0.2789 -0.3616 -0.0091
46221W        W89315   8.737  23.073  21.798  0.1273 -0.0104 -0.0950
46222W        W89316   6.913  23.291  21.435 -0.0102 -0.0396  0.1718
46223W        W89317  10.941  22.004  24.110  0.0300 -0.0808 -0.1318
46224W        W89318   8.340  27.000  21.118  0.1671 -0.1992 -0.1643
46225W        W89319  10.217  25.627  22.794  0.0361  0.0934  0.0017
46226W        W89320  10.819  25.862  20.027  0.1266 -0.2342 -0.1592
46227W        W89321   8.216  22.404  23.347 -0.0689 -0.0788 -0.0629
46228W        W89322   8.031  23.736  20.717 -0.1178 -0.0955  0.0608
46229W        W89323   7.812  25.273  22.142 -0.1573  0.6008  0.0860
46230W        W89324   8.877  24.289  20.976  0.0565  0.0492 -0.2214
46231W        W89325   8.416  22.635  21.920 -0.1493  0.0592  0.1925
46232W        W89326  10.136  26.033  21.094 -0.0403 -0.0395 -0.0881
46233W        W89327  10.165  23.052  21.978  0.1714  0.0730  0.1182
46234W        W89328   7.475  24.450  22.897  0.2541 -0.0030 -0.2938
46235W        W89329   8.971  23.111  23.451 -0.2469  0.2431  0.1577
46236W        W89330  10.621  23.706  23.940 -0.2870 -0.4920 -0.0856
46237W        W89331   9.300  23.969  22.202  0.1589  0.2883  0.3702
46238W        W89332   7.963  24.135  19.929 -0.0001 -0.1773 -0.3717
46239W        W89333   9.829  26.165  20.311  0.0857 -0.3388 -0.1811
46240W        W89334   7.568  25.244  21.333  0.3275  0.2410 -0.2052
46241W        W89335   8.799  24.174  22.163  0.2142 -0.0741 -0.0030
46242W        W89336   8.657  25.777  20.711  0.0364  0.1814 -0.1182
46243W        W89337   8.591  22.173  23.596 -0.0745  0.0133 -0.1359
46244W        W89338   7.046  24.296  23.120 -0.0766 -0.2157 -0.0455
46245W        W89339  10.261  24.758  23.083  0.2048  0.2319 -0.0540
46246W        W89340   7.401  23.152  21.416 -0.2317  0.0320  0.3365
46247W        W89341   7.485  25.343  23.254 -0.0022  0.0781 -0.0301
46248W        W89342   8.581  21.165  21.352  0.1579  0.1637 -0.0722
46249W        W89343  10.045  24.551  20.984 -0.3276  0.1790  0.1024
46250W        W89344   9.089  24.429  23.035  0.0294 -0.0754 -0.0073
46251W        W89345   9.874  25.185  20.534  0.0873 -0.0761  0.1228
46252W        W89346  10.301  23.824  20.238  0.0328  0.0245 -0.0504
46253W        W89347   9.631  23.380  18.040  0.0388 -0.2860  0.2480
46254W        W89348   7.404  26.247  23.632 -0.1702  0.1419  0.1694
46255W        W89349   9.170  25.155  19.866  0.2532  0.0132  0.0336
46256W        W89350   8.539  23.779  21.803 -0.2374 -0.2144 -0.1378
46257W        W89351  10.023  22.684  21.659 -0.1656 -0.1548  0.1774
46258W        W89352  10.425  25.422  21.256 -0.3916 -0.3111  0.0053
46259W        W89353   8.887  23.208  22.939 -0.1122  0.1587 -0.2162
46260W        W89354  10.429  23.937  23.441  0.1024 -0.0295  0.3793
46261W        W89355   9.776  24.677  21.352  0.0600  0.0157 -0.2231
46262W        W89356   8.940  21.817  22.252 -0.1705 -0.3005 -0.2017
46263W        W89357   9.106  24.451  20.397  0.0675  0.2900 -0.0698
46264W        W89358   9.911  21.936  22.299 -0.2583 -0.1063  0.0137
46265W        W89359   6.917  26.718  21.821  0.2036 -0.2236  0.0964
46266W        W89360   9.714  22.021  22.762 -0.2348 -0.0972 -0.2974
46267W        W89361   9.537  23.042  22.336  0.0001  0.2718  0.0558
46268W        W89362   9.131  22.544  25.122 -0.2207  0.0332 -0.1972
46269W        W89363  10.573  23.387  24.717 -0.2763 -0.1184 -0.2365
46270W        W89364   9.513  23.524  20.838 -0.3125 -0.1425 -0.2246
46271W        W89365   8.165  23.430  22.360 -0.0063 -0.0374  0.0179
46272W        W89366   7.212  23.665  21.484  0.1997  0.1404 -0.2708
46273W        W89367   9.941  23.876  23.501 -0.0051 -0.0101  0.0153
46274W        W89368   6.929  24.585  23.473  0.0961  0.1809  0.1093
46275W        W89369   7.726  25.732  22.084  0.0796  0.1658  0.0610
46276W        W89370   8.865  24.141  23.398  0.1822 -0.0683  0.0165
46277W        W89371  10.028  25.349  21.578  0.0373 -0.0503  0.1620
46278W        W89372  10.071  23.757  23.008  0.2546 -0.0450 -0.1073
46279W        W89373   9.387  19.673  21.368 -0.1659  0.1338 -0.0469
46280W        W89374   8.945  25.579  19.798 -0.1221 -0.2303  0.1437
46281W        W89375   7.929  24.513  20.719  0.1804  0.2682  0.0544
46282W        W89376   7.385  21.670  19.910 -0.0028  0.1622  0.0348
46283W        W89377   8.650  25.395  22.618 -0.0749 -0.0507 -0.1490
46284W        W89378   8.181  25.402  20.021 -0.0314  0.0091 -0.0306
46285W        W89379  10.175  24.333  21.529  0.1066 -0.2676  0.0936
46286W        W89380   7.514  25.422  20.622 -0.2415  0.0204  0.0245
46287W        W89381  10.627  21.761  23.782  0.1146 -0.1337 -0.0324
46288W        W89382   7.824  24.997  21.716 -0.0116  0.0899  0.0754
46289W        W89383   8.794  24.221  19.395  0.0231 -0.0156 -0.0648
46290W        W89384   7.051  23.804  22.532  0.0608  0.0210 -0.0963
46291W        W89385   9.387  22.549  21.515 -0.0914  0.2638 -0.2948
46292W        W89386   9.451  24.773  20.196 -0.2087 -0.0203 -0.2868
46293W        W89387   7.318  23.186  23.022 -0.1818 -0.2076  0.0621
46294W        W89388  11.243  22.149  21.644  0.0037  0.3001 -0.0942
46295W        W89389   6.305  24.780  21.556 -0.1241 -0.1880 -0.2730
46296W        W89390   9.457  23.001  22.992 -0.3215 -0.0037  0.0843
46297W        W89391   9.201  23.363  20.453 -0.4464 -0.0252 -0.2343
46298W        W89392   9.234  23.454  23.246 -0.1333  0.0731  0.2597
46299W        W89393   7.390  24.354  23.489  0.0200  0.0955 -0.1034
46300W        W89394   7.426  22.987  20.841  0.2322 -0.0794  0.2810
46301W        W89395   9.746  23.041  21.743  0.0489  0.2877 -0.2013
46302W        W89396   8.772  21.529  23.074 -0.1410  0.0939  0.1262
46303W        W89397   7.461  24.446  20.930 -0.0298 -0.1525 -0.1291
46304W        W89398   9.788  24.711  23.204  0.2052 -0.1382 -0.0293
46305W        W89399   7.884  23.009  20.608 -0.0851 -0.0138  0.4780
46306W        W89400   7.956  25.698  19.645 -0.0449  0.1509 -0.0165
46307W        W89401   8.432  23.061  23.604  0.0018 -0.2321 -0.4020
46308W        W89402  10.189  23.858  22.483 -0.0409 -0.1344  0.0813
46309W        W89403   9.571  22.551  21.992  0.1789  0.2153 -0.0841
46310W        W89404   6.947  22.464  20.016 -0.2490 -0.1182  0.3512
46311W        W89405   9.015  23.065  22.349 -0.2396  0.1763  0.0315
46312W        W89406   9.527  24.829  22.752  0.1241  0.0036 -0.1743
46313W        W89407   9.782  22.709  23.291  0.2222 -0.4829 -0.2369
46314W        W89408   7.223  24.904  22.729 -0.0523 -0.0504 -0.0552
46315W        W89409   9.870  20.529  21.498 -0.2248 -0.0511 -0.0999
46316W        W89410  11.872  27.272  21.933  0.2680  0.1710 -0.1843
46317W        W89411   9.569  23.878  23.048 -0.0129  0.1695  0.3341
46318W        W89412   7.732  24.590  20.273  0.3289  0.0044 -0.2487
46319W        W89413   7.008  22.917  23.279  0.2127 -0.1215  0.1169
46320W        W89414   8.966  24.826  21.825 -0.1516 -0.0913 -0.1253
46321W        W89415  10.297  22.415  22.469 -0.2358  0.0571  0.0300
46322W        W89416   5.840  25.366  22.994  0.1124  0.1648 -0.0506
46323W        W89417   7.919  24.352  21.480 -0.0828  0.2798  0.0096
46324W        W89418   7.252  25.264  22.326  0.0068  0.2069 -0.0098
46325W        W89419   9.621  22.591  19.707  0.0230  0.1304  0.1436
46326W        W89420  10.077  24.246  20.452  0.1475  0.1472 -0.4270
46327W        W89421   9.725  22.195  24.152 -0.0062  0.1756  0.0059
46328W        W89422  11.360  23.015  23.104  0.0649 -0.1906 -0.1915
46329W        W89423  10.435  25.786  20.464  0.1084 -0.1519 -0.1529
46330W        W89424   8.823  22.232  24.192  0.0145 -0.3008 -0.0235
46331W        W89425   8.541  21.973  22.646 -0.2583 -0.0119 -0.2779
46332W        W89426   9.178  25.034  22.191  0.2498  0.1328  0.0323
46333W        W89427   7.431  22.759  22.460 -0.0172  0.1731 -0.0721
46334W        W89428  10.845  25.959  24.623 -0.0495  0.2106 -0.1427
46335W        W89429   6.921  22.988  22.286  0.0550  0.0120 -0.0799
46336W        W89430   9.225  22.407  20.070 -0.0159  0.3917 -0.1663
46337W        W89431   8.448  22.040  21.621 -0.0248  0.0134 -0.0542
46338W        W89432   8.358  23.512  22.866  0.1486 -0.0179  0.2743
46339W        W89433  10.624  25.173  22.389 -0.2388 -0.3260  0.2734
46340W        W89434   8.620  25.161  19.872  0.0186  0.1846  0.2574
46341W        W89435   9.757  22.150  23.232  0.2328  0.3578  0.1139
46342W        W89436   7.695  24.586  23.852 -0.1482 -0.0247 -0.0248
46343W        W89437   9.740  24.331  22.809  0.1350  0.0070 -0.1424
46344W        W89438   9.242  24.312  21.300 -0.1458 -0.1186  0.0550
46345W        W89439   7.523  24.010  21.345 -0.2296 -0.0330 -0.1019
46346W        W89440   8.249  23.932  23.102 -0.0981 -0.3427  0.1122
46347W        W89441  10.601  22.682  22.724  0.4240 -0.1820 -0.2470
46348W        W89442  10.477  20.872  22.267  0.1977 -0.1218 -0.0375
46349W        W89443   9.386  22.348  22.966  0.1917 -0.3653  0.0631
46350W        W89444  11.053  22.508  22.811 -0.1576 -0.0540 -0.1542
46351W        W89445   8.961  22.257  23.240  0.0148  0.1131  0.4349
46352W        W89446   7.870  23.735  23.834  0.1920 -0.0460 -0.2080
46353W        W89447   9.034  25.540  22.283  0.1129  0.0818 -0.0562
46354W        W89448  10.667  23.251  19.718  0.0056 -0.1218  0.1154
46355W        W89449  10.826  22.327  21.543 -0.3183 -0.3774  0.1183
46356W        W89450   9.798  23.477  21.385 -0.1821 -0.1457  0.0017
46357W        W89451  10.378  23.528  21.188  0.1508  0.0370  0.3371
46358W        W89452   7.735  23.378  19.927 -0.0194  0.1504 -0.0082
46359W        W89453   8.300  24.505  24.527  0.3597  0.1765 -0.1593
46360W        W89454   7.852  22.881  20.039 -0.0991  0.1890  0.0505
46361W        W89455  10.153  22.938  22.609 -0.3524 -0.0231  0.2025
46362W        W89456   7.583  24.999  18.760  0.2345 -0.4507  0.1361
46363W        W89457   9.561  25.212  21.418 -0.0745 -0.0959  0.1332
46364W        W89458  10.114  21.629  21.589  0.0789  0.1789 -0.1304
46365W        W89459   6.895  22.785  20.859 -0.0273  0.0015  0.2034
46366W        W89460   9.127  25.886  22.896  0.0659  0.0753  0.0190
46367W        W89461   6.296  23.743  20.977 -0.1556  0.0967 -0.2259
46368W        W89462   8.876  24.175  21.678 -0.0466 -0.2082  0.0184
46369W        W89463   9.579  26.079  20.831 -0.1019  0.1759 -0.2389
46370W        W89464   9.928  25.235  22.854  0.1753  0.0448  0.0554
46371W        W89465  10.193  23.179  19.714  0.1299  0.0297  0.0585
46372W        W89466  11.685  23.499  23.983  0.0843 -0.0053  0.1882
46373W        W89467   6.984  24.399  21.212  0.1002  0.0076 -0.0875
46374W        W89468   9.490  21.691  22.394  0.2363 -0.1217  0.3828
46375W        W89469   7.709  23.993  21.796 -0.0550  0.3857  0.1745
46376W        W89470   7.372  25.284  23.733 -0.5267  0.1112  0.0519
46377W        W89471   7.882  24.991  20.872 -0.1720  0.0611  0.3889
46378W        W89472   9.270  22.470  24.221 -0.2588  0.2746 -0.2731
46379W        W89473  10.079  23.527  21.864  0.1717 -0.2348 -0.0312
46380W        W89474   8.620  22.736  22.383  0.2810 -0.0682  0.2149
46381W        W89475  10.561  23.238  23.631 -0.1309 -0.0244 -0.1477
46382W        W89476   9.102  26.163  23.411 -0.1289 -0.0253 -0.0077
46383W        W89477   9.244  24.408  21.930 -0.0471  0.1018 -0.0219
46384W        W89478   9.724  25.606  21.125 -0.4142  0.0469 -0.1540
46385W        W89479   9.751  25.628  22.495  0.0477  0.2464  0.0143
46386W        W89480   9.135  24.831  21.355 -0.2580  0.0680 -0.2999
46387W        W89481   7.418  21.826  23.265 -0.1661  0.1189 -0.2450
46388W        W89482   7.270  23.696  23.043  0.2150  0.1076  0.1549
46389W        W89483   9.928  23.146  23.016 -0.0070 -0.0865  0.0724
46390W        W89484   9.007  21.788  19.542 -0.1451 -0.0967  0.1897
46391W        W89485  10.866  27.025  20.833  0.1603 -0.0731  0.0270
46392W        W89486   7.773  25.437  24.161 -0.0528 -0.0492  0.2610
46393W        W89487   8.111  25.004  24.086  0.0872  0.4387  0.0454
46394W        W89488   7.948  26.080  20.003  0.0803 -0.2486 -0.3025
46395W        W89489   8.914  24.991  20.390  0.0309  0.2416 -0.2044
46396W        W89490   8.678  24.699  22.262 -0.1645  0.0081  0.0359
46397W        W89491   8.099  25.232  21.282 -0.2429 -0.1843  0.0392
46398W        W89492   8.996  22.038  20.774  0.0918  0.0376  0.0987
46399W        W89493   8.172  24.620  21.139  0.0542  0.0135  0.0115
46400W        W89494   7.232  26.684  20.384 -0.2470  0.0465  0.0260
46401W        W89495   9.193  25.981  20.388 -0.2097 -0.0701 -0.1837
46402W        W89496   6.466  26.593  20.910 -0.1365  0.1124 -0.4207
46403W        W89497   9.189  24.221  23.759  0.0796  0.1294 -0.1332
46404W        W89498  10.396  23.232  20.221  0.1327 -0.1692  0.1472
46405W        W89499  11.471  23.284  21.143  0.2374  0.0897  0.2799
46406W        W89500  12.622  23.740  20.393  0.2301  0.1108  0.3535
46407W        W89501   9.213  25.820  24.433 -0.3039  0.2186  0.2441
46408W        W89502   8.956  22.647  22.022 -0.2780 -0.0419 -0.1306
46409W        W89503   7.834  23.763  20.207 -0.0834  0.0653 -0.2182
46410W        W89504   7.997  23.199  23.424 -0.0262 -0.1364  0.4582
46411W        W89505  10.455  21.402  24.135  0.0303  0.0986  0.0033
46412W        W89506   8.238  26.006  23.495 -0.1284 -0.1406 -0.2020
46413W        W89507  10.273  25.838  21.531  0.3360  0.1424  0.4208
46414W        W89508   8.409  22.861  20.108 -0.0257 -0.1214  0.2755
46415W        W89509   8.392  24.124  21.385  0.2020  0.0395 -0.0831
46416W        W89510  10.778  22.275  22.442 -0.0783  0.1525 -0.1643
46417W        W89511   8.306  24.880  20.588  0.0258  0.0925  0.0659
46418W        W89512   9.841  23.962  22.053 -0.3184 -0.3458 -0.1355
46419W        W89513   8.389  24.881  21.621  0.2399 -0.3047 -0.1904
46420W        W89514   8.244  25.044  22.062 -0.0235  0.0884  0.2304
46421W        W89515   8.537  26.709  21.538  0.2054  0.1514 -0.0983
46422W        W89516   7.042  22.825  21.304 -0.2228 -0.1847 -0.1545
46423W        W89517   9.722  23.302  20.422 -0.0752  0.0948 -0.0165
46424W        W89518   8.372  24.358  23.224  0.0555 -0.2499  0.0802
46425W        W89519  11.659  22.626  23.003  0.1379  0.0184  0.0589
46426W        W89520   7.825  22.776  21.813  0.2824  0.1714 -0.1269
46427W        W89521   9.053  23.711  21.886  0.1273  0.0500  0.3545
46428W        W89522   9.172  25.369  21.777  0.1803  0.0674  0.0740
46429W        W89523   6.725  24.138  23.508 -0.0747  0.1295  0.1190
46430W        W89524   8.848  23.400  21.455 -0.0622  0.1583  0.1334
46431W        W89525   9.512  24.288  23.360  0.2061 -0.0709  0.4627
46432W        W89526   8.805  24.764  19.523 -0.0303 -0.0530 -0.0208
46433W        W89527  10.606  26.797  24.709  0.3285  0.0107  0.1647
46434W        W89528   7.977  21.488  22.016  0.0331 -0.1762  0.0278
46435W        W89529   9.465  21.693  20.834  0.2885 -0.2073 -0.0379
46436W        W89530   8.496  24.085  23.708 -0.0832 -0.2328 -0.0918
46437W        W89531   9.312  22.921  21.910  0.3456 -0.0618  0.0449
46438W        W89532  10.265  26.479  23.611 -0.1285 -0.3335 -0.0674
46439W        W89533   7.014  23.285  20.535 -0.2322  0.2850  0.1139
46440W        W89534   8.743  24.697  20.747  0.0930 -0.1573  0.1364
46441W        W89535   9.998  23.336  22.352  0.0481  0.3881 -0.1216
46442W        W89536   7.395  26.081  19.982  0.0393 -0.1113  0.2252
46443W        W89537  10.079  24.928  22.031  0.0953  0.1207  0.1913
46444W        W89538   8.687  25.782  22.041 -0.0867 -0.0463 -0.0074
46445W        W89539   7.080  24.303  22.614  0.0215 -0.1506  0.0601
46446W        W89540   8.685  25.529  21.117  0.0482 -0.3428  0.2373
46447W        W89541   9.940  25.095  21.035  0.2302 -0.2547  0.5563
46448W        W89542   8.276  22.306  19.319  0.1686 -0.2723 -0.2257
46449W        W89543   8.124  23.605  19.797 -0.0021  0.1218 -0.2053
46450W        W89544   6.978  25.174  21.531  0.0892  0.1777 -0.0254
46451W        W89545  10.314  22.195  21.711  0.0614 -0.1381  0.0073
46452W        W89546  10.620  21.287  23.626  0.0033  0.3630  0.0090
46453W        W89547   9.625  25.367  20.051 -0.2230  0.1967  0.0051
46454W        W89548   7.869  21.197  24.814  0.0783  0.1756 -0.0658
46455W        W89549   9.065  26.065  22.401  0.0527  0.1797 -0.1423
46456W        W89550   8.295  24.920  23.568  0.0993 -0.1436 -0.2813
46457W        W89551   7.637  23.534  21.168 -0.0227  0.0736  0.0132
46458W        W89552   8.378  24.246  24.942 -0.0872  0.1932  0.1087
46459W        W89553   7.668  24.726  21.258  0.0205 -0.0455 -0.2442
46460W        W89554   9.449  27.282  21.424 -0.0204  0.1142 -0.1125
46461W        W89555  10.124  25.927  22.408  0.2383  0.3270 -0.2975
46462W        W89556  10.503  23.389  21.770  0.1256  0.1231  0.3818
46463W        W89557   9.974  25.772  21.933  0.2984  0.1420 -0.0288
46464W        W89558   8.646  22.271  22.145 -0.1339 -0.0990 -0.2856
46465W        W89559   9.927  22.731  20.684  0.0130 -0.2957 -0.0410
46466W        W89560   8.973  21.432  21.053 -0.0485 -0.0723  0.2949
46467W        W89561   8.066  24.781  22.516  0.2078 -0.1324  0.0726
46468W        W89562   7.607  24.126  20.424  0.1518 -0.0298  0.2332
46469W        W89563   7.444  24.832  20.584 -0.1290 -0.3715  0.0864
46470W        W89564   7.377  24.366  22.158 -0.1677  0.1874  0.0003
46471W        W89565   7.217  22.250  24.273  0.2207  0.1792  0.1959
46472W        W89566   8.095  23.557  21.926  0.2413  0.0917  0.1252
46473W        W89567   8.651  23.425  22.103 -0.1276  0.0672 -0.3135
46474W        W89568   7.645  24.913  19.884  0.2367  0.1758  0.4057
46475W        W89569  10.255  24.107  19.584 -0.0267 -0.1611 -0.2199
46476W        W89570   7.775  22.810  21.179  0.0208  0.1416  0.1118
46477W        W89571   8.353  22.399  22.794 -0.1855 -0.2400  0.2249
46478W        W89572   9.696  24.177  20.801 -0.1997 -0.0508  0.2838
46479W        W89573   8.637  24.576  21.320  0.2182  0.0908  0.0232
46480W        W89574   8.234  22.023  21.175  0.0320  0.1863  0.3165
46481W        W89575  10.185  26.246  24.158 -0.1253 -0.1927  0.1651
46482W        W89576   6.218  25.624  20.642  0.1856 -0.6126  0.1947
46483W        W89577  10.078  22.445  23.001 -0.3867 -0.5189  0.0164
46484W        W89578   8.592  23.911  24.624  0.0396 -0.0182 -0.1175
46485W        W89579   8.132  24.839  20.078  0.0827 -0.0777  0.1152
46486W        W89580   9.183  23.521  22.576  0.0346  0.0614  0.2009
46487W        W89581   9.491  26.644  21.021 -0.0789 -0.1217 -0.0559
46488W        W89582   9.411  26.080  18.961 -0.3143  0.2177  0.3646
46489W        W89583   7.387  25.329  21.809  0.0288  0.2775  0.3651
46490W        W89584   9.051  24.969  22.892 -0.2772 -0.0407 -0.0004
46491W        W89585   8.434  21.749  22.110  0.3339  0.1419 -0.0527
46492W        W89586   9.581  23.435  22.075  0.1831 -0.1653  0.0853
46493W        W89587   8.693  24.379  22.726  0.1383  0.1501  0.0297
46494W        W89588  10.605  23.710  20.673 -0.2591 -0.0619 -0.2502
46495W        W89589  11.179  21.632  21.761 -0.1177  0.0774  0.0820
46496W        W89590   9.052  22.534  21.163 -0.1419 -0.0442  0.1543
46497W        W89591   7.725  23.572  22.884 -0.0223  0.0216 -0.2651
46498W        W89592   8.290  23.867  24.134  0.1329  0.0810 -0.2073
46499W        W89593   9.695  23.909  22.531 -0.0488 -0.1337 -0.2330
46500W        W89594   8.073  22.541  20.635 -0.3733  0.0763  0.0582
46501W        W89595   8.367  23.392  21.541  0.0655  0.1177  0.0209
46502W        W89596   9.913  26.600  20.479  0.0963  0.1172 -0.1435
46503W        W89597   7.492  23.997  22.683  0.0831  0.1812  0.0781
46504W        W89598  10.931  23.697  19.917  0.0989  0.0951 -0.0249
46505W        W89599   8.697  22.685  23.432 -0.3108 -0.0774  0.1373
46506W        W89600   8.760  25.879  19.310  0.1424 -0.1014 -0.0126
46507W        W89601  11.176  23.474  23.118 -0.0142 -0.0639  0.0191
46508W        W89602   8.253  22.624  21.085  0.0167  0.0939  0.0922
46509W        W89603  10.952  24.478  20.468 -0.0343  0.3836  0.0839
46510W        W89604  10.360  27.141  24.071  0.2131 -0.2469 -0.0561
46511W        W89605   8.922  26.255  24.539 -0.1761 -0.2959  0.0120
46512W        W89606   9.417  25.922  23.895  0.2649  0.1030  0.2956
46513W        W89607  10.957  22.761  22.350  0.0124 -0.0137  0.0359
46514W        W89608   8.264  23.099  21.922 -0.0535 -0.1489 -0.0818
46515W        W89609   9.153  24.658  22.476 -0.0645 -0.1252 -0.1872
46516W        W89610   8.569  23.316  20.906 -0.0767 -0.2064 -0.3685
46517W        W89611   9.817  21.633  23.306  0.0061  0.2109 -0.4275
46518W        W89612   9.193  21.933  22.740 -0.2864  0.3750  0.1764
46519W        W89613   9.458  22.608  19.208  0.0830 -0.4046  0.0191
46520W        W89614   8.613  24.907  22.698  0.0586 -0.0138  0.2643
46521W        W89615   9.749  24.375  24.185  0.1960 -0.0907  0.2502
46522W        W89616   9.433  24.831  28.628 -0.0010  0.2018  0.1652
46523W        W89617   8.423  23.689  25.005 -0.0837  0.0533 -0.1165
46524W        W89618   9.719  22.701  25.070 -0.0921  0.3266  0.2688
46525W        W89619  10.742  22.827  23.869  0.1111  0.4016 -0.0180
46526W        W89620   7.200  24.361  24.696 -0.0042  0.0050 -0.1961
46527W        W89621   9.520  25.649  27.826  0.1863 -0.1746  0.2827
46528W        W89622   8.222  21.271  27.295  0.1160 -0.1663  0.0322
46529W        W89623   9.517  25.964  26.030 -0.0125  0.2586 -0.1488
46530W        W89624   9.919  25.758  26.227  0.1945 -0.0330 -0.2930
46531W        W89625   8.422  25.237  23.160 -0.0673 -0.2016  0.3161
46532W        W89626   9.775  22.179  26.684 -0.2396  0.1443  0.0619
46533W        W89627   9.602  26.495  27.612 -0.1968  0.1722 -0.2556
46534W        W89628   7.629  21.582  25.200 -0.0064 -0.2733 -0.0610
46535W        W89629   5.782  22.840  26.136  0.0455  0.2715  0.1597
46536W        W89630   8.952  23.644  25.840 -0.0520 -0.0878 -0.1337
46537W        W89631   7.642  23.887  24.312  0.0047 -0.2570  0.2607
46538W        W89632   9.166  24.758  26.781 -0.0510 -0.0180 -0.1269
46539W        W89633   9.352  24.261  25.921 -0.1721 -0.3153 -0.0086
46540W        W89634   9.221  26.708  25.216 -0.0906  0.1185 -0.1295
46541W        W89635   8.184  23.269  25.887 -0.0517 -0.1718  0.0055
46542W        W89636   9.673  22.115  26.026 -0.2866 -0.1038  0.1114
46543W        W89637   8.528  26.668  24.002 -0.2231  0.0382 -0.0143
46544W        W89638   7.115  23.995  24.273 -0.1465 -0.1088  0.0049
46545W        W89639   7.723  23.304  26.223 -0.0876 -0.1032  0.1739
46546W        W89640   8.908  24.163  26.427  0.0733 -0.2083  0.0546
46547W        W89641  10.349  23.624  25.210 -0.0485 -0.3148  0.0774
46548W        W89642  10.453  23.835  25.781  0.2269 -0.1635  0.2544
46549W        W89643   9.828  24.167  25.802 -0.0686 -0.1614  0.0386
46550W        W89644   9.383  25.474  26.501  0.0091  0.1601  0.0954
46551W        W89645  10.425  23.297  26.048  0.1991  0.2055 -0.2342
46552W        W89646   8.234  24.698  25.485  0.0457  0.3544  0.0518
46553W        W89647   8.141  25.793  25.073 -0.0303 -0.1768  0.0616
46554W        W89648   7.583  24.701  24.818  0.0061 -0.0858  0.1287
46555W        W89649  10.696  25.904  25.326  0.0160  0.2805  0.0564
46556W        W89650  10.859  25.116  27.043 -0.1567 -0.2992  0.1502
46557W        W89651   9.432  25.167  27.678  0.0520  0.4359  0.1226
46558W        W89652   7.869  25.580  24.631  0.0893  0.2127 -0.0523
46559W        W89653  10.456  24.747  27.869 -0.0744  0.3067 -0.3837
46560W        W89654   9.267  25.283  28.781 -0.4231  0.3134  0.1373
46561W        W89655  10.043  24.491  26.518  0.0613 -0.1179 -0.0538
46562W        W89656   9.589  23.768  25.008 -0.3352 -0.1152 -0.1776
46563W        W89657   9.589  25.075  24.206  0.0382  0.3516 -0.0621
46564W        W89658   8.162  25.803  26.830  0.0114 -0.0120  0.0513
46565W        W89659   8.825  23.994  27.278  0.3172 -0.0690  0.0931
46566W        W89660   7.251  24.566  26.828  0.3223  0.0498 -0.1591
46567W        W89661  10.963  24.150  28.584 -0.0234 -0.0826  0.1784
46568W        W89662   6.616  26.033  24.931  0.1508  0.3020 -0.0551
46569W        W89663   9.397  23.757  23.567 -0.0156 -0.0684  0.4729
46570W        W89664   8.233  23.416  23.934  0.0026 -0.0327 -0.0991
46571W        W89665  10.074  23.975  24.056 -0.1568  0.1370 -0.0093
46572W        W89666   9.370  22.968  25.319  0.3432  0.2215  0.1009
46573W        W89667   7.512  25.046  25.181  0.1716  0.0486 -0.5544
46574W        W89668   8.388  22.616  27.108  0.0313 -0.0563 -0.0582
46575W        W89669  11.360  23.677  26.832  0.0731 -0.2106 -0.3458
46576W        W89670   8.883  23.698  23.517  0.3386 -0.0717  0.1969
46577W        W89671   8.876  24.264  25.833  0.2604  0.0137  0.0959
46578W        W89672   8.658  25.701  27.216 -0.0757  0.2977  0.1544
46579W        W89673   7.332  23.871  24.703  0.0850 -0.1696  0.4676
46580W        W89674   9.087  25.392  23.994 -0.3770  0.4860 -0.0024
46581W        W89675  10.463  24.750  26.894 -0.2373 -0.3217  0.0307
46582W        W89676   9.094  24.757  23.394 -0.0367  0.1555 -0.0216
46583W        W89677   7.107  23.942  25.173  0.1300  0.2746 -0.1779
46584W        W89678   9.202  23.668  27.186  0.2034  0.2814  0.0677
46585W        W89679   8.307  24.954  26.254 -0.3670 -0.0558  0.1103
46586W        W89680   8.408  22.401  24.368  0.3549  0.1603  0.0935
46587W        W89681  11.241  23.858  27.790  0.1510 -0.3931  0.0023
46588W        W89682   8.146  25.157  27.849 -0.1455 -0.0197 -0.2516
46589W        W89683   9.339  21.800  25.307  0.2930  0.0100 -0.0670
46590W        W89684   9.817  25.031  25.666 -0.0174 -0.0065 -0.2647
46591W        W89685   9.794  24.482  27.388  0.1785 -0.0115  0.1317
46592W        W89686   9.623  25.558  24.325 -0.0368 -0.1336  0.1136
46593W        W89687   9.281  22.493  26.479 -0.5825  0.2496 -0.0870
46594W        W89688   8.704  23.182  26.740  0.0373 -0.2138 -0.2065
46595W        W89689   6.801  23.989  24.670  0.1805  0.3331  0.6015
46596W        W89690   8.381  24.480  23.991 -0.0658  0.1167  0.3510
46597W        W89691  10.754  24.777  25.361 -0.0345 -0.1306 -0.1873
46598W        W89692  10.434  24.241  25.442  0.3042 -0.1251 -0.0666
46599W        W89693   7.546  25.102  27.439  0.4311  0.3552 -0.2439
46600W        W89694   9.552  22.749  27.428 -0.1912  0.0680 -0.1367
46601W        W89695  10.448  23.228  27.687  0.1022  0.2710  0.1778
46602W        W89696   7.083  25.871  24.952 -0.1161 -0.0775 -0.2286
46603W        W89697   7.037  24.099  26.016  0.0544  0.0572 -0.1746
46604W        W89698   8.988  23.746  24.975 -0.1744  0.1341  0.0082
46605W        W89699   7.745  23.265  27.138 -0.0157  0.0686 -0.1498
46606W        W89700  10.192  24.802  27.340 -0.0844 -0.1358 -0.2261
46607W        W89701  10.239  22.702  24.942 -0.0861 -0.1146 -0.1174
46608W        W89702   7.472  22.626  25.522  0.1469 -0.1539  0.2412
46609W        W89703   9.521  23.370  23.856 -0.0231 -0.0329  0.2403
46610W        W89704   9.117  23.842  24.538  0.1672 -0.1517 -0.0265
46611W        W89705   9.804  25.618  24.776 -0.3270 -0.0140  0.2128
46612W        W89706   7.921  22.456  24.529 -0.4109 -0.3880  0.2014
46613W        W89707   9.734  25.108  24.681 -0.1179  0.3572  0.1458
46614W        W89708   8.404  24.067  27.014 -0.0261 -0.0675 -0.1578
46615W        W89709   7.571  22.983  25.070 -0.1188 -0.1502  0.0626
46616W        W89710  10.941  21.505  27.084  0.0337  0.0178 -0.1940
46617W        W89711   6.796  24.330  26.505  0.2311  0.0079  0.0452
46618W        W89712  10.338  22.893  26.690  0.0817 -0.0640 -0.0342
46619W        W89713   7.388  22.658  23.015 -0.1136  0.0109  0.0431
46620W        W89714  10.662  23.429  25.561 -0.1917 -0.1727  0.2068
46621W        W89715   8.860  23.104  25.415  0.1469 -0.1081  0.1573
46622W        W89716   6.486  24.600  23.872  0.0372 -0.1347  0.1215
46623W        W89717  10.598  22.112  26.565 -0.0436 -0.1872  0.0787
46624W        W89718   8.924  26.952  24.790 -0.1020 -0.0053  0.0642
46625W        W89719   9.728  27.127  26.717 -0.1015 -0.1095  0.0462
46626W        W89720  10.942  26.266  25.554  0.2347 -0.0514  0.0177
46627W        W89721   7.088  21.528  27.654  0.0984  0.1271 -0.1300
46628W        W89722   7.671  22.445  24.110  0.2174 -0.3963 -0.0018
46629W        W89723   7.824  25.146  23.605 -0.0904  0.2416  0.0101
46630W        W89724   8.275  25.794  23.947 -0.0391 -0.0939 -0.1390
46631W        W89725   7.913  23.460  24.337 -0.0345 -0.0179  0.0379
46632W        W89726  10.545  25.588  26.759 -0.0210  0.2478 -0.0239
46633W        W89727   8.561  26.160  24.175 -0.2741 -0.0985  0.0552
46634W        W89728   7.809  24.214  26.381 -0.1285  0.0597  0.4009
46635W        W89729  10.824  20.975  27.161 -0.0898 -0.0349 -0.0165
46636W        W89730  10.546  24.356  26.555  0.1302  0.2536 -0.0164
46637W        W89731  10.485  25.145  26.489 -0.0707  0.0702 -0.2711
46638W        W89732   7.390  22.698  24.588  0.2089  0.2621 -0.0565
46639W        W89733  10.284  26.144  25.304  0.0556 -0.2083 -0.1557
46640W        W89734   8.042  26.251  24.757 -0.0367  0.5579 -0.0015
46641W        W89735   7.752  23.218  23.862  0.1898 -0.0109  0.0207
46642W        W89736   9.243  26.608  24.673 -0.1983 -0.3382  0.1328
46643W        W89737  11.112  21.367  25.302 -0.3815  0.1305  0.2187
46644W        W89738   8.129  24.482  27.521  0.1283  0.1691  0.1715
46645W        W89739  10.179  23.326  26.506 -0.2642 -0.3212 -0.0308
46646W        W89740   7.023  23.032  24.724 -0.1361  0.1285 -0.0074
46647W        W89741   8.969  24.835  27.556  0.0834  0.0347  0.0004
46648W        W89742   9.655  23.697  25.902  0.2361  0.1707  0.0286
46649W        W89743  10.208  23.124  25.154  0.2437 -0.0878 -0.5500
46650W        W89744  10.575  23.792  27.759  0.0014 -0.2289 -0.1667
46651W        W89745  10.291  24.912  24.652 -0.2438 -0.0049  0.4890
46652W        W89746   9.852  24.311  25.018 -0.0017  0.1407  0.1372
46653W        W89747   8.410  22.815  24.610 -0.1086 -0.1608 -0.0351
46654W        W89748   8.708  24.831  26.965  0.1702 -0.4081  0.1517
46655W        W89749   9.253  24.186  25.121  0.1461  0.0348  0.2021
46656W        W89750   8.087  24.798  24.925  0.1645 -0.0544  0.1194
46657W        W89751   9.252  24.156  22.647  0.1630  0.0663 -0.1920
46658W        W89752  10.160  25.818  24.475 -0.0147  0.0343  0.1251
46659W        W89753   7.235  24.721  25.662 -0.2656  0.0975 -0.1836
46660W        W89754  11.187  24.222  27.377  0.1791 -0.3134 -0.1032
46661W        W89755   9.631  24.607  26.884  0.0098  0.0006 -0.3228
46662W        W89756   7.970  24.808  25.953  0.2937  0.0227 -0.0448
46663W        W89757   7.726  24.232  24.656 -0.0730 -0.0906 -0.0515
46664W        W89758   7.509  23.362  24.689  0.1160 -0.0866 -0.4082
46665W        W89759   7.104  24.800  23.921 -0.3682  0.0115  0.0441
46666W        W89760  10.630  22.639  27.030 -0.3136 -0.1089  0.1963
46667W        W89761   8.829  21.820  25.423  0.0621  0.2937 -0.2104
46668W        W89762  10.448  21.722  26.863 -0.1494 -0.0663 -0.1071
46669W        W89763  10.756  24.729  27.435  0.0675 -0.1335  0.0845
46670W        W89764   9.259  24.770  25.758  0.3461  0.2309 -0.1763
46671W        W89765   9.222  25.034  26.282  0.2281 -0.0001  0.1923
46672W        W89766   7.499  24.100  23.893  0.2417  0.0322  0.2108
46673W        W89767   9.851  21.132  27.422 -0.0908  0.2815 -0.2694
46674W        W89768   8.482  25.069  25.795  0.2008 -0.1315 -0.2779
46675W        W89769   8.803  26.217  27.207  0.1603 -0.0228 -0.0676
46676W        W89770  11.240  25.191  27.699  0.0582  0.1434  0.5080
46677W        W89771   9.845  24.621  24.636  0.0111  0.0634 -0.0584
46678W        W89772   8.782  22.602  26.757 -0.1942 -0.1531  0.0020
46679W        W89773   7.908  20.733  24.494 -0.0540 -0.2114  0.0540
46680W        W89774   7.001  25.094  24.993 -0.1833 -0.1297 -0.0363
46681W        W89775   7.819  24.537  23.286  0.0751  0.2848 -0.0336
46682W        W89776  10.042  21.229  26.910 -0.1817 -0.0235  0.0532
46683W        W89777   9.081  25.717  26.938 -0.2733 -0.0175  0.0029
46684W        W89778   8.642  24.755  23.277  0.0714 -0.2548 -0.1054
46685W        W89779   9.977  22.702  27.141  0.1140  0.2481  0.1479
46686W        W89780   7.823  24.647  24.366  0.0910 -0.1632  0.1421
46687W        W89781  10.382  23.032  25.622 -0.2220 -0.0014  0.0053
46688W        W89782   8.665  25.436  26.727  0.2670  0.1416  0.1147
46689W        W89783   9.076  23.724  24.049 -0.1798  0.0319  0.0329
46690W        W89784   7.930  23.399  24.924 -0.0918 -0.0326 -0.0851
46691W        W89785   9.774  22.161  25.564 -0.0142  0.0021  0.2336
46692W        W89786   9.752  23.417  23.434 -0.0708  0.1267  0.1670
46693W        W89787   7.607  23.747  26.463 -0.4878  0.1999  0.0389
46694W        W89788   9.163  23.360  26.803 -0.1466 -0.1122 -0.1793
46695W        W89789   8.317  26.378  26.858 -0.0616  0.2053 -0.0572
46696W        W89790  11.226  23.683  27.322  0.1906  0.3247  0.1631
46697W        W89791   9.415  23.097  24.248 -0.0672  0.1693 -0.1470
46698W        W89792  10.454  23.569  26.855  0.1593 -0.0062  0.1337
46699W        W89793   9.536  23.716  28.183 -0.1662 -0.2142  0.3249
46700W        W89794   7.512  24.266  25.100  0.2648  0.0655  0.2726
46701W        W89795  11.109  23.798  26.366 -0.0272 -0.1717  0.0876
46702W        W89796   7.958  22.779  25.718 -0.4576  0.1246  0.2089
46703W        W89797   6.291  25.329  23.857  0.2419 -0.2413  0.0937
46704W        W89798  10.477  25.517  27.933 -0.1521  0.0818  0.2189
46705W        W89799   7.132  23.218  23.811 -0.0157  0.1862  0.1272
46706W        W89800   8.776  24.697  25.568  0.2184  0.3183  0.2743
46707W        W89801   8.862  21.656  26.651  0.0111  0.1183 -0.3594
46708W        W89802  10.416  24.310  27.387 -0.0141 -0.1338  0.2637
46709W        W89803   7.260  23.763  25.701  0.1126  0.2300  0.2327
46710W        W89804   6.306  22.821  25.041  0.4554  0.1773 -0.1640
46711W        W89805   9.698  23.394  26.618 -0.1057  0.0955  0.0238
46712W        W89806  11.645  24.386  27.133 -0.0165  0.4894  0.0547
46713W        W89807   9.970  23.785  26.751  0.0407  0.2261 -0.0459
46714W        W89808   7.455  25.368  28.983 -0.3887  0.0821  0.1026
46715W        W89809   7.480  21.119  25.534 -0.0384  0.0956 -0.2282
46716W        W89810  11.625  26.994  23.479 -0.1050 -0.1121  0.1675
46717W        W89811  10.164  22.868  26.139 -0.1118 -0.1319 -0.3449
46718W        W89812   8.985  24.335  24.659  0.1984 -0.0011 -0.4685
46719W        W89813   8.126  23.816  25.458 -0.0246 -0.1381  0.1924
46720W        W89814   7.113  24.907  24.524 -0.1016  0.4005  0.0894
46721W        W89815  10.487  22.473  25.939 -0.0700  0.0474  0.1386
46722W        W89816   7.778  25.354  27.023 -0.4173 -0.0891  0.1053
46723W        W89817   6.179  24.723  24.336  0.0517 -0.5428  0.1936
46724W        W89818   8.212  24.514  27.019 -0.0481 -0.1506 -0.0310
46725W        W89819  10.750  20.984  24.001 -0.0981  0.2611  0.3035
46726W        W89820   7.868  25.645  23.612 -0.0787  0.0712  0.3952
46727W        W89821   8.770  23.199  25.976 -0.0993  0.2092 -0.1125
46728W        W89822  11.769  21.688  26.428  0.0487  0.0006 -0.0348
46729W        W89823   9.735  23.314  25.106 -0.4735 -0.1823  0.1263
46730W        W89824  11.453  21.746  28.653 -0.1382  0.0829  0.0349
46731W        W89825   8.923  21.931  27.066 -0.1286  0.0591  0.0963
46732W        W89826  10.725  23.122  26.342 -0.0993  0.2504  0.2088
46733W        W89827   8.357  22.826  26.692  0.3894 -0.1508 -0.0070
46734W        W89828   9.697  25.814  28.360  0.2017 -0.3233  0.1064
46735W        W89829   8.479  24.735  27.802  0.2848  0.1270  0.1237
46736W        W89830   9.542  23.081  24.712 -0.2582 -0.0273  0.0159
46737W        W89831   6.937  22.810  24.256  0.1352  0.0375 -0.0735
46738W        W89832   9.452  23.769  26.755  0.5027 -0.1966  0.2475
46739W        W89833   9.980  26.666  25.530  0.0048 -0.3298 -0.0762
46740W        W89834   9.572  23.864  24.153  0.0339  0.0230 -0.0056
46741W        W89835  11.256  24.206  25.902 -0.0947 -0.4547  0.0517
46742W        W89836   9.168  24.699  25.208 -0.0646  0.0781 -0.2553
46743W        W89837   9.260  23.377  25.150  0.2729  0.1935 -0.1650
46744W        W89838   8.754  24.677  24.358 -0.1534 -0.1455 -0.1007
46745W        W89839   8.395  24.984  24.591  0.2663  0.0039  0.0447
46746W        W89840   8.327  21.842  26.355  0.1079  0.0221 -0.2964
46747W        W89841  10.859  24.348  25.061 -0.0298 -0.0365  0.0089
46748W        W89842   9.829  23.322  26.144  0.0853 -0.0578 -0.2844
46749W        W89843   8.913  22.751  26.167  0.1062  0.5693  0.3129
46750W        W89844   9.302  24.261  26.734 -0.1355 -0.2208  0.0007
46751W        W89845  10.029  22.849  27.673  0.0422  0.2420 -0.0087
46752W        W89846   8.185  23.076  27.190  0.0539  0.0387  0.5733
46753W        W89847  10.775  27.118  27.541 -0.2552  0.1189 -0.0735
46754W        W89848  10.516  23.191  24.167 -0.4024  0.0881  0.1785
46755W        W89849   9.396  22.980  26.549  0.1766  0.1768  0.0464
46756W        W89850  10.958  23.406  26.013  0.1070  0.0761  0.1401
46757W        W89851   8.980  23.786  22.990  0.1740 -0.3027 -0.0103
46758W        W89852   8.654  22.763  25.046  0.0350 -0.1432  0.1862
46759W        W89853  10.989  23.324  26.910  0.2212 -0.0796  0.0259
46760W        W89854   9.758  22.466  22.481 -0.1501  0.0817 -0.2134
46761W        W89855   9.645  22.781  26.094 -0.1833  0.0604 -0.2036
46762W        W89856   7.708  24.023  23.262  0.0073  0.3532 -0.1883
46763W        W89857   9.697  24.800  25.157  0.0799  0.1922  0.4470
46764W        W89858   9.975  24.329  23.714 -0.1283  0.2214 -0.0752
46765W        W89859   7.505  23.971  26.023 -0.0190 -0.0855  0.0282
46766W        W89860   7.277  26.228  27.186 -0.0315  0.1053  0.0033
46767W        W89861   7.743  22.907  24.254  0.0597  0.1835  0.2382
46768W        W89862   9.387  25.658  25.090  0.2618  0.0799 -0.0651
46769W        W89863   9.997  24.457  27.863  0.1672 -0.1789  0.2666
46770W        W89864  11.267  24.297  27.958  0.0349  0.1621  0.0373
46771W        W89865   7.297  21.570  24.668 -0.2158  0.1958  0.1264
46772W        W89866   9.299  23.358  26.129  0.0058  0.0699  0.1868
46773W        W89867   8.667  24.704  24.890  0.0076 -0.3667  0.4717
46774W        W89868   8.621  22.313  26.294  0.3736  0.0918 -0.0977
46775W        W89869   9.085  26.284  26.772  0.1744  0.0755  0.0831
46776W        W89870   8.066  24.606  26.532  0.0371 -0.0590  0.0217
46777W        W89871   8.851  25.175  24.537  0.0170  0.0149  0.1574
46778W        W89872   9.158  21.509  26.192  0.0059  0.0043  0.0163
46779W        W89873  10.160  23.786  26.255 -0.0010 -0.2169 -0.1251
46780W        W89874   8.837  24.338  26.941  0.1321 -0.2277  0.0864
46781W        W89875  11.409  25.276  27.137 -0.3229 -0.1400 -0.1315
46782W        W89876   9.526  25.106  26.838  0.0174  0.1340 -0.0188
46783W        W89877   8.810  24.319  25.237  0.0330 -0.0808 -0.0469
46784W        W89878  10.230  25.506  28.493 -0.1907  0.0694 -0.2636
46785W        W89879  10.890  24.718  26.653  0.0178  0.1774 -0.0809
46786W        W89880   9.526  24.069  27.162 -0.1482  0.0720  0.1835
46787W        W89881   7.737  23.483  28.473  0.0956 -0.3163  0.0378
46788W        W89882  10.219  23.551  27.378  0.1250  0.0003  0.4158
46789W        W89883   9.375  24.857  27.209  0.1665  0.1445 -0.0918
46790W        W89884   7.333  23.166  24.281 -0.0415  0.1551 -0.0265
46791W        W89885   9.240  25.776  25.584  0.1803  0.0629 -0.0737
46792W        W89886   7.425  25.109  27.948 -0.0441 -0.1581  0.1437
46793W        W89887   7.941  25.120  25.552  0.4029 -0.1862 -0.0990
46794W        W89888   7.379  25.282  25.703  0.1045 -0.0311 -0.1867
46795W        W89889  11.130  24.447  25.434  0.1632 -0.1718  0.0310
46796W        W89890   9.896  25.260  25.248 -0.0901 -0.2222  0.0340
46797W        W89891  10.019  26.985  26.337  0.0432 -0.1027 -0.3985
46798W        W89892   8.713  23.431  23.935 -0.0615  0.1643  0.1782
46799W        W89893   8.248  24.994  26.752  0.2713  0.2685  0.0934
46800W        W89894   5.836  25.617  24.012  0.3543  0.0525  0.0580
46801W        W89895  10.370  25.127  25.143 -0.2437 -0.1174  0.0585
46802W        W89896   7.216  24.655  25.134 -0.1793  0.1617  0.0314
46803W        W89897   9.483  25.539  27.177 -0.0774  0.2559 -0.5262
46804W        W89898  11.161  21.674  23.000 -0.0996 -0.0966 -0.0046
46805W        W89899  10.260  24.388  25.968  0.0666  0.0468 -0.0120
46806W        W89900  10.666  24.092  26.116  0.1220  0.0961 -0.1011
46807W        W89901  11.094  24.711  27.877 -0.0377  0.1814  0.0032
46808W        W89902   9.266  23.914  26.252  0.2646  0.0731 -0.0501
46809W        W89903   9.051  23.000  24.837  0.1704 -0.1484  0.1420
46810W        W89904   8.848  23.798  26.756 -0.2075 -0.3707 -0.3228
46811W        W89905  11.870  22.959  25.623  0.1007 -0.3714  0.1526
46812W        W89906   7.990  25.537  27.448 -0.0994  0.3181  0.0935
46813W        W89907   9.807  26.504  24.603  0.2277  0.0978 -0.2655
46814W        W89908   7.096  23.461  25.001  0.0891  0.2075 -0.1601
46815W        W89909  10.462  24.846  25.792 -0.0169 -0.0999  0.0067
46816W        W89910  12.095  21.561  25.042  0.3425  0.2349  0.0359
46817W        W89911   8.621  24.922  23.973 -0.0435  0.1383 -0.0018
46818W        W89912   9.320  23.364  25.636 -0.2878 -0.1341 -0.0565
46819W        W89913   9.703  26.984  25.822  0.1073  0.1119  0.2212
46820W        W89914   9.005  25.828  27.685 -0.0227 -0.3249 -0.1157
46821W        W89915   9.088  25.230  26.908 -0.0598  0.0685  0.2539
46822W        W89916   7.378  23.624  23.947  0.0612 -0.2834 -0.0021
46823W        W89917  10.778  26.548  26.662  0.0031 -0.0681 -0.0894
46824W        W89918   8.532  23.423  25.560  0.1694 -0.0368  0.1220
46825W        W89919  10.826  22.970  25.872  0.2472  0.0135 -0.1739
46826W        W89920   8.851  24.724  26.100  0.0549  0.0128  0.0383
46827W        W89921  10.014  23.900  25.432 -0.0360  0.1166  0.0768
46828W        W89922  11.178  25.101  25.231 -0.2137  0.1675 -0.1339
46829W        W89923   8.590  24.532  26.528  0.1181  0.0291 -0.2227
46830W        W89924   8.696  23.743  22.538 -0.0993 -0.2112 -0.1885
46831W        W89925  11.683  23.583  26.525 -0.1482 -0.1845  0.2009
46832W        W89926   9.819  24.798  23.740  0.0473  0.0979 -0.0775
46833W        W89927  10.994  27.276  27.046  0.1999  0.0795 -0.0948
46834W        W89928   6.903  23.685  23.871  0.1335 -0.0014 -0.0642
46835W        W89929  10.033  22.597  25.525 -0.2519  0.0659  0.0507
46836W        W89930   7.816  23.899  25.064  0.1516  0.2050  0.0126
46837W        W89931   8.376  24.420  26.020 -0.0110  0.0499 -0.2779
46838W        W89932  10.785  25.123  28.024  0.0891  0.0090  0.0519
46839W        W89933   7.703  22.194  25.802  0.1172  0.0511  0.1699
46840W        W89934   8.821  25.730  23.732 -0.1911  0.2175 -0.0865
46841W        W89935  10.236  24.217  26.919 -0.0132 -0.1474  0.4928
46842W        W89936   8.069  26.385  24.215 -0.1131 -0.0510  0.0189
46843W        W89937   9.992  24.599  25.528 -0.4044  0.0492  0.0655
46844W        W89938  11.102  26.695  27.443  0.1744 -0.0968 -0.1915
46845W        W89939   8.207  23.187  26.416  0.2381  0.3537 -0.5208
46846W        W89940  10.431  25.159  27.514 -0.0238  0.1251  0.1336
46847W        W89941   9.758  26.610  26.694  0.1173  0.1610  0.2149
46848W        W89942   6.822  22.530  24.682 -0.0468  0.0428 -0.1233
46849W        W89943   8.848  23.595  26.319  0.2979  0.0490 -0.2106
46850W        W89944   7.326  25.823  24.462  0.0178 -0.0245  0.2299
46851W        W89945  10.139  24.918  26.230 -0.0083  0.0113 -0.3365
46852W        W89946  10.526  22.153  27.101  0.2762  0.1035  0.2015
46853W        W89947   9.233  25.559  23.517  0.0436 -0.2847 -0.1036
46854W        W89948  11.705  21.220  26.919 -0.0095  0.5214 -0.2688
46855W        W89949   9.301  24.508  26.334 -0.1485  0.0512 -0.2916
46856W        W89950   9.456  25.091  28.187 -0.2717 -0.1214 -0.0257
46857W        W89951   7.437  24.853  23.491 -0.1580 -0.1094 -0.4440
46858W        W89952  10.038  24.988  27.798  0.1030 -0.1786 -0.2971
46859W        W89953   9.234  25.478  26.041 -0.2752  0.2032 -0.2568
46860W        W89954   9.749  25.616  25.735 -0.3911  0.1227 -0.2870
46861W        W89955  10.703  26.321  25.027  0.0929  0.1883 -0.1295
46862W        W89956   9.306  22.416  25.980  0.2049  0.1115  0.0891
46863W        W89957  10.320  26.971  25.860 -0.0555  0.2468 -0.2252
46864W        W89958   8.379  23.161  25.064  0.0747 -0.1923 -0.1280
46865W        W89959  10.318  22.742  24.406 -0.1124  0.1464  0.1637
46866W        W89960   9.676  21.273  24.699  0.1514 -0.2755 -0.0169
46867W        W89961   8.665  24.492  27.411 -0.0591  0.3070 -0.0383
46868W        W89962   6.374  23.771  24.771 -0.1188  0.0903 -0.1091
46869W        W89963   6.785  24.545  24.815 -0.1143  0.2291  0.1762
46870W        W89964   7.907  25.103  24.564 -0.1015  0.3017 -0.1546
46871W        W89965  10.617  22.145  28.358  0.1848 -0.1444  0.0791
46872W        W89966   8.797  24.198  27.851 -0.1095  0.2344  0.0544
46873W        W89967   6.722  23.915  25.555  0.4633 -0.0208 -0.0837
46874W        W89968   6.540  22.388  25.135  0.2306 -0.1264 -0.1777
46875W        W89969   9.747  25.280  26.142  0.0689  0.3332  0.0456
46876W        W89970   7.778  23.588  25.807  0.0289  0.0304  0.0045
46877W        W89971   7.280  22.002  26.120 -0.1099 -0.0723 -0.5401
46878W        W89972  10.680  24.718  26.210  0.0384  0.2590 -0.0838
46879W        W89973  10.320  24.575  25.108  0.3647  0.1228 -0.2640
46880W        W89974   9.551  23.572  24.585 -0.1067 -0.3064 -0.0934
46881W        W89975  11.098  27.055  28.033 -0.0251 -0.0546  0.0700
46882W        W89976   7.180  26.300  24.549  0.1694  0.0567 -0.0252
46883W        W89977  10.235  22.395  27.526 -0.1483 -0.2242 -0.0413
46884W        W89978   9.155  20.931  27.033  0.4064  0.1595  0.2309
46885W        W89979   6.823  22.293  23.700 -0.4777 -0.2396  0.4584
46886W        W89980  10.039  23.210  26.964  0.0276  0.0138  0.1334
46887W        W89981   9.688  24.213  26.357  0.0430  0.1367  0.0197
46888W        W89982   9.267  25.360  24.669 -0.1622 -0.1042 -0.2559
46889W        W89983   9.631  23.664  27.639 -0.1185 -0.0645  0.4542
46890W        W89984   8.737  25.058  28.109 -0.0497  0.0485 -0.0908
46891W        W89985   7.888  21.465  26.985  0.1543  0.2380 -0.1482
46892W        W89986   9.523  24.390  25.465 -0.0132  0.0018  0.3579
46893W        W89987   9.814  25.096  27.320  0.1780  0.3225  0.2168
46894W        W89988   9.354  26.362  26.365 -0.2526  0.3376  0.2125
46895W        W89989  10.782  23.951  26.771 -0.1805 -0.1663 -0.0226
46896W        W89990   9.421  22.998  23.551 -0.2392  0.1538  0.0309
46897W        W89991   9.689  20.858  26.791  0.0441  0.1847  0.0762
46898W        W89992   8.909  24.337  29.165  0.1776 -0.1998 -0.0055
46899W        W89993  11.404  24.944  26.767 -0.1576 -0.0219 -0.0051
46900W        W89994   7.948  22.981  24.704 -0.1921  0.3666  0.0157
46901W        W89995  10.205  23.565  23.767 -0.2208  0.0210  0.1808
46902W        W89996  10.026  24.974  26.779 -0.2382  0.1912 -0.1918
46903W        W89997   5.690  23.517  25.431 -0.1126  0.1745  0.0029
46904W        W89998   8.679  22.330  25.321  0.2174 -0.2952 -0.0328
46905W        W89999  10.021  24.012  27.503 -0.1083  0.0795  0.0896
46906W        W90000   8.973  25.371  27.415 -0.4068 -0.1129 -0.2513
46907W        W90001  11.013  22.985  27.858  0.2297  0.0997 -0.0575
46908W        W90002   8.009  24.322  25.263 -0.0677  0.1279  0.2016
46909W        W90003  10.962  24.043  24.639  0.1745  0.1663 -0.0308
46910W        W90004  11.309  27.345  26.559  0.0008  0.2316  0.0039
46911W        W90005  11.476  24.941  28.699 -0.0764  0.1483 -0.4065
46912W        W90006   9.133  25.923  26.412 -0.1913 -0.3939 -0.2564
46913W        W90007   9.651  24.865  26.425 -0.0382  0.2475 -0.3998
46914W        W90008   7.872  23.436  26.706 -0.0407  0.1078  0.0439
46915W        W90009   7.484  23.613  25.290 -0.4340  0.2743  0.2821
46916W        W90010   9.710  24.636  25.937 -0.0049 -0.0586 -0.0550
46917W        W90011  11.426  22.019  26.339  0.0019 -0.0965  0.1452
46918W        W90012   8.710  23.852  25.441 -0.1492  0.1661 -0.3407
46919W        W90013   9.202  22.199  25.506  0.0454  0.2483 -0.1348
46920W        W90014   9.396  26.105  27.152  0.0233 -0.1859 -0.1015
46921W        W90015  10.144  23.476  25.683  0.0729 -0.3251 -0.2486
46922W        W90016   7.269  23.517  31.165  0.0072 -0.1273  0.0304
46923W        W90017   8.805  23.091  29.896 -0.0090  0.3004 -0.1568
46924W        W90018  11.301  23.306  26.532 -0.1189 -0.2676  0.1822
46925W        W90019  11.182  23.180  28.291  0.0258 -0.0017  0.2065
46926W        W90020   8.596  22.150  27.418 -0.2154  0.0310 -0.2195
46927W        W90021   9.071  25.757  28.833  0.2920  0.2480 -0.2233
46928W        W90022   7.968  21.474  30.391 -0.0156  0.0168  0.0769
46929W        W90023  10.753  24.383  29.509  0.0595  0.1191 -0.0314
46930W        W90024  10.364  25.174  29.465  0.1655  0.0009  0.0169
46931W        W90025   8.767  22.464  27.685  0.0795  0.0345 -0.1078
46932W        W90026   9.913  23.254  29.411 -0.0460  0.0245 -0.1086
46933W        W90027   9.709  23.792  30.127 -0.0548 -0.0218 -0.2497
46934W        W90028  10.596  22.127  28.852  0.1337  0.2233  0.0130
46935W        W90029   7.530  21.204  29.216 -0.1060  0.3136  0.2180
46936W        W90030  10.631  23.792  28.937  0.0421 -0.1787  0.0548
46937W        W90031   9.167  23.836  28.758 -0.3860 -0.3289  0.1138
46938W        W90032   7.757  24.001  30.025 -0.2058 -0.3877 -0.0541
46939W        W90033   8.727  22.923  27.339  0.1072 -0.0020 -0.0582
46940W        W90034   8.990  25.332  29.150 -0.2437  0.1355  0.2189
46941W        W90035  10.345  23.128  29.246 -0.2014  0.0559 -0.1214
46942W        W90036  12.362  23.564  29.656  0.2288 -0.0109  0.2031
46943W        W90037  10.608  25.897  28.647  0.1511  0.0123  0.2326
46944W        W90038   9.127  23.890  27.651 -0.0162  0.1978 -0.0099
46945W        W90039   7.623  22.981  30.936 -0.0129  0.1631  0.2955
46946W        W90040   8.839  22.941  31.265 -0.0987 -0.3540 -0.0831
46947W        W90041   9.966  22.281  29.053 -0.0610  0.0082 -0.0848
46948W        W90042  11.454  24.818  29.687  0.0055 -0.1489  0.2594
46949W        W90043   8.377  23.206  30.312  0.2525  0.0809  0.0250
46950W        W90044  11.248  25.205  30.672 -0.2206  0.1742 -0.0452
46951W        W90045  10.440  23.445  29.833 -0.0854  0.0539  0.1788
46952W        W90046   7.554  24.634  28.250 -0.0798  0.1284 -0.1739
46953W        W90047   8.881  23.966  29.617 -0.1683  0.0824 -0.0446
46954W        W90048   9.861  25.379  28.153  0.1019  0.1994  0.0844
46955W        W90049  11.140  25.108  30.086  0.1126  0.1011 -0.0176
46956W        W90050  10.809  25.124  28.972 -0.0486 -0.0921  0.0427
46957W        W90051   7.775  23.732   0.398  0.0451  0.3525  0.3014
46958W        W90052   8.111  24.971  27.357 -0.0803  0.1814 -0.0347
46959W        W90053  10.103  25.551  31.142 -0.1458  0.0273 -0.0051
46960W        W90054   8.520  23.889  31.219 -0.3138 -0.1707  0.1433
46961W        W90055   8.064  22.899  30.674 -0.0217  0.0177  0.0703
46962W        W90056  10.216  23.636  29.268 -0.1077 -0.0248 -0.1156
46963W        W90057   9.574  24.707  27.799  0.1651  0.2083 -0.1219
46964W        W90058   8.981  23.460  29.627 -0.5065  0.2309 -0.0329
46965W        W90059   9.609  24.115  30.943  0.2154 -0.1642  0.3151
46966W        W90060   7.214  25.451  29.496 -0.1399 -0.3245  0.1335
46967W        W90061  11.299  23.330  30.706  0.1958  0.0677  0.2981
46968W        W90062   7.347  25.667  27.453  0.2817  0.1396  0.1981
46969W        W90063  10.613  22.800  27.544  0.0199  0.2132 -0.0551
46970W        W90064  10.393  24.205  27.928  0.0161  0.1663 -0.1235
46971W        W90065  11.219  22.736  28.569  0.0429 -0.0876  0.3047
46972W        W90066  10.630  21.298  27.661 -0.0422 -0.0065  0.0561
46973W        W90067   8.794  24.053  30.187 -0.1745  0.1904  0.2464
46974W        W90068   8.298  21.070  30.400 -0.0130  0.1226 -0.5592
46975W        W90069  10.206  23.317  30.797  0.0509 -0.2956 -0.0762
46976W        W90070   9.553  22.842  27.929 -0.0474 -0.0362  0.0406
46977W        W90071   9.634  23.328  30.863  0.1938 -0.0721 -0.1433
46978W        W90072   7.901  22.895  30.124 -0.0271 -0.1056  0.0051
46979W        W90073   9.110  23.327  28.737  0.1274 -0.2645  0.2324
46980W        W90074  11.088  25.853  28.534  0.1520 -0.1967  0.1916
46981W        W90075  11.544  25.164  30.320 -0.1713  0.2928 -0.0355
46982W        W90076  10.829  24.269  27.711 -0.2260  0.1984  0.0233
46983W        W90077   8.127  22.148  27.787 -0.0726  0.0660  0.1065
46984W        W90078   7.119  21.876  29.499  0.1020 -0.3973 -0.1576
46985W        W90079   7.783  22.532  31.697 -0.1944 -0.0743  0.1749
46986W        W90080  10.470  21.235  28.175  0.0806  0.1438  0.2101
46987W        W90081  10.830  24.659  31.530  0.2232  0.1700 -0.0361
46988W        W90082   7.102  25.275  31.543  0.1152 -0.1574  0.1590
46989W        W90083  12.109  21.177  28.352 -0.0255  0.2560 -0.1808
46990W        W90084  10.001  24.258  29.845  0.0736 -0.3294  0.0853
46991W        W90085  11.049  24.591  29.905 -0.2005  0.0593  0.0251
46992W        W90086  10.051  23.885  28.014 -0.1711  0.3079 -0.5809
46993W        W90087  11.796  21.438  30.329 -0.1080  0.0290 -0.0889
46994W        W90088  10.642  22.175  29.928  0.1427 -0.1673 -0.1041
46995W        W90089   9.184  22.610  28.286  0.4875  0.0702 -0.2006
46996W        W90090  10.151  23.150  28.405 -0.0629 -0.0904 -0.0596
46997W        W90091  11.786  25.418  29.988 -0.1426  0.4939 -0.0511
46998W        W90092   9.146  24.090  28.243  0.0238 -0.1124 -0.0906
46999W        W90093   7.589  25.274  31.181  0.1524 -0.0446  0.0657
47000W        W90094   9.103  22.696  29.860  0.0760  0.1375  0.0857
47001W        W90095   9.882  23.866  31.423  0.4102  0.0438 -0.1372
47002W        W90096   8.544  25.417  27.807  0.2849 -0.0875  0.1670
47003W        W90097   7.895  22.404  29.256  0.3644  0.1072  0.0970
47004W        W90098   8.348  24.839  28.646  0.1136 -0.3007  0.1668
47005W        W90099   7.472  22.286  29.934 -0.1866  0.2747  0.0050
47006W        W90100  10.111  23.770  29.725  0.1303 -0.0069 -0.2885
47007W        W90101  12.024  23.414  28.876 -0.0141  0.0158  0.4503
47008W        W90102   7.972  21.454  30.867 -0.0009  0.0106 -0.0161
47009W        W90103  10.478  22.034  27.802 -0.1554  0.2851 -0.0199
47010W        W90104   8.597  23.223  28.224 -0.0100 -0.2313 -0.0015
47011W        W90105  11.233  25.007  29.287  0.0482 -0.0027 -0.2031
47012W        W90106  11.115  22.769  27.406 -0.0787  0.3149  0.3867
47013W        W90107  10.774  25.938  28.099  0.0271  0.1561  0.1042
47014W        W90108   9.413  23.330  30.224  0.1738 -0.2286  0.1321
47015W        W90109   9.698  22.321  29.560  0.0569  0.0308 -0.2920
47016W        W90110   9.333  21.782  30.397  0.0685  0.0071  0.1838
47017W        W90111   7.804  21.936  29.107  0.1038 -0.1645  0.1780
47018W        W90112  11.312  23.152  29.330  0.0126 -0.1195 -0.0697
47019W        W90113   7.942  22.816  27.773 -0.0533  0.0386  0.0974
47020W        W90114  10.718  22.629  28.502 -0.0523  0.2578  0.0258
47021W        W90115   8.114  23.611  27.126  0.1960 -0.1985  0.0603
47022W        W90116   6.837  23.940  28.104  0.0430 -0.1182  0.1352
47023W        W90117  12.245  24.464   0.063 -0.0798 -0.4675 -0.3415
47024W        W90118   9.597  25.518  29.093  0.0515 -0.1520  0.1569
47025W        W90119  11.782  26.565  31.637  0.0591  0.1194 -0.4835
47026W        W90120   8.419  24.905  30.021 -0.0742 -0.0203  0.1103
47027W        W90121   9.303  21.232  30.549 -0.0017  0.1907  0.4100
47028W        W90122   7.327  22.139  27.749  0.2166 -0.0063 -0.0348
47029W        W90123   8.996  24.763  30.360  0.0029  0.0081  0.0017
47030W        W90124   8.029  23.409  30.017  0.4349 -0.0574  0.1240
47031W        W90125   9.599  20.505  28.166 -0.0805 -0.1705 -0.0010
47032W        W90126  10.066  26.585  30.618  0.0063  0.0914 -0.1395
47033W        W90127   9.655  24.037  28.802 -0.1682  0.2107  0.0835
47034W        W90128   8.055  21.907  30.592 -0.2003 -0.0800 -0.2139
47035W        W90129  11.199  21.313  29.280  0.2611 -0.0853  0.1932
47036W        W90130  12.359  24.094  31.665 -0.0565 -0.1895 -0.0729
47037W        W90131  10.897  24.622  28.840  0.0260 -0.1460  0.0265
47038W        W90132   7.283  22.962  26.932 -0.2751  0.1359 -0.0326
47039W        W90133   9.013  25.688  30.132  0.1872 -0.0425  0.1498
47040W        W90134   7.238  24.535  29.347  0.1884  0.0876  0.1831
47041W        W90135   8.449  23.018  27.775 -0.4512  0.4108 -0.0687
47042W        W90136   9.814  25.150  29.405  0.4297  0.0680 -0.1935
47043W        W90137  11.233  21.836  27.322 -0.0464  0.3459  0.1055
47044W        W90138   7.531  22.113  31.789 -0.0031  0.1135  0.0327
47045W        W90139  11.636  22.591  31.170 -0.0325  0.1260  0.0837
47046W        W90140   8.053  23.752  29.644 -0.1296 -0.4216  0.1393
47047W        W90141   9.254  24.255  30.504  0.2866  0.1609 -0.0283
47048W        W90142   9.907  22.726  28.316 -0.3803 -0.0077  0.0049
47049W        W90143  10.205  22.368  28.074 -0.0893 -0.1770  0.0134
47050W        W90144  10.725  24.572  31.045 -0.2268 -0.1081  0.1539
47051W        W90145  10.508  24.418  28.758  0.0090  0.0610 -0.1060
47052W        W90146  10.865  23.936  28.115 -0.1109 -0.0491 -0.4598
47053W        W90147  11.034  22.840  26.853  0.2041 -0.1048 -0.2898
47054W        W90148   9.167  23.486  31.058  0.4992  0.0799 -0.0805
47055W        W90149   8.317  23.855  28.905 -0.2402  0.1227  0.0378
47056W        W90150   8.529  22.322  30.557 -0.0391 -0.2068 -0.1449
47057W        W90151   9.541  22.419  28.616  0.0552 -0.0865 -0.0795
47058W        W90152  12.287  25.453  28.754  0.0639  0.1770 -0.0481
47059W        W90153   7.605  23.580  30.236 -0.1063  0.0281  0.3999
47060W        W90154   9.783  24.412  31.303 -0.2248  0.1964 -0.1907
47061W        W90155  10.320  25.486  29.035 -0.0948  0.0102  0.0246
47062W        W90156   9.429  21.872  29.774  0.1760  0.0080  0.1477
47063W        W90157   9.723  23.582  27.145 -0.0968  0.3204 -0.1089
47064W        W90158   8.808  23.323  29.113  0.0324 -0.0855 -0.1867
47065W        W90159   6.770  24.952  26.812 -0.0345 -0.2651  0.2857
47066W        W90160   9.124  21.879  29.358 -0.1187 -0.1596 -0.1126
47067W        W90161   9.537  22.373  30.036 -0.0493 -0.1878 -0.1408
47068W        W90162   9.762  22.799  29.894  0.0189  0.0057 -0.0293
47069W        W90163  11.210  24.066  31.368 -0.0900 -0.0219 -0.3399
47070W        W90164  11.097  24.044  29.664 -0.0611 -0.3872  0.0083
47071W        W90165   9.917  23.240  28.865 -0.0527 -0.1086  0.2228
47072W        W90166   8.779  23.430  27.126 -0.1112 -0.0268 -0.1204
47073W        W90167   9.776  21.630  31.409 -0.0189  0.0908 -0.0907
47074W        W90168   9.239  23.117  30.695  0.1395  0.0720 -0.1512
47075W        W90169   8.624  25.335  31.286  0.2415 -0.1703  0.2422
47076W        W90170  10.177  24.126  31.081  0.2322  0.1287  0.1977
47077W        W90171  10.807  23.608  28.537 -0.0474 -0.2074  0.2533
47078W        W90172   9.781  22.231  31.456  0.1956 -0.1378 -0.1223
47079W        W90173  10.507  23.156  27.172  0.2042 -0.0012  0.3570
47080W        W90174   8.510  25.764  28.161 -0.0472 -0.1104  0.0437
47081W        W90175   8.449  25.295  29.299 -0.0018 -0.0002 -0.1838
47082W        W90176   9.746  22.726  29.095 -0.1807  0.0315 -0.3682
47083W        W90177  10.297  24.259  29.422  0.1096 -0.0226  0.0984
47084W        W90178   9.534  24.816  29.151  0.1268  0.2962 -0.0927
47085W        W90179  10.371  22.628  30.162  0.2419  0.1777  0.1653
47086W        W90180   8.336  25.231  28.356 -0.0202  0.0105  0.0815
47087W        W90181  10.950  22.818  29.324 -0.4650 -0.0490  0.1736
47088W        W90182   7.435  25.942  29.637  0.0081 -0.2580  0.3549
47089W        W90183  10.148  21.902  28.306  0.2052 -0.2245 -0.0793
47090W        W90184   9.216  23.104  27.403 -0.1837  0.2754  0.2792
47091W        W90185   9.488  24.476  28.287 -0.0604 -0.2039  0.0460
47092W        W90186  11.258  23.692  28.285 -0.0067 -0.2033  0.0607
47093W        W90187   8.853  22.958  30.405 -0.2102  0.0410  0.1953
47094W        W90188   9.109  22.042  28.259  0.0340 -0.0731  0.1086
47095W        W90189   6.721  23.427  30.856  0.2149 -0.3289 -0.2616
47096W        W90190   9.832  23.157  30.449 -0.0125  0.1510 -0.4738
47097W        W90191  12.518  24.404  27.350 -0.0708 -0.2690  0.0454
47098W        W90192  10.385  24.373  30.665 -0.1014  0.1292 -0.0659
47099W        W90193   8.688  23.212  31.739 -0.1699  0.0669  0.0506
47100W        W90194   6.863  23.645  29.045 -0.4111 -0.3201 -0.0147
47101W        W90195  10.381  23.414  28.739 -0.0995  0.1169  0.2858
47102W        W90196   9.439  22.252  29.125  0.0527 -0.0259 -0.3339
47103W        W90197   7.946  23.467  30.626  0.2895  0.1007  0.1325
47104W        W90198  10.131  24.032  28.961 -0.0454  0.1456  0.2377
47105W        W90199   8.392  22.377  29.259 -0.0162 -0.0041 -0.4712
47106W        W90200   8.741  22.697  28.084 -0.0448 -0.1438 -0.0772
47107W        W90201  10.304  23.109  31.486 -0.0265 -0.0506 -0.0029
47108W        W90202  11.208  24.699  31.007  0.2431  0.1456  0.1755
47109W        W90203   9.241  23.565  29.192  0.0373 -0.3199 -0.2002
47110W        W90204   8.315  22.564  27.600 -0.2041  0.0607  0.0717
47111W        W90205   9.753  24.281  29.270  0.2316  0.1002 -0.1102
47112W        W90206  10.986  23.791  30.545  0.3936  0.0124  0.0795
47113W        W90207  10.501  21.770  29.614  0.3436  0.2052  0.0385
47114W        W90208   7.371  24.150  30.904  0.0341 -0.0400 -0.2202
47115W        W90209  10.192  21.315  29.797 -0.1183 -0.1327 -0.2817
47116W        W90210  11.317  25.443  28.720  0.0928 -0.2337 -0.0853
47117W        W90211  11.926  25.480   0.178  0.0245 -0.0839  0.1701
47118W        W90212   9.949  24.243  28.372  0.1898  0.0508 -0.2191
47119W        W90213   8.744  24.298  30.670 -0.0243  0.1352 -0.0146
47120W        W90214   8.995  24.829  28.936  0.2309 -0.0195  0.0010
47121W        W90215   8.934  23.437  30.259 -0.2100  0.1795 -0.1246
47122W        W90216   8.902  23.837  30.712  0.1317  0.1916 -0.0133
47123W        W90217   8.658  24.561  28.257 -0.2320 -0.0197 -0.0444
47124W        W90218   7.746  23.936  30.590  0.1512 -0.1480  0.0047
47125W        W90219  12.066  22.509  27.483  0.2418 -0.0271  0.1480
47126W        W90220   8.940  23.592  28.288 -0.0944  0.2972  0.1116
47127W        W90221  11.187  21.941  29.079 -0.0460  0.1554 -0.2323
47128W        W90222  13.078  21.478  28.682  0.2566  0.1752 -0.1710
47129W        W90223  11.796  23.935  28.783 -0.0610  0.1638 -0.0576
47130W        W90224  11.819  21.647  29.667 -0.2063  0.3601 -0.1594
47131W        W90225   8.254  21.737  31.168  0.1646 -0.4890 -0.3223
47132W        W90226  10.092  24.996  29.929 -0.0389 -0.2402  0.6089
47133W        W90227   9.116  22.460  30.322 -0.3472  0.0694 -0.0885
47134W        W90228   9.403  24.804  30.724  0.0942  0.0369  0.0232
47135W        W90229   9.925  23.709  30.660 -0.2585 -0.1237  0.2199
47136W        W90230   9.064  22.443  27.309  0.1484 -0.1002  0.0023
47137W        W90231  10.140  21.929  26.427 -0.0056  0.0508  0.2104
47138W        W90232   7.449  23.398  30.670  0.2680 -0.0535 -0.0463
47139W        W90233  11.595  24.063  29.317  0.3088  0.0865 -0.0786
47140W        W90234   9.881  23.230  27.488 -0.0187 -0.2363 -0.1196
47141W        W90235  11.181  23.708  29.218 -0.0068  0.0275 -0.0416
47142W        W90236   6.824  23.027  30.289 -0.1569  0.1857  0.2013
47143W        W90237  10.385  24.071  28.423  0.3186  0.0236 -0.2648
47144W        W90238   9.758  23.682  29.150  0.0753  0.0394 -0.0227
47145W        W90239   9.028  22.927  27.785 -0.0396 -0.1548 -0.3100
47146W        W90240   8.642  22.666  29.675 -0.0151 -0.1818 -0.0699
47147W        W90241  11.334  24.393  28.873 -0.0628 -0.0318  0.2502
47148W        W90242   9.225  22.767  29.022 -0.0793 -0.0929  0.0431
47149W        W90243  11.846  23.040  29.183  0.1866  0.0301  0.1482
47150W        W90244  10.471  22.545  29.157  0.0126 -0.0854 -0.0115
47151W        W90245   9.537  23.806   0.855  0.0556 -0.0704 -0.3222
47152W        W90246   7.084  21.099  31.054 -0.1269  0.0240 -0.4996
47153W        W90247  10.067  26.301  30.179  0.1452 -0.0381 -0.1525
47154W        W90248  11.539  22.994  28.774 -0.0941 -0.2112 -0.0747
47155W        W90249  10.656  23.842  29.505 -0.2930 -0.2430 -0.0032
47156W        W90250  11.042  22.103  28.599  0.2265  0.0463  0.0296
47157W        W90251   9.398  23.289  27.856 -0.2563  0.4303 -0.0341
47158W        W90252   8.560  22.828  29.180 -0.2896 -0.0285  0.0877
47159W        W90253  10.942  24.258  30.760 -0.1941  0.1723 -0.1541
47160W        W90254   8.454  21.697  27.709 -0.1409 -0.2751  0.0270
47161W        W90255  10.231  23.560  31.227 -0.2026  0.0917 -0.0087
47162W        W90256   8.956  26.159  29.161 -0.1350 -0.0930 -0.1723
47163W        W90257   9.536  22.939  28.635 -0.0295 -0.1256  0.0712
47164W        W90258   9.424  22.719  29.463 -0.2339  0.0861 -0.2724
47165W        W90259   6.997  23.751  29.593  0.0448 -0.0190  0.0432
47166W        W90260   8.173  24.293  31.367  0.2089  0.0403 -0.0062
47167W        W90261   8.652  22.101  28.012  0.1576 -0.0554  0.0011
47168W        W90262   9.876  22.776  26.642 -0.1098 -0.2800 -0.0550
47169W        W90263  10.223  23.382  30.289 -0.1200 -0.0519  0.1608
47170W        W90264  11.324  24.375   0.112  0.1694 -0.3016  0.2609
47171W        W90265  10.681  22.467  27.982 -0.2945 -0.3633  0.0092
47172W        W90266  11.273  24.178  30.102  0.2370  0.0139  0.2851
47173W        W90267   8.645  25.192  28.820  0.1031 -0.0092  0.0691
47174W        W90268  10.238  23.021  29.763  0.1859  0.0578  0.0323
47175W        W90269   7.414  24.320  29.860 -0.2103 -0.2144  0.2199
47176W        W90270   8.355  24.518  31.820 -0.0830  0.0781 -0.1790
47177W        W90271   9.282  24.035  29.351 -0.0466  0.0179 -0.3431
47178W        W90272  10.212  22.149  29.444  0.0187 -0.0300 -0.0244
47179W        W90273  11.213  24.502  29.371 -0.5334  0.4025 -0.0417
47180W        W90274   9.463  23.629  29.632 -0.3753  0.0040  0.0583
47181W        W90275  12.056  23.915  30.747 -0.2251  0.2078 -0.0926
47182W        W90276   9.261  24.378  31.482 -0.1433  0.3342 -0.1203
47183W        W90277   8.151  22.700  29.774 -0.3671  0.0161 -0.3194
47184W        W90278  10.221  24.489  30.231  0.1129 -0.2320 -0.0812
47185W        W90279  11.945  24.632  29.606  0.1237 -0.2470  0.1436
47186W        W90280   9.489  24.657  30.085  0.3430 -0.0812 -0.0149
47187W        W90281   7.592  22.241   0.414 -0.1201 -0.4930 -0.2213
47188W        W90282   9.396  22.791   0.148 -0.2285 -0.1236 -0.3256
47189W        W90283  11.073  23.229  28.799 -0.2146  0.2153 -0.1657
47190W        W90284   9.465  21.888  27.838  0.0962 -0.0426  0.0251
47191W        W90285   9.816  24.533  28.854  0.1114 -0.0877  0.1427
47192W        W90286   7.860  24.252  30.964  0.1356  0.0689  0.2297
47193W        W90287   8.181  23.396  31.558  0.1877 -0.1046 -0.1579
47194W        W90288   7.009  25.780  27.857  0.1535  0.0780  0.0470
47195W        W90289   8.642  22.410  28.519 -0.0328  0.0526 -0.2637
47196W        W90290  12.129  24.829  30.399  0.1279  0.2476 -0.0431
47197W        W90291   9.768  24.698  29.643 -0.0213 -0.1290  0.2915
47198W        W90292   9.461  22.530  26.967  0.1118 -0.2533  0.0364
47199W        W90293   9.062  24.392  29.951  0.2078 -0.0919 -0.1761
47200W        W90294   6.901  24.059  28.610 -0.1056  0.0968 -0.0731
47201W        W90295  11.078  25.538  28.081  0.1487  0.1252 -0.2164
47202W        W90296   8.891  24.905  29.493  0.0652 -0.0969 -0.0762
47203W        W90297  10.624  25.171  31.708  0.2612  0.0454 -0.1113
47204W        W90298  10.402  23.535  28.138 -0.0547  0.1624 -0.0439
47205W        W90299  10.646  24.818  30.140 -0.2324  0.2632 -0.0757
47206W        W90300  12.129  23.681  28.440 -0.3453  0.1571 -0.2624
47207W        W90301  10.671  24.073  31.208 -0.1595  0.0127  0.4291
47208W        W90302   8.959  22.999  29.441 -0.0635 -0.0779 -0.0510
47209W        W90303   9.602  21.321  27.039 -0.3077  0.1701  0.1699
47210W        W90304   9.374  23.684  30.553 -0.1121 -0.1069  0.1209
47211W        W90305  11.847  21.961  30.248 -0.0550 -0.1446 -0.4951
47212W        W90306   7.115  25.609  31.150 -0.0275  0.1537 -0.1529
47213W        W90307  11.158  25.095  28.333 -0.0251  0.3216  0.0251
47214W        W90308   8.194  22.217  28.307  0.1065 -0.3156 -0.0429
47215W        W90309   8.516  23.548  29.464 -0.1810  0.2602  0.0656
47216W        W90310  10.588  21.988  30.442  0.1770  0.1638 -0.0792
47217W        W90311   9.619  24.133  27.833  0.1352 -0.3316 -0.1063
47218W        W90312   9.031  22.344  28.818 -0.0719  0.1013  0.0569
47219W        W90313   8.537  24.691  29.220 -0.0696  0.1434  0.0034
47220W        W90314   9.195  23.784  30.057  0.0552 -0.2445 -0.1014
47221W        W90315   8.657  24.234  28.816  0.2313  0.3411 -0.0696
47222W        W90316   8.737  23.016  28.707  0.0163  0.0954 -0.0923
47223W        W90317  11.563  24.315  29.753  0.0510 -0.0365 -0.0359
47224W        W90318   7.941  22.066  31.428 -0.2083 -0.3749 -0.0986
47225W        W90319  11.384  22.657  29.159  0.2030  0.2094 -0.1056
47226W        W90320   7.631  22.664  29.606  0.1496 -0.0579 -0.3655
47227W        W90321  11.053  22.260  27.543  0.3695 -0.0732  0.0642
47228W        W90322  10.335  25.096  31.147  0.0286 -0.1962 -0.2578
47229W        W90323   9.951  21.824  29.696 -0.1821  0.1516  0.1039
47230W        W90324  10.008  21.901  27.806 -0.2305  0.0951  0.0116
47231W        W90325  12.244  25.594  30.461  0.1413 -0.2910  0.4907
47232W        W90326  10.319  25.250  27.022  0.3299  0.3403 -0.3940
47233W        W90327   9.897  25.024  30.892 -0.1077 -0.0099 -0.0189
47234W        W90328   9.104  23.147  28.261 -0.0574  0.1486  0.1265
47235W        W90329   9.709  23.032  25.678  0.3253  0.0148  0.0804
47236W        W90330   7.808  23.273  28.913  0.0428 -0.0603  0.0333
47237W        W90331   9.048  22.601  30.863  0.0783 -0.0722 -0.1198
47238W        W90332  10.186  25.415  31.679  0.1936  0.1260 -0.2150
47239W        W90333   8.847  21.558  30.361 -0.0491 -0.0783  0.1873
47240W        W90334  11.576  24.150  28.332 -0.0170 -0.2360 -0.1346
47241W        W90335  11.364  22.713  30.050  0.2594 -0.1003 -0.0383
47242W        W90336   9.696  25.316  28.608 -0.1729  0.0071  0.0622
47243W        W90337  11.572  23.478  29.021 -0.1936 -0.4787 -0.0212
47244W        W90338  10.515  24.196  29.865  0.0851 -0.0466 -0.0998
47245W        W90339   8.819  23.802  29.109 -0.1887  0.1892 -0.1103
47246W        W90340  10.865  24.958  29.595 -0.2200  0.1543 -0.0600
47247W        W90341  10.821  25.035  30.973  0.1566 -0.1467  0.2272
47248W        W90342  10.134  21.405  27.803  0.1442 -0.1577 -0.3562
47249W        W90343   7.975  22.132  29.702 -0.1306  0.2315 -0.2157
47250W        W90344   8.582  23.603  29.941 -0.2314  0.1261 -0.1249
47251W        W90345  12.568  21.376  28.622  0.3380 -0.1107  0.1809
47252W        W90346  11.132  23.440  30.222 -0.0726 -0.0717  0.3102
47253W        W90347   9.881  24.852  28.225  0.0839  0.0256  0.0400
47254W        W90348  13.358  22.476  28.517 -0.1939 -0.0272 -0.1810
47255W        W90349   9.610  22.781  30.785 -0.1217  0.1764  0.0399
47256W        W90350   7.801  25.430  31.635  0.0328  0.3749  0.0473
47257W        W90351   9.158  24.373  27.514  0.0203 -0.0498  0.0496
47258W        W90352   8.681  23.443  31.267  0.0444  0.0810 -0.0487
47259W        W90353   9.574  23.514  28.678  0.0794 -0.0059 -0.0253
47260W        W90354   9.957  26.402  27.976 -0.1329  0.1835  0.0155
47261W        W90355   9.818  25.731  29.488 -0.0728  0.1066 -0.1310
47262W        W90356   9.771  21.695  27.367 -0.1645  0.2858 -0.0482
47263W        W90357  11.472  25.346  31.095 -0.1484 -0.1933  0.0329
47264W        W90358   9.345  21.738  26.890 -0.2509  0.0784 -0.1459
47265W        W90359  11.663  21.218  28.057 -0.0591  0.2214  0.0762
47266W        W90360  11.226  21.200  26.899 -0.0431 -0.0299  0.0848
47267W        W90361   8.454  23.888  30.463  0.0846  0.1464  0.1526
47268W        W90362   7.330  23.835  28.364 -0.0076  0.1478 -0.0185
47269W        W90363   9.990  23.388  27.913 -0.2027  0.1024  0.3063
47270W        W90364   9.666  23.227  28.256  0.2270 -0.1666  0.2453
47271W        W90365   8.713  22.071  31.140 -0.0941 -0.0074  0.0212
47272W        W90366   7.978  22.646  31.200 -0.0082 -0.1595 -0.1022
47273W        W90367   7.837  24.049  28.773  0.1487 -0.3110  0.1975
47274W        W90368   8.856  23.389  27.616 -0.2305 -0.2070 -0.1567
47275W        W90369  10.096  24.785  29.220  0.0997  0.0067 -0.2662
47276W        W90370   8.371  22.708  30.212 -0.1594  0.0220  0.0189
47277W        W90371   8.193  23.168  28.634 -0.1587  0.0231 -0.0816
47278W        W90372  10.912  24.168  29.111  0.2569 -0.2355 -0.1958
47279W        W90373  11.678  24.849  29.182  0.1434 -0.0987 -0.0491
47280W        W90374   9.669  20.876  28.590 -0.2841 -0.0249 -0.1715
47281W        W90375   9.917  24.543  30.815  0.0087  0.1818  0.0758
47282W        W90376   8.416  23.572  26.737  0.2281  0.3906 -0.2759
47283W        W90377   9.987  24.858  31.495 -0.1407  0.0370  0.1005
47284W        W90378   7.767  23.092  31.821 -0.1885 -0.1805 -0.1353
47285W        W90379   6.992  21.414  28.161 -0.0009  0.1828 -0.1875
47286W        W90380   9.351  23.124  29.742  0.2152  0.1903 -0.2628
47287W        W90381  10.811  24.432  28.207 -0.0858 -0.0691  0.1891
47288W        W90382   9.989  25.841  27.989  0.1419  0.2955  0.1534
47289W        W90383   8.433  24.041  29.409 -0.1874  0.1793  0.3016
47290W        W90384   8.608  24.505  29.685 -0.2074  0.0929  0.3638
47291W        W90385   7.472  20.069  30.292  0.0925 -0.0021  0.1622
47292W        W90386  10.360  22.851  28.068 -0.2223 -0.0680 -0.0792
47293W        W90387   9.144  22.940  31.662  0.2730 -0.2152 -0.4269
47294W        W90388  11.252  24.622  28.425 -0.2313  0.1023 -0.3300
47295W        W90389  12.158  21.060  30.316  0.0359 -0.0798  0.0011
47296W        W90390   8.282  23.273  29.122 -0.1320  0.0916  0.0665
47297W        W90391   8.982  22.034  30.611  0.3454 -0.0004 -0.0845
47298W        W90392   7.497  22.293  31.336  0.2158  0.1841  0.2743
47299W        W90393  10.305  24.911  30.597 -0.0098 -0.2315 -0.3888
47300W        W90394   8.917  22.446  29.280 -0.3378  0.1764 -0.2467
47301W        W90395  10.689  22.949  28.957  0.0196 -0.0779  0.1280
47302W        W90396  10.312  24.587  28.351  0.1467  0.2008 -0.3452
47303W        W90397   6.812  23.334  29.891 -0.2189  0.0883 -0.0288
47304W        W90398   9.700  22.335  27.671 -0.1989  0.1443 -0.2286
47305W        W90399  10.059  22.703  29.464  0.1161  0.0876  0.0042
47306W        W90400   9.254  24.535  29.507  0.0587 -0.2871  0.0016
47307W        W90401  12.405  24.075  31.054 -0.2159  0.0188  0.0188
47308W        W90402   9.231  22.394  27.808  0.0701  0.2301 -0.3549
47309W        W90403  12.399  24.491  28.366 -0.3194 -0.0908  0.1293
47310W        W90404   9.513  26.930  30.605  0.1273  0.1125  0.1864
47311W        W90405   9.833  24.673   0.693 -0.0131 -0.1785 -0.0829
47312W        W90406   8.928  25.464  29.671  0.2693  0.2335 -0.1840
47313W        W90407  11.427  23.734  29.949  0.2152 -0.0204  0.0516
47314W        W90408  10.381  21.201  31.030  0.1382 -0.0788 -0.0362
47315W        W90409   9.478  23.140  29.178  0.1086  0.1495  0.0518
47316W        W90410   9.967  23.743  28.540 -0.0782  0.2120  0.2322
47317W        W90411  10.197  22.857  28.792  0.1280  0.0971 -0.2419
47318W        W90412   9.019  21.307  30.972 -0.1439 -0.0620 -0.1139
47319W        W90413  11.462  22.636  27.128 -0.0347  0.1162  0.2150
47320W        W90414   8.361  26.104  30.687  0.4352  0.0740  0.1649
47321W        W90415   8.538  23.476  30.732 -0.0226 -0.1302  0.3403
47322W        W90416   8.695  23.381   0.540  0.1212  0.2592  0.2575
47323W        W90417  10.965  23.012  29.792  0.0299  0.0851  0.1596
47324W        W90418   6.923  22.713   0.845 -0.1421 -0.0621  0.3234
47325W        W90419   8.325  24.350  30.900  0.0455 -0.3802 -0.0613
47326W        W90420   7.750  23.584  31.050 -0.3197 -0.2383  0.1344
47327W        W90421   8.283  22.418  31.594 -0.1657 -0.0027  0.2471
47328W        W90422   9.800  23.344  31.412  0.1474  0.0425 -0.1639
47329W        W90423   8.171  22.767   0.511  0.2486  0.1835  0.0021
47330W        W90424   9.829  23.687  31.901 -0.0578  0.0300  0.2813
47331W        W90425  10.076  23.679   0.489 -0.0697  0.0479  0.3473
47332W        W90426   9.079  23.999  31.151 -0.0827 -0.2372  0.3407
47333W        W90427   7.999  20.682  31.515 -0.2774  0.1266 -0.1977
47334W        W90428   9.456  24.487   0.303 -0.3970  0.2691 -0.0602
47335W        W90429   8.688  22.708  31.741  0.0317 -0.1047 -0.0544
47336W        W90430  10.218  24.267  31.788 -0.2364  0.2674  0.2405
47337W        W90431   9.807  24.654  31.892 -0.0730  0.0961  0.2992
47338W        W90432   7.440  22.797  31.413 -0.0653  0.2403 -0.3149
47339W        W90433   8.687  23.774   0.176 -0.1133 -0.2498 -0.1633
47340W        W90434   8.215  19.872   0.206 -0.2616 -0.2263 -0.1123
47341W        W90435   7.354  22.430   0.990 -0.0492 -0.1240 -0.3286
47342W        W90436   7.187  21.386   0.187 -0.1233  0.0053  0.2560
47343W        W90437   6.670  24.525   1.087 -0.0860  0.0090 -0.0664
47344W        W90438  11.556  24.013  31.752  0.0739  0.0536  0.1028
47345W        W90439   9.396  23.042  31.223 -0.1888 -0.0445 -0.0118
47346W        W90440  11.070  22.809   0.039  0.0046 -0.0655 -0.1254
47347W        W90441   9.178  22.496   0.535  0.1675 -0.3274 -0.1127
47348W        W90442   7.143  22.765   0.396  0.0294 -0.1417 -0.1661
47349W        W90443   7.544  25.714  31.970 -0.1009  0.2319 -0.4891
47350W        W90444   8.272  23.107  31.128  0.0606  0.3069 -0.3217
47351W        W90445  10.544  23.870  30.709 -0.1672  0.2984  0.1500
47352W        W90446   9.746  24.223  30.418  0.1766 -0.0364  0.3284
47353W        W90447   7.753  23.196  31.355  0.2186  0.1236 -0.1939
47354W        W90448   9.174  24.167   0.051 -0.0573  0.3554  0.0040
47355W        W90449  10.546  23.455  31.822 -0.3946  0.0564 -0.2697
47356W        W90450   9.211  22.027  31.294  0.1871  0.1392 -0.0004
47357W        W90451   7.480  23.499  31.654 -0.0503 -0.4358  0.4382
47358W        W90452   7.784  24.561  31.431  0.0550 -0.1600  0.1122
47359W        W90453  10.299  23.809   0.106 -0.0784  0.1657  0.2102
47360W        W90454   7.990  23.975   0.827  0.0322 -0.1394  0.1695
47361W        W90455   9.028  23.946   0.459 -0.1780 -0.2203 -0.1637
47362W        W90456  11.560  24.015  30.888 -0.0261 -0.3432  0.4971
47363W        W90457   9.824  23.345  29.902  0.0270  0.1278  0.3105
47364W        W90458   9.629  22.257  30.725  0.2700 -0.1081 -0.0358
47365W        W90459   9.684  24.193  31.777  0.0995 -0.0298  0.0870
47366W        W90460   7.775  21.602  31.358 -0.0532  0.1055  0.0134
47367W        W90461   8.528  22.936   0.800  0.0588  0.1598 -0.0979
47368W        W90462   7.270  19.903   0.465 -0.0906 -0.1738 -0.1927
47369W        W90463   8.679  24.279   0.181 -0.0658  0.2121  0.3471
47370W        W90464  10.726  25.852  30.529 -0.1841 -0.1422  0.1047
47371W        W90465   7.385  24.671   0.173 -0.2481  0.0526 -0.2196
47372W        W90466   8.592  23.917   0.761 -0.0367  0.1790 -0.0689
47373W        W90467  11.155  23.673  31.063  0.2551 -0.0515 -0.3269
47374W        W90468   9.997  21.557  31.907  0.1377  0.0514  0.0222
47375W        W90469   9.003  23.098   0.240  0.1339 -0.0030 -0.4197
47376W        W90470  10.090  23.285   0.135 -0.1779  0.0419 -0.1548
47377W        W90471  10.830  23.344  29.242  0.0344 -0.1559  0.0683
47378W        W90472  10.128  25.349  30.349  0.0345 -0.0163 -0.0375
47379W        W90473   8.332  23.876  31.693 -0.0634  0.0087 -0.1634
47380W        W90474   8.650  24.359  31.313  0.0830 -0.0931  0.0053
47381W        W90475   7.661  23.536   0.851  0.0776  0.0468 -0.1276
47382W        W90476   8.094  22.250   0.529  0.1188  0.1439 -0.1778
47383W        W90477   8.200  22.911  31.584 -0.1656 -0.0571  0.1415
47384W        W90478   6.788  24.211  30.467 -0.2430 -0.0047 -0.0324
47385W        W90479   8.253  21.014   0.667  0.0475 -0.1307  0.1315
47386W        W90480   9.862  24.823  30.362  0.2406  0.4024  0.1469
47387W        W90481  11.110  25.523  31.685  0.1198  0.1787 -0.0991
47388W        W90482  12.565  23.138  31.314 -0.1892  0.2781 -0.1290
47389W        W90483   7.634  29.453  17.859 -0.0169  0.2031  0.0740
47390W        W90484   9.100  26.748  16.036 -0.1741  0.0544  0.0849
47391W        W90485   9.685  26.957  15.479 -0.3298  0.0740  0.0648
47392W        W90486  11.005  27.183  16.197 -0.4110 -0.0696 -0.0040
47393W        W90487   6.065  28.277  17.669 -0.5774 -0.2288 -0.2370
47394W        W90488   9.831  30.369  17.173 -0.2091  0.2459  0.1225
47395W        W90489   6.380  27.178  20.111 -0.0590 -0.2751  0.2274
47396W        W90490   9.869  28.080  16.699  0.2308  0.2653 -0.1672
47397W        W90491  10.469  28.777  19.074  0.0537  0.1165 -0.1870
47398W        W90492  10.100  28.823  15.617 -0.2105 -0.1000  0.2199
47399W        W90493   8.406  27.150  18.117  0.1474  0.1249  0.0437
47400W        W90494   7.759  29.068  17.482 -0.0397  0.1089  0.3959
47401W        W90495   8.316  27.097  16.240 -0.0661  0.0561  0.2586
47402W        W90496   6.791  24.505  18.754  0.0497  0.0671  0.0712
47403W        W90497   9.443  27.053  18.356  0.3458  0.1048 -0.0856
47404W        W90498   7.870  27.144  18.229 -0.3446 -0.0031  0.0351
47405W        W90499   7.659  27.751  18.985 -0.2575 -0.1060  0.0265
47406W        W90500   9.296  25.683  16.152 -0.0280  0.1307 -0.0325
47407W        W90501   9.294  29.079  17.170  0.0018  0.0351 -0.0865
47408W        W90502   7.918  26.249  17.974  0.3623  0.2088 -0.2614
47409W        W90503   8.211  25.962  18.428  0.1673 -0.0486 -0.0661
47410W        W90504   8.701  28.257  15.669 -0.0324  0.1790  0.3463
47411W        W90505   7.168  27.514  15.868  0.2519  0.0751  0.0881
47412W        W90506   6.149  26.459  18.912 -0.0529  0.0513 -0.1677
47413W        W90507   8.262  28.388  18.538  0.0586 -0.1297  0.1754
47414W        W90508  10.877  25.345  18.090  0.1738  0.1118 -0.0739
47415W        W90509  11.655  27.948  17.675  0.2429 -0.2834  0.0032
47416W        W90510   9.198  28.610  18.665  0.1134  0.1451 -0.1442
47417W        W90511   9.124  29.440  17.492 -0.0861 -0.1194 -0.0853
47418W        W90512  10.089  26.832  17.847 -0.3027  0.0009 -0.0686
47419W        W90513   7.037  28.039  17.651 -0.1438  0.0546 -0.2338
47420W        W90514   8.249  29.199  17.737  0.1942  0.0988 -0.0200
47421W        W90515   8.974  27.473  16.661  0.0509  0.0060  0.1356
47422W        W90516  10.994  28.159  17.093  0.1951  0.4718  0.0858
47423W        W90517   9.425  28.078  18.034 -0.2376 -0.0160  0.3008
47424W        W90518   9.185  29.032  20.757  0.1153  0.0538  0.0822
47425W        W90519   7.476  27.772  17.501 -0.1797 -0.0915  0.3320
47426W        W90520   8.620  29.494  17.459  0.2241  0.2739  0.0063
47427W        W90521   6.767  28.630  18.544  0.2022 -0.1533  0.0421
47428W        W90522   8.992  28.473  16.656 -0.1122 -0.0311 -0.2343
47429W        W90523   9.873  27.044  17.394  0.1035  0.1355 -0.2621
47430W        W90524   9.152  27.552  16.157 -0.2770  0.2448  0.0968
47431W        W90525   9.274  27.858  16.737  0.0005  0.0998 -0.0981
47432W        W90526   8.704  27.460  20.397  0.3082 -0.0923  0.0256
47433W        W90527   7.651  29.065  16.585  0.0949  0.3776 -0.0817
47434W        W90528  10.461  26.391  21.175  0.0339  0.0187 -0.1694
47435W        W90529   8.079  29.793  16.662 -0.0208 -0.0210  0.2814
47436W        W90530  10.219  26.828  16.193 -0.0186 -0.0315 -0.0966
47437W        W90531   7.166  26.697  16.264 -0.1535  0.5269  0.2381
47438W        W90532  10.387  27.105  16.521 -0.3746  0.0135 -0.1079
47439W        W90533   6.923  26.260  17.036 -0.0198  0.0542 -0.0150
47440W        W90534   7.633  28.690  16.210  0.0733  0.1589 -0.4064
47441W        W90535   8.265  26.768  19.359 -0.0269  0.3298  0.1225
47442W        W90536   9.635  28.413  18.453  0.1423  0.2151  0.3070
47443W        W90537   8.904  27.927  16.418  0.0938 -0.0041  0.0002
47444W        W90538  10.103  27.369  17.783  0.0087 -0.4078  0.2582
47445W        W90539   8.658  28.455  18.158  0.2854  0.3021  0.2716
47446W        W90540   6.813  28.117  17.046 -0.0942 -0.1305  0.3664
47447W        W90541  10.074  28.013  17.405 -0.1996 -0.0760 -0.1125
47448W        W90542   9.873  29.345  16.269  0.2403  0.3605  0.3053
47449W        W90543  10.331  29.318  16.065 -0.1534  0.0873  0.0368
47450W        W90544   8.477  26.947  17.209  0.0601  0.0056  0.0803
47451W        W90545   7.993  27.273  18.994  0.0846 -0.0482 -0.3376
47452W        W90546   7.779  28.146  19.326 -0.1429 -0.2083  0.1775
47453W        W90547   7.087  26.490  17.604  0.2825  0.2207  0.0932
47454W        W90548  11.536  28.304  20.089  0.0080 -0.2330  0.1461
47455W        W90549   7.157  28.525  18.112 -0.0306 -0.0766  0.0075
47456W        W90550  10.718  25.984  16.766 -0.0434  0.0948 -0.4092
47457W        W90551   9.196  27.678  17.353 -0.0828 -0.0523 -0.2869
47458W        W90552   9.588  28.113  17.559 -0.0310  0.2467  0.0202
47459W        W90553   8.769  25.940  15.444 -0.2309 -0.0820 -0.0912
47460W        W90554   9.881  25.285  18.119  0.2648 -0.1326 -0.0038
47461W        W90555   8.388  27.499  17.371  0.1445 -0.0706  0.0478
47462W        W90556   7.469  27.473  16.728  0.2571 -0.0420  0.3268
47463W        W90557   8.125  27.482  16.583 -0.3021  0.1651 -0.0222
47464W        W90558  10.681  27.918  18.896  0.1040  0.0634  0.0322
47465W        W90559  12.067  26.800  15.151  0.2794 -0.0358 -0.1265
47466W        W90560   9.033  28.666  17.730  0.3072  0.1580 -0.1725
47467W        W90561   8.569  26.664  17.717  0.1229  0.1131 -0.0954
47468W        W90562   9.677  28.990  18.662 -0.0438  0.1607  0.1281
47469W        W90563   7.314  29.634  15.751  0.0829  0.2518  0.1288
47470W        W90564   7.652  28.248  17.419  0.0201 -0.0168  0.1305
47471W        W90565   7.326  28.254  16.200 -0.3221  0.2724  0.0094
47472W        W90566   6.298  25.642  18.405 -0.1976  0.1018  0.0855
47473W        W90567   8.902  27.990  17.088 -0.0862 -0.2860 -0.2298
47474W        W90568  10.612  26.135  16.226 -0.0655  0.2674  0.1829
47475W        W90569   8.262  28.832  18.838  0.2486  0.1136 -0.0066
47476W        W90570   9.978  26.148  17.543  0.3336 -0.0027  0.4171
47477W        W90571   6.613  27.261  17.712  0.1509 -0.1744 -0.2006
47478W        W90572  10.478  29.795  16.013  0.0106 -0.0647  0.3075
47479W        W90573  10.194  26.265  16.972  0.0387 -0.1603  0.0748
47480W        W90574  10.073  28.366  15.859 -0.1555  0.1293 -0.1032
47481W        W90575   6.444  28.494  17.815 -0.1684 -0.0566  0.0882
47482W        W90576   7.390  27.198  18.128 -0.0194  0.1762  0.0772
47483W        W90577   8.020  26.948  19.870  0.1712  0.0335  0.4725
47484W        W90578   7.186  26.133  18.521 -0.1964  0.2542  0.0697
47485W        W90579  11.733  28.172  19.472  0.0702  0.1188 -0.1402
47486W        W90580   6.795  25.902  16.586 -0.1091  0.2075 -0.1285
47487W        W90581  10.741  25.097  17.644  0.1081 -0.0617 -0.0895
47488W        W90582   9.142  26.017  16.561  0.0271 -0.0178  0.0859
47489W        W90583   6.403  28.369  16.850 -0.4044  0.3850 -0.3240
47490W        W90584  10.375  26.235  19.095  0.2214 -0.0109 -0.4096
47491W        W90585   9.526  28.600  16.756  0.0759 -0.1828  0.0191
47492W        W90586   9.553  28.535  17.347 -0.0309  0.2603  0.3255
47493W        W90587  10.384  28.384  17.551 -0.0129  0.4701 -0.1170
47494W        W90588   8.010  28.009  18.711  0.1519  0.1920 -0.1212
47495W        W90589   7.485  26.245  16.223  0.1692 -0.0207  0.3327
47496W        W90590   8.528  30.422  18.215  0.0609  0.0452  0.0833
47497W        W90591   9.623  29.626  16.614  0.0399 -0.0172  0.1946
47498W        W90592   7.881  26.168  16.575  0.3496  0.4385 -0.3437
47499W        W90593   8.980  29.446  16.964 -0.0401  0.0297  0.0866
47500W        W90594   8.801  28.322  16.217  0.1817  0.0780  0.0060
47501W        W90595   7.713  28.730  17.076 -0.1009  0.0907 -0.1683
47502W        W90596   9.398  26.273  20.026  0.1246 -0.0610  0.0058
47503W        W90597  11.737  25.701  18.262 -0.1628  0.0078  0.1856
47504W        W90598  11.019  26.354  17.564 -0.1286  0.1682 -0.1588
47505W        W90599   7.316  25.744  16.462  0.2734 -0.2610  0.1313
47506W        W90600   8.429  29.257  17.009 -0.1416  0.1054 -0.0357
47507W        W90601   6.992  28.764  16.302  0.0073 -0.1170  0.0254
47508W        W90602   7.088  27.138  16.641 -0.0818 -0.0564  0.0392
47509W        W90603  10.935  28.127  16.439  0.2105  0.2460 -0.5088
47510W        W90604   9.159  25.884  17.626 -0.1753  0.2057  0.4526
47511W        W90605   6.744  27.770  18.619  0.2142 -0.1337  0.2119
47512W        W90606  10.320  26.049  20.074 -0.0525 -0.2761  0.0694
47513W        W90607   7.637  27.830  16.402 -0.0883 -0.1991  0.0260
47514W        W90608   8.730  29.126  18.992  0.0997 -0.0159 -0.4395
47515W        W90609   9.513  25.672  16.729  0.1222  0.2019 -0.0769
47516W        W90610   8.982  26.836  15.452  0.0955 -0.1456 -0.1697
47517W        W90611   7.975  27.518  19.964  0.1460 -0.4552 -0.0170
47518W        W90612   9.839  27.942  16.216 -0.2143 -0.3935  0.1547
47519W        W90613   9.978  27.150  15.879 -0.0212 -0.1089 -0.1259
47520W        W90614   9.563  26.724  16.302 -0.2257 -0.2349  0.1593
47521W        W90615   7.067  28.127  19.822 -0.0397 -0.0184 -0.1014
47522W        W90616   9.379  28.031  16.305 -0.1272 -0.0217  0.1321
47523W        W90617   8.450  28.015  18.274 -0.0053 -0.1043  0.2044
47524W        W90618   8.536  26.958  15.634  0.0412 -0.0393  0.1518
47525W        W90619  10.671  28.541  16.577 -0.1642 -0.2076  0.2311
47526W        W90620   8.092  28.499  17.476 -0.0243 -0.2161  0.1084
47527W        W90621   8.866  28.904  18.135 -0.1710 -0.1014  0.3639
47528W        W90622  10.024  28.447  17.194 -0.0406 -0.1503  0.4229
47529W        W90623   8.941  26.247  17.891  0.0499 -0.1923 -0.2387
47530W        W90624   8.624  27.830  15.922  0.2127  0.3655  0.1436
47531W        W90625   9.562  24.767  16.732 -0.1805  0.2600  0.0452
47532W        W90626   6.659  28.989  15.947 -0.0048 -0.1501 -0.3357
47533W        W90627   9.084  26.903  18.671 -0.0078  0.4362 -0.1190
47534W        W90628   8.678  25.730  17.511  0.0380 -0.2050  0.1613
47535W        W90629   8.639  27.268  18.563 -0.2865  0.0816  0.2211
47536W        W90630  11.070  28.297  20.380  0.0742  0.1373 -0.1903
47537W        W90631   9.734  26.407  17.162 -0.1874  0.2303 -0.2926
47538W        W90632   9.325  27.145  16.455 -0.1055  0.3220  0.0701
47539W        W90633   8.539  27.524  16.311 -0.0009 -0.0342  0.2094
47540W        W90634   9.019  27.672  18.862  0.0186  0.1709  0.0774
47541W        W90635   8.539  28.289  18.984  0.0447  0.0679  0.3069
47542W        W90636   5.672  29.226  18.891  0.2123 -0.2942  0.0041
47543W        W90637  10.368  27.010  18.607 -0.1613  0.0026 -0.2398
47544W        W90638   9.423  27.240  16.977  0.1679 -0.0720  0.2265
47545W        W90639   8.004  25.511  19.121 -0.1013  0.2125  0.2794
47546W        W90640   9.580  26.793  16.811 -0.5970  0.2548 -0.1157
47547W        W90641   8.431  29.078  16.010 -0.2016 -0.1462 -0.1280
47548W        W90642   7.262  28.604  15.886 -0.0547  0.1120 -0.0145
47549W        W90643   8.437  27.333  19.085 -0.1241  0.1184  0.0074
47550W        W90644   9.088  27.474  19.393  0.0621 -0.1215  0.2739
47551W        W90645   8.068  27.999  16.759 -0.1709 -0.0575 -0.0350
47552W        W90646   9.308  28.055  18.493  0.1269 -0.5530  0.2743
47553W        W90647   8.049  28.988  16.280  0.0649  0.0026  0.0250
47554W        W90648   9.770  25.276  19.157  0.0318 -0.1912  0.3640
47555W        W90649   6.309  29.116  17.846  0.2563 -0.0927 -0.1366
47556W        W90650   7.594  27.959  17.025  0.2230  0.5019  0.0040
47557W        W90651   7.659  26.614  16.708 -0.0234 -0.6210  0.0857
47558W        W90652  11.946  25.373  17.919  0.2286 -0.1876  0.1492
47559W        W90653  10.682  27.833  16.017  0.2777 -0.0969 -0.0205
47560W        W90654   7.126  27.983  18.177 -0.0168  0.0318 -0.0844
47561W        W90655   8.488  27.123  16.720 -0.2768  0.3291 -0.2445
47562W        W90656   6.006  28.742  17.728  0.2338 -0.2142  0.2434
47563W        W90657   9.580  27.527  16.562  0.0623  0.2309 -0.2028
47564W        W90658  10.488  26.403  15.821 -0.1259  0.1046  0.0392
47565W        W90659  10.243  26.835  19.100  0.2794  0.0473 -0.3967
47566W        W90660   8.887  28.601  19.053  0.0198  0.4339  0.1039
47567W        W90661   6.218  26.645  16.321  0.4078 -0.0136  0.1425
47568W        W90662  10.816  26.814  18.304 -0.2496 -0.1875  0.0743
47569W        W90663   8.775  26.116  18.386 -0.0079 -0.0380 -0.2710
47570W        W90664   6.276  28.171  16.186  0.2834  0.2297  0.2268
47571W        W90665   8.925  28.039  17.993 -0.3088 -0.2283 -0.1518
47572W        W90666   8.289  28.001  16.239 -0.0194  0.1353 -0.1116
47573W        W90667   7.597  29.998  16.594 -0.2421  0.0201  0.1180
47574W        W90668   8.727  26.997  19.438 -0.0579 -0.1686  0.0059
47575W        W90669  10.110  27.580  19.722  0.2622 -0.0841 -0.1003
47576W        W90670   9.256  27.503  18.396 -0.1188 -0.1534  0.1099
47577W        W90671   7.788  27.084  16.504  0.2330  0.3155 -0.1745
47578W        W90672   9.448  27.238  18.833 -0.2106 -0.0667 -0.1252
47579W        W90673   9.835  27.273  19.338  0.0413 -0.1621  0.0486
47580W        W90674  11.022  26.824  19.293  0.2708  0.3986  0.3348
47581W        W90675   6.059  27.373  18.667 -0.1975 -0.1550 -0.1301
47582W        W90676   9.524  25.023  17.620  0.0137  0.0387  0.1088
47583W        W90677  10.279  29.620  16.522 -0.0172  0.2117  0.2826
47584W        W90678   9.548  28.530  19.596  0.0143  0.0932  0.1710
47585W        W90679   6.844  28.290  16.477  0.0345  0.2684  0.3957
47586W        W90680   7.190  27.506  18.839 -0.0356  0.0708  0.3929
47587W        W90681   8.651  27.181  17.706 -0.4094 -0.0611  0.2897
47588W        W90682   8.122  26.962  18.624 -0.2469  0.1800  0.2172
47589W        W90683   9.093  28.213  17.501  0.0573 -0.0077 -0.3255
47590W        W90684   8.050  28.735  15.859  0.1415  0.2554  0.1469
47591W        W90685   8.132  29.589  17.241  0.0836  0.1066 -0.2508
47592W        W90686  10.360  25.933  17.328  0.3321 -0.0780 -0.0732
47593W        W90687  10.529  28.266  15.954 -0.1301  0.0509  0.0507
47594W        W90688   8.677  25.929  15.959  0.1399  0.1820 -0.2154
47595W        W90689   9.445  26.816  17.316  0.0432 -0.0312  0.4520
47596W        W90690  10.527  27.340  16.924  0.3276  0.1986 -0.3522
47597W        W90691   8.509  26.130  18.890 -0.0039  0.1161 -0.0922
47598W        W90692   7.568  26.355  18.713 -0.0506  0.2179 -0.1085
47599W        W90693  10.892  29.249  17.893 -0.2781  0.0776 -0.0565
47600W        W90694   7.409  25.162  18.313  0.0263  0.2325  0.0255
47601W        W90695  10.008  28.956  19.011 -0.2401  0.1037 -0.1188
47602W        W90696   8.680  28.712  18.624  0.1253  0.1768  0.2083
47603W        W90697   9.151  25.560  17.261  0.0311 -0.0511 -0.0737
47604W        W90698   8.031  25.865  17.202 -0.1383  0.0094  0.1645
47605W        W90699   8.552  28.195  16.698 -0.3756 -0.1405 -0.1367
47606W        W90700  10.526  28.872  17.700 -0.2573  0.1857  0.0997
47607W        W90701   9.666  28.665  15.827 -0.0216  0.0068  0.0846
47608W        W90702  10.099  26.783  17.002  0.1396 -0.1513 -0.1029
47609W        W90703   6.938  28.546  17.693 -0.2144  0.0038  0.1804
47610W        W90704  10.092  26.234  16.192 -0.1420  0.3389  0.1817
47611W        W90705   8.416  26.582  15.998 -0.2014 -0.0659 -0.1860
47612W        W90706   6.200  27.496  17.932 -0.3628 -0.3112 -0.1183
47613W        W90707   8.039  26.417  19.661 -0.0428 -0.1688 -0.1836
47614W        W90708   9.853  27.127  16.505  0.2670 -0.5326 -0.0304
47615W        W90709   9.929  26.532  16.546  0.1240  0.0553 -0.2153
47616W        W90710  10.007  25.728  16.893 -0.2142  0.0235 -0.0828
47617W        W90711   8.563  28.287  19.447 -0.2188  0.3854 -0.0830
47618W        W90712   8.184  27.729  19.154 -0.0559 -0.2489  0.3793
47619W        W90713   6.485  25.220  18.343  0.0091 -0.0943 -0.0755
47620W        W90714   9.667  27.475  18.105  0.1668  0.2845 -0.0803
47621W        W90715   9.383  26.600  15.579  0.2698 -0.0325 -0.3144
47622W        W90716  10.564  25.789  18.086  0.5553  0.2158  0.1141
47623W        W90717  10.593  27.402  17.620  0.1203  0.4266  0.0576
47624W        W90718   9.042  26.935  16.807 -0.1611  0.1000  0.3269
47625W        W90719   7.593  27.320  17.367 -0.1616 -0.2207  0.0738
47626W        W90720   9.878  27.022  20.120 -0.3489  0.3380  0.0538
47627W        W90721   8.369  27.405  15.740 -0.0443 -0.1440 -0.0131
47628W        W90722   9.554  26.066  17.859 -0.1764 -0.1283  0.0154
47629W        W90723   8.629  28.728  16.916  0.2977 -0.1616 -0.4810
47630W        W90724  10.022  28.886  16.123 -0.0343  0.4039  0.3569
47631W        W90725   8.763  26.288  16.266 -0.0390 -0.4461  0.0987
47632W        W90726   7.693  27.479  17.894 -0.0899  0.0578  0.1184
47633W        W90727   7.102  28.207  18.630  0.1317 -0.2310 -0.0168
47634W        W90728   6.360  27.224  17.278  0.2674  0.0864 -0.0155
47635W        W90729   8.209  26.631  15.558 -0.0696 -0.1354  0.0817
47636W        W90730   9.487  27.631  19.135  0.1388 -0.1619 -0.0277
47637W        W90731  10.424  27.219  19.396  0.1933 -0.0563 -0.1506
47638W        W90732   8.897  27.323  15.832 -0.2544  0.0009 -0.0984
47639W        W90733   8.574  26.395  19.317  0.2389 -0.0128 -0.0588
47640W        W90734   8.088  28.467  16.511 -0.1069 -0.3257  0.2478
47641W        W90735   9.280  26.418  17.046 -0.3030  0.5239 -0.0611
47642W        W90736   8.217  29.398  18.211 -0.2125 -0.1037 -0.0879
47643W        W90737   8.873  27.325  17.132  0.1220 -0.0327 -0.2181
47644W        W90738   6.862  28.281  15.985 -0.1253  0.0418 -0.1079
47645W        W90739   8.146  26.698  16.876  0.0008  0.0959  0.0825
47646W        W90740   9.974  27.072  18.261 -0.3270  0.2089 -0.0021
47647W        W90741   9.644  28.107  15.814  0.2043  0.1085  0.0260
47648W        W90742  10.770  27.166  18.990  0.0870 -0.1509 -0.1236
47649W        W90743   8.306  29.703  19.866 -0.0992  0.2143 -0.1262
47650W        W90744   9.207  26.515  16.552 -0.2256  0.0982 -0.0352
47651W        W90745   9.204  27.629  17.881 -0.1548  0.1233  0.0644
47652W        W90746  10.360  28.924  17.176  0.1341 -0.0550 -0.2332
47653W        W90747   8.563  27.686  16.835  0.2247 -0.2069 -0.0261
47654W        W90748   6.518  26.324  19.241 -0.0726 -0.1192 -0.0551
47655W        W90749   8.224  26.669  20.305 -0.0449  0.0509  0.0202
47656W        W90750  10.295  27.861  18.593  0.2166 -0.0658  0.1341
47657W        W90751   7.405  27.293  16.223 -0.1007 -0.1431 -0.0705
47658W        W90752   9.512  29.198  16.746  0.1859  0.4119 -0.0393
47659W        W90753   6.936  28.726  20.470 -0.0268  0.5326  0.3083
47660W        W90754   6.861  27.130  19.257  0.0673 -0.0501  0.0139
47661W        W90755   7.116  30.004  16.066  0.2099  0.3777  0.1347
47662W        W90756  10.655  27.543  16.478  0.5155  0.0596 -0.0443
47663W        W90757  11.047  27.731  16.717 -0.1360 -0.1930  0.0275
47664W        W90758   9.177  29.391  18.254 -0.2795  0.1375 -0.1022
47665W        W90759   8.190  27.065  17.609 -0.0161  0.0727 -0.1120
47666W        W90760   7.688  28.587  17.900 -0.3301 -0.2489 -0.2868
47667W        W90761   7.606  28.930  15.789  0.0623  0.1206 -0.1341
47668W        W90762   9.258  28.919  15.698 -0.1110  0.1196  0.0608
47669W        W90763   8.736  29.515  16.168 -0.0246  0.1824  0.1413
47670W        W90764   9.551  27.342  19.889  0.1771  0.2449 -0.0662
47671W        W90765  10.853  27.310  15.716  0.1612 -0.0396 -0.0647
47672W        W90766  10.619  27.495  18.475 -0.2300  0.2874  0.0897
47673W        W90767  11.401  27.735  17.106  0.0767 -0.3631 -0.1718
47674W        W90768   9.157  28.196  18.985  0.0421  0.0050 -0.1416
47675W        W90769   8.962  26.773  17.302  0.2264 -0.1617  0.0947
47676W        W90770   7.646  26.811  16.071 -0.2443  0.3699 -0.3453
47677W        W90771   7.700  29.265  19.261  0.0904  0.1611  0.2084
47678W        W90772  11.122  26.775  20.378  0.1190  0.0974  0.0676
47679W        W90773   6.710  27.694  17.424  0.0546  0.1293  0.0691
47680W        W90774  10.144  29.265  15.455  0.2060 -0.0285  0.2468
47681W        W90775   7.626  26.334  17.558 -0.0255  0.0133 -0.2942
47682W        W90776   8.687  26.749  18.400  0.3775 -0.1152 -0.2870
47683W        W90777  10.146  25.104  18.474  0.2326  0.0018 -0.2632
47684W        W90778   7.928  27.480  15.993 -0.0478 -0.1729 -0.2298
47685W        W90779   9.390  28.161  17.075 -0.2409  0.0892  0.1139
47686W        W90780   8.316  29.335  16.508 -0.3197  0.0390 -0.0663
47687W        W90781   7.356  29.107  17.095  0.0012  0.1122  0.0602
47688W        W90782   9.773  27.862  18.371 -0.1629  0.0876 -0.1550
47689W        W90783   7.161  26.635  16.730  0.1936 -0.4626  0.0542
47690W        W90784  10.250  26.593  17.468  0.0435  0.0301 -0.1311
47691W        W90785   7.488  27.278  19.184 -0.1961  0.0058  0.2259
47692W        W90786  11.498  27.010  19.451  0.1806  0.2991  0.4970
47693W        W90787   8.018  27.127  17.040 -0.3132  0.0890  0.1351
47694W        W90788  10.463  27.133  18.051  0.1443  0.1940 -0.1593
47695W        W90789   8.650  27.473  19.735 -0.1633 -0.0794  0.2690
47696W        W90790   8.517  28.751  17.797  0.0984  0.1882 -0.0102
47697W        W90791   8.826  27.113  16.319 -0.1793  0.1631 -0.3780
47698W        W90792  10.059  27.709  19.213  0.2654 -0.0984  0.0633
47699W        W90793   9.625  27.695  17.066  0.1219 -0.1962 -0.3043
47700W        W90794   9.589  28.112  19.303 -0.2013 -0.0731 -0.1277
47701W        W90795   6.522  25.940  17.167  0.1975 -0.0785  0.0880
47702W        W90796   9.500  26.198  16.242 -0.1030  0.0408  0.0159
47703W        W90797   7.299  26.923  17.562  0.0238 -0.0148  0.0774
47704W        W90798   8.653  27.822  19.272 -0.0484 -0.1514  0.0338
47705W        W90799  10.210  27.705  16.747  0.1366 -0.2463 -0.1497
47706W        W90800   6.933  26.965  17.958 -0.1607 -0.2761  0.0406
47707W        W90801  10.433  28.505  15.510  0.0264 -0.1442 -0.0829
47708W        W90802  10.047  27.291  16.997 -0.1092  0.2504  0.0172
47709W        W90803   7.896  30.189  15.661 -0.1339  0.0599 -0.0633
47710W        W90804  10.585  28.352  18.606  0.0498  0.2574 -0.2551
47711W        W90805   8.987  28.985  16.649 -0.2266 -0.1369  0.0706
47712W        W90806   7.094  27.005  18.807  0.1761 -0.2330 -0.0602
47713W        W90807   9.829  27.542  18.735 -0.2617 -0.1426 -0.1270
47714W        W90808  11.922  29.424  18.089 -0.3002  0.0894  0.2982
47715W        W90809   9.975  24.834  15.665 -0.1084 -0.4105  0.1169
47716W        W90810   7.954  27.882  18.226  0.1140 -0.1315 -0.3044
47717W        W90811   7.172  28.792  17.367  0.0764  0.1099  0.0726
47718W        W90812  11.452  26.857  17.421 -0.1452 -0.0178  0.1259
47719W        W90813  10.027  26.529  18.732 -0.2265 -0.0458 -0.0213
47720W        W90814   8.020  27.000  15.858 -0.1555 -0.2308 -0.0236
47721W        W90815   9.468  26.285  19.481 -0.0844 -0.4889  0.0432
47722W        W90816   9.118  28.620  17.152 -0.0145 -0.1062  0.2731
47723W        W90817   7.054  28.790  19.914 -0.0076 -0.4122 -0.3370
47724W        W90818   7.240  28.030  16.665  0.0602 -0.0625  0.1879
47725W        W90819   8.116  28.394  18.073  0.1316 -0.0350 -0.0939
47726W        W90820   9.729  28.111  18.833  0.1963  0.3227  0.1264
47727W        W90821   9.291  28.497  16.121 -0.0328 -0.1218 -0.2224
47728W        W90822  10.141  27.551  18.237 -0.1172 -0.1485  0.0162
47729W        W90823   9.268  27.230  17.569  0.5347  0.0620  0.4502
47730W        W90824  11.079  27.215  18.560  0.0829  0.1520  0.4566
47731W        W90825   8.390  27.648  18.004  0.2797  0.2337 -0.0510
47732W        W90826  11.020  26.405  16.088  0.3597  0.0487 -0.1015
47733W        W90827  10.175  25.445  16.292 -0.4397 -0.0074 -0.1129
47734W        W90828   7.470  27.681  18.398  0.1689 -0.3146  0.1493
47735W        W90829   7.029  27.857  16.197 -0.1267 -0.0159 -0.0663
47736W        W90830   7.812  28.228  16.070  0.0954 -0.0442  0.0143
47737W        W90831   7.661  28.257  16.627  0.0193  0.0658 -0.2166
47738W        W90832   7.537  26.759  18.979 -0.0766  0.0038 -0.1618
47739W        W90833   7.665  28.343  18.340 -0.1628 -0.2694 -0.1565
47740W        W90834   8.148  28.053  17.265 -0.0993  0.1989  0.1235
47741W        W90835   7.183  26.652  18.452  0.0897 -0.2344  0.0537
47742W        W90836   9.480  27.048  15.907 -0.1464 -0.5062 -0.1420
47743W        W90837   9.124  25.786  18.089  0.2344 -0.1348 -0.0263
47744W        W90838   6.621  26.823  17.533 -0.0554 -0.2643  0.1190
47745W        W90839   9.772  28.425  16.296 -0.0233  0.5085  0.2834
47746W        W90840   9.938  29.794  17.092  0.0565  0.1153 -0.0554
47747W        W90841   7.740  26.780  17.296  0.0256 -0.0136  0.3310
47748W        W90842  11.044  29.117  20.331  0.0062  0.0251 -0.0071
47749W        W90843   7.553  27.786  15.886  0.1011  0.0460 -0.2397
47750W        W90844   8.810  27.659  18.316 -0.1978  0.0955  0.2332
47751W        W90845   8.145  27.527  18.606 -0.0048 -0.1310  0.0085
47752W        W90846   7.360  26.382  18.004  0.2304 -0.3521  0.0528
47753W        W90847   9.686  26.664  18.229  0.0676 -0.0175 -0.0455
47754W        W90848   9.507  28.954  16.259 -0.1686 -0.2626  0.2530
47755W        W90849  10.821  29.183  16.052 -0.1775 -0.0527  0.2784
47756W        W90850   9.025  28.530  19.549  0.1428  0.3107 -0.0733
47757W        W90851   8.267  29.131  19.213  0.0987 -0.3119 -0.0386
47758W        W90852   6.744  25.212  19.714 -0.0324  0.0095  0.2101
47759W        W90853  10.216  28.447  16.756  0.1476  0.0117 -0.0067
47760W        W90854   8.343  28.826  18.235 -0.0467 -0.2011 -0.3626
47761W        W90855  11.375  28.180  16.303 -0.3980  0.2647 -0.2068
47762W        W90856  10.290  26.600  18.282  0.3010 -0.0024  0.0289
47763W        W90857   9.081  28.018  15.921 -0.1241  0.2281  0.0933
47764W        W90858   7.466  24.959  17.834  0.4604  0.0847  0.1662
47765W        W90859   8.849  28.108  18.559 -0.1224 -0.2391  0.0546
47766W        W90860  10.661  27.962  17.511 -0.0981  0.0026  0.3993
47767W        W90861   7.315  26.190  16.701 -0.1058 -0.0123 -0.0451
47768W        W90862   9.816  25.771  16.288  0.1782  0.1562 -0.1212
47769W        W90863   9.001  27.743  15.477  0.2325 -0.1054 -0.0716
47770W        W90864   5.592  27.893  19.139 -0.1989  0.0958  0.1388
47771W        W90865   9.671  27.526  17.586 -0.0950 -0.0009  0.0877
47772W        W90866   8.551  26.865  18.928 -0.0492 -0.1059  0.0343
47773W        W90867   8.580  27.751  18.764 -0.1261  0.4407 -0.2004
47774W        W90868   9.065  28.009  19.435 -0.2750  0.0567 -0.2502
47775W        W90869   7.968  27.618  17.126  0.0082 -0.0184 -0.0715
47776W        W90870  10.520  28.797  15.951  0.1275 -0.2434  0.0375
47777W        W90871  10.254  28.132  19.027  0.0620 -0.0503  0.2526
47778W        W90872  10.558  29.708  18.598  0.1354 -0.2125 -0.3175
47779W        W90873   7.597  31.006  18.954  0.1814  0.4703  0.2682
47780W        W90874  10.622  26.601  18.884  0.2865 -0.0185  0.0160
47781W        W90875   6.969  27.421  18.385 -0.1971 -0.0716  0.0930
47782W        W90876   8.485  28.124  17.695  0.1009  0.3180  0.0476
47783W        W90877   9.919  27.837  17.903 -0.1082 -0.0701 -0.3977
47784W        W90878   9.706  26.544  17.665  0.3105  0.0239 -0.0050
47785W        W90879   7.745  26.764  17.924 -0.3134 -0.1367  0.2169
47786W        W90880  10.329  25.837  15.974  0.1213 -0.0463  0.1191
47787W        W90881   7.885  28.792  18.465 -0.1378  0.0019  0.1053
47788W        W90882   8.959  27.185  18.175  0.0561  0.0555  0.0754
47789W        W90883   7.952  28.090  22.828 -0.2579 -0.1132  0.3612
47790W        W90884   8.317  27.093  21.762  0.2958 -0.2115  0.0243
47791W        W90885  10.910  26.303  18.088 -0.1084 -0.1310  0.0758
47792W        W90886  10.281  27.805  21.449 -0.1040  0.1055  0.2392
47793W        W90887   8.144  26.635  20.839  0.5347 -0.0171  0.0152
47794W        W90888  10.136  29.768  20.125 -0.0601 -0.1618 -0.0243
47795W        W90889   8.038  27.262  23.054  0.1151 -0.1891  0.0326
47796W        W90890  10.170  27.507  20.237  0.0176 -0.2718 -0.1976
47797W        W90891   9.579  29.188  21.011 -0.1257 -0.0811  0.1693
47798W        W90892  10.805  27.630  19.421 -0.1387 -0.1064 -0.3293
47799W        W90893   8.679  28.480  21.953  0.1817  0.0682  0.1363
47800W        W90894   8.123  27.990  21.075  0.0135 -0.2126  0.1331
47801W        W90895   7.800  25.456  18.236  0.2473  0.0158 -0.1125
47802W        W90896   8.347  25.399  21.693  0.0242 -0.2635 -0.1508
47803W        W90897  10.798  26.720  21.330 -0.2985 -0.3219  0.0614
47804W        W90898   8.393  27.456  20.864  0.0655 -0.0230  0.2452
47805W        W90899   8.777  25.648  21.569  0.3040 -0.0017 -0.2783
47806W        W90900   7.689  26.649  21.149 -0.1184  0.3038 -0.1302
47807W        W90901   8.660  28.052  19.903 -0.0117 -0.1109  0.0718
47808W        W90902   9.367  26.809  23.151 -0.6627  0.1641  0.1061
47809W        W90903  10.624  27.420  22.455 -0.0512  0.0867  0.1221
47810W        W90904   8.185  29.278  18.720 -0.1589  0.0636  0.0220
47811W        W90905   6.595  26.713  18.931  0.1193 -0.1064 -0.0136
47812W        W90906   7.948  28.017  20.611 -0.1503  0.0460 -0.0001
47813W        W90907   9.628  27.209  22.985 -0.2405  0.1218  0.1818
47814W        W90908   9.212  26.417  22.755 -0.0654  0.1089  0.1573
47815W        W90909  10.431  28.176  21.124 -0.0439 -0.2263  0.2450
47816W        W90910   9.088  29.281  21.620  0.1337 -0.2311  0.2758
47817W        W90911   9.252  28.203  19.892  0.2165 -0.0027  0.0068
47818W        W90912  10.245  27.378  24.564 -0.0568  0.1789 -0.2315
47819W        W90913   7.636  27.795  21.280 -0.0600 -0.0053  0.2242
47820W        W90914   6.632  28.066  22.394 -0.1208  0.3425  0.3304
47821W        W90915   7.526  29.139  20.120 -0.2421  0.3825  0.1307
47822W        W90916  10.141  28.405  21.560 -0.1365  0.1020 -0.1670
47823W        W90917   9.648  29.274  21.520  0.0269 -0.2132  0.0437
47824W        W90918   8.884  30.379  22.239  0.2573 -0.0996  0.0351
47825W        W90919   7.427  29.138  19.672 -0.0245  0.1998  0.1265
47826W        W90920   9.398  29.056  23.550 -0.3243  0.0290 -0.1137
47827W        W90921   6.664  29.218  23.508  0.4121 -0.2624  0.2153
47828W        W90922  10.074  27.518  23.237 -0.0154 -0.0719 -0.2650
47829W        W90923   8.919  28.078  20.879 -0.1800  0.0738 -0.3559
47830W        W90924   8.542  29.612  19.087  0.0453 -0.2728  0.1066
47831W        W90925   9.019  28.977  20.287 -0.0984  0.0692  0.1201
47832W        W90926   8.949  29.548  22.892  0.2195  0.2514  0.0049
47833W        W90927   6.384  28.565  21.393  0.3351 -0.0626 -0.0148
47834W        W90928  10.527  26.628  24.166  0.2949 -0.1576 -0.0100
47835W        W90929   8.635  29.229  18.410 -0.1092 -0.0482  0.1214
47836W        W90930   9.187  26.516  18.246 -0.0371  0.5881 -0.0750
47837W        W90931   8.870  26.120  19.779 -0.1617 -0.0775 -0.1001
47838W        W90932  10.440  27.055  20.087  0.0562  0.3066  0.3099
47839W        W90933   8.531  25.887  22.541 -0.1241 -0.1426  0.1261
47840W        W90934   8.513  28.888  20.255 -0.1403  0.1341  0.0530
47841W        W90935   8.312  26.842  22.832  0.0494 -0.0580  0.0595
47842W        W90936   9.767  29.800  22.273 -0.1164  0.2006 -0.0370
47843W        W90937   8.869  29.851  20.117  0.2796  0.0279 -0.2011
47844W        W90938   9.102  26.422  21.352  0.0403  0.1123  0.1709
47845W        W90939   7.097  28.267  22.674 -0.0406  0.0652 -0.1109
47846W        W90940   7.910  26.776  21.597 -0.0169  0.0929 -0.0896
47847W        W90941  10.323  30.680  19.728  0.1840  0.0260 -0.1371
47848W        W90942  10.133  29.318  21.554  0.0288 -0.2003  0.0949
47849W        W90943  10.424  29.175  21.160 -0.1356  0.0133  0.2741
47850W        W90944   7.521  27.990  20.304  0.0044 -0.0861  0.1583
47851W        W90945   7.053  27.434  22.575  0.0171 -0.2214 -0.0977
47852W        W90946   7.452  25.720  22.657 -0.1258  0.0384  0.1573
47853W        W90947   6.825  27.406  20.098 -0.1582 -0.0117 -0.2531
47854W        W90948  10.352  28.668  23.413  0.0566  0.2154 -0.0235
47855W        W90949   7.937  28.208  24.111  0.0995 -0.1344 -0.0622
47856W        W90950  11.220  26.637  20.924  0.0768  0.3200 -0.1870
47857W        W90951   8.870  29.764  21.628 -0.0373 -0.1930 -0.0951
47858W        W90952   9.744  28.677  22.277 -0.3402  0.1792 -0.0095
47859W        W90953  10.246  27.587  17.332 -0.0904  0.0352  0.1332
47860W        W90954   9.132  25.422  21.301 -0.3054  0.2582 -0.2797
47861W        W90955   9.102  26.288  20.812  0.1003  0.1700  0.0141
47862W        W90956   7.441  27.596  19.979  0.0398 -0.0483  0.1902
47863W        W90957   8.430  27.137  20.057 -0.0250  0.2753 -0.2531
47864W        W90958   9.817  29.403  21.965  0.2152  0.0296 -0.0072
47865W        W90959  10.122  27.037  20.574  0.1591  0.1398 -0.0711
47866W        W90960   7.218  29.104  21.561  0.3315 -0.1967 -0.3248
47867W        W90961   8.875  26.513  23.123  0.2596 -0.0369 -0.0846
47868W        W90962   8.684  28.588  23.529  0.3427 -0.0107  0.1191
47869W        W90963   8.318  29.645  20.486  0.2670 -0.3528 -0.0850
47870W        W90964   7.974  28.512  21.196  0.2432 -0.0770  0.0250
47871W        W90965   7.133  28.737  18.877  0.2361 -0.1742  0.2771
47872W        W90966   7.951  25.800  22.522 -0.1702  0.1049 -0.2498
47873W        W90967   9.111  28.533  21.049  0.1851 -0.0215 -0.2447
47874W        W90968   9.770  26.577  19.983  0.1922  0.3099 -0.0098
47875W        W90969   7.825  26.109  23.814  0.2478  0.1566  0.3638
47876W        W90970  11.077  24.845  22.098 -0.0437 -0.1023 -0.2625
47877W        W90971   8.227  28.649  20.705  0.0084  0.3067  0.1860
47878W        W90972  10.735  29.598  21.080  0.2890  0.3114 -0.2403
47879W        W90973  10.244  25.810  19.475  0.4303  0.3788  0.1040
47880W        W90974   9.784  28.948  19.471  0.1916 -0.1674  0.0492
47881W        W90975   8.183  27.525  21.443 -0.1892  0.0701 -0.1171
47882W        W90976   8.774  27.248  21.553 -0.2295  0.0645  0.1575
47883W        W90977   7.550  27.288  23.647 -0.1035 -0.0243  0.1594
47884W        W90978   6.781  25.833  22.054  0.0667 -0.1302  0.1838
47885W        W90979  10.212  27.242  22.694  0.1745  0.2012 -0.4321
47886W        W90980   7.795  25.840  20.617  0.3035 -0.2620  0.3524
47887W        W90981  10.429  27.936  19.572 -0.2264  0.3185  0.2421
47888W        W90982   8.262  28.398  20.222  0.0143  0.0887  0.0837
47889W        W90983   7.317  28.411  20.754  0.1924 -0.1583  0.2943
47890W        W90984   8.812  25.222  23.485  0.0767 -0.0372  0.1774
47891W        W90985   9.436  28.630  19.107 -0.0173 -0.2159 -0.0351
47892W        W90986  11.236  29.070  22.857 -0.1085  0.3142  0.0476
47893W        W90987   9.467  28.190  20.928  0.1843  0.2174  0.0609
47894W        W90988   8.261  26.576  21.921 -0.0240  0.0058 -0.0609
47895W        W90989   6.379  26.378  21.473  0.0615  0.1857  0.2569
47896W        W90990   6.326  28.075  21.528 -0.2180  0.0262  0.2283
47897W        W90991   8.444  29.657  21.798 -0.2691  0.0190 -0.0250
47898W        W90992   8.104  28.470  22.412  0.1481 -0.0382  0.1238
47899W        W90993  11.319  30.398  20.974 -0.0285 -0.0560 -0.1385
47900W        W90994   7.887  28.481  18.930 -0.3220  0.0473 -0.0819
47901W        W90995   8.137  27.650  22.713  0.3836  0.0219 -0.0656
47902W        W90996   8.869  26.906  22.497 -0.0846  0.3521 -0.3571
47903W        W90997   9.449  27.330  22.473 -0.5363 -0.4465 -0.0283
47904W        W90998   8.483  27.380  23.235  0.0083 -0.4737 -0.0622
47905W        W90999   7.724  26.824  19.419 -0.0077 -0.2399  0.0798
47906W        W91000   9.238  29.316  19.704  0.0634 -0.1662  0.0636
47907W        W91001   7.749  28.407  20.419 -0.0504  0.1962  0.1878
47908W        W91002   8.367  28.077  22.094  0.1720 -0.1312  0.5514
47909W        W91003   8.751  28.482  20.617 -0.1250  0.0133 -0.0742
47910W        W91004  10.987  26.621  21.787 -0.1358 -0.1084 -0.0948
47911W        W91005   7.748  27.702  23.915  0.1603 -0.0136 -0.1595
47912W        W91006   9.821  26.995  23.360 -0.0191  0.0937 -0.0175
47913W        W91007   7.356  27.882  19.349  0.1230  0.2708 -0.1177
47914W        W91008   7.296  28.644  23.511  0.1109 -0.3524 -0.0885
47915W        W91009   8.628  26.982  20.528 -0.0170  0.1229 -0.0988
47916W        W91010  11.024  26.320  19.093  0.0856 -0.0546  0.0390
47917W        W91011   9.824  28.862  21.846  0.1929  0.1677  0.0993
47918W        W91012   9.033  27.694  20.005  0.2381 -0.5054  0.0397
47919W        W91013   8.652  26.620  20.894 -0.1648 -0.0113 -0.2527
47920W        W91014   9.186  26.760  19.185  0.2310  0.1284  0.0839
47921W        W91015   7.139  27.876  22.359 -0.1760 -0.0639 -0.3270
47922W        W91016   9.350  27.166  20.955  0.1608  0.0922 -0.1436
47923W        W91017   8.500  28.366  21.057  0.1944 -0.1048  0.1747
47924W        W91018   7.926  26.445  19.117  0.3100  0.0693  0.0163
47925W        W91019   9.850  27.982  20.569  0.2201 -0.0883  0.2803
47926W        W91020   7.233  27.973  21.085 -0.0954 -0.0227  0.1520
47927W        W91021  10.075  28.671  24.229 -0.0636 -0.0013 -0.0055
47928W        W91022  10.337  28.693  21.146  0.0617  0.1615  0.1234
47929W        W91023   8.297  25.643  22.899 -0.1118  0.0895  0.0828
47930W        W91024   8.192  27.369  19.558 -0.2503 -0.2680 -0.1294
47931W        W91025   9.672  26.821  21.510 -0.1504 -0.3600  0.6085
47932W        W91026   5.063  28.522  17.170  0.0943 -0.1857 -0.0493
47933W        W91027   9.579  26.539  21.915  0.1030  0.0337  0.0234
47934W        W91028   9.034  26.130  21.809  0.1580 -0.1101  0.1766
47935W        W91029  10.308  26.954  23.573  0.3576 -0.3190  0.4805
47936W        W91030  10.475  28.972  24.321  0.3873 -0.6445  0.0447
47937W        W91031   9.965  28.105  19.585 -0.1902  0.2738  0.2068
47938W        W91032   9.761  26.431  22.441 -0.1836 -0.0816  0.3290
47939W        W91033   8.190  27.414  20.417  0.1668 -0.0874 -0.1032
47940W        W91034   9.351  25.138  23.241 -0.0722  0.2429 -0.1934
47941W        W91035   9.196  28.174  21.860  0.1235 -0.0798 -0.0378
47942W        W91036   6.476  30.001  22.451 -0.2699 -0.0293 -0.1942
47943W        W91037   9.362  28.282  22.332  0.2191  0.1339  0.1501
47944W        W91038   8.801  28.498  20.087 -0.0587 -0.1043  0.2440
47945W        W91039   9.548  27.485  24.482  0.1754  0.1210 -0.0638
47946W        W91040   8.824  27.214  20.920  0.4038  0.1212 -0.0276
47947W        W91041   7.951  28.071  20.110  0.0433 -0.2165 -0.2630
47948W        W91042  10.407  28.472  19.518  0.1014  0.1342 -0.0435
47949W        W91043   8.222  25.564  22.195 -0.1574 -0.1931  0.1313
47950W        W91044   8.077  29.118  22.670  0.0624 -0.0400 -0.0416
47951W        W91045   7.369  29.656  18.534 -0.2996  0.2473  0.0630
47952W        W91046   9.861  28.137  22.355  0.0825  0.1251  0.1636
47953W        W91047   7.740  28.783  20.852  0.3074  0.2080  0.5264
47954W        W91048  10.098  25.313  22.332 -0.1188  0.0042  0.0181
47955W        W91049   9.364  28.869  21.328 -0.1202  0.1718 -0.4635
47956W        W91050   7.790  27.632  19.489 -0.2027  0.0004 -0.0295
47957W        W91051   7.227  26.846  21.255 -0.0587 -0.0237 -0.0834
47958W        W91052   9.974  27.501  21.216 -0.0588  0.0264 -0.1051
47959W        W91053   9.679  27.676  20.169  0.2976 -0.1751 -0.0972
47960W        W91054   7.966  26.589  22.520  0.1573 -0.0392  0.2501
47961W        W91055   8.277  26.317  21.235 -0.0610 -0.2095 -0.0393
47962W        W91056   7.587  29.110  22.719  0.0935 -0.1317 -0.2682
47963W        W91057  10.146  26.337  21.555 -0.0347 -0.1168 -0.2014
47964W        W91058   9.884  26.964  18.749  0.2607  0.2644  0.0642
47965W        W91059   9.136  28.671  22.113  0.2314  0.3381  0.0671
47966W        W91060   9.955  27.327  23.736  0.1110  0.2959  0.2435
47967W        W91061   5.935  27.380  19.783 -0.0475  0.0890 -0.0378
47968W        W91062   9.348  27.712  22.899 -0.1701 -0.2002  0.0972
47969W        W91063   7.978  27.087  20.726  0.0728  0.1062  0.0168
47970W        W91064   6.774  26.911  20.222 -0.1893 -0.0258  0.0700
47971W        W91065  10.644  29.210  20.684  0.2994  0.0548  0.4261
47972W        W91066   7.014  27.345  20.908 -0.1978  0.1879 -0.0860
47973W        W91067   7.245  28.410  20.248  0.2676 -0.0828 -0.0161
47974W        W91068   6.638  26.923  22.681 -0.2666 -0.0885  0.2069
47975W        W91069   9.859  26.932  22.277  0.1321 -0.1317  0.2344
47976W        W91070   9.186  27.178  22.087 -0.2723 -0.0247  0.2013
47977W        W91071   8.286  25.812  21.343 -0.4158 -0.0219 -0.1136
47978W        W91072   9.360  27.997  20.455  0.2995  0.2524 -0.0221
47979W        W91073  10.521  26.503  21.862  0.0093  0.1549 -0.0141
47980W        W91074  10.254  26.865  23.041 -0.0303  0.2289 -0.0051
47981W        W91075   8.413  29.007  23.474 -0.2600 -0.0150  0.1103
47982W        W91076   9.168  25.920  21.392 -0.2549 -0.0653 -0.0664
47983W        W91077  10.814  28.021  20.740  0.2852  0.0988  0.0913
47984W        W91078   9.134  27.194  24.421  0.0926  0.2247  0.0968
47985W        W91079   9.302  27.986  21.370  0.2113  0.0349  0.3396
47986W        W91080   9.043  29.843  21.158 -0.1087 -0.0502 -0.1240
47987W        W91081   8.211  28.576  19.249  0.2503  0.1877 -0.0435
47988W        W91082   8.232  26.181  22.802 -0.1322  0.1726  0.0522
47989W        W91083   7.733  28.232  23.251 -0.0702 -0.4399  0.2535
47990W        W91084   7.347  29.022  17.782  0.1916 -0.0051 -0.0520
47991W        W91085   7.388  28.263  22.009 -0.1867 -0.0068  0.1998
47992W        W91086  11.631  26.646  20.616 -0.0723 -0.0240  0.3155
47993W        W91087  10.853  28.170  19.351 -0.2388 -0.1189 -0.0133
47994W        W91088  10.348  26.772  20.901 -0.1655 -0.5971  0.0688
47995W        W91089   8.902  28.025  22.195  0.0788  0.3558 -0.0894
47996W        W91090   8.854  28.079  20.401 -0.1349 -0.3432  0.3371
47997W        W91091   8.805  26.914  25.442  0.1639 -0.0325 -0.1097
47998W        W91092   7.762  26.780  22.929 -0.0110 -0.2562 -0.1432
47999W        W91093  10.240  29.059  22.166  0.3044 -0.0067  0.2090
48000W        W91094   7.336  27.541  21.975 -0.0907  0.3494 -0.3353
48001W        W91095   9.031  30.338  24.230 -0.2649 -0.1467 -0.1761
48002W        W91096   7.204  26.928  22.334  0.5375  0.0747 -0.1489
48003W        W91097   9.007  26.638  19.645 -0.2293  0.1876 -0.3234
48004W        W91098   7.360  26.475  19.464 -0.1015  0.2733 -0.1683
48005W        W91099   8.857  28.231  21.418 -0.0276 -0.3277  0.2995
48006W        W91100   8.572  27.848  21.280  0.2597 -0.2273 -0.0912
48007W        W91101  10.363  28.731  20.666  0.1220  0.1328 -0.0595
48008W        W91102   9.537  27.435  20.544 -0.1686  0.0543 -0.3113
48009W        W91103   8.705  28.951  22.010 -0.1637  0.1578  0.2495
48010W        W91104   9.029  27.567  21.256  0.3825  0.0976 -0.0462
48011W        W91105   8.258  27.901  19.634  0.1041 -0.0902  0.0196
48012W        W91106   7.513  28.776  21.325  0.0211  0.1907 -0.2310
48013W        W91107   8.529  25.633  23.370 -0.0409 -0.1483  0.1270
48014W        W91108  10.325  26.951  21.349 -0.2076  0.2662 -0.0925
48015W        W91109   9.144  26.632  22.210  0.1238  0.0055 -0.1509
48016W        W91110   8.334  27.013  22.257  0.1237  0.1295 -0.1929
48017W        W91111   9.363  27.774  22.218  0.1287 -0.1620 -0.0776
48018W        W91112   7.091  26.056  22.535  0.0991  0.0286 -0.2840
48019W        W91113   9.404  26.079  24.797 -0.0962  0.3087  0.1512
48020W        W91114  10.307  30.615  22.545  0.2255  0.0054  0.3333
48021W        W91115  10.304  27.410  18.863 -0.0890  0.0536 -0.2843
48022W        W91116  10.713  27.866  22.955  0.1092  0.0465 -0.2135
48023W        W91117  11.605  26.995  20.193 -0.3635  0.1153  0.0118
48024W        W91118  10.489  27.341  20.580  0.2912  0.1621  0.2343
48025W        W91119   7.119  27.823  21.521 -0.0380 -0.0913 -0.4555
48026W        W91120   8.754  28.509  22.439 -0.0969  0.3323  0.1524
48027W        W91121   8.830  26.819  20.090  0.0826 -0.0019  0.0891
48028W        W91122   9.466  26.398  24.118  0.0372 -0.0638 -0.0315
48029W        W91123   8.622  28.804  19.404  0.1568 -0.0286 -0.2049
48030W        W91124   9.286  29.669  21.907 -0.0772 -0.0493 -0.1830
48031W        W91125   9.674  26.260  21.421 -0.0406 -0.2193  0.0644
48032W        W91126   7.508  26.604  22.111 -0.1798  0.1814 -0.0485
48033W        W91127   7.744  27.615  25.021  0.0567  0.0083 -0.2289
48034W        W91128   8.395  28.649  19.825 -0.0152 -0.2112 -0.1334
48035W        W91129   9.364  26.862  20.107 -0.0633 -0.1146  0.2990
48036W        W91130   9.013  28.653  21.594 -0.2978 -0.2454  0.0181
48037W        W91131  11.413  28.850  24.068  0.3080  0.2142  0.0300
48038W        W91132   7.689  26.107  19.555  0.5960 -0.0036  0.0814
48039W        W91133   8.969  28.083  22.715  0.0448 -0.1433 -0.1449
48040W        W91134   7.833  28.897  19.567  0.1305 -0.0916  0.1208
48041W        W91135   9.950  26.516  21.102  0.0221 -0.1035  0.1994
48042W        W91136   7.497  28.259  21.535 -0.2093 -0.0181 -0.0863
48043W        W91137   6.906  27.321  22.153  0.1062 -0.0513  0.1218
48044W        W91138   7.883  27.550  20.851 -0.1432  0.1290 -0.1542
48045W        W91139   8.632  26.316  22.148  0.2735 -0.0650 -0.1961
48046W        W91140   8.272  28.123  21.553 -0.1204  0.1843  0.0823
48047W        W91141   8.469  27.915  20.686 -0.1096  0.0734  0.2163
48048W        W91142   9.965  28.327  23.241 -0.0341  0.0671  0.3123
48049W        W91143   9.496  28.185  22.783  0.2530  0.0401 -0.1119
48050W        W91144   8.372  28.571  21.567  0.3293 -0.0889 -0.0279
48051W        W91145   9.542  28.983  20.422  0.1222  0.2616 -0.0471
48052W        W91146  11.088  27.481  21.391  0.2994  0.2780 -0.0299
48053W        W91147   5.506  27.853  23.108 -0.0001  0.2636  0.1771
48054W        W91148   6.041  28.564  24.113 -0.0668  0.1868  0.2390
48055W        W91149   9.372  27.815  23.648 -0.0127 -0.2908 -0.0473
48056W        W91150   8.938  27.190  19.037 -0.0031  0.0944  0.0165
48057W        W91151   9.172  26.895  21.707  0.0966  0.3381  0.0757
48058W        W91152   8.630  28.970  20.771 -0.0508  0.1867  0.2307
48059W        W91153   7.588  29.542  23.503 -0.1231 -0.1218 -0.2329
48060W        W91154   7.215  27.611  23.056  0.3486  0.2702 -0.1652
48061W        W91155   7.645  29.825  19.366 -0.0636  0.1579  0.0984
48062W        W91156  10.755  28.267  19.855  0.0595 -0.1892  0.2637
48063W        W91157   7.798  29.592  20.339  0.0272  0.1696  0.1063
48064W        W91158   9.142  29.430  20.369  0.1551 -0.0172 -0.1489
48065W        W91159   7.835  26.250  21.820 -0.0000 -0.3698 -0.0500
48066W        W91160   7.151  28.859  20.893  0.0681 -0.2570  0.0169
48067W        W91161   5.398  28.350  20.059  0.0898 -0.0497 -0.2404
48068W        W91162  10.382  29.302  18.854  0.0816  0.1654 -0.1845
48069W        W91163   8.545  30.057  20.770  0.1171 -0.1591  0.1389
48070W        W91164  10.200  30.371  24.393 -0.4125 -0.1409  0.0190
48071W        W91165  10.467  25.399  19.405  0.0469  0.1521 -0.0245
48072W        W91166   9.119  27.166  20.440 -0.2602  0.2097  0.1907
48073W        W91167   9.567  26.943  20.599 -0.1042  0.1270  0.1379
48074W        W91168  10.192  29.676  23.272  0.0634 -0.1642 -0.0208
48075W        W91169   9.196  27.658  21.761  0.1757  0.0328  0.0575
48076W        W91170  10.042  26.903  19.665  0.0473 -0.3336 -0.3804
48077W        W91171   7.845  28.032  22.351  0.1114  0.1873  0.1317
48078W        W91172  10.050  25.324  23.963 -0.3167 -0.0751  0.1361
48079W        W91173   6.877  29.189  24.006  0.3582  0.0958 -0.0191
48080W        W91174  10.535  27.490  19.893  0.0552 -0.0031  0.0881
48081W        W91175   6.761  26.942  21.390  0.0593 -0.0488 -0.0286
48082W        W91176   8.482  27.695  21.774 -0.2152  0.0402 -0.0765
48083W        W91177   9.690  26.058  24.451 -0.2061  0.1784 -0.0082
48084W        W91178   9.027  27.612  20.728  0.1381 -0.1736  0.0442
48085W        W91179   9.919  27.571  22.224 -0.4845  0.1003 -0.1214
48086W        W91180   8.972  29.781  19.612  0.0794 -0.0693 -0.0789
48087W        W91181   8.628  29.481  21.294 -0.0987 -0.1902  0.1599
48088W        W91182   8.231  29.233  22.076  0.1226  0.0933  0.2171
48089W        W91183   6.639  27.248  20.559  0.2156 -0.0736  0.1506
48090W        W91184  11.067  27.538  20.875  0.1093 -0.0059 -0.2228
48091W        W91185   9.676  26.548  23.413 -0.0557 -0.0064  0.0967
48092W        W91186  10.540  26.026  22.738 -0.2408 -0.0194 -0.1605
48093W        W91187   7.666  27.350  20.357 -0.1004  0.3481  0.0299
48094W        W91188   9.497  27.635  21.037  0.5281  0.5312  0.0982
48095W        W91189   9.824  27.579  22.714  0.0518 -0.4739 -0.2151
48096W        W91190   7.611  28.438  22.542 -0.2270  0.2443 -0.1386
48097W        W91191   8.280  25.789  20.365  0.3938  0.1394  0.2418
48098W        W91192  11.006  28.717  24.330  0.0939 -0.1227 -0.0293
48099W        W91193   8.182  26.745  18.073  0.2123 -0.1174 -0.1605
48100W        W91194   9.755  29.430  23.296 -0.1751  0.1481  0.1013
48101W        W91195   7.765  26.123  21.402  0.3332  0.1224 -0.0822
48102W        W91196   8.473  26.234  20.138  0.1318 -0.0916  0.1343
48103W        W91197   7.474  27.042  20.743 -0.0540 -0.0851 -0.0917
48104W        W91198   8.632  26.488  22.633 -0.4027 -0.0084  0.0035
48105W        W91199   9.759  28.187  21.894 -0.0942 -0.0806  0.0973
48106W        W91200   6.655  26.499  20.453  0.1184  0.3396  0.4840
48107W        W91201  11.050  30.432  19.309 -0.0382  0.0686  0.1621
48108W        W91202   9.706  27.934  23.158 -0.0119  0.0231 -0.0918
48109W        W91203   9.460  29.882  20.295 -0.0338  0.1512  0.1344
48110W        W91204   8.970  26.853  21.211  0.0130  0.2819 -0.3056
48111W        W91205  10.660  30.568  20.335 -0.0353  0.2218 -0.2271
48112W        W91206   7.351  26.386  21.628  0.0274 -0.1361  0.2650
48113W        W91207  10.231  29.645  21.900 -0.0983 -0.1222  0.2923
48114W        W91208  11.865  29.160  20.317  0.1031 -0.3414  0.1590
48115W        W91209   8.253  25.466  20.790 -0.3626  0.3560 -0.0966
48116W        W91210   8.517  27.688  22.404  0.0226  0.0500  0.0766
48117W        W91211   7.637  28.222  21.018 -0.0547  0.2122  0.0260
48118W        W91212   9.772  27.168  21.855  0.2961  0.0919  0.0459
48119W        W91213  11.012  27.720  22.588 -0.1123  0.0026 -0.1395
48120W        W91214   8.646  29.348  19.481  0.0943  0.0987 -0.2323
48121W        W91215   9.937  25.784  24.062 -0.0413 -0.0873 -0.0039
48122W        W91216   8.915  28.529  23.028  0.1861  0.1079 -0.0185
48123W        W91217   7.521  29.030  23.229 -0.2245  0.0669  0.1393
48124W        W91218   6.930  29.300  19.952 -0.2858 -0.1865 -0.2918
48125W        W91219   9.738  27.763  21.645 -0.1136 -0.1699 -0.1763
48126W        W91220   8.291  29.151  19.766 -0.1536  0.0492 -0.1481
48127W        W91221   9.617  29.698  19.224 -0.0751  0.1132  0.0515
48128W        W91222  10.828  29.603  20.222 -0.2112 -0.2274 -0.2359
48129W        W91223   8.756  26.876  21.991 -0.0367 -0.1620  0.3186
48130W        W91224   9.857  28.528  20.405  0.2994  0.0579  0.0324
48131W        W91225   8.896  25.491  23.025  0.1415 -0.1873  0.3778
48132W        W91226  11.477  26.311  21.889 -0.3159  0.3489  0.0592
48133W        W91227  10.558  26.752  19.522 -0.2746 -0.1993 -0.2329
48134W        W91228   8.397  28.875  22.404  0.0729  0.0252 -0.0289
48135W        W91229   5.708  27.964  19.803  0.3031 -0.1050  0.0830
48136W        W91230   7.614  28.625  19.899 -0.2249  0.0420 -0.0089
48137W        W91231   6.407  27.593  20.844 -0.0864 -0.0913  0.3607
48138W        W91232   8.430  25.351  23.808  0.0133 -0.3649 -0.0824
48139W        W91233   6.650  27.986  21.926  0.4585  0.0984 -0.2607
48140W        W91234   8.555  27.278  22.730 -0.0165 -0.0400 -0.1554
48141W        W91235   8.744  25.815  20.205  0.3618  0.1534 -0.0755
48142W        W91236   8.372  27.824  20.200 -0.0643  0.1211  0.0065
48143W        W91237   7.643  26.144  22.362  0.0459 -0.0141 -0.1413
48144W        W91238   6.735  25.363  21.104 -0.0172 -0.0754  0.1744
48145W        W91239  10.510  29.205  20.139 -0.2695  0.0453 -0.1594
48146W        W91240  11.191  30.149  20.112  0.3550 -0.1477  0.3122
48147W        W91241   7.804  27.166  21.231  0.0276 -0.1779 -0.1005
48148W        W91242  11.272  29.578  22.477 -0.2513 -0.2139  0.2011
48149W        W91243   7.241  29.179  19.005 -0.1844 -0.0595  0.2026
48150W        W91244   9.524  26.048  23.239 -0.1961  0.2484  0.0792
48151W        W91245   9.921  27.266  24.251 -0.0384 -0.1524  0.0165
48152W        W91246   6.938  26.122  21.651 -0.0364  0.0828 -0.2334
48153W        W91247   8.184  25.236  22.685  0.2226 -0.3522  0.3735
48154W        W91248   8.792  28.982  19.840 -0.4760 -0.0193 -0.2649
48155W        W91249  10.021  28.617  19.832  0.3292  0.1453 -0.0581
48156W        W91250   7.930  28.340  21.924  0.0353 -0.0997 -0.2410
48157W        W91251   8.299  28.642  22.922 -0.1674  0.2549 -0.0714
48158W        W91252   8.162  24.800  23.086  0.1058 -0.0469 -0.2113
48159W        W91253   9.516  27.794  19.693 -0.1397  0.2484  0.0695
48160W        W91254   7.519  27.894  22.752  0.0711  0.3516 -0.2731
48161W        W91255  10.813  27.164  19.714 -0.2562  0.2421  0.1502
48162W        W91256  11.302  27.004  23.066 -0.0428  0.0354 -0.3359
48163W        W91257   9.084  27.218  19.812 -0.1649 -0.0235 -0.0020
48164W        W91258   7.953  27.184  22.604 -0.2950  0.3490  0.4500
48165W        W91259   9.596  27.459  23.379  0.0212  0.1508 -0.2497
48166W        W91260  10.200  27.930  22.061 -0.2832 -0.0576  0.1656
48167W        W91261   7.458  26.956  21.777 -0.2216 -0.0816 -0.1861
48168W        W91262  10.804  26.538  20.762  0.2382  0.1405  0.3825
48169W        W91263   8.431  26.654  19.829 -0.1708  0.2312  0.0535
48170W        W91264   7.928  28.841  21.541 -0.0891  0.0378  0.0285
48171W        W91265   8.061  26.214  20.492  0.0206 -0.3800  0.1984
48172W        W91266  10.501  27.412  23.125  0.1703  0.0478 -0.2923
48173W        W91267   9.203  28.621  20.469  0.0329 -0.1943  0.0961
48174W        W91268  11.016  29.442  21.990  0.0831  0.0471 -0.0454
48175W        W91269   8.226  25.950  20.890  0.2453  0.0818 -0.1230
48176W        W91270  12.582  28.239  19.705 -0.0373 -0.2707 -0.1967
48177W        W91271   9.976  30.173  21.270 -0.0649 -0.1718  0.0219
48178W        W91272  11.040  29.518  23.452  0.2215  0.1209  0.4989
48179W        W91273  10.805  28.721  21.460  0.2643  0.2171  0.1228
48180W        W91274   9.832  27.991  21.192 -0.1447  0.1819  0.0864
48181W        W91275   7.612  26.153  22.865 -0.1928  0.0338  0.1722
48182W        W91276   7.944  28.819  20.217 -0.0013 -0.1512  0.0971
48183W        W91277   8.128  28.763  21.984 -0.3947  0.0060 -0.2054
48184W        W91278  10.146  28.462  22.065 -0.1009  0.1173 -0.0108
48185W        W91279   9.062  27.224  22.930  0.1463 -0.1213 -0.1359
48186W        W91280   9.243  25.734  20.902  0.0458  0.2815  0.3450
48187W        W91281   7.693  30.650  21.672  0.1841  0.1896  0.0133
48188W        W91282   8.744  27.374  22.098 -0.2251 -0.1567 -0.0765
48189W        W91283   6.609  27.312  26.379 -0.0210 -0.4972 -0.2890
48190W        W91284   8.145  26.983  23.906  0.0129  0.0953  0.1729
48191W        W91285   9.136  27.715  24.337 -0.3547 -0.0857 -0.1486
48192W        W91286  10.698  29.547  23.846 -0.1252  0.4154  0.1007
48193W        W91287   8.692  26.515  25.060  0.1122  0.5282  0.0378
48194W        W91288  10.232  30.321  25.366 -0.1466  0.1751  0.0458
48195W        W91289   9.861  27.271  27.195  0.1527 -0.0707  0.1348
48196W        W91290  10.300  29.592  24.142  0.0893  0.2083 -0.4351
48197W        W91291   9.729  30.464  25.222 -0.0624 -0.1740  0.2542
48198W        W91292   9.319  28.332  23.283  0.5564 -0.2462  0.4360
48199W        W91293   8.007  27.176  25.173  0.1076  0.3591 -0.1868
48200W        W91294   7.405  28.396  25.775  0.0115  0.0250 -0.0457
48201W        W91295   8.990  26.155  24.021  0.0285  0.1397 -0.1646
48202W        W91296   7.257  25.090  26.611 -0.2670  0.3690 -0.0033
48203W        W91297  10.523  27.927  26.171  0.1538 -0.1988 -0.0152
48204W        W91298   6.655  28.005  25.119  0.0320  0.1300  0.0021
48205W        W91299   9.042  26.013  25.188 -0.0439  0.0062  0.0126
48206W        W91300   9.931  27.848  23.562 -0.0987 -0.3208 -0.0479
48207W        W91301   8.484  29.327  25.245  0.2463 -0.3405 -0.1341
48208W        W91302  10.390  27.343  26.942 -0.1591  0.1752 -0.0424
48209W        W91303  10.382  26.422  27.155  0.2654  0.2373  0.0681
48210W        W91304  10.330  28.538  24.687  0.0387  0.0028 -0.2532
48211W        W91305   7.402  27.512  25.508 -0.0768 -0.1740 -0.0969
48212W        W91306   8.049  26.340  25.641 -0.1614  0.0376 -0.1103
48213W        W91307   7.104  27.043  27.127 -0.3709 -0.1027  0.1189
48214W        W91308  11.480  27.265  27.080  0.0167  0.0472 -0.2294
48215W        W91309  10.726  28.815  24.787 -0.0576 -0.1018  0.3028
48216W        W91310   9.746  29.641  24.168 -0.1783  0.2459  0.1671
48217W        W91311   9.890  29.032  25.696 -0.1239  0.2284  0.1038
48218W        W91312   9.748  28.842  27.548 -0.1619  0.0771 -0.2049
48219W        W91313   8.440  29.356  24.364  0.1195 -0.2288  0.0019
48220W        W91314   9.069  29.639  26.100 -0.0739  0.0546  0.1504
48221W        W91315   9.819  27.833  26.138 -0.1422 -0.1512  0.1111
48222W        W91316  10.713  29.372  24.695  0.2682  0.0011 -0.0306
48223W        W91317  10.210  29.890  26.795  0.1034  0.4239 -0.2095
48224W        W91318   8.617  28.949  28.321  0.0013  0.0899 -0.3064
48225W        W91319   7.758  29.095  23.718  0.1235 -0.2789 -0.0825
48226W        W91320   9.262  29.346  26.873 -0.2143  0.0807 -0.1352
48227W        W91321   7.926  29.811  25.707 -0.3008 -0.0911 -0.0068
48228W        W91322   8.403  28.210  25.517  0.0836  0.0162  0.0982
48229W        W91323   9.791  27.469  24.989  0.0281 -0.1219 -0.1387
48230W        W91324   8.675  28.084  23.216  0.2153  0.0281  0.0158
48231W        W91325  10.311  29.366  26.951  0.0116  0.0066 -0.0143
48232W        W91326   9.191  27.811  26.942 -0.0349 -0.3437 -0.0103
48233W        W91327   6.542  28.669  25.240 -0.0692 -0.0532 -0.1793
48234W        W91328  10.453  26.796  28.801 -0.0336 -0.0952  0.3018
48235W        W91329   8.733  29.426  23.390  0.0133 -0.1589 -0.0123
48236W        W91330   9.225  28.230  24.203  0.3006 -0.1152 -0.1787
48237W        W91331   9.058  27.209  23.420  0.3170  0.1056 -0.1508
48238W        W91332   9.619  28.289  23.679 -0.1686  0.1103  0.1637
48239W        W91333   8.630  26.682  25.850  0.2708  0.3179 -0.0927
48240W        W91334   9.511  28.800  25.407 -0.2938  0.0996 -0.4558
48241W        W91335   8.526  26.216  25.875 -0.1341  0.2904  0.0100
48242W        W91336  10.012  29.356  26.146  0.0217 -0.0852  0.1122
48243W        W91337   8.610  28.873  26.310 -0.2294  0.2289  0.0179
48244W        W91338   8.512  25.084  25.229  0.1441  0.0043  0.0099
48245W        W91339   7.028  27.565  27.084 -0.2022  0.0864  0.2102
48246W        W91340   8.332  27.070  25.646 -0.2257  0.0367  0.1091
48247W        W91341   9.958  29.503  22.861 -0.2797 -0.3440 -0.0593
48248W        W91342  10.941  30.238  24.619 -0.1995  0.1091 -0.2250
48249W        W91343   8.470  29.480  22.450 -0.0197 -0.1317  0.0755
48250W        W91344   7.081  27.426  23.555  0.1839 -0.1800  0.0629
48251W        W91345   8.028  26.744  27.163 -0.2846 -0.2982 -0.0592
48252W        W91346   7.793  26.371  27.503  0.3188 -0.2584  0.1452
48253W        W91347   8.187  26.501  23.718  0.3951  0.2231  0.0617
48254W        W91348  10.832  29.122  27.221  0.2425 -0.0178 -0.1119
48255W        W91349   6.174  26.914  26.885 -0.1812 -0.2652  0.2007
48256W        W91350   9.643  27.865  24.044  0.0481  0.1896 -0.0946
48257W        W91351   8.139  27.945  25.861  0.1065  0.0371  0.1045
48258W        W91352   9.337  29.085  27.423 -0.1013  0.0061 -0.1799
48259W        W91353  10.562  29.316  23.420  0.1126  0.1173 -0.2180
48260W        W91354  10.446  26.308  24.588 -0.1664 -0.1003 -0.2857
48261W        W91355  10.567  26.072  26.811 -0.0793  0.0624  0.1396
48262W        W91356   7.647  27.529  22.424 -0.1041 -0.1821 -0.0534
48263W        W91357   9.370  27.856  25.360 -0.0873  0.3903 -0.1996
48264W        W91358   9.646  30.492  25.991  0.0769  0.0313 -0.3243
48265W        W91359   9.642  28.841  24.350 -0.0057  0.0428  0.2560
48266W        W91360   7.080  28.073  26.206  0.2407 -0.2095  0.1554
48267W        W91361   8.935  27.205  26.539 -0.0008 -0.2607 -0.1668
48268W        W91362   8.088  28.559  27.626 -0.1448  0.1121  0.0991
48269W        W91363   8.187  29.177  24.813  0.2608  0.1268 -0.0004
48270W        W91364   7.743  28.126  26.123 -0.3755 -0.1134 -0.1256
48271W        W91365   8.519  27.747  23.612  0.0840  0.3798 -0.2171
48272W        W91366   8.954  26.316  27.675  0.1387 -0.0464 -0.1620
48273W        W91367   7.353  29.435  24.473 -0.0947 -0.2792 -0.1214
48274W        W91368   9.580  26.908  24.244 -0.1870 -0.1710  0.1922
48275W        W91369   8.155  26.805  26.659  0.1311 -0.0525 -0.0746
48276W        W91370   9.839  26.262  26.331 -0.2146  0.0707 -0.0068
48277W        W91371   8.165  29.603  26.222  0.0257  0.1113  0.0072
48278W        W91372  10.062  30.046  24.043 -0.0722  0.0430 -0.0628
48279W        W91373  10.192  29.350  24.600 -0.0708 -0.0753  0.0226
48280W        W91374  10.171  29.157  23.213  0.0497 -0.3330  0.2082
48281W        W91375   6.628  26.974  25.843  0.0847 -0.1350  0.0191
48282W        W91376   9.003  25.185  25.068  0.3518  0.0188 -0.0850
48283W        W91377   8.546  26.497  27.983  0.1337 -0.4800  0.2568
48284W        W91378   7.895  25.347  25.961 -0.3202  0.0003 -0.0790
48285W        W91379   9.264  27.238  24.979  0.0973 -0.1097 -0.0062
48286W        W91380   8.769  24.139  24.094  0.0975 -0.0698 -0.1212
48287W        W91381  10.047  27.374  26.009  0.2137  0.2562  0.0787
48288W        W91382   7.985  27.329  25.953 -0.0976 -0.2550  0.1439
48289W        W91383   7.284  29.187  25.107  0.2809  0.1537  0.2506
48290W        W91384  11.052  27.521  26.089  0.0307  0.0774 -0.0408
48291W        W91385   8.394  28.195  24.309 -0.2284 -0.0451 -0.0378
48292W        W91386  11.961  28.858  26.155 -0.0142  0.1858  0.0393
48293W        W91387   9.428  29.155  25.015 -0.0294  0.2600  0.2562
48294W        W91388   7.035  25.060  25.985  0.2132 -0.5387 -0.2471
48295W        W91389   7.420  25.205  24.690  0.0331 -0.1792  0.3796
48296W        W91390   6.759  29.290  24.959 -0.2404  0.0899  0.1022
48297W        W91391   8.555  29.043  25.742  0.1943  0.2040 -0.4690
48298W        W91392   8.734  25.625  24.318  0.1502 -0.2253  0.0821
48299W        W91393  10.435  30.572  26.259 -0.1026  0.1943 -0.3178
48300W        W91394   9.875  28.008  25.619 -0.0399  0.2643  0.1446
48301W        W91395   7.021  27.433  25.804  0.2471 -0.0325 -0.0074
48302W        W91396  10.232  26.479  26.663 -0.0553 -0.2021  0.0745
48303W        W91397   9.708  28.358  27.994 -0.0817 -0.2144  0.6368
48304W        W91398  10.769  28.694  26.811 -0.3752 -0.1875 -0.1341
48305W        W91399   7.400  26.527  22.635  0.1168  0.3783  0.3600
48306W        W91400  10.152  27.987  26.595 -0.0543  0.0097  0.0292
48307W        W91401   8.141  29.878  24.982  0.1244  0.0387  0.0292
48308W        W91402   6.234  27.410  26.003  0.0505  0.0486 -0.3001
48309W        W91403   8.964  29.829  23.572  0.0927  0.0696 -0.2135
48310W        W91404  11.144  26.970  26.197 -0.1718  0.4439  0.1486
48311W        W91405   8.365  26.884  27.595  0.0757 -0.0835 -0.0246
48312W        W91406   9.721  26.774  27.176  0.2339 -0.0490 -0.1729
48313W        W91407   7.853  26.343  23.343 -0.1826  0.3299  0.1431
48314W        W91408   8.871  29.245  27.368  0.0342  0.2570  0.0102
48315W        W91409  10.304  27.077  25.009  0.0526  0.0061  0.0948
48316W        W91410   8.997  27.563  22.511  0.2818  0.0146  0.1508
48317W        W91411   9.897  26.261  28.816 -0.1468 -0.0762 -0.0281
48318W        W91412   9.864  28.361  24.633  0.1001 -0.2259 -0.1197
48319W        W91413  10.198  26.581  25.029 -0.2218 -0.1121  0.1359
48320W        W91414   8.928  26.717  23.601  0.0999  0.3268  0.3910
48321W        W91415   7.664  27.889  27.554  0.0468  0.1765  0.0086
48322W        W91416   8.500  28.543  25.911  0.2401 -0.0700 -0.1018
48323W        W91417   6.673  27.792  25.910  0.1917  0.0091 -0.0639
48324W        W91418   8.679  26.252  23.623 -0.2873 -0.1569  0.0502
48325W        W91419  12.354  30.322  24.893  0.2568 -0.1856 -0.0142
48326W        W91420   5.602  27.437  26.678  0.1787 -0.2449 -0.0950
48327W        W91421   8.610  27.320  27.562 -0.0647  0.0280 -0.2776
48328W        W91422   9.851  29.496  24.948 -0.0983  0.2362 -0.0409
48329W        W91423   8.793  27.847  25.031  0.0266 -0.0567  0.0098
48330W        W91424   8.003  27.817  24.683 -0.1270  0.0939 -0.0396
48331W        W91425  10.777  27.311  24.667  0.1070 -0.1624  0.3001
48332W        W91426   7.210  30.690  24.322  0.0286  0.1358 -0.0135
48333W        W91427  11.373  26.519  26.038  0.2031 -0.1045  0.0203
48334W        W91428   9.462  27.134  25.440  0.2952  0.3030  0.3436
48335W        W91429   9.254  25.680  28.372 -0.2003  0.0012  0.0574
48336W        W91430  11.799  28.133  24.557  0.0537 -0.0846 -0.0127
48337W        W91431   9.738  28.352  24.171 -0.1777  0.0906 -0.1629
48338W        W91432  10.118  28.292  26.035 -0.1941 -0.0180 -0.1318
48339W        W91433   7.503  27.224  22.798  0.1084  0.1064 -0.1444
48340W        W91434  10.256  27.123  27.435 -0.1364 -0.1704  0.0364
48341W        W91435   8.535  27.649  25.657  0.1110  0.0461 -0.0893
48342W        W91436   5.932  29.040  26.857  0.1682  0.1179  0.0123
48343W        W91437   9.797  28.054  27.057  0.0784  0.0810  0.4035
48344W        W91438   9.747  27.953  25.020  0.0294 -0.4351  0.1589
48345W        W91439   9.321  27.355  27.062 -0.1762 -0.0808 -0.1930
48346W        W91440   8.681  26.008  23.048 -0.1257 -0.1088 -0.3649
48347W        W91441   9.143  28.943  24.483 -0.0665  0.0831 -0.0679
48348W        W91442   7.892  28.342  24.654  0.0753 -0.1345  0.1379
48349W        W91443   9.381  25.219  25.443  0.2584  0.1800 -0.0660
48350W        W91444   9.485  28.789  26.106 -0.2923 -0.1298  0.1256
48351W        W91445   7.846  28.671  23.014  0.5486 -0.0448 -0.0466
48352W        W91446   9.528  27.712  27.269  0.5462  0.1812 -0.0650
48353W        W91447   9.195  28.254  25.040  0.1340  0.1638  0.0636
48354W        W91448  10.632  26.886  27.125  0.1369  0.0438  0.1971
48355W        W91449   7.718  29.418  26.157  0.2417  0.2694 -0.0560
48356W        W91450   8.981  26.648  24.263 -0.1919  0.3499  0.1707
48357W        W91451   8.062  26.755  24.566 -0.1044 -0.2766  0.0969
48358W        W91452  10.907  26.734  25.829  0.2377  0.2216  0.1244
48359W        W91453  10.795  29.306  24.219  0.0285 -0.1608 -0.0223
48360W        W91454   7.852  26.215  26.049 -0.1210 -0.1300  0.1204
48361W        W91455   9.656  27.530  25.725  0.0407 -0.3090 -0.1361
48362W        W91456   5.727  28.347  26.176  0.0181 -0.1041 -0.0971
48363W        W91457   9.175  27.628  26.407  0.3032  0.2980  0.0427
48364W        W91458   9.446  26.828  23.686  0.0129 -0.0713  0.0718
48365W        W91459   8.277  27.617  27.757 -0.2416 -0.1255 -0.0185
48366W        W91460   9.483  26.876  26.315 -0.2630  0.2649 -0.0540
48367W        W91461   7.546  27.550  24.345  0.3134 -0.0622  0.1156
48368W        W91462  11.553  27.394  25.904  0.0015 -0.0595 -0.2003
48369W        W91463   8.332  26.843  24.969 -0.3552  0.1131  0.2103
48370W        W91464   7.411  28.550  24.845  0.1059  0.0098 -0.1449
48371W        W91465   8.648  28.707  27.034  0.2084 -0.0421  0.1526
48372W        W91466   8.240  27.818  23.193  0.1290 -0.1558 -0.0105
48373W        W91467   7.948  28.416  25.716 -0.0477  0.1571  0.0436
48374W        W91468   8.302  27.653  27.258 -0.1079 -0.0233 -0.0499
48375W        W91469  10.094  27.487  26.491 -0.2057  0.0440 -0.0981
48376W        W91470   8.361  27.620  26.178  0.1796 -0.0144  0.1549
48377W        W91471   8.707  28.396  25.187 -0.0013 -0.0866  0.2972
48378W        W91472   9.459  27.374  23.978 -0.2439  0.2328 -0.0129
48379W        W91473  10.269  28.845  26.973 -0.1157  0.0811  0.2567
48380W        W91474   9.623  27.705  26.689 -0.0486  0.0902  0.0507
48381W        W91475   7.450  27.420  26.785 -0.0918 -0.0597  0.0815
48382W        W91476   9.018  26.818  26.132  0.3458  0.0193 -0.0896
48383W        W91477  12.658  29.245  24.677 -0.0487 -0.0455  0.1519
48384W        W91478   9.509  28.387  27.335  0.3730  0.2100  0.0864
48385W        W91479   7.676  27.598  23.280 -0.1991 -0.2790  0.3334
48386W        W91480   8.464  27.369  26.629 -0.0213  0.0207  0.0600
48387W        W91481   7.129  27.948  25.655 -0.1093  0.0332 -0.0249
48388W        W91482   8.405  27.326  24.696 -0.1392  0.1328  0.0302
48389W        W91483   7.869  28.174  26.709 -0.2030  0.3359 -0.1031
48390W        W91484   8.273  28.348  23.370 -0.2110 -0.3053 -0.2313
48391W        W91485   6.204  28.453  26.482 -0.0348  0.1418 -0.0371
48392W        W91486  10.175  25.337  24.418  0.2648 -0.3141  0.0479
48393W        W91487   9.402  28.683  22.605  0.0207  0.0569  0.0429
48394W        W91488   8.568  27.301  25.184 -0.1912 -0.1488  0.0429
48395W        W91489  12.425  25.941  28.747  0.0900 -0.0900  0.2121
48396W        W91490   8.947  27.678  23.317  0.0755 -0.3897  0.1270
48397W        W91491  10.645  26.535  27.568  0.1597 -0.2262 -0.3021
48398W        W91492   8.615  26.411  26.349  0.1355  0.0428  0.1227
48399W        W91493   9.812  28.389  25.202 -0.0885  0.4978  0.0670
48400W        W91494   7.570  26.947  26.647 -0.0110  0.2351  0.2106
48401W        W91495  10.286  30.011  28.606  0.1138  0.3364  0.3762
48402W        W91496   7.339  26.586  27.529 -0.0755  0.1085  0.0651
48403W        W91497   8.249  25.927  24.491 -0.1138  0.0927  0.2117
48404W        W91498  10.702  26.988  22.693  0.2055  0.1692  0.1328
48405W        W91499  10.480  26.722  26.273  0.0808 -0.1860  0.0032
48406W        W91500  11.223  28.713  25.282 -0.1517  0.1057 -0.2159
48407W        W91501   8.063  27.421  23.609 -0.1514  0.0071 -0.1088
48408W        W91502   9.621  28.287  26.052  0.1278  0.1708 -0.1934
48409W        W91503   7.904  27.029  26.350 -0.3922 -0.0632  0.2535
48410W        W91504   9.286  28.683  24.036  0.0153  0.2378 -0.0498
48411W        W91505   8.983  28.181  23.704 -0.0550  0.0819  0.2590
48412W        W91506   9.594  28.672  24.880 -0.0278  0.2060 -0.0327
48413W        W91507   8.747  27.183  25.883 -0.1263 -0.1173 -0.3651
48414W        W91508  10.158  29.343  25.365  0.0396 -0.2165 -0.1446
48415W        W91509   9.560  26.482  25.905  0.0097 -0.1675  0.2874
48416W        W91510  10.783  27.534  26.651 -0.1088 -0.1595  0.1514
48417W        W91511   9.131  28.676  26.448  0.1448  0.0381  0.1098
48418W        W91512   9.079  26.203  25.947 -0.0092 -0.2168  0.0894
48419W        W91513   7.150  27.426  28.251 -0.1513  0.2348 -0.0583
48420W        W91514  10.079  30.249  26.501 -0.2341 -0.2629 -0.0828
48421W        W91515  10.393  27.958  23.323 -0.0243  0.2829 -0.2654
48422W        W91516  10.031  28.822  26.119 -0.1880 -0.4525  0.0455
48423W        W91517  10.248  28.103  24.972 -0.0163 -0.1269  0.2589
48424W        W91518   9.500  27.998  24.552  0.0377 -0.3190  0.1773
48425W        W91519   8.669  25.576  25.231  0.0036  0.2834 -0.2493
48426W        W91520  10.826  28.408  28.701 -0.0428  0.2174  0.0144
48427W        W91521   8.169  26.161  22.267 -0.0380 -0.0919 -0.1423
48428W        W91522  11.244  26.456  28.438 -0.0722 -0.0428 -0.0614
48429W        W91523   9.989  28.920  24.717 -0.2229 -0.0914  0.1107
48430W        W91524   8.738  28.574  24.577  0.1640  0.1321  0.1232
48431W        W91525  10.549  28.548  25.240 -0.2261 -0.1199 -0.1017
48432W        W91526   8.422  26.095  25.332  0.0869  0.0369  0.0075
48433W        W91527   8.673  28.779  28.831  0.3078  0.1104 -0.1947
48434W        W91528   7.546  27.062  24.139 -0.0415 -0.1048  0.1686
48435W        W91529   8.605  26.986  24.391 -0.0161  0.0191 -0.0402
48436W        W91530   7.965  27.197  26.873 -0.2434 -0.2138 -0.0709
48437W        W91531  11.088  28.708  27.241  0.0972  0.1311  0.1964
48438W        W91532   9.226  24.365  24.235 -0.0120 -0.0970  0.0575
48439W        W91533  10.332  28.273  25.552  0.1790 -0.2474 -0.1865
48440W        W91534   8.056  27.336  24.336  0.1758  0.1199 -0.0245
48441W        W91535   8.863  27.460  24.698 -0.2497  0.1733  0.2287
48442W        W91536   7.686  29.390  25.633 -0.0239 -0.0353  0.1423
48443W        W91537   6.602  27.816  27.333 -0.1113  0.1116 -0.2567
48444W        W91538   8.178  29.394  25.715  0.1912 -0.1487 -0.2041
48445W        W91539   8.744  24.987  26.507  0.0545 -0.0063  0.0519
48446W        W91540   9.824  28.038  27.568  0.1843  0.1713  0.0181
48447W        W91541   9.871  28.432  26.533 -0.0097 -0.1251  0.3029
48448W        W91542  11.346  27.806  28.282  0.1044  0.2646  0.1411
48449W        W91543   8.422  28.365  26.751 -0.0582  0.0258  0.2330
48450W        W91544   8.182  29.114  26.189  0.4335  0.1368  0.1152
48451W        W91545   9.439  29.405  28.369 -0.0548  0.0453 -0.2983
48452W        W91546  10.962  28.400  24.953 -0.0933  0.1702 -0.1623
48453W        W91547   7.662  27.963  25.570  0.2288  0.3713  0.1465
48454W        W91548   6.009  28.017  28.464 -0.1116  0.1767  0.0736
48455W        W91549   8.692  28.083  25.960 -0.2387  0.1708 -0.2062
48456W        W91550  10.016  28.845  25.243  0.1653  0.0587 -0.0679
48457W        W91551   8.394  25.457  24.801 -0.2186 -0.0096 -0.0946
48458W        W91552   8.776  27.951  24.080  0.1856  0.2222  0.2329
48459W        W91553   7.647  28.509  26.411 -0.0974 -0.0771 -0.0948
48460W        W91554   7.451  27.752  26.004 -0.1037 -0.3281 -0.3005
48461W        W91555   7.938  29.222  25.232  0.0707 -0.0923 -0.1219
48462W        W91556   8.389  30.204  22.460  0.0294 -0.4382 -0.2208
48463W        W91557   9.311  29.241  24.077 -0.2270  0.1928  0.1756
48464W        W91558   9.643  29.051  26.512  0.3763 -0.0343  0.0592
48465W        W91559   8.459  28.175  22.670 -0.1032  0.0137 -0.2162
48466W        W91560   8.226  28.740  24.536 -0.2341  0.3829  0.4287
48467W        W91561   6.679  28.737  24.423  0.3832  0.4750 -0.1636
48468W        W91562   8.927  29.410  24.393  0.1016 -0.0010 -0.2072
48469W        W91563   7.645  28.480  25.272  0.0300  0.2892  0.1711
48470W        W91564   9.701  27.954  28.577  0.0155 -0.0139 -0.0905
48471W        W91565  10.311  26.205  23.198 -0.0967  0.0645 -0.1014
48472W        W91566  11.715  28.369  26.217  0.1414  0.0848 -0.0699
48473W        W91567  10.145  27.735  24.155 -0.1456  0.1786 -0.4408
48474W        W91568   9.143  29.258  26.398  0.2465  0.2063  0.2999
48475W        W91569   9.259  27.693  24.852 -0.3694  0.1438 -0.0642
48476W        W91570  10.151  26.836  24.454 -0.2601 -0.1518  0.2281
48477W        W91571   7.640  27.083  27.177  0.2143  0.3642  0.0307
48478W        W91572  11.976  25.983  28.484 -0.2929 -0.1883 -0.3679
48479W        W91573   7.366  27.956  27.039 -0.2134 -0.1569  0.1734
48480W        W91574  10.701  31.499  25.141 -0.1307 -0.0481  0.0119
48481W        W91575   7.676  26.584  23.927 -0.0406 -0.0048 -0.1624
48482W        W91576   8.461  26.486  24.599  0.3638  0.1718  0.1292
48483W        W91577  10.389  26.128  27.815  0.3371  0.2893 -0.3168
48484W        W91578   8.668  27.713  22.913 -0.1463 -0.0907 -0.0246
48485W        W91579   9.960  27.856  24.576  0.2011  0.2382 -0.2080
48486W        W91580   9.215  29.541  24.762 -0.0291 -0.2683 -0.0873
48487W        W91581   6.636  29.771  24.795  0.1696  0.0556 -0.0828
48488W        W91582   9.511  29.345  25.900  0.1672  0.2015  0.1493
48489W        W91583   7.639  27.056  24.656 -0.1676 -0.1000 -0.0801
48490W        W91584  10.240  28.218  24.283 -0.1293  0.1911 -0.0812
48491W        W91585   7.486  27.327  26.298  0.1922 -0.2070 -0.1525
48492W        W91586  11.222  27.660  27.327 -0.1744 -0.2010 -0.1942
48493W        W91587   7.446  27.865  24.665 -0.0295 -0.2240 -0.0739
48494W        W91588  10.953  28.093  26.020 -0.0839  0.2778 -0.0766
48495W        W91589   7.073  28.822  25.962  0.1078  0.1730 -0.1886
48496W        W91590   8.905  27.631  25.979 -0.0239  0.0913 -0.2712
48497W        W91591   9.009  27.583  23.876  0.0667 -0.1525 -0.1292
48498W        W91592  11.665  28.601  27.056  0.0640 -0.1111 -0.1253
48499W        W91593   9.258  28.487  24.610  0.0970  0.0607 -0.1431
48500W        W91594   9.876  30.625  26.755 -0.1330  0.0400  0.1591
48501W        W91595   9.607  26.005  26.750  0.2775  0.0150  0.1574
48502W        W91596  10.833  27.160  25.138  0.0045  0.0358 -0.1928
48503W        W91597   6.392  28.183  25.485  0.0258  0.0773  0.0088
48504W        W91598   8.425  27.166  27.130 -0.3531  0.1045 -0.2506
48505W        W91599   8.565  28.801  27.519  0.1170  0.0208 -0.2111
48506W        W91600   8.240  25.438  24.293  0.1436  0.3119 -0.1246
48507W        W91601  10.131  29.233  23.760 -0.4080  0.0374 -0.0337
48508W        W91602  11.278  27.924  25.127  0.0824 -0.1797 -0.1612
48509W        W91603   9.406  29.611  23.755 -0.2869 -0.2410 -0.3406
48510W        W91604  10.085  28.266  23.819  0.1555 -0.0078 -0.3105
48511W        W91605  10.872  29.126  25.890 -0.2618 -0.0534  0.0577
48512W        W91606   7.928  25.327  25.104  0.1181  0.2414  0.2694
48513W        W91607  10.744  29.222  26.748  0.1311  0.0626 -0.0856
48514W        W91608  11.143  29.405  26.902  0.0508 -0.2317  0.0632
48515W        W91609   9.506  26.225  25.507 -0.3358 -0.1335 -0.0899
48516W        W91610   8.927  25.635  24.797  0.1309  0.2178 -0.1193
48517W        W91611   7.845  28.854  24.858  0.0775  0.1488 -0.0353
48518W        W91612  10.131  27.640  25.271 -0.1414  0.1870  0.1612
48519W        W91613  10.843  28.304  27.143  0.0094  0.0755 -0.0456
48520W        W91614   9.480  29.761  22.932 -0.0181  0.2350  0.0164
48521W        W91615  10.078  26.531  27.511  0.1705  0.5302  0.3590
48522W        W91616   8.138  28.865  26.681  0.2287  0.0953  0.0182
48523W        W91617   8.593  27.980  27.005  0.3600  0.1513  0.3559
48524W        W91618   7.710  26.860  25.548 -0.2908 -0.0053  0.1415
48525W        W91619   9.954  27.168  25.408 -0.2199  0.0573 -0.2179
48526W        W91620   9.825  28.670  27.000  0.1129  0.1021  0.0697
48527W        W91621   8.935  28.075  24.605 -0.3087 -0.2981  0.0446
48528W        W91622  11.096  30.084  25.504 -0.3085  0.0918  0.0031
48529W        W91623   8.592  27.489  24.224 -0.0857 -0.0458  0.0245
48530W        W91624  10.336  28.765  25.682 -0.3507 -0.2694 -0.0044
48531W        W91625   9.065  27.099  23.899 -0.1439 -0.2174 -0.1157
48532W        W91626  10.266  27.742  25.729  0.1942  0.3845  0.1310
48533W        W91627   9.858  25.898  25.343 -0.0336 -0.1709  0.0880
48534W        W91628   8.748  27.555  27.080 -0.1069  0.2263  0.2745
48535W        W91629   6.995  28.056  24.760 -0.0418  0.0657  0.1521
48536W        W91630   8.812  28.462  24.072  0.0452  0.0568  0.0716
48537W        W91631   7.853  27.654  26.371  0.1528  0.3128 -0.0419
48538W        W91632  10.179  26.172  28.370  0.4092  0.1156 -0.0476
48539W        W91633   8.679  26.742  26.684 -0.1841 -0.0229  0.0670
48540W        W91634   8.573  26.045  24.835  0.4364 -0.0664 -0.1820
48541W        W91635   8.397  26.487  23.230  0.1662 -0.2079 -0.1713
48542W        W91636   9.940  29.201  24.213 -0.0005 -0.0024 -0.0283
48543W        W91637   8.253  25.478  26.424 -0.0632 -0.0019  0.1474
48544W        W91638   6.763  24.600  25.366 -0.1650 -0.1960 -0.2964
48545W        W91639   9.969  29.861  24.547  0.0654 -0.1118 -0.5014
48546W        W91640   9.706  30.310  24.350  0.0280  0.0902  0.0884
48547W        W91641   9.954  26.106  24.869 -0.0078  0.2558 -0.1518
48548W        W91642  10.325  27.961  27.876  0.2394  0.0476  0.0554
48549W        W91643   8.071  27.586  25.504  0.2985  0.0080 -0.0735
48550W        W91644  10.308  26.832  27.821  0.0325  0.0026  0.0161
48551W        W91645   8.933  27.071  27.119 -0.0314  0.0437  0.0388
48552W        W91646   7.128  26.822  24.320  0.2714 -0.0992 -0.0272
48553W        W91647   8.151  28.528  26.303 -0.3118 -0.2218 -0.0895
48554W        W91648  11.080  30.023  23.592  0.1736 -0.0370  0.1133
48555W        W91649   8.940  29.083  22.549  0.0226 -0.3595  0.1251
48556W        W91650   7.615  29.712  25.159  0.1607  0.3352  0.1979
48557W        W91651   9.076  28.774  25.012 -0.0941  0.1465 -0.1025
48558W        W91652   8.590  26.696  27.188 -0.0578  0.3671  0.0532
48559W        W91653   8.371  28.263  24.845 -0.0235 -0.2097  0.2221
48560W        W91654   9.303  27.900  25.954 -0.0173  0.0785 -0.0536
48561W        W91655  10.620  29.983  24.137 -0.0604  0.2663  0.0808
48562W        W91656  10.527  27.421  26.084 -0.0198  0.3444  0.0735
48563W        W91657   9.716  26.928  25.010  0.2251  0.1790  0.3035
48564W        W91658   6.920  26.591  27.062  0.2955  0.4003 -0.2642
48565W        W91659   9.864  26.933  27.652 -0.2480  0.1125  0.0487
48566W        W91660  11.384  29.143  25.453 -0.0146  0.1554  0.2221
48567W        W91661   6.905  25.464  24.678 -0.0359 -0.1000  0.0470
48568W        W91662   9.203  26.709  25.715  0.0384  0.2011  0.0326
48569W        W91663  10.578  28.977  23.824  0.0160 -0.0488  0.0329
48570W        W91664   9.268  27.191  25.932 -0.1897 -0.1586 -0.1789
48571W        W91665  10.439  27.321  25.482  0.1575 -0.0853  0.0903
48572W        W91666  10.084  26.576  26.045 -0.0606  0.0769 -0.0020
48573W        W91667   9.405  28.291  25.542  0.1386 -0.1393 -0.1930
48574W        W91668   8.843  29.109  26.802  0.0022 -0.0085  0.1166
48575W        W91669   7.981  28.090  25.211  0.2393  0.0893 -0.2326
48576W        W91670  11.456  28.481  24.391 -0.1093  0.0447 -0.0314
48577W        W91671   9.700  30.137  25.632 -0.0557 -0.2563 -0.0213
48578W        W91672  11.516  29.342  28.323  0.1955  0.2093 -0.0812
48579W        W91673   8.162  28.633  25.325  0.1808 -0.3715 -0.0293
48580W        W91674  10.188  29.038  26.547  0.2340  0.0272  0.3391
48581W        W91675   8.689  25.969  26.768 -0.4082 -0.0906 -0.0529
48582W        W91676   8.536  28.865  24.991 -0.0063 -0.3373 -0.2907
48583W        W91677   8.505  27.850  24.594 -0.1326  0.0867  0.1139
48584W        W91678  10.682  28.484  26.023 -0.0930 -0.2371  0.2388
48585W        W91679   8.749  25.304  26.101 -0.3118  0.3367 -0.1249
48586W        W91680  10.579  28.539  24.090 -0.1516  0.0225 -0.0586
48587W        W91681   8.234  27.835  26.672 -0.1966  0.0816 -0.2921
48588W        W91682   9.839  28.534  25.702  0.0638 -0.0555  0.1034
48589W        W91683   8.464  26.914  30.536 -0.0728  0.1895 -0.0700
48590W        W91684   8.565  26.957  28.024  0.2751 -0.3553  0.1088
48591W        W91685   9.722  27.847  28.052  0.3380 -0.0519 -0.1873
48592W        W91686   9.589  28.474  28.537  0.0804 -0.0574 -0.0817
48593W        W91687   7.495  24.909  29.136  0.0206 -0.1589 -0.1474
48594W        W91688  10.792  29.759  28.198 -0.0216  0.1008  0.0675
48595W        W91689   7.981  25.321  30.836  0.0374 -0.1450 -0.1938
48596W        W91690   9.527  28.281  30.951 -0.1277  0.0191 -0.2229
48597W        W91691  10.970  30.015  29.213  0.3088 -0.1131  0.3213
48598W        W91692   8.749  28.336  26.396 -0.1440 -0.2901 -0.3338
48599W        W91693   7.841  26.025  29.854 -0.2938  0.1383 -0.2201
48600W        W91694   8.947  29.156  29.522  0.0460  0.0258  0.1642
48601W        W91695   9.333  25.199  29.522  0.0530  0.1033  0.0534
48602W        W91696   7.392  24.382  31.757 -0.0080 -0.2793 -0.0511
48603W        W91697   9.245  27.067  29.798  0.0855  0.2994 -0.1153
48604W        W91698   7.488  28.016  29.038 -0.3425 -0.0075  0.0645
48605W        W91699   9.273  25.729  29.352 -0.0581 -0.1445  0.2663
48606W        W91700   9.114  25.439  27.952  0.0873  0.1294  0.1543
48607W        W91701   9.866  29.098  29.193 -0.3286 -0.1485 -0.2644
48608W        W91702   9.341  25.318  30.349  0.0123  0.1361  0.1060
48609W        W91703  12.316  26.100  30.394 -0.3348 -0.1826  0.1737
48610W        W91704   8.660  27.426  28.368 -0.3177 -0.1109  0.0634
48611W        W91705   7.550  27.023  28.090  0.0808  0.0113  0.0299
48612W        W91706   7.503  25.594  27.960 -0.1992  0.0769 -0.3622
48613W        W91707   9.722  26.187  30.625  0.0145 -0.3328 -0.3857
48614W        W91708  10.033  25.474  29.790 -0.3163  0.1163  0.1559
48615W        W91709   9.210  28.132  28.722 -0.1489  0.2765 -0.1098
48616W        W91710   8.908  28.912  27.837 -0.1386  0.2245  0.1867
48617W        W91711   9.763  29.398  27.545 -0.0665  0.1608 -0.0903
48618W        W91712  11.467  26.815  31.053 -0.0448 -0.1052  0.0203
48619W        W91713   7.463  28.749  29.873  0.2326  0.2449 -0.1443
48620W        W91714   8.096  30.551  28.465 -0.0772  0.2146 -0.2649
48621W        W91715   9.351  28.657  27.862  0.3482  0.0557  0.0829
48622W        W91716  10.881  29.223  29.607 -0.4058  0.0978  0.0095
48623W        W91717  10.332  29.070  31.618 -0.0030  0.1402 -0.0028
48624W        W91718  10.418  30.452   0.029  0.0324 -0.1021 -0.0886
48625W        W91719   8.733  27.734  27.989 -0.3609  0.2655 -0.1806
48626W        W91720  10.271  29.639  31.471  0.0596 -0.1872  0.2488
48627W        W91721   8.093  28.460  30.660 -0.3167  0.0549 -0.0759
48628W        W91722   8.978  26.781  30.497  0.2731 -0.0056 -0.3153
48629W        W91723   8.173  25.563  29.004 -0.2448  0.2217 -0.4167
48630W        W91724   9.014  28.181  27.272 -0.0163 -0.0159 -0.1648
48631W        W91725   8.291  27.107  28.500 -0.0084  0.2854 -0.0126
48632W        W91726   6.762  27.892  30.638 -0.4373  0.2548  0.2955
48633W        W91727   6.987  28.079  29.800  0.2586  0.1889 -0.0974
48634W        W91728  12.627  25.785  29.987 -0.1999  0.0262  0.1249
48635W        W91729   7.656  28.814  27.915  0.0583  0.1552  0.0009
48636W        W91730  10.837  27.290  28.869 -0.0202  0.0587  0.1518
48637W        W91731   9.885  26.305  27.037 -0.1358 -0.0904  0.0514
48638W        W91732   9.358  26.605  29.385 -0.2384 -0.2475  0.3529
48639W        W91733   9.353  24.374  28.997 -0.4410 -0.0212  0.0781
48640W        W91734   8.735  29.576  29.485  0.3151  0.0825 -0.0341
48641W        W91735   8.789  25.271  30.413  0.0755  0.0383 -0.0671
48642W        W91736  10.063  28.529  30.200  0.0840 -0.1131 -0.2703
48643W        W91737   9.660  27.453  28.431  0.0825  0.0129  0.0861
48644W        W91738   8.872  26.792  30.024  0.0889 -0.2964  0.2176
48645W        W91739   7.101  26.915  30.068  0.1879 -0.1864 -0.0246
48646W        W91740   7.300  26.476  29.889  0.1084 -0.3198  0.2632
48647W        W91741  11.042  29.646  28.700  0.1431  0.0605 -0.1016
48648W        W91742  10.444  28.220  30.555  0.0766 -0.1213 -0.1280
48649W        W91743   7.660  27.449  27.855 -0.0342  0.4967  0.0311
48650W        W91744   8.741  27.788  28.833 -0.0020  0.0170  0.0475
48651W        W91745   7.022  28.616  31.369  0.0724 -0.2810  0.0525
48652W        W91746   6.412  28.278  30.719 -0.0029 -0.0920  0.1864
48653W        W91747   8.870  26.799  27.617  0.1999  0.1638  0.1012
48654W        W91748  11.287  27.972  31.702  0.1589 -0.0353  0.0474
48655W        W91749   6.978  27.612  31.285  0.0730 -0.1423  0.0715
48656W        W91750  10.429  26.475  29.854 -0.1675  0.0026  0.2729
48657W        W91751   8.422  26.503  29.803 -0.0405 -0.0572 -0.3067
48658W        W91752  10.643  29.925  31.056  0.0949  0.1404 -0.0197
48659W        W91753   8.413  29.326  26.605 -0.0642 -0.2928  0.0090
48660W        W91754   8.959  25.158  30.875 -0.4032 -0.1209  0.2680
48661W        W91755   9.458  26.253  30.035 -0.1380  0.1457 -0.1877
48662W        W91756   8.385  26.891  29.012  0.3723  0.2302  0.0826
48663W        W91757   8.861  27.371  29.737 -0.3225 -0.1213 -0.1790
48664W        W91758  10.706  27.434  31.158  0.0159 -0.2021  0.1229
48665W        W91759  10.859  27.949  28.183  0.1967  0.2430 -0.0611
48666W        W91760   7.407  28.776  30.469 -0.1187  0.4157  0.1134
48667W        W91761   8.892  26.083  30.558  0.0192  0.0647  0.0583
48668W        W91762   9.266  28.937  31.176 -0.1832 -0.2470  0.2749
48669W        W91763   7.643  28.809  27.403  0.0367 -0.2038  0.2032
48670W        W91764   9.284  26.645  30.929  0.0332  0.0709  0.4531
48671W        W91765   8.780  27.826  27.491  0.1467 -0.3147 -0.2156
48672W        W91766   7.787  25.073  30.251 -0.1892 -0.0392 -0.0298
48673W        W91767   8.036  28.865  29.893  0.0301  0.3018 -0.0585
48674W        W91768   9.990  27.365  27.993 -0.3649 -0.0480 -0.1082
48675W        W91769   8.995  26.549  31.930 -0.0603  0.1370 -0.0646
48676W        W91770  11.128  25.920  29.087 -0.1443 -0.2647 -0.0002
48677W        W91771   8.257  26.243  31.248 -0.2402  0.0417  0.0105
48678W        W91772   9.516  29.608  26.369  0.3436  0.0996 -0.3212
48679W        W91773  11.443  27.395  27.943 -0.1269  0.1071 -0.1086
48680W        W91774  10.399  30.031  27.291 -0.0179 -0.2005 -0.3118
48681W        W91775   7.060  25.835  30.714  0.0878  0.0436  0.0761
48682W        W91776   6.762  25.183  29.485  0.0759  0.1515 -0.0814
48683W        W91777   8.892  25.639  30.778  0.0863  0.0782 -0.1238
48684W        W91778   8.027  26.299  29.512 -0.0636  0.1242 -0.0732
48685W        W91779  11.019  27.064  31.201 -0.1756  0.5045  0.0723
48686W        W91780   6.374  26.211  27.566 -0.1513 -0.0936 -0.3145
48687W        W91781   8.851  26.726  28.365  0.1685  0.0522 -0.1137
48688W        W91782   9.397  26.989  27.499  0.0815  0.0751  0.0304
48689W        W91783   6.695  27.900  29.207  0.0239 -0.2935 -0.0184
48690W        W91784   9.282  26.348  30.486  0.4914 -0.1565  0.1782
48691W        W91785  10.539  29.513  27.389 -0.2007 -0.1855  0.0996
48692W        W91786  10.367  29.552  30.947  0.0961  0.1981 -0.0524
48693W        W91787  10.464  28.822  30.436 -0.1699 -0.0022 -0.3421
48694W        W91788   9.467  24.118  29.784  0.0411 -0.1112  0.0112
48695W        W91789   9.283  26.814  26.754 -0.0219 -0.1242 -0.0376
48696W        W91790   8.070  29.378  29.848  0.1776 -0.1619  0.1325
48697W        W91791   7.605  27.528  29.349 -0.3306 -0.0059 -0.1531
48698W        W91792   9.165  27.296  28.479  0.0686  0.1623  0.1662
48699W        W91793   9.683  28.237  29.526 -0.1355  0.0002 -0.0251
48700W        W91794   8.416  27.717  29.657 -0.3003  0.2020  0.2796
48701W        W91795   8.010  27.643  30.010 -0.3235 -0.2056 -0.2021
48702W        W91796  10.309  27.335  29.796 -0.1433  0.0389  0.1083
48703W        W91797  11.837  27.689  29.118 -0.2040 -0.0628 -0.0291
48704W        W91798   8.811  27.891  29.438 -0.2334 -0.0011 -0.0619
48705W        W91799   8.546  25.977  27.622  0.0500 -0.2195 -0.1234
48706W        W91800  10.477  28.940  29.432  0.0089  0.2964  0.0966
48707W        W91801   7.807  27.943  28.118 -0.2664  0.3050 -0.1502
48708W        W91802   7.057  28.273  27.910 -0.1230  0.0954  0.0463
48709W        W91803   9.169  28.618  28.802 -0.2786 -0.5309  0.1255
48710W        W91804  11.272  27.515  30.345  0.2022  0.1158  0.0858
48711W        W91805   5.870  27.246  30.605 -0.0295 -0.2691 -0.4504
48712W        W91806   9.639  26.389  31.134  0.0566 -0.3346  0.2512
48713W        W91807   8.513  25.699  28.732 -0.1560  0.2292  0.1795
48714W        W91808   8.314  27.123  29.989 -0.0151 -0.2764 -0.0730
48715W        W91809   8.680  26.367  28.747  0.1876 -0.0369 -0.0113
48716W        W91810   9.291  27.972  27.643 -0.1537 -0.2526 -0.0153
48717W        W91811   9.487  27.434  31.271 -0.1557 -0.1555  0.0289
48718W        W91812  10.995  28.712  29.624 -0.2235  0.2894  0.2510
48719W        W91813   9.525  27.136  27.995 -0.0036  0.3071 -0.0258
48720W        W91814   9.615  27.367  26.241  0.1516  0.3774 -0.1344
48721W        W91815   6.972  28.810  29.167 -0.1027  0.2525 -0.3033
48722W        W91816   8.974  27.780  30.036 -0.0620 -0.3555 -0.0639
48723W        W91817   7.548  27.638  30.421 -0.1193 -0.0284  0.2006
48724W        W91818   9.336  26.236  28.492  0.1731  0.1735 -0.3146
48725W        W91819  10.849  27.979  27.613  0.1904 -0.1298  0.3701
48726W        W91820   8.787  27.308  30.242 -0.1876  0.2677 -0.1455
48727W        W91821  10.044  27.320  31.112  0.0434  0.1928  0.1552
48728W        W91822   9.672  29.502  29.884 -0.0041  0.1385 -0.0316
48729W        W91823  10.196  23.940  30.259 -0.2989  0.0014 -0.1383
48730W        W91824  10.152  26.911  26.872  0.0541  0.1649  0.2982
48731W        W91825   8.524  26.087  29.569 -0.0149  0.1231 -0.2235
48732W        W91826   8.484  29.222  27.869 -0.0951 -0.0696 -0.0817
48733W        W91827   9.034  27.055  29.379 -0.1559  0.0273 -0.0589
48734W        W91828   8.982  26.261  30.079  0.2532  0.2924 -0.3306
48735W        W91829   8.208  24.817  30.572  0.0304  0.0289 -0.2664
48736W        W91830  10.598  26.888   0.015 -0.1844 -0.0731 -0.3482
48737W        W91831  10.126  27.975  28.901 -0.0415  0.1012 -0.1362
48738W        W91832   8.587  28.245  30.482  0.2399 -0.0670  0.2020
48739W        W91833   7.026  27.228  26.686  0.4706  0.2805 -0.2962
48740W        W91834   8.505  24.455  30.248  0.1405  0.2560  0.0421
48741W        W91835   8.592  26.395  30.347 -0.1910 -0.0350 -0.1475
48742W        W91836   5.793  27.755  30.628 -0.3613  0.0071  0.3008
48743W        W91837  10.472  26.427  31.119 -0.0712  0.4003  0.2320
48744W        W91838   8.691  28.298  29.035 -0.3481  0.0831  0.1620
48745W        W91839   9.638  26.961  31.109  0.0767 -0.2858  0.1711
48746W        W91840   8.929  26.025  28.220  0.3901 -0.1334  0.0699
48747W        W91841   8.972  28.464  26.839 -0.2182 -0.1447 -0.1470
48748W        W91842   8.209  27.353  28.940  0.1069  0.1211 -0.2283
48749W        W91843   8.080  24.257  30.481  0.1817 -0.0059 -0.0465
48750W        W91844   9.348  29.277  31.554  0.1198  0.0179  0.1412
48751W        W91845   9.366  29.707  27.670  0.1790  0.2424 -0.0774
48752W        W91846   9.659  27.421  30.775  0.1044 -0.1070  0.2217
48753W        W91847   9.091  27.783  28.390  0.1310 -0.1254 -0.0229
48754W        W91848   9.465  25.966  28.937 -0.1188 -0.2175  0.0192
48755W        W91849   8.424  28.495  29.654  0.0439  0.0520  0.0330
48756W        W91850   7.898  26.867  27.695  0.0010  0.4253 -0.0020
48757W        W91851   7.802  25.268  29.365  0.0591 -0.0102  0.0671
48758W        W91852   9.420  26.740  30.175  0.2103  0.0210  0.0807
48759W        W91853  10.321  28.423  28.715 -0.1874  0.0917  0.1020
48760W        W91854   5.988  25.014  29.144  0.0968  0.2851 -0.0520
48761W        W91855   9.471  25.606  29.878 -0.3067 -0.1347  0.2394
48762W        W91856   8.470  29.002  30.684 -0.0188 -0.3491 -0.4181
48763W        W91857   9.769  27.168  30.177 -0.3394  0.1824  0.0832
48764W        W91858  10.067  27.568  27.514 -0.2517 -0.2503 -0.1703
48765W        W91859  10.598  30.085  31.566  0.1269  0.0204 -0.0309
48766W        W91860   7.739  27.156  31.256  0.0434  0.1631 -0.0248
48767W        W91861   6.962  26.155  26.758  0.0832  0.0445  0.1123
48768W        W91862  10.177  25.978  30.653  0.0762 -0.0982  0.0865
48769W        W91863   8.600  26.934  29.606 -0.0496  0.1656 -0.2051
48770W        W91864   8.304  28.116  29.365 -0.2217 -0.1533 -0.0098
48771W        W91865  10.000  29.722  30.684 -0.1488  0.1268  0.1466
48772W        W91866   7.213  25.909  28.313  0.3882  0.0334  0.2089
48773W        W91867   9.198  28.826  28.326  0.0322 -0.0891 -0.3513
48774W        W91868   7.484  25.569  30.372 -0.0937  0.0497  0.5427
48775W        W91869  10.247  27.272  30.327  0.0012 -0.0700  0.0851
48776W        W91870   8.957  26.444  29.630  0.2622  0.0514  0.4336
48777W        W91871   8.021  25.219  29.822 -0.1294 -0.0679  0.1052
48778W        W91872   8.733  25.989  31.108  0.3021 -0.1046  0.0367
48779W        W91873  10.322  27.940  30.962 -0.0655 -0.1027  0.2533
48780W        W91874   8.663  25.717  29.225 -0.0144 -0.2170 -0.0740
48781W        W91875   7.135  27.911  30.328 -0.5358  0.0821  0.0593
48782W        W91876  10.310  25.005  28.736 -0.0028 -0.0387 -0.1029
48783W        W91877  10.655  29.730  26.927  0.2003  0.2757  0.0307
48784W        W91878  10.882  27.120  30.685  0.0905 -0.0982  0.0416
48785W        W91879   7.459  26.659  28.919 -0.0673 -0.1407  0.0291
48786W        W91880   7.898  26.255  30.346 -0.1121 -0.1111 -0.2411
48787W        W91881   8.263  28.129  27.818 -0.0760 -0.1565 -0.1658
48788W        W91882   9.857  25.578  30.716 -0.1062 -0.0609  0.1762
48789W        W91883   7.664  27.457  28.828 -0.3331  0.2239  0.1198
48790W        W91884   6.574  28.217  27.685  0.0046  0.3168 -0.3312
48791W        W91885   7.482  28.160  29.619  0.0353  0.1979  0.0020
48792W        W91886  10.036  25.537  27.558 -0.1174 -0.0731 -0.1308
48793W        W91887   8.751  27.831  26.411 -0.0343 -0.1909 -0.0045
48794W        W91888   9.603  26.160  29.412 -0.0010 -0.2288 -0.3311
48795W        W91889  12.762  25.669  30.493 -0.0560 -0.2266 -0.0214
48796W        W91890  11.334  27.912  27.778  0.0229  0.1478  0.0549
48797W        W91891  11.693  26.508   0.270 -0.1333  0.0622 -0.4336
48798W        W91892   8.233  25.303  30.428 -0.1519 -0.0049  0.2263
48799W        W91893  10.104  28.648  29.721  0.1289 -0.0077  0.1980
48800W        W91894   7.333  26.794   0.272  0.2806  0.0167  0.2811
48801W        W91895   9.802  28.987   0.379  0.0395 -0.3996 -0.0894
48802W        W91896   6.979  26.835  30.573  0.0606  0.1185 -0.2046
48803W        W91897   9.769  26.958  28.742 -0.0425 -0.0104  0.1677
48804W        W91898  10.110  25.945  26.656 -0.0890  0.0729  0.2088
48805W        W91899   8.703  26.525  30.937  0.0173 -0.1944 -0.1882
48806W        W91900  10.007  28.850  28.809 -0.0750  0.4159 -0.0431
48807W        W91901   8.501  27.734  30.210  0.0209  0.2808 -0.0045
48808W        W91902   9.963  27.678  30.017  0.1624  0.2955 -0.0085
48809W        W91903   9.281  26.978  31.511 -0.0209 -0.1432  0.0323
48810W        W91904  10.224  27.210  29.060 -0.2010  0.0324  0.0748
48811W        W91905   9.396  26.132  27.969  0.0725 -0.0786  0.2662
48812W        W91906   8.088  27.233  28.008 -0.1546  0.1637 -0.1793
48813W        W91907   8.441  26.408   0.530 -0.1783  0.1119 -0.2008
48814W        W91908   9.979  29.510  28.895 -0.0610 -0.0472  0.1853
48815W        W91909   9.510  27.071  29.242  0.0521 -0.0215 -0.2428
48816W        W91910   9.602  25.113  29.946 -0.1390  0.0319  0.1274
48817W        W91911   9.544  27.749  30.319 -0.0421 -0.0099  0.0484
48818W        W91912   9.158  25.826  31.374 -0.0981 -0.0930  0.3049
48819W        W91913   7.923  25.699  31.202  0.3188  0.3126 -0.1665
48820W        W91914  10.722  30.086   0.074  0.1067 -0.0573 -0.0446
48821W        W91915   9.695  28.868  28.206 -0.0719  0.0507  0.1477
48822W        W91916  11.164  27.281  29.275 -0.0225 -0.2665 -0.0842
48823W        W91917  10.740  26.989  29.824  0.0995  0.0908 -0.1464
48824W        W91918   9.252  26.957  28.819  0.2217 -0.2716 -0.3904
48825W        W91919   8.534  25.714  30.416 -0.1078 -0.0890  0.0062
48826W        W91920  11.030  26.476   0.077  0.0718 -0.2039  0.0253
48827W        W91921   9.940  26.048  27.516 -0.0600 -0.0393 -0.0932
48828W        W91922  10.551  26.230  30.251 -0.1098  0.0238  0.2587
48829W        W91923   9.443  29.150  27.875  0.2508 -0.2272 -0.2003
48830W        W91924   7.979  27.803  29.121 -0.0637  0.0607  0.1554
48831W        W91925   8.410  26.496  29.315 -0.2339  0.2762  0.0418
48832W        W91926   7.798  26.507  29.890 -0.1422 -0.0229 -0.0686
48833W        W91927   6.934  28.349  30.561 -0.0871 -0.0808  0.1334
48834W        W91928   7.721  26.495  28.014 -0.0317  0.0261  0.1360
48835W        W91929  10.545  27.933  26.926 -0.0606 -0.1103 -0.0430
48836W        W91930   8.933  27.751  30.561 -0.2074  0.0916 -0.0457
48837W        W91931  12.127  27.394  30.676  0.2413 -0.1026 -0.1633
48838W        W91932  10.189  27.174  28.512 -0.1704  0.0690  0.0177
48839W        W91933   9.780  27.091  29.655  0.1866 -0.1517 -0.5944
48840W        W91934   7.292  27.862  27.991 -0.0357  0.1040 -0.0592
48841W        W91935   8.831  26.676  29.158  0.0179  0.3716 -0.3146
48842W        W91936   7.498  29.049  29.104 -0.1920 -0.0316 -0.1754
48843W        W91937   7.594  27.167  30.505  0.0336 -0.3539 -0.2472
48844W        W91938   7.154  27.788  29.352  0.0373 -0.1373 -0.0477
48845W        W91939  10.452  24.728  29.710 -0.2700  0.1299 -0.2381
48846W        W91940  10.553  27.640  28.919 -0.1957 -0.2528  0.2215
48847W        W91941   9.858  28.192  30.474  0.2035  0.2324  0.0239
48848W        W91942  11.828  27.161  29.344  0.0189  0.1213 -0.1897
48849W        W91943   8.210  28.207  30.074  0.0771  0.1329  0.3109
48850W        W91944   8.145  25.710  29.551 -0.1293  0.0579 -0.0166
48851W        W91945  10.104  29.158  30.612 -0.0008 -0.1250  0.3464
48852W        W91946  11.310  27.374  29.852 -0.0623 -0.2829  0.0916
48853W        W91947   8.095  27.353  29.608  0.0880 -0.1086  0.0948
48854W        W91948   6.630  26.105  31.164 -0.4960  0.0941 -0.0235
48855W        W91949  10.407  27.130   0.524 -0.0430 -0.0448  0.1495
48856W        W91950   9.204  28.160  29.220 -0.0289  0.1060 -0.2050
48857W        W91951   8.558  27.040  26.288  0.1976 -0.1510  0.0296
48858W        W91952   9.245  27.581  27.953  0.0356 -0.0498 -0.1963
48859W        W91953   9.783  28.714  31.279 -0.2128 -0.3088 -0.2328
48860W        W91954   7.316  27.326  30.157 -0.2187  0.0776 -0.0929
48861W        W91955   8.153  27.652  28.520  0.2346 -0.1711 -0.1676
48862W        W91956  10.063  28.629  30.792 -0.1165  0.1390  0.1333
48863W        W91957   9.616  27.426  27.647  0.1912  0.0421 -0.1489
48864W        W91958   9.712  29.822  30.237  0.0111  0.2858  0.1288
48865W        W91959   9.126  27.397  27.488  0.4185  0.3049 -0.1840
48866W        W91960   7.841  28.204  28.673 -0.0665  0.0967  0.0678
48867W        W91961   7.991  27.273  27.432 -0.1318 -0.2026 -0.1702
48868W        W91962  10.015  29.288  28.418  0.1461  0.3565 -0.1288
48869W        W91963   7.950  28.453  28.200 -0.1396  0.3589  0.2901
48870W        W91964  10.321  28.587  31.380 -0.2536  0.4161  0.2471
48871W        W91965  10.464  27.500  27.850  0.4398  0.1184  0.3578
48872W        W91966   9.140  27.524  29.283 -0.0263  0.3873  0.0452
48873W        W91967  11.226  26.442  29.149  0.1514 -0.0077 -0.0126
48874W        W91968  10.063  27.699  31.510  0.1450 -0.0179  0.1551
48875W        W91969   9.299  27.303  30.289  0.2609 -0.2164 -0.2676
48876W        W91970   9.139  26.605  27.250  0.2326 -0.1087  0.0568
48877W        W91971   8.787  25.702  31.649 -0.0519 -0.0964  0.1997
48878W        W91972  11.775  25.788  31.354  0.0819 -0.1245 -0.2254
48879W        W91973   5.845  27.623   0.100 -0.2011  0.1345  0.1337
48880W        W91974   9.249  28.249  28.213 -0.0005 -0.2513  0.1162
48881W        W91975   8.226  26.600  28.659  0.1109  0.2469  0.2221
48882W        W91976   7.494  26.681  29.435  0.3052  0.1436  0.1007
48883W        W91977  12.009  26.243  31.294  0.1462 -0.1029  0.1329
48884W        W91978  10.673  27.592  27.301 -0.1352 -0.1355  0.1920
48885W        W91979   9.841  26.606  29.160 -0.1073  0.1902  0.0027
48886W        W91980   8.314  28.013  28.850 -0.2884  0.0616 -0.2299
48887W        W91981   7.919  27.904  29.589  0.0873  0.2361  0.2409
48888W        W91982   9.092  29.601  29.184 -0.1249 -0.3380 -0.3991
48889W        W91983   7.407  25.126  28.510 -0.0181  0.1742  0.0129
48890W        W91984  11.102  28.377  27.576 -0.0917  0.0627 -0.0264
48891W        W91985  10.220  26.494  31.632 -0.1016  0.1605  0.0981
48892W        W91986  11.476  26.619  30.205 -0.2694  0.0661  0.2546
48893W        W91987   7.752  25.781  29.180  0.4816 -0.1887  0.3407
48894W        W91988  10.162  27.700  28.411 -0.1771  0.0531  0.0627
48895W        W91989   9.186  26.090  30.947 -0.0651 -0.1251 -0.0362
48896W        W91990   7.998  26.656  31.299 -0.1381  0.0343 -0.0360
48897W        W91991   9.268  26.669  27.913  0.0906  0.0952  0.3942
48898W        W91992  10.883  26.030  31.541 -0.0033 -0.1195 -0.1129
48899W        W91993   8.940  28.305  27.802  0.0117 -0.2411  0.1762
48900W        W91994   9.654  28.274  30.052  0.0370  0.2347  0.2516
48901W        W91995   7.214  26.208  28.842 -0.3562 -0.0275 -0.2984
48902W        W91996   8.841  25.473  28.417 -0.0966 -0.3276 -0.0964
48903W        W91997   8.474  25.461  29.926 -0.3320 -0.0183  0.3217
48904W        W91998   8.153  26.588  30.805  0.2201  0.1956  0.1419
48905W        W91999   9.927  28.727  31.893 -0.1289  0.3109 -0.3732
48906W        W92000   8.128  23.815  28.319 -0.3781 -0.0458  0.2605
48907W        W92001   9.340  28.816  26.880  0.0536  0.0695 -0.2046
48908W        W92002   9.867  27.675  29.474  0.0509  0.2645 -0.0519
48909W        W92003   8.515  28.531  27.973 -0.0567 -0.0459 -0.0281
48910W        W92004  10.836  28.747  29.091  0.0183  0.0164  0.0441
48911W        W92005  10.464  29.296  29.866 -0.1617 -0.1681  0.0873
48912W        W92006   7.550  25.667  30.887  0.0665  0.3095 -0.2168
48913W        W92007  10.380  29.758   0.332 -0.0875 -0.2679  0.2892
48914W        W92008  10.832  27.485  29.776  0.2724 -0.1361  0.1178
48915W        W92009   8.981  25.972  29.675  0.1190 -0.3303 -0.2127
48916W        W92010   8.367  26.018  30.055 -0.0551  0.3573 -0.1054
48917W        W92011   6.578  28.371  29.384 -0.1304  0.2750  0.2555
48918W        W92012   9.436  25.335  30.899  0.0038 -0.0925  0.2625
48919W        W92013  11.360  26.888  29.757 -0.3406  0.0601 -0.0893
48920W        W92014   9.481  29.478  28.910  0.2085  0.0369  0.0827
48921W        W92015  10.448  25.448  30.796 -0.3124 -0.1324 -0.2748
48922W        W92016   9.661  29.042  30.853  0.2945 -0.1818  0.0778
48923W        W92017   9.567  28.634  30.560 -0.0348  0.2768 -0.3073
48924W        W92018   7.466  26.668  27.043  0.2383  0.1121  0.4074
48925W        W92019   9.112  27.214  30.734 -0.2977  0.0374  0.3635
48926W        W92020   7.823  26.952  28.648 -0.0196 -0.1145 -0.2162
48927W        W92021   8.163  28.631  27.100 -0.1534 -0.0847  0.1496
48928W        W92022   9.394  28.679  29.331  0.1501 -0.0862  0.2801
48929W        W92023   8.365  26.084  28.976 -0.3260  0.2161 -0.0465
48930W        W92024  10.604  29.331  28.529  0.1505 -0.0507  0.2613
48931W        W92025   8.016  25.620  30.091  0.0846  0.0066  0.0475
48932W        W92026  11.622  26.039  29.304 -0.3325 -0.1844 -0.3699
48933W        W92027   9.917  25.734  28.839 -0.4287  0.1082  0.1739
48934W        W92028   7.983  27.118  30.798  0.0349  0.1572 -0.1157
48935W        W92029   7.735  26.011  28.192 -0.1678  0.0452  0.1012
48936W        W92030   7.733  28.352  27.252 -0.1373  0.0444 -0.3859
48937W        W92031   7.732  27.088  29.893  0.2757 -0.1352  0.1687
48938W        W92032   9.499  24.791  31.234 -0.4532 -0.0158  0.2826
48939W        W92033   8.888  26.947  31.269  0.3167 -0.0118  0.0509
48940W        W92034   7.984  26.806  29.547  0.0468  0.2636 -0.0872
48941W        W92035   8.236  24.376  28.526  0.0502  0.0335 -0.2629
48942W        W92036   9.278  27.656  28.825 -0.2738  0.0709  0.1649
48943W        W92037   7.589  25.502  29.805  0.2168 -0.3147  0.0690
48944W        W92038   7.026  25.177  30.625  0.2278 -0.0149 -0.1221
48945W        W92039   9.434  28.354  26.782  0.0438  0.1952  0.0707
48946W        W92040  10.679  28.264  30.092  0.0241  0.2555  0.4090
48947W        W92041   8.179  24.724  29.605 -0.2637 -0.2048 -0.0519
48948W        W92042  10.533  27.834  31.452 -0.2020  0.1174 -0.0199
48949W        W92043   6.972  27.879  26.691 -0.1302 -0.1754 -0.1521
48950W        W92044   9.465  25.645  31.727 -0.2956  0.0183  0.2847
48951W        W92045   9.031  24.983  29.942  0.0966  0.1170  0.2267
48952W        W92046   8.105  26.173  27.883 -0.0134 -0.1736  0.4101
48953W        W92047   9.750  26.615  29.719 -0.0588 -0.0783 -0.1213
48954W        W92048   9.028  27.091  28.023 -0.6062 -0.0208 -0.2179
48955W        W92049  10.705  28.828  28.454  0.0543 -0.1282 -0.0819
48956W        W92050   9.481  26.149  31.516 -0.2119  0.0792  0.2404
48957W        W92051   7.921  28.408  29.667 -0.0137 -0.1896 -0.1534
48958W        W92052   7.925  25.760  30.556 -0.4941 -0.0003 -0.2834
48959W        W92053   8.859  27.237  28.901  0.0099 -0.1588  0.0620
48960W        W92054   9.666  28.786  29.927 -0.1477  0.0896 -0.1904
48961W        W92055  10.124  28.262  28.282 -0.4965 -0.0094 -0.0094
48962W        W92056  11.834  26.289  30.016  0.1925 -0.0717 -0.0638
48963W        W92057   8.643  27.392  29.283 -0.0835  0.0419 -0.2873
48964W        W92058   7.912  25.913  31.665 -0.2476  0.1074  0.3250
48965W        W92059   8.449  27.414  30.711 -0.1345 -0.2239  0.0177
48966W        W92060  10.609  29.743  29.500 -0.0357  0.0717  0.0435
48967W        W92061   9.013  24.424  28.572  0.1671 -0.5083 -0.2256
48968W        W92062  10.147  25.994  29.197 -0.2422 -0.1563  0.1313
48969W        W92063   9.615  27.929  29.135  0.1251  0.1561 -0.2639
48970W        W92064   9.225  25.323  31.419 -0.0335 -0.0333  0.1085
48971W        W92065   9.381  26.768  28.355  0.4944  0.3571  0.1302
48972W        W92066   9.378  24.971   0.313 -0.2836  0.0481  0.0113
48973W        W92067   8.819  28.763  30.405  0.1665 -0.2737  0.0234
48974W        W92068  10.018  27.672  30.541  0.3074  0.4746 -0.1119
48975W        W92069   8.098  26.758  28.146  0.2290  0.0135  0.2434
48976W        W92070  10.434  28.548  27.423 -0.2372  0.2039 -0.0408
48977W        W92071   9.041  29.040  29.063 -0.0178 -0.2326  0.0727
48978W        W92072  11.431  28.176   0.268 -0.1985  0.1166  0.1448
48979W        W92073   7.551  30.308  28.867  0.2311 -0.1025  0.2749
48980W        W92074   9.450  27.501  29.880  0.0189  0.0660  0.1620
48981W        W92075   8.130  24.782  31.119  0.0835 -0.3807  0.2649
48982W        W92076   8.559  28.310  27.454  0.3886  0.1243  0.0615
48983W        W92077   9.730  28.401  29.005  0.2164 -0.3197 -0.2053
48984W        W92078  10.462  27.717  30.104 -0.0527 -0.1910  0.1843
48985W        W92079   6.843  25.440  29.090  0.0327  0.1253  0.0825
48986W        W92080   9.035  24.962  28.467  0.4522 -0.2730  0.0585
48987W        W92081   8.795  28.770  29.879  0.0379  0.0042  0.1778
48988W        W92082   9.241  28.186  30.544  0.0419  0.3018 -0.0655
48989W        W92083  11.335  27.307  30.805 -0.0864  0.1840  0.1968
48990W        W92084  10.010  27.050  30.721 -0.2406  0.1060  0.0511
48991W        W92085   7.369  26.789  31.307 -0.1518 -0.1089 -0.1616
48992W        W92086   7.374  28.279   0.643  0.1303 -0.2706 -0.0918
48993W        W92087   7.992  29.404  31.200  0.2380  0.0854 -0.1798
48994W        W92088   7.255  28.994  30.890 -0.0093 -0.1135  0.1938
48995W        W92089  10.611  26.106   0.409  0.0875 -0.0917 -0.2573
48996W        W92090   9.087  24.511  30.962  0.1717  0.1038 -0.4545
48997W        W92091  11.434  26.177  31.595 -0.1931 -0.1846  0.0864
48998W        W92092   9.291  27.817  30.946 -0.1266 -0.1998 -0.1191
48999W        W92093   9.984  26.390   0.154 -0.0238 -0.1403  0.2319
49000W        W92094   8.440  25.175  30.854 -0.0254 -0.1688 -0.0118
49001W        W92095  11.027  26.066  30.999  0.0150 -0.0682  0.1473
49002W        W92096   7.082  25.584   0.821 -0.4056  0.5583  0.1563
49003W        W92097  10.550  26.212  31.920  0.0483  0.0442 -0.3315
49004W        W92098   7.057  29.461  30.937 -0.1510 -0.1237 -0.0269
49005W        W92099   8.852  27.484  31.165  0.2073 -0.0470  0.0454
49006W        W92100  10.970  28.159   0.289  0.0967 -0.1861 -0.2388
49007W        W92101   7.658  24.780  31.032 -0.1283  0.0943  0.0969
49008W        W92102   5.383  26.381   0.353 -0.1283 -0.0852 -0.2023
49009W        W92103   8.085  26.390  31.736  0.1670  0.3010 -0.4338
49010W        W92104   6.817  27.588  31.770  0.1661 -0.0948 -0.0665
49011W        W92105  10.482  25.879  31.029 -0.0413 -0.2183  0.1605
49012W        W92106  10.584  25.680   0.018 -0.0561  0.2724  0.4977
49013W        W92107   9.865  25.779  30.166  0.3228  0.2718 -0.2593
49014W        W92108   9.042  24.976   1.315 -0.2266  0.0391 -0.0515
49015W        W92109   9.587  25.763  31.172 -0.0903  0.2115  0.1806
49016W        W92110   6.740  28.816   0.301  0.0315  0.1265  0.1195
49017W        W92111   8.472  24.885  31.495  0.1131  0.2754  0.0359
49018W        W92112   8.362  29.201   0.401  0.2173 -0.1064 -0.1948
49019W        W92113   7.836  28.503  30.189 -0.2779 -0.0339 -0.1126
49020W        W92114   9.052  24.784   0.793 -0.0193 -0.0029  0.0228
49021W        W92115  10.319  27.014  31.494 -0.1744 -0.0229 -0.0480
49022W        W92116   8.602  26.231   0.126  0.2334 -0.0201 -0.2064
49023W        W92117   7.445  25.771  31.496  0.2146 -0.2175  0.0046
49024W        W92118   8.615  27.872  31.356  0.1003 -0.0811  0.0284
49025W        W92119   7.592  28.099   0.009 -0.3061  0.1192  0.0165
49026W        W92120   9.848  27.899  31.048  0.1520 -0.0618 -0.0774
49027W        W92121   8.817  26.089   0.737 -0.3152 -0.2011 -0.4772
49028W        W92122   9.478  28.806  31.710  0.0503  0.3070 -0.2362
49029W        W92123   9.636  25.197  31.813 -0.0794 -0.1737 -0.0036
49030W        W92124   9.440  25.447   0.503  0.0746  0.0054  0.3330
49031W        W92125   6.166  25.774  31.647  0.1897  0.0092 -0.1128
49032W        W92126   8.069  27.345  30.372 -0.4181 -0.4520 -0.0320
49033W        W92127   7.726  26.280  31.373 -0.2777  0.3984 -0.1700
49034W        W92128   8.559  27.055   0.091 -0.1379  0.1837 -0.1991
49035W        W92129  10.552  25.270  29.956  0.2463 -0.3305  0.1033
49036W        W92130   8.256  28.272  31.378 -0.3723  0.0497  0.1806
49037W        W92131   9.600  27.930  31.494 -0.3101  0.1301 -0.1601
49038W        W92132   7.080  29.025  30.091  0.1980  0.3660  0.1075
49039W        W92133  10.208  28.386   1.317 -0.1123  0.1979 -0.2258
49040W        W92134  10.994  25.614  30.849 -0.0261 -0.2250  0.3867
49041W        W92135   8.662  24.765  31.021  0.0140 -0.0512  0.2345
49042W        W92136  10.057  26.680  31.177 -0.0348  0.0465 -0.0885
49043W        W92137   9.833  27.258  31.541 -0.3923 -0.0974 -0.0781
49044W        W92138  10.747  26.587  31.604 -0.1411 -0.0228  0.0621
49045W        W92139  10.472  26.973  31.003 -0.1191 -0.0600  0.1792
49046W        W92140   8.158  29.254  31.670  0.2668  0.0389  0.0592
49047W        W92141  10.325  29.231   0.122  0.1027  0.0804 -0.2323
49048W        W92142   6.771  26.637  31.096 -0.1525 -0.1112  0.0906
49049W        W92143   7.456  26.157  30.565 -0.1433 -0.0603 -0.1692
49050W        W92144   8.785  27.273  31.683 -0.1372  0.3818  0.0059
49051W        W92145   8.037  27.502  31.409 -0.2511 -0.1547 -0.4167
49052W        W92146   6.888  22.757  31.925  0.0287 -0.0305  0.0383
49053W        W92147   9.212  29.072   0.022 -0.1063 -0.1240 -0.1730
49054W        W92148  10.875  27.647  30.638  0.0975 -0.3445 -0.4346
49055W        W92149  11.269  26.161   0.406  0.1248 -0.1288  0.2720
49056W        W92150   7.114  32.167  17.017 -0.1382  0.1833 -0.0704
49057W        W92151   7.572  30.585  15.761 -0.1424 -0.0166  0.0893
49058W        W92152   9.867  30.438  16.219  0.0855 -0.1551 -0.2318
49059W        W92153  12.046  30.532  15.972 -0.0078 -0.1596  0.0303
49060W        W92154   6.448  29.569  16.320  0.1329 -0.2241 -0.0096
49061W        W92155   8.652  31.080  16.494 -0.0448 -0.1155  0.1572
49062W        W92156   6.728  29.009  17.614  0.1469  0.2426 -0.1908
49063W        W92157   9.896  31.861  18.094  0.1594 -0.2688  0.1409
49064W        W92158   9.051  32.082  17.534  0.2560  0.2342 -0.2384
49065W        W92159   8.932  31.617  15.541  0.3266 -0.1969 -0.1195
49066W        W92160   7.944  30.339  18.289  0.1572 -0.2533  0.0518
49067W        W92161   7.840  32.177  17.705 -0.0970 -0.0662  0.1931
49068W        W92162   8.920  28.949  16.102  0.2866 -0.1520 -0.0170
49069W        W92163   6.380  28.951  16.836 -0.0997 -0.0861  0.1655
49070W        W92164  10.400  32.214  18.859  0.1230 -0.2693  0.1581
49071W        W92165   7.744  31.374  16.526  0.0734 -0.0382 -0.1616
49072W        W92166   7.972  29.963  16.223  0.2081 -0.0466 -0.2435
49073W        W92167   7.888  30.015  17.086  0.0876 -0.3062 -0.0975
49074W        W92168   9.529  32.347  16.189 -0.0354 -0.1612  0.0150
49075W        W92169   7.103  29.970  18.315  0.1718 -0.0543 -0.0283
49076W        W92170   9.179  29.967  19.067 -0.3442  0.1310 -0.1416
49077W        W92171   9.104  31.466  16.640 -0.0949  0.0618  0.0581
49078W        W92172   7.751  31.438  17.084 -0.3183 -0.1690 -0.1630
49079W        W92173   7.104  30.433  17.006  0.3013 -0.2223  0.0148
49080W        W92174   7.299  30.922  17.077 -0.0351 -0.1834  0.0412
49081W        W92175   9.686  31.016  17.657 -0.1117  0.0219  0.0155
49082W        W92176   9.922  31.583  17.664  0.1203  0.0595 -0.1257
49083W        W92177  10.891  32.231  17.233  0.0888 -0.2158 -0.1926
49084W        W92178   9.937  33.526  16.421 -0.0635  0.1794 -0.0560
49085W        W92179   8.816  30.898  19.375 -0.0153  0.1118 -0.2213
49086W        W92180   6.652  31.608  17.956 -0.1124 -0.0318 -0.0175
49087W        W92181   7.308  31.300  16.811  0.2075  0.0357  0.0263
49088W        W92182   9.111  32.282  16.386 -0.0341  0.1737 -0.1025
49089W        W92183  11.360  31.203  15.789  0.2509 -0.1947  0.1767
49090W        W92184   9.524  32.817  17.903  0.0379 -0.0744 -0.0034
49091W        W92185   7.227  31.941  18.582  0.2004  0.1987  0.4190
49092W        W92186   6.503  31.201  15.735  0.0367 -0.0438 -0.2998
49093W        W92187   7.708  33.496  17.649  0.0546 -0.3276 -0.3901
49094W        W92188   8.109  32.176  18.847  0.1412  0.1722 -0.0754
49095W        W92189   8.778  31.768  18.432  0.0200  0.1251 -0.1491
49096W        W92190   8.350  32.668  16.557  0.1324  0.0037  0.0969
49097W        W92191   8.258  33.618  16.220 -0.1681  0.2821 -0.0357
49098W        W92192   8.376  30.038  17.361  0.0440  0.2851 -0.1148
49099W        W92193   7.900  31.261  19.753 -0.1787  0.2315 -0.0448
49100W        W92194   7.190  31.663  16.388 -0.2488 -0.1815 -0.2261
49101W        W92195  10.150  31.430  19.093  0.2095  0.1042 -0.2242
49102W        W92196   8.028  32.713  15.919  0.0020 -0.1514 -0.0721
49103W        W92197   9.449  30.862  16.111  0.1387  0.0461  0.1209
49104W        W92198   8.847  30.608  15.223  0.0507 -0.0455  0.0050
49105W        W92199   8.958  30.028  16.172  0.0482  0.0131 -0.1346
49106W        W92200   8.181  28.437  16.980 -0.1926 -0.1065 -0.2116
49107W        W92201   8.318  32.520  17.915 -0.1505 -0.0950  0.3635
49108W        W92202   7.136  29.433  17.547 -0.0328  0.0827 -0.1375
49109W        W92203   9.488  32.620  18.809  0.3301  0.1651 -0.3160
49110W        W92204   8.730  30.268  17.138  0.0766  0.2257 -0.2684
49111W        W92205   9.761  28.930  17.118  0.3205  0.2542  0.0147
49112W        W92206   6.930  32.900  18.570  0.2697 -0.0149  0.0439
49113W        W92207   8.001  31.656  17.546 -0.3792  0.3250  0.0359
49114W        W92208  10.319  32.472  15.505  0.0975  0.0297  0.1001
49115W        W92209  11.731  31.530  18.416 -0.1976  0.2454  0.0831
49116W        W92210   9.838  31.859  15.082 -0.0732  0.0108 -0.0725
49117W        W92211   8.357  30.647  17.648 -0.0226 -0.1797  0.1301
49118W        W92212   6.340  29.870  18.733 -0.0266 -0.0622 -0.2127
49119W        W92213   7.520  30.788  17.513 -0.1033 -0.0212 -0.0887
49120W        W92214   9.165  29.555  15.509 -0.0063  0.0898  0.1653
49121W        W92215  11.747  31.369  19.521  0.2869 -0.2955  0.5655
49122W        W92216   6.016  30.798  19.196 -0.0150  0.2503  0.0835
49123W        W92217  11.217  30.344  17.127  0.0101  0.3652 -0.2774
49124W        W92218   9.418  32.112  17.204  0.2767 -0.4491  0.0213
49125W        W92219   9.872  31.827  17.199 -0.2778  0.0351 -0.0107
49126W        W92220   9.797  31.338  14.980 -0.0507  0.1579  0.1310
49127W        W92221  10.019  29.293  16.819  0.0287  0.0321 -0.1423
49128W        W92222   9.465  29.521  17.082  0.2676  0.1783  0.1410
49129W        W92223   9.049  31.630  17.135  0.1079  0.4652  0.1346
49130W        W92224   8.239  32.218  16.833 -0.3523 -0.0518 -0.2850
49131W        W92225  10.277  32.208  18.162  0.1164 -0.1111 -0.2101
49132W        W92226  10.312  30.780  14.963  0.2257  0.0754 -0.1042
49133W        W92227   6.635  32.531  18.791 -0.1169 -0.1262  0.2245
49134W        W92228   9.899  30.294  18.305  0.1060  0.1679  0.0681
49135W        W92229  10.374  31.965  19.258 -0.1655  0.1275 -0.3114
49136W        W92230   7.349  32.583  16.862  0.1939 -0.2237  0.0811
49137W        W92231   6.133  30.526  18.098 -0.1704  0.1108  0.1268
49138W        W92232   8.489  31.957  15.910  0.3984  0.2232 -0.1041
49139W        W92233   8.762  29.307  17.872 -0.0862 -0.1215 -0.0188
49140W        W92234   8.944  32.314  18.503  0.3287  0.2585  0.1815
49141W        W92235   9.369  30.338  15.874 -0.1068  0.4406 -0.0407
49142W        W92236   7.635  29.583  17.297 -0.2589 -0.0856 -0.0236
49143W        W92237   8.654  30.067  17.775  0.0223 -0.1958  0.2525
49144W        W92238   8.763  31.248  17.025 -0.1179  0.2833 -0.1997
49145W        W92239  11.189  32.663  15.995 -0.1196 -0.1716 -0.2067
49146W        W92240  10.946  30.094  15.813  0.1132  0.1671  0.2876
49147W        W92241   8.957  31.797  16.009 -0.3739 -0.1358 -0.1394
49148W        W92242   6.742  29.947  19.101  0.3645  0.0558  0.1621
49149W        W92243   7.386  29.664  16.287 -0.2032 -0.2593 -0.3219
49150W        W92244   8.521  30.133  19.278 -0.0368  0.0267 -0.2856
49151W        W92245   6.665  29.676  17.417 -0.0398  0.1698 -0.0613
49152W        W92246   9.648  29.783  18.401 -0.0268  0.1102  0.0360
49153W        W92247   8.349  29.098  15.451 -0.1057 -0.0722  0.0614
49154W        W92248   9.693  31.269  16.012 -0.1503 -0.2622  0.0788
49155W        W92249   9.046  30.815  17.175 -0.0538  0.2235 -0.1235
49156W        W92250   5.989  31.631  16.536 -0.1315  0.5208 -0.1221
49157W        W92251   9.972  28.542  19.238  0.1566 -0.1648 -0.2712
49158W        W92252  11.085  32.735  16.908 -0.0656  0.3635 -0.0612
49159W        W92253  10.612  33.308  18.795  0.1786  0.2189 -0.2006
49160W        W92254  10.755  31.906  16.217 -0.1351 -0.2491 -0.0237
49161W        W92255   7.853  30.887  18.514 -0.1009  0.2418  0.2189
49162W        W92256   7.039  30.426  15.761 -0.0962  0.0027 -0.2011
49163W        W92257   7.986  33.032  17.499 -0.1984  0.0861  0.1191
49164W        W92258   8.824  32.711  17.334  0.3283  0.1929 -0.0460
49165W        W92259   8.944  29.961  16.683 -0.0537  0.1113  0.3053
49166W        W92260  10.351  32.470  17.605  0.0866  0.0009 -0.1668
49167W        W92261   9.365  31.825  16.315 -0.1420 -0.1005  0.1886
49168W        W92262   7.875  31.523  19.310  0.1211 -0.0201 -0.1861
49169W        W92263  10.531  29.262  18.348  0.0576  0.0649  0.0379
49170W        W92264  10.548  30.853  16.606  0.0591 -0.3309 -0.1157
49171W        W92265  10.146  31.204  16.310 -0.2423 -0.1785  0.0976
49172W        W92266   7.826  29.480  16.310  0.2431 -0.1931 -0.0216
49173W        W92267   9.623  33.181  16.695  0.1046  0.2432  0.3690
49174W        W92268   7.465  31.759  16.729 -0.2720  0.4865  0.0197
49175W        W92269   7.447  32.562  15.712 -0.0515  0.1337 -0.2317
49176W        W92270   9.001  33.135  17.066  0.3173 -0.4781  0.1435
49177W        W92271  10.283  30.732  16.098 -0.1796  0.2110  0.0595
49178W        W92272   6.253  32.181  19.733 -0.2938  0.1237  0.3213
49179W        W92273  10.288  30.485  17.985 -0.2805 -0.3719 -0.0678
49180W        W92274   7.901  31.740  16.233  0.0825  0.0753 -0.1406
49181W        W92275   8.058  31.048  19.212  0.0126  0.1558  0.2731
49182W        W92276   8.508  29.764  16.915  0.3517  0.0567 -0.0299
49183W        W92277  10.501  31.128  15.260 -0.1308  0.0648 -0.2456
49184W        W92278   9.983  32.406  19.393 -0.1811 -0.2678  0.2312
49185W        W92279  10.703  29.899  16.744  0.0421  0.0679 -0.1637
49186W        W92280   9.836  29.899  16.198  0.1156  0.1113 -0.3406
49187W        W92281   9.609  29.257  15.772  0.0711  0.2099 -0.5776
49188W        W92282   7.690  31.365  17.753 -0.0269  0.1478  0.0104
49189W        W92283  10.678  31.643  17.074 -0.0049 -0.0334 -0.1324
49190W        W92284   9.071  32.026  16.804 -0.1260 -0.2424  0.0566
49191W        W92285   8.775  29.835  15.769 -0.0412 -0.1364 -0.1570
49192W        W92286  11.312  31.852  16.390 -0.2653  0.0837 -0.0261
49193W        W92287   8.166  30.176  17.916 -0.0786  0.0923 -0.1150
49194W        W92288   8.498  31.070  18.845  0.3537 -0.1139 -0.1252
49195W        W92289   9.382  30.973  18.160  0.0897 -0.0611  0.0179
49196W        W92290   9.200  31.897  18.745  0.2418 -0.3081  0.0219
49197W        W92291   8.442  31.057  14.703  0.4033 -0.1907 -0.0063
49198W        W92292   8.704  30.153  18.716 -0.0893  0.0214  0.3078
49199W        W92293   6.980  31.192  15.314  0.3186 -0.0602 -0.0990
49200W        W92294   9.935  29.696  17.616 -0.0436  0.0367 -0.1512
49201W        W92295   9.870  30.664  17.983  0.3608  0.1371 -0.3600
49202W        W92296   8.052  29.842  18.359 -0.3726  0.0774  0.4834
49203W        W92297  10.437  31.007  19.266 -0.0006 -0.0061 -0.3433
49204W        W92298  11.330  31.609  15.347 -0.1022 -0.2787  0.1012
49205W        W92299   9.151  30.989  17.610 -0.0556  0.0920 -0.2485
49206W        W92300   7.200  30.691  15.392  0.2130 -0.1613 -0.0324
49207W        W92301   9.391  30.539  18.379  0.1433 -0.1174  0.0889
49208W        W92302   7.990  32.633  18.770 -0.2504 -0.0616 -0.1827
49209W        W92303   7.137  31.233  19.010 -0.4439  0.0789 -0.0390
49210W        W92304   9.460  31.555  19.995  0.3953 -0.2781  0.0524
49211W        W92305   9.762  30.785  16.956 -0.0511 -0.1955 -0.0575
49212W        W92306   7.199  30.128  18.776 -0.3550 -0.0858 -0.1477
49213W        W92307   9.967  29.684  15.688  0.0112 -0.2049  0.0455
49214W        W92308   8.069  33.195  16.519 -0.2101 -0.0591  0.0336
49215W        W92309   8.359  31.638  15.411  0.3786  0.1157  0.2415
49216W        W92310   7.676  30.042  18.617 -0.0766 -0.0525 -0.1533
49217W        W92311   9.522  31.760  16.836 -0.1190 -0.1553  0.1961
49218W        W92312   8.064  31.176  16.123  0.2704 -0.0500 -0.3071
49219W        W92313   7.778  31.353  18.322  0.0585 -0.0096 -0.0310
49220W        W92314   7.193  33.053  16.392 -0.0902 -0.2494 -0.3177
49221W        W92315   9.472  29.207  19.119 -0.0737  0.2594  0.2432
49222W        W92316   6.756  32.500  17.824 -0.0546 -0.0871  0.1109
49223W        W92317   8.452  30.551  15.543  0.1471  0.2663  0.0655
49224W        W92318   5.975  31.637  17.018 -0.0382  0.1958 -0.0916
49225W        W92319  10.284  30.181  16.938  0.1561 -0.0689 -0.1057
49226W        W92320   9.299  30.618  15.405  0.0631 -0.0340  0.0851
49227W        W92321   8.662  31.215  18.097  0.0522 -0.0603  0.1548
49228W        W92322   8.846  29.045  17.325  0.2582 -0.0723 -0.0147
49229W        W92323   7.439  33.013  18.751 -0.2235  0.2220 -0.1164
49230W        W92324  10.267  30.188  17.487 -0.0820  0.0328  0.0306
49231W        W92325   9.269  31.039  15.721  0.1948  0.0420 -0.1592
49232W        W92326  10.545  30.790  17.629 -0.2001 -0.3428  0.1240
49233W        W92327   9.657  30.030  18.828  0.2374 -0.1705 -0.0144
49234W        W92328   9.055  30.519  16.299  0.2998  0.0434 -0.0362
49235W        W92329  10.935  31.748  19.163  0.0101 -0.0823  0.0143
49236W        W92330   8.665  30.640  16.730  0.0494  0.1751  0.0929
49237W        W92331   7.043  33.390  17.604 -0.2590 -0.4172  0.1402
49238W        W92332   8.533  31.668  17.956  0.0197  0.0284 -0.2654
49239W        W92333   7.828  30.440  16.570 -0.1051  0.0710 -0.1756
49240W        W92334   7.769  30.956  16.875  0.0422  0.0337  0.0914
49241W        W92335   6.180  29.300  18.635 -0.4542 -0.2171 -0.1208
49242W        W92336  10.884  31.465  17.671  0.2705 -0.1164  0.1761
49243W        W92337   7.041  29.482  17.061 -0.5575 -0.2916  0.2379
49244W        W92338   7.405  30.117  15.618 -0.1885  0.0962  0.0120
49245W        W92339   9.472  31.388  17.354  0.0730 -0.0327  0.0189
49246W        W92340   9.298  31.763  19.512 -0.1306  0.0542 -0.0659
49247W        W92341   9.775  30.537  18.768 -0.1289 -0.0932  0.1743
49248W        W92342   8.156  31.901  18.416 -0.2665 -0.0525  0.1855
49249W        W92343   9.149  28.448  18.184  0.0953 -0.2302 -0.3443
49250W        W92344  11.576  32.589  15.634  0.2546  0.2272  0.0315
49251W        W92345   8.352  32.703  19.554  0.3016 -0.0315 -0.0730
49252W        W92346   8.158  31.934  17.198 -0.0814 -0.1400 -0.2214
49253W        W92347   5.792  31.767  15.857 -0.0013 -0.2908 -0.1491
49254W        W92348   8.697  32.371  16.969 -0.1391  0.2464  0.0344
49255W        W92349   8.309  29.704  17.831  0.0197 -0.2815 -0.0823
49256W        W92350   6.387  31.052  16.547  0.0122 -0.1358  0.0419
49257W        W92351   7.401  30.752  16.622 -0.2866 -0.0153  0.0616
49258W        W92352   7.261  31.192  18.535 -0.3943 -0.2555  0.0985
49259W        W92353   8.743  28.858  15.629 -0.0590 -0.0905 -0.2009
49260W        W92354   9.119  30.911  16.595 -0.2610  0.2385  0.0340
49261W        W92355   8.859  29.584  18.700 -0.2418 -0.0255 -0.0142
49262W        W92356  10.121  30.020  17.971 -0.2221 -0.1643 -0.4137
49263W        W92357   9.396  31.137  16.959  0.2337 -0.0990 -0.3173
49264W        W92358   9.243  30.243  17.362 -0.2488 -0.4131  0.5194
49265W        W92359   8.609  29.776  18.208  0.5337  0.3030  0.3206
49266W        W92360  10.187  31.203  15.717 -0.1576  0.1052  0.2613
49267W        W92361   5.730  30.505  19.525 -0.0715  0.1305 -0.2305
49268W        W92362   8.983  33.621  19.868 -0.0233  0.2382 -0.2760
49269W        W92363   7.338  30.708  19.320 -0.0283 -0.0506 -0.1610
49270W        W92364   8.927  29.857  17.326  0.0765  0.2831 -0.0495
49271W        W92365   8.281  29.599  16.017  0.0840  0.1783  0.3734
49272W        W92366   8.527  32.159  18.267 -0.0043  0.0667 -0.2113
49273W        W92367  10.606  32.573  18.054  0.0186 -0.1096  0.1011
49274W        W92368  10.232  31.694  16.762 -0.0093 -0.0623  0.2531
49275W        W92369  11.902  29.800  16.624  0.0447 -0.0982 -0.3785
49276W        W92370   7.472  31.861  17.714  0.3486  0.1606  0.0208
49277W        W92371  10.093  31.171  17.313  0.0452 -0.3722 -0.0861
49278W        W92372   9.844  31.382  16.941 -0.0708 -0.1209  0.1714
49279W        W92373   7.903  30.387  17.498  0.0249  0.1134 -0.2869
49280W        W92374   8.697  29.451  20.798 -0.1591 -0.0853  0.3646
49281W        W92375  10.238  30.738  18.389  0.0700 -0.2880  0.3487
49282W        W92376   9.151  29.542  16.462  0.0961 -0.2759 -0.1776
49283W        W92377   9.186  30.374  18.794  0.0025  0.2589  0.1941
49284W        W92378   9.506  29.874  17.450 -0.0962 -0.1014  0.0801
49285W        W92379   7.524  30.524  18.739 -0.1770  0.1515 -0.1203
49286W        W92380   8.148  29.715  19.345 -0.0363  0.5731  0.0532
49287W        W92381   9.865  33.234  17.132 -0.0230 -0.1112  0.0794
49288W        W92382   8.564  31.167  15.492  0.1149  0.0387  0.3546
49289W        W92383  11.022  30.613  17.844  0.1457 -0.0283 -0.0774
49290W        W92384  10.302  31.169  16.869  0.0650 -0.1054  0.3125
49291W        W92385   9.783  30.763  15.762  0.1075  0.0743  0.1803
49292W        W92386   5.800  30.012  17.027 -0.1487 -0.0630  0.6233
49293W        W92387  10.273  30.436  18.757 -0.0912 -0.2796  0.0626
49294W        W92388   8.526  30.415  16.320 -0.0889 -0.0502  0.2806
49295W        W92389   9.660  29.343  18.290 -0.1448  0.0512 -0.0263
49296W        W92390   9.952  32.505  16.451 -0.1178  0.2071 -0.1139
49297W        W92391  10.396  31.685  17.957 -0.0443  0.0478  0.0426
49298W        W92392   9.138  30.401  16.785  0.0956 -0.1462 -0.1802
49299W        W92393   7.723  30.806  16.171  0.1488 -0.1748 -0.1169
49300W        W92394   6.579  32.164  18.154 -0.3060 -0.0273 -0.0573
49301W        W92395   8.774  30.404  15.881 -0.0356  0.2379  0.3388
49302W        W92396   8.549  31.375  15.934 -0.4165 -0.3855  0.1352
49303W        W92397   8.309  32.037  17.747 -0.2212 -0.2067  0.2303
49304W        W92398  10.550  33.424  19.396  0.2582 -0.2541  0.0703
49305W        W92399  10.390  30.186  16.415 -0.0021  0.2509 -0.2599
49306W        W92400   9.892  30.140  19.410 -0.0352  0.1300 -0.1350
49307W        W92401   7.105  32.287  15.494 -0.0708 -0.0318  0.3429
49308W        W92402   9.546  30.079  18.026 -0.0425  0.1420  0.1362
49309W        W92403   7.365  33.700  17.356 -0.2154 -0.0829 -0.0644
49310W        W92404   5.975  30.573  19.998 -0.0674 -0.2383  0.0183
49311W        W92405   7.778  32.658  17.922  0.0201 -0.1536  0.1440
49312W        W92406   8.838  30.551  17.518 -0.0469 -0.4541  0.2236
49313W        W92407   9.421  30.153  16.348  0.0702  0.2184 -0.0835
49314W        W92408   8.277  31.389  17.164 -0.1592 -0.2018 -0.2699
49315W        W92409  10.530  30.149  18.330 -0.0671 -0.2236  0.1411
49316W        W92410   8.860  31.678  19.189 -0.1567 -0.0484  0.0218
49317W        W92411   7.917  31.065  17.369  0.2188 -0.2743 -0.0105
49318W        W92412   9.808  30.966  18.434  0.2981 -0.1330 -0.0456
49319W        W92413  11.146  30.884  16.671 -0.0055  0.0496 -0.0492
49320W        W92414   7.420  31.814  17.211 -0.1403 -0.0162  0.2336
49321W        W92415   7.049  30.570  18.476 -0.1766  0.0588 -0.4121
49322W        W92416   9.964  31.494  20.827 -0.1408  0.0900  0.2690
49323W        W92417   8.981  31.333  18.454  0.0834  0.0218 -0.1399
49324W        W92418   9.189  29.343  16.015 -0.2654 -0.0628 -0.2949
49325W        W92419   8.078  33.124  15.409 -0.0969 -0.1383  0.0608
49326W        W92420   7.460  31.607  19.799 -0.0511  0.2496 -0.0220
49327W        W92421   6.554  30.024  17.780 -0.2028 -0.3699 -0.1789
49328W        W92422   9.439  33.279  16.175  0.0255 -0.4442  0.2269
49329W        W92423   9.971  32.069  15.492  0.1412  0.0370 -0.3547
49330W        W92424   9.417  32.278  15.669 -0.0656  0.0202  0.0255
49331W        W92425  10.714  32.701  17.256 -0.0179 -0.3003 -0.3154
49332W        W92426   8.355  30.077  15.811  0.0399 -0.0197 -0.2428
49333W        W92427   7.514  32.709  17.378 -0.0081  0.0796  0.1024
49334W        W92428   7.634  31.131  15.691  0.2684  0.3811 -0.0947
49335W        W92429  10.314  32.827  15.887  0.0262  0.3019  0.2472
49336W        W92430   9.026  32.490  15.928 -0.0220 -0.1489  0.0684
49337W        W92431   9.419  31.982  18.290 -0.2774 -0.2691  0.0557
49338W        W92432   9.848  30.190  15.733 -0.0388  0.1944 -0.1792
49339W        W92433  11.551  29.257  18.997  0.0614 -0.1711 -0.0701
49340W        W92434  10.965  31.438  16.065 -0.1259 -0.1287 -0.3440
49341W        W92435   9.233  32.893  19.859 -0.1129  0.0288 -0.2042
49342W        W92436   9.394  30.916  18.687  0.0069 -0.3077  0.0797
49343W        W92437   9.386  29.824  15.946  0.0587 -0.0870 -0.0145
49344W        W92438   8.599  31.531  18.817  0.0664 -0.0026  0.1715
49345W        W92439  11.149  29.207  18.402  0.2697  0.0262  0.0701
49346W        W92440   6.646  32.939  19.099  0.1688 -0.1992 -0.1374
49347W        W92441  11.021  30.898  16.162  0.2756  0.0221  0.2121
49348W        W92442   6.874  31.388  16.125 -0.2719 -0.2001  0.0942
49349W        W92443   8.664  32.092  16.518 -0.1914 -0.0779 -0.2154
49350W        W92444   9.378  28.908  18.258  0.0227  0.0469  0.2506
49351W        W92445   8.914  30.939  16.063 -0.1363 -0.0134 -0.0019
49352W        W92446   9.002  29.732  17.929 -0.0839  0.0089 -0.0854
49353W        W92447   9.423  32.788  16.469  0.2702 -0.0812  0.1113
49354W        W92448   7.516  33.054  17.785  0.0647  0.1878  0.1838
49355W        W92449   7.430  31.689  18.160  0.2314 -0.1590 -0.0055
49356W        W92450   8.535  29.891  16.440 -0.0066 -0.2345  0.1939
49357W        W92451  10.643  31.498  16.424 -0.2312 -0.1321 -0.0952
49358W        W92452   7.952  30.773  17.943  0.1482  0.3257 -0.0385
49359W        W92453  10.686  30.265  17.829 -0.2679  0.1230 -0.1433
49360W        W92454   8.936  31.543  17.632 -0.0624  0.0405  0.0965
49361W        W92455  10.734  30.327  17.341 -0.1874 -0.0561 -0.0772
49362W        W92456  10.019  30.708  17.487 -0.2964  0.0545 -0.0280
49363W        W92457   7.183  29.742  19.645  0.0633 -0.2408  0.1342
49364W        W92458   9.690  31.085  16.534 -0.0552  0.0986 -0.3047
49365W        W92459  10.375  31.820  18.460 -0.2213  0.2297  0.1629
49366W        W92460   9.279  32.109  15.223  0.3755 -0.0102 -0.2351
49367W        W92461   9.256  32.520  17.459  0.1944 -0.0027  0.0910
49368W        W92462   7.264  29.881  17.808 -0.1341 -0.0542  0.0709
49369W        W92463   9.526  29.583  17.865  0.0200 -0.0002 -0.3043
49370W        W92464   8.604  31.195  17.542 -0.0499  0.1129  0.1962
49371W        W92465   6.616  29.720  18.231 -0.1057  0.0199 -0.0460
49372W        W92466   9.214  32.672  16.969  0.0322  0.3640  0.2277
49373W        W92467   7.811  29.684  15.817  0.4586 -0.3263 -0.2891
49374W        W92468   9.359  31.603  15.231  0.1120 -0.0075  0.0033
49375W        W92469   9.362  30.496  17.824 -0.1143  0.0209  0.1992
49376W        W92470   7.761  33.840  14.918 -0.0653 -0.0774  0.4232
49377W        W92471   9.467  31.397  19.037 -0.0548  0.0414  0.1332
49378W        W92472   9.792  31.583  16.432  0.1382  0.1935  0.1131
49379W        W92473   7.856  29.916  17.677 -0.0485  0.0911 -0.2065
49380W        W92474   9.411  33.425  17.046  0.0589 -0.0232  0.1807
49381W        W92475  10.806  31.246  16.838  0.0701 -0.2945  0.1000
49382W        W92476   7.966  29.243  15.833  0.0871  0.0179  0.1875
49383W        W92477   8.222  31.205  17.838 -0.0010 -0.0331  0.0844
49384W        W92478   7.022  32.611  15.965 -0.0077 -0.0233  0.0785
49385W        W92479  11.630  30.931  17.232  0.3791 -0.0382 -0.1370
49386W        W92480   9.509  30.718  17.370  0.2187  0.0954 -0.0505
49387W        W92481   9.150  32.578  14.911 -0.0694 -0.1797 -0.1536
49388W        W92482   9.879  29.494  18.772  0.0728  0.4292  0.1141
49389W        W92483   9.875  32.449  17.863  0.0095  0.1695 -0.1568
49390W        W92484   8.017  32.389  18.275 -0.1520 -0.0058  0.0961
49391W        W92485   8.236  31.274  16.657 -0.0075 -0.3636 -0.2215
49392W        W92486   8.113  31.546  18.900 -0.0558 -0.0406 -0.0422
49393W        W92487   8.995  33.341  15.247 -0.2319  0.2057  0.0394
49394W        W92488   8.370  32.223  15.448 -0.0880  0.2240  0.0700
49395W        W92489   9.899  32.482  15.867  0.0482  0.2948  0.0627
49396W        W92490   9.043  30.244  18.128  0.1334 -0.1435  0.0365
49397W        W92491  11.969  31.841  17.297 -0.1997  0.2863 -0.0669
49398W        W92492   8.639  28.462  17.372  0.0608 -0.1817 -0.1895
49399W        W92493  11.727  30.219  17.445  0.0687  0.0747 -0.1536
49400W        W92494   8.735  29.321  15.717  0.1343  0.1112  0.0030
49401W        W92495   7.981  31.700  18.011  0.1209  0.1653  0.0889
49402W        W92496   6.760  30.895  16.070 -0.0709 -0.0049  0.1780
49403W        W92497   7.780  30.804  15.248 -0.0498 -0.0548 -0.3470
49404W        W92498   7.571  30.416  17.898  0.0773 -0.0434 -0.1535
49405W        W92499   8.373  30.588  19.454  0.3312  0.0302 -0.0273
49406W        W92500   7.610  29.955  18.111  0.2183 -0.0346 -0.2306
49407W        W92501   8.269  30.257  16.704  0.1188 -0.0761 -0.2841
49408W        W92502   8.076  30.922  15.618 -0.0789  0.3470  0.0783
49409W        W92503  10.612  31.090  16.139  0.0747  0.0103  0.0598
49410W        W92504   6.868  29.702  18.687  0.1531  0.1226  0.1017
49411W        W92505   6.816  29.009  17.119 -0.1177  0.2148  0.0246
49412W        W92506  10.368  32.147  17.212  0.0613 -0.0803 -0.1837
49413W        W92507  10.954  31.929  15.534 -0.2659  0.2162 -0.2606
49414W        W92508   8.229  30.576  17.120  0.1614 -0.1044 -0.1568
49415W        W92509   9.231  33.036  20.729  0.0835 -0.1897  0.1321
49416W        W92510   6.922  32.099  16.465  0.2103 -0.0807 -0.4245
49417W        W92511   9.333  30.968  19.201  0.0115  0.0668  0.1793
49418W        W92512   8.078  30.270  19.653 -0.0139 -0.0093 -0.1024
49419W        W92513   7.266  28.406  17.077  0.0471  0.1052 -0.1409
49420W        W92514   8.505  28.849  16.436 -0.0051 -0.0688  0.1516
49421W        W92515   8.854  32.691  16.610 -0.1165  0.1863  0.0713
49422W        W92516   9.648  32.702  14.856  0.3839 -0.2376  0.1382
49423W        W92517   8.262  31.358  18.343 -0.1041 -0.0023 -0.2354
49424W        W92518   7.629  32.670  18.447 -0.0076  0.1417 -0.2236
49425W        W92519   7.754  29.391  18.402 -0.2144  0.0293 -0.0276
49426W        W92520   9.681  31.257  15.460 -0.1383  0.0476 -0.0102
49427W        W92521   8.994  31.960  17.995  0.3620 -0.0886 -0.2053
49428W        W92522   9.996  32.002  16.354 -0.1084 -0.0461  0.0877
49429W        W92523   9.463  30.008  16.968 -0.1929  0.1583  0.2031
49430W        W92524   9.394  31.685  15.723  0.1883 -0.1280  0.2304
49431W        W92525   5.494  28.744  18.917 -0.3690  0.2591  0.1053
49432W        W92526   9.200  29.987  18.499  0.0482  0.4557  0.3128
49433W        W92527  11.476  29.690  18.302  0.0403  0.0265  0.0927
49434W        W92528   8.195  30.772  16.473 -0.0505 -0.0151 -0.2088
49435W        W92529  10.183  31.142  17.789 -0.1124 -0.1341  0.0140
49436W        W92530   8.665  32.390  15.092 -0.0014  0.1146  0.4481
49437W        W92531   5.827  30.335  16.637  0.3888  0.3305  0.2034
49438W        W92532   9.223  31.498  18.016  0.0414  0.0406 -0.0423
49439W        W92533   8.919  30.757  17.991  0.0816 -0.0151  0.0281
49440W        W92534  10.062  32.192  16.841 -0.0001 -0.0682 -0.2206
49441W        W92535   8.760  32.740  18.176 -0.4387 -0.1079 -0.1322
49442W        W92536   8.451  30.871  16.026 -0.0480 -0.1011  0.0639
49443W        W92537  11.490  31.309  14.953  0.0086 -0.0573 -0.1717
49444W        W92538   8.620  32.007  17.256 -0.1661  0.2606  0.1501
49445W        W92539  10.246  32.876  18.024 -0.2685 -0.0157 -0.4571
49446W        W92540   9.779  32.302  18.400 -0.0378 -0.2422  0.0725
49447W        W92541   9.220  31.335  16.100  0.3257 -0.1703  0.2285
49448W        W92542   6.435  27.935  17.829  0.0426  0.0160  0.2493
49449W        W92543   8.200  32.606  17.421 -0.2106 -0.2005 -0.1407
49450W        W92544   7.574  32.113  16.098 -0.0364 -0.0700 -0.0943
49451W        W92545  10.380  30.701  17.143 -0.2643  0.1302 -0.2419
49452W        W92546   7.254  29.921  17.075 -0.4016 -0.2276  0.0142
49453W        W92547   8.490  28.585  15.976  0.3178  0.0861 -0.1486
49454W        W92548   9.495  31.892  17.753 -0.0212 -0.1672 -0.3623
49455W        W92549   9.700  31.869  18.669  0.3048  0.1834 -0.1720
49456W        W92550   8.492  30.662  22.156 -0.1230  0.3652 -0.1362
49457W        W92551   7.089  30.468  19.755 -0.2479 -0.1107 -0.4574
49458W        W92552   9.121  29.123  18.672 -0.0859 -0.1926  0.2590
49459W        W92553  11.200  30.692  20.021 -0.0199 -0.1549 -0.1055
49460W        W92554   6.190  28.339  22.528 -0.0058 -0.5155  0.1539
49461W        W92555   9.503  32.441  19.955 -0.0459  0.2676  0.2377
49462W        W92556   8.132  29.893  22.118  0.1075  0.0814  0.3408
49463W        W92557  10.028  32.953  20.521 -0.2375  0.0326  0.1646
49464W        W92558  11.136  32.863  21.341 -0.1988 -0.0190  0.1068
49465W        W92559  10.512  31.468  19.457  0.1384  0.4271 -0.1975
49466W        W92560   8.604  30.158  21.859  0.1062 -0.2473 -0.1983
49467W        W92561   9.692  32.829  21.905  0.2814  0.1690 -0.2551
49468W        W92562   7.626  30.161  20.416  0.2475  0.2546  0.0561
49469W        W92563   6.877  28.343  21.636  0.1981  0.2470  0.2198
49470W        W92564  10.236  30.021  22.712  0.0181  0.0499  0.3929
49471W        W92565   7.840  30.794  19.591  0.1188 -0.4193 -0.1201
49472W        W92566   7.362  29.928  21.691 -0.1778 -0.0006 -0.3015
49473W        W92567   9.555  30.090  20.866 -0.0742 -0.0547  0.2121
49474W        W92568   8.672  33.102  20.565 -0.0795 -0.4361  0.3355
49475W        W92569   8.857  29.450  22.061 -0.1125  0.0061  0.0566
49476W        W92570   9.781  29.196  22.480 -0.0104 -0.2731  0.1928
49477W        W92571   8.927  32.344  21.204 -0.2412  0.0928  0.0014
49478W        W92572   6.320  29.455  19.130 -0.0683  0.0103  0.0259
49479W        W92573   5.921  30.068  22.364 -0.0049 -0.0511  0.0421
49480W        W92574   7.485  31.142  21.565 -0.0201 -0.1907 -0.0304
49481W        W92575  10.337  31.055  20.114 -0.1362  0.0540  0.2183
49482W        W92576   9.902  31.081  20.446 -0.0091 -0.1458 -0.0887
49483W        W92577   9.197  32.092  20.818  0.0271  0.1984  0.1321
49484W        W92578   9.338  32.352  21.711  0.0974  0.2968  0.0560
49485W        W92579   8.701  31.185  23.682  0.0530  0.1856 -0.0669
49486W        W92580   6.771  29.776  21.040 -0.3868 -0.0693  0.0551
49487W        W92581   6.647  32.047  21.571  0.1019 -0.0809 -0.0586
49488W        W92582   8.165  33.518  19.844 -0.1501  0.0088 -0.0436
49489W        W92583   9.574  31.625  20.529  0.6219  0.1827 -0.1254
49490W        W92584   9.093  31.596  23.790  0.0764  0.0309 -0.1081
49491W        W92585   8.504  32.055  23.288 -0.0983 -0.0271  0.1742
49492W        W92586   7.330  32.291  20.612  0.1498  0.0717 -0.0682
49493W        W92587   9.921  31.625  23.473 -0.0736  0.0381 -0.1799
49494W        W92588   8.795  31.305  22.372  0.0628  0.0391  0.0768
49495W        W92589   8.480  30.507  22.888  0.1309 -0.1483 -0.2295
49496W        W92590   7.370  30.633  20.280  0.1633 -0.1280  0.0759
49497W        W92591   8.496  32.361  19.181 -0.1487 -0.0262  0.0352
49498W        W92592   7.579  31.961  21.052  0.4558  0.0232 -0.1228
49499W        W92593   6.893  30.828  23.828 -0.3265  0.0643  0.1947
49500W        W92594   7.161  33.164  20.821 -0.2232 -0.0441  0.2668
49501W        W92595  10.708  30.334  23.514  0.0508  0.2592 -0.0382
49502W        W92596   7.126  32.684  18.063  0.1108  0.1985 -0.0925
49503W        W92597   9.469  31.431  18.463 -0.1385 -0.2481  0.2375
49504W        W92598   6.640  30.296  18.672  0.4496  0.0685 -0.2096
49505W        W92599   9.738  32.079  20.905  0.1862 -0.1404 -0.1617
49506W        W92600  10.044  29.037  20.348  0.5504  0.0588  0.7432
49507W        W92601   7.990  33.064  20.625 -0.1141  0.4274 -0.1243
49508W        W92602   7.804  29.174  21.157 -0.1037  0.1012  0.0780
49509W        W92603   9.238  31.931  21.922  0.2539  0.0737  0.0049
49510W        W92604   8.254  30.510  20.545  0.3114  0.0797  0.1584
49511W        W92605   9.083  30.274  20.914  0.0630 -0.2458 -0.0882
49512W        W92606   6.869  32.100  22.093 -0.0990  0.3878 -0.1650
49513W        W92607   5.944  31.120  19.569 -0.0683 -0.1631 -0.2971
49514W        W92608   9.805  32.895  18.492  0.0652  0.0287  0.0175
49515W        W92609   8.734  31.836  19.771 -0.0170  0.2984 -0.3307
49516W        W92610   7.713  32.118  18.562  0.1758  0.4968  0.2198
49517W        W92611   8.019  30.070  20.804 -0.1093  0.0254  0.1507
49518W        W92612   7.150  31.679  22.314 -0.1947  0.0717  0.2471
49519W        W92613   8.451  30.377  24.187 -0.1898 -0.3048  0.0690
49520W        W92614   7.577  28.731  19.182  0.2360 -0.1023 -0.1248
49521W        W92615   9.485  30.516  23.369  0.1626  0.1459  0.1521
49522W        W92616   7.921  31.428  24.203  0.0592 -0.2391 -0.0651
49523W        W92617   9.583  31.594  21.166  0.0556 -0.1036  0.4594
49524W        W92618   8.306  30.430  21.034  0.0380  0.0908 -0.0315
49525W        W92619   8.623  33.346  21.433 -0.4324 -0.0361 -0.1721
49526W        W92620  10.690  30.694  18.183  0.0806  0.1196 -0.1903
49527W        W92621   9.740  29.944  19.846  0.2036  0.1495 -0.3971
49528W        W92622   9.665  30.564  21.149 -0.0937 -0.0650 -0.3529
49529W        W92623   7.667  30.245  19.120  0.2766 -0.2236  0.2191
49530W        W92624   7.627  30.895  20.734  0.1895 -0.2647 -0.1297
49531W        W92625  10.656  32.770  21.545  0.1465 -0.2881  0.1320
49532W        W92626  10.955  30.456  18.658 -0.1168 -0.1142  0.3027
49533W        W92627   7.149  31.670  21.174  0.1005  0.2563 -0.0948
49534W        W92628   7.794  29.546  23.083 -0.3298 -0.1045  0.1714
49535W        W92629   9.734  31.995  24.318  0.0336  0.0322  0.2158
49536W        W92630   7.988  33.003  19.645  0.1143 -0.2975 -0.0166
49537W        W92631   6.847  30.427  20.242 -0.0398  0.0481  0.2829
49538W        W92632   7.742  31.306  20.256 -0.2324 -0.3462  0.0277
49539W        W92633   6.169  28.605  22.937  0.2564  0.0585  0.2438
49540W        W92634   8.045  31.889  22.890 -0.0015 -0.1332 -0.0304
49541W        W92635  10.201  29.911  19.074  0.1530 -0.0789 -0.0731
49542W        W92636   9.489  29.623  21.266  0.2019 -0.2009 -0.4059
49543W        W92637  10.147  29.739  19.623 -0.0355  0.4509 -0.1115
49544W        W92638   8.790  32.081  20.456 -0.0194  0.1531 -0.0082
49545W        W92639  12.019  33.766  20.933  0.2485 -0.0856  0.0811
49546W        W92640   9.697  32.033  20.194  0.0710 -0.1882  0.3326
49547W        W92641   8.548  32.049  18.812  0.0101 -0.4915 -0.0398
49548W        W92642   7.718  30.112  21.315  0.1173  0.0681 -0.1984
49549W        W92643   7.312  29.672  20.216  0.0068 -0.0238  0.0837
49550W        W92644   8.214  29.853  22.737 -0.0965  0.0114  0.0684
49551W        W92645   7.928  30.498  22.577 -0.0844 -0.1058  0.0205
49552W        W92646   9.532  30.472  22.063 -0.0156 -0.0243 -0.2761
49553W        W92647   7.261  30.141  20.049  0.3627  0.3721 -0.0617
49554W        W92648   9.738  31.078  19.973 -0.0382  0.2196  0.1245
49555W        W92649   8.754  30.654  20.730  0.2340 -0.2553 -0.1146
49556W        W92650   6.591  32.552  22.153 -0.1888 -0.3090  0.1949
49557W        W92651  10.533  30.743  23.046  0.4004 -0.1104  0.2048
49558W        W92652   9.038  33.046  18.655  0.2161 -0.2503 -0.4093
49559W        W92653   9.684  31.861  21.626  0.1083  0.0310 -0.2406
49560W        W92654   9.787  31.511  19.555  0.2046  0.0620  0.0662
49561W        W92655   7.976  30.647  22.084  0.0607  0.1448 -0.1559
49562W        W92656   8.365  30.517  19.943  0.0217  0.0893 -0.0592
49563W        W92657   6.953  31.128  20.906 -0.0716 -0.2969 -0.0135
49564W        W92658   7.904  32.805  21.289  0.0435  0.2129 -0.0355
49565W        W92659   9.040  29.480  19.177  0.3457 -0.1187 -0.3094
49566W        W92660  10.682  33.063  21.114  0.0133 -0.1078 -0.1436
49567W        W92661  10.068  32.377  19.862 -0.2165  0.3073 -0.1845
49568W        W92662   8.022  30.909  20.376 -0.0491 -0.0103  0.2349
49569W        W92663   9.965  30.380  20.722 -0.0909 -0.0357  0.2200
49570W        W92664   8.980  31.435  21.915 -0.0450 -0.3754  0.0160
49571W        W92665   8.509  31.620  21.388  0.1944 -0.2405  0.3102
49572W        W92666   6.783  27.654  19.304  0.1463 -0.3652 -0.0729
49573W        W92667   9.197  34.056  20.775 -0.0754 -0.4157  0.1534
49574W        W92668   8.071  32.256  20.208 -0.1288 -0.1042  0.3324
49575W        W92669   6.865  31.184  22.479 -0.0164  0.2182  0.1197
49576W        W92670   8.912  32.615  20.734  0.1234 -0.0144 -0.0285
49577W        W92671  10.563  30.316  21.245  0.1201  0.0648  0.1309
49578W        W92672   7.395  30.751  22.524  0.0420 -0.1542  0.3951
49579W        W92673   8.475  30.657  23.667 -0.0430 -0.2591 -0.0269
49580W        W92674   7.580  30.332  19.646 -0.1387 -0.0645  0.2640
49581W        W92675   8.036  31.600  23.317 -0.0161 -0.2295 -0.0977
49582W        W92676  10.702  31.497  20.066  0.0491 -0.0832 -0.1298
49583W        W92677  10.434  31.737  20.835 -0.0140  0.2063 -0.0190
49584W        W92678   8.463  31.643  23.650 -0.2212 -0.1052 -0.1002
49585W        W92679   9.828  31.895  19.215 -0.0284 -0.1567 -0.1216
49586W        W92680  10.139  29.982  18.601  0.3168  0.4325 -0.3562
49587W        W92681   9.105  28.996  19.330 -0.2534 -0.2132  0.0038
49588W        W92682   8.207  33.307  22.785  0.0854 -0.3442 -0.0519
49589W        W92683  10.042  34.031  20.755  0.3648  0.1748  0.1275
49590W        W92684   8.812  31.228  20.047 -0.0240  0.0207 -0.2909
49591W        W92685   9.045  30.433  19.254 -0.2333 -0.1141 -0.0568
49592W        W92686  10.894  32.440  21.241  0.0059 -0.0844  0.2707
49593W        W92687   6.509  30.828  22.457 -0.1244  0.0819 -0.2915
49594W        W92688   9.196  31.313  23.291 -0.0854  0.0306  0.3700
49595W        W92689   9.881  32.581  20.934  0.1103  0.0358  0.2296
49596W        W92690   9.781  29.872  21.753  0.1074 -0.1783  0.0615
49597W        W92691   9.275  30.780  19.746  0.0762  0.0543 -0.1329
49598W        W92692   9.682  29.430  19.639  0.0890  0.0551 -0.2652
49599W        W92693   6.338  31.494  19.339 -0.2979 -0.1022  0.0933
49600W        W92694   9.124  30.181  21.890  0.0651 -0.2506  0.3901
49601W        W92695  10.430  29.685  20.503  0.2970 -0.0125  0.0994
49602W        W92696  10.498  29.520  22.861  0.6118 -0.0463 -0.0373
49603W        W92697   9.496  31.310  23.721  0.0513 -0.0599  0.2042
49604W        W92698  10.996  31.446  19.564  0.0569 -0.0207 -0.0241
49605W        W92699   8.715  31.255  21.119  0.3115 -0.0821  0.0337
49606W        W92700   8.355  30.873  18.411 -0.1692 -0.0318 -0.0198
49607W        W92701   9.326  30.646  22.579 -0.2549  0.1899  0.0931
49608W        W92702   7.334  30.199  22.705  0.1274  0.0445  0.1381
49609W        W92703   8.672  32.877  22.609 -0.0852  0.0517  0.0835
49610W        W92704  10.206  32.831  22.134  0.0640  0.2796 -0.0372
49611W        W92705   9.379  32.041  21.282 -0.0817 -0.0749  0.0140
49612W        W92706   8.715  30.875  24.391 -0.2547  0.3634  0.0597
49613W        W92707   9.392  30.011  19.548 -0.2683 -0.2154  0.2414
49614W        W92708   7.832  32.085  20.605 -0.2093  0.0719  0.0376
49615W        W92709   9.011  31.609  20.314  0.0734  0.1818 -0.0662
49616W        W92710   9.024  29.881  20.644  0.0224  0.0170  0.1745
49617W        W92711   8.890  33.120  23.114  0.4786  0.2022  0.0013
49618W        W92712   8.411  31.889  20.160 -0.1551  0.0908 -0.0855
49619W        W92713   8.209  31.341  21.014 -0.0469 -0.1421 -0.2073
49620W        W92714   7.426  32.404  21.138  0.1185  0.0619  0.2194
49621W        W92715  11.081  29.630  20.622  0.0412  0.2352 -0.0181
49622W        W92716   6.056  31.817  21.562 -0.1329  0.0665 -0.0081
49623W        W92717   6.545  30.662  19.780 -0.0394  0.0182  0.1071
49624W        W92718   6.371  29.618  20.799  0.2820 -0.1110 -0.2927
49625W        W92719  10.517  29.426  19.682  0.0858 -0.3601 -0.2431
49626W        W92720  10.258  32.819  19.640  0.0820 -0.0146 -0.1433
49627W        W92721   7.808  28.861  22.350  0.0006  0.1914 -0.1519
49628W        W92722   9.686  29.438  20.341  0.2238 -0.0488  0.1827
49629W        W92723   7.532  31.981  21.951 -0.1256  0.2508  0.0915
49630W        W92724   8.782  30.735  22.580  0.0252  0.2695  0.2494
49631W        W92725   9.864  28.802  18.139 -0.4146 -0.2176  0.1614
49632W        W92726   9.799  31.511  24.127  0.0719  0.2495 -0.1173
49633W        W92727   8.555  30.025  22.968 -0.1167  0.0977  0.2918
49634W        W92728   6.917  28.054  19.088  0.3219 -0.2546 -0.5309
49635W        W92729   9.794  30.235  22.491 -0.1516  0.0105  0.2045
49636W        W92730   9.253  30.215  19.990  0.4001  0.0037 -0.0533
49637W        W92731   8.455  32.632  20.346  0.1006 -0.0624  0.1233
49638W        W92732  10.157  31.022  22.825  0.2873  0.0971 -0.2879
49639W        W92733   6.235  29.905  19.252  0.1686  0.0548  0.1349
49640W        W92734   7.257  31.164  20.288 -0.3743  0.0467  0.0912
49641W        W92735   8.327  31.741  25.338 -0.1433 -0.0673 -0.1548
49642W        W92736   8.552  31.131  21.626  0.1921  0.2218  0.6225
49643W        W92737   9.882  28.897  22.886  0.0477 -0.1304 -0.3412
49644W        W92738   8.683  30.278  20.295  0.0743 -0.2614 -0.1872
49645W        W92739   8.609  30.788  21.233  0.0879 -0.0017 -0.0878
49646W        W92740   9.247  31.552  22.327  0.0360 -0.1052  0.1872
49647W        W92741   9.139  31.543  20.871  0.4468 -0.3576  0.3702
49648W        W92742   7.836  32.050  23.408  0.1719  0.2227 -0.1654
49649W        W92743   9.091  29.261  21.140  0.2365  0.2050 -0.1396
49650W        W92744   9.179  33.544  20.676 -0.0986  0.2297 -0.0865
49651W        W92745   9.038  31.059  21.611 -0.0479  0.3807 -0.0866
49652W        W92746   9.006  31.190  18.950 -0.0428 -0.2221  0.2472
49653W        W92747   6.960  29.810  22.762  0.0166 -0.0640 -0.0239
49654W        W92748   8.260  33.511  20.587  0.0853 -0.1534  0.0173
49655W        W92749   8.861  30.360  21.346  0.1197  0.1507  0.1777
49656W        W92750   8.312  32.149  20.621  0.1803  0.1220 -0.3497
49657W        W92751   9.026  32.786  20.289 -0.4004 -0.0951  0.1896
49658W        W92752   7.962  32.207  22.030  0.0237  0.0036 -0.0339
49659W        W92753  10.682  28.821  19.902  0.2899  0.0874 -0.3386
49660W        W92754   8.385  31.014  19.707 -0.2657  0.0081 -0.2088
49661W        W92755   8.797  29.883  22.342 -0.0259  0.0859  0.0218
49662W        W92756   9.386  29.041  22.017  0.2406  0.1730  0.1022
49663W        W92757   8.957  30.774  20.242 -0.0215  0.2894 -0.1834
49664W        W92758   8.493  29.899  23.429 -0.0220 -0.2628  0.0485
49665W        W92759   7.866  28.551  23.679 -0.0013 -0.1717  0.2432
49666W        W92760  10.215  32.188  20.936  0.2830 -0.1025  0.0170
49667W        W92761   7.257  28.684  21.801  0.0324 -0.0248  0.0240
49668W        W92762   9.782  32.181  23.411 -0.2089 -0.1231 -0.1746
49669W        W92763   7.766  30.831  23.601  0.0036  0.1545 -0.2464
49670W        W92764   9.162  31.465  21.478 -0.3165 -0.3495 -0.1040
49671W        W92765   8.588  30.572  19.010 -0.1088 -0.2472  0.0083
49672W        W92766   8.845  32.177  22.031  0.3804  0.5695  0.0562
49673W        W92767  10.404  33.353  21.352 -0.1216 -0.1718  0.1283
49674W        W92768   8.437  31.379  19.254  0.0821 -0.1392  0.3381
49675W        W92769   9.512  31.402  21.864 -0.0180 -0.0060 -0.3203
49676W        W92770   6.779  31.310  23.008 -0.1368  0.2355  0.1195
49677W        W92771   8.367  31.191  22.090  0.1742  0.0749  0.2246
49678W        W92772   8.831  31.371  19.575 -0.0025 -0.1770  0.2764
49679W        W92773   9.312  31.103  20.146  0.1431  0.1947 -0.2455
49680W        W92774   8.471  29.087  21.606  0.2529  0.3330  0.2013
49681W        W92775   9.050  30.894  23.485 -0.2534 -0.2470 -0.0789
49682W        W92776  10.263  30.240  19.854 -0.0924  0.0849 -0.3104
49683W        W92777   8.204  30.516  21.662  0.3293  0.0800  0.3310
49684W        W92778   9.291  30.564  21.591  0.2757 -0.3694 -0.0697
49685W        W92779   7.402  29.942  23.123  0.1511  0.1832 -0.0644
49686W        W92780   5.672  30.288  23.963 -0.2250  0.2039  0.2441
49687W        W92781   9.830  30.923  23.403  0.1586  0.0293 -0.0078
49688W        W92782   9.947  31.001  18.976  0.0975  0.0214 -0.1582
49689W        W92783  10.220  30.064  22.203 -0.0560 -0.0360 -0.0709
49690W        W92784  10.333  31.241  21.795 -0.0142  0.1201  0.0254
49691W        W92785   9.080  31.138  20.594  0.0388 -0.0791 -0.1147
49692W        W92786   6.790  29.289  20.854 -0.3140 -0.1370 -0.2630
49693W        W92787   8.057  30.576  23.968  0.1457 -0.2002  0.0273
49694W        W92788   7.414  28.909  18.283 -0.1035 -0.0790 -0.0036
49695W        W92789   7.810  31.478  22.833 -0.2324 -0.3813  0.1766
49696W        W92790   8.497  32.537  18.648  0.1093  0.4041 -0.1122
49697W        W92791   8.576  31.748  21.927 -0.0626  0.0369  0.2538
49698W        W92792   8.280  31.585  22.470  0.1478  0.1760  0.0818
49699W        W92793   8.019  29.836  21.542 -0.2411 -0.1701  0.4449
49700W        W92794   8.376  33.229  22.309  0.0021 -0.1128  0.2114
49701W        W92795   6.608  29.247  18.333 -0.0400 -0.0645 -0.2621
49702W        W92796   8.866  30.792  18.571 -0.0426  0.0700 -0.2414
49703W        W92797   9.173  32.003  20.035  0.1049 -0.3203 -0.2054
49704W        W92798  10.309  31.312  24.273 -0.0927  0.2035  0.1935
49705W        W92799   9.349  29.611  18.770 -0.0647  0.0434  0.0258
49706W        W92800   8.849  31.129  22.854  0.4344 -0.0881  0.2545
49707W        W92801   6.419  31.651  19.813 -0.0236  0.2680 -0.1594
49708W        W92802   8.777  28.903  21.222 -0.0184 -0.3571  0.1750
49709W        W92803   7.194  32.816  21.261  0.1475 -0.0352 -0.0702
49710W        W92804   6.391  30.184  23.422  0.3423 -0.0477  0.0675
49711W        W92805   7.987  31.433  21.468  0.0774  0.1488 -0.1167
49712W        W92806   8.298  29.524  23.128 -0.1820 -0.1227 -0.0652
49713W        W92807  10.061  29.196  19.896 -0.1410  0.0765 -0.4574
49714W        W92808   8.824  30.593  21.766  0.1031  0.2528 -0.0503
49715W        W92809  10.288  31.140  22.364 -0.2786 -0.0967 -0.0038
49716W        W92810   7.875  32.463  20.902  0.0039 -0.0096  0.2021
49717W        W92811   8.192  31.169  23.504  0.1425  0.0799  0.3552
49718W        W92812   9.536  31.985  22.854 -0.2801  0.0599 -0.2642
49719W        W92813  10.525  31.950  21.255  0.0823 -0.0057 -0.0350
49720W        W92814   7.741  31.431  20.745 -0.3358  0.1950  0.1064
49721W        W92815   7.837  30.097  22.940 -0.1130  0.0245  0.0171
49722W        W92816   8.817  31.388  24.153  0.0343  0.1238 -0.0648
49723W        W92817   8.891  31.952  21.551  0.2863  0.1389  0.2369
49724W        W92818   8.535  29.963  21.256  0.0271 -0.1318  0.1563
49725W        W92819   9.286  32.356  17.934  0.0342 -0.2333 -0.2791
49726W        W92820   9.012  32.071  22.925 -0.1378  0.2959  0.1376
49727W        W92821   9.461  30.139  21.413 -0.2569 -0.2770  0.9680
49728W        W92822   8.273  32.152  19.659 -0.0193  0.3737 -0.1234
49729W        W92823   9.900  32.288  18.874  0.0836 -0.1966  0.1917
49730W        W92824   8.308  31.295  20.169 -0.2721  0.1737  0.1688
49731W        W92825   9.543  32.337  19.270 -0.0090 -0.0324  0.1044
49732W        W92826   9.764  30.254  20.291 -0.4202  0.1817  0.2874
49733W        W92827   6.660  31.291  20.277 -0.0438 -0.0783 -0.0113
49734W        W92828   5.725  31.630  19.271  0.0226 -0.0869 -0.1706
49735W        W92829   8.526  33.585  18.009 -0.3397  0.1200 -0.3320
49736W        W92830   6.260  32.588  19.963  0.1390  0.0784 -0.1790
49737W        W92831   9.156  31.592  22.847 -0.0847 -0.0985 -0.0769
49738W        W92832  10.545  30.336  19.344  0.0202  0.0986  0.0149
49739W        W92833   9.774  30.862  19.468 -0.0016 -0.0705 -0.0257
49740W        W92834  10.007  31.871  20.552 -0.0816  0.0159 -0.3250
49741W        W92835   9.421  31.756  23.260  0.1791 -0.1756 -0.1320
49742W        W92836   7.958  31.204  22.391 -0.3057 -0.1617  0.4210
49743W        W92837   8.273  30.442  18.679  0.1997  0.0645 -0.0635
49744W        W92838   7.867  31.877  23.858 -0.3260 -0.2483  0.2150
49745W        W92839   9.895  29.858  20.592 -0.0181  0.0698 -0.0207
49746W        W92840   8.331  32.123  22.375 -0.0569 -0.1009 -0.1132
49747W        W92841   8.728  32.858  19.890 -0.4849 -0.0033 -0.0917
49748W        W92842   7.784  29.966  19.963 -0.1453 -0.1245 -0.4679
49749W        W92843  10.149  30.624  20.222  0.2911 -0.1783  0.0052
49750W        W92844  10.350  30.157  21.703  0.2399 -0.1761 -0.1521
49751W        W92845   9.953  31.558  20.113  0.4040  0.4414  0.0381
49752W        W92846  10.181  30.691  21.005  0.0508 -0.1101  0.1151
49753W        W92847   7.973  33.293  21.550 -0.0540  0.0230  0.4459
49754W        W92848   7.872  32.277  21.391 -0.0805  0.2144 -0.0456
49755W        W92849   9.236  32.471  22.189  0.0150 -0.2550  0.0896
49756W        W92850   7.751  29.027  18.861  0.4430  0.0643  0.0086
49757W        W92851  10.769  30.539  20.861 -0.3195 -0.0442  0.3014
49758W        W92852   6.953  30.763  22.749 -0.0426  0.2391 -0.0821
49759W        W92853   9.452  28.777  23.049 -0.4197  0.3669  0.0204
49760W        W92854   7.418  30.318  20.883 -0.0582 -0.0876  0.1219
49761W        W92855  10.902  30.999  20.282  0.1906  0.0955 -0.0997
49762W        W92856   7.778  32.006  24.919 -0.2121  0.0558 -0.0681
49763W        W92857   7.572  31.709  21.440  0.1455 -0.1724 -0.2749
49764W        W92858   8.566  30.978  20.437 -0.1830 -0.0267 -0.2684
49765W        W92859   9.870  31.027  21.861  0.1943 -0.0776  0.0865
49766W        W92860   9.585  30.673  20.243  0.2344  0.1216  0.1471
49767W        W92861  10.269  32.516  23.205  0.1920  0.1017  0.1620
49768W        W92862   7.540  29.269  20.686  0.4568  0.0821 -0.1322
49769W        W92863   9.307  31.265  19.624  0.3032  0.0860 -0.0782
49770W        W92864   7.281  30.775  21.172 -0.1449  0.0657  0.0205
49771W        W92865   9.072  29.979  23.117  0.1242 -0.2310  0.0092
49772W        W92866   8.740  31.857  22.367 -0.0680  0.1661  0.2104
49773W        W92867   8.189  29.590  21.075 -0.2235  0.2283  0.1243
49774W        W92868  10.516  32.349  19.523 -0.0508 -0.0773  0.3747
49775W        W92869  10.024  31.786  21.185 -0.1640 -0.2016  0.1588
49776W        W92870   9.568  33.237  19.990  0.2453 -0.2848 -0.0581
49777W        W92871  10.328  32.439  21.466  0.1647 -0.2068  0.1777
49778W        W92872  10.779  33.563  22.017 -0.0605 -0.2528  0.3078
49779W        W92873   7.055  29.187  22.711 -0.0754 -0.3208 -0.0633
49780W        W92874   9.670  33.048  21.019  0.0149  0.2593 -0.2612
49781W        W92875  11.365  32.410  20.491  0.1233  0.2885  0.2250
49782W        W92876   8.683  29.389  20.108 -0.3906 -0.0814  0.0703
49783W        W92877   7.796  31.130  21.161  0.4007 -0.0079 -0.1159
49784W        W92878   7.464  33.077  21.640 -0.2213 -0.0165  0.1839
49785W        W92879   9.477  30.704  20.713  0.0863  0.0230  0.2381
49786W        W92880   7.471  30.608  23.003  0.1686 -0.0296  0.2854
49787W        W92881   7.965  32.328  19.319 -0.1034  0.1017 -0.2930
49788W        W92882   9.435  29.247  22.895  0.0322 -0.0628  0.1100
49789W        W92883   8.349  30.966  22.607 -0.1259 -0.0661 -0.1356
49790W        W92884  10.784  32.183  23.494  0.1714  0.2326  0.0177
49791W        W92885   8.140  30.040  18.914  0.2749 -0.0993 -0.2593
49792W        W92886   8.941  30.273  22.750  0.2265 -0.0756 -0.0062
49793W        W92887  10.328  32.855  20.107 -0.4113  0.0539 -0.0032
49794W        W92888   8.543  33.084  18.540 -0.0938 -0.0050  0.0083
49795W        W92889  11.721  32.044  20.751 -0.2306 -0.1490 -0.1881
49796W        W92890   8.232  30.071  20.262 -0.6567 -0.1431  0.0232
49797W        W92891  10.993  32.750  20.897  0.4715  0.0013 -0.1006
49798W        W92892   9.388  29.584  20.755 -0.2206 -0.1371  0.1876
49799W        W92893  11.716  30.096  21.579  0.1868  0.1899  0.0787
49800W        W92894   9.470  28.871  19.945 -0.0353 -0.0051  0.3060
49801W        W92895   8.876  30.931  22.114 -0.1998 -0.1772 -0.3027
49802W        W92896   4.824  28.759  20.494  0.3475 -0.0887 -0.0695
49803W        W92897   7.848  30.516  20.093  0.0176 -0.2642  0.0928
49804W        W92898   8.214  30.876  20.877 -0.0620  0.5547  0.1312
49805W        W92899   8.234  27.786  24.011  0.0145 -0.2169  0.2097
49806W        W92900   8.219  31.218  23.008 -0.1740  0.2146  0.1303
49807W        W92901   7.607  31.481  21.903  0.1533 -0.0325 -0.2803
49808W        W92902   7.805  29.588  18.876 -0.2142  0.0812  0.1427
49809W        W92903   8.570  33.226  19.609  0.1838  0.1144 -0.1962
49810W        W92904   7.768  30.619  21.135  0.0668  0.2851 -0.0464
49811W        W92905   6.321  28.933  21.720  0.0735 -0.0170 -0.5200
49812W        W92906   9.131  32.458  19.625  0.1139 -0.1375 -0.0445
49813W        W92907   8.313  32.695  20.947  0.3270  0.0974  0.1331
49814W        W92908   8.636  30.119  19.797 -0.0996  0.0146 -0.1614
49815W        W92909   9.765  32.456  22.907 -0.2949 -0.2509 -0.1726
49816W        W92910   7.228  29.676  19.090  0.0361 -0.1502 -0.1098
49817W        W92911   8.067  30.015  23.910 -0.1611 -0.0418  0.0307
49818W        W92912   8.574  29.152  22.861  0.0860  0.0010 -0.1340
49819W        W92913   4.986  28.231  20.323  0.1229 -0.2448 -0.4866
49820W        W92914  10.092  32.037  22.341 -0.1443 -0.0966 -0.0992
49821W        W92915  10.711  33.998  20.547 -0.1287 -0.1116 -0.1532
49822W        W92916   8.272  31.612  19.683 -0.0187 -0.2389 -0.0209
49823W        W92917   8.665  31.669  22.851  0.0331  0.2389  0.1408
49824W        W92918   8.884  32.567  23.134  0.1825 -0.2350 -0.3515
49825W        W92919   6.716  29.459  22.956  0.1602  0.1360 -0.0452
49826W        W92920   8.609  31.517  20.556  0.0475  0.0172 -0.0013
49827W        W92921   7.383  31.236  22.477 -0.0992 -0.0792 -0.0053
49828W        W92922  11.318  31.971  18.417 -0.0306 -0.0882  0.0361
49829W        W92923  10.998  30.539  21.314 -0.1426  0.0691 -0.1705
49830W        W92924   8.159  30.885  21.383 -0.0457  0.1098 -0.0335
49831W        W92925   7.052  30.216  24.005 -0.1735  0.5770 -0.3484
49832W        W92926   7.870  32.574  24.450  0.1360  0.2231  0.3651
49833W        W92927   9.132  30.812  21.053 -0.1662  0.1483  0.3409
49834W        W92928   8.884  30.540  19.797  0.1520  0.0049 -0.0527
49835W        W92929   9.298  30.337  20.445 -0.4121  0.1363 -0.2649
49836W        W92930   8.120  31.856  21.036 -0.0869 -0.1132 -0.1900
49837W        W92931   8.071  31.621  21.991  0.1075  0.0773  0.0248
49838W        W92932   9.522  31.222  20.816  0.0877 -0.1932 -0.0589
49839W        W92933   8.006  30.283  24.387  0.0265 -0.0937 -0.0207
49840W        W92934  10.514  32.436  19.993 -0.2313  0.0594  0.0679
49841W        W92935   9.746  31.248  22.288 -0.0419 -0.1833  0.1330
49842W        W92936   7.944  30.636  19.006 -0.0528 -0.0043  0.1831
49843W        W92937  11.386  31.238  19.219  0.1998 -0.2829  0.0096
49844W        W92938   9.322  33.149  22.131  0.0518  0.0766  0.1017
49845W        W92939   9.142  32.773  24.260  0.3176  0.1077 -0.1005
49846W        W92940   9.538  33.579  22.008  0.0708  0.0689  0.0716
49847W        W92941  10.323  31.941  21.671  0.5922 -0.1692  0.2813
49848W        W92942   7.818  29.494  22.410  0.1042 -0.1572 -0.0855
49849W        W92943   8.114  31.585  20.527 -0.1434 -0.0073 -0.0845
49850W        W92944   6.970  31.210  21.433  0.1944 -0.1474 -0.1568
49851W        W92945   8.611  31.419  23.248 -0.1818 -0.2367 -0.2736
49852W        W92946   9.273  29.502  22.396  0.0568 -0.1721 -0.1370
49853W        W92947   9.597  30.488  19.222  0.1756 -0.0001 -0.3202
49854W        W92948   8.479  34.569  22.932 -0.0268  0.1036 -0.0678
49855W        W92949   8.608  32.840  21.370  0.3114 -0.1470  0.1244
49856W        W92950   8.754  30.386  25.162 -0.1996  0.0785  0.0923
49857W        W92951   6.563  32.317  24.587 -0.3770  0.1894 -0.2905
49858W        W92952   9.940  30.520  23.012 -0.0286 -0.3385 -0.2497
49859W        W92953  10.571  31.272  23.855  0.1520 -0.1332  0.0150
49860W        W92954   9.593  29.354  25.446  0.2743  0.0249  0.0410
49861W        W92955   8.876  33.867  26.092 -0.0496 -0.0390 -0.1731
49862W        W92956   7.757  29.183  26.573  0.0943 -0.0658  0.4736
49863W        W92957   9.518  32.256  25.523 -0.0272  0.1571  0.1965
49864W        W92958  10.229  32.142  26.273  0.1953 -0.3907  0.0152
49865W        W92959   9.245  31.745  24.257 -0.1210  0.3353 -0.0479
49866W        W92960   9.598  30.348  26.495 -0.1184  0.2715  0.0336
49867W        W92961   9.321  31.327  26.805 -0.0841 -0.1911  0.0155
49868W        W92962   9.035  29.131  25.451 -0.0269 -0.1411  0.0584
49869W        W92963   5.700  29.487  25.364 -0.1475 -0.2182 -0.0246
49870W        W92964  10.020  31.725  26.025  0.1340  0.1322 -0.0084
49871W        W92965   7.336  31.569  25.720  0.1026 -0.0098 -0.3200
49872W        W92966   6.526  28.715  26.026  0.2131  0.1658 -0.5748
49873W        W92967   9.623  29.310  24.553  0.0944 -0.0753 -0.1621
49874W        W92968   8.789  34.476  24.917  0.1333  0.0495  0.1446
49875W        W92969   8.964  29.821  28.209  0.0205  0.0771 -0.0897
49876W        W92970   9.729  30.644  27.918 -0.2277  0.0379  0.2917
49877W        W92971   8.674  31.792  24.529 -0.0245 -0.0598 -0.0594
49878W        W92972   7.626  30.320  23.987  0.1189  0.0797 -0.2302
49879W        W92973   7.926  32.291  25.975 -0.1654 -0.1314 -0.1077
49880W        W92974   7.957  30.174  25.338  0.1108  0.1139  0.4135
49881W        W92975  10.523  30.545  24.734 -0.1108 -0.0030 -0.3270
49882W        W92976  10.112  30.905  24.539 -0.0022  0.2770 -0.2190
49883W        W92977   8.916  33.165  26.218  0.1289  0.2501  0.0974
49884W        W92978   9.321  33.470  26.304 -0.0931 -0.3156  0.4355
49885W        W92979   9.279  29.799  25.657 -0.1270 -0.0931  0.2537
49886W        W92980   8.161  31.493  26.214 -0.0280 -0.0110  0.0338
49887W        W92981   6.867  33.358  26.518 -0.0039  0.2610  0.0280
49888W        W92982   8.332  32.556  26.328 -0.0485 -0.0787  0.0977
49889W        W92983  10.835  32.381  25.035  0.2734  0.1986 -0.2112
49890W        W92984  11.461  31.837  27.305  0.1224  0.1641  0.4310
49891W        W92985   9.785  32.700  26.660 -0.1192  0.1431 -0.2106
49892W        W92986   9.266  32.761  23.550  0.2017  0.2022 -0.2277
49893W        W92987   9.729  32.116  26.498 -0.4056  0.1116 -0.0162
49894W        W92988  10.108  31.770  27.897  0.0395 -0.2043 -0.2716
49895W        W92989  10.485  31.420  26.858 -0.3350  0.0627  0.0794
49896W        W92990   8.921  30.842  25.446 -0.0904  0.0199  0.1497
49897W        W92991   9.616  31.521  22.696  0.6982 -0.0257 -0.1446
49898W        W92992   9.522  33.029  25.339 -0.0976 -0.2043  0.1303
49899W        W92993   9.583  32.497  26.135  0.0948 -0.1851 -0.1750
49900W        W92994   8.044  32.899  24.807  0.2323  0.2156  0.0006
49901W        W92995   9.896  30.545  27.444  0.1264 -0.0933  0.1856
49902W        W92996   8.843  31.916  24.021 -0.1024  0.2150 -0.0808
49903W        W92997   8.513  30.866  24.847  0.2702  0.1044 -0.2405
49904W        W92998   7.933  29.896  23.413  0.0831  0.0306 -0.0419
49905W        W92999   9.854  30.000  23.080  0.1579 -0.1585  0.1398
49906W        W93000   7.896  29.144  24.381 -0.1650  0.0610  0.1248
49907W        W93001   8.318  33.593  25.930  0.0552  0.0774 -0.0484
49908W        W93002   7.659  30.511  26.851  0.1539  0.2763  0.2758
49909W        W93003  12.458  31.656  25.558  0.3738  0.1115 -0.1745
49910W        W93004   9.613  30.093  24.906  0.0048 -0.0833 -0.0447
49911W        W93005   8.525  29.598  24.814 -0.0021  0.0791  0.1439
49912W        W93006   8.625  31.618  25.840 -0.2630  0.0250  0.2340
49913W        W93007   7.190  31.423  26.153 -0.1956 -0.1294  0.0887
49914W        W93008  11.786  32.553  23.169  0.0214  0.0263 -0.0869
49915W        W93009  10.170  32.882  24.493 -0.2665 -0.1107 -0.1027
49916W        W93010  10.076  32.524  22.484  0.0874 -0.0047 -0.1322
49917W        W93011   8.523  29.838  25.924 -0.2758 -0.0111  0.2187
49918W        W93012   7.270  32.753  27.619  0.0083  0.4396  0.2506
49919W        W93013   7.010  29.870  25.918  0.2246 -0.1185 -0.0278
49920W        W93014   8.017  29.093  23.190  0.4116  0.0578  0.2140
49921W        W93015  10.333  31.811  29.326  0.1966  0.1768  0.1089
49922W        W93016   7.494  32.541  26.179 -0.4078  0.3437  0.2906
49923W        W93017  12.625  30.679  25.206  0.0331 -0.1590 -0.0022
49924W        W93018   7.430  32.091  26.659 -0.1688  0.1361 -0.0386
49925W        W93019   9.583  33.327  24.965  0.0586  0.0389  0.0229
49926W        W93020   9.373  30.960  22.091 -0.1223 -0.1376 -0.0215
49927W        W93021   9.363  30.553  25.624  0.0645 -0.0785 -0.1092
49928W        W93022  10.300  29.727  24.921  0.4485 -0.0848  0.0006
49929W        W93023   7.781  30.937  22.765  0.4630 -0.3456  0.0378
49930W        W93024   9.009  31.406  25.543 -0.1144  0.0781 -0.2487
49931W        W93025   9.695  31.711  27.025 -0.1601 -0.3325  0.1632
49932W        W93026   9.532  31.702  24.716  0.3469  0.1336  0.1210
49933W        W93027   7.615  32.944  24.598 -0.2187 -0.2645 -0.0339
49934W        W93028   8.587  30.743  26.311 -0.2591  0.0577 -0.1843
49935W        W93029   9.433  32.165  27.910 -0.1604  0.0267 -0.1080
49936W        W93030   8.258  32.181  23.739 -0.0323 -0.0138 -0.1301
49937W        W93031   7.329  31.938  26.219 -0.0042 -0.0957 -0.1456
49938W        W93032   7.965  30.856  25.055 -0.0468  0.2121  0.3306
49939W        W93033   7.279  29.393  25.994  0.2105 -0.1370  0.0471
49940W        W93034   8.144  33.922  27.183  0.1945  0.0799  0.0788
49941W        W93035  10.315  30.423  23.897  0.0095  0.2641 -0.1044
49942W        W93036   7.840  30.291  25.820  0.0498 -0.0966  0.4726
49943W        W93037  11.027  29.277  26.323 -0.2229 -0.2535 -0.0330
49944W        W93038   7.064  32.792  25.158 -0.1641  0.2671  0.1464
49945W        W93039  10.559  32.596  24.325 -0.2179  0.0683  0.0439
49946W        W93040  10.049  31.135  23.834  0.1689 -0.3798 -0.1024
49947W        W93041   9.160  32.933  22.574  0.2171 -0.1184 -0.2349
49948W        W93042   7.946  31.039  26.204  0.0150 -0.2285  0.2308
49949W        W93043   8.311  30.264  25.653 -0.1723 -0.1030 -0.1933
49950W        W93044   8.417  30.626  27.489 -0.0644 -0.1394 -0.1818
49951W        W93045   7.104  29.454  25.483 -0.0024 -0.1095 -0.0672
49952W        W93046  10.731  30.982  27.063 -0.1730  0.1673  0.1696
49953W        W93047   7.399  30.030  23.664 -0.0458  0.0201 -0.5235
49954W        W93048   9.403  31.753  25.483  0.1510 -0.2914 -0.0961
49955W        W93049   9.313  30.745  25.151 -0.0049 -0.0916  0.0854
49956W        W93050   6.974  30.236  23.505  0.0817 -0.1415  0.4738
49957W        W93051  11.221  31.186  28.332  0.1219  0.1146 -0.1658
49958W        W93052  10.012  33.875  24.217 -0.0575  0.1769 -0.0175
49959W        W93053  10.032  32.769  24.970  0.1316  0.1904 -0.1976
49960W        W93054  10.988  33.353  25.483 -0.1093  0.0068  0.0732
49961W        W93055   9.051  28.964  25.988  0.1578  0.0446  0.1136
49962W        W93056   9.249  29.453  23.302  0.1721 -0.3892 -0.0460
49963W        W93057   7.568  32.829  23.440  0.0011  0.0876 -0.3114
49964W        W93058   9.859  31.885  25.554  0.0863 -0.1778 -0.1891
49965W        W93059   7.059  29.665  23.861 -0.0878  0.0686  0.1155
49966W        W93060  10.230  32.977  25.691 -0.1531  0.2780  0.1003
49967W        W93061   8.688  31.562  24.960  0.0120  0.2014 -0.4755
49968W        W93062   7.969  31.672  27.144  0.1335  0.2623  0.2521
49969W        W93063   9.898  29.679  25.756 -0.2266 -0.1284 -0.2293
49970W        W93064   9.922  30.666  25.615  0.1191  0.0948 -0.4489
49971W        W93065   9.010  32.293  25.177 -0.1510  0.0904  0.1130
49972W        W93066   9.407  29.960  23.467  0.0185 -0.3652  0.0949
49973W        W93067  10.491  33.755  25.096  0.4108  0.2037  0.1926
49974W        W93068   7.803  33.286  25.095  0.2669 -0.1787  0.1188
49975W        W93069   6.415  29.415  24.010  0.2829  0.0085 -0.0304
49976W        W93070   8.610  32.913  24.146  0.2080  0.2249  0.2245
49977W        W93071  10.622  31.182  24.602 -0.0092  0.0305 -0.1835
49978W        W93072   7.811  31.776  26.613 -0.2470  0.0603 -0.3766
49979W        W93073   8.413  31.188  26.810  0.3496  0.2572 -0.2537
49980W        W93074   8.534  31.245  25.427  0.0704  0.2872  0.0029
49981W        W93075   7.647  31.234  27.060  0.0056  0.2043 -0.2646
49982W        W93076  10.111  29.858  26.216  0.1900  0.2080 -0.2686
49983W        W93077   9.882  30.640  23.999 -0.0554 -0.2036  0.1859
49984W        W93078  10.074  31.437  27.039  0.1546  0.0246 -0.1810
49985W        W93079   9.183  33.285  23.956  0.0557 -0.0020  0.0430
49986W        W93080   8.830  30.388  23.251 -0.2643 -0.2446 -0.1075
49987W        W93081   8.371  30.036  24.622  0.2733 -0.1125  0.0122
49988W        W93082   8.345  31.644  26.701  0.0333  0.1700 -0.0478
49989W        W93083   9.023  32.407  25.686  0.0937  0.2177  0.4143
49990W        W93084   9.439  32.556  25.115  0.0677  0.0315 -0.2848
49991W        W93085   8.560  30.940  23.240  0.1567  0.2820 -0.1930
49992W        W93086  10.475  32.026  25.083  0.0360  0.1949 -0.1816
49993W        W93087   9.429  31.429  27.314 -0.2107  0.1024 -0.0827
49994W        W93088  10.193  31.876  27.332 -0.2984 -0.1629 -0.2027
49995W        W93089  11.094  31.456  25.815 -0.1932  0.0854 -0.2891
49996W        W93090   8.348  29.811  26.691 -0.0026  0.2152  0.1461
49997W        W93091   8.936  31.850  25.362  0.1112 -0.1072 -0.4262
49998W        W93092   9.017  29.886  24.136  0.2271 -0.1050 -0.0496
49999W        W93093   8.191  33.641  23.704 -0.0071  0.0856 -0.2685
50000W        W93094  10.106  31.890  26.792  0.0466  0.2823  0.1891
50001W        W93095  10.973  30.441  26.066  0.0440  0.0069 -0.1430
50002W        W93096   8.677  29.668  27.049  0.1069 -0.3819  0.1870
50003W        W93097   9.420  31.213  26.287  0.0550 -0.0265  0.0932
50004W        W93098   9.909  31.388  25.626 -0.2474  0.0568 -0.3304
50005W        W93099  10.595  31.348  25.694  0.0170 -0.0570  0.3097
50006W        W93100   7.810  31.310  23.712 -0.2184  0.1756  0.3878
50007W        W93101   9.042  30.428  28.703 -0.0264  0.0740 -0.2081
50008W        W93102   9.127  30.996  27.184 -0.2251  0.3507 -0.1280
50009W        W93103   7.560  31.873  27.076 -0.0999  0.1192 -0.3020
50010W        W93104   9.658  31.635  26.528  0.0299 -0.0219  0.1807
50011W        W93105   8.484  31.331  24.532  0.1112 -0.0746  0.0778
50012W        W93106   8.190  29.121  28.543  0.0792 -0.2441 -0.0205
50013W        W93107   9.676  31.067  24.221 -0.0825  0.3367 -0.0009
50014W        W93108   8.817  32.379  24.533  0.1123  0.0673  0.0711
50015W        W93109   9.440  30.269  22.912 -0.5214 -0.0767 -0.6512
50016W        W93110   8.887  28.086  25.459  0.1168  0.0424  0.1295
50017W        W93111   9.857  32.646  25.527 -0.1999 -0.1743  0.0298
50018W        W93112   8.381  32.185  24.499  0.0189 -0.1643 -0.0340
50019W        W93113   9.415  32.707  25.732 -0.1219  0.0663  0.1819
50020W        W93114   9.200  32.255  24.024 -0.2146  0.3136  0.1702
50021W        W93115  10.331  29.832  25.578  0.2436 -0.1204 -0.3570
50022W        W93116   8.290  31.803  24.129  0.0804 -0.3824  0.0071
50023W        W93117   6.845  31.706  25.937 -0.1753 -0.0113  0.2813
50024W        W93118   7.407  30.043  25.613 -0.0682  0.1222 -0.0563
50025W        W93119   9.851  31.014  25.191  0.2610  0.5163  0.0433
50026W        W93120   9.454  30.808  23.782 -0.2692  0.0041  0.4083
50027W        W93121   7.658  30.293  26.437 -0.2422  0.1601  0.5194
50028W        W93122  10.422  29.343  25.799  0.0091 -0.2069 -0.1010
50029W        W93123   9.321  32.923  26.183 -0.0814 -0.1718  0.0049
50030W        W93124   9.286  30.749  26.301  0.4984 -0.1183  0.0563
50031W        W93125  10.523  30.843  24.242  0.1008 -0.0490 -0.0233
50032W        W93126  10.691  32.175  26.074 -0.0077 -0.4143 -0.3439
50033W        W93127   9.154  30.048  27.198  0.1569 -0.0094 -0.1332
50034W        W93128   8.142  29.436  23.628 -0.1242  0.2860 -0.0819
50035W        W93129  11.987  31.039  26.025 -0.3408  0.2358  0.1044
50036W        W93130   9.236  30.229  25.202  0.0348 -0.1821 -0.1454
50037W        W93131   7.563  31.146  25.896  0.0306  0.2010 -0.0585
50038W        W93132   8.814  32.006  26.678 -0.2561 -0.0567  0.1071
50039W        W93133   7.661  31.042  25.405 -0.2620  0.2193  0.2394
50040W        W93134   7.334  33.450  25.843  0.1137 -0.1896  0.1100
50041W        W93135   9.387  30.642  27.437  0.0369 -0.4414 -0.0715
50042W        W93136   9.640  30.059  27.382  0.0570 -0.2479  0.0024
50043W        W93137   8.809  29.526  25.606  0.4806  0.1687 -0.1749
50044W        W93138   8.892  29.197  24.850  0.0295  0.0919 -0.0795
50045W        W93139   8.447  30.970  25.815  0.0197 -0.1250  0.1936
50046W        W93140  10.076  30.287  24.877 -0.2152  0.0012  0.0795
50047W        W93141  10.746  29.920  27.655 -0.0266  0.2752 -0.1663
50048W        W93142   9.217  31.903  26.425  0.0019  0.0593  0.1571
50049W        W93143   9.133  28.369  25.998 -0.1477 -0.0171  0.1166
50050W        W93144  11.056  32.494  24.175 -0.0081  0.2048  0.0001
50051W        W93145   9.690  31.012  27.183 -0.2487 -0.0687 -0.0578
50052W        W93146   8.624  32.565  25.370 -0.1920  0.0930 -0.3993
50053W        W93147   7.597  30.801  27.287  0.4516  0.0069 -0.0164
50054W        W93148   9.710  33.096  25.845 -0.1056  0.0246 -0.0197
50055W        W93149   8.953  30.500  26.553  0.2459  0.0209 -0.4522
50056W        W93150   8.908  31.513  26.603  0.3095  0.0748 -0.1123
50057W        W93151   8.159  31.806  25.846  0.0094  0.0234 -0.1521
50058W        W93152   7.277  31.215  27.379 -0.0693 -0.1945 -0.0853
50059W        W93153  10.907  30.528  22.776 -0.2645 -0.3927 -0.0664
50060W        W93154   9.315  32.266  23.265 -0.2051 -0.1674 -0.0091
50061W        W93155   9.640  29.949  26.782 -0.2509 -0.0402 -0.0716
50062W        W93156  11.450  28.967  26.124 -0.0904  0.2236 -0.2908
50063W        W93157   9.443  30.911  23.058 -0.0124 -0.1115 -0.1793
50064W        W93158   9.496  29.663  27.195 -0.2015  0.0183  0.0946
50065W        W93159   8.363  30.334  26.607  0.2347 -0.0386  0.1165
50066W        W93160   9.050  31.892  24.868  0.1498  0.0171  0.1080
50067W        W93161   7.406  30.072  27.069 -0.1928 -0.0209  0.3001
50068W        W93162  10.552  31.914  28.464 -0.3159 -0.0561 -0.1972
50069W        W93163   9.375  30.824  26.765  0.2156  0.1148 -0.0437
50070W        W93164   9.642  29.984  26.086  0.1703  0.3316 -0.1290
50071W        W93165   7.388  29.238  24.005 -0.3226 -0.0120 -0.1656
50072W        W93166   8.523  30.720  26.984 -0.1497 -0.0060 -0.0889
50073W        W93167  11.125  32.064  26.498 -0.1624  0.1736 -0.0841
50074W        W93168   8.653  33.273  25.698 -0.2336  0.1950 -0.1927
50075W        W93169  11.411  31.858  25.506 -0.1343 -0.2638 -0.2421
50076W        W93170   6.966  31.743  26.487 -0.0697 -0.2623 -0.1821
50077W        W93171   9.562  30.120  23.874 -0.1068 -0.1459  0.0483
50078W        W93172   8.131  32.216  25.401 -0.0527 -0.2608  0.2265
50079W        W93173   7.997  31.312  25.791 -0.1659  0.1522 -0.5957
50080W        W93174   8.417  29.167  27.076  0.2417 -0.1362 -0.4919
50081W        W93175   9.456  31.171  25.437  0.0918 -0.1598  0.2771
50082W        W93176   8.887  28.612  25.606  0.0993  0.1946 -0.0371
50083W        W93177   8.147  30.614  26.181  0.0120  0.0664  0.0499
50084W        W93178   8.636  29.369  26.153 -0.0928  0.0231 -0.2891
50085W        W93179   8.033  29.673  27.629  0.2349 -0.0866  0.4209
50086W        W93180   7.811  29.811  26.532 -0.0964  0.1893  0.0348
50087W        W93181  11.048  32.561  25.938  0.4713 -0.0916 -0.1604
50088W        W93182   9.277  31.128  22.635 -0.0764 -0.0089  0.2693
50089W        W93183  10.394  30.728  26.779 -0.0132  0.1223  0.0629
50090W        W93184   9.770  31.530  25.146 -0.1287 -0.3778  0.1140
50091W        W93185   9.199  31.132  24.100 -0.1148  0.0861 -0.0869
50092W        W93186   8.886  30.657  27.558 -0.2014  0.0073 -0.2953
50093W        W93187   9.511  30.404  26.984 -0.1444 -0.0705  0.2341
50094W        W93188   8.469  28.203  23.790  0.0816 -0.0636  0.1526
50095W        W93189   9.232  29.982  26.471 -0.2118  0.2522 -0.1985
50096W        W93190   9.435  33.150  24.411  0.2929 -0.1811  0.0965
50097W        W93191  10.386  32.452  24.803 -0.2705 -0.2429  0.1494
50098W        W93192   8.710  30.198  23.789 -0.1991  0.0048  0.0341
50099W        W93193   7.700  29.764  24.661 -0.0447 -0.3518  0.2129
50100W        W93194   6.840  32.933  28.401  0.1208  0.2512 -0.1345
50101W        W93195   7.712  30.733  24.508  0.0696 -0.0419 -0.0824
50102W        W93196   9.142  30.382  23.674 -0.2385  0.0637  0.0793
50103W        W93197   9.481  31.538  25.903 -0.0092  0.1102 -0.1616
50104W        W93198  10.649  30.849  27.680  0.1668  0.0684  0.3764
50105W        W93199   9.923  30.279  23.560  0.3026  0.0807 -0.0346
50106W        W93200  10.720  30.752  25.759  0.3563 -0.2092 -0.2086
50107W        W93201   7.078  32.375  23.846  0.1874  0.1455 -0.0959
50108W        W93202   8.828  29.674  26.561  0.1531 -0.1338  0.0306
50109W        W93203   7.250  33.473  23.577  0.0168  0.2987 -0.1740
50110W        W93204   7.847  32.322  26.475 -0.1125  0.0499  0.2543
50111W        W93205   8.929  33.220  24.419  0.1928  0.1361  0.6282
50112W        W93206   8.310  28.107  26.302  0.1368 -0.0804 -0.1702
50113W        W93207   8.714  30.436  24.686 -0.1756 -0.1471  0.0169
50114W        W93208   8.600  31.210  26.197 -0.2957 -0.0650  0.2994
50115W        W93209  10.889  31.293  27.684 -0.1653 -0.2143  0.0373
50116W        W93210   9.296  31.977  26.923  0.0100  0.0048 -0.1072
50117W        W93211   7.603  30.676  26.049 -0.2898  0.0267 -0.1803
50118W        W93212  10.784  32.507  26.901 -0.1668 -0.2521 -0.2140
50119W        W93213  10.241  31.237  24.941 -0.0053 -0.1262 -0.1105
50120W        W93214   9.051  31.441  26.114  0.1447 -0.0626  0.2016
50121W        W93215   8.049  30.618  27.137  0.1841  0.3321 -0.0325
50122W        W93216  10.392  31.334  27.913  0.2109 -0.1195  0.1223
50123W        W93217   9.590  32.004  25.950  0.1049  0.0764  0.1024
50124W        W93218   8.701  29.384  23.932  0.0474 -0.0783 -0.0268
50125W        W93219   8.214  32.373  24.922 -0.1324 -0.1921 -0.2043
50126W        W93220   9.374  31.180  28.159  0.1326 -0.3088 -0.0059
50127W        W93221   8.882  31.143  27.992  0.4065 -0.4549 -0.1176
50128W        W93222   8.005  33.606  24.156 -0.4369 -0.1756  0.0374
50129W        W93223  10.024  31.957  23.847 -0.1543 -0.0122 -0.2715
50130W        W93224  10.901  31.902  24.959 -0.1806 -0.3201 -0.0260
50131W        W93225   9.850  32.313  26.988  0.0715 -0.2786  0.1960
50132W        W93226   9.887  29.774  23.671 -0.0675  0.1235  0.1328
50133W        W93227   8.162  32.805  25.286  0.1215 -0.1174  0.3528
50134W        W93228   7.032  31.528  23.486  0.0528  0.0536 -0.1262
50135W        W93229   8.970  31.807  23.360 -0.0143  0.2438  0.1367
50136W        W93230   8.267  33.331  24.800 -0.2104 -0.1316 -0.1711
50137W        W93231  10.632  31.866  27.086 -0.2957  0.0443  0.0445
50138W        W93232  11.044  30.677  23.253  0.2359  0.1143  0.0568
50139W        W93233  12.004  31.933  25.706 -0.2934 -0.3293  0.0890
50140W        W93234  11.215  31.510  25.211  0.2694  0.0455  0.3466
50141W        W93235  10.017  33.213  27.314 -0.0188 -0.3064 -0.1412
50142W        W93236   9.787  31.143  26.622  0.2805  0.0333  0.1258
50143W        W93237   8.985  28.899  23.283  0.0551 -0.1410 -0.1701
50144W        W93238   8.843  30.115  26.807  0.0991  0.0465  0.2428
50145W        W93239  11.083  30.197  26.572  0.4059 -0.0153  0.0219
50146W        W93240   8.256  32.041  26.298  0.0546  0.1559  0.1573
50147W        W93241  10.643  32.600  23.836 -0.3131  0.1712 -0.1812
50148W        W93242   5.850  30.700  24.124  0.0736  0.2343  0.0626
50149W        W93243   6.919  31.655  25.358  0.0043 -0.0893 -0.0081
50150W        W93244  10.780  29.753  25.751  0.0342  0.0900 -0.4304
50151W        W93245   9.289  31.475  25.093 -0.1945 -0.1033 -0.1502
50152W        W93246   9.107  30.988  25.895  0.0043  0.3904 -0.2951
50153W        W93247   9.494  33.714  24.196 -0.0550  0.0450 -0.1182
50154W        W93248   7.542  31.995  25.704 -0.4509  0.0925  0.2227
50155W        W93249   8.038  32.594  27.359  0.0852 -0.0107  0.1505
50156W        W93250   8.692  28.918  24.242 -0.0844 -0.0883 -0.4239
50157W        W93251  11.246  30.721  24.134  0.0919  0.0768  0.0983
50158W        W93252   8.109  29.167  27.592  0.0321  0.0447  0.1616
50159W        W93253  10.696  30.004  25.155  0.0703 -0.0084 -0.0001
50160W        W93254   7.199  30.930  26.309 -0.1299  0.0173  0.1803
50161W        W93255   9.376  30.710  24.305  0.2840 -0.3287 -0.0534
50162W        W93256   9.865  31.280  26.123  0.1593 -0.2187 -0.1506
50163W        W93257   9.614  30.947  25.853 -0.2107 -0.2428 -0.1518
50164W        W93258   8.214  30.830  24.419 -0.1075 -0.0082  0.0058
50165W        W93259   9.993  30.804  26.282 -0.0243  0.0699  0.0370
50166W        W93260   8.790  32.672  24.928  0.2172  0.0495 -0.1802
50167W        W93261  10.729  32.276  27.348  0.1589  0.2086  0.3332
50168W        W93262   8.852  30.133  25.635  0.2048  0.1977  0.0812
50169W        W93263   8.147  31.355  25.008 -0.2797  0.0131  0.0507
50170W        W93264   6.823  31.263  26.440 -0.0907  0.0322  0.1163
50171W        W93265   7.988  30.794  25.648 -0.2181 -0.0473 -0.0346
50172W        W93266  11.938  31.961  27.063 -0.1032  0.2236  0.1244
50173W        W93267   7.707  29.296  24.782  0.1495  0.1290  0.2044
50174W        W93268  10.777  30.729  23.807  0.3562  0.0837 -0.0299
50175W        W93269  10.882  31.642  26.649  0.2120  0.2600 -0.2787
50176W        W93270   9.207  33.556  24.664  0.1792  0.3592  0.0110
50177W        W93271  10.233  30.721  25.077  0.0347 -0.1453  0.2382
50178W        W93272  10.314  32.592  26.583 -0.1557 -0.3112 -0.0821
50179W        W93273   6.396  30.164  25.658 -0.2441  0.2774  0.4146
50180W        W93274   9.856  33.283  26.882 -0.0144 -0.2125  0.0111
50181W        W93275  11.564  32.435  26.292  0.2800 -0.1574 -0.1994
50182W        W93276   8.284  27.698  25.063 -0.1164  0.1063 -0.0674
50183W        W93277   8.436  29.831  25.443 -0.1172 -0.1169 -0.2023
50184W        W93278   7.803  32.410  23.857 -0.1815  0.0312  0.1436
50185W        W93279  10.141  30.299  25.936 -0.0982 -0.0453 -0.0060
50186W        W93280  10.907  30.123  27.147 -0.0517 -0.1371 -0.1671
50187W        W93281  10.232  32.383  23.701  0.1334 -0.2559  0.0331
50188W        W93282  10.759  28.781  27.770 -0.4168  0.3162 -0.1621
50189W        W93283   7.689  31.659  26.069 -0.1233  0.0543 -0.1794
50190W        W93284   9.372  31.924  27.403 -0.0571  0.4336 -0.2831
50191W        W93285   8.112  31.654  24.642 -0.0683  0.2858  0.3534
50192W        W93286   8.900  31.039  26.569 -0.2055  0.1162 -0.1229
50193W        W93287   8.364  32.681  24.503  0.1625  0.0774 -0.1417
50194W        W93288   8.349  34.066  24.657 -0.1079  0.1908  0.0722
50195W        W93289   9.955  33.231  25.343  0.0937  0.2588  0.1240
50196W        W93290   8.908  30.750  23.937  0.0147  0.2225  0.2839
50197W        W93291  12.003  32.445  25.728  0.0436 -0.0410 -0.3503
50198W        W93292   8.961  28.993  23.755  0.4088 -0.3282 -0.0721
50199W        W93293   9.512  31.159  24.823 -0.2249 -0.1456  0.2157
50200W        W93294   9.393  29.759  25.203  0.2019  0.2419 -0.0503
50201W        W93295   7.912  30.929  26.670 -0.3266 -0.1369 -0.0110
50202W        W93296   6.633  30.472  24.109  0.4035 -0.0714 -0.2835
50203W        W93297   8.631  31.771  26.269  0.1327  0.2703 -0.3628
50204W        W93298   7.599  31.317  26.489 -0.0631  0.0017  0.5134
50205W        W93299   9.838  29.203  27.013  0.0830 -0.0926 -0.0160
50206W        W93300   8.387  30.164  27.121  0.1573 -0.1617  0.0123
50207W        W93301   8.464  30.732  25.378 -0.0576  0.0892  0.1863
50208W        W93302   8.540  29.870  24.082  0.0557  0.1580  0.0712
50209W        W93303   9.277  32.257  24.517  0.0788 -0.0932  0.0433
50210W        W93304   7.604  29.877  26.046  0.0738  0.0221 -0.1602
50211W        W93305   7.105  29.682  24.982  0.0931 -0.0335  0.1611
50212W        W93306  10.009  31.938  24.787  0.0712 -0.1164 -0.0559
50213W        W93307  10.440  31.811  25.775  0.0668 -0.2073  0.1992
50214W        W93308   9.146  30.870  24.720  0.3187 -0.4151 -0.0774
50215W        W93309  10.632  32.115  26.643  0.0473  0.0439 -0.0363
50216W        W93310   7.542  31.469  24.966 -0.2735 -0.0445 -0.0550
50217W        W93311   9.611  32.355  28.775 -0.0867  0.0808  0.2195
50218W        W93312   8.726  30.183  26.227 -0.2826 -0.0451  0.0551
50219W        W93313   7.447  29.877  24.154  0.0659 -0.1528  0.1856
50220W        W93314   9.904  29.897  25.266 -0.3786  0.0439  0.0306
50221W        W93315   7.839  31.602  25.448  0.2841 -0.0829  0.2361
50222W        W93316   9.111  33.088  24.886  0.2025 -0.1378  0.1560
50223W        W93317   8.247  30.458  25.005 -0.1328 -0.3237 -0.2680
50224W        W93318   7.291  33.724  26.568  0.1279 -0.0520  0.0263
50225W        W93319   7.308  28.863  26.440  0.0227  0.0442  0.2840
50226W        W93320   8.912  31.117  25.063  0.0697 -0.2893 -0.0139
50227W        W93321   8.820  31.669  27.610 -0.0981 -0.1436 -0.2519
50228W        W93322  11.401  31.746  24.746  0.1203 -0.3198 -0.0546
50229W        W93323  10.591  30.033  26.204 -0.2736 -0.1234  0.0312
50230W        W93324  10.484  31.669  24.745  0.1539  0.0879 -0.0234
50231W        W93325   8.049  28.913  25.704 -0.0238  0.1437  0.1896
50232W        W93326   9.607  31.102  27.678 -0.2497  0.0623 -0.0722
50233W        W93327  10.373  31.552  26.377  0.2180 -0.1752  0.1127
50234W        W93328   9.232  30.271  26.058  0.0458 -0.1089 -0.3791
50235W        W93329   9.396  29.895  24.449 -0.4069  0.1241 -0.1906
50236W        W93330   8.900  32.359  23.638  0.1675  0.0076 -0.1819
50237W        W93331   8.733  30.542  25.879  0.0922  0.1546  0.3856
50238W        W93332   9.714  30.648  24.747 -0.1571  0.2681  0.0098
50239W        W93333  10.325  32.271  27.063  0.0814 -0.2568 -0.0425
50240W        W93334   9.026  31.919  25.903 -0.1642  0.2157 -0.0560
50241W        W93335  10.574  31.407  27.336  0.0292 -0.0317  0.3446
50242W        W93336   8.927  29.986  24.650 -0.0124  0.4076 -0.2864
50243W        W93337   8.342  31.229  24.069  0.0547 -0.2164  0.1556
50244W        W93338   8.507  32.452  27.216 -0.0094  0.2229 -0.1675
50245W        W93339   8.979  32.691  28.905 -0.1062 -0.0989  0.1056
50246W        W93340   7.620  33.714  25.427 -0.0521  0.2167  0.0911
50247W        W93341  10.259  31.123  25.420 -0.0848 -0.2604  0.2907
50248W        W93342   6.563  30.300  24.599 -0.1079 -0.3804 -0.2209
50249W        W93343   7.414  31.875  25.236  0.1497 -0.2249 -0.0759
50250W        W93344   7.649  32.297  25.334 -0.0011 -0.0623 -0.2048
50251W        W93345   9.267  30.370  24.681 -0.1421 -0.2916 -0.1624
50252W        W93346   8.717  30.180  27.480 -0.0206  0.0070  0.0829
50253W        W93347   8.824  29.896  25.120  0.0807 -0.0823 -0.3235
50254W        W93348   7.608  33.432  26.301  0.3259  0.3303  0.1429
50255W        W93349   9.586  32.070  25.039 -0.1181  0.0390  0.2254
50256W        W93350   8.866  29.855  31.102 -0.1188 -0.0341 -0.1717
50257W        W93351   7.258  29.505  29.281  0.2577  0.0749 -0.4601
50258W        W93352   9.938  29.536  26.641  0.0420 -0.2116 -0.2447
50259W        W93353  10.493  30.549  28.654 -0.1571 -0.0741 -0.1564
50260W        W93354   8.256  31.908  28.000  0.1613 -0.0342 -0.2858
50261W        W93355   9.271  31.858  30.165 -0.2548 -0.1390  0.0876
50262W        W93356   8.045  28.929  30.399  0.1076  0.0305  0.0217
50263W        W93357  10.059  32.724  29.444  0.0103  0.0934 -0.1634
50264W        W93358  11.026  33.099  31.579  0.2731 -0.2633  0.1218
50265W        W93359   9.214  30.793  27.935  0.0735 -0.3905 -0.1341
50266W        W93360   8.002  29.945  30.601  0.0310  0.1548  0.4272
50267W        W93361   9.349  31.235  31.249 -0.0025  0.0503  0.0703
50268W        W93362   8.609  29.484  28.404  0.2205 -0.1612  0.0306
50269W        W93363   7.665  29.214  29.560  0.0716  0.1359  0.0432
50270W        W93364  10.359  30.058  30.603  0.0546  0.1865  0.1330
50271W        W93365   6.504  31.006  27.853  0.0297  0.4474 -0.1958
50272W        W93366   7.733  28.989  30.787 -0.1246  0.0750 -0.0724
50273W        W93367   9.020  30.522  29.711 -0.2404  0.0496  0.0813
50274W        W93368   9.128  32.233  28.884  0.1018 -0.1084  0.1111
50275W        W93369   8.370  29.937  30.962  0.3106 -0.2918 -0.0645
50276W        W93370  10.816  29.354   0.303  0.0824 -0.0414 -0.2100
50277W        W93371   9.624  32.928  29.409 -0.0228 -0.0063  0.3866
50278W        W93372   7.245  31.455  26.804 -0.0861 -0.0828 -0.3848
50279W        W93373   7.344  29.417  29.853  0.1387  0.1409 -0.1202
50280W        W93374   7.441  29.777  28.838 -0.0559  0.0669  0.1156
50281W        W93375  10.089  30.037  30.109 -0.0502 -0.1425 -0.2871
50282W        W93376  10.507  30.999  31.142 -0.0747 -0.0693  0.1592
50283W        W93377   8.050  31.898  29.225 -0.1832  0.0667 -0.0219
50284W        W93378   9.432  31.814  28.798  0.0173  0.0687 -0.3937
50285W        W93379  11.612  30.278  31.865  0.1778 -0.0802 -0.2091
50286W        W93380   7.613  30.658  28.527 -0.0400  0.2206 -0.1850
50287W        W93381   7.706  33.859  28.665 -0.1317 -0.0271 -0.2549
50288W        W93382   8.191  31.399  28.839 -0.1832  0.0250  0.0039
50289W        W93383   9.978  32.195  29.112 -0.1589 -0.0480  0.1774
50290W        W93384   8.834  30.485  29.168  0.5860  0.0605  0.1669
50291W        W93385   8.544  32.757  30.496 -0.0230  0.1783 -0.3981
50292W        W93386   8.197  32.078  26.950 -0.0822  0.0033  0.0690
50293W        W93387   8.191  32.991  30.255  0.0513  0.1797 -0.2542
50294W        W93388   7.329  33.434  30.429 -0.0462 -0.0095  0.0495
50295W        W93389   9.734  31.398  29.981 -0.0209  0.0737  0.4391
50296W        W93390   9.508  32.046  29.194 -0.2216 -0.1639 -0.0125
50297W        W93391   9.597  31.663  27.873  0.2324  0.1008  0.0966
50298W        W93392   9.309  30.709  29.096 -0.0800 -0.1066  0.1735
50299W        W93393   9.946  31.246  30.469  0.2163  0.1376 -0.0497
50300W        W93394   8.615  32.265  29.083 -0.0452 -0.0737  0.2465
50301W        W93395  10.028  30.238  29.505 -0.0069  0.0779  0.1660
50302W        W93396   8.494  31.780  29.002 -0.1737  0.1765 -0.0554
50303W        W93397  10.020  29.710  27.217  0.0201 -0.1457 -0.0227
50304W        W93398   9.221  30.220  27.697  0.1445 -0.1702 -0.1818
50305W        W93399  11.213  30.397  28.494  0.0451  0.1128 -0.0608
50306W        W93400  10.051  29.096  27.877 -0.3718 -0.0545 -0.0379
50307W        W93401   7.596  33.407  29.339  0.1892  0.1647  0.0369
50308W        W93402   8.653  29.400  28.962  0.2892  0.2207  0.1837
50309W        W93403  10.927  32.409  31.029  0.1061  0.2183 -0.1496
50310W        W93404   9.611  31.566  28.372  0.0437 -0.1204  0.0054
50311W        W93405  11.730  32.070  29.260  0.0246 -0.2101  0.0373
50312W        W93406   7.410  31.712  30.388  0.0441  0.1053 -0.0275
50313W        W93407   7.131  30.415  29.636  0.1628  0.0148 -0.2521
50314W        W93408   9.460  32.425  27.454 -0.1307 -0.1512 -0.0176
50315W        W93409  10.725  32.214  29.347  0.1082 -0.1598  0.1546
50316W        W93410  10.283  31.496  28.366  0.0975 -0.1240 -0.1076
50317W        W93411   7.811  31.088  28.689  0.0218 -0.0828 -0.0858
50318W        W93412   9.260  30.772   0.071  0.1850  0.2724  0.0516
50319W        W93413   8.687  29.316  31.677  0.1478 -0.2164 -0.1478
50320W        W93414   7.949  30.058  26.937  0.0391  0.0682 -0.1123
50321W        W93415  10.344  31.953  31.657  0.1683  0.1342  0.1310
50322W        W93416   6.094  31.649  29.584 -0.0883 -0.2772 -0.0218
50323W        W93417   9.926  30.627  30.253 -0.0739 -0.0688 -0.1287
50324W        W93418   8.700  30.220  30.065  0.0870 -0.0822 -0.1474
50325W        W93419   9.457  32.086  30.703 -0.2830 -0.0404  0.1361
50326W        W93420  10.009  31.331  27.555 -0.3258 -0.0749  0.2276
50327W        W93421  10.037  30.237  28.945  0.2725  0.0922  0.0946
50328W        W93422  10.135  27.990   0.006  0.0908 -0.0181  0.0961
50329W        W93423   8.733  31.224  28.479  0.2715  0.1096 -0.3226
50330W        W93424   8.393  30.274  28.769  0.0908 -0.0432  0.0336
50331W        W93425  10.862  31.782  31.326 -0.0570 -0.2654 -0.0527
50332W        W93426  11.144  30.860  27.450 -0.0991  0.0397  0.0065
50333W        W93427   6.903  33.423  29.328 -0.3133  0.1953 -0.1532
50334W        W93428   8.862  29.491  29.983  0.1090  0.1693  0.1021
50335W        W93429   9.273  30.660  31.009  0.1600 -0.1553  0.0854
50336W        W93430   8.794  32.016  28.125 -0.0662 -0.0882 -0.0449
50337W        W93431   8.523  31.901  29.475 -0.0774  0.0321 -0.1806
50338W        W93432   6.866  31.396  28.365  0.1599 -0.1609 -0.2568
50339W        W93433   7.471  28.504  28.895  0.0456 -0.1080  0.2288
50340W        W93434   7.592  30.796  31.132 -0.2098 -0.0093 -0.1833
50341W        W93435  10.021  30.252  27.057  0.0825 -0.0504 -0.0725
50342W        W93436   9.786  29.296  31.958 -0.0843  0.1597  0.1768
50343W        W93437  11.347  29.489  29.114 -0.3466 -0.3600  0.1329
50344W        W93438   8.129  31.513  28.352 -0.1894  0.2093 -0.0140
50345W        W93439   9.845  33.226  28.742  0.3297 -0.2008 -0.4582
50346W        W93440  10.315  31.002  28.343  0.1600 -0.1623  0.2664
50347W        W93441   9.637  32.775  27.146  0.0652 -0.2121 -0.0615
50348W        W93442   7.079  30.037  30.921 -0.2837 -0.1230  0.0505
50349W        W93443   7.164  30.528  28.304 -0.4670 -0.1073  0.1312
50350W        W93444   9.862  29.528  31.140  0.2700 -0.2440  0.1396
50351W        W93445   8.339  29.028  29.523 -0.4202  0.0789 -0.4703
50352W        W93446  10.649  28.837   0.101 -0.1668  0.1530  0.2144
50353W        W93447   8.195  28.130  27.233  0.5036  0.2026 -0.1475
50354W        W93448  10.097  31.003  29.975  0.1239  0.0409  0.1114
50355W        W93449   8.798  30.925  28.955  0.0626  0.3642 -0.3961
50356W        W93450   7.330  31.082  28.457 -0.2243 -0.0206  0.2811
50357W        W93451  10.465  28.263   0.307  0.1198  0.3207 -0.0363
50358W        W93452   9.110  32.987  29.278 -0.0741 -0.2726  0.0653
50359W        W93453   9.651  32.099  31.705 -0.0019  0.2215  0.1880
50360W        W93454   8.757  32.292  30.233  0.1784 -0.3022 -0.0509
50361W        W93455   8.432  29.741  29.867  0.0430  0.0967  0.1168
50362W        W93456   8.414  29.810  27.914 -0.3576  0.2117  0.2112
50363W        W93457   7.548  32.926  30.365  0.3898 -0.3969  0.0510
50364W        W93458   9.460  32.792  28.876 -0.0681  0.3144 -0.0635
50365W        W93459   8.159  29.598  28.276  0.0904  0.2861 -0.2287
50366W        W93460  10.753  33.080  29.639  0.0242 -0.0602  0.1042
50367W        W93461  10.339  31.858  29.930  0.0868  0.1243 -0.0135
50368W        W93462   8.199  31.957  29.920 -0.2836  0.0070 -0.0289
50369W        W93463   8.474  28.438  30.948  0.0479 -0.4005 -0.1553
50370W        W93464  10.256  30.757   0.397 -0.0631  0.2264 -0.0183
50371W        W93465   9.904  31.227  28.651  0.0972 -0.2341  0.0359
50372W        W93466   6.754  29.894  25.407  0.1890 -0.0823 -0.0733
50373W        W93467   7.928  32.679  29.457 -0.0210  0.1077  0.2077
50374W        W93468   7.297  32.023  29.941  0.1288  0.0893 -0.2149
50375W        W93469   6.776  32.445  29.209 -0.0224 -0.1688 -0.0366
50376W        W93470  10.003  32.625  28.874  0.2260 -0.2569  0.1762
50377W        W93471  10.142  29.825  29.227  0.2664  0.2042  0.0459
50378W        W93472   6.087  32.570  30.482  0.0806  0.1767 -0.2609
50379W        W93473   9.556  29.474  30.690 -0.0025 -0.1823  0.0374
50380W        W93474   7.693  29.642  27.059 -0.2047  0.1615 -0.0278
50381W        W93475   7.198  32.992  30.025 -0.2914  0.0893  0.2019
50382W        W93476   9.940  29.165  29.657  0.0386  0.3851 -0.1493
50383W        W93477  11.243  30.033  27.615 -0.1371  0.2556  0.0597
50384W        W93478   9.650  30.328  31.211  0.0020  0.0565  0.0683
50385W        W93479   8.582  32.550  28.610  0.0608 -0.2922  0.1031
50386W        W93480   9.789  29.584  28.008 -0.0594 -0.0987  0.3900
50387W        W93481   9.605  30.004  27.940 -0.0523  0.1302 -0.1082
50388W        W93482   7.363  31.837  31.611  0.2657  0.0245  0.0010
50389W        W93483   9.117  30.848  28.444 -0.3744  0.0151 -0.1173
50390W        W93484   8.899  31.027  31.377  0.0922 -0.2558  0.0901
50391W        W93485  11.046  31.081  28.972 -0.0305 -0.2848 -0.0485
50392W        W93486   9.563  32.499  28.334  0.2457 -0.1183  0.1354
50393W        W93487   6.606  31.608  30.440  0.1678  0.0216 -0.1517
50394W        W93488   8.798  30.556  31.109  0.0104 -0.2165 -0.0674
50395W        W93489   9.742  31.709  30.417 -0.2129  0.1561  0.1478
50396W        W93490   8.748  28.251  29.982 -0.0398  0.1908  0.3053
50397W        W93491   9.579  30.417  28.766  0.1415  0.1388 -0.1847
50398W        W93492   9.709  29.581  29.381  0.0976  0.1153  0.0384
50399W        W93493   7.593  32.878  27.230 -0.4385 -0.3150  0.1883
50400W        W93494  10.584  28.827  29.928 -0.1094  0.1633  0.0119
50401W        W93495   9.025  29.782  30.535  0.2218 -0.5263  0.2448
50402W        W93496   8.139  28.865  31.062  0.3214  0.3179  0.1064
50403W        W93497  10.346  30.539  29.873  0.1627  0.1040 -0.0338
50404W        W93498   9.843  31.705  29.464  0.1087  0.3949 -0.1679
50405W        W93499   9.933  32.051  30.943  0.0193  0.5141  0.2291
50406W        W93500   7.708  30.391  27.522 -0.1408  0.2937  0.3799
50407W        W93501   8.851  29.292  30.449  0.0046 -0.1679  0.1474
50408W        W93502   7.663  30.226  30.372  0.0214  0.0875  0.2679
50409W        W93503   7.161  32.239  29.540 -0.0879 -0.0422  0.0111
50410W        W93504  10.465  31.613  30.370  0.0533  0.0980  0.0463
50411W        W93505   9.431  30.230  29.431  0.0507 -0.4278 -0.6494
50412W        W93506  10.026  29.481   0.457 -0.1542  0.1220 -0.1142
50413W        W93507   8.831  28.417  28.489 -0.1131  0.2372  0.0102
50414W        W93508   8.211  32.839  28.049  0.0531 -0.1943 -0.2302
50415W        W93509   8.605  30.750  27.957 -0.2062  0.1863 -0.1572
50416W        W93510   8.295  28.554  29.135  0.3575 -0.0673  0.0628
50417W        W93511   7.523  31.780  29.476  0.0042 -0.0040  0.0748
50418W        W93512   8.634  30.616  28.455  0.1036  0.2787 -0.0511
50419W        W93513  10.995  30.964  30.836 -0.1976  0.0585  0.2677
50420W        W93514   8.116  32.338  28.441 -0.1349 -0.0743 -0.0790
50421W        W93515   9.838  29.211  31.504 -0.0664  0.1604  0.3480
50422W        W93516   8.405  31.546  29.962  0.2273  0.0208  0.1744
50423W        W93517   7.355  31.284  28.000  0.3220 -0.3057  0.0727
50424W        W93518   6.541  30.481  29.007  0.1580  0.2270  0.3786
50425W        W93519  10.771  30.109  28.535 -0.0949 -0.0963  0.1016
50426W        W93520   9.794  32.033  27.614 -0.1478  0.1016 -0.0607
50427W        W93521   7.983  30.027  28.539 -0.5386 -0.0729  0.1206
50428W        W93522   8.476  29.899  29.139  0.0367  0.0495 -0.0718
50429W        W93523   6.483  31.928  30.056 -0.0714 -0.2532  0.0457
50430W        W93524   9.185  31.063  30.714 -0.1737 -0.0889  0.1537
50431W        W93525  11.713  30.142  28.504  0.2696  0.1491 -0.0974
50432W        W93526  10.535  31.226  30.711  0.2221  0.0514  0.1600
50433W        W93527  10.466  31.845   0.272  0.0525  0.1021 -0.1663
50434W        W93528   9.043  30.515  27.069 -0.0890  0.1847 -0.2025
50435W        W93529  10.720  30.673  29.325 -0.3210  0.1220 -0.1032
50436W        W93530   9.314  30.404  28.152 -0.0744  0.3622 -0.1168
50437W        W93531   7.171  32.205  28.993 -0.0045 -0.0591 -0.0193
50438W        W93532  10.783  32.095  29.837  0.0488  0.0853  0.1325
50439W        W93533   8.353  30.855  28.805  0.0589  0.1033  0.1153
50440W        W93534   7.230  29.848  30.429 -0.1161  0.0150 -0.1503
50441W        W93535   9.138  30.200  30.919 -0.3390 -0.0387  0.1756
50442W        W93536  10.835  31.386  31.044 -0.2422  0.1972 -0.3225
50443W        W93537   9.456  30.777  29.628 -0.0211 -0.2201 -0.0985
50444W        W93538   8.276  29.053  29.035 -0.2512 -0.0601  0.1761
50445W        W93539   9.694  29.945  29.750  0.0034 -0.0391  0.3502
50446W        W93540  10.762  30.227  30.180 -0.0891  0.1980 -0.3169
50447W        W93541  10.112  29.501  30.218  0.2462  0.0780  0.2678
50448W        W93542   8.377  31.384  30.789  0.1567  0.1797  0.0710
50449W        W93543   9.720  29.192  30.289  0.1868  0.1627 -0.4391
50450W        W93544  10.251  33.568  28.632 -0.1872  0.1068 -0.3342
50451W        W93545  10.745  31.303  31.553 -0.0014  0.0271  0.0429
50452W        W93546   9.145  31.619  28.043  0.1068  0.0744  0.3199
50453W        W93547   7.037  31.745  29.231  0.0883 -0.0767  0.1781
50454W        W93548   8.783  31.159  27.458 -0.2799 -0.1872  0.1714
50455W        W93549   9.308  29.534  30.243  0.2468  0.0763  0.2416
50456W        W93550   6.283  33.567  30.658  0.2402 -0.2694 -0.0719
50457W        W93551   8.320  30.950  28.320 -0.1019 -0.4602  0.3788
50458W        W93552   7.549  31.866  28.882 -0.2836 -0.1274  0.1820
50459W        W93553   9.017  28.691  27.359 -0.2496  0.0168 -0.0382
50460W        W93554   9.623  30.810  28.369 -0.4667  0.2299 -0.0835
50461W        W93555   7.869  28.773  28.889 -0.1217  0.4295 -0.1071
50462W        W93556  10.530  29.752  30.024 -0.3386 -0.0068  0.2521
50463W        W93557  10.271  30.869  29.522  0.3831  0.1494  0.3038
50464W        W93558   9.792  27.913   0.353  0.1444 -0.2461 -0.2407
50465W        W93559   6.690  29.728  31.153 -0.1751  0.2949 -0.1930
50466W        W93560  12.334  31.933  28.886  0.1960 -0.1015  0.0012
50467W        W93561   7.721  30.329  29.350  0.3355  0.3115 -0.1386
50468W        W93562   8.770  32.346  31.407  0.3497 -0.0401  0.1561
50469W        W93563   7.576  30.591  31.895 -0.1807 -0.0917  0.1370
50470W        W93564   8.558  30.007  28.377 -0.0450  0.4292 -0.0722
50471W        W93565   7.329  29.894  26.465 -0.1003 -0.1755 -0.3497
50472W        W93566   8.120  30.985  30.626  0.1353  0.2757 -0.2281
50473W        W93567  10.809  30.695  29.814  0.3136 -0.1441 -0.2256
50474W        W93568  10.163  32.254  28.521 -0.2667  0.2223  0.0995
50475W        W93569  11.500  31.239  29.199  0.0820  0.1971  0.0541
50476W        W93570   8.167  29.605  28.824 -0.1954  0.0909 -0.2460
50477W        W93571  10.475  29.611  28.878  0.1728  0.1909 -0.0307
50478W        W93572   7.714  31.421  29.003  0.1169 -0.0825  0.1153
50479W        W93573   8.260  30.440  29.226  0.2239 -0.0153 -0.1420
50480W        W93574   7.862  28.435  31.101  0.1481 -0.2356  0.1464
50481W        W93575  10.246  32.251  29.608  0.0638 -0.1507  0.2360
50482W        W93576   8.971  29.366  31.079 -0.1272  0.1335 -0.0554
50483W        W93577   9.843  29.850  28.493  0.1851 -0.0443 -0.0253
50484W        W93578   9.473  30.191  30.461  0.1154 -0.0120  0.1233
50485W        W93579   9.280  31.197  29.783  0.0265  0.0751  0.2556
50486W        W93580   7.394  29.252  31.283  0.0377  0.3202  0.0466
50487W        W93581  10.537  32.118  31.189 -0.0664 -0.2888 -0.3326
50488W        W93582  10.331  30.422  27.692 -0.0624 -0.2325  0.0020
50489W        W93583  10.001  30.363  30.786 -0.0326  0.1068 -0.1070
50490W        W93584  10.501  30.995  28.862  0.0850 -0.0612  0.1017
50491W        W93585   8.931  31.562  27.088  0.1436  0.1919 -0.1304
50492W        W93586   7.072  30.470  31.700 -0.2399 -0.1785  0.3426
50493W        W93587  10.206  30.965  31.685  0.2979  0.1700  0.0484
50494W        W93588   8.152  29.582  27.102 -0.1583 -0.0788  0.1524
50495W        W93589  10.549  30.615  31.529  0.4320 -0.0018 -0.0359
50496W        W93590   9.157  32.643  28.020 -0.2679 -0.0548  0.0106
50497W        W93591   9.296  31.783  29.637  0.1305  0.1284 -0.0129
50498W        W93592  11.286  29.841  28.356 -0.1044 -0.4345  0.2280
50499W        W93593   6.362  29.536  30.027 -0.0561 -0.0041 -0.3706
50500W        W93594   8.719  32.661  29.395  0.1771  0.1828 -0.1038
50501W        W93595   8.458  29.522  27.471  0.0901  0.0919 -0.1909
50502W        W93596   9.991  30.354  28.415  0.0534  0.0468  0.2890
50503W        W93597   9.245  32.289  31.172  0.0024 -0.0552 -0.4882
50504W        W93598  10.733  30.812   0.710 -0.1231 -0.3221 -0.1110
50505W        W93599   9.235  28.129  26.417  0.1157 -0.2174  0.0895
50506W        W93600  10.575  30.757  30.293 -0.0684 -0.0632  0.0612
50507W        W93601   8.344  30.324  28.079  0.1880  0.2938 -0.0459
50508W        W93602   9.247  28.559  30.172  0.0143 -0.1646 -0.0094
50509W        W93603   8.875  32.447  30.838  0.3894  0.2322  0.3186
50510W        W93604   7.522  31.304  31.433  0.4402  0.2327  0.0403
50511W        W93605   9.317  31.261  29.282  0.0731 -0.0448 -0.1798
50512W        W93606   9.253  29.069  30.022 -0.0189  0.0173  0.0065
50513W        W93607   9.446  30.382  30.031 -0.0125 -0.1008  0.2859
50514W        W93608   9.081  30.530  30.520  0.1625 -0.2493 -0.1654
50515W        W93609  11.490  30.124  31.300  0.1866 -0.1011 -0.0148
50516W        W93610   9.785  32.258   0.431  0.1518  0.1626  0.1703
50517W        W93611   8.966  30.960  30.262 -0.0383  0.2190  0.2244
50518W        W93612  11.345  32.360  29.599  0.1779  0.1791 -0.1634
50519W        W93613  10.429  31.491  28.883 -0.1843  0.0778 -0.0096
50520W        W93614   8.129  30.991  29.908 -0.2036 -0.1812  0.1540
50521W        W93615   7.067  29.504  31.538 -0.0515  0.0614 -0.1237
50522W        W93616   9.459  31.671  31.740  0.1175  0.0471 -0.2598
50523W        W93617   9.160  32.328  29.874 -0.0073 -0.1852  0.0929
50524W        W93618   7.595  28.834  28.460 -0.0485  0.0475  0.0866
50525W        W93619   9.348  29.962  28.524 -0.0656  0.0806  0.0887
50526W        W93620   8.099  31.783  30.900  0.1282 -0.0624  0.1554
50527W        W93621   7.438  30.754  29.268  0.0821 -0.1532  0.0919
50528W        W93622   8.058  31.907  28.680  0.0945  0.2222 -0.3848
50529W        W93623  10.935  31.627  28.055  0.1885 -0.0613 -0.0592
50530W        W93624   9.569  32.269  30.208  0.0069 -0.0682  0.4195
50531W        W93625   9.948  31.694  31.474  0.1302 -0.0797  0.1322
50532W        W93626   8.153  28.870  28.030 -0.1911 -0.2533 -0.0106
50533W        W93627   8.317  31.441  29.361 -0.2676  0.0901 -0.3320
50534W        W93628   6.229  31.851  28.816 -0.1733 -0.0212 -0.0842
50535W        W93629  10.655  32.250  28.018 -0.0578  0.2927  0.3235
50536W        W93630   8.205  32.290  29.479 -0.0622 -0.3496 -0.1337
50537W        W93631  12.268  32.280  31.572 -0.0433  0.1775 -0.0952
50538W        W93632  10.344  29.631  28.244  0.0713 -0.1710  0.0869
50539W        W93633  10.705  31.627  29.597 -0.3145 -0.1336 -0.1573
50540W        W93634  10.239  29.064  27.419  0.1664 -0.0291 -0.1016
50541W        W93635  10.407  31.827  30.815  0.0973 -0.1123 -0.0999
50542W        W93636   9.810  31.082  29.444 -0.0634  0.0300 -0.1107
50543W        W93637   8.279  28.492  28.619 -0.2898  0.0666  0.1126
50544W        W93638   7.910  30.419  30.858  0.1106 -0.1791 -0.2022
50545W        W93639  11.370  29.275  31.397 -0.0166 -0.0221  0.1582
50546W        W93640   7.150  32.250  31.725 -0.0487  0.0925  0.0500
50547W        W93641  11.036  32.569  27.869  0.2167 -0.0298  0.2908
50548W        W93642   6.338  31.374  28.579 -0.1665 -0.2961 -0.2969
50549W        W93643  10.090  29.606  29.691 -0.0268 -0.0195 -0.1133
50550W        W93644  11.874  28.598  29.190  0.2270  0.1150 -0.2224
50551W        W93645   9.898  31.243  28.142 -0.0535  0.2318  0.0386
50552W        W93646   8.525  31.195  30.355 -0.0435 -0.1777 -0.0369
50553W        W93647   7.764  32.271  29.743 -0.0716  0.2207  0.2811
50554W        W93648   7.970  32.352  30.961  0.3338 -0.1500 -0.0927
50555W        W93649   7.252  33.780  29.488  0.0487  0.2470 -0.4061
50556W        W93650   6.896  29.727  28.958  0.0296  0.0354 -0.2407
50557W        W93651  11.558  30.733  29.134  0.2612  0.0818  0.1191
50558W        W93652   7.805  29.614  30.217 -0.0601 -0.3406  0.0176
50559W        W93653  10.976  28.701  30.303 -0.0305  0.2831 -0.2079
50560W        W93654   8.071  29.997  29.616  0.2169 -0.0099  0.1362
50561W        W93655  10.546  30.143  29.011 -0.2234  0.1952 -0.0990
50562W        W93656   9.480  30.877  30.169 -0.0577 -0.1111 -0.5884
50563W        W93657   8.659  30.920  29.832  0.0086  0.1123  0.0769
50564W        W93658  10.152  30.896  27.860  0.0972 -0.2077  0.0905
50565W        W93659  11.443  32.655  30.546 -0.0741 -0.0274  0.0222
50566W        W93660   9.168  30.064  29.039  0.0088 -0.3401  0.1196
50567W        W93661   8.428  32.268  30.655  0.1417 -0.1967  0.2563
50568W        W93662   7.946  29.966  28.011 -0.1395  0.0269 -0.1548
50569W        W93663   9.669  29.940  28.995  0.1870 -0.2705  0.1358
50570W        W93664   6.838  31.896  29.729 -0.1911 -0.0229 -0.1657
50571W        W93665   8.537  30.547  30.382 -0.2511  0.0318 -0.0363
50572W        W93666   9.735  31.176  31.731  0.1308  0.0823  0.1403
50573W        W93667   8.880  29.722  27.627 -0.0675  0.3329  0.0573
50574W        W93668  10.372  32.501  29.166 -0.1641 -0.1022  0.1171
50575W        W93669  11.338  31.494  28.766  0.0412 -0.0340 -0.1826
50576W        W93670   7.982  33.076  27.468 -0.0514 -0.0357 -0.0444
50577W        W93671  10.933  30.841  28.580  0.0452  0.1472  0.4431
50578W        W93672  10.855  33.439  31.213  0.0178 -0.0080 -0.1762
50579W        W93673   7.027  28.623  29.651 -0.1684 -0.0274 -0.2113
50580W        W93674  11.746  31.979  30.906  0.1646  0.0006 -0.0228
50581W        W93675  10.001  32.231  31.428  0.0328 -0.1028 -0.0593
50582W        W93676   8.834  28.600  29.392 -0.1704 -0.1872  0.0413
50583W        W93677   7.798  31.114  30.294  0.0187  0.0016 -0.0259
50584W        W93678   8.062  32.326  28.988 -0.0636 -0.1359  0.1868
50585W        W93679   9.118  29.976  30.006  0.2471 -0.0724 -0.3229
50586W        W93680  11.332  30.102   0.644 -0.1007  0.2379  0.0607
50587W        W93681   8.328  33.235  27.758 -0.1986 -0.0894 -0.0672
50588W        W93682  10.210  28.698   0.333 -0.0303  0.1096  0.1308
50589W        W93683   9.162  32.418  30.435  0.3407  0.0523  0.2139
50590W        W93684   8.038  32.081  31.701  0.3318 -0.1495  0.1974
50591W        W93685   8.980  31.438  28.892 -0.4660 -0.0417 -0.2442
50592W        W93686   7.206  30.370  30.554 -0.0327 -0.2001 -0.2444
50593W        W93687   7.841  30.658  28.986 -0.1877 -0.3449  0.2586
50594W        W93688   7.625  31.517  28.487  0.2063 -0.2538 -0.2047
50595W        W93689  11.634  33.211  30.854  0.3355 -0.1790 -0.2301
50596W        W93690  10.123  29.897  27.707 -0.2441  0.2646 -0.2363
50597W        W93691  12.087  32.639  28.474 -0.1423  0.0891  0.2577
50598W        W93692   7.874  28.302  29.178  0.0816 -0.0938 -0.1012
50599W        W93693  11.198  30.447  29.424 -0.0520  0.0044 -0.0223
50600W        W93694  11.788  29.107  29.360  0.0585  0.0621  0.0947
50601W        W93695   9.370  31.374  30.349 -0.1032  0.0078  0.1618
50602W        W93696   8.803  30.253  27.995  0.1647  0.0378 -0.1986
50603W        W93697   9.837  30.638  29.281  0.0557 -0.0521  0.3029
50604W        W93698   7.976  30.457  29.760 -0.1833  0.1912 -0.0227
50605W        W93699  10.614  29.635  31.887 -0.2993 -0.1006 -0.4391
50606W        W93700   8.563  30.415  29.616 -0.0552 -0.0968  0.0597
50607W        W93701   8.017  31.520  30.443 -0.0006 -0.0782 -0.1826
50608W        W93702   7.103  29.687  28.454 -0.1019 -0.1794 -0.0464
50609W        W93703   9.972  32.502  27.477 -0.6022  0.0715 -0.0112
50610W        W93704   9.263  29.648  29.655  0.3507  0.0293 -0.2416
50611W        W93705   7.944  28.828  29.397  0.3714 -0.0277  0.1173
50612W        W93706  10.042  30.776  28.720  0.0989  0.1300  0.2228
50613W        W93707  10.849  32.611  28.302  0.0278 -0.0682 -0.3545
50614W        W93708   7.837  29.297  27.984 -0.0788  0.0606 -0.4389
50615W        W93709  11.929  32.029  31.824  0.3714  0.0502 -0.0508
50616W        W93710   8.106  32.366  27.881 -0.5048 -0.2604 -0.0743
50617W        W93711  10.196  30.834  30.685  0.0319  0.0342 -0.1979
50618W        W93712   7.974  30.612  30.236 -0.1372 -0.0703 -0.2191
50619W        W93713   7.927  30.766  27.727 -0.3414  0.3566  0.0030
50620W        W93714   9.865  30.557  29.792  0.0377  0.1338 -0.1721
50621W        W93715  10.670  31.176  29.359 -0.2628 -0.1525 -0.1939
50622W        W93716   9.379  32.994  27.529  0.4127 -0.1550 -0.0903
50623W        W93717   9.029  29.372  28.053 -0.0800  0.0027  0.1700
50624W        W93718   8.183  31.593  31.802 -0.0166 -0.2710 -0.2414
50625W        W93719   6.337  27.470  30.594  0.3594  0.0769  0.0276
50626W        W93720   9.358  31.253  28.638  0.2487 -0.1725 -0.1793
50627W        W93721   9.578  30.660  30.599  0.1097 -0.3289  0.1332
50628W        W93722  10.290  32.201  27.693 -0.0441 -0.2876  0.0299
50629W        W93723  11.790  29.380  30.608 -0.1689  0.1492 -0.4207
50630W        W93724  10.982  30.196  28.065  0.3829 -0.0435 -0.0465
50631W        W93725   7.593  28.960   0.016 -0.0769  0.2788  0.3164
50632W        W93726   7.523  30.072  29.906 -0.0435  0.0031  0.2552
50633W        W93727  11.283  31.867  31.065 -0.0846 -0.0920  0.1017
50634W        W93728   8.909  30.033  29.474  0.1509 -0.2588 -0.0729
50635W        W93729  12.159  30.916  28.573 -0.2752  0.2717 -0.0656
50636W        W93730   9.716  31.493  29.033 -0.1244 -0.3277 -0.0049
50637W        W93731   7.481  31.254  29.384 -0.0384 -0.3165 -0.0342
50638W        W93732  10.315  30.625  29.090 -0.1763  0.2794 -0.1559
50639W        W93733   9.807  31.882  29.936 -0.0360 -0.2384 -0.5815
50640W        W93734   9.741  32.340  29.558 -0.1233 -0.0446  0.2454
50641W        W93735  10.040  31.504  30.865 -0.0468  0.1776 -0.1651
50642W        W93736   7.797  31.075  28.210  0.1326  0.1711 -0.0979
50643W        W93737  11.865  32.202  28.256  0.2308 -0.1409 -0.1821
50644W        W93738   8.907  33.013  30.716 -0.2922  0.1072 -0.0644
50645W        W93739  10.826  31.877  31.840 -0.0251 -0.1279  0.2950
50646W        W93740   8.718  31.947  30.984  0.2943 -0.0290  0.1226
50647W        W93741  11.420  31.720  30.495 -0.1980 -0.0439 -0.1327
50648W        W93742   8.857  29.787  28.689  0.2326  0.0777  0.1867
50649W        W93743   8.418  30.965  29.388  0.2338 -0.0313  0.2457
50650W        W93744   8.913  31.466  29.481  0.1356  0.0483  0.0258
50651W        W93745   9.362  29.638  31.233  0.0033  0.1976  0.0038
50652W        W93746   9.034  29.251  28.546  0.1898  0.2063  0.1040
50653W        W93747  10.565  30.229  26.765  0.0451  0.1309  0.2313
50654W        W93748   6.389  32.771  30.871 -0.3418  0.2068  0.0253
50655W        W93749   9.068  31.688  30.608 -0.2540 -0.0825  0.2877
50656W        W93750   9.989  30.506  31.794 -0.1180  0.1290 -0.0517
50657W        W93751  10.082  32.177   0.042 -0.1444  0.2402 -0.1992
50658W        W93752   7.568  30.706  30.575 -0.0308  0.0490 -0.0064
50659W        W93753   8.294  32.105  31.250 -0.1414  0.1600  0.0498
50660W        W93754   9.670  31.081  30.899 -0.1931  0.2596 -0.1324
50661W        W93755   8.559  31.813  30.485  0.2698 -0.5572 -0.1797
50662W        W93756  10.888  30.438   0.431  0.1081 -0.1956  0.0268
50663W        W93757   8.363  30.575  30.852 -0.0073 -0.1368  0.1652
50664W        W93758  11.105  29.790   0.123  0.1203  0.0164  0.0196
50665W        W93759  10.777  32.790   0.377 -0.1529  0.2859 -0.4733
50666W        W93760   8.430  30.896  31.233 -0.0582 -0.2498 -0.0241
50667W        W93761   8.757  28.848  31.103  0.0779  0.1181  0.0199
50668W        W93762  11.904  31.758  31.386 -0.0314 -0.1359 -0.1182
50669W        W93763   8.489  29.768  30.371 -0.0365  0.1992  0.0227
50670W        W93764  10.329  31.453  31.769 -0.1353 -0.3338 -0.2472
50671W        W93765   7.481  32.522  30.724 -0.3342  0.0284 -0.1207
50672W        W93766   8.015  31.155  31.427  0.1211  0.1011  0.0382
50673W        W93767   9.523  31.863  31.213  0.1350  0.1323 -0.0066
50674W        W93768   7.688  28.491   0.230  0.1146  0.1629  0.1476
50675W        W93769  10.804  29.938   0.537 -0.1337  0.2152  0.0545
50676W        W93770   7.506  28.791  31.311  0.1060 -0.1058 -0.1554
50677W        W93771   7.692  31.542  31.871 -0.1704  0.2391  0.0556
50678W        W93772  10.092  28.608   0.837 -0.2202  0.0004 -0.3431
50679W        W93773  10.307  31.295   0.283  0.0026 -0.0774 -0.0087
50680W        W93774   9.606  29.992  30.836 -0.0272 -0.1891  0.0193
50681W        W93775  10.086  29.109   1.235  0.2166  0.0206 -0.0416
50682W        W93776   8.996  29.694  31.619  0.1769 -0.2558  0.1110
50683W        W93777   6.760  32.565  31.790 -0.1208  0.0288  0.2314
50684W        W93778   7.534  29.709   0.173  0.1207 -0.2194 -0.0944
50685W        W93779   9.166  30.660  31.567 -0.1988 -0.2632  0.1424
50686W        W93780   8.725  30.154  30.593  0.1239 -0.0533  0.0808
50687W        W93781   8.105  29.799  31.674 -0.2744  0.1969 -0.1418
50688W        W93782  10.969  31.260   0.451  0.2461  0.1271  0.2493
50689W        W93783  11.242  30.468   1.516  0.2229  0.1950 -0.3545
50690W        W93784   8.122  29.626   0.618  0.0157  0.2432 -0.0560
50691W        W93785   9.573  31.821   0.253  0.1991 -0.0304  0.0858
50692W        W93786  10.183  30.690  31.172 -0.0377  0.1096  0.1131
50693W        W93787   9.287  32.878   0.140 -0.2136 -0.1441 -0.0253
50694W        W93788  10.603  29.039  30.870  0.0613 -0.0535 -0.1091
50695W        W93789   9.028  31.855   0.145  0.2588 -0.1899 -0.0781
50696W        W93790   9.302  30.317   0.395 -0.3908  0.2213 -0.3987
50697W        W93791  10.478  30.118   1.851  0.0910  0.2586  0.0619
50698W        W93792   9.434  28.649   0.189  0.0027 -0.0685  0.0575
50699W        W93793   9.407  32.306   1.735  0.4378 -0.1589 -0.0018
50700W        W93794   9.226  29.000  30.547 -0.1220 -0.2977 -0.2186
50701W        W93795   9.232  30.684   1.019  0.0579  0.4425 -0.0869
50702W        W93796   9.115  28.603  30.837 -0.0714 -0.0555 -0.1086
50703W        W93797   8.949  31.496  31.035  0.1388 -0.1435  0.2186
50704W        W93798  10.536  33.029   0.810  0.4195 -0.1619 -0.0736
50705W        W93799   6.707  32.004  30.868  0.1695 -0.0057  0.0797
50706W        W93800  11.654  33.148  31.655  0.0633 -0.0656 -0.0431
50707W        W93801  10.054  30.003  31.158 -0.0713  0.0384  0.0230
50708W        W93802   8.642  30.638  31.608 -0.0512 -0.0293  0.0942
50709W        W93803   9.173  31.191  31.760 -0.1096  0.0733  0.0609
50710W        W93804   9.720  29.905   0.125 -0.0325 -0.1482 -0.1351
50711W        W93805  10.939  31.645   1.254  0.2245 -0.1412 -0.1425
50712W        W93806  10.919  31.775  30.738 -0.0469 -0.0038 -0.1528
50713W        W93807   7.758  33.535  30.308  0.0263  0.2884  0.0890
50714W        W93808   8.783  31.901  29.945  0.0597  0.2750  0.2378
50715W        W93809   8.220  30.803   0.595 -0.0498  0.1482  0.0393
50716W        W93810   7.573  30.079  30.834  0.0130  0.0371 -0.0944
50717W        W93811   8.220  30.752  31.849  0.1943 -0.1411 -0.2992
50718W        W93812   8.708  31.001  30.836  0.3620  0.0030  0.2287
50719W        W93813   6.058  26.775   0.077 -0.0887 -0.1277 -0.2198
50720W        W93814   9.913  33.097   0.093  0.0477  0.1522  0.0680
50721W        W93815  10.340  32.509  31.638  0.0961 -0.0013 -0.1304
50722W        W93816  10.385  31.565  31.275 -0.0923 -0.1869  0.1821
50723W        W93817   7.839  33.409  17.006 -0.1962  0.0144  0.2069
50724W        W93818   9.745  31.983  15.932 -0.2555 -0.2783 -0.2989
50725W        W93819  10.250   0.519  15.592  0.0238 -0.2275 -0.2755
50726W        W93820   7.109  32.071  16.002 -0.0879  0.0946  0.2136
50727W        W93821   7.958  33.187  18.804 -0.0463 -0.0008 -0.2094
50728W        W93822   8.638  34.517  15.657 -0.0253 -0.1203 -0.2208
50729W        W93823   8.283  34.318  18.022 -0.0800 -0.0735 -0.1332
50730W        W93824   8.996  32.940  16.177 -0.1471 -0.1448  0.3761
50731W        W93825   7.997  33.221  16.023  0.0649 -0.2371 -0.0348
50732W        W93826  11.034  33.878  18.440 -0.0684 -0.1278  0.4658
50733W        W93827   6.890  33.464  15.946 -0.0992  0.0796 -0.0600
50734W        W93828   9.114  33.021  17.746 -0.3308 -0.0794  0.0031
50735W        W93829   8.226  32.641  15.238  0.1103  0.2778  0.0377
50736W        W93830  10.045   0.097  18.049  0.2702 -0.0555  0.2866
50737W        W93831   8.347  31.891  19.264  0.4500  0.0476 -0.0809
50738W        W93832   7.433  33.566  15.164  0.1728  0.0982  0.1771
50739W        W93833   7.494   0.095  17.714  0.2033  0.0479 -0.0810
50740W        W93834   8.062   0.984  18.668 -0.1246  0.1705  0.1150
50741W        W93835   8.145  33.532  17.463  0.1607 -0.1429 -0.0172
50742W        W93836  10.437  32.283  16.382 -0.1683  0.2431 -0.0704
50743W        W93837   9.939   0.140  19.600  0.0781  0.0284  0.1817
50744W        W93838   9.381  34.493  17.388  0.2678  0.1775 -0.2662
50745W        W93839   9.982  33.820  15.629 -0.0713  0.1572 -0.0395
50746W        W93840  10.190  33.478  20.845 -0.1318 -0.0437 -0.2979
50747W        W93841  10.433  33.005  15.342 -0.2026  0.1216 -0.0020
50748W        W93842   8.727  32.913  15.080  0.0793  0.1684 -0.1125
50749W        W93843  11.169  32.179  15.974  0.0750 -0.0560  0.1070
50750W        W93844  10.378  32.741  16.395  0.3028 -0.0456 -0.0278
50751W        W93845   7.789  33.308  18.188  0.2199  0.1110  0.0202
50752W        W93846   7.851  32.611  16.589 -0.2496 -0.0717  0.0849
50753W        W93847  10.163  34.027  18.270  0.0989  0.0453 -0.0452
50754W        W93848   7.538  34.535  16.243  0.3251 -0.1558 -0.0835
50755W        W93849   8.311  33.494  15.755  0.1206  0.3705  0.1356
50756W        W93850   9.105  34.158  18.476  0.0777  0.1045  0.3808
50757W        W93851   8.129   0.859  19.719  0.2558 -0.0324  0.0285
50758W        W93852   8.181  33.525  14.852  0.2362 -0.0879  0.1294
50759W        W93853   9.864  33.729  16.941 -0.0965  0.0555  0.5718
50760W        W93854   9.888  32.855  17.541  0.0853  0.0586 -0.1514
50761W        W93855   9.647  33.574  17.420  0.2576  0.0452  0.0735
50762W        W93856  10.158  34.211  15.396  0.1490 -0.0433 -0.1915
50763W        W93857   8.547   0.031  20.206 -0.1244 -0.1186  0.2450
50764W        W93858   7.721  33.469  19.653  0.0206  0.2244  0.1548
50765W        W93859  10.406  33.382  15.692 -0.2957 -0.1304  0.1373
50766W        W93860   6.084  33.827  18.556 -0.2735 -0.1514 -0.3998
50767W        W93861   9.624  33.730  16.037 -0.4372  0.1272  0.0979
50768W        W93862  11.491  33.712  15.917 -0.2379  0.0578 -0.2082
50769W        W93863   9.024  33.801  18.133  0.0036  0.2399  0.0643
50770W        W93864   8.675  33.946  15.680  0.1104 -0.1587  0.2609
50771W        W93865   7.711  32.884  19.168  0.2685  0.0674 -0.1591
50772W        W93866   6.674  33.593  18.013 -0.1218 -0.1069  0.1692
50773W        W93867   9.872  34.107  17.366  0.2850 -0.2098  0.4256
50774W        W93868   7.930  33.616  15.331 -0.1723 -0.2685  0.1037
50775W        W93869  10.415  33.999  15.785  0.0740  0.1856  0.1984
50776W        W93870   9.108  33.690  16.202 -0.1733  0.0886 -0.0297
50777W        W93871  11.407  33.018  18.899 -0.0036  0.1904 -0.0262
50778W        W93872   7.626  33.409  19.121  0.2803 -0.2737  0.2949
50779W        W93873   9.458  33.943  17.152 -0.1528  0.3131 -0.2429
50780W        W93874   8.772  33.464  15.951 -0.1057  0.0430 -0.0499
50781W        W93875   8.080  33.374  19.217  0.3089  0.0166  0.0303
50782W        W93876  10.209  33.205  18.439  0.2917 -0.3274  0.3170
50783W        W93877   6.876  33.593  15.459  0.1265  0.0238  0.0123
50784W        W93878   7.997   0.029  17.902 -0.0721  0.0902  0.0949
50785W        W93879  11.516  32.050  17.316  0.1141  0.1490  0.0594
50786W        W93880   7.214  33.934  20.268 -0.1036 -0.0779  0.0982
50787W        W93881   9.453  34.678  20.009 -0.1587  0.3429  0.1373
50788W        W93882   8.429  34.201  16.485 -0.2368 -0.1271 -0.4176
50789W        W93883  10.625  32.536  16.810  0.2353 -0.1122  0.1281
50790W        W93884  11.713  32.776  16.137 -0.1317  0.1023  0.1724
50791W        W93885   9.676  32.457  15.308  0.0689  0.0946 -0.0441
50792W        W93886   9.031  32.580  15.387 -0.0692  0.1363  0.0486
50793W        W93887   9.997  33.398  15.944 -0.2508 -0.0961 -0.1345
50794W        W93888   7.381  33.192  17.161 -0.0358  0.1576  0.0206
50795W        W93889   9.937  32.882  15.285  0.2876  0.0735 -0.3001
50796W        W93890   9.869  32.957  15.786 -0.0884  0.0383  0.3387
50797W        W93891  10.255  33.307  17.731 -0.1971 -0.0397  0.2125
50798W        W93892  10.281  32.158  15.893  0.0775 -0.0142 -0.0062
50799W        W93893   8.666  34.288  19.971 -0.3425  0.0159 -0.2448
50800W        W93894   9.282  34.107  19.836  0.1452 -0.1202  0.1223
50801W        W93895   9.608  34.267  15.432  0.0402 -0.2029 -0.1053
50802W        W93896  10.015   0.375  16.720  0.1324  0.0229  0.2648
50803W        W93897   8.014   0.371  15.552 -0.1020  0.2644 -0.1836
50804W        W93898  10.590  32.956  20.584  0.0007  0.0942  0.3006
50805W        W93899   9.475  33.504  17.858  0.2193 -0.1234  0.1374
50806W        W93900  10.606  32.602  15.111 -0.1418  0.1424  0.0733
50807W        W93901   7.819  33.754  16.538 -0.1080 -0.0119 -0.1654
50808W        W93902  11.574  33.841  17.719  0.3102 -0.0595 -0.1707
50809W        W93903   9.884  33.768  17.854 -0.0676 -0.0514  0.3258
50810W        W93904   8.337  34.621  16.796 -0.1063  0.0102 -0.0605
50811W        W93905   9.924  32.358  17.270 -0.0568 -0.0833 -0.2027
50812W        W93906   7.551  33.467  18.616  0.1140 -0.1267  0.3136
50813W        W93907   9.571  32.237  16.665 -0.1692  0.0202  0.1751
50814W        W93908   9.776   0.639  17.235  0.0055 -0.1676 -0.5610
50815W        W93909   9.535  32.221  14.780 -0.2776  0.0413 -0.3468
50816W        W93910   8.845  33.556  18.509  0.1700  0.0405  0.2165
50817W        W93911   6.817   0.199  16.158  0.0194  0.2810  0.0244
50818W        W93912  10.989  34.246  18.889  0.0669  0.0897  0.0451
50819W        W93913   9.431  32.841  15.949 -0.1705 -0.1764 -0.1288
50820W        W93914   7.788  34.320  15.821 -0.3402  0.0834 -0.0447
50821W        W93915   9.515  33.723  18.947  0.2245  0.0940 -0.0686
50822W        W93916   8.619  33.711  17.344  0.1499 -0.1608 -0.2136
50823W        W93917   8.511  31.722  16.837  0.1176 -0.3487 -0.0164
50824W        W93918   9.047  33.991  17.396 -0.4212  0.0923 -0.1224
50825W        W93919  10.289  34.069  17.752  0.3386  0.1094  0.2111
50826W        W93920  10.560  34.294  16.317 -0.0514  0.2236 -0.2770
50827W        W93921   9.055   0.348  19.535 -0.1847  0.2569 -0.2020
50828W        W93922  10.079  33.998  18.730  0.0940  0.1801  0.1193
50829W        W93923  11.649  32.094  15.890  0.1597  0.0014 -0.2364
50830W        W93924   8.340  34.194  17.398 -0.1985  0.3366  0.2947
50831W        W93925   9.830  33.362  18.795  0.2781  0.2199 -0.3052
50832W        W93926  11.063  34.656  15.669 -0.0314  0.2492  0.0844
50833W        W93927  10.014  33.554  20.217 -0.0279 -0.3470  0.2067
50834W        W93928   7.647  33.840  18.306 -0.1879 -0.2162 -0.1233
50835W        W93929   7.471  33.893  17.799  0.0807 -0.3862 -0.0206
50836W        W93930   6.981   0.038  20.434 -0.2108 -0.2648  0.0619
50837W        W93931  11.480  33.155  15.888  0.0360 -0.0429 -0.2653
50838W        W93932   7.509  33.450  14.709 -0.0572  0.0996  0.0635
50839W        W93933   7.788  34.293  18.074 -0.0197  0.1586 -0.1455
50840W        W93934  10.735  33.410  18.145 -0.0569 -0.0330 -0.1567
50841W        W93935   6.464   1.032  18.077  0.0903 -0.0288  0.0967
50842W        W93936  10.711  31.960  17.673  0.2239  0.1234  0.1035
50843W        W93937   8.976  33.577  17.690 -0.0122 -0.3065 -0.1632
50844W        W93938   8.655  33.609  16.531  0.0963  0.1238 -0.2665
50845W        W93939   8.713  34.130  17.041 -0.2116 -0.1309 -0.0933
50846W        W93940   9.527  34.237  18.772 -0.3292  0.3893  0.0141
50847W        W93941   8.285  33.562  18.445  0.1249 -0.1042  0.1832
50848W        W93942   7.617  34.306  19.103  0.0462 -0.3074 -0.1870
50849W        W93943  10.584  34.494  15.689 -0.0103  0.4385  0.0963
50850W        W93944  10.775  32.040  18.171  0.0675  0.2661 -0.0276
50851W        W93945  10.730  33.793  16.179 -0.2585  0.2293 -0.0374
50852W        W93946  11.220  33.981  16.377  0.3163 -0.0415  0.1438
50853W        W93947   8.046  33.752  18.014  0.0254  0.0535 -0.0045
50854W        W93948   9.792  33.667  21.527  0.3314 -0.2137 -0.1124
50855W        W93949   7.642  33.000  15.659 -0.1971 -0.0068  0.0545
50856W        W93950  10.090  33.183  19.190  0.0919 -0.0149  0.2619
50857W        W93951  10.507  34.016  14.912 -0.0001 -0.0632  0.0496
50858W        W93952   8.556  33.115  16.561  0.0055 -0.2544  0.1120
50859W        W93953  11.030  34.450  16.435  0.0914 -0.1231 -0.4199
50860W        W93954   8.841  33.812  15.209  0.2008 -0.1122  0.0622
50861W        W93955   8.560  32.462  16.175  0.3554  0.4304  0.1419
50862W        W93956  10.257  34.453  19.666  0.4053 -0.0036 -0.0296
50863W        W93957   8.498  32.952  17.055  0.4489  0.4218 -0.1997
50864W        W93958   9.813  33.203  18.053 -0.0534 -0.0040 -0.0491
50865W        W93959   8.849  33.208  18.130  0.3067 -0.2345 -0.5062
50866W        W93960  10.785  34.104  17.559 -0.2465  0.1817 -0.2585
50867W        W93961  10.836   0.169  19.300 -0.2457 -0.1902  0.0769
50868W        W93962   9.341  34.272  19.358 -0.1322 -0.1311  0.1053
50869W        W93963   7.890   0.502  18.259 -0.0310  0.2770 -0.0802
50870W        W93964   8.573  32.624  15.646 -0.0746  0.1106 -0.0682
50871W        W93965   9.862  32.974  16.297 -0.0366 -0.2422 -0.0386
50872W        W93966  10.106  31.599  16.024  0.1369 -0.1060 -0.0694
50873W        W93967  12.049  33.730  18.242  0.1386 -0.1541  0.2455
50874W        W93968  10.776  33.693  15.629  0.4447  0.2840 -0.0373
50875W        W93969   8.839  34.605  18.478  0.1595 -0.3258  0.1304
50876W        W93970   9.444  32.928  15.324 -0.1102 -0.4090  0.1476
50877W        W93971   7.551  32.468  18.915 -0.0992  0.2204 -0.2152
50878W        W93972  11.142  33.348  18.541  0.3761  0.0446  0.0774
50879W        W93973   7.423  34.248  15.085 -0.1426 -0.1190  0.1069
50880W        W93974   9.146  34.078  16.683  0.0371  0.1337 -0.4992
50881W        W93975  11.631  32.741  16.709 -0.4082 -0.1316  0.0632
50882W        W93976   8.816  34.448  16.628 -0.0540 -0.0668  0.0358
50883W        W93977   7.444  33.485  15.636 -0.3162 -0.1764  0.0411
50884W        W93978  12.035  34.250  17.010  0.1385  0.0492 -0.1387
50885W        W93979   8.757  32.361  17.787  0.2645  0.1196 -0.0206
50886W        W93980   9.416  33.004  17.347  0.1602  0.0658 -0.4193
50887W        W93981   9.042  33.047  15.670  0.0015 -0.1458  0.1928
50888W        W93982   9.996  33.382  15.430  0.0801  0.3145  0.3441
50889W        W93983   7.265  34.581  18.848 -0.0276 -0.1008 -0.1075
50890W        W93984   7.885  33.708  15.876 -0.2625  0.1469  0.2295
50891W        W93985  10.986   0.364  19.805 -0.0115  0.1216  0.2436
50892W        W93986   9.040  34.274  15.528  0.1948  0.2266 -0.0485
50893W        W93987   6.620  32.316  16.849  0.0161  0.2847  0.0193
50894W        W93988   8.561  33.125  15.558 -0.3179  0.0567  0.1330
50895W        W93989   9.683  34.094  16.365  0.0900  0.2072  0.0793
50896W        W93990  10.417  34.190  19.039  0.1897 -0.1328  0.0799
50897W        W93991   8.513  32.965  16.072 -0.0788  0.2317 -0.2165
50898W        W93992  10.677  33.765  17.068 -0.3687  0.0533 -0.4200
50899W        W93993  10.732  33.952  18.069 -0.1491 -0.2719 -0.0404
50900W        W93994   7.450  34.024  16.124 -0.0872  0.0170 -0.2009
50901W        W93995   9.958  34.232  15.854  0.2202  0.0282 -0.1367
50902W        W93996  10.198  33.736  17.371  0.1758  0.2630 -0.1533
50903W        W93997  10.967  33.334  17.173  0.1830  0.0255  0.3794
50904W        W93998   9.605  33.318  19.362  0.0545  0.1113 -0.0435
50905W        W93999   8.261  33.229  17.917  0.1048  0.1423  0.0410
50906W        W94000  10.867  33.421  16.507  0.0068 -0.1151 -0.0506
50907W        W94001   7.619  32.863  16.131  0.0690  0.0835  0.0331
50908W        W94002  11.203  33.949  15.548 -0.1325 -0.3837 -0.4055
50909W        W94003  10.956  32.321  16.437  0.0413  0.0012  0.0050
50910W        W94004   8.457  34.315  18.644 -0.1184 -0.0791  0.1264
50911W        W94005   8.369  34.190  15.942 -0.0142  0.1249  0.1249
50912W        W94006   8.938  32.182  19.213  0.1380  0.1854 -0.0857
50913W        W94007   7.987  34.419  17.120  0.1661 -0.0735  0.2278
50914W        W94008   9.910  34.423  19.237  0.0606 -0.0491  0.0706
50915W        W94009   6.153  32.061  17.228 -0.4480  0.5214  0.3583
50916W        W94010   7.280  34.257  18.412 -0.0157 -0.0971 -0.2772
50917W        W94011   8.889  32.084  15.609 -0.2302 -0.1761  0.1147
50918W        W94012   7.904  32.758  17.066  0.0722 -0.0826  0.0642
50919W        W94013   9.743  34.352  19.758  0.0864 -0.4804 -0.0647
50920W        W94014  10.265  33.665  19.096  0.0406  0.1204  0.1987
50921W        W94015   8.006  31.472  15.698 -0.2616 -0.1686 -0.2587
50922W        W94016  10.435  33.253  17.219 -0.2962  0.1091  0.4084
50923W        W94017   7.683  31.953  19.070 -0.3383 -0.2145  0.1187
50924W        W94018  12.059  32.824  16.500 -0.0119  0.0559  0.0345
50925W        W94019   9.185  33.675  15.683  0.1740 -0.2523  0.1500
50926W        W94020   6.138  32.045  19.285  0.0152  0.0085  0.1271
50927W        W94021   9.126  33.271  16.564 -0.2270  0.1851  0.1583
50928W        W94022  10.138  33.922  16.197 -0.2179 -0.3323 -0.3274
50929W        W94023   8.918  33.613  16.925  0.0605 -0.0591 -0.1059
50930W        W94024   8.089  32.260  16.189 -0.0504 -0.1474 -0.2688
50931W        W94025   8.613  34.041  18.276 -0.0078 -0.1511 -0.2140
50932W        W94026   8.661  33.438  14.835  0.0320 -0.0191 -0.0026
50933W        W94027  10.143   1.352  15.737 -0.0991  0.1558  0.1686
50934W        W94028   8.683  33.171  17.458  0.1400  0.0952  0.0999
50935W        W94029   7.755   1.219  16.613  0.0926 -0.1825  0.0145
50936W        W94030   7.967  34.077  16.216  0.1072  0.4070 -0.0286
50937W        W94031   8.829  34.096  19.508  0.4926  0.1825 -0.0469
50938W        W94032   8.470  33.396  16.990 -0.1270  0.0413  0.1152
50939W        W94033   9.241  32.813  14.502 -0.0709 -0.2808 -0.0909
50940W        W94034   7.472  33.626  21.610  0.1070 -0.0314 -0.4245
50941W        W94035   9.157  33.301  20.203  0.0857 -0.2769  0.1948
50942W        W94036  10.749  34.491  20.232  0.1097  0.3933 -0.0005
50943W        W94037   6.223  32.919  21.813 -0.0696  0.0132  0.0034
50944W        W94038   8.802  32.425  22.463  0.0177  0.1506 -0.2952
50945W        W94039   9.733   0.494  17.840  0.2887  0.1634  0.1492
50946W        W94040   9.153  33.489  21.601  0.1736  0.0666 -0.2808
50947W        W94041   9.696  32.056  19.687 -0.1520  0.1961 -0.0172
50948W        W94042   5.979  32.353  22.531 -0.1452  0.0742 -0.0266
50949W        W94043  10.753  34.405  21.304 -0.3143 -0.1919 -0.0025
50950W        W94044   5.454   0.792  19.547  0.1354 -0.0695  0.1251
50951W        W94045  10.037  33.038  21.457  0.0312 -0.1809 -0.0386
50952W        W94046   7.560  34.189  21.465  0.0242  0.0872 -0.2722
50953W        W94047   8.416  32.211  21.208 -0.2756 -0.1712 -0.4542
50954W        W94048   8.332  32.568  22.160 -0.2471  0.1136 -0.1362
50955W        W94049   7.266  33.653  19.374  0.1374 -0.1943 -0.1412
50956W        W94050   6.208  32.481  19.067 -0.3000 -0.3441  0.2319
50957W        W94051   7.805  33.897  21.903  0.0969 -0.0810  0.0288
50958W        W94052   8.281  33.621  21.802  0.1105 -0.0763  0.0796
50959W        W94053  10.268  33.354  22.858 -0.0057  0.1627 -0.4555
50960W        W94054  10.282  34.292  22.695  0.0108 -0.0826 -0.0237
50961W        W94055   9.794   0.096  21.206  0.2553 -0.1027  0.0246
50962W        W94056   7.628  34.533  20.479 -0.3504 -0.1294  0.4239
50963W        W94057  10.931  33.110  23.571 -0.1632  0.0790  0.4413
50964W        W94058   8.556  33.807  19.854 -0.0018 -0.1567 -0.0254
50965W        W94059   7.143  32.708  19.037  0.1525 -0.0347  0.0901
50966W        W94060   8.268  34.290  19.627 -0.1749  0.0172  0.0488
50967W        W94061   8.141  33.286  21.036 -0.2810 -0.0112  0.1199
50968W        W94062   7.946  31.689  20.015  0.0556 -0.0782 -0.1128
50969W        W94063   8.654  34.428  20.821  0.2980  0.1220  0.2528
50970W        W94064  11.260  33.510  22.279 -0.0353  0.0073  0.1223
50971W        W94065   6.973  33.349  20.227 -0.0942 -0.1065 -0.0418
50972W        W94066   7.341  32.058  20.045 -0.1345 -0.0864  0.3715
50973W        W94067   7.974  34.569  22.809  0.1374 -0.2489  0.2066
50974W        W94068   6.951   0.171  21.739 -0.0892  0.0701  0.2204
50975W        W94069   8.956  32.564  18.926  0.3210  0.1371 -0.0561
50976W        W94070  10.010  33.250  19.718 -0.0631  0.3709 -0.1956
50977W        W94071  10.157  33.833  21.247 -0.1646  0.0515 -0.1801
50978W        W94072  10.907  33.139  22.418  0.2692 -0.0781 -0.0796
50979W        W94073  11.488   0.482  19.727 -0.1733  0.1867  0.0354
50980W        W94074   8.193  34.096  22.136 -0.0174 -0.2693  0.0782
50981W        W94075   8.020  32.599  23.428 -0.0826 -0.0832 -0.2256
50982W        W94076  11.008  32.283  19.971 -0.0680 -0.0485  0.2335
50983W        W94077   7.055  32.621  21.914 -0.0899  0.0211 -0.2641
50984W        W94078  10.912  33.558  23.241 -0.1700 -0.0755  0.1453
50985W        W94079  11.734  34.676  19.942  0.3141  0.1120  0.2786
50986W        W94080   7.525  34.610  22.498  0.0880 -0.0228 -0.1007
50987W        W94081   7.965  33.764  20.279  0.1793  0.0953  0.1572
50988W        W94082   7.241  32.807  22.844 -0.2757  0.2148  0.1801
50989W        W94083   8.419  34.307  21.652  0.1157 -0.2693 -0.0403
50990W        W94084  10.915  33.333  21.510 -0.2066 -0.0563  0.0193
50991W        W94085   7.567  32.935  19.922 -0.0575 -0.0814 -0.2381
50992W        W94086  10.684  33.602  20.934  0.1629 -0.0278 -0.1893
50993W        W94087   8.094   0.225  20.360 -0.3022  0.2911  0.3019
50994W        W94088  10.651  33.916  23.442  0.4538  0.2509  0.0872
50995W        W94089   7.676  32.408  19.831 -0.0019 -0.0935  0.3471
50996W        W94090   6.978  34.213  19.970 -0.3327  0.0688  0.2918
50997W        W94091   7.450  33.077  20.377  0.0378 -0.0081  0.1993
50998W        W94092  11.102  32.600  23.631  0.0434 -0.2729 -0.0372
50999W        W94093  10.131  34.498  20.973  0.0826 -0.1100  0.2227
51000W        W94094   7.767  31.938  19.541  0.1329  0.1883 -0.0441
51001W        W94095   6.821  34.272  20.510 -0.1500 -0.2539 -0.0688
51002W        W94096   9.459  32.702  21.394 -0.2976  0.0656 -0.1568
51003W        W94097   8.504  33.738  22.705  0.1618  0.2989  0.1338
51004W        W94098  10.052   0.473  22.877  0.3447 -0.0340 -0.0104
51005W        W94099   7.788  34.422  19.646  0.1015  0.2328  0.0511
51006W        W94100   9.848  32.391  20.506  0.0123  0.0820  0.1255
51007W        W94101  11.123   0.047  20.725 -0.0600 -0.3389  0.0439
51008W        W94102   9.089  33.445  18.971 -0.0943  0.1632 -0.2585
51009W        W94103  10.797  34.360  19.361 -0.2556 -0.0458 -0.3178
51010W        W94104   8.716  33.608  19.308  0.0857 -0.0997 -0.0519
51011W        W94105   9.077  32.889  21.158 -0.2306 -0.5204  0.1273
51012W        W94106   8.056  34.192  18.911 -0.1381 -0.1409 -0.0692
51013W        W94107   8.289  34.419  21.150 -0.1054 -0.2511  0.0990
51014W        W94108   9.817  32.288  21.945 -0.0613  0.2462  0.2716
51015W        W94109   9.105  32.968  21.672  0.2498  0.0910  0.2390
51016W        W94110   9.379  33.696  22.509  0.0482 -0.0311  0.0360
51017W        W94111  11.069  34.024  23.186 -0.1341 -0.0716  0.1694
51018W        W94112   9.244  33.753  19.394  0.0555  0.0297 -0.0542
51019W        W94113   8.657  33.931  20.751 -0.0689  0.1715 -0.2882
51020W        W94114   8.210   0.186  19.704  0.0622 -0.2424 -0.0349
51021W        W94115   9.270  34.097  22.218  0.1863  0.3134 -0.1370
51022W        W94116  10.277  33.804  22.688 -0.0935 -0.1575 -0.1778
51023W        W94117   7.435  34.649  19.422 -0.1728 -0.1189 -0.2682
51024W        W94118   7.525  32.800  20.830  0.3018 -0.0837 -0.2666
51025W        W94119   8.716  31.810  20.939 -0.0451 -0.0661 -0.4079
51026W        W94120   8.062  34.571  19.226  0.0456  0.1697 -0.1715
51027W        W94121   7.447   0.378  19.662 -0.1917  0.0141  0.2029
51028W        W94122   9.544  32.860  20.414  0.0388 -0.1344 -0.0826
51029W        W94123   7.794  32.664  20.347  0.0351 -0.2113  0.4597
51030W        W94124   9.298  33.359  21.125  0.0271  0.1872 -0.0954
51031W        W94125  10.067  34.531  22.215 -0.0558 -0.0832 -0.1561
51032W        W94126   8.797  32.714  19.361 -0.1493  0.0181  0.1194
51033W        W94127   8.240   0.311  22.953  0.1786 -0.0441  0.0114
51034W        W94128   6.603  33.351  18.715 -0.0257  0.1087  0.2021
51035W        W94129   9.818   0.164  22.497  0.0178 -0.0510 -0.0183
51036W        W94130   9.443  33.850  21.197  0.1686 -0.2841  0.2010
51037W        W94131   6.956   0.603  20.499  0.0293  0.1582  0.2299
51038W        W94132   7.733  33.113  22.892  0.2155  0.1967 -0.0239
51039W        W94133   7.815  33.656  21.202 -0.0889  0.1903  0.0654
51040W        W94134   7.916   0.636  20.563  0.1344  0.1350  0.0863
51041W        W94135   8.399  34.023  20.338 -0.0868  0.3082  0.4620
51042W        W94136   8.535  33.726  22.208  0.0851 -0.0754 -0.1705
51043W        W94137   8.114  32.666  19.977  0.0092 -0.0196 -0.1656
51044W        W94138   9.489   0.365  23.069  0.0832  0.0456  0.1864
51045W        W94139   8.965  33.745  21.223  0.0756  0.0899 -0.3820
51046W        W94140  11.701  33.036  17.711 -0.2481 -0.1400  0.1024
51047W        W94141  10.301  33.657  21.774  0.0418 -0.1608  0.2271
51048W        W94142  10.489  32.904  22.736  0.0089 -0.0399 -0.1106
51049W        W94143   9.414   0.101  19.238 -0.0880 -0.2052 -0.0245
51050W        W94144   9.811  33.316  22.423 -0.1502  0.1454  0.1156
51051W        W94145   8.312  32.494  21.651  0.2906 -0.2935 -0.0199
51052W        W94146   7.272  33.302  23.065 -0.0998  0.0569 -0.1250
51053W        W94147   5.896  33.829  21.977 -0.1502 -0.0581 -0.0017
51054W        W94148   8.347   0.275  20.775 -0.1746  0.2238 -0.1065
51055W        W94149   8.371  33.088  20.111 -0.1624  0.2921 -0.0905
51056W        W94150   9.642   0.033  22.049  0.2040  0.0597 -0.2556
51057W        W94151  10.035   1.121  20.866  0.1495  0.3039 -0.3509
51058W        W94152   7.069  34.499  22.175  0.1381 -0.0223 -0.0992
51059W        W94153  10.275  34.519  20.471  0.3079  0.0000 -0.0059
51060W        W94154   9.425  32.824  23.048  0.0883  0.1730  0.2381
51061W        W94155  10.113   0.358  20.561 -0.0682 -0.1386 -0.3065
51062W        W94156   9.263  32.410  22.747  0.1907 -0.3263  0.2796
51063W        W94157  10.304  33.006  23.214  0.1987  0.3826  0.0536
51064W        W94158   9.366  33.999  21.663 -0.2277  0.2826 -0.1106
51065W        W94159   8.348  34.277  23.624 -0.0253 -0.4467 -0.1144
51066W        W94160  10.900  34.204  19.825 -0.2429  0.0367  0.0708
51067W        W94161  12.192  34.690  22.516 -0.0059  0.2089  0.0811
51068W        W94162  10.588  34.190  18.518 -0.1131  0.2897  0.0759
51069W        W94163   9.215  34.617  20.845  0.0707  0.2412  0.1538
51070W        W94164   8.976  34.311  21.650  0.2742  0.2102 -0.0831
51071W        W94165   9.441  34.518  22.716 -0.1069 -0.1340 -0.0588
51072W        W94166   7.018  32.603  20.811 -0.1213 -0.0887  0.1635
51073W        W94167   9.652  32.414  23.845  0.3874  0.0052  0.0578
51074W        W94168   8.578   0.717  20.976 -0.0032 -0.0062  0.0374
51075W        W94169   7.179  34.249  20.871 -0.3755  0.0460  0.1071
51076W        W94170   7.295  33.093  19.389 -0.2117 -0.0120 -0.2419
51077W        W94171   8.556   0.421  19.411  0.3204 -0.2443  0.3334
51078W        W94172   9.292  32.794  19.314 -0.3377 -0.2810 -0.1322
51079W        W94173  10.222  34.090  24.655 -0.0970 -0.3449 -0.0760
51080W        W94174   9.620  33.827  20.658  0.1781  0.0026 -0.2139
51081W        W94175   8.714  34.222  21.257 -0.0197  0.1190  0.1160
51082W        W94176  10.752  34.121  21.832  0.2507 -0.0224 -0.0621
51083W        W94177   7.563  34.279  22.134 -0.1270 -0.0784  0.1249
51084W        W94178  10.030  34.051  23.096 -0.0762  0.2122 -0.0541
51085W        W94179   7.207  33.335  21.931  0.0416 -0.0611  0.1984
51086W        W94180   6.752  34.304  21.830 -0.0015 -0.1706  0.2119
51087W        W94181   6.959  31.692  20.215  0.2042  0.1082 -0.0357
51088W        W94182   7.189  33.358  19.787  0.1295 -0.0790 -0.2306
51089W        W94183   9.859  33.940  19.267 -0.0649 -0.1463  0.4284
51090W        W94184  10.409   0.130  21.238  0.2042 -0.0748  0.2337
51091W        W94185   9.522   0.413  19.765 -0.0172  0.0159  0.0092
51092W        W94186   8.922  33.857  22.493 -0.0292 -0.2179  0.1461
51093W        W94187   8.272  32.903  19.126 -0.2811  0.1359 -0.0320
51094W        W94188   7.990  33.547  22.403 -0.1315 -0.0977  0.1895
51095W        W94189  11.225  33.355  24.058 -0.1458 -0.0088  0.3474
51096W        W94190   5.328  31.783  19.637  0.1392 -0.0716  0.2630
51097W        W94191   7.777   0.189  19.968  0.0218 -0.0361  0.2113
51098W        W94192  11.247  32.351  23.186  0.2121 -0.0991 -0.1555
51099W        W94193   9.033   0.785  21.044  0.1473  0.0001 -0.1213
51100W        W94194   6.724  32.972  20.538 -0.2761 -0.1232 -0.1419
51101W        W94195   9.866  32.803  20.044 -0.1090  0.0499  0.0420
51102W        W94196   7.467  32.467  21.636 -0.1501  0.3072  0.0314
51103W        W94197   9.532  33.189  21.514 -0.1589 -0.3918 -0.1065
51104W        W94198   7.937  33.937  19.791  0.4195  0.0034 -0.0261
51105W        W94199   9.743  33.543  21.022 -0.0450  0.2030 -0.1786
51106W        W94200   7.737  33.323  21.969  0.0900  0.1525 -0.0072
51107W        W94201   8.625  33.465  20.920 -0.2706 -0.0209  0.1610
51108W        W94202  10.593   0.018  21.695 -0.0864 -0.1957  0.2064
51109W        W94203   8.628  33.557  20.291  0.2007 -0.2871  0.0729
51110W        W94204   6.462  31.879  20.680  0.2615 -0.2542 -0.1599
51111W        W94205   9.567  34.320  20.426 -0.3363 -0.1480 -0.1038
51112W        W94206   7.200   1.025  20.721  0.1654  0.0538  0.0519
51113W        W94207   9.795  34.206  21.442 -0.0572  0.2317  0.0017
51114W        W94208   5.016  32.291  20.847 -0.2037 -0.2203  0.3251
51115W        W94209  11.130  33.851  21.549 -0.1012 -0.1854 -0.1401
51116W        W94210  10.293   0.276  22.024  0.1534  0.0597 -0.1009
51117W        W94211   7.266   0.094  20.848 -0.0944  0.0224 -0.2866
51118W        W94212   9.011  33.902  20.348 -0.0982 -0.0584  0.1920
51119W        W94213   6.820  33.046  21.656 -0.0990  0.1052  0.2059
51120W        W94214   9.898  34.075  20.145 -0.1254 -0.0247 -0.1762
51121W        W94215  11.690  33.757  21.414 -0.0944 -0.2541 -0.1771
51122W        W94216   9.806  33.694  22.810 -0.0078 -0.1259  0.0828
51123W        W94217   9.738  33.720  19.731 -0.0951  0.0965 -0.0278
51124W        W94218   6.359  31.907  21.967  0.0589  0.0874 -0.2469
51125W        W94219  10.960  33.330  20.203 -0.1805  0.1687  0.1436
51126W        W94220  10.460  32.714  18.969  0.0532 -0.0264 -0.0111
51127W        W94221   8.833  33.363  22.535  0.2557 -0.1533 -0.0757
51128W        W94222   7.450  32.264  18.138  0.0895  0.1562  0.1524
51129W        W94223   8.517  32.653  23.561  0.3169 -0.0199 -0.0106
51130W        W94224   8.345  33.046  21.781  0.0411  0.1136  0.0333
51131W        W94225   7.920  33.051  22.381 -0.3407 -0.1214  0.3992
51132W        W94226   7.475  33.874  19.820  0.0051 -0.3450 -0.1544
51133W        W94227   6.401  33.290  21.462 -0.1355 -0.0655  0.3286
51134W        W94228   5.828  32.639  21.701 -0.0777  0.2758  0.4204
51135W        W94229   8.919  34.693  21.277 -0.1236 -0.3479  0.0290
51136W        W94230   8.784  33.239  21.958 -0.2446 -0.3458  0.3687
51137W        W94231   9.401  33.315  22.803 -0.0383 -0.2836 -0.1789
51138W        W94232   7.467  31.565  18.817  0.0142  0.1537  0.0029
51139W        W94233   9.220  34.281  21.258 -0.0282  0.1040  0.1990
51140W        W94234   9.180  32.063  22.437 -0.3481  0.4166  0.2412
51141W        W94235  10.483  33.173  21.810 -0.1659  0.0679  0.0471
51142W        W94236   9.589   0.910  21.094  0.2239 -0.1276 -0.4553
51143W        W94237   9.613  32.785  22.390 -0.2784  0.1622  0.4368
51144W        W94238   7.911  33.229  20.154 -0.1185 -0.0028 -0.1790
51145W        W94239   9.266  32.355  20.400 -0.1430 -0.0106  0.0767
51146W        W94240   6.053  33.767  21.485  0.0872 -0.1343 -0.1812
51147W        W94241   8.756  32.392  20.038 -0.2144  0.0244  0.1096
51148W        W94242   8.870  32.537  21.648  0.1154 -0.2294  0.0028
51149W        W94243   8.614  34.635  19.561 -0.2361  0.1736 -0.1148
51150W        W94244  12.137  33.305  19.168 -0.1165  0.4111 -0.0487
51151W        W94245   8.473  32.305  22.865  0.0437  0.1454  0.1028
51152W        W94246   6.784  32.490  19.309  0.1167 -0.0217 -0.2610
51153W        W94247   7.723  34.266  20.987  0.0394 -0.3393  0.1208
51154W        W94248   9.149  34.526  22.086  0.1517  0.1893  0.0571
51155W        W94249   8.406  33.826  21.254 -0.0279 -0.1082 -0.0125
51156W        W94250  10.372  32.346  20.491  0.1719  0.0093 -0.1846
51157W        W94251   7.403  33.866  24.305 -0.0589  0.2744  0.3492
51158W        W94252   9.770  34.568  23.828 -0.2346 -0.1210 -0.1820
51159W        W94253  11.755  34.615  23.856  0.0464  0.0530  0.0329
51160W        W94254   8.481  33.431  24.345  0.1008  0.0275 -0.2422
51161W        W94255   7.786  33.189  25.596  0.3280 -0.3533 -0.3231
51162W        W94256  10.039   0.183  24.310  0.2114 -0.1139  0.2792
51163W        W94257   7.376   0.313  25.772  0.1386 -0.0214  0.2115
51164W        W94258   8.626  33.151  25.141 -0.2230 -0.1601  0.1423
51165W        W94259   6.113  31.967  26.716  0.3602 -0.0289 -0.0267
51166W        W94260   8.239   0.037  25.785 -0.1922 -0.1859  0.0230
51167W        W94261   6.296  34.678  23.716 -0.0817 -0.2118 -0.3428
51168W        W94262   8.697  33.918  25.641  0.1992  0.0967  0.0155
51169W        W94263   8.786   0.617  22.901 -0.2429  0.1280  0.0488
51170W        W94264   6.705  33.498  26.981 -0.0339 -0.3487 -0.0079
51171W        W94265   8.123  33.253  26.964 -0.1619  0.0498  0.0079
51172W        W94266   7.917  33.645  22.916 -0.0128  0.2068 -0.0139
51173W        W94267   7.572  34.088  26.823 -0.0331  0.0586  0.1476
51174W        W94268   6.279   0.501  25.171 -0.2465  0.1345  0.2801
51175W        W94269   8.982  33.632  26.709  0.0896 -0.1597 -0.2803
51176W        W94270  10.547   0.075  24.353  0.2528 -0.0944  0.1607
51177W        W94271   9.650  33.594  27.255 -0.4343 -0.0469  0.0495
51178W        W94272   8.468   0.636  25.806  0.0925  0.0478  0.0474
51179W        W94273   9.779   1.310  23.970  0.2945 -0.1403 -0.1074
51180W        W94274  11.148  33.660  26.882  0.2721  0.2295  0.0084
51181W        W94275   9.227  34.069  22.832 -0.1534 -0.0258  0.3206
51182W        W94276   8.516  33.449  23.370 -0.1218  0.1017 -0.0480
51183W        W94277   9.771  32.356  24.674  0.0317  0.2544 -0.0884
51184W        W94278   8.543  32.071  25.673 -0.3960  0.4315  0.0955
51185W        W94279   7.654  32.922  23.936  0.2324  0.0624 -0.3072
51186W        W94280  10.499   0.581  23.008  0.2433 -0.1347 -0.1590
51187W        W94281   9.908   0.616  26.107  0.2459  0.1533 -0.0181
51188W        W94282   7.522  34.482  25.057 -0.0610  0.1561 -0.2850
51189W        W94283   7.680  34.239  25.645 -0.2195 -0.1607  0.0118
51190W        W94284   6.522   0.643  26.605 -0.1374  0.1359 -0.0400
51191W        W94285   7.924   0.259  26.198  0.1478 -0.0702  0.2188
51192W        W94286   8.571  32.087  25.058 -0.2694  0.2380 -0.3043
51193W        W94287  10.484  33.113  23.699 -0.1433 -0.0198  0.1647
51194W        W94288   9.551  32.834  24.750 -0.0729  0.0509  0.2212
51195W        W94289   9.563  33.640  26.710  0.0267  0.1557 -0.0737
51196W        W94290   9.735  34.096  23.765 -0.1980  0.0019 -0.0701
51197W        W94291  10.047  33.575  26.500  0.1452  0.0819 -0.0247
51198W        W94292   7.236  33.181  25.426 -0.0041  0.1720 -0.2171
51199W        W94293   9.699  34.227  24.396  0.2225  0.0430  0.2556
51200W        W94294   6.617  32.993  26.305 -0.1178  0.1733 -0.0533
51201W        W94295  10.541  33.078  24.230  0.0490  0.1936 -0.0949
51202W        W94296   9.634  33.627  23.661 -0.1313  0.1002 -0.2498
51203W        W94297   6.839  34.670  25.750  0.0541 -0.0571 -0.0960
51204W        W94298   7.812  33.440  24.589 -0.2981  0.0822 -0.1674
51205W        W94299   9.202  33.327  27.991 -0.0649 -0.1966  0.1713
51206W        W94300   7.102  32.745  24.631 -0.3027 -0.1582  0.2373
51207W        W94301  10.428  33.244  26.948  0.2887 -0.0017 -0.1982
51208W        W94302   7.010  32.220  24.387 -0.0664  0.2628  0.1179
51209W        W94303   9.219  33.875  25.581 -0.0371  0.3996 -0.2340
51210W        W94304   7.386  34.195  23.965 -0.0307  0.2693  0.2996
51211W        W94305   8.932  32.771  26.985 -0.0936  0.0385 -0.2545
51212W        W94306   7.923  33.902  26.326 -0.1090  0.2659 -0.0086
51213W        W94307   8.069  33.260  23.238  0.0418  0.1371 -0.0353
51214W        W94308   8.065  34.673  23.771  0.1233 -0.1374 -0.2066
51215W        W94309   8.888  32.725  27.523 -0.4453  0.1196  0.0125
51216W        W94310  10.030  34.410  25.748 -0.0433  0.1292  0.1792
51217W        W94311   8.951  33.641  22.972 -0.1716  0.2803  0.0930
51218W        W94312   7.915   0.551  24.641  0.0603 -0.0765 -0.1263
51219W        W94313  10.180  34.166  25.174  0.1752  0.2261  0.0576
51220W        W94314   8.720   0.033  27.702 -0.0500  0.0166  0.0352
51221W        W94315  10.283  33.119  26.453 -0.5666 -0.3022 -0.0901
51222W        W94316   8.386   0.072  23.400  0.3091 -0.1755  0.1611
51223W        W94317   8.804  33.036  23.674  0.0195  0.3865  0.0663
51224W        W94318  10.943  32.921  24.053 -0.1169 -0.2574 -0.0714
51225W        W94319   9.393  33.752  23.170 -0.1267  0.1020 -0.0599
51226W        W94320  10.119  32.335  24.259 -0.0404  0.6459  0.1035
51227W        W94321   9.512  31.888  23.851 -0.1745  0.2197 -0.2043
51228W        W94322   8.661  33.268  26.642  0.0135 -0.0305 -0.0371
51229W        W94323   9.777  34.139  21.935 -0.0674  0.1129  0.0454
51230W        W94324   9.063  32.924  25.390  0.2677 -0.0477 -0.2067
51231W        W94325  10.056  33.884  25.573  0.1616 -0.2351  0.0556
51232W        W94326   8.946  33.791  24.252 -0.1626 -0.0490  0.3331
51233W        W94327   8.584  34.055  27.612 -0.0448  0.0060  0.1519
51234W        W94328  10.882  33.432  26.358  0.1405  0.0733  0.0262
51235W        W94329   9.311  34.394  25.051  0.0962  0.0453 -0.0467
51236W        W94330  10.540  34.086  25.518  0.1508 -0.2138  0.1058
51237W        W94331   8.746  34.136  22.948 -0.2285 -0.1165  0.0987
51238W        W94332   8.612   0.296  26.178 -0.0687  0.1765  0.1247
51239W        W94333   9.268  33.570  27.564 -0.1178  0.3523 -0.0600
51240W        W94334   8.648   0.233  24.405 -0.0527  0.1824  0.3539
51241W        W94335   8.453  32.986  26.173  0.2104 -0.0273 -0.0224
51242W        W94336  11.165  33.167  25.970 -0.0385 -0.2264  0.4916
51243W        W94337   6.930  34.029  24.483  0.2593 -0.1191  0.4427
51244W        W94338   6.927  33.935  24.022  0.0448 -0.1248  0.0632
51245W        W94339   9.911  33.207  24.196  0.2531 -0.2818  0.1368
51246W        W94340   7.604  33.922  27.242  0.1201 -0.1325 -0.1313
51247W        W94341   9.033   0.667  25.845 -0.0214 -0.0432  0.2290
51248W        W94342   7.344   0.950  25.682  0.0927  0.1781 -0.1105
51249W        W94343   8.209  32.645  24.022 -0.0511  0.0085  0.2945
51250W        W94344   9.840  34.210  26.466  0.0420 -0.1866  0.2077
51251W        W94345   7.191  34.667  23.442  0.0938 -0.1848  0.1825
51252W        W94346   8.805  34.149  26.687 -0.2330  0.0542  0.2600
51253W        W94347   7.959   0.114  24.934  0.2362 -0.0730  0.0755
51254W        W94348   9.053  34.019  23.386  0.1661 -0.3209  0.1192
51255W        W94349   8.221  34.252  26.669  0.1725 -0.1233  0.2074
51256W        W94350   9.264  34.117  24.633 -0.0620  0.1374  0.4862
51257W        W94351   7.569  33.741  23.841  0.0792 -0.0354  0.0101
51258W        W94352   9.501  34.637  24.240  0.0363 -0.0823  0.2288
51259W        W94353   8.480  33.688  26.847 -0.2949  0.0702 -0.0563
51260W        W94354   7.984  32.856  26.150 -0.2715  0.1251 -0.0488
51261W        W94355  10.330  34.165  27.164 -0.5063  0.1348  0.0074
51262W        W94356   8.255  34.191  25.936  0.1084  0.1886 -0.0796
51263W        W94357   9.650  32.682  24.279  0.2622  0.0941  0.3357
51264W        W94358   9.101  33.432  25.304 -0.0319  0.0585 -0.0757
51265W        W94359  11.350  33.389  27.400  0.1683 -0.0821 -0.4002
51266W        W94360  10.137  34.387  24.189  0.1308 -0.0806 -0.1489
51267W        W94361   8.986  32.256  27.690 -0.2058  0.0359 -0.1669
51268W        W94362   8.700  33.657  24.764 -0.0813 -0.1226  0.0154
51269W        W94363   6.861  33.191  25.917  0.3147 -0.1390 -0.3498
51270W        W94364   8.211   0.577  27.161  0.0701  0.1188 -0.0107
51271W        W94365   8.292  34.405  24.131 -0.1369  0.1763  0.0961
51272W        W94366   9.980  33.217  23.709  0.1472 -0.0378  0.0598
51273W        W94367   9.287   1.259  25.883 -0.2161 -0.3092  0.2911
51274W        W94368  12.004  34.173  26.450  0.0395  0.0338  0.0281
51275W        W94369   7.239   0.442  24.949 -0.0335 -0.3441 -0.0395
51276W        W94370   8.945   0.035  25.300  0.0074  0.1899 -0.1690
51277W        W94371   8.610  32.431  26.751  0.1368 -0.0857 -0.0549
51278W        W94372   8.955  34.037  25.073 -0.1359 -0.1923 -0.0665
51279W        W94373   9.078   0.220  26.896  0.1553 -0.0286 -0.1325
51280W        W94374  10.587  32.863  27.173 -0.1090  0.2549  0.2430
51281W        W94375   7.772   0.023  25.791 -0.1883 -0.1827 -0.0642
51282W        W94376   7.259  32.721  28.084 -0.2109  0.0394  0.0597
51283W        W94377  10.318  33.477  24.002  0.3279  0.1011  0.0431
51284W        W94378  11.318  33.685  25.960 -0.0898  0.0332  0.1083
51285W        W94379  10.288  34.578  24.789  0.2011 -0.1750  0.1525
51286W        W94380   7.835  34.411  24.452  0.0209  0.3101  0.1045
51287W        W94381   8.468  33.928  26.380  0.0026 -0.1345  0.0779
51288W        W94382  10.022   0.127  27.732  0.0320  0.5454  0.0323
51289W        W94383   9.269  34.163  24.117 -0.0781 -0.0195 -0.5403
51290W        W94384   8.145  33.924  25.534  0.0639  0.1524 -0.1089
51291W        W94385   9.098  34.657  23.886 -0.1958  0.2743  0.1610
51292W        W94386   5.042  33.570  25.305 -0.1456  0.2200  0.1542
51293W        W94387   6.156  33.917  24.903  0.0508  0.1549 -0.0011
51294W        W94388   9.665   0.348  23.917 -0.0941  0.1620  0.1553
51295W        W94389   9.175  33.788  23.814  0.0423 -0.1506  0.5574
51296W        W94390  10.127  32.809  27.007 -0.1232  0.0120  0.1073
51297W        W94391   9.556  32.989  23.881  0.1777  0.0055 -0.1193
51298W        W94392   8.823  33.236  27.390 -0.4939 -0.0885 -0.2276
51299W        W94393   9.820   0.240  25.699 -0.2700  0.0491  0.2580
51300W        W94394   8.654  33.622  25.275 -0.2139 -0.1633 -0.1772
51301W        W94395  10.467  34.168  26.457  0.1360 -0.0602  0.1003
51302W        W94396   6.827   0.497  24.060 -0.0211  0.0156 -0.0622
51303W        W94397   7.433  32.959  25.898  0.2121 -0.0773 -0.1356
51304W        W94398   8.355  34.565  24.595 -0.0706  0.2282  0.0973
51305W        W94399   7.928  34.086  23.878 -0.1684  0.0135  0.0281
51306W        W94400   9.920  32.745  23.437 -0.2022  0.3298 -0.0273
51307W        W94401   9.954  34.623  25.143  0.0051 -0.0970 -0.1157
51308W        W94402  11.297  33.648  24.537 -0.1520  0.1884 -0.1399
51309W        W94403   8.078   0.197  24.365 -0.0569  0.0998  0.0281
51310W        W94404   9.406  33.225  23.350 -0.0758 -0.0907 -0.1426
51311W        W94405   7.292  34.448  25.955  0.1931  0.1083 -0.0160
51312W        W94406  11.041  33.087  26.916  0.0700  0.1032 -0.2119
51313W        W94407   9.003  33.506  23.453 -0.0183  0.0687 -0.0532
51314W        W94408   9.087  34.341  25.579  0.3367 -0.0894 -0.2138
51315W        W94409  10.478  33.164  25.258  0.1245 -0.0767 -0.3465
51316W        W94410  10.145  33.240  24.852  0.2168  0.2331 -0.1966
51317W        W94411   8.231  33.351  25.390 -0.3316  0.1854 -0.0517
51318W        W94412  10.365  33.580  24.607  0.1280 -0.2668 -0.0840
51319W        W94413   7.019   0.659  25.936 -0.0788 -0.2928  0.4003
51320W        W94414  10.540  32.624  27.629  0.2192 -0.0229 -0.1352
51321W        W94415   7.634   0.093  24.113 -0.1219  0.2089 -0.0133
51322W        W94416   9.792  33.735  24.607 -0.0675  0.0399 -0.0747
51323W        W94417   6.852  34.135  25.808 -0.2445  0.0193  0.0702
51324W        W94418  10.009  34.431  23.419 -0.3383 -0.0126  0.1107
51325W        W94419   9.362  34.064  26.952 -0.2727 -0.2212  0.0325
51326W        W94420   9.322  34.299  23.665 -0.2223  0.0846  0.1727
51327W        W94421   7.534  32.456  24.774  0.0718 -0.1495  0.1987
51328W        W94422   8.778  34.463  23.410 -0.0727  0.0962  0.4414
51329W        W94423   8.150  33.706  25.038  0.1667 -0.0238 -0.1259
51330W        W94424   8.735   0.795  26.232 -0.0074  0.0463  0.0748
51331W        W94425   7.612  32.830  25.210 -0.3372 -0.5705  0.1767
51332W        W94426  11.295  33.930  25.039 -0.0898  0.0352  0.2088
51333W        W94427  10.887   1.221  25.306  0.3949 -0.0351  0.0752
51334W        W94428   7.512  33.945  25.947  0.0317 -0.0085  0.0546
51335W        W94429   8.034  33.054  24.350  0.0851 -0.0692 -0.1767
51336W        W94430   8.644  32.411  26.028  0.0275  0.1523  0.1039
51337W        W94431  10.479  33.742  26.721  0.1305  0.0863 -0.2774
51338W        W94432  10.028  32.717  26.098  0.0334 -0.0027  0.0947
51339W        W94433  10.079  32.923  27.812 -0.1493  0.2695 -0.4585
51340W        W94434   9.575  33.546  25.379 -0.0294 -0.5367  0.0889
51341W        W94435   9.788  33.159  26.311 -0.3860  0.2126  0.1068
51342W        W94436  11.346  32.161  25.054  0.2510  0.0184  0.2641
51343W        W94437   9.961  32.970  22.749  0.2596 -0.1993 -0.3859
51344W        W94438   9.687   1.697  25.093  0.0531 -0.0968 -0.1583
51345W        W94439   8.396   1.024  22.106  0.0684 -0.0405 -0.2136
51346W        W94440   8.753  33.605  27.735 -0.0984 -0.2132 -0.0048
51347W        W94441   6.471  34.001  26.092  0.0518 -0.0036  0.0026
51348W        W94442   6.551   0.131  24.188 -0.0671  0.0449  0.1342
51349W        W94443   6.559  34.543  23.335 -0.2393  0.0428  0.1359
51350W        W94444   8.290  32.665  25.795  0.2428  0.3039  0.1927
51351W        W94445   7.864  34.419  26.290 -0.1805 -0.1310  0.0215
51352W        W94446   7.359  34.298  24.617 -0.0971  0.2027  0.2925
51353W        W94447   9.241  33.347  27.114 -0.1234 -0.3179  0.1976
51354W        W94448   8.659  34.023  28.208 -0.1196  0.2732 -0.2863
51355W        W94449   8.650  33.879  23.580  0.0882  0.2184  0.0834
51356W        W94450   8.827   0.185  25.755 -0.2785 -0.0562  0.0488
51357W        W94451   8.829  32.822  25.815  0.0089 -0.3105  0.3601
51358W        W94452  10.153  32.348  25.815 -0.1604 -0.0131 -0.1696
51359W        W94453   9.940   0.662  24.210 -0.0563 -0.1321  0.0814
51360W        W94454   9.325  32.469  26.817 -0.0881 -0.1309  0.1373
51361W        W94455   9.094  32.426  26.288 -0.0368  0.0187 -0.0395
51362W        W94456   9.419  33.844  25.024 -0.0209 -0.1959 -0.1810
51363W        W94457   7.396  33.223  24.256 -0.1362 -0.2579  0.0017
51364W        W94458   8.103   1.046  25.930 -0.1873 -0.3613 -0.1028
51365W        W94459   9.556  34.132  25.890  0.1487  0.0149 -0.2690
51366W        W94460   9.412   0.051  23.469  0.3762 -0.2161  0.0800
51367W        W94461  11.562   2.229  23.896  0.0773  0.0048  0.2114
51368W        W94462   8.435  31.497  27.182 -0.2894  0.1009 -0.1099
51369W        W94463   8.363  33.960  23.135 -0.1473 -0.1770  0.5352
51370W        W94464   8.495   0.701  24.828  0.1778  0.4543  0.0172
51371W        W94465   8.704  34.449  25.937 -0.0276 -0.1779 -0.2148
51372W        W94466   9.222  33.306  25.756  0.1060  0.0371 -0.1778
51373W        W94467   8.676  33.475  23.880  0.0310  0.1414  0.1332
51374W        W94468   8.656  32.562  28.134 -0.0298  0.2769 -0.2880
51375W        W94469  10.822  32.858  25.598 -0.1965  0.2657  0.1217
51376W        W94470  10.374  34.076  28.577 -0.0786 -0.1307 -0.3632
51377W        W94471   7.459   0.067  28.791  0.0354  0.2968 -0.1474
51378W        W94472   7.814  32.746  29.986  0.0019  0.2808  0.3629
51379W        W94473   8.577   0.545  26.642  0.0482  0.0328  0.2865
51380W        W94474   8.387  34.283  30.088 -0.0855 -0.2192  0.2258
51381W        W94475   8.907  32.957  28.369  0.0419 -0.0888 -0.2587
51382W        W94476   8.067  32.036  30.400  0.1458  0.1776 -0.5180
51383W        W94477   9.412  33.094  30.762 -0.1717 -0.0423  0.2240
51384W        W94478   8.270  34.575  27.563 -0.1268 -0.1364 -0.1549
51385W        W94479   9.025   0.477  30.923  0.1150  0.3042 -0.1454
51386W        W94480   9.672   0.133  28.142 -0.0899 -0.2732 -0.1696
51387W        W94481   6.568   0.061  29.334 -0.4757  0.1238  0.0017
51388W        W94482   9.649  33.727  31.616 -0.0547 -0.0375 -0.0304
51389W        W94483   9.781  33.273  27.751 -0.1521  0.2341 -0.1703
51390W        W94484   7.573  34.177  29.578  0.0292  0.0723  0.2717
51391W        W94485   9.132  33.528  31.564  0.1625  0.2674 -0.0926
51392W        W94486   8.403   0.231  29.447 -0.1265  0.1447 -0.2958
51393W        W94487  10.869   0.249  28.792  0.0436  0.0233  0.1487
51394W        W94488   9.998  33.579  31.219 -0.1259  0.1539 -0.1588
51395W        W94489   9.167  33.815  28.803  0.2797 -0.0337  0.3275
51396W        W94490  10.210  34.210  29.402  0.1419  0.0976 -0.1227
51397W        W94491  11.292  32.282   0.529 -0.0726 -0.1864  0.0093
51398W        W94492  10.853   0.182  28.154  0.0620 -0.2332  0.3273
51399W        W94493   8.219  33.393  26.443 -0.0716 -0.0419 -0.1550
51400W        W94494   9.626  32.693  27.832  0.0329 -0.2866 -0.1949
51401W        W94495   8.980  32.105  29.391 -0.1897  0.1308 -0.0683
51402W        W94496   8.943  33.920  29.438  0.0929 -0.1245  0.1047
51403W        W94497   8.119   0.402  27.687 -0.3667  0.1671 -0.1045
51404W        W94498   8.208  33.399  30.012 -0.0541  0.0895  0.2511
51405W        W94499   8.489  34.035  29.200 -0.2035  0.1198 -0.0516
51406W        W94500   8.561  34.278  28.694 -0.1720 -0.1252  0.1922
51407W        W94501   7.777   0.779  31.697 -0.2211  0.0099  0.2386
51408W        W94502   8.889   0.902  31.090  0.0386  0.1720  0.0068
51409W        W94503   7.271  34.398  28.443 -0.1255  0.0615 -0.0689
51410W        W94504  10.515  33.624  29.849 -0.0440  0.2073  0.0054
51411W        W94505   9.328  32.484  29.343 -0.1617  0.1315 -0.3212
51412W        W94506   9.266  33.302  30.178  0.0021 -0.0186 -0.0878
51413W        W94507  10.865  34.480  26.696 -0.1703  0.1081 -0.2044
51414W        W94508   8.195  33.533  30.529 -0.1396  0.2001 -0.3197
51415W        W94509   6.800  32.800  31.266  0.1398 -0.2818  0.0186
51416W        W94510   9.296  34.179  29.774 -0.0001  0.1384 -0.1728
51417W        W94511   7.436  33.788  29.994 -0.5346 -0.2012  0.0634
51418W        W94512   8.408  32.744  27.620  0.2023  0.0497  0.0154
51419W        W94513  11.487  32.575  27.595  0.0411  0.0827 -0.0948
51420W        W94514   7.139   0.423  30.657 -0.1055  0.1901 -0.4030
51421W        W94515   6.443  34.179  28.527 -0.1112 -0.0223  0.3086
51422W        W94516   6.898  32.448  30.857 -0.5446  0.1609  0.0468
51423W        W94517   7.518  32.955  29.605 -0.3040  0.0809 -0.1141
51424W        W94518  10.552  33.159  30.066  0.0178  0.4013  0.2917
51425W        W94519   7.527  33.368  27.243  0.0843 -0.2525  0.0526
51426W        W94520   9.089  33.847  27.987  0.0466 -0.0335 -0.2939
51427W        W94521   8.358   0.009  28.480 -0.1621  0.1519 -0.1378
51428W        W94522   9.881  34.048  31.200  0.2151  0.3010 -0.0348
51429W        W94523   8.726  32.023   0.963 -0.0749 -0.3301 -0.0842
51430W        W94524   7.753  34.610  26.743  0.0919 -0.1611 -0.1755
51431W        W94525   8.278  34.378  28.060 -0.2782  0.0092  0.0648
51432W        W94526   9.222  33.353  29.587  0.1997 -0.2742 -0.1331
51433W        W94527   9.995  34.234  27.967 -0.2176  0.1288  0.1407
51434W        W94528   7.428  32.922  28.570 -0.2127  0.1884 -0.0676
51435W        W94529   8.449   1.163  27.797  0.0348  0.0581  0.0130
51436W        W94530  10.591  33.380  28.928  0.0590 -0.3960 -0.1344
51437W        W94531   8.109   1.244  31.369  0.0319 -0.0682  0.1643
51438W        W94532  10.089  32.959  29.970  0.2665  0.1205 -0.0425
51439W        W94533   7.791  32.986  28.180  0.2054 -0.0652  0.1248
51440W        W94534   9.179  32.864  30.280 -0.0157  0.2358  0.3519
51441W        W94535  11.039  32.039  28.338 -0.0978 -0.1176  0.0697
51442W        W94536  11.023  33.022  27.647 -0.0320 -0.0639  0.0548
51443W        W94537   9.119  34.410  27.310  0.1335  0.2398 -0.0847
51444W        W94538   9.256   0.738  27.043 -0.0217  0.1972 -0.0094
51445W        W94539   8.804  33.165  29.616  0.2141  0.2893  0.0324
51446W        W94540   9.980   0.593  27.976 -0.2145  0.2375 -0.1112
51447W        W94541   8.637  32.782  29.958  0.0113  0.2962  0.0574
51448W        W94542   9.424  32.584  30.819  0.0509  0.0333 -0.2374
51449W        W94543   9.220  32.898  29.758 -0.0250  0.1744  0.1174
51450W        W94544   9.051  33.038  31.587 -0.0016  0.0277  0.0541
51451W        W94545   9.242  34.399  30.290 -0.1461 -0.2827  0.1182
51452W        W94546  11.039  33.940  27.997 -0.0486  0.1313 -0.1373
51453W        W94547  10.650   0.420  30.436  0.0672 -0.0798 -0.3194
51454W        W94548   8.118   0.977  26.934 -0.2546  0.0260  0.2684
51455W        W94549   9.141  33.516  30.661 -0.0462 -0.2425 -0.3622
51456W        W94550   9.421  34.303  31.971  0.0965  0.0115  0.1541
51457W        W94551   8.727  33.511  28.300  0.0474  0.0535 -0.0202
51458W        W94552   8.302  33.007  29.629  0.2203 -0.1648  0.1297
51459W        W94553   9.483  31.532  30.811  0.2253 -0.1539  0.1088
51460W        W94554   9.459  34.271  28.089 -0.1410  0.0182  0.0629
51461W        W94555   7.847  33.549  27.597  0.1435  0.0645 -0.1916
51462W        W94556   9.654  33.752  28.954  0.0645 -0.1136 -0.0695
51463W        W94557   7.148  33.022  30.771  0.0038 -0.1949 -0.0538
51464W        W94558   9.863  32.882  31.075 -0.5028  0.1266  0.1769
51465W        W94559   9.580  33.449   0.106  0.2483 -0.0113  0.3017
51466W        W94560   9.285  33.509  28.445  0.2526 -0.3003  0.0737
51467W        W94561   8.572   1.092   0.127  0.1467  0.0998  0.0357
51468W        W94562   8.392  33.520  27.386 -0.1587  0.2981 -0.0822
51469W        W94563  10.954  34.421  27.955  0.0049  0.0880  0.0612
51470W        W94564   7.573  34.246  30.268  0.1076  0.2627 -0.1670
51471W        W94565   8.924  33.797  27.259 -0.1194  0.0335  0.2874
51472W        W94566   8.901  34.146  30.559  0.1364  0.0955  0.1504
51473W        W94567   7.857  34.467  28.495  0.2552  0.1402  0.1955
51474W        W94568   7.654  32.793  29.066  0.3519 -0.0994  0.0715
51475W        W94569   8.593  33.110  29.145  0.1847 -0.0777 -0.2510
51476W        W94570   9.910   0.286  30.644 -0.1355 -0.0641 -0.0740
51477W        W94571   8.911  31.469  30.156  0.3657 -0.3782  0.0929
51478W        W94572   8.745   0.690  31.865 -0.0116 -0.2038 -0.0605
51479W        W94573   8.304  32.729  29.053 -0.3098 -0.2425  0.1868
51480W        W94574  12.129  33.581  28.980 -0.1183  0.0397  0.2301
51481W        W94575   9.590  33.741  27.956  0.2794 -0.1843 -0.0079
51482W        W94576  10.846  32.674  31.861 -0.0058  0.1179 -0.1263
51483W        W94577   9.766  34.102  29.609  0.0319 -0.2467 -0.1486
51484W        W94578  10.524  33.079  31.769 -0.1802  0.1534  0.0036
51485W        W94579   8.947  32.750  31.200 -0.0299 -0.1522 -0.2147
51486W        W94580   8.507  33.906  29.719  0.1803 -0.0405 -0.2281
51487W        W94581   8.433   1.232  30.898  0.2420  0.1837  0.0420
51488W        W94582   8.886  34.631  28.725  0.1183 -0.2569 -0.3039
51489W        W94583   7.749  32.719  27.777  0.2200 -0.0846 -0.1650
51490W        W94584   8.775  34.591  30.188 -0.2062 -0.0084 -0.0359
51491W        W94585  10.393  33.655  30.892  0.1515  0.2286  0.1114
51492W        W94586   7.491   1.125  30.722 -0.2484  0.0795 -0.0697
51493W        W94587  10.786  34.276  29.531  0.3904 -0.0637  0.2679
51494W        W94588   8.599  34.021  31.357 -0.2939 -0.0735 -0.2135
51495W        W94589  10.576  34.519  28.409 -0.2085 -0.1772  0.3817
51496W        W94590   9.460  33.677  29.891  0.0222 -0.0311  0.0868
51497W        W94591   9.829  32.442  30.569  0.0325 -0.1628  0.0274
51498W        W94592   8.837  33.840  31.876 -0.0675  0.0779 -0.0895
51499W        W94593   7.591   0.179  29.790 -0.1587 -0.0272  0.1138
51500W        W94594  10.887  33.205  28.537 -0.1612  0.2515 -0.3876
51501W        W94595   9.995  33.270  29.196  0.0090  0.1527  0.0344
51502W        W94596   9.447  33.285  29.080 -0.0050 -0.2067 -0.3325
51503W        W94597  10.546  33.164  27.634  0.1920  0.2348  0.0353
51504W        W94598   7.031  34.669  29.023  0.0519  0.0238 -0.1772
51505W        W94599   9.913   0.040   0.008 -0.1724 -0.0831 -0.0549
51506W        W94600   9.466  34.069  27.588  0.4942 -0.2043 -0.1904
51507W        W94601  10.327   0.035  30.607 -0.1439 -0.0645 -0.3575
51508W        W94602   9.282  34.477  26.622 -0.1816  0.2454 -0.3395
51509W        W94603   6.990  32.898  29.608  0.5107 -0.0802 -0.0074
51510W        W94604   8.041  34.385  27.153  0.1251  0.2048  0.3889
51511W        W94605   7.780  34.612  27.779 -0.0339  0.0433 -0.0558
51512W        W94606   8.046  33.578  29.470  0.1566 -0.2307 -0.0160
51513W        W94607   9.210  33.869  30.256  0.0889 -0.1026  0.1179
51514W        W94608   8.552  33.544  29.381  0.3863 -0.0547  0.3272
51515W        W94609  10.076  32.908  31.550 -0.1675  0.0638  0.0244
51516W        W94610   9.981   0.211  29.624  0.0921  0.0965 -0.2757
51517W        W94611   9.012   0.508  28.921  0.0374  0.0204  0.1527
51518W        W94612  10.238  34.414  30.257  0.2987  0.1276 -0.1098
51519W        W94613   7.687  34.278  30.769 -0.2543 -0.3960  0.0092
51520W        W94614   8.349  33.800  31.942  0.1812 -0.1947 -0.1359
51521W        W94615   8.446  32.971  27.185 -0.1702  0.2368 -0.0459
51522W        W94616   9.010  33.486  29.156  0.1388 -0.0239  0.3835
51523W        W94617  10.703  33.038  28.092 -0.2990  0.1392  0.0412
51524W        W94618  12.054  34.067  29.205  0.2194 -0.1449  0.2651
51525W        W94619  10.922  32.653  29.112  0.3126 -0.1296  0.3137
51526W        W94620   8.845  34.102  30.078 -0.2420 -0.1079  0.3348
51527W        W94621   9.849  31.970  28.272  0.0049  0.5038  0.0660
51528W        W94622   7.353  33.887  30.504  0.1514 -0.0597  0.0265
51529W        W94623  11.149  30.847  30.221 -0.5766  0.0804  0.1466
51530W        W94624   7.152  33.620  27.979 -0.3066 -0.2717  0.1871
51531W        W94625   9.684  34.150  30.165  0.1123 -0.0682 -0.1061
51532W        W94626  12.008  32.857  31.480 -0.0882 -0.1939 -0.0131
51533W        W94627   9.853  34.380  28.428  0.3111 -0.0019  0.0991
51534W        W94628   7.906  34.040  28.183  0.5234 -0.1456  0.0593
51535W        W94629  11.456  34.127  30.202  0.0715 -0.1905 -0.0046
51536W        W94630   8.449  34.551  30.628  0.1255 -0.0530  0.0259
51537W        W94631  10.408  32.554  30.673  0.1276 -0.0384 -0.1823
51538W        W94632   9.319  32.024  28.364 -0.0526 -0.1277  0.1592
51539W        W94633  10.458  33.754  26.198 -0.4692 -0.0978  0.1831
51540W        W94634   8.076  34.113  31.049  0.2543 -0.1474 -0.3135
51541W        W94635   8.288  33.698  27.896 -0.1010  0.1294  0.2731
51542W        W94636  11.626   0.751  30.765  0.2729 -0.0875  0.3945
51543W        W94637  10.908  33.517  27.754  0.1511  0.1332 -0.0019
51544W        W94638   8.479  33.804  30.227  0.1135 -0.0343  0.3109
51545W        W94639  10.382  33.690  27.819  0.1886  0.0202 -0.1374
51546W        W94640   7.172  33.891  28.509  0.0743 -0.2849  0.0955
51547W        W94641   8.923  33.580  29.922 -0.0849  0.1761 -0.2654
51548W        W94642   7.991  33.104  29.225 -0.1644 -0.2366  0.1251
51549W        W94643  10.552  34.104  28.090  0.0873  0.0267  0.0287
51550W        W94644  11.180  32.692  28.704 -0.3806 -0.2243 -0.2566
51551W        W94645   8.433  32.621  31.020 -0.1023  0.0281  0.0618
51552W        W94646   8.957  31.743  28.549 -0.0347 -0.1848  0.0356
51553W        W94647   7.755  33.305  28.787 -0.2793  0.0292  0.1596
51554W        W94648   9.606  33.585  30.402  0.3305  0.0843 -0.0490
51555W        W94649  10.014  32.368  30.040  0.1649  0.1405  0.0341
51556W        W94650  10.583  32.974  30.949 -0.3769 -0.0319 -0.0790
51557W        W94651   9.935  34.405  27.538 -0.0504 -0.1712  0.0833
51558W        W94652   9.101  33.262  31.148 -0.1433 -0.0374  0.0744
51559W        W94653  11.051  33.153  29.078 -0.0974 -0.2331  0.0348
51560W        W94654   9.387  33.038  28.443  0.0715  0.0006  0.0395
51561W        W94655   8.507  33.145   0.441 -0.0770 -0.1033 -0.1945
51562W        W94656   7.106  33.756  29.021 -0.0574  0.2953  0.3572
51563W        W94657   7.969  32.595  30.465  0.0597  0.1634  0.2856
51564W        W94658   8.641  33.467  30.748 -0.2153 -0.0667 -0.2433
51565W        W94659   9.323  34.604  28.423 -0.3354 -0.0307 -0.2775
51566W        W94660   8.038  34.176  27.663 -0.1017 -0.1582  0.3645
51567W        W94661   9.440  32.819  31.272 -0.0056  0.1087  0.0859
51568W        W94662   7.633  32.226  29.243 -0.2669 -0.0498  0.1393
51569W        W94663   8.853  33.251  28.734  0.0693  0.2878  0.0434
51570W        W94664   9.616  33.098   0.536 -0.1907 -0.3053  0.2565
51571W        W94665   8.633  33.231  30.323 -0.0117 -0.2066 -0.1039
51572W        W94666   5.346  33.346  26.754 -0.1124 -0.0972  0.0153
51573W        W94667   9.701  33.275  29.884 -0.1689 -0.2858  0.0668
51574W        W94668   7.735  33.258  29.927 -0.0111  0.0197 -0.2832
51575W        W94669  10.562  32.603  29.628  0.1060 -0.0250 -0.3032
51576W        W94670  10.309   0.184  27.286 -0.0602  0.0493 -0.0517
51577W        W94671   8.624  32.354  29.742 -0.3521 -0.1078 -0.1507
51578W        W94672   8.025  32.910  28.639 -0.4120 -0.1068  0.0254
51579W        W94673   9.742  33.638  29.443  0.4475  0.2413 -0.2408
51580W        W94674   7.850   0.396  30.341 -0.1977 -0.0476  0.0686
51581W        W94675  10.014  33.756  29.876 -0.0853 -0.2370  0.2762
51582W        W94676   8.964   0.580  31.448  0.1008 -0.0946 -0.0898
51583W        W94677   8.693  33.748  28.786  0.1083  0.0245  0.0423
51584W        W94678  11.232  33.288  28.090  0.0266  0.0067 -0.1842
51585W        W94679   7.693  30.865  29.693  0.3337 -0.0093 -0.1944
51586W        W94680   8.244  33.408  28.937 -0.0330  0.0441 -0.3032
51587W        W94681   8.420  34.568  29.143 -0.0395  0.0912  0.2404
51588W        W94682   9.233  34.493  29.414 -0.2558 -0.0812  0.0164
51589W        W94683   7.917  34.440  29.941  0.1760 -0.1864  0.0446
51590W        W94684   8.425  33.116  28.363 -0.0461 -0.0443  0.4401
51591W        W94685   8.689  33.516  31.315 -0.0860  0.3219  0.2911
51592W        W94686   9.857  34.198  31.745  0.1716 -0.0678 -0.5479
51593W        W94687   8.043  33.093  31.309  0.2916  0.1739 -0.2355
51594W        W94688   9.970  33.246  30.749 -0.1331 -0.0307 -0.0512
51595W        W94689   7.911  33.010   0.317  0.0301  0.2795  0.2188
51596W        W94690   9.618  33.278  31.311  0.1538 -0.0686  0.1836
51597W        W94691   7.620  32.256  30.277 -0.4666 -0.1202  0.2808
51598W        W94692  10.263  32.609  31.138  0.1165 -0.0532  0.1434
51599W        W94693   7.781  31.075   0.325 -0.1074  0.0224 -0.1256
51600W        W94694   9.097  33.804  31.155  0.1275  0.0190  0.1266
51601W        W94695   8.524  33.096  31.070 -0.1011 -0.0137 -0.4532
51602W        W94696  10.889  32.299  31.555 -0.1009 -0.0676  0.3112
51603W        W94697   9.282  31.965   0.746 -0.0152  0.0409  0.2627
51604W        W94698   8.500  32.889  31.547 -0.0076 -0.3146 -0.1674
51605W        W94699  10.462  33.307   0.326  0.1508 -0.0049  0.0642
51606W        W94700   9.043  33.380   0.081 -0.1319  0.0586  0.1866
51607W        W94701   7.854  33.879  31.920  0.1521  0.1763 -0.3598
51608W        W94702   8.724   0.217   0.117 -0.2116  0.2784  0.0655
51609W        W94703   8.832  32.328  31.959 -0.1110  0.2737  0.1165
51610W        W94704   7.787  32.770  31.071 -0.3002 -0.0104  0.1997
51611W        W94705  11.746  34.183   0.208 -0.0377 -0.2127  0.0165
51612W        W94706  10.104  33.260   0.767 -0.0085 -0.3907 -0.0014
51613W        W94707  10.999  33.160   0.093 -0.0624  0.0305 -0.1964
51614W        W94708   8.228  33.513  31.563  0.0812 -0.0521 -0.0128
51615W        W94709   7.528  33.110  31.354 -0.0057 -0.2927  0.0188
51616W        W94710  10.063   0.079   0.495  0.0313 -0.0682  0.1163
51617W        W94711   9.153  33.242   0.576 -0.3726  0.0756  0.1484
51618W        W94712  10.386  33.241  31.271  0.0936  0.0574 -0.0772
51619W        W94713   8.388  32.490  31.849 -0.0599 -0.1818  0.3047
51620W        W94714   9.335   0.138   0.851 -0.3329  0.4372 -0.3622
51621W        W94715   9.541  33.675  30.991  0.4709 -0.3336 -0.0908
51622W        W94716   8.634  33.972   2.200 -0.2143 -0.0128 -0.2465
51623W        W94717   7.081  31.325  31.768 -0.3010  0.2230  0.2240
51624W        W94718  10.283   1.141  31.121 -0.2391  0.3484  0.0174
51625W        W94719  10.372   3.269  20.367 -0.1261  0.0094 -0.1581
51626W        W94720  11.326   1.911  16.173 -0.0402  0.1076  0.1055
51627W        W94721  13.191  34.614  15.275  0.0025 -0.2349 -0.0396
51628W        W94722  14.320   0.513  15.856  0.0212 -0.1366  0.0856
51629W        W94723  10.060   1.660  17.177  0.0655  0.0890  0.0273
51630W        W94724  13.074   1.572  16.926 -0.4183  0.2017  0.0146
51631W        W94725  11.644  33.287  18.567 -0.0797 -0.1080  0.0415
51632W        W94726  12.324   3.278  17.286  0.0234  0.1146 -0.1399
51633W        W94727  12.267   2.301  18.212 -0.2481 -0.2664  0.0771
51634W        W94728  12.609   1.983  15.992 -0.2150  0.1046 -0.0596
51635W        W94729  11.086   1.291  18.496 -0.0694 -0.0873  0.1452
51636W        W94730  12.138   2.487  19.155 -0.1527  0.2553  0.1391
51637W        W94731  12.902  34.257  16.320 -0.1402  0.0366  0.2074
51638W        W94732   9.999   1.125  17.304 -0.0155  0.0743 -0.0472
51639W        W94733  12.701   2.355  18.563 -0.1375  0.2742  0.0317
51640W        W94734  10.365   1.083  16.947 -0.0517 -0.4717  0.0212
51641W        W94735  12.447   0.931  17.861 -0.0857  0.2070  0.3455
51642W        W94736  11.819   0.562  15.738 -0.0921  0.1905  0.0248
51643W        W94737  11.393   3.595  16.625 -0.0784  0.0915  0.1360
51644W        W94738  11.942   0.913  17.895 -0.1484  0.0551  0.1810
51645W        W94739  10.937   0.830  17.546 -0.2244 -0.2675 -0.2189
51646W        W94740  12.750   3.047  16.636 -0.0037 -0.3219  0.0580
51647W        W94741  10.508   1.700  15.599  0.3290 -0.0723  0.2002
51648W        W94742   9.754   1.981  17.348 -0.0803  0.0094 -0.2887
51649W        W94743   9.872  34.578  17.421  0.3019  0.0415 -0.0724
51650W        W94744  12.062   1.216  15.978  0.4253  0.2045  0.0328
51651W        W94745  11.729   2.797  16.441  0.0808 -0.0830 -0.0886
51652W        W94746  11.448   2.024  16.938  0.0600 -0.2236  0.1339
51653W        W94747  13.361   2.826  16.651 -0.2106 -0.0304 -0.2125
51654W        W94748  12.825   1.587  18.999 -0.1606 -0.1080 -0.0698
51655W        W94749  13.057   2.559  15.742  0.0135  0.1459 -0.2283
51656W        W94750  10.727   3.315  16.905  0.1745 -0.1779 -0.1456
51657W        W94751  12.153   3.260  16.733  0.0548  0.2604 -0.0524
51658W        W94752  14.549   3.156  16.243 -0.2809  0.0130 -0.0578
51659W        W94753  12.259   2.601  18.669 -0.1776 -0.1150 -0.0032
51660W        W94754  12.945   2.640  19.404 -0.2077  0.1743 -0.0749
51661W        W94755  10.894   2.879  15.602  0.0122  0.3473  0.1887
51662W        W94756  12.577   4.120  19.196  0.0565 -0.1749 -0.1324
51663W        W94757  10.481   4.104  19.195  0.0570 -0.0661 -0.4537
51664W        W94758  13.523   1.062  17.938 -0.0197 -0.2078 -0.0371
51665W        W94759  10.755   1.626  16.611  0.1978 -0.1354  0.0534
51666W        W94760  11.261   3.165  15.764  0.2648  0.3055  0.3302
51667W        W94761  10.857   2.401  18.275 -0.0384  0.0737 -0.2991
51668W        W94762  11.795   2.730  18.582  0.1746  0.0634 -0.0343
51669W        W94763  12.251   2.214  16.608  0.1696 -0.1269 -0.0625
51670W        W94764  13.772   0.152  19.203 -0.2268  0.1362 -0.2190
51671W        W94765  10.540   3.073  15.166 -0.0180  0.3219 -0.1694
51672W        W94766  12.552   1.536  15.501  0.3158  0.0998  0.1383
51673W        W94767  12.281   0.272  17.429 -0.1202  0.2227 -0.1698
51674W        W94768  10.715   1.311  18.154 -0.0080 -0.2398  0.2267
51675W        W94769  12.454   0.479  16.489 -0.1502  0.0728 -0.1804
51676W        W94770  11.115   2.619  17.673 -0.1897  0.2394  0.2218
51677W        W94771  10.502   0.150  17.161  0.0530 -0.0648 -0.2185
51678W        W94772  14.997   1.810  17.788 -0.0246  0.0312  0.1149
51679W        W94773  12.422   1.750  16.605  0.1607 -0.5594 -0.1551
51680W        W94774  12.485   0.815  18.409 -0.0065 -0.0538 -0.0749
51681W        W94775  10.610   2.723  17.885 -0.0246 -0.3146 -0.0429
51682W        W94776  10.423   2.184  17.933 -0.1819  0.4759  0.1441
51683W        W94777  13.639   3.177  16.228 -0.0606 -0.0062  0.2416
51684W        W94778  13.478   1.872  16.584 -0.2611  0.0721  0.2482
51685W        W94779  12.883   3.122  15.612  0.1278  0.1342  0.1566
51686W        W94780  12.332   2.225  17.472 -0.0649 -0.1632  0.4621
51687W        W94781  10.913   2.142  18.689 -0.2201  0.0615  0.2299
51688W        W94782  10.550   1.376  18.693  0.0955  0.0968  0.3490
51689W        W94783  12.703   1.131  15.717  0.3330 -0.1004  0.0554
51690W        W94784  13.722   2.347  18.988 -0.1742 -0.2245  0.1133
51691W        W94785  11.218   3.628  18.802  0.3107  0.1661 -0.1786
51692W        W94786  15.284   0.716  16.548  0.0760 -0.2552 -0.0236
51693W        W94787  11.272   1.313  17.486 -0.0301  0.1286 -0.0640
51694W        W94788  11.839   3.069  18.988 -0.0176 -0.1251  0.0851
51695W        W94789  13.679   1.357  15.331  0.0318  0.0456 -0.0515
51696W        W94790  12.761   0.607  18.050  0.4287 -0.0461  0.0332
51697W        W94791  14.570  33.950  17.845  0.1478  0.1298  0.2993
51698W        W94792  11.267   1.586  16.552  0.0588  0.2198 -0.1052
51699W        W94793  11.201   0.581  16.813 -0.2894 -0.0576 -0.1121
51700W        W94794  14.630   2.050  18.229 -0.2091 -0.1805 -0.0579
51701W        W94795  12.770   1.418  15.038 -0.0080  0.1181  0.2236
51702W        W94796  10.190   3.045  18.032  0.0710  0.0924 -0.3131
51703W        W94797  11.544   0.956  18.263  0.2255  0.0097  0.0738
51704W        W94798  11.942   2.247  18.793  0.2807 -0.3175  0.1146
51705W        W94799   9.960   3.789  15.300  0.0356  0.0621  0.0275
51706W        W94800  10.515   1.554  17.214 -0.1801 -0.1442 -0.1313
51707W        W94801  11.295   2.306  14.786  0.2723 -0.1902 -0.0841
51708W        W94802  10.355   0.128  18.408 -0.0919  0.0845  0.3111
51709W        W94803  10.950   0.883  15.961  0.0649 -0.0262 -0.0787
51710W        W94804  13.753   0.431  15.669 -0.0653 -0.1548 -0.3014
51711W        W94805   9.062   1.287  17.500 -0.2207 -0.0828 -0.0944
51712W        W94806  14.762  33.415  17.671  0.0755 -0.0576  0.1540
51713W        W94807  11.691   3.121  14.942  0.1761 -0.0824 -0.2036
51714W        W94808  14.276   4.637  17.334  0.0386  0.0649 -0.1065
51715W        W94809  13.447   0.924  15.056  0.3933  0.2235 -0.1348
51716W        W94810  12.712   2.205  15.467 -0.1469 -0.0649  0.2533
51717W        W94811   9.687   2.473  17.418  0.2254 -0.2369 -0.0695
51718W        W94812  11.488   0.107  17.723 -0.0766 -0.0444 -0.0906
51719W        W94813  11.259  34.158  17.954  0.2138  0.2954  0.0135
51720W        W94814  10.578   0.833  17.913  0.1793 -0.0503  0.2556
51721W        W94815  12.990   2.217  18.979 -0.0471 -0.2545  0.0401
51722W        W94816  11.019   0.361  15.960 -0.1528  0.0056  0.2496
51723W        W94817  13.878   2.143  16.892  0.2852  0.0230 -0.1476
51724W        W94818  11.744   0.985  16.727  0.1630  0.0089 -0.0910
51725W        W94819  10.169   3.050  16.297 -0.2460  0.0668 -0.0796
51726W        W94820  13.754  34.553  18.060 -0.0538  0.1814 -0.4560
51727W        W94821  12.984   2.552  16.338  0.3280  0.1620 -0.1085
51728W        W94822  12.373   2.571  17.818  0.0655  0.1420  0.0393
51729W        W94823  14.479   3.215  17.262 -0.0616  0.0645 -0.5177
51730W        W94824  11.304   0.119  18.243 -0.2637 -0.0466  0.2760
51731W        W94825  11.910  34.341  15.949  0.0320  0.3877  0.0188
51732W        W94826  10.556   3.292  19.879  0.0054 -0.0545 -0.4407
51733W        W94827  10.421   3.578  16.290  0.0845 -0.0421 -0.0151
51734W        W94828  11.693   0.093  16.711 -0.0193  0.1474 -0.0636
51735W        W94829  15.209   2.612  17.457  0.0739 -0.1009 -0.0933
51736W        W94830  11.631   2.458  17.258  0.1949  0.0039 -0.1456
51737W        W94831  10.550   1.822  18.956  0.0777  0.0357  0.1110
51738W        W94832  13.348   0.944  19.007 -0.1618 -0.0862  0.3564
51739W        W94833  12.028   3.260  18.252  0.3135 -0.2346 -0.3529
51740W        W94834  12.320   0.854  17.420 -0.0994  0.0160 -0.1160
51741W        W94835  11.442   1.599  15.312  0.0478  0.3162  0.0100
51742W        W94836  12.837   2.073  16.662  0.0474  0.0990 -0.0486
51743W        W94837  10.907   3.632  15.859 -0.1796 -0.0685  0.0552
51744W        W94838  10.630   3.219  15.980  0.0213  0.2248  0.0723
51745W        W94839  10.945   2.802  15.026 -0.1572  0.0836  0.3107
51746W        W94840  13.998   0.110  16.872  0.1406 -0.0381  0.1892
51747W        W94841  11.173   2.516  21.038 -0.5700  0.2110 -0.2177
51748W        W94842  12.561   1.383  18.070 -0.0895 -0.0600 -0.0370
51749W        W94843  10.266   0.767  16.491 -0.0341  0.1115  0.0995
51750W        W94844   9.670   2.811  17.817  0.0146 -0.3798  0.1406
51751W        W94845  13.102  34.676  16.968 -0.0694 -0.0248 -0.2152
51752W        W94846  13.898   0.817  15.276  0.0991  0.3308  0.2198
51753W        W94847  11.797   2.101  19.227 -0.2351 -0.2391 -0.1469
51754W        W94848  13.568   2.552  17.130 -0.2586  0.4185 -0.0975
51755W        W94849  11.544   0.886  16.037 -0.3140  0.0944  0.1415
51756W        W94850  12.023   0.178  16.316 -0.0692  0.2203  0.0289
51757W        W94851  11.337   2.505  19.478  0.1146  0.0103 -0.1516
51758W        W94852  12.398   3.651  16.363 -0.0367 -0.2351  0.3138
51759W        W94853  13.158   0.801  17.621  0.0572 -0.2190  0.0266
51760W        W94854  12.056   0.554  15.304  0.0189  0.2158  0.0211
51761W        W94855  13.407   3.704  15.970  0.1995 -0.0468 -0.1552
51762W        W94856  10.787   1.702  18.429  0.3300 -0.2099 -0.0829
51763W        W94857  12.926   3.236  18.008 -0.2241  0.2950  0.0591
51764W        W94858  12.273   3.128  19.780  0.2927  0.1959  0.1724
51765W        W94859  12.375  34.064  17.932  0.2798  0.1704  0.0815
51766W        W94860  13.595   2.134  16.139 -0.2688 -0.0303 -0.0477
51767W        W94861  12.348   0.321  18.052 -0.0054 -0.0593 -0.1124
51768W        W94862  10.028   4.330  15.575 -0.0176 -0.1021 -0.0305
51769W        W94863  13.714   0.673  21.090 -0.0712 -0.1009 -0.0216
51770W        W94864  11.837   1.543  17.030  0.0973 -0.0977 -0.0779
51771W        W94865  12.915   0.939  18.705 -0.0577  0.0518  0.3229
51772W        W94866  13.618   0.503  20.328 -0.2270 -0.1008 -0.1621
51773W        W94867  12.393  34.352  16.279  0.3695  0.0573  0.0961
51774W        W94868  11.760   1.900  17.990  0.2884  0.0007 -0.0725
51775W        W94869  11.538   2.194  15.284  0.0010  0.0999  0.0127
51776W        W94870  13.876   1.308  17.452 -0.0260  0.0087  0.2410
51777W        W94871  10.919   1.634  19.404 -0.1025  0.3647 -0.2462
51778W        W94872  12.135   3.395  18.736  0.0332  0.0826 -0.1140
51779W        W94873  13.668   2.929  19.347  0.1779 -0.0675  0.0287
51780W        W94874  12.075   2.073  16.135 -0.1906 -0.0313  0.0698
51781W        W94875  12.308   0.452  20.228  0.0827  0.0987 -0.2993
51782W        W94876  11.729   0.536  16.513  0.3059  0.1135 -0.2286
51783W        W94877  11.865   3.273  15.483 -0.1535 -0.2787 -0.1606
51784W        W94878  12.335   1.574  16.114  0.0292  0.0190 -0.0511
51785W        W94879  11.513  33.889  18.282  0.0125  0.1685 -0.2053
51786W        W94880  12.908   3.769  16.345 -0.2334  0.3010  0.4748
51787W        W94881  11.970   1.606  15.522  0.2560 -0.1592  0.0020
51788W        W94882  12.597   1.408  17.189  0.2671 -0.0465 -0.0385
51789W        W94883  10.850   3.387  15.343 -0.0785  0.0628 -0.1798
51790W        W94884  14.167  34.174  17.888  0.2041  0.4215 -0.1254
51791W        W94885  10.454   2.414  18.713  0.0875  0.0070 -0.0785
51792W        W94886  12.322   0.832  15.738  0.0420 -0.0113 -0.1130
51793W        W94887  10.517   1.226  16.453  0.1138 -0.4858 -0.3580
51794W        W94888  12.941   0.781  16.692  0.0897  0.0929 -0.2042
51795W        W94889  12.487   2.423  16.204 -0.0299 -0.0683  0.0229
51796W        W94890   9.848  34.306  17.941 -0.1724 -0.0014 -0.0096
51797W        W94891  12.738   0.551  17.393  0.0543  0.0633  0.2018
51798W        W94892  10.211   2.621  17.563  0.1097 -0.2284  0.0613
51799W        W94893  11.331   1.998  18.368 -0.2889  0.4903 -0.1749
51800W        W94894  12.818   1.279  17.629 -0.1676 -0.0209 -0.0226
51801W        W94895  10.964   2.139  17.885  0.0611  0.2473 -0.1204
51802W        W94896  11.033   1.667  18.847 -0.0596  0.0591 -0.0469
51803W        W94897  10.242   2.223  15.496  0.4338  0.1596  0.2266
51804W        W94898  13.056   0.286  17.770 -0.0679  0.1161  0.0951
51805W        W94899  11.437   2.171  17.756  0.0535  0.0819  0.5063
51806W        W94900  11.048   2.154  17.208  0.1715 -0.1527  0.0798
51807W        W94901  12.592   2.995  17.693 -0.1726  0.1913  0.0402
51808W        W94902  11.697   2.268  16.527 -0.0338 -0.1649  0.3729
51809W        W94903  11.243   2.615  15.856 -0.1007 -0.1321 -0.2282
51810W        W94904  11.298  34.688  18.741  0.1257 -0.2058 -0.0345
51811W        W94905  13.953   1.726  17.725  0.0822  0.4618 -0.2091
51812W        W94906  11.857   1.085  17.421  0.0649 -0.2728 -0.1792
51813W        W94907  12.569   0.227  18.977 -0.0180 -0.1319  0.0865
51814W        W94908  12.048   0.774  16.240 -0.1445  0.0484 -0.1246
51815W        W94909  13.856   1.037  16.497 -0.1634 -0.0956 -0.3329
51816W        W94910  10.530   2.247  20.465 -0.1272  0.3803  0.3777
51817W        W94911  10.369   2.931  18.975  0.0772  0.0439  0.0482
51818W        W94912  12.615   1.893  18.291 -0.3397  0.0008  0.1932
51819W        W94913  12.642   2.833  15.946 -0.3433  0.1397  0.1008
51820W        W94914  12.592   1.828  20.664 -0.0304  0.2389  0.3094
51821W        W94915  11.133   2.487  15.368 -0.0311  0.1609 -0.4343
51822W        W94916  10.076   0.806  17.695  0.0076 -0.1173  0.1842
51823W        W94917  11.689   1.967  15.677 -0.1237  0.0841  0.1224
51824W        W94918  10.938  34.638  17.414  0.2858 -0.0579  0.2500
51825W        W94919  10.999   2.849  18.178 -0.1357 -0.0574 -0.0163
51826W        W94920  10.407   3.682  15.622  0.0409 -0.2169  0.2427
51827W        W94921  11.817   3.130  17.234 -0.0988 -0.2694 -0.0516
51828W        W94922  12.715   0.008  16.504 -0.0273  0.0002 -0.0811
51829W        W94923  12.941   1.646  15.863 -0.3117 -0.0917  0.1953
51830W        W94924  11.581   1.415  18.781  0.0831 -0.1495  0.1586
51831W        W94925  13.604  33.702  18.199  0.0712 -0.0536 -0.4081
51832W        W94926  13.242   1.344  15.633 -0.1806  0.0492 -0.1558
51833W        W94927  13.004  33.409  19.888  0.0324  0.1623  0.1073
51834W        W94928  11.326   0.549  19.100  0.0455  0.3089  0.1138
51835W        W94929  13.568   1.153  16.066  0.0742  0.2408 -0.1978
51836W        W94930   9.603   0.976  17.724  0.2054 -0.0624 -0.0787
51837W        W94931  14.264   4.234  18.641  0.0840 -0.0424  0.1264
51838W        W94932  11.989   1.688  18.886  0.0909 -0.0241 -0.0426
51839W        W94933  13.973  34.660  15.862  0.5235 -0.1842 -0.0832
51840W        W94934  11.317   1.506  15.857  0.0598 -0.0255 -0.3504
51841W        W94935  11.077   0.650  18.112 -0.0821  0.1631  0.1458
51842W        W94936  13.258   2.138  17.638  0.2611 -0.3309 -0.0214
51843W        W94937  12.368   2.483  15.718 -0.3164  0.0002  0.0741
51844W        W94938  14.922   0.017  16.923  0.0289  0.4490 -0.0510
51845W        W94939  12.567   3.660  18.911 -0.2333  0.0074  0.2580
51846W        W94940  12.655   1.201  16.697  0.1353  0.1007  0.1272
51847W        W94941  13.173   2.070  15.725 -0.0804 -0.1637 -0.0948
51848W        W94942  11.776   1.633  16.039 -0.0316 -0.2319  0.1936
51849W        W94943  11.586   1.509  18.301  0.2323  0.1407 -0.0495
51850W        W94944  13.377   0.803  15.791 -0.1477  0.4256 -0.1322
51851W        W94945  13.951   1.065  19.236 -0.2061 -0.2042 -0.3273
51852W        W94946  11.827   1.626  19.447  0.0628  0.0646  0.0573
51853W        W94947  12.355   1.653  19.218 -0.1045 -0.0315  0.0031
51854W        W94948  11.704   0.796  18.910 -0.1958  0.2081  0.2177
51855W        W94949  11.249  34.609  19.736  0.0892  0.2435 -0.1877
51856W        W94950  12.372   3.725  18.379 -0.1197 -0.1602  0.0676
51857W        W94951  14.778   1.081  16.337  0.0466  0.0069  0.1657
51858W        W94952  14.379   1.389  17.508  0.1311  0.1385 -0.0054
51859W        W94953  14.027   0.878  17.029 -0.2025 -0.0968  0.0933
51860W        W94954  13.839   1.674  16.159 -0.0813 -0.4114 -0.0120
51861W        W94955  10.548   0.495  17.504  0.1908  0.0955  0.2546
51862W        W94956  12.609   2.202  20.338  0.0394  0.0912 -0.1629
51863W        W94957  13.144   0.456  15.138  0.4236 -0.1047  0.0814
51864W        W94958  12.268   1.565  19.758  0.4230 -0.1186 -0.0045
51865W        W94959  12.190   2.997  15.659  0.1398 -0.1028 -0.0149
51866W        W94960  12.250   1.866  17.924  0.2249 -0.0081 -0.0564
51867W        W94961  12.389   0.661  16.954  0.2661  0.1731  0.2169
51868W        W94962  10.374  34.282  17.189  0.0160 -0.0654  0.0401
51869W        W94963  11.573   3.755  20.108 -0.0740 -0.2052 -0.1961
51870W        W94964  10.998   1.607  15.427  0.3122  0.3038 -0.0001
51871W        W94965  13.315   1.585  16.221  0.1831  0.1054 -0.0329
51872W        W94966  12.118   1.461  18.219  0.1448 -0.4582 -0.0784
51873W        W94967  13.151   2.641  17.520 -0.3326 -0.2861 -0.0058
51874W        W94968  10.184  32.726  17.050  0.0037  0.1809 -0.1881
51875W        W94969  13.675  34.371  19.476 -0.1235 -0.1231  0.2417
51876W        W94970   9.994   3.896  16.853 -0.2614  0.2669 -0.0634
51877W        W94971  13.521  33.979  18.650 -0.2330  0.2426  0.1329
51878W        W94972  11.367   1.599  19.213 -0.0312 -0.2543 -0.0817
51879W        W94973  10.197   2.590  18.130 -0.1339  0.0034  0.1292
51880W        W94974  12.548   3.383  15.817  0.0861 -0.0845  0.0441
51881W        W94975  13.204   0.156  18.288 -0.1907 -0.0787 -0.1610
51882W        W94976  12.245   0.711  18.916 -0.0129  0.1071  0.1715
51883W        W94977  13.407   0.694  16.388 -0.4246  0.1703  0.2042
51884W        W94978  13.303   2.522  18.006  0.2606 -0.0539  0.0590
51885W        W94979  12.638   2.206  19.357 -0.1761  0.2792  0.1576
51886W        W94980  11.296   2.576  16.325 -0.0554  0.1431  0.0343
51887W        W94981  12.870   3.604  19.292 -0.1374 -0.2164 -0.4769
51888W        W94982  13.780   2.251  17.455 -0.3592  0.0764 -0.2389
51889W        W94983  11.691   1.450  17.753  0.4296 -0.0461 -0.0851
51890W        W94984  10.997   0.814  18.769 -0.1453 -0.1499 -0.2865
51891W        W94985  13.031   1.248  19.266 -0.1524 -0.1977  0.1529
51892W        W94986  14.655   1.549  16.748  0.0846  0.1557  0.0100
51893W        W94987  11.616   1.306  16.360 -0.2080 -0.0848  0.0688
51894W        W94988  12.061   2.329  15.288 -0.1542 -0.2171  0.1490
51895W        W94989   8.884   2.544  19.531  0.2094  0.1076  0.2341
51896W        W94990  10.716   2.338  19.131  0.2112 -0.0907 -0.2056
51897W        W94991  10.926   2.812  17.049  0.0736 -0.0376  0.1300
51898W        W94992  13.998   2.652  17.008 -0.3402  0.1872  0.0248
51899W        W94993  12.804   2.083  17.165 -0.2084 -0.0505 -0.1463
51900W        W94994  12.302   3.681  17.001  0.0741 -0.2227  0.0174
51901W        W94995  12.251   1.748  17.063 -0.0830 -0.0659  0.4892
51902W        W94996  11.675   3.458  17.873 -0.2817 -0.0428 -0.2610
51903W        W94997  10.642   2.546  15.325  0.2810 -0.1968 -0.2050
51904W        W94998  13.808   3.653  16.957  0.0431 -0.2104 -0.1766
51905W        W94999  11.380   3.919  15.835 -0.2510  0.2660 -0.2618
51906W        W95000  13.210   2.508  18.506 -0.3292 -0.0639  0.0801
51907W        W95001  14.734   1.059  15.443 -0.4472 -0.1410 -0.1951
51908W        W95002  13.819   0.517  16.632  0.3490 -0.0574  0.0149
51909W        W95003  13.905   0.514  16.164 -0.3266  0.0090  0.0065
51910W        W95004  12.441   2.880  19.335  0.0694  0.0185  0.0862
51911W        W95005  10.171   1.775  17.743 -0.0618  0.2109  0.0865
51912W        W95006  12.423  34.332  15.326  0.0761  0.0420 -0.0301
51913W        W95007  10.946   2.260  20.143  0.1205 -0.1577 -0.1308
51914W        W95008  14.145  33.673  21.217  0.0459 -0.1043  0.0552
51915W        W95009  11.290   3.406  19.885 -0.2717  0.1432 -0.1033
51916W        W95010  13.477   2.598  16.129  0.0848 -0.3441  0.3214
51917W        W95011  12.182   1.289  16.513  0.0663 -0.0935  0.0942
51918W        W95012  11.962   2.667  16.911 -0.0669 -0.0461  0.0370
51919W        W95013  16.132  33.040  18.415  0.4299  0.0298  0.1362
51920W        W95014  11.690   1.216  15.639  0.1206  0.0413 -0.0671
51921W        W95015  11.914   2.770  18.060 -0.0470  0.0362 -0.1561
51922W        W95016  12.053   3.570  15.867 -0.0600  0.1924 -0.1273
51923W        W95017  11.787   3.514  16.932  0.3648  0.3684 -0.1520
51924W        W95018  11.516   3.062  18.201  0.0208  0.1889 -0.3318
51925W        W95019  11.877   0.483  17.010  0.0719 -0.0166  0.4758
51926W        W95020  14.051   0.297  18.085 -0.1208 -0.0326 -0.1279
51927W        W95021  10.675   0.580  16.885 -0.0235 -0.2448 -0.0582
51928W        W95022  13.185  34.628  19.585  0.0728  0.1069  0.0386
51929W        W95023  11.130   3.327  18.445 -0.1869 -0.0916  0.1859
51930W        W95024  14.202   1.027  16.095  0.2351  0.2270 -0.0275
51931W        W95025  10.850   1.013  16.936  0.1453  0.1087  0.2601
51932W        W95026  10.667   1.738  17.943 -0.0414  0.0531 -0.0135
51933W        W95027  11.267   0.689  16.327 -0.2650 -0.0908  0.2428
51934W        W95028  13.651   1.728  17.260  0.2110  0.1632  0.2138
51935W        W95029  12.236   1.959  15.591 -0.0071 -0.1591 -0.1849
51936W        W95030  13.423   3.913  19.446  0.1646  0.1158  0.1608
51937W        W95031   9.863   0.946  15.961 -0.1940  0.1610 -0.1932
51938W        W95032  12.583   1.790  17.532  0.1952  0.1674 -0.2193
51939W        W95033  10.882   2.780  16.112  0.0099 -0.1007 -0.3348
51940W        W95034  12.055   1.913  18.451 -0.2801 -0.0396  0.0854
51941W        W95035  13.247   2.660  18.959 -0.1551  0.3145 -0.1644
51942W        W95036  10.581   0.517  16.058  0.1859  0.2395  0.0836
51943W        W95037  13.586   2.403  15.708  0.0657 -0.0035  0.0680
51944W        W95038  14.979   1.985  16.750 -0.0958 -0.0582 -0.1375
51945W        W95039  11.762   3.886  15.575  0.2926 -0.0871  0.0954
51946W        W95040  11.359   2.531  18.125 -0.1314 -0.0333  0.1601
51947W        W95041  12.108   2.650  17.372 -0.2780  0.0608  0.2726
51948W        W95042  10.961  34.532  17.957  0.2892 -0.0924  0.0260
51949W        W95043  12.711   3.456  17.514  0.0960 -0.1392  0.0542
51950W        W95044  13.300   2.040  18.143 -0.1351  0.0110 -0.2199
51951W        W95045  11.349  34.358  16.024  0.1261 -0.0124 -0.0704
51952W        W95046  11.467   0.437  17.278 -0.0627 -0.2320 -0.0904
51953W        W95047   9.498   1.851  16.273 -0.0819 -0.2568  0.3651
51954W        W95048  14.748   0.577  16.399 -0.1508 -0.0375  0.0178
51955W        W95049  13.845   0.441  17.596 -0.1991 -0.0343  0.1113
51956W        W95050  11.911   1.751  16.566  0.2079 -0.0276  0.0794
51957W        W95051  14.809   0.081  18.309  0.1010 -0.2034 -0.1116
51958W        W95052  12.247   3.657  17.602 -0.0486  0.0817 -0.0527
51959W        W95053  11.365   2.943  18.744  0.0370  0.1248 -0.1024
51960W        W95054  10.980   2.221  14.401 -0.0301 -0.0537 -0.2440
51961W        W95055  12.058   4.142  17.099 -0.0482 -0.3094 -0.0267
51962W        W95056  11.616   2.325  16.019  0.1726 -0.2115 -0.0064
51963W        W95057  11.949   2.324  17.818  0.0647 -0.1504 -0.2897
51964W        W95058  14.160   1.775  17.247  0.0284 -0.1435  0.1375
51965W        W95059  12.345  34.555  15.828 -0.1134  0.0695 -0.0701
51966W        W95060  15.895   0.506  17.120  0.1051 -0.0509 -0.0029
51967W        W95061  11.847  34.670  17.265 -0.0603  0.2370 -0.1674
51968W        W95062  13.226   0.315  15.608 -0.0798 -0.0267  0.2707
51969W        W95063  13.872   1.599  16.760 -0.1842 -0.0186 -0.1767
51970W        W95064  11.786   2.300  18.306 -0.1651 -0.0468 -0.6313
51971W        W95065  10.364   1.553  16.098  0.4718 -0.2061  0.1673
51972W        W95066  11.812   2.195  14.669 -0.0102  0.0824  0.0731
51973W        W95067  10.388   2.028  18.399 -0.1227  0.0026  0.1562
51974W        W95068  12.546  34.433  19.135  0.1951  0.0253 -0.1925
51975W        W95069  10.571   0.796  19.730  0.2852 -0.2971  0.0051
51976W        W95070  12.063   2.591  16.109 -0.2211  0.1314 -0.0202
51977W        W95071  11.063   1.662  17.033 -0.2308  0.1571 -0.0852
51978W        W95072  14.024   2.049  16.371 -0.1083 -0.1787  0.0731
51979W        W95073  11.876   0.586  17.524  0.0691  0.1542 -0.0498
51980W        W95074  10.911   0.319  16.446 -0.1692 -0.3414  0.0715
51981W        W95075  13.058   2.070  16.216 -0.2839  0.1927 -0.0739
51982W        W95076  14.979   2.982  16.091 -0.3250  0.0730  0.0296
51983W        W95077  12.999   1.079  18.093 -0.1521 -0.2596  0.1069
51984W        W95078  13.079   1.922  18.597  0.1347 -0.0352 -0.0348
51985W        W95079  10.496   2.355  14.480  0.0231 -0.2693 -0.0457
51986W        W95080  14.061   2.350  20.068 -0.0183 -0.2832  0.1311
51987W        W95081  11.707   0.135  19.388 -0.2184 -0.1879  0.3610
51988W        W95082  10.632   1.419  15.183 -0.2096 -0.1352 -0.1524
51989W        W95083  11.773   1.973  17.455  0.1179 -0.1322  0.1265
51990W        W95084  13.420   1.292  17.258  0.1380  0.1517 -0.1565
51991W        W95085  12.575   3.877  15.863 -0.4310 -0.3114 -0.0709
51992W        W95086  12.403   2.881  16.984 -0.1094 -0.1893  0.0022
51993W        W95087  11.826   3.551  20.636 -0.2145  0.1209 -0.2025
51994W        W95088  11.020  34.428  18.409 -0.2808 -0.3215  0.0197
51995W        W95089  13.220   0.453  17.309 -0.2247  0.0887  0.2209
51996W        W95090  11.933   3.498  19.629 -0.0203 -0.0808  0.3393
51997W        W95091  14.809   2.528  15.911  0.0170  0.2221  0.1518
51998W        W95092  13.761   1.277  18.331 -0.1252 -0.1147  0.3573
51999W        W95093  13.336   2.073  17.064 -0.0963  0.2430 -0.0789
52000W        W95094  11.437   0.803  17.746  0.2706 -0.1944  0.1187
52001W        W95095  11.934   2.636  20.844 -0.1355 -0.0634 -0.0020
52002W        W95096  15.366   1.049  17.342 -0.1136 -0.1874 -0.0705
52003W        W95097  11.913  33.259  16.203  0.0605 -0.2520 -0.1662
52004W        W95098  13.966   2.038  15.791  0.2917 -0.1631  0.2641
52005W        W95099  12.953   3.633  15.550  0.3360 -0.0997 -0.1581
52006W        W95100  10.254   1.552  16.718 -0.2991  0.1639  0.3896
52007W        W95101  11.430   0.949  17.175 -0.0935 -0.1612 -0.0628
52008W        W95102  11.263   1.820  17.449  0.2925  0.4604 -0.0835
52009W        W95103  11.663   3.311  18.619  0.2725 -0.2325  0.0170
52010W        W95104  11.675   2.610  19.106 -0.0357 -0.1892 -0.2560
52011W        W95105  11.278   0.633  15.645 -0.1307 -0.2244  0.1881
52012W        W95106  13.165   2.326  15.287 -0.3301 -0.4762 -0.1923
52013W        W95107  12.504   3.063  18.847  0.3960  0.0050 -0.0419
52014W        W95108  13.915   3.300  18.603  0.1782  0.1635 -0.0429
52015W        W95109  10.615   3.923  17.877 -0.0717 -0.1492  0.0050
52016W        W95110  13.093   1.681  17.409  0.1884 -0.0762  0.1162
52017W        W95111  10.766   1.326  17.597 -0.2321  0.3307 -0.0285
52018W        W95112  12.853   1.572  16.386  0.1520  0.1612  0.1106
52019W        W95113  12.235   1.137  16.973 -0.2548  0.1809 -0.0900
52020W        W95114  12.356   1.562  18.639  0.1829  0.0221 -0.0219
52021W        W95115  10.336   1.286  17.755  0.2408 -0.2255 -0.0390
52022W        W95116  13.410   0.856  16.923  0.1441 -0.2128  0.0574
52023W        W95117  12.951   4.194  18.155  0.1214 -0.0713 -0.1007
52024W        W95118  11.870   2.204  20.330 -0.2906 -0.1014 -0.3196
52025W        W95119  11.171   3.001  23.613  0.1773 -0.1240  0.1455
52026W        W95120  12.451   1.205  19.343  0.1994  0.0393  0.2155
52027W        W95121  14.161   0.592  19.037  0.0545 -0.1326 -0.0711
52028W        W95122  13.723   2.457  21.553 -0.0785  0.2050 -0.2244
52029W        W95123   9.452   0.443  20.906  0.3076  0.0479 -0.1730
52030W        W95124  12.981   2.897  21.300  0.2675 -0.2089  0.1329
52031W        W95125  11.724   1.446  22.790  0.0548 -0.0738 -0.0866
52032W        W95126  11.662   2.709  21.921  0.2048 -0.2321  0.2102
52033W        W95127  14.069   3.115  22.536 -0.2733  0.1331 -0.2754
52034W        W95128  13.157   2.122  19.695 -0.2191 -0.1650 -0.2816
52035W        W95129  12.159   1.306  22.451 -0.0407 -0.3554 -0.2114
52036W        W95130  13.232   1.282  22.758  0.2361 -0.4045 -0.3357
52037W        W95131  12.291   0.700  19.475  0.1698  0.0137 -0.1148
52038W        W95132  11.951  34.145  21.751  0.1067 -0.1359 -0.2482
52039W        W95133  13.538   1.800  22.757  0.0924 -0.0099 -0.2254
52040W        W95134  10.826   2.635  20.481  0.0077  0.0782  0.2030
52041W        W95135  10.493   1.539  21.577  0.0822  0.2258  0.1536
52042W        W95136  10.671   0.492  21.616  0.2163  0.3715 -0.0226
52043W        W95137  10.762   4.145  22.654 -0.1633  0.2664  0.4762
52044W        W95138  11.498   1.135  23.196  0.1038  0.1006  0.3029
52045W        W95139  12.023  34.220  24.155 -0.0055  0.4430  0.1932
52046W        W95140  11.405   2.294  19.936  0.1073 -0.0345  0.1389
52047W        W95141  10.044   0.493  19.206 -0.0227  0.1001 -0.1654
52048W        W95142  10.591   1.068  21.446  0.2185 -0.0945 -0.0468
52049W        W95143  12.075   3.616  23.195 -0.0112 -0.0532 -0.0597
52050W        W95144  13.976   1.432  22.343 -0.0894 -0.0682  0.1946
52051W        W95145  14.952   0.928  22.325  0.0136  0.0199  0.0703
52052W        W95146  12.613   2.265  21.498  0.1598 -0.2781  0.1022
52053W        W95147  12.466   3.680  21.579 -0.2076 -0.1634 -0.3354
52054W        W95148  13.661   0.165  23.684  0.1971 -0.0264 -0.0827
52055W        W95149  11.403   2.389  20.577  0.0508 -0.0094 -0.0444
52056W        W95150   9.281   3.657  21.163 -0.0133  0.0437 -0.3210
52057W        W95151  12.233   2.273  20.040 -0.1380  0.0144  0.1520
52058W        W95152  14.883   2.601  21.050 -0.1474 -0.1902 -0.0240
52059W        W95153  13.649   3.935  22.703  0.2260  0.0286 -0.3194
52060W        W95154  10.605   4.861  23.185 -0.1802  0.1689  0.0278
52061W        W95155  10.863   3.093  18.978 -0.4378 -0.1215 -0.0891
52062W        W95156  11.498   4.316  21.937  0.0270  0.3329  0.3290
52063W        W95157  12.093   3.406  22.362 -0.2266 -0.1156  0.2059
52064W        W95158  12.017   1.993  22.101 -0.1673  0.1855  0.0521
52065W        W95159  11.768   1.226  20.488  0.3154  0.0715  0.0021
52066W        W95160  13.062   4.558  20.752  0.1168  0.2571 -0.1515
52067W        W95161  11.199   1.387  20.148 -0.0945 -0.2374 -0.4277
52068W        W95162  11.922   4.071  23.636  0.0225 -0.1876 -0.0540
52069W        W95163  12.498   2.184  21.994  0.3807  0.1086  0.2472
52070W        W95164  13.396   3.003  23.340 -0.1979 -0.2125  0.2462
52071W        W95165  11.553   2.848  21.049  0.1829 -0.3816 -0.1426
52072W        W95166  12.714   2.163  17.748  0.0597 -0.0375 -0.1747
52073W        W95167   9.930   1.286  19.471  0.0714  0.0601 -0.0743
52074W        W95168  12.991   1.897  20.936  0.1482 -0.1648 -0.1264
52075W        W95169  12.555   0.221  22.245  0.0733  0.1479  0.2933
52076W        W95170  11.150   2.762  21.990  0.1377  0.1613  0.1269
52077W        W95171  11.339   0.166  22.032  0.4050 -0.2443  0.0161
52078W        W95172  13.291   3.145  22.758  0.0271  0.2406  0.1367
52079W        W95173  12.138   3.050  20.434  0.4047  0.0752 -0.0116
52080W        W95174  13.733   2.106  23.641 -0.0328 -0.0614  0.1633
52081W        W95175  11.185   3.357  21.711 -0.0354  0.0944  0.1188
52082W        W95176  10.037   1.099  20.314 -0.0531  0.1545 -0.0787
52083W        W95177  13.934   2.407  19.479  0.2742 -0.1092 -0.0132
52084W        W95178  14.106   3.073  20.075  0.1009 -0.0468 -0.0899
52085W        W95179  13.368   3.414  19.382 -0.2322  0.0229  0.2948
52086W        W95180  10.955   0.857  20.121 -0.1870  0.0643  0.0554
52087W        W95181  11.596   3.008  23.240  0.0886  0.2135 -0.1124
52088W        W95182  11.647   2.306  22.297  0.0150 -0.4306  0.4119
52089W        W95183  13.174   1.417  19.736  0.0280  0.2877 -0.1173
52090W        W95184  13.813   1.933  22.355 -0.2123  0.1919  0.1392
52091W        W95185  11.116   3.775  22.481  0.1136  0.3053 -0.2299
52092W        W95186  13.682   1.020  20.243  0.0045  0.1049 -0.1141
52093W        W95187  10.974   3.153  22.223  0.0294  0.0524 -0.1966
52094W        W95188  12.020   3.484  21.865 -0.0147  0.3574 -0.2214
52095W        W95189  12.824   2.631  18.056 -0.0043  0.0841 -0.1044
52096W        W95190  13.626  34.693  22.268 -0.1376 -0.1276 -0.0927
52097W        W95191  14.375   0.465  20.777  0.1230  0.0417  0.2220
52098W        W95192  11.532   1.895  18.792  0.3122  0.3692  0.0361
52099W        W95193  12.667   1.991  19.847 -0.0271 -0.0989  0.1610
52100W        W95194  13.481   2.902  21.492  0.0102 -0.2313  0.0911
52101W        W95195  13.713   1.709  18.808  0.0949 -0.0533  0.1486
52102W        W95196  11.628   3.940  21.062 -0.0324  0.1025  0.0693
52103W        W95197  12.139   0.995  22.839  0.0271 -0.0362 -0.3455
52104W        W95198  10.343   4.232  22.434  0.0127 -0.4230 -0.0358
52105W        W95199  13.525   4.341  19.025 -0.1013 -0.2216  0.0816
52106W        W95200  10.147   3.423  20.980  0.0367 -0.1822 -0.3612
52107W        W95201  10.202   2.888  19.688 -0.0642  0.0875 -0.0468
52108W        W95202  10.857   0.236  22.142 -0.4412 -0.3820 -0.3407
52109W        W95203  12.385   2.278  22.510  0.3056 -0.2021  0.0009
52110W        W95204  14.016  33.563  20.004 -0.3597  0.0012 -0.1704
52111W        W95205  10.929   0.269  21.174  0.1503  0.0254  0.1297
52112W        W95206  13.711   1.187  20.737  0.1530 -0.0013 -0.1159
52113W        W95207  12.095   3.628  20.194  0.3168  0.0719  0.0622
52114W        W95208  13.454   2.462  19.440  0.1165 -0.3712 -0.4465
52115W        W95209  14.146   2.638  20.458  0.1601 -0.1537  0.1063
52116W        W95210  12.379   2.035  18.916  0.3463 -0.0438 -0.1164
52117W        W95211  10.833   3.609  22.058 -0.2170 -0.1565  0.0671
52118W        W95212  11.248   1.209  21.077  0.3022  0.1631  0.3262
52119W        W95213  10.870   0.428  22.639 -0.0490  0.0454  0.1508
52120W        W95214  11.464   0.156  21.193  0.0728 -0.0636  0.2652
52121W        W95215  12.796   2.158  22.365 -0.0964  0.0536  0.0207
52122W        W95216  10.333  34.668  19.258  0.1365 -0.1961  0.4072
52123W        W95217  13.852   2.110  20.514  0.1936 -0.1691 -0.0966
52124W        W95218  12.153   2.045  20.717  0.0625 -0.3030 -0.0402
52125W        W95219  10.284   1.873  20.822  0.0956 -0.3938  0.1384
52126W        W95220  14.506  34.458  23.261  0.1700  0.0442 -0.1000
52127W        W95221  13.060   2.921  20.269  0.0397  0.0254  0.0653
52128W        W95222  14.575   2.904  23.149 -0.6461  0.2433  0.0763
52129W        W95223  13.386   3.406  21.493  0.0541 -0.0841 -0.1117
52130W        W95224  11.225   1.409  22.679  0.2227  0.0193 -0.0354
52131W        W95225  12.621   0.466  19.856 -0.1243  0.0629 -0.1260
52132W        W95226  10.722   3.783  21.559 -0.0374 -0.3112 -0.0202
52133W        W95227  11.656   3.759  21.628  0.0075  0.0909 -0.0113
52134W        W95228  11.099  34.644  21.624 -0.0949  0.0269  0.3598
52135W        W95229  14.748   3.957  21.229 -0.0314 -0.1868  0.0271
52136W        W95230  11.432   1.894  19.648  0.2483  0.0256  0.3005
52137W        W95231  11.212   2.306  22.498 -0.0006  0.2561 -0.0993
52138W        W95232  14.388   0.351  23.058  0.0175 -0.0595  0.1347
52139W        W95233  15.023   2.712  22.322 -0.0619  0.1455 -0.2500
52140W        W95234  12.947   1.106  21.441 -0.0382 -0.2617  0.2354
52141W        W95235  11.731   0.460  20.156 -0.0679 -0.0425  0.0372
52142W        W95236  12.067   3.977  20.828  0.0654  0.0463  0.1556
52143W        W95237  11.819   3.212  20.059 -0.1938  0.2007 -0.0698
52144W        W95238  11.664   1.525  20.133  0.1245  0.0257 -0.2455
52145W        W95239  13.522   2.723  20.345 -0.1387  0.1171  0.3852
52146W        W95240  14.027   0.972  22.066  0.0357 -0.2006  0.0329
52147W        W95241  10.726   2.746  21.678  0.0870 -0.0639 -0.1360
52148W        W95242  12.883   0.639  22.065  0.3410 -0.1373 -0.4099
52149W        W95243  12.199   1.776  20.250  0.2186  0.1355  0.3753
52150W        W95244  11.976   2.695  23.087 -0.1827 -0.3069 -0.0829
52151W        W95245  13.059   0.816  20.129 -0.2868  0.0361  0.0553
52152W        W95246  14.117   1.456  18.624 -0.0071 -0.4375  0.1435
52153W        W95247  11.912   2.376  22.716  0.2048 -0.1187  0.1381
52154W        W95248  13.744   1.773  18.245  0.0366  0.1000 -0.0920
52155W        W95249  12.834   1.003  19.712 -0.1008 -0.0088 -0.2090
52156W        W95250  13.378   1.007  18.499 -0.0262  0.0228  0.0845
52157W        W95251  10.808   2.214  23.459  0.0967  0.1513 -0.0319
52158W        W95252  12.544   3.111  21.752  0.0023  0.0211  0.0868
52159W        W95253  11.374   2.814  21.549 -0.3654  0.0500  0.2975
52160W        W95254  12.670   1.439  20.027  0.1261  0.2426 -0.2514
52161W        W95255  13.647   2.004  19.615  0.0879  0.4941  0.0093
52162W        W95256  10.386   3.540  23.383 -0.1018 -0.1001 -0.1866
52163W        W95257  13.245   2.229  22.832 -0.4555 -0.3318  0.1287
52164W        W95258  11.736   4.390  20.018 -0.0767  0.0148  0.1180
52165W        W95259  12.398   1.613  21.865  0.2124  0.2278 -0.4099
52166W        W95260  12.209   2.073  19.520  0.2139  0.2073  0.0246
52167W        W95261  12.143   1.077  21.996 -0.1034 -0.0026 -0.1048
52168W        W95262  12.254   4.235  21.232 -0.1322 -0.1910  0.3950
52169W        W95263  14.261   1.035  21.601  0.5332  0.0680  0.4062
52170W        W95264  12.538   0.855  22.443 -0.0859  0.2550 -0.0546
52171W        W95265  13.227  34.482  23.545 -0.1789 -0.1146 -0.0433
52172W        W95266  13.466   0.750  22.910  0.1788  0.0730 -0.1131
52173W        W95267  12.791   1.616  19.492  0.0818  0.0959  0.1496
52174W        W95268  13.074   0.658  22.520  0.2854  0.0385 -0.3322
52175W        W95269  11.749  34.244  19.537 -0.3410  0.0027  0.0932
52176W        W95270  12.527   0.753  21.556  0.2705 -0.0636 -0.1432
52177W        W95271  11.486   2.594  22.830 -0.0938 -0.0758 -0.0850
52178W        W95272  12.057   4.465  23.295  0.0257 -0.1302  0.0069
52179W        W95273  13.786   3.346  23.374  0.1782 -0.2078 -0.0360
52180W        W95274  13.004   2.986  22.023 -0.1335 -0.2490  0.1929
52181W        W95275  14.205  34.295  22.420 -0.1960 -0.0828  0.1044
52182W        W95276  12.329   0.721  20.620  0.2313  0.1857 -0.0224
52183W        W95277  12.133   3.870  19.337  0.0014 -0.2196  0.1376
52184W        W95278  10.756   1.469  21.036  0.1140  0.0302 -0.3542
52185W        W95279  12.744   1.459  20.998  0.1209  0.0389  0.1445
52186W        W95280  13.285   2.597  21.837  0.2184  0.1901 -0.0677
52187W        W95281  12.574   3.151  20.958 -0.0049  0.1187  0.4400
52188W        W95282  12.475   1.750  22.415 -0.0895  0.1200 -0.0464
52189W        W95283  11.907   4.442  20.671 -0.2644  0.1286 -0.0186
52190W        W95284  13.744  34.275  21.952  0.0618  0.0869 -0.0354
52191W        W95285  10.513   3.769  22.427 -0.0777  0.3381 -0.2950
52192W        W95286  11.334   0.933  20.605 -0.0183 -0.2753 -0.0642
52193W        W95287  10.415   0.321  19.594 -0.0210  0.0624  0.0558
52194W        W95288  13.246   1.469  20.746  0.1714  0.4298 -0.1795
52195W        W95289  13.687   3.221  21.930  0.2696  0.0495  0.0445
52196W        W95290  11.449  33.246  21.335 -0.1045  0.4086 -0.0335
52197W        W95291  13.696   0.331  21.792  0.1512 -0.0313  0.2475
52198W        W95292  10.745   2.749  23.750  0.0551  0.1554  0.0007
52199W        W95293  12.637  34.501  22.757  0.1697 -0.0273 -0.3047
52200W        W95294  14.588   0.012  20.636  0.4365  0.0519  0.0358
52201W        W95295  12.230   2.539  21.692 -0.0383  0.0417  0.1481
52202W        W95296  12.045   1.837  22.630  0.0025  0.1759 -0.2720
52203W        W95297   8.906   0.357  20.782 -0.1505 -0.2693  0.0587
52204W        W95298  13.756   1.293  22.796 -0.4258 -0.2148 -0.1124
52205W        W95299  12.218   2.012  21.587 -0.0872  0.1312  0.1311
52206W        W95300  10.615   3.734  20.174  0.1810 -0.0188  0.0165
52207W        W95301  11.685   3.244  21.478 -0.0974  0.1924  0.2411
52208W        W95302  11.569   1.197  19.273 -0.0992 -0.0114 -0.0666
52209W        W95303  12.314   3.520  20.701 -0.0403  0.0921 -0.1471
52210W        W95304  12.888   1.412  23.129 -0.1349  0.4106  0.1558
52211W        W95305  13.725   2.283  22.033  0.1174 -0.0992 -0.2434
52212W        W95306  12.101   0.794  21.140  0.0201  0.3848  0.0049
52213W        W95307  11.736   1.114  21.011  0.4098 -0.1922 -0.1150
52214W        W95308  12.710   1.344  22.546  0.0553 -0.1955  0.1285
52215W        W95309  12.834   2.739  20.824 -0.0177  0.0836 -0.1711
52216W        W95310  11.280   0.414  21.570  0.0783  0.1803  0.1308
52217W        W95311  12.551   2.377  23.441  0.2380  0.1414  0.2162
52218W        W95312  12.172  34.607  21.043  0.1184 -0.1859 -0.2372
52219W        W95313  15.417   3.012  19.379  0.1428 -0.0198  0.0651
52220W        W95314  13.561   1.791  21.853 -0.2106 -0.1683  0.1841
52221W        W95315  11.216   2.079  19.140  0.3579 -0.0565 -0.1456
52222W        W95316   8.673   2.940  20.624  0.0329 -0.0417 -0.0591
52223W        W95317  12.435   2.525  19.679  0.1805 -0.1380 -0.2608
52224W        W95318  11.447   1.574  21.323 -0.4132  0.1591 -0.1339
52225W        W95319   9.904   3.850  21.758  0.3077  0.1263 -0.1103
52226W        W95320  12.180   3.252  21.420  0.2737 -0.3420  0.0081
52227W        W95321  11.267   4.145  22.904 -0.2749 -0.0136 -0.3418
52228W        W95322  12.963  34.155  19.551  0.0056  0.2335  0.0938
52229W        W95323  13.773   3.308  19.785  0.3113 -0.0826  0.2601
52230W        W95324  11.292   0.584  22.387 -0.0280 -0.0227 -0.0602
52231W        W95325  13.638   2.437  22.602  0.0117 -0.0057  0.0244
52232W        W95326  12.791   2.697  21.720  0.0657 -0.3202 -0.0148
52233W        W95327  13.835   0.795  21.632 -0.0652  0.1727  0.0220
52234W        W95328  10.317   0.808  21.860 -0.0097  0.3144 -0.0415
52235W        W95329  13.541   2.371  19.956 -0.0526 -0.0121 -0.2306
52236W        W95330  10.401   0.572  22.446  0.1275  0.1186  0.1461
52237W        W95331  13.357   3.392  23.739 -0.1741  0.1899  0.0712
52238W        W95332  10.352   2.317  23.435 -0.1962  0.0538 -0.3501
52239W        W95333  11.754   1.746  20.778  0.1621 -0.2449  0.0404
52240W        W95334  11.544   0.959  19.997 -0.0656  0.2555  0.1471
52241W        W95335  11.317   2.104  22.031  0.0571  0.1672  0.1936
52242W        W95336  13.945   1.493  19.484  0.1270 -0.4141 -0.3115
52243W        W95337  12.929   2.511  19.905  0.0203 -0.0173 -0.0832
52244W        W95338  14.061   1.416  21.234  0.1665  0.2039 -0.3368
52245W        W95339  11.700   1.709  21.774  0.0038  0.0859 -0.1031
52246W        W95340  11.637   3.541  22.491 -0.0265  0.4656 -0.0644
52247W        W95341  13.106   2.356  20.728  0.1410  0.0337 -0.0945
52248W        W95342  11.845   1.932  19.876 -0.1321  0.4070 -0.2977
52249W        W95343  12.309   0.447  22.669  0.0980 -0.1721 -0.1499
52250W        W95344  12.187   2.269  21.175 -0.0686  0.1798 -0.0580
52251W        W95345  10.472  34.315  23.207 -0.0585  0.0521  0.1436
52252W        W95346  12.979  34.132  24.000 -0.3238  0.1227  0.0955
52253W        W95347  14.140   0.862  23.082  0.1474 -0.0933  0.3643
52254W        W95348  10.633   1.613  22.833  0.1939 -0.0774  0.0102
52255W        W95349   9.890   1.142  22.159  0.1376 -0.1575  0.0445
52256W        W95350  14.241   2.233  22.602  0.1024  0.2745  0.2422
52257W        W95351  13.529  33.867  19.737 -0.1118  0.0378  0.1839
52258W        W95352  14.610   0.421  20.332  0.1628 -0.3175  0.1348
52259W        W95353  15.050   0.409  19.781  0.2789  0.2521 -0.2015
52260W        W95354  12.396   2.600  20.628 -0.3340  0.2393  0.1754
52261W        W95355  10.480   0.644  21.208 -0.1993  0.2110  0.0719
52262W        W95356  13.045   0.502  23.082  0.0251  0.0730  0.0892
52263W        W95357  12.046   1.127  18.555  0.0917  0.1298  0.1919
52264W        W95358  13.165   0.801  21.109  0.2185  0.1406 -0.1114
52265W        W95359  12.178   4.112  20.312 -0.1379 -0.0684  0.3287
52266W        W95360  13.968   3.559  20.771  0.0243  0.0790  0.3172
52267W        W95361  13.840   1.908  21.441 -0.0073 -0.3982 -0.0128
52268W        W95362  11.293  34.397  21.239 -0.1568  0.2023  0.1883
52269W        W95363  12.496   3.372  23.775  0.2914  0.1347 -0.1283
52270W        W95364  11.399   0.559  18.588 -0.0548 -0.2071 -0.1849
52271W        W95365  12.922   2.889  18.640  0.1298  0.0188  0.2081
52272W        W95366  11.996   3.767  22.708  0.0256 -0.0910  0.0547
52273W        W95367  13.096   2.270  23.542  0.1218 -0.0795 -0.1406
52274W        W95368  12.722   0.816  19.146 -0.2079  0.0181  0.0143
52275W        W95369  14.339   1.784  22.358 -0.0127 -0.2917 -0.3171
52276W        W95370   9.908   4.359  21.005  0.0109  0.1598  0.3654
52277W        W95371  12.548   1.394  21.471 -0.0369  0.1862 -0.1705
52278W        W95372  11.522   3.098  22.699 -0.0813 -0.0297  0.0319
52279W        W95373  10.684   2.377  22.651  0.4581  0.0692  0.0521
52280W        W95374  11.707   4.025  20.472 -0.0451  0.1264  0.3047
52281W        W95375  12.968  34.624  23.128  0.2740 -0.2366 -0.2538
52282W        W95376  14.319   0.486  21.891  0.2141 -0.2519 -0.2317
52283W        W95377  11.856   1.857  21.289 -0.2101  0.3624 -0.0286
52284W        W95378  13.169   2.488  22.414  0.0837  0.2391 -0.1530
52285W        W95379  11.733   3.917  24.246 -0.1725  0.0551 -0.0447
52286W        W95380  10.539   2.085  21.204 -0.2175 -0.2538 -0.1764
52287W        W95381  12.831   3.349  21.396 -0.1188  0.2213 -0.2392
52288W        W95382  11.949   2.791  21.343  0.1308 -0.1258  0.0883
52289W        W95383  11.481   3.273  22.105  0.0739  0.0748 -0.0390
52290W        W95384   9.751   1.134  22.664 -0.0695 -0.1577 -0.1521
52291W        W95385  10.464   1.909  22.412 -0.1171 -0.0085  0.1314
52292W        W95386  11.752   2.775  22.424  0.1221  0.0212 -0.0990
52293W        W95387  12.055   0.923  20.206 -0.1596 -0.0836  0.0744
52294W        W95388  12.329   4.894  21.156  0.3310  0.2206  0.0572
52295W        W95389  10.832   3.778  22.988 -0.1951 -0.0576 -0.1359
52296W        W95390  10.373   2.304  21.935  0.1827 -0.1581  0.1758
52297W        W95391  11.234   3.715  20.849 -0.0957 -0.0181 -0.1410
52298W        W95392  13.625   2.202  18.514 -0.2577  0.0719  0.1405
52299W        W95393  13.162   2.203  20.195  0.1712  0.1859  0.0492
52300W        W95394  14.980   4.234  22.476 -0.0815  0.0655 -0.3297
52301W        W95395  13.480   1.024  19.504  0.2330  0.0604 -0.2684
52302W        W95396  10.864   3.094  20.233 -0.0244  0.2752 -0.2256
52303W        W95397  11.231   2.684  20.177 -0.0000  0.2835 -0.1882
52304W        W95398  11.871   2.389  19.651  0.1425  0.0368 -0.0010
52305W        W95399  12.729   4.112  21.468  0.1507 -0.1301  0.4185
52306W        W95400  12.731   3.754  23.591  0.1297  0.1796 -0.4074
52307W        W95401  13.957  34.462  18.615  0.1750  0.1388 -0.1824
52308W        W95402  13.919   1.868  20.053 -0.0001  0.2500 -0.1268
52309W        W95403  12.951  33.182  19.364 -0.0363  0.2270 -0.0489
52310W        W95404  14.430   3.234  23.459  0.2571  0.0294 -0.1637
52311W        W95405  11.852   0.948  23.541 -0.0776  0.0077  0.1447
52312W        W95406  12.678  34.640  19.611  0.2262 -0.0778  0.0812
52313W        W95407  10.728   1.967  24.301 -0.0735 -0.0297  0.1638
52314W        W95408  13.882   0.508  22.229  0.0292  0.0137  0.2280
52315W        W95409  11.372   4.136  24.587 -0.1312 -0.1383  0.2207
52316W        W95410  13.888   3.083  20.617  0.2941 -0.0625  0.2724
52317W        W95411  10.271   1.169  19.838  0.5333  0.2288  0.0626
52318W        W95412  11.649   2.264  21.036 -0.1660 -0.0418  0.0389
52319W        W95413  15.366   0.519  23.131 -0.0324  0.0924 -0.0494
52320W        W95414  12.761   3.038  19.717 -0.1306  0.0400  0.4966
52321W        W95415  12.828   1.772  21.574  0.1035 -0.0385 -0.0086
52322W        W95416  11.958   4.029  21.939  0.0357 -0.2217  0.0345
52323W        W95417  11.126   4.014  21.850 -0.0804  0.1963 -0.0846
52324W        W95418  12.401   2.693  24.215  0.4249 -0.4595  0.0468
52325W        W95419  11.285   0.500  20.187  0.0369 -0.0725 -0.2806
52326W        W95420  13.563   0.640  19.838 -0.1772 -0.2029 -0.3006
52327W        W95421  10.188   1.483  22.655 -0.0291  0.0063 -0.0125
52328W        W95422  14.143   0.970  22.582  0.0116 -0.0007  0.0447
52329W        W95423  11.047   1.825  22.428  0.2914  0.0464 -0.4092
52330W        W95424  13.543   1.092  21.345 -0.0483 -0.0959  0.2211
52331W        W95425  13.034   1.082  22.168 -0.1855  0.1126  0.2451
52332W        W95426   9.377   0.998  22.268  0.0420 -0.0261  0.1350
52333W        W95427  12.411   1.804  21.151 -0.0238 -0.1443  0.1361
52334W        W95428  14.115   2.698  22.906  0.2477  0.0020  0.0967
52335W        W95429  13.516   2.160  21.055 -0.2999  0.4165 -0.0080
52336W        W95430  14.154   3.454  24.809 -0.0114  0.3250 -0.0022
52337W        W95431  11.039   0.893  21.834  0.1558  0.1974 -0.5302
52338W        W95432  12.935   1.666  20.385  0.1276  0.0858  0.3286
52339W        W95433  10.017   0.518  21.081 -0.1998  0.0636  0.3080
52340W        W95434  12.128   2.592  22.224 -0.0256 -0.1302  0.1346
52341W        W95435  13.039   2.764  23.846  0.3182 -0.2586  0.0949
52342W        W95436  11.520   0.646  21.177  0.3551  0.0930 -0.0951
52343W        W95437  13.486   3.155  20.125 -0.1154  0.0289  0.0280
52344W        W95438  12.955   2.215  21.883 -0.1800  0.0985  0.1085
52345W        W95439  12.600   3.285  20.179  0.0162 -0.2458  0.3507
52346W        W95440  14.898   1.784  21.426  0.1559  0.1318  0.2700
52347W        W95441  11.922   4.616  21.134 -0.0323 -0.1346 -0.2970
52348W        W95442  10.859   2.301  22.094  0.0403 -0.0413 -0.4748
52349W        W95443  12.192   2.780  22.635 -0.2020 -0.1754  0.0095
52350W        W95444  14.060   3.901  21.945  0.2109 -0.1139  0.1841
52351W        W95445  12.887   1.056  20.641 -0.0445 -0.4913  0.1550
52352W        W95446  11.606   1.278  21.967 -0.2147  0.0457  0.3764
52353W        W95447  11.099   4.585  21.105 -0.1256 -0.1094 -0.0001
52354W        W95448  13.701   1.559  20.430 -0.0055  0.0624  0.2512
52355W        W95449  13.176   0.829  23.413  0.1605  0.1552  0.0033
52356W        W95450  12.623   4.343  20.119  0.0568  0.1107 -0.1262
52357W        W95451  13.455  34.031  23.619 -0.0070  0.0777  0.1455
52358W        W95452  12.319   2.239  23.032 -0.4216  0.1191 -0.1418
52359W        W95453  11.742   5.057  22.714 -0.2251 -0.2662 -0.0442
52360W        W95454  11.283   3.024  19.312  0.3237 -0.1352 -0.1905
52361W        W95455  12.790   2.097  23.040 -0.1629  0.1004 -0.1068
52362W        W95456   9.887   2.873  20.182 -0.4145  0.0552 -0.0788
52363W        W95457  11.991   2.731  19.947  0.0118  0.0869  0.0132
52364W        W95458  12.917   3.259  20.617  0.1462 -0.2815  0.0858
52365W        W95459  12.659   1.199  21.934  0.1531  0.0107 -0.1429
52366W        W95460  14.418   1.916  20.173  0.1121  0.0076  0.1441
52367W        W95461  11.692   0.299  22.426  0.2268  0.1312  0.2648
52368W        W95462  15.047   1.159  20.232  0.0629  0.3006 -0.2424
52369W        W95463  14.071  34.384  20.449  0.3200  0.0262  0.0073
52370W        W95464  12.836   0.968  22.984 -0.2492 -0.0686  0.2222
52371W        W95465   9.666   2.015  19.185  0.0091 -0.0936 -0.0841
52372W        W95466  12.721   2.613  18.971 -0.4114  0.0853  0.0998
52373W        W95467  11.941   3.178  20.973  0.1183  0.2352 -0.2715
52374W        W95468  11.637  34.662  21.651  0.2546 -0.0572 -0.1770
52375W        W95469  10.204   1.005  22.899  0.0013 -0.3005  0.0485
52376W        W95470  11.122   1.575  21.894  0.2477  0.1775 -0.0525
52377W        W95471  12.025  34.115  20.040  0.1064  0.0393  0.1695
52378W        W95472  14.469   2.737  20.082 -0.2770  0.1140 -0.3624
52379W        W95473  10.243  34.065  22.207  0.2989 -0.2549  0.3633
52380W        W95474  10.997   1.814  21.409  0.0200 -0.1586  0.2099
52381W        W95475  12.487   3.130  22.230 -0.1687  0.1753  0.3272
52382W        W95476  12.653   2.269  21.005  0.2241  0.1228  0.1205
52383W        W95477  12.033   1.247  19.060  0.1845  0.0566  0.5929
52384W        W95478  13.688   2.994  23.731 -0.0975  0.0848  0.1596
52385W        W95479  10.227   2.459  19.940  0.0735  0.1026  0.0427
52386W        W95480  13.037   0.307  23.573  0.0193 -0.2634  0.0393
52387W        W95481  11.991   0.830  24.130 -0.2515 -0.1226  0.1387
52388W        W95482  11.133  33.701  20.560  0.1286 -0.0681 -0.1644
52389W        W95483  11.590   1.673  22.394  0.1315 -0.1988  0.0782
52390W        W95484  12.578   3.909  20.591 -0.0939  0.1289  0.2757
52391W        W95485  12.654   3.240  18.401 -0.0651  0.0389 -0.0368
52392W        W95486  14.040   1.462  23.195 -0.0042  0.1177 -0.2196
52393W        W95487  12.085   3.188  23.474  0.0835  0.0660  0.2140
52394W        W95488  10.983   1.963  22.956 -0.1900  0.0682  0.2984
52395W        W95489  13.273   1.413  21.694 -0.0481  0.1928 -0.1353
52396W        W95490  13.084   1.398  23.645 -0.0092 -0.0206 -0.2630
52397W        W95491  15.466   1.265  19.447 -0.1297 -0.2528  0.2343
52398W        W95492  14.276   1.961  23.133  0.0512  0.1341 -0.0221
52399W        W95493  13.411   1.486  22.283  0.0434  0.1632 -0.1818
52400W        W95494  11.786   0.458  23.781 -0.0509 -0.0002  0.1059
52401W        W95495  11.552   2.037  22.807 -0.0122 -0.2360 -0.1707
52402W        W95496  13.796   3.653  22.291  0.0182 -0.0748 -0.0194
52403W        W95497  11.232   0.869  19.555 -0.1067 -0.3212 -0.0306
52404W        W95498  13.893   2.584  21.055  0.2181 -0.0396 -0.2628
52405W        W95499  13.274   1.639  21.231 -0.1438  0.0327 -0.1129
52406W        W95500  11.159   1.228  22.219  0.2488 -0.4014 -0.1779
52407W        W95501  13.269   2.042  21.532  0.0852 -0.1405 -0.0327
52408W        W95502  11.685   1.083  22.465 -0.0353  0.1169 -0.1524
52409W        W95503  12.136   1.431  20.960 -0.1601  0.1045  0.2859
52410W        W95504  13.764   1.860  23.189 -0.1168 -0.5330  0.1492
52411W        W95505  11.397   1.385  19.680 -0.2010  0.0261 -0.1638
52412W        W95506  14.039   0.825  18.579  0.0431  0.2629 -0.1380
52413W        W95507  14.073   2.893  23.367 -0.1017  0.1130  0.0213
52414W        W95508  13.897   2.459  25.463 -0.1279 -0.2053  0.1453
52415W        W95509  14.278   3.219  21.930  0.0585 -0.4415  0.1173
52416W        W95510  13.656   0.953  22.477 -0.3747 -0.0549 -0.0761
52417W        W95511  10.977  33.259  20.713 -0.0221  0.1567 -0.1825
52418W        W95512  11.683  34.340  20.352 -0.0318  0.3284  0.3353
52419W        W95513  11.913   1.125  19.726  0.2228 -0.0949 -0.2222
52420W        W95514  13.516   0.385  22.583  0.2671 -0.2346 -0.0377
52421W        W95515  10.638   1.221  21.962 -0.1198 -0.4378 -0.2072
52422W        W95516  12.617   0.983  20.247 -0.2017 -0.1467  0.2130
52423W        W95517  11.931   3.162  22.933 -0.0828  0.3481  0.1273
52424W        W95518  12.934   1.667  22.140  0.2684  0.0965  0.0114
52425W        W95519  11.968   3.547  23.820  0.1608 -0.0753  0.1299
52426W        W95520  12.381   1.144  24.136 -0.1186  0.1794 -0.0110
52427W        W95521  13.576   0.461  23.285 -0.1099 -0.2210 -0.0648
52428W        W95522  13.415   0.613  23.836 -0.1992 -0.1627 -0.2954
52429W        W95523  11.504   0.609  23.405  0.2203  0.2056  0.2334
52430W        W95524  12.755   3.860  24.264 -0.1417  0.1243  0.2126
52431W        W95525  10.799  33.921  24.658 -0.2517 -0.0777 -0.3869
52432W        W95526  13.701   3.997  25.200 -0.0519  0.1135 -0.1115
52433W        W95527  14.090   3.043  27.194 -0.1832 -0.0717 -0.3144
52434W        W95528  11.813   1.907  24.133 -0.1376  0.0245 -0.2056
52435W        W95529  12.676   0.752  26.369  0.0086  0.2118  0.1847
52436W        W95530  12.747   4.040  25.927 -0.2093  0.1881 -0.1206
52437W        W95531  11.817   1.346  24.157  0.2577 -0.2565  0.0840
52438W        W95532  10.843  34.353  24.295 -0.2102  0.0190  0.2811
52439W        W95533  13.947   1.315  26.671 -0.3888  0.2343 -0.0937
52440W        W95534  12.542   2.007  24.970  0.1421 -0.2651  0.2215
52441W        W95535  12.500   0.646  24.223 -0.2074 -0.2122 -0.2346
52442W        W95536  12.718   1.128  23.475 -0.0847  0.0009  0.1236
52443W        W95537  13.196   2.366  24.214  0.1010 -0.0128 -0.0189
52444W        W95538  12.740  34.281  26.002  0.2598 -0.0807 -0.1105
52445W        W95539  13.741  33.800  26.196 -0.2027 -0.0099  0.2382
52446W        W95540  13.390   3.001  24.890  0.1764  0.1021 -0.1907
52447W        W95541  10.764   1.351  24.546  0.2786  0.1914  0.0237
52448W        W95542  10.677   0.058  25.820  0.0613 -0.3227 -0.2414
52449W        W95543  11.250   2.652  24.525  0.1377  0.2244  0.2264
52450W        W95544  13.865   0.536  26.283  0.2005  0.0233  0.3310
52451W        W95545  13.905   1.428  26.067 -0.1073 -0.1990 -0.1116
52452W        W95546  12.252   1.673  24.141 -0.0078  0.2682 -0.3107
52453W        W95547  14.037   2.930  25.738 -0.1749 -0.0492  0.4301
52454W        W95548  13.302   2.125  27.957 -0.3719 -0.3037 -0.1277
52455W        W95549  12.180   3.712  25.140  0.3732 -0.0430  0.3750
52456W        W95550  11.209   2.994  24.936 -0.1624  0.0597  0.0562
52457W        W95551  11.871   4.476  22.807 -0.1892  0.0738  0.1713
52458W        W95552  13.808   3.175  25.133  0.1234  0.2392 -0.0651
52459W        W95553  13.230   2.410  27.020  0.4275  0.0418  0.1748
52460W        W95554  11.624   2.877  26.888  0.1565  0.2112 -0.2054
52461W        W95555  10.293   2.774  24.015 -0.0297  0.2061 -0.1503
52462W        W95556  12.135   2.798  26.896 -0.2206  0.1206 -0.2086
52463W        W95557  12.587   3.033  26.543 -0.1393  0.2439 -0.0342
52464W        W95558  13.041   1.570  26.180  0.0228  0.1106 -0.0525
52465W        W95559  11.946   1.853  23.119 -0.0065 -0.0755  0.2455
52466W        W95560  12.566   2.892  23.741 -0.1617 -0.1051  0.1365
52467W        W95561  12.571   1.451  24.497 -0.2015  0.1577  0.0836
52468W        W95562  11.765   2.486  28.468  0.2012  0.2886  0.2168
52469W        W95563  12.372   1.488  26.829 -0.0867  0.2083 -0.0706
52470W        W95564  14.673   0.942  26.993  0.1913  0.0595  0.2432
52471W        W95565  12.014   4.754  24.931 -0.1418  0.0796 -0.0461
52472W        W95566  14.309   0.895  23.911 -0.1216  0.1073 -0.0088
52473W        W95567  12.318   1.703  23.417 -0.0973  0.0983 -0.2190
52474W        W95568  14.483   1.201  23.282 -0.0219 -0.1053  0.1537
52475W        W95569  11.087   0.226  24.971  0.1132 -0.2641  0.1539
52476W        W95570  12.622   3.739  24.741  0.0169  0.2395 -0.1568
52477W        W95571  13.574   0.771  25.508  0.2333 -0.1773 -0.0358
52478W        W95572  13.496   1.129  27.733  0.1434 -0.4957  0.0461
52479W        W95573  12.100   2.395  23.978 -0.1637 -0.1413  0.1263
52480W        W95574  13.405   0.302  27.479 -0.1584  0.1414 -0.0196
52481W        W95575  12.370   3.263  26.125  0.0204 -0.2271  0.1046
52482W        W95576  10.808  34.595  24.757  0.1012 -0.0972  0.0313
52483W        W95577  13.346   4.293  23.804  0.3381  0.1141 -0.1780
52484W        W95578  12.933   3.708  25.635 -0.0580 -0.1008 -0.1483
52485W        W95579  14.398   4.150  23.307  0.0126 -0.1601 -0.3850
52486W        W95580  10.924   2.126  24.723  0.1293  0.0018 -0.1885
52487W        W95581  11.855   1.736  26.391  0.4422  0.4668  0.2375
52488W        W95582  11.394   0.981  28.078 -0.2968  0.0790 -0.0588
52489W        W95583  11.586   1.376  23.706 -0.0056  0.4419  0.1369
52490W        W95584  13.330   2.744  26.277 -0.0593 -0.0775  0.1090
52491W        W95585  11.350   2.272  28.590 -0.0946 -0.0061  0.1839
52492W        W95586  13.453   0.245  24.143  0.2829  0.0040  0.0583
52493W        W95587  13.400   3.444  24.283  0.3590 -0.3127  0.2331
52494W        W95588  14.724   1.797  25.318  0.1640 -0.3003  0.2935
52495W        W95589  12.341   3.330  22.803  0.1958 -0.2143 -0.0232
52496W        W95590  14.047  34.244  26.097 -0.0730  0.1915  0.1808
52497W        W95591  15.284  33.709  24.830  0.1014 -0.1402  0.2104
52498W        W95592  12.086   3.008  21.918  0.0743  0.0294 -0.2017
52499W        W95593  12.083   1.337  23.722  0.3486 -0.0645  0.3401
52500W        W95594  14.042   2.590  26.880  0.2339 -0.0199 -0.0187
52501W        W95595  14.045   1.100  23.551 -0.1332  0.1881  0.0706
52502W        W95596  11.234   3.586  25.685 -0.0841 -0.0840 -0.0688
52503W        W95597  12.579   0.732  26.856  0.0189  0.2009 -0.2201
52504W        W95598  12.855   1.926  25.941  0.2971 -0.3457  0.2841
52505W        W95599  12.944   2.775  23.374 -0.2298 -0.1127  0.0253
52506W        W95600  10.759   0.559  26.440 -0.3279 -0.1121 -0.0750
52507W        W95601  12.120   3.055  24.044  0.3064  0.2314  0.0536
52508W        W95602  11.606   0.228  24.203 -0.0013 -0.1892 -0.0756
52509W        W95603  12.681   3.256  25.762  0.1495 -0.0606 -0.1486
52510W        W95604  11.918  34.148  23.618 -0.1292 -0.0939 -0.2703
52511W        W95605  12.485  34.546  27.048 -0.1676 -0.0777 -0.3442
52512W        W95606  14.851   0.630  25.388  0.2566  0.0423 -0.0905
52513W        W95607  12.779   2.516  25.046  0.5277  0.2734 -0.1258
52514W        W95608  14.294   3.204  25.230  0.1539  0.0186  0.1753
52515W        W95609  14.704   1.058  25.125 -0.0060 -0.0630 -0.2175
52516W        W95610  12.916   3.283  23.488  0.2534  0.2390  0.1678
52517W        W95611  11.811   1.508  26.799  0.1545 -0.1259 -0.1483
52518W        W95612  11.836   2.453  25.413 -0.1958  0.1837 -0.1010
52519W        W95613  12.824   0.317  27.200  0.0342 -0.1630 -0.0007
52520W        W95614  11.720   0.900  25.907  0.3030 -0.0882  0.0463
52521W        W95615  14.258   1.875  27.962  0.1708  0.1023  0.1506
52522W        W95616  10.913   1.598  23.496  0.3329  0.0024  0.0781
52523W        W95617  13.886   1.741  23.958 -0.1415 -0.1766 -0.0889
52524W        W95618  13.956   1.782  25.134  0.0934  0.0345  0.0645
52525W        W95619  10.793   2.485  24.351 -0.1226  0.1389 -0.1246
52526W        W95620  15.075   0.305  25.828  0.1610  0.3068 -0.0810
52527W        W95621  13.002   4.654  23.996  0.5142 -0.1520  0.0118
52528W        W95622  12.521   2.750  26.023  0.0645 -0.1173 -0.1107
52529W        W95623  13.606   3.201  25.614 -0.0879 -0.1358 -0.1258
52530W        W95624  12.114   0.906  26.726 -0.3282  0.0087  0.2592
52531W        W95625  10.792   1.504  24.017 -0.0651 -0.2580 -0.0990
52532W        W95626  11.630   2.036  24.601 -0.0653 -0.2861  0.0211
52533W        W95627  13.109   1.477  25.688  0.0808  0.1492  0.1504
52534W        W95628  11.149   1.488  25.896  0.0472 -0.1509  0.0836
52535W        W95629  13.192   5.462  24.942  0.0678 -0.1979  0.1779
52536W        W95630  13.229   1.770  23.205 -0.0493 -0.1826 -0.0951
52537W        W95631  11.985   2.315  24.945  0.0910 -0.1316  0.2688
52538W        W95632  14.346  34.169  25.088  0.0252  0.2229 -0.2875
52539W        W95633  15.129   1.279  25.967 -0.0962  0.0302  0.0901
52540W        W95634  13.372   0.636  26.147 -0.0941  0.0924  0.1145
52541W        W95635  11.480   1.648  23.184  0.3112 -0.1424  0.1461
52542W        W95636  12.757   4.624  25.216 -0.1143 -0.0613  0.0605
52543W        W95637  11.164   2.594  24.000 -0.2313 -0.1183  0.0462
52544W        W95638  10.840   1.731  25.227 -0.0593 -0.1116  0.0558
52545W        W95639  12.291   4.105  24.490  0.1292 -0.0342 -0.3263
52546W        W95640  13.937   0.978  25.890  0.2164  0.0462  0.2147
52547W        W95641  10.717   1.853  28.000 -0.0486  0.1363 -0.2629
52548W        W95642  12.894   0.168  25.615  0.1636 -0.0305 -0.2076
52549W        W95643  11.269   1.215  24.319  0.1282 -0.1069 -0.4044
52550W        W95644  13.370   1.483  27.287  0.1849 -0.1234 -0.1762
52551W        W95645  13.029   0.042  23.974 -0.0878  0.0078  0.0607
52552W        W95646  14.011   0.556  23.575  0.2404  0.0275 -0.2352
52553W        W95647  12.930   3.022  26.178 -0.0703 -0.0159 -0.0932
52554W        W95648  13.843   0.266  24.476 -0.2786 -0.1748  0.1091
52555W        W95649  12.698   0.653  23.387 -0.0719  0.1992  0.2894
52556W        W95650  12.557   0.236  23.134 -0.1966  0.0033  0.0381
52557W        W95651  11.174   2.759  27.667 -0.2100  0.2074 -0.3270
52558W        W95652  12.700   2.409  23.913 -0.0814  0.3058  0.0304
52559W        W95653  13.585   2.748  25.257 -0.1080  0.2885  0.2160
52560W        W95654  12.192   0.654  23.197 -0.2776  0.4871  0.0791
52561W        W95655  13.884   3.304  24.080  0.2088  0.0824  0.1049
52562W        W95656  11.778   2.672  25.960 -0.0550 -0.0546  0.2960
52563W        W95657  13.798   1.973  25.539  0.0716 -0.3018 -0.0898
52564W        W95658  14.243   0.961  24.988  0.2970  0.0389  0.1353
52565W        W95659  12.406   0.194  24.576  0.1229  0.0735  0.0521
52566W        W95660  11.237   1.641  23.972 -0.0035  0.0906  0.0670
52567W        W95661  13.407  34.099  25.258 -0.0495  0.1040 -0.2020
52568W        W95662  11.721   2.784  23.643  0.4387  0.1433 -0.1817
52569W        W95663  14.501  34.066  25.594  0.1360 -0.1828  0.1187
52570W        W95664  13.303  34.543  25.527  0.0461  0.0475  0.2221
52571W        W95665  12.864   0.229  26.121 -0.1068 -0.0005  0.0522
52572W        W95666  15.379   1.320  26.524  0.4266 -0.2026  0.0368
52573W        W95667  13.593   1.627  23.569 -0.1073 -0.0864 -0.2354
52574W        W95668  12.693   2.855  25.493 -0.2914 -0.3835 -0.3100
52575W        W95669  11.220   1.727  24.520  0.1875 -0.3261 -0.1772
52576W        W95670  13.387   0.264  26.503 -0.1108 -0.1902  0.0007
52577W        W95671  12.340   2.319  27.833 -0.0777 -0.0406 -0.1567
52578W        W95672  12.372   3.684  25.743 -0.1633 -0.0516  0.2761
52579W        W95673  13.188   2.125  26.316 -0.1367  0.1208  0.1571
52580W        W95674  13.126   1.495  24.170 -0.0737 -0.0132  0.0192
52581W        W95675  13.042  34.084  25.590  0.1151  0.3205 -0.0260
52582W        W95676  12.970   0.555  24.213  0.2158  0.1524 -0.0631
52583W        W95677  12.449   4.571  22.807  0.0242  0.1639  0.1095
52584W        W95678  11.567   2.256  23.281  0.0868  0.0764 -0.0091
52585W        W95679  12.249  34.570  23.812 -0.1901 -0.0992  0.0052
52586W        W95680  13.013   1.416  24.694 -0.1504  0.0127 -0.3629
52587W        W95681  12.755   4.189  23.166  0.0208  0.0623 -0.1360
52588W        W95682  13.469   1.692  25.916  0.2685 -0.1568 -0.1028
52589W        W95683  12.163   2.664  23.584 -0.2719  0.0604  0.0581
52590W        W95684  15.513  34.320  25.010  0.4981 -0.2043 -0.3502
52591W        W95685  11.716   2.725  24.911 -0.0361  0.2774 -0.2016
52592W        W95686  11.161   1.164  23.637  0.1481  0.2379  0.3907
52593W        W95687  11.685   1.556  24.558  0.1432 -0.0410 -0.2742
52594W        W95688  14.701  34.436  25.358 -0.3069 -0.1425 -0.0119
52595W        W95689  12.080   2.186  23.483  0.0981  0.4010 -0.0337
52596W        W95690  12.352   1.117  27.197 -0.1244  0.1706 -0.0264
52597W        W95691  14.026   0.092  26.165  0.2697  0.0428  0.0183
52598W        W95692  11.451   4.037  25.501  0.0313 -0.0203 -0.1869
52599W        W95693  13.213   3.410  25.892  0.0317  0.4470  0.1272
52600W        W95694  15.050  32.849  24.014 -0.3787  0.0514  0.0911
52601W        W95695  13.068   2.532  25.923  0.0446 -0.4693  0.1362
52602W        W95696  13.080   0.719  27.108  0.1971  0.0286  0.0507
52603W        W95697   9.007   0.865  21.880 -0.0399  0.0721  0.0805
52604W        W95698  13.714   1.710  26.837  0.4658  0.2084 -0.0668
52605W        W95699  13.043   0.642  25.709  0.0899  0.2161  0.2283
52606W        W95700  12.111   1.808  24.703  0.2287  0.1307 -0.0919
52607W        W95701  12.147   4.601  25.388 -0.0249 -0.1294  0.2607
52608W        W95702  12.776   1.926  25.390  0.0886 -0.1723  0.2391
52609W        W95703  11.185   5.951  25.923  0.2461  0.0728 -0.0387
52610W        W95704  11.241   0.958  25.664 -0.0324 -0.0793 -0.3066
52611W        W95705  15.454   2.081  26.443 -0.0234 -0.2046  0.0356
52612W        W95706  11.264   0.769  25.230 -0.0417  0.1245 -0.1485
52613W        W95707  12.432   1.611  22.934  0.0785  0.3947 -0.0914
52614W        W95708  12.700   1.212  26.542 -0.3955 -0.0815 -0.0283
52615W        W95709  15.627   2.406  26.075  0.0908  0.2101 -0.1065
52616W        W95710  13.093   0.652  27.684  0.0356 -0.2341  0.2735
52617W        W95711  11.006   4.178  27.321 -0.1586 -0.0656 -0.4410
52618W        W95712  11.410   0.471  25.649 -0.2418 -0.2644 -0.1560
52619W        W95713  14.520   3.113  24.844  0.0341 -0.1894  0.0022
52620W        W95714  13.857   1.925  26.422 -0.1205  0.1605 -0.0637
52621W        W95715  12.531   1.585  26.221  0.3334 -0.1171  0.0446
52622W        W95716  11.575   0.947  27.600 -0.1127 -0.0975 -0.1126
52623W        W95717  12.752   3.073  24.210  0.1035 -0.0591  0.0515
52624W        W95718  12.972   0.487  26.708  0.3375 -0.2663  0.1173
52625W        W95719  12.316   2.340  25.355 -0.1871  0.2121 -0.2214
52626W        W95720  12.419   2.504  24.693  0.0095 -0.0294 -0.1431
52627W        W95721  11.080   0.782  26.090 -0.0120 -0.0459 -0.0883
52628W        W95722  14.243  32.748  24.455 -0.4546 -0.0466  0.2159
52629W        W95723  12.450   2.862  23.253 -0.1859  0.1994  0.1022
52630W        W95724  12.720   0.594  24.700  0.1864 -0.1970 -0.0527
52631W        W95725  13.902   1.360  25.529  0.3027 -0.3045  0.2341
52632W        W95726  12.926   3.454  24.014 -0.0397 -0.0361  0.0249
52633W        W95727  13.578   0.542  28.355  0.0607  0.0454 -0.1430
52634W        W95728  12.421   0.218  26.307 -0.1672 -0.0852  0.1047
52635W        W95729  14.037   1.400  24.816 -0.3875  0.2478 -0.0015
52636W        W95730  11.850   0.189  26.120 -0.1934 -0.4081  0.1536
52637W        W95731  13.128   1.444  26.725 -0.3278 -0.2051  0.1449
52638W        W95732  12.095   0.868  27.629 -0.1155 -0.0424 -0.1379
52639W        W95733  11.983   0.101  22.982 -0.2614 -0.1371  0.2580
52640W        W95734  11.644   0.926  24.487  0.0641 -0.0756  0.0983
52641W        W95735  12.494   1.441  25.731 -0.0819  0.1480 -0.0496
52642W        W95736  14.200   2.346  26.455  0.0232  0.0795 -0.3037
52643W        W95737  12.263   3.887  23.988 -0.1475 -0.2998  0.0867
52644W        W95738  14.191   0.575  24.692  0.1792 -0.0348 -0.0435
52645W        W95739  11.780   2.175  26.120  0.2900 -0.0871  0.3139
52646W        W95740  14.512   0.546  25.075  0.0766 -0.0934  0.1416
52647W        W95741  11.714   1.654  25.100  0.2174  0.2324 -0.2833
52648W        W95742  12.783   2.226  26.845 -0.1387 -0.1603 -0.1737
52649W        W95743  13.541   0.749  27.420  0.1992  0.0360  0.3120
52650W        W95744  14.366   0.903  25.521  0.1767 -0.0069  0.0898
52651W        W95745  13.670   1.954  24.741  0.3916  0.0479 -0.1616
52652W        W95746  13.982   1.002  28.395 -0.0404 -0.0030  0.0731
52653W        W95747  13.712   2.186  27.106 -0.1097 -0.1082 -0.0978
52654W        W95748  11.901   1.246  27.256 -0.3712  0.2539 -0.3113
52655W        W95749  12.034  33.559  26.846 -0.0838 -0.0355 -0.0682
52656W        W95750  13.206   2.567  24.697  0.2040 -0.1974 -0.3524
52657W        W95751  14.690   1.683  23.277  0.0941  0.1994  0.1585
52658W        W95752  15.732   0.927  26.633  0.0223 -0.2005  0.0188
52659W        W95753  15.164   2.510  25.042  0.2174  0.1886  0.1029
52660W        W95754  13.919   1.259  24.114  0.0605 -0.2674 -0.0996
52661W        W95755  12.751   1.809  26.633  0.1860 -0.2121 -0.0888
52662W        W95756  14.064   0.679  26.749 -0.2179 -0.4316  0.0054
52663W        W95757  11.010   2.497  23.010  0.2035 -0.2208  0.2243
52664W        W95758  13.986   0.522  27.562  0.2306 -0.0620  0.1376
52665W        W95759  11.741   5.063  24.605 -0.0570  0.1211  0.0369
52666W        W95760  14.346   1.375  25.780  0.1494  0.2132  0.1377
52667W        W95761  12.990   0.267  24.986 -0.0043  0.1923 -0.1961
52668W        W95762  12.035   1.439  25.486 -0.0989  0.5059  0.2499
52669W        W95763  12.303   1.970  26.401  0.0123 -0.3827 -0.0313
52670W        W95764  11.120   0.255  23.341  0.3156 -0.0498  0.2110
52671W        W95765  11.032   2.115  23.887 -0.0434 -0.3394  0.0498
52672W        W95766  13.031   2.078  24.987 -0.2212 -0.0185 -0.3520
52673W        W95767  15.399   2.505  27.165 -0.0227  0.3159  0.1107
52674W        W95768  12.707  33.591  23.886  0.0401 -0.1614  0.2848
52675W        W95769  13.943   0.501  25.780  0.0521  0.4002 -0.0392
52676W        W95770  11.453   4.323  23.455 -0.2894  0.1305 -0.2676
52677W        W95771  15.100   1.735  26.358  0.0232  0.3380 -0.3007
52678W        W95772  11.524   2.015  26.581  0.2760  0.2143  0.2085
52679W        W95773  11.679   3.030  26.341  0.1640 -0.2431 -0.0435
52680W        W95774  12.673   2.587  22.816  0.1754  0.1727 -0.4010
52681W        W95775  14.888  33.353  26.546 -0.3665  0.0946 -0.1753
52682W        W95776  13.270   1.215  25.289  0.2518  0.0108  0.1167
52683W        W95777  12.728   4.314  26.719  0.1053  0.1738  0.0172
52684W        W95778  14.791   2.795  25.307  0.1449 -0.1916 -0.0815
52685W        W95779  12.099   2.783  27.771  0.1535 -0.2073  0.2440
52686W        W95780  12.016   1.559  25.985  0.1032 -0.3703 -0.0172
52687W        W95781  12.947   2.636  26.586 -0.0487  0.0829  0.1862
52688W        W95782  13.638   1.566  24.348  0.0067  0.1929  0.0199
52689W        W95783  13.343   1.701  25.122  0.0070  0.2666 -0.1452
52690W        W95784  11.382   1.586  26.521  0.0563 -0.2264  0.0807
52691W        W95785  12.934   1.793  27.669 -0.0851  0.2907 -0.3638
52692W        W95786  12.720   2.386  25.652 -0.0984 -0.1460 -0.1758
52693W        W95787  12.761  34.388  24.625  0.0789  0.0405  0.0468
52694W        W95788  12.970   3.400  24.519  0.2146 -0.0142 -0.3063
52695W        W95789  12.212   2.726  25.659  0.2391  0.4125  0.2375
52696W        W95790  12.142   1.291  26.429 -0.4190  0.2397 -0.0973
52697W        W95791  11.459   4.330  24.028  0.3010 -0.2084 -0.2852
52698W        W95792  14.326   2.029  25.493  0.0101 -0.4909  0.0572
52699W        W95793  13.542   2.204  25.188 -0.2611 -0.2429  0.0794
52700W        W95794  12.929   4.448  25.714 -0.1655 -0.2450  0.1522
52701W        W95795  10.998   0.921  24.758  0.1068  0.1681  0.2504
52702W        W95796  11.460   3.644  24.728 -0.0723  0.0255  0.4266
52703W        W95797  11.038   3.468  23.828 -0.0592  0.0768  0.1317
52704W        W95798  12.849   4.151  23.864 -0.2574 -0.1497  0.0998
52705W        W95799  12.394   3.457  24.305  0.2310  0.0548  0.2389
52706W        W95800  13.466   2.766  26.768 -0.2101  0.1206 -0.2837
52707W        W95801  13.541  34.449  23.938  0.0522 -0.3932 -0.3062
52708W        W95802  14.165   1.874  27.364  0.0623 -0.0661 -0.1825
52709W        W95803  13.469   0.023  22.991  0.0293  0.2437  0.0283
52710W        W95804  12.923   1.627  28.820  0.0250  0.1653 -0.0765
52711W        W95805  12.315   0.961  25.358  0.1242  0.0578  0.0760
52712W        W95806  11.183   2.486  23.502 -0.1176  0.0615 -0.1412
52713W        W95807  12.903   1.052  26.007  0.0518 -0.0879 -0.2005
52714W        W95808  14.832   0.290  27.454 -0.1785 -0.0588  0.1198
52715W        W95809  12.573   3.206  24.812 -0.2657 -0.0829  0.2352
52716W        W95810  13.257   2.973  24.351  0.1437  0.6473  0.1075
52717W        W95811  10.775   2.601  24.838 -0.0043  0.2097  0.0100
52718W        W95812  12.380   1.498  25.034  0.0359 -0.1675  0.0177
52719W        W95813  15.672  33.759  26.275  0.1077 -0.1197  0.0795
52720W        W95814  12.827   1.967  24.151 -0.2271 -0.1604 -0.1516
52721W        W95815  12.781   1.111  25.499  0.0128 -0.1193 -0.0850
52722W        W95816  12.242   4.223  25.064 -0.1224 -0.0402 -0.2590
52723W        W95817  12.784   4.137  25.080 -0.0394 -0.1855  0.0902
52724W        W95818  12.499   4.268  25.545 -0.3620  0.1209 -0.0123
52725W        W95819  11.661   1.168  24.871 -0.1084  0.1620  0.0088
52726W        W95820  15.017  34.330  24.947  0.0136 -0.0474  0.2054
52727W        W95821  11.655   1.270  26.210 -0.4885 -0.2272  0.1611
52728W        W95822  17.068   0.705  25.939 -0.1925  0.0658  0.2706
52729W        W95823  12.458   1.974  23.826  0.0969 -0.0549 -0.0769
52730W        W95824  14.254   0.371  24.043 -0.0489  0.0699  0.1377
52731W        W95825  13.250   2.091  25.673  0.0583  0.1297 -0.1575
52732W        W95826  13.456   1.117  25.943 -0.0857  0.0667 -0.1345
52733W        W95827  11.787   2.514  24.369 -0.0760 -0.3421  0.1990
52734W        W95828  12.688   2.296  26.183 -0.1132  0.0444 -0.1581
52735W        W95829  14.469   0.750  23.436  0.2820 -0.0926 -0.0754
52736W        W95830  12.885   2.115  27.315 -0.0352  0.1223  0.1885
52737W        W95831  10.900   0.490  25.663  0.1611  0.0910  0.0318
52738W        W95832  13.532   1.139  23.714 -0.0386 -0.1825 -0.0095
52739W        W95833  12.109   1.913  25.233  0.0505 -0.0305  0.1034
52740W        W95834  13.512   1.502  26.404 -0.2210  0.0347 -0.2122
52741W        W95835  13.093   2.895  27.894  0.2072 -0.1024  0.0194
52742W        W95836  12.300   0.546  25.052  0.2073  0.2244 -0.3015
52743W        W95837  12.407   2.167  24.316 -0.3635 -0.1417 -0.0725
52744W        W95838  13.666   1.019  26.388  0.0726  0.5068  0.2299
52745W        W95839  12.546   4.976  24.907  0.1984 -0.0410  0.2445
52746W        W95840  13.524   2.703  25.806 -0.3059 -0.0002 -0.0898
52747W        W95841  14.645   1.615  26.122  0.1507 -0.2543  0.1653
52748W        W95842  11.128   0.293  26.062 -0.1450 -0.1286 -0.1970
52749W        W95843  12.976   3.885  27.007 -0.0467  0.1097 -0.0917
52750W        W95844  14.579   2.375  26.785  0.0148  0.2032 -0.2717
52751W        W95845  14.056  34.189  23.502 -0.0583  0.2490  0.0807
52752W        W95846  11.480   0.638  26.351 -0.0831 -0.0925 -0.2266
52753W        W95847  11.818   3.034  25.474  0.0078  0.0798 -0.0635
52754W        W95848  15.009   0.745  24.950 -0.0123 -0.2437 -0.2630
52755W        W95849  14.158   0.011  25.333 -0.0233 -0.2211  0.0096
52756W        W95850  14.157   3.673  23.309  0.2242 -0.2346 -0.0948
52757W        W95851  14.904   1.785  27.597 -0.0864 -0.1681 -0.1422
52758W        W95852  12.390   2.827  25.080 -0.2990  0.0153 -0.3406
52759W        W95853  11.244   2.874  27.171  0.0520  0.0688  0.1125
52760W        W95854  11.643   3.755  23.447 -0.2070  0.1646  0.2727
52761W        W95855  11.869   2.151  26.918  0.2020  0.1258 -0.0360
52762W        W95856  14.057   1.869  24.413 -0.0122  0.1272  0.1281
52763W        W95857  14.213   3.864  25.751 -0.1401 -0.5549 -0.0273
52764W        W95858  15.032   3.263  25.687  0.1659  0.3950 -0.1276
52765W        W95859  12.581   1.463  23.830  0.1833 -0.0879 -0.1331
52766W        W95860  14.371   2.785  26.063  0.0878 -0.3277 -0.4691
52767W        W95861  12.249   0.747  24.590 -0.0250 -0.0713 -0.0222
52768W        W95862  13.475   1.299  24.835 -0.1440 -0.0611  0.0526
52769W        W95863  13.173   1.959  24.537  0.1312 -0.1795 -0.1461
52770W        W95864  12.848   1.507  25.159  0.0791 -0.0774 -0.1747
52771W        W95865  10.852   3.016  24.141 -0.0365 -0.0907  0.2495
52772W        W95866  10.483   1.345  23.232  0.3256  0.1670 -0.1497
52773W        W95867  11.328   1.751  25.499  0.0459 -0.1120  0.0856
52774W        W95868  13.550   1.266  28.214 -0.0798  0.0745  0.1049
52775W        W95869  11.121   1.763  27.575 -0.1826  0.1119  0.4147
52776W        W95870  11.131   1.210  26.321  0.1687 -0.3918  0.0303
52777W        W95871  13.001   1.019  24.437  0.3139 -0.3147  0.0803
52778W        W95872  14.095   2.336  23.337 -0.1496 -0.2888  0.0891
52779W        W95873  11.413   0.561  24.712  0.2733 -0.1327 -0.0495
52780W        W95874  10.751   0.684  25.208  0.3081  0.0438  0.1363
52781W        W95875  14.719   2.509  26.355 -0.1518 -0.1723 -0.0884
52782W        W95876  13.765   2.792  24.192 -0.0752 -0.2920  0.0904
52783W        W95877  12.097  33.802  24.417  0.2716 -0.0628  0.2156
52784W        W95878  14.215   2.341  27.242 -0.1991  0.0389  0.2193
52785W        W95879  10.546   3.069  25.564  0.0120  0.4087  0.2529
52786W        W95880  13.406   0.277  28.905 -0.1381 -0.2028  0.0264
52787W        W95881  12.656  34.291  27.685 -0.0498  0.1408 -0.2561
52788W        W95882  10.880   0.400  24.580  0.1203 -0.2350 -0.1043
52789W        W95883  13.798   1.082  25.143  0.1331  0.1224  0.0344
52790W        W95884  12.817   4.765  24.433  0.1597 -0.0457 -0.0812
52791W        W95885  13.905   3.871  24.776  0.0123  0.4393  0.3925
52792W        W95886  13.154   3.015  25.603 -0.2129  0.0203 -0.4038
52793W        W95887  12.668   4.239  27.215  0.0980  0.2837 -0.1188
52794W        W95888  10.370  33.624  27.284  0.4021  0.3045  0.1048
52795W        W95889  12.716   3.544  22.555 -0.2826 -0.0763  0.2166
52796W        W95890  11.796   1.875  25.594  0.1579  0.1149 -0.1224
52797W        W95891  14.175   2.382  24.335  0.0881 -0.0099  0.0421
52798W        W95892  15.531   1.614  26.033  0.1396 -0.1825  0.1003
52799W        W95893  13.392   0.591  24.463  0.1823 -0.3690 -0.1372
52800W        W95894  11.974   0.491  25.575 -0.0187 -0.1704 -0.0800
52801W        W95895  12.703   1.582  27.208 -0.4069  0.2543  0.1541
52802W        W95896  12.811   2.296  24.584 -0.4533  0.0474  0.0476
52803W        W95897  11.594   1.022  26.728 -0.1442  0.2754  0.0678
52804W        W95898  15.602   2.369  25.364 -0.0537 -0.2507  0.2683
52805W        W95899  13.719   2.586  24.735 -0.0286  0.0079 -0.0771
52806W        W95900  10.877   2.735  25.386 -0.0173  0.0995  0.2229
52807W        W95901  11.789   1.859  23.622  0.4975  0.1370 -0.4516
52808W        W95902  13.486   0.668  26.754 -0.0040  0.3080 -0.3182
52809W        W95903  14.181   3.604  23.882 -0.0012  0.1006  0.0390
52810W        W95904  13.516   1.114  26.995  0.1634  0.2684 -0.0128
52811W        W95905  12.085   1.225  24.606 -0.0352 -0.1285  0.0915
52812W        W95906  14.386   1.838  24.931 -0.0008 -0.0362 -0.0533
52813W        W95907  12.947   3.368  28.078 -0.4141  0.0378 -0.4495
52814W        W95908  13.945   2.415  27.798  0.0402  0.0543 -0.0391
52815W        W95909  11.949   4.065  27.145  0.1112  0.2515  0.2284
52816W        W95910  13.887   2.802  26.278  0.0342  0.0868 -0.1198
52817W        W95911   9.740  34.201  24.896  0.2125  0.0401  0.1043
52818W        W95912  11.283   1.876  24.975  0.1952  0.0148  0.3147
52819W        W95913  12.685   1.061  24.915 -0.1119 -0.0190 -0.3028
52820W        W95914  14.672   1.018  25.986  0.0789 -0.1315  0.1186
52821W        W95915  13.486   1.080  24.256  0.0388 -0.1150 -0.0224
52822W        W95916  13.247  34.467  24.355  0.0862 -0.0407 -0.4057
52823W        W95917  12.014   4.063  25.476 -0.1844  0.2636 -0.2463
52824W        W95918  13.157   2.530  25.423  0.2767  0.0381  0.1538
52825W        W95919  13.047   1.090  29.931 -0.2341 -0.1886 -0.0150
52826W        W95920  12.643  34.066  27.204  0.0492  0.1780  0.1840
52827W        W95921  15.147  34.244  26.557 -0.1127  0.2502 -0.0184
52828W        W95922  14.773   2.213  28.533  0.1357 -0.2730 -0.1976
52829W        W95923  10.650   1.505  27.594 -0.0384 -0.1022  0.4364
52830W        W95924  12.681   2.243  28.234  0.0601 -0.3647 -0.2731
52831W        W95925  11.705   1.754  29.974  0.1734  0.2553  0.1431
52832W        W95926  14.391   2.700  27.660 -0.1549 -0.1747  0.0049
52833W        W95927  14.724   2.944  29.519 -0.1255 -0.1025  0.0109
52834W        W95928  14.924   1.728  28.592  0.3402  0.0172 -0.2719
52835W        W95929  12.462   0.124  30.000  0.0922  0.1420 -0.0527
52836W        W95930  12.289   1.424  28.857  0.1518 -0.1326 -0.0183
52837W        W95931  13.839   0.131  28.613 -0.3583 -0.1724 -0.0306
52838W        W95932  10.028   0.586  29.027  0.0301 -0.4127 -0.2746
52839W        W95933  13.378   1.985  29.936 -0.2891 -0.1474 -0.0155
52840W        W95934  11.394   1.884  26.074  0.0035  0.0818 -0.1111
52841W        W95935  13.138   0.466  31.236  0.3888  0.0606  0.0799
52842W        W95936  11.173  34.567  28.456 -0.0501 -0.2730  0.0541
52843W        W95937  12.599   2.106  29.003 -0.1410  0.1626 -0.2617
52844W        W95938  14.132   0.378  30.198  0.1555 -0.3064  0.2534
52845W        W95939  13.785  34.168  31.845  0.1885 -0.2942  0.2105
52846W        W95940  12.547   1.715  28.013  0.0122 -0.1251  0.0453
52847W        W95941  11.565   0.359  27.350  0.2524 -0.2359 -0.0141
52848W        W95942  10.553   1.348  28.099 -0.0845 -0.2259 -0.3636
52849W        W95943  11.908   0.385  28.870  0.0312 -0.3212 -0.2279
52850W        W95944  13.549   0.947  28.662 -0.1341  0.0805 -0.2979
52851W        W95945  15.286   1.099  28.243  0.0233  0.0694 -0.1070
52852W        W95946  12.150   2.308  28.671  0.2795 -0.4968  0.2417
52853W        W95947  11.560   2.126  29.477  0.0749  0.0989 -0.0176
52854W        W95948  14.691   0.793  29.651  0.0566 -0.2212 -0.0221
52855W        W95949  11.648   2.855  27.460 -0.0429 -0.1198 -0.4411
52856W        W95950   9.665   2.894  28.147  0.1753  0.0178 -0.1697
52857W        W95951  11.602   1.814  27.960 -0.0326 -0.1256  0.0452
52858W        W95952  15.744   2.105  28.872 -0.0719 -0.3616 -0.1064
52859W        W95953  13.570   4.695  30.452  0.4574  0.1232 -0.0219
52860W        W95954  11.594   2.869  30.895  0.2077  0.0279 -0.1887
52861W        W95955  11.537   1.080  28.701  0.1620  0.1759 -0.2318
52862W        W95956  13.925   3.212  30.487  0.2630  0.1855  0.3747
52863W        W95957  11.647   2.069   0.976  0.3759  0.0624 -0.2595
52864W        W95958  12.990   2.116  29.470  0.0369 -0.4380  0.1925
52865W        W95959  13.494   0.581  29.845 -0.0417  0.1220  0.2339
52866W        W95960  11.729   1.512  28.912  0.0205  0.4752  0.1931
52867W        W95961  12.984   2.121  28.640  0.0930 -0.0524 -0.1672
52868W        W95962  12.587   2.430  31.426  0.0484  0.0311 -0.3159
52869W        W95963  12.087   2.930  29.155 -0.1717 -0.0348 -0.1201
52870W        W95964  16.123   0.185  30.230  0.1397  0.0220  0.0836
52871W        W95965  12.230   2.318  25.979 -0.0558  0.1030 -0.1816
52872W        W95966  13.808   1.937  27.715 -0.1361 -0.1993 -0.1934
52873W        W95967  13.394   0.232  25.862 -0.3347 -0.1410 -0.2640
52874W        W95968  14.352   1.385  28.297  0.0581 -0.0317 -0.1050
52875W        W95969  13.456   0.936  30.271  0.0868  0.1310 -0.0387
52876W        W95970  12.548   3.859  31.158  0.1129  0.1323 -0.0307
52877W        W95971  15.115   0.579  29.041  0.0904  0.1388 -0.1854
52878W        W95972  14.993   3.353   0.075 -0.1366  0.1505 -0.0276
52879W        W95973  13.256   1.670  29.414 -0.1883  0.0674  0.2542
52880W        W95974  14.005   0.686  29.818 -0.0235  0.3779  0.0066
52881W        W95975  11.385   0.257  28.808 -0.0834  0.1047  0.4346
52882W        W95976  11.117   1.503  27.998  0.0456 -0.1179  0.1378
52883W        W95977  14.701   3.636  28.228  0.0889  0.2169  0.4689
52884W        W95978  14.133   1.856  28.788  0.2326 -0.3161  0.0472
52885W        W95979  12.623   2.523  28.682 -0.0896  0.3982 -0.0817
52886W        W95980  10.692   2.703  27.948 -0.3301  0.6100 -0.1540
52887W        W95981  11.736   1.605  29.506 -0.0667 -0.0147 -0.0353
52888W        W95982  10.785   0.890  28.164  0.0907  0.0099 -0.0745
52889W        W95983  13.091   0.565  28.628  0.0485 -0.2730  0.1955
52890W        W95984  15.378   3.059   0.121  0.2529  0.2031 -0.0381
52891W        W95985  10.770   3.486  31.841  0.2490  0.0403  0.3296
52892W        W95986  15.265  34.646  29.481  0.1888  0.1247 -0.0473
52893W        W95987  13.988   0.865  30.294 -0.0649 -0.1398  0.1592
52894W        W95988  13.393   3.245  30.788 -0.1541 -0.1786  0.0780
52895W        W95989  14.412   2.422  28.075 -0.0468  0.0386  0.0261
52896W        W95990  13.913   1.443  27.908  0.3613  0.3373 -0.0488
52897W        W95991  13.977  34.446  29.504 -0.0452  0.2159  0.2109
52898W        W95992  12.144   1.661  27.239  0.1204 -0.0019  0.0155
52899W        W95993  13.775   0.414  27.131  0.2106 -0.1751 -0.0792
52900W        W95994  14.287   2.588  29.936 -0.0945 -0.1098 -0.3003
52901W        W95995  14.474   2.733  27.165 -0.1589 -0.2551  0.0288
52902W        W95996  10.501   2.365  29.487  0.0368 -0.0065 -0.2416
52903W        W95997  13.418   1.764  30.420  0.0141  0.0372  0.2991
52904W        W95998  12.531   2.789  29.848 -0.0793 -0.3995 -0.2979
52905W        W95999  12.076   4.880  26.816  0.2150 -0.0557 -0.1102
52906W        W96000  11.544   1.419  28.288 -0.0018 -0.2053  0.0388
52907W        W96001  11.834   2.302  27.981  0.3563 -0.1211  0.0851
52908W        W96002  10.639   0.567  29.143 -0.1302  0.0846 -0.3103
52909W        W96003  11.681   1.275  31.039  0.2671  0.0668 -0.3109
52910W        W96004  14.446  34.097  29.172  0.2753  0.2178  0.0818
52911W        W96005  11.183  34.643  29.712 -0.2006  0.3343  0.3369
52912W        W96006  14.755   0.360  29.338  0.0758  0.1862  0.2785
52913W        W96007  11.529   1.463  27.599 -0.3212 -0.1184  0.1694
52914W        W96008  14.529   3.706  28.758 -0.2564  0.1312  0.2646
52915W        W96009  14.801   2.445  29.215  0.1672 -0.1136 -0.0054
52916W        W96010  12.270   1.142  28.024  0.0399  0.0254 -0.0932
52917W        W96011  11.669   2.105  28.955  0.0367  0.0038  0.2055
52918W        W96012  13.079   1.205  29.431  0.3342  0.2060  0.1649
52919W        W96013  11.189   1.341  29.032  0.0305  0.1890 -0.1297
52920W        W96014  11.221  34.495  28.976  0.2888 -0.0720 -0.0283
52921W        W96015  14.482   1.911  29.453 -0.3218 -0.0208  0.1367
52922W        W96016  11.280  33.889  27.491 -0.1074  0.1222 -0.1277
52923W        W96017  15.278   0.507  29.489 -0.2996  0.1502 -0.0749
52924W        W96018  14.166   1.588  29.739  0.3712  0.1245  0.2405
52925W        W96019   9.692   2.732  29.133 -0.1221  0.1476 -0.2521
52926W        W96020  14.544  34.013  30.715  0.1435 -0.0989 -0.1476
52927W        W96021  11.775   3.053  29.592  0.1966 -0.0604 -0.2276
52928W        W96022  14.541   4.378  30.080  0.2554  0.1882 -0.2859
52929W        W96023  13.860   2.866  28.133  0.0831 -0.1678  0.2041
52930W        W96024  10.691  34.483  28.895 -0.0181 -0.0770  0.0275
52931W        W96025  11.951  34.285  28.222 -0.1247 -0.2231  0.2377
52932W        W96026  11.212   3.844  30.559  0.0567  0.1731 -0.1256
52933W        W96027  12.999   1.793  28.252 -0.3097  0.4556 -0.0965
52934W        W96028  13.239   0.799  28.163  0.0739 -0.1548  0.1465
52935W        W96029  14.135   3.042  29.665  0.0540  0.1087 -0.0463
52936W        W96030  12.141   1.993  28.201  0.0992 -0.1247  0.1576
52937W        W96031  10.730   1.966  30.039  0.1336  0.0734  0.0706
52938W        W96032  15.228   1.012  30.860  0.1695 -0.1486  0.1230
52939W        W96033  14.286   1.469  30.821  0.1989 -0.0350 -0.2379
52940W        W96034  14.476   2.194  28.904  0.0781 -0.1707  0.0881
52941W        W96035  11.977   0.318  27.667 -0.4115 -0.2232  0.0497
52942W        W96036  11.310   2.831  29.448  0.1262 -0.4960  0.0433
52943W        W96037  11.906   3.190  27.197 -0.0254  0.1264 -0.0843
52944W        W96038  11.663   2.583  29.753  0.0334  0.4657  0.2750
52945W        W96039  13.494   2.640  29.865 -0.0347  0.2453  0.0530
52946W        W96040  15.209   0.828  29.911 -0.2392 -0.1319 -0.1166
52947W        W96041  12.506   1.992   0.431  0.1886 -0.0047  0.0268
52948W        W96042  14.476   1.028  30.472 -0.0529 -0.2722  0.2539
52949W        W96043   9.670   0.492  27.082 -0.0551 -0.1671 -0.0172
52950W        W96044  12.477   2.234  29.485  0.0245  0.2147  0.0568
52951W        W96045  15.170   0.899  28.663  0.0604 -0.1901 -0.0211
52952W        W96046  14.090   1.047  27.063 -0.0479  0.3490  0.1431
52953W        W96047  13.561   1.727  30.896  0.0631 -0.2154 -0.1720
52954W        W96048  14.207   3.534  28.357  0.0708  0.2767  0.1630
52955W        W96049  14.365   0.324  26.499 -0.2127  0.2700  0.0753
52956W        W96050  14.559  34.539  28.826  0.1241  0.2800  0.1348
52957W        W96051  11.585   1.616  30.703  0.0841 -0.3595 -0.2593
52958W        W96052  12.527   3.058  28.893 -0.2284  0.0850 -0.2009
52959W        W96053  12.318   1.395  30.876 -0.0491 -0.0509 -0.2188
52960W        W96054  12.679   0.833  28.416  0.0787 -0.0755  0.4153
52961W        W96055  14.833   4.062  28.573 -0.1661 -0.2285 -0.1073
52962W        W96056  12.755   1.669  29.295  0.0452  0.0551 -0.1814
52963W        W96057  14.601   2.537  31.646 -0.1861  0.2008 -0.1152
52964W        W96058  13.402   1.692  28.626 -0.0029  0.1273 -0.1068
52965W        W96059  11.952  34.166  31.733  0.0530 -0.4136 -0.0057
52966W        W96060  11.813   1.240  27.941  0.2683 -0.1067 -0.1689
52967W        W96061  14.676   0.825  29.095 -0.2157  0.0608 -0.0402
52968W        W96062  10.494   4.181  27.287  0.4062 -0.0223 -0.0639
52969W        W96063  16.322   1.029  30.326  0.3945 -0.1921 -0.0326
52970W        W96064  14.124   1.121  29.560 -0.1233 -0.0525  0.0064
52971W        W96065  12.608   1.323  30.218 -0.1122  0.3112 -0.1738
52972W        W96066  15.883   1.774   1.005 -0.0631 -0.1800  0.0269
52973W        W96067  13.586   0.010  29.294 -0.1442  0.0025 -0.1016
52974W        W96068  11.686   0.622  29.309 -0.1426  0.0782 -0.0744
52975W        W96069  12.883   0.435  28.097  0.1069  0.2073 -0.0000
52976W        W96070  14.749   0.763  30.836  0.1340  0.0335  0.0175
52977W        W96071  11.488   1.305  30.228 -0.0266 -0.1263  0.1062
52978W        W96072  11.073   2.672  30.533 -0.2154  0.0278 -0.1102
52979W        W96073  15.314   2.649   0.391  0.0797  0.1051  0.2620
52980W        W96074  13.362   1.622  27.745  0.0388 -0.0246  0.0982
52981W        W96075  15.534   1.211  29.911 -0.0908 -0.2323  0.0813
52982W        W96076  13.638   0.665  27.885 -0.0276  0.1466 -0.1776
52983W        W96077  11.536   4.081  27.380  0.0430  0.1622  0.1493
52984W        W96078  12.085   1.624  27.735 -0.1043  0.0902 -0.0880
52985W        W96079  12.555   0.044  29.463 -0.1203  0.0665  0.2087
52986W        W96080  12.551   1.829  29.733 -0.0717  0.0792  0.1796
52987W        W96081  12.841   1.159  27.075 -0.2063  0.0445 -0.0735
52988W        W96082  15.057   1.887  31.270  0.2332  0.0830  0.1490
52989W        W96083  10.426   4.409  27.839 -0.1584  0.1590 -0.2088
52990W        W96084  14.239  33.575  30.865 -0.0012 -0.1016 -0.0462
52991W        W96085  12.256   3.878  27.699 -0.1006 -0.2086  0.4349
52992W        W96086  11.983   0.729  28.122  0.1096  0.3775 -0.1073
52993W        W96087  12.366   0.100  27.481 -0.0623  0.0236 -0.0879
52994W        W96088  13.870   0.222  29.647  0.2130 -0.0363  0.3022
52995W        W96089  13.737   2.733  28.608  0.1881 -0.0198  0.2297
52996W        W96090  10.819   0.078  29.304  0.1778 -0.0010 -0.1618
52997W        W96091  13.699  33.909  28.973  0.1910 -0.0393 -0.0614
52998W        W96092  10.221   3.608  28.917 -0.0343 -0.0449  0.0697
52999W        W96093  12.253   2.493  30.702 -0.1579 -0.0500 -0.0330
53000W        W96094  14.234   0.733  29.265 -0.2286  0.2245 -0.1603
53001W        W96095  13.777   2.637  30.584 -0.1994 -0.1679 -0.3655
53002W        W96096  13.764   0.481  31.024  0.2207  0.3068 -0.2990
53003W        W96097  11.549   0.104  26.873  0.0806 -0.0015 -0.1537
53004W        W96098  15.734   0.017  29.422 -0.0155 -0.3100  0.1859
53005W        W96099  12.261   0.511  28.502 -0.1432 -0.1907  0.1919
53006W        W96100  11.583   3.853  26.486  0.0773  0.2559 -0.1454
53007W        W96101  13.226   2.006  29.033  0.1882 -0.0484  0.0547
53008W        W96102  11.712  34.551  28.738  0.1165 -0.1381 -0.2745
53009W        W96103  12.266   1.572  29.336  0.1893  0.1307 -0.1430
53010W        W96104  12.277   0.654  29.329 -0.1846 -0.0896 -0.2353
53011W        W96105  12.937   2.946  30.117 -0.2671 -0.1303 -0.1374
53012W        W96106  13.788   0.624  29.067 -0.0252 -0.3281  0.1201
53013W        W96107  14.541   0.877  28.385  0.2020  0.1330  0.1333
53014W        W96108  12.960   0.947  30.470  0.1407 -0.1493  0.0117
53015W        W96109  14.068   2.254  30.308  0.0971  0.0256  0.3048
53016W        W96110  12.998   1.829  30.704 -0.3320  0.2890 -0.0778
53017W        W96111  11.667   3.054  31.658 -0.1190  0.1843  0.0533
53018W        W96112  14.283   0.014  28.368  0.1851  0.0330  0.0650
53019W        W96113  15.153   3.691  28.437 -0.1240 -0.1357 -0.1452
53020W        W96114  14.960   0.910  30.377  0.0611  0.1387  0.1234
53021W        W96115  12.494   0.783  28.896  0.1523  0.0636  0.0934
53022W        W96116  10.969   1.971  28.849 -0.0788  0.0598  0.2428
53023W        W96117  13.069   1.213  28.623  0.1625 -0.0521  0.0498
53024W        W96118  13.603   0.163  30.088 -0.0210  0.0596  0.3795
53025W        W96119  13.480   1.059  29.710  0.0453 -0.0402  0.1193
53026W        W96120  11.994   2.511  27.324  0.1613 -0.1725 -0.4580
53027W        W96121  11.877   2.513  31.163  0.1600  0.2208  0.0191
53028W        W96122  14.428  34.210  27.208  0.0354 -0.1666 -0.1004
53029W        W96123  13.375   2.055  27.449  0.1436 -0.2536 -0.1747
53030W        W96124  13.499   2.525  29.087 -0.1435  0.1836  0.1411
53031W        W96125  15.197   0.419  30.765 -0.0676  0.2655 -0.2032
53032W        W96126  13.839   1.703  28.315 -0.0201  0.1417 -0.2254
53033W        W96127  14.317   0.458  31.173 -0.1442 -0.1286  0.2624
53034W        W96128  10.489   0.382  29.574 -0.1486 -0.4827  0.0622
53035W        W96129  14.935   2.711  28.739  0.0563 -0.0023  0.1875
53036W        W96130  11.209   0.785  29.234 -0.3244  0.2600  0.0561
53037W        W96131  12.720   2.884  31.478  0.3093  0.2893 -0.2028
53038W        W96132  12.526   0.960  30.721  0.2480 -0.4354 -0.5361
53039W        W96133  14.826   1.231  28.475  0.1854 -0.2904 -0.4573
53040W        W96134  12.054  34.309  27.313  0.3339 -0.0051 -0.0046
53041W        W96135  13.738   2.196  30.822  0.2567 -0.2655 -0.0832
53042W        W96136  13.691   3.361  28.357 -0.0066  0.0921  0.1754
53043W        W96137  12.379   3.042  27.345  0.1362  0.2085  0.0486
53044W        W96138  16.043  34.318  29.297 -0.3268  0.0747 -0.1991
53045W        W96139  11.303   1.663  28.648  0.0729 -0.0554 -0.0174
53046W        W96140  14.663   0.360  28.785 -0.1124 -0.0639 -0.2870
53047W        W96141  13.624   2.658  27.236  0.1715  0.1222  0.0960
53048W        W96142  12.011   0.724  29.745  0.1176 -0.2001 -0.0649
53049W        W96143  12.371   0.280  28.993 -0.0710  0.0307  0.0970
53050W        W96144  14.124   1.502  29.211  0.0968  0.1068 -0.0638
53051W        W96145  12.037  34.466  27.765  0.0352  0.0047 -0.0517
53052W        W96146  14.175  34.271  30.954  0.3256 -0.2775  0.0543
53053W        W96147  14.177   1.438  30.265 -0.1458 -0.1532 -0.0348
53054W        W96148  13.659   0.499  30.489 -0.0101 -0.1236  0.1905
53055W        W96149  10.958   1.128  31.672  0.0177 -0.0834  0.1648
53056W        W96150  13.379   3.582  29.711  0.1598  0.1393 -0.1115
53057W        W96151  14.310   1.014  27.963  0.0405 -0.4260 -0.1987
53058W        W96152  14.585   1.297  29.380 -0.0490  0.0482 -0.0890
53059W        W96153  14.823   2.044  28.082  0.2387  0.0322  0.4110
53060W        W96154  13.728   1.118  29.262 -0.1031  0.0061  0.4410
53061W        W96155  10.351   0.250  28.728 -0.2351 -0.1209 -0.0795
53062W        W96156  13.298   2.758  30.798 -0.3303  0.2808 -0.2410
53063W        W96157  13.175   1.018  26.402  0.1238  0.0644 -0.3757
53064W        W96158  13.108   0.490  30.439  0.1291 -0.0989 -0.1589
53065W        W96159  12.407   2.453  26.524 -0.1581  0.0498  0.0776
53066W        W96160  13.969   1.969  29.474 -0.1400  0.1173 -0.2177
53067W        W96161  13.868   1.455  27.454  0.1356  0.0180  0.2837
53068W        W96162  11.882   1.162  30.575 -0.3504  0.0529  0.0696
53069W        W96163  12.062   2.038  30.601  0.2047 -0.5737 -0.0558
53070W        W96164  12.308   0.508  27.260 -0.3777 -0.1197 -0.1149
53071W        W96165  14.319   1.361  27.408 -0.1571  0.0864  0.1396
53072W        W96166  13.822   1.205  30.019 -0.0730  0.1627  0.0610
53073W        W96167  15.532   2.235   2.163 -0.0519 -0.0653  0.0774
53074W        W96168  14.077  34.303  28.090  0.2610  0.1378 -0.1383
53075W        W96169  13.476   0.989  31.220 -0.1814  0.4866 -0.2765
53076W        W96170  11.458   3.235  27.704  0.1332  0.0408  0.3168
53077W        W96171  14.781  33.758  29.235  0.0866 -0.0225 -0.1931
53078W        W96172  10.003   2.961  30.319 -0.1135  0.0469 -0.0707
53079W        W96173  11.284   1.834  29.176  0.2535 -0.2221 -0.0137
53080W        W96174  11.500   2.308  27.224  0.2957 -0.1267 -0.1554
53081W        W96175  13.363  34.508  31.649 -0.1389 -0.5012  0.2306
53082W        W96176  14.082   0.645  28.690  0.3519  0.2446  0.1041
53083W        W96177  13.493   2.169  29.466 -0.3105  0.0239 -0.2189
53084W        W96178  13.664   1.775  29.106  0.0377 -0.0457 -0.0135
53085W        W96179  13.113   1.785  31.800 -0.0655  0.1565 -0.3572
53086W        W96180  13.481  34.525  29.729  0.0140 -0.3153 -0.3145
53087W        W96181  13.114   2.454  30.154  0.3237 -0.1879  0.1690
53088W        W96182  13.513   2.180  28.639  0.0383 -0.0204  0.1343
53089W        W96183  11.715   2.579  29.234 -0.0900 -0.0437 -0.1034
53090W        W96184  10.898   0.741  30.779 -0.0428  0.1486 -0.3847
53091W        W96185  12.553   1.061  31.203  0.2316  0.1708 -0.0008
53092W        W96186  12.341   3.175  29.531 -0.0727  0.3066  0.0498
53093W        W96187  12.351  33.860  29.872  0.0325  0.0939  0.1751
53094W        W96188  12.470   3.349  27.882  0.0898 -0.1264 -0.3981
53095W        W96189  12.266   2.210  31.119  0.0558 -0.0394  0.0266
53096W        W96190  10.548   1.256  28.574 -0.0066  0.2014 -0.0134
53097W        W96191  11.835   3.902  28.381 -0.0107  0.2745  0.0311
53098W        W96192  12.607   2.736  27.781  0.1495 -0.3840  0.0383
53099W        W96193  13.716   1.498  29.606  0.2967 -0.2193 -0.2236
53100W        W96194  11.028   3.103  29.047  0.0658  0.2750  0.0046
53101W        W96195  12.255   1.039  28.539 -0.1031 -0.1805  0.2618
53102W        W96196  12.152   1.924  29.014  0.1018 -0.2718  0.0938
53103W        W96197  10.547   4.933  25.363  0.2740 -0.1400 -0.0635
53104W        W96198  13.354   3.043  27.447  0.3124  0.2136  0.0422
53105W        W96199  11.718   3.300  28.124  0.2611  0.2044  0.1059
53106W        W96200  13.480   1.900  31.453 -0.3542  0.0767  0.3302
53107W        W96201  15.424   0.338  27.291 -0.1332  0.0955 -0.2767
53108W        W96202  15.384   1.590  28.516  0.1204  0.0445 -0.4020
53109W        W96203  15.198   0.296  28.618 -0.1805  0.4033  0.1105
53110W        W96204  12.648   2.204  30.563 -0.0346 -0.1404  0.2751
53111W        W96205  12.963   0.606  29.918  0.0914  0.0904 -0.3318
53112W        W96206  12.642  34.459  25.456  0.1888  0.2727 -0.1613
53113W        W96207  12.922   1.916  30.125  0.0538  0.3269 -0.2680
53114W        W96208  14.785  33.718  31.431  0.2577  0.0374 -0.0053
53115W        W96209  12.010   3.456  31.258  0.3940 -0.1698  0.0155
53116W        W96210  13.500   3.093  28.848 -0.0608 -0.0575  0.0171
53117W        W96211  12.013   0.127  27.083  0.2104 -0.0597  0.1697
53118W        W96212  12.899   0.442  29.152 -0.1853  0.0019  0.1126
53119W        W96213  16.090   0.551  30.552 -0.1862  0.0782 -0.2797
53120W        W96214  13.162   1.908  26.970  0.0211 -0.2398 -0.0633
53121W        W96215  13.157   0.885  29.053  0.2111  0.1122 -0.0709
53122W        W96216  12.211   2.598  28.265 -0.1758  0.0537  0.3673
53123W        W96217  12.142   1.518  29.898 -0.2812  0.2147 -0.0179
53124W        W96218  11.888   3.913  29.742 -0.5245 -0.0559  0.2084
53125W        W96219  11.249  34.309  27.172 -0.1399 -0.2318  0.4110
53126W        W96220  16.543   0.324  29.686 -0.0585  0.0745 -0.0003
53127W        W96221  14.265   0.266  29.052 -0.1173  0.0233  0.1458
53128W        W96222  14.507  34.589  29.307  0.1656  0.3502  0.2477
53129W        W96223  11.806   0.724  27.157 -0.2294 -0.3314 -0.4174
53130W        W96224  15.472   0.245  29.093 -0.1780 -0.2528  0.2831
53131W        W96225  12.475   1.686  30.480 -0.1076  0.1237 -0.2424
53132W        W96226  13.708   1.356  30.480 -0.0949  0.0135 -0.1203
53133W        W96227  13.333   1.350  29.030  0.0079  0.1417 -0.0656
53134W        W96228  14.289   2.812  30.516 -0.2453 -0.0863 -0.0969
53135W        W96229  13.828   2.331  29.855 -0.1097 -0.1547 -0.0437
53136W        W96230  13.891   2.890  30.126 -0.0640 -0.0804 -0.1393
53137W        W96231  10.970   0.906  28.814  0.0876 -0.0826  0.0864
53138W        W96232  13.907   1.010  27.584 -0.0015 -0.0313  0.1522
53139W        W96233  11.951   0.950  28.921 -0.1991  0.0110 -0.0798
53140W        W96234  12.499   0.487  29.719  0.0687  0.1476  0.0718
53141W        W96235  13.942   3.725  30.195 -0.0963  0.3264  0.2775
53142W        W96236  12.988  34.495  28.034 -0.2082  0.0657  0.0890
53143W        W96237  15.477   2.375  28.024 -0.0839  0.3339  0.2606
53144W        W96238  15.156  34.650  31.029 -0.2552 -0.1618  0.0708
53145W        W96239  13.390   3.211  26.479 -0.1248  0.0901 -0.1988
53146W        W96240  12.927   1.387  27.997  0.1191 -0.3957  0.0341
53147W        W96241  12.956   2.422  29.085 -0.1946 -0.1276  0.2569
53148W        W96242  11.596   3.498  29.586  0.2658  0.0482  0.0302
53149W        W96243  13.357   2.983  28.346 -0.0032 -0.1590 -0.1479
53150W        W96244  14.562   1.610  28.982 -0.0557 -0.0415 -0.1358
53151W        W96245  15.554   0.646  28.304 -0.2057  0.1088 -0.5022
53152W        W96246  12.727   1.189  29.027 -0.2017 -0.1709 -0.1879
53153W        W96247  10.932   3.229  28.511  0.1756  0.2300 -0.2006
53154W        W96248  14.973   0.020  29.026  0.0477  0.3316  0.0317
53155W        W96249  14.341   0.303  29.603  0.0046 -0.2757 -0.3928
53156W        W96250  11.849   4.069  27.920 -0.1458  0.2652  0.0159
53157W        W96251  13.362  34.470  30.319  0.3514  0.4338  0.2056
53158W        W96252  13.741   2.816  29.482  0.2374 -0.3794  0.0946
53159W        W96253  11.779   3.332  30.810  0.0363  0.1012  0.0163
53160W        W96254  12.570   1.340  27.604  0.0412  0.1307  0.3512
53161W        W96255  13.518   2.273  30.330  0.1291  0.1641  0.1937
53162W        W96256  12.607   1.395  28.440  0.2147 -0.0091  0.3063
53163W        W96257  12.483   1.918  27.562 -0.0225  0.0157 -0.0609
53164W        W96258  15.022   2.484  28.182  0.1983 -0.0351 -0.0781
53165W        W96259  13.827   1.354  28.782  0.0151 -0.0972 -0.2020
53166W        W96260  13.620   2.430  28.215  0.1344 -0.1717 -0.3176
53167W        W96261  12.182  34.690  28.552 -0.0307 -0.1213  0.1181
53168W        W96262  14.486  33.789  27.479  0.4166  0.6390 -0.1061
53169W        W96263  14.282  33.707  28.423 -0.0140  0.0970  0.2851
53170W        W96264  12.650   2.318  29.958 -0.4033 -0.0097  0.2076
53171W        W96265  10.040   0.611  27.426 -0.0240 -0.2158  0.0533
53172W        W96266  11.598   0.544  27.926  0.3821 -0.2354 -0.1184
53173W        W96267  12.119  34.543  29.052 -0.1951 -0.1471 -0.1927
53174W        W96268  14.725   0.285  30.585 -0.4371 -0.2151  0.1597
53175W        W96269  11.610   0.838  30.229 -0.0694  0.3994 -0.1046
53176W        W96270  12.108   2.649  29.559  0.4654  0.0426  0.0474
53177W        W96271  11.344  34.039  28.725 -0.1636  0.0423  0.0033
53178W        W96272  15.495   3.356  29.055  0.0313  0.2459  0.0878
53179W        W96273  12.052   0.416  30.165  0.0997 -0.1716 -0.1550
53180W        W96274  11.086   0.547  27.916 -0.0694 -0.0000 -0.1420
53181W        W96275  14.139   3.045  28.515  0.3579  0.1401 -0.0196
53182W        W96276  13.692   3.468  27.452  0.3433 -0.0221 -0.2420
53183W        W96277  14.930   0.102  28.183 -0.0653 -0.0515  0.0080
53184W        W96278  14.694   3.095  31.660 -0.1208  0.0216 -0.1974
53185W        W96279  11.127   3.019  28.120  0.0302 -0.1390  0.2284
53186W        W96280  12.548   2.713  30.997 -0.2888  0.0503  0.2936
53187W        W96281  11.888  34.647  30.310  0.1784  0.3577  0.0217
53188W        W96282  11.527  34.400  27.968 -0.0591  0.1505 -0.0768
53189W        W96283  13.782  34.288  30.083 -0.4526 -0.1858  0.2463
53190W        W96284  13.243   2.604  28.665 -0.3953 -0.0135 -0.0424
53191W        W96285  13.598   2.142  26.045 -0.0176  0.2888  0.0467
53192W        W96286  12.580   0.930  29.934 -0.0706 -0.1612 -0.0263
53193W        W96287  13.247   4.379  30.179 -0.1943 -0.0787  0.2290
53194W        W96288  11.016  33.699  29.789  0.1836  0.0060  0.2484
53195W        W96289  13.104   2.495  28.214  0.2360  0.0122  0.0968
53196W        W96290  12.560   3.510  29.151 -0.1188 -0.0375  0.3301
53197W        W96291  12.992   2.645  27.458 -0.1196 -0.1460 -0.0491
53198W        W96292  15.263   1.406  31.255 -0.1967  0.2704 -0.1180
53199W        W96293  13.822   1.779  30.053 -0.0045 -0.3424  0.0597
53200W        W96294  12.018  34.186  28.714  0.1267  0.0237 -0.0868
53201W        W96295  11.192   1.121  30.588  0.5116 -0.1899 -0.0884
53202W        W96296  14.762   2.351  29.745  0.0059  0.1568  0.1934
53203W        W96297  11.986   0.205  28.178  0.1794 -0.1401  0.1269
53204W        W96298  14.446   0.876  27.467 -0.1300 -0.1316  0.1186
53205W        W96299  13.470   2.525  27.716 -0.0848 -0.0140  0.2275
53206W        W96300  12.404  33.895  28.593  0.0885 -0.1604 -0.1345
53207W        W96301  14.263   1.080  28.904 -0.2105 -0.0105 -0.0159
53208W        W96302  12.239   1.960  30.129  0.1276 -0.0504 -0.1867
53209W        W96303  12.481   1.844  28.539 -0.2056 -0.0620  0.2143
53210W        W96304  14.438   2.210  31.302  0.0050 -0.2078  0.0703
53211W        W96305  13.068   1.171  27.529 -0.1110 -0.5078 -0.1380
53212W        W96306  14.387   2.589  28.594 -0.0566  0.1124  0.1936
53213W        W96307  14.255   3.284  30.086 -0.1892  0.4194  0.2736
53214W        W96308  13.791   3.163  31.554 -0.0375  0.2774 -0.1019
53215W        W96309  12.550   2.695  29.338  0.1236  0.2232 -0.1194
53216W        W96310  14.906   1.582  28.094 -0.2803 -0.1160 -0.2373
53217W        W96311  11.363  34.051  29.726  0.1348  0.2597 -0.0220
53218W        W96312  12.724   0.902  27.905 -0.0487  0.0557 -0.3652
53219W        W96313  12.746   0.860  29.464 -0.1672 -0.0901 -0.4625
53220W        W96314  15.949   0.640  30.090 -0.0210 -0.1360 -0.2378
53221W        W96315  12.016   0.215  29.594 -0.0088  0.2972 -0.0261
53222W        W96316  13.375  33.964  28.459 -0.2560 -0.1469  0.2817
53223W        W96317  11.100   2.105  30.741 -0.0507 -0.1866  0.1824
53224W        W96318  15.296   1.842  30.205  0.0399 -0.2284 -0.2567
53225W        W96319  12.711   1.506  31.220 -0.1904  0.0588  0.1244
53226W        W96320  12.967   0.194  31.652  0.0837 -0.0121 -0.2292
53227W        W96321  11.248   1.071  31.186 -0.0763  0.1124 -0.0257
53228W        W96322  12.427   4.733  31.659  0.0503 -0.0223  0.0953
53229W        W96323  13.614   2.223  31.938 -0.0704  0.1716 -0.2001
53230W        W96324  10.743   4.107  30.686 -0.1999 -0.5688 -0.2667
53231W        W96325  14.290   0.966  30.900  0.0971 -0.0739  0.1862
53232W        W96326  14.050   0.565  31.594 -0.0377  0.1663  0.0925
53233W        W96327  16.191   0.612   0.575  0.1285 -0.1658  0.1758
53234W        W96328  14.216   3.453   0.023 -0.2050 -0.3673  0.1295
53235W        W96329  12.987   3.096  31.098 -0.0970  0.0229  0.0126
53236W        W96330  12.564   1.310  29.601  0.0676 -0.2246 -0.0081
53237W        W96331  14.672   3.199   0.753  0.1638 -0.1391  0.1118
53238W        W96332  12.978   0.959  30.982 -0.1131  0.0378  0.1516
53239W        W96333  14.709   1.632   1.126  0.4726  0.1229  0.0770
53240W        W96334  10.283   3.732   0.074 -0.1552 -0.0674 -0.3270
53241W        W96335  11.851   2.588  31.715 -0.5026 -0.3119 -0.0468
53242W        W96336  14.228   3.345  31.450 -0.3719 -0.2664  0.1613
53243W        W96337  11.791  32.918   0.129  0.0954  0.0804  0.0082
53244W        W96338  12.032   0.929  31.020 -0.1342 -0.0709 -0.1248
53245W        W96339  11.797  34.228  30.579 -0.2927  0.0405  0.0158
53246W        W96340  11.637   3.777   0.921 -0.1316 -0.0680  0.0738
53247W        W96341  14.523   1.104   1.233  0.1485  0.1141  0.1862
53248W        W96342  15.685   0.671  30.906 -0.0010  0.1419 -0.0180
53249W        W96343  15.266  33.789  31.565  0.1723 -0.4356 -0.2759
53250W        W96344  14.734   1.269  30.995  0.0490  0.2490 -0.5380
53251W        W96345  12.880   0.006   0.640  0.2664  0.0349 -0.0321
53252W        W96346  10.483   3.623  31.432 -0.3900  0.1013 -0.3712
53253W        W96347  12.960   1.548  29.813 -0.3319  0.0753  0.2311
53254W        W96348  12.163   3.174  31.743 -0.1740  0.3369 -0.0328
53255W        W96349  11.885   2.072  31.438  0.1880  0.1761 -0.0785
53256W        W96350  11.486   1.882  31.605  0.0843  0.0038 -0.1530
53257W        W96351  15.122   2.176   0.629 -0.2692  0.1130 -0.0062
53258W        W96352  15.015  34.664   0.391  0.0090 -0.0836 -0.3373
53259W        W96353  10.252  34.186  30.847  0.1035 -0.0542 -0.3270
53260W        W96354  12.971   2.607  29.654  0.3377 -0.0357  0.0180
53261W        W96355  12.018   2.142  29.690 -0.0983 -0.3837 -0.1507
53262W        W96356  14.441   1.905  31.686  0.1258  0.1268 -0.0894
53263W        W96357  14.709   2.130   0.265 -0.3796  0.1046  0.1359
53264W        W96358  13.416   0.592   0.581 -0.2745 -0.3288  0.0714
53265W        W96359  13.154   2.274  30.670 -0.1948  0.0857  0.3320
53266W        W96360  11.925   2.324  30.183  0.1385  0.1879 -0.1679
53267W        W96361  12.714   0.502  30.831  0.5703  0.3407  0.2650
53268W        W96362  13.516   4.688  30.943  0.1708 -0.0964 -0.0188
53269W        W96363  11.363   0.799  29.782  0.1556  0.2925 -0.1568
53270W        W96364  12.196   0.425  30.969  0.1903 -0.0637 -0.4075
53271W        W96365  12.040   0.795   0.115 -0.2136 -0.0939 -0.1202
53272W        W96366  13.288   1.351  30.726 -0.1470 -0.0907 -0.2282
53273W        W96367  13.328   3.039  29.638 -0.0676 -0.1087  0.0624
53274W        W96368  11.948   1.523   0.501  0.2597  0.0563  0.0547
53275W        W96369  13.950   3.847   0.114  0.1040  0.1263 -0.0896
53276W        W96370  13.821  34.686  31.757  0.0836  0.3153  0.0102
53277W        W96371  12.784   1.366  30.703  0.1174 -0.2102 -0.4389
53278W        W96372  13.277   2.196  31.098  0.0852 -0.1118  0.0223
53279W        W96373  13.602   1.985   1.205 -0.1171  0.1249 -0.1142
53280W        W96374  13.966   1.815  31.149 -0.1373  0.3619  0.2010
53281W        W96375  14.928   2.138  31.672 -0.2089 -0.3099 -0.1662
53282W        W96376  13.300   2.335  31.568  0.0659  0.2096  0.0580
53283W        W96377  12.094   2.940  30.886 -0.3122 -0.0840 -0.0180
53284W        W96378  11.714   1.189  29.799 -0.0982 -0.1471 -0.2482
53285W        W96379  10.236   0.390  31.169  0.0078  0.0647 -0.2484
53286W        W96380  12.299   3.548   0.080  0.2867 -0.1580 -0.2349
53287W        W96381  11.395   3.170  30.505  0.0331  0.1206 -0.0110
53288W        W96382  11.982  33.563  31.054 -0.0222 -0.2234 -0.1444
53289W        W96383  13.603   4.160  31.015 -0.0648 -0.1769  0.2161
53290W        W96384  14.619   3.610  31.756  0.0500  0.2812 -0.1183
53291W        W96385  15.987   2.697   0.434 -0.0505 -0.1186  0.2579
53292W        W96386  12.218   5.739  18.073  0.2045 -0.0333 -0.1372
53293W        W96387  12.523   6.694  18.024  0.0738 -0.4182 -0.0810
53294W        W96388  12.629   3.921  15.353 -0.0876 -0.3407  0.1459
53295W        W96389  12.541   4.368  17.042  0.2842 -0.0857  0.0530
53296W        W96390   9.842   4.418  16.210 -0.0327  0.0612  0.1819
53297W        W96391  12.829   6.855  16.993 -0.3221  0.1546 -0.1935
53298W        W96392  10.092   3.099  18.536  0.0206 -0.1561 -0.0766
53299W        W96393  13.288   4.355  17.754 -0.2269  0.1191 -0.0159
53300W        W96394  14.522   6.573  19.016  0.0197  0.0824  0.0022
53301W        W96395  13.585   5.854  16.160 -0.3146  0.1351  0.1719
53302W        W96396  13.214   4.635  16.492 -0.2650 -0.1030  0.0147
53303W        W96397  12.291   4.820  17.926 -0.0152  0.0077  0.2388
53304W        W96398  10.893   3.004  16.555  0.1813 -0.2066 -0.3718
53305W        W96399  10.723   3.366  18.005 -0.2137 -0.0101 -0.4289
53306W        W96400  13.577   5.564  18.609  0.3055 -0.1918 -0.2900
53307W        W96401  10.963   4.319  15.137  0.4714 -0.0697 -0.2914
53308W        W96402  12.205   4.569  17.419 -0.1799  0.0728  0.0536
53309W        W96403  11.704   4.335  15.736  0.1365  0.1614  0.0699
53310W        W96404  14.156   6.836  17.012 -0.1040  0.2453  0.1166
53311W        W96405  13.748   4.225  18.577  0.1447  0.0824  0.0209
53312W        W96406  13.139   3.879  18.958  0.0649 -0.2862  0.3241
53313W        W96407  13.438   6.613  16.639  0.3974 -0.1534 -0.1073
53314W        W96408  11.501   4.037  16.568 -0.0121  0.0233 -0.0371
53315W        W96409  11.227   5.507  16.722  0.3129 -0.0143 -0.1869
53316W        W96410  12.679   3.808  20.076  0.2081 -0.3433  0.0588
53317W        W96411  12.986   3.867  17.735  0.1073  0.0508  0.0587
53318W        W96412  13.680   5.583  17.368  0.1539 -0.0627  0.1368
53319W        W96413  12.939   5.857  16.912 -0.0216 -0.2424  0.2124
53320W        W96414  12.362   7.065  17.128 -0.2485  0.1116  0.0262
53321W        W96415  13.911   5.531  19.580  0.0063  0.5056  0.1023
53322W        W96416  10.587   5.633  17.583 -0.0372 -0.3118  0.1362
53323W        W96417  12.512   6.574  17.410 -0.1391 -0.1083 -0.0149
53324W        W96418  12.765   6.774  16.111  0.1442 -0.0468  0.1466
53325W        W96419  14.774   5.040  17.835  0.0293 -0.0736  0.0240
53326W        W96420  14.797   5.518  19.100  0.0259 -0.0509  0.1877
53327W        W96421  11.273   5.949  18.354  0.3937  0.4167 -0.1407
53328W        W96422   9.765   5.439  17.388 -0.2535  0.1103 -0.1257
53329W        W96423  12.102   5.530  18.495  0.3156 -0.0325 -0.1660
53330W        W96424  11.471   6.005  17.766 -0.0908  0.0947  0.1642
53331W        W96425  12.643   5.565  19.461 -0.0805  0.1888  0.2821
53332W        W96426  11.988   3.892  16.634 -0.0791  0.0820  0.0114
53333W        W96427  12.924   6.439  15.728  0.3632  0.1923 -0.0034
53334W        W96428  13.262   5.207  16.850 -0.1619  0.1680  0.1934
53335W        W96429  11.811   5.727  19.943  0.1198  0.1500 -0.2454
53336W        W96430  11.239   5.899  16.363  0.1264 -0.1642  0.2902
53337W        W96431  12.586   2.773  20.115 -0.0835 -0.1500 -0.0558
53338W        W96432   9.835   8.037  17.355  0.1049 -0.0938 -0.3076
53339W        W96433  12.928   5.845  15.044 -0.3867  0.1742 -0.2000
53340W        W96434  12.284   3.164  16.209  0.1975  0.0855 -0.2488
53341W        W96435  12.821   4.304  16.211  0.0298 -0.0745 -0.0486
53342W        W96436  14.264   2.747  17.400  0.1752  0.0011  0.1904
53343W        W96437  11.185   6.853  16.075  0.2711  0.3167  0.0764
53344W        W96438  12.426   3.360  18.001  0.1109  0.1365  0.0662
53345W        W96439  14.726   4.456  18.711  0.1826  0.1992 -0.0792
53346W        W96440  13.442   5.303  17.683 -0.0501  0.0113  0.1282
53347W        W96441  15.076   4.723  18.956  0.0798  0.0292 -0.1148
53348W        W96442  11.735   5.646  18.083  0.0378  0.0140 -0.1200
53349W        W96443  11.365   4.093  18.672 -0.2143  0.2953 -0.3234
53350W        W96444  13.914   6.073  17.472  0.2282  0.1685  0.0235
53351W        W96445  14.326   6.803  15.654 -0.1937 -0.1066 -0.4079
53352W        W96446  13.930   5.710  16.438  0.0591 -0.1957  0.2525
53353W        W96447  11.703   4.812  16.509 -0.4677  0.0935 -0.2687
53354W        W96448  12.464   5.430  18.819  0.2793  0.1976 -0.0883
53355W        W96449  11.968   2.895  19.470  0.3074 -0.2083  0.4267
53356W        W96450  11.790   3.739  15.104  0.3133  0.1450  0.0937
53357W        W96451  14.081   5.852  19.966  0.0985 -0.3095  0.2552
53358W        W96452   9.955   5.546  18.971  0.2302  0.1980 -0.1301
53359W        W96453  13.471   3.931  17.476  0.0998  0.1720 -0.3644
53360W        W96454  12.484   6.152  16.686  0.0753 -0.0538  0.1936
53361W        W96455  13.689   6.088  18.739 -0.2393 -0.1672  0.2574
53362W        W96456  12.096   6.525  17.071  0.3802  0.2527  0.0432
53363W        W96457  14.179   3.358  16.833  0.2687 -0.0474  0.0623
53364W        W96458  13.462   4.695  18.651  0.0602  0.0402  0.1359
53365W        W96459  10.967   5.303  15.882  0.0547  0.0797 -0.0023
53366W        W96460  12.405   4.979  16.263 -0.2480 -0.0198  0.0262
53367W        W96461  14.829   5.418  18.288 -0.3342 -0.0771  0.0263
53368W        W96462  14.376   5.428  16.447  0.2133  0.0783  0.1529
53369W        W96463  11.719   6.839  17.449  0.2822 -0.2692 -0.0841
53370W        W96464  13.057   4.845  18.358 -0.0665 -0.1766 -0.0962
53371W        W96465  11.774   6.145  19.048  0.2066 -0.0556 -0.0295
53372W        W96466  10.520   7.155  15.987 -0.3773 -0.2699 -0.0630
53373W        W96467  12.427   6.182  17.836 -0.2396  0.0681  0.0643
53374W        W96468  11.424   5.977  15.314 -0.2241 -0.1533 -0.1657
53375W        W96469   9.665   3.548  19.081  0.0487 -0.1896 -0.1377
53376W        W96470  12.210   5.256  19.279  0.1904 -0.3525  0.2693
53377W        W96471  13.261   2.357  16.689 -0.0042  0.1484 -0.2975
53378W        W96472  10.168   3.420  18.954 -0.1692  0.1013  0.4563
53379W        W96473  14.126   3.168  17.714  0.0633 -0.1557 -0.0510
53380W        W96474  12.272   6.490  15.421  0.2350  0.0576 -0.2103
53381W        W96475  14.224   8.208  16.768  0.1951 -0.1946  0.1200
53382W        W96476  13.335   3.738  16.836 -0.5327  0.0560  0.2263
53383W        W96477  14.690   6.760  16.152  0.0725  0.2420 -0.2421
53384W        W96478  10.149   4.637  17.759  0.0803 -0.3284 -0.2154
53385W        W96479   9.485   4.494  17.263  0.2445  0.0413 -0.2645
53386W        W96480  10.202   4.329  19.735 -0.1449  0.2258 -0.1372
53387W        W96481  10.273   3.536  18.265  0.0703 -0.0719 -0.0237
53388W        W96482  13.507   5.166  18.407 -0.3462 -0.2909 -0.0244
53389W        W96483  11.770   2.673  15.627  0.2942  0.0948 -0.2367
53390W        W96484  13.678   4.127  16.936  0.4133 -0.0942 -0.3436
53391W        W96485  12.456   4.891  16.941  0.2487  0.1307 -0.2832
53392W        W96486  10.471   5.476  15.838 -0.1483  0.2116  0.0646
53393W        W96487  13.959   3.711  17.878 -0.2620 -0.1480 -0.2301
53394W        W96488  13.830   6.338  17.046 -0.0810 -0.0326 -0.0085
53395W        W96489  14.187   6.990  18.854 -0.1678  0.0800  0.0879
53396W        W96490  14.668   7.526  19.247 -0.1764  0.0597  0.2998
53397W        W96491  12.188   4.381  19.316 -0.1044 -0.3168  0.1644
53398W        W96492  11.280   3.439  17.112  0.0032 -0.0567 -0.1004
53399W        W96493  11.233   6.924  17.347 -0.0962 -0.1511  0.0703
53400W        W96494  13.288   6.731  18.043 -0.2307  0.2693  0.0119
53401W        W96495  12.320   4.130  16.264  0.2200 -0.1686 -0.3860
53402W        W96496  14.631   6.750  18.527 -0.0488  0.0235  0.0820
53403W        W96497  11.962   6.172  16.634 -0.0916  0.0104  0.1220
53404W        W96498  10.675   6.015  18.273  0.0192  0.2241 -0.0581
53405W        W96499  14.365   5.027  18.230  0.1076 -0.3170  0.3466
53406W        W96500  14.546   4.499  17.767 -0.3248  0.0461 -0.1356
53407W        W96501  13.708   4.513  17.317  0.0308 -0.0891 -0.0946
53408W        W96502  11.846   3.922  16.128  0.2555 -0.0788 -0.2786
53409W        W96503  14.096   6.259  18.959 -0.2289  0.2865  0.0849
53410W        W96504  11.236   7.122  15.588  0.0666 -0.3152  0.2822
53411W        W96505  11.710   6.734  16.018  0.0768  0.2016 -0.1795
53412W        W96506  13.190   5.575  16.457  0.0249  0.1774 -0.0457
53413W        W96507  13.663   4.100  17.916 -0.0627  0.0496  0.2508
53414W        W96508  10.397   6.035  17.864 -0.2122 -0.0893  0.1898
53415W        W96509  14.162   4.528  19.650  0.0697  0.1952 -0.0932
53416W        W96510  10.836   4.783  15.444 -0.0965 -0.2272 -0.1513
53417W        W96511  11.937   5.899  17.648  0.3181 -0.0653  0.0696
53418W        W96512  12.631   2.575  17.345  0.2910 -0.1166  0.4589
53419W        W96513  14.071   4.571  16.843 -0.0474  0.3127 -0.2344
53420W        W96514  13.065   4.288  19.186 -0.3485  0.2234  0.0219
53421W        W96515  13.841   6.943  16.567 -0.3478 -0.1059  0.0807
53422W        W96516  12.953   5.390  15.399 -0.1254 -0.1504  0.2198
53423W        W96517  12.704   4.327  17.624 -0.1347 -0.2926  0.2872
53424W        W96518  11.363   4.576  18.226  0.1702 -0.0551  0.0547
53425W        W96519  13.655   6.128  16.584  0.1818  0.1609 -0.1710
53426W        W96520  13.208   6.241  18.009 -0.3860 -0.1314  0.0406
53427W        W96521  13.597   3.738  16.412  0.1048  0.1479 -0.1219
53428W        W96522  14.286   5.788  17.514 -0.2209  0.0353 -0.1856
53429W        W96523  11.549   6.257  16.112  0.0046 -0.4705 -0.1367
53430W        W96524  14.968   5.834  18.114 -0.2330 -0.4914 -0.1420
53431W        W96525  14.587   7.472  18.418  0.3173  0.2102 -0.0812
53432W        W96526  11.726   4.094  19.085  0.0634  0.0246  0.0279
53433W        W96527  11.740   5.361  15.836 -0.0135 -0.0952 -0.0016
53434W        W96528  11.812   3.603  17.410  0.1873  0.1288 -0.1241
53435W        W96529  11.352   7.785  17.463 -0.0854  0.1855 -0.1434
53436W        W96530  13.165   3.567  17.297 -0.3106  0.1364  0.4233
53437W        W96531  12.502   3.959  17.892 -0.0980  0.0639  0.0918
53438W        W96532  12.873   3.075  19.236 -0.1821 -0.3024  0.1112
53439W        W96533  13.876   4.234  20.803  0.0951 -0.1631 -0.1468
53440W        W96534  13.173   4.750  15.467 -0.0607  0.0664 -0.1367
53441W        W96535  13.749   5.316  16.810  0.2931  0.1684  0.0395
53442W        W96536  11.974   5.234  16.243  0.4072 -0.2008  0.1133
53443W        W96537  14.815   4.527  19.393 -0.2807  0.0848 -0.2075
53444W        W96538  11.863   4.967  17.448 -0.1165 -0.1886  0.1382
53445W        W96539  12.722   8.359  18.484  0.0919 -0.0220  0.0599
53446W        W96540  12.658   6.857  18.947  0.1306  0.0043  0.1229
53447W        W96541  12.881   5.972  16.034  0.0401 -0.0081 -0.2478
53448W        W96542  13.433   4.469  18.199  0.1125 -0.0981 -0.1650
53449W        W96543  12.020   3.098  17.710 -0.1162 -0.2305  0.2600
53450W        W96544  12.809   6.174  18.685  0.1502 -0.0510 -0.0150
53451W        W96545  11.805   6.740  15.540  0.0677  0.1919 -0.0776
53452W        W96546  11.210   1.697  17.946  0.0359  0.1889  0.1028
53453W        W96547  12.917   5.339  18.643 -0.0390  0.2290  0.1641
53454W        W96548  12.293   5.942  16.230 -0.1796 -0.2336  0.1542
53455W        W96549  14.109   5.064  19.167 -0.3597  0.0235  0.0782
53456W        W96550  12.747   6.221  18.210  0.2074  0.1061  0.2017
53457W        W96551  13.693   2.767  18.227 -0.1420 -0.1418  0.0655
53458W        W96552  10.837   6.545  17.500 -0.1683  0.0947  0.2481
53459W        W96553  11.609   4.018  17.563  0.0207  0.1674  0.4155
53460W        W96554  11.179   5.245  17.248  0.3025  0.1716  0.2193
53461W        W96555  14.722   1.673  17.236  0.1304  0.1145 -0.0869
53462W        W96556  13.103   4.217  15.337 -0.2355  0.2233 -0.3852
53463W        W96557  11.066   4.020  19.210  0.0036 -0.0169 -0.1442
53464W        W96558  12.867   3.530  16.858 -0.2235 -0.1203 -0.4768
53465W        W96559  11.330   6.781  17.843  0.1869 -0.2284 -0.3728
53466W        W96560  12.862   6.341  17.715  0.0475 -0.0030  0.2984
53467W        W96561  13.062   4.025  15.885 -0.1032 -0.2725  0.0404
53468W        W96562  13.415   6.770  19.329 -0.2442 -0.5125  0.1897
53469W        W96563  10.902   4.750  19.767  0.1811  0.3075 -0.0684
53470W        W96564  12.173   4.919  15.763  0.1073 -0.0267  0.3522
53471W        W96565  14.369   3.689  20.098 -0.1275 -0.3753 -0.0148
53472W        W96566  12.093   4.124  17.635  0.0371  0.0292  0.2087
53473W        W96567  11.440   6.348  16.629  0.0902  0.1325  0.2046
53474W        W96568  12.923   7.380  18.686  0.0953 -0.0219  0.0207
53475W        W96569  12.123   5.681  15.838 -0.1656 -0.1961 -0.3214
53476W        W96570  12.183   4.523  16.645  0.2114  0.0605 -0.0942
53477W        W96571  11.849   3.774  18.449  0.0847 -0.3458  0.0352
53478W        W96572  15.127   3.965  19.664 -0.2417  0.4955 -0.0581
53479W        W96573  13.037   2.657  16.992  0.0044 -0.0577 -0.1077
53480W        W96574  11.402   2.407  18.597  0.0961  0.1811  0.0492
53481W        W96575  12.279   2.741  16.503  0.3203 -0.2489  0.1264
53482W        W96576  13.878   5.294  16.133  0.0856 -0.1536  0.4979
53483W        W96577  12.543   4.920  17.496  0.2279 -0.1978  0.1296
53484W        W96578  13.444   5.228  19.412 -0.0428 -0.1540  0.0215
53485W        W96579  12.484   4.040  16.717  0.0187 -0.1644  0.0049
53486W        W96580  14.762   7.359  16.786  0.0170  0.1104 -0.0149
53487W        W96581  12.171   4.227  18.223  0.2976  0.0458  0.0326
53488W        W96582  11.855   6.233  15.294 -0.1249 -0.1639 -0.1393
53489W        W96583  11.604   5.399  17.667  0.3516 -0.2090 -0.1483
53490W        W96584  12.517   5.530  15.164 -0.0341 -0.0995 -0.1563
53491W        W96585  13.018   4.660  17.397 -0.0422 -0.1481  0.4129
53492W        W96586  12.346   6.079  17.292  0.2941  0.0342 -0.0569
53493W        W96587  10.597   6.050  16.282  0.0240 -0.1498 -0.2779
53494W        W96588  11.571   5.880  16.762 -0.3275  0.1867 -0.3783
53495W        W96589  13.606   4.870  16.697 -0.1433 -0.2032 -0.2057
53496W        W96590  13.558   5.672  15.363  0.2116  0.3686  0.1438
53497W        W96591  11.896   4.593  17.812 -0.1242  0.0289  0.1580
53498W        W96592  14.492   2.571  18.205  0.0324 -0.1116 -0.3453
53499W        W96593  11.983   4.451  16.149 -0.0182 -0.2207 -0.2527
53500W        W96594  14.804   2.818  18.658 -0.0259 -0.0914 -0.1135
53501W        W96595   9.593   2.959  18.877 -0.0259  0.0108  0.3344
53502W        W96596  13.348   6.220  17.020  0.1201 -0.0506  0.1085
53503W        W96597  11.360   3.747  18.262  0.0391  0.2657 -0.3166
53504W        W96598  13.899   5.395  20.101  0.3679  0.0105 -0.3629
53505W        W96599  13.577   4.764  19.346 -0.3079  0.0054 -0.0159
53506W        W96600  12.992   3.423  15.995  0.0666 -0.0112  0.1543
53507W        W96601  11.056   3.917  16.285  0.2320 -0.3098  0.2221
53508W        W96602  11.653   5.222  19.077  0.2731 -0.0856  0.0734
53509W        W96603  14.150   5.355  17.251  0.0670 -0.2344  0.1521
53510W        W96604  13.003   5.921  15.577  0.0560  0.1709 -0.1719
53511W        W96605  13.404   3.588  17.892 -0.0837 -0.1003 -0.0543
53512W        W96606  12.101   5.318  17.811 -0.2911  0.1455 -0.0765
53513W        W96607  11.669   2.798  17.657 -0.2753 -0.4742  0.2017
53514W        W96608  13.110   6.074  16.497 -0.0965 -0.4004 -0.0550
53515W        W96609  11.664   5.325  17.133 -0.0030 -0.2239 -0.2470
53516W        W96610  11.751   3.593  19.058  0.2779  0.1224  0.0202
53517W        W96611  13.177   5.493  17.310 -0.2208  0.0375 -0.1155
53518W        W96612  13.995   2.897  16.521  0.1080 -0.2255 -0.1031
53519W        W96613  13.705   3.298  18.112 -0.0767 -0.2970 -0.2009
53520W        W96614  13.656   5.105  18.974  0.0070  0.1213 -0.1022
53521W        W96615  12.197   6.897  17.620  0.0507  0.1716 -0.1620
53522W        W96616  11.714   2.783  20.386  0.3552 -0.1862  0.1148
53523W        W96617  14.957   7.180  18.335  0.2914 -0.2533  0.0982
53524W        W96618  13.582   4.232  15.913  0.0236 -0.0735  0.3704
53525W        W96619  14.402   3.429  19.106  0.1163 -0.1753 -0.3056
53526W        W96620  14.147   5.050  16.655  0.5423 -0.1999  0.3463
53527W        W96621  12.850   4.852  16.204 -0.2660 -0.2940 -0.3141
53528W        W96622  10.871   4.307  17.634 -0.2357 -0.0162 -0.2314
53529W        W96623  14.814   3.484  19.635  0.0171 -0.1694 -0.1787
53530W        W96624  12.191   3.643  15.386  0.4286  0.1005  0.0545
53531W        W96625  13.791   3.784  18.332  0.0594  0.2375  0.3752
53532W        W96626  14.010   7.141  17.528  0.2023  0.0371  0.0141
53533W        W96627  12.775   5.225  17.150 -0.1202 -0.0836  0.0636
53534W        W96628  12.647   4.585  16.554 -0.0719 -0.0176  0.2640
53535W        W96629  11.056   6.323  15.973  0.1195 -0.0838 -0.1419
53536W        W96630  11.377   7.323  17.611 -0.1787 -0.2801 -0.1159
53537W        W96631  11.391   4.609  15.088 -0.1662  0.1336 -0.2235
53538W        W96632  11.784   5.773  16.272 -0.2989  0.0880  0.0859
53539W        W96633  13.421   6.314  17.507 -0.2349 -0.1678 -0.0162
53540W        W96634  14.617   4.588  19.969  0.2681 -0.0297  0.2390
53541W        W96635  14.391   2.905  16.881  0.1685 -0.3202  0.1504
53542W        W96636  13.912   4.599  18.999 -0.0793  0.1588  0.0176
53543W        W96637  10.786   6.739  15.831  0.0206 -0.1465 -0.0644
53544W        W96638  12.587   2.463  16.840 -0.2859 -0.1908  0.0572
53545W        W96639  12.787   5.797  19.010  0.0865 -0.0917 -0.1016
53546W        W96640   9.537   4.338  19.748 -0.1246 -0.0467 -0.1406
53547W        W96641  12.015   5.678  16.711  0.0780 -0.1953  0.0327
53548W        W96642  11.997   3.836  17.984 -0.3893  0.0014 -0.2853
53549W        W96643  14.006   5.460  17.746  0.2124 -0.2883 -0.2678
53550W        W96644  12.448   5.434  16.137  0.4271 -0.2548 -0.0877
53551W        W96645  15.594   4.320  19.185  0.0438 -0.2212 -0.1217
53552W        W96646  14.381   4.558  19.160 -0.1694 -0.0796 -0.2431
53553W        W96647  12.391   5.141  18.299  0.3974  0.0689 -0.1043
53554W        W96648  13.574   6.640  18.858  0.0889 -0.3706 -0.1750
53555W        W96649  14.582   6.591  16.641 -0.1044 -0.1657  0.0787
53556W        W96650  12.490   5.706  16.982  0.1396 -0.2272 -0.0309
53557W        W96651   9.570   3.600  19.554 -0.3466  0.0779 -0.2569
53558W        W96652  13.114   4.928  19.011  0.0539 -0.2780 -0.3800
53559W        W96653  13.876   4.922  17.177 -0.2542  0.2605  0.2307
53560W        W96654  10.954   2.240  16.136  0.0368 -0.2765  0.0350
53561W        W96655  12.246   6.470  16.290 -0.0484 -0.2836  0.0115
53562W        W96656  10.962   6.002  18.783 -0.0677  0.1734 -0.0070
53563W        W96657  10.993   5.069  17.712  0.1323 -0.1182 -0.3036
53564W        W96658  10.564   7.611  15.834 -0.0025 -0.2740  0.0711
53565W        W96659  13.823   7.023  18.469 -0.0674 -0.1338  0.0828
53566W        W96660  12.934   4.844  16.882  0.2912 -0.1284 -0.3387
53567W        W96661  13.604   5.980  18.259  0.1753 -0.0242  0.0622
53568W        W96662  12.213   4.221  15.589 -0.1296 -0.4233 -0.1768
53569W        W96663  11.867   6.634  16.556  0.1685  0.0256 -0.2034
53570W        W96664  10.129   6.999  16.250 -0.1549 -0.1914  0.0766
53571W        W96665  13.520   6.926  17.540 -0.0798  0.1726 -0.1344
53572W        W96666  10.875   5.811  15.922 -0.1378  0.1308 -0.1667
53573W        W96667  14.720   5.344  20.637  0.1392  0.2386  0.2187
53574W        W96668  13.812   3.501  15.787  0.0406  0.1646 -0.0711
53575W        W96669  14.054   4.391  15.811  0.1538 -0.1184 -0.1056
53576W        W96670  13.349   3.775  15.270 -0.1034 -0.2376 -0.1663
53577W        W96671  14.164   5.947  19.425 -0.1971 -0.1886  0.2197
53578W        W96672  12.933   5.900  17.453 -0.2052  0.1592 -0.3794
53579W        W96673  13.103   3.317  15.193 -0.0621 -0.0770 -0.0084
53580W        W96674  13.115   3.569  19.762  0.5031 -0.2603 -0.2053
53581W        W96675  13.231   4.080  18.551  0.2179  0.2693 -0.1384
53582W        W96676  10.980   6.892  18.341  0.0154  0.0530 -0.0961
53583W        W96677  14.445   7.718  17.547 -0.2710 -0.0532 -0.1061
53584W        W96678  10.886   5.170  16.655  0.1384 -0.1294 -0.0443
53585W        W96679  11.860   4.270  18.610  0.0205 -0.1392 -0.3032
53586W        W96680  14.697   2.592  17.234 -0.1671  0.4153 -0.1271
53587W        W96681  12.733   6.233  15.275  0.0370 -0.0130  0.1107
53588W        W96682  12.871   4.680  17.914  0.1647 -0.2909 -0.3166
53589W        W96683  12.394   6.813  16.652 -0.0669 -0.0564 -0.4110
53590W        W96684  11.780   5.173  18.233 -0.0962  0.4745  0.0535
53591W        W96685  13.360   7.201  18.395  0.1243 -0.0216  0.1020
53592W        W96686  11.284   3.189  16.278  0.3495  0.1521 -0.1027
53593W        W96687  13.946   4.036  17.496 -0.0811 -0.0719  0.2000
53594W        W96688  13.257   2.887  19.738  0.1772 -0.2125 -0.3737
53595W        W96689  13.252   2.991  18.268  0.1071  0.0360  0.3332
53596W        W96690  11.161   4.065  17.974  0.1414 -0.3061 -0.2726
53597W        W96691  13.718   3.239  16.689 -0.0065 -0.0643  0.1221
53598W        W96692  12.632   4.920  18.779 -0.3117 -0.2507 -0.2799
53599W        W96693  10.368   3.819  18.689  0.0298 -0.0412 -0.1685
53600W        W96694  12.447   4.554  15.993 -0.1861 -0.2144 -0.2398
53601W        W96695  15.642   4.818  19.096 -0.1842  0.1098 -0.3827
53602W        W96696  12.965   5.376  16.027  0.2677 -0.4477 -0.1544
53603W        W96697  13.051   6.948  19.567 -0.2148 -0.2548  0.3413
53604W        W96698  10.835   3.570  16.510  0.0994 -0.4024  0.0409
53605W        W96699  12.958   4.136  16.744  0.1840  0.2255 -0.3098
53606W        W96700  11.403   4.933  16.887  0.1382 -0.1406 -0.0002
53607W        W96701  11.761   4.437  17.368  0.4282 -0.1991 -0.0411
53608W        W96702  13.603   5.748  19.157  0.2079 -0.1749  0.2596
53609W        W96703  10.258   3.490  16.733  0.1774 -0.1096 -0.1512
53610W        W96704  13.627   4.657  15.145 -0.2312 -0.0110  0.1068
53611W        W96705  13.080   4.122  17.200  0.3226  0.0971 -0.0798
53612W        W96706  12.918   6.652  18.582 -0.1433  0.1362  0.0002
53613W        W96707  13.910   6.251  16.116  0.1739 -0.0789  0.1619
53614W        W96708  14.310   5.450  19.785 -0.1256 -0.0487  0.3232
53615W        W96709  11.640   4.732  18.664 -0.3452  0.4503 -0.0965
53616W        W96710  13.798   6.887  17.976 -0.1501  0.5595 -0.0983
53617W        W96711  14.439   7.244  17.339  0.3367 -0.1839 -0.1773
53618W        W96712  11.888   3.437  16.375 -0.1496  0.1213  0.1036
53619W        W96713  11.916   4.959  16.933  0.0855  0.1671 -0.1719
53620W        W96714  10.521   6.398  16.753  0.0304  0.0386 -0.1132
53621W        W96715  13.384   3.101  17.739 -0.1379 -0.2570  0.0723
53622W        W96716  13.364   4.835  17.831 -0.0737 -0.0163  0.0331
53623W        W96717  14.331   6.072  16.559 -0.0325 -0.0029 -0.1179
53624W        W96718  13.408   3.491  18.512 -0.0019  0.2364 -0.0345
53625W        W96719  13.403   4.945  17.283 -0.3432 -0.1676  0.3111
53626W        W96720  12.038   6.874  19.527  0.1746  0.0862  0.3378
53627W        W96721  10.446   4.478  15.791 -0.1215  0.2592 -0.1699
53628W        W96722  11.320   4.457  17.739  0.2078  0.2539 -0.0485
53629W        W96723  12.445   5.698  17.600  0.0286  0.2764  0.2896
53630W        W96724  12.347   7.409  16.763 -0.1191 -0.2993 -0.2183
53631W        W96725  13.624   6.582  18.363 -0.2077  0.0073 -0.0756
53632W        W96726  12.889   3.684  18.209  0.2023  0.1402  0.1899
53633W        W96727  14.942   5.812  18.717  0.1660  0.4005  0.0178
53634W        W96728  11.451   4.934  17.871  0.1962  0.2717  0.2697
53635W        W96729  14.386   2.212  17.325  0.2151  0.0781  0.3420
53636W        W96730  13.650   2.943  15.765 -0.1154  0.0257  0.0285
53637W        W96731  11.932   5.657  18.998  0.0010  0.3022 -0.0072
53638W        W96732  11.673   4.852  16.065 -0.1953 -0.0364  0.0457
53639W        W96733  12.470   6.248  15.862  0.0764 -0.2801  0.1303
53640W        W96734  10.507   4.436  18.003 -0.1103  0.0078 -0.0704
53641W        W96735  12.509   3.526  19.674 -0.0707  0.0776  0.1687
53642W        W96736  11.185   3.369  17.907 -0.4697 -0.1413  0.0361
53643W        W96737  10.928   4.814  17.003  0.0894  0.2572  0.2855
53644W        W96738  11.072   2.030  16.603  0.1218 -0.1805  0.0526
53645W        W96739  13.931   5.859  16.960 -0.3370  0.1802 -0.0962
53646W        W96740  12.591   3.953  17.324  0.0676  0.3344  0.2937
53647W        W96741  10.680   2.000  17.512 -0.0184 -0.5529 -0.3552
53648W        W96742  13.390   5.124  16.345  0.3491 -0.0608  0.0668
53649W        W96743  14.760   6.289  17.365  0.2270 -0.0574  0.3727
53650W        W96744  11.803   3.032  15.970  0.1440  0.2033 -0.0900
53651W        W96745  12.672   7.147  19.858  0.0283  0.1283 -0.0024
53652W        W96746  11.494   5.847  15.859 -0.0249 -0.3798  0.0351
53653W        W96747  12.732   4.473  19.694 -0.0932  0.1414  0.0659
53654W        W96748  12.645   4.085  18.629  0.2255 -0.1016 -0.1286
53655W        W96749  11.607   4.428  16.869  0.0205 -0.0821  0.2748
53656W        W96750  13.481   5.836  17.751 -0.0026 -0.3444  0.0232
53657W        W96751  12.319   5.288  16.642  0.0060  0.1542  0.0380
53658W        W96752  13.068   6.644  15.289  0.0623  0.0506 -0.0428
53659W        W96753  13.999   5.943  17.925  0.0953 -0.1558  0.2188
53660W        W96754  13.083   5.327  18.103 -0.1531  0.1037  0.0558
53661W        W96755   9.259   3.871  17.864 -0.1428  0.0680  0.1705
53662W        W96756  13.497   5.492  15.824  0.0014  0.0450 -0.0115
53663W        W96757  12.515   4.618  18.325  0.2026  0.0303 -0.2081
53664W        W96758  14.737   5.706  16.486 -0.0929 -0.0017 -0.0389
53665W        W96759  14.499   3.636  17.862 -0.2460 -0.0478 -0.0466
53666W        W96760  13.346   4.537  16.958  0.4223 -0.0541  0.0378
53667W        W96761   9.912   3.658  18.623 -0.2952  0.0703 -0.0753
53668W        W96762  11.390   4.438  19.051  0.2251  0.2918 -0.2235
53669W        W96763  14.784   5.848  17.598 -0.1082 -0.0528  0.2342
53670W        W96764  11.547   3.521  15.991  0.0660  0.0536 -0.0314
53671W        W96765  13.711   3.456  17.438  0.0589 -0.0313  0.0434
53672W        W96766  14.288   6.320  17.635 -0.4518 -0.0268 -0.1845
53673W        W96767  10.791   3.537  17.316  0.0508 -0.2923 -0.2688
53674W        W96768  11.581   3.948  17.026 -0.1901  0.2092 -0.0593
53675W        W96769  13.945   4.658  18.361  0.1198 -0.1576 -0.2761
53676W        W96770  14.378   7.026  18.232 -0.3175  0.0912 -0.1660
53677W        W96771  14.372   5.546  19.271 -0.0086 -0.2018  0.0456
53678W        W96772  13.183   4.524  16.004  0.0737 -0.0526 -0.0774
53679W        W96773  14.809   6.269  16.415 -0.2317 -0.0649 -0.3778
53680W        W96774  12.806   6.174  20.076  0.2410 -0.0017  0.0582
53681W        W96775  12.803   7.255  19.169  0.0207  0.0749  0.1706
53682W        W96776  13.162   5.706  18.392 -0.1772  0.1592 -0.1729
53683W        W96777  13.990   4.523  17.742 -0.1251 -0.0343  0.0038
53684W        W96778  10.540   3.368  18.656 -0.1677 -0.3531  0.0332
53685W        W96779  11.993   6.371  15.856 -0.1055  0.0933  0.0145
53686W        W96780  11.383   4.337  16.189  0.2369 -0.0510  0.0816
53687W        W96781  13.832   5.010  17.969 -0.1599 -0.2517  0.0526
53688W        W96782  12.258   5.261  17.208  0.1369  0.1352 -0.1625
53689W        W96783  11.944   2.166  17.000  0.1018 -0.4613 -0.0322
53690W        W96784  11.745   6.090  19.513 -0.4143 -0.1184  0.4861
53691W        W96785  12.614   5.319  17.904 -0.0171  0.1790 -0.0190
53692W        W96786  12.862   6.141  22.020  0.1050 -0.1279 -0.1378
53693W        W96787  11.638   6.036  20.881  0.0343  0.2074  0.0110
53694W        W96788  13.873   5.036  19.667 -0.0977  0.1141 -0.0667
53695W        W96789  14.563   6.489  20.874 -0.2153 -0.1382 -0.1015
53696W        W96790  11.401   5.701  21.797 -0.0656 -0.0455 -0.3977
53697W        W96791  12.625   5.510  20.743  0.0593 -0.2019  0.1411
53698W        W96792  12.037   4.914  24.078 -0.0043  0.2473  0.0701
53699W        W96793  14.635   6.956  22.866 -0.2227 -0.1391  0.1929
53700W        W96794  14.855   7.683  22.657  0.1544  0.0940 -0.0493
53701W        W96795  13.218   5.985  18.947 -0.2458  0.1502 -0.4305
53702W        W96796  13.221   3.963  23.044  0.1545  0.2482 -0.0087
53703W        W96797  13.837   5.770  22.947 -0.1016 -0.0077 -0.3627
53704W        W96798  12.463   2.713  21.283 -0.3496  0.0633 -0.1113
53705W        W96799  10.762   4.093  22.149  0.0482 -0.2386 -0.3682
53706W        W96800  13.760   6.222  22.618 -0.0908 -0.0272  0.0479
53707W        W96801  11.444   5.715  19.600  0.0008  0.2771  0.3411
53708W        W96802  12.888   4.729  22.957  0.0412  0.1121 -0.0030
53709W        W96803  12.158   4.879  20.653  0.1441 -0.1764  0.0402
53710W        W96804  12.884   6.508  22.382 -0.0957  0.0836  0.1794
53711W        W96805  12.242   4.103  22.986  0.1528  0.1155  0.1360
53712W        W96806  13.481   4.743  23.609 -0.2671 -0.0689 -0.3927
53713W        W96807  11.932   5.653  19.473  0.0648  0.0432  0.0910
53714W        W96808  11.125   4.111  20.429  0.1316 -0.0722 -0.2831
53715W        W96809  11.538   5.144  22.271 -0.1670 -0.1591  0.0657
53716W        W96810  14.051   6.269  23.000 -0.0140 -0.3038 -0.0075
53717W        W96811  13.305   3.486  23.191  0.1096  0.0602  0.0222
53718W        W96812  14.166   5.374  22.215 -0.3314 -0.0554 -0.1466
53719W        W96813  12.533   7.369  21.432 -0.0953  0.2361  0.1379
53720W        W96814  11.705   6.297  23.250  0.2697  0.1199  0.1967
53721W        W96815  14.578   5.048  23.125  0.1758 -0.1225  0.0028
53722W        W96816  11.725   5.975  22.502  0.1296 -0.0487  0.1179
53723W        W96817  11.599   7.206  21.317 -0.2753  0.1816 -0.2371
53724W        W96818  12.116   6.185  18.280 -0.2935  0.2169 -0.0093
53725W        W96819  13.600   5.936  19.776  0.1227 -0.2337  0.1432
53726W        W96820  15.048   6.698  22.317  0.2143  0.1683 -0.1976
53727W        W96821  12.219   6.192  23.261  0.1364  0.1677 -0.0800
53728W        W96822  10.461   5.830  20.390 -0.1403 -0.1945  0.0209
53729W        W96823  12.504   7.723  22.384  0.1965  0.3612 -0.0307
53730W        W96824  11.646   6.815  23.135  0.0887  0.0447  0.1372
53731W        W96825  14.196   5.278  22.751  0.1779  0.0337 -0.1096
53732W        W96826  12.848   4.880  20.016 -0.1985  0.0599 -0.1401
53733W        W96827  10.895   5.814  19.280  0.0759 -0.0601 -0.0757
53734W        W96828  11.900   6.380  22.177 -0.2755 -0.0390  0.1326
53735W        W96829   9.186   6.227  23.912  0.3447  0.1842  0.0762
53736W        W96830  11.595   7.755  21.189  0.1993 -0.1001 -0.3410
53737W        W96831  14.142   3.849  25.228 -0.0972  0.0675  0.1058
53738W        W96832  11.317   6.181  19.280  0.0313 -0.1327  0.0543
53739W        W96833  12.796   5.762  21.377 -0.0596 -0.1142  0.0740
53740W        W96834  12.623   4.610  19.181  0.4009  0.1325 -0.2506
53741W        W96835  13.394   4.182  20.971  0.2056 -0.0310 -0.0020
53742W        W96836  11.688   5.029  20.695 -0.2082 -0.1057  0.2468
53743W        W96837  12.104   7.336  22.091  0.0034 -0.0449  0.0118
53744W        W96838  12.994   4.423  21.894  0.2602  0.2919  0.2683
53745W        W96839  15.593   5.272  22.251  0.0864  0.1614 -0.0065
53746W        W96840  12.985   5.116  17.652 -0.1338 -0.2757 -0.1636
53747W        W96841  14.213   4.389  21.990  0.1338  0.0652 -0.1734
53748W        W96842  12.387   7.018  21.840  0.2013 -0.1933  0.1491
53749W        W96843  10.796   5.172  20.105 -0.1041 -0.1161 -0.3474
53750W        W96844  13.159   7.173  20.091 -0.1371  0.0403 -0.1166
53751W        W96845  14.339   6.746  21.251  0.0134 -0.2803 -0.2277
53752W        W96846  14.651   5.008  19.055 -0.0502 -0.3610  0.1910
53753W        W96847  12.244   5.767  20.207  0.0674  0.1115  0.0580
53754W        W96848  10.092   5.841  21.780  0.2866 -0.0297 -0.0521
53755W        W96849  13.340   5.771  22.847 -0.3595  0.0873  0.1434
53756W        W96850  12.528   4.969  19.650 -0.1417 -0.1019  0.0841
53757W        W96851  15.105   7.895  23.112 -0.1882 -0.1403  0.0405
53758W        W96852  11.038   6.807  21.965 -0.4216  0.2314  0.0758
53759W        W96853  13.605   3.818  20.606 -0.0605  0.0564 -0.0444
53760W        W96854  11.492   6.598  21.813  0.1571  0.0305  0.2173
53761W        W96855  14.934   6.278  23.598 -0.1821  0.0237 -0.1650
53762W        W96856  14.462   3.904  19.594 -0.1044  0.0070  0.0221
53763W        W96857  14.453   4.384  22.464  0.3860  0.3041 -0.3016
53764W        W96858  12.482   4.295  21.935 -0.1609 -0.0103  0.1100
53765W        W96859  11.523   5.480  18.572 -0.1265 -0.0416 -0.1373
53766W        W96860  11.269   5.895  20.481  0.2753  0.1261  0.0851
53767W        W96861  15.688   6.665  22.484 -0.2358 -0.1515 -0.2021
53768W        W96862  14.269   4.924  20.001 -0.1255 -0.0392 -0.2055
53769W        W96863  12.699   7.335  23.595 -0.2533  0.2300  0.3685
53770W        W96864  12.726   5.019  22.561  0.1772 -0.0397  0.1068
53771W        W96865  13.718   5.517  24.014  0.2859  0.0594 -0.0220
53772W        W96866  10.973   7.090  18.893  0.0495 -0.0459 -0.1202
53773W        W96867  11.962   5.858  22.000  0.0243 -0.1735 -0.1429
53774W        W96868  10.246   5.161  20.724  0.2487  0.0796  0.0300
53775W        W96869  10.998   3.323  22.750 -0.1018  0.0162  0.2117
53776W        W96870  13.402   5.970  22.390  0.1372 -0.0279 -0.0445
53777W        W96871  14.661   2.384  19.489 -0.3404 -0.0518  0.1208
53778W        W96872  11.759   5.367  21.870  0.5986 -0.1919 -0.3327
53779W        W96873  13.635   2.844  22.302  0.1803 -0.1128 -0.0986
53780W        W96874  11.905   6.123  20.243  0.1104  0.0186  0.0628
53781W        W96875  13.647   7.381  21.028  0.0810 -0.1497 -0.1087
53782W        W96876  14.348   4.216  20.935  0.1698  0.0021 -0.0124
53783W        W96877  14.024   5.613  18.835 -0.0186 -0.0923 -0.1704
53784W        W96878  11.893   5.500  22.400  0.2040 -0.0346  0.1885
53785W        W96879  11.400   5.027  20.232  0.0007 -0.1068 -0.1325
53786W        W96880  11.216   3.870  21.332 -0.0098  0.0223 -0.0479
53787W        W96881  11.220   5.401  20.616  0.3113  0.0686 -0.2312
53788W        W96882  14.708   5.960  23.201 -0.0514  0.2385 -0.0295
53789W        W96883  10.349   3.766  21.946  0.2072  0.2262  0.1269
53790W        W96884  13.669   3.726  21.092  0.0982  0.2195  0.1625
53791W        W96885  11.817   5.720  20.476  0.0640  0.3022  0.0669
53792W        W96886  11.959   6.483  19.828  0.3599 -0.0088  0.0013
53793W        W96887  13.650   5.201  24.783  0.0918  0.3189 -0.1477
53794W        W96888  12.694   5.661  19.995  0.5664  0.0826  0.1165
53795W        W96889  15.536   6.847  21.960 -0.1949  0.3395  0.0496
53796W        W96890  13.093   6.221  21.487  0.0623 -0.1196 -0.1115
53797W        W96891  12.408   3.831  22.185  0.2109 -0.1240  0.1405
53798W        W96892  11.041   3.577  20.436 -0.1757  0.0166  0.3993
53799W        W96893  12.406   6.790  20.658 -0.1721  0.0202  0.0696
53800W        W96894  12.395   6.343  22.030  0.0053 -0.0483 -0.1066
53801W        W96895  13.157   4.488  20.011 -0.1933  0.1051 -0.0760
53802W        W96896  13.658   6.904  21.843  0.1528  0.2623 -0.2760
53803W        W96897  12.208   5.995  19.772  0.0354  0.1391 -0.0480
53804W        W96898  12.857   5.883  22.475 -0.1854  0.3655  0.2152
53805W        W96899  13.841   3.807  24.270  0.2296  0.0696  0.2275
53806W        W96900  14.765   5.482  23.387  0.2383  0.2787  0.1829
53807W        W96901  14.000   5.111  21.046 -0.1058  0.1696  0.1675
53808W        W96902  12.180   5.380  20.520  0.1241  0.0718  0.0130
53809W        W96903  13.721   7.423  21.901  0.1585 -0.3088 -0.1981
53810W        W96904  11.461   6.159  19.916  0.1555  0.0916 -0.3191
53811W        W96905  10.076   5.377  21.197  0.0282  0.0619 -0.1235
53812W        W96906  11.790   5.722  21.368 -0.3716  0.2299 -0.1999
53813W        W96907  14.962   2.634  22.985 -0.1407 -0.0057 -0.0782
53814W        W96908  10.869   6.657  22.550  0.0961  0.0422 -0.1191
53815W        W96909  13.945   4.228  22.896 -0.2533 -0.0084  0.1937
53816W        W96910  11.913   4.010  19.794 -0.1994 -0.0058  0.2124
53817W        W96911  12.021   7.827  21.973 -0.0490 -0.0340 -0.0634
53818W        W96912  13.195   3.266  21.042  0.0193 -0.2595 -0.1763
53819W        W96913  14.357   2.617  20.941  0.1847  0.1433  0.2193
53820W        W96914  12.227   6.617  21.616 -0.0680  0.3262  0.0877
53821W        W96915  12.752   6.632  21.727 -0.1061 -0.0126  0.0913
53822W        W96916  14.000   3.788  19.739 -0.3243 -0.0497 -0.0315
53823W        W96917  14.082   4.171  18.161 -0.0668  0.0508 -0.0877
53824W        W96918  11.330   6.603  22.328 -0.2009 -0.0672  0.1002
53825W        W96919  12.087   6.473  19.316 -0.3321 -0.2135  0.3473
53826W        W96920  14.283   5.029  20.549 -0.0077  0.1516  0.0748
53827W        W96921  13.188   3.885  21.309 -0.2859 -0.1011 -0.3128
53828W        W96922  14.031   7.111  21.544  0.0171  0.1038  0.1588
53829W        W96923  10.112   6.516  20.967 -0.2507 -0.0968 -0.3722
53830W        W96924  13.268   5.739  24.084  0.2076 -0.0842 -0.1462
53831W        W96925  13.193   6.491  21.863 -0.1691 -0.1345  0.1593
53832W        W96926  13.683   2.977  22.943 -0.2690  0.1024 -0.0179
53833W        W96927  12.013   4.782  19.750 -0.0569  0.2709 -0.0790
53834W        W96928  13.392   2.803  20.925 -0.1121  0.0570 -0.1178
53835W        W96929  10.666   6.226  19.575 -0.1233  0.0383  0.0745
53836W        W96930  14.472   3.484  22.568  0.0776  0.2025  0.0404
53837W        W96931  12.895   3.710  21.778  0.2602  0.1613  0.0653
53838W        W96932  13.009   4.506  23.434 -0.0958 -0.1126  0.0407
53839W        W96933  14.317   6.073  24.209 -0.1501  0.3049  0.2237
53840W        W96934  12.677   4.936  20.792 -0.2769 -0.0868  0.1080
53841W        W96935  13.341   4.516  22.276 -0.1284 -0.3160  0.0455
53842W        W96936  10.837   4.306  18.411 -0.0510 -0.3120  0.1515
53843W        W96937  13.195   3.660  22.669 -0.3798 -0.2685  0.4778
53844W        W96938  12.202   6.567  23.995 -0.0989  0.0173 -0.0702
53845W        W96939  10.377   7.011  22.867  0.4496 -0.1201  0.0386
53846W        W96940  14.451   6.865  23.351 -0.0426 -0.0460 -0.2128
53847W        W96941  14.155   4.754  21.484 -0.0070  0.1354  0.0481
53848W        W96942  12.582   4.452  24.747  0.0698  0.3071  0.1152
53849W        W96943  12.425   4.976  20.214  0.0930 -0.0292  0.1788
53850W        W96944  11.771   6.964  19.071 -0.1167  0.2445 -0.0196
53851W        W96945  12.278   5.400  19.772 -0.2508 -0.0928 -0.2363
53852W        W96946  11.092   3.422  23.313  0.0941  0.1635  0.2747
53853W        W96947  14.247   6.196  22.360 -0.3894 -0.0880 -0.1545
53854W        W96948  11.822   5.940  18.605  0.3784  0.1113 -0.2587
53855W        W96949  13.643   5.519  21.882  0.1938  0.0936  0.0526
53856W        W96950  11.423   5.729  18.958 -0.2154  0.0290 -0.2155
53857W        W96951  12.045   3.708  21.250  0.0504 -0.1914 -0.2590
53858W        W96952  10.712   6.103  20.761  0.2466 -0.0206  0.2271
53859W        W96953  11.862   4.732  19.138 -0.0023 -0.1003 -0.4096
53860W        W96954  10.991   4.702  20.256 -0.0290  0.1739  0.1473
53861W        W96955  14.094   4.037  22.425  0.1304 -0.0745  0.0546
53862W        W96956  12.587   5.958  20.944 -0.3051 -0.0240  0.2381
53863W        W96957  11.347   4.519  21.533  0.0345  0.1343  0.0076
53864W        W96958  12.535   4.026  22.620  0.0730 -0.1208 -0.0660
53865W        W96959   9.678   6.087  21.179 -0.4477  0.0605  0.3322
53866W        W96960  14.710   5.452  22.889 -0.1263  0.0536 -0.2987
53867W        W96961  13.689   3.197  21.105 -0.0755 -0.1671  0.2722
53868W        W96962  15.239   7.754  22.191 -0.2048  0.0329 -0.1353
53869W        W96963  11.587   5.185  23.403  0.1706  0.0754 -0.3195
53870W        W96964  11.687   5.151  19.771 -0.2457 -0.0082  0.0865
53871W        W96965  14.604   4.767  21.765  0.0016 -0.1612  0.0655
53872W        W96966  11.516   4.940  21.140 -0.0684  0.2151  0.0909
53873W        W96967  10.872   5.635  20.195  0.1724 -0.0284  0.1132
53874W        W96968  14.401   6.329  23.326 -0.2844  0.0716  0.0936
53875W        W96969  12.239   4.570  18.813  0.1715 -0.1854  0.3327
53876W        W96970  11.515   6.412  20.485 -0.2106 -0.2461  0.1887
53877W        W96971  11.985   4.935  22.070  0.2114  0.0097 -0.0110
53878W        W96972  13.507   6.148  21.887 -0.2921  0.2216 -0.0434
53879W        W96973  13.052   3.902  22.174 -0.0946  0.1839 -0.6137
53880W        W96974  11.026   5.195  21.075  0.0989  0.0358  0.1473
53881W        W96975  13.790   3.433  22.855 -0.0230 -0.0347  0.3165
53882W        W96976  12.177   5.553  21.560 -0.0258  0.0175  0.1352
53883W        W96977  12.959   4.271  22.701  0.2367  0.0821 -0.1110
53884W        W96978  12.500   6.878  23.450  0.1469  0.1020 -0.1276
53885W        W96979  13.181   3.353  22.309 -0.4019  0.0673 -0.2544
53886W        W96980  13.452   6.271  20.168  0.1656 -0.0586 -0.0728
53887W        W96981  13.709   3.810  23.169  0.0404 -0.0628 -0.2093
53888W        W96982  11.184   5.173  19.710  0.0130  0.1265 -0.1781
53889W        W96983  11.477   6.109  22.056  0.2951  0.0594  0.1781
53890W        W96984  10.839   6.153  20.247 -0.0176 -0.0611  0.1982
53891W        W96985  12.666   3.643  23.066 -0.1861 -0.0556 -0.0114
53892W        W96986  10.670   6.565  21.077  0.0461  0.2258  0.0788
53893W        W96987  11.390   6.222  18.745 -0.1163  0.1529  0.1927
53894W        W96988  12.787   7.360  22.855 -0.0667  0.0207  0.0976
53895W        W96989  12.894   4.005  19.601  0.1193 -0.2660 -0.2117
53896W        W96990  14.680   5.160  20.103 -0.1714 -0.1580 -0.1193
53897W        W96991  13.934   3.465  21.493 -0.3137  0.1370  0.1563
53898W        W96992  14.438   5.921  24.721  0.1251 -0.1714 -0.2530
53899W        W96993  15.029   5.990  19.157 -0.1864 -0.0907  0.1285
53900W        W96994  14.128   4.065  23.704  0.1481 -0.0330  0.2268
53901W        W96995  10.990   4.831  22.289 -0.1596 -0.4807 -0.0338
53902W        W96996  11.965   5.207  21.215 -0.0238  0.0660  0.1616
53903W        W96997  11.763   4.163  22.412  0.3863  0.0573 -0.1223
53904W        W96998  13.735   6.130  25.251  0.0113 -0.2225  0.2742
53905W        W96999  10.662   6.451  22.159 -0.1071 -0.0924 -0.4352
53906W        W97000  13.619   3.865  21.597  0.3541 -0.0040  0.2046
53907W        W97001  11.414   4.342  20.832 -0.1433  0.0129 -0.1209
53908W        W97002  13.692   5.515  22.438  0.2267 -0.1352  0.1179
53909W        W97003  14.490   5.893  22.040  0.0687 -0.1339 -0.2090
53910W        W97004  12.452   4.467  20.595  0.0255 -0.2526 -0.2887
53911W        W97005  13.564   4.845  21.289  0.0635 -0.1356  0.3142
53912W        W97006  12.699   5.237  21.763 -0.0519 -0.2071 -0.0147
53913W        W97007  14.934   3.743  22.675 -0.0413 -0.0932  0.2420
53914W        W97008  13.419   4.928  19.963 -0.0154  0.0954  0.0466
53915W        W97009  12.618   6.307  21.333 -0.1534 -0.0932  0.3489
53916W        W97010  12.431   5.675  24.583 -0.0436  0.1127 -0.0076
53917W        W97011  14.222   5.456  20.740  0.2033  0.1662  0.1642
53918W        W97012  13.916   4.485  23.906  0.0085 -0.2086 -0.0581
53919W        W97013  13.716   5.195  22.904  0.1598  0.0568  0.0049
53920W        W97014  13.197   3.865  23.539  0.0356 -0.1322  0.0704
53921W        W97015  11.552   4.695  23.131 -0.3386  0.0982 -0.2059
53922W        W97016  11.196   4.247  22.328 -0.0136 -0.0683 -0.0351
53923W        W97017  14.206   6.693  22.423 -0.2017  0.0569 -0.2812
53924W        W97018  13.555   4.374  20.452 -0.0593 -0.1019 -0.0264
53925W        W97019  14.175   4.206  21.548  0.2026  0.2332 -0.2022
53926W        W97020  13.342   4.295  21.541 -0.2240  0.1956  0.3263
53927W        W97021  13.733   4.167  19.718  0.0441 -0.0845 -0.0388
53928W        W97022  11.974   5.897  22.877 -0.1502  0.1930  0.2094
53929W        W97023  13.502   5.710  24.560  0.1529 -0.0202  0.2239
53930W        W97024  13.061   4.832  19.483 -0.1638 -0.1754  0.1610
53931W        W97025  12.924   5.455  22.753 -0.3405  0.0552  0.2161
53932W        W97026  12.960   6.572  19.844 -0.0364  0.1829  0.1147
53933W        W97027  12.691   4.498  22.367 -0.2054 -0.1139 -0.2005
53934W        W97028  11.893   4.791  20.273  0.0620  0.1968 -0.2201
53935W        W97029  10.145   6.496  21.887 -0.0710  0.0928  0.0901
53936W        W97030  10.765   7.270  23.527 -0.1205  0.2928  0.0444
53937W        W97031  12.188   3.996  18.811 -0.0595  0.0873  0.0474
53938W        W97032  13.425   5.267  20.354 -0.3007  0.1241  0.2862
53939W        W97033  13.317   5.291  22.168  0.0090  0.0953 -0.0052
53940W        W97034  15.211   6.607  24.206  0.1763 -0.2227 -0.1190
53941W        W97035  13.655   3.552  18.960  0.0309 -0.2972  0.1301
53942W        W97036  14.348   5.577  24.349  0.2233  0.0177  0.0780
53943W        W97037  11.000   5.985  17.932 -0.0046  0.2249  0.2492
53944W        W97038  12.764   3.136  22.940 -0.4110 -0.0842  0.0803
53945W        W97039  11.371   7.684  22.338  0.0088  0.1330 -0.1686
53946W        W97040  12.338   6.770  22.363 -0.1317  0.0140 -0.1589
53947W        W97041  12.432   7.251  20.971 -0.0613  0.1031  0.1914
53948W        W97042  13.764   4.286  21.868 -0.2345 -0.0562  0.2783
53949W        W97043  13.825   4.724  22.861 -0.0671 -0.1646  0.0180
53950W        W97044  13.335   4.817  23.136 -0.0146 -0.1099  0.2578
53951W        W97045  15.507   5.708  24.059  0.1118  0.1432  0.2611
53952W        W97046  14.230   5.786  22.603  0.3824  0.1717  0.0145
53953W        W97047  10.238   4.554  20.645  0.1213 -0.2139 -0.2015
53954W        W97048  13.659   7.439  23.516 -0.0195  0.1120 -0.0079
53955W        W97049  15.353   5.925  21.751  0.2100 -0.1169 -0.0388
53956W        W97050  13.081   6.251  20.549 -0.2092  0.1803 -0.0840
53957W        W97051  11.574   4.675  22.357  0.1492  0.4045  0.3052
53958W        W97052  13.639   5.874  23.713  0.1753 -0.2273  0.3280
53959W        W97053  13.512   4.308  23.293 -0.0777 -0.0884  0.0655
53960W        W97054  12.710   3.722  21.081 -0.3515  0.0563 -0.1441
53961W        W97055  12.604   5.628  18.351 -0.0226  0.1440  0.0157
53962W        W97056   9.904   6.730  24.279 -0.0903  0.0114 -0.0126
53963W        W97057  12.579   5.728  21.876  0.0146  0.0844  0.3071
53964W        W97058  11.918   6.962  18.504  0.0264  0.1601  0.1873
53965W        W97059  13.177   5.847  19.415  0.0786 -0.0557 -0.0677
53966W        W97060  13.757   5.457  20.726 -0.0210  0.0931 -0.0901
53967W        W97061  13.536   6.223  23.120  0.0533 -0.1922  0.0849
53968W        W97062  13.113   5.085  21.227  0.2063  0.1661  0.1257
53969W        W97063  10.731   6.716  20.245  0.2768 -0.3010  0.2836
53970W        W97064  11.187   5.005  18.899 -0.0325 -0.1068  0.1765
53971W        W97065  12.734   6.689  20.316 -0.2858 -0.1161 -0.2287
53972W        W97066  11.537   7.096  19.579  0.0055 -0.2029  0.2321
53973W        W97067  14.821   6.736  23.723  0.1022 -0.0334  0.0517
53974W        W97068  13.843   4.574  20.056 -0.2309 -0.2596  0.1930
53975W        W97069  14.847   4.507  20.928  0.3297  0.1307 -0.1214
53976W        W97070  14.215   4.163  20.027 -0.0779  0.1621 -0.0754
53977W        W97071  13.420   6.466  23.631 -0.1460 -0.2497  0.2241
53978W        W97072  13.008   4.871  22.161  0.1093  0.1824 -0.0164
53979W        W97073  13.300   3.134  18.934 -0.0543 -0.2227  0.0300
53980W        W97074  11.409   4.847  21.916 -0.2862  0.0782  0.1311
53981W        W97075  15.189   3.214  24.058  0.0681  0.1490  0.0145
53982W        W97076  11.614   7.697  22.863 -0.0115 -0.0273 -0.0888
53983W        W97077  14.460   6.824  20.530 -0.2806 -0.0699 -0.0056
53984W        W97078  12.313   3.381  19.255  0.2257 -0.2027 -0.3378
53985W        W97079  12.593   6.346  20.663 -0.2202  0.1697  0.1175
53986W        W97080  14.793   3.075  21.786 -0.0162  0.2066 -0.0124
53987W        W97081  14.570   6.109  18.483 -0.1018 -0.0002  0.1030
53988W        W97082  13.438   4.448  22.808  0.0215  0.1511  0.2229
53989W        W97083  13.179   5.789  20.138  0.2027  0.2316 -0.1780
53990W        W97084  12.299   6.062  21.626 -0.1496  0.0130 -0.1186
53991W        W97085  13.821   5.547  23.379  0.0287  0.0275 -0.0557
53992W        W97086   9.926   3.965  19.624 -0.1230  0.1867  0.0367
53993W        W97087  13.716   5.025  22.267  0.0813  0.1867  0.0366
53994W        W97088  11.897   5.423  23.056  0.0958 -0.0742  0.1351
53995W        W97089  13.578   4.242  24.222  0.2040 -0.0054  0.0463
53996W        W97090  13.527   4.072  22.269 -0.0779 -0.2877 -0.0564
53997W        W97091  14.905   3.182  20.508 -0.1704 -0.2043 -0.0439
53998W        W97092  13.048   6.160  22.934 -0.0443  0.0121 -0.4581
53999W        W97093  12.222   5.036  22.487  0.1197 -0.2450  0.1754
54000W        W97094  12.069   5.082  18.690 -0.2455 -0.1317 -0.2628
54001W        W97095  15.050   6.310  22.681 -0.0883  0.0698 -0.2457
54002W        W97096  13.016   5.378  19.740  0.0154 -0.1594  0.0547
54003W        W97097  14.523   7.749  23.461  0.1285  0.1629 -0.3179
54004W        W97098  12.055   4.511  21.781 -0.0582  0.3178  0.5249
54005W        W97099  13.853   3.525  20.253  0.1500  0.2481 -0.3734
54006W        W97100  12.749   5.878  20.436 -0.0519  0.0372 -0.1895
54007W        W97101  11.384   6.600  23.586 -0.1705  0.2840  0.1035
54008W        W97102  14.140   7.083  23.754 -0.1610  0.1221  0.2221
54009W        W97103  10.574   4.473  20.134  0.0942 -0.0109 -0.0022
54010W        W97104  12.849   5.340  20.332  0.1679 -0.0342 -0.1086
54011W        W97105  13.853   4.468  22.397 -0.0591 -0.0300 -0.0909
54012W        W97106  13.184   5.453  19.053 -0.0125 -0.3171 -0.2071
54013W        W97107  13.172   5.771  21.982  0.0729  0.3443 -0.2227
54014W        W97108  13.083   6.037  21.031 -0.2490  0.1974  0.2250
54015W        W97109  10.871   4.085  20.914 -0.2286  0.3016  0.2105
54016W        W97110  15.400   6.238  23.243 -0.2213 -0.1642  0.3092
54017W        W97111  14.781   6.262  22.245 -0.0425 -0.1204 -0.1583
54018W        W97112  13.169   3.726  20.814  0.1494 -0.0040  0.3982
54019W        W97113  11.702   5.491  20.883  0.2695 -0.2978  0.0471
54020W        W97114  11.861   6.477  18.620  0.2061  0.0299 -0.3268
54021W        W97115  14.042   4.641  20.919  0.2523 -0.1079 -0.3163
54022W        W97116  13.909   5.242  24.379 -0.0641  0.2944 -0.0990
54023W        W97117  11.525   6.208  21.308 -0.0686  0.1503 -0.0880
54024W        W97118  14.323   3.333  24.317 -0.1084 -0.5259  0.0342
54025W        W97119  13.342   6.495  24.220 -0.3237  0.1674 -0.0112
54026W        W97120  10.801   6.479  24.371 -0.1158 -0.0385  0.0882
54027W        W97121  10.414   4.846  19.816 -0.3087  0.1670 -0.1910
54028W        W97122  11.959   6.047  23.622 -0.1371 -0.0881  0.3785
54029W        W97123  12.316   5.887  19.215  0.0301  0.3146 -0.1000
54030W        W97124  13.252   6.325  19.583 -0.0701  0.2185  0.0692
54031W        W97125  15.367   7.277  21.784  0.2424 -0.2096 -0.0637
54032W        W97126  14.400   3.103  20.546 -0.1577 -0.1401 -0.1631
54033W        W97127  15.133   7.398  21.348  0.1305 -0.0846 -0.1785
54034W        W97128  11.522   3.838  22.111  0.0825 -0.0785  0.0085
54035W        W97129  14.981   3.610  20.075  0.0342 -0.3428  0.0530
54036W        W97130  13.135   2.435  21.286  0.3136  0.1994 -0.0372
54037W        W97131  12.753   5.418  22.231 -0.0479 -0.2850  0.1006
54038W        W97132  10.770   5.623  21.094 -0.0357  0.0959 -0.0836
54039W        W97133  12.429   4.094  19.677 -0.0899 -0.2893  0.2757
54040W        W97134  12.281   6.594  21.114  0.0129 -0.0168  0.1311
54041W        W97135  11.671   5.274  24.069 -0.3002 -0.0833  0.0288
54042W        W97136  11.463   5.524  23.664 -0.1712  0.2556 -0.1101
54043W        W97137  10.006   4.529  23.355 -0.1214 -0.0172  0.1065
54044W        W97138  11.353   5.504  20.109 -0.2735 -0.0462 -0.2165
54045W        W97139  14.421   6.862  21.781  0.1016 -0.1582 -0.0758
54046W        W97140  11.780   4.224  21.434 -0.1775  0.0521 -0.2892
54047W        W97141  11.124   4.866  20.680 -0.3707 -0.2033 -0.3288
54048W        W97142  12.173   5.630  21.024 -0.0326 -0.2533  0.0434
54049W        W97143  12.664   6.863  21.219  0.0983 -0.0394  0.2011
54050W        W97144  12.503   4.795  21.996  0.0593 -0.2998 -0.0643
54051W        W97145  14.920   7.026  23.291  0.0874 -0.3240  0.0434
54052W        W97146  10.933   4.894  19.307  0.0638  0.0866  0.1666
54053W        W97147  12.557   5.297  23.598  0.0029  0.1459  0.1497
54054W        W97148  11.250   4.616  22.708  0.1434  0.1720 -0.1243
54055W        W97149  11.454   4.561  20.351 -0.2990  0.5204  0.0598
54056W        W97150  13.475   4.759  21.765 -0.3744  0.0263 -0.0334
54057W        W97151  13.379   7.206  20.534  0.2725 -0.1234  0.3461
54058W        W97152  13.495   5.414  19.893 -0.0350 -0.1606 -0.0674
54059W        W97153  12.386   5.482  22.581 -0.1087 -0.1492 -0.1294
54060W        W97154  13.981   6.932  24.219  0.0508 -0.0485 -0.1776
54061W        W97155  10.734   5.233  22.331  0.2159 -0.2358 -0.1034
54062W        W97156  13.193   5.381  21.605 -0.0458 -0.0605 -0.2234
54063W        W97157  13.384   5.299  23.400 -0.0227  0.0335 -0.3973
54064W        W97158  15.626   4.371  20.123  0.1677 -0.0402 -0.0895
54065W        W97159  14.599   3.205  20.066  0.2103  0.0082  0.0538
54066W        W97160  13.110   4.597  21.245  0.0116  0.3031  0.1236
54067W        W97161  11.749   4.049  23.078  0.1827 -0.3839  0.0085
54068W        W97162  12.209   5.949  22.418 -0.2086 -0.1195  0.2978
54069W        W97163  14.504   5.884  20.855 -0.4453  0.0828 -0.0134
54070W        W97164  10.515   4.587  22.125 -0.1322  0.1254 -0.0741
54071W        W97165  13.307   4.421  19.559 -0.0360 -0.1173 -0.0153
54072W        W97166  13.147   5.516  21.080  0.0323 -0.0106  0.1937
54073W        W97167  12.123   4.564  22.363  0.2683  0.1541  0.0825
54074W        W97168  12.262   5.033  21.601 -0.0652  0.1522  0.0532
54075W        W97169  14.316   5.226  23.469 -0.1211 -0.2455  0.2839
54076W        W97170  13.018   4.878  21.670 -0.2639 -0.2651 -0.0326
54077W        W97171  13.844   7.052  20.669 -0.0771 -0.1315 -0.3968
54078W        W97172  11.428   5.285  21.472 -0.0439 -0.0607 -0.1680
54079W        W97173  13.576   5.356  21.289 -0.1055 -0.1233  0.0566
54080W        W97174  13.291   6.909  24.956  0.0880 -0.1413 -0.0389
54081W        W97175  13.524   6.287  24.697  0.0084 -0.2665 -0.1778
54082W        W97176  13.908   6.506  23.422 -0.0470 -0.1313 -0.0527
54083W        W97177  13.984   6.635  21.554  0.1677  0.1884  0.0832
54084W        W97178  10.327   3.911  21.272 -0.1733 -0.2311  0.2826
54085W        W97179  11.460   6.646  20.959  0.2585  0.0194 -0.0506
54086W        W97180  12.146   6.064  20.723 -0.2131 -0.0299  0.0106
54087W        W97181  14.328   4.553  22.903 -0.0464  0.0554  0.1919
54088W        W97182  12.518   4.623  21.546 -0.4182  0.1416  0.1653
54089W        W97183  12.628   5.343  21.277 -0.3444 -0.2851 -0.1252
54090W        W97184  11.621   7.399  21.999 -0.2526 -0.3640 -0.0403
54091W        W97185  13.906   4.951  23.336 -0.1674 -0.0523  0.1985
54092W        W97186  13.937   6.271  25.710 -0.0876 -0.2981  0.1467
54093W        W97187  12.785   5.571  24.124 -0.0254 -0.2325  0.3081
54094W        W97188  14.295   5.694  23.141  0.1365  0.0126  0.1498
54095W        W97189  15.086   5.477  23.846 -0.0615 -0.3022  0.3739
54096W        W97190  12.035   5.078  25.290  0.3386 -0.0552 -0.1910
54097W        W97191  14.537   8.400  24.352  0.0593 -0.2130 -0.1736
54098W        W97192  12.028   3.200  25.024  0.1625  0.0810 -0.1480
54099W        W97193  13.162   8.613  25.822 -0.1770 -0.3090 -0.2691
54100W        W97194  15.321   7.380  25.774 -0.1439 -0.1138 -0.3011
54101W        W97195  12.875   6.173  23.455  0.2299 -0.0833  0.1440
54102W        W97196  11.322   3.737  26.980  0.0284 -0.0406 -0.0354
54103W        W97197  12.910   6.876  25.291  0.0510 -0.0232  0.1221
54104W        W97198  12.433   4.689  25.926 -0.0199  0.0832 -0.2631
54105W        W97199  10.900   2.909  25.889 -0.1174  0.1634 -0.3433
54106W        W97200  14.550   4.634  26.273 -0.2395  0.2914 -0.2138
54107W        W97201  11.122   5.254  23.906 -0.0456  0.1089  0.0450
54108W        W97202  11.375   4.501  25.787  0.1826 -0.2239 -0.2838
54109W        W97203  13.190   5.981  24.930  0.2940 -0.0508 -0.1053
54110W        W97204  12.847   7.722  25.303  0.0854 -0.1655 -0.0335
54111W        W97205  11.996   5.362  26.610 -0.0670  0.1425 -0.0994
54112W        W97206  12.320   2.015  26.906 -0.2180 -0.0628 -0.0649
54113W        W97207  12.866   7.615  24.033 -0.0534 -0.0439  0.0914
54114W        W97208  11.258   6.323  24.074  0.2862  0.0125  0.1718
54115W        W97209   9.870   4.646  25.052 -0.1303  0.0572  0.2996
54116W        W97210  13.201   5.606  26.480  0.0263  0.1705  0.1937
54117W        W97211  12.865   3.862  26.505  0.1135 -0.1665  0.1468
54118W        W97212  14.160   2.720  25.114 -0.0435  0.1208  0.0771
54119W        W97213  13.226   6.421  26.323  0.1111 -0.1400  0.1482
54120W        W97214  14.336   6.897  24.638  0.0525  0.1934 -0.0206
54121W        W97215  12.675   4.732  27.391 -0.2149 -0.0856  0.3194
54122W        W97216  11.693   6.295  24.466 -0.2022 -0.2167 -0.0314
54123W        W97217   9.849   7.076  23.842  0.0983 -0.3129  0.1765
54124W        W97218  13.003   6.457  24.954 -0.0034  0.3029  0.2006
54125W        W97219  15.089   5.560  25.796 -0.2688  0.0001  0.0711
54126W        W97220  13.864   7.640  24.828  0.1116  0.2439 -0.0376
54127W        W97221  11.578   6.692  26.587  0.0707  0.1239 -0.0296
54128W        W97222  10.494   6.881  24.011 -0.3185 -0.0479  0.1643
54129W        W97223  13.585   7.120  27.264  0.1458  0.2343  0.3496
54130W        W97224  12.443   6.585  26.979  0.1776  0.2942  0.1709
54131W        W97225  13.600   4.631  26.478 -0.1284  0.2936  0.0056
54132W        W97226  13.083   6.989  26.218  0.3504 -0.1040 -0.0797
54133W        W97227  13.024   6.231  24.505  0.0307  0.0158  0.2392
54134W        W97228  13.559   5.476  26.062 -0.0660  0.2110 -0.1890
54135W        W97229  12.157   5.309  28.153  0.0688 -0.2976  0.0355
54136W        W97230  10.334   6.087  26.029 -0.1374 -0.0393 -0.0981
54137W        W97231  14.304   3.324  26.007 -0.0156  0.2106 -0.0897
54138W        W97232  11.275   6.588  24.573 -0.1317  0.0635 -0.2242
54139W        W97233  14.111   5.484  24.831  0.0700 -0.2869 -0.0750
54140W        W97234  13.278   5.895  23.280  0.0099  0.1042 -0.1731
54141W        W97235  13.273   3.871  24.587  0.2746  0.1641 -0.1071
54142W        W97236  13.204   4.913  25.514  0.1396 -0.1717  0.2039
54143W        W97237  11.197   7.271  25.995  0.1207  0.0251 -0.0885
54144W        W97238  11.893   3.591  25.614  0.1756 -0.1651  0.2408
54145W        W97239  14.189   4.933  25.596 -0.0574  0.1990  0.0617
54146W        W97240  12.976   6.270  25.421  0.1177  0.0745  0.1246
54147W        W97241  14.165   4.518  27.483 -0.0019  0.3815 -0.0153
54148W        W97242  11.584   6.670  28.077 -0.0291  0.1692 -0.2049
54149W        W97243  10.097   4.746  25.466 -0.1493 -0.0244  0.2452
54150W        W97244  14.339   7.729  22.922 -0.0043 -0.0538 -0.1272
54151W        W97245  16.323   5.769  24.615 -0.3669  0.1799  0.0085
54152W        W97246  13.624   6.913  23.783  0.0940  0.0417  0.1472
54153W        W97247  10.171   3.714  24.496  0.0435  0.2281  0.0132
54154W        W97248  11.540   5.179  26.442  0.3493 -0.3154  0.2196
54155W        W97249  11.109   5.868  26.755  0.0232  0.3253 -0.2832
54156W        W97250  12.560   5.195  23.013 -0.0890 -0.0543 -0.2574
54157W        W97251  14.442   4.968  26.597  0.0983 -0.2903 -0.0323
54158W        W97252  10.932   7.543  28.185  0.0106 -0.1100  0.1982
54159W        W97253  14.257   4.328  25.533 -0.1013 -0.1631 -0.0447
54160W        W97254  12.485   6.360  23.633  0.0382 -0.2774 -0.0363
54161W        W97255  12.930   7.754  24.823 -0.0853 -0.0292  0.0928
54162W        W97256  16.227   6.551  24.401  0.1044 -0.2586  0.0340
54163W        W97257  13.269   4.139  26.533 -0.0878 -0.0610  0.3231
54164W        W97258  14.566   3.093  25.680  0.0790  0.2370  0.2087
54165W        W97259  12.699   5.477  24.971 -0.0456  0.1547 -0.5487
54166W        W97260  12.551   5.767  22.975 -0.0010  0.0347 -0.1135
54167W        W97261  13.844   7.161  25.840  0.0435 -0.1647  0.0354
54168W        W97262  13.345   5.233  24.353  0.0299 -0.0224 -0.1780
54169W        W97263  11.563   6.566  26.007  0.0890  0.1149  0.3681
54170W        W97264  11.430   3.351  26.661  0.2615  0.2856 -0.2600
54171W        W97265  12.912   7.250  25.748  0.1540 -0.0273 -0.2260
54172W        W97266  11.026   7.323  24.623 -0.2095 -0.3013 -0.1093
54173W        W97267  11.044   6.444  26.815  0.0310 -0.0111  0.2878
54174W        W97268  11.619   5.789  23.234  0.1256  0.0624 -0.2482
54175W        W97269  11.633   5.923  24.065  0.2848  0.0509 -0.1657
54176W        W97270  11.533   5.646  24.773 -0.3023  0.0683 -0.1865
54177W        W97271  13.587   5.156  25.264 -0.1037 -0.0707 -0.1964
54178W        W97272  11.610   5.557  26.071 -0.3116  0.2430 -0.2417
54179W        W97273  14.663   4.107  25.719 -0.0538 -0.0141 -0.2578
54180W        W97274  11.684   6.860  24.474 -0.4697 -0.3211 -0.2325
54181W        W97275  13.994   7.332  24.472 -0.0092 -0.1009 -0.0888
54182W        W97276  14.452   4.740  25.259  0.6189  0.1622 -0.2588
54183W        W97277  14.200   7.602  23.779  0.2144 -0.3672  0.1539
54184W        W97278  10.920   4.946  25.655 -0.1723  0.1346  0.0613
54185W        W97279  10.540   5.320  25.673  0.1415 -0.0294  0.0665
54186W        W97280  13.277   3.630  27.778  0.1628  0.1854  0.2495
54187W        W97281  11.573   4.805  25.457  0.0407  0.0243 -0.1480
54188W        W97282  15.187   4.362  27.652  0.1563 -0.2386 -0.0077
54189W        W97283  10.813   4.063  25.045  0.0537  0.2902 -0.1137
54190W        W97284  13.000   5.440  25.978 -0.0177  0.3864  0.1559
54191W        W97285  13.433   6.029  25.613 -0.1722  0.1594 -0.1197
54192W        W97286  10.112   6.181  25.164  0.0472  0.1663  0.0450
54193W        W97287  16.085   3.087  27.995  0.1942 -0.1051  0.0534
54194W        W97288  14.705   7.477  24.599  0.0713  0.3982  0.1474
54195W        W97289  14.039   7.146  26.342  0.0085  0.3454  0.1106
54196W        W97290  14.713   7.663  23.952 -0.2788  0.2914 -0.1169
54197W        W97291  11.884   5.546  25.250  0.3118  0.0411 -0.1778
54198W        W97292  12.950   5.767  25.571  0.1729  0.0675  0.1441
54199W        W97293  10.775   6.806  24.836  0.2115 -0.3472  0.1732
54200W        W97294  11.732   6.423  23.920 -0.2220 -0.2555 -0.1054
54201W        W97295  12.435   5.887  25.963  0.2145  0.0862  0.1275
54202W        W97296  15.075   7.303  25.292  0.1588 -0.2274  0.0844
54203W        W97297  14.776   6.787  25.356  0.0519 -0.0072 -0.3752
54204W        W97298  12.090   5.909  26.754  0.4510  0.0024  0.1057
54205W        W97299  13.802   4.129  25.714 -0.3335  0.2391 -0.1035
54206W        W97300  15.037   4.833  26.109 -0.2094 -0.1448  0.2589
54207W        W97301  13.844   3.721  26.521 -0.2003 -0.2288 -0.0870
54208W        W97302  12.559   4.396  24.188 -0.0384 -0.2262 -0.4156
54209W        W97303  11.894   7.108  24.860 -0.4581 -0.3075  0.1149
54210W        W97304  12.143   6.710  24.543  0.0391  0.3824 -0.0183
54211W        W97305  11.437   4.615  24.852 -0.2098  0.0974 -0.0818
54212W        W97306  12.749   7.021  23.977 -0.1413 -0.0952 -0.0725
54213W        W97307  14.361   3.877  26.589  0.1169  0.1258  0.1800
54214W        W97308  10.001   5.409  28.497  0.0379  0.0740  0.0658
54215W        W97309  13.026   5.080  27.630 -0.1495  0.0077  0.1748
54216W        W97310  11.313   5.480  24.314  0.0597  0.1365 -0.1085
54217W        W97311  12.122   4.859  27.899  0.2480 -0.1845 -0.0357
54218W        W97312  13.089   4.971  25.069  0.0171 -0.3922  0.1575
54219W        W97313  13.823   4.778  24.560  0.2657  0.2669 -0.1036
54220W        W97314  12.748   5.895  27.441 -0.0333  0.0430 -0.0947
54221W        W97315  14.593   4.614  25.805  0.0428 -0.0027  0.2859
54222W        W97316  14.154   5.727  23.867  0.0353  0.4908  0.0541
54223W        W97317  13.733   3.751  23.797 -0.3243 -0.0336 -0.0336
54224W        W97318  11.309   6.267  27.609  0.2602  0.0685 -0.2789
54225W        W97319  14.657   5.743  26.003 -0.0140 -0.0493 -0.0669
54226W        W97320  13.684   7.269  25.136 -0.2794  0.1052  0.0457
54227W        W97321  12.974   5.740  24.547  0.0514 -0.1898  0.2411
54228W        W97322  13.183   7.136  23.627  0.0336 -0.3203  0.0937
54229W        W97323  12.516   6.430  26.108  0.0986  0.1193 -0.0660
54230W        W97324  12.547   5.267  27.401 -0.1899 -0.0096  0.0965
54231W        W97325  14.157   7.268  24.960  0.0096  0.0731  0.1605
54232W        W97326  11.741   4.407  25.245 -0.0683 -0.0856 -0.2139
54233W        W97327  11.330   6.069  22.807 -0.2153 -0.2895 -0.2263
54234W        W97328  12.933   5.043  23.356  0.1597  0.0059 -0.0168
54235W        W97329  10.500   6.873  23.497  0.1678  0.0554  0.2942
54236W        W97330  14.632   4.282  26.710 -0.0477  0.2770  0.1307
54237W        W97331  13.820   3.709  25.993 -0.2553 -0.0196 -0.2132
54238W        W97332  14.026   4.016  26.980 -0.2000  0.0762  0.2685
54239W        W97333  13.928   5.067  27.201 -0.2187 -0.1801 -0.1217
54240W        W97334  13.636   5.629  25.083  0.1618 -0.0483  0.2013
54241W        W97335  13.123   4.641  26.497 -0.2232  0.1065 -0.1541
54242W        W97336  12.093   6.018  24.236 -0.0277  0.1649 -0.1330
54243W        W97337  12.837   3.162  27.565 -0.2921  0.3192  0.2228
54244W        W97338  11.182   4.000  25.946 -0.1317 -0.1120 -0.1083
54245W        W97339  10.437   7.041  27.119 -0.3883  0.1407  0.0382
54246W        W97340  13.546   7.106  26.539 -0.2168 -0.0561  0.0033
54247W        W97341  12.808   5.934  26.301 -0.2422  0.0222 -0.0038
54248W        W97342  12.171   3.624  27.275  0.2567  0.0575 -0.1202
54249W        W97343  12.844   5.198  24.574 -0.2590 -0.2818 -0.0691
54250W        W97344  11.908   5.967  24.792  0.1599 -0.0618  0.1021
54251W        W97345  12.533   6.267  22.703 -0.0218  0.0389 -0.0752
54252W        W97346  12.394   4.075  26.418  0.0691 -0.1382  0.3651
54253W        W97347  11.872   6.088  25.278  0.2313  0.0410 -0.0915
54254W        W97348  12.444   7.685  24.585 -0.1163 -0.0897 -0.0628
54255W        W97349  14.776   4.723  26.967 -0.1887  0.0945 -0.1169
54256W        W97350  11.294   7.604  25.036 -0.0643 -0.1562 -0.3117
54257W        W97351  12.670   3.393  27.041  0.1515 -0.1060 -0.0523
54258W        W97352  10.956   6.329  24.842 -0.1610  0.0415 -0.2523
54259W        W97353  12.480   4.954  25.476 -0.2125  0.3868  0.0374
54260W        W97354  10.730   5.901  24.569 -0.0951  0.2896  0.0679
54261W        W97355  13.246   4.080  25.332 -0.0242  0.1213  0.0710
54262W        W97356  14.532   5.552  25.481  0.0108 -0.0300 -0.0396
54263W        W97357  13.566   4.724  25.035 -0.0881  0.0551  0.1059
54264W        W97358  12.048   3.649  24.686  0.4209  0.3469 -0.0336
54265W        W97359  11.269   8.071  26.804  0.1939  0.0385 -0.1628
54266W        W97360  12.650   3.611  27.516  0.0121  0.2502 -0.0622
54267W        W97361  13.844   3.167  24.579  0.0010 -0.0460 -0.2287
54268W        W97362  14.274   4.634  26.987 -0.0538 -0.1300  0.0896
54269W        W97363  12.399   5.766  28.286 -0.1069  0.1867 -0.0385
54270W        W97364  11.089   4.434  24.327  0.2771  0.0329 -0.0282
54271W        W97365  13.391   3.637  26.770  0.0962  0.1366  0.0066
54272W        W97366  12.109   5.533  23.470 -0.1686  0.0400 -0.2944
54273W        W97367  11.241   5.058  24.638  0.0185 -0.1166  0.1908
54274W        W97368  13.754   7.612  27.116 -0.3164 -0.2672  0.1409
54275W        W97369  12.876   5.525  23.245  0.0667  0.0391 -0.0532
54276W        W97370  11.992   5.858  26.278 -0.1395  0.0600  0.0243
54277W        W97371  11.765   4.536  29.097  0.1516  0.0437 -0.3214
54278W        W97372  13.892   4.711  27.797  0.0704 -0.1541 -0.2256
54279W        W97373  12.544   5.160  25.953 -0.3060 -0.1856 -0.4492
54280W        W97374  11.998   5.840  25.678 -0.3421  0.1286 -0.1518
54281W        W97375  11.837   4.581  25.889 -0.1269  0.2195 -0.1111
54282W        W97376  13.913   5.577  27.177  0.0910  0.2951 -0.1385
54283W        W97377  12.683   4.783  26.896 -0.3734 -0.1006  0.4198
54284W        W97378  11.572   6.712  27.537  0.2211 -0.2529 -0.0321
54285W        W97379  12.654   3.494  25.228 -0.0058 -0.0221 -0.1270
54286W        W97380  12.795   8.456  24.234 -0.1194 -0.2319  0.1879
54287W        W97381  13.360   4.787  26.963  0.1116 -0.2002  0.0766
54288W        W97382  11.124   5.313  22.096 -0.0511 -0.0346 -0.0875
54289W        W97383  10.711   5.040  24.811 -0.0459  0.1035  0.4202
54290W        W97384  12.528   5.787  23.719  0.0353  0.1936  0.2387
54291W        W97385  12.285   4.558  26.432  0.0086  0.0207 -0.3782
54292W        W97386  12.945   6.625  25.809  0.2201  0.1651  0.0749
54293W        W97387  12.597   6.632  24.750 -0.3415  0.2562  0.1202
54294W        W97388  10.002   7.190  27.043 -0.2272  0.3821  0.0731
54295W        W97389  13.443   4.606  25.849  0.0411  0.1127  0.1916
54296W        W97390  13.836   6.544  25.036  0.4283 -0.1931  0.2324
54297W        W97391  13.265   4.117  25.946  0.2670  0.1092 -0.2297
54298W        W97392  14.416   4.171  27.219  0.2306 -0.1028  0.4664
54299W        W97393  13.859   5.982  24.338 -0.1790 -0.0345 -0.0855
54300W        W97394  12.731   3.491  28.568 -0.0031 -0.0841 -0.2302
54301W        W97395  11.876   3.215  25.916  0.1451 -0.0912  0.1163
54302W        W97396  14.248   5.878  25.254  0.0946  0.0788 -0.0849
54303W        W97397  12.916   4.863  26.132 -0.1304 -0.2919  0.2647
54304W        W97398  12.138   7.295  27.273  0.0214  0.3162  0.0751
54305W        W97399  12.370   5.595  27.796 -0.0776  0.0180 -0.4104
54306W        W97400  13.283   4.830  24.638  0.5371 -0.3851 -0.0600
54307W        W97401  13.282   3.896  24.074 -0.0481 -0.1336 -0.0302
54308W        W97402  10.601   6.626  26.022  0.1168  0.1460  0.0971
54309W        W97403  15.286   5.385  26.572  0.1653 -0.0478 -0.0190
54310W        W97404  13.820   6.296  23.954  0.1579  0.3299 -0.3109
54311W        W97405  14.086   5.349  25.321 -0.0721  0.0804 -0.0831
54312W        W97406  12.836   6.521  26.721  0.1548  0.1101  0.2576
54313W        W97407  12.438   5.515  25.536  0.0344 -0.2235  0.0896
54314W        W97408  13.893   5.023  23.821 -0.0189 -0.1873 -0.1062
54315W        W97409  12.084   5.050  23.575  0.3344 -0.1141 -0.2049
54316W        W97410  12.265   5.126  24.444  0.3988 -0.0154  0.1840
54317W        W97411  13.835   4.593  25.453 -0.0810  0.2269 -0.0401
54318W        W97412  11.978   4.942  26.257  0.1645 -0.0656 -0.0151
54319W        W97413  12.441   3.862  26.918  0.0744  0.1349  0.1079
54320W        W97414  13.785   4.528  27.202  0.1051  0.3374  0.5045
54321W        W97415  12.110   5.265  27.604 -0.1071 -0.0500  0.2369
54322W        W97416  11.252   4.283  26.345  0.1994  0.3304  0.1193
54323W        W97417  15.070   7.639  26.855  0.3239  0.2154 -0.1537
54324W        W97418  12.568   5.060  24.021  0.0274  0.2670  0.2223
54325W        W97419  15.133   3.941  26.673  0.1328 -0.0240  0.0605
54326W        W97420  15.086   4.335  25.786  0.1241  0.0673  0.0498
54327W        W97421  13.775   5.905  26.076  0.6142 -0.0771 -0.0966
54328W        W97422  11.570   6.115  25.708 -0.0778 -0.2110 -0.3741
54329W        W97423  12.809   5.620  27.032  0.0005 -0.1989 -0.0694
54330W        W97424  11.173   5.001  23.064 -0.0073 -0.0196 -0.1234
54331W        W97425  13.189   3.534  27.290  0.1130 -0.1384 -0.0381
54332W        W97426  12.959   6.668  23.630 -0.0629  0.0904  0.0769
54333W        W97427  13.651   5.751  26.528  0.0958 -0.0690 -0.1221
54334W        W97428  13.027   5.663  23.660  0.0184 -0.0029 -0.0457
54335W        W97429  11.016   3.916  24.132 -0.0367  0.1615  0.2138
54336W        W97430  11.104   7.570  26.406 -0.1500  0.0940  0.1068
54337W        W97431  11.155   3.939  23.441  0.0490 -0.4604 -0.1970
54338W        W97432  11.753   6.929  22.310  0.0689 -0.0360  0.0119
54339W        W97433  13.334   5.586  26.995 -0.0696  0.0835 -0.2214
54340W        W97434  14.577   4.767  27.494 -0.0407  0.1264 -0.0961
54341W        W97435  12.358   4.357  23.663 -0.1530 -0.3531  0.2250
54342W        W97436  13.623   3.262  27.030  0.2304  0.2354 -0.0400
54343W        W97437  12.303   6.233  24.630 -0.2484  0.1654  0.5163
54344W        W97438  12.269   3.213  25.531  0.2295  0.0078  0.1551
54345W        W97439  12.043   7.341  25.799 -0.1066 -0.0391 -0.1465
54346W        W97440  12.363   7.110  26.848  0.1353  0.2314  0.2414
54347W        W97441  11.907   5.545  24.398 -0.0463  0.0662 -0.2519
54348W        W97442  13.303   4.280  27.072 -0.0525  0.3138  0.1106
54349W        W97443  13.484   5.258  27.308 -0.0935 -0.3431 -0.2393
54350W        W97444  13.402   6.437  25.842  0.0821 -0.1518  0.5688
54351W        W97445  15.166   3.893  27.798 -0.2618 -0.2468  0.0779
54352W        W97446  12.587   6.903  26.392  0.1368 -0.2703 -0.3197
54353W        W97447  11.116   5.547  28.063 -0.1428  0.0894  0.0581
54354W        W97448  14.357   6.268  26.168 -0.0402 -0.1454 -0.1072
54355W        W97449  14.617   7.262  23.592 -0.1063  0.1068 -0.3338
54356W        W97450  12.569   5.597  26.569  0.1639 -0.1353  0.1212
54357W        W97451  11.319   7.157  26.486  0.0023  0.2334 -0.2409
54358W        W97452  11.838   5.833  28.085  0.2514 -0.1569  0.0796
54359W        W97453  14.663   7.558  25.176 -0.4664  0.0509 -0.4274
54360W        W97454  12.088   5.446  25.999 -0.2278  0.0543  0.1968
54361W        W97455  11.152   7.006  23.370  0.0051 -0.2074  0.2807
54362W        W97456  12.733   6.619  27.873  0.0679  0.2566  0.1592
54363W        W97457  10.708   6.141  25.639  0.1923 -0.2412 -0.1001
54364W        W97458  12.626   6.067  24.210  0.1078  0.2639  0.1423
54365W        W97459  15.172   7.356  24.798 -0.0099 -0.0969  0.1337
54366W        W97460  14.045   5.382  26.691  0.1104  0.3990  0.2440
54367W        W97461  13.757   7.625  26.454 -0.0688  0.1671  0.0309
54368W        W97462  12.482   4.760  23.312  0.1027 -0.1731  0.0216
54369W        W97463  11.100   6.198  25.312 -0.0414 -0.0790  0.1046
54370W        W97464  11.316   7.001  22.781  0.0474  0.3531  0.1660
54371W        W97465  12.717   6.538  24.191  0.3212  0.0878  0.0147
54372W        W97466  11.752   6.668  25.035 -0.1638 -0.0859  0.2984
54373W        W97467  15.009   5.839  26.364  0.1179  0.5386  0.1336
54374W        W97468  14.622   5.407  23.901  0.1114 -0.1097 -0.0995
54375W        W97469  14.698   5.097  25.648 -0.1720 -0.2630  0.2370
54376W        W97470  13.050   3.720  24.971  0.2406  0.1981 -0.3845
54377W        W97471  13.167   5.684  28.239  0.0997 -0.0369  0.1346
54378W        W97472  13.324   5.439  25.570 -0.3222 -0.1458 -0.1106
54379W        W97473  12.102   7.092  23.802  0.0439  0.2169  0.0669
54380W        W97474  11.564   5.283  28.657 -0.0515 -0.0913  0.0301
54381W        W97475  16.329   2.924  28.387 -0.1225  0.1298  0.0389
54382W        W97476  11.478   6.505  27.095 -0.0870 -0.0014  0.1348
54383W        W97477  14.392   7.759  24.824  0.0346 -0.0363  0.0040
54384W        W97478  11.862   4.270  24.756 -0.0517  0.1056  0.1705
54385W        W97479  12.119   5.352  24.879 -0.1085 -0.0887  0.0608
54386W        W97480  14.237   1.847  25.972  0.0547 -0.2130 -0.1376
54387W        W97481  14.401   7.309  24.163 -0.0404 -0.0861 -0.0621
54388W        W97482  12.972   5.165  26.599 -0.0796  0.2430  0.1301
54389W        W97483  12.396   6.264  26.593 -0.3264 -0.0103  0.0122
54390W        W97484  12.984   5.115  27.114 -0.2455  0.2353 -0.2668
54391W        W97485  11.389   6.971  24.875  0.0431  0.0782 -0.0817
54392W        W97486  10.943   4.521  24.820 -0.1369 -0.3868  0.0894
54393W        W97487  14.998   3.828  25.373 -0.1230 -0.1323  0.1645
54394W        W97488  12.325   4.461  27.599 -0.3024 -0.1910 -0.2589
54395W        W97489  13.560   2.306  26.647  0.1197  0.1682 -0.0029
54396W        W97490  10.914   5.677  25.469  0.0266  0.2466 -0.1726
54397W        W97491  13.028   4.281  24.342  0.1775 -0.1988 -0.1035
54398W        W97492  13.753   6.263  26.453  0.1282 -0.1207 -0.0882
54399W        W97493  10.493   5.468  25.182  0.0167 -0.1629  0.2330
54400W        W97494  13.124   5.239  23.907 -0.0852 -0.0372 -0.1631
54401W        W97495  14.678   3.579  26.274  0.0145  0.0467  0.0148
54402W        W97496  14.677   4.890  23.941 -0.2808  0.0366  0.0343
54403W        W97497  13.686   7.225  28.115 -0.0959 -0.2041 -0.0483
54404W        W97498  12.295   5.844  25.081  0.0352  0.3432  0.0406
54405W        W97499  13.515   3.532  24.881  0.0058  0.0127 -0.0479
54406W        W97500  11.624   5.153  25.088 -0.0622 -0.2226  0.0736
54407W        W97501  11.976   5.321  27.121 -0.0275 -0.0041  0.3550
54408W        W97502  13.427   7.285  26.078  0.2565 -0.0626 -0.2844
54409W        W97503  11.988   4.330  24.096 -0.0589  0.1087 -0.1323
54410W        W97504  14.907   6.397  24.627  0.0075  0.3680  0.1396
54411W        W97505  14.928   4.976  26.551 -0.2769 -0.0614  0.0104
54412W        W97506  13.020   6.909  24.428  0.1420 -0.1074  0.1333
54413W        W97507  14.485   5.126  26.141  0.0040  0.0182  0.0656
54414W        W97508  14.312   7.301  25.898  0.0707  0.0090  0.0044
54415W        W97509  10.716   5.764  25.987 -0.0508 -0.1210  0.1156
54416W        W97510  14.418   7.213  25.405 -0.0089  0.1373 -0.2345
54417W        W97511  14.625   7.677  25.714 -0.0712 -0.3178 -0.0272
54418W        W97512  13.097   4.460  24.830 -0.0653  0.0781  0.0213
54419W        W97513  11.052   6.644  26.343  0.1159  0.3565 -0.0682
54420W        W97514  10.713   6.589  23.123  0.0833  0.0925 -0.1177
54421W        W97515  14.112   4.469  26.495  0.0461 -0.0258 -0.2114
54422W        W97516  12.789   4.365  26.242  0.0817 -0.0218 -0.2536
54423W        W97517  11.398   7.236  25.352  0.0032 -0.0835 -0.1529
54424W        W97518  14.802   3.616  26.810 -0.0899  0.0161  0.0799
54425W        W97519  12.315   6.352  25.117  0.1889  0.1985  0.0296
54426W        W97520  12.617   6.102  27.023  0.0791  0.1422  0.0674
54427W        W97521  10.904   5.183  23.452 -0.0555  0.2646 -0.0949
54428W        W97522  13.199   6.634  27.058 -0.1152 -0.2020  0.2312
54429W        W97523  13.829   5.681  25.583 -0.0444  0.0718  0.3899
54430W        W97524  13.503   7.523  25.628  0.0938  0.0179 -0.1595
54431W        W97525  14.644   8.187  24.785 -0.1710 -0.0640  0.2136
54432W        W97526  13.042   5.989  26.769 -0.2799 -0.2050  0.0475
54433W        W97527  13.989   4.962  26.240 -0.0640  0.4162  0.2218
54434W        W97528  12.195   4.641  24.491 -0.1294  0.0169  0.1402
54435W        W97529  14.026   4.566  25.943  0.0955 -0.0595  0.0810
54436W        W97530  13.618   4.303  24.753  0.0978 -0.0333  0.2200
54437W        W97531  11.485   6.149  26.299  0.1451  0.2961  0.0749
54438W        W97532  10.337   5.414  22.614 -0.2347  0.0187  0.2984
54439W        W97533  12.056   6.416  22.612  0.0303 -0.1252 -0.2931
54440W        W97534  10.152   6.585  26.228  0.0630 -0.3041  0.0635
54441W        W97535  12.616   2.789  27.006  0.3449  0.1861 -0.0526
54442W        W97536  12.003   6.327  25.812 -0.1813  0.0101 -0.0010
54443W        W97537  11.993   6.196  27.172 -0.1182 -0.1206  0.1325
54444W        W97538  10.712   4.128  24.502 -0.0538 -0.0464  0.3269
54445W        W97539  15.080   7.611  23.562  0.2655 -0.1641 -0.0452
54446W        W97540  10.678   3.535  25.629 -0.2821 -0.0725 -0.0045
54447W        W97541  11.564   3.016  24.567 -0.2410  0.0899  0.0482
54448W        W97542  14.270   6.799  25.732  0.1007 -0.3010 -0.1408
54449W        W97543  15.958   5.686  24.923  0.0275 -0.0109 -0.2171
54450W        W97544  12.203   4.159  25.922 -0.0263  0.0587  0.2325
54451W        W97545  14.490   6.901  26.221  0.5306  0.0574  0.1361
54452W        W97546  10.608   5.890  22.366 -0.1690 -0.0966  0.0302
54453W        W97547  13.646   4.245  27.636 -0.0900  0.1280  0.1395
54454W        W97548  12.138   2.881  26.399  0.4946 -0.0295  0.2373
54455W        W97549  10.028   3.756  23.765  0.2109 -0.1075  0.0178
54456W        W97550  11.495   4.962  25.943 -0.0123  0.2183 -0.0224
54457W        W97551  14.430   6.444  24.916 -0.3458 -0.1774  0.0610
54458W        W97552  13.776   7.388  24.038 -0.0425  0.1112 -0.2149
54459W        W97553  13.350   6.976  25.641  0.0944 -0.0537  0.1382
54460W        W97554  14.014   6.643  26.175 -0.0578  0.2300 -0.0093
54461W        W97555  11.857   2.497  26.551 -0.0024 -0.0163 -0.2430
54462W        W97556  13.524   5.252  26.679 -0.1843 -0.0929  0.1755
54463W        W97557  12.495   4.979  26.444 -0.0648 -0.2226  0.1642
54464W        W97558  14.981   6.324  25.134  0.1131  0.2371  0.1924
54465W        W97559  13.540   3.698  25.572  0.0193 -0.0808 -0.3504
54466W        W97560  14.824   5.222  24.366  0.3058  0.3380  0.0547
54467W        W97561  12.366   1.922  25.672 -0.3502 -0.2120  0.2419
54468W        W97562  10.825   6.036  28.205 -0.3654  0.1712  0.0770
54469W        W97563  15.305   6.351  25.452  0.0151 -0.2715  0.1393
54470W        W97564  11.680   5.297  25.637 -0.2660 -0.1928 -0.0387
54471W        W97565  13.714   4.188  26.207  0.1730  0.0474 -0.1037
54472W        W97566  15.910   8.295  23.243 -0.1225 -0.1536  0.0145
54473W        W97567  12.885   6.173  25.906  0.0886  0.2056  0.0403
54474W        W97568  13.539   4.802  24.129  0.1184 -0.0982  0.1946
54475W        W97569  11.597   4.662  26.376  0.2266 -0.2598  0.0007
54476W        W97570  13.566   6.808  26.143  0.1765  0.1483 -0.0580
54477W        W97571  14.313   5.464  27.458  0.0910 -0.0479  0.2270
54478W        W97572  12.878   5.315  25.388  0.1623  0.2482  0.0418
54479W        W97573  14.078   5.878  26.755 -0.0614 -0.0792 -0.0304
54480W        W97574  13.603   8.846  26.180  0.0863 -0.2336 -0.0587
54481W        W97575  14.013   6.786  27.410  0.1845 -0.2641 -0.0204
54482W        W97576  12.539   6.608  25.519 -0.1165 -0.3992  0.1751
54483W        W97577  14.053   5.384  25.947  0.1996 -0.1003 -0.1511
54484W        W97578  11.959   3.400  26.484  0.2250 -0.1473 -0.2899
54485W        W97579  11.449   6.301  24.950  0.0262  0.2216  0.0716
54486W        W97580  12.067   4.996  25.788 -0.0511  0.0309 -0.0647
54487W        W97581  12.477   3.572  26.537  0.0186  0.1187 -0.0990
54488W        W97582  13.405   5.012  26.209 -0.0166  0.0060 -0.0833
54489W        W97583  14.393   3.978  24.226  0.1619  0.4481 -0.3567
54490W        W97584  12.064   6.663  25.459  0.0803  0.0711  0.1102
54491W        W97585  13.901   4.906  26.746  0.0889  0.0150 -0.3155
54492W        W97586  13.532   4.729  29.945  0.0761  0.0524 -0.2607
54493W        W97587  10.964   4.568  27.824 -0.1000  0.3030  0.2360
54494W        W97588  13.993   3.896  27.503 -0.2032  0.0809  0.0399
54495W        W97589  14.553   5.146  28.295  0.0033 -0.1551  0.0305
54496W        W97590  10.580   3.327  29.319  0.0071  0.1364  0.0343
54497W        W97591  14.119   5.848  27.860  0.1145  0.4395  0.2148
54498W        W97592  11.717   2.424  30.660  0.0411 -0.1282 -0.0140
54499W        W97593  14.486   6.587  30.681  0.2846 -0.3929 -0.0784
54500W        W97594  13.644   4.965  28.742 -0.1788 -0.1039  0.0846
54501W        W97595  12.434   5.271  26.917  0.0279 -0.1951  0.1439
54502W        W97596  12.923   3.670  29.480  0.1311 -0.1398  0.0104
54503W        W97597  12.695   5.659  30.308 -0.0696  0.1701  0.2267
54504W        W97598  11.567   3.205  29.123 -0.0456  0.0049 -0.2285
54505W        W97599  12.251   1.692  31.413  0.0778  0.1872  0.0281
54506W        W97600  13.690   4.545  29.498 -0.1826  0.0677 -0.1826
54507W        W97601   9.924   5.950  28.435 -0.1402  0.0558 -0.2351
54508W        W97602  12.265   4.320  29.601  0.3377 -0.2022 -0.2162
54509W        W97603  13.115   4.822  28.863 -0.1400  0.1028 -0.1255
54510W        W97604  13.640   5.745  27.562 -0.1016  0.0338 -0.0018
54511W        W97605  12.221   4.873  31.105 -0.1852  0.3558  0.1535
54512W        W97606  12.932   3.216  30.590  0.2198  0.0832 -0.0250
54513W        W97607  12.816   5.716  28.590  0.0762  0.1155  0.0271
54514W        W97608  11.554   5.069  26.912 -0.0806 -0.2088 -0.3744
54515W        W97609  11.499   4.733  28.701 -0.1910 -0.4907  0.1891
54516W        W97610  12.226   5.732  29.302  0.0249 -0.4204  0.0567
54517W        W97611  12.263   3.532  28.710  0.0899  0.1407  0.0957
54518W        W97612  12.447   4.390  28.550  0.0495 -0.2100 -0.0161
54519W        W97613  13.351   6.196  29.107 -0.0900 -0.1476 -0.0611
54520W        W97614  13.672   5.564  29.930 -0.0835 -0.4965 -0.2598
54521W        W97615  13.157   4.285  30.714  0.2088  0.1066  0.2122
54522W        W97616   9.460   6.099  28.331  0.0218  0.4569 -0.1403
54523W        W97617   9.731   6.124  29.466 -0.1982  0.2754  0.2451
54524W        W97618  11.922   5.627  28.527 -0.0753  0.0593  0.0682
54525W        W97619  14.130   5.366  28.186  0.1255  0.0305  0.2251
54526W        W97620  13.591   5.180  30.687 -0.0122  0.0056 -0.1551
54527W        W97621  13.917   6.752  31.908 -0.5800 -0.0569  0.1904
54528W        W97622  10.563   6.844  28.055 -0.2427  0.1451 -0.1285
54529W        W97623  12.571   6.393  30.031 -0.0486  0.1470 -0.4651
54530W        W97624  11.900   7.943  29.827  0.0487  0.1467 -0.1217
54531W        W97625  13.992   5.344  31.422  0.0086 -0.0035  0.0181
54532W        W97626  12.189   5.440  30.262  0.0574 -0.1656 -0.0688
54533W        W97627  13.108   6.708  28.404 -0.2082 -0.1567  0.1585
54534W        W97628  12.894   4.957  29.890  0.4267  0.1524 -0.2924
54535W        W97629  12.519   5.979  31.514  0.0607 -0.1042  0.1059
54536W        W97630  11.235   4.553  29.145 -0.0835  0.0297  0.1955
54537W        W97631  13.489   5.493  31.890  0.0912 -0.1414  0.1116
54538W        W97632  13.231   5.903  27.811  0.3143 -0.0394 -0.0324
54539W        W97633  13.367   3.739  28.227 -0.1215  0.2637 -0.0564
54540W        W97634  11.554   5.462  27.296  0.1118 -0.1741 -0.2768
54541W        W97635  13.049   4.479  27.495 -0.1946 -0.1704  0.1347
54542W        W97636  11.433   2.742  28.886 -0.1216 -0.0070 -0.0996
54543W        W97637  10.957   7.764  30.046 -0.1012  0.3359 -0.3371
54544W        W97638  11.932   4.400  30.076  0.1256  0.1266 -0.2719
54545W        W97639  13.663   5.488  28.739 -0.2662 -0.1184  0.1072
54546W        W97640  11.800   4.981  28.376  0.0561 -0.3599 -0.2815
54547W        W97641  13.369   3.882  30.215 -0.2842  0.0977 -0.0121
54548W        W97642  10.170   6.494  30.660 -0.1713 -0.1728  0.0733
54549W        W97643  10.809   4.918  28.703 -0.3903 -0.0247  0.3188
54550W        W97644  13.586   6.077  26.977 -0.1473 -0.1935  0.3446
54551W        W97645  13.772   4.215  29.020  0.0157  0.0577 -0.1463
54552W        W97646  12.883   6.419  27.394 -0.3272  0.3124  0.0500
54553W        W97647  11.550   4.924  27.885  0.2071 -0.0540 -0.0937
54554W        W97648   8.653   5.531  30.378  0.1836 -0.2302  0.0743
54555W        W97649  11.531   4.901  29.390 -0.0236  0.0424 -0.5169
54556W        W97650  12.000   3.731  26.135 -0.1320  0.1809 -0.0514
54557W        W97651  14.238   5.817  31.457  0.0029  0.1671 -0.2491
54558W        W97652  10.379   8.350  31.343 -0.1700 -0.1578 -0.1717
54559W        W97653  15.206   3.802  28.961  0.0418 -0.1177  0.2640
54560W        W97654  12.180   5.506  29.716 -0.1666 -0.1795 -0.1590
54561W        W97655  14.170   6.761  30.275  0.1134 -0.4083  0.1575
54562W        W97656  12.627   4.898  28.785 -0.1846  0.0045 -0.2416
54563W        W97657  16.026   3.485  28.312  0.1047  0.1482 -0.2137
54564W        W97658  13.001   3.629  30.391 -0.1603  0.0521 -0.1164
54565W        W97659  12.175   4.864  27.298  0.0142  0.1715  0.3279
54566W        W97660  12.322   5.749  27.181 -0.1637  0.1644  0.1032
54567W        W97661  13.787   6.477  30.398  0.0588  0.1442 -0.0755
54568W        W97662  12.419   4.846  28.334 -0.1291  0.2386 -0.0079
54569W        W97663  11.139   6.340  29.636 -0.0645  0.3106 -0.0112
54570W        W97664  11.296   4.785  31.113  0.2369 -0.3059  0.0788
54571W        W97665  14.163   6.119  30.414 -0.2908  0.2141  0.3609
54572W        W97666  11.673   6.251  28.317  0.0760 -0.3083  0.1195
54573W        W97667  10.323   4.224  29.318  0.1824 -0.0529 -0.1069
54574W        W97668  11.347   7.174  28.918 -0.3624  0.1153  0.0688
54575W        W97669  10.300   3.230  28.607 -0.1251 -0.0168  0.2473
54576W        W97670  13.765   5.155  30.224  0.0238 -0.1386  0.0745
54577W        W97671  12.003   3.416  29.909 -0.0163  0.0566 -0.0990
54578W        W97672  12.928   3.571  31.427  0.1618 -0.1106 -0.0661
54579W        W97673  13.789   3.305  29.920 -0.0178  0.4989  0.1026
54580W        W97674  11.483   5.788  28.446  0.0702 -0.2925 -0.0018
54581W        W97675  13.958   8.619  27.239 -0.0253  0.0126 -0.0133
54582W        W97676  13.582   4.159  28.128  0.1101  0.1889 -0.0390
54583W        W97677  14.054   5.845  28.637 -0.1320 -0.0683  0.1640
54584W        W97678  11.491   6.065  30.786  0.1166 -0.1932 -0.4067
54585W        W97679  11.236   3.620  29.212  0.1458 -0.0914  0.0834
54586W        W97680  10.841   4.190  31.403  0.1843  0.3352  0.2083
54587W        W97681  10.836   3.112  30.393 -0.0889  0.0211 -0.1256
54588W        W97682  14.080   6.185   0.871 -0.0073  0.1892 -0.0613
54589W        W97683  11.333   4.242  26.817 -0.1252 -0.1712  0.2580
54590W        W97684  11.653   4.036  29.220  0.1059 -0.0529  0.0951
54591W        W97685  12.133   3.900  30.182 -0.0858 -0.2203  0.0756
54592W        W97686  10.347   5.993  28.050 -0.2508 -0.0590  0.1033
54593W        W97687  13.517   5.411  31.232 -0.1649  0.3078 -0.1847
54594W        W97688  12.387   5.221  29.258 -0.0388 -0.0607  0.3903
54595W        W97689  14.956   7.205  30.145  0.3725 -0.0071  0.1170
54596W        W97690  13.938   6.382  28.946 -0.0119  0.2415  0.1758
54597W        W97691  11.430   4.626  30.113  0.0326  0.0548 -0.0895
54598W        W97692  10.989   5.862  27.697  0.2585 -0.2383 -0.1700
54599W        W97693  11.371   8.006  29.918  0.2635 -0.3878  0.4631
54600W        W97694  12.647   7.711  28.190 -0.4251 -0.2753 -0.1283
54601W        W97695  11.807   4.488  28.126  0.0606 -0.3068 -0.4731
54602W        W97696  14.334   5.934  29.965  0.0065  0.0323  0.0549
54603W        W97697  13.384   5.371  27.819 -0.4053 -0.1293 -0.0104
54604W        W97698  11.295   6.513  30.064  0.1955 -0.0162 -0.2958
54605W        W97699  14.327   3.726  30.585  0.0040 -0.1193 -0.1914
54606W        W97700  13.114   4.805  30.653 -0.3278  0.0415 -0.0273
54607W        W97701  13.012   5.987  29.398  0.0107  0.0414  0.0422
54608W        W97702  11.937   4.249  26.639  0.4006 -0.2412  0.2318
54609W        W97703  13.442   5.917  28.657 -0.3283 -0.2348  0.0289
54610W        W97704  10.806   6.544  28.362  0.0117  0.4517  0.1385
54611W        W97705  11.670   5.941  28.925  0.0253  0.0005  0.1583
54612W        W97706  13.189   5.682  29.051  0.0748 -0.0167 -0.2404
54613W        W97707  12.348   3.686  29.632 -0.3262  0.0598 -0.0241
54614W        W97708  11.157   6.093  30.386 -0.0903 -0.3078 -0.2221
54615W        W97709  12.954   3.477  29.943  0.2391 -0.1374 -0.0136
54616W        W97710  11.135   5.849  28.918  0.0091 -0.0617  0.0228
54617W        W97711  10.405   5.675  29.941 -0.0003 -0.2146 -0.0061
54618W        W97712  12.201   2.395  29.125  0.1473 -0.0772 -0.0982
54619W        W97713  13.329   4.540  27.916  0.0381 -0.2381  0.1261
54620W        W97714  12.820   4.083  30.339 -0.1109  0.0945  0.0185
54621W        W97715  15.675   4.519  27.647 -0.0710 -0.0319 -0.0403
54622W        W97716  13.263   3.489  28.650  0.0625  0.0485 -0.1081
54623W        W97717  11.886   3.137  28.674  0.0384  0.4318 -0.2434
54624W        W97718  11.160   7.338  30.229 -0.2238  0.1919  0.1949
54625W        W97719  14.323   5.708  29.462  0.0524 -0.2880 -0.0337
54626W        W97720  14.431   4.479  30.585  0.0413 -0.2379 -0.3653
54627W        W97721  12.382   3.907  28.324 -0.0416  0.0380 -0.0474
54628W        W97722  14.128   5.548  29.021  0.2821  0.1680 -0.2800
54629W        W97723  11.256   5.261  29.651 -0.1066 -0.0892  0.2017
54630W        W97724  15.032   6.663  29.995  0.2360 -0.0255  0.3382
54631W        W97725  13.767   5.839  29.117 -0.0414 -0.0926 -0.1232
54632W        W97726  12.159   3.863  30.744 -0.1883 -0.2540  0.0340
54633W        W97727  13.496   4.820  27.484 -0.1323  0.0505 -0.5698
54634W        W97728  11.899   5.025  28.999 -0.0224  0.0083 -0.3062
54635W        W97729  11.591   7.175  29.326 -0.0420 -0.0008 -0.0081
54636W        W97730  13.667   5.098  31.679 -0.0395  0.1789 -0.2332
54637W        W97731  13.004   3.079  28.680  0.2768  0.0493  0.1624
54638W        W97732  13.152   2.897  29.181 -0.1228 -0.2509  0.2335
54639W        W97733  14.496   5.419   1.434 -0.0216  0.0832 -0.3005
54640W        W97734  12.945   4.320  28.861 -0.0056  0.0401 -0.0010
54641W        W97735  12.765   4.118  29.317  0.2411  0.4253 -0.1405
54642W        W97736  11.701   4.535  27.002 -0.4138 -0.1500 -0.1868
54643W        W97737  12.450   2.873  30.366 -0.1539  0.0448 -0.3970
54644W        W97738  11.303   6.089  31.386  0.0481  0.1411 -0.2954
54645W        W97739  12.630   6.765  30.990 -0.0155 -0.0247  0.0873
54646W        W97740  14.632   6.870  30.315  0.2199  0.2427  0.1323
54647W        W97741  12.619   5.619  29.539  0.0162  0.2071 -0.2419
54648W        W97742  13.684   3.669  31.214 -0.2534 -0.5679  0.0098
54649W        W97743  12.831   3.962  28.391  0.2567  0.3311  0.1914
54650W        W97744  11.099   7.924  27.316 -0.0319 -0.0797 -0.1885
54651W        W97745  13.157   7.022  27.992  0.1428 -0.0972  0.0367
54652W        W97746  11.651   3.154  30.077 -0.4467 -0.1964 -0.2709
54653W        W97747  13.691   6.955  30.351 -0.0753  0.2730 -0.4480
54654W        W97748  12.418   6.238  27.527 -0.0448 -0.1297  0.0291
54655W        W97749  12.930   6.051  31.212 -0.0104 -0.1485  0.0451
54656W        W97750  12.267   7.183  28.734 -0.2756 -0.1367  0.2662
54657W        W97751  15.170   2.584  29.536 -0.0273  0.0663 -0.0368
54658W        W97752  10.816   6.687  29.583  0.0665  0.1628 -0.3436
54659W        W97753  10.792   3.860  26.972  0.2124  0.2341 -0.2605
54660W        W97754  11.831   5.260  29.526 -0.4903 -0.2429 -0.2790
54661W        W97755  13.765   3.729  27.925  0.1545  0.1193 -0.3561
54662W        W97756  13.429   4.813  28.298  0.1386 -0.0612 -0.2027
54663W        W97757  11.175   3.096  30.005 -0.0949  0.2795  0.2936
54664W        W97758  11.121   3.751  29.756  0.0698 -0.1209 -0.1077
54665W        W97759  10.137   7.003  29.979 -0.0997  0.1185 -0.0060
54666W        W97760  12.931   4.462  29.756 -0.1596  0.2511  0.1239
54667W        W97761  13.590   3.891  27.204  0.0197  0.2713  0.1928
54668W        W97762  13.913   6.014  29.546 -0.1410  0.2069  0.1858
54669W        W97763  10.925   5.224  31.062  0.0658  0.2100 -0.2828
54670W        W97764  10.775   3.892  29.300 -0.1703  0.1084 -0.1836
54671W        W97765  13.271   4.146  29.315 -0.2967  0.3543  0.3075
54672W        W97766  12.153   3.951  29.271 -0.1118 -0.3244  0.0815
54673W        W97767  10.873   5.077  29.402 -0.0970  0.1841  0.0506
54674W        W97768  12.653   6.124  30.409 -0.1661 -0.4964 -0.0288
54675W        W97769  13.140   3.980  27.467 -0.1821 -0.2770  0.0888
54676W        W97770  12.528   6.310  28.941  0.1604 -0.0848 -0.0036
54677W        W97771  11.396   5.316  30.795  0.0902 -0.0139 -0.1038
54678W        W97772  13.261   5.064  30.257  0.0124 -0.1856 -0.1896
54679W        W97773  11.617   4.101  30.407  0.0718 -0.1644 -0.3212
54680W        W97774  12.477   2.386  27.353 -0.1860 -0.0275  0.0766
54681W        W97775  12.442   5.854  29.994  0.2320 -0.0992  0.0647
54682W        W97776  12.573   6.707  29.566  0.0373  0.0181 -0.2299
54683W        W97777  13.410   3.353  30.281 -0.0478  0.3846  0.0604
54684W        W97778  11.147   6.840  31.017 -0.3910  0.0623 -0.0297
54685W        W97779  12.064   1.479  28.306  0.4362  0.1996 -0.1419
54686W        W97780  14.200   6.810  29.071 -0.1196  0.1028 -0.1317
54687W        W97781  13.612   4.179  30.518  0.1673  0.0975  0.2445
54688W        W97782  11.892   6.330  27.829 -0.2806  0.0234  0.2964
54689W        W97783  10.829   5.520  29.778  0.1646 -0.1770 -0.1929
54690W        W97784  11.726   5.613  29.956  0.1130 -0.1002 -0.0785
54691W        W97785  11.285   3.510  30.213  0.1878  0.0728 -0.2453
54692W        W97786  11.721   5.990  30.308  0.0023 -0.3285 -0.1306
54693W        W97787  12.255   5.901  28.792 -0.0776 -0.1202  0.3078
54694W        W97788  11.189   7.031  29.851  0.1500  0.0052 -0.1224
54695W        W97789  15.337   4.214  28.196 -0.1337  0.1163  0.0241
54696W        W97790  11.151   5.022  28.320  0.0869 -0.1040 -0.0552
54697W        W97791  12.527   3.978  28.821  0.4168  0.2019 -0.1044
54698W        W97792  14.871   4.560  31.016  0.0400  0.1041 -0.2268
54699W        W97793  12.744   4.567  28.030 -0.4071  0.1091 -0.3752
54700W        W97794  14.439   4.000   0.023  0.0907 -0.4102 -0.2103
54701W        W97795  11.088   5.016  30.131 -0.2871  0.0344 -0.0441
54702W        W97796  14.590   5.543  27.980  0.0512 -0.0791 -0.2427
54703W        W97797  10.791   4.585  30.119  0.1069  0.0675  0.1240
54704W        W97798  12.629   4.565   0.064 -0.1037 -0.1434 -0.1810
54705W        W97799  10.642   6.623  31.174 -0.0646  0.5095 -0.1585
54706W        W97800  13.003   3.809  28.951 -0.2043  0.1421 -0.1596
54707W        W97801  12.673   4.106  27.659 -0.2642 -0.1187 -0.0549
54708W        W97802  12.751   5.126  30.420  0.1711 -0.2776  0.1142
54709W        W97803  16.090   6.261  28.156 -0.5283  0.0986  0.0490
54710W        W97804  12.619   5.294  28.397 -0.3867  0.0787  0.0767
54711W        W97805  13.093   4.118  28.005  0.0497  0.2461  0.3232
54712W        W97806  11.149   5.663  29.405  0.1492  0.1824 -0.0573
54713W        W97807  11.919   5.538  29.027  0.0119  0.3402  0.4191
54714W        W97808  13.093   4.404  28.361 -0.0659 -0.2895  0.0439
54715W        W97809  11.887   4.916  29.980 -0.0476 -0.1977 -0.0032
54716W        W97810  12.480   3.337  30.860  0.1116 -0.2422 -0.3239
54717W        W97811  13.467   6.707  30.825 -0.2007  0.1655  0.0310
54718W        W97812  12.811   3.082  29.546  0.1039  0.1590 -0.4589
54719W        W97813  12.868   3.586  30.932  0.2575  0.0673 -0.0434
54720W        W97814  14.359   5.873  30.840 -0.0278  0.0258  0.4547
54721W        W97815  11.740   4.986  30.892 -0.0649  0.1531 -0.0893
54722W        W97816   9.878   4.292  31.930  0.2728 -0.0445 -0.1410
54723W        W97817  13.706   6.666  29.279  0.0734 -0.0869  0.0194
54724W        W97818  13.404   5.162  29.144 -0.2070  0.3337 -0.0064
54725W        W97819  14.658   5.922  30.429  0.2746  0.0367 -0.0608
54726W        W97820  13.366   3.995  28.690  0.1908 -0.3387 -0.1173
54727W        W97821  13.097   2.999  26.954 -0.1052  0.1201 -0.1303
54728W        W97822  11.109   4.018  28.960  0.4069 -0.0014 -0.1383
54729W        W97823  13.193   4.434  31.631  0.0625  0.2241 -0.2642
54730W        W97824  12.096   3.562  28.113  0.2784  0.2970 -0.2278
54731W        W97825  13.710   4.234  30.052 -0.3332 -0.2534  0.1366
54732W        W97826  12.480   7.431  24.964 -0.2201 -0.1853  0.1025
54733W        W97827  14.166   5.102  28.770 -0.0372  0.0129 -0.2161
54734W        W97828  14.653   3.467  29.638  0.1091 -0.0822 -0.3670
54735W        W97829  11.141   4.231  29.474  0.1341 -0.0432  0.1060
54736W        W97830  12.083   6.522  29.649  0.3093 -0.0561 -0.2123
54737W        W97831  11.606   5.654  26.834 -0.0409  0.1819 -0.1042
54738W        W97832  13.613   6.708  26.841  0.0883 -0.1901  0.1963
54739W        W97833  12.511   6.215  29.436  0.1837  0.0299 -0.0092
54740W        W97834  12.917   5.429   0.767  0.0100  0.1350  0.1853
54741W        W97835  12.003   3.282  27.682 -0.0999  0.0884 -0.0617
54742W        W97836  13.078   5.556  29.969 -0.2737 -0.1933 -0.0527
54743W        W97837  11.376   7.195  28.370  0.1511  0.0860  0.3099
54744W        W97838  12.109   2.966  29.954 -0.0264 -0.0132 -0.0359
54745W        W97839  12.313   7.731  28.783 -0.0605  0.1718  0.0074
54746W        W97840  12.252   5.830  30.529  0.0349  0.1525 -0.0058
54747W        W97841  11.567   6.218  29.341  0.1389 -0.1301 -0.0329
54748W        W97842  12.503   3.367  30.039 -0.0376  0.3248  0.2555
54749W        W97843  12.319   3.157  28.334  0.0016 -0.1906 -0.1382
54750W        W97844  11.826   5.508  30.651  0.2792 -0.0927  0.1162
54751W        W97845  15.030   5.276  31.727  0.0505  0.0361 -0.0677
54752W        W97846  13.369   5.986   0.022 -0.3362 -0.0478 -0.2249
54753W        W97847  12.615   4.079  29.830 -0.0478  0.0140 -0.1760
54754W        W97848  11.974   6.145  30.804  0.3090  0.2415  0.0039
54755W        W97849  14.440   4.083  28.216  0.0602  0.1709 -0.2584
54756W        W97850  12.248   5.705  31.065  0.2499 -0.2348  0.2057
54757W        W97851  10.929   4.692  31.423 -0.1006  0.1627  0.0665
54758W        W97852  11.571   5.264  30.316 -0.0574  0.1481  0.0866
54759W        W97853  12.664   5.644  29.028  0.2268 -0.1553 -0.1009
54760W        W97854  11.454   2.989  28.492 -0.1109 -0.1152  0.3511
54761W        W97855  13.182   6.030  27.239 -0.1048 -0.0186 -0.2035
54762W        W97856  11.735   8.061  30.313 -0.0570  0.3204  0.2248
54763W        W97857  10.845   6.018  29.823 -0.1606 -0.2252  0.2456
54764W        W97858  10.601   7.233  30.273  0.0332 -0.0819 -0.1079
54765W        W97859  11.976   4.571  28.626 -0.2392  0.0207 -0.0860
54766W        W97860  12.581   5.082  27.872 -0.1817  0.0892  0.0389
54767W        W97861  12.235   5.213  28.700 -0.1486  0.3815 -0.2991
54768W        W97862  12.957   3.362  26.633  0.0174 -0.2829  0.0719
54769W        W97863  10.939   7.108  30.656  0.1784 -0.2276  0.2725
54770W        W97864  11.645   7.029  26.956 -0.0329  0.0339 -0.2022
54771W        W97865  12.765   7.388  26.281  0.1893  0.2629  0.0656
54772W        W97866  11.685   5.740  29.432 -0.1709  0.1992  0.0144
54773W        W97867  14.676   5.633  29.822 -0.0582  0.0529 -0.2005
54774W        W97868  14.692   4.134  27.792  0.0508  0.1820  0.2028
54775W        W97869  14.057   4.177  27.897  0.3183  0.0037  0.1285
54776W        W97870  16.051   3.885  27.486  0.1016  0.3876  0.0372
54777W        W97871  12.476   5.565   0.481  0.1407  0.1303  0.2192
54778W        W97872  12.440   4.793  29.882 -0.2140  0.4515  0.2456
54779W        W97873  12.757   2.863  28.254  0.1974 -0.2972  0.0954
54780W        W97874  12.760   5.044  30.969 -0.1641 -0.1287 -0.0462
54781W        W97875  14.189   4.125  30.859  0.0370  0.0523  0.2810
54782W        W97876  10.483   7.634  29.936 -0.2882  0.1741  0.0692
54783W        W97877  13.512   6.605  28.163 -0.3139 -0.1446  0.0218
54784W        W97878  11.800   4.477  27.607  0.1512  0.1607  0.2213
54785W        W97879  11.582   3.884  30.913  0.1490 -0.1373 -0.1351
54786W        W97880  14.071   3.765  29.185 -0.1566  0.1385 -0.2467
54787W        W97881  13.285   5.905  26.074  0.0391  0.0346  0.0292
54788W        W97882  13.863   3.825  28.616 -0.0763 -0.4658  0.0536
54789W        W97883  10.474   6.511  29.204 -0.1254  0.2211 -0.0827
54790W        W97884  14.016   4.614  30.195 -0.2890 -0.0590 -0.0045
54791W        W97885  11.684   6.357  29.859 -0.0826 -0.1111 -0.2867
54792W        W97886  11.136   3.649  27.467  0.0147  0.1556  0.1273
54793W        W97887  14.999   3.300  30.057  0.0690  0.0566  0.2562
54794W        W97888  12.333   4.315  30.364 -0.1607  0.1751 -0.0778
54795W        W97889  14.638   4.976  31.616  0.0442 -0.1565  0.3067
54796W        W97890  10.507   4.806  29.200  0.1838  0.0511 -0.0218
54797W        W97891  12.026   3.490  29.306 -0.3482 -0.0883 -0.2770
54798W        W97892  13.943   5.500  30.863 -0.1149  0.1124 -0.0990
54799W        W97893  10.422   4.525  30.722  0.1554  0.1781  0.0991
54800W        W97894  12.871   5.504  27.859 -0.1759  0.5617  0.0625
54801W        W97895  13.874   5.006  29.742 -0.1970  0.5316 -0.0405
54802W        W97896  12.044   4.083  28.787  0.0246 -0.0602 -0.0182
54803W        W97897  13.470   6.284  31.201  0.0452 -0.1731 -0.2290
54804W        W97898  11.023   3.220  29.529  0.1905  0.0007  0.5262
54805W        W97899  13.565   3.757  29.049  0.1101  0.2621  0.0300
54806W        W97900  10.000   6.415  28.852 -0.1769  0.2749  0.3837
54807W        W97901  12.708   5.778  30.815  0.3370  0.0528 -0.0743
54808W        W97902  15.191   6.163  31.247  0.2651 -0.0622 -0.0290
54809W        W97903  12.250   3.330  26.888 -0.2307  0.1328 -0.0802
54810W        W97904  13.378   7.152  28.462 -0.0733  0.0209 -0.3354
54811W        W97905  13.412   4.558  29.100 -0.2425  0.0892  0.1005
54812W        W97906  12.070   6.842  26.547 -0.0977 -0.4872 -0.1058
54813W        W97907  12.064   4.787  29.417  0.0679  0.2232 -0.0045
54814W        W97908  14.454   6.057  28.993 -0.0776 -0.3820  0.1632
54815W        W97909  10.938   4.425  30.987 -0.1725  0.0879 -0.1659
54816W        W97910  12.784   7.704  29.976  0.0922  0.0751  0.1053
54817W        W97911  13.726   4.009  29.473  0.1390 -0.3738 -0.1286
54818W        W97912  11.236   4.102  27.763 -0.1771  0.2135 -0.2085
54819W        W97913  10.625   5.173  28.324  0.1032 -0.0253 -0.2120
54820W        W97914  11.489   7.557  29.678  0.1359 -0.0322  0.1216
54821W        W97915  14.226   4.598  29.685  0.0742  0.1040 -0.1902
54822W        W97916  14.156   3.603  29.666  0.0465 -0.2424 -0.1729
54823W        W97917  10.500   6.657  26.592 -0.0144 -0.3780  0.0083
54824W        W97918  14.232   3.640  31.071 -0.3161 -0.0641  0.1111
54825W        W97919  12.852   6.793  30.522 -0.2513 -0.1081 -0.3516
54826W        W97920  11.565   6.812  30.814  0.3078  0.2043  0.0085
54827W        W97921  11.158   6.186  28.547  0.2093  0.0214  0.3334
54828W        W97922  11.621   5.681  31.141  0.1325 -0.0470 -0.2858
54829W        W97923  12.566   5.319  29.975 -0.0537  0.1663  0.1287
54830W        W97924  13.077   6.225  28.193 -0.0622 -0.2214 -0.0924
54831W        W97925  15.392   6.376  28.282  0.0084 -0.0692  0.0234
54832W        W97926  11.309   4.333  28.189 -0.1071 -0.1116 -0.2646
54833W        W97927  14.257   6.454  27.678 -0.2959 -0.4542 -0.2715
54834W        W97928  11.651   4.421  29.554 -0.0428 -0.0842 -0.0227
54835W        W97929  13.949   2.891  29.020  0.2550 -0.2179  0.1646
54836W        W97930  12.869   2.299  27.800 -0.0364 -0.1937 -0.1981
54837W        W97931  12.466   6.265  30.983  0.1415  0.0155  0.2396
54838W        W97932  11.192   5.052  28.985 -0.2373  0.3527  0.1355
54839W        W97933  11.148   6.773  28.653  0.1881  0.1073 -0.0204
54840W        W97934  11.410   5.997  29.913 -0.2858 -0.1377  0.3496
54841W        W97935  11.756   3.588  30.389 -0.0022 -0.1792  0.3423
54842W        W97936  11.294   4.303  31.305  0.1246 -0.1037 -0.1649
54843W        W97937  10.764   6.351  30.225  0.4704 -0.2592  0.0295
54844W        W97938  11.593   2.821  28.026 -0.0757  0.0121  0.4007
54845W        W97939  13.873   5.217  27.666 -0.0712 -0.4698  0.1541
54846W        W97940  11.142   4.324  30.420 -0.0211 -0.1361  0.1310
54847W        W97941  10.906   2.639  30.015  0.0630 -0.0776 -0.1707
54848W        W97942  14.181   4.116  30.356 -0.2737  0.1165  0.0769
54849W        W97943  13.824   6.229  28.240 -0.2621 -0.2205  0.1339
54850W        W97944  11.477   3.696  28.008 -0.0347 -0.0986  0.2676
54851W        W97945  13.737   8.023  29.923 -0.0941  0.2778 -0.0372
54852W        W97946  10.454   7.344  28.190 -0.0711 -0.2914  0.5204
54853W        W97947  13.157   5.980  30.412  0.1162  0.1582 -0.2418
54854W        W97948  11.806   4.694   0.530 -0.0747  0.0146  0.0440
54855W        W97949  11.106   3.734  26.447  0.0702  0.1776 -0.3336
54856W        W97950  12.559   4.193  30.753 -0.2828 -0.0684 -0.0180
54857W        W97951  12.889   5.236  29.036  0.0427  0.1737  0.1215
54858W        W97952  14.459   6.933  27.578 -0.3804  0.1025  0.3917
54859W        W97953  12.818   4.586  30.315 -0.0247  0.1239 -0.2331
54860W        W97954  13.861   6.780  31.253  0.2626 -0.1355 -0.1603
54861W        W97955  11.137   2.930  31.550 -0.2394  0.1922  0.0673
54862W        W97956  13.010   5.327  29.481  0.3385 -0.0756  0.3071
54863W        W97957  12.540   7.361  31.140 -0.0362 -0.1083  0.1809
54864W        W97958  14.843   6.307  27.286 -0.0583  0.0581  0.1453
54865W        W97959  14.610   3.866  29.271  0.0247  0.0220 -0.0287
54866W        W97960  12.955   4.998  28.151  0.1277 -0.4436  0.1060
54867W        W97961  11.394   4.715  31.622 -0.0883  0.1870 -0.2754
54868W        W97962  11.673   6.480  31.155  0.0541 -0.2501  0.2394
54869W        W97963  13.440   5.525  30.371  0.0104  0.1332 -0.0863
54870W        W97964  11.290   2.183  29.964 -0.1869  0.1249  0.0897
54871W        W97965  13.257   3.383  29.211  0.2460 -0.1090  0.0781
54872W        W97966  13.383   5.670  29.542  0.1535  0.2937 -0.0998
54873W        W97967  12.118   6.218  30.184  0.2536  0.1155  0.0526
54874W        W97968  12.291   4.568  29.028 -0.0586 -0.0806 -0.1086
54875W        W97969  13.338   3.785  30.737 -0.1635 -0.0556  0.0427
54876W        W97970  13.988   6.351  29.946 -0.0873  0.0259  0.0061
54877W        W97971  15.022   5.655  30.201 -0.0532  0.0697 -0.0666
54878W        W97972  11.593   5.388  28.044 -0.0307 -0.2404 -0.2300
54879W        W97973  13.579   6.425  27.322  0.0635 -0.2706  0.2650
54880W        W97974  14.013   7.352  28.531  0.0513  0.0054  0.0377
54881W        W97975  15.524   6.168   0.507  0.2048  0.2583 -0.0451
54882W        W97976  13.037   7.442  29.574  0.1001 -0.1719  0.1284
54883W        W97977  14.067   4.926  29.253 -0.1205 -0.0159  0.0599
54884W        W97978  10.266   4.638  30.221 -0.1032  0.0553  0.1043
54885W        W97979  12.017   6.042  29.658  0.2073  0.1241  0.0157
54886W        W97980  13.153   5.314  28.664 -0.0728  0.2802 -0.0385
54887W        W97981  12.601   4.682  29.441  0.0397 -0.0756 -0.1676
54888W        W97982  11.774   3.619  28.887 -0.1840 -0.0651 -0.1195
54889W        W97983  13.942   3.402  28.888  0.0647 -0.1357 -0.0883
54890W        W97984  12.760   7.410  30.390 -0.2392  0.0565 -0.0859
54891W        W97985  13.119   4.043  29.804 -0.2193  0.1494 -0.0233
54892W        W97986  13.806   3.636  30.702  0.3666 -0.0134 -0.1886
54893W        W97987  12.036   4.012  31.202  0.2033 -0.0466  0.0070
54894W        W97988  11.102   5.602  31.364  0.1152 -0.2868  0.0983
54895W        W97989  12.064   6.788  30.931 -0.2476  0.2331  0.2853
54896W        W97990  12.528   4.715  30.656  0.2353  0.0317 -0.1676
54897W        W97991  10.775   6.951  31.475  0.1736 -0.0435 -0.1102
54898W        W97992  12.735   4.208  31.555  0.2402 -0.1658 -0.1338
54899W        W97993  12.130   4.467  30.774  0.3929 -0.1727  0.0328
54900W        W97994  13.671   4.127  31.513 -0.0072  0.2336 -0.0394
54901W        W97995  14.814   6.675   0.615 -0.0205 -0.1602  0.1700
54902W        W97996  14.640   7.786  30.977  0.1138  0.2908 -0.0912
54903W        W97997  12.157   3.283  30.427  0.1852  0.1870  0.2102
54904W        W97998  14.812   6.200  29.960 -0.0120 -0.0404 -0.1121
54905W        W97999  12.336   6.663  31.759 -0.0465  0.3604  0.3989
54906W        W98000  14.297   5.283  31.819  0.0681  0.3217 -0.3495
54907W        W98001  11.757   7.866  30.913 -0.1159 -0.0003  0.1200
54908W        W98002  10.115   6.721  31.457  0.2330  0.1483 -0.0703
54909W        W98003  14.493   4.844  30.249  0.2519 -0.1212  0.0930
54910W        W98004  11.418   4.375  30.813  0.0180  0.2088  0.3542
54911W        W98005  11.788   4.472  31.129 -0.0848  0.3851  0.0924
54912W        W98006  12.063   4.582   0.093  0.1396  0.0028 -0.3390
54913W        W98007  12.144   6.449  31.308  0.2512  0.0133  0.3484
54914W        W98008  13.977   4.603  30.712  0.0914  0.2304  0.1357
54915W        W98009  14.067   4.848  31.521 -0.1939  0.2847  0.0454
54916W        W98010  13.393   2.871  30.297  0.2943  0.1325 -0.0104
54917W        W98011  11.500   3.840  31.966  0.0420 -0.0283  0.5159
54918W        W98012  11.403   5.237  31.363  0.2688  0.3724 -0.0433
54919W        W98013  12.765   7.585  31.689  0.3996  0.0204  0.0976
54920W        W98014  11.211   5.589  30.422 -0.3389 -0.0197 -0.3944
54921W        W98015  11.189   6.526  30.613  0.1193  0.2231 -0.0057
54922W        W98016  13.255   6.779  31.624  0.3508  0.0398 -0.0947
54923W        W98017  11.727   4.612  30.522 -0.0948 -0.1982  0.3531
54924W        W98018  15.259   5.301   0.381  0.0948 -0.0481 -0.1194
54925W        W98019  13.158   4.821  29.479 -0.1927 -0.0784 -0.1845
54926W        W98020   9.413   4.325  30.484  0.1528 -0.1350 -0.0416
54927W        W98021  10.537   5.034  31.285 -0.0268  0.1472  0.0945
54928W        W98022  11.701   6.430  30.392 -0.0101 -0.3731  0.1510
54929W        W98023  13.263   5.019  31.242  0.0850 -0.1098 -0.3989
54930W        W98024  14.203   5.021  30.616 -0.0767 -0.1780 -0.1762
54931W        W98025  12.000   4.101   0.144  0.0119  0.0243  0.1924
54932W        W98026  15.261   4.772   1.095  0.0016 -0.1109 -0.4563
54933W        W98027  12.927   5.284  31.793  0.1581  0.1987  0.0942
54934W        W98028  12.430   4.374  31.168  0.4350  0.0579 -0.3690
54935W        W98029  13.695   5.923  30.674  0.0538  0.1860 -0.0706
54936W        W98030  12.488   3.259  31.341  0.1503  0.5739 -0.3351
54937W        W98031  13.097   6.621  31.172 -0.2001 -0.3403  0.2194
54938W        W98032  13.723   3.662  31.736 -0.1133 -0.0698 -0.0469
54939W        W98033  13.767   5.904  31.729 -0.0138 -0.1671 -0.1628
54940W        W98034  14.755   7.020  31.478 -0.4426  0.3671 -0.0039
54941W        W98035   9.935   6.965   0.261 -0.1338 -0.0332  0.1713
54942W        W98036  13.663   6.002  30.148 -0.1264  0.0395  0.2493
54943W        W98037  13.887   3.191  31.073  0.0790  0.0760  0.3093
54944W        W98038  12.559   4.052   0.969  0.0148 -0.3232  0.0812
54945W        W98039  13.463   5.456   0.527 -0.0189 -0.3872  0.0530
54946W        W98040  13.099   5.379  30.774 -0.1644  0.2509  0.0276
54947W        W98041  13.072   4.012  31.149 -0.0117  0.2220 -0.0141
54948W        W98042  15.122   6.857  30.535  0.1027 -0.3317  0.3158
54949W        W98043  14.050   7.572  30.843  0.3249  0.0746 -0.0795
54950W        W98044  13.258   7.728  31.806  0.3186 -0.0475 -0.0868
54951W        W98045  10.806   7.624  30.542 -0.3317  0.2810 -0.0864
54952W        W98046  10.873   5.279  30.455  0.1815 -0.2051  0.0373
54953W        W98047  10.825   6.089  29.301  0.0051  0.1340 -0.0144
54954W        W98048  10.759   6.024   0.140  0.2354  0.4441 -0.1652
54955W        W98049  12.172   5.141  31.718  0.0699 -0.1953  0.0899
54956W        W98050  14.217   8.917  31.884  0.1955  0.0793 -0.0664
54957W        W98051  14.096   6.270   0.012  0.0496  0.0838 -0.1100
54958W        W98052  13.512   4.170   0.136  0.2337 -0.1576 -0.1103
54959W        W98053  11.387   9.495  18.122  0.2013 -0.0447 -0.0034
54960W        W98054  10.914   7.774  16.320 -0.0832 -0.1447  0.2966
54961W        W98055  14.036   8.120  17.239 -0.1554 -0.1057 -0.0376
54962W        W98056  13.241  10.018  16.468 -0.1412 -0.0065  0.0254
54963W        W98057  12.241   7.172  16.349 -0.0532 -0.0482  0.0612
54964W        W98058  12.953   9.907  17.313 -0.1669 -0.0104  0.2073
54965W        W98059  12.759   5.171  19.215 -0.0167 -0.0825  0.0022
54966W        W98060  13.423   9.599  18.863 -0.1472  0.0045  0.2484
54967W        W98061  15.056  11.220  17.908  0.2273 -0.0558 -0.1222
54968W        W98062  13.062   8.395  15.977 -0.3486  0.0557  0.4067
54969W        W98063  12.625   8.667  17.475 -0.1025 -0.0277  0.0795
54970W        W98064  11.499  11.194  17.025  0.0152  0.0554 -0.3214
54971W        W98065  13.155   6.429  16.139  0.0514 -0.1273  0.1296
54972W        W98066  11.137   6.446  18.200 -0.2157  0.0672  0.2143
54973W        W98067  13.184   8.685  18.806  0.0356 -0.1307 -0.1747
54974W        W98068  11.507   8.647  18.021 -0.1420  0.0524  0.0871
54975W        W98069  12.944   6.529  16.601 -0.2042 -0.5451  0.1305
54976W        W98070  12.943   7.806  17.644  0.0045  0.0089 -0.1189
54977W        W98071  12.209  10.855  16.967  0.0450  0.1727  0.1697
54978W        W98072  13.195   8.031  19.377 -0.2219  0.0092 -0.2455
54979W        W98073  12.500   7.020  18.527  0.1927  0.0948 -0.0983
54980W        W98074  12.964   9.373  16.373  0.2133 -0.0159 -0.1359
54981W        W98075  11.228   8.664  16.314 -0.3063 -0.4135 -0.1432
54982W        W98076   9.599   8.213  18.996  0.0796 -0.2427 -0.0800
54983W        W98077  10.914   9.488  17.930  0.0083  0.1767 -0.2226
54984W        W98078  13.259   6.314  18.529 -0.1487 -0.0925 -0.0799
54985W        W98079  14.940   6.850  19.294 -0.3282 -0.0568  0.0835
54986W        W98080  12.223  10.095  17.727  0.3045  0.1306  0.1470
54987W        W98081  13.187   9.656  18.229 -0.2135 -0.0489 -0.2470
54988W        W98082  14.338   8.770  19.241 -0.1827  0.2299 -0.1290
54989W        W98083  10.946  10.713  17.574  0.0153  0.0761  0.2155
54990W        W98084  11.755  10.610  16.952  0.0563 -0.0406 -0.1023
54991W        W98085  12.071  11.469  16.945 -0.0602 -0.1648 -0.0851
54992W        W98086  13.767   9.362  17.357  0.2561 -0.0640 -0.1795
54993W        W98087  13.017   9.162  18.045  0.2670  0.1578 -0.1179
54994W        W98088  12.045   9.831  18.753  0.1465 -0.0502  0.0884
54995W        W98089  11.133   8.613  17.702 -0.2674 -0.1188 -0.3176
54996W        W98090  13.011  10.874  18.851 -0.0733  0.0245 -0.0779
54997W        W98091  11.548   7.949  20.128  0.1187 -0.2538  0.0879
54998W        W98092  12.004   9.102  18.148  0.0794  0.1418 -0.1650
54999W        W98093  13.678   9.108  16.845 -0.1559 -0.0847 -0.0059
55000W        W98094  11.373  11.042  17.644  0.1309  0.0960  0.0424
55001W        W98095  12.198  10.434  17.218 -0.1729  0.1810 -0.1142
55002W        W98096  11.591   8.878  18.958  0.3976  0.1720 -0.1192
55003W        W98097  11.316  10.372  18.942 -0.3514  0.1085  0.4956
55004W        W98098  14.107   7.972  20.741  0.0483 -0.1441 -0.1881
55005W        W98099  11.727  10.962  18.112 -0.0923 -0.3013 -0.0034
55006W        W98100  14.292   8.009  16.272  0.2568 -0.3814  0.1057
55007W        W98101  13.576   8.484  15.832 -0.3636  0.1274  0.0674
55008W        W98102  13.512   7.974  17.750 -0.0725  0.2703  0.0327
55009W        W98103  12.567   6.846  19.463  0.4388 -0.2761  0.1118
55010W        W98104  11.929  11.171  17.696  0.1289  0.1073 -0.1307
55011W        W98105  12.115   8.958  17.653 -0.0396  0.0324 -0.3217
55012W        W98106  14.592   8.956  18.416 -0.0820  0.0147 -0.5280
55013W        W98107  11.760   8.021  17.238 -0.1553  0.0429  0.3242
55014W        W98108  13.186   7.162  17.826  0.1888 -0.0455  0.1303
55015W        W98109  11.081   9.873  19.218  0.2922 -0.1302  0.2514
55016W        W98110   9.891   8.559  17.552 -0.0816 -0.0521  0.1060
55017W        W98111  15.166   9.173  15.345 -0.0482  0.4032  0.1585
55018W        W98112  14.972   9.474  16.744 -0.2061 -0.1548  0.1883
55019W        W98113  13.185  11.008  15.890 -0.1038 -0.0228 -0.1651
55020W        W98114  11.829   9.067  16.203  0.3386  0.1052  0.0043
55021W        W98115  11.086   9.365  19.339  0.0482  0.0965 -0.0974
55022W        W98116  11.796   8.723  18.455  0.1622 -0.1045 -0.0876
55023W        W98117  10.880   8.580  17.025  0.0485 -0.0690  0.0693
55024W        W98118  14.553   8.943  20.778 -0.0860 -0.0554 -0.3230
55025W        W98119  10.070   9.873  19.413 -0.1551  0.1285 -0.1663
55026W        W98120  14.564   8.674  16.885 -0.2829  0.1780 -0.1296
55027W        W98121  12.336  10.276  16.765  0.1745 -0.2565 -0.0017
55028W        W98122  14.364  10.178  17.370 -0.0863  0.2637 -0.2664
55029W        W98123  14.572   8.794  16.025  0.3437 -0.0281  0.0519
55030W        W98124  13.102   8.087  18.089  0.2656 -0.4673  0.1489
55031W        W98125  13.922   6.946  19.330 -0.1323  0.3229 -0.3081
55032W        W98126  10.993   9.867  16.125 -0.0214 -0.0013 -0.1189
55033W        W98127  10.985   9.302  18.434  0.1239 -0.1536  0.2194
55034W        W98128  15.839   9.468  18.124 -0.0828 -0.0329 -0.1337
55035W        W98129  14.173   9.626  15.500 -0.1163 -0.3388 -0.2090
55036W        W98130  11.550  11.182  16.197  0.2191  0.1657  0.0877
55037W        W98131  13.381   8.135  17.328 -0.2407 -0.0239 -0.3617
55038W        W98132  12.014   8.672  18.889  0.0734 -0.0747 -0.0090
55039W        W98133  12.882  10.234  16.082 -0.3377  0.0541 -0.1123
55040W        W98134  10.332  10.580  18.179 -0.2266  0.1898 -0.2286
55041W        W98135  10.900   9.004  16.179 -0.1114 -0.3075  0.0163
55042W        W98136  10.778   8.100  18.997 -0.2828  0.1857 -0.2013
55043W        W98137  11.176  10.783  18.086 -0.1121  0.1315  0.0418
55044W        W98138  13.741   7.240  18.978 -0.1805  0.1808  0.0436
55045W        W98139  11.921   7.457  19.508 -0.2828  0.3062  0.0249
55046W        W98140  14.030   7.297  19.682  0.0914  0.1265 -0.3628
55047W        W98141  12.514   9.372  16.672  0.2252 -0.2064  0.0484
55048W        W98142  14.151   9.121  15.604 -0.2520 -0.1584 -0.1140
55049W        W98143  13.508   7.491  17.523 -0.1494  0.1936 -0.0690
55050W        W98144  14.571   9.361  15.434 -0.0802  0.0144  0.0736
55051W        W98145  10.448   8.648  17.826  0.2525  0.0045 -0.2027
55052W        W98146  12.206   8.168  17.117  0.1668 -0.2791 -0.0691
55053W        W98147  12.512   8.042  18.159  0.0167  0.0835  0.4577
55054W        W98148  11.595   8.367  18.813 -0.2727  0.1267  0.1667
55055W        W98149  13.196   8.466  20.044 -0.0944  0.0701  0.2185
55056W        W98150  10.973   7.610  17.820 -0.0422  0.2400  0.1788
55057W        W98151  14.329   7.905  18.265  0.1849 -0.0032  0.1720
55058W        W98152  12.257   8.347  16.595 -0.0786  0.1059  0.1638
55059W        W98153  10.899   8.911  16.679 -0.4135  0.0957  0.1651
55060W        W98154  13.230   6.721  20.311  0.0543  0.1475 -0.5561
55061W        W98155  13.588  11.327  16.491 -0.2096 -0.1554  0.2848
55062W        W98156  13.917  10.442  18.646  0.2160  0.1568  0.0744
55063W        W98157  14.445  10.616  17.043  0.0543 -0.0730  0.1730
55064W        W98158  11.323   8.320  17.311 -0.0145 -0.0994 -0.3662
55065W        W98159  11.510   6.961  16.473 -0.0112 -0.1692  0.0689
55066W        W98160  12.142  10.856  16.093  0.0995  0.0252  0.0479
55067W        W98161  14.210  11.445  17.397  0.0787  0.0946 -0.2455
55068W        W98162  11.721   7.698  16.311  0.2455 -0.2910  0.0417
55069W        W98163  14.779   9.860  17.021 -0.1069  0.1560  0.1373
55070W        W98164  12.558  10.448  17.592 -0.0467 -0.0022 -0.2762
55071W        W98165  10.622   9.227  19.650  0.0255  0.0514  0.0868
55072W        W98166  13.251   5.675  20.610  0.2153 -0.0402 -0.1417
55073W        W98167  14.327   9.171  17.478 -0.0578  0.2287  0.2949
55074W        W98168  13.889   9.288  17.852 -0.0750 -0.2683  0.1715
55075W        W98169  11.948   8.193  16.191  0.1969  0.1021  0.0288
55076W        W98170  13.938   9.523  16.907  0.0051 -0.0257  0.2888
55077W        W98171  10.262  10.540  16.801  0.0202 -0.0660  0.1258
55078W        W98172  10.123   9.087  17.333 -0.0402  0.2442 -0.1903
55079W        W98173  11.857   9.906  16.448 -0.0520 -0.0490 -0.1040
55080W        W98174  12.499   7.598  18.891  0.2310 -0.0277 -0.1293
55081W        W98175  10.630   9.052  20.941  0.0899 -0.1876 -0.0418
55082W        W98176  13.019   8.064  19.824 -0.0759  0.2511  0.0715
55083W        W98177  12.707   8.878  16.743 -0.0142  0.1908  0.2385
55084W        W98178  10.091   9.450  19.074 -0.2221 -0.0801  0.2535
55085W        W98179  12.690   5.755  16.451  0.1668  0.4324  0.0725
55086W        W98180  13.301   6.992  16.321 -0.3368  0.1985  0.0980
55087W        W98181  13.561  10.040  18.168 -0.0910  0.1693  0.0046
55088W        W98182  14.467   9.536  16.675  0.1168  0.0949 -0.0482
55089W        W98183  14.375   6.383  16.146  0.1328 -0.3735 -0.0005
55090W        W98184  12.756   7.156  16.470 -0.1225  0.1712 -0.0145
55091W        W98185  11.412   9.702  19.572  0.0594  0.0623  0.1255
55092W        W98186  11.774  10.083  16.959 -0.0988 -0.2542  0.0873
55093W        W98187  11.670  10.637  17.605  0.1931 -0.0099  0.1720
55094W        W98188  13.033   8.844  16.337  0.0683  0.0835  0.0338
55095W        W98189  15.327   8.285  15.770  0.1125  0.0010 -0.0027
55096W        W98190  12.225   9.484  20.030  0.1625 -0.1382  0.3230
55097W        W98191  12.853   9.292  19.816 -0.0813  0.2066  0.0928
55098W        W98192  14.649   9.948  16.412  0.2378 -0.0493 -0.1373
55099W        W98193  12.241   7.170  18.146  0.1510 -0.2779 -0.1698
55100W        W98194  11.880   8.660  16.513 -0.1815  0.0549 -0.0741
55101W        W98195  12.860   5.829  17.983  0.0731  0.0917  0.1837
55102W        W98196  11.161  10.458  16.870 -0.0049  0.0103  0.1297
55103W        W98197  14.374   6.827  17.670  0.0555 -0.0315  0.3818
55104W        W98198  13.532   7.282  19.731 -0.2052 -0.1308  0.3243
55105W        W98199  11.293   8.070  19.118  0.2924  0.1897  0.1068
55106W        W98200  14.409   6.954  19.322 -0.2055 -0.0235  0.1468
55107W        W98201  13.210   9.572  15.544  0.2542  0.0496 -0.1731
55108W        W98202  12.820   8.837  18.362  0.0682 -0.0227  0.0697
55109W        W98203  11.496   8.162  16.326  0.2951 -0.0571  0.0826
55110W        W98204  13.281   8.605  18.281  0.0366 -0.1460 -0.2983
55111W        W98205  11.536   8.283  19.773  0.1182  0.0962  0.0957
55112W        W98206  11.551  10.002  19.133  0.1415  0.2714 -0.1989
55113W        W98207  14.006   9.620  19.520  0.2817 -0.0778  0.1714
55114W        W98208  12.820   9.381  17.226 -0.1570  0.0495  0.0447
55115W        W98209  12.295   8.352  19.315 -0.1205 -0.0610  0.2359
55116W        W98210  12.511   8.063  16.254  0.0036  0.0268  0.2169
55117W        W98211  12.544  11.039  15.811 -0.0816  0.2718  0.0377
55118W        W98212  13.602   9.623  15.872  0.0836  0.0484  0.2035
55119W        W98213  11.319   7.519  16.563  0.3283 -0.1553  0.0717
55120W        W98214  13.040  10.754  18.226 -0.2662 -0.1778  0.1403
55121W        W98215  11.515  10.272  16.581  0.1747  0.0164  0.3585
55122W        W98216  12.827   9.486  18.577  0.1723 -0.5400 -0.1419
55123W        W98217  11.626   9.589  16.817  0.1581 -0.2448  0.2684
55124W        W98218  12.645   7.179  20.379 -0.0840  0.0804 -0.1326
55125W        W98219  10.298   9.642  17.971 -0.0587 -0.2476 -0.2321
55126W        W98220  11.957   7.101  16.807 -0.0970 -0.0585 -0.1211
55127W        W98221  10.692  10.264  16.963 -0.2498  0.1458  0.1085
55128W        W98222  14.686   7.158  18.883  0.0813 -0.1316  0.1818
55129W        W98223  12.814   9.329  15.832  0.1328  0.1100  0.0148
55130W        W98224  11.909   7.682  17.639  0.0082 -0.1425 -0.1388
55131W        W98225  12.677   7.078  17.554 -0.0468  0.1827  0.1202
55132W        W98226  11.924  10.424  18.019  0.1268 -0.0062  0.1260
55133W        W98227  12.692   9.290  19.277 -0.1288  0.1861  0.0107
55134W        W98228  13.064   7.527  16.584  0.1186  0.2967 -0.1748
55135W        W98229  13.640   8.898  17.615  0.0854 -0.3516 -0.0310
55136W        W98230  11.986   8.464  19.703  0.0033  0.0195 -0.1314
55137W        W98231  11.274   7.317  17.095 -0.1747 -0.1844  0.0126
55138W        W98232  13.493   8.277  18.966  0.2624  0.0208 -0.2633
55139W        W98233  13.207   7.053  16.820  0.0754 -0.1493 -0.0673
55140W        W98234  11.130   9.923  18.540  0.1453  0.1462  0.0060
55141W        W98235  12.322  11.514  18.600  0.3588 -0.0317  0.2217
55142W        W98236  11.361   9.103  16.581 -0.1068 -0.1586  0.3169
55143W        W98237  11.786   9.663  17.819  0.3211 -0.0573  0.0377
55144W        W98238  10.547   8.696  19.676 -0.2425 -0.0785  0.2410
55145W        W98239  13.290   8.202  18.542  0.0067  0.2910 -0.1388
55146W        W98240  14.082   7.536  18.516 -0.1291  0.0035  0.0246
55147W        W98241  12.870   6.322  17.134  0.0145 -0.0473 -0.1424
55148W        W98242  12.440   8.757  17.957 -0.3666 -0.3814  0.4888
55149W        W98243  13.734   8.378  17.587 -0.2511 -0.0910 -0.2171
55150W        W98244  13.254   8.540  17.652  0.1965 -0.1767  0.0508
55151W        W98245  11.898  10.688  20.549  0.0613  0.0914 -0.1757
55152W        W98246  13.150   7.706  17.112 -0.3494 -0.2887  0.1482
55153W        W98247  14.816   9.497  16.289  0.1639  0.1896  0.1094
55154W        W98248  14.635   8.402  19.177  0.1417  0.2319 -0.2497
55155W        W98249  11.724   8.861  16.995 -0.4756  0.2749  0.0849
55156W        W98250  10.781  10.486  18.052  0.1762  0.0255 -0.1955
55157W        W98251  10.816   9.146  17.092  0.0019 -0.0550 -0.0476
55158W        W98252  14.325   7.933  18.796 -0.1170  0.0910 -0.1401
55159W        W98253  10.383  10.519  18.781 -0.1051  0.2142 -0.0411
55160W        W98254  10.692  10.345  16.054 -0.3054  0.0892 -0.1127
55161W        W98255  11.286  10.247  19.486 -0.2115 -0.0012 -0.1597
55162W        W98256  14.547   7.495  15.556 -0.0834  0.2669 -0.0870
55163W        W98257  12.760  10.149  16.579 -0.0615  0.2647  0.1706
55164W        W98258  12.364   7.954  17.668 -0.0483 -0.0445 -0.2693
55165W        W98259  14.077   7.255  20.174 -0.0546  0.1341 -0.5165
55166W        W98260  13.050   8.229  16.946  0.0322 -0.0758 -0.0978
55167W        W98261  12.076   7.111  20.517  0.2547  0.0474 -0.0960
55168W        W98262  12.829   8.487  17.898  0.2362 -0.0476 -0.1444
55169W        W98263  15.446   9.522  16.454 -0.2094 -0.0424  0.4106
55170W        W98264  11.782   8.297  19.273  0.1626 -0.2196 -0.1877
55171W        W98265  12.720  10.885  19.261 -0.0865  0.1948  0.1025
55172W        W98266  11.385   9.585  20.070  0.1241 -0.2119 -0.2021
55173W        W98267  13.985   7.845  16.666  0.2017 -0.0123 -0.1267
55174W        W98268  13.427   6.675  17.141 -0.0408 -0.2186 -0.0832
55175W        W98269  11.591   9.088  17.806 -0.2653  0.2841 -0.0001
55176W        W98270  14.219   9.096  16.961 -0.2981 -0.1695  0.1966
55177W        W98271  12.049   9.180  16.806 -0.2244 -0.1979 -0.1473
55178W        W98272  13.272   7.295  19.260  0.4268 -0.0403 -0.1132
55179W        W98273  12.227   8.691  16.912 -0.3726 -0.3027 -0.0207
55180W        W98274  13.742   8.298  16.807 -0.2044 -0.2760  0.0493
55181W        W98275  13.638   7.415  16.690 -0.0381 -0.3475  0.3469
55182W        W98276  11.321   9.361  17.107 -0.2771  0.3165  0.2184
55183W        W98277  12.761   6.099  19.477 -0.2145  0.0518 -0.0121
55184W        W98278  13.269   9.249  16.020 -0.2237 -0.0523 -0.2122
55185W        W98279  13.706   5.494  18.099  0.1189 -0.0449 -0.2297
55186W        W98280  13.804   8.768  19.274 -0.1413  0.2196  0.2631
55187W        W98281  13.588   7.638  19.311  0.1845 -0.0396 -0.1027
55188W        W98282  12.259   7.136  19.167  0.0640  0.0960 -0.2647
55189W        W98283  10.601   8.665  19.160  0.0627 -0.2065 -0.1775
55190W        W98284  14.123  10.027  17.860  0.1106  0.0588  0.2542
55191W        W98285  14.190   7.097  15.263  0.0125  0.3225  0.1043
55192W        W98286  14.348   7.822  20.348 -0.0514 -0.0883  0.2455
55193W        W98287  13.368   8.765  16.698  0.1895 -0.0293 -0.1097
55194W        W98288  12.653   7.843  16.742  0.1680  0.0990 -0.1700
55195W        W98289  12.092   9.686  16.891 -0.0336 -0.0672  0.1002
55196W        W98290  13.786   8.584  21.306  0.0484  0.1480  0.3217
55197W        W98291  10.717   8.530  16.387  0.1918  0.2946  0.1335
55198W        W98292  14.394   7.678  19.785  0.0103 -0.2516 -0.0396
55199W        W98293  12.741   9.926  15.720 -0.1332  0.1640 -0.1264
55200W        W98294  12.310   9.491  18.476  0.0638 -0.2044  0.3557
55201W        W98295  14.077   6.770  16.075  0.1145  0.3868 -0.2298
55202W        W98296  10.332   8.223  17.215 -0.2160  0.0404  0.0977
55203W        W98297  10.801  10.111  19.747  0.2604 -0.1686 -0.3210
55204W        W98298  11.940   9.285  17.361  0.0114  0.0073 -0.1922
55205W        W98299  13.631   9.096  15.696  0.1079 -0.0121  0.1212
55206W        W98300  13.946  10.456  18.098  0.1495 -0.1859 -0.2168
55207W        W98301  14.333   7.941  21.640  0.0724  0.0096  0.2648
55208W        W98302  12.955   7.863  16.180  0.0382 -0.3197  0.4018
55209W        W98303  15.631   7.112  19.903 -0.0662  0.0575 -0.1679
55210W        W98304  11.295  10.366  18.359 -0.0260 -0.4967 -0.3183
55211W        W98305  13.214   6.997  18.858 -0.1302 -0.1027  0.1339
55212W        W98306  12.689   9.821  18.282  0.1687 -0.0614 -0.2564
55213W        W98307  10.575   9.630  19.266 -0.1765  0.1242 -0.1804
55214W        W98308  10.784  11.523  16.575 -0.4445 -0.1857 -0.3082
55215W        W98309  13.245   7.804  18.905  0.1945 -0.3594 -0.1665
55216W        W98310  12.495   8.829  19.537 -0.2026  0.1856  0.0885
55217W        W98311  11.781   8.272  16.814  0.5011  0.1329  0.3000
55218W        W98312  14.265  10.126  18.842  0.3349  0.2515  0.1464
55219W        W98313  13.626   9.520  18.211 -0.1181 -0.1296  0.1884
55220W        W98314  11.613   8.154  17.771  0.0338  0.1586  0.1815
55221W        W98315  12.645  10.188  19.462  0.2554  0.1641  0.1402
55222W        W98316  14.028   9.245  16.489  0.4011 -0.3340  0.6502
55223W        W98317  11.263  10.374  17.820 -0.1913 -0.2377 -0.1325
55224W        W98318  12.022   8.477  18.082 -0.0743  0.0508  0.1482
55225W        W98319  12.936   8.296  18.956 -0.2585 -0.3179  0.1001
55226W        W98320  12.883   8.284  17.418 -0.0613  0.3050  0.4254
55227W        W98321  11.845   7.646  16.840  0.0224  0.1707 -0.1379
55228W        W98322  13.686   9.909  15.487  0.4222 -0.1338 -0.2037
55229W        W98323  11.768   9.304  19.903  0.1929  0.2216 -0.0577
55230W        W98324  11.233   9.834  17.649  0.1906  0.0757  0.4158
55231W        W98325  11.747  12.435  16.846  0.2375 -0.2666  0.2653
55232W        W98326  13.783   8.086  16.318 -0.1083 -0.0452 -0.2892
55233W        W98327  13.965   9.900  17.221  0.0878 -0.0640  0.0023
55234W        W98328  13.025  10.683  17.275 -0.0087  0.2538 -0.2665
55235W        W98329  12.543   7.578  16.212  0.0072  0.1743  0.1184
55236W        W98330  11.200   9.934  16.997 -0.0063  0.2084  0.1274
55237W        W98331  10.678   9.496  16.261  0.0798 -0.3500 -0.1037
55238W        W98332  14.281  10.440  16.607 -0.0925 -0.0143 -0.0684
55239W        W98333  12.527  10.845  17.313 -0.2597 -0.0301  0.1038
55240W        W98334  13.785   9.294  21.113 -0.2305  0.0385  0.2156
55241W        W98335  14.309   6.364  17.133 -0.0741 -0.2228  0.2903
55242W        W98336  13.699   8.155  19.403  0.0331 -0.1705 -0.0402
55243W        W98337  13.592   7.651  18.506  0.0201 -0.1625  0.0940
55244W        W98338  11.897   9.267  18.742  0.0079  0.3269  0.0905
55245W        W98339  13.037   9.063  17.564 -0.2370  0.4924 -0.2004
55246W        W98340  11.485   7.235  16.029  0.1471  0.0035  0.1186
55247W        W98341  10.574   9.165  18.104  0.2306 -0.0153  0.1948
55248W        W98342  15.139   7.139  19.727  0.1475  0.1773 -0.2583
55249W        W98343  10.278  11.100  18.223  0.0560 -0.1558 -0.1276
55250W        W98344  13.838   9.985  16.706  0.2857 -0.1606  0.0882
55251W        W98345  11.395   8.560  16.747 -0.0617  0.1663 -0.1931
55252W        W98346  12.514   9.225  17.624  0.1078  0.4059  0.5244
55253W        W98347  14.302   7.417  20.609  0.2763  0.0144  0.0268
55254W        W98348  14.033   9.444  15.953  0.1448  0.2595 -0.0342
55255W        W98349  13.681   7.810  17.046 -0.1989 -0.0590 -0.0576
55256W        W98350  12.616  11.012  18.507  0.0143 -0.2538 -0.2127
55257W        W98351  10.975   9.957  18.074  0.4889  0.1141 -0.0445
55258W        W98352  13.346  11.300  18.578  0.0459 -0.0586 -0.0674
55259W        W98353  10.743   7.089  17.364 -0.0627  0.2831 -0.0021
55260W        W98354  15.817   8.852  16.920 -0.0122  0.0616  0.2774
55261W        W98355  12.372   7.606  18.425 -0.0567 -0.0523 -0.0975
55262W        W98356  13.304   7.630  20.315 -0.1345 -0.2878  0.2073
55263W        W98357  11.017   7.896  18.247  0.0133  0.2019 -0.5978
55264W        W98358  12.862   7.857  18.537 -0.0809  0.0727  0.0197
55265W        W98359  12.303   8.837  18.403  0.1147  0.1297 -0.0771
55266W        W98360  11.080   8.937  18.064  0.1879 -0.1886 -0.0634
55267W        W98361  13.483   8.423  16.379 -0.0066  0.0732 -0.2343
55268W        W98362  13.056   9.297  18.941 -0.0057  0.1844 -0.1302
55269W        W98363  11.895   8.327  15.653  0.0579 -0.1311  0.1242
55270W        W98364  12.418   9.263  21.031 -0.3120  0.1384 -0.4399
55271W        W98365  13.030   6.742  17.508 -0.1335 -0.1302  0.0683
55272W        W98366  11.558   6.656  17.016 -0.1520 -0.2787  0.1062
55273W        W98367  11.722  10.089  17.652 -0.1689 -0.2669 -0.0896
55274W        W98368  11.476   9.152  18.438 -0.1973 -0.0703  0.1241
55275W        W98369  11.634   9.268  19.324 -0.0152 -0.0775 -0.2255
55276W        W98370  11.128   6.861  16.835 -0.1262 -0.1416  0.0976
55277W        W98371  14.909   8.626  15.636  0.0487  0.0394 -0.1529
55278W        W98372  13.202   7.219  17.297  0.2351 -0.0078 -0.3530
55279W        W98373  13.446  10.028  17.274  0.0893  0.2296  0.0828
55280W        W98374  12.690   7.841  17.230  0.0205 -0.1133  0.0290
55281W        W98375  13.412   9.325  17.789 -0.0110 -0.2399  0.0140
55282W        W98376  11.347   7.932  17.000  0.1501 -0.0180 -0.1244
55283W        W98377  14.044  10.896  17.215  0.0191 -0.0695  0.1415
55284W        W98378  13.920  10.974  18.300  0.2276  0.2142 -0.1946
55285W        W98379  13.427   7.579  16.274  0.0125  0.0212  0.1364
55286W        W98380  11.509   7.070  18.243 -0.2204 -0.3008 -0.0508
55287W        W98381  11.708   9.685  17.297 -0.0629 -0.2711 -0.1710
55288W        W98382  14.633   7.196  19.661 -0.0025 -0.2302  0.1011
55289W        W98383  13.468   7.790  19.804  0.0052 -0.0199 -0.1971
55290W        W98384  12.719  10.337  17.114  0.0673  0.1183  0.2314
55291W        W98385  14.080   6.025  18.449  0.0325 -0.1346  0.1190
55292W        W98386  12.724   9.750  19.137 -0.1938 -0.1585  0.1850
55293W        W98387  12.313   9.643  17.944  0.0983  0.0134 -0.3678
55294W        W98388  10.900  10.162  17.497  0.0677 -0.0591  0.0164
55295W        W98389  12.897   9.544  17.730 -0.0625  0.2453 -0.1359
55296W        W98390  11.820   9.563  18.333  0.1423  0.0074 -0.4512
55297W        W98391  12.036  10.569  16.508 -0.1519 -0.0978 -0.0653
55298W        W98392  13.488  10.479  17.316 -0.0675  0.0723 -0.1497
55299W        W98393  12.616   8.416  16.966  0.3225  0.1447 -0.2475
55300W        W98394  15.076   8.750  16.950 -0.2249  0.0699 -0.1580
55301W        W98395  12.186   7.666  17.217 -0.2488 -0.0592 -0.3729
55302W        W98396  14.559   5.984  19.010 -0.2637  0.2870 -0.1509
55303W        W98397  13.671   7.371  18.069 -0.1392  0.0807 -0.1289
55304W        W98398  13.094   8.716  17.120 -0.0836 -0.2205  0.0402
55305W        W98399  10.350   8.525  16.779  0.0842  0.3676  0.0618
55306W        W98400  10.127  11.064  16.719  0.2458  0.2852 -0.1720
55307W        W98401  10.741  10.061  18.893 -0.3137  0.2451  0.0981
55308W        W98402  11.510   6.566  19.526 -0.0414  0.1583 -0.1704
55309W        W98403  10.919   8.378  19.524  0.1501  0.0203 -0.1658
55310W        W98404  11.205   9.320  17.581  0.0947 -0.0318 -0.3627
55311W        W98405  12.221   6.814  15.840 -0.5051  0.0552 -0.0308
55312W        W98406  14.620   8.899  15.360 -0.1117  0.0422 -0.3717
55313W        W98407  10.832   8.732  18.707  0.2112 -0.0192 -0.0162
55314W        W98408  11.836   7.182  17.796  0.1321  0.0827 -0.3598
55315W        W98409  13.551   8.598  17.156 -0.0025 -0.1766 -0.3676
55316W        W98410  15.056   9.201  15.852 -0.0385 -0.3448 -0.0244
55317W        W98411  12.212   7.770  16.514 -0.1019 -0.2015 -0.1509
55318W        W98412  13.879   9.870  19.050  0.0949  0.0443 -0.1577
55319W        W98413  12.297   9.646  17.415 -0.2369 -0.1467 -0.2354
55320W        W98414  12.752   8.159  20.238  0.1079  0.2255  0.4452
55321W        W98415  11.924   7.960  20.928 -0.1297 -0.0178  0.0066
55322W        W98416  10.815   7.998  17.233  0.1445  0.1911  0.2643
55323W        W98417  13.856   7.936  18.136  0.1031 -0.0693 -0.0406
55324W        W98418  13.456   9.728  16.888  0.0139  0.0332  0.2896
55325W        W98419  13.462  11.399  16.047  0.3138  0.1260 -0.0458
55326W        W98420  13.181   9.508  19.415  0.1282 -0.3726  0.1224
55327W        W98421  12.726  10.731  19.789 -0.1694  0.2311  0.0520
55328W        W98422  12.887   7.010  18.217  0.0225  0.0846  0.4714
55329W        W98423  14.435   8.498  16.403  0.0750 -0.2281  0.0176
55330W        W98424  12.260   9.031  19.103 -0.0803  0.1200  0.2613
55331W        W98425  15.111   9.739  15.528  0.0160  0.2566  0.0166
55332W        W98426  14.750   8.072  19.592 -0.3036 -0.1195  0.1096
55333W        W98427  14.182   7.322  16.841  0.1326  0.2080 -0.0729
55334W        W98428  12.514   6.397  19.023 -0.0477  0.1278  0.1232
55335W        W98429  12.170   8.375  18.541  0.1084 -0.3469 -0.0457
55336W        W98430  14.155   9.324  18.269  0.0991  0.1306  0.1591
55337W        W98431  12.736   7.453  18.004  0.2094 -0.1149 -0.1950
55338W        W98432  13.064   6.443  19.110  0.1015 -0.1271  0.0114
55339W        W98433  13.123   9.172  16.837 -0.1156  0.0262 -0.0732
55340W        W98434  10.226   8.189  17.698  0.0022  0.1423  0.4324
55341W        W98435  12.784   7.336  17.086  0.0253  0.0187  0.2639
55342W        W98436  11.918   9.701  19.174  0.0308 -0.2444 -0.1713
55343W        W98437  12.560   9.822  17.005  0.2721 -0.0518 -0.0425
55344W        W98438  14.022   9.320  20.585  0.1355 -0.0448  0.0460
55345W        W98439  13.628   8.877  16.211 -0.0898 -0.0934 -0.0566
55346W        W98440  15.132   8.690  16.072  0.0203 -0.1396  0.2402
55347W        W98441  12.532   9.942  18.728 -0.3296 -0.0462 -0.1436
55348W        W98442  13.850   9.433  18.670 -0.2607 -0.0557 -0.0790
55349W        W98443  13.320   9.561  20.102 -0.1615  0.1122 -0.1285
55350W        W98444  13.212   7.611  18.222  0.0833  0.0511  0.1179
55351W        W98445  12.270   7.375  17.629 -0.1710  0.1187  0.0079
55352W        W98446  10.782   9.751  17.174 -0.0243 -0.3165 -0.2674
55353W        W98447  12.389   9.171  17.143  0.1869  0.0650 -0.1235
55354W        W98448  13.537   9.076  18.878  0.0164  0.0403  0.2174
55355W        W98449  10.971   7.121  17.877  0.1038  0.1463 -0.0884
55356W        W98450  14.281   7.487  17.991  0.1878  0.3760 -0.3066
55357W        W98451  12.226   9.970  19.929  0.2452  0.1849  0.3740
55358W        W98452  13.253   9.875  17.769  0.0540  0.1236  0.0474
55359W        W98453  12.626   9.675  22.379  0.0306 -0.0199  0.0752
55360W        W98454  11.552   7.464  19.981 -0.0056 -0.2153  0.2413
55361W        W98455  13.686   6.297  19.315 -0.1365  0.4761  0.0189
55362W        W98456  14.260   7.475  21.824 -0.0722 -0.0691 -0.2615
55363W        W98457  10.963   9.549  19.806  0.0663  0.2900  0.0425
55364W        W98458  10.947  10.256  21.718 -0.1978  0.1598 -0.0420
55365W        W98459  10.693   7.117  22.481  0.0760  0.1856 -0.0078
55366W        W98460  13.292   9.809  21.509 -0.2590  0.2247  0.3234
55367W        W98461  12.960  10.757  21.408 -0.1394  0.0400 -0.0052
55368W        W98462  13.329   9.009  19.321 -0.1295  0.1191  0.0729
55369W        W98463  12.935   7.875  23.569  0.1178  0.2867 -0.0878
55370W        W98464  11.982   9.739  23.051 -0.0774 -0.3447  0.1959
55371W        W98465  11.413   6.766  18.722 -0.0256 -0.2305 -0.0107
55372W        W98466  10.379   7.042  20.993  0.1346 -0.1924  0.0077
55373W        W98467  13.871   9.381  21.894  0.2388  0.1188 -0.0452
55374W        W98468  10.705   8.617  20.174  0.0780 -0.0616  0.2691
55375W        W98469  11.369   8.295  23.594  0.2659 -0.1804 -0.1076
55376W        W98470  13.343   7.755  20.861  0.0958 -0.0981  0.1009
55377W        W98471  12.396  10.934  22.246  0.1346 -0.1302  0.1264
55378W        W98472  13.488   7.033  23.241  0.1550 -0.2167 -0.2518
55379W        W98473  13.350   6.478  22.505 -0.2182 -0.5552  0.0470
55380W        W98474  12.272   8.554  20.371 -0.0301 -0.0769  0.1434
55381W        W98475  10.899   9.534  18.852  0.2203 -0.4104 -0.2749
55382W        W98476  11.194   7.680  24.315 -0.0952 -0.2411  0.1960
55383W        W98477  10.723   8.606  22.130  0.0752 -0.0672 -0.0556
55384W        W98478  15.477   8.436  22.397  0.1375 -0.0078 -0.0685
55385W        W98479  13.440   9.269  21.624 -0.2445 -0.2216 -0.0867
55386W        W98480  12.695  10.504  21.796 -0.0671  0.1776 -0.0128
55387W        W98481  11.916  10.581  21.050 -0.0578  0.0802  0.4143
55388W        W98482  15.210   6.867  21.570  0.0029  0.0955 -0.3410
55389W        W98483  11.341   8.405  20.311  0.0831 -0.1389 -0.1782
55390W        W98484   8.924  10.806  20.703 -0.0720 -0.0376 -0.1194
55391W        W98485  11.147  10.332  20.691  0.0893 -0.2605 -0.0693
55392W        W98486  14.597   9.858  21.538 -0.1991  0.1978  0.0960
55393W        W98487  12.658  10.158  22.418 -0.3112  0.5440  0.1433
55394W        W98488  12.754   9.248  22.153 -0.0345  0.0585 -0.4379
55395W        W98489  10.213  10.323  20.091 -0.1442 -0.2245 -0.2275
55396W        W98490  13.522  12.049  23.589 -0.0943 -0.4512 -0.0234
55397W        W98491  12.351   9.421  20.574  0.1540  0.0158  0.0347
55398W        W98492  11.662   7.732  21.654 -0.4469  0.2860 -0.2503
55399W        W98493  13.109   9.791  20.515  0.0342 -0.0828 -0.2404
55400W        W98494  11.888   9.793  20.217  0.2451  0.1354  0.1757
55401W        W98495  11.295  10.616  21.812  0.0109 -0.0624 -0.0608
55402W        W98496  10.814   8.573  23.141 -0.1230  0.1565  0.0378
55403W        W98497  11.139  10.034  22.653  0.0289  0.1526  0.2511
55404W        W98498  14.540   8.148  22.638 -0.3306  0.0698  0.0062
55405W        W98499  10.891   9.016  19.983  0.1109  0.0793  0.0565
55406W        W98500  14.213   7.957  19.358  0.0507 -0.2792 -0.6316
55407W        W98501  11.966   7.941  18.084  0.1447 -0.4148  0.4686
55408W        W98502  14.100   8.809  20.535 -0.1806  0.0319 -0.0204
55409W        W98503  13.083   7.643  21.674 -0.2610  0.1074  0.2518
55410W        W98504  11.497   9.633  21.399 -0.2377 -0.2290 -0.1102
55411W        W98505  11.419   8.120  21.434 -0.1671  0.1669  0.0335
55412W        W98506  12.541   9.779  24.298  0.0422 -0.0782 -0.1005
55413W        W98507  12.449   7.982  19.609  0.3518  0.1054  0.1057
55414W        W98508  13.101   7.396  22.123  0.0363 -0.0161  0.0198
55415W        W98509  11.744  10.368  21.982  0.2566 -0.3538  0.1252
55416W        W98510  10.584   8.146  20.286 -0.1030 -0.1716 -0.1331
55417W        W98511  12.961   8.775  19.684  0.2114 -0.0112  0.0172
55418W        W98512  13.906   8.991  21.539 -0.2353 -0.0052  0.0516
55419W        W98513  13.215   9.147  18.471  0.0311 -0.0526 -0.0673
55420W        W98514  10.527   7.708  19.947 -0.0145 -0.3078 -0.2612
55421W        W98515  11.805   8.906  23.914 -0.0806  0.1519  0.0040
55422W        W98516  11.392   7.869  23.349 -0.1825  0.4188 -0.1308
55423W        W98517  12.165   6.754  18.853  0.2490  0.2674  0.3774
55424W        W98518  13.787   9.962  24.145 -0.0111 -0.0444 -0.0991
55425W        W98519  10.416   8.574  23.456  0.2847  0.1460 -0.1722
55426W        W98520  13.534   6.393  21.200  0.0514 -0.0140  0.2749
55427W        W98521  11.627   8.800  19.903  0.3366  0.1170 -0.1011
55428W        W98522  13.664  10.412  22.228  0.1798 -0.2914  0.0792
55429W        W98523  14.020   8.656  20.037  0.0729 -0.1259 -0.2249
55430W        W98524  13.916   7.715  22.609  0.0652  0.5264 -0.0679
55431W        W98525  15.043   8.219  22.084  0.1284 -0.0204 -0.2128
55432W        W98526  10.563  10.138  18.342 -0.2751 -0.0700  0.0055
55433W        W98527  12.071   8.552  20.838  0.1899 -0.0440 -0.2923
55434W        W98528  13.927  10.755  21.962  0.1498 -0.0695 -0.0763
55435W        W98529  15.229   7.985  19.969 -0.2383 -0.1343  0.0724
55436W        W98530  10.473   9.387  22.709 -0.0316  0.1655  0.1994
55437W        W98531  11.083   8.547  22.696  0.0944 -0.4109  0.1590
55438W        W98532  12.994  10.205  23.429  0.0010 -0.2686  0.0769
55439W        W98533  11.807  10.262  20.339  0.0121  0.2239  0.1579
55440W        W98534  11.773   8.577  23.515  0.0437  0.0749  0.2192
55441W        W98535  10.438   9.059  21.388  0.1053 -0.3072 -0.2543
55442W        W98536  10.735   7.913  21.922  0.1866 -0.1188  0.0746
55443W        W98537  11.820  10.218  23.009 -0.2521 -0.1694  0.0053
55444W        W98538  12.874   7.657  21.188 -0.2418 -0.3506 -0.1175
55445W        W98539  11.136   7.443  22.766  0.0191 -0.1920 -0.2244
55446W        W98540  15.652   6.570  21.549  0.0105  0.1403  0.1398
55447W        W98541  11.003   8.993  21.399  0.1278  0.1529 -0.2452
55448W        W98542  13.428  10.187  20.731 -0.1850  0.0815 -0.2325
55449W        W98543  12.764   7.879  19.213 -0.1672  0.0016 -0.2993
55450W        W98544  14.052   9.949  18.358 -0.2262  0.1317 -0.1716
55451W        W98545  11.144   7.948  22.776  0.0439 -0.1095 -0.5575
55452W        W98546  13.056   8.637  21.506 -0.1347  0.1721  0.0572
55453W        W98547  11.829   6.997  21.814  0.3048 -0.1090  0.0815
55454W        W98548  11.811   8.553  22.541  0.0437 -0.1332  0.0808
55455W        W98549  13.717   9.442  23.945 -0.2449  0.0682  0.1853
55456W        W98550  10.972   6.683  20.670  0.1956 -0.1032  0.1894
55457W        W98551  13.701   6.659  22.901 -0.0684 -0.1203 -0.0738
55458W        W98552  12.434   7.683  20.550  0.3888 -0.2190 -0.1342
55459W        W98553  10.621  10.592  19.658 -0.0300  0.0062 -0.2865
55460W        W98554  14.545   7.189  22.191 -0.4060 -0.1730  0.0102
55461W        W98555  13.524   9.852  19.555 -0.0784  0.2401 -0.3926
55462W        W98556  13.942   9.708  23.000 -0.0196 -0.1347  0.2640
55463W        W98557  13.869   9.542  20.121 -0.2711  0.0187 -0.3816
55464W        W98558  12.904   7.867  22.104 -0.0308  0.3132  0.2916
55465W        W98559  10.069   8.545  19.194 -0.1234 -0.4706  0.1984
55466W        W98560  12.077  11.801  20.226  0.4833 -0.0488 -0.0325
55467W        W98561  11.263   8.923  21.927 -0.0015 -0.0663  0.0266
55468W        W98562  11.777   8.355  21.212 -0.2748  0.1200 -0.0146
55469W        W98563  14.725  10.302  21.318 -0.0018 -0.0584 -0.2322
55470W        W98564  13.310  10.041  19.099  0.1092  0.0071 -0.0945
55471W        W98565  12.362   9.431  22.834 -0.0943  0.0525 -0.2200
55472W        W98566  13.470   7.731  21.367  0.0169  0.2571  0.4464
55473W        W98567  13.952   8.315  21.675  0.1649 -0.1549  0.1689
55474W        W98568  11.925   7.928  19.677 -0.2892 -0.0873 -0.1963
55475W        W98569  11.523   7.276  18.688 -0.2374 -0.1824 -0.1679
55476W        W98570  12.083  10.310  21.551 -0.2284  0.1341 -0.2923
55477W        W98571  10.366  10.923  20.577  0.1176 -0.2352  0.2657
55478W        W98572  10.402   9.036  22.219 -0.3983  0.0238 -0.2927
55479W        W98573  11.883   8.306  20.136  0.0055 -0.0335 -0.1766
55480W        W98574  14.820   6.550  21.726  0.1092 -0.0686 -0.2123
55481W        W98575  11.842   7.992  23.551  0.0991  0.3168  0.1470
55482W        W98576  13.731   6.829  22.314 -0.1556 -0.2308  0.2588
55483W        W98577  12.554   8.441  19.894  0.0215 -0.2493  0.1375
55484W        W98578  10.608   9.828  23.922 -0.3107 -0.0901 -0.4821
55485W        W98579  13.483   5.816  21.519  0.1045  0.3819  0.1534
55486W        W98580  13.927   6.357  19.795 -0.2123 -0.0535 -0.0898
55487W        W98581  12.385   9.782  23.786 -0.1346  0.0935  0.1520
55488W        W98582  12.726   9.616  21.335 -0.0521  0.0738  0.0755
55489W        W98583  14.057   8.441  19.527 -0.0774  0.1704  0.0986
55490W        W98584  12.954   7.605  19.570 -0.0525  0.3267 -0.0108
55491W        W98585   9.970  10.723  23.397 -0.0627 -0.0774 -0.2320
55492W        W98586  12.935   9.833  19.707  0.0436 -0.0049 -0.2978
55493W        W98587  13.629   9.426  22.395 -0.1489  0.1139 -0.0838
55494W        W98588  12.453   7.453  19.486 -0.1893  0.3279 -0.1051
55495W        W98589  14.148   9.667  20.978  0.0212  0.1928 -0.0921
55496W        W98590  10.523   9.930  21.905 -0.0932 -0.6256 -0.1379
55497W        W98591  13.151  10.277  22.287  0.0054  0.1675 -0.2498
55498W        W98592  12.833   8.482  20.597 -0.0641  0.1279  0.4236
55499W        W98593  13.209   8.408  23.027 -0.1477  0.1925  0.1107
55500W        W98594  12.035   7.356  18.772 -0.1548  0.0530  0.0582
55501W        W98595  12.704   7.160  22.274 -0.1793  0.2083 -0.2608
55502W        W98596   9.917  10.237  19.090  0.2028  0.1233 -0.1316
55503W        W98597  13.178   8.250  22.395  0.3281 -0.0601 -0.1286
55504W        W98598  15.456   8.177  21.466  0.0737  0.0512  0.0955
55505W        W98599  13.547   6.967  24.274 -0.1794 -0.1589  0.1454
55506W        W98600  13.047   9.033  21.842 -0.0848 -0.2162 -0.0184
55507W        W98601  12.294   7.528  19.973  0.0330  0.1975  0.1921
55508W        W98602  11.685   9.340  20.409 -0.0982  0.1598 -0.0845
55509W        W98603  11.920   8.800  19.371 -0.1009 -0.0734  0.1759
55510W        W98604  12.388   7.275  22.612  0.2516  0.1838  0.2574
55511W        W98605  11.330   8.594  22.281 -0.2913  0.0687  0.2044
55512W        W98606  11.410   9.421  21.900 -0.2991 -0.1410 -0.1318
55513W        W98607  13.052  10.263  21.444 -0.2337 -0.0857 -0.3867
55514W        W98608  12.977   7.481  20.627 -0.0245 -0.0800  0.3108
55515W        W98609  12.560   7.803  22.889 -0.1253  0.1815 -0.1827
55516W        W98610  13.261   6.717  21.417  0.4414  0.2203 -0.2600
55517W        W98611  12.215  10.353  19.656  0.2730 -0.0924  0.0401
55518W        W98612  11.481   7.828  20.570  0.3185 -0.2945 -0.2509
55519W        W98613  12.924   7.082  21.738 -0.2581 -0.2101 -0.6397
55520W        W98614  10.748   9.054  21.852  0.2345  0.1030  0.0483
55521W        W98615  11.053   8.000  19.943 -0.0432 -0.2710 -0.2670
55522W        W98616  13.971   8.655  22.069 -0.1232  0.1470 -0.0861
55523W        W98617  11.075   9.304  20.397 -0.1835 -0.0236  0.2233
55524W        W98618  14.998   7.309  22.376  0.0554 -0.0020  0.2342
55525W        W98619  11.724   8.283  20.639  0.2712  0.1955 -0.1297
55526W        W98620  12.214   7.025  21.363 -0.2458 -0.2381 -0.1643
55527W        W98621  10.705   9.493  20.691 -0.1853 -0.0234 -0.1619
55528W        W98622  13.508   6.759  19.881  0.1057 -0.0229 -0.2065
55529W        W98623  14.285   8.393  21.187 -0.2645  0.2528 -0.0012
55530W        W98624  12.311   6.826  22.904 -0.3431 -0.0245  0.0249
55531W        W98625  14.849   7.321  21.764  0.2137 -0.0150 -0.0527
55532W        W98626  10.558  10.232  21.182 -0.1656  0.0954  0.3331
55533W        W98627  13.254   9.380  21.051  0.0943 -0.2941 -0.2911
55534W        W98628  12.838   7.943  20.778  0.3202  0.2535  0.2177
55535W        W98629  13.578   9.908  22.299  0.0327 -0.0659 -0.2896
55536W        W98630  12.854   8.353  23.365 -0.1788 -0.2339 -0.1494
55537W        W98631  11.143   9.109  18.875  0.0495  0.0782 -0.2522
55538W        W98632  12.358   9.578  21.855  0.0790 -0.2131 -0.0645
55539W        W98633  12.922   8.122  21.440  0.1253  0.2509  0.1346
55540W        W98634  11.266  10.175  20.222 -0.0366  0.1360  0.0077
55541W        W98635  11.619  11.181  22.507 -0.1296 -0.3832  0.1919
55542W        W98636  11.212   8.549  19.053  0.2214 -0.0384 -0.3077
55543W        W98637  11.587   9.129  22.402  0.1813  0.2965  0.2976
55544W        W98638  10.955   7.597  23.168 -0.0845 -0.0043  0.0283
55545W        W98639  14.944   8.921  22.713 -0.2923 -0.1746  0.1167
55546W        W98640  11.340   8.621  21.255 -0.2456  0.2554  0.1732
55547W        W98641  11.189   7.092  20.232 -0.2161  0.1210  0.1892
55548W        W98642  13.005   9.128  21.372 -0.2249 -0.0117  0.1048
55549W        W98643  14.301  10.018  22.756 -0.2075 -0.0093  0.0103
55550W        W98644  11.304   8.140  22.104  0.0685 -0.0445 -0.1764
55551W        W98645  11.411   9.881  24.118  0.0193  0.4718  0.0427
55552W        W98646  12.722   6.538  23.150  0.4335  0.0045  0.1534
55553W        W98647  14.545   9.538  19.230  0.2284 -0.0060 -0.0565
55554W        W98648  11.833   8.708  23.031 -0.1863  0.2129 -0.2286
55555W        W98649  11.332   9.158  19.772  0.1649  0.2500 -0.0369
55556W        W98650  10.637   9.359  23.733 -0.0803 -0.1586 -0.2167
55557W        W98651  12.278   7.978  20.131 -0.2695  0.0501 -0.0965
55558W        W98652  12.425   7.818  21.037 -0.0735 -0.1484 -0.0005
55559W        W98653  12.592   9.171  21.636 -0.1682 -0.2131  0.1103
55560W        W98654  11.921   9.689  19.659  0.1623  0.1082 -0.0667
55561W        W98655  10.828   9.864  22.301  0.0629  0.0882 -0.0887
55562W        W98656  14.158   7.229  21.080 -0.3088  0.0097  0.2746
55563W        W98657  13.690   9.376  19.199  0.0378 -0.3264 -0.0667
55564W        W98658  13.888   8.061  21.242  0.2185  0.4018  0.0108
55565W        W98659  13.915   7.793  23.232 -0.0131 -0.3077 -0.2813
55566W        W98660  13.323   8.530  19.346  0.0692 -0.0327 -0.1317
55567W        W98661  14.146   6.857  22.919 -0.3439  0.0464 -0.0146
55568W        W98662  12.631   7.462  21.898 -0.0226  0.0751 -0.1929
55569W        W98663  14.238   9.452  21.442 -0.0020  0.2067  0.1669
55570W        W98664  11.469   7.366  23.198  0.1545  0.0444  0.0463
55571W        W98665  12.699   9.234  23.298  0.2160 -0.0384 -0.2088
55572W        W98666  11.977   8.407  23.897 -0.0527  0.1574 -0.1502
55573W        W98667  12.288   8.270  21.209  0.1283  0.0965 -0.0897
55574W        W98668  11.593   7.449  19.160  0.0830 -0.0532 -0.3306
55575W        W98669  11.092  10.549  22.575  0.4059  0.0828 -0.3157
55576W        W98670  14.778  10.513  22.249 -0.0702 -0.2820  0.2674
55577W        W98671  12.798   8.343  19.445  0.1033 -0.0247 -0.3583
55578W        W98672  14.736   7.916  20.686  0.1792 -0.0792 -0.1557
55579W        W98673  10.776   9.357  22.265 -0.0273  0.4042  0.0168
55580W        W98674  14.725   7.768  22.040  0.0319  0.0788 -0.1007
55581W        W98675  11.885   7.497  18.312 -0.3533  0.1761 -0.1027
55582W        W98676  11.644   9.086  21.549  0.0759  0.1393 -0.0116
55583W        W98677  12.400   7.300  23.166 -0.0726  0.1630  0.0372
55584W        W98678  13.958   9.941  22.013  0.0792 -0.1206 -0.1498
55585W        W98679  13.104   7.201  21.092 -0.0540 -0.0637  0.4450
55586W        W98680  12.973   8.662  22.647  0.0106 -0.0567 -0.0966
55587W        W98681  12.516   7.862  21.598 -0.0671 -0.1534 -0.0704
55588W        W98682  11.024   8.500  21.697  0.0096  0.0385  0.3585
55589W        W98683  10.109   8.258  23.919  0.0473  0.1321 -0.1492
55590W        W98684  13.436   9.656  21.939 -0.1941 -0.0818  0.0031
55591W        W98685  13.599   5.815  21.014  0.3203  0.1671 -0.1291
55592W        W98686  14.003   8.174  22.424 -0.0117  0.0161 -0.1044
55593W        W98687  13.609   9.749  21.072  0.3105  0.1604 -0.0934
55594W        W98688  11.947   7.142  19.962  0.1395  0.0276 -0.0232
55595W        W98689  10.841   7.080  23.032  0.0523  0.2625 -0.2752
55596W        W98690  12.284   8.958  23.162 -0.0121 -0.4276 -0.1997
55597W        W98691  10.347   8.150  19.277 -0.0537  0.0556 -0.2301
55598W        W98692  13.835   7.257  22.870  0.0785 -0.1503 -0.0578
55599W        W98693  11.449   9.582  18.787 -0.1159 -0.0170 -0.1280
55600W        W98694  14.240  10.185  21.342  0.2989 -0.0346 -0.2409
55601W        W98695  12.503   8.866  20.686  0.2351 -0.0326 -0.1248
55602W        W98696  10.452   8.207  19.829  0.0288 -0.2350 -0.3320
55603W        W98697  11.919  11.073  23.476 -0.1714  0.2363  0.0186
55604W        W98698  10.971   7.378  19.405 -0.0626  0.2089  0.3346
55605W        W98699  10.278   8.954  19.995  0.1070 -0.0280 -0.1948
55606W        W98700  12.613  10.109  21.511 -0.1117  0.1522  0.0479
55607W        W98701  13.625   8.292  22.165  0.0967 -0.0304 -0.3335
55608W        W98702  11.793   5.321  20.239  0.5141  0.0664 -0.1401
55609W        W98703  12.732   8.658  22.202  0.4937  0.1083 -0.0337
55610W        W98704   9.812  10.780  20.398 -0.1176  0.0545 -0.1103
55611W        W98705  13.273   7.233  22.821 -0.2780 -0.0968  0.2574
55612W        W98706  10.912   9.569  21.832  0.0919 -0.0977  0.0772
55613W        W98707  11.233  10.193  22.161 -0.1177  0.1478  0.0749
55614W        W98708  11.181   8.632  19.902  0.1116 -0.2024  0.2988
55615W        W98709  11.825   8.726  22.069 -0.2603 -0.0442 -0.1981
55616W        W98710  14.312   7.292  22.707  0.0664  0.1619 -0.1005
55617W        W98711  12.781   8.591  21.089  0.0488  0.2000 -0.2994
55618W        W98712  13.376  10.254  22.736  0.0823  0.1875 -0.0929
55619W        W98713  13.120   9.648  22.389  0.1162 -0.0465  0.2304
55620W        W98714   9.880   9.472  23.396  0.0333 -0.0688  0.1102
55621W        W98715  12.355  10.124  22.016 -0.2785  0.1303  0.1874
55622W        W98716  15.492   8.937  20.682  0.0008 -0.1534  0.1892
55623W        W98717  10.970   7.969  21.398  0.0292 -0.0342  0.0826
55624W        W98718   8.729  10.027  24.056 -0.3105 -0.1589  0.0636
55625W        W98719  12.126   8.068  22.520 -0.2028 -0.2231  0.1291
55626W        W98720  11.859   8.823  20.376 -0.1763 -0.0081 -0.0382
55627W        W98721  11.433   7.785  19.573  0.0655  0.0162 -0.2395
55628W        W98722  12.632   9.122  18.786 -0.2830  0.3063  0.3071
55629W        W98723  12.516  10.766  23.951 -0.1024  0.1137 -0.1557
55630W        W98724  12.086   8.240  23.025  0.0449 -0.1447  0.0201
55631W        W98725   9.679   9.464  20.229  0.2241 -0.4237 -0.0534
55632W        W98726  13.259   9.087  19.989  0.0493  0.3947  0.1030
55633W        W98727  12.354   6.339  20.207  0.0494 -0.0212  0.2413
55634W        W98728  11.835   9.243  22.001 -0.0578 -0.3331  0.1314
55635W        W98729  12.063   7.814  19.157  0.1760  0.0948 -0.0368
55636W        W98730  11.127   8.959  20.918  0.3395  0.2068 -0.0318
55637W        W98731  10.783   9.956  20.806 -0.1099  0.1567 -0.0396
55638W        W98732  13.802   8.349  20.816 -0.1708  0.1304  0.2427
55639W        W98733  11.495  11.349  21.969 -0.2880 -0.0743  0.0862
55640W        W98734  13.426   9.906  23.754 -0.1276  0.1415  0.0121
55641W        W98735  13.612   6.205  20.659 -0.2085  0.0098 -0.0493
55642W        W98736  13.560   8.608  21.768  0.3657 -0.1889 -0.0879
55643W        W98737  13.976   7.872  22.034 -0.0000 -0.0332  0.1999
55644W        W98738  13.225  11.086  23.990 -0.0230 -0.1510  0.1770
55645W        W98739  12.292   9.015  22.134  0.1245  0.0059  0.1025
55646W        W98740  13.036   6.524  21.056 -0.0235  0.1160  0.1783
55647W        W98741  12.217   7.577  23.558  0.1895 -0.1292 -0.2752
55648W        W98742  15.985   7.727  24.537 -0.0256  0.0421 -0.1844
55649W        W98743  11.576  10.121  23.466  0.0458  0.0056 -0.3883
55650W        W98744  12.492   8.615  18.896  0.1436 -0.2746  0.3641
55651W        W98745  10.232   9.022  19.401  0.0286 -0.0676 -0.1242
55652W        W98746  13.280   8.562  20.809 -0.1480 -0.1996  0.2621
55653W        W98747  15.865   7.811  23.115 -0.1191  0.1861  0.0408
55654W        W98748  12.443   8.095  18.896 -0.0190 -0.3326  0.5160
55655W        W98749  13.200   8.816  20.391 -0.3463 -0.0957 -0.1844
55656W        W98750  10.750  10.491  22.168 -0.0142 -0.0255  0.0615
55657W        W98751   9.801   9.347  21.395  0.0391  0.3384  0.0239
55658W        W98752  11.171   9.506  20.943 -0.2343  0.0880  0.1781
55659W        W98753  11.477   6.682  20.087 -0.0741 -0.1224  0.2784
55660W        W98754  14.654   8.679  21.336 -0.0947 -0.0295  0.0682
55661W        W98755  11.572   8.592  21.677  0.0610 -0.1412  0.0315
55662W        W98756  13.820   6.357  22.166  0.1339 -0.2408 -0.1214
55663W        W98757  12.126   8.837  21.661 -0.2877 -0.0754  0.3371
55664W        W98758  12.419   8.188  20.707 -0.2379 -0.1956  0.0863
55665W        W98759  12.621   8.200  22.500 -0.2935  0.0320 -0.0410
55666W        W98760  11.319   8.853  23.722 -0.1702  0.0995  0.2201
55667W        W98761  13.663   8.509  20.325 -0.0998  0.2246 -0.1422
55668W        W98762  13.222   8.692  22.201  0.0144 -0.0342 -0.0527
55669W        W98763  13.208   8.157  20.477  0.1533  0.1382  0.2500
55670W        W98764  13.301  10.895  22.531 -0.1426  0.1159  0.3547
55671W        W98765  10.410   7.300  20.358  0.2768  0.0338 -0.1172
55672W        W98766  11.898   8.854  21.221  0.2854 -0.0260 -0.0818
55673W        W98767  11.598   8.805  20.796  0.0142 -0.0286 -0.0256
55674W        W98768  11.043   8.051  20.500  0.1113  0.0771  0.2032
55675W        W98769  13.435  10.015  23.202  0.3037  0.0305 -0.2296
55676W        W98770  11.287   7.131  20.911  0.0941  0.0904  0.0309
55677W        W98771  13.501   7.846  22.269 -0.3438 -0.1109  0.5696
55678W        W98772  14.794   8.262  21.090  0.2566  0.3444 -0.0970
55679W        W98773  11.418  10.677  20.285  0.3810  0.0498  0.0635
55680W        W98774  13.645   8.925  20.759  0.2846  0.0923  0.1371
55681W        W98775  13.558  10.699  21.564 -0.1307  0.0184  0.1808
55682W        W98776  12.063   7.441  21.598  0.0176  0.1129 -0.0754
55683W        W98777  12.800  10.688  23.151  0.2340 -0.0762  0.0360
55684W        W98778  12.921  10.100  21.901 -0.1425  0.0166  0.0631
55685W        W98779  13.805   4.868  20.476 -0.1445  0.0764  0.0118
55686W        W98780  11.283   8.212  20.968  0.0723  0.4921 -0.0083
55687W        W98781  11.632  10.217  20.787 -0.3187 -0.2054 -0.1048
55688W        W98782  13.550   8.742  22.939  0.1353  0.1875 -0.3333
55689W        W98783  14.279   8.623  22.416 -0.2719 -0.1586 -0.2153
55690W        W98784  11.641   9.249  21.060 -0.0110  0.0936  0.0903
55691W        W98785  13.164   6.970  22.364  0.1749 -0.2999  0.3227
55692W        W98786  13.162  11.277  23.497 -0.2183  0.1283 -0.0981
55693W        W98787  12.264   8.552  22.314  0.0760 -0.1461 -0.0763
55694W        W98788  10.184   7.811  19.619  0.1025  0.1863 -0.3414
55695W        W98789  12.956   8.861  23.073  0.1907  0.2534 -0.0105
55696W        W98790  11.356   9.981  21.724  0.3034 -0.1340 -0.0741
55697W        W98791  12.387   8.794  21.218  0.2820 -0.0568 -0.1582
55698W        W98792  13.092   9.965  18.651  0.0490 -0.1618  0.0051
55699W        W98793  12.558   9.850  20.912 -0.3026 -0.2287 -0.3457
55700W        W98794  14.339   9.643  21.917 -0.0650  0.2894 -0.1948
55701W        W98795  13.433   8.888  21.193  0.1561 -0.2431  0.0869
55702W        W98796  12.816   7.670  20.043 -0.1345  0.1553  0.0237
55703W        W98797  12.978   6.917  20.725 -0.2013  0.2037  0.0076
55704W        W98798  12.433   8.191  22.034  0.0730  0.0048  0.2430
55705W        W98799  10.114   9.440  19.866  0.0265  0.1912  0.4271
55706W        W98800  12.229   9.231  19.573  0.0005 -0.1641  0.1718
55707W        W98801  11.124   9.517  22.805  0.1207 -0.2709  0.0133
55708W        W98802  13.031   6.118  23.949  0.1187  0.0211  0.0267
55709W        W98803   9.968   8.675  23.154  0.1671  0.0184 -0.0242
55710W        W98804  10.869   9.923  21.351 -0.0315 -0.1336  0.0206
55711W        W98805  11.893   6.983  20.969 -0.2005 -0.0267 -0.0697
55712W        W98806  14.854   7.774  20.190 -0.1577 -0.1674  0.1542
55713W        W98807  11.896   7.577  22.491  0.1485 -0.0777  0.0260
55714W        W98808  11.565   6.931  20.546  0.0375 -0.0528 -0.3272
55715W        W98809  12.850   9.442  20.794 -0.2359 -0.1841  0.1998
55716W        W98810  13.620   8.729  19.794  0.0170 -0.1186  0.1734
55717W        W98811  12.486   6.457  19.760  0.2567  0.1697  0.0436
55718W        W98812  14.167  10.565  22.917  0.0674  0.0696  0.0327
55719W        W98813  10.122   8.987  18.879  0.1036  0.1243  0.0668
55720W        W98814  12.913   7.014  23.223  0.0863 -0.0934 -0.1789
55721W        W98815  11.755   7.179  22.789  0.2072 -0.0727  0.0591
55722W        W98816  11.478   7.758  18.536 -0.1452  0.4139  0.0604
55723W        W98817  13.411   8.005  21.782  0.0350 -0.1687  0.0007
55724W        W98818  13.720   8.018  20.392 -0.0903 -0.0870  0.3137
55725W        W98819  13.637   9.256  19.721 -0.2592  0.0109  0.1585
55726W        W98820  14.281  10.307  23.626  0.1578 -0.3531 -0.2293
55727W        W98821  12.541  10.402  23.575  0.2782 -0.0822  0.0238
55728W        W98822  10.569   7.182  21.573 -0.2201 -0.2429  0.2742
55729W        W98823  13.941   7.694  20.045  0.2458 -0.1917  0.1913
55730W        W98824  11.204   9.335  23.649  0.0229 -0.2043  0.3052
55731W        W98825  14.194   8.262  20.351 -0.0942 -0.1959  0.2582
55732W        W98826  15.460   8.926  22.635  0.0537 -0.2031 -0.3256
55733W        W98827  12.585   8.965  20.169 -0.0221 -0.2130  0.1490
55734W        W98828  11.415   5.638  22.291  0.2305  0.2984 -0.0513
55735W        W98829  11.508  10.833  24.348 -0.1313 -0.0795  0.0865
55736W        W98830  13.655   9.249  22.994  0.1684 -0.2605 -0.1269
55737W        W98831  12.006   6.184  21.208 -0.2709 -0.1915 -0.1655
55738W        W98832  11.644   7.427  20.748 -0.1670  0.0153 -0.1464
55739W        W98833  13.392   8.274  21.278 -0.1674 -0.1700  0.2862
55740W        W98834  10.811   8.519  21.224 -0.2297  0.3622 -0.4667
55741W        W98835  12.335   6.844  20.132 -0.1009  0.2165 -0.2658
55742W        W98836  13.468   7.736  22.917 -0.0372 -0.2476 -0.0174
55743W        W98837  12.228   9.786  21.398 -0.0599 -0.1341 -0.0896
55744W        W98838  13.183   9.391  23.830 -0.1981 -0.6280 -0.2992
55745W        W98839  12.078   7.873  21.383  0.0902  0.0030  0.1015
55746W        W98840  15.800   8.572  19.758  0.1727  0.0480 -0.0336
55747W        W98841  12.875  10.709  22.210  0.0341  0.2117 -0.0020
55748W        W98842  14.308   9.419  23.128 -0.1200  0.1035 -0.0965
55749W        W98843  13.072   9.641  23.357 -0.0139 -0.1418  0.1182
55750W        W98844  12.983   8.976  20.832 -0.2015 -0.0927 -0.1554
55751W        W98845  13.024   7.894  23.122  0.0355 -0.1592 -0.1896
55752W        W98846  12.020   9.054  20.794 -0.1901 -0.1007  0.0588
55753W        W98847  12.076   8.311  21.642 -0.1739  0.0385  0.0585
55754W        W98848  12.560   8.467  21.625  0.1763 -0.1353  0.1303
55755W        W98849  12.024   7.477  21.096  0.2166 -0.2586  0.3411
55756W        W98850  13.495   7.247  21.500 -0.2674 -0.1987 -0.2959
55757W        W98851  13.000   9.912  22.900 -0.1562  0.2164  0.0372
55758W        W98852  14.129   9.052  19.705  0.1336 -0.0786 -0.0069
55759W        W98853  12.430   7.940  27.030  0.0866 -0.1086 -0.1333
55760W        W98854  11.810   8.326  24.357 -0.4336 -0.0402  0.0074
55761W        W98855  12.324   8.443  23.501 -0.1990  0.1162  0.0958
55762W        W98856  13.760   9.226  24.418 -0.4157 -0.0163  0.2531
55763W        W98857  11.523   7.630  25.792  0.0468  0.0932 -0.5635
55764W        W98858  12.384  10.598  24.393  0.1362  0.2159 -0.1807
55765W        W98859  10.739   7.042  26.331  0.0971  0.1193 -0.0124
55766W        W98860  12.730   9.082  25.168  0.1023  0.1489 -0.0587
55767W        W98861  15.388  10.276  26.223  0.3599 -0.3581 -0.2749
55768W        W98862  13.927   9.179  23.497 -0.0293 -0.1247  0.6503
55769W        W98863  11.047   7.523  26.882 -0.0945 -0.0260  0.1113
55770W        W98864  12.467  10.014  26.279  0.1546  0.2188  0.1404
55771W        W98865  12.580   8.166  23.855 -0.1739 -0.1110  0.4662
55772W        W98866  11.165   8.932  27.156 -0.4525 -0.2725 -0.4875
55773W        W98867  13.251   7.342  27.018  0.0128  0.1430 -0.0583
55774W        W98868  10.914   8.537  23.698  0.0550  0.0514 -0.1294
55775W        W98869  12.370   7.759  26.480  0.1464 -0.0613  0.3025
55776W        W98870  11.257   8.824  25.397  0.0403 -0.1334  0.0628
55777W        W98871  12.662  10.588  26.274 -0.0224  0.1785  0.0084
55778W        W98872  11.589   7.822  25.339  0.1068 -0.0364 -0.0497
55779W        W98873  13.636   8.428  25.944 -0.0050 -0.0248 -0.4607
55780W        W98874  11.835   9.101  23.449  0.4584  0.2274  0.0929
55781W        W98875  11.064   8.118  24.009  0.2201  0.3088 -0.1075
55782W        W98876  11.002   9.302  26.859  0.4800 -0.0472 -0.0004
55783W        W98877  10.777   9.480  26.469  0.0579 -0.2686  0.2280
55784W        W98878  13.382   8.576  24.837  0.3727  0.0975  0.0987
55785W        W98879  14.444   9.307  24.988  0.1429 -0.1596  0.0196
55786W        W98880  12.024  10.008  25.229 -0.2854  0.1899  0.1043
55787W        W98881  12.249   9.889  25.788  0.0358 -0.0660 -0.0051
55788W        W98882  13.571  10.086  28.261 -0.0943  0.1281 -0.2386
55789W        W98883  12.374   9.485  25.172  0.2066  0.2318 -0.0719
55790W        W98884  11.973  10.261  24.785  0.3288  0.2690  0.1679
55791W        W98885  12.211   9.183  24.328 -0.0239 -0.3312 -0.0128
55792W        W98886  14.456   9.731  24.645 -0.3744  0.2497 -0.3303
55793W        W98887  15.388  10.634  27.294  0.0537 -0.2062  0.4195
55794W        W98888  11.612  10.909  27.643  0.0610  0.0231  0.1100
55795W        W98889   9.860   9.142  25.110 -0.0962 -0.2193 -0.2365
55796W        W98890  12.783  11.900  27.143  0.1647  0.0509 -0.2246
55797W        W98891  11.599   9.803  27.049 -0.3218 -0.2003  0.1951
55798W        W98892  12.032   9.026  25.816  0.3477 -0.0758 -0.2078
55799W        W98893  11.464   9.125  24.957  0.1639 -0.0728 -0.1015
55800W        W98894  13.437   9.652  22.797 -0.0600 -0.2218 -0.0635
55801W        W98895  12.483   9.057  26.287 -0.0298  0.0064  0.1875
55802W        W98896  12.770   8.812  27.234 -0.3072  0.0299 -0.1850
55803W        W98897  11.047   8.004  25.252 -0.5592 -0.0378  0.0216
55804W        W98898  15.729   7.682  27.013 -0.0791  0.0559  0.0601
55805W        W98899  11.586  11.306  24.152 -0.1511  0.2094  0.1212
55806W        W98900  13.241   7.510  23.288  0.0753 -0.5101 -0.1555
55807W        W98901  12.009   7.635  23.982  0.0772 -0.2665 -0.1572
55808W        W98902  13.857   7.984  25.224 -0.2206 -0.0985  0.3176
55809W        W98903  12.718   6.028  24.918 -0.0206 -0.1546 -0.1293
55810W        W98904  12.251  10.855  25.716 -0.4793  0.1314  0.3207
55811W        W98905  11.814   8.087  25.761  0.0822  0.0509  0.0969
55812W        W98906  14.782  10.848  26.524 -0.1665 -0.2086  0.0970
55813W        W98907  13.183   7.860  24.339  0.2253  0.1856  0.0481
55814W        W98908  13.139   8.955  26.182  0.3629  0.1413  0.0368
55815W        W98909  11.804  10.296  25.974  0.1454  0.0013  0.2053
55816W        W98910  11.600   8.758  26.218 -0.1575  0.3612 -0.1357
55817W        W98911  13.455  10.007  24.600 -0.2433 -0.1441 -0.0651
55818W        W98912  15.042  10.253  23.947 -0.0403  0.1330 -0.0284
55819W        W98913  13.668  10.364  23.590 -0.1454  0.2105 -0.2094
55820W        W98914  10.752   8.950  25.696  0.2047 -0.0067 -0.3895
55821W        W98915  11.092   8.819  26.627 -0.1012 -0.0358  0.0850
55822W        W98916  10.706   9.793  26.978 -0.1175  0.1652  0.3375
55823W        W98917  12.824   6.838  22.773  0.1645  0.3125  0.1562
55824W        W98918  14.657   9.993  26.814  0.2443 -0.2358  0.1906
55825W        W98919  11.341   9.843  25.897  0.2505  0.1871 -0.0912
55826W        W98920  15.558   8.331  25.879 -0.4446  0.5100 -0.2260
55827W        W98921  13.137   8.159  23.912 -0.1985 -0.1044 -0.0301
55828W        W98922  12.289   8.713  24.648 -0.0195  0.2312 -0.0590
55829W        W98923  13.485   9.019  23.789 -0.0951 -0.4000  0.0235
55830W        W98924  12.459   7.936  25.007 -0.1942  0.1465 -0.0881
55831W        W98925  13.984   7.669  25.975 -0.2462  0.2051  0.2193
55832W        W98926  11.961   8.645  25.028 -0.1596 -0.3123  0.0107
55833W        W98927  12.742   8.778  23.572 -0.1955  0.0977  0.3655
55834W        W98928  14.121   9.922  26.034  0.1314 -0.2362 -0.0646
55835W        W98929  13.002   8.295  21.928  0.1098  0.3010 -0.2932
55836W        W98930  12.594  10.244  26.706  0.0144 -0.3792 -0.0221
55837W        W98931  12.064   8.110  24.761  0.0243  0.1939 -0.1865
55838W        W98932  13.963  10.402  26.332 -0.3926 -0.0159  0.1905
55839W        W98933  11.537   9.881  24.705 -0.1130  0.0397 -0.2070
55840W        W98934  12.291   8.935  25.374  0.3701 -0.3375 -0.3903
55841W        W98935  11.554  10.384  24.558 -0.0286  0.2127 -0.0626
55842W        W98936   9.513   8.253  27.037  0.0699  0.1375  0.1017
55843W        W98937  12.148   9.244  27.441  0.0898 -0.1228  0.0483
55844W        W98938  13.796   8.458  25.019 -0.1068  0.3696  0.1678
55845W        W98939  11.724   8.311  26.265  0.2837  0.2945  0.2737
55846W        W98940  13.028   8.270  24.982  0.0856  0.0795  0.2748
55847W        W98941  11.208   9.362  24.542 -0.0048 -0.1207  0.0745
55848W        W98942  15.444   9.913  24.162 -0.0612 -0.0724 -0.0490
55849W        W98943  13.912   7.992  23.723  0.3561 -0.2042  0.3088
55850W        W98944  14.743   9.778  23.025  0.1368  0.3709  0.2016
55851W        W98945  10.363   9.181  26.499 -0.0071  0.0969  0.2297
55852W        W98946  11.174   9.992  23.695  0.0711  0.1842  0.0310
55853W        W98947  11.814   7.944  26.720  0.2838 -0.0163 -0.0537
55854W        W98948  11.681   7.272  24.153  0.3066  0.0815  0.3572
55855W        W98949  13.323   9.854  25.563 -0.0671  0.0105 -0.1191
55856W        W98950  10.959   6.731  23.828 -0.1186 -0.0148 -0.1236
55857W        W98951  12.989   9.973  24.331 -0.2122 -0.1290 -0.3321
55858W        W98952  11.895   8.277  22.142 -0.0407  0.0325 -0.1379
55859W        W98953  11.071  10.448  24.519  0.2061 -0.0937  0.1963
55860W        W98954  14.590   7.458  27.739  0.0780  0.0554  0.0376
55861W        W98955  12.947   9.477  24.383  0.1135 -0.0923 -0.0519
55862W        W98956  14.837   9.857  27.231  0.1132  0.0911  0.0870
55863W        W98957  15.358  10.800  24.991 -0.0466  0.1883 -0.3227
55864W        W98958  10.599   7.594  26.584 -0.2042 -0.0201 -0.2444
55865W        W98959  11.390   6.828  24.071 -0.1187 -0.0624  0.0182
55866W        W98960  13.064  10.848  26.074 -0.2648  0.0977  0.0243
55867W        W98961  11.977  11.605  25.853 -0.1743 -0.0703  0.2187
55868W        W98962  13.592   8.024  26.262  0.2725  0.0586  0.1615
55869W        W98963  14.892   9.508  24.758 -0.0318  0.2513 -0.0811
55870W        W98964  12.396   8.494  25.207 -0.0840  0.3122 -0.2305
55871W        W98965  12.022   9.092  26.336 -0.0943  0.0183 -0.0124
55872W        W98966  13.943   7.247  27.559  0.2866  0.0633 -0.1050
55873W        W98967  14.240   9.225  26.039 -0.2176 -0.0410  0.0175
55874W        W98968  12.868   8.602  25.338  0.1277 -0.3627  0.0119
55875W        W98969  11.817   7.795  24.495  0.1368  0.0273 -0.0078
55876W        W98970  13.996   9.449  24.804 -0.3965 -0.1671 -0.0783
55877W        W98971  11.020   9.068  24.072  0.0684  0.1403  0.0478
55878W        W98972  11.356   8.899  24.420 -0.3354 -0.0808  0.1226
55879W        W98973  12.457  10.373  25.431 -0.0155 -0.2135 -0.1705
55880W        W98974  15.000   8.862  25.540 -0.1163 -0.1123 -0.1955
55881W        W98975  10.407   9.243  27.541 -0.3071 -0.2873  0.3002
55882W        W98976  12.144   8.249  26.517  0.3294  0.2418  0.0494
55883W        W98977  10.888   8.655  24.315  0.2089  0.0898  0.3119
55884W        W98978  12.528  11.132  27.137  0.3246 -0.1919  0.1418
55885W        W98979  13.772   6.959  24.687  0.0431  0.2235 -0.2830
55886W        W98980  13.398   8.052  23.474  0.0438  0.1079 -0.3488
55887W        W98981  11.804   7.961  28.027  0.2789 -0.2997  0.2499
55888W        W98982  13.365   9.682  24.235 -0.2238  0.1978  0.0481
55889W        W98983  12.230   7.996  24.210  0.1698  0.0428 -0.0672
55890W        W98984  13.273   8.655  23.515  0.0231  0.3810  0.2182
55891W        W98985  11.227  10.144  26.853  0.1945  0.1164 -0.0280
55892W        W98986  12.834   9.776  25.396 -0.1118  0.1896 -0.1089
55893W        W98987  13.128   8.041  26.521  0.2098  0.2385  0.1744
55894W        W98988  13.489   8.108  24.718  0.0813  0.2253  0.2884
55895W        W98989  15.153   9.704  23.783 -0.1966 -0.2102  0.1110
55896W        W98990  11.336   9.269  26.304 -0.5033  0.1215  0.1752
55897W        W98991  12.239  10.060  27.584 -0.1849 -0.1062  0.1393
55898W        W98992  13.490   9.525  24.761 -0.0921 -0.1271  0.0358
55899W        W98993  11.552   6.543  25.463  0.0197  0.0250  0.0786
55900W        W98994  12.021   6.612  23.524 -0.0517  0.0637 -0.0606
55901W        W98995  12.106   7.341  24.456  0.1899  0.3296 -0.1997
55902W        W98996  12.242  11.064  23.071 -0.0918 -0.1305  0.3130
55903W        W98997  12.795   8.070  26.089  0.0285 -0.3143 -0.0610
55904W        W98998  13.427   8.346  25.337  0.3788  0.1611  0.0779
55905W        W98999  13.136   5.556  27.437 -0.3574 -0.3233  0.1362
55906W        W99000  12.972   7.980  27.077  0.5465 -0.3348  0.0423
55907W        W99001  14.441   8.633  23.759 -0.3055  0.0177 -0.2020
55908W        W99002  11.969   7.758  26.193 -0.2433 -0.1186 -0.2749
55909W        W99003  11.272   8.383  24.487 -0.2732  0.2610 -0.1715
55910W        W99004  12.507   8.581  25.740  0.1023  0.0874  0.1655
55911W        W99005   9.966   9.437  26.731  0.1052  0.1162 -0.1544
55912W        W99006  10.883   9.916  26.111  0.0907 -0.0848  0.1698
55913W        W99007  13.823   9.869  27.491 -0.1533 -0.0434  0.0765
55914W        W99008  14.174   8.997  24.677 -0.0628  0.0644  0.0024
55915W        W99009  13.057   7.653  27.440 -0.2090 -0.0041 -0.1605
55916W        W99010  10.344   7.129  25.066  0.2168  0.1275  0.0576
55917W        W99011  12.528  11.025  26.132  0.0323  0.0358 -0.1764
55918W        W99012  12.619   9.802  23.244  0.0540  0.0568 -0.0313
55919W        W99013  11.894   6.356  26.418 -0.0689 -0.1083 -0.1169
55920W        W99014  12.615  10.795  26.772 -0.2387  0.2777 -0.2894
55921W        W99015  13.108   9.110  24.740 -0.0421 -0.1414 -0.0156
55922W        W99016  15.377   9.898  25.981  0.0630 -0.3214 -0.0757
55923W        W99017  11.113  11.173  24.257  0.1758 -0.2278 -0.0491
55924W        W99018  14.107   7.558  25.384 -0.0089 -0.1863 -0.0787
55925W        W99019  11.014   8.925  24.780 -0.0902  0.1541  0.0784
55926W        W99020  12.426   7.396  24.028  0.0608  0.0608  0.0661
55927W        W99021  11.004   9.286  25.466 -0.0704 -0.2860 -0.1009
55928W        W99022  14.028   9.049  25.204  0.1178 -0.3099 -0.0169
55929W        W99023  14.732   9.905  22.499 -0.1261 -0.1479  0.1566
55930W        W99024  10.683   8.886  26.868  0.4034 -0.0754  0.0594
55931W        W99025  11.625   7.028  25.725  0.0781 -0.0002  0.4242
55932W        W99026  10.988  10.781  26.573 -0.0815 -0.3377  0.0877
55933W        W99027  12.733   7.591  26.793  0.2871 -0.0367 -0.0364
55934W        W99028  13.618   8.739  25.476 -0.0596 -0.0178  0.3846
55935W        W99029  12.674  10.099  25.802 -0.0045  0.1159 -0.1716
55936W        W99030  11.882   8.614  26.696  0.0041 -0.1885  0.2634
55937W        W99031  10.399   9.263  25.036  0.0343 -0.0079 -0.2041
55938W        W99032  14.256   9.518  25.606  0.0047  0.2791 -0.0795
55939W        W99033  12.806   9.006  25.837  0.0255 -0.2048 -0.1505
55940W        W99034  11.524  10.075  25.412 -0.0866  0.2053 -0.1260
55941W        W99035  13.496  10.596  26.208  0.1487  0.2751  0.0376
55942W        W99036  11.607   8.018  23.995  0.1416 -0.1691 -0.0223
55943W        W99037  11.725   9.370  24.576 -0.1823 -0.0303  0.0511
55944W        W99038  12.488   8.980  27.658  0.0764 -0.1342 -0.0961
55945W        W99039  12.766   9.438  26.052  0.3813  0.1903 -0.0447
55946W        W99040  10.767   8.447  26.093 -0.0710 -0.1143 -0.1274
55947W        W99041  11.503   8.329  25.307  0.0541  0.0802  0.0848
55948W        W99042  12.195   8.602  26.119  0.2003  0.1379  0.1326
55949W        W99043  13.522   9.431  27.033 -0.1688 -0.3876 -0.3306
55950W        W99044  12.757   9.000  26.774 -0.0423  0.4002 -0.1107
55951W        W99045  12.512  10.646  27.258 -0.3350 -0.3699 -0.0419
55952W        W99046  13.182   7.318  25.344 -0.0990  0.0311  0.3445
55953W        W99047  16.094  10.496  23.172  0.1389  0.3612  0.0223
55954W        W99048  13.164   8.414  27.019  0.0717 -0.0494  0.2859
55955W        W99049  11.873   9.245  22.971  0.0144  0.1848 -0.1346
55956W        W99050  10.043   9.408  26.130 -0.0575  0.1583 -0.2302
55957W        W99051  12.111  11.234  24.811  0.2528  0.1453 -0.1464
55958W        W99052  12.683   8.203  26.574 -0.1206  0.2444 -0.1814
55959W        W99053  13.096  10.608  26.487 -0.1642 -0.0313 -0.0058
55960W        W99054  11.904  10.506  25.356 -0.0167 -0.0029 -0.0365
55961W        W99055  11.752   9.457  26.008  0.3259 -0.4254 -0.0884
55962W        W99056  12.859   8.681  24.703  0.0706  0.1272  0.0375
55963W        W99057  15.028   8.673  24.898  0.0568  0.2295  0.0547
55964W        W99058  12.806   8.563  26.241  0.3341  0.0236  0.0115
55965W        W99059  14.318   8.338  25.925  0.0963  0.2120  0.0016
55966W        W99060  14.176   8.648  23.087 -0.3840 -0.0245 -0.0961
55967W        W99061  14.781   7.088  27.990  0.2817  0.3676  0.0144
55968W        W99062  11.682   7.280  26.147 -0.3438 -0.1449 -0.1903
55969W        W99063  14.686   8.972  24.674  0.1877  0.1619 -0.1748
55970W        W99064  10.707   8.005  26.884 -0.1010  0.1413 -0.3398
55971W        W99065  13.412   9.668  28.505  0.0840 -0.0894 -0.0693
55972W        W99066  11.463   9.336  27.226 -0.2395 -0.0374 -0.1638
55973W        W99067  11.993   7.623  25.043 -0.1302  0.1714  0.1490
55974W        W99068  11.507   8.521  24.006  0.1362 -0.0320 -0.1050
55975W        W99069  12.724  10.198  27.558 -0.0877 -0.1051 -0.2218
55976W        W99070  13.533   9.310  25.373  0.0372 -0.0306 -0.1081
55977W        W99071  12.531   8.568  22.871  0.0489 -0.0152 -0.3902
55978W        W99072  14.062   8.994  26.460  0.2004  0.0032  0.0095
55979W        W99073  10.952   8.506  25.570 -0.5085 -0.0933  0.0852
55980W        W99074  13.243   8.905  25.235  0.1406  0.0409 -0.3599
55981W        W99075  11.997   9.694  24.281  0.1679 -0.2259 -0.1655
55982W        W99076  11.501   9.116  25.794  0.1222 -0.0565 -0.2553
55983W        W99077  12.551   7.596  25.909 -0.0112 -0.0280 -0.0677
55984W        W99078  11.938   9.909  26.246  0.1619  0.4372 -0.1002
55985W        W99079  13.223   7.260  24.112 -0.1051 -0.3094 -0.3168
55986W        W99080  14.338   6.931  28.484 -0.0453 -0.0441  0.1079
55987W        W99081  13.917   7.239  26.853  0.0868  0.1081  0.0905
55988W        W99082  12.284   9.423  26.614  0.1207  0.0304 -0.2497
55989W        W99083  10.901   8.105  27.954  0.0573 -0.3668  0.0402
55990W        W99084  13.197  11.624  26.230  0.0834 -0.0462 -0.0927
55991W        W99085  14.741   7.485  23.137  0.0486  0.1279 -0.0147
55992W        W99086  13.958   9.063  26.938 -0.0654  0.0102  0.2401
55993W        W99087  14.292   8.260  23.367 -0.0725  0.1377  0.2730
55994W        W99088  13.264   9.116  22.641  0.1448 -0.1161  0.0206
55995W        W99089  11.054   7.596  25.549  0.0119 -0.2240  0.0684
55996W        W99090  12.614   6.887  27.380 -0.1128  0.0502  0.2174
55997W        W99091  12.050   8.123  25.275  0.0361 -0.2677  0.2654
55998W        W99092  13.159   8.018  25.616 -0.0328  0.3585 -0.1092
55999W        W99093  12.758   9.575  24.830  0.1073 -0.3570 -0.1257
56000W        W99094  13.064   8.771  23.942 -0.1687  0.1809 -0.0586
56001W        W99095  11.488   8.054  24.861 -0.1460 -0.1015 -0.0290
56002W        W99096  11.045   9.788  25.516  0.0483 -0.1071 -0.0649
56003W        W99097  12.076  10.268  26.488  0.0582  0.1024  0.0929
56004W        W99098  12.421   7.972  23.351  0.0219  0.1382  0.0909
56005W        W99099  12.360   8.698  24.075 -0.0778 -0.2172  0.0449
56006W        W99100  13.631   9.892  27.058 -0.2944  0.3573 -0.0117
56007W        W99101  15.308   9.851  27.463 -0.1596  0.0766  0.1322
56008W        W99102  11.049   8.426  24.984  0.2950  0.2067  0.1530
56009W        W99103  14.472   9.715  26.402 -0.0197 -0.1820  0.0307
56010W        W99104  10.582   9.654  25.417 -0.1225  0.0159  0.3141
56011W        W99105  11.765   8.937  25.357  0.2614 -0.1651 -0.0426
56012W        W99106  12.224  11.558  26.923  0.1499  0.0525 -0.0820
56013W        W99107   9.630   9.606  27.017 -0.1323  0.0691 -0.0279
56014W        W99108  12.332   8.885  27.038 -0.2384  0.2245  0.0660
56015W        W99109  13.988   8.497  26.344 -0.1103 -0.2534  0.0110
56016W        W99110  13.419   9.369  26.080 -0.0332 -0.1163 -0.0872
56017W        W99111  12.541   9.324  27.078 -0.0424 -0.2163  0.3072
56018W        W99112  15.448   8.839  25.712 -0.0522  0.0684 -0.2882
56019W        W99113  13.547   8.292  27.346 -0.0173  0.0336 -0.2282
56020W        W99114  11.606   8.171  27.234  0.0731  0.2870 -0.0573
56021W        W99115  13.238  10.899  26.859  0.1218  0.1925  0.0119
56022W        W99116  14.738   9.306  24.293 -0.0250 -0.1778  0.1103
56023W        W99117  11.782   8.896  27.206  0.0619  0.5133  0.3250
56024W        W99118  10.632   7.747  28.585  0.0296 -0.0895 -0.1331
56025W        W99119  13.929   8.741  28.149 -0.0857 -0.3049  0.1096
56026W        W99120  11.983   9.336  27.001 -0.1366 -0.0611 -0.1346
56027W        W99121  12.857   7.121  24.889  0.0063  0.1518  0.2401
56028W        W99122  12.914   9.429  22.855  0.0107  0.3250 -0.2254
56029W        W99123  11.527  11.413  27.180 -0.1997  0.1868  0.1000
56030W        W99124   8.575   8.945  26.563  0.1856  0.0040 -0.1484
56031W        W99125  12.025  10.470  23.660 -0.2185  0.0620  0.2178
56032W        W99126  14.223  10.075  24.244 -0.0428 -0.1534  0.0226
56033W        W99127  12.571   8.293  24.622 -0.0115 -0.2066  0.0147
56034W        W99128  13.228  10.190  27.356 -0.0728 -0.2389  0.0318
56035W        W99129  12.494   9.163  24.746 -0.3384  0.2074  0.0960
56036W        W99130  11.419  10.496  25.651 -0.1715 -0.0344  0.3889
56037W        W99131  13.054  11.015  24.669  0.0776 -0.2903 -0.1096
56038W        W99132  13.941   9.930  23.644  0.2239 -0.0125 -0.0673
56039W        W99133  11.046   9.609  24.084 -0.1773  0.2335 -0.2378
56040W        W99134  14.119   9.499  26.755  0.2325 -0.2395 -0.1646
56041W        W99135  15.105   7.128  22.860  0.0134 -0.0068  0.0314
56042W        W99136  13.761   9.653  25.782  0.0728 -0.0935  0.2602
56043W        W99137  14.714   8.099  25.965 -0.4821 -0.0440 -0.0964
56044W        W99138  13.612   9.727  27.956 -0.1880  0.0953  0.1291
56045W        W99139  10.890   7.987  26.323 -0.0035 -0.0161  0.0579
56046W        W99140  13.662   8.162  24.234  0.1292  0.0987 -0.0557
56047W        W99141  11.232   8.420  26.310  0.0813 -0.0823 -0.0755
56048W        W99142  14.704   6.480  25.832 -0.0797  0.1361  0.2403
56049W        W99143  11.725  10.898  25.757 -0.0493  0.1106 -0.1645
56050W        W99144  14.766  10.661  24.205  0.0718  0.1262  0.5074
56051W        W99145  10.372   6.805  24.568 -0.3674  0.0150 -0.1346
56052W        W99146  11.236   8.029  25.743  0.0907 -0.2715  0.1202
56053W        W99147  15.419   6.276  26.220  0.0633  0.1807  0.0547
56054W        W99148  13.343   7.661  23.816 -0.2840  0.0373 -0.0865
56055W        W99149  13.368   7.844  25.185 -0.0292  0.0491  0.1181
56056W        W99150  12.771  11.793  25.803 -0.4632  0.2742  0.0615
56057W        W99151  13.439  10.373  26.796 -0.0784  0.0400 -0.3904
56058W        W99152  12.067  11.217  24.314  0.0935 -0.0314  0.1077
56059W        W99153  10.546   8.301  24.185 -0.2806 -0.1174  0.4627
56060W        W99154  13.800   8.200  26.685  0.3352 -0.4624  0.0951
56061W        W99155  12.021   8.384  27.092  0.3093  0.0153  0.2077
56062W        W99156  15.277   6.511  26.672  0.2888 -0.1485  0.0692
56063W        W99157  11.509   9.508  25.490  0.0013  0.0332  0.1276
56064W        W99158  12.692   9.301  23.803  0.0166 -0.2745 -0.0698
56065W        W99159  13.253   8.879  26.660  0.0037  0.1315  0.0968
56066W        W99160  10.363   9.700  26.491 -0.0699 -0.2760  0.0603
56067W        W99161  12.065   8.983  22.590  0.4415  0.1971 -0.1902
56068W        W99162  12.722   9.814  27.221 -0.0899 -0.2190  0.2041
56069W        W99163  13.128   9.106  23.442 -0.2542 -0.1320  0.4812
56070W        W99164  13.810  11.522  25.679  0.0762  0.3644 -0.0485
56071W        W99165  12.031   6.854  26.026  0.1316  0.2093  0.1861
56072W        W99166  13.336   9.018  24.308 -0.3329 -0.3193 -0.1718
56073W        W99167  12.035   9.165  24.965  0.2823  0.1253  0.2002
56074W        W99168  12.300   8.021  25.927 -0.0766 -0.0008  0.5203
56075W        W99169  13.785  11.654  24.873 -0.2687 -0.1017 -0.1776
56076W        W99170  11.177   7.332  23.956  0.1601  0.1559  0.1408
56077W        W99171  13.503  10.138  21.857  0.1501  0.1694  0.0669
56078W        W99172  13.048   9.368  25.508 -0.0101  0.0941 -0.1695
56079W        W99173  12.021   9.584  22.406  0.1640  0.3296  0.0863
56080W        W99174  13.494   9.763  26.544 -0.0870  0.1035 -0.3671
56081W        W99175  13.717  11.159  24.116  0.0631 -0.2517  0.1103
56082W        W99176  10.280   7.626  25.645 -0.1182 -0.0399  0.1743
56083W        W99177  12.245   9.475  26.114  0.2800  0.3425 -0.1869
56084W        W99178  15.631  10.229  24.512 -0.2976  0.1933 -0.0864
56085W        W99179  12.213   7.686  25.469  0.2303 -0.0984  0.1468
56086W        W99180  10.432   8.706  26.487 -0.0099  0.3691 -0.2306
56087W        W99181  11.951  10.791  24.660  0.2378  0.2550  0.1237
56088W        W99182  15.584   8.705  26.754 -0.1785  0.1575  0.0483
56089W        W99183  13.392   9.024  25.764 -0.0515 -0.0016 -0.2237
56090W        W99184  12.631  10.257  23.050  0.0569 -0.2870 -0.2574
56091W        W99185  14.280   7.193  27.162 -0.2682 -0.2968 -0.0583
56092W        W99186  11.530  10.623  26.707 -0.2360 -0.1586  0.2501
56093W        W99187  12.940  10.505  28.997  0.1673 -0.1973  0.1647
56094W        W99188  10.824   8.963  23.476  0.3438  0.0093  0.0916
56095W        W99189  13.012   9.457  26.957 -0.3346 -0.2588  0.1437
56096W        W99190  12.198  10.723  26.408 -0.1605 -0.1626 -0.1443
56097W        W99191  11.627   9.651  23.534  0.0238  0.0289  0.0206
56098W        W99192  13.950   9.883  24.613  0.0294  0.2290 -0.1310
56099W        W99193  13.302   8.488  24.388  0.2578  0.1365  0.1366
56100W        W99194  14.902  11.029  24.687 -0.0389 -0.0434 -0.2314
56101W        W99195  11.429   8.488  25.767 -0.0505  0.1964  0.0174
56102W        W99196  13.766   8.694  24.434  0.3105 -0.1314 -0.0001
56103W        W99197  13.215   6.662  23.040 -0.0084 -0.0897 -0.1287
56104W        W99198  10.806   8.402  26.569 -0.0321  0.0349 -0.2717
56105W        W99199  10.046   6.607  23.740  0.0327  0.1854  0.2656
56106W        W99200  12.245   8.967  23.683  0.1092  0.2863 -0.1300
56107W        W99201  12.371   8.653  26.565 -0.2986 -0.1658  0.0424
56108W        W99202  12.274   7.852  27.962 -0.2272 -0.1366  0.2334
56109W        W99203  10.504   8.428  27.803 -0.0363  0.1046 -0.0279
56110W        W99204  11.510   9.084  26.763  0.0023  0.3623  0.1243
56111W        W99205  10.461   8.552  25.546 -0.0154 -0.2893  0.1583
56112W        W99206  14.891   9.784  24.177  0.2048  0.0175  0.0301
56113W        W99207  12.369   6.957  25.069  0.1717 -0.2513  0.5241
56114W        W99208  10.470   7.973  24.799 -0.2019  0.2205  0.1835
56115W        W99209  11.847   8.862  24.443 -0.0170  0.0965  0.0914
56116W        W99210  14.380  10.501  24.455  0.1533 -0.1348  0.1448
56117W        W99211  11.544   7.396  24.647  0.0402  0.1282 -0.0860
56118W        W99212  14.644  11.083  27.005 -0.1464  0.2356  0.0535
56119W        W99213  11.764   9.624  25.075  0.0056 -0.1894 -0.2336
56120W        W99214  12.046   7.504  26.765  0.0837  0.2688  0.2165
56121W        W99215  13.825   6.729  25.563  0.0333 -0.0212 -0.2139
56122W        W99216  10.295   7.257  23.781 -0.4133 -0.1089  0.0048
56123W        W99217  11.453   7.919  26.188  0.1729 -0.1494 -0.0216
56124W        W99218  10.650   9.443  24.415 -0.0780 -0.2023 -0.3739
56125W        W99219  12.903   9.819  23.813  0.0319 -0.3329  0.2592
56126W        W99220  12.734   9.735  26.590  0.2098 -0.4127 -0.2453
56127W        W99221  12.237  10.241  27.052 -0.1142 -0.1515 -0.2109
56128W        W99222  11.322   7.050  27.887 -0.2208  0.0922  0.1779
56129W        W99223  13.965   9.022  23.999  0.0040  0.2472 -0.1382
56130W        W99224  12.962  10.541  27.051 -0.0364  0.1375  0.2276
56131W        W99225  14.551   9.884  23.797  0.2938  0.1993  0.1886
56132W        W99226  15.410   8.888  25.243 -0.1187 -0.0552  0.0941
56133W        W99227  12.905   7.396  24.477  0.0439  0.0989 -0.2970
56134W        W99228  11.138   7.264  27.283 -0.1087 -0.1016 -0.0374
56135W        W99229  11.557  10.439  27.903  0.2648 -0.1978 -0.2092
56136W        W99230  13.091   9.826  26.067 -0.0646 -0.1987 -0.4191
56137W        W99231  12.481   7.042  24.402  0.0084  0.1438 -0.0110
56138W        W99232  14.057   8.436  24.103 -0.1402  0.0096  0.0921
56139W        W99233  13.639   9.019  24.875  0.2512  0.2984  0.0944
56140W        W99234  10.283   8.871  26.005  0.2646  0.1152  0.0981
56141W        W99235  12.067   9.368  23.860 -0.1340  0.2585  0.0777
56142W        W99236  12.567   8.439  26.998 -0.0393  0.1277 -0.0200
56143W        W99237  13.102  10.335  26.009 -0.2488 -0.0212 -0.3073
56144W        W99238  13.307   8.452  26.325 -0.0562  0.1341  0.2453
56145W        W99239  12.720   8.963  24.274 -0.1540  0.0671  0.2335
56146W        W99240  14.448   9.100  23.862  0.0494 -0.0810 -0.1498
56147W        W99241  14.086  11.612  25.304 -0.0536  0.0498 -0.2027
56148W        W99242  14.200  11.023  27.881 -0.0427  0.1164  0.3508
56149W        W99243  13.085  10.027  26.937 -0.2695 -0.0197  0.3511
56150W        W99244  14.752   9.545  25.319  0.3139  0.2350  0.2200
56151W        W99245  12.214   7.289  26.319 -0.2436  0.1839 -0.1593
56152W        W99246  11.987   8.579  25.620 -0.0672  0.0842  0.1475
56153W        W99247  12.599   8.126  25.562 -0.2953 -0.2122 -0.2745
56154W        W99248  13.663   7.962  25.730 -0.0214  0.0278  0.4856
56155W        W99249  11.908   7.206  25.356  0.0686 -0.0833 -0.1108
56156W        W99250  13.465   7.380  24.520  0.0145  0.1008  0.2115
56157W        W99251  11.697  10.843  26.317  0.2572  0.1183  0.3054
56158W        W99252  13.125   9.365  26.485 -0.2157 -0.0657  0.1135
56159W        W99253  13.491   9.110  30.630 -0.1163 -0.0139  0.2212
56160W        W99254  10.912   8.493  28.822 -0.0920 -0.1609 -0.0207
56161W        W99255  13.932   7.674  27.938 -0.1099 -0.2433  0.4994
56162W        W99256  13.517   8.909  27.201  0.0907 -0.1319  0.2280
56163W        W99257  11.441   9.138  29.174 -0.0510  0.2515 -0.1050
56164W        W99258  13.324  10.950  29.156  0.0385 -0.0160  0.2047
56165W        W99259  12.028   6.279  29.128 -0.0231  0.2184  0.0164
56166W        W99260  15.002   8.180  30.941  0.0867 -0.0265 -0.0555
56167W        W99261  15.115   9.568  30.233 -0.0121  0.1702  0.1556
56168W        W99262  11.769  10.255  26.888  0.0060 -0.0371  0.1005
56169W        W99263  11.490   6.444  28.887 -0.3196 -0.1711 -0.2157
56170W        W99264  12.949  10.518  30.061  0.1558  0.2780  0.2596
56171W        W99265  11.795   7.007  28.405  0.1807  0.1792 -0.0089
56172W        W99266   9.805   6.614  28.065 -0.2930 -0.2239 -0.1711
56173W        W99267  12.888   9.518  29.605  0.1924 -0.2425  0.0167
56174W        W99268  12.547  11.100  27.669  0.0390  0.1727  0.0559
56175W        W99269  11.981   8.276  29.441 -0.3268  0.0899  0.0456
56176W        W99270  10.630   7.576  27.172  0.0350  0.0968 -0.0385
56177W        W99271  13.102  11.902  29.883 -0.2992 -0.0422  0.0729
56178W        W99272  12.103   7.322  29.148 -0.0162  0.0562  0.0454
56179W        W99273  14.463   8.302  30.113 -0.1995 -0.2341 -0.1867
56180W        W99274  14.041  11.467  27.170  0.0476 -0.2640 -0.0975
56181W        W99275  10.442  10.198  26.656  0.1141  0.1966 -0.0758
56182W        W99276  11.581   8.152  28.475  0.1100  0.0330  0.1264
56183W        W99277  10.921   8.647  30.125 -0.2238 -0.4715 -0.2958
56184W        W99278  13.128   9.912  29.436 -0.0638 -0.0622  0.2528
56185W        W99279  13.262   8.530  28.723  0.1972  0.2187 -0.0221
56186W        W99280  12.324  11.150  28.931  0.0024  0.0373  0.0061
56187W        W99281  12.917  10.804  28.062 -0.2951 -0.1296 -0.0831
56188W        W99282  13.546   7.463  29.736 -0.0343 -0.0870 -0.1364
56189W        W99283  11.033   8.013  29.465  0.1763  0.2249  0.2142
56190W        W99284   9.817  11.866  28.240  0.0721  0.2143 -0.0736
56191W        W99285  12.995  10.287  27.996 -0.1146 -0.3458 -0.3233
56192W        W99286  13.939  11.724  28.840  0.1111 -0.2982 -0.1785
56193W        W99287  14.600  10.389  29.330  0.0711 -0.1122 -0.3488
56194W        W99288  13.102  13.222  30.659 -0.2709  0.2070  0.0714
56195W        W99289  11.177  11.636  27.461 -0.2385 -0.1427 -0.1984
56196W        W99290  13.932  10.922  31.366 -0.1037  0.0605  0.0203
56197W        W99291  12.699  11.002  29.956  0.0593  0.1325 -0.0303
56198W        W99292  12.251   8.169  30.328  0.2843  0.0872 -0.0367
56199W        W99293  14.463   9.341  27.709  0.1322  0.2508  0.0402
56200W        W99294  12.150  10.167  28.606 -0.0750 -0.0842 -0.1434
56201W        W99295  12.485  10.560  27.825  0.0682  0.2050  0.0693
56202W        W99296  11.807   9.191  30.346 -0.0870 -0.1174 -0.0305
56203W        W99297  11.219  11.735  28.605 -0.0861  0.0044  0.2145
56204W        W99298  14.734   6.910  30.933 -0.0922  0.0781 -0.0914
56205W        W99299  12.965  11.944  27.642  0.0447  0.0704 -0.4351
56206W        W99300  13.244   7.446  26.539  0.0422  0.1831 -0.3861
56207W        W99301  13.400   7.323  27.686 -0.2307  0.2310  0.1253
56208W        W99302  12.852   7.143  26.853 -0.0774  0.0955 -0.0565
56209W        W99303  12.681   6.797  28.802  0.0084  0.1691 -0.0430
56210W        W99304  12.265  11.730  29.112  0.4009  0.1525  0.0441
56211W        W99305  13.040   7.104  29.211 -0.1101 -0.0475  0.6156
56212W        W99306  14.679   8.851  31.146 -0.2151 -0.1514 -0.1395
56213W        W99307  12.369   8.904  28.573 -0.2075 -0.0556  0.0903
56214W        W99308  12.657   7.888  30.447  0.0704 -0.1716  0.0196
56215W        W99309  12.944  10.075  30.412  0.0072 -0.1433 -0.2978
56216W        W99310  12.239   8.448  28.863  0.2053 -0.0554 -0.1004
56217W        W99311  15.130   9.495  29.678 -0.4349 -0.2365 -0.3539
56218W        W99312  13.970  10.189  29.691 -0.0861  0.2594  0.3225
56219W        W99313  13.114  11.062  28.394 -0.2567 -0.0542  0.0918
56220W        W99314  11.957   9.160  28.380  0.0518 -0.2505  0.1590
56221W        W99315  11.412   8.716  31.036  0.2729  0.1102  0.0333
56222W        W99316  13.504   9.590  31.078  0.0889 -0.1482  0.0090
56223W        W99317  10.789   7.704  25.941 -0.0250  0.0150  0.2985
56224W        W99318  14.666   9.848  30.615 -0.3096  0.0356 -0.1537
56225W        W99319  11.724   9.814  28.946 -0.1038  0.0120 -0.1542
56226W        W99320  13.951   6.756  27.988  0.0399 -0.3401 -0.0151
56227W        W99321  12.509  10.376  29.281 -0.0836 -0.0369  0.0265
56228W        W99322  13.445  10.951  31.013 -0.2393 -0.1239 -0.1342
56229W        W99323  14.741  10.288  27.444  0.2498 -0.1523  0.0187
56230W        W99324  13.338   9.179  28.957 -0.0391 -0.1050  0.0627
56231W        W99325  12.298   6.811  29.123  0.1108  0.2566 -0.0626
56232W        W99326  11.798   9.681  27.491  0.4657 -0.2132 -0.0152
56233W        W99327  13.078   9.187  27.348  0.2705 -0.3428 -0.0301
56234W        W99328  14.998  11.005  29.949  0.0823 -0.0254  0.2258
56235W        W99329  14.114   8.243  28.115 -0.0060 -0.1009  0.2440
56236W        W99330  12.720  12.355  30.446  0.1428  0.1478 -0.0741
56237W        W99331  12.779   7.714  30.865  0.0249  0.0943  0.0512
56238W        W99332  12.360  11.591  29.991 -0.3370  0.0313 -0.0239
56239W        W99333  10.321   9.819  28.418  0.2678  0.0828  0.3233
56240W        W99334  11.429   9.471  29.606 -0.1854  0.0870  0.0624
56241W        W99335  13.185  11.536  27.192 -0.0895 -0.2913  0.0280
56242W        W99336  11.266   8.992  29.691  0.0812  0.1572 -0.2669
56243W        W99337  13.353   9.656  30.347  0.1895  0.0805 -0.3779
56244W        W99338  12.698   7.369  28.789 -0.2076 -0.2153  0.0668
56245W        W99339  12.316   7.331  30.143 -0.0075  0.0809 -0.0363
56246W        W99340  15.348   6.944  28.538  0.0239  0.0571 -0.2800
56247W        W99341  12.515  10.228  28.181 -0.2325  0.0636 -0.0761
56248W        W99342  14.418  11.669  27.491 -0.0533  0.1471  0.2251
56249W        W99343  14.615   7.593  27.071  0.2207 -0.0290  0.0361
56250W        W99344  14.535   8.955  26.771  0.2828 -0.2123  0.1951
56251W        W99345  10.463   8.248  28.776  0.3261 -0.2071 -0.5093
56252W        W99346  12.469   8.368  28.357 -0.1953 -0.2165  0.1843
56253W        W99347  10.808   8.678  31.425  0.0314  0.2206  0.0781
56254W        W99348  12.737   8.535  31.574 -0.0809  0.3040 -0.0736
56255W        W99349  13.793   8.255  30.926  0.0646  0.0761  0.3486
56256W        W99350  11.068   7.104  29.287 -0.0586  0.1539 -0.4643
56257W        W99351  13.495   8.257  28.216 -0.1724  0.1752  0.3031
56258W        W99352  12.354   8.800  28.096 -0.1111 -0.0474 -0.1581
56259W        W99353  12.017   9.175  29.252  0.0268 -0.0490  0.3254
56260W        W99354  13.988   7.565  28.951 -0.2471  0.2376 -0.2722
56261W        W99355  13.926  10.410  29.035 -0.0911 -0.0352 -0.1254
56262W        W99356  13.896  10.370  30.185 -0.0361 -0.2664  0.0919
56263W        W99357  13.702  11.445  29.213 -0.0973  0.3598  0.1324
56264W        W99358  12.369   7.696  29.627 -0.0332 -0.2154  0.1873
56265W        W99359  11.044   7.652  27.727 -0.0637 -0.3965  0.2381
56266W        W99360  12.042   9.459  27.979 -0.0516  0.1098 -0.1396
56267W        W99361  12.993   9.150  29.348 -0.1580  0.3633  0.0954
56268W        W99362  12.494   7.101  25.930 -0.1370 -0.0196 -0.2144
56269W        W99363  13.124  10.852  29.727 -0.2309 -0.0387 -0.1655
56270W        W99364  11.827  10.146  27.377  0.0589 -0.1546 -0.0862
56271W        W99365  12.921   9.511  28.636 -0.0464 -0.1513  0.2625
56272W        W99366  14.047   6.774  29.619  0.0078  0.2588 -0.0493
56273W        W99367  14.533   8.361  31.144 -0.3213  0.0872  0.0798
56274W        W99368  13.096   9.509  28.152 -0.2218 -0.0855 -0.2050
56275W        W99369  10.502   9.363  26.965  0.2120  0.1839  0.2069
56276W        W99370  13.502  11.259  28.713  0.0318  0.1369 -0.1131
56277W        W99371  10.379   9.726  27.407  0.0550  0.3630  0.3822
56278W        W99372  11.224   8.963  27.849  0.1334 -0.0598 -0.0547
56279W        W99373  12.975  10.069  29.897 -0.0436  0.0238 -0.1865
56280W        W99374  12.673   6.981  28.305  0.1487  0.1316  0.1656
56281W        W99375  12.107   8.987  30.900 -0.1409  0.0725  0.0764
56282W        W99376  13.256   8.343  29.545  0.2185  0.0682  0.0638
56283W        W99377  11.498   7.631  27.069  0.1961  0.0936  0.0690
56284W        W99378  11.798  10.179  30.912  0.3316 -0.0556  0.1313
56285W        W99379  12.620   7.564  29.203  0.2220  0.0854 -0.0486
56286W        W99380  13.552   7.790  27.634 -0.1627 -0.4235  0.2258
56287W        W99381  13.691   8.648  30.617  0.0328 -0.2407 -0.0091
56288W        W99382  13.168   8.155  27.656  0.2266 -0.0260  0.1050
56289W        W99383  13.645   8.623  26.785  0.0131  0.3166  0.3817
56290W        W99384  11.989   7.805  27.177  0.0986 -0.2133  0.0815
56291W        W99385  12.459   9.212  30.467 -0.3209  0.0385 -0.2155
56292W        W99386  13.203   9.707  29.002  0.1583  0.1609 -0.4422
56293W        W99387  12.639  10.111  28.825  0.2021  0.2853  0.3004
56294W        W99388  13.089   7.739  28.995  0.1667 -0.1790 -0.0276
56295W        W99389  13.885  10.791  29.850  0.0626  0.1813 -0.1975
56296W        W99390  10.788   9.939  28.619 -0.0465  0.2353 -0.2336
56297W        W99391  14.117   9.039  30.604  0.4732 -0.1019  0.1805
56298W        W99392  13.140  11.307  29.478 -0.2137  0.0009  0.2632
56299W        W99393  11.799   6.819  29.019 -0.0421 -0.2331 -0.0669
56300W        W99394  12.714   7.908  27.671  0.0092 -0.0037  0.2735
56301W        W99395  11.506   9.315  28.121  0.3491  0.3915  0.1104
56302W        W99396  10.431  10.785  28.083 -0.0098  0.0127  0.3006
56303W        W99397  14.981   7.704  29.670  0.0853 -0.2607  0.2117
56304W        W99398  13.102   8.255  29.083 -0.2592  0.1803  0.1318
56305W        W99399  13.634   7.801  31.011 -0.1120  0.0176  0.0176
56306W        W99400  14.930   8.233   0.128 -0.0727 -0.1777 -0.2267
56307W        W99401  12.935   8.260  28.225 -0.0483 -0.0412  0.1642
56308W        W99402  13.589   9.144  28.113  0.0498 -0.2292  0.1083
56309W        W99403  12.165   9.721  27.185  0.0877  0.2592  0.0277
56310W        W99404  13.428   6.184  29.673 -0.0003 -0.0726 -0.0404
56311W        W99405  11.711   8.768  30.580 -0.1300  0.4577  0.1872
56312W        W99406  10.921  11.196  30.321  0.0414 -0.1719  0.1319
56313W        W99407  14.465   9.381  30.625  0.1742 -0.3564  0.1213
56314W        W99408  13.216  10.122  28.695  0.4695 -0.2301 -0.0716
56315W        W99409  14.476   7.368  30.100 -0.3264  0.1094 -0.1941
56316W        W99410  12.129   6.679  27.540 -0.1543 -0.0956 -0.0426
56317W        W99411  12.898  10.441  28.512 -0.0139  0.1200  0.1039
56318W        W99412  12.007   9.840  26.757 -0.1572 -0.0987  0.2053
56319W        W99413  11.450   6.704  29.433  0.0256 -0.0530 -0.2579
56320W        W99414  12.775   9.157  29.938  0.1616  0.0685  0.3343
56321W        W99415  12.650   9.472  27.560  0.1609 -0.2730 -0.1639
56322W        W99416  14.832  10.016  29.650 -0.0985  0.1506  0.2484
56323W        W99417  11.743  10.247  28.364  0.0901 -0.1792  0.1341
56324W        W99418  14.949   6.774  28.850  0.1863 -0.0904  0.0771
56325W        W99419  11.386  10.545  28.549  0.1708 -0.0677  0.2210
56326W        W99420  12.127   6.182  28.256 -0.2699  0.3157  0.0310
56327W        W99421  11.891   8.060  28.927  0.3519 -0.1655 -0.0264
56328W        W99422  13.139   8.782  29.925 -0.0887  0.0023  0.0768
56329W        W99423  14.673   9.390  28.903 -0.0551 -0.0517 -0.2241
56330W        W99424  12.067   7.696  30.344 -0.0443 -0.1621 -0.0975
56331W        W99425  11.048   6.556  29.126 -0.1482 -0.1474 -0.0488
56332W        W99426  10.960   9.568  29.934  0.0058 -0.0439  0.1439
56333W        W99427  13.358   9.657  29.890  0.1051 -0.3269  0.0092
56334W        W99428  13.227   6.458  27.742 -0.2687 -0.3009  0.0115
56335W        W99429  13.457  10.040  30.683 -0.2711 -0.0208 -0.0041
56336W        W99430  12.225   8.704  29.652 -0.0847 -0.1550  0.3050
56337W        W99431  10.811   9.266  27.862 -0.1438  0.0352  0.0081
56338W        W99432  14.699   7.304  30.571  0.1975 -0.0457  0.0208
56339W        W99433  14.455   9.492  28.317  0.3191 -0.1747  0.1413
56340W        W99434  10.671  10.139  28.095  0.0682 -0.0825 -0.1218
56341W        W99435  13.673   9.862  29.458  0.2023 -0.2542 -0.0592
56342W        W99436  11.807   8.351  27.653  0.2453 -0.3574  0.0323
56343W        W99437  12.122  10.551  28.157 -0.2110 -0.1080  0.1199
56344W        W99438  11.677   9.243  30.947 -0.0979  0.2794 -0.1055
56345W        W99439  12.336   9.758  31.773  0.0316 -0.0715 -0.3049
56346W        W99440  12.420   8.173  29.751  0.0237  0.2473 -0.0138
56347W        W99441  11.512   7.512  27.943  0.1084  0.0939 -0.1443
56348W        W99442  13.606   8.667  29.644 -0.1834  0.1213  0.2238
56349W        W99443  13.830   9.784  30.024 -0.1525 -0.1515 -0.5187
56350W        W99444  13.854   9.220  31.026  0.1754  0.0805 -0.0941
56351W        W99445  12.260  11.134  29.716 -0.1031 -0.1439  0.2339
56352W        W99446  12.945   6.358  30.797 -0.0809  0.1519  0.4166
56353W        W99447  14.579  10.822  28.990 -0.2547 -0.0881 -0.0615
56354W        W99448  12.612   9.266  31.057 -0.0286  0.1766  0.0330
56355W        W99449  12.914   9.922  28.375  0.1627 -0.3608  0.0811
56356W        W99450  11.216  10.015  30.890 -0.1052  0.0959 -0.3238
56357W        W99451  11.360   9.752  28.391  0.0312  0.1079  0.0670
56358W        W99452  12.623   8.735  30.127 -0.2638 -0.0172  0.4346
56359W        W99453  10.900  11.130  29.328 -0.1602  0.1371 -0.0890
56360W        W99454  12.162   8.334  27.956  0.0090  0.0281  0.2208
56361W        W99455  10.953   9.873  29.393  0.0784  0.0180  0.1438
56362W        W99456  13.246   7.988  28.598  0.2146 -0.0403 -0.1212
56363W        W99457  12.712  11.483  27.409 -0.3036  0.1160  0.3042
56364W        W99458  12.729   9.616  29.096  0.0243  0.2688  0.0323
56365W        W99459  14.560   6.998  29.777 -0.2374  0.1351  0.2228
56366W        W99460  14.650   9.162  26.359  0.2591  0.0452 -0.0129
56367W        W99461  14.553   7.307  31.105  0.0225 -0.4080  0.0762
56368W        W99462  11.709   6.907  29.923  0.1822 -0.2932 -0.3232
56369W        W99463  13.357  10.364  29.211  0.1498 -0.0242  0.2779
56370W        W99464  11.303   7.757  30.560  0.2567  0.0531  0.1982
56371W        W99465  12.356  10.411  31.188 -0.1268 -0.0317 -0.3462
56372W        W99466  11.748   9.534  31.838  0.2053 -0.0761 -0.4438
56373W        W99467  13.752   7.120  28.942  0.0114  0.4041 -0.0105
56374W        W99468  12.695   6.034  27.978 -0.0892  0.0755 -0.2314
56375W        W99469  12.239  11.018  30.232  0.2792 -0.1416 -0.0172
56376W        W99470  14.186  10.635  30.643 -0.0374  0.1792  0.2291
56377W        W99471  12.674   9.204  28.231  0.0748  0.2013  0.1620
56378W        W99472  13.554   8.588  29.117 -0.0371  0.0545 -0.1698
56379W        W99473  12.487   9.195  29.522 -0.0946  0.0885 -0.1764
56380W        W99474  13.207   9.125  28.456 -0.0684 -0.2298  0.1499
56381W        W99475  12.841   8.742  28.316 -0.0696 -0.2620 -0.1031
56382W        W99476  11.985  10.549  27.684 -0.1318  0.1869 -0.5109
56383W        W99477  12.881   8.829  30.805 -0.1970  0.2009  0.1776
56384W        W99478  12.563  11.355  30.385  0.0597  0.1545  0.0866
56385W        W99479  13.022   6.211  28.728  0.0869  0.3023 -0.2620
56386W        W99480  12.398   8.888  29.184  0.1567  0.0088 -0.1153
56387W        W99481  13.377   9.468  29.394 -0.1364  0.0945 -0.1524
56388W        W99482  12.339   9.589  29.791 -0.0664 -0.3167 -0.1434
56389W        W99483  12.257   7.571  31.873 -0.0601  0.0624  0.2233
56390W        W99484  14.508  10.993  29.746  0.0356  0.0311 -0.0226
56391W        W99485  15.802   7.481  27.886 -0.2155  0.2829  0.1688
56392W        W99486  14.008   7.212  29.895 -0.3679 -0.1371 -0.2407
56393W        W99487  13.874   9.444  29.662  0.0092  0.1617 -0.1153
56394W        W99488  12.647   8.422  27.734 -0.2871  0.1611  0.1871
56395W        W99489  12.631   9.721  27.975  0.1857  0.0099  0.2592
56396W        W99490  14.239   7.727  31.520  0.2127 -0.0980 -0.0523
56397W        W99491  11.396   8.527  26.907  0.1353 -0.1189 -0.1353
56398W        W99492  12.791   8.352  30.550 -0.0537  0.0059  0.2432
56399W        W99493  12.944  10.642  27.566  0.1959  0.2001 -0.0862
56400W        W99494  13.332   8.715  28.245  0.2266 -0.2031 -0.1049
56401W        W99495  12.321   7.987  29.243 -0.0563  0.1342  0.0441
56402W        W99496  10.482   9.639  27.862  0.0179 -0.2081 -0.0659
56403W        W99497  12.619   9.970  29.529  0.1820 -0.0532 -0.0448
56404W        W99498  11.323   9.641  26.637 -0.2497 -0.0361 -0.0512
56405W        W99499  13.019   8.709  29.150 -0.0790  0.3536  0.2315
56406W        W99500  13.829   9.054  29.359 -0.0527  0.1391  0.0091
56407W        W99501  14.757   8.923  29.839  0.0784  0.1399 -0.0851
56408W        W99502  13.092   6.989  27.462  0.0184 -0.0359 -0.0285
56409W        W99503  14.640   7.789  29.272 -0.1273 -0.4439  0.0875
56410W        W99504  10.376  10.191  27.138 -0.0677  0.0357  0.0292
56411W        W99505  12.978   6.425  29.663 -0.0356 -0.4742  0.2303
56412W        W99506  12.152  10.553  30.701 -0.1494  0.0433 -0.0854
56413W        W99507  12.553  10.510  30.371  0.4628 -0.0828  0.0872
56414W        W99508  12.346  10.695  28.785 -0.0732  0.1990  0.0676
56415W        W99509  12.782   7.979  29.444  0.1616 -0.1907 -0.2029
56416W        W99510  13.931   7.703  29.562  0.2085  0.3112  0.0992
56417W        W99511  13.773   9.477  29.048 -0.0564  0.2054  0.3526
56418W        W99512  15.437   9.236  31.485 -0.1013 -0.0638  0.0009
56419W        W99513  12.193   9.909  30.932 -0.3402  0.0978  0.0740
56420W        W99514  11.911   9.157  29.693 -0.1069 -0.0341 -0.1244
56421W        W99515  13.983  10.134  30.706 -0.0724  0.1107  0.0403
56422W        W99516  14.492   8.024  27.323  0.1824 -0.1978  0.0317
56423W        W99517  11.697  10.949  28.155  0.0638  0.0244  0.1147
56424W        W99518  11.807   9.788  30.504 -0.0346 -0.0902  0.0178
56425W        W99519  13.307   8.661  31.569  0.0815 -0.1836  0.1065
56426W        W99520  12.798  11.843  29.062  0.1399  0.1344  0.1453
56427W        W99521  12.738   8.026  28.615 -0.1287 -0.2545 -0.1844
56428W        W99522  13.548  10.291  27.749 -0.0910 -0.1699 -0.5762
56429W        W99523  11.593  11.497  31.311  0.0881 -0.1086 -0.0931
56430W        W99524  10.927  10.608  29.322  0.2706 -0.1932 -0.0396
56431W        W99525  11.844  10.592  28.806 -0.3003 -0.1435  0.1649
56432W        W99526  14.263  10.190  27.461  0.0776  0.4377  0.1951
56433W        W99527  13.227   8.742  27.544  0.0487  0.2444  0.0068
56434W        W99528  14.328  11.991  30.255  0.1706  0.3029 -0.2326
56435W        W99529  12.289   7.332  27.901 -0.4544  0.0913  0.0208
56436W        W99530  11.603  11.416  27.727  0.0490 -0.1802  0.1694
56437W        W99531  12.157  11.071  27.970  0.1972  0.0533 -0.1695
56438W        W99532  13.638  11.188  26.936  0.0390  0.0479 -0.1184
56439W        W99533  12.295   9.354  28.896  0.1013 -0.0838  0.1827
56440W        W99534  14.361   9.454  31.475 -0.0282 -0.0287 -0.1944
56441W        W99535  13.085   7.784  28.025  0.2347 -0.5864 -0.3246
56442W        W99536  12.745   8.517  28.756 -0.1043 -0.5863  0.3770
56443W        W99537  13.530   7.556  28.757 -0.0672 -0.0869 -0.0678
56444W        W99538  13.720  10.048  31.135 -0.1523 -0.2849 -0.1215
56445W        W99539  12.764   8.743  29.627  0.2166 -0.0049  0.1241
56446W        W99540  12.547   7.296  25.474 -0.3889  0.1242  0.4084
56447W        W99541  13.179   8.705  30.414  0.2074 -0.1337  0.1600
56448W        W99542  13.800   8.165  29.417 -0.0046  0.2174  0.0577
56449W        W99543  10.737  10.948  30.760 -0.1583 -0.0269 -0.3216
56450W        W99544  13.890   9.721  28.368  0.0363  0.1102  0.1800
56451W        W99545  11.308   8.277  27.755  0.0086  0.1350 -0.0770
56452W        W99546  11.722   8.757  29.473 -0.2302 -0.1547 -0.0933
56453W        W99547  13.581   6.925  29.860 -0.0241 -0.0386 -0.1963
56454W        W99548  13.240   9.691  27.356  0.1279 -0.0640  0.2044
56455W        W99549  13.574   8.865  30.174  0.3701  0.1562  0.1488
56456W        W99550  12.813  10.890  28.740 -0.0817 -0.1912 -0.1982
56457W        W99551  12.245  10.793  29.378  0.0055  0.1415 -0.1022
56458W        W99552  12.823  11.481  29.822 -0.1366 -0.2094  0.0116
56459W        W99553  11.169   7.666  28.647 -0.1054 -0.3736 -0.0675
56460W        W99554  13.522   7.674  28.301 -0.0938 -0.1952  0.3435
56461W        W99555  11.393   8.221  30.792 -0.0581 -0.1256  0.0082
56462W        W99556  14.447   7.705  29.696  0.1856 -0.2672 -0.2373
56463W        W99557  12.067  10.027  28.046 -0.0329 -0.0501  0.2322
56464W        W99558  14.393   7.305  29.343  0.1565 -0.0630  0.0570
56465W        W99559  13.420   9.149  31.293 -0.2553 -0.0711 -0.1243
56466W        W99560  11.294   8.489  29.810  0.1145 -0.2304  0.3412
56467W        W99561  12.275   8.155  27.468  0.1575  0.0664  0.0790
56468W        W99562  13.639   8.746  31.141  0.4226 -0.2182 -0.3877
56469W        W99563  13.105   7.668  25.983  0.0113 -0.0714  0.1974
56470W        W99564  13.480  11.446  31.035 -0.0587  0.3136 -0.1460
56471W        W99565  11.641   7.645  28.968  0.1589  0.1136  0.1283
56472W        W99566  13.059   7.523  28.439 -0.3193  0.0310 -0.3136
56473W        W99567  11.527   8.030  29.357  0.1558  0.2917 -0.4154
56474W        W99568  11.210   9.491  30.929  0.0088 -0.0079 -0.1090
56475W        W99569  14.370   9.240  31.066 -0.1814  0.0119 -0.1913
56476W        W99570  12.188   6.770  30.112 -0.0595  0.0830  0.2408
56477W        W99571  14.166  10.494  28.594  0.3512 -0.1597  0.0195
56478W        W99572  13.131   9.211  30.282 -0.1824 -0.1435  0.4408
56479W        W99573  13.010  11.044  27.250 -0.0014 -0.0448  0.1570
56480W        W99574  13.256  11.316  27.605 -0.1048 -0.0771 -0.0954
56481W        W99575  13.279  11.855  30.350 -0.1744  0.0755  0.2898
56482W        W99576   9.702   6.430  29.847 -0.0398  0.0759  0.2934
56483W        W99577  14.566  10.288  28.829 -0.2829  0.0997  0.1085
56484W        W99578  14.127   9.977  28.746  0.2877 -0.0330  0.2930
56485W        W99579  11.955   7.597  27.674  0.3329 -0.2231 -0.0033
56486W        W99580  11.925   8.924  28.814  0.0378 -0.0824  0.1164
56487W        W99581  12.357   9.696  28.463 -0.0059 -0.1249 -0.2373
56488W        W99582  14.060   8.589  30.284  0.0776 -0.1797  0.1020
56489W        W99583  13.285   7.851  30.046  0.1294  0.2887  0.1542
56490W        W99584  12.217  11.450  27.411 -0.2161  0.1490 -0.1224
56491W        W99585  13.141   7.371  30.019 -0.0964 -0.0663 -0.4153
56492W        W99586  12.891  10.909  30.442  0.2754 -0.1978 -0.0427
56493W        W99587  11.244  10.994  30.813 -0.0522 -0.0207  0.4020
56494W        W99588   9.914  10.172  28.414 -0.0138  0.2671 -0.0454
56495W        W99589  12.293   9.081  30.026  0.1660 -0.4125  0.0301
56496W        W99590  13.261  11.596  28.396 -0.1294  0.1782  0.1618
56497W        W99591  12.798  11.836  28.105  0.0933 -0.0739 -0.2178
56498W        W99592  14.389  10.235  29.916 -0.3291 -0.1891  0.2311
56499W        W99593  13.302   6.852  28.832  0.0829  0.0258 -0.0113
56500W        W99594  14.609   9.830  28.700  0.1629  0.1595 -0.1073
56501W        W99595  12.141   8.738  30.325  0.1850  0.2805 -0.3123
56502W        W99596  15.240   7.393  28.416 -0.4098 -0.0986 -0.0387
56503W        W99597  14.301   6.333  29.481  0.1179 -0.2510  0.1616
56504W        W99598  10.389   9.552  31.466  0.3158 -0.0514  0.2160
56505W        W99599  10.861   9.416  27.409  0.1958  0.3303 -0.2005
56506W        W99600  11.464   8.689  27.499 -0.2412  0.1358  0.0889
56507W        W99601  12.262   9.819  28.989 -0.0015 -0.0458 -0.1328
56508W        W99602  14.312   7.071  30.747 -0.0056 -0.0564  0.1620
56509W        W99603  10.828   9.086  29.892  0.1109  0.1021 -0.1060
56510W        W99604  11.603   8.490  28.921 -0.1156 -0.0631  0.1330
56511W        W99605  12.150   6.535  28.592 -0.0381  0.1582  0.2648
56512W        W99606  13.508   9.206  27.596 -0.1389 -0.0117  0.1181
56513W        W99607  12.074   8.094  28.415 -0.0056 -0.0534 -0.0467
56514W        W99608  10.937   7.510  29.608 -0.3050 -0.0815  0.1534
56515W        W99609  12.961   9.077  27.834  0.2356 -0.0137 -0.4079
56516W        W99610  13.365  10.625  28.726 -0.3303 -0.1596 -0.4018
56517W        W99611  12.595   8.424  29.237 -0.3444 -0.1114  0.0344
56518W        W99612  15.211   8.783  31.462  0.2109  0.1108 -0.3647
56519W        W99613  10.872  10.286  26.440  0.3348  0.3966 -0.0082
56520W        W99614  12.590   7.233  29.684  0.0853  0.1598  0.1257
56521W        W99615  12.915   6.029  29.992  0.1311 -0.1671 -0.1263
56522W        W99616  10.252   8.009  26.022  0.0063  0.4055 -0.0895
56523W        W99617  13.226   6.719  30.188 -0.0998 -0.1513  0.0447
56524W        W99618  13.610  11.183  28.179  0.0872  0.2551 -0.1739
56525W        W99619  14.733  11.368  26.481  0.2226  0.1937 -0.2409
56526W        W99620  14.005   9.006  29.929 -0.2703 -0.5076 -0.1677
56527W        W99621  12.855   9.665  30.135 -0.2457  0.1209  0.1153
56528W        W99622  12.370   8.533  30.755  0.1847  0.1798  0.1756
56529W        W99623  13.627   8.523  27.821  0.1560  0.1094 -0.0427
56530W        W99624  12.544   9.502   0.635 -0.3036  0.0454  0.0421
56531W        W99625  14.151   9.967  29.236 -0.1579  0.3042 -0.1490
56532W        W99626  15.812   5.628  28.728 -0.0821  0.0285 -0.2827
56533W        W99627  12.785   7.353  27.786  0.2197  0.2208 -0.0052
56534W        W99628  11.909   6.487   0.129  0.0235 -0.0945 -0.4057
56535W        W99629  10.748   9.560  30.881  0.3419 -0.0158 -0.1657
56536W        W99630  13.389  10.851  27.744 -0.0088 -0.0800 -0.1065
56537W        W99631  11.076   6.629  27.898 -0.0454 -0.0397 -0.2105
56538W        W99632  12.581   6.306  28.392  0.1491  0.0966 -0.1606
56539W        W99633  13.693  10.617  29.416 -0.0342 -0.2027 -0.0796
56540W        W99634  11.512   8.878  28.611 -0.2903  0.0814  0.2029
56541W        W99635  12.934   8.230  30.067  0.0858 -0.0441  0.5144
56542W        W99636  12.287   7.589  30.732 -0.3832 -0.0306 -0.1685
56543W        W99637  13.211  11.797  29.410  0.1348 -0.0867  0.1412
56544W        W99638  14.039   8.436  29.816  0.2628 -0.2675  0.1121
56545W        W99639  14.006   8.098  27.094 -0.2359 -0.1978  0.1963
56546W        W99640  15.427   9.258  28.489 -0.2520  0.2793  0.1722
56547W        W99641  12.401  12.524  30.098 -0.0733 -0.1748 -0.0160
56548W        W99642  14.450  11.121  30.662 -0.0708 -0.3361 -0.3030
56549W        W99643  13.471  10.671  30.142 -0.1474 -0.0098  0.2280
56550W        W99644  14.633   8.637  30.651  0.3510 -0.2350  0.0451
56551W        W99645  10.716   8.336  29.242  0.1126 -0.1476  0.1119
56552W        W99646  10.813   8.897  27.518 -0.0596 -0.0762 -0.1535
56553W        W99647  13.954  10.585  28.116 -0.0391 -0.2893 -0.1643
56554W        W99648  14.124   8.635  30.909  0.0184 -0.0640 -0.1771
56555W        W99649  11.645   7.364  30.116  0.2911  0.3604 -0.2259
56556W        W99650  12.470   7.621  27.429  0.2043 -0.1310 -0.0288
56557W        W99651  12.225  12.775  31.047 -0.2095  0.0469 -0.3020
56558W        W99652  12.767  10.848  29.269  0.1263  0.2281  0.1231
56559W        W99653  13.145   7.793  30.484  0.3694  0.0970 -0.4464
56560W        W99654  14.318   8.275  30.570 -0.3229  0.1010  0.1728
56561W        W99655  13.538   8.242  31.336  0.0452 -0.0633  0.2227
56562W        W99656  12.083  10.820  31.691 -0.3275  0.2394  0.1410
56563W        W99657  12.683   9.918  31.283  0.0694 -0.3323  0.7616
56564W        W99658  11.112  11.879  31.216 -0.3363  0.1212  0.0731
56565W        W99659  14.302   8.134  29.453  0.0303  0.2149  0.3223
56566W        W99660  13.067   6.922  29.741 -0.0416 -0.1646 -0.1864
56567W        W99661  15.583   8.033  30.406 -0.0706  0.0047 -0.2984
56568W        W99662  12.939   9.565  31.862  0.0281 -0.1678  0.3086
56569W        W99663  13.671   8.812  31.965  0.0907  0.2212 -0.3470
56570W        W99664  12.181   5.632  31.625  0.2625  0.2139  0.2132
56571W        W99665  13.926   9.557  30.576 -0.2447  0.3216  0.0936
56572W        W99666  12.601   9.721  30.754  0.3017  0.0669  0.0524
56573W        W99667  14.393   8.056   1.351  0.2452 -0.1012 -0.1026
56574W        W99668  12.237  11.100  30.729 -0.1860 -0.2164  0.1853
56575W        W99669  11.151   9.686   1.118 -0.1969 -0.0013 -0.2264
56576W        W99670  14.740  10.502  30.688  0.2383  0.0040  0.2254
56577W        W99671  12.106   7.089  31.301  0.0863  0.0852 -0.0105
56578W        W99672  11.300   9.768  30.480  0.2295 -0.2616  0.2851
56579W        W99673  11.916   6.934  30.479 -0.4610 -0.0646  0.1064
56580W        W99674  10.905  11.823   0.906 -0.2342 -0.0997  0.4102
56581W        W99675  14.126   8.412  31.972 -0.2055  0.0207  0.1080
56582W        W99676  13.796   8.367  28.651  0.1779  0.0179 -0.0634
56583W        W99677  13.062   7.206  31.755  0.0337 -0.1254 -0.1162
56584W        W99678  13.586   7.466  31.333  0.3862  0.0166  0.0175
56585W        W99679  14.023   6.535  30.851 -0.1961  0.1329 -0.1033
56586W        W99680  10.625  11.366  31.042 -0.0993 -0.0942  0.0339
56587W        W99681  11.897   8.431  30.964  0.0667 -0.3164 -0.0051
56588W        W99682  11.642   9.703  31.092  0.0784  0.1857  0.0369
56589W        W99683  12.536  10.079  30.123 -0.0586  0.2601  0.3068
56590W        W99684  12.650   6.998  30.111 -0.4183 -0.3138 -0.0191
56591W        W99685  13.608   7.562  30.316 -0.2848  0.1322 -0.0331
56592W        W99686  12.938   7.121  30.849  0.0116 -0.1230 -0.3272
56593W        W99687  11.101   8.294  31.651  0.4522  0.0748  0.2265
56594W        W99688  13.764   7.872   0.257 -0.0673 -0.2874 -0.2111
56595W        W99689  11.128  11.332  31.172 -0.1636 -0.1495  0.0008
56596W        W99690  13.948   9.660  31.236  0.1456 -0.1239  0.0346
56597W        W99691  12.993   8.041  31.439 -0.1458  0.0845 -0.1641
56598W        W99692  12.608   9.397  31.520 -0.1048 -0.0439  0.2583
56599W        W99693  15.347   7.720  31.201 -0.2830 -0.1564 -0.0505
56600W        W99694  14.477   8.472   0.503  0.0630 -0.1886 -0.1450
56601W        W99695  13.899   7.213  29.412 -0.1981  0.0990 -0.1526
56602W        W99696  12.988  10.320  31.187  0.1001 -0.0231 -0.2532
56603W        W99697  12.964   8.145  31.896 -0.1191  0.1107 -0.1035
56604W        W99698  12.988   8.970  31.317  0.0427 -0.0871 -0.0743
56605W        W99699  13.883   5.893   0.433 -0.2583 -0.1922  0.2149
56606W        W99700  13.089   9.864  30.919  0.0774  0.2019 -0.0318
56607W        W99701  14.267  11.702  31.435 -0.1910  0.0486  0.1915
56608W        W99702  11.423  10.510  30.884 -0.0529 -0.1786 -0.0129
56609W        W99703  13.803  11.397  31.397 -0.1579 -0.0131  0.0770
56610W        W99704  15.091   7.386  31.860 -0.0148  0.3679  0.1840
56611W        W99705  12.851   7.001  31.374  0.0063 -0.0509  0.1957
56612W        W99706  13.366  10.322  29.733 -0.2576 -0.0177  0.0344
56613W        W99707  13.274   7.505   0.286 -0.1166 -0.0207  0.0639
56614W        W99708  13.365   8.284  30.601 -0.2925  0.1855  0.0434
56615W        W99709  14.236   9.889  30.354  0.0491 -0.3320  0.5262
56616W        W99710  12.004  11.433  30.432 -0.0016 -0.1862  0.4599
56617W        W99711  12.880  12.164  31.572  0.2392 -0.1183  0.1516
56618W        W99712  11.785   9.609  29.961 -0.1623 -0.0001  0.0256
56619W        W99713  13.163   8.536  31.135 -0.0015 -0.0443 -0.0218
56620W        W99714  11.438  10.569  30.000 -0.1551 -0.2438  0.5486
56621W        W99715  12.620  10.222  30.814  0.0231  0.2839 -0.0559
56622W        W99716  10.556   8.403  31.816  0.0172  0.3252 -0.1233
56623W        W99717  12.531  11.372  31.387 -0.2601 -0.0936  0.1739
56624W        W99718  13.823   8.598  31.558  0.2894  0.2906 -0.0502
56625W        W99719  14.147   8.258  31.437  0.1059 -0.3241  0.2039
56626W        W99720  10.983  13.717  18.273 -0.1316  0.0703 -0.0891
56627W        W99721  11.535  12.256  17.370 -0.0251 -0.2833  0.1753
56628W        W99722  13.888  12.003  18.020 -0.0119 -0.1942  0.3004
56629W        W99723  14.506  12.164  16.824 -0.3402  0.3217 -0.1492
56630W        W99724  10.753  12.514  16.758 -0.0557 -0.1557  0.0389
56631W        W99725  13.026  13.682  16.613 -0.2805  0.0832  0.0164
56632W        W99726  12.403   9.686  19.532 -0.0142 -0.3506  0.1215
56633W        W99727  12.762  12.162  18.343  0.2804  0.2345 -0.0142
56634W        W99728  12.958  13.942  17.435  0.1031  0.2862  0.1148
56635W        W99729  12.603  13.573  15.470 -0.4045  0.0358  0.0381
56636W        W99730  12.187  11.655  17.730  0.0215  0.0701 -0.2623
56637W        W99731  12.820  12.940  18.268  0.1486  0.0000  0.2280
56638W        W99732  12.938   9.671  16.769 -0.2494 -0.0278 -0.0829
56639W        W99733  10.674  10.768  16.969  0.1058  0.1814  0.0211
56640W        W99734  13.312  11.554  19.083  0.2754  0.2881 -0.2383
56641W        W99735  10.198  13.023  16.276 -0.4040  0.0817  0.2137
56642W        W99736  13.273  10.759  17.729 -0.0002 -0.0313  0.0875
56643W        W99737  12.671  11.481  17.768  0.0265 -0.1696  0.0130
56644W        W99738  12.753  14.948  14.779  0.2840 -0.0638  0.1823
56645W        W99739  12.723  10.719  20.322 -0.1155  0.0179  0.0372
56646W        W99740  13.127  10.292  19.587  0.0211  0.1656 -0.2612
56647W        W99741  12.379  15.250  16.319 -0.1156  0.1626  0.2054
56648W        W99742  10.921  12.692  15.853  0.1781 -0.1505 -0.2430
56649W        W99743  11.206  11.999  17.763  0.1815 -0.1515 -0.0059
56650W        W99744  11.618  11.022  19.815 -0.3857 -0.0021  0.2101
56651W        W99745  13.092  11.549  16.469  0.0058 -0.2097 -0.0126
56652W        W99746  13.477  13.102  15.830 -0.0142  0.0008 -0.0095
56653W        W99747  11.681  14.271  16.910  0.1608  0.4708 -0.0112
56654W        W99748  13.234  14.701  16.322 -0.1034  0.1011 -0.0586
56655W        W99749  14.036  12.240  19.473  0.1170  0.3071 -0.0715
56656W        W99750  12.335  13.511  15.919  0.2147 -0.4084  0.0764
56657W        W99751  10.091  15.192  16.058 -0.1545  0.1832  0.1289
56658W        W99752  12.811  13.008  17.788 -0.0200  0.0976 -0.3259
56659W        W99753  14.294  11.982  17.268 -0.0548 -0.0534 -0.0205
56660W        W99754  14.611  13.282  18.069  0.1907  0.2600  0.1583
56661W        W99755  12.595  12.503  18.022  0.1640  0.0735  0.3583
56662W        W99756  11.909  13.829  16.693 -0.2246 -0.1391  0.0097
56663W        W99757  12.640  14.578  18.609 -0.1301  0.2878 -0.4724
56664W        W99758  10.577  13.754  18.962  0.3014 -0.1594  0.0213
56665W        W99759  11.958  13.329  18.085  0.0192  0.2908 -0.1504
56666W        W99760  13.925  12.405  18.254 -0.0097  0.0102  0.1881
56667W        W99761  12.164  13.889  15.252 -0.1323  0.0577  0.1258
56668W        W99762  12.061  13.261  16.832  0.0388 -0.3327  0.3105
56669W        W99763  11.448  13.635  18.226 -0.3011  0.2325  0.0904
56670W        W99764  11.318  13.557  17.455 -0.1835  0.0260 -0.0720
56671W        W99765  15.560  11.288  18.718 -0.0018 -0.0684  0.0635
56672W        W99766  12.843  14.110  16.826 -0.0536  0.2518  0.1628
56673W        W99767  13.545  12.516  14.820 -0.1294  0.1668  0.2939
56674W        W99768  12.816  11.937  15.472 -0.2466 -0.0841 -0.0044
56675W        W99769  13.161  11.312  16.917 -0.0097 -0.0185 -0.1794
56676W        W99770  11.795  10.547  18.520  0.0729 -0.0810 -0.1548
56677W        W99771  11.058  13.994  16.745  0.0395 -0.0146 -0.0960
56678W        W99772  12.034  11.103  18.479  0.0451  0.0074 -0.2590
56679W        W99773  14.136  12.644  19.754 -0.0469  0.0318 -0.1999
56680W        W99774  12.460  11.714  15.779  0.2636  0.2754  0.2257
56681W        W99775  14.649  11.318  17.609 -0.0709 -0.4237  0.1810
56682W        W99776  10.921  13.818  17.249  0.2230  0.1988  0.5150
56683W        W99777  11.597  13.397  16.645 -0.1656 -0.1286  0.2863
56684W        W99778  13.901  13.334  15.796 -0.0818  0.0781  0.1311
56685W        W99779  13.729  14.641  16.517 -0.2676 -0.1234 -0.0937
56686W        W99780  12.302  14.109  14.790 -0.2679 -0.2468 -0.2722
56687W        W99781  11.028  11.120  17.212 -0.1488  0.3769  0.0194
56688W        W99782  11.137  12.110  19.011  0.0644 -0.3342 -0.3682
56689W        W99783  10.528  11.527  17.957 -0.2418  0.0353  0.0201
56690W        W99784  11.850  10.974  17.286  0.3875 -0.2466 -0.0155
56691W        W99785  14.641  11.480  19.550 -0.0179  0.3015  0.1067
56692W        W99786  10.039  14.527  18.757  0.0103 -0.1896 -0.1929
56693W        W99787  14.745  10.304  16.743  0.2101 -0.2117 -0.3128
56694W        W99788  13.789  13.287  16.742 -0.2394  0.0604 -0.0686
56695W        W99789  14.613  12.898  18.379 -0.0064 -0.0628 -0.0995
56696W        W99790  12.888  12.415  15.426 -0.0382  0.2022  0.0589
56697W        W99791  13.455  10.503  18.117 -0.1018 -0.0124 -0.0341
56698W        W99792  13.383  11.750  18.307  0.3463  0.0047 -0.1509
56699W        W99793  11.374  12.454  15.746 -0.0508 -0.2164 -0.1034
56700W        W99794  12.234  12.805  17.113  0.5888 -0.0813  0.1133
56701W        W99795  14.754  13.295  18.808 -0.4863  0.1284  0.3922
56702W        W99796  13.568  13.388  15.404  0.1270 -0.0323  0.1476
56703W        W99797  11.451  13.818  17.031  0.1796  0.1891 -0.0730
56704W        W99798  12.777  10.450  18.557 -0.1335  0.1056  0.2381
56705W        W99799  12.280  12.823  18.341  0.3743  0.1245  0.2463
56706W        W99800  11.463  13.475  15.743 -0.2446  0.1020  0.0984
56707W        W99801   9.818  12.725  17.204 -0.1064  0.2002  0.4063
56708W        W99802  12.650  12.668  15.985 -0.1244 -0.0519 -0.2847
56709W        W99803  10.129  11.264  17.748  0.0493  0.0131  0.1825
56710W        W99804  12.292  14.172  16.654  0.0783 -0.1509  0.2511
56711W        W99805  12.589  12.702  16.747  0.1602  0.2361  0.0069
56712W        W99806  12.389  10.623  20.751 -0.0548 -0.0125  0.0799
56713W        W99807  13.294   9.541  17.346 -0.1601  0.0413  0.1496
56714W        W99808  10.562  13.568  15.829 -0.2187 -0.1173 -0.0820
56715W        W99809  12.750  14.836  16.075  0.3547  0.1738  0.2357
56716W        W99810  13.450  11.059  18.048  0.2286 -0.0735  0.2066
56717W        W99811  13.160  14.386  15.523  0.2494 -0.1811  0.0313
56718W        W99812  10.609  12.749  16.355 -0.1617  0.1362  0.0161
56719W        W99813  11.297  12.570  16.992  0.0194  0.0018  0.1259
56720W        W99814  10.812  10.857  19.993 -0.0748 -0.1982 -0.0512
56721W        W99815  11.386  11.208  18.919 -0.0608  0.1553  0.1171
56722W        W99816  14.147  11.765  19.385 -0.0375  0.2234 -0.1863
56723W        W99817  11.050  11.427  17.871  0.0546 -0.0671  0.3151
56724W        W99818  12.096  12.121  17.533  0.0251 -0.2434  0.0122
56725W        W99819  11.165  12.183  16.583  0.2471  0.1423 -0.3121
56726W        W99820   9.720  13.732  16.104  0.1545 -0.0702  0.1293
56727W        W99821  14.432   9.722  18.229 -0.1586 -0.1938  0.0204
56728W        W99822  11.955  14.397  15.008 -0.1751  0.1422  0.1113
56729W        W99823  13.239  14.230  19.103 -0.0419 -0.3381  0.1869
56730W        W99824  14.057  14.520  16.108 -0.1149  0.3234 -0.1792
56731W        W99825  11.960  10.716  19.397  0.2133 -0.0217 -0.0402
56732W        W99826  11.047  10.970  16.686 -0.4176  0.0961 -0.0930
56733W        W99827  11.622  15.070  15.710 -0.1243  0.1693 -0.0822
56734W        W99828  12.842  12.492  17.600 -0.4719  0.0016 -0.0609
56735W        W99829  12.028  13.218  16.294 -0.0567  0.0723 -0.2627
56736W        W99830  12.241  12.286  16.890  0.0688 -0.1907 -0.2709
56737W        W99831  11.847  11.558  17.408 -0.0251 -0.2913  0.3326
56738W        W99832  11.953  13.248  17.360 -0.0116  0.1141  0.2749
56739W        W99833  14.315  10.541  19.097 -0.0031  0.1556 -0.0335
56740W        W99834  14.688  11.991  17.578 -0.2086  0.2861 -0.1115
56741W        W99835  11.097  11.314  18.351  0.0898 -0.0486  0.0483
56742W        W99836  11.624  12.077  15.693  0.4338 -0.2558 -0.0479
56743W        W99837  12.163  13.965  17.755  0.0332  0.0364  0.0907
56744W        W99838  11.547  13.739  15.354 -0.0182  0.1004  0.3784
56745W        W99839  11.874  12.758  17.515  0.1263  0.0837 -0.1054
56746W        W99840  12.717  12.907  17.308 -0.2199 -0.3044  0.0908
56747W        W99841  13.781  10.820  17.738  0.2098  0.3596 -0.2103
56748W        W99842  10.411  11.927  18.302  0.3331 -0.2016  0.1357
56749W        W99843  12.383  11.176  18.040  0.0933  0.2561 -0.0115
56750W        W99844  10.328  12.504  15.841 -0.4141  0.3193  0.1341
56751W        W99845  12.601  13.340  18.106  0.1828  0.2393 -0.4979
56752W        W99846  14.339  10.758  16.198 -0.0250  0.0499 -0.0336
56753W        W99847  14.398  11.109  15.822 -0.3845  0.0271  0.0947
56754W        W99848  14.318  12.983  18.847 -0.2312  0.1484  0.1541
56755W        W99849  13.399  12.918  15.198 -0.3350 -0.0610 -0.2462
56756W        W99850  14.002  10.964  15.512 -0.2554  0.0839 -0.0875
56757W        W99851  14.101  10.545  17.552  0.0923  0.0116 -0.0056
56758W        W99852  11.007  13.191  18.225 -0.0592 -0.0190  0.1971
56759W        W99853  12.851  13.581  16.084 -0.0438  0.3432  0.1130
56760W        W99854  13.786  12.941  16.242  0.2530  0.3063  0.0676
56761W        W99855  12.784  10.889  16.883 -0.1224  0.2195  0.0093
56762W        W99856  15.127  14.758  17.764  0.2149  0.0873  0.0601
56763W        W99857  10.206  12.508  16.538 -0.3115  0.0398  0.1844
56764W        W99858  12.712  12.247  18.836 -0.2278 -0.0510  0.1109
56765W        W99859  13.195  13.907  16.233  0.3221 -0.0095  0.3932
56766W        W99860  11.927  11.333  18.914  0.2975 -0.1982 -0.0231
56767W        W99861  11.242  11.511  15.882  0.0097  0.1602 -0.1550
56768W        W99862  13.653  10.282  17.718 -0.2021 -0.2159 -0.0993
56769W        W99863   9.172  13.654  16.209 -0.2295  0.1835 -0.0439
56770W        W99864  13.261  10.435  18.756 -0.0099 -0.2874 -0.1307
56771W        W99865  12.223  10.324  18.607 -0.1324 -0.0634  0.0020
56772W        W99866  12.358   9.501  18.960  0.0848 -0.0922 -0.1409
56773W        W99867  13.720  12.112  18.657  0.1171 -0.0247  0.3221
56774W        W99868  14.147  11.983  15.713  0.2979 -0.0444 -0.3054
56775W        W99869  14.286  12.004  16.346  0.0695 -0.1698  0.1026
56776W        W99870  11.941  12.176  16.494 -0.1351 -0.0529  0.0867
56777W        W99871  11.892  10.390  19.038  0.0872 -0.1385  0.0327
56778W        W99872  12.130  12.799  16.584 -0.0553  0.1456 -0.2508
56779W        W99873  10.570  13.896  18.366  0.1078  0.0967 -0.0514
56780W        W99874  14.101  11.845  18.401 -0.0180 -0.1051 -0.0372
56781W        W99875  13.650  14.240  16.259  0.0109  0.1827  0.0163
56782W        W99876  12.555  10.188  20.527 -0.3164 -0.1351 -0.4315
56783W        W99877  13.069  11.057  16.430  0.0419  0.3062  0.1882
56784W        W99878  11.871  14.631  15.821  0.1969  0.1228  0.1427
56785W        W99879  12.125  12.809  15.950  0.0493  0.2432 -0.1064
56786W        W99880  13.001  11.731  17.940 -0.0329  0.0659 -0.0729
56787W        W99881  11.215  14.457  17.767  0.0458  0.0936 -0.1761
56788W        W99882  10.992  14.412  14.938 -0.2095 -0.2034 -0.3828
56789W        W99883  13.587  12.310  17.779  0.3644 -0.2122  0.2645
56790W        W99884   9.811  13.646  15.617 -0.1189  0.0668  0.0560
56791W        W99885  12.464  11.601  19.245  0.0366 -0.0795  0.0819
56792W        W99886  10.147  13.908  18.033 -0.1351  0.1034 -0.2353
56793W        W99887  11.235  12.613  17.510  0.2041 -0.1216  0.1948
56794W        W99888  11.354  12.002  16.969  0.2850  0.0707 -0.1640
56795W        W99889  12.121  12.462  17.973 -0.1860  0.1193 -0.1750
56796W        W99890  14.280  12.451  15.018 -0.2220  0.1741 -0.1506
56797W        W99891  11.224  11.160  19.493 -0.0319  0.0725  0.1410
56798W        W99892  11.987   9.989  18.237 -0.2269 -0.1108  0.2522
56799W        W99893   9.044  14.673  18.259  0.0936 -0.1610  0.0813
56800W        W99894  13.502  12.550  18.723 -0.0808  0.1942 -0.0979
56801W        W99895  14.316   9.578  17.227  0.3102  0.2858 -0.3515
56802W        W99896  12.381  12.544  17.530 -0.1842 -0.2724  0.0666
56803W        W99897  11.493  12.701  18.603  0.1158  0.0096 -0.0412
56804W        W99898  10.339  11.382  15.673  0.1437 -0.1704  0.0461
56805W        W99899  14.389  10.843  18.386  0.2048  0.1371 -0.0870
56806W        W99900  10.805  11.952  18.673 -0.2301  0.3580 -0.0460
56807W        W99901  10.233  13.936  17.040  0.1178  0.0129  0.1506
56808W        W99902  11.785  13.628  17.730 -0.0291 -0.1429  0.0821
56809W        W99903  12.531  14.010  15.824  0.2066  0.1572  0.1651
56810W        W99904  12.797  14.490  16.464 -0.2123  0.1289  0.1581
56811W        W99905  12.510  11.217  19.612 -0.0704 -0.2624  0.1268
56812W        W99906  14.074  12.337  17.633 -0.2360  0.0233  0.0657
56813W        W99907  13.459  11.088  17.314  0.0574  0.0381  0.1920
56814W        W99908  11.486  11.715  15.467  0.4700 -0.3452  0.0321
56815W        W99909  12.935  11.691  18.554  0.1484 -0.2495  0.0613
56816W        W99910  13.204  11.789  19.488 -0.0623 -0.1023  0.1508
56817W        W99911  12.859  11.880  19.108 -0.0728 -0.1020 -0.1537
56818W        W99912  12.050  11.961  18.062  0.0693 -0.2335 -0.1033
56819W        W99913  13.309  12.003  18.891  0.2458  0.1994 -0.0150
56820W        W99914  12.587  15.265  15.809  0.5305  0.1655  0.1091
56821W        W99915  11.937  12.334  19.430 -0.0312 -0.0907 -0.2040
56822W        W99916  10.863  13.160  16.229 -0.2340 -0.3442  0.0678
56823W        W99917  10.335  13.106  17.238 -0.1966  0.0217  0.0382
56824W        W99918  11.522  14.145  15.882  0.0159 -0.2462  0.1706
56825W        W99919  11.434  12.614  19.101 -0.1359 -0.2057  0.2843
56826W        W99920  11.276  13.510  18.661  0.2671  0.1106 -0.1634
56827W        W99921  10.638  13.083  16.783  0.1062 -0.2135  0.0521
56828W        W99922  10.710  14.297  17.612  0.0761 -0.0119 -0.0500
56829W        W99923  13.450   9.559  16.421 -0.1925  0.2610  0.1383
56830W        W99924  11.796  12.494  16.088 -0.3170 -0.2018  0.2541
56831W        W99925  13.192  11.331  17.665 -0.5261 -0.1456  0.1829
56832W        W99926  13.398  10.618  19.198 -0.0029  0.1381 -0.3602
56833W        W99927  13.413  11.929  16.327  0.1682 -0.1302 -0.1239
56834W        W99928  13.876  10.804  19.213 -0.2583  0.1787  0.1415
56835W        W99929  11.827  10.873  18.904 -0.0242  0.0908 -0.2538
56836W        W99930  14.437  14.053  16.182  0.1969 -0.1940 -0.1166
56837W        W99931  11.634  10.058  18.589 -0.0494  0.1756  0.2618
56838W        W99932  12.869  14.751  17.540  0.0691 -0.2126  0.0314
56839W        W99933  11.398  11.833  18.673  0.1245  0.3093 -0.0138
56840W        W99934  12.533   9.260  18.096 -0.1767 -0.0214  0.2468
56841W        W99935  11.985  11.733  15.613 -0.0688 -0.0522 -0.0576
56842W        W99936  11.720  11.650  16.048 -0.1190  0.0406 -0.0078
56843W        W99937  13.152  13.376  18.102  0.4041  0.0355  0.0384
56844W        W99938  12.516  11.337  16.423  0.2996  0.1429 -0.2818
56845W        W99939  12.886  11.217  17.318  0.3509  0.2007 -0.0320
56846W        W99940  12.874  13.215  16.462  0.1629  0.2383 -0.1347
56847W        W99941  12.524  11.851  16.276 -0.0709  0.0831  0.0034
56848W        W99942  12.603  12.175  15.904 -0.2484 -0.0645  0.1204
56849W        W99943  11.433  13.863  16.474 -0.0957 -0.3783  0.0191
56850W        W99944  11.514   9.989  18.134 -0.1293 -0.1061 -0.2265
56851W        W99945  13.132  13.146  17.356 -0.1853  0.1363 -0.0345
56852W        W99946  12.284  11.266  17.388  0.0392  0.0151 -0.1524
56853W        W99947  13.174  10.618  19.971 -0.0420 -0.2010  0.3432
56854W        W99948  12.599  11.353  16.928 -0.0880 -0.0005  0.1236
56855W        W99949  12.510  10.603  18.915 -0.3463 -0.0472 -0.0568
56856W        W99950  11.833  10.517  19.922 -0.1581  0.1749  0.0612
56857W        W99951  13.994  14.052  15.967  0.3146 -0.0096 -0.0838
56858W        W99952  13.481  11.666  15.087  0.1804  0.0952 -0.0003
56859W        W99953  13.697  11.185  18.897 -0.1559 -0.1476 -0.0809
56860W        W99954  14.586  11.620  17.110  0.2311  0.2081 -0.0654
56861W        W99955  13.064  12.611  14.976 -0.0916 -0.1654 -0.2542
56862W        W99956  10.885  12.308  16.165 -0.2814 -0.1971  0.0539
56863W        W99957  14.145  11.266  20.130 -0.1304 -0.1096 -0.1525
56864W        W99958  12.465  12.293  16.428  0.1691 -0.1998 -0.0540
56865W        W99959  12.836   8.846  19.174 -0.1808 -0.1073  0.1517
56866W        W99960  13.171  12.739  15.621  0.0089  0.1753  0.0732
56867W        W99961  13.491  12.572  16.216 -0.0131  0.0136 -0.0538
56868W        W99962  13.017  10.547  16.496 -0.2197 -0.1971 -0.3128
56869W        W99963  11.482  10.743  16.488  0.0469  0.0110  0.1956
56870W        W99964  10.140  15.644  19.746 -0.2179  0.4916 -0.1073
56871W        W99965  12.151  11.416  16.004  0.0225  0.1354 -0.0531
56872W        W99966  12.055  14.125  15.823  0.0346  0.2781  0.1294
56873W        W99967  12.279  13.422  18.617 -0.0402  0.1396 -0.0048
56874W        W99968  14.241  11.742  17.784 -0.0697  0.3153  0.0512
56875W        W99969  11.833  11.923  16.895  0.1833  0.2082  0.0809
56876W        W99970  14.338  11.111  19.278 -0.0769 -0.0934 -0.1686
56877W        W99971  10.666  13.691  16.868  0.1011  0.4170  0.1105
56878W        W99972  12.284  10.736  18.230 -0.2579  0.2326 -0.1843
56879W        W99973  12.095  13.887  18.704  0.2574 -0.0198  0.1718
56880W        W99974  10.588  12.775  18.267 -0.2490 -0.1732 -0.1414
56881W        W99975  11.118  13.438  17.016 -0.0290  0.1204  0.1685
56882W        W99976  12.016  11.484  18.175 -0.2817  0.0687  0.0141
56883W        W99977  12.662  12.152  17.104  0.2863 -0.0451 -0.0342
56884W        W99978  12.764  11.337  18.866  0.0326  0.1982  0.1346
56885W        W99979  14.647  10.950  18.928 -0.2069 -0.2484 -0.1826
56886W        W99980  12.317  12.059  18.657 -0.1142  0.1130 -0.0823
56887W        W99981  12.894  11.281  18.223 -0.2672 -0.0253 -0.0068
56888W        W99982  13.358  12.130  17.288  0.2849  0.0249 -0.2507
56889W        W99983  13.372  12.310  16.785 -0.0857  0.1151  0.0923
56890W        W99984  10.500  14.372  18.525 -0.1214 -0.0075  0.1678
56891W        W99985  12.278  10.469  20.148  0.1042 -0.0040  0.3547
56892W        W99986  13.161  12.458  19.129  0.0087 -0.0943 -0.0117
56893W        W99987  13.609  12.269  15.793  0.0864  0.1770  0.0796
56894W        W99988  12.374  10.343  16.270 -0.3593  0.1245 -0.3425
56895W        W99989  11.128  14.369  15.670 -0.0848  0.0534  0.1107
56896W        W99990  10.328  14.229  19.013 -0.1651  0.0507  0.0853
56897W        W99991  11.009  13.431  17.807 -0.2155 -0.4129  0.1790
56898W        W99992  10.687  14.522  16.543 -0.0237 -0.0116 -0.0808
56899W        W99993  12.995  12.671  16.481  0.1061  0.1900  0.0082
56900W        W99994  12.460  13.681  16.899  0.0855  0.0160  0.1474
56901W        W99995  12.790  13.480  17.629 -0.0048 -0.1642  0.0262
56902W        W99996  12.502  11.754  18.137  0.2545 -0.0922 -0.1905
56903W        W99997  11.387  13.211  16.173 -0.1692 -0.2346  0.2035
56904W        W99998  10.521  13.042  15.875  0.2371 -0.1062  0.1456
56905W        W99999  12.458  13.528  16.457 -0.0082 -0.3510 -0.0568
56906W        W    0  11.542  15.569  17.007 -0.2013 -0.1279 -0.0461
56907W        W    1  13.388  11.884  20.028 -0.1717 -0.0718  0.3341
56908W        W    2  14.104  10.568  15.851  0.0690 -0.0422  0.1289
56909W        W    3  13.838  11.482  18.197  0.0601 -0.2274 -0.2024
56910W        W    4  13.418  10.904  16.844  0.0475  0.0294  0.3599
56911W        W    5  14.491  12.353  18.965 -0.2436 -0.2552  0.1981
56912W        W    6  12.792  10.791  16.105 -0.1126  0.0307  0.0431
56913W        W    7  12.488  10.789  16.444 -0.0624  0.3849 -0.0203
56914W        W    8  11.167  13.550  19.782  0.4226 -0.1518 -0.0647
56915W        W    9  13.063  10.204  18.156 -0.2973 -0.0184  0.1580
56916W        W   10  11.420  13.873  19.557 -0.0591 -0.0592 -0.2592
56917W        W   11  14.272  14.616  15.392 -0.0206  0.1852  0.1272
56918W        W   12   9.966  12.394  16.116 -0.2322  0.2333  0.0977
56919W        W   13  14.685  12.633  16.692  0.0715  0.1605 -0.0916
56920W        W   14  14.837  11.113  18.368  0.0729  0.0155 -0.0152
56921W        W   15  11.768  14.416  14.502  0.0295  0.2003 -0.1436
56922W        W   16  12.065  11.684  16.420 -0.0432 -0.0841  0.1466
56923W        W   17  11.555  13.909  18.642  0.0989  0.0304 -0.1042
56924W        W   18  12.330  13.000  17.725  0.0750  0.2448 -0.0471
56925W        W   19  12.415  14.369  16.117  0.0799 -0.0042  0.1609
56926W        W   20  11.963  11.114  16.605 -0.0929  0.2472 -0.2356
56927W        W   21  14.652  11.030  17.188 -0.0935  0.2057 -0.1876
56928W        W   22  12.305  10.154  19.125  0.1284  0.1096  0.1538
56929W        W   23  14.186  11.123  17.936 -0.0669 -0.1946 -0.2129
56930W        W   24  12.917  11.766  17.426 -0.0157  0.3052 -0.0869
56931W        W   25  13.691  11.741  15.786 -0.0607  0.1597  0.1236
56932W        W   26  13.763  12.982  18.752  0.0181 -0.2539  0.1479
56933W        W   27  10.472  11.664  18.891  0.0474 -0.1146  0.2380
56934W        W   28  12.430  13.206  15.174 -0.3265 -0.0279  0.1078
56935W        W   29  13.866  11.895  17.475 -0.0690 -0.0725 -0.0980
56936W        W   30  14.187  12.453  15.549 -0.1871  0.3657 -0.2552
56937W        W   31  12.909  13.378  18.562 -0.0623 -0.1369 -0.3283
56938W        W   32  10.803  10.947  18.524  0.1953 -0.2831  0.3248
56939W        W   33  12.826  11.402  16.009 -0.2677 -0.4215  0.0477
56940W        W   34  11.069  13.491  16.528 -0.0438  0.1805  0.0113
56941W        W   35  11.850  12.833  18.083  0.1036  0.2183  0.2176
56942W        W   36  12.817  13.130  19.339  0.0372 -0.0514 -0.3218
56943W        W   37  11.119  10.407  16.294 -0.0515 -0.0266  0.0505
56944W        W   38  12.334  12.191  15.422  0.0250 -0.2451 -0.0959
56945W        W   39  15.130  12.639  16.906 -0.0464 -0.1087  0.1302
56946W        W   40  11.105  13.832  15.649 -0.1892  0.4651 -0.2462
56947W        W   41  14.475  12.866  15.350  0.2056 -0.1345  0.1412
56948W        W   42  13.539  14.633  15.933  0.1780  0.1898 -0.5394
56949W        W   43  11.447  13.207  17.846 -0.4065 -0.0527 -0.1873
56950W        W   44  13.355  12.285  18.321 -0.1886  0.2251 -0.2152
56951W        W   45  15.428  13.776  17.671 -0.2496 -0.2653 -0.0645
56952W        W   46  12.719   9.983  17.787  0.2271 -0.1324 -0.1010
56953W        W   47  11.316  13.059  17.335  0.0783 -0.0324  0.1512
56954W        W   48   9.525  14.488  16.200 -0.0287 -0.0306 -0.2797
56955W        W   49  13.421  11.591  17.273 -0.2206 -0.0509  0.3062
56956W        W   50  14.777  10.236  19.027 -0.0522  0.2214 -0.2382
56957W        W   51  12.404  15.488  14.747  0.0322  0.2304  0.0063
56958W        W   52  13.751   9.742  17.727 -0.0940 -0.1575  0.1971
56959W        W   53  13.029  12.988  16.906  0.0696  0.1495 -0.3202
56960W        W   54  10.570  12.747  18.957 -0.1253  0.1211  0.0952
56961W        W   55  10.795  11.840  16.105 -0.1331 -0.0446 -0.0057
56962W        W   56  11.108  12.931  16.649 -0.2360 -0.1449  0.0677
56963W        W   57  11.626  12.854  16.557  0.1768 -0.0432 -0.0749
56964W        W   58  11.403  14.713  16.009 -0.0875  0.0900  0.0220
56965W        W   59  11.920  13.725  17.247  0.0563 -0.0069 -0.2024
56966W        W   60  13.508  10.417  16.671 -0.0970  0.1503  0.3107
56967W        W   61  14.006  13.940  17.434  0.0098 -0.0502  0.0548
56968W        W   62  12.445  11.761  17.299  0.0048 -0.5673  0.0893
56969W        W   63  14.142  11.307  16.431 -0.0724 -0.2665  0.1250
56970W        W   64  13.399   9.077  17.253 -0.1526  0.2924 -0.3019
56971W        W   65  11.797  13.634  16.108 -0.0533 -0.1382 -0.0756
56972W        W   66  10.411  12.166  16.160 -0.0118  0.1930 -0.2221
56973W        W   67  11.950  13.655  15.657  0.2615 -0.2739  0.1957
56974W        W   68  12.552  13.168  16.818 -0.0913  0.0178  0.1425
56975W        W   69  10.460  11.064  19.496 -0.1779 -0.0661  0.0670
56976W        W   70  10.494  10.198  19.333 -0.2289  0.0456 -0.1670
56977W        W   71  11.747  12.926  17.071 -0.1228 -0.0737 -0.1745
56978W        W   72  11.613  11.551  16.623  0.1534  0.3719 -0.0282
56979W        W   73  12.644  13.138  15.727 -0.1953 -0.0689  0.0075
56980W        W   74  11.551  11.480  17.850 -0.3304 -0.1220 -0.1122
56981W        W   75  10.591  11.407  18.431 -0.0113  0.1538  0.3237
56982W        W   76  11.870  13.185  15.838  0.0522  0.3578 -0.1015
56983W        W   77  13.855  13.656  16.242 -0.0488  0.0153  0.0593
56984W        W   78  12.086  12.061  16.034  0.0053  0.2391  0.0780
56985W        W   79  13.476  12.925  18.371 -0.1171  0.0791  0.1878
56986W        W   80  11.445  12.924  15.803  0.2046  0.1161 -0.1489
56987W        W   81  12.982  10.403  19.155  0.0658  0.0946  0.1985
56988W        W   82  11.579  11.588  19.619 -0.0945 -0.1420 -0.1544
56989W        W   83   9.590  13.107  15.946  0.0242  0.0151 -0.0315
56990W        W   84  12.977  12.550  18.559 -0.2648  0.0152 -0.0683
56991W        W   85  12.191  14.454  15.428  0.3916 -0.0577  0.2600
56992W        W   86  13.779  14.968  14.676 -0.4776  0.2720  0.3540
56993W        W   87  11.738  12.329  18.349  0.1454  0.2145  0.0635
56994W        W   88  12.305  13.039  19.003 -0.0001 -0.0159  0.1667
56995W        W   89  11.779  10.218  19.488  0.1803  0.1798  0.1050
56996W        W   90  12.921  12.199  16.657 -0.0997  0.0968  0.1069
56997W        W   91  12.608  12.000  17.745 -0.2231  0.1953  0.1331
56998W        W   92  14.171  13.256  16.415  0.0433  0.1250 -0.2202
56999W        W   93  15.904  11.102  17.616 -0.3494 -0.0815 -0.0921
57000W        W   94  13.093  11.812  15.970  0.0938  0.2167 -0.2739
57001W        W   95  10.585   9.658  18.410  0.1077 -0.0091 -0.1873
57002W        W   96  11.094  13.822  19.082  0.0255 -0.1568  0.1019
57003W        W   97  13.916  12.704  17.383  0.1732  0.2922 -0.0265
57004W        W   98  11.445  12.138  16.198 -0.0603  0.2447 -0.1536
57005W        W   99  13.780  12.196  16.451 -0.0545  0.1347 -0.2848
57006W        W  100  13.039  12.977  16.068  0.0246 -0.3737  0.0063
57007W        W  101  10.827  12.265  18.196  0.2261 -0.0526 -0.2540
57008W        W  102  13.076  12.407  16.024 -0.0611  0.0605  0.2305
57009W        W  103  12.294  11.064  18.966 -0.2298  0.1705  0.3473
57010W        W  104  12.796  10.944  17.757 -0.0249  0.1090 -0.2833
57011W        W  105  15.267  12.515  18.956 -0.3986 -0.1571  0.0908
57012W        W  106  13.314  12.019  15.521 -0.2077  0.2144 -0.1140
57013W        W  107  14.697  12.206  14.894 -0.0289 -0.1065 -0.0111
57014W        W  108  13.419  13.559  17.374  0.0086  0.1451 -0.0261
57015W        W  109  13.728  12.539  19.153  0.0233  0.1242 -0.0199
57016W        W  110  12.130  14.440  17.968  0.0639 -0.0970  0.0663
57017W        W  111  13.120  12.196  17.890 -0.2568  0.2180  0.1251
57018W        W  112  11.688  11.981  17.739  0.1815 -0.0803  0.0913
57019W        W  113  11.236  12.697  16.243 -0.2070 -0.2121  0.2176
57020W        W  114  13.866  10.840  16.623  0.1558  0.1587  0.1860
57021W        W  115  13.551  10.810  18.597 -0.0473  0.0679  0.1622
57022W        W  116  13.054  10.307  17.631 -0.1580  0.0034  0.1842
57023W        W  117  13.125  10.165  16.937 -0.0897 -0.1706  0.2283
57024W        W  118  13.694  14.469  19.014 -0.2770 -0.3741 -0.1863
57025W        W  119  13.907  14.180  17.892 -0.5830 -0.0966  0.3308
57026W        W  120  11.245  13.663  21.315 -0.0449  0.3825  0.0788
57027W        W  121  11.480  13.095  18.339  0.1373  0.0774 -0.1372
57028W        W  122  12.702  10.271  20.013  0.0342 -0.0970  0.1523
57029W        W  123  14.074  11.267  19.644  0.0487 -0.0196 -0.0963
57030W        W  124  11.197  11.142  20.620  0.1025  0.0643 -0.0047
57031W        W  125  12.923  14.712  21.026 -0.2667  0.2497  0.2034
57032W        W  126  12.629   8.995  22.608 -0.0924 -0.2385 -0.2138
57033W        W  127  12.657  11.786  20.691  0.1960 -0.1108 -0.0270
57034W        W  128  13.682  13.434  20.083 -0.0862  0.0986  0.1700
57035W        W  129  13.390  13.402  18.594 -0.0512 -0.2476  0.0535
57036W        W  130  11.638  11.639  21.119 -0.0898 -0.0890  0.0275
57037W        W  131  12.211  12.950  22.066 -0.0079  0.1152  0.1741
57038W        W  132  12.910  11.372  20.593  0.2091  0.0502  0.0250
57039W        W  133  10.387  11.117  21.700  0.0989  0.2533  0.1689
57040W        W  134  12.982  12.007  22.475 -0.0665 -0.0488 -0.3243
57041W        W  135  10.745  11.227  20.362 -0.1551 -0.0275 -0.1117
57042W        W  136  10.951  11.019  22.727 -0.3242  0.2372  0.1661
57043W        W  137  10.744  12.150  20.078 -0.0112  0.3021  0.0266
57044W        W  138  13.128  15.207  19.580 -0.1641 -0.0564 -0.1347
57045W        W  139  10.837  10.178  23.116  0.0595 -0.0419  0.1189
57046W        W  140  13.906  12.621  23.608  0.2498 -0.1441  0.1567
57047W        W  141  12.751  14.521  19.137 -0.0680 -0.0549 -0.2659
57048W        W  142  10.984  11.675  20.280 -0.0238 -0.3154  0.0645
57049W        W  143  10.755  12.495  21.981 -0.0351 -0.1180 -0.3074
57050W        W  144  11.230   9.552  22.318 -0.2309 -0.0683 -0.3094
57051W        W  145  14.251  11.349  21.346 -0.1252  0.0646  0.1745
57052W        W  146  12.510  11.109  20.711 -0.0654  0.0471 -0.4510
57053W        W  147  12.748  13.201  21.564 -0.1091 -0.3214 -0.2612
57054W        W  148  12.479  12.693  21.479  0.2084 -0.3567  0.2046
57055W        W  149  13.048  12.804  23.340 -0.1647  0.0252  0.0296
57056W        W  150  10.229  12.620  20.123  0.2340 -0.0459  0.1652
57057W        W  151  10.374  13.675  20.297  0.1296  0.0796 -0.3439
57058W        W  152  12.239  13.949  20.823  0.0659  0.1453  0.1682
57059W        W  153  15.291  12.147  19.755  0.1449  0.0367 -0.0895
57060W        W  154  14.679  13.430  21.077 -0.2426  0.2244  0.0464
57061W        W  155  12.327  14.255  21.589 -0.0366 -0.1577 -0.1881
57062W        W  156  12.341  14.282  18.369  0.0302  0.0156 -0.2200
57063W        W  157  13.600  13.483  21.655  0.1740 -0.0444  0.0655
57064W        W  158  10.895  14.247  21.508 -0.0345 -0.1234  0.2393
57065W        W  159  12.554  12.866  22.418 -0.0781 -0.1446 -0.1571
57066W        W  160  13.121  11.800  23.428  0.2106  0.1400  0.3847
57067W        W  161  11.815  13.491  18.567  0.1860  0.2462 -0.0112
57068W        W  162  12.473  12.589  20.451  0.0710  0.1697 -0.0552
57069W        W  163  13.442  13.210  22.445  0.3372  0.0542 -0.1252
57070W        W  164  10.334  12.643  21.172 -0.2043  0.1675  0.0553
57071W        W  165  15.893  11.647  23.703  0.4704 -0.2916  0.3184
57072W        W  166  10.737  13.628  19.433  0.0810  0.2961 -0.1227
57073W        W  167  14.520  11.672  19.125 -0.0596  0.2104 -0.4349
57074W        W  168  12.159  10.965  20.291 -0.1298 -0.1464  0.0004
57075W        W  169  13.736  10.935  20.112  0.0474  0.0561  0.4178
57076W        W  170  12.837  10.385  20.948 -0.0832 -0.0317  0.1451
57077W        W  171  12.083  13.812  21.383 -0.2621 -0.0643 -0.1072
57078W        W  172  11.241  10.924  22.252 -0.0279  0.1849 -0.0067
57079W        W  173  13.604  13.538  21.139 -0.3378  0.0019  0.2480
57080W        W  174  11.382   9.802  20.600  0.1254  0.3817  0.0893
57081W        W  175  12.306  10.236  21.105  0.2427  0.3067  0.0459
57082W        W  176  12.180  14.690  21.747  0.0707 -0.2536  0.0656
57083W        W  177  11.649  12.563  20.505 -0.1163 -0.0396 -0.3671
57084W        W  178  14.219  13.174  19.665 -0.2578  0.2538 -0.0150
57085W        W  179  14.244  13.689  20.341  0.0025 -0.0110  0.1049
57086W        W  180  13.916  13.482  18.851 -0.0782  0.0184  0.0423
57087W        W  181  11.340  12.949  20.189  0.1384 -0.0656 -0.0694
57088W        W  182  10.661  13.067  21.744 -0.5049  0.0242  0.1925
57089W        W  183  12.236  12.739  22.828  0.0829  0.0825  0.0706
57090W        W  184  11.194  11.235  20.013 -0.3952 -0.2673  0.3222
57091W        W  185  14.305  12.207  23.365 -0.0668  0.1475  0.1547
57092W        W  186  10.811  14.835  22.709 -0.0739  0.4960  0.0228
57093W        W  187  12.220  11.173  21.189 -0.3042 -0.0221  0.0465
57094W        W  188  12.107  13.081  21.350  0.0345 -0.1174 -0.1505
57095W        W  189  13.445  12.980  21.978 -0.0805 -0.0941 -0.0356
57096W        W  190  13.234  12.848  19.412  0.3014 -0.3244  0.1205
57097W        W  191  12.247  10.791  21.797  0.0045 -0.3975  0.1283
57098W        W  192  13.929  10.739  23.360  0.0347  0.1454  0.0384
57099W        W  193  11.545  11.897  18.175 -0.0395  0.0321  0.1228
57100W        W  194  11.880  13.221  19.571 -0.0187 -0.1429  0.0508
57101W        W  195  14.431  11.851  21.514 -0.2205 -0.2114 -0.0035
57102W        W  196  15.015  11.219  19.340 -0.0749 -0.1185  0.3078
57103W        W  197  10.727  11.863  21.186  0.1847  0.1484  0.4043
57104W        W  198  12.026  10.534  22.371 -0.1343  0.2084 -0.0585
57105W        W  199  13.032  14.740  23.012 -0.1789 -0.0499  0.0516
57106W        W  200  11.605  14.622  18.014  0.0651 -0.4192  0.0378
57107W        W  201  11.387  12.490  20.955  0.2519 -0.2552  0.1262
57108W        W  202   9.771  13.584  18.808 -0.1812 -0.0094 -0.0445
57109W        W  203  12.276  11.573  22.863 -0.0644 -0.0628  0.0245
57110W        W  204  12.193  13.001  20.740  0.0788  0.3250  0.1629
57111W        W  205  13.366  10.910  20.827 -0.3884 -0.0653 -0.0525
57112W        W  206  11.693  10.058  22.481 -0.2298 -0.2274 -0.3129
57113W        W  207  13.405  11.039  22.003 -0.2186  0.0444 -0.2979
57114W        W  208  12.667  13.064  20.386  0.1267  0.1983  0.1118
57115W        W  209  14.405  14.097  19.725 -0.0602  0.1436 -0.0324
57116W        W  210  13.783  11.451  19.311  0.2484  0.0949 -0.1420
57117W        W  211  13.703  13.057  19.648  0.2735 -0.1184 -0.0282
57118W        W  212  11.993  12.449  21.316 -0.0817  0.3133 -0.0041
57119W        W  213  12.948  11.224  22.325  0.4015 -0.0447  0.3971
57120W        W  214  11.529  10.572  22.447  0.2938  0.5927 -0.0926
57121W        W  215  10.862  10.970  21.018 -0.0855 -0.2933  0.1917
57122W        W  216  13.412  11.496  22.235  0.2338  0.3420  0.0186
57123W        W  217  11.696  11.084  20.332  0.1776  0.0490 -0.0582
57124W        W  218  11.804  11.325  21.543 -0.2713 -0.1161  0.0761
57125W        W  219  12.638  12.493  20.965 -0.0369 -0.0864  0.1111
57126W        W  220  10.342  12.921  19.454 -0.3240  0.2413 -0.0041
57127W        W  221  13.634  10.712  22.851 -0.0805  0.0067 -0.0739
57128W        W  222  13.614  13.907  18.768 -0.3010  0.2212  0.1856
57129W        W  223  15.080  14.826  20.812  0.0707 -0.1341 -0.1145
57130W        W  224  13.497  13.312  19.124 -0.1368 -0.0672  0.0614
57131W        W  225  11.411  11.766  23.532 -0.0329  0.0660  0.0580
57132W        W  226  11.746  12.106  19.868  0.4348  0.0775  0.0102
57133W        W  227  12.780  13.754  19.727 -0.0296 -0.0728  0.1309
57134W        W  228  11.230  12.304  22.782  0.4584 -0.3274  0.1323
57135W        W  229  12.993  12.175  19.802  0.0469 -0.3253  0.0406
57136W        W  230  13.633  14.141  21.226  0.3147  0.1713  0.0914
57137W        W  231  12.679  12.944  18.729 -0.1428  0.4395  0.2607
57138W        W  232  11.601  13.076  21.474  0.1435 -0.1026 -0.3864
57139W        W  233  12.970  11.123  21.783  0.1834  0.0594  0.4266
57140W        W  234  14.974  11.403  22.536 -0.0888  0.1113 -0.1572
57141W        W  235  12.977  12.669  21.358 -0.0371  0.1249 -0.2614
57142W        W  236  11.608  10.052  19.919  0.0834 -0.2988  0.2941
57143W        W  237  14.172  13.736  21.034  0.4745 -0.1315  0.3106
57144W        W  238  11.041  15.208  18.622 -0.1472 -0.1577  0.0781
57145W        W  239  11.563  11.519  20.625  0.1922 -0.2441 -0.3089
57146W        W  240  10.837  13.717  20.140 -0.1322 -0.0609  0.1022
57147W        W  241  14.442  10.400  19.951  0.0120 -0.0832 -0.0895
57148W        W  242  10.982  12.633  23.181 -0.0272  0.2882 -0.0321
57149W        W  243  13.207  11.032  23.029 -0.1399  0.0943  0.0215
57150W        W  244  12.617  12.601  19.207 -0.1567 -0.0157  0.1459
57151W        W  245  11.322  12.758  22.780 -0.0110 -0.0267  0.0424
57152W        W  246  13.692  10.252  21.338  0.0848 -0.1990  0.2719
57153W        W  247  14.116  10.778  19.703 -0.0293 -0.0118 -0.0682
57154W        W  248  12.244  12.185  23.114  0.3238  0.4156 -0.1822
57155W        W  249  14.201  12.276  20.766  0.3256 -0.1218 -0.0648
57156W        W  250  12.601  10.355  18.131 -0.0233  0.3026 -0.0143
57157W        W  251  12.902  11.593  19.823  0.1372 -0.0539  0.4423
57158W        W  252  11.760  12.078  23.351  0.1027  0.0773 -0.2040
57159W        W  253  11.749  13.779  20.467 -0.1569 -0.0648  0.2698
57160W        W  254  13.849  13.144  21.435  0.1258  0.4815  0.1798
57161W        W  255  13.322  11.113  19.310 -0.2859 -0.0693 -0.2072
57162W        W  256  14.915  13.328  19.820  0.0158 -0.0936 -0.1499
57163W        W  257  11.083  12.715  21.419 -0.2362  0.1797 -0.3154
57164W        W  258  13.351  12.457  21.835 -0.3783  0.0609 -0.1479
57165W        W  259  13.176  12.641  20.844 -0.0838  0.2916  0.0781
57166W        W  260  11.779  11.277  22.995  0.1771 -0.0472  0.1790
57167W        W  261  12.214  10.781  17.687 -0.2172  0.1091  0.2526
57168W        W  262  11.131  12.178  20.524 -0.1127  0.2817  0.0965
57169W        W  263  10.069  14.039  18.581 -0.1689 -0.0617  0.1558
57170W        W  264  13.449  11.462  20.684  0.1389  0.2659 -0.0987
57171W        W  265  11.739  10.886  22.047 -0.0379 -0.0149  0.3439
57172W        W  266  12.218  10.026  22.721  0.0265  0.0998  0.2037
57173W        W  267  14.133  11.400  22.424  0.2817 -0.0191 -0.1488
57174W        W  268  13.721  11.872  19.600  0.1263  0.0326 -0.0776
57175W        W  269  12.847  12.244  20.524 -0.1804  0.1270  0.0202
57176W        W  270  11.042  10.845  19.005 -0.1081 -0.5396 -0.2464
57177W        W  271  12.665  11.842  23.066  0.0828 -0.2139 -0.0331
57178W        W  272  11.119  11.365  22.403  0.1549  0.2376  0.0335
57179W        W  273  11.645  13.649  21.652 -0.2039  0.1928 -0.0997
57180W        W  274  12.419  13.337  22.672  0.0827 -0.1076 -0.2334
57181W        W  275  12.795  13.955  19.248 -0.0078  0.0414  0.0700
57182W        W  276  13.101  12.062  22.942 -0.0238 -0.2908  0.3231
57183W        W  277  12.043  11.226  20.720  0.1763 -0.2589 -0.0639
57184W        W  278  11.822  14.275  20.497 -0.0412  0.0709  0.2998
57185W        W  279  12.779  12.993  19.851 -0.2523 -0.0092  0.0345
57186W        W  280  10.744  10.649  23.111  0.0592 -0.1982  0.2212
57187W        W  281  11.685  13.456  21.172 -0.0755 -0.2337 -0.0456
57188W        W  282  12.188  13.735  18.183  0.2577 -0.3640 -0.2827
57189W        W  283  13.837  12.093  23.218  0.1571  0.0317  0.0368
57190W        W  284  12.318  12.102  19.168 -0.1396 -0.0097  0.0124
57191W        W  285  13.879  10.594  20.765 -0.0771  0.2608  0.1938
57192W        W  286  10.650  12.917  20.405 -0.1438 -0.4278  0.1402
57193W        W  287  12.345  12.940  19.468 -0.3223  0.0627  0.1074
57194W        W  288  10.935  12.327  20.987  0.0868  0.2516 -0.0199
57195W        W  289  12.886  10.885  20.912  0.1635 -0.0252 -0.1276
57196W        W  290  14.729  12.418  19.790  0.1677  0.2368  0.2338
57197W        W  291  10.978  11.889  21.662  0.1836  0.4233 -0.0470
57198W        W  292  11.910  10.688  22.830  0.0712 -0.1649  0.0911
57199W        W  293  10.570  14.408  21.885 -0.0124 -0.0784  0.2240
57200W        W  294  12.099  13.406  21.752  0.0482  0.0551 -0.2110
57201W        W  295  13.793  11.389  21.149  0.0840  0.0326  0.2176
57202W        W  296  13.469  11.990  22.075 -0.0844  0.1518 -0.2254
57203W        W  297  10.727  11.445  22.876  0.2960  0.0792  0.1799
57204W        W  298  11.780  11.750  19.149 -0.2464 -0.0139  0.0128
57205W        W  299  14.822  11.735  22.217  0.1473 -0.1134 -0.1085
57206W        W  300  12.423  12.071  20.343 -0.0064  0.0585 -0.1733
57207W        W  301  10.920  12.676  20.004 -0.4629  0.0895 -0.1588
57208W        W  302  13.250  12.295  21.198 -0.0878 -0.4049 -0.0703
57209W        W  303  12.886  11.787  20.291  0.1498 -0.3108  0.2543
57210W        W  304  13.180  13.195  20.196  0.0533  0.1130  0.0479
57211W        W  305  10.686  13.124  23.383 -0.1476  0.0273 -0.0603
57212W        W  306  13.838  11.527  22.020 -0.3667  0.2669  0.2284
57213W        W  307  13.230  11.414  20.210 -0.0457 -0.0052  0.2122
57214W        W  308  12.369  12.108  21.225 -0.0996  0.0666  0.0446
57215W        W  309  13.197  11.930  20.769  0.0921  0.3493  0.3117
57216W        W  310  13.933  11.167  20.575 -0.0115  0.2084 -0.0809
57217W        W  311  12.029  11.673  23.285 -0.3741 -0.0329 -0.2355
57218W        W  312  11.733  13.000  22.096  0.1917 -0.3208 -0.2397
57219W        W  313  12.747  11.236  23.846 -0.0652  0.2209 -0.0379
57220W        W  314  14.969  14.391  19.115 -0.3338 -0.0987 -0.1148
57221W        W  315  12.478  10.762  21.278  0.1022 -0.0205 -0.1207
57222W        W  316  12.642  11.940  19.558 -0.3203  0.3219  0.2778
57223W        W  317  10.653  13.082  21.262 -0.1056  0.0111  0.0001
57224W        W  318  11.462  13.378  19.426  0.1165 -0.4343  0.2883
57225W        W  319  12.890  11.565  21.521 -0.0260  0.0336 -0.2522
57226W        W  320  12.008  12.053  22.410  0.0675  0.4307 -0.2140
57227W        W  321  12.319  13.423  19.426 -0.0070 -0.0335  0.0124
57228W        W  322  10.019  13.344  20.534  0.0576  0.0750  0.0083
57229W        W  323  13.688   9.081  20.266  0.0276  0.1157  0.1364
57230W        W  324  11.910  13.365  19.080 -0.3062  0.1695  0.3270
57231W        W  325  12.883   9.353  20.342 -0.1498  0.0629 -0.1738
57232W        W  326  13.397  11.717  21.225  0.3034  0.3177  0.0912
57233W        W  327  13.567  10.850  19.628  0.0564  0.0149  0.0662
57234W        W  328  13.767  10.633  23.996  0.4613 -0.2143  0.4150
57235W        W  329  11.428   8.882  22.774  0.0010  0.1054  0.1490
57236W        W  330  14.555  12.749  20.357  0.2447 -0.0378 -0.2040
57237W        W  331  11.799  12.463  22.756  0.2637  0.1387  0.1927
57238W        W  332  13.341  14.410  22.759  0.0806 -0.2839 -0.1336
57239W        W  333  10.618  13.777  22.078  0.3623 -0.0345 -0.0903
57240W        W  334  12.798  11.949  21.179  0.0509 -0.2027 -0.1088
57241W        W  335  10.579   9.408  20.149 -0.0287  0.0573  0.3203
57242W        W  336  12.139  11.546  22.335 -0.0540 -0.0144  0.1265
57243W        W  337  14.551  13.340  20.138 -0.1101 -0.3695 -0.3605
57244W        W  338  11.905  11.817  18.574 -0.2891  0.2431  0.1667
57245W        W  339  13.774  12.247  19.949  0.0035 -0.0631  0.1639
57246W        W  340  11.765  12.904  21.028  0.1660  0.0313  0.0921
57247W        W  341  14.107  11.745  19.937  0.0511 -0.2737  0.0583
57248W        W  342  11.450  12.524  19.594 -0.0747 -0.0063 -0.2328
57249W        W  343  12.550  13.498  20.145 -0.2360  0.1604 -0.1980
57250W        W  344  11.332  10.313  23.059 -0.1707  0.1261  0.1732
57251W        W  345  12.256  12.153  19.856  0.1734  0.2903 -0.0968
57252W        W  346  12.466  11.590  21.075  0.0830 -0.0636  0.2408
57253W        W  347  12.084   9.269  21.369  0.1527  0.1369 -0.1425
57254W        W  348  13.817  11.020  22.377  0.1669 -0.2504  0.1615
57255W        W  349  12.199  12.229  21.718 -0.3731 -0.2654  0.2035
57256W        W  350  10.187  11.572  23.037  0.2812  0.1246  0.1756
57257W        W  351  14.980  14.096  21.424  0.0825 -0.0112  0.1843
57258W        W  352  13.706  10.280  19.409 -0.1949  0.0973  0.0057
57259W        W  353  13.013  11.521  21.032 -0.2439 -0.2788  0.1559
57260W        W  354  14.620  11.272  20.974  0.1191  0.2993 -0.0338
57261W        W  355  12.917  11.356  19.319 -0.1809  0.0543 -0.0595
57262W        W  356  10.169  12.110  22.053 -0.3550  0.0471  0.2186
57263W        W  357  13.441  11.994  24.052  0.0808  0.0326  0.0195
57264W        W  358  12.009  12.347  20.228  0.1554  0.0961  0.0102
57265W        W  359  12.661  11.617  22.485 -0.1535 -0.1118  0.0167
57266W        W  360  13.090  14.699  19.481 -0.0788  0.1652 -0.1098
57267W        W  361  12.725  12.071  21.666  0.2216 -0.2133  0.4581
57268W        W  362  12.094  11.755  19.528  0.1473  0.0856  0.1285
57269W        W  363  10.404  10.439  21.669  0.0468  0.2132  0.0310
57270W        W  364  10.822  14.446  20.661 -0.0142  0.0507 -0.0085
57271W        W  365  11.995  11.373  19.956  0.0830  0.0109  0.0870
57272W        W  366  11.900  12.956  18.650  0.0355  0.1069  0.0447
57273W        W  367  12.546  12.556  21.966 -0.1595 -0.1293  0.1103
57274W        W  368  13.914  11.638  23.435  0.0591 -0.3519 -0.2318
57275W        W  369  11.999   9.602  20.938 -0.2991  0.0610 -0.0999
57276W        W  370  14.582  10.662  22.734  0.2353  0.1207 -0.0930
57277W        W  371  11.658  14.001  20.960  0.0277  0.1057 -0.0083
57278W        W  372  14.585   9.935  20.944 -0.1078 -0.2920  0.0702
57279W        W  373  10.195  15.422  21.092 -0.0417 -0.2293 -0.1277
57280W        W  374  11.068  13.218  21.486 -0.2511  0.0263  0.1312
57281W        W  375  10.685  13.960  20.592 -0.0569  0.1024  0.0477
57282W        W  376  11.570   9.679  22.742  0.2881 -0.1650  0.0525
57283W        W  377  12.133  11.096  22.590 -0.2107 -0.0042 -0.2427
57284W        W  378  13.305  11.112  21.362 -0.2239  0.2243  0.1284
57285W        W  379  15.515  11.867  22.014 -0.1098 -0.2371 -0.1129
57286W        W  380  13.264  12.833  22.824  0.0164 -0.1643 -0.0386
57287W        W  381  12.011  11.771  21.408  0.0517 -0.1961 -0.3392
57288W        W  382  14.336  12.870  21.538  0.2607  0.0855 -0.1023
57289W        W  383  13.574  11.372  19.801 -0.0062 -0.1867  0.1880
57290W        W  384  12.104  12.904  20.286  0.1924  0.1230  0.1822
57291W        W  385  10.427  10.886  23.459 -0.3825  0.1126 -0.0008
57292W        W  386  11.268  12.473  23.732  0.0735 -0.3969 -0.0626
57293W        W  387  13.252  10.951  20.346 -0.0004 -0.0819 -0.0442
57294W        W  388  11.898   9.902  21.774  0.1745  0.0811 -0.0782
57295W        W  389  11.177  14.850  18.310 -0.0414  0.0870 -0.0885
57296W        W  390   9.942  15.184  21.486  0.2305 -0.0419 -0.1205
57297W        W  391  11.234  12.566  22.241 -0.3853  0.0199 -0.1604
57298W        W  392  11.354  13.488  20.243 -0.1633  0.0775 -0.1988
57299W        W  393  12.678  12.522  19.674  0.1831 -0.0689  0.0123
57300W        W  394  13.042  12.635  20.297 -0.0505 -0.1791  0.2110
57301W        W  395  13.782  12.799  22.352  0.4329 -0.2298 -0.2666
57302W        W  396  12.655  11.168  20.162  0.0533 -0.3222  0.0518
57303W        W  397  12.050  13.520  19.965  0.1878  0.5104 -0.2239
57304W        W  398   9.287  14.156  19.081 -0.0346  0.1336 -0.0351
57305W        W  399  14.378  13.262  20.633 -0.2847 -0.1001  0.2203
57306W        W  400  10.455  13.148  20.005  0.2028  0.0585 -0.0503
57307W        W  401  14.357  13.422  23.346 -0.0579 -0.2627 -0.1548
57308W        W  402  15.045   9.352  19.521  0.2503  0.0672 -0.0934
57309W        W  403  13.781  11.513  20.225  0.3483 -0.2165 -0.0577
57310W        W  404  13.999  10.098  20.840 -0.1398 -0.2547  0.2553
57311W        W  405  13.796  14.048  22.858 -0.1953  0.0644  0.2298
57312W        W  406  12.413  12.195  22.608  0.1077 -0.0842  0.1779
57313W        W  407  11.720  12.006  20.573 -0.3301 -0.2134  0.2890
57314W        W  408  11.489  12.115  22.436  0.1719  0.0022  0.0958
57315W        W  409  14.787  13.161  23.998 -0.2009  0.0474 -0.1600
57316W        W  410  10.306  13.554  21.323 -0.3037 -0.1346  0.1886
57317W        W  411  14.397  13.450  18.472 -0.2125 -0.4504  0.1833
57318W        W  412  10.993  12.256  19.559 -0.3300  0.1775 -0.2264
57319W        W  413  12.323  13.120  19.934  0.5106  0.1658 -0.0030
57320W        W  414  15.159  11.289  23.277  0.0042  0.2399 -0.0173
57321W        W  415  13.443  12.349  19.572  0.0465  0.1648  0.0624
57322W        W  416  13.182  10.578  21.863  0.3548  0.1837  0.2740
57323W        W  417  11.331  14.371  20.636 -0.0436 -0.0414 -0.0575
57324W        W  418  12.759  14.479  21.487 -0.1182  0.0959  0.2206
57325W        W  419  11.588  14.074  22.060  0.1562 -0.0390 -0.2076
57326W        W  420  12.163  11.900  20.761 -0.2485  0.2701 -0.1966
57327W        W  421  14.432  11.378  20.516 -0.1476 -0.1171  0.1995
57328W        W  422  11.425  11.300  23.361  0.2906  0.0925  0.1651
57329W        W  423  14.291  10.842  22.328  0.0649 -0.0664 -0.0948
57330W        W  424  12.052  12.444  20.741 -0.1411 -0.1071  0.0930
57331W        W  425  13.770  11.658  21.540 -0.0263  0.0049 -0.2478
57332W        W  426  11.879  12.957  22.557 -0.0715 -0.1476  0.0255
57333W        W  427  11.083  11.359  21.788  0.2531 -0.1406  0.2119
57334W        W  428  13.664  11.654  18.780 -0.0805 -0.0187 -0.0610
57335W        W  429  13.957  12.574  23.133  0.2599  0.0700 -0.1012
57336W        W  430  12.226  12.543  18.813  0.1984  0.0218  0.0665
57337W        W  431  13.687  13.653  22.343  0.0151 -0.0312 -0.0644
57338W        W  432  12.111  11.265  21.959 -0.0053  0.1140 -0.2421
57339W        W  433  12.670   9.783  20.156  0.0835 -0.0438 -0.0155
57340W        W  434   9.554  13.322  19.161 -0.1647 -0.1503 -0.3589
57341W        W  435  10.529  12.057  21.740 -0.2412  0.2329  0.1331
57342W        W  436  13.879  12.329  22.302 -0.0031  0.3081 -0.0446
57343W        W  437  11.517  10.402  21.341  0.2198 -0.2363 -0.1519
57344W        W  438  15.107  12.685  20.018  0.2845  0.1067  0.2912
57345W        W  439  13.675  11.209  23.203 -0.0044  0.1638 -0.3781
57346W        W  440  11.784  14.042  18.089  0.0279 -0.0786 -0.3737
57347W        W  441  13.096  13.125  20.691  0.0912  0.2003 -0.1471
57348W        W  442  13.708  12.545  20.814 -0.2348  0.0665 -0.1447
57349W        W  443  11.628  11.639  22.384  0.2022 -0.1460 -0.1902
57350W        W  444  13.987  13.028  21.916  0.0414  0.2459 -0.2547
57351W        W  445  14.497  12.117  19.469  0.0112 -0.1260 -0.3146
57352W        W  446  11.789  10.034  21.249 -0.2365 -0.2226  0.3500
57353W        W  447  11.729  12.102  21.035  0.1689  0.2373  0.1621
57354W        W  448  10.798  15.023  20.930 -0.2162 -0.0875  0.1508
57355W        W  449  12.961  11.767  22.016 -0.0730  0.1036  0.1569
57356W        W  450  12.960  10.530  22.697  0.1740  0.1731 -0.0682
57357W        W  451  11.559  14.306  19.524 -0.2718 -0.2918  0.0863
57358W        W  452  13.809  10.394  24.435 -0.2586  0.1447 -0.0120
57359W        W  453  12.405  11.962  22.166 -0.0652  0.4968 -0.1397
57360W        W  454  11.541  14.853  22.144 -0.0817 -0.2419 -0.3727
57361W        W  455  10.750  12.346  19.167 -0.0208  0.1350 -0.2273
57362W        W  456  11.135  12.895  21.871 -0.0863 -0.0153  0.0858
57363W        W  457  13.119  13.806  22.146 -0.2333  0.3672 -0.0645
57364W        W  458  12.319  13.892  19.740  0.2415  0.1256 -0.0489
57365W        W  459  13.988  12.550  20.351  0.0222  0.0003  0.1042
57366W        W  460  12.420  11.682  21.753 -0.1225  0.2491  0.1415
57367W        W  461  14.656  13.834  20.031  0.2245 -0.0041  0.0209
57368W        W  462  13.981  10.344  21.722  0.3512  0.0177  0.2978
57369W        W  463  13.102   9.977  21.055  0.2085 -0.2148 -0.1087
57370W        W  464  14.056   8.928  18.798 -0.1520  0.0577 -0.3405
57371W        W  465  11.078  14.068  20.924 -0.0184  0.1238  0.0328
57372W        W  466   9.527  12.701  19.029 -0.2132 -0.2157  0.1790
57373W        W  467  11.896  12.821  19.169 -0.2949 -0.2750  0.1049
57374W        W  468  11.895  11.714  21.916  0.0765  0.2853 -0.1115
57375W        W  469  12.858  11.452  24.744  0.0909 -0.1174  0.2386
57376W        W  470  11.393  11.909  23.056  0.1946 -0.0125  0.0133
57377W        W  471  12.101  13.370  20.452  0.0076  0.4774 -0.1670
57378W        W  472  11.092  10.576  21.219 -0.1766  0.0668 -0.2821
57379W        W  473  14.006  13.055  19.249  0.1877  0.2381  0.4470
57380W        W  474  11.385  11.618  21.505  0.0071 -0.2122  0.0895
57381W        W  475  10.888  10.740  20.507  0.0383  0.1171  0.3329
57382W        W  476  13.014  13.509  20.979  0.2886 -0.1408 -0.1075
57383W        W  477  13.582  13.718  19.366  0.2042 -0.2865  0.1957
57384W        W  478  11.852  10.821  21.538  0.1106 -0.1852  0.0395
57385W        W  479  12.934  13.526  20.430  0.2361  0.0464 -0.1219
57386W        W  480   9.993  13.078  19.074 -0.1312  0.1672  0.0664
57387W        W  481  12.392  10.693  22.761 -0.1211 -0.0239  0.0037
57388W        W  482  12.265   9.491  23.377 -0.2269  0.2613  0.4156
57389W        W  483  10.676  11.932  20.650  0.2785 -0.2682  0.2384
57390W        W  484  12.701  11.081  22.755  0.1311  0.2057 -0.0467
57391W        W  485  13.669  12.988  20.527 -0.0861 -0.1063  0.3995
57392W        W  486  12.668  13.802  18.389 -0.2415 -0.0187  0.0607
57393W        W  487  11.649  12.399  22.018  0.0819  0.1699 -0.1790
57394W        W  488  13.849  13.874  21.955 -0.0346 -0.1480 -0.1548
57395W        W  489  11.341  10.820  22.925  0.1251  0.2499 -0.1221
57396W        W  490  13.542  12.684  20.052 -0.2478  0.0196 -0.0667
57397W        W  491  13.127  12.781  22.258  0.0297  0.1791  0.1689
57398W        W  492  15.398  14.044  20.211 -0.1378 -0.0898 -0.1671
57399W        W  493  13.641  12.029  20.892 -0.0031  0.1660  0.0691
57400W        W  494  11.980  11.250  19.383 -0.1376  0.2209 -0.2376
57401W        W  495  12.488  10.994  23.487  0.1531  0.1823  0.1475
57402W        W  496  13.617  12.279  22.791  0.0012  0.0859  0.1500
57403W        W  497  14.573  12.358  22.505  0.0205  0.1870 -0.0024
57404W        W  498  11.368   8.948  20.292  0.1727  0.4850  0.2935
57405W        W  499  13.591  10.058  18.689 -0.2845 -0.3365 -0.0562
57406W        W  500  14.431  12.718  19.305 -0.0315 -0.2828 -0.1635
57407W        W  501  11.727  12.135  21.616  0.1534  0.0301  0.2843
57408W        W  502  12.444  11.641  19.976 -0.0826  0.1379 -0.2820
57409W        W  503  11.530  12.549  21.467 -0.0559 -0.3066 -0.0478
57410W        W  504  13.915  12.538  21.825  0.0826 -0.2877  0.0516
57411W        W  505  13.515  12.710  21.408  0.0161  0.1253  0.0641
57412W        W  506  11.745  12.811  19.882 -0.1400  0.1393 -0.1154
57413W        W  507  14.190  11.957  18.899 -0.1297  0.2751  0.1319
57414W        W  508  12.235  13.966  20.242  0.4009  0.2196  0.1897
57415W        W  509  14.234  14.259  22.986  0.0987 -0.0362 -0.1496
57416W        W  510  12.894  14.246  22.630  0.1036 -0.1354  0.0949
57417W        W  511  13.379  12.277  20.388  0.1423  0.1219  0.0566
57418W        W  512   9.823  10.197  22.795 -0.1519 -0.1443 -0.1809
57419W        W  513  10.989  12.808  19.276 -0.0299 -0.2353 -0.1523
57420W        W  514  10.698  13.178  19.629  0.0449  0.2156  0.2578
57421W        W  515  12.512  11.229  21.565 -0.0527  0.6670 -0.1724
57422W        W  516  12.379  11.458  20.427 -0.1002  0.3491 -0.0690
57423W        W  517  13.364   9.306  20.538  0.0176 -0.0751  0.2208
57424W        W  518  11.785  14.870  21.336  0.2643 -0.0022  0.0578
57425W        W  519  13.204  12.011  21.600 -0.1062 -0.0722  0.1503
57426W        W  520  11.373  13.824  26.213  0.0676  0.0192  0.0381
57427W        W  521  12.459  11.711  24.117  0.0236 -0.1891  0.0183
57428W        W  522  14.178  11.198  23.267  0.2179 -0.0056 -0.1390
57429W        W  523  12.782  13.613  23.806  0.0211  0.3444 -0.2769
57430W        W  524  12.430  11.550  23.530 -0.2122  0.1458  0.0766
57431W        W  525  13.012  13.642  23.399  0.2934 -0.0072 -0.0886
57432W        W  526  13.325  12.494  28.567 -0.2011  0.1410 -0.1659
57433W        W  527  13.704  12.483  24.186 -0.2231  0.0598 -0.0672
57434W        W  528  14.637  13.959  24.566 -0.1987  0.1874  0.1167
57435W        W  529  12.887  11.823  23.905  0.1383 -0.0538  0.1576
57436W        W  530  12.500   9.393  25.618  0.2358 -0.1218 -0.1545
57437W        W  531  13.054  13.806  25.662  0.1907  0.0092 -0.0189
57438W        W  532  11.263  11.707  24.040 -0.1608  0.0403 -0.0724
57439W        W  533  12.923  10.727  24.257  0.0158 -0.1373  0.0613
57440W        W  534  12.872  12.777  23.825 -0.0447  0.0302 -0.1271
57441W        W  535  12.052  12.363  23.686 -0.1873 -0.0386 -0.0317
57442W        W  536  11.091  11.799  26.521  0.1328  0.1704 -0.0190
57443W        W  537  12.215  11.205  23.860 -0.4249  0.0364  0.0126
57444W        W  538  14.328  13.381  21.994  0.0797  0.0392 -0.2622
57445W        W  539  12.917  12.376  27.365 -0.0102 -0.0561  0.0089
57446W        W  540  13.832  10.814  25.525 -0.0492 -0.1665 -0.1097
57447W        W  541  11.824  13.335  23.635 -0.1306 -0.0150 -0.1734
57448W        W  542  10.630  12.427  23.481  0.0677 -0.0624  0.0569
57449W        W  543   9.320  11.472  25.560  0.2090 -0.1952 -0.0894
57450W        W  544  12.892  12.298  25.874  0.0888 -0.1214  0.2689
57451W        W  545  14.450  10.373  26.543  0.0063  0.2670 -0.2305
57452W        W  546  13.797  12.007  24.359  0.0004 -0.1313  0.0072
57453W        W  547  12.358  13.878  23.924 -0.0809  0.0912 -0.2292
57454W        W  548  13.622  12.069  25.130  0.1506  0.1045  0.0296
57455W        W  549  13.283  12.592  27.085 -0.2771  0.0047 -0.2131
57456W        W  550  13.152  12.823  24.682  0.4313 -0.1267  0.2328
57457W        W  551  10.193  15.528  23.583  0.0365 -0.1280  0.0969
57458W        W  552  11.911  13.604  24.026 -0.0896 -0.2413 -0.0055
57459W        W  553  14.319  13.789  22.808  0.0232 -0.2483  0.0743
57460W        W  554  12.724  12.427  26.854  0.1582  0.2142 -0.1368
57461W        W  555  13.497  13.472  25.781 -0.0915 -0.3130  0.2254
57462W        W  556  11.572  13.034  23.149 -0.1840  0.0260 -0.1403
57463W        W  557  13.016  14.614  26.065 -0.6630 -0.0055  0.0166
57464W        W  558  11.851  12.504  26.147  0.2520 -0.1812  0.2891
57465W        W  559  11.368  12.542  24.542  0.1276 -0.2434  0.3541
57466W        W  560  12.239  13.077  24.643  0.2634  0.0715  0.1106
57467W        W  561  12.345  13.708  22.332 -0.0880  0.3578  0.0592
57468W        W  562  13.602  12.966  23.286 -0.2830  0.0050  0.0747
57469W        W  563  14.972  12.389  27.031  0.2432 -0.4287 -0.2720
57470W        W  564  11.880  13.433  24.510  0.0906  0.2058  0.1175
57471W        W  565  14.611  12.653  26.783  0.0119  0.1103  0.1170
57472W        W  566  12.501  12.646  23.460 -0.0010 -0.1141 -0.4592
57473W        W  567  15.083  11.633  24.098 -0.0930  0.0703 -0.1160
57474W        W  568  12.673  12.401  23.035  0.2039 -0.2069 -0.1569
57475W        W  569  14.629  12.302  23.827  0.2619  0.0301  0.3279
57476W        W  570  12.328  11.739  25.436 -0.0032  0.1761 -0.3090
57477W        W  571  11.228  14.143  24.919 -0.2606 -0.1802 -0.0600
57478W        W  572  12.448  11.217  26.602  0.0712  0.0200 -0.0440
57479W        W  573  13.430  13.219  24.834 -0.5701  0.0036  0.1383
57480W        W  574  12.874  13.166  24.094  0.2606  0.1824 -0.1194
57481W        W  575  13.392  11.224  25.317  0.0805 -0.3384  0.1666
57482W        W  576  10.498  13.531  25.876 -0.3440  0.1040 -0.1537
57483W        W  577  11.399  11.743  25.975 -0.0865 -0.5307  0.1086
57484W        W  578  14.792  12.929  21.467 -0.0011 -0.0833  0.4198
57485W        W  579  15.436  13.587  21.725 -0.1637  0.2267  0.1801
57486W        W  580  12.909  12.479  22.613 -0.0846  0.0479 -0.3583
57487W        W  581  11.200  13.453  23.303  0.1444  0.4819  0.0437
57488W        W  582  10.676  14.535  27.109  0.1740  0.4418 -0.0035
57489W        W  583  10.842  12.208  26.190 -0.1420  0.0311 -0.0483
57490W        W  584  11.934  10.713  24.134 -0.2494  0.0454  0.4186
57491W        W  585  13.381  13.044  26.316  0.0693 -0.2078  0.1163
57492W        W  586   9.923  14.198  25.946  0.0360 -0.3860  0.1819
57493W        W  587  13.896  10.179  25.372  0.0462  0.0279  0.1379
57494W        W  588  12.313  13.574  25.407 -0.1712 -0.0636 -0.0134
57495W        W  589  14.418  13.533  24.335 -0.2983  0.3498  0.1515
57496W        W  590  14.355  11.688  23.122 -0.2836  0.0907 -0.1477
57497W        W  591  13.059  10.091  26.461 -0.3689 -0.2094 -0.1674
57498W        W  592  13.592  12.963  26.857  0.3110  0.5921  0.4172
57499W        W  593  10.729  11.222  22.142  0.2137 -0.1288 -0.0684
57500W        W  594  12.113  11.825  24.940 -0.0992  0.0399 -0.2159
57501W        W  595  13.823  13.403  24.582 -0.1388 -0.1373 -0.2075
57502W        W  596  13.979  11.028  22.849 -0.2499  0.0645  0.0363
57503W        W  597  11.522  12.989  25.433  0.1610 -0.2437  0.2221
57504W        W  598  12.189  12.808  26.423 -0.0702 -0.1207 -0.0679
57505W        W  599  14.530  12.952  25.853 -0.0094  0.1890 -0.0349
57506W        W  600  11.094  15.515  21.635 -0.3104 -0.0865  0.6147
57507W        W  601  11.635  12.810  23.658 -0.1305 -0.0598 -0.1963
57508W        W  602  12.150  12.550  24.386  0.2016 -0.1864  0.3548
57509W        W  603  12.606  11.585  26.230 -0.0380  0.1908  0.1478
57510W        W  604  10.818  12.690  26.249  0.0056 -0.1735 -0.1347
57511W        W  605  15.320   9.859  24.716  0.4705 -0.2636  0.2355
57512W        W  606  13.084  12.557  25.500 -0.3099 -0.3212 -0.0800
57513W        W  607  13.976  11.143  25.164  0.2774 -0.2489 -0.1343
57514W        W  608  11.927  13.370  22.806 -0.1528  0.1677 -0.1285
57515W        W  609  14.539  13.813  21.817  0.1024 -0.0871 -0.0989
57516W        W  610  12.598  11.152  24.323 -0.0885 -0.2728 -0.0695
57517W        W  611  12.128  12.533  22.359 -0.0683  0.0171 -0.1229
57518W        W  612  11.526  12.175  26.651  0.0069 -0.1461  0.1139
57519W        W  613  12.468  11.434  25.099 -0.0675  0.0543 -0.1303
57520W        W  614  13.557  10.617  27.303 -0.1878  0.0806 -0.0370
57521W        W  615  11.205  12.159  24.823  0.2943  0.0342 -0.0125
57522W        W  616  12.757  12.685  24.338 -0.0088 -0.0975 -0.3683
57523W        W  617  10.887   9.940  24.463 -0.0892  0.1620  0.1583
57524W        W  618  14.929  10.576  25.118 -0.1437  0.2085 -0.1375
57525W        W  619  11.015  12.647  24.928  0.3742  0.1302 -0.0527
57526W        W  620  10.991  13.189  24.132  0.1425 -0.2665 -0.3573
57527W        W  621  14.311  10.826  26.693  0.0589 -0.1930  0.2066
57528W        W  622  12.927  13.220  22.604 -0.2353 -0.0526 -0.1056
57529W        W  623  14.917  13.299  25.175 -0.0530 -0.2588 -0.0065
57530W        W  624  13.278  13.322  23.063  0.1087 -0.0457 -0.0625
57531W        W  625  12.349  11.913  25.972  0.1963  0.0496  0.0414
57532W        W  626  11.480  10.376  23.974 -0.2943 -0.0616 -0.7590
57533W        W  627  11.656  13.753  25.205  0.2184 -0.1911 -0.2134
57534W        W  628  11.326  14.496  25.301  0.2093  0.1932  0.0066
57535W        W  629  12.890  12.306  24.066 -0.1621  0.1297  0.3039
57536W        W  630  14.969  14.143  23.814 -0.0775 -0.4030 -0.0438
57537W        W  631  12.152  12.911  23.729  0.2026  0.2642  0.0487
57538W        W  632  10.499  12.972  25.911  0.1942 -0.1291 -0.0278
57539W        W  633  14.725  10.536  26.933 -0.0860 -0.0469 -0.1852
57540W        W  634  14.480  12.306  24.608  0.1855 -0.0215 -0.1589
57541W        W  635  12.411  11.373  25.726  0.1130 -0.1180  0.2837
57542W        W  636  12.086  11.874  23.750 -0.0163  0.1738 -0.0193
57543W        W  637  14.500  14.158  23.538  0.2506  0.2253  0.2019
57544W        W  638  11.067  13.759  22.335  0.0269  0.1643  0.1825
57545W        W  639  12.658  12.493  25.157 -0.1723  0.2399  0.0469
57546W        W  640  13.571  14.013  23.705  0.0017  0.0756  0.2805
57547W        W  641  14.129  11.257  24.659  0.3358 -0.4066 -0.0798
57548W        W  642  12.011  13.584  26.907 -0.1571  0.1071 -0.2518
57549W        W  643  14.209  11.306  26.707 -0.2186  0.2799 -0.1097
57550W        W  644  10.603  10.731  24.335 -0.1516  0.0437 -0.4267
57551W        W  645  10.407  13.475  26.796  0.0227 -0.0090  0.0866
57552W        W  646  13.685  11.056  24.715  0.2574 -0.0680  0.0677
57553W        W  647  14.767  12.298  25.035 -0.0875  0.1020 -0.3750
57554W        W  648  13.393  12.820  25.189 -0.0887 -0.1141 -0.1686
57555W        W  649  14.253  12.377  24.163  0.2666 -0.2249 -0.0752
57556W        W  650  14.028  11.606  24.058 -0.1977 -0.0252  0.0060
57557W        W  651  12.236  10.589  23.215  0.0531 -0.0225  0.0215
57558W        W  652   9.858  13.038  27.708 -0.0792 -0.0728  0.0548
57559W        W  653  12.633  13.963  24.732 -0.1499 -0.0012  0.1018
57560W        W  654  11.616  13.706  25.697 -0.2846  0.0190 -0.0827
57561W        W  655  13.195  10.470  24.618 -0.0187 -0.1731 -0.0061
57562W        W  656  13.488  13.484  23.506 -0.2058 -0.1196 -0.2284
57563W        W  657  10.542  12.462  25.442 -0.0641  0.0698 -0.3434
57564W        W  658  13.708  12.877  28.600  0.0442  0.1019  0.3185
57565W        W  659  13.136  13.132  25.592 -0.0794 -0.1129  0.0957
57566W        W  660  12.872  11.144  25.755  0.1418 -0.1087 -0.0520
57567W        W  661  11.233  11.425  22.905 -0.3065  0.0243  0.1522
57568W        W  662  13.511  10.223  25.041  0.1732 -0.0171  0.1585
57569W        W  663  10.829  13.694  21.616 -0.0354 -0.0214 -0.0029
57570W        W  664  13.191  10.764  25.439  0.0453  0.0565  0.4312
57571W        W  665  12.357  10.525  24.972  0.0430 -0.0630 -0.0798
57572W        W  666  13.091   9.832  27.796 -0.1389  0.3996 -0.2941
57573W        W  667  13.937  12.285  26.426  0.0825 -0.2395  0.0679
57574W        W  668  13.224  12.849  24.177  0.0079  0.3056 -0.1643
57575W        W  669  13.886  13.122  26.472  0.4630 -0.0808  0.0588
57576W        W  670  11.861  11.893  22.880  0.1626  0.2542  0.3761
57577W        W  671  13.014  11.861  26.635  0.0566  0.1655  0.2575
57578W        W  672  11.429  13.636  27.073 -0.0081 -0.5078 -0.0478
57579W        W  673  11.070  14.692  25.677 -0.5461  0.3178 -0.1811
57580W        W  674  14.764  13.477  25.827  0.1442 -0.0165 -0.0001
57581W        W  675  14.270  12.766  24.515 -0.0271  0.2138 -0.1797
57582W        W  676  13.863  13.463  25.132 -0.1126  0.1518 -0.0669
57583W        W  677  12.531  11.004  24.781 -0.0838  0.0009 -0.1100
57584W        W  678  11.781  13.122  24.081  0.0459 -0.1483 -0.2518
57585W        W  679  13.152  13.759  22.834  0.4287  0.0614  0.1727
57586W        W  680  12.075  11.150  26.127 -0.0711  0.0134  0.2588
57587W        W  681  12.474  13.074  25.338  0.1309 -0.2847 -0.2776
57588W        W  682  12.077  13.919  21.917 -0.0854 -0.2423  0.0962
57589W        W  683  13.252  11.527  25.715  0.2433  0.1898 -0.0676
57590W        W  684  12.353  14.220  22.578  0.1254  0.0158  0.2477
57591W        W  685  12.009   9.458  25.520 -0.1932 -0.0301  0.2804
57592W        W  686  11.684  14.613  26.130 -0.0971 -0.3252  0.2767
57593W        W  687  12.221  12.692  24.932 -0.0574  0.3123  0.3247
57594W        W  688  11.624  12.122  23.847 -0.0789 -0.0498 -0.1034
57595W        W  689  13.489  10.390  25.573  0.0069  0.0583  0.0391
57596W        W  690  15.135  13.980  21.895 -0.1600 -0.0093  0.2284
57597W        W  691  12.121  10.684  26.889  0.0052  0.3871 -0.2048
57598W        W  692  12.911  11.178  26.434  0.0547  0.2519 -0.2602
57599W        W  693  11.685  12.712  25.006  0.0346  0.0323  0.3026
57600W        W  694  12.447  12.470  26.089 -0.2018 -0.0079 -0.0589
57601W        W  695  13.069   9.918  24.969  0.1808  0.2454  0.0115
57602W        W  696  13.514  13.837  24.391 -0.3111  0.0598 -0.1077
57603W        W  697  11.316  13.430  25.482  0.3212 -0.0850  0.1116
57604W        W  698  10.853  12.609  22.668 -0.1319 -0.3324 -0.0066
57605W        W  699  13.522  11.985  26.548 -0.0247  0.1558  0.3008
57606W        W  700  11.914  12.355  24.703  0.2309 -0.3014 -0.1684
57607W        W  701  11.579  13.758  24.723  0.0484 -0.1284 -0.0665
57608W        W  702  13.719  13.046  25.997  0.0276 -0.0207  0.2941
57609W        W  703  11.184  12.948  23.509  0.1914  0.2958 -0.1667
57610W        W  704  11.162  13.886  24.518  0.2881  0.3040 -0.0812
57611W        W  705  12.679  12.324  27.826 -0.0961 -0.0585  0.1436
57612W        W  706  14.877  12.598  25.952 -0.1425 -0.0283  0.0380
57613W        W  707  13.759  10.786  26.632 -0.1772  0.1826  0.1924
57614W        W  708  11.932  10.249  24.278  0.0215 -0.0822  0.1231
57615W        W  709  11.378  12.696  25.850  0.2761  0.1314 -0.1247
57616W        W  710  11.982  13.137  25.108  0.0069 -0.0804  0.0376
57617W        W  711  13.912  12.816  24.964  0.1066 -0.0367 -0.0285
57618W        W  712  11.677  13.046  26.282 -0.2873 -0.2185 -0.1696
57619W        W  713  12.724  10.626  25.768  0.1075  0.2526 -0.3068
57620W        W  714  15.091  12.930  22.744 -0.0702 -0.2020  0.2525
57621W        W  715  13.301  11.936  24.766 -0.0386 -0.0856 -0.0991
57622W        W  716  11.693  12.544  24.167 -0.2766 -0.0163  0.2518
57623W        W  717  11.224  12.047  27.190 -0.0263 -0.1567 -0.2989
57624W        W  718  12.063  14.070  23.113 -0.1196  0.3050  0.0584
57625W        W  719  13.337  12.766  25.848 -0.1259 -0.2971 -0.0308
57626W        W  720  12.184  12.501  26.923  0.1292  0.4001  0.0625
57627W        W  721  11.963  13.419  22.242  0.1864 -0.0605 -0.1382
57628W        W  722  10.049  12.349  26.280  0.1007  0.1217  0.0094
57629W        W  723  14.265  10.664  23.969 -0.1132  0.2050 -0.2170
57630W        W  724  12.272  13.144  23.202 -0.1289 -0.1053  0.0142
57631W        W  725  13.330  11.476  24.784 -0.0001  0.0741  0.0139
57632W        W  726  13.703  11.918  25.990  0.1689 -0.1729  0.1651
57633W        W  727  12.684  13.175  23.456  0.0843 -0.3531 -0.1418
57634W        W  728  13.378  12.468  27.658  0.3353 -0.0987  0.0459
57635W        W  729  12.964  10.315  25.443  0.3261 -0.2482  0.0087
57636W        W  730  15.451  13.136  25.385 -0.2683 -0.1168  0.5008
57637W        W  731  12.096  12.318  25.746  0.1403 -0.0934 -0.0868
57638W        W  732  13.038  13.343  26.048  0.3381 -0.0401  0.0050
57639W        W  733  10.363  14.048  25.713 -0.3637  0.1124 -0.0512
57640W        W  734  12.619  10.797  25.333 -0.3883  0.1399 -0.0570
57641W        W  735  12.349  10.241  23.984  0.1912  0.3411  0.0807
57642W        W  736  12.504  11.876  26.687  0.2837 -0.2881  0.0658
57643W        W  737  13.486  12.425  24.836  0.2418  0.1299  0.0023
57644W        W  738  12.996  12.286  23.532 -0.0168 -0.0521 -0.1339
57645W        W  739  15.503  11.873  25.540  0.1758  0.0886  0.0927
57646W        W  740  11.767  12.672  26.679 -0.3141  0.3485 -0.0892
57647W        W  741  14.520  12.013  25.431 -0.1214 -0.2166 -0.0198
57648W        W  742  13.571  13.073  23.904  0.1600 -0.0196  0.2984
57649W        W  743  12.319  13.450  23.705 -0.0529  0.4325  0.2592
57650W        W  744  13.410  11.041  26.376 -0.1405 -0.1699 -0.2252
57651W        W  745  13.629  12.816  24.572  0.1222 -0.0931  0.2459
57652W        W  746  12.874  11.146  25.124  0.1885  0.1527  0.3234
57653W        W  747  14.347  10.734  26.121  0.1464  0.0180  0.3542
57654W        W  748  14.239  12.176  25.931  0.0987  0.2322 -0.1737
57655W        W  749  12.155  13.295  26.414 -0.2657 -0.3548  0.2351
57656W        W  750  11.608  11.361  25.607  0.1081  0.0594  0.2195
57657W        W  751  13.696  13.925  24.835  0.3590  0.1681 -0.3126
57658W        W  752  14.108  11.133  23.769 -0.1228  0.1160  0.4514
57659W        W  753  14.100  12.678  25.708  0.2135 -0.0392 -0.0432
57660W        W  754  14.086  10.513  24.894 -0.1526 -0.0303  0.0097
57661W        W  755  12.830  11.601  25.352  0.0758 -0.1605 -0.1804
57662W        W  756  11.362  11.871  25.483  0.0180  0.1472  0.0189
57663W        W  757  14.495  11.349  25.057 -0.3124 -0.1232  0.1620
57664W        W  758  11.463  10.932  23.783 -0.0753  0.0843 -0.1000
57665W        W  759  12.786  11.460  26.892  0.2315  0.2635  0.2957
57666W        W  760  12.588  13.885  22.872 -0.1106  0.1280 -0.0330
57667W        W  761  12.682  12.864  24.814 -0.0532  0.0755  0.0409
57668W        W  762  13.473  10.780  24.372 -0.0127 -0.1033 -0.2228
57669W        W  763  10.275  12.889  25.485 -0.0786 -0.2812  0.0728
57670W        W  764  10.766  12.952  26.758  0.2345  0.2011 -0.2904
57671W        W  765  11.199  12.208  23.346 -0.0899 -0.1841  0.1180
57672W        W  766  12.515  12.076  23.566  0.1607 -0.0300 -0.1053
57673W        W  767  11.893  14.096  26.047  0.0862 -0.0573 -0.1696
57674W        W  768  14.319  12.484  27.278  0.0447 -0.0730 -0.1695
57675W        W  769  12.935  10.710  23.689  0.2329 -0.4456 -0.1743
57676W        W  770  14.126  11.999  27.225 -0.0176  0.1351 -0.2812
57677W        W  771  12.448  12.472  23.943 -0.2830  0.0962 -0.3430
57678W        W  772  14.115  10.345  25.805 -0.0267 -0.0583 -0.0256
57679W        W  773  11.782  14.268  25.048 -0.2085 -0.1068 -0.1901
57680W        W  774  10.937  14.204  25.547 -0.0259 -0.0247 -0.1038
57681W        W  775  11.503  15.026  25.202 -0.3917  0.1694  0.2843
57682W        W  776  13.777  11.327  26.416 -0.0779  0.0513  0.0593
57683W        W  777  12.410  12.163  24.555 -0.0770 -0.0423  0.0104
57684W        W  778  13.729  12.534  25.426 -0.0757  0.2668  0.0786
57685W        W  779  14.442  12.426  26.333  0.1453 -0.0409 -0.0392
57686W        W  780  12.870  12.854  27.112 -0.0230  0.1852  0.0510
57687W        W  781  12.177  12.735  25.453  0.1444  0.4490 -0.2836
57688W        W  782  14.386  12.973  25.254  0.1593  0.0473  0.1502
57689W        W  783  14.675  12.830  24.748 -0.1083 -0.0319  0.0219
57690W        W  784  11.811  12.910  25.804 -0.0391  0.0244 -0.1984
57691W        W  785  12.123  12.983  27.399 -0.1002 -0.2516  0.1735
57692W        W  786  12.480  12.954  26.826 -0.0315 -0.1577  0.0024
57693W        W  787  13.001  13.152  25.103 -0.3340 -0.2445 -0.3192
57694W        W  788  12.382  11.600  24.597 -0.0919  0.0489 -0.1939
57695W        W  789  12.789  13.450  23.013 -0.3123  0.0364  0.1572
57696W        W  790  10.669  14.008  26.098  0.0858 -0.2009 -0.1907
57697W        W  791  11.313  12.361  26.237  0.0216 -0.1508  0.1414
57698W        W  792  10.185  13.048  21.483 -0.0357  0.0040 -0.0299
57699W        W  793  15.504  13.243  23.010  0.0025 -0.0020  0.1990
57700W        W  794  12.717  12.943  22.997 -0.0212 -0.0435  0.0777
57701W        W  795  13.171  14.021  24.032  0.1532 -0.0011  0.0609
57702W        W  796  13.139  11.443  24.335  0.0315  0.1500  0.0542
57703W        W  797  10.988  12.358  25.749  0.1547 -0.0716  0.0367
57704W        W  798  11.406  13.450  24.329 -0.2099  0.1764  0.0253
57705W        W  799  13.282  13.582  23.937 -0.0062  0.0715 -0.2932
57706W        W  800  11.582  13.741  23.072 -0.3126 -0.0964 -0.3548
57707W        W  801  13.168  12.357  26.628 -0.0924 -0.0045  0.0231
57708W        W  802  13.503  11.674  23.063  0.7312 -0.0844  0.3729
57709W        W  803  14.518  12.604  23.156  0.0675  0.1218  0.0537
57710W        W  804  14.097  12.892  24.004  0.0473  0.0741 -0.0071
57711W        W  805  12.626  13.671  26.165 -0.0753  0.1876  0.0183
57712W        W  806  13.277  12.327  24.401 -0.3175  0.3362  0.1233
57713W        W  807  12.737  11.285  23.175 -0.2189  0.0247 -0.0281
57714W        W  808  12.517  12.859  27.745 -0.1128 -0.1415  0.1028
57715W        W  809  14.565  11.320  28.179  0.2400 -0.0636 -0.4739
57716W        W  810  12.080  14.154  25.481  0.0149  0.0092 -0.2411
57717W        W  811  13.966  13.171  23.574 -0.1507 -0.0579  0.2781
57718W        W  812  10.742  12.212  25.034  0.0532 -0.0068  0.1979
57719W        W  813  12.160  13.682  25.849 -0.1560  0.1645 -0.0855
57720W        W  814  14.772   9.996  26.121  0.0986  0.2456 -0.1091
57721W        W  815  12.577  13.300  22.116 -0.3517 -0.2246 -0.3746
57722W        W  816  13.380  12.155  25.627  0.0214  0.1487  0.2099
57723W        W  817  11.406  14.603  24.824  0.1936 -0.1814 -0.1453
57724W        W  818  11.565  13.286  24.866 -0.1552  0.0079 -0.0525
57725W        W  819  12.251  14.635  24.388 -0.0898  0.1095  0.2555
57726W        W  820  11.108  11.268  23.786  0.2634 -0.0473  0.4474
57727W        W  821  14.228  12.022  24.977 -0.0672 -0.1360 -0.0246
57728W        W  822  12.153  12.270  25.172  0.1450 -0.0308  0.0421
57729W        W  823  14.244  11.213  25.654 -0.0109  0.1797  0.0837
57730W        W  824  11.771  12.913  24.565  0.0073  0.0306 -0.1015
57731W        W  825  13.444  11.058  25.842 -0.1036  0.2593  0.0786
57732W        W  826  14.082  12.764  26.222  0.1394  0.1137 -0.2277
57733W        W  827  11.116  11.213  25.076 -0.0429  0.1150  0.0733
57734W        W  828  13.123  11.476  22.803 -0.2018  0.0542  0.0922
57735W        W  829  13.658  13.466  26.796  0.1395  0.1098  0.2512
57736W        W  830  11.359  11.866  21.969 -0.3062  0.3952 -0.3208
57737W        W  831  13.582  14.601  26.320  0.1076  0.1424  0.2103
57738W        W  832  11.756  11.643  24.680 -0.0582  0.2344  0.2515
57739W        W  833  12.840  10.299  23.940 -0.1154 -0.1749 -0.2102
57740W        W  834  12.427  12.985  24.149  0.2971  0.0528  0.0493
57741W        W  835  14.399  12.629  27.758  0.2642  0.0399  0.3054
57742W        W  836  13.336  13.485  25.312 -0.2735  0.1603  0.0539
57743W        W  837  10.198  10.430  24.297 -0.1224  0.2904  0.1444
57744W        W  838  14.747  13.085  23.455  0.2805  0.3284 -0.3488
57745W        W  839  13.986  12.098  25.498 -0.0821 -0.0961  0.0366
57746W        W  840  11.563  15.967  21.017  0.0699 -0.0527  0.3028
57747W        W  841  13.435  12.443  23.276  0.5377  0.2255  0.0937
57748W        W  842  14.711  12.651  24.158  0.0295 -0.2425  0.1595
57749W        W  843  10.149  11.542  26.686  0.1937 -0.0124 -0.4279
57750W        W  844  13.893  13.105  25.476 -0.0792  0.4835  0.2810
57751W        W  845  14.360  13.353  25.527 -0.0792 -0.1826 -0.0169
57752W        W  846  12.585  11.951  24.950 -0.0472 -0.2481 -0.0063
57753W        W  847  10.954  12.036  23.732  0.0342 -0.2134 -0.4763
57754W        W  848  11.844  13.896  23.636  0.0043 -0.0260  0.0821
57755W        W  849  13.686  11.544  24.420  0.1239  0.0377  0.4177
57756W        W  850  14.303  12.474  25.087  0.1786  0.1952 -0.1234
57757W        W  851  12.747  14.252  22.139 -0.0854 -0.0089  0.1007
57758W        W  852  15.253  10.937  26.874  0.4313  0.0973 -0.0640
57759W        W  853  13.045  13.622  26.483  0.1041  0.1993  0.2472
57760W        W  854  12.447  14.271  26.190  0.1814 -0.0741 -0.1155
57761W        W  855  11.985  12.723  21.703 -0.0307  0.0416 -0.0778
57762W        W  856  11.464  13.277  25.912  0.2592 -0.1400  0.4167
57763W        W  857  12.773  13.638  25.200  0.1037  0.2205 -0.0352
57764W        W  858  12.449  13.461  24.365 -0.2269 -0.1531  0.0630
57765W        W  859  13.417  12.553  23.766 -0.0602 -0.3816  0.0544
57766W        W  860  14.535  10.834  24.910 -0.0506  0.1078  0.4258
57767W        W  861  15.942  12.307  24.579 -0.1133 -0.1642 -0.1188
57768W        W  862  12.769  12.173  26.320 -0.0155 -0.2100 -0.0659
57769W        W  863  14.507  10.881  25.423 -0.0669 -0.1021 -0.2817
57770W        W  864  13.323  10.336  24.086 -0.3057 -0.1552  0.0679
57771W        W  865  11.807  13.560  26.157 -0.1747  0.1025 -0.3547
57772W        W  866   9.666  11.706  22.995  0.0650  0.1625 -0.1526
57773W        W  867  11.429  13.469  22.677  0.1578 -0.2455  0.2168
57774W        W  868  12.317  12.950  25.908 -0.0708  0.0147 -0.0440
57775W        W  869  13.998  10.876  27.163  0.1848 -0.3170 -0.0892
57776W        W  870  10.901  11.087  26.945 -0.1842  0.0856 -0.0564
57777W        W  871  12.639  12.678  26.467  0.2960 -0.0433  0.0262
57778W        W  872  12.902  10.657  25.000 -0.2767 -0.3629  0.0815
57779W        W  873  13.692  13.007  22.832 -0.3455 -0.0408  0.1533
57780W        W  874  11.770  11.511  23.731  0.1824  0.0120 -0.1569
57781W        W  875  10.767  11.489  24.261 -0.1029 -0.1745  0.0794
57782W        W  876  12.857  12.306  24.762  0.2537 -0.1341  0.1655
57783W        W  877  14.524  13.364  21.533 -0.2573  0.1310 -0.2914
57784W        W  878  12.708  10.290  24.596  0.1137 -0.1847 -0.0430
57785W        W  879  14.851  14.105  25.764 -0.1007 -0.0717 -0.0968
57786W        W  880  11.969  12.673  23.278 -0.0128  0.0193  0.0512
57787W        W  881  13.092  12.645  26.254  0.2371  0.2594  0.1156
57788W        W  882  14.516  12.477  25.565 -0.3333  0.1634 -0.0972
57789W        W  883  11.031  10.713  23.927 -0.2110 -0.0103 -0.1446
57790W        W  884  11.975  11.160  26.750  0.2213  0.1905 -0.2029
57791W        W  885  14.076  14.000  24.184 -0.1058  0.1298  0.1242
57792W        W  886  15.168  14.536  21.769 -0.0095  0.0650  0.0916
57793W        W  887  12.160  13.816  26.450 -0.2705 -0.1416 -0.1661
57794W        W  888  12.755  14.017  26.575 -0.0598 -0.0991 -0.0086
57795W        W  889  11.234  11.050  27.329 -0.0444  0.1998  0.1595
57796W        W  890  15.071  12.982  24.450  0.1566  0.1097  0.1108
57797W        W  891  12.289  14.195  26.804  0.1934 -0.1607 -0.2567
57798W        W  892  14.505  13.809  22.320  0.0863 -0.0975  0.0918
57799W        W  893  13.962  12.328  24.695  0.2030 -0.1122  0.0176
57800W        W  894  13.447  11.803  22.605 -0.1167  0.2424 -0.1425
57801W        W  895  11.796  11.759  27.387  0.2662  0.1154 -0.0033
57802W        W  896  11.062  12.781  25.454  0.0228  0.1219 -0.0264
57803W        W  897  12.980  12.104  25.313  0.1143  0.1156 -0.1522
57804W        W  898  11.879  11.672  24.203 -0.0195  0.3194 -0.0036
57805W        W  899  14.018  10.822  24.414  0.2422  0.0188 -0.0763
57806W        W  900  13.138  13.171  23.648  0.0222 -0.1156 -0.1172
57807W        W  901  12.530  12.210  25.563 -0.0103 -0.2060 -0.0397
57808W        W  902  11.553  12.077  24.405  0.3291 -0.1496  0.1585
57809W        W  903  13.294  11.743  25.239  0.0615 -0.2069 -0.0575
57810W        W  904  12.534  13.793  23.390 -0.1008 -0.2169 -0.1042
57811W        W  905  13.658  12.413  25.939 -0.2397 -0.3015  0.0359
57812W        W  906  12.835  11.917  24.423  0.1793  0.1748  0.2996
57813W        W  907  14.341  13.346  23.868  0.1510 -0.0635  0.1337
57814W        W  908  12.502  14.045  25.736  0.2973  0.1955 -0.1234
57815W        W  909  14.336  14.384  24.365  0.2156 -0.1534 -0.0579
57816W        W  910  13.461  14.189  27.149 -0.0288  0.0066  0.2318
57817W        W  911  15.453  12.877  25.932  0.4255  0.2687  0.4108
57818W        W  912  10.957  10.819  25.483  0.0080  0.3523 -0.3025
57819W        W  913  10.209  11.223  24.025  0.1740 -0.0195 -0.1170
57820W        W  914  12.939  13.665  24.281 -0.0261 -0.1198  0.2043
57821W        W  915  13.998  12.137  23.766 -0.1343 -0.1024 -0.0470
57822W        W  916  11.987  11.389  25.272  0.2199  0.1863 -0.0194
57823W        W  917  13.385  10.756  24.993  0.0404 -0.1813 -0.6202
57824W        W  918  12.256  15.249  26.314  0.1023 -0.1432 -0.1931
57825W        W  919  13.195  13.657  24.771 -0.0851 -0.2178 -0.1086
57826W        W  920  10.827  14.714  30.304 -0.0228 -0.2164 -0.3629
57827W        W  921  14.071  14.054  28.548 -0.0855 -0.1408 -0.2515
57828W        W  922  14.870  11.633  27.840 -0.1744 -0.4011 -0.2175
57829W        W  923  14.632  12.078  27.291 -0.0357  0.0071 -0.0052
57830W        W  924  10.662  13.559  29.211 -0.0389 -0.1786 -0.0100
57831W        W  925  13.630  13.622  27.266 -0.2521 -0.0919 -0.0743
57832W        W  926  11.277  10.667  31.368 -0.3907  0.1680  0.0948
57833W        W  927  12.652  15.733  28.890 -0.3986  0.0002 -0.2129
57834W        W  928  14.148  15.479  29.713 -0.0524  0.4486  0.2501
57835W        W  929  14.007  12.646  26.748 -0.1818 -0.0509  0.3157
57836W        W  930  11.308  12.541  30.499 -0.3204 -0.1641  0.5419
57837W        W  931  13.136  13.989  28.459 -0.4324 -0.0244  0.1652
57838W        W  932  11.964  13.660  27.730  0.0049  0.0466  0.0174
57839W        W  933   9.709  12.196  27.822  0.0934 -0.0257 -0.0860
57840W        W  934  14.808  14.111  29.743  0.1545  0.0102  0.1622
57841W        W  935  11.291  12.974  29.037 -0.1064  0.0227 -0.0470
57842W        W  936  11.835  12.437  29.823 -0.1427  0.1820 -0.0415
57843W        W  937  14.224  12.175  27.913  0.2456 -0.1881 -0.1249
57844W        W  938  14.087  14.551  28.353  0.0596  0.1045  0.1660
57845W        W  939  12.017  12.538  29.251  0.2715 -0.1763 -0.0169
57846W        W  940  11.960  11.872  30.051  0.0488 -0.0817 -0.0200
57847W        W  941  12.493  13.565  26.750 -0.4829  0.1025  0.2554
57848W        W  942  11.019  13.736  25.841 -0.3281  0.0190 -0.3610
57849W        W  943   9.256  12.423  29.691  0.2113  0.0645 -0.0607
57850W        W  944  12.014  13.748  30.624 -0.0412 -0.0258  0.3218
57851W        W  945  13.371  13.155  30.058  0.1058 -0.0954 -0.1126
57852W        W  946  13.887  12.942  29.205  0.0435  0.1399  0.5461
57853W        W  947  11.430  12.634  30.002 -0.2609  0.0123 -0.1402
57854W        W  948  13.658  14.203  29.382 -0.2138  0.2897 -0.1620
57855W        W  949  14.123  13.106  30.576  0.0373 -0.1273 -0.1039
57856W        W  950   9.816  13.012  28.750 -0.0110 -0.2292  0.1825
57857W        W  951  11.277  13.995  28.037 -0.2277 -0.1706 -0.1059
57858W        W  952  12.171  14.119  27.757  0.0034  0.4316  0.2061
57859W        W  953  14.583  13.934  27.932 -0.0558 -0.0869 -0.1091
57860W        W  954  13.812  13.396  28.845 -0.2553  0.2709  0.1810
57861W        W  955  12.869  13.434  31.516  0.2019  0.2008 -0.0277
57862W        W  956  10.431  14.056  27.266 -0.3185  0.1129  0.0542
57863W        W  957  11.580  13.899  30.755  0.1461 -0.1287  0.4173
57864W        W  958  13.442  12.905  30.923 -0.1368 -0.2119  0.1659
57865W        W  959  12.083  11.545  29.575  0.3131 -0.0446 -0.0047
57866W        W  960  12.439  12.759  29.043 -0.0460 -0.2282  0.2264
57867W        W  961  12.224  14.454  27.291  0.0850 -0.0938  0.0806
57868W        W  962  12.926  13.381  27.500 -0.0947  0.0826  0.0442
57869W        W  963  11.768  12.917  31.029 -0.1654  0.0552  0.0173
57870W        W  964  10.605  13.798  29.979 -0.0050  0.0882 -0.1639
57871W        W  965  14.216  11.845   0.208 -0.1539 -0.0860 -0.1083
57872W        W  966  12.065  14.497  25.847 -0.3501 -0.2016  0.0435
57873W        W  967  13.643  12.161  27.919 -0.0256  0.1300 -0.1105
57874W        W  968  11.433  11.866  27.790  0.1935 -0.1909 -0.2165
57875W        W  969  13.451  12.694  28.114 -0.2897 -0.4787  0.1013
57876W        W  970  12.989  11.338  28.874  0.0153  0.1295 -0.1605
57877W        W  971  10.894  16.339  29.028  0.1694 -0.1418  0.1694
57878W        W  972  11.490  11.164  28.638  0.0525  0.1094 -0.0576
57879W        W  973  14.199  13.744  31.410 -0.0666 -0.2097  0.0403
57880W        W  974  12.547  13.805  27.669  0.0234 -0.0917 -0.0595
57881W        W  975  12.531  12.862  30.438 -0.0979  0.2626  0.1256
57882W        W  976  10.913  13.918  29.551 -0.1876  0.2194 -0.2929
57883W        W  977  11.074  13.566  28.848 -0.2290  0.0462 -0.1693
57884W        W  978  14.270  13.472  27.868 -0.1556 -0.2270 -0.2423
57885W        W  979  14.687  12.624  28.238 -0.1254  0.1844  0.0493
57886W        W  980  12.789  13.148  26.410  0.1278 -0.0222  0.2861
57887W        W  981  11.644  14.305  27.668 -0.0013 -0.1330  0.0131
57888W        W  982  11.209  12.314  31.871 -0.0112 -0.2440 -0.1107
57889W        W  983  10.305  12.057  30.366  0.3529  0.0336  0.2076
57890W        W  984  12.536  11.066  28.353 -0.2538 -0.1353 -0.0131
57891W        W  985  15.082  13.394  28.590 -0.1485  0.3968 -0.1496
57892W        W  986  12.117  13.808  30.065  0.0650  0.3250  0.3450
57893W        W  987  13.093  13.156  28.075  0.2306 -0.2302 -0.1399
57894W        W  988  11.895  13.159  27.775 -0.0410  0.0387 -0.1014
57895W        W  989  12.944  15.606  28.463  0.0239 -0.1507 -0.3040
57896W        W  990  14.002  13.047  27.762 -0.0564  0.0108  0.1327
57897W        W  991  13.256  12.858  28.841  0.1719 -0.5379 -0.0411
57898W        W  992  13.017  12.248  29.452 -0.0370  0.1746  0.1788
57899W        W  993  12.262  13.847  27.236 -0.5115  0.0367  0.3719
57900W        W  994  13.064  12.856  26.689 -0.0479 -0.2735  0.2743
57901W        W  995  15.246  14.016  28.940 -0.2775  0.1298  0.1399
57902W        W  996  13.646  13.992  26.466 -0.3413  0.0031  0.2377
57903W        W  997  11.855  13.742  28.552  0.0193  0.2891 -0.2697
57904W        W  998  13.172  12.285  30.647  0.0516 -0.0029 -0.0279
57905W        W  999  12.766  14.195  30.912  0.0378 -0.1189  0.0939
57906W        W 1000  12.755  14.823  27.053 -0.1792 -0.1275  0.0343
57907W        W 1001  10.674  12.952  28.392 -0.1012 -0.0784  0.0211
57908W        W 1002  10.558  12.680  29.764 -0.1257 -0.0890 -0.0399
57909W        W 1003  11.025  12.356  29.689  0.1420 -0.0141 -0.2931
57910W        W 1004  11.627  12.634  28.875  0.0061 -0.0946 -0.0087
57911W        W 1005  13.640  11.756  26.977  0.1481 -0.0235 -0.1914
57912W        W 1006  11.528  13.423  28.789  0.0186 -0.1086 -0.2813
57913W        W 1007  14.599  12.061  28.267 -0.1470 -0.0807 -0.0838
57914W        W 1008  11.403  12.053  29.595  0.0307 -0.0333 -0.4595
57915W        W 1009  14.125  13.610  26.952  0.0219  0.0750 -0.3771
57916W        W 1010  14.055  10.432  26.940 -0.2002 -0.1599  0.0839
57917W        W 1011  14.938  13.871  27.374 -0.0036 -0.2023 -0.2074
57918W        W 1012  11.065  13.312  29.393 -0.2426 -0.0382 -0.0502
57919W        W 1013  11.948  11.944  28.427 -0.4118 -0.2308  0.0822
57920W        W 1014  11.527  11.133  30.322 -0.0078  0.1260 -0.2998
57921W        W 1015  11.091  11.618  29.385 -0.1215 -0.2808  0.0430
57922W        W 1016  14.391  15.059  29.453  0.0530 -0.0832  0.2736
57923W        W 1017  11.418  11.217  29.300  0.0078  0.0170  0.0547
57924W        W 1018  14.307  12.543  29.086 -0.1578 -0.0304 -0.0420
57925W        W 1019  14.034  14.655  29.328 -0.0511  0.2028  0.2128
57926W        W 1020  11.861  12.467  28.417 -0.0042  0.0840  0.0495
57927W        W 1021  14.931  10.588  29.625  0.3931  0.2275 -0.0547
57928W        W 1022  13.639  14.688  27.070  0.0997 -0.1161  0.1598
57929W        W 1023  13.992  14.368  29.743  0.4777 -0.0867 -0.1186
57930W        W 1024  13.929  16.064  27.603 -0.1161  0.1812  0.4068
57931W        W 1025  10.505  12.253  29.524  0.0425  0.0226 -0.0199
57932W        W 1026  12.466  11.911  27.554  0.1499  0.0841 -0.1348
57933W        W 1027  10.638  16.653  30.283  0.0417  0.1176 -0.1760
57934W        W 1028  12.200  14.141  28.966 -0.0674  0.1180  0.2952
57935W        W 1029  12.028  13.066  26.863 -0.0510  0.1012 -0.2393
57936W        W 1030  14.474  15.731  28.387 -0.2079 -0.1815  0.0454
57937W        W 1031  13.642  13.954  28.719  0.0916 -0.0939  0.4472
57938W        W 1032  12.600  14.616  31.153 -0.1036 -0.2628  0.0677
57939W        W 1033  13.185  12.374  30.144 -0.1652  0.0517  0.0461
57940W        W 1034  15.301  12.429  30.183 -0.0201 -0.4823  0.0446
57941W        W 1035  13.947  13.783  29.501  0.2623 -0.0964 -0.1022
57942W        W 1036  12.658  11.373  29.274  0.0798 -0.0976 -0.0218
57943W        W 1037  14.347  14.428  28.873 -0.2728  0.0922  0.2242
57944W        W 1038  11.489  14.918  26.865  0.3304  0.0503  0.4302
57945W        W 1039  12.621  13.113  28.166 -0.0338 -0.1411  0.1062
57946W        W 1040  13.420  14.447  28.621 -0.0120  0.0709  0.1418
57947W        W 1041  12.906  13.780  29.891 -0.0945  0.2692 -0.0036
57948W        W 1042  10.556  11.401  30.563 -0.0252  0.3384  0.0702
57949W        W 1043  12.838  12.722  29.279 -0.2439 -0.3322  0.0618
57950W        W 1044  11.339  13.700  27.593 -0.0702 -0.0642  0.1810
57951W        W 1045  12.448  14.651  28.608  0.1582  0.0528 -0.0585
57952W        W 1046  12.308  12.088  29.766 -0.0444  0.0212  0.1002
57953W        W 1047  13.518  11.749  27.459  0.3353  0.0583 -0.0005
57954W        W 1048  13.808  15.105  29.520 -0.0330 -0.1788 -0.1437
57955W        W 1049  14.271  13.194  24.803  0.0405  0.0439 -0.0728
57956W        W 1050  13.832  12.737  27.216  0.0899  0.4144 -0.3163
57957W        W 1051  13.552  12.016  28.572  0.0711  0.3068  0.3147
57958W        W 1052  10.243  14.609  31.080 -0.1820 -0.1481  0.1463
57959W        W 1053  12.820  13.650  28.104  0.2188 -0.2557 -0.1680
57960W        W 1054  12.494  13.555  29.662  0.0701  0.1633  0.0134
57961W        W 1055  11.932  12.155  28.843 -0.0534  0.1376 -0.0313
57962W        W 1056  14.621  13.569  26.661 -0.2637  0.0528 -0.0000
57963W        W 1057  10.930  13.211  31.270 -0.2608 -0.0854  0.1408
57964W        W 1058  13.055  14.408  31.241  0.1022 -0.1094 -0.1922
57965W        W 1059  14.153  12.982  28.782 -0.2470 -0.2058  0.2637
57966W        W 1060  11.105  11.638  30.024  0.1098  0.2449 -0.3278
57967W        W 1061  11.178  12.368  28.156  0.2015  0.0213 -0.1829
57968W        W 1062  13.086  11.364  30.565 -0.0893 -0.0608  0.1591
57969W        W 1063  12.274  15.628  27.308 -0.0727 -0.2164 -0.0042
57970W        W 1064  14.364  11.237  30.174 -0.0247  0.1473 -0.0419
57971W        W 1065  12.876  13.664  29.368 -0.0916 -0.0563  0.0250
57972W        W 1066  12.390  12.618  29.546  0.0176 -0.1520  0.1433
57973W        W 1067  12.999  10.822  31.209  0.0407  0.0411 -0.2233
57974W        W 1068  12.710  12.275  28.385  0.2077 -0.0108 -0.2535
57975W        W 1069  13.450  13.752  29.230  0.0808 -0.0844  0.2706
57976W        W 1070  11.541  12.703  28.008  0.0691 -0.0230 -0.0531
57977W        W 1071  12.779  11.746  30.263  0.4879  0.0744 -0.0470
57978W        W 1072  11.505  13.144  30.061  0.1329 -0.0284 -0.1199
57979W        W 1073  11.323  14.054  29.838 -0.4189 -0.0372 -0.0808
57980W        W 1074  12.086  13.143  30.655 -0.0476 -0.3506 -0.2743
57981W        W 1075  13.160  12.257  28.168  0.3028 -0.0053  0.0479
57982W        W 1076  13.011  12.856  30.252 -0.3210  0.1380  0.2956
57983W        W 1077  11.965  11.784  27.935  0.1045  0.0194 -0.1865
57984W        W 1078  13.253  14.884  28.467 -0.0415  0.0161 -0.1485
57985W        W 1079  12.641  14.499  26.605  0.1403  0.0944 -0.1312
57986W        W 1080  12.163  10.496  30.081  0.3147  0.3794  0.1745
57987W        W 1081  14.449  14.577  29.520  0.0332 -0.0250  0.1666
57988W        W 1082  13.348  13.646  28.123  0.2032  0.0410  0.0681
57989W        W 1083  11.761  12.785  30.514 -0.0591  0.0360  0.2981
57990W        W 1084  13.169  14.744  26.757 -0.4632 -0.0211  0.3388
57991W        W 1085  13.364  12.686  29.281 -0.0940  0.0692  0.2837
57992W        W 1086  10.361  14.765  29.984 -0.1178  0.0150 -0.0809
57993W        W 1087  13.027  12.904  27.634  0.2026  0.0126  0.1715
57994W        W 1088  10.683  12.907  27.268 -0.0480 -0.0512  0.2463
57995W        W 1089  13.876  10.913  29.050  0.1391  0.1556  0.1985
57996W        W 1090  15.136  12.237  27.455 -0.0600 -0.1375 -0.1485
57997W        W 1091  12.092  11.552  31.048  0.1807 -0.0972  0.1497
57998W        W 1092  11.872  11.089  29.302  0.0736 -0.4521 -0.0428
57999W        W 1093  11.494  14.756  28.046  0.1074 -0.0292 -0.0925
58000W        W 1094  13.126  13.338  29.688  0.1578 -0.0192  0.1835
58001W        W 1095  13.767  12.215  26.964  0.2103 -0.3852 -0.0156
58002W        W 1096  13.930  15.001  29.036  0.2132 -0.1490 -0.0575
58003W        W 1097  13.544  13.248  30.509  0.3016 -0.0543  0.1012
58004W        W 1098  11.124  11.567  28.102  0.0395  0.1020  0.0458
58005W        W 1099  13.553  13.689  29.808  0.1966 -0.1815 -0.1470
58006W        W 1100  11.927  12.057  29.306 -0.2089 -0.0065  0.1854
58007W        W 1101  11.768  14.008  28.178  0.0264  0.1458  0.2148
58008W        W 1102  12.284  14.544  29.582 -0.1111  0.1220  0.0628
58009W        W 1103  11.816  12.222  27.034 -0.1413 -0.4621  0.0473
58010W        W 1104  12.631  14.133  28.652 -0.3034 -0.0467  0.1637
58011W        W 1105  11.065  13.574  29.867  0.0408 -0.0546 -0.0647
58012W        W 1106  14.668  14.940  29.884 -0.0764  0.2807 -0.0075
58013W        W 1107  12.826  13.281  29.082  0.1272  0.3142  0.1471
58014W        W 1108  12.323  12.445  28.681 -0.4245  0.0524  0.2166
58015W        W 1109  12.861  13.337  30.128  0.0894  0.1871  0.1003
58016W        W 1110  13.382  12.227  29.048 -0.0248  0.0573  0.1114
58017W        W 1111  13.548  11.124  29.594  0.0974  0.0160 -0.2581
58018W        W 1112  11.368  12.312  31.221  0.0542 -0.1855 -0.1448
58019W        W 1113  12.932  10.435  29.522 -0.0902 -0.4649  0.0508
58020W        W 1114  14.371  14.953  25.131  0.0642 -0.2922 -0.0464
58021W        W 1115  13.924  11.702  30.973 -0.0117 -0.1728  0.0733
58022W        W 1116  12.086  12.884  28.681  0.1593 -0.1313 -0.1332
58023W        W 1117  10.473  12.807  30.280  0.0732  0.0600 -0.0817
58024W        W 1118  12.527  14.640  27.764  0.1544 -0.3235 -0.0200
58025W        W 1119  11.951  12.949  29.615  0.5164  0.1456 -0.0401
58026W        W 1120  11.598  13.660  29.918 -0.2325 -0.1176 -0.1278
58027W        W 1121  11.362  13.196  27.742 -0.2672 -0.1816 -0.3160
58028W        W 1122  10.689  13.743  30.458  0.2129 -0.1175  0.1846
58029W        W 1123  15.300  11.628  27.553 -0.1824 -0.3397 -0.3029
58030W        W 1124  14.395  13.568  27.393 -0.1631 -0.2552  0.1093
58031W        W 1125  12.502  12.232  29.219 -0.1847 -0.0020 -0.0784
58032W        W 1126  15.407  10.770  31.212  0.1511  0.3146  0.2133
58033W        W 1127  13.335  13.184  27.202 -0.0676  0.1870 -0.0439
58034W        W 1128  12.773  11.582  31.831 -0.4929  0.2785  0.0469
58035W        W 1129  11.436  10.737  29.517  0.2041  0.0600  0.2217
58036W        W 1130  14.681  13.091  28.352 -0.1811 -0.0432  0.0159
58037W        W 1131  10.641  12.267  30.052 -0.2869  0.0870  0.3080
58038W        W 1132  13.338  15.441  31.451 -0.4245  0.4754 -0.0009
58039W        W 1133  11.580  11.585  29.638 -0.1521  0.2775  0.3039
58040W        W 1134  12.999  11.963  28.603 -0.2691 -0.0344 -0.1316
58041W        W 1135  12.839  12.804  28.564  0.3673  0.1445  0.2176
58042W        W 1136  12.187  15.244  27.899  0.0284 -0.1526  0.2836
58043W        W 1137  14.575  14.695  28.508 -0.0539 -0.1299  0.1161
58044W        W 1138  14.038  13.902  29.000 -0.2613  0.2349  0.1995
58045W        W 1139  14.347  13.728  28.374  0.0999  0.3252  0.3150
58046W        W 1140  11.873  13.072  29.133 -0.3698  0.1985 -0.3355
58047W        W 1141  13.995  13.243  27.281  0.3589 -0.3401  0.0084
58048W        W 1142  12.257  14.184  28.310 -0.1057 -0.0582 -0.1101
58049W        W 1143  10.771  13.402  28.483  0.1454  0.1490 -0.1190
58050W        W 1144  11.697  12.248  30.283 -0.1028 -0.0843 -0.2484
58051W        W 1145  14.611  13.776  29.442  0.1982 -0.0091  0.1470
58052W        W 1146  12.420  12.672  28.269  0.0923 -0.3255  0.1566
58053W        W 1147  12.901  12.380  28.919  0.5005  0.3216  0.1571
58054W        W 1148  13.903  11.939  30.537  0.0739  0.1769  0.0478
58055W        W 1149  12.369  11.946  31.399 -0.2782  0.0437  0.1525
58056W        W 1150  10.103  12.140  30.855 -0.2585 -0.1822  0.1340
58057W        W 1151  14.751  14.770  29.160 -0.0849  0.3565  0.1986
58058W        W 1152  14.259  11.697  25.893  0.0387 -0.1248  0.0492
58059W        W 1153  14.355  12.390  30.017  0.1135  0.0684  0.1748
58060W        W 1154  14.766  13.552  27.696 -0.0470  0.1228  0.1997
58061W        W 1155  13.385  13.337  28.530  0.1254  0.1224 -0.0779
58062W        W 1156  12.428  11.506  27.938 -0.1606  0.0260 -0.1063
58063W        W 1157  15.109  13.221  28.049  0.0808  0.1539  0.0719
58064W        W 1158  10.951  12.109  27.658  0.0211  0.0893  0.0608
58065W        W 1159  15.257   9.964  29.900 -0.0427 -0.0472 -0.1710
58066W        W 1160  12.446  15.077  25.877 -0.1612 -0.3041 -0.0629
58067W        W 1161  12.477  13.198  28.648 -0.1596  0.1034  0.2263
58068W        W 1162  12.150  13.626  28.140 -0.0459  0.0098  0.2442
58069W        W 1163  10.770  12.850  29.315  0.3496  0.1673  0.2989
58070W        W 1164  13.007  14.696  30.802 -0.2792 -0.1051 -0.3479
58071W        W 1165  12.245  12.060  27.114 -0.4631 -0.1802  0.1229
58072W        W 1166  12.719  13.778  27.126 -0.0083  0.0310 -0.1533
58073W        W 1167  12.808  13.616  30.514 -0.1701  0.0122  0.0311
58074W        W 1168  14.622  13.162  30.319 -0.0813 -0.3297  0.2462
58075W        W 1169  11.753  12.256  27.969  0.0620 -0.4199  0.1089
58076W        W 1170  15.191  12.829  28.533  0.1496  0.0270  0.2143
58077W        W 1171  10.217  13.226  29.130 -0.0334  0.1055 -0.3658
58078W        W 1172  12.757  12.210  29.948  0.0460 -0.0434 -0.0127
58079W        W 1173  11.724  14.020  30.281 -0.0456  0.1177 -0.1561
58080W        W 1174  11.211  14.436  30.860  0.0440  0.1482 -0.3371
58081W        W 1175  12.134  14.970  28.357 -0.1271  0.0855  0.0713
58082W        W 1176  12.411  11.960  28.686  0.0965 -0.0059 -0.0865
58083W        W 1177  13.852  12.372  28.898  0.1001  0.1414  0.0050
58084W        W 1178  14.192  13.440  29.156  0.1941  0.1058  0.0345
58085W        W 1179  14.768  12.667  30.074 -0.0959  0.2587 -0.3432
58086W        W 1180  12.547  12.965  29.901  0.1347 -0.0195 -0.1740
58087W        W 1181  11.356  13.707  29.400  0.1633  0.0695 -0.2923
58088W        W 1182  13.529  14.227  29.929  0.0446 -0.5470 -0.2266
58089W        W 1183  13.772  13.621  28.357  0.1306  0.1275  0.0821
58090W        W 1184  12.546  14.543  29.104  0.1428 -0.1809  0.0375
58091W        W 1185  11.637  11.530  30.808 -0.1081 -0.0242 -0.1323
58092W        W 1186  14.107  12.448  30.798 -0.0030 -0.1600  0.0385
58093W        W 1187  14.399  15.148  28.931 -0.1817  0.0310  0.0692
58094W        W 1188  12.617  11.539  28.547  0.0631  0.1174 -0.2085
58095W        W 1189  13.209  13.693  26.968 -0.0375 -0.0872 -0.2523
58096W        W 1190  11.127  14.605  29.895 -0.3066 -0.1978 -0.0559
58097W        W 1191  12.156  12.411  30.476 -0.1426 -0.0412  0.1522
58098W        W 1192  12.227  14.815  26.725  0.1812  0.1142  0.2701
58099W        W 1193  12.822  12.911  25.914 -0.4119 -0.0348 -0.1544
58100W        W 1194  14.078  14.010  28.063 -0.0853  0.0168 -0.3341
58101W        W 1195  13.705  15.861  30.328 -0.0242  0.0893  0.0301
58102W        W 1196  12.893  13.410  28.517 -0.0607 -0.2006 -0.2237
58103W        W 1197  11.739  14.208  28.676  0.2731 -0.2017  0.0015
58104W        W 1198  12.887  14.475  28.312  0.0040  0.0545 -0.3138
58105W        W 1199  14.141  13.274  28.357 -0.4340  0.0757 -0.0656
58106W        W 1200  11.811  15.748  27.678 -0.2727  0.1601  0.0445
58107W        W 1201  15.520  13.264  29.696  0.0083  0.1216  0.1070
58108W        W 1202  15.125  10.842  26.169 -0.0421 -0.1919 -0.2977
58109W        W 1203  13.926  12.508  29.545 -0.0423  0.1157 -0.0397
58110W        W 1204  15.629  11.769  28.413 -0.0731  0.2839  0.2663
58111W        W 1205  11.563  13.643  31.572 -0.3612  0.1669 -0.3875
58112W        W 1206  11.250  14.108  28.851  0.0459 -0.1188  0.1316
58113W        W 1207  11.520  12.126  28.559  0.0711 -0.2675  0.0598
58114W        W 1208  11.186  13.835  30.328  0.1265  0.1233  0.0869
58115W        W 1209  14.958  10.925  30.516 -0.0515  0.2508 -0.2030
58116W        W 1210  12.754  14.825  29.763 -0.3624 -0.1054 -0.1534
58117W        W 1211  13.587  13.539  26.276 -0.1270  0.0146  0.0207
58118W        W 1212  11.594  11.568  28.300 -0.1189 -0.0017 -0.3440
58119W        W 1213  12.120  13.501  28.914  0.1143  0.0307  0.0284
58120W        W 1214  14.124  12.034  29.769  0.1309 -0.0905  0.1410
58121W        W 1215  13.531  12.602  26.446  0.2317  0.2563 -0.4935
58122W        W 1216  14.667  12.921  28.832  0.1567  0.3205  0.1559
58123W        W 1217  13.097  15.369  27.477 -0.1328  0.0659  0.2565
58124W        W 1218  11.612  14.818  28.617 -0.1740  0.0767 -0.1632
58125W        W 1219  12.868  14.111  29.201 -0.4186  0.2322 -0.2772
58126W        W 1220  13.355  11.699  28.959  0.0880 -0.0022  0.0464
58127W        W 1221  15.260  13.506  27.492  0.0379 -0.2396  0.3132
58128W        W 1222  11.717  11.649  29.191 -0.4372  0.1008 -0.0511
58129W        W 1223  14.363  11.947  31.012 -0.0430  0.0662  0.4242
58130W        W 1224  11.181  12.443  29.160 -0.1784  0.3099  0.3638
58131W        W 1225  14.147  12.792  28.161 -0.3294 -0.0644  0.0487
58132W        W 1226  12.113  12.918  30.132  0.2553  0.3313 -0.2098
58133W        W 1227  11.261  12.135  30.070 -0.1182  0.0145  0.3343
58134W        W 1228  13.231  11.422  26.714 -0.0888 -0.1483  0.1326
58135W        W 1229  15.686  14.062  27.760 -0.1870  0.3533  0.2490
58136W        W 1230  14.002  11.780  26.571 -0.1120 -0.0526  0.3074
58137W        W 1231  13.209  15.108  31.044 -0.1348  0.3369 -0.0271
58138W        W 1232  12.065  10.172  29.262 -0.0542  0.2054 -0.1318
58139W        W 1233  12.460  12.571  27.298  0.0464 -0.3684 -0.0795
58140W        W 1234   9.619  12.683  28.083 -0.3527 -0.2700  0.2220
58141W        W 1235  12.940  12.759  30.739  0.0478 -0.1434 -0.3515
58142W        W 1236  11.994  13.338  29.935  0.0642  0.1670  0.3102
58143W        W 1237  12.147  11.480  28.457 -0.0472  0.2241 -0.1844
58144W        W 1238  14.114  13.943  27.602 -0.1227  0.1267 -0.0391
58145W        W 1239  14.749  12.412  28.743 -0.0748 -0.0602 -0.0116
58146W        W 1240  11.970  14.367  26.490  0.0060 -0.1608 -0.3188
58147W        W 1241  14.359  13.171  26.878 -0.0987 -0.0352 -0.3739
58148W        W 1242  13.221  14.591  27.333 -0.4418 -0.4355  0.2310
58149W        W 1243  11.174  12.868  29.620 -0.2454  0.3822 -0.1005
58150W        W 1244  13.263  15.809  28.783 -0.0242 -0.2175  0.0834
58151W        W 1245  15.436  15.329  28.544  0.2597  0.1288 -0.1299
58152W        W 1246  14.296  10.999  28.495 -0.3632 -0.1824  0.2890
58153W        W 1247  11.320  12.143  30.772 -0.0408 -0.2621 -0.3885
58154W        W 1248  10.388  13.554  29.577  0.0639  0.3510 -0.2611
58155W        W 1249  14.269  11.628  29.212  0.1489 -0.1194  0.1602
58156W        W 1250  14.917  13.603  29.016 -0.2931  0.0788  0.0574
58157W        W 1251  12.893  14.298  26.970  0.1714 -0.1858 -0.0938
58158W        W 1252  14.808  10.972  31.030  0.2601  0.0499  0.0923
58159W        W 1253  14.107  15.458  29.215  0.2410  0.1211  0.1269
58160W        W 1254  12.009  13.462  31.667 -0.2603  0.0969  0.3698
58161W        W 1255  11.749  14.938  26.456  0.1404 -0.0487  0.2749
58162W        W 1256  13.383  14.384  31.608 -0.1145 -0.3847 -0.3292
58163W        W 1257  13.639  14.118  28.226  0.0311 -0.2064 -0.1255
58164W        W 1258  13.061  13.712  28.894  0.0637 -0.0428 -0.1954
58165W        W 1259  13.657  13.792  27.789 -0.0874 -0.2552 -0.1108
58166W        W 1260  12.457  13.150  29.418  0.0633 -0.2591 -0.1578
58167W        W 1261  14.443  14.172  27.418  0.1262 -0.1365  0.0715
58168W        W 1262  11.904  10.841  29.852  0.1678 -0.2823 -0.3750
58169W        W 1263  13.339  11.704  27.912  0.2265 -0.2178  0.0031
58170W        W 1264  13.470  12.331  29.625 -0.0183  0.1830  0.1543
58171W        W 1265  11.201  13.922  31.141 -0.1016  0.1115 -0.1179
58172W        W 1266  11.185  12.666  28.643  0.2354 -0.0311  0.2185
58173W        W 1267  12.451  15.242  26.804  0.2631 -0.5112 -0.0109
58174W        W 1268  11.256  13.018  30.603  0.0009  0.1942  0.2741
58175W        W 1269  12.659  11.844  29.516  0.1973  0.1363  0.0685
58176W        W 1270  11.153  11.560  30.543 -0.2187  0.1743  0.1253
58177W        W 1271  10.580  12.363  27.697 -0.2661 -0.1106  0.2317
58178W        W 1272  12.266  12.222  28.068  0.0158 -0.0984  0.0249
58179W        W 1273  14.668  14.048  25.114  0.1054 -0.2826  0.0352
58180W        W 1274  12.513  10.493  29.778 -0.0951 -0.1102 -0.0369
58181W        W 1275  10.046  12.538  27.684 -0.0501 -0.1042  0.1051
58182W        W 1276  13.703  13.347  29.472 -0.1540 -0.1932 -0.0805
58183W        W 1277  14.990  13.018  26.181  0.1674  0.2039  0.1224
58184W        W 1278  11.533  13.273  29.472  0.0165  0.1320 -0.2400
58185W        W 1279  13.559  14.074  30.415 -0.0540  0.0129  0.0497
58186W        W 1280  10.933  13.772  27.171  0.1684 -0.5012 -0.1097
58187W        W 1281  13.574  11.280   0.329  0.0840 -0.0104 -0.3207
58188W        W 1282  13.951  11.623  31.864  0.0871  0.0534 -0.0639
58189W        W 1283  10.424  12.294  26.560 -0.0939 -0.0264 -0.0833
58190W        W 1284  13.181  14.187  29.590 -0.0405  0.1731 -0.1715
58191W        W 1285  13.541  12.929  27.568  0.0271  0.0589  0.0443
58192W        W 1286  13.864  14.408  26.742  0.1497  0.2937 -0.4293
58193W        W 1287  12.518  13.735  29.047  0.0824 -0.0089 -0.1521
58194W        W 1288  11.744  13.791  29.061  0.0812 -0.2234  0.0189
58195W        W 1289  10.623  11.726  30.149 -0.1456  0.1202 -0.4067
58196W        W 1290  14.521  13.896  28.842 -0.0819  0.2019 -0.1017
58197W        W 1291  13.058  14.049  30.413 -0.1323 -0.3209 -0.0300
58198W        W 1292  15.389  12.569  27.190 -0.0641 -0.0314  0.2650
58199W        W 1293  14.407  12.103  29.384  0.1253 -0.1706 -0.0550
58200W        W 1294  13.610  13.179  28.081  0.1264  0.1267 -0.0165
58201W        W 1295  11.753  10.225  30.184  0.0521 -0.2374  0.0668
58202W        W 1296  10.848  14.512  31.298  0.0486  0.1089  0.2827
58203W        W 1297  14.990  15.126  28.706 -0.4582  0.1188 -0.1593
58204W        W 1298  11.474   9.989  29.413 -0.3780  0.0303  0.0198
58205W        W 1299  14.299  12.522  28.528  0.1039  0.4038  0.1103
58206W        W 1300  12.360  13.339  27.783 -0.0220 -0.0992 -0.1521
58207W        W 1301  10.754  14.573  30.815 -0.2855 -0.1153  0.3897
58208W        W 1302  13.908  12.082  29.264  0.2832  0.4342  0.1375
58209W        W 1303  10.919  13.366  30.782 -0.0847  0.3130  0.2331
58210W        W 1304  12.383  13.720  28.537  0.1081 -0.4594 -0.1458
58211W        W 1305  12.870  13.176   0.037  0.0409  0.3643  0.1316
58212W        W 1306  12.451  13.356  27.285 -0.0353 -0.0580  0.1800
58213W        W 1307  14.652  13.088  27.819  0.3384  0.2149  0.3859
58214W        W 1308  14.145  15.557  28.698 -0.0876  0.0099 -0.0191
58215W        W 1309  14.144  13.026  29.574  0.2842 -0.1609  0.1570
58216W        W 1310  13.695  15.415  28.837 -0.0292 -0.1201 -0.0545
58217W        W 1311  14.881  14.371  28.767 -0.2078  0.0474  0.2012
58218W        W 1312  11.550  12.702  29.359 -0.0547  0.0764 -0.0132
58219W        W 1313  12.935  12.684  28.084  0.0769  0.1662 -0.0181
58220W        W 1314  12.099  13.117  28.258 -0.0191 -0.2789  0.2701
58221W        W 1315  13.084  12.719  29.766  0.0698  0.0371  0.1530
58222W        W 1316   9.794  13.072  29.314 -0.3032  0.1102 -0.0839
58223W        W 1317  13.274  12.035  27.151  0.0673 -0.1636 -0.3366
58224W        W 1318  12.771  14.979  28.187  0.2806 -0.0599  0.0280
58225W        W 1319  15.041  14.581  29.740 -0.0335  0.0480  0.1238
58226W        W 1320  14.440  13.387  29.716  0.0273  0.1110  0.0602
58227W        W 1321  14.319  13.954  29.863 -0.0929  0.0283  0.0186
58228W        W 1322  12.673  11.692  30.756 -0.0055  0.4864 -0.1372
58229W        W 1323  10.066  11.699  31.218  0.0074 -0.0095  0.0576
58230W        W 1324  14.141  15.283   0.518  0.1496 -0.0741 -0.0669
58231W        W 1325  12.166  14.236  30.508  0.0975  0.0273 -0.1788
58232W        W 1326  13.964  11.054  30.383  0.1744 -0.1090 -0.0725
58233W        W 1327  12.868  11.731  31.269 -0.1703  0.1253 -0.0413
58234W        W 1328  14.261  11.284  31.651  0.0979 -0.0247  0.0105
58235W        W 1329  13.361  14.965  30.460  0.0368 -0.0372 -0.1799
58236W        W 1330  13.309  13.492  31.267 -0.0490  0.3716 -0.3056
58237W        W 1331  11.517  10.411  29.140  0.1448 -0.0343 -0.1089
58238W        W 1332  13.863  13.250  29.963  0.0900  0.2712 -0.0630
58239W        W 1333  13.153  11.673   0.205  0.2484 -0.0827  0.0502
58240W        W 1334  14.058  14.322  31.308  0.1183  0.1577 -0.0861
58241W        W 1335  11.516  15.368   0.011 -0.2878  0.0046  0.1558
58242W        W 1336  11.890  11.875  31.551 -0.1991  0.2654 -0.0496
58243W        W 1337  11.249  15.742  31.688 -0.0685  0.0852  0.2269
58244W        W 1338  10.421  11.511  31.518 -0.2162 -0.0010  0.0195
58245W        W 1339  12.892  12.791   0.490 -0.0080  0.3290  0.2138
58246W        W 1340  12.171  10.300  31.723 -0.4407 -0.2816 -0.0612
58247W        W 1341  11.205  14.962  30.676 -0.1317 -0.2148 -0.0330
58248W        W 1342  14.307  12.936  30.045  0.1016  0.1116 -0.0665
58249W        W 1343  14.528  10.329  31.576 -0.0281 -0.0608 -0.1748
58250W        W 1344  12.315  12.224  30.921 -0.1788  0.0468  0.3267
58251W        W 1345  12.708  11.242  30.940 -0.1240  0.1145  0.1158
58252W        W 1346  13.325  13.635  30.225 -0.0654 -0.1193 -0.1041
58253W        W 1347  11.857  16.441  29.727 -0.0255  0.2484  0.0971
58254W        W 1348  11.635  14.321  31.214  0.2876  0.3183  0.4075
58255W        W 1349  11.225  12.809  31.056 -0.1185  0.0236 -0.0025
58256W        W 1350  12.383  13.456  30.284  0.0692  0.0441  0.1441
58257W        W 1351  13.506  12.776  30.373 -0.1118 -0.0969 -0.2043
58258W        W 1352  11.844  14.976   0.292 -0.0631 -0.0447  0.1814
58259W        W 1353  14.003  11.279  29.650 -0.0144  0.1054  0.1611
58260W        W 1354  11.572  11.612  30.232 -0.1851 -0.2357 -0.1365
58261W        W 1355  11.727  12.426  30.869  0.1320  0.0708  0.3578
58262W        W 1356  11.997  14.084  30.962  0.2014 -0.1609  0.1654
58263W        W 1357  12.637  14.591  31.665 -0.1574  0.3015  0.1336
58264W        W 1358  13.584  12.857  29.732 -0.3077 -0.1312  0.0371
58265W        W 1359  13.754  13.441  30.994  0.1999  0.0575 -0.1172
58266W        W 1360  15.212  11.955  29.930 -0.0635 -0.0041  0.1403
58267W        W 1361  11.824   9.986   0.007 -0.0024 -0.0013  0.0777
58268W        W 1362  12.218  11.695   0.170 -0.0897 -0.0578 -0.0835
58269W        W 1363  13.362  13.740  30.779  0.0670  0.4259 -0.0026
58270W        W 1364  12.670  12.632  31.110 -0.2687 -0.0699  0.2366
58271W        W 1365  11.883  13.511  31.141  0.1437  0.0133  0.1393
58272W        W 1366  12.600  10.364   1.174 -0.2284  0.2276  0.0108
58273W        W 1367  11.913  13.866  31.945  0.2970 -0.0108  0.0315
58274W        W 1368  13.001  13.091  31.167 -0.0018 -0.3404 -0.2528
58275W        W 1369  10.761  12.925  30.688 -0.1818  0.1261 -0.4604
58276W        W 1370  13.590  14.516  31.150 -0.0356 -0.1147 -0.0485
58277W        W 1371  14.372  10.701  31.099  0.1684  0.1818  0.3524
58278W        W 1372  12.660  10.728  30.896 -0.2511 -0.3432  0.0879
58279W        W 1373  13.423  12.096  31.101  0.2546 -0.0144  0.2597
58280W        W 1374  13.745  11.881  31.440  0.1274  0.1373 -0.0505
58281W        W 1375  11.919  11.921  30.621 -0.0321 -0.3411  0.2702
58282W        W 1376  14.172  14.109  30.660  0.1951 -0.1099  0.0383
58283W        W 1377  12.490  14.815  30.605  0.1893  0.1813 -0.1720
58284W        W 1378  11.639  14.516   0.176 -0.0784  0.0786  0.2731
58285W        W 1379  12.899  11.895   0.612  0.1372 -0.2608  0.0393
58286W        W 1380  12.394  13.231  31.290 -0.0894  0.0045  0.2594
58287W        W 1381  12.379  11.996  30.390 -0.2554  0.0677  0.1395
58288W        W 1382  10.613  13.439   0.092  0.0672 -0.0873  0.0355
58289W        W 1383  11.850  11.297  29.978 -0.1146 -0.1506  0.1559
58290W        W 1384  14.218  15.702  30.168 -0.0900  0.0288 -0.1288
58291W        W 1385  15.233  11.878   0.735  0.2078 -0.2443  0.1786
58292W        W 1386  14.699  13.052  31.843 -0.0782  0.3929 -0.0618
58293W        W 1387  11.459  16.176  18.687 -0.0108  0.2521 -0.1405
58294W        W 1388  11.596  17.026  17.856  0.2658  0.0325  0.2359
58295W        W 1389  13.575  15.876  15.053 -0.0200  0.1474  0.1236
58296W        W 1390  14.753  16.456  16.297 -0.3888 -0.0800  0.2646
58297W        W 1391  11.335  15.816  15.542  0.4252  0.0282  0.3640
58298W        W 1392  11.648  18.135  16.657 -0.1024 -0.1061 -0.2673
58299W        W 1393  11.797  14.333  18.480  0.1692  0.1492 -0.0792
58300W        W 1394  12.273  18.189  18.407  0.0773  0.0153 -0.1945
58301W        W 1395  13.535  17.150  18.430  0.0568  0.0725 -0.1406
58302W        W 1396  12.600  16.907  15.390 -0.0464  0.0509  0.0034
58303W        W 1397  11.797  15.981  17.133  0.2262  0.0973  0.0179
58304W        W 1398  11.804  18.122  18.059  0.3054  0.0605 -0.2800
58305W        W 1399  12.449  15.724  16.023 -0.1231 -0.3182  0.1837
58306W        W 1400  10.509  14.898  17.049 -0.1750 -0.1682  0.1237
58307W        W 1401  12.292  14.998  16.895  0.2112  0.2727 -0.1369
58308W        W 1402  11.297  15.774  16.059  0.2406 -0.1188  0.0810
58309W        W 1403  10.509  15.709  18.751 -0.2171 -0.1770  0.2150
58310W        W 1404  12.342  14.777  16.397  0.2031  0.1378  0.1079
58311W        W 1405  12.582  17.015  17.801  0.4795 -0.1025 -0.2989
58312W        W 1406  11.042  14.982  16.925  0.2028 -0.1368  0.2689
58313W        W 1407  12.008  14.347  19.749  0.3036  0.3024 -0.1760
58314W        W 1408  13.334  17.956  15.280  0.1478  0.3134  0.2538
58315W        W 1409   9.772  15.394  16.586 -0.0523 -0.2795 -0.2551
58316W        W 1410   9.495  17.194  18.132 -0.2243  0.3432 -0.2426
58317W        W 1411  12.199  15.953  18.376  0.0897 -0.1259  0.1372
58318W        W 1412  12.880  14.639  15.210  0.0317 -0.2262  0.1721
58319W        W 1413  14.297  14.886  15.848  0.1283 -0.1723  0.0745
58320W        W 1414  11.594  16.976  17.268  0.0819  0.2807  0.0726
58321W        W 1415  12.052  18.275  16.488 -0.0258 -0.1284 -0.1443
58322W        W 1416  13.158  15.607  17.645  0.1368 -0.0838  0.0656
58323W        W 1417   9.802  16.364  18.563 -0.0252 -0.1690  0.2018
58324W        W 1418  10.410  18.541  16.106  0.1262 -0.1758 -0.0712
58325W        W 1419  11.187  17.791  16.792  0.2244 -0.0307 -0.1206
58326W        W 1420  12.519  16.971  16.737  0.0799  0.0673  0.0282
58327W        W 1421  11.542  16.530  19.045 -0.0050  0.3066  0.3331
58328W        W 1422  12.178  17.697  18.379 -0.0663 -0.1039  0.0515
58329W        W 1423  11.051  17.246  15.938  0.1161  0.0068 -0.0476
58330W        W 1424  11.925  18.571  18.191  0.2520 -0.3504 -0.1681
58331W        W 1425  12.032  16.191  18.786 -0.3013 -0.0762 -0.0006
58332W        W 1426  11.904  15.071  18.032 -0.0628 -0.0925 -0.2542
58333W        W 1427  11.984  17.251  16.996  0.0912 -0.1347 -0.0320
58334W        W 1428  12.110  18.176  15.415  0.0903  0.2062  0.2193
58335W        W 1429  12.803  16.178  16.414 -0.0452 -0.1100  0.3629
58336W        W 1430  11.712  16.006  19.124 -0.0101 -0.1733  0.0033
58337W        W 1431  10.990  18.617  17.747 -0.0090 -0.4442 -0.0875
58338W        W 1432  13.507  14.447  19.438  0.1433  0.0129 -0.2517
58339W        W 1433  10.685  17.362  15.557  0.3468  0.1661  0.0148
58340W        W 1434  12.521  16.454  14.622 -0.2903  0.0166  0.1589
58341W        W 1435  11.915  15.172  16.598 -0.0498  0.2390 -0.0563
58342W        W 1436  13.221  16.974  15.274 -0.2339 -0.0047  0.2794
58343W        W 1437  12.222  13.907  16.227  0.0817  0.2064  0.0274
58344W        W 1438  10.918  19.292  17.104 -0.0523 -0.3130 -0.0211
58345W        W 1439  10.909  15.290  18.091 -0.0049  0.1124 -0.2595
58346W        W 1440  12.662  15.897  17.668 -0.1797 -0.0195 -0.0646
58347W        W 1441  12.836  16.486  15.916  0.1861 -0.1947  0.4425
58348W        W 1442  12.808  14.988  16.573 -0.0500 -0.0087  0.0807
58349W        W 1443  11.841  17.531  17.855 -0.0116 -0.2984  0.0092
58350W        W 1444  10.995  16.295  17.133 -0.1221  0.0461 -0.1450
58351W        W 1445  12.498  18.486  16.212  0.0658  0.1232  0.2047
58352W        W 1446  13.030  17.063  16.650  0.2732 -0.3523 -0.0592
58353W        W 1447  12.132  19.240  16.135 -0.0338  0.1553  0.2639
58354W        W 1448  11.039  14.790  16.394  0.1304  0.0345  0.1948
58355W        W 1449  10.584  16.695  18.563 -0.1496 -0.1182 -0.4464
58356W        W 1450  10.410  16.565  19.484  0.2719 -0.1982  0.1559
58357W        W 1451  11.915  16.886  16.008  0.3407  0.1319 -0.0456
58358W        W 1452  13.195  18.002  18.486  0.1150 -0.0743 -0.0136
58359W        W 1453  11.379  16.740  19.804  0.1328  0.2848 -0.3303
58360W        W 1454  13.904  15.931  16.258  0.2156 -0.0137  0.0499
58361W        W 1455  11.867  18.011  17.592  0.2459 -0.0261  0.0007
58362W        W 1456  13.136  19.294  17.186  0.2489 -0.2953  0.0637
58363W        W 1457  13.733  17.108  15.396 -0.3145 -0.0290  0.0718
58364W        W 1458  13.393  12.974  16.550  0.2151 -0.1493  0.0031
58365W        W 1459  13.060  15.918  15.420 -0.1471  0.2373  0.0992
58366W        W 1460  12.199  15.816  15.505 -0.0758 -0.2923 -0.1113
58367W        W 1461  11.687  15.002  16.986  0.0172 -0.0646 -0.1957
58368W        W 1462  13.007  17.299  17.679  0.0630 -0.1467  0.1638
58369W        W 1463  13.946  16.680  15.647 -0.2756  0.2144  0.0536
58370W        W 1464  10.853  17.574  18.350 -0.2603 -0.1167  0.1488
58371W        W 1465  11.815  15.069  17.447  0.1026  0.0554  0.0837
58372W        W 1466  11.328  18.335  18.025 -0.0743 -0.0867  0.1336
58373W        W 1467  11.400  16.787  16.004 -0.0112  0.2455 -0.0726
58374W        W 1468   9.645  16.954  17.330 -0.0226  0.0888  0.0198
58375W        W 1469  10.219  16.635  15.837 -0.2164  0.0347 -0.1119
58376W        W 1470  10.863  14.350  18.147  0.0458 -0.2571  0.0047
58377W        W 1471  10.870  16.750  17.625  0.2361  0.0492 -0.0421
58378W        W 1472  14.099  15.471  15.676  0.0682  0.1702 -0.2951
58379W        W 1473  11.351  14.177  18.192  0.1019 -0.0081 -0.1174
58380W        W 1474  13.103  14.808  15.713  0.2941  0.0354  0.2889
58381W        W 1475  10.871  16.584  16.108 -0.3511  0.0119  0.1562
58382W        W 1476  13.560  19.085  16.549 -0.0995 -0.3068 -0.0506
58383W        W 1477  13.850  16.204  15.385 -0.0397 -0.0000 -0.2644
58384W        W 1478  12.091  16.985  15.477 -0.3648  0.2550  0.1699
58385W        W 1479  10.671  15.779  18.265  0.0962 -0.0593  0.1647
58386W        W 1480  11.003  14.532  18.628 -0.0590  0.1514 -0.0873
58387W        W 1481  10.381  14.673  17.497 -0.2361  0.3383  0.0020
58388W        W 1482  11.253  15.308  17.298  0.0901  0.1085  0.2996
58389W        W 1483  12.963  17.446  17.093 -0.0251 -0.3157  0.0858
58390W        W 1484  11.994  14.961  15.397 -0.0951 -0.0143  0.1834
58391W        W 1485  12.445  15.656  16.631 -0.3251 -0.0078  0.1682
58392W        W 1486  12.894  15.973  16.872  0.1296 -0.1100 -0.1388
58393W        W 1487  11.204  17.304  17.094  0.0800  0.1708  0.1665
58394W        W 1488  13.317  13.419  16.880  0.1271  0.2470  0.2213
58395W        W 1489  13.605  19.240  18.075 -0.0201  0.1905  0.3115
58396W        W 1490  12.182  18.034  18.900  0.1378 -0.1327  0.1568
58397W        W 1491  13.047  16.681  17.727 -0.2697 -0.0245  0.0206
58398W        W 1492  12.763  13.893  17.893  0.0525  0.0087  0.1226
58399W        W 1493  11.491  14.678  15.489  0.0053 -0.0384  0.2003
58400W        W 1494  10.682  17.925  17.027  0.3605 -0.1260  0.0324
58401W        W 1495  11.323  17.680  17.865  0.2989 -0.0264 -0.0829
58402W        W 1496  13.907  16.871  16.103 -0.2475  0.3382  0.0658
58403W        W 1497  13.954  16.393  16.806  0.2919 -0.1066  0.0907
58404W        W 1498  12.420  16.384  16.742 -0.0543  0.2234 -0.1924
58405W        W 1499  10.198  16.648  18.224  0.0215 -0.0821 -0.0090
58406W        W 1500  13.133  12.674  18.029 -0.0705  0.0483  0.0006
58407W        W 1501  14.151  16.100  18.150  0.3870 -0.0373  0.1253
58408W        W 1502  12.859  15.653  16.365 -0.3914 -0.3988 -0.0976
58409W        W 1503   9.989  15.383  17.073  0.0688  0.5055 -0.0204
58410W        W 1504  11.530  17.536  15.796 -0.1023 -0.0877 -0.0017
58411W        W 1505  11.094  17.734  15.694 -0.1249 -0.0659 -0.1409
58412W        W 1506  10.408  15.088  17.825 -0.0247 -0.2065  0.0513
58413W        W 1507  11.051  17.323  16.617  0.3452 -0.2222  0.1676
58414W        W 1508  13.002  15.423  16.798 -0.1291  0.0786 -0.1787
58415W        W 1509   9.394  17.712  18.793  0.1283  0.2712  0.2832
58416W        W 1510  13.390  14.971  17.328 -0.1114 -0.1563 -0.2601
58417W        W 1511  10.632  15.792  15.684  0.0842 -0.0465  0.0106
58418W        W 1512  11.197  18.076  18.859 -0.0140 -0.1458  0.3494
58419W        W 1513  13.436  16.458  15.192  0.0419  0.0243  0.0784
58420W        W 1514  14.724  14.744  15.600 -0.3474  0.2576 -0.2889
58421W        W 1515  11.311  16.099  18.020 -0.0721  0.4715  0.1259
58422W        W 1516  14.348  16.626  16.620  0.0600  0.1228  0.0598
58423W        W 1517  13.889  16.286  15.937  0.1397  0.1632  0.1456
58424W        W 1518  11.889  14.303  16.314  0.0974  0.2364  0.3554
58425W        W 1519  11.405  16.486  18.285  0.1844  0.0221 -0.1853
58426W        W 1520  12.122  17.616  17.385  0.0425 -0.2662  0.1808
58427W        W 1521  12.594  16.234  19.236 -0.2240  0.1583  0.2131
58428W        W 1522  11.799  16.358  16.104 -0.0547  0.0990  0.0709
58429W        W 1523  14.107  18.501  16.491  0.1120  0.0106  0.1092
58430W        W 1524   9.457  16.976  18.644  0.2588  0.0070 -0.0764
58431W        W 1525  12.970  17.169  19.181  0.3194 -0.1086  0.1962
58432W        W 1526  12.727  17.552  16.626  0.0064  0.0000 -0.1963
58433W        W 1527  11.441  15.113  16.592 -0.1222 -0.1560  0.0270
58434W        W 1528  10.513  15.846  14.872 -0.0281 -0.1116  0.5433
58435W        W 1529  13.028  14.455  17.182 -0.0188 -0.1168  0.0596
58436W        W 1530   9.884  19.714  16.362 -0.0161  0.1061  0.2467
58437W        W 1531  13.082  15.250  16.177  0.2132  0.0303 -0.1529
58438W        W 1532  12.026  14.721  17.184 -0.0712  0.0702 -0.1408
58439W        W 1533  12.435  13.338  17.283  0.0077  0.1784 -0.0410
58440W        W 1534  13.484  16.420  17.577 -0.1177  0.0926 -0.1925
58441W        W 1535  14.563  15.504  14.984  0.1340 -0.0867 -0.1082
58442W        W 1536  12.136  15.857  17.474 -0.2028 -0.1683  0.0064
58443W        W 1537  10.693  16.388  15.664 -0.4204  0.1122  0.2088
58444W        W 1538  12.891  13.480  17.079  0.0228 -0.2497 -0.0807
58445W        W 1539  11.462  14.926  18.905  0.1033 -0.4411  0.0175
58446W        W 1540  11.005  17.791  19.622  0.0443 -0.2748 -0.2326
58447W        W 1541  13.054  16.128  17.865  0.0263  0.2399  0.0728
58448W        W 1542  14.611  14.492  16.030  0.2294 -0.1615 -0.0609
58449W        W 1543  12.561  14.538  16.944 -0.1690  0.2506  0.0941
58450W        W 1544  11.732  14.209  15.417 -0.1057 -0.1781 -0.2596
58451W        W 1545  10.709  18.037  18.366  0.1682  0.1403  0.2724
58452W        W 1546  12.091  16.372  17.196  0.1660 -0.0280  0.1036
58453W        W 1547  12.314  14.867  15.894  0.2081  0.1692  0.3306
58454W        W 1548  11.252  17.515  18.623 -0.1271 -0.0771 -0.1841
58455W        W 1549  11.915  17.542  15.340 -0.1034 -0.0897  0.1020
58456W        W 1550  12.079  17.163  18.453  0.2713 -0.0135  0.3335
58457W        W 1551  10.742  17.445  16.975  0.0817  0.0909 -0.0686
58458W        W 1552  12.274  13.472  17.704 -0.2372  0.0054 -0.2798
58459W        W 1553  10.762  17.325  17.860 -0.0460  0.2151 -0.2785
58460W        W 1554  10.837  16.058  16.028  0.2114 -0.1046 -0.2971
58461W        W 1555  10.550  16.241  16.893 -0.0534  0.0578  0.1222
58462W        W 1556  12.497  14.912  15.361  0.2546  0.2050  0.0387
58463W        W 1557  13.591  17.194  15.855  0.4211 -0.1807  0.1303
58464W        W 1558  11.009  15.566  16.919  0.0623  0.3267  0.0712
58465W        W 1559  12.999  12.524  17.073  0.3048 -0.2673 -0.0786
58466W        W 1560  10.818  18.601  20.143 -0.0006 -0.0139  0.1255
58467W        W 1561  11.478  15.112  17.807 -0.0300 -0.3370 -0.1192
58468W        W 1562  13.454  14.121  15.819 -0.1503  0.0091 -0.0329
58469W        W 1563  14.469  16.142  16.759  0.1172 -0.0058 -0.1000
58470W        W 1564  11.181  15.255  19.166  0.0906  0.2003 -0.0967
58471W        W 1565   9.943  15.826  17.760  0.1879  0.0597  0.1597
58472W        W 1566  13.666  15.392  17.447 -0.0514 -0.0295  0.1119
58473W        W 1567  10.854  16.023  16.531  0.1906  0.2173 -0.0826
58474W        W 1568  11.626  17.552  16.741 -0.1464  0.4194 -0.0077
58475W        W 1569  12.235  17.349  18.002  0.0412  0.0270  0.0774
58476W        W 1570  11.780  15.824  15.887  0.0295  0.0856  0.2432
58477W        W 1571  11.554  18.098  15.671  0.1810  0.0864 -0.0931
58478W        W 1572  12.219  15.500  19.301  0.1644  0.2278 -0.0517
58479W        W 1573  13.064  17.259  18.643 -0.0725  0.1455 -0.3492
58480W        W 1574  12.068  14.170  17.180 -0.0518 -0.2850  0.1285
58481W        W 1575  12.036  15.667  16.223 -0.1110  0.1715  0.0066
58482W        W 1576  11.681  15.641  17.513 -0.1020  0.1003 -0.0840
58483W        W 1577  12.236  16.495  18.370  0.0261  0.0359 -0.3856
58484W        W 1578  13.246  14.917  16.818 -0.0565  0.0656 -0.2038
58485W        W 1579  11.641  17.353  18.854  0.1249  0.0547 -0.1535
58486W        W 1580  12.688  13.963  16.309  0.0119  0.0198 -0.0796
58487W        W 1581  13.225  19.639  16.260  0.2901  0.0195 -0.0759
58488W        W 1582  12.458  14.380  17.501  0.0243  0.2672 -0.0945
58489W        W 1583  11.744  16.001  16.399  0.2286  0.2746  0.1988
58490W        W 1584   8.453  16.513  19.580  0.2639 -0.3520 -0.2375
58491W        W 1585  10.426  16.114  17.793 -0.1656  0.0947 -0.1394
58492W        W 1586  11.415  14.799  17.329 -0.1523  0.0354  0.0886
58493W        W 1587  11.892  16.799  18.178 -0.2781 -0.1823 -0.0911
58494W        W 1588  11.483  17.251  16.275 -0.3076 -0.0129  0.1933
58495W        W 1589  11.672  16.174  17.666 -0.3072  0.3266  0.2568
58496W        W 1590  11.928  14.989  16.164  0.0453  0.0054 -0.0102
58497W        W 1591  11.960  17.834  15.727  0.1641  0.4667  0.2988
58498W        W 1592  11.905  14.678  16.693 -0.2207 -0.0425 -0.0515
58499W        W 1593  13.576  14.594  17.026 -0.0568 -0.1159  0.0996
58500W        W 1594  13.317  17.269  16.261  0.0970  0.1278  0.0315
58501W        W 1595  13.029  14.733  18.207 -0.1440 -0.1585  0.0750
58502W        W 1596  11.785  14.492  17.574 -0.2390  0.0923 -0.2243
58503W        W 1597  13.166  17.918  16.365  0.0494  0.2046  0.0714
58504W        W 1598  10.362  14.427  17.983  0.0918 -0.2183  0.0098
58505W        W 1599  12.688  15.682  18.548  0.3905 -0.3623  0.1595
58506W        W 1600  11.563  15.433  18.853 -0.0841  0.0026  0.1857
58507W        W 1601  12.930  15.131  15.421  0.2632  0.4074  0.3561
58508W        W 1602  11.774  16.099  15.433  0.3283 -0.2280 -0.0843
58509W        W 1603  11.864  16.302  16.728  0.0493 -0.2681  0.4145
58510W        W 1604  13.394  16.135  16.710 -0.2323 -0.2559  0.5583
58511W        W 1605  12.461  16.833  15.877  0.1468  0.0914  0.1516
58512W        W 1606  13.899  15.045  16.046  0.2040 -0.3850 -0.0826
58513W        W 1607  11.337  14.277  18.986  0.1175  0.2512 -0.0002
58514W        W 1608  12.963  16.177  14.961  0.0432  0.1836  0.1127
58515W        W 1609  13.321  16.207  15.733 -0.1581  0.1596 -0.1126
58516W        W 1610  10.622  17.355  16.282 -0.0369 -0.1639 -0.1072
58517W        W 1611  12.621  13.458  18.975 -0.2339 -0.0831 -0.0737
58518W        W 1612  13.996  15.889  16.768 -0.0402 -0.1567  0.3165
58519W        W 1613  13.303  13.925  17.043  0.0249  0.1302 -0.0947
58520W        W 1614  13.466  14.096  17.554  0.0081  0.0982  0.3079
58521W        W 1615  12.465  15.597  18.039 -0.1809  0.1800  0.0322
58522W        W 1616  11.288  15.602  17.854 -0.0206  0.1792 -0.2205
58523W        W 1617  10.633  14.107  19.584 -0.0346 -0.0606  0.1416
58524W        W 1618  13.319  18.495  17.821  0.0331 -0.1760  0.1797
58525W        W 1619  14.980  15.679  15.498  0.2469 -0.0078 -0.1196
58526W        W 1620  13.284  14.350  16.690 -0.2698 -0.0089 -0.1693
58527W        W 1621  15.332  15.878  15.910 -0.1971  0.0287  0.1019
58528W        W 1622  12.273  15.371  15.208 -0.1072 -0.2736 -0.0085
58529W        W 1623  10.758  15.233  16.610 -0.3163 -0.0445  0.0223
58530W        W 1624  12.183  16.165  17.873  0.2126  0.0592 -0.1413
58531W        W 1625  11.785  15.525  15.409 -0.1427  0.0470  0.1379
58532W        W 1626  12.434  14.968  18.123 -0.0614  0.1215 -0.4364
58533W        W 1627  13.224  17.543  15.808 -0.0629  0.0263  0.1163
58534W        W 1628  12.504  14.997  17.353 -0.2975 -0.2233  0.1021
58535W        W 1629  12.884  16.677  15.027  0.0287  0.2016 -0.1143
58536W        W 1630  11.165  15.795  18.403 -0.0576 -0.0404  0.0061
58537W        W 1631  11.686  16.903  19.414 -0.0146 -0.2375  0.0754
58538W        W 1632   9.955  15.339  15.248  0.1168  0.1773 -0.0464
58539W        W 1633  11.625  17.077  15.617 -0.0520 -0.4623  0.1719
58540W        W 1634  12.667  18.794  17.825 -0.0812 -0.2231  0.0103
58541W        W 1635  13.067  15.737  18.124  0.0648  0.1487 -0.1982
58542W        W 1636  12.275  14.556  14.522 -0.0315  0.0873  0.0584
58543W        W 1637  13.426  14.587  17.627 -0.2269 -0.1427  0.2435
58544W        W 1638  10.317  16.846  16.318  0.0596 -0.2148  0.1232
58545W        W 1639  12.463  13.051  16.223 -0.3989 -0.2280  0.1662
58546W        W 1640  10.890  17.936  17.912 -0.3258  0.1505  0.1138
58547W        W 1641   9.304  17.174  19.222  0.0340 -0.0707 -0.0256
58548W        W 1642  10.846  16.926  16.870 -0.0118 -0.0361 -0.2258
58549W        W 1643  14.021  12.469  18.773 -0.0070  0.2124 -0.1244
58550W        W 1644  13.572  16.411  16.323  0.2433  0.4087 -0.2400
58551W        W 1645  11.099  16.885  16.413 -0.0657 -0.3791 -0.0171
58552W        W 1646  14.922  15.034  18.865 -0.1362  0.3537 -0.2253
58553W        W 1647  13.179  16.741  18.510 -0.2834  0.1148 -0.0534
58554W        W 1648  10.826  17.625  18.862  0.1822  0.2995 -0.1929
58555W        W 1649  12.440  17.106  19.068  0.1349  0.0509  0.0323
58556W        W 1650  14.838  15.967  16.337  0.3030 -0.1499  0.1895
58557W        W 1651  10.808  18.097  16.065 -0.2287  0.1337 -0.0083
58558W        W 1652  11.015  16.202  17.662 -0.0295 -0.0233 -0.2390
58559W        W 1653  11.193  16.158  19.117 -0.0482  0.1235 -0.5122
58560W        W 1654  13.452  15.189  15.577  0.1143 -0.0811  0.1540
58561W        W 1655  10.658  14.105  15.905  0.2536 -0.1857  0.2491
58562W        W 1656  12.820  17.066  16.173 -0.2834  0.4122  0.1165
58563W        W 1657  10.980  17.087  20.049  0.1170  0.2608 -0.0646
58564W        W 1658   9.245  16.504  18.679 -0.0389 -0.0265  0.2276
58565W        W 1659  11.403  18.724  16.434  0.0716 -0.1273 -0.0526
58566W        W 1660  13.595  17.672  16.051 -0.4018  0.2702  0.0836
58567W        W 1661  11.902  17.140  16.462  0.0847  0.0098 -0.4604
58568W        W 1662  11.578  18.358  18.506  0.1987  0.0102 -0.0090
58569W        W 1663  13.147  15.576  15.772 -0.0863  0.1774 -0.0525
58570W        W 1664  11.081  18.308  16.975  0.3548  0.0631 -0.1248
58571W        W 1665  10.286  17.638  16.691  0.1550 -0.1789 -0.0434
58572W        W 1666  11.977  17.335  15.856 -0.1124 -0.1205  0.2149
58573W        W 1667  11.520  18.558  16.956 -0.1117  0.3010 -0.0604
58574W        W 1668  13.104  15.401  18.719 -0.1499 -0.4606  0.0393
58575W        W 1669  14.853  14.267  15.626  0.0146 -0.0392  0.0773
58576W        W 1670  13.249  15.134  17.789  0.0887  0.1119  0.1357
58577W        W 1671  14.742  16.188  15.374  0.0365  0.0579 -0.1044
58578W        W 1672  12.360  16.601  18.869  0.2762  0.0729  0.1876
58579W        W 1673  11.870  16.638  17.665 -0.4203 -0.3550  0.2924
58580W        W 1674  12.340  16.057  16.407 -0.1177 -0.2769  0.2193
58581W        W 1675  12.675  16.293  20.589  0.2683  0.4606 -0.0938
58582W        W 1676  13.304  12.619  17.523  0.1050  0.3220 -0.1650
58583W        W 1677   9.495  18.949  18.392  0.0373 -0.0004  0.0662
58584W        W 1678  12.203  18.725  16.767  0.0850  0.0827 -0.0085
58585W        W 1679  11.090  14.946  15.757 -0.2279  0.2610 -0.0626
58586W        W 1680  10.839  16.501  16.654  0.0442  0.3639 -0.0828
58587W        W 1681  13.704  15.163  15.120  0.0286 -0.1506  0.0478
58588W        W 1682  11.989  16.771  16.856  0.1363 -0.2348 -0.2353
58589W        W 1683  13.010  13.936  15.687 -0.0022 -0.0025  0.2377
58590W        W 1684  10.856  19.108  17.656 -0.3739 -0.0345  0.3523
58591W        W 1685  11.382  18.632  18.907 -0.0035  0.1436  0.1813
58592W        W 1686  12.818  17.603  16.116 -0.0709  0.0926  0.1050
58593W        W 1687  11.031  14.211  16.278 -0.0161 -0.0577 -0.2194
58594W        W 1688  14.886  14.920  16.027  0.3671  0.0271  0.2465
58595W        W 1689  10.930  17.120  18.660 -0.0812  0.3440  0.0999
58596W        W 1690  12.203  15.380  17.637 -0.1536  0.0020 -0.2079
58597W        W 1691  10.714  15.874  17.182  0.1654 -0.0136  0.4961
58598W        W 1692  14.031  15.600  15.127  0.1357  0.0166  0.1602
58599W        W 1693  10.932  16.723  18.116  0.2089  0.3159  0.2290
58600W        W 1694   9.893  15.990  19.962 -0.1525 -0.4004 -0.1165
58601W        W 1695  12.675  16.633  16.388 -0.0845  0.0143 -0.1139
58602W        W 1696  13.384  16.926  17.452  0.1274 -0.0543 -0.2090
58603W        W 1697  13.606  18.550  16.621 -0.1927 -0.0107  0.3959
58604W        W 1698  13.019  17.625  18.944 -0.4310 -0.1424 -0.3332
58605W        W 1699  12.086  15.456  17.094 -0.2380  0.1043  0.0430
58606W        W 1700  14.274  16.145  15.073 -0.1059  0.2541  0.3770
58607W        W 1701  10.781  16.917  15.305  0.3425  0.1938  0.0746
58608W        W 1702  10.681  16.392  19.080  0.1090 -0.1059  0.0300
58609W        W 1703  13.498  15.744  18.555 -0.2305  0.2278  0.1081
58610W        W 1704  10.959  13.707  16.122 -0.1910 -0.1234  0.0448
58611W        W 1705  12.545  17.284  15.777 -0.1142 -0.2968  0.1924
58612W        W 1706  13.347  15.654  17.129 -0.3240  0.1556  0.0615
58613W        W 1707  10.999  18.185  15.574 -0.0014  0.0169  0.3862
58614W        W 1708  13.234  15.478  15.236  0.2442 -0.0195 -0.3371
58615W        W 1709  13.245  17.555  18.189 -0.0358 -0.2274  0.1270
58616W        W 1710  10.176  16.922  17.370  0.1847  0.0425  0.1133
58617W        W 1711  12.797  17.917  18.144  0.1031  0.1871 -0.2806
58618W        W 1712  12.724  17.426  18.102  0.1440  0.0628  0.2041
58619W        W 1713  13.385  13.648  15.808  0.1690  0.0549  0.0569
58620W        W 1714  11.338  16.611  17.767  0.1243  0.0709 -0.0848
58621W        W 1715  10.733  17.113  17.329  0.0392  0.0584 -0.0095
58622W        W 1716  13.516  15.148  16.420 -0.1719 -0.0154 -0.3805
58623W        W 1717  12.900  15.220  18.164  0.1190  0.1924 -0.3130
58624W        W 1718  11.660  16.706  16.477 -0.1582 -0.0101 -0.1661
58625W        W 1719  13.750  14.713  18.144 -0.1183 -0.0836  0.1169
58626W        W 1720  11.131  16.822  17.251 -0.0501  0.0615 -0.1538
58627W        W 1721  11.332  18.791  20.005  0.0145 -0.3922  0.1605
58628W        W 1722  11.315  16.308  16.309 -0.0951  0.0525 -0.4214
58629W        W 1723  11.165  17.207  18.132 -0.2265 -0.2227 -0.2270
58630W        W 1724  11.292  16.254  15.823 -0.1390  0.0246 -0.0691
58631W        W 1725  13.376  16.629  16.901 -0.3256 -0.1193 -0.1872
58632W        W 1726  13.159  16.240  17.201 -0.0951 -0.0668 -0.2138
58633W        W 1727  12.637  14.508  15.712  0.1549  0.0371  0.2656
58634W        W 1728  13.266  16.776  16.178 -0.0038  0.2256 -0.0202
58635W        W 1729  12.486  13.845  17.391  0.3112 -0.5429  0.0758
58636W        W 1730  14.003  14.139  16.606 -0.0911 -0.0525  0.1674
58637W        W 1731  15.004  13.639  16.794  0.0120  0.1683 -0.3274
58638W        W 1732   9.637  15.784  18.209  0.1107 -0.0902 -0.1552
58639W        W 1733  11.032  15.448  15.737  0.0108 -0.5496 -0.0200
58640W        W 1734  10.528  17.004  15.843  0.0778  0.1872 -0.2277
58641W        W 1735  10.854  16.121  18.691 -0.0980  0.1228 -0.0602
58642W        W 1736  12.369  14.830  18.979  0.2446 -0.3510  0.0706
58643W        W 1737  10.459  16.047  19.597 -0.1400 -0.3014  0.2630
58644W        W 1738   9.657  15.218  18.272 -0.3255  0.0369  0.0386
58645W        W 1739  11.303  15.900  17.367 -0.0624  0.1297 -0.1884
58646W        W 1740  12.239  17.699  16.088 -0.0468 -0.2116  0.2064
58647W        W 1741  10.472  14.026  16.440 -0.1749  0.3296 -0.3328
58648W        W 1742  10.659  14.282  17.070 -0.1993 -0.2492 -0.2286
58649W        W 1743  12.892  15.940  15.969  0.1248 -0.0790 -0.0721
58650W        W 1744  12.531  17.713  17.098  0.4162 -0.1190 -0.0157
58651W        W 1745  12.195  16.723  16.392 -0.2739  0.0359 -0.0716
58652W        W 1746  13.064  18.675  18.699  0.0462 -0.0542  0.0738
58653W        W 1747  10.398  16.376  16.409  0.0140 -0.3478 -0.0159
58654W        W 1748  11.451  15.763  19.951 -0.0511 -0.3422 -0.1491
58655W        W 1749  11.578  14.012  17.521 -0.2577 -0.3806  0.1491
58656W        W 1750  10.670  15.206  16.040  0.1147 -0.1302  0.2355
58657W        W 1751  13.039  14.314  17.785  0.1795 -0.1043  0.0573
58658W        W 1752  12.081  17.126  17.566  0.1826 -0.0143 -0.3767
58659W        W 1753  13.190  18.632  16.406 -0.1441  0.2542 -0.1649
58660W        W 1754  11.415  16.987  18.504  0.0310  0.1441 -0.2747
58661W        W 1755  11.243  17.660  19.146 -0.2053  0.0844  0.1966
58662W        W 1756  10.792  15.135  19.524 -0.2511  0.2299  0.1333
58663W        W 1757  14.419  16.769  16.004 -0.2229 -0.0172  0.0038
58664W        W 1758  13.063  15.889  18.869 -0.5655 -0.3254 -0.0262
58665W        W 1759  13.762  17.430  16.512 -0.0677 -0.1162  0.3710
58666W        W 1760  14.140  14.690  16.884 -0.1706  0.2451 -0.0752
58667W        W 1761  14.341  16.291  15.715 -0.3104 -0.0126  0.2686
58668W        W 1762  10.074  14.857  18.259 -0.0123 -0.2371  0.3528
58669W        W 1763  10.893  16.328  19.631  0.1341 -0.0493 -0.4381
58670W        W 1764  13.147  17.041  18.081  0.0547  0.0298  0.0070
58671W        W 1765  12.097  15.356  15.852 -0.0593  0.4775  0.0534
58672W        W 1766  13.954  14.469  15.007  0.0753 -0.0728  0.1443
58673W        W 1767  13.446  16.701  15.724 -0.0202 -0.0892  0.1347
58674W        W 1768  11.382  16.029  16.832 -0.1522 -0.1695  0.0232
58675W        W 1769  12.246  16.187  15.944 -0.0046 -0.0407 -0.0332
58676W        W 1770  11.136  16.661  18.788  0.5313  0.0167 -0.2686
58677W        W 1771  12.599  16.145  17.211  0.1422 -0.0119 -0.0302
58678W        W 1772  11.768  16.156  18.249  0.1386  0.0944 -0.2392
58679W        W 1773  11.497  17.060  16.750  0.1998  0.1018  0.0221
58680W        W 1774  14.673  17.258  15.934 -0.2066  0.3887  0.0878
58681W        W 1775  12.514  16.655  17.288 -0.2324 -0.1627 -0.2074
58682W        W 1776  12.225  19.060  19.887  0.0464  0.0072  0.0352
58683W        W 1777  11.629  18.529  17.648  0.2247 -0.1913 -0.1503
58684W        W 1778  11.756  15.672  18.025  0.1544  0.1966 -0.2332
58685W        W 1779  10.892  14.695  17.363 -0.1423  0.0409  0.0563
58686W        W 1780  12.323  17.182  16.228 -0.1107  0.2203 -0.2993
58687W        W 1781  11.939  15.656  16.697 -0.0511 -0.3831  0.1169
58688W        W 1782  12.985  15.183  17.271  0.2068 -0.0028 -0.0164
58689W        W 1783  12.234  15.959  16.959  0.1144 -0.2083 -0.0279
58690W        W 1784  13.826  14.364  15.560  0.0244  0.0782 -0.2968
58691W        W 1785  10.759  18.736  18.830  0.1848  0.3063 -0.1696
58692W        W 1786  11.343  16.551  16.817 -0.0508  0.0208  0.1048
58693W        W 1787  10.701  16.829  22.709 -0.3528 -0.0055 -0.2472
58694W        W 1788  11.223  13.937  20.415  0.2127 -0.1137 -0.2917
58695W        W 1789  14.745  13.822  17.964 -0.1797  0.0922  0.1103
58696W        W 1790  12.864  18.017  19.273  0.0371  0.3515 -0.0763
58697W        W 1791  10.056  14.972  20.354 -0.2236 -0.1297 -0.0149
58698W        W 1792  12.027  18.102  20.913  0.1230  0.2473 -0.0296
58699W        W 1793  11.499  15.175  20.708  0.0916 -0.0663  0.2083
58700W        W 1794  10.511  17.064  21.328 -0.0369 -0.2157  0.0148
58701W        W 1795  13.449  16.769  20.666  0.0487 -0.0664 -0.1047
58702W        W 1796  11.956  16.945  18.983  0.2946 -0.1530  0.0098
58703W        W 1797  12.491  15.539  21.517  0.0527  0.1905 -0.1106
58704W        W 1798  11.270  16.756  21.326 -0.1662 -0.1454 -0.0962
58705W        W 1799  11.046  15.702  18.874  0.0939  0.4061 -0.0301
58706W        W 1800  10.544  13.342  20.610  0.1510 -0.1338  0.1756
58707W        W 1801  12.697  14.766  20.313  0.1153  0.2219  0.1291
58708W        W 1802  10.682  16.004  20.028  0.1305 -0.1476  0.0240
58709W        W 1803  11.570  15.840  22.018 -0.0404 -0.0834 -0.0735
58710W        W 1804  11.654  14.752  19.984  0.0256  0.0248  0.0644
58711W        W 1805  10.493  18.974  20.323 -0.1331 -0.3320 -0.1759
58712W        W 1806  12.096  14.757  22.328  0.2269 -0.2660 -0.4304
58713W        W 1807  11.747  14.483  21.862  0.1976 -0.1546  0.0426
58714W        W 1808  11.678  17.541  19.549 -0.0537  0.2579  0.1472
58715W        W 1809   9.369  15.939  18.648 -0.3630 -0.0623 -0.1282
58716W        W 1810   9.981  16.237  21.270  0.1179  0.0676 -0.0660
58717W        W 1811  11.147  16.239  21.375 -0.2466  0.1897 -0.1171
58718W        W 1812  11.267  14.899  19.526 -0.1291  0.3931  0.1940
58719W        W 1813  14.073  16.026  19.042  0.0330 -0.5165  0.4016
58720W        W 1814  12.545  16.499  21.517 -0.0042  0.2355 -0.0494
58721W        W 1815  12.555  16.840  19.930 -0.0743 -0.0135  0.1434
58722W        W 1816  12.649  17.281  20.817  0.0419 -0.0658 -0.3913
58723W        W 1817   9.795  16.932  20.565 -0.1172  0.1553  0.0476
58724W        W 1818  10.199  17.380  20.608  0.2247  0.1302 -0.0297
58725W        W 1819  10.643  18.075  20.057  0.2338  0.0595 -0.0246
58726W        W 1820  13.077  16.160  18.367  0.0698 -0.3082  0.0014
58727W        W 1821  13.048  16.547  20.412  0.2852 -0.0326 -0.2198
58728W        W 1822  12.387  17.205  22.881  0.2115  0.1047  0.2590
58729W        W 1823  11.155  16.667  20.484  0.2110 -0.1091  0.1394
58730W        W 1824  12.136  17.011  20.305 -0.1113 -0.1498  0.2919
58731W        W 1825  10.510  16.084  23.366 -0.1920 -0.0418 -0.1572
58732W        W 1826  12.573  15.187  20.129 -0.0686 -0.1385 -0.2250
58733W        W 1827  12.953  15.870  20.748  0.1924 -0.1516  0.0481
58734W        W 1828  10.624  17.352  19.819  0.4386  0.2505  0.0182
58735W        W 1829  12.550  15.929  19.812 -0.2453  0.0275 -0.1149
58736W        W 1830  11.075  16.393  22.698 -0.1951  0.1339 -0.1432
58737W        W 1831  10.285  16.620  21.340 -0.2069  0.0987  0.1428
58738W        W 1832  14.673  14.420  21.683 -0.4049  0.0115 -0.2446
58739W        W 1833  11.895  16.510  19.685  0.3137  0.0195 -0.1732
58740W        W 1834  11.943  15.323  18.485 -0.0771 -0.2112 -0.0935
58741W        W 1835  11.461  15.326  18.282 -0.0600 -0.2077  0.2371
58742W        W 1836  13.561  15.539  18.036 -0.2217 -0.2989  0.0776
58743W        W 1837  13.218  13.651  19.985  0.0685  0.0782 -0.0050
58744W        W 1838  11.169  17.982  22.674  0.1665  0.1861 -0.1596
58745W        W 1839  12.968  14.058  21.698  0.0398 -0.1528 -0.1855
58746W        W 1840  13.889  17.066  20.059  0.2620  0.0698  0.0298
58747W        W 1841  13.468  15.085  19.126 -0.0306  0.2522  0.0055
58748W        W 1842  14.112  14.130  21.525  0.0294 -0.2025  0.1814
58749W        W 1843   9.639  16.976  21.775 -0.1646 -0.0615  0.0471
58750W        W 1844   9.481  15.024  19.959 -0.0404 -0.1151 -0.2423
58751W        W 1845  12.216  16.838  19.472 -0.0868  0.0483 -0.1155
58752W        W 1846  12.372  16.427  19.679 -0.1626  0.0913  0.1956
58753W        W 1847  11.990  16.439  19.206  0.2110  0.2157 -0.1550
58754W        W 1848  10.828  14.267  19.060  0.0598  0.1568 -0.0723
58755W        W 1849  10.350  16.621  23.614  0.2415  0.0920  0.2096
58756W        W 1850  11.636  16.759  22.481  0.0494 -0.3311  0.0148
58757W        W 1851  11.626  14.002  20.017 -0.2519  0.1199 -0.1503
58758W        W 1852  13.090  17.292  21.180 -0.1441 -0.3381  0.3373
58759W        W 1853   9.244  17.458  22.699  0.0988 -0.0357  0.2030
58760W        W 1854  14.701  14.812  18.477  0.3446 -0.1342  0.1906
58761W        W 1855  12.030  16.170  21.205 -0.1487 -0.3160  0.0627
58762W        W 1856  11.752  17.443  21.966 -0.2364  0.2765 -0.3512
58763W        W 1857  12.838  16.544  18.159  0.2547 -0.0748 -0.0290
58764W        W 1858  13.422  13.503  20.543  0.0710 -0.1653 -0.1625
58765W        W 1859  12.639  15.108  21.243  0.2690  0.0844 -0.0780
58766W        W 1860  11.147  16.659  19.319 -0.3976  0.0566  0.0253
58767W        W 1861  10.793  17.597  20.254  0.1663  0.0320  0.1597
58768W        W 1862  11.963  16.473  20.237  0.3167  0.1604  0.1357
58769W        W 1863  12.535  15.151  18.601 -0.0413 -0.2062 -0.0028
58770W        W 1864   9.563  16.627  23.139  0.1816 -0.1133  0.1971
58771W        W 1865  11.628  14.892  22.669 -0.2432  0.2527 -0.1890
58772W        W 1866  12.732  16.945  21.508 -0.2316 -0.2292 -0.0850
58773W        W 1867  10.362  19.128  19.155  0.2797  0.3572  0.1133
58774W        W 1868   9.757  17.524  20.308 -0.0402  0.0023 -0.1634
58775W        W 1869   9.463  16.356  19.561 -0.1303  0.0160 -0.1041
58776W        W 1870  12.158  15.184  21.489 -0.1855 -0.1399  0.0290
58777W        W 1871  11.079  17.022  21.731 -0.2017 -0.0154  0.2038
58778W        W 1872  13.786  14.801  18.639  0.0343  0.0726  0.0586
58779W        W 1873  10.603  14.501  21.223  0.0519 -0.0451 -0.0759
58780W        W 1874  14.644  14.559  20.180  0.1532  0.1945  0.0266
58781W        W 1875  10.933  15.973  20.933  0.1663 -0.1715  0.1659
58782W        W 1876  13.130  18.222  19.983 -0.2716  0.3277  0.2036
58783W        W 1877  12.657  16.083  18.169  0.0088 -0.2648 -0.2653
58784W        W 1878  13.185  16.848  19.475 -0.1816  0.1641 -0.2004
58785W        W 1879   9.699  15.493  21.765  0.1376  0.1325 -0.1659
58786W        W 1880  10.732  15.816  19.217 -0.2592 -0.2409 -0.1968
58787W        W 1881  12.718  15.592  22.001  0.1333  0.3858  0.1399
58788W        W 1882  10.218  14.563  21.536 -0.1755  0.1311  0.1133
58789W        W 1883  13.820  16.871  20.997  0.3955  0.1277 -0.2964
58790W        W 1884  11.119  14.162  19.840 -0.0808  0.2229 -0.0063
58791W        W 1885  12.479  14.887  20.803 -0.0992 -0.2428 -0.2806
58792W        W 1886  12.140  14.721  20.487 -0.0298 -0.0897  0.0610
58793W        W 1887  10.544  17.138  20.347 -0.2314  0.1618 -0.0699
58794W        W 1888  13.354  14.477  21.504 -0.1096  0.1257 -0.0785
58795W        W 1889  10.626  18.278  20.987  0.0161  0.0071  0.3308
58796W        W 1890  13.418  17.686  21.241 -0.3371  0.0550  0.0893
58797W        W 1891  12.556  17.224  19.512  0.1172  0.0697 -0.0519
58798W        W 1892  11.569  16.201  21.662  0.2909 -0.0013  0.0061
58799W        W 1893   9.934  13.486  20.087 -0.0817 -0.0964  0.1950
58800W        W 1894  10.359  17.429  22.096 -0.2769  0.4344 -0.1202
58801W        W 1895  12.452  15.840  20.882 -0.0999  0.0397  0.2349
58802W        W 1896  10.888  14.668  19.904  0.0346 -0.1892 -0.0190
58803W        W 1897  13.242  19.533  20.291  0.1176 -0.3028  0.1239
58804W        W 1898  10.192  16.084  19.072 -0.1494  0.0075  0.1571
58805W        W 1899  10.219  16.987  22.642 -0.0072 -0.0297 -0.1920
58806W        W 1900  13.706  14.352  21.880  0.0050 -0.0490  0.2783
58807W        W 1901  13.458  16.109  19.898 -0.1448  0.3455  0.2698
58808W        W 1902  12.651  14.255  19.652 -0.1594 -0.3968  0.0017
58809W        W 1903  11.036  13.326  19.142  0.0062  0.0301  0.4247
58810W        W 1904  10.110  18.788  20.112  0.0939  0.2189 -0.0223
58811W        W 1905  10.111  17.572  19.903  0.1191  0.1410 -0.2126
58812W        W 1906   9.696  15.855  20.429  0.4427 -0.1964  0.2069
58813W        W 1907  11.401  17.029  20.287 -0.1830  0.1850 -0.1305
58814W        W 1908  12.647  14.109  18.778 -0.1266 -0.0347 -0.2193
58815W        W 1909   9.552  17.018  22.786  0.3408  0.3125  0.0600
58816W        W 1910  13.559  14.153  22.331  0.1793  0.2684 -0.2348
58817W        W 1911   9.460  14.780  20.451  0.0756  0.1788  0.1718
58818W        W 1912  11.992  17.477  22.783 -0.3226 -0.0505 -0.0433
58819W        W 1913  13.725  14.557  19.850  0.0616  0.0301  0.1043
58820W        W 1914  13.236  13.854  18.380 -0.0222 -0.0407  0.0185
58821W        W 1915  11.820  17.513  21.271  0.1155  0.0626  0.0193
58822W        W 1916  12.471  16.394  20.144 -0.1690 -0.1836  0.0134
58823W        W 1917  13.739  14.987  19.569 -0.0032 -0.0065 -0.0232
58824W        W 1918  13.413  14.244  18.093 -0.0093  0.2724 -0.1641
58825W        W 1919   9.912  16.923  22.194 -0.2071 -0.0123 -0.1254
58826W        W 1920  12.658  15.468  19.009  0.0647  0.2715  0.0325
58827W        W 1921  12.292  15.317  20.984 -0.0782  0.2500 -0.0729
58828W        W 1922  12.198  14.833  17.690 -0.2133 -0.1350  0.0620
58829W        W 1923  11.780  16.565  18.619 -0.1322  0.3766 -0.1625
58830W        W 1924  10.199  16.424  20.906 -0.5253  0.0282  0.4506
58831W        W 1925  12.188  17.378  21.837  0.0764  0.0332  0.3037
58832W        W 1926  10.948  16.041  20.436 -0.1013  0.0930  0.1393
58833W        W 1927  11.592  14.535  21.040 -0.0042 -0.1141 -0.2836
58834W        W 1928  12.265  14.334  18.919 -0.0375  0.2539  0.2606
58835W        W 1929  13.035  14.208  21.146  0.0026 -0.0671 -0.1588
58836W        W 1930  10.844  17.325  19.367  0.0939  0.4093 -0.1514
58837W        W 1931  13.224  13.964  19.555  0.1649 -0.3696  0.2110
58838W        W 1932  12.758  13.968  20.272  0.0994 -0.1624  0.1746
58839W        W 1933  11.244  14.341  21.852  0.2039  0.1403 -0.0328
58840W        W 1934  13.668  16.417  19.277  0.0735  0.0894 -0.0612
58841W        W 1935  13.999  15.379  19.276 -0.1259 -0.0786  0.1847
58842W        W 1936  13.444  15.747  20.925  0.0726  0.0748 -0.1927
58843W        W 1937  10.402  16.880  19.920  0.0771 -0.2429  0.2860
58844W        W 1938  12.584  13.681  21.727  0.1431  0.0986 -0.2701
58845W        W 1939  11.028  15.417  20.662  0.1321  0.2373  0.0348
58846W        W 1940  10.202  16.651  21.830 -0.0045 -0.2484 -0.1668
58847W        W 1941  13.621  17.731  20.709 -0.0637 -0.3652 -0.0877
58848W        W 1942  12.720  14.827  19.773  0.2277  0.0504  0.0414
58849W        W 1943  12.142  15.589  21.991  0.1163  0.0423  0.0192
58850W        W 1944  12.326  13.823  19.189 -0.0935 -0.0219  0.4225
58851W        W 1945  10.847  16.803  20.973  0.1368 -0.1647  0.1956
58852W        W 1946  11.435  16.331  19.547  0.2574 -0.0565  0.0494
58853W        W 1947  12.524  14.298  21.093 -0.1228 -0.2160 -0.3855
58854W        W 1948  12.322  15.495  20.504  0.0798 -0.1277 -0.1713
58855W        W 1949  11.183  18.252  17.475 -0.0609  0.0291 -0.0693
58856W        W 1950  13.587  17.483  20.235 -0.5146  0.0563 -0.0077
58857W        W 1951  10.470  17.780  19.602 -0.1546  0.0571 -0.2709
58858W        W 1952  13.230  13.783  21.320 -0.0938 -0.1979 -0.0512
58859W        W 1953   9.662  18.217  21.525 -0.4353 -0.1900 -0.4493
58860W        W 1954  11.657  14.845  18.476  0.2954 -0.0165  0.0688
58861W        W 1955   9.902  15.341  20.116 -0.0104  0.1429  0.0580
58862W        W 1956  13.618  15.524  19.575 -0.3720 -0.0120 -0.0599
58863W        W 1957  12.748  16.378  18.646 -0.2289  0.1807  0.1420
58864W        W 1958  12.061  14.453  20.889 -0.3773 -0.0025  0.1890
58865W        W 1959  13.226  13.330  19.566  0.1723 -0.3164  0.1716
58866W        W 1960   9.103  19.495  22.181  0.1181  0.2216 -0.2340
58867W        W 1961  13.174  15.236  21.118  0.0137 -0.0020  0.2196
58868W        W 1962  13.347  14.318  18.626 -0.2710  0.0925  0.0288
58869W        W 1963  13.383  15.672  21.412 -0.1464  0.1425  0.2163
58870W        W 1964  12.377  15.136  22.205  0.0059  0.0441 -0.2059
58871W        W 1965   9.907  15.922  18.678  0.1634  0.3679  0.0564
58872W        W 1966  13.023  14.401  19.958 -0.2573 -0.2982  0.0457
58873W        W 1967  10.931  14.793  19.082 -0.2678  0.1857 -0.0193
58874W        W 1968  10.347  18.040  21.414  0.0174  0.1557 -0.0786
58875W        W 1969  12.652  18.511  21.409  0.1929  0.1313 -0.0173
58876W        W 1970  11.061  14.479  19.466 -0.0530 -0.4579  0.0664
58877W        W 1971  10.040  17.143  20.145  0.0408  0.2726  0.2436
58878W        W 1972   9.292  15.625  21.201  0.0623  0.1175  0.0927
58879W        W 1973  13.092  15.266  20.121 -0.0588 -0.0592  0.2586
58880W        W 1974  12.473  14.328  20.606 -0.0929  0.1223  0.1151
58881W        W 1975  11.377  13.535  20.820 -0.1461 -0.1815  0.4825
58882W        W 1976  13.382  14.393  20.767 -0.0180  0.0795  0.0416
58883W        W 1977  12.620  16.885  20.454 -0.0584  0.0445 -0.2881
58884W        W 1978  12.995  16.563  22.025  0.2924  0.1314  0.4403
58885W        W 1979  10.532  16.363  22.574  0.2573  0.1759 -0.2812
58886W        W 1980  12.957  12.816  21.838 -0.0080  0.1103 -0.2197
58887W        W 1981  13.386  18.661  20.113 -0.0098  0.1012 -0.0645
58888W        W 1982  13.319  16.831  21.193 -0.2533  0.0715  0.3022
58889W        W 1983  12.223  15.556  19.933 -0.1007  0.0868  0.0209
58890W        W 1984  10.682  16.384  21.201 -0.1330  0.1606 -0.0512
58891W        W 1985  12.633  15.955  21.379 -0.2347 -0.0394 -0.2312
58892W        W 1986  13.923  14.354  20.789  0.3206 -0.5316 -0.2445
58893W        W 1987  10.742  16.635  21.598 -0.1164  0.0078  0.0187
58894W        W 1988  11.832  15.684  20.260 -0.0016  0.2154  0.0381
58895W        W 1989  10.498  17.966  21.945 -0.2422  0.4074 -0.0511
58896W        W 1990  13.215  13.773  17.839  0.4268  0.1442 -0.1441
58897W        W 1991  13.795  15.313  18.723 -0.0555 -0.0370 -0.0839
58898W        W 1992  12.530  13.667  21.170 -0.2403  0.0814  0.2787
58899W        W 1993  14.504  14.038  20.832  0.1428 -0.0758  0.2507
58900W        W 1994  12.034  15.667  18.891 -0.0529  0.1729 -0.0506
58901W        W 1995  12.229  14.388  22.103 -0.1076  0.2206 -0.2032
58902W        W 1996  10.784  15.526  21.210 -0.0100 -0.6678  0.0940
58903W        W 1997  13.015  16.923  20.794 -0.2020  0.0189 -0.2751
58904W        W 1998  10.698  15.144  20.420 -0.0806  0.3306 -0.1969
58905W        W 1999  11.659  18.024  21.367  0.1905 -0.0653 -0.0703
58906W        W 2000  11.426  15.528  22.460  0.2258 -0.2566 -0.1640
58907W        W 2001  11.644  14.736  20.500 -0.2866 -0.1151 -0.2383
58908W        W 2002  11.580  13.734  19.129  0.1675  0.0354  0.1090
58909W        W 2003  12.167  16.679  21.182 -0.1783  0.1515  0.1412
58910W        W 2004  13.341  17.067  20.247 -0.2872  0.1938 -0.1246
58911W        W 2005  11.596  17.808  18.680  0.0809 -0.0696  0.0989
58912W        W 2006  11.330  15.725  19.336  0.1656 -0.3625 -0.0545
58913W        W 2007  10.801  15.898  21.566 -0.3211 -0.2436  0.1210
58914W        W 2008  11.786  14.803  19.485  0.0760 -0.2739  0.0024
58915W        W 2009  13.155  15.543  19.230 -0.1274  0.2242 -0.0714
58916W        W 2010  12.038  16.102  20.740  0.0918  0.0249  0.0304
58917W        W 2011  13.112  13.549  21.728 -0.2196 -0.0107 -0.1782
58918W        W 2012  13.380  15.995  19.304 -0.3489 -0.3254  0.0649
58919W        W 2013  13.129  13.779  18.852  0.2292  0.0774  0.0865
58920W        W 2014  13.016  14.117  23.196 -0.0565 -0.1645  0.0827
58921W        W 2015  12.561  15.097  21.771 -0.2203 -0.0239 -0.0422
58922W        W 2016  11.049  17.355  23.040  0.0521  0.2394 -0.0179
58923W        W 2017  11.909  15.075  21.930 -0.2258  0.0166  0.1772
58924W        W 2018  14.753  19.118  21.197  0.0101 -0.1183 -0.0997
58925W        W 2019  11.438  14.436  16.433  0.2249 -0.0446  0.0582
58926W        W 2020  13.422  14.414  20.237 -0.0187  0.2621 -0.1783
58927W        W 2021  14.648  15.880  18.999 -0.0270  0.2073 -0.2268
58928W        W 2022  13.208  14.846  19.980  0.0939 -0.1378 -0.0712
58929W        W 2023  11.408  15.244  20.226 -0.2911  0.1689  0.0052
58930W        W 2024  13.272  15.799  20.256 -0.4251 -0.1205  0.0585
58931W        W 2025  10.796  13.443  18.630 -0.0836 -0.3270 -0.3089
58932W        W 2026  12.991  14.346  20.506 -0.0296 -0.0957  0.0900
58933W        W 2027  11.867  17.910  20.427 -0.0440 -0.1913 -0.1252
58934W        W 2028  12.187  14.786  20.006  0.1449  0.2449 -0.3020
58935W        W 2029  12.640  14.521  18.022  0.0361 -0.2227  0.0805
58936W        W 2030  10.365  14.843  20.839  0.3318 -0.5118 -0.2155
58937W        W 2031  10.157  17.391  22.989  0.0539  0.1500 -0.4390
58938W        W 2032  10.427  15.550  20.188  0.5348 -0.2033 -0.0372
58939W        W 2033  12.153  14.742  18.472  0.3143  0.0575  0.1631
58940W        W 2034  11.442  17.235  21.497 -0.0465  0.0520 -0.2369
58941W        W 2035  14.021  16.352  20.777 -0.1555  0.0104 -0.1439
58942W        W 2036  11.605  15.320  19.386 -0.1140  0.1749  0.2658
58943W        W 2037  13.722  15.864  20.567 -0.2235  0.1135  0.1663
58944W        W 2038  10.276  17.572  21.601 -0.1993  0.1642  0.0463
58945W        W 2039  12.105  13.477  20.945 -0.2847  0.3094 -0.3052
58946W        W 2040  11.306  16.617  21.806  0.0870  0.1404 -0.3900
58947W        W 2041  10.168  16.248  22.144 -0.1403  0.0036  0.0410
58948W        W 2042  12.518  16.346  21.066 -0.0121  0.0267  0.0888
58949W        W 2043  14.094  13.601  21.533 -0.0685 -0.1236  0.0970
58950W        W 2044  13.057  16.229  19.588 -0.0237  0.0700 -0.0579
58951W        W 2045  11.945  15.167  20.378  0.2745  0.4634 -0.3204
58952W        W 2046  13.716  15.001  20.524 -0.5019 -0.0132 -0.0599
58953W        W 2047  14.119  14.599  21.719  0.4870 -0.2079  0.2874
58954W        W 2048  11.696  15.327  21.157  0.3924 -0.1876  0.2692
58955W        W 2049  11.433  17.228  20.843 -0.0134 -0.1308 -0.0395
58956W        W 2050  15.584  17.698  19.070 -0.2465 -0.3372 -0.0634
58957W        W 2051  10.090  15.408  20.617 -0.0752  0.1332  0.2322
58958W        W 2052  11.202  15.074  22.482 -0.1664  0.3254  0.2295
58959W        W 2053  13.343  16.909  21.689  0.2506 -0.3021 -0.2214
58960W        W 2054  13.067  16.462  20.902 -0.0310  0.2553  0.1685
58961W        W 2055  11.917  13.712  19.511 -0.0907 -0.4637  0.1464
58962W        W 2056  11.806  16.926  19.937  0.2111 -0.0911 -0.1070
58963W        W 2057   9.267  16.670  23.529  0.0981  0.0194 -0.1522
58964W        W 2058  11.751  17.258  22.396  0.2012  0.4399 -0.0270
58965W        W 2059   9.702  18.006  20.104  0.0221  0.0499  0.2361
58966W        W 2060  12.347  15.969  20.339  0.1308  0.2163  0.3646
58967W        W 2061  11.895  15.115  19.062 -0.0007  0.0268 -0.2691
58968W        W 2062  12.915  17.304  20.410 -0.2671 -0.2497 -0.1806
58969W        W 2063  11.786  15.227  19.887  0.3012 -0.2672  0.2555
58970W        W 2064  10.577  17.077  21.812  0.1322  0.1559 -0.1385
58971W        W 2065  10.599  18.265  19.572  0.0317 -0.0032  0.1475
58972W        W 2066  12.260  16.594  20.634  0.1674  0.4561  0.3520
58973W        W 2067   9.045  16.966  20.166 -0.2161 -0.1711 -0.0433
58974W        W 2068  12.246  17.227  21.351 -0.3114  0.0145 -0.2069
58975W        W 2069  14.005  13.987  19.029 -0.1216 -0.0382  0.0965
58976W        W 2070  14.255  16.487  18.404 -0.0171 -0.1169 -0.0186
58977W        W 2071  14.405  16.484  18.850 -0.0270 -0.2010 -0.1105
58978W        W 2072  12.255  17.593  20.998 -0.0253 -0.2656 -0.1513
58979W        W 2073  12.708  14.726  22.039  0.3041  0.2268 -0.0207
58980W        W 2074  12.731  15.263  17.677  0.1104 -0.0840  0.0794
58981W        W 2075  10.820  16.234  22.049  0.4777 -0.0208 -0.1465
58982W        W 2076  14.961  13.624  21.519 -0.0480  0.0874  0.2653
58983W        W 2077   9.394  18.641  22.383  0.0746 -0.2970  0.2590
58984W        W 2078  12.838  18.407  19.563  0.0304  0.2013 -0.1962
58985W        W 2079  10.529  14.701  20.344 -0.1507 -0.0864 -0.0372
58986W        W 2080  13.878  16.598  20.337 -0.0475  0.2784 -0.0088
58987W        W 2081  12.794  13.924  20.788  0.0222  0.0261  0.1230
58988W        W 2082  11.384  15.782  20.529 -0.0789 -0.4068  0.0020
58989W        W 2083  11.288  15.574  21.133  0.1182  0.1484 -0.1304
58990W        W 2084  11.115  16.409  20.896  0.2357  0.1268  0.0667
58991W        W 2085  12.222  17.800  21.531 -0.0808 -0.1170 -0.1107
58992W        W 2086  11.598  18.282  20.847  0.0554 -0.0616  0.0163
58993W        W 2087  10.435  14.541  19.808  0.5352  0.1697  0.3254
58994W        W 2088  15.039  16.164  18.593  0.1944 -0.1128 -0.2249
58995W        W 2089  11.909  15.627  20.765 -0.0221  0.1321  0.0793
58996W        W 2090  12.937  12.307  22.074  0.0329  0.1263 -0.0433
58997W        W 2091  10.278  16.377  19.950  0.0384 -0.1530  0.1548
58998W        W 2092  13.060  14.907  18.673 -0.1217  0.0586 -0.1837
58999W        W 2093  13.474  14.826  20.934  0.2314  0.1545 -0.1107
59000W        W 2094  10.985  15.594  20.109  0.3645  0.0484 -0.4842
59001W        W 2095  12.681  15.434  19.693  0.0265  0.0187  0.0623
59002W        W 2096  13.831  17.419  19.242 -0.1056  0.1701  0.2291
59003W        W 2097  10.752  15.724  17.764  0.2127  0.1031  0.2581
59004W        W 2098  12.488  17.794  22.045  0.0426  0.1959 -0.2368
59005W        W 2099  12.277  14.737  21.225  0.1595 -0.0346  0.0632
59006W        W 2100  14.116  13.684  19.850 -0.1529  0.0072 -0.1708
59007W        W 2101   9.308  15.955  20.040  0.1077 -0.0032 -0.1175
59008W        W 2102  13.149  16.488  21.509  0.2791 -0.1402 -0.1289
59009W        W 2103  11.780  16.956  21.116  0.3838 -0.4112  0.1282
59010W        W 2104  11.258  14.502  20.161  0.1406 -0.0313 -0.0625
59011W        W 2105  12.558  17.194  17.258 -0.1526  0.1097  0.0882
59012W        W 2106  16.108  17.230  19.680  0.1560 -0.3020 -0.2792
59013W        W 2107  12.019  18.352  20.070  0.0834 -0.0059  0.1432
59014W        W 2108  12.444  15.966  18.859  0.4179  0.5082 -0.0007
59015W        W 2109  11.051  17.165  20.588  0.2228 -0.2247 -0.1202
59016W        W 2110   9.494  16.020  21.018  0.1155 -0.0737  0.1087
59017W        W 2111  12.172  17.097  20.824  0.2575  0.2550 -0.0591
59018W        W 2112  13.128  18.653  19.169 -0.2258 -0.0910 -0.0224
59019W        W 2113  12.453  14.430  20.101 -0.1407  0.3155 -0.0413
59020W        W 2114  12.895  15.361  20.665  0.1405 -0.4826  0.0687
59021W        W 2115  10.770  16.587  20.128  0.0461  0.2546  0.0205
59022W        W 2116  14.034  16.950  18.277  0.1504 -0.1746  0.0221
59023W        W 2117  12.563  13.390  20.753  0.3390  0.1863 -0.1459
59024W        W 2118  11.261  17.515  19.989 -0.0721 -0.1342  0.2730
59025W        W 2119  14.295  14.192  21.999  0.2633 -0.0615  0.0952
59026W        W 2120  13.810  15.609  21.696 -0.2630  0.1983 -0.2061
59027W        W 2121  10.502  16.223  23.918 -0.1093  0.1968 -0.0177
59028W        W 2122   9.610  16.762  19.147  0.0472  0.0995 -0.0889
59029W        W 2123  11.564  15.179  21.604 -0.0545 -0.1823  0.0468
59030W        W 2124  11.515  16.326  20.032 -0.1623 -0.3270  0.0462
59031W        W 2125   9.621  18.057  21.029 -0.2545  0.0997  0.1721
59032W        W 2126  12.703  16.797  19.388  0.0387  0.4031  0.1252
59033W        W 2127  12.344  14.583  19.440  0.0300 -0.2534 -0.2088
59034W        W 2128  11.911  16.038  19.914  0.0580  0.1092  0.3211
59035W        W 2129  12.759  13.068  21.088  0.0001  0.3130  0.2642
59036W        W 2130  14.006  14.181  20.007 -0.1675  0.1992  0.0352
59037W        W 2131  13.661  13.816  18.188 -0.0326  0.3172  0.2512
59038W        W 2132  10.048  15.913  20.814  0.1385  0.0667  0.0303
59039W        W 2133   9.764  15.872  19.504  0.1296 -0.1633 -0.0168
59040W        W 2134  10.801  16.884  19.091 -0.0505 -0.0600  0.3205
59041W        W 2135  11.474  17.018  22.047 -0.0224 -0.4841 -0.3862
59042W        W 2136  12.098  14.809  22.858 -0.2348  0.1606  0.2794
59043W        W 2137  10.177  16.111  20.376  0.1170  0.0111 -0.1209
59044W        W 2138   9.729  16.394  20.362 -0.3680  0.1512  0.0277
59045W        W 2139  10.296  14.096  20.010  0.0979 -0.0593  0.1471
59046W        W 2140  12.179  16.033  19.458 -0.0749  0.1325  0.0801
59047W        W 2141  11.025  15.871  19.680 -0.0200  0.2117  0.1989
59048W        W 2142  10.417  15.084  19.989  0.0337 -0.0810  0.1236
59049W        W 2143  11.812  15.735  19.566  0.1817 -0.1947 -0.1478
59050W        W 2144  12.464  18.896  21.141  0.0339 -0.1071  0.1488
59051W        W 2145  11.952  14.148  19.238  0.3373  0.1785 -0.0934
59052W        W 2146  13.287  19.480  21.340  0.0157  0.0540  0.1247
59053W        W 2147  10.823  16.868  19.588 -0.0685  0.1880 -0.1584
59054W        W 2148  12.966  15.457  21.604  0.1025 -0.1088  0.3390
59055W        W 2149  11.127  15.128  21.256 -0.1976 -0.3483  0.0982
59056W        W 2150  11.781  14.540  18.941  0.3884  0.1991 -0.0471
59057W        W 2151  11.089  14.847  20.486 -0.0529  0.3178  0.0440
59058W        W 2152  12.156  17.270  19.806 -0.0012  0.0718 -0.2549
59059W        W 2153  12.057  17.304  19.335  0.0594 -0.1522  0.1245
59060W        W 2154  11.092  16.612  22.233 -0.2564  0.4238  0.2995
59061W        W 2155  11.817  17.384  20.574 -0.2861  0.0765  0.2652
59062W        W 2156  10.807  12.900  22.257  0.1181 -0.0090 -0.0496
59063W        W 2157  13.515  17.294  17.850  0.0535  0.2620  0.1816
59064W        W 2158  11.536  17.381  23.364  0.0502 -0.0155  0.0058
59065W        W 2159  12.907  19.224  17.608  0.2615 -0.3132 -0.2866
59066W        W 2160  14.870  14.030  19.513 -0.0655 -0.1122  0.0999
59067W        W 2161  14.077  15.257  19.895 -0.0601 -0.2206  0.1419
59068W        W 2162   9.776  15.119  20.810  0.0709 -0.1533 -0.4822
59069W        W 2163  10.022  15.906  21.734  0.3097 -0.2139 -0.3804
59070W        W 2164  13.458  16.257  20.380 -0.0980 -0.2707 -0.0048
59071W        W 2165  10.583  14.006  21.096  0.1917 -0.2868 -0.0163
59072W        W 2166  12.206  12.618  19.859 -0.2454 -0.0197  0.1050
59073W        W 2167  12.221  15.123  19.613  0.0381 -0.0205  0.1542
59074W        W 2168  10.654  16.420  20.674 -0.1218 -0.3940 -0.0875
59075W        W 2169  11.197  15.365  19.721  0.2046  0.3350  0.2148
59076W        W 2170  13.163  15.901  21.824  0.1283  0.1101  0.1749
59077W        W 2171  12.608  18.486  20.900  0.0494 -0.1242  0.0225
59078W        W 2172  13.336  17.308  20.720 -0.0058  0.0905 -0.0794
59079W        W 2173  10.629  15.559  19.715 -0.0155  0.2290 -0.0353
59080W        W 2174  13.318  16.544  18.107 -0.3007 -0.1281 -0.0450
59081W        W 2175  12.296  19.315  21.377  0.1744 -0.0229  0.0861
59082W        W 2176  13.829  18.935  21.960 -0.0940 -0.0053 -0.0747
59083W        W 2177  13.103  17.736  20.789  0.0881  0.3169  0.1645
59084W        W 2178  12.924  16.146  20.079  0.0650  0.0678 -0.0431
59085W        W 2179  11.081  14.580  21.065  0.4401 -0.0562  0.0267
59086W        W 2180  11.502  16.225  20.559 -0.1462  0.2651  0.2608
59087W        W 2181  11.697  15.751  18.504  0.3370 -0.3618 -0.2060
59088W        W 2182  13.660  15.189  21.180 -0.1381  0.1009  0.1342
59089W        W 2183   9.668  15.562  20.830 -0.1254  0.0786  0.0464
59090W        W 2184  13.882  13.385  18.378 -0.1148 -0.0117 -0.1816
59091W        W 2185  12.332  18.083  20.394 -0.1465  0.0468  0.1256
59092W        W 2186  14.249  16.576  19.383 -0.1093  0.0726  0.4822
59093W        W 2187  11.495  16.840  24.309  0.0856 -0.1764 -0.0485
59094W        W 2188  12.331  15.902  24.246  0.1365  0.0378  0.2178
59095W        W 2189  13.066  16.086  21.247  0.1810 -0.1351 -0.0500
59096W        W 2190  11.179  15.586  23.830  0.2155 -0.1608  0.1137
59097W        W 2191  13.551  19.835  21.622 -0.3340  0.0193 -0.1944
59098W        W 2192  10.898  15.315  26.072  0.2433 -0.0262 -0.2993
59099W        W 2193  13.532  16.540  21.998 -0.0140 -0.1632 -0.2742
59100W        W 2194  13.446  17.971  23.703 -0.0612  0.1854 -0.0336
59101W        W 2195  12.258  17.575  23.243  0.1837 -0.0571  0.0466
59102W        W 2196  11.965  14.699  24.855  0.3365  0.3077  0.0033
59103W        W 2197  11.784  16.970  24.806 -0.1111  0.2091 -0.1338
59104W        W 2198  11.452  13.981  22.591 -0.1044 -0.0302 -0.0519
59105W        W 2199  10.591  14.989  25.346  0.0765 -0.0101  0.3071
59106W        W 2200  11.340  16.793  23.128  0.0468 -0.2886 -0.2165
59107W        W 2201  11.667  15.420  25.626 -0.0396 -0.2385 -0.1795
59108W        W 2202  13.056  15.412  24.793 -0.0544 -0.1002  0.0374
59109W        W 2203  10.638  19.271  23.054  0.2612  0.1439 -0.1507
59110W        W 2204  13.130  14.403  25.613 -0.1015  0.1739  0.0883
59111W        W 2205  13.234  13.896  27.479 -0.1278  0.2912  0.0786
59112W        W 2206  12.829  18.678  23.485 -0.0059 -0.0129 -0.0902
59113W        W 2207  12.708  16.175  21.870 -0.0309 -0.1756 -0.0211
59114W        W 2208  10.915  15.815  25.129 -0.1180 -0.1836  0.1952
59115W        W 2209  11.412  16.100  25.878  0.2184 -0.2778  0.3308
59116W        W 2210  11.921  14.257  24.051 -0.2414 -0.5407  0.0181
59117W        W 2211  13.969  15.999  22.753  0.0016  0.2569  0.0405
59118W        W 2212  12.228  17.706  24.007  0.0939 -0.0949 -0.0413
59119W        W 2213  12.716  18.280  22.204 -0.0983  0.3669 -0.0406
59120W        W 2214  13.652  15.704  24.811  0.1273 -0.1086 -0.1776
59121W        W 2215  11.854  16.194  23.571 -0.0329 -0.3808 -0.1787
59122W        W 2216  10.913  17.839  23.201  0.1323 -0.0556  0.3917
59123W        W 2217  12.422  17.771  22.679 -0.1525 -0.1374 -0.0851
59124W        W 2218  13.548  17.146  22.091  0.0842  0.0004 -0.0674
59125W        W 2219  12.719  16.675  23.579  0.1306  0.3768 -0.2864
59126W        W 2220  11.779  19.267  25.683  0.1133  0.1353 -0.2317
59127W        W 2221  10.598  17.344  22.664  0.0705 -0.0421  0.1820
59128W        W 2222  12.813  17.984  24.824  0.1437 -0.0656  0.0384
59129W        W 2223  11.882  16.660  26.467 -0.0206  0.0529  0.2218
59130W        W 2224  12.722  16.411  24.895  0.0009  0.0723  0.1198
59131W        W 2225  13.625  15.219  23.976  0.1194  0.2783 -0.1186
59132W        W 2226  11.767  17.910  21.831 -0.2277  0.2078  0.1844
59133W        W 2227  11.284  17.827  24.058 -0.2249 -0.0956 -0.2350
59134W        W 2228  12.360  17.601  25.466  0.1987  0.0062 -0.1419
59135W        W 2229  10.267  18.091  24.048  0.1607 -0.0320  0.2635
59136W        W 2230  13.981  14.275  25.603 -0.1344 -0.2731 -0.3947
59137W        W 2231  11.571  17.042  23.797 -0.1346 -0.2349  0.1649
59138W        W 2232  14.074  16.366  21.321  0.0398  0.2182  0.1205
59139W        W 2233   9.482  16.980  21.071  0.1948  0.0947  0.0392
59140W        W 2234  14.522  13.877  21.316  0.0992 -0.1218 -0.0573
59141W        W 2235  12.836  13.263  24.608 -0.5937 -0.0337 -0.0810
59142W        W 2236  11.117  18.321  24.283  0.0124 -0.0736  0.1698
59143W        W 2237  12.875  14.940  25.707  0.3203  0.0130 -0.0240
59144W        W 2238  12.590  17.360  24.037 -0.0415  0.2723  0.0057
59145W        W 2239  13.417  14.797  21.963  0.2235  0.1002 -0.3681
59146W        W 2240  12.639  15.593  24.371  0.0861 -0.0347  0.1540
59147W        W 2241  11.690  16.961  25.761 -0.0646 -0.0110 -0.3322
59148W        W 2242  11.385  15.225  23.488 -0.1713  0.0864  0.0027
59149W        W 2243  12.340  20.620  21.095  0.2162  0.3663 -0.0361
59150W        W 2244  13.367  17.701  22.235 -0.2086  0.2526 -0.0996
59151W        W 2245  12.486  16.865  21.929  0.4564 -0.1271 -0.0371
59152W        W 2246  10.979  15.519  22.705  0.2451 -0.0558  0.0494
59153W        W 2247  11.959  16.968  25.316 -0.2164 -0.1504 -0.4231
59154W        W 2248  11.543  17.446  25.104 -0.2442  0.0090  0.7974
59155W        W 2249  11.864  14.374  21.392 -0.0925  0.1741  0.4325
59156W        W 2250  15.020  17.120  23.517 -0.1122  0.3206  0.0130
59157W        W 2251  11.062  17.484  24.911  0.4154  0.1560  0.0766
59158W        W 2252  13.838  14.587  22.953 -0.1458  0.2306 -0.1719
59159W        W 2253  13.405  15.535  21.999  0.4488 -0.2217  0.0583
59160W        W 2254  13.073  17.125  23.625  0.1562  0.0248 -0.2255
59161W        W 2255  12.809  17.443  22.778 -0.3385  0.0780 -0.0230
59162W        W 2256  13.980  15.072  23.248  0.1315  0.4961  0.0452
59163W        W 2257  13.277  15.252  24.349  0.1998 -0.0807  0.1712
59164W        W 2258  11.800  15.592  22.869 -0.0157 -0.1841  0.5434
59165W        W 2259  12.233  15.349  22.975 -0.0989 -0.1105  0.0085
59166W        W 2260  13.673  16.776  22.832  0.1128  0.2172 -0.1306
59167W        W 2261  13.808  17.101  20.567  0.2557 -0.1102 -0.2782
59168W        W 2262  11.099  16.230  24.840 -0.2769  0.0186 -0.2794
59169W        W 2263  12.325  14.747  26.219  0.1677  0.0648 -0.0128
59170W        W 2264  13.230  15.940  24.727 -0.3421 -0.1190  0.0189
59171W        W 2265  11.267  18.290  23.741 -0.2685  0.0608 -0.0603
59172W        W 2266  10.565  17.475  25.145 -0.1862 -0.0867 -0.0612
59173W        W 2267  11.446  16.230  24.444  0.1456 -0.0374 -0.0948
59174W        W 2268  11.201  13.924  26.713  0.0564  0.0833 -0.1541
59175W        W 2269  11.715  17.751  23.687 -0.1189  0.0856 -0.0336
59176W        W 2270  14.021  14.127  22.429  0.3062 -0.1007  0.2174
59177W        W 2271  10.306  13.309  27.592 -0.0678  0.0892 -0.0215
59178W        W 2272  14.719  14.702  22.617 -0.1310  0.1145  0.1803
59179W        W 2273  11.779  18.424  21.670  0.0579  0.1459 -0.2031
59180W        W 2274  13.505  19.675  23.470 -0.0932  0.2304  0.1479
59181W        W 2275  13.974  16.090  20.216  0.2181  0.0944  0.2214
59182W        W 2276  11.606  16.742  20.611 -0.1952  0.1492 -0.2958
59183W        W 2277  11.353  16.592  25.610  0.1127  0.1642  0.1130
59184W        W 2278  12.237  16.384  23.981  0.1609 -0.5550 -0.0235
59185W        W 2279  10.967  14.984  27.017  0.2080 -0.1143  0.4463
59186W        W 2280  12.197  15.130  24.579 -0.2786  0.0759  0.0378
59187W        W 2281  11.296  14.693  23.603  0.1599 -0.0283  0.2439
59188W        W 2282  13.416  14.023  21.680  0.0740  0.1611  0.0762
59189W        W 2283  11.810  16.526  24.562 -0.0709 -0.0167 -0.2776
59190W        W 2284  11.090  15.816  24.483  0.0991 -0.1750  0.2008
59191W        W 2285  12.808  14.604  25.234 -0.0932 -0.1940 -0.1108
59192W        W 2286  13.391  19.134  22.203  0.1841 -0.0612  0.1517
59193W        W 2287  12.761  18.756  22.535 -0.1642 -0.1301 -0.2604
59194W        W 2288  11.950  15.599  25.995  0.1602 -0.1355  0.1817
59195W        W 2289  11.192  14.357  22.841 -0.2360  0.1648 -0.1489
59196W        W 2290  11.747  18.245  23.629 -0.0890 -0.0780 -0.1508
59197W        W 2291  10.705  16.966  24.419 -0.1540  0.0117  0.1382
59198W        W 2292  12.612  14.681  22.565  0.0286  0.1664  0.0213
59199W        W 2293  13.271  18.174  22.166  0.2075 -0.2422 -0.2038
59200W        W 2294  12.584  16.417  22.418  0.0563 -0.1143  0.4545
59201W        W 2295  11.623  17.435  24.606  0.2780  0.0339 -0.0074
59202W        W 2296  13.329  14.776  25.349 -0.4813 -0.2568 -0.0531
59203W        W 2297  13.764  15.746  23.853 -0.0190  0.0090 -0.2577
59204W        W 2298  12.703  15.597  22.929  0.0079  0.1883  0.1237
59205W        W 2299  12.006  15.385  22.447  0.0653 -0.1898 -0.0992
59206W        W 2300  13.085  20.586  22.293  0.0375  0.1077  0.0832
59207W        W 2301  10.228  17.282  23.549  0.4142 -0.3431 -0.0908
59208W        W 2302  11.380  15.298  22.942 -0.1354 -0.1380  0.1498
59209W        W 2303  12.471  17.320  22.320 -0.2304 -0.0957 -0.0608
59210W        W 2304  13.390  14.174  26.008 -0.3219 -0.2876  0.1513
59211W        W 2305  11.918  16.610  27.517 -0.1663 -0.1493  0.0637
59212W        W 2306  13.604  15.903  24.342  0.1557  0.1184  0.0541
59213W        W 2307  11.244  15.973  22.408  0.3096 -0.2414  0.0743
59214W        W 2308  10.734  16.565  24.830 -0.0889 -0.4452 -0.0810
59215W        W 2309  11.775  14.419  23.516 -0.1057 -0.1436 -0.1305
59216W        W 2310  13.827  15.856  21.224 -0.0047  0.0049 -0.1584
59217W        W 2311  11.788  17.294  24.149 -0.0200  0.0930  0.0476
59218W        W 2312  13.708  16.634  21.507  0.1094  0.1652 -0.0162
59219W        W 2313  13.188  14.378  22.032 -0.1699 -0.2142  0.0111
59220W        W 2314  13.453  13.891  23.215 -0.0273 -0.0622  0.4176
59221W        W 2315  11.996  17.746  26.830  0.1886 -0.1868 -0.0641
59222W        W 2316  12.145  17.260  23.762 -0.0312 -0.0434  0.3707
59223W        W 2317  13.029  17.486  23.296 -0.1901 -0.1380  0.2853
59224W        W 2318  11.789  15.048  23.218 -0.2163  0.1408  0.1360
59225W        W 2319  13.221  17.909  21.660  0.0867 -0.1028  0.1348
59226W        W 2320  11.113  17.004  24.687 -0.0317 -0.3449  0.2480
59227W        W 2321  12.734  15.800  24.913 -0.0245  0.0880 -0.0885
59228W        W 2322  11.761  16.458  24.078  0.2411  0.0619  0.1331
59229W        W 2323  11.486  13.492  26.586 -0.0643 -0.2483 -0.3921
59230W        W 2324  12.216  16.340  22.964  0.0719 -0.2026 -0.0202
59231W        W 2325  11.878  13.334  25.542 -0.2642 -0.0732  0.2050
59232W        W 2326  10.416  18.381  22.982 -0.2489  0.3043  0.1364
59233W        W 2327  13.979  14.994  24.221 -0.1883  0.0515  0.3697
59234W        W 2328  13.078  14.104  25.219 -0.2818  0.0258  0.0344
59235W        W 2329  12.454  15.052  25.306  0.2781  0.2974  0.3838
59236W        W 2330  13.974  16.129  24.106 -0.1401  0.0484  0.0953
59237W        W 2331  14.050  14.849  20.970 -0.0420  0.1543  0.0427
59238W        W 2332  12.757  14.147  23.653 -0.0329  0.2071  0.1045
59239W        W 2333  11.781  15.918  22.541 -0.1998  0.2005  0.0210
59240W        W 2334  13.545  15.359  25.177  0.0996  0.0766  0.0341
59241W        W 2335  11.791  16.418  25.492 -0.0050  0.1232  0.0625
59242W        W 2336  11.293  16.935  26.283  0.0445 -0.1171  0.0356
59243W        W 2337  12.613  17.448  21.667 -0.4799 -0.0557  0.2012
59244W        W 2338  13.057  15.148  25.205  0.2313  0.4385 -0.1181
59245W        W 2339  13.016  15.142  22.015  0.0762  0.0235  0.0241
59246W        W 2340  11.898  17.967  22.750  0.1412  0.2420 -0.0199
59247W        W 2341  11.569  16.331  22.166 -0.5373  0.1158  0.0130
59248W        W 2342  12.421  13.484  24.896 -0.0101  0.1709  0.0518
59249W        W 2343  12.383  16.882  23.882 -0.0239  0.1527  0.2324
59250W        W 2344  12.811  16.835  22.438 -0.0942 -0.1957  0.1005
59251W        W 2345  13.598  14.821  24.420  0.1684 -0.0342  0.3869
59252W        W 2346  12.927  17.052  21.972  0.1451  0.0502 -0.0393
59253W        W 2347  13.863  13.507  23.175 -0.0684  0.2207 -0.2107
59254W        W 2348  11.599  19.228  23.006  0.1945  0.1117 -0.2363
59255W        W 2349  12.197  14.776  23.379 -0.0804 -0.1542  0.4491
59256W        W 2350  10.921  14.759  21.552 -0.0694 -0.0230  0.0745
59257W        W 2351  13.908  14.073  23.356  0.0985 -0.1941  0.1177
59258W        W 2352  13.488  16.157  21.577 -0.1245  0.0215 -0.1692
59259W        W 2353  12.073  13.862  24.986  0.0359 -0.0281 -0.0220
59260W        W 2354  13.101  14.779  24.123  0.0756 -0.1198  0.0286
59261W        W 2355  11.556  17.899  25.459  0.0808 -0.1861 -0.2106
59262W        W 2356  12.271  14.512  25.183  0.1984 -0.0728  0.2714
59263W        W 2357  13.976  14.336  23.788 -0.2670  0.0209 -0.3428
59264W        W 2358  12.614  16.710  22.866  0.1362 -0.0677  0.0672
59265W        W 2359  12.518  14.771  24.831  0.0350 -0.1794  0.0124
59266W        W 2360  11.626  15.660  21.514 -0.0673 -0.0093 -0.0743
59267W        W 2361  12.713  16.070  23.961  0.0288 -0.0400  0.1796
59268W        W 2362  13.177  15.682  23.211  0.0956  0.1621 -0.0233
59269W        W 2363  11.370  17.950  23.417  0.0149 -0.0169  0.1275
59270W        W 2364  13.136  17.257  22.381 -0.1121  0.3280  0.1450
59271W        W 2365  12.347  15.891  23.189  0.0146  0.0547 -0.0508
59272W        W 2366  11.072  17.394  23.773 -0.0042  0.1380  0.1542
59273W        W 2367  13.048  15.748  25.836 -0.3160  0.0857  0.0865
59274W        W 2368  13.098  16.435  23.760 -0.0092  0.0849  0.0109
59275W        W 2369  11.743  14.229  24.509 -0.1578 -0.1557 -0.0797
59276W        W 2370  11.575  15.086  23.983 -0.4807  0.2407  0.2257
59277W        W 2371  12.054  14.751  23.899  0.1729 -0.0016  0.1399
59278W        W 2372  13.244  15.577  23.734 -0.1367  0.0799  0.0094
59279W        W 2373  13.600  14.936  24.915 -0.2110 -0.3848  0.0837
59280W        W 2374  11.085  18.390  24.815  0.1752  0.1120 -0.2518
59281W        W 2375  12.601  13.337  25.743 -0.0022  0.1860  0.4531
59282W        W 2376  13.673  17.494  21.747  0.1460  0.1020  0.2923
59283W        W 2377  12.636  14.582  23.921  0.0323  0.1100 -0.0342
59284W        W 2378  12.057  16.456  22.410 -0.1183 -0.1697  0.3054
59285W        W 2379  11.389  15.429  24.285  0.1193 -0.2434  0.0847
59286W        W 2380  12.993  16.378  22.774  0.0076  0.0099  0.2422
59287W        W 2381  12.205  15.380  25.602  0.1316 -0.0123 -0.2189
59288W        W 2382  11.560  16.510  25.025 -0.0801  0.2533  0.1297
59289W        W 2383  11.786  16.601  23.147  0.1926  0.3417  0.0313
59290W        W 2384  11.062  16.985  24.046 -0.0870  0.1178 -0.3179
59291W        W 2385  14.635  14.631  23.381  0.2548 -0.0505  0.0202
59292W        W 2386  12.028  16.396  21.914  0.1075  0.5115  0.3678
59293W        W 2387  11.453  14.601  24.042 -0.1309 -0.1971  0.1462
59294W        W 2388  14.115  14.597  23.378  0.0895  0.2056 -0.1221
59295W        W 2389  11.688  18.459  22.512  0.1685 -0.2910 -0.0533
59296W        W 2390  14.156  14.755  26.077 -0.0463  0.0394  0.0507
59297W        W 2391  11.893  15.046  25.950  0.2873 -0.0874  0.1887
59298W        W 2392  12.966  17.882  22.533  0.0169  0.2952  0.6809
59299W        W 2393  10.457  15.669  26.032 -0.1904  0.3015 -0.1526
59300W        W 2394  12.656  17.531  24.868 -0.2134  0.1469  0.0333
59301W        W 2395  12.342  16.276  26.682  0.0284 -0.3219  0.3028
59302W        W 2396  12.285  14.359  23.604 -0.1570 -0.1423  0.1697
59303W        W 2397  11.310  14.500  22.411 -0.0485 -0.1120 -0.0669
59304W        W 2398  11.712  15.136  24.742 -0.0861 -0.0460 -0.1630
59305W        W 2399  14.100  16.926  22.685 -0.1960 -0.0484 -0.0098
59306W        W 2400  13.088  16.925  22.804  0.1732 -0.2056 -0.0678
59307W        W 2401  14.390  14.815  22.994  0.0303 -0.1355  0.3500
59308W        W 2402  11.871  15.365  25.166  0.1759  0.0681 -0.3186
59309W        W 2403  13.003  15.067  23.662 -0.1885  0.1712 -0.1150
59310W        W 2404  12.834  15.968  22.311  0.0836 -0.0886  0.1616
59311W        W 2405  11.912  16.739  23.628  0.2023 -0.1358  0.1846
59312W        W 2406  11.337  15.615  27.635 -0.0116 -0.0550 -0.1744
59313W        W 2407  13.088  16.537  23.253 -0.0926 -0.0379  0.1965
59314W        W 2408  14.158  14.660  22.602 -0.1620  0.2662  0.3854
59315W        W 2409  13.716  14.763  23.789 -0.1176 -0.2006 -0.1666
59316W        W 2410  12.301  15.711  26.749 -0.3641  0.2771  0.0883
59317W        W 2411  11.539  16.123  27.418  0.1657 -0.2385  0.0921
59318W        W 2412  13.524  17.455  23.593  0.3395 -0.2628  0.0468
59319W        W 2413  14.273  15.905  21.023 -0.1625  0.1597 -0.1162
59320W        W 2414  13.953  15.081  22.677 -0.1357  0.0388 -0.0603
59321W        W 2415  13.075  14.740  22.431 -0.3298 -0.2618  0.1175
59322W        W 2416  10.506  14.976  24.796 -0.1762 -0.2381  0.2461
59323W        W 2417  13.926  15.513  24.289 -0.2015  0.2372  0.0887
59324W        W 2418  12.473  15.575  22.458 -0.1459  0.1578  0.1918
59325W        W 2419  12.517  14.087  25.244  0.0519 -0.3976 -0.3322
59326W        W 2420  11.155  17.504  22.515 -0.0035  0.2091  0.1074
59327W        W 2421  13.115  15.899  22.747  0.2944 -0.2310 -0.0398
59328W        W 2422  13.517  15.019  22.958  0.0024 -0.3169  0.0592
59329W        W 2423  11.353  15.577  25.179 -0.0610 -0.3676  0.1671
59330W        W 2424  11.515  17.369  26.148 -0.1971  0.1602  0.3586
59331W        W 2425  11.896  14.937  20.873 -0.0418  0.1378 -0.0195
59332W        W 2426  11.274  16.222  23.207  0.0814  0.2882  0.2907
59333W        W 2427  12.690  16.270  23.138  0.1401  0.0563  0.0316
59334W        W 2428  13.143  14.830  24.773  0.2267 -0.2653 -0.0275
59335W        W 2429  12.795  15.167  22.605 -0.3542 -0.0628 -0.0766
59336W        W 2430  14.126  14.817  24.684 -0.1589 -0.2142  0.0529
59337W        W 2431  11.000  18.343  23.052 -0.0791  0.4890  0.3688
59338W        W 2432  13.830  14.309  24.507 -0.0868  0.0319 -0.0325
59339W        W 2433  12.087  18.021  25.841 -0.0699  0.1234  0.0784
59340W        W 2434   9.609  16.149  25.157 -0.1509  0.0038 -0.0624
59341W        W 2435  11.634  18.345  23.158 -0.1749 -0.2523 -0.0794
59342W        W 2436  14.146  13.880  24.675  0.0347  0.1072  0.0298
59343W        W 2437  12.975  15.223  23.157 -0.0003  0.1693  0.0166
59344W        W 2438  12.300  16.179  24.614  0.3653  0.1096  0.1809
59345W        W 2439  14.465  15.663  23.224  0.0145 -0.0187 -0.1799
59346W        W 2440  12.651  16.753  25.811 -0.1670 -0.0256  0.0813
59347W        W 2441  12.521  16.578  24.401  0.1722 -0.0200 -0.1012
59348W        W 2442  12.721  17.817  25.321  0.1385 -0.0160  0.2351
59349W        W 2443  14.395  16.454  22.483 -0.1603  0.0984  0.1685
59350W        W 2444  12.019  16.917  22.776 -0.2526  0.1294 -0.2457
59351W        W 2445  11.824  15.536  26.507 -0.3551 -0.0841 -0.1082
59352W        W 2446  12.290  14.293  24.744  0.3144 -0.0970 -0.2278
59353W        W 2447  12.748  15.555  23.872  0.1597  0.1803  0.1510
59354W        W 2448  11.356  14.910  24.476 -0.0874 -0.2056 -0.0089
59355W        W 2449  12.280  15.994  22.241 -0.2883  0.1617 -0.0378
59356W        W 2450  10.210  17.162  26.906 -0.1584 -0.0878  0.2274
59357W        W 2451  10.687  17.023  26.889 -0.3175 -0.2306  0.0471
59358W        W 2452  10.705  17.999  24.203 -0.2391  0.0616 -0.0536
59359W        W 2453  12.748  17.786  21.348 -0.0637  0.0633 -0.0673
59360W        W 2454  12.167  15.928  21.644  0.0407  0.1382  0.0134
59361W        W 2455  12.362  19.060  22.794 -0.0165 -0.1526 -0.0854
59362W        W 2456  11.711  15.632  23.821 -0.1073  0.1082 -0.3112
59363W        W 2457  12.189  17.364  24.459 -0.0215  0.0533 -0.2113
59364W        W 2458  10.337  16.550  22.986 -0.0846  0.1116  0.1969
59365W        W 2459  13.181  18.418  21.614 -0.3002  0.1514 -0.0654
59366W        W 2460  10.673  17.923  25.343  0.0307 -0.0483  0.4005
59367W        W 2461  13.990  14.812  22.146  0.1217  0.0484  0.0445
59368W        W 2462  14.148  15.466  20.826  0.2432  0.2414 -0.1324
59369W        W 2463  12.170  15.695  24.683 -0.0576  0.1511 -0.3475
59370W        W 2464  11.802  14.781  24.341 -0.0097 -0.2430  0.0385
59371W        W 2465  13.424  15.135  21.610  0.2202  0.0034 -0.2638
59372W        W 2466  11.502  15.784  24.750  0.0127  0.1645 -0.1763
59373W        W 2467  14.051  13.597  26.400  0.2104  0.2653 -0.1827
59374W        W 2468  10.306  17.656  25.626 -0.2741 -0.0925 -0.0858
59375W        W 2469  13.645  18.151  21.417  0.1139 -0.4062  0.0742
59376W        W 2470  12.482  15.422  23.385 -0.3227  0.0082 -0.4507
59377W        W 2471  12.246  16.805  23.272 -0.2520  0.0857 -0.0847
59378W        W 2472  14.795  13.297  24.715  0.1897  0.0129 -0.0030
59379W        W 2473  10.994  17.245  21.221  0.0774 -0.2267 -0.1213
59380W        W 2474  13.338  14.821  23.370 -0.0748  0.2375  0.1734
59381W        W 2475  12.453  18.817  22.108 -0.1805 -0.0666  0.0108
59382W        W 2476  10.801  17.474  24.219  0.1046  0.3459 -0.2762
59383W        W 2477  12.872  17.869  23.035 -0.0282 -0.3742  0.0691
59384W        W 2478  10.612  14.707  23.153 -0.0899 -0.3962 -0.1515
59385W        W 2479  14.202  15.745  21.982  0.0840  0.0445 -0.0790
59386W        W 2480  11.879  15.497  24.294 -0.1613 -0.4674  0.0250
59387W        W 2481  13.522  14.397  23.398 -0.3496 -0.0047 -0.2126
59388W        W 2482  12.335  16.348  23.474 -0.0642 -0.2248  0.0721
59389W        W 2483  13.547  15.756  22.536  0.0927  0.0396  0.2728
59390W        W 2484  12.020  16.849  24.260  0.0105  0.0418  0.0640
59391W        W 2485  10.126  15.332  25.750  0.1434 -0.1832 -0.1025
59392W        W 2486  12.060  15.675  21.262  0.4231  0.1065 -0.2778
59393W        W 2487  13.761  15.246  22.061  0.1903 -0.0023  0.0411
59394W        W 2488  12.693  16.498  25.381 -0.1994  0.0683  0.2091
59395W        W 2489  10.994  14.896  24.968  0.0108 -0.1505 -0.0968
59396W        W 2490  12.550  14.990  23.006 -0.0921  0.0120 -0.2126
59397W        W 2491  11.991  15.573  23.370  0.1838  0.1777 -0.1523
59398W        W 2492  12.329  15.804  23.704 -0.2249  0.0011 -0.0787
59399W        W 2493  13.434  16.797  24.320 -0.3499  0.3177 -0.1367
59400W        W 2494  12.606  14.186  24.213  0.1257 -0.0036  0.1324
59401W        W 2495  14.155  17.471  20.436  0.1558  0.0488 -0.2267
59402W        W 2496  12.650  18.979  21.641  0.0775 -0.1608  0.2275
59403W        W 2497  13.825  16.415  22.522  0.0671 -0.2306  0.1857
59404W        W 2498  12.932  18.338  22.788 -0.1777  0.0076  0.0406
59405W        W 2499  10.663  14.426  25.044 -0.0758  0.0461 -0.0352
59406W        W 2500  12.185  17.988  23.565 -0.3546 -0.0035 -0.0836
59407W        W 2501  13.365  16.754  22.459  0.0161  0.0983  0.3231
59408W        W 2502  11.916  13.845  22.639  0.0820  0.3353 -0.0046
59409W        W 2503  13.139  14.451  23.715 -0.0973 -0.1268 -0.1427
59410W        W 2504  10.926  17.914  23.726  0.3743  0.1429 -0.2555
59411W        W 2505  14.840  14.129  22.236 -0.0582  0.0635  0.0097
59412W        W 2506  14.290  15.670  24.007  0.1157  0.1296 -0.0671
59413W        W 2507  11.246  17.712  21.266  0.0117  0.0429  0.1357
59414W        W 2508  13.277  15.307  25.642 -0.4153 -0.0383 -0.0717
59415W        W 2509  12.059  16.561  25.005  0.1205 -0.0217  0.2100
59416W        W 2510  11.932  18.338  25.439  0.1340 -0.2891  0.0423
59417W        W 2511  11.984  16.922  22.100 -0.0991  0.2724  0.2853
59418W        W 2512  12.660  17.108  24.466  0.1753  0.2522  0.2481
59419W        W 2513  11.859  17.890  23.228  0.2526  0.1750  0.0593
59420W        W 2514  12.580  16.810  20.982  0.1076  0.0784 -0.1350
59421W        W 2515  13.378  16.235  22.406  0.1477 -0.1392 -0.0061
59422W        W 2516  12.537  14.408  23.017 -0.0480 -0.1669 -0.2803
59423W        W 2517  13.097  14.101  24.594  0.5516  0.1722 -0.3501
59424W        W 2518  14.147  13.798  23.710  0.1813 -0.0721  0.0164
59425W        W 2519  12.691  14.622  23.470  0.5622 -0.0122 -0.1219
59426W        W 2520  11.477  16.918  25.242 -0.1182  0.0827  0.1243
59427W        W 2521  11.537  16.353  22.736  0.2981  0.5023  0.0104
59428W        W 2522  10.796  17.909  24.759 -0.2494  0.2078  0.1835
59429W        W 2523  12.796  16.126  24.510 -0.2937  0.0508 -0.1692
59430W        W 2524  12.854  14.517  24.501  0.1437 -0.0921 -0.1286
59431W        W 2525  10.665  15.647  24.691 -0.2017  0.0748 -0.1509
59432W        W 2526  11.075  16.566  24.419  0.0347  0.0468  0.1003
59433W        W 2527  10.976  13.350  21.981 -0.1524 -0.0482  0.1220
59434W        W 2528  12.833  19.220  22.092  0.1113  0.2108  0.0186
59435W        W 2529  11.453  14.271  25.817  0.2823  0.1310  0.2081
59436W        W 2530  10.835  14.959  23.598  0.0524  0.0602 -0.0532
59437W        W 2531  13.212  17.385  21.670  0.1652 -0.2824 -0.1819
59438W        W 2532  13.914  17.064  21.702 -0.0873  0.0900 -0.3302
59439W        W 2533  11.976  15.204  23.692 -0.0676 -0.0301 -0.1332
59440W        W 2534  12.971  16.756  24.594 -0.0973  0.2457 -0.1728
59441W        W 2535  10.579  17.087  23.152  0.3002  0.0735  0.2063
59442W        W 2536  12.596  16.446  26.285 -0.0379  0.1147  0.0970
59443W        W 2537  11.440  15.478  26.064 -0.3519 -0.5649 -0.0280
59444W        W 2538  11.317  14.867  23.106 -0.1381 -0.1574  0.1479
59445W        W 2539  13.272  15.398  22.814 -0.0948 -0.3008  0.1073
59446W        W 2540  12.072  18.217  22.206 -0.2861 -0.1047  0.0946
59447W        W 2541  12.627  20.580  22.521  0.1563  0.0233  0.0116
59448W        W 2542  11.882  16.086  24.877  0.4927  0.0545 -0.0735
59449W        W 2543  11.516  17.929  25.990  0.0716 -0.1167  0.1341
59450W        W 2544  10.246  14.887  27.856  0.2974 -0.3851 -0.0307
59451W        W 2545  12.557  16.023  22.761  0.2347  0.1493  0.0509
59452W        W 2546  11.995  17.816  25.215  0.1751 -0.0843  0.2992
59453W        W 2547  14.854  13.813  22.691 -0.3115  0.4507  0.1064
59454W        W 2548  13.407  15.187  22.377  0.0745  0.2862  0.1257
59455W        W 2549  12.828  15.970  26.222 -0.3442  0.0982  0.3596
59456W        W 2550  12.049  18.501  24.988 -0.2753  0.2558  0.0755
59457W        W 2551  14.037  16.480  22.961  0.0973 -0.0974 -0.1100
59458W        W 2552  11.816  14.423  22.527 -0.1873  0.1999  0.1622
59459W        W 2553  12.061  13.614  23.221 -0.1136  0.1846 -0.1872
59460W        W 2554  12.943  17.676  22.009  0.2012  0.0561  0.1608
59461W        W 2555  11.334  15.002  26.076  0.3998  0.3209  0.0559
59462W        W 2556  13.027  15.527  22.391 -0.0557  0.2422  0.0279
59463W        W 2557  11.138  15.714  25.607 -0.3348 -0.1869  0.0523
59464W        W 2558  12.868  16.787  24.101 -0.0740 -0.0877  0.3317
59465W        W 2559  13.125  16.376  24.247 -0.0190  0.2122 -0.2797
59466W        W 2560  12.861  15.634  21.150  0.1017  0.1287  0.0576
59467W        W 2561  14.213  17.238  21.275  0.1367 -0.0548 -0.2742
59468W        W 2562  13.073  17.609  24.590 -0.1743  0.1633  0.0594
59469W        W 2563  12.985  18.005  24.342 -0.1136 -0.1836 -0.1020
59470W        W 2564  12.777  17.008  23.223 -0.2182  0.0060  0.0968
59471W        W 2565  12.495  15.039  23.768 -0.0395  0.1107 -0.1991
59472W        W 2566  11.067  14.638  27.363 -0.1138  0.0297 -0.0028
59473W        W 2567  11.940  17.192  23.227 -0.0422 -0.2793  0.0150
59474W        W 2568  12.233  15.218  24.121  0.1758 -0.0253 -0.1255
59475W        W 2569  13.492  16.300  22.968  0.0554 -0.1186  0.1918
59476W        W 2570  12.740  15.074  24.447 -0.0218 -0.0337  0.2087
59477W        W 2571  14.612  13.837  23.223  0.2403 -0.0949  0.1177
59478W        W 2572  12.134  17.334  24.967 -0.0640 -0.1563 -0.1560
59479W        W 2573  12.787  15.956  23.474 -0.0919 -0.3329 -0.0277
59480W        W 2574  12.772  17.598  29.475 -0.5031 -0.2947  0.1321
59481W        W 2575  11.422  16.255  28.252 -0.0472 -0.2118  0.1364
59482W        W 2576  13.657  14.630  25.781 -0.0982 -0.1014 -0.4416
59483W        W 2577  14.386  16.490  25.520  0.2429  0.3588 -0.0211
59484W        W 2578  12.897  14.933  27.584 -0.0069 -0.0436 -0.3990
59485W        W 2579  12.773  17.438  25.856  0.0812 -0.0196 -0.1868
59486W        W 2580  12.152  15.673  28.658  0.0663 -0.0297  0.1845
59487W        W 2581  14.050  16.911  26.927 -0.3744 -0.0351 -0.0050
59488W        W 2582  14.625  17.788  27.176  0.1595 -0.1010  0.1859
59489W        W 2583  12.741  15.406  25.567  0.0607 -0.1109 -0.5123
59490W        W 2584  12.263  16.859  30.612 -0.0409  0.0186 -0.3763
59491W        W 2585  12.182  16.813  29.328  0.2791  0.1753 -0.0681
59492W        W 2586  13.036  15.297  26.109 -0.1649 -0.2923  0.3135
59493W        W 2587  11.375  13.776  28.505  0.3818  0.0169 -0.0927
59494W        W 2588  13.398  14.987  29.069  0.1727 -0.0862  0.1761
59495W        W 2589  10.672  16.491  26.989  0.1976 -0.1707  0.0022
59496W        W 2590  12.520  15.490  28.245 -0.1950 -0.2666 -0.1199
59497W        W 2591  13.918  15.123  26.338 -0.1861 -0.2368  0.0383
59498W        W 2592  13.569  18.279  25.674 -0.2276  0.1637 -0.0906
59499W        W 2593  13.241  15.103  29.611  0.0043  0.1367 -0.0126
59500W        W 2594  13.706  15.430  31.009  0.0538 -0.1347 -0.0148
59501W        W 2595  12.946  17.860  26.661 -0.1076  0.2309 -0.0951
59502W        W 2596  11.566  16.561  26.065 -0.1696 -0.2350 -0.0057
59503W        W 2597  12.954  15.248  28.840 -0.0830 -0.0953  0.0443
59504W        W 2598  11.986  16.412  30.608 -0.0583  0.1578 -0.1437
59505W        W 2599  13.853  15.658  26.528 -0.0420 -0.2420 -0.0028
59506W        W 2600  15.502  14.955  27.491 -0.3132  0.1355 -0.4763
59507W        W 2601  12.639  18.267  27.800 -0.1430  0.0277 -0.1322
59508W        W 2602  11.751  18.345  26.099 -0.1221 -0.3229  0.0870
59509W        W 2603  13.301  16.669  29.393 -0.2728  0.2214 -0.2058
59510W        W 2604  10.951  17.381  26.508  0.0923 -0.0409 -0.0799
59511W        W 2605  11.932  18.194  27.609  0.1940 -0.1099  0.1984
59512W        W 2606  12.934  16.851  26.382  0.4749 -0.0489 -0.2302
59513W        W 2607  14.701  17.187  25.463 -0.0804 -0.1985 -0.0259
59514W        W 2608  13.867  17.201  28.607 -0.2465 -0.0248 -0.0607
59515W        W 2609  13.445  18.105  27.904 -0.0091  0.2161  0.0571
59516W        W 2610  13.020  17.848  26.108  0.0133  0.0844  0.2425
59517W        W 2611  13.320  17.181  28.616 -0.2096  0.0226 -0.1950
59518W        W 2612  11.535  16.818  30.132 -0.2273 -0.2789 -0.0820
59519W        W 2613  13.655  16.008  27.953  0.2164 -0.0664 -0.1654
59520W        W 2614  12.817  16.316  28.197 -0.1632  0.1086  0.1042
59521W        W 2615  11.821  17.778  26.316 -0.0574  0.3946 -0.0269
59522W        W 2616  12.963  17.301  26.700 -0.2037 -0.3665 -0.1630
59523W        W 2617  12.693  16.765  30.168 -0.1845 -0.5705 -0.0021
59524W        W 2618  10.764  18.242  28.518 -0.1797 -0.0147 -0.2071
59525W        W 2619  13.652  16.355  31.083 -0.2910 -0.1394 -0.0199
59526W        W 2620  10.986  17.605  26.055  0.0072 -0.1266  0.0881
59527W        W 2621  13.879  14.526  25.002  0.1456 -0.0289 -0.1782
59528W        W 2622  13.281  15.616  26.444 -0.0237  0.1989  0.1514
59529W        W 2623  13.027  15.346  28.010 -0.1875 -0.0849 -0.4130
59530W        W 2624  11.859  17.211  28.880  0.0729  0.3754 -0.1319
59531W        W 2625  13.843  14.487  28.884 -0.2991 -0.1949  0.2851
59532W        W 2626  14.512  17.453  29.106  0.1053  0.0287  0.1350
59533W        W 2627  13.210  16.239  26.316 -0.0964  0.4285  0.0443
59534W        W 2628  13.643  16.404  29.110  0.0104  0.5640  0.2694
59535W        W 2629  12.375  16.918  29.757 -0.0713 -0.0331 -0.1493
59536W        W 2630  12.033  16.737  28.757 -0.0540  0.0204  0.1816
59537W        W 2631  14.122  16.920  25.240 -0.0128 -0.1446  0.0724
59538W        W 2632  12.015  17.109  27.605  0.2121  0.0715  0.1635
59539W        W 2633  11.064  16.693  30.512  0.2712 -0.3094 -0.0929
59540W        W 2634  11.356  16.015  29.141  0.2878  0.1434  0.1568
59541W        W 2635  12.781  15.805  27.979 -0.2545  0.0623  0.0834
59542W        W 2636  11.609  16.341  28.750 -0.0488  0.2006 -0.1488
59543W        W 2637  15.397  14.537  28.030  0.1901 -0.2800  0.2572
59544W        W 2638  12.397  16.552  28.297  0.0247 -0.1609  0.1075
59545W        W 2639  14.362  16.921  27.401  0.0802  0.0647 -0.0405
59546W        W 2640  13.336  15.350  28.472 -0.1569  0.3346  0.0326
59547W        W 2641  13.841  16.743  29.390  0.1041  0.3309 -0.2862
59548W        W 2642  11.541  16.865  27.265  0.4760 -0.2945  0.0532
59549W        W 2643  12.242  16.600  27.086  0.0220  0.0255  0.0539
59550W        W 2644  13.852  18.599  28.045 -0.1442  0.3935 -0.0963
59551W        W 2645  14.288  15.988  25.439  0.1833  0.1403 -0.1706
59552W        W 2646  10.553  18.162  30.386 -0.0025  0.0997 -0.1499
59553W        W 2647  12.727  15.009  29.212 -0.0294  0.0487  0.0652
59554W        W 2648  13.298  17.855  28.296 -0.1508  0.2375  0.0033
59555W        W 2649  11.094  19.264  25.975 -0.2050 -0.2149  0.0501
59556W        W 2650  11.406  16.723  28.056 -0.0525  0.4094 -0.0864
59557W        W 2651  12.182  17.354  26.612  0.0087 -0.2078 -0.2811
59558W        W 2652  12.016  14.578  28.959  0.0248 -0.3504 -0.0399
59559W        W 2653  12.728  17.269  28.540  0.0856 -0.0837  0.4673
59560W        W 2654  14.568  15.097  26.232 -0.4844 -0.0939 -0.2199
59561W        W 2655  12.848  14.401  30.127 -0.1481  0.2550  0.1680
59562W        W 2656  14.463  15.254  27.851  0.1269  0.0818 -0.5909
59563W        W 2657  12.183  16.137  27.468 -0.8522  0.1035  0.2475
59564W        W 2658  14.371  17.593  25.787  0.1501 -0.1678  0.2091
59565W        W 2659  14.397  14.190  26.016 -0.0637  0.1901 -0.1723
59566W        W 2660  13.130  16.300  25.244 -0.4162 -0.1285  0.0796
59567W        W 2661  11.649  15.903  29.652 -0.0285  0.2667 -0.0369
59568W        W 2662  12.506  15.973  27.084 -0.0874 -0.0022  0.0520
59569W        W 2663  12.245  15.488  29.915  0.1213  0.1859  0.0095
59570W        W 2664  10.627  14.607  27.677 -0.0356 -0.1897 -0.1758
59571W        W 2665  13.757  16.534  28.002  0.1956  0.0104 -0.1952
59572W        W 2666  12.882  14.252  27.544  0.2774 -0.1128  0.1602
59573W        W 2667  13.812  15.169  27.109  0.1421 -0.1675  0.0825
59574W        W 2668  13.306  14.817  27.933  0.0372  0.2489  0.1467
59575W        W 2669  13.329  18.142  26.882  0.4839  0.2158 -0.0526
59576W        W 2670  13.738  14.495  30.677  0.0164 -0.0759  0.2231
59577W        W 2671  12.460  19.134  25.255 -0.0327  0.2091 -0.3439
59578W        W 2672  15.073  18.525  29.012  0.4501 -0.0242 -0.1825
59579W        W 2673  13.516  18.611  27.486  0.0912 -0.2449  0.0551
59580W        W 2674  11.530  15.901  30.165  0.0552  0.1647  0.2535
59581W        W 2675  10.957  16.046  27.372 -0.2617 -0.1012 -0.1363
59582W        W 2676  11.243  19.501  28.928 -0.0252 -0.1561  0.0529
59583W        W 2677  11.673  17.132  27.996 -0.3090 -0.1669 -0.2710
59584W        W 2678  11.440  15.276  28.432  0.0011 -0.1853  0.0907
59585W        W 2679  12.672  16.425  27.263  0.2119 -0.3805 -0.1558
59586W        W 2680  11.563  18.135  29.588  0.0603 -0.0666  0.0116
59587W        W 2681  14.038  14.405  30.265 -0.4297 -0.0337  0.2548
59588W        W 2682  15.354  15.091  27.959  0.0723 -0.0443  0.1030
59589W        W 2683  12.983  17.148  27.597  0.0618 -0.1575  0.2568
59590W        W 2684  11.403  15.907  26.356  0.1990  0.4700 -0.3492
59591W        W 2685  11.878  17.461  25.718  0.1269 -0.0855 -0.1406
59592W        W 2686  11.344  17.244  27.600 -0.2177 -0.1377 -0.3175
59593W        W 2687  12.317  17.896  29.377 -0.0108 -0.0090  0.0141
59594W        W 2688  14.424  16.410  27.576 -0.3867 -0.1994 -0.2559
59595W        W 2689  10.545  15.455  31.073 -0.2121  0.2460  0.0277
59596W        W 2690  13.317  15.975  29.321 -0.1594  0.1317  0.0398
59597W        W 2691  10.471  16.263  27.785  0.0839 -0.2708 -0.0392
59598W        W 2692  12.642  17.165  30.698  0.0499  0.2174  0.1010
59599W        W 2693  12.892  14.083  26.043 -0.4012 -0.1505 -0.0537
59600W        W 2694  14.634  15.172  25.622 -0.1024  0.2914  0.1941
59601W        W 2695  13.264  16.355  28.019 -0.0177  0.2186 -0.1412
59602W        W 2696  13.402  14.390  24.875  0.2846  0.2392 -0.0737
59603W        W 2697  12.762  14.957  26.351 -0.0196  0.2674 -0.2055
59604W        W 2698  12.469  16.558  28.988 -0.1689  0.2507  0.0588
59605W        W 2699  14.227  15.499  26.239  0.1111  0.0841  0.1214
59606W        W 2700  12.509  16.919  27.523 -0.2413 -0.1659  0.0184
59607W        W 2701  13.133  15.677  25.321 -0.2144  0.3016 -0.2928
59608W        W 2702  15.463  16.946  25.737 -0.1085 -0.4373  0.1794
59609W        W 2703  10.837  17.750  28.394  0.4629 -0.2040 -0.5014
59610W        W 2704  12.700  17.634  30.041  0.2118 -0.0410  0.0506
59611W        W 2705  13.056  16.275  27.531 -0.4711  0.0054  0.1871
59612W        W 2706  12.115  15.936  29.548  0.2758  0.4762  0.2377
59613W        W 2707  11.418  16.042  25.252  0.2404  0.0745  0.0305
59614W        W 2708  13.263  14.387  29.064 -0.0559  0.0762 -0.3937
59615W        W 2709  11.575  18.169  26.552  0.0718  0.1370  0.0325
59616W        W 2710  12.818  15.896  29.320 -0.0402  0.0017 -0.1268
59617W        W 2711  13.712  14.836  28.571 -0.0255  0.2228  0.3231
59618W        W 2712  12.025  13.477  29.417 -0.1140  0.0362 -0.1134
59619W        W 2713  13.200  16.136  31.091  0.3233 -0.3950 -0.2809
59620W        W 2714  13.932  16.232  25.636  0.2784 -0.0312 -0.1544
59621W        W 2715  14.876  16.258  27.638 -0.0837  0.1882 -0.1885
59622W        W 2716  12.451  16.224  25.801 -0.1039 -0.1396 -0.0683
59623W        W 2717  13.206  14.749  30.003 -0.2073  0.1358 -0.1093
59624W        W 2718  12.322  16.431  29.639 -0.0670 -0.0383 -0.2438
59625W        W 2719   9.705  18.821  29.551 -0.1187 -0.1729 -0.4918
59626W        W 2720  13.605  17.002  29.096 -0.0095 -0.0546  0.1048
59627W        W 2721  12.792  16.620  29.681  0.1574  0.0870  0.0863
59628W        W 2722  12.007  15.863  25.607 -0.1505 -0.1467  0.3897
59629W        W 2723  11.191  17.916  25.069 -0.1008  0.3679  0.4329
59630W        W 2724  12.079  18.166  26.517  0.0136 -0.0781 -0.2902
59631W        W 2725  12.105  16.233  28.721  0.3015  0.0707 -0.2546
59632W        W 2726  13.119  16.972  28.095  0.0858  0.1128 -0.0428
59633W        W 2727  10.990  18.334  25.350 -0.0446 -0.0267  0.2440
59634W        W 2728  14.399  17.304  27.092  0.0537  0.1264  0.1520
59635W        W 2729  11.837  17.663  27.763  0.0586 -0.0557 -0.0407
59636W        W 2730  13.819  15.939  29.036 -0.2500 -0.1112  0.0242
59637W        W 2731  10.188  18.502  27.838  0.0592 -0.0056 -0.0002
59638W        W 2732  11.711  16.497  27.029  0.3686  0.1865  0.0274
59639W        W 2733  10.833  15.883  26.917 -0.0344  0.0724 -0.1429
59640W        W 2734  13.898  15.972  27.059  0.1233  0.1780  0.1424
59641W        W 2735  11.305  15.535  29.287 -0.1620  0.0708 -0.0879
59642W        W 2736  13.989  16.502  27.341 -0.4380  0.3759 -0.4708
59643W        W 2737  11.476  17.823  28.285  0.0523  0.2764  0.1307
59644W        W 2738  12.604  15.526  29.511  0.4019 -0.0287  0.2285
59645W        W 2739  14.195  15.084  27.405 -0.0722 -0.0228  0.1607
59646W        W 2740  11.971  17.977  28.197 -0.0181 -0.2384  0.1234
59647W        W 2741  12.693  16.090  29.794 -0.1912  0.1500  0.2240
59648W        W 2742  11.205  15.464  26.971 -0.0514  0.1549 -0.2124
59649W        W 2743  14.552  15.748  29.405  0.1074 -0.4474  0.4113
59650W        W 2744  12.853  16.625  27.788 -0.4782  0.0204 -0.1235
59651W        W 2745  11.901  16.362  29.177  0.2501 -0.0068 -0.0219
59652W        W 2746  13.092  18.127  27.565 -0.0546 -0.2421  0.3456
59653W        W 2747  12.184  16.681  26.040  0.1796  0.0093 -0.4055
59654W        W 2748  12.256  17.447  28.699  0.0914  0.2119 -0.1720
59655W        W 2749  12.208  15.911  30.467 -0.0498  0.1522 -0.1388
59656W        W 2750  15.257  16.663  27.553  0.0768  0.2723 -0.0501
59657W        W 2751  13.537  15.847  29.840  0.1120  0.2608 -0.1148
59658W        W 2752  12.402  16.308  27.893  0.1820 -0.0248  0.3211
59659W        W 2753  13.391  15.004  26.170  0.1878 -0.0233  0.1599
59660W        W 2754  14.791  16.812  27.701 -0.1037  0.0815 -0.3242
59661W        W 2755  13.044  14.669  29.370  0.1507 -0.3269  0.1384
59662W        W 2756  10.721  17.086  30.644 -0.0732 -0.0744 -0.0547
59663W        W 2757  13.375  13.273  29.101 -0.3653  0.0488 -0.0212
59664W        W 2758  15.885  17.388  25.780  0.0396 -0.1266  0.2489
59665W        W 2759  12.664  16.252  28.643  0.0350  0.1604 -0.0861
59666W        W 2760  12.346  17.957  24.764  0.0832 -0.0846 -0.0225
59667W        W 2761  12.263  15.793  27.875  0.0624 -0.3283  0.0083
59668W        W 2762  12.722  15.974  25.461 -0.1564  0.0316 -0.2692
59669W        W 2763  14.014  16.185  30.059  0.0450 -0.0919  0.0860
59670W        W 2764  11.297  17.220  30.414  0.2551  0.2034  0.1197
59671W        W 2765  12.594  18.249  26.555  0.1288  0.1986 -0.2730
59672W        W 2766  11.338  16.967  29.495  0.0636 -0.0965 -0.1594
59673W        W 2767  14.170  14.778  26.951 -0.1761 -0.1452 -0.1103
59674W        W 2768  12.986  17.364  25.373  0.0302 -0.0998  0.0959
59675W        W 2769  13.241  15.945  28.268 -0.0909 -0.2385 -0.1196
59676W        W 2770  13.563  15.874  30.804  0.0432  0.2230 -0.0198
59677W        W 2771  12.245  16.633  25.525  0.1148  0.0121  0.2648
59678W        W 2772  12.978  14.940  31.469  0.1038 -0.0953 -0.1567
59679W        W 2773  11.931  14.187  29.738 -0.0250 -0.2144 -0.1376
59680W        W 2774  11.418  15.047  29.602 -0.0577 -0.2751 -0.1095
59681W        W 2775  12.977  18.932  29.735 -0.0326 -0.1521 -0.1532
59682W        W 2776  12.919  16.836  28.955  0.0638 -0.0362  0.2254
59683W        W 2777  14.434  13.645  26.101  0.0902 -0.3530  0.0689
59684W        W 2778  13.388  15.535  27.037 -0.1536  0.1289 -0.3456
59685W        W 2779  13.237  15.797  27.702 -0.0952  0.0705 -0.3192
59686W        W 2780  14.244  16.395  26.878  0.3861 -0.0777 -0.1029
59687W        W 2781  12.333  15.689  25.186  0.1076  0.0459  0.1189
59688W        W 2782  12.956  16.358  29.209  0.3396 -0.1150  0.1470
59689W        W 2783  12.554  17.045  28.053 -0.3327  0.3687  0.0390
59690W        W 2784  13.213  16.335  27.072  0.0817 -0.0477  0.0606
59691W        W 2785  13.467  16.062  25.809 -0.1662  0.0969  0.2684
59692W        W 2786  11.871  16.491  28.355  0.0494 -0.4294 -0.1210
59693W        W 2787  12.577  14.146  29.798 -0.1527  0.0895  0.0685
59694W        W 2788  14.441  14.713  26.531  0.0639  0.1727  0.0261
59695W        W 2789  12.756  15.342  29.953  0.2296  0.3811  0.0124
59696W        W 2790  13.684  16.315  29.622  0.0051  0.2183 -0.1431
59697W        W 2791  13.116  15.604  29.702  0.1855  0.2697  0.0518
59698W        W 2792  10.227  16.856  30.454  0.2679  0.0696  0.2215
59699W        W 2793  12.930  17.407  28.104  0.1330 -0.0908 -0.1683
59700W        W 2794  13.564  15.536  26.000  0.0273 -0.0079 -0.1890
59701W        W 2795  13.632  15.578  29.428  0.2531  0.0320  0.0955
59702W        W 2796  14.424  15.899  25.939 -0.1668 -0.0865 -0.0925
59703W        W 2797  11.942  15.170  26.890 -0.0747 -0.0982  0.0156
59704W        W 2798  12.890  16.338  26.655  0.1909  0.1042 -0.0509
59705W        W 2799  12.840  16.752  28.457  0.0156  0.0022  0.1010
59706W        W 2800  12.538  14.593  25.753 -0.1479  0.2480 -0.2795
59707W        W 2801  14.587  15.249  28.468 -0.1042 -0.1819 -0.2352
59708W        W 2802  12.619  17.945  25.756  0.1210 -0.4830 -0.2523
59709W        W 2803  13.875  17.841  27.873 -0.0925 -0.2493 -0.0961
59710W        W 2804  13.011  15.253  26.741 -0.0300  0.2105 -0.2338
59711W        W 2805  11.686  15.689  27.226 -0.3419 -0.0312 -0.0479
59712W        W 2806  11.390  17.164  28.992 -0.2834 -0.0818 -0.0988
59713W        W 2807  11.915  16.222  25.972  0.3637 -0.4236 -0.0700
59714W        W 2808  13.307  16.692  26.594 -0.1093  0.0207  0.1292
59715W        W 2809  15.255  16.362  27.962 -0.0207  0.1373 -0.1083
59716W        W 2810  13.912  16.747  28.823 -0.1346  0.0594 -0.2894
59717W        W 2811  12.446  15.713  25.912  0.2237  0.0812  0.2213
59718W        W 2812  14.532  16.003  28.986 -0.0566  0.1123 -0.0665
59719W        W 2813  12.109  17.765  27.341 -0.2233  0.0531  0.0278
59720W        W 2814  14.018  15.670  28.086  0.0285  0.1829 -0.2030
59721W        W 2815  12.226  18.670  28.972 -0.1425 -0.0183  0.0457
59722W        W 2816   9.515  18.365  29.778  0.1826  0.2300  0.0103
59723W        W 2817  10.057  17.990  27.696  0.1723  0.0397  0.3257
59724W        W 2818  13.510  14.676  29.576 -0.0803 -0.0007  0.0930
59725W        W 2819  14.247  15.252  26.730 -0.0156  0.1154  0.1558
59726W        W 2820  13.337  17.273  27.249  0.0375  0.0468  0.0705
59727W        W 2821  14.604  16.608  28.770  0.1125 -0.0612  0.0626
59728W        W 2822  12.438  17.229  30.194  0.2085  0.1502 -0.1112
59729W        W 2823  11.849  15.243  28.725  0.0387  0.0706  0.0958
59730W        W 2824  13.093  17.195  29.260 -0.0727 -0.0114  0.1240
59731W        W 2825  11.063  16.878  28.372 -0.0904 -0.1674 -0.2470
59732W        W 2826  11.479  16.324  31.692  0.1433 -0.0207  0.1337
59733W        W 2827  13.323  16.241  30.529  0.0220  0.2358  0.1024
59734W        W 2828  14.157  16.197  28.124 -0.2784 -0.2252  0.0960
59735W        W 2829  13.554  15.458  28.033  0.1938  0.0063 -0.3404
59736W        W 2830  10.828  17.142  26.109 -0.1781  0.1256 -0.1825
59737W        W 2831  11.260  16.791   0.016 -0.4934 -0.1445  0.0445
59738W        W 2832  10.542  17.444  28.702  0.1370  0.0936  0.0183
59739W        W 2833  10.697  18.562  27.778  0.1590 -0.2952  0.0551
59740W        W 2834  13.537  17.114  26.774  0.2073 -0.1032 -0.2613
59741W        W 2835  13.326  16.711  26.033  0.0115  0.0335  0.0168
59742W        W 2836  13.721  17.577  28.292 -0.1093  0.1471 -0.2055
59743W        W 2837  12.571  15.305  24.830  0.1630 -0.0651 -0.1744
59744W        W 2838  11.566  16.917  28.517  0.1243 -0.0223 -0.3675
59745W        W 2839  10.985  18.562  27.211  0.0491  0.0085  0.0581
59746W        W 2840  12.101  16.996  28.367 -0.1524 -0.3026  0.0499
59747W        W 2841  14.585  17.595  29.954  0.0379 -0.1568 -0.0806
59748W        W 2842  13.267  15.046  27.148  0.0967 -0.0439  0.2283
59749W        W 2843  11.692  17.652  29.786  0.4839 -0.0429 -0.0781
59750W        W 2844  13.666  17.004  28.185 -0.0039  0.0403 -0.1547
59751W        W 2845  12.652  14.150  28.037 -0.0631  0.0045  0.0525
59752W        W 2846  12.417  16.338  30.271  0.2490 -0.0179  0.1895
59753W        W 2847  14.776  14.246  29.286  0.0221 -0.2647  0.3541
59754W        W 2848  11.836  18.175  30.147  0.1651  0.0952 -0.2685
59755W        W 2849  10.426  14.216  28.373  0.4094  0.1420  0.3046
59756W        W 2850  11.796  16.230  27.807  0.1479 -0.5842  0.1478
59757W        W 2851  13.700  14.729  30.110 -0.1002 -0.2876  0.2075
59758W        W 2852  13.111  16.789  25.480  0.1037 -0.1181  0.1023
59759W        W 2853  13.676  15.678  28.474 -0.0591 -0.2561  0.4163
59760W        W 2854  12.559  17.214  26.323 -0.0932 -0.2316  0.0396
59761W        W 2855  12.146  16.746  27.947  0.1857  0.0964  0.1301
59762W        W 2856  13.563  16.832  27.223 -0.0902  0.0202  0.1440
59763W        W 2857  12.686  15.505  26.409 -0.0076 -0.2018 -0.0970
59764W        W 2858  13.547  16.342  27.541  0.2048  0.0368  0.1377
59765W        W 2859  12.408  15.945  28.325  0.2550  0.1782 -0.0622
59766W        W 2860  14.225  16.127  28.632  0.1300  0.1493 -0.2105
59767W        W 2861  11.082  15.552  28.774 -0.0357  0.2024  0.1191
59768W        W 2862  13.541  14.337  27.637  0.0736 -0.1298  0.3897
59769W        W 2863  13.336  16.814  27.662  0.0839 -0.0829  0.1121
59770W        W 2864  12.246  13.959  29.419  0.0981 -0.0966 -0.0245
59771W        W 2865  14.072  16.235  26.436  0.0525 -0.2086  0.1695
59772W        W 2866  14.359  17.027  28.824 -0.0178  0.0759  0.0847
59773W        W 2867  13.095  15.753  24.184  0.1340  0.0908 -0.0091
59774W        W 2868  12.977  18.449  29.449 -0.2439 -0.1006 -0.2096
59775W        W 2869  11.893  15.255  27.424  0.0352  0.1223  0.0498
59776W        W 2870  13.953  15.267  27.740 -0.0337  0.1102  0.2692
59777W        W 2871  12.352  15.992  26.295  0.0363  0.2631  0.1718
59778W        W 2872  13.140  15.527  29.204  0.0466  0.3227  0.1704
59779W        W 2873  13.537  17.332  27.783  0.2696  0.1213  0.0369
59780W        W 2874  13.157  14.174  27.946 -0.1549 -0.2310 -0.0669
59781W        W 2875  13.312  16.439  24.726  0.1053 -0.0564  0.2569
59782W        W 2876  14.360  16.037  27.302  0.0482 -0.1183 -0.1419
59783W        W 2877  11.509  18.598  27.234 -0.3630 -0.0592  0.0714
59784W        W 2878  13.549  15.949  26.713  0.0029  0.3559 -0.4157
59785W        W 2879  12.773  15.499  27.070  0.0084 -0.0411 -0.0381
59786W        W 2880  13.795  19.414  27.368  0.0333  0.1727 -0.2978
59787W        W 2881  11.768  14.452  27.036 -0.1691 -0.1387  0.0749
59788W        W 2882  12.575  17.569  29.018  0.1235  0.0759  0.0722
59789W        W 2883  12.516  17.691  26.867  0.0357  0.3169  0.1039
59790W        W 2884  14.462  14.443  27.998  0.1811 -0.3347  0.3365
59791W        W 2885  14.296  17.042  30.548  0.0946 -0.4219  0.1279
59792W        W 2886  12.333  18.454  25.785  0.1220 -0.0487 -0.0810
59793W        W 2887  12.630  15.784  30.182 -0.0133 -0.1686 -0.0824
59794W        W 2888  13.913  18.273  27.595 -0.0013  0.5993  0.3365
59795W        W 2889  11.795  16.969  29.759 -0.1368  0.0160 -0.2035
59796W        W 2890  11.939  16.097  26.974  0.0143  0.0824 -0.1694
59797W        W 2891  13.534  16.645  28.468 -0.0371 -0.1517  0.1602
59798W        W 2892  12.260  17.590  26.008 -0.1076  0.0375 -0.0597
59799W        W 2893  13.365  17.155  25.737 -0.0718 -0.1161 -0.0205
59800W        W 2894  13.970  17.483  26.740  0.2339  0.0108  0.1385
59801W        W 2895  13.714  16.404  26.102 -0.0147 -0.2284 -0.0229
59802W        W 2896  14.302  17.139  26.512 -0.2805 -0.0137 -0.0646
59803W        W 2897  12.587  15.416  27.657 -0.2751  0.1220  0.0346
59804W        W 2898  14.963  15.007  26.624 -0.0202 -0.4327  0.1831
59805W        W 2899  14.190  14.819  27.792  0.0929 -0.0757 -0.1657
59806W        W 2900  11.869  15.439  29.533  0.2179 -0.1056 -0.0426
59807W        W 2901  10.833  16.713  26.484 -0.0886 -0.0414 -0.1783
59808W        W 2902  11.200  17.882  26.370  0.0689 -0.0845  0.0622
59809W        W 2903  13.552  17.955  27.413  0.0285  0.0528 -0.1722
59810W        W 2904  12.439  13.908  30.732 -0.0166 -0.0555  0.0877
59811W        W 2905  11.492  15.453  29.867 -0.0836 -0.2338 -0.0361
59812W        W 2906  13.164  16.374  28.608  0.0982 -0.0376 -0.0214
59813W        W 2907  11.629  14.809  27.343 -0.0217 -0.2907  0.0614
59814W        W 2908  14.319  17.077  25.714 -0.2118 -0.0381 -0.0527
59815W        W 2909  11.952  14.794  27.738  0.1261  0.2229  0.0073
59816W        W 2910   9.952  14.578  29.465  0.3400  0.0472  0.1453
59817W        W 2911  13.081  17.289  26.190  0.3346  0.2027  0.1141
59818W        W 2912  13.910  15.906  26.063  0.2763 -0.0997 -0.0858
59819W        W 2913  14.887  18.204  29.604 -0.3241  0.1781  0.5166
59820W        W 2914  12.474  17.138  25.309  0.0729  0.1020  0.0320
59821W        W 2915  15.110  16.555  28.393  0.3159 -0.2489  0.4033
59822W        W 2916  11.573  14.565  29.592  0.5380 -0.3091  0.0512
59823W        W 2917  10.669  15.018  27.419 -0.2315  0.0576  0.1036
59824W        W 2918  13.557  16.306  30.094  0.4023 -0.0245  0.0414
59825W        W 2919  12.727  16.843  26.925  0.0472  0.0917  0.1538
59826W        W 2920  13.873  16.933  27.621  0.1734  0.1920 -0.2283
59827W        W 2921  12.437  17.006  28.812 -0.0946  0.3128 -0.1895
59828W        W 2922  11.868  14.884  29.841  0.2476 -0.1950 -0.1111
59829W        W 2923  12.007  16.169  30.109 -0.0386  0.1868  0.1076
59830W        W 2924  14.144  16.372  25.119  0.3325  0.2429 -0.1405
59831W        W 2925  14.630  15.432  29.842  0.1378  0.0490 -0.0212
59832W        W 2926  12.963  16.306  25.811  0.2205  0.1522  0.0894
59833W        W 2927  11.063  15.659  30.047  0.1209 -0.0664 -0.0138
59834W        W 2928  11.372  15.418  30.379  0.1479 -0.2266  0.0354
59835W        W 2929  14.850  17.098  28.879 -0.3588  0.0073  0.1480
59836W        W 2930  11.254  15.209  27.357  0.2505  0.0396  0.1925
59837W        W 2931  14.221  14.818  25.598 -0.2178  0.0732 -0.0129
59838W        W 2932  13.835  17.234  27.229 -0.2769  0.1504 -0.1141
59839W        W 2933  11.554  15.777  28.612 -0.0049  0.0664 -0.2357
59840W        W 2934  12.986  15.891  26.796  0.1795  0.2292  0.1363
59841W        W 2935  13.329  17.427  29.780 -0.4571  0.0987 -0.1607
59842W        W 2936  13.096  18.312  26.471  0.0467  0.2497 -0.3215
59843W        W 2937  14.786  17.329  30.633  0.0860 -0.3627  0.0076
59844W        W 2938  12.700  15.945  27.531 -0.3370  0.1381 -0.1623
59845W        W 2939  12.595  18.396  28.718 -0.0238  0.3617 -0.2574
59846W        W 2940  12.483  18.333  29.235  0.2913  0.1214  0.1520
59847W        W 2941  13.052  17.546  28.832 -0.1012 -0.1960 -0.0705
59848W        W 2942  15.109  17.357  28.521 -0.3860  0.1086  0.3674
59849W        W 2943  11.649  14.292  29.170  0.1005  0.2956 -0.1759
59850W        W 2944  11.823  18.374  26.961 -0.2122  0.1987 -0.1084
59851W        W 2945  13.502  15.207  26.630  0.1308 -0.3533 -0.0325
59852W        W 2946  15.274  15.080  27.043 -0.0242 -0.0986  0.3886
59853W        W 2947  13.493  15.944  27.280  0.2216  0.0980 -0.0468
59854W        W 2948  13.219  14.291  26.509 -0.0839  0.0580 -0.0226
59855W        W 2949  12.977  18.697  27.582  0.3599  0.0503  0.0022
59856W        W 2950  14.378  15.700  26.902 -0.2863  0.0917  0.0157
59857W        W 2951  14.158  15.951  30.585  0.0630 -0.1323  0.2187
59858W        W 2952  13.721  16.727  29.928  0.3230  0.1279  0.0626
59859W        W 2953  10.793  15.172  30.495 -0.0892 -0.1099  0.0452
59860W        W 2954  10.756  17.331  31.144  0.1172  0.2446  0.0145
59861W        W 2955  11.574  17.693  31.504 -0.2820 -0.0416 -0.2897
59862W        W 2956  11.209  17.161  31.482 -0.2138  0.0130 -0.1149
59863W        W 2957  13.178  16.836  29.832 -0.1575 -0.0063  0.1241
59864W        W 2958  12.239  15.084  29.595  0.3385  0.1505  0.1405
59865W        W 2959  13.759  17.200  29.605  0.0634  0.4349 -0.1649
59866W        W 2960  14.805  17.905  31.029 -0.1619 -0.0491  0.0120
59867W        W 2961  12.579  17.131  29.322 -0.0628 -0.4288  0.0879
59868W        W 2962  12.321  14.495  30.113 -0.1287 -0.0885 -0.0440
59869W        W 2963  13.296  17.121  30.682  0.2018  0.1239  0.0936
59870W        W 2964  12.494  16.775  31.066 -0.1930 -0.0368  0.3114
59871W        W 2965  15.548  15.790  28.793 -0.0981 -0.1115 -0.1255
59872W        W 2966  11.010  17.505  30.708  0.0279 -0.1154 -0.0855
59873W        W 2967  10.774  17.770   0.130 -0.1868  0.0060 -0.1999
59874W        W 2968  14.016  17.653  28.733 -0.0264 -0.1116 -0.1525
59875W        W 2969  11.805  14.472  30.088  0.1394 -0.2046  0.5469
59876W        W 2970  12.873  14.935  30.314 -0.0071 -0.0494 -0.1677
59877W        W 2971  10.638  14.998  31.059 -0.0944  0.0848 -0.1914
59878W        W 2972  11.443  17.712  30.249  0.2085 -0.1496  0.1945
59879W        W 2973  13.635  15.884  31.773 -0.4730  0.1335 -0.1775
59880W        W 2974  13.390  15.499  30.537 -0.0762  0.2120  0.0201
59881W        W 2975  13.293  15.262  30.090  0.0184  0.1141 -0.0516
59882W        W 2976  13.157  15.640  31.020 -0.0288 -0.1745  0.0228
59883W        W 2977  13.180  16.253  29.781 -0.0377 -0.2101 -0.1762
59884W        W 2978  11.771  17.981  31.971  0.2187  0.3128 -0.0779
59885W        W 2979  10.647  16.141  30.566 -0.0573  0.2476 -0.3428
59886W        W 2980  13.312  17.218  31.522 -0.0929  0.0620  0.1413
59887W        W 2981  12.659  16.112  30.895  0.0413 -0.0258  0.0683
59888W        W 2982  13.349  16.400   0.894  0.1697  0.0234  0.2495
59889W        W 2983  14.899  17.680  28.935 -0.0753  0.2728 -0.0385
59890W        W 2984  13.705  16.187  28.390  0.2389  0.1354 -0.0085
59891W        W 2985  10.141  15.471  28.886  0.1554  0.0615 -0.1894
59892W        W 2986  12.371  17.304  31.257 -0.1394 -0.3447 -0.3534
59893W        W 2987  11.592  17.470  30.767 -0.1301 -0.1513  0.0408
59894W        W 2988  14.451  15.840  31.754 -0.0428 -0.2205  0.0955
59895W        W 2989  14.656  16.702  29.928 -0.0775 -0.4032  0.0535
59896W        W 2990  12.382  17.918  30.391 -0.3299  0.1352  0.0494
59897W        W 2991  14.688  16.715  30.483  0.0610  0.3498  0.1144
59898W        W 2992  13.143  15.850  30.159 -0.1118  0.1836  0.4303
59899W        W 2993  11.920  14.841  30.405  0.1018  0.2656 -0.0586
59900W        W 2994  13.826  18.357  30.471  0.0519  0.0471  0.0141
59901W        W 2995  11.366  15.931  31.158 -0.0321 -0.1808 -0.1296
59902W        W 2996  14.222  16.955  29.846 -0.0316 -0.2019 -0.0031
59903W        W 2997  12.534  14.015  30.257 -0.2598 -0.2356 -0.0660
59904W        W 2998  13.470  16.782  31.788  0.2289 -0.0031  0.0325
59905W        W 2999  14.207  17.393  31.038 -0.1236  0.1111  0.1523
59906W        W 3000  11.256  16.681  28.846  0.0340 -0.1763 -0.0532
59907W        W 3001  14.207  17.427  29.610  0.1307 -0.1219  0.2016
59908W        W 3002  13.511  14.914  31.421 -0.0964  0.1611  0.0206
59909W        W 3003  12.860  15.323  30.599  0.1458  0.0774 -0.0687
59910W        W 3004  14.036  17.355  30.097  0.0421 -0.1511  0.2685
59911W        W 3005  12.394  16.142  29.202  0.3547  0.1271  0.1566
59912W        W 3006  12.961  15.861  30.622 -0.1101  0.2295  0.0589
59913W        W 3007  12.967  18.471  30.011  0.0664  0.0531 -0.1304
59914W        W 3008  11.970  18.253  29.072 -0.1870 -0.2209  0.0807
59915W        W 3009  12.184  17.470  30.642 -0.1003 -0.3172 -0.1134
59916W        W 3010  11.395  17.251  29.884 -0.3093  0.0021 -0.0062
59917W        W 3011  11.261  16.512  29.341 -0.1558  0.3868  0.2270
59918W        W 3012  13.034  17.147  30.226 -0.0250 -0.1091  0.1140
59919W        W 3013  10.121  17.308  30.296  0.3459 -0.4160 -0.0916
59920W        W 3014  11.317  15.119  28.937  0.3404  0.0938 -0.1077
59921W        W 3015  13.505  18.645  29.511 -0.3308 -0.0679  0.1368
59922W        W 3016  14.516  17.425  28.633  0.2201  0.2542  0.1404
59923W        W 3017  14.942  16.881  30.885 -0.0478  0.1757  0.1368
59924W        W 3018  10.504  20.606  17.893  0.0486  0.0063  0.0234
59925W        W 3019  11.407  19.037  17.162 -0.0239 -0.4072  0.1541
59926W        W 3020  14.180  17.917  15.230  0.2562  0.0556 -0.1650
59927W        W 3021  13.630  19.453  17.597 -0.1174 -0.2672  0.0147
59928W        W 3022  10.772  19.440  16.025 -0.1431  0.1723 -0.1651
59929W        W 3023  13.606  23.655  17.243 -0.0974 -0.2112 -0.0093
59930W        W 3024  11.804  17.726  19.142 -0.3132 -0.0895  0.1554
59931W        W 3025  12.265  21.181  17.989 -0.0606 -0.1118 -0.1172
59932W        W 3026  13.276  20.815  17.497 -0.0148  0.2742  0.0742
59933W        W 3027  13.069  22.453  16.723  0.1159 -0.1057  0.0624
59934W        W 3028  11.443  19.308  18.913 -0.1616 -0.0033 -0.3127
59935W        W 3029  11.419  20.805  18.459 -0.4199  0.2718 -0.0532
59936W        W 3030  10.590  17.637  17.524  0.2262 -0.0298 -0.2036
59937W        W 3031  10.404  17.643  18.092  0.0496 -0.4266  0.1288
59938W        W 3032  13.157  21.382  17.680 -0.1339 -0.0989 -0.0131
59939W        W 3033  11.327  19.516  17.482  0.1949  0.1477 -0.1712
59940W        W 3034   9.309  18.724  16.865 -0.0002  0.1037  0.3690
59941W        W 3035  11.069  20.944  17.175 -0.0219  0.2368 -0.0896
59942W        W 3036  12.581  22.282  16.635  0.1340  0.3619  0.0687
59943W        W 3037  11.346  20.072  17.978 -0.3847 -0.1820  0.0100
59944W        W 3038  11.913  18.684  19.554  0.0947 -0.1604  0.3811
59945W        W 3039  11.720  21.640  17.099  0.0768  0.2326 -0.0423
59946W        W 3040   9.852  18.864  15.708  0.1059  0.3200 -0.1342
59947W        W 3041  10.771  19.299  18.936  0.1229  0.2467 -0.2168
59948W        W 3042  11.283  20.467  17.545  0.1928  0.2160 -0.1501
59949W        W 3043  13.758  19.280  17.134 -0.1381 -0.0491 -0.0595
59950W        W 3044  13.573  18.837  17.038  0.3492 -0.1608 -0.0038
59951W        W 3045  13.065  22.693  17.140 -0.0381  0.2139  0.1299
59952W        W 3046  12.489  22.804  17.469 -0.1056 -0.0907 -0.1140
59953W        W 3047  12.869  19.993  19.079  0.3677 -0.0179 -0.1248
59954W        W 3048  10.483  21.082  16.761  0.1209 -0.4309  0.3190
59955W        W 3049   9.637  21.605  17.168  0.1564 -0.1651  0.2150
59956W        W 3050  12.003  21.161  17.229 -0.2175 -0.0390  0.0523
59957W        W 3051  13.791  20.830  15.623 -0.1961  0.3235 -0.0811
59958W        W 3052  13.119  20.689  18.257  0.2474 -0.1174 -0.1723
59959W        W 3053  10.170  21.376  19.795 -0.1298 -0.0849  0.1100
59960W        W 3054  10.447  21.178  15.846 -0.1530 -0.0237  0.3425
59961W        W 3055  12.503  23.696  18.769 -0.2443 -0.2644 -0.1931
59962W        W 3056  12.141  22.331  20.500 -0.0719  0.0988 -0.0721
59963W        W 3057  11.912  20.264  19.014  0.2346 -0.0097 -0.0812
59964W        W 3058  13.206  20.271  17.588  0.2354  0.3481  0.0325
59965W        W 3059  11.010  21.658  16.516 -0.0434  0.1867  0.3201
59966W        W 3060  11.471  20.518  18.035  0.1485 -0.0497 -0.1463
59967W        W 3061  10.803  21.730  20.347  0.0956  0.1370 -0.4998
59968W        W 3062   9.814  20.926  17.992  0.1836 -0.2252 -0.1508
59969W        W 3063  12.393  19.815  19.246  0.0201 -0.0728  0.1608
59970W        W 3064  11.154  19.496  16.431  0.1047  0.0669  0.0905
59971W        W 3065  12.792  19.869  16.387 -0.0489  0.0421 -0.1742
59972W        W 3066  11.706  19.120  15.884 -0.0944 -0.1233  0.2651
59973W        W 3067  13.495  18.053  15.705 -0.2838  0.0738  0.5799
59974W        W 3068  12.095  17.616  16.568 -0.1845  0.2031 -0.0981
59975W        W 3069  12.340  22.760  16.614  0.1333 -0.1251 -0.5154
59976W        W 3070  10.922  19.615  17.803 -0.2058  0.0185 -0.2155
59977W        W 3071  13.269  22.031  18.664  0.1323 -0.3108  0.0711
59978W        W 3072  11.790  19.613  16.579 -0.4518 -0.0356 -0.2205
59979W        W 3073  10.966  19.950  18.264 -0.1473 -0.0509 -0.0486
59980W        W 3074  10.441  22.117  19.398 -0.2382  0.1480  0.1246
59981W        W 3075  11.370  18.971  17.672 -0.1918 -0.3261 -0.1844
59982W        W 3076  13.965  21.968  15.728  0.3796  0.1923  0.2774
59983W        W 3077  12.512  21.443  17.104 -0.4435  0.0720  0.2805
59984W        W 3078  12.953  21.031  15.905 -0.1036  0.2909 -0.0641
59985W        W 3079   9.993  18.781  16.216 -0.1488 -0.1799  0.2707
59986W        W 3080   8.951  19.503  19.937 -0.0482  0.2225  0.0488
59987W        W 3081  10.451  19.232  17.297  0.0268 -0.1222  0.0599
59988W        W 3082  11.052  17.790  17.426  0.0040 -0.0447  0.1544
59989W        W 3083  12.752  21.152  20.493  0.1769  0.0149  0.1838
59990W        W 3084  10.056  22.577  19.841 -0.0191 -0.2832  0.0303
59991W        W 3085  13.175  19.704  17.538 -0.1115  0.4449 -0.3197
59992W        W 3086  10.313  19.403  18.475 -0.2324  0.0610 -0.1692
59993W        W 3087  12.352  21.517  18.945  0.2432  0.1447 -0.2025
59994W        W 3088  11.772  19.349  17.386 -0.2307  0.0030  0.0604
59995W        W 3089  12.432  18.141  16.792 -0.2058 -0.1098 -0.1221
59996W        W 3090  12.684  18.376  19.024 -0.3294 -0.0855 -0.0634
59997W        W 3091  12.108  19.787  15.537  0.2769  0.0909 -0.0136
59998W        W 3092  12.241  21.020  18.612  0.1421 -0.1156  0.2780
59999W        W 3093  14.337  22.306  17.210 -0.1423  0.3687  0.1095
60000W        W 3094  14.494  20.191  15.997 -0.0427  0.3312  0.2166
60001W        W 3095  10.414  21.769  17.832 -0.3985 -0.2136 -0.0566
60002W        W 3096  11.766  18.859  19.057 -0.1439  0.1012 -0.2185
60003W        W 3097  11.920  21.371  19.943 -0.1225  0.1012 -0.0140
60004W        W 3098  10.805  20.365  16.168  0.1949 -0.1241  0.3762
60005W        W 3099   9.720  20.380  18.272 -0.2029  0.0470 -0.1182
60006W        W 3100   9.831  20.970  16.050  0.1788  0.0560 -0.0143
60007W        W 3101   9.959  18.958  18.203 -0.0649 -0.0236  0.1111
60008W        W 3102  12.073  21.605  18.512  0.3423 -0.0974 -0.1174
60009W        W 3103  14.489  19.434  16.171 -0.0919 -0.1275 -0.0125
60010W        W 3104   9.812  18.463  18.310  0.0863  0.1189 -0.1026
60011W        W 3105  13.691  17.732  17.816  0.0917  0.0024  0.1283
60012W        W 3106  11.348  21.394  16.908 -0.1316 -0.0106 -0.0439
60013W        W 3107  14.663  21.791  16.938  0.0080 -0.0653  0.1415
60014W        W 3108  14.076  20.279  16.343 -0.0359  0.0000  0.0464
60015W        W 3109  12.354  20.639  15.664 -0.0146 -0.2987 -0.0097
60016W        W 3110  10.206  19.041  17.789  0.0038 -0.0722  0.1613
60017W        W 3111  10.779  19.033  16.326 -0.1336  0.3426  0.0540
60018W        W 3112  11.597  17.373  18.254  0.0261  0.1819  0.0327
60019W        W 3113   9.202  18.353  18.140  0.3415 -0.2327  0.1626
60020W        W 3114  13.279  19.943  18.016 -0.1639 -0.3286 -0.0337
60021W        W 3115  10.093  18.515  15.349  0.1748  0.0741 -0.0836
60022W        W 3116  11.805  20.976  17.708 -0.0795 -0.1880  0.0614
60023W        W 3117  10.961  21.817  17.815 -0.1715  0.1849  0.0167
60024W        W 3118  10.845  19.754  17.305  0.0853 -0.1704 -0.0433
60025W        W 3119  12.924  18.391  18.217 -0.0513  0.3151 -0.2582
60026W        W 3120  13.146  22.575  16.188 -0.1799  0.1020 -0.0876
60027W        W 3121  14.029  22.438  18.244 -0.4676  0.0634 -0.0587
60028W        W 3122  13.003  22.901  17.668  0.1868 -0.2203 -0.0410
60029W        W 3123  11.849  18.334  19.185  0.1153 -0.2200 -0.1777
60030W        W 3124  10.447  18.707  16.578  0.0360  0.3103  0.3420
60031W        W 3125  12.174  21.593  17.510  0.0153  0.0437  0.2694
60032W        W 3126  12.587  22.528  17.076 -0.1178  0.1577 -0.1224
60033W        W 3127  11.949  18.272  16.003 -0.1886 -0.1305  0.3162
60034W        W 3128  13.362  21.310  17.203 -0.0490  0.1445 -0.2654
60035W        W 3129  11.586  20.380  17.130 -0.2552  0.0238 -0.2009
60036W        W 3130  11.029  20.805  17.862  0.1913 -0.2853 -0.0634
60037W        W 3131  11.517  18.792  18.156  0.0901  0.0566 -0.1633
60038W        W 3132  13.565  20.628  19.055 -0.1363  0.2400 -0.1651
60039W        W 3133  12.759  20.616  17.493  0.0158 -0.0328  0.0981
60040W        W 3134  10.873  19.083  15.681  0.1232 -0.0840  0.1027
60041W        W 3135  11.331  21.470  17.973 -0.1724  0.0565 -0.1895
60042W        W 3136  10.684  21.704  17.425  0.3105  0.1293  0.1601
60043W        W 3137  11.014  19.922  16.078  0.0513 -0.0405 -0.3354
60044W        W 3138  12.185  22.217  15.854 -0.0577 -0.1747  0.2651
60045W        W 3139  12.234  17.891  17.904  0.0823 -0.2435  0.2514
60046W        W 3140  10.577  19.642  19.279  0.1697  0.0336  0.0428
60047W        W 3141  12.245  19.047  18.283  0.2756  0.0831  0.2206
60048W        W 3142  10.227  19.728  15.922 -0.0680  0.2019 -0.3137
60049W        W 3143  10.897  20.208  18.689 -0.0220  0.1386 -0.1018
60050W        W 3144  11.703  17.756  16.237 -0.0075 -0.1372 -0.1290
60051W        W 3145  13.176  18.916  16.834  0.1494 -0.3689  0.0923
60052W        W 3146  13.250  20.216  18.427 -0.0902 -0.0280 -0.1297
60053W        W 3147  12.667  22.745  18.176  0.1714  0.2600 -0.1450
60054W        W 3148  12.073  19.294  15.579 -0.0942 -0.0344 -0.1091
60055W        W 3149  11.350  18.422  16.016  0.4153 -0.0316 -0.1306
60056W        W 3150  10.199  22.152  18.968 -0.1087  0.3966  0.3137
60057W        W 3151  12.213  20.915  16.551 -0.1578  0.1574 -0.2572
60058W        W 3152  11.822  20.493  17.649 -0.4033  0.0065  0.0411
60059W        W 3153  10.612  17.660  15.922  0.1499  0.3915  0.1196
60060W        W 3154  13.064  21.490  16.816 -0.2351 -0.2478  0.1456
60061W        W 3155  10.508  19.781  18.119  0.0344 -0.0609 -0.0697
60062W        W 3156  13.034  20.484  19.248  0.0775  0.1419  0.0849
60063W        W 3157  12.878  21.113  17.364 -0.2873  0.0827  0.0702
60064W        W 3158  11.222  19.287  17.988 -0.3074 -0.2882  0.0973
60065W        W 3159  11.067  20.417  16.985 -0.1526 -0.1607 -0.0507
60066W        W 3160  12.593  17.963  16.346 -0.0258 -0.1703  0.3034
60067W        W 3161  10.078  21.331  17.183 -0.0479 -0.0219  0.1031
60068W        W 3162  12.999  18.790  17.304 -0.0101 -0.1688  0.3170
60069W        W 3163  10.647  20.659  17.108 -0.1589 -0.0497 -0.2243
60070W        W 3164  11.253  17.218  17.632  0.1053 -0.2294 -0.2406
60071W        W 3165  12.843  19.631  19.530 -0.1135 -0.0117  0.0716
60072W        W 3166  11.427  19.476  16.904  0.1354 -0.0699 -0.1305
60073W        W 3167  12.268  20.512  18.710 -0.1450  0.1775 -0.1445
60074W        W 3168  10.389  20.236  15.764 -0.0435 -0.1397  0.0906
60075W        W 3169  11.198  19.014  18.643 -0.0679  0.1417  0.1473
60076W        W 3170  10.133  19.765  19.023  0.0967 -0.0071 -0.0717
60077W        W 3171   9.849  21.688  19.326  0.4036  0.1940  0.1442
60078W        W 3172  13.847  22.060  19.921  0.0872 -0.1183  0.0771
60079W        W 3173  12.224  22.356  16.330  0.3713  0.2652  0.0166
60080W        W 3174  11.942  19.430  19.064  0.0089  0.1942 -0.0578
60081W        W 3175  13.369  18.551  15.735  0.0839 -0.1873  0.0525
60082W        W 3176  11.396  21.335  16.323 -0.2625  0.0032  0.0513
60083W        W 3177  12.039  20.592  16.891 -0.3608 -0.0316 -0.2901
60084W        W 3178  11.733  19.861  17.010  0.3157 -0.3386 -0.0015
60085W        W 3179  11.821  21.343  18.152 -0.2049 -0.0903  0.1490
60086W        W 3180  10.702  20.768  15.788  0.1533 -0.0382 -0.2804
60087W        W 3181  14.012  21.042  18.721  0.0258  0.0399  0.0810
60088W        W 3182  11.716  21.092  16.676  0.0897  0.0476  0.3269
60089W        W 3183  12.583  17.604  17.621  0.0779 -0.1521  0.1194
60090W        W 3184   8.047  21.008  18.907  0.0565  0.2090  0.0053
60091W        W 3185  10.558  19.909  16.229  0.0220  0.0306 -0.0144
60092W        W 3186  10.454  18.796  15.584  0.2513 -0.3027  0.0612
60093W        W 3187  12.408  19.409  16.660 -0.2767 -0.2224 -0.1074
60094W        W 3188  13.790  19.993  16.759  0.1333  0.1770 -0.4613
60095W        W 3189  10.033  18.542  17.829 -0.0710 -0.2881 -0.1403
60096W        W 3190  11.899  18.365  17.203  0.0058 -0.0020 -0.1154
60097W        W 3191  10.269  21.844  18.445  0.3991  0.1241 -0.2760
60098W        W 3192  12.166  20.670  19.175 -0.1496  0.0912 -0.1692
60099W        W 3193  13.452  18.954  15.993  0.2464  0.0659  0.2549
60100W        W 3194  12.504  21.415  18.368  0.0711 -0.1265  0.0440
60101W        W 3195  10.641  19.766  18.711 -0.1186  0.2221 -0.2436
60102W        W 3196   9.549  20.232  17.001 -0.0716  0.0116 -0.1615
60103W        W 3197  13.292  19.730  18.635 -0.2548  0.3791  0.2140
60104W        W 3198  10.550  18.731  17.483 -0.0997 -0.0172  0.0558
60105W        W 3199   9.868  21.414  16.717 -0.1462  0.0482 -0.1844
60106W        W 3200  12.822  20.198  17.994 -0.2808 -0.0729 -0.1630
60107W        W 3201  11.282  19.406  15.927  0.1128 -0.0483  0.0951
60108W        W 3202  11.076  21.971  16.906 -0.0999 -0.0068 -0.3407
60109W        W 3203  10.469  18.890  18.437 -0.1984 -0.0187 -0.2295
60110W        W 3204  14.447  21.088  17.885  0.1281  0.1790 -0.0742
60111W        W 3205  11.131  20.032  17.542 -0.2461 -0.0868  0.2541
60112W        W 3206  10.870  18.740  16.775  0.3171  0.1107  0.0589
60113W        W 3207   9.363  19.175  16.643  0.0164  0.2124  0.2490
60114W        W 3208  12.365  20.698  17.895 -0.1892 -0.0985  0.1896
60115W        W 3209  12.064  19.459  18.537  0.1808  0.1779  0.1973
60116W        W 3210  10.619  21.629  18.761 -0.0205  0.1151  0.0937
60117W        W 3211  12.285  19.200  17.568  0.0362 -0.0292 -0.1836
60118W        W 3212  14.674  21.068  16.670  0.0096  0.0592 -0.2697
60119W        W 3213  11.040  21.367  18.813  0.1309  0.0857 -0.2157
60120W        W 3214  11.229  21.706  17.313 -0.0275  0.3227 -0.1164
60121W        W 3215  10.543  21.093  18.031 -0.1605 -0.2881 -0.2278
60122W        W 3216  11.459  21.028  18.058 -0.3133  0.2800  0.2468
60123W        W 3217  11.825  20.830  18.815  0.1209  0.0880  0.1130
60124W        W 3218   9.349  21.111  17.838 -0.1538  0.2187 -0.0276
60125W        W 3219  10.105  20.888  16.541  0.0750  0.1767 -0.0394
60126W        W 3220  10.392  22.580  18.056  0.0195 -0.1694 -0.0896
60127W        W 3221  13.945  19.039  17.615  0.3438  0.1272 -0.0760
60128W        W 3222  11.885  19.686  15.970  0.2322  0.1545 -0.1119
60129W        W 3223  12.919  19.417  16.673  0.1427  0.6164 -0.3334
60130W        W 3224  12.369  19.881  18.188 -0.2248 -0.0305  0.1163
60131W        W 3225  12.259  19.126  17.028 -0.0448 -0.1778  0.3990
60132W        W 3226  11.614  19.593  17.877  0.1121  0.2560  0.0382
60133W        W 3227  10.529  18.690  18.000 -0.0441  0.3989 -0.0281
60134W        W 3228  13.033  19.800  17.057  0.3526  0.2126  0.2429
60135W        W 3229  11.095  18.454  19.270 -0.0228 -0.0618  0.0931
60136W        W 3230  11.823  23.413  17.905  0.1091 -0.1718 -0.0074
60137W        W 3231   9.408  20.623  17.991 -0.3644  0.2989 -0.0976
60138W        W 3232  11.875  18.801  16.255  0.2393 -0.0694 -0.0656
60139W        W 3233  12.602  18.161  15.259  0.2243  0.1277 -0.1588
60140W        W 3234  10.636  21.104  18.577 -0.1458  0.1894 -0.3461
60141W        W 3235  13.859  21.061  18.170 -0.0788  0.1864  0.5250
60142W        W 3236  11.018  21.163  18.243 -0.1158  0.1168  0.1362
60143W        W 3237  11.690  19.924  17.526  0.3591 -0.0622 -0.2324
60144W        W 3238  10.417  19.591  17.661 -0.1069  0.2599  0.1230
60145W        W 3239  11.960  20.834  18.172 -0.0517  0.1217  0.1637
60146W        W 3240  11.917  20.104  16.260  0.0303 -0.0500 -0.0623
60147W        W 3241  10.784  22.082  18.728 -0.0461 -0.0049 -0.0315
60148W        W 3242  11.293  20.284  18.432 -0.2012 -0.1574  0.2873
60149W        W 3243  13.001  20.399  17.061 -0.2567  0.0808  0.1179
60150W        W 3244  11.212  19.101  16.689  0.1330 -0.0678  0.1637
60151W        W 3245  10.942  20.321  17.941 -0.3230  0.2925 -0.4022
60152W        W 3246  12.856  18.338  17.680 -0.1402 -0.0124  0.0242
60153W        W 3247  11.016  20.431  19.329  0.3607 -0.1001 -0.2298
60154W        W 3248  11.039  18.950  19.204  0.0775  0.1760  0.5007
60155W        W 3249  12.954  21.709  18.097 -0.1691  0.0271  0.1512
60156W        W 3250  13.152  20.145  16.142  0.2436  0.3247 -0.0147
60157W        W 3251  13.282  18.233  19.394 -0.1000  0.1856 -0.2112
60158W        W 3252  13.922  20.591  16.721 -0.1299 -0.2172 -0.0056
60159W        W 3253  13.790  18.345  15.412  0.2811  0.0544  0.1982
60160W        W 3254  11.767  19.005  18.577 -0.4741 -0.0302 -0.0926
60161W        W 3255  12.149  19.101  19.386 -0.1955 -0.1488 -0.1781
60162W        W 3256  11.272  18.917  16.000 -0.3190  0.0446  0.2132
60163W        W 3257  12.713  19.015  16.948 -0.0509 -0.1705  0.1375
60164W        W 3258  12.729  20.606  16.090  0.2456 -0.0127  0.2609
60165W        W 3259  13.710  20.507  17.567  0.0398 -0.3251  0.2366
60166W        W 3260  13.641  19.454  16.128 -0.0664 -0.1929  0.3980
60167W        W 3261  10.015  18.313  16.336 -0.1826  0.0680  0.1649
60168W        W 3262  11.694  21.879  18.684 -0.4131 -0.0304  0.0624
60169W        W 3263  10.510  19.354  15.500  0.3255  0.0851  0.0925
60170W        W 3264  11.474  19.833  16.272  0.0464  0.1650 -0.4109
60171W        W 3265  12.854  21.035  18.549  0.0587  0.1218 -0.1411
60172W        W 3266  11.770  20.437  18.543 -0.0286 -0.1236  0.0624
60173W        W 3267  13.565  18.211  16.210 -0.0331  0.0335 -0.2192
60174W        W 3268  12.335  19.815  18.765  0.0094 -0.3331 -0.1643
60175W        W 3269  10.871  21.858  16.028  0.1063 -0.0577  0.0379
60176W        W 3270  11.610  17.479  17.329 -0.2185 -0.1013 -0.2091
60177W        W 3271   9.251  22.887  20.208  0.0597  0.0782  0.1942
60178W        W 3272   9.986  20.392  18.751  0.1064  0.3318 -0.0251
60179W        W 3273  11.266  22.028  19.024  0.0912 -0.1915 -0.1380
60180W        W 3274  12.100  18.446  17.652  0.0639  0.1231 -0.0214
60181W        W 3275  12.504  20.345  19.117 -0.5249  0.0877 -0.2257
60182W        W 3276  11.609  20.176  16.660  0.1722 -0.0880  0.0135
60183W        W 3277  15.246  20.277  20.175 -0.0725  0.1935 -0.4808
60184W        W 3278  12.606  20.652  18.308 -0.0090 -0.0136  0.2214
60185W        W 3279  10.264  18.246  16.835  0.2986 -0.0195  0.1747
60186W        W 3280  12.246  21.711  17.972  0.0290  0.1076  0.2463
60187W        W 3281  13.208  20.067  16.691 -0.1713  0.2898  0.2440
60188W        W 3282   9.729  19.880  17.248  0.2513 -0.1757 -0.1829
60189W        W 3283   8.248  19.196  18.875  0.3083 -0.0434  0.0845
60190W        W 3284  10.432  20.206  19.088  0.1030 -0.0987 -0.0496
60191W        W 3285  12.481  20.971  17.031 -0.1199  0.3241 -0.1585
60192W        W 3286  12.928  17.739  15.103 -0.0707 -0.0895  0.0736
60193W        W 3287  11.362  20.703  16.706  0.1247  0.2249 -0.3677
60194W        W 3288  10.083  20.830  19.751 -0.2411 -0.0667  0.0596
60195W        W 3289  10.592  20.105  17.727  0.0262  0.3003  0.2829
60196W        W 3290  11.082  22.236  18.313  0.0434 -0.0293 -0.1601
60197W        W 3291  11.440  21.248  17.449  0.0975  0.1109 -0.2143
60198W        W 3292  12.120  20.039  16.726 -0.0403  0.1363 -0.0597
60199W        W 3293  13.009  22.390  18.426  0.1285 -0.1544  0.1255
60200W        W 3294  11.674  18.668  15.741 -0.3711 -0.1258 -0.2675
60201W        W 3295  10.361  21.328  17.577  0.0318  0.0811  0.0195
60202W        W 3296  10.579  22.027  16.983  0.0179  0.0234  0.0443
60203W        W 3297  12.435  21.889  16.152  0.0379 -0.0441  0.0796
60204W        W 3298  11.846  20.588  16.471 -0.1959  0.0540 -0.1667
60205W        W 3299  12.637  20.883  19.096  0.0856  0.1322  0.4026
60206W        W 3300  12.439  18.097  15.774  0.1009  0.0959  0.4091
60207W        W 3301  13.952  19.039  16.242  0.3116 -0.2915 -0.1601
60208W        W 3302  14.124  18.927  15.451  0.1872  0.0043  0.0854
60209W        W 3303  12.724  22.433  19.398  0.0213  0.2162 -0.2600
60210W        W 3304  12.651  19.441  17.209  0.1808 -0.0944 -0.3836
60211W        W 3305  10.326  17.377  17.161 -0.1378  0.0568 -0.3513
60212W        W 3306  10.493  20.244  18.275 -0.0757 -0.0768  0.0025
60213W        W 3307  13.279  19.737  19.295 -0.3964  0.1924 -0.0128
60214W        W 3308   9.438  22.923  20.782 -0.0578  0.2233  0.0850
60215W        W 3309  13.551  20.345  16.450 -0.1097 -0.0473 -0.4108
60216W        W 3310  10.621  18.489  17.068  0.0963 -0.2339 -0.0931
60217W        W 3311  10.108  17.814  17.633  0.2816 -0.0294  0.0321
60218W        W 3312  12.213  19.755  17.550 -0.2617  0.0327 -0.0497
60219W        W 3313  12.536  19.847  16.832  0.3203 -0.3401 -0.3367
60220W        W 3314  12.685  20.112  17.323 -0.1744  0.2245  0.0981
60221W        W 3315  12.842  22.435  17.544  0.1565  0.2601 -0.1519
60222W        W 3316  10.902  22.383  17.842 -0.0286  0.0500 -0.4143
60223W        W 3317  11.727  22.303  18.188 -0.0591  0.0664 -0.0791
60224W        W 3318  10.477  18.240  15.737  0.2278  0.0033 -0.0517
60225W        W 3319  13.426  19.578  16.737 -0.2575 -0.2855  0.4166
60226W        W 3320   9.229  20.140  19.006 -0.1367  0.2846 -0.0207
60227W        W 3321  12.449  18.363  18.000 -0.0972  0.1988  0.2312
60228W        W 3322  10.797  20.660  16.619 -0.0531  0.0653  0.2068
60229W        W 3323  13.908  19.377  15.305 -0.0988 -0.3405 -0.3631
60230W        W 3324  12.425  21.091  17.561 -0.0073  0.1079  0.0913
60231W        W 3325  10.038  19.935  17.625  0.3845 -0.1179 -0.2811
60232W        W 3326  10.544  19.159  16.793 -0.1632  0.2193  0.3529
60233W        W 3327  13.103  21.738  19.185 -0.1159 -0.1071  0.2443
60234W        W 3328  12.295  20.441  16.432  0.0123  0.0645  0.1890
60235W        W 3329  12.270  22.800  18.669  0.2200 -0.0463  0.0356
60236W        W 3330   9.686  17.500  17.828 -0.0322 -0.0401 -0.3020
60237W        W 3331  12.696  19.403  16.192 -0.1170 -0.1973 -0.0894
60238W        W 3332  11.236  21.667  18.467  0.2538 -0.2884 -0.0896
60239W        W 3333  11.818  19.993  18.080 -0.2849  0.0596 -0.0132
60240W        W 3334  12.568  23.377  19.138 -0.0477 -0.0742 -0.3249
60241W        W 3335   9.623  18.433  17.259 -0.0778  0.3940  0.0229
60242W        W 3336  14.207  21.733  15.401  0.0817 -0.5342  0.1625
60243W        W 3337  12.576  19.343  18.111  0.1330  0.1103 -0.0666
60244W        W 3338  12.477  21.744  16.648 -0.0146 -0.3554  0.1641
60245W        W 3339  13.678  19.950  16.271 -0.3288  0.0308 -0.2953
60246W        W 3340  12.678  21.511  17.750  0.2996  0.1136 -0.0587
60247W        W 3341   8.864  18.663  19.534 -0.0681 -0.4304  0.1035
60248W        W 3342  12.638  21.903  18.435  0.1202 -0.0442 -0.0411
60249W        W 3343  12.910  21.612  17.302 -0.0456  0.0458 -0.0218
60250W        W 3344  11.128  17.707  16.208  0.0498 -0.1443 -0.2782
60251W        W 3345  10.413  18.189  17.967 -0.0905  0.2763 -0.1467
60252W        W 3346  11.506  22.200  17.393  0.0920 -0.1337  0.0772
60253W        W 3347  12.517  18.957  16.389  0.0691 -0.1418 -0.1744
60254W        W 3348  12.736  19.729  17.838  0.0028 -0.1893  0.0546
60255W        W 3349   9.008  21.595  16.545  0.0538  0.0741 -0.1456
60256W        W 3350  12.350  18.616  19.690 -0.0291  0.0215  0.2341
60257W        W 3351  13.774  23.398  19.167  0.1079 -0.0792 -0.0808
60258W        W 3352  12.588  22.866  20.180 -0.0469  0.1677 -0.0049
60259W        W 3353  10.125  20.134  16.177 -0.2328  0.0425 -0.2039
60260W        W 3354  10.571  20.605  18.863  0.1724  0.2170 -0.2919
60261W        W 3355  10.652  20.902  17.522 -0.0905  0.0573 -0.1932
60262W        W 3356  11.436  22.621  16.613  0.2903 -0.1637  0.1443
60263W        W 3357  12.172  22.123  18.287 -0.1042  0.1199 -0.1938
60264W        W 3358  13.139  19.162  16.324  0.0394 -0.0654  0.0575
60265W        W 3359  12.258  20.667  17.390 -0.1341  0.1937  0.0799
60266W        W 3360  11.888  18.970  17.820  0.1818 -0.0593  0.0514
60267W        W 3361  12.410  18.708  17.263  0.0205  0.1886  0.2285
60268W        W 3362  11.888  18.867  17.252 -0.2532 -0.1267 -0.0131
60269W        W 3363  10.178  20.845  17.107  0.1324 -0.0093  0.0945
60270W        W 3364  10.790  20.441  17.492 -0.0430  0.1359  0.0972
60271W        W 3365  11.008  20.054  16.579  0.0622 -0.0656  0.0484
60272W        W 3366  10.541  20.152  17.075 -0.3801 -0.2282  0.1825
60273W        W 3367  11.432  18.055  19.435  0.2428 -0.0134 -0.0012
60274W        W 3368  11.246  19.741  18.706  0.1337  0.1159 -0.3938
60275W        W 3369  10.272  20.451  17.417 -0.4848 -0.2287  0.3578
60276W        W 3370  11.219  18.216  16.402 -0.0907  0.0628 -0.0456
60277W        W 3371  13.987  21.617  16.446 -0.4075 -0.0263 -0.2950
60278W        W 3372  10.998  18.911  18.178  0.0656  0.1827  0.3136
60279W        W 3373  10.154  18.437  17.367 -0.2983 -0.2800 -0.0460
60280W        W 3374  12.667  20.730  16.654 -0.2585  0.0419 -0.0723
60281W        W 3375  14.404  20.639  16.492  0.2505  0.2419 -0.1128
60282W        W 3376  12.290  19.759  16.286  0.0315 -0.0298  0.1261
60283W        W 3377  14.789  22.591  19.214 -0.1687  0.1038 -0.4672
60284W        W 3378  10.162  20.658  15.662  0.0339 -0.2338  0.1815
60285W        W 3379  11.312  20.588  18.885  0.1021  0.0122 -0.0450
60286W        W 3380  12.022  18.542  18.703  0.3202  0.0364  0.1040
60287W        W 3381  11.734  19.080  16.758  0.1525 -0.1082 -0.1127
60288W        W 3382  12.124  20.121  17.241 -0.0540 -0.2684 -0.0925
60289W        W 3383  12.310  22.994  16.150 -0.3433 -0.1935  0.2063
60290W        W 3384  12.575  21.065  16.175 -0.1074 -0.1424 -0.0428
60291W        W 3385  11.656  21.692  17.604 -0.0683  0.0963  0.1107
60292W        W 3386  11.410  21.062  19.051 -0.0152 -0.0069 -0.1205
60293W        W 3387  11.977  18.061  19.621 -0.0264 -0.0272 -0.0438
60294W        W 3388  14.005  19.720  17.253 -0.0070  0.0552  0.1873
60295W        W 3389  10.659  21.525  18.249  0.3599 -0.0780 -0.1812
60296W        W 3390  13.584  21.121  16.189 -0.1589 -0.3188 -0.0755
60297W        W 3391  14.076  19.319  18.007  0.1379 -0.0805 -0.0580
60298W        W 3392  11.559  19.217  16.300  0.2225 -0.0279  0.0411
60299W        W 3393  11.444  18.742  19.439 -0.0970 -0.1085  0.0536
60300W        W 3394   9.686  20.003  18.689 -0.0209 -0.1889  0.2892
60301W        W 3395  13.477  20.447  16.980  0.1873 -0.0759  0.1210
60302W        W 3396   9.985  19.157  16.600 -0.4057 -0.0142  0.3132
60303W        W 3397  12.139  19.615  17.048  0.0808  0.1056 -0.2748
60304W        W 3398  12.854  21.595  16.366  0.1005 -0.1088 -0.0813
60305W        W 3399  10.306  19.707  17.122  0.2065  0.1759  0.1027
60306W        W 3400  11.504  18.036  17.141 -0.0955  0.3538  0.0240
60307W        W 3401  12.272  19.846  20.147  0.1240 -0.0541  0.3039
60308W        W 3402  12.491  20.377  16.969  0.1308  0.1591  0.0035
60309W        W 3403  13.312  21.398  18.848 -0.2533 -0.1537 -0.0682
60310W        W 3404  10.351  19.483  16.394 -0.3413 -0.1728 -0.1225
60311W        W 3405  12.401  21.993  17.110  0.0412 -0.0844  0.2570
60312W        W 3406  11.968  22.604  19.315 -0.0650 -0.0807 -0.0750
60313W        W 3407  14.163  22.485  20.303 -0.0492  0.0643 -0.0777
60314W        W 3408  11.865  22.162  17.743  0.1676 -0.0431  0.0365
60315W        W 3409  13.713  19.964  17.629  0.1988  0.0981  0.0420
60316W        W 3410  10.647  18.698  19.305  0.0390  0.0340 -0.0403
60317W        W 3411  10.342  20.540  16.135 -0.1291  0.2663 -0.1871
60318W        W 3412  11.631  20.910  17.194 -0.2135 -0.2616  0.3951
60319W        W 3413  12.751  18.927  18.406 -0.1164 -0.1458  0.2854
60320W        W 3414  11.257  19.962  16.987 -0.0437 -0.0229  0.1554
60321W        W 3415  10.688  18.141  17.532  0.2520  0.0743 -0.1364
60322W        W 3416  11.755  23.315  19.195 -0.0493 -0.1650  0.1537
60323W        W 3417  12.173  20.349  18.206  0.0905 -0.3481 -0.0616
60324W        W 3418   9.857  20.306  21.057 -0.3400  0.0699  0.1933
60325W        W 3419  10.166  19.994  20.185 -0.1927 -0.1163  0.1376
60326W        W 3420  13.009  19.500  18.967  0.2944 -0.0479 -0.1420
60327W        W 3421  14.156  20.964  20.272 -0.0509 -0.2217  0.0576
60328W        W 3422  10.417  18.457  20.511 -0.2950 -0.2261  0.0521
60329W        W 3423  12.832  22.164  18.918  0.1029 -0.1822  0.1728
60330W        W 3424  11.469  17.675  22.964  0.0850  0.1330 -0.1156
60331W        W 3425  14.972  20.914  21.924  0.0912  0.0247  0.0800
60332W        W 3426  15.152  23.583  21.165  0.2597  0.1185  0.0248
60333W        W 3427  12.448  21.113  19.547 -0.2178 -0.5691 -0.2224
60334W        W 3428  12.072  19.989  20.632  0.1430  0.3557 -0.2858
60335W        W 3429  12.628  21.611  20.749  0.0091 -0.1318 -0.0522
60336W        W 3430  11.393  17.663  20.440  0.1584 -0.2379 -0.1368
60337W        W 3431  11.645  16.524  21.041 -0.1465  0.3572  0.0038
60338W        W 3432  11.902  21.217  21.988  0.0317 -0.1694  0.0632
60339W        W 3433  10.176  19.157  19.690 -0.1669 -0.2950  0.2041
60340W        W 3434  11.655  21.185  21.026  0.1535 -0.2000 -0.3892
60341W        W 3435  11.660  19.750  20.484 -0.1572 -0.0227  0.0960
60342W        W 3436  12.108  21.747  20.636 -0.2003  0.0534  0.0663
60343W        W 3437  12.900  19.925  21.697 -0.0691 -0.0916  0.3982
60344W        W 3438  12.072  17.654  22.294  0.0412  0.1092 -0.3468
60345W        W 3439  12.489  22.036  19.710  0.0633 -0.0143 -0.0043
60346W        W 3440   8.852  17.419  19.362  0.1414 -0.3332  0.1632
60347W        W 3441  11.641  19.694  22.083 -0.0211 -0.0908 -0.0326
60348W        W 3442  10.573  20.228  22.757 -0.2989 -0.3914  0.1840
60349W        W 3443  14.123  19.819  20.930 -0.0628 -0.0959 -0.0919
60350W        W 3444  13.643  20.103  19.997 -0.4352  0.1168 -0.2004
60351W        W 3445  13.339  22.524  20.900  0.0312 -0.0308 -0.2114
60352W        W 3446  11.785  22.782  20.530 -0.0369  0.0909  0.3117
60353W        W 3447  13.317  20.435  20.857 -0.0479 -0.2044 -0.0900
60354W        W 3448  11.117  19.880  21.980 -0.1936 -0.2784  0.1591
60355W        W 3449   9.823  21.350  20.890 -0.1052 -0.0376 -0.0888
60356W        W 3450  10.600  21.118  19.534 -0.0164  0.2433 -0.2000
60357W        W 3451  15.442  21.777  20.561  0.4048 -0.1034 -0.1594
60358W        W 3452  13.784  21.829  23.192 -0.2200 -0.1773 -0.1165
60359W        W 3453  12.017  21.786  22.033  0.0687 -0.1489 -0.1656
60360W        W 3454   9.847  20.207  19.173  0.0835  0.1029  0.0258
60361W        W 3455  14.352  21.916  22.523 -0.1263 -0.2285 -0.0949
60362W        W 3456  13.234  22.064  21.555  0.0019 -0.1582 -0.1168
60363W        W 3457  12.549  22.097  20.713  0.2437  0.2230  0.2689
60364W        W 3458  11.352  21.676  20.744  0.0973 -0.1840 -0.1305
60365W        W 3459  11.856  20.777  20.158  0.0088 -0.2700  0.0181
60366W        W 3460  11.890  20.806  21.194 -0.1162 -0.1262  0.3053
60367W        W 3461  11.990  22.307  22.888 -0.0292  0.1748 -0.0953
60368W        W 3462  10.305  21.992  21.233 -0.0661 -0.5779  0.1863
60369W        W 3463  14.289  20.609  21.211 -0.1424  0.1982  0.2297
60370W        W 3464  11.765  22.389  20.136  0.1924 -0.0900 -0.2517
60371W        W 3465  12.271  20.229  17.747  0.1032  0.2510  0.0490
60372W        W 3466  10.526  18.840  19.786 -0.4140  0.0471  0.0277
60373W        W 3467  13.691  19.576  19.974  0.0699  0.3374 -0.1024
60374W        W 3468  11.530  17.818  22.289 -0.0528 -0.0791  0.3580
60375W        W 3469  12.281  23.346  20.214  0.3539 -0.0125 -0.0304
60376W        W 3470  12.190  18.766  21.662 -0.0541  0.1701 -0.0994
60377W        W 3471  13.953  21.985  21.419 -0.2468  0.0215  0.0625
60378W        W 3472  11.593  21.284  19.516 -0.0167 -0.1666 -0.2586
60379W        W 3473  12.290  20.150  21.023  0.1279 -0.0760  0.3675
60380W        W 3474  10.530  22.534  21.963 -0.0621  0.2253  0.1110
60381W        W 3475  10.519  19.207  20.783 -0.0837  0.3702 -0.1353
60382W        W 3476  12.544  22.354  20.217 -0.2507  0.0117  0.2760
60383W        W 3477  14.438  22.928  20.435  0.1757  0.1566  0.0919
60384W        W 3478  11.634  21.951  20.386  0.0128  0.1960  0.4990
60385W        W 3479  11.218  19.552  20.164  0.1521  0.0530  0.1305
60386W        W 3480  10.900  19.978  22.470 -0.1467  0.4066 -0.0103
60387W        W 3481  11.236  17.685  21.838  0.2194  0.1658 -0.0627
60388W        W 3482  10.274  17.795  20.296  0.2468  0.2083  0.1528
60389W        W 3483  14.639  23.337  23.069  0.3087 -0.0075  0.1363
60390W        W 3484   7.788  21.658  24.626  0.1921 -0.1845  0.1031
60391W        W 3485  12.738  19.815  21.031 -0.1473  0.1074  0.2443
60392W        W 3486  11.453  20.605  20.920 -0.0911 -0.0481 -0.0319
60393W        W 3487  13.006  22.148  21.053  0.0664 -0.0089  0.2606
60394W        W 3488  12.919  20.558  18.783  0.0561  0.1582  0.2553
60395W        W 3489  12.929  19.307  21.020  0.0732  0.1488  0.0879
60396W        W 3490  13.147  19.037  21.603  0.2701  0.1364 -0.2740
60397W        W 3491  11.620  19.759  19.296  0.1066 -0.1351  0.1735
60398W        W 3492  11.004  20.489  19.888  0.0360 -0.1442 -0.0636
60399W        W 3493  14.577  22.448  22.644  0.1459 -0.0538  0.4186
60400W        W 3494  14.508  20.038  20.181 -0.0216 -0.0519 -0.0094
60401W        W 3495  10.391  22.756  20.491 -0.3019 -0.1793  0.1269
60402W        W 3496  11.542  20.518  21.404 -0.0080 -0.3606  0.0177
60403W        W 3497  13.052  22.473  23.244  0.1920 -0.0019  0.0688
60404W        W 3498  11.187  21.902  19.555 -0.2131 -0.0208  0.2894
60405W        W 3499  10.616  20.240  21.959  0.0851  0.0399  0.0360
60406W        W 3500   9.369  20.822  19.791  0.1103  0.2891 -0.0976
60407W        W 3501  11.544  17.154  22.844 -0.2803 -0.2101 -0.0462
60408W        W 3502  10.704  21.678  21.390 -0.2257 -0.1038  0.2075
60409W        W 3503  12.964  18.823  21.146 -0.1296  0.0297 -0.0543
60410W        W 3504  12.241  19.657  22.241  0.2876 -0.1659 -0.3565
60411W        W 3505  12.611  20.092  20.599 -0.1007 -0.4450 -0.2534
60412W        W 3506  10.438  19.494  21.181  0.0665  0.2095 -0.0418
60413W        W 3507  14.043  22.619  19.694 -0.0295  0.0677  0.3740
60414W        W 3508  12.545  20.645  19.591  0.0843 -0.0374 -0.1294
60415W        W 3509  13.196  20.903  18.935  0.0767  0.1594  0.2576
60416W        W 3510  10.764  19.501  22.015 -0.2249  0.0116 -0.1997
60417W        W 3511  11.585  17.898  19.990 -0.1173  0.0650  0.2019
60418W        W 3512  11.401  18.739  22.879 -0.1770 -0.2248 -0.1708
60419W        W 3513   9.509  17.303  22.225 -0.0674 -0.2817 -0.1065
60420W        W 3514  14.204  20.976  22.406  0.2688 -0.3159 -0.1786
60421W        W 3515   8.919  17.720  19.793  0.1076  0.3364  0.1199
60422W        W 3516  11.314  20.718  20.299 -0.1212 -0.2124  0.3362
60423W        W 3517  10.569  20.572  19.556  0.0060 -0.1367 -0.2946
60424W        W 3518  10.712  20.045  19.556  0.1452  0.0145 -0.1034
60425W        W 3519  12.360  19.396  20.843 -0.4543 -0.0637  0.0015
60426W        W 3520  11.356  22.507  19.219  0.1220 -0.2239  0.2748
60427W        W 3521  13.502  22.625  24.224  0.1792  0.0919  0.1563
60428W        W 3522  13.171  21.524  19.888  0.0201 -0.0328  0.0526
60429W        W 3523  12.214  19.555  22.818 -0.1334 -0.1245 -0.3541
60430W        W 3524  11.736  19.109  20.192 -0.2303  0.1395  0.1750
60431W        W 3525   9.721  21.221  22.311  0.1252 -0.0276  0.1521
60432W        W 3526  11.226  21.909  21.234 -0.4147  0.1729 -0.2306
60433W        W 3527  10.501  19.606  19.797  0.2412  0.1818 -0.1975
60434W        W 3528  14.097  23.274  21.064  0.1651  0.2009  0.1158
60435W        W 3529  12.235  21.632  21.100 -0.1683 -0.0080  0.0248
60436W        W 3530  11.056  20.897  23.540 -0.0330  0.0069  0.2452
60437W        W 3531  14.986  18.916  20.791 -0.0740 -0.1935  0.3493
60438W        W 3532  12.219  20.366  20.283  0.2553 -0.0449  0.0278
60439W        W 3533  12.440  18.117  19.916 -0.0101 -0.3220  0.0675
60440W        W 3534  10.837  18.001  19.231 -0.1767 -0.0707  0.2726
60441W        W 3535  13.482  23.338  20.155  0.3794  0.4424  0.2862
60442W        W 3536   9.631  21.135  19.039  0.0903  0.0435 -0.1060
60443W        W 3537  10.079  19.241  20.379 -0.0043 -0.1182 -0.1178
60444W        W 3538  12.750  21.504  19.581 -0.0504 -0.3531  0.2738
60445W        W 3539  13.228  18.678  20.590 -0.0664 -0.4008  0.0904
60446W        W 3540  11.843  20.873  22.418 -0.0622 -0.0916 -0.4010
60447W        W 3541  12.247  20.877  22.142 -0.1214  0.1385  0.0026
60448W        W 3542  10.985  18.825  19.655 -0.2468 -0.1078  0.0470
60449W        W 3543   9.815  21.519  22.734 -0.0256 -0.1170  0.3456
60450W        W 3544  11.747  16.733  21.628 -0.2844  0.2366  0.1598
60451W        W 3545  12.565  17.656  19.099 -0.0552 -0.3669  0.1807
60452W        W 3546  10.835  21.286  23.073 -0.3277  0.0657  0.1255
60453W        W 3547  13.690  19.380  19.454 -0.0323  0.0223 -0.0075
60454W        W 3548  12.685  18.864  19.394 -0.3716 -0.2362 -0.0105
60455W        W 3549  12.077  19.459  17.935 -0.1289  0.1259 -0.0347
60456W        W 3550  11.432  21.694  24.160 -0.0754  0.0300 -0.1156
60457W        W 3551  12.771  20.399  21.061  0.1931 -0.1008  0.1876
60458W        W 3552  10.844  19.852  21.217  0.2227 -0.1419  0.2269
60459W        W 3553  10.854  19.412  18.457 -0.1080 -0.1951  0.0468
60460W        W 3554  13.444  21.376  19.432 -0.0439 -0.4186 -0.1462
60461W        W 3555  11.765  22.096  21.650 -0.3257 -0.1606  0.1956
60462W        W 3556  12.429  22.000  22.182 -0.0635 -0.0117 -0.3018
60463W        W 3557  13.427  20.749  19.583  0.1050  0.1240  0.1936
60464W        W 3558  10.777  19.502  22.596 -0.0358  0.2016  0.1287
60465W        W 3559  11.293  19.247  19.743 -0.4030  0.2051 -0.0883
60466W        W 3560  10.755  17.818  21.195  0.0825 -0.0929  0.4053
60467W        W 3561  10.136  21.950  19.745 -0.0292 -0.1970 -0.1049
60468W        W 3562  13.305  19.381  20.745  0.3180  0.0526 -0.4053
60469W        W 3563  11.729  17.394  20.045 -0.2257  0.2302  0.2293
60470W        W 3564  12.752  18.978  20.684  0.1506  0.3455 -0.0628
60471W        W 3565  13.198  21.052  22.223 -0.0179 -0.0212  0.1136
60472W        W 3566  12.306  17.669  19.584  0.2410  0.0258  0.0235
60473W        W 3567  12.430  20.743  20.549 -0.2032 -0.0445 -0.0570
60474W        W 3568  11.076  18.314  19.811  0.0909  0.2263  0.1218
60475W        W 3569  11.881  19.947  22.497 -0.0250  0.0362  0.3712
60476W        W 3570  10.934  20.382  20.420 -0.2260  0.4798  0.1725
60477W        W 3571  12.207  22.596  20.967 -0.0181  0.1631  0.1363
60478W        W 3572  13.781  21.628  21.815 -0.0366 -0.5446 -0.1864
60479W        W 3573  12.182  21.088  20.776 -0.2007 -0.2304  0.0006
60480W        W 3574  11.942  20.171  22.050 -0.2222  0.0222  0.0842
60481W        W 3575  11.445  19.247  20.632  0.0542  0.3675 -0.0615
60482W        W 3576  12.119  22.717  20.153 -0.0776 -0.2635  0.0798
60483W        W 3577  10.898  20.880  19.121  0.0114  0.1514  0.1923
60484W        W 3578  10.918  19.316  20.524 -0.2123 -0.0201  0.0502
60485W        W 3579  11.379  22.488  20.608 -0.2570 -0.2039  0.0826
60486W        W 3580  11.050  21.358  19.342 -0.0601  0.4812  0.0588
60487W        W 3581  11.826  20.063  20.085 -0.1928  0.2058  0.0264
60488W        W 3582  11.287  22.961  19.065  0.0087 -0.1758  0.1912
60489W        W 3583  14.008  18.932  20.572 -0.0917 -0.0690 -0.2530
60490W        W 3584   9.871  21.190  21.528 -0.0132 -0.2792 -0.0776
60491W        W 3585  10.731  21.204  20.568 -0.2032 -0.0601  0.2180
60492W        W 3586  10.111  19.626  19.483  0.3299 -0.1152  0.0998
60493W        W 3587  13.238  19.776  19.780  0.0691  0.1570  0.2345
60494W        W 3588  13.699  20.694  18.597 -0.0314  0.2298 -0.0341
60495W        W 3589  10.517  19.745  23.429  0.3020  0.0112 -0.1306
60496W        W 3590  10.188  16.667  20.424 -0.1049  0.0259 -0.2059
60497W        W 3591  11.699  22.766  21.038  0.4736 -0.0534 -0.1899
60498W        W 3592  12.408  19.964  21.870  0.0824  0.2631  0.2743
60499W        W 3593  11.900  19.392  20.791 -0.0429  0.1407 -0.0285
60500W        W 3594  13.661  22.383  20.476 -0.0661  0.1298  0.2237
60501W        W 3595  12.212  20.842  21.628  0.0165 -0.1321 -0.1295
60502W        W 3596   9.625  18.954  20.520  0.5544 -0.2290 -0.0315
60503W        W 3597  11.959  20.929  19.663  0.0232 -0.0026 -0.0899
60504W        W 3598  12.912  21.822  20.365 -0.0150 -0.0062  0.0568
60505W        W 3599   9.683  20.702  20.174 -0.2707  0.1125 -0.3316
60506W        W 3600  12.900  22.248  21.943  0.6126  0.0816  0.2598
60507W        W 3601  10.791  19.924  20.152 -0.0407 -0.1398 -0.0390
60508W        W 3602   9.599  20.378  20.663 -0.4245 -0.3760  0.1698
60509W        W 3603  11.319  18.191  21.678 -0.1622  0.2394  0.0569
60510W        W 3604  13.106  20.588  21.361 -0.0667  0.0850  0.1033
60511W        W 3605  12.098  19.017  20.579 -0.1053  0.2864  0.0968
60512W        W 3606  11.130  18.866  20.424 -0.0064  0.1927  0.1322
60513W        W 3607  12.960  20.465  20.458 -0.0958 -0.4826  0.3178
60514W        W 3608  10.517  20.342  20.002 -0.3593  0.1515  0.1629
60515W        W 3609  11.639  20.110  20.974 -0.1409 -0.1911 -0.3332
60516W        W 3610  11.735  21.600  21.649 -0.1952 -0.3107  0.0550
60517W        W 3611  11.143  18.188  21.120  0.2747  0.2167  0.0299
60518W        W 3612  14.569  22.396  19.781 -0.0473 -0.3637  0.2766
60519W        W 3613  12.857  21.301  21.635 -0.2464 -0.1642  0.0714
60520W        W 3614  11.545  19.434  18.387  0.1053 -0.4754 -0.1904
60521W        W 3615  11.392  21.393  22.093  0.0524  0.3531  0.5384
60522W        W 3616  11.246  21.234  20.463  0.2765 -0.2192  0.1957
60523W        W 3617  12.243  18.257  21.753 -0.1473 -0.0494 -0.1645
60524W        W 3618   8.767  21.678  21.564 -0.2801 -0.2086 -0.1066
60525W        W 3619  11.629  22.327  19.614 -0.3246 -0.0794 -0.4449
60526W        W 3620  10.262  21.000  23.769 -0.2739 -0.1571  0.3023
60527W        W 3621  13.525  19.244  19.001 -0.1821  0.1709  0.0052
60528W        W 3622  12.375  21.579  19.874  0.3402  0.0196  0.1331
60529W        W 3623  11.039  19.394  20.968  0.0440  0.0894 -0.1784
60530W        W 3624  13.190  19.936  20.696 -0.3045  0.0315 -0.2646
60531W        W 3625  12.784  19.179  19.761  0.0294  0.0338  0.3134
60532W        W 3626  11.764  20.039  21.456 -0.0699 -0.1028  0.1469
60533W        W 3627  10.858  18.208  21.620  0.0263 -0.0172  0.2192
60534W        W 3628  13.628  21.294  20.921  0.1258 -0.1397 -0.0460
60535W        W 3629  11.524  18.882  21.667 -0.2699 -0.0445  0.1407
60536W        W 3630  14.069  21.491  22.318  0.1928 -0.0672  0.1261
60537W        W 3631  10.907  20.874  22.613  0.0466  0.1837 -0.1977
60538W        W 3632  11.671  18.748  20.541 -0.2495  0.1867  0.0596
60539W        W 3633   9.718  18.447  19.944 -0.0308 -0.3832  0.1140
60540W        W 3634  10.199  20.794  21.241  0.4911 -0.0155 -0.0665
60541W        W 3635  14.356  23.042  21.453 -0.1970  0.1522 -0.1135
60542W        W 3636  11.965  21.171  19.147 -0.0166 -0.3552  0.0620
60543W        W 3637  12.401  20.839  20.025  0.1139 -0.0684 -0.1401
60544W        W 3638   9.949  20.018  20.642 -0.1859 -0.0923  0.0652
60545W        W 3639  12.544  19.235  20.217  0.1126 -0.3045 -0.0931
60546W        W 3640  10.220  20.188  19.584  0.1927  0.1009 -0.3799
60547W        W 3641  11.088  20.901  19.589 -0.0810  0.2072  0.3123
60548W        W 3642  12.803  18.119  21.717  0.0194  0.0293  0.2272
60549W        W 3643  13.678  21.506  19.868 -0.0608 -0.3658 -0.1792
60550W        W 3644  11.633  17.801  20.938  0.3578  0.1528  0.0740
60551W        W 3645  14.082  19.060  19.331  0.1688 -0.2971 -0.1981
60552W        W 3646  13.084  21.630  20.912 -0.1905  0.1354 -0.1720
60553W        W 3647  10.680  20.194  23.269 -0.1110 -0.1969  0.0977
60554W        W 3648  10.773  19.251  23.874 -0.1087  0.0841  0.2933
60555W        W 3649  13.684  21.263  21.429  0.0133  0.2775 -0.0648
60556W        W 3650  14.005  20.326  19.598  0.2045 -0.2744  0.1265
60557W        W 3651  12.420  18.747  20.264  0.1235 -0.3346 -0.3074
60558W        W 3652  11.980  20.390  19.634 -0.0869 -0.2141  0.3546
60559W        W 3653  11.269  20.056  20.033  0.1336 -0.0104  0.1157
60560W        W 3654  10.073  18.455  21.236  0.1825  0.0124 -0.1193
60561W        W 3655  12.624  21.164  22.417  0.1869  0.0795  0.3977
60562W        W 3656  11.631  19.188  19.399 -0.2495  0.0114  0.2046
60563W        W 3657  12.506  19.907  22.622  0.0084 -0.0389  0.3415
60564W        W 3658  12.622  21.923  19.270 -0.1723  0.0586 -0.1616
60565W        W 3659  13.243  22.694  21.807  0.0044  0.1824 -0.4149
60566W        W 3660  12.441  20.170  19.681  0.0069  0.1258 -0.0009
60567W        W 3661  10.801  18.893  21.743  0.3404 -0.2980  0.0427
60568W        W 3662  10.960  21.467  24.009  0.3201  0.1574  0.4891
60569W        W 3663  11.149  18.016  20.163  0.0975 -0.0196  0.0426
60570W        W 3664  10.812  21.828  19.207 -0.0196  0.4983  0.1615
60571W        W 3665  10.450  20.363  21.427  0.0158 -0.0379  0.2586
60572W        W 3666  14.456  20.778  21.783 -0.0062 -0.0825  0.2694
60573W        W 3667  11.574  18.375  19.781  0.0366  0.3235  0.3102
60574W        W 3668  13.625  20.100  20.492 -0.0205  0.2429 -0.2502
60575W        W 3669  10.070  22.279  20.384 -0.1765 -0.0222 -0.0815
60576W        W 3670  11.546  18.306  20.321  0.0226  0.2748 -0.0494
60577W        W 3671  11.317  22.404  21.120 -0.0619  0.1177  0.2113
60578W        W 3672  10.541  21.509  21.836 -0.0199  0.0542  0.1149
60579W        W 3673   9.974  21.892  20.764  0.0271  0.1171  0.2903
60580W        W 3674  13.045  18.129  21.119  0.0549 -0.0270 -0.0435
60581W        W 3675  12.581  20.251  21.470 -0.1091 -0.0867 -0.1510
60582W        W 3676  11.481  20.659  19.797 -0.1889 -0.1969  0.0566
60583W        W 3677  14.906  20.522  21.503 -0.2213 -0.1324  0.1116
60584W        W 3678  12.580  21.627  22.561 -0.1238 -0.2921  0.1915
60585W        W 3679  12.408  19.804  21.402  0.2276  0.1252 -0.0022
60586W        W 3680  12.613  23.463  21.037 -0.0080  0.2047  0.0224
60587W        W 3681  13.068  21.144  21.205  0.0634  0.1096 -0.0981
60588W        W 3682  10.480  21.958  20.709  0.3038  0.0726  0.5737
60589W        W 3683  10.563  20.593  23.697 -0.0445  0.1416  0.0909
60590W        W 3684  11.415  20.911  22.144 -0.0657 -0.0109  0.0290
60591W        W 3685  12.102  20.367  21.466  0.0947 -0.0141 -0.0365
60592W        W 3686  10.638  17.352  20.898 -0.0585 -0.1971 -0.0530
60593W        W 3687  11.414  21.576  19.084  0.1006  0.2629  0.2330
60594W        W 3688  10.381  20.144  23.724  0.1357 -0.0721  0.0345
60595W        W 3689   9.501  20.825  23.437 -0.2283 -0.4361 -0.2117
60596W        W 3690  10.525  22.839  19.930  0.0324  0.2887 -0.1201
60597W        W 3691  12.794  21.356  19.039 -0.3968  0.2701  0.1911
60598W        W 3692  11.634  20.639  19.292 -0.2513 -0.0715 -0.2252
60599W        W 3693  13.663  22.815  22.552 -0.3303 -0.0488  0.1584
60600W        W 3694  12.055  19.447  20.306  0.0398  0.3645  0.2843
60601W        W 3695  10.620  20.982  21.098 -0.1589 -0.1484  0.0846
60602W        W 3696   9.363  22.057  21.524 -0.1071  0.0928  0.0033
60603W        W 3697  13.833  22.246  19.402  0.0344  0.1432 -0.1102
60604W        W 3698  10.655  21.761  19.732  0.2299 -0.3964 -0.0522
60605W        W 3699  13.267  21.534  21.416  0.1081  0.0628 -0.1063
60606W        W 3700  12.113  17.468  18.882 -0.0002 -0.0208 -0.2071
60607W        W 3701  13.706  21.082  20.383  0.1037 -0.2804  0.0516
60608W        W 3702  14.320  18.887  19.887  0.3617  0.1410 -0.2741
60609W        W 3703  14.106  22.909  21.922  0.1819  0.4353 -0.0455
60610W        W 3704  11.315  20.083  21.350  0.2141  0.3581 -0.1402
60611W        W 3705  12.091  18.510  20.633  0.1309  0.0228  0.1369
60612W        W 3706  10.348  19.973  20.954  0.2530 -0.1869 -0.1348
60613W        W 3707  13.728  18.140  20.931 -0.2089 -0.0547 -0.1216
60614W        W 3708  10.783  21.918  22.828  0.3929 -0.3508  0.1136
60615W        W 3709  15.762  22.711  18.865 -0.2120  0.0275  0.2237
60616W        W 3710  10.556  17.921  20.665  0.2008  0.0795  0.1953
60617W        W 3711  11.708  21.464  20.456 -0.1276  0.0179 -0.0023
60618W        W 3712  14.211  17.725  19.535 -0.3127 -0.2796 -0.0737
60619W        W 3713  11.451  21.115  20.000  0.0003  0.0375  0.3408
60620W        W 3714  10.982  20.750  20.767  0.1699  0.1042 -0.1910
60621W        W 3715  12.716  22.662  20.634 -0.2426  0.1949 -0.0159
60622W        W 3716  10.933  22.317  19.404 -0.1634 -0.0429 -0.1974
60623W        W 3717  10.835  22.085  21.037 -0.2955  0.2135  0.2215
60624W        W 3718   9.481  18.239  20.576  0.0037 -0.1537  0.0517
60625W        W 3719  13.469  20.531  20.181  0.1970 -0.0417  0.2781
60626W        W 3720  10.893  21.188  21.423 -0.2426  0.3676  0.2184
60627W        W 3721  13.186  19.514  21.843  0.0122  0.2576  0.1185
60628W        W 3722  11.511  19.583  21.061 -0.1998 -0.0099  0.1470
60629W        W 3723  12.694  20.171  20.120 -0.4457  0.1147 -0.2348
60630W        W 3724  12.279  21.705  21.585  0.0090 -0.2070  0.0154
60631W        W 3725  11.455  19.654  21.505  0.2178 -0.1847 -0.2943
60632W        W 3726  13.034  19.048  20.235 -0.1884  0.1935 -0.5194
60633W        W 3727  14.533  19.599  21.188 -0.0597  0.1803  0.0105
60634W        W 3728  12.964  20.131  19.610  0.1138  0.1354 -0.1845
60635W        W 3729  12.530  21.148  21.212  0.2109  0.2208 -0.0948
60636W        W 3730  11.275  19.101  21.296 -0.2572  0.1172 -0.0271
60637W        W 3731  12.009  19.910  19.620  0.0204  0.3497 -0.0855
60638W        W 3732  10.869  19.149  20.031  0.1068  0.1498  0.1636
60639W        W 3733  11.723  21.657  21.139  0.0713 -0.0385 -0.1804
60640W        W 3734  14.592  22.553  23.128 -0.1793  0.0661  0.1652
60641W        W 3735  11.278  18.800  20.881  0.1257  0.2448 -0.4039
60642W        W 3736  14.484  22.367  17.970 -0.0406  0.0684 -0.2087
60643W        W 3737  11.968  20.506  20.742  0.0915 -0.0479 -0.3090
60644W        W 3738  13.459  21.854  19.578 -0.2934 -0.0901 -0.4021
60645W        W 3739  11.754  19.789  18.733  0.2527 -0.0751 -0.0264
60646W        W 3740  13.011  22.308  20.377 -0.1268  0.1681  0.1299
60647W        W 3741  12.415  19.450  21.802  0.3688  0.2702  0.1954
60648W        W 3742  13.891  23.830  21.717 -0.1418  0.0456 -0.1024
60649W        W 3743  13.709  22.563  22.045 -0.1423  0.0021  0.2759
60650W        W 3744  11.479  19.721  19.765  0.2841  0.0336  0.2194
60651W        W 3745  11.399  20.145  19.002 -0.2011 -0.3428 -0.2613
60652W        W 3746   9.696  21.683  19.820 -0.3326  0.0191  0.1285
60653W        W 3747  11.827  19.377  19.794 -0.1711 -0.1117 -0.0476
60654W        W 3748  11.800  19.299  21.389  0.1099  0.0967 -0.3365
60655W        W 3749  12.334  22.452  19.047 -0.0264  0.0962  0.2369
60656W        W 3750  12.676  20.196  22.226  0.1337  0.0992  0.1294
60657W        W 3751  11.056  21.421  19.827  0.0203  0.0118  0.2340
60658W        W 3752  11.578  21.787  23.369  0.2878 -0.1701 -0.0502
60659W        W 3753  10.470  20.211  20.501 -0.0758  0.3925  0.3409
60660W        W 3754  12.039  21.269  21.366 -0.3493  0.1093 -0.0864
60661W        W 3755   9.760  20.843  21.023  0.1614  0.0738  0.0864
60662W        W 3756  11.482  21.675  19.916  0.1364  0.1621  0.2987
60663W        W 3757  14.696  23.140  19.942  0.0993  0.0657  0.0798
60664W        W 3758  11.560  20.256  20.511  0.1708 -0.0252 -0.3271
60665W        W 3759  13.386  22.042  20.703  0.1383 -0.2562 -0.2189
60666W        W 3760  10.698  19.707  20.698  0.0112  0.1056  0.2270
60667W        W 3761  12.767  17.707  19.774 -0.1205 -0.3296 -0.2536
60668W        W 3762  13.016  16.647  19.931  0.5226 -0.0534  0.0934
60669W        W 3763  11.120  21.372  22.559  0.0973 -0.1772  0.0614
60670W        W 3764   9.290  20.320  19.978  0.0597  0.1610 -0.5647
60671W        W 3765  10.935  19.968  19.097 -0.2115  0.0868 -0.2517
60672W        W 3766  10.846  21.591  20.935  0.1084 -0.1837  0.3713
60673W        W 3767  10.990  18.598  22.522  0.4870  0.0384 -0.2155
60674W        W 3768  11.324  21.460  21.330  0.2085 -0.2516 -0.1674
60675W        W 3769  10.110  20.511  20.164  0.1825  0.1453 -0.0234
60676W        W 3770  10.990  18.255  20.597  0.0042  0.4359  0.0663
60677W        W 3771  13.425  20.208  19.456  0.2739 -0.1238 -0.1658
60678W        W 3772  11.785  18.947  20.982 -0.0802 -0.0021  0.1762
60679W        W 3773  11.513  18.549  21.241 -0.0216 -0.1701  0.3678
60680W        W 3774  13.949  21.630  19.461 -0.1226  0.1586 -0.2707
60681W        W 3775  14.753  21.752  19.157  0.0360 -0.1568 -0.0609
60682W        W 3776  11.025  17.675  20.832 -0.0612  0.0775  0.2087
60683W        W 3777  14.520  22.942  23.983 -0.2921 -0.1834 -0.2003
60684W        W 3778  10.145  20.944  18.860 -0.0992 -0.2268  0.2823
60685W        W 3779  11.553  21.958  22.081  0.0181 -0.1155 -0.0028
60686W        W 3780  10.800  18.768  23.082  0.0047 -0.5018 -0.0889
60687W        W 3781   9.752  17.218  19.675  0.2463 -0.1127 -0.1440
60688W        W 3782  12.767  19.473  21.470  0.2289 -0.2449  0.1794
60689W        W 3783  13.057  23.081  20.462 -0.0981  0.2070 -0.4397
60690W        W 3784  12.731  23.164  18.619 -0.1459  0.0042 -0.4195
60691W        W 3785  12.796  21.244  20.019 -0.0597 -0.0152  0.1048
60692W        W 3786  13.258  21.898  22.087  0.1255 -0.2248 -0.1074
60693W        W 3787   8.412  17.393  22.925  0.1769 -0.0380  0.1169
60694W        W 3788  11.502  20.221  19.568 -0.4109 -0.4570  0.0771
60695W        W 3789  11.790  20.676  21.880 -0.1771  0.2167 -0.1203
60696W        W 3790  14.361  22.042  20.087 -0.2364 -0.1223  0.1793
60697W        W 3791  14.044  18.112  19.790  0.1337 -0.2076 -0.1196
60698W        W 3792  12.995  21.072  19.495  0.1247  0.0001  0.1576
60699W        W 3793  10.426  19.225  22.394  0.0858  0.0092 -0.0474
60700W        W 3794  12.323  22.646  22.804  0.1906 -0.0089  0.0019
60701W        W 3795  14.311  21.107  21.451 -0.1369  0.1032 -0.1172
60702W        W 3796  10.849  17.572  22.070  0.3154  0.3105 -0.0497
60703W        W 3797  11.994  19.733  21.115  0.0136 -0.0013  0.0180
60704W        W 3798  14.042  21.197  19.675 -0.1504  0.0294 -0.1090
60705W        W 3799  10.945  20.304  21.622 -0.0763  0.1708 -0.4813
60706W        W 3800  11.011  20.258  20.885  0.0583  0.0539  0.2344
60707W        W 3801  11.680  20.922  20.609 -0.1094  0.1907  0.0111
60708W        W 3802  12.322  21.333  20.385  0.0132  0.0502 -0.1738
60709W        W 3803  12.619  21.710  23.041 -0.0269 -0.1355 -0.0666
60710W        W 3804  11.164  19.824  20.650  0.2903 -0.3163  0.0788
60711W        W 3805  14.291  21.239  18.345 -0.3260 -0.0136 -0.0508
60712W        W 3806  13.670  22.130  21.835  0.3417  0.0218 -0.2706
60713W        W 3807  13.320  22.363  22.795 -0.1010  0.0811 -0.0112
60714W        W 3808  14.548  22.625  21.685 -0.5393  0.1685  0.0337
60715W        W 3809  13.660  21.736  21.126  0.1130 -0.1070  0.0485
60716W        W 3810  10.771  17.490  21.562 -0.2230 -0.0331  0.1782
60717W        W 3811  10.938  20.959  20.180 -0.1117  0.1292  0.3569
60718W        W 3812  11.174  21.185  20.987  0.0245  0.1401  0.0382
60719W        W 3813  13.482  19.012  21.093 -0.0411  0.1583  0.2464
60720W        W 3814  10.556  19.726  21.646 -0.0995  0.1953 -0.2637
60721W        W 3815  12.395  18.195  19.385  0.0219 -0.2223 -0.0840
60722W        W 3816  12.828  22.636  21.117  0.1601  0.0145  0.0437
60723W        W 3817  11.609  22.125  20.841 -0.3707 -0.1545  0.0930
60724W        W 3818  11.631  20.552  25.942  0.3148 -0.2159  0.1083
60725W        W 3819  12.183  20.082  23.015 -0.1784 -0.0529 -0.1624
60726W        W 3820  15.027  19.472  21.177  0.1335 -0.3703  0.1663
60727W        W 3821  13.282  19.585  22.480  0.0083 -0.1654  0.4196
60728W        W 3822  11.888  18.767  22.159 -0.0016 -0.2558 -0.2956
60729W        W 3823  11.810  22.433  24.497 -0.0009 -0.1945 -0.0767
60730W        W 3824  10.991  19.755  26.208  0.0386  0.0804  0.1558
60731W        W 3825  13.702  22.018  23.691 -0.0641 -0.1619 -0.0427
60732W        W 3826  15.014  21.512  24.110  0.0197 -0.2605 -0.0261
60733W        W 3827  12.750  20.904  22.020  0.1587 -0.0753  0.0663
60734W        W 3828  12.446  19.274  23.490 -0.0419  0.0296  0.1178
60735W        W 3829  11.628  21.171  26.070  0.3978 -0.1859 -0.0863
60736W        W 3830  12.077  18.552  21.164  0.0798  0.2829 -0.4177
60737W        W 3831  10.185  17.615  24.350  0.0168  0.0546  0.0289
60738W        W 3832  12.218  20.703  23.644 -0.0683 -0.1324  0.2127
60739W        W 3833  11.814  23.001  24.251 -0.0856 -0.2919  0.0010
60740W        W 3834  10.882  20.626  25.953 -0.1148  0.2313  0.1174
60741W        W 3835  13.446  20.316  23.497  0.0714 -0.0673 -0.0019
60742W        W 3836  13.280  23.766  24.243  0.1000 -0.1719 -0.0662
60743W        W 3837  11.309  19.904  24.759 -0.3740 -0.2712 -0.0203
60744W        W 3838  12.446  18.278  24.433  0.1596  0.0191  0.0252
60745W        W 3839  12.035  23.007  23.030 -0.0504 -0.0876  0.2189
60746W        W 3840  10.848  20.111  24.981  0.1356  0.0422  0.1699
60747W        W 3841   9.678  20.589  24.120 -0.1847 -0.0338  0.0805
60748W        W 3842  12.015  19.688  24.311 -0.2231  0.1150 -0.0488
60749W        W 3843  12.753  19.241  23.880  0.0642  0.1097 -0.0982
60750W        W 3844  13.905  19.428  23.640 -0.2329 -0.0097  0.3334
60751W        W 3845  12.213  23.255  24.207  0.1432  0.0717  0.2581
60752W        W 3846  11.333  21.327  24.846 -0.2971  0.1572 -0.0931
60753W        W 3847  13.431  19.466  24.514 -0.4395  0.0291 -0.2775
60754W        W 3848  10.967  21.123  24.461  0.1736  0.0152 -0.1732
60755W        W 3849  11.416  23.701  25.943  0.0067 -0.0171 -0.0200
60756W        W 3850  11.090  21.798  23.657  0.1885  0.2833  0.3576
60757W        W 3851  15.326  20.257  23.254  0.1168 -0.1441  0.1252
60758W        W 3852  13.056  21.532  22.685  0.2257  0.0295 -0.0308
60759W        W 3853  12.954  21.094  25.977  0.2183 -0.1244  0.0243
60760W        W 3854  11.459  22.179  23.036  0.3860 -0.0918 -0.2218
60761W        W 3855  13.693  22.347  26.515  0.1578  0.1621 -0.0234
60762W        W 3856  13.012  21.631  25.947 -0.1346 -0.0092  0.2130
60763W        W 3857  11.126  20.250  24.388  0.0118  0.3971  0.2708
60764W        W 3858  12.820  20.831  23.140 -0.1288 -0.3695 -0.0585
60765W        W 3859  11.570  20.518  23.698 -0.1871  0.5647  0.1181
60766W        W 3860  11.991  21.435  24.191 -0.5348  0.1052  0.0246
60767W        W 3861  13.024  19.492  25.091 -0.0317 -0.0069  0.0116
60768W        W 3862  11.156  20.605  24.011 -0.0859  0.2526  0.0165
60769W        W 3863  13.729  19.253  24.155 -0.1544 -0.3991 -0.1990
60770W        W 3864  12.136  21.425  22.801  0.1525 -0.1988 -0.3508
60771W        W 3865  13.077  19.948  23.255  0.2746  0.2437  0.1477
60772W        W 3866  11.604  21.066  21.574 -0.1004 -0.0431  0.0984
60773W        W 3867  15.150  19.247  21.633  0.1736  0.1196 -0.4174
60774W        W 3868  11.611  20.197  22.835 -0.0110 -0.2003 -0.0215
60775W        W 3869  13.689  23.486  25.447 -0.0333  0.1478 -0.1347
60776W        W 3870  13.040  19.178  22.611  0.1705  0.0916 -0.1447
60777W        W 3871  15.154  20.704  23.471  0.1003 -0.0570  0.2132
60778W        W 3872  13.426  21.455  22.389  0.2764 -0.0989  0.1119
60779W        W 3873  11.839  20.894  24.106 -0.2074  0.1349  0.1632
60780W        W 3874  11.817  21.967  25.873  0.3480 -0.0069 -0.3585
60781W        W 3875  11.591  20.263  24.530  0.1744 -0.2821 -0.0412
60782W        W 3876  14.745  21.588  22.516 -0.1131  0.1430 -0.4047
60783W        W 3877  12.706  20.979  23.604 -0.0018  0.1337 -0.3403
60784W        W 3878  12.251  21.437  22.248 -0.2541  0.2323  0.0985
60785W        W 3879  10.197  19.229  24.112  0.0577  0.1703 -0.0245
60786W        W 3880  11.593  19.364  26.128  0.0613  0.0527  0.0386
60787W        W 3881  10.662  21.223  26.627 -0.0646  0.1589  0.0752
60788W        W 3882  10.784  19.855  22.961 -0.2600  0.0362  0.1207
60789W        W 3883  15.152  21.603  24.603 -0.1056  0.0490  0.0124
60790W        W 3884  11.564  20.784  26.717  0.0686 -0.3006 -0.1284
60791W        W 3885  12.473  19.729  23.290  0.1367  0.3630 -0.0082
60792W        W 3886  12.012  21.447  25.565  0.0137 -0.1449 -0.1456
60793W        W 3887  11.751  19.713  22.974 -0.0797  0.0546 -0.0221
60794W        W 3888  12.874  21.525  22.222 -0.2892  0.0000  0.1833
60795W        W 3889  12.065  19.411  23.263 -0.1967  0.0403  0.2931
60796W        W 3890  13.557  19.021  22.795 -0.2021 -0.2462  0.0503
60797W        W 3891  11.386  19.868  22.517  0.0093  0.1290  0.2112
60798W        W 3892  11.391  20.587  23.192 -0.0675  0.1297  0.2146
60799W        W 3893  14.496  21.996  23.895 -0.2880 -0.2311  0.4180
60800W        W 3894  12.693  21.614  21.267 -0.1175 -0.0071 -0.3858
60801W        W 3895  10.886  21.013  25.552  0.1515 -0.1780  0.0031
60802W        W 3896  12.626  18.164  23.409  0.4255 -0.1344  0.3338
60803W        W 3897  12.483  21.574  25.367  0.0922 -0.0773  0.0368
60804W        W 3898   9.230  21.886  25.845  0.0010  0.0575 -0.1828
60805W        W 3899  11.685  21.643  24.663 -0.0108 -0.2705 -0.0909
60806W        W 3900  10.776  19.794  23.830 -0.1121 -0.1089  0.2964
60807W        W 3901  11.635  19.361  24.498 -0.0597 -0.0496  0.2399
60808W        W 3902  10.197  21.043  26.469 -0.1288 -0.4969  0.2122
60809W        W 3903  13.958  19.658  21.409 -0.2151  0.2226  0.4219
60810W        W 3904  12.267  16.918  24.667 -0.1008  0.1858 -0.1364
60811W        W 3905  14.207  19.480  22.274  0.0821 -0.1004  0.0248
60812W        W 3906   9.641  21.584  25.939  0.0163 -0.0710 -0.0021
60813W        W 3907  14.871  21.543  23.131  0.1241 -0.0654  0.0878
60814W        W 3908  14.499  20.122  21.139 -0.1223  0.0195  0.2323
60815W        W 3909  13.947  22.003  22.246 -0.1775 -0.2145  0.2117
60816W        W 3910  11.305  19.662  25.708  0.0047 -0.3512 -0.2644
60817W        W 3911  11.634  18.340  24.185 -0.3903  0.1783  0.0557
60818W        W 3912  10.569  18.790  25.443 -0.0431 -0.1996  0.1135
60819W        W 3913  11.750  19.006  24.800 -0.1648  0.0391  0.0807
60820W        W 3914  12.098  20.192  24.484 -0.0027  0.1823 -0.2401
60821W        W 3915  11.950  19.230  21.917  0.0006  0.0028 -0.0284
60822W        W 3916  13.278  20.735  24.710  0.3624 -0.0913 -0.1842
60823W        W 3917  11.571  18.805  23.387 -0.2153 -0.0105  0.0095
60824W        W 3918  10.283  20.517  24.169  0.1766 -0.0074  0.0521
60825W        W 3919  13.737  18.950  23.748 -0.2433 -0.1827 -0.2572
60826W        W 3920  13.250  21.803  23.316  0.1037  0.0920 -0.2153
60827W        W 3921  14.224  22.183  24.431 -0.0502 -0.0462  0.0178
60828W        W 3922  15.111  23.004  24.638 -0.0056 -0.2573 -0.0798
60829W        W 3923  10.600  19.192  25.870 -0.1708 -0.1982  0.2772
60830W        W 3924  11.798  18.902  22.660  0.2623 -0.1588 -0.1037
60831W        W 3925  11.395  22.479  24.850  0.0006  0.5546 -0.0502
60832W        W 3926  11.329  22.147  24.383 -0.1157 -0.5514  0.0412
60833W        W 3927  11.468  19.039  22.236 -0.2486  0.1093 -0.0084
60834W        W 3928  13.452  24.339  23.898 -0.0631 -0.1087  0.0065
60835W        W 3929  12.672  20.399  23.868 -0.0589 -0.1103  0.3135
60836W        W 3930  11.546  20.334  26.439 -0.1257  0.2321  0.0855
60837W        W 3931  13.094  18.295  23.237  0.0201 -0.1176 -0.2450
60838W        W 3932  14.678  20.883  23.251  0.1296  0.1854  0.1934
60839W        W 3933  11.144  20.267  22.808  0.2948 -0.1819  0.2480
60840W        W 3934  10.410  17.843  22.997  0.0038 -0.4617  0.2576
60841W        W 3935  13.897  23.441  24.514  0.0244  0.1270 -0.1559
60842W        W 3936  11.474  21.207  24.386  0.0798 -0.2702 -0.0721
60843W        W 3937  10.562  19.632  24.236 -0.0883 -0.0956  0.1364
60844W        W 3938  12.375  20.571  23.067 -0.1738 -0.2171  0.0952
60845W        W 3939  12.984  19.476  23.447 -0.2227 -0.0087  0.3397
60846W        W 3940  10.227  19.094  26.151 -0.2301  0.0791 -0.0593
60847W        W 3941  12.470  19.867  24.607  0.2290 -0.1849 -0.1968
60848W        W 3942  12.151  19.564  23.844  0.2197 -0.0573 -0.0152
60849W        W 3943  11.652  22.223  27.264 -0.1238  0.1599  0.1166
60850W        W 3944  13.758  19.157  21.510  0.1922 -0.1990  0.0064
60851W        W 3945  14.644  20.375  20.724 -0.0780  0.2962  0.1958
60852W        W 3946  13.750  20.383  24.674 -0.2966 -0.3487 -0.1782
60853W        W 3947  13.875  20.518  23.690 -0.2003  0.0460  0.0062
60854W        W 3948  12.825  20.843  20.891  0.1610 -0.1651 -0.4621
60855W        W 3949  13.306  20.063  22.011  0.2220  0.0705 -0.0327
60856W        W 3950  12.096  20.502  25.682 -0.2206  0.0734  0.4232
60857W        W 3951  12.622  22.522  22.280  0.2142  0.2902  0.1458
60858W        W 3952  11.297  20.766  26.292  0.2231 -0.1339  0.0239
60859W        W 3953  13.602  19.882  22.853 -0.1193  0.4504 -0.2486
60860W        W 3954  14.862  22.074  21.247  0.2921 -0.0521 -0.1002
60861W        W 3955   9.948  20.556  25.784 -0.0965  0.0286  0.0225
60862W        W 3956  12.402  21.197  24.921  0.0529  0.3571  0.2695
60863W        W 3957  13.183  22.210  24.191 -0.0132  0.0318 -0.1663
60864W        W 3958  11.567  18.514  24.671 -0.0939 -0.1974 -0.1693
60865W        W 3959  12.493  20.467  21.871 -0.1386 -0.0630 -0.2064
60866W        W 3960  12.107  18.237  24.089 -0.0185  0.2407  0.0978
60867W        W 3961  11.777  22.300  23.478  0.0843  0.1339 -0.1523
60868W        W 3962  13.741  19.124  23.238 -0.2044  0.0969 -0.2245
60869W        W 3963  12.274  19.054  23.906  0.1770 -0.1144 -0.1955
60870W        W 3964  11.791  17.803  24.263 -0.0297  0.0877  0.2163
60871W        W 3965  13.790  20.892  23.238 -0.2779  0.0178 -0.1137
60872W        W 3966  12.500  20.209  23.406  0.1037  0.0082  0.1488
60873W        W 3967  12.785  21.643  25.004  0.1156 -0.2820  0.0046
60874W        W 3968  11.028  19.039  22.717 -0.1633 -0.5557 -0.0419
60875W        W 3969  12.616  18.617  23.015 -0.2473 -0.0624 -0.0795
60876W        W 3970  10.303  20.514  26.142  0.0271  0.2729  0.3208
60877W        W 3971  12.047  23.732  25.565 -0.1146  0.3014 -0.0238
60878W        W 3972  13.076  22.120  25.049 -0.0738  0.1348  0.3126
60879W        W 3973  12.404  21.710  24.687 -0.0862 -0.1398 -0.4533
60880W        W 3974  12.687  20.751  21.526 -0.0040 -0.0366  0.2706
60881W        W 3975  10.954  23.014  24.344 -0.1278  0.0696 -0.4284
60882W        W 3976  11.239  20.768  21.685  0.1624 -0.0764 -0.1357
60883W        W 3977  12.720  17.991  23.919  0.1991 -0.0101  0.2403
60884W        W 3978  12.823  21.462  26.369  0.1169 -0.0819 -0.0287
60885W        W 3979  13.513  22.262  22.349 -0.1042  0.0447  0.1654
60886W        W 3980  13.600  21.461  24.719 -0.0948 -0.0560  0.1542
60887W        W 3981  11.089  21.581  24.531  0.0630  0.2180 -0.0589
60888W        W 3982  13.025  18.722  22.001 -0.2243 -0.1348 -0.0883
60889W        W 3983  10.153  22.181  25.190  0.3090 -0.2784  0.0089
60890W        W 3984  12.848  19.597  22.951  0.1446  0.1084 -0.0658
60891W        W 3985  10.418  20.881  25.212 -0.1468  0.4940  0.0420
60892W        W 3986  12.141  19.129  22.361  0.0139 -0.1641  0.0486
60893W        W 3987  12.968  22.033  22.463 -0.3186  0.1386  0.2849
60894W        W 3988  12.513  18.634  25.354  0.3890 -0.0573  0.2271
60895W        W 3989  12.590  17.499  23.523  0.4262 -0.2020 -0.1248
60896W        W 3990  10.690  20.777  26.387 -0.0028  0.0938 -0.0189
60897W        W 3991  12.070  20.239  23.684  0.5412 -0.2884 -0.1143
60898W        W 3992  13.126  20.056  22.530 -0.0762 -0.0400 -0.0286
60899W        W 3993  14.298  21.955  23.471  0.2901  0.3193  0.0073
60900W        W 3994  12.169  19.851  25.511 -0.1054 -0.0562  0.1579
60901W        W 3995  10.736  18.205  22.662 -0.1090  0.2714  0.2631
60902W        W 3996  13.095  19.760  24.047 -0.1180 -0.3062 -0.2397
60903W        W 3997  12.363  20.005  24.038 -0.0520 -0.2048  0.1483
60904W        W 3998  10.855  21.674  24.970  0.3369  0.0952 -0.1093
60905W        W 3999  13.373  22.009  24.617  0.0899  0.3462 -0.3097
60906W        W 4000  11.889  20.494  23.188  0.2759  0.1422  0.2191
60907W        W 4001  12.855  24.113  24.252 -0.1691 -0.0701 -0.2781
60908W        W 4002  11.660  18.921  24.241  0.1219  0.0079 -0.0599
60909W        W 4003  12.872  20.733  25.032  0.1078 -0.0120  0.2264
60910W        W 4004  11.956  19.860  23.395 -0.2727 -0.0940  0.0579
60911W        W 4005  10.707  19.154  24.433 -0.0884 -0.0895 -0.1506
60912W        W 4006  11.045  19.954  23.454 -0.0639 -0.0750 -0.1532
60913W        W 4007  13.192  20.915  23.881  0.0845  0.0838 -0.1536
60914W        W 4008  11.529  19.781  24.280 -0.0955  0.1116  0.1175
60915W        W 4009  12.940  21.824  26.740 -0.1171 -0.2869 -0.1495
60916W        W 4010  12.548  17.749  24.367 -0.1094  0.1689  0.0285
60917W        W 4011  14.932  23.160  23.663 -0.0253  0.1211 -0.1864
60918W        W 4012  12.151  22.812  23.835 -0.1898  0.2848 -0.1601
60919W        W 4013   9.698  19.400  25.432 -0.1326  0.1820 -0.1893
60920W        W 4014  10.536  20.107  24.521 -0.0900  0.3097  0.0189
60921W        W 4015  11.483  19.647  23.396 -0.0184 -0.0124 -0.4006
60922W        W 4016  10.974  21.106  26.079  0.2411  0.2623  0.3368
60923W        W 4017  10.385  20.597  24.761  0.1118 -0.1386 -0.2242
60924W        W 4018  10.168  20.128  25.796  0.0354  0.1865  0.0103
60925W        W 4019  14.703  19.948  21.617 -0.0254 -0.0280  0.2398
60926W        W 4020  12.850  22.114  23.515 -0.2887  0.3987 -0.0404
60927W        W 4021  11.697  19.468  22.509  0.0736 -0.3423 -0.0271
60928W        W 4022  13.309  20.967  22.871  0.0395  0.0255 -0.1247
60929W        W 4023  11.259  18.883  24.571 -0.0861  0.0798  0.2348
60930W        W 4024  14.461  21.484  23.425  0.0207  0.4142  0.0783
60931W        W 4025  11.500  19.499  25.039 -0.0037 -0.0263 -0.1676
60932W        W 4026  11.301  22.065  25.838  0.0867  0.1034 -0.1330
60933W        W 4027  11.385  19.566  26.506 -0.0668  0.1488  0.0141
60934W        W 4028  11.863  19.144  23.626  0.1979 -0.0230 -0.4293
60935W        W 4029  10.589  17.793  22.435 -0.2357 -0.0592  0.2019
60936W        W 4030  11.180  20.207  26.065 -0.0068  0.1217  0.3296
60937W        W 4031  16.199  20.168  22.949  0.0125 -0.0368  0.1743
60938W        W 4032  12.096  21.761  23.768 -0.2295 -0.3193  0.3535
60939W        W 4033  11.990  18.936  23.152  0.1739  0.1200 -0.5293
60940W        W 4034  10.389  20.932  24.407 -0.2725  0.0997  0.4147
60941W        W 4035  12.874  22.504  22.733  0.2483  0.1017  0.1725
60942W        W 4036  10.328  20.506  23.060  0.2241  0.0989  0.1539
60943W        W 4037  12.876  21.597  23.591 -0.0975  0.0438  0.1400
60944W        W 4038  12.394  18.977  25.817 -0.2755 -0.0537 -0.0232
60945W        W 4039  13.690  22.577  23.620  0.0699  0.1723 -0.0000
60946W        W 4040  13.974  19.358  22.853  0.2691 -0.2536 -0.0564
60947W        W 4041  13.085  18.281  23.779 -0.4223 -0.3026  0.1289
60948W        W 4042  12.633  19.627  24.192  0.0401 -0.1619 -0.1995
60949W        W 4043  12.329  21.049  24.382 -0.0411  0.3290  0.2429
60950W        W 4044  12.519  19.900  26.073  0.0789 -0.0673  0.2890
60951W        W 4045  14.086  22.302  23.778 -0.0591 -0.1316 -0.0251
60952W        W 4046  14.629  20.301  22.073  0.4412 -0.1563  0.0578
60953W        W 4047  13.295  19.333  23.830 -0.1754  0.0892 -0.0158
60954W        W 4048  14.548  20.589  22.791 -0.1439  0.0974 -0.0709
60955W        W 4049  11.741  20.918  22.886  0.2673  0.0089  0.0899
60956W        W 4050  10.673  19.583  24.768  0.0289  0.4122 -0.0321
60957W        W 4051  13.075  20.527  22.816 -0.0427 -0.0651  0.1201
60958W        W 4052  13.161  18.755  23.809  0.1415 -0.0933 -0.1808
60959W        W 4053  12.117  21.916  22.612  0.2107  0.1565  0.4155
60960W        W 4054  13.027  21.291  23.257  0.1205 -0.1115  0.0689
60961W        W 4055  13.170  20.041  21.280  0.0695 -0.1044  0.1813
60962W        W 4056  10.242  19.514  24.959  0.2075 -0.1590  0.2139
60963W        W 4057  11.457  23.195  27.016 -0.0171 -0.0815  0.2758
60964W        W 4058  10.827  18.951  22.211 -0.4383 -0.0882 -0.0943
60965W        W 4059  11.156  19.536  22.939 -0.0142  0.0023  0.0838
60966W        W 4060  11.637  20.543  25.395  0.1285 -0.2782  0.2651
60967W        W 4061  12.409  18.118  21.214 -0.1474 -0.2699  0.2441
60968W        W 4062  13.872  20.138  23.220  0.0131 -0.2115 -0.1135
60969W        W 4063  11.341  21.101  23.957  0.0425 -0.1857 -0.1582
60970W        W 4064  12.513  18.275  22.649  0.0619 -0.0202  0.0246
60971W        W 4065  11.082  22.367  26.538  0.0209  0.0832  0.0518
60972W        W 4066  11.082  22.316  27.075  0.1567  0.0967 -0.0174
60973W        W 4067  12.484  22.043  25.050  0.2471  0.0243  0.4650
60974W        W 4068  13.069  17.671  23.827 -0.2788 -0.4953  0.2674
60975W        W 4069  13.128  20.270  23.858  0.1182  0.1287 -0.0064
60976W        W 4070  13.262  21.153  24.376  0.2221 -0.0061 -0.1036
60977W        W 4071  14.358  19.993  24.293 -0.2747  0.1952 -0.3507
60978W        W 4072  12.033  20.962  25.169  0.1727 -0.4569 -0.0098
60979W        W 4073  11.548  20.155  23.368 -0.0835  0.0306  0.0026
60980W        W 4074  11.835  21.989  24.196 -0.1450  0.3651  0.4701
60981W        W 4075  12.781  20.084  24.241 -0.0654 -0.0090  0.2624
60982W        W 4076  10.653  22.134  25.152 -0.1425  0.1569  0.3671
60983W        W 4077  11.348  19.871  27.002  0.2201 -0.1535 -0.1367
60984W        W 4078  12.336  20.698  24.909  0.1947 -0.3036 -0.1189
60985W        W 4079  12.048  21.191  23.731  0.0450  0.1795  0.2623
60986W        W 4080  12.177  18.616  22.539  0.5022  0.0743  0.3508
60987W        W 4081  11.373  20.722  22.632 -0.3127  0.1201  0.1164
60988W        W 4082  12.069  21.438  27.252  0.1541 -0.0897  0.0853
60989W        W 4083  11.429  20.371  27.014  0.0902  0.1497  0.0464
60990W        W 4084  12.290  20.931  22.692  0.1779  0.0753  0.0075
60991W        W 4085  13.320  21.393  21.896  0.0531 -0.2492 -0.1895
60992W        W 4086  12.077  21.725  23.233  0.1491 -0.0057 -0.2595
60993W        W 4087  12.770  22.935  24.656  0.3655 -0.1239 -0.1815
60994W        W 4088  12.072  20.479  22.598 -0.1555  0.0295 -0.0066
60995W        W 4089  11.599  21.642  25.192 -0.1094 -0.1883  0.0761
60996W        W 4090  11.183  21.901  25.383  0.0444  0.0341 -0.0889
60997W        W 4091  12.535  22.256  23.160  0.1164 -0.1834  0.1645
60998W        W 4092  11.445  22.501  26.060  0.0168 -0.2126  0.0881
60999W        W 4093  14.203  22.013  26.389 -0.0909  0.0766  0.3929
61000W        W 4094  12.855  19.750  22.188 -0.1251 -0.1739 -0.3278
61001W        W 4095  15.634  19.601  22.232  0.1096 -0.0197 -0.0190
61002W        W 4096  14.221  19.136  21.236  0.4209 -0.2507 -0.0721
61003W        W 4097  12.418  21.719  25.838  0.0412  0.1281  0.1039
61004W        W 4098  10.450  20.732  25.714  0.1387  0.2790  0.2624
61005W        W 4099  10.073  19.143  22.916 -0.0523 -0.0496  0.1421
61006W        W 4100  11.491  20.161  25.688 -0.3040  0.1124  0.2589
61007W        W 4101  14.127  18.936  24.033  0.0754 -0.0042 -0.2284
61008W        W 4102  12.297  21.538  26.556  0.0173  0.1246 -0.0704
61009W        W 4103  14.578  22.927  23.444  0.0664  0.1375  0.3134
61010W        W 4104  11.009  19.756  24.349  0.1347 -0.1156 -0.2783
61011W        W 4105  13.606  21.197  25.139  0.1514  0.0112  0.1673
61012W        W 4106  13.743  18.100  23.114  0.3431 -0.1092 -0.2310
61013W        W 4107  11.780  21.420  22.436  0.1004  0.1234  0.0742
61014W        W 4108  11.781  20.311  24.107  0.1531 -0.0554  0.1066
61015W        W 4109  11.729  22.481  24.019 -0.2503 -0.0450  0.0967
61016W        W 4110  11.237  20.386  24.879  0.3383  0.3714  0.4988
61017W        W 4111  12.139  21.967  25.419 -0.4899 -0.0867 -0.3647
61018W        W 4112   9.896  18.798  23.249  0.0491  0.0907  0.1482
61019W        W 4113  15.358  20.616  21.735  0.2702 -0.2217  0.0275
61020W        W 4114  11.193  19.224  24.178  0.0293 -0.1752  0.1499
61021W        W 4115  11.655  19.392  24.024 -0.2040 -0.0013  0.7246
61022W        W 4116  14.339  20.274  21.671 -0.0891  0.3936  0.2517
61023W        W 4117  11.958  19.116  25.259 -0.2385  0.1300 -0.0718
61024W        W 4118  11.795  19.762  24.714  0.3098  0.4138 -0.0948
61025W        W 4119  14.722  18.968  21.751  0.0408  0.1929 -0.2195
61026W        W 4120  13.082  20.540  24.263  0.2440  0.3867 -0.1601
61027W        W 4121  12.137  21.023  23.201 -0.2458  0.0231 -0.0390
61028W        W 4122  13.101  21.373  23.966  0.1938 -0.3416  0.0395
61029W        W 4123  12.053  20.358  25.214 -0.0725  0.2041 -0.0372
61030W        W 4124  13.675  19.802  22.265  0.0844 -0.0468 -0.0043
61031W        W 4125  12.249  20.584  24.120 -0.0080  0.0473 -0.1007
61032W        W 4126  11.114  20.550  25.415  0.0182  0.2290 -0.0016
61033W        W 4127  12.210  23.285  25.397  0.0853  0.0354  0.0285
61034W        W 4128   9.731  19.481  24.866 -0.1638 -0.4411 -0.1867
61035W        W 4129  13.920  21.740  22.695 -0.0421 -0.0454 -0.0777
61036W        W 4130  13.945  21.376  23.296  0.2750 -0.3638 -0.1230
61037W        W 4131   9.897  22.318  24.724  0.3215 -0.2314 -0.2456
61038W        W 4132  13.524  22.268  23.273 -0.1704  0.1717 -0.4809
61039W        W 4133  15.107  21.024  23.033 -0.2752 -0.1517 -0.3912
61040W        W 4134  10.967  19.211  25.508 -0.1061 -0.0643  0.2040
61041W        W 4135  12.442  22.295  24.623 -0.0173 -0.1168 -0.0579
61042W        W 4136  13.605  20.700  24.271  0.1239  0.1777 -0.1587
61043W        W 4137  12.624  19.403  22.510  0.0672  0.0195 -0.1135
61044W        W 4138  12.610  19.289  24.566  0.1507  0.0688 -0.1878
61045W        W 4139  10.342  21.825  25.471 -0.2061  0.2181  0.0717
61046W        W 4140  14.228  18.917  22.269  0.0950 -0.1197  0.0367
61047W        W 4141  13.290  18.934  23.363 -0.3428 -0.4939  0.1152
61048W        W 4142  13.336  20.888  21.652 -0.2887 -0.0712  0.0336
61049W        W 4143  13.405  17.712  24.210  0.1758  0.1078  0.1971
61050W        W 4144  12.662  21.415  24.428  0.2096 -0.0655 -0.0699
61051W        W 4145  11.673  22.661  25.212  0.1093 -0.2150  0.0021
61052W        W 4146  11.657  21.751  22.873 -0.3483 -0.2210 -0.2075
61053W        W 4147  13.146  21.196  24.919 -0.2026 -0.1454 -0.3195
61054W        W 4148  11.463  22.076  23.786 -0.1345  0.5785  0.0750
61055W        W 4149  10.929  22.113  24.657 -0.1258 -0.1723  0.3825
61056W        W 4150  12.845  22.051  24.642 -0.1557  0.0824  0.1552
61057W        W 4151  11.290  20.761  24.571 -0.1594 -0.1190  0.4656
61058W        W 4152  17.308  21.414  22.556  0.0375 -0.0693 -0.3549
61059W        W 4153  12.230  18.220  23.062 -0.0365  0.0419 -0.1427
61060W        W 4154  14.252  19.180  21.742 -0.1635 -0.0216 -0.3024
61061W        W 4155  13.846  19.469  21.878 -0.0956  0.1928  0.1035
61062W        W 4156  12.159  19.905  25.002 -0.2199 -0.0876  0.2505
61063W        W 4157  10.266  20.089  24.978  0.1104  0.2036  0.1131
61064W        W 4158  10.285  21.411  21.140  0.2266 -0.1983  0.2831
61065W        W 4159  10.541  20.401  25.228 -0.2671 -0.0161  0.1728
61066W        W 4160  11.145  17.299  26.974  0.1208 -0.0179  0.0875
61067W        W 4161  11.720  19.776  25.424 -0.1358  0.0304 -0.0871
61068W        W 4162  10.084  21.567  24.615 -0.0647  0.2120 -0.1287
61069W        W 4163  11.179  18.740  23.994  0.2874  0.0892 -0.2255
61070W        W 4164  13.572  20.670  22.522  0.2150  0.0954  0.0079
61071W        W 4165  11.857  18.774  25.717 -0.2414 -0.0619 -0.1240
61072W        W 4166  10.584  17.442  24.642 -0.0332 -0.0269  0.0476
61073W        W 4167  14.843  20.244  22.543 -0.1011 -0.1537 -0.1597
61074W        W 4168  13.069  22.812  23.992 -0.0846  0.1174 -0.0668
61075W        W 4169  12.757  20.172  22.954  0.0218  0.0712  0.2589
61076W        W 4170  13.842  22.751  25.024  0.0318 -0.1390  0.2518
61077W        W 4171  11.315  21.181  22.949 -0.0940  0.2145 -0.1480
61078W        W 4172  12.807  19.082  23.158  0.1454  0.0143  0.1114
61079W        W 4173  11.974  19.026  26.147 -0.2216  0.0802  0.2514
61080W        W 4174  10.136  18.548  23.778 -0.2384 -0.4001  0.1767
61081W        W 4175  12.551  20.482  24.474  0.0896 -0.2866 -0.3417
61082W        W 4176  13.430  21.747  24.191 -0.1136  0.0420  0.3699
61083W        W 4177  13.737  23.509  23.574 -0.1529  0.4534  0.0225
61084W        W 4178  11.403  21.560  25.660  0.1883 -0.4515 -0.1635
61085W        W 4179  12.788  21.120  25.404 -0.2017 -0.1025  0.0785
61086W        W 4180  10.781  18.643  24.409  0.1747  0.0750  0.1526
61087W        W 4181  13.543  20.426  22.961  0.0933 -0.5015 -0.1230
61088W        W 4182  12.465  20.736  25.402  0.2607  0.1716  0.1805
61089W        W 4183  13.261  20.768  23.356 -0.1090 -0.1108  0.1426
61090W        W 4184  14.354  18.624  21.878  0.2600  0.1788  0.3321
61091W        W 4185  11.656  20.947  23.457 -0.2465 -0.0849  0.0602
61092W        W 4186  11.032  17.979  25.713  0.2812 -0.4563  0.0702
61093W        W 4187  11.934  20.421  26.818  0.2136  0.2317 -0.0897
61094W        W 4188  14.047  20.514  22.836 -0.2019  0.2256 -0.2153
61095W        W 4189  10.744  18.434  23.937 -0.0339  0.1018  0.0270
61096W        W 4190  14.265  20.631  23.314 -0.0812  0.1670  0.2053
61097W        W 4191  12.960  22.051  22.982  0.1206 -0.1999 -0.0835
61098W        W 4192  11.303  20.901  25.740  0.0820 -0.1524 -0.0417
61099W        W 4193  12.737  19.797  23.706 -0.0726 -0.0338  0.1218
61100W        W 4194  11.605  21.152  25.408 -0.0606 -0.2999  0.3625
61101W        W 4195  12.835  21.840  24.094  0.2498 -0.0577  0.3518
61102W        W 4196  13.653  20.980  23.773 -0.2743  0.1293 -0.3328
61103W        W 4197  12.591  21.247  22.948  0.1623 -0.3485  0.2694
61104W        W 4198  13.431  21.853  22.670 -0.1010  0.2054  0.1409
61105W        W 4199  14.104  20.967  24.107 -0.0894 -0.0824  0.0775
61106W        W 4200  13.742  23.243  25.859 -0.1090  0.0050  0.2788
61107W        W 4201  11.882  21.195  24.703 -0.0412 -0.3448  0.2596
61108W        W 4202  13.374  19.484  23.026  0.0888 -0.1853 -0.1137
61109W        W 4203  10.784  19.100  24.926 -0.0762 -0.2221 -0.2020
61110W        W 4204  11.911  20.665  24.565 -0.1663  0.1402 -0.3112
61111W        W 4205  10.462  21.208  25.657  0.1533 -0.0237 -0.3200
61112W        W 4206  14.238  19.091  23.151  0.1415 -0.3997 -0.2628
61113W        W 4207  11.335  19.147  23.686  0.1402 -0.2160 -0.0592
61114W        W 4208  13.981  20.130  21.355  0.2597  0.0197  0.0490
61115W        W 4209  12.441  22.916  25.086  0.0940  0.2688 -0.1875
61116W        W 4210  12.996  20.267  24.660 -0.1115  0.1416  0.1788
61117W        W 4211  12.963  20.361  31.283  0.2064  0.1723  0.0927
61118W        W 4212  12.839  18.751  25.934  0.2037  0.0155  0.3789
61119W        W 4213  14.532  20.044  24.747 -0.1202 -0.2375 -0.1923
61120W        W 4214  11.084  17.669  27.353 -0.1930 -0.1767 -0.0266
61121W        W 4215  13.836  21.161  25.846  0.1740  0.1009  0.1551
61122W        W 4216  11.715  17.272  29.379 -0.1776 -0.1285 -0.2205
61123W        W 4217  13.467  21.537  27.800  0.2833 -0.0627 -0.0130
61124W        W 4218  13.579  21.198  27.395 -0.0131  0.3178  0.0392
61125W        W 4219  11.634  19.495  29.331 -0.2801  0.1142  0.1624
61126W        W 4220  12.755  21.658  30.607  0.1131  0.0275 -0.4905
61127W        W 4221  11.985  17.202  26.189 -0.2268  0.3100 -0.1653
61128W        W 4222  11.524  18.253  28.044  0.3845  0.1574  0.2158
61129W        W 4223  12.755  19.914  27.613 -0.0554 -0.1441  0.0542
61130W        W 4224   9.880  20.032  27.183  0.0397 -0.5481  0.2121
61131W        W 4225  12.307  17.907  27.815 -0.2962  0.1033  0.2856
61132W        W 4226  12.196  19.771  26.868  0.0901  0.2782 -0.1553
61133W        W 4227  12.813  20.866  27.113  0.4339 -0.0997 -0.0975
61134W        W 4228  10.717  18.447  29.559  0.2199  0.1137 -0.0012
61135W        W 4229  13.121  17.648  27.639  0.2144 -0.0374 -0.1160
61136W        W 4230  13.217  21.095  26.505 -0.1791 -0.3380 -0.3519
61137W        W 4231  10.664  19.353  27.709  0.1650  0.4348  0.0526
61138W        W 4232   9.721  19.814  28.414 -0.1314  0.1617 -0.0902
61139W        W 4233  11.266  20.345  28.703 -0.0270  0.1158  0.4446
61140W        W 4234  12.707  18.731  26.900  0.0077 -0.3205 -0.1053
61141W        W 4235  14.116  20.890  26.756 -0.0377 -0.2396  0.6551
61142W        W 4236  12.826  21.230  28.220  0.2352 -0.0900  0.2833
61143W        W 4237  13.701  21.188  26.450  0.1135  0.1732  0.2069
61144W        W 4238  14.784  20.172  29.116 -0.0467  0.0264  0.0030
61145W        W 4239  10.990  22.027  28.072  0.0512 -0.0874 -0.0061
61146W        W 4240  12.295  20.730  28.137 -0.0503 -0.0969  0.1430
61147W        W 4241  12.378  20.799  27.499  0.1425 -0.1061  0.1653
61148W        W 4242  14.334  20.962  28.645  0.3446  0.1648 -0.0492
61149W        W 4243  13.009  22.142  29.316  0.2123 -0.2129 -0.0850
61150W        W 4244  11.195  21.924  26.738  0.5110  0.1982 -0.2227
61151W        W 4245  13.425  22.399  30.507  0.1948  0.0392 -0.4500
61152W        W 4246  11.956  22.178  28.436 -0.0747 -0.0040 -0.0371
61153W        W 4247  12.491  19.873  29.056 -0.1904 -0.2198 -0.2501
61154W        W 4248  13.116  19.650  26.706  0.2585 -0.1082  0.1224
61155W        W 4249  13.140  20.728  27.464 -0.3643 -0.1560 -0.0345
61156W        W 4250  13.255  20.522  28.024 -0.3612 -0.2565  0.0626
61157W        W 4251  12.289  20.672  29.615 -0.0043 -0.1196 -0.1186
61158W        W 4252  11.027  21.625  30.296 -0.0698  0.0284  0.1108
61159W        W 4253  14.906  19.312  28.527 -0.2074  0.0887 -0.0944
61160W        W 4254  11.991  20.849  27.017 -0.1899 -0.1240  0.2521
61161W        W 4255  13.563  19.566  25.056 -0.0419 -0.0757 -0.2146
61162W        W 4256  12.280  18.691  23.500 -0.0019 -0.0245  0.2162
61163W        W 4257  12.941  19.976  25.060  0.0412 -0.0243  0.1847
61164W        W 4258  11.511  19.100  28.729 -0.2018 -0.1790 -0.1499
61165W        W 4259  12.998  22.902  28.636 -0.4266  0.0731  0.2341
61166W        W 4260  13.207  18.734  28.443 -0.0141 -0.1214 -0.0164
61167W        W 4261  13.503  22.576  28.035  0.3586  0.1182  0.0403
61168W        W 4262  14.193  19.048  28.221 -0.1805  0.3643 -0.2078
61169W        W 4263  12.753  20.402  28.665 -0.3460 -0.3611  0.0578
61170W        W 4264  11.118  18.653  28.919 -0.3214  0.0487  0.2414
61171W        W 4265  14.063  21.498  24.952  0.1021 -0.1040  0.1356
61172W        W 4266  13.637  22.960  25.430 -0.0860  0.2322 -0.0215
61173W        W 4267  12.162  18.967  28.049 -0.0651 -0.1966  0.0661
61174W        W 4268  12.801  21.243  31.238  0.1609 -0.0751  0.1641
61175W        W 4269  11.831  18.989  29.105 -0.0936  0.1691  0.0023
61176W        W 4270  12.063  18.631  24.427  0.0783  0.1076 -0.1372
61177W        W 4271  15.581  21.197  29.028 -0.0143  0.4297  0.0321
61178W        W 4272  12.351  22.399  30.418  0.0903 -0.3030  0.0517
61179W        W 4273  16.228  18.983  25.615  0.1777  0.0409 -0.0541
61180W        W 4274  11.934  20.471  28.365  0.1405 -0.0099 -0.0113
61181W        W 4275  12.817  21.791  28.376 -0.1559  0.1532  0.1134
61182W        W 4276  13.216  21.878  23.802 -0.0037 -0.0928  0.3712
61183W        W 4277  14.727  18.752  27.597  0.1632  0.1560 -0.0089
61184W        W 4278  13.844  18.067  28.352 -0.1730  0.2129  0.0890
61185W        W 4279  12.523  20.236  24.962  0.3616 -0.1870 -0.1945
61186W        W 4280  12.642  20.519  26.363 -0.1459  0.1979  0.1387
61187W        W 4281  12.225  20.408  27.724  0.0266  0.0097 -0.0195
61188W        W 4282  11.527  19.439  29.845  0.0756 -0.0437 -0.1442
61189W        W 4283  12.722  20.303  29.235 -0.0231  0.3032 -0.1466
61190W        W 4284  12.787  20.949  26.603  0.0187  0.0614 -0.0924
61191W        W 4285  10.751  21.126  29.080  0.1122  0.0015  0.0630
61192W        W 4286  11.265  19.406  26.987 -0.3883 -0.1613  0.1352
61193W        W 4287  11.292  17.469  29.456 -0.0463 -0.1738  0.0556
61194W        W 4288  12.662  22.767  30.838 -0.0562 -0.2290  0.1822
61195W        W 4289  14.137  19.730  24.945  0.3393 -0.1207  0.2714
61196W        W 4290  11.850  19.302  28.344 -0.0414  0.0907 -0.2185
61197W        W 4291  12.342  19.476  27.389  0.1349  0.0879 -0.1178
61198W        W 4292  13.281  22.812  25.790  0.0235 -0.0471 -0.4484
61199W        W 4293  13.739  22.721  26.153 -0.2590 -0.2586 -0.1082
61200W        W 4294  11.406  20.514  29.234 -0.2019 -0.2554  0.0967
61201W        W 4295  11.530  19.127  27.376 -0.1879  0.1314 -0.0898
61202W        W 4296  12.183  17.354  29.203  0.0072 -0.0439  0.2447
61203W        W 4297  12.192  19.059  26.593 -0.0302 -0.2200  0.2950
61204W        W 4298  14.628  19.730  28.549  0.3021 -0.2981 -0.1530
61205W        W 4299  11.245  18.387  27.652 -0.1497  0.3151  0.0678
61206W        W 4300  13.458  19.492  26.346 -0.0544 -0.0475  0.3824
61207W        W 4301  12.138  20.611  26.208  0.0065  0.0989 -0.3070
61208W        W 4302  12.347  21.179  26.872  0.1206  0.2149 -0.0100
61209W        W 4303  13.902  18.122  28.986 -0.1758  0.0970 -0.2319
61210W        W 4304  13.334  21.652  27.207 -0.2210 -0.2128  0.2141
61211W        W 4305  14.681  21.887  27.507 -0.0931 -0.0846 -0.1241
61212W        W 4306  12.835  23.108  26.658  0.0063 -0.1361 -0.1729
61213W        W 4307  11.434  18.208  29.006  0.2567  0.1653  0.0900
61214W        W 4308  11.768  19.491  26.945 -0.0869  0.0632 -0.2546
61215W        W 4309  11.118  21.165  27.510  0.2056  0.0714  0.1519
61216W        W 4310  12.287  20.163  28.723 -0.0889 -0.1759  0.1528
61217W        W 4311  12.478  19.265  26.274 -0.1539 -0.1516 -0.1744
61218W        W 4312  14.822  21.618  27.072  0.2581  0.3954  0.1208
61219W        W 4313  12.614  20.146  26.830  0.2362 -0.1982  0.1337
61220W        W 4314  11.039  21.029  29.988 -0.0715  0.4200 -0.1410
61221W        W 4315  12.273  18.054  28.726 -0.1828 -0.1979 -0.1715
61222W        W 4316  14.835  18.130  28.725 -0.0402 -0.3918  0.1465
61223W        W 4317  13.937  20.315  26.387  0.0701 -0.0528  0.1391
61224W        W 4318  12.551  18.471  24.863 -0.0297  0.2285 -0.0088
61225W        W 4319  14.122  20.598  27.325  0.0692  0.0510 -0.1603
61226W        W 4320  11.986  22.550  26.631  0.0087  0.2663  0.1181
61227W        W 4321  10.897  19.626  27.347 -0.0219  0.0918 -0.1801
61228W        W 4322  13.075  21.217  27.414 -0.2020 -0.0461  0.1927
61229W        W 4323  15.201  17.853  28.491  0.1598 -0.1667  0.1022
61230W        W 4324  11.306  20.284  31.155  0.0293 -0.0744  0.1339
61231W        W 4325  12.782  19.067  27.280  0.0073  0.2384 -0.3830
61232W        W 4326  11.802  18.684  27.704  0.0873  0.1636  0.2096
61233W        W 4327  12.032  20.554  30.504  0.0494 -0.0501 -0.0550
61234W        W 4328  13.573  20.173  28.384 -0.2533  0.0508  0.2276
61235W        W 4329  12.988  19.767  24.635 -0.3277 -0.1382  0.2007
61236W        W 4330  13.074  18.455  24.737  0.2009 -0.5187  0.2878
61237W        W 4331  13.144  20.827  30.450 -0.1661 -0.0839 -0.0048
61238W        W 4332  12.466  20.623  26.808  0.1155 -0.1034  0.1299
61239W        W 4333  12.222  19.912  27.617 -0.1678 -0.1148  0.0546
61240W        W 4334  14.270  21.473  25.701 -0.1138  0.0256 -0.0674
61241W        W 4335  12.806  20.979  27.752 -0.0017  0.1543  0.1512
61242W        W 4336  14.048  19.547  28.441  0.1239  0.0323 -0.1238
61243W        W 4337  13.952  20.858  27.753 -0.1120  0.0373  0.2431
61244W        W 4338  12.567  17.761  28.286 -0.0290  0.0469  0.1575
61245W        W 4339  10.336  19.745  26.126  0.0168  0.2272  0.0417
61246W        W 4340  12.578  18.531  27.354 -0.1641  0.2283 -0.2748
61247W        W 4341  11.568  22.315  26.757 -0.0004 -0.0956  0.0714
61248W        W 4342  14.181  18.522  28.481 -0.0970 -0.2145  0.1236
61249W        W 4343  13.710  19.020  27.754  0.1802 -0.1508 -0.1037
61250W        W 4344  11.625  18.558  29.888  0.0877 -0.2928  0.0080
61251W        W 4345  15.172  19.875  27.799  0.0388  0.1274 -0.3471
61252W        W 4346  13.396  19.005  25.231 -0.2033  0.1931  0.4737
61253W        W 4347  12.582  19.136  27.782  0.0582  0.1390 -0.2904
61254W        W 4348  11.856  18.964  26.955 -0.2076  0.3360 -0.1413
61255W        W 4349  12.584  17.479  27.768 -0.0064  0.1426 -0.0361
61256W        W 4350  10.428  20.179  28.011 -0.0863 -0.0988  0.0314
61257W        W 4351  11.190  20.814  28.822  0.0562  0.0357 -0.0474
61258W        W 4352  13.690  21.781  28.180  0.0636 -0.0614 -0.2688
61259W        W 4353  12.701  18.743  29.170  0.2402 -0.1242 -0.0181
61260W        W 4354  12.787  22.181  27.040 -0.1755  0.0503  0.1189
61261W        W 4355  11.991  20.996  25.755 -0.0421  0.0836  0.1884
61262W        W 4356  12.414  18.278  28.257  0.0391  0.0941  0.1046
61263W        W 4357  12.038  21.101  28.840  0.0102  0.0606  0.1835
61264W        W 4358  12.076  21.429  26.056 -0.3384 -0.2349 -0.0832
61265W        W 4359  11.755  20.699  28.961 -0.2691  0.5481 -0.1282
61266W        W 4360  13.074  20.513  26.772 -0.0584  0.1171 -0.0099
61267W        W 4361  14.219  18.544  27.249 -0.0093  0.1591 -0.0525
61268W        W 4362  11.942  21.535  27.774  0.1221  0.1868  0.1660
61269W        W 4363  11.677  20.145  25.029  0.6299  0.3192  0.0618
61270W        W 4364  11.173  19.398  27.770 -0.0005  0.0225  0.0549
61271W        W 4365  12.089  18.635  27.311 -0.4258 -0.0417  0.1071
61272W        W 4366  12.611  17.863  27.372  0.2501  0.0376  0.0382
61273W        W 4367  11.328  21.929  29.648 -0.1473 -0.1315  0.2802
61274W        W 4368  12.520  19.218  28.328 -0.0251 -0.0028  0.0497
61275W        W 4369  13.630  18.165  25.140 -0.0793  0.0707 -0.1771
61276W        W 4370  13.549  19.642  28.267 -0.0390  0.0739  0.0225
61277W        W 4371  14.432  20.685  29.208  0.0999 -0.1667  0.0607
61278W        W 4372  11.216  18.648  26.476  0.0976 -0.2731 -0.1702
61279W        W 4373  12.930  19.476  27.539 -0.0131 -0.1017  0.2676
61280W        W 4374  11.937  21.065  27.562 -0.1391 -0.2155  0.1646
61281W        W 4375  12.944  22.369  28.233 -0.1933  0.2048 -0.1186
61282W        W 4376  12.858  19.289  25.916 -0.0960 -0.1726 -0.3229
61283W        W 4377  10.936  20.518  28.454  0.4760  0.2411  0.0923
61284W        W 4378  11.632  19.547  30.291 -0.1346  0.2783 -0.2897
61285W        W 4379  13.333  21.124  28.967 -0.0202  0.0671  0.0727
61286W        W 4380  12.670  19.255  26.760 -0.2175 -0.1652  0.0497
61287W        W 4381  12.727  19.628  27.055  0.0129 -0.0046 -0.1838
61288W        W 4382  13.936  20.391  26.866  0.1034  0.1460 -0.1509
61289W        W 4383  13.726  20.789  27.080  0.2994  0.0216  0.3063
61290W        W 4384  13.348  18.632  27.983 -0.0423  0.0069 -0.0559
61291W        W 4385  12.637  21.091  30.624 -0.0344 -0.1182  0.0438
61292W        W 4386  13.751  18.749  28.519 -0.1455 -0.0003  0.2066
61293W        W 4387  14.165  20.478  28.432 -0.2428  0.2188 -0.3820
61294W        W 4388  12.275  18.904  24.812 -0.1658  0.0962 -0.1564
61295W        W 4389  11.498  19.648  28.160 -0.1846  0.1223 -0.3906
61296W        W 4390  11.950  19.866  28.338  0.1332  0.2815 -0.0972
61297W        W 4391  12.928  17.942  28.020  0.2881  0.0168  0.0716
61298W        W 4392  11.866  20.719  27.900 -0.0607  0.0683  0.2208
61299W        W 4393  11.750  19.953  26.710  0.2864  0.0648 -0.2753
61300W        W 4394  12.450  19.854  28.195  0.3035  0.1336  0.1655
61301W        W 4395  15.390  19.086  23.847  0.3995 -0.0765  0.1539
61302W        W 4396  13.439  21.917  25.733  0.0640  0.3105 -0.0641
61303W        W 4397  13.001  19.674  26.164 -0.0459  0.0573 -0.1818
61304W        W 4398  12.895  18.404  28.307 -0.1824  0.1984  0.2550
61305W        W 4399  11.788  19.537  28.891 -0.1117 -0.3124 -0.0455
61306W        W 4400   9.082  19.479  29.079  0.0177  0.3120  0.0845
61307W        W 4401  13.987  20.370  28.926 -0.1110  0.0774 -0.1041
61308W        W 4402  12.370  19.582  29.605  0.3321  0.1125 -0.1893
61309W        W 4403  13.236  18.484  25.992  0.2507  0.3694 -0.1677
61310W        W 4404  11.526  18.825  26.086 -0.1237 -0.2286  0.0009
61311W        W 4405  13.120  20.625  26.261 -0.2315  0.0356  0.0684
61312W        W 4406  13.829  21.365  27.010 -0.1544  0.2781 -0.2921
61313W        W 4407  11.531  19.889  26.212  0.1976 -0.3241 -0.1620
61314W        W 4408  13.773  19.193  25.599 -0.0090  0.1817  0.2334
61315W        W 4409  11.202  18.882  27.740  0.0963 -0.2601 -0.0721
61316W        W 4410  12.949  20.072  26.485  0.1810 -0.1209  0.0840
61317W        W 4411  11.863  19.990  27.264  0.1308  0.1078 -0.4884
61318W        W 4412  11.812  17.755  29.275  0.0761  0.0218  0.1045
61319W        W 4413  13.800  20.516  25.906  0.4457  0.0046  0.0779
61320W        W 4414  13.039  17.717  27.128  0.0406  0.0592  0.2440
61321W        W 4415  13.632  19.932  27.408 -0.0987  0.0065 -0.0556
61322W        W 4416  13.530  19.481  27.786  0.1439 -0.4214 -0.1703
61323W        W 4417  12.817  20.417  27.820  0.0331  0.1035  0.1073
61324W        W 4418  10.828  17.979  30.895 -0.1574 -0.0751  0.0329
61325W        W 4419  14.686  21.304  28.845 -0.0537  0.1144  0.2321
61326W        W 4420  14.240  19.462  28.912 -0.0700 -0.2817 -0.0165
61327W        W 4421  14.381  19.526  26.250  0.0128 -0.1817 -0.0219
61328W        W 4422  13.522  19.737  25.944  0.0332  0.0915 -0.3418
61329W        W 4423  11.497  19.850  28.620  0.2694  0.0902 -0.4600
61330W        W 4424  14.694  19.359  28.974  0.0576 -0.2692 -0.0706
61331W        W 4425  11.430  18.362  25.586 -0.3541 -0.2115  0.0262
61332W        W 4426  13.635  19.176  28.283 -0.2439  0.0539  0.0853
61333W        W 4427  13.362  21.268  25.628 -0.0817  0.1524 -0.1210
61334W        W 4428  13.221  20.242  27.535  0.3258 -0.3933 -0.0019
61335W        W 4429  13.655  18.748  25.871 -0.3010 -0.2939  0.0794
61336W        W 4430  10.981  19.136  28.735 -0.1853  0.1982  0.0936
61337W        W 4431  12.567  20.230  30.550  0.1696  0.3134  0.2858
61338W        W 4432  11.825  18.678  26.514  0.0518 -0.3399  0.1887
61339W        W 4433  12.396  19.453  25.736  0.0361  0.1753  0.1681
61340W        W 4434  12.762  20.467  29.805 -0.1473 -0.1659  0.0754
61341W        W 4435  15.027  21.019  28.640  0.2680  0.0268 -0.0526
61342W        W 4436  10.971  20.555  27.357 -0.0887 -0.0075  0.0650
61343W        W 4437  11.684  21.698  28.188  0.1335 -0.0884  0.0754
61344W        W 4438  12.781  20.826  29.480 -0.2409 -0.0531  0.2103
61345W        W 4439  12.814  20.359  27.252  0.0467 -0.1070 -0.1518
61346W        W 4440  12.115  19.151  28.721  0.2498  0.0223  0.0629
61347W        W 4441  12.190  19.504  28.015 -0.1404  0.0700  0.1771
61348W        W 4442  13.284  19.537  27.175  0.0039 -0.0780 -0.3132
61349W        W 4443  13.751  20.909  28.759  0.2203  0.1238 -0.2450
61350W        W 4444  12.292  18.741  28.462  0.0582  0.1841  0.2265
61351W        W 4445  13.439  21.240  29.920  0.3619  0.0874  0.0346
61352W        W 4446  11.765  20.530  27.376  0.0771  0.2310  0.0521
61353W        W 4447  10.524  18.515  30.787 -0.4086 -0.0156  0.1819
61354W        W 4448  12.721  19.172  29.365  0.2415  0.2280  0.3330
61355W        W 4449  13.426  20.427  27.089 -0.3489  0.0580  0.2031
61356W        W 4450  11.665  18.697  28.312 -0.0552 -0.2724 -0.4473
61357W        W 4451  12.415  21.056  26.196  0.2080  0.0712 -0.4540
61358W        W 4452  12.249  21.822  30.629 -0.0189 -0.3001 -0.2168
61359W        W 4453  11.339  20.747  30.314 -0.0037 -0.0761  0.2696
61360W        W 4454  12.270  22.351  27.000  0.0374  0.0913  0.1146
61361W        W 4455  13.456  20.876  26.042 -0.3158  0.0452 -0.0193
61362W        W 4456  13.329  20.255  25.691 -0.1685 -0.0455 -0.0003
61363W        W 4457  12.942  20.916  28.672  0.0307 -0.2454 -0.2715
61364W        W 4458  12.261  18.556  27.769 -0.1082  0.3206  0.3023
61365W        W 4459  11.731  23.754  28.018  0.1966  0.0963  0.1430
61366W        W 4460  11.415  20.564  27.723 -0.0816  0.0178  0.1318
61367W        W 4461  12.426  21.650  27.681  0.3626 -0.0385 -0.0392
61368W        W 4462  14.462  22.730  29.534  0.0572 -0.0910  0.0709
61369W        W 4463  13.588  20.681  26.601  0.2230  0.0525  0.2492
61370W        W 4464  13.621  20.814  29.738 -0.1725 -0.0244 -0.0528
61371W        W 4465  11.728  20.196  27.905 -0.3269 -0.3477  0.2319
61372W        W 4466  11.015  19.150  27.353  0.0249  0.0044  0.0678
61373W        W 4467  13.228  21.690  29.159 -0.0714  0.2718  0.0320
61374W        W 4468  14.458  18.352  28.891  0.1471 -0.2447 -0.4598
61375W        W 4469  13.637  21.557  28.630  0.1255  0.1357  0.2056
61376W        W 4470  13.969  21.747  26.723  0.1761 -0.0378 -0.0760
61377W        W 4471  10.799  20.021  28.375  0.0181  0.3288  0.0291
61378W        W 4472  13.084  16.806  27.207  0.0140  0.0979 -0.2769
61379W        W 4473  12.799  21.003  24.602  0.0075 -0.1862 -0.2773
61380W        W 4474  13.665  19.809  26.908  0.1140 -0.1329 -0.1168
61381W        W 4475  12.090  21.987  27.342 -0.1708  0.0164 -0.1579
61382W        W 4476  11.874  20.745  30.027  0.1868 -0.0690 -0.0720
61383W        W 4477  12.443  22.184  28.294 -0.0091  0.0158  0.1868
61384W        W 4478  10.851  18.127  27.609 -0.1021  0.1264  0.0369
61385W        W 4479  15.031  19.614  27.027  0.3635  0.0056  0.0765
61386W        W 4480  12.711  18.727  28.037 -0.0682 -0.0282 -0.1176
61387W        W 4481  14.267  18.735  27.828 -0.2128  0.0230 -0.1338
61388W        W 4482  11.679  19.196  27.867 -0.1046  0.2820 -0.0165
61389W        W 4483  13.862  19.188  25.073  0.3886 -0.2580 -0.1466
61390W        W 4484  12.783  19.667  28.622 -0.1907 -0.0682 -0.0632
61391W        W 4485  11.192  18.248  29.970  0.0593 -0.2162  0.0526
61392W        W 4486  12.096  19.168  24.422  0.3825 -0.2612  0.2566
61393W        W 4487  14.166  19.693  27.427 -0.0744 -0.1513  0.0912
61394W        W 4488  11.726  19.861  23.832 -0.0669 -0.2812  0.3485
61395W        W 4489  14.153  22.966  27.132  0.1134 -0.0485  0.1073
61396W        W 4490  12.272  18.579  26.768  0.0040 -0.0754  0.0886
61397W        W 4491  12.021  19.505  26.477 -0.0495  0.2354  0.3531
61398W        W 4492  12.930  20.117  28.226 -0.0229 -0.1208 -0.2956
61399W        W 4493  14.450  20.207  28.760  0.1372 -0.2947  0.2099
61400W        W 4494  10.489  18.660  28.201  0.2722  0.2611 -0.3075
61401W        W 4495  12.697  21.957  26.150 -0.0795  0.2506  0.1955
61402W        W 4496  13.281  21.517  28.249  0.2638  0.1122  0.1502
61403W        W 4497  10.799  21.079  28.539 -0.0505 -0.2375 -0.0007
61404W        W 4498  14.129  21.598  28.731  0.2759 -0.2746  0.0310
61405W        W 4499  12.320  19.089  27.082 -0.1337  0.2409  0.0361
61406W        W 4500  11.832  22.473  27.987  0.0376 -0.0310 -0.0060
61407W        W 4501  13.934  19.229  29.946  0.2239 -0.2951 -0.1179
61408W        W 4502  12.482  21.268  25.784 -0.1174 -0.1895 -0.2367
61409W        W 4503  12.334  17.457  29.703  0.0848 -0.2293  0.0551
61410W        W 4504  13.414  21.940  30.825  0.1404 -0.0439 -0.0562
61411W        W 4505  13.517  21.349  30.504 -0.1850 -0.2190  0.1058
61412W        W 4506  11.082  19.856  27.962 -0.0661 -0.0165 -0.2735
61413W        W 4507  11.052  19.816  29.810 -0.1412 -0.1399 -0.1253
61414W        W 4508  12.039  19.062  27.526  0.0181  0.0227  0.1245
61415W        W 4509  12.628  22.605  28.546 -0.1062 -0.1530 -0.2517
61416W        W 4510  13.121  19.125  26.898  0.0402 -0.1199 -0.1351
61417W        W 4511  14.886  20.738  26.609 -0.1325 -0.2524  0.1290
61418W        W 4512  12.732  18.286  26.083 -0.0628  0.1399 -0.0540
61419W        W 4513  13.924  17.946  25.578  0.3388 -0.1907  0.0247
61420W        W 4514  11.857  20.511  29.547 -0.0953 -0.1292 -0.0510
61421W        W 4515   9.797  18.324  28.071 -0.3885 -0.1129 -0.1440
61422W        W 4516  12.125  20.087  26.435  0.2682  0.0365 -0.0950
61423W        W 4517  12.019  21.153  29.743  0.1024  0.2557 -0.1899
61424W        W 4518  11.596  18.646  29.366  0.0506  0.0780 -0.1460
61425W        W 4519  10.811  19.101  30.042 -0.0407  0.3764  0.2016
61426W        W 4520  11.739  19.673  27.638 -0.1303  0.2031 -0.0160
61427W        W 4521  11.054  19.157  26.490 -0.3776  0.4147 -0.3120
61428W        W 4522  11.550  18.084  27.292 -0.1157 -0.0312  0.2406
61429W        W 4523  11.048  17.993  29.359  0.0939 -0.2853  0.2886
61430W        W 4524  12.876  20.726  28.229  0.1447  0.1849  0.0405
61431W        W 4525  12.490  17.745  26.368  0.0704  0.4037 -0.4100
61432W        W 4526  13.776  21.190  28.358 -0.3449 -0.0212 -0.3716
61433W        W 4527  11.986  21.052  26.478 -0.0098 -0.1594  0.3622
61434W        W 4528  12.155  20.508  29.095 -0.0921 -0.0294 -0.1379
61435W        W 4529  12.951  17.974  28.601  0.0821 -0.4383 -0.0412
61436W        W 4530  11.095  18.611  28.237 -0.3983  0.4465  0.1919
61437W        W 4531  13.307  19.098  27.389 -0.0729  0.3459 -0.3101
61438W        W 4532  13.886  21.307  27.926  0.1749  0.0360 -0.1514
61439W        W 4533  14.288  22.181  25.525 -0.0490  0.2897  0.1500
61440W        W 4534  11.458  19.962  29.181  0.0766 -0.1008  0.0227
61441W        W 4535  12.143  22.884  30.524  0.2350  0.1370 -0.2908
61442W        W 4536  10.982  17.913  28.861 -0.1271 -0.2075 -0.0984
61443W        W 4537  13.765  20.260  29.387 -0.0669 -0.2084 -0.1253
61444W        W 4538  14.231  20.556  24.368  0.2153  0.0436 -0.1654
61445W        W 4539  12.054  17.643  30.182 -0.0622 -0.1249 -0.0897
61446W        W 4540  11.658  20.256  30.116  0.1664 -0.2470  0.1416
61447W        W 4541  13.001  20.046  28.879 -0.0767 -0.3385 -0.2016
61448W        W 4542  12.343  18.093  26.997  0.0824  0.1493 -0.0639
61449W        W 4543  12.625  20.733  25.903 -0.0327 -0.1768  0.1716
61450W        W 4544  11.547  21.204  28.937 -0.1383 -0.2702  0.1529
61451W        W 4545  12.513  19.313  28.971 -0.0806 -0.2068  0.1572
61452W        W 4546  13.356  21.005  27.861 -0.0526 -0.0821  0.0251
61453W        W 4547  13.066  19.246  28.427  0.0524 -0.1304  0.1512
61454W        W 4548  12.575  19.660  25.302 -0.1896  0.4444  0.1155
61455W        W 4549  13.503  20.357  30.038  0.1290 -0.0564  0.1718
61456W        W 4550  15.488  22.316  29.348 -0.0135 -0.4889  0.0306
61457W        W 4551  13.252  20.533  28.538  0.0548  0.4454 -0.2183
61458W        W 4552  14.379  18.430  29.364 -0.2374 -0.2144 -0.0289
61459W        W 4553  10.853  19.919  29.319 -0.3606  0.2000  0.0830
61460W        W 4554  11.577  19.104  26.561 -0.0655 -0.1292 -0.0394
61461W        W 4555  12.594  19.706  26.543  0.0707  0.0609 -0.1881
61462W        W 4556  14.432  18.955  28.683  0.1653  0.0031  0.2219
61463W        W 4557  12.846  18.197  27.061  0.0068 -0.3074  0.2975
61464W        W 4558  12.244  18.597  26.273  0.5345 -0.1756  0.0624
61465W        W 4559  12.780  21.482  31.707 -0.7041  0.1067  0.1302
61466W        W 4560  12.251  19.585  28.594 -0.1375 -0.3991  0.0324
61467W        W 4561  13.418  19.078  28.743 -0.0098  0.0980 -0.1230
61468W        W 4562  14.078  20.186  29.815  0.3438  0.1780  0.2063
61469W        W 4563  11.781  18.654  30.386  0.0789 -0.4619 -0.1700
61470W        W 4564  12.190  20.908  30.847 -0.1768 -0.1650 -0.2448
61471W        W 4565  12.611  20.745  29.044  0.3001 -0.1671  0.0409
61472W        W 4566  12.246  20.382  31.008 -0.0290  0.0262 -0.0569
61473W        W 4567  14.261  19.163  29.342 -0.1144 -0.0345 -0.5151
61474W        W 4568  12.086  18.734  29.978  0.0834  0.2360 -0.3831
61475W        W 4569  13.139  19.133  27.943  0.0665 -0.1869  0.0875
61476W        W 4570  15.050  21.478  29.220 -0.0629 -0.0265 -0.2018
61477W        W 4571  14.890  21.474   0.019 -0.1318  0.1283  0.1076
61478W        W 4572  10.839  18.091  31.413 -0.0371 -0.3577 -0.1472
61479W        W 4573  14.578  21.183  29.341 -0.2285 -0.0434 -0.2933
61480W        W 4574  11.996  19.895  29.782 -0.3937 -0.3105 -0.3435
61481W        W 4575  15.572  20.089  29.837  0.0833 -0.0596  0.0309
61482W        W 4576  13.004  21.283  30.247  0.1019 -0.2425  0.0620
61483W        W 4577  12.271  20.369  30.039 -0.0323 -0.1077  0.0840
61484W        W 4578  14.342  20.220  29.359  0.0660  0.2035  0.2013
61485W        W 4579  11.175  18.466  29.439  0.0807  0.4047 -0.0078
61486W        W 4580  12.067  19.531  30.601  0.3432 -0.0469  0.1744
61487W        W 4581  10.534  19.484  30.566  0.1618  0.0082 -0.3291
61488W        W 4582  10.835  23.026   0.673  0.0576 -0.0346 -0.1658
61489W        W 4583  14.674  18.802  29.137  0.0828 -0.3875  0.2678
61490W        W 4584  13.209  18.986  29.227 -0.3314 -0.1453  0.0642
61491W        W 4585  13.505  18.259  28.645 -0.1113 -0.0996 -0.0398
61492W        W 4586  12.781  18.907  28.749  0.0959  0.3836  0.2406
61493W        W 4587  12.913  19.702  29.291  0.2882  0.0756 -0.1984
61494W        W 4588  12.333  21.097  29.355 -0.1444  0.2579  0.0585
61495W        W 4589  12.019  19.860  29.260  0.0744  0.0516 -0.2287
61496W        W 4590  13.602  20.751  29.217  0.1262  0.0772  0.0322
61497W        W 4591  13.387  19.956  29.211 -0.0282  0.1346  0.0721
61498W        W 4592  12.048  19.412  29.955  0.2395  0.3431  0.1494
61499W        W 4593  13.063  19.320  28.949 -0.4564 -0.3411 -0.1792
61500W        W 4594  13.748  19.528  28.949 -0.1710  0.1460 -0.0191
61501W        W 4595  11.810  19.099  29.629 -0.1872  0.1222 -0.1047
61502W        W 4596  11.190  19.700  31.463  0.0129 -0.0012 -0.1077
61503W        W 4597  13.118  18.557  28.886  0.0527  0.3648  0.2372
61504W        W 4598  13.989  19.873  27.856 -0.0904  0.1867  0.1957
61505W        W 4599  14.411  20.937  30.965 -0.0068  0.0622  0.0198
61506W        W 4600  15.417  19.268  28.517  0.0858 -0.0328  0.2277
61507W        W 4601  13.940  19.136  28.692  0.2455 -0.1132  0.1123
61508W        W 4602  13.981  18.782  29.646 -0.0101 -0.0161  0.1621
61509W        W 4603  12.007  18.414  29.568  0.0620 -0.0435  0.1186
61510W        W 4604  13.092  20.844  29.944  0.1687 -0.2042 -0.5298
61511W        W 4605  12.532  19.716  30.535 -0.1798 -0.1047  0.2749
61512W        W 4606  14.158  19.123  30.902 -0.0066 -0.0386 -0.1768
61513W        W 4607  13.593  18.649  29.031 -0.0401  0.1013 -0.0376
61514W        W 4608  12.360  19.586  30.987  0.1545  0.0621 -0.0763
61515W        W 4609  16.026  20.307  30.038  0.1826 -0.1811 -0.0873
61516W        W 4610  10.307  19.825  29.300  0.1520 -0.1775 -0.1325
61517W        W 4611  13.207  20.469  29.557  0.2350 -0.1935 -0.0786
61518W        W 4612  15.014  18.811  28.573  0.0028  0.0230 -0.2990
61519W        W 4613  11.100  19.434  30.250  0.0820 -0.3067  0.0377
61520W        W 4614  13.528  20.289  28.868 -0.2238  0.3294 -0.1183
61521W        W 4615  12.225  18.482  31.075 -0.0377 -0.2502 -0.2660
61522W        W 4616  13.421  19.981  27.914 -0.1735  0.0869 -0.0026
61523W        W 4617  14.545  21.668  29.161 -0.0677 -0.3118  0.2736
61524W        W 4618  11.624  19.421  31.514  0.0218 -0.2046 -0.2314
61525W        W 4619  12.063  20.587  31.465  0.0000  0.2221 -0.1094
61526W        W 4620  11.805  19.112  30.733  0.1133 -0.0161  0.3632
61527W        W 4621  11.279  18.697  30.229  0.1764 -0.3203  0.2733
61528W        W 4622  11.777  20.232  28.836  0.0218  0.1434 -0.0290
61529W        W 4623  11.337  19.059  29.150  0.3391 -0.2625  0.1964
61530W        W 4624  10.754  19.035  30.610  0.0296 -0.1156  0.0382
61531W        W 4625  13.559  21.716  30.201  0.0628  0.0039 -0.2166
61532W        W 4626  15.181  19.799  29.011 -0.0477  0.0289 -0.1135
61533W        W 4627  15.382  18.938  31.578 -0.3725 -0.1054  0.2679
61534W        W 4628  12.070  23.666  19.055  0.3213  0.0314  0.2019
61535W        W 4629  10.511  22.383  16.212 -0.1643 -0.1575  0.1428
61536W        W 4630  13.605  22.567  16.497  0.1170 -0.3638  0.2001
61537W        W 4631  13.120  24.958  17.147 -0.3725  0.1234  0.1261
61538W        W 4632  11.748  22.202  19.093  0.2357 -0.0829 -0.3104
61539W        W 4633  13.529  25.821  17.239  0.1205  0.2704  0.1281
61540W        W 4634   9.550  20.605  17.334  0.1707  0.0892 -0.0153
61541W        W 4635  13.001  25.452  17.434 -0.2089  0.0981  0.0136
61542W        W 4636  13.582  26.373  17.239  0.1855 -0.2952 -0.1495
61543W        W 4637  11.796  23.096  17.473 -0.1016  0.0532  0.1456
61544W        W 4638  11.804  23.561  18.448 -0.1350  0.2409 -0.1696
61545W        W 4639  10.982  24.601  18.440  0.2594 -0.4324  0.0968
61546W        W 4640  11.940  22.036  17.219 -0.5075  0.0190 -0.1144
61547W        W 4641  11.010  22.188  17.383  0.4485  0.1188  0.4015
61548W        W 4642  13.278  24.255  17.906 -0.0417 -0.2125  0.0376
61549W        W 4643  10.271  24.320  16.315  0.2561 -0.0543  0.2711
61550W        W 4644  10.880  23.518  18.036  0.1659 -0.0814  0.3189
61551W        W 4645  11.316  23.085  17.280 -0.4536  0.0657 -0.2326
61552W        W 4646  13.790  26.101  16.328  0.2804 -0.1366  0.0335
61553W        W 4647  12.283  24.461  19.901  0.1367 -0.1844  0.3078
61554W        W 4648  12.185  23.064  19.112  0.1350 -0.4702 -0.0099
61555W        W 4649  13.038  25.591  16.344 -0.2328 -0.4221  0.0859
61556W        W 4650  10.374  23.749  16.251 -0.1603 -0.0838  0.0394
61557W        W 4651  11.356  24.074  16.734  0.0366  0.0698 -0.1318
61558W        W 4652   9.747  22.758  18.804 -0.0957 -0.0865 -0.0290
61559W        W 4653  13.300  23.212  17.245 -0.0185  0.1107  0.0878
61560W        W 4654  12.989  23.618  19.017  0.1118 -0.2135 -0.1152
61561W        W 4655  12.326  24.585  18.269 -0.0714 -0.2091 -0.3330
61562W        W 4656  13.178  26.162  18.568 -0.2144  0.0912  0.0470
61563W        W 4657  13.660  24.238  19.539 -0.1021 -0.2109 -0.1414
61564W        W 4658   9.956  23.911  16.485  0.1822 -0.2067  0.1628
61565W        W 4659  10.936  24.545  17.933  0.2570  0.3297 -0.2091
61566W        W 4660  12.303  25.372  16.814 -0.0720  0.4711 -0.2418
61567W        W 4661  12.422  24.335  17.174  0.0564 -0.5692  0.0428
61568W        W 4662  13.694  25.061  17.224  0.0682 -0.0101 -0.1920
61569W        W 4663  10.765  25.000  20.648 -0.2512  0.0509 -0.0453
61570W        W 4664  10.827  25.878  15.279  0.1124  0.0647  0.3350
61571W        W 4665  13.204  26.764  19.615  0.0381  0.2198 -0.1720
61572W        W 4666  11.406  24.306  18.438 -0.2831 -0.0777  0.2623
61573W        W 4667  12.815  25.192  18.858  0.1680  0.0266 -0.1292
61574W        W 4668  11.729  23.938  18.158  0.4839 -0.0729  0.3154
61575W        W 4669  13.283  25.137  16.570  0.0861  0.0142 -0.0857
61576W        W 4670  11.918  24.291  18.966 -0.4946 -0.1706 -0.0404
61577W        W 4671  11.615  25.293  19.177 -0.0621 -0.1573  0.1616
61578W        W 4672  10.482  24.421  18.289 -0.0383  0.0645 -0.0614
61579W        W 4673  14.102  22.695  18.727  0.2875 -0.3407  0.0991
61580W        W 4674  11.613  24.894  17.254 -0.4907  0.2988  0.0811
61581W        W 4675  13.850  24.219  15.876  0.0034  0.1199  0.4908
61582W        W 4676  11.141  23.205  15.805 -0.2415  0.2200  0.3610
61583W        W 4677  13.868  23.472  16.737  0.2983 -0.0910  0.0107
61584W        W 4678  11.558  21.314  18.678  0.0376 -0.2280 -0.2377
61585W        W 4679  12.436  24.517  16.642 -0.2121  0.2307  0.1372
61586W        W 4680  13.063  23.456  18.371  0.2091 -0.1246  0.1248
61587W        W 4681  14.280  23.597  19.120 -0.0535 -0.0908 -0.1139
61588W        W 4682  12.628  23.681  17.741  0.0070  0.2072  0.0845
61589W        W 4683  13.070  22.126  17.171 -0.2824  0.0673  0.2027
61590W        W 4684  10.592  22.295  19.866  0.1003 -0.2462  0.1949
61591W        W 4685  11.291  25.094  17.802  0.1503 -0.0133 -0.0066
61592W        W 4686  14.068  23.733  15.990  0.2022  0.0226  0.0652
61593W        W 4687  12.341  26.259  17.472  0.3208  0.1597 -0.2209
61594W        W 4688  12.093  24.783  15.990  0.0140 -0.0404 -0.0564
61595W        W 4689  11.898  23.032  15.689 -0.2629  0.0311 -0.3834
61596W        W 4690  10.439  23.670  19.745 -0.1453  0.1510  0.3718
61597W        W 4691  10.356  22.609  19.415 -0.1596  0.0156 -0.1192
61598W        W 4692  10.561  21.509  16.230 -0.0205  0.1780 -0.0864
61599W        W 4693  13.587  25.204  18.562  0.1407 -0.3145  0.0599
61600W        W 4694  10.960  26.440  19.632 -0.1332 -0.1543  0.1020
61601W        W 4695  12.757  23.235  18.027  0.1181  0.1936 -0.3088
61602W        W 4696  12.043  23.997  18.613  0.0544  0.0668 -0.2032
61603W        W 4697  13.139  25.491  19.391 -0.1791 -0.3293 -0.0704
61604W        W 4698  13.066  24.639  15.638  0.0559  0.0662 -0.0003
61605W        W 4699  12.843  21.005  17.923  0.3130 -0.0882  0.0736
61606W        W 4700  12.198  22.538  17.999 -0.0134  0.3680 -0.0298
61607W        W 4701  11.366  23.138  16.752  0.1180 -0.0698 -0.1925
61608W        W 4702  11.611  23.412  16.413 -0.1726 -0.2551 -0.0134
61609W        W 4703  13.375  25.143  19.573 -0.2164 -0.0825  0.1492
61610W        W 4704  12.186  24.217  16.165 -0.0751  0.0830 -0.2115
61611W        W 4705  10.887  25.872  17.255 -0.0706  0.1765 -0.3311
61612W        W 4706  11.712  22.824  18.918 -0.0989  0.1298 -0.0603
61613W        W 4707  12.838  24.914  21.173  0.1715  0.1398  0.1955
61614W        W 4708  11.451  24.595  16.697  0.0343 -0.1428  0.0667
61615W        W 4709   9.896  24.714  17.545  0.0157 -0.0474  0.2424
61616W        W 4710  11.219  26.075  16.941 -0.3053  0.0147  0.1279
61617W        W 4711  10.490  23.196  18.048 -0.0365 -0.0816 -0.0482
61618W        W 4712  11.334  24.600  17.565 -0.0552  0.0613 -0.1961
61619W        W 4713  13.966  22.525  16.909 -0.0092  0.1296  0.0748
61620W        W 4714  11.784  22.889  18.366 -0.3629  0.0715  0.1203
61621W        W 4715  13.004  21.064  16.444  0.1262  0.0217 -0.0234
61622W        W 4716  10.629  23.326  15.945 -0.1233  0.2004  0.0452
61623W        W 4717  13.446  25.299  17.591 -0.1062 -0.0929 -0.2330
61624W        W 4718  14.104  23.946  16.903 -0.0506  0.1503  0.2822
61625W        W 4719  12.896  24.807  16.694 -0.2826  0.3753 -0.1905
61626W        W 4720  10.603  22.082  18.166  0.1158 -0.0359  0.0709
61627W        W 4721  11.246  22.537  17.102  0.1607  0.1289  0.0578
61628W        W 4722  11.210  23.222  20.009  0.1068  0.5381 -0.0600
61629W        W 4723  11.650  22.781  16.993  0.1492 -0.1760 -0.0061
61630W        W 4724  14.929  24.546  18.177 -0.1348  0.2016 -0.0294
61631W        W 4725   9.063  22.976  16.194  0.0964  0.1366 -0.3270
61632W        W 4726  13.443  22.728  17.392 -0.0550  0.0429  0.0287
61633W        W 4727  12.101  22.960  17.072 -0.0492  0.2373 -0.6143
61634W        W 4728   9.914  23.969  16.009 -0.2555  0.3356  0.0441
61635W        W 4729  15.183  22.343  19.860  0.2548 -0.0683  0.1106
61636W        W 4730  11.964  24.979  16.911  0.1273  0.0318  0.0627
61637W        W 4731  13.858  26.204  18.976  0.0920  0.2189  0.0525
61638W        W 4732  13.298  25.422  17.013  0.3170 -0.0339 -0.0502
61639W        W 4733  10.776  23.479  19.177  0.0993  0.1402 -0.0458
61640W        W 4734  10.839  22.783  15.807 -0.1564  0.2022  0.1175
61641W        W 4735  11.014  25.886  18.385  0.0052 -0.1554  0.1799
61642W        W 4736  11.484  24.659  18.064 -0.0149 -0.2395 -0.1322
61643W        W 4737  11.456  22.345  18.678  0.2425 -0.2119  0.0239
61644W        W 4738  13.922  26.144  17.551 -0.1729  0.1993 -0.0362
61645W        W 4739  11.771  23.988  17.674 -0.1528  0.0431  0.0654
61646W        W 4740  10.905  25.881  20.601  0.1978 -0.2816  0.0985
61647W        W 4741  15.156  21.986  18.971  0.0366 -0.0887 -0.0570
61648W        W 4742  14.625  22.675  18.753  0.2462  0.1147  0.1767
61649W        W 4743  11.821  24.750  16.418 -0.1827  0.0163  0.2898
61650W        W 4744  12.116  21.397  16.811  0.1760  0.2558  0.1651
61651W        W 4745  14.601  25.817  16.934 -0.2845  0.2515  0.1256
61652W        W 4746  10.831  25.921  15.807 -0.1044 -0.0515 -0.1941
61653W        W 4747  10.394  23.986  16.802 -0.2177 -0.1077  0.0434
61654W        W 4748  13.245  24.391  17.381 -0.0247 -0.1767  0.3714
61655W        W 4749  13.562  22.911  19.066 -0.1147  0.0188  0.1363
61656W        W 4750  10.574  24.585  19.518  0.2335  0.0948  0.1061
61657W        W 4751  12.171  23.975  20.208 -0.1787  0.1132 -0.0383
61658W        W 4752  10.144  22.410  16.781 -0.0810  0.1351  0.2141
61659W        W 4753  11.432  25.795  20.556  0.0353 -0.0471  0.1512
61660W        W 4754  13.398  23.396  16.823  0.1379 -0.2918  0.2055
61661W        W 4755  14.139  22.063  16.221  0.0655  0.1534  0.0598
61662W        W 4756  12.689  24.610  20.649  0.1585  0.1731  0.0582
61663W        W 4757  13.381  24.291  15.884 -0.1736 -0.3454  0.2077
61664W        W 4758  12.964  23.594  16.820 -0.3209  0.2721 -0.0485
61665W        W 4759  13.279  23.061  16.056  0.1624 -0.0557  0.1165
61666W        W 4760  10.675  25.020  19.858  0.2169 -0.1851  0.0174
61667W        W 4761  12.798  24.640  17.249  0.3661  0.1163 -0.0224
61668W        W 4762  11.869  25.997  18.660 -0.1064 -0.0969 -0.0668
61669W        W 4763  10.949  22.860  16.858 -0.0593 -0.0069  0.0610
61670W        W 4764  12.210  25.791  17.090 -0.0212 -0.1731 -0.0056
61671W        W 4765   9.408  24.964  18.915 -0.3113 -0.0353  0.1729
61672W        W 4766  10.913  25.472  19.581 -0.1388 -0.2563 -0.0748
61673W        W 4767  13.132  26.220  18.092 -0.1858  0.2162 -0.0760
61674W        W 4768  11.964  22.386  18.674  0.1304  0.0256  0.0749
61675W        W 4769  12.045  23.731  16.347  0.0272  0.0486  0.0907
61676W        W 4770  12.231  23.446  16.970  0.0814 -0.2054  0.4959
61677W        W 4771  11.057  26.823  15.800 -0.3473  0.1054  0.0567
61678W        W 4772  13.073  22.929  18.395  0.1888 -0.4476  0.1156
61679W        W 4773  13.729  22.384  18.946 -0.3076  0.1897 -0.2589
61680W        W 4774  11.402  23.246  18.217 -0.1485  0.0831 -0.0047
61681W        W 4775  14.471  23.391  20.587 -0.1991 -0.4272 -0.0074
61682W        W 4776  12.250  24.049  17.574 -0.1786 -0.1278 -0.2187
61683W        W 4777  12.194  25.574  18.347 -0.2603 -0.2416  0.0739
61684W        W 4778  11.814  24.183  16.517  0.1082  0.1566 -0.2642
61685W        W 4779  13.212  24.439  18.366 -0.1069 -0.1373  0.1503
61686W        W 4780  10.309  24.051  17.836  0.2003 -0.2241  0.0533
61687W        W 4781  11.006  24.056  20.722  0.1232  0.0586 -0.2597
61688W        W 4782  12.603  25.398  20.098  0.2167  0.2034  0.0663
61689W        W 4783  13.182  23.916  17.126  0.1222 -0.0364  0.1219
61690W        W 4784  11.936  21.683  19.072  0.1289 -0.2016  0.1909
61691W        W 4785  12.752  23.380  15.972  0.2534  0.0689 -0.2064
61692W        W 4786  11.361  26.932  16.478 -0.0935  0.0976 -0.1040
61693W        W 4787  11.559  25.571  15.293 -0.0359  0.1373  0.2369
61694W        W 4788  11.541  23.256  18.736  0.3143 -0.0460 -0.3889
61695W        W 4789  10.918  25.002  19.319  0.0937  0.1206  0.0474
61696W        W 4790  12.029  25.746  16.225  0.0635 -0.1502 -0.0505
61697W        W 4791  12.267  25.799  20.240 -0.3675 -0.2532  0.0887
61698W        W 4792  10.007  26.272  18.015  0.2846 -0.4229 -0.1146
61699W        W 4793  15.483  22.432  18.287 -0.1705  0.1789 -0.0269
61700W        W 4794  11.828  25.417  18.683  0.1985 -0.0384 -0.0326
61701W        W 4795  11.420  22.932  16.253  0.0998 -0.3893 -0.0975
61702W        W 4796  10.164  22.629  17.648 -0.0689  0.1455  0.4387
61703W        W 4797  11.536  22.180  16.885  0.0568 -0.0659 -0.1028
61704W        W 4798  12.811  25.400  16.818  0.0955 -0.2613 -0.0117
61705W        W 4799  11.316  23.696  17.967 -0.0039 -0.1220  0.0386
61706W        W 4800  12.641  22.217  18.001  0.0194  0.1624  0.1945
61707W        W 4801  10.745  25.775  18.747  0.2074  0.4092  0.2509
61708W        W 4802  13.029  25.668  19.942  0.2265 -0.1444  0.1952
61709W        W 4803  14.538  22.604  17.554 -0.0418  0.5939 -0.1462
61710W        W 4804  12.268  24.570  18.806 -0.2173  0.0030  0.3903
61711W        W 4805  13.377  24.609  19.721 -0.2667 -0.0472 -0.0384
61712W        W 4806  10.498  22.898  16.116  0.0214  0.1460  0.1712
61713W        W 4807  14.947  22.885  18.408  0.1780  0.1887 -0.0347
61714W        W 4808  11.607  23.582  17.448 -0.5403  0.0207  0.2861
61715W        W 4809  13.252  26.682  17.843  0.0412 -0.0265  0.0010
61716W        W 4810  12.870  24.448  18.922 -0.0940  0.3575 -0.3700
61717W        W 4811  10.705  22.496  17.131 -0.2313 -0.0757 -0.3518
61718W        W 4812  10.794  24.114  16.507  0.1414 -0.5824 -0.0837
61719W        W 4813  10.974  23.242  18.525 -0.0246 -0.4764  0.2023
61720W        W 4814  12.672  25.390  19.357  0.0254  0.1133 -0.2503
61721W        W 4815  14.442  22.811  19.501 -0.1313  0.1393  0.2557
61722W        W 4816  10.815  23.032  17.289 -0.0151  0.0279  0.1367
61723W        W 4817  13.097  23.598  17.475 -0.1448 -0.0450  0.6073
61724W        W 4818  11.782  25.771  19.142 -0.0266  0.2105  0.0771
61725W        W 4819  12.754  25.029  19.780 -0.0304  0.0809 -0.1457
61726W        W 4820  11.939  24.870  19.032 -0.3161  0.0563  0.0916
61727W        W 4821  12.964  21.939  17.650  0.0251  0.0404  0.1849
61728W        W 4822  14.686  24.688  15.660 -0.1990  0.0439  0.1829
61729W        W 4823  13.299  24.589  19.235 -0.1905  0.4161 -0.0880
61730W        W 4824  11.344  23.724  17.068  0.2912  0.0162  0.1256
61731W        W 4825  10.095  23.781  17.482 -0.0134  0.0150  0.0983
61732W        W 4826  11.899  25.292  16.542  0.0585  0.0208  0.0289
61733W        W 4827  12.222  23.288  18.676 -0.1480  0.0076  0.0319
61734W        W 4828  11.790  24.076  19.935  0.0455 -0.2398 -0.3217
61735W        W 4829  11.563  24.291  17.161 -0.2005 -0.0860  0.0013
61736W        W 4830  10.912  25.433  20.447 -0.0094  0.3823 -0.1871
61737W        W 4831  13.490  21.628  16.501  0.0368  0.1463 -0.0512
61738W        W 4832  12.368  24.996  16.464 -0.1053 -0.0537 -0.2774
61739W        W 4833  13.486  23.331  18.791  0.0083 -0.3122  0.2935
61740W        W 4834  13.589  22.629  17.962  0.2883 -0.0084 -0.1611
61741W        W 4835  12.477  23.813  17.127 -0.2263  0.1928 -0.0604
61742W        W 4836  13.424  22.355  19.731 -0.1887 -0.0363 -0.0852
61743W        W 4837  10.892  24.051  17.838 -0.3173 -0.1636  0.1452
61744W        W 4838  11.298  25.572  18.048 -0.1012  0.0166  0.0170
61745W        W 4839  10.974  24.021  18.296 -0.5973 -0.0067 -0.1446
61746W        W 4840  12.536  25.747  19.746 -0.2668  0.2557  0.4142
61747W        W 4841  11.561  23.933  18.871 -0.0697 -0.0455 -0.0090
61748W        W 4842  12.695  23.409  17.340 -0.1252  0.0073 -0.3089
61749W        W 4843  10.984  22.334  15.975  0.1775 -0.0686 -0.2691
61750W        W 4844  11.937  24.424  18.013  0.1074  0.0441  0.0316
61751W        W 4845  13.272  25.755  18.145  0.0406 -0.0324  0.2576
61752W        W 4846  11.332  25.591  17.088 -0.1278  0.2490  0.1556
61753W        W 4847  13.636  24.037  16.940 -0.3222  0.0575  0.1307
61754W        W 4848  11.096  24.226  18.853  0.1815 -0.4151  0.3263
61755W        W 4849  12.928  24.001  18.704 -0.1566  0.0075  0.2454
61756W        W 4850  12.475  23.815  15.972  0.0456 -0.0077 -0.0237
61757W        W 4851  11.774  24.948  17.768  0.1698 -0.0142  0.2713
61758W        W 4852  11.723  21.815  18.134 -0.0318  0.1829  0.1474
61759W        W 4853  12.315  24.967  17.896 -0.1656 -0.3844  0.2370
61760W        W 4854  12.368  23.219  17.718  0.2936  0.0837  0.0619
61761W        W 4855  13.606  22.892  18.559  0.2468  0.2681  0.0659
61762W        W 4856  13.206  24.870  18.752  0.1058 -0.0234 -0.2132
61763W        W 4857  12.300  24.086  18.067 -0.1083  0.0033 -0.0213
61764W        W 4858  10.679  22.229  20.361  0.0589  0.3050 -0.3583
61765W        W 4859  12.920  25.713  18.992  0.0480  0.2119  0.0862
61766W        W 4860  14.191  25.058  16.545 -0.0451 -0.0170  0.0107
61767W        W 4861  13.389  22.269  17.582 -0.1687  0.1854  0.1636
61768W        W 4862  12.869  24.057  17.514 -0.0223 -0.1407 -0.2618
61769W        W 4863  12.514  23.573  16.525  0.0639 -0.2099  0.0617
61770W        W 4864  11.015  23.019  18.028  0.0697  0.1478  0.1220
61771W        W 4865  14.084  24.301  18.727  0.1423  0.4213 -0.2646
61772W        W 4866  11.387  21.799  16.140 -0.3379  0.1847  0.2225
61773W        W 4867  13.906  23.766  19.458 -0.0319 -0.2272  0.0957
61774W        W 4868  13.312  24.840  16.113  0.1035  0.1541 -0.0870
61775W        W 4869  12.402  26.037  18.332 -0.2321 -0.0533  0.0123
61776W        W 4870  13.966  23.323  17.334 -0.2704  0.1399  0.2471
61777W        W 4871  10.574  24.156  17.420  0.1357 -0.0901  0.1802
61778W        W 4872  11.623  25.281  20.076 -0.1043 -0.1017 -0.0738
61779W        W 4873   9.861  22.905  16.760 -0.1114  0.1134 -0.0487
61780W        W 4874  10.479  23.541  17.174  0.0902 -0.1549 -0.0302
61781W        W 4875  12.276  24.849  19.534  0.0270 -0.1895  0.4526
61782W        W 4876  14.225  24.131  19.143 -0.0148  0.2159 -0.2529
61783W        W 4877  12.608  21.245  16.623 -0.0415 -0.1182  0.1367
61784W        W 4878  13.273  22.586  18.800  0.1440 -0.1259  0.1496
61785W        W 4879  10.559  25.018  16.923  0.4721 -0.2509  0.0569
61786W        W 4880  12.444  22.055  17.585  0.1642 -0.0581 -0.0557
61787W        W 4881   9.986  24.405  18.108 -0.0563 -0.2048 -0.0587
61788W        W 4882  11.229  24.203  19.868 -0.1145 -0.2529 -0.2783
61789W        W 4883  11.579  25.170  18.207 -0.1220 -0.3513 -0.0570
61790W        W 4884  12.779  22.704  18.729  0.3432 -0.2120 -0.2684
61791W        W 4885  13.991  24.380  16.736 -0.2376 -0.4168 -0.0021
61792W        W 4886  11.118  23.963  19.315 -0.0277 -0.0308 -0.0542
61793W        W 4887  14.347  23.353  18.054 -0.0041  0.2057  0.0476
61794W        W 4888  12.419  24.144  18.982 -0.0686  0.2225  0.0260
61795W        W 4889  10.339  24.519  17.118 -0.2975 -0.2119  0.0854
61796W        W 4890  14.024  24.507  18.226 -0.0487  0.0390  0.1482
61797W        W 4891  13.092  23.779  17.905 -0.0363  0.0020  0.0609
61798W        W 4892  11.020  24.445  19.338 -0.0984  0.0623 -0.0502
61799W        W 4893  10.557  24.236  18.748  0.3703  0.0585  0.0136
61800W        W 4894  11.616  23.719  19.509 -0.3098  0.0842  0.2452
61801W        W 4895  12.325  24.388  19.375 -0.2725 -0.0540  0.0915
61802W        W 4896  12.673  22.601  16.297  0.1029  0.0865 -0.1275
61803W        W 4897  13.303  27.066  15.800  0.0399 -0.0460  0.0626
61804W        W 4898  10.523  24.299  20.680 -0.1183 -0.3174 -0.0800
61805W        W 4899  11.152  23.616  16.545  0.0423  0.1219  0.3023
61806W        W 4900  11.054  24.971  17.166  0.0765 -0.2450  0.1010
61807W        W 4901  12.809  24.261  16.860  0.0199  0.0545  0.5011
61808W        W 4902  11.220  23.960  17.461 -0.1375  0.2541 -0.3088
61809W        W 4903  13.822  24.404  19.107  0.0183  0.1075 -0.3316
61810W        W 4904  10.965  22.684  16.351  0.0756 -0.3267 -0.0559
61811W        W 4905  12.070  25.042  18.306 -0.0393  0.0880  0.0345
61812W        W 4906  10.048  24.116  15.548 -0.1985  0.0219  0.0205
61813W        W 4907  14.209  25.649  16.604  0.1793 -0.2342 -0.1834
61814W        W 4908  11.642  26.392  17.380 -0.2526 -0.2349 -0.1628
61815W        W 4909  13.802  26.224  20.457  0.1793  0.1359  0.1881
61816W        W 4910  13.820  22.042  16.662 -0.0458  0.2102 -0.0149
61817W        W 4911  13.831  23.834  18.912 -0.0093 -0.1512 -0.0156
61818W        W 4912  12.906  21.959  16.730  0.2445 -0.1274 -0.0327
61819W        W 4913  12.202  25.300  19.208 -0.0998 -0.0731  0.0769
61820W        W 4914  12.856  24.073  19.218  0.1308  0.1421 -0.5362
61821W        W 4915  11.243  22.201  16.422  0.0460  0.1452  0.2174
61822W        W 4916  11.936  23.594  19.908  0.0358  0.2656  0.2018
61823W        W 4917  15.036  21.493  20.384 -0.0447 -0.0615 -0.0925
61824W        W 4918  10.140  25.570  18.951  0.0764  0.2077  0.0364
61825W        W 4919  13.414  26.447  16.371 -0.3923  0.1078 -0.1870
61826W        W 4920  10.060  22.079  18.024  0.1028  0.3477  0.0708
61827W        W 4921  11.256  23.660  18.471 -0.1012  0.1182  0.1000
61828W        W 4922  14.210  22.911  17.826 -0.3241  0.0034 -0.0718
61829W        W 4923  11.462  25.093  16.843 -0.4268 -0.0916  0.1675
61830W        W 4924  12.650  24.830  18.589 -0.1871  0.0224 -0.1174
61831W        W 4925  10.958  25.200  16.269 -0.1716  0.1893  0.2764
61832W        W 4926  11.019  25.053  18.796  0.4132  0.1682  0.2584
61833W        W 4927  11.885  24.587  18.517  0.3637  0.4931  0.1826
61834W        W 4928  10.094  21.880  16.503  0.0367  0.2271  0.0960
61835W        W 4929  13.059  22.511  17.975  0.1792  0.0934 -0.1578
61836W        W 4930  12.122  23.542  17.487  0.1700 -0.3857 -0.0900
61837W        W 4931  13.395  21.581  18.338 -0.3429 -0.0194  0.0824
61838W        W 4932  12.025  22.481  17.396 -0.3092  0.1835  0.1329
61839W        W 4933  13.881  23.264  17.824  0.0021 -0.2650 -0.0944
61840W        W 4934  12.408  24.410  21.394  0.2615  0.1174 -0.2644
61841W        W 4935  10.929  23.386  16.928 -0.1870  0.0160  0.0911
61842W        W 4936  12.195  23.436  15.977  0.1239 -0.1529 -0.0296
61843W        W 4937  12.644  24.932  21.651  0.0897 -0.0379  0.0961
61844W        W 4938  14.150  22.611  16.376  0.0183  0.1610  0.1873
61845W        W 4939  11.249  25.931  19.189  0.3929 -0.3763 -0.0274
61846W        W 4940  10.904  21.333  17.715  0.1513  0.1030 -0.0048
61847W        W 4941  13.679  23.074  16.536  0.0097 -0.0333  0.2173
61848W        W 4942  11.044  24.432  16.927 -0.2119 -0.1443  0.0949
61849W        W 4943  12.846  24.511  19.461  0.1880 -0.3974 -0.0680
61850W        W 4944  12.799  25.718  21.031  0.1012  0.1507  0.0379
61851W        W 4945  10.568  21.977  16.475 -0.0366 -0.1592  0.2023
61852W        W 4946  13.904  23.956  16.431  0.1916 -0.4022  0.2315
61853W        W 4947  12.624  23.262  20.566  0.1644 -0.1229 -0.2513
61854W        W 4948  12.999  26.265  15.316 -0.0928  0.0403 -0.0333
61855W        W 4949  13.416  23.847  16.595 -0.2490  0.3180  0.3191
61856W        W 4950  13.505  25.344  18.045  0.1967  0.1321  0.0636
61857W        W 4951   9.122  22.874  16.758 -0.0832 -0.1234  0.0728
61858W        W 4952  11.522  24.987  18.699 -0.0507 -0.0687 -0.0304
61859W        W 4953  13.696  26.030  18.436 -0.3044 -0.0649 -0.0689
61860W        W 4954  12.811  23.121  16.484 -0.2065  0.1187 -0.0781
61861W        W 4955  10.875  23.819  18.793  0.1475  0.0635  0.1442
61862W        W 4956  10.395  25.246  18.053 -0.0033 -0.2707 -0.0594
61863W        W 4957  13.361  23.177  18.051 -0.4777  0.1193 -0.0680
61864W        W 4958  14.782  22.115  19.467 -0.0450  0.0027  0.1817
61865W        W 4959  12.840  25.127  16.236  0.1301 -0.1759  0.0147
61866W        W 4960  14.140  23.311  19.465 -0.1813  0.1077  0.0715
61867W        W 4961  12.439  25.468  20.637 -0.1280  0.1034  0.1443
61868W        W 4962  10.243  24.917  21.477  0.1370 -0.1235 -0.1259
61869W        W 4963  10.926  23.221  16.313  0.2621  0.0942 -0.0467
61870W        W 4964  12.569  24.811  19.139 -0.1611  0.1983 -0.0899
61871W        W 4965  11.886  22.810  16.470 -0.1261 -0.3784 -0.1630
61872W        W 4966  12.627  26.747  17.471 -0.2858  0.0429 -0.0075
61873W        W 4967  12.368  24.510  17.741 -0.2178 -0.3806  0.1248
61874W        W 4968  14.133  23.241  16.293  0.2160  0.0478 -0.0240
61875W        W 4969  12.110  25.227  17.446 -0.0362  0.0123 -0.3578
61876W        W 4970  11.743  23.358  17.033  0.1748 -0.0247 -0.2788
61877W        W 4971  14.940  22.819  16.481 -0.2582 -0.2052 -0.1851
61878W        W 4972  11.774  22.733  17.780 -0.0035 -0.2937 -0.0728
61879W        W 4973  13.133  24.178  19.778 -0.1592  0.2019 -0.0804
61880W        W 4974  10.155  23.619  15.783 -0.2372  0.0437 -0.0850
61881W        W 4975  10.889  23.699  16.156 -0.0302 -0.1290  0.0398
61882W        W 4976  10.554  25.579  17.615 -0.2241 -0.1461  0.0642
61883W        W 4977  12.140  22.318  19.857 -0.2777  0.1495  0.0624
61884W        W 4978  10.819  22.808  19.338  0.0677 -0.0536 -0.0260
61885W        W 4979  10.411  24.732  18.660 -0.4313 -0.1390 -0.1334
61886W        W 4980  11.335  22.641  18.057 -0.0570 -0.0160  0.1964
61887W        W 4981  13.681  24.451  16.339 -0.2604  0.2916 -0.2961
61888W        W 4982  11.682  23.243  19.679  0.0421 -0.1134 -0.0401
61889W        W 4983   9.976  22.447  18.397  0.0142 -0.1034 -0.0589
61890W        W 4984  11.657  24.377  16.023  0.0906  0.1582  0.2133
61891W        W 4985  12.848  24.136  15.848  0.0550 -0.0304 -0.0100
61892W        W 4986  12.108  22.397  16.873  0.4406  0.1774  0.0509
61893W        W 4987  14.010  25.728  20.258  0.0108 -0.2549 -0.0280
61894W        W 4988  11.231  24.349  16.350  0.0012  0.0138  0.0450
61895W        W 4989  12.669  24.175  20.037 -0.4315  0.0465  0.1137
61896W        W 4990  12.392  22.698  19.586  0.2202 -0.3069  0.0230
61897W        W 4991   9.772  22.303  16.408 -0.0122 -0.0579  0.2724
61898W        W 4992  12.281  23.595  18.298 -0.3558  0.2188  0.2096
61899W        W 4993  11.963  23.940  17.142 -0.1606  0.0413  0.0452
61900W        W 4994  14.166  24.643  16.331 -0.1913  0.3351  0.0992
61901W        W 4995  12.049  26.337  19.078 -0.0986  0.0467  0.0618
61902W        W 4996  11.860  26.662  18.635 -0.1404  0.0846 -0.2451
61903W        W 4997  10.256  22.854  18.515  0.0420  0.2096 -0.2245
61904W        W 4998  12.126  23.225  16.573 -0.1895  0.4276  0.0208
61905W        W 4999  12.271  24.800  17.349 -0.0357 -0.0447 -0.0876
61906W        W 5000  14.861  26.258  17.104 -0.1418  0.0532  0.1681
61907W        W 5001  12.476  22.364  18.580 -0.0950 -0.0416  0.1340
61908W        W 5002  12.699  24.172  16.333  0.2060  0.0739 -0.1370
61909W        W 5003  11.210  23.503  18.982 -0.0491 -0.0684  0.4038
61910W        W 5004  10.768  24.119  19.632 -0.0367  0.2702 -0.1984
61911W        W 5005  13.319  23.315  19.337  0.0639 -0.3455 -0.0158
61912W        W 5006  12.015  21.899  16.730 -0.0252 -0.0017 -0.3046
61913W        W 5007  13.742  22.994  17.068 -0.1588  0.3738 -0.1559
61914W        W 5008  11.818  25.444  16.999  0.0725  0.0798 -0.1367
61915W        W 5009  10.518  22.680  16.612  0.1206 -0.0489  0.0291
61916W        W 5010  14.375  23.461  16.963 -0.0715 -0.0253 -0.0246
61917W        W 5011  14.140  24.317  19.604  0.1079  0.1837 -0.0936
61918W        W 5012  12.732  25.932  17.536 -0.3729 -0.0553 -0.1488
61919W        W 5013  13.011  25.399  21.370 -0.0484 -0.3150  0.0844
61920W        W 5014  11.039  23.486  17.414  0.1759 -0.1599 -0.0574
61921W        W 5015  12.411  25.456  16.260 -0.2807 -0.1598 -0.2541
61922W        W 5016  13.076  25.188  18.436  0.0529  0.1123 -0.0146
61923W        W 5017  13.160  26.033  21.251 -0.1551 -0.0945 -0.1344
61924W        W 5018  11.110  26.670  17.052 -0.0263  0.2691  0.0856
61925W        W 5019  13.360  24.543  16.899  0.3583 -0.2679  0.1589
61926W        W 5020  10.809  22.990  18.873 -0.1896  0.1102  0.1680
61927W        W 5021  11.875  24.469  17.496 -0.0604 -0.2824  0.6359
61928W        W 5022  11.319  24.212  17.924  0.0955 -0.0850  0.2315
61929W        W 5023  13.583  22.836  19.581 -0.3308  0.2068  0.0733
61930W        W 5024  11.415  23.184  17.754  0.2516  0.0142  0.2167
61931W        W 5025  13.324  22.867  16.790 -0.1340  0.0810 -0.3646
61932W        W 5026  12.558  25.202  18.298  0.1265 -0.1561  0.2223
61933W        W 5027  13.380  25.217  19.074 -0.1993 -0.0631 -0.0044
61934W        W 5028  13.309  24.755  23.758  0.2766 -0.0682  0.3625
61935W        W 5029   9.867  22.862  19.337  0.0419  0.2332 -0.3166
61936W        W 5030  13.000  23.120  20.964 -0.0620  0.1944  0.0222
61937W        W 5031  12.457  25.288  21.196  0.1528  0.2079  0.0710
61938W        W 5032  11.124  22.894  20.957 -0.2031 -0.0795  0.1615
61939W        W 5033  13.702  26.636  22.275  0.2228 -0.0971 -0.0753
61940W        W 5034  11.038  22.311  22.054 -0.1092  0.2288 -0.0406
61941W        W 5035  14.833  26.165  19.370 -0.0158 -0.1944  0.1383
61942W        W 5036  14.337  25.313  22.366  0.1116  0.0010 -0.1137
61943W        W 5037  11.833  24.518  19.662  0.0710 -0.1514  0.3306
61944W        W 5038  10.567  22.310  23.035 -0.0675  0.1936 -0.0752
61945W        W 5039  10.744  25.591  22.851 -0.0430 -0.0763 -0.0608
61946W        W 5040  12.992  22.024  19.683  0.0107  0.3648 -0.1219
61947W        W 5041  11.281  22.925  22.643 -0.0914  0.2344  0.0201
61948W        W 5042  13.303  24.305  24.479 -0.1895  0.0026  0.7203
61949W        W 5043  10.522  24.437  21.212  0.1957  0.0074  0.1589
61950W        W 5044  12.783  22.911  23.037 -0.1533 -0.1733  0.3264
61951W        W 5045  11.820  23.268  20.650  0.0323 -0.0425  0.2508
61952W        W 5046  12.291  25.988  21.549  0.0336  0.2482 -0.2371
61953W        W 5047  11.794  22.828  22.511 -0.1529 -0.1440 -0.0347
61954W        W 5048  13.141  22.719  22.312 -0.0232 -0.1967  0.0504
61955W        W 5049  11.497  24.617  20.125  0.1334 -0.1424  0.1817
61956W        W 5050  11.202  23.635  20.448 -0.2016  0.2117 -0.2210
61957W        W 5051  10.495  23.546  22.215 -0.1313 -0.2989 -0.0492
61958W        W 5052  12.179  23.513  21.954  0.0658  0.6107 -0.1927
61959W        W 5053  13.077  24.091  21.358  0.1424 -0.0124  0.4397
61960W        W 5054  13.620  24.495  20.614 -0.1545  0.1301  0.0548
61961W        W 5055  11.067  24.331  22.296 -0.2658  0.1132  0.1033
61962W        W 5056  13.052  24.963  23.345 -0.0050 -0.0246  0.1043
61963W        W 5057  13.362  23.642  23.116 -0.0914  0.1689  0.2091
61964W        W 5058  10.590  23.052  22.238 -0.0293  0.0057  0.1172
61965W        W 5059  10.887  26.236  21.503 -0.2812  0.1551  0.0760
61966W        W 5060  13.835  25.957  21.297 -0.1644  0.0180 -0.0413
61967W        W 5061  13.321  25.048  21.050 -0.2012  0.2434 -0.0093
61968W        W 5062  13.894  26.548  23.016 -0.1291  0.1231 -0.0414
61969W        W 5063  12.344  26.755  23.292 -0.0120  0.2364  0.0325
61970W        W 5064  12.064  25.378  21.471  0.1863  0.0349 -0.0467
61971W        W 5065  11.697  25.683  24.569  0.1917  0.2069 -0.0902
61972W        W 5066  11.008  23.832  22.641  0.1313  0.0269  0.0950
61973W        W 5067  12.008  24.694  22.895  0.5690  0.3336 -0.3051
61974W        W 5068  11.481  24.150  22.221 -0.0790 -0.1364  0.0922
61975W        W 5069  12.351  24.438  22.422  0.1098  0.3652  0.0339
61976W        W 5070  12.417  24.891  22.714 -0.1609  0.1195 -0.2027
61977W        W 5071  12.126  25.254  23.427  0.2040  0.0843  0.2643
61978W        W 5072  10.688  24.359  23.093  0.2421  0.3167  0.2704
61979W        W 5073  15.119  22.439  22.968  0.2585  0.2728  0.1096
61980W        W 5074  11.703  23.735  22.035  0.0585 -0.0815 -0.0022
61981W        W 5075  13.707  24.138  21.437  0.2520  0.0574  0.0091
61982W        W 5076  12.434  21.868  20.264 -0.1841  0.0465  0.1512
61983W        W 5077  13.575  23.871  20.539  0.0071 -0.0769 -0.0627
61984W        W 5078  11.715  22.760  19.795 -0.2290 -0.0570 -0.1407
61985W        W 5079  12.626  23.985  21.509 -0.0936  0.0560  0.2665
61986W        W 5080  12.247  22.985  20.562  0.1690 -0.0363 -0.0159
61987W        W 5081  13.244  25.073  22.360 -0.1747 -0.0749 -0.0271
61988W        W 5082  12.277  23.517  21.368  0.2063  0.2099  0.0896
61989W        W 5083  12.413  21.390  23.414  0.1181  0.2180 -0.0493
61990W        W 5084  11.621  25.076  22.783  0.1723 -0.1792 -0.1351
61991W        W 5085   9.373  22.067  22.082  0.0425 -0.0798  0.1645
61992W        W 5086  12.954  25.630  20.492 -0.0975  0.1885 -0.2928
61993W        W 5087  14.607  24.468  20.773 -0.0832  0.1488 -0.2546
61994W        W 5088  12.472  25.520  21.740 -0.1344 -0.1798  0.1162
61995W        W 5089  11.526  24.277  19.251 -0.1072  0.1221 -0.1599
61996W        W 5090  10.199  24.318  24.472  0.3776  0.2097 -0.1182
61997W        W 5091  10.305  23.374  22.731 -0.0588  0.2090  0.0214
61998W        W 5092  10.487  22.439  18.508 -0.1214 -0.2227 -0.0346
61999W        W 5093  13.092  25.290  23.799 -0.0395  0.1811 -0.2343
62000W        W 5094  10.772  25.366  23.287 -0.0346 -0.1036 -0.1623
62001W        W 5095  14.014  23.563  20.669  0.0335 -0.2092  0.1991
62002W        W 5096  11.333  23.365  22.301 -0.2077 -0.0480  0.1741
62003W        W 5097  13.630  24.876  22.000  0.0671  0.2142 -0.2420
62004W        W 5098  13.170  22.702  19.349 -0.0783  0.0016  0.0717
62005W        W 5099  14.240  24.202  21.581  0.0381  0.0830 -0.0483
62006W        W 5100  14.045  22.767  20.689 -0.0372  0.5072  0.2806
62007W        W 5101  11.340  24.791  19.679 -0.5552  0.0886 -0.3582
62008W        W 5102  12.168  23.447  19.486 -0.0686 -0.0837 -0.0924
62009W        W 5103  13.631  24.486  23.370 -0.2742  0.0224  0.4201
62010W        W 5104  13.866  24.775  19.523 -0.0087 -0.0773 -0.2932
62011W        W 5105  10.456  25.158  22.902  0.1574  0.4272  0.2558
62012W        W 5106  11.096  24.351  23.377 -0.3176  0.0055 -0.0869
62013W        W 5107  13.043  26.589  24.403 -0.1743  0.0006 -0.0402
62014W        W 5108  11.364  26.446  21.425  0.1396  0.2916  0.0233
62015W        W 5109   9.548  24.874  21.796  0.0171  0.3354  0.3033
62016W        W 5110  11.471  24.114  20.511 -0.4351  0.4375 -0.1475
62017W        W 5111  11.125  21.959  22.470 -0.0960  0.1934  0.0782
62018W        W 5112  12.016  23.650  22.969 -0.1366 -0.3344 -0.0292
62019W        W 5113  12.906  24.604  20.020  0.0018 -0.0535 -0.1486
62020W        W 5114  12.254  22.240  23.721  0.3286 -0.2657  0.1808
62021W        W 5115  13.029  23.548  20.691 -0.2468 -0.1023 -0.0118
62022W        W 5116   9.789  24.676  20.530  0.0060  0.0993 -0.0384
62023W        W 5117  14.993  26.445  20.583  0.0937  0.0212  0.2619
62024W        W 5118  14.347  23.977  20.169  0.1010  0.0545  0.0030
62025W        W 5119  13.302  25.569  20.969 -0.2648 -0.3956 -0.2422
62026W        W 5120  12.167  22.810  22.118  0.1195 -0.0904 -0.2153
62027W        W 5121   9.708  24.048  21.270 -0.0658 -0.1031 -0.0540
62028W        W 5122  10.837  23.008  23.047 -0.1928 -0.1486  0.3154
62029W        W 5123   9.184  21.640  21.863 -0.0869 -0.4258 -0.1843
62030W        W 5124  13.267  22.863  22.833  0.2589  0.3457  0.1811
62031W        W 5125   8.886  22.702  19.867 -0.1996  0.1971  0.1597
62032W        W 5126  13.447  23.708  21.524  0.0093  0.3341  0.2113
62033W        W 5127  11.508  23.731  22.535  0.1445  0.2004 -0.0213
62034W        W 5128  10.113  24.380  22.207 -0.0782  0.1300  0.0850
62035W        W 5129  13.565  23.077  22.050  0.0540 -0.0380  0.1930
62036W        W 5130  12.943  24.520  21.527 -0.2550 -0.0742  0.4280
62037W        W 5131  14.878  26.359  22.664  0.5474  0.1346  0.1240
62038W        W 5132  13.502  26.435  22.699  0.0610  0.1287  0.1340
62039W        W 5133  11.749  21.339  23.166  0.0190  0.0093 -0.0460
62040W        W 5134  11.341  22.703  20.159  0.3495  0.1199 -0.0415
62041W        W 5135  10.502  26.010  21.952 -0.1078  0.1114  0.0105
62042W        W 5136  12.248  24.965  21.968  0.1145 -0.0090  0.1025
62043W        W 5137  10.997  23.351  20.909 -0.0693 -0.0532  0.0599
62044W        W 5138  13.955  25.609  21.591 -0.0736 -0.2222 -0.0234
62045W        W 5139  12.542  23.356  22.289 -0.2785 -0.1789 -0.1344
62046W        W 5140  10.555  23.893  22.815  0.0055 -0.0959  0.1105
62047W        W 5141  13.615  23.196  22.903 -0.2803 -0.0231  0.1594
62048W        W 5142  13.484  24.812  23.061  0.1805  0.1726 -0.2027
62049W        W 5143  12.957  23.617  21.379  0.1422  0.0705 -0.1281
62050W        W 5144  10.403  21.640  19.305  0.1456  0.0313  0.0256
62051W        W 5145  11.154  25.487  21.799 -0.0680 -0.1194 -0.0379
62052W        W 5146  11.132  26.267  20.059 -0.1299 -0.2457  0.0355
62053W        W 5147  11.421  23.442  21.794 -0.1588 -0.1265 -0.1349
62054W        W 5148  12.785  24.205  22.330 -0.0788 -0.1399  0.1340
62055W        W 5149  14.179  23.708  23.239 -0.3549 -0.0145 -0.0958
62056W        W 5150   9.580  24.389  22.323 -0.0390  0.1439 -0.2658
62057W        W 5151  12.415  24.061  23.381 -0.1334  0.0728 -0.0545
62058W        W 5152  11.962  24.057  19.419 -0.1388  0.2060  0.1313
62059W        W 5153  11.789  24.775  23.816 -0.0157  0.3087  0.2956
62060W        W 5154  13.347  23.356  21.144 -0.1384  0.1426 -0.0164
62061W        W 5155  13.532  22.886  20.493 -0.0302  0.2061 -0.1128
62062W        W 5156  12.957  24.174  22.836 -0.1245  0.0018 -0.3160
62063W        W 5157  12.160  24.859  21.435  0.2571 -0.0507  0.2001
62064W        W 5158  12.695  22.884  19.186  0.0202 -0.0513  0.1437
62065W        W 5159  13.801  23.262  19.795 -0.1289  0.2253  0.2351
62066W        W 5160  10.546  25.695  22.332 -0.1648  0.1617 -0.0231
62067W        W 5161  13.251  23.637  22.563 -0.0064 -0.1396 -0.1411
62068W        W 5162  12.862  24.325  23.806  0.1216 -0.1373  0.2739
62069W        W 5163  12.449  23.893  19.414 -0.0977 -0.2452 -0.2963
62070W        W 5164  12.387  24.980  20.788  0.0576  0.0714 -0.0630
62071W        W 5165   9.281  25.361  22.659  0.1767 -0.1739  0.0254
62072W        W 5166  13.046  24.635  24.174 -0.1082 -0.0469 -0.0003
62073W        W 5167  12.403  24.918  23.209  0.2339  0.0239 -0.0846
62074W        W 5168  12.535  22.135  21.549  0.1880  0.2715  0.1563
62075W        W 5169  11.866  24.829  20.517  0.0081 -0.0732  0.0028
62076W        W 5170  11.734  23.718  20.947  0.2383  0.1838 -0.0230
62077W        W 5171  11.073  24.192  21.340  0.0499  0.3235 -0.3550
62078W        W 5172  13.815  23.659  22.848 -0.2242  0.2289  0.0367
62079W        W 5173  14.149  22.518  23.322  0.0017  0.0878  0.2535
62080W        W 5174  12.404  21.243  21.836 -0.1753  0.1072  0.0654
62081W        W 5175  13.698  23.953  23.373  0.1759  0.0435 -0.2190
62082W        W 5176  13.236  22.862  20.021  0.1297 -0.1352  0.1982
62083W        W 5177  11.620  24.294  23.483 -0.0988 -0.1202 -0.1154
62084W        W 5178  11.490  24.215  21.030  0.0211 -0.1282  0.1420
62085W        W 5179  12.762  22.974  21.929 -0.1413  0.1910  0.2539
62086W        W 5180  10.711  22.628  23.443 -0.3869  0.1009 -0.0562
62087W        W 5181  11.166  25.237  22.681 -0.0560 -0.1772  0.3476
62088W        W 5182  12.470  25.446  23.971  0.1033  0.0762 -0.0160
62089W        W 5183  14.890  23.866  22.988  0.2226 -0.3495 -0.1414
62090W        W 5184  12.738  22.982  22.545  0.2171  0.2256  0.2583
62091W        W 5185  12.897  24.415  21.031 -0.0915 -0.0429 -0.1424
62092W        W 5186  11.663  26.637  21.093 -0.1517  0.0477  0.0444
62093W        W 5187  12.028  25.514  22.014 -0.0717  0.5356  0.0461
62094W        W 5188  11.347  23.097  20.494  0.4888 -0.0063  0.0300
62095W        W 5189  11.290  24.962  21.661 -0.3978  0.0372  0.0834
62096W        W 5190  12.331  24.709  20.324  0.2402 -0.1078  0.2595
62097W        W 5191  12.789  24.644  22.461  0.1347  0.2550  0.1129
62098W        W 5192  10.188  25.454  20.830 -0.1059  0.1518  0.0909
62099W        W 5193  13.653  22.987  20.982 -0.1173 -0.0296  0.1799
62100W        W 5194  10.043  26.280  22.053 -0.0803  0.1986 -0.2010
62101W        W 5195  12.685  23.266  19.648 -0.0690 -0.1305  0.1345
62102W        W 5196  11.170  23.269  19.411 -0.0700 -0.2284  0.1755
62103W        W 5197  12.529  22.977  21.025  0.1092  0.0192  0.0234
62104W        W 5198  12.316  25.218  22.379 -0.0758 -0.0619  0.3567
62105W        W 5199  11.314  22.541  23.373 -0.0961 -0.2119 -0.0546
62106W        W 5200  13.521  23.360  20.677 -0.1693 -0.1673 -0.1699
62107W        W 5201  10.373  25.642  23.314 -0.2782 -0.0918 -0.0641
62108W        W 5202  11.219  24.448  21.802  0.0469 -0.0126  0.2561
62109W        W 5203  14.991  22.880  19.576 -0.1583 -0.1264 -0.1901
62110W        W 5204  13.141  26.120  22.926  0.1697  0.1459 -0.2442
62111W        W 5205  11.329  23.883  23.466  0.1687  0.3745 -0.2018
62112W        W 5206   9.066  23.420  21.002  0.2682  0.2871 -0.1072
62113W        W 5207  13.087  23.237  22.263  0.0768 -0.2213  0.1599
62114W        W 5208  12.053  23.182  21.080 -0.2727  0.1546  0.1009
62115W        W 5209  10.770  25.679  21.576  0.1856  0.1502 -0.1551
62116W        W 5210  13.683  25.035  21.422 -0.0900  0.2343 -0.3430
62117W        W 5211  10.686  23.995  21.077 -0.1829  0.1762  0.0012
62118W        W 5212  10.875  25.079  21.263 -0.0216 -0.1478 -0.1200
62119W        W 5213  10.957  23.567  23.503 -0.2271 -0.0778 -0.0924
62120W        W 5214  12.087  23.609  22.474 -0.0608 -0.1153  0.2351
62121W        W 5215  12.163  22.336  21.836 -0.2147  0.5638  0.0274
62122W        W 5216  10.860  23.224  21.461 -0.0167  0.0190  0.0670
62123W        W 5217  12.609  23.476  21.749 -0.0103  0.4083 -0.0374
62124W        W 5218  13.256  26.080  22.411 -0.0673 -0.0429  0.1133
62125W        W 5219  12.060  23.267  23.615  0.0124  0.0818  0.2138
62126W        W 5220  11.299  24.740  22.519 -0.0967  0.2628 -0.2810
62127W        W 5221   9.764  21.872  21.220  0.0663  0.1678  0.0953
62128W        W 5222  14.064  24.833  22.209  0.0280  0.0654  0.0832
62129W        W 5223  11.952  24.205  22.996  0.0264  0.4576 -0.0656
62130W        W 5224  11.562  25.651  21.083 -0.0322 -0.0847 -0.1492
62131W        W 5225  10.245  24.301  22.702 -0.3040  0.3877  0.3222
62132W        W 5226  11.784  25.130  21.802  0.2574  0.0501  0.1936
62133W        W 5227  12.840  21.783  21.768  0.0949 -0.1353  0.2141
62134W        W 5228   9.567  25.581  23.072  0.1844 -0.0438  0.0252
62135W        W 5229  12.064  25.235  22.932 -0.0237 -0.0572 -0.1068
62136W        W 5230  11.062  24.737  23.059  0.0077 -0.0063 -0.0901
62137W        W 5231  13.147  23.867  20.226  0.1426  0.5061  0.0582
62138W        W 5232  11.778  24.494  21.456  0.2403 -0.2383  0.0122
62139W        W 5233  10.576  24.164  22.354 -0.1281  0.2097 -0.3079
62140W        W 5234  15.341  24.118  22.907 -0.1445 -0.2046  0.0469
62141W        W 5235  13.968  23.160  20.310 -0.0511  0.1583 -0.1008
62142W        W 5236  14.151  23.277  22.776  0.2403  0.1095  0.2652
62143W        W 5237  11.654  23.333  22.797  0.3603  0.2502  0.1962
62144W        W 5238  12.065  24.569  20.929  0.0488  0.0080  0.0174
62145W        W 5239  10.907  22.506  24.260 -0.0737 -0.1730  0.0097
62146W        W 5240  12.309  25.484  24.428  0.2214 -0.2685  0.0333
62147W        W 5241  11.040  23.329  23.934  0.3008 -0.0675 -0.1991
62148W        W 5242  13.702  22.827  21.590  0.1913  0.0026  0.1527
62149W        W 5243  12.073  22.092  21.287 -0.2217 -0.2311  0.2108
62150W        W 5244  10.369  24.829  23.799 -0.1120  0.3308  0.3637
62151W        W 5245  14.657  26.094  21.407  0.0776  0.1885 -0.1851
62152W        W 5246  11.780  23.174  20.152  0.1473 -0.1476 -0.2207
62153W        W 5247  13.582  24.466  22.266 -0.0609 -0.0840  0.1966
62154W        W 5248  10.144  24.282  23.164 -0.0322  0.3634 -0.0953
62155W        W 5249  14.273  24.603  20.279 -0.1172  0.0958  0.2440
62156W        W 5250  11.704  25.001  21.296  0.1436  0.2063  0.0809
62157W        W 5251  12.522  23.357  22.823 -0.1821 -0.3907  0.0953
62158W        W 5252  11.989  22.706  21.430  0.1664  0.2046 -0.2060
62159W        W 5253  12.186  23.085  22.554  0.0005  0.2808  0.1558
62160W        W 5254  13.458  21.871  20.165 -0.1089  0.1113  0.0857
62161W        W 5255  11.682  22.122  22.535  0.2265 -0.1533 -0.2169
62162W        W 5256  13.028  23.308  22.856  0.0226  0.3883 -0.1951
62163W        W 5257  10.892  23.824  22.083  0.1338 -0.1546  0.1224
62164W        W 5258  10.262  23.366  23.278  0.0302 -0.1634 -0.1727
62165W        W 5259  14.627  26.517  23.122 -0.0597  0.1107 -0.0186
62166W        W 5260  14.339  24.684  19.102  0.0511  0.2345  0.1233
62167W        W 5261  15.204  23.148  22.802  0.0138  0.0244  0.0923
62168W        W 5262  12.739  25.035  20.355  0.0078  0.1273 -0.1312
62169W        W 5263  11.986  24.420  20.263  0.1959  0.1263 -0.0110
62170W        W 5264  11.562  23.866  23.059  0.2348 -0.2237 -0.2568
62171W        W 5265  13.993  24.818  23.772  0.2451  0.1164  0.2226
62172W        W 5266  12.168  23.125  19.821  0.0068  0.0632 -0.1037
62173W        W 5267  13.259  22.873  21.303 -0.2943 -0.0296 -0.0334
62174W        W 5268  12.470  26.178  22.811 -0.0935  0.0815  0.0065
62175W        W 5269  13.964  24.616  21.713 -0.2656  0.2361 -0.0518
62176W        W 5270  12.204  23.634  20.650  0.0533 -0.3027 -0.0655
62177W        W 5271  10.179  21.521  22.238 -0.0242 -0.2899  0.0288
62178W        W 5272  11.467  25.147  22.222  0.2199  0.1013 -0.1149
62179W        W 5273  12.264  23.098  18.222  0.3650  0.2212 -0.2016
62180W        W 5274  13.355  22.236  19.226  0.0733  0.1651  0.2282
62181W        W 5275  12.817  24.649  24.871 -0.1872 -0.0660 -0.2510
62182W        W 5276  14.026  24.285  23.653  0.2277 -0.2613  0.1149
62183W        W 5277  11.784  21.784  19.544  0.3519  0.2783 -0.0651
62184W        W 5278  14.856  22.172  22.267 -0.1026 -0.1389 -0.1250
62185W        W 5279   9.493  23.903  21.700 -0.1114  0.0818  0.0763
62186W        W 5280  13.566  22.396  21.382 -0.1305  0.1265 -0.0584
62187W        W 5281  11.220  25.664  23.305 -0.0419  0.1194 -0.0707
62188W        W 5282  10.643  24.824  23.393 -0.1288  0.1423 -0.0989
62189W        W 5283  11.708  26.538  22.769  0.2018 -0.0552  0.0187
62190W        W 5284  11.468  22.662  21.576  0.1319 -0.0516 -0.2570
62191W        W 5285  14.077  22.978  22.391  0.1132 -0.2422 -0.0636
62192W        W 5286  11.177  24.274  22.859  0.2690 -0.2074 -0.0790
62193W        W 5287  13.188  24.643  22.087  0.2211 -0.4755 -0.1255
62194W        W 5288  13.500  25.105  23.424 -0.2083 -0.0217 -0.2140
62195W        W 5289  10.932  24.079  23.761  0.0281  0.2211 -0.0710
62196W        W 5290  12.594  24.512  23.441 -0.4874 -0.1032  0.0991
62197W        W 5291  13.982  24.297  21.061  0.2616 -0.2368 -0.1694
62198W        W 5292  12.326  23.090  21.647 -0.0514 -0.0491 -0.0886
62199W        W 5293  10.056  22.546  23.685 -0.2604  0.1182  0.2543
62200W        W 5294  13.353  25.578  24.191 -0.2912 -0.1764 -0.2019
62201W        W 5295  11.308  23.952  21.747  0.1479 -0.1056  0.2663
62202W        W 5296  10.901  23.736  21.490 -0.2209  0.0625  0.0207
62203W        W 5297  12.722  25.030  22.124 -0.1048 -0.1324 -0.1262
62204W        W 5298   9.576  25.219  23.729  0.0903 -0.1177  0.0571
62205W        W 5299  11.297  25.064  20.921 -0.4102 -0.0011  0.2835
62206W        W 5300  11.016  26.134  21.026  0.1329 -0.0902  0.3046
62207W        W 5301  13.899  24.871  20.418  0.1123  0.0765  0.2541
62208W        W 5302  12.077  23.944  21.711 -0.0375  0.1631 -0.1144
62209W        W 5303  11.710  25.517  23.088 -0.0187 -0.2047 -0.3264
62210W        W 5304  12.762  23.963  20.973 -0.3590  0.2939  0.0025
62211W        W 5305  11.551  25.699  23.984  0.1853 -0.2486 -0.0682
62212W        W 5306  10.871  24.585  20.025 -0.1725  0.4171  0.0895
62213W        W 5307  12.472  26.261  21.152 -0.1845  0.1483 -0.2651
62214W        W 5308  11.938  24.904  19.982  0.0724  0.1455  0.2090
62215W        W 5309  12.849  25.230  22.665 -0.3032  0.0280  0.0390
62216W        W 5310  12.910  25.246  20.831 -0.0427  0.0050  0.4126
62217W        W 5311  13.422  24.464  21.056  0.3845 -0.1890 -0.1618
62218W        W 5312  14.386  23.807  21.977  0.2558 -0.0499 -0.0759
62219W        W 5313  12.378  25.077  24.782  0.3438  0.2617  0.1424
62220W        W 5314  12.505  23.866  22.041 -0.0278 -0.0434  0.0559
62221W        W 5315  12.149  22.130  19.386 -0.0874 -0.1180  0.2721
62222W        W 5316  10.396  23.772  24.448  0.3553  0.1237 -0.0499
62223W        W 5317  15.528  23.457  22.338 -0.4088  0.1836  0.0088
62224W        W 5318  10.021  24.793  22.549  0.0102  0.3068 -0.0041
62225W        W 5319  12.645  26.497  20.783  0.0854 -0.1395  0.4102
62226W        W 5320  10.782  25.169  21.778  0.2660 -0.0120  0.0310
62227W        W 5321  12.182  24.428  21.914 -0.0844  0.0298  0.2523
62228W        W 5322  14.647  23.570  22.581  0.1760  0.0623  0.1663
62229W        W 5323  11.352  24.840  19.158 -0.1155 -0.1746  0.1201
62230W        W 5324  12.580  22.653  21.546 -0.0404  0.1506  0.4750
62231W        W 5325  10.904  24.682  21.529 -0.2572  0.2206 -0.1611
62232W        W 5326  10.365  26.284  20.666 -0.0254 -0.0476 -0.2256
62233W        W 5327  12.788  25.930  21.626 -0.0468 -0.0339  0.0523
62234W        W 5328  10.151  22.342  20.851 -0.2430 -0.2412 -0.0118
62235W        W 5329  13.543  23.608  21.993 -0.1042 -0.3176  0.0343
62236W        W 5330  12.408  23.024  23.361 -0.0584  0.0580  0.0239
62237W        W 5331  15.185  23.869  23.666  0.0699  0.2326  0.0217
62238W        W 5332  12.142  22.372  22.396  0.3387  0.0776  0.2264
62239W        W 5333  13.023  24.167  21.896 -0.0565  0.4646  0.2793
62240W        W 5334  13.714  23.884  22.366 -0.0246 -0.1028  0.0683
62241W        W 5335  12.526  22.188  22.658 -0.2276 -0.1309 -0.2633
62242W        W 5336  12.975  23.726  19.547 -0.2403 -0.0178  0.0212
62243W        W 5337  14.438  24.430  23.337  0.2361  0.2282  0.1942
62244W        W 5338  13.434  24.306  20.144 -0.0355 -0.0777  0.0798
62245W        W 5339  12.303  24.848  23.694  0.0260  0.1537 -0.2119
62246W        W 5340  11.700  23.742  21.472  0.1760  0.0507 -0.0128
62247W        W 5341  12.702  24.543  21.952 -0.1089 -0.0684 -0.0635
62248W        W 5342  10.349  23.971  21.953 -0.0916  0.1538  0.1440
62249W        W 5343  13.048  23.318  24.001 -0.0781  0.0972  0.0428
62250W        W 5344  13.337  25.979  23.923  0.2697  0.1859  0.0073
62251W        W 5345  10.714  22.664  21.155 -0.0666 -0.0768 -0.0173
62252W        W 5346  12.992  26.137  20.783  0.1331 -0.4397 -0.1087
62253W        W 5347  12.768  23.722  22.486  0.4493 -0.1068 -0.2645
62254W        W 5348  12.289  25.304  19.677 -0.0997 -0.2401 -0.0094
62255W        W 5349  14.036  23.419  21.975 -0.1403 -0.0756  0.1633
62256W        W 5350  11.912  26.000  21.944 -0.0919  0.1273  0.0271
62257W        W 5351  12.377  23.513  23.304  0.0925 -0.0215  0.0897
62258W        W 5352  11.170  26.202  23.494  0.1791 -0.3266  0.0807
62259W        W 5353  14.604  26.018  22.897 -0.3397 -0.2832  0.1028
62260W        W 5354  13.187  24.201  20.661 -0.0044 -0.0188 -0.0524
62261W        W 5355  11.865  23.237  21.553 -0.1193  0.0576  0.0871
62262W        W 5356  11.005  24.627  20.942  0.0135  0.1259  0.0887
62263W        W 5357  15.131  23.434  23.279  0.1262 -0.0170 -0.2204
62264W        W 5358  13.109  23.974  23.373 -0.1493 -0.2919 -0.2274
62265W        W 5359  11.786  25.041  19.516 -0.2132  0.0027 -0.0398
62266W        W 5360  14.934  23.222  22.430  0.3543  0.1010  0.1348
62267W        W 5361  11.733  26.168  23.677  0.0538 -0.0795  0.2551
62268W        W 5362  11.301  25.697  22.829  0.1891 -0.2305  0.1290
62269W        W 5363  11.315  22.838  18.557  0.0131 -0.0909  0.3117
62270W        W 5364  12.122  24.907  24.246 -0.0103  0.2109 -0.1540
62271W        W 5365  11.725  23.697  20.436 -0.0975 -0.2131  0.0770
62272W        W 5366  13.244  24.065  22.340  0.0847  0.0120  0.3385
62273W        W 5367  15.449  25.340  20.623 -0.0103  0.0029  0.0328
62274W        W 5368  12.783  23.055  21.420 -0.0599  0.1776  0.1088
62275W        W 5369  15.065  24.360  20.604  0.2570  0.1294 -0.0713
62276W        W 5370  13.214  23.257  21.695  0.0680 -0.3419 -0.2004
62277W        W 5371  13.565  24.132  21.945 -0.3086  0.1825 -0.1195
62278W        W 5372  12.951  22.489  19.853  0.2305 -0.1826 -0.0719
62279W        W 5373  10.400  25.485  21.954  0.0828  0.1759  0.0764
62280W        W 5374  11.253  23.724  21.074  0.0702  0.1482 -0.1283
62281W        W 5375  11.440  24.590  20.680 -0.0528  0.1914  0.2954
62282W        W 5376  11.088  25.545  20.901  0.0004 -0.0534 -0.1126
62283W        W 5377  13.426  23.528  24.664 -0.0038  0.0897 -0.0362
62284W        W 5378  11.641  23.419  23.293 -0.4505  0.0058 -0.0534
62285W        W 5379  10.551  22.877  21.612  0.0602 -0.0274  0.2571
62286W        W 5380  10.536  23.053  20.826  0.1110 -0.2627 -0.1196
62287W        W 5381  12.032  24.053  22.286  0.2167  0.2324  0.0578
62288W        W 5382  11.738  22.452  22.019  0.3396  0.0197  0.0029
62289W        W 5383  10.231  21.979  23.149  0.0375  0.1960  0.1735
62290W        W 5384  13.142  24.726  20.694  0.0177 -0.0884  0.0449
62291W        W 5385  13.530  25.755  20.359  0.2491  0.2628 -0.1097
62292W        W 5386  12.495  23.740  19.851 -0.1134  0.1190 -0.2651
62293W        W 5387  13.307  25.285  22.827 -0.0101  0.2711 -0.0041
62294W        W 5388  10.482  24.868  21.030  0.3442 -0.0427  0.0678
62295W        W 5389  10.888  23.363  25.117 -0.0848  0.2058 -0.1771
62296W        W 5390  11.238  22.841  23.930  0.0674  0.0780 -0.1018
62297W        W 5391  10.599  21.255  19.089 -0.2337 -0.2992  0.0789
62298W        W 5392  12.396  24.433  22.929 -0.0943  0.1904  0.1701
62299W        W 5393  11.664  24.629  21.931 -0.1950 -0.3321  0.4197
62300W        W 5394  12.263  25.644  22.657 -0.1059 -0.0254  0.0661
62301W        W 5395  10.685  24.649  22.645 -0.5203 -0.1067  0.1881
62302W        W 5396  11.541  25.987  23.230  0.2371 -0.1601 -0.2340
62303W        W 5397  11.399  22.487  22.385  0.0633 -0.0449  0.1161
62304W        W 5398  12.302  23.974  21.054 -0.0199 -0.0957  0.3633
62305W        W 5399  11.531  24.557  23.064  0.0748 -0.1508 -0.1037
62306W        W 5400  14.770  23.596  18.863  0.1736  0.2123  0.0617
62307W        W 5401  14.539  22.723  22.209  0.0717 -0.2806  0.0510
62308W        W 5402  13.006  23.693  22.046  0.0753 -0.2685  0.1993
62309W        W 5403  10.453  22.217  23.540  0.0797 -0.1941  0.0521
62310W        W 5404  11.043  24.929  24.412 -0.1934 -0.2052 -0.1767
62311W        W 5405  14.032  25.689  22.103 -0.0115 -0.1333 -0.0675
62312W        W 5406  10.996  22.732  21.813 -0.2451  0.1529  0.0886
62313W        W 5407  13.829  25.042  20.908 -0.1857  0.0014  0.0796
62314W        W 5408  13.444  25.722  21.478  0.0017 -0.1424 -0.0407
62315W        W 5409  10.921  23.318  22.571 -0.0901 -0.0432 -0.0403
62316W        W 5410  12.428  24.170  20.565  0.5228 -0.0602  0.2600
62317W        W 5411  12.690  23.836  23.054 -0.0858 -0.1553  0.0036
62318W        W 5412  10.969  23.912  23.130 -0.1511  0.0254  0.1720
62319W        W 5413  13.692  25.226  22.365  0.2046 -0.0435 -0.0065
62320W        W 5414  11.933  24.105  20.710 -0.0456  0.1396  0.2038
62321W        W 5415  15.841  23.210  20.154  0.1636  0.2698  0.0853
62322W        W 5416  13.188  26.151  21.855 -0.2277 -0.1273 -0.1818
62323W        W 5417  14.564  25.633  23.627  0.2343 -0.0094  0.4627
62324W        W 5418  11.732  24.399  22.600  0.0961 -0.0526 -0.0170
62325W        W 5419  15.609  24.711  19.966  0.0510  0.0088  0.1941
62326W        W 5420  10.933  23.333  21.987 -0.1418  0.0779 -0.1138
62327W        W 5421  10.607  24.651  22.125 -0.1147 -0.1302  0.0113
62328W        W 5422  10.162  23.830  21.501 -0.1449  0.0433  0.2050
62329W        W 5423  13.737  23.317  21.544 -0.0168  0.1609 -0.1185
62330W        W 5424  11.384  22.929  22.083  0.2163 -0.1382 -0.0725
62331W        W 5425  11.956  21.871  20.059 -0.1110  0.0492 -0.0537
62332W        W 5426  12.515  26.678  22.812  0.0467 -0.1010  0.0666
62333W        W 5427  12.370  24.008  22.685 -0.1167  0.0992 -0.0437
62334W        W 5428  12.041  25.325  26.913  0.0549  0.0021 -0.1437
62335W        W 5429  12.106  24.226  25.139 -0.2657  0.3877  0.1148
62336W        W 5430  14.419  23.380  23.613 -0.0077  0.2202 -0.1876
62337W        W 5431  14.284  24.789  25.147  0.3972  0.1434 -0.2640
62338W        W 5432  10.666  23.646  26.394 -0.2678  0.2403  0.1480
62339W        W 5433  14.897  25.564  25.053  0.1252 -0.0890 -0.1455
62340W        W 5434  11.640  23.016  28.101 -0.0384  0.2058  0.0269
62341W        W 5435  13.578  25.321  25.468 -0.0493 -0.5802  0.2327
62342W        W 5436  13.819  24.649  26.527  0.2955 -0.1661  0.2630
62343W        W 5437  14.199  24.001  24.252 -0.4326 -0.2306  0.0318
62344W        W 5438  11.254  24.396  26.802  0.1174 -0.1169 -0.0842
62345W        W 5439  12.857  27.064  26.634  0.1119 -0.2106 -0.3432
62346W        W 5440  11.646  22.893  23.621 -0.2095 -0.0984 -0.1455
62347W        W 5441  11.834  23.951  26.013  0.1628  0.2740  0.3579
62348W        W 5442  13.522  24.844  25.360  0.0505  0.2886 -0.0145
62349W        W 5443  11.543  24.305  24.439  0.3294  0.1288  0.0140
62350W        W 5444  12.287  22.203  25.812 -0.1660 -0.1940 -0.1073
62351W        W 5445  12.012  23.817  24.246  0.0762 -0.1985 -0.3467
62352W        W 5446  12.847  25.557  24.349 -0.0592  0.3410  0.0799
62353W        W 5447  12.166  22.425  25.185 -0.0517 -0.0670  0.1100
62354W        W 5448  12.406  22.964  26.277 -0.1249 -0.2926  0.0987
62355W        W 5449  12.544  25.519  25.635  0.2714  0.0643 -0.1510
62356W        W 5450  11.196  23.786  24.070  0.1788 -0.0037  0.2335
62357W        W 5451  12.020  24.823  25.672 -0.2601  0.0983 -0.0307
62358W        W 5452  12.873  23.847  25.890  0.2310 -0.1073  0.4463
62359W        W 5453  13.212  23.292  25.804 -0.2083 -0.1769  0.2046
62360W        W 5454  13.154  25.113  24.310  0.2062 -0.2471 -0.1022
62361W        W 5455  12.642  26.160  25.858 -0.0657 -0.0659  0.2159
62362W        W 5456  12.577  26.037  25.209  0.2607 -0.0348 -0.2708
62363W        W 5457  13.587  22.420  25.708 -0.0197  0.0740  0.1831
62364W        W 5458  10.228  25.608  25.803  0.3914  0.2010  0.4216
62365W        W 5459  10.382  26.132  26.230 -0.0326  0.0270 -0.0121
62366W        W 5460  10.905  25.142  23.729 -0.0385 -0.4908 -0.1090
62367W        W 5461  14.049  25.353  25.306  0.0170 -0.0955  0.0208
62368W        W 5462  14.508  24.379  26.502  0.1824  0.0506 -0.2553
62369W        W 5463  11.013  26.549  28.011 -0.0454 -0.1482  0.4306
62370W        W 5464  10.094  25.158  23.368 -0.0573 -0.0843  0.0131
62371W        W 5465  13.856  25.608  27.139  0.0240 -0.3326  0.0395
62372W        W 5466  10.898  26.338  28.808  0.2541 -0.0988  0.1481
62373W        W 5467  13.052  25.464  26.486  0.0133  0.0240  0.2096
62374W        W 5468  13.255  23.464  25.157 -0.0817 -0.0476  0.0307
62375W        W 5469  11.391  25.314  24.373 -0.1739  0.0769  0.1439
62376W        W 5470  11.724  24.427  25.315 -0.1656  0.1060 -0.0528
62377W        W 5471  12.526  25.320  28.315  0.2310 -0.1333 -0.1158
62378W        W 5472  10.354  25.601  26.306 -0.2970 -0.0436  0.0027
62379W        W 5473  13.719  22.180  27.162  0.3858 -0.1665  0.0721
62380W        W 5474  11.862  25.657  23.580 -0.1615  0.0364 -0.3472
62381W        W 5475  13.763  23.356  22.426  0.2189  0.1227 -0.2513
62382W        W 5476  13.697  22.706  23.130 -0.0925 -0.1547 -0.1476
62383W        W 5477  13.996  22.668  24.158 -0.5794  0.0872  0.0200
62384W        W 5478  13.026  21.626  25.434 -0.0088 -0.0807 -0.3270
62385W        W 5479  11.691  25.876  25.561 -0.0311 -0.1945 -0.0220
62386W        W 5480  12.374  21.898  24.211 -0.0083  0.1974  0.0411
62387W        W 5481  13.053  24.733  25.781  0.2369  0.3314 -0.2263
62388W        W 5482  11.814  24.890  23.317 -0.1430 -0.0394 -0.0149
62389W        W 5483  13.031  23.097  25.411 -0.2539 -0.1772  0.1853
62390W        W 5484  12.730  26.320  28.023 -0.2301  0.1385 -0.0140
62391W        W 5485  11.743  24.916  27.196  0.1976 -0.3315  0.1175
62392W        W 5486  13.943  24.473  24.135  0.2855  0.1234  0.0002
62393W        W 5487  14.804  25.175  25.411  0.4932 -0.0320 -0.1999
62394W        W 5488  13.346  23.148  23.296  0.2949 -0.1785  0.3069
62395W        W 5489  11.516  24.646  26.312 -0.0948  0.0522 -0.1376
62396W        W 5490  11.782  25.201  27.750  0.0134  0.1004  0.2569
62397W        W 5491  12.223  24.889  26.776  0.1203 -0.1406  0.0301
62398W        W 5492  11.826  23.219  22.203  0.0188 -0.0665  0.0782
62399W        W 5493  12.822  24.902  28.036  0.1195 -0.0450  0.1255
62400W        W 5494  10.875  23.284  27.478 -0.1145  0.0386  0.0137
62401W        W 5495  14.620  24.781  24.712  0.0606  0.2133 -0.0942
62402W        W 5496  15.357  23.911  26.583  0.1127  0.3304 -0.1807
62403W        W 5497  14.329  25.040  26.122 -0.0155 -0.1342 -0.3485
62404W        W 5498  13.583  25.168  23.909  0.0640 -0.1104  0.0702
62405W        W 5499  12.244  22.910  24.579  0.4163 -0.0352  0.0304
62406W        W 5500  13.755  23.218  24.996  0.0526  0.1722 -0.2218
62407W        W 5501  10.439  24.405  23.552 -0.3186 -0.1000  0.1160
62408W        W 5502  11.358  24.774  23.550  0.1994  0.0758  0.0206
62409W        W 5503  15.313  24.813  26.179 -0.2117  0.0822 -0.1277
62410W        W 5504  13.329  23.703  23.711 -0.2134  0.0006 -0.0244
62411W        W 5505  11.117  25.043  26.365  0.1537  0.2481 -0.0385
62412W        W 5506  12.368  23.267  25.889  0.1308 -0.0575 -0.1363
62413W        W 5507  12.592  25.782  26.632 -0.0285  0.0646 -0.0951
62414W        W 5508  10.802  24.631  23.896  0.0170 -0.3196  0.3904
62415W        W 5509   9.972  25.664  27.092  0.0531 -0.2823  0.0801
62416W        W 5510   9.945  26.151  25.776 -0.0938 -0.3654  0.1366
62417W        W 5511  11.168  23.357  25.577  0.0826 -0.0480  0.1649
62418W        W 5512  10.873  26.315  26.197 -0.4248  0.0590 -0.1322
62419W        W 5513  13.058  25.362  25.574 -0.0145  0.0209 -0.3060
62420W        W 5514  11.042  22.869  25.306 -0.2225 -0.0082  0.0490
62421W        W 5515  15.238  24.327  24.494  0.2285 -0.2345 -0.0929
62422W        W 5516  11.610  25.019  25.949 -0.0037 -0.2581 -0.1384
62423W        W 5517  14.416  26.049  24.311  0.4223 -0.0135  0.0735
62424W        W 5518  13.740  23.901  23.960 -0.3240  0.1062  0.1313
62425W        W 5519  13.692  25.546  25.011 -0.0356  0.3468 -0.2851
62426W        W 5520  12.513  23.577  24.715  0.2873 -0.0164 -0.2767
62427W        W 5521  10.995  22.508  25.800 -0.1383  0.0879  0.0212
62428W        W 5522  12.202  25.028  27.319 -0.0306  0.1208 -0.0663
62429W        W 5523  11.423  23.186  26.013  0.1742  0.2274  0.2145
62430W        W 5524  13.494  25.121  26.426 -0.2126  0.0361 -0.0179
62431W        W 5525  10.402  22.239  24.723  0.1556 -0.1718  0.0382
62432W        W 5526  15.997  22.917  23.653 -0.1615 -0.0223 -0.2518
62433W        W 5527  11.860  25.232  24.658  0.2209  0.2011 -0.0031
62434W        W 5528  10.872  25.474  25.131 -0.1187 -0.0458 -0.2470
62435W        W 5529  13.841  21.879  24.776 -0.0769 -0.2255 -0.1283
62436W        W 5530  12.659  26.638  24.034  0.2196 -0.1545 -0.1429
62437W        W 5531  14.891  24.602  26.888  0.0035 -0.3689  0.0463
62438W        W 5532  15.370  26.509  26.685  0.2112  0.0871  0.0409
62439W        W 5533  11.718  23.538  27.238  0.0607  0.0577 -0.1060
62440W        W 5534  10.993  23.830  25.701 -0.1433  0.1346 -0.1315
62441W        W 5535  11.779  26.766  26.069  0.2396  0.0666  0.1433
62442W        W 5536  11.440  26.396  27.693 -0.1366 -0.0417 -0.1389
62443W        W 5537  12.448  24.515  24.116  0.0419  0.2998  0.2187
62444W        W 5538  15.844  26.911  25.223  0.0074 -0.2260  0.1070
62445W        W 5539  11.991  25.245  25.405 -0.1549 -0.0016  0.2099
62446W        W 5540  12.064  23.512  26.860 -0.0596  0.2365 -0.4705
62447W        W 5541  12.100  23.233  24.932 -0.0189  0.1163  0.1334
62448W        W 5542  15.153  23.255  25.960  0.0026 -0.0282  0.2003
62449W        W 5543  13.487  26.238  25.643  0.2850 -0.2641 -0.1048
62450W        W 5544  11.139  22.372  25.306 -0.1511 -0.1389 -0.2392
62451W        W 5545  12.772  26.419  24.933  0.2970 -0.1423  0.1603
62452W        W 5546  10.795  24.860  24.882  0.1027  0.0809 -0.2337
62453W        W 5547  11.268  24.581  24.930 -0.0654  0.2505 -0.1910
62454W        W 5548  11.473  26.689  24.993  0.3070  0.2695 -0.1873
62455W        W 5549  14.307  23.804  24.731  0.2978 -0.2225 -0.1414
62456W        W 5550  11.367  25.463  29.742  0.1201 -0.0839 -0.0640
62457W        W 5551  13.744  24.407  25.751 -0.0279 -0.0832 -0.0932
62458W        W 5552  10.780  23.890  25.234 -0.1606 -0.2270 -0.0641
62459W        W 5553  11.874  26.474  28.625 -0.2097 -0.0463  0.2061
62460W        W 5554  12.838  23.780  23.853 -0.0013  0.0590  0.1050
62461W        W 5555  14.285  25.241  23.198  0.2724 -0.2725 -0.0554
62462W        W 5556  12.444  25.171  27.705  0.2806 -0.0893 -0.3199
62463W        W 5557  14.392  25.152  23.806  0.1486  0.1135 -0.1322
62464W        W 5558  11.941  23.888  23.480 -0.0726  0.1458  0.3663
62465W        W 5559  12.706  22.287  23.979 -0.1451  0.1067  0.0899
62466W        W 5560  10.829  25.418  28.523 -0.0007 -0.0866  0.1892
62467W        W 5561  11.649  26.041  25.129  0.2741 -0.0754 -0.0476
62468W        W 5562  13.389  24.579  26.302 -0.1794  0.0728 -0.0782
62469W        W 5563  11.001  23.081  23.487 -0.0540  0.1157 -0.0237
62470W        W 5564  15.114  25.655  23.739  0.2949 -0.1630 -0.2302
62471W        W 5565  12.422  24.443  26.610  0.2095  0.1737 -0.2922
62472W        W 5566  12.730  24.036  28.535 -0.0106  0.0363  0.1949
62473W        W 5567  13.926  25.968  25.685 -0.1683  0.2277 -0.2450
62474W        W 5568  12.439  22.391  26.354 -0.1591  0.2295  0.2413
62475W        W 5569  11.615  25.475  25.042 -0.0420 -0.1892 -0.1017
62476W        W 5570  12.693  20.900  24.107 -0.0745  0.2445  0.0261
62477W        W 5571  11.021  26.580  24.030  0.4197 -0.3163  0.6167
62478W        W 5572  13.102  21.589  24.592  0.0980  0.0217 -0.0859
62479W        W 5573  13.299  23.743  25.565  0.2136  0.0393  0.2974
62480W        W 5574  13.172  22.474  25.387  0.1659 -0.0438  0.1462
62481W        W 5575  14.294  23.826  27.214 -0.0685 -0.1358  0.3103
62482W        W 5576  13.359  23.941  24.898 -0.0927  0.3317  0.1884
62483W        W 5577  13.304  25.205  25.066  0.0829 -0.0769  0.0669
62484W        W 5578  12.302  23.741  23.763  0.2792  0.1640  0.5335
62485W        W 5579  15.217  24.424  25.769  0.0022 -0.2783 -0.0100
62486W        W 5580  12.623  25.807  24.752  0.1683  0.4645 -0.0904
62487W        W 5581  12.220  26.419  28.302  0.0306 -0.2668 -0.2583
62488W        W 5582  13.119  24.068  26.436 -0.1813  0.0345 -0.1259
62489W        W 5583  13.245  24.823  24.683 -0.2544 -0.0562 -0.2591
62490W        W 5584  11.815  23.931  26.942  0.1409  0.1436  0.1328
62491W        W 5585  12.198  24.239  23.801  0.1789  0.1538  0.3449
62492W        W 5586  11.430  26.557  24.487 -0.0504 -0.5332  0.2124
62493W        W 5587  11.466  24.411  23.963  0.1102 -0.1123 -0.1437
62494W        W 5588  11.344  23.335  24.311 -0.0499  0.0300  0.2634
62495W        W 5589  11.034  26.732  25.297 -0.1732  0.1381 -0.0430
62496W        W 5590  11.591  26.539  23.289  0.2217  0.0241 -0.0926
62497W        W 5591  12.969  24.901  25.277  0.0782  0.0271  0.0343
62498W        W 5592  11.293  27.042  23.898 -0.1124  0.1627  0.1137
62499W        W 5593  14.186  21.118  23.575  0.0177 -0.0873 -0.0297
62500W        W 5594  10.492  26.344  25.794  0.1298 -0.1770 -0.1665
62501W        W 5595  12.947  23.846  24.650  0.1091  0.0299  0.1093
62502W        W 5596   9.514  24.135  24.616  0.0861  0.1439 -0.1742
62503W        W 5597  12.834  22.501  24.419  0.0993  0.1406 -0.1049
62504W        W 5598  13.693  24.520  22.757 -0.1511  0.0468  0.0463
62505W        W 5599  11.471  22.089  27.787 -0.2244 -0.2796  0.1599
62506W        W 5600  12.750  22.516  24.983 -0.2062 -0.0225  0.1841
62507W        W 5601   9.892  25.428  26.590 -0.0368  0.0233 -0.5087
62508W        W 5602  13.796  23.673  26.453 -0.1870  0.0752  0.0099
62509W        W 5603  13.491  23.053  23.787 -0.0156  0.2211  0.1665
62510W        W 5604  13.438  25.759  25.722 -0.0348 -0.1049 -0.0715
62511W        W 5605  12.072  24.212  27.569  0.1840 -0.0498  0.1420
62512W        W 5606  10.506  22.369  23.994  0.0506  0.1002 -0.1949
62513W        W 5607  14.453  23.839  25.314 -0.0352 -0.0746  0.0440
62514W        W 5608  11.832  24.650  24.896 -0.0619  0.0449  0.2148
62515W        W 5609  11.278  25.465  26.067 -0.2870  0.0389  0.0019
62516W        W 5610  12.891  25.065  26.092  0.4540 -0.1761  0.2564
62517W        W 5611  11.264  23.442  24.789 -0.1719  0.0824  0.0518
62518W        W 5612  10.629  25.271  24.681  0.0658 -0.4088  0.4072
62519W        W 5613  12.038  24.229  28.135 -0.1413 -0.2016 -0.1981
62520W        W 5614  13.315  24.473  25.040 -0.0148 -0.1181 -0.0909
62521W        W 5615  12.857  24.463  26.175 -0.0730  0.2983 -0.1621
62522W        W 5616  11.497  23.137  25.198  0.0844 -0.0375  0.0858
62523W        W 5617  13.229  23.007  24.976  0.1505  0.0330  0.3011
62524W        W 5618  13.908  23.960  25.596  0.0260  0.0019 -0.0996
62525W        W 5619  13.380  23.003  26.218 -0.2040 -0.5053 -0.2524
62526W        W 5620  12.458  24.539  27.797  0.7277  0.2340 -0.2826
62527W        W 5621  14.475  21.694  24.687 -0.1829 -0.0803 -0.0831
62528W        W 5622  14.849  25.843  24.628  0.2229  0.1363 -0.2505
62529W        W 5623  15.420  24.521  26.663 -0.0367  0.0537 -0.0482
62530W        W 5624  11.323  24.889  24.046  0.0343  0.0870  0.1946
62531W        W 5625  10.779  25.360  26.060  0.0814  0.4532  0.1024
62532W        W 5626  10.762  24.439  25.768  0.0136 -0.0482  0.1916
62533W        W 5627  12.387  23.816  25.993  0.0208 -0.1108  0.1784
62534W        W 5628  10.337  25.963  27.290  0.0532  0.1240 -0.1402
62535W        W 5629  10.060  24.830  24.209 -0.1479 -0.0529 -0.0407
62536W        W 5630  10.832  25.526  27.486  0.0324  0.0873 -0.1110
62537W        W 5631  14.131  22.653  22.818  0.0736  0.0767 -0.0819
62538W        W 5632  12.166  25.979  24.513 -0.1772 -0.1267 -0.0701
62539W        W 5633  14.742  23.462  24.658 -0.0531 -0.1021  0.3065
62540W        W 5634  14.261  23.644  26.346  0.0983 -0.0297 -0.0904
62541W        W 5635  14.396  23.990  22.820  0.0012 -0.1039  0.1061
62542W        W 5636  13.975  23.481  26.929  0.0438  0.0191  0.0739
62543W        W 5637  11.939  23.441  26.122 -0.3148  0.0168  0.0800
62544W        W 5638  13.882  26.414  25.341 -0.0497  0.0782 -0.2726
62545W        W 5639  10.816  24.404  27.054  0.0564  0.0754  0.1811
62546W        W 5640  13.266  25.926  26.521 -0.0933  0.1022 -0.1505
62547W        W 5641  12.816  23.308  26.168  0.2709  0.0175  0.4158
62548W        W 5642  13.973  23.828  25.082  0.1780  0.0925  0.0197
62549W        W 5643  11.601  24.009  25.524 -0.0360  0.2680  0.0494
62550W        W 5644  12.161  25.269  26.393 -0.0864  0.1752  0.0576
62551W        W 5645  15.910  25.158  24.633 -0.0810  0.0032  0.5304
62552W        W 5646  12.871  25.211  24.726  0.2674  0.0275 -0.1646
62553W        W 5647  14.092  24.869  24.482  0.2939  0.2311 -0.0228
62554W        W 5648  11.187  25.386  26.714 -0.0830 -0.1308 -0.1460
62555W        W 5649  12.689  25.357  25.194 -0.0443  0.0546 -0.1457
62556W        W 5650  13.632  25.291  24.500  0.1502  0.0722  0.0881
62557W        W 5651  12.803  24.408  25.316  0.2215  0.1734 -0.1316
62558W        W 5652  11.188  22.932  24.868  0.2414  0.2576  0.0803
62559W        W 5653  14.014  25.887  25.205 -0.0220  0.2102  0.0251
62560W        W 5654  12.239  22.419  24.161 -0.0336  0.1274 -0.1029
62561W        W 5655  11.858  22.452  25.649 -0.3235  0.0650 -0.0113
62562W        W 5656  14.160  23.036  25.325 -0.1221  0.2610  0.1693
62563W        W 5657  12.538  25.341  26.924 -0.0118 -0.0808  0.0119
62564W        W 5658  10.548  24.700  29.197 -0.1471 -0.0866 -0.3840
62565W        W 5659  13.209  27.268  27.001 -0.2757  0.1102 -0.1045
62566W        W 5660  14.745  23.605  23.922  0.2539  0.0701 -0.1555
62567W        W 5661  12.803  23.312  25.042 -0.0988  0.2120 -0.2535
62568W        W 5662  14.740  24.401  26.044  0.3557  0.1998 -0.0004
62569W        W 5663  14.153  25.350  24.702 -0.1207  0.1712 -0.0577
62570W        W 5664  12.394  24.125  24.384  0.2306  0.0469 -0.2506
62571W        W 5665  13.492  23.247  26.624  0.1778  0.0203  0.3674
62572W        W 5666  10.884  23.585  24.405 -0.3195  0.1188 -0.3630
62573W        W 5667  12.571  23.933  26.611  0.1741  0.2312 -0.0157
62574W        W 5668  12.688  24.831  24.429  0.1131 -0.0299 -0.0577
62575W        W 5669  12.963  26.089  24.168  0.2530  0.1709 -0.0698
62576W        W 5670  14.030  23.100  23.285 -0.1258  0.1583  0.0446
62577W        W 5671  11.078  24.310  26.381 -0.0484  0.1734  0.0206
62578W        W 5672  10.798  26.033  27.580 -0.0294  0.0135  0.4695
62579W        W 5673  11.004  22.164  23.344  0.2271 -0.1129 -0.0054
62580W        W 5674  11.658  23.977  23.862 -0.0685  0.1069  0.1801
62581W        W 5675  13.775  24.179  26.288  0.1014  0.1517  0.0351
62582W        W 5676  13.298  23.645  27.556 -0.0276  0.0731  0.0125
62583W        W 5677  12.562  22.810  24.117 -0.1475  0.1204 -0.0714
62584W        W 5678  12.699  22.943  25.717 -0.0142 -0.0580 -0.1835
62585W        W 5679  10.277  25.619  25.297  0.1711  0.3648 -0.2287
62586W        W 5680  12.621  22.566  25.438 -0.2077  0.2666 -0.0291
62587W        W 5681  11.751  26.240  25.938  0.0245 -0.2921 -0.3582
62588W        W 5682  10.602  23.872  27.241  0.0270  0.1709 -0.1080
62589W        W 5683  11.988  24.740  26.206 -0.1194  0.0256 -0.0845
62590W        W 5684  13.239  22.966  26.966 -0.1020  0.3958 -0.1541
62591W        W 5685  14.013  23.163  26.248 -0.1164 -0.2025  0.0009
62592W        W 5686  12.230  25.856  26.006 -0.0242  0.1069  0.1143
62593W        W 5687  14.569  23.722  26.762  0.1262  0.0244  0.1397
62594W        W 5688  12.118  26.406  27.112 -0.1271 -0.0933  0.1331
62595W        W 5689  11.261  25.963  25.917  0.0657  0.0685 -0.0749
62596W        W 5690  12.565  25.468  26.253 -0.1053 -0.1544  0.0991
62597W        W 5691  15.040  24.545  24.911  0.1859  0.0632 -0.1035
62598W        W 5692  13.450  25.116  25.940 -0.0379 -0.1739  0.1200
62599W        W 5693  11.565  22.804  26.403  0.0908  0.0773 -0.1023
62600W        W 5694  13.019  25.244  26.922 -0.1159 -0.0895 -0.1739
62601W        W 5695  13.335  24.115  25.954  0.1851 -0.0776  0.1513
62602W        W 5696  12.039  22.065  24.803  0.1178  0.2273 -0.1156
62603W        W 5697  11.612  24.817  24.487  0.1656  0.2534  0.5329
62604W        W 5698  11.930  26.864  28.285 -0.0280 -0.0473 -0.1336
62605W        W 5699  12.209  24.306  26.129 -0.1743  0.0144  0.0003
62606W        W 5700  10.496  27.566  24.962  0.3052 -0.0078 -0.1170
62607W        W 5701  13.141  24.480  23.249 -0.0985  0.2580  0.0186
62608W        W 5702  12.164  25.645  24.910 -0.0008  0.0375 -0.2554
62609W        W 5703  12.773  27.095  24.289 -0.0552  0.0643  0.0339
62610W        W 5704  12.582  23.308  23.792  0.2483 -0.1646  0.0465
62611W        W 5705  11.723  25.790  26.087 -0.1503  0.2120 -0.0688
62612W        W 5706  10.671  25.125  24.172 -0.0041  0.1647 -0.0635
62613W        W 5707  11.691  26.267  24.171  0.0379 -0.1102  0.2898
62614W        W 5708  12.236  26.372  24.768  0.1625 -0.2622 -0.4161
62615W        W 5709  13.104  24.873  26.623 -0.2694  0.1151  0.1159
62616W        W 5710  14.200  23.832  23.707 -0.2835 -0.2161 -0.1146
62617W        W 5711  14.826  24.114  25.642 -0.2219 -0.2245  0.1035
62618W        W 5712  14.581  22.429  23.605  0.4242 -0.0887  0.1436
62619W        W 5713  11.968  25.377  25.948 -0.1532 -0.2040  0.4053
62620W        W 5714  11.717  23.593  25.082 -0.1979 -0.2125 -0.1016
62621W        W 5715  12.144  22.604  23.318  0.2602  0.0737 -0.1206
62622W        W 5716  12.086  23.929  26.500 -0.1481 -0.0461 -0.3170
62623W        W 5717  13.866  21.979  25.380  0.2017 -0.2707  0.0202
62624W        W 5718  11.720  26.417  28.170 -0.3033 -0.2860 -0.1748
62625W        W 5719  14.132  26.611  23.974  0.0909  0.0940 -0.1200
62626W        W 5720  11.574  24.861  25.436  0.2796  0.3266  0.0523
62627W        W 5721  12.296  24.759  25.218  0.1219  0.0708  0.0355
62628W        W 5722  15.840  21.746  24.068  0.0726  0.1195  0.1135
62629W        W 5723  13.228  23.016  24.403 -0.3105  0.0716 -0.5011
62630W        W 5724  13.562  24.787  24.269 -0.1287  0.1040  0.1603
62631W        W 5725  11.762  26.216  24.660  0.0405 -0.0583 -0.1158
62632W        W 5726  11.969  27.115  27.270 -0.3102 -0.4660  0.1926
62633W        W 5727  11.565  26.865  26.501  0.0701  0.2560 -0.5142
62634W        W 5728  11.655  23.394  25.631  0.0110  0.0070 -0.1434
62635W        W 5729  15.267  24.978  24.527 -0.0392 -0.2063  0.2902
62636W        W 5730  12.798  24.814  27.547 -0.0271  0.0583 -0.0558
62637W        W 5731  12.264  22.723  25.805  0.1208  0.0500  0.1391
62638W        W 5732  11.382  24.071  24.918  0.4306  0.1366 -0.0967
62639W        W 5733  15.051  24.278  24.005  0.3248 -0.0003 -0.3014
62640W        W 5734  12.975  23.598  26.664  0.1741  0.2305 -0.3027
62641W        W 5735  11.847  24.420  26.621  0.1521 -0.0349  0.0554
62642W        W 5736  12.237  24.532  24.635  0.1968  0.0643  0.0941
62643W        W 5737  13.792  25.018  24.892  0.0917 -0.2424 -0.0794
62644W        W 5738  12.893  23.525  23.434  0.1159 -0.3940 -0.1025
62645W        W 5739  12.491  27.115  25.476  0.3668 -0.3220  0.0442
62646W        W 5740  10.624  22.597  26.435 -0.0125  0.2675 -0.1362
62647W        W 5741  14.765  21.922  24.318 -0.0263 -0.1861 -0.2037
62648W        W 5742  11.901  23.991  24.755  0.2768 -0.3505  0.1192
62649W        W 5743  13.058  25.621  26.019 -0.2214  0.0833  0.4612
62650W        W 5744  13.231  24.698  28.260  0.1318 -0.0061 -0.0044
62651W        W 5745  11.338  21.927  24.893  0.0746  0.1483 -0.3243
62652W        W 5746  15.491  24.853  24.945  0.1154  0.1004 -0.0639
62653W        W 5747  13.780  24.772  26.080 -0.1228  0.1727  0.1365
62654W        W 5748   9.681  26.467  25.093  0.2522 -0.1865  0.5374
62655W        W 5749  13.279  25.589  24.656  0.0999 -0.1011 -0.0629
62656W        W 5750  13.016  25.694  25.088 -0.0860 -0.0519 -0.0746
62657W        W 5751  10.162  22.077  25.878  0.1516  0.0471 -0.1798
62658W        W 5752  14.324  24.368  25.585  0.1037  0.1047  0.3303
62659W        W 5753  14.008  24.933  25.568 -0.1914 -0.0970  0.0324
62660W        W 5754  12.550  23.649  24.209  0.0608  0.4218  0.0679
62661W        W 5755  11.250  23.736  25.248 -0.3887 -0.4634  0.0115
62662W        W 5756  11.104  26.989  24.792 -0.0085  0.1109  0.1526
62663W        W 5757  14.994  25.025  25.031 -0.2527 -0.1757  0.1858
62664W        W 5758  11.929  22.966  26.115  0.3026  0.0271  0.0128
62665W        W 5759  12.092  24.487  23.393  0.2431  0.1324  0.0829
62666W        W 5760  12.692  22.071  25.465  0.2095 -0.0846 -0.0933
62667W        W 5761  12.066  25.758  26.443 -0.4901 -0.0925 -0.0363
62668W        W 5762  11.724  24.748  28.026  0.2694  0.3617 -0.0843
62669W        W 5763  11.487  23.788  24.501 -0.0870  0.0669 -0.0162
62670W        W 5764  12.109  25.538  27.857 -0.2058  0.2017 -0.1214
62671W        W 5765  12.191  25.755  25.376  0.0367  0.2792  0.2198
62672W        W 5766  11.122  25.120  25.718 -0.1379 -0.0542  0.0100
62673W        W 5767  14.731  24.915  25.850  0.2731 -0.0445 -0.0225
62674W        W 5768  12.946  23.928  25.259 -0.2112 -0.1371 -0.1523
62675W        W 5769  14.402  25.798  24.836  0.0224  0.1576  0.2572
62676W        W 5770  11.833  23.376  24.552  0.1272  0.1797 -0.0878
62677W        W 5771  13.745  24.480  24.661 -0.0511  0.3477  0.1062
62678W        W 5772  14.003  21.725  24.343 -0.1321 -0.2158 -0.0977
62679W        W 5773  12.526  24.438  25.729  0.2349  0.1531  0.2760
62680W        W 5774  10.414  23.939  24.871 -0.0802  0.0486  0.2731
62681W        W 5775  11.080  24.365  24.328 -0.0785 -0.1051  0.0254
62682W        W 5776  12.652  24.976  25.643  0.5958 -0.0161  0.2968
62683W        W 5777  14.048  21.537  26.255 -0.1095  0.2459  0.0307
62684W        W 5778  11.381  22.793  25.678  0.2003 -0.4676  0.0436
62685W        W 5779  11.148  25.565  24.733  0.2386 -0.1572 -0.2190
62686W        W 5780  12.611  22.613  23.652 -0.0586 -0.0602  0.1309
62687W        W 5781  14.513  25.731  25.364 -0.2098  0.1803  0.2258
62688W        W 5782  12.189  21.953  26.319  0.3052  0.1266  0.3305
62689W        W 5783  10.530  22.566  25.375 -0.0132  0.0066 -0.2095
62690W        W 5784  13.539  26.005  24.414 -0.0811  0.1120  0.0069
62691W        W 5785  13.959  25.709  24.436  0.1660 -0.0822  0.1217
62692W        W 5786  13.849  24.480  25.168 -0.2742 -0.0191  0.0594
62693W        W 5787  13.288  24.397  25.525 -0.2216 -0.1992  0.1737
62694W        W 5788  10.538  24.208  24.110  0.2684 -0.2828 -0.0366
62695W        W 5789  13.542  24.638  27.336  0.1539  0.1406 -0.0702
62696W        W 5790  12.158  24.310  27.043  0.1169  0.0679  0.0978
62697W        W 5791  10.689  22.956  24.875 -0.0022  0.2539  0.0963
62698W        W 5792  12.666  23.495  25.509 -0.2730  0.0200 -0.1286
62699W        W 5793  14.540  25.208  25.020 -0.0751  0.3009 -0.3152
62700W        W 5794  12.259  27.025  24.029  0.1048  0.0686 -0.2981
62701W        W 5795  10.838  25.747  26.392  0.0235 -0.1144 -0.0516
62702W        W 5796  10.961  25.720  27.042  0.0917 -0.2422 -0.1221
62703W        W 5797  11.681  22.577  28.482 -0.2563  0.1156 -0.0218
62704W        W 5798  14.691  25.647  24.107  0.1067 -0.0991  0.0401
62705W        W 5799  12.434  26.756  28.010  0.3609  0.4256  0.0140
62706W        W 5800  14.908  24.705  24.290  0.1016  0.1803  0.0917
62707W        W 5801  13.259  22.556  24.751  0.0997  0.1010 -0.0445
62708W        W 5802  12.577  24.188  24.849 -0.1278  0.3190 -0.1299
62709W        W 5803  11.484  22.286  28.841  0.0210 -0.1688  0.1106
62710W        W 5804  11.333  25.913  27.414 -0.1148  0.0794 -0.0314
62711W        W 5805  14.872  23.878  24.938 -0.1195 -0.1784 -0.0091
62712W        W 5806  11.038  22.399  23.812 -0.0871  0.0708  0.0130
62713W        W 5807  12.924  23.389  24.516  0.1006  0.2293 -0.0121
62714W        W 5808  11.944  24.441  24.208  0.3490 -0.2515 -0.1363
62715W        W 5809  12.477  23.960  25.510 -0.2540  0.0778  0.1364
62716W        W 5810  12.947  23.012  23.552  0.1961  0.0287  0.2228
62717W        W 5811  12.705  24.788  27.006  0.0961 -0.0444 -0.1035
62718W        W 5812  13.832  26.760  24.986 -0.1469 -0.1344 -0.5380
62719W        W 5813  12.493  24.780  26.154 -0.0062  0.4312  0.2632
62720W        W 5814  11.957  25.409  24.010  0.2160  0.0250  0.0360
62721W        W 5815  15.512  23.889  24.289  0.0798  0.3756 -0.0506
62722W        W 5816  11.801  26.209  26.406  0.1112 -0.2129 -0.0092
62723W        W 5817  15.324  25.787  27.492 -0.0796 -0.0661 -0.0449
62724W        W 5818  11.920  25.457  27.378 -0.1280  0.2219 -0.0510
62725W        W 5819  14.267  24.331  24.643  0.2140  0.0502  0.1272
62726W        W 5820  10.828  21.578  25.630  0.4042 -0.1605  0.0302
62727W        W 5821  11.121  24.712  26.003 -0.0457 -0.0167  0.0759
62728W        W 5822  11.903  26.496  25.164  0.1725 -0.0796  0.1709
62729W        W 5823  12.780  24.850  23.857  0.4351 -0.1110  0.1324
62730W        W 5824  11.747  22.858  24.782  0.0681  0.1978 -0.0394
62731W        W 5825  12.548  21.424  23.965 -0.2013  0.1473 -0.0876
62732W        W 5826  13.146  26.677  26.917 -0.1405 -0.1753 -0.4275
62733W        W 5827  11.683  24.515  25.832  0.0010 -0.1287  0.0081
62734W        W 5828  12.076  24.913  31.740  0.1870 -0.2816 -0.2427
62735W        W 5829  12.792  24.831  28.553  0.0597  0.0596  0.0294
62736W        W 5830  13.309  22.313  26.090 -0.2626 -0.2685  0.0171
62737W        W 5831  13.384  22.964  28.338  0.0614  0.2356 -0.0178
62738W        W 5832  12.097  22.570  29.520 -0.0291 -0.1099  0.0374
62739W        W 5833  13.499  25.231  27.355 -0.2645 -0.0754 -0.0898
62740W        W 5834  11.731  21.816  30.722  0.2955 -0.0124 -0.1545
62741W        W 5835  14.736  25.225  29.016  0.0775  0.1951  0.3596
62742W        W 5836  13.083  23.989  29.478 -0.0694  0.2964  0.0327
62743W        W 5837  12.586  23.545  28.212  0.1316  0.1802 -0.0347
62744W        W 5838  11.903  22.840  29.947  0.1713  0.2307 -0.0914
62745W        W 5839  13.328  25.371  30.916  0.0188  0.0634  0.1835
62746W        W 5840  11.987  22.434  26.164  0.0180 -0.0801  0.0969
62747W        W 5841  10.731  22.093  29.339  0.1115  0.0270  0.0583
62748W        W 5842  13.553  23.167  29.291 -0.1352 -0.2379  0.0348
62749W        W 5843  10.907  23.431  27.981 -0.0547 -0.0236  0.1083
62750W        W 5844  12.508  23.543  30.399  0.1423  0.0660 -0.1167
62751W        W 5845  12.908  24.415  26.707  0.2032 -0.0666 -0.0220
62752W        W 5846  12.816  27.526  29.094 -0.0245 -0.1239  0.1031
62753W        W 5847  13.315  22.127  29.978  0.3505 -0.2679  0.4789
62754W        W 5848  13.871  22.091  28.610 -0.1790  0.0664  0.2458
62755W        W 5849  13.294  25.496  29.370  0.0140  0.1217  0.1048
62756W        W 5850  12.024  24.707  27.596  0.0039 -0.0415 -0.1756
62757W        W 5851  13.081  22.441  28.874  0.1596  0.3238 -0.0744
62758W        W 5852  12.851  22.578  29.573 -0.1780  0.0014 -0.1817
62759W        W 5853  12.469  22.550  27.829 -0.4571  0.1679 -0.0364
62760W        W 5854  13.873  23.601  28.091  0.4472  0.2017  0.0767
62761W        W 5855  13.932  25.456  29.624  0.0097 -0.2706 -0.2504
62762W        W 5856  14.040  24.607  28.731  0.1510  0.1246  0.1140
62763W        W 5857  14.357  23.547  31.767  0.1651  0.2848  0.1343
62764W        W 5858  11.713  24.669  30.098  0.3811  0.2520  0.2425
62765W        W 5859  11.196  26.060  30.103 -0.3623 -0.0006  0.1607
62766W        W 5860  10.384  26.327  28.821  0.2602  0.2450 -0.1279
62767W        W 5861  15.436  24.138  28.636  0.1013  0.1484 -0.0711
62768W        W 5862  13.473  25.485  30.384 -0.1555  0.1477 -0.1129
62769W        W 5863  12.910  26.524   0.580  0.1364 -0.1351 -0.2733
62770W        W 5864  10.332  25.089  28.214  0.3953  0.0058 -0.0986
62771W        W 5865  12.118  25.128  31.245  0.0598 -0.0581 -0.1524
62772W        W 5866  13.347  25.743  31.898  0.0460  0.0125  0.1032
62773W        W 5867  12.629  24.790  30.499 -0.3333  0.0764 -0.0372
62774W        W 5868  13.264  22.888  29.573 -0.0094  0.0656 -0.1229
62775W        W 5869  12.927  25.294  27.480 -0.2044 -0.0410 -0.1418
62776W        W 5870  13.420  24.162  28.970  0.2179  0.0880 -0.1483
62777W        W 5871  11.922  23.657  31.701  0.2392 -0.0029  0.3773
62778W        W 5872  11.881  26.839  29.860 -0.2445 -0.2047  0.1107
62779W        W 5873  15.341  21.165  30.576 -0.0332 -0.1096  0.2198
62780W        W 5874  10.549  27.099  28.156 -0.0700  0.2233 -0.0968
62781W        W 5875  12.607  23.595  27.125  0.3318  0.1368 -0.4779
62782W        W 5876  11.563  24.082  26.382  0.1586  0.2221  0.0434
62783W        W 5877  13.237  22.117  27.384 -0.1705 -0.1467  0.1703
62784W        W 5878  12.871  22.628  27.344  0.0421  0.1782  0.1049
62785W        W 5879  11.618  25.882  29.794  0.0056 -0.1237 -0.1953
62786W        W 5880  13.179  24.216  29.933  0.5190  0.0137 -0.1479
62787W        W 5881  14.213  24.307  31.036 -0.1132  0.3827  0.2310
62788W        W 5882  13.114  24.360  28.612  0.1995 -0.1800 -0.0524
62789W        W 5883  13.213  22.869  29.071  0.1012  0.0598  0.1813
62790W        W 5884  12.903  26.143  30.315  0.3963  0.0706  0.0919
62791W        W 5885  13.282  24.873  29.940  0.3530 -0.0606 -0.1483
62792W        W 5886  15.499  25.745  28.764  0.1209 -0.0707 -0.1021
62793W        W 5887  15.107  24.283  29.021 -0.2390 -0.2662  0.0435
62794W        W 5888  13.543  26.358  26.742  0.3090  0.0607  0.1588
62795W        W 5889  12.778  24.545  29.888  0.0799  0.1839  0.1682
62796W        W 5890  10.374  23.462   0.800  0.1737 -0.1055  0.1089
62797W        W 5891  12.841  23.262   0.422 -0.0595 -0.2130  0.3333
62798W        W 5892  12.908  22.770  26.241 -0.2785 -0.0697  0.1628
62799W        W 5893  16.123  25.135  31.358  0.1086  0.0363 -0.1272
62800W        W 5894  10.767  25.554  31.337  0.0245 -0.0477 -0.1939
62801W        W 5895  15.155  23.365  28.576 -0.2564 -0.0029 -0.0250
62802W        W 5896  12.997  24.709  28.987  0.0662  0.0103  0.1625
62803W        W 5897  13.491  24.881  31.007  0.3214  0.1140  0.3994
62804W        W 5898  13.901  24.284  27.492  0.1989  0.2045 -0.0793
62805W        W 5899  14.136  21.079  27.325  0.0351 -0.3427 -0.0638
62806W        W 5900  14.358  21.523  27.366  0.1684  0.1773  0.0550
62807W        W 5901  11.399  22.723  24.397  0.1769 -0.0685 -0.0794
62808W        W 5902  12.729  25.172  28.946  0.0276 -0.1064  0.0270
62809W        W 5903  14.525  24.760  31.138  0.0384  0.3298 -0.1226
62810W        W 5904  14.036  23.415  27.442 -0.2103 -0.0509  0.1546
62811W        W 5905  11.121  25.102  31.360  0.0247 -0.0020 -0.3432
62812W        W 5906  12.032  23.430  30.620 -0.1111 -0.1569 -0.2224
62813W        W 5907  13.672  22.814  30.772  0.0013  0.0899 -0.2034
62814W        W 5908  11.933  26.011  26.872  0.1141  0.0445 -0.0904
62815W        W 5909  12.142  24.628  30.846 -0.2615  0.1110  0.0323
62816W        W 5910  11.597  25.222  28.241  0.0411 -0.1770 -0.0714
62817W        W 5911  12.569  23.628  31.027  0.3166  0.0164 -0.1535
62818W        W 5912  12.545  24.846  31.106  0.0283 -0.2728  0.2648
62819W        W 5913  13.967  21.866  25.822  0.0893 -0.0559  0.3105
62820W        W 5914  12.017  22.047  29.483 -0.1651  0.2394  0.1687
62821W        W 5915  13.763  21.717  27.455  0.2185 -0.0392 -0.3240
62822W        W 5916  13.348  25.695  27.339  0.2348 -0.1171 -0.0578
62823W        W 5917  13.483  24.660  28.749 -0.3045  0.1298 -0.1642
62824W        W 5918  14.643  23.289  27.817  0.1553  0.0744  0.2181
62825W        W 5919  14.669  25.492  27.209 -0.1561 -0.3150 -0.2187
62826W        W 5920  12.893  22.235  30.686 -0.2296 -0.0732  0.0126
62827W        W 5921  12.372  22.269  28.845 -0.0485 -0.0820  0.0085
62828W        W 5922  12.426  21.415  30.920 -0.0577 -0.1911  0.0029
62829W        W 5923  12.330  21.623  28.212 -0.0192  0.0741  0.1604
62830W        W 5924  13.787  24.099  30.870  0.0329 -0.3187  0.0586
62831W        W 5925  12.974  23.742  29.051  0.1060  0.0382 -0.0278
62832W        W 5926  13.981  23.796  29.943  0.2075 -0.0990 -0.0335
62833W        W 5927  12.856  23.473  27.587 -0.0306  0.2324  0.0101
62834W        W 5928  12.304  25.328  29.693 -0.0879 -0.0613  0.0687
62835W        W 5929  14.315  21.563  29.773 -0.1110 -0.2348  0.0595
62836W        W 5930  15.012  25.399  27.620 -0.2127 -0.1426 -0.1743
62837W        W 5931  14.723  25.697  31.533 -0.1256 -0.0095 -0.3243
62838W        W 5932  13.409  25.601  28.503  0.0405 -0.5268 -0.3820
62839W        W 5933  12.660  23.281  28.749 -0.2710 -0.1922 -0.0332
62840W        W 5934  11.319  23.856  28.754 -0.2060 -0.3163  0.2274
62841W        W 5935  10.881  27.730  29.273 -0.0343 -0.0774 -0.3509
62842W        W 5936  13.020  25.321  28.209 -0.2250 -0.1908 -0.0086
62843W        W 5937  11.846  23.285  27.662 -0.0298  0.1380 -0.0203
62844W        W 5938  15.732  25.560  29.611 -0.0046  0.1049 -0.2892
62845W        W 5939  12.061  23.772  29.228  0.0142  0.1292  0.0174
62846W        W 5940  12.520  25.870  31.851 -0.0977 -0.1455 -0.0578
62847W        W 5941  15.183  22.008  28.354  0.4830  0.2047 -0.3671
62848W        W 5942  14.226  23.798  30.964 -0.1471 -0.1487 -0.2059
62849W        W 5943  13.599  23.768  28.562 -0.1799  0.1458  0.1099
62850W        W 5944  12.389  22.773  27.289 -0.2490 -0.2230  0.0741
62851W        W 5945  14.153  25.647  29.173 -0.1577  0.1014 -0.0318
62852W        W 5946  11.246  26.031  27.921 -0.2846  0.1200  0.0317
62853W        W 5947  12.389  23.296  29.188 -0.2184 -0.0626  0.0574
62854W        W 5948  11.766  26.583  29.348  0.3135  0.1641 -0.0241
62855W        W 5949  13.295  23.256  28.715  0.3287 -0.1125  0.0375
62856W        W 5950  10.372  24.508  31.380  0.0851 -0.1875  0.1193
62857W        W 5951  13.864  23.583  31.278  0.0530  0.1588 -0.1197
62858W        W 5952  12.524  24.046  28.008 -0.0381  0.1620  0.0177
62859W        W 5953  12.596  26.579  30.345 -0.1244  0.2401  0.0668
62860W        W 5954  12.532  22.160  27.456 -0.1574  0.1375  0.0177
62861W        W 5955  14.332  22.655  26.487  0.0022  0.0986 -0.0002
62862W        W 5956  12.761  23.862  30.662 -0.0714 -0.0392  0.0866
62863W        W 5957  13.780  24.272  28.385 -0.0876  0.1002  0.3171
62864W        W 5958  11.868  23.146  26.572  0.1932 -0.1194 -0.2880
62865W        W 5959  12.690  22.651  26.785 -0.0498 -0.0035  0.2061
62866W        W 5960  11.762  24.429  30.547  0.1394  0.0132  0.1213
62867W        W 5961  13.579  24.266  29.587 -0.1829  0.0513  0.0777
62868W        W 5962  12.948  25.843  29.563  0.0420 -0.2169 -0.1965
62869W        W 5963  13.026  23.942  27.051  0.1500 -0.3328  0.1341
62870W        W 5964  15.598  25.934  27.009  0.0387  0.1669 -0.2866
62871W        W 5965  10.951  25.632  30.000  0.0096  0.1692  0.0901
62872W        W 5966  13.317  24.395  30.823 -0.4088 -0.0435 -0.3244
62873W        W 5967  13.607  25.717  29.858 -0.3126  0.3624 -0.0582
62874W        W 5968  12.631  21.619  29.283  0.0230  0.1510 -0.1963
62875W        W 5969  13.331  23.547  26.239 -0.2300  0.0740 -0.1550
62876W        W 5970  14.235  20.913  28.164 -0.1936  0.1023 -0.3770
62877W        W 5971  10.994  27.514  27.825 -0.1121 -0.1333 -0.0574
62878W        W 5972  13.672  22.229  27.649  0.2018 -0.0093  0.0207
62879W        W 5973  13.040  23.293  28.079 -0.2399  0.0741 -0.0656
62880W        W 5974  12.792  21.678  30.048  0.2181  0.0481  0.0571
62881W        W 5975  13.837  22.357  30.809 -0.0203 -0.1765 -0.2189
62882W        W 5976  14.864  22.939  27.353 -0.0515 -0.0676 -0.0607
62883W        W 5977  12.927  23.778  30.185  0.0785  0.0134  0.0775
62884W        W 5978  11.576  22.777  27.629 -0.3062 -0.0226  0.1839
62885W        W 5979  12.219  22.201  29.969 -0.1124  0.0404  0.2644
62886W        W 5980  13.016  25.232  30.350 -0.0673  0.0099  0.2358
62887W        W 5981  12.427  25.213  30.220 -0.0552 -0.0591 -0.2491
62888W        W 5982  13.596  24.482  31.284  0.0971 -0.2106  0.0681
62889W        W 5983  12.997  24.322  27.738 -0.3274 -0.1246  0.2076
62890W        W 5984  14.095  23.022  29.673  0.1420 -0.1473  0.1734
62891W        W 5985  12.312  23.063  26.825 -0.0643 -0.1622 -0.2274
62892W        W 5986  12.031  26.200  29.077  0.1128  0.0196  0.2024
62893W        W 5987  13.415  25.503  26.812  0.0611  0.2255 -0.1656
62894W        W 5988  12.676  22.853  29.177 -0.0595 -0.2677 -0.2898
62895W        W 5989  14.105  26.053  30.199 -0.1296 -0.0354  0.1066
62896W        W 5990  13.179  26.225  27.183 -0.1603 -0.1052  0.0619
62897W        W 5991  13.259  24.034  30.508  0.0698 -0.1067 -0.0267
62898W        W 5992  10.834  25.477  29.504  0.0354  0.2371  0.1124
62899W        W 5993  14.167  22.034  27.367 -0.3116  0.2648  0.1242
62900W        W 5994  11.727  25.491  30.659 -0.2957  0.0976 -0.0148
62901W        W 5995  12.683  23.963  27.459 -0.4430  0.2123 -0.6623
62902W        W 5996  11.388  23.367  27.843 -0.0305 -0.1302 -0.1027
62903W        W 5997  14.433  21.940  26.967  0.3347  0.0377 -0.1495
62904W        W 5998  15.047  25.561  28.759 -0.0378  0.0387 -0.1971
62905W        W 5999  12.322  21.541  30.234 -0.0751 -0.0456 -0.2759
62906W        W 6000  12.822  21.489  27.804  0.2001 -0.2198 -0.0255
62907W        W 6001  12.497  25.982  31.252 -0.0006 -0.2416 -0.2778
62908W        W 6002  13.056  23.280  29.218  0.0985  0.3256 -0.2939
62909W        W 6003  12.372  23.517  26.417  0.0580  0.1073  0.2709
62910W        W 6004  13.159  25.370  29.797 -0.0375  0.4520 -0.2134
62911W        W 6005  13.090  22.912   0.154  0.1759  0.0710 -0.3483
62912W        W 6006  12.200  24.859  29.173 -0.1964 -0.0683 -0.0399
62913W        W 6007  14.585  21.749  28.093 -0.2224 -0.3022  0.0252
62914W        W 6008  13.063  23.635  28.441 -0.2324  0.0721  0.0598
62915W        W 6009  11.473  25.407  29.189  0.1135  0.3417  0.0851
62916W        W 6010  13.898  25.074  29.219 -0.1730  0.1026  0.1258
62917W        W 6011  12.825  24.412  28.175  0.1512 -0.0596 -0.2233
62918W        W 6012  12.473  25.901  28.195 -0.1048  0.2043  0.0895
62919W        W 6013  13.146  21.755  29.731  0.2660 -0.1655  0.2175
62920W        W 6014  14.607  23.944  30.537 -0.1500 -0.0450  0.1806
62921W        W 6015  13.662  22.900  28.839 -0.1906 -0.0130  0.3815
62922W        W 6016  12.196  22.650  28.224 -0.1321  0.1335  0.0591
62923W        W 6017  13.183  22.435  26.976 -0.0883  0.0288  0.1362
62924W        W 6018  13.618  24.407  30.456 -0.0361  0.3199 -0.1742
62925W        W 6019  13.764  23.748  30.437 -0.1206 -0.3948  0.0436
62926W        W 6020  12.542  26.459  31.179  0.2603  0.0207  0.0622
62927W        W 6021  12.836  21.792  27.347 -0.0523 -0.0841 -0.0138
62928W        W 6022  15.124  25.875  28.309 -0.0301  0.2610  0.0750
62929W        W 6023  13.623  24.115  30.070  0.0556  0.1706 -0.2379
62930W        W 6024  12.471  24.580  28.847 -0.1958 -0.0162  0.0308
62931W        W 6025  11.309  24.534  31.491 -0.0245  0.0993  0.0742
62932W        W 6026  12.856  25.754  28.554 -0.0418 -0.0003 -0.1136
62933W        W 6027  12.584  21.282  27.324 -0.1031  0.1541 -0.0459
62934W        W 6028  10.793  25.358  30.439  0.0887  0.2732 -0.2251
62935W        W 6029  12.236  24.963  28.575  0.0332  0.2163 -0.0192
62936W        W 6030  10.844  24.712  30.572 -0.0606  0.1840 -0.0445
62937W        W 6031  13.474  21.723  25.179  0.0340 -0.1383 -0.0702
62938W        W 6032  14.056  24.811  27.486 -0.0718 -0.0210 -0.1075
62939W        W 6033  12.608  23.046  28.212 -0.0151 -0.0531 -0.0723
62940W        W 6034  14.770  21.536  29.708  0.1380 -0.0252  0.0049
62941W        W 6035  13.103  23.480  27.129 -0.1136 -0.0926 -0.0143
62942W        W 6036  13.644  21.243  29.426  0.0049 -0.0259  0.2592
62943W        W 6037  11.598  23.684  30.480 -0.0329  0.1396  0.0905
62944W        W 6038  14.140  23.539  28.479 -0.1060 -0.1600  0.1493
62945W        W 6039  10.979  23.514  29.748  0.2367  0.0880  0.0058
62946W        W 6040  11.728  24.703   0.066  0.1016 -0.2766 -0.3397
62947W        W 6041  11.769  24.672   0.553  0.1745 -0.0678  0.2035
62948W        W 6042  15.041  23.873  28.551 -0.0417  0.1341  0.1968
62949W        W 6043  12.766  21.947  27.922 -0.0726 -0.1032  0.1981
62950W        W 6044  12.302  23.889  30.099  0.0088 -0.2552  0.1374
62951W        W 6045  14.409  23.931  29.550 -0.0596 -0.0757 -0.2317
62952W        W 6046  13.182  25.104  28.646 -0.0306 -0.1790 -0.0174
62953W        W 6047  14.213  21.751  27.785  0.1270 -0.0067  0.0839
62954W        W 6048  11.697  24.448  31.081  0.0792 -0.0009 -0.0566
62955W        W 6049  12.123  22.893  27.820 -0.0756 -0.4112 -0.3461
62956W        W 6050  13.461  23.749  26.842  0.0995 -0.0381 -0.1974
62957W        W 6051  12.745  25.413  29.382  0.0186  0.0209  0.1105
62958W        W 6052  12.844  22.317  31.161 -0.3782 -0.2401 -0.0723
62959W        W 6053  14.156  24.331  29.955 -0.1427 -0.0466  0.2895
62960W        W 6054  13.457  21.546  26.699 -0.1620 -0.3173  0.0316
62961W        W 6055  13.361  22.599  27.436  0.3155 -0.2587  0.1798
62962W        W 6056  13.999  23.457  28.900  0.2406  0.3554 -0.2325
62963W        W 6057  11.844  22.438  30.266 -0.2798 -0.1244 -0.2373
62964W        W 6058  12.467  23.196  30.762  0.0536  0.1422  0.0313
62965W        W 6059  14.697  24.375  30.861  0.1512 -0.1290  0.0155
62966W        W 6060  13.760  21.528  25.523 -0.3112  0.2577  0.0870
62967W        W 6061  13.455  23.599  29.596  0.2178  0.0478  0.1551
62968W        W 6062  13.625  23.255  27.115 -0.1266  0.0280 -0.0113
62969W        W 6063  13.053  24.454  27.188 -0.0178  0.0401 -0.1687
62970W        W 6064  12.757  21.172  29.073  0.1996 -0.0105 -0.0408
62971W        W 6065  15.010  22.571  29.403  0.2250 -0.2455 -0.2059
62972W        W 6066  13.393  22.024  26.818  0.0727 -0.0564 -0.0273
62973W        W 6067  13.268  21.976  27.997  0.2366 -0.0648  0.1556
62974W        W 6068  13.293  25.494  27.858  0.1910  0.1121  0.0733
62975W        W 6069  13.041  26.356  29.280 -0.0741 -0.1143  0.1486
62976W        W 6070  13.288  22.630  26.539  0.1305  0.0641  0.2757
62977W        W 6071  10.681  23.147  28.443 -0.0824 -0.3111 -0.0081
62978W        W 6072  11.749  26.477  30.717 -0.0424 -0.0912  0.1631
62979W        W 6073  11.216  24.796  27.209  0.0714 -0.0020  0.2958
62980W        W 6074  11.935  24.572  28.472 -0.1736 -0.1802  0.2827
62981W        W 6075  13.096  25.019  29.369  0.0214 -0.0340 -0.0127
62982W        W 6076  15.031  23.653  30.679  0.0302 -0.0711  0.1363
62983W        W 6077  12.912  22.290  26.490 -0.1508  0.1948  0.2669
62984W        W 6078  15.388  22.524  28.916 -0.2134  0.1898 -0.0260
62985W        W 6079  12.432  25.778  29.456  0.0233  0.3443  0.1192
62986W        W 6080  14.079  22.630  28.895  0.0212 -0.0658 -0.1523
62987W        W 6081  12.719  25.040  29.896 -0.0780 -0.2159  0.0175
62988W        W 6082  10.740  23.377  30.762 -0.3392  0.0033 -0.4726
62989W        W 6083  13.275  26.056  28.969 -0.0137  0.0623  0.1800
62990W        W 6084  13.135  21.138  29.454  0.2311  0.3080  0.0028
62991W        W 6085  13.564  22.320  28.995  0.2834 -0.1474 -0.1278
62992W        W 6086  11.436  23.186  29.828  0.1609 -0.2592 -0.4033
62993W        W 6087  15.697  23.062  31.163 -0.0276  0.1183  0.3935
62994W        W 6088  12.823  23.579  29.589  0.1164 -0.2012 -0.4941
62995W        W 6089  12.122  24.966  29.913  0.2572  0.0825 -0.1208
62996W        W 6090  14.159  25.777  31.499  0.0172 -0.1118  0.1643
62997W        W 6091  14.186  22.940  28.502  0.0979 -0.1469  0.1990
62998W        W 6092  12.376  24.366  29.322  0.2242  0.1412  0.0871
62999W        W 6093  11.873  23.550  30.028 -0.1357  0.0838 -0.1673
63000W        W 6094  13.013  23.199  31.459 -0.6400  0.3828  0.2402
63001W        W 6095  13.434  23.595  29.055  0.0257 -0.1821  0.2304
63002W        W 6096  13.195  23.083  27.474  0.1147 -0.0644 -0.1081
63003W        W 6097  13.444  25.990  27.810 -0.1538 -0.0190  0.0350
63004W        W 6098  10.925  25.248   0.127  0.0195  0.1543 -0.1609
63005W        W 6099  10.790  24.292  30.265 -0.2810 -0.1252  0.2913
63006W        W 6100  12.194  24.902  28.069 -0.0195 -0.1319  0.2956
63007W        W 6101  14.654  24.306  28.724  0.0168  0.1381  0.0070
63008W        W 6102  13.830  24.070  27.953  0.0419 -0.2014  0.1648
63009W        W 6103  14.150  26.848  30.034 -0.0352 -0.0904 -0.2037
63010W        W 6104  11.583  23.366  28.474  0.1361  0.0659  0.0834
63011W        W 6105  12.122  26.777  29.054  0.0857  0.2633 -0.2681
63012W        W 6106  11.625  25.667  27.753 -0.1004 -0.2433  0.0195
63013W        W 6107  14.571  24.707  28.467 -0.1710  0.0415 -0.0486
63014W        W 6108  11.887  26.006  28.018 -0.0983  0.0058 -0.2724
63015W        W 6109  14.230  24.159  28.393 -0.0077  0.0249 -0.3674
63016W        W 6110  14.837  22.241  25.577 -0.1072  0.1934 -0.1363
63017W        W 6111  15.568  23.572  28.705 -0.0916  0.1224  0.1192
63018W        W 6112  14.897  22.864  26.510 -0.1760 -0.0747  0.1361
63019W        W 6113  13.529  25.077   0.593 -0.0338 -0.1753 -0.1127
63020W        W 6114  12.038  24.089  29.673 -0.2234  0.1127 -0.1224
63021W        W 6115  12.622  23.032  27.699 -0.0175  0.1135 -0.1651
63022W        W 6116  13.113  24.576  30.404 -0.2574 -0.1880  0.0720
63023W        W 6117  14.593  21.964  28.539  0.1626  0.0557 -0.2889
63024W        W 6118  11.425  26.358  29.765  0.0623  0.0207  0.0069
63025W        W 6119  15.434  24.676  28.734  0.1579 -0.0172  0.0362
63026W        W 6120  11.889  22.958  27.203 -0.1621  0.2203  0.2786
63027W        W 6121  12.249  22.879  28.869  0.0090  0.2408 -0.1338
63028W        W 6122  13.968  22.537  27.942 -0.1273  0.2102 -0.0465
63029W        W 6123  11.652  25.362  26.424 -0.1008 -0.0642 -0.2268
63030W        W 6124  13.026  22.836  27.900  0.1682  0.1433  0.0961
63031W        W 6125  13.626  25.624  29.017  0.1050 -0.1376  0.0548
63032W        W 6126  13.127  25.767  30.087  0.3356 -0.1800  0.0571
63033W        W 6127  13.646  26.891  30.009 -0.0249  0.1849 -0.2137
63034W        W 6128  12.136  23.798  27.275 -0.1728 -0.1977 -0.2118
63035W        W 6129  13.811  22.613  28.473 -0.0474  0.0060  0.0320
63036W        W 6130  12.298  24.255  30.503  0.0625  0.1911  0.1060
63037W        W 6131  13.311  20.999  28.378  0.1646  0.2100 -0.0855
63038W        W 6132  12.465  23.698  28.838  0.0482  0.0200  0.1491
63039W        W 6133  12.935  23.830  27.958  0.1921  0.1084  0.3227
63040W        W 6134  13.037  24.831  30.805  0.2183 -0.4301  0.1137
63041W        W 6135  12.749  24.261  30.313 -0.0258  0.1445 -0.0163
63042W        W 6136  12.223  23.706  25.096 -0.2993 -0.0216  0.1477
63043W        W 6137  14.255  24.200  29.067  0.4070 -0.3714  0.3168
63044W        W 6138  12.049  24.273  25.661 -0.1063  0.0728 -0.2033
63045W        W 6139  13.113  25.988  31.463 -0.0962 -0.0604  0.2086
63046W        W 6140  12.138  22.071  27.926 -0.1529  0.1135  0.1866
63047W        W 6141  12.289  23.309  27.383  0.0777 -0.1888  0.1488
63048W        W 6142  11.687  23.539  29.529  0.1779  0.0840 -0.0634
63049W        W 6143  13.148  24.503  29.549 -0.3238 -0.1064 -0.1120
63050W        W 6144  14.462  24.718  30.616  0.2182  0.3938  0.0019
63051W        W 6145  11.858  22.527  29.068  0.2668  0.0686 -0.2709
63052W        W 6146  16.625  25.305  28.049  0.1939 -0.0133 -0.2318
63053W        W 6147  14.897  24.326  30.359  0.1251  0.2675 -0.1219
63054W        W 6148  14.009  26.328  26.597 -0.1868  0.1298 -0.2427
63055W        W 6149  14.644  24.326  29.800  0.0817  0.0320 -0.4026
63056W        W 6150  14.221  25.355  28.294  0.0808  0.1054  0.2245
63057W        W 6151  10.829  23.861  30.066 -0.1677  0.3749 -0.2206
63058W        W 6152  14.241  25.693  30.602  0.3202 -0.3531  0.1590
63059W        W 6153  14.023  24.989  30.338 -0.0562 -0.1208 -0.2961
63060W        W 6154  13.285  20.984  26.999 -0.0496  0.2038 -0.0117
63061W        W 6155  13.692  22.787  30.289 -0.1942  0.0243 -0.0074
63062W        W 6156  13.099  25.483  28.932  0.0187  0.0094  0.0261
63063W        W 6157  13.684  22.703  27.029  0.0256 -0.2194 -0.0013
63064W        W 6158  13.745  22.675  29.308 -0.2701 -0.2774  0.1805
63065W        W 6159  12.381  25.976  27.742  0.3025  0.0137  0.0428
63066W        W 6160  12.928  22.493  30.186  0.2610 -0.3433  0.3406
63067W        W 6161  13.820  25.449  30.736  0.0252  0.0765 -0.0634
63068W        W 6162  11.295  24.595  30.522 -0.3741 -0.1048  0.1508
63069W        W 6163  11.793  25.145  29.553 -0.0804  0.0620  0.0590
63070W        W 6164  12.190  25.179  30.738 -0.0911 -0.3737 -0.0600
63071W        W 6165  12.579  24.762  29.498  0.1921 -0.0302 -0.0591
63072W        W 6166  13.530  25.968  29.443  0.2243  0.0737 -0.1708
63073W        W 6167  14.484  25.216  30.423  0.0860  0.2278 -0.3206
63074W        W 6168  11.963  23.030  28.463 -0.3498 -0.0695  0.0625
63075W        W 6169  13.793  23.239  28.481 -0.1249 -0.1647  0.1099
63076W        W 6170  12.195  23.079  29.595 -0.1788  0.2055 -0.3061
63077W        W 6171  14.366  22.813  24.865 -0.2899 -0.1778  0.0037
63078W        W 6172  13.734  21.974  26.203 -0.0966  0.1043  0.1779
63079W        W 6173  11.911  24.400  29.125 -0.1847  0.2952 -0.0275
63080W        W 6174  11.495  24.601  27.572 -0.4534 -0.0706 -0.0561
63081W        W 6175  11.870  25.966  27.393  0.0433 -0.0168 -0.0072
63082W        W 6176  12.053  25.459  28.324  0.4446 -0.2452  0.1817
63083W        W 6177  12.985  20.006  29.693 -0.0484 -0.0398  0.0348
63084W        W 6178  10.124  22.290  29.922 -0.1531 -0.0733  0.0055
63085W        W 6179  10.704  24.851  28.448 -0.2409  0.0598  0.0274
63086W        W 6180  12.101  23.303  28.114  0.0353  0.0743 -0.1498
63087W        W 6181  14.319  24.560  27.118  0.2201  0.1961 -0.0064
63088W        W 6182  12.387  21.737  29.734  0.1342  0.0684 -0.2756
63089W        W 6183  12.091  21.520  29.162  0.3087 -0.2094  0.0185
63090W        W 6184  12.272  23.659  27.818  0.0717  0.1141 -0.2052
63091W        W 6185  14.229  25.243  28.863 -0.0211 -0.0075  0.2426
63092W        W 6186  12.253  24.133  28.880 -0.2468 -0.1811  0.0148
63093W        W 6187  15.467  25.848  31.271  0.0004 -0.0553 -0.0143
63094W        W 6188  11.859  25.236  28.911  0.1265 -0.4620  0.2103
63095W        W 6189  12.261  24.440  29.975  0.0808  0.0312  0.0527
63096W        W 6190  14.568  21.169  29.954  0.0338  0.1126  0.1941
63097W        W 6191  11.636  23.974  27.470  0.1352 -0.0656  0.0778
63098W        W 6192  12.552  23.855  29.295 -0.1831  0.1647  0.0741
63099W        W 6193  15.186  23.924  30.133  0.1082 -0.0723 -0.0246
63100W        W 6194  14.854  24.660  27.889 -0.1939 -0.1441  0.2074
63101W        W 6195  13.930  24.716  30.780  0.0381 -0.2624 -0.0135
63102W        W 6196  11.878  24.049  30.156 -0.0089  0.1776  0.1529
63103W        W 6197  13.129  20.601  29.076 -0.2269 -0.2563  0.0225
63104W        W 6198  13.488  23.240  27.883 -0.3692  0.0107 -0.1609
63105W        W 6199  12.304  23.364  31.699  0.0898 -0.3467  0.4425
63106W        W 6200  15.242  26.229  28.620 -0.0246  0.0855 -0.1228
63107W        W 6201  13.762  22.985  27.528  0.0853  0.2501 -0.1074
63108W        W 6202  14.042  23.104  27.985 -0.0994  0.0834 -0.1619
63109W        W 6203  11.816  23.020  30.858  0.0789 -0.2084 -0.1131
63110W        W 6204  13.282  25.936  30.575  0.1821 -0.0443 -0.0044
63111W        W 6205  13.184  23.163  30.005  0.2198 -0.2246 -0.1443
63112W        W 6206  11.218  21.496  27.938 -0.0198 -0.1986 -0.0959
63113W        W 6207  12.962  22.349  27.733 -0.1343  0.0252 -0.1963
63114W        W 6208  13.291  24.217  28.177  0.2332  0.1061 -0.2950
63115W        W 6209  12.774  22.131  29.815  0.0254  0.0471  0.1569
63116W        W 6210  12.750  23.109  27.170  0.1005 -0.3817  0.0324
63117W        W 6211  14.040  22.250  29.397 -0.0615  0.0887 -0.2878
63118W        W 6212  13.699  25.227  29.981  0.2188 -0.0944 -0.0927
63119W        W 6213  13.733  25.408  31.258  0.1060 -0.2354  0.1018
63120W        W 6214  12.438  21.693  27.058 -0.0256 -0.0595 -0.0064
63121W        W 6215  15.317  24.446  27.785 -0.0421  0.0013  0.3413
63122W        W 6216  14.586  25.258  29.957  0.1905 -0.2432  0.0774
63123W        W 6217  14.752  25.588  30.579  0.0909 -0.0292 -0.4420
63124W        W 6218  13.673  25.156  28.790 -0.0582 -0.1074 -0.2068
63125W        W 6219  14.221  24.464  31.531 -0.1003 -0.0643  0.0714
63126W        W 6220  12.317  20.671  28.645  0.2040 -0.0911  0.0649
63127W        W 6221  12.237  25.367  29.220 -0.1445 -0.1662 -0.1891
63128W        W 6222  13.388  23.702  28.022  0.2850  0.1779  0.0485
63129W        W 6223  13.418  23.614  30.101 -0.2630 -0.3840  0.0280
63130W        W 6224  12.816  24.240  29.068 -0.0612  0.1934 -0.0173
63131W        W 6225  13.278  21.865  26.294  0.2894 -0.3728  0.0134
63132W        W 6226  11.677  25.972  30.364  0.0319 -0.1516  0.0964
63133W        W 6227  13.658  24.802  29.556 -0.0574 -0.1864 -0.0155
63134W        W 6228  13.762  22.669  29.799 -0.2394  0.3763 -0.0138
63135W        W 6229  12.135  21.745  31.124  0.0310  0.3344 -0.1698
63136W        W 6230  12.789  21.981  28.931  0.0047  0.0019  0.0123
63137W        W 6231  11.248  24.961   0.357 -0.0642  0.1162 -0.1078
63138W        W 6232  12.541  25.356   0.090  0.1357 -0.1721  0.2686
63139W        W 6233  14.098  24.210   0.877 -0.0515  0.1575 -0.1373
63140W        W 6234  14.487  23.437  30.765 -0.3328  0.3213  0.2610
63141W        W 6235  13.994  21.139  30.805  0.4588  0.2051 -0.1234
63142W        W 6236  13.579  22.621  31.203  0.2319 -0.3091  0.0454
63143W        W 6237  13.403  23.505  31.537 -0.0360  0.0530  0.1764
63144W        W 6238  13.413  26.228   0.870 -0.1562 -0.0942  0.0277
63145W        W 6239  13.124  21.516  30.866 -0.0221  0.1604  0.0611
63146W        W 6240  13.543  23.638  30.876 -0.0739 -0.0233 -0.0605
63147W        W 6241  11.677  23.145  30.335 -0.0381 -0.0077 -0.1062
63148W        W 6242  14.836  23.376  31.323 -0.0401  0.1625 -0.0205
63149W        W 6243  12.374  25.546  30.994  0.1598 -0.2062 -0.0456
63150W        W 6244  11.676  24.893  31.348 -0.0527  0.2071  0.2333
63151W        W 6245  14.604  24.748  31.650 -0.0231 -0.2818 -0.5221
63152W        W 6246  11.287  20.675  30.829 -0.1497  0.0455 -0.0159
63153W        W 6247  12.756  24.408  30.824  0.0062  0.1729 -0.1251
63154W        W 6248  10.675  22.608  31.602 -0.0641  0.2006  0.0149
63155W        W 6249  11.184  24.853  31.823 -0.0154 -0.0952 -0.0154
63156W        W 6250  14.257  22.084  28.919 -0.3956 -0.1419 -0.2230
63157W        W 6251  13.642  23.176  29.829 -0.1443 -0.0681 -0.1876
63158W        W 6252  13.576  21.955  29.435  0.4375 -0.0189 -0.2927
63159W        W 6253  12.785  23.101  29.569 -0.0065  0.0833 -0.0889
63160W        W 6254  13.166  23.529  30.519  0.2630  0.2751 -0.0889
63161W        W 6255   9.224  26.621   0.801 -0.2676  0.0156  0.1940
63162W        W 6256  12.658  24.069  29.792  0.1651  0.1155  0.3550
63163W        W 6257  12.456  22.653  29.901  0.0603  0.0870 -0.4529
63164W        W 6258  12.557  24.851   0.001 -0.2149  0.1428 -0.1157
63165W        W 6259  13.121  24.876   0.225  0.0208 -0.1650 -0.0107
63166W        W 6260  14.917  24.407   0.013 -0.2749 -0.1284 -0.1016
63167W        W 6261  13.984  23.300  30.860 -0.3827 -0.3956 -0.1827
63168W        W 6262  11.640  22.287  29.854  0.0198 -0.0841 -0.3273
63169W        W 6263  10.437  22.995   1.078 -0.5208 -0.1127 -0.1221
63170W        W 6264  13.202  24.320  31.636  0.1262  0.0018 -0.0533
63171W        W 6265  14.292  23.381  31.253  0.3569  0.1265  0.1274
63172W        W 6266  14.496  24.115  31.921 -0.0874 -0.1798  0.3673
63173W        W 6267  13.515  23.176  31.148 -0.3605 -0.1158  0.1053
63174W        W 6268  15.321  21.701  29.814  0.4709 -0.0560  0.1298
63175W        W 6269  13.499  22.925  31.581 -0.0488 -0.0162 -0.0247
63176W        W 6270  13.170  23.011   0.772 -0.1198 -0.2030 -0.2030
63177W        W 6271  12.584  26.205   1.543 -0.2960  0.1249  0.1584
63178W        W 6272  11.533  22.414   0.101 -0.0029 -0.1767  0.0719
63179W        W 6273  12.641  24.517   0.524 -0.3542 -0.0172  0.3831
63180W        W 6274  12.607  20.757  31.159 -0.1149 -0.0099 -0.0013
63181W        W 6275  12.989  25.122  31.186  0.1721 -0.2285 -0.3764
63182W        W 6276  13.022  24.576  31.263 -0.1115 -0.3131 -0.1017
63183W        W 6277  11.191  26.737  30.628 -0.3641 -0.0421 -0.1160
63184W        W 6278  13.659  24.575   0.370  0.3266  0.2242  0.2033
63185W        W 6279  15.023  21.772  31.198  0.1060 -0.2241  0.1352
63186W        W 6280  13.134  21.900  30.382  0.1179  0.3926  0.3481
63187W        W 6281  13.382  23.925  31.797 -0.2485  0.4055 -0.0013
63188W        W 6282  13.048  22.901  30.515  0.0985 -0.0199 -0.0877
63189W        W 6283  13.308  22.644  29.965 -0.0317 -0.0141  0.0143
63190W        W 6284  14.606  24.241   0.440 -0.1573 -0.1835 -0.0833
63191W        W 6285  12.744  26.006   0.604  0.1764  0.1163  0.1200
63192W        W 6286  13.010  25.148   0.931  0.1587 -0.1676  0.1232
63193W        W 6287  11.071  23.627  31.735 -0.1124 -0.0448  0.3251
63194W        W 6288  12.699  21.868  31.096  0.1245  0.1009  0.2011
63195W        W 6289  12.555  24.527  31.567  0.0303  0.2031  0.4244
63196W        W 6290  12.244  25.491  31.575 -0.0079 -0.3005 -0.0366
63197W        W 6291  10.209  20.482   0.675  0.3795  0.2162  0.2535
63198W        W 6292  13.419  24.926  31.525  0.0088 -0.1433 -0.0470
63199W        W 6293  14.734  25.151  30.887 -0.0407 -0.0157 -0.3266
63200W        W 6294  14.976  22.613  30.923  0.0777 -0.0597  0.3258
63201W        W 6295  11.707  28.589  19.749  0.2563 -0.0664 -0.1924
63202W        W 6296  11.906  27.671  16.444 -0.1665 -0.2611 -0.0095
63203W        W 6297  12.751  25.868  15.505  0.1160  0.2962 -0.0841
63204W        W 6298  13.840  27.726  17.674  0.2675 -0.1119  0.0487
63205W        W 6299  10.584  26.737  17.758  0.2119  0.2071 -0.0483
63206W        W 6300  13.088  29.401  17.410  0.0869 -0.2307 -0.1952
63207W        W 6301  11.908  25.645  19.775 -0.0673  0.3372 -0.0517
63208W        W 6302  13.163  28.535  17.471 -0.0901 -0.1322 -0.1708
63209W        W 6303  14.883  26.949  18.585  0.1292  0.1364  0.0753
63210W        W 6304  13.663  27.128  16.529  0.2297  0.2488 -0.0010
63211W        W 6305  12.259  26.375  18.626  0.4995  0.1070 -0.0207
63212W        W 6306  11.366  29.279  17.985 -0.0737  0.0517  0.1887
63213W        W 6307  11.739  25.969  16.952 -0.2265 -0.0215 -0.0404
63214W        W 6308  10.793  24.604  17.376  0.0119  0.1118 -0.1078
63215W        W 6309  15.895  28.227  20.166  0.0375 -0.1257 -0.1604
63216W        W 6310  11.057  28.566  16.227 -0.2519 -0.2440  0.3298
63217W        W 6311  10.364  27.075  17.343  0.2785 -0.1562  0.4214
63218W        W 6312  12.149  26.282  16.946 -0.2668  0.2614 -0.1571
63219W        W 6313  12.668  29.311  16.270 -0.1078 -0.0598 -0.0651
63220W        W 6314  11.415  25.538  19.604  0.2515 -0.1352 -0.0981
63221W        W 6315  12.740  25.989  20.254  0.1138 -0.2377  0.0503
63222W        W 6316  12.285  27.939  16.186 -0.3053 -0.2941  0.0911
63223W        W 6317  11.803  26.825  15.951  0.1333 -0.1889 -0.0773
63224W        W 6318  11.974  27.370  16.918 -0.0650  0.3814  0.0332
63225W        W 6319  11.585  28.739  18.309 -0.0830  0.1476 -0.1636
63226W        W 6320  15.305  26.074  16.748  0.5062 -0.0294  0.3291
63227W        W 6321  14.352  28.149  18.895  0.0375  0.3095  0.1349
63228W        W 6322  12.057  28.240  17.487 -0.1107  0.3590 -0.0851
63229W        W 6323  12.815  28.436  19.206 -0.1902 -0.0727 -0.2462
63230W        W 6324  13.547  26.486  18.703  0.0254 -0.2711 -0.1176
63231W        W 6325  11.246  28.809  17.747  0.3468 -0.0603 -0.2266
63232W        W 6326  11.021  29.971  16.279  0.1243 -0.0269 -0.1315
63233W        W 6327  11.684  28.871  16.994  0.0406 -0.2116  0.0664
63234W        W 6328  14.345  28.796  16.976 -0.2794  0.0323 -0.1333
63235W        W 6329  13.047  28.098  19.608  0.0361  0.2278 -0.1380
63236W        W 6330  12.035  28.171  19.854 -0.1013  0.1269  0.0159
63237W        W 6331  11.775  29.143  16.111 -0.0385 -0.0080  0.0377
63238W        W 6332  12.232  28.627  19.653 -0.2663 -0.2757 -0.0618
63239W        W 6333  11.196  28.971  18.797 -0.0615  0.1275  0.1983
63240W        W 6334  13.283  27.614  20.210 -0.1070  0.1823  0.0452
63241W        W 6335  12.859  27.101  16.670 -0.1990  0.2022 -0.0063
63242W        W 6336  12.617  28.060  16.577 -0.0935 -0.0633  0.0914
63243W        W 6337  12.389  28.914  17.132  0.0472 -0.1627 -0.0065
63244W        W 6338  10.765  28.721  20.364 -0.2401  0.0947  0.0967
63245W        W 6339  10.389  28.656  18.236 -0.0065  0.1894 -0.1615
63246W        W 6340  14.153  26.772  19.553 -0.0691  0.1984 -0.0729
63247W        W 6341  11.638  29.222  16.588  0.2413  0.1228 -0.0255
63248W        W 6342  12.873  27.220  17.181 -0.1572 -0.0343 -0.0849
63249W        W 6343  11.421  26.344  15.795 -0.1221 -0.0112 -0.1425
63250W        W 6344  13.257  27.375  16.550 -0.2745  0.0585 -0.0703
63251W        W 6345  13.011  25.837  17.054  0.0915  0.0837 -0.0509
63252W        W 6346  11.361  28.389  17.977 -0.0569 -0.0921  0.0829
63253W        W 6347  11.915  26.588  17.785  0.1892 -0.1148  0.0352
63254W        W 6348  13.947  27.347  19.554  0.1782  0.1740 -0.1783
63255W        W 6349  13.256  26.958  16.254  0.1668  0.2983  0.3350
63256W        W 6350  14.160  25.848  19.112  0.2588 -0.0060 -0.2476
63257W        W 6351  11.559  28.049  18.385  0.1554  0.0099 -0.1982
63258W        W 6352  11.526  26.414  16.263 -0.1868  0.1537  0.0400
63259W        W 6353  12.294  29.338  16.741 -0.2002 -0.1357  0.0715
63260W        W 6354  13.651  28.539  17.600  0.2901  0.1219 -0.5643
63261W        W 6355  12.533  30.366  16.151 -0.2380 -0.2007  0.2835
63262W        W 6356  11.049  27.213  16.768 -0.0692  0.0155  0.0773
63263W        W 6357  11.016  26.403  18.560  0.2021  0.0621  0.3089
63264W        W 6358  11.904  26.247  18.252  0.2202  0.1831 -0.0373
63265W        W 6359  12.018  25.322  15.912  0.3140 -0.0663  0.1572
63266W        W 6360  13.825  27.801  19.719  0.5152  0.2131 -0.0509
63267W        W 6361  11.170  29.084  19.282 -0.2115 -0.4327 -0.0075
63268W        W 6362  13.693  26.879  17.136  0.0968 -0.1044 -0.0759
63269W        W 6363  12.491  27.713  18.541  0.2753  0.4185  0.2576
63270W        W 6364  14.329  28.165  19.404  0.1598 -0.4261 -0.1273
63271W        W 6365  13.857  27.738  15.841 -0.0669 -0.2338  0.1214
63272W        W 6366  14.388  25.491  18.412  0.2691 -0.1467 -0.1365
63273W        W 6367  12.975  25.331  17.971  0.3723  0.0493 -0.0339
63274W        W 6368  12.159  28.178  16.675  0.0773  0.0733 -0.0036
63275W        W 6369  12.674  26.712  16.085 -0.0259 -0.1598  0.2277
63276W        W 6370  15.678  27.760  18.530 -0.1015 -0.2207  0.1606
63277W        W 6371  13.565  27.434  16.089 -0.0099 -0.1098 -0.0394
63278W        W 6372  11.783  28.995  17.854  0.3470  0.0802  0.0868
63279W        W 6373  13.622  26.509  19.323 -0.1358 -0.0075  0.0011
63280W        W 6374  11.614  28.965  19.484  0.0562  0.0512  0.2203
63281W        W 6375   9.903  28.878  16.613 -0.1989 -0.3459  0.0552
63282W        W 6376  11.922  27.155  17.340 -0.0858  0.1509 -0.0852
63283W        W 6377  11.692  29.421  17.021 -0.1632 -0.0854 -0.0479
63284W        W 6378  11.502  26.299  18.930  0.1753 -0.2710  0.1175
63285W        W 6379  12.915  28.191  17.742  0.2084 -0.0233 -0.0613
63286W        W 6380  14.759  27.083  16.586 -0.0342 -0.0207 -0.1103
63287W        W 6381  11.170  25.994  19.657  0.0999 -0.1056  0.1641
63288W        W 6382  12.160  25.922  17.930 -0.3204  0.0374  0.3385
63289W        W 6383  11.234  28.237  17.537 -0.2469  0.1387 -0.0479
63290W        W 6384  13.322  29.913  16.803  0.1408  0.2487 -0.1359
63291W        W 6385  13.984  26.700  16.659 -0.0200  0.1463  0.0684
63292W        W 6386  13.226  28.167  15.976 -0.1191  0.1021 -0.0992
63293W        W 6387   8.088  26.561  17.620 -0.3113 -0.2268 -0.0877
63294W        W 6388  11.178  25.996  16.432  0.1679  0.4128  0.0423
63295W        W 6389  11.782  27.298  19.822 -0.1141 -0.3123  0.0275
63296W        W 6390  10.487  26.206  17.773 -0.0338 -0.0159 -0.0294
63297W        W 6391  13.572  27.241  19.879 -0.0368  0.2394 -0.1126
63298W        W 6392  11.470  25.229  16.321  0.2388 -0.1333 -0.0195
63299W        W 6393  13.741  27.469  17.163  0.0554  0.1491  0.0660
63300W        W 6394  12.404  28.116  17.168 -0.0479  0.0403  0.2089
63301W        W 6395  11.648  28.499  16.629 -0.1959  0.0871  0.1794
63302W        W 6396  13.382  27.031  20.850 -0.1575  0.5061  0.0222
63303W        W 6397  13.134  29.229  16.844  0.1197  0.0427 -0.2467
63304W        W 6398  14.746  28.903  18.955 -0.1536 -0.2012 -0.0589
63305W        W 6399  13.464  30.176  18.446 -0.2754 -0.0902 -0.2823
63306W        W 6400  11.361  25.756  18.726 -0.1620 -0.0197  0.1008
63307W        W 6401  10.719  26.724  16.299  0.2377 -0.2464 -0.0742
63308W        W 6402  12.125  29.935  17.603  0.1115 -0.0740 -0.0646
63309W        W 6403  10.802  28.293  17.915  0.1030  0.2234  0.0108
63310W        W 6404  12.495  26.336  16.599  0.0676 -0.0323 -0.5008
63311W        W 6405  13.998  28.834  17.402  0.1625  0.0789 -0.0351
63312W        W 6406  12.310  27.727  16.848 -0.2597 -0.2285 -0.0850
63313W        W 6407  11.109  27.652  18.891  0.2290  0.0343 -0.2701
63314W        W 6408  13.707  25.598  19.268  0.1471 -0.0098  0.1313
63315W        W 6409  13.189  26.323  19.916  0.1717  0.1650  0.0158
63316W        W 6410  14.224  29.037  18.282  0.0180 -0.0757  0.2176
63317W        W 6411  11.284  25.946  15.572  0.1468 -0.0076 -0.1585
63318W        W 6412  12.969  29.016  18.611  0.1037 -0.1343  0.0765
63319W        W 6413  10.709  29.329  17.364  0.0667 -0.0457  0.3682
63320W        W 6414  11.884  27.435  15.978  0.2406 -0.0683 -0.2245
63321W        W 6415  13.755  29.303  17.343 -0.1431  0.0607 -0.2202
63322W        W 6416  13.880  25.108  17.743 -0.0488 -0.1099  0.2207
63323W        W 6417  12.764  28.679  19.685 -0.0203  0.1600  0.0938
63324W        W 6418  12.692  26.047  18.725  0.0143 -0.0325  0.1044
63325W        W 6419  11.585  25.639  16.602 -0.0427 -0.0080  0.2014
63326W        W 6420  10.619  28.853  18.631  0.1476 -0.2031 -0.3243
63327W        W 6421  13.122  26.307  16.889 -0.1037 -0.0063  0.0141
63328W        W 6422  13.147  26.062  15.724  0.0101 -0.3113  0.2045
63329W        W 6423  12.289  26.833  18.966 -0.1263  0.0814 -0.0148
63330W        W 6424  12.139  29.354  17.312  0.2689  0.1681 -0.0382
63331W        W 6425  12.405  26.103  16.170  0.0941 -0.2747 -0.0364
63332W        W 6426  13.092  26.271  17.447  0.0554  0.1383 -0.0040
63333W        W 6427  11.292  27.393  19.852 -0.1726 -0.0261  0.1055
63334W        W 6428  12.994  28.368  16.352 -0.0043  0.5109  0.2411
63335W        W 6429  11.164  28.457  16.713  0.1231 -0.0976 -0.3709
63336W        W 6430  12.716  26.352  15.705 -0.1619  0.0335  0.0177
63337W        W 6431  13.809  29.878  17.595 -0.0274  0.2138  0.0106
63338W        W 6432  11.522  26.512  19.485  0.3613 -0.2702  0.0325
63339W        W 6433  12.591  27.328  20.266  0.0548 -0.0794 -0.0950
63340W        W 6434  13.173  28.733  16.596  0.0132 -0.3585 -0.2608
63341W        W 6435  12.275  26.986  17.796  0.1372  0.1827  0.2218
63342W        W 6436  12.804  27.202  16.169 -0.1309 -0.1044 -0.0521
63343W        W 6437  13.323  27.194  16.980  0.1741  0.4192  0.0958
63344W        W 6438  11.385  29.949  15.643  0.1764  0.0445  0.0022
63345W        W 6439  11.180  28.137  18.963 -0.1977 -0.0385 -0.0738
63346W        W 6440  12.969  27.563  18.391 -0.0064 -0.0126 -0.1953
63347W        W 6441  11.798  26.779  19.112  0.1901 -0.0881 -0.2592
63348W        W 6442  15.210  27.915  20.823 -0.2243 -0.3139 -0.3204
63349W        W 6443  13.463  28.122  17.798 -0.3366  0.0825  0.0073
63350W        W 6444  13.813  26.023  19.444 -0.1533  0.1820  0.0053
63351W        W 6445  11.184  27.690  16.133 -0.1763 -0.0255 -0.0677
63352W        W 6446  12.345  27.004  20.857 -0.4341 -0.0670  0.1358
63353W        W 6447  11.719  28.170  18.929 -0.2463  0.2073  0.2085
63354W        W 6448  10.379  28.985  19.559  0.0456  0.2976 -0.0829
63355W        W 6449  12.975  27.879  19.056  0.0134 -0.0878 -0.0123
63356W        W 6450  12.910  28.258  17.193  0.0694  0.0342 -0.1205
63357W        W 6451  12.774  25.616  18.504  0.0266 -0.2067  0.1202
63358W        W 6452  12.148  26.604  16.261 -0.1238  0.0644 -0.1057
63359W        W 6453  11.187  29.311  16.923 -0.2498 -0.0407  0.2851
63360W        W 6454  12.479  29.767  16.934 -0.2032  0.0742  0.2234
63361W        W 6455  13.624  26.567  18.210 -0.0798 -0.1878  0.0778
63362W        W 6456  12.368  28.218  18.421 -0.1634 -0.0665 -0.2400
63363W        W 6457  12.646  28.392  15.860  0.2665 -0.0263  0.3458
63364W        W 6458  15.081  27.360  20.840  0.0987 -0.0178  0.2721
63365W        W 6459  10.825  29.808  17.574  0.0032  0.4535 -0.0202
63366W        W 6460  13.609  26.998  17.995 -0.2705 -0.0700  0.1835
63367W        W 6461  10.793  29.504  16.437 -0.2564 -0.2039 -0.2008
63368W        W 6462  13.138  26.527  15.872  0.0740  0.2553  0.0792
63369W        W 6463  10.502  27.989  17.049  0.0678  0.2075  0.0992
63370W        W 6464  13.660  26.599  19.822 -0.1583 -0.1818  0.1241
63371W        W 6465  14.143  28.377  16.344  0.2307  0.0570 -0.2806
63372W        W 6466  12.536  26.390  19.074 -0.1124  0.3978  0.3796
63373W        W 6467  12.758  26.692  17.011  0.2394  0.2584 -0.2534
63374W        W 6468  10.173  29.344  17.294  0.0091 -0.2808 -0.0782
63375W        W 6469  13.312  27.784  18.701  0.0824  0.0017  0.0793
63376W        W 6470  16.008  27.281  17.835 -0.0713 -0.2130  0.0737
63377W        W 6471  14.635  27.238  18.939 -0.0763 -0.1792  0.2960
63378W        W 6472  12.730  27.421  20.824 -0.1968  0.1910 -0.1046
63379W        W 6473  10.406  26.494  16.610 -0.1375  0.4760  0.2011
63380W        W 6474  13.710  25.301  20.142  0.1263  0.0215  0.2341
63381W        W 6475  12.019  26.759  16.764 -0.1490  0.0061  0.0817
63382W        W 6476  11.194  29.441  17.469 -0.3372  0.2664  0.2302
63383W        W 6477  13.298  28.284  18.530 -0.1382  0.0406  0.2972
63384W        W 6478  11.527  26.451  16.785 -0.0924 -0.1977  0.1789
63385W        W 6479  11.170  27.666  18.397 -0.4187  0.1543 -0.0628
63386W        W 6480  12.070  26.306  19.938  0.1006  0.1795  0.2401
63387W        W 6481  13.092  26.368  19.246  0.3369 -0.3392  0.0070
63388W        W 6482  12.674  27.210  17.663 -0.0079 -0.0322  0.0661
63389W        W 6483  12.480  26.866  16.567 -0.2764 -0.3228  0.0568
63390W        W 6484  12.047  27.397  18.432  0.2520 -0.2574 -0.0285
63391W        W 6485  14.211  27.371  17.302  0.1263  0.1161  0.3693
63392W        W 6486  14.661  27.423  20.144  0.1812 -0.1300 -0.0873
63393W        W 6487  11.756  29.342  18.548 -0.1218 -0.3677  0.1123
63394W        W 6488  13.380  25.658  18.663 -0.3623 -0.3322  0.1352
63395W        W 6489  13.448  29.720  17.278  0.3902 -0.2012 -0.1751
63396W        W 6490  12.968  27.500  19.347  0.2186  0.0636 -0.1156
63397W        W 6491  12.385  27.038  17.034 -0.2303 -0.2514  0.0542
63398W        W 6492  10.066  25.746  17.919  0.1292  0.0238 -0.1658
63399W        W 6493  12.485  27.908  15.700 -0.3756  0.0622  0.1969
63400W        W 6494  11.920  26.957  18.233 -0.0206 -0.0405  0.0969
63401W        W 6495  12.208  28.258  19.346 -0.0706 -0.2105  0.0586
63402W        W 6496  12.003  28.437  17.042 -0.1596 -0.0234  0.0620
63403W        W 6497  10.904  27.430  18.025  0.0307 -0.0188 -0.0802
63404W        W 6498  13.323  25.324  16.054 -0.0795 -0.4342 -0.1456
63405W        W 6499  12.117  28.747  16.694  0.0914 -0.0087 -0.0446
63406W        W 6500  12.514  27.292  18.211 -0.1590 -0.2525 -0.1081
63407W        W 6501  15.046  25.482  19.521 -0.0798  0.1043 -0.1082
63408W        W 6502  13.394  28.789  16.196  0.0541 -0.1244 -0.0646
63409W        W 6503  13.630  26.107  20.016  0.3723  0.0732 -0.1031
63410W        W 6504  11.655  26.112  17.849 -0.0219  0.0952 -0.0200
63411W        W 6505  13.434  29.024  17.712  0.0609  0.0882  0.3345
63412W        W 6506  10.780  25.864  19.239 -0.2035  0.3029  0.1247
63413W        W 6507  12.851  29.099  19.060  0.2944  0.3337 -0.1765
63414W        W 6508  12.074  27.240  20.198 -0.2658 -0.1376 -0.4905
63415W        W 6509  12.387  26.835  18.378  0.0116 -0.2861  0.0206
63416W        W 6510  11.093  25.511  17.561  0.1429  0.1039 -0.0844
63417W        W 6511  12.459  27.246  18.739 -0.1891  0.2265  0.1670
63418W        W 6512  12.966  30.038  17.091 -0.2186 -0.1730 -0.0132
63419W        W 6513  11.924  27.120  16.370 -0.3041  0.0912  0.0820
63420W        W 6514  13.667  27.884  18.201 -0.2453 -0.1556  0.0238
63421W        W 6515  12.736  26.352  17.784 -0.0067 -0.1465  0.1486
63422W        W 6516  13.479  27.467  18.014 -0.0246  0.0047 -0.4797
63423W        W 6517  15.370  27.399  17.916 -0.1488 -0.4726  0.0879
63424W        W 6518  13.032  27.599  17.818 -0.0795  0.3012  0.0714
63425W        W 6519  11.365  25.962  17.454 -0.1999 -0.1849 -0.0739
63426W        W 6520  13.933  28.433  18.714  0.2119 -0.1339 -0.4416
63427W        W 6521  13.202  26.747  17.275 -0.0754 -0.0702 -0.2488
63428W        W 6522  13.089  27.108  18.017 -0.0197 -0.0371 -0.3446
63429W        W 6523  12.741  26.449  18.309 -0.0992  0.0684  0.1636
63430W        W 6524  12.277  27.491  17.801 -0.1550  0.0941 -0.1417
63431W        W 6525  11.769  26.026  21.447 -0.1327  0.0536  0.2257
63432W        W 6526  14.123  29.891  19.662  0.0849 -0.1239  0.1309
63433W        W 6527  14.950  26.132  16.043 -0.3029  0.0347 -0.0522
63434W        W 6528  14.359  25.079  17.464 -0.3278  0.0991 -0.0513
63435W        W 6529  14.047  28.113  17.244 -0.0586 -0.1935  0.1688
63436W        W 6530  13.614  26.170  16.783  0.1839 -0.1126  0.1981
63437W        W 6531  11.357  27.439  17.655 -0.2987  0.0226  0.3706
63438W        W 6532  15.624  28.710  20.040 -0.2228 -0.3673 -0.3726
63439W        W 6533  12.591  25.010  17.018  0.4307 -0.2200 -0.1394
63440W        W 6534  12.187  26.023  19.479 -0.2077  0.0717 -0.2512
63441W        W 6535  12.554  28.500  16.860 -0.2733  0.0626 -0.2978
63442W        W 6536  11.682  28.600  17.553  0.0126  0.1842  0.0687
63443W        W 6537  13.278  26.758  16.749 -0.1273  0.0151  0.3725
63444W        W 6538   9.755  26.211  18.471  0.0207  0.1887  0.0355
63445W        W 6539  11.206  29.568  19.326 -0.1688  0.1753  0.1102
63446W        W 6540  11.479  26.916  15.562  0.1582 -0.2889 -0.2236
63447W        W 6541  13.625  29.100  16.893 -0.2947  0.3330  0.2278
63448W        W 6542  13.295  27.697  16.918 -0.3307 -0.1677 -0.0182
63449W        W 6543  15.724  27.704  20.698 -0.1763 -0.0196  0.0935
63450W        W 6544  13.342  25.763  16.658  0.1172 -0.3935 -0.3427
63451W        W 6545  13.523  26.034  20.829  0.1754  0.0858 -0.1910
63452W        W 6546  10.539  29.382  16.893  0.0321 -0.2579 -0.3240
63453W        W 6547  12.511  25.464  17.799 -0.1742 -0.1594  0.1522
63454W        W 6548  10.175  28.207  18.313  0.2710  0.0833  0.0977
63455W        W 6549  11.013  27.857  19.907 -0.0205  0.0266  0.1570
63456W        W 6550  10.895  28.594  17.538 -0.1632  0.0997  0.1256
63457W        W 6551  12.652  25.956  19.348  0.1838 -0.4292 -0.0949
63458W        W 6552  13.332  26.803  19.010 -0.3128  0.0808 -0.0974
63459W        W 6553  12.409  27.476  17.294  0.0025 -0.1315  0.1991
63460W        W 6554  16.282  26.699  20.507  0.0335  0.0471 -0.2712
63461W        W 6555  12.498  27.973  19.015  0.2093 -0.2936  0.0264
63462W        W 6556  11.523  27.423  16.379  0.0405 -0.0813 -0.0215
63463W        W 6557  14.191  28.580  19.109  0.0654  0.0272  0.1334
63464W        W 6558  13.428  28.865  17.242 -0.0624 -0.1705 -0.2433
63465W        W 6559  11.232  28.794  17.258 -0.2526  0.0537  0.1977
63466W        W 6560   9.627  27.048  17.858  0.1449  0.0855 -0.2406
63467W        W 6561  11.738  25.893  20.133  0.1103 -0.3147 -0.0728
63468W        W 6562  13.957  27.956  18.627  0.2407 -0.1893  0.2978
63469W        W 6563  12.906  26.523  16.482  0.0916  0.1749  0.2188
63470W        W 6564  13.129  29.040  15.833  0.1004 -0.0213  0.0286
63471W        W 6565  12.014  27.751  20.117  0.3052 -0.1139 -0.1241
63472W        W 6566  11.291  27.901  19.386  0.2808  0.3316 -0.2023
63473W        W 6567  10.614  28.494  17.115  0.0016  0.0922 -0.1997
63474W        W 6568  13.102  27.519  15.957 -0.1323  0.3307  0.3307
63475W        W 6569  12.294  27.050  15.993  0.0395  0.1323  0.1661
63476W        W 6570  15.001  28.220  18.267 -0.0878  0.3647 -0.0827
63477W        W 6571  13.061  26.794  15.438  0.4447  0.2507  0.0937
63478W        W 6572  10.050  28.873  17.598  0.0540  0.5798 -0.2452
63479W        W 6573  11.440  28.834  16.318 -0.1911 -0.0517 -0.0761
63480W        W 6574  13.442  28.502  16.954  0.1136 -0.1542  0.2006
63481W        W 6575  12.525  28.513  17.434  0.2853  0.2781  0.0968
63482W        W 6576  14.240  27.688  19.295  0.0083 -0.2076  0.1030
63483W        W 6577  13.827  25.281  14.960  0.1584 -0.3784  0.1268
63484W        W 6578  13.319  27.683  17.377 -0.0969  0.0040 -0.4989
63485W        W 6579  14.266  27.021  16.916 -0.0363 -0.0132  0.3369
63486W        W 6580  13.235  28.687  19.341  0.1370 -0.2986  0.0941
63487W        W 6581  11.769  27.246  17.809 -0.1708  0.0560  0.0663
63488W        W 6582  12.972  26.134  16.199  0.2478 -0.1318  0.0006
63489W        W 6583  11.226  27.874  17.959  0.2451  0.0628 -0.2445
63490W        W 6584  15.828  26.082  19.325 -0.2044  0.0822 -0.0992
63491W        W 6585   9.261  29.100  17.833  0.2051  0.0126 -0.0630
63492W        W 6586  14.863  28.899  16.776  0.2944  0.0634  0.0822
63493W        W 6587  10.461  27.356  15.973  0.0372 -0.1493  0.0254
63494W        W 6588  12.780  27.787  17.007 -0.0684  0.1178  0.6279
63495W        W 6589  15.333  26.270  19.385  0.1500  0.2681  0.2254
63496W        W 6590  12.376  27.329  16.566 -0.3323  0.2378  0.1510
63497W        W 6591  13.910  27.145  17.635 -0.1071 -0.0110  0.0036
63498W        W 6592  11.255  29.764  17.842 -0.1838 -0.0983  0.0341
63499W        W 6593  10.918  28.750  18.102 -0.1398  0.4128  0.2310
63500W        W 6594  10.938  28.587  18.941 -0.0533  0.0392  0.1666
63501W        W 6595  11.520  27.228  17.002 -0.4121  0.3866 -0.1822
63502W        W 6596  14.643  26.751  18.183 -0.1285 -0.1395  0.0750
63503W        W 6597  11.143  27.314  19.313 -0.0503  0.0296  0.0246
63504W        W 6598  14.270  25.475  19.993 -0.0368 -0.1003 -0.2737
63505W        W 6599  13.383  27.813  16.386 -0.2845 -0.1091 -0.0660
63506W        W 6600  13.402  26.028  19.010  0.3052 -0.1052 -0.5037
63507W        W 6601  12.974  27.218  19.954 -0.0002  0.1489 -0.2316
63508W        W 6602  11.391  27.216  18.162 -0.0417  0.1795 -0.1897
63509W        W 6603  11.943  26.210  15.855 -0.2393  0.2016 -0.0802
63510W        W 6604  13.684  26.974  19.412 -0.0652 -0.2217  0.2268
63511W        W 6605  12.790  27.858  16.084  0.0800 -0.1980  0.1374
63512W        W 6606  13.192  29.598  19.670 -0.2714 -0.1616  0.2360
63513W        W 6607  11.895  25.968  17.457 -0.1212  0.1434 -0.0386
63514W        W 6608  12.801  27.588  16.554 -0.0183  0.0681  0.1027
63515W        W 6609  11.503  28.380  17.115 -0.1565 -0.0975 -0.0399
63516W        W 6610  11.548  27.148  18.748 -0.0005 -0.1232  0.1971
63517W        W 6611  15.097  29.535  18.033  0.0759 -0.0783  0.0001
63518W        W 6612  10.993  25.366  16.731 -0.1294 -0.1533 -0.0837
63519W        W 6613  12.652  27.780  17.561  0.1249  0.0729  0.0596
63520W        W 6614  14.868  28.385  18.797  0.1479  0.0238  0.2314
63521W        W 6615  11.921  28.676  16.214 -0.0740  0.0216 -0.1646
63522W        W 6616  12.115  27.918  18.029 -0.1416  0.0297 -0.1618
63523W        W 6617  14.010  28.234  17.815 -0.2657 -0.1157 -0.0192
63524W        W 6618  11.417  26.173  18.412 -0.3191 -0.0599 -0.2135
63525W        W 6619  12.816  28.174  18.653 -0.3432  0.0609  0.2675
63526W        W 6620  14.785  27.207  18.115 -0.0755 -0.0254  0.0199
63527W        W 6621  13.386  27.157  17.475  0.0696 -0.3119  0.2447
63528W        W 6622  11.383  26.767  18.391 -0.1553  0.1388 -0.0271
63529W        W 6623  10.825  28.941  17.003  0.1621  0.1894  0.0078
63530W        W 6624  14.468  27.472  16.744  0.1851 -0.1503  0.1676
63531W        W 6625  14.152  26.824  20.866 -0.2512  0.1735  0.0905
63532W        W 6626  11.314  29.126  15.888  0.4215  0.0543 -0.0248
63533W        W 6627  14.297  26.250  20.551  0.3200  0.2659  0.0216
63534W        W 6628  13.574  28.118  17.292  0.1124  0.0207  0.2204
63535W        W 6629  11.319  28.048  20.928  0.1541 -0.2339  0.0010
63536W        W 6630  11.611  27.962  16.729  0.2676  0.0575  0.1354
63537W        W 6631  12.024  27.651  19.542  0.0124 -0.0535 -0.2904
63538W        W 6632  11.976  27.686  17.440  0.3293  0.0113  0.0284
63539W        W 6633  12.015  28.879  17.466 -0.2593 -0.2905  0.0761
63540W        W 6634  13.421  27.927  19.273  0.0316  0.2096 -0.0394
63541W        W 6635  12.834  25.956  16.623 -0.0364 -0.0001  0.1018
63542W        W 6636  13.945  27.329  18.162 -0.1039  0.0464  0.0721
63543W        W 6637  11.078  26.920  17.846 -0.1744  0.0495  0.0815
63544W        W 6638  13.770  26.636  17.695 -0.0247  0.0705 -0.1376
63545W        W 6639  14.793  25.598  15.411  0.0177  0.1562  0.1216
63546W        W 6640  10.798  27.964  18.364  0.1481  0.0385  0.1941
63547W        W 6641  10.309  27.948  16.344  0.1054 -0.2322 -0.0000
63548W        W 6642  12.142  28.335  15.901  0.3427  0.2402  0.3139
63549W        W 6643  11.382  26.562  17.907 -0.3132 -0.2967 -0.2242
63550W        W 6644  11.902  25.690  20.591 -0.0011 -0.2112 -0.0445
63551W        W 6645  12.293  26.440  18.009  0.0412  0.1177 -0.1505
63552W        W 6646  12.083  26.684  17.261 -0.1247 -0.0759 -0.1514
63553W        W 6647  10.938  26.441  16.647  0.0503 -0.0298 -0.2870
63554W        W 6648  13.741  29.149  16.199 -0.1356 -0.1162 -0.0339
63555W        W 6649  12.703  26.812  18.010  0.1710 -0.2082  0.0687
63556W        W 6650  10.666  25.429  17.189 -0.1530  0.0397  0.1460
63557W        W 6651  12.973  28.791  17.064  0.2040 -0.1565  0.0600
63558W        W 6652  13.161  28.134  16.705  0.2057  0.0487 -0.2091
63559W        W 6653  11.080  27.177  17.282  0.1276 -0.3947 -0.3509
63560W        W 6654  13.457  28.157  20.005  0.1587  0.0808  0.3484
63561W        W 6655  11.409  27.370  15.835 -0.2014 -0.0018  0.0571
63562W        W 6656  11.143  26.801  18.832 -0.0277 -0.1942 -0.1865
63563W        W 6657  10.177  24.997  19.956 -0.0908  0.1005  0.1165
63564W        W 6658  10.116  27.471  16.267 -0.0374  0.2130 -0.0069
63565W        W 6659  13.409  27.356  19.132  0.1175 -0.0778  0.2600
63566W        W 6660  12.600  27.850  18.057 -0.2214  0.0226 -0.3014
63567W        W 6661  12.430  28.480  16.347  0.2450  0.2209 -0.0708
63568W        W 6662  13.317  27.629  19.717 -0.2851 -0.3609 -0.3649
63569W        W 6663  12.244  28.372  18.855  0.0622  0.0836 -0.1970
63570W        W 6664  12.773  25.808  18.020  0.0112 -0.1869  0.0180
63571W        W 6665  12.325  28.829  15.899  0.1068  0.0601 -0.1075
63572W        W 6666  12.471  28.007  20.117  0.0580  0.3122  0.0406
63573W        W 6667  15.533  28.693  16.413  0.1107  0.2500  0.1204
63574W        W 6668  14.573  25.593  18.949  0.2251 -0.1019  0.0944
63575W        W 6669  13.856  27.645  16.481 -0.0024 -0.1994 -0.2725
63576W        W 6670  10.537  26.178  19.584 -0.1693  0.0195 -0.0649
63577W        W 6671  11.472  28.792  20.307  0.1110  0.0762 -0.1879
63578W        W 6672  15.036  27.994  19.275  0.2201 -0.2908 -0.0527
63579W        W 6673  10.893  27.580  17.136 -0.0401 -0.2969  0.1869
63580W        W 6674  14.810  27.111  17.106  0.0383 -0.1299 -0.0129
63581W        W 6675  12.837  27.021  18.499  0.0287  0.0799 -0.2566
63582W        W 6676  10.450  27.913  18.004  0.2225  0.0091 -0.2063
63583W        W 6677  11.980  26.225  16.490  0.1959 -0.1564  0.0921
63584W        W 6678  12.688  26.461  19.556  0.1139 -0.4636 -0.2444
63585W        W 6679  12.433  28.338  17.884  0.1894 -0.1925 -0.2022
63586W        W 6680  12.466  27.401  19.167  0.0005 -0.2007 -0.0469
63587W        W 6681  10.673  26.373  17.196 -0.0122 -0.1058 -0.2927
63588W        W 6682  14.251  27.875  16.222 -0.5160 -0.1551 -0.1575
63589W        W 6683  12.643  28.701  18.793  0.0257  0.3714  0.0331
63590W        W 6684  14.488  29.123  20.144 -0.1448 -0.2453 -0.1908
63591W        W 6685  12.873  28.479  18.304 -0.0414 -0.4864  0.0026
63592W        W 6686  14.650  27.377  19.466 -0.3124  0.1860 -0.0833
63593W        W 6687  10.447  26.205  18.631 -0.1479  0.3040 -0.2349
63594W        W 6688  11.957  27.965  17.067 -0.2598  0.0682 -0.0040
63595W        W 6689  12.663  26.213  17.102 -0.2095 -0.1175  0.0801
63596W        W 6690  13.198  26.716  18.381  0.0006  0.1376  0.1605
63597W        W 6691  12.819  26.969  18.996  0.3046 -0.0200 -0.1027
63598W        W 6692  13.755  26.782  16.057 -0.0042 -0.0438  0.0305
63599W        W 6693  11.867  29.823  18.545  0.0993 -0.1806  0.2626
63600W        W 6694  13.071  27.985  18.211  0.1181 -0.1294 -0.0054
63601W        W 6695  12.799  28.735  21.480  0.0092 -0.1629  0.0303
63602W        W 6696   9.880  27.005  21.053  0.0640 -0.0294 -0.1051
63603W        W 6697  13.640  26.700  20.549 -0.1532 -0.0762 -0.3865
63604W        W 6698  12.601  26.887  20.456  0.0724  0.0141  0.2706
63605W        W 6699  10.078  26.789  21.828 -0.0385 -0.0642  0.0208
63606W        W 6700  11.846  28.707  21.116  0.2170  0.1364 -0.2029
63607W        W 6701  11.286  25.200  23.190  0.0991 -0.0317  0.3274
63608W        W 6702  11.483  28.709  22.019 -0.0279  0.0223 -0.1693
63609W        W 6703  13.685  30.339  22.176  0.2946  0.1186  0.1582
63610W        W 6704  12.437  26.869  19.961  0.1777  0.1419 -0.3331
63611W        W 6705  12.760  27.369  22.090  0.1869  0.4699  0.0616
63612W        W 6706  11.599  28.699  21.553 -0.1354 -0.1851  0.1479
63613W        W 6707  11.290  25.335  21.325  0.2973  0.3132  0.2401
63614W        W 6708  10.225  26.567  22.448 -0.0615  0.4879 -0.1888
63615W        W 6709  13.926  26.636  23.469 -0.1519 -0.2023  0.1730
63616W        W 6710  10.875  28.694  19.473 -0.1489 -0.2707 -0.1384
63617W        W 6711  11.035  27.458  23.011 -0.1608  0.1462  0.1004
63618W        W 6712  12.630  26.368  21.727  0.1250  0.3120  0.2792
63619W        W 6713  14.241  29.904  21.972 -0.1212 -0.1027 -0.0515
63620W        W 6714  11.527  26.748  22.369  0.0184 -0.1092  0.0797
63621W        W 6715  12.177  26.425  24.085  0.0593 -0.2312  0.0824
63622W        W 6716  14.335  27.751  20.373 -0.1237  0.1030 -0.3091
63623W        W 6717  11.353  27.111  21.038  0.1116  0.1983  0.0606
63624W        W 6718  10.623  28.165  21.801  0.2283  0.3368  0.0480
63625W        W 6719  10.732  27.861  22.201  0.1309  0.4563  0.0842
63626W        W 6720  13.997  26.129  22.807 -0.1294  0.0210 -0.3824
63627W        W 6721  13.201  28.382  21.433 -0.0102  0.0834 -0.1210
63628W        W 6722  11.036  28.408  22.141 -0.0776  0.0245  0.1501
63629W        W 6723  11.699  28.341  20.764  0.0619  0.1170 -0.0997
63630W        W 6724  13.539  26.753  23.708 -0.1533 -0.2140 -0.3278
63631W        W 6725   9.528  28.395  21.439  0.2323 -0.3207 -0.0131
63632W        W 6726  12.241  30.211  21.751  0.5897  0.1884 -0.1276
63633W        W 6727  10.387  27.764  20.893  0.2164 -0.2366  0.0028
63634W        W 6728  13.620  28.231  21.617  0.1373  0.2826 -0.0182
63635W        W 6729  13.923  28.390  22.557 -0.4986  0.2126  0.0655
63636W        W 6730  12.221  29.018  22.988  0.1848  0.1255 -0.0817
63637W        W 6731  10.343  28.571  20.199  0.2103 -0.0987  0.1371
63638W        W 6732  13.648  29.656  22.064 -0.3887 -0.1414 -0.1579
63639W        W 6733  12.870  29.824  23.339  0.4152 -0.0652 -0.1094
63640W        W 6734  12.690  25.529  22.265  0.0690  0.2733  0.2543
63641W        W 6735  12.563  28.488  20.624  0.1960 -0.0995  0.0990
63642W        W 6736  12.356  29.705  21.841 -0.1837 -0.0316 -0.1928
63643W        W 6737  10.348  27.080  22.162  0.0710 -0.0516  0.0111
63644W        W 6738  12.301  28.402  23.931 -0.0929  0.0930  0.0228
63645W        W 6739  10.638  29.214  21.761  0.2641 -0.0569 -0.0568
63646W        W 6740  15.342  25.412  24.849  0.0043  0.1774 -0.0787
63647W        W 6741  12.090  28.678  20.672 -0.2063  0.1746 -0.0118
63648W        W 6742  12.688  27.008  19.560 -0.0548 -0.1076 -0.2643
63649W        W 6743  12.088  26.754  20.384 -0.0258  0.2068 -0.1902
63650W        W 6744  13.014  28.184  20.708  0.2666 -0.1702 -0.0646
63651W        W 6745  11.531  25.695  22.212  0.2857 -0.0190  0.0555
63652W        W 6746  11.115  29.164  20.933 -0.0406  0.0362 -0.4813
63653W        W 6747  12.674  26.778  22.071 -0.0666 -0.1528  0.0139
63654W        W 6748  14.634  28.680  22.333  0.2012  0.0960  0.1651
63655W        W 6749  11.533  28.293  21.266  0.3985 -0.1984 -0.0239
63656W        W 6750  14.302  26.870  23.127 -0.2767  0.1872  0.0946
63657W        W 6751  10.246  29.540  22.414  0.2310 -0.0597 -0.1757
63658W        W 6752   9.853  28.818  21.291  0.0543  0.0910 -0.2939
63659W        W 6753  14.838  27.971  21.317  0.2168  0.3232 -0.0531
63660W        W 6754  12.526  27.954  20.692 -0.0292 -0.1724 -0.2598
63661W        W 6755  12.401  28.744  19.191 -0.0140  0.0750  0.1400
63662W        W 6756  11.549  27.696  21.283 -0.1825 -0.0537  0.0821
63663W        W 6757  11.246  28.111  24.667 -0.2456  0.0613 -0.0295
63664W        W 6758  11.942  27.621  23.443  0.0707 -0.0814  0.1332
63665W        W 6759  11.862  26.234  20.459 -0.3349 -0.0662  0.0039
63666W        W 6760  14.780  28.004  23.264  0.1243 -0.2077 -0.2373
63667W        W 6761  11.008  28.994  23.394  0.1928 -0.0701 -0.3237
63668W        W 6762  14.657  26.155  21.885 -0.1195 -0.0187 -0.0887
63669W        W 6763  12.283  27.186  22.811 -0.1764  0.0028 -0.3827
63670W        W 6764  12.917  28.918  22.228  0.2666  0.1671 -0.0273
63671W        W 6765  14.765  27.513  18.522 -0.2398  0.3068 -0.0586
63672W        W 6766  13.800  25.474  21.103  0.4120 -0.1825  0.1331
63673W        W 6767  13.833  26.102  22.384 -0.1319 -0.0198 -0.0378
63674W        W 6768  10.933  27.304  20.177  0.1779  0.1004  0.1397
63675W        W 6769   9.795  28.234  20.047 -0.0506 -0.0273  0.0350
63676W        W 6770  13.478  28.091  22.731  0.2924  0.3028 -0.1624
63677W        W 6771  16.636  27.781  20.618 -0.0446 -0.0313  0.1341
63678W        W 6772  11.731  28.576  22.709  0.0471 -0.1184 -0.0590
63679W        W 6773  12.568  26.987  23.661  0.0944  0.2080 -0.1616
63680W        W 6774  11.069  28.586  23.029 -0.0815  0.1254 -0.1343
63681W        W 6775  11.053  29.903  18.990  0.3273  0.1442  0.3016
63682W        W 6776   9.554  28.693  20.863 -0.1687 -0.4397 -0.1108
63683W        W 6777  11.622  27.478  19.276  0.3562 -0.1153 -0.0877
63684W        W 6778   9.988  26.719  23.994 -0.0363  0.6421 -0.0799
63685W        W 6779  11.130  27.516  23.844  0.1864 -0.4120  0.2261
63686W        W 6780  12.888  26.911  20.942  0.4566  0.0025 -0.1326
63687W        W 6781  10.721  26.148  24.048 -0.4078  0.2041  0.1840
63688W        W 6782  14.160  26.343  22.169 -0.0917  0.2147 -0.0948
63689W        W 6783  10.697  29.808  19.369 -0.3945  0.0333  0.0596
63690W        W 6784  15.524  28.765  21.138  0.2945  0.3767  0.0782
63691W        W 6785  12.881  26.729  20.040 -0.4852 -0.1313  0.0322
63692W        W 6786  15.201  27.449  20.345  0.1086 -0.0720  0.0533
63693W        W 6787  11.086  27.429  22.065  0.1179 -0.1018  0.2275
63694W        W 6788  12.082  26.405  23.082 -0.0551  0.1188  0.2903
63695W        W 6789  10.636  26.260  22.319  0.3613  0.0953  0.4284
63696W        W 6790  10.845  26.875  22.196 -0.0829 -0.2610 -0.0942
63697W        W 6791  13.139  27.872  23.616 -0.0440 -0.0952 -0.1404
63698W        W 6792  10.460  26.708  20.416 -0.1004 -0.1089 -0.1596
63699W        W 6793  13.960  26.951  22.682 -0.0072  0.0918  0.0682
63700W        W 6794  13.124  28.269  21.931 -0.1171  0.0564 -0.0169
63701W        W 6795  10.715  29.161  19.225 -0.2174  0.0060  0.1119
63702W        W 6796  13.100  26.523  23.726 -0.0106 -0.3579  0.1034
63703W        W 6797  13.461  28.403  18.964 -0.2806 -0.0735  0.2772
63704W        W 6798  12.407  28.114  22.810 -0.1403 -0.0957  0.0588
63705W        W 6799  13.855  29.462  20.050  0.0025 -0.0210  0.0133
63706W        W 6800  10.976  25.919  22.063 -0.3159 -0.2253 -0.2966
63707W        W 6801  11.488  26.164  20.967 -0.1972  0.1384  0.1884
63708W        W 6802  10.280  30.182  20.365 -0.0282 -0.0023 -0.2185
63709W        W 6803  10.882  28.279  22.666  0.0660 -0.1293 -0.2772
63710W        W 6804  12.489  25.957  20.743 -0.1737 -0.0651 -0.1089
63711W        W 6805  13.386  29.569  20.209 -0.1273  0.1737 -0.0523
63712W        W 6806  11.525  28.234  21.818  0.1294  0.0222 -0.4451
63713W        W 6807  10.599  28.292  23.706 -0.0599 -0.0976  0.2305
63714W        W 6808  11.605  25.276  23.652 -0.1068  0.0044  0.3611
63715W        W 6809  13.981  27.121  21.593  0.1848 -0.1521  0.1228
63716W        W 6810  12.993  27.311  21.226 -0.1171  0.2478 -0.4384
63717W        W 6811  11.700  26.021  19.606 -0.1866  0.0015  0.0657
63718W        W 6812  14.665  29.076  20.665  0.2207  0.1146 -0.1069
63719W        W 6813  10.089  28.616  18.644  0.0795  0.1532 -0.0103
63720W        W 6814  11.323  28.624  19.271 -0.3662 -0.0471 -0.0156
63721W        W 6815  11.854  27.895  20.912  0.0356 -0.0886 -0.3322
63722W        W 6816  12.790  27.073  21.669  0.0011  0.0759 -0.0723
63723W        W 6817  11.171  29.154  24.494 -0.0037 -0.2169  0.0235
63724W        W 6818  12.103  27.148  23.517 -0.1811 -0.0412 -0.0624
63725W        W 6819  11.963  27.471  21.086  0.1686 -0.5101  0.2752
63726W        W 6820  11.609  29.904  23.973 -0.1987  0.0716 -0.0516
63727W        W 6821  13.140  26.779  22.858 -0.1229  0.1767 -0.1078
63728W        W 6822  13.853  27.712  20.480 -0.0116  0.4337  0.1557
63729W        W 6823  11.068  26.665  22.604  0.0675 -0.1330 -0.1324
63730W        W 6824  13.739  28.560  21.248  0.2357  0.0465 -0.0305
63731W        W 6825  12.077  26.571  19.495  0.1947 -0.1212  0.1838
63732W        W 6826  11.953  25.317  20.982  0.2159  0.0076 -0.0448
63733W        W 6827  10.745  28.836  22.503 -0.0484 -0.1974 -0.0878
63734W        W 6828  12.491  29.158  21.313 -0.2989 -0.1179 -0.2126
63735W        W 6829  11.533  27.476  22.303  0.2252 -0.3505 -0.2479
63736W        W 6830  12.470  26.435  20.277 -0.2687  0.2775 -0.0534
63737W        W 6831  14.163  28.306  21.111 -0.2326 -0.2361  0.2045
63738W        W 6832   9.961  29.547  21.169 -0.3823 -0.1046 -0.1237
63739W        W 6833  13.848  27.656  23.315 -0.1395 -0.0298 -0.1403
63740W        W 6834  12.616  29.695  22.652 -0.0301 -0.1249 -0.0141
63741W        W 6835  11.948  24.868  22.401 -0.2419  0.2314 -0.3488
63742W        W 6836  11.189  27.729  20.402 -0.0370 -0.4625  0.1762
63743W        W 6837  12.323  27.175  21.733 -0.0880 -0.0469  0.0934
63744W        W 6838  11.013  29.229  19.728 -0.1530 -0.2045 -0.1758
63745W        W 6839  13.016  25.509  23.370  0.2501  0.1374  0.1634
63746W        W 6840  13.998  25.838  23.588  0.1856 -0.0249  0.1019
63747W        W 6841  11.275  24.972  20.395 -0.0936  0.1073 -0.0335
63748W        W 6842  15.073  26.490  24.845  0.2467  0.1717 -0.0499
63749W        W 6843  12.362  27.324  19.783  0.0832  0.2378  0.1609
63750W        W 6844  12.451  26.433  22.352  0.1204  0.2074 -0.0636
63751W        W 6845  12.045  27.067  19.427  0.0510  0.1742 -0.1235
63752W        W 6846  11.555  27.432  23.211  0.2603  0.0475 -0.3512
63753W        W 6847  10.503  28.279  22.314 -0.1205  0.1013 -0.3828
63754W        W 6848  11.332  29.107  22.326  0.0192 -0.4090 -0.1777
63755W        W 6849  11.931  29.725  23.135  0.2536  0.1259 -0.0242
63756W        W 6850  12.433  28.742  21.030  0.0812  0.0216  0.2363
63757W        W 6851  12.635  26.261  24.476 -0.0114 -0.0706 -0.3553
63758W        W 6852  12.902  26.436  22.602  0.0128  0.4444 -0.0195
63759W        W 6853  12.537  27.755  19.502  0.0407  0.0466 -0.0573
63760W        W 6854  11.277  28.275  19.667 -0.3841  0.0708 -0.1505
63761W        W 6855  10.605  25.837  20.959 -0.0180  0.1732 -0.0415
63762W        W 6856  12.222  28.491  22.577  0.3440 -0.1632  0.2546
63763W        W 6857  12.300  28.867  17.864  0.0607 -0.2661  0.0547
63764W        W 6858  11.969  28.175  21.399 -0.2197  0.4584  0.0330
63765W        W 6859  11.193  28.700  19.867 -0.0130 -0.0628  0.1565
63766W        W 6860  13.064  26.631  21.751  0.3576  0.1507  0.3392
63767W        W 6861  11.734  30.213  22.085  0.0344  0.2125 -0.0711
63768W        W 6862  12.116  27.624  21.507 -0.1587 -0.0002 -0.0671
63769W        W 6863  11.244  26.806  19.830 -0.0779 -0.0832  0.1580
63770W        W 6864  13.061  26.630  20.552  0.0607  0.1063  0.0768
63771W        W 6865  15.546  27.803  21.219  0.0388  0.1682 -0.2160
63772W        W 6866  11.177  27.915  23.209 -0.0778  0.3910 -0.1803
63773W        W 6867  12.895  25.769  22.719  0.0175  0.0199  0.1343
63774W        W 6868  10.258  28.698  22.472  0.2917 -0.1118  0.0737
63775W        W 6869  14.518  28.097  21.774 -0.1281  0.0979 -0.0719
63776W        W 6870  13.275  26.164  20.374  0.1931 -0.0066 -0.2137
63777W        W 6871  13.955  27.495  23.837  0.1299 -0.0322 -0.0060
63778W        W 6872  10.129  27.971  22.931  0.1575 -0.0042  0.1769
63779W        W 6873  10.802  26.697  20.017  0.1483  0.2734 -0.3243
63780W        W 6874  13.392  26.455  23.239 -0.0928  0.1401  0.1192
63781W        W 6875  11.726  25.885  22.686  0.1540 -0.0361 -0.0181
63782W        W 6876  12.018  28.687  21.748  0.0635 -0.0911 -0.1199
63783W        W 6877  12.110  29.864  22.282 -0.0639  0.2244 -0.1322
63784W        W 6878  11.212  26.968  21.491 -0.1570 -0.4473 -0.3452
63785W        W 6879  11.244  28.711  21.221  0.0821 -0.2716 -0.1114
63786W        W 6880  11.473  26.607  23.839 -0.0833  0.0402 -0.0190
63787W        W 6881  14.644  28.645  21.860  0.3331  0.1030  0.0332
63788W        W 6882  10.649  27.315  21.204 -0.0881 -0.0361 -0.1397
63789W        W 6883  12.092  26.418  21.375 -0.0275  0.2910 -0.1394
63790W        W 6884  11.039  26.495  23.065  0.0437  0.1642  0.3072
63791W        W 6885  13.338  28.492  22.496 -0.0867 -0.1064  0.4028
63792W        W 6886  11.721  26.273  22.338 -0.1844 -0.0155 -0.0010
63793W        W 6887  12.390  28.438  23.354  0.0071 -0.3512 -0.1752
63794W        W 6888  12.438  25.938  22.083  0.0718  0.1101  0.0287
63795W        W 6889  14.155  29.109  20.849  0.1017 -0.0944  0.3666
63796W        W 6890  12.844  26.950  22.519  0.1883 -0.1301 -0.3238
63797W        W 6891  11.617  27.477  20.267 -0.1270 -0.0126 -0.2642
63798W        W 6892  11.016  28.624  23.784 -0.0075 -0.0922 -0.0975
63799W        W 6893  10.003  28.376  20.888 -0.0190 -0.1183 -0.1850
63800W        W 6894  12.096  26.654  22.027  0.0084  0.1830  0.1278
63801W        W 6895  10.787  29.407  22.473  0.0373 -0.1869  0.1410
63802W        W 6896  11.667  27.952  20.419  0.0182 -0.0561  0.1407
63803W        W 6897   9.794  28.742  23.800 -0.1053 -0.1468 -0.0777
63804W        W 6898  13.840  25.086  19.024 -0.0595  0.2254 -0.0592
63805W        W 6899  13.063  27.214  20.491 -0.0662 -0.1551 -0.0614
63806W        W 6900  12.584  25.432  23.023  0.0164  0.1819  0.2367
63807W        W 6901  13.257  26.029  23.404  0.0305  0.1473 -0.1983
63808W        W 6902  13.885  28.164  20.266  0.0376  0.1155  0.0401
63809W        W 6903  12.508  25.903  24.161  0.0771  0.1057  0.0743
63810W        W 6904  11.194  26.316  22.269  0.3392  0.0712 -0.0280
63811W        W 6905  11.994  27.580  22.447  0.0604  0.2739  0.0650
63812W        W 6906  10.628  28.874  23.046  0.3622 -0.2352  0.0090
63813W        W 6907  13.944  29.077  24.221  0.2746  0.2562 -0.1547
63814W        W 6908  11.084  28.004  23.688 -0.2483  0.1637  0.1594
63815W        W 6909  11.736  26.743  21.678  0.0273 -0.3917 -0.0516
63816W        W 6910  11.241  25.654  20.109  0.0396  0.0637  0.1348
63817W        W 6911  12.242  26.304  23.602  0.2173 -0.0019 -0.0528
63818W        W 6912  13.351  29.237  22.056 -0.1113  0.0948  0.0357
63819W        W 6913  10.720  27.657  21.667 -0.0854  0.0263  0.0115
63820W        W 6914  13.273  27.843  21.686  0.0245 -0.0016 -0.1731
63821W        W 6915  11.723  29.092  22.703 -0.1178  0.1178 -0.2754
63822W        W 6916  13.410  28.368  20.918 -0.1854 -0.1992  0.0038
63823W        W 6917  12.271  27.429  20.600  0.4067  0.1490  0.0057
63824W        W 6918  10.918  28.379  21.116  0.1400  0.1846 -0.2640
63825W        W 6919  10.841  27.628  23.467  0.1129  0.0098  0.0775
63826W        W 6920  13.214  27.363  21.679  0.1216 -0.0487  0.2112
63827W        W 6921  13.194  26.577  22.216 -0.0225  0.5799 -0.0827
63828W        W 6922  12.863  25.768  23.792  0.0498 -0.2432 -0.0859
63829W        W 6923  12.998  27.394  23.375  0.0088  0.0158 -0.0671
63830W        W 6924  11.294  25.985  24.464 -0.3710 -0.2762 -0.0957
63831W        W 6925  11.308  27.534  24.748 -0.4060 -0.1429 -0.0672
63832W        W 6926  13.103  30.479  22.936 -0.0662  0.1779 -0.1453
63833W        W 6927  15.560  27.276  19.773  0.3206 -0.1896 -0.4684
63834W        W 6928  13.600  27.374  22.950 -0.0460 -0.0330 -0.0257
63835W        W 6929  13.693  26.827  21.157  0.0970 -0.0422  0.2000
63836W        W 6930  13.570  27.235  20.438  0.0233  0.1193  0.2418
63837W        W 6931  11.008  25.489  22.248  0.2301 -0.4250 -0.0391
63838W        W 6932  12.594  27.546  22.569  0.1342 -0.4066 -0.1066
63839W        W 6933  10.405  25.245  20.372  0.1267  0.1011 -0.0591
63840W        W 6934  13.149  26.915  24.040 -0.1676 -0.0253  0.0233
63841W        W 6935  14.039  27.496  20.027 -0.0322  0.0435  0.2692
63842W        W 6936  13.239  29.180  22.581 -0.0883 -0.0553 -0.0935
63843W        W 6937  12.500  27.288  21.229  0.1398 -0.0373  0.3833
63844W        W 6938  11.273  27.220  20.533 -0.0829 -0.0080  0.2223
63845W        W 6939  12.608  29.393  22.139  0.0317  0.0647  0.1292
63846W        W 6940  11.951  26.149  20.965 -0.1153  0.0619 -0.1060
63847W        W 6941  13.346  28.460  20.457  0.2194  0.3148 -0.2039
63848W        W 6942  12.904  27.838  21.109  0.3757  0.0518  0.0331
63849W        W 6943  13.617  27.645  25.151 -0.0900 -0.1877 -0.2459
63850W        W 6944  11.571  25.321  20.628 -0.0320  0.0103  0.2940
63851W        W 6945  14.374  26.977  24.188  0.0337 -0.0808 -0.0606
63852W        W 6946  11.945  29.621  20.420 -0.0169 -0.0138 -0.1671
63853W        W 6947  11.835  25.424  22.500  0.1563 -0.1060  0.1032
63854W        W 6948  11.762  29.624  21.399  0.0042 -0.0823 -0.0162
63855W        W 6949   9.470  26.836  22.562 -0.0394  0.4917 -0.3943
63856W        W 6950  11.172  27.940  21.948  0.2658  0.2936 -0.2593
63857W        W 6951  12.362  25.771  23.571 -0.0676 -0.0796  0.0607
63858W        W 6952  13.682  25.973  23.164 -0.2002  0.0681 -0.0379
63859W        W 6953  12.685  27.576  21.633 -0.0087 -0.1806 -0.4361
63860W        W 6954  13.539  28.064  22.214 -0.0866  0.2498 -0.0791
63861W        W 6955  11.499  27.590  21.787  0.0497  0.1147  0.1338
63862W        W 6956  10.658  27.755  20.357  0.2248  0.1221 -0.1187
63863W        W 6957  13.149  27.586  22.292  0.2660  0.0836  0.0818
63864W        W 6958  12.346  28.503  21.482  0.1547 -0.0525 -0.0768
63865W        W 6959  10.819  28.791  20.874 -0.4049 -0.0230  0.0692
63866W        W 6960  11.136  26.708  23.485  0.3605 -0.0262  0.0896
63867W        W 6961  11.437  29.741  22.942  0.2905  0.0019  0.3145
63868W        W 6962  11.769  27.885  22.079 -0.2311 -0.0053  0.1486
63869W        W 6963  11.438  27.021  21.942 -0.4006 -0.1557 -0.0595
63870W        W 6964  12.125  28.208  20.482  0.1602 -0.1395 -0.1366
63871W        W 6965  10.293  30.207  23.204 -0.0751 -0.1777  0.1187
63872W        W 6966  10.738  26.909  23.221  0.1114 -0.1046  0.2642
63873W        W 6967  12.029  29.522  18.957  0.1081  0.1248  0.0005
63874W        W 6968  12.933  28.324  20.140 -0.0948 -0.0190 -0.2874
63875W        W 6969  12.041  27.845  19.057  0.0936  0.1772  0.2414
63876W        W 6970  13.942  29.741  20.504  0.1658 -0.5216 -0.3634
63877W        W 6971  11.972  26.839  19.886 -0.2816 -0.1781 -0.2600
63878W        W 6972   9.325  30.041  22.366  0.3720  0.3493 -0.1865
63879W        W 6973  10.311  27.954  20.025  0.1337 -0.0056 -0.0528
63880W        W 6974  14.689  28.649  19.954 -0.0460 -0.2119 -0.1415
63881W        W 6975  11.098  28.363  21.625 -0.3849  0.0001 -0.0175
63882W        W 6976  12.890  29.308  21.652  0.1539  0.1138 -0.1804
63883W        W 6977  14.087  26.459  20.096  0.0791 -0.1060  0.1778
63884W        W 6978  12.432  28.969  21.930  0.1489  0.0717 -0.0718
63885W        W 6979  14.502  26.379  21.060  0.1767  0.1718  0.0220
63886W        W 6980  14.114  29.554  24.572  0.1726 -0.0655  0.3140
63887W        W 6981  12.264  27.587  22.023  0.0644  0.2345 -0.0613
63888W        W 6982  12.258  25.723  21.144  0.1431  0.0848 -0.0786
63889W        W 6983  11.680  27.952  23.136 -0.1242 -0.0954 -0.2873
63890W        W 6984  13.761  25.352  23.067 -0.0153 -0.0526  0.0426
63891W        W 6985  10.435  28.344  22.889 -0.2763 -0.1440 -0.0403
63892W        W 6986  13.472  29.200  19.780 -0.0687 -0.3786  0.0492
63893W        W 6987   9.982  27.515  20.724 -0.0862  0.0473  0.1643
63894W        W 6988  12.607  28.524  21.990  0.0077 -0.0812  0.0539
63895W        W 6989  14.565  27.566  23.306 -0.1622 -0.1664  0.0782
63896W        W 6990  13.377  27.582  20.824 -0.0695 -0.0172 -0.0772
63897W        W 6991  13.334  27.794  23.126 -0.1687 -0.1152  0.0578
63898W        W 6992  11.258  29.687  21.061  0.0803 -0.1889  0.1325
63899W        W 6993  10.306  28.845  21.654  0.1825  0.2175 -0.0774
63900W        W 6994  11.595  29.208  21.213  0.1652 -0.2474 -0.0329
63901W        W 6995   9.081  26.755  20.681 -0.0447  0.0124 -0.0944
63902W        W 6996  13.853  27.487  20.983  0.1084  0.0106  0.0151
63903W        W 6997  11.345  28.180  22.861 -0.1800 -0.1011  0.0237
63904W        W 6998  12.647  25.288  23.531 -0.4431  0.2040  0.1142
63905W        W 6999  11.452  28.065  22.381  0.1285  0.0934  0.0492
63906W        W 7000  14.034  26.694  19.029 -0.3674  0.1272 -0.1041
63907W        W 7001  12.834  27.717  23.076  0.0274 -0.0643  0.0994
63908W        W 7002  10.654  28.673  21.951 -0.3782 -0.0642  0.2921
63909W        W 7003  11.601  26.399  20.032  0.4548 -0.0858 -0.2102
63910W        W 7004  14.232  27.281  22.383  0.1130 -0.1486  0.0899
63911W        W 7005  11.161  25.454  19.137 -0.2550 -0.1519 -0.1723
63912W        W 7006  14.050  28.738  23.170  0.2369 -0.0812  0.1170
63913W        W 7007  12.069  26.710  22.545 -0.3237  0.0493  0.2473
63914W        W 7008  13.113  25.503  21.932 -0.0761  0.2999  0.2765
63915W        W 7009  10.354  28.207  20.543  0.2395  0.3217 -0.0297
63916W        W 7010  11.910  26.663  23.619  0.0101 -0.2182  0.2563
63917W        W 7011  14.148  29.884  23.651  0.1074  0.3204 -0.0410
63918W        W 7012  10.716  27.057  21.735 -0.1434  0.1239  0.1467
63919W        W 7013  13.247  26.844  21.301  0.2815 -0.2895  0.2836
63920W        W 7014  13.272  27.100  22.159 -0.2818 -0.1232  0.0670
63921W        W 7015  12.491  28.538  20.106 -0.0282  0.0186 -0.1095
63922W        W 7016  13.713  28.674  20.222 -0.0595  0.0132  0.3291
63923W        W 7017  11.175  30.081  21.332 -0.1203 -0.0633  0.0069
63924W        W 7018  10.570  26.474  22.921  0.0470  0.0971 -0.1507
63925W        W 7019  13.405  30.456  21.741  0.1206 -0.1689  0.1790
63926W        W 7020  12.745  28.128  21.588  0.2293  0.0603  0.0956
63927W        W 7021  13.208  25.556  22.417  0.0661  0.0718  0.1341
63928W        W 7022  11.296  28.628  22.499 -0.2064 -0.2332  0.0735
63929W        W 7023  11.435  29.418  20.374  0.0480 -0.0272 -0.3916
63930W        W 7024  14.894  27.456  22.498  0.0376  0.0259 -0.1515
63931W        W 7025  12.752  26.438  23.219  0.1829  0.0124 -0.3878
63932W        W 7026  12.901  27.708  20.507  0.1199  0.2111 -0.1388
63933W        W 7027  12.129  25.725  23.149 -0.0243  0.2264 -0.1443
63934W        W 7028  11.998  27.663  22.944  0.1380 -0.1397  0.0042
63935W        W 7029  11.763  30.728  23.481 -0.2306  0.0819 -0.1301
63936W        W 7030  12.000  27.292  18.918 -0.2157 -0.4442 -0.2476
63937W        W 7031  11.411  27.894  24.188 -0.0336 -0.3065  0.0080
63938W        W 7032  12.151  29.341  22.152 -0.0891 -0.0282 -0.0950
63939W        W 7033  11.282  28.576  20.775  0.0036 -0.2007  0.1094
63940W        W 7034  13.886  28.621  20.755 -0.0470 -0.0974 -0.0052
63941W        W 7035  13.730  26.139  21.816 -0.1666 -0.4598 -0.3372
63942W        W 7036  11.702  27.228  21.407 -0.3431  0.0230 -0.0691
63943W        W 7037  12.861  26.486  21.239 -0.2180 -0.1013 -0.2454
63944W        W 7038  12.494  26.785  21.392 -0.3280  0.1036 -0.0368
63945W        W 7039  13.527  26.893  21.721 -0.3558 -0.2751  0.3525
63946W        W 7040  11.559  27.664  22.763  0.1281  0.0422  0.3162
63947W        W 7041  12.104  25.267  20.236  0.0836  0.0561 -0.1926
63948W        W 7042  10.419  29.777  17.203 -0.0568  0.1518  0.1125
63949W        W 7043   9.916  28.442  22.765 -0.0826 -0.2629  0.2922
63950W        W 7044  11.295  26.183  22.776  0.1440 -0.1214  0.2172
63951W        W 7045  11.895  26.946  23.050  0.0531 -0.1650 -0.1797
63952W        W 7046  10.812  27.848  21.240  0.2138 -0.1362  0.1566
63953W        W 7047  12.363  27.126  22.333  0.0563 -0.2849  0.2667
63954W        W 7048  13.808  27.601  19.054  0.1659 -0.0942 -0.1565
63955W        W 7049  11.628  25.585  21.700  0.1254  0.1754 -0.0610
63956W        W 7050  10.970  25.915  22.545  0.0195  0.0641 -0.0446
63957W        W 7051  12.694  28.284  21.116  0.0912 -0.2579 -0.0813
63958W        W 7052  12.938  28.886  20.143  0.2113  0.0327  0.1605
63959W        W 7053  11.171  27.216  22.572 -0.1756  0.0638  0.0770
63960W        W 7054  13.254  27.354  24.312  0.4065 -0.2185 -0.2197
63961W        W 7055  11.557  27.855  19.830  0.0314  0.1771  0.1152
63962W        W 7056  11.820  26.783  24.261 -0.1924  0.1612 -0.1971
63963W        W 7057  10.884  25.991  23.107 -0.3804 -0.0394  0.1344
63964W        W 7058  11.254  26.281  20.550 -0.2040  0.0436  0.0862
63965W        W 7059  12.422  27.830  21.195  0.1756 -0.0785  0.1427
63966W        W 7060  13.399  29.086  20.328  0.0026  0.0348  0.1559
63967W        W 7061  14.904  28.182  19.727 -0.3008  0.0663 -0.0329
63968W        W 7062  12.547  29.430  23.211  0.1685 -0.0911  0.1808
63969W        W 7063  13.603  27.914  23.680  0.1036  0.2094  0.0173
63970W        W 7064  10.732  26.373  23.460  0.2094 -0.1997  0.3372
63971W        W 7065  11.530  27.567  20.765  0.1032 -0.3881  0.1281
63972W        W 7066  12.547  28.668  22.941 -0.0443  0.1077 -0.0633
63973W        W 7067  14.933  27.003  20.439  0.1178 -0.0626  0.0184
63974W        W 7068  14.310  26.595  22.718 -0.2462 -0.1018 -0.1720
63975W        W 7069  13.323  26.487  20.939 -0.0549 -0.3687 -0.3125
63976W        W 7070  10.474  25.307  23.722  0.1341  0.2423 -0.1320
63977W        W 7071  11.075  29.176  23.866  0.0080 -0.0853  0.0677
63978W        W 7072  13.556  27.287  21.330  0.0003  0.0356 -0.0591
63979W        W 7073  10.751  24.187  21.737 -0.2186 -0.0961 -0.1400
63980W        W 7074  13.369  26.886  20.171  0.1010 -0.0626  0.0400
63981W        W 7075  12.979  29.147  20.577  0.2323  0.0516 -0.0646
63982W        W 7076  10.307  27.794  22.522 -0.0875 -0.0469  0.0385
63983W        W 7077  12.036  26.947  21.218 -0.0115 -0.3124 -0.0927
63984W        W 7078  12.470  27.453  23.701  0.0086  0.0504  0.0890
63985W        W 7079  12.439  27.954  22.298 -0.0945  0.0062 -0.3243
63986W        W 7080  12.828  27.872  22.048  0.2275 -0.0221  0.3186
63987W        W 7081  12.144  26.566  20.842  0.1480  0.1292  0.0014
63988W        W 7082  13.970  26.957  20.054  0.2517  0.0153  0.1238
63989W        W 7083  12.053  29.714  20.988  0.3384 -0.1247  0.0964
63990W        W 7084  13.001  30.067  22.573 -0.1162  0.0679 -0.2612
63991W        W 7085  12.817  29.822  21.751 -0.3586 -0.0208  0.2214
63992W        W 7086  13.498  27.039  22.616  0.1232 -0.0881 -0.3340
63993W        W 7087  12.409  27.496  23.216  0.0073 -0.0107 -0.1142
63994W        W 7088  11.840  27.150  20.650 -0.1530  0.0949  0.0534
63995W        W 7089  11.707  27.159  22.679  0.1029  0.1019 -0.1567
63996W        W 7090  14.709  27.302  24.370 -0.1590 -0.0396  0.0519
63997W        W 7091  10.224  27.364  21.732  0.1499 -0.3316  0.0017
63998W        W 7092  13.520  25.794  22.095  0.2159 -0.1482  0.0981
63999W        W 7093  10.713  29.830  22.207  0.1727 -0.1381  0.2371
64000W        W 7094  13.386  28.724  22.016 -0.0014 -0.1846  0.3540
64001W        W 7095  12.324  28.947  25.562  0.0568  0.1925 -0.1832
64002W        W 7096  12.799  28.847  24.266 -0.1583 -0.1236 -0.0694
64003W        W 7097  13.186  26.903  23.330  0.0248 -0.1319 -0.1906
64004W        W 7098  13.626  26.911  23.136  0.0720 -0.0463  0.1615
64005W        W 7099   9.019  27.431  25.451 -0.1549  0.3192 -0.1656
64006W        W 7100  12.909  28.613  23.314 -0.1095 -0.0142  0.1037
64007W        W 7101  12.629  25.045  26.560  0.1505  0.2041  0.2019
64008W        W 7102  13.395  27.619  24.684  0.0596  0.3479 -0.1124
64009W        W 7103  13.621  29.154  26.451 -0.0334 -0.1588 -0.0114
64010W        W 7104  13.058  27.311  22.881  0.3709  0.0347 -0.0462
64011W        W 7105  12.970  27.854  26.622  0.0166  0.0788  0.0891
64012W        W 7106  12.949  30.549  27.538  0.0963 -0.1934 -0.4662
64013W        W 7107  12.746  26.948  25.053 -0.0934 -0.0022 -0.1093
64014W        W 7108  10.752  25.897  25.918 -0.2460  0.0689  0.1893
64015W        W 7109  14.025  28.171  26.014  0.4415 -0.1424 -0.1996
64016W        W 7110  11.669  28.997  24.473  0.0280 -0.0252 -0.0236
64017W        W 7111  11.239  27.737  25.556 -0.1469 -0.0428  0.1283
64018W        W 7112  11.404  25.030  24.821 -0.0996  0.1811 -0.0607
64019W        W 7113  13.597  29.039  25.279 -0.2702  0.2429 -0.0704
64020W        W 7114  12.557  28.310  24.777  0.3257 -0.0035 -0.0875
64021W        W 7115  13.625  27.071  27.408  0.0504  0.1424 -0.0983
64022W        W 7116  13.213  29.392  23.624 -0.0196 -0.1639  0.0793
64023W        W 7117  10.426  27.516  23.710 -0.0364 -0.1038  0.0288
64024W        W 7118  10.740  28.313  24.504 -0.1087 -0.0492  0.1136
64025W        W 7119  12.215  29.870  25.207  0.0111  0.2118 -0.0948
64026W        W 7120  12.706  27.540  25.358  0.2958  0.0640  0.0345
64027W        W 7121  14.205  28.843  27.035 -0.0338  0.3618  0.2862
64028W        W 7122  14.112  28.728  26.074  0.0409 -0.0262  0.2521
64029W        W 7123  12.404  29.432  25.550 -0.1539  0.1379 -0.1400
64030W        W 7124  12.368  26.320  26.674  0.3042  0.0804  0.1124
64031W        W 7125  12.352  28.379  25.378 -0.0675 -0.0516  0.1430
64032W        W 7126  10.877  29.448  25.372 -0.4159 -0.0572 -0.1751
64033W        W 7127  12.697  29.629  25.039  0.0958 -0.3210  0.0472
64034W        W 7128  13.918  29.010  24.754 -0.1810  0.0676 -0.1749
64035W        W 7129  14.710  28.723  26.327  0.0345 -0.2125  0.0660
64036W        W 7130  12.809  30.005  26.752 -0.0191 -0.2685 -0.1067
64037W        W 7131  11.466  28.854  23.539 -0.0425 -0.2033 -0.0504
64038W        W 7132  14.499  29.601  27.581  0.1530  0.1831  0.1167
64039W        W 7133  11.501  29.265  26.555  0.1479  0.1037 -0.1193
64040W        W 7134  12.511  28.624  25.996  0.1328  0.0130  0.0468
64041W        W 7135  12.749  28.527  23.755  0.2090 -0.3060  0.4190
64042W        W 7136  11.967  28.714  23.562  0.2124 -0.1152 -0.2668
64043W        W 7137  11.904  28.107  24.047  0.2607  0.3829 -0.0494
64044W        W 7138  12.922  29.231  27.287 -0.0271  0.0588 -0.1628
64045W        W 7139  11.848  29.102  25.721  0.0360  0.2025  0.1947
64046W        W 7140  14.641  25.892  26.886 -0.0516 -0.3034 -0.3127
64047W        W 7141  12.524  28.937  23.518 -0.0929  0.2136 -0.0373
64048W        W 7142  13.391  27.530  23.893  0.2546 -0.2023 -0.3095
64049W        W 7143  11.998  25.892  24.087  0.0870  0.0339  0.1080
64050W        W 7144  12.715  27.005  23.077 -0.2411  0.1720 -0.0349
64051W        W 7145  12.327  26.723  25.253 -0.0418 -0.1223 -0.1697
64052W        W 7146  12.202  29.127  24.633 -0.1244  0.0103 -0.3898
64053W        W 7147  12.452  27.500  25.866 -0.1993  0.1202 -0.0105
64054W        W 7148  13.172  28.256  26.859 -0.0046  0.1287 -0.1276
64055W        W 7149  13.462  27.318  23.425 -0.0212  0.3323 -0.1055
64056W        W 7150  14.102  27.668  25.486 -0.1373  0.3856 -0.0462
64057W        W 7151  11.691  29.330  27.008  0.0659  0.2796  0.1801
64058W        W 7152  12.305  28.622  24.482  0.4857 -0.3130  0.4218
64059W        W 7153  15.204  29.325  24.017 -0.0791  0.0190 -0.0081
64060W        W 7154  13.457  29.174  24.098  0.2703 -0.1236  0.0302
64061W        W 7155  13.021  29.569  22.295 -0.2430 -0.0683 -0.1302
64062W        W 7156  10.696  28.054  25.299 -0.1252 -0.1577 -0.1593
64063W        W 7157  10.584  29.205  28.045 -0.2243 -0.0214 -0.0016
64064W        W 7158  11.016  27.806  28.717 -0.2606 -0.0293  0.1838
64065W        W 7159  10.800  25.770  23.614 -0.0840 -0.1009  0.1036
64066W        W 7160  14.057  27.926  26.561 -0.1865 -0.1124 -0.3540
64067W        W 7161  11.372  31.289  27.532  0.1264 -0.3361 -0.0549
64068W        W 7162  13.749  27.274  24.782  0.1004 -0.3193  0.0734
64069W        W 7163  12.259  29.356  25.081 -0.2065  0.0012  0.1205
64070W        W 7164  13.661  27.426  26.116 -0.4487 -0.1457 -0.2591
64071W        W 7165  13.153  28.567  24.102  0.0089 -0.0424  0.3596
64072W        W 7166  13.539  25.547  26.198  0.1027 -0.1779  0.0223
64073W        W 7167  13.962  25.804  26.270  0.0324  0.2633  0.0720
64074W        W 7168  11.300  28.704  24.785 -0.0868  0.2804  0.1684
64075W        W 7169  11.927  28.239  23.603 -0.0834 -0.1146  0.2500
64076W        W 7170  13.648  27.850  26.319  0.1377  0.0355  0.0021
64077W        W 7171  13.779  25.614  23.936  0.0783 -0.0715  0.1073
64078W        W 7172  10.616  28.931  26.316  0.0052 -0.1733 -0.1380
64079W        W 7173  12.383  28.820  26.515  0.1186 -0.1428 -0.0314
64080W        W 7174  13.180  29.276  26.136  0.1702 -0.0243  0.0464
64081W        W 7175  10.740  29.849  23.222 -0.0099  0.1776 -0.0071
64082W        W 7176  11.358  29.387  25.901  0.0564  0.2407  0.0991
64083W        W 7177  11.928  29.473  24.260  0.0606 -0.0890 -0.0332
64084W        W 7178  11.760  28.154  26.649  0.1260 -0.2034  0.3739
64085W        W 7179  12.761  30.174  26.140 -0.1958  0.3731  0.2134
64086W        W 7180  13.387  26.977  24.614  0.1652  0.2267  0.0738
64087W        W 7181  11.527  25.753  26.992  0.0554  0.0298 -0.2016
64088W        W 7182  13.179  26.645  26.373 -0.1541  0.0598 -0.1704
64089W        W 7183  12.001  30.082  24.601 -0.0062 -0.2415  0.1221
64090W        W 7184  12.946  29.657  24.270  0.1408 -0.2159 -0.1328
64091W        W 7185  14.048  28.058  23.992  0.0207 -0.0656 -0.1753
64092W        W 7186  15.175  28.206  24.572  0.0274 -0.2761  0.1475
64093W        W 7187  12.589  28.350  26.446  0.0639 -0.3444 -0.0164
64094W        W 7188  10.759  27.406  24.132 -0.0491  0.2699 -0.3425
64095W        W 7189  12.087  27.057  27.807  0.3536 -0.1590  0.0360
64096W        W 7190  10.837  27.928  24.867 -0.1764  0.1416 -0.1629
64097W        W 7191  14.827  26.834  24.481 -0.0485 -0.1113 -0.1629
64098W        W 7192  10.954  26.931  24.331  0.3559  0.1495  0.1628
64099W        W 7193  13.923  25.415  25.882  0.0476 -0.1049  0.0230
64100W        W 7194  13.632  27.124  24.055 -0.0182  0.0769 -0.0702
64101W        W 7195  11.369  28.172  25.523 -0.2388 -0.0580  0.1792
64102W        W 7196  14.232  25.874  27.456 -0.2962  0.0873  0.0096
64103W        W 7197  11.911  28.071  22.628 -0.2720 -0.2946 -0.0418
64104W        W 7198  14.682  29.198  26.903 -0.3046  0.0065 -0.1970
64105W        W 7199  14.806  31.337  25.607 -0.1298 -0.2117 -0.1529
64106W        W 7200  11.955  27.294  26.238 -0.0387  0.1698  0.1509
64107W        W 7201  11.345  28.298  23.434 -0.0620 -0.2139  0.2621
64108W        W 7202  11.833  29.445  25.382 -0.1629  0.0070  0.1232
64109W        W 7203  11.667  28.764  26.579 -0.0951 -0.1658  0.0017
64110W        W 7204  12.184  27.757  25.350 -0.2822 -0.0000 -0.0629
64111W        W 7205  14.493  28.367  25.904 -0.1573  0.4755  0.0073
64112W        W 7206  12.162  27.653  24.043 -0.6558  0.1015 -0.4676
64113W        W 7207  11.773  27.938  27.477 -0.0952  0.2228  0.0910
64114W        W 7208  12.905  26.268  26.769 -0.2902  0.1395 -0.1021
64115W        W 7209  13.987  27.407  26.511 -0.2149  0.3687 -0.1860
64116W        W 7210  13.319  28.766  26.581 -0.6307 -0.1333 -0.0156
64117W        W 7211  11.027  25.576  24.147  0.3374 -0.0589 -0.0379
64118W        W 7212  14.160  29.603  25.272  0.3109 -0.3802 -0.1529
64119W        W 7213  12.173  29.435  22.725  0.1343 -0.2077  0.2363
64120W        W 7214  10.438  29.082  25.069 -0.1254 -0.0668 -0.0162
64121W        W 7215  13.172  29.037  25.507  0.0248  0.1246 -0.1091
64122W        W 7216  14.762  25.300  26.132 -0.1804  0.0586  0.2737
64123W        W 7217  11.406  28.163  27.265  0.0333  0.2888 -0.1666
64124W        W 7218  12.937  27.410  26.245  0.1533  0.0943 -0.0989
64125W        W 7219  12.378  27.953  23.727  0.0696 -0.1358 -0.2871
64126W        W 7220  11.615  30.216  26.601 -0.0199 -0.0609  0.0295
64127W        W 7221  13.538  26.033  25.062  0.1150 -0.2317 -0.0318
64128W        W 7222  14.718  26.051  23.369  0.2717 -0.1346  0.2169
64129W        W 7223  12.974  28.512  27.817 -0.1156 -0.1464  0.1312
64130W        W 7224  14.816  27.017  23.968  0.3087  0.1214  0.0187
64131W        W 7225  11.807  27.653  24.422 -0.3783  0.0044  0.1560
64132W        W 7226  12.690  26.211  23.696  0.0160 -0.6197  0.0694
64133W        W 7227  11.385  29.138  27.333 -0.0177  0.2501  0.1092
64134W        W 7228  13.131  29.942  25.625  0.5558  0.0738 -0.1049
64135W        W 7229  13.145  28.723  25.901 -0.2878 -0.5809 -0.3037
64136W        W 7230  10.995  25.598  25.633 -0.1336 -0.0292  0.1389
64137W        W 7231  14.230  28.210  23.018 -0.2589 -0.0489 -0.2133
64138W        W 7232  10.244  28.536  27.894  0.0989 -0.0991  0.1024
64139W        W 7233  13.487  29.298  27.797  0.1671  0.0107  0.2192
64140W        W 7234  14.370  29.361  24.946  0.0838 -0.0057 -0.0155
64141W        W 7235  12.576  28.029  25.701  0.1818 -0.2591 -0.0567
64142W        W 7236  11.166  26.272  24.946 -0.3427  0.0313 -0.1660
64143W        W 7237  11.342  26.910  25.727  0.1574  0.2230  0.1587
64144W        W 7238  11.512  29.768  23.507  0.3835  0.2646  0.0292
64145W        W 7239  14.406  25.574  26.460  0.1201  0.1123  0.1623
64146W        W 7240  14.119  26.595  25.807 -0.3106 -0.0167  0.0979
64147W        W 7241  11.265  28.392  26.796 -0.1908 -0.1311 -0.0355
64148W        W 7242  14.087  26.704  26.945  0.1797  0.3281 -0.1217
64149W        W 7243  13.103  26.303  25.302 -0.0359  0.1283 -0.1230
64150W        W 7244  13.061  27.069  25.432 -0.1132 -0.2625 -0.1027
64151W        W 7245  11.342  27.331  25.258  0.0673 -0.2972 -0.0663
64152W        W 7246  11.590  27.956  25.933  0.3968  0.0900  0.0359
64153W        W 7247  11.588  27.749  26.957 -0.1988 -0.0659 -0.2788
64154W        W 7248  11.152  30.652  24.979 -0.6786  0.1992  0.2509
64155W        W 7249  12.410  29.015  27.520 -0.0395 -0.1909 -0.0003
64156W        W 7250  13.658  27.046  26.828  0.0912 -0.0811 -0.0376
64157W        W 7251  12.454  28.506  27.204  0.1734 -0.0269 -0.0591
64158W        W 7252  12.273  28.103  24.368 -0.0569  0.4196  0.0847
64159W        W 7253  11.915  29.268  23.557  0.3969  0.1812 -0.0257
64160W        W 7254  12.452  29.538  24.268  0.0232 -0.2868 -0.1906
64161W        W 7255  11.292  26.413  26.567 -0.1811 -0.1014 -0.2408
64162W        W 7256  12.295  29.284  26.022 -0.0670 -0.1645  0.1605
64163W        W 7257  11.934  28.388  23.124  0.0366  0.1188 -0.0858
64164W        W 7258  11.990  28.919  26.944  0.3219 -0.2519  0.2630
64165W        W 7259  11.013  29.515  22.910 -0.0281 -0.1822  0.0738
64166W        W 7260  15.214  25.740  25.398  0.0746 -0.1184  0.0332
64167W        W 7261  10.948  30.806  24.529  0.2732  0.2231 -0.1349
64168W        W 7262  10.285  25.942  23.740 -0.3024 -0.0520  0.1920
64169W        W 7263  11.742  27.349  23.996  0.0406  0.0857  0.3530
64170W        W 7264  14.370  25.709  25.971 -0.3878 -0.1832  0.4512
64171W        W 7265  13.993  28.538  24.202 -0.0265 -0.2320 -0.0085
64172W        W 7266  11.918  27.358  26.801 -0.0399 -0.1619  0.0128
64173W        W 7267  11.758  26.992  25.310 -0.0127  0.2401  0.0069
64174W        W 7268  10.878  29.724  26.462  0.1708  0.2686 -0.1640
64175W        W 7269  12.984  26.500  25.749 -0.0087 -0.0620  0.0014
64176W        W 7270  13.523  26.455  24.702 -0.0569 -0.0402 -0.0117
64177W        W 7271  13.042  29.174  26.775  0.0082 -0.2543 -0.3027
64178W        W 7272  11.731  27.452  27.523 -0.2940  0.0850  0.1445
64179W        W 7273  11.109  27.200  23.455 -0.3015 -0.0725  0.1123
64180W        W 7274  14.705  27.750  28.516 -0.1601  0.0812 -0.1931
64181W        W 7275  12.395  28.998  22.478 -0.5306  0.2882  0.3806
64182W        W 7276  11.180  29.598  24.910  0.0375  0.0439 -0.0371
64183W        W 7277  14.062  30.679  25.384  0.0512  0.1559  0.0544
64184W        W 7278  11.730  28.868  23.136  0.0042  0.1082 -0.2330
64185W        W 7279  12.410  29.413  23.697 -0.0916  0.3075  0.2416
64186W        W 7280  12.165  27.568  27.773  0.4424 -0.2390 -0.2617
64187W        W 7281  12.869  28.844  26.398  0.0319  0.0942 -0.0465
64188W        W 7282  10.597  26.812  25.457  0.0560 -0.0810 -0.0199
64189W        W 7283  11.741  27.903  25.020  0.0620 -0.0441  0.0927
64190W        W 7284  12.753  27.900  24.593 -0.1556  0.0827  0.0905
64191W        W 7285  13.137  28.381  24.618 -0.0297  0.1379 -0.4460
64192W        W 7286  11.875  28.161  25.536 -0.0556  0.0442  0.0528
64193W        W 7287  12.522  29.013  27.021 -0.0876  0.0560 -0.0176
64194W        W 7288  12.934  25.878  25.565 -0.2351  0.2546 -0.1137
64195W        W 7289  15.635  29.868  25.077 -0.0613 -0.2188  0.0896
64196W        W 7290  14.140  26.655  27.829 -0.2428 -0.0986  0.0517
64197W        W 7291  12.736  28.315  24.269 -0.2593 -0.1703  0.0276
64198W        W 7292  10.441  29.509  26.476 -0.1445 -0.0358 -0.1984
64199W        W 7293  12.572  29.912  25.562 -0.0811 -0.1280 -0.0507
64200W        W 7294  12.262  26.970  26.047  0.0867 -0.0850 -0.3711
64201W        W 7295  11.219  28.903  26.814  0.1017  0.0737  0.3506
64202W        W 7296  13.142  29.864  23.836 -0.3187 -0.0860  0.2323
64203W        W 7297  11.107  28.609  26.382 -0.1123 -0.0099 -0.0509
64204W        W 7298  13.534  25.586  23.474  0.0024 -0.0494 -0.1135
64205W        W 7299  12.783  28.504  22.492  0.1114 -0.0115  0.1027
64206W        W 7300  13.086  27.860  25.006  0.3310  0.2019 -0.2852
64207W        W 7301  15.271  25.495  26.287  0.1377 -0.2171  0.2643
64208W        W 7302  13.299  28.331  23.679 -0.0677  0.1754  0.2576
64209W        W 7303  13.700  26.218  26.197  0.0903  0.1480 -0.0569
64210W        W 7304  11.519  26.251  27.104  0.0605 -0.0318 -0.2431
64211W        W 7305  13.591  28.227  24.104  0.2101 -0.2020  0.1055
64212W        W 7306  10.846  28.231  26.569  0.0794  0.2882 -0.0723
64213W        W 7307  13.654  28.718  26.170  0.1267  0.0469  0.2382
64214W        W 7308  12.672  28.527  28.196  0.0965 -0.0010  0.0175
64215W        W 7309  12.166  26.244  25.594  0.0580 -0.0068  0.2306
64216W        W 7310  12.468  26.641  25.750 -0.0021  0.0173  0.1772
64217W        W 7311  12.040  27.807  25.882  0.0167  0.0485 -0.0676
64218W        W 7312  14.110  27.566  25.980 -0.1280  0.2199  0.2376
64219W        W 7313  11.892  28.599  24.239  0.3560  0.0975 -0.0497
64220W        W 7314  15.009  27.898  25.563  0.0936  0.1378  0.2177
64221W        W 7315  12.055  28.518  25.802 -0.0331 -0.0934  0.0664
64222W        W 7316  14.363  26.553  24.619 -0.2718  0.4114 -0.4730
64223W        W 7317  13.820  28.510  22.063  0.0007 -0.0636 -0.2765
64224W        W 7318  10.764  28.956  25.444  0.1616  0.3640 -0.1643
64225W        W 7319  13.910  25.155  27.895 -0.0999 -0.0774  0.0836
64226W        W 7320  12.342  28.748  25.014 -0.0041 -0.2427 -0.1654
64227W        W 7321  13.159  27.305  24.970 -0.1506  0.1580 -0.0271
64228W        W 7322  13.713  26.782  26.373 -0.1501  0.1633 -0.0458
64229W        W 7323  12.946  27.413  25.751  0.1008 -0.0680 -0.1709
64230W        W 7324  12.810  28.799  27.421  0.0785  0.2005 -0.0957
64231W        W 7325  10.658  26.309  28.372  0.0443 -0.2036 -0.2145
64232W        W 7326  14.685  28.715  26.801 -0.0268 -0.1190  0.2524
64233W        W 7327  13.470  26.474  24.119  0.1484  0.0505  0.2355
64234W        W 7328  13.951  25.237  26.449  0.0319 -0.1471 -0.0346
64235W        W 7329  16.135  27.768  25.269  0.2706 -0.0557 -0.0836
64236W        W 7330  14.552  27.059  25.538 -0.1522 -0.0074  0.1724
64237W        W 7331  11.828  27.377  24.932  0.0056 -0.1453 -0.0489
64238W        W 7332  14.021  27.445  27.499 -0.0231  0.0664 -0.3166
64239W        W 7333   9.951  25.882  23.094 -0.2465  0.2776 -0.1663
64240W        W 7334  12.598  26.709  26.894  0.1111  0.0845 -0.2937
64241W        W 7335  12.882  30.235  24.048 -0.0864  0.0848 -0.2531
64242W        W 7336  14.144  28.833  23.690 -0.0737 -0.0892 -0.0708
64243W        W 7337  13.830  26.778  24.435  0.3485 -0.0403  0.0685
64244W        W 7338  12.842  28.742  24.862  0.2078  0.0673  0.2715
64245W        W 7339  12.330  30.500  26.248 -0.0134  0.2420 -0.2717
64246W        W 7340  10.433  25.872  24.890  0.1649 -0.0202 -0.2668
64247W        W 7341  10.931  27.820  24.404 -0.1958 -0.1531  0.2326
64248W        W 7342  12.805  28.621  26.817  0.3498 -0.1914 -0.0965
64249W        W 7343  14.084  27.810  27.092  0.0036  0.1002  0.0860
64250W        W 7344  11.207  26.079  23.980 -0.0923  0.1744  0.2934
64251W        W 7345  14.205  25.845  28.040 -0.1837  0.0820 -0.0085
64252W        W 7346  10.488  30.040  24.631  0.1996 -0.1870 -0.2194
64253W        W 7347  12.240  26.430  26.145  0.0777  0.0348  0.2505
64254W        W 7348  11.891  29.775  26.620 -0.0200 -0.1064 -0.3660
64255W        W 7349  11.681  30.080  25.666  0.2994  0.0789 -0.3119
64256W        W 7350  12.801  29.276  23.924  0.3513 -0.1107 -0.0270
64257W        W 7351  13.358  27.192  26.434 -0.1795 -0.0656  0.0249
64258W        W 7352  14.440  27.177  26.413 -0.1886 -0.2861 -0.1104
64259W        W 7353  13.399  27.595  26.670  0.2298  0.1069 -0.0900
64260W        W 7354  15.711  27.420  26.922 -0.2753 -0.0870 -0.0594
64261W        W 7355  12.034  28.852  27.849 -0.0546 -0.0033  0.1531
64262W        W 7356  11.163  29.106  24.987  0.1382 -0.0847 -0.1491
64263W        W 7357  14.349  28.743  25.582 -0.0785  0.1849 -0.0497
64264W        W 7358  15.665  28.239  24.996 -0.1073 -0.1177  0.0207
64265W        W 7359  12.075  29.767  25.669  0.1198  0.0953  0.1573
64266W        W 7360  11.087  27.844  26.904  0.3123  0.2604  0.1453
64267W        W 7361  13.076  28.136  28.096  0.0853  0.0887 -0.1671
64268W        W 7362  12.945  28.295  25.877 -0.1092  0.1695 -0.0732
64269W        W 7363  10.595  25.271  25.592 -0.0985 -0.2499  0.1304
64270W        W 7364  11.637  27.852  23.718  0.0726 -0.0503  0.0038
64271W        W 7365  12.394  29.439  27.857 -0.1261 -0.0728  0.1311
64272W        W 7366  11.088  29.174  27.700 -0.2053  0.1096  0.0242
64273W        W 7367  11.153  30.138  23.029 -0.1252 -0.2930  0.0132
64274W        W 7368  13.338  28.712  25.008  0.2641 -0.0909 -0.1075
64275W        W 7369  13.043  28.920  23.688  0.0491  0.1309 -0.1910
64276W        W 7370  14.022  30.115  25.429 -0.2362  0.0659 -0.0447
64277W        W 7371  12.757  27.821  23.960 -0.5363  0.0538  0.1963
64278W        W 7372  11.677  29.087  25.001 -0.0246  0.2021  0.0981
64279W        W 7373  10.408  29.942  23.623  0.1956 -0.1437 -0.1930
64280W        W 7374  14.010  28.130  25.025  0.2122  0.3975 -0.0379
64281W        W 7375  12.807  31.384  25.036  0.2835  0.0079  0.1466
64282W        W 7376  14.214  28.530  27.508  0.1449  0.1744  0.1887
64283W        W 7377  13.693  26.236  23.676  0.0533  0.2795  0.2752
64284W        W 7378  12.934  27.350  23.869 -0.0279  0.2448  0.2383
64285W        W 7379  15.030  27.038  25.601  0.1636  0.0197  0.1997
64286W        W 7380  13.359  29.502  26.865  0.0239 -0.3892 -0.0899
64287W        W 7381  12.603  28.000  25.140 -0.2553  0.0778 -0.1797
64288W        W 7382  12.017  26.804  24.712 -0.2214 -0.1721 -0.2132
64289W        W 7383  10.068  27.688  27.021  0.1026  0.0759 -0.2171
64290W        W 7384  15.057  26.724  28.455 -0.1586 -0.2874  0.2204
64291W        W 7385  11.445  30.352  27.208 -0.0866  0.0490 -0.0270
64292W        W 7386  14.477  28.338  24.967  0.0113  0.2054 -0.1911
64293W        W 7387  10.949  28.448  25.581  0.1692  0.3508  0.3570
64294W        W 7388  11.867  28.762  25.341  0.0385  0.0596  0.2387
64295W        W 7389  14.319  24.886  26.624 -0.0109 -0.2157 -0.1396
64296W        W 7390  12.774  28.109  23.405 -0.1824  0.2374  0.2462
64297W        W 7391  12.014  27.231  25.690 -0.3859  0.4311 -0.1521
64298W        W 7392  11.691  29.907  25.092 -0.0725 -0.1707  0.0966
64299W        W 7393  11.500  30.458  23.857  0.1152  0.0047  0.0365
64300W        W 7394  13.760  29.566  24.165 -0.0497  0.1595  0.2441
64301W        W 7395  10.482  25.629  24.106 -0.0826  0.4047  0.0407
64302W        W 7396  14.366  26.203  25.549  0.1019  0.1110  0.1875
64303W        W 7397  12.083  28.133  27.102  0.0234  0.1358  0.0861
64304W        W 7398  14.444  26.250  27.858  0.1725  0.1219 -0.0548
64305W        W 7399  12.055  28.299  25.042 -0.1733  0.0908  0.2628
64306W        W 7400  13.968  26.066  24.028 -0.1794  0.1090 -0.0375
64307W        W 7401  13.214  27.810  27.164  0.2208 -0.0633  0.0347
64308W        W 7402  11.732  27.646  25.467 -0.1057  0.2699  0.0296
64309W        W 7403  13.964  27.160  23.429  0.0289  0.2419 -0.0953
64310W        W 7404  15.291  28.043  27.044  0.0352  0.2943  0.2984
64311W        W 7405  11.484  28.386  23.896 -0.2101 -0.1960 -0.0624
64312W        W 7406  13.502  30.035  27.192 -0.1321 -0.0250 -0.1601
64313W        W 7407  10.773  27.046  23.778  0.0452 -0.1006 -0.2678
64314W        W 7408  10.932  26.406  24.499 -0.0862 -0.2288  0.0470
64315W        W 7409  11.548  28.657  25.705 -0.1385 -0.3577 -0.3159
64316W        W 7410  12.954  28.331  25.231 -0.3211 -0.2361  0.0557
64317W        W 7411  13.982  29.608  25.756  0.0638  0.1732 -0.2031
64318W        W 7412  11.413  25.874  26.454 -0.0601  0.0441 -0.1183
64319W        W 7413  14.060  28.504  24.692 -0.2302 -0.0265 -0.2233
64320W        W 7414  13.084  28.353  26.358 -0.1139  0.1391  0.0808
64321W        W 7415  12.200  27.981  23.243 -0.2527  0.0446 -0.2676
64322W        W 7416  14.239  26.796  25.296  0.0257  0.2299  0.0101
64323W        W 7417  14.713  28.965  24.783  0.0210  0.1303  0.0471
64324W        W 7418  10.771  27.739  25.700  0.0561 -0.2559 -0.2342
64325W        W 7419  13.438  28.210  25.098  0.0156  0.1714  0.3506
64326W        W 7420  15.770  29.675  26.069  0.0599  0.0585 -0.0941
64327W        W 7421  11.805  27.743  26.356  0.2263  0.0513 -0.2811
64328W        W 7422  10.483  27.834  24.539 -0.0296  0.0557 -0.0556
64329W        W 7423  12.188  30.391  25.359  0.0135 -0.2058 -0.0334
64330W        W 7424  14.400  25.276  25.707 -0.2112 -0.0946 -0.3218
64331W        W 7425  13.315  27.102  25.902 -0.1859 -0.0434  0.1433
64332W        W 7426  13.033  28.037  22.455  0.1709  0.3611 -0.0014
64333W        W 7427  13.755  25.876  26.705  0.1409  0.4552  0.1659
64334W        W 7428  11.910  29.146  27.431 -0.0615 -0.2298 -0.2257
64335W        W 7429  11.310  29.927  26.968 -0.1413  0.1106 -0.4881
64336W        W 7430  11.912  29.045  23.964 -0.2302  0.0296 -0.0708
64337W        W 7431  12.741  26.505  26.247 -0.1723 -0.2335  0.0847
64338W        W 7432  13.695  29.436  24.932  0.1529  0.1284  0.1546
64339W        W 7433  13.170  29.214  25.060  0.1301  0.3974 -0.2442
64340W        W 7434  13.247  27.957  25.491 -0.3372  0.1073 -0.1433
64341W        W 7435  12.108  27.286  24.484 -0.0100  0.1363  0.0551
64342W        W 7436  13.624  28.211  24.612 -0.0732 -0.3925 -0.3000
64343W        W 7437  11.587  27.038  24.619  0.2459  0.2487 -0.1135
64344W        W 7438  13.542  26.913  25.365 -0.0639  0.2602 -0.0754
64345W        W 7439  13.158  26.126  24.700 -0.1983 -0.0692  0.1784
64346W        W 7440  12.212  28.433  26.740 -0.1000 -0.2093 -0.0501
64347W        W 7441  10.823  28.246  23.257  0.0562  0.1272  0.0353
64348W        W 7442  12.395  29.029  24.038  0.2150 -0.0768 -0.3292
64349W        W 7443  12.320  27.697  24.802 -0.2446 -0.0989 -0.0516
64350W        W 7444  11.227  27.892  26.415 -0.1007  0.0561  0.1081
64351W        W 7445  10.376  28.470  26.495 -0.3942  0.4955 -0.3803
64352W        W 7446  11.593  28.414  25.113  0.1147  0.0254 -0.1855
64353W        W 7447  10.918  27.614  25.174  0.3956 -0.3125 -0.1455
64354W        W 7448  14.727  26.827  25.021 -0.0322 -0.1339  0.1733
64355W        W 7449  11.991  26.519  27.690 -0.0751 -0.2124  0.2340
64356W        W 7450  10.911  27.266  25.614  0.0954  0.0435 -0.1213
64357W        W 7451  14.408  27.594  24.714 -0.1460 -0.3068  0.1183
64358W        W 7452  13.547  28.751  24.447 -0.0360  0.1276  0.1304
64359W        W 7453  10.749  27.051  26.591 -0.0297  0.1732  0.1592
64360W        W 7454  14.304  28.404  26.419 -0.0556 -0.0345 -0.1918
64361W        W 7455  11.457  29.309  23.276  0.2185  0.0828  0.0068
64362W        W 7456  13.470  28.402  28.050  0.0903 -0.0560 -0.4290
64363W        W 7457  12.764  26.967  25.882 -0.0387 -0.0608 -0.2486
64364W        W 7458  10.616  27.863  24.001  0.0161 -0.2442 -0.0070
64365W        W 7459  13.183  26.201  26.066  0.1502  0.0914 -0.0410
64366W        W 7460  12.953  29.091  23.236  0.1342 -0.0555  0.3296
64367W        W 7461  11.916  28.359  22.173 -0.0779 -0.0987 -0.1209
64368W        W 7462  11.825  29.530  24.769  0.0216 -0.2012 -0.1500
64369W        W 7463  13.961  30.218  27.683  0.2521 -0.2629 -0.0268
64370W        W 7464  11.549  26.837  27.911 -0.1515  0.0888 -0.5389
64371W        W 7465  13.322  28.505  25.484 -0.4301  0.2980 -0.2407
64372W        W 7466  12.658  28.996  27.978 -0.0296  0.1178 -0.1824
64373W        W 7467  13.897  27.747  24.726 -0.0213 -0.0731  0.2263
64374W        W 7468  14.175  26.375  27.359 -0.0967 -0.3045  0.1769
64375W        W 7469  12.481  26.757  24.512  0.0277 -0.0497  0.1645
64376W        W 7470  11.179  26.824  26.861 -0.0067 -0.0310 -0.0996
64377W        W 7471  10.286  28.068  27.348  0.2442  0.0908 -0.0568
64378W        W 7472  13.826  27.115  25.764  0.1987 -0.3466  0.1306
64379W        W 7473  11.496  25.343  25.515 -0.2534 -0.0127 -0.1527
64380W        W 7474  11.230  25.798  25.257  0.0481 -0.1589 -0.0080
64381W        W 7475  13.495  28.300  25.892 -0.1321 -0.0995 -0.0741
64382W        W 7476  11.098  28.256  24.133  0.3095  0.0584  0.2848
64383W        W 7477  12.319  27.225  25.006  0.3533  0.0047  0.0847
64384W        W 7478  13.637  27.475  27.090  0.0887  0.1655  0.1568
64385W        W 7479  12.730  29.102  25.891 -0.1104 -0.0512  0.0479
64386W        W 7480  13.227  28.827  27.107 -0.0428  0.3657 -0.2616
64387W        W 7481  11.279  27.303  24.275  0.3229  0.1213 -0.1025
64388W        W 7482  13.202  28.006  24.315  0.1439  0.1153  0.1582
64389W        W 7483  13.454  30.420  27.469  0.0354 -0.1877  0.0736
64390W        W 7484  14.040  29.101  25.642  0.0794 -0.0227 -0.4283
64391W        W 7485  12.952  29.491  25.453 -0.2658  0.2875  0.0594
64392W        W 7486  12.511  27.558  24.321  0.0868  0.0079  0.0896
64393W        W 7487  10.918  26.297  27.116  0.4426  0.2450 -0.1240
64394W        W 7488  11.895  28.703  24.810 -0.2072  0.2862 -0.0333
64395W        W 7489  12.758  28.657  25.501  0.2222 -0.3722 -0.0227
64396W        W 7490  13.630  26.604  27.196 -0.0388  0.2563 -0.2170
64397W        W 7491  11.531  26.457  25.520  0.1371  0.2539  0.2019
64398W        W 7492  12.744  27.453  24.799 -0.0805 -0.0750  0.3944
64399W        W 7493  12.061  29.290  26.468  0.0962  0.1764  0.2765
64400W        W 7494  12.159  28.082  26.315 -0.4105  0.0917  0.1733
64401W        W 7495  11.774  27.752  30.517 -0.0042  0.0540 -0.1254
64402W        W 7496  13.209  26.818  27.401  0.1418  0.0670  0.0080
64403W        W 7497  11.946  26.595  26.678 -0.4619 -0.1267  0.0195
64404W        W 7498  15.009  27.968  29.229 -0.0883 -0.2407 -0.1802
64405W        W 7499  10.696  28.003  29.679  0.0425  0.0578 -0.0707
64406W        W 7500  14.095  30.689  27.749  0.2554 -0.2749  0.2317
64407W        W 7501  12.701  26.224  28.497  0.2097  0.1833  0.2733
64408W        W 7502  13.442  28.699  31.108 -0.1612  0.1088 -0.1535
64409W        W 7503  13.422  28.090  30.843 -0.0202  0.0866 -0.1056
64410W        W 7504  13.407  28.379  27.303 -0.3152  0.0271  0.3544
64411W        W 7505  12.836  27.153  28.180  0.0391  0.0091 -0.3132
64412W        W 7506  11.294  29.310  31.878  0.0414  0.1451  0.0328
64413W        W 7507  13.176  26.270  28.448  0.1521 -0.2237 -0.0234
64414W        W 7508  12.068  26.101  29.576  0.2404  0.0504 -0.1237
64415W        W 7509  14.448  27.185  29.606  0.3095  0.4066 -0.2481
64416W        W 7510  12.280  28.851  28.267  0.0783  0.1337 -0.1277
64417W        W 7511  12.272  27.280  29.088  0.0885  0.2811  0.2458
64418W        W 7512  12.385  27.163  26.933  0.2698  0.3972 -0.2175
64419W        W 7513  13.406  29.562  28.831 -0.2606  0.0671 -0.0184
64420W        W 7514  13.841  26.471  29.906  0.0550 -0.2543 -0.0176
64421W        W 7515  14.393  26.176  30.723 -0.1474 -0.0447  0.0648
64422W        W 7516  12.716  29.854  27.878 -0.0189  0.2454 -0.0570
64423W        W 7517  10.175  28.342  26.929  0.0195 -0.0832 -0.0683
64424W        W 7518  11.526  28.162  29.501  0.0717 -0.0882  0.1457
64425W        W 7519  11.992  28.259  30.350 -0.0296 -0.2330 -0.0516
64426W        W 7520  13.781  26.896  29.174  0.0442  0.2118 -0.2116
64427W        W 7521  14.732  27.067  28.389 -0.1239  0.2050 -0.0997
64428W        W 7522  11.599  28.667  29.650 -0.1186  0.2850  0.3230
64429W        W 7523  11.775  28.193  30.863 -0.1727  0.1917  0.1998
64430W        W 7524  13.887  27.277  31.099  0.1530 -0.0257  0.0114
64431W        W 7525  11.165  29.643  27.897 -0.2286  0.1917 -0.1926
64432W        W 7526  11.984  30.318  28.059  0.0890  0.0813 -0.2903
64433W        W 7527  13.040  29.818  28.596  0.3958 -0.5127 -0.0384
64434W        W 7528  13.906  29.306  28.033 -0.0879  0.0312 -0.2652
64435W        W 7529  13.687  28.989  29.857 -0.0784  0.1779  0.2049
64436W        W 7530  11.913  29.369  31.315 -0.1448 -0.4671 -0.1199
64437W        W 7531  11.000  29.652  27.337 -0.1371 -0.0712 -0.1165
64438W        W 7532  12.375  29.281  30.696 -0.1771  0.2329 -0.1923
64439W        W 7533  10.998  28.214  30.518 -0.1341  0.2693  0.0087
64440W        W 7534  13.410  27.286  28.216  0.1601  0.2455 -0.1969
64441W        W 7535  13.717  29.172  28.788  0.0376 -0.0523  0.1006
64442W        W 7536  12.558  29.583  27.403  0.1528  0.0516 -0.2751
64443W        W 7537  12.473  28.468  29.930 -0.0857  0.3956  0.1424
64444W        W 7538  11.393  26.852   0.520  0.2142  0.2698 -0.2599
64445W        W 7539  10.928  29.162  30.101 -0.0847  0.3409 -0.0285
64446W        W 7540  14.897  26.470  31.413  0.1088 -0.0459 -0.2165
64447W        W 7541  11.769  30.208  27.554  0.0437 -0.0544 -0.0910
64448W        W 7542  12.210  27.785  26.786 -0.1892  0.0545  0.4019
64449W        W 7543  12.677  26.364  27.264  0.1841  0.0662 -0.0825
64450W        W 7544  13.904  26.179  27.772 -0.1967  0.1175 -0.1831
64451W        W 7545  11.919  25.752  28.899  0.1897  0.0162 -0.1206
64452W        W 7546  12.351  28.373  30.890 -0.1682  0.2923  0.0669
64453W        W 7547  12.242  26.946  29.558  0.0545  0.0742 -0.0608
64454W        W 7548  13.325  27.408  29.183 -0.2567  0.3391  0.1787
64455W        W 7549  12.129  27.581  27.229  0.1096 -0.0272 -0.0793
64456W        W 7550  13.470  26.707  29.552 -0.1278 -0.0270  0.0504
64457W        W 7551  11.168  27.822  29.674 -0.0443 -0.4246 -0.3160
64458W        W 7552  11.029  28.285  29.330 -0.2088  0.2013 -0.2228
64459W        W 7553  13.800  29.078  26.919  0.0162 -0.1812 -0.0122
64460W        W 7554  14.365  27.412  28.672  0.2177  0.0324  0.1472
64461W        W 7555  13.899  28.656  26.605 -0.1843 -0.0777  0.2221
64462W        W 7556  12.876  25.900  27.505 -0.0334 -0.0022 -0.0386
64463W        W 7557  11.049  27.149   0.131 -0.0433 -0.3237 -0.0412
64464W        W 7558  10.719  26.486  30.653 -0.0066 -0.1848 -0.1961
64465W        W 7559  11.461  26.991  28.415  0.0771 -0.0932 -0.0749
64466W        W 7560  14.303  29.071  27.669 -0.0152 -0.1521 -0.3429
64467W        W 7561  10.548  29.335  30.457  0.1475 -0.2544 -0.2068
64468W        W 7562  14.642  25.938  28.292 -0.0144  0.1999 -0.2030
64469W        W 7563  13.106  27.026  28.621  0.0370 -0.1419 -0.3956
64470W        W 7564  14.258  28.490  29.106  0.4565 -0.0722  0.1088
64471W        W 7565  14.908  27.817  26.602  0.3221 -0.0375 -0.0139
64472W        W 7566  14.503  24.745  29.109  0.0300  0.3233 -0.1992
64473W        W 7567  14.360  25.178  29.427 -0.0608  0.1228 -0.1747
64474W        W 7568  11.982  28.559  27.397  0.2544 -0.1795  0.1611
64475W        W 7569  13.152  28.612  28.494 -0.3773  0.4465 -0.1081
64476W        W 7570  12.542  27.902  31.388  0.0946 -0.1545 -0.2394
64477W        W 7571  14.384  27.171  27.723 -0.0533 -0.1263 -0.0874
64478W        W 7572  12.317  29.374  29.664  0.1627  0.1881  0.2960
64479W        W 7573  14.448  26.121  29.343  0.0036  0.1507 -0.1647
64480W        W 7574  13.681  27.877   0.363  0.4478  0.0750  0.3426
64481W        W 7575  11.569  29.278  27.822 -0.0960 -0.2518 -0.1996
64482W        W 7576  12.248  28.755  28.764 -0.0365  0.1811  0.2965
64483W        W 7577  12.039  28.182  28.455  0.0087  0.0708  0.0221
64484W        W 7578  10.105  26.084  29.772 -0.3954  0.2224  0.0664
64485W        W 7579  10.750  28.586  30.760 -0.0642  0.0939  0.1259
64486W        W 7580  14.055  26.276  28.243  0.4211  0.1236 -0.1537
64487W        W 7581  10.706  27.316  30.227 -0.1041  0.3873  0.1869
64488W        W 7582  14.568  25.634  28.801  0.0963  0.0346 -0.1398
64489W        W 7583  12.696  28.070  29.053 -0.0568 -0.1753  0.1067
64490W        W 7584  13.890  28.626  28.741 -0.0912 -0.1390 -0.0541
64491W        W 7585  13.743  25.825  28.198  0.0264 -0.0004  0.2635
64492W        W 7586  14.734  29.222  27.882 -0.1297 -0.1378 -0.2081
64493W        W 7587  11.141  28.284  29.864 -0.0428 -0.0636 -0.0432
64494W        W 7588  11.110  27.347  28.412 -0.0020 -0.0423 -0.0134
64495W        W 7589  13.264  27.184  30.191 -0.0948 -0.0509  0.1194
64496W        W 7590  12.477  26.297  29.255  0.4486 -0.1146  0.0339
64497W        W 7591  13.730  27.288  30.414  0.1620 -0.0467  0.2916
64498W        W 7592   9.939  26.901  28.143 -0.3586  0.0616  0.0200
64499W        W 7593  13.123  26.359  27.685  0.1936 -0.0587  0.2366
64500W        W 7594  11.772  28.878  28.335 -0.0281  0.1277  0.4347
64501W        W 7595  11.825  27.869  28.039  0.1055 -0.2308  0.1350
64502W        W 7596  14.459  25.206  31.841  0.3519  0.0661 -0.1109
64503W        W 7597  12.855  28.260  27.406 -0.2705  0.1136 -0.0197
64504W        W 7598  13.881  28.178  29.607  0.3759 -0.0455  0.1666
64505W        W 7599  13.129  29.193  29.543 -0.2065 -0.0380  0.0080
64506W        W 7600  12.805  25.959  29.084  0.2622 -0.0950 -0.0692
64507W        W 7601  10.726  26.025  29.800 -0.1426 -0.2000 -0.0310
64508W        W 7602  10.999  30.043  29.691  0.0237 -0.2093 -0.0435
64509W        W 7603  12.743  28.926  28.940 -0.0809 -0.1592  0.1574
64510W        W 7604  12.827  26.744  27.738  0.0279 -0.1529  0.4029
64511W        W 7605  14.014  28.928  29.103  0.0146  0.1418 -0.1673
64512W        W 7606  13.038  27.437  27.432  0.0261 -0.0546  0.2918
64513W        W 7607  13.018  27.956  30.509 -0.0445  0.1811 -0.0428
64514W        W 7608  13.304  25.472  31.433 -0.0933  0.2403 -0.0500
64515W        W 7609  13.571  27.791  29.409  0.0739 -0.1201  0.3164
64516W        W 7610  12.585  28.097  27.976 -0.0379 -0.4657 -0.2967
64517W        W 7611  10.234  26.881  29.559 -0.0589 -0.1211 -0.2037
64518W        W 7612  13.521  29.898  28.385 -0.0833 -0.0692 -0.0681
64519W        W 7613   9.430  29.165  29.485  0.2551  0.0695  0.1551
64520W        W 7614  11.376  28.577  29.135  0.1462 -0.1953 -0.0061
64521W        W 7615  12.073  29.803  28.272 -0.2684  0.0021 -0.0368
64522W        W 7616  15.866  27.907  29.269 -0.0186 -0.1198 -0.0917
64523W        W 7617  11.298  26.705  31.500 -0.2095 -0.4156  0.1573
64524W        W 7618  13.303  27.638  29.781 -0.1314 -0.2146  0.0718
64525W        W 7619  11.752  27.813  28.636 -0.1520 -0.1030 -0.1854
64526W        W 7620  10.224  28.203  29.856 -0.3541 -0.1127  0.3757
64527W        W 7621  14.088  24.510  27.981 -0.0471 -0.0741  0.3537
64528W        W 7622  14.517  26.824  27.394 -0.3516 -0.2742  0.0260
64529W        W 7623  14.283  27.628  31.918  0.0994  0.1203 -0.0054
64530W        W 7624  14.494  27.443  28.132 -0.0873 -0.0288  0.0755
64531W        W 7625  12.893  25.711  27.043  0.0725 -0.0436  0.2832
64532W        W 7626  11.999  26.690  25.636  0.1010 -0.0918 -0.0425
64533W        W 7627   9.943  28.262  31.496 -0.0039 -0.3542  0.2048
64534W        W 7628  13.028  28.034  28.622  0.0093 -0.0010 -0.2265
64535W        W 7629  12.505  28.194  30.406  0.2096  0.0444  0.3994
64536W        W 7630  12.399  27.417  26.413 -0.4208  0.2888  0.0629
64537W        W 7631  14.424  28.269  28.187  0.2126  0.1574 -0.0804
64538W        W 7632  10.932  27.841  30.218 -0.0874 -0.1096 -0.1167
64539W        W 7633  13.027  28.747  31.409  0.0937 -0.1496  0.0898
64540W        W 7634  14.305  29.318  27.225  0.0354  0.0879  0.2096
64541W        W 7635  12.680  26.907  31.138 -0.2646  0.5286  0.1480
64542W        W 7636  12.630  27.227  27.755  0.1686 -0.0786 -0.0457
64543W        W 7637  13.233  26.894  29.101  0.1760 -0.0862  0.0409
64544W        W 7638  12.035  29.668  27.446  0.1580 -0.1279 -0.1290
64545W        W 7639  14.460  25.552  31.008  0.0572 -0.0125 -0.1986
64546W        W 7640  14.654  28.268  30.159 -0.0374 -0.0261  0.0819
64547W        W 7641  13.460  24.928  30.441  0.2068 -0.4233 -0.1042
64548W        W 7642  14.014  26.274  31.352 -0.1841 -0.1012  0.0900
64549W        W 7643  14.610  26.743  27.942 -0.1580  0.0552  0.0078
64550W        W 7644  14.192  25.929  28.644 -0.0287 -0.1964 -0.0944
64551W        W 7645  11.836  27.345  28.233  0.0624 -0.0087 -0.0080
64552W        W 7646  13.882  26.680  31.102 -0.0610 -0.0460  0.2475
64553W        W 7647  10.090  26.815  30.084  0.2851  0.0678 -0.0460
64554W        W 7648  12.009  28.639  30.027 -0.0121  0.1253 -0.0647
64555W        W 7649  13.265  28.159  29.636 -0.2035 -0.0863  0.1570
64556W        W 7650  14.078  28.203  28.722  0.0108 -0.0709 -0.2551
64557W        W 7651  14.017  25.978  29.711 -0.4836  0.3793 -0.0462
64558W        W 7652  13.266  24.946  27.687  0.0125 -0.1642 -0.0254
64559W        W 7653  11.823  30.002  27.076 -0.1359  0.1793 -0.1224
64560W        W 7654  13.317  27.772  28.331  0.1210 -0.1263  0.1025
64561W        W 7655  13.835  26.451  28.639  0.1740 -0.0420  0.0594
64562W        W 7656  10.163  29.087  31.106 -0.1326  0.1129 -0.0487
64563W        W 7657  12.542  29.317  26.489  0.0110 -0.2367  0.2177
64564W        W 7658  13.125  28.148  31.343  0.2487  0.2626  0.0585
64565W        W 7659  11.636  28.352  27.770 -0.1055 -0.1921  0.1466
64566W        W 7660  15.716  24.615  29.879 -0.5590 -0.0942 -0.0058
64567W        W 7661  10.105  29.024  30.091 -0.2066  0.1082  0.0883
64568W        W 7662  10.808  26.717  29.215 -0.1289  0.0500 -0.1148
64569W        W 7663  10.868  29.381  29.100 -0.3043 -0.0307 -0.1612
64570W        W 7664  14.877  25.678  30.000  0.1460 -0.2619 -0.0323
64571W        W 7665  13.645  28.016  26.840  0.1221 -0.1661 -0.1103
64572W        W 7666  12.646  26.897  29.888  0.0551 -0.0008  0.1228
64573W        W 7667  13.499  26.350  30.280  0.0789  0.1171  0.1757
64574W        W 7668  12.122  27.641  30.211 -0.3977 -0.0733  0.3902
64575W        W 7669  14.853  27.034  29.273  0.1743  0.3519 -0.2539
64576W        W 7670  13.825  25.628  27.638 -0.2127 -0.0335  0.1793
64577W        W 7671  13.194  28.416  30.375  0.0387 -0.1120  0.0970
64578W        W 7672  13.773  25.918  30.560 -0.4501  0.3460  0.2710
64579W        W 7673  10.557  28.202  29.071  0.2294  0.1060  0.2846
64580W        W 7674  14.639  27.328  30.711 -0.3062 -0.2684  0.2555
64581W        W 7675  11.634  26.843  28.947  0.0532 -0.0634  0.1786
64582W        W 7676  10.421  29.071  28.951  0.1878  0.0124 -0.1518
64583W        W 7677  11.563  27.783  30.035  0.2906  0.1696  0.2425
64584W        W 7678  11.926  27.349  28.740  0.1735  0.0445 -0.0022
64585W        W 7679  12.118  28.368  27.997 -0.0589 -0.3359 -0.0629
64586W        W 7680  13.484  25.866  30.998  0.3813  0.2247  0.0736
64587W        W 7681  12.328  27.750  29.356  0.0964 -0.1588  0.1318
64588W        W 7682  14.077  27.674  29.439  0.0965 -0.0962  0.0970
64589W        W 7683  11.534  26.089  28.775 -0.0458 -0.2751 -0.0284
64590W        W 7684  12.283  27.232  28.292 -0.1614 -0.1168 -0.2290
64591W        W 7685  13.431  28.760  28.900 -0.1724  0.2789  0.1436
64592W        W 7686  13.857  26.928  30.655 -0.2898  0.0313 -0.1515
64593W        W 7687  11.711  28.932   1.412  0.1153  0.0051 -0.0799
64594W        W 7688  13.556  26.467  29.148 -0.4589  0.1988  0.1914
64595W        W 7689  16.156  28.517  28.214 -0.1126 -0.1153 -0.0951
64596W        W 7690  14.430  27.263  30.161 -0.3435 -0.1874  0.0987
64597W        W 7691  12.463  29.357  28.306  0.1972 -0.1160 -0.1237
64598W        W 7692  10.379  27.626  29.385 -0.3505 -0.1048  0.0952
64599W        W 7693  12.637  29.918  28.898  0.0749  0.3917  0.0032
64600W        W 7694  13.852  26.095  29.070 -0.2058 -0.1861  0.6221
64601W        W 7695  12.711  27.164  30.283 -0.1764  0.0380 -0.0203
64602W        W 7696  13.157  28.917  28.069  0.0957  0.0437 -0.2268
64603W        W 7697  11.404  29.074  30.482 -0.0810 -0.2591 -0.2424
64604W        W 7698  14.245  25.255  27.394  0.0346 -0.0883  0.2053
64605W        W 7699  13.004  29.767  27.138  0.1544  0.0667  0.4059
64606W        W 7700  13.901  25.536  28.563  0.3431 -0.0097  0.0394
64607W        W 7701  14.880  25.340  29.512  0.1211 -0.0426  0.0412
64608W        W 7702  14.680  26.335  26.053  0.2637 -0.1310 -0.1546
64609W        W 7703  14.028  26.512  30.413 -0.1316 -0.0224 -0.0258
64610W        W 7704  11.880  25.607  29.439 -0.1914  0.0224  0.0711
64611W        W 7705  13.899  27.451  29.030  0.0345  0.2463 -0.2724
64612W        W 7706  10.575  26.836  30.257  0.0854 -0.1578 -0.1361
64613W        W 7707  12.654  28.345  31.309  0.0706 -0.1562 -0.1262
64614W        W 7708  11.672  27.859   0.004 -0.0245  0.1979  0.0491
64615W        W 7709  14.954  24.885  28.694  0.3083  0.1765 -0.0088
64616W        W 7710  12.743  26.240  29.825 -0.0622  0.0428  0.0714
64617W        W 7711  12.972  26.912  29.529 -0.1520 -0.1592 -0.1229
64618W        W 7712  12.224  28.249  29.496 -0.1241 -0.4100  0.2373
64619W        W 7713  14.736  28.482  29.182 -0.0980 -0.0846 -0.0604
64620W        W 7714  14.741  26.151  28.705  0.1908 -0.3691 -0.1692
64621W        W 7715  12.098  26.696  30.292 -0.0064 -0.1433 -0.1238
64622W        W 7716  13.530  26.370  28.156 -0.1854 -0.2168 -0.2641
64623W        W 7717  12.327  26.802  27.449  0.2245  0.0691  0.2102
64624W        W 7718  11.278  28.673  28.539 -0.0772 -0.1660 -0.0106
64625W        W 7719  12.997  25.769  31.021  0.1156  0.1027  0.2977
64626W        W 7720  13.245  26.793  28.177 -0.2299 -0.0869  0.1263
64627W        W 7721  12.237  27.729  28.341  0.0984  0.0431 -0.2360
64628W        W 7722  13.987  27.365  29.990 -0.2421 -0.0566 -0.2633
64629W        W 7723  14.011  26.968  29.578 -0.0829  0.0229  0.1871
64630W        W 7724  13.428  27.233  30.822 -0.1959 -0.1404  0.1791
64631W        W 7725  12.303  26.514  29.831 -0.1104  0.0610 -0.1823
64632W        W 7726  12.855  28.157  30.023 -0.1823  0.0401  0.1072
64633W        W 7727  12.387  26.937  26.523 -0.2651 -0.2777  0.1110
64634W        W 7728  14.825  26.364  30.943  0.1657 -0.1299 -0.0649
64635W        W 7729  13.876  27.365  28.397  0.0027 -0.1578 -0.1381
64636W        W 7730  12.717  27.524  27.003 -0.1064 -0.0274 -0.0641
64637W        W 7731  10.970  26.533  30.143 -0.0249  0.0909 -0.1304
64638W        W 7732  13.970  27.475   0.302  0.1666 -0.0387 -0.0890
64639W        W 7733  12.945  26.553  28.868 -0.0956  0.1909 -0.1885
64640W        W 7734  12.548  26.967  30.676 -0.1612 -0.1735  0.0491
64641W        W 7735  13.082  29.583  27.707  0.3896  0.2678  0.1808
64642W        W 7736  13.137  29.276  29.053 -0.1431  0.0809 -0.1408
64643W        W 7737  13.086  27.612  27.909  0.0821 -0.2100  0.0728
64644W        W 7738   9.416  26.493  28.885  0.2117 -0.0354  0.3681
64645W        W 7739  11.164  27.058  30.255  0.1105  0.1000 -0.1861
64646W        W 7740  12.405  25.972  27.135  0.1115 -0.1155 -0.0268
64647W        W 7741  12.492  28.549  27.697 -0.0567  0.3710 -0.0659
64648W        W 7742  13.604  27.189  28.782 -0.1633 -0.1136  0.2052
64649W        W 7743  14.282  27.713  30.849 -0.1372  0.0548 -0.2025
64650W        W 7744  11.621  26.704  27.293  0.1044 -0.0685 -0.0412
64651W        W 7745  14.877  26.854  30.980  0.1842 -0.1377  0.0099
64652W        W 7746  10.251  28.595  29.189  0.1801  0.3664 -0.1558
64653W        W 7747  13.240  26.210  29.868 -0.0686  0.0339 -0.0131
64654W        W 7748  12.147  28.895  30.928  0.0887 -0.0736 -0.2755
64655W        W 7749  10.136  28.087  29.378 -0.0227 -0.0842  0.0472
64656W        W 7750  11.530  28.669  30.194 -0.1278 -0.2429 -0.0612
64657W        W 7751  14.462  25.646  29.588  0.3314 -0.2612 -0.0835
64658W        W 7752  14.873  27.236  27.827 -0.1325 -0.1325  0.2137
64659W        W 7753  12.347  27.986  29.969  0.1155  0.1832  0.1318
64660W        W 7754  14.795  26.910  30.061  0.1711  0.3238 -0.3179
64661W        W 7755  12.666  28.661  31.771  0.0452  0.2763  0.1786
64662W        W 7756  12.807  27.836  29.624  0.0259  0.2216 -0.0485
64663W        W 7757  13.753  27.864  29.987 -0.2880 -0.3221  0.1810
64664W        W 7758  13.437  26.711  28.677  0.3053 -0.2356 -0.2051
64665W        W 7759  11.260  29.029  29.308 -0.0628 -0.2012 -0.2958
64666W        W 7760  11.246  25.651  30.394  0.2534  0.0096  0.3076
64667W        W 7761  13.040  27.471  30.599  0.1117  0.0851  0.1218
64668W        W 7762  12.755  28.312  29.509  0.0380  0.1584 -0.0606
64669W        W 7763  13.015  25.904  28.038  0.1382 -0.1056 -0.1112
64670W        W 7764  13.191  30.406  26.388  0.0301  0.0245  0.2759
64671W        W 7765  10.455  27.430  30.747 -0.1186 -0.1508 -0.0176
64672W        W 7766  10.559  28.436  29.519 -0.0070  0.0740 -0.3651
64673W        W 7767  10.726  28.859  31.452  0.1179  0.0862 -0.1148
64674W        W 7768  13.389  28.841  27.623  0.1193 -0.0608  0.2960
64675W        W 7769  13.406  29.440  28.260  0.2562 -0.2742 -0.1173
64676W        W 7770  12.970  29.688  29.574 -0.3350 -0.1834 -0.1839
64677W        W 7771  12.301  28.085  27.547  0.0321  0.1207 -0.0454
64678W        W 7772  11.339  29.708  26.543 -0.2329  0.0647 -0.2598
64679W        W 7773  10.635  27.201  29.368  0.3173  0.0499 -0.1838
64680W        W 7774  14.813  30.002  27.597 -0.2117  0.1961 -0.5694
64681W        W 7775  12.245  29.454  26.938 -0.0728 -0.1099  0.1134
64682W        W 7776  14.703  27.680  30.264 -0.1387 -0.0746  0.6276
64683W        W 7777  15.217  25.836  26.743 -0.2106 -0.2237  0.1763
64684W        W 7778  15.206  27.581  29.585 -0.2164  0.0565  0.0097
64685W        W 7779  15.086  26.057  29.035 -0.1833  0.1092 -0.0182
64686W        W 7780  13.539  28.997  31.619  0.2204 -0.0818 -0.4010
64687W        W 7781  12.319  27.725  28.849 -0.1729  0.0709  0.0983
64688W        W 7782  12.363  26.403  28.806 -0.0176 -0.0100 -0.1902
64689W        W 7783  11.552  27.547  29.464  0.1533 -0.0588 -0.0577
64690W        W 7784  15.429  25.493  31.703  0.1785  0.0032  0.1842
64691W        W 7785  10.674  29.345  31.285 -0.1645 -0.1094 -0.1572
64692W        W 7786  13.902  28.474  28.280  0.2839 -0.2399 -0.0031
64693W        W 7787  11.124  26.878  28.872  0.3743  0.1328  0.0942
64694W        W 7788  13.742  26.891  28.306 -0.0217  0.1632 -0.0471
64695W        W 7789  16.003  25.557  30.227 -0.0813 -0.4495  0.3348
64696W        W 7790  12.607  27.839  26.241  0.0569 -0.0141 -0.0819
64697W        W 7791  12.778  26.698  28.398  0.0051 -0.2791  0.0350
64698W        W 7792  11.643  29.024  28.901  0.2770  0.2316  0.0600
64699W        W 7793  11.484  28.199  30.361  0.1390  0.0092  0.2527
64700W        W 7794  12.987  28.415  30.901  0.1125 -0.0731 -0.3121
64701W        W 7795  10.338  26.464  29.316  0.1227 -0.1879 -0.1082
64702W        W 7796  14.404  24.927  27.974  0.0775  0.1404  0.0510
64703W        W 7797  11.736  28.164  29.048 -0.1807  0.2889 -0.1468
64704W        W 7798  14.458  26.431  30.189  0.1018 -0.2192  0.1017
64705W        W 7799  11.340  28.200  28.750  0.1249  0.2943  0.0557
64706W        W 7800  13.566  25.088  28.330  0.0411  0.0257 -0.2105
64707W        W 7801  12.921  27.323  29.813  0.2494  0.2182 -0.2072
64708W        W 7802  11.816  27.331  29.898 -0.2455 -0.0184 -0.2362
64709W        W 7803  11.326  27.145  27.561 -0.3778  0.0178 -0.1750
64710W        W 7804  13.084  27.686  31.030  0.0148 -0.1029 -0.0398
64711W        W 7805  13.187  27.119  27.787 -0.0790  0.2912  0.3215
64712W        W 7806  13.297  29.924  30.648 -0.1423 -0.0982 -0.1790
64713W        W 7807  11.294  27.898  29.133 -0.0700 -0.0952  0.1505
64714W        W 7808  13.805  24.397  29.168  0.1509 -0.0915  0.2070
64715W        W 7809  12.351  26.833  28.560  0.0190 -0.0958  0.0757
64716W        W 7810  13.160  27.545  28.729  0.2493 -0.0850  0.2095
64717W        W 7811  14.574  29.831  31.340  0.2268  0.0576  0.0033
64718W        W 7812  11.378  27.330  28.855 -0.2832  0.0769 -0.1375
64719W        W 7813  13.208  27.762  26.007  0.0232 -0.0489  0.0047
64720W        W 7814  16.043  26.034  30.071  0.0129 -0.0097 -0.1316
64721W        W 7815  12.059  31.107  28.147  0.0048 -0.0437 -0.0415
64722W        W 7816  14.583  26.593  28.429 -0.0557 -0.0792 -0.0826
64723W        W 7817  13.126  28.785  29.279  0.1691 -0.2835  0.4274
64724W        W 7818  10.378  25.702  29.563  0.0692 -0.2374  0.2495
64725W        W 7819  13.546  29.066  29.350 -0.1642  0.2365  0.1536
64726W        W 7820  15.400  28.957  30.308 -0.0657 -0.1498  0.0586
64727W        W 7821  12.674  25.556  27.890 -0.2675 -0.1378  0.0945
64728W        W 7822  11.080  28.379  28.124  0.2349 -0.3455 -0.1072
64729W        W 7823  10.820  30.400  27.597  0.1408 -0.2713  0.1635
64730W        W 7824  14.605  26.632  29.559 -0.0447 -0.2013  0.0707
64731W        W 7825  13.605  26.357  30.758  0.0574  0.2119  0.1613
64732W        W 7826  14.428  28.699  27.969  0.0570  0.1566 -0.0669
64733W        W 7827  14.063  25.483  30.208  0.1377  0.0830  0.2810
64734W        W 7828  11.295  28.598  30.658 -0.0261 -0.0541 -0.0852
64735W        W 7829  11.328  27.931  30.785 -0.5159 -0.0138 -0.0586
64736W        W 7830  12.726  27.070  27.288  0.0890  0.3142  0.0966
64737W        W 7831  11.808  26.626   0.819  0.1010 -0.0537 -0.1776
64738W        W 7832  12.730  28.982  28.455 -0.2747 -0.0196 -0.1206
64739W        W 7833  12.040  29.185  28.606 -0.0512 -0.2661 -0.1436
64740W        W 7834  13.677  28.224  29.088  0.0266  0.0012  0.1063
64741W        W 7835  12.481  25.572  27.414  0.1666 -0.1464  0.0811
64742W        W 7836  13.654  28.903  28.360  0.3237  0.0375 -0.2079
64743W        W 7837  13.569  27.280  29.679 -0.0528 -0.0972 -0.0289
64744W        W 7838  14.834  25.457  28.109  0.0737  0.0848 -0.1058
64745W        W 7839  15.235  26.707  28.008 -0.1668  0.2380 -0.1014
64746W        W 7840  10.983  26.566  31.058  0.0841 -0.3089  0.3001
64747W        W 7841  10.657  27.524  28.421  0.0251  0.1054 -0.2627
64748W        W 7842  13.189  27.866  29.102 -0.1011  0.0563 -0.1013
64749W        W 7843   9.516  28.999  28.685  0.1698  0.0620  0.1401
64750W        W 7844  13.229  25.907   0.414  0.0951  0.1495 -0.0457
64751W        W 7845  12.244  26.481  30.754 -0.2703 -0.0709  0.1033
64752W        W 7846   9.791  27.464  28.984  0.6337 -0.0405  0.1153
64753W        W 7847  11.564  25.749  28.290 -0.0240  0.0871 -0.1243
64754W        W 7848  14.853  27.487  28.960 -0.0329  0.0038  0.0994
64755W        W 7849  12.228  27.151  30.082  0.2069  0.1626 -0.0489
64756W        W 7850  11.211  25.937  29.565 -0.1293  0.1102  0.1233
64757W        W 7851  12.616  28.032  26.962 -0.0952 -0.1062  0.0177
64758W        W 7852  13.500  28.291  28.581 -0.2124  0.2251  0.0908
64759W        W 7853  12.677  26.974  29.085 -0.0163  0.0303  0.1099
64760W        W 7854  15.762  28.698   0.052  0.0741  0.0146  0.1267
64761W        W 7855  10.590  28.422  28.180 -0.0027  0.1471 -0.1210
64762W        W 7856  12.158  27.882  30.836 -0.2572 -0.1123 -0.0802
64763W        W 7857  13.476  26.394  31.341  0.1733  0.2178  0.1782
64764W        W 7858  10.864  26.803  28.440 -0.0964  0.1191  0.0842
64765W        W 7859  12.521  28.079  28.516  0.0393 -0.2991  0.1050
64766W        W 7860  12.472  28.557  29.145 -0.0329 -0.1362 -0.3770
64767W        W 7861  12.761  29.396  28.729 -0.0861  0.1122  0.1310
64768W        W 7862  12.692  28.001  30.926 -0.0410 -0.2693  0.0533
64769W        W 7863  13.583  28.804  30.323  0.0014 -0.0031 -0.0725
64770W        W 7864  12.657  26.122  30.765  0.0826 -0.2298  0.1209
64771W        W 7865  13.912  27.163  27.933 -0.0452 -0.0548  0.1486
64772W        W 7866  11.836  27.005   0.360  0.0568  0.3345 -0.0782
64773W        W 7867  13.791  28.349  27.646 -0.1648 -0.0558  0.2495
64774W        W 7868  15.521  26.222  29.276  0.3067  0.1086 -0.1773
64775W        W 7869  13.656  25.990  28.666 -0.4402 -0.0041  0.3701
64776W        W 7870  12.043  25.886  30.910  0.1734  0.1738  0.0383
64777W        W 7871  10.804  27.259  31.619 -0.0424 -0.1721 -0.2267
64778W        W 7872  14.427  26.893  30.505 -0.0282 -0.0156  0.0526
64779W        W 7873  10.920  26.543  29.653 -0.0806 -0.2765 -0.0805
64780W        W 7874  13.624  24.611  27.952 -0.0458  0.1759 -0.1664
64781W        W 7875  13.946  29.304  29.512  0.0766 -0.1351  0.2442
64782W        W 7876  12.621  27.259  28.680 -0.0985  0.1994 -0.0301
64783W        W 7877  13.597  26.725  27.812  0.0424  0.1644 -0.0496
64784W        W 7878  14.192  27.762  30.364  0.0643  0.2369 -0.1707
64785W        W 7879  11.641  28.377  28.247 -0.1473 -0.1608  0.0776
64786W        W 7880  12.436  27.493  29.774 -0.2226  0.2230  0.0433
64787W        W 7881  12.647  27.711  27.554 -0.0428  0.0440  0.0794
64788W        W 7882  14.160  27.777  28.396  0.2869  0.1125  0.1257
64789W        W 7883  12.641  28.826  30.904 -0.2941 -0.0202  0.2363
64790W        W 7884  15.931  28.351   0.379  0.3147 -0.3131  0.5250
64791W        W 7885  12.427  28.991  29.983  0.0113 -0.0280 -0.0044
64792W        W 7886  14.474  28.148  30.621  0.0243 -0.1071 -0.2546
64793W        W 7887  13.146  26.708  30.031  0.2795  0.2516  0.1476
64794W        W 7888  12.788  27.672  28.375  0.3484  0.2092 -0.2547
64795W        W 7889  12.683  28.532  28.669 -0.1185 -0.1588  0.0575
64796W        W 7890  16.275  26.516  29.551  0.0262 -0.0915 -0.2415
64797W        W 7891  10.722  26.123  29.291  0.2164 -0.3059 -0.2088
64798W        W 7892  13.891  24.843  26.991 -0.1133 -0.0297  0.1725
64799W        W 7893  10.380  28.426  31.861  0.2178 -0.1144 -0.0258
64800W        W 7894  15.252  27.859  30.159  0.0171  0.0615 -0.1375
64801W        W 7895  13.727  27.513  31.762 -0.0001 -0.1106  0.2039
64802W        W 7896  13.940  29.338  31.485 -0.0889  0.0009  0.3402
64803W        W 7897  12.796  27.188  31.597 -0.2318  0.0047 -0.4759
64804W        W 7898  11.127  27.705  31.189  0.1788  0.2648 -0.0989
64805W        W 7899  11.722  27.799   0.512  0.1298  0.2119  0.2057
64806W        W 7900  12.160  28.620   0.935 -0.2433  0.0447 -0.1044
64807W        W 7901  14.357  27.171  31.109 -0.1020  0.0254 -0.1175
64808W        W 7902  13.028  25.242  31.889  0.0183 -0.3044  0.0409
64809W        W 7903  13.444  27.050   1.440  0.1381 -0.1945  0.1306
64810W        W 7904  14.890  29.242  31.498  0.0879 -0.1531 -0.1819
64811W        W 7905  13.729  28.206  31.195  0.0884 -0.0016  0.1221
64812W        W 7906  12.158  24.917   0.329 -0.2390  0.1510  0.4049
64813W        W 7907  14.938  27.128   0.109  0.1956  0.4024 -0.0378
64814W        W 7908  11.331  28.179  31.179 -0.1172  0.1089 -0.1050
64815W        W 7909  14.932  25.417  31.871 -0.0478 -0.2640  0.1614
64816W        W 7910  10.999  29.728  31.538 -0.0987  0.0630 -0.0004
64817W        W 7911  11.872  26.940  30.831 -0.0457  0.1758 -0.0928
64818W        W 7912  14.406  28.884  29.394  0.0540  0.0927 -0.2235
64819W        W 7913  11.797  26.110   0.831 -0.0011  0.0924 -0.1489
64820W        W 7914  12.751  25.564  31.456 -0.2241 -0.1767 -0.0164
64821W        W 7915  11.759  26.995  31.412  0.0423  0.2313 -0.2376
64822W        W 7916   9.674  28.225  31.968  0.3631 -0.2624  0.0028
64823W        W 7917  14.905  25.805   0.195  0.5176 -0.2873  0.1891
64824W        W 7918  12.818  26.293  31.669  0.2806  0.2090 -0.0539
64825W        W 7919  12.521  25.103  31.568 -0.2029  0.3957 -0.0529
64826W        W 7920  14.040  25.908  31.021  0.0846  0.0592  0.1173
64827W        W 7921  11.929  27.829  29.698  0.0162  0.1379  0.3602
64828W        W 7922  11.881  29.483  31.898  0.1567  0.0688  0.1591
64829W        W 7923  12.935  27.287   0.130 -0.1511 -0.4875  0.1839
64830W        W 7924  11.992  27.182  31.828  0.3503 -0.1721  0.0691
64831W        W 7925  12.884  27.662  30.184  0.0651  0.0168  0.3378
64832W        W 7926  13.435  26.800  30.453 -0.3688 -0.0873  0.0084
64833W        W 7927  14.810  28.638  30.438 -0.0165  0.4244 -0.0961
64834W        W 7928  13.652  25.030   0.095 -0.4333  0.2671 -0.2684
64835W        W 7929  11.670  27.159  30.349  0.0523  0.1412  0.0539
64836W        W 7930  11.448  28.462  31.600  0.0173 -0.2754  0.0460
64837W        W 7931  10.592  27.530  31.973 -0.0367  0.1362  0.0892
64838W        W 7932  13.283  27.277  31.746 -0.0718  0.2528 -0.2164
64839W        W 7933  11.785  27.371  31.092 -0.0655 -0.0812 -0.1848
64840W        W 7934  13.565  26.970  31.442 -0.1972  0.0144 -0.4391
64841W        W 7935  13.868  27.064   0.575 -0.0219 -0.1432 -0.0824
64842W        W 7936  13.033  27.004  30.725 -0.0114  0.0864  0.0215
64843W        W 7937  12.097  25.819  30.002  0.0206  0.0674 -0.0969
64844W        W 7938  12.487  30.197  30.878  0.2913  0.1323  0.0867
64845W        W 7939  14.165  27.307  30.596  0.3385  0.2207 -0.1017
64846W        W 7940  13.473  27.232   0.209 -0.0679  0.2322 -0.0511
64847W        W 7941  14.520  26.045  31.203 -0.1442  0.0937  0.1726
64848W        W 7942  14.298  28.055  31.598  0.1156  0.0807 -0.1739
64849W        W 7943  12.998  29.905  31.563  0.1317  0.2674 -0.2935
64850W        W 7944  10.760  28.680   0.592 -0.1597 -0.0464 -0.0101
64851W        W 7945  13.752  29.224   0.021 -0.0965  0.1350  0.4496
64852W        W 7946  13.664  25.893  31.450 -0.2849  0.1005  0.3150
64853W        W 7947  13.530  26.252  31.796 -0.0092 -0.1746  0.0789
64854W        W 7948  12.537  27.613  30.501 -0.0837 -0.1566 -0.3297
64855W        W 7949  12.661  27.401  31.077 -0.0318  0.0558  0.0315
64856W        W 7950  13.978  27.747  31.354  0.0103 -0.0605  0.0782
64857W        W 7951  15.851  28.259  31.410  0.1219  0.2429  0.2748
64858W        W 7952  11.794  28.196  31.664  0.1413  0.0512 -0.2375
64859W        W 7953  12.405  28.263  31.702 -0.0889 -0.1792  0.3767
64860W        W 7954  11.416  26.871  31.925  0.0071 -0.0485 -0.0620
64861W        W 7955  13.014  26.520  30.673  0.1084 -0.0272  0.0795
64862W        W 7956  11.388  26.394   0.850 -0.1566 -0.0829 -0.0289
64863W        W 7957  10.722  28.037  31.860 -0.0993  0.0014  0.2174
64864W        W 7958  11.533  25.710  31.787  0.0510  0.1454  0.0712
64865W        W 7959  13.561  29.761  31.229  0.2155  0.2141  0.4426
64866W        W 7960  16.049  29.171  31.598  0.2504  0.0669 -0.2673
64867W        W 7961  14.895  28.283  31.652  0.0032  0.3815  0.1221
64868W        W 7962  11.427  31.769  19.306  0.2431 -0.3988  0.1141
64869W        W 7963  11.950  30.441  17.818 -0.2517  0.2864  0.4297
64870W        W 7964  13.418  30.534  15.579 -0.1979 -0.0368  0.1050
64871W        W 7965  14.077  32.545  17.589 -0.0892  0.1286 -0.3086
64872W        W 7966  12.034  29.860  17.134 -0.0442 -0.0343 -0.2065
64873W        W 7967  13.691  33.128  15.649  0.2962  0.1185  0.2025
64874W        W 7968  11.842  28.868  18.762 -0.0783 -0.1688  0.1689
64875W        W 7969  13.699  30.961  18.528 -0.3304  0.0071 -0.1622
64876W        W 7970  12.922  31.390  19.921 -0.2003  0.0536  0.0979
64877W        W 7971  12.896  32.153  15.897  0.3971  0.0698 -0.0604
64878W        W 7972  12.955  29.914  20.002 -0.0074 -0.1195 -0.1552
64879W        W 7973  12.297  32.204  18.632  0.5256  0.1433  0.0265
64880W        W 7974  10.287  28.515  16.269 -0.3033  0.2616 -0.2447
64881W        W 7975  10.977  29.864  17.131 -0.0962 -0.3365  0.0264
64882W        W 7976  13.388  32.034  16.958  0.0265  0.0106  0.2485
64883W        W 7977  11.926  32.335  16.548  0.0140 -0.1820 -0.0025
64884W        W 7978  10.635  30.690  18.928 -0.1112 -0.1118 -0.1772
64885W        W 7979  12.842  29.926  16.078 -0.2977 -0.0381  0.2061
64886W        W 7980  12.798  32.470  17.827  0.0618 -0.1126  0.3702
64887W        W 7981  11.386  30.641  17.506  0.2411  0.1271 -0.1110
64888W        W 7982  12.893  27.434  18.858  0.0135 -0.0193  0.2684
64889W        W 7983  14.160  31.821  16.724 -0.0374 -0.1323 -0.2187
64890W        W 7984  10.300  30.236  15.880  0.0459 -0.3175 -0.1341
64891W        W 7985   9.843  31.361  18.089  0.0217  0.4156  0.1915
64892W        W 7986  11.482  30.507  18.031  0.2044 -0.1387 -0.2538
64893W        W 7987  14.109  29.722  16.492 -0.0174 -0.1278  0.1122
64894W        W 7988  13.132  30.987  16.712 -0.1868  0.1022  0.1451
64895W        W 7989  12.598  31.719  18.185  0.3144  0.3248  0.0358
64896W        W 7990  14.524  32.821  17.839  0.1843  0.1237 -0.1571
64897W        W 7991  13.779  29.378  18.723  0.1269  0.1972  0.1672
64898W        W 7992  10.723  30.469  16.146  0.0618 -0.0183 -0.1404
64899W        W 7993  11.134  31.759  17.273 -0.1115 -0.0210 -0.3122
64900W        W 7994  12.430  32.450  16.597  0.0818 -0.1450  0.2596
64901W        W 7995  13.768  34.325  16.668 -0.1703 -0.1361 -0.3383
64902W        W 7996  14.071  32.588  19.224 -0.1722 -0.2258  0.4090
64903W        W 7997  11.509  32.544  17.674  0.0042  0.0605 -0.1357
64904W        W 7998  10.538  31.576  15.880  0.1655  0.2948  0.0326
64905W        W 7999  12.284  33.743  19.017 -0.2805  0.1196 -0.3278
64906W        W 8000  11.181  32.888  17.333  0.3022 -0.0130 -0.1445
64907W        W 8001  12.422  30.231  19.474 -0.2068  0.1578  0.0227
64908W        W 8002  12.332  31.598  16.319 -0.1708  0.1102 -0.1707
64909W        W 8003  12.647  33.299  16.987 -0.1602  0.2071 -0.2183
64910W        W 8004  12.576  30.401  16.684 -0.3115 -0.0447  0.0357
64911W        W 8005  11.847  32.398  20.225  0.4034  0.3434  0.1973
64912W        W 8006  10.957  32.488  17.657 -0.1582 -0.2067 -0.2581
64913W        W 8007  13.480  30.957  19.623  0.0978  0.1643  0.2578
64914W        W 8008  11.707  33.078  15.478 -0.1786 -0.1157  0.0001
64915W        W 8009  12.021  30.497  17.146  0.1694  0.1132  0.2262
64916W        W 8010  12.380  30.326  15.119 -0.1272 -0.1507 -0.1422
64917W        W 8011  12.153  30.185  16.748  0.2528  0.1205 -0.1781
64918W        W 8012  12.666  29.322  17.061 -0.0221 -0.1110  0.0974
64919W        W 8013  12.406  32.194  18.108 -0.0542  0.0595  0.2773
64920W        W 8014  11.853  28.615  19.196 -0.0466 -0.1466 -0.1531
64921W        W 8015  14.086  31.683  18.964 -0.1936 -0.0798 -0.1111
64922W        W 8016  13.311  30.511  16.144 -0.0634 -0.0341  0.3029
64923W        W 8017  13.689  29.684  19.587 -0.1716 -0.1048  0.1585
64924W        W 8018  11.187  30.808  18.291 -0.1960 -0.1945 -0.3174
64925W        W 8019  10.701  30.408  16.845  0.0519  0.2014  0.3254
64926W        W 8020  13.935  32.587  16.415 -0.2592 -0.0543 -0.0550
64927W        W 8021  14.295  33.088  17.498 -0.2266  0.1086  0.3649
64928W        W 8022  12.444  32.603  17.491 -0.1195 -0.1714  0.0836
64929W        W 8023  11.670  30.761  15.817  0.1403  0.0028 -0.0920
64930W        W 8024  10.901  32.367  19.044 -0.1978 -0.0654 -0.2307
64931W        W 8025  11.825  31.069  19.132 -0.0287 -0.0852 -0.5260
64932W        W 8026  11.709  30.277  16.429  0.0660  0.0478  0.3815
64933W        W 8027  13.635  32.703  19.894 -0.1601  0.1052  0.0031
64934W        W 8028  10.681  31.970  19.786 -0.1407 -0.0147  0.2849
64935W        W 8029  12.923  29.675  16.557 -0.1267  0.1448  0.2920
64936W        W 8030  11.574  31.177  16.794 -0.2263  0.0220 -0.1043
64937W        W 8031  14.240  30.832  18.400  0.2730  0.3559  0.0745
64938W        W 8032  13.792  31.230  16.656  0.0355 -0.0418  0.2159
64939W        W 8033  13.817  30.448  17.538 -0.0285 -0.1516 -0.1388
64940W        W 8034  14.122  29.656  19.206  0.0851 -0.2393  0.2959
64941W        W 8035  11.888  31.820  16.280 -0.0151  0.1619  0.0258
64942W        W 8036  12.940  31.641  16.025 -0.1025  0.2921  0.1789
64943W        W 8037  14.926  31.501  19.864 -0.0652  0.2450 -0.0866
64944W        W 8038  14.202  31.730  17.589 -0.1104  0.0896  0.0900
64945W        W 8039  11.461  32.471  17.139  0.0492  0.2649  0.1725
64946W        W 8040  12.796  30.576  18.938 -0.0613 -0.2793  0.0563
64947W        W 8041  12.927  32.038  20.280 -0.1692 -0.2632 -0.0902
64948W        W 8042  12.032  32.785  15.737  0.4792 -0.1479 -0.0828
64949W        W 8043   9.532  30.590  16.528 -0.0416  0.1215 -0.2312
64950W        W 8044  10.879  31.690  15.038 -0.1895  0.1304  0.1224
64951W        W 8045   9.677  29.231  17.520 -0.1109  0.2126  0.0924
64952W        W 8046  12.216  31.453  19.153  0.3201  0.0341 -0.2924
64953W        W 8047  13.018  30.212  16.521  0.2975 -0.0506 -0.1023
64954W        W 8048  10.071  29.356  19.328 -0.2470  0.0007  0.1090
64955W        W 8049  14.706  29.058  18.071 -0.0440  0.0747 -0.2071
64956W        W 8050  11.169  31.227  17.266 -0.0683 -0.0055 -0.1471
64957W        W 8051  14.977  32.414  16.500  0.1338  0.0276  0.0917
64958W        W 8052  12.882  30.715  16.274 -0.1006  0.0667 -0.2207
64959W        W 8053  12.962  32.645  15.685  0.0648 -0.2386 -0.1764
64960W        W 8054   9.818  30.219  17.641  0.1835 -0.3008 -0.3574
64961W        W 8055  11.743  29.583  17.600  0.0576  0.2837  0.1966
64962W        W 8056  10.092  29.107  18.458 -0.1018 -0.0154 -0.0167
64963W        W 8057  11.128  30.165  17.578  0.2317 -0.2275 -0.1545
64964W        W 8058  13.968  30.071  20.856 -0.2368  0.0936 -0.1513
64965W        W 8059  10.376  28.975  16.528  0.1676 -0.0082 -0.2121
64966W        W 8060  12.617  30.968  16.605  0.0918 -0.0688 -0.1190
64967W        W 8061  12.613  29.713  17.445  0.2109 -0.1337 -0.2771
64968W        W 8062  10.835  32.965  16.251 -0.0539  0.1250 -0.1271
64969W        W 8063  14.260  30.058  18.382 -0.3383 -0.0325 -0.0880
64970W        W 8064  12.893  32.194  17.209  0.2528 -0.1396  0.4012
64971W        W 8065  14.505  30.751  19.191 -0.1280  0.0419 -0.0748
64972W        W 8066  12.399  33.451  18.083  0.3070  0.3747 -0.2652
64973W        W 8067  12.369  30.380  18.134 -0.2180 -0.2866 -0.2004
64974W        W 8068  11.333  29.811  16.654  0.2004 -0.2315 -0.0201
64975W        W 8069  12.368  32.754  16.128 -0.2729  0.0174 -0.0955
64976W        W 8070  13.114  32.002  16.455  0.0265  0.1908  0.1530
64977W        W 8071  11.499  30.442  15.458  0.1326 -0.0532  0.0545
64978W        W 8072  13.756  32.233  18.487  0.4397  0.0213 -0.1572
64979W        W 8073  13.559  31.896  18.860 -0.0075  0.3088 -0.5749
64980W        W 8074  12.562  30.764  19.368 -0.1512 -0.1523 -0.2445
64981W        W 8075  12.429  29.204  19.528 -0.1927 -0.0448  0.1149
64982W        W 8076  13.478  31.781  19.393 -0.2361  0.0732  0.0174
64983W        W 8077  12.793  30.928  18.560  0.2003  0.0091 -0.2258
64984W        W 8078  11.043  30.077  15.254  0.1739  0.1177 -0.2006
64985W        W 8079  12.290  31.665  18.633 -0.0657 -0.1040 -0.3695
64986W        W 8080  10.537  32.144  15.226 -0.1263  0.1004 -0.2911
64987W        W 8081  10.898  30.784  17.112 -0.1471  0.0995  0.0226
64988W        W 8082  13.384  33.246  16.515  0.0826  0.3655  0.1964
64989W        W 8083  13.887  30.421  18.374 -0.3059 -0.3190  0.1040
64990W        W 8084  10.681  31.506  18.674  0.1043  0.1717  0.0248
64991W        W 8085  13.744  29.931  20.006  0.5992  0.1778 -0.1931
64992W        W 8086  11.694  30.216  15.868 -0.2195  0.2980  0.2565
64993W        W 8087  11.978  31.113  18.605 -0.0319  0.0543  0.0315
64994W        W 8088  12.437  30.262  17.272  0.0579 -0.0185 -0.0724
64995W        W 8089  13.718  30.088  16.510 -0.0067 -0.2522  0.3235
64996W        W 8090  12.456  31.223  18.350  0.4360  0.3332  0.0654
64997W        W 8091  14.336  32.531  16.718  0.1967  0.0614 -0.0981
64998W        W 8092  13.555  30.998  15.764  0.1689  0.0674 -0.0924
64999W        W 8093  13.699  30.172  15.878 -0.0955  0.0047 -0.3037
65000W        W 8094  11.526  33.573  19.504 -0.1385 -0.1643  0.1465
65001W        W 8095  13.600  32.419  17.809 -0.0662  0.0689 -0.0719
65002W        W 8096  11.847  30.925  17.674 -0.3620 -0.2228  0.0586
65003W        W 8097  12.769  28.868  16.118 -0.1664  0.2045 -0.0730
65004W        W 8098  14.799  33.284  16.673  0.1035 -0.0000 -0.1392
65005W        W 8099  10.748  32.450  18.551  0.3055  0.1905  0.1983
65006W        W 8100  12.892  32.588  19.986  0.1419  0.0230  0.3233
65007W        W 8101  13.036  32.089  18.154  0.1970  0.2307  0.0156
65008W        W 8102  13.029  29.495  18.336  0.1069 -0.1887 -0.0758
65009W        W 8103  11.804  30.041  15.254 -0.0931  0.1626 -0.4014
65010W        W 8104  12.436  30.583  17.700 -0.2178  0.2461  0.1007
65011W        W 8105  10.540  33.037  14.837 -0.0444 -0.1059 -0.3169
65012W        W 8106  13.056  30.417  17.985  0.0169 -0.1055  0.1898
65013W        W 8107  13.143  31.627  17.941 -0.0898  0.0753 -0.0336
65014W        W 8108  12.322  29.118  18.825 -0.2873 -0.0334 -0.2597
65015W        W 8109  14.194  30.899  21.452 -0.2954 -0.4343  0.2147
65016W        W 8110  11.363  31.039  17.821  0.1270 -0.0832  0.3481
65017W        W 8111  13.287  31.500  16.896 -0.3456  0.4181  0.0297
65018W        W 8112  11.759  31.252  15.504 -0.0413 -0.0626  0.3945
65019W        W 8113  13.874  28.113  19.215  0.4993 -0.0059 -0.2710
65020W        W 8114  10.830  31.073  17.953  0.0255  0.0259 -0.1591
65021W        W 8115  10.840  31.983  18.708  0.2859 -0.0002 -0.3167
65022W        W 8116  13.466  30.916  19.075  0.0717  0.0202  0.0166
65023W        W 8117  12.565  31.235  17.806 -0.2827  0.0307  0.1584
65024W        W 8118  12.482  29.598  19.180 -0.2777  0.2409 -0.0115
65025W        W 8119  12.240  29.079  16.315  0.0155  0.0057  0.3686
65026W        W 8120  13.878  32.215  16.859 -0.0975 -0.4895  0.0045
65027W        W 8121  12.769  31.281  16.972  0.0571  0.0184  0.4348
65028W        W 8122  13.362  28.931  18.877 -0.3092  0.0469  0.2870
65029W        W 8123  13.379  33.263  18.168 -0.2362  0.3738  0.0957
65030W        W 8124  12.199  31.919  15.833 -0.2368  0.0030  0.0945
65031W        W 8125  12.870  31.060  19.109 -0.1499 -0.0053 -0.1127
65032W        W 8126  11.943  32.323  17.099  0.0917  0.1069  0.2903
65033W        W 8127  15.660  28.874  19.588  0.2007 -0.1568  0.3895
65034W        W 8128  11.249  32.441  18.177  0.2714 -0.0308  0.4219
65035W        W 8129  11.084  30.681  15.629  0.2377 -0.1253  0.0977
65036W        W 8130  10.068  30.764  16.550  0.1931  0.3863  0.1325
65037W        W 8131  12.518  30.729  17.107 -0.4883  0.0699 -0.0912
65038W        W 8132  13.901  31.052  16.165 -0.2812  0.3223 -0.0525
65039W        W 8133  11.137  28.378  18.446  0.1121  0.0054 -0.1850
65040W        W 8134  10.400  31.226  18.251 -0.3721 -0.1306 -0.0397
65041W        W 8135  10.071  32.027  17.621 -0.1048 -0.1301 -0.0359
65042W        W 8136  13.071  29.960  18.671 -0.2698  0.2282  0.1899
65043W        W 8137  12.669  29.171  15.643  0.2671 -0.4096  0.0362
65044W        W 8138  14.472  31.921  19.101 -0.2418 -0.1985  0.0948
65045W        W 8139  12.604  30.207  19.892  0.0730  0.0798  0.3545
65046W        W 8140   9.872  30.084  16.709  0.1503 -0.1977 -0.0162
65047W        W 8141  13.859  28.870  18.543  0.1762 -0.2804  0.1153
65048W        W 8142  12.901  29.995  19.551 -0.1284  0.1345 -0.0216
65049W        W 8143  10.616  31.222  17.305 -0.1229  0.2081 -0.0609
65050W        W 8144  13.567  31.972  18.137  0.1822  0.1721 -0.1653
65051W        W 8145  12.103  30.958  16.962 -0.1688 -0.0182 -0.1162
65052W        W 8146  11.916  28.470  17.950 -0.1282  0.0754 -0.1179
65053W        W 8147  11.443  29.696  18.802 -0.1161 -0.0846 -0.0490
65054W        W 8148  14.287  29.053  18.755 -0.1879  0.3120 -0.2646
65055W        W 8149  10.170  29.619  18.290  0.1095 -0.2139  0.1112
65056W        W 8150  12.585  29.317  18.173 -0.3015  0.0697 -0.1764
65057W        W 8151  11.637  30.142  16.894 -0.1810  0.1122  0.1936
65058W        W 8152  12.298  30.513  19.012  0.0266  0.2361 -0.0636
65059W        W 8153  14.415  29.883  18.883  0.0747  0.2737 -0.0808
65060W        W 8154  12.497  31.787  20.081 -0.0643  0.2362  0.1303
65061W        W 8155  12.028  27.892  18.551  0.0573 -0.2262  0.1891
65062W        W 8156  15.119  32.484  17.370 -0.0335  0.0714 -0.2464
65063W        W 8157  12.865  30.379  18.442  0.0410  0.0200 -0.1066
65064W        W 8158  12.933  32.407  16.728 -0.0885  0.0327 -0.3526
65065W        W 8159  10.220  32.581  18.494  0.4097 -0.3205  0.2966
65066W        W 8160  11.041  32.140  19.512 -0.0105  0.1649  0.2535
65067W        W 8161  12.103  29.984  19.125 -0.2261  0.1238 -0.2072
65068W        W 8162  12.305  31.711  17.706 -0.2443 -0.2011 -0.0675
65069W        W 8163  11.579  30.865  14.672 -0.1945  0.2309  0.0469
65070W        W 8164  11.561  30.674  18.606  0.0655 -0.0940 -0.1622
65071W        W 8165  13.879  29.345  15.745  0.3323  0.1660  0.0016
65072W        W 8166  12.647  31.679  15.625  0.2283 -0.3191 -0.1836
65073W        W 8167  12.489  28.837  18.329 -0.0729  0.1312  0.1001
65074W        W 8168  14.812  30.463  17.862 -0.0331 -0.0957  0.1087
65075W        W 8169  13.807  32.347  15.902 -0.4852  0.2439  0.0078
65076W        W 8170  13.328  28.650  19.833  0.1757  0.1619  0.1047
65077W        W 8171  12.652  29.495  18.722  0.0211  0.0409  0.0922
65078W        W 8172  13.432  31.861  17.590 -0.1772 -0.1379  0.3344
65079W        W 8173  10.658  30.110  18.801 -0.2590  0.0568 -0.0083
65080W        W 8174  12.565  33.349  20.380 -0.1786 -0.5646 -0.0641
65081W        W 8175  11.947  31.843  19.521  0.0923  0.1549  0.0054
65082W        W 8176  12.634  28.963  16.684  0.1623  0.3922  0.0920
65083W        W 8177  11.287  30.340  16.663  0.0667  0.4655  0.2142
65084W        W 8178  11.214  31.326  18.294 -0.0837  0.0282  0.0763
65085W        W 8179  13.947  32.049  17.804 -0.5607 -0.4919 -0.0549
65086W        W 8180  13.393  32.003  16.062 -0.2204 -0.1376 -0.2366
65087W        W 8181  13.236  28.590  17.929  0.3774  0.2514 -0.3755
65088W        W 8182  12.542  31.697  17.189 -0.1520 -0.2086 -0.2245
65089W        W 8183  13.510  32.918  17.842  0.0978  0.0987  0.0719
65090W        W 8184  12.123  30.937  15.597  0.0843  0.0518  0.0961
65091W        W 8185  11.388  30.959  15.323 -0.1024  0.1687 -0.1051
65092W        W 8186  11.226  29.658  19.948 -0.0704 -0.1637 -0.0934
65093W        W 8187  13.039  30.443  19.853  0.0212  0.0749  0.1422
65094W        W 8188  12.534  29.933  16.467  0.0806 -0.0324  0.0607
65095W        W 8189  13.306  31.527  16.406 -0.0646  0.0888  0.1093
65096W        W 8190  14.177  30.728  20.005 -0.0841  0.2267  0.3245
65097W        W 8191  12.354  30.126  18.654 -0.2996  0.0387  0.1737
65098W        W 8192   9.997  28.319  17.851  0.3363 -0.2308  0.3898
65099W        W 8193  15.418  32.881  19.818  0.0014  0.0680 -0.0435
65100W        W 8194  13.937  31.393  15.724  0.0177  0.0531  0.3072
65101W        W 8195  14.818  30.945  18.113 -0.4905 -0.1428 -0.3539
65102W        W 8196  13.427  31.518  15.920 -0.2601 -0.2038  0.0772
65103W        W 8197  12.561  31.203  15.827  0.0662  0.1945 -0.2070
65104W        W 8198  10.073  29.267  17.949 -0.1616 -0.0393  0.0178
65105W        W 8199  13.883  30.121  19.168  0.0905  0.0279 -0.0865
65106W        W 8200  10.665  30.322  15.484 -0.3130 -0.0878  0.0352
65107W        W 8201  11.719  29.478  19.457 -0.1734 -0.1298  0.0631
65108W        W 8202  13.315  32.928  17.297  0.0241  0.0023  0.1886
65109W        W 8203  12.232  31.275  17.429 -0.1919  0.1153 -0.3900
65110W        W 8204  13.540  30.245  17.890  0.0058  0.0902 -0.1063
65111W        W 8205  11.385  30.188  18.507 -0.0270  0.0808 -0.1655
65112W        W 8206  12.162  32.586  17.972  0.3435 -0.0998  0.1638
65113W        W 8207  10.580  30.773  15.679  0.0178 -0.1467 -0.0452
65114W        W 8208  12.420  32.153  16.205 -0.1267 -0.0182  0.1979
65115W        W 8209  12.952  31.300  18.271 -0.1350  0.0166 -0.0806
65116W        W 8210  13.820  31.513  19.705 -0.0313 -0.0923  0.2457
65117W        W 8211  13.371  29.963  16.183  0.1100  0.1669  0.2893
65118W        W 8212  14.775  28.952  19.515  0.0110  0.0268 -0.3025
65119W        W 8213  11.431  32.418  16.375  0.4918  0.0303 -0.1428
65120W        W 8214  11.693  27.642  18.113  0.1334  0.0947 -0.0758
65121W        W 8215  12.749  32.777  17.082  0.0389  0.2844 -0.0455
65122W        W 8216  10.373  31.697  17.428 -0.1560  0.1412 -0.0658
65123W        W 8217  11.575  31.489  17.274  0.4476  0.0238 -0.0255
65124W        W 8218  12.871  29.585  17.851 -0.3435 -0.4377 -0.1027
65125W        W 8219  14.499  29.697  17.023 -0.1335 -0.3016 -0.1211
65126W        W 8220  12.202  29.493  18.477 -0.5052 -0.0392 -0.1551
65127W        W 8221  14.056  30.303  20.232 -0.2619 -0.0622 -0.1990
65128W        W 8222  12.803  30.913  17.482 -0.4618 -0.1409 -0.2282
65129W        W 8223  12.202  30.890  18.125 -0.0162 -0.2554  0.1398
65130W        W 8224  13.684  32.246  19.493  0.0663  0.0597 -0.1391
65131W        W 8225  14.218  31.409  16.456 -0.3836 -0.1145  0.1994
65132W        W 8226  12.791  31.874  17.716  0.2005 -0.1052  0.0792
65133W        W 8227  10.375  31.105  18.721  0.1768  0.1632 -0.0434
65134W        W 8228  12.728  30.670  20.098 -0.0137  0.0942 -0.0114
65135W        W 8229  14.216  30.047  16.803  0.0488  0.1555 -0.0209
65136W        W 8230  11.923  28.388  18.512  0.1429  0.3634  0.0134
65137W        W 8231  13.668  32.949  16.161 -0.3038  0.1814 -0.4445
65138W        W 8232  11.682  33.387  19.075  0.0559 -0.2908  0.0620
65139W        W 8233  12.684  29.867  18.299  0.4064  0.6697  0.4339
65140W        W 8234  12.414  32.202  17.088 -0.0607 -0.0463 -0.0769
65141W        W 8235  14.380  32.735  15.264 -0.0594  0.3114  0.0952
65142W        W 8236  13.313  32.469  16.042 -0.1323  0.0675  0.3434
65143W        W 8237  14.377  32.428  18.740 -0.0243  0.2233  0.0255
65144W        W 8238  11.303  30.460  16.094 -0.0048 -0.1692  0.0953
65145W        W 8239  11.976  32.703  17.456  0.2157  0.1832  0.2426
65146W        W 8240  11.367  31.287  16.295  0.2287  0.1785  0.0895
65147W        W 8241  12.813  32.590  16.246 -0.1609 -0.0131  0.0085
65148W        W 8242  13.390  30.299  17.292 -0.0107 -0.0672 -0.1186
65149W        W 8243  13.193  32.704  19.207  0.0163 -0.1139  0.0596
65150W        W 8244  14.206  29.372  16.118  0.0557 -0.0350 -0.1336
65151W        W 8245  14.234  30.061  17.839 -0.2353 -0.0988  0.2599
65152W        W 8246  14.556  30.102  16.186  0.2033  0.0333 -0.0631
65153W        W 8247  13.220  32.900  19.742  0.0089 -0.1405  0.0984
65154W        W 8248  10.652  29.692  18.093 -0.0925  0.0335 -0.2004
65155W        W 8249  12.140  29.249  15.832  0.1551 -0.2853 -0.1192
65156W        W 8250  12.437  31.786  19.570 -0.0718 -0.0295 -0.1756
65157W        W 8251  14.915  29.499  19.988  0.1431  0.2023  0.0340
65158W        W 8252  12.064  32.961  18.870  0.1530 -0.0296  0.0591
65159W        W 8253  14.440  33.439  16.358 -0.1119 -0.3050  0.0568
65160W        W 8254  11.496  29.802  16.159 -0.1813  0.3421  0.2621
65161W        W 8255  12.306  29.487  17.786 -0.1958  0.5124  0.3468
65162W        W 8256  14.132  27.789  18.047 -0.0451 -0.1713 -0.0798
65163W        W 8257  12.550  30.833  15.364 -0.1420 -0.2564 -0.3069
65164W        W 8258  14.173  31.323  18.533  0.2294 -0.1129 -0.0253
65165W        W 8259  12.338  33.400  16.583  0.2767  0.0446  0.0223
65166W        W 8260  12.268  31.459  16.850  0.0073 -0.0492 -0.2744
65167W        W 8261  12.351  31.002  18.934  0.0117 -0.0173 -0.1541
65168W        W 8262  10.381  29.602  17.627 -0.2599  0.0787 -0.0404
65169W        W 8263  14.706  31.018  16.220 -0.0245  0.3010  0.2647
65170W        W 8264  11.629  29.962  19.411 -0.1367  0.1851  0.0985
65171W        W 8265  14.392  28.666  17.965  0.1062 -0.0619  0.1306
65172W        W 8266  11.225  31.549  16.812 -0.2963 -0.0059 -0.1615
65173W        W 8267  13.369  28.746  18.371  0.0761 -0.1391 -0.1660
65174W        W 8268  12.802  32.466  18.346  0.2210  0.3361  0.1986
65175W        W 8269  11.054  29.846  18.526 -0.2565  0.2500 -0.3014
65176W        W 8270  13.447  30.931  16.406 -0.0404  0.2292 -0.0927
65177W        W 8271  13.677  30.672  19.973  0.0303  0.1332 -0.1286
65178W        W 8272  13.290  30.898  17.219  0.1662  0.0227  0.0790
65179W        W 8273  13.736  33.011  19.509 -0.0108 -0.0846 -0.1462
65180W        W 8274  12.068  29.010  18.325  0.0705  0.2822 -0.1409
65181W        W 8275  12.479  29.640  15.940  0.0080  0.1283 -0.2891
65182W        W 8276  11.201  32.053  17.700  0.0664 -0.1523  0.1144
65183W        W 8277  12.664  30.051  19.048  0.0621  0.1474  0.0647
65184W        W 8278  12.911  32.415  18.946 -0.0564 -0.0715  0.1960
65185W        W 8279  12.107  29.545  16.257 -0.0125  0.3376 -0.0481
65186W        W 8280  12.998  32.877  15.146 -0.3351 -0.3790  0.3217
65187W        W 8281  13.234  30.163  19.142 -0.1401  0.4351 -0.0491
65188W        W 8282  13.189  32.276  17.630  0.2197  0.0887 -0.2790
65189W        W 8283  13.652  30.707  18.089 -0.2633 -0.0641 -0.6748
65190W        W 8284  12.780  32.821  18.675 -0.3080 -0.0036 -0.1450
65191W        W 8285  11.249  29.371  16.336  0.1573 -0.1338 -0.3385
65192W        W 8286  13.772  31.565  17.805  0.0048 -0.0443  0.0124
65193W        W 8287  14.574  31.008  20.159 -0.1003  0.1849 -0.0733
65194W        W 8288  12.110  30.600  16.452  0.3484  0.0128 -0.0336
65195W        W 8289  11.809  32.267  18.274  0.3724  0.0869  0.2491
65196W        W 8290  11.344  31.668  15.833  0.2892  0.0441 -0.1549
65197W        W 8291  13.997  29.395  18.017 -0.0118  0.0699  0.0321
65198W        W 8292  13.530  29.217  18.189 -0.0444 -0.0162 -0.2100
65199W        W 8293  11.970  32.266  15.507  0.1079 -0.3037  0.1343
65200W        W 8294  13.833  28.923  19.076  0.3385 -0.3368  0.1411
65201W        W 8295  11.477  31.172  18.679 -0.0463  0.2604 -0.1711
65202W        W 8296  10.912  33.745  19.455 -0.0606  0.2886  0.2050
65203W        W 8297  11.627  30.831  16.315  0.1238  0.5368 -0.1934
65204W        W 8298  11.941  30.500  18.318  0.1043  0.0493  0.2853
65205W        W 8299  12.681  31.899  16.665 -0.0567  0.0614  0.1630
65206W        W 8300  12.829  31.405  16.501 -0.0861  0.1748 -0.0001
65207W        W 8301  13.072  32.872  18.284 -0.1649 -0.3239 -0.0426
65208W        W 8302  12.201  29.910  18.068 -0.0149  0.0090  0.1713
65209W        W 8303  13.061  31.722  17.287  0.1951  0.0807  0.1411
65210W        W 8304  13.122  29.958  18.133 -0.0373 -0.0102  0.1118
65211W        W 8305  14.210  29.319  17.155 -0.1357  0.1293 -0.0947
65212W        W 8306  13.603  28.962  15.692  0.2040  0.1999 -0.0201
65213W        W 8307  11.896  30.411  19.508 -0.1798  0.0529 -0.0508
65214W        W 8308  10.845  31.186  15.602  0.0568 -0.1809  0.1933
65215W        W 8309  10.342  31.829  14.942 -0.1646  0.3803  0.0070
65216W        W 8310  10.689  32.014  16.750 -0.0329  0.3128  0.1984
65217W        W 8311  12.934  28.680  20.767 -0.1545 -0.0467 -0.0810
65218W        W 8312  11.644  30.796  19.744  0.1709 -0.2910 -0.2780
65219W        W 8313  11.411  31.546  17.766 -0.2465  0.1693  0.4373
65220W        W 8314  11.579  29.102  17.395  0.0387 -0.1004 -0.2393
65221W        W 8315  13.934  32.515  15.337  0.1788  0.3283 -0.3689
65222W        W 8316  11.020  28.963  16.495 -0.1722 -0.2938 -0.5778
65223W        W 8317  11.467  29.824  17.285  0.1012 -0.0825  0.0918
65224W        W 8318  13.700  31.723  16.669  0.0657 -0.1449 -0.3687
65225W        W 8319  13.711  32.193  17.379  0.4520 -0.1521 -0.1801
65226W        W 8320  13.020  30.546  16.915  0.0158 -0.0419  0.1608
65227W        W 8321  14.451  31.906  20.463  0.2674 -0.0159 -0.2101
65228W        W 8322  12.141  31.957  16.761 -0.2125  0.1567 -0.0031
65229W        W 8323  13.880  29.161  20.450 -0.2411 -0.0142  0.1443
65230W        W 8324  12.009  29.084  19.795 -0.0946  0.0057 -0.1127
65231W        W 8325  10.991  29.580  15.906 -0.0476  0.0742  0.2104
65232W        W 8326  12.918  30.395  17.476  0.4526 -0.3403  0.1040
65233W        W 8327  14.408  33.044  16.925  0.0444 -0.0289 -0.0443
65234W        W 8328  14.572  32.318  16.147 -0.2227  0.5661  0.2127
65235W        W 8329  12.411  30.625  18.570  0.1124  0.2139 -0.2459
65236W        W 8330  12.769  32.594  19.447 -0.0316  0.0584  0.0452
65237W        W 8331  11.669  30.044  17.922 -0.0044 -0.1042 -0.1156
65238W        W 8332  13.858  32.117  16.304 -0.2690  0.2568  0.0197
65239W        W 8333  12.571  31.261  19.500  0.0952  0.0566  0.0610
65240W        W 8334  15.207  31.396  16.548  0.0044 -0.0148  0.3121
65241W        W 8335  13.518  29.683  18.409 -0.1800  0.3335  0.0726
65242W        W 8336  13.134  29.989  17.621  0.0323 -0.0420 -0.0172
65243W        W 8337   9.505  28.566  17.858 -0.4284 -0.1995  0.0577
65244W        W 8338  10.789  31.528  18.154  0.0461 -0.0122  0.1296
65245W        W 8339  13.794  30.164  17.022 -0.0181  0.1417 -0.0828
65246W        W 8340  12.663  30.029  17.822  0.1310  0.0529 -0.1562
65247W        W 8341  13.582  29.546  16.544  0.0703  0.0659  0.1654
65248W        W 8342  11.894  31.327  15.964 -0.0698  0.2248 -0.2524
65249W        W 8343  11.722  31.007  18.213  0.0177 -0.2948 -0.0970
65250W        W 8344  12.933  29.512  15.857  0.1681  0.1592  0.1042
65251W        W 8345  13.259  30.696  18.422  0.2367  0.0130 -0.2893
65252W        W 8346  12.768  31.912  18.621 -0.2714  0.4182 -0.3040
65253W        W 8347  13.674  31.947  19.870 -0.0508  0.1840 -0.1450
65254W        W 8348  11.959  31.192  16.432  0.1592 -0.2448 -0.0053
65255W        W 8349  14.304  30.817  16.390 -0.3901 -0.1534  0.1395
65256W        W 8350  12.873  30.920  19.691  0.1393  0.3469  0.0343
65257W        W 8351  13.409  33.909  19.171  0.1074 -0.0556  0.1513
65258W        W 8352  13.097  31.768  19.027 -0.1085  0.1633  0.1587
65259W        W 8353  13.535  31.382  18.332  0.1250 -0.1448 -0.0200
65260W        W 8354  11.460  28.545  18.785 -0.2928 -0.3014  0.0110
65261W        W 8355  11.679  30.669  16.795 -0.1494  0.1272  0.2119
65262W        W 8356  12.359  30.936  16.171  0.1373  0.1403 -0.1309
65263W        W 8357  13.608  30.444  18.877  0.0503 -0.1021 -0.1544
65264W        W 8358  11.891  30.283  18.824 -0.2682 -0.0113 -0.1675
65265W        W 8359  12.078  30.054  16.192 -0.0170 -0.0711 -0.1673
65266W        W 8360  12.752  30.796  18.033  0.4318 -0.1681  0.0253
65267W        W 8361  13.257  32.241  18.555 -0.0625 -0.0015 -0.2320
65268W        W 8362  12.091  31.152  23.158  0.2103  0.0819 -0.4632
65269W        W 8363  11.437  30.367  19.721 -0.1263  0.1145 -0.0814
65270W        W 8364  12.268  29.531  20.047  0.1958 -0.0459  0.1169
65271W        W 8365  13.557  29.784  21.215 -0.2113  0.1794 -0.1028
65272W        W 8366  10.948  30.857  22.117  0.2459  0.1382 -0.0164
65273W        W 8367  12.764  32.603  20.493  0.0283  0.0991  0.0086
65274W        W 8368  11.444  29.396  24.087 -0.2122  0.0223  0.3898
65275W        W 8369  11.983  32.359  21.917  0.1414 -0.1280  0.0823
65276W        W 8370  14.729  32.557  21.924  0.3252  0.0321 -0.1174
65277W        W 8371  13.617  31.435  18.786  0.0241  0.0955 -0.1882
65278W        W 8372  13.044  30.367  20.874  0.0335  0.1411  0.2472
65279W        W 8373  11.067  32.607  21.754 -0.1659  0.0561  0.0500
65280W        W 8374  11.664  29.516  20.850  0.1356 -0.2702 -0.1021
65281W        W 8375  11.692  30.077  21.060  0.2020  0.3310 -0.1436
65282W        W 8376  13.239  32.494  21.360 -0.1173  0.1703 -0.4921
65283W        W 8377  11.746  31.532  20.641  0.1121  0.2552  0.1159
65284W        W 8378  11.397  29.871  22.098  0.0773  0.1813  0.1577
65285W        W 8379  12.648  29.966  20.787  0.0732 -0.0272 -0.2928
65286W        W 8380  11.296  33.708  20.009  0.1872 -0.1412  0.3230
65287W        W 8381  12.354  30.247  21.094  0.1894 -0.0395 -0.2295
65288W        W 8382  12.625  30.003  22.216  0.1668 -0.1803 -0.0391
65289W        W 8383  12.208  32.721  20.522  0.3234  0.1440  0.0707
65290W        W 8384  11.032  30.167  18.124 -0.0285  0.3383 -0.2218
65291W        W 8385   9.511  31.017  21.417  0.0515 -0.2898 -0.0448
65292W        W 8386  10.163  30.651  22.087 -0.3095 -0.0979  0.0920
65293W        W 8387  13.313  30.770  23.468  0.0848 -0.1116  0.3069
65294W        W 8388  13.875  31.287  22.050  0.1702  0.0103  0.3122
65295W        W 8389  11.690  33.408  20.886  0.1877 -0.1500 -0.1544
65296W        W 8390  13.758  32.215  21.423 -0.0825 -0.0851 -0.0350
65297W        W 8391  13.924  30.058  23.174  0.0430 -0.1183 -0.0119
65298W        W 8392  10.249  31.941  20.151 -0.0964  0.2322 -0.4996
65299W        W 8393  11.086  33.068  21.973 -0.4438  0.4066  0.0296
65300W        W 8394  11.704  31.350  20.137 -0.1014  0.1286  0.0264
65301W        W 8395  13.791  31.482  20.655  0.0855 -0.2800  0.0886
65302W        W 8396  14.763  30.832  22.222  0.1713  0.1942  0.1278
65303W        W 8397  12.982  33.089  22.157  0.0472  0.0559 -0.3321
65304W        W 8398  10.021  31.463  18.507 -0.3861 -0.0698  0.1949
65305W        W 8399  12.717  32.030  23.163 -0.0018  0.3662 -0.0477
65306W        W 8400  12.183  32.261  22.977  0.0736 -0.1031  0.0052
65307W        W 8401  13.050  30.843  21.683 -0.0620  0.0806 -0.0992
65308W        W 8402  13.563  31.289  21.134  0.0645 -0.3684  0.2603
65309W        W 8403  11.252  31.593  18.827  0.1291  0.0615 -0.1231
65310W        W 8404  12.625  31.103  21.410  0.1010  0.0218 -0.0709
65311W        W 8405  10.702  30.935  22.557 -0.0368 -0.2150 -0.0228
65312W        W 8406  10.043  31.647  21.937 -0.0347 -0.1119 -0.3259
65313W        W 8407  15.456  29.220  25.183 -0.1906 -0.0474 -0.2188
65314W        W 8408  11.812  32.529  18.725  0.4187 -0.0336  0.0744
65315W        W 8409  13.910  30.789  21.022  0.1897 -0.1008 -0.0001
65316W        W 8410  12.651  29.582  19.765  0.1492  0.1482 -0.0703
65317W        W 8411  14.318  29.783  20.106 -0.0507 -0.1150  0.1336
65318W        W 8412  11.498  29.919  20.659  0.0300  0.0135 -0.0470
65319W        W 8413  10.502  34.127  21.012 -0.1574  0.1992 -0.1334
65320W        W 8414  12.774  30.183  21.345  0.0511  0.1680  0.0332
65321W        W 8415  14.465  31.516  23.626 -0.2660  0.1125  0.1748
65322W        W 8416  12.086  31.064  21.383  0.1531  0.2050  0.1565
65323W        W 8417  10.952  31.840  22.417  0.0013 -0.0520  0.3257
65324W        W 8418  11.806  31.619  23.312 -0.0124 -0.0219 -0.1014
65325W        W 8419  10.832  31.542  20.530 -0.0422  0.1688  0.2520
65326W        W 8420  13.514  31.899  20.409 -0.0123 -0.1607  0.0090
65327W        W 8421  14.331  32.560  20.158 -0.1545 -0.1897  0.0147
65328W        W 8422  13.285  32.598  20.290  0.0981  0.2366  0.4182
65329W        W 8423  11.201  31.579  20.202 -0.3406 -0.1656  0.0035
65330W        W 8424   9.667  31.776  22.214  0.1328 -0.0450  0.1170
65331W        W 8425  10.265  32.012  23.319  0.1325  0.1694 -0.0585
65332W        W 8426  11.137  29.993  19.540 -0.0434  0.2239 -0.2002
65333W        W 8427  14.827  33.083  21.687 -0.0497 -0.1549 -0.1216
65334W        W 8428  10.071  31.589  22.534 -0.4034 -0.0584 -0.3748
65335W        W 8429  13.700  29.356  21.629  0.0596 -0.1018  0.2330
65336W        W 8430  11.612  31.126  21.565  0.1218 -0.2081  0.1485
65337W        W 8431  13.741  31.799  21.804  0.1658  0.1757  0.1706
65338W        W 8432  13.615  30.970  20.382  0.1359 -0.1020  0.1292
65339W        W 8433  12.914  30.800  20.592  0.2241 -0.4719 -0.1074
65340W        W 8434  11.301  30.500  22.202 -0.2452  0.0091 -0.5445
65341W        W 8435  11.440  30.249  18.979 -0.1241 -0.0051  0.1676
65342W        W 8436  12.592  31.626  21.095  0.1655 -0.0050  0.2986
65343W        W 8437  14.407  30.157  22.885 -0.3768 -0.1046  0.0551
65344W        W 8438  14.036  30.862  18.901 -0.0463  0.3302  0.0901
65345W        W 8439  11.771  32.358  22.433  0.2210 -0.1308 -0.0557
65346W        W 8440  11.661  30.864  21.084  0.2041 -0.0596  0.1078
65347W        W 8441  11.681  32.086  22.892  0.1772  0.0890 -0.0570
65348W        W 8442  11.774  31.549  18.963 -0.4917 -0.1215  0.0359
65349W        W 8443   9.951  31.383  21.464  0.1702 -0.0190  0.0488
65350W        W 8444  13.209  30.933  20.023 -0.1522 -0.0810  0.0359
65351W        W 8445  10.327  29.817  21.389 -0.1740 -0.2720 -0.1389
65352W        W 8446  10.761  31.165  21.567  0.0956  0.1039 -0.0914
65353W        W 8447  14.410  30.196  19.891 -0.0505 -0.0632  0.1030
65354W        W 8448  11.148  30.817  21.697 -0.0466 -0.2220 -0.0145
65355W        W 8449  14.222  28.797  21.264  0.0297  0.2581 -0.1661
65356W        W 8450  11.248  31.523  21.380  0.0668  0.1041 -0.1925
65357W        W 8451  13.650  32.935  21.070 -0.0538 -0.1557 -0.3455
65358W        W 8452  13.557  30.285  21.235 -0.2136 -0.2658  0.1968
65359W        W 8453  12.214  31.403  20.324  0.2556  0.2961  0.2208
65360W        W 8454  10.562  31.489  22.579  0.1038 -0.0288  0.1141
65361W        W 8455  11.105  30.417  20.532  0.1839  0.0258  0.0655
65362W        W 8456  12.370  32.055  21.949  0.1240  0.0929 -0.1606
65363W        W 8457  10.770  29.715  21.609  0.0813 -0.1024 -0.2404
65364W        W 8458  14.426  29.994  21.034  0.1505  0.1421 -0.3755
65365W        W 8459  11.008  29.416  18.847  0.1890 -0.1221 -0.1244
65366W        W 8460  13.278  29.361  21.271 -0.1830 -0.3507 -0.0824
65367W        W 8461  10.746  30.389  19.872 -0.1283 -0.0464 -0.0810
65368W        W 8462  10.118  31.812  19.702 -0.0211  0.1321 -0.1436
65369W        W 8463  14.758  29.294  23.903  0.0275 -0.0459 -0.2070
65370W        W 8464  11.460  34.185  19.937 -0.1009 -0.2122  0.0399
65371W        W 8465  14.333  33.415  23.180 -0.1800  0.1754 -0.2474
65372W        W 8466  13.679  33.782  21.105  0.1753  0.1763 -0.0320
65373W        W 8467  11.257  31.312  20.704 -0.1615  0.0747  0.1281
65374W        W 8468  12.193  30.448  20.285 -0.1317  0.2900 -0.1372
65375W        W 8469  10.687  33.846  21.385 -0.0878  0.5936 -0.2288
65376W        W 8470  12.203  31.772  20.707 -0.0242 -0.1016 -0.4187
65377W        W 8471  10.163  31.220  19.672 -0.1339 -0.0088  0.2611
65378W        W 8472  15.183  30.859  21.440  0.2720  0.0831 -0.0713
65379W        W 8473  13.419  30.748  20.868  0.1312  0.2733 -0.1066
65380W        W 8474  10.723  31.339  22.090 -0.3177 -0.2590 -0.2530
65381W        W 8475  12.731  29.244  22.785 -0.1549  0.0055 -0.1728
65382W        W 8476  13.154  30.555  21.316  0.0982  0.1873  0.0310
65383W        W 8477  12.384  31.052  21.847 -0.1817  0.1687 -0.0137
65384W        W 8478  12.188  29.652  19.563 -0.1002 -0.1848 -0.0884
65385W        W 8479  12.425  32.079  21.139 -0.0917 -0.2275 -0.0189
65386W        W 8480  10.990  33.364  19.055  0.1187  0.0611 -0.0344
65387W        W 8481  11.361  32.120  18.864  0.1152  0.0200 -0.1166
65388W        W 8482  11.296  32.233  20.934  0.1796 -0.3036  0.0706
65389W        W 8483  13.302  28.819  21.117  0.0788  0.1951 -0.0641
65390W        W 8484  11.347  31.340  23.338 -0.1205  0.1393  0.0391
65391W        W 8485  14.135  30.483  23.154 -0.0112 -0.0172  0.0161
65392W        W 8486  10.847  30.964  18.589  0.1106 -0.1888 -0.0150
65393W        W 8487  10.360  32.333  21.995 -0.1737  0.0253 -0.0776
65394W        W 8488  14.789  29.638  20.528  0.2888  0.2896 -0.1205
65395W        W 8489  14.434  28.656  20.875  0.0608 -0.1376 -0.2124
65396W        W 8490  12.904  32.216  22.699  0.1644 -0.3074 -0.0705
65397W        W 8491  13.801  30.532  20.596  0.0561 -0.1462  0.0382
65398W        W 8492  13.253  29.408  18.722 -0.3299 -0.0787  0.0109
65399W        W 8493  12.461  29.058  19.987  0.4230  0.0946  0.0668
65400W        W 8494  10.408  32.645  25.255 -0.0454 -0.0498 -0.0427
65401W        W 8495  14.152  30.338  21.308  0.2942 -0.1312  0.2713
65402W        W 8496  11.568  31.623  21.742 -0.3171 -0.2276  0.5536
65403W        W 8497  13.936  29.229  19.466 -0.2009  0.2482  0.4913
65404W        W 8498  14.508  33.379  21.404 -0.1606 -0.0230 -0.1356
65405W        W 8499  11.233  30.902  22.545 -0.0166  0.0203  0.3429
65406W        W 8500  14.411  31.184  22.377  0.0169 -0.1175  0.0873
65407W        W 8501  13.078  31.483  21.192  0.2770  0.0800 -0.1347
65408W        W 8502  11.946  30.306  24.074 -0.0279 -0.0576  0.2925
65409W        W 8503  13.117  30.689  19.314 -0.0370  0.1944 -0.2700
65410W        W 8504  12.992  29.780  20.491  0.0483  0.0489 -0.1947
65411W        W 8505  11.373  33.714  18.837 -0.0798  0.0924  0.1515
65412W        W 8506  13.761  30.065  21.735 -0.1912 -0.0741  0.2114
65413W        W 8507  13.083  29.829  21.030 -0.3420 -0.2193 -0.0200
65414W        W 8508  12.676  30.245  23.038 -0.1858 -0.1477  0.0040
65415W        W 8509  14.518  30.109  23.405  0.0088  0.0607  0.0602
65416W        W 8510  13.810  31.254  19.224 -0.0543  0.0748 -0.1311
65417W        W 8511  12.700  30.957  22.265  0.1662  0.2077 -0.4274
65418W        W 8512  11.278  31.153  19.946  0.1510 -0.1070 -0.0388
65419W        W 8513  12.363  30.610  21.508 -0.1936  0.0110 -0.3084
65420W        W 8514  11.803  30.066  22.686  0.0574 -0.1121 -0.0096
65421W        W 8515   9.693  32.282  22.396  0.0515  0.0759  0.0015
65422W        W 8516  13.834  32.329  21.895  0.0241 -0.1299  0.0156
65423W        W 8517  12.700  32.313  21.448  0.1733  0.0901  0.1638
65424W        W 8518  12.627  29.810  23.848  0.0868  0.1266 -0.0242
65425W        W 8519  12.001  28.665  20.171 -0.1059  0.1428 -0.2494
65426W        W 8520  11.068  33.324  19.679 -0.2124 -0.0457 -0.1093
65427W        W 8521  11.481  33.006  19.425 -0.0060 -0.0431 -0.2401
65428W        W 8522  13.332  29.643  21.694 -0.2344  0.0825  0.0511
65429W        W 8523  11.539  31.911  21.236 -0.1640 -0.1127 -0.0975
65430W        W 8524  12.490  33.425  19.560  0.0522 -0.1298  0.1660
65431W        W 8525  14.233  32.362  23.054 -0.1090 -0.1464  0.2327
65432W        W 8526  11.493  31.695  19.801  0.1101  0.1331  0.3043
65433W        W 8527  12.925  28.231  22.920  0.0897 -0.1029 -0.0541
65434W        W 8528   9.398  32.535  20.864 -0.0650 -0.0116 -0.0168
65435W        W 8529  11.460  29.125  19.899 -0.2529 -0.1978  0.1343
65436W        W 8530  11.153  30.928  19.517 -0.1109 -0.0607  0.0890
65437W        W 8531  14.725  28.603  20.469 -0.1665 -0.2004  0.3421
65438W        W 8532  12.857  32.548  21.048 -0.1233  0.0655  0.2571
65439W        W 8533  10.220  30.788  21.482 -0.1169 -0.0264 -0.1505
65440W        W 8534  12.694  30.637  21.126 -0.1140  0.1943  0.1657
65441W        W 8535  10.218  32.998  20.989 -0.2087  0.0192  0.0575
65442W        W 8536  12.148  30.184  23.106  0.2811 -0.0077  0.0020
65443W        W 8537  14.013  28.962  19.934 -0.2529  0.0949  0.0088
65444W        W 8538  12.404  33.167  21.713  0.1251 -0.0920  0.0871
65445W        W 8539  10.779  31.638  21.677 -0.0046  0.1126 -0.1034
65446W        W 8540  10.083  30.591  19.219  0.1337  0.0655  0.1538
65447W        W 8541  14.295  29.718  23.183 -0.1454  0.4394  0.0265
65448W        W 8542  12.098  30.107  19.881 -0.0916  0.0918  0.5244
65449W        W 8543   9.883  32.238  21.337  0.1485  0.2020 -0.0349
65450W        W 8544  12.091  32.798  22.603  0.3562  0.2055  0.0226
65451W        W 8545  10.402  30.897  20.580 -0.0764  0.0255 -0.2700
65452W        W 8546  11.098  31.986  21.453  0.2792 -0.3709  0.2901
65453W        W 8547  11.961  31.854  22.049  0.2617  0.2177  0.5763
65454W        W 8548  14.131  32.625  22.254  0.0388  0.0031 -0.0505
65455W        W 8549  11.854  29.735  21.863  0.2037 -0.0846 -0.2648
65456W        W 8550  10.761  30.049  20.413 -0.1780  0.0866 -0.0840
65457W        W 8551  13.590  30.491  19.375  0.1794 -0.0709  0.2400
65458W        W 8552  14.277  32.432  21.605  0.5935 -0.2172  0.1165
65459W        W 8553  12.099  31.093  22.382 -0.1143  0.0710 -0.0464
65460W        W 8554  11.366  32.861  23.281  0.0930  0.1279  0.0813
65461W        W 8555  12.132  29.309  21.584  0.3072  0.1801  0.1010
65462W        W 8556  13.079  33.306  21.577 -0.0437 -0.0354  0.0680
65463W        W 8557  12.614  31.836  22.561  0.1181  0.1845 -0.3701
65464W        W 8558  12.277  30.595  19.814 -0.2739  0.1018  0.0273
65465W        W 8559  10.462  32.616  20.992 -0.1195 -0.3231  0.0909
65466W        W 8560  12.013  31.612  21.312  0.0903  0.1682 -0.2269
65467W        W 8561  12.000  31.377  21.812  0.1236  0.1574  0.0900
65468W        W 8562  11.889  32.317  21.161  0.1486  0.0545 -0.2706
65469W        W 8563  11.215  31.866  20.617  0.0710 -0.0436  0.2577
65470W        W 8564  10.602  32.301  22.470 -0.0032 -0.0096  0.0969
65471W        W 8565  12.908  29.176  19.671  0.2167 -0.1531 -0.1739
65472W        W 8566  13.914  30.319  19.707 -0.0302 -0.0797  0.0176
65473W        W 8567  12.928  30.220  20.406 -0.2209 -0.1231  0.0302
65474W        W 8568  13.785  29.178  23.296  0.0024  0.2919  0.2651
65475W        W 8569  14.789  30.017  20.234  0.1947 -0.0995  0.0756
65476W        W 8570  12.883  31.147  24.581 -0.0810  0.0663  0.2857
65477W        W 8571  12.289  30.171  22.635  0.0837  0.0860  0.2015
65478W        W 8572  13.081  31.771  20.708 -0.0368  0.0245  0.1278
65479W        W 8573  11.498  30.518  21.445 -0.1427 -0.1641 -0.2168
65480W        W 8574  12.921  33.191  22.730 -0.1065  0.0174  0.2910
65481W        W 8575  11.229  32.062  24.439  0.0703 -0.0486 -0.1650
65482W        W 8576  13.217  30.062  21.514 -0.2424 -0.1644  0.2782
65483W        W 8577  11.579  30.642  19.203 -0.1939  0.0070 -0.1214
65484W        W 8578  11.242  31.383  22.400 -0.1641 -0.3893 -0.0071
65485W        W 8579  13.246  31.754  21.984 -0.0943 -0.1738 -0.0297
65486W        W 8580  12.529  29.877  20.288 -0.2392 -0.3306  0.0291
65487W        W 8581  13.293  31.327  21.605  0.1055 -0.1370  0.2223
65488W        W 8582  11.378  30.785  20.687  0.2929 -0.1359 -0.0691
65489W        W 8583  13.406  30.106  20.622  0.0536  0.0146 -0.0878
65490W        W 8584  14.217  30.899  20.528  0.0042 -0.0363  0.0148
65491W        W 8585  12.650  31.670  20.560  0.1151 -0.1541 -0.0793
65492W        W 8586  11.760  29.515  22.383 -0.2012 -0.1114 -0.2404
65493W        W 8587  14.151  31.692  22.293  0.0410  0.1463  0.0077
65494W        W 8588  13.059  30.996  21.117  0.1432  0.4194  0.0180
65495W        W 8589  12.655  30.540  21.978  0.1004 -0.0105  0.0386
65496W        W 8590  13.239  30.640  22.323  0.2364 -0.0238  0.1849
65497W        W 8591  11.151  31.342  21.866  0.0597 -0.1290 -0.0765
65498W        W 8592  11.971  30.112  23.580 -0.1281  0.0166 -0.0601
65499W        W 8593  14.834  33.816  21.804  0.3151  0.0971 -0.3116
65500W        W 8594  14.514  30.111  21.603 -0.1478  0.0845  0.1271
65501W        W 8595  14.116  29.277  22.948 -0.2179  0.1074 -0.0519
65502W        W 8596  13.631  30.843  21.877 -0.1017  0.4339 -0.0898
65503W        W 8597  12.119  30.981  19.554  0.2619  0.1499  0.0489
65504W        W 8598   9.947  31.116  21.069  0.3427  0.1187 -0.0631
65505W        W 8599  13.702  32.912  22.050  0.0252  0.4124  0.1608
65506W        W 8600  11.196  30.839  18.918  0.0762 -0.1685 -0.0758
65507W        W 8601  14.512  29.267  24.451 -0.3651  0.0960 -0.1423
65508W        W 8602  12.173  32.127  19.850 -0.0512 -0.1782  0.0667
65509W        W 8603  12.862  31.332  21.882 -0.0861  0.0797  0.4307
65510W        W 8604  13.740  28.798  19.511  0.2003 -0.2227 -0.0433
65511W        W 8605   9.916  30.504  21.729  0.0391 -0.3547 -0.0674
65512W        W 8606  10.051  31.703  23.000 -0.1527 -0.1708  0.2010
65513W        W 8607  10.675  29.900  19.862  0.2692 -0.1346  0.0046
65514W        W 8608  12.447  29.516  20.595  0.4497 -0.1892  0.1912
65515W        W 8609  12.824  32.000  22.154  0.1333  0.0189 -0.1859
65516W        W 8610  13.767  30.606  24.610  0.0141  0.3645  0.2805
65517W        W 8611  12.155  28.286  20.938  0.0815  0.2480  0.1494
65518W        W 8612  13.483  30.201  22.611 -0.1847  0.0422  0.2725
65519W        W 8613  10.351  31.481  20.442 -0.0656 -0.3178  0.1207
65520W        W 8614  13.080  30.150  22.077 -0.0665 -0.2257 -0.1585
65521W        W 8615  13.472  34.647  20.879  0.1471  0.2945 -0.0314
65522W        W 8616  10.196  32.171  22.800 -0.0340  0.1940 -0.0868
65523W        W 8617  11.894  33.226  19.617  0.0737 -0.0012 -0.2122
65524W        W 8618  11.947  28.916  22.264 -0.3032  0.1130 -0.1966
65525W        W 8619  12.647  31.158  20.911 -0.2938 -0.1860  0.1874
65526W        W 8620  12.192  30.402  22.238  0.0950  0.0625 -0.2756
65527W        W 8621  15.017  29.476  22.105  0.3970  0.0855 -0.1722
65528W        W 8622  15.180  30.446  22.395  0.0975 -0.1529  0.1795
65529W        W 8623  11.640  31.396  21.071  0.1483  0.0373  0.3250
65530W        W 8624  12.911  32.879  23.261 -0.1272 -0.0934  0.0649
65531W        W 8625  15.654  30.664  22.148  0.1724 -0.1978 -0.1455
65532W        W 8626  11.452  32.972  20.856 -0.0260  0.0469 -0.1329
65533W        W 8627   9.691  31.307  23.145  0.4087  0.1031  0.3582
65534W        W 8628  11.785  31.195  23.586  0.2684 -0.1619 -0.0159
65535W        W 8629  12.657  32.599  21.864 -0.1424 -0.1931  0.0311
65536W        W 8630  11.691  30.068  20.179  0.0197  0.0192  0.2896
65537W        W 8631  12.052  30.919  20.121  0.2812 -0.0782 -0.2310
65538W        W 8632  10.687  32.713  23.337 -0.0006  0.1481 -0.0452
65539W        W 8633  10.505  31.802  22.123 -0.4112 -0.3634 -0.3536
65540W        W 8634  12.656  31.510  18.992  0.0969  0.1368 -0.5043
65541W        W 8635  12.538  32.295  20.193 -0.2301  0.0038  0.1603
65542W        W 8636  13.993  31.789  20.214 -0.3342  0.0245 -0.0413
65543W        W 8637  11.472  33.191  19.917  0.1266  0.0044 -0.2363
65544W        W 8638  11.621  27.692  18.790 -0.2297 -0.0817 -0.0773
65545W        W 8639  11.704  34.003  22.740 -0.1115  0.1895  0.0802
65546W        W 8640   9.058  33.259  19.467  0.0886  0.1444  0.1635
65547W        W 8641  12.280  32.516  20.980  0.1751 -0.0879 -0.0320
65548W        W 8642  11.680  32.888  20.310  0.0335  0.0833  0.0182
65549W        W 8643  13.941  31.722  22.754  0.0475 -0.1048 -0.0979
65550W        W 8644  13.997  29.588  20.974  0.0754  0.3648  0.0662
65551W        W 8645  14.012  30.470  21.745 -0.0272  0.2397 -0.1501
65552W        W 8646  14.939  29.942  19.726 -0.1509  0.1574 -0.0223
65553W        W 8647  13.509  32.383  23.776 -0.1177 -0.2532  0.1520
65554W        W 8648  12.805  31.228  20.353 -0.0703 -0.0931 -0.0888
65555W        W 8649  13.387  29.170  19.286 -0.1155 -0.1799  0.0239
65556W        W 8650  13.274  30.479  23.862  0.0425 -0.0253 -0.1834
65557W        W 8651  14.684  29.417  22.849 -0.1336 -0.1352 -0.0434
65558W        W 8652  12.044  31.480  22.699  0.2402 -0.1379 -0.1474
65559W        W 8653  12.693  33.043  19.802 -0.0639  0.1431  0.0329
65560W        W 8654  11.177  31.047  21.253  0.1396  0.1381  0.0375
65561W        W 8655  11.951  31.893  20.277  0.1254  0.0427  0.2759
65562W        W 8656  13.703  29.765  22.786  0.0813 -0.1938  0.2083
65563W        W 8657  13.363  30.141  20.123 -0.1288 -0.2518  0.1942
65564W        W 8658  13.284  30.566  20.327 -0.2677  0.2399 -0.0745
65565W        W 8659  11.426  32.338  21.415  0.1298  0.1602  0.1270
65566W        W 8660  11.514  32.405  21.908 -0.2569  0.0348  0.0587
65567W        W 8661  12.376  31.461  22.186  0.0674 -0.1099  0.0226
65568W        W 8662  10.931  31.212  19.064 -0.0721  0.1790  0.0431
65569W        W 8663  14.845  30.169  20.729 -0.0709  0.1157  0.0394
65570W        W 8664  11.539  31.069  22.026  0.0936  0.1019 -0.0007
65571W        W 8665  14.131  28.854  22.714 -0.3022 -0.3997 -0.0547
65572W        W 8666  11.801  30.487  20.806 -0.2476  0.1881  0.2439
65573W        W 8667  14.603  30.633  21.595 -0.2247 -0.2211  0.0891
65574W        W 8668  12.420  32.390  22.425  0.0997  0.0004 -0.2136
65575W        W 8669  10.630  30.870  21.233 -0.0491  0.0752 -0.0421
65576W        W 8670  12.534  30.445  20.605  0.1753  0.1164  0.1735
65577W        W 8671  15.038  30.311  24.019 -0.1907  0.1914 -0.1410
65578W        W 8672  13.459  29.548  20.725 -0.0785 -0.0990  0.1391
65579W        W 8673  12.930  32.568  22.360  0.0922  0.0833 -0.2806
65580W        W 8674  10.904  30.044  20.918  0.1577  0.0454 -0.6074
65581W        W 8675  12.799  27.690  19.911 -0.1620 -0.0974 -0.2762
65582W        W 8676  10.833  31.025  20.760  0.0717 -0.1432 -0.1199
65583W        W 8677  11.886  30.772  21.786  0.1502 -0.0075 -0.0851
65584W        W 8678  14.283  32.169  22.064  0.1341  0.0677  0.4258
65585W        W 8679  11.223  29.058  21.708  0.0565  0.0636  0.1411
65586W        W 8680  14.218  33.714  19.144 -0.1736  0.0728 -0.0084
65587W        W 8681  13.975  30.388  22.716  0.1624  0.1593  0.1050
65588W        W 8682  11.413  32.558  20.013 -0.4951 -0.1408 -0.2044
65589W        W 8683  13.946  30.802  22.287  0.0737  0.1467  0.0621
65590W        W 8684  13.989  31.688  21.296 -0.1574 -0.2321  0.0767
65591W        W 8685   9.824  30.790  22.573 -0.2310 -0.3057 -0.3309
65592W        W 8686  14.378  32.039  22.628  0.0604  0.0563  0.2578
65593W        W 8687  15.107  31.688  22.044  0.0119 -0.1270 -0.4332
65594W        W 8688  12.167  30.056  20.665  0.0476 -0.3574  0.0256
65595W        W 8689  12.249  30.761  21.015  0.1035 -0.0645 -0.3883
65596W        W 8690  10.971  31.675  21.036 -0.0599  0.0866 -0.2899
65597W        W 8691  14.183  28.922  22.198  0.2522  0.1782 -0.0322
65598W        W 8692  14.268  30.987  21.930  0.0122 -0.0998 -0.1979
65599W        W 8693  11.703  32.043  17.787 -0.0809 -0.1556  0.1817
65600W        W 8694  14.256  29.368  23.991  0.0084  0.2188 -0.0473
65601W        W 8695  13.460  31.238  23.625  0.0788  0.0401  0.2492
65602W        W 8696  11.134  31.828  23.361 -0.0683  0.1066  0.0011
65603W        W 8697  11.931  30.943  20.631 -0.3318 -0.0285  0.0095
65604W        W 8698  11.529  31.945  22.337 -0.2810  0.1131  0.0647
65605W        W 8699  12.506  31.106  19.975  0.3004 -0.0348 -0.1880
65606W        W 8700  12.316  32.663  19.989  0.1483  0.1171 -0.2140
65607W        W 8701  12.444  31.639  21.614 -0.0074 -0.1227  0.1397
65608W        W 8702  14.115  29.838  21.401  0.0206  0.3522 -0.0257
65609W        W 8703  14.909  31.932  20.570 -0.2527 -0.2790 -0.0644
65610W        W 8704  12.050  29.204  21.057  0.1214  0.0219 -0.0916
65611W        W 8705  15.872  29.111  20.186 -0.0018 -0.1437 -0.1151
65612W        W 8706  12.033  29.067  19.232  0.2024  0.0409 -0.1799
65613W        W 8707  11.297  31.998  21.890 -0.0966 -0.0667 -0.0437
65614W        W 8708  10.705  31.097  19.751  0.0840  0.2847 -0.3931
65615W        W 8709  11.155  32.915  20.400  0.1617  0.1213 -0.1244
65616W        W 8710  11.396  32.771  22.291 -0.1204  0.0833 -0.1575
65617W        W 8711  12.836  30.715  24.155  0.1532 -0.0589 -0.1042
65618W        W 8712  10.999  31.530  22.831  0.0740 -0.2660  0.1966
65619W        W 8713  11.460  32.089  20.112  0.0346 -0.0052 -0.3393
65620W        W 8714  10.126  29.353  20.702 -0.2264 -0.2302  0.1836
65621W        W 8715  13.912  33.757  20.673 -0.1141  0.0194  0.2397
65622W        W 8716  11.651  29.173  21.907 -0.1499  0.2087 -0.1831
65623W        W 8717  10.360  29.978  20.913 -0.1911  0.1493 -0.0450
65624W        W 8718  12.216  32.246  20.568 -0.0746  0.3592  0.3548
65625W        W 8719  13.047  32.065  21.122 -0.0560  0.0916 -0.1181
65626W        W 8720  12.638  29.694  21.203  0.1280 -0.0275  0.2917
65627W        W 8721  14.025  31.878  24.219  0.0905  0.0691 -0.0799
65628W        W 8722   9.279  32.674  18.361  0.1636  0.2255  0.1412
65629W        W 8723  14.156  30.415  23.663 -0.1298 -0.0139  0.2573
65630W        W 8724  11.942  30.454  21.309 -0.0556  0.0288 -0.1052
65631W        W 8725   9.783  30.532  19.828 -0.0338  0.4045 -0.2367
65632W        W 8726  13.024  30.997  22.870 -0.0163 -0.0466  0.0322
65633W        W 8727  12.881  31.638  19.479  0.0306 -0.2987 -0.0634
65634W        W 8728  13.579  31.894  20.898  0.0736  0.1511  0.0885
65635W        W 8729  12.060  31.957  22.568 -0.0529  0.0510  0.2196
65636W        W 8730  12.003  34.269  22.302 -0.1216 -0.1080 -0.0740
65637W        W 8731  11.293  29.685  21.627  0.0304  0.1568 -0.3013
65638W        W 8732  13.456  31.814  21.351  0.3134 -0.3420  0.0951
65639W        W 8733  11.986  32.908  22.088 -0.0036  0.1117 -0.0250
65640W        W 8734  14.006  30.984  19.658  0.0738  0.0961 -0.3140
65641W        W 8735  13.840  27.807  21.393  0.0285 -0.1769  0.2794
65642W        W 8736  13.450  31.424  20.177  0.4141  0.2837  0.0602
65643W        W 8737  10.665  30.484  22.251  0.1682  0.1451  0.2496
65644W        W 8738  10.939  31.079  22.988 -0.1977 -0.1791  0.1430
65645W        W 8739  13.954  31.183  22.643  0.1369 -0.0449  0.0270
65646W        W 8740  10.697  30.565  21.740 -0.1663  0.1631 -0.2590
65647W        W 8741  14.348  29.453  20.501 -0.0439 -0.3682  0.2728
65648W        W 8742  12.193  31.337  20.905  0.3345  0.0596  0.0345
65649W        W 8743  10.440  31.371  21.247 -0.0404  0.0213 -0.0425
65650W        W 8744  11.735  29.536  19.933  0.0912 -0.1141  0.1621
65651W        W 8745  12.653  30.509  22.505  0.1450  0.2326 -0.1995
65652W        W 8746  11.983  32.037  21.570  0.2407 -0.5366  0.1659
65653W        W 8747  13.588  30.767  22.732 -0.0360 -0.0107  0.1011
65654W        W 8748  12.973  29.399  20.118  0.0344  0.2195 -0.0746
65655W        W 8749  14.288  30.421  20.771  0.1760 -0.0081  0.2350
65656W        W 8750  13.476  32.102  22.878  0.0610 -0.2037  0.0327
65657W        W 8751  13.682  32.743  22.840  0.0476 -0.1811 -0.0795
65658W        W 8752  13.346  32.228  22.013 -0.1766 -0.5878 -0.2010
65659W        W 8753  14.304  31.472  21.879  0.1307  0.4567 -0.1853
65660W        W 8754  10.290  29.120  22.679 -0.0799  0.1500 -0.0653
65661W        W 8755  11.673  30.603  20.262 -0.0873  0.0934 -0.1686
65662W        W 8756  12.405  30.977  20.517 -0.2423 -0.0901  0.5504
65663W        W 8757  14.233  30.365  22.216 -0.1258 -0.3674  0.1291
65664W        W 8758  11.588  29.005  20.750 -0.0242 -0.4162 -0.1753
65665W        W 8759  12.178  29.887  21.390 -0.2611  0.1149 -0.0034
65666W        W 8760  10.794  32.139  21.790 -0.2881  0.1559 -0.1444
65667W        W 8761  12.940  31.950  21.661 -0.1965 -0.1631  0.0647
65668W        W 8762  12.220  31.588  26.877 -0.0297 -0.0137 -0.3364
65669W        W 8763  11.973  31.262  24.883 -0.1354  0.0592 -0.1373
65670W        W 8764  14.523  31.897  23.112 -0.4006 -0.0913 -0.1154
65671W        W 8765  14.323  31.410  24.616 -0.1242  0.2824 -0.2736
65672W        W 8766  11.277  31.597  24.251  0.0745 -0.2673  0.0188
65673W        W 8767  12.571  33.542  24.403 -0.1496 -0.0756  0.0379
65674W        W 8768  13.192  29.915  26.134 -0.0181  0.1502  0.1084
65675W        W 8769  13.573  34.119  25.811 -0.0590 -0.0237 -0.2491
65676W        W 8770  14.999  31.984  26.908 -0.0068 -0.2645  0.1406
65677W        W 8771  13.493  32.417  24.903  0.2139 -0.1995  0.0861
65678W        W 8772  13.662  30.333  26.138  0.0497 -0.0233  0.3201
65679W        W 8773  14.086  32.356  26.620  0.4435  0.0020 -0.0128
65680W        W 8774  11.793  30.904  24.044  0.4873 -0.3087 -0.0167
65681W        W 8775  11.353  29.700  25.440 -0.0832 -0.1909 -0.1865
65682W        W 8776  14.324  31.863  25.768  0.3411  0.1775  0.0343
65683W        W 8777  10.261  30.658  23.469 -0.0929  0.1046  0.3579
65684W        W 8778  12.692  30.414  25.625  0.1924 -0.0479 -0.1686
65685W        W 8779  13.783  30.756  23.673  0.2468 -0.0506 -0.0034
65686W        W 8780  12.896  33.037  25.278  0.0272 -0.1841 -0.1181
65687W        W 8781  12.319  29.751  26.066  0.1093  0.1177 -0.2259
65688W        W 8782  14.074  30.027  26.272 -0.2416  0.2648  0.0179
65689W        W 8783  12.256  31.486  23.551 -0.2955 -0.0490  0.0086
65690W        W 8784  10.972  29.287  21.378  0.1397  0.2624 -0.2427
65691W        W 8785  10.913  31.069  25.434 -0.1968 -0.0058  0.0736
65692W        W 8786  12.894  30.802  26.031  0.0895 -0.1050 -0.2501
65693W        W 8787  13.549  30.972  25.600 -0.1359  0.2105 -0.0703
65694W        W 8788  14.475  33.293  25.250 -0.2822 -0.1111 -0.4176
65695W        W 8789  12.790  32.874  26.515 -0.1635  0.0297 -0.1057
65696W        W 8790  12.562  32.379  23.952  0.0105  0.0728  0.0083
65697W        W 8791  12.656  30.869  27.852 -0.2022  0.1027 -0.3005
65698W        W 8792   9.057  31.384  24.616 -0.3542  0.1049  0.2131
65699W        W 8793  11.674  33.910  24.671  0.0200 -0.3658  0.2102
65700W        W 8794  11.832  33.849  25.144  0.3145 -0.1139 -0.2507
65701W        W 8795  14.721  31.493  25.043  0.0312 -0.4926 -0.3499
65702W        W 8796  14.709  33.672  27.058  0.1944  0.0604  0.0610
65703W        W 8797  11.641  34.507  27.419  0.1331 -0.0750  0.0381
65704W        W 8798  11.982  32.691  24.833  0.0531 -0.1671 -0.1640
65705W        W 8799  12.548  33.610  26.972 -0.1837 -0.0538  0.1247
65706W        W 8800  12.570  33.322  25.601 -0.0654  0.0296 -0.0673
65707W        W 8801  12.875  32.713  27.998 -0.0500 -0.0510 -0.0187
65708W        W 8802  13.248  30.862  24.558 -0.2800  0.1124 -0.2771
65709W        W 8803  13.169  32.388  23.288 -0.2460 -0.2375  0.0975
65710W        W 8804  14.048  31.374  25.866  0.2087 -0.2333  0.0676
65711W        W 8805  13.072  30.277  27.111 -0.3290 -0.0455 -0.2032
65712W        W 8806  12.061  31.380  25.661 -0.1294 -0.0041 -0.1023
65713W        W 8807  15.909  30.766  28.231 -0.0926  0.0102 -0.3464
65714W        W 8808  11.843  33.398  24.606  0.1353  0.1014  0.0755
65715W        W 8809  13.633  30.472  23.227 -0.0723 -0.0754 -0.0596
65716W        W 8810  12.504  30.237  23.519  0.3632  0.1741 -0.1793
65717W        W 8811  14.072  31.377  23.178  0.1073  0.2184 -0.0354
65718W        W 8812  12.846  30.022  24.596  0.1731  0.2355  0.0336
65719W        W 8813  11.752  32.200  25.374  0.1536  0.1355  0.1084
65720W        W 8814  13.637  30.822  26.544 -0.0262 -0.0862  0.0359
65721W        W 8815  14.929  32.690  25.908  0.0859  0.6078 -0.0822
65722W        W 8816  12.343  30.857  22.842 -0.0094 -0.0108 -0.0547
65723W        W 8817  12.469  32.235  25.527 -0.3354  0.0409  0.2340
65724W        W 8818  13.003  32.107  25.496 -0.0805  0.0007 -0.2653
65725W        W 8819  11.718  31.452  25.285 -0.2981 -0.0894 -0.0621
65726W        W 8820  14.412  31.458  22.793  0.0982  0.1768  0.1377
65727W        W 8821  15.068  31.917  25.159  0.0599  0.0891  0.0796
65728W        W 8822  13.013  32.700  23.690  0.1462  0.2582 -0.0479
65729W        W 8823  10.978  31.518  24.637 -0.1982  0.3237  0.3176
65730W        W 8824  12.173  31.560  26.141  0.2929  0.0320 -0.0112
65731W        W 8825  11.322  31.569  26.375  0.0421 -0.0947  0.2062
65732W        W 8826  11.519  30.916  23.123 -0.1657 -0.0077  0.3359
65733W        W 8827  14.522  33.246  27.456  0.0031  0.1054  0.5763
65734W        W 8828  11.295  32.545  26.778  0.1690  0.0309  0.4724
65735W        W 8829  15.638  29.593  24.681  0.1058  0.0209 -0.0139
65736W        W 8830  12.332  31.333  25.253  0.1748  0.2217 -0.1038
65737W        W 8831  13.091  32.368  26.792 -0.0678 -0.3672  0.1675
65738W        W 8832  13.988  31.304  23.666  0.1110  0.2282  0.1019
65739W        W 8833  14.472  30.493  24.827  0.3918  0.3235  0.1550
65740W        W 8834  14.794  30.190  24.469  0.2942 -0.2256 -0.2376
65741W        W 8835  11.564  31.608  22.796  0.0904 -0.1992 -0.5419
65742W        W 8836  12.862  31.766  24.644  0.1953  0.0894  0.0819
65743W        W 8837  14.444  33.107  26.566  0.0637 -0.0779  0.0155
65744W        W 8838  14.555  31.035  23.676  0.1566  0.1433 -0.4171
65745W        W 8839  11.821  33.074  25.157  0.0147 -0.1654  0.1327
65746W        W 8840  12.371  30.040  26.499 -0.0031 -0.2580  0.0313
65747W        W 8841  13.510  34.373  28.105 -0.1585 -0.0702  0.0942
65748W        W 8842  11.481  32.979  23.819 -0.0409  0.0676  0.1113
65749W        W 8843  10.252  31.844  24.285  0.0088  0.1358  0.0558
65750W        W 8844  10.576  31.859  22.925 -0.1677  0.0393  0.0013
65751W        W 8845  10.556  30.546  27.218  0.1617 -0.3492  0.0395
65752W        W 8846  13.027  30.961  25.072  0.0361 -0.1643  0.2721
65753W        W 8847  14.545  30.551  24.222 -0.3339  0.0052 -0.1848
65754W        W 8848  11.305  30.671  26.525 -0.0302 -0.1308 -0.1372
65755W        W 8849  15.802  30.524  23.767  0.1481  0.0595 -0.2473
65756W        W 8850  10.531  32.081  23.949 -0.0586  0.2822 -0.0564
65757W        W 8851  13.337  32.994  22.450  0.2449 -0.1116  0.1745
65758W        W 8852  14.307  29.571  22.591 -0.0896 -0.0382  0.2147
65759W        W 8853  11.869  32.883  24.396 -0.1209  0.2075  0.2735
65760W        W 8854  11.600  32.072  26.669 -0.0834 -0.2629 -0.2515
65761W        W 8855  12.090  30.868  25.155 -0.3675  0.1641 -0.2146
65762W        W 8856  11.636  30.702  28.309 -0.2424 -0.1077  0.0139
65763W        W 8857  11.698  30.442  25.346  0.0415 -0.0321 -0.1674
65764W        W 8858  13.482  31.838  27.346  0.4645 -0.0358  0.2215
65765W        W 8859  11.133  30.071  22.482 -0.0575 -0.1178 -0.1502
65766W        W 8860  12.767  30.515  24.654 -0.3331  0.0823  0.0063
65767W        W 8861  12.534  31.786  23.927  0.1639 -0.1126 -0.1456
65768W        W 8862  12.617  32.685  24.835  0.0928  0.3363 -0.0556
65769W        W 8863  14.714  31.815  26.529 -0.0500 -0.0941 -0.0273
65770W        W 8864  12.839  32.331  24.506 -0.0406 -0.1304 -0.1030
65771W        W 8865  14.692  32.639  26.832 -0.4820 -0.2572 -0.3582
65772W        W 8866  14.973  32.269  26.475 -0.0246  0.1720 -0.0365
65773W        W 8867  12.714  30.464  26.579  0.0908  0.1007  0.2014
65774W        W 8868  12.260  30.596  24.404  0.1959 -0.1775 -0.2537
65775W        W 8869  11.447  33.417  24.918  0.2222  0.1707 -0.1243
65776W        W 8870  12.343  32.175  24.876  0.1104 -0.3162  0.0142
65777W        W 8871  11.534  29.909  24.520  0.1074  0.1111 -0.1405
65778W        W 8872  15.516  32.149  25.307  0.1457 -0.0206 -0.1110
65779W        W 8873  12.234  31.017  23.948  0.1824  0.0044  0.4214
65780W        W 8874  11.120  32.035  25.907 -0.0302  0.0076 -0.0209
65781W        W 8875  13.835  30.192  26.714  0.1781 -0.1825  0.1115
65782W        W 8876  14.477  32.474  27.782 -0.2400  0.2321  0.1966
65783W        W 8877  12.536  31.496  26.505 -0.2985 -0.0603  0.0842
65784W        W 8878  10.718  30.021  22.748  0.0802 -0.0218 -0.0357
65785W        W 8879  14.728  32.445  25.432  0.1583 -0.0458 -0.2449
65786W        W 8880  12.147  32.834  23.425 -0.0141 -0.1925 -0.0999
65787W        W 8881  10.632  31.655  23.512  0.0804 -0.1132  0.3888
65788W        W 8882  13.026  32.202  24.987 -0.0523 -0.2731 -0.0690
65789W        W 8883  15.575  31.269  26.432  0.3151 -0.0848  0.1936
65790W        W 8884  11.115  30.709  28.084  0.1334 -0.1049  0.1092
65791W        W 8885  12.454  30.885  26.858 -0.0132  0.0995 -0.2800
65792W        W 8886  12.453  30.045  24.302 -0.1935  0.1456 -0.2614
65793W        W 8887  12.676  31.858  26.893  0.0886  0.0793 -0.1039
65794W        W 8888  13.649  30.151  23.647  0.1293 -0.1098 -0.1012
65795W        W 8889  14.827  28.856  24.132 -0.2896 -0.2031  0.1849
65796W        W 8890  12.239  31.302  27.309  0.3475 -0.2141 -0.4436
65797W        W 8891  14.214  31.767  25.095 -0.3759  0.1112  0.2626
65798W        W 8892  13.234  30.413  24.377  0.2882 -0.1053  0.0866
65799W        W 8893  13.818  28.567  25.146 -0.0731  0.0528 -0.2641
65800W        W 8894   9.094  32.483  28.457  0.1983 -0.3031 -0.3379
65801W        W 8895  12.846  32.526  25.331  0.1089 -0.1729 -0.0949
65802W        W 8896  13.152  31.192  25.900 -0.1476  0.1006 -0.1592
65803W        W 8897  13.359  29.968  23.079  0.0201 -0.0655 -0.0990
65804W        W 8898  12.972  32.738  25.740  0.1417 -0.1660  0.0912
65805W        W 8899  10.791  31.282  26.219 -0.0205  0.0299  0.0128
65806W        W 8900  13.880  31.380  27.948 -0.0858 -0.3417 -0.2209
65807W        W 8901  13.654  33.236  24.566 -0.0305 -0.4307  0.4323
65808W        W 8902  13.447  29.560  25.482  0.3363  0.0274 -0.0702
65809W        W 8903  12.601  31.169  23.128  0.0686  0.1684  0.0118
65810W        W 8904  13.543  30.934  24.979  0.1189 -0.0912 -0.1567
65811W        W 8905  11.362  33.359  23.154  0.0489  0.1157 -0.1926
65812W        W 8906  14.587  30.945  26.593  0.2069  0.1282  0.0206
65813W        W 8907  13.340  29.984  24.676 -0.0368 -0.1050 -0.1169
65814W        W 8908  13.578  29.055  25.867 -0.0631 -0.4832 -0.1260
65815W        W 8909  14.487  30.975  27.943  0.0417  0.3748  0.1897
65816W        W 8910  14.469  30.147  23.918  0.0803  0.1055  0.2411
65817W        W 8911  14.137  30.997  26.210 -0.4705 -0.0200  0.1911
65818W        W 8912  11.938  30.624  23.014  0.0142 -0.3726  0.3430
65819W        W 8913  14.531  30.144  26.254  0.4144 -0.1333  0.2087
65820W        W 8914  12.201  30.422  26.739  0.1181  0.0487 -0.1173
65821W        W 8915  10.626  33.306  25.996 -0.0423  0.0878  0.3181
65822W        W 8916  12.127  33.769  27.340 -0.1448 -0.1607  0.3036
65823W        W 8917  11.957  31.460  23.999 -0.0606 -0.2708 -0.2282
65824W        W 8918  13.748  29.673  26.495  0.1216 -0.3544  0.0657
65825W        W 8919  13.824  31.082  24.074 -0.1288  0.1898 -0.2357
65826W        W 8920  11.654  32.450  23.756  0.2243  0.0008  0.0948
65827W        W 8921  11.100  32.018  23.907 -0.0422 -0.1744 -0.3396
65828W        W 8922  12.703  29.125  25.254 -0.0392 -0.1247  0.0963
65829W        W 8923  11.478  33.591  25.466  0.1910 -0.4003  0.0377
65830W        W 8924  12.383  31.647  23.018  0.0119  0.1269 -0.0770
65831W        W 8925  14.866  32.944  25.309  0.0935  0.1706  0.1173
65832W        W 8926  11.393  32.919  24.308  0.3745  0.1682 -0.4504
65833W        W 8927  13.647  29.838  25.132  0.1203  0.0800 -0.0074
65834W        W 8928  11.143  32.436  25.422 -0.0260  0.0008 -0.2723
65835W        W 8929  11.284  30.834  23.637  0.2431  0.0959 -0.0279
65836W        W 8930  11.407  30.367  24.471  0.1706  0.2921 -0.1710
65837W        W 8931  14.922  30.595  25.054  0.1379 -0.3659  0.3447
65838W        W 8932  14.691  32.012  23.588  0.2152  0.3292  0.1372
65839W        W 8933  11.751  30.543  25.883 -0.0616 -0.4606 -0.1544
65840W        W 8934  14.039  29.696  27.475  0.1799  0.1051  0.1603
65841W        W 8935  10.915  32.479  26.422 -0.1363 -0.1268 -0.3809
65842W        W 8936  12.974  31.909  24.138  0.1412  0.0617 -0.0957
65843W        W 8937  12.808  30.719  23.296  0.0735  0.0275  0.2065
65844W        W 8938  14.732  33.483  25.652  0.1919 -0.1844 -0.1864
65845W        W 8939  12.553  31.930  26.023  0.0327 -0.4118  0.2494
65846W        W 8940  11.010  30.127  21.866 -0.1008 -0.0625  0.1137
65847W        W 8941  13.151  32.171  25.960 -0.3318 -0.0843  0.0240
65848W        W 8942  12.422  31.530  24.343  0.0178  0.0388  0.0756
65849W        W 8943  11.641  32.106  23.405  0.0420 -0.1207  0.3141
65850W        W 8944  13.162  33.133  26.244 -0.0093 -0.0550 -0.1916
65851W        W 8945  11.864  30.619  22.540 -0.3227  0.0370  0.1533
65852W        W 8946  11.868  32.203  24.850  0.0278  0.1907  0.1303
65853W        W 8947  11.528  31.667  27.824  0.0149 -0.1556 -0.1481
65854W        W 8948  14.145  33.083  24.791  0.1658  0.4283  0.0454
65855W        W 8949  13.558  30.501  25.554  0.3502 -0.0232  0.1291
65856W        W 8950  12.012  31.746  24.518  0.2739  0.0733 -0.0384
65857W        W 8951  14.039  30.515  26.405  0.0698 -0.2300  0.2556
65858W        W 8952  13.633  33.328  25.871  0.0791  0.1985  0.0885
65859W        W 8953  12.960  29.603  26.469 -0.2542  0.5130 -0.2553
65860W        W 8954  12.105  31.995  26.505  0.1092  0.0844 -0.2990
65861W        W 8955  13.652  29.983  25.813  0.1613  0.0463 -0.0731
65862W        W 8956  14.645  31.760  24.234  0.0577 -0.3823 -0.0910
65863W        W 8957  12.985  31.489  25.524  0.2856 -0.3616 -0.0194
65864W        W 8958  12.862  31.249  23.996  0.1917  0.2386 -0.1442
65865W        W 8959  10.283  31.020  25.899 -0.1581  0.0030 -0.1705
65866W        W 8960  12.452  32.022  24.349 -0.0019  0.1501  0.1131
65867W        W 8961  13.174  30.344  25.889 -0.1640 -0.2855 -0.2263
65868W        W 8962  12.593  30.982  26.360 -0.0614  0.0456 -0.1484
65869W        W 8963  12.133  31.849  25.217 -0.2267 -0.1046 -0.1187
65870W        W 8964  11.433  31.102  25.592 -0.0262 -0.2255 -0.0121
65871W        W 8965  13.115  30.289  23.428  0.1424  0.2737  0.1643
65872W        W 8966  14.686  31.688  22.374  0.1962 -0.1779 -0.0112
65873W        W 8967  11.672  31.361  24.421 -0.2893  0.1038 -0.5362
65874W        W 8968  14.041  30.879  26.819  0.2167  0.4138  0.0084
65875W        W 8969  13.418  31.772  25.633 -0.0953  0.1909  0.0648
65876W        W 8970  13.962  32.090  27.115 -0.0912  0.1781  0.0383
65877W        W 8971  12.825  29.673  25.912 -0.2892 -0.1733  0.1026
65878W        W 8972  14.326  32.739  25.165  0.0808  0.2636 -0.3708
65879W        W 8973  11.276  30.533  25.657  0.0683 -0.1580  0.0603
65880W        W 8974  14.349  33.032  27.964  0.2286  0.0060 -0.0158
65881W        W 8975  11.085  31.721  27.578  0.1009 -0.0558 -0.0286
65882W        W 8976  12.635  31.098  23.616 -0.0869 -0.1673 -0.1221
65883W        W 8977  13.306  30.995  24.015 -0.0095 -0.0188  0.0868
65884W        W 8978  12.386  31.652  24.813 -0.0979  0.2581 -0.0392
65885W        W 8979  14.386  31.389  26.423  0.0485  0.0701  0.0238
65886W        W 8980  11.774  31.476  22.289 -0.1634 -0.0980  0.0982
65887W        W 8981  13.880  30.730  25.882  0.2899  0.0119  0.2394
65888W        W 8982  12.613  32.647  28.411  0.0346 -0.0909  0.2694
65889W        W 8983  13.682  31.051  23.187  0.0084 -0.0455 -0.1781
65890W        W 8984  14.219  30.781  23.943  0.0251  0.1681 -0.0016
65891W        W 8985  10.728  31.624  24.236  0.1478 -0.1505  0.1491
65892W        W 8986  11.905  30.046  26.135  0.2213 -0.0696  0.0839
65893W        W 8987  13.371  31.300  25.283 -0.1115  0.3038 -0.0270
65894W        W 8988  14.402  29.962  25.773 -0.1251 -0.1352  0.2847
65895W        W 8989  13.300  30.931  27.409  0.0692  0.1594 -0.1852
65896W        W 8990  13.476  30.498  26.908 -0.0772 -0.0538  0.0325
65897W        W 8991  12.486  30.850  27.339  0.1009 -0.3600  0.1279
65898W        W 8992  11.162  29.837  26.060 -0.0615 -0.0376  0.2499
65899W        W 8993  15.166  33.591  25.338  0.0326  0.0362 -0.2585
65900W        W 8994  14.163  29.413  22.093 -0.1886 -0.2045  0.0503
65901W        W 8995  15.049  31.190  26.450  0.0610 -0.0585  0.1875
65902W        W 8996  14.607  30.896  25.267  0.2205 -0.3697 -0.0681
65903W        W 8997  13.647  31.573  23.204 -0.1545 -0.0831  0.3005
65904W        W 8998  11.661  30.846  24.526 -0.1795 -0.1708 -0.1329
65905W        W 8999  13.935  31.524  27.188  0.1126 -0.2243 -0.0458
65906W        W 9000  11.426  30.465  22.720 -0.1007 -0.1111  0.0106
65907W        W 9001  13.928  31.385  26.711 -0.0596  0.0966 -0.4217
65908W        W 9002  12.914  31.546  22.837 -0.0694 -0.1881  0.1444
65909W        W 9003  13.073  31.175  23.341  0.0265  0.1263  0.0345
65910W        W 9004  13.240  31.868  22.492  0.1344  0.0761 -0.4183
65911W        W 9005  11.870  30.877  25.585 -0.1278  0.0351 -0.1678
65912W        W 9006  13.050  32.020  26.402  0.2126 -0.0677 -0.1261
65913W        W 9007  12.327  29.820  23.420 -0.1686 -0.0927  0.1344
65914W        W 9008  12.437  30.481  23.967  0.0220 -0.0313 -0.1625
65915W        W 9009  10.533  32.812  26.086  0.0545 -0.3008 -0.0896
65916W        W 9010  12.975  32.860  27.098 -0.0418  0.0007 -0.1354
65917W        W 9011  14.774  29.447  23.355  0.0315 -0.4563  0.0420
65918W        W 9012  14.948  30.571  26.774  0.0376 -0.1219 -0.1112
65919W        W 9013  10.971  31.136  24.180 -0.0591  0.1879 -0.0108
65920W        W 9014  14.321  30.033  24.974 -0.3020 -0.0048 -0.3917
65921W        W 9015  12.244  32.683  26.444 -0.0725  0.1496 -0.2969
65922W        W 9016  11.066  31.131  26.670  0.1148  0.1187 -0.0352
65923W        W 9017  13.631  31.225  26.173 -0.2253 -0.0473  0.1288
65924W        W 9018  13.864  31.140  25.276 -0.3249  0.1244 -0.0683
65925W        W 9019  13.688  31.550  23.935  0.2186 -0.3111  0.0523
65926W        W 9020  13.316  31.984  24.682 -0.2311 -0.0202 -0.1383
65927W        W 9021  13.570  32.393  27.383 -0.1689 -0.0418  0.3385
65928W        W 9022  14.150  33.297  25.853 -0.0558 -0.2271 -0.3458
65929W        W 9023  12.590  31.343  25.933 -0.0379  0.3372 -0.0630
65930W        W 9024  11.704  34.047  27.628 -0.0549  0.0821 -0.1584
65931W        W 9025  15.705  30.863  25.645  0.0435 -0.1128 -0.0141
65932W        W 9026  11.062  32.595  24.658  0.2611 -0.4000  0.1442
65933W        W 9027  10.831  30.773  26.465  0.0496 -0.0497  0.0365
65934W        W 9028  13.473  30.944  28.366 -0.1441 -0.0240  0.0529
65935W        W 9029  13.287  31.719  26.777  0.0770 -0.0359 -0.2245
65936W        W 9030  10.734  30.559  25.275 -0.0338  0.0164  0.0179
65937W        W 9031  12.541  32.473  23.458 -0.1550  0.1207  0.0778
65938W        W 9032  11.071  32.647  27.323 -0.0670 -0.3181  0.0696
65939W        W 9033  10.666  32.332  25.587 -0.1333  0.0208 -0.1890
65940W        W 9034  12.756  32.725  24.216  0.0785 -0.1996  0.1627
65941W        W 9035  13.789  32.037  24.849 -0.2091  0.0678 -0.0906
65942W        W 9036  13.358  32.522  25.423 -0.1272 -0.0027  0.4140
65943W        W 9037  12.593  32.280  26.586 -0.1236  0.0552 -0.3101
65944W        W 9038  11.493  30.372  23.319 -0.2125  0.0807  0.1665
65945W        W 9039  11.495  32.350  25.805 -0.3617 -0.0894  0.0468
65946W        W 9040  10.891  31.897  25.474  0.2494 -0.2097  0.1042
65947W        W 9041  13.704  31.639  24.497  0.2315 -0.5510  0.2195
65948W        W 9042  12.394  33.074  25.130  0.2471 -0.1678  0.1052
65949W        W 9043  13.299  32.924  26.694 -0.0886  0.0728 -0.0366
65950W        W 9044  13.668  29.655  23.397  0.1621 -0.1434 -0.0173
65951W        W 9045  15.136  30.830  25.523  0.2683 -0.0469 -0.1257
65952W        W 9046  14.829  31.024  24.775  0.2657  0.0490  0.3720
65953W        W 9047  14.477  32.388  26.307 -0.3980 -0.0912  0.2163
65954W        W 9048  12.795  30.183  25.060  0.1802  0.0524  0.2825
65955W        W 9049  13.150  29.637  22.781  0.2124  0.3160  0.1400
65956W        W 9050  11.433  31.502  26.890  0.1066  0.4021 -0.2015
65957W        W 9051  14.398  29.471  28.171  0.1432 -0.0053  0.2134
65958W        W 9052  11.211  32.185  27.488  0.0968 -0.1951  0.1303
65959W        W 9053  13.141  32.724  22.814 -0.0960  0.2937  0.1426
65960W        W 9054  13.169  29.778  25.070 -0.0692  0.1778 -0.2615
65961W        W 9055  12.756  31.055  25.515 -0.0049  0.1991  0.2010
65962W        W 9056  13.729  28.201  25.457  0.2443  0.1977  0.1527
65963W        W 9057  11.995  31.956  23.851 -0.3462 -0.0122  0.1915
65964W        W 9058  13.789  30.401  25.059  0.3312  0.2004 -0.0167
65965W        W 9059  11.489  32.890  24.812 -0.1331  0.1982  0.0006
65966W        W 9060  12.127  32.448  25.233  0.1654  0.0998  0.0151
65967W        W 9061  13.184  32.229  27.215 -0.1542  0.3561 -0.0348
65968W        W 9062  12.341  29.769  24.709 -0.1977 -0.0120 -0.1440
65969W        W 9063  15.153  29.768  25.478  0.0984  0.1363  0.0370
65970W        W 9064  10.989  30.578  26.907  0.0317  0.2010  0.4821
65971W        W 9065  14.790  30.449  27.288  0.2006 -0.0607 -0.2377
65972W        W 9066  11.344  31.143  24.745 -0.1596 -0.4526  0.5096
65973W        W 9067  13.144  31.619  23.721 -0.2230  0.3834 -0.2974
65974W        W 9068  13.447  30.767  26.110  0.1646 -0.2211  0.1606
65975W        W 9069  11.758  29.589  26.172 -0.2338 -0.4173  0.1047
65976W        W 9070  12.122  31.136  24.406 -0.0354  0.2735 -0.0269
65977W        W 9071  13.590  32.290  26.382 -0.2028 -0.0857  0.2122
65978W        W 9072  12.584  31.256  22.617 -0.2647  0.0496 -0.0315
65979W        W 9073  14.154  33.721  27.069 -0.1414 -0.2762  0.1384
65980W        W 9074  11.101  29.694  24.364  0.0453  0.1647 -0.0238
65981W        W 9075  13.838  29.940  24.616  0.0316  0.2778  0.0352
65982W        W 9076  10.049  32.252  25.229 -0.3114 -0.1544  0.0861
65983W        W 9077  12.102  30.533  27.230 -0.0379  0.1608 -0.0506
65984W        W 9078  13.528  32.408  25.884  0.0915 -0.0831  0.1065
65985W        W 9079  10.811  31.106  23.462  0.0887 -0.0116  0.0647
65986W        W 9080  14.456  33.359  22.688  0.2221 -0.3278 -0.4575
65987W        W 9081  14.454  32.937  25.642 -0.0589  0.3780  0.2043
65988W        W 9082  12.160  32.702  23.973 -0.2117  0.1593  0.1568
65989W        W 9083  13.854  31.985  25.817 -0.3729  0.0630 -0.3152
65990W        W 9084  15.189  31.911  26.079  0.2150 -0.1958  0.1233
65991W        W 9085  10.646  30.261  25.715  0.1350 -0.0999 -0.0737
65992W        W 9086  15.984  31.571  27.761 -0.1482 -0.0722  0.0885
65993W        W 9087  14.142  31.852  26.333 -0.3778  0.4140 -0.0337
65994W        W 9088  11.601  30.919  25.118  0.0715  0.3505 -0.0855
65995W        W 9089  13.234  30.459  24.996  0.1692  0.2239 -0.3418
65996W        W 9090  12.417  33.114  24.128 -0.1973 -0.0428  0.3086
65997W        W 9091  14.549  29.272  25.442  0.1342 -0.1004  0.1733
65998W        W 9092  14.300  30.974  25.717  0.0481  0.1726  0.3232
65999W        W 9093  12.280  30.812  23.477  0.0903  0.0891 -0.1844
66000W        W 9094  13.845  29.694  26.991  0.0056 -0.1065 -0.0646
66001W        W 9095  12.395  33.230  26.425 -0.0293  0.4460 -0.1025
66002W        W 9096  11.579  33.306  26.934 -0.2615  0.1959 -0.1665
66003W        W 9097  11.705  31.074  22.694 -0.3124 -0.3835  0.0018
66004W        W 9098  12.236  32.140  27.418 -0.2169 -0.3118  0.2117
66005W        W 9099  13.108  32.580  26.269  0.1961  0.0858 -0.2276
66006W        W 9100  12.275  31.948  23.413 -0.1011 -0.2622  0.0860
66007W        W 9101  14.198  32.272  25.541  0.3640 -0.0902  0.2864
66008W        W 9102  12.738  31.610  23.434  0.2272 -0.0082 -0.1480
66009W        W 9103  14.372  32.283  25.097 -0.3356  0.0063 -0.4201
66010W        W 9104  12.408  30.949  24.795  0.0515 -0.2638  0.0291
66011W        W 9105  14.822  29.712  24.223 -0.0880 -0.1474 -0.1132
66012W        W 9106  15.008  29.311  24.493  0.1938 -0.1267  0.0552
66013W        W 9107  12.583  32.455  26.048  0.3489  0.1439 -0.4223
66014W        W 9108  11.416  31.229  23.939  0.1731  0.0485 -0.2838
66015W        W 9109  11.017  33.126  24.583  0.0591  0.1134  0.2879
66016W        W 9110  12.368  30.790  25.773  0.0257  0.1854 -0.1195
66017W        W 9111  12.944  30.837  27.039 -0.0547  0.0799 -0.2426
66018W        W 9112  12.162  31.195  26.464  0.3011  0.1695 -0.4183
66019W        W 9113  11.591  32.003  24.113  0.4083 -0.2712 -0.0098
66020W        W 9114  10.765  30.441  24.178 -0.0859  0.0809  0.0393
66021W        W 9115  13.739  32.390  24.469  0.3158  0.0577 -0.2884
66022W        W 9116  13.145  29.021  24.596  0.1125 -0.0371  0.0416
66023W        W 9117  11.346  30.214  25.043  0.1606  0.0558 -0.1301
66024W        W 9118  13.360  32.753  24.414 -0.0025  0.1221  0.0228
66025W        W 9119  12.283  32.511  24.452 -0.1465  0.2005 -0.1506
66026W        W 9120  12.143  29.820  24.008 -0.3278 -0.0223 -0.1496
66027W        W 9121  15.464  31.971  27.122  0.0705  0.3362 -0.2920
66028W        W 9122  10.344  31.187  23.233  0.2603 -0.0813 -0.0666
66029W        W 9123  13.507  29.559  25.984  0.0669 -0.1849 -0.1060
66030W        W 9124  13.138  30.091  27.693  0.0500  0.1063 -0.1260
66031W        W 9125  11.156  30.133  24.071 -0.1245 -0.2394 -0.2389
66032W        W 9126  13.122  30.719  25.594 -0.0906  0.2095  0.2228
66033W        W 9127  13.074  32.715  24.951  0.1624 -0.1519  0.1049
66034W        W 9128  12.281  33.885  22.064 -0.0096  0.1557 -0.1507
66035W        W 9129  11.722  30.650  26.863  0.0167  0.0439 -0.3021
66036W        W 9130  12.741  33.545  26.244 -0.4751  0.3619  0.1272
66037W        W 9131  12.292  30.211  25.795  0.0519  0.0574 -0.3779
66038W        W 9132  12.939  32.060  23.641 -0.0301 -0.2879  0.1290
66039W        W 9133  13.025  33.763  26.998  0.1210  0.1339 -0.0510
66040W        W 9134  14.030  31.859  23.202  0.1075 -0.1106 -0.2127
66041W        W 9135  15.005  30.558  26.295  0.1961  0.2586 -0.0372
66042W        W 9136  13.217  31.737  23.228 -0.1116 -0.2387 -0.0687
66043W        W 9137  11.884  30.604  26.384  0.1004 -0.0031 -0.1188
66044W        W 9138  11.624  31.927  26.159  0.4627 -0.1214  0.1469
66045W        W 9139  13.554  32.350  26.910 -0.3869  0.0211 -0.2065
66046W        W 9140   9.879  31.407  24.581  0.3284  0.1727 -0.1219
66047W        W 9141  14.137  29.816  24.159  0.4239  0.0956 -0.2221
66048W        W 9142  11.565  32.434  24.555  0.1469  0.0123  0.0951
66049W        W 9143  10.274  31.634  25.303 -0.2088  0.0613 -0.0471
66050W        W 9144  13.331  29.337  23.121  0.0328 -0.3414 -0.1239
66051W        W 9145  12.671  31.887  25.174  0.0312 -0.2509 -0.2458
66052W        W 9146  12.748  33.502  24.847 -0.0988  0.0957 -0.0984
66053W        W 9147  13.383  32.621  29.234 -0.2413 -0.0583  0.0651
66054W        W 9148  11.505  31.693  23.754 -0.2003  0.1321  0.0946
66055W        W 9149  13.460  31.307  22.792  0.1864 -0.2142 -0.0466
66056W        W 9150  15.172  33.849  26.960  0.0132  0.1171  0.3471
66057W        W 9151  15.824  34.198  27.655  0.1182 -0.0495 -0.1344
66058W        W 9152  13.803  34.228  26.584  0.2301 -0.0139  0.0568
66059W        W 9153  13.864  31.659  25.410  0.2829 -0.1995 -0.0979
66060W        W 9154  10.769  30.960  24.993 -0.2276  0.1478  0.0527
66061W        W 9155  11.049  31.483  23.749 -0.0018  0.2645 -0.0116
66062W        W 9156  11.903  32.356  24.167  0.0968 -0.2467 -0.1835
66063W        W 9157  13.561  30.229  27.964  0.2806 -0.0466 -0.1232
66064W        W 9158  11.855  30.535  24.855 -0.2426  0.1513  0.2749
66065W        W 9159  14.465  30.329  25.373 -0.0320  0.1693 -0.0168
66066W        W 9160  11.975  32.847  26.091  0.0040  0.3687  0.4425
66067W        W 9161  13.536  31.782  26.161 -0.0658  0.0032  0.1406
66068W        W 9162  12.612  32.320  29.665 -0.2697  0.3001  0.0341
66069W        W 9163  10.561  31.241  30.065  0.2078 -0.0471  0.1195
66070W        W 9164  13.983  30.395  27.151  0.0459  0.0186 -0.1046
66071W        W 9165  14.603  31.712  28.999  0.1724 -0.1495 -0.0014
66072W        W 9166  11.862  30.261  29.262  0.0648 -0.0817 -0.1268
66073W        W 9167  12.292  32.549  27.952 -0.0100  0.0162  0.1625
66074W        W 9168  10.980  28.469  31.852 -0.2156  0.1954 -0.1620
66075W        W 9169  13.689  32.818  28.905  0.1793 -0.1918 -0.2001
66076W        W 9170  15.984  33.283  29.456 -0.1925  0.3892 -0.0718
66077W        W 9171  13.765  30.863  27.278 -0.1209  0.0850  0.1851
66078W        W 9172  12.545  29.781  29.811 -0.3657 -0.2080  0.0680
66079W        W 9173  12.668  32.196  29.189  0.1314 -0.0591 -0.3563
66080W        W 9174  12.847  31.219  27.600 -0.1664  0.3246  0.2226
66081W        W 9175  11.103  29.643  30.036 -0.1002  0.0753 -0.1866
66082W        W 9176  14.256  32.037  28.030 -0.2031  0.0791  0.3869
66083W        W 9177  10.435  30.099  28.103 -0.1082 -0.0708 -0.0446
66084W        W 9178  11.584  29.470  30.124  0.1744 -0.3261 -0.2629
66085W        W 9179  13.112  30.769  28.696  0.1958 -0.2738 -0.0962
66086W        W 9180  12.262  33.027  28.170 -0.0545 -0.3177 -0.0509
66087W        W 9181  12.072  29.022  30.368  0.1219  0.4204 -0.1808
66088W        W 9182  12.411  28.672  30.452 -0.1815 -0.4319  0.0032
66089W        W 9183  11.742  32.111  27.586  0.0936  0.2196 -0.0051
66090W        W 9184  11.186  31.011  26.085  0.0572  0.0306  0.0603
66091W        W 9185  11.059  32.272  30.186  0.2829 -0.0376  0.2441
66092W        W 9186  12.556  31.443  29.245 -0.0873  0.0640  0.3054
66093W        W 9187  13.541  29.475  29.799  0.2531 -0.1986  0.3219
66094W        W 9188  14.180  30.525  29.205  0.2891  0.1386  0.1208
66095W        W 9189  12.099  32.985  28.986 -0.0865 -0.1229 -0.1857
66096W        W 9190  13.123  32.551  28.823 -0.0368  0.0224 -0.1693
66097W        W 9191  13.582  28.470  29.942  0.3605  0.2452  0.0938
66098W        W 9192  12.237  32.050  27.960 -0.0474  0.0040 -0.2697
66099W        W 9193  11.145  33.195  29.905 -0.1574 -0.0462  0.2250
66100W        W 9194  11.114  32.144  27.023 -0.1299 -0.0630  0.1077
66101W        W 9195  12.748  32.031  28.101  0.1509  0.1594 -0.2845
66102W        W 9196  13.197  31.150  30.912  0.0617  0.0845  0.1344
66103W        W 9197  12.601  32.856  31.243 -0.1125  0.3310 -0.0955
66104W        W 9198  11.460  32.329  28.522  0.0198 -0.1826 -0.1015
66105W        W 9199  13.251  34.002  31.132 -0.1683 -0.0640 -0.1749
66106W        W 9200  12.138  33.091  31.048 -0.0157  0.1564  0.2814
66107W        W 9201  12.860  31.728  29.018  0.0237 -0.3726 -0.2041
66108W        W 9202  11.754  30.916  27.295  0.1060 -0.0315  0.0234
66109W        W 9203  11.909  31.106  26.856 -0.3222 -0.2009 -0.1234
66110W        W 9204  12.672  32.319  27.117  0.0717 -0.1387 -0.3720
66111W        W 9205  13.028  32.904  30.945  0.1796 -0.0500 -0.0214
66112W        W 9206  12.131  32.886  29.543  0.3719 -0.1248 -0.2399
66113W        W 9207  15.543  30.031  31.446 -0.1287 -0.0685  0.0141
66114W        W 9208  10.834  31.813  28.939  0.0946  0.1588  0.0309
66115W        W 9209  14.843  31.251  28.216 -0.0769  0.1019 -0.1582
66116W        W 9210  12.216  29.931  27.802  0.1681 -0.2501 -0.0930
66117W        W 9211  12.665  30.328  27.994 -0.3188  0.2764  0.1238
66118W        W 9212  11.803  28.518  28.695 -0.0637  0.0699  0.0809
66119W        W 9213  12.058  32.975  27.755 -0.0726  0.1295 -0.0459
66120W        W 9214  13.212  29.078  30.030  0.2253  0.5263  0.0039
66121W        W 9215  12.878  32.070  30.005 -0.0480 -0.1531 -0.1616
66122W        W 9216  12.060  31.709  27.525 -0.1646  0.2085 -0.3294
66123W        W 9217  12.259  30.073  30.043  0.0043 -0.4250  0.0240
66124W        W 9218  10.898  32.708  30.617 -0.1993 -0.1010 -0.1127
66125W        W 9219  10.206  31.385  29.638 -0.0907  0.3278 -0.0889
66126W        W 9220  13.113  33.099  27.647 -0.1806 -0.1636  0.0696
66127W        W 9221  15.378  32.095  29.220  0.1340 -0.0497 -0.1699
66128W        W 9222  14.361  34.011  26.665  0.0284  0.3643 -0.0351
66129W        W 9223  11.976  29.367  28.145  0.0751 -0.0611 -0.0811
66130W        W 9224  11.321  31.388  30.840 -0.0615 -0.3888  0.2358
66131W        W 9225  10.568  30.474  31.009 -0.1022  0.0302  0.0706
66132W        W 9226  12.407  29.963  27.095  0.2740 -0.2842 -0.0747
66133W        W 9227  14.842  32.728  30.194  0.3051  0.1845 -0.1990
66134W        W 9228  10.938  33.306   0.539  0.0530 -0.0162 -0.2593
66135W        W 9229  15.637  29.392  29.164  0.0404 -0.3037 -0.2286
66136W        W 9230  11.062  31.478  29.272  0.1930  0.3174 -0.2777
66137W        W 9231  14.456  32.391  30.275 -0.2323 -0.0497 -0.1111
66138W        W 9232  13.501  32.904  27.177 -0.1339  0.2410 -0.0887
66139W        W 9233  13.576  28.588  29.448  0.0792  0.1211  0.1187
66140W        W 9234  13.749  30.710  30.969 -0.0920  0.3658  0.0855
66141W        W 9235  11.427  31.712  28.310 -0.2356 -0.2985 -0.1954
66142W        W 9236  12.754  32.230  27.644  0.6738 -0.1726 -0.0718
66143W        W 9237  14.599  31.702  29.514  0.2462 -0.2966  0.0083
66144W        W 9238  13.900  29.587  29.081  0.0111  0.0749 -0.3443
66145W        W 9239  10.697  33.549  28.243  0.0518  0.2324 -0.3068
66146W        W 9240  12.169  30.717  29.930 -0.2443  0.2348 -0.0601
66147W        W 9241  13.460  33.079  30.633 -0.1653 -0.3255 -0.0862
66148W        W 9242  11.711  32.746  28.734 -0.0982  0.0841 -0.1451
66149W        W 9243  10.955  31.777  30.243  0.0580 -0.3699 -0.0384
66150W        W 9244  11.392  32.380  29.023 -0.1761 -0.0552  0.1453
66151W        W 9245  11.500  29.645  31.123 -0.2260 -0.2115 -0.0627
66152W        W 9246  13.256  33.027  28.750 -0.0328 -0.0130 -0.1051
66153W        W 9247  13.686  27.798  28.755 -0.3015 -0.1204 -0.1796
66154W        W 9248  11.794  28.601  30.607 -0.0016 -0.5292  0.0873
66155W        W 9249  14.163  28.920  28.358 -0.3227 -0.1569 -0.0660
66156W        W 9250  10.561  32.692  28.666  0.1370  0.2294  0.2477
66157W        W 9251  13.727  33.675  26.779  0.3463  0.3665 -0.1692
66158W        W 9252  14.678  31.345  27.553 -0.0425 -0.0257 -0.0200
66159W        W 9253  13.403  32.855  25.876 -0.3031 -0.4503 -0.2299
66160W        W 9254  10.934  31.320  30.448  0.0788  0.1230  0.0435
66161W        W 9255  11.955  31.070  29.043 -0.2792 -0.0582  0.1061
66162W        W 9256  11.522  30.531  30.365 -0.0450  0.1044 -0.0945
66163W        W 9257  11.316  28.794  27.894 -0.1826 -0.1174 -0.1645
66164W        W 9258  12.720  29.753  30.797  0.4328  0.0376 -0.2247
66165W        W 9259  11.050  29.209  28.264  0.1663 -0.0140 -0.1639
66166W        W 9260  13.619  29.771  30.233 -0.0095 -0.1114  0.0869
66167W        W 9261  11.791  31.441  27.239 -0.1095  0.3048 -0.1388
66168W        W 9262  11.464  30.972  28.720  0.1286  0.0771 -0.4692
66169W        W 9263  13.118  29.634  30.101 -0.0727  0.0151 -0.1082
66170W        W 9264  11.755  32.587  28.019  0.0069 -0.2797 -0.1890
66171W        W 9265  14.115  33.504  30.013  0.1958 -0.0817  0.3418
66172W        W 9266  13.262  33.635  28.861 -0.1011  0.1972 -0.1223
66173W        W 9267  12.136  31.286  29.511  0.5307 -0.2312 -0.2365
66174W        W 9268  11.674  29.532  28.706 -0.0761  0.4632 -0.1660
66175W        W 9269  11.694  32.773  31.068  0.0534  0.0787  0.2637
66176W        W 9270  12.569  32.703  29.382  0.4727  0.2223  0.0889
66177W        W 9271  12.274  29.616  28.765  0.0020  0.2059  0.2912
66178W        W 9272  13.890  32.845  28.096  0.0153 -0.0383  0.0174
66179W        W 9273  12.640  31.321  26.984  0.3331  0.2754 -0.0534
66180W        W 9274  11.531  32.054  30.163 -0.0815 -0.1236 -0.0576
66181W        W 9275  13.135  28.641  29.730  0.0401  0.1702 -0.4080
66182W        W 9276  14.100  31.740  30.348 -0.1133 -0.2737 -0.2392
66183W        W 9277  12.910  30.817  29.163  0.0313  0.0487  0.1012
66184W        W 9278  11.468  30.602  27.676 -0.0249  0.0144  0.0844
66185W        W 9279  13.580  33.335  26.393 -0.1050  0.3206 -0.1686
66186W        W 9280   9.993  32.416  28.010  0.2779 -0.2979  0.2930
66187W        W 9281  11.272  32.185  30.611 -0.1316  0.0795  0.4013
66188W        W 9282  12.845  31.479  28.005 -0.2484 -0.0113 -0.1062
66189W        W 9283  14.164  29.801  30.052  0.0623  0.0419  0.2948
66190W        W 9284  11.097  31.076  31.760 -0.1877  0.2936  0.3199
66191W        W 9285  12.700  29.330  31.870  0.3627 -0.0879  0.3066
66192W        W 9286  11.979  30.749  27.757  0.0966 -0.3207 -0.0904
66193W        W 9287  12.263  32.361  30.543 -0.2749  0.0601 -0.0782
66194W        W 9288  13.586  29.768  27.810  0.0126  0.1364 -0.0043
66195W        W 9289  14.534  30.440  27.735 -0.0136 -0.0483  0.0956
66196W        W 9290  13.166  31.951  30.423 -0.2181 -0.1188 -0.4181
66197W        W 9291  13.548  30.831  29.652 -0.0250 -0.1755 -0.2014
66198W        W 9292  14.465  30.484  26.888 -0.2289  0.1432  0.0503
66199W        W 9293  15.106  29.686  26.724  0.3637 -0.1830  0.3969
66200W        W 9294  11.019  32.220   1.006 -0.0679 -0.0509  0.2770
66201W        W 9295  12.600  30.418  27.044  0.1146  0.0318  0.0867
66202W        W 9296  12.307  31.400  28.742  0.0471  0.2418 -0.1796
66203W        W 9297  12.352  30.652  28.179 -0.1417 -0.1547  0.4301
66204W        W 9298  13.941  32.633  27.061  0.0655  0.2562  0.0431
66205W        W 9299  11.343  31.812  29.760  0.4388  0.0997  0.0149
66206W        W 9300  13.659  32.566  30.628 -0.1224 -0.1399  0.1267
66207W        W 9301  13.683  31.539  30.163 -0.0052  0.2115 -0.1961
66208W        W 9302  11.972  29.728  29.677 -0.2177  0.0285 -0.1441
66209W        W 9303  12.581  31.662  27.445  0.0556  0.2216 -0.0224
66210W        W 9304  12.205  28.200  28.954  0.0653  0.2690 -0.0337
66211W        W 9305  10.288  33.106  28.560 -0.1898 -0.0150  0.0573
66212W        W 9306  14.435  29.808  30.486  0.1107 -0.2141  0.1657
66213W        W 9307  12.783  29.314  29.846 -0.1913  0.0818  0.2040
66214W        W 9308  11.796  28.538  31.178 -0.0147 -0.3019  0.0092
66215W        W 9309  12.724  30.669  30.724 -0.3225 -0.3021  0.2224
66216W        W 9310  13.764  30.457  28.920 -0.0328  0.2600 -0.0755
66217W        W 9311  12.244  30.238  29.598  0.0291 -0.0715 -0.1173
66218W        W 9312  12.030  31.760  28.526 -0.2334 -0.1556 -0.1455
66219W        W 9313  11.870  29.109  29.933  0.2824  0.2100 -0.4308
66220W        W 9314  12.888  30.127  29.854 -0.1517  0.0541  0.0714
66221W        W 9315  10.670  32.153  30.524 -0.4866  0.1791 -0.1106
66222W        W 9316  13.754  32.075  30.504 -0.2415 -0.1443 -0.1885
66223W        W 9317  13.269  30.123  30.183  0.0638  0.1544  0.0004
66224W        W 9318  11.799  30.359  29.868 -0.1769 -0.2532  0.0234
66225W        W 9319  13.092  29.981  28.146  0.1269  0.4571 -0.1158
66226W        W 9320  11.573  32.309  27.138 -0.1889  0.0628 -0.2469
66227W        W 9321  11.044  31.432  27.159  0.0188 -0.1315 -0.3781
66228W        W 9322  12.249  28.787  29.549 -0.0684  0.2231 -0.0031
66229W        W 9323  12.191  32.317  29.426  0.1215  0.1647 -0.0606
66230W        W 9324  11.575  32.663  25.253 -0.0494 -0.0860  0.1084
66231W        W 9325  13.899  32.203  29.095  0.1894 -0.0959  0.2545
66232W        W 9326  12.839  33.103  28.309  0.1555  0.0011  0.0927
66233W        W 9327  13.442  27.741  30.297 -0.3714 -0.0364  0.0725
66234W        W 9328  10.095  33.953  29.003 -0.2705 -0.1382 -0.1518
66235W        W 9329  11.360  31.034  27.028  0.1708  0.2166 -0.0847
66236W        W 9330  10.181  30.929  27.219 -0.0302  0.3185 -0.1359
66237W        W 9331  13.930  29.557  28.443 -0.0982  0.0411  0.1232
66238W        W 9332  13.751  30.323  29.496  0.1589  0.0308 -0.0645
66239W        W 9333  11.484  29.480  29.624  0.1541 -0.1494 -0.1538
66240W        W 9334  13.353  30.175  28.783  0.0451  0.0853 -0.2197
66241W        W 9335  11.011  31.199  29.847  0.0763 -0.3379  0.0126
66242W        W 9336  12.343  31.648  29.912 -0.3395 -0.0414 -0.1836
66243W        W 9337  15.275  30.123  26.917 -0.3444  0.1794 -0.1221
66244W        W 9338  12.744  31.876  29.549  0.2847  0.0687  0.0371
66245W        W 9339  11.959  31.860  30.422 -0.1371 -0.1238  0.0910
66246W        W 9340  11.498  30.237  28.076  0.2420  0.0854 -0.1290
66247W        W 9341  13.972  30.722  30.487 -0.0774 -0.0630  0.0141
66248W        W 9342  11.035  29.066  28.779 -0.1773 -0.0968 -0.1612
66249W        W 9343   9.751  33.364  28.276  0.0069  0.0891 -0.0617
66250W        W 9344  16.265  33.406  30.053  0.1112  0.0077  0.0738
66251W        W 9345  11.638  31.059  26.460  0.5568  0.0088  0.0445
66252W        W 9346  12.559  31.142  28.318  0.1460  0.1062 -0.2029
66253W        W 9347  11.527  31.207  29.746  0.1666 -0.1476 -0.1207
66254W        W 9348  12.965  31.053  30.432 -0.0713  0.0660 -0.2712
66255W        W 9349  12.385  31.361  27.845  0.0602 -0.0050  0.3842
66256W        W 9350  11.853  31.269  27.731  0.0355  0.3213 -0.3230
66257W        W 9351  13.612  30.717  27.982 -0.1641  0.0538 -0.1254
66258W        W 9352  13.104  30.560  29.607 -0.0586  0.1779 -0.3381
66259W        W 9353  13.294  31.208  29.997 -0.1207 -0.2070 -0.0252
66260W        W 9354  13.557  32.822  30.168  0.1358 -0.1550 -0.2154
66261W        W 9355  13.156  28.353  29.052 -0.2297 -0.0277 -0.2833
66262W        W 9356  14.294  31.387  28.388  0.1643 -0.2373  0.1674
66263W        W 9357  12.259  30.462  30.471  0.0145 -0.3122 -0.1187
66264W        W 9358  12.390  32.173  28.457 -0.4915  0.0793 -0.3992
66265W        W 9359  11.148  30.949  29.425 -0.4111 -0.3231  0.2205
66266W        W 9360  12.831  31.699  28.490 -0.2624 -0.0179 -0.1646
66267W        W 9361  12.581  30.455  30.049  0.2603 -0.0707  0.0066
66268W        W 9362  12.485  32.825  30.335  0.0951  0.2293 -0.0471
66269W        W 9363   9.972  31.784  28.676 -0.1456  0.0947 -0.1420
66270W        W 9364  10.469  32.491  30.179  0.1919 -0.0328 -0.0385
66271W        W 9365  14.307  29.358  28.645  0.0836 -0.3191  0.1453
66272W        W 9366  13.077  31.264  26.659  0.2039 -0.1476  0.1570
66273W        W 9367  12.239  30.302  28.525 -0.1882 -0.2341 -0.0322
66274W        W 9368  14.597  30.833  31.350  0.0721  0.0501  0.2395
66275W        W 9369  13.152  32.285  28.225 -0.1090 -0.1093  0.2502
66276W        W 9370  15.940  30.288   0.032  0.0465 -0.0810 -0.0136
66277W        W 9371  12.763  29.177  30.394 -0.1974 -0.1814  0.0984
66278W        W 9372  12.410  31.646  28.285 -0.0820 -0.1907 -0.1558
66279W        W 9373  11.246  30.027  30.336  0.0561  0.4781 -0.0392
66280W        W 9374  14.479  33.125  30.937 -0.1282 -0.1772 -0.0832
66281W        W 9375  11.737  31.577  30.020 -0.0971 -0.0180  0.3397
66282W        W 9376  12.609  30.687  28.734  0.1553 -0.1291 -0.2037
66283W        W 9377  11.433  30.304  26.139  0.0293  0.0685  0.3929
66284W        W 9378  12.344  30.365  29.083  0.0065 -0.2169 -0.0407
66285W        W 9379  14.487  33.358  29.195  0.0080 -0.1099  0.0170
66286W        W 9380  11.793  32.600  29.172  0.1405 -0.1782 -0.2912
66287W        W 9381  14.987  30.816  28.039 -0.1505  0.0841  0.1981
66288W        W 9382  12.618  30.611  29.557 -0.1499 -0.0951 -0.3099
66289W        W 9383  13.814  30.408  28.404  0.2981 -0.2108 -0.2756
66290W        W 9384  13.520  30.917  28.894  0.2522 -0.0108  0.0729
66291W        W 9385  14.006  30.867  28.734 -0.1781 -0.1862 -0.0855
66292W        W 9386  11.584  30.724  29.634 -0.2445 -0.1913  0.0467
66293W        W 9387  13.762  31.831  29.465  0.2560 -0.1062  0.2632
66294W        W 9388  11.521  29.915  29.349  0.2008  0.1873  0.1199
66295W        W 9389  14.024  28.649  29.592  0.2175  0.2568 -0.0764
66296W        W 9390  14.056  29.036  30.385  0.0779  0.0550  0.2103
66297W        W 9391  12.810  32.299  31.370 -0.0591  0.2580 -0.0141
66298W        W 9392  11.071  29.031  31.010 -0.1041  0.2578  0.0961
66299W        W 9393  13.608  30.920   0.346 -0.3234 -0.1568 -0.2417
66300W        W 9394  13.497  31.097  26.969 -0.0343  0.0735 -0.1848
66301W        W 9395  14.384  31.021  29.989  0.0459  0.2023  0.1317
66302W        W 9396  13.066  31.224  28.391  0.0361 -0.0887 -0.0607
66303W        W 9397  13.835  29.222  27.391  0.1484  0.2361  0.0288
66304W        W 9398  11.507  29.978  29.899 -0.0024  0.0770  0.0871
66305W        W 9399  12.751  30.918  31.199 -0.1707  0.2267  0.3089
66306W        W 9400  12.580  29.838  28.396  0.0119  0.0611 -0.0703
66307W        W 9401  13.083  29.719  31.105  0.0377  0.2908 -0.2198
66308W        W 9402  11.912  33.223  28.625  0.1621 -0.0240  0.1789
66309W        W 9403  13.384  31.321  28.042  0.0295 -0.2588  0.1382
66310W        W 9404  12.685  30.115  29.395  0.0979  0.0149 -0.0672
66311W        W 9405  11.239  30.452  29.931  0.2936  0.1787 -0.0251
66312W        W 9406  12.017  33.268  30.480  0.3247  0.0759  0.2892
66313W        W 9407  10.769  31.075  28.132  0.2175  0.1080 -0.1893
66314W        W 9408  13.007  32.629  27.530  0.1853 -0.1172 -0.0611
66315W        W 9409  14.378  33.431  30.410  0.0012 -0.0238  0.2297
66316W        W 9410  14.789  29.883  31.908 -0.0454  0.1726 -0.1528
66317W        W 9411  12.699  30.080  27.465  0.0064  0.0081  0.1082
66318W        W 9412  14.066  30.212  31.100 -0.0169  0.0364 -0.2066
66319W        W 9413  10.352  32.721  28.162  0.3530 -0.1440 -0.0784
66320W        W 9414  13.082  29.838  29.124 -0.3872  0.1185  0.1083
66321W        W 9415  11.852  32.050  29.722 -0.0120 -0.0047  0.0168
66322W        W 9416  11.893  32.434  30.216  0.1049 -0.2045 -0.0505
66323W        W 9417  11.896  31.592  29.049 -0.1308 -0.1812  0.1369
66324W        W 9418  12.638  29.069  29.434  0.1884 -0.2600  0.3183
66325W        W 9419  15.320  30.372  28.642 -0.1737 -0.0515 -0.0924
66326W        W 9420  13.657  30.450  29.988 -0.4293 -0.3142  0.1348
66327W        W 9421  15.009  30.515  31.247  0.1722  0.1034 -0.2511
66328W        W 9422  13.960  31.674  31.818  0.2577 -0.0937 -0.0970
66329W        W 9423  11.888  29.557  29.142 -0.2675  0.4547 -0.1248
66330W        W 9424  15.656  33.821  29.694 -0.0109 -0.1059 -0.2802
66331W        W 9425  14.684  31.331  28.686 -0.1957  0.0999  0.1685
66332W        W 9426  12.367  32.463  28.910  0.0426  0.0750 -0.0691
66333W        W 9427  10.742  31.457   0.114  0.2385  0.1920  0.2430
66334W        W 9428  12.136  31.241  30.019  0.1532  0.1294 -0.4123
66335W        W 9429  13.730  31.967  29.937 -0.2132 -0.1526 -0.0425
66336W        W 9430  11.718  29.780  27.925  0.0971  0.0249 -0.1542
66337W        W 9431  13.283  32.892  28.193 -0.1480  0.0576 -0.2889
66338W        W 9432  12.612  32.421  30.909 -0.0961 -0.0446  0.2278
66339W        W 9433  11.341  31.295  30.208 -0.2065  0.0173  0.2142
66340W        W 9434   9.900  32.821  28.392 -0.0596 -0.1535 -0.1779
66341W        W 9435  13.789  31.820  28.291 -0.0601  0.0824 -0.4003
66342W        W 9436  13.746  31.901  27.776  0.0621  0.0621  0.1125
66343W        W 9437  12.480  33.183  29.257  0.2914 -0.3694  0.2253
66344W        W 9438  12.794  30.268  28.470  0.3229  0.0965  0.0183
66345W        W 9439  11.242  33.436  29.431 -0.0226  0.1782 -0.2234
66346W        W 9440  10.612  31.799  27.679  0.3011 -0.0648  0.3072
66347W        W 9441  11.930  32.280  28.785 -0.0612 -0.1735  0.0727
66348W        W 9442  12.001  31.616  28.054  0.2395 -0.1068  0.0568
66349W        W 9443  13.456  31.668  31.780 -0.2745 -0.1805 -0.1804
66350W        W 9444  15.306  30.430  28.077 -0.0682  0.1915 -0.0382
66351W        W 9445  13.745  31.380  28.608 -0.1544  0.3489 -0.2846
66352W        W 9446  14.833  29.329  27.327 -0.0150 -0.0813 -0.3030
66353W        W 9447  13.634  31.317  29.642 -0.1520 -0.0560 -0.0526
66354W        W 9448  13.332  30.470  29.169 -0.0636  0.2138  0.0099
66355W        W 9449  13.302  30.434  28.334  0.1765  0.2011  0.2562
66356W        W 9450  11.457  30.945  30.633  0.0690  0.0790  0.2964
66357W        W 9451  13.085  28.872  30.674  0.0899 -0.0020  0.0940
66358W        W 9452  13.048  33.329  30.702  0.2041 -0.2071  0.3375
66359W        W 9453  12.594  33.130  27.749 -0.0917 -0.1783  0.2052
66360W        W 9454  11.536  29.642  27.416 -0.0059  0.2071 -0.3327
66361W        W 9455  12.261  29.835  29.340 -0.1386  0.2837  0.0444
66362W        W 9456  15.552  28.919  29.541  0.0883  0.1903 -0.2417
66363W        W 9457  12.640  33.023  26.057  0.0365  0.0226 -0.3342
66364W        W 9458  13.884  29.948  28.744  0.0065 -0.0690 -0.0410
66365W        W 9459  11.638  33.096  29.676 -0.3567 -0.2100  0.3611
66366W        W 9460  12.753  32.915  28.820  0.0384  0.0234 -0.2680
66367W        W 9461  11.976  32.912  30.077 -0.2539  0.0200 -0.3235
66368W        W 9462  10.606  30.614  28.134  0.3193  0.2801  0.0039
66369W        W 9463  14.809  30.858  27.603  0.0035 -0.2071  0.1406
66370W        W 9464  12.696  30.965  29.911  0.2566 -0.0418 -0.0563
66371W        W 9465  13.576  29.984  29.181  0.0462 -0.1518 -0.0361
66372W        W 9466  11.165  31.928  29.276 -0.2415 -0.4064  0.0646
66373W        W 9467  13.706  28.756  27.288 -0.1547 -0.0147  0.0566
66374W        W 9468  12.852  33.391  28.973 -0.0193  0.1863 -0.1294
66375W        W 9469  11.790  31.334  28.539  0.0552  0.1363  0.2405
66376W        W 9470  12.363  30.445  27.654 -0.0442 -0.2838 -0.2283
66377W        W 9471  13.366  32.311  30.146  0.0905 -0.0049 -0.2226
66378W        W 9472  13.366  29.996  26.654  0.1189  0.0314 -0.2791
66379W        W 9473  15.565  31.743  29.671  0.3076 -0.2201 -0.1027
66380W        W 9474  12.662  29.683  30.304  0.3759 -0.2587 -0.0528
66381W        W 9475  13.163  30.864  27.932 -0.3682  0.4095  0.3176
66382W        W 9476  12.858  32.159  28.684  0.0231 -0.1171  0.0597
66383W        W 9477  12.853  31.335  29.644  0.0296 -0.1620 -0.1876
66384W        W 9478  14.526  31.709   0.121  0.1752 -0.1894  0.5773
66385W        W 9479  11.457  30.265  28.962  0.1604 -0.1029 -0.1720
66386W        W 9480  14.292  32.569  28.216 -0.0187 -0.1756 -0.1407
66387W        W 9481  13.377  29.965  29.710 -0.1701  0.0558 -0.2508
66388W        W 9482  11.342  32.767  28.236  0.0377  0.1616 -0.0014
66389W        W 9483  14.309  31.241  29.484 -0.3231 -0.1810 -0.4243
66390W        W 9484  14.166  33.234  28.501 -0.0805 -0.0394  0.0378
66391W        W 9485  10.907  30.382  30.626  0.0394 -0.2314 -0.2778
66392W        W 9486  13.894  32.748  29.753 -0.1065  0.0025  0.1689
66393W        W 9487  13.689  31.394  29.088 -0.1418 -0.2725 -0.1899
66394W        W 9488  12.703  29.531  29.205  0.0962 -0.1967 -0.1177
66395W        W 9489  12.896  30.316  29.005  0.1081  0.3337  0.2425
66396W        W 9490  10.144  31.198  29.158 -0.1522  0.0482 -0.2637
66397W        W 9491  13.990  29.928  28.179  0.0638 -0.3142 -0.1194
66398W        W 9492  14.397  29.570  30.943  0.5189 -0.0514  0.1375
66399W        W 9493  12.469  34.295  28.363  0.0252 -0.2004 -0.2298
66400W        W 9494  14.525  29.907  28.423 -0.0540  0.0723 -0.1881
66401W        W 9495  13.015  33.079  29.330 -0.4072 -0.1992  0.0027
66402W        W 9496  11.201  31.588  31.720  0.0040  0.0355  0.3108
66403W        W 9497  11.659  31.458  25.992 -0.2414  0.0837 -0.2063
66404W        W 9498  13.236  31.746  29.907  0.0688 -0.0913  0.1245
66405W        W 9499  11.726  31.630  29.495  0.3823  0.0461  0.0778
66406W        W 9500  13.485  33.429  27.722  0.1553  0.1323  0.1454
66407W        W 9501  14.955  32.291  29.094  0.4555  0.0141 -0.4601
66408W        W 9502  14.339  30.106  27.382  0.0410  0.1109 -0.0771
66409W        W 9503  13.988  32.248  28.488 -0.0802 -0.0898  0.2554
66410W        W 9504  11.782  28.217  29.941 -0.1067  0.2243  0.0387
66411W        W 9505  15.015  28.629  27.810  0.2590 -0.2280  0.0748
66412W        W 9506  13.239  29.078  28.585  0.4486 -0.2009 -0.0459
66413W        W 9507  12.799  31.492  30.645  0.0791  0.0494  0.0626
66414W        W 9508  11.950  29.977  28.888 -0.1974 -0.1460 -0.1534
66415W        W 9509  11.775  31.572  26.526 -0.0457  0.3276  0.0288
66416W        W 9510  11.892  30.561  28.824  0.1522 -0.0675  0.1420
66417W        W 9511  12.253  30.145  31.293 -0.0409  0.1741 -0.0859
66418W        W 9512  12.266  32.123  30.006 -0.1465 -0.1396 -0.1977
66419W        W 9513  10.351  29.392  29.290 -0.3019  0.1864 -0.1504
66420W        W 9514  10.540  28.004  28.583 -0.0809 -0.2922  0.2547
66421W        W 9515  13.324  31.837  28.128 -0.1420 -0.0674  0.0452
66422W        W 9516  12.075  30.713  29.472  0.0410 -0.3703  0.0482
66423W        W 9517  11.355  29.087  29.869  0.0551  0.1072  0.1317
66424W        W 9518  13.662  33.105  28.447  0.1973  0.0453  0.2177
66425W        W 9519  13.297  31.590  28.821 -0.0484  0.0109 -0.1599
66426W        W 9520  13.462  29.564  27.363 -0.1069  0.0670 -0.2560
66427W        W 9521  14.053  31.846   0.374 -0.2879 -0.0761 -0.0827
66428W        W 9522  10.387  31.079  26.432  0.2163 -0.1792 -0.0383
66429W        W 9523  12.828  28.728  30.241 -0.0194  0.0902 -0.0939
66430W        W 9524  12.243  29.826  30.588  0.1229 -0.1218  0.3722
66431W        W 9525  10.156  28.818  28.333  0.2161  0.1809 -0.2415
66432W        W 9526  12.853  30.706  28.269 -0.0925 -0.0706 -0.0681
66433W        W 9527  13.700  32.338  28.055 -0.0239  0.2130  0.2812
66434W        W 9528  13.748  32.835  26.241 -0.1508  0.1087 -0.0376
66435W        W 9529  13.179  33.241  29.782 -0.1830  0.0206 -0.0887
66436W        W 9530  12.876  31.847   0.265  0.1205 -0.1208  0.0689
66437W        W 9531  10.785  28.305  31.438 -0.1896  0.3041  0.0430
66438W        W 9532  14.169  31.611  29.773 -0.1592 -0.2521 -0.0686
66439W        W 9533  13.226  31.717  29.378 -0.1922  0.0206  0.0152
66440W        W 9534  14.056  32.806  27.586 -0.1152 -0.1053  0.4442
66441W        W 9535  14.547  29.510  30.093 -0.4651  0.0526  0.4010
66442W        W 9536  13.879  30.873  29.243  0.1799  0.1053  0.2703
66443W        W 9537  11.653  29.789   0.264 -0.2211 -0.0351 -0.0358
66444W        W 9538  11.739  30.924  30.095 -0.1819  0.1202  0.1549
66445W        W 9539  13.115  30.643  30.154  0.2121  0.1546 -0.2764
66446W        W 9540  12.237  29.185  29.088 -0.0531 -0.0904 -0.0279
66447W        W 9541  14.140  31.190  27.556 -0.2892  0.1379 -0.2078
66448W        W 9542  11.420  32.138  27.965 -0.1133  0.3604 -0.0884
66449W        W 9543  10.950  30.448  28.915  0.0389 -0.0931 -0.2606
66450W        W 9544  13.137  31.352  27.172  0.0078  0.0880  0.0982
66451W        W 9545  12.196  29.660  31.039 -0.0878 -0.4376  0.2948
66452W        W 9546  13.433  32.110  28.665 -0.5166 -0.1854  0.2665
66453W        W 9547  11.852  31.319  30.462  0.1874  0.0596 -0.1607
66454W        W 9548  10.779  31.343  28.569  0.0519 -0.1269  0.0191
66455W        W 9549  15.039  31.111  27.037 -0.1806 -0.2935 -0.1160
66456W        W 9550  11.624  33.250  30.213 -0.1479 -0.0738 -0.1164
66457W        W 9551  11.839  30.434  31.099 -0.0620  0.2274 -0.2172
66458W        W 9552  13.269  31.465  30.496 -0.1893  0.1226 -0.3024
66459W        W 9553  14.276  31.857  28.637 -0.0322 -0.1918 -0.0341
66460W        W 9554  12.667  29.571  31.266  0.2328 -0.0757 -0.2112
66461W        W 9555  11.590  31.905  28.804 -0.1102  0.1928  0.3137
66462W        W 9556  13.131  31.621  27.671 -0.0669 -0.3364 -0.1528
66463W        W 9557  13.287  30.536  30.630  0.0596 -0.2738 -0.0054
66464W        W 9558  12.401  30.895  29.137 -0.1775 -0.1803  0.3033
66465W        W 9559  14.287  31.223  27.053  0.2555  0.1523 -0.3019
66466W        W 9560  12.794  33.561  28.525 -0.0893 -0.0470 -0.0435
66467W        W 9561  11.372  32.757  29.944  0.1671  0.3005  0.0549
66468W        W 9562  12.568  28.884   0.233  0.3588  0.0562  0.0300
66469W        W 9563  11.289  31.245  31.310 -0.0071  0.2716 -0.1034
66470W        W 9564  12.292  29.633  31.587  0.4894  0.0191  0.0512
66471W        W 9565  11.099  32.717   0.876  0.0602  0.0172  0.1125
66472W        W 9566  13.765  33.139  31.833  0.2800 -0.0798  0.1119
66473W        W 9567  12.993  32.965  30.386  0.1871 -0.2274  0.0398
66474W        W 9568  12.179  29.472  30.221 -0.0527  0.3701  0.0460
66475W        W 9569  12.022  29.810   1.069  0.1668  0.4291  0.0586
66476W        W 9570  10.971  30.277  31.266  0.2819  0.0706 -0.0363
66477W        W 9571  14.372  31.987  31.100 -0.2773 -0.0902  0.0879
66478W        W 9572  13.183  31.183  31.393 -0.1700  0.0236 -0.1957
66479W        W 9573  11.126  29.584   0.667 -0.1187  0.1254  0.3220
66480W        W 9574  12.185  31.589  30.857  0.3989  0.2674 -0.4147
66481W        W 9575  11.125  30.861   0.287 -0.1557  0.1076 -0.1103
66482W        W 9576  15.519  31.065  31.308  0.1581  0.1811 -0.0261
66483W        W 9577  12.291  31.671   0.025 -0.1098  0.1231  0.2380
66484W        W 9578  12.345  32.026  30.919  0.1192  0.1632 -0.4197
66485W        W 9579  14.416  33.060  30.017 -0.3067 -0.0156  0.1494
66486W        W 9580  10.973  29.455  30.791  0.1253 -0.1436 -0.0498
66487W        W 9581  11.176  30.169  31.744  0.2838 -0.0002 -0.1115
66488W        W 9582  11.485  28.622   0.080 -0.1575  0.2790  0.3533
66489W        W 9583  11.736  32.363  31.411  0.0700 -0.3416  0.0952
66490W        W 9584  14.237  28.501  31.110 -0.0741  0.0355 -0.0204
66491W        W 9585  13.994  29.850  31.412  0.0908  0.1909  0.3041
66492W        W 9586  11.388  29.615  30.587  0.0060 -0.2875  0.1501
66493W        W 9587  11.977  30.463  31.581  0.1236  0.0435 -0.1689
66494W        W 9588  10.527  30.221  29.533 -0.0547  0.3297  0.3857
66495W        W 9589  11.398  32.412  31.012  0.2519  0.1119 -0.2898
66496W        W 9590  10.958  30.772  31.279 -0.0535  0.1427  0.0071
66497W        W 9591  11.373  32.054  31.579 -0.0217 -0.1826 -0.3291
66498W        W 9592  12.596  33.038  29.804  0.0225 -0.0294 -0.1489
66499W        W 9593  11.613  29.010  30.999  0.0133 -0.3068 -0.1441
66500W        W 9594  13.910  31.563   0.845 -0.4052 -0.0996 -0.2177
66501W        W 9595  12.759  31.500  31.159 -0.1570  0.1455 -0.0552
66502W        W 9596   9.346  29.637   0.019 -0.1048 -0.2201 -0.1895
66503W        W 9597  12.586  31.926  30.397 -0.2670  0.1525  0.1297
66504W        W 9598  13.577  32.040  31.361 -0.0020 -0.0817  0.2182
66505W        W 9599  13.897  31.019  30.099  0.4067 -0.2488  0.1418
66506W        W 9600  11.941  30.925  30.734  0.1214 -0.0962  0.1019
66507W        W 9601  12.001  32.262   1.256  0.2933 -0.1139  0.3409
66508W        W 9602  15.003  31.062  31.263 -0.0658  0.0389 -0.2303
66509W        W 9603  12.300  29.521   0.134 -0.1295  0.0960 -0.2087
66510W        W 9604  13.542  29.653   0.240  0.2795 -0.4432  0.1383
66511W        W 9605  12.098  34.411  31.319 -0.0504  0.5005 -0.0110
66512W        W 9606  11.465  29.755  31.687 -0.1392  0.3523  0.1139
66513W        W 9607  12.974  31.939  30.914  0.1274  0.0546 -0.2364
66514W        W 9608  13.772  27.676  30.692  0.0831  0.2578  0.5307
66515W        W 9609  12.478  31.167  30.858  0.0737 -0.1491 -0.3329
66516W        W 9610  13.552  32.619   0.213  0.1691  0.0637  0.0081
66517W        W 9611  11.138  32.298   0.044 -0.0068  0.1590 -0.3047
66518W        W 9612  13.195  32.544  30.585  0.3055  0.0019 -0.0093
66519W        W 9613  13.666  29.332  30.520 -0.0724  0.6272 -0.1513
66520W        W 9614  12.874  30.211  30.428 -0.1007  0.0860  0.1605
66521W        W 9615  12.792  32.448  30.372  0.1237 -0.0267  0.0308
66522W        W 9616  11.715  29.989  30.817 -0.1442  0.0993 -0.2250
66523W        W 9617  13.488  30.274  31.108  0.1282 -0.0941 -0.0282
66524W        W 9618  11.368  30.564  30.963  0.3109  0.1874  0.0076
66525W        W 9619  12.770  31.643  31.822 -0.0155  0.0979  0.0208
66526W        W 9620  14.396  32.564  31.550  0.4125 -0.3540 -0.2992
66527W        W 9621  11.611  31.192  31.711  0.1723 -0.0757 -0.2181
66528W        W 9622  11.691  31.643  31.882  0.1202 -0.0299 -0.3424
66529W        W 9623  11.737  31.351  31.131 -0.2428  0.1703 -0.3494
66530W        W 9624  10.002  31.157  31.264  0.1472 -0.2454 -0.2251
66531W        W 9625  11.118  28.953   0.237  0.2133 -0.1317 -0.2220
66532W        W 9626  14.121  32.202  29.641  0.0568  0.0359  0.1316
66533W        W 9627  13.653  31.136  30.514  0.0096 -0.1491 -0.0479
66534W        W 9628  13.935  29.713  30.808  0.1600 -0.1092 -0.0925
66535W        W 9629  11.601  33.473  17.229  0.1016 -0.1480  0.1593
66536W        W 9630  13.171  33.957  15.775  0.1293  0.1935  0.2739
66537W        W 9631  13.190  34.130  16.689 -0.0201 -0.0488 -0.2453
66538W        W 9632  11.160  33.778  17.430 -0.2898 -0.0598  0.0243
66539W        W 9633  12.059  31.809  18.135 -0.0857 -0.0365 -0.0270
66540W        W 9634  12.719  34.178  15.828  0.0374  0.1607  0.1427
66541W        W 9635  14.139  32.644  19.664 -0.1414  0.2929  0.1874
66542W        W 9636  11.850  33.464  15.223  0.0324 -0.2757 -0.3120
66543W        W 9637  12.239  32.674  18.501 -0.3904  0.1163 -0.2453
66544W        W 9638  13.717  32.924  19.014 -0.1575  0.0429 -0.0328
66545W        W 9639  10.231  34.063  16.741 -0.1409 -0.0962 -0.0915
66546W        W 9640  11.286  34.098  19.416 -0.3652 -0.0537  0.2729
66547W        W 9641  11.944   0.039  15.520 -0.2074 -0.2218 -0.1031
66548W        W 9642  11.835  32.716  19.295  0.1837 -0.1348 -0.2446
66549W        W 9643  11.757  33.561  19.922  0.0880 -0.1728 -0.1395
66550W        W 9644  11.440  33.245  14.979  0.0618 -0.0809 -0.0235
66551W        W 9645  12.039  33.799  17.373 -0.2597 -0.4820  0.2021
66552W        W 9646  11.494  33.203  18.115 -0.1352  0.2934  0.1063
66553W        W 9647  12.866  33.289  18.063  0.0987 -0.1271 -0.1776
66554W        W 9648  13.520   0.079  17.454  0.1336 -0.2997 -0.1788
66555W        W 9649  12.553  33.941  19.356 -0.0183  0.1937  0.0199
66556W        W 9650  13.107   0.180  19.032 -0.2696 -0.2302  0.1637
66557W        W 9651  11.776  33.752  16.851  0.1914  0.4402 -0.1622
66558W        W 9652  13.667  34.097  20.254  0.3236  0.1193  0.0059
66559W        W 9653  13.466   0.222  16.084  0.2271 -0.0498 -0.0301
66560W        W 9654  12.185  33.872  15.199 -0.0440  0.0987 -0.4364
66561W        W 9655  12.273   1.397  17.655  0.1152  0.1751 -0.1091
66562W        W 9656  13.996  32.829  18.031 -0.0150  0.0167  0.1786
66563W        W 9657  13.077  33.675  18.282  0.0314  0.2398 -0.1907
66564W        W 9658  12.748  33.827  16.617 -0.0999 -0.0681  0.0323
66565W        W 9659  13.235  33.912  17.843 -0.2741  0.0818 -0.0822
66566W        W 9660  11.477  34.272  16.762  0.3350 -0.1745  0.2772
66567W        W 9661  11.043  33.446  16.034 -0.3834 -0.0477  0.0822
66568W        W 9662   9.103  34.468  20.222  0.2231 -0.0614 -0.1141
66569W        W 9663  10.576  34.608  18.836 -0.0819 -0.0821  0.1770
66570W        W 9664  12.653  33.047  15.766  0.4622 -0.3951 -0.0188
66571W        W 9665  14.860  33.673  18.189 -0.0946  0.0475 -0.0581
66572W        W 9666  14.289  33.447  17.153  0.1047 -0.1471  0.3138
66573W        W 9667  13.335  33.397  18.704  0.0016  0.3305 -0.1782
66574W        W 9668  12.287  33.948  15.673  0.0061  0.1685 -0.2480
66575W        W 9669  12.894  34.176  18.133  0.4562  0.2724  0.1629
66576W        W 9670   9.699  32.649  16.945 -0.2067  0.1869  0.2771
66577W        W 9671  14.232  33.562  17.702  0.1063 -0.0148  0.1851
66578W        W 9672  10.756  33.775  19.992  0.3455  0.0486  0.1123
66579W        W 9673  13.252  32.309  19.793  0.2046 -0.0585 -0.2148
66580W        W 9674  13.048  34.616  15.842 -0.2249 -0.0817  0.1303
66581W        W 9675  10.549   0.247  17.947 -0.0128 -0.1225  0.2240
66582W        W 9676  10.794  34.012  16.643  0.1161 -0.0048 -0.2745
66583W        W 9677  10.881  32.498  20.391  0.0523  0.5337 -0.0070
66584W        W 9678  11.349  33.343  17.673  0.0406 -0.0384 -0.0730
66585W        W 9679  13.525   0.148  18.752  0.1122 -0.2665  0.3141
66586W        W 9680  11.672  31.825  16.860  0.1266  0.0406 -0.3971
66587W        W 9681  12.428  34.541  17.692 -0.0540  0.2306 -0.1673
66588W        W 9682  11.522  34.495  15.542  0.1954  0.1371 -0.2862
66589W        W 9683  14.155  33.114  19.202 -0.0266 -0.0171 -0.2820
66590W        W 9684  10.780  33.806  18.915  0.0715  0.1329 -0.1838
66591W        W 9685  10.884  34.179  15.964  0.0402  0.0067 -0.0370
66592W        W 9686  11.926  33.568  15.697 -0.3697 -0.3445  0.1414
66593W        W 9687  13.975  32.700  18.628  0.0863  0.1914  0.2205
66594W        W 9688  12.528   0.890  16.217  0.1561  0.1962 -0.1699
66595W        W 9689  11.233  32.951  15.399 -0.4439  0.0828  0.1822
66596W        W 9690  11.190   0.634  15.155  0.0673 -0.1750  0.0129
66597W        W 9691  14.752  34.208  16.832  0.0938  0.1142  0.1033
66598W        W 9692  11.263  34.572  19.235  0.2261 -0.1211  0.0309
66599W        W 9693  12.160  34.184  19.187  0.2306 -0.0402  0.0556
66600W        W 9694  10.901  33.284  15.406 -0.0023  0.2005 -0.0998
66601W        W 9695  11.990  33.125  18.229 -0.4244  0.4603 -0.2323
66602W        W 9696  13.891  33.298  18.062  0.0326  0.1141  0.3746
66603W        W 9697  13.756  33.659  15.703  0.0262 -0.3283  0.0750
66604W        W 9698  12.224  32.719  16.979  0.2364 -0.1176 -0.1468
66605W        W 9699  13.779  32.742  17.252  0.3027  0.1273 -0.0373
66606W        W 9700  12.979  33.360  17.358  0.1793  0.0312  0.2937
66607W        W 9701  13.173  33.588  16.782 -0.3583  0.1440 -0.0170
66608W        W 9702  12.287  33.057  17.728 -0.1718  0.0577  0.2396
66609W        W 9703  13.352  33.412  17.719 -0.1860  0.0930  0.0730
66610W        W 9704  13.209   0.533  18.622  0.2521 -0.2084 -0.1484
66611W        W 9705  12.412  32.532  18.976 -0.0440  0.0801 -0.2084
66612W        W 9706  12.804   0.392  19.379 -0.1714  0.1411 -0.0197
66613W        W 9707  13.569  34.555  17.037 -0.0177  0.1690 -0.0726
66614W        W 9708  12.968  34.547  18.634  0.0369 -0.0685 -0.2287
66615W        W 9709  12.071  33.762  16.164  0.0093  0.0213 -0.0749
66616W        W 9710  12.104  34.240  20.620 -0.1081 -0.0362 -0.2231
66617W        W 9711  11.755  33.830  20.306  0.0019  0.0662 -0.0025
66618W        W 9712  11.376  33.495  16.441  0.1105 -0.0277 -0.1556
66619W        W 9713  12.826  33.309  18.555 -0.1395  0.1090 -0.3561
66620W        W 9714  14.051  32.158  18.941  0.1559  0.1562 -0.2261
66621W        W 9715  11.593   0.158  15.894 -0.1756  0.0597  0.1397
66622W        W 9716  10.351   0.991  15.441  0.1982  0.0832 -0.1571
66623W        W 9717  15.241  33.257  17.920 -0.0745 -0.0525  0.0959
66624W        W 9718  10.248  33.835  19.670  0.1178 -0.0050  0.3048
66625W        W 9719  13.168  31.702  18.472 -0.1322  0.0235  0.3255
66626W        W 9720  13.417  33.328  19.202 -0.0439  0.0786 -0.0679
66627W        W 9721  12.838  33.341  16.440 -0.1718  0.2547  0.1561
66628W        W 9722  11.954  33.513  17.789 -0.0853  0.0542 -0.4850
66629W        W 9723  10.736  32.622  14.609  0.0440 -0.2874  0.0946
66630W        W 9724  14.158  33.256  18.537 -0.0842  0.2099 -0.1468
66631W        W 9725  12.431  33.748  17.049 -0.0966  0.4541 -0.1025
66632W        W 9726  11.380   0.200  16.313 -0.2099  0.1439  0.0224
66633W        W 9727  11.827  33.759  18.681  0.2479  0.2582 -0.2017
66634W        W 9728  14.168  33.708  18.177  0.1496  0.2236 -0.2626
66635W        W 9729  10.761  32.978  15.756  0.0168 -0.1153 -0.1362
66636W        W 9730  13.366  33.416  15.999  0.1849 -0.1495 -0.0018
66637W        W 9731  14.262  34.143  16.934 -0.1880  0.0760  0.0149
66638W        W 9732  13.316  32.755  18.724 -0.0393 -0.1875  0.1464
66639W        W 9733  13.355   0.468  19.349  0.4063  0.1117 -0.2595
66640W        W 9734  11.930  34.161  18.414 -0.0110 -0.0217 -0.0725
66641W        W 9735  13.517  32.640  15.632 -0.0206  0.0051  0.2177
66642W        W 9736  12.459  34.263  17.307  0.0876  0.1867  0.2858
66643W        W 9737  13.636  33.080  18.535  0.0696 -0.0834  0.0494
66644W        W 9738  12.958   0.698  15.998  0.3809 -0.2353 -0.3961
66645W        W 9739  12.782  33.527  19.027 -0.0452 -0.1352  0.2240
66646W        W 9740  11.809  34.660  18.569 -0.3208  0.2796 -0.0313
66647W        W 9741  10.914  32.894  18.931  0.1544  0.1594 -0.1920
66648W        W 9742  10.132   1.360  18.993 -0.0562 -0.2201  0.1508
66649W        W 9743  12.724   0.320  18.490  0.1350  0.0245  0.0120
66650W        W 9744  12.511  32.513  15.691  0.0063 -0.3818  0.0089
66651W        W 9745  11.986  34.303  17.637  0.1573  0.2469 -0.0817
66652W        W 9746  15.149   0.191  17.356 -0.1410 -0.0425 -0.0696
66653W        W 9747  10.749   0.764  19.187 -0.1836  0.0485  0.4584
66654W        W 9748  12.709  34.273  16.848  0.0719  0.1226 -0.0440
66655W        W 9749  12.290  32.928  19.580  0.0250  0.0623  0.0627
66656W        W 9750  12.208  34.515  18.189  0.1116  0.0230 -0.1739
66657W        W 9751  13.027  34.067  18.628  0.1747  0.0242 -0.3896
66658W        W 9752  13.242  34.287  17.302  0.1379  0.1756  0.1705
66659W        W 9753  11.972   0.113  17.809 -0.1133 -0.0324 -0.0924
66660W        W 9754  11.016  32.828  19.904 -0.1599  0.1989  0.3026
66661W        W 9755  13.165  33.746  16.250  0.0549  0.0060 -0.0054
66662W        W 9756  13.402  34.255  18.280 -0.1442  0.0493  0.0480
66663W        W 9757  14.265   0.690  16.498  0.1599  0.1201 -0.3216
66664W        W 9758  12.625  33.794  16.150  0.0924  0.0776 -0.1938
66665W        W 9759  11.667  34.484  18.049  0.0235 -0.2662  0.1412
66666W        W 9760  13.137  33.659  19.494  0.1232 -0.1582  0.1052
66667W        W 9761  12.391  33.354  16.076  0.0505  0.3640  0.2081
66668W        W 9762  12.279   0.062  19.909  0.3101 -0.0763 -0.0974
66669W        W 9763  11.364   0.005  17.099  0.3161 -0.0089 -0.1563
66670W        W 9764  11.625  34.063  17.237 -0.1406  0.1500 -0.0317
66671W        W 9765  11.390  33.023  16.375 -0.3379 -0.1606 -0.0428
66672W        W 9766  12.245   0.161  16.874 -0.0098 -0.0240  0.2254
66673W        W 9767  14.287  32.408  15.680  0.1706  0.1290 -0.1610
66674W        W 9768  14.245  34.082  20.067  0.2598  0.0342 -0.2253
66675W        W 9769  13.362  34.605  16.529  0.1997  0.1137  0.2078
66676W        W 9770  12.289   0.147  18.579 -0.0253  0.3489  0.1920
66677W        W 9771  14.189  34.684  17.670  0.0794 -0.1089 -0.1317
66678W        W 9772  12.802   0.030  17.416 -0.2048  0.2824 -0.6140
66679W        W 9773  14.617  33.764  19.848 -0.3140 -0.3874  0.2277
66680W        W 9774  11.353  34.379  17.508  0.1099  0.1763  0.1704
66681W        W 9775  11.737  33.961  19.120 -0.1019  0.0404  0.0480
66682W        W 9776  12.001  32.409  16.045 -0.1125 -0.1246  0.3333
66683W        W 9777  12.284  33.950  16.622 -0.1943  0.0761  0.0678
66684W        W 9778  14.725  34.481  16.409 -0.0476  0.3074  0.1281
66685W        W 9779  13.691   0.432  17.109 -0.2528  0.0251  0.1739
66686W        W 9780  13.011  32.891  17.697 -0.2421 -0.1586  0.2849
66687W        W 9781  12.546  32.922  18.124 -0.3367  0.0616 -0.1169
66688W        W 9782  12.545  32.950  16.600  0.1851  0.0800  0.3388
66689W        W 9783  10.499   0.404  18.890 -0.1422 -0.0403  0.2680
66690W        W 9784  14.117  33.909  19.587  0.1513 -0.3325  0.3355
66691W        W 9785  11.464  32.107  15.426 -0.1242  0.2377 -0.1742
66692W        W 9786  11.205  32.070  16.850 -0.3959 -0.0598  0.4381
66693W        W 9787  14.780  33.253  18.613  0.1339 -0.0448 -0.2690
66694W        W 9788  12.507  33.530  17.475 -0.1708  0.1944 -0.1152
66695W        W 9789  10.399  33.272  16.196 -0.3171  0.2491 -0.1688
66696W        W 9790  15.194  33.646  15.931 -0.1372  0.0977 -0.2447
66697W        W 9791  11.097  32.854  18.350  0.0028  0.0098  0.0757
66698W        W 9792  14.042  34.211  19.105 -0.2793  0.0839 -0.0744
66699W        W 9793  11.411  33.514  15.445 -0.1980 -0.1548  0.0662
66700W        W 9794  13.834  33.533  16.224 -0.0092  0.1602  0.3151
66701W        W 9795  11.656   0.440  18.113  0.3656  0.0636  0.0002
66702W        W 9796  13.064  33.039  16.073 -0.3712 -0.2519 -0.0629
66703W        W 9797  14.916  34.157  19.590  0.1921  0.1261 -0.1491
66704W        W 9798  12.909  33.531  15.817  0.0962 -0.0882 -0.0887
66705W        W 9799  11.047  34.281  17.019 -0.3098  0.5869  0.2744
66706W        W 9800  14.433  34.575  17.107  0.0735 -0.1970 -0.1631
66707W        W 9801  11.155   1.195  18.005 -0.2145 -0.0405 -0.1414
66708W        W 9802  12.400  34.591  20.415 -0.0420 -0.1835  0.4785
66709W        W 9803  11.165  32.917  17.854  0.0462 -0.0344  0.0487
66710W        W 9804  13.381  33.700  17.264  0.0669  0.0538  0.0964
66711W        W 9805  14.541  34.062  18.333  0.2600 -0.0491  0.1171
66712W        W 9806  10.615  32.921  18.413  0.0897  0.1792  0.0706
66713W        W 9807  11.829  33.231  16.736 -0.2383  0.0958  0.0133
66714W        W 9808  11.260  33.200  16.827 -0.1138 -0.1303  0.1724
66715W        W 9809  14.882  33.936  18.930  0.0160  0.0530 -0.0780
66716W        W 9810  14.464  32.900  18.887  0.0714  0.0880 -0.0365
66717W        W 9811  13.152  32.161  19.298  0.0901 -0.1831 -0.0961
66718W        W 9812  12.782   0.367  16.929 -0.0557 -0.2590 -0.1454
66719W        W 9813  12.002  31.335  17.941 -0.0562 -0.2208  0.1818
66720W        W 9814  13.607  33.843  16.618 -0.4175 -0.0513  0.0644
66721W        W 9815  13.195  32.819  16.508 -0.1313 -0.0261  0.1141
66722W        W 9816  12.657  34.638  18.114  0.0534 -0.0843  0.0993
66723W        W 9817  10.775  34.656  16.125 -0.3499  0.1730 -0.0552
66724W        W 9818  13.554  32.387  18.943  0.0931 -0.1257 -0.0269
66725W        W 9819  11.281  32.519  18.616  0.2578  0.2335  0.1947
66726W        W 9820  10.469  34.513  16.770 -0.0914  0.3595 -0.1059
66727W        W 9821  11.697  32.972  17.168 -0.4691 -0.1097 -0.5040
66728W        W 9822  12.547  33.856  18.424 -0.1166  0.1743  0.2270
66729W        W 9823  10.659  33.042  16.803 -0.3350 -0.3177  0.0135
66730W        W 9824  13.544  32.665  18.282  0.4432  0.0033  0.1915
66731W        W 9825  12.013   0.250  18.927 -0.2053  0.0225  0.0221
66732W        W 9826  11.981   0.405  19.750 -0.0353  0.0683 -0.2101
66733W        W 9827  11.044  32.406  15.508 -0.3508  0.0145 -0.0508
66734W        W 9828  13.653  34.264  17.587 -0.1651 -0.1345 -0.2293
66735W        W 9829  11.653  32.712  18.266 -0.4537 -0.0942 -0.1178
66736W        W 9830  13.639  32.797  16.734  0.1087 -0.0417 -0.1151
66737W        W 9831  11.891  34.243  16.458 -0.1875  0.0925 -0.0569
66738W        W 9832  10.781  32.770  19.465  0.1194  0.2247 -0.5268
66739W        W 9833  12.132  33.204  17.141 -0.4048 -0.1281 -0.1244
66740W        W 9834  13.230  34.475  17.850 -0.1610 -0.0386 -0.1544
66741W        W 9835  10.084   0.305  17.493  0.0651 -0.1167 -0.1170
66742W        W 9836  12.910  33.803  17.118 -0.2855 -0.3697 -0.0414
66743W        W 9837  12.382  34.312  18.693  0.0645  0.3770  0.1926
66744W        W 9838  12.315  33.330  18.616 -0.0931  0.1077  0.0900
66745W        W 9839  13.328  32.500  17.071 -0.2800  0.0029  0.3972
66746W        W 9840  12.175  32.183  17.659 -0.3310 -0.2031  0.3295
66747W        W 9841  10.712  34.154  15.366 -0.0338  0.0274 -0.0559
66748W        W 9842  13.126  33.099  16.902  0.1285  0.2224  0.0676
66749W        W 9843  13.510  34.355  16.049  0.1358  0.2236  0.2821
66750W        W 9844  11.767  32.236  19.116  0.2130  0.1435  0.6084
66751W        W 9845  13.988  34.435  17.310  0.5264  0.1430  0.2919
66752W        W 9846  12.311   0.392  21.264  0.1553  0.2005 -0.0413
66753W        W 9847  13.044  34.312  19.086 -0.0097 -0.1225 -0.2141
66754W        W 9848  14.157  34.601  20.941 -0.0049 -0.0927  0.2200
66755W        W 9849   9.883  33.782  22.286 -0.3441 -0.0049 -0.2565
66756W        W 9850  11.735  33.158  23.403 -0.0256 -0.2199 -0.1028
66757W        W 9851  12.864   1.440  18.494  0.1313  0.1808 -0.0663
66758W        W 9852  12.860  33.907  22.106  0.0758 -0.0557 -0.0811
66759W        W 9853  12.654  32.077  19.223  0.1539 -0.2021 -0.2052
66760W        W 9854  10.408  33.472  23.332 -0.1070 -0.0071  0.2037
66761W        W 9855  13.098  34.146  23.128 -0.0732  0.2473 -0.1344
66762W        W 9856  11.463  34.178  18.655  0.2058 -0.0096 -0.0070
66763W        W 9857  10.859  33.582  23.777 -0.1633 -0.2339 -0.2954
66764W        W 9858  12.872   0.058  20.636  0.1799 -0.0748 -0.3459
66765W        W 9859  11.911  33.470  21.828 -0.1510  0.1640 -0.0487
66766W        W 9860  11.425  32.607  22.795  0.0194  0.1980 -0.0991
66767W        W 9861   9.899  32.758  19.027  0.2238  0.2139  0.0886
66768W        W 9862  11.305  33.742  23.597 -0.1745  0.0278  0.2691
66769W        W 9863  12.373  33.005  22.943  0.0642  0.2084  0.1198
66770W        W 9864  14.012  32.041  20.695  0.1317 -0.0960  0.0359
66771W        W 9865  12.566   0.967  21.082 -0.0036 -0.0378 -0.0437
66772W        W 9866  13.689  34.255  22.590  0.4106  0.1889 -0.0417
66773W        W 9867  11.211  34.543  22.984 -0.0692  0.0284  0.1520
66774W        W 9868  13.224   0.205  20.294  0.0206  0.0953 -0.0161
66775W        W 9869  14.183  32.767  22.747 -0.2875 -0.2571 -0.0461
66776W        W 9870  12.936  33.437  20.869 -0.1641 -0.2752 -0.1068
66777W        W 9871  12.849  34.238  17.618 -0.0877  0.1377  0.0885
66778W        W 9872  13.298   0.325  21.312  0.2262 -0.0204  0.1378
66779W        W 9873  12.554  33.167  21.231  0.1278 -0.3451 -0.1313
66780W        W 9874  12.709  33.503  21.885 -0.1574  0.1553  0.0551
66781W        W 9875  12.385  33.795  19.885  0.0271 -0.0173  0.0097
66782W        W 9876  12.743  34.417  23.603  0.1708 -0.2008  0.2198
66783W        W 9877  10.611   0.067  20.741  0.2486  0.0332 -0.3037
66784W        W 9878  10.473  33.478  20.453 -0.0571 -0.1536 -0.1720
66785W        W 9879  10.815   0.895  22.372 -0.1602 -0.1047 -0.0401
66786W        W 9880   9.870  34.692  22.987 -0.0535  0.0622  0.0752
66787W        W 9881  11.856  31.968  18.659  0.0835  0.2455 -0.1682
66788W        W 9882  15.707  33.328  21.465  0.1041  0.0494 -0.1927
66789W        W 9883  13.231  32.796  20.727 -0.0374 -0.0523 -0.2464
66790W        W 9884  13.227  32.713  21.977 -0.2634 -0.0570  0.1354
66791W        W 9885  12.845   0.464  20.956  0.2097 -0.0641  0.2043
66792W        W 9886  11.323  33.095  22.725  0.2837 -0.1474 -0.2202
66793W        W 9887  10.808  33.537  22.665  0.2229  0.0545  0.1411
66794W        W 9888  12.575  32.998  20.746  0.1183 -0.0287  0.2182
66795W        W 9889  12.459  33.643  22.957 -0.2021  0.0039  0.3990
66796W        W 9890  13.457  34.155  21.380  0.2165  0.0627  0.0442
66797W        W 9891  13.638  33.564  20.253  0.0124  0.0717  0.0246
66798W        W 9892  11.220  33.930  22.031  0.0858 -0.0921 -0.0471
66799W        W 9893  11.475  34.215  21.688  0.2012  0.3311 -0.0171
66800W        W 9894  12.441  33.673  23.490  0.1579  0.1912 -0.1070
66801W        W 9895  11.376  33.436  21.791  0.0191  0.0089  0.0865
66802W        W 9896  15.155  33.815  23.443 -0.1843  0.1469 -0.0488
66803W        W 9897  12.165  31.450  19.832  0.0687  0.0297  0.0910
66804W        W 9898  13.857   0.281  20.807 -0.1044 -0.1642  0.4049
66805W        W 9899  11.826   0.407  21.668  0.0202 -0.0404  0.2592
66806W        W 9900  14.745  33.634  22.979 -0.0625  0.0693  0.1921
66807W        W 9901  11.728  34.528  22.659 -0.5985  0.1159 -0.0801
66808W        W 9902  11.704  32.319  19.649 -0.0232 -0.0907 -0.3512
66809W        W 9903  13.168  34.271  20.876 -0.2577  0.1772 -0.2995
66810W        W 9904  13.427  32.454  22.469 -0.3430 -0.1882 -0.0111
66811W        W 9905  13.359   0.393  20.721 -0.1168 -0.1740  0.0519
66812W        W 9906  11.855  32.779  19.836  0.2132  0.2274 -0.1598
66813W        W 9907  11.027   0.567  20.783  0.0698  0.0910  0.2282
66814W        W 9908  14.287  31.918  21.624 -0.2038  0.0979  0.0056
66815W        W 9909  10.327   0.569  24.504 -0.2383 -0.1219 -0.2944
66816W        W 9910  12.615  34.109  23.131  0.0399 -0.0514  0.1219
66817W        W 9911  12.146  34.667  21.536 -0.1279 -0.2215  0.0142
66818W        W 9912  12.819  34.487  20.102 -0.4527  0.3423 -0.1706
66819W        W 9913  13.200  33.962  20.098 -0.0306  0.1904 -0.1207
66820W        W 9914  12.537  34.096  20.252  0.0584  0.0292  0.0685
66821W        W 9915  11.232  33.660  21.104 -0.0715  0.0822 -0.0702
66822W        W 9916  12.220  33.200  20.014 -0.2051  0.2924  0.3159
66823W        W 9917  12.204  34.292  22.775 -0.0557 -0.0694  0.1412
66824W        W 9918  12.222   0.120  19.354  0.1999 -0.3003 -0.0644
66825W        W 9919  12.711  32.203  19.741  0.0211  0.2725 -0.0622
66826W        W 9920  13.996  33.252  21.447 -0.2828  0.0272 -0.0095
66827W        W 9921  12.292  32.630  21.479 -0.1923 -0.1623 -0.1651
66828W        W 9922  12.599  32.911  22.505 -0.1130 -0.0785 -0.5987
66829W        W 9923  15.343  34.524  23.320 -0.2567  0.2223  0.2835
66830W        W 9924  13.963   0.993  19.729  0.0310  0.3169 -0.0875
66831W        W 9925  14.126   0.909  21.129 -0.0646 -0.0368 -0.0846
66832W        W 9926  11.754  34.485  19.053  0.1673 -0.0296  0.1034
66833W        W 9927  12.973  34.246  21.414  0.0626 -0.1166 -0.0258
66834W        W 9928  12.150  33.361  22.629  0.1656  0.0451  0.1754
66835W        W 9929  11.319  34.645  20.206  0.3228  0.1277 -0.0903
66836W        W 9930  11.220  33.699  22.854 -0.0438 -0.2344  0.1742
66837W        W 9931  14.285  33.750  21.753  0.1585  0.0872  0.3026
66838W        W 9932  13.274   0.680  18.116  0.0459  0.0505 -0.0254
66839W        W 9933  11.690  34.581  20.844 -0.2791  0.0321 -0.0920
66840W        W 9934  13.270  33.799  21.661 -0.1507  0.1339 -0.1172
66841W        W 9935  13.136   0.159  22.143 -0.2931  0.1645 -0.2887
66842W        W 9936  10.433  33.360  22.378 -0.0133 -0.1010 -0.1157
66843W        W 9937  11.603   0.785  21.989  0.1573  0.0394 -0.3739
66844W        W 9938  13.848  32.773  20.392 -0.1163  0.2287 -0.0271
66845W        W 9939  10.689   0.092  22.999  0.0482  0.0391  0.3317
66846W        W 9940  10.445  33.332  19.970 -0.2099 -0.0414  0.0979
66847W        W 9941  12.382   0.324  21.794 -0.1716 -0.0929  0.2247
66848W        W 9942  12.256  33.725  20.461  0.0532  0.2985 -0.2465
66849W        W 9943  10.939   0.292  18.850  0.0018  0.0204  0.0222
66850W        W 9944  11.820  33.616  23.572 -0.1444 -0.1576 -0.1041
66851W        W 9945  12.964  34.676  21.140 -0.1662  0.0727 -0.2701
66852W        W 9946  11.429  33.340  20.438  0.2274  0.1017 -0.0732
66853W        W 9947  11.800  34.294  21.262 -0.3141  0.0572  0.1463
66854W        W 9948  12.874   0.388  21.616 -0.1533  0.0987  0.0546
66855W        W 9949  12.658  33.536  22.509 -0.3102  0.2042  0.1151
66856W        W 9950  12.164   0.258  23.464 -0.1609  0.0862  0.0668
66857W        W 9951  13.503  33.381  21.925  0.5650 -0.0905 -0.0935
66858W        W 9952  11.973  33.055  21.566 -0.1883 -0.0767  0.1679
66859W        W 9953  12.696  34.623  21.668  0.0169 -0.0328 -0.1699
66860W        W 9954  13.166  33.570  22.490 -0.0544  0.1934 -0.2144
66861W        W 9955  12.397   0.280  20.762 -0.3422 -0.0998 -0.0910
66862W        W 9956  12.641  32.556  22.928 -0.1486 -0.1377 -0.2063
66863W        W 9957  11.817  34.352  23.143 -0.2109  0.1719  0.1287
66864W        W 9958  11.257  34.043  22.504  0.3724 -0.3065  0.0924
66865W        W 9959  10.276   0.187  23.237 -0.0905 -0.1457 -0.1729
66866W        W 9960  11.857   0.795  20.665 -0.1711 -0.2224 -0.2236
66867W        W 9961  12.687  32.179  20.707  0.1633 -0.1758 -0.0834
66868W        W 9962  10.835  34.310  22.771  0.1337  0.2125  0.1915
66869W        W 9963  12.798   0.488  20.343  0.4070 -0.0942 -0.2058
66870W        W 9964  12.601  33.882  20.862  0.0467  0.2317 -0.1668
66871W        W 9965  13.346   1.924  20.611 -0.1423  0.0482  0.0650
66872W        W 9966  10.976  32.674  22.572 -0.0315 -0.1549  0.0235
66873W        W 9967  13.108  33.041  21.119 -0.1389 -0.5451  0.0239
66874W        W 9968  13.796  33.708  21.598 -0.3149  0.1965  0.0227
66875W        W 9969  14.926   0.149  22.515 -0.2235 -0.0795 -0.1096
66876W        W 9970  11.809  33.002  22.952  0.1955  0.0329 -0.0770
66877W        W 9971  11.712  33.491  22.809  0.0726  0.3516 -0.2387
66878W        W 9972  15.549   1.115  21.499  0.0459  0.2909  0.1230
66879W        W 9973  13.579  33.351  22.724  0.0051 -0.4622 -0.2731
66880W        W 9974  13.105   0.437  19.792  0.1212 -0.0751  0.0154
66881W        W 9975  14.959   0.009  20.097  0.1083 -0.0589 -0.0850
66882W        W 9976  12.319  34.458  21.981 -0.2836 -0.0737 -0.1216
66883W        W 9977  13.676  34.228  23.206 -0.2149  0.0753 -0.1229
66884W        W 9978   9.745  32.859  19.557  0.0720  0.0946 -0.1607
66885W        W 9979  13.386  33.667  23.295 -0.1754 -0.1420  0.0435
66886W        W 9980  13.415  34.395  19.914  0.0214 -0.0855 -0.1407
66887W        W 9981  10.014  33.331  21.984 -0.2984 -0.0477 -0.1894
66888W        W 9982  11.200  34.192  20.434 -0.2720  0.1934  0.1742
66889W        W 9983  11.960   0.139  20.418 -0.1199  0.0938 -0.0076
66890W        W 9984  11.282  32.517  19.325 -0.1803  0.3857  0.1095
66891W        W 9985  13.298  34.320  22.163 -0.1481  0.1234 -0.1153
66892W        W 9986  12.552  33.021  19.143 -0.1563  0.3784 -0.2705
66893W        W 9987  12.314  33.400  22.163 -0.1402  0.2361 -0.0072
66894W        W 9988  14.106   0.318  20.314 -0.0615  0.0290 -0.3023
66895W        W 9989  11.952   0.078  22.074  0.1078 -0.1281 -0.1453
66896W        W 9990  14.881  34.148  23.128 -0.0571 -0.2511 -0.0827
66897W        W 9991  11.543   1.093  21.508  0.0829 -0.0784 -0.0033
66898W        W 9992  10.724  32.683  22.118 -0.0626 -0.0520  0.2243
66899W        W 9993  12.161  31.912  19.044 -0.2293 -0.0103  0.0044
66900W        W 9994  11.995  33.221  20.505  0.1447  0.0694  0.0922
66901W        W 9995  14.023  33.052  19.972  0.1089  0.0721 -0.0356
66902W        W 9996  14.231  34.290  21.812  0.0820 -0.2534  0.1467
66903W        W 9997  12.176  33.456  21.314 -0.1859 -0.1571 -0.1843
66904W        W 9998  12.725  33.601  21.305  0.0852  0.2035 -0.2268
66905W        W 9999  11.510   0.460  20.623  0.1429  0.0798  0.1138
66906W        W10000  10.149   0.733  23.312 -0.0185  0.1292  0.1720
66907W        W10001  14.792  33.631  22.450 -0.1448 -0.0440  0.0597
66908W        W10002  11.721  32.796  21.230  0.1477 -0.2131  0.2829
66909W        W10003  12.933  33.961  20.536 -0.3058 -0.4549  0.2746
66910W        W10004  14.652  33.089  20.967  0.2559 -0.0531 -0.3154
66911W        W10005  12.506  34.037  22.511  0.1546  0.2540 -0.0907
66912W        W10006  12.215  32.401  19.427 -0.2262  0.2831  0.1885
66913W        W10007  13.147  33.819  21.150  0.1778 -0.1257 -0.1457
66914W        W10008  10.578  34.480  22.254  0.0769 -0.1441 -0.1130
66915W        W10009  12.900  33.950  23.534 -0.2784  0.0358 -0.1032
66916W        W10010  11.016   0.818  21.315  0.1008  0.0521 -0.1177
66917W        W10011  13.267  34.689  21.692 -0.3936 -0.1584 -0.3316
66918W        W10012  10.667  33.892  22.931 -0.0966 -0.0376 -0.0778
66919W        W10013  12.326  34.286  19.660 -0.0110 -0.4317 -0.3053
66920W        W10014  14.494  34.686  22.218 -0.1832 -0.1022  0.1611
66921W        W10015  12.022  33.696  19.519  0.1761  0.1217  0.0244
66922W        W10016  11.514  32.916  21.772 -0.1637  0.0227 -0.1948
66923W        W10017  13.096  33.503  20.379 -0.0758  0.2931 -0.0650
66924W        W10018  10.375  34.203  20.138 -0.2178  0.0484 -0.0869
66925W        W10019  13.107  34.055  22.558  0.4384 -0.3564  0.2132
66926W        W10020  10.760  32.149  20.814 -0.3789  0.0430 -0.0861
66927W        W10021  14.728   0.510  22.761  0.1666 -0.1761  0.0132
66928W        W10022  13.197   1.268  20.262 -0.1036 -0.0392  0.1735
66929W        W10023  11.769  33.859  22.144  0.0746  0.1371 -0.0950
66930W        W10024  12.125  33.056  20.989  0.0475 -0.3649 -0.2748
66931W        W10025  11.688   0.750  22.905 -0.2016  0.1196  0.2757
66932W        W10026  14.024  33.138  22.411  0.1809 -0.3901  0.0595
66933W        W10027  13.937  33.616  22.231  0.0208  0.0280 -0.2344
66934W        W10028  14.537  32.940  22.371  0.1443  0.1631 -0.0726
66935W        W10029  13.005  33.031  20.260 -0.1861  0.0450 -0.1512
66936W        W10030  12.364  33.448  20.856  0.2366 -0.2377 -0.4764
66937W        W10031  14.529  33.594  20.902  0.0373 -0.0595  0.1121
66938W        W10032  13.626  32.484  20.876  0.5623  0.1434 -0.1725
66939W        W10033  11.544  34.407  22.213  0.0703 -0.0722  0.0477
66940W        W10034   9.656  33.306  20.487  0.1759 -0.0303 -0.1681
66941W        W10035  12.721  33.345  23.216  0.0745  0.2931 -0.1306
66942W        W10036  12.093  33.890  23.173  0.0602 -0.2250  0.4181
66943W        W10037  11.896   0.355  20.909  0.0373 -0.0234 -0.0407
66944W        W10038  11.041  34.112  20.927 -0.1976  0.4479  0.1997
66945W        W10039  11.232  32.166  22.659 -0.0325  0.1424  0.1716
66946W        W10040  11.136  32.363  22.186  0.3643 -0.2436  0.1193
66947W        W10041  12.661  34.345  20.815 -0.0429  0.3109 -0.0677
66948W        W10042  11.500   0.277  22.942  0.0508 -0.1080 -0.1905
66949W        W10043  12.274  34.476  23.317 -0.3292 -0.1682 -0.1508
66950W        W10044  10.729  31.994  20.354  0.1240  0.0022 -0.1945
66951W        W10045  12.595  34.010  21.655  0.2431 -0.4222 -0.2219
66952W        W10046  10.951  33.062  23.046  0.0933 -0.0863 -0.0431
66953W        W10047  13.453  33.404  21.282  0.1674  0.1305  0.1603
66954W        W10048  13.322   0.897  20.604  0.2218  0.5840 -0.0134
66955W        W10049  10.718  32.336  23.002  0.1155  0.4517 -0.3180
66956W        W10050  11.788  32.617  20.752  0.1514  0.1137 -0.0741
66957W        W10051  12.824  32.829  21.457 -0.2032  0.1250  0.1131
66958W        W10052  10.480   0.730  20.719  0.0200  0.2316  0.1080
66959W        W10053  13.671   0.144  19.694  0.4038 -0.0464 -0.0551
66960W        W10054  11.991   1.303  23.189 -0.2579  0.0377  0.0659
66961W        W10055  10.742   1.803  20.408 -0.0877 -0.0059 -0.1256
66962W        W10056  15.146   0.051  20.611  0.0018 -0.0068  0.0562
66963W        W10057  11.652  33.230  22.336 -0.1340 -0.0728 -0.1124
66964W        W10058  11.586  33.934  20.773 -0.0189  0.0639  0.2006
66965W        W10059  12.333   1.348  20.462  0.2524 -0.0162  0.1329
66966W        W10060  13.488  33.881  22.858  0.2291  0.3902  0.0585
66967W        W10061  12.832  34.430  22.156 -0.1236  0.2903  0.0989
66968W        W10062  13.588  34.393  19.003  0.3242  0.0088 -0.2503
66969W        W10063  11.630   0.066  23.392 -0.1726  0.3702 -0.1949
66970W        W10064  15.018  33.598  24.387 -0.2739 -0.0343  0.0010
66971W        W10065  14.386  32.852  23.310  0.0785 -0.2766 -0.3820
66972W        W10066  10.964  33.520  25.031  0.4093  0.2477  0.0806
66973W        W10067  10.740  32.909  26.566 -0.2308  0.2297  0.0497
66974W        W10068  12.990   0.153  24.518 -0.2612 -0.1899 -0.0073
66975W        W10069  12.888  33.685  25.297  0.0182 -0.5208 -0.4307
66976W        W10070  13.453  32.796  23.285 -0.4872 -0.0253  0.2187
66977W        W10071  11.755  33.309  25.840 -0.1634  0.3210 -0.2169
66978W        W10072  13.618  34.506  26.138  0.1748  0.1075  0.1470
66979W        W10073  10.129  33.776  23.617  0.0653  0.1239 -0.1387
66980W        W10074  12.096  33.444  25.418 -0.2181 -0.1091  0.2887
66981W        W10075  12.310   0.842  23.717  0.2810  0.1046  0.0281
66982W        W10076  12.813  33.943  28.126 -0.0355 -0.1908  0.1324
66983W        W10077  13.966  33.779  25.712  0.0274 -0.1236 -0.1045
66984W        W10078  10.754  33.954  22.425  0.0541 -0.1330  0.1902
66985W        W10079  11.876  34.382  25.968 -0.1958  0.2617 -0.3129
66986W        W10080  11.536  34.252  25.445 -0.0248 -0.1828  0.1391
66987W        W10081  14.652  34.279  26.096 -0.0273 -0.2057 -0.2139
66988W        W10082  13.515   0.278  25.263  0.0261 -0.1187 -0.0837
66989W        W10083  15.042  34.467  28.556 -0.2851  0.0591 -0.1020
66990W        W10084  12.516   0.568  25.779  0.2028 -0.1768 -0.0836
66991W        W10085  14.815  33.391  24.883 -0.0885 -0.0039 -0.2602
66992W        W10086  15.453  34.365  27.041 -0.2530  0.0673  0.0084
66993W        W10087  13.982  33.806  23.133  0.0826 -0.3106  0.0172
66994W        W10088  13.239  34.522  22.592 -0.1391 -0.1152  0.0635
66995W        W10089  14.436  32.235  23.996  0.1809  0.0093  0.2484
66996W        W10090  11.985  32.909  25.583  0.0545  0.0625  0.0068
66997W        W10091  12.248  33.460  25.978 -0.1543  0.4952 -0.0736
66998W        W10092  13.621  33.498  24.118  0.2123  0.4529 -0.0523
66999W        W10093  13.025  33.958  24.451 -0.0036  0.2405  0.3383
67000W        W10094  11.477  34.670  25.734  0.0817  0.0494 -0.0729
67001W        W10095  10.450  34.550  25.386 -0.0993  0.2521 -0.1522
67002W        W10096  11.724  34.291  26.940 -0.2870 -0.1166 -0.4240
67003W        W10097  12.313  33.979  25.928 -0.0315 -0.1108  0.0154
67004W        W10098  11.638  33.922  24.160 -0.2657  0.1545 -0.1137
67005W        W10099  15.253  32.587  25.161  0.0335  0.1044 -0.0806
67006W        W10100  15.195  33.186  25.661  0.4302  0.1466 -0.1276
67007W        W10101  15.179  32.898  26.696 -0.2031  0.1505  0.0739
67008W        W10102  14.729  33.949  24.704 -0.1020  0.0164  0.1134
67009W        W10103  12.741  33.740  25.807 -0.1023 -0.0022  0.0315
67010W        W10104  12.426  33.824  25.405  0.2990 -0.1099  0.1636
67011W        W10105  14.254  30.896  24.469  0.0650 -0.0095  0.3747
67012W        W10106  12.484  32.788  25.583 -0.0427 -0.1196  0.0577
67013W        W10107  14.828  32.446  24.838 -0.1312 -0.0575  0.1596
67014W        W10108  14.733  32.631  23.641 -0.1121  0.0639 -0.0960
67015W        W10109  10.519  33.568  25.579  0.1813  0.0282  0.0501
67016W        W10110  12.573  34.663  25.000 -0.0773 -0.1455 -0.1331
67017W        W10111  12.178  32.425  26.993  0.0770  0.2051 -0.2211
67018W        W10112  11.835  33.688  26.164 -0.1264  0.0484  0.0276
67019W        W10113  14.393  33.854  26.060  0.0314  0.0034 -0.1384
67020W        W10114  10.889  34.208  23.841  0.1380 -0.1743  0.1059
67021W        W10115  14.514  33.554  24.526  0.3279  0.0734  0.2359
67022W        W10116  13.456  34.010  24.269 -0.1740  0.3556  0.1212
67023W        W10117  13.859  33.210  27.368 -0.1842  0.1481 -0.0246
67024W        W10118  11.574  33.772  26.646  0.0378 -0.0891  0.1048
67025W        W10119  12.140   0.339  24.099 -0.1064 -0.0065 -0.2808
67026W        W10120  12.169  34.204  24.723  0.1096  0.1479  0.1176
67027W        W10121  14.583  33.399  26.161 -0.4531 -0.4008  0.2653
67028W        W10122  15.219  34.071  24.438  0.3299 -0.0590 -0.0015
67029W        W10123  11.736  33.392  24.109  0.1244 -0.0554 -0.0687
67030W        W10124  11.768   0.635  25.066 -0.0700  0.0265  0.1680
67031W        W10125  15.182  31.735  25.649 -0.1151 -0.2217 -0.1643
67032W        W10126  12.161  34.030  26.906  0.3142  0.0525 -0.2610
67033W        W10127  13.365  34.518  26.664  0.0361  0.1542 -0.4143
67034W        W10128   9.579  34.301  23.183 -0.0368 -0.0170  0.0304
67035W        W10129  13.957  32.726  25.664 -0.2626 -0.1886  0.4312
67036W        W10130  13.606  31.944  23.605  0.1706 -0.0670 -0.0347
67037W        W10131  14.680  33.155  23.803 -0.1398  0.0040  0.0572
67038W        W10132  13.221  33.694  23.941 -0.0350 -0.0643  0.1470
67039W        W10133  11.677  34.344  24.930 -0.0248  0.1971 -0.0218
67040W        W10134  12.615  34.123  25.032  0.2341  0.0159 -0.1537
67041W        W10135  12.160   0.569  22.164  0.0108  0.0629  0.0901
67042W        W10136  13.219  33.407  25.015 -0.0857 -0.2693 -0.2943
67043W        W10137  13.820  34.441  27.057  0.1554 -0.2576  0.3629
67044W        W10138  13.459  33.072  25.422  0.1860 -0.0339  0.0549
67045W        W10139  13.112  33.932  24.921  0.1530  0.1059  0.0084
67046W        W10140  14.867  33.118  27.003  0.0433 -0.0838 -0.1668
67047W        W10141  14.750  34.001  23.648  0.0052 -0.0734 -0.1088
67048W        W10142  14.545   0.117  26.104  0.1124  0.0927 -0.1111
67049W        W10143  12.924   1.034  23.922  0.2835 -0.0874 -0.1094
67050W        W10144  15.229  33.703  26.510  0.3698  0.0684  0.2224
67051W        W10145  15.388  33.391  27.920  0.2790 -0.0035 -0.0999
67052W        W10146  13.530  32.918  24.955  0.2407 -0.1807 -0.2531
67053W        W10147  12.926  33.286  26.859 -0.0199 -0.2336 -0.0616
67054W        W10148  15.415  33.081  25.106  0.2167 -0.1055  0.0945
67055W        W10149  11.573  33.919  23.212  0.1781  0.3168 -0.3128
67056W        W10150  11.975  34.675  24.469  0.1399  0.0109 -0.0619
67057W        W10151  14.323  32.293  24.613 -0.0207  0.0852 -0.0604
67058W        W10152  11.876  33.920  25.648  0.0481  0.2073  0.0262
67059W        W10153  13.390  33.623  25.480 -0.1054 -0.2419  0.1346
67060W        W10154  13.901   0.053  26.649  0.0997  0.2831  0.1545
67061W        W10155  13.285  33.171  23.058 -0.2991  0.4255 -0.0042
67062W        W10156  12.888   0.168  27.692  0.0652 -0.0057  0.4118
67063W        W10157  11.132  33.940  24.207  0.1693 -0.0304  0.0574
67064W        W10158  14.336   0.069  27.786  0.1160  0.0621  0.2603
67065W        W10159  12.760   0.653  25.274  0.1919  0.1938  0.0439
67066W        W10160  12.095   0.013  25.050 -0.2979 -0.2100  0.5224
67067W        W10161  11.919  34.679  25.586  0.2175 -0.2867  0.0588
67068W        W10162  13.189  33.078  24.046  0.1306  0.3547  0.1400
67069W        W10163  12.367  33.004  24.605 -0.0011  0.0207  0.4318
67070W        W10164  13.951  33.154  25.319  0.3360 -0.0371  0.2059
67071W        W10165  12.543  34.395  26.573 -0.0741 -0.1502  0.1025
67072W        W10166  13.089  33.297  25.701 -0.1804 -0.2756 -0.1379
67073W        W10167  13.229  33.656  26.558 -0.4517  0.0319  0.1821
67074W        W10168  14.020  34.239  25.476 -0.2386  0.3017  0.2307
67075W        W10169  13.953  32.308  23.966 -0.0542  0.2266  0.1447
67076W        W10170  12.606  34.589  24.171  0.4481 -0.0661  0.2140
67077W        W10171  15.453  33.793  27.652 -0.3316  0.0865  0.1364
67078W        W10172  13.809  32.867  24.235 -0.3909  0.3425 -0.4285
67079W        W10173  13.092  33.946  27.509 -0.0558  0.1729  0.0499
67080W        W10174  11.068  34.270  25.667  0.1915  0.0755  0.1704
67081W        W10175  11.367  33.421  26.406  0.2516  0.0749  0.2425
67082W        W10176  10.848  33.715  25.913  0.0772  0.2360 -0.2927
67083W        W10177  14.180  33.243  24.202 -0.0948 -0.2201  0.0277
67084W        W10178  10.606  32.918  24.760  0.0310 -0.1368  0.0496
67085W        W10179  12.207   1.008  25.914 -0.2843  0.0388 -0.0812
67086W        W10180  14.442   0.390  25.697 -0.0141  0.0565 -0.2350
67087W        W10181  11.582   0.206  25.209  0.0929  0.1522  0.1099
67088W        W10182  13.486  33.716  24.728  0.2447  0.2491  0.3218
67089W        W10183  11.493  32.830  25.940  0.1223 -0.0483  0.1402
67090W        W10184  15.316   0.989  25.308  0.0841 -0.1891  0.0618
67091W        W10185  15.114  33.527  26.037  0.1189 -0.1678  0.2526
67092W        W10186  14.349  34.464  26.465  0.4123 -0.1795  0.0510
67093W        W10187  11.356  34.227  26.630  0.0700 -0.0252  0.0665
67094W        W10188  11.242   0.107  27.817 -0.1305  0.1526  0.4464
67095W        W10189  14.468  33.962  23.244  0.0379 -0.1082 -0.0169
67096W        W10190  15.952  34.360  27.201 -0.3928 -0.2260 -0.1228
67097W        W10191  15.041   0.798  26.498 -0.1582 -0.0290 -0.0069
67098W        W10192  14.255  32.340  23.530 -0.0185  0.3401 -0.1978
67099W        W10193  11.147  34.409  25.096 -0.0415 -0.4302  0.1411
67100W        W10194  14.890  34.265  27.011 -0.1502  0.3106  0.2330
67101W        W10195  12.927  33.117  24.540  0.1960  0.3213  0.0874
67102W        W10196  14.799  33.839  26.295  0.0990 -0.0037  0.2719
67103W        W10197  13.855  33.509  24.962  0.0207  0.1450  0.2727
67104W        W10198  10.167  32.789  23.981 -0.0801 -0.2106  0.2795
67105W        W10199  10.292  34.646  23.764  0.0285 -0.1413 -0.0300
67106W        W10200  12.560   0.309  23.739  0.2746  0.1353  0.1472
67107W        W10201  12.068  32.339  23.542 -0.1388 -0.3448 -0.0273
67108W        W10202  13.481  33.666  27.266  0.2057 -0.0404 -0.3929
67109W        W10203  13.631  32.938  23.784 -0.0709  0.1736 -0.0654
67110W        W10204  12.295  33.734  24.856  0.0169 -0.0793  0.2476
67111W        W10205  15.248  34.025  26.141 -0.1219  0.3137  0.1054
67112W        W10206  13.509  34.273  24.781  0.4702  0.2110  0.1023
67113W        W10207  15.832  33.679  27.937 -0.1111  0.0643 -0.0878
67114W        W10208  11.596  34.382  24.408 -0.0539 -0.1417 -0.0524
67115W        W10209  11.535  32.925  26.487  0.0345  0.2518 -0.1065
67116W        W10210  13.855  33.976  24.977 -0.0134  0.0423  0.0795
67117W        W10211  12.425  34.083  23.732 -0.1715  0.1493 -0.1244
67118W        W10212  15.705  32.387  24.465  0.1977  0.3328  0.1199
67119W        W10213  13.720  34.537  25.165 -0.1106  0.1699 -0.0472
67120W        W10214  15.546  32.740  24.050  0.2191 -0.0760 -0.1539
67121W        W10215  11.864   0.426  24.644  0.0480 -0.0073  0.1973
67122W        W10216  12.620  33.089  23.673 -0.2342  0.0234  0.1107
67123W        W10217  10.090  33.410  25.918 -0.4148 -0.0861 -0.3142
67124W        W10218  16.342  32.793  25.698  0.1511  0.4050 -0.0910
67125W        W10219  12.154  34.294  25.376  0.1279 -0.2055  0.1961
67126W        W10220  13.798  34.655  25.689 -0.0160  0.3646 -0.0925
67127W        W10221  16.212  32.472  26.194  0.1016  0.4201  0.1374
67128W        W10222  15.583  32.734  24.821 -0.0242  0.2383  0.2080
67129W        W10223  11.210   0.037  22.493 -0.1325  0.0424  0.0138
67130W        W10224  15.880  34.417  24.463 -0.0809  0.2268 -0.3739
67131W        W10225  12.297   0.029  25.875  0.1219 -0.3279  0.0109
67132W        W10226  15.901  32.982  26.997  0.0549  0.0779  0.1082
67133W        W10227  11.493   0.935  23.937  0.2937 -0.3143  0.2584
67134W        W10228  14.453  34.263  24.402 -0.1237  0.1286 -0.0256
67135W        W10229  11.909  33.239  26.404  0.2574  0.1241  0.0259
67136W        W10230  12.886   0.195  22.623  0.0311  0.3884 -0.1322
67137W        W10231  14.171   0.045  27.271 -0.0318 -0.1203 -0.0397
67138W        W10232  12.121  33.335  23.192  0.2060  0.0523  0.1444
67139W        W10233  11.443  34.234  23.534  0.0144  0.2054 -0.0100
67140W        W10234  13.747  33.449  23.638  0.3065 -0.2245 -0.3334
67141W        W10235  11.294   0.177  23.829 -0.2674  0.2272  0.0103
67142W        W10236  12.397   0.222  25.387  0.0671  0.0477 -0.2860
67143W        W10237  12.155  33.737  23.921 -0.0097  0.0972 -0.4823
67144W        W10238  15.194  33.091  26.180  0.2478 -0.1170 -0.0762
67145W        W10239  13.413   0.055  24.821 -0.2719 -0.1600 -0.1028
67146W        W10240  11.185  34.270  24.643  0.2155  0.4514 -0.3601
67147W        W10241  14.631  32.951  24.777  0.2461  0.0554  0.2135
67148W        W10242  13.294   0.839  24.890  0.0436 -0.0188 -0.1397
67149W        W10243  15.227  32.441  24.312 -0.1920 -0.2694 -0.2310
67150W        W10244  15.671  33.291  27.431  0.2803  0.1231 -0.0134
67151W        W10245  15.428  32.451  27.426  0.1614 -0.0519 -0.2900
67152W        W10246  13.954  33.109  23.152  0.4057  0.0987 -0.1607
67153W        W10247  13.085  34.449  25.071 -0.3398 -0.0581 -0.3174
67154W        W10248  14.659  31.892  24.774 -0.1101  0.3543  0.0324
67155W        W10249  13.529  32.003  24.150 -0.0607  0.0779 -0.3964
67156W        W10250  13.367  34.104  26.297  0.0453 -0.0698 -0.0093
67157W        W10251   9.888  33.311  23.191 -0.0714 -0.0297 -0.0956
67158W        W10252  12.567  33.739  27.615  0.2490  0.0633 -0.1045
67159W        W10253  11.881  33.352  27.372  0.0493  0.1456 -0.0399
67160W        W10254  10.695  34.188  25.076  0.2295 -0.1467 -0.0396
67161W        W10255  12.096  33.223  23.793 -0.0121  0.3849 -0.0003
67162W        W10256  11.395  33.105  25.480  0.0660 -0.1179 -0.1113
67163W        W10257  11.035  32.849  25.115 -0.0303 -0.0048  0.0958
67164W        W10258  13.214  33.459  24.406  0.2737  0.0329 -0.1096
67165W        W10259  13.219  34.462  27.623  0.0016  0.3663  0.3006
67166W        W10260  13.312   0.245  26.988 -0.1970  0.1646 -0.0109
67167W        W10261  10.701  32.074  24.509  0.1119  0.0906  0.1787
67168W        W10262  14.323  34.570  25.790  0.0557  0.1596  0.2975
67169W        W10263  11.803  32.517  26.710  0.0987 -0.0631  0.2086
67170W        W10264  14.937  33.996  25.788 -0.2050 -0.1602  0.5010
67171W        W10265  14.229  33.888  24.621  0.1665  0.1712 -0.1890
67172W        W10266  10.222  33.319  28.062 -0.0156  0.1604  0.3448
67173W        W10267  10.770  33.543  24.241 -0.2296  0.1301 -0.0490
67174W        W10268  13.911  32.684  23.455  0.0535 -0.2634  0.2741
67175W        W10269  12.333  33.763  26.420 -0.1520 -0.1221 -0.1712
67176W        W10270  12.484  34.002  24.269 -0.3027 -0.3636  0.0661
67177W        W10271  13.252  33.675  26.027  0.0824 -0.2033  0.0328
67178W        W10272  10.896  34.464  23.377 -0.1129 -0.1413 -0.3911
67179W        W10273  13.866   0.670  24.171  0.2492  0.1510  0.0819
67180W        W10274  10.935  33.875  25.369  0.2980  0.2703  0.0154
67181W        W10275  11.279  34.396  23.980 -0.1143  0.1043  0.2601
67182W        W10276  11.241   0.587  24.183 -0.0877 -0.0227 -0.0648
67183W        W10277  14.259  33.715  25.317  0.1255  0.0959  0.1712
67184W        W10278  11.502  34.093  26.212  0.1167  0.2417 -0.0844
67185W        W10279  15.129  32.866  24.660  0.4069  0.1418 -0.0738
67186W        W10280  12.407  33.245  28.609  0.0214  0.1937 -0.1734
67187W        W10281  14.521  34.069  27.904  0.0324 -0.2447  0.1467
67188W        W10282  15.346  34.279  27.810  0.2567  0.1245 -0.0857
67189W        W10283  11.382  33.118  28.607  0.2108  0.3353  0.1677
67190W        W10284  11.561  33.561  29.797  0.5746 -0.0490  0.0831
67191W        W10285  14.020  34.213  27.497  0.0658 -0.2788 -0.1049
67192W        W10286  13.166  34.181  29.949 -0.0785 -0.1909  0.0356
67193W        W10287  11.981  32.994  26.836 -0.1762 -0.1270 -0.0098
67194W        W10288  11.341  33.426  31.257  0.2069 -0.1340 -0.0086
67195W        W10289  13.719  33.737  30.182  0.2449  0.1782 -0.0291
67196W        W10290  10.288  33.251  29.647 -0.2220 -0.2774 -0.2680
67197W        W10291  10.938  34.297  30.158 -0.5028 -0.0107  0.0154
67198W        W10292  12.663   0.047  28.420  0.0263  0.0480 -0.0601
67199W        W10293  13.418  32.782  29.702 -0.2554 -0.1220  0.0838
67200W        W10294  13.349  33.331  30.234 -0.0676 -0.1399 -0.0278
67201W        W10295   9.989  34.493  26.967 -0.1508 -0.1980 -0.0825
67202W        W10296   9.718  32.937  30.352 -0.0450  0.0351  0.0513
67203W        W10297  10.874   0.182  30.042 -0.0640 -0.1843 -0.1737
67204W        W10298  14.883  32.891  30.672  0.3897  0.1462 -0.3596
67205W        W10299  14.334  33.749  29.485  0.0561 -0.2802 -0.0494
67206W        W10300  14.323  33.908  31.193  0.1162  0.0826  0.0013
67207W        W10301  14.205  34.041  29.907  0.0509 -0.1093 -0.0543
67208W        W10302  13.780  33.628  28.529  0.0002  0.1290  0.2766
67209W        W10303  16.345  32.951  29.189  0.0290 -0.0817 -0.0713
67210W        W10304  14.555   1.423  27.786 -0.1482  0.0604  0.3318
67211W        W10305  13.311   0.211  27.980  0.0751  0.0978 -0.1829
67212W        W10306  15.308  33.962  28.658  0.4642  0.2373 -0.4452
67213W        W10307  12.324  32.585  29.951 -0.1015 -0.0316  0.0822
67214W        W10308  12.127  34.376  29.566 -0.0080  0.2614 -0.0177
67215W        W10309  13.762   0.099  28.081  0.3505  0.2023  0.5204
67216W        W10310  12.962  34.418  29.488  0.0253  0.0710  0.1031
67217W        W10311  12.984   0.020  29.916 -0.2714 -0.0711  0.4099
67218W        W10312  11.694   0.071  29.212  0.2667  0.1693 -0.0421
67219W        W10313  11.814   0.304  30.734 -0.1719  0.0528 -0.1297
67220W        W10314  11.647   1.134  29.299 -0.0240 -0.0618 -0.2652
67221W        W10315  11.463  32.907  27.172  0.1309  0.2855 -0.2213
67222W        W10316  15.682  32.994  28.074 -0.1458  0.3736  0.5264
67223W        W10317  13.798  33.690  29.489 -0.0726 -0.3598 -0.4310
67224W        W10318  15.209  34.044  30.808  0.2256  0.1754 -0.3408
67225W        W10319  14.785   0.552  26.148 -0.3639 -0.0248 -0.0899
67226W        W10320  12.588  33.136  30.730  0.0440 -0.2698  0.1031
67227W        W10321  10.096  32.045  30.409 -0.3150  0.0908  0.1128
67228W        W10322  14.168  32.725  28.644 -0.0802  0.0496 -0.0498
67229W        W10323  10.638  34.222  30.581 -0.2132 -0.3395  0.3236
67230W        W10324  15.164  32.088  27.622 -0.2276 -0.2123  0.0189
67231W        W10325  15.872  33.326  28.453 -0.0987  0.0848  0.0152
67232W        W10326  10.421  32.989  29.173  0.2279  0.0668  0.3169
67233W        W10327  11.064  33.611  28.962  0.1145 -0.2393 -0.1068
67234W        W10328  12.949  34.282  30.789 -0.0784  0.3204 -0.1305
67235W        W10329  11.291  33.632  30.267  0.0851 -0.4464 -0.1171
67236W        W10330  13.654  34.233  31.290  0.0700  0.1365 -0.1513
67237W        W10331  10.067  33.775  28.192 -0.0180  0.2175 -0.0313
67238W        W10332  13.382  34.143  27.084  0.2855 -0.0407 -0.1467
67239W        W10333  12.437  33.227  27.283  0.0725 -0.1412  0.1572
67240W        W10334  15.475  34.190  30.068  0.2075 -0.2479  0.3830
67241W        W10335  14.215  34.488  30.498 -0.0197 -0.0255  0.1828
67242W        W10336  11.186  33.089  30.383  0.0222  0.0572 -0.4066
67243W        W10337  12.090  33.575  28.285  0.0578  0.3580  0.2599
67244W        W10338  13.402  33.701  29.836 -0.3159 -0.1084 -0.1342
67245W        W10339  13.792  34.236  28.533  0.1774 -0.0884  0.4001
67246W        W10340  11.650  33.558  27.783  0.1234  0.1573  0.0900
67247W        W10341  12.125   1.121  29.468  0.0807 -0.0282 -0.0935
67248W        W10342  14.572  33.395  29.724 -0.0470 -0.2779  0.2354
67249W        W10343  11.132   0.348  30.663  0.2998  0.3472  0.0660
67250W        W10344  13.310   0.692  30.776 -0.0564 -0.1209 -0.0818
67251W        W10345  10.863  34.001  27.083 -0.0084 -0.3630  0.0766
67252W        W10346  13.905  33.349  27.999  0.1521  0.0969  0.3156
67253W        W10347  15.117  33.491  27.379  0.2497  0.2411 -0.4732
67254W        W10348  12.875  33.406  27.421 -0.0103  0.1298  0.3717
67255W        W10349  13.888  33.701  27.617  0.1804 -0.0455 -0.2633
67256W        W10350  12.949  34.076  26.657  0.2812 -0.0431 -0.1139
67257W        W10351  12.940  33.682  30.120 -0.0533 -0.0305 -0.1466
67258W        W10352  12.954  34.235  28.644  0.0783 -0.0040  0.4447
67259W        W10353  13.516  32.543  28.495 -0.0617  0.2412 -0.2376
67260W        W10354  13.319  32.127  29.117 -0.2606  0.1537  0.5767
67261W        W10355  12.602  34.330  29.916 -0.0009 -0.0015 -0.0571
67262W        W10356  11.816  33.780  30.153  0.2999 -0.0173  0.1373
67263W        W10357  15.871  33.977   0.487 -0.3003 -0.0686  0.0242
67264W        W10358  13.590  34.120  27.579  0.1947 -0.1391 -0.1009
67265W        W10359  14.617   1.566  29.933  0.0014  0.0331 -0.1667
67266W        W10360  12.528  32.772  26.925 -0.2140  0.0425 -0.0314
67267W        W10361  13.930  33.163  30.311  0.1952  0.0975 -0.0224
67268W        W10362  14.678  33.735  30.138 -0.2080  0.0451  0.0508
67269W        W10363  12.140  33.483  27.799  0.4418  0.2214 -0.1666
67270W        W10364  13.727  33.323  28.940  0.2522 -0.1848  0.0609
67271W        W10365  14.475  32.137  29.210  0.0479 -0.0278  0.0101
67272W        W10366  12.546  34.390  28.847  0.1892  0.0382  0.2181
67273W        W10367   9.601  32.659  29.911  0.1098 -0.1110  0.1540
67274W        W10368  14.772  33.828  28.447 -0.1024 -0.1418  0.0447
67275W        W10369  10.716  33.987  31.305 -0.6083  0.1076 -0.2120
67276W        W10370  13.698  33.242  29.890  0.0402  0.0473  0.0432
67277W        W10371  12.317   0.187  30.576  0.3735 -0.1256  0.0889
67278W        W10372  13.366  33.364  26.919  0.2640 -0.1679  0.2821
67279W        W10373  12.846  33.753  30.727 -0.0509  0.0418  0.3671
67280W        W10374   9.611  33.852  28.458  0.1922 -0.1269 -0.1006
67281W        W10375  15.824   1.016  30.515  0.1417  0.1576  0.2818
67282W        W10376  12.545  33.509  28.070  0.3148 -0.2541 -0.1919
67283W        W10377  12.684   0.810  27.415  0.1229 -0.2200  0.3380
67284W        W10378  11.390  33.818  30.967  0.0801  0.0534  0.0608
67285W        W10379  11.566  33.947  28.258  0.1429 -0.0207 -0.2680
67286W        W10380  13.115  32.335  29.520 -0.0097  0.1299  0.0322
67287W        W10381  12.666  33.863  29.009  0.3561  0.1417 -0.0079
67288W        W10382  12.196  33.916  30.396 -0.2339  0.2750  0.1051
67289W        W10383  13.230  31.276  29.239  0.2896 -0.0464 -0.3497
67290W        W10384  15.651  34.617  31.427 -0.2421 -0.0268 -0.2041
67291W        W10385  14.123  33.328  29.521  0.0969  0.2825 -0.0795
67292W        W10386  14.317  31.518  27.880  0.1131 -0.1772 -0.1714
67293W        W10387  14.158  33.700  28.969 -0.1936  0.2955 -0.0283
67294W        W10388  15.115  33.692   0.060  0.0771 -0.1835  0.0140
67295W        W10389  14.135   0.539  28.081 -0.4382  0.1306 -0.0585
67296W        W10390  15.762  33.209  30.192 -0.1882  0.0499  0.0842
67297W        W10391  12.951  33.888  29.541 -0.2596  0.2216 -0.2870
67298W        W10392  11.996  32.781  30.666  0.4856  0.0587  0.1882
67299W        W10393  11.258   0.523  31.382  0.2727  0.1543  0.3725
67300W        W10394  13.324  33.855  27.956 -0.2001 -0.0569  0.0370
67301W        W10395  10.912  32.270  28.753  0.2804  0.0610  0.0365
67302W        W10396  12.003  34.232  30.075 -0.0651  0.0309  0.1874
67303W        W10397  14.963  32.913  29.266 -0.0692 -0.0841 -0.1329
67304W        W10398  11.049   1.239  28.399  0.1644 -0.0313  0.0827
67305W        W10399  14.208  34.179  28.734  0.0721  0.2267 -0.0929
67306W        W10400  11.402  32.713  31.947 -0.0948 -0.0618  0.2350
67307W        W10401  14.539  34.287  28.359 -0.2870 -0.0269  0.1101
67308W        W10402  14.623  34.074  29.708  0.0818  0.0335 -0.0302
67309W        W10403  13.975  34.516  29.029 -0.0622  0.1619 -0.0177
67310W        W10404  13.263  33.087  31.975  0.0827 -0.1510  0.1467
67311W        W10405  10.631  33.564  31.641 -0.0514 -0.2785  0.0090
67312W        W10406  14.743  34.399  27.656  0.1658 -0.0487 -0.0983
67313W        W10407  15.862  33.082  29.036 -0.1115  0.2347  0.2819
67314W        W10408  14.879  33.686  27.809  0.1224  0.3583  0.0143
67315W        W10409  13.668  34.613  27.637  0.2413 -0.0155  0.2357
67316W        W10410  12.147  32.497  31.050  0.2781 -0.0710 -0.1467
67317W        W10411  15.281  34.254  31.337 -0.5703  0.1430  0.2579
67318W        W10412  11.963  32.574  27.442 -0.0180  0.2702  0.1119
67319W        W10413  16.226  32.788  30.798  0.3283  0.2154 -0.0367
67320W        W10414  12.541  34.183  29.367 -0.1351 -0.1660 -0.1078
67321W        W10415  10.595  33.994  29.074  0.0217 -0.1129 -0.3471
67322W        W10416  11.963  33.433  29.382  0.3699 -0.0764  0.0039
67323W        W10417  11.868   0.416  26.609  0.0164 -0.0011  0.4923
67324W        W10418  13.511  33.170  29.406 -0.0360 -0.2290 -0.1114
67325W        W10419  14.956  33.233  31.171  0.0486  0.0022 -0.2394
67326W        W10420  12.091  33.399  29.851 -0.3038 -0.0893 -0.1581
67327W        W10421  14.169  33.003  29.055 -0.5942 -0.1266  0.0837
67328W        W10422  14.802  34.566  29.678 -0.1183 -0.1265  0.1965
67329W        W10423  12.837  34.509  30.349 -0.1133 -0.0401  0.0643
67330W        W10424  14.579  34.670  31.076  0.0390 -0.1002 -0.0054
67331W        W10425  12.432   0.503  27.904  0.1802 -0.0812 -0.1452
67332W        W10426  11.003  33.674   0.220  0.0362 -0.0942  0.0621
67333W        W10427  11.634  33.180  29.112  0.1314 -0.0242  0.0272
67334W        W10428  11.615  33.768  27.180  0.2107 -0.0686  0.1465
67335W        W10429  15.161  32.554  28.431  0.2103 -0.0376 -0.0022
67336W        W10430  15.580   0.792  29.116  0.1705  0.0145 -0.0465
67337W        W10431  15.455  32.545  29.044  0.1366  0.0455  0.0167
67338W        W10432  11.891  33.966  29.694 -0.0304 -0.1460  0.0097
67339W        W10433  11.516  33.022  27.766  0.2106 -0.1804  0.2044
67340W        W10434  12.131   1.108  30.163 -0.1845  0.2001  0.0382
67341W        W10435  14.920  32.548  31.726 -0.1610 -0.3273 -0.2335
67342W        W10436  13.284  33.398  28.359 -0.0189 -0.1618 -0.1037
67343W        W10437  13.451  34.079  29.492 -0.2246  0.0345 -0.0964
67344W        W10438  13.916  32.067  30.990 -0.1163 -0.1571 -0.2175
67345W        W10439  14.375  33.525  27.984 -0.1461 -0.3234 -0.0414
67346W        W10440  10.256  33.673  29.389 -0.0066 -0.1321  0.1435
67347W        W10441  15.102  33.509  28.950 -0.2857 -0.1316 -0.0204
67348W        W10442  12.544  32.639  31.721  0.1057 -0.2690 -0.1046
67349W        W10443  14.818  32.364  29.666 -0.2017 -0.2854 -0.1099
67350W        W10444  11.357  34.634  30.159  0.0233 -0.0225 -0.2704
67351W        W10445  13.186   0.032  28.481  0.0254 -0.0890  0.2115
67352W        W10446  10.050  34.674  31.012 -0.0033 -0.1488 -0.3099
67353W        W10447  12.910  34.684  26.663 -0.1435 -0.4380 -0.3571
67354W        W10448  16.195  34.611  29.761 -0.0895 -0.1291 -0.2208
67355W        W10449  12.971  34.461  27.178  0.1881  0.1002 -0.2832
67356W        W10450  10.427  32.087  28.917 -0.2701 -0.2725 -0.0807
67357W        W10451  12.463  32.699  27.519  0.1098  0.0872 -0.3719
67358W        W10452  11.547  34.250  29.224 -0.1988  0.1389  0.0662
67359W        W10453  13.822   1.333  31.058  0.1010  0.0695  0.0606
67360W        W10454  11.219  32.901  29.459  0.0395 -0.2082 -0.0472
67361W        W10455  14.638   0.057  30.138 -0.1510 -0.1445 -0.1025
67362W        W10456  14.559  33.406  28.708  0.2106 -0.0303 -0.1344
67363W        W10457  10.291  33.890  30.291  0.1334  0.1655  0.3147
67364W        W10458  13.171  34.122  29.072  0.0637 -0.4530  0.0744
67365W        W10459  13.439  33.804  30.608 -0.2410 -0.2994 -0.1984
67366W        W10460  15.410  34.273  31.841  0.0447 -0.1656  0.1805
67367W        W10461  16.147   0.702  31.198 -0.2721  0.2092  0.2298
67368W        W10462  14.724  32.238  28.232 -0.1157  0.4020  0.0053
67369W        W10463  13.150   0.301  29.511 -0.1808  0.1203 -0.0818
67370W        W10464  13.290  33.618  29.338  0.1028 -0.0881 -0.0871
67371W        W10465  15.799  32.870  27.559  0.1994 -0.0549 -0.2965
67372W        W10466  14.221  32.567  29.317  0.0964 -0.1816  0.3187
67373W        W10467  13.831  33.428  30.675 -0.2099  0.1745  0.1752
67374W        W10468  11.766  33.247  28.160  0.0533 -0.0706 -0.2964
67375W        W10469  14.185  33.945  30.386  0.0487  0.1234  0.0421
67376W        W10470  10.241  32.939  30.471  0.0193 -0.2119 -0.1059
67377W        W10471  11.147  34.010  29.314  0.2100  0.0089  0.2987
67378W        W10472  10.895  32.736  30.087  0.1873  0.0345 -0.0875
67379W        W10473  10.858  34.664  30.486 -0.0499  0.1613 -0.0266
67380W        W10474  10.090  33.390  30.232 -0.1863 -0.0087 -0.1401
67381W        W10475  10.744  33.569  29.378  0.0574  0.1221  0.0805
67382W        W10476  13.578  34.312  30.767  0.0199 -0.2629 -0.2821
67383W        W10477  13.824  33.838  30.949  0.3752 -0.3424 -0.0111
67384W        W10478  11.585  33.766  29.303  0.0399  0.1391 -0.0066
67385W        W10479  12.414  33.672  29.402  0.1375 -0.1514 -0.1716
67386W        W10480  11.168  32.980  31.012  0.1139  0.1071 -0.2281
67387W        W10481  16.706  33.341  30.232  0.2697 -0.2184  0.5053
67388W        W10482  15.125  34.539  27.366  0.1889 -0.0132 -0.4766
67389W        W10483  10.750  33.659  30.332  0.1707  0.1087 -0.0991
67390W        W10484  11.808  32.534  29.675  0.0531 -0.0636 -0.0361
67391W        W10485  12.992  33.470  27.937 -0.0910 -0.1242  0.1658
67392W        W10486  11.636  34.493  29.740 -0.1510  0.0061 -0.3248
67393W        W10487  15.317  33.923  29.201  0.0333 -0.2530 -0.2320
67394W        W10488  13.794   0.044  30.581  0.2091  0.0233 -0.1044
67395W        W10489  12.946  34.646  28.986  0.0867  0.0545 -0.0153
67396W        W10490  14.387   0.504  27.057  0.0375 -0.3563 -0.1689
67397W        W10491  12.683  33.470  29.718 -0.0464 -0.1750 -0.0990
67398W        W10492  12.236  33.974  27.843  0.2548  0.3729 -0.0716
67399W        W10493  13.381  34.447  28.821 -0.1881 -0.1329  0.1009
67400W        W10494  16.447   0.261  31.047 -0.1187 -0.2052  0.1695
67401W        W10495  12.333  34.457  30.348  0.1087  0.2595  0.0996
67402W        W10496  14.468  32.340  28.695 -0.0097  0.2552  0.0523
67403W        W10497  15.752  32.903  30.588  0.0634 -0.1534  0.0637
67404W        W10498  13.735  34.687  31.073 -0.0200 -0.1180  0.0399
67405W        W10499  11.072  34.236  31.062 -0.0686  0.0602 -0.0489
67406W        W10500  15.044  34.150   0.287 -0.1284  0.0447 -0.1636
67407W        W10501  12.989  32.292   0.455 -0.2563  0.0591 -0.1079
67408W        W10502  15.511  33.404  31.310  0.3620  0.1466 -0.0519
67409W        W10503  11.750  33.771  30.658 -0.1907 -0.1531  0.1605
67410W        W10504  16.376  33.082   0.191 -0.0909  0.0779  0.1083
67411W        W10505  14.354  33.487  31.416 -0.2294 -0.0415  0.0393
67412W        W10506  12.650  34.014  30.371 -0.0405  0.0910  0.0206
67413W        W10507  12.754  33.097  31.934  0.1260 -0.0860  0.0191
67414W        W10508  15.722  33.491   0.494 -0.0683  0.0062  0.1750
67415W        W10509  14.077  33.605  31.887 -0.0723 -0.2194 -0.1104
67416W        W10510  14.914  33.491  30.495  0.0420 -0.1332 -0.2761
67417W        W10511  13.167  34.000   0.431 -0.0586 -0.4670 -0.3382
67418W        W10512  12.908  34.219  31.599 -0.3461  0.3410  0.3589
67419W        W10513  10.119  33.422  31.680  0.3276  0.1480  0.1454
67420W        W10514  12.706  32.659   0.289  0.3223 -0.2129 -0.1310
67421W        W10515  12.792  33.581  31.658 -0.1479 -0.0586  0.0262
67422W        W10516  11.925  32.756   1.219  0.0844 -0.1011  0.4039
67423W        W10517  14.291  34.495  31.853  0.1680  0.1067  0.2464
67424W        W10518  15.465  32.605  30.249 -0.3345 -0.1829 -0.1225
67425W        W10519  14.885  34.046  31.790  0.0164  0.0311 -0.1110
67426W        W10520  13.234  32.473  31.096  0.2007  0.1395  0.1514
67427W        W10521  12.114   0.708  30.560  0.1733 -0.0004 -0.0929
67428W        W10522  13.050  34.649   1.188  0.2010  0.3867 -0.1402
67429W        W10523  12.502  33.380  30.236 -0.1488  0.2824  0.1239
67430W        W10524  14.614  32.727  31.130  0.0630  0.1389  0.2223
67431W        W10525  15.382  32.987  30.904  0.1595 -0.2616  0.1206
67432W        W10526  14.625  33.617  31.912  0.2280  0.0919  0.0578
67433W        W10527  15.093  33.282  31.666 -0.0827  0.1811  0.2244
67434W        W10528  11.081  33.490  30.748 -0.0157  0.0885  0.0346
67435W        W10529  11.306  32.691  31.423  0.1428 -0.0875  0.0308
67436W        W10530  14.596  34.393  31.506  0.0172  0.2683 -0.1953
67437W        W10531  14.953   0.673  17.415  0.1849  0.0730 -0.3436
67438W        W10532  17.095  33.543  17.265  0.1562 -0.1474  0.2019
67439W        W10533  17.190   0.628  15.866 -0.0604 -0.1026  0.0812
67440W        W10534  17.955   2.159  16.963  0.1568 -0.6239  0.2205
67441W        W10535  13.890   0.075  16.389 -0.3646 -0.0559  0.2554
67442W        W10536  17.255   2.446  17.504  0.2982 -0.2205 -0.2402
67443W        W10537  16.692  34.636  18.230 -0.0644 -0.1014  0.0522
67444W        W10538  17.199   2.533  18.048  0.1046 -0.2888 -0.1943
67445W        W10539  16.833   2.035  18.222  0.1380 -0.0480  0.0183
67446W        W10540  15.786   2.741  16.201  0.1180 -0.1792  0.4645
67447W        W10541  15.750  33.339  17.617  0.1357 -0.0728  0.3775
67448W        W10542  17.107   1.905  18.736 -0.1575  0.0993 -0.4183
67449W        W10543  16.798   1.127  16.864  0.0967 -0.0347  0.0025
67450W        W10544  13.295   0.382  16.750 -0.0861 -0.0946 -0.2032
67451W        W10545  16.398   0.914  18.174 -0.3212  0.0057  0.1034
67452W        W10546  15.607   0.627  15.986  0.1153  0.1604 -0.0465
67453W        W10547  14.834   0.351  17.883  0.3310  0.0502  0.0195
67454W        W10548  16.045   1.127  17.364 -0.0116  0.0317 -0.1553
67455W        W10549  16.143   3.412  16.788 -0.0629  0.4579 -0.0427
67456W        W10550  15.255  33.173  18.438 -0.1583 -0.1271 -0.3025
67457W        W10551  16.278   0.864  19.870  0.1929 -0.5052 -0.1566
67458W        W10552  15.301   4.401  17.209 -0.1205 -0.3492 -0.2845
67459W        W10553  15.561   1.158  15.816  0.2180 -0.0347  0.2566
67460W        W10554  14.915   1.073  17.104  0.3040 -0.3186 -0.3331
67461W        W10555  16.337   2.014  16.823 -0.1202  0.2630  0.2642
67462W        W10556  17.756   0.613  18.578  0.0887  0.0830  0.1209
67463W        W10557  17.245   0.311  17.589 -0.2530 -0.0717 -0.0486
67464W        W10558  15.352   2.947  18.778 -0.2358  0.0760  0.1335
67465W        W10559  15.372   3.858  16.408 -0.0331 -0.2744 -0.0448
67466W        W10560  17.476   0.687  19.174 -0.1982 -0.2828 -0.1320
67467W        W10561  15.718   1.052  16.345 -0.0674  0.1324  0.3729
67468W        W10562  14.306   1.883  16.766  0.1797 -0.0638  0.0126
67469W        W10563  15.568   2.342  17.211 -0.2595  0.0438  0.1007
67470W        W10564  17.382   1.091  17.715  0.0698 -0.3360 -0.1564
67471W        W10565  16.156   2.088  19.699  0.1940  0.0240 -0.2459
67472W        W10566  15.018   2.729  19.219 -0.0241 -0.0565 -0.2861
67473W        W10567  13.948   2.487  16.020 -0.2281  0.1649 -0.0412
67474W        W10568  16.698   3.290  19.499 -0.1796  0.0144 -0.2870
67475W        W10569  14.793   1.432  18.998 -0.5021  0.1976  0.1979
67476W        W10570  15.291   0.909  18.518  0.2409  0.2249 -0.2231
67477W        W10571  16.820   1.696  17.827  0.1848 -0.0394 -0.0084
67478W        W10572  15.367   2.766  15.876  0.1272 -0.0932 -0.0994
67479W        W10573  16.197   2.904  17.577 -0.1795 -0.1714  0.3927
67480W        W10574  13.757   1.191  18.830  0.2588  0.1145  0.0571
67481W        W10575  12.410   2.848  18.254  0.2945  0.2814 -0.1634
67482W        W10576  16.256   1.890  18.465  0.3654  0.1788 -0.4098
67483W        W10577  15.096   2.356  16.393 -0.1958 -0.0687  0.1090
67484W        W10578  16.784   2.222  17.736 -0.0007 -0.0975  0.1684
67485W        W10579  15.637   0.707  15.497  0.2693  0.0477  0.1371
67486W        W10580  17.933   0.183  17.011 -0.1447 -0.2096  0.0720
67487W        W10581  16.991   0.684  17.931 -0.2436 -0.0305 -0.4256
67488W        W10582  14.907   2.100  17.421  0.0382 -0.0250  0.1005
67489W        W10583  15.611  33.825  17.695 -0.0275  0.0164 -0.1440
67490W        W10584  17.743   1.920  18.705 -0.1081 -0.1049 -0.1028
67491W        W10585  15.542   1.045  16.892 -0.0163  0.1963  0.0286
67492W        W10586  15.608   2.524  18.750 -0.0407 -0.1340  0.2847
67493W        W10587  15.019   1.212  18.161  0.0612 -0.2813 -0.0602
67494W        W10588  12.961   1.040  17.150  0.1268  0.2254  0.1276
67495W        W10589  17.570   2.282  16.504  0.1177 -0.0051  0.0799
67496W        W10590  18.167   2.702  19.446  0.2039  0.0650 -0.0205
67497W        W10591  17.995   1.865  16.567  0.0049  0.0660 -0.0186
67498W        W10592  14.382  34.446  16.020  0.1762  0.0563 -0.2170
67499W        W10593  13.415   1.544  17.744  0.3247  0.2414 -0.3673
67500W        W10594  14.235   1.775  18.131 -0.0430 -0.1726 -0.0620
67501W        W10595  15.775  34.042  16.300  0.0207 -0.2886 -0.0311
67502W        W10596  17.162   2.458  19.314 -0.0463 -0.3863 -0.0499
67503W        W10597  14.127   0.352  18.626  0.3348  0.0141 -0.0564
67504W        W10598  16.584  33.976  16.434 -0.2127 -0.1463 -0.1997
67505W        W10599  15.027  34.371  17.310 -0.0556  0.1205  0.0159
67506W        W10600  16.833   2.945  18.195 -0.1284  0.0873  0.0545
67507W        W10601  17.235   1.591  16.047  0.0820 -0.3860  0.1653
67508W        W10602  16.124   1.660  17.073  0.1625  0.0126  0.1743
67509W        W10603  17.966   1.413  18.612 -0.1435 -0.1097 -0.0292
67510W        W10604  15.376   2.851  16.451  0.1410 -0.2201 -0.1425
67511W        W10605  15.444   1.782  16.488  0.0741 -0.0824 -0.1097
67512W        W10606  17.878   2.598  18.806 -0.2352 -0.2920 -0.0780
67513W        W10607  17.575   0.997  16.855 -0.0507 -0.1413 -0.2260
67514W        W10608  14.923   0.552  16.933 -0.0468  0.1049 -0.3482
67515W        W10609  16.682  34.208  18.613  0.0992 -0.4368 -0.1546
67516W        W10610  14.963   1.212  19.534  0.0865  0.0838 -0.2838
67517W        W10611  15.217   4.271  16.604  0.0794  0.1197  0.1869
67518W        W10612  14.120   0.894  17.554 -0.1711 -0.1168 -0.3126
67519W        W10613  14.331   1.748  16.046 -0.0684  0.0192 -0.0561
67520W        W10614  14.870  34.342  18.629 -0.3012  0.0687 -0.0896
67521W        W10615  15.465   1.537  18.017  0.0826  0.0168 -0.1489
67522W        W10616  17.452  34.612  17.829  0.2020  0.2054 -0.1658
67523W        W10617  15.010   0.828  17.907 -0.0784  0.2348  0.2776
67524W        W10618  16.835  33.759  18.398  0.0680  0.1430  0.0725
67525W        W10619  15.179   2.450  16.917  0.3080 -0.3888  0.1075
67526W        W10620  16.015   4.381  17.775 -0.1510  0.1540 -0.1818
67527W        W10621  18.190   1.446  16.203  0.1163 -0.4512 -0.0705
67528W        W10622  18.157   1.686  17.771  0.0593  0.3082 -0.0687
67529W        W10623  14.147   1.299  17.964 -0.2744  0.4393 -0.0829
67530W        W10624  15.903   1.456  16.671 -0.0838 -0.1177 -0.0296
67531W        W10625  15.536   0.386  19.715 -0.1430  0.1263 -0.3011
67532W        W10626  14.285  34.593  18.249  0.1620  0.1093 -0.0280
67533W        W10627  17.804  34.214  19.657 -0.0661  0.2988  0.0752
67534W        W10628  15.671  34.590  15.239 -0.1715  0.4947  0.1089
67535W        W10629  17.572   1.222  17.277  0.2410 -0.1846  0.1295
67536W        W10630  14.230  34.455  16.583 -0.0226  0.3132 -0.0938
67537W        W10631  14.653   2.182  16.248  0.0350  0.2366 -0.1255
67538W        W10632  16.752   0.838  19.598 -0.3789  0.0670 -0.2207
67539W        W10633  14.289   2.482  16.432  0.5151 -0.1785 -0.0265
67540W        W10634  18.440   3.608  18.873  0.0233 -0.2606  0.4058
67541W        W10635  16.957   3.117  17.232 -0.4187 -0.0403  0.1584
67542W        W10636  16.137   0.399  18.461 -0.0637 -0.2512  0.0176
67543W        W10637  15.167   0.401  15.926  0.0828  0.0412 -0.2450
67544W        W10638  15.559   2.065  18.047 -0.1464  0.1743  0.2142
67545W        W10639  16.501   2.207  16.389  0.1502 -0.1389  0.2930
67546W        W10640  16.895   0.105  17.271  0.1590 -0.4314  0.0584
67547W        W10641  18.222   3.331  16.936  0.0110  0.1116  0.1328
67548W        W10642  15.554   0.562  17.525  0.2009  0.1721  0.4432
67549W        W10643  15.260   1.468  19.870  0.3234 -0.0387 -0.2245
67550W        W10644  17.442   0.833  20.097 -0.1240  0.1164  0.1491
67551W        W10645  17.334   2.130  18.335 -0.3194  0.0236  0.0861
67552W        W10646  17.350   1.670  18.090 -0.0105 -0.1605  0.2499
67553W        W10647  16.026   0.632  16.319  0.2268  0.1585 -0.1986
67554W        W10648  18.180   3.645  19.848  0.2041  0.2993 -0.0102
67555W        W10649  14.695   3.768  15.424  0.2633 -0.2365  0.0098
67556W        W10650  14.086  33.925  17.383  0.1543 -0.0390 -0.0583
67557W        W10651  16.028   2.620  17.220 -0.0436  0.0766 -0.1173
67558W        W10652  16.182   0.718  17.623  0.0792  0.2699  0.1094
67559W        W10653  13.418   1.788  20.124  0.2326 -0.0782 -0.0472
67560W        W10654  16.248   1.303  18.480  0.4124 -0.3758  0.0636
67561W        W10655  13.004   0.351  16.315 -0.1211 -0.2515  0.1265
67562W        W10656  15.016   2.164  19.252  0.0895  0.1422 -0.0464
67563W        W10657  16.980  34.338  17.991 -0.0435 -0.0163 -0.1515
67564W        W10658  17.397  34.462  16.304  0.1756 -0.0553  0.0843
67565W        W10659  16.089   1.290  20.164  0.5935  0.0824 -0.0837
67566W        W10660  18.726   1.601  16.894  0.0523  0.1377  0.1324
67567W        W10661  17.273   1.831  16.501 -0.2648 -0.1301 -0.0583
67568W        W10662  17.095   0.162  16.193 -0.0530 -0.1178  0.0707
67569W        W10663  14.666  34.504  19.147  0.3369  0.0640  0.0392
67570W        W10664  16.587   2.348  17.240  0.0255  0.1242  0.0468
67571W        W10665  15.986   2.134  17.278  0.0889 -0.2903  0.0507
67572W        W10666  17.125   0.814  17.409  0.1776  0.1652 -0.0230
67573W        W10667  17.481   2.002  16.933  0.1132 -0.2634  0.0147
67574W        W10668  14.412   1.045  18.374 -0.0177 -0.2991  0.1087
67575W        W10669  16.778   0.261  19.354  0.0344 -0.1758 -0.3072
67576W        W10670  16.469   2.924  17.130 -0.0412  0.1485  0.0104
67577W        W10671  15.984   1.713  17.826  0.0871  0.2261  0.1601
67578W        W10672  17.050   1.404  17.429  0.2956 -0.2220  0.2718
67579W        W10673  16.430  34.168  19.061 -0.2282  0.0935 -0.1645
67580W        W10674  13.726   3.095  15.223 -0.0637  0.1479 -0.0371
67581W        W10675  17.368  34.454  18.874  0.1354 -0.0166  0.3298
67582W        W10676  16.655  33.574  18.865  0.0369 -0.1206 -0.0767
67583W        W10677  15.425   0.528  18.113 -0.5346  0.1787 -0.0276
67584W        W10678  17.146   1.257  19.833 -0.2522  0.0316 -0.1063
67585W        W10679  18.431   0.423  16.968  0.1757  0.1991 -0.2771
67586W        W10680  15.342   1.435  18.587 -0.0469 -0.2743 -0.1127
67587W        W10681  15.262   1.301  16.288 -0.0513 -0.1089  0.0450
67588W        W10682  16.132  34.185  19.485  0.2985 -0.1815  0.0076
67589W        W10683  13.677   0.502  18.403  0.2016  0.1009 -0.2799
67590W        W10684  15.479   3.597  18.496 -0.4154 -0.2560  0.0582
67591W        W10685  15.806   0.847  19.740  0.2110 -0.0549  0.3331
67592W        W10686  16.872   1.958  16.228  0.0499 -0.0897 -0.2228
67593W        W10687  16.511   1.307  19.774  0.0146 -0.0723  0.1182
67594W        W10688  15.805   1.553  16.201 -0.2586 -0.1867  0.0498
67595W        W10689  15.657   1.887  17.492  0.0949  0.0428  0.0733
67596W        W10690  15.471   3.016  15.449 -0.1890  0.0114  0.1114
67597W        W10691  17.265  34.068  17.141  0.0933 -0.0967  0.1276
67598W        W10692  15.968   2.249  18.204 -0.3374 -0.2015 -0.1007
67599W        W10693  14.717   3.252  16.771 -0.1213 -0.1916 -0.2359
67600W        W10694  16.927   0.730  19.090  0.3388 -0.2383 -0.0222
67601W        W10695  15.590   2.757  16.943  0.0880  0.2184  0.0964
67602W        W10696  16.861   1.522  18.326 -0.0883 -0.1635 -0.1343
67603W        W10697  13.347   3.108  17.119 -0.1108 -0.0797 -0.0803
67604W        W10698  15.138   0.793  15.588 -0.0277 -0.0886  0.3026
67605W        W10699  13.085   1.097  16.256  0.1388 -0.0049 -0.0096
67606W        W10700  17.362  34.110  17.629  0.1801 -0.2770 -0.2220
67607W        W10701  18.608   0.833  16.591 -0.2697  0.0837  0.0097
67608W        W10702  14.544   0.988  17.913 -0.3509  0.1602 -0.0400
67609W        W10703  16.304   1.198  16.961  0.3595 -0.0861  0.1227
67610W        W10704  15.264   1.126  19.012  0.1609 -0.1160  0.2800
67611W        W10705  16.078   1.181  19.521 -0.1819 -0.1793  0.1590
67612W        W10706  16.822  34.154  16.942  0.4020 -0.0564  0.0620
67613W        W10707  15.815   1.231  18.832 -0.2770 -0.1563 -0.1624
67614W        W10708  14.906   0.598  18.345  0.2848 -0.2195  0.1311
67615W        W10709  13.436   1.257  16.646 -0.2429 -0.1911  0.1787
67616W        W10710  18.203   0.312  18.702 -0.0682 -0.1451  0.2138
67617W        W10711  16.208   1.127  16.365 -0.0896 -0.0950 -0.2726
67618W        W10712  13.752   2.507  16.539  0.1421 -0.0371 -0.2083
67619W        W10713  15.792   2.916  19.011 -0.4776 -0.0926 -0.3402
67620W        W10714  15.141   0.236  16.504 -0.4771  0.1928  0.1068
67621W        W10715  13.144   2.938  16.073 -0.0251  0.1583 -0.1727
67622W        W10716  14.425  34.174  18.801  0.0355  0.3248  0.1737
67623W        W10717  16.489   0.665  18.849 -0.3003  0.0417 -0.3369
67624W        W10718  15.769  34.243  16.896  0.1136 -0.0380 -0.0104
67625W        W10719  14.991  33.660  17.009  0.1271 -0.0796 -0.0080
67626W        W10720  15.547   0.080  17.036 -0.0385  0.2137 -0.1756
67627W        W10721  16.426   1.523  19.300  0.2143  0.0779 -0.0902
67628W        W10722  16.959  34.339  17.450 -0.0837 -0.1307  0.0992
67629W        W10723  15.663   0.007  18.801  0.1351 -0.1418  0.0213
67630W        W10724  15.923  32.972  18.922 -0.0263 -0.1266  0.0412
67631W        W10725  18.227   2.632  16.913  0.2900 -0.1439 -0.1460
67632W        W10726  15.836   1.720  18.379 -0.0699 -0.0067  0.0778
67633W        W10727  15.080   2.085  15.895  0.1763  0.1598  0.2634
67634W        W10728  14.255   1.332  17.021  0.2650  0.0210 -0.0944
67635W        W10729  14.831   2.768  16.574 -0.5530 -0.1699 -0.1137
67636W        W10730  16.184  34.470  18.112 -0.0684 -0.1294 -0.0493
67637W        W10731  14.524   1.910  17.666  0.1120  0.3715 -0.0378
67638W        W10732  14.907   1.682  16.207  0.2272 -0.1127  0.2292
67639W        W10733  15.589   1.652  18.999 -0.1688 -0.0364 -0.0203
67640W        W10734  16.779   0.591  17.089 -0.1675  0.0626  0.1259
67641W        W10735  15.564   2.234  16.578 -0.2584 -0.1056  0.0170
67642W        W10736  15.171   0.843  16.054  0.2119  0.4722 -0.0091
67643W        W10737  17.373   1.003  18.681 -0.3183  0.1290  0.2709
67644W        W10738  17.654   1.864  16.190 -0.0875 -0.1123 -0.1066
67645W        W10739  17.290  33.826  20.806  0.1140  0.2145 -0.3051
67646W        W10740  14.773  34.615  19.651  0.1722 -0.0217  0.2785
67647W        W10741  16.834   3.208  17.750  0.1157 -0.4523 -0.1219
67648W        W10742  14.542   0.682  18.755  0.0005  0.0641  0.0116
67649W        W10743  17.121   3.039  20.397 -0.0414  0.4102  0.4183
67650W        W10744  14.216   2.784  18.633  0.0229 -0.0672 -0.1803
67651W        W10745  16.911   0.666  16.214 -0.0057  0.0873 -0.0054
67652W        W10746  16.496   0.820  16.640  0.1410 -0.1555 -0.2719
67653W        W10747  13.739   2.759  17.674  0.4240 -0.0391  0.1956
67654W        W10748  17.879   1.735  17.262  0.2169 -0.0782 -0.2039
67655W        W10749  16.440   1.918  17.450 -0.1751  0.1538  0.1183
67656W        W10750  18.023   1.234  19.296 -0.0365  0.3011  0.2708
67657W        W10751  15.709   1.211  18.341  0.0791 -0.0179  0.3143
67658W        W10752  18.026   0.941  17.007  0.0044  0.1009  0.1517
67659W        W10753  16.319   1.689  16.288 -0.2442  0.2397  0.0349
67660W        W10754  13.630   0.854  17.424 -0.3436 -0.2306 -0.2076
67661W        W10755  15.844  34.571  20.929  0.0860 -0.0621  0.1048
67662W        W10756  17.441   1.488  18.650 -0.0484 -0.4077 -0.1848
67663W        W10757  17.646   2.161  17.399 -0.1182 -0.1296  0.0645
67664W        W10758  16.548  34.547  19.480  0.1981 -0.2076  0.1816
67665W        W10759  17.984   0.766  18.970 -0.1287 -0.2883  0.4338
67666W        W10760  15.282   0.192  18.445  0.0303 -0.1650 -0.1416
67667W        W10761  13.902  33.483  19.463  0.0731 -0.0462 -0.0168
67668W        W10762  17.551   3.465  18.467 -0.2104 -0.1465  0.2015
67669W        W10763  17.881   0.579  16.708 -0.1861 -0.2380  0.0161
67670W        W10764  18.005   1.318  19.796  0.0672 -0.3979  0.1735
67671W        W10765  17.067   0.745  16.690 -0.0683 -0.0374  0.0202
67672W        W10766  17.628   0.581  17.871  0.4299 -0.1514  0.1654
67673W        W10767  15.612   0.063  17.598  0.2673  0.0824 -0.1375
67674W        W10768  16.365   1.482  18.064  0.0642  0.2967  0.1172
67675W        W10769  15.973   0.916  15.939  0.0552 -0.4836 -0.1454
67676W        W10770  18.068   1.236  20.274 -0.4685  0.0308  0.2578
67677W        W10771  16.235   2.671  16.382 -0.2932 -0.0493  0.0669
67678W        W10772  17.215   1.239  18.222  0.0873  0.1564 -0.1756
67679W        W10773  17.463   1.723  17.573 -0.0933  0.2049  0.2832
67680W        W10774  13.543   0.287  17.983 -0.1964  0.1104  0.2028
67681W        W10775  12.955   3.505  18.667 -0.3124  0.0319 -0.0708
67682W        W10776  14.560  34.032  16.388  0.2048 -0.0075  0.2191
67683W        W10777  15.506   2.321  15.987 -0.0209 -0.2011 -0.1896
67684W        W10778  15.512   2.545  18.192 -0.0202  0.0684  0.0941
67685W        W10779  19.251   2.725  19.865 -0.0955  0.1375  0.0330
67686W        W10780  16.841   0.303  15.724 -0.0242 -0.1549 -0.0855
67687W        W10781  16.627   1.737  18.713 -0.2242  0.3716 -0.0589
67688W        W10782  14.147   3.304  15.458 -0.0012 -0.1251 -0.1624
67689W        W10783  17.262  34.004  18.534  0.1977 -0.2861  0.0108
67690W        W10784  14.974   3.179  19.096  0.4466 -0.0067  0.0712
67691W        W10785  13.295   1.544  18.291 -0.1111 -0.1191 -0.2455
67692W        W10786  16.214   3.159  16.251  0.0676  0.0769  0.0301
67693W        W10787  16.321  34.561  18.570 -0.0938 -0.1155  0.4448
67694W        W10788  15.938   2.098  18.811  0.0934  0.0016  0.0145
67695W        W10789  16.365   2.013  17.957  0.0805 -0.0374 -0.1588
67696W        W10790  15.079   1.849  18.827  0.0892  0.3182 -0.1235
67697W        W10791  15.635   0.516  18.567  0.3755 -0.2003  0.3455
67698W        W10792  15.402   0.557  17.030  0.0474 -0.3651 -0.2258
67699W        W10793  17.831   3.645  18.786 -0.1739 -0.1527  0.1828
67700W        W10794  17.738   0.785  17.429  0.0691  0.1398 -0.1302
67701W        W10795  16.007   2.416  16.760 -0.1171 -0.2189  0.2949
67702W        W10796  13.690   0.593  18.932  0.1443 -0.1019 -0.3297
67703W        W10797  15.612   1.186  20.187 -0.2210 -0.2220 -0.2095
67704W        W10798  17.012   2.009  17.316 -0.0549 -0.2562  0.0042
67705W        W10799  15.643  33.648  14.994  0.0620  0.0509  0.0687
67706W        W10800  16.529   2.478  16.772 -0.3471 -0.3281  0.0954
67707W        W10801  14.088   2.239  18.353  0.1086  0.1671 -0.0554
67708W        W10802  12.956   1.689  17.928  0.1028 -0.2765  0.0594
67709W        W10803  14.117   3.070  16.015 -0.1980 -0.0250  0.0943
67710W        W10804  17.350   2.682  16.039 -0.3055 -0.1565  0.0471
67711W        W10805  16.566   2.043  15.871 -0.1200 -0.2093 -0.1651
67712W        W10806  17.016   4.636  17.997  0.2643  0.0371  0.4634
67713W        W10807  16.905   1.185  17.867  0.0087 -0.2105  0.1231
67714W        W10808  14.989   2.364  18.383  0.0106 -0.1017 -0.3369
67715W        W10809  14.386   2.334  15.837  0.0811  0.3464 -0.0128
67716W        W10810  16.284   2.620  15.842  0.1931 -0.2037  0.0515
67717W        W10811  15.345   3.347  17.426  0.3372  0.1638 -0.0464
67718W        W10812  16.728   2.476  18.979 -0.0696  0.2304  0.0805
67719W        W10813  17.163  34.083  16.550  0.2071  0.1555 -0.2614
67720W        W10814  18.073   0.446  18.184  0.4297  0.0702  0.2108
67721W        W10815  16.692   1.044  17.372 -0.0817  0.2298  0.2087
67722W        W10816  16.175   2.509  18.577  0.0424 -0.2580 -0.0172
67723W        W10817  15.231  32.895  17.045 -0.0435  0.0966 -0.1507
67724W        W10818  16.780   0.281  16.579 -0.0521 -0.1038  0.1717
67725W        W10819  15.972   0.471  18.919 -0.3701 -0.2574 -0.2591
67726W        W10820  19.150   1.311  19.563  0.1510  0.0580 -0.0593
67727W        W10821  14.566   2.958  17.787 -0.0240  0.0674 -0.1492
67728W        W10822  17.142   1.659  15.568 -0.1728  0.2335  0.0335
67729W        W10823  14.516   0.349  16.862  0.1725 -0.4256 -0.1082
67730W        W10824  15.546   1.874  16.995 -0.1357 -0.0768 -0.1012
67731W        W10825  18.258  34.371  18.019 -0.0269  0.0862  0.1014
67732W        W10826  15.916   3.145  15.794  0.0634 -0.0367  0.3454
67733W        W10827  16.709   0.478  17.567  0.0603 -0.1394 -0.1044
67734W        W10828  14.476   3.764  16.378 -0.1502  0.0286  0.1673
67735W        W10829  15.814   2.896  18.406 -0.1571 -0.2552  0.3682
67736W        W10830  15.418   3.896  17.419  0.2563 -0.1654 -0.0359
67737W        W10831  15.262  34.181  16.407  0.0851  0.3392 -0.4375
67738W        W10832  20.609  34.674  18.648  0.0737 -0.0002  0.4849
67739W        W10833  14.314   0.248  19.373  0.1374 -0.1633  0.0310
67740W        W10834  18.042  34.655  19.649  0.4082  0.2434 -0.1340
67741W        W10835  14.209   0.299  17.268  0.1433  0.2859  0.0658
67742W        W10836  16.623   1.596  17.046 -0.2041 -0.0724 -0.0109
67743W        W10837  15.200   1.417  20.618  0.1443 -0.1060  0.1506
67744W        W10838  14.237   0.012  18.961  0.2421 -0.0171  0.0017
67745W        W10839  16.864   1.120  15.837 -0.0413 -0.0573  0.0961
67746W        W10840  16.400   2.023  19.093  0.1048  0.2169  0.1104
67747W        W10841  17.217   1.232  16.524 -0.2253 -0.2257 -0.1346
67748W        W10842  16.628   2.873  19.266 -0.1627 -0.1824  0.0241
67749W        W10843  16.009  34.594  17.149  0.0922  0.3536  0.0021
67750W        W10844  16.725   1.160  16.365 -0.0468 -0.1122  0.0505
67751W        W10845  14.510   0.756  17.204  0.1037 -0.2418  0.1366
67752W        W10846  14.333   0.674  19.535  0.0720 -0.0914  0.3459
67753W        W10847  18.481   5.311  19.272  0.1133 -0.2335  0.0906
67754W        W10848  15.430  33.889  16.798 -0.0261 -0.1621  0.5440
67755W        W10849  17.697   2.541  17.835  0.0452  0.0921  0.1786
67756W        W10850  17.788   1.354  17.799 -0.1021  0.0440  0.5184
67757W        W10851  14.895   4.054  16.240  0.0980  0.2419  0.0680
67758W        W10852  17.691   2.971  18.134 -0.2874 -0.1714 -0.1042
67759W        W10853  16.772   2.891  18.740  0.0599 -0.2658  0.2519
67760W        W10854  14.859   1.241  17.643  0.1199 -0.1749 -0.2346
67761W        W10855  16.979   2.489  18.532  0.2461 -0.1279 -0.2377
67762W        W10856  18.038   2.721  18.358 -0.0755 -0.0235 -0.3402
67763W        W10857  16.010   0.877  16.731  0.1610  0.1334 -0.1645
67764W        W10858  15.301  34.404  16.865  0.0884  0.0804  0.2616
67765W        W10859  14.133   3.408  16.369 -0.0659 -0.0458  0.0753
67766W        W10860  18.408   0.404  19.744 -0.2209 -0.4294 -0.0312
67767W        W10861  15.970   1.203  17.844 -0.0713  0.0401 -0.2470
67768W        W10862  15.497   4.080  15.592  0.0551  0.0132  0.0662
67769W        W10863  17.205  34.422  19.418 -0.2330  0.0453  0.3918
67770W        W10864  15.444   1.010  17.895 -0.0611 -0.4157 -0.0333
67771W        W10865  14.648   1.916  19.051  0.0783 -0.1196  0.2011
67772W        W10866  14.278   1.424  16.432 -0.3104  0.2269 -0.1091
67773W        W10867  15.003   0.560  18.833 -0.0283  0.1060 -0.2636
67774W        W10868  15.272   1.537  17.504  0.1806 -0.1332  0.1007
67775W        W10869  15.645   3.270  16.296 -0.0235  0.1343 -0.3829
67776W        W10870  17.278   2.935  17.734 -0.0482  0.5696  0.1655
67777W        W10871  16.787   1.588  16.557  0.0493 -0.2776 -0.1733
67778W        W10872  19.165   1.787  17.668  0.3635  0.2639 -0.2068
67779W        W10873  16.324  34.315  16.803  0.2421  0.0933 -0.1272
67780W        W10874  17.748  34.239  17.911 -0.0135 -0.1918  0.3627
67781W        W10875  15.659  33.818  15.866 -0.1133  0.2053 -0.1820
67782W        W10876  14.594   1.486  18.035 -0.1533 -0.2289  0.0109
67783W        W10877  12.581   0.389  15.994  0.0111 -0.0341  0.2738
67784W        W10878  14.970   2.838  15.439  0.0424 -0.0855  0.1189
67785W        W10879  15.944   1.944  16.520  0.0009 -0.1643 -0.1432
67786W        W10880  15.465  33.192  18.922  0.0232 -0.0359 -0.0620
67787W        W10881  13.469   1.522  19.379  0.1703 -0.1809 -0.2144
67788W        W10882  15.670   1.448  17.214  0.0364  0.1263  0.3504
67789W        W10883  15.465  33.643  16.358 -0.1428  0.0860  0.1919
67790W        W10884  19.449   0.533  17.859  0.3365 -0.2340  0.0855
67791W        W10885  15.300  33.384  17.347  0.2073  0.1791 -0.4097
67792W        W10886  13.880  34.094  18.298  0.0454 -0.2571  0.0215
67793W        W10887  16.791   2.716  17.544 -0.1523  0.1983  0.1891
67794W        W10888  18.519   1.782  16.511 -0.0296 -0.1686 -0.2357
67795W        W10889  17.154   1.534  16.977  0.1552 -0.0797 -0.0739
67796W        W10890  17.428   2.860  18.987  0.0129 -0.5254  0.0680
67797W        W10891  14.733   1.730  15.740  0.0168 -0.2420  0.2470
67798W        W10892  15.535  34.614  19.348 -0.0857  0.1144 -0.1527
67799W        W10893  15.308  34.430  20.992 -0.0472 -0.0013  0.1256
67800W        W10894  14.862  34.441  15.696  0.0683  0.4730 -0.3535
67801W        W10895  16.036   0.871  18.617 -0.3437 -0.0461  0.0212
67802W        W10896  16.564  34.178  17.774  0.1676  0.0817 -0.3110
67803W        W10897  16.678   1.555  15.941  0.0605 -0.1341  0.0775
67804W        W10898  15.190   0.795  19.404  0.1496 -0.1037  0.2443
67805W        W10899  14.191   3.069  18.185  0.0588 -0.1300  0.2849
67806W        W10900  15.154  33.575  18.723  0.2241  0.0826 -0.1209
67807W        W10901  16.855   2.026  16.818  0.1561 -0.0152 -0.1101
67808W        W10902  14.837   1.111  18.652  0.0297  0.1106 -0.2313
67809W        W10903  17.937   2.711  16.537  0.0923  0.0258 -0.2657
67810W        W10904  18.293  34.138  19.549 -0.3091 -0.0850  0.0291
67811W        W10905  17.697   1.547  16.812  0.2316 -0.0927  0.1645
67812W        W10906  16.193  34.036  20.359  0.0653 -0.2098 -0.1421
67813W        W10907  16.234   0.375  16.760  0.0540  0.1363 -0.0838
67814W        W10908  16.259   2.644  19.036  0.0573 -0.1245  0.3933
67815W        W10909  16.495   0.347  16.225 -0.1425 -0.0671  0.4089
67816W        W10910  16.373   1.442  17.512  0.1189  0.1697 -0.0240
67817W        W10911  16.271   3.477  15.865  0.2221  0.1449 -0.1875
67818W        W10912  14.381   1.140  18.914  0.0954 -0.0807  0.1287
67819W        W10913  16.563   0.051  16.926  0.3293 -0.0124 -0.1982
67820W        W10914  15.497   0.451  19.060 -0.1165  0.3144 -0.2350
67821W        W10915  15.451   2.087  18.540  0.0247  0.1810 -0.2139
67822W        W10916  15.371   1.956  19.537  0.1035 -0.1333 -0.0195
67823W        W10917  15.641   0.363  16.580 -0.2138  0.2551 -0.0391
67824W        W10918  18.536   0.987  17.066 -0.1936  0.0346 -0.0205
67825W        W10919  18.302   4.065  18.721  0.0136 -0.3740  0.2882
67826W        W10920  18.461   2.974  18.317 -0.0663 -0.1058  0.1830
67827W        W10921  14.689   3.267  18.154  0.0261  0.0712 -0.3545
67828W        W10922  18.169   2.100  17.410 -0.3306 -0.0374  0.2998
67829W        W10923  14.375   0.495  17.729  0.3240 -0.3259  0.4959
67830W        W10924  14.608   2.283  16.828 -0.1184  0.1900  0.0735
67831W        W10925  15.237   1.487  16.855  0.0838 -0.1778  0.1032
67832W        W10926  17.720   1.100  18.300 -0.0804 -0.0133 -0.1694
67833W        W10927  15.278  33.354  16.818 -0.0424  0.4654  0.2400
67834W        W10928  16.693  33.872  17.357  0.0298  0.0091  0.2723
67835W        W10929  15.881   3.453  18.110 -0.0150  0.1050 -0.3797
67836W        W10930  17.235   2.078  17.813 -0.0763  0.0740  0.1260
67837W        W10931  14.927   1.560  22.799 -0.1087  0.2396 -0.2805
67838W        W10932  15.278  34.337  19.959 -0.1467 -0.2246  0.0902
67839W        W10933  17.565   1.403  19.524 -0.4051 -0.4072  0.1095
67840W        W10934  16.557   2.355  19.469 -0.1585  0.0498 -0.2966
67841W        W10935  14.451  34.596  20.141  0.2135  0.5063 -0.0499
67842W        W10936  15.935   2.219  20.180  0.0987 -0.0864 -0.3169
67843W        W10937  15.363  33.636  22.433  0.0392 -0.4411 -0.0476
67844W        W10938  18.316   2.588  20.688 -0.2449 -0.4313 -0.0414
67845W        W10939  17.426   2.722  21.317  0.0652 -0.1231 -0.2840
67846W        W10940  15.454   1.316  21.013  0.0238  0.4002 -0.3866
67847W        W10941  15.563   0.743  22.232 -0.1831  0.0404  0.2430
67848W        W10942  16.302   2.397  22.491 -0.0425 -0.4376 -0.1944
67849W        W10943  14.861   0.448  20.769  0.1806 -0.0083 -0.1459
67850W        W10944  14.846  33.275  20.515  0.0523 -0.0794 -0.0436
67851W        W10945  15.998   1.284  21.479  0.3774  0.1100  0.1935
67852W        W10946  14.816   1.339  21.891 -0.2465 -0.3281  0.1396
67853W        W10947  15.750   0.986  22.810  0.0228  0.1101  0.1848
67854W        W10948  14.919   1.276  20.986  0.0557 -0.2955  0.1114
67855W        W10949  15.758   2.864  21.770  0.0624  0.3325 -0.0869
67856W        W10950  15.445   0.088  22.363  0.1549 -0.0350 -0.0220
67857W        W10951  16.277   0.041  22.887 -0.0535  0.2039 -0.1243
67858W        W10952  15.928   1.512  21.039  0.3116 -0.0636  0.1434
67859W        W10953  14.054   3.051  19.033  0.0485  0.0504  0.0089
67860W        W10954  14.551  34.623  22.763  0.3225  0.1157  0.1774
67861W        W10955  15.860   0.802  23.414  0.0277 -0.1644  0.2524
67862W        W10956  17.087   0.077  20.154  0.2828  0.0599 -0.0258
67863W        W10957  17.975   1.352  20.823  0.1539 -0.1574 -0.0683
67864W        W10958  16.598   3.106  20.107 -0.0748 -0.0306  0.1304
67865W        W10959  17.556   3.138  22.197 -0.2489 -0.1315 -0.0067
67866W        W10960  17.043   0.588  23.044  0.1003 -0.0428  0.2184
67867W        W10961  14.459   3.242  21.453  0.1552 -0.1613 -0.0944
67868W        W10962  13.318   3.614  20.233 -0.0007  0.0941 -0.1556
67869W        W10963  15.847   2.953  21.268  0.2114 -0.1563 -0.0926
67870W        W10964  16.516   2.465  20.869  0.0444 -0.1555  0.1875
67871W        W10965  16.887   1.786  21.468  0.1109 -0.0330 -0.1018
67872W        W10966  15.738   2.776  23.037  0.0530  0.1207 -0.1084
67873W        W10967  14.581   1.658  18.522  0.2140  0.0496  0.0391
67874W        W10968  15.836   3.422  22.929 -0.1937  0.0334  0.3607
67875W        W10969  16.131   2.988  23.958 -0.1573  0.0899 -0.0757
67876W        W10970  15.711   1.931  22.901 -0.0753 -0.0713  0.1711
67877W        W10971  16.170   1.290  20.652 -0.0921  0.1067  0.0242
67878W        W10972  15.694   2.326  19.753  0.1187 -0.0133 -0.0719
67879W        W10973  15.332   2.238  21.105 -0.1547  0.1470 -0.0082
67880W        W10974  13.968   2.502  23.795 -0.1761  0.1083 -0.1177
67881W        W10975  15.696   2.327  21.848 -0.3640  0.0229 -0.0114
67882W        W10976  18.453   0.150  23.387 -0.2303  0.0505 -0.1789
67883W        W10977  14.460   3.295  18.644  0.0751  0.1352  0.1573
67884W        W10978  15.916   0.717  18.106 -0.0690  0.0816  0.1325
67885W        W10979  14.565  33.677  18.669  0.0608  0.0437  0.1132
67886W        W10980  18.373   0.621  20.310 -0.1399  0.1673 -0.1011
67887W        W10981  16.011  33.446  21.783 -0.0682  0.0749  0.0660
67888W        W10982  15.516   3.557  22.393  0.0374 -0.0458 -0.0550
67889W        W10983  14.585   1.398  22.375  0.0535 -0.0103  0.0097
67890W        W10984  17.276   2.402  22.973  0.2698  0.0659 -0.0716
67891W        W10985  14.911   1.833  20.423  0.2668 -0.1596  0.0564
67892W        W10986  17.616   1.287  21.153 -0.1185 -0.0842  0.0176
67893W        W10987  14.816   2.314  22.562  0.0028  0.1116 -0.2177
67894W        W10988  13.951   0.734  20.647 -0.2535  0.0693  0.0535
67895W        W10989  17.004   3.676  19.377  0.3588 -0.1876 -0.0416
67896W        W10990  18.286   2.740  20.212 -0.1527 -0.1313  0.0565
67897W        W10991  16.085   2.714  19.473 -0.1870 -0.0884  0.2341
67898W        W10992  14.219   1.965  18.733 -0.1447  0.3212 -0.1242
67899W        W10993  12.792   2.822  24.632  0.2537  0.1758  0.2391
67900W        W10994  14.683   1.072  22.812 -0.0634 -0.2028  0.0728
67901W        W10995  15.676  34.611  19.922 -0.2085 -0.1390 -0.2165
67902W        W10996  17.532   0.172  21.744 -0.1451  0.1460 -0.0999
67903W        W10997  14.745   3.555  22.016  0.2429  0.3386  0.1497
67904W        W10998  17.124   0.586  21.727  0.0599  0.0347 -0.1581
67905W        W10999  13.694   1.685  20.942  0.0999  0.0918 -0.3176
67906W        W11000  16.563   2.214  21.312  0.0691 -0.0170 -0.3349
67907W        W11001  16.966   1.355  19.402 -0.0792 -0.1686  0.0074
67908W        W11002  16.490  33.593  21.142  0.0186 -0.0413 -0.1129
67909W        W11003  16.503  34.643  21.493  0.0837  0.0365 -0.1171
67910W        W11004  15.702   0.875  19.153  0.1560 -0.2764 -0.0220
67911W        W11005  14.586   2.145  21.151 -0.0282 -0.2042 -0.3580
67912W        W11006  16.892   0.987  21.997 -0.2765  0.2302  0.0639
67913W        W11007  17.656   2.154  19.980  0.1965  0.2945  0.0264
67914W        W11008  15.336   2.409  22.747  0.1506 -0.0712  0.1382
67915W        W11009  15.344   0.679  23.615  0.1413  0.0249 -0.0606
67916W        W11010  16.089   3.499  23.879 -0.3749 -0.1898  0.0361
67917W        W11011  14.738   4.697  20.465  0.0171 -0.0029 -0.0093
67918W        W11012  12.924   2.919  22.492 -0.1965  0.2801 -0.0664
67919W        W11013  13.430   1.990  19.155  0.1348  0.1372 -0.0210
67920W        W11014  15.294   0.572  22.637  0.2941  0.1302  0.0553
67921W        W11015  14.994   2.220  22.030  0.3265  0.0805  0.1981
67922W        W11016  18.313  34.367  20.516 -0.1206 -0.0004 -0.0569
67923W        W11017  15.078   0.557  21.983  0.1907  0.0927  0.3434
67924W        W11018  18.842   0.561  20.092  0.0443 -0.0096  0.0706
67925W        W11019  14.779   1.456  19.945  0.1016  0.1508 -0.0857
67926W        W11020  19.065   3.326  20.360  0.1800 -0.2682  0.2171
67927W        W11021  15.773   1.023  20.651 -0.2132 -0.2677  0.0484
67928W        W11022  16.699   1.053  20.760  0.3153 -0.1761 -0.3608
67929W        W11023  14.528   2.420  23.168 -0.0778  0.0486 -0.1353
67930W        W11024  15.078   0.621  20.280  0.1333  0.0522  0.0368
67931W        W11025  14.277   0.063  23.615 -0.3668  0.0519 -0.0343
67932W        W11026  13.799   1.357  21.689 -0.1887 -0.0829 -0.1590
67933W        W11027  16.902   2.276  23.276  0.1813 -0.0871  0.1134
67934W        W11028  15.312  33.617  20.591 -0.2005 -0.0677 -0.1325
67935W        W11029  16.179   0.935  21.107  0.1482 -0.0564  0.2842
67936W        W11030  15.689   1.469  20.557 -0.1161 -0.1503  0.2717
67937W        W11031  14.340   1.779  21.368  0.0615  0.1542  0.0615
67938W        W11032  16.983  34.419  22.395 -0.2013 -0.3173  0.0574
67939W        W11033  16.906   2.678  20.145  0.4069 -0.4837  0.2260
67940W        W11034  18.663   1.596  22.378  0.2120  0.0420 -0.3610
67941W        W11035  17.342   2.688  20.010 -0.0298  0.0298  0.1019
67942W        W11036  15.200   2.784  21.823  0.3476 -0.0211  0.2534
67943W        W11037  14.403   1.143  19.442 -0.1077  0.0318 -0.1261
67944W        W11038  15.284   3.446  21.939  0.2059  0.1401 -0.0499
67945W        W11039  16.922   2.672  21.048  0.0510  0.4009  0.2375
67946W        W11040  15.125  33.748  19.863 -0.1537 -0.2492 -0.2605
67947W        W11041  17.364   4.065  22.052  0.0792 -0.1568  0.1888
67948W        W11042  16.020   1.998  22.142  0.1621  0.1894  0.4633
67949W        W11043  14.635   1.780  21.867 -0.1619  0.1218  0.1085
67950W        W11044  18.760   0.148  22.756  0.2288 -0.2640 -0.0169
67951W        W11045  16.658   1.251  22.465  0.4104  0.1543 -0.1565
67952W        W11046  18.081   1.485  21.402 -0.0287 -0.0088  0.2254
67953W        W11047  15.126  34.208  20.421  0.0252  0.1249 -0.2758
67954W        W11048  18.342   2.144  20.167  0.3038 -0.0767 -0.3241
67955W        W11049  14.539   2.930  19.133  0.0780 -0.0170  0.0823
67956W        W11050  14.078   2.644  22.371  0.4191 -0.2776  0.2223
67957W        W11051  15.070   3.339  22.376  0.0281 -0.0490  0.1756
67958W        W11052  16.340   0.310  22.420  0.0281  0.0298  0.0353
67959W        W11053  12.824   1.792  23.497 -0.0642 -0.1929 -0.1606
67960W        W11054  15.773   1.716  22.448 -0.1867 -0.0144  0.2533
67961W        W11055  14.776   0.395  19.263 -0.0709 -0.0513 -0.1435
67962W        W11056  14.242   3.265  23.020  0.0921 -0.2688 -0.5470
67963W        W11057  15.493  33.670  21.089 -0.3388 -0.1037  0.1828
67964W        W11058  18.167  32.998  19.419  0.1293 -0.3613  0.1075
67965W        W11059  17.026   0.877  22.647  0.2980 -0.1255  0.2331
67966W        W11060  17.673   1.710  20.588 -0.0699  0.2186  0.1382
67967W        W11061  16.378   0.329  19.666  0.0872  0.0981 -0.2365
67968W        W11062  16.079   1.646  18.903 -0.1503  0.1059  0.2402
67969W        W11063  14.219   1.735  23.574 -0.0287  0.0002  0.2082
67970W        W11064  15.953   2.315  20.645  0.0391  0.0106  0.1309
67971W        W11065  14.480   2.200  22.138 -0.0532 -0.0772  0.1270
67972W        W11066  14.697   0.147  18.779 -0.0378  0.1812  0.0884
67973W        W11067  16.817   1.528  20.074  0.0450  0.3829 -0.2063
67974W        W11068  14.145   3.098  21.048  0.0487  0.0068 -0.1453
67975W        W11069  16.330   1.689  21.361  0.3671 -0.0422  0.0563
67976W        W11070  14.768   2.309  20.231 -0.0950  0.1525 -0.5114
67977W        W11071  18.287   0.530  21.482  0.2327 -0.0489  0.0353
67978W        W11072  16.496   2.313  20.015 -0.2724 -0.0798 -0.2612
67979W        W11073  16.581   0.536  20.243  0.0122  0.0951 -0.0017
67980W        W11074  13.659   1.388  19.907  0.0134 -0.2547 -0.1406
67981W        W11075  17.569  34.038  21.775 -0.0426  0.1437  0.1500
67982W        W11076  16.313   0.471  21.303 -0.2783 -0.1888 -0.0483
67983W        W11077  16.280   1.987  22.703 -0.3601  0.1971  0.1767
67984W        W11078  18.492   0.878  22.825  0.1614  0.2786 -0.0597
67985W        W11079  17.350   2.170  20.377  0.1074 -0.2552 -0.2080
67986W        W11080  16.644   1.315  21.541 -0.1469 -0.2507 -0.0991
67987W        W11081  13.674   2.754  18.725 -0.3408  0.2010 -0.0176
67988W        W11082  16.419  34.418  20.666 -0.1100 -0.0068  0.0741
67989W        W11083  14.248   2.123  23.963 -0.0034  0.2266 -0.1191
67990W        W11084  14.536   3.933  22.235  0.1738  0.1120  0.1050
67991W        W11085  17.141   1.842  23.933  0.0109 -0.1189 -0.0136
67992W        W11086  17.010   2.561  21.614  0.2498 -0.0928 -0.0483
67993W        W11087  16.204   0.915  22.519 -0.2686 -0.0542  0.4038
67994W        W11088  15.428   0.213  20.211  0.2599 -0.0599  0.0730
67995W        W11089  15.844   3.872  21.025 -0.0805 -0.2208 -0.1491
67996W        W11090  15.779   3.332  21.925  0.0329  0.0576 -0.3390
67997W        W11091  13.692  34.590  21.365  0.0808  0.2789 -0.2318
67998W        W11092  15.948   3.317  22.407  0.0096  0.1593 -0.1823
67999W        W11093  14.306   1.978  19.632 -0.2197  0.0612 -0.1776
68000W        W11094  17.629   0.657  21.694 -0.4274 -0.1931 -0.1091
68001W        W11095  15.261   2.198  20.043 -0.0610  0.1324 -0.2281
68002W        W11096  17.080   0.049  21.501 -0.1811 -0.1280  0.0987
68003W        W11097  14.462   2.106  20.643 -0.1223  0.0008 -0.0502
68004W        W11098  13.991   1.907  19.226  0.2694  0.1201 -0.4982
68005W        W11099  14.549   2.216  21.629  0.1939 -0.1290 -0.0174
68006W        W11100  17.108   0.308  20.839  0.0446 -0.3153 -0.2193
68007W        W11101  18.482   1.243  20.962  0.1450  0.0830  0.1553
68008W        W11102  14.793   0.751  21.667  0.1513  0.0127  0.3304
68009W        W11103  17.543   1.131  20.554 -0.1933  0.0923 -0.0971
68010W        W11104  14.480   3.548  21.024  0.0364  0.3223  0.4138
68011W        W11105  16.223   1.818  23.157  0.0708 -0.0907 -0.2502
68012W        W11106  16.210   0.780  20.538  0.1727 -0.2490  0.1918
68013W        W11107  15.904   2.350  21.174  0.2107 -0.1809 -0.0744
68014W        W11108  16.957   1.505  23.036  0.1822  0.2982  0.1254
68015W        W11109  14.743  34.149  20.106 -0.1344 -0.0673  0.0093
68016W        W11110  16.191   1.094  23.149 -0.3872  0.2519 -0.1410
68017W        W11111  14.157   1.721  20.564 -0.1042 -0.2216 -0.0863
68018W        W11112  15.013   2.979  21.344  0.2694 -0.1308 -0.1799
68019W        W11113  16.656   2.893  22.406 -0.1902  0.1024  0.2079
68020W        W11114  13.787   0.586  19.435 -0.0932 -0.2340  0.1551
68021W        W11115  14.642   1.413  20.448 -0.2452  0.0414 -0.0502
68022W        W11116  14.381   0.105  24.474  0.0739  0.2282 -0.1982
68023W        W11117  15.457   0.826  21.096  0.0015  0.1838 -0.0803
68024W        W11118  15.259   1.034  21.927  0.1274  0.0232 -0.2585
68025W        W11119  14.156   0.780  20.163 -0.1085 -0.1431  0.1092
68026W        W11120  14.694   0.846  21.156  0.1679  0.4857 -0.2180
68027W        W11121  17.799   2.497  20.332 -0.0952 -0.1468 -0.3374
68028W        W11122  16.334   0.905  21.597  0.1667 -0.1626  0.0749
68029W        W11123  14.514   2.695  23.611  0.2063 -0.4015 -0.0627
68030W        W11124  14.806   0.184  21.765  0.1516 -0.2084  0.0197
68031W        W11125  19.594   3.426  20.281 -0.1262  0.1117 -0.2026
68032W        W11126  16.235   1.559  22.292  0.0397 -0.2070  0.1449
68033W        W11127  13.261   1.427  18.793 -0.3072 -0.2087 -0.1039
68034W        W11128  14.202   2.512  21.858  0.0116  0.1933  0.3493
68035W        W11129  14.276   2.727  19.561 -0.1445  0.0997 -0.1271
68036W        W11130  16.217   0.517  21.901  0.0337  0.0967  0.2528
68037W        W11131  14.729   2.631  21.916  0.1637  0.2017  0.3423
68038W        W11132  14.036   2.024  20.967  0.0265  0.2304 -0.0605
68039W        W11133  14.104   3.889  21.186 -0.6348  0.0921  0.2022
68040W        W11134  17.638  33.234  21.076 -0.2716 -0.0520  0.0316
68041W        W11135  14.304   1.554  19.122  0.3388  0.0640 -0.2120
68042W        W11136  14.641   1.697  20.881  0.1229 -0.2115 -0.0350
68043W        W11137  18.023  33.739  21.616 -0.1843  0.1313  0.0140
68044W        W11138  17.930   2.199  22.242  0.0256  0.3900  0.1186
68045W        W11139  16.073   1.166  23.665 -0.3650 -0.0167  0.0470
68046W        W11140  14.463   1.367  23.756  0.0328 -0.4081  0.0544
68047W        W11141  15.451   2.328  20.598 -0.1379 -0.0193 -0.0226
68048W        W11142  15.218   1.012  22.814  0.1047 -0.2193 -0.0602
68049W        W11143  16.485   3.621  23.129  0.0487  0.0480  0.0763
68050W        W11144  13.332   2.052  22.301  0.2437  0.0270  0.1141
68051W        W11145  15.757   0.665  20.256 -0.0196 -0.2455  0.1864
68052W        W11146  15.691  32.622  20.724  0.0766 -0.0913  0.0626
68053W        W11147  17.225   1.326  21.770  0.1806  0.0199  0.3431
68054W        W11148  16.150   2.703  22.122 -0.5703 -0.0364  0.3286
68055W        W11149  16.972   1.387  21.127 -0.2743 -0.0784 -0.0073
68056W        W11150  17.683   0.402  22.235 -0.4286 -0.1910  0.1097
68057W        W11151  15.743   1.343  23.351 -0.1311 -0.0501 -0.0041
68058W        W11152  15.392   1.643  21.468 -0.0268 -0.2384 -0.1029
68059W        W11153  16.273   1.930  20.928  0.0296  0.1116 -0.2568
68060W        W11154  16.210   0.781  19.260  0.3191 -0.0741  0.0812
68061W        W11155  15.760   0.370  21.933  0.1573  0.4475 -0.0444
68062W        W11156  16.754   1.479  21.975  0.0021 -0.2528  0.1542
68063W        W11157  18.246  33.781  20.539 -0.0882 -0.0664  0.1771
68064W        W11158  17.962   0.060  21.466 -0.3668 -0.2699 -0.2010
68065W        W11159  15.957  34.091  21.771 -0.0917  0.2953  0.0628
68066W        W11160  15.099   2.642  24.044  0.3044 -0.2671 -0.2696
68067W        W11161  13.970   0.516  22.804 -0.3403  0.3305 -0.0449
68068W        W11162  17.989   4.080  22.747  0.1014  0.0238  0.1338
68069W        W11163  16.408   1.786  20.043  0.0703  0.0947 -0.0144
68070W        W11164  16.572   0.412  24.029  0.3897 -0.1670 -0.1192
68071W        W11165  17.258   0.818  19.611  0.1218 -0.0242 -0.1726
68072W        W11166  15.945   0.380  19.466 -0.3542 -0.2374  0.0750
68073W        W11167  14.676   0.890  20.644  0.0899 -0.0635  0.4211
68074W        W11168  16.886   0.562  23.500 -0.3196  0.1127 -0.1755
68075W        W11169  14.905  33.663  19.424  0.2584  0.0935 -0.1553
68076W        W11170  17.878  33.550  22.049 -0.3322  0.2515  0.0080
68077W        W11171  16.049   1.770  20.394  0.0681 -0.2572  0.0708
68078W        W11172  16.576   2.507  21.973 -0.0199 -0.3592  0.1933
68079W        W11173  17.201   1.836  20.704  0.0324  0.1013 -0.3822
68080W        W11174  14.412   0.470  21.357 -0.2508 -0.0458 -0.2999
68081W        W11175  14.522   2.666  22.682  0.3250 -0.1442 -0.2176
68082W        W11176  15.271   0.106  17.945  0.0286  0.0024  0.2382
68083W        W11177  14.590   1.058  20.061 -0.0906  0.1325  0.5079
68084W        W11178  17.074   2.708  22.251 -0.2848  0.0547  0.1524
68085W        W11179  17.579   1.608  23.170  0.0781  0.2121 -0.1331
68086W        W11180  16.107  34.404  21.344 -0.0459  0.2171  0.1713
68087W        W11181  18.549   0.864  22.333 -0.2712 -0.0040 -0.4379
68088W        W11182  15.715   1.935  20.837  0.0644  0.1006  0.2264
68089W        W11183  16.541   1.601  20.491  0.2392 -0.1801  0.0271
68090W        W11184  12.614   2.616  22.180  0.1304  0.1304  0.1792
68091W        W11185  13.208   2.697  22.917  0.0704  0.0003  0.0137
68092W        W11186  15.890   1.963  21.527  0.3184  0.0868 -0.1145
68093W        W11187  15.408   0.639  21.619 -0.5116 -0.1723  0.3014
68094W        W11188  15.447   0.499  20.690  0.2069 -0.1869 -0.2491
68095W        W11189  14.975   2.227  20.740 -0.0421 -0.0099  0.0174
68096W        W11190  17.366   1.301  22.824 -0.0499  0.1240  0.0513
68097W        W11191  16.359   2.203  23.425  0.1122 -0.0935 -0.0671
68098W        W11192  15.125   1.391  22.410  0.1857  0.1372 -0.0230
68099W        W11193  15.770   2.821  22.411 -0.1809  0.0160 -0.0744
68100W        W11194  18.041   2.124  20.598  0.1103 -0.2500  0.0611
68101W        W11195  14.487   2.678  21.431 -0.2996 -0.0510  0.3247
68102W        W11196  14.504   0.933  22.073 -0.0364 -0.2178 -0.1229
68103W        W11197  14.569   2.081  23.507  0.1619 -0.1800 -0.2299
68104W        W11198  15.761   2.242  22.585  0.0419  0.3929  0.0444
68105W        W11199  16.540   0.073  20.053  0.1533 -0.0058 -0.1866
68106W        W11200  16.389   1.192  18.980  0.1617  0.2318 -0.1962
68107W        W11201  14.870   1.802  22.316  0.2572 -0.0579 -0.0605
68108W        W11202  13.582   1.106  23.211  0.0560  0.2046 -0.0982
68109W        W11203  13.316   3.992  19.925  0.0802  0.3789  0.0089
68110W        W11204  16.646   1.856  19.603 -0.3758 -0.0830 -0.0298
68111W        W11205  16.264   1.565  21.811 -0.1602  0.1741 -0.1840
68112W        W11206  16.640   2.724  23.592  0.1649 -0.1763  0.2566
68113W        W11207  16.685   0.438  18.486 -0.4178  0.1976 -0.0585
68114W        W11208  15.447   2.730  20.074  0.1987  0.2271  0.1569
68115W        W11209  13.744   2.831  19.865 -0.0387  0.1720 -0.1701
68116W        W11210  16.959   2.746  19.653  0.0647  0.1614  0.0221
68117W        W11211  15.054   4.065  20.829  0.1350  0.1370 -0.2174
68118W        W11212  17.005   2.832  22.757  0.1022 -0.0629  0.1247
68119W        W11213  17.758   0.443  19.739  0.1948  0.0057 -0.2785
68120W        W11214  18.405   2.278  21.997 -0.1364 -0.0187 -0.2930
68121W        W11215  18.417  34.644  20.035 -0.1263 -0.0273  0.0163
68122W        W11216  16.653   4.722  22.978 -0.0601  0.0127 -0.2129
68123W        W11217  14.126   2.003  21.862 -0.1712 -0.3850 -0.0495
68124W        W11218  16.387  34.254  19.929  0.2741  0.1712  0.1425
68125W        W11219  15.389   1.703  23.281  0.0812 -0.0877  0.3726
68126W        W11220  16.652   0.265  23.107 -0.1162 -0.1181  0.2974
68127W        W11221  15.454   2.318  23.252 -0.2429 -0.1493 -0.0664
68128W        W11222  16.760   1.902  20.913 -0.0157 -0.1537  0.0236
68129W        W11223  14.791   0.905  19.148 -0.0438 -0.0179  0.2949
68130W        W11224  16.392   2.051  21.768  0.1773 -0.0684  0.0181
68131W        W11225  16.166  34.688  21.906 -0.1572 -0.1218  0.1949
68132W        W11226  15.579   2.548  19.290  0.0950  0.0544 -0.1304
68133W        W11227  16.786   0.319  21.233  0.0452 -0.2380 -0.0868
68134W        W11228  15.802   2.761  20.469 -0.0056 -0.1617  0.0070
68135W        W11229  15.642   2.690  20.929  0.0855 -0.0392 -0.1222
68136W        W11230  15.923   3.822  22.304  0.1814  0.2656  0.1371
68137W        W11231  13.780  34.264  20.915  0.0734  0.2956 -0.0193
68138W        W11232  18.789   0.602  20.652 -0.0002 -0.0938  0.1129
68139W        W11233  14.948   0.694  23.259  0.0084 -0.2028 -0.1203
68140W        W11234  18.092  34.663  22.564  0.2218  0.0223 -0.0153
68141W        W11235  14.565   0.350  19.834 -0.2163 -0.0397 -0.2743
68142W        W11236  16.676   0.388  21.752  0.0918  0.3102 -0.0856
68143W        W11237  15.480   1.449  22.813  0.1470 -0.1596  0.3984
68144W        W11238  13.014   1.787  22.640  0.0420  0.3162  0.2310
68145W        W11239  15.116   1.614  19.278  0.1980  0.0965  0.1327
68146W        W11240  16.775   0.541  22.281  0.0579 -0.2656  0.3192
68147W        W11241  15.311   3.133  20.944  0.0793  0.2917  0.1444
68148W        W11242  17.853   1.327  22.718 -0.1961 -0.1091  0.0273
68149W        W11243  14.582   1.346  21.297 -0.0346  0.0868  0.0081
68150W        W11244  17.048   1.387  20.537 -0.1509  0.1313  0.2932
68151W        W11245  15.882   0.486  20.966  0.1408  0.4083  0.0619
68152W        W11246  15.032   1.281  21.449 -0.0789  0.0326 -0.0362
68153W        W11247  17.108   3.184  22.345 -0.1231  0.2223  0.2469
68154W        W11248  13.680   0.031  20.297 -0.0446 -0.0640 -0.1473
68155W        W11249  16.360   3.730  19.513 -0.0668 -0.0133  0.0258
68156W        W11250  17.329   0.927  21.396 -0.1961 -0.0157 -0.0761
68157W        W11251  15.134   2.388  18.834 -0.0083  0.3178  0.2145
68158W        W11252  17.112   3.133  20.917 -0.2140 -0.2466 -0.3235
68159W        W11253  16.747   3.479  21.325  0.1804  0.3602  0.1597
68160W        W11254  13.456   1.061  21.937 -0.0920 -0.0354  0.1517
68161W        W11255  16.488   2.693  21.410  0.3511  0.3534  0.0965
68162W        W11256  16.697   2.898  20.608  0.1699 -0.0500  0.0980
68163W        W11257  15.927   0.211  21.517 -0.2074  0.1095 -0.1622
68164W        W11258  15.442   2.522  22.234  0.0497 -0.2233  0.1751
68165W        W11259  14.603   3.763  18.687  0.1552  0.0656  0.1977
68166W        W11260  16.553   1.346  23.373  0.0918 -0.4770 -0.0799
68167W        W11261  18.549   0.612  21.907  0.1758  0.2161  0.2022
68168W        W11262  15.904   3.270  20.215 -0.0511  0.1756  0.2345
68169W        W11263  16.829  34.265  21.584  0.1692  0.0399 -0.0871
68170W        W11264  16.650   2.526  24.137  0.0945  0.2786  0.0369
68171W        W11265  15.690   3.236  24.057  0.1073 -0.1623 -0.2587
68172W        W11266  14.084   0.328  19.830 -0.0728  0.0936 -0.0820
68173W        W11267  17.233   1.894  22.917 -0.1515 -0.0060  0.3145
68174W        W11268  17.346   2.649  20.573  0.1377  0.1610 -0.2177
68175W        W11269  15.015   3.470  21.517  0.1269  0.1638 -0.2191
68176W        W11270  16.381   3.981  19.995 -0.0337  0.1113  0.1193
68177W        W11271  15.129   0.093  19.088 -0.0110  0.3007  0.0613
68178W        W11272  17.520   3.356  20.591 -0.0379  0.0357  0.0893
68179W        W11273  15.155   1.792  20.918 -0.1059 -0.0306 -0.1529
68180W        W11274  18.502   1.203  19.746 -0.1754 -0.0091  0.2007
68181W        W11275  18.875  34.691  21.390 -0.3605 -0.1060 -0.2504
68182W        W11276  15.049   1.958  23.558  0.2757 -0.0885  0.0076
68183W        W11277  14.150   1.243  20.348 -0.1737  0.0578  0.2365
68184W        W11278  14.614   1.619  19.473 -0.5355  0.1248 -0.1349
68185W        W11279  14.557   2.992  22.332 -0.0448 -0.3107  0.0739
68186W        W11280  15.676   1.461  21.955  0.0063 -0.1299  0.3244
68187W        W11281  14.835   0.986  23.652 -0.0528 -0.0240 -0.1344
68188W        W11282  14.333   1.267  20.817 -0.1313  0.0908  0.0135
68189W        W11283  14.297  34.430  19.531  0.0303 -0.1599  0.1980
68190W        W11284  17.586   3.150  20.098 -0.0632  0.2999  0.2077
68191W        W11285  13.965   0.278  21.285 -0.2347  0.0580  0.0269
68192W        W11286  13.974  34.168  21.379  0.0893 -0.0098  0.3293
68193W        W11287  16.418   2.150  20.487 -0.0455 -0.3486  0.1532
68194W        W11288  17.925   2.689  21.543  0.1113 -0.0465  0.3318
68195W        W11289  15.752  34.492  21.994 -0.2631  0.1698  0.1124
68196W        W11290  17.673   1.197  21.620  0.1389  0.0866 -0.0133
68197W        W11291  13.731   2.204  17.957  0.0877 -0.3531  0.1998
68198W        W11292  14.997   1.436  23.765 -0.1378 -0.0264 -0.1931
68199W        W11293  16.646   1.033  22.922  0.1960 -0.0031  0.3137
68200W        W11294  13.955  34.494  19.921  0.2764 -0.0974  0.0470
68201W        W11295  15.079   1.265  23.251  0.0668 -0.0511  0.4445
68202W        W11296  14.347   2.396  19.113  0.1237  0.1101 -0.7006
68203W        W11297  18.362   4.755  18.681 -0.2737 -0.0643 -0.2204
68204W        W11298  15.437   2.272  23.766 -0.0801  0.0020  0.2676
68205W        W11299  16.439   3.653  22.260  0.0193 -0.3979  0.0684
68206W        W11300  15.244   0.114  22.919  0.1498 -0.0500 -0.1566
68207W        W11301  17.358   1.718  21.158 -0.3494 -0.1953  0.0174
68208W        W11302  14.622   3.679  23.067  0.0281 -0.0772  0.0730
68209W        W11303  18.062   2.237  19.225  0.1626 -0.1551 -0.0067
68210W        W11304  18.371   1.720  21.002  0.1225 -0.2529 -0.1502
68211W        W11305  14.221   1.495  19.928  0.0430 -0.0491 -0.1769
68212W        W11306  15.631   1.207  22.368  0.1751 -0.0790  0.1732
68213W        W11307  15.365   1.681  24.796  0.0214  0.2898  0.1733
68214W        W11308  18.454   3.407  20.648 -0.1146 -0.1573 -0.2917
68215W        W11309  16.063   0.322  20.052 -0.0708  0.1408  0.0390
68216W        W11310  17.215   0.893  20.881  0.0498 -0.1688 -0.0926
68217W        W11311  15.670   1.766  19.939  0.1531  0.0807 -0.2604
68218W        W11312  15.437   3.062  22.189 -0.1124 -0.0441 -0.0316
68219W        W11313  15.441  33.927  20.196  0.0630  0.5906  0.0235
68220W        W11314  17.922   1.812  22.674  0.1879  0.3161  0.0226
68221W        W11315  16.110   2.751  20.872  0.1468  0.2157  0.0312
68222W        W11316  16.351   1.797  23.716  0.1675  0.1118  0.0389
68223W        W11317  14.775   0.803  19.705  0.1396  0.0420  0.3647
68224W        W11318  18.036   2.234  19.712  0.0915  0.2736  0.0772
68225W        W11319  17.015   2.203  22.525 -0.0465 -0.2088 -0.1646
68226W        W11320  17.554   2.166  22.599 -0.2721 -0.0330 -0.0360
68227W        W11321  16.710   4.240  23.447 -0.0735 -0.1387  0.0364
68228W        W11322  17.295   2.008  21.645 -0.0076  0.1521  0.0804
68229W        W11323  14.109  34.286  23.018 -0.2319 -0.0448  0.2602
68230W        W11324  14.926   1.961  19.793  0.1056 -0.1455  0.1761
68231W        W11325  14.301   1.425  21.959 -0.1743  0.0796 -0.2926
68232W        W11326  17.316   0.745  22.227  0.2945  0.2060 -0.1877
68233W        W11327  15.329   0.079  21.866  0.0914  0.2066 -0.0604
68234W        W11328  16.956   0.828  20.034  0.0886  0.0075  0.0427
68235W        W11329  15.440   3.200  21.437  0.2561 -0.0676 -0.1633
68236W        W11330  16.622   2.016  22.269  0.0131  0.0818 -0.1524
68237W        W11331  16.414   2.158  27.981  0.1407 -0.1321  0.0244
68238W        W11332  15.814   1.519  24.228 -0.0060  0.2675 -0.0210
68239W        W11333  18.031   0.352  21.878 -0.1090 -0.0270  0.0747
68240W        W11334  17.086   2.264  24.111 -0.0511 -0.1361  0.4536
68241W        W11335  15.256   1.344  24.226 -0.0737 -0.0092 -0.0923
68242W        W11336  16.306   4.576  24.464  0.2562  0.2156 -0.2939
68243W        W11337  15.178   1.089  26.917  0.2266 -0.0620 -0.0587
68244W        W11338  16.635   1.543  25.522  0.1146 -0.2314  0.0820
68245W        W11339  18.524   4.032  25.762 -0.1168  0.2398 -0.1583
68246W        W11340  15.613   1.200  23.908 -0.0185 -0.0275 -0.0990
68247W        W11341  16.114   2.447  26.254  0.0984  0.1150  0.5210
68248W        W11342  16.143   2.006  26.730 -0.1736 -0.0773 -0.1382
68249W        W11343  15.420  34.552  24.580 -0.1432  0.0313  0.1495
68250W        W11344  14.991  34.494  25.808 -0.2090 -0.1162  0.3004
68251W        W11345  18.186   1.716  26.007  0.1123  0.0368 -0.0152
68252W        W11346  15.511   3.185  25.004 -0.1233 -0.1954 -0.2592
68253W        W11347  16.385   1.921  25.703 -0.0118 -0.1211  0.3375
68254W        W11348  15.806   1.024  21.904 -0.0518 -0.1799  0.0031
68255W        W11349  17.124   2.860  24.330 -0.4092 -0.0556 -0.2288
68256W        W11350  16.599   1.645  26.766  0.0788 -0.2225 -0.2236
68257W        W11351  15.986   0.347  25.556 -0.1064 -0.1619 -0.3079
68258W        W11352  15.400   1.722  23.865  0.1070 -0.0329  0.1986
68259W        W11353  13.643   2.544  23.277 -0.1770  0.0313  0.1367
68260W        W11354  13.810   0.909  24.614  0.0066 -0.0100 -0.0606
68261W        W11355  16.156   2.227  27.564  0.0269 -0.1124  0.0470
68262W        W11356  17.387  34.223  25.986 -0.2398 -0.2953  0.2144
68263W        W11357  17.522   1.851  24.265  0.0951  0.1924  0.0660
68264W        W11358  17.478   2.176  26.832 -0.0164 -0.0596 -0.3109
68265W        W11359  17.303   4.915  25.362 -0.0139 -0.1953 -0.0805
68266W        W11360  17.389   1.831  27.317 -0.0328 -0.1961 -0.2419
68267W        W11361  14.624   2.029  26.420  0.0145 -0.0875 -0.0915
68268W        W11362  14.045   3.444  25.629 -0.1688  0.1938  0.0454
68269W        W11363  16.612   3.008  24.055  0.2286 -0.0305  0.2018
68270W        W11364  17.369   3.280  23.850  0.0424  0.1517 -0.1636
68271W        W11365  17.314   2.899  27.180 -0.1702 -0.1866  0.3954
68272W        W11366  15.385   3.641  26.970 -0.0109  0.1291 -0.0184
68273W        W11367  14.596   1.936  22.781 -0.1296 -0.2662 -0.2712
68274W        W11368  17.437   2.409  27.321 -0.0597  0.2425  0.0374
68275W        W11369  16.568   3.307  26.649  0.2076 -0.1533 -0.2976
68276W        W11370  16.109   3.311  25.852 -0.1542  0.0184  0.0780
68277W        W11371  16.909   1.005  23.337  0.2547  0.0312  0.0093
68278W        W11372  14.971   2.903  24.773  0.0262 -0.0162 -0.2128
68279W        W11373  16.514   2.480  25.524  0.2120 -0.1611  0.0173
68280W        W11374  16.569   3.325  27.215  0.0394  0.1984  0.0254
68281W        W11375  13.733   3.204  26.084  0.0580  0.0609 -0.0799
68282W        W11376  17.964   1.248  26.573  0.0261 -0.1296 -0.3024
68283W        W11377  14.955   3.257  25.158 -0.0502  0.0534  0.1167
68284W        W11378  17.706  34.673  22.955  0.0882 -0.3966  0.1671
68285W        W11379  15.425   1.845  22.126  0.1231 -0.0168  0.1080
68286W        W11380  17.206   1.139  24.278 -0.1585  0.1396  0.1874
68287W        W11381  16.202  34.632  24.836 -0.3153  0.3780  0.1371
68288W        W11382  16.235   3.072  26.287  0.1489 -0.1410 -0.0959
68289W        W11383  16.000   1.903  26.200 -0.0797 -0.0091 -0.0643
68290W        W11384  18.200   2.262  26.009 -0.0045  0.1880 -0.2381
68291W        W11385  14.706   2.358  23.882  0.3193  0.5115 -0.0128
68292W        W11386  17.938   2.267  26.569 -0.1053  0.0800 -0.1344
68293W        W11387  15.271   2.782  26.160 -0.0673  0.0352 -0.1325
68294W        W11388  15.338   1.495  25.512 -0.3117  0.0759 -0.1288
68295W        W11389  15.794   3.019  23.448 -0.0274 -0.2664  0.0329
68296W        W11390  17.251   2.620  24.983 -0.2331 -0.0620  0.1586
68297W        W11391  16.229   2.660  23.319  0.1287 -0.0547  0.3151
68298W        W11392  14.532   1.378  24.770  0.1135  0.0100 -0.1977
68299W        W11393  14.275   1.188  26.321 -0.1904  0.0047  0.0423
68300W        W11394  14.626   2.042  27.142 -0.1286  0.0569  0.1613
68301W        W11395  13.969   0.167  23.201 -0.0290  0.2016  0.3034
68302W        W11396  18.927   2.755  25.503  0.0403  0.1677 -0.3787
68303W        W11397  13.880   2.954  27.652  0.1170 -0.0497 -0.0638
68304W        W11398  17.876   0.149  25.092 -0.1749  0.2730 -0.2230
68305W        W11399  16.748   1.624  24.927  0.1790  0.1075 -0.2886
68306W        W11400  17.765   3.090  26.022  0.0708 -0.0605  0.0064
68307W        W11401  17.502   1.490  23.914  0.1395 -0.1378 -0.1755
68308W        W11402  18.536  34.263  24.995  0.0266 -0.0941 -0.0756
68309W        W11403  15.961  33.634  25.841 -0.0135  0.1279 -0.0898
68310W        W11404  15.281   0.137  23.693 -0.0774  0.2207  0.1244
68311W        W11405  15.629   1.198  24.567  0.2739 -0.4445  0.3657
68312W        W11406  18.024   1.800  26.474  0.0755  0.3524  0.2076
68313W        W11407  17.695   2.119  24.767  0.0630  0.0117 -0.0195
68314W        W11408  14.813   2.650  25.899  0.2365  0.0942 -0.0654
68315W        W11409  15.084   0.821  25.841  0.0730 -0.0219 -0.2611
68316W        W11410  16.650   1.807  28.383  0.1802  0.2899 -0.0348
68317W        W11411  15.180   2.388  24.541  0.3116  0.0960 -0.2175
68318W        W11412  13.672   2.191  24.256  0.0526 -0.0676  0.0923
68319W        W11413  14.704   1.805  23.904 -0.1446 -0.0805  0.0513
68320W        W11414  15.891   0.668  27.216  0.1116  0.2512  0.2443
68321W        W11415  15.045   2.062  24.138 -0.3865  0.1367 -0.1178
68322W        W11416  18.857   0.454  23.726 -0.1725 -0.2279  0.0079
68323W        W11417  14.306   0.701  26.115 -0.2003  0.1962  0.0091
68324W        W11418  18.080  34.046  24.911  0.0248  0.0414 -0.0081
68325W        W11419  15.902   2.206  24.489  0.0973  0.3122 -0.2038
68326W        W11420  17.876   2.676  24.661  0.0359 -0.2580 -0.0968
68327W        W11421  17.191   1.022  25.272  0.2149 -0.2325  0.0786
68328W        W11422  16.940   1.650  22.532  0.1167 -0.1876  0.0887
68329W        W11423  16.037   2.263  25.812  0.1076  0.0813  0.2988
68330W        W11424  14.704   0.658  24.168  0.0529  0.1389  0.0166
68331W        W11425  15.030   0.621  27.100 -0.1395 -0.0792 -0.1750
68332W        W11426  16.606   1.038  26.222  0.1616  0.1645  0.2454
68333W        W11427  17.938   2.090  27.542  0.0769  0.1491 -0.2208
68334W        W11428  14.055  34.617  24.108 -0.3597  0.0708  0.0599
68335W        W11429  17.763  34.320  25.175  0.0529  0.3066  0.2875
68336W        W11430  14.367   1.551  24.204 -0.0735  0.3341  0.0927
68337W        W11431  14.883   1.626  24.404 -0.2273  0.2691 -0.0154
68338W        W11432  17.971   0.541  24.796  0.0265 -0.0804  0.1822
68339W        W11433  16.440   3.277  22.653 -0.2869 -0.1673 -0.1131
68340W        W11434  17.101   2.504  26.925 -0.3709  0.0071 -0.0575
68341W        W11435  17.723   4.106  24.358 -0.2066  0.4164  0.1514
68342W        W11436  15.246   1.325  27.601  0.0236  0.0398  0.0761
68343W        W11437  16.427  34.398  23.317  0.0595 -0.1033 -0.0687
68344W        W11438  15.174   3.363  26.260  0.0681 -0.2472 -0.1588
68345W        W11439  16.748   4.099  25.874 -0.0408  0.3532  0.2068
68346W        W11440  15.952   2.334  22.992  0.0722 -0.2300  0.4614
68347W        W11441  18.748   4.167  26.453  0.0072 -0.1805 -0.1526
68348W        W11442  16.957   2.270  25.513 -0.2060 -0.3083  0.1334
68349W        W11443  16.728   1.359  28.792  0.0695 -0.3631  0.1239
68350W        W11444  17.034   1.786  25.341 -0.0434 -0.0796 -0.0726
68351W        W11445  18.363   2.542  26.437  0.2218  0.2108  0.1254
68352W        W11446  16.565   0.871  24.717 -0.1018 -0.1264 -0.0686
68353W        W11447  15.538  34.203  22.347 -0.1000 -0.0990 -0.2028
68354W        W11448  17.782   3.645  23.894 -0.0515  0.2820  0.1487
68355W        W11449  14.555   3.564  25.555 -0.3289  0.0233 -0.3369
68356W        W11450  15.293   2.919  25.396 -0.0303  0.0975  0.2132
68357W        W11451  16.975   2.524  26.389 -0.1512  0.0054 -0.0393
68358W        W11452  19.090  34.438  25.145  0.1786  0.2726 -0.1718
68359W        W11453  14.061   2.318  25.979 -0.1124 -0.1372 -0.0452
68360W        W11454  17.596   0.462  26.052  0.2244  0.1246  0.3049
68361W        W11455  14.794   0.359  23.733 -0.0209 -0.2856 -0.1049
68362W        W11456  14.528   2.167  27.625 -0.0520  0.1463 -0.0108
68363W        W11457  16.234   0.035  24.359 -0.5568 -0.0446  0.1770
68364W        W11458  17.826  34.294  23.284 -0.0531 -0.1362 -0.0796
68365W        W11459  16.961   2.096  26.708 -0.1053  0.0841 -0.3825
68366W        W11460  16.890   1.749  23.483 -0.0906  0.4002  0.0680
68367W        W11461  16.546   0.585  22.763 -0.0192  0.0538  0.3317
68368W        W11462  16.504   1.495  22.878 -0.0517 -0.0016 -0.1061
68369W        W11463  15.788   2.802  27.105  0.0235 -0.1860  0.1204
68370W        W11464  16.616   2.725  25.082 -0.0496  0.1634 -0.0757
68371W        W11465  16.216   1.448  26.554  0.0161  0.1753  0.0545
68372W        W11466  16.637   0.932  23.900 -0.1043 -0.2881 -0.0118
68373W        W11467  17.463   2.923  23.496  0.3700  0.0075 -0.0070
68374W        W11468  15.060   2.316  25.562  0.0357 -0.2710 -0.0487
68375W        W11469  16.899   2.162  27.825  0.3560 -0.1988  0.1910
68376W        W11470  16.242   3.260  24.366  0.1960  0.0081  0.0141
68377W        W11471  17.514   0.962  26.154 -0.1209  0.1690  0.0821
68378W        W11472  15.345   0.385  24.612 -0.0835 -0.3038  0.1930
68379W        W11473  16.635   0.379  25.042 -0.1812 -0.2438  0.1033
68380W        W11474  14.983   2.163  23.063  0.2907 -0.1634 -0.0194
68381W        W11475  18.163   0.371  25.439  0.0661  0.2747  0.1622
68382W        W11476  16.908  33.710  25.047 -0.2404  0.1633  0.2044
68383W        W11477  15.799   2.081  28.379 -0.3582 -0.2630  0.2053
68384W        W11478  19.415   2.077  27.841  0.0151  0.2091 -0.0217
68385W        W11479  17.615   1.090  24.975 -0.2057 -0.1536  0.3415
68386W        W11480  16.840   0.721  25.510  0.3670  0.2441  0.2751
68387W        W11481  14.297   1.346  22.804  0.0460 -0.1522  0.3580
68388W        W11482  17.582   0.153  27.190  0.0127 -0.0502  0.0795
68389W        W11483  14.483   1.854  28.388  0.3921 -0.2858  0.2928
68390W        W11484  15.080   2.893  27.269  0.0117 -0.1039  0.2399
68391W        W11485  16.614   2.455  27.476 -0.0011 -0.2720  0.1144
68392W        W11486  16.751   2.339  25.994 -0.2881  0.1974  0.0505
68393W        W11487  16.110   1.599  27.138 -0.0314  0.4580 -0.0131
68394W        W11488  16.296   0.485  24.494 -0.1677  0.1651  0.0851
68395W        W11489  15.257   3.320  24.579  0.1166 -0.0111  0.1074
68396W        W11490  15.364   3.017  23.201 -0.0248 -0.1245 -0.0536
68397W        W11491  15.594   1.309  27.167 -0.0607  0.0679 -0.0858
68398W        W11492  16.101   2.427  27.122 -0.2742  0.2500  0.1070
68399W        W11493  15.394   2.733  23.635  0.2575  0.4138  0.1027
68400W        W11494  18.438   0.427  26.610  0.0581  0.4073 -0.1318
68401W        W11495  15.084   2.208  26.094  0.3960 -0.3223 -0.2957
68402W        W11496  18.939   1.833  26.659  0.0434 -0.1182 -0.1591
68403W        W11497  13.239   3.386  25.268  0.3457  0.2085  0.1590
68404W        W11498  14.857   0.070  23.304  0.0127 -0.1047  0.1045
68405W        W11499  14.669   0.873  24.652  0.1064  0.1024  0.2131
68406W        W11500  18.815   0.072  24.669 -0.0220 -0.1420 -0.1038
68407W        W11501  17.191   1.809  22.061  0.0516 -0.2550 -0.0403
68408W        W11502  15.021   2.183  26.745 -0.0419 -0.1077 -0.0900
68409W        W11503  16.933  34.100  25.396  0.2430  0.0211 -0.0707
68410W        W11504  13.918   3.078  26.699 -0.1503 -0.0903  0.0823
68411W        W11505  17.555   1.744  26.637  0.2935  0.1259 -0.0122
68412W        W11506  16.905  33.956  22.574 -0.0406  0.0220 -0.0299
68413W        W11507  17.448   3.511  27.241  0.2511 -0.0375  0.3298
68414W        W11508  15.470   0.876  27.448 -0.2062  0.2918 -0.0612
68415W        W11509  13.450   2.513  23.783 -0.0430 -0.0191  0.1203
68416W        W11510  18.718   1.029  24.536 -0.1662 -0.2039 -0.2140
68417W        W11511  14.839   0.392  24.571 -0.2788  0.2216 -0.0800
68418W        W11512  14.549   2.440  24.994  0.0122 -0.0978  0.0402
68419W        W11513  17.114   1.586  26.382 -0.1136  0.0261  0.0672
68420W        W11514  14.274   1.389  25.255 -0.0704 -0.3267  0.2012
68421W        W11515  15.092   3.770  24.912  0.1938 -0.0820  0.2786
68422W        W11516  15.926   2.448  29.192 -0.1888 -0.2959  0.0823
68423W        W11517  17.403   1.213  27.233 -0.0441  0.0373 -0.0234
68424W        W11518  17.483   0.559  24.195  0.0469 -0.0469 -0.2031
68425W        W11519  15.735   0.322  23.598  0.3437 -0.0975  0.1638
68426W        W11520  15.350   1.726  26.900  0.1309 -0.2680 -0.1534
68427W        W11521  17.529   2.194  23.844 -0.3155  0.1914 -0.1345
68428W        W11522  16.663  34.641  26.595 -0.0681 -0.1738 -0.1047
68429W        W11523  15.190   3.177  27.673  0.1465 -0.0420 -0.2049
68430W        W11524  16.492  34.245  25.605  0.2935  0.2830 -0.1282
68431W        W11525  17.941   3.200  23.702 -0.3919 -0.1491 -0.1099
68432W        W11526  17.254   3.031  26.498 -0.2840  0.1384  0.2299
68433W        W11527  14.179   2.979  23.851  0.3576 -0.0806  0.2256
68434W        W11528  13.949   0.537  25.210 -0.1313 -0.0677  0.3246
68435W        W11529  15.547   2.200  24.846  0.0256 -0.0251  0.1525
68436W        W11530  17.855   0.741  26.462  0.0650 -0.0239 -0.2280
68437W        W11531  14.784   1.339  27.261  0.3411 -0.0497  0.0319
68438W        W11532  14.553   2.013  24.374 -0.2894  0.0144 -0.0524
68439W        W11533  15.243   2.041  25.182 -0.2640 -0.1986  0.0267
68440W        W11534  16.875   0.646  24.411 -0.0533  0.0092 -0.1190
68441W        W11535  16.654   2.917  23.068 -0.1241 -0.1537  0.3723
68442W        W11536  15.807   0.726  24.508 -0.0153 -0.0318  0.1560
68443W        W11537  18.433   1.398  25.440  0.2983  0.6166  0.1747
68444W        W11538  17.935   1.521  24.213 -0.2072 -0.0053  0.0654
68445W        W11539  17.428   0.715  25.598 -0.0791  0.0726  0.0777
68446W        W11540  16.214   1.038  27.093  0.0259 -0.0564  0.2723
68447W        W11541  16.982   2.484  24.591 -0.1069 -0.0794  0.3013
68448W        W11542  14.895   3.004  28.273  0.4574  0.2715 -0.1318
68449W        W11543  16.341   4.732  26.462 -0.0709 -0.1755  0.1523
68450W        W11544  14.904   2.454  27.249  0.0955 -0.4010  0.0443
68451W        W11545  17.874   0.508  23.910  0.0576 -0.0236 -0.1761
68452W        W11546  15.225   0.804  24.263 -0.2815  0.0259 -0.0676
68453W        W11547  17.189   2.061  26.220 -0.1774 -0.1112  0.0142
68454W        W11548  18.032   0.253  25.925  0.2247 -0.1903  0.1774
68455W        W11549  15.601   3.183  25.659 -0.1171  0.0797 -0.3932
68456W        W11550  18.260   0.968  26.258 -0.0204  0.2443 -0.1336
68457W        W11551  15.370   2.522  26.597  0.0287 -0.0495 -0.2277
68458W        W11552  17.049   2.175  25.014  0.1308  0.0713 -0.0191
68459W        W11553  15.713  34.679  23.978  0.0354  0.0349  0.3902
68460W        W11554  15.609   0.528  24.067  0.0504 -0.0436 -0.1784
68461W        W11555  16.049   0.850  27.674  0.0283  0.2525 -0.2868
68462W        W11556  17.166   2.539  23.650  0.2908  0.0751 -0.4197
68463W        W11557  17.643  33.728  24.615  0.0871 -0.0347  0.0267
68464W        W11558  17.032   1.291  25.637  0.1666 -0.1487 -0.1292
68465W        W11559  17.303   0.714  27.128 -0.0440 -0.2238 -0.1976
68466W        W11560  17.127   1.590  26.875  0.0547 -0.2770  0.3967
68467W        W11561  14.936   0.889  27.505 -0.0129 -0.3972 -0.1410
68468W        W11562  17.420   2.450  25.450  0.0989 -0.0190 -0.2588
68469W        W11563  16.462   0.717  23.292  0.0557  0.0462  0.1688
68470W        W11564  17.595   1.201  25.730  0.0990 -0.0424 -0.1084
68471W        W11565  18.038   2.026  23.980 -0.0211  0.1140 -0.1846
68472W        W11566  16.058   0.683  23.939  0.0619 -0.0206  0.1531
68473W        W11567  15.048   1.432  25.074  0.3155  0.1770  0.2342
68474W        W11568  16.274   0.922  26.588  0.0728 -0.0110  0.1215
68475W        W11569  15.880   0.469  22.478  0.2632 -0.0456  0.0288
68476W        W11570  17.906   0.706  25.786 -0.0943 -0.3788  0.2284
68477W        W11571  15.830   1.916  23.498  0.0330  0.0465  0.0593
68478W        W11572  16.720   2.095  24.462 -0.3057 -0.2273  0.2414
68479W        W11573  18.801   1.272  24.036 -0.1421 -0.0900 -0.1307
68480W        W11574  15.965   1.585  25.632  0.1294  0.0848  0.0124
68481W        W11575  15.557   2.009  25.736  0.2938 -0.1010 -0.0633
68482W        W11576  15.800   0.182  24.594 -0.7902  0.0495  0.3402
68483W        W11577  17.281   1.344  23.523 -0.1289  0.0573 -0.0955
68484W        W11578  17.121   2.684  27.525  0.1149 -0.4042 -0.1153
68485W        W11579  17.764   1.421  28.332 -0.1460  0.0980  0.1258
68486W        W11580  16.996  34.186  24.183 -0.1913 -0.2608  0.1417
68487W        W11581  17.411   1.232  26.602 -0.0318 -0.0329 -0.3979
68488W        W11582  14.636   2.213  25.861  0.1222 -0.0236  0.1154
68489W        W11583  15.494   0.802  24.889 -0.0653  0.0076 -0.4250
68490W        W11584  15.365   4.191  26.302 -0.1755  0.0194 -0.0894
68491W        W11585  14.252   1.677  26.564 -0.0869  0.0329 -0.2562
68492W        W11586  16.276   3.904  25.208  0.0052  0.0763  0.1466
68493W        W11587  16.747  34.425  25.977 -0.2476 -0.2753  0.2716
68494W        W11588  17.995   1.478  24.769  0.0931  0.1694  0.1404
68495W        W11589  17.221   2.011  24.581  0.1258  0.0709  0.1305
68496W        W11590  18.590   1.463  26.406 -0.0081 -0.0004 -0.3094
68497W        W11591  17.287   2.475  25.932 -0.2959 -0.0923  0.1724
68498W        W11592  14.756   3.123  26.148  0.1263 -0.1990 -0.0237
68499W        W11593  16.863   2.789  25.591 -0.2238  0.0412  0.2596
68500W        W11594  15.833   1.958  24.017  0.0899 -0.1450 -0.0120
68501W        W11595  14.404   3.997  24.791 -0.1836  0.2340 -0.1917
68502W        W11596  14.071   2.224  28.467  0.1011 -0.0090  0.2630
68503W        W11597  14.898   1.988  29.055  0.0204 -0.1559  0.1163
68504W        W11598  17.425   2.072  25.736  0.0686 -0.0678 -0.1178
68505W        W11599  13.862  34.283  24.434 -0.0400 -0.0497  0.0631
68506W        W11600  16.716   2.447  22.838  0.0778  0.1614  0.2118
68507W        W11601  14.854   2.820  26.846  0.0184 -0.2261 -0.1024
68508W        W11602  15.170   2.057  27.244  0.2597  0.1921 -0.0071
68509W        W11603  15.759   4.385  24.616  0.0371 -0.1424 -0.4098
68510W        W11604  17.232   0.358  22.619 -0.0589  0.1729 -0.0734
68511W        W11605  17.362   0.918  23.156  0.3267  0.4242  0.0410
68512W        W11606  17.615   4.386  25.374 -0.0705  0.0258  0.0029
68513W        W11607  16.700   0.852  21.285 -0.2586 -0.0448 -0.2251
68514W        W11608  15.616   3.652  24.861 -0.1926 -0.0747  0.0513
68515W        W11609  14.838   3.145  22.789 -0.1532 -0.1133  0.2088
68516W        W11610  16.461   3.750  24.205  0.0599  0.0458  0.2407
68517W        W11611  15.903   2.782  25.824  0.0499 -0.2130 -0.2659
68518W        W11612  16.555   1.891  27.436 -0.0116  0.2099  0.5418
68519W        W11613  18.490  34.319  22.607  0.0302 -0.1739 -0.2119
68520W        W11614  17.307   1.530  24.862 -0.0297 -0.6316 -0.1115
68521W        W11615  19.145   0.808  23.458  0.1715 -0.0582 -0.1405
68522W        W11616  16.277   2.823  27.346 -0.5731  0.0706  0.1626
68523W        W11617  16.647   1.572  26.268  0.1407  0.0013  0.0939
68524W        W11618  16.042   1.377  22.732  0.1362 -0.1912 -0.0730
68525W        W11619  15.766   1.612  28.036  0.0079  0.0068 -0.0436
68526W        W11620  17.215   0.728  26.498 -0.1580  0.1871 -0.1588
68527W        W11621  13.547   3.198  27.919 -0.0569 -0.3887 -0.0195
68528W        W11622  16.389   2.131  24.133 -0.0185  0.0872  0.0033
68529W        W11623  14.293   1.053  24.385  0.1655 -0.0349 -0.1462
68530W        W11624  16.262   1.700  24.369  0.0552 -0.0037  0.1556
68531W        W11625  19.222  32.792  25.704  0.1046 -0.0176  0.0849
68532W        W11626  17.249   0.878  23.761 -0.0227 -0.3846 -0.2911
68533W        W11627  16.985  34.188  24.756 -0.0333  0.4721 -0.0577
68534W        W11628  16.710   1.955  22.899 -0.1285  0.0425 -0.0930
68535W        W11629  16.205   2.441  24.879 -0.1715  0.2326 -0.0027
68536W        W11630  15.939   3.331  25.251 -0.1437  0.0017  0.0372
68537W        W11631  14.724   1.134  24.121 -0.0163 -0.0401 -0.2303
68538W        W11632  17.510   0.759  24.629  0.0233 -0.1267 -0.2641
68539W        W11633  15.684   2.066  27.052 -0.0127 -0.1365 -0.1550
68540W        W11634  18.129   1.231  25.819 -0.2525  0.5142  0.0387
68541W        W11635  15.980   0.971  24.949 -0.2267 -0.1764  0.0687
68542W        W11636  17.948   0.840  24.402 -0.0034 -0.3191  0.0555
68543W        W11637  16.785   1.270  27.079 -0.0522 -0.0579 -0.5507
68544W        W11638  14.385   2.615  25.582 -0.2411 -0.3055 -0.1746
68545W        W11639  15.087   1.187  24.649 -0.0812 -0.0166 -0.3230
68546W        W11640  17.058   1.127  24.735 -0.0651 -0.2930 -0.0590
68547W        W11641  16.753   0.118  22.649 -0.1633  0.2737 -0.0818
68548W        W11642  17.939   3.782  26.462  0.0918 -0.1179 -0.1852
68549W        W11643  14.935  34.590  24.428  0.0681  0.2243 -0.0422
68550W        W11644  17.632   1.195  24.514  0.2169 -0.3797 -0.2137
68551W        W11645  16.297   1.412  24.800 -0.2105 -0.2329  0.1201
68552W        W11646  17.004   1.456  27.551 -0.2167  0.2950 -0.0229
68553W        W11647  16.505   2.156  27.028 -0.1170 -0.3295 -0.0111
68554W        W11648  14.525   0.021  24.958  0.0512  0.3638  0.1213
68555W        W11649  17.544   0.783  22.672  0.2065  0.0438 -0.3485
68556W        W11650  17.029   1.595  24.396 -0.2754  0.0594 -0.2152
68557W        W11651  15.432   3.323  23.625 -0.1704 -0.0930  0.2996
68558W        W11652  15.799   2.552  24.044 -0.0839 -0.3042  0.2416
68559W        W11653  17.824   1.738  23.642  0.1873 -0.5742 -0.0043
68560W        W11654  14.796   1.268  26.559 -0.1058  0.1100  0.1536
68561W        W11655  18.193   2.355  24.354  0.2295 -0.1276 -0.1448
68562W        W11656  18.285   2.143  23.501 -0.4213  0.4962  0.4078
68563W        W11657  16.407   1.327  23.968 -0.2413  0.0650 -0.1971
68564W        W11658  16.085   2.142  25.323 -0.0456  0.2861 -0.1457
68565W        W11659  14.326   4.193  26.073  0.0083  0.0381  0.0233
68566W        W11660  17.476   1.516  25.375  0.0541  0.0075  0.0757
68567W        W11661  17.062   0.660  24.982 -0.2371  0.0477 -0.2514
68568W        W11662  17.618   3.559  24.458  0.0186 -0.4530 -0.2256
68569W        W11663  17.792   0.883  26.887 -0.0047 -0.3394  0.0535
68570W        W11664  17.718   1.950  26.132  0.1565  0.3940 -0.2668
68571W        W11665  15.485   3.180  27.150  0.2028 -0.1040 -0.0876
68572W        W11666  15.095   1.813  25.753 -0.1272  0.1351 -0.2006
68573W        W11667  16.186   1.211  25.398 -0.3243  0.1004 -0.0594
68574W        W11668  14.697   2.597  24.332 -0.0288  0.2298  0.1060
68575W        W11669  17.556   2.803  23.931 -0.1394  0.0331 -0.3006
68576W        W11670  17.145   3.007  25.230 -0.2888 -0.1171  0.2083
68577W        W11671  15.770   1.660  26.558 -0.4106 -0.0813 -0.1187
68578W        W11672  17.344   2.918  25.705  0.0456  0.1615  0.2770
68579W        W11673  15.915   0.704  26.211  0.0424  0.3461  0.0780
68580W        W11674  19.400  34.179  23.876 -0.0848 -0.0139  0.0951
68581W        W11675  17.650   0.704  23.552  0.2177  0.2919  0.0574
68582W        W11676  15.056   2.271  27.686  0.3573  0.1791  0.1816
68583W        W11677  14.932   1.955  24.798 -0.1916  0.0506  0.1242
68584W        W11678  14.000   1.740  22.762  0.0035  0.0648  0.1378
68585W        W11679  14.427   1.424  26.941  0.0317  0.1450  0.1648
68586W        W11680  16.970   0.366  27.161  0.1703 -0.1070 -0.2747
68587W        W11681  14.850   1.708  26.798 -0.1634  0.2269 -0.1791
68588W        W11682  15.504   2.813  24.547  0.1926  0.2663  0.1265
68589W        W11683  15.844   0.793  25.464 -0.1186  0.0630  0.3261
68590W        W11684  17.089   2.773  23.234  0.4625 -0.1460  0.0124
68591W        W11685  16.887   0.216  26.253  0.0859 -0.0827  0.2074
68592W        W11686  15.620  34.114  26.623 -0.2442  0.2028  0.0033
68593W        W11687  15.380   4.077  24.588  0.2660  0.2150  0.0074
68594W        W11688  17.314   3.393  25.517 -0.1088 -0.1310  0.0366
68595W        W11689  16.543   1.062  25.717 -0.0024  0.0659 -0.1365
68596W        W11690  17.871   3.915  28.628  0.2757  0.0631 -0.2519
68597W        W11691  14.084   2.253  24.848  0.2203 -0.0123  0.0403
68598W        W11692  16.856   0.931  27.451  0.4433  0.0931  0.1193
68599W        W11693  17.283   0.036  25.882  0.1511 -0.1227  0.0698
68600W        W11694  15.156   0.258  24.159  0.0992 -0.3936 -0.0648
68601W        W11695  16.656   1.156  25.190 -0.0087  0.0096 -0.0879
68602W        W11696  17.199   3.330  24.892  0.3736  0.1522 -0.1878
68603W        W11697  16.235   2.532  23.825  0.4623 -0.0005 -0.2783
68604W        W11698  16.790   1.208  26.612 -0.1250  0.2255  0.1807
68605W        W11699  15.746   3.120  26.149 -0.0722  0.1995 -0.0710
68606W        W11700  15.245   0.402  26.284  0.3585  0.1590 -0.2267
68607W        W11701  16.904   1.382  23.837 -0.1590  0.0244  0.1084
68608W        W11702  16.536   2.635  29.063 -0.0219 -0.2846 -0.3822
68609W        W11703  18.339   0.411  22.953  0.0526  0.3435  0.2547
68610W        W11704  19.049   0.820  25.358  0.1171 -0.1422 -0.0673
68611W        W11705  16.678   1.264  24.412  0.1541  0.0112  0.1664
68612W        W11706  16.444  34.575  28.049 -0.0733 -0.1476  0.2017
68613W        W11707  15.178   3.149  26.770 -0.0679  0.3939  0.0944
68614W        W11708  17.790   1.725  27.059 -0.2706 -0.1275  0.1055
68615W        W11709  15.752   0.194  22.905 -0.3379  0.1736  0.1553
68616W        W11710  18.209  34.412  23.561 -0.0648  0.0505 -0.0805
68617W        W11711  15.780   3.218  24.575  0.0133  0.0404 -0.1253
68618W        W11712  14.998   3.819  25.950 -0.3317 -0.1085 -0.0908
68619W        W11713  17.453   1.681  22.549  0.1192  0.0924 -0.1225
68620W        W11714  17.296   1.608  25.893 -0.0177  0.0059 -0.1245
68621W        W11715  16.729   3.304  25.112  0.0507  0.0685  0.2600
68622W        W11716  18.637   1.889  29.155 -0.2124 -0.0008  0.1403
68623W        W11717  15.904   1.701  24.714  0.4542  0.2488 -0.1153
68624W        W11718  19.755   0.581  22.688 -0.2048  0.2097 -0.1389
68625W        W11719  16.847   1.874  25.856  0.0001 -0.0267 -0.0587
68626W        W11720  17.151   3.944  26.700 -0.1089 -0.3346 -0.0977
68627W        W11721  16.224   3.638  26.387  0.3938  0.1909 -0.0701
68628W        W11722  18.688   0.995  23.646  0.6769  0.0573 -0.0399
68629W        W11723  14.850   1.315  25.517 -0.1131  0.0796 -0.1055
68630W        W11724  15.721   2.677  24.982 -0.1168  0.3631 -0.0069
68631W        W11725  15.477   1.964  24.351 -0.0310  0.1892  0.0647
68632W        W11726  17.534   1.971  25.217 -0.0445 -0.0871 -0.4758
68633W        W11727  16.219   1.702  25.174  0.3514 -0.0327 -0.2089
68634W        W11728  17.711   0.207  24.485 -0.0055  0.0730  0.1651
68635W        W11729  15.580   3.447  26.526 -0.1274  0.0699 -0.0753
68636W        W11730  16.770   0.205  24.559 -0.1679 -0.2118 -0.0311
68637W        W11731  16.186   2.406  30.104 -0.1008 -0.0446 -0.1290
68638W        W11732  15.122   0.459  27.879  0.1524  0.3791 -0.2325
68639W        W11733  17.830  34.628  26.781 -0.2296 -0.2200  0.0143
68640W        W11734  18.332   1.465  28.250 -0.0357  0.0175 -0.0348
68641W        W11735  16.193   0.298  29.219  0.0223  0.0904  0.0974
68642W        W11736  17.782   3.939  29.368  0.2232 -0.1978 -0.1169
68643W        W11737  16.116  33.257  31.156 -0.2557 -0.0256 -0.0327
68644W        W11738  16.378   3.146  29.814  0.0175 -0.2903 -0.1906
68645W        W11739  19.085   4.556  31.403  0.1215 -0.2068 -0.0556
68646W        W11740  15.816   1.271  27.630  0.3277  0.0502 -0.2847
68647W        W11741  18.134   0.600  29.552 -0.0941 -0.0841 -0.0277
68648W        W11742  15.804   2.257  31.581  0.3385  0.2029  0.0400
68649W        W11743  15.718   1.000  28.007 -0.3020  0.2116 -0.0998
68650W        W11744  15.468   0.411  29.930 -0.1584 -0.1862 -0.1977
68651W        W11745  18.335   0.578  29.981  0.0763  0.1650 -0.0270
68652W        W11746  14.597   0.559  27.899  0.0148  0.0511 -0.2417
68653W        W11747  15.301   1.278  30.387  0.2237  0.0577 -0.1472
68654W        W11748  15.892   0.635  28.702 -0.0355  0.2837 -0.0541
68655W        W11749  17.135   2.915  28.353 -0.0222  0.1721 -0.1473
68656W        W11750  16.727  34.145  30.522  0.0741 -0.3376  0.0402
68657W        W11751  16.518   0.271  30.541  0.1474 -0.0737  0.1938
68658W        W11752  17.446   0.717  28.816 -0.1552 -0.3958 -0.1393
68659W        W11753  15.305   1.894  27.981 -0.0818 -0.0195  0.0734
68660W        W11754  14.582   0.626  30.158 -0.2931 -0.0347 -0.1465
68661W        W11755  15.334   2.386  28.989 -0.1666 -0.0219 -0.0636
68662W        W11756  17.361   0.599  30.039 -0.0723  0.1835  0.6191
68663W        W11757  18.573   2.889  28.464 -0.1928 -0.3560  0.0515
68664W        W11758  17.839   0.785  29.923  0.3957  0.0605 -0.0080
68665W        W11759  17.667   2.783  28.457 -0.0277 -0.2337  0.2930
68666W        W11760  17.416   0.473  30.616  0.5578 -0.3146 -0.3147
68667W        W11761  14.812   3.412  29.054 -0.1672 -0.0127 -0.1890
68668W        W11762  14.286   3.318  29.265 -0.0294  0.1649  0.2232
68669W        W11763  16.198   2.689  29.654 -0.0561 -0.2083  0.2389
68670W        W11764  17.764   2.700  27.729 -0.1259  0.2956 -0.0157
68671W        W11765  17.341   3.134  30.924 -0.0204  0.1855  0.3035
68672W        W11766  17.284   3.579   0.134  0.0878 -0.1153 -0.0838
68673W        W11767  16.114   1.725  27.666 -0.0590  0.0404  0.0154
68674W        W11768  15.489   4.274  31.182  0.0265  0.2873  0.3661
68675W        W11769  14.922   2.446  31.275 -0.0306 -0.0220 -0.3392
68676W        W11770  17.568   1.937  30.768 -0.5705 -0.1926 -0.1817
68677W        W11771  17.642   1.759  28.807  0.0465 -0.2705 -0.1915
68678W        W11772  14.884   4.202  29.107 -0.1408 -0.0390 -0.4321
68679W        W11773  16.953   1.820  29.203 -0.2701  0.4442  0.1034
68680W        W11774  16.464   1.836  30.568  0.0909 -0.0895 -0.1574
68681W        W11775  14.662   2.877  31.146 -0.1119  0.0993 -0.4337
68682W        W11776  17.230   0.146  31.148 -0.0651 -0.1934  0.2665
68683W        W11777  16.783   2.620  28.092  0.4000  0.2855  0.2261
68684W        W11778  17.984   1.915  28.475 -0.0510  0.3852  0.1838
68685W        W11779  15.880  34.657  28.972  0.0779 -0.1193 -0.2112
68686W        W11780  18.405   0.634  27.818  0.0576 -0.0678  0.6010
68687W        W11781  17.028  34.642  29.373  0.1259  0.2870 -0.1942
68688W        W11782  16.593   2.506  30.549 -0.1280  0.0780 -0.1196
68689W        W11783  17.554   0.670  29.551  0.0757 -0.0754  0.3525
68690W        W11784  18.540   3.020  31.784 -0.0884 -0.0756 -0.1037
68691W        W11785  16.991   0.895  28.836  0.2338  0.1916  0.2611
68692W        W11786  16.925   0.877  29.775  0.0525  0.1847 -0.1856
68693W        W11787  15.207   2.795  30.081  0.1862  0.0865  0.1658
68694W        W11788  16.663   1.096  29.272 -0.2597  0.2502  0.0351
68695W        W11789  18.747   3.239  27.077 -0.0202 -0.0457  0.0020
68696W        W11790  18.687   2.659  28.882  0.0975  0.2056  0.2370
68697W        W11791  17.189   4.430  27.812  0.0622 -0.1112  0.0181
68698W        W11792  15.299   2.061  28.505  0.1282  0.1095 -0.0444
68699W        W11793  15.461   3.518   0.233 -0.2679  0.4549  0.0980
68700W        W11794  16.717   1.265  31.549  0.0052 -0.0079 -0.2806
68701W        W11795  15.717   1.238  28.484 -0.1246  0.0000  0.0167
68702W        W11796  17.213   1.497  30.079 -0.1940 -0.0715  0.0664
68703W        W11797  15.117   2.789  31.545 -0.2123 -0.0968 -0.2576
68704W        W11798  17.833   0.863  29.052 -0.3966 -0.0117 -0.1424
68705W        W11799  14.677   2.911  30.063  0.0850  0.0628 -0.0390
68706W        W11800  17.962   3.296  30.535 -0.3465 -0.5288  0.2532
68707W        W11801  17.088   1.700  28.656  0.1231  0.0396 -0.0044
68708W        W11802  17.737   0.861  28.340  0.3202  0.1781  0.2015
68709W        W11803  18.280  33.317  30.647 -0.1429  0.0181  0.1804
68710W        W11804  14.437   2.894  26.562  0.2427  0.0832 -0.1397
68711W        W11805  15.641   2.802  28.962  0.0811 -0.0274  0.0885
68712W        W11806  18.093   2.348  30.175  0.0739  0.2880  0.2300
68713W        W11807  19.052   2.766  28.327  0.2420  0.0160 -0.3753
68714W        W11808  15.238   3.665  29.430 -0.0781  0.1485 -0.2938
68715W        W11809  17.750   0.314  29.825  0.2145 -0.1879  0.2623
68716W        W11810  17.043   2.548  29.776 -0.1630  0.2719  0.3413
68717W        W11811  14.446   3.172  27.560  0.0037 -0.0060  0.0303
68718W        W11812  14.417   1.125  29.959  0.0176  0.0710  0.0017
68719W        W11813  15.344   2.616  28.536 -0.0788 -0.1522  0.1821
68720W        W11814  14.191  34.617  29.948  0.2146  0.1189  0.1363
68721W        W11815  15.683   2.564  29.837 -0.1450 -0.1209 -0.1902
68722W        W11816  18.548   1.029  26.742  0.2153  0.1449 -0.3292
68723W        W11817  15.632   0.864   0.038  0.0647 -0.0959  0.1992
68724W        W11818  17.635  33.624  29.215 -0.1000  0.1136  0.0861
68725W        W11819  15.604   2.146  29.401  0.0077 -0.0644  0.2012
68726W        W11820  17.588   3.209  28.125  0.0735  0.3602  0.2199
68727W        W11821  18.610   2.841  27.888 -0.7151  0.3783  0.0618
68728W        W11822  16.912   4.182  27.479 -0.2200  0.1999 -0.2006
68729W        W11823  15.750   0.854  29.622  0.0046  0.1121  0.1131
68730W        W11824  16.609   0.569  29.274  0.1723  0.1487  0.1330
68731W        W11825  16.456   0.602  30.085  0.0546 -0.0561  0.1256
68732W        W11826  15.466   0.727  30.382  0.0085 -0.2480  0.1086
68733W        W11827  16.995   2.139  31.533  0.2169  0.5026 -0.1532
68734W        W11828  16.219  34.013  27.976 -0.0839 -0.1402  0.1583
68735W        W11829  17.114   1.716  27.994 -0.2826  0.3087  0.0279
68736W        W11830  16.511   1.792  29.517 -0.1753 -0.0421 -0.1910
68737W        W11831  14.931   0.617  28.327 -0.0020 -0.1484 -0.1399
68738W        W11832  18.402   0.729  30.903 -0.2910  0.1078 -0.0166
68739W        W11833  16.995   3.765  27.141  0.0688  0.2182  0.0284
68740W        W11834  18.420   1.864  31.288 -0.2099 -0.0200  0.0091
68741W        W11835  17.972   3.518  29.103  0.0985  0.0341  0.0106
68742W        W11836  15.698   1.503  30.276 -0.3078 -0.0029 -0.0213
68743W        W11837  17.188   0.809  28.324 -0.0313 -0.2927  0.0402
68744W        W11838  15.379   3.220  31.624 -0.1551  0.3469 -0.0334
68745W        W11839  16.453   3.260  29.267 -0.0712  0.3789 -0.1196
68746W        W11840  16.294   1.365  28.522 -0.4194 -0.1465 -0.0364
68747W        W11841  18.351   2.713  29.202  0.0141 -0.2087 -0.1185
68748W        W11842  14.944   1.237  28.999  0.1673  0.1785 -0.0399
68749W        W11843  14.529   1.753  31.110 -0.1046  0.3252  0.0653
68750W        W11844  18.123  34.330  31.442 -0.0630 -0.3351 -0.3021
68751W        W11845  18.891   1.834  31.073 -0.0757  0.0152 -0.0369
68752W        W11846  17.074   2.576  28.703  0.2476  0.0175  0.2255
68753W        W11847  15.888   0.175  27.178  0.1473 -0.0811 -0.3245
68754W        W11848  17.540   4.405  29.414 -0.2457  0.2645 -0.1167
68755W        W11849  16.170   3.878  28.026  0.1725  0.1219  0.0951
68756W        W11850  16.004   2.179  29.639 -0.1684 -0.1914 -0.0597
68757W        W11851  17.461   3.166  29.871 -0.2128  0.2088 -0.1093
68758W        W11852  17.069  34.465  30.299 -0.1930 -0.0834  0.0188
68759W        W11853  14.510   1.633   0.276  0.0294 -0.0363  0.1940
68760W        W11854  16.991   0.135  30.659 -0.1846 -0.1226 -0.1938
68761W        W11855  15.851   1.645  28.675 -0.0808 -0.1310  0.3573
68762W        W11856  14.832   2.004  30.754  0.1393  0.1897  0.0014
68763W        W11857  19.203   0.347  27.691  0.1571 -0.0432  0.3127
68764W        W11858  18.804   0.587  27.480  0.2223 -0.0995  0.0360
68765W        W11859  17.844   1.507  30.832  0.1981 -0.4919 -0.2857
68766W        W11860  17.545   1.899  28.209 -0.3485  0.4647  0.1523
68767W        W11861  17.997   1.721  27.925 -0.0325  0.0093 -0.0376
68768W        W11862  15.513  34.649  26.634  0.0607  0.1165  0.0236
68769W        W11863  16.086   1.558  30.623 -0.1869 -0.2845  0.1007
68770W        W11864  17.684   2.637  29.983  0.3779  0.1649  0.2585
68771W        W11865  17.526   1.187  29.364  0.0411  0.1448  0.2171
68772W        W11866  18.553   1.781  27.653 -0.1189  0.0043  0.0555
68773W        W11867  18.570   2.793  26.843  0.2002  0.2180 -0.1054
68774W        W11868  14.615   3.374  30.372 -0.2309  0.0019  0.1982
68775W        W11869  16.619   3.482  31.059  0.1615  0.0784  0.0526
68776W        W11870  17.113   3.589  29.853  0.1968  0.1514 -0.3921
68777W        W11871  18.207  34.234  30.931  0.1529  0.0404  0.2530
68778W        W11872  15.506   2.243  27.552  0.0773  0.3001  0.1331
68779W        W11873  16.894   0.526  27.763 -0.1141 -0.0226  0.2496
68780W        W11874  13.397   3.718  26.242 -0.1122 -0.1157 -0.3465
68781W        W11875  19.167   1.331  28.704  0.3166 -0.0990  0.1839
68782W        W11876  18.046  33.784  30.415 -0.1042  0.2368 -0.3165
68783W        W11877  16.590  33.213  29.741  0.1927  0.3318 -0.3294
68784W        W11878  18.526   1.698  30.781 -0.2456 -0.1485  0.2309
68785W        W11879  18.625   2.408  28.173  0.0380 -0.1565  0.1269
68786W        W11880  17.543   2.288  28.532 -0.2255  0.0289 -0.3584
68787W        W11881  14.862   2.767  27.773 -0.1132 -0.0356 -0.2140
68788W        W11882  16.516  34.644  29.320  0.0461  0.0102 -0.0707
68789W        W11883  15.565   1.791  30.769 -0.3963 -0.3042  0.2410
68790W        W11884  15.050   3.218  31.228 -0.0214 -0.0037 -0.0062
68791W        W11885  17.346   1.398  30.646  0.0994 -0.0530 -0.2238
68792W        W11886  17.899   2.973  29.017 -0.4329  0.2247 -0.3963
68793W        W11887  17.949  34.344  29.787  0.0462 -0.0958  0.1880
68794W        W11888  17.081   0.199  26.707  0.1237  0.0485 -0.0787
68795W        W11889  15.316   5.436  27.454 -0.0439  0.0828 -0.1907
68796W        W11890  15.682   3.052  27.648  0.1138  0.3516 -0.1810
68797W        W11891  17.709   0.095  28.363 -0.1103  0.1840 -0.1185
68798W        W11892  17.062   3.206  29.553 -0.1875  0.1253  0.0266
68799W        W11893  16.228   2.882  26.822 -0.3337 -0.2855 -0.0178
68800W        W11894  18.080   1.695  29.998 -0.1492  0.1187 -0.3062
68801W        W11895  16.542   3.727  28.326  0.4308 -0.4192 -0.0435
68802W        W11896  18.268  33.431  30.082 -0.1262 -0.0721 -0.0013
68803W        W11897  15.105   2.065  29.512 -0.1677 -0.1739  0.0830
68804W        W11898  14.456   3.103  28.128  0.1103  0.1642  0.0964
68805W        W11899  15.717  34.218  28.165  0.3978 -0.1948 -0.0426
68806W        W11900  19.026   1.209  27.604 -0.1525  0.3411  0.2928
68807W        W11901  17.132   3.990  28.161  0.1590  0.0118  0.2994
68808W        W11902  14.827   2.045  30.155  0.0565  0.3632 -0.1124
68809W        W11903  17.639   0.147  29.403  0.1963  0.2844 -0.0395
68810W        W11904  15.083   2.977  29.164 -0.1037  0.2485 -0.2861
68811W        W11905  17.522   1.271  31.102  0.0800 -0.0117 -0.0325
68812W        W11906  17.802   1.099  27.876 -0.0246 -0.1608  0.3839
68813W        W11907  17.021   2.620  30.882  0.0702  0.2316  0.0974
68814W        W11908  14.257   1.334  31.398  0.0851  0.1806  0.0506
68815W        W11909  15.441   0.511  26.759 -0.0956  0.1477  0.0887
68816W        W11910  18.085   0.080  30.137  0.1212  0.2079 -0.2720
68817W        W11911  16.748   1.712  30.090  0.0542  0.4026  0.1868
68818W        W11912  14.585   2.395  30.406  0.0176 -0.1859  0.0483
68819W        W11913  15.724   2.028  30.020  0.1579  0.1939 -0.0090
68820W        W11914  15.876   2.573  28.188 -0.0580 -0.0694  0.0974
68821W        W11915  15.079   1.017  29.420  0.2945 -0.0347 -0.0739
68822W        W11916  16.848  34.555  31.251  0.1777  0.0459 -0.1563
68823W        W11917  18.343   2.655  29.856 -0.2163  0.2013 -0.2116
68824W        W11918  16.341  33.979  29.123  0.0666  0.0425 -0.1327
68825W        W11919  15.966   1.185  28.946 -0.0761 -0.0384 -0.0159
68826W        W11920  18.403   0.973  28.217  0.2106  0.2907  0.1463
68827W        W11921  17.650   2.410  30.440 -0.0452  0.0560  0.1119
68828W        W11922  17.482  34.379  29.229 -0.1545  0.1032 -0.1044
68829W        W11923  15.042   3.376   1.139 -0.1039 -0.0647  0.1539
68830W        W11924  16.854  33.675  29.003  0.4328  0.4736 -0.2702
68831W        W11925  16.781   3.924  29.359  0.1733 -0.0538 -0.0630
68832W        W11926  17.824   2.095   0.116 -0.0307  0.0099 -0.0927
68833W        W11927  15.964   1.787  29.255  0.0319 -0.3643 -0.1994
68834W        W11928  15.191   2.480  30.521  0.0970 -0.0985  0.1104
68835W        W11929  16.639   1.622  27.849 -0.1440 -0.1016 -0.0612
68836W        W11930  17.062  33.392  31.031  0.1251 -0.1225 -0.1645
68837W        W11931  14.515   3.791  30.021  0.0163 -0.2457 -0.0794
68838W        W11932  16.238   2.955  28.869  0.0355 -0.3580 -0.1138
68839W        W11933  15.141   2.774  31.006  0.0627 -0.0098 -0.1034
68840W        W11934  16.755   1.127  28.364  0.3592  0.2866  0.1538
68841W        W11935  17.131   1.349  29.075 -0.1054  0.3858  0.4137
68842W        W11936  16.989  33.977  28.549  0.2948  0.4775  0.0198
68843W        W11937  19.391  34.195  30.231  0.0395 -0.1725  0.0774
68844W        W11938  18.303   1.335  27.713 -0.0978  0.0609  0.3370
68845W        W11939  17.456  33.705  31.702  0.3894 -0.2457  0.2062
68846W        W11940  14.119  34.663  31.398 -0.0951  0.3733  0.0492
68847W        W11941  18.166   2.649  28.641  0.1139 -0.2908 -0.4468
68848W        W11942  15.601   2.700  31.308  0.0486 -0.0314  0.0112
68849W        W11943  16.797   1.184  30.194 -0.2187  0.1483 -0.0687
68850W        W11944  15.354   2.277  31.415  0.0326  0.1287 -0.2120
68851W        W11945  16.665  34.373  28.474 -0.1848 -0.2407 -0.0528
68852W        W11946  15.895   0.010  28.007  0.1254 -0.1042  0.2266
68853W        W11947  16.263   1.455  30.128 -0.2076  0.1903  0.0512
68854W        W11948  18.152   2.700  28.102  0.1089 -0.1620 -0.0096
68855W        W11949  16.432   1.294  27.521 -0.2003 -0.2617 -0.1809
68856W        W11950  18.013  34.296  30.307  0.0129 -0.0939 -0.0257
68857W        W11951  15.342   2.355  31.916 -0.0031 -0.0564  0.2654
68858W        W11952  18.044   1.129  28.708 -0.0504  0.2786 -0.1745
68859W        W11953  16.706   3.228  28.232 -0.0347 -0.2600  0.0166
68860W        W11954  15.571   2.798  29.458  0.0195 -0.1703  0.1390
68861W        W11955  16.962   0.568  31.009  0.2129 -0.0484 -0.0718
68862W        W11956  18.388   2.267  28.865 -0.1976 -0.1111 -0.2811
68863W        W11957  18.505   0.535  28.873 -0.0711 -0.0943  0.1141
68864W        W11958  17.631   0.016  28.835 -0.2501  0.2227  0.0801
68865W        W11959  17.542   1.724  29.281 -0.2943  0.0704 -0.4324
68866W        W11960  16.915   0.713  30.390 -0.3575  0.2368  0.3159
68867W        W11961  14.501   0.222  31.642 -0.0307 -0.1400  0.0210
68868W        W11962  18.716   2.507  29.543 -0.2961 -0.1565 -0.1259
68869W        W11963  18.519   2.228  27.427  0.0559 -0.4326 -0.0438
68870W        W11964  18.038  33.869  29.931 -0.1118  0.1655 -0.1444
68871W        W11965  17.797   2.324  28.086  0.0432 -0.1991 -0.3017
68872W        W11966  17.231   1.309  28.218 -0.2690 -0.0488 -0.1871
68873W        W11967  16.050   1.105  29.883  0.5060  0.0208  0.1009
68874W        W11968  17.175  34.614  28.810 -0.0051 -0.1799 -0.1233
68875W        W11969  16.136   0.991  28.272 -0.0404  0.0793 -0.1961
68876W        W11970  17.685  34.389  31.006  0.1091  0.2720 -0.1281
68877W        W11971  16.258   2.628  27.815 -0.0320 -0.0910 -0.2235
68878W        W11972  17.884   2.798  30.500 -0.2058  0.0661  0.2425
68879W        W11973  18.289   1.579  28.825  0.0011  0.1867  0.0426
68880W        W11974  16.793  34.593  29.842  0.1156  0.2085 -0.3684
68881W        W11975  14.846   4.056  31.708 -0.0554 -0.1775  0.0622
68882W        W11976  15.316   2.687  27.645  0.0782 -0.0846 -0.0383
68883W        W11977  16.140   1.343  29.438 -0.2139  0.0751 -0.1795
68884W        W11978  17.649   1.460  29.785 -0.3024  0.1275  0.0126
68885W        W11979  18.028   2.003  30.988  0.1093  0.1745 -0.1948
68886W        W11980  17.602   0.691  27.511  0.1284 -0.1550  0.3067
68887W        W11981  18.135   0.108  29.576 -0.1288  0.0548  0.1731
68888W        W11982  13.924   2.226  29.008 -0.0393  0.0622  0.0730
68889W        W11983  18.536   1.154  28.701  0.3490  0.2175 -0.0729
68890W        W11984  14.486   4.743  29.013 -0.2880  0.3361  0.2457
68891W        W11985  13.784   2.276  31.305  0.1750 -0.0164  0.0050
68892W        W11986  14.590   3.224  28.646 -0.2427 -0.1407  0.0209
68893W        W11987  17.843  32.888  28.970 -0.2401 -0.2593 -0.1108
68894W        W11988  17.953   1.387  29.147  0.0474 -0.0693  0.3145
68895W        W11989  15.231   2.309  29.999 -0.1098  0.0749  0.1463
68896W        W11990  17.375   0.134  30.198  0.0169  0.2624 -0.1300
68897W        W11991  16.818   2.188  30.123  0.2235  0.0210  0.0340
68898W        W11992  16.728   2.861  29.555 -0.0497 -0.1970 -0.2013
68899W        W11993  17.124   3.816  31.253 -0.0001 -0.4567 -0.1130
68900W        W11994  17.882   2.250  29.690 -0.1193  0.0634  0.1714
68901W        W11995  14.237   2.518  29.399  0.3460 -0.0208  0.0028
68902W        W11996  14.472   1.786  30.465 -0.0417  0.0596 -0.0364
68903W        W11997  17.547  34.274  30.129 -0.4114  0.2823 -0.0639
68904W        W11998  16.989   1.908  29.693  0.2002 -0.1307 -0.3454
68905W        W11999  14.904  34.091  28.864 -0.1071 -0.2083  0.1674
68906W        W12000  16.986   3.307  27.474 -0.3624  0.1975 -0.0541
68907W        W12001  15.870   2.240  31.046 -0.0281 -0.0681 -0.1241
68908W        W12002  14.282   2.092  30.838  0.4238  0.0408  0.1684
68909W        W12003  15.222   3.121  28.642 -0.1449 -0.0601  0.1200
68910W        W12004  17.160   3.044  27.864  0.1322 -0.2260 -0.1648
68911W        W12005  17.305   2.113  28.924  0.1786 -0.0622 -0.2393
68912W        W12006  17.259   3.091  31.734  0.0292 -0.1508 -0.0132
68913W        W12007  16.242   1.360  28.012  0.0596 -0.1318  0.0611
68914W        W12008  16.190   3.768  29.367  0.0113  0.0091  0.0765
68915W        W12009  15.996   2.565  28.665  0.0904  0.1585  0.1943
68916W        W12010  17.698   3.255  27.569 -0.1875  0.0110  0.1878
68917W        W12011  17.243   3.493  30.381 -0.0659 -0.0182  0.3207
68918W        W12012  19.253   1.537   0.369  0.2499  0.1514  0.2660
68919W        W12013  17.493   1.528  27.769 -0.0427  0.0432  0.1979
68920W        W12014  17.373   2.998  30.380  0.1331  0.2617  0.3045
68921W        W12015  18.762   1.404  29.036 -0.0289  0.1273 -0.0018
68922W        W12016  17.164   1.811  31.060 -0.2204 -0.1183  0.2835
68923W        W12017  17.523   1.264  28.796 -0.0065 -0.1476 -0.1488
68924W        W12018  18.088   0.521  28.162  0.1616 -0.3114  0.0584
68925W        W12019  15.689   3.593  31.715 -0.0106  0.1690  0.0395
68926W        W12020  19.369  34.288  31.041 -0.0955  0.0092  0.0746
68927W        W12021  14.570   3.541   0.352 -0.1252  0.3667  0.1677
68928W        W12022  18.108   3.562  28.023  0.0183 -0.3293  0.3876
68929W        W12023  16.147   1.801  28.300 -0.0794 -0.1440 -0.0871
68930W        W12024  17.357   2.164  29.474  0.0350 -0.2421 -0.1123
68931W        W12025  18.696  33.548  30.345 -0.1428 -0.3359  0.1853
68932W        W12026  16.824   2.903  27.195  0.0772  0.2077  0.0973
68933W        W12027  17.179   0.847  29.324  0.1164 -0.1564  0.1161
68934W        W12028  16.872   3.684  27.810 -0.0550 -0.2110  0.0670
68935W        W12029  16.934   3.123  30.617 -0.0378 -0.2403 -0.1694
68936W        W12030  15.262   3.161  30.740 -0.4213 -0.0101  0.0498
68937W        W12031  14.665   0.021  27.085 -0.0075  0.0855 -0.0738
68938W        W12032  19.091   1.601  29.432  0.0503  0.1609  0.2249
68939W        W12033  16.526   0.706  30.780  0.0899  0.3076  0.1497
68940W        W12034  18.890   0.414  29.636 -0.2815  0.1632  0.0830
68941W        W12035  15.452  34.647  28.135 -0.1016  0.0378 -0.2921
68942W        W12036  17.953   0.995  27.396  0.2331  0.0159  0.0804
68943W        W12037  17.604   1.776  30.219 -0.1348 -0.3587 -0.2429
68944W        W12038  15.305   1.697  31.722  0.0169  0.0359 -0.2194
68945W        W12039  16.525   2.529  28.562 -0.0398  0.0867 -0.1489
68946W        W12040  19.285  34.426  29.777  0.1117 -0.1706 -0.2673
68947W        W12041  16.755   2.124  28.835 -0.0248  0.0683  0.1509
68948W        W12042  16.426   3.821  31.410  0.2580 -0.1994  0.1059
68949W        W12043  15.404  34.433  29.061  0.0784 -0.0576 -0.2952
68950W        W12044  15.608   1.289  29.409  0.0798 -0.2308 -0.2168
68951W        W12045  15.556   2.178  30.459 -0.1736  0.1042  0.1273
68952W        W12046  16.016   2.051  30.594 -0.2422  0.2453 -0.0940
68953W        W12047  18.172   2.766  31.478 -0.0436  0.0894  0.1522
68954W        W12048  14.904   0.338  29.831  0.1120 -0.2441  0.2913
68955W        W12049  16.960   2.131  27.266 -0.0732 -0.3329 -0.1061
68956W        W12050  16.338   2.292  30.901 -0.0056  0.1467 -0.0466
68957W        W12051  16.774   3.000  28.723  0.3166  0.0137  0.3264
68958W        W12052  18.515   1.278  29.501  0.0881 -0.2171  0.1338
68959W        W12053  18.336   3.784  30.876  0.0522  0.3377  0.0593
68960W        W12054  14.275   2.072  29.886 -0.3160 -0.1899  0.2628
68961W        W12055  16.103   2.763  31.095  0.1290 -0.1758 -0.0237
68962W        W12056  17.512   2.671  30.817  0.0875  0.1273  0.0886
68963W        W12057  16.720  33.985  28.089 -0.0140  0.1314  0.0752
68964W        W12058  16.526   1.378  29.753 -0.0899 -0.2705  0.2106
68965W        W12059  15.713   3.081  28.445  0.0265  0.1050 -0.1388
68966W        W12060  17.283   0.369  28.526  0.1564  0.0659  0.0627
68967W        W12061  18.517  34.492  30.485  0.0912  0.1643 -0.0561
68968W        W12062  16.793   4.819  27.858 -0.3489 -0.2417 -0.0064
68969W        W12063  17.437   0.656  31.106  0.0785 -0.2780 -0.1036
68970W        W12064  16.465   2.244  29.680  0.0778 -0.1006 -0.1696
68971W        W12065  16.541   3.656   0.522  0.1302  0.1233  0.1063
68972W        W12066  16.222   2.150  28.668 -0.2886 -0.4077 -0.0447
68973W        W12067  15.591   2.746  31.793  0.1683 -0.0262 -0.1123
68974W        W12068  15.507   3.236  30.213 -0.0314  0.0823  0.2765
68975W        W12069  17.508   3.186  29.312  0.0732 -0.0188  0.0929
68976W        W12070  17.959   2.813  29.507 -0.1444 -0.2270  0.2276
68977W        W12071  17.365   0.419  27.999  0.1208 -0.1563  0.0315
68978W        W12072  17.415   3.594  28.927 -0.1029 -0.2347 -0.2159
68979W        W12073  15.622   0.434  27.816  0.0578  0.0143  0.1274
68980W        W12074  19.360   0.049  28.097  0.0973 -0.0767 -0.1162
68981W        W12075  16.833  34.050  27.271  0.1094  0.0344  0.0335
68982W        W12076  15.653   1.801  31.300 -0.1316 -0.0751 -0.0668
68983W        W12077  15.363   1.767  29.047  0.1049 -0.4811  0.1656
68984W        W12078  15.998   3.316  26.693 -0.2348  0.1768  0.1369
68985W        W12079  15.389   2.252  30.934  0.1535  0.2162  0.0508
68986W        W12080  17.972  33.794  30.905  0.1910  0.1110  0.0632
68987W        W12081  15.323   1.054   0.438  0.1069  0.0260 -0.0628
68988W        W12082  15.019   1.254  29.976  0.0254  0.1101  0.0823
68989W        W12083  15.571  34.381  28.577  0.0549 -0.0177 -0.1333
68990W        W12084  17.543   3.734  28.229 -0.0340  0.0678  0.0878
68991W        W12085  16.291   0.137  28.472 -0.1801  0.2406 -0.0559
68992W        W12086  15.572  34.289  29.544 -0.1776 -0.0592  0.0707
68993W        W12087  18.075   3.128  28.348 -0.0214  0.1242 -0.0730
68994W        W12088  17.900   2.703  27.237  0.1542  0.0444 -0.1202
68995W        W12089  16.596   0.992  27.922 -0.1624  0.1385 -0.2053
68996W        W12090  18.005   3.197  31.673  0.1692  0.0015 -0.3749
68997W        W12091  14.142   2.036  26.835 -0.0321 -0.1730  0.1866
68998W        W12092  17.672   1.022  30.687  0.0527 -0.0363 -0.1447
68999W        W12093  16.139  33.741  31.102  0.1255 -0.0584  0.1887
69000W        W12094  14.872   1.014  27.947 -0.1839 -0.1045 -0.1091
69001W        W12095  17.972   1.077  29.555 -0.0923  0.1076  0.0248
69002W        W12096  17.403   1.042  29.818 -0.3085  0.0021  0.1137
69003W        W12097  16.927   3.590  28.589 -0.3368  0.0173  0.1725
69004W        W12098  14.641   2.453  30.917  0.4022  0.1733  0.3435
69005W        W12099  15.871   5.068  31.192 -0.3318  0.0443  0.2023
69006W        W12100  16.016   0.437  29.657 -0.0191  0.1703  0.2092
69007W        W12101  15.965   3.042  29.316 -0.1257 -0.0217  0.0213
69008W        W12102  17.190   1.934  30.460  0.0999 -0.2802 -0.0621
69009W        W12103  17.854   4.380  28.461 -0.2366 -0.2352 -0.1731
69010W        W12104  18.507  34.511  29.403  0.1800 -0.1513 -0.2471
69011W        W12105  18.369   3.601  27.260 -0.1291  0.3757  0.0222
69012W        W12106  15.576   0.949  31.306  0.2111 -0.0330  0.0636
69013W        W12107  15.906   1.631  29.777 -0.0836 -0.2407  0.1774
69014W        W12108  18.465   2.345  31.123  0.2181  0.0903 -0.0093
69015W        W12109  16.404  33.458  29.306  0.0121  0.0003  0.1768
69016W        W12110  16.844   0.790  26.953  0.1007  0.1524 -0.0500
69017W        W12111  16.870   2.284  29.375  0.1941 -0.1719 -0.1279
69018W        W12112  17.043   1.410  29.634 -0.1343 -0.0509  0.3067
69019W        W12113  16.341   1.702  28.889  0.0707 -0.1712 -0.0941
69020W        W12114  17.352   1.008  30.280  0.0717 -0.0064 -0.1014
69021W        W12115  17.380   2.994  28.850 -0.0100 -0.0090  0.0567
69022W        W12116  18.241   0.038  31.104  0.0179  0.2018 -0.2001
69023W        W12117  16.351   2.172  29.173  0.1075 -0.2570  0.0578
69024W        W12118  19.140   0.804  26.636  0.3121  0.2629 -0.2032
69025W        W12119  19.711   2.897  30.490 -0.1306 -0.0730  0.0497
69026W        W12120  18.427   4.217  30.649  0.1496 -0.1966 -0.0239
69027W        W12121  16.207   3.922  31.955 -0.2347  0.1704 -0.2904
69028W        W12122  18.228   1.176  29.955 -0.2042 -0.2785  0.1153
69029W        W12123  13.770  33.790  31.493 -0.2164 -0.3046  0.2149
69030W        W12124  15.844   2.089  27.900  0.3823  0.0433 -0.0580
69031W        W12125  15.403   1.704  29.730 -0.0462 -0.3309 -0.3000
69032W        W12126  17.930   1.763  29.535  0.0731  0.2391 -0.2222
69033W        W12127  16.342  34.432  28.904 -0.1928 -0.1592  0.4393
69034W        W12128  17.238   0.993  27.803 -0.1569 -0.0036 -0.2154
69035W        W12129  15.771   2.823  30.314  0.1567  0.2520  0.0843
69036W        W12130  17.072   3.551  30.846 -0.1705  0.2090 -0.3374
69037W        W12131  17.524  34.074  29.709  0.0066 -0.0777  0.2105
69038W        W12132  16.342   1.952  30.083  0.0093 -0.2338 -0.2001
69039W        W12133  15.371   1.134  31.728 -0.2607  0.0187  0.0502
69040W        W12134  16.690   1.778  31.235  0.0291  0.0007  0.1426
69041W        W12135  15.845   1.421  31.672 -0.2844  0.5450 -0.1087
69042W        W12136  14.004   4.268  31.834  0.1933 -0.1204  0.2804
69043W        W12137  17.576  33.789  30.142  0.2895  0.2313 -0.1716
69044W        W12138  16.185   0.824  29.396  0.1689  0.1569  0.1511
69045W        W12139  17.197   1.034  31.397  0.0123  0.0742 -0.1447
69046W        W12140  18.036   1.748  31.600  0.3470 -0.1495  0.0964
69047W        W12141  16.430   2.384   0.446 -0.3169 -0.1301 -0.0140
69048W        W12142  16.606   0.948  31.188  0.1363 -0.0981 -0.1798
69049W        W12143  17.608   1.749   0.403 -0.0305 -0.1073  0.3623
69050W        W12144  16.159   1.862  31.115 -0.3387  0.1007  0.2379
69051W        W12145  18.280   1.339  31.735  0.2083 -0.0317  0.2802
69052W        W12146  15.061   3.868   0.260 -0.0694  0.1234 -0.1580
69053W        W12147  14.081   2.541  30.964  0.3227 -0.0917  0.0454
69054W        W12148  17.644   2.881   1.054  0.0359  0.0151 -0.1652
69055W        W12149  15.941   0.292  31.091  0.0430 -0.3332  0.0351
69056W        W12150  16.155   0.992  30.826  0.2152 -0.1448  0.1166
69057W        W12151  15.870   0.716  31.602 -0.0795  0.2004 -0.0564
69058W        W12152  15.775   3.969   1.566 -0.2000  0.0161  0.1815
69059W        W12153  17.648  33.552   1.508  0.1248  0.1854 -0.1212
69060W        W12154  16.441   0.877  31.649  0.1718  0.3956 -0.0663
69061W        W12155  17.295  34.313  31.313 -0.0246  0.0973  0.4904
69062W        W12156  16.714  34.506   0.656 -0.1079  0.0366  0.0296
69063W        W12157  16.113   1.203  31.335 -0.2149 -0.0255  0.2861
69064W        W12158  13.739   3.347  29.394 -0.1591  0.0143 -0.3580
69065W        W12159  14.954   1.423  31.942  0.1983 -0.1376 -0.2975
69066W        W12160  16.373   1.336  31.956 -0.0895  0.2954 -0.3157
69067W        W12161  15.944   2.412   0.040  0.0673  0.0655  0.7006
69068W        W12162  14.892   0.542  31.630  0.1254  0.1606 -0.2241
69069W        W12163  16.888   0.263  30.200 -0.2392  0.5605 -0.0289
69070W        W12164  17.269  34.189  31.866  0.1264 -0.2736  0.0108
69071W        W12165  14.754   1.532  31.525 -0.2747 -0.2864  0.0337
69072W        W12166  17.080   0.973  30.815  0.0476 -0.0147  0.0180
69073W        W12167  16.350   3.582   0.997  0.3563 -0.3895 -0.5050
69074W        W12168  16.650   2.584  31.285  0.0242  0.0347 -0.0781
69075W        W12169  17.665   1.895  31.293 -0.3365 -0.2427  0.0077
69076W        W12170  16.875   1.129   0.697  0.0513  0.2353 -0.2063
69077W        W12171  17.216   1.599  31.545  0.0186  0.2688 -0.0613
69078W        W12172  17.099   0.030  31.628 -0.1163  0.1542  0.1744
69079W        W12173  17.714  34.069  30.598  0.0177 -0.1001 -0.1540
69080W        W12174  15.682   2.597  30.795 -0.0948  0.3308 -0.0642
69081W        W12175  14.813   1.406  30.527  0.0111  0.1317  0.0757
69082W        W12176  16.868   1.605  30.723 -0.1989  0.4327 -0.1361
69083W        W12177  16.876  34.459   1.509  0.2909  0.3463 -0.0872
69084W        W12178  17.467   2.173  29.950 -0.1085  0.1005  0.0418
69085W        W12179  17.802   2.923  31.157 -0.1278 -0.1570 -0.1290
69086W        W12180  14.802   2.592   0.579  0.3167  0.1923  0.2054
69087W        W12181  17.182   4.389   1.517 -0.0856  0.0918 -0.0441
69088W        W12182  17.964  32.821   1.727 -0.1680  0.0773  0.0952
69089W        W12183  17.286  33.443   0.139  0.1089 -0.1591 -0.0650
69090W        W12184  16.628  34.527  30.837  0.0533  0.0522  0.1217
69091W        W12185  17.214  34.038  30.516  0.3001  0.0524  0.1608
69092W        W12186  16.955   1.373  31.120  0.0123  0.1007 -0.0420
69093W        W12187  19.640   3.364  31.416  0.1386  0.1143  0.0729
69094W        W12188  14.312   3.936   0.558  0.0059  0.2060  0.1460
69095W        W12189  15.562   4.750   1.929 -0.0612 -0.1059 -0.0298
69096W        W12190  14.894   2.281   1.088 -0.0137  0.0207 -0.0636
69097W        W12191  14.990   0.704   1.045  0.4007  0.1960 -0.0843
69098W        W12192  16.083   1.658   0.382  0.0771 -0.2163  0.0128
69099W        W12193  15.264   1.787   0.895 -0.1010 -0.1039 -0.2420
69100W        W12194  14.513   0.902  31.379 -0.0500 -0.2013  0.2878
69101W        W12195  16.971   3.232  31.346  0.0400 -0.0840 -0.1955
69102W        W12196  18.262   2.585   0.061  0.0390 -0.1648 -0.1359
69103W        W12197  19.003   1.960  31.883  0.2952  0.0253 -0.0614
69104W        W12198  15.603   5.118  18.659 -0.1292 -0.0755  0.1708
69105W        W12199  15.119   3.500  16.978 -0.0637  0.2412  0.1544
69106W        W12200  16.960   3.456  15.736  0.0248 -0.3617 -0.3743
69107W        W12201  19.176   5.103  16.991 -0.0184  0.2867 -0.2160
69108W        W12202  12.966   4.531  18.759 -0.1024  0.1730 -0.0359
69109W        W12203  16.390   6.865  16.882  0.0306  0.1780 -0.5504
69110W        W12204  15.737   3.175  19.705  0.1964  0.0570 -0.0080
69111W        W12205  15.814   6.305  17.912 -0.3416 -0.0821  0.1020
69112W        W12206  17.714   8.031  17.119 -0.0311  0.2913  0.2643
69113W        W12207  16.650   6.603  17.346 -0.1544  0.0782  0.2247
69114W        W12208  16.353   5.214  18.256 -0.2123  0.2644 -0.0442
69115W        W12209  17.575   6.551  19.192 -0.1712 -0.1661  0.0657
69116W        W12210  14.571   3.699  17.041 -0.0194 -0.5035  0.2687
69117W        W12211  14.666   0.144  17.421 -0.3308 -0.0436  0.2252
69118W        W12212  16.876   4.269  18.492  0.0931  0.1556 -0.0665
69119W        W12213  14.295   5.866  16.055 -0.1182  0.1959  0.0672
69120W        W12214  16.596   3.858  18.261  0.2739  0.1354  0.1246
69121W        W12215  15.385   4.674  16.401  0.1503  0.2123  0.2241
69122W        W12216  15.628   5.705  18.041  0.0545  0.0815  0.0533
69123W        W12217  16.165   4.403  20.215  0.0351  0.0544 -0.4000
69124W        W12218  17.412   4.117  20.234  0.1651  0.2777  0.1125
69125W        W12219  15.452   5.581  17.145  0.1191  0.0855 -0.1817
69126W        W12220  13.976   3.917  16.092  0.1584  0.0982 -0.0343
69127W        W12221  12.813   3.101  17.151 -0.1402 -0.0858 -0.1737
69128W        W12222  15.404   5.732  19.033  0.1427 -0.1930  0.2091
69129W        W12223  18.143   4.471  18.983 -0.3942 -0.0940  0.2278
69130W        W12224  16.606   5.151  17.741  0.1080  0.0427 -0.0077
69131W        W12225  15.408   4.964  17.376  0.1884  0.2801  0.1615
69132W        W12226  16.076   6.276  18.786 -0.1291  0.1611 -0.0475
69133W        W12227  18.053   3.903  19.102  0.0608 -0.1509 -0.4324
69134W        W12228  14.662   5.255  17.291 -0.0275 -0.5226 -0.0449
69135W        W12229  14.400   7.558  16.457  0.4107  0.1638 -0.0913
69136W        W12230  16.035   5.835  17.348  0.2680 -0.1838  0.0903
69137W        W12231  18.142   5.225  16.870  0.3294  0.0076 -0.4543
69138W        W12232  18.447   7.772  18.907 -0.0104 -0.0704  0.0204
69139W        W12233  16.494   5.664  19.425  0.0922 -0.1923 -0.1319
69140W        W12234  14.438   5.781  15.585 -0.1800 -0.0164  0.2000
69141W        W12235  17.068   6.589  20.164 -0.2221 -0.1229 -0.0934
69142W        W12236  15.285   6.419  20.866  0.0001 -0.1145 -0.1513
69143W        W12237  15.917   3.620  17.181  0.1746  0.0076  0.0780
69144W        W12238  15.870   5.196  17.303  0.0404 -0.0534 -0.0508
69145W        W12239  17.297   6.680  18.108 -0.0768 -0.1558  0.0825
69146W        W12240  14.417   5.676  16.920  0.0794  0.3838 -0.0755
69147W        W12241  16.457   5.796  20.281  0.0449  0.1826 -0.0175
69148W        W12242  14.328   5.019  17.679  0.0809 -0.0051  0.0329
69149W        W12243  18.949   5.260  18.874  0.2839  0.2488 -0.2671
69150W        W12244  15.860   6.320  16.523  0.1007  0.1552  0.0411
69151W        W12245  16.930   4.114  16.005 -0.2058  0.0944 -0.0860
69152W        W12246  16.628   3.389  16.978  0.0089  0.1718 -0.3227
69153W        W12247  17.215   3.698  16.209  0.1169 -0.0287  0.2053
69154W        W12248  15.131   3.320  16.431  0.3709 -0.1449  0.1520
69155W        W12249  15.651   6.123  19.126 -0.0046 -0.2587  0.0694
69156W        W12250  16.458   3.686  17.681 -0.0349  0.0225  0.0339
69157W        W12251  16.932   5.880  18.423  0.0543 -0.1374  0.1371
69158W        W12252  16.184   4.354  16.331 -0.0208 -0.1948 -0.1231
69159W        W12253  17.239   4.459  19.400  0.1160  0.0857 -0.1865
69160W        W12254  15.724   6.231  17.374 -0.2707 -0.3213  0.2098
69161W        W12255  14.548   4.050  17.568 -0.1537 -0.1023  0.1236
69162W        W12256  17.767   6.223  16.120  0.0292  0.0083  0.1278
69163W        W12257  18.980   6.537  17.501  0.3643 -0.2871 -0.0710
69164W        W12258  14.949   4.777  17.351  0.2216 -0.1311  0.1573
69165W        W12259  14.886   5.690  17.125 -0.0416  0.1917 -0.0449
69166W        W12260  14.963   6.351  18.354  0.1763 -0.3698 -0.2373
69167W        W12261  15.623   4.156  19.684 -0.1929  0.3452 -0.1660
69168W        W12262  15.696   3.528  15.495  0.1944  0.1737 -0.2518
69169W        W12263  17.429   5.535  17.716 -0.2517 -0.0025  0.2891
69170W        W12264  15.327   6.174  18.690 -0.1484 -0.1570  0.0398
69171W        W12265  17.221   4.408  16.472 -0.1616 -0.2018  0.0313
69172W        W12266  15.931   3.153  17.138  0.0083 -0.1607 -0.1715
69173W        W12267  17.549   7.558  18.262 -0.0709 -0.1667 -0.0605
69174W        W12268  17.520   4.048  16.769 -0.2028 -0.0963  0.2126
69175W        W12269  17.091   3.717  18.382 -0.2676  0.0194 -0.2050
69176W        W12270  17.278   3.521  18.923 -0.2415  0.1602 -0.0667
69177W        W12271  17.062   6.650  16.583  0.0753 -0.0128 -0.2982
69178W        W12272  17.864   3.008  16.960 -0.0718  0.0789  0.1234
69179W        W12273  18.234   5.979  18.127  0.2085 -0.0704  0.0858
69180W        W12274  17.129   5.078  15.830  0.0131  0.0949  0.2280
69181W        W12275  14.839   6.368  19.502 -0.1117 -0.1027 -0.1442
69182W        W12276  17.460   4.005  19.149 -0.0553  0.5042 -0.1243
69183W        W12277  16.398   6.014  19.825  0.1777 -0.3066 -0.3110
69184W        W12278  15.228   6.033  17.249  0.2221  0.0646 -0.0304
69185W        W12279  13.462   5.778  16.843 -0.2978 -0.0738  0.1726
69186W        W12280  15.167   5.506  16.619  0.1279  0.0576 -0.1467
69187W        W12281  14.318   3.382  19.600 -0.1531 -0.0377  0.0866
69188W        W12282  15.662   5.161  17.995  0.1380  0.3184 -0.2463
69189W        W12283  18.415   2.537  16.449 -0.1889  0.0083  0.3642
69190W        W12284  14.955   4.373  17.562 -0.2425  0.1863 -0.1771
69191W        W12285  17.058   2.336  16.495  0.0100  0.1106 -0.0347
69192W        W12286  14.666   4.381  17.185 -0.3258  0.4463  0.1652
69193W        W12287  17.645   6.681  17.330 -0.1288 -0.3154 -0.0232
69194W        W12288  18.868   6.096  17.159  0.4370  0.1093 -0.2187
69195W        W12289  17.357   7.050  16.994 -0.3520 -0.2481  0.2405
69196W        W12290  13.773   4.348  16.460  0.0186 -0.0054 -0.1838
69197W        W12291  14.074   3.966  16.632  0.2629  0.0046 -0.1585
69198W        W12292  15.119   2.531  19.694  0.0027 -0.2838 -0.1493
69199W        W12293  14.191   3.622  17.352 -0.1917 -0.1349 -0.2572
69200W        W12294  17.879   5.300  18.711 -0.1098 -0.0423 -0.0478
69201W        W12295  13.717   4.101  15.139 -0.0601 -0.0092 -0.0440
69202W        W12296  16.298   3.244  17.958  0.0745  0.1138  0.1411
69203W        W12297  14.666   6.106  16.926  0.0968  0.0444 -0.1462
69204W        W12298  17.412   4.771  17.303 -0.1030 -0.1676  0.1898
69205W        W12299  17.581   4.760  18.968 -0.0209  0.3710 -0.0116
69206W        W12300  15.263   4.537  18.500 -0.0503  0.3712 -0.0404
69207W        W12301  17.696   5.313  18.125 -0.2373 -0.1217  0.1511
69208W        W12302  17.460   7.087  18.424  0.1791  0.1017  0.0755
69209W        W12303  15.127   3.162  19.912  0.1454 -0.1189 -0.1101
69210W        W12304  12.838   5.231  16.566  0.0147 -0.0291  0.1723
69211W        W12305  15.190   6.640  16.095 -0.0517 -0.0100 -0.0935
69212W        W12306  16.442   3.824  17.180  0.0133  0.1963 -0.2585
69213W        W12307  15.386   2.841  17.831 -0.0570 -0.1058 -0.3169
69214W        W12308  17.094   5.065  17.684 -0.0432  0.2294  0.3194
69215W        W12309  16.443   5.186  17.133 -0.1427  0.2076 -0.2503
69216W        W12310  14.020   5.148  18.625 -0.1388  0.0924 -0.1722
69217W        W12311  17.745   3.042  18.660  0.0289  0.2068  0.1011
69218W        W12312  17.152   5.983  17.903  0.0694 -0.1489  0.1937
69219W        W12313  17.034   6.204  17.401 -0.1377 -0.1126 -0.0218
69220W        W12314  15.067   4.150  15.296  0.0177  0.0170 -0.2107
69221W        W12315  16.552   7.267  17.240 -0.1098  0.4218  0.1330
69222W        W12316  13.872   6.662  17.405 -0.0125 -0.0801 -0.1081
69223W        W12317  14.516   4.865  16.909 -0.0371  0.2913 -0.2231
69224W        W12318  16.287   4.371  17.328  0.1407  0.3169 -0.1242
69225W        W12319  17.630   5.032  17.636  0.2632  0.1869  0.0742
69226W        W12320  15.863   3.868  19.357 -0.3659 -0.2510  0.2207
69227W        W12321  16.704   5.276  19.059 -0.3508  0.0087  0.3208
69228W        W12322  14.902   4.403  18.151  0.0455  0.0327 -0.1116
69229W        W12323  16.005   5.490  19.638  0.2873 -0.1012 -0.0900
69230W        W12324  17.061   3.518  16.707  0.1057  0.2287  0.2763
69231W        W12325  18.183   2.524  17.799  0.0589 -0.1871 -0.1125
69232W        W12326  18.089   4.668  20.449 -0.4457  0.1049  0.0862
69233W        W12327  17.416   5.331  17.258  0.0414 -0.1763 -0.2088
69234W        W12328  15.798   2.639  15.669  0.0766 -0.0995 -0.3568
69235W        W12329  16.198   4.005  16.704 -0.1526 -0.2752  0.0054
69236W        W12330  15.643   5.808  19.516  0.4834 -0.1237  0.1167
69237W        W12331  15.511   5.170  16.488  0.0539  0.0449  0.1060
69238W        W12332  15.943   4.670  18.739 -0.2498  0.0927 -0.0270
69239W        W12333  15.438   4.220  16.084  0.5274  0.2006 -0.0672
69240W        W12334  16.924   5.213  17.137  0.0012  0.1382 -0.1573
69241W        W12335  15.366   6.018  17.737  0.2483 -0.1609  0.0613
69242W        W12336  16.604   6.318  19.213  0.3389 -0.0255 -0.0940
69243W        W12337  17.978   6.304  17.852 -0.0239  0.0206  0.1150
69244W        W12338  15.738   3.388  19.198  0.0231 -0.1936  0.0929
69245W        W12339  16.418   5.560  17.512  0.0493  0.0122 -0.0867
69246W        W12340  15.799   3.378  17.619 -0.0654  0.1924 -0.0346
69247W        W12341  14.669   7.705  16.037  0.1664 -0.0675  0.1459
69248W        W12342  17.792   3.371  17.844 -0.0520 -0.0289 -0.1181
69249W        W12343  16.267   3.460  18.482 -0.1771  0.0353  0.1702
69250W        W12344  16.455   2.766  19.759  0.2526  0.1173 -0.0169
69251W        W12345  17.808   3.774  19.560  0.0246 -0.2160  0.1476
69252W        W12346  17.403   3.222  16.898  0.1332  0.1568 -0.2714
69253W        W12347  17.454   3.823  18.043  0.0653  0.0578  0.3422
69254W        W12348  14.322   4.295  16.285 -0.2580 -0.1020  0.0426
69255W        W12349  15.776   4.036  18.039 -0.2206 -0.0115  0.0491
69256W        W12350  15.194   4.444  19.906 -0.0774  0.0184  0.0295
69257W        W12351  15.214   5.096  19.248  0.3474 -0.1272 -0.2133
69258W        W12352  16.178   6.605  20.006  0.0366  0.1638  0.1503
69259W        W12353  16.685   3.771  16.605 -0.0044  0.0149  0.1584
69260W        W12354  17.163   4.351  18.908 -0.3472 -0.0208  0.0095
69261W        W12355  16.710   4.710  17.147 -0.3750 -0.1775 -0.1126
69262W        W12356  14.487   7.777  16.978  0.1231 -0.3749 -0.0617
69263W        W12357  15.594   6.183  16.080  0.1030  0.1012 -0.0842
69264W        W12358  16.369   3.562  20.241  0.5217  0.0029 -0.2459
69265W        W12359  17.111   4.918  16.794  0.1429 -0.2075 -0.0712
69266W        W12360  16.058   4.994  16.915  0.0592  0.4689 -0.0421
69267W        W12361  17.373   5.656  19.741  0.2362  0.5339 -0.1450
69268W        W12362  15.378   5.559  18.428 -0.3271  0.0588 -0.1232
69269W        W12363  16.608   4.779  18.220  0.1299 -0.0924 -0.1993
69270W        W12364  15.685   4.651  18.236  0.1711 -0.1304 -0.0513
69271W        W12365  14.486   4.012  15.949  0.2498 -0.0217 -0.0986
69272W        W12366  13.297   4.126  16.415  0.0916 -0.0586 -0.2321
69273W        W12367  15.121   3.014  16.898  0.0559 -0.2525  0.3597
69274W        W12368  18.185   4.584  16.182  0.0130 -0.2056  0.0013
69275W        W12369  15.141   3.781  18.887  0.0722 -0.1387 -0.3154
69276W        W12370  15.684   2.456  17.678 -0.0568  0.1014 -0.0024
69277W        W12371  13.581   6.651  16.165 -0.2582  0.2217 -0.3026
69278W        W12372  17.280   4.714  18.600  0.1330  0.2904 -0.1489
69279W        W12373  17.351   2.828  17.180 -0.1351 -0.1097  0.3311
69280W        W12374  15.750   4.804  17.674  0.0343  0.2128 -0.0081
69281W        W12375  16.362   4.131  19.228 -0.0353  0.0196 -0.1031
69282W        W12376  15.007   4.672  16.841 -0.1279  0.0210 -0.1801
69283W        W12377  17.390   4.396  17.802 -0.2198  0.1232  0.3583
69284W        W12378  16.611   4.302  20.834 -0.1518  0.3273 -0.0786
69285W        W12379  14.105   6.541  18.541  0.0860 -0.3477 -0.2159
69286W        W12380  16.457   5.702  18.838  0.1725  0.0175  0.0458
69287W        W12381  15.892   5.440  16.899 -0.0812 -0.1358  0.1890
69288W        W12382  14.974   3.981  17.185  0.0079  0.2387  0.4067
69289W        W12383  14.801   3.721  19.227  0.1049  0.0158  0.0586
69290W        W12384  16.197   5.375  19.137 -0.0136  0.1636 -0.1615
69291W        W12385  16.572   2.197  18.598 -0.0927  0.0417 -0.0129
69292W        W12386  15.191   2.313  17.843 -0.1505  0.1932  0.1956
69293W        W12387  16.243   4.818  17.518  0.2254 -0.2503  0.0319
69294W        W12388  16.985   5.471  19.399 -0.0784  0.0908  0.3809
69295W        W12389  14.449   6.466  18.146 -0.1879  0.1588 -0.1491
69296W        W12390  15.940   5.778  18.876 -0.3996 -0.0995 -0.0959
69297W        W12391  15.550   3.295  16.825  0.0889 -0.0600 -0.1469
69298W        W12392  18.723   6.966  16.758 -0.2527  0.2188  0.0992
69299W        W12393  16.950   3.863  18.921  0.1062 -0.1571 -0.1498
69300W        W12394  15.606   5.782  16.358 -0.1990  0.0384  0.0961
69301W        W12395  13.733   6.413  17.900 -0.0641 -0.2004 -0.1194
69302W        W12396  16.412   6.249  16.536 -0.0457 -0.4132 -0.3554
69303W        W12397  15.812   3.325  18.744  0.2795  0.3962 -0.2317
69304W        W12398  14.499   5.916  18.029 -0.1386 -0.0849  0.1366
69305W        W12399  15.186   5.972  16.727  0.1375 -0.0171  0.2943
69306W        W12400  16.960   6.850  18.576  0.2178 -0.0946 -0.2630
69307W        W12401  17.287   2.155  15.978  0.1215  0.1542 -0.0866
69308W        W12402  16.826   5.930  17.069 -0.2851  0.1197  0.1014
69309W        W12403  15.477   3.878  16.919 -0.1998  0.0786  0.0647
69310W        W12404  18.084   4.346  18.320  0.1610 -0.1131 -0.0403
69311W        W12405  18.307   5.363  16.045 -0.1361  0.1232 -0.2585
69312W        W12406  18.586   3.392  20.131  0.1054  0.4226  0.1075
69313W        W12407  14.996   2.823  18.144  0.0467 -0.2177  0.0378
69314W        W12408  19.022   5.402  17.906 -0.2127 -0.5378 -0.1774
69315W        W12409  13.924   3.533  19.359  0.0161 -0.0677 -0.1512
69316W        W12410  17.526   6.859  20.011  0.1016  0.1008  0.0175
69317W        W12411  15.978   4.574  19.426  0.1595  0.0718 -0.0423
69318W        W12412  16.588   4.213  16.920 -0.1568 -0.1888  0.0802
69319W        W12413  14.594   4.288  15.447  0.3866  0.1041  0.0475
69320W        W12414  15.552   4.315  17.603 -0.0500  0.2262 -0.2191
69321W        W12415  16.156   5.852  17.862  0.0162 -0.0768  0.0482
69322W        W12416  16.866   5.279  16.513  0.2485 -0.3386  0.0893
69323W        W12417  17.680   4.540  16.331  0.0834  0.0799 -0.1430
69324W        W12418  15.028   4.225  19.033  0.1633 -0.0894  0.3343
69325W        W12419  17.129   4.325  17.009  0.1789  0.0178 -0.3533
69326W        W12420  16.425   3.000  16.663 -0.1583 -0.1685 -0.2917
69327W        W12421  14.519   4.381  16.705 -0.1945  0.1915  0.1978
69328W        W12422  14.972   3.288  18.596  0.0619 -0.0895  0.0097
69329W        W12423  17.164   5.544  18.130  0.3013  0.0124 -0.3217
69330W        W12424  17.686   3.022  17.496 -0.0504  0.0925  0.2340
69331W        W12425  17.558   3.328  19.292 -0.0352 -0.3765 -0.2734
69332W        W12426  17.922   3.877  18.311 -0.1995 -0.3239 -0.0077
69333W        W12427  15.360   3.143  18.242  0.3751 -0.2454 -0.1200
69334W        W12428  13.810   3.991  20.145  0.1400  0.0923  0.0115
69335W        W12429  17.590   5.645  18.525  0.2716  0.1645 -0.0126
69336W        W12430  16.852   3.585  17.392 -0.3965 -0.0802  0.1321
69337W        W12431  18.223   3.469  17.554 -0.1734  0.2970  0.1774
69338W        W12432  18.005   4.194  17.139  0.0088 -0.1242 -0.0760
69339W        W12433  17.174   3.220  16.305 -0.2055  0.0927 -0.0051
69340W        W12434  14.920   3.042  17.391  0.0985  0.0180  0.2649
69341W        W12435  16.002   5.120  19.969 -0.0811  0.1240  0.1850
69342W        W12436  14.331   3.518  15.860  0.3067  0.0003 -0.1061
69343W        W12437  17.122   3.153  19.277  0.2616 -0.1669  0.1512
69344W        W12438  16.624   6.702  16.394  0.4023  0.1061 -0.0098
69345W        W12439  17.000   3.673  17.890  0.0297  0.0433 -0.1955
69346W        W12440  16.322   3.357  17.385  0.0587  0.2322  0.1789
69347W        W12441  15.002   3.604  18.211  0.1537 -0.2185 -0.2178
69348W        W12442  14.451   6.226  19.810  0.1258  0.0321  0.2132
69349W        W12443  13.617   4.729  16.146  0.1375  0.1631  0.1252
69350W        W12444  15.724   5.298  16.013  0.1028  0.2372 -0.0287
69351W        W12445  16.291   5.027  18.766 -0.0512 -0.1074 -0.0266
69352W        W12446  18.193   5.112  18.291 -0.0556  0.2115 -0.0327
69353W        W12447  15.930   2.978  16.669  0.2023  0.0773 -0.0797
69354W        W12448  16.177   5.025  19.480 -0.0511  0.1305  0.0202
69355W        W12449  14.104   4.803  16.138 -0.1637 -0.0946  0.3125
69356W        W12450  16.035   2.323  16.113 -0.0442  0.0851 -0.0810
69357W        W12451  15.657   7.156  19.359  0.0600 -0.1692 -0.3982
69358W        W12452  14.863   6.269  17.861 -0.1575  0.0442  0.2602
69359W        W12453  16.554   6.175  18.624 -0.1843 -0.1742 -0.2275
69360W        W12454  16.199   3.224  19.335 -0.1988  0.2991 -0.2827
69361W        W12455  16.888   5.166  18.167  0.3001 -0.0240 -0.1865
69362W        W12456  14.880   3.819  16.701  0.1697 -0.2943  0.2815
69363W        W12457  19.074   4.746  18.697 -0.0186 -0.1339 -0.0283
69364W        W12458  17.256   3.276  18.116  0.3299  0.1830 -0.1978
69365W        W12459  16.792   4.080  17.509  0.1215  0.2932 -0.1875
69366W        W12460  16.852   7.596  19.092 -0.3451 -0.0053  0.5179
69367W        W12461  18.313   6.494  18.453  0.1115  0.0077  0.0911
69368W        W12462  15.217   4.742  17.863  0.0734 -0.1227 -0.1593
69369W        W12463  15.237   4.449  20.555 -0.1203 -0.0143  0.0491
69370W        W12464  16.860   4.780  19.110  0.0883  0.0033 -0.1046
69371W        W12465  17.636   5.989  17.490  0.1692 -0.0303 -0.0351
69372W        W12466  13.344   3.247  15.614 -0.0517  0.1217  0.0469
69373W        W12467  15.846   5.937  16.865 -0.0169  0.1922 -0.2881
69374W        W12468  15.854   7.158  20.349  0.0168 -0.0971  0.0976
69375W        W12469  14.266   4.757  18.709 -0.1297  0.2888  0.0629
69376W        W12470  15.529   6.286  16.947 -0.1262 -0.2758  0.1059
69377W        W12471  17.487   5.350  16.478 -0.1475  0.1089 -0.3352
69378W        W12472  16.749   4.588  16.634 -0.4756 -0.4076  0.1365
69379W        W12473  16.671   6.414  19.779 -0.1397  0.0718  0.0997
69380W        W12474  15.746   4.381  16.757  0.0976  0.0672  0.1204
69381W        W12475  15.395   6.562  17.793 -0.0683 -0.0328  0.1780
69382W        W12476  13.910   5.402  15.512 -0.2486 -0.1463  0.0043
69383W        W12477  17.040   6.087  16.567 -0.1001 -0.0817 -0.1480
69384W        W12478  15.811   5.971  18.453  0.2200  0.0439 -0.1796
69385W        W12479  17.943   6.272  19.463 -0.2303  0.0085 -0.0755
69386W        W12480  16.947   2.965  16.771  0.1573  0.0197  0.4163
69387W        W12481  18.416   5.230  18.793 -0.0057 -0.1819  0.2332
69388W        W12482  18.375   3.789  17.178 -0.1513  0.0552  0.0026
69389W        W12483  15.197   6.464  20.376 -0.2300 -0.0823  0.3578
69390W        W12484  14.124   5.551  18.289  0.1116 -0.0721  0.0986
69391W        W12485  15.482   4.802  16.885  0.1412 -0.3205  0.2594
69392W        W12486  14.394   4.046  19.093  0.1236 -0.0424 -0.0049
69393W        W12487  18.239   3.101  18.761  0.1286  0.0008 -0.6717
69394W        W12488  15.505   6.190  20.143 -0.1683  0.1579  0.1034
69395W        W12489  17.516   7.919  15.860 -0.1693 -0.1855 -0.0792
69396W        W12490  14.723   2.409  17.786  0.3421  0.0482  0.1023
69397W        W12491  16.097   5.325  17.846  0.1939  0.0151 -0.0180
69398W        W12492  18.905   3.407  19.100 -0.1135  0.2356 -0.2232
69399W        W12493  16.896   3.834  16.999 -0.1520 -0.1684 -0.4854
69400W        W12494  16.776   3.362  18.390 -0.2274 -0.1709 -0.2670
69401W        W12495  15.663   7.199  17.369  0.2164  0.2764 -0.1087
69402W        W12496  14.993   5.012  16.476  0.0406 -0.1969 -0.0130
69403W        W12497  14.957   6.446  18.922 -0.0614 -0.2759  0.3070
69404W        W12498  13.236   3.392  16.552  0.1604 -0.2473 -0.0749
69405W        W12499  18.489   5.763  17.097 -0.2720  0.0198 -0.1027
69406W        W12500  16.812   4.948  18.620  0.1306  0.1093  0.2622
69407W        W12501  17.260   3.978  17.571 -0.2743 -0.2891  0.0650
69408W        W12502  14.078   6.494  16.588  0.2552  0.0337 -0.0683
69409W        W12503  16.618   4.170  16.323  0.1543  0.0885 -0.1826
69410W        W12504  16.971   4.124  18.021 -0.0020 -0.1273  0.3092
69411W        W12505  15.458   3.629  17.929  0.0746 -0.2144 -0.1584
69412W        W12506  15.202   5.191  16.999  0.3134  0.0344  0.1380
69413W        W12507  16.993   7.644  16.575 -0.0147 -0.1898  0.1007
69414W        W12508  16.066   6.040  16.171 -0.1213  0.1192  0.0566
69415W        W12509  16.207   7.757  20.848  0.1424 -0.0732 -0.1710
69416W        W12510  14.904   3.543  16.062 -0.1085  0.1646 -0.1127
69417W        W12511  16.251   3.632  16.370  0.2261 -0.0811 -0.0272
69418W        W12512  15.859   4.639  17.190  0.0582  0.1677 -0.1032
69419W        W12513  16.353   4.693  19.135  0.0841 -0.1326  0.0666
69420W        W12514  19.394   8.397  19.531  0.1865 -0.3635 -0.1176
69421W        W12515  15.094   3.270  17.821  0.1673  0.2172 -0.0356
69422W        W12516  18.532   6.417  17.892  0.0149  0.3817 -0.2411
69423W        W12517  17.543   4.281  17.327  0.3867 -0.0680  0.1819
69424W        W12518  16.332   7.374  16.077  0.0642  0.0019  0.0188
69425W        W12519  17.535   4.580  16.815  0.1561  0.2153 -0.3485
69426W        W12520  17.451   6.358  17.783  0.2893 -0.1638  0.1815
69427W        W12521  14.591   3.972  18.233  0.0079 -0.0548  0.0717
69428W        W12522  17.019   7.498  18.346  0.0109 -0.0536 -0.2212
69429W        W12523  16.958   6.420  18.338 -0.1988  0.1525  0.0830
69430W        W12524  17.816   2.099  17.879  0.3632 -0.0615 -0.1053
69431W        W12525  14.474   5.468  17.897  0.0476 -0.2055 -0.1952
69432W        W12526  15.055   6.508  16.795  0.3543  0.0868 -0.0467
69433W        W12527  18.648   2.860  17.730  0.0620  0.0364 -0.2576
69434W        W12528  18.582   4.256  19.111  0.0215  0.2619  0.0251
69435W        W12529  16.325   8.202  15.469 -0.0328  0.0909 -0.0105
69436W        W12530  18.757   2.774  19.539  0.2469  0.0152 -0.0761
69437W        W12531  16.491   4.379  17.849  0.0072  0.1795  0.1153
69438W        W12532  14.917   6.112  20.107  0.0424  0.1129 -0.0981
69439W        W12533  15.211   5.401  16.116 -0.0245 -0.0464  0.0208
69440W        W12534  15.082   4.059  18.448 -0.0154  0.0335  0.1441
69441W        W12535  17.604   5.070  16.864  0.1601  0.2828  0.3648
69442W        W12536  13.957   7.758  17.684  0.3331  0.0504 -0.4574
69443W        W12537  19.037   6.933  17.881  0.0975  0.0600 -0.2803
69444W        W12538  16.245   4.513  16.890 -0.0325  0.1793 -0.1199
69445W        W12539  19.116   6.445  18.038  0.1202 -0.1686 -0.1138
69446W        W12540  15.420   3.705  15.892  0.2412  0.1195 -0.0254
69447W        W12541  18.430   2.663  18.674 -0.0731  0.4826  0.0116
69448W        W12542  16.251   2.375  17.623 -0.1588 -0.2798 -0.2183
69449W        W12543  15.239   6.044  19.697  0.1409 -0.3575 -0.2048
69450W        W12544  13.827   3.037  17.177  0.1064  0.1060  0.0497
69451W        W12545  15.374   6.383  16.477  0.0898  0.0843 -0.0031
69452W        W12546  14.389   4.909  19.508 -0.0543 -0.0332  0.0455
69453W        W12547  16.309   2.631  20.384 -0.0173  0.1165 -0.0347
69454W        W12548  14.073   3.739  18.749  0.2619 -0.0834  0.1557
69455W        W12549  14.256   4.079  17.125 -0.1752 -0.2077 -0.1654
69456W        W12550  14.810   3.583  17.448 -0.3615  0.0599 -0.0184
69457W        W12551  17.518   6.276  16.546 -0.1129 -0.1527 -0.0318
69458W        W12552  15.333   4.169  18.042 -0.0687  0.0425 -0.0817
69459W        W12553  15.115   1.863  18.308  0.0806 -0.0594 -0.0184
69460W        W12554  17.587   6.215  17.049  0.1051 -0.1644  0.1252
69461W        W12555  18.206   7.097  16.772 -0.3022  0.0790 -0.2675
69462W        W12556  15.806   4.168  17.169 -0.0787 -0.1792  0.0263
69463W        W12557  18.468   6.660  19.844  0.1251 -0.0528  0.2378
69464W        W12558  14.506   4.600  15.902 -0.0977  0.0062 -0.0850
69465W        W12559  15.243   3.485  19.427 -0.2916  0.2791 -0.3221
69466W        W12560  16.210   3.312  19.812 -0.0581  0.2716  0.0829
69467W        W12561  13.968   3.925  15.602  0.0997  0.0502 -0.3766
69468W        W12562  16.062   4.340  18.346 -0.1729 -0.0328 -0.0106
69469W        W12563  15.700   5.516  17.590 -0.0188 -0.0682  0.3490
69470W        W12564  16.130   8.449  16.056 -0.1535 -0.2750 -0.1210
69471W        W12565  17.154   6.974  19.095  0.0684  0.4379 -0.0907
69472W        W12566  16.165   6.066  19.277 -0.1834 -0.4842  0.1266
69473W        W12567  14.219   2.337  17.805 -0.0483 -0.4242 -0.4004
69474W        W12568  17.378   3.745  17.131  0.0926  0.0133  0.1547
69475W        W12569  16.800   5.896  19.084 -0.0649  0.1539  0.1845
69476W        W12570  18.521   5.450  16.640 -0.1651 -0.1223 -0.0657
69477W        W12571  18.549   4.603  18.123  0.1369  0.2247 -0.3613
69478W        W12572  17.310   4.513  15.978  0.0732 -0.2105  0.3242
69479W        W12573  13.064   4.094  20.399  0.1625 -0.1375  0.2402
69480W        W12574  15.389   4.676  19.503 -0.2617 -0.1370  0.1499
69481W        W12575  16.871   5.984  19.563  0.2356  0.0008  0.0346
69482W        W12576  14.973   3.938  17.796 -0.1063 -0.1680  0.3638
69483W        W12577  18.024   3.332  18.381 -0.1304  0.2318 -0.2496
69484W        W12578  17.332   3.389  17.537  0.0085 -0.0963  0.1701
69485W        W12579  15.670   3.755  18.908 -0.2170  0.1493 -0.0563
69486W        W12580  16.023   2.718  17.983 -0.1811  0.2053 -0.0002
69487W        W12581  16.105   4.831  18.037  0.1057  0.2714 -0.1358
69488W        W12582  16.659   5.639  18.079  0.1215  0.0136  0.1271
69489W        W12583  18.605   5.600  18.533  0.0931  0.3624  0.0041
69490W        W12584  14.889   4.519  16.165  0.0585  0.4857 -0.0416
69491W        W12585  17.910   4.913  16.509 -0.1542 -0.0810 -0.3063
69492W        W12586  17.000   8.223  17.737 -0.0066  0.1739  0.0477
69493W        W12587  17.888   5.771  19.460 -0.2568 -0.0652  0.1963
69494W        W12588  16.142   7.041  18.191  0.1052  0.1283  0.0298
69495W        W12589  16.286   5.822  18.406  0.4392  0.0012  0.0117
69496W        W12590  14.241   3.574  18.297 -0.1985 -0.1241  0.1201
69497W        W12591  14.722   6.914  17.064  0.1240  0.1904 -0.2701
69498W        W12592  14.740   4.912  18.530 -0.4022  0.4512  0.1512
69499W        W12593  17.367   4.290  18.295 -0.2369 -0.1898  0.1945
69500W        W12594  14.749   5.282  16.799 -0.1070  0.2866 -0.1647
69501W        W12595  15.805   3.690  16.600 -0.0913  0.3003 -0.0763
69502W        W12596  14.932   7.607  18.754 -0.0083 -0.1435 -0.2175
69503W        W12597  16.450   4.547  18.685 -0.1222  0.1082  0.0154
69504W        W12598  16.789   5.706  22.682  0.1175 -0.0736 -0.0434
69505W        W12599  15.953   3.759  19.832  0.2196  0.0542 -0.1660
69506W        W12600  18.927   5.151  19.359 -0.0600  0.2865 -0.3537
69507W        W12601  18.053   5.130  19.708 -0.1018  0.1120  0.1730
69508W        W12602  14.850   4.869  21.276  0.0022  0.0338 -0.0666
69509W        W12603  16.403   7.064  21.636  0.0946  0.0319  0.1719
69510W        W12604  15.397   3.744  23.375 -0.1384  0.0269 -0.1779
69511W        W12605  16.923   7.495  23.795  0.2088 -0.0682 -0.0298
69512W        W12606  16.962   7.246  22.418  0.0195  0.0863  0.1470
69513W        W12607  17.716   4.447  20.684  0.2118 -0.1857 -0.0728
69514W        W12608  15.532   4.489  21.622 -0.0205  0.0178  0.0959
69515W        W12609  15.618   7.378  24.443 -0.2300 -0.1687  0.2544
69516W        W12610  15.405   1.827  20.424  0.2812 -0.0001  0.0637
69517W        W12611  14.048   2.928  21.568  0.0006 -0.0664 -0.0601
69518W        W12612  17.457   4.987  23.863 -0.0583 -0.2513  0.0184
69519W        W12613  14.505   6.019  20.376 -0.0584  0.3523 -0.1505
69520W        W12614  15.173   4.421  22.038 -0.0135 -0.1460  0.0554
69521W        W12615  14.878   6.083  21.115 -0.2167  0.2137  0.0401
69522W        W12616  16.593   7.426  20.095  0.0676  0.0744  0.1149
69523W        W12617  15.332   3.477  22.870  0.2320  0.0315  0.0957
69524W        W12618  16.811   4.102  22.967 -0.1333 -0.0059  0.2128
69525W        W12619  16.189   8.265  20.855  0.3919 -0.0361  0.2406
69526W        W12620  14.404   4.480  18.297 -0.0963  0.2612  0.0611
69527W        W12621  14.285   4.876  22.493  0.0331  0.0541 -0.0722
69528W        W12622  15.991   4.359  22.631  0.0024 -0.1137 -0.2320
69529W        W12623  15.706   3.613  21.469 -0.1095  0.4074  0.2261
69530W        W12624  16.863   6.002  21.298 -0.1304  0.0615 -0.0680
69531W        W12625  16.501   6.379  21.190 -0.0091  0.0567 -0.1731
69532W        W12626  15.955   8.455  22.288 -0.0369  0.3328  0.0019
69533W        W12627  17.474   4.517  24.009 -0.0806 -0.2040  0.4333
69534W        W12628  15.733   5.624  22.560  0.0986  0.3589  0.3355
69535W        W12629  15.227   6.303  21.478  0.2018  0.0947  0.5020
69536W        W12630  15.717   6.688  19.644  0.0055 -0.1242  0.1842
69537W        W12631  18.029   4.028  20.542 -0.0918 -0.0008 -0.1005
69538W        W12632  16.099   6.202  20.259  0.1185 -0.0991  0.0660
69539W        W12633  15.389   7.365  23.283  0.0342  0.2261 -0.2244
69540W        W12634  15.680   5.296  19.270 -0.1539 -0.3380  0.1374
69541W        W12635  17.023   7.296  24.255  0.0194  0.2993  0.0227
69542W        W12636  15.824   5.849  23.682 -0.0756 -0.1359 -0.1205
69543W        W12637  16.207   4.923  23.224 -0.1213  0.1040  0.0423
69544W        W12638  16.362   4.932  20.339 -0.0728  0.0261 -0.0077
69545W        W12639  14.813   5.595  20.001  0.2690 -0.0547  0.0594
69546W        W12640  15.484   5.205  20.894 -0.1114 -0.2844  0.2160
69547W        W12641  15.658   3.774  23.876 -0.0776  0.0455  0.3160
69548W        W12642  16.309   6.630  22.529  0.2584 -0.3526  0.1933
69549W        W12643  17.054   4.955  22.205  0.2301  0.0699  0.3680
69550W        W12644  14.961   6.823  20.653 -0.1386  0.2226 -0.2412
69551W        W12645  16.531   4.450  21.517  0.1737  0.0009  0.1882
69552W        W12646  16.418   3.972  18.715 -0.3062  0.1287  0.1025
69553W        W12647  16.800   4.140  19.378  0.0265  0.2822 -0.0677
69554W        W12648  16.134   3.725  21.824 -0.0289 -0.0052  0.0329
69555W        W12649  15.963   5.646  21.501 -0.0735 -0.0333  0.1204
69556W        W12650  16.387   3.863  23.665 -0.1847 -0.0994 -0.0201
69557W        W12651  17.727   5.922  23.928 -0.2779 -0.3125 -0.1213
69558W        W12652  16.137   5.386  20.456 -0.3062  0.2664 -0.1180
69559W        W12653  17.636   4.413  22.380  0.1828  0.1618  0.1268
69560W        W12654  16.003   6.924  22.791 -0.1407 -0.0526  0.0186
69561W        W12655  13.766   4.365  21.299 -0.0294  0.0337  0.0909
69562W        W12656  17.221   4.984  20.331 -0.2008  0.0383  0.2007
69563W        W12657  19.929   7.021  19.382  0.1441  0.3826 -0.0229
69564W        W12658  15.200   5.577  19.542 -0.0229  0.1107 -0.1189
69565W        W12659  14.756   4.692  22.212 -0.1734 -0.0390 -0.0465
69566W        W12660  14.800   6.368  24.081  0.3097  0.1336 -0.0717
69567W        W12661  14.797   5.831  24.415 -0.4449 -0.2759  0.0571
69568W        W12662  16.363   3.090  18.842  0.1700  0.1583 -0.1109
69569W        W12663  17.013   4.576  23.918 -0.1832 -0.2015  0.0564
69570W        W12664  16.194   6.993  23.301 -0.5633 -0.0729  0.1052
69571W        W12665  17.147   2.272  21.206 -0.3129  0.0400  0.0154
69572W        W12666  14.861   5.319  21.678 -0.4773  0.3736  0.2373
69573W        W12667  15.885   8.647  22.754 -0.1532 -0.0159  0.2524
69574W        W12668  16.596   6.412  20.278 -0.4485  0.0887 -0.1469
69575W        W12669  17.610   4.493  21.686 -0.2563 -0.1089 -0.1131
69576W        W12670  15.433   3.652  21.035  0.3533 -0.2601 -0.1718
69577W        W12671  14.498   4.838  20.945  0.1145 -0.2655  0.0676
69578W        W12672  14.625   5.371  21.131  0.3805 -0.2070 -0.1596
69579W        W12673  17.345   5.808  22.197  0.1584 -0.3399  0.0807
69580W        W12674  16.026   4.568  21.634  0.0829 -0.0764  0.0584
69581W        W12675  15.724   6.233  20.571  0.1229 -0.1817  0.0736
69582W        W12676  14.044   4.347  24.502  0.2155 -0.1652  0.1191
69583W        W12677  14.922   6.574  23.085  0.3252  0.0424 -0.0960
69584W        W12678  14.263   6.499  19.427  0.0457  0.0854  0.0553
69585W        W12679  14.164   4.924  21.968 -0.1392  0.1611  0.1740
69586W        W12680  14.924   6.116  20.599  0.0451 -0.0336 -0.1583
69587W        W12681  14.594   4.144  22.855 -0.4894  0.2285  0.0315
69588W        W12682  16.281   5.492  21.876  0.1908 -0.3958  0.0618
69589W        W12683  17.117   4.493  20.370  0.2083  0.0113  0.4359
69590W        W12684  14.559   4.513  24.864  0.0534  0.1450 -0.1308
69591W        W12685  17.004   3.659  22.088  0.3237  0.0123  0.3077
69592W        W12686  16.199   5.182  21.499 -0.2099  0.0290  0.0628
69593W        W12687  18.596   7.014  20.694  0.1934  0.0119 -0.1186
69594W        W12688  17.671   4.716  20.173  0.0994 -0.2561  0.1435
69595W        W12689  17.701   4.724  19.583 -0.2428 -0.2706 -0.1866
69596W        W12690  13.370   4.973  22.621 -0.5113  0.0335  0.0128
69597W        W12691  14.996   4.392  21.482  0.0151 -0.1130 -0.1173
69598W        W12692  14.596   3.727  23.567  0.1470  0.0159  0.0676
69599W        W12693  14.905   4.046  21.850  0.0503  0.0852 -0.1137
69600W        W12694  18.582   4.543  22.450 -0.1085  0.2212 -0.0678
69601W        W12695  14.579   2.357  18.673  0.0025  0.0073  0.1681
69602W        W12696  16.800   2.989  21.925 -0.0249  0.1304  0.0259
69603W        W12697  15.494   4.806  21.988  0.2495  0.0895  0.2219
69604W        W12698  15.103   5.536  20.856  0.0066  0.0474 -0.1392
69605W        W12699  18.005   3.198  24.688 -0.0001  0.0262  0.2765
69606W        W12700  14.588   6.714  19.762 -0.1463 -0.1207 -0.0307
69607W        W12701  17.157   7.146  22.937 -0.0032  0.2562  0.1548
69608W        W12702  16.575   6.987  22.154  0.1450  0.1706  0.3370
69609W        W12703  15.117   5.122  22.121 -0.0896  0.1104 -0.1627
69610W        W12704  15.485   3.576  19.897  0.3854  0.3333 -0.0218
69611W        W12705  15.367   5.934  21.002 -0.1654 -0.1727 -0.2007
69612W        W12706  17.011   5.355  19.928  0.3229 -0.0694 -0.1553
69613W        W12707  14.931   3.543  20.951 -0.1953 -0.0757 -0.2235
69614W        W12708  16.382   7.939  21.838 -0.2651 -0.1871  0.0435
69615W        W12709  15.401   5.439  21.782 -0.0043 -0.2230  0.1260
69616W        W12710  15.168   5.301  23.094 -0.0023  0.0776 -0.1671
69617W        W12711  15.803   4.571  21.174 -0.2014  0.0341  0.2293
69618W        W12712  18.170   6.485  22.619 -0.0351  0.2850  0.0939
69619W        W12713  15.603   4.761  20.751  0.5490 -0.0525  0.1729
69620W        W12714  14.244   3.950  20.510  0.3619 -0.2312  0.1766
69621W        W12715  17.294   5.558  22.725 -0.0021  0.1137  0.0624
69622W        W12716  15.075   5.245  18.736 -0.3830  0.1901 -0.2973
69623W        W12717  13.644   5.801  20.305  0.1962  0.2619 -0.0189
69624W        W12718  15.591   6.229  22.675 -0.0070 -0.2132  0.0085
69625W        W12719  17.819   2.970  20.463 -0.3131 -0.0624 -0.0118
69626W        W12720  14.051   6.045  23.550 -0.0657  0.2010  0.1052
69627W        W12721  16.581   4.002  21.660  0.0253  0.1064  0.0184
69628W        W12722  14.187   4.494  20.385 -0.6173  0.1114  0.1946
69629W        W12723  15.429   8.427  23.286  0.0450 -0.0619  0.2213
69630W        W12724  17.545   3.912  21.534 -0.0446  0.3242 -0.0011
69631W        W12725  17.871   4.752  18.568 -0.0575 -0.0026  0.0746
69632W        W12726  16.703   5.277  23.158 -0.1057  0.2064  0.0159
69633W        W12727  17.567   5.854  20.652 -0.0750  0.0603  0.1725
69634W        W12728  16.867   3.926  20.350 -0.0609  0.0486  0.0924
69635W        W12729  16.163   3.622  18.995 -0.0192 -0.2152 -0.2740
69636W        W12730  14.715   5.972  22.740  0.1065 -0.0544 -0.1437
69637W        W12731  17.036   7.109  20.891  0.2489 -0.1529 -0.2518
69638W        W12732  16.881   5.621  23.940 -0.1399  0.0246  0.0867
69639W        W12733  15.736   4.740  19.863  0.0120 -0.0977 -0.1688
69640W        W12734  17.733   4.717  21.186  0.2820 -0.0559  0.0671
69641W        W12735  15.484   5.990  22.231 -0.0518 -0.2241  0.0127
69642W        W12736  16.323   7.473  23.104 -0.0910 -0.0676 -0.0626
69643W        W12737  17.430   5.306  22.272  0.3273 -0.0518  0.0412
69644W        W12738  15.351   2.920  22.685  0.1274 -0.1534  0.2317
69645W        W12739  15.541   4.145  18.528  0.0031 -0.2145  0.2667
69646W        W12740  14.966   2.755  20.122  0.0882  0.2283  0.1849
69647W        W12741  14.705   5.334  19.544 -0.1734 -0.0719  0.0402
69648W        W12742  16.287   3.164  22.135  0.2451 -0.1311  0.1728
69649W        W12743  16.228   3.061  21.656  0.3287 -0.1785  0.3300
69650W        W12744  15.823   2.480  23.535 -0.0981 -0.2079 -0.1428
69651W        W12745  17.756   4.602  23.522 -0.0100 -0.3686 -0.1236
69652W        W12746  16.672   5.155  19.538 -0.1318 -0.0674 -0.0910
69653W        W12747  16.780   3.693  22.635 -0.1130 -0.0649  0.1451
69654W        W12748  15.256   4.832  20.169 -0.0376  0.1055 -0.1715
69655W        W12749  15.247   1.909  22.611  0.2625 -0.1724  0.0049
69656W        W12750  14.213   4.715  24.229  0.0259 -0.0259  0.0565
69657W        W12751  14.504   6.413  22.840 -0.2696  0.2385  0.1152
69658W        W12752  15.550   4.512  22.901  0.0222  0.2683 -0.2125
69659W        W12753  17.418   4.084  19.723  0.0841 -0.0801 -0.0787
69660W        W12754  16.955   3.262  23.424  0.2470  0.1318 -0.0196
69661W        W12755  15.420   2.673  21.368  0.0048 -0.1697  0.3109
69662W        W12756  15.405   6.969  20.351 -0.1152  0.0056 -0.2745
69663W        W12757  15.232   5.242  21.318  0.2244  0.0050 -0.0589
69664W        W12758  16.485   3.136  21.009  0.0335 -0.0055 -0.0972
69665W        W12759  16.515   6.095  23.061  0.0266 -0.1073  0.0960
69666W        W12760  17.013   6.465  19.380 -0.1114 -0.1151 -0.2022
69667W        W12761  16.157   5.219  22.313  0.0561 -0.2238 -0.0543
69668W        W12762  15.096   7.371  20.154  0.1001 -0.0924 -0.1212
69669W        W12763  17.384   2.271  22.127 -0.0040  0.0287  0.0297
69670W        W12764  14.315   6.400  21.907 -0.1568  0.2316 -0.0524
69671W        W12765  14.759   4.068  20.062  0.0532 -0.2369 -0.1811
69672W        W12766  14.906   4.886  19.711  0.0285 -0.0793 -0.0852
69673W        W12767  16.724   3.395  20.630 -0.1661 -0.3309 -0.2102
69674W        W12768  16.880   6.560  20.637  0.0727  0.3804  0.0110
69675W        W12769  14.932   3.991  23.314  0.1885 -0.3268 -0.2594
69676W        W12770  15.333   4.713  21.144  0.0326  0.1491 -0.0747
69677W        W12771  14.088   5.653  21.666  0.1195 -0.0750  0.0608
69678W        W12772  17.603   4.851  22.521 -0.2496  0.1675 -0.2960
69679W        W12773  16.795   3.520  19.955  0.0410  0.0032  0.1197
69680W        W12774  17.718   6.458  22.755  0.0350  0.1143  0.3169
69681W        W12775  14.297   6.481  23.811  0.0661  0.1683  0.0648
69682W        W12776  13.878   4.046  19.238 -0.7157  0.0381  0.0422
69683W        W12777  17.782   4.055  20.987  0.0592  0.3263 -0.1626
69684W        W12778  16.128   4.182  19.647 -0.1778  0.2953 -0.0108
69685W        W12779  13.438   6.725  20.783  0.1049  0.3965  0.1667
69686W        W12780  16.034   6.363  22.869  0.2471  0.0388  0.3512
69687W        W12781  15.450   4.209  21.163 -0.0415 -0.0714  0.0828
69688W        W12782  14.859   6.056  21.751 -0.2460 -0.0971 -0.4156
69689W        W12783  15.249   4.656  22.541 -0.0193 -0.0551  0.0921
69690W        W12784  16.752   4.565  21.991 -0.0866 -0.2712  0.0125
69691W        W12785  15.670   4.228  20.606 -0.0988  0.1804  0.3673
69692W        W12786  14.708   2.915  19.642  0.2118 -0.0599 -0.1857
69693W        W12787  16.314   4.659  19.799  0.1952  0.0159 -0.0060
69694W        W12788  16.201   3.173  23.131 -0.1656 -0.2537  0.0279
69695W        W12789  16.861   6.015  22.219 -0.2896  0.1498  0.0902
69696W        W12790  12.978   7.759  22.615 -0.1962  0.1753  0.0302
69697W        W12791  15.160   3.887  22.235  0.1863  0.0766  0.0112
69698W        W12792  18.427   6.786  20.300  0.0516 -0.3050  0.1106
69699W        W12793  17.212   4.437  22.969 -0.3852  0.5460 -0.0092
69700W        W12794  13.526   4.650  20.851 -0.3141  0.0170 -0.3503
69701W        W12795  16.847   4.928  23.438  0.0422 -0.0638 -0.0608
69702W        W12796  15.282   5.810  20.409  0.1206  0.1794  0.1302
69703W        W12797  16.911   4.075  21.196 -0.1606  0.2134  0.1911
69704W        W12798  15.338   6.394  21.902  0.1286 -0.3481  0.0015
69705W        W12799  15.895   5.434  18.437 -0.1034  0.1312 -0.2255
69706W        W12800  16.453   5.310  22.722 -0.1108  0.0418 -0.2968
69707W        W12801  17.172   3.629  21.004  0.1054 -0.0529 -0.1888
69708W        W12802  15.479   5.639  19.944  0.1780  0.0008 -0.0219
69709W        W12803  15.059   4.994  20.747 -0.1390  0.1564  0.2556
69710W        W12804  17.483   3.098  22.676  0.2604 -0.2012 -0.2920
69711W        W12805  18.086   4.609  19.903  0.2244 -0.2423  0.3643
69712W        W12806  17.081   3.287  22.911 -0.2278  0.3920 -0.1806
69713W        W12807  15.239   4.083  22.893  0.1507  0.1076  0.1102
69714W        W12808  17.179   4.980  19.522  0.0239  0.3636  0.0048
69715W        W12809  14.566   5.879  23.656 -0.0568 -0.0195 -0.4525
69716W        W12810  16.116   7.199  24.531 -0.1990  0.1186  0.1913
69717W        W12811  16.013   6.335  23.870 -0.3208  0.2650  0.2367
69718W        W12812  16.303   3.128  20.501 -0.1011 -0.0565 -0.1563
69719W        W12813  14.694   2.651  20.603  0.1634 -0.0112  0.3047
69720W        W12814  15.588   4.973  21.504 -0.1492  0.1169 -0.2443
69721W        W12815  16.315   6.241  22.070  0.0887  0.0779  0.0518
69722W        W12816  14.972   5.593  22.061 -0.1968  0.0452 -0.3106
69723W        W12817  17.325   3.541  19.705 -0.5049  0.1091 -0.1345
69724W        W12818  15.145   4.852  21.667  0.1108 -0.1585  0.1684
69725W        W12819  17.050   3.787  21.581 -0.0936  0.0621  0.0265
69726W        W12820  16.036   4.988  20.788  0.1750 -0.1133  0.0464
69727W        W12821  13.802   5.124  21.671 -0.0887 -0.0912 -0.3971
69728W        W12822  15.774   4.829  22.384 -0.4187 -0.0205  0.0109
69729W        W12823  15.855   4.080  21.560  0.1584 -0.1959  0.2092
69730W        W12824  16.318   4.122  21.194  0.0686  0.0239  0.1104
69731W        W12825  16.357   4.147  22.135  0.1941 -0.4348 -0.1162
69732W        W12826  16.870   3.730  23.431 -0.1443  0.0045  0.1850
69733W        W12827  14.974   2.986  23.465 -0.2109 -0.0861  0.1164
69734W        W12828  14.754   3.175  23.841  0.2629 -0.1445 -0.1290
69735W        W12829  18.157   7.372  21.794 -0.1277  0.0778 -0.0166
69736W        W12830  17.856   5.091  21.609 -0.1571  0.2187  0.1533
69737W        W12831  17.546   4.138  23.227  0.1477 -0.2778  0.0418
69738W        W12832  18.787   5.978  21.220 -0.1296 -0.1604  0.0596
69739W        W12833  16.014   3.850  18.438  0.2329 -0.2115  0.1119
69740W        W12834  14.620   5.148  22.076 -0.0491 -0.1201 -0.2107
69741W        W12835  17.840   6.085  23.405 -0.2831 -0.3035  0.1289
69742W        W12836  15.248   4.024  20.208 -0.1470 -0.3271  0.1195
69743W        W12837  17.425   5.828  23.470 -0.3700  0.0406  0.3877
69744W        W12838  16.334   7.322  20.584  0.1571  0.0828  0.1649
69745W        W12839  17.046   5.725  21.713  0.2082  0.1389 -0.3394
69746W        W12840  15.883   4.767  20.357 -0.4649 -0.1332 -0.0529
69747W        W12841  14.015   4.433  23.363 -0.0546 -0.1413  0.0075
69748W        W12842  14.029   6.508  24.441 -0.1250  0.2233 -0.0938
69749W        W12843  14.726   3.682  20.500  0.0524 -0.0837  0.3365
69750W        W12844  16.004   3.892  17.613 -0.1425 -0.0672 -0.3336
69751W        W12845  16.416   6.193  23.551 -0.0743  0.2015 -0.1988
69752W        W12846  18.036   5.864  25.548 -0.2782  0.0584 -0.1019
69753W        W12847  15.959   2.216  19.287 -0.0308 -0.1891  0.0300
69754W        W12848  16.968   4.817  21.661  0.1847  0.1090 -0.0149
69755W        W12849  14.037   6.157  21.022 -0.0169  0.0115 -0.0067
69756W        W12850  17.184   3.515  20.241  0.2000 -0.4448  0.2259
69757W        W12851  16.381   5.678  22.321  0.1449  0.2247  0.2614
69758W        W12852  15.178   5.486  22.463 -0.1091 -0.1083  0.0248
69759W        W12853  16.010   5.446  21.027 -0.2108 -0.3299 -0.2054
69760W        W12854  15.676   3.693  20.412 -0.3460  0.3314  0.5048
69761W        W12855  16.447   5.644  21.344 -0.3673 -0.1397  0.0776
69762W        W12856  15.547   4.205  22.449 -0.0118 -0.1663 -0.4130
69763W        W12857  18.354   4.418  22.960 -0.0803 -0.1931 -0.0119
69764W        W12858  18.475   5.279  23.213 -0.0505  0.0424  0.1892
69765W        W12859  16.910   5.488  22.262  0.5073  0.2993 -0.0550
69766W        W12860  17.947   5.151  22.166 -0.2734 -0.1847 -0.1821
69767W        W12861  17.310   5.920  21.067 -0.1993  0.5827  0.1909
69768W        W12862  15.800   5.665  22.031 -0.1989 -0.0636  0.0877
69769W        W12863  15.588   4.281  23.323  0.1909 -0.4231 -0.1188
69770W        W12864  16.741   4.383  24.315 -0.2219  0.0303  0.0115
69771W        W12865  16.226   4.661  22.141  0.0391  0.1839 -0.2317
69772W        W12866  15.774   3.171  20.775 -0.0387  0.0220  0.0481
69773W        W12867  14.349   5.221  21.574 -0.2316 -0.2804  0.0289
69774W        W12868  14.124   7.293  23.283 -0.4187  0.0688 -0.1262
69775W        W12869  15.968   5.247  22.858 -0.0127 -0.2993  0.0347
69776W        W12870  15.424   7.740  21.710 -0.3707 -0.4268 -0.0958
69777W        W12871  17.942   5.145  20.215  0.1578 -0.2256 -0.0038
69778W        W12872  16.174   7.095  20.043 -0.0289 -0.0308 -0.0819
69779W        W12873  16.012   6.019  23.243 -0.1143 -0.0973 -0.1070
69780W        W12874  16.884   4.079  19.836  0.1582 -0.1387 -0.2435
69781W        W12875  15.695   6.070  21.414  0.0700  0.1122 -0.0438
69782W        W12876  14.354   5.534  20.283 -0.1359 -0.0166 -0.2888
69783W        W12877  16.557   6.552  21.725 -0.0257 -0.2323 -0.1218
69784W        W12878  15.162   7.316  19.207  0.0410 -0.2003  0.3112
69785W        W12879  15.865   6.207  21.899 -0.2977  0.1365 -0.3226
69786W        W12880  16.998   2.216  19.798 -0.2219 -0.1972 -0.0916
69787W        W12881  17.075   3.136  19.880  0.1129  0.0218 -0.3612
69788W        W12882  15.583   5.214  20.414 -0.2407 -0.0937 -0.1931
69789W        W12883  16.988   6.356  24.668 -0.2422 -0.0252  0.0826
69790W        W12884  15.294   3.943  21.552 -0.0575  0.1614  0.2027
69791W        W12885  16.014   2.826  19.995 -0.1870 -0.0312  0.2619
69792W        W12886  15.267   4.129  23.725 -0.0959  0.0972  0.1323
69793W        W12887  18.954   2.162  21.814  0.0279  0.1212 -0.2192
69794W        W12888  15.315   6.735  23.483  0.2136 -0.0461 -0.0539
69795W        W12889  16.876   5.772  20.661  0.0972  0.4093  0.1294
69796W        W12890  15.937   5.056  21.901  0.1662  0.1299 -0.0866
69797W        W12891  14.421   6.267  21.358  0.0945  0.0489 -0.0620
69798W        W12892  17.991   2.655  22.020 -0.1043 -0.1278  0.2841
69799W        W12893  15.896   7.152  21.703 -0.3626  0.1736  0.2345
69800W        W12894  17.094   4.153  20.741  0.2340 -0.1214  0.2665
69801W        W12895  16.280   6.850  20.956 -0.1753  0.2809  0.0004
69802W        W12896  16.635   7.481  21.579  0.1266 -0.1060 -0.1271
69803W        W12897  15.566   5.546  21.235 -0.0706 -0.4442  0.2300
69804W        W12898  13.259   4.819  20.390 -0.1241 -0.3525  0.0561
69805W        W12899  18.967   4.672  19.805  0.0024  0.1787 -0.0822
69806W        W12900  14.770   4.658  22.729  0.1318 -0.1933 -0.1748
69807W        W12901  19.060   4.575  23.165  0.3130  0.0800  0.0484
69808W        W12902  14.552   3.698  21.590  0.0354 -0.0150  0.0654
69809W        W12903  16.716   4.955  20.000 -0.2505 -0.2005  0.1328
69810W        W12904  17.069   4.553  22.496 -0.1387 -0.2349  0.2818
69811W        W12905  17.195   4.936  23.013  0.0331  0.1549 -0.1156
69812W        W12906  17.351   6.030  19.272 -0.1421  0.1804 -0.2021
69813W        W12907  16.422   4.343  23.889 -0.1433 -0.2283  0.2503
69814W        W12908  17.489   5.152  19.963  0.0857  0.1003  0.0138
69815W        W12909  18.126   6.905  22.956  0.1205  0.0591 -0.1952
69816W        W12910  14.422   4.699  23.455 -0.0320  0.1656 -0.0532
69817W        W12911  16.910   3.001  21.458  0.0980  0.0431 -0.0465
69818W        W12912  13.849   6.159  21.555 -0.1975  0.2087 -0.1399
69819W        W12913  16.187   2.834  22.730 -0.0038 -0.0386  0.0536
69820W        W12914  16.743   6.920  23.958  0.5662  0.0903  0.1376
69821W        W12915  15.415   3.117  20.415 -0.0639  0.0600 -0.2006
69822W        W12916  18.544   6.927  19.359 -0.2006 -0.2415 -0.2691
69823W        W12917  16.652   5.089  21.361 -0.1039 -0.2649 -0.0067
69824W        W12918  16.616   6.833  19.496  0.0374  0.0312 -0.3092
69825W        W12919  18.163   5.760  20.930 -0.4664  0.1441 -0.0723
69826W        W12920  16.747   6.819  22.632  0.1614  0.0360  0.1456
69827W        W12921  14.947   3.438  23.354  0.1354  0.3089 -0.0969
69828W        W12922  18.399   5.032  22.323 -0.1247  0.1339 -0.2558
69829W        W12923  18.179   5.955  22.771  0.0493  0.0302  0.2616
69830W        W12924  16.785   4.611  19.635  0.2529 -0.2058 -0.1793
69831W        W12925  14.537   4.489  21.293  0.0809  0.2508  0.0537
69832W        W12926  15.447   5.132  19.793 -0.1259 -0.1300  0.1102
69833W        W12927  16.814   4.810  20.609  0.2238 -0.0244 -0.2102
69834W        W12928  15.567   3.945  21.924 -0.1728 -0.0397 -0.0435
69835W        W12929  15.320   6.473  19.354 -0.0455  0.3020  0.0413
69836W        W12930  16.484   3.332  23.512 -0.1103 -0.1382 -0.4370
69837W        W12931  17.407   7.605  23.189 -0.1650  0.0149  0.0078
69838W        W12932  15.517   7.415  23.883 -0.0234 -0.1387  0.0430
69839W        W12933  15.963   4.191  18.813  0.3768  0.0605  0.1826
69840W        W12934  17.297   4.743  23.475  0.0163 -0.4236  0.0710
69841W        W12935  16.427   5.654  20.811  0.0642  0.0245 -0.2933
69842W        W12936  15.937   7.294  20.892  0.0411 -0.2441  0.1191
69843W        W12937  17.063   6.357  21.053  0.1336 -0.2816 -0.0765
69844W        W12938  16.568   3.434  21.797 -0.2167  0.3235  0.1728
69845W        W12939  17.610   5.924  21.659  0.0638 -0.2222  0.0663
69846W        W12940  15.169   2.749  20.642 -0.2914 -0.2250  0.1606
69847W        W12941  19.390   2.872  18.958  0.2548  0.4169  0.2831
69848W        W12942  16.626   3.794  20.926  0.1166 -0.3104  0.0494
69849W        W12943  15.941   4.142  23.738 -0.3736 -0.0174 -0.2470
69850W        W12944  14.059   5.583  21.170 -0.3298  0.1300  0.2089
69851W        W12945  15.113   5.317  20.355  0.2000 -0.1853  0.0603
69852W        W12946  14.872   5.131  22.560  0.0637  0.0541  0.1619
69853W        W12947  15.859   3.530  23.420  0.1625  0.1419  0.1252
69854W        W12948  14.875   4.443  23.158 -0.0113 -0.0245 -0.1047
69855W        W12949  15.588   5.715  23.131  0.0555  0.0839 -0.0841
69856W        W12950  14.669   3.061  20.972 -0.1237 -0.2758 -0.0604
69857W        W12951  16.484   5.452  19.922  0.0022 -0.1358 -0.2042
69858W        W12952  15.232   3.628  20.592 -0.1890 -0.0299  0.0108
69859W        W12953  14.950   2.461  21.500 -0.3572 -0.1741 -0.0366
69860W        W12954  15.863   6.715  20.668  0.0575  0.2133  0.0038
69861W        W12955  17.136   6.183  20.526 -0.0146  0.0203  0.1515
69862W        W12956  16.109   4.427  20.761 -0.3761 -0.0288  0.2097
69863W        W12957  15.709   6.352  24.260  0.0609  0.3082 -0.0382
69864W        W12958  14.485   5.793  21.339 -0.1407  0.0682  0.0370
69865W        W12959  16.899   4.013  23.926 -0.0235 -0.0258 -0.1324
69866W        W12960  15.574   5.352  23.547 -0.0560 -0.0224 -0.0416
69867W        W12961  13.416   3.300  20.621  0.4630 -0.0557  0.2874
69868W        W12962  16.209   4.821  22.711 -0.1887  0.2260  0.2456
69869W        W12963  16.953   5.813  20.171  0.0127 -0.0170  0.2440
69870W        W12964  15.924   5.744  20.129 -0.1692 -0.1355  0.2332
69871W        W12965  16.312   4.699  21.124 -0.1197 -0.1259  0.0305
69872W        W12966  15.405   6.161  23.753 -0.0938  0.3135  0.5152
69873W        W12967  14.588   4.428  24.389  0.1986  0.3049 -0.2040
69874W        W12968  16.508   5.158  20.890 -0.4790 -0.1336  0.0927
69875W        W12969  15.577   7.203  22.547  0.1398 -0.0129 -0.0982
69876W        W12970  17.358   6.049  18.745 -0.1994  0.0529  0.0237
69877W        W12971  17.482   2.789  21.816 -0.1810  0.1564 -0.1470
69878W        W12972  17.253   4.630  19.895 -0.0540  0.0068 -0.1236
69879W        W12973  13.292   1.904  23.935  0.0456 -0.1665  0.0611
69880W        W12974  16.214   4.430  23.408  0.1348 -0.1315 -0.2279
69881W        W12975  17.112   6.228  21.857  0.1746 -0.0915 -0.0398
69882W        W12976  14.151   3.789  22.853  0.0737  0.0037 -0.1061
69883W        W12977  15.840   4.378  22.136 -0.0660 -0.1841  0.0105
69884W        W12978  16.623   6.149  20.765 -0.1514  0.2648  0.2023
69885W        W12979  14.003   5.831  22.116  0.0357 -0.1778 -0.1326
69886W        W12980  16.138   3.527  20.725  0.2790 -0.2719  0.3688
69887W        W12981  16.881   5.287  21.808  0.0442  0.2133 -0.0460
69888W        W12982  16.456   5.011  21.842 -0.2916 -0.2357 -0.1627
69889W        W12983  16.997   6.430  24.137  0.3710  0.2225 -0.0255
69890W        W12984  16.304   3.958  20.573  0.0564  0.1684 -0.0231
69891W        W12985  17.586   5.260  19.460 -0.2906 -0.2361  0.0206
69892W        W12986  17.331   6.662  23.221  0.0983 -0.1624 -0.0401
69893W        W12987  17.823   7.870  24.101  0.2354  0.2307 -0.2316
69894W        W12988  17.654   8.476  24.277  0.1532  0.0717 -0.2202
69895W        W12989  16.773   6.527  22.209  0.1091  0.0040 -0.2175
69896W        W12990  14.122   2.299  21.363 -0.1426  0.0234  0.0475
69897W        W12991  14.664   4.236  20.533 -0.1360 -0.1215 -0.2157
69898W        W12992  16.210   5.735  22.878  0.0601  0.1267  0.0809
69899W        W12993  16.614   6.036  21.700  0.2431 -0.1135 -0.0647
69900W        W12994  16.195   3.507  21.269 -0.2315 -0.2452  0.3219
69901W        W12995  16.677   4.428  20.125 -0.0299 -0.0910 -0.0539
69902W        W12996  16.015   7.559  23.553  0.0088  0.0736 -0.0423
69903W        W12997  17.087   5.378  23.530  0.2067  0.0411  0.1836
69904W        W12998  17.075   4.413  26.993 -0.0451 -0.0771  0.2448
69905W        W12999  17.292   4.144  23.685  0.1075  0.0757 -0.3255
69906W        W13000  17.758   3.657  22.881  0.0284  0.3611 -0.0356
69907W        W13001  17.431   5.497  23.874  0.1141 -0.0772 -0.3028
69908W        W13002  15.493   4.716  24.313 -0.1495  0.3597 -0.0977
69909W        W13003  16.857   6.877  25.335  0.1101 -0.0838  0.3299
69910W        W13004  15.029   3.418  27.257  0.0900 -0.1339 -0.0318
69911W        W13005  18.145   6.575  25.033  0.3203 -0.1172 -0.1084
69912W        W13006  19.330   6.824  25.555  0.0864  0.0574  0.0125
69913W        W13007  16.717   6.030  24.189 -0.1306 -0.2886  0.2812
69914W        W13008  16.236   4.248  26.665 -0.1340  0.1251  0.1959
69915W        W13009  15.503   5.750  26.127  0.0795 -0.1537 -0.1500
69916W        W13010  14.658   3.530  24.574 -0.0390  0.2540  0.0306
69917W        W13011  12.800   3.513  26.186  0.0730 -0.1746 -0.0925
69918W        W13012  17.554   5.512  26.152 -0.1790 -0.0682  0.5172
69919W        W13013  14.890   5.508  24.770  0.4071 -0.0654 -0.1273
69920W        W13014  14.928   5.341  26.207 -0.3730 -0.2356  0.2314
69921W        W13015  14.886   4.156  24.735 -0.1797  0.1046  0.0345
69922W        W13016  16.190   6.111  24.284 -0.0716  0.2728 -0.1573
69923W        W13017  17.308   3.297  25.997  0.1801 -0.2823  0.0790
69924W        W13018  17.601   4.439  26.996  0.1061 -0.1082  0.0787
69925W        W13019  15.677   5.872  24.542 -0.6455  0.0002 -0.3232
69926W        W13020  16.532   4.849  23.988  0.0239 -0.0460 -0.1876
69927W        W13021  15.701   4.980  25.590  0.1751  0.4413 -0.1368
69928W        W13022  15.865   5.476  25.756  0.1389  0.2190 -0.0689
69929W        W13023  17.805   3.387  25.461  0.1622 -0.1392  0.2001
69930W        W13024  17.106   4.187  25.498 -0.0485  0.2370  0.1244
69931W        W13025  15.105   5.778  25.245  0.1450 -0.1369  0.3329
69932W        W13026  17.572   5.964  25.922  0.2931 -0.4247  0.1452
69933W        W13027  17.353   3.634  27.706  0.0625 -0.2273 -0.2048
69934W        W13028  15.247   6.100  24.291 -0.0762  0.2005 -0.3689
69935W        W13029  14.616   8.551  25.606 -0.0364 -0.0901 -0.0360
69936W        W13030  15.187   5.939  24.747  0.0367 -0.2670 -0.0233
69937W        W13031  18.232   6.691  24.454 -0.1621 -0.0424 -0.0075
69938W        W13032  17.473   7.471  27.362  0.1048  0.1073 -0.0900
69939W        W13033  15.269   7.367  26.331 -0.0595  0.5877 -0.0136
69940W        W13034  14.644   5.602  22.410 -0.5301  0.1454 -0.1593
69941W        W13035  17.426   7.250  27.796  0.1514 -0.0112  0.0445
69942W        W13036  14.555   6.040  27.645  0.2421  0.4295  0.1149
69943W        W13037  15.357   4.916  25.191 -0.1656  0.1350 -0.0613
69944W        W13038  16.482   5.435  24.163  0.2414  0.1261 -0.1103
69945W        W13039  14.693   7.094  24.960  0.1682  0.2544  0.0252
69946W        W13040  14.940   5.296  25.249  0.2009 -0.1339  0.1310
69947W        W13041  14.501   6.693  27.108 -0.1549 -0.1538 -0.1446
69948W        W13042  15.381   5.517  24.946  0.0290  0.2052 -0.0414
69949W        W13043  18.364   5.542  26.639  0.2593 -0.0424 -0.0702
69950W        W13044  14.634   8.045  23.122 -0.3029 -0.2072  0.0726
69951W        W13045  18.251   3.825  23.130 -0.0719 -0.0743  0.0930
69952W        W13046  14.438   4.407  23.905 -0.2373  0.0928  0.2148
69953W        W13047  17.024   2.939  23.842 -0.0751  0.1068  0.3650
69954W        W13048  16.464   2.773  26.027 -0.1432 -0.1007 -0.1680
69955W        W13049  17.121   6.261  25.831 -0.1096 -0.1319 -0.1689
69956W        W13050  16.694   5.117  27.100  0.0644 -0.1625  0.0275
69957W        W13051  18.436   5.354  27.516 -0.1040 -0.0979  0.0222
69958W        W13052  15.071   3.636  23.769  0.0651  0.0947  0.0155
69959W        W13053  17.073   5.207  26.114 -0.2502  0.0100  0.2974
69960W        W13054  15.157   6.185  27.759 -0.0355 -0.1214 -0.0672
69961W        W13055  14.886   4.894  24.934  0.2661  0.1639  0.1447
69962W        W13056  16.572   5.722  23.370  0.3655  0.2437 -0.2150
69963W        W13057  17.152   7.186  26.318  0.1761 -0.3992  0.0160
69964W        W13058  17.146   5.921  25.357 -0.0028  0.1287 -0.0820
69965W        W13059  16.088   5.030  24.261 -0.2275  0.0561 -0.0006
69966W        W13060  15.943   6.000  25.966 -0.2858  0.1735  0.1787
69967W        W13061  14.433   5.166  27.120 -0.0922  0.1153 -0.0670
69968W        W13062  14.999   2.461  23.482  0.0078  0.0207 -0.2206
69969W        W13063  16.836   7.280  26.687 -0.1562  0.2303  0.0330
69970W        W13064  15.124   6.789  25.744  0.1222  0.1162 -0.2078
69971W        W13065  17.552   4.965  24.322  0.0605  0.0592  0.0553
69972W        W13066  16.841   3.304  25.640  0.2135 -0.2143  0.1679
69973W        W13067  18.987   6.465  26.990 -0.0207 -0.1357 -0.2419
69974W        W13068  16.235   6.852  23.841 -0.1503 -0.1661 -0.1043
69975W        W13069  18.084   4.332  25.701 -0.0975 -0.0285 -0.1068
69976W        W13070  18.288   4.800  26.023 -0.1185  0.1154 -0.1170
69977W        W13071  16.285   3.918  22.747  0.1978  0.0358 -0.1313
69978W        W13072  16.928   6.084  23.576  0.1762 -0.0119 -0.1089
69979W        W13073  18.454   6.664  27.493  0.1629  0.0176 -0.2551
69980W        W13074  17.958   5.236  24.009 -0.1413 -0.0859 -0.0641
69981W        W13075  15.482   5.897  25.658 -0.0762 -0.1474  0.3476
69982W        W13076  15.819   3.909  26.618 -0.0953  0.1042 -0.1437
69983W        W13077  15.436   5.854  26.643 -0.1875 -0.0687 -0.2555
69984W        W13078  15.168   7.917  23.987  0.2717  0.2468 -0.2931
69985W        W13079  13.372   6.468  25.311 -0.2635 -0.4982  0.1409
69986W        W13080  17.050   5.752  23.182  0.0833 -0.2505 -0.1285
69987W        W13081  14.840   3.502  27.803 -0.0653 -0.1099 -0.0802
69988W        W13082  14.576   5.681  27.024 -0.2252 -0.1500  0.2452
69989W        W13083  18.492   3.231  24.715  0.0276  0.0977 -0.1393
69990W        W13084  14.065   3.316  27.922  0.0972 -0.0264  0.3014
69991W        W13085  16.794   2.160  23.761  0.1116 -0.0226  0.0220
69992W        W13086  14.328   6.306  25.424 -0.0377 -0.0878 -0.1103
69993W        W13087  17.200   7.866  26.083  0.1371 -0.1538  0.3155
69994W        W13088  17.770   4.151  23.719  0.0960  0.0634 -0.0331
69995W        W13089  15.540   4.602  23.720  0.4632 -0.0470 -0.1292
69996W        W13090  13.659   5.796  28.115 -0.1470 -0.1897  0.1476
69997W        W13091  15.927   4.423  26.301  0.1488  0.0845  0.2797
69998W        W13092  16.096   4.816  27.583  0.0447  0.1541 -0.0123
69999W        W13093  15.061   4.504  26.612  0.1172  0.2465  0.2104
70000W        W13094  17.903   3.719  27.500  0.3287  0.0347  0.0476
70001W        W13095  14.201   2.793  24.635 -0.1561 -0.0180 -0.0242
70002W        W13096  17.755   5.169  25.232  0.1073  0.0313  0.1151
70003W        W13097  16.236   3.035  24.930  0.4270  0.4156 -0.0108
70004W        W13098  14.767   7.972  24.360  0.0598  0.0202  0.0161
70005W        W13099  17.937   2.249  27.040 -0.3679 -0.2531 -0.1085
70006W        W13100  17.554   7.918  24.872  0.4244 -0.0350 -0.1824
70007W        W13101  19.444   7.196  25.228 -0.0456  0.0415  0.0091
70008W        W13102  17.280   6.666  25.547 -0.3403  0.0397  0.1270
70009W        W13103  16.780   5.057  26.479  0.1561 -0.0560  0.1056
70010W        W13104  16.393   3.464  25.411 -0.2301 -0.1648  0.2590
70011W        W13105  14.772   8.101  25.387 -0.0665  0.1370 -0.2251
70012W        W13106  15.890   6.499  26.313 -0.0995 -0.1658 -0.1708
70013W        W13107  16.619   2.022  25.268 -0.1430  0.0444 -0.1544
70014W        W13108  16.813   7.585  26.025  0.2348 -0.0831  0.2431
70015W        W13109  16.486   4.128  24.617 -0.0000  0.0818 -0.0772
70016W        W13110  15.466   5.251  26.127 -0.1122 -0.3119  0.0376
70017W        W13111  18.212   4.256  26.184  0.3557 -0.1914  0.3500
70018W        W13112  15.426   5.444  25.429  0.0847  0.0315 -0.2264
70019W        W13113  16.180   4.967  25.057  0.0910 -0.2160 -0.0456
70020W        W13114  14.778   4.080  23.882  0.1952  0.0798 -0.0484
70021W        W13115  17.779   6.189  26.366 -0.0833  0.0409 -0.0452
70022W        W13116  15.431   6.523  24.647  0.0731  0.0858 -0.2379
70023W        W13117  14.512   5.192  25.087  0.1398 -0.0572  0.0355
70024W        W13118  16.708   6.055  26.114  0.2835  0.2630 -0.3020
70025W        W13119  18.220   3.537  24.992  0.1365 -0.1401  0.0812
70026W        W13120  14.338   5.079  27.811 -0.0808  0.1332  0.0195
70027W        W13121  16.782   4.637  26.162 -0.1514  0.4845 -0.0973
70028W        W13122  14.930   5.031  23.515  0.1529  0.2160 -0.1291
70029W        W13123  15.189   5.082  25.679  0.0115  0.2558 -0.1961
70030W        W13124  16.029   3.917  24.715 -0.0894 -0.1542 -0.1931
70031W        W13125  18.204   3.324  24.287  0.0121  0.0219 -0.0843
70032W        W13126  15.791   6.224  26.936 -0.0025 -0.0070  0.1183
70033W        W13127  17.672   6.578  25.189  0.0233 -0.3077  0.5063
70034W        W13128  16.471   4.378  22.611 -0.1537 -0.1582  0.2797
70035W        W13129  16.050   4.867  23.672 -0.1269 -0.3116 -0.1622
70036W        W13130  15.157   5.698  27.111 -0.2300  0.2386 -0.1936
70037W        W13131  17.731   6.632  24.625 -0.1906  0.2062 -0.1253
70038W        W13132  17.532   5.805  26.622 -0.0920  0.0805 -0.1945
70039W        W13133  15.665   4.912  23.197 -0.0648 -0.0042  0.1551
70040W        W13134  17.756   6.027  24.523 -0.3169 -0.1809 -0.0284
70041W        W13135  15.062   6.046  25.927  0.0764  0.1568 -0.0835
70042W        W13136  17.522   5.018  26.006  0.1821  0.0905  0.1102
70043W        W13137  17.267   6.926  27.391 -0.0827 -0.3089 -0.0237
70044W        W13138  17.554   3.419  26.763 -0.1946 -0.2895  0.0761
70045W        W13139  15.155   4.879  23.979  0.2813  0.2864  0.2034
70046W        W13140  16.644   3.411  24.612  0.0205 -0.0018 -0.1201
70047W        W13141  14.340   8.121  23.871 -0.0893  0.0487 -0.2625
70048W        W13142  16.928   2.969  24.747  0.0966 -0.1179 -0.0575
70049W        W13143  16.712   3.830  25.471  0.1632 -0.1366  0.4628
70050W        W13144  16.655   3.801  26.824 -0.1200  0.2210 -0.2224
70051W        W13145  18.991   2.958  26.103 -0.1303  0.0361 -0.0834
70052W        W13146  17.436   4.637  24.742  0.2019  0.1821  0.1511
70053W        W13147  15.945   4.038  26.021 -0.0798 -0.4019 -0.1771
70054W        W13148  15.124   4.842  23.000  0.0738  0.0976  0.0677
70055W        W13149  16.550   2.034  26.372  0.2116 -0.1479 -0.1231
70056W        W13150  16.296   4.191  25.602 -0.0209  0.3360  0.3602
70057W        W13151  15.020   8.538  27.935 -0.1941 -0.3516 -0.0714
70058W        W13152  16.409   7.306  27.752  0.1299  0.1507  0.1080
70059W        W13153  18.083   4.351  24.620  0.3681 -0.2241  0.0618
70060W        W13154  16.589   3.290  26.054 -0.0018  0.0563 -0.1952
70061W        W13155  14.803   3.077  24.370  0.1136 -0.4297  0.2971
70062W        W13156  16.318   5.845  23.870  0.2016  0.2016  0.2002
70063W        W13157  16.529   5.312  23.699  0.0966 -0.0503 -0.3003
70064W        W13158  15.632   2.963  26.630 -0.0609 -0.0184 -0.1795
70065W        W13159  16.232   5.284  26.099 -0.3523  0.0545  0.2345
70066W        W13160  15.329   7.002  24.522  0.2697 -0.0351  0.2481
70067W        W13161  16.984   6.410  25.216  0.1976 -0.3161 -0.2418
70068W        W13162  16.043   5.597  24.263  0.0093  0.0097 -0.1034
70069W        W13163  16.882   3.893  24.428 -0.2884 -0.2781  0.2716
70070W        W13164  14.769   7.342  26.175  0.5070 -0.1944 -0.5021
70071W        W13165  16.658   3.779  24.942 -0.0177  0.0375 -0.1583
70072W        W13166  14.939   4.783  24.463 -0.1964 -0.0016  0.1780
70073W        W13167  19.138   4.381  24.068 -0.4086  0.2386 -0.0582
70074W        W13168  16.757   5.610  24.567 -0.2657  0.0193  0.1959
70075W        W13169  14.104   3.543  27.214  0.0361 -0.0242 -0.3629
70076W        W13170  17.632   4.186  24.816  0.1738  0.0628 -0.2385
70077W        W13171  14.104   7.685  26.784  0.1385 -0.3468  0.0459
70078W        W13172  17.356   5.201  26.485  0.0039  0.0890  0.0022
70079W        W13173  17.148   3.397  24.397  0.2936  0.0697  0.1412
70080W        W13174  18.860   6.506  25.663  0.1154 -0.2519  0.0982
70081W        W13175  14.803   5.981  28.564 -0.2552 -0.0739 -0.1172
70082W        W13176  15.954   4.551  24.135  0.0940  0.0977  0.2305
70083W        W13177  17.262   4.699  26.347  0.1110 -0.0008 -0.2472
70084W        W13178  16.679   4.567  24.820  0.2105 -0.5970 -0.1402
70085W        W13179  14.778   6.089  25.502  0.0549 -0.2810 -0.0253
70086W        W13180  17.035   6.679  26.142 -0.1467 -0.1270 -0.2561
70087W        W13181  17.183   5.345  24.458  0.1839 -0.0019  0.3357
70088W        W13182  16.638   5.502  25.006 -0.0270  0.1008  0.0141
70089W        W13183  17.420   4.481  25.901  0.0314 -0.3497 -0.0649
70090W        W13184  17.489   4.019  27.380 -0.1861 -0.0816  0.0198
70091W        W13185  16.359   3.726  25.829  0.0624  0.1888  0.0553
70092W        W13186  16.690   3.708  26.264  0.2079 -0.2391 -0.3242
70093W        W13187  15.294   4.551  24.763 -0.1915  0.1395  0.0077
70094W        W13188  17.376   5.468  27.015  0.1364 -0.0901  0.0542
70095W        W13189  16.143   3.323  27.483 -0.2976  0.0976 -0.3792
70096W        W13190  13.981   6.354  27.028 -0.0859  0.1063  0.1047
70097W        W13191  17.480   2.460  26.420  0.2171  0.1950 -0.2398
70098W        W13192  18.115   7.059  23.512  0.3238  0.3042  0.3342
70099W        W13193  16.478   5.487  28.075  0.0904 -0.0939  0.1548
70100W        W13194  14.953   4.699  25.408 -0.2320 -0.0123  0.1556
70101W        W13195  16.731   5.027  25.805 -0.1399 -0.3359  0.4647
70102W        W13196  16.888   5.939  24.905 -0.0265 -0.1413  0.1479
70103W        W13197  16.959   2.931  26.100  0.0028  0.1494  0.2199
70104W        W13198  15.898   5.830  25.397 -0.2305 -0.3188 -0.0857
70105W        W13199  15.241   5.477  24.443 -0.0524 -0.3735  0.2144
70106W        W13200  15.541   6.866  26.132 -0.0137  0.1085  0.1460
70107W        W13201  18.743   4.273  23.417  0.3383 -0.0262 -0.3020
70108W        W13202  16.545   6.989  24.406  0.0821  0.0935  0.1704
70109W        W13203  16.109   4.091  24.187  0.0428 -0.1542 -0.0748
70110W        W13204  18.599   4.582  25.543 -0.0587 -0.0152 -0.1188
70111W        W13205  16.488   6.189  24.733  0.1782 -0.0756 -0.0186
70112W        W13206  18.233   4.067  26.802 -0.5363 -0.1465 -0.2527
70113W        W13207  14.575   3.245  27.072  0.1734  0.0649 -0.0831
70114W        W13208  16.362   6.611  26.169  0.2022  0.4033  0.1670
70115W        W13209  15.834   5.498  26.422  0.0264 -0.2900 -0.0478
70116W        W13210  17.719   6.601  28.538 -0.0758  0.1217  0.1189
70117W        W13211  16.188   4.951  25.753  0.0293 -0.3656  0.0215
70118W        W13212  19.442   4.351  24.843  0.0719  0.0465  0.0601
70119W        W13213  14.614   4.097  25.228 -0.1431 -0.3222  0.0388
70120W        W13214  17.279   5.370  25.673  0.1088  0.2245  0.0932
70121W        W13215  18.619   6.998  24.507  0.0729  0.3250 -0.0676
70122W        W13216  15.846   4.668  25.151  0.1235  0.0393 -0.0926
70123W        W13217  19.429   5.348  25.011 -0.1175 -0.3308  0.0491
70124W        W13218  15.646   6.446  25.797 -0.4713 -0.1971  0.0138
70125W        W13219  17.204   5.993  23.941  0.1192 -0.2309  0.1124
70126W        W13220  15.740   5.359  24.604 -0.1707 -0.2913 -0.1441
70127W        W13221  16.256   5.281  24.696  0.2690 -0.2829  0.2356
70128W        W13222  16.387   4.291  27.624 -0.0321 -0.1634  0.2037
70129W        W13223  17.543   6.209  25.496 -0.2503  0.0782 -0.0314
70130W        W13224  14.997   3.861  24.257 -0.3052  0.1422 -0.1756
70131W        W13225  17.449   3.744  26.322 -0.1380 -0.0079 -0.1555
70132W        W13226  17.806   4.651  26.258 -0.4171  0.2025 -0.1326
70133W        W13227  17.627   4.935  27.232  0.0017 -0.1862  0.0079
70134W        W13228  14.841   5.162  27.442 -0.3213 -0.2239  0.2906
70135W        W13229  19.354   6.279  25.909  0.0160  0.0585  0.1189
70136W        W13230  17.390   3.710  23.584  0.0337 -0.6955  0.2711
70137W        W13231  18.900   3.627  26.376 -0.1902 -0.2468 -0.1215
70138W        W13232  17.246   6.725  24.926  0.3466 -0.0229  0.0534
70139W        W13233  17.979   5.587  23.610 -0.0145  0.1091 -0.0231
70140W        W13234  16.332   4.620  25.417 -0.0340 -0.1554  0.3186
70141W        W13235  18.074   6.411  27.278 -0.2008  0.1034  0.5146
70142W        W13236  14.641   3.605  24.057  0.0325  0.1332  0.1712
70143W        W13237  17.076   4.538  25.129 -0.3712  0.1683 -0.2849
70144W        W13238  15.521   7.465  25.311 -0.4103  0.0919  0.0958
70145W        W13239  16.560   6.695  26.771  0.0571  0.0329  0.0592
70146W        W13240  16.222   4.382  24.948  0.2196 -0.1139 -0.0533
70147W        W13241  16.673   4.881  25.204 -0.0123  0.2056  0.1630
70148W        W13242  15.125   6.695  27.151 -0.2517 -0.0909  0.0698
70149W        W13243  14.584   3.589  25.069 -0.3987 -0.0411 -0.0468
70150W        W13244  14.907   4.484  23.670 -0.3013  0.1489  0.2297
70151W        W13245  17.774   5.430  25.711  0.0592 -0.0087  0.1848
70152W        W13246  18.309   5.115  27.033 -0.3280 -0.2634  0.3193
70153W        W13247  16.874   3.438  23.894 -0.3584  0.1377  0.2700
70154W        W13248  17.812   3.839  26.990  0.3922  0.3600 -0.2185
70155W        W13249  14.002   6.135  24.777  0.0646  0.2131 -0.4223
70156W        W13250  17.563   3.978  25.716 -0.0183  0.0616 -0.3193
70157W        W13251  14.852   7.786  26.351 -0.1159  0.2283  0.1580
70158W        W13252  16.243   6.320  26.636  0.4680 -0.1385 -0.0503
70159W        W13253  16.521   7.127  25.026 -0.0556  0.0668  0.0120
70160W        W13254  16.159   3.799  26.961 -0.0913  0.3479  0.2073
70161W        W13255  15.397   5.028  24.700 -0.0018 -0.1494  0.0766
70162W        W13256  16.806   5.550  25.494 -0.3171  0.4798  0.0581
70163W        W13257  18.348   5.564  26.001 -0.0647  0.0120 -0.0179
70164W        W13258  17.742   7.700  27.863 -0.0361  0.0262 -0.1717
70165W        W13259  15.760   3.986  25.188 -0.3836 -0.2710 -0.1074
70166W        W13260  16.915   6.338  28.099  0.2558  0.1151 -0.2058
70167W        W13261  17.714   5.825  27.164 -0.4816 -0.0099  0.0264
70168W        W13262  14.237   6.763  25.241  0.0340 -0.0894  0.1806
70169W        W13263  15.668   4.018  27.810 -0.1342 -0.0673  0.0465
70170W        W13264  16.540   4.139  27.133  0.0997  0.0601  0.2997
70171W        W13265  17.957   6.140  25.137 -0.0447  0.0351 -0.1478
70172W        W13266  15.805   3.642  24.378 -0.1213 -0.0192  0.2272
70173W        W13267  15.614   6.650  23.844  0.0848  0.1106 -0.0114
70174W        W13268  13.763   6.253  27.731 -0.0708 -0.0727  0.0206
70175W        W13269  14.551   5.980  26.537  0.1915 -0.0693 -0.2618
70176W        W13270  15.887   7.013  24.124 -0.0792 -0.0090 -0.1147
70177W        W13271  16.480   6.451  24.006  0.1370 -0.2767 -0.1058
70178W        W13272  16.961   5.102  23.890  0.3030  0.0816 -0.3135
70179W        W13273  18.722   7.342  26.058  0.1688  0.1295 -0.2118
70180W        W13274  15.973   2.678  24.508  0.4140 -0.1663  0.0610
70181W        W13275  14.198   7.994  25.565  0.3323 -0.2117 -0.0967
70182W        W13276  14.281   7.848  24.304 -0.0631 -0.1259 -0.0458
70183W        W13277  17.831   6.674  26.442 -0.3789 -0.1317 -0.1374
70184W        W13278  15.167   6.881  25.085  0.0197 -0.0553 -0.3030
70185W        W13279  17.901   5.319  27.288 -0.1144  0.1803  0.1308
70186W        W13280  18.054   3.090  23.097 -0.0212  0.3375 -0.1137
70187W        W13281  18.467   6.294  25.282 -0.3129 -0.1897  0.0902
70188W        W13282  17.632   5.476  24.343 -0.2655 -0.2780 -0.2061
70189W        W13283  17.309   6.685  26.574 -0.0451  0.0668  0.6066
70190W        W13284  15.842   4.905  24.676 -0.1036 -0.2352 -0.4096
70191W        W13285  14.483   4.941  24.618  0.0227  0.1623  0.1484
70192W        W13286  16.331   4.530  25.954  0.0943 -0.0310  0.0433
70193W        W13287  20.327   2.699  26.924  0.2695  0.0451 -0.0740
70194W        W13288  14.191   6.461  26.613 -0.1764  0.1511  0.2889
70195W        W13289  16.668   6.715  24.838  0.1415  0.3376 -0.0068
70196W        W13290  15.477   3.973  25.807  0.0756  0.2673 -0.0822
70197W        W13291  15.892   4.484  25.716  0.0182 -0.0451  0.0184
70198W        W13292  19.799   4.199  25.447  0.0665 -0.0325  0.0198
70199W        W13293  17.058   4.782  24.383  0.0375 -0.2716  0.1268
70200W        W13294  16.612   4.987  24.540  0.2194  0.1444  0.1890
70201W        W13295  16.483   6.461  25.230  0.1836  0.0205  0.0127
70202W        W13296  16.304   6.951  27.171  0.2053 -0.2029  0.2586
70203W        W13297  15.556   7.040  26.610  0.1121  0.0535 -0.2671
70204W        W13298  14.105   4.312  25.077  0.2056 -0.0116  0.0106
70205W        W13299  18.422   4.070  24.842 -0.2012 -0.0550 -0.1294
70206W        W13300  15.882   4.313  27.256 -0.1608 -0.1416  0.0843
70207W        W13301  17.040   3.458  26.483  0.1319 -0.1624  0.1449
70208W        W13302  16.394   2.998  25.548  0.0368 -0.0140  0.2152
70209W        W13303  16.301   5.756  25.721 -0.0803 -0.0977  0.1859
70210W        W13304  16.996   5.661  26.380  0.1270 -0.2945 -0.0596
70211W        W13305  15.402   4.870  26.674 -0.0671 -0.0676  0.2951
70212W        W13306  15.652   3.870  22.789 -0.1418 -0.0563 -0.0433
70213W        W13307  18.313   5.736  25.123 -0.1896 -0.0227 -0.1883
70214W        W13308  17.874   5.529  23.171 -0.0167  0.2261 -0.0297
70215W        W13309  17.926   7.617  28.739 -0.1126 -0.0866 -0.1995
70216W        W13310  15.759   3.595  26.049  0.0634  0.0538  0.0932
70217W        W13311  18.559   4.564  24.904 -0.0694  0.3518 -0.0463
70218W        W13312  14.261   5.862  25.756  0.0276  0.0188  0.1199
70219W        W13313  17.064   3.241  26.928  0.3158 -0.1132 -0.1629
70220W        W13314  17.973   8.130  27.717  0.2111 -0.1934 -0.1510
70221W        W13315  15.347   4.296  25.258 -0.1778 -0.3263  0.0173
70222W        W13316  18.486   6.695  23.394  0.0774 -0.1092  0.1092
70223W        W13317  17.006   5.030  24.849 -0.1196  0.2409 -0.1773
70224W        W13318  14.854   8.862  24.228 -0.0858  0.0009  0.0569
70225W        W13319  17.314   5.663  24.762 -0.1019 -0.0721 -0.0679
70226W        W13320  16.705   7.207  27.315 -0.0982  0.1187 -0.0419
70227W        W13321  15.863   4.956  26.147  0.0421  0.0788 -0.1792
70228W        W13322  16.024   6.603  27.352 -0.2916 -0.1459  0.2023
70229W        W13323  19.124   7.476  26.943 -0.0537  0.0286  0.2431
70230W        W13324  16.011   4.032  23.163 -0.0081  0.1595  0.0734
70231W        W13325  15.469   4.660  26.126 -0.1582  0.1224 -0.0998
70232W        W13326  13.552   8.536  23.919 -0.2822 -0.1783  0.1683
70233W        W13327  18.120   4.263  25.156 -0.1655 -0.1408 -0.1995
70234W        W13328  18.178   5.425  25.460  0.0511 -0.0448 -0.2143
70235W        W13329  15.981   7.463  24.077  0.1090  0.0246 -0.0670
70236W        W13330  17.591   3.894  25.226  0.0457  0.1156 -0.2684
70237W        W13331  17.648   6.477  25.939  0.2390 -0.0937  0.1587
70238W        W13332  15.262   8.081  27.208  0.1776 -0.0269 -0.0251
70239W        W13333  16.042   5.447  23.380  0.0173  0.0145 -0.2212
70240W        W13334  16.886   5.516  26.868  0.2503  0.1317 -0.2677
70241W        W13335  16.245   5.338  25.451  0.1984  0.0208 -0.0271
70242W        W13336  15.617   7.061  24.940  0.0512 -0.1402 -0.0555
70243W        W13337  18.446   6.280  25.865 -0.0367  0.1180 -0.0105
70244W        W13338  17.520   5.131  24.780  0.2870 -0.3763 -0.1085
70245W        W13339  18.023   7.437  26.691 -0.2615  0.0274 -0.0550
70246W        W13340  16.106   2.683  25.328  0.0609 -0.4281  0.0426
70247W        W13341  18.876   4.896  24.518  0.0072 -0.0839 -0.0849
70248W        W13342  18.016   5.149  24.499 -0.3365  0.2481  0.2847
70249W        W13343  15.781   5.268  25.149 -0.0916  0.1409  0.0774
70250W        W13344  14.091   4.954  24.996 -0.2279  0.3247  0.0570
70251W        W13345  15.083   7.128  23.774 -0.0767  0.1813 -0.2232
70252W        W13346  17.228   4.277  24.382 -0.0237  0.3017 -0.4502
70253W        W13347  15.857   2.458  26.703 -0.0359 -0.1670 -0.1702
70254W        W13348  16.054   5.287  27.131  0.1658 -0.1491 -0.1287
70255W        W13349  15.200   7.790  24.546  0.1944 -0.1336  0.0270
70256W        W13350  15.590   5.141  24.101  0.2055  0.1557  0.1174
70257W        W13351  17.455   7.376  23.655  0.0964 -0.2709 -0.0529
70258W        W13352  15.886   3.770  25.586  0.1977 -0.0481  0.1931
70259W        W13353  13.692   5.023  25.747  0.3461  0.1636  0.0691
70260W        W13354  17.669   6.684  27.057  0.0128  0.2055  0.1988
70261W        W13355  17.756   7.136  27.040 -0.2206 -0.3144 -0.1694
70262W        W13356  16.521   2.854  24.498 -0.1858  0.0238  0.2949
70263W        W13357  18.377   7.866  27.382  0.1153 -0.1547 -0.4129
70264W        W13358  15.913   6.267  24.724  0.1696 -0.0698  0.0996
70265W        W13359  16.802   2.907  26.686 -0.0484  0.0728  0.1465
70266W        W13360  16.502   2.503  26.659  0.0315  0.5005 -0.1196
70267W        W13361  15.390   3.500  25.350  0.1463  0.0280  0.0021
70268W        W13362  16.950   4.597  25.662  0.3468  0.0795  0.2226
70269W        W13363  16.039   5.343  23.871  0.1349  0.0160 -0.6251
70270W        W13364  17.146   8.198  25.079  0.0615 -0.0316 -0.0475
70271W        W13365  15.522   5.345  26.964 -0.0881  0.0638  0.1696
70272W        W13366  16.335   6.717  27.999 -0.1636 -0.2342  0.1483
70273W        W13367  15.496   4.322  26.792 -0.2127 -0.0721 -0.0622
70274W        W13368  18.160   5.701  24.089 -0.1212 -0.3275 -0.1285
70275W        W13369  14.848   5.634  27.556 -0.0754  0.3071 -0.0225
70276W        W13370  16.982   6.831  24.440 -0.2242 -0.0988  0.0365
70277W        W13371  20.071   3.429  25.233 -0.0762 -0.0077  0.1042
70278W        W13372  16.984   4.194  24.815 -0.0808 -0.0184 -0.1533
70279W        W13373  14.376   4.540  27.972  0.3091  0.3372 -0.1994
70280W        W13374  15.326   6.112  27.246  0.2097 -0.1592  0.2380
70281W        W13375  18.356   4.828  24.565  0.0147 -0.4725 -0.0170
70282W        W13376  16.200   3.497  24.856 -0.0705  0.1541 -0.0002
70283W        W13377  17.311   3.823  24.139 -0.1843 -0.3926  0.1309
70284W        W13378  14.449   6.801  24.114 -0.2785  0.0875  0.1314
70285W        W13379  14.841   5.489  26.673 -0.0105 -0.0484  0.1114
70286W        W13380  17.293   3.811  24.695 -0.1682 -0.1081  0.0455
70287W        W13381  16.683   4.681  26.821 -0.0094 -0.0892  0.0680
70288W        W13382  18.921   6.339  26.187 -0.3397 -0.3076  0.2973
70289W        W13383  17.874   5.432  26.742  0.2245  0.1288 -0.1164
70290W        W13384  15.099   4.402  24.211  0.1439 -0.1950  0.1026
70291W        W13385  17.955   4.711  24.284  0.1257  0.0371 -0.1422
70292W        W13386  16.162   8.271  26.643 -0.3499 -0.2303 -0.0218
70293W        W13387  16.530   7.592  28.350  0.2294 -0.1028  0.1577
70294W        W13388  16.954   6.896  27.791  0.0223  0.2212 -0.1294
70295W        W13389  17.692   4.854  26.743  0.3413  0.1456 -0.0179
70296W        W13390  14.881   4.230  26.216  0.0412 -0.2009  0.2135
70297W        W13391  17.945   4.761  24.848 -0.0806  0.1621 -0.0743
70298W        W13392  16.690   6.638  25.715 -0.0344  0.0120  0.0986
70299W        W13393  17.106   3.769  25.192 -0.0130  0.0298 -0.4349
70300W        W13394  17.129   4.138  26.198 -0.0484  0.3440  0.1010
70301W        W13395  16.872   2.138  21.872  0.1778 -0.0890  0.1912
70302W        W13396  15.245   8.173  26.277  0.1517  0.2927 -0.1943
70303W        W13397  17.252   5.397  25.193  0.0935 -0.0785  0.1561
70304W        W13398  16.269   4.763  30.099 -0.2773 -0.3066 -0.1321
70305W        W13399  16.091   4.377  28.600  0.2915  0.0175 -0.1242
70306W        W13400  18.421   4.546  26.972 -0.3131  0.0615  0.0438
70307W        W13401  17.833   7.119  27.542 -0.0851 -0.2236 -0.2455
70308W        W13402  15.608   3.619  28.602 -0.0066 -0.0848 -0.1998
70309W        W13403  18.156   6.781  27.879  0.1561 -0.0674  0.1324
70310W        W13404  16.594   2.678  30.060  0.2882  0.3232 -0.1970
70311W        W13405  16.653   5.226  29.941  0.0205  0.3720 -0.1865
70312W        W13406  17.907   5.614  29.986 -0.2907  0.0579 -0.0154
70313W        W13407  18.015   5.659  27.607  0.1528 -0.1445 -0.0304
70314W        W13408  15.775   3.841   0.567  0.0457  0.0207 -0.0911
70315W        W13409  15.920   6.579  30.045  0.2391 -0.4377  0.0877
70316W        W13410  16.316   5.164  26.706 -0.2431  0.2113  0.0001
70317W        W13411  13.974   4.349  28.415 -0.2682  0.1567 -0.1438
70318W        W13412  15.856   3.998  29.665 -0.0511 -0.0797  0.2894
70319W        W13413  13.626   5.273  28.218  0.0970 -0.0221  0.0789
70320W        W13414  14.831   4.079  30.344 -0.0128  0.0565 -0.2207
70321W        W13415  16.241   5.156  29.121 -0.1444  0.2552  0.1466
70322W        W13416  16.795   6.386  26.508  0.0955  0.1381 -0.1386
70323W        W13417  16.922   3.437  29.174  0.0687  0.1196 -0.5365
70324W        W13418  15.605   3.610  30.597  0.2106  0.2145 -0.1951
70325W        W13419  15.562   6.289  29.241  0.1033 -0.0984  0.1736
70326W        W13420  15.136   5.044  27.061 -0.0957  0.2225 -0.1601
70327W        W13421  14.736   4.189  29.657 -0.0033  0.2403  0.0864
70328W        W13422  14.592   5.403  30.707 -0.4108  0.1809 -0.3850
70329W        W13423  17.350   4.470  29.898  0.1005 -0.0086  0.0217
70330W        W13424  16.161   4.493  29.471 -0.1415  0.1436 -0.0654
70331W        W13425  16.517   7.984  28.788  0.1941 -0.1394  0.1849
70332W        W13426  16.897   4.584  28.342 -0.1415 -0.0421  0.1687
70333W        W13427  17.159   4.933  30.678 -0.2778 -0.0073  0.3385
70334W        W13428  15.964   5.459  28.167  0.0605 -0.0579  0.0145
70335W        W13429  14.244   4.273  29.336  0.0934  0.0074  0.1034
70336W        W13430  16.289   6.065  28.895  0.0231 -0.0100 -0.0449
70337W        W13431  17.801   5.077  28.589  0.1522 -0.1254  0.0432
70338W        W13432  17.080   6.593  29.662  0.3539  0.1805 -0.1154
70339W        W13433  16.456   6.001  30.389 -0.0621 -0.0151 -0.2843
70340W        W13434  14.938   8.355  28.398 -0.0293  0.2806  0.1259
70341W        W13435  16.920   6.246  29.080 -0.0239 -0.0807  0.0713
70342W        W13436  16.012   5.921  31.425 -0.0163 -0.0018  0.1645
70343W        W13437  16.653   5.193  28.852  0.0504  0.0722 -0.1142
70344W        W13438  16.409   5.811  29.389  0.2772 -0.4222  0.1360
70345W        W13439  15.426   6.556  27.526  0.1032  0.2118  0.0294
70346W        W13440  14.710   5.131  28.882  0.0015  0.2291  0.2238
70347W        W13441  14.603   6.397  31.113 -0.0861  0.0292 -0.0685
70348W        W13442  16.966   6.822  29.229 -0.2843  0.2595  0.3616
70349W        W13443  19.699   3.249  30.916 -0.2332 -0.2738  0.0307
70350W        W13444  14.934   6.129  26.825 -0.3181  0.2540  0.3207
70351W        W13445  18.796   4.711  28.054  0.0569  0.0473 -0.1811
70352W        W13446  17.433   4.287  26.556  0.3882  0.1539 -0.2455
70353W        W13447  19.850   4.441  28.388 -0.3852 -0.0217 -0.0918
70354W        W13448  16.025   4.353  29.997  0.1048  0.3430 -0.1957
70355W        W13449  15.755   6.205  28.649 -0.1891 -0.1683  0.1934
70356W        W13450  15.407   3.926  30.337 -0.4119  0.1167 -0.0424
70357W        W13451  18.401   5.710  30.133 -0.1444  0.2553 -0.1701
70358W        W13452  15.475   5.078  28.428 -0.0851 -0.3723 -0.1520
70359W        W13453  16.312   5.276  28.471  0.0213 -0.0499 -0.2126
70360W        W13454  14.848   4.915  27.917  0.0714 -0.0998  0.2736
70361W        W13455  14.440   5.548  28.632 -0.0316  0.2735  0.2336
70362W        W13456  18.302   6.923  26.441 -0.0464 -0.0759  0.0107
70363W        W13457  18.150   7.379  28.408  0.2343 -0.2661 -0.0328
70364W        W13458  16.272   5.796  26.285  0.0329  0.0999  0.1088
70365W        W13459  16.507   3.771  27.509 -0.1219  0.3256 -0.0096
70366W        W13460  14.883   5.985  30.871  0.1707  0.0999 -0.3176
70367W        W13461  15.592   3.221  31.135  0.0624  0.0404 -0.2173
70368W        W13462  15.866   3.590  27.833  0.1795  0.3195  0.4178
70369W        W13463  17.894   5.636  30.599 -0.4616 -0.0134 -0.0653
70370W        W13464  14.702   5.985  31.380  0.2310  0.0571  0.1362
70371W        W13465  17.427   3.967  30.482 -0.0778 -0.0491 -0.1691
70372W        W13466  16.507   6.653  29.017  0.1828 -0.5977 -0.4466
70373W        W13467  16.745   4.742  29.826  0.2549  0.4704  0.0779
70374W        W13468  17.199   6.159  26.316 -0.0204 -0.0981  0.2061
70375W        W13469  16.136   4.700  28.987  0.0564 -0.1926  0.0035
70376W        W13470  16.949   2.972  30.034 -0.0752 -0.0722  0.2501
70377W        W13471  16.701   5.082  28.288  0.2777 -0.0196  0.1890
70378W        W13472  16.586   5.806  27.590 -0.0393  0.1409 -0.2656
70379W        W13473  18.518   6.464  31.259  0.0610 -0.4777 -0.0563
70380W        W13474  18.011   4.470  26.654 -0.1035 -0.1963  0.0299
70381W        W13475  15.435   5.819  29.127 -0.2103  0.0288 -0.3795
70382W        W13476  15.025   5.207  30.425 -0.1111 -0.0417  0.0354
70383W        W13477  15.730   6.020  30.759  0.0456 -0.1289 -0.0997
70384W        W13478  14.388   5.888  28.293 -0.0950  0.1985  0.1803
70385W        W13479  14.467   4.583  28.459 -0.0712  0.0653 -0.4740
70386W        W13480  15.827   6.550  27.854  0.0896  0.0382 -0.0250
70387W        W13481  14.539   5.332  30.200  0.2132  0.1069  0.0832
70388W        W13482  16.256   5.589  28.953 -0.1728  0.1043 -0.0554
70389W        W13483  16.939   5.497  28.488 -0.1602  0.0059  0.0483
70390W        W13484  14.780   3.377  30.862  0.2065 -0.1831  0.0275
70391W        W13485  16.971   4.360  29.548  0.0914  0.0362 -0.2006
70392W        W13486  14.717   6.216  28.140  0.1366 -0.1947 -0.1274
70393W        W13487  17.440   6.902  30.484  0.2925  0.0231 -0.1124
70394W        W13488  17.863   4.934  27.703 -0.1377 -0.0256  0.4636
70395W        W13489  16.843   6.249  27.590  0.2142  0.2663 -0.2117
70396W        W13490  15.076   3.595  30.488 -0.2571 -0.1582 -0.1442
70397W        W13491  15.394   4.702  28.150  0.0114 -0.0608 -0.0762
70398W        W13492  15.704   3.808  29.031  0.1164 -0.1108  0.2122
70399W        W13493  14.997   4.070  31.202 -0.1352 -0.0087 -0.2357
70400W        W13494  16.544   4.437  30.861  0.0746 -0.3652 -0.1156
70401W        W13495  14.870   4.085  27.103  0.0591 -0.0894 -0.1043
70402W        W13496  16.475   4.299  29.071 -0.0664 -0.0624  0.0236
70403W        W13497  15.239   5.270  27.974  0.0575 -0.0961 -0.2180
70404W        W13498  15.444   4.080  27.301 -0.1865 -0.1283  0.1626
70405W        W13499  17.125   3.564   1.311 -0.1027  0.0415  0.2037
70406W        W13500  17.795   6.475  29.214  0.3800  0.0146 -0.0100
70407W        W13501  17.792   6.545  30.188  0.1635 -0.0190 -0.0008
70408W        W13502  18.958   7.240  28.180 -0.2524  0.0940  0.0744
70409W        W13503  13.327   5.834  30.977  0.1122 -0.2079  0.0644
70410W        W13504  15.267   4.868  27.670 -0.3147 -0.1348 -0.0178
70411W        W13505  15.396   7.150  29.180  0.1298 -0.1092  0.0198
70412W        W13506  17.692   6.975  29.989 -0.0290  0.0814  0.0959
70413W        W13507  16.412   4.595  28.212 -0.0501  0.1480  0.1776
70414W        W13508  18.965   5.016  28.848  0.3555 -0.1163 -0.0425
70415W        W13509  16.744   5.194  29.452 -0.1532  0.1440 -0.0735
70416W        W13510  15.197   5.374  28.812 -0.0503 -0.0019 -0.1508
70417W        W13511  16.448   2.930  30.813 -0.0662 -0.1512  0.0697
70418W        W13512  17.236   4.765  29.439 -0.0869  0.0328  0.0291
70419W        W13513  16.315   4.927  29.663 -0.1014 -0.1859 -0.2391
70420W        W13514  15.911   4.684  26.772 -0.0495 -0.0738 -0.0979
70421W        W13515  18.403   6.741  28.998 -0.1901  0.1434 -0.3666
70422W        W13516  15.932   6.709  28.578  0.1955 -0.2782 -0.2389
70423W        W13517  14.644   4.584  29.401 -0.2525  0.2730 -0.1088
70424W        W13518  16.301   6.240  27.563  0.2449  0.1719 -0.0904
70425W        W13519  15.679   4.582  29.735  0.1180  0.3915 -0.1262
70426W        W13520  14.333   5.257  31.086 -0.0112 -0.3103  0.0037
70427W        W13521  16.060   3.735  30.808 -0.0210 -0.0349  0.0094
70428W        W13522  15.668   4.841  27.194  0.0432 -0.1467  0.0465
70429W        W13523  15.381   6.164  30.033  0.1046 -0.2442 -0.0763
70430W        W13524  18.004   4.032  28.194 -0.2640  0.2024  0.2569
70431W        W13525  18.002   4.437  27.879 -0.2356  0.5527 -0.0163
70432W        W13526  15.547   5.440  29.677 -0.0201  0.2462  0.2430
70433W        W13527  17.318   6.298  28.555  0.1956  0.0881 -0.2285
70434W        W13528  17.060   3.752  25.867  0.0708 -0.1136 -0.2401
70435W        W13529  17.746   4.125  26.154 -0.0076  0.1052 -0.1385
70436W        W13530  15.938   5.630  29.385 -0.0524 -0.1386  0.1333
70437W        W13531  16.286   5.029  28.020 -0.3028 -0.0808  0.0285
70438W        W13532  16.993   6.098  29.696  0.2687 -0.1608 -0.1773
70439W        W13533  16.693   2.979  27.745 -0.3295 -0.2863  0.2417
70440W        W13534  18.176   6.314  27.742 -0.1183  0.0683  0.5169
70441W        W13535  15.169   4.269  30.733  0.1133 -0.1964  0.3267
70442W        W13536  17.761   5.253  31.583  0.2288  0.1776  0.1638
70443W        W13537  17.401   6.361  28.060  0.2617 -0.2419 -0.1751
70444W        W13538  15.955   3.361  28.885  0.0485 -0.2301 -0.4852
70445W        W13539  17.116   5.773  25.872  0.3520 -0.3839  0.3911
70446W        W13540  17.494   4.075  28.956 -0.2969  0.1717  0.0418
70447W        W13541  14.436   7.230  28.886 -0.1769 -0.1353  0.1318
70448W        W13542  17.497   3.919  29.973 -0.0436  0.3274 -0.1980
70449W        W13543  18.067   3.694  31.591  0.3840 -0.1634  0.0902
70450W        W13544  14.707   4.093  30.838 -0.0219  0.0439  0.2591
70451W        W13545  17.080   4.628  31.078 -0.1240  0.1966 -0.0023
70452W        W13546  16.380   5.359  27.619  0.2043 -0.1726 -0.1131
70453W        W13547  16.515   4.129  28.575  0.3709 -0.1900 -0.0796
70454W        W13548  16.589   5.910  26.677  0.0071 -0.2140  0.0677
70455W        W13549  16.585   4.369  30.213 -0.3160  0.0358 -0.1652
70456W        W13550  15.351   5.750  30.573 -0.0440  0.1277 -0.1316
70457W        W13551  14.131   5.494  29.918 -0.1135  0.0254 -0.0235
70458W        W13552  17.146   5.498  30.645  0.0230 -0.1768 -0.0925
70459W        W13553  17.032   5.316  27.412 -0.1450 -0.0950  0.1436
70460W        W13554  15.165   3.688  31.513  0.0673  0.1631 -0.1377
70461W        W13555  17.380   4.213  28.499 -0.1766  0.1530  0.0346
70462W        W13556  16.689   7.030  28.305 -0.1209 -0.2693 -0.1029
70463W        W13557  15.243   6.706  27.962  0.0560  0.5509  0.5409
70464W        W13558  15.882   3.919  30.238 -0.1856  0.0238 -0.1563
70465W        W13559  16.288   7.036  28.712  0.1549  0.1436 -0.0846
70466W        W13560  15.651   7.071  27.339  0.0621 -0.0954  0.2763
70467W        W13561  18.393   5.818  28.668  0.0742 -0.0355  0.1174
70468W        W13562  14.786   7.104  27.172 -0.1733 -0.1888  0.2312
70469W        W13563  17.880   4.001  30.853 -0.0786  0.1716  0.0573
70470W        W13564  15.463   6.596  28.869 -0.3904 -0.1808 -0.2582
70471W        W13565  17.208   5.837  27.290 -0.0784  0.4085 -0.0796
70472W        W13566  13.569   4.456  28.611  0.2092 -0.3921 -0.1191
70473W        W13567  18.169   3.547  28.611 -0.0412  0.0406 -0.0227
70474W        W13568  17.245   7.871  27.917  0.0333 -0.2628 -0.1065
70475W        W13569  14.295   3.276  30.759  0.2671  0.0132  0.0364
70476W        W13570  16.540   3.799  28.932  0.4638 -0.1536  0.4196
70477W        W13571  15.768   7.134  30.730 -0.2361 -0.1451 -0.1410
70478W        W13572  16.547   3.959  30.878 -0.2540 -0.0384  0.1916
70479W        W13573  19.746   2.360  27.491 -0.2803 -0.1748  0.1400
70480W        W13574  17.464   5.755  29.755 -0.1359 -0.1820  0.2598
70481W        W13575  14.438   4.548  31.674 -0.1416 -0.1154 -0.2693
70482W        W13576  14.252   3.401  26.728 -0.0281  0.1952  0.2399
70483W        W13577  18.595   3.808  31.470  0.2439 -0.1054  0.4328
70484W        W13578  16.418   3.430  27.874 -0.4236 -0.1220  0.0581
70485W        W13579  13.469   6.420  28.655  0.2183  0.2661  0.1330
70486W        W13580  15.470   7.137  28.033  0.2369  0.0651 -0.1581
70487W        W13581  15.646   6.708  27.003  0.2132 -0.1594 -0.0029
70488W        W13582  14.925   4.974  29.356  0.1845  0.1512 -0.3877
70489W        W13583  16.214   3.389  31.771 -0.0655  0.1348 -0.0873
70490W        W13584  17.336   5.247  29.494 -0.0899  0.1245 -0.0163
70491W        W13585  15.641   4.702  29.179 -0.3959  0.0128 -0.2338
70492W        W13586  15.792   4.035  28.333 -0.3340 -0.1130  0.2018
70493W        W13587  15.438   3.444  28.074  0.0125 -0.4234 -0.1648
70494W        W13588  18.281   5.677  27.115 -0.0320 -0.0489  0.1397
70495W        W13589  16.382   4.084  29.798  0.1117 -0.3723  0.1847
70496W        W13590  16.592   5.840  29.928 -0.0883  0.1278  0.2419
70497W        W13591  16.070   3.441  31.273  0.2709 -0.1857 -0.3186
70498W        W13592  18.278   5.364  28.403 -0.1196 -0.0587 -0.0525
70499W        W13593  16.734   5.092  30.812  0.1395  0.0104 -0.1477
70500W        W13594  15.275   6.065  28.659  0.2292 -0.2172  0.2155
70501W        W13595  13.994   4.939  28.337 -0.2774 -0.0595 -0.0163
70502W        W13596  15.896   5.051  29.472 -0.2138  0.0778  0.1233
70503W        W13597  16.463   3.083  31.376  0.0674 -0.2068 -0.4149
70504W        W13598  17.192   5.850  31.005  0.1560 -0.3268  0.0936
70505W        W13599  16.246   7.221  28.208 -0.0916  0.0444  0.2864
70506W        W13600  15.795   6.049  30.277  0.1092  0.2524  0.0433
70507W        W13601  18.175   3.129  27.746  0.1935  0.1387 -0.0362
70508W        W13602  17.321   7.048  28.870 -0.0649  0.2424 -0.3265
70509W        W13603  16.162   3.598  29.854  0.1007  0.0278  0.0158
70510W        W13604  16.209   3.970   1.372  0.1676 -0.1864 -0.3155
70511W        W13605  17.134   4.907  26.910  0.1357  0.2162 -0.0635
70512W        W13606  15.571   3.713  29.934 -0.2121  0.4366 -0.0878
70513W        W13607  14.905   4.541  28.648 -0.1190  0.1783 -0.1707
70514W        W13608  17.632   5.652  27.954 -0.1923  0.2957 -0.1045
70515W        W13609  13.368   5.224  29.752 -0.1141 -0.1578  0.2294
70516W        W13610  17.184   6.941  31.654 -0.1298  0.0678  0.0175
70517W        W13611  14.954   4.692  30.393  0.0962 -0.0233  0.1842
70518W        W13612  16.663   4.158  28.034 -0.1298 -0.1528 -0.1507
70519W        W13613  15.411   2.932  28.090 -0.3055 -0.1663  0.2894
70520W        W13614  15.403   4.177  29.205 -0.2785 -0.1873 -0.2425
70521W        W13615  17.950   6.908  28.898  0.2374 -0.0997 -0.2426
70522W        W13616  15.697   5.968  28.170 -0.2304  0.0023 -0.2471
70523W        W13617  16.456   5.878  27.111  0.2049  0.2789 -0.0894
70524W        W13618  13.862   5.402  29.393 -0.1039 -0.0961  0.0054
70525W        W13619  15.154   4.846  28.939  0.0536 -0.2391  0.2111
70526W        W13620  16.783   4.688  27.393  0.0071  0.1631 -0.2383
70527W        W13621  16.216   5.818  28.420  0.3571 -0.2798 -0.1508
70528W        W13622  15.879   3.082   0.081 -0.0697 -0.2137 -0.2269
70529W        W13623  17.345   4.917  27.702  0.2564 -0.0195 -0.1923
70530W        W13624  15.998   3.433  30.291  0.0773 -0.0081 -0.0448
70531W        W13625  16.873   4.241  31.247 -0.0562  0.3445  0.0076
70532W        W13626  17.167   4.967  30.184  0.0187  0.1231 -0.1962
70533W        W13627  14.852   5.140   0.667 -0.0029 -0.3174 -0.0274
70534W        W13628  14.861   2.936  30.565  0.0509  0.0424 -0.0492
70535W        W13629  17.495   6.523  30.793 -0.1759  0.1662 -0.1011
70536W        W13630  17.644   4.936  29.148  0.0341  0.0917  0.4718
70537W        W13631  19.591   4.678  31.704 -0.1775  0.3324 -0.0946
70538W        W13632  18.606   4.450  28.678  0.1013 -0.2500  0.1061
70539W        W13633  16.783   4.258  26.550  0.2649  0.1283 -0.0860
70540W        W13634  15.407   4.111  29.667 -0.0070  0.0702 -0.3721
70541W        W13635  17.956   6.335  30.680 -0.0136  0.0332  0.2193
70542W        W13636  16.009   4.362  27.996 -0.1918 -0.1957 -0.2771
70543W        W13637  17.834   4.378  31.334  0.3421  0.0395 -0.0344
70544W        W13638  16.736   7.850  27.952  0.0226 -0.0763  0.0326
70545W        W13639  16.719   5.698  28.871  0.3017  0.3067  0.0616
70546W        W13640  17.012   5.678  29.406 -0.0846 -0.1435 -0.0312
70547W        W13641  15.267   3.176  29.657 -0.0678  0.0622 -0.2511
70548W        W13642  16.221   5.361  30.892 -0.0104  0.0690 -0.0389
70549W        W13643  14.628   3.693  27.385  0.2713  0.0463 -0.0301
70550W        W13644  16.414   6.385  28.552  0.1428  0.2615 -0.0502
70551W        W13645  14.942   5.450  28.388  0.1837 -0.1234 -0.0099
70552W        W13646  17.725   7.296  29.104 -0.1736 -0.1322  0.1527
70553W        W13647  16.640   3.523  29.602  0.1504 -0.3546 -0.1772
70554W        W13648  17.468   3.295  31.332 -0.0948  0.0586 -0.2185
70555W        W13649  15.499   5.334  29.159  0.1192 -0.2296 -0.0937
70556W        W13650  16.106   2.560  30.586 -0.3474  0.1203  0.3993
70557W        W13651  14.965   6.288  29.019 -0.0019 -0.1945  0.1647
70558W        W13652  15.164   4.540  29.561 -0.0191 -0.1433 -0.1816
70559W        W13653  16.846   6.077  28.595  0.1549 -0.0375  0.1066
70560W        W13654  17.448   2.682  29.432 -0.0235  0.0927  0.0248
70561W        W13655  17.264   5.049  28.437 -0.2569  0.0492  0.1060
70562W        W13656  16.041   5.722  29.990 -0.1467  0.1165  0.0355
70563W        W13657  18.731   4.558  30.950  0.1073  0.2394  0.1367
70564W        W13658  17.607   6.800  31.265  0.1597  0.4007  0.0372
70565W        W13659  15.435   5.639  28.393 -0.0282  0.0677  0.1590
70566W        W13660  16.732   5.595  30.893  0.0748 -0.2228  0.1105
70567W        W13661  17.501   5.427  27.544  0.0400 -0.2098 -0.0880
70568W        W13662  15.675   5.234  30.626  0.0211 -0.2948 -0.0187
70569W        W13663  15.089   5.614  31.200  0.1004 -0.1324  0.0104
70570W        W13664  15.869   5.208   0.718  0.1099  0.2922 -0.1562
70571W        W13665  17.943   5.736  26.361 -0.0913  0.1614 -0.2075
70572W        W13666  16.985   4.032  28.792  0.0964  0.2493  0.2273
70573W        W13667  14.439   6.153  27.040 -0.0038 -0.2434 -0.0781
70574W        W13668  15.666   6.725  30.491 -0.2004  0.2205 -0.0871
70575W        W13669  15.383   4.978  29.623 -0.0000  0.1129 -0.0074
70576W        W13670  15.024   8.004  27.831  0.5080 -0.0878  0.3402
70577W        W13671  16.712   6.335  27.102 -0.0262 -0.0540  0.1256
70578W        W13672  17.472   6.295  27.287  0.0922  0.3068  0.1649
70579W        W13673  16.958   5.872  30.385 -0.2499  0.0902  0.1880
70580W        W13674  15.869   5.294  27.591  0.0618 -0.3974  0.1036
70581W        W13675  14.294   6.452  28.169 -0.1955  0.0558  0.2650
70582W        W13676  13.784   6.787  28.532  0.1234  0.2034 -0.1490
70583W        W13677  17.692   7.136  28.535 -0.0226  0.2770  0.0914
70584W        W13678  15.824   5.117  28.892  0.2715  0.0897  0.2033
70585W        W13679  16.956   4.392  30.572 -0.0732 -0.1498  0.1251
70586W        W13680  18.929   4.257  26.911  0.2705 -0.1513  0.2678
70587W        W13681  17.617   5.139  28.089 -0.1478  0.0418 -0.2226
70588W        W13682  18.422   4.106  30.051  0.2135 -0.2307  0.1506
70589W        W13683  16.165   6.301  31.148 -0.2650  0.2166 -0.1802
70590W        W13684  15.276   5.319  30.876  0.3713 -0.0956 -0.1220
70591W        W13685  15.843   2.581  27.537  0.0743 -0.2647  0.0335
70592W        W13686  16.133   4.271  30.560 -0.1177  0.1334 -0.2795
70593W        W13687  17.297   2.783  31.321  0.0565  0.0927  0.0292
70594W        W13688  14.677   6.899  29.285  0.2565  0.2217 -0.1049
70595W        W13689  17.697   8.439  29.052 -0.4087 -0.1265 -0.1444
70596W        W13690  13.996   4.657  28.855  0.1619 -0.3694  0.5271
70597W        W13691  14.350   3.754  27.812  0.1277 -0.2371 -0.2162
70598W        W13692  18.453   3.322  30.571  0.0684 -0.0404  0.2105
70599W        W13693  15.803   6.112  27.589  0.0739  0.0540  0.1612
70600W        W13694  17.265   3.824  29.397 -0.3271  0.0313 -0.2488
70601W        W13695  16.205   7.850  28.017  0.0719 -0.0615 -0.2269
70602W        W13696  15.062   5.451  29.316 -0.0571  0.0687 -0.3320
70603W        W13697  15.430   7.032  30.102  0.0385  0.0789  0.0623
70604W        W13698  15.458   4.175  28.689 -0.2988 -0.0291 -0.5508
70605W        W13699  19.061   4.858  29.393  0.1927  0.0567  0.0213
70606W        W13700  15.220   4.396  30.048  0.2076  0.1679  0.2753
70607W        W13701  18.947   4.190  30.644  0.3879  0.1309  0.2532
70608W        W13702  14.364   5.075  29.816 -0.0916 -0.5340 -0.0860
70609W        W13703  17.524   4.628  28.728  0.0778  0.1715  0.1353
70610W        W13704  17.606   5.188  30.505  0.0311  0.1976  0.0432
70611W        W13705  14.824   4.846  29.831  0.0788 -0.0146 -0.0714
70612W        W13706  16.681   5.515  26.043  0.2803  0.0524  0.1881
70613W        W13707  18.410   5.382  29.768 -0.2697  0.2208 -0.1975
70614W        W13708  16.395   4.109  26.235 -0.0908 -0.0162 -0.1431
70615W        W13709  16.497   6.866  29.520 -0.1598  0.3859  0.0514
70616W        W13710  16.394   3.382  28.663  0.2039 -0.1224  0.1291
70617W        W13711  16.278   4.584  27.146 -0.2407  0.0432 -0.1037
70618W        W13712  15.711   5.000  27.963  0.1083 -0.2694 -0.3420
70619W        W13713  15.337   4.891  30.090  0.2048 -0.1100  0.1403
70620W        W13714  16.496   6.025  31.706  0.0449 -0.4361  0.0542
70621W        W13715  14.982   3.861  29.915 -0.3625 -0.0539  0.1081
70622W        W13716  17.530   6.289  26.814 -0.1133  0.0593  0.0761
70623W        W13717  17.792   4.737  29.654 -0.2171 -0.3061 -0.1871
70624W        W13718  16.000   7.018  27.798  0.0776 -0.0451 -0.0243
70625W        W13719  17.509   4.691  28.243 -0.0417 -0.0206 -0.0260
70626W        W13720  16.383   7.742  29.282  0.2645 -0.0863  0.0335
70627W        W13721  14.085   4.338  31.283 -0.1243 -0.0126  0.0120
70628W        W13722  15.662   5.972  29.675 -0.1027  0.0049 -0.3129
70629W        W13723  18.032   5.382  27.987 -0.2414 -0.1725  0.1393
70630W        W13724  15.964   4.209  29.097 -0.1017  0.0583  0.0632
70631W        W13725  15.844   5.192  30.067 -0.1426 -0.3487  0.1151
70632W        W13726  14.880   6.673  28.290 -0.3515  0.0763 -0.2107
70633W        W13727  18.626   4.900  29.728 -0.0147 -0.0494  0.0531
70634W        W13728  18.091   2.421  30.756  0.1914 -0.2049 -0.1286
70635W        W13729  16.310   7.168  29.214  0.0758  0.1244 -0.3147
70636W        W13730  18.416   2.691  30.472  0.2359 -0.1265  0.1714
70637W        W13731  16.970   6.431  30.613 -0.2014 -0.1612 -0.2811
70638W        W13732  16.805   7.047  31.348  0.1275 -0.0888  0.2456
70639W        W13733  14.849   4.446  28.137  0.1517 -0.1921  0.1762
70640W        W13734  15.294   4.769  30.772  0.0083  0.1750  0.1651
70641W        W13735  16.531   5.999  28.103 -0.0368 -0.0261  0.0759
70642W        W13736  15.982   6.557  29.007  0.4225  0.3276  0.2874
70643W        W13737  17.343   6.541  29.012  0.1213 -0.1607  0.2990
70644W        W13738  15.017   5.804  28.029  0.2512  0.0846 -0.1792
70645W        W13739  18.045   5.956  26.824  0.1639 -0.2687  0.1094
70646W        W13740  16.336   5.439  29.669 -0.5355 -0.0994  0.4955
70647W        W13741  17.909   4.488  28.990  0.2616 -0.0897 -0.3589
70648W        W13742  17.682   3.318  28.585  0.0485 -0.3264  0.0150
70649W        W13743  14.758   6.021  29.479 -0.2745 -0.1228 -0.0041
70650W        W13744  14.422   7.054  26.701 -0.1107 -0.1722  0.1032
70651W        W13745  14.078   6.049  27.411 -0.1318  0.2338 -0.2354
70652W        W13746  14.885   5.749  28.994  0.1157 -0.0562  0.2802
70653W        W13747  15.434   4.777  31.256 -0.3153  0.3036 -0.0064
70654W        W13748  14.107   6.347  31.417 -0.1945 -0.2376 -0.0112
70655W        W13749  15.996   4.857  28.423 -0.0113 -0.4269 -0.1126
70656W        W13750  15.446   1.262  28.921 -0.0484 -0.3549 -0.0974
70657W        W13751  18.521   5.954  27.430  0.1517  0.0436 -0.0304
70658W        W13752  15.547   4.673  28.635 -0.1878  0.1066 -0.0488
70659W        W13753  14.159   4.110  29.821 -0.2195 -0.0519  0.0047
70660W        W13754  17.697   6.801  28.110  0.2036 -0.0028  0.0574
70661W        W13755  19.089   6.103  27.329  0.0111  0.2313  0.0818
70662W        W13756  16.315   3.003  30.307 -0.1200  0.4095 -0.0174
70663W        W13757  18.207   6.549   0.074  0.1415  0.1097  0.1426
70664W        W13758  14.437   5.519  26.428  0.1783 -0.0036  0.1876
70665W        W13759  17.007   4.072  30.032  0.0036  0.2263  0.1057
70666W        W13760  16.295   2.727  31.737 -0.1372 -0.2549 -0.1908
70667W        W13761  15.190   4.469  27.171 -0.0354  0.0399 -0.0880
70668W        W13762  16.098   3.848  28.701  0.1452  0.1354 -0.0962
70669W        W13763  17.132   5.315  28.020 -0.1475  0.3469 -0.1634
70670W        W13764  15.822   7.009  28.972  0.3965  0.3109  0.0412
70671W        W13765  15.782   5.556  31.099 -0.1863  0.2199  0.2422
70672W        W13766  16.195   5.851  30.887 -0.1339 -0.0838 -0.0672
70673W        W13767  14.504   2.856  29.002 -0.1463 -0.2136  0.1835
70674W        W13768  18.516   6.321  27.085  0.2037 -0.1315  0.1078
70675W        W13769  16.088   6.528  29.571 -0.1003 -0.0816 -0.2724
70676W        W13770  18.719   6.195  27.753 -0.3121  0.0619 -0.0347
70677W        W13771  16.472   3.399  30.524  0.0224  0.1437 -0.1314
70678W        W13772  17.075   6.017  26.853 -0.0281  0.1317 -0.1290
70679W        W13773  15.607   3.719  31.175 -0.2886  0.1800  0.2637
70680W        W13774  14.563   4.181  31.381  0.2594  0.1639  0.3269
70681W        W13775  18.272   5.997  30.514  0.4602 -0.0621  0.3099
70682W        W13776  15.760   3.515  29.459 -0.0042  0.1434 -0.1540
70683W        W13777  18.020   4.132  27.304 -0.1141  0.0243  0.0782
70684W        W13778  15.689   5.737  27.272  0.1771 -0.3357  0.1302
70685W        W13779  14.257   4.130  28.843 -0.2095  0.1372 -0.2493
70686W        W13780  17.191   4.456  29.023  0.0489 -0.1133 -0.2129
70687W        W13781  15.468   5.509  31.887  0.0080 -0.0061 -0.2207
70688W        W13782  18.579   6.271  28.884  0.0425  0.0872  0.0241
70689W        W13783  17.755   6.095  28.621 -0.2504 -0.0940 -0.0003
70690W        W13784  16.111   5.763  27.781 -0.0611 -0.3808 -0.3530
70691W        W13785  19.731   5.645  29.210 -0.4183  0.0321  0.1453
70692W        W13786  16.379   6.712  30.000  0.0396 -0.0050  0.1200
70693W        W13787  17.436   6.134  29.406  0.0768 -0.1514 -0.0801
70694W        W13788  16.574   6.328  29.492 -0.1037 -0.1407  0.0780
70695W        W13789  19.873   5.340  28.764  0.3644  0.0302 -0.1717
70696W        W13790  15.796   3.086  29.798  0.0027  0.0729  0.2255
70697W        W13791  15.565   5.669  27.773  0.1940 -0.2179  0.0022
70698W        W13792  15.507   3.600  27.512  0.2283  0.0326 -0.1870
70699W        W13793  17.625   3.870  31.317 -0.4673 -0.1878  0.1384
70700W        W13794  15.003   4.933  28.399 -0.2425  0.0905 -0.1511
70701W        W13795  17.016   2.851  29.151 -0.4523 -0.3412 -0.1326
70702W        W13796  16.059   7.905  30.578  0.1156 -0.1596 -0.2942
70703W        W13797  17.036   5.558  29.977 -0.1921  0.1362 -0.0499
70704W        W13798  16.588   5.107  31.291  0.0012  0.1224 -0.0811
70705W        W13799  17.386   4.894  31.405 -0.1695  0.2297 -0.1034
70706W        W13800  15.212   3.684  30.931 -0.0428  0.1793 -0.0611
70707W        W13801  15.222   6.227  31.741  0.0464  0.0351  0.3781
70708W        W13802  15.094   6.955   0.897 -0.0056  0.2088  0.1643
70709W        W13803  14.005   5.637  30.383 -0.1302  0.0335 -0.0730
70710W        W13804  16.420   4.295  31.672 -0.1210  0.1435 -0.1119
70711W        W13805  15.962   3.049  30.727 -0.3255 -0.0170  0.1310
70712W        W13806  17.738   5.814   1.016  0.0963 -0.0909  0.2299
70713W        W13807  16.558   6.254  30.850 -0.0962  0.1538 -0.2783
70714W        W13808  16.463   5.880   0.229 -0.0882  0.0176  0.0678
70715W        W13809  16.808   2.194  30.885  0.0685 -0.0788  0.0994
70716W        W13810  15.655   4.055  30.799 -0.0451  0.0267  0.0574
70717W        W13811  15.078   4.664   0.505 -0.1927 -0.1070 -0.0880
70718W        W13812  16.697   4.888  30.340 -0.0657 -0.0489  0.3550
70719W        W13813  15.300   6.221  30.636 -0.0381  0.0134 -0.0413
70720W        W13814  15.492   5.475  30.195  0.0776 -0.0372  0.0454
70721W        W13815  16.801   4.979  31.774 -0.2338 -0.0339 -0.0171
70722W        W13816  15.384   4.269   0.728  0.3172 -0.2898 -0.0259
70723W        W13817  14.186   5.747   1.150  0.0283 -0.1167 -0.4468
70724W        W13818  14.453   4.746  31.220  0.3092  0.2386 -0.1504
70725W        W13819  15.151   4.824  31.934 -0.4365  0.0459 -0.1346
70726W        W13820  17.539   4.410   1.152  0.0575  0.3282  0.0467
70727W        W13821  15.786   4.555  31.568 -0.1741 -0.3505 -0.0743
70728W        W13822  18.393   3.310  31.402  0.0875  0.0212  0.0397
70729W        W13823  15.950   4.686   0.780 -0.1527  0.1490  0.5152
70730W        W13824  15.924   3.028  31.555 -0.0107  0.1271  0.1067
70731W        W13825  15.764   6.966  31.558  0.0475  0.0616  0.2203
70732W        W13826  15.868   4.713  30.804 -0.2180  0.0701 -0.1002
70733W        W13827  16.695   5.610   0.607 -0.0948  0.2947  0.1824
70734W        W13828  16.346   5.517  31.348  0.1488  0.3018  0.0022
70735W        W13829  15.603   4.356  30.331 -0.0922  0.3317  0.1976
70736W        W13830  18.116   5.989  31.966  0.1794 -0.2856  0.0120
70737W        W13831  17.074   3.760   0.683 -0.1784 -0.0171  0.2503
70738W        W13832  16.076   6.337  30.517 -0.3245  0.0277  0.1259
70739W        W13833  16.313   4.759  30.574 -0.1762  0.0898 -0.0924
70740W        W13834  15.262   5.851   0.189 -0.2213  0.2360  0.0807
70741W        W13835  15.327   4.318   0.217  0.2716  0.0470 -0.0224
70742W        W13836  17.134   4.889   0.147 -0.0835  0.1040 -0.3928
70743W        W13837  17.339   5.176   0.646 -0.2242  0.0041 -0.4687
70744W        W13838  18.000   4.521   0.992  0.0353  0.1635  0.0947
70745W        W13839  15.679   4.698   0.166 -0.1377  0.0612 -0.2359
70746W        W13840  16.061   3.094   1.185  0.0898  0.0591  0.1935
70747W        W13841  17.479   7.384   0.229  0.0209  0.0609  0.2436
70748W        W13842  14.414   6.531  29.900  0.1095 -0.1233  0.2192
70749W        W13843  14.706   5.541   0.014 -0.2640  0.2103  0.0670
70750W        W13844  16.038   4.406   0.071  0.0881 -0.0220  0.1003
70751W        W13845  17.741   6.382  31.938  0.0002 -0.2463  0.2201
70752W        W13846  17.034   5.454   0.236  0.2524  0.0608 -0.2900
70753W        W13847  14.500   5.275  29.306 -0.1003 -0.2115 -0.0709
70754W        W13848  16.310   6.260   0.656 -0.2086  0.1546 -0.0052
70755W        W13849  17.672   2.721  31.722  0.1615  0.0531 -0.2150
70756W        W13850  15.876   4.264   1.063  0.0742  0.0357 -0.0467
70757W        W13851  15.862   5.415  31.605  0.0318 -0.1502 -0.1571
70758W        W13852  15.620   6.138   0.022  0.0012 -0.1345  0.0686
70759W        W13853  15.348   4.153  31.661  0.0949  0.2514 -0.0456
70760W        W13854  16.831   5.583  31.576  0.0332 -0.0241  0.1112
70761W        W13855  15.081   6.563  30.960  0.0153  0.0241  0.2464
70762W        W13856  15.553   6.731   1.099  0.3168 -0.1571 -0.1658
70763W        W13857  15.618   5.650   0.433  0.2394  0.0216 -0.2060
70764W        W13858  14.303   4.460   0.914  0.3204  0.0638 -0.0489
70765W        W13859  14.214   3.850  31.555  0.2822  0.2344 -0.0775
70766W        W13860  15.066   5.283  29.871  0.0925 -0.1090 -0.2843
70767W        W13861  14.735   4.927  30.767 -0.2985 -0.2079 -0.1512
70768W        W13862  17.265   6.496   0.067  0.1232 -0.1542  0.5628
70769W        W13863  17.113   6.036  31.473 -0.2028 -0.0396  0.0918
70770W        W13864  17.741   4.729  31.768 -0.0668 -0.3158 -0.2253
70771W        W13865  16.378   7.877  19.096 -0.2117 -0.0522  0.2517
70772W        W13866  14.140   8.266  17.825 -0.3356 -0.2587 -0.1180
70773W        W13867  16.620   9.010  16.018  0.0229  0.0457 -0.0461
70774W        W13868  17.525   8.365  16.863  0.0230 -0.3939 -0.1576
70775W        W13869  14.346   7.000  16.505 -0.2369 -0.1833 -0.1143
70776W        W13870  17.341  10.164  18.223  0.0690  0.1322  0.0023
70777W        W13871  14.730   5.845  19.526 -0.0827 -0.1812  0.0933
70778W        W13872  17.620   9.432  16.681 -0.1299  0.0665  0.0303
70779W        W13873  16.935   9.889  18.004  0.0041  0.2176 -0.2070
70780W        W13874  16.123   8.760  16.447  0.1727 -0.0693 -0.0534
70781W        W13875  15.633   7.063  18.310  0.1620 -0.2146  0.1785
70782W        W13876  15.993   8.244  17.693 -0.1118  0.0897 -0.0425
70783W        W13877  16.435   6.729  17.804 -0.2398  0.0895  0.1501
70784W        W13878  15.015   7.340  17.230 -0.3130  0.0727 -0.3344
70785W        W13879  17.504   8.111  17.787 -0.1569 -0.0561  0.0488
70786W        W13880  14.527   8.998  16.560 -0.2062  0.0271  0.0184
70787W        W13881  16.122   7.054  19.538  0.1048 -0.0890  0.1287
70788W        W13882  16.714   8.276  16.500 -0.0445 -0.2196 -0.0244
70789W        W13883  16.500   9.055  17.687  0.0505 -0.1060  0.0289
70790W        W13884  17.063   6.847  19.714  0.0676  0.0891 -0.1787
70791W        W13885  17.874   7.641  18.626  0.4493 -0.1656 -0.1191
70792W        W13886  16.518   9.760  16.350  0.1899 -0.1581  0.0981
70793W        W13887  15.415   8.635  16.485 -0.0224  0.1649 -0.0337
70794W        W13888  15.171   7.623  18.290 -0.1546 -0.0963 -0.2947
70795W        W13889  15.620   8.973  17.910  0.1497  0.0816  0.1769
70796W        W13890  17.514   9.042  17.350 -0.1536  0.0026 -0.3052
70797W        W13891  19.380   9.786  18.446  0.1308  0.2263 -0.4296
70798W        W13892  15.778  10.766  18.175  0.0112 -0.0523  0.2472
70799W        W13893  16.154  10.041  16.823  0.0400  0.0603  0.1700
70800W        W13894  16.850   6.994  18.166 -0.1650 -0.0337  0.2841
70801W        W13895  15.920   9.268  16.488  0.0762  0.1799  0.3936
70802W        W13896  15.042  10.702  17.050  0.0402  0.0661  0.0594
70803W        W13897  15.125   9.344  17.248 -0.2309  0.1431 -0.2450
70804W        W13898  19.016  10.404  17.843 -0.1141  0.0761 -0.1155
70805W        W13899  18.560   9.954  18.152  0.2940  0.1685  0.0283
70806W        W13900  16.178   9.946  19.093  0.0762  0.0265  0.3375
70807W        W13901  14.317   9.972  16.847 -0.2448  0.0439  0.2721
70808W        W13902  15.723  10.810  18.646 -0.2910  0.1360  0.0933
70809W        W13903  14.340   9.649  18.766 -0.2349 -0.0831 -0.0212
70810W        W13904  14.524   8.575  19.729  0.1639  0.2462 -0.2600
70811W        W13905  16.294   9.093  16.876 -0.2178 -0.2194  0.2061
70812W        W13906  14.880  10.439  16.285  0.0624 -0.1330  0.0425
70813W        W13907  15.913   9.445  16.968 -0.1568 -0.2471  0.1116
70814W        W13908  16.333   8.889  18.747 -0.0966  0.1324 -0.1352
70815W        W13909  15.451   9.543  19.327 -0.0636 -0.0934  0.2825
70816W        W13910  17.667   7.009  18.924 -0.1012 -0.0198 -0.2342
70817W        W13911  16.050   9.715  16.475  0.1308  0.1195 -0.3337
70818W        W13912  16.311   7.931  15.975 -0.1619 -0.0772  0.1242
70819W        W13913  16.041   7.649  16.394 -0.3908 -0.0718  0.0120
70820W        W13914  18.602   7.998  16.966 -0.0491 -0.2652 -0.2529
70821W        W13915  15.152   5.003  18.287  0.1549 -0.1677  0.1607
70822W        W13916  15.181   9.844  17.456  0.2767 -0.0659 -0.0252
70823W        W13917  16.542   7.120  18.504  0.0619 -0.0982 -0.1671
70824W        W13918  17.228   9.851  19.570  0.1777  0.1083  0.0994
70825W        W13919  16.413   7.521  16.738 -0.1489  0.0618  0.0226
70826W        W13920  15.818   7.505  17.737 -0.0262  0.0717  0.2604
70827W        W13921  16.072  10.408  18.133  0.1642 -0.0222  0.3429
70828W        W13922  14.449   8.645  17.448 -0.1669 -0.0355  0.2142
70829W        W13923  16.904  10.080  16.231  0.1411 -0.0039 -0.0681
70830W        W13924  16.856   9.707  16.705  0.0091  0.0641 -0.0573
70831W        W13925  16.039  10.310  16.428  0.2621  0.1659  0.0234
70832W        W13926  16.313   8.788  17.269 -0.3518 -0.0291  0.1187
70833W        W13927  14.163   7.432  19.238  0.0759 -0.3206 -0.1172
70834W        W13928  15.299   7.933  20.659 -0.5124 -0.0240 -0.1323
70835W        W13929  15.779   8.343  16.580  0.3775 -0.0042  0.1581
70836W        W13930  17.996   9.579  20.224  0.1886 -0.1185  0.1890
70837W        W13931  15.190   7.855  19.252  0.0941 -0.3307  0.0907
70838W        W13932  16.734   7.657  17.527 -0.0289 -0.0328 -0.0835
70839W        W13933  16.452   9.560  18.867 -0.0406  0.0202  0.2009
70840W        W13934  17.105   8.785  18.331 -0.0775 -0.2978 -0.0232
70841W        W13935  16.919   8.870  15.607 -0.2020 -0.0214  0.2362
70842W        W13936  16.561   7.393  18.104  0.1200 -0.2036  0.3469
70843W        W13937  16.230   7.096  18.945  0.1325 -0.0175  0.4042
70844W        W13938  15.362   8.169  16.231 -0.1879  0.0790  0.1103
70845W        W13939  16.738   9.008  17.036  0.2763  0.0258 -0.2187
70846W        W13940  16.488  10.097  18.130 -0.2764  0.1611  0.0457
70847W        W13941  18.896   9.206  16.895  0.1470 -0.0095 -0.0844
70848W        W13942  14.965   9.186  18.229  0.0280  0.0675 -0.0129
70849W        W13943  16.813   7.941  19.496  0.0919 -0.3793 -0.1226
70850W        W13944  15.965  11.061  19.654  0.0204  0.0514 -0.0948
70851W        W13945  15.264  11.434  15.509  0.0959  0.1110  0.1261
70852W        W13946  13.594   8.984  18.135 -0.3613  0.1393 -0.1549
70853W        W13947  15.286   9.625  16.014  0.1221  0.1091 -0.1966
70854W        W13948  15.401   7.607  19.612 -0.1799 -0.0772 -0.0701
70855W        W13949  16.796   9.514  17.700 -0.0673  0.0384 -0.0750
70856W        W13950  16.188   6.317  18.238 -0.1944 -0.1481 -0.0470
70857W        W13951  15.828   8.047  19.792 -0.1200 -0.2234  0.0709
70858W        W13952  17.103   8.145  16.871  0.2065 -0.1723  0.3047
70859W        W13953  15.015   9.049  16.399  0.1214 -0.2833 -0.0375
70860W        W13954  18.130   9.215  16.745  0.4565 -0.4621 -0.0145
70861W        W13955  16.704   7.682  15.728 -0.2191  0.2360 -0.0036
70862W        W13956  17.620   9.814  15.664 -0.0096 -0.3466  0.1731
70863W        W13957  14.115   8.378  19.038  0.0390 -0.0834  0.0869
70864W        W13958  15.069   7.785  16.882  0.0849  0.2681  0.1933
70865W        W13959  16.231   6.507  19.547 -0.0495  0.1221  0.0614
70866W        W13960  15.315   6.984  17.607 -0.0061 -0.1223 -0.3792
70867W        W13961  17.566   8.322  19.027 -0.0987  0.1332 -0.0892
70868W        W13962  15.011   7.813  16.369 -0.0616  0.0727  0.3631
70869W        W13963  16.808   8.515  16.935 -0.1471  0.1160 -0.0214
70870W        W13964  15.499   8.504  17.093  0.2142 -0.0645  0.1267
70871W        W13965  14.735   9.109  17.035 -0.0938 -0.2061  0.4122
70872W        W13966  18.253   7.715  19.373 -0.0066  0.0117 -0.2054
70873W        W13967  17.377  12.351  16.517  0.2554 -0.1390  0.1585
70874W        W13968  18.071  10.129  19.401 -0.0032 -0.2570  0.1105
70875W        W13969  17.930  10.477  16.817 -0.1516  0.1984  0.1958
70876W        W13970  15.204   6.516  19.884 -0.2093  0.2461 -0.3216
70877W        W13971  15.548   7.450  16.958  0.4506 -0.0695  0.2842
70878W        W13972  15.656  10.001  18.333  0.0796  0.0639 -0.2969
70879W        W13973  16.051   8.404  18.843  0.0419 -0.2599  0.0239
70880W        W13974  15.212   7.350  16.614 -0.1038  0.2751 -0.0997
70881W        W13975  18.246  10.874  17.164 -0.1043 -0.2568 -0.0073
70882W        W13976  16.284   8.500  16.879  0.3560  0.1406 -0.4235
70883W        W13977  14.716   8.704  17.880  0.0204  0.3195  0.1052
70884W        W13978  17.670   8.056  18.355  0.0378  0.0766 -0.3270
70885W        W13979  16.781   8.903  19.547  0.2384 -0.3393  0.0740
70886W        W13980  16.812   9.237  16.641 -0.3020  0.0628  0.3944
70887W        W13981  15.082   7.860  15.821  0.0677 -0.3196 -0.0560
70888W        W13982  17.400  10.402  17.261 -0.0701 -0.1743 -0.1931
70889W        W13983  14.167   9.758  16.365 -0.0298  0.1458 -0.1441
70890W        W13984  14.009   8.710  16.644  0.0724  0.3296  0.2819
70891W        W13985  15.631   9.440  17.448  0.3184 -0.1839  0.1871
70892W        W13986  16.882   7.680  17.056  0.2493 -0.2762  0.2279
70893W        W13987  13.983   8.220  18.543  0.0885 -0.1934  0.0202
70894W        W13988  15.735   6.533  18.356 -0.2034 -0.0694 -0.0385
70895W        W13989  14.138   9.009  16.089 -0.0852 -0.0833  0.2037
70896W        W13990  16.854   9.515  17.151 -0.0884 -0.2806  0.1022
70897W        W13991  16.914   6.513  17.817 -0.1402  0.0611 -0.2751
70898W        W13992  17.045   8.102  15.735 -0.0236  0.0898  0.2422
70899W        W13993  16.512   8.659  19.169  0.0250  0.1799  0.2592
70900W        W13994  17.266  10.148  16.604  0.0861  0.0553 -0.0737
70901W        W13995  15.866   8.254  15.633  0.2516 -0.1601 -0.1366
70902W        W13996  17.813   7.290  16.372 -0.0648  0.0028  0.2633
70903W        W13997  15.230   8.724  17.925 -0.1440 -0.2540  0.2172
70904W        W13998  15.432   9.684  16.939  0.2203 -0.1580  0.3195
70905W        W13999  15.644  10.003  19.095 -0.1930 -0.0358  0.1167
70906W        W14000  16.618   7.743  16.280 -0.0740 -0.3071 -0.0751
70907W        W14001  17.882  10.139  15.992  0.1224 -0.1461  0.0695
70908W        W14002  16.135   9.838  18.323 -0.2361  0.4946 -0.1814
70909W        W14003  16.907   8.787  17.867 -0.5348 -0.1014  0.1418
70910W        W14004  17.319   9.568  17.503  0.0909 -0.0267  0.1908
70911W        W14005  17.137   7.342  18.779 -0.0774  0.1837 -0.0936
70912W        W14006  16.275   7.298  17.688  0.0303  0.1065 -0.1231
70913W        W14007  15.842   6.889  17.748 -0.0231  0.1648 -0.1541
70914W        W14008  14.852  10.805  15.922 -0.0879  0.1922  0.1197
70915W        W14009  17.149   7.546  17.889  0.0746  0.0371  0.0955
70916W        W14010  15.641   7.553  18.461 -0.1946  0.0324  0.2785
70917W        W14011  15.602   6.554  18.835 -0.0994 -0.2704  0.4910
70918W        W14012  17.672   8.424  19.842 -0.0396 -0.0208 -0.1086
70919W        W14013  17.128   8.901  16.060  0.0952  0.0723  0.0878
70920W        W14014  16.331   7.831  17.771  0.2492 -0.0427 -0.1135
70921W        W14015  15.505   7.954  17.033  0.1710  0.2010 -0.2038
70922W        W14016  16.348   9.699  17.804  0.1866 -0.0474 -0.4231
70923W        W14017  17.182   7.991  18.229 -0.1422  0.0600  0.1597
70924W        W14018  16.103   9.315  18.550 -0.0295  0.2161  0.0265
70925W        W14019  17.821   9.411  17.656  0.2806 -0.0930  0.2043
70926W        W14020  18.445   8.956  17.019  0.3603 -0.2270  0.0691
70927W        W14021  18.066   6.901  19.249  0.1460 -0.0884  0.0197
70928W        W14022  16.202   7.021  16.438  0.1529  0.0741 -0.2035
70929W        W14023  15.545  10.546  15.510  0.0061  0.1973  0.0854
70930W        W14024  16.068   9.046  16.014 -0.0487 -0.2464 -0.1657
70931W        W14025  14.641   7.217  17.837  0.1625  0.0541  0.0867
70932W        W14026  16.650   9.678  18.348 -0.0502 -0.0619 -0.2268
70933W        W14027  16.159  10.008  16.041  0.1980 -0.1711  0.2415
70934W        W14028  16.007   7.484  19.203 -0.4194 -0.1713 -0.2834
70935W        W14029  15.163  11.537  18.422 -0.1486  0.0097  0.2639
70936W        W14030  17.750   6.786  17.812  0.0460  0.1860 -0.0999
70937W        W14031  15.208  10.151  16.980  0.0338  0.1129  0.0286
70938W        W14032  14.728   7.725  17.993 -0.2131  0.2458 -0.0499
70939W        W14033  14.919   8.606  16.509 -0.0766  0.2393  0.1411
70940W        W14034  16.952   5.654  17.549 -0.0339  0.0395  0.2344
70941W        W14035  17.895   9.159  16.315 -0.0420 -0.2192 -0.4685
70942W        W14036  15.902   7.430  19.716  0.0636  0.3080 -0.0048
70943W        W14037  14.891   6.810  18.011 -0.1827  0.0917  0.1430
70944W        W14038  15.046  10.667  18.065  0.2519 -0.3731 -0.0813
70945W        W14039  16.683   7.141  19.043  0.1209 -0.2613 -0.0548
70946W        W14040  17.854   7.712  16.751 -0.0828  0.4266  0.2115
70947W        W14041  16.951  10.120  18.505  0.2699 -0.1094 -0.2355
70948W        W14042  15.504   7.646  20.204 -0.2492  0.0929  0.2430
70949W        W14043  13.964   7.365  16.300 -0.2849  0.0209  0.0105
70950W        W14044  16.915   7.968  18.648  0.4724 -0.3029  0.2412
70951W        W14045  17.972   8.679  16.959 -0.0155 -0.1096  0.1629
70952W        W14046  13.689   8.633  18.651 -0.2152 -0.2684  0.1414
70953W        W14047  16.150  10.122  17.659  0.1222 -0.1472  0.1034
70954W        W14048  16.227   6.340  17.603  0.2426  0.2098 -0.0603
70955W        W14049  14.523   9.316  15.953 -0.0072  0.0088  0.1229
70956W        W14050  16.794   8.138  20.958  0.1012 -0.0755  0.0359
70957W        W14051  16.573   8.815  18.285  0.2010 -0.1691 -0.0748
70958W        W14052  16.054   6.827  18.618 -0.1039  0.0779  0.1100
70959W        W14053  16.821   8.637  17.397  0.0467  0.2923  0.2593
70960W        W14054  16.360   9.905  17.253  0.0406 -0.0909 -0.2288
70961W        W14055  16.862   9.417  19.346 -0.0709  0.0046  0.0148
70962W        W14056  16.022   7.838  16.892  0.2707  0.0807  0.3009
70963W        W14057  15.955  10.968  20.399  0.1455 -0.1504 -0.2955
70964W        W14058  16.585   6.156  17.958 -0.2076  0.1480  0.4978
70965W        W14059  18.206  10.134  16.378  0.0211  0.0502  0.1311
70966W        W14060  16.532   8.475  17.822 -0.0864  0.0180 -0.2034
70967W        W14061  14.661   8.207  17.694 -0.0404  0.1457 -0.1472
70968W        W14062  15.181   8.998  18.678  0.2204 -0.0331 -0.2442
70969W        W14063  15.639   8.621  16.028 -0.1949  0.0466 -0.1431
70970W        W14064  16.488   6.681  18.814 -0.0839  0.2062 -0.2865
70971W        W14065  15.556   9.764  17.798  0.1091  0.2158  0.0678
70972W        W14066  15.833   9.783  15.512 -0.1042  0.0484 -0.0127
70973W        W14067  15.409   9.574  18.347  0.0297 -0.2170  0.0469
70974W        W14068  18.038   6.232  16.557 -0.0849  0.1922  0.2214
70975W        W14069  15.862   9.612  15.980 -0.1803  0.2324 -0.0842
70976W        W14070  16.654   7.899  18.202 -0.3754 -0.0304 -0.0955
70977W        W14071  17.978   6.648  18.783 -0.2512 -0.1903  0.2408
70978W        W14072  16.792  10.201  15.545 -0.2170  0.0953  0.0849
70979W        W14073  17.013   7.260  21.353  0.2247 -0.1796  0.1178
70980W        W14074  15.971   6.694  19.130  0.1542  0.1923  0.0415
70981W        W14075  18.947  11.111  16.621  0.0386 -0.1035 -0.1910
70982W        W14076  15.137   8.125  17.945  0.0314 -0.2643 -0.3105
70983W        W14077  17.154  10.684  19.103  0.2208  0.1627 -0.0593
70984W        W14078  15.669   8.507  18.050  0.2451 -0.0932 -0.2990
70985W        W14079  15.103   5.328  17.480 -0.0046  0.0441 -0.1675
70986W        W14080  16.618   5.735  16.228 -0.1084  0.2751  0.1254
70987W        W14081  14.588   9.194  17.930  0.0055 -0.1611 -0.0146
70988W        W14082  16.889  10.377  17.989  0.0098  0.1224  0.1266
70989W        W14083  15.621   9.958  16.277  0.1769 -0.0744  0.3447
70990W        W14084  19.063   7.706  17.300  0.0781 -0.0384  0.1494
70991W        W14085  15.101   7.368  17.853 -0.0249 -0.1469  0.2758
70992W        W14086  17.244   9.680  16.434 -0.0629  0.4525 -0.1155
70993W        W14087  17.797   8.457  17.378  0.1165 -0.0506  0.0399
70994W        W14088  15.500   9.392  15.655 -0.0195  0.1953  0.2863
70995W        W14089  14.663   8.262  20.147  0.1075  0.1512 -0.2463
70996W        W14090  16.384  10.176  18.629  0.0868 -0.2862  0.0984
70997W        W14091  17.227   6.536  17.039 -0.0154  0.2083 -0.1370
70998W        W14092  16.014   9.129  17.470  0.1301  0.0860  0.0207
70999W        W14093  18.288   8.741  18.037  0.0691 -0.1774 -0.2478
71000W        W14094  16.576   7.600  18.639  0.1804  0.0195 -0.2144
71001W        W14095  14.930   7.635  19.672 -0.0497 -0.0467 -0.0017
71002W        W14096  15.799   9.808  20.016 -0.5833 -0.2319  0.0709
71003W        W14097  17.735   8.642  16.419 -0.1343 -0.1735 -0.1186
71004W        W14098  17.385   7.139  17.845 -0.0380 -0.0986  0.0944
71005W        W14099  17.737   9.554  17.181 -0.1869  0.0372  0.1262
71006W        W14100  17.216   9.210  17.014  0.0531  0.1175  0.1650
71007W        W14101  15.455   8.270  17.548  0.1399  0.1949 -0.1718
71008W        W14102  15.989  10.547  19.567  0.3410 -0.3976 -0.0710
71009W        W14103  14.731   8.168  17.051 -0.1703 -0.3454 -0.0766
71010W        W14104  17.988   7.101  20.022 -0.0332  0.0834 -0.0089
71011W        W14105  16.815   9.414  16.203 -0.0344 -0.0987  0.0476
71012W        W14106  16.391   9.263  16.399 -0.3488  0.0912  0.1826
71013W        W14107  17.284   8.741  17.027  0.2324 -0.3345  0.0873
71014W        W14108  15.196   6.940  18.830  0.0564 -0.2413 -0.1327
71015W        W14109  14.815   9.541  18.555 -0.1791  0.0920 -0.1134
71016W        W14110  14.672   8.094  16.571  0.1666 -0.2564  0.2006
71017W        W14111  15.220   8.239  16.726  0.1445  0.2059 -0.2718
71018W        W14112  16.286   9.795  19.905  0.1936 -0.1250 -0.1097
71019W        W14113  16.744  10.380  18.934  0.1582 -0.0239  0.0995
71020W        W14114  17.708   5.587  16.041  0.1914  0.1084  0.1019
71021W        W14115  16.629   6.840  20.055 -0.3126  0.1568 -0.2633
71022W        W14116  15.337  10.580  16.027  0.1294 -0.2262 -0.0409
71023W        W14117  17.456   7.628  16.368  0.0661  0.1291 -0.2124
71024W        W14118  15.961   9.349  19.041 -0.0330 -0.1165 -0.0973
71025W        W14119  15.550   7.631  18.999 -0.0546 -0.2475 -0.0809
71026W        W14120  16.657  10.180  16.716 -0.0403 -0.1161  0.0388
71027W        W14121  17.042   7.189  20.073  0.2653  0.1454 -0.1213
71028W        W14122  17.450   9.754  17.979 -0.1068 -0.2392 -0.0186
71029W        W14123  16.301   7.793  17.294 -0.1520 -0.0386 -0.0190
71030W        W14124  16.760   8.254  19.072 -0.0055 -0.0547  0.0819
71031W        W14125  16.126   7.402  18.569  0.0716 -0.4064  0.2050
71032W        W14126  15.380   7.605  17.463 -0.1100 -0.0501  0.0815
71033W        W14127  15.565   9.124  18.361 -0.1301 -0.1645 -0.0555
71034W        W14128  18.807   9.057  17.369 -0.3759 -0.1020  0.0041
71035W        W14129  15.826   8.698  17.361 -0.0999  0.2359 -0.1379
71036W        W14130  15.132   8.313  20.391  0.0923 -0.0656 -0.3778
71037W        W14131  16.580   8.393  19.677  0.2055  0.1699 -0.0332
71038W        W14132  15.976   7.885  18.183  0.0595 -0.2587  0.1680
71039W        W14133  16.166   6.416  16.994  0.2657 -0.0871  0.0876
71040W        W14134  16.625   8.791  16.469 -0.0470  0.0307  0.0298
71041W        W14135  15.030   9.329  19.001 -0.3326  0.0325  0.1530
71042W        W14136  14.063   8.661  17.130  0.1005 -0.1654 -0.2392
71043W        W14137  15.162   9.933  16.459 -0.2056 -0.1433  0.0287
71044W        W14138  16.600  10.874  16.450 -0.0883  0.0006  0.1000
71045W        W14139  16.661   9.813  15.905  0.0997  0.0767 -0.0564
71046W        W14140  16.577  10.915  18.832  0.0289  0.0006 -0.1461
71047W        W14141  15.716   6.711  17.183  0.1404 -0.0918  0.2350
71048W        W14142  14.108   8.698  18.376 -0.0166 -0.3029  0.1744
71049W        W14143  14.591  10.395  15.772  0.0321 -0.2600 -0.2955
71050W        W14144  16.577  10.867  15.885  0.0484 -0.0804  0.0502
71051W        W14145  14.686  10.755  16.623  0.1999 -0.1134  0.0498
71052W        W14146  15.860   9.972  19.510 -0.1265 -0.3027 -0.2155
71053W        W14147  16.877   6.923  16.998 -0.3093  0.0592 -0.2407
71054W        W14148  18.020   9.141  17.260  0.0569  0.3868  0.1338
71055W        W14149  17.104   8.063  16.232 -0.0986 -0.0587 -0.1145
71056W        W14150  17.005  10.479  19.523  0.0509 -0.0936  0.4199
71057W        W14151  15.863   7.819  17.425  0.0689 -0.1564 -0.1237
71058W        W14152  15.882   6.758  16.726  0.0460 -0.0045 -0.2081
71059W        W14153  14.263   8.662  21.638 -0.3256  0.0022 -0.2706
71060W        W14154  16.936   6.385  18.845  0.1083  0.0378  0.1364
71061W        W14155  14.324   9.303  20.154  0.1436  0.1170 -0.0220
71062W        W14156  17.573  10.442  16.342  0.1749 -0.0019  0.1524
71063W        W14157  14.928   7.820  17.375  0.3878 -0.3476  0.0742
71064W        W14158  15.512  10.094  15.763  0.1154  0.0802  0.0213
71065W        W14159  18.847   6.392  19.103  0.1536  0.2673  0.0414
71066W        W14160  15.609   7.809  16.529 -0.0552 -0.0617 -0.1356
71067W        W14161  16.502   8.006  16.878 -0.1464 -0.0763 -0.3461
71068W        W14162  15.859  10.409  15.956  0.1938  0.3215 -0.0006
71069W        W14163  15.538  11.411  18.107  0.2507  0.0032  0.0109
71070W        W14164  16.182  10.657  18.527 -0.0043 -0.4272  0.2376
71071W        W14165  13.745   7.155  17.135 -0.1065  0.2891 -0.1929
71072W        W14166  17.640   8.965  15.935  0.3820 -0.0591  0.0093
71073W        W14167  15.617   8.253  20.197 -0.2253  0.0163  0.0023
71074W        W14168  17.828   7.208  18.092  0.0891 -0.2233  0.0214
71075W        W14169  17.171   8.478  16.515 -0.0114  0.2335 -0.2990
71076W        W14170  17.595   9.463  16.077  0.0361  0.0776  0.0087
71077W        W14171  16.477   9.177  19.172 -0.1387  0.1079  0.1032
71078W        W14172  15.253   8.063  18.565 -0.1163  0.2218 -0.3081
71079W        W14173  17.090   7.532  16.062 -0.2964  0.1124 -0.1799
71080W        W14174  18.121   9.242  19.862 -0.0782 -0.0618 -0.0776
71081W        W14175  17.370   7.101  16.045  0.1617  0.2522  0.1579
71082W        W14176  17.059   9.717  21.103  0.1069  0.2825  0.2052
71083W        W14177  13.697   8.446  18.059 -0.1584 -0.0258  0.0362
71084W        W14178  15.322   6.982  17.031 -0.2158  0.0466 -0.1155
71085W        W14179  14.143   8.848  17.885 -0.0370 -0.2283 -0.1537
71086W        W14180  15.393   8.959  19.722 -0.1115 -0.1734  0.0712
71087W        W14181  16.748   9.675  19.737 -0.2012  0.2402 -0.0924
71088W        W14182  14.069   7.565  17.269  0.1345  0.2547 -0.2703
71089W        W14183  17.387  10.006  16.089 -0.2107 -0.0513  0.1400
71090W        W14184  16.351   9.413  17.333 -0.1464  0.1587  0.0012
71091W        W14185  17.033  10.659  15.466 -0.1801  0.0442 -0.3698
71092W        W14186  18.599   8.387  16.606 -0.1840  0.0897  0.2151
71093W        W14187  17.794  10.205  17.624 -0.2187 -0.3466 -0.3077
71094W        W14188  15.268   6.753  18.280  0.0789  0.2813 -0.1686
71095W        W14189  16.322   9.286  18.102  0.2054 -0.1523 -0.2074
71096W        W14190  18.540   9.298  18.640  0.0587  0.1186 -0.1748
71097W        W14191  16.231   8.109  16.504 -0.1679 -0.4569 -0.0359
71098W        W14192  15.588   7.963  17.889 -0.2107  0.2443  0.2284
71099W        W14193  15.386   9.115  16.821 -0.1357  0.0926  0.2122
71100W        W14194  19.752   8.933  18.749  0.2398  0.3220  0.0352
71101W        W14195  16.115   8.738  17.810 -0.1691  0.1296 -0.1770
71102W        W14196  13.912  11.039  16.028 -0.1139 -0.1851  0.3007
71103W        W14197  17.447   7.478  19.147  0.1160 -0.1032  0.0249
71104W        W14198  15.934   7.856  18.802 -0.0276 -0.2468 -0.2229
71105W        W14199  15.275   9.834  19.635 -0.0114 -0.0517  0.0067
71106W        W14200  14.903  10.005  16.013 -0.0560  0.2906  0.0606
71107W        W14201  14.932   8.522  17.391  0.1709  0.4435  0.1122
71108W        W14202  16.333   9.471  15.911 -0.2796 -0.3259  0.0184
71109W        W14203  16.382  10.578  16.801 -0.1425  0.3443 -0.1048
71110W        W14204  17.269  11.029  18.246  0.0543  0.0664 -0.1773
71111W        W14205  16.347   8.290  17.376  0.0444 -0.0161 -0.1989
71112W        W14206  16.841   8.353  18.241 -0.1319 -0.1385 -0.2226
71113W        W14207  16.531   6.649  18.325  0.1362 -0.2569  0.0532
71114W        W14208  17.436   8.461  16.095  0.0726 -0.0029  0.3234
71115W        W14209  16.567   6.026  17.479 -0.0477  0.1817 -0.1615
71116W        W14210  16.453   8.235  18.600 -0.1450 -0.0905  0.0367
71117W        W14211  13.401   7.963  16.612 -0.2381  0.4917 -0.2045
71118W        W14212  15.078   9.606  14.970  0.0354 -0.0375  0.3502
71119W        W14213  13.844   7.872  18.977  0.2013  0.1550 -0.3479
71120W        W14214  16.478   7.398  21.093 -0.1567  0.2872 -0.0322
71121W        W14215  15.615   7.850  21.086  0.1002  0.2110  0.0697
71122W        W14216  15.376   8.919  17.354 -0.0375 -0.1895  0.1129
71123W        W14217  14.714   8.255  16.065 -0.1003 -0.0217  0.2038
71124W        W14218  18.213   8.786  16.531  0.0338  0.0304  0.0317
71125W        W14219  15.191   5.401  17.962 -0.2856 -0.0745  0.1296
71126W        W14220  15.209   6.560  17.322  0.1708  0.2294  0.4649
71127W        W14221  18.632   9.910  16.953 -0.0484  0.1013  0.2261
71128W        W14222  17.454  10.746  16.749 -0.2889 -0.3471  0.0954
71129W        W14223  16.040   7.238  16.968 -0.1014  0.0380 -0.1580
71130W        W14224  16.980   8.891  19.074  0.2165  0.0598  0.0334
71131W        W14225  14.934  10.075  15.163 -0.1186  0.1436  0.1763
71132W        W14226  18.031   8.221  19.317  0.1185 -0.1585  0.1102
71133W        W14227  14.930   6.862  20.104 -0.2272 -0.3011 -0.1261
71134W        W14228  13.722   6.771  15.365  0.0982 -0.1285 -0.1554
71135W        W14229  14.870   8.978  17.476 -0.2739 -0.4076  0.2832
71136W        W14230  15.971  10.306  17.181  0.1568 -0.0670  0.0837
71137W        W14231  16.924  10.990  16.775 -0.2186 -0.2736  0.0008
71138W        W14232  16.018   8.882  18.306 -0.0788  0.1068  0.3065
71139W        W14233  16.477  10.672  19.430 -0.1304  0.0781 -0.0463
71140W        W14234  14.040   6.299  20.358  0.0151 -0.0063  0.0748
71141W        W14235  17.322   9.117  17.843 -0.1482 -0.2133 -0.2031
71142W        W14236  14.968   8.548  18.384 -0.0378  0.1113  0.0362
71143W        W14237  18.178   9.392  15.332 -0.0650  0.0088 -0.2513
71144W        W14238  17.049   7.283  17.284  0.2108 -0.0535  0.3749
71145W        W14239  17.625   9.002  16.858 -0.3857 -0.0761  0.1182
71146W        W14240  14.849   8.034  18.925 -0.2917  0.1554 -0.0222
71147W        W14241  13.762   8.157  19.945  0.0761  0.4551  0.0840
71148W        W14242  17.423   8.448  18.192 -0.1413 -0.3295  0.1721
71149W        W14243  16.191   6.900  17.341 -0.2559 -0.3763  0.0371
71150W        W14244  18.120   7.688  17.136  0.2638  0.0022 -0.0751
71151W        W14245  16.391   9.594  16.854  0.2022 -0.4878  0.1368
71152W        W14246  14.853   6.915  17.531 -0.4351  0.2366 -0.2604
71153W        W14247  17.432   7.537  16.864 -0.1275 -0.1434 -0.1636
71154W        W14248  15.124   8.485  18.920  0.1790  0.0406 -0.2203
71155W        W14249  16.957  10.544  16.958  0.1692 -0.2339  0.1874
71156W        W14250  17.184   8.355  18.719  0.4098  0.0322 -0.0023
71157W        W14251  16.141   8.380  18.185 -0.2162 -0.3057 -0.0825
71158W        W14252  18.911   9.316  16.339  0.0322 -0.0658 -0.0945
71159W        W14253  16.556  10.414  17.203  0.2636 -0.2869  0.2675
71160W        W14254  18.072   9.885  20.647  0.1665 -0.2494 -0.2202
71161W        W14255  15.103   9.315  17.754 -0.0444 -0.2963 -0.1261
71162W        W14256  16.756   8.643  18.689  0.2130  0.3091 -0.0176
71163W        W14257  15.392   6.198  18.215  0.0455  0.0233  0.5095
71164W        W14258  16.744   7.170  17.694  0.2797 -0.1509 -0.2723
71165W        W14259  15.452   9.062  16.163 -0.2832  0.0478 -0.1081
71166W        W14260  17.020   9.083  17.471  0.1419  0.1036  0.2429
71167W        W14261  14.504   8.443  18.258 -0.0776 -0.2440 -0.3157
71168W        W14262  16.704   6.379  16.932  0.2358  0.3140  0.0709
71169W        W14263  17.161  10.757  20.523 -0.0719 -0.4258  0.0025
71170W        W14264  16.863   9.197  18.141 -0.0245 -0.0687  0.0860
71171W        W14265  15.922  10.631  23.629  0.0795  0.1221 -0.1515
71172W        W14266  15.051   8.380  21.599  0.1866  0.2208  0.3203
71173W        W14267  16.867   7.253  19.516  0.0112  0.1222 -0.0942
71174W        W14268  16.601   9.959  20.895  0.0833 -0.3554 -0.1855
71175W        W14269  15.017   5.740  21.415 -0.2413  0.0164 -0.0032
71176W        W14270  16.629  10.081  21.449  0.0851  0.1916 -0.0379
71177W        W14271  15.829   7.303  23.117 -0.1666 -0.0945  0.0204
71178W        W14272  16.474  10.896  22.883  0.1177  0.0425 -0.1936
71179W        W14273  17.168   9.416  22.149  0.0431  0.1947  0.0526
71180W        W14274  15.731   8.203  18.471 -0.0618  0.0405  0.1259
71181W        W14275  17.799   8.265  23.725 -0.1100  0.2718 -0.3904
71182W        W14276  14.768   9.427  22.123  0.0203 -0.1925  0.4170
71183W        W14277  16.110   8.433  19.425 -0.0307 -0.1382  0.2821
71184W        W14278  15.482   5.096  22.752 -0.1585  0.0224 -0.1424
71185W        W14279  17.692   8.596  23.335 -0.1926 -0.1100 -0.0501
71186W        W14280  16.313   8.801  19.829  0.0775  0.1483  0.1792
71187W        W14281  16.886   7.527  23.306  0.2028 -0.2788 -0.1513
71188W        W14282  16.417   8.651  20.444  0.1418  0.0118  0.0885
71189W        W14283  16.485   9.658  21.821  0.2074  0.0088  0.0060
71190W        W14284  16.614   7.132  23.010  0.3946 -0.3057  0.1045
71191W        W14285  17.012   7.172  24.881  0.1745  0.0519  0.1563
71192W        W14286  16.901   9.082  21.072  0.0953  0.2532 -0.0881
71193W        W14287  15.088   7.890  21.116  0.0990  0.1325  0.1727
71194W        W14288  14.344   7.774  22.373 -0.0278 -0.2457  0.1768
71195W        W14289  16.626   9.241  22.259  0.3166  0.1154  0.0017
71196W        W14290  17.535   7.476  21.279  0.1707  0.0795 -0.1563
71197W        W14291  16.667   9.439  21.306 -0.0574 -0.1178  0.0421
71198W        W14292  15.084  10.694  23.176 -0.0788 -0.1788  0.1018
71199W        W14293  16.864  10.069  22.073 -0.1635  0.1004 -0.2052
71200W        W14294  18.336   8.447  21.852 -0.0651  0.3567 -0.2259
71201W        W14295  13.898   9.789  21.473  0.0841 -0.1067  0.0576
71202W        W14296  13.306  10.017  20.080  0.0036  0.0862  0.1428
71203W        W14297  15.627   9.405  22.492  0.0975  0.0253  0.1216
71204W        W14298  17.536   9.727  20.331 -0.3997 -0.0946  0.0904
71205W        W14299  17.765  11.542  22.010  0.1083 -0.1870 -0.0503
71206W        W14300  15.586  10.486  22.952 -0.1888  0.2083 -0.1106
71207W        W14301  15.189   8.585  19.402 -0.0266  0.2312 -0.1826
71208W        W14302  15.309  10.507  22.098  0.0644  0.0077  0.0220
71209W        W14303  15.094   8.885  23.179  0.0741 -0.2089  0.1436
71210W        W14304  16.195   8.710  23.170  0.2662  0.0888  0.2356
71211W        W14305  16.892   8.084  21.899  0.0887 -0.0673  0.3264
71212W        W14306  14.619   9.084  18.896  0.2383 -0.2297 -0.0771
71213W        W14307  16.431   9.010  20.765  0.2488  0.0720 -0.1272
71214W        W14308  14.616  10.879  21.414 -0.1619 -0.0550  0.4743
71215W        W14309  15.562   8.994  22.147 -0.3902 -0.3314  0.0536
71216W        W14310  18.393   8.378  22.336  0.0885  0.1217 -0.1336
71217W        W14311  14.865  10.244  20.735 -0.0460  0.2434  0.1483
71218W        W14312  17.050   8.430  19.398  0.0046 -0.1856 -0.0429
71219W        W14313  15.513   8.186  19.018  0.1546 -0.0150 -0.2390
71220W        W14314  18.356   9.051  20.231 -0.2327  0.0358  0.0347
71221W        W14315  15.873   6.185  19.756  0.2341 -0.0445 -0.2212
71222W        W14316  15.390  11.635  22.899  0.2416 -0.1298  0.1058
71223W        W14317  15.837   6.415  21.055 -0.0648 -0.2431 -0.0663
71224W        W14318  17.358   9.905  21.969  0.1068  0.0249 -0.0880
71225W        W14319  15.655   8.585  19.244 -0.0579 -0.0663 -0.0879
71226W        W14320  15.897   7.809  21.722 -0.3545  0.2138 -0.0824
71227W        W14321  14.479  10.714  21.835 -0.1040 -0.1781 -0.4054
71228W        W14322  15.369   8.303  20.958  0.0329  0.1565 -0.0099
71229W        W14323  16.852  10.120  19.802 -0.0999  0.0428  0.0886
71230W        W14324  16.908   9.189  20.506 -0.1051 -0.3166  0.1624
71231W        W14325  15.998   8.854  20.397 -0.0546 -0.2637  0.1904
71232W        W14326  16.000   6.135  22.426 -0.0461 -0.1214  0.1506
71233W        W14327  15.170   9.348  23.365 -0.1970 -0.2623  0.1320
71234W        W14328  15.260   9.743  21.659  0.1545 -0.0251  0.1043
71235W        W14329  17.547   7.060  19.460 -0.0378  0.0716  0.2182
71236W        W14330  18.860   9.587  24.301  0.0517  0.1474 -0.1433
71237W        W14331  14.755   9.592  23.486  0.2702  0.0991 -0.0297
71238W        W14332  18.243   6.908  21.199  0.1658  0.1767  0.1025
71239W        W14333  15.079   8.560  19.931 -0.1116 -0.0405  0.0241
71240W        W14334  17.049   9.626  21.639 -0.2796  0.1370  0.0586
71241W        W14335  16.586   9.467  20.795  0.0198  0.5448  0.1383
71242W        W14336  17.319   6.267  22.324 -0.0193 -0.2483  0.2090
71243W        W14337  17.469   7.185  21.808  0.0153 -0.2151  0.0063
71244W        W14338  16.461   7.427  19.389  0.1989  0.4134 -0.0321
71245W        W14339  15.183   8.773  21.320 -0.1245 -0.0404 -0.0215
71246W        W14340  17.515   8.486  22.264  0.1563  0.0152  0.2949
71247W        W14341  17.155   7.884  20.537  0.2350  0.0699  0.2768
71248W        W14342  13.625  10.351  19.871  0.0924  0.1667 -0.0593
71249W        W14343  17.809   9.351  24.371  0.0355 -0.0570  0.2628
71250W        W14344  16.372   9.214  24.016 -0.1872 -0.0178 -0.1348
71251W        W14345  15.725   9.906  20.496  0.0577  0.1418 -0.0130
71252W        W14346  14.878  10.494  20.298 -0.1837 -0.2538  0.0005
71253W        W14347  14.026  10.042  19.821 -0.2018 -0.2266 -0.0204
71254W        W14348  14.077   8.162  22.929  0.1812 -0.3748 -0.3156
71255W        W14349  16.386   9.036  22.742 -0.0382 -0.1335 -0.3111
71256W        W14350  17.801   7.514  19.557 -0.3938  0.1262 -0.2308
71257W        W14351  16.038   8.089  21.314 -0.1308  0.0614 -0.1265
71258W        W14352  18.035   8.104  22.569 -0.1908 -0.1337  0.5838
71259W        W14353  15.626   9.486  21.346  0.0380 -0.0621  0.1203
71260W        W14354  17.479  10.957  22.271  0.1634  0.0024  0.0319
71261W        W14355  17.912   8.461  22.873 -0.0992 -0.1220  0.1460
71262W        W14356  15.463   8.638  18.495 -0.0126 -0.0205  0.0754
71263W        W14357  14.367   9.171  21.940  0.0549  0.3389  0.0595
71264W        W14358  16.017   6.640  22.026 -0.1853  0.2413 -0.2921
71265W        W14359  15.152   8.109  22.578 -0.0578  0.0619  0.2788
71266W        W14360  15.451   8.568  21.895 -0.0772  0.3146 -0.2605
71267W        W14361  17.030   7.953  22.980  0.0564 -0.3596 -0.2241
71268W        W14362  14.547   5.454  18.679  0.1532  0.0266 -0.2554
71269W        W14363  16.518   7.900  21.273  0.0901  0.0935  0.2916
71270W        W14364  16.585   8.558  21.136  0.1931  0.0540  0.0685
71271W        W14365  14.147   8.887  21.131 -0.1069  0.1210  0.2184
71272W        W14366  16.431   6.638  23.060  0.3212 -0.0204 -0.0143
71273W        W14367  16.185   9.794  20.427 -0.0268  0.1254  0.0628
71274W        W14368  18.326  10.984  21.388 -0.3770 -0.1215  0.2785
71275W        W14369  17.142   9.107  21.554  0.1332  0.0764 -0.1109
71276W        W14370  16.386   7.722  22.446 -0.0870  0.2110  0.1707
71277W        W14371  14.749   7.083  21.036  0.0442  0.0613 -0.0403
71278W        W14372  14.166   9.773  20.462  0.0184  0.0573 -0.1799
71279W        W14373  15.714  10.017  21.472  0.0157  0.1452 -0.0257
71280W        W14374  14.797   8.490  22.473  0.1041 -0.1133  0.2090
71281W        W14375  18.347   9.783  21.540 -0.0206 -0.0357 -0.3101
71282W        W14376  17.250   7.639  19.537 -0.1742 -0.2712 -0.2075
71283W        W14377  15.194  10.211  21.375  0.2298 -0.0663  0.1121
71284W        W14378  17.839   5.491  22.539  0.1503 -0.2013  0.0522
71285W        W14379  17.704   8.887  22.506 -0.0759  0.1457  0.0978
71286W        W14380  17.513   8.170  19.495 -0.0666 -0.0135 -0.0195
71287W        W14381  16.158   7.488  21.403  0.0989  0.2192  0.2785
71288W        W14382  16.649  10.601  21.237 -0.0821 -0.0047 -0.3707
71289W        W14383  13.554  10.564  20.384  0.1521  0.0306  0.3205
71290W        W14384  15.070   9.210  20.748 -0.1490 -0.3204 -0.1866
71291W        W14385  15.235  10.968  21.676 -0.0559  0.0406 -0.3164
71292W        W14386  16.455   8.189  22.333 -0.1530 -0.1785 -0.1931
71293W        W14387  13.578   9.046  22.044  0.0962 -0.1476  0.2706
71294W        W14388  16.038   8.147  22.691 -0.0133 -0.0340  0.2417
71295W        W14389  14.780   7.782  21.539 -0.2442 -0.0474  0.0897
71296W        W14390  15.186   8.535  22.826 -0.2502 -0.1957  0.1011
71297W        W14391  17.372   6.863  21.258  0.3978  0.3143  0.1964
71298W        W14392  17.369   9.284  18.766 -0.0368  0.0317  0.4328
71299W        W14393  16.616  10.326  23.266  0.3725  0.0030 -0.1027
71300W        W14394  16.997   9.870  20.586 -0.1842 -0.1886 -0.1371
71301W        W14395  17.435   6.543  19.646 -0.0087 -0.2278  0.0289
71302W        W14396  16.273   7.895  19.623  0.2081 -0.1368 -0.0638
71303W        W14397  13.994  10.210  23.259 -0.0339  0.2756 -0.2731
71304W        W14398  16.708   8.015  20.222  0.2142 -0.2755 -0.1780
71305W        W14399  15.271   9.760  22.210  0.3980  0.1188 -0.0322
71306W        W14400  17.225   7.996  19.125 -0.2383  0.3227  0.1512
71307W        W14401  18.639  10.107  20.605 -0.1304  0.1246  0.4810
71308W        W14402  15.759   8.470  20.700  0.2269 -0.0068 -0.0959
71309W        W14403  16.917   9.229  23.090 -0.1644 -0.1092  0.1184
71310W        W14404  17.188   9.883  22.432  0.0381  0.1103 -0.5106
71311W        W14405  15.747   8.512  21.197 -0.0281  0.3865 -0.2385
71312W        W14406  15.440   8.216  19.548  0.4771  0.1834  0.1251
71313W        W14407  16.979   7.156  21.887 -0.1363 -0.0982 -0.1058
71314W        W14408  14.545   9.336  19.690 -0.0899 -0.1251  0.3703
71315W        W14409  16.399   8.236  23.614 -0.3429  0.0946  0.0064
71316W        W14410  17.270   7.599  22.036 -0.1909 -0.2481  0.0874
71317W        W14411  17.486   7.396  24.153  0.0258  0.1504  0.3507
71318W        W14412  18.124   8.371  24.183 -0.0460 -0.0102 -0.0846
71319W        W14413  17.071   8.312  19.903 -0.0574 -0.0608 -0.1454
71320W        W14414  16.656   8.399  23.177  0.1718  0.2067 -0.1374
71321W        W14415  15.469   8.734  20.213  0.0051  0.1462 -0.2294
71322W        W14416  15.939   7.556  22.586 -0.1673 -0.0972  0.0268
71323W        W14417  15.603   9.422  21.890  0.0845  0.1318 -0.2674
71324W        W14418  14.528   9.405  22.590  0.2544  0.3464  0.1159
71325W        W14419  18.084   9.848  23.303 -0.1024 -0.0159 -0.2367
71326W        W14420  17.009   7.643  20.998  0.1389  0.0296  0.3674
71327W        W14421  17.680   7.094  23.187 -0.2777 -0.0483 -0.1529
71328W        W14422  17.788   6.696  20.457 -0.1617 -0.2383 -0.0925
71329W        W14423  15.008   9.762  21.207 -0.1365 -0.1916 -0.1515
71330W        W14424  15.862   8.976  19.389 -0.1227  0.0312  0.1732
71331W        W14425  15.592   8.097  22.018 -0.1880  0.0769  0.0006
71332W        W14426  15.976   9.844  21.853 -0.0963 -0.3202  0.0281
71333W        W14427  15.392   9.004  19.189  0.0492  0.1870 -0.0601
71334W        W14428  16.895   9.589  24.081  0.0331  0.0398  0.0358
71335W        W14429  13.792  11.119  21.663 -0.0359  0.0583 -0.0164
71336W        W14430  17.105   6.057  22.752 -0.0119  0.1035  0.1041
71337W        W14431  13.606   9.732  20.561 -0.1448  0.4008 -0.2680
71338W        W14432  15.891   9.043  19.907 -0.1365 -0.4759 -0.0697
71339W        W14433  14.053   6.836  19.851 -0.1171  0.0504  0.1402
71340W        W14434  19.325   5.960  21.225  0.1883 -0.0793 -0.1738
71341W        W14435  17.191   8.801  19.795  0.2086 -0.0612  0.1262
71342W        W14436  15.454   7.621  22.827  0.0630  0.0779 -0.1047
71343W        W14437  16.139   6.697  21.414  0.3161 -0.2111  0.2296
71344W        W14438  14.579   9.514  20.624 -0.1266 -0.3791  0.0854
71345W        W14439  16.695   9.361  23.586  0.3382 -0.0684 -0.1301
71346W        W14440  17.693   7.242  20.391  0.0387  0.0279  0.1896
71347W        W14441  16.406  10.179  21.886 -0.1132  0.3046 -0.0849
71348W        W14442  15.163   9.036  21.770  0.1953 -0.2015 -0.0382
71349W        W14443  15.713   7.179  18.807  0.1033  0.1915  0.0525
71350W        W14444  17.492   7.496  22.701  0.0692 -0.2517  0.1073
71351W        W14445  16.415   8.555  22.740  0.0478 -0.0332  0.2982
71352W        W14446  15.735  10.464  20.559 -0.4456  0.0582 -0.2904
71353W        W14447  17.525   9.472  21.787  0.2301 -0.1408 -0.0095
71354W        W14448  15.498   7.370  20.686 -0.3151 -0.0438  0.0450
71355W        W14449  15.169   9.284  21.245  0.3746 -0.0525  0.0702
71356W        W14450  15.544   6.898  23.071 -0.1403 -0.2595 -0.0392
71357W        W14451  16.837  10.099  24.111  0.0383  0.0080 -0.0378
71358W        W14452  16.988   7.975  23.516 -0.0097  0.0092 -0.0106
71359W        W14453  15.250   7.037  21.080 -0.1009  0.3253  0.3847
71360W        W14454  16.814   8.278  22.715  0.0826 -0.1894  0.0675
71361W        W14455  16.003   8.983  22.417  0.4120  0.2537  0.0691
71362W        W14456  16.862   8.485  23.607  0.0516  0.0794  0.2936
71363W        W14457  14.067   9.092  22.348 -0.0246 -0.0406  0.2698
71364W        W14458  17.055   6.605  23.713  0.0164 -0.1257 -0.2090
71365W        W14459  18.965   9.348  20.668 -0.1693 -0.2120  0.1586
71366W        W14460  17.523   8.978  24.711 -0.5351  0.2155 -0.0263
71367W        W14461  16.167   8.815  21.490  0.3336  0.2332 -0.3133
71368W        W14462  13.504   7.331  22.406 -0.2677 -0.2093  0.0756
71369W        W14463  15.004   9.538  19.945 -0.1366  0.1025 -0.3674
71370W        W14464  16.557   6.205  22.589  0.2787  0.2258 -0.0905
71371W        W14465  15.081  10.248  23.009  0.0510 -0.1261 -0.1137
71372W        W14466  14.513   8.759  20.170  0.1904 -0.2751  0.0529
71373W        W14467  13.546   9.539  23.417 -0.0946  0.2296 -0.0159
71374W        W14468  17.531   7.739  20.816  0.1174  0.0749  0.0360
71375W        W14469  16.968   9.683  18.877 -0.0321 -0.1193  0.2137
71376W        W14470  16.005   8.917  21.930 -0.1157 -0.0745 -0.3055
71377W        W14471  18.523   7.716  22.897 -0.1508 -0.0351  0.0589
71378W        W14472  17.359   9.199  20.260  0.0591  0.1784  0.1134
71379W        W14473  16.907   6.359  23.100  0.2027 -0.0179  0.0002
71380W        W14474  15.604   7.909  22.478  0.0668 -0.0230  0.2676
71381W        W14475  19.322   9.416  21.024  0.1685  0.0719 -0.1540
71382W        W14476  16.439   7.969  23.019 -0.3514  0.1812 -0.0082
71383W        W14477  15.672  10.749  22.477  0.0703  0.4124  0.0859
71384W        W14478  13.740   8.336  23.273  0.0335 -0.0117  0.0471
71385W        W14479  16.903   9.215  19.976 -0.1604  0.1425 -0.1952
71386W        W14480  14.677   6.505  20.264  0.0506 -0.0955 -0.1076
71387W        W14481  15.632   9.968  22.884 -0.1748 -0.0338 -0.0265
71388W        W14482  17.871   9.731  21.569  0.0438 -0.1521  0.1100
71389W        W14483  15.229   9.194  20.282  0.1658 -0.0148 -0.3036
71390W        W14484  17.198   8.648  20.316 -0.1467 -0.0183  0.1384
71391W        W14485  15.889   9.171  22.901  0.1534 -0.1723  0.0619
71392W        W14486  17.600   8.937  21.411 -0.1355  0.1331  0.0717
71393W        W14487  15.668   9.389  20.408  0.0578 -0.1865 -0.0306
71394W        W14488  16.060   8.833  20.995  0.2725 -0.0626 -0.1660
71395W        W14489  15.167   7.361  24.197 -0.2738  0.2152  0.0142
71396W        W14490  16.056   9.280  20.688  0.2508 -0.2713  0.2174
71397W        W14491  17.304   8.336  20.736 -0.0802 -0.3791 -0.0320
71398W        W14492  16.484   7.740  23.577 -0.0775  0.2747  0.0703
71399W        W14493  19.105   8.353  23.482  0.2831  0.1304  0.0537
71400W        W14494  16.515   7.248  23.520  0.0051 -0.0747  0.0044
71401W        W14495  14.357   8.847  24.275  0.1740  0.3045  0.1141
71402W        W14496  17.622  11.537  21.529  0.2235 -0.0902  0.0761
71403W        W14497  18.690   7.167  20.148 -0.0029  0.1432 -0.0659
71404W        W14498  18.762   8.728  23.651 -0.0955  0.6494 -0.0960
71405W        W14499  17.274   8.006  21.227  0.0437  0.0869 -0.0578
71406W        W14500  15.891   7.981  19.310  0.1284  0.1466  0.1877
71407W        W14501  14.734   9.374  21.609  0.2011 -0.0021 -0.4595
71408W        W14502  17.678   9.155  23.424  0.0316  0.2645 -0.0671
71409W        W14503  16.718   7.589  20.521 -0.2127 -0.0329 -0.0241
71410W        W14504  15.760   7.062  23.600  0.2686 -0.1218 -0.1225
71411W        W14505  14.829   8.886  19.290 -0.0923  0.0732  0.2287
71412W        W14506  17.392   9.008  22.026 -0.0783 -0.0525 -0.0958
71413W        W14507  16.737   7.058  20.464 -0.2129  0.2015 -0.1882
71414W        W14508  13.742   6.676  20.308  0.0158 -0.0120 -0.0230
71415W        W14509  14.084   9.572  22.512  0.1406 -0.1679  0.2689
71416W        W14510  14.889   7.371  20.610 -0.0399  0.1220  0.0430
71417W        W14511  17.823   7.802  19.118 -0.0002  0.2022  0.0801
71418W        W14512  16.570   9.586  22.677 -0.0599  0.1268  0.3022
71419W        W14513  17.239  10.753  24.285  0.0498 -0.1090  0.3108
71420W        W14514  15.738   5.681  20.617 -0.1113  0.2639  0.2616
71421W        W14515  17.457   8.118  22.667 -0.0468  0.1543  0.0778
71422W        W14516  14.893  10.109  19.922  0.0484  0.0595 -0.1144
71423W        W14517  15.735   6.937  21.225  0.1828 -0.2296 -0.0316
71424W        W14518  15.478  10.097  21.894 -0.2146 -0.1895 -0.0808
71425W        W14519  13.001   9.517  21.770 -0.1666  0.0764 -0.0224
71426W        W14520  15.871  10.629  21.145  0.1180 -0.1840  0.2471
71427W        W14521  17.996   8.062  25.102 -0.2714  0.1814  0.2546
71428W        W14522  17.303   9.328  23.869 -0.0875  0.0339 -0.1106
71429W        W14523  17.127   8.953  23.507  0.0980  0.2089 -0.2729
71430W        W14524  18.422   8.271  22.922 -0.0750 -0.0143 -0.0938
71431W        W14525  16.078   9.418  22.158  0.1285  0.0610 -0.0715
71432W        W14526  15.021   8.640  20.837 -0.0910  0.0146 -0.1720
71433W        W14527  16.666  10.082  22.589  0.0636 -0.1217  0.1981
71434W        W14528  17.800   9.227  20.914  0.2142  0.0651  0.1563
71435W        W14529  14.990  10.101  22.030  0.0618 -0.1448 -0.2029
71436W        W14530  15.543   8.121  22.904  0.1588 -0.2040  0.0661
71437W        W14531  16.398   9.932  22.959  0.1232  0.0481  0.0099
71438W        W14532  16.997   9.082  22.537  0.3403 -0.0430 -0.2106
71439W        W14533  14.503   7.258  21.456  0.2868 -0.0011  0.0353
71440W        W14534  15.021   9.746  20.636  0.1905 -0.3111  0.1613
71441W        W14535  14.236   9.414  24.225  0.1611  0.0681  0.2664
71442W        W14536  14.156  10.781  21.455 -0.1001 -0.1992 -0.3247
71443W        W14537  13.314  10.509  21.106 -0.0766 -0.2662  0.1378
71444W        W14538  15.546  10.126  20.909  0.0740  0.2862 -0.3518
71445W        W14539  17.070   7.757  20.053 -0.1066 -0.3749 -0.0132
71446W        W14540  17.436  10.568  22.576 -0.2802  0.1235 -0.2333
71447W        W14541  17.590   7.910  19.876 -0.1273  0.1224  0.2431
71448W        W14542  16.052   9.339  21.631  0.0782  0.0345  0.1326
71449W        W14543  14.154   9.239  19.166  0.0573 -0.0886  0.1145
71450W        W14544  17.157  10.852  19.879  0.1856  0.0257 -0.0722
71451W        W14545  14.688   9.345  21.129 -0.1190 -0.3149 -0.1424
71452W        W14546  17.671  10.731  24.016 -0.1086 -0.0737 -0.0480
71453W        W14547  16.286   6.798  20.487 -0.1611 -0.1343  0.0354
71454W        W14548  16.178   9.324  21.152  0.0162 -0.3440  0.3122
71455W        W14549  18.215   8.969  21.054  0.1165  0.0860 -0.3273
71456W        W14550  15.979  10.580  24.235  0.0754 -0.0734 -0.2621
71457W        W14551  15.473   9.566  20.912 -0.4245 -0.2170  0.2833
71458W        W14552  16.120   7.699  20.170 -0.1862 -0.0626 -0.0383
71459W        W14553  14.682   8.549  23.026  0.3091 -0.0725  0.1047
71460W        W14554  18.199   6.958  22.426  0.1780  0.0777  0.0717
71461W        W14555  13.575  11.301  22.705  0.2713 -0.1805  0.1691
71462W        W14556  16.973  10.315  20.273 -0.1699 -0.0515 -0.2486
71463W        W14557  13.925   7.587  21.376  0.2225 -0.1621  0.2536
71464W        W14558  17.241   8.617  21.264 -0.0975 -0.1480  0.4820
71465W        W14559  17.518   6.606  21.812 -0.2375 -0.1244  0.1051
71466W        W14560  15.865   9.723  18.747  0.1111  0.1187  0.1582
71467W        W14561  17.414  10.158  22.867 -0.0279 -0.2458  0.2357
71468W        W14562  15.341  10.636  21.188  0.4230  0.1568  0.2525
71469W        W14563  17.616  10.075  23.318  0.0120 -0.0034  0.1835
71470W        W14564  16.366   9.859  22.290  0.2507  0.0563 -0.1055
71471W        W14565  14.902   6.635  21.179 -0.0553  0.0469  0.1425
71472W        W14566  17.558   6.410  21.318 -0.0458  0.1308  0.0579
71473W        W14567  15.092   8.767  22.192 -0.0992 -0.1066  0.1788
71474W        W14568  18.784   7.911  23.632 -0.0971 -0.2873  0.0223
71475W        W14569  16.419   9.100  20.234  0.0262  0.1320 -0.2514
71476W        W14570  18.235   6.593  20.784 -0.1272  0.3702  0.0792
71477W        W14571  15.328   8.732  23.660  0.3428  0.0190  0.1064
71478W        W14572  14.622   8.957  22.321 -0.0788  0.2560  0.2233
71479W        W14573  16.898   8.301  21.460  0.2078 -0.0726 -0.0333
71480W        W14574  17.478   8.096  23.166  0.0457 -0.3913 -0.0812
71481W        W14575  16.832   9.258  18.700 -0.0196 -0.0832  0.1639
71482W        W14576  18.047  10.446  23.814  0.2130  0.0906  0.0115
71483W        W14577  13.722   6.896  21.175 -0.1569  0.0049 -0.1360
71484W        W14578  18.244   8.011  19.728  0.0842  0.2858 -0.2793
71485W        W14579  14.603   8.421  20.663  0.1698 -0.1818 -0.0546
71486W        W14580  15.674   7.893  24.061 -0.0927 -0.1003 -0.1942
71487W        W14581  17.824  10.312  24.376  0.1962 -0.2350  0.0404
71488W        W14582  14.047   5.889  20.622 -0.1081  0.0229 -0.0913
71489W        W14583  15.504   9.440  19.881  0.1771 -0.0658  0.2435
71490W        W14584  16.808   8.667  22.375 -0.2054  0.0272 -0.0768
71491W        W14585  14.583   9.738  20.128  0.0239 -0.0463  0.3364
71492W        W14586  16.491   9.167  21.741  0.0256  0.3126 -0.0433
71493W        W14587  16.299  10.651  21.987  0.0171 -0.2134 -0.0061
71494W        W14588  14.664   9.054  23.434 -0.1193 -0.2165 -0.2572
71495W        W14589  17.461  10.509  21.348  0.1192  0.0365  0.0486
71496W        W14590  18.003   9.296  22.095  0.2905  0.0069 -0.0350
71497W        W14591  16.784   6.777  21.179 -0.2753 -0.1386 -0.0337
71498W        W14592  15.942   8.342  21.741 -0.0109  0.0534  0.0408
71499W        W14593  14.886  11.110  20.449 -0.2868  0.1527 -0.1953
71500W        W14594  17.045   7.776  22.471  0.0777 -0.2596  0.0806
71501W        W14595  16.005   7.962  22.224  0.0238 -0.1391  0.1656
71502W        W14596  14.792  10.744  20.799 -0.1024 -0.2025 -0.0392
71503W        W14597  15.913   6.520  23.402 -0.0971 -0.0137 -0.0979
71504W        W14598  15.486  10.554  21.627 -0.0038  0.0083  0.0134
71505W        W14599  15.601   9.035  21.153 -0.3272  0.0499 -0.0973
71506W        W14600  13.792   7.574  20.580 -0.2137 -0.1770 -0.0530
71507W        W14601  15.394   9.892  25.492  0.0471 -0.1518 -0.3011
71508W        W14602  15.749   8.883  18.800 -0.2547 -0.4834 -0.1255
71509W        W14603  16.517  10.626  20.355 -0.1468  0.3146 -0.0833
71510W        W14604  17.894   8.807  21.914 -0.1531  0.0250 -0.0304
71511W        W14605  17.424   8.092  21.885  0.0487 -0.0747 -0.2692
71512W        W14606  18.456   9.278  20.819  0.0830  0.0365  0.2210
71513W        W14607  16.712   8.755  21.539  0.2019 -0.2099 -0.1708
71514W        W14608  17.909   6.236  21.040  0.3446  0.2002 -0.3223
71515W        W14609  17.938   6.180  20.526  0.0895 -0.0135  0.0709
71516W        W14610  14.332   7.739  21.105 -0.0963 -0.1077 -0.0491
71517W        W14611  14.596   7.334  20.195  0.1449  0.1302 -0.0624
71518W        W14612  14.773   8.075  18.409 -0.0701 -0.3227 -0.0056
71519W        W14613  14.477   8.258  22.130  0.0633 -0.3800  0.2010
71520W        W14614  15.464   8.250  23.798  0.0777 -0.1302  0.2815
71521W        W14615  15.724   7.468  22.133  0.0390  0.2662  0.1096
71522W        W14616  14.763   9.257  20.296 -0.1012  0.0600 -0.0749
71523W        W14617  14.044   6.630  20.859 -0.0868  0.0967  0.0540
71524W        W14618  17.423   8.893  20.755 -0.3365 -0.1317  0.2578
71525W        W14619  15.660   7.455  21.394  0.2663 -0.3128 -0.1078
71526W        W14620  14.002   7.278  22.275  0.1953  0.1103 -0.1299
71527W        W14621  14.938   8.791  20.329 -0.3473  0.1130  0.0298
71528W        W14622  17.420   9.963  21.398  0.0785 -0.1427  0.1420
71529W        W14623  16.404   8.620  21.967 -0.2344  0.0533 -0.0078
71530W        W14624  18.660   9.591  23.762 -0.0717  0.0962 -0.0649
71531W        W14625  14.268   8.172  19.882  0.0977 -0.1456  0.0165
71532W        W14626  16.639   8.915  23.322 -0.4888  0.2059  0.0716
71533W        W14627  16.001   7.085  22.186 -0.0935 -0.1081  0.2658
71534W        W14628  13.408   5.110  20.849  0.1342  0.4082 -0.0129
71535W        W14629  16.376   7.217  22.523 -0.1652 -0.1283  0.2643
71536W        W14630  16.036  10.365  21.617 -0.1815  0.3882 -0.0382
71537W        W14631  16.768   8.687  20.063  0.2213 -0.1349  0.0009
71538W        W14632  16.032   9.862  23.278 -0.1629 -0.1578 -0.0850
71539W        W14633  14.490  10.984  24.429  0.4121 -0.1960  0.1533
71540W        W14634  15.148   5.811  23.423  0.0721  0.1254 -0.0363
71541W        W14635  17.183   7.384  20.540 -0.0902  0.1089 -0.0577
71542W        W14636  14.595  10.956  23.738 -0.0584 -0.2641 -0.2678
71543W        W14637  16.065   9.405  20.165  0.0135 -0.2057  0.0740
71544W        W14638  17.064   6.700  21.603 -0.3693  0.0505 -0.0129
71545W        W14639  16.248   7.436  21.952 -0.0719 -0.4253 -0.1383
71546W        W14640  15.383   8.815  24.155 -0.1065  0.3556 -0.0038
71547W        W14641  13.661   8.739  22.469  0.1997 -0.0882 -0.0250
71548W        W14642  17.857   8.951  23.010 -0.3930  0.0215 -0.2796
71549W        W14643  15.976   5.914  21.012 -0.2360 -0.1385 -0.0203
71550W        W14644  17.309   6.801  20.556  0.0730 -0.1866 -0.3452
71551W        W14645  16.247   9.747  21.358  0.2235  0.2325  0.1794
71552W        W14646  14.690   8.752  21.865 -0.0694 -0.2246 -0.1148
71553W        W14647  16.187   6.121  21.475 -0.2192 -0.1354  0.1020
71554W        W14648  17.274   7.800  23.942 -0.2173  0.4456  0.0435
71555W        W14649  15.758   9.954  22.381 -0.3073  0.0849  0.1102
71556W        W14650  16.940   8.719  22.910 -0.0505 -0.1009 -0.2348
71557W        W14651  16.203   8.145  20.327 -0.1939  0.2529  0.1552
71558W        W14652  18.110   8.635  20.063  0.0123  0.3772  0.0315
71559W        W14653  17.255  10.398  22.127 -0.2006  0.0657 -0.1089
71560W        W14654  18.153  11.764  22.700  0.0767  0.1189 -0.1935
71561W        W14655  15.991  11.019  21.522 -0.1776  0.1719 -0.0224
71562W        W14656  17.860   9.912  22.877  0.0743  0.1374  0.0822
71563W        W14657  15.181   5.795  22.844  0.3640  0.0127  0.2942
71564W        W14658  15.646   9.032  21.625 -0.1395 -0.0689  0.2720
71565W        W14659  15.729   6.659  20.159  0.0219 -0.3225  0.1600
71566W        W14660  17.873   7.801  22.963 -0.0949  0.1530 -0.2838
71567W        W14661  16.388   8.356  21.552  0.2606 -0.0212  0.0060
71568W        W14662  15.793   7.918  20.582  0.1867  0.0931 -0.0933
71569W        W14663  16.559  12.338  21.538 -0.1222  0.1224  0.3857
71570W        W14664  15.725   9.430  23.333  0.0558  0.0373 -0.2086
71571W        W14665  15.277  11.019  28.183 -0.2817  0.0893 -0.1840
71572W        W14666  14.411   8.997  25.596  0.1192 -0.2425 -0.1881
71573W        W14667  18.263   8.433  23.530  0.0650 -0.1679 -0.0057
71574W        W14668  19.411   8.067  25.777 -0.2118  0.0741  0.1618
71575W        W14669  15.630   6.556  25.109 -0.0376  0.0332 -0.2256
71576W        W14670  16.128   9.259  24.484  0.1393 -0.2093 -0.0869
71577W        W14671  15.815   9.860  27.762  0.1413 -0.0117  0.0193
71578W        W14672  16.959  10.096  26.839 -0.1662 -0.0521 -0.3671
71579W        W14673  17.176  11.013  25.842  0.0280 -0.2914  0.1445
71580W        W14674  18.507   8.553  25.682 -0.2188 -0.2123  0.1425
71581W        W14675  13.996   9.445  27.238  0.2686 -0.0594  0.3605
71582W        W14676  17.258   9.490  24.703 -0.2289 -0.0376  0.1821
71583W        W14677  16.040   6.746  25.544 -0.0506  0.1412  0.0484
71584W        W14678  15.581   6.078  25.115  0.2347 -0.0229 -0.1009
71585W        W14679  17.510  10.272  26.997 -0.1860 -0.3036  0.1903
71586W        W14680  15.167  10.309  24.811 -0.1579 -0.0007  0.2361
71587W        W14681  15.000   9.550  26.231 -0.1322  0.1487 -0.2435
71588W        W14682  16.332   9.393  23.076  0.0678  0.1541 -0.2119
71589W        W14683  17.348  10.178  25.607 -0.0445  0.0019  0.4304
71590W        W14684  16.568   8.595  25.534  0.1545  0.0080 -0.2905
71591W        W14685  17.153   7.346  28.437  0.0407  0.1555  0.1066
71592W        W14686  17.332   9.789  24.245  0.2312 -0.0993  0.1049
71593W        W14687  14.260   9.515  23.679 -0.1282  0.2343  0.2398
71594W        W14688  15.012   8.491  25.904  0.1484  0.0608 -0.0451
71595W        W14689  14.764   9.253  25.818  0.0171  0.1301 -0.3186
71596W        W14690  16.951   7.668  27.086  0.1922  0.1135 -0.0813
71597W        W14691  17.513   9.667  26.293  0.3700 -0.0038  0.3716
71598W        W14692  16.431  10.580  24.599  0.2021 -0.2242 -0.1975
71599W        W14693  16.974  10.392  24.499 -0.1131  0.0689  0.4342
71600W        W14694  16.406   9.545  26.628 -0.5217  0.2277  0.1053
71601W        W14695  14.433  10.011  25.626  0.1792 -0.0837  0.0849
71602W        W14696  15.154  10.250  27.154  0.2030 -0.0510 -0.2289
71603W        W14697  15.694   9.830  23.697  0.3079  0.2958 -0.3401
71604W        W14698  19.122   8.615  25.566 -0.3118 -0.3155 -0.1258
71605W        W14699  18.276   9.641  27.329  0.0492  0.0040  0.2903
71606W        W14700  14.422  10.661  27.372 -0.1765  0.0610 -0.0994
71607W        W14701  14.918  11.057  25.213  0.3900 -0.2876 -0.1490
71608W        W14702  17.660  10.226  25.996  0.0013  0.0308  0.2796
71609W        W14703  14.799  10.903  28.100 -0.5381  0.1575 -0.0475
71610W        W14704  16.466   8.472  26.260  0.0393  0.0818 -0.1208
71611W        W14705  16.649   8.466  24.210  0.2129 -0.0224  0.1215
71612W        W14706  15.521  10.965  24.474 -0.0067 -0.0565 -0.2460
71613W        W14707  16.153   8.935  25.376 -0.3880 -0.0698 -0.0746
71614W        W14708  15.277   9.470  28.087 -0.2135  0.0222  0.0865
71615W        W14709  15.391  10.316  25.235 -0.0961 -0.0800 -0.0803
71616W        W14710  18.590   7.607  28.277 -0.0024 -0.0665  0.0497
71617W        W14711  16.554  10.099  24.538 -0.1067  0.0287  0.2382
71618W        W14712  18.426   7.989  23.299  0.0595  0.1924  0.1048
71619W        W14713  17.542   8.943  24.218  0.6548  0.0451 -0.1903
71620W        W14714  19.017   7.373  25.148  0.2679  0.3325 -0.2708
71621W        W14715  15.471   7.967  25.330 -0.0442 -0.0139 -0.0462
71622W        W14716  15.640  10.736  25.440 -0.2717  0.2676  0.3037
71623W        W14717  16.977   8.373  28.233  0.0936 -0.0556  0.2034
71624W        W14718  18.991   9.547  26.802 -0.0953 -0.0157  0.3020
71625W        W14719  15.975   7.812  25.124 -0.2821  0.1968  0.1376
71626W        W14720  19.318   7.530  27.915 -0.0431  0.2647  0.1864
71627W        W14721  14.352   8.880  27.294 -0.0394  0.0074 -0.0871
71628W        W14722  15.814   9.072  26.012 -0.2288  0.0574 -0.2562
71629W        W14723  18.437   9.867  24.537  0.1616  0.1397 -0.0314
71630W        W14724  19.902  10.464  23.979  0.2386  0.0639  0.0819
71631W        W14725  17.283   9.512  23.315  0.0283 -0.0138  0.5158
71632W        W14726  14.290   9.876  25.106  0.1127 -0.1562  0.1374
71633W        W14727  13.969   9.911  26.523 -0.1776 -0.0623 -0.0748
71634W        W14728  14.088   8.017  26.278  0.1383 -0.0235 -0.0895
71635W        W14729  15.248   8.393  24.418  0.1537 -0.1387  0.2513
71636W        W14730  16.840   8.976  27.031 -0.0215 -0.0688  0.0791
71637W        W14731  13.885   9.472  26.215  0.1320  0.1754  0.2694
71638W        W14732  17.948   7.213  26.087 -0.0836 -0.0150  0.0029
71639W        W14733  15.388   9.358  25.040  0.0538 -0.1760 -0.1179
71640W        W14734  19.276  10.182  26.705 -0.3157  0.3334  0.3455
71641W        W14735  16.398   9.251  24.886 -0.0445 -0.1754 -0.4422
71642W        W14736  17.636   7.147  26.486 -0.3281 -0.1873 -0.1711
71643W        W14737  16.511   8.936  27.395 -0.0238  0.0596  0.1519
71644W        W14738  14.821   9.316  23.017 -0.0364  0.1961 -0.2068
71645W        W14739  16.723   9.927  23.664  0.2962 -0.0814 -0.0866
71646W        W14740  18.501   9.685  26.874 -0.1262  0.0616 -0.1014
71647W        W14741  17.576   8.010  25.632  0.1126 -0.0808  0.0976
71648W        W14742  15.066   9.009  26.107  0.2413  0.0139 -0.1298
71649W        W14743  15.039   9.413  27.223 -0.1550  0.3346  0.0262
71650W        W14744  16.938   9.413  26.659 -0.4070  0.0024 -0.1470
71651W        W14745  13.283  10.525  23.164 -0.1727  0.1345 -0.1297
71652W        W14746  13.817   9.731  25.180 -0.0961 -0.0019 -0.1705
71653W        W14747  14.881   8.588  23.508  0.1422  0.2617  0.2405
71654W        W14748  14.373   7.592  26.406 -0.1214 -0.0100  0.1147
71655W        W14749  15.934   8.578  26.203 -0.0691  0.1204 -0.1841
71656W        W14750  16.030   6.301  25.300 -0.2725  0.1566 -0.4107
71657W        W14751  16.087   7.777  26.677 -0.1166 -0.2535 -0.0809
71658W        W14752  19.227   6.754  26.044 -0.0983  0.1052  0.1414
71659W        W14753  15.111  10.759  25.582 -0.2369 -0.0833  0.4137
71660W        W14754  18.218   9.904  25.422 -0.2627 -0.0538 -0.0351
71661W        W14755  18.358   7.876  25.342 -0.0501  0.2595  0.3622
71662W        W14756  18.843   9.665  25.364  0.1702  0.1050 -0.1539
71663W        W14757  15.459   8.688  26.202 -0.0955 -0.2894  0.1311
71664W        W14758  14.533   8.837  25.131 -0.1639  0.0680 -0.0626
71665W        W14759  16.244   8.250  25.888  0.1104 -0.1409 -0.1551
71666W        W14760  16.302   6.324  25.714 -0.4009 -0.1526  0.0373
71667W        W14761  17.889  10.141  26.428 -0.1138 -0.1100 -0.3593
71668W        W14762  14.524  10.216  24.823 -0.1852 -0.1565 -0.1802
71669W        W14763  16.652   7.015  26.278  0.1714 -0.1411 -0.0232
71670W        W14764  17.240   7.603  24.599 -0.0398 -0.0784 -0.1567
71671W        W14765  15.540   9.164  23.706 -0.0034 -0.1562  0.0661
71672W        W14766  17.140   6.752  28.320  0.0016 -0.3297 -0.1480
71673W        W14767  17.376  10.383  23.701  0.0595  0.1256 -0.1243
71674W        W14768  19.164  10.094  27.579 -0.0850  0.0361  0.3430
71675W        W14769  17.441   9.333  25.205 -0.0138  0.0921 -0.0023
71676W        W14770  15.649   8.802  27.612 -0.2526 -0.0568  0.0710
71677W        W14771  15.576   6.940  25.493  0.2899  0.5926 -0.2519
71678W        W14772  15.809  10.041  26.182 -0.1108  0.0470  0.0602
71679W        W14773  16.139   8.385  24.014 -0.0187 -0.2511  0.1526
71680W        W14774  15.604   7.627  24.870  0.1102  0.2217  0.0498
71681W        W14775  17.781   9.375  24.845  0.2548  0.1860 -0.1715
71682W        W14776  16.541   7.953  24.845  0.1583  0.1721  0.0333
71683W        W14777  15.653  10.130  27.258  0.1256 -0.0098  0.0648
71684W        W14778  16.401   7.438  26.923 -0.3396 -0.3059 -0.1154
71685W        W14779  18.150   9.913  25.932 -0.1706 -0.1435 -0.3530
71686W        W14780  16.288   8.585  25.004 -0.3425 -0.0379 -0.2794
71687W        W14781  15.961   8.064  23.689 -0.6040  0.0264 -0.0507
71688W        W14782  17.757   9.977  23.981  0.4080  0.1770  0.0234
71689W        W14783  15.326   9.792  23.248 -0.0649 -0.0880  0.0704
71690W        W14784  14.989   9.119  25.083 -0.0074 -0.2807 -0.0660
71691W        W14785  17.228   9.886  23.670  0.0704 -0.1234  0.4489
71692W        W14786  18.141   7.567  25.826  0.0036 -0.3601  0.0350
71693W        W14787  13.605   9.243  26.547  0.0704 -0.0835 -0.0859
71694W        W14788  16.564   7.926  26.846 -0.1515 -0.0613 -0.2752
71695W        W14789  13.948   8.682  23.623 -0.2679  0.0353 -0.1323
71696W        W14790  14.612  10.566  28.371 -0.1581  0.1040 -0.0075
71697W        W14791  15.828   6.795  24.586 -0.2034 -0.2072 -0.1200
71698W        W14792  17.382   7.081  25.249  0.0177 -0.1425 -0.1967
71699W        W14793  16.390   9.472  25.334  0.1246  0.3529  0.3821
71700W        W14794  17.431   8.684  26.350 -0.1728  0.1077  0.0370
71701W        W14795  17.291   8.308  23.869  0.1622  0.0422  0.2564
71702W        W14796  17.544   7.147  24.778  0.1986  0.2973  0.1067
71703W        W14797  15.402  11.237  27.254 -0.1339 -0.0209 -0.0807
71704W        W14798  16.646   8.968  25.960 -0.1700  0.2343 -0.0162
71705W        W14799  16.778   9.878  26.434 -0.0429 -0.0783  0.1917
71706W        W14800  15.945   8.978  24.075 -0.0903 -0.1090 -0.1180
71707W        W14801  18.519  10.051  24.012  0.1074 -0.1445 -0.0943
71708W        W14802  14.355  10.387  25.274  0.1801 -0.0266 -0.0379
71709W        W14803  16.312  10.068  26.259  0.1552  0.0591 -0.1729
71710W        W14804  18.507   9.805  26.352  0.1809  0.4025  0.3413
71711W        W14805  16.034   8.334  28.347 -0.0345  0.0097 -0.0269
71712W        W14806  16.970   8.829  23.980  0.3056  0.0438  0.3237
71713W        W14807  16.883   7.374  28.044  0.1698  0.2474  0.0373
71714W        W14808  15.130   9.645  22.688  0.0049 -0.3285 -0.0466
71715W        W14809  17.444   9.262  26.518  0.1508  0.2801 -0.4226
71716W        W14810  16.797   9.363  25.713 -0.0227  0.0641  0.0505
71717W        W14811  16.154   8.022  27.094  0.0829  0.0439  0.1434
71718W        W14812  19.150   9.114  27.919 -0.0487 -0.2473  0.1192
71719W        W14813  17.058   8.478  25.522  0.1123 -0.4078  0.1153
71720W        W14814  17.046   9.195  26.214 -0.1626  0.0704  0.1281
71721W        W14815  14.341   9.008  22.757  0.2216 -0.2227 -0.0751
71722W        W14816  16.740   8.222  25.927 -0.1315  0.2381  0.1088
71723W        W14817  15.877   8.242  27.859  0.4794 -0.3768  0.0846
71724W        W14818  14.836  10.468  26.215 -0.1823 -0.0426 -0.0841
71725W        W14819  16.062  10.955  26.491  0.0776  0.0853 -0.0654
71726W        W14820  17.387   9.335  25.735 -0.2702 -0.3672  0.0029
71727W        W14821  16.081   7.393  27.366 -0.3036  0.0592  0.1457
71728W        W14822  17.036   7.150  25.802 -0.1135  0.0594  0.1858
71729W        W14823  15.270  10.469  23.555 -0.3801 -0.2901  0.1302
71730W        W14824  16.929   8.061  24.439 -0.0071  0.0059 -0.0860
71731W        W14825  16.047   5.848  26.759 -0.1657  0.1961  0.1572
71732W        W14826  16.706  10.246  25.929 -0.0638  0.1318  0.0606
71733W        W14827  15.402   9.282  22.960 -0.0430 -0.0765 -0.1266
71734W        W14828  16.886   9.428  25.202 -0.0344  0.2753 -0.0059
71735W        W14829  16.149  10.098  23.699  0.1011 -0.0395  0.1901
71736W        W14830  17.119   6.608  27.028  0.3333  0.0343 -0.0678
71737W        W14831  16.279   9.263  25.743  0.3656 -0.2295  0.0738
71738W        W14832  16.206   7.917  24.092 -0.4000  0.0014 -0.0675
71739W        W14833  14.084   8.098  24.672 -0.0524 -0.1814 -0.1131
71740W        W14834  17.146   9.178  24.336  0.1721  0.1282 -0.1476
71741W        W14835  18.328  10.843  24.848  0.1780  0.0847  0.0133
71742W        W14836  16.535   6.687  27.558 -0.2298  0.1935 -0.2193
71743W        W14837  15.578   9.359  27.509 -0.1854 -0.0029  0.0619
71744W        W14838  15.184  10.505  26.635 -0.1162 -0.3079 -0.0581
71745W        W14839  16.965   8.607  26.226 -0.1451  0.0388 -0.0078
71746W        W14840  17.988   6.426  25.530  0.1416  0.2045 -0.1572
71747W        W14841  18.184   9.042  25.310  0.1482  0.0671  0.1886
71748W        W14842  15.550  10.787  27.866 -0.2490 -0.0115  0.2876
71749W        W14843  15.490   7.922  23.424 -0.0237  0.0256 -0.1591
71750W        W14844  16.855   9.552  27.887  0.0060 -0.2240 -0.1837
71751W        W14845  16.399   7.739  25.700 -0.0613 -0.0048  0.1458
71752W        W14846  15.088   9.993  26.505  0.1152  0.1567  0.3230
71753W        W14847  16.028  10.402  25.237  0.1549  0.0635  0.0868
71754W        W14848  15.703   8.119  24.689 -0.2668 -0.0703 -0.0379
71755W        W14849  15.549  11.301  25.349 -0.0201 -0.1174 -0.3822
71756W        W14850  15.429   9.061  27.098  0.0327  0.0361  0.0311
71757W        W14851  17.804  11.419  26.816  0.1143  0.1245  0.0889
71758W        W14852  15.822   8.571  25.528 -0.0530 -0.0328  0.0068
71759W        W14853  14.822   6.862  24.458  0.1353  0.1549 -0.1714
71760W        W14854  16.191   9.742  24.707  0.1224 -0.1569 -0.0611
71761W        W14855  17.881   9.288  25.606  0.3345  0.1196  0.1722
71762W        W14856  17.356   8.430  27.300  0.0733 -0.1014  0.0107
71763W        W14857  14.615  11.351  28.995  0.0270 -0.0387 -0.0976
71764W        W14858  16.266   7.056  26.576 -0.0313 -0.0642  0.1755
71765W        W14859  18.400   9.429  24.739  0.0188  0.2198  0.0464
71766W        W14860  17.377  10.003  27.386 -0.0986  0.3950  0.1230
71767W        W14861  17.360   8.580  22.731  0.1022  0.0806  0.2812
71768W        W14862  14.978   9.144  23.812 -0.0678  0.0352 -0.4324
71769W        W14863  16.316  11.405  23.531  0.4047 -0.2482  0.2056
71770W        W14864  16.109   9.289  27.507  0.0724  0.0256  0.4143
71771W        W14865  15.518   8.699  24.707  0.2470 -0.2577  0.3052
71772W        W14866  16.381   8.733  23.750 -0.1850  0.1909 -0.0464
71773W        W14867  14.862   9.769  27.729 -0.2456 -0.0450  0.0640
71774W        W14868  17.569   7.515  25.803 -0.1448  0.1479  0.2723
71775W        W14869  17.525   8.752  23.789 -0.2168 -0.0906  0.1334
71776W        W14870  15.752   9.597  24.559  0.0761  0.3682 -0.0512
71777W        W14871  18.342   8.359  27.368  0.0460 -0.1232 -0.1406
71778W        W14872  18.044   8.536  25.469  0.3795  0.1154 -0.1201
71779W        W14873  16.791   7.007  28.774 -0.2953  0.0725 -0.0656
71780W        W14874  16.350   9.670  27.963 -0.2690 -0.0878 -0.1686
71781W        W14875  17.243   8.673  25.096 -0.0883  0.1484  0.0009
71782W        W14876  15.318   7.245  27.014 -0.2884  0.1379  0.2090
71783W        W14877  16.167  10.801  27.907 -0.0024  0.3731  0.1811
71784W        W14878  14.284   8.657  28.479  0.0007  0.1479 -0.0893
71785W        W14879  17.030   7.927  25.595 -0.1386  0.1297 -0.1577
71786W        W14880  15.090   7.749  25.078 -0.0067  0.0111 -0.0641
71787W        W14881  15.441   9.601  26.876 -0.1675  0.2112 -0.0408
71788W        W14882  15.891   9.494  24.013  0.0845 -0.1421 -0.2829
71789W        W14883  16.102   8.720  24.502  0.4679 -0.0314 -0.0796
71790W        W14884  18.285   8.135  26.869  0.4758 -0.0930 -0.2212
71791W        W14885  14.882   9.436  26.714 -0.2387 -0.3794 -0.2222
71792W        W14886  17.686   9.775  25.165 -0.0021 -0.0712  0.3118
71793W        W14887  16.630   9.026  24.426  0.2479  0.1208 -0.0472
71794W        W14888  16.385  10.517  23.673  0.1455 -0.2262 -0.2271
71795W        W14889  14.665   8.804  27.660 -0.1583 -0.2621 -0.1760
71796W        W14890  16.094  10.221  24.748 -0.0364  0.2560  0.0401
71797W        W14891  16.486   7.492  26.393  0.0365  0.3170 -0.0994
71798W        W14892  17.827   8.446  26.533  0.1061  0.1651  0.1532
71799W        W14893  17.811   8.783  27.307 -0.0598 -0.0669 -0.0355
71800W        W14894  17.037   9.741  25.975 -0.2312 -0.2289  0.0608
71801W        W14895  15.513   7.762  26.545 -0.1297  0.1012  0.0770
71802W        W14896  17.711  10.900  25.051 -0.0595 -0.4061  0.0924
71803W        W14897  17.987   8.166  23.268  0.1607 -0.1141 -0.4301
71804W        W14898  18.293   7.444  27.102  0.2237 -0.1572  0.3073
71805W        W14899  17.666   8.882  25.363  0.0292 -0.1121  0.2552
71806W        W14900  16.243   8.271  24.543 -0.0309 -0.0370  0.1133
71807W        W14901  14.776   7.177  25.714 -0.0392  0.1553 -0.1485
71808W        W14902  17.892   9.807  27.048 -0.0252  0.1740  0.0331
71809W        W14903  15.642   8.851  23.257 -0.0164 -0.0311 -0.0170
71810W        W14904  16.565   8.458  27.779 -0.2148 -0.0038 -0.0428
71811W        W14905  17.212  10.875  23.799 -0.0954 -0.0612  0.0506
71812W        W14906  16.413   7.631  25.195 -0.3149  0.3188  0.2672
71813W        W14907  17.601   8.364  25.299 -0.1500  0.0116  0.0462
71814W        W14908  14.968   8.604  26.393 -0.1103 -0.4140 -0.0517
71815W        W14909  14.767  10.264  28.021  0.1899  0.1336  0.0359
71816W        W14910  16.324   9.646  23.730 -0.1629  0.2166 -0.1174
71817W        W14911  15.143   9.244  22.386  0.1784  0.4347 -0.0757
71818W        W14912  16.207  10.345  27.136  0.1269  0.0940  0.0181
71819W        W14913  18.284   9.612  27.964  0.0266 -0.0592  0.0726
71820W        W14914  16.465   7.194  25.623  0.0496 -0.1316  0.1957
71821W        W14915  18.123   7.876  28.217  0.0990 -0.0845  0.2584
71822W        W14916  15.681  10.205  23.416 -0.1384  0.3403 -0.0614
71823W        W14917  15.023   6.896  26.241 -0.1282  0.0083 -0.0998
71824W        W14918  15.442  10.613  25.890  0.4625 -0.1593  0.1366
71825W        W14919  15.560   9.651  26.381 -0.1087 -0.1510  0.3762
71826W        W14920  16.222  10.834  25.719 -0.1747  0.2230 -0.1720
71827W        W14921  15.919   8.017  26.182  0.1516  0.1683 -0.4211
71828W        W14922  17.261   9.735  25.394 -0.1576 -0.0994  0.0719
71829W        W14923  14.506   8.355  26.405  0.3095  0.0268  0.1282
71830W        W14924  17.894   7.936  26.680  0.0283 -0.0862  0.0198
71831W        W14925  17.097  11.314  26.242  0.0511 -0.1893 -0.1907
71832W        W14926  15.999   9.635  22.683 -0.1846  0.1951 -0.1936
71833W        W14927  16.162  11.683  25.743  0.0305 -0.1152 -0.2465
71834W        W14928  17.082   8.628  26.732 -0.1202  0.1820  0.0219
71835W        W14929  15.706   8.385  24.220  0.1481  0.2022 -0.2113
71836W        W14930  13.701   9.177  28.566 -0.1257  0.2588  0.1488
71837W        W14931  15.914  10.440  27.599 -0.1453  0.1558  0.1900
71838W        W14932  16.643   9.769  24.959  0.0937 -0.0471  0.1958
71839W        W14933  14.298   8.200  25.122  0.0209 -0.1648 -0.1511
71840W        W14934  15.634  10.325  23.957  0.0083 -0.0182  0.2419
71841W        W14935  13.740  11.248  27.487 -0.2810  0.6319 -0.0583
71842W        W14936  13.567  10.100  26.163 -0.1530  0.1914 -0.1542
71843W        W14937  15.544  11.338  24.126  0.1265 -0.0602  0.0851
71844W        W14938  16.914   9.830  22.996 -0.0106  0.0053  0.0818
71845W        W14939  18.315   8.422  24.756 -0.0151 -0.2603 -0.0235
71846W        W14940  18.225  10.408  25.196 -0.3571 -0.0053 -0.0086
71847W        W14941  15.850   8.605  23.680 -0.2610 -0.1372  0.0851
71848W        W14942  15.829   9.407  27.089  0.0284 -0.0215  0.1994
71849W        W14943  14.586  10.299  23.084 -0.1556  0.0714  0.4451
71850W        W14944  17.856  10.403  22.765 -0.0846  0.5256 -0.0222
71851W        W14945  15.915   9.537  25.122  0.1816  0.0697  0.3605
71852W        W14946  17.077  10.547  26.733 -0.1201 -0.3001  0.2391
71853W        W14947  17.809   8.600  24.932 -0.1857  0.1743 -0.0135
71854W        W14948  17.497   8.857  26.893  0.0099  0.1854 -0.2556
71855W        W14949  16.698   8.155  25.291  0.0012  0.3082 -0.2295
71856W        W14950  16.548  10.260  25.017 -0.3073  0.0815 -0.0116
71857W        W14951  16.204   8.793  25.830  0.3394  0.0083 -0.1256
71858W        W14952  16.527   7.378  24.047  0.4064 -0.1065  0.1043
71859W        W14953  14.129   9.932  26.997  0.0069  0.0902 -0.4292
71860W        W14954  18.439   7.146  28.081 -0.0183 -0.1188 -0.0282
71861W        W14955  14.980  10.885  27.315 -0.4137  0.0105  0.3824
71862W        W14956  17.042   9.009  24.833  0.0714  0.1108  0.2125
71863W        W14957  14.250   8.541  24.771  0.0695  0.0319  0.0101
71864W        W14958  15.751   9.206  25.468  0.0049 -0.2700  0.1587
71865W        W14959  19.389   7.885  27.214  0.3207  0.1845  0.0999
71866W        W14960  16.339   9.645  24.237 -0.1734  0.1723  0.2990
71867W        W14961  16.609   8.497  26.797  0.0228  0.3032 -0.3424
71868W        W14962  17.507  11.260  23.953  0.1994 -0.0324 -0.1865
71869W        W14963  16.266   9.938  25.350  0.3899  0.0873 -0.1544
71870W        W14964  17.116  10.201  25.151 -0.1456 -0.1803  0.2022
71871W        W14965  14.929   8.396  23.983  0.0543 -0.1247  0.0528
71872W        W14966  17.864   7.699  25.394  0.0621  0.0097  0.1426
71873W        W14967  15.123   8.956  26.642  0.0538  0.2503 -0.2001
71874W        W14968  19.663   7.644  25.943  0.0098  0.2771  0.0308
71875W        W14969  15.652   8.408  25.083  0.4005 -0.0636  0.0453
71876W        W14970  17.279   8.849  25.842 -0.2272  0.1553  0.0625
71877W        W14971  16.630  10.443  27.030  0.0167  0.2656 -0.2024
71878W        W14972  15.532   9.123  26.439 -0.0492  0.3842  0.0613
71879W        W14973  17.167   8.574  24.362  0.1426 -0.3186  0.1527
71880W        W14974  17.090   9.003  25.435  0.1222 -0.3858 -0.1172
71881W        W14975  17.262   9.544  22.794 -0.2060  0.2079 -0.0272
71882W        W14976  17.007  10.809  26.294  0.0390  0.0204 -0.0142
71883W        W14977  14.023   8.752  25.940  0.2912 -0.0753  0.0330
71884W        W14978  16.544   7.458  24.689  0.0324 -0.2873  0.0829
71885W        W14979  15.283  10.533  24.351  0.4185  0.0529  0.0266
71886W        W14980  15.965   9.299  26.631 -0.0627  0.0807 -0.2494
71887W        W14981  19.147   9.550  27.604 -0.0571  0.1190 -0.2326
71888W        W14982  16.070   7.238  25.135  0.0963  0.1346  0.0957
71889W        W14983  18.033   8.786  24.451 -0.1860  0.2745  0.0305
71890W        W14984  17.711   9.096  26.080  0.0250 -0.0967  0.1027
71891W        W14985  16.357  12.062  23.734 -0.0072 -0.2364  0.1828
71892W        W14986  17.597   7.648  26.331 -0.0900  0.1092  0.2443
71893W        W14987  16.001  10.025  24.202 -0.2746 -0.1460  0.0240
71894W        W14988  15.417   7.501  27.516 -0.0588 -0.1835  0.1290
71895W        W14989  17.970   9.333  23.824  0.2289  0.2179 -0.0616
71896W        W14990  18.621  11.151  26.570 -0.0214  0.0163  0.2171
71897W        W14991  15.881   7.888  25.653 -0.1514  0.0935  0.0539
71898W        W14992  14.457   8.022  26.787  0.0304  0.1161  0.1113
71899W        W14993  13.616  10.955  23.658 -0.0772  0.1456  0.0102
71900W        W14994  18.903   7.050  25.698  0.1617 -0.0561  0.2904
71901W        W14995  18.277   7.601  27.789  0.1108 -0.0997 -0.4425
71902W        W14996  16.883  10.454  21.744 -0.0685 -0.0028 -0.1029
71903W        W14997  18.654   7.309  26.696  0.2080 -0.1173  0.0289
71904W        W14998  15.697  10.226  25.635 -0.1009  0.2670 -0.0959
71905W        W14999  15.220  11.907  27.093 -0.3776  0.0563  0.1875
71906W        W15000  13.635   8.302  22.742  0.1166 -0.1615 -0.1400
71907W        W15001  15.985   9.866  26.625  0.3418  0.0970  0.1781
71908W        W15002  15.207   9.085  24.641 -0.1425  0.1141 -0.0534
71909W        W15003  16.727   9.473  24.555  0.1155  0.0732 -0.1365
71910W        W15004  18.682  10.554  25.056 -0.2079  0.1626  0.1671
71911W        W15005  15.257   8.426  25.463  0.1503  0.2337  0.1203
71912W        W15006  19.175  10.066  25.693  0.6191  0.0899  0.1486
71913W        W15007  15.924   7.439  26.223  0.0524 -0.0855 -0.1447
71914W        W15008  18.071   6.025  26.033  0.3271 -0.0922  0.5167
71915W        W15009  16.105   6.755  24.973  0.1031  0.1845 -0.3338
71916W        W15010  15.414   9.367  25.931  0.1654 -0.3075  0.2446
71917W        W15011  15.194   8.227  24.909  0.0955  0.0300  0.3898
71918W        W15012  16.006   9.092  23.602  0.0727 -0.1197  0.0947
71919W        W15013  15.300   9.375  24.179  0.1348  0.3817  0.0002
71920W        W15014  16.609   9.031  26.563  0.1701 -0.0432 -0.2010
71921W        W15015  14.221   8.514  26.812 -0.0173  0.1519 -0.0498
71922W        W15016  15.188   9.324  25.508 -0.0304  0.1496  0.0260
71923W        W15017  14.052   8.506  25.496  0.0267  0.0273 -0.0864
71924W        W15018  19.189   9.296  26.323  0.1798 -0.1595  0.0851
71925W        W15019  15.266   8.353  26.740  0.1599 -0.1202 -0.0419
71926W        W15020  15.109   7.864  25.680  0.2105  0.0938 -0.0575
71927W        W15021  17.769   8.497  25.929  0.1674 -0.2433  0.1289
71928W        W15022  18.186   9.418  26.192  0.2251 -0.0703  0.3124
71929W        W15023  17.311   7.316  26.916  0.1432 -0.0977  0.0443
71930W        W15024  18.625  11.256  28.072  0.4837 -0.0257  0.0295
71931W        W15025  14.902  10.057  23.432 -0.2052 -0.1482  0.0029
71932W        W15026  17.227   9.249  27.157 -0.2823  0.0464  0.3064
71933W        W15027  16.622   9.442  26.164  0.1040 -0.0616 -0.0838
71934W        W15028  15.005   8.113  23.549 -0.1062 -0.0186 -0.0049
71935W        W15029  16.264   8.540  27.155 -0.2750 -0.0959 -0.1154
71936W        W15030  16.757   9.828  25.513 -0.0889 -0.1272  0.0135
71937W        W15031  17.387  10.265  24.195  0.0138 -0.0711  0.2299
71938W        W15032  14.857  11.947  26.675 -0.2916  0.2779 -0.2032
71939W        W15033  16.156  10.431  26.594 -0.1759 -0.0492 -0.2647
71940W        W15034  14.711   6.464  26.536 -0.1499 -0.0494  0.0496
71941W        W15035  16.746   8.511  24.728 -0.3851  0.0254 -0.0637
71942W        W15036  15.009  10.585  27.663  0.0029  0.3819  0.0343
71943W        W15037  19.816   7.548  25.429  0.2038 -0.0715 -0.3102
71944W        W15038  17.809   6.936  25.570  0.0844  0.1172 -0.0259
71945W        W15039  16.903   7.700  25.005  0.3063 -0.4919  0.0904
71946W        W15040  13.546   6.807  27.698  0.0008 -0.1810 -0.0349
71947W        W15041  14.536   9.353  27.173  0.1103  0.0672 -0.1045
71948W        W15042  19.688   9.318  27.967  0.0835 -0.3287  0.0468
71949W        W15043  15.894   7.309  25.742  0.0805 -0.5314 -0.1949
71950W        W15044  17.397   7.657  25.270  0.2445 -0.0450 -0.0111
71951W        W15045  16.231   8.220  25.418 -0.3311  0.1657  0.0983
71952W        W15046  13.884   9.164  25.740 -0.0874  0.2768 -0.0340
71953W        W15047  16.959   7.367  25.367 -0.2207 -0.1808 -0.0253
71954W        W15048  16.226   9.106  26.263  0.1878  0.0222  0.0420
71955W        W15049  16.367   9.760  25.866  0.2967 -0.1944 -0.2877
71956W        W15050  17.442   9.711  26.813 -0.0079 -0.0637 -0.1402
71957W        W15051  16.274  10.922  23.996 -0.1855 -0.0967  0.0651
71958W        W15052  18.190   8.992  24.846 -0.1604 -0.0237  0.0753
71959W        W15053  18.891  10.899  27.133 -0.1504 -0.1753 -0.4336
71960W        W15054  18.276  10.127  27.080 -0.3346 -0.1882 -0.2297
71961W        W15055  17.312  10.555  26.001 -0.3015  0.0534  0.2014
71962W        W15056  15.899   9.104  24.916 -0.0024 -0.1731  0.0328
71963W        W15057  16.461   7.974  26.323  0.2376  0.1459 -0.3008
71964W        W15058  16.737   8.022  23.974 -0.0630 -0.0399 -0.1797
71965W        W15059  15.677   9.059  24.453 -0.1698 -0.1939 -0.2775
71966W        W15060  17.016   7.533  27.545  0.1313 -0.5347 -0.1973
71967W        W15061  15.495   7.814  25.985  0.0483 -0.0185  0.2834
71968W        W15062  16.200   7.041  26.026 -0.0723  0.3828 -0.2357
71969W        W15063  15.433  11.246  26.520 -0.2942 -0.4661  0.0220
71970W        W15064  15.999   9.579  26.152  0.1126  0.0729  0.1654
71971W        W15065  15.373   8.612  29.240  0.3381 -0.1479 -0.0703
71972W        W15066  16.864  10.022  27.678  0.0467 -0.1408  0.0003
71973W        W15067  17.606   8.204  28.059 -0.0209 -0.0522  0.2687
71974W        W15068  16.405  10.593  27.526  0.2111 -0.2697  0.2302
71975W        W15069  14.349   9.090  29.637  0.2055 -0.0474  0.0665
71976W        W15070  18.171  12.673  28.174 -0.1703  0.1149 -0.1333
71977W        W15071  14.113   7.348  30.400  0.1982  0.4272  0.1002
71978W        W15072  17.441   9.407  28.478 -0.2502 -0.0068  0.0756
71979W        W15073  17.858   9.383  29.367 -0.1109  0.3874  0.1849
71980W        W15074  14.389   9.825  27.892  0.0725  0.0739  0.1478
71981W        W15075  15.087   7.863  28.909  0.0125 -0.0755  0.0896
71982W        W15076  14.949   8.965  28.997  0.3338 -0.2001 -0.3524
71983W        W15077  17.323   8.144  29.308 -0.3387 -0.1629 -0.2439
71984W        W15078  14.817   6.496  29.565 -0.0358 -0.1354 -0.1742
71985W        W15079  15.424   7.857  29.790 -0.2011 -0.0193  0.0217
71986W        W15080  17.027   9.069  28.408  0.2350  0.0265 -0.4238
71987W        W15081  14.889   8.611  30.196  0.0903  0.0396 -0.0707
71988W        W15082  14.433   7.960  27.825  0.0771 -0.0853  0.3080
71989W        W15083  15.905  10.814  28.370  0.1492  0.1170 -0.2677
71990W        W15084  15.255   7.872  28.398  0.0073  0.1247  0.1238
71991W        W15085  15.887   7.124  30.063 -0.2008 -0.2967 -0.0249
71992W        W15086  16.235  11.310  27.961 -0.3114  0.0670  0.2464
71993W        W15087  14.811   9.338  27.996 -0.1957 -0.0656 -0.2507
71994W        W15088  15.092   8.593  29.771 -0.1116  0.0865  0.3480
71995W        W15089  15.195   8.389  28.842  0.0661  0.2025  0.1096
71996W        W15090  17.508   8.540  28.596 -0.2037  0.0837 -0.0082
71997W        W15091  16.984   7.886  28.403  0.0474 -0.0384 -0.2593
71998W        W15092  15.555  11.257  29.240  0.0741 -0.3011  0.3473
71999W        W15093  15.408  10.180  28.845  0.0735 -0.1371 -0.1844
72000W        W15094  16.747   9.377  31.757 -0.0231  0.0915 -0.0479
72001W        W15095  15.835   9.414  28.979 -0.0370 -0.3054  0.1047
72002W        W15096  14.366  11.737  28.018  0.0020 -0.2264 -0.3446
72003W        W15097  14.646  11.087  27.675 -0.0570  0.4903 -0.1952
72004W        W15098  18.600   8.804  30.019 -0.1023  0.1129 -0.2985
72005W        W15099  17.253  10.556  30.400 -0.0221  0.1257  0.1240
72006W        W15100  16.118  10.375  29.738  0.2749 -0.0665 -0.1116
72007W        W15101  13.959   8.908  27.687  0.1354  0.0396 -0.3258
72008W        W15102  16.847   9.398  30.861  0.0706  0.1808  0.3632
72009W        W15103  16.066   9.130  29.869  0.4373  0.0677  0.2010
72010W        W15104  17.483   8.874  30.386  0.0290 -0.2813  0.0135
72011W        W15105  15.815   8.740  29.728  0.2740 -0.0034  0.1591
72012W        W15106  15.803  10.908  27.442  0.0518 -0.3922  0.0074
72013W        W15107  17.462   9.474  29.060 -0.2142 -0.1933  0.1494
72014W        W15108  15.952   8.669  29.161  0.1347 -0.0694  0.2666
72015W        W15109  15.251  10.271  29.399 -0.2585  0.0679  0.1681
72016W        W15110  16.602   7.674  30.499  0.0317 -0.1469 -0.3383
72017W        W15111  15.979  11.950  26.697  0.2702  0.0163 -0.1271
72018W        W15112  17.625   7.778  29.200 -0.0186  0.3101  0.0395
72019W        W15113  16.304  10.067  27.688 -0.2077  0.0494 -0.2206
72020W        W15114  16.522   7.682  27.380  0.0708  0.2597  0.0464
72021W        W15115  16.366   7.342  29.737  0.0290  0.1251  0.0718
72022W        W15116  14.739  11.887  28.913  0.2336 -0.0486  0.1333
72023W        W15117  15.145   8.209  30.076 -0.2012 -0.1521  0.3247
72024W        W15118  18.729   8.066  31.104  0.0652  0.1877  0.0180
72025W        W15119  16.836   8.855  27.967  0.0990 -0.1646 -0.0892
72026W        W15120  17.343   7.393  30.121 -0.2734 -0.1389 -0.0238
72027W        W15121  15.128  10.103  30.378 -0.1119  0.3487 -0.1359
72028W        W15122  14.725   7.805  30.118  0.2827 -0.1039  0.0590
72029W        W15123  17.253  10.058  26.411 -0.1858 -0.0993  0.0628
72030W        W15124  18.005  10.986  28.818  0.1862 -0.1979 -0.1368
72031W        W15125  16.731  10.386  25.468  0.1195  0.0287  0.1494
72032W        W15126  17.028  10.718  28.952 -0.0056  0.2975 -0.3860
72033W        W15127  15.284   8.378  30.543  0.1445 -0.0328  0.0483
72034W        W15128  15.234   7.207  31.443 -0.2068 -0.2301  0.1104
72035W        W15129  16.165   8.792  26.685 -0.1177  0.1337  0.0493
72036W        W15130  17.734  10.408  30.238 -0.0117 -0.2187 -0.1207
72037W        W15131  14.210  11.564  30.560 -0.3120 -0.1323  0.0244
72038W        W15132  18.498   7.988  27.935  0.0109  0.0714  0.1786
72039W        W15133  16.726   9.557  28.366  0.0127 -0.0533  0.0927
72040W        W15134  18.459   8.307  29.120  0.0382 -0.0469 -0.0025
72041W        W15135  17.778   9.007  28.387 -0.0332  0.0842  0.1179
72042W        W15136  15.758   7.909  28.330 -0.0771  0.0872  0.1654
72043W        W15137  16.376   8.183  30.252  0.1006  0.0579 -0.2489
72044W        W15138  15.727   8.240  26.822  0.2317 -0.1546 -0.3203
72045W        W15139  15.182   9.146  27.632 -0.0623 -0.0884 -0.2203
72046W        W15140  17.748  10.132  31.188  0.2828  0.1708 -0.1249
72047W        W15141  16.496   9.174  27.838  0.1221  0.0117  0.0579
72048W        W15142  17.020  12.057  28.824  0.0787 -0.2760 -0.0309
72049W        W15143  15.102   8.195  29.356 -0.2773 -0.2003 -0.3632
72050W        W15144  17.119  10.916  30.065  0.2585 -0.1258 -0.4235
72051W        W15145  13.980  11.642  27.720 -0.1911 -0.0705 -0.0006
72052W        W15146  14.180   9.418  29.278  0.1607 -0.0985 -0.0531
72053W        W15147  14.376  10.083  28.324  0.2411  0.0339 -0.1737
72054W        W15148  15.226   6.719  29.438  0.2088  0.1705  0.1162
72055W        W15149  15.881   9.902  28.856  0.0385 -0.0166  0.0468
72056W        W15150  17.278   9.577  27.588  0.0945  0.1450  0.1679
72057W        W15151  13.581   8.049  29.024  0.1599 -0.2658  0.1738
72058W        W15152  16.272   6.244  29.959 -0.0996 -0.3713 -0.3166
72059W        W15153  15.725  10.097  29.597  0.1092 -0.1308 -0.0787
72060W        W15154  17.937  11.011  28.281  0.2168 -0.1905 -0.0096
72061W        W15155  17.783   9.050  27.778 -0.1460 -0.2730  0.2388
72062W        W15156  17.368   8.865  27.594  0.0558  0.0345  0.1740
72063W        W15157  14.900   9.087  30.425 -0.2239  0.0653 -0.1248
72064W        W15158  14.722   7.402  28.374  0.3515 -0.0510  0.0172
72065W        W15159  14.122   7.728  30.079 -0.1182 -0.1798  0.0806
72066W        W15160  13.458   7.385  29.249  0.3551  0.2645  0.1936
72067W        W15161  17.812   9.607  30.840 -0.0826  0.0592  0.0344
72068W        W15162  14.214   7.243  27.965 -0.0827  0.2354 -0.3510
72069W        W15163  17.603   8.751  29.774 -0.2924 -0.4852 -0.0122
72070W        W15164  17.567   9.226  29.963  0.0479 -0.0706  0.1819
72071W        W15165  14.079   9.219  28.204  0.0154 -0.0959  0.2724
72072W        W15166  15.391   7.008  31.005 -0.1002 -0.1501 -0.1765
72073W        W15167  16.952  10.668  27.738 -0.0604 -0.0139 -0.2259
72074W        W15168  18.051  10.812  30.242  0.0713 -0.3602  0.4559
72075W        W15169  17.780  10.176  27.889  0.3411  0.3148  0.3826
72076W        W15170  14.459   7.695  28.764  0.0158 -0.2232  0.0505
72077W        W15171  13.386   7.914  26.917 -0.0866 -0.0048 -0.3538
72078W        W15172  14.194  10.656  29.510  0.0607  0.3128  0.0255
72079W        W15173  16.278   9.623  28.635  0.0382 -0.1303 -0.2194
72080W        W15174  14.390   8.139  28.533 -0.2342  0.0386  0.0458
72081W        W15175  17.587  10.699  28.725 -0.0790  0.3736  0.1287
72082W        W15176  18.523  10.078  27.516  0.2649 -0.2195  0.2438
72083W        W15177  15.692   9.198  29.465  0.4556  0.0079 -0.0710
72084W        W15178  16.005   7.001  29.596 -0.2020  0.2538  0.3952
72085W        W15179  17.561   7.868  29.998 -0.1615 -0.2933  0.1253
72086W        W15180  17.106   8.746  29.946 -0.0799 -0.2769 -0.0747
72087W        W15181  15.313   8.602  27.194 -0.0284 -0.1343  0.3984
72088W        W15182  15.860  10.778  29.364  0.1159  0.0618  0.3339
72089W        W15183  15.028   9.843  29.034  0.0969  0.0393  0.2246
72090W        W15184  14.317   9.755  29.717 -0.2006 -0.1205  0.3554
72091W        W15185  16.761   9.872  29.242 -0.1696 -0.2097  0.1180
72092W        W15186  16.010   6.082  29.356  0.2132 -0.1250 -0.0526
72093W        W15187  15.535   8.142  30.906  0.1942 -0.0001 -0.0857
72094W        W15188  15.974   8.402  31.208  0.0229  0.3741 -0.3638
72095W        W15189  14.324   8.492  27.678 -0.0312  0.2180  0.0594
72096W        W15190  15.216  10.494  30.040  0.2137  0.0667  0.0590
72097W        W15191  15.507   7.875  27.904 -0.2225  0.0858 -0.1774
72098W        W15192  17.592   7.643  28.289 -0.2553  0.0340  0.3895
72099W        W15193  16.286   8.679  30.090 -0.2145  0.2098  0.0416
72100W        W15194  18.628   9.345  28.202 -0.0422 -0.2137 -0.3793
72101W        W15195  17.840   8.269  27.153  0.0576 -0.0181 -0.1536
72102W        W15196  17.499   6.834  29.367  0.0384  0.0963 -0.2032
72103W        W15197  14.924   9.444  30.846  0.2211  0.0780 -0.0805
72104W        W15198  16.150   9.782  27.245  0.0181 -0.2699  0.2552
72105W        W15199  16.175   9.179  29.339 -0.1310  0.0277 -0.0348
72106W        W15200  15.898   8.867  27.172 -0.0030 -0.2047  0.0109
72107W        W15201  16.643  10.976  27.950 -0.1124 -0.1190  0.0623
72108W        W15202  14.285  11.089  29.290  0.0328 -0.1075 -0.0192
72109W        W15203  16.259  10.076  30.956 -0.1644 -0.0108 -0.0868
72110W        W15204  16.917  11.249  27.560 -0.1822  0.0521  0.2118
72111W        W15205  16.450   8.860  29.018  0.1368  0.0534 -0.1185
72112W        W15206  16.027  10.299  28.105 -0.0141  0.1632 -0.1964
72113W        W15207  16.511   8.206  28.247 -0.0842 -0.2579 -0.1555
72114W        W15208  15.674  11.586  26.809 -0.2802 -0.0064 -0.1203
72115W        W15209  16.788   7.495  30.040 -0.3134  0.0827  0.1065
72116W        W15210  16.759   7.523  28.809 -0.1367 -0.2566  0.0335
72117W        W15211  15.524   7.197  29.663  0.2099  0.0097 -0.0624
72118W        W15212  16.519   9.734  30.549  0.2353  0.0823  0.0171
72119W        W15213  17.806   9.618  27.597 -0.1977 -0.3862  0.3456
72120W        W15214  17.379   9.472  30.477 -0.3056  0.5599 -0.0554
72121W        W15215  14.879   8.306  27.454 -0.0716 -0.0678  0.1787
72122W        W15216  16.411   7.183  30.207  0.3363 -0.1623  0.1260
72123W        W15217  16.414  10.007  29.588 -0.0814  0.0047  0.1472
72124W        W15218  16.184  10.936  29.789 -0.2338  0.0926  0.2861
72125W        W15219  16.546   9.444  30.054 -0.0439 -0.3095  0.0562
72126W        W15220  16.147  10.331  28.656  0.2089 -0.0048  0.2936
72127W        W15221  14.176   8.221  28.947 -0.0067  0.0383  0.0469
72128W        W15222  14.965   9.388  28.550  0.1855  0.4583  0.0079
72129W        W15223  15.907  11.386  27.284  0.0515 -0.0445  0.3435
72130W        W15224  14.916  11.405  27.313  0.1187  0.0798  0.2690
72131W        W15225  15.198   8.825  28.563  0.0954  0.1860  0.3099
72132W        W15226  16.410  10.279  29.141  0.0706  0.0587  0.0428
72133W        W15227  15.329  11.150  28.717  0.1352  0.0124  0.0507
72134W        W15228  16.240  10.514  30.234 -0.4343  0.0321 -0.1549
72135W        W15229  13.687   9.913  28.920  0.1830 -0.0186 -0.0201
72136W        W15230  18.106   6.441  28.768  0.3635 -0.4182  0.2245
72137W        W15231  14.149  11.286  28.873 -0.3736  0.0979 -0.0234
72138W        W15232  14.839   8.927  27.152  0.0496  0.0663  0.1072
72139W        W15233  14.312   9.727  27.436  0.1674 -0.1141 -0.0644
72140W        W15234  16.267   7.684  30.140  0.1274  0.0124 -0.1009
72141W        W15235  18.972   8.859  27.494 -0.0792  0.0600 -0.4052
72142W        W15236  14.419   9.102  28.608  0.1353  0.2786  0.0644
72143W        W15237  16.048   8.992  28.759  0.0721 -0.0642 -0.0249
72144W        W15238  15.350  11.063  30.788 -0.0477  0.2631 -0.0930
72145W        W15239  15.548   9.000  29.011 -0.1750 -0.1065 -0.0687
72146W        W15240  16.893   6.557  28.699 -0.0632 -0.0901  0.0600
72147W        W15241  16.939   9.879  31.046 -0.1204 -0.1681  0.1210
72148W        W15242  14.294  10.720  30.195 -0.2363  0.0516 -0.1856
72149W        W15243  16.103   9.226  28.298  0.0701 -0.0107 -0.1583
72150W        W15244  17.231   7.720  29.615 -0.0427 -0.3914 -0.0913
72151W        W15245  14.566   8.447  28.071 -0.0692 -0.0616  0.2004
72152W        W15246  13.388  10.633  28.236  0.1149  0.0929 -0.0997
72153W        W15247  17.025  10.232  28.901 -0.1609 -0.1466 -0.0102
72154W        W15248  14.447   8.955  29.134 -0.0722  0.0519  0.3010
72155W        W15249  15.234   9.061  29.426 -0.0433 -0.0013  0.3593
72156W        W15250  16.125   6.849  30.472  0.3535 -0.2965 -0.0231
72157W        W15251  16.487   9.729  31.229 -0.2276  0.0914 -0.0563
72158W        W15252  14.741   8.146  29.701  0.1528  0.3488  0.3115
72159W        W15253  15.077   7.504  27.958  0.0018  0.1504  0.2246
72160W        W15254  16.335   8.737  29.539  0.1723  0.1628  0.0583
72161W        W15255  17.308   9.561  30.987  0.1063 -0.1432  0.1734
72162W        W15256  16.352   9.698  29.139  0.3068  0.1993  0.0637
72163W        W15257  15.866   8.937  30.333  0.2653  0.3424  0.3259
72164W        W15258  15.553   8.165  29.094 -0.0995  0.4553 -0.0363
72165W        W15259  18.377  11.239  28.501  0.0133  0.0815 -0.1195
72166W        W15260  16.847   8.102  29.447  0.2749 -0.3874 -0.0771
72167W        W15261  15.202  10.523  28.121 -0.1991 -0.0334  0.0335
72168W        W15262  13.681   9.335  30.229  0.1938  0.1471  0.2580
72169W        W15263  14.854   9.766  28.250 -0.3994 -0.3103  0.0673
72170W        W15264  15.778   7.415  28.428  0.4021  0.2321 -0.1108
72171W        W15265  14.489   8.569  29.663  0.1233  0.1730  0.0367
72172W        W15266  16.554   9.200  28.655  0.0504 -0.0308 -0.1283
72173W        W15267  15.468   8.693  30.052  0.0756  0.0658 -0.3687
72174W        W15268  18.054   6.853  29.371 -0.1169  0.0590  0.0291
72175W        W15269  16.765   9.423  27.119  0.2855 -0.0687 -0.0805
72176W        W15270  16.788   8.659  29.351 -0.4181 -0.2366 -0.0064
72177W        W15271  18.538   7.027  30.467  0.3523  0.1398 -0.2721
72178W        W15272  18.340   7.894  28.722  0.4131 -0.2089 -0.0276
72179W        W15273  16.801   6.340  30.132 -0.0467  0.0705 -0.0785
72180W        W15274  16.237   7.547  28.810  0.4757 -0.1984  0.0941
72181W        W15275  18.988   8.561  28.636  0.1378 -0.5034 -0.1330
72182W        W15276  14.440   8.906  30.198  0.1519  0.1474  0.2707
72183W        W15277  17.235  10.268  31.090 -0.1356  0.0885 -0.1829
72184W        W15278  15.358   7.304  30.549 -0.1038 -0.0053 -0.1853
72185W        W15279  15.476   8.433  28.132  0.1023 -0.0432 -0.0994
72186W        W15280  15.570   6.729  29.743 -0.2148  0.0487 -0.1080
72187W        W15281  16.973   9.427  28.809  0.3897 -0.0056  0.0721
72188W        W15282  18.011   9.046  29.726 -0.0105  0.0127  0.2465
72189W        W15283  16.394  10.899  28.480 -0.0081  0.2771 -0.2476
72190W        W15284  16.997   7.916  30.047 -0.0342  0.1505 -0.3685
72191W        W15285  16.290   8.442  28.805 -0.0767 -0.1139  0.2531
72192W        W15286  17.282   8.306  29.765 -0.0544  0.1130  0.3770
72193W        W15287  17.469   9.776  28.026 -0.0673  0.0874  0.2352
72194W        W15288  15.606  10.323  28.410 -0.0822 -0.2753 -0.0040
72195W        W15289  15.179   5.734  29.707  0.0552 -0.3322  0.0508
72196W        W15290  17.624   9.720  30.120 -0.2395 -0.3167 -0.0903
72197W        W15291  16.770   7.372  29.309 -0.0617 -0.1193  0.2228
72198W        W15292  16.586   6.663  30.511  0.2077  0.2640 -0.0586
72199W        W15293  15.852   7.924  29.436 -0.0386 -0.0966 -0.2177
72200W        W15294  14.418   7.760  30.535  0.0572 -0.1118  0.3600
72201W        W15295  15.186   7.640  30.200  0.0374  0.1308  0.1822
72202W        W15296  18.374  10.692  29.461 -0.2394 -0.1240  0.0998
72203W        W15297  18.992   7.955  27.502  0.1083  0.0519  0.0105
72204W        W15298  17.435   7.978  30.738  0.2198  0.2929  0.1011
72205W        W15299  16.456   7.942  29.729 -0.0979 -0.2758 -0.2002
72206W        W15300  15.852   7.829  27.542 -0.0680 -0.1995  0.3162
72207W        W15301  14.773   7.887  28.243 -0.2414 -0.5064  0.0314
72208W        W15302  16.662   8.610  30.415 -0.0022 -0.1725 -0.1923
72209W        W15303  14.970   7.125  26.676 -0.0260  0.0530 -0.1956
72210W        W15304  16.120   7.402  30.516 -0.1495 -0.0581 -0.0204
72211W        W15305  17.620  10.952  26.325  0.0179 -0.0872 -0.2589
72212W        W15306  15.484   9.758  29.202  0.0390 -0.0331 -0.1273
72213W        W15307  15.759   8.281  27.356 -0.1459 -0.2317  0.1467
72214W        W15308  13.293   7.866  29.438 -0.3341  0.1320 -0.3979
72215W        W15309  15.411  11.781  31.245  0.1456 -0.0867 -0.0371
72216W        W15310  15.282   8.979  28.107  0.3049  0.0468  0.0686
72217W        W15311  17.335  10.952  27.530  0.1069  0.2061 -0.3042
72218W        W15312  16.879   8.790  28.814  0.1583 -0.1285 -0.0836
72219W        W15313  17.161   9.461  29.988 -0.0701 -0.0845  0.1099
72220W        W15314  15.940   7.152  26.931  0.0409 -0.2713  0.1542
72221W        W15315  15.201   6.205  29.578 -0.0461 -0.4533  0.0910
72222W        W15316  14.948  10.205  28.509  0.1152  0.2920 -0.0129
72223W        W15317  16.414   8.311  29.282 -0.0770  0.1236 -0.1369
72224W        W15318  15.868  10.318  29.097  0.0569 -0.0754 -0.1097
72225W        W15319  15.627   9.873  31.272  0.2595  0.3437  0.1419
72226W        W15320  16.072  11.722  29.465  0.0794 -0.1129  0.1294
72227W        W15321  15.880   7.943  30.001 -0.0011 -0.1537  0.0613
72228W        W15322  17.364   8.708  28.140  0.4031  0.0134 -0.2341
72229W        W15323  15.234   9.787  28.556 -0.0173  0.1787 -0.0914
72230W        W15324  17.240   6.653  30.114  0.0936  0.2328  0.1175
72231W        W15325  16.190   8.963  31.140 -0.1502  0.1420 -0.1488
72232W        W15326  14.104   8.604  29.342 -0.0769 -0.2264 -0.0982
72233W        W15327  15.103  11.388  30.274  0.2843  0.0929 -0.1127
72234W        W15328  18.426   8.475  28.690 -0.2202 -0.0253 -0.1859
72235W        W15329  14.716   8.169  28.916  0.1151  0.3367 -0.2427
72236W        W15330  15.593   7.509  31.666  0.0449 -0.1208  0.4525
72237W        W15331  16.149   8.573  30.633  0.2184 -0.2302 -0.0441
72238W        W15332  16.030   9.472  30.275 -0.2048  0.1255 -0.0685
72239W        W15333  14.963   7.682  27.428  0.1122  0.2289 -0.2097
72240W        W15334  16.676  10.498  28.624 -0.2654 -0.0890 -0.3879
72241W        W15335  14.746  10.437  30.191  0.0448  0.0358 -0.0026
72242W        W15336  13.448   9.112  29.704  0.4714  0.1883 -0.3860
72243W        W15337  15.021  10.524  28.972  0.0580  0.2206  0.2514
72244W        W15338  17.206  11.310  27.166 -0.1624 -0.1336  0.1591
72245W        W15339  16.286   9.120  27.023  0.0023 -0.0069 -0.2664
72246W        W15340  15.830  11.080  28.820 -0.2324 -0.1053 -0.1990
72247W        W15341  16.542   9.594  27.501  0.2148  0.0869 -0.1158
72248W        W15342  16.577  12.180  28.835 -0.2063  0.0672  0.0393
72249W        W15343  15.952   9.829  28.335 -0.2019  0.0603 -0.1152
72250W        W15344  16.601  10.467  28.031  0.3534 -0.2741  0.1512
72251W        W15345  15.207   9.375  29.029 -0.2889 -0.1061  0.0498
72252W        W15346  18.878  10.286  30.053 -0.2537  0.0591 -0.1210
72253W        W15347  18.566   6.533  28.018 -0.3050 -0.0870 -0.1075
72254W        W15348  17.873   9.293  31.225 -0.4430 -0.0325  0.1696
72255W        W15349  18.034   8.068  29.092  0.1729 -0.2126 -0.0037
72256W        W15350  16.732  10.418  29.724 -0.3169 -0.4023  0.1861
72257W        W15351  17.047   8.270  28.773 -0.1913 -0.1686 -0.0316
72258W        W15352  15.238   9.999  28.039 -0.2918 -0.0073  0.0173
72259W        W15353  15.889   9.316  31.262 -0.1345 -0.1572 -0.1130
72260W        W15354  17.787   7.305  31.817 -0.0520 -0.2116 -0.1720
72261W        W15355  15.481  11.108  29.771  0.2726 -0.2841  0.1167
72262W        W15356  17.726   9.765  28.747  0.0046  0.0514 -0.1447
72263W        W15357  14.153   7.641  27.424 -0.0376  0.1799 -0.0642
72264W        W15358  17.271   9.212  27.982 -0.1091 -0.2146  0.0961
72265W        W15359  18.213   6.395  29.541  0.0192 -0.0935 -0.0095
72266W        W15360  15.751  10.616  26.927  0.1997 -0.1495  0.1784
72267W        W15361  17.717   7.482  30.447 -0.2730 -0.0694 -0.1823
72268W        W15362  15.556  10.672  28.808 -0.0381  0.2263  0.2660
72269W        W15363  15.326  10.805  29.343  0.1578  0.2368  0.5650
72270W        W15364  17.073  10.395  29.368 -0.4463 -0.2453  0.1128
72271W        W15365  14.612   8.699  26.077  0.2987 -0.2851 -0.2498
72272W        W15366  18.762   7.979  29.388  0.0233  0.2451  0.1244
72273W        W15367  14.671   9.413  29.946  0.0756  0.1455 -0.2255
72274W        W15368  18.243   5.904  29.651 -0.2279  0.5022  0.1119
72275W        W15369  14.291   7.707  28.261 -0.4510 -0.1235 -0.1256
72276W        W15370  17.951   8.226  28.588  0.1307  0.0151 -0.0562
72277W        W15371  15.976   7.973  28.771  0.0615 -0.2837  0.0361
72278W        W15372  15.186   9.124  29.987 -0.0273  0.1501  0.2352
72279W        W15373  16.909  10.053  28.158 -0.1531 -0.0874  0.0136
72280W        W15374  18.375   9.037  30.542  0.0738 -0.1661  0.4060
72281W        W15375  16.952   9.195  27.560 -0.0175 -0.1686  0.4354
72282W        W15376  17.184  10.356   0.480 -0.0611 -0.0054  0.1040
72283W        W15377  14.881   7.353  29.199 -0.0202  0.2866  0.0657
72284W        W15378  15.835   7.506  29.183 -0.2710 -0.3614 -0.2825
72285W        W15379  14.793   9.225  29.413  0.2111 -0.1256  0.0768
72286W        W15380  15.520   9.333  30.501 -0.3443 -0.0393  0.3190
72287W        W15381  17.992  11.203  29.817  0.0446 -0.0537  0.0998
72288W        W15382  15.077   7.095  27.605  0.0256  0.1263 -0.4451
72289W        W15383  18.123  10.505  27.634 -0.2315 -0.0645 -0.2305
72290W        W15384  16.909   8.102  30.533 -0.2126 -0.0021  0.2014
72291W        W15385  15.064  10.744  28.564 -0.0650 -0.1328  0.0543
72292W        W15386  18.146   8.678  27.694  0.4727  0.1006 -0.1873
72293W        W15387  16.514   9.485  29.578  0.3976  0.3047 -0.0072
72294W        W15388  13.426   8.368  30.110  0.2587  0.0110  0.1651
72295W        W15389  17.843   9.872  29.191  0.1450  0.3126 -0.0838
72296W        W15390  18.803   9.481  29.601  0.3601  0.0597  0.0485
72297W        W15391  17.045   7.826  29.066  0.1942 -0.0025  0.0272
72298W        W15392  14.793   8.585  29.291  0.2091  0.1450 -0.0625
72299W        W15393  15.560  11.793  29.405 -0.0065  0.0222 -0.0590
72300W        W15394  17.192   7.121  29.686  0.0905 -0.4526  0.0063
72301W        W15395  18.556   7.166  29.950 -0.0592  0.1574  0.0967
72302W        W15396  15.432  10.283  27.659 -0.1273 -0.1055 -0.0864
72303W        W15397  18.805   6.113  30.375 -0.0210 -0.3835  0.2272
72304W        W15398  17.743  10.131  29.815 -0.1784 -0.2113  0.2088
72305W        W15399  15.655  11.338  31.092  0.1327 -0.0264  0.0448
72306W        W15400  13.933   8.083  27.593 -0.1016 -0.3747 -0.1870
72307W        W15401  16.663   9.065  29.845  0.1382  0.0448 -0.1829
72308W        W15402  13.979  11.434  28.414 -0.1055 -0.1757 -0.0881
72309W        W15403  15.830  12.271  27.117 -0.2779 -0.0098  0.0403
72310W        W15404  17.027   9.535  29.437  0.0736 -0.3689  0.1615
72311W        W15405  16.390  10.092  28.317  0.1445 -0.3981  0.0170
72312W        W15406  17.349  11.138  28.565 -0.2444 -0.0872  0.3188
72313W        W15407  16.285   8.100  27.540  0.1062  0.0434 -0.5063
72314W        W15408  18.033   5.852  28.316 -0.2117 -0.0241  0.2195
72315W        W15409  17.506   8.022  28.735  0.1638 -0.0648  0.0204
72316W        W15410  15.344   8.879  30.490 -0.2213  0.0840 -0.0202
72317W        W15411  14.124   9.471  28.753 -0.5977 -0.1173  0.0643
72318W        W15412  15.554  10.117  26.721  0.1461 -0.0062 -0.1705
72319W        W15413  14.580   9.721  29.245  0.2061  0.1151 -0.1076
72320W        W15414  15.008   5.787  31.705  0.1631 -0.0713  0.1440
72321W        W15415  13.876   7.871  28.551  0.0236  0.0554  0.2110
72322W        W15416  13.993   8.985  28.879 -0.1203 -0.0568 -0.0986
72323W        W15417  15.633   8.419  28.627  0.1419  0.2301 -0.0104
72324W        W15418  17.343  11.172  26.622  0.2040 -0.2932  0.0997
72325W        W15419  15.014   7.113  29.611  0.0854  0.1001  0.3436
72326W        W15420  15.373   7.687  29.315 -0.4079  0.1835 -0.1548
72327W        W15421  18.546   9.877  28.374  0.3992  0.1975 -0.1385
72328W        W15422  17.213   9.841  28.617 -0.0152  0.2645 -0.1584
72329W        W15423  15.375   8.292  27.673  0.3150  0.2533  0.0004
72330W        W15424  18.860   9.506  30.568  0.1596  0.2585  0.1425
72331W        W15425  13.958   9.462  27.782  0.1241  0.2191 -0.0838
72332W        W15426  16.743   8.366  29.968  0.0780  0.0322 -0.1401
72333W        W15427  15.708   7.572  30.240  0.0378 -0.0972 -0.0397
72334W        W15428  14.821   6.603  27.740 -0.2346 -0.1458 -0.1674
72335W        W15429  16.253   8.775  28.049  0.0660 -0.1760 -0.1976
72336W        W15430  16.828  11.184  28.471  0.2146  0.0946  0.0021
72337W        W15431  16.555  10.772  26.649  0.2532  0.1235 -0.2637
72338W        W15432  16.327   9.046  30.423 -0.1391  0.0123 -0.0854
72339W        W15433  15.426  10.993  30.226 -0.1780  0.0414 -0.1271
72340W        W15434  14.528   6.453  28.663 -0.2293  0.1011  0.3253
72341W        W15435  18.901  10.861  28.047  0.1156 -0.1386  0.0591
72342W        W15436  14.916  11.390  30.716 -0.1408  0.0351  0.0799
72343W        W15437  17.818   9.438  28.145 -0.3019 -0.0863  0.2724
72344W        W15438  18.265   6.794  28.386  0.1677 -0.2716  0.3811
72345W        W15439  17.315  10.311  27.888  0.0820  0.0523  0.4445
72346W        W15440  14.807   8.159  30.454 -0.0821 -0.0016 -0.2367
72347W        W15441  15.936   9.170  30.745 -0.1231  0.0823 -0.0365
72348W        W15442  18.770   9.656  29.140 -0.0883  0.0181  0.1526
72349W        W15443  15.766   8.797  28.221  0.0062  0.2383 -0.0329
72350W        W15444  16.579   8.646  28.462  0.0734  0.1164 -0.0454
72351W        W15445  16.809  11.537  28.011  0.1535 -0.0677 -0.0781
72352W        W15446  14.246   8.770  31.378 -0.1730 -0.2777  0.3094
72353W        W15447  14.681   8.445  26.995 -0.0723  0.0573  0.1287
72354W        W15448  16.111   8.360  29.722 -0.0497  0.0549 -0.5386
72355W        W15449  16.967   9.085  30.369  0.2215 -0.2047 -0.0826
72356W        W15450  16.961  10.169  30.622  0.0116  0.1914 -0.0288
72357W        W15451  15.729   9.209  27.926 -0.1529  0.1952  0.1155
72358W        W15452  17.937   8.615  28.161  0.3992  0.0779  0.1150
72359W        W15453  16.912   9.961  29.720 -0.2196 -0.0804 -0.1323
72360W        W15454  18.200   8.666  29.426 -0.0893  0.0976 -0.1130
72361W        W15455  14.871  11.268  29.433  0.1639  0.3454 -0.1862
72362W        W15456  17.861   9.361  30.356  0.0204  0.0054 -0.3707
72363W        W15457  12.941   6.500  29.182  0.1205  0.0351 -0.2981
72364W        W15458  16.114   8.618  27.607 -0.1991 -0.1905 -0.1671
72365W        W15459  15.639   9.438  29.961 -0.0457  0.0142  0.0849
72366W        W15460  17.881   7.992  30.447  0.1119 -0.0223  0.1070
72367W        W15461  14.768   8.908  28.286 -0.2658 -0.1613 -0.1148
72368W        W15462  17.056   5.780  27.824  0.1421  0.0691 -0.1182
72369W        W15463  16.498  11.740  29.760  0.0657  0.2040  0.4494
72370W        W15464  17.154   9.114  31.252  0.1962 -0.0246  0.1324
72371W        W15465  16.812   6.388  31.712  0.1766 -0.1809  0.3631
72372W        W15466  15.646  10.341  31.107  0.0675 -0.3811 -0.0780
72373W        W15467  15.283   8.276  31.350  0.2695 -0.3262 -0.1481
72374W        W15468  14.970  10.069  31.855  0.1482  0.0134 -0.3956
72375W        W15469  15.906  11.167  31.903 -0.3423 -0.1429  0.0411
72376W        W15470  14.783   9.553  31.738 -0.0216 -0.3606 -0.0754
72377W        W15471  17.328   6.117  30.107 -0.5353 -0.0642  0.3732
72378W        W15472  15.786   7.322  31.178  0.0481 -0.0718 -0.0302
72379W        W15473  15.923   8.435   0.067  0.1235 -0.2508  0.2028
72380W        W15474  17.695   9.662   0.779  0.1484  0.2559  0.3202
72381W        W15475  15.264  10.228  31.472  0.1404 -0.3402 -0.1026
72382W        W15476  15.552   7.706  28.820  0.1792 -0.0919  0.0715
72383W        W15477  17.621  10.912  30.068 -0.4661  0.0068  0.0049
72384W        W15478  15.043   7.041   0.336 -0.0122 -0.2420  0.3320
72385W        W15479  17.639   8.503  30.710 -0.0224 -0.3382 -0.0606
72386W        W15480  14.577  10.163  31.064 -0.3190 -0.0850  0.0663
72387W        W15481  13.914   9.162  31.478  0.1793  0.1155  0.1892
72388W        W15482  16.705  10.660  31.711 -0.1218  0.3082 -0.0342
72389W        W15483  15.988   6.780  31.156  0.1201  0.1669 -0.0782
72390W        W15484  15.168   7.676   0.334 -0.3054  0.2661  0.3217
72391W        W15485  14.777   4.697   1.021  0.1536 -0.4073  0.0391
72392W        W15486  14.613  11.677  31.845  0.1207  0.3251  0.1576
72393W        W15487  17.759   5.968  31.574 -0.0350 -0.2320 -0.1778
72394W        W15488  17.613   8.565  31.727  0.4252  0.0699  0.2262
72395W        W15489  15.116   7.732  30.710 -0.1283 -0.3232 -0.3307
72396W        W15490  16.941   8.311  31.077  0.2333  0.3851 -0.0503
72397W        W15491  15.702   6.663   0.004 -0.0577 -0.1292 -0.3041
72398W        W15492  13.413  11.359  31.837  0.1514 -0.0314 -0.1164
72399W        W15493  15.894   7.528  29.708 -0.0622  0.1841 -0.0013
72400W        W15494  16.300   9.449  30.901  0.0049 -0.0025 -0.1224
72401W        W15495  16.223   9.451   0.334  0.4171 -0.1593 -0.1699
72402W        W15496  16.029   7.172   0.012  0.1100 -0.3121  0.1186
72403W        W15497  17.573   9.876  31.976 -0.2531  0.0246  0.1158
72404W        W15498  16.288   7.592  30.925  0.0008  0.0852  0.0567
72405W        W15499  15.091   8.537   0.479  0.3011 -0.0100  0.1912
72406W        W15500  14.437   9.387   0.041  0.0859 -0.2664  0.0370
72407W        W15501  15.983   9.843  29.912 -0.1037 -0.0435 -0.1417
72408W        W15502  15.870   9.082   0.586  0.1946  0.0838 -0.2799
72409W        W15503  16.585   9.985  30.077 -0.0220 -0.0787 -0.0645
72410W        W15504  17.097   8.802  30.827  0.1596  0.0298  0.1842
72411W        W15505  16.626   5.911  31.245 -0.0785  0.2081  0.0266
72412W        W15506  16.966   7.196  30.494  0.1523 -0.0545 -0.0096
72413W        W15507  15.582   5.804  31.473 -0.1361  0.1019  0.0274
72414W        W15508  14.901  10.954   0.645 -0.2080  0.1878 -0.0267
72415W        W15509  14.893   7.962  31.411  0.2504 -0.0881  0.0509
72416W        W15510  16.034  10.027  30.475 -0.0983 -0.0775  0.2369
72417W        W15511  17.426   8.292  31.226 -0.1174 -0.0955 -0.2339
72418W        W15512  15.938   9.658  29.427  0.1730 -0.0189 -0.0559
72419W        W15513  17.981  10.331   0.735 -0.2138 -0.3665  0.0295
72420W        W15514  15.427   9.170  30.963  0.0827 -0.0964  0.5473
72421W        W15515  17.619  10.346  30.710 -0.1329 -0.0665  0.0354
72422W        W15516  17.230   7.372  31.283 -0.3757  0.0915  0.0170
72423W        W15517  15.585   6.442  30.994 -0.0070  0.1249 -0.2039
72424W        W15518  15.615   9.790  30.349  0.0627 -0.2157 -0.1612
72425W        W15519  15.035   7.321  30.994  0.4286 -0.2814 -0.1560
72426W        W15520  15.693   7.994  31.454 -0.0722  0.0300  0.0461
72427W        W15521  17.664   9.015   0.884  0.0935  0.1040  0.1322
72428W        W15522  15.945  11.512  31.460  0.1424 -0.0758  0.2561
72429W        W15523  15.772  11.127  30.634  0.0884 -0.1368  0.0156
72430W        W15524  15.185   9.734  31.439 -0.3189 -0.0481 -0.0835
72431W        W15525  14.755   7.744   0.067  0.0758 -0.0209 -0.1267
72432W        W15526  16.157   7.698  31.604 -0.1638 -0.0585  0.1950
72433W        W15527  14.713   9.722  31.214 -0.3317  0.2893  0.0013
72434W        W15528  14.634   7.417  31.695  0.1280 -0.3373 -0.0970
72435W        W15529  16.274  11.146  30.967 -0.0784 -0.1322  0.2702
72436W        W15530  17.017  10.143  31.558 -0.1575 -0.1957  0.2012
72437W        W15531  17.397   7.625  31.677 -0.0419 -0.0841 -0.2020
72438W        W15532  15.897  13.050  17.496 -0.0729 -0.2596 -0.1152
72439W        W15533  15.880  12.892  14.653 -0.0487  0.6545  0.3626
72440W        W15534  17.771  10.887  16.371  0.1095 -0.3232  0.0053
72441W        W15535  16.438  12.235  16.308 -0.0501 -0.0088  0.1409
72442W        W15536  14.341  11.077  16.813  0.1905  0.3010  0.0705
72443W        W15537  17.035  13.812  16.244 -0.1103 -0.1313 -0.1113
72444W        W15538  14.507   8.591  18.747  0.1279  0.2123  0.0299
72445W        W15539  16.265  13.646  16.192  0.5328  0.0311 -0.2234
72446W        W15540  17.219  16.309  16.831 -0.0926  0.1004 -0.1054
72447W        W15541  15.555  11.705  16.094 -0.0585  0.0069  0.2129
72448W        W15542  15.067  11.683  17.416 -0.1959 -0.0231  0.0078
72449W        W15543  13.759  12.843  17.992 -0.2524  0.1443 -0.0859
72450W        W15544  15.105  10.924  16.345  0.0986  0.0960  0.2682
72451W        W15545  14.648  10.923  17.942  0.4358  0.0406  0.2579
72452W        W15546  18.031  10.149  18.685 -0.1680 -0.1628  0.0469
72453W        W15547  14.476  11.573  15.625  0.0153  0.2347  0.1353
72454W        W15548  15.394  10.845  17.706 -0.1273  0.1228 -0.1124
72455W        W15549  15.291  10.437  16.533  0.0828 -0.0608 -0.0911
72456W        W15550  15.860  13.633  16.913 -0.1800 -0.3515 -0.1678
72457W        W15551  15.006   9.795  19.214  0.1152  0.1987  0.2214
72458W        W15552  16.794   9.953  19.284 -0.0950 -0.0867 -0.3506
72459W        W15553  16.795  12.955  15.716 -0.2798 -0.0522  0.2246
72460W        W15554  14.558  12.470  16.241  0.1478  0.1976  0.0796
72461W        W15555  13.019  11.804  16.910 -0.0191  0.3011 -0.1246
72462W        W15556  14.052  12.391  17.019  0.1462 -0.2981  0.1565
72463W        W15557  19.710  10.885  18.405  0.3578 -0.1004 -0.0429
72464W        W15558  17.549  13.236  17.002  0.1545  0.1309  0.0306
72465W        W15559  15.693  13.698  16.143  0.2009 -0.2069 -0.1340
72466W        W15560  16.940  13.477  15.878  0.2233  0.2249 -0.3576
72467W        W15561  17.370   9.642  19.153  0.1927  0.3007 -0.2512
72468W        W15562  13.690  13.410  17.879 -0.1069  0.1602 -0.1640
72469W        W15563  15.021  14.100  16.995 -0.1223 -0.0044 -0.2323
72470W        W15564  16.512  14.006  16.394  0.0918  0.1664  0.0455
72471W        W15565  17.859  13.511  16.129 -0.3036  0.0718 -0.2782
72472W        W15566  17.132  13.447  17.167  0.1951 -0.1588 -0.2124
72473W        W15567  15.686  14.763  18.373  0.0461 -0.2735 -0.0012
72474W        W15568  14.604  13.773  15.446 -0.1051 -0.0269 -0.1870
72475W        W15569  16.669  15.141  16.697  0.3001 -0.0127 -0.3330
72476W        W15570  15.051  13.343  18.290  0.0759  0.2186  0.1141
72477W        W15571  16.152  12.428  18.705  0.3100 -0.0381  0.0597
72478W        W15572  15.823  12.325  17.191 -0.1505 -0.0810 -0.0739
72479W        W15573  15.006  13.339  16.391 -0.4076  0.1275 -0.0378
72480W        W15574  15.395  12.390  18.281 -0.0062 -0.0145  0.1895
72481W        W15575  15.226  12.838  18.543  0.0971 -0.2463 -0.0127
72482W        W15576  14.861  13.798  15.924 -0.0322 -0.1114 -0.2210
72483W        W15577  17.330  10.206  19.932  0.0560  0.1354 -0.1102
72484W        W15578  14.207  12.916  15.952  0.4927  0.1824  0.1725
72485W        W15579  17.386  12.826  16.575 -0.3815 -0.3471  0.0034
72486W        W15580  16.086  10.821  15.620  0.3400  0.3374 -0.1951
72487W        W15581  16.099  12.239  15.376  0.0970  0.0806  0.0229
72488W        W15582  15.525  10.351  17.841 -0.0175  0.1386 -0.2279
72489W        W15583  14.588  13.505  16.254  0.2615 -0.4037 -0.2342
72490W        W15584  15.613  10.805  17.237  0.1747 -0.0208  0.1205
72491W        W15585  17.675  12.709  18.280 -0.0659 -0.3196 -0.1287
72492W        W15586  15.434  11.889  16.648  0.0255 -0.1159 -0.0371
72493W        W15587  16.566  11.960  16.769  0.5596 -0.1066 -0.3071
72494W        W15588  15.155  13.073  17.364  0.1221  0.2236 -0.1021
72495W        W15589  13.682  13.135  17.191  0.0278  0.1059 -0.0946
72496W        W15590  17.574  13.898  16.280  0.0463 -0.2202  0.2867
72497W        W15591  17.385  13.439  16.094 -0.2331 -0.0311  0.1692
72498W        W15592  17.212  12.643  16.088 -0.2896  0.0453  0.0227
72499W        W15593  15.038  11.564  16.358 -0.0771  0.3362  0.3554
72500W        W15594  14.916  11.969  19.081  0.0155  0.0449 -0.0288
72501W        W15595  15.099  11.019  18.785  0.0123 -0.2212 -0.1274
72502W        W15596  15.198  10.907  15.648 -0.0737 -0.0657  0.1475
72503W        W15597  18.344  11.311  18.045  0.1744 -0.3740 -0.3752
72504W        W15598  14.623  13.148  19.385 -0.0163 -0.1042 -0.2828
72505W        W15599  17.577  10.957  17.761 -0.2123 -0.1505  0.0272
72506W        W15600  15.473  11.924  17.554 -0.0274  0.1444 -0.2076
72507W        W15601  16.379  13.513  17.734  0.0307 -0.0043 -0.1169
72508W        W15602  16.417  12.657  15.970  0.0426  0.1220  0.3199
72509W        W15603  18.400  10.826  18.171  0.0417  0.0701 -0.2435
72510W        W15604  17.189   9.588  18.405 -0.1933  0.2215 -0.1773
72511W        W15605  15.237  12.889  15.780  0.3005 -0.1542 -0.1499
72512W        W15606  14.458  12.182  18.015 -0.2769 -0.0205  0.3534
72513W        W15607  17.603  14.822  16.439 -0.0314  0.0255  0.0382
72514W        W15608  15.816  12.103  16.333  0.0121 -0.2782  0.0879
72515W        W15609  13.720  14.138  17.058 -0.2439  0.0365 -0.2736
72516W        W15610  15.892  10.591  17.640  0.3565  0.0884  0.2833
72517W        W15611  16.324  13.863  18.107 -0.1317  0.1814  0.2889
72518W        W15612  14.293  13.651  15.901 -0.1424  0.2857 -0.0751
72519W        W15613  14.268  13.773  16.617 -0.2311  0.0954  0.1016
72520W        W15614  13.869  11.699  16.229 -0.0438 -0.2316  0.1435
72521W        W15615  14.405  10.320  18.367 -0.1720 -0.0390  0.3883
72522W        W15616  14.864  14.479  17.392  0.0908  0.1505  0.0865
72523W        W15617  17.599  11.237  17.154  0.2277 -0.0937 -0.1393
72524W        W15618  15.876  10.270  18.691  0.0817 -0.2315  0.1698
72525W        W15619  17.592  10.867  18.681  0.1711 -0.3663 -0.1803
72526W        W15620  14.990  12.249  16.553 -0.0205 -0.1122  0.2360
72527W        W15621  16.299  13.654  16.743 -0.1594 -0.2475  0.0824
72528W        W15622  16.896  11.216  16.205  0.0193  0.4197  0.1913
72529W        W15623  17.675  13.170  16.510 -0.1861  0.0804 -0.1388
72530W        W15624  15.434  11.367  17.611  0.1073  0.2407 -0.2811
72531W        W15625  14.902  10.727  17.568 -0.3097 -0.0336  0.0147
72532W        W15626  14.777  10.057  18.556 -0.1646 -0.2230  0.2905
72533W        W15627  14.647  11.460  18.731  0.1463 -0.0277 -0.2518
72534W        W15628  16.825  12.742  18.314  0.0526 -0.0677 -0.0102
72535W        W15629  15.698  10.897  15.835  0.0846 -0.1943  0.0554
72536W        W15630  17.501  11.716  17.300 -0.0512  0.2622  0.0993
72537W        W15631  15.419  12.793  15.326  0.0397  0.0380  0.3498
72538W        W15632  12.404  11.832  16.761 -0.0712  0.0300  0.1644
72539W        W15633  18.045  10.576  17.860 -0.2927  0.1468  0.0595
72540W        W15634  16.194  14.638  15.991  0.0790  0.0810  0.0047
72541W        W15635  17.957  14.112  16.835 -0.0194 -0.1570 -0.1411
72542W        W15636  16.552  14.177  16.890 -0.0874 -0.3417 -0.1708
72543W        W15637  16.172  11.177  18.469  0.0026 -0.0864  0.1160
72544W        W15638  14.646  11.143  16.333 -0.2325 -0.0175  0.2064
72545W        W15639  15.306  13.554  17.191  0.2501 -0.0664  0.0568
72546W        W15640  14.583  13.015  16.248 -0.0559 -0.0061 -0.1499
72547W        W15641  14.328  10.250  16.159  0.0572 -0.1428  0.0585
72548W        W15642  18.396  14.226  15.659  0.0855 -0.1482 -0.0102
72549W        W15643  16.297  12.679  18.251  0.0489 -0.0561 -0.4150
72550W        W15644  14.141  13.131  17.981  0.0534 -0.0796  0.3776
72551W        W15645  16.758  11.867  18.971 -0.1060 -0.0056  0.2340
72552W        W15646  17.732  11.955  17.784  0.3484  0.0435  0.1386
72553W        W15647  16.860  12.706  16.777  0.0431 -0.0589  0.0448
72554W        W15648  15.221  11.324  15.021  0.1155  0.3042  0.0735
72555W        W15649  15.551  12.937  16.659 -0.0260  0.0800 -0.0129
72556W        W15650  14.083  12.450  16.054  0.0693  0.2716  0.0573
72557W        W15651  13.758  12.673  16.692  0.1203 -0.0948 -0.0351
72558W        W15652  16.779  12.184  17.582  0.0956  0.1776  0.2003
72559W        W15653  19.220  10.981  18.453 -0.0942  0.2122 -0.1151
72560W        W15654  15.321   9.818  18.780  0.2230 -0.0293 -0.4923
72561W        W15655  16.436  11.186  19.493  0.2826  0.3425  0.0077
72562W        W15656  14.987  11.804  16.815  0.1081  0.2562 -0.0274
72563W        W15657  14.792  13.390  17.248 -0.1290 -0.0320 -0.0622
72564W        W15658  17.395  10.508  17.750  0.0597  0.0899 -0.0244
72565W        W15659  17.268  11.812  17.777 -0.0911  0.2189 -0.2819
72566W        W15660  16.714  11.665  17.590  0.1766 -0.2075  0.0537
72567W        W15661  16.894  12.243  17.059  0.0187 -0.1746  0.0362
72568W        W15662  15.694  10.688  16.340 -0.1251 -0.1097 -0.3198
72569W        W15663  16.514  10.965  15.334 -0.0827  0.3655 -0.3010
72570W        W15664  14.341  13.012  17.468 -0.1497  0.3992  0.3183
72571W        W15665  16.516  11.528  18.230  0.0456 -0.0057 -0.0714
72572W        W15666  15.634  12.411  16.743  0.2482  0.0955  0.1140
72573W        W15667  15.669  12.165  15.176 -0.1785  0.0687  0.4155
72574W        W15668  17.824  14.010  14.940 -0.0233  0.3286  0.3965
72575W        W15669  14.095  10.864  18.787  0.1720 -0.5254 -0.2269
72576W        W15670  17.200  13.755  18.129  0.1377 -0.0016 -0.1346
72577W        W15671  16.459  13.142  16.087  0.0194 -0.0802  0.0079
72578W        W15672  16.548  11.439  18.769  0.0277 -0.0940  0.1201
72579W        W15673  14.902  11.294  15.955  0.1205 -0.0895 -0.1820
72580W        W15674  15.686  10.104  16.800 -0.0607 -0.1650 -0.0489
72581W        W15675  14.460  13.671  14.944 -0.1748 -0.1026 -0.0002
72582W        W15676  17.827  10.097  18.188  0.1281  0.1050  0.1127
72583W        W15677  16.943  10.931  17.848 -0.0698 -0.2499 -0.0132
72584W        W15678  16.001  11.018  18.960 -0.0598 -0.2860 -0.1063
72585W        W15679  17.591  11.969  18.264  0.2651 -0.0990  0.2542
72586W        W15680  17.085  11.651  16.244  0.2593 -0.1707  0.0545
72587W        W15681  15.792  10.611  16.827  0.0808  0.0869 -0.1084
72588W        W15682  15.757  11.384  15.680 -0.2895 -0.2828  0.0611
72589W        W15683  16.149  10.813  17.220  0.0199 -0.1567 -0.1148
72590W        W15684  14.631  11.966  18.643  0.0532 -0.3624  0.0633
72591W        W15685  14.534  14.350  17.040  0.0107  0.2093  0.3831
72592W        W15686  16.924  12.687  17.348  0.0458  0.0965 -0.3204
72593W        W15687  16.999  12.505  17.851  0.0328  0.0660  0.3902
72594W        W15688  17.175  10.584  18.437  0.2657 -0.0178 -0.0240
72595W        W15689  16.257  11.268  15.827 -0.0629  0.0370  0.4848
72596W        W15690  15.494  13.100  16.127  0.1429  0.1628  0.3427
72597W        W15691  14.991  12.416  15.983 -0.0590  0.1076 -0.1489
72598W        W15692  16.471  10.537  17.692  0.3441 -0.0053 -0.0133
72599W        W15693  14.991  13.423  17.749 -0.2498 -0.0185  0.0328
72600W        W15694  15.238  13.386  15.155  0.0502 -0.0369  0.3573
72601W        W15695  15.731  12.678  18.441 -0.4582 -0.6177  0.3743
72602W        W15696  15.159  13.801  15.507 -0.3182 -0.1005  0.4037
72603W        W15697  18.373   9.401  19.458  0.1035  0.1750 -0.2844
72604W        W15698  14.461  13.853  17.149  0.1485  0.2110 -0.1972
72605W        W15699  15.142  12.376  15.208 -0.1805 -0.3781 -0.0934
72606W        W15700  14.447  11.568  16.113  0.0141  0.0128  0.1130
72607W        W15701  16.991  10.534  16.400 -0.1392  0.0166  0.2000
72608W        W15702  17.214  10.882  17.243  0.4409 -0.2130 -0.0346
72609W        W15703  15.137  11.121  17.298  0.0904 -0.0026  0.0148
72610W        W15704  15.183  10.245  18.293  0.0619 -0.1364  0.1001
72611W        W15705  14.402  13.597  18.980  0.1707 -0.1426 -0.0898
72612W        W15706  17.205  11.247  17.544 -0.0436 -0.0918 -0.0158
72613W        W15707  17.360  11.212  16.625 -0.2814  0.2331  0.2808
72614W        W15708  15.805  12.386  17.717 -0.2997 -0.1850  0.1100
72615W        W15709  15.074  11.194  19.967 -0.0064  0.0042 -0.1281
72616W        W15710  16.144  11.665  15.427 -0.1664  0.2762 -0.0192
72617W        W15711  17.642  10.625  18.166  0.1976 -0.0577  0.0006
72618W        W15712  14.927  11.208  16.728 -0.2433 -0.0685  0.0564
72619W        W15713  15.240  13.491  15.892  0.0914  0.2514 -0.1053
72620W        W15714  16.384  12.493  17.423  0.0596 -0.0529  0.3629
72621W        W15715  14.717  12.781  15.852 -0.1546 -0.0778  0.3872
72622W        W15716  13.788  13.632  17.054  0.1397  0.0770  0.0807
72623W        W15717  15.099  11.752  17.888 -0.0228  0.0596 -0.2363
72624W        W15718  18.424  10.837  19.698 -0.0771  0.2104 -0.1301
72625W        W15719  15.041  12.541  17.442 -0.1327 -0.0667 -0.0381
72626W        W15720  15.392  10.913  16.780  0.0819 -0.0852  0.1686
72627W        W15721  16.648  11.519  17.070  0.0036  0.1096  0.1376
72628W        W15722  16.211  12.053  17.726  0.1457  0.3030  0.1655
72629W        W15723  16.963  11.606  18.471 -0.0850 -0.3704 -0.4643
72630W        W15724  15.285  13.106  18.986 -0.1652  0.0733 -0.0421
72631W        W15725  17.363   9.801  16.944  0.0245 -0.0489 -0.1514
72632W        W15726  18.104  14.618  15.916 -0.2032  0.0834 -0.1300
72633W        W15727  18.086  10.669  18.566  0.1759 -0.3323  0.3167
72634W        W15728  15.406  13.055  14.817  0.1598 -0.3652  0.0683
72635W        W15729  14.262  11.331  18.384 -0.0331 -0.0843 -0.2195
72636W        W15730  15.341  14.456  16.631 -0.1473 -0.2213  0.3858
72637W        W15731  16.251  11.976  19.789  0.1203  0.1971 -0.0425
72638W        W15732  14.301  12.662  17.922  0.0458  0.0466  0.0503
72639W        W15733  14.675  13.254  15.730  0.0747 -0.0439  0.0874
72640W        W15734  13.231  12.942  18.850 -0.2688  0.0750 -0.0216
72641W        W15735  16.424  11.064  16.883 -0.1057 -0.1628 -0.0101
72642W        W15736  16.914  12.130  16.373  0.0859  0.0560  0.1681
72643W        W15737  16.258  11.754  16.446 -0.4597 -0.0858  0.1739
72644W        W15738  17.590   9.857  18.622 -0.2616 -0.0424  0.0315
72645W        W15739  15.181  11.997  16.177  0.0003 -0.0856 -0.0050
72646W        W15740  17.573  10.675  20.194  0.0184 -0.0382 -0.2401
72647W        W15741  14.572   9.965  17.856  0.0696  0.3063  0.1754
72648W        W15742  16.590  11.698  16.114 -0.0255  0.0042 -0.1473
72649W        W15743  14.881  10.284  17.304  0.1373 -0.1428 -0.2271
72650W        W15744  17.483  14.113  17.126 -0.0348 -0.0014 -0.1191
72651W        W15745  15.184  11.555  18.915  0.1209  0.1695 -0.1459
72652W        W15746  16.162  10.751  16.181 -0.2025  0.3126 -0.0834
72653W        W15747  14.713  11.605  18.151  0.0022 -0.3261 -0.0127
72654W        W15748  14.494  13.553  17.567 -0.2726 -0.0035  0.0519
72655W        W15749  16.315  13.106  17.994 -0.0359 -0.0527  0.1521
72656W        W15750  16.031  12.874  16.196 -0.0094  0.0403 -0.0937
72657W        W15751  18.784  11.567  18.046  0.1765  0.2465  0.1662
72658W        W15752  15.356  12.136  17.053 -0.0015  0.1075 -0.3096
72659W        W15753  16.216  11.317  17.926  0.0169  0.2215 -0.0199
72660W        W15754  14.656  12.431  15.395 -0.2783  0.0340  0.0534
72661W        W15755  15.652  14.212  16.333 -0.0751 -0.2618 -0.0245
72662W        W15756  14.378  10.478  20.899  0.0652 -0.1964 -0.0115
72663W        W15757  17.731  11.394  19.127  0.0314  0.2779  0.0271
72664W        W15758  18.407  10.374  16.813 -0.2709  0.2339  0.1030
72665W        W15759  16.938  11.431  17.933 -0.0700 -0.0743  0.2669
72666W        W15760  16.730  11.136  17.395 -0.1161 -0.2456  0.0317
72667W        W15761  17.707  11.976  19.891  0.0055  0.1246  0.0939
72668W        W15762  15.090  10.701  19.233 -0.3214  0.1606 -0.1256
72669W        W15763  16.285  14.483  16.551 -0.1569 -0.3910  0.1677
72670W        W15764  18.177  11.602  15.949  0.2391 -0.1122 -0.0451
72671W        W15765  18.362   9.745  18.649 -0.0539 -0.4004 -0.0076
72672W        W15766  17.805  10.706  17.345  0.0525  0.1223  0.0604
72673W        W15767  16.186  11.541  16.892 -0.1917 -0.1073 -0.2624
72674W        W15768  15.900  11.677  17.743  0.2060 -0.0934 -0.0321
72675W        W15769  16.942  11.850  19.447  0.3059  0.0928  0.3474
72676W        W15770  15.946  11.165  15.305  0.1474 -0.0302 -0.2557
72677W        W15771  16.623  10.573  18.358 -0.0628 -0.0526  0.2084
72678W        W15772  16.464  13.883  15.284  0.0719  0.1149  0.1960
72679W        W15773  15.891  12.875  17.978 -0.0627  0.1096 -0.2920
72680W        W15774  16.044  12.095  16.784  0.0916  0.3572 -0.0359
72681W        W15775  15.166  12.049  18.677 -0.0467  0.0945  0.0884
72682W        W15776  15.041  14.226  17.789 -0.0754  0.2197 -0.1285
72683W        W15777  16.058  11.663  15.960 -0.3209  0.1057 -0.1625
72684W        W15778  13.837  11.358  16.958 -0.1384  0.0099 -0.0754
72685W        W15779  15.182  12.983  18.024  0.1624 -0.2407  0.2566
72686W        W15780  17.489  11.412  19.598  0.2156 -0.0532  0.0143
72687W        W15781  16.344  10.419  15.758  0.1065  0.0951 -0.2518
72688W        W15782  19.418  11.351  19.243  0.1348  0.0544  0.0640
72689W        W15783  13.046  14.386  16.041 -0.2663 -0.2940 -0.1229
72690W        W15784  17.244  10.060  17.574  0.3024  0.1743 -0.0043
72691W        W15785  15.930  13.418  17.973 -0.0114 -0.4276 -0.0412
72692W        W15786  13.750  12.034  19.134  0.1028 -0.0302 -0.1337
72693W        W15787  16.103  14.153  16.121 -0.0482  0.1268 -0.1976
72694W        W15788  16.983  10.462  17.481  0.1644  0.3279 -0.1081
72695W        W15789  17.030  11.808  16.733  0.1636 -0.1534  0.0200
72696W        W15790  15.448  12.693  17.733 -0.1316 -0.0137 -0.2616
72697W        W15791  18.831  12.136  16.707  0.0491  0.0451 -0.2914
72698W        W15792  17.109  11.352  17.024 -0.0346 -0.0113  0.4266
72699W        W15793  13.364  13.416  16.308  0.0808  0.0821 -0.2971
72700W        W15794  16.188  13.971  17.166 -0.0147 -0.1280  0.1558
72701W        W15795  17.322  12.554  16.989 -0.0173 -0.2049 -0.1612
72702W        W15796  15.561  12.544  16.165  0.2466 -0.0878 -0.0100
72703W        W15797  14.892  12.203  17.113  0.0257  0.4963 -0.0087
72704W        W15798  16.553  12.246  18.099  0.0151  0.0111 -0.2455
72705W        W15799  18.013  13.227  17.093  0.1572  0.0606 -0.1554
72706W        W15800  14.120  11.812  16.794 -0.1281  0.1054  0.1869
72707W        W15801  16.051  13.411  15.369 -0.1378  0.1262 -0.0940
72708W        W15802  13.369  13.049  17.780 -0.1152 -0.0219 -0.1711
72709W        W15803  15.200  12.291  17.835 -0.0454 -0.2898 -0.0758
72710W        W15804  15.069  12.833  16.385 -0.1625 -0.1727 -0.0507
72711W        W15805  14.792  12.902  17.667 -0.4690 -0.0890  0.0638
72712W        W15806  16.414  11.940  15.686 -0.1341 -0.4087 -0.1525
72713W        W15807  15.515  13.969  16.796  0.2455  0.3458  0.1631
72714W        W15808  15.342  11.421  16.954 -0.0884  0.1304  0.0461
72715W        W15809  14.237  13.390  16.968  0.0769  0.0428 -0.1800
72716W        W15810  15.093  14.410  16.219 -0.0203 -0.2726  0.1991
72717W        W15811  16.934  13.838  15.450  0.2188  0.1366  0.0968
72718W        W15812  15.167  14.632  15.726 -0.1887 -0.0418 -0.1249
72719W        W15813  16.184  13.286  17.137 -0.0699  0.0669  0.1840
72720W        W15814  15.438  11.275  16.470  0.0006 -0.1651 -0.0743
72721W        W15815  17.133  12.991  16.996 -0.0733 -0.0147 -0.0426
72722W        W15816  17.746  11.801  16.023 -0.0760  0.3151 -0.1543
72723W        W15817  16.605  12.713  18.783 -0.0717  0.1452 -0.2845
72724W        W15818  14.566  11.676  16.598 -0.0363  0.2081 -0.0698
72725W        W15819  15.661  11.660  15.128  0.2342  0.2237  0.0470
72726W        W15820  14.434  12.432  18.435  0.0012  0.1946  0.1134
72727W        W15821  19.253  10.714  20.135 -0.1753 -0.0488 -0.2723
72728W        W15822  14.129  14.624  17.778  0.3371 -0.0564 -0.2948
72729W        W15823  16.907  14.332  15.269 -0.2640 -0.0566  0.1864
72730W        W15824  13.540  11.710  16.816  0.0687  0.0143 -0.2534
72731W        W15825  14.881  12.051  18.221  0.1612 -0.2184  0.1650
72732W        W15826  17.761   9.460  18.376  0.0741  0.1462 -0.0736
72733W        W15827  14.949  12.850  15.352 -0.1986  0.0180  0.1647
72734W        W15828  16.989  10.061  17.079  0.2229 -0.2385  0.1133
72735W        W15829  15.379  14.148  15.884  0.1941 -0.3413  0.1507
72736W        W15830  14.885  14.227  18.269 -0.1306  0.0854  0.1263
72737W        W15831  14.897  13.919  17.409 -0.1023  0.0447 -0.4596
72738W        W15832  13.863  10.451  16.291  0.0965  0.2817 -0.1188
72739W        W15833  18.403  12.530  17.839  0.0294 -0.0355 -0.4182
72740W        W15834  16.000  11.965  18.869 -0.2769 -0.1757  0.2006
72741W        W15835  18.206  10.447  19.016 -0.0938 -0.0410 -0.3890
72742W        W15836  15.369  11.227  15.946  0.2163 -0.1403  0.0116
72743W        W15837  16.527  10.397  16.249 -0.3764 -0.4687  0.0442
72744W        W15838  16.311  13.420  18.426 -0.2314  0.1363 -0.1582
72745W        W15839  14.608  11.908  19.905  0.3106  0.3522  0.1201
72746W        W15840  15.143  13.188  16.888 -0.2151  0.1595 -0.0179
72747W        W15841  17.188  12.731  18.689  0.2697 -0.0815  0.3416
72748W        W15842  16.098  12.313  15.871 -0.2286  0.1580  0.0677
72749W        W15843  16.689  13.542  18.145  0.0190 -0.1438 -0.0408
72750W        W15844  15.012  10.263  17.790  0.0785  0.1427  0.2140
72751W        W15845  15.823   9.853  17.249 -0.0024 -0.0243 -0.2179
72752W        W15846  14.478  12.486  17.285 -0.0434  0.0464  0.0202
72753W        W15847  14.038  13.409  17.485 -0.1933 -0.0633  0.1191
72754W        W15848  19.608  13.747  18.003  0.2758  0.2060  0.2933
72755W        W15849  14.775   9.544  17.507  0.2883 -0.0217  0.1163
72756W        W15850  16.636  13.925  15.935 -0.0542  0.0126 -0.1460
72757W        W15851  17.836  13.679  16.617  0.1162 -0.2588  0.0244
72758W        W15852  15.628  13.288  15.602  0.0798  0.0441  0.0712
72759W        W15853  16.336  11.279  16.320 -0.0897 -0.1993  0.3975
72760W        W15854  17.061  14.317  16.917 -0.0818  0.0944 -0.2238
72761W        W15855  15.515  11.899  18.125  0.1292 -0.0934 -0.1470
72762W        W15856  15.463  13.469  16.620  0.2879  0.1019 -0.3528
72763W        W15857  16.770  14.596  16.584  0.0639 -0.0809  0.1007
72764W        W15858  16.696   9.958  17.556 -0.0418 -0.3178  0.0771
72765W        W15859  15.833  11.602  16.586  0.3818 -0.0030 -0.2814
72766W        W15860  15.239  15.473  16.403 -0.0217 -0.0486 -0.1027
72767W        W15861  18.259   9.772  19.733 -0.0725 -0.0767 -0.1155
72768W        W15862  16.312  10.816  18.066 -0.2223 -0.2676  0.1131
72769W        W15863  17.029  14.234  15.797  0.1155 -0.0075  0.2415
72770W        W15864  18.121  11.131  20.291 -0.0127  0.0781  0.0430
72771W        W15865  16.534  13.615  17.156 -0.1867 -0.1222 -0.0164
72772W        W15866  15.436  15.199  18.325 -0.1097  0.1529 -0.0831
72773W        W15867  15.477  12.430  15.636 -0.0939 -0.0770  0.0511
72774W        W15868  15.953  12.217  18.170  0.0339 -0.0375 -0.2268
72775W        W15869  16.414  12.427  16.867 -0.1614 -0.1038 -0.2045
72776W        W15870  15.758  14.504  15.841  0.3649 -0.0481  0.0993
72777W        W15871  17.143  13.373  16.632 -0.2348  0.1177 -0.4004
72778W        W15872  16.286  11.458  17.410  0.0094 -0.4427  0.1307
72779W        W15873  16.938  13.041  16.185  0.1277 -0.0859  0.0100
72780W        W15874  14.939   9.741  18.138 -0.0327 -0.2169  0.0150
72781W        W15875  17.865  11.166  18.101  0.3233  0.2718  0.0542
72782W        W15876  17.730   9.920  16.561  0.2235  0.0187  0.0940
72783W        W15877  15.560  11.772  18.667  0.0003 -0.2478  0.1911
72784W        W15878  15.680  11.893  15.595  0.3108 -0.0608 -0.0983
72785W        W15879  13.582  13.837  16.612 -0.1300  0.1264  0.0776
72786W        W15880  14.676  12.077  15.818  0.1021 -0.0731 -0.0283
72787W        W15881  16.451   9.313  19.722  0.0045  0.1060 -0.0446
72788W        W15882  15.627  12.262  18.677  0.6921 -0.2727  0.1502
72789W        W15883  14.219  12.746  16.444  0.1549 -0.1682  0.1089
72790W        W15884  13.940  10.390  17.023  0.2031 -0.0131  0.2839
72791W        W15885  16.761  12.625  16.301 -0.2008 -0.0854 -0.0068
72792W        W15886  15.496   9.380  18.854  0.2968 -0.0338  0.0560
72793W        W15887  14.120  11.454  18.893  0.2205  0.0300 -0.0286
72794W        W15888  16.637  13.246  16.830 -0.0772  0.1552  0.3501
72795W        W15889  17.042  14.316  16.314 -0.2918  0.2054  0.0281
72796W        W15890  15.515  10.305  17.334 -0.2235  0.1030  0.3840
72797W        W15891  18.317  13.778  16.970  0.1962  0.0249  0.1066
72798W        W15892  13.849  13.792  15.584 -0.1934 -0.3190 -0.0499
72799W        W15893  16.210  10.729  19.968 -0.2343  0.0184 -0.0862
72800W        W15894  17.851  10.054  17.096 -0.1804  0.0497  0.1578
72801W        W15895  13.775  12.009  15.295 -0.1283  0.0614  0.3196
72802W        W15896  16.698  11.419  16.614  0.0962  0.3152 -0.5461
72803W        W15897  16.004  13.284  15.949 -0.0356 -0.1033 -0.0881
72804W        W15898  17.446  14.149  15.433  0.0399 -0.3121 -0.1044
72805W        W15899  15.620  14.392  17.878  0.2089 -0.0041 -0.1158
72806W        W15900  15.700  13.844  18.103  0.0771 -0.0291  0.1284
72807W        W15901  14.469  10.482  17.889 -0.3547  0.0665  0.0699
72808W        W15902  16.876  11.851  15.662 -0.1261  0.0840 -0.1326
72809W        W15903  17.596  12.394  18.829  0.1122 -0.2321  0.2841
72810W        W15904  18.080  13.389  15.286 -0.1761 -0.2067 -0.2443
72811W        W15905  19.017  11.319  17.643  0.1134  0.1906  0.0648
72812W        W15906  16.809  11.065  18.316 -0.3393 -0.1466  0.0264
72813W        W15907  14.486  10.146  20.418 -0.1315 -0.0182 -0.1724
72814W        W15908  15.214  13.713  19.693 -0.4292 -0.3326 -0.1779
72815W        W15909  17.469  13.783  17.637 -0.1221  0.2575 -0.0067
72816W        W15910  14.248   9.602  17.728 -0.1991 -0.0798  0.2055
72817W        W15911  15.857  11.264  16.176  0.1713 -0.0829  0.2331
72818W        W15912  15.861  14.780  16.376 -0.2541  0.3634  0.0387
72819W        W15913  13.467  11.829  17.739 -0.1114 -0.0126  0.2262
72820W        W15914  15.806  11.794  17.136 -0.0523 -0.0563  0.0923
72821W        W15915  17.059  11.828  17.269  0.1647 -0.0904  0.0015
72822W        W15916  15.557  12.741  17.227 -0.1263 -0.0708 -0.0757
72823W        W15917  18.793  13.480  17.743 -0.2116  0.0908  0.1605
72824W        W15918  15.951  13.223  16.547  0.1877  0.1145  0.3078
72825W        W15919  17.107  12.471  15.593 -0.1594 -0.2293  0.0277
72826W        W15920  15.996  12.872  16.933 -0.1913  0.1378 -0.0400
72827W        W15921  16.128  15.680  17.264  0.1150 -0.0812  0.1828
72828W        W15922  15.915  14.422  17.001  0.2811 -0.3540  0.1036
72829W        W15923  17.302  12.251  17.472  0.2995 -0.0853  0.1544
72830W        W15924  13.720  11.356  17.689 -0.1466 -0.0824  0.1876
72831W        W15925  13.451  12.754  17.046 -0.0706 -0.1267  0.0934
72832W        W15926  15.728  12.811  15.820 -0.1431 -0.0932 -0.0590
72833W        W15927  17.506  11.350  16.197  0.1503  0.0685  0.2828
72834W        W15928  15.752  11.312  17.185  0.2651 -0.0477  0.1241
72835W        W15929  15.467  12.566  14.864  0.3917  0.0868 -0.1287
72836W        W15930  15.630  13.212  17.060  0.1039 -0.1077 -0.1278
72837W        W15931  16.561  12.697  17.810 -0.1318 -0.0764  0.1175
72838W        W15932  16.174  11.020  22.524  0.2307  0.1953  0.1516
72839W        W15933  16.357  11.220  20.491 -0.1275 -0.0028 -0.0156
72840W        W15934  17.651   9.457  19.845 -0.2595 -0.0022 -0.1983
72841W        W15935  17.118  11.394  19.931  0.3037 -0.0032  0.1683
72842W        W15936  15.736  10.700  20.004 -0.2303  0.0667 -0.1906
72843W        W15937  17.101  14.187  17.807 -0.3461  0.1593 -0.1244
72844W        W15938  14.349   9.898  23.259 -0.1035 -0.0789 -0.2232
72845W        W15939  17.475  12.765  19.529  0.1311 -0.0044 -0.1247
72846W        W15940  16.403  11.932  18.550 -0.3264  0.4184 -0.1302
72847W        W15941  14.910  11.861  21.717  0.1237  0.0303 -0.2787
72848W        W15942  16.680  12.818  20.191 -0.0927 -0.0253  0.0187
72849W        W15943  15.909   9.446  19.536 -0.1498  0.2828  0.1386
72850W        W15944  14.327  11.674  22.039 -0.0448 -0.0438  0.0963
72851W        W15945  18.571  11.854  21.822  0.2187 -0.0740  0.1774
72852W        W15946  15.638  11.232  20.048 -0.0904  0.0828  0.2072
72853W        W15947  15.401  11.575  22.379 -0.2055 -0.3580 -0.2848
72854W        W15948  16.729  10.948  20.742 -0.0894  0.0247  0.2067
72855W        W15949  17.407  13.615  19.019 -0.0586  0.0231 -0.2019
72856W        W15950  17.619  11.994  21.665 -0.0710  0.0112 -0.1655
72857W        W15951  17.328  11.735  22.463  0.2328  0.0782  0.0529
72858W        W15952  15.408  12.065  19.244 -0.1957  0.2584 -0.1298
72859W        W15953  15.412  10.913  19.580  0.3092 -0.3133  0.4240
72860W        W15954  14.543  11.770  20.888 -0.1203 -0.0688  0.0582
72861W        W15955  14.000  12.670  21.230  0.3036 -0.0541  0.0170
72862W        W15956  17.274  11.210  20.844  0.1499  0.1816 -0.0203
72863W        W15957  17.930  12.804  19.697  0.1122 -0.0088  0.2265
72864W        W15958  16.396  13.729  20.486 -0.0347 -0.1373 -0.1355
72865W        W15959  15.807  11.895  20.067 -0.1061 -0.3146 -0.0136
72866W        W15960  16.351  11.913  22.168  0.0060  0.0115  0.1240
72867W        W15961  16.064  12.292  20.376  0.2130 -0.0360  0.1123
72868W        W15962  15.277  13.936  19.230 -0.1107  0.2425  0.0638
72869W        W15963  16.070  13.139  19.294 -0.0542  0.3895  0.2138
72870W        W15964  18.246  11.558  20.491 -0.0819  0.1963  0.0788
72871W        W15965  17.533  13.488  21.556  0.1770 -0.1343 -0.1723
72872W        W15966  15.947  13.621  20.966 -0.0192  0.0665 -0.0605
72873W        W15967  14.869  12.448  18.582 -0.2831 -0.0408  0.0682
72874W        W15968  16.880  13.701  20.294 -0.0146 -0.0726 -0.0526
72875W        W15969  14.244  12.299  21.535  0.4566  0.0028 -0.1163
72876W        W15970  17.128  13.333  20.073 -0.5244 -0.0619  0.1062
72877W        W15971  15.418  11.804  20.543 -0.1544  0.1400  0.0369
72878W        W15972  15.604  13.901  18.813 -0.0392  0.0689 -0.0127
72879W        W15973  16.788  14.093  18.298  0.2126 -0.0126  0.2151
72880W        W15974  14.983  12.240  22.145  0.3269  0.1598 -0.1276
72881W        W15975  15.414  12.357  20.751 -0.2514  0.0086 -0.0585
72882W        W15976  18.433  10.638  23.089 -0.3484 -0.0843 -0.0656
72883W        W15977  14.871  13.715  19.125 -0.0530 -0.0733  0.2689
72884W        W15978  17.440  11.491  18.109 -0.2403  0.0156 -0.0815
72885W        W15979  15.330  10.957  18.336 -0.0386  0.0660  0.0208
72886W        W15980  17.231  11.628  19.021 -0.3252  0.0873 -0.0119
72887W        W15981  15.988   9.842  20.935 -0.0262  0.3021 -0.2346
72888W        W15982  14.995  13.833  21.050  0.0699  0.0392 -0.2127
72889W        W15983  15.398  11.161  22.773 -0.3398  0.1180  0.1713
72890W        W15984  18.699  12.430  21.082  0.1702 -0.0352  0.0230
72891W        W15985  16.415  12.201  19.089 -0.2475  0.1790 -0.0911
72892W        W15986  15.552  11.510  20.967  0.0588  0.2979  0.0471
72893W        W15987  15.414  13.845  21.282 -0.2246 -0.1866  0.0477
72894W        W15988  13.956  11.659  20.773 -0.2249  0.1530  0.3750
72895W        W15989  17.503  13.397  17.970 -0.2315  0.0286 -0.0366
72896W        W15990  17.235  13.202  18.850  0.6491 -0.1106  0.1864
72897W        W15991  15.846  13.572  17.437  0.1447 -0.2947  0.1466
72898W        W15992  14.553  10.627  19.517 -0.0261 -0.0188  0.3019
72899W        W15993  14.411  11.886  22.511  0.2335 -0.0213 -0.0836
72900W        W15994  14.664  11.268  23.300  0.0079 -0.1558 -0.0651
72901W        W15995  15.501  10.918  20.783  0.2905 -0.1350 -0.3642
72902W        W15996  17.466  13.224  20.590 -0.0115 -0.0867 -0.1882
72903W        W15997  14.817  12.814  22.373 -0.1035 -0.1012 -0.1799
72904W        W15998  17.916  11.850  19.279  0.2586  0.0491 -0.0606
72905W        W15999  16.459  12.153  20.647 -0.0990  0.3026  0.0720
72906W        W16000  18.665  12.598  20.652 -0.0843 -0.0765  0.0746
72907W        W16001  17.768  13.985  18.894  0.3842 -0.0871 -0.0278
72908W        W16002  17.949  11.109  22.179 -0.3455 -0.1038  0.0688
72909W        W16003  18.442  11.465  21.409 -0.0402 -0.2287 -0.2876
72910W        W16004  17.078  10.978  18.773  0.2486 -0.0734  0.0524
72911W        W16005  15.041  12.147  20.209  0.3558  0.1141  0.0236
72912W        W16006  18.207  12.307  21.137  0.1171 -0.0762  0.3459
72913W        W16007  17.672  10.969  19.373 -0.2364  0.1149 -0.0917
72914W        W16008  15.282  12.833  20.927 -0.1229  0.1637  0.1065
72915W        W16009  17.044  11.590  21.005  0.4038 -0.0759 -0.1201
72916W        W16010  15.869  12.565  21.614 -0.2099 -0.0752 -0.1281
72917W        W16011  15.217  14.706  18.288  0.0422 -0.1436  0.2804
72918W        W16012  14.964  12.412  19.379  0.3912  0.1943  0.1308
72919W        W16013  15.087  12.862  19.542 -0.0672  0.1578  0.2448
72920W        W16014  15.064  11.071  21.125 -0.1691 -0.0373  0.1540
72921W        W16015  15.871  12.106  20.797 -0.2062 -0.0385 -0.2041
72922W        W16016  16.851  11.318  20.451  0.0076  0.1080  0.2091
72923W        W16017  15.928  10.882  22.956  0.0877  0.1639 -0.1187
72924W        W16018  17.030  10.302  21.190  0.1391  0.1316  0.1046
72925W        W16019  14.607  12.919  19.880  0.0036 -0.2422  0.1961
72926W        W16020  17.986  14.148  18.484  0.1631 -0.1552  0.1177
72927W        W16021  18.146  12.261  19.546 -0.0630 -0.0623  0.1550
72928W        W16022  17.669  13.706  18.360  0.5522 -0.1236  0.2133
72929W        W16023  14.146  12.659  22.681 -0.0417 -0.0188 -0.2679
72930W        W16024  16.276  10.229  21.134  0.0514 -0.0369  0.1198
72931W        W16025  14.902  10.965  22.023 -0.0165  0.2877  0.1213
72932W        W16026  14.526  12.127  21.990 -0.1683  0.3005  0.0230
72933W        W16027  18.318  12.321  21.970  0.0566 -0.1122  0.2870
72934W        W16028  14.715   9.815  19.611 -0.0932  0.2104  0.0699
72935W        W16029  16.697  12.284  19.675  0.0512 -0.3030  0.2344
72936W        W16030  17.700  11.893  18.820  0.0066  0.1566 -0.1536
72937W        W16031  14.318  11.842  20.381  0.0192 -0.0129 -0.1089
72938W        W16032  17.282  12.264  23.393  0.0063  0.0571  0.0683
72939W        W16033  18.761  13.130  18.964  0.0255  0.0759  0.1494
72940W        W16034  17.624  13.542  20.103  0.1527 -0.0281 -0.0007
72941W        W16035  18.134  13.435  19.694  0.3048 -0.0677 -0.2351
72942W        W16036  16.164  11.915  23.292  0.0750  0.2866  0.1499
72943W        W16037  14.951  10.229  19.472  0.0588  0.1338 -0.0073
72944W        W16038  14.183  14.421  19.307  0.3819  0.1020 -0.3068
72945W        W16039  17.827  13.484  18.803  0.0583 -0.3174  0.1512
72946W        W16040  16.017  11.098  21.020  0.0573  0.1576  0.1579
72947W        W16041  17.630  12.329  19.406  0.1166  0.0428  0.0581
72948W        W16042  13.759  12.194  21.422  0.2271 -0.1662 -0.0379
72949W        W16043  18.143  10.147  22.444  0.2654  0.0135 -0.1823
72950W        W16044  17.575  11.639  20.991 -0.0586 -0.1692 -0.6117
72951W        W16045  16.906  13.564  19.062  0.0387 -0.0710  0.1112
72952W        W16046  14.476  10.740  20.415  0.0349 -0.2913 -0.3404
72953W        W16047  18.194  13.013  18.858  0.0958 -0.1403 -0.3063
72954W        W16048  15.850  13.454  18.752  0.0162  0.0002 -0.0787
72955W        W16049  13.821  10.136  20.365 -0.0602 -0.0530 -0.0893
72956W        W16050  15.916  14.398  18.699  0.2567 -0.3961  0.1894
72957W        W16051  17.790  11.828  20.395  0.1372  0.0069 -0.2121
72958W        W16052  13.987  13.385  22.671 -0.0908 -0.1461 -0.1129
72959W        W16053  15.443  11.473  23.629 -0.0103  0.0899 -0.1109
72960W        W16054  15.554  11.141  19.167 -0.0548 -0.1040 -0.0956
72961W        W16055  15.294  12.265  21.744  0.0267 -0.0263  0.1803
72962W        W16056  17.596  10.875  21.026  0.5277  0.3004  0.1793
72963W        W16057  18.421  11.822  19.516  0.2115 -0.2348  0.0518
72964W        W16058  16.590  11.491  21.933  0.0783 -0.2917  0.1607
72965W        W16059  19.148  11.586  20.017  0.1094 -0.0346  0.0579
72966W        W16060  15.379  10.409  18.758  0.2225  0.0726  0.1043
72967W        W16061  16.403   9.691  19.418 -0.5008 -0.0102  0.2784
72968W        W16062  15.389  12.092  22.438 -0.0480  0.0738  0.0250
72969W        W16063  14.305  12.294  20.096 -0.4548 -0.1791 -0.0333
72970W        W16064  16.574  12.546  21.123  0.0025  0.2074 -0.3375
72971W        W16065  15.622  11.565  19.641  0.0012 -0.1497  0.1542
72972W        W16066  17.749  14.397  17.437  0.0912  0.1196  0.0805
72973W        W16067  13.370  12.385  22.370 -0.0513  0.1586  0.0411
72974W        W16068  17.317  13.096  21.751 -0.1632 -0.1980 -0.0454
72975W        W16069  17.173  13.215  18.371 -0.3387 -0.0088  0.7390
72976W        W16070  16.168  11.155  21.942  0.0540 -0.1366  0.0963
72977W        W16071  16.018  11.719  18.234 -0.0432 -0.1222  0.1354
72978W        W16072  16.688  11.644  20.056 -0.1397  0.1077  0.2192
72979W        W16073  16.244  12.695  19.098  0.0040 -0.5879  0.0085
72980W        W16074  17.838  10.966  21.512 -0.4216  0.2768 -0.0183
72981W        W16075  18.051  12.248  20.164 -0.1474  0.1435 -0.2892
72982W        W16076  17.429  11.193  21.843  0.0808  0.2453 -0.0427
72983W        W16077  17.648  10.851  23.504  0.0598 -0.1805  0.0612
72984W        W16078  18.873  12.000  19.722 -0.0553 -0.1177 -0.0376
72985W        W16079  16.339  11.951  21.289 -0.2089 -0.3750  0.1805
72986W        W16080  16.333  12.001  17.231 -0.1552  0.1157 -0.1712
72987W        W16081  17.170  11.804  21.966 -0.1887  0.2102  0.0978
72988W        W16082  13.250  13.185  21.389  0.0089  0.1233 -0.0860
72989W        W16083  14.382  14.140  20.337 -0.2231 -0.0349 -0.1400
72990W        W16084  17.794  12.088  20.847  0.0035 -0.1785 -0.0361
72991W        W16085  17.440  11.889  19.451 -0.0369  0.0668 -0.0393
72992W        W16086  16.678  11.295  22.628  0.1158  0.2566  0.0389
72993W        W16087  15.305  10.183  20.481 -0.2797  0.0712 -0.2477
72994W        W16088  16.097  12.944  18.638 -0.3835 -0.1943  0.0536
72995W        W16089  14.983  12.564  20.561  0.1988 -0.1542 -0.3685
72996W        W16090  16.739  11.821  21.566 -0.2728 -0.0739  0.1126
72997W        W16091  16.507  12.669  20.607  0.2913 -0.2587 -0.0739
72998W        W16092  16.670  12.642  19.287  0.2030  0.0979  0.1658
72999W        W16093  16.904  12.747  21.484 -0.0362 -0.1331 -0.0898
73000W        W16094  14.867  12.805  19.050  0.0397 -0.0427  0.3109
73001W        W16095  16.908   8.728  20.719 -0.1126  0.0751 -0.0968
73002W        W16096  13.331  13.897  20.858  0.2136 -0.0080 -0.0271
73003W        W16097  15.330   9.718  20.238 -0.1969  0.1753 -0.0867
73004W        W16098  16.244  10.495  19.008  0.0232 -0.0367 -0.3067
73005W        W16099  17.793  11.340  20.664  0.3387 -0.1572  0.4608
73006W        W16100  17.324  12.435  18.286  0.0201 -0.0243 -0.1541
73007W        W16101  15.302  11.046  22.288 -0.2179 -0.1221  0.2796
73008W        W16102  16.636  10.932  21.689 -0.0441  0.1368 -0.0833
73009W        W16103  13.904  13.465  20.704  0.0045 -0.2042  0.0387
73010W        W16104  17.611  12.721  20.545  0.2880 -0.1654  0.1112
73011W        W16105  16.804  11.432  19.202  0.1468  0.0269 -0.1877
73012W        W16106  18.390  13.017  19.894  0.1419  0.1188 -0.0499
73013W        W16107  16.052  11.616  21.817 -0.1451 -0.0394 -0.0629
73014W        W16108  13.049  10.340  20.371  0.0474  0.0045 -0.2151
73015W        W16109  17.619  12.002  22.706 -0.1781  0.0147 -0.0783
73016W        W16110  15.320  11.683  20.069  0.1985 -0.0502 -0.0969
73017W        W16111  14.634  12.238  20.500  0.0061 -0.1064  0.0709
73018W        W16112  15.084  13.198  21.721 -0.0548 -0.2520  0.1971
73019W        W16113  14.606  10.929  19.900 -0.0683  0.1674  0.2199
73020W        W16114  14.950  12.057  20.779  0.1584  0.0970  0.3171
73021W        W16115  15.111  11.426  21.926  0.2454  0.0889  0.0284
73022W        W16116  18.051  13.333  20.201  0.3107 -0.2949  0.0210
73023W        W16117  16.584  11.143  19.982  0.0884  0.2623 -0.0403
73024W        W16118  14.133  11.946  21.159 -0.0716 -0.4342 -0.0277
73025W        W16119  15.308  10.819  20.287  0.2744  0.2632  0.0949
73026W        W16120  17.163  12.326  19.659 -0.2277 -0.0942  0.2731
73027W        W16121  17.976  12.810  20.224 -0.0070 -0.3433 -0.0383
73028W        W16122  15.057  12.441  21.178  0.2679  0.0622  0.0978
73029W        W16123  16.862  11.207  21.221  0.0095  0.1083  0.0439
73030W        W16124  17.524  12.979  20.116  0.0158  0.0047  0.0938
73031W        W16125  14.795  10.618  18.606  0.1006 -0.1172 -0.1805
73032W        W16126  13.822  12.040  20.386 -0.0037  0.0523  0.1193
73033W        W16127  16.388  12.958  19.625  0.0200 -0.2706 -0.2110
73034W        W16128  15.749  10.830  21.958  0.0173  0.0245 -0.1748
73035W        W16129  15.103  13.623  20.175  0.1308  0.0687 -0.0413
73036W        W16130  15.693  12.730  18.947  0.1244  0.3044 -0.0191
73037W        W16131  14.239  13.206  21.132  0.0690 -0.0184 -0.1195
73038W        W16132  17.653  10.205  20.430  0.0593 -0.1089  0.2538
73039W        W16133  15.574  13.194  18.358 -0.1430  0.2793 -0.2280
73040W        W16134  15.502  12.533  19.431 -0.1757  0.0315 -0.0758
73041W        W16135  18.773  11.887  22.746  0.0901  0.1570  0.0063
73042W        W16136  17.729   9.953  19.074  0.0424 -0.0434 -0.1178
73043W        W16137  18.465  10.613  24.110 -0.0546  0.0408 -0.0292
73044W        W16138  15.634  11.895  21.487 -0.1615  0.1732 -0.3210
73045W        W16139  18.351  13.121  19.376 -0.1247 -0.0146  0.2409
73046W        W16140  14.852  11.056  22.863  0.0422  0.0543 -0.1955
73047W        W16141  16.419  13.202  20.647  0.0521  0.2383  0.1403
73048W        W16142  14.850  11.659  23.001  0.1273 -0.0739  0.0510
73049W        W16143  16.115  11.405  19.978  0.1949 -0.1557 -0.0723
73050W        W16144  16.032  10.259  20.153 -0.0078  0.0838 -0.1377
73051W        W16145  15.145  13.265  21.220 -0.2047 -0.1042 -0.1884
73052W        W16146  19.095  13.061  20.463 -0.0623 -0.1428  0.0616
73053W        W16147  15.513  12.254  20.244  0.1738  0.0469 -0.1906
73054W        W16148  17.224  11.805  21.444 -0.3299 -0.0003  0.1740
73055W        W16149  14.957  12.431  22.799 -0.0975 -0.3476 -0.1289
73056W        W16150  16.575  13.239  21.182  0.1378 -0.2408  0.0686
73057W        W16151  18.027  12.016  18.489 -0.1280  0.0100  0.1950
73058W        W16152  17.473  12.285  20.404 -0.0482  0.1192 -0.3696
73059W        W16153  15.654  11.343  21.812 -0.1309 -0.0282  0.3912
73060W        W16154  16.954  13.761  19.742  0.1173  0.4624  0.0812
73061W        W16155  17.306  11.243  21.321 -0.1028  0.1434  0.2363
73062W        W16156  17.333  12.541  20.898 -0.0473  0.1709  0.2195
73063W        W16157  16.885  11.861  20.548 -0.0200 -0.0258  0.0829
73064W        W16158  16.890  12.194  21.078  0.1356  0.1431 -0.2373
73065W        W16159  13.461  11.539  23.844  0.0919 -0.1213 -0.2846
73066W        W16160  18.685   9.921  19.509 -0.0419  0.3796 -0.3349
73067W        W16161  17.445  12.679  21.433  0.0624  0.0080  0.1679
73068W        W16162  18.109  12.173  18.951 -0.4434  0.0205  0.2574
73069W        W16163  17.538  10.590  19.699 -0.0461 -0.0234 -0.0712
73070W        W16164  14.239  10.363  22.403  0.1991  0.2115  0.2221
73071W        W16165  17.058  12.137  22.432  0.0499  0.2634 -0.2066
73072W        W16166  15.813  11.485  20.400 -0.1339 -0.0587 -0.0003
73073W        W16167  16.619  11.046  22.173 -0.0448 -0.0281  0.2922
73074W        W16168  17.517  14.171  18.109  0.1640  0.0259  0.1769
73075W        W16169  17.094  12.933  19.231  0.1464  0.2360  0.2801
73076W        W16170  16.717  10.622  19.871  0.1709 -0.1984 -0.0978
73077W        W16171  15.332  11.320  20.506  0.1055  0.0808  0.1103
73078W        W16172  15.580  14.072  19.728  0.3705  0.0417  0.0072
73079W        W16173  15.449  10.304  19.467 -0.0196  0.0901  0.4148
73080W        W16174  15.613  11.641  19.128  0.1704 -0.0151  0.3638
73081W        W16175  16.914  13.415  20.772  0.0178  0.0614  0.2451
73082W        W16176  17.590  12.250  21.268 -0.0166  0.1872 -0.1526
73083W        W16177  16.548  10.107  20.218  0.1123 -0.0176 -0.1556
73084W        W16178  19.240  11.070  21.597 -0.2265 -0.0862  0.0299
73085W        W16179  15.400  12.776  20.482 -0.0159 -0.0918  0.1642
73086W        W16180  16.760  10.427  20.775  0.0706 -0.0088 -0.3114
73087W        W16181  15.617  13.636  19.984 -0.0749  0.0504 -0.2361
73088W        W16182  14.621  12.143  21.197 -0.1900  0.2078  0.0158
73089W        W16183  16.325  12.535  19.981  0.3173 -0.4237 -0.2516
73090W        W16184  19.470  12.415  22.142 -0.1212  0.1796  0.0626
73091W        W16185  16.981  12.431  20.527 -0.1550  0.2937 -0.1092
73092W        W16186  16.398  11.301  21.473  0.0636 -0.2807  0.3581
73093W        W16187  19.472  11.996  21.379  0.2932  0.1101 -0.0942
73094W        W16188  16.480  13.262  20.111 -0.0435 -0.2962  0.2245
73095W        W16189  14.985  12.664  21.907 -0.0176 -0.0631  0.0468
73096W        W16190  15.850  12.637  20.724  0.1584 -0.1070  0.0422
73097W        W16191  18.088  13.308  18.425 -0.0071  0.4100  0.3219
73098W        W16192  13.513  13.080  20.961  0.0754  0.0156  0.1425
73099W        W16193  14.190  11.185  21.917 -0.0679 -0.2747  0.1894
73100W        W16194  16.820  12.918  20.914 -0.3980  0.0102 -0.0268
73101W        W16195  16.304  12.400  22.032  0.2385 -0.0758 -0.2659
73102W        W16196  15.046  10.678  19.811 -0.3127  0.1257  0.2388
73103W        W16197  15.471  14.254  18.432  0.2401  0.1007  0.0231
73104W        W16198  14.912  13.587  22.107 -0.1293 -0.1147 -0.0803
73105W        W16199  16.577  11.574  20.829 -0.0780  0.3818  0.0159
73106W        W16200  14.165  13.630  17.991 -0.0705  0.2206 -0.1321
73107W        W16201  18.601  12.412  18.373 -0.0765 -0.1066  0.1782
73108W        W16202  17.329  14.028  18.569  0.2332 -0.1127  0.0408
73109W        W16203  17.972  13.676  19.337  0.3741 -0.2070 -0.0529
73110W        W16204  16.331  11.743  19.237 -0.0901  0.0138  0.2618
73111W        W16205  15.826  14.483  19.602 -0.1700 -0.0108 -0.0910
73112W        W16206  14.837  12.536  18.102 -0.0038  0.1789 -0.3583
73113W        W16207  17.288  12.853  17.963  0.0285 -0.0127  0.0463
73114W        W16208  14.218  12.820  20.728 -0.0463  0.3617  0.0248
73115W        W16209  17.988  12.826  21.996  0.0583  0.1990 -0.1194
73116W        W16210  17.251   9.292  19.568 -0.1452 -0.1245 -0.2824
73117W        W16211  18.807  11.206  21.338 -0.2652 -0.1673  0.1787
73118W        W16212  19.910  11.388  20.307  0.2517  0.1601 -0.0265
73119W        W16213  17.291  13.763  20.545  0.1455  0.0808  0.0944
73120W        W16214  15.555  12.362  21.257  0.4497 -0.1549  0.2013
73121W        W16215  14.830   8.975  19.810  0.2937 -0.1244 -0.2341
73122W        W16216  15.511  12.773  21.924 -0.2053 -0.0474 -0.1280
73123W        W16217  18.957   9.988  23.672  0.0115  0.1698  0.2075
73124W        W16218  14.203  15.036  20.482 -0.0733 -0.2819  0.0524
73125W        W16219  18.336  13.499  19.033 -0.2001 -0.1539 -0.0597
73126W        W16220  13.765  10.878  21.136  0.2295  0.4312  0.0050
73127W        W16221  15.254  11.975  21.141 -0.2827 -0.2635  0.0066
73128W        W16222  18.919  11.754  22.148 -0.0933 -0.0766  0.0650
73129W        W16223  17.049  12.342  19.133 -0.3866 -0.0634  0.0439
73130W        W16224  16.249  11.721  20.337 -0.1729 -0.0842 -0.0212
73131W        W16225  16.024  13.843  18.508 -0.2931 -0.1490 -0.0712
73132W        W16226  16.205  12.836  20.989 -0.3128  0.1529 -0.0529
73133W        W16227  14.772  12.983  20.811 -0.1521  0.1664 -0.0736
73134W        W16228  13.092  11.140  19.726  0.0819 -0.0304  0.0983
73135W        W16229  17.759  11.481  20.041  0.0566  0.0789 -0.3717
73136W        W16230  14.588  12.115  22.935  0.1559 -0.1847  0.2248
73137W        W16231  18.176  11.261  22.618  0.1617 -0.0743 -0.1240
73138W        W16232  14.883  11.674  20.412  0.0560  0.3057 -0.0081
73139W        W16233  17.282  12.078  20.815  0.0056  0.0526 -0.2478
73140W        W16234  14.676  12.478  21.606 -0.2315 -0.2551 -0.1683
73141W        W16235  16.233  11.801  22.722 -0.0449  0.0354  0.1292
73142W        W16236  15.633  10.631  19.118  0.1269 -0.1143 -0.0751
73143W        W16237  17.178  10.947  22.982  0.0651  0.4029 -0.0082
73144W        W16238  16.397  10.182  19.574 -0.2324 -0.0564 -0.4430
73145W        W16239  14.985  10.526  21.766 -0.1836 -0.0826  0.1543
73146W        W16240  16.636  12.241  20.226  0.0768  0.2994 -0.0023
73147W        W16241  14.837  11.613  21.303  0.3245 -0.2755 -0.0128
73148W        W16242  15.908  11.452  22.730 -0.0030 -0.0819  0.0764
73149W        W16243  17.386  13.626  21.085 -0.0366 -0.0536 -0.5251
73150W        W16244  14.429  10.182  21.896  0.0893 -0.0164  0.0541
73151W        W16245  17.531  12.746  17.494 -0.1135 -0.3414 -0.0205
73152W        W16246  17.956  11.274  21.111  0.3116 -0.1117  0.1932
73153W        W16247  14.910  15.248  18.394  0.0932  0.0896 -0.2393
73154W        W16248  18.475  12.487  19.847  0.5067  0.2875 -0.0868
73155W        W16249  17.001  13.702  18.595  0.0542 -0.3188  0.1146
73156W        W16250  13.320  11.551  21.752 -0.2097 -0.1764 -0.1212
73157W        W16251  17.212  13.419  19.449 -0.0005  0.0070  0.1031
73158W        W16252  18.740  13.068  20.866 -0.0432  0.1253  0.1900
73159W        W16253  16.329  10.656  20.854  0.0922 -0.1641 -0.0241
73160W        W16254  14.959  11.932  22.605 -0.0146  0.2309 -0.0627
73161W        W16255  14.807  13.725  18.457  0.0429  0.0399  0.0255
73162W        W16256  18.258  10.636  22.586  0.0242  0.2193  0.4691
73163W        W16257  17.603  10.719  21.838 -0.1741 -0.1185 -0.4022
73164W        W16258  15.482  13.240  17.732 -0.0832 -0.4982  0.1734
73165W        W16259  17.223  10.321  20.741  0.1537  0.0362  0.0355
73166W        W16260  16.079  13.243  21.325  0.2001  0.1796 -0.1010
73167W        W16261  15.161  13.429  22.598 -0.1331  0.2593  0.0971
73168W        W16262  15.107  11.669  19.468  0.1949  0.0871 -0.2355
73169W        W16263  15.946  12.931  22.052  0.1218  0.1839  0.3779
73170W        W16264  16.977  12.880  19.742  0.1338  0.0696  0.0905
73171W        W16265  15.598  13.033  19.387 -0.3241  0.0057  0.0409
73172W        W16266  17.651  12.472  19.929 -0.2346  0.0651  0.2219
73173W        W16267  15.816  12.303  19.795 -0.2075 -0.1393 -0.0050
73174W        W16268  18.674  11.594  19.119 -0.0030 -0.2053 -0.4662
73175W        W16269  15.465  10.188  19.974 -0.1181 -0.3312 -0.2200
73176W        W16270  18.111  10.408  20.558 -0.1688 -0.0663  0.1033
73177W        W16271  16.980  11.315  21.688  0.0178  0.1239 -0.1710
73178W        W16272  14.470  12.667  21.126  0.0347 -0.4265 -0.0982
73179W        W16273  14.040  10.534  20.180 -0.0674 -0.0361  0.0433
73180W        W16274  15.236  13.842  18.166 -0.0950 -0.2569 -0.0323
73181W        W16275  15.911  13.178  19.838 -0.0825  0.0120 -0.1568
73182W        W16276  16.979  10.919  22.548 -0.1082 -0.1931  0.3102
73183W        W16277  15.148  10.655  22.628 -0.1556 -0.2671 -0.2202
73184W        W16278  15.348  13.132  19.939  0.1608 -0.3231  0.2817
73185W        W16279  15.267  11.443  21.457  0.0347  0.0545 -0.0179
73186W        W16280  18.729  13.531  18.673  0.1479  0.0031  0.0982
73187W        W16281  15.569  11.061  21.257  0.0484 -0.0642  0.2551
73188W        W16282  14.290  10.945  20.898 -0.0838 -0.2862 -0.2387
73189W        W16283  18.073  12.498  18.595  0.0825  0.2589  0.1557
73190W        W16284  19.394  13.167  18.886 -0.2230  0.1904  0.2048
73191W        W16285  17.113  10.791  21.065 -0.0915 -0.2598 -0.0308
73192W        W16286  19.379  14.459  23.063  0.0639  0.1409  0.1488
73193W        W16287  14.597  13.620  19.541 -0.0033 -0.2594  0.0953
73194W        W16288  17.078  10.860  22.034 -0.3554 -0.1570 -0.1269
73195W        W16289  15.574  10.898  23.302 -0.1316 -0.0633 -0.0706
73196W        W16290  14.392  10.141  19.384 -0.0746  0.1432 -0.0383
73197W        W16291  16.925  11.070  19.490 -0.0387  0.2847 -0.3840
73198W        W16292  17.710  12.881  18.800 -0.0200  0.2727  0.2191
73199W        W16293  16.758  14.345  17.358 -0.2794  0.1693  0.1442
73200W        W16294  15.028  13.077  20.312  0.0482 -0.1491 -0.1279
73201W        W16295  15.723  12.843  21.214  0.0438  0.0468  0.0877
73202W        W16296  13.852  10.160  22.638  0.2710 -0.0055  0.0619
73203W        W16297  15.944  12.729  19.598  0.2136 -0.1573 -0.0624
73204W        W16298  15.277  13.776  20.628 -0.0860  0.0100 -0.0180
73205W        W16299  19.434  10.815  18.900 -0.0301  0.0024 -0.2439
73206W        W16300  18.040  10.075  21.165 -0.3437  0.0872  0.1199
73207W        W16301  17.103  12.049  20.179 -0.0556 -0.0556 -0.1016
73208W        W16302  14.480  10.783  23.316  0.0567  0.0542 -0.3971
73209W        W16303  14.216  13.052  22.372 -0.0979  0.0695  0.0215
73210W        W16304  17.822  12.625  21.110 -0.1467 -0.2350  0.3329
73211W        W16305  15.025  11.501  20.874 -0.0676  0.0476  0.1043
73212W        W16306  17.320  11.697  20.539  0.0445 -0.1087 -0.0000
73213W        W16307  16.651  13.944  17.619 -0.1281  0.0945  0.1902
73214W        W16308  14.590  11.247  22.236 -0.2051  0.1782  0.4439
73215W        W16309  17.886   9.506  18.919 -0.0926  0.2397  0.1805
73216W        W16310  16.062  11.569  20.820 -0.0497 -0.0833 -0.0089
73217W        W16311  16.544  13.996  20.010  0.0287  0.4199 -0.0269
73218W        W16312  17.436  13.039  21.076 -0.0247  0.0688  0.1466
73219W        W16313  15.878  12.294  19.238  0.0738  0.3036 -0.1872
73220W        W16314  17.241  11.990  18.661 -0.1985  0.2019 -0.2608
73221W        W16315  17.643  13.271  19.718  0.0307  0.4778  0.1876
73222W        W16316  17.827  13.578  20.711  0.1651  0.3860 -0.0117
73223W        W16317  16.216  13.642  19.170  0.2421  0.0403  0.1395
73224W        W16318  18.271  12.042  20.596 -0.0663 -0.1302  0.1120
73225W        W16319  14.670  11.317  21.700  0.1379 -0.0363  0.3321
73226W        W16320  14.641  11.460  20.062  0.1346  0.0381 -0.2089
73227W        W16321  16.110  12.862  20.376  0.1610 -0.0345  0.2811
73228W        W16322  18.411  10.968  22.215 -0.1166  0.1477 -0.0678
73229W        W16323  15.921  11.520  21.282  0.1707  0.1305  0.2502
73230W        W16324  16.233  10.230  20.636  0.0860  0.0979 -0.3843
73231W        W16325  16.309  14.139  19.015 -0.1458  0.0044 -0.1013
73232W        W16326  16.403  12.821  21.514  0.1814  0.1519  0.3444
73233W        W16327  15.196  13.530  25.498 -0.1166 -0.3198  0.1232
73234W        W16328  15.524  10.838  23.960  0.5881 -0.1232  0.1075
73235W        W16329  17.095  11.330  22.189 -0.2278 -0.2550  0.0723
73236W        W16330  18.633  12.022  23.269 -0.1040  0.1382  0.3277
73237W        W16331  15.226  11.433  24.544  0.3987 -0.0233  0.3049
73238W        W16332  17.593  12.100  22.214 -0.0772  0.1908 -0.3070
73239W        W16333  13.870  10.942  26.075 -0.1528 -0.3466 -0.0886
73240W        W16334  17.766  13.772  23.008  0.1619 -0.2810 -0.2794
73241W        W16335  19.326  13.952  23.087  0.2781 -0.1900  0.0988
73242W        W16336  16.782  12.103  21.997 -0.1591 -0.0989 -0.0938
73243W        W16337  16.988  11.830  25.029  0.2253 -0.5104  0.1774
73244W        W16338  16.783  13.223  23.481 -0.0568  0.2848  0.0370
73245W        W16339  16.143  10.233  22.570  0.1524  0.0316  0.3103
73246W        W16340  14.631  10.445  25.733  0.1427 -0.1112 -0.2680
73247W        W16341  17.871  12.780  25.191 -0.1490  0.1420  0.2395
73248W        W16342  15.166  11.777  23.373  0.2362 -0.1991 -0.0680
73249W        W16343  16.525  11.656  25.116  0.2563  0.0038 -0.2822
73250W        W16344  16.781  11.311  23.246  0.3356 -0.0477  0.2641
73251W        W16345  17.319  12.550  22.417  0.0911  0.0501 -0.1118
73252W        W16346  15.754  11.848  27.322  0.1047 -0.0440 -0.1400
73253W        W16347  16.391  11.058  27.496 -0.4960 -0.2951 -0.4700
73254W        W16348  15.966  12.799  23.698 -0.0470  0.0470 -0.1377
73255W        W16349  14.685  11.854  23.552 -0.2024 -0.2910  0.1777
73256W        W16350  15.872  12.513  25.440 -0.1405  0.3889 -0.1478
73257W        W16351  16.677  11.912  25.501 -0.1610  0.0392  0.3448
73258W        W16352  17.807  11.657  24.006 -0.2044 -0.1427  0.1689
73259W        W16353  18.599  13.805  24.553 -0.2276 -0.1753 -0.2408
73260W        W16354  16.480  12.801  23.531  0.0130 -0.0292  0.0467
73261W        W16355  15.810  13.370  22.016 -0.0787 -0.0268 -0.0317
73262W        W16356  17.822  12.447  26.995 -0.0722  0.0740  0.0029
73263W        W16357  14.987  12.207  24.172 -0.2411  0.1833  0.1356
73264W        W16358  13.912  13.401  24.068 -0.1157 -0.1293 -0.1422
73265W        W16359  16.165  13.346  22.366  0.0519  0.2913 -0.1572
73266W        W16360  18.390  13.330  23.939  0.0498 -0.3404  0.2809
73267W        W16361  18.722  13.646  25.151 -0.1261 -0.1437 -0.1118
73268W        W16362  16.043  13.842  24.291  0.1762 -0.1495 -0.2060
73269W        W16363  15.232  13.096  22.190 -0.0988 -0.0786 -0.2155
73270W        W16364  17.545  13.876  23.461 -0.0565  0.0508 -0.2118
73271W        W16365  15.766  13.310  23.839 -0.0923  0.0928 -0.1173
73272W        W16366  16.477  12.265  24.365 -0.0656  0.1495  0.2583
73273W        W16367  16.802  12.768  24.456  0.0714 -0.0585 -0.0070
73274W        W16368  16.318  11.368  22.983 -0.0225 -0.1500 -0.0801
73275W        W16369  16.596  11.153  24.955 -0.3067  0.2841  0.0168
73276W        W16370  15.743  13.485  25.698  0.0160  0.2062  0.0804
73277W        W16371  16.269  13.485  23.275 -0.0983  0.1739 -0.1332
73278W        W16372  18.291  10.119  27.984  0.2971 -0.0189  0.2608
73279W        W16373  14.379  11.326  22.817  0.1159  0.2230 -0.4950
73280W        W16374  18.066  11.399  23.078  0.3634 -0.3569  0.1325
73281W        W16375  15.766  11.234  22.299 -0.0474 -0.3964  0.0048
73282W        W16376  18.294  12.903  24.372  0.3115  0.0237  0.1247
73283W        W16377  16.492  11.234  24.399  0.2509  0.0855  0.1039
73284W        W16378  15.669  13.606  22.532 -0.0988  0.1589  0.3174
73285W        W16379  15.789  11.096  26.919  0.1134 -0.0486 -0.1163
73286W        W16380  18.653  12.500  23.594  0.1523 -0.0861  0.2580
73287W        W16381  16.121  10.982  24.858 -0.0296  0.0185 -0.0578
73288W        W16382  17.729  12.321  25.003 -0.3363  0.0901 -0.1968
73289W        W16383  15.473  13.522  24.976  0.0239  0.2109 -0.0337
73290W        W16384  15.431  12.120  24.631 -0.3358 -0.2466 -0.0612
73291W        W16385  16.923  13.747  21.422 -0.0171 -0.0352 -0.2222
73292W        W16386  18.794  13.379  22.872  0.2852 -0.0156  0.0238
73293W        W16387  16.085  12.404  21.155  0.2369  0.2383  0.1079
73294W        W16388  16.902  10.961  24.571  0.0110  0.2559  0.0423
73295W        W16389  15.260  13.400  25.966 -0.1309 -0.3895 -0.1470
73296W        W16390  16.412  12.359  25.323 -0.0741 -0.0929  0.1499
73297W        W16391  14.501  11.923  24.121  0.0657 -0.2492  0.0051
73298W        W16392  18.412  12.870  27.594  0.1189  0.1070 -0.0923
73299W        W16393  13.292  13.306  24.355 -0.0115  0.0588 -0.3540
73300W        W16394  17.345  10.685  25.490  0.0604 -0.2311  0.0270
73301W        W16395  14.978  12.732  23.774 -0.2227  0.0280  0.0779
73302W        W16396  18.056  13.312  23.570  0.1472 -0.2277 -0.0125
73303W        W16397  17.831  13.580  22.485  0.3315  0.0411 -0.0188
73304W        W16398  17.934   9.822  24.494 -0.0142  0.2468 -0.0412
73305W        W16399  18.826  13.831  23.145 -0.1333 -0.1126  0.2740
73306W        W16400  15.895  11.763  22.294 -0.0856  0.1070 -0.0210
73307W        W16401  16.712  11.717  22.905  0.1172  0.0779  0.0673
73308W        W16402  19.354  13.620  25.457  0.0779  0.2112 -0.1270
73309W        W16403  18.718  12.389  22.716 -0.0594 -0.3316 -0.0738
73310W        W16404  16.518  13.541  22.734 -0.2699 -0.1398  0.2583
73311W        W16405  15.655  12.038  26.335 -0.2575 -0.3154 -0.1164
73312W        W16406  16.222  12.961  25.327  0.1444  0.1043 -0.1017
73313W        W16407  14.725  13.092  21.987  0.4991  0.0074  0.0267
73314W        W16408  14.881  12.722  25.275  0.2111  0.2149 -0.0965
73315W        W16409  15.807  13.214  23.371  0.0806 -0.1656  0.0341
73316W        W16410  15.598  10.703  26.474 -0.2000 -0.0544  0.3698
73317W        W16411  16.965  13.280  24.281  0.0054 -0.0682 -0.0713
73318W        W16412  17.689  11.392  24.990 -0.2214  0.0351 -0.2712
73319W        W16413  14.532  11.606  26.925 -0.0576  0.3274  0.1698
73320W        W16414  18.915   8.208  25.688 -0.1200  0.4158 -0.0956
73321W        W16415  16.274  11.475  24.006  0.0808 -0.0030  0.4152
73322W        W16416  19.052  14.218  22.739 -0.2389  0.3051  0.1790
73323W        W16417  17.730  11.404  23.528  0.0355 -0.0111  0.1428
73324W        W16418  18.075  11.782  21.472 -0.1164  0.2494 -0.0737
73325W        W16419  14.743  11.008  25.871  0.1319 -0.1758 -0.0227
73326W        W16420  16.403  10.699  25.257 -0.0713 -0.1169  0.2647
73327W        W16421  13.818  12.427  28.389  0.2400  0.2036  0.1496
73328W        W16422  15.105  10.261  25.717  0.1392 -0.0700 -0.0801
73329W        W16423  19.204  11.744  26.893 -0.0546  0.0855  0.4190
73330W        W16424  15.551  11.724  24.840  0.0442 -0.1274  0.1871
73331W        W16425  16.843  12.664  23.172 -0.2276 -0.0656  0.0096
73332W        W16426  15.962  11.562  25.209 -0.0130  0.0084 -0.1954
73333W        W16427  14.556  12.914  22.780  0.1474 -0.3687 -0.2406
73334W        W16428  16.796  10.863  27.296 -0.0278  0.3933  0.1535
73335W        W16429  16.379  14.367  22.035  0.0304 -0.0239  0.5252
73336W        W16430  18.463  14.231  25.480 -0.1634  0.4147 -0.0902
73337W        W16431  18.577  13.620  21.665 -0.1035 -0.4670  0.1832
73338W        W16432  15.446  12.288  26.764  0.2674  0.1700  0.2941
73339W        W16433  15.181  12.007  25.060 -0.0850 -0.0500  0.3926
73340W        W16434  15.088  14.324  22.639 -0.1810 -0.1384 -0.1086
73341W        W16435  15.624  13.042  22.508  0.2894 -0.2170 -0.0099
73342W        W16436  16.550  12.126  22.579 -0.0120 -0.2326 -0.0794
73343W        W16437  17.873  13.199  22.982  0.1700  0.1164  0.0969
73344W        W16438  17.475  11.836  23.579  0.2414 -0.0782 -0.0637
73345W        W16439  15.890  13.595  24.734 -0.1459  0.1455 -0.2356
73346W        W16440  16.708  10.350  26.401 -0.0356  0.0707  0.1992
73347W        W16441  18.146  12.263  26.095 -0.3637  0.0357 -0.2267
73348W        W16442  17.106  12.811  23.571 -0.0601  0.0586 -0.0216
73349W        W16443  14.762  10.523  23.600  0.2268  0.0453 -0.3044
73350W        W16444  15.822  13.624  23.067  0.4665 -0.1246 -0.1424
73351W        W16445  15.738  11.970  22.778 -0.0820  0.0181 -0.1661
73352W        W16446  15.661  12.243  25.078 -0.0814 -0.1055  0.0951
73353W        W16447  16.758  12.388  23.559 -0.2154  0.0353 -0.1283
73354W        W16448  17.846  13.135  24.152 -0.2653 -0.0524  0.0772
73355W        W16449  15.548  12.519  26.323  0.1622 -0.2148 -0.2863
73356W        W16450  16.149  11.254  26.093 -0.1217 -0.0207 -0.1369
73357W        W16451  16.814  11.696  22.346  0.1445 -0.0611  0.0387
73358W        W16452  15.047  13.031  25.688 -0.1938 -0.0235 -0.1959
73359W        W16453  17.254  11.168  23.415  0.1895  0.1449 -0.0134
73360W        W16454  17.458  10.573  23.106  0.2025  0.0407 -0.1712
73361W        W16455  17.201  11.811  26.090  0.2250  0.2786  0.0876
73362W        W16456  17.093  11.851  23.250 -0.1424  0.0268 -0.1149
73363W        W16457  17.152  11.448  22.849  0.1973 -0.0266  0.3451
73364W        W16458  15.932  10.311  22.128 -0.2419  0.1035  0.0793
73365W        W16459  14.822  14.462  24.365 -0.1028 -0.2039  0.0174
73366W        W16460  16.141  12.253  22.902  0.1444  0.1489 -0.0345
73367W        W16461  17.369  12.702  25.066  0.0182 -0.1352  0.0230
73368W        W16462  14.558  11.373  24.047 -0.0185 -0.2317 -0.0816
73369W        W16463  17.555  12.993  22.206  0.1526  0.0620 -0.4650
73370W        W16464  15.031  12.405  26.426  0.1643  0.3176  0.2369
73371W        W16465  17.238  13.008  24.601  0.1768  0.1477  0.1657
73372W        W16466  16.493  12.589  22.879  0.1382  0.2475 -0.1400
73373W        W16467  15.151  11.303  25.643  0.1407  0.1348  0.2061
73374W        W16468  15.409  11.900  23.831  0.0613  0.1382  0.2439
73375W        W16469  17.760  12.772  24.658 -0.1171  0.0731  0.2259
73376W        W16470  13.969  11.587  22.883  0.3276 -0.0062  0.1079
73377W        W16471  18.213  11.575  24.346  0.0888  0.2255 -0.2465
73378W        W16472  16.712  11.431  25.931 -0.3083 -0.0282 -0.0322
73379W        W16473  16.598  12.741  24.977 -0.1072 -0.2511  0.2876
73380W        W16474  17.559  13.799  26.303  0.1754  0.1068 -0.2670
73381W        W16475  18.466  11.869  23.870 -0.2479 -0.0241  0.0001
73382W        W16476  18.986  13.099  25.013 -0.0852  0.0282 -0.2189
73383W        W16477  14.966  11.356  23.740 -0.2341 -0.0061 -0.1270
73384W        W16478  17.345  11.033  24.694  0.0173 -0.0767  0.0493
73385W        W16479  15.693  12.220  28.199  0.0235  0.0966  0.1317
73386W        W16480  13.614  14.356  25.365 -0.3143  0.0115  0.1294
73387W        W16481  17.899  12.135  24.005 -0.2269  0.1671  0.0808
73388W        W16482  17.053  12.934  22.784  0.2421  0.2285 -0.1226
73389W        W16483  16.472   9.997  26.769 -0.0189 -0.0282 -0.1651
73390W        W16484  17.125  10.201  23.248  0.0297 -0.0887 -0.1246
73391W        W16485  15.341  12.736  21.491 -0.0540 -0.3003 -0.0820
73392W        W16486  15.834  11.298  23.275 -0.0452 -0.5639 -0.0627
73393W        W16487  15.759  10.635  24.775  0.0891  0.0708  0.0786
73394W        W16488  16.744  12.540  22.337 -0.1437 -0.0782  0.0605
73395W        W16489  16.116  12.751  22.496 -0.0442  0.1995  0.0556
73396W        W16490  18.678  14.586  25.704 -0.0061 -0.2353 -0.1541
73397W        W16491  15.468  12.743  23.113  0.2039  0.0368 -0.0562
73398W        W16492  18.945  12.048  24.856  0.1259 -0.0573 -0.0485
73399W        W16493  14.590  13.986  24.073 -0.2002  0.1107 -0.0144
73400W        W16494  13.979  12.051  21.840  0.0787 -0.3030  0.2399
73401W        W16495  15.626  12.295  24.139 -0.0654 -0.1590 -0.1623
73402W        W16496  17.552   9.972  24.699  0.0234  0.0527 -0.1648
73403W        W16497  17.110  13.539  21.828 -0.3881  0.0597  0.0057
73404W        W16498  15.474  11.120  25.994  0.0132 -0.0373 -0.2259
73405W        W16499  16.813  10.712  24.992 -0.1131  0.0548  0.1146
73406W        W16500  15.062  14.046  24.287 -0.0062 -0.1037 -0.1385
73407W        W16501  17.983  13.216  24.708  0.1260 -0.3645 -0.1056
73408W        W16502  16.934  10.484  22.880 -0.2225 -0.0671 -0.0316
73409W        W16503  18.633  12.758  24.017  0.2480 -0.2252 -0.2678
73410W        W16504  16.081  12.561  25.006 -0.1936  0.0467  0.1348
73411W        W16505  15.010  11.822  25.633 -0.1987  0.0936  0.1384
73412W        W16506  17.546  11.858  25.162 -0.1147 -0.0962  0.1639
73413W        W16507  15.659  11.766  24.327 -0.2397 -0.0682 -0.0602
73414W        W16508  15.247  13.306  23.469  0.0570  0.2707  0.2464
73415W        W16509  17.092  13.549  23.147  0.0181  0.0441 -0.0406
73416W        W16510  15.636  11.826  23.279  0.3509 -0.4131 -0.2497
73417W        W16511  15.743  12.785  24.163  0.1011 -0.1716  0.0794
73418W        W16512  16.507  13.213  26.407  0.1977 -0.2806  0.1331
73419W        W16513  18.556  13.459  23.385  0.0526 -0.0688  0.3063
73420W        W16514  16.436  11.205  25.496 -0.0281 -0.3820 -0.0207
73421W        W16515  16.661  12.456  26.294 -0.0339 -0.1202  0.1442
73422W        W16516  17.690  12.543  24.229  0.2142 -0.1345  0.0215
73423W        W16517  16.448  13.068  23.100 -0.0352 -0.1223 -0.2194
73424W        W16518  16.972  12.023  24.448 -0.0847  0.1344  0.0764
73425W        W16519  14.858  13.080  26.733  0.0529  0.1876  0.0176
73426W        W16520  15.976  11.045  25.353  0.0958 -0.1260  0.2450
73427W        W16521  18.228  14.006  21.758 -0.2152 -0.3371  0.0171
73428W        W16522  16.936  12.328  25.174 -0.0776  0.0071 -0.2290
73429W        W16523  15.721  12.467  22.670 -0.0433  0.0218  0.1658
73430W        W16524  15.191  11.480  25.068  0.0271 -0.1540  0.3184
73431W        W16525  15.997  12.030  25.396 -0.2266  0.0031 -0.0284
73432W        W16526  15.881  13.009  25.686 -0.2652  0.1648 -0.1262
73433W        W16527  16.577  12.228  24.851 -0.1336  0.3505  0.1937
73434W        W16528  14.154  13.008  23.141 -0.0470 -0.2291 -0.0814
73435W        W16529  14.916  13.574  24.305 -0.5205  0.0833  0.0527
73436W        W16530  17.116  11.228  24.227  0.1490 -0.0384 -0.2932
73437W        W16531  17.039  12.235  21.548  0.0710  0.0810  0.0344
73438W        W16532  17.274  11.732  24.152 -0.0567 -0.3733 -0.0303
73439W        W16533  19.481  11.088  25.993  0.4036  0.1350 -0.1092
73440W        W16534  17.703  12.338  23.118 -0.2675  0.0538 -0.2168
73441W        W16535  17.470  10.785  26.967  0.0630  0.3551 -0.0698
73442W        W16536  14.429  11.658  28.568 -0.2689 -0.0112  0.0703
73443W        W16537  17.467  13.305  22.718  0.4438 -0.1548  0.1206
73444W        W16538  16.426  12.893  25.879  0.0887 -0.0603  0.0679
73445W        W16539  17.304  12.163  24.870  0.0086  0.2770 -0.1118
73446W        W16540  16.203  11.308  26.844 -0.0070 -0.2643 -0.0620
73447W        W16541  17.540  11.653  23.110 -0.1626  0.0391  0.1518
73448W        W16542  15.866  11.119  23.776 -0.0091  0.1848 -0.2547
73449W        W16543  16.295  13.251  23.698  0.1706  0.0931 -0.2131
73450W        W16544  18.110  12.783  23.846  0.0110  0.1452 -0.0552
73451W        W16545  16.964  12.401  24.083 -0.0638 -0.1629  0.0346
73452W        W16546  18.888  11.669  24.432 -0.1009 -0.3111  0.3324
73453W        W16547  15.254  12.137  25.986  0.0439  0.0039 -0.2152
73454W        W16548  17.875  13.672  24.412 -0.0003 -0.3119  0.0881
73455W        W16549  15.846  12.192  23.727  0.0820  0.1866  0.0834
73456W        W16550  16.139  11.894  24.908 -0.1625  0.2433  0.0895
73457W        W16551  14.436  10.544  27.823  0.2065 -0.2715 -0.1733
73458W        W16552  18.090  13.813  23.530 -0.1322  0.0620  0.0856
73459W        W16553  17.102  11.263  25.032  0.0048 -0.1839 -0.1947
73460W        W16554  17.329  11.579  24.626 -0.1342 -0.2818 -0.0948
73461W        W16555  17.952  12.118  25.435 -0.3798  0.1947  0.1596
73462W        W16556  15.622  13.140  27.504  0.0117 -0.0099 -0.0167
73463W        W16557  13.268  12.159  26.106 -0.1550 -0.0384 -0.0167
73464W        W16558  16.771  13.666  24.628 -0.2533 -0.0094  0.0668
73465W        W16559  18.280  12.205  22.959 -0.2799 -0.2236  0.0894
73466W        W16560  16.855  11.064  26.751  0.0795  0.1409  0.0936
73467W        W16561  18.834  11.739  25.461  0.2040 -0.1320  0.2256
73468W        W16562  17.536  12.509  21.931 -0.3049 -0.1345 -0.0311
73469W        W16563  15.731  11.289  24.839  0.2538  0.0714  0.0174
73470W        W16564  18.646  12.974  24.696  0.0662 -0.0613  0.1568
73471W        W16565  15.159  10.914  23.613  0.0927  0.1865  0.1395
73472W        W16566  16.703   9.981  27.229 -0.3090 -0.1120 -0.1858
73473W        W16567  16.077  13.883  21.867 -0.0907  0.0330 -0.0767
73474W        W16568  17.003  13.139  22.167  0.0087 -0.0084  0.0760
73475W        W16569  17.469  12.857  23.149 -0.0151  0.1682 -0.1455
73476W        W16570  14.820  10.108  25.343 -0.0529  0.0987  0.2313
73477W        W16571  14.177  11.792  24.550 -0.1908 -0.2198  0.0371
73478W        W16572  16.172  12.489  24.040 -0.1762 -0.2300  0.1139
73479W        W16573  16.265  12.406  23.368 -0.1943 -0.0113 -0.2845
73480W        W16574  18.267  12.781  26.004 -0.0580  0.1465 -0.0326
73481W        W16575  16.603  11.782  24.197 -0.0367  0.0721  0.2554
73482W        W16576  18.488  11.510  27.712 -0.0196 -0.1425  0.2439
73483W        W16577  14.966  12.699  23.225 -0.0534 -0.1963 -0.2480
73484W        W16578  17.744  12.475  23.680  0.1366 -0.0084  0.1691
73485W        W16579  15.222  13.887  22.392 -0.2529  0.1842 -0.2343
73486W        W16580  14.689  11.415  25.541  0.0523 -0.0935  0.2024
73487W        W16581  15.748  12.294  23.194 -0.1893 -0.4474 -0.0914
73488W        W16582  18.608  12.451  24.592 -0.1311 -0.0013 -0.2563
73489W        W16583  18.023  11.635  25.965  0.0462 -0.1977 -0.1525
73490W        W16584  17.409  12.169  23.929  0.0295 -0.0597  0.2422
73491W        W16585  18.357  13.297  26.134  0.0952  0.0722 -0.3713
73492W        W16586  18.120  13.925  24.813 -0.2276 -0.0070 -0.1493
73493W        W16587  16.666  12.769  25.476  0.3841  0.1897 -0.3472
73494W        W16588  16.786  12.967  23.898  0.0167  0.0281  0.2913
73495W        W16589  18.254  12.212  23.537  0.1394 -0.0509  0.0573
73496W        W16590  16.645  12.148  23.147 -0.1525  0.1843 -0.2853
73497W        W16591  14.737  12.114  25.979  0.0830  0.1029  0.0900
73498W        W16592  16.605  11.371  27.094  0.4865 -0.2390 -0.0396
73499W        W16593  17.257  12.848  24.099  0.2484 -0.0496  0.0562
73500W        W16594  15.095  11.036  24.085  0.1410 -0.1162  0.4043
73501W        W16595  16.510  12.873  22.066 -0.0804  0.0129  0.2266
73502W        W16596  14.435  13.877  25.600 -0.1755 -0.1247  0.1351
73503W        W16597  15.832  12.087  25.851  0.0696 -0.2214 -0.1176
73504W        W16598  15.287  14.561  21.232 -0.0729  0.2393 -0.0418
73505W        W16599  17.903  12.407  22.462 -0.0388  0.0674  0.0087
73506W        W16600  16.661  11.013  23.640 -0.4223 -0.1754 -0.1712
73507W        W16601  16.990  13.454  22.637 -0.1951  0.2250  0.1208
73508W        W16602  15.287  10.141  22.548  0.0563 -0.2413  0.0227
73509W        W16603  15.206  12.959  24.902 -0.0718  0.1434 -0.0310
73510W        W16604  14.085  12.129  22.794  0.0940 -0.1017  0.0949
73511W        W16605  17.067  13.225  21.376  0.1501  0.1261 -0.0039
73512W        W16606  15.978  13.181  22.796  0.1244 -0.0970  0.2816
73513W        W16607  18.413  12.579  26.570 -0.1086 -0.2054  0.1739
73514W        W16608  18.001  10.375  23.305 -0.0233 -0.1120  0.2273
73515W        W16609  18.309  12.685  24.969 -0.1386  0.1185  0.2115
73516W        W16610  17.641  11.136  23.106  0.0322  0.0490  0.3473
73517W        W16611  17.978  11.792  26.463 -0.1160  0.2911  0.1647
73518W        W16612  16.857  10.977  25.425  0.3048 -0.2898  0.2911
73519W        W16613  17.026  10.712  23.345 -0.1633  0.2970  0.1075
73520W        W16614  15.457  13.108  27.008  0.1706 -0.1254  0.0026
73521W        W16615  18.469  11.126  27.092  0.4358  0.2343  0.2063
73522W        W16616  13.983  13.612  25.644  0.0927  0.1902  0.0248
73523W        W16617  17.503  14.096  21.451 -0.1225  0.1311  0.1259
73524W        W16618  16.235  10.946  23.384 -0.1209 -0.0765 -0.1462
73525W        W16619  16.824  11.500  24.685 -0.0993 -0.2454 -0.1096
73526W        W16620  18.138  10.986  27.440 -0.3893 -0.2368 -0.2420
73527W        W16621  16.073  12.211  22.439  0.0624 -0.2109  0.0733
73528W        W16622  18.452  11.971  24.413  0.0248 -0.0688  0.0293
73529W        W16623  15.669  13.112  21.635 -0.1823  0.0717 -0.2380
73530W        W16624  15.593  13.689  23.494  0.0473  0.0975  0.2339
73531W        W16625  15.127  13.927  23.370  0.0253  0.4742 -0.0873
73532W        W16626  15.228  12.492  25.025 -0.2061  0.0111 -0.1599
73533W        W16627  19.759  13.113  24.303  0.4061  0.5010 -0.1175
73534W        W16628  17.208  12.017  25.557  0.2782 -0.0496  0.2205
73535W        W16629  19.341  10.419  25.416  0.1655  0.0232 -0.0140
73536W        W16630  15.336  11.676  26.051 -0.0445  0.1248  0.0453
73537W        W16631  18.366  12.371  24.048  0.3424  0.1050  0.2510
73538W        W16632  17.014  13.026  25.070 -0.0817 -0.2541  0.0772
73539W        W16633  15.899  12.937  26.214 -0.0164  0.3543 -0.0873
73540W        W16634  16.655  11.766  23.476 -0.1442  0.1674  0.2106
73541W        W16635  17.698  13.668  24.919 -0.5463 -0.1719 -0.0418
73542W        W16636  16.278  11.456  22.329  0.0816 -0.1182 -0.0315
73543W        W16637  17.434  14.002  23.943  0.1628  0.1213 -0.3975
73544W        W16638  15.866   9.683  25.626 -0.0115 -0.1401  0.0396
73545W        W16639  16.885  10.390  23.737  0.0804 -0.0523 -0.0275
73546W        W16640  16.072  11.995  24.153  0.0305  0.0257 -0.0664
73547W        W16641  16.015  12.541  25.916 -0.1945  0.0674 -0.3540
73548W        W16642  17.556  12.927  23.709  0.1052 -0.0634 -0.0725
73549W        W16643  15.989  11.109  24.351  0.0599 -0.1365 -0.0716
73550W        W16644  17.367  13.498  22.249  0.0844 -0.2247  0.3941
73551W        W16645  18.790  12.673  25.272 -0.0769  0.2227 -0.0827
73552W        W16646  15.496  13.325  20.446  0.1810 -0.0660  0.3712
73553W        W16647  18.320  13.429  24.377  0.0485  0.2362 -0.0379
73554W        W16648  17.381  13.852  22.663 -0.1386 -0.0191 -0.4469
73555W        W16649  14.736  11.575  26.028  0.1974  0.4556 -0.3443
73556W        W16650  17.169  12.296  22.910  0.0710 -0.0909 -0.1654
73557W        W16651  19.525  13.783  23.612  0.1248  0.1809  0.1395
73558W        W16652  16.736  10.537  22.240  0.1211 -0.1541 -0.0224
73559W        W16653  14.299  11.253  26.244  0.1045 -0.0805  0.1578
73560W        W16654  14.460  14.306  22.531 -0.3673 -0.3302 -0.3442
73561W        W16655  17.532  11.154  25.397 -0.0968 -0.2584 -0.2413
73562W        W16656  17.531  10.481  26.490  0.1454 -0.2083 -0.1460
73563W        W16657  15.312  12.602  22.316  0.0727  0.0153 -0.0844
73564W        W16658  17.955  10.055  27.457 -0.1739  0.2103 -0.4089
73565W        W16659  17.259  12.482  24.499  0.0731 -0.1886 -0.3226
73566W        W16660  15.007  12.865  27.147  0.3469  0.1639 -0.4392
73567W        W16661  14.902  12.214  23.279  0.2565  0.0397  0.4400
73568W        W16662  16.260  12.703  24.539  0.3876  0.2837  0.2768
73569W        W16663  14.956  12.286  25.544  0.0295  0.0379 -0.1125
73570W        W16664  16.264  13.346  21.869 -0.0766  0.3431  0.1576
73571W        W16665  17.853  14.198  23.713  0.1201  0.0011 -0.2670
73572W        W16666  18.510  11.138  23.252  0.1518 -0.1725 -0.0837
73573W        W16667  19.447  13.224  23.619 -0.2107 -0.3672 -0.0260
73574W        W16668  16.410  10.323  24.116 -0.1537 -0.3090 -0.0164
73575W        W16669  17.804  11.774  24.651  0.0947  0.5713 -0.1002
73576W        W16670  17.925  11.866  23.383  0.1272  0.0642 -0.0368
73577W        W16671  15.785  11.503  26.301  0.0587  0.0202 -0.3549
73578W        W16672  14.416  12.709  23.636  0.1107  0.0268 -0.0472
73579W        W16673  14.991  12.487  24.549  0.0128 -0.0495 -0.1958
73580W        W16674  15.242  12.636  24.149 -0.0737  0.0472 -0.0407
73581W        W16675  17.089  11.465  25.513 -0.0121 -0.2960  0.2015
73582W        W16676  14.306  12.218  26.749 -0.0593  0.1511 -0.0138
73583W        W16677  15.476  12.854  23.615 -0.0145  0.3441  0.0565
73584W        W16678  14.670  11.818  24.996  0.0433  0.1324 -0.1238
73585W        W16679  17.029  12.551  21.953  0.1178  0.0017  0.0542
73586W        W16680  14.428  11.911  26.383 -0.0339  0.1757  0.5078
73587W        W16681  14.651  11.498  24.542 -0.0274  0.6421  0.0377
73588W        W16682  16.873  11.977  23.865 -0.1296 -0.0012  0.0253
73589W        W16683  18.072  11.908  22.177 -0.1211 -0.1405 -0.0258
73590W        W16684  16.200  10.335  25.725 -0.0951  0.1344 -0.0322
73591W        W16685  19.057  14.945  25.475 -0.3853 -0.1519  0.2283
73592W        W16686  13.938  11.853  22.340  0.2994  0.1252  0.0862
73593W        W16687  16.848  12.338  25.710  0.0632 -0.0112  0.1138
73594W        W16688  16.202  11.893  26.272 -0.2521 -0.1293 -0.2333
73595W        W16689  14.953  11.931  24.619  0.1034  0.0161  0.2182
73596W        W16690  17.550  12.092  24.407  0.0739  0.0775  0.3442
73597W        W16691  15.774  12.434  22.153 -0.0037 -0.0703 -0.1513
73598W        W16692  17.064  13.970  20.983 -0.0482  0.0741 -0.1915
73599W        W16693  17.510  13.214  24.931  0.1559  0.0735 -0.2931
73600W        W16694  15.301  13.218  24.065  0.0266 -0.2575 -0.2162
73601W        W16695  14.956   9.721  25.750 -0.1481  0.2059  0.1155
73602W        W16696  17.696  12.854  22.658  0.0082 -0.0344  0.1009
73603W        W16697  16.441  13.105  24.254 -0.2351  0.0550  0.3067
73604W        W16698  17.928  13.394  21.186  0.1010 -0.3533 -0.0755
73605W        W16699  18.024  11.222  26.324 -0.0211 -0.0133  0.1713
73606W        W16700  16.661  13.471  22.234 -0.0906 -0.3896 -0.0341
73607W        W16701  15.924  10.553  26.086 -0.1128  0.0089 -0.1581
73608W        W16702  14.540  13.175  26.283 -0.2143  0.1332 -0.2412
73609W        W16703  18.734  14.915  24.939  0.0278  0.5271  0.3253
73610W        W16704  16.081  11.519  24.570  0.4237 -0.1188 -0.0043
73611W        W16705  19.007  12.422  23.221  0.2103 -0.0511  0.0662
73612W        W16706  15.940  12.804  23.082  0.0992  0.1457  0.0055
73613W        W16707  15.358  12.514  25.521 -0.0002 -0.1724  0.3152
73614W        W16708  16.761  10.706  24.058  0.2068 -0.0947 -0.0845
73615W        W16709  15.531  12.634  24.591 -0.5765  0.0604 -0.0808
73616W        W16710  16.706  13.224  21.689 -0.0369 -0.1395 -0.1064
73617W        W16711  17.910  13.515  26.031 -0.0607  0.1143 -0.4262
73618W        W16712  15.318  12.185  22.955  0.1751 -0.2902 -0.4104
73619W        W16713  18.982  12.267  22.161 -0.0336  0.0698  0.2469
73620W        W16714  17.707  14.599  23.278  0.0525 -0.1136 -0.1050
73621W        W16715  18.992  15.815  23.793  0.0144 -0.1740  0.3224
73622W        W16716  16.542  13.051  22.633 -0.0819 -0.4630  0.2072
73623W        W16717  17.442  13.346  24.323 -0.0304 -0.0337 -0.1819
73624W        W16718  15.699   9.961  25.046  0.0007 -0.0892  0.0343
73625W        W16719  17.775  11.250  24.406 -0.0680 -0.1171  0.2474
73626W        W16720  17.031  11.470  23.727 -0.1049  0.2511 -0.0015
73627W        W16721  18.568  11.697  24.823  0.1287 -0.1391 -0.3944
73628W        W16722  15.846  11.278  25.717  0.2574 -0.4688 -0.5820
73629W        W16723  18.008  11.127  23.905  0.0849  0.1908 -0.2101
73630W        W16724  14.486  13.584  25.067 -0.3525  0.0269 -0.2664
73631W        W16725  17.231  13.359  23.844  0.0817 -0.1807  0.1529
73632W        W16726  16.278  14.061  29.666  0.1472  0.3560 -0.1049
73633W        W16727  15.977  12.629  28.159 -0.2751  0.0710  0.0274
73634W        W16728  17.472  12.690  25.853  0.1688 -0.1436  0.3441
73635W        W16729  17.199  13.208  27.912 -0.0931  0.1092  0.2333
73636W        W16730  16.079  12.001  28.506  0.1562  0.0476  0.1910
73637W        W16731  17.149  14.007  26.486  0.2547  0.0802 -0.3703
73638W        W16732  15.009  11.543  29.817  0.0635  0.2270  0.0889
73639W        W16733  15.844  14.046  28.249  0.0520 -0.1132 -0.2223
73640W        W16734  17.021  14.613  28.395 -0.2532  0.1368 -0.0507
73641W        W16735  16.710  11.918  26.189 -0.1549  0.2076  0.3507
73642W        W16736  16.140  12.453  28.912  0.0697  0.2336  0.0002
73643W        W16737  17.002  13.807  30.430 -0.4909  0.2526  0.1490
73644W        W16738  14.012  11.930  28.362  0.0213 -0.1435 -0.1439
73645W        W16739  13.634  12.066  30.046  0.0464  0.0398 -0.3801
73646W        W16740  16.381  14.283  29.210 -0.0129 -0.0937 -0.0849
73647W        W16741  15.819  13.870  26.977  0.0986 -0.2967 -0.3378
73648W        W16742  15.740  11.625  28.891 -0.0878 -0.0728 -0.1818
73649W        W16743  16.703  11.713  27.516 -0.1304  0.1418  0.0743
73650W        W16744  16.292  13.795  27.089  0.0472 -0.3775 -0.0378
73651W        W16745  16.342  10.949  30.471 -0.0115  0.0396  0.3406
73652W        W16746  15.638  10.254  30.090 -0.0782  0.1404  0.0208
73653W        W16747  16.664  13.423  27.322  0.1169  0.0968 -0.2010
73654W        W16748  16.011  12.412  26.485  0.1205  0.0043  0.1232
73655W        W16749  15.309  14.757  28.466 -0.3047 -0.0091  0.2537
73656W        W16750  15.353  13.824  29.383  0.1048  0.1614  0.0032
73657W        W16751  15.820  12.526  29.276  0.2183 -0.1783  0.3746
73658W        W16752  16.008  13.000  29.403 -0.1745 -0.0213  0.3127
73659W        W16753  15.908  13.546  28.475  0.1609  0.4726 -0.1306
73660W        W16754  16.903  13.580  27.822 -0.0823 -0.1987 -0.0096
73661W        W16755  17.333  11.039  30.485 -0.1573 -0.2613 -0.1641
73662W        W16756  16.073  14.145  27.412  0.0220  0.0458  0.0046
73663W        W16757  13.574  15.485  27.487 -0.4273  0.0900  0.0874
73664W        W16758  15.779  13.617  27.447 -0.0298  0.1693  0.2537
73665W        W16759  18.613  13.618  27.450  0.2604 -0.1908  0.4931
73666W        W16760  18.221  13.066  30.024 -0.0358 -0.1067 -0.2689
73667W        W16761  15.395  13.562  30.228 -0.1073 -0.1386 -0.1429
73668W        W16762  14.984  14.213  27.022  0.1767 -0.2951 -0.1001
73669W        W16763  16.709  13.959  28.020  0.0854  0.5743  0.0480
73670W        W16764  15.400  14.133  31.423 -0.0575  0.2130 -0.0071
73671W        W16765  16.737  13.141  28.321 -0.2193  0.1693 -0.2554
73672W        W16766  17.532  12.763  28.599  0.0662  0.2278  0.0963
73673W        W16767  15.608  12.716  27.848 -0.0347 -0.0953  0.2352
73674W        W16768  17.188  13.717  25.950 -0.0392 -0.4016  0.1446
73675W        W16769  15.767  13.654  29.890  0.1074  0.0449 -0.2758
73676W        W16770  14.936  14.453  28.229  0.2143 -0.0068 -0.0387
73677W        W16771  18.602   9.774  30.933  0.0809  0.0258 -0.1414
73678W        W16772  15.960  13.317  26.544 -0.0158  0.0325 -0.3685
73679W        W16773  16.203  14.258  26.759 -0.1276  0.2079  0.0027
73680W        W16774  16.236  10.812  27.051 -0.1231  0.0235 -0.0789
73681W        W16775  18.835  11.844  26.008 -0.3042 -0.0755 -0.1824
73682W        W16776  15.772  10.725  29.881 -0.0901  0.0970 -0.2577
73683W        W16777  16.226  14.706  28.504 -0.3257 -0.1770  0.1812
73684W        W16778  15.311  12.507  29.004 -0.3358  0.1210 -0.0617
73685W        W16779  18.106  12.560  30.175 -0.5111 -0.3672 -0.0112
73686W        W16780  17.386  12.578  26.532  0.0694 -0.3290 -0.1775
73687W        W16781  17.306  12.330  29.697  0.3896 -0.1755 -0.0332
73688W        W16782  15.877  14.532  28.137  0.0621  0.1389  0.0167
73689W        W16783  16.237  12.212  27.875  0.0109 -0.2210 -0.0055
73690W        W16784  17.756  14.683  26.050  0.0249 -0.0201  0.0699
73691W        W16785  18.340  15.480  25.903  0.4704  0.0105 -0.3349
73692W        W16786  17.061  12.126  26.453  0.1339 -0.1867  0.1815
73693W        W16787  16.747  12.970  26.929  0.0708  0.0267  0.0181
73694W        W16788  15.447  13.431  31.502  0.2238 -0.4134 -0.0013
73695W        W16789  15.805  11.849  30.861 -0.0578 -0.2798  0.0081
73696W        W16790  14.001  10.108  27.914 -0.1938  0.0030  0.0964
73697W        W16791  17.283  11.668  31.585  0.0357  0.3006  0.1881
73698W        W16792  14.822  13.606  30.200  0.0321 -0.0797  0.3677
73699W        W16793  18.754  11.049  29.488  0.3880  0.0390 -0.0469
73700W        W16794  15.689  14.901  29.021  0.1729 -0.3366 -0.1410
73701W        W16795  18.180  13.550  29.821  0.1209 -0.1725 -0.0378
73702W        W16796  18.525  14.124  25.000  0.0666  0.1596  0.1447
73703W        W16797  17.944  10.576  29.133  0.2176  0.1092  0.3075
73704W        W16798  17.485  12.712  29.178 -0.1511  0.0450  0.0937
73705W        W16799  15.456  13.157  26.357  0.1698 -0.1290 -0.1271
73706W        W16800  16.999  12.671  27.810  0.0728  0.1781 -0.1397
73707W        W16801  18.485  14.506  29.990 -0.3025  0.0826  0.3331
73708W        W16802  18.399  14.720  25.299 -0.0841 -0.1035 -0.0193
73709W        W16803  15.285  13.877  30.647  0.0154  0.2723 -0.1956
73710W        W16804  15.776  14.603  28.669  0.0602 -0.0636 -0.0087
73711W        W16805  15.733  15.079  30.832 -0.2564  0.2343 -0.1956
73712W        W16806  15.272  14.151  25.206  0.0772  0.0808 -0.2552
73713W        W16807  15.561  13.466  27.900  0.0699  0.2357  0.0126
73714W        W16808  14.184  14.047  26.605  0.0048 -0.0919  0.1470
73715W        W16809  15.626  12.034  30.312 -0.0125 -0.2689  0.0483
73716W        W16810  16.101  13.053  29.936  0.1483 -0.2229 -0.1213
73717W        W16811  18.585  10.544  27.784 -0.3682  0.0020  0.0073
73718W        W16812  14.222  13.251  31.214  0.0313  0.0511 -0.1958
73719W        W16813  17.570   9.692  29.604  0.1967  0.1047  0.1389
73720W        W16814  15.596  13.038  28.811 -0.0704 -0.3743  0.0581
73721W        W16815  17.575  14.442  25.662  0.0631 -0.1078 -0.1453
73722W        W16816  17.991  12.767  27.330 -0.1911  0.4638 -0.0682
73723W        W16817  18.333  14.315  23.990  0.0403 -0.1736 -0.1679
73724W        W16818  14.512  13.398  28.737 -0.2249  0.0770 -0.0473
73725W        W16819  16.440  13.506  28.132  0.0567 -0.3351 -0.0421
73726W        W16820  15.526  11.495   0.032 -0.7395 -0.2010 -0.0196
73727W        W16821  14.792  13.556  28.200  0.1938 -0.0270 -0.2497
73728W        W16822  16.089  12.107  30.488  0.0808 -0.2517 -0.0727
73729W        W16823  15.841  12.074  29.047 -0.2327 -0.1962  0.1683
73730W        W16824  17.909  11.964  28.371 -0.0305 -0.0325  0.2674
73731W        W16825  16.639  11.730  28.553  0.0415 -0.0706 -0.2885
73732W        W16826  15.166  12.528  27.926 -0.1342 -0.1672 -0.0817
73733W        W16827  17.369  12.102  30.146 -0.2196  0.0996  0.0710
73734W        W16828  16.668  13.173  24.751 -0.3010  0.2346  0.0013
73735W        W16829  17.789  15.505  28.506  0.2525  0.0462  0.2823
73736W        W16830  17.231  14.695  26.337 -0.2830 -0.2745 -0.1577
73737W        W16831  14.231  14.162  29.367  0.0714  0.0783  0.4050
73738W        W16832  15.369  11.520  28.013  0.2486  0.0870 -0.1057
73739W        W16833  15.333  13.684  26.925  0.0559  0.0299  0.0752
73740W        W16834  16.390  13.308  26.851  0.3927  0.2091 -0.1618
73741W        W16835  16.544  11.310  26.432  0.2376 -0.2598  0.1908
73742W        W16836  17.086  14.323  28.852 -0.0116  0.2409 -0.2850
73743W        W16837  17.605  13.917  25.795  0.1086 -0.2012 -0.0849
73744W        W16838  15.055  13.646  29.747  0.2292  0.4726  0.1320
73745W        W16839  17.451  11.105  29.595 -0.0667 -0.2924 -0.0771
73746W        W16840  18.094  14.272  29.695 -0.2939  0.2740  0.1217
73747W        W16841  17.004  11.498  28.803  0.1519  0.0502 -0.1064
73748W        W16842  16.206  11.972  27.122 -0.1113 -0.0713 -0.1924
73749W        W16843  17.169  13.610  25.470  0.0066  0.1928 -0.0845
73750W        W16844  15.087  13.447  26.460 -0.0459  0.3318 -0.3117
73751W        W16845  13.881  12.541  27.704 -0.0057  0.0470 -0.0188
73752W        W16846  16.348  13.945  28.372  0.0361 -0.0154 -0.0242
73753W        W16847  16.418  11.315  30.058 -0.0089  0.5257 -0.2128
73754W        W16848  15.733  10.627  30.404  0.0008  0.2948  0.3068
73755W        W16849  16.463  11.839  30.320 -0.0226 -0.1786  0.1254
73756W        W16850  14.800  12.586  27.502  0.4174  0.0548  0.2292
73757W        W16851  14.777  15.279  29.330  0.0858  0.1836  0.1458
73758W        W16852  16.126  11.240  29.257  0.0088  0.1902  0.2168
73759W        W16853  17.094  11.843  28.318 -0.0374 -0.1859  0.0508
73760W        W16854  17.252  12.786  30.583  0.0510 -0.0950  0.0846
73761W        W16855  18.007  13.424  28.199 -0.0705  0.1384 -0.0233
73762W        W16856  17.947  10.859  26.674 -0.1903 -0.1442  0.0154
73763W        W16857  16.414  12.165  26.684  0.0412 -0.0739  0.0063
73764W        W16858  14.432  14.097  31.077 -0.2224 -0.2000  0.0963
73765W        W16859  17.775  14.230  24.734 -0.0441  0.0845  0.2463
73766W        W16860  16.686  12.633  27.319  0.1881  0.0792  0.3341
73767W        W16861  16.231  12.399  27.426 -0.2168  0.1717 -0.0028
73768W        W16862  16.415  12.998  28.959 -0.1056 -0.4202  0.1099
73769W        W16863  15.865  14.792  29.997  0.1266  0.2774  0.0129
73770W        W16864  16.811  14.469  31.530  0.0167  0.0013 -0.3834
73771W        W16865  16.929  13.030  27.394  0.2411  0.0554  0.0339
73772W        W16866  15.457  12.249  29.552  0.2004 -0.0394 -0.3664
73773W        W16867  17.436  13.092  26.367 -0.0350  0.2183  0.1655
73774W        W16868  15.720  11.287  28.392  0.2567 -0.0809 -0.0078
73775W        W16869  14.001  14.088  27.099  0.0861  0.1960  0.2700
73776W        W16870  17.274  12.510  31.002 -0.1012  0.0678 -0.0171
73777W        W16871  16.549  11.226  29.600 -0.0159 -0.2065 -0.1360
73778W        W16872  15.248  10.514  30.752  0.0313 -0.0204 -0.2709
73779W        W16873  18.451  12.981  29.515  0.0480 -0.0329 -0.2489
73780W        W16874  17.542  12.548  27.653  0.1382  0.1344  0.2452
73781W        W16875  15.507  12.907  29.354  0.0749 -0.0296 -0.1608
73782W        W16876  16.292  12.553  26.981 -0.1271 -0.4631  0.3851
73783W        W16877  16.952  10.855  29.530 -0.1730  0.3581  0.0577
73784W        W16878  15.030  12.494  29.626 -0.1198  0.4585  0.0333
73785W        W16879  14.965  14.667  30.219  0.2095  0.0648 -0.1625
73786W        W16880  17.368  13.671  29.627  0.2178 -0.4175  0.0065
73787W        W16881  17.763  13.983  27.896  0.3496  0.0699 -0.0613
73788W        W16882  17.549  10.244  28.402  0.0227 -0.0158  0.0311
73789W        W16883  16.959  12.530  29.033  0.1313  0.0755 -0.1301
73790W        W16884  16.491  13.998  24.325  0.0603 -0.0237  0.3523
73791W        W16885  15.851  13.945  25.994 -0.1775 -0.2476  0.0672
73792W        W16886  16.581  12.133  28.278  0.0916  0.1595 -0.1342
73793W        W16887  16.603  13.129  27.829  0.0047  0.2020  0.0071
73794W        W16888  16.111  13.427  26.014 -0.1474 -0.2149 -0.0075
73795W        W16889  15.430  14.449  30.045 -0.1563  0.1250 -0.2223
73796W        W16890  16.114  13.791  26.550 -0.2912  0.0529 -0.1222
73797W        W16891  17.553  10.190  28.921  0.0959  0.2104 -0.3925
73798W        W16892  14.512  14.193  28.402  0.3553 -0.2536 -0.2308
73799W        W16893  16.354  12.780  26.574  0.1788 -0.1844  0.0904
73800W        W16894  15.092  11.399  26.829 -0.1625  0.2287 -0.0053
73801W        W16895  17.769  12.067  27.886  0.2342  0.0975  0.1348
73802W        W16896  17.827  12.629  26.159 -0.0878  0.2723 -0.0936
73803W        W16897  15.081  12.220  28.335  0.0996 -0.1366 -0.1821
73804W        W16898  16.437  10.677  29.422 -0.2951  0.1089  0.1560
73805W        W16899  14.980  15.713  28.507  0.0186  0.0752  0.2073
73806W        W16900  16.412  13.361  28.627  0.1507 -0.2029 -0.2567
73807W        W16901  17.260  11.678  26.668 -0.2483  0.0139 -0.2981
73808W        W16902  16.321  13.557  29.878 -0.0528  0.0816  0.1392
73809W        W16903  16.782  12.850  30.501 -0.0432  0.1346  0.0388
73810W        W16904  15.245  11.990  27.891 -0.2657 -0.0312 -0.4851
73811W        W16905  17.468  11.787  29.712 -0.2122 -0.1392 -0.2658
73812W        W16906  17.716  12.388  28.260 -0.0826 -0.3110  0.0595
73813W        W16907  14.884  14.283  27.684 -0.0476 -0.0762  0.1165
73814W        W16908  15.983  13.123  28.018  0.0014 -0.2735  0.1098
73815W        W16909  17.536  12.038  26.403 -0.0072  0.1657 -0.1432
73816W        W16910  16.167  12.799  27.696 -0.0394  0.4175 -0.1045
73817W        W16911  16.002  11.012  31.357 -0.0235  0.0806 -0.0134
73818W        W16912  17.061  12.953  31.025 -0.1789 -0.0072 -0.1058
73819W        W16913  17.045  12.384  28.348  0.1021 -0.1319  0.6188
73820W        W16914  15.800  11.785  27.908  0.0060  0.0081  0.1512
73821W        W16915  17.452  12.274  28.721 -0.2202 -0.2278  0.3178
73822W        W16916  16.724  15.021  29.817  0.0957 -0.1272 -0.0805
73823W        W16917  16.188  10.778  28.978  0.1998 -0.0203 -0.0188
73824W        W16918  16.201  13.140  30.580  0.0322 -0.1746 -0.0735
73825W        W16919  16.633   9.957  28.721  0.2685 -0.1248 -0.2738
73826W        W16920  19.763  14.225  25.218  0.3748  0.2190  0.0050
73827W        W16921  17.055  12.167  29.274 -0.4479  0.1335 -0.4523
73828W        W16922  15.430  14.023  24.668 -0.0824  0.0886 -0.1140
73829W        W16923  15.547  14.670  29.657  0.1667  0.0562 -0.3094
73830W        W16924  16.056  13.735  27.912  0.2587 -0.0422 -0.0253
73831W        W16925  16.507  12.575  29.215  0.1023 -0.0702 -0.2350
73832W        W16926  15.390  14.211  28.427  0.0585  0.1101 -0.1240
73833W        W16927  15.594  13.679  26.351 -0.1201 -0.2646 -0.0075
73834W        W16928  15.840  13.989  29.467 -0.1351 -0.1321  0.0337
73835W        W16929  17.283  12.049  27.509 -0.1529  0.0559 -0.1931
73836W        W16930  16.623  13.449  25.946  0.0478 -0.0455 -0.0267
73837W        W16931  16.651  11.048  29.010  0.1768 -0.0996  0.2978
73838W        W16932  18.142   9.972  30.221  0.0767  0.0007  0.0715
73839W        W16933  17.544  12.416  25.417  0.0041 -0.1135 -0.3315
73840W        W16934  16.971  12.164  31.952  0.0379  0.1428 -0.1614
73841W        W16935  16.303  11.382  28.597  0.3285  0.1342  0.0328
73842W        W16936  16.912  13.606  26.858  0.0242  0.0693 -0.3869
73843W        W16937  14.979  13.938  28.520  0.6430  0.2266 -0.0444
73844W        W16938  17.178  14.710  30.773 -0.3693  0.2579 -0.0450
73845W        W16939  14.659  12.318  31.093  0.3724  0.1264 -0.1679
73846W        W16940  16.799  12.072  27.858  0.1352 -0.0953  0.0561
73847W        W16941  14.998  11.014  29.060  0.0490 -0.0022  0.0264
73848W        W16942  15.887  12.552  29.787 -0.0831 -0.1004 -0.0337
73849W        W16943  17.656  13.870  29.012  0.3120  0.0377  0.1128
73850W        W16944  16.921  13.223  25.553  0.3402  0.3484  0.0235
73851W        W16945  18.189  11.410  28.965 -0.0722 -0.0329 -0.2026
73852W        W16946  16.506  15.594  29.076  0.0107 -0.0745  0.2675
73853W        W16947  17.005  12.918  26.499 -0.0764  0.0906  0.1151
73854W        W16948  16.197  11.735  27.609 -0.1889  0.2489 -0.0121
73855W        W16949  16.820  12.521  26.779 -0.2754 -0.0539  0.2379
73856W        W16950  16.631  10.562  30.634 -0.0395 -0.1359 -0.2226
73857W        W16951  17.509  13.183  28.353 -0.0782 -0.3986 -0.1521
73858W        W16952  17.440  10.750  29.223 -0.2069 -0.3935  0.1359
73859W        W16953  16.631  10.867  29.994  0.2285  0.3274 -0.1846
73860W        W16954  16.178  12.254  29.480 -0.0286 -0.3420  0.1163
73861W        W16955  15.443  13.667  28.344 -0.2291  0.1150  0.1074
73862W        W16956  14.815  11.800  29.444 -0.0522 -0.0273  0.0175
73863W        W16957  17.175  14.197  28.184 -0.0386 -0.0821  0.0409
73864W        W16958  18.900  11.667  27.936 -0.0542 -0.0729  0.2097
73865W        W16959  18.261  11.000  30.690 -0.2190  0.1695 -0.0523
73866W        W16960  17.367  13.089  29.515  0.1091  0.0335 -0.0457
73867W        W16961  16.758  11.789  26.696 -0.0635 -0.0325 -0.0979
73868W        W16962  16.641  12.603  28.565  0.4627 -0.1501  0.0266
73869W        W16963  17.923  11.052  29.343  0.0890  0.2324 -0.0250
73870W        W16964  15.130  11.180  27.722 -0.1430  0.1005  0.1139
73871W        W16965  16.790  11.132  30.387  0.4168 -0.0941 -0.0367
73872W        W16966  16.427  14.271  26.285  0.2217 -0.2520  0.1098
73873W        W16967  17.124  12.835  28.355 -0.1037  0.0429  0.0686
73874W        W16968  17.050  11.860  27.083 -0.0681 -0.0373 -0.3408
73875W        W16969  13.601  11.662  29.652 -0.2169 -0.0591 -0.0890
73876W        W16970  14.404  15.986  29.825 -0.1455 -0.0277  0.0176
73877W        W16971  14.539  12.978  27.324  0.0627  0.1353 -0.1989
73878W        W16972  16.970  12.921  25.982 -0.2207  0.2902  0.3172
73879W        W16973  16.612  14.618  28.828 -0.1212  0.3071  0.3148
73880W        W16974  17.945  11.705  30.060  0.4570 -0.2223  0.1350
73881W        W16975  17.107  10.464  27.221 -0.1333  0.0438 -0.1102
73882W        W16976  17.398  10.556  29.806 -0.0840 -0.0574  0.3137
73883W        W16977  13.614  14.892  27.563 -0.1534  0.1787 -0.1229
73884W        W16978  17.107  11.161  28.003  0.0137  0.2218  0.1103
73885W        W16979  16.279  13.782  28.916 -0.0781 -0.1505  0.0247
73886W        W16980  16.272  13.564  29.361 -0.2551  0.0432 -0.2536
73887W        W16981  16.167  14.228  27.908  0.0336 -0.2571  0.1429
73888W        W16982  16.601  11.525  29.147  0.1310  0.2595 -0.1574
73889W        W16983  17.071  13.182  28.688  0.1077 -0.0833  0.0320
73890W        W16984  17.390  13.061  27.483 -0.3664  0.3058 -0.1979
73891W        W16985  18.374  12.083  29.972  0.1467  0.2445 -0.0763
73892W        W16986  17.613  14.263  28.686 -0.0266  0.3401 -0.0363
73893W        W16987  15.742  12.577  28.624 -0.0834 -0.2687 -0.0429
73894W        W16988  17.949  14.339  29.081  0.1017  0.4193  0.0696
73895W        W16989  17.961  13.061  27.795 -0.1949 -0.2344  0.1414
73896W        W16990  15.143  13.105  29.076  0.0502 -0.2050  0.0737
73897W        W16991  14.604  13.178  29.302  0.0056  0.0971 -0.0425
73898W        W16992  16.484  12.656  29.707 -0.2847  0.0091 -0.0552
73899W        W16993  15.756  13.929  28.915  0.0805 -0.4320  0.0738
73900W        W16994  14.831  12.709  29.226  0.1821 -0.1360 -0.2452
73901W        W16995  16.616  13.833  25.516 -0.1769 -0.2870 -0.0626
73902W        W16996  15.764  15.255  29.441  0.1262  0.0394 -0.1542
73903W        W16997  15.957  11.364  29.746  0.3864  0.0469 -0.0731
73904W        W16998  15.429  14.267  26.194 -0.0130 -0.4485  0.0533
73905W        W16999  17.172  13.643  24.952 -0.0851 -0.0457  0.3990
73906W        W17000  16.296  13.448  25.597  0.1219 -0.0120  0.0897
73907W        W17001  17.258  13.786  28.709  0.1242  0.0010  0.1105
73908W        W17002  16.398  12.140  25.863 -0.0269 -0.2794 -0.2542
73909W        W17003  14.732  14.870  28.049 -0.3056  0.1909  0.0892
73910W        W17004  13.417  13.398  27.695 -0.0678  0.1931 -0.0417
73911W        W17005  18.456  14.566  24.750  0.1314 -0.1211 -0.0466
73912W        W17006  15.467  13.892  25.746  0.3693  0.0132  0.1946
73913W        W17007  19.132  12.582  30.172  0.0601  0.1939  0.1667
73914W        W17008  17.555  11.756  27.136  0.1145 -0.1622 -0.0109
73915W        W17009  18.017  12.428  29.329 -0.1978 -0.0191 -0.0481
73916W        W17010  17.994  11.405  27.708 -0.1010 -0.0774  0.1338
73917W        W17011  16.611  13.958  30.019  0.0478  0.0158  0.0879
73918W        W17012  15.986  11.675  30.165 -0.2097  0.0808  0.0697
73919W        W17013  16.379  10.691  26.179 -0.6249 -0.0575  0.1242
73920W        W17014  15.631  13.105  30.178 -0.0102  0.0304 -0.1425
73921W        W17015  17.017  11.682  29.397  0.0612  0.0753  0.0098
73922W        W17016  14.078  15.019  29.913 -0.1101 -0.2234  0.1612
73923W        W17017  17.141  12.756  25.519 -0.2194 -0.1463 -0.1010
73924W        W17018  15.276  12.801  26.659  0.2831 -0.0478 -0.2504
73925W        W17019  16.204  12.956  28.423  0.1783  0.2151  0.1422
73926W        W17020  15.931  11.136  30.193 -0.0927 -0.1629 -0.1741
73927W        W17021  15.909  13.343  25.222  0.2196  0.0337 -0.1805
73928W        W17022  16.995  12.331  30.620  0.0794  0.1899 -0.1559
73929W        W17023  15.758  13.920  25.067  0.4150 -0.2353  0.0227
73930W        W17024  16.236  13.398  27.539  0.0692  0.1940  0.0842
73931W        W17025  15.437  13.523  28.963 -0.1361  0.0506 -0.0210
73932W        W17026  14.796  12.110  27.831  0.0067  0.1192  0.0833
73933W        W17027  16.975  12.676  29.523  0.2328 -0.1860 -0.0869
73934W        W17028  15.969  13.339  28.910 -0.2362 -0.0801 -0.1165
73935W        W17029  18.398  10.511  28.936  0.0711 -0.0689 -0.1154
73936W        W17030  15.220  13.856  27.915  0.0402  0.0128  0.0585
73937W        W17031  17.833  11.555  28.602 -0.0887 -0.0085 -0.0189
73938W        W17032  15.754  13.539  29.345 -0.1592 -0.0161  0.1784
73939W        W17033  15.132  12.963  27.590 -0.1269 -0.1293 -0.2703
73940W        W17034  18.315  12.854  26.976  0.2463 -0.0760 -0.0248
73941W        W17035  16.989  11.981  30.978  0.0952  0.0115 -0.0899
73942W        W17036  17.016  13.446  26.359  0.2446 -0.2357  0.0393
73943W        W17037  17.427  13.675  28.203 -0.0469 -0.0779  0.0403
73944W        W17038  15.400  12.088  28.747 -0.0578 -0.2092 -0.1421
73945W        W17039  17.397  12.129  26.870  0.0529 -0.3631  0.4103
73946W        W17040  14.015  14.498  27.406 -0.1190  0.0988 -0.1420
73947W        W17041  16.400  12.510  30.593  0.0109  0.0515 -0.5219
73948W        W17042  16.650  13.703  31.673 -0.1691  0.3138 -0.0078
73949W        W17043  12.967  11.319  28.019  0.1247  0.4163 -0.0235
73950W        W17044  17.685  13.516  25.523 -0.3116 -0.2122 -0.1854
73951W        W17045  17.375  11.735  29.034 -0.0099 -0.0886  0.1325
73952W        W17046  16.424  13.522  25.065  0.0229 -0.0737  0.1041
73953W        W17047  19.097  14.776  27.590 -0.1600  0.1413  0.3976
73954W        W17048  17.841  13.217  27.224 -0.1610 -0.1204  0.0657
73955W        W17049  14.452  12.650  29.591 -0.0772 -0.4284  0.2921
73956W        W17050  17.338  13.233  25.863 -0.1309  0.0569  0.2112
73957W        W17051  16.943  13.543  30.004 -0.1340 -0.1975  0.0199
73958W        W17052  17.417  11.461  27.645  0.1454  0.0356  0.2253
73959W        W17053  16.495  12.594  28.057 -0.0656  0.0174  0.1721
73960W        W17054  15.773  12.288  27.694 -0.3217  0.2411  0.1512
73961W        W17055  17.352  13.131  30.058  0.2071  0.0975 -0.0992
73962W        W17056  16.180  10.362  31.381  0.0330 -0.1964  0.3601
73963W        W17057  16.164  13.150  24.831 -0.0007  0.1499  0.2339
73964W        W17058  17.763  10.275  31.739  0.0945 -0.3715 -0.2735
73965W        W17059  16.607  14.813  29.379 -0.0533  0.0623 -0.0321
73966W        W17060  14.300  13.542  30.195 -0.0305  0.0758 -0.0756
73967W        W17061  17.301  12.285  27.958 -0.0395 -0.0114  0.1453
73968W        W17062  16.672  12.660  30.995  0.1925  0.1083 -0.1916
73969W        W17063  16.924  13.747  28.394 -0.0581  0.2693 -0.0880
73970W        W17064  15.911  13.238  27.053  0.1372 -0.0043  0.0842
73971W        W17065  16.632  13.905  29.351 -0.2457  0.0911 -0.0665
73972W        W17066  16.996  11.886  29.875  0.1225  0.0828  0.1003
73973W        W17067  18.144  13.878  29.362 -0.3093  0.0172 -0.2502
73974W        W17068  15.213  11.650  29.010 -0.2897 -0.0952 -0.2064
73975W        W17069  19.151  11.644  29.260 -0.0888  0.0268 -0.0658
73976W        W17070  18.297  10.716  28.462 -0.5233 -0.4063 -0.0333
73977W        W17071  16.110  14.601  29.549  0.0310  0.0559  0.2763
73978W        W17072  14.943  11.630  28.415 -0.2062 -0.2466 -0.2591
73979W        W17073  14.502  13.949  26.991 -0.1828  0.2524  0.0793
73980W        W17074  15.611  13.060  28.255 -0.0688 -0.2256 -0.0570
73981W        W17075  15.585  10.181  30.632 -0.1412 -0.1202  0.0485
73982W        W17076  14.876  12.972  29.709  0.0689  0.1285 -0.1398
73983W        W17077  15.299  14.316  29.390 -0.0803  0.0451  0.1879
73984W        W17078  14.432  11.625  29.715  0.1839  0.0071  0.3411
73985W        W17079  17.332  14.023  26.977  0.1398  0.0182  0.0116
73986W        W17080  13.756  10.875  28.582  0.0575  0.6092 -0.1257
73987W        W17081  14.313  12.118  28.843  0.1651 -0.1922  0.3385
73988W        W17082  16.955  13.845  24.069 -0.0688 -0.3253 -0.1583
73989W        W17083  18.215  14.396  27.872 -0.0428  0.1596  0.3176
73990W        W17084  15.731  11.341  27.721 -0.1616  0.0469 -0.0782
73991W        W17085  17.573  14.359  29.814 -0.0913 -0.0107 -0.1940
73992W        W17086  15.632  12.799  25.133 -0.0364  0.0638  0.2885
73993W        W17087  17.574  10.323  29.381  0.2212 -0.3427 -0.0843
73994W        W17088  16.247  11.763  28.923 -0.3140 -0.3406 -0.0813
73995W        W17089  15.258  11.737  26.517 -0.1535 -0.0204  0.1844
73996W        W17090  16.574  11.979  29.282  0.0687  0.3689 -0.1771
73997W        W17091  16.392  13.935  25.954  0.0431  0.1942  0.0836
73998W        W17092  18.524  15.227  25.478  0.0912 -0.2590  0.3754
73999W        W17093  15.339  14.519  28.941 -0.0919 -0.2837 -0.0545
74000W        W17094  16.586  15.539  29.765 -0.0571  0.2457  0.0835
74001W        W17095  14.643  11.792  30.633  0.1458  0.4449 -0.1895
74002W        W17096  16.675  12.194  27.144 -0.2239 -0.1490 -0.0573
74003W        W17097  17.134  13.893  29.238 -0.2827 -0.2922 -0.1136
74004W        W17098  18.188  13.602  27.101  0.0466  0.1150 -0.0963
74005W        W17099  16.996  11.389  29.843 -0.1392 -0.1474  0.2149
74006W        W17100  17.277  13.124  26.991 -0.0757  0.1083 -0.0848
74007W        W17101  16.233  11.445  30.531 -0.0845 -0.1960  0.1492
74008W        W17102  14.367  15.231  30.311 -0.2194  0.1540  0.0586
74009W        W17103  17.841  13.447  29.215  0.2783  0.4194 -0.0744
74010W        W17104  14.820  11.155  28.627 -0.0954 -0.2738  0.0842
74011W        W17105  18.318  11.541  26.786 -0.2263  0.1884 -0.3234
74012W        W17106  18.260  13.823  24.053  0.0773 -0.1664  0.2269
74013W        W17107  15.889  12.722  27.256  0.0685  0.1755 -0.0045
74014W        W17108  17.196  12.521  27.248 -0.3461  0.1280 -0.4001
74015W        W17109  17.377  13.423  29.104  0.0838  0.2484 -0.2102
74016W        W17110  16.945  13.065  29.209  0.0864  0.0780 -0.2418
74017W        W17111  17.306  13.437  31.037  0.4875  0.0299  0.2160
74018W        W17112  17.935  12.294  26.523 -0.1092  0.0432 -0.0271
74019W        W17113  18.139  11.491  28.163  0.1378  0.0682  0.0572
74020W        W17114  17.475  13.591  27.708 -0.1511  0.2118 -0.2473
74021W        W17115  16.746  13.387  31.312  0.3538 -0.2564  0.2773
74022W        W17116  15.919  14.291  29.946  0.1097  0.1025 -0.2207
74023W        W17117  17.729  12.682  30.711  0.0925  0.3064 -0.1445
74024W        W17118  13.925  12.527  30.146 -0.0685  0.0678 -0.2351
74025W        W17119  15.872  12.854  26.732  0.1499 -0.2041 -0.1983
74026W        W17120  16.335  12.974  27.211 -0.1753 -0.1496  0.2262
74027W        W17121  18.194  13.360  28.851 -0.1583 -0.3777 -0.0642
74028W        W17122  16.374  11.771  28.087  0.2252  0.2884  0.1975
74029W        W17123  17.610   9.777  25.752  0.1087  0.1537 -0.1493
74030W        W17124  15.705  14.641  30.503 -0.3569  0.0188  0.2641
74031W        W17125  16.829  13.564  28.951 -0.0876 -0.1518  0.0121
74032W        W17126  17.745  10.892  30.693  0.0401 -0.2049  0.0917
74033W        W17127  17.209  12.677  31.468 -0.0810  0.0630  0.0897
74034W        W17128  17.452  11.271   0.677  0.1675  0.1471  0.2349
74035W        W17129  15.004  12.408  30.726  0.2090 -0.2515 -0.0742
74036W        W17130  15.652  14.008  30.335  0.1188 -0.1639  0.1772
74037W        W17131  16.355  13.104  31.132 -0.0315  0.1283 -0.2896
74038W        W17132  15.869   9.839   0.199  0.0637  0.4175 -0.5245
74039W        W17133  16.210  12.237  30.028  0.2369 -0.4691 -0.1425
74040W        W17134  17.751  12.478  31.258  0.2876 -0.0001  0.0163
74041W        W17135  16.610  15.102  28.941  0.2810 -0.0383  0.0240
74042W        W17136  16.512  14.538  30.009 -0.2334 -0.1099 -0.0101
74043W        W17137  16.430  11.232  31.604  0.2440 -0.0652 -0.0000
74044W        W17138  16.291  13.688  30.723  0.1750 -0.1276 -0.2162
74045W        W17139  16.801  12.358  31.332 -0.0429 -0.0763 -0.1269
74046W        W17140  18.475  11.114   0.544  0.1961 -0.1125 -0.1361
74047W        W17141  14.180  16.617  30.235  0.2279 -0.2487 -0.2374
74048W        W17142  14.477  12.409  31.956 -0.0095 -0.3231 -0.1446
74049W        W17143  17.607  13.603  30.244  0.3321  0.1827  0.0297
74050W        W17144  13.681  10.071  31.686  0.2141  0.2087  0.1960
74051W        W17145  16.318  11.674  31.094  0.1044 -0.1453 -0.4381
74052W        W17146  15.323  11.804  30.751 -0.3076  0.2225  0.0051
74053W        W17147  14.675  12.771  30.600 -0.2113  0.2137  0.1414
74054W        W17148  17.886  10.691  29.670  0.2544 -0.1850 -0.2383
74055W        W17149  17.777  12.843  29.819  0.3038  0.1059  0.2482
74056W        W17150  16.857  11.375  31.371  0.1477 -0.2346  0.0194
74057W        W17151  18.064  11.485   0.743 -0.0936 -0.1553  0.2870
74058W        W17152  14.979  12.179  29.217 -0.1449  0.1806 -0.2514
74059W        W17153  13.663  14.978  30.820  0.0777  0.0483  0.2080
74060W        W17154  14.718  12.051  29.833 -0.0191 -0.1476 -0.0277
74061W        W17155  16.129  12.905  31.675  0.0932  0.1863  0.0903
74062W        W17156  15.821  12.025  29.789  0.3741 -0.1115 -0.3816
74063W        W17157  17.584  12.588  30.197  0.0279  0.0517 -0.0385
74064W        W17158  17.412  11.907   0.023 -0.0945 -0.0023 -0.3281
74065W        W17159  16.852  11.137  31.856  0.1781 -0.1137 -0.1529
74066W        W17160  15.653  11.863  31.675  0.3745 -0.1987 -0.0947
74067W        W17161  15.549  13.287  30.749 -0.1021 -0.0877  0.2466
74068W        W17162  14.503  14.441  30.009  0.5099 -0.4791 -0.1011
74069W        W17163  16.881  13.082  29.857 -0.0776  0.2047 -0.0801
74070W        W17164  18.223  12.655  31.133  0.1055  0.1602  0.1343
74071W        W17165  16.657  12.219  29.676 -0.2324  0.0066 -0.0792
74072W        W17166  17.226  10.065  30.139 -0.2581  0.3133 -0.3293
74073W        W17167  15.927  13.528  30.391 -0.3444 -0.0314 -0.0453
74074W        W17168  16.799  10.471  30.201 -0.3174  0.1674  0.1530
74075W        W17169  17.670  12.403   1.283 -0.1814  0.1453 -0.0483
74076W        W17170  15.706  10.635  31.599 -0.1673 -0.0845 -0.2277
74077W        W17171  16.930  13.458  29.465  0.1362 -0.0103 -0.0162
74078W        W17172  16.027   9.731  31.561  0.2923 -0.0852  0.3048
74079W        W17173  17.523  13.256  30.631  0.0034  0.0150 -0.0571
74080W        W17174  17.540  12.970  31.055  0.2582 -0.1341 -0.0782
74081W        W17175  14.201  14.608  30.884  0.0215  0.1216  0.0330
74082W        W17176  18.044  13.067  30.837  0.0064 -0.0166 -0.0050
74083W        W17177  17.314  10.759  30.941 -0.0133 -0.0316 -0.1765
74084W        W17178  16.716  12.302  30.196 -0.3018 -0.0765 -0.1724
74085W        W17179  16.724  14.387  29.575 -0.1143  0.3723 -0.3029
74086W        W17180  16.501  12.436   0.442  0.0753  0.1182 -0.0691
74087W        W17181  16.496  10.797  31.225  0.3109 -0.0291  0.2069
74088W        W17182  19.339  14.064  30.712 -0.0801  0.3180 -0.2925
74089W        W17183  14.455  14.740  31.873  0.0985  0.2817 -0.2161
74090W        W17184  16.157  14.002  30.242 -0.2811  0.3475  0.0418
74091W        W17185  15.276  12.802  30.557 -0.0281 -0.0812 -0.1476
74092W        W17186  15.539  12.296  30.702 -0.1481  0.2326 -0.3712
74093W        W17187  16.494  11.990  31.952 -0.0875  0.0808  0.0659
74094W        W17188  15.113  13.078  30.141  0.0485 -0.1170  0.1758
74095W        W17189  14.094  10.243  31.864 -0.0286  0.1548 -0.0719
74096W        W17190  17.613  14.106  29.428  0.0218 -0.1222  0.0853
74097W        W17191  17.029  13.114  31.823  0.1842 -0.0993  0.1768
74098W        W17192  18.301  12.554  29.716  0.1357  0.5590  0.0387
74099W        W17193  16.657  18.085  18.058  0.0472  0.0520 -0.1074
74100W        W17194  15.793  14.400  15.211 -0.0100 -0.1248  0.2445
74101W        W17195  18.051  14.656  14.838  0.0756  0.1905  0.2038
74102W        W17196  17.852  16.886  15.408 -0.0432  0.0697  0.1733
74103W        W17197  14.651  13.143  16.703 -0.1993 -0.1028 -0.0101
74104W        W17198  15.859  18.868  16.381 -0.1198 -0.0506  0.0726
74105W        W17199  14.706  15.021  18.027  0.0405 -0.0586  0.0883
74106W        W17200  17.108  18.725  17.122 -0.0322 -0.3104 -0.0235
74107W        W17201  17.796  17.790  15.966 -0.1560  0.1456  0.1648
74108W        W17202  15.925  16.281  15.661 -0.2332 -0.0529  0.0767
74109W        W17203  14.044  15.656  17.914  0.2186 -0.0428  0.1418
74110W        W17204  13.856  18.397  17.041  0.3002 -0.0711  0.0144
74111W        W17205  15.475  13.951  15.107 -0.1848 -0.0480 -0.0175
74112W        W17206  14.252  14.920  16.398  0.0133  0.0559  0.1086
74113W        W17207  16.673  16.349  17.820 -0.0722  0.1297  0.1597
74114W        W17208  13.852  14.854  15.594 -0.1971 -0.0227  0.0112
74115W        W17209  15.655  15.973  17.126 -0.1025  0.0706  0.1032
74116W        W17210  15.561  14.960  16.000 -0.0004 -0.1152  0.2197
74117W        W17211  15.897  18.442  16.765 -0.0166 -0.2684  0.0637
74118W        W17212  14.394  14.418  16.546 -0.3392 -0.3864  0.3013
74119W        W17213  16.910  15.181  17.170  0.2118  0.0524  0.0120
74120W        W17214  15.722  19.334  16.176  0.1424  0.2997  0.2909
74121W        W17215  14.209  17.573  16.654  0.1736 -0.2967  0.2518
74122W        W17216  14.310  15.391  16.133 -0.2163  0.0381  0.0426
74123W        W17217  15.735  16.084  16.195 -0.2210  0.0125 -0.0458
74124W        W17218  17.467  15.164  16.122  0.0957  0.1105 -0.1315
74125W        W17219  15.617  17.066  15.755  0.0590  0.3727 -0.0306
74126W        W17220  15.109  18.268  16.327 -0.2239  0.0447 -0.3304
74127W        W17221  15.627  19.248  16.645 -0.1922  0.2031 -0.2176
74128W        W17222  16.864  15.775  17.622 -0.1656 -0.2467  0.2991
74129W        W17223  13.705  17.653  17.010  0.0055  0.1479 -0.0008
74130W        W17224  13.270  18.248  17.411 -0.0275 -0.4902 -0.1332
74131W        W17225  16.069  19.070  15.224 -0.3131 -0.0407  0.3791
74132W        W17226  17.965  18.825  16.068 -0.2128  0.0774  0.1760
74133W        W17227  16.884  17.505  16.980 -0.0831  0.1885  0.1873
74134W        W17228  13.876  20.194  19.073 -0.0000  0.0800  0.0075
74135W        W17229  14.450  17.674  16.145  0.1205  0.0674 -0.0064
74136W        W17230  15.147  18.847  18.176 -0.0688 -0.0136  0.2542
74137W        W17231  15.301  18.122  17.722 -0.0382  0.2318 -0.1549
74138W        W17232  16.080  17.378  17.593  0.0834  0.3083 -0.0574
74139W        W17233  16.978  17.189  15.823 -0.2904 -0.2368  0.0929
74140W        W17234  15.317  18.099  15.523 -0.1600  0.1485  0.0425
74141W        W17235  16.312  17.026  15.856  0.2838 -0.2085  0.2541
74142W        W17236  14.487  17.074  18.646 -0.2149  0.1207 -0.1167
74143W        W17237  13.615  16.900  16.615 -0.1757  0.0295  0.1086
74144W        W17238  17.164  14.956  17.598 -0.0465  0.0686 -0.0460
74145W        W17239  15.239  18.778  16.348 -0.0097 -0.2174  0.2355
74146W        W17240  16.493  16.696  16.212  0.0077 -0.2600  0.2135
74147W        W17241  15.859  14.956  15.041  0.1739 -0.3574 -0.2017
74148W        W17242  16.349  15.570  16.779  0.0169 -0.4376  0.0063
74149W        W17243  16.135  14.805  17.343 -0.3136 -0.2428 -0.1990
74150W        W17244  13.790  18.277  17.938  0.1426  0.2275 -0.3616
74151W        W17245  14.313  15.764  16.452 -0.1280  0.1729  0.0934
74152W        W17246  17.586  17.119  16.610  0.0633  0.1483 -0.0775
74153W        W17247  15.527  16.556  15.834  0.0121  0.0250 -0.4393
74154W        W17248  16.650  14.939  16.219  0.0953 -0.1694 -0.0704
74155W        W17249  15.374  18.397  18.138  0.2187  0.2053 -0.1180
74156W        W17250  13.841  15.557  17.033  0.0224 -0.3266  0.0289
74157W        W17251  16.780  19.729  15.002 -0.2504  0.1790 -0.0615
74158W        W17252  18.393  17.299  16.173 -0.1900 -0.1769 -0.2455
74159W        W17253  19.315  16.735  15.356 -0.1146  0.0803 -0.0178
74160W        W17254  14.560  17.047  16.448 -0.0744 -0.0843  0.2260
74161W        W17255  14.705  17.258  16.923  0.1409  0.0371 -0.1657
74162W        W17256  15.067  16.780  17.152 -0.0281 -0.1584 -0.2485
74163W        W17257  15.253  13.888  16.364 -0.0258  0.0329 -0.1145
74164W        W17258  17.280  18.398  16.544  0.0055  0.0845 -0.1223
74165W        W17259  13.830  16.807  17.155 -0.1175  0.1182 -0.2851
74166W        W17260  17.655  15.848  15.518  0.0356  0.0841  0.1767
74167W        W17261  13.359  15.933  16.223  0.1833 -0.0581 -0.0488
74168W        W17262  16.767  18.454  16.323  0.0950  0.2378 -0.0132
74169W        W17263  16.881  17.216  14.976 -0.2113 -0.1462  0.0487
74170W        W17264  19.626  15.056  16.316 -0.1560  0.0678  0.0712
74171W        W17265  15.316  14.305  17.366  0.2207  0.2743  0.0905
74172W        W17266  15.005  17.771  15.278 -0.0864  0.2152 -0.0446
74173W        W17267  15.571  16.100  14.889 -0.0328  0.0139 -0.1372
74174W        W17268  18.422  16.943  17.111 -0.5340  0.1156  0.0943
74175W        W17269  17.348  16.152  15.288 -0.1006  0.1292 -0.2508
74176W        W17270  13.301  17.899  16.999  0.2621 -0.1645  0.1910
74177W        W17271  14.904  16.822  17.997 -0.0398  0.2852  0.1751
74178W        W17272  13.057  16.434  19.127  0.1337 -0.1217 -0.0682
74179W        W17273  12.764  18.607  16.666  0.1872  0.0845  0.1698
74180W        W17274  12.783  15.657  17.214  0.2405  0.2286 -0.4400
74181W        W17275  13.985  17.874  16.276  0.2400 -0.1306  0.1683
74182W        W17276  14.086  13.873  18.522 -0.1181  0.1432 -0.0305
74183W        W17277  14.320  17.632  17.989 -0.1189  0.0627  0.3286
74184W        W17278  16.632  14.403  16.106 -0.0765 -0.0568 -0.0553
74185W        W17279  13.467  15.625  16.593 -0.0481 -0.0847  0.2349
74186W        W17280  17.789  14.989  15.238 -0.0007  0.1926 -0.0233
74187W        W17281  15.275  16.804  15.380  0.0060 -0.0084  0.1164
74188W        W17282  16.094  18.591  16.015  0.0197 -0.2031  0.0108
74189W        W17283  17.741  16.171  14.568 -0.0669  0.1867 -0.2290
74190W        W17284  16.035  17.125  15.406 -0.0325 -0.0805 -0.0638
74191W        W17285  12.615  16.422  17.700 -0.2149 -0.2175 -0.2414
74192W        W17286  16.688  15.511  16.281  0.0692  0.0534 -0.2180
74193W        W17287  14.529  14.056  19.179 -0.0037 -0.2233  0.0138
74194W        W17288  15.697  14.605  17.414 -0.0037  0.0472 -0.2702
74195W        W17289  18.450  15.200  17.308  0.0207  0.1548  0.0077
74196W        W17290  14.361  15.106  15.287  0.1191  0.0815 -0.0605
74197W        W17291  17.015  15.973  16.457 -0.2178 -0.1232  0.0408
74198W        W17292  14.971  16.847  16.003 -0.1843  0.0571 -0.1018
74199W        W17293  14.316  18.263  16.104  0.1471 -0.1142 -0.2879
74200W        W17294  15.992  15.144  17.701 -0.0485  0.1111 -0.0395
74201W        W17295  16.627  17.642  14.984 -0.3212 -0.1525  0.0110
74202W        W17296  17.981  18.339  16.853  0.0358  0.0699 -0.2081
74203W        W17297  16.390  19.418  16.823 -0.0703  0.0852  0.0610
74204W        W17298  14.472  15.556  17.684  0.1346  0.3298 -0.0857
74205W        W17299  14.386  14.184  15.723 -0.1954 -0.2613  0.2678
74206W        W17300  14.335  19.279  16.980 -0.1443  0.3124  0.0982
74207W        W17301  14.932  17.695  17.456 -0.1787  0.0967  0.2105
74208W        W17302  15.718  13.801  15.597 -0.0180 -0.2158  0.0163
74209W        W17303  17.151  18.532  15.478  0.0437 -0.3243  0.2708
74210W        W17304  16.365  18.917  15.632 -0.1086  0.2118  0.3664
74211W        W17305  13.561  15.952  17.618  0.0169 -0.0541  0.1342
74212W        W17306  16.024  13.993  17.717  0.1358 -0.0075  0.0722
74213W        W17307  18.242  16.260  17.640  0.0635  0.0716  0.0640
74214W        W17308  15.616  17.366  17.386  0.4069 -0.0498  0.1236
74215W        W17309  14.444  15.333  14.477 -0.1004 -0.0720  0.3935
74216W        W17310  17.194  18.765  16.051 -0.0629  0.1310  0.5899
74217W        W17311  14.562  17.736  17.023 -0.3245  0.0126 -0.1162
74218W        W17312  14.620  15.295  15.694 -0.2613 -0.1785  0.0555
74219W        W17313  15.664  17.559  16.927  0.1710  0.2708 -0.1712
74220W        W17314  17.496  14.306  15.908  0.1447 -0.0495  0.0269
74221W        W17315  13.798  16.455  18.219  0.0674 -0.2648 -0.0134
74222W        W17316  15.368  16.391  17.141  0.1453 -0.0436 -0.2753
74223W        W17317  13.007  16.575  15.492 -0.3910 -0.0996 -0.1538
74224W        W17318  13.900  17.892  18.302 -0.2190 -0.0215 -0.0309
74225W        W17319  16.477  15.255  15.889  0.1406 -0.1305 -0.1323
74226W        W17320  17.648  15.032  14.737  0.3748 -0.0103 -0.0940
74227W        W17321  17.428  16.429  17.654  0.1317 -0.3029 -0.1098
74228W        W17322  17.302  17.132  15.447  0.0909  0.1018  0.0681
74229W        W17323  16.553  16.244  15.582  0.0800  0.4231 -0.1455
74230W        W17324  16.338  15.623  15.558  0.1707  0.0448  0.0931
74231W        W17325  13.188  17.651  19.502 -0.4226 -0.1655 -0.1980
74232W        W17326  17.618  16.797  16.133 -0.3463 -0.0516 -0.1756
74233W        W17327  15.366  17.180  17.007  0.1902  0.0160  0.5475
74234W        W17328  16.715  14.755  15.680 -0.1207 -0.1557 -0.0844
74235W        W17329  18.091  17.590  15.584 -0.2434 -0.0786  0.2281
74236W        W17330  14.430  18.058  16.569 -0.1646 -0.2454 -0.1419
74237W        W17331  16.238  17.648  16.185 -0.1825  0.0164 -0.0960
74238W        W17332  18.292  18.473  16.369 -0.1650  0.2619  0.1980
74239W        W17333  14.977  17.225  17.367 -0.1759  0.2954  0.1366
74240W        W17334  14.997  15.501  16.023  0.0184  0.1836  0.0719
74241W        W17335  16.414  15.987  15.147 -0.0585 -0.3379  0.2305
74242W        W17336  12.918  17.869  15.580  0.2887  0.3031 -0.3706
74243W        W17337  16.197  14.841  16.863 -0.0673  0.0291  0.0474
74244W        W17338  16.647  14.810  17.095 -0.2284 -0.3726 -0.0551
74245W        W17339  14.756  15.420  17.170  0.0618  0.0496 -0.1094
74246W        W17340  16.123  16.101  16.939  0.0492  0.2808  0.1748
74247W        W17341  17.275  16.729  15.761  0.0416 -0.0950 -0.0704
74248W        W17342  13.736  16.806  17.842  0.0698  0.0303  0.1098
74249W        W17343  12.843  16.516  16.903  0.1862  0.0381 -0.3659
74250W        W17344  15.577  15.615  17.434 -0.0426  0.1964  0.0495
74251W        W17345  14.320  18.144  18.027  0.1184 -0.0041  0.1333
74252W        W17346  14.455  19.060  18.227  0.0111  0.0634  0.0641
74253W        W17347  16.575  17.455  17.397 -0.3480  0.1667  0.0469
74254W        W17348  17.160  16.970  16.345 -0.0401  0.1659  0.0241
74255W        W17349  15.518  15.135  17.484  0.2518 -0.4046 -0.0026
74256W        W17350  15.978  15.130  15.991  0.3230 -0.2072 -0.3230
74257W        W17351  15.121  17.612  16.975  0.2524 -0.0747 -0.2016
74258W        W17352  16.620  18.018  15.400 -0.1595 -0.0124  0.5300
74259W        W17353  15.229  14.807  17.287  0.0802  0.2412 -0.0006
74260W        W17354  17.072  18.538  17.855 -0.0492  0.1988  0.3596
74261W        W17355  16.747  19.106  15.255  0.0413 -0.0566  0.2141
74262W        W17356  16.505  18.597  16.940  0.1990  0.0314 -0.0185
74263W        W17357  15.344  17.775  16.537 -0.2864 -0.0677  0.0386
74264W        W17358  16.367  15.231  17.212  0.0597 -0.1775  0.0359
74265W        W17359  12.899  18.120  16.762  0.0835 -0.2824 -0.1363
74266W        W17360  15.314  14.787  15.107 -0.2361 -0.1024  0.2759
74267W        W17361  13.672  15.723  15.565  0.2629  0.0219 -0.1453
74268W        W17362  17.204  14.673  15.520  0.0117  0.2727  0.0153
74269W        W17363  16.136  17.638  15.393 -0.0412 -0.1757  0.0035
74270W        W17364  14.679  16.306  17.134  0.0959  0.1075  0.2083
74271W        W17365  15.725  15.567  16.147  0.3494 -0.1039 -0.0218
74272W        W17366  13.207  18.022  17.909  0.2956  0.0744  0.3120
74273W        W17367  17.102  16.460  16.204 -0.0785 -0.1242  0.1137
74274W        W17368  17.162  15.192  14.870  0.0636 -0.1391 -0.3277
74275W        W17369  16.713  17.919  17.203 -0.2929 -0.0084 -0.0341
74276W        W17370  15.029  17.002  18.466 -0.0874  0.1574  0.1541
74277W        W17371  14.336  16.592  15.303 -0.1668 -0.3833 -0.0085
74278W        W17372  16.204  16.095  16.050 -0.2094 -0.1142 -0.0197
74279W        W17373  15.608  14.813  16.850 -0.0710  0.1361 -0.0011
74280W        W17374  12.924  17.899  17.393  0.0717 -0.2013  0.0910
74281W        W17375  15.547  18.764  16.769 -0.0344 -0.1191  0.0086
74282W        W17376  16.241  15.600  16.175 -0.1922 -0.0440 -0.0610
74283W        W17377  14.358  16.186  16.238  0.2549  0.1554  0.1928
74284W        W17378  14.319  15.998  18.622 -0.0226  0.0887 -0.0602
74285W        W17379  16.861  15.576  16.729  0.0459  0.0488 -0.0204
74286W        W17380  16.145  14.719  15.508 -0.1323  0.2860  0.2232
74287W        W17381  15.490  15.846  15.393  0.1521 -0.0912  0.1797
74288W        W17382  15.347  15.435  16.972 -0.2465 -0.0782 -0.4583
74289W        W17383  16.763  17.004  16.707  0.3442 -0.2339 -0.0329
74290W        W17384  15.946  17.039  16.213  0.1435 -0.1404  0.2426
74291W        W17385  14.329  18.688  17.942  0.0048 -0.3106  0.1423
74292W        W17386  16.253  15.076  16.414  0.6073 -0.0189 -0.1551
74293W        W17387  16.834  18.837  15.685  0.4029 -0.1607  0.2079
74294W        W17388  15.869  18.152  17.224 -0.1545  0.2421  0.0031
74295W        W17389  13.674  18.041  16.654 -0.3738 -0.1287 -0.1024
74296W        W17390  13.633  16.171  17.176 -0.0936  0.3319  0.3246
74297W        W17391  14.441  15.734  15.415 -0.1732 -0.0141 -0.1209
74298W        W17392  16.620  15.651  17.211  0.0694  0.2631 -0.1253
74299W        W17393  14.792  18.424  18.088  0.0049 -0.0490  0.0692
74300W        W17394  15.278  18.447  15.922  0.3284 -0.4983 -0.0515
74301W        W17395  11.965  17.876  17.014 -0.1630  0.1115 -0.0955
74302W        W17396  16.927  15.947  15.302 -0.3256 -0.0241  0.0097
74303W        W17397  15.827  18.725  17.211  0.0706 -0.5148 -0.1435
74304W        W17398  15.230  16.369  16.257 -0.0288 -0.2300 -0.2019
74305W        W17399  18.517  15.033  16.789 -0.0777  0.1778 -0.0345
74306W        W17400  16.659  16.157  16.107 -0.1316  0.0804 -0.1140
74307W        W17401  16.268  14.344  17.463 -0.2177  0.0388 -0.0775
74308W        W17402  14.020  15.875  17.420 -0.0227 -0.2715  0.1318
74309W        W17403  16.465  17.488  15.745  0.0718 -0.0517  0.1574
74310W        W17404  14.206  15.273  17.324 -0.0458 -0.2025  0.1235
74311W        W17405  15.636  17.949  18.171  0.0993 -0.1761 -0.2190
74312W        W17406  13.755  17.273  17.373  0.0248  0.0206 -0.0730
74313W        W17407  16.311  16.668  15.559  0.0452  0.1326  0.0859
74314W        W17408  13.440  14.712  15.294 -0.0978 -0.1535 -0.0443
74315W        W17409  15.432  17.904  17.249 -0.3279 -0.1671 -0.0123
74316W        W17410  19.169  18.047  16.596  0.0755  0.2834  0.0127
74317W        W17411  16.106  17.435  16.679  0.1152 -0.2048  0.1734
74318W        W17412  17.520  15.939  16.336 -0.0051  0.2071  0.1729
74319W        W17413  14.082  17.059  16.761  0.2759  0.2339  0.1418
74320W        W17414  17.300  17.537  16.612  0.1971 -0.1489  0.0188
74321W        W17415  16.502  17.204  16.297  0.0818  0.1281 -0.0554
74322W        W17416  15.090  17.293  16.516 -0.0201 -0.2004  0.0420
74323W        W17417  15.704  14.010  17.276 -0.1488  0.0836  0.0258
74324W        W17418  16.505  18.090  16.769 -0.2626 -0.0512  0.0676
74325W        W17419  17.825  16.336  15.444 -0.0035 -0.0069  0.1557
74326W        W17420  17.137  15.672  17.150 -0.1506  0.0257  0.0780
74327W        W17421  16.165  16.820  17.365 -0.3324  0.1307  0.0172
74328W        W17422  16.359  17.212  17.005 -0.1996 -0.0770 -0.2541
74329W        W17423  14.345  14.251  18.228 -0.2549 -0.0951  0.0970
74330W        W17424  16.017  19.238  17.686  0.0374  0.2134  0.0924
74331W        W17425  17.741  15.946  15.057  0.1062 -0.0330 -0.2697
74332W        W17426  17.660  14.606  17.013 -0.2401  0.2540 -0.0085
74333W        W17427  16.969  15.182  15.857 -0.4239  0.0184  0.1525
74334W        W17428  16.710  15.722  15.831  0.1909 -0.2384  0.2378
74335W        W17429  13.603  15.491  16.039  0.1662  0.0099  0.0594
74336W        W17430  16.965  16.185  17.399  0.1945  0.0767  0.1840
74337W        W17431  14.758  14.009  16.566  0.0446  0.2043 -0.1046
74338W        W17432  15.409  17.093  17.718  0.1571 -0.0789  0.3927
74339W        W17433  17.014  18.795  14.980 -0.0757  0.2120  0.0620
74340W        W17434  16.964  17.489  16.243 -0.1873 -0.0976 -0.0147
74341W        W17435  15.913  15.751  15.746 -0.0608  0.0755  0.1426
74342W        W17436  14.881  14.646  16.588  0.0198 -0.0125  0.2128
74343W        W17437  14.698  19.870  18.609  0.2665 -0.2737  0.1064
74344W        W17438  12.464  15.895  15.008  0.3018  0.2501  0.1960
74345W        W17439  15.619  16.319  16.636  0.1418  0.0584 -0.2720
74346W        W17440  15.135  19.728  17.170  0.0565  0.0839  0.0517
74347W        W17441  17.801  18.123  16.447  0.2017 -0.0527  0.2417
74348W        W17442  16.820  15.409  15.373  0.1124 -0.1750 -0.0863
74349W        W17443  15.865  16.508  17.014  0.0442  0.1498  0.1070
74350W        W17444  14.471  15.816  15.948 -0.1058  0.3143  0.1885
74351W        W17445  16.032  12.555  16.563  0.0997  0.0589 -0.2382
74352W        W17446  14.783  18.885  17.845 -0.3057  0.0752 -0.1934
74353W        W17447  13.929  16.336  17.724 -0.2190  0.0894 -0.0125
74354W        W17448  15.412  17.958  16.058  0.0512 -0.5069 -0.0835
74355W        W17449  15.859  15.225  17.079 -0.2917  0.2756  0.1920
74356W        W17450  16.318  18.616  16.460  0.0589 -0.3878 -0.2600
74357W        W17451  15.037  18.401  18.517  0.3461 -0.0413 -0.4557
74358W        W17452  18.246  15.527  16.930  0.3116 -0.1839  0.1068
74359W        W17453  16.903  18.342  16.850  0.2703 -0.1562  0.1819
74360W        W17454  14.169  17.249  16.215  0.0378 -0.0106  0.0500
74361W        W17455  15.001  19.252  19.079  0.3056 -0.0089  0.3471
74362W        W17456  18.037  16.733  16.867 -0.2795  0.0034  0.1821
74363W        W17457  15.106  18.006  18.277 -0.0605  0.2378  0.0598
74364W        W17458  14.451  16.087  17.723  0.1394  0.2666 -0.1999
74365W        W17459  16.567  16.535  17.270  0.0085 -0.1563  0.1611
74366W        W17460  16.689  16.053  16.943  0.1707  0.1511  0.0894
74367W        W17461  15.971  14.021  16.591  0.0304 -0.2868 -0.1417
74368W        W17462  14.990  18.580  16.787  0.1040 -0.1078 -0.3030
74369W        W17463  14.055  19.309  18.837  0.2467 -0.1792  0.1478
74370W        W17464  13.741  15.081  16.906  0.1953  0.1099  0.1617
74371W        W17465  15.783  18.263  15.790  0.1105  0.0694 -0.0729
74372W        W17466  17.357  18.499  14.672 -0.0067  0.0456  0.2987
74373W        W17467  15.805  17.759  16.307  0.1733 -0.0986  0.0777
74374W        W17468  14.830  17.921  17.849  0.3514  0.0525 -0.0260
74375W        W17469  15.935  13.856  15.186  0.0461  0.2560 -0.3132
74376W        W17470  14.006  18.020  15.770  0.0194  0.1809  0.3280
74377W        W17471  12.971  16.911  17.198  0.1559  0.0685  0.1530
74378W        W17472  16.763  16.477  16.611  0.0572  0.0132  0.3233
74379W        W17473  14.085  19.344  15.792  0.2692  0.2624 -0.2188
74380W        W17474  16.538  17.654  16.626 -0.0242 -0.0438 -0.2600
74381W        W17475  18.146  13.870  16.296 -0.0028 -0.2894  0.0889
74382W        W17476  17.570  16.329  15.870 -0.0229  0.1638  0.4747
74383W        W17477  18.402  17.376  16.758 -0.0282  0.0533 -0.1221
74384W        W17478  16.951  17.958  16.543  0.3048  0.3257  0.3553
74385W        W17479  14.997  15.141  16.819 -0.3190  0.2530 -0.0237
74386W        W17480  14.833  14.543  15.097  0.2447  0.0877 -0.0364
74387W        W17481  14.345  16.528  17.939  0.2149 -0.1219 -0.0061
74388W        W17482  18.172  14.529  17.161 -0.0257  0.1184  0.1726
74389W        W17483  12.503  18.562  18.629 -0.1629  0.2305  0.2157
74390W        W17484  16.527  18.444  15.781  0.1052  0.0583  0.4738
74391W        W17485  16.545  14.261  15.613 -0.1276 -0.0598  0.2755
74392W        W17486  15.590  17.301  16.553 -0.1126 -0.0118  0.0508
74393W        W17487  16.895  13.734  16.879 -0.1196 -0.0375 -0.0451
74394W        W17488  16.112  16.811  14.936  0.0988  0.1664 -0.3264
74395W        W17489  15.364  16.713  16.773 -0.3186 -0.2417 -0.2945
74396W        W17490  16.172  18.922  16.849 -0.1367  0.3189 -0.1314
74397W        W17491  12.951  18.238  15.986 -0.1797  0.1867 -0.0850
74398W        W17492  13.982  18.993  18.462 -0.0577 -0.1116 -0.1136
74399W        W17493  15.847  15.717  16.695  0.1024  0.2392  0.1691
74400W        W17494  18.561  15.271  15.967  0.3858  0.4054  0.0226
74401W        W17495  13.899  15.427  16.473 -0.0930  0.1084 -0.0531
74402W        W17496  17.273  14.425  17.437  0.1452 -0.1935  0.3070
74403W        W17497  14.562  16.805  17.165  0.0142 -0.2776  0.0485
74404W        W17498  16.967  16.476  15.400  0.0751  0.2800  0.1028
74405W        W17499  14.499  17.430  17.456  0.1855 -0.0697 -0.0488
74406W        W17500  14.838  16.193  15.856  0.0916 -0.3205 -0.0710
74407W        W17501  15.591  14.953  15.472 -0.3590  0.1189  0.1597
74408W        W17502  17.899  17.403  16.390 -0.1804 -0.1176 -0.2955
74409W        W17503  14.829  16.754  16.678 -0.1362 -0.1147  0.0921
74410W        W17504  16.824  17.560  17.888 -0.1947  0.0743 -0.0886
74411W        W17505  14.979  16.268  16.719 -0.1253  0.3029  0.1986
74412W        W17506  16.909  16.335  14.942 -0.0753  0.0254  0.1514
74413W        W17507  14.735  17.633  16.553  0.0585 -0.2631  0.1793
74414W        W17508  15.339  17.630  17.735  0.1168  0.2143  0.1950
74415W        W17509  17.801  18.690  16.584  0.0902 -0.1715 -0.1447
74416W        W17510  15.246  14.963  16.381 -0.5526 -0.0647  0.2724
74417W        W17511  16.871  17.540  15.403  0.0300 -0.0621 -0.0470
74418W        W17512  17.146  14.812  16.851 -0.1444  0.0349 -0.2186
74419W        W17513  15.204  20.178  16.572 -0.3422 -0.1664  0.2000
74420W        W17514  16.418  15.921  16.475 -0.0820 -0.0606  0.2037
74421W        W17515  17.321  17.888  16.241  0.0485 -0.0276  0.1391
74422W        W17516  14.824  15.619  16.737 -0.2634 -0.1003  0.1965
74423W        W17517  16.344  18.387  18.280 -0.0135 -0.4829  0.5092
74424W        W17518  19.629  17.722  16.059  0.3060  0.3674  0.0945
74425W        W17519  17.777  15.612  16.075  0.1555 -0.0836 -0.1558
74426W        W17520  13.449  17.168  17.020 -0.1203  0.1783  0.2840
74427W        W17521  13.234  18.452  16.976  0.2231 -0.0533 -0.0073
74428W        W17522  17.950  15.138  16.076  0.2454 -0.1996 -0.2673
74429W        W17523  17.205  15.581  16.107  0.2384  0.1809 -0.0825
74430W        W17524  15.566  17.399  15.220 -0.0257 -0.0310  0.2045
74431W        W17525  17.005  13.519  17.625  0.0965  0.1421 -0.0704
74432W        W17526  15.740  18.471  17.654  0.2771  0.0793 -0.0380
74433W        W17527  13.499  18.922  18.457  0.1494  0.2300  0.1318
74434W        W17528  14.689  16.927  15.521 -0.0097  0.1219  0.2011
74435W        W17529  14.497  17.091  18.122  0.4394  0.0019  0.0596
74436W        W17530  15.352  15.914  16.603 -0.0953 -0.0203 -0.1571
74437W        W17531  15.597  18.330  16.343 -0.0841 -0.0034 -0.0459
74438W        W17532  17.456  17.271  16.069 -0.0920 -0.0397 -0.3938
74439W        W17533  15.452  16.915  16.249 -0.0696  0.0531 -0.2069
74440W        W17534  19.796  17.826  16.538 -0.1658  0.3061 -0.2200
74441W        W17535  14.877  15.148  17.559 -0.1144  0.0441  0.0893
74442W        W17536  18.636  14.650  15.833 -0.1080  0.2112 -0.1502
74443W        W17537  17.067  15.117  16.420 -0.1659  0.2082 -0.0422
74444W        W17538  14.621  18.081  18.444 -0.0555 -0.0545  0.0503
74445W        W17539  15.526  15.463  15.664 -0.2586 -0.0360 -0.0400
74446W        W17540  14.578  18.331  17.001 -0.3745  0.0314 -0.1828
74447W        W17541  14.148  17.425  17.126 -0.1473 -0.0830 -0.1157
74448W        W17542  16.070  14.662  17.870  0.1550  0.1647 -0.1474
74449W        W17543  13.749  15.077  17.787 -0.0072  0.0998 -0.2848
74450W        W17544  13.364  17.652  17.449  0.4527  0.1609  0.2200
74451W        W17545  16.033  14.188  15.575 -0.4092  0.1817  0.1872
74452W        W17546  15.752  19.648  16.982  0.0398  0.2314  0.1514
74453W        W17547  14.696  15.282  16.440  0.0868  0.0379 -0.0354
74454W        W17548  15.754  15.255  16.556 -0.1893 -0.0763  0.0272
74455W        W17549  16.251  18.007  15.811  0.1323  0.1213 -0.3004
74456W        W17550  17.690  19.207  15.379 -0.3882 -0.3574  0.0126
74457W        W17551  16.362  15.152  15.386 -0.2461  0.0505  0.2348
74458W        W17552  17.669  17.797  16.875 -0.1338  0.2178 -0.0626
74459W        W17553  13.932  18.536  15.888 -0.1769  0.0338  0.2854
74460W        W17554  15.829  15.932  17.820 -0.2849 -0.2240 -0.1392
74461W        W17555  15.140  16.386  18.077  0.2409 -0.1119 -0.2437
74462W        W17556  14.166  15.208  14.871  0.3364  0.1085 -0.1952
74463W        W17557  15.866  16.789  16.610 -0.2218 -0.0749  0.0615
74464W        W17558  15.493  17.445  16.057  0.1208  0.2300  0.0925
74465W        W17559  16.114  18.161  16.305  0.1947  0.3685  0.2882
74466W        W17560  15.593  16.811  17.321 -0.3139  0.2141 -0.2842
74467W        W17561  14.664  19.378  18.593 -0.0078 -0.1256 -0.2120
74468W        W17562  14.512  14.844  17.421  0.1965 -0.0908  0.1522
74469W        W17563  16.757  16.697  15.805  0.1123 -0.0195  0.1795
74470W        W17564  15.856  17.097  17.032 -0.2125 -0.1242  0.0693
74471W        W17565  16.849  17.807  15.815 -0.3407 -0.0871 -0.2247
74472W        W17566  17.295  15.557  16.568 -0.0130 -0.3742 -0.0669
74473W        W17567  17.051  16.160  15.797  0.0472 -0.1072  0.0331
74474W        W17568  13.913  14.855  17.317  0.0668  0.2867 -0.1000
74475W        W17569  13.682  18.081  17.392 -0.1412 -0.5414  0.0536
74476W        W17570  17.609  15.715  16.888  0.1014  0.0721 -0.1166
74477W        W17571  14.213  12.868  17.030 -0.1083  0.1426  0.1547
74478W        W17572  15.068  15.915  17.070  0.1478  0.0794  0.0446
74479W        W17573  16.013  17.913  16.769 -0.0566 -0.0690  0.1959
74480W        W17574  14.346  15.472  16.877 -0.0402  0.0753 -0.5028
74481W        W17575  15.926  15.340  15.458 -0.1926 -0.0867  0.0583
74482W        W17576  16.169  16.367  16.524  0.2668 -0.1139  0.1111
74483W        W17577  15.023  18.820  17.255 -0.3081  0.1212  0.2992
74484W        W17578  17.057  16.661  17.230 -0.0135 -0.0823 -0.2370
74485W        W17579  16.035  16.615  16.000 -0.0728  0.0211  0.1278
74486W        W17580  18.312  16.498  15.415  0.3091  0.0731 -0.4054
74487W        W17581  14.300  20.062  18.334  0.1124  0.0492 -0.2947
74488W        W17582  16.326  17.861  17.628 -0.3223 -0.0092  0.0878
74489W        W17583  16.071  17.697  17.187  0.1065  0.0304 -0.2297
74490W        W17584  17.891  16.309  16.322  0.1087 -0.0792 -0.3239
74491W        W17585  14.287  14.801  18.212 -0.1452  0.1101  0.0757
74492W        W17586  15.272  14.319  15.360 -0.0460  0.0834  0.0791
74493W        W17587  15.034  17.641  16.145  0.0045 -0.0907  0.3826
74494W        W17588  17.145  14.745  16.081  0.1951  0.1723  0.1303
74495W        W17589  14.479  15.838  17.229 -0.1264 -0.2953  0.2812
74496W        W17590  17.181  15.697  15.608  0.1056  0.0468  0.0904
74497W        W17591  15.789  17.922  17.648 -0.1147  0.2007  0.1814
74498W        W17592  16.332  18.831  17.372 -0.0468  0.2665 -0.1876
74499W        W17593  14.587  17.343  19.444 -0.0527  0.0287  0.1323
74500W        W17594  14.210  16.906  17.529  0.1297 -0.1817 -0.1394
74501W        W17595  17.756  15.607  17.974  0.0654  0.2425 -0.0844
74502W        W17596  18.476  17.361  17.306  0.2112  0.1166 -0.0284
74503W        W17597  14.691  15.311  19.246 -0.0826  0.2467 -0.2432
74504W        W17598  15.864  16.919  17.754  0.1166  0.0216 -0.0986
74505W        W17599  15.117  13.297  20.740  0.0498 -0.0124 -0.0955
74506W        W17600  17.213  17.166  18.248  0.3238 -0.2236 -0.1984
74507W        W17601  18.079  18.344  19.286  0.1415 -0.4633 -0.0302
74508W        W17602  14.032  17.303  17.773 -0.0664 -0.3523 -0.2614
74509W        W17603  16.031  15.132  19.806  0.2934 -0.2726  0.2139
74510W        W17604  15.551  18.363  19.907  0.0544  0.0736  0.2669
74511W        W17605  14.402  15.442  18.247 -0.3944  0.0012  0.0375
74512W        W17606  15.679  12.701  20.063  0.1263  0.1007 -0.0488
74513W        W17607  14.334  15.726  19.367 -0.2396  0.2150  0.3257
74514W        W17608  13.912  15.385  20.337  0.0733  0.0093 -0.0847
74515W        W17609  15.710  16.346  18.810  0.2564  0.3098 -0.0535
74516W        W17610  16.281  17.480  18.152 -0.2437  0.1899 -0.1480
74517W        W17611  15.832  13.733  20.465  0.1402  0.2619  0.2609
74518W        W17612  16.275  13.991  19.575  0.3315  0.2075  0.1028
74519W        W17613  15.521  18.110  18.629 -0.0583  0.0809 -0.0323
74520W        W17614  14.519  14.944  16.903 -0.0489 -0.2786  0.0257
74521W        W17615  14.197  14.723  19.908 -0.2402 -0.1220  0.2665
74522W        W17616  15.892  15.880  18.835 -0.1245  0.0315  0.2699
74523W        W17617  14.986  17.647  19.290 -0.3031  0.1822  0.0136
74524W        W17618  15.620  18.605  18.509 -0.1439  0.0386 -0.1570
74525W        W17619  17.453  14.899  19.954  0.2225  0.0331  0.4535
74526W        W17620  12.833  17.821  20.299 -0.0826  0.0093  0.0029
74527W        W17621  13.243  18.164  20.594  0.1706 -0.0293  0.0930
74528W        W17622  14.751  16.790  19.593  0.0846  0.1670  0.3488
74529W        W17623  18.227  17.911  18.229  0.4477  0.0979 -0.4104
74530W        W17624  17.299  18.572  20.019 -0.1409  0.1141  0.1356
74531W        W17625  16.303  19.023  20.674  0.0661  0.1301 -0.1538
74532W        W17626  13.819  16.137  18.603 -0.1156  0.1518 -0.1472
74533W        W17627  16.424  18.291  20.279 -0.0171  0.0929  0.0380
74534W        W17628  14.998  19.388  19.897  0.1273  0.3236  0.2500
74535W        W17629  16.221  16.465  18.746  0.1527 -0.0604  0.3108
74536W        W17630  16.115  15.573  17.988 -0.1186 -0.2298  0.0375
74537W        W17631  15.683  18.352  19.018 -0.2176 -0.0272 -0.3000
74538W        W17632  16.355  16.000  18.592  0.0910  0.1502 -0.1557
74539W        W17633  14.013  17.731  18.923 -0.1886 -0.0845  0.2576
74540W        W17634  17.973  14.437  20.546  0.2759 -0.3566 -0.0541
74541W        W17635  12.572  16.929  18.422  0.0317 -0.1377 -0.0312
74542W        W17636  17.987  15.144  17.035 -0.2699 -0.0275  0.2792
74543W        W17637  14.711  16.629  17.587 -0.0752  0.0039  0.1844
74544W        W17638  17.584  15.151  17.816 -0.0418  0.1952 -0.0440
74545W        W17639  15.564  13.466  19.179  0.1229  0.0869  0.1469
74546W        W17640  14.601  19.231  19.522  0.3974 -0.3359  0.2784
74547W        W17641  14.998  15.535  18.883  0.1176  0.1738  0.1625
74548W        W17642  18.350  16.564  21.059  0.0599  0.0057 -0.0567
74549W        W17643  15.568  15.435  18.808 -0.1949  0.1588  0.3540
74550W        W17644  14.301  18.215  19.233 -0.1597 -0.1415  0.0337
74551W        W17645  15.873  17.297  19.147  0.1817 -0.0200  0.2853
74552W        W17646  18.101  17.718  17.379  0.0267  0.5782  0.0396
74553W        W17647  14.841  15.576  17.968 -0.2035 -0.0861  0.0606
74554W        W17648  15.551  16.145  18.334 -0.1182 -0.0783 -0.0112
74555W        W17649  14.003  17.213  18.739 -0.1480  0.0847 -0.2732
74556W        W17650  13.171  14.883  20.561 -0.2108  0.1344  0.3641
74557W        W17651  14.753  12.885  17.169  0.1676 -0.2465 -0.0902
74558W        W17652  13.592  17.391  19.722  0.1269 -0.0919  0.0002
74559W        W17653  14.924  16.782  18.919  0.0666  0.2355  0.0605
74560W        W17654  16.336  16.729  16.847 -0.3234 -0.0833 -0.1152
74561W        W17655  17.175  14.450  18.394  0.1569 -0.2714  0.3447
74562W        W17656  17.310  14.356  18.986 -0.0264 -0.1806 -0.0948
74563W        W17657  14.360  17.605  18.566 -0.1140  0.0963  0.3161
74564W        W17658  15.370  17.223  19.121 -0.5006  0.0043  0.0112
74565W        W17659  17.034  17.632  20.142 -0.0017 -0.1953 -0.0477
74566W        W17660  19.632  16.106  17.301  0.1514  0.1722  0.3003
74567W        W17661  15.386  18.053  19.364  0.2390  0.0560  0.1039
74568W        W17662  14.551  14.997  20.012 -0.3619 -0.2113 -0.1214
74569W        W17663  16.415  18.197  19.732  0.1478 -0.0557  0.2770
74570W        W17664  14.629  17.740  18.942  0.1431 -0.0588  0.4821
74571W        W17665  13.138  18.187  18.908  0.1500  0.1827  0.3104
74572W        W17666  12.578  17.449  18.625  0.0353 -0.0151  0.0609
74573W        W17667  13.859  13.961  20.552  0.0948  0.1510  0.0254
74574W        W17668  15.090  17.094  19.457  0.1761  0.1968 -0.2853
74575W        W17669  17.484  14.599  17.858  0.0951  0.0407  0.1530
74576W        W17670  13.234  13.930  20.369 -0.0796 -0.0395  0.1383
74577W        W17671  15.426  16.773  18.169 -0.0195  0.1466 -0.1203
74578W        W17672  16.645  14.801  17.546  0.2184  0.0838 -0.1138
74579W        W17673  15.201  16.591  17.605  0.1391 -0.1397 -0.1440
74580W        W17674  13.777  16.889  19.441 -0.3570  0.2583  0.0246
74581W        W17675  14.753  15.723  18.529  0.3845  0.0554 -0.2879
74582W        W17676  14.755  15.028  20.475  0.1509 -0.2067 -0.3483
74583W        W17677  14.393  14.973  19.455 -0.0111 -0.1914  0.1959
74584W        W17678  19.080  15.635  20.679 -0.0109 -0.0340 -0.1793
74585W        W17679  14.627  14.593  17.856 -0.0789 -0.4136  0.2424
74586W        W17680  16.871  15.238  18.797  0.3098  0.0344  0.3800
74587W        W17681  13.152  17.534  19.995  0.0383 -0.1027 -0.0406
74588W        W17682  13.416  15.112  18.346  0.0601 -0.2690  0.0886
74589W        W17683  15.877  17.589  18.595  0.1472 -0.0425 -0.1405
74590W        W17684  15.292  14.363  19.488  0.1433 -0.3257  0.1706
74591W        W17685  14.007  14.910  19.107  0.2470  0.1792  0.3686
74592W        W17686  14.450  19.211  20.766 -0.0171  0.1119  0.1251
74593W        W17687  14.927  17.304  18.899  0.2819  0.2773 -0.0311
74594W        W17688  14.733  16.602  18.462  0.0605 -0.2055  0.3142
74595W        W17689  16.332  17.040  19.129  0.1106  0.0790  0.2136
74596W        W17690  13.968  16.440  19.822 -0.1109 -0.3443  0.0607
74597W        W17691  17.132  13.917  19.276 -0.0759 -0.1750  0.0825
74598W        W17692  14.098  12.885  18.416  0.0653  0.3119  0.0176
74599W        W17693  17.133  18.703  18.347  0.0804  0.1441  0.2400
74600W        W17694  12.680  18.025  18.636  0.0790  0.0368 -0.0596
74601W        W17695  14.205  14.508  18.710 -0.1558  0.3806  0.0747
74602W        W17696  14.727  17.791  19.739 -0.2207 -0.1947  0.1870
74603W        W17697  18.261  14.101  19.167 -0.0452 -0.2448  0.1254
74604W        W17698  13.657  16.697  18.598 -0.1578 -0.1816  0.0832
74605W        W17699  12.864  15.054  19.170  0.0950 -0.1338 -0.0086
74606W        W17700  15.234  17.991  19.839 -0.1726  0.3438  0.0094
74607W        W17701  17.888  13.984  17.839 -0.2174 -0.1118 -0.0359
74608W        W17702  18.244  14.353  17.663  0.0871 -0.0877  0.0478
74609W        W17703  17.059  17.432  19.679  0.0633  0.0708  0.0370
74610W        W17704  17.327  16.739  18.000  0.1028  0.0093 -0.2013
74611W        W17705  16.856  15.234  17.967 -0.3253  0.0895  0.2715
74612W        W17706  16.968  14.663  17.964 -0.3465  0.2221 -0.1665
74613W        W17707  13.655  18.481  20.536 -0.0110 -0.1405 -0.1872
74614W        W17708  16.076  16.322  19.216 -0.0632 -0.1784  0.2005
74615W        W17709  16.290  17.567  19.020 -0.2808  0.1827 -0.0771
74616W        W17710  15.078  15.655  17.507 -0.0747 -0.1707  0.0402
74617W        W17711  18.775  17.328  17.734  0.0354 -0.0336  0.0921
74618W        W17712  15.602  16.098  19.268  0.0310 -0.2815  0.2243
74619W        W17713  16.611  18.786  18.363  0.1140  0.2199 -0.0340
74620W        W17714  15.440  14.849  19.615 -0.2255 -0.1519  0.0281
74621W        W17715  14.978  16.164  17.500  0.2347 -0.2226 -0.0882
74622W        W17716  16.179  14.695  18.375 -0.0397  0.1326  0.0657
74623W        W17717  14.493  20.072  19.659 -0.1322 -0.0765 -0.0743
74624W        W17718  16.461  15.085  18.543 -0.2951 -0.1097 -0.1599
74625W        W17719  16.562  13.436  19.586 -0.1000 -0.2018  0.0144
74626W        W17720  17.563  14.954  17.330  0.2289 -0.2798 -0.0181
74627W        W17721  14.147  16.374  17.282 -0.4290  0.1799  0.1085
74628W        W17722  16.758  14.382  19.396  0.2181 -0.0590  0.1533
74629W        W17723  15.174  16.758  19.847  0.2085 -0.1965  0.2407
74630W        W17724  14.447  17.450  19.966  0.1538  0.0714 -0.1800
74631W        W17725  16.742  17.848  19.813 -0.0353  0.0946  0.0874
74632W        W17726  17.554  16.706  18.391 -0.0661 -0.5677  0.0834
74633W        W17727  16.366  15.973  17.942 -0.1544  0.2945 -0.3282
74634W        W17728  13.812  18.282  19.175 -0.0678  0.2285 -0.2911
74635W        W17729  13.669  18.128  18.701  0.0739  0.6108 -0.0026
74636W        W17730  15.107  13.359  19.357 -0.2182  0.1201 -0.5655
74637W        W17731  14.491  18.548  18.442  0.0704 -0.0346 -0.1351
74638W        W17732  15.077  18.000  18.874 -0.1437  0.1028  0.0092
74639W        W17733  13.505  19.107  20.313 -0.1237 -0.0745 -0.2086
74640W        W17734  14.231  15.139  17.799 -0.2967 -0.0819  0.0272
74641W        W17735  14.696  16.306  19.334  0.2120 -0.2642 -0.1035
74642W        W17736  17.649  14.592  18.639  0.0694  0.1464  0.1431
74643W        W17737  18.396  16.475  17.225  0.3349 -0.1740  0.1430
74644W        W17738  15.004  15.317  19.611  0.1993  0.0267 -0.2386
74645W        W17739  12.948  17.130  19.845  0.1207 -0.0027 -0.2775
74646W        W17740  15.964  15.148  18.239  0.0274 -0.1899 -0.2855
74647W        W17741  13.803  14.264  18.387  0.0348  0.1046 -0.0252
74648W        W17742  15.947  15.219  19.252 -0.0182  0.2727  0.3247
74649W        W17743  13.641  17.914  19.544 -0.0206  0.2437 -0.1126
74650W        W17744  15.948  18.392  20.102  0.1229  0.0993 -0.3553
74651W        W17745  14.944  14.866  19.370  0.0683  0.0394 -0.0778
74652W        W17746  13.641  18.953  19.758 -0.1591 -0.1697  0.4205
74653W        W17747  15.319  15.669  19.983 -0.3224  0.0227 -0.1578
74654W        W17748  17.786  16.819  20.005  0.1751 -0.0788  0.0466
74655W        W17749  15.285  15.652  19.267 -0.0633  0.0204 -0.1021
74656W        W17750  15.112  14.091  18.694 -0.4157 -0.0987 -0.0561
74657W        W17751  14.643  16.151  18.195 -0.0838 -0.0195 -0.0292
74658W        W17752  16.173  14.781  19.417 -0.1918 -0.0607 -0.2602
74659W        W17753  14.355  17.879  20.186 -0.0969  0.1529 -0.0027
74660W        W17754  15.843  14.137  19.184 -0.0324 -0.2859 -0.0010
74661W        W17755  18.490  18.294  18.244  0.2636  0.0338  0.2617
74662W        W17756  15.497  17.060  18.681  0.2832 -0.2599 -0.3487
74663W        W17757  12.742  15.802  19.341  0.0889  0.0645  0.0760
74664W        W17758  13.490  18.422  18.325 -0.1954  0.0492  0.0667
74665W        W17759  16.126  15.483  18.577  0.3282  0.1767  0.1335
74666W        W17760  14.332  16.153  19.719 -0.1711  0.0456  0.1963
74667W        W17761  15.384  17.588  18.673  0.1174  0.0752  0.1560
74668W        W17762  14.554  16.895  19.159  0.2352  0.2810 -0.0149
74669W        W17763  18.673  14.701  17.169 -0.1208 -0.0310 -0.0663
74670W        W17764  15.815  17.499  17.973 -0.1494 -0.0458  0.0419
74671W        W17765  15.201  15.238  17.902 -0.0476 -0.2318  0.0459
74672W        W17766  16.768  17.055  17.260 -0.1263  0.0993 -0.0475
74673W        W17767  16.427  13.703  20.955  0.0225  0.1361 -0.3925
74674W        W17768  14.719  13.629  20.520 -0.2859 -0.1718 -0.0540
74675W        W17769  17.732  17.047  17.973 -0.3418  0.2149  0.1431
74676W        W17770  12.746  15.620  20.250 -0.0803  0.0586 -0.2093
74677W        W17771  15.408  15.914  18.792 -0.2546 -0.0832  0.2179
74678W        W17772  14.528  14.108  18.679 -0.0940 -0.1016  0.2202
74679W        W17773  16.137  15.807  19.461  0.1968 -0.1242  0.3363
74680W        W17774  15.357  17.388  18.213 -0.1009  0.0195  0.0658
74681W        W17775  17.489  15.929  18.227  0.0745 -0.1567 -0.1412
74682W        W17776  14.820  16.318  19.877  0.0362  0.0343 -0.1183
74683W        W17777  17.293  15.958  17.737 -0.2611 -0.1708  0.0642
74684W        W17778  15.859  16.644  18.440  0.0801 -0.0733 -0.1783
74685W        W17779  16.545  15.569  18.227  0.0240 -0.0505  0.1973
74686W        W17780  16.071  13.348  20.314 -0.0390 -0.0391  0.0678
74687W        W17781  16.491  14.853  17.981 -0.2060 -0.1084  0.1079
74688W        W17782  16.644  15.858  19.568  0.0301 -0.1978 -0.3019
74689W        W17783  15.807  15.366  20.202 -0.1795  0.0853  0.1704
74690W        W17784  14.033  14.594  20.345  0.0299  0.0554  0.2151
74691W        W17785  17.052  15.719  18.095 -0.1604 -0.1450  0.1533
74692W        W17786  18.499  14.910  19.655 -0.2028  0.0026 -0.2333
74693W        W17787  15.478  16.131  17.557 -0.1193 -0.0325 -0.3804
74694W        W17788  13.077  15.720  19.703 -0.2199 -0.0852  0.0172
74695W        W17789  17.910  16.288  20.849  0.1214  0.3563  0.2188
74696W        W17790  15.004  14.215  19.930 -0.2038 -0.1665  0.1656
74697W        W17791  17.743  14.624  19.642  0.1163  0.1675  0.0133
74698W        W17792  16.121  17.964  18.108 -0.0009  0.2759 -0.1221
74699W        W17793  17.181  17.192  17.773  0.2210 -0.3034  0.2473
74700W        W17794  15.593  14.901  17.927  0.0878 -0.1609 -0.1357
74701W        W17795  13.711  15.728  20.060 -0.2580  0.0584 -0.0601
74702W        W17796  15.011  18.745  19.418 -0.1476 -0.1130  0.2295
74703W        W17797  14.261  15.541  18.843 -0.2458 -0.2027  0.3011
74704W        W17798  13.856  17.416  18.194  0.2228 -0.0259  0.2173
74705W        W17799  16.532  17.517  19.468 -0.1601  0.1100 -0.1676
74706W        W17800  15.187  13.585  18.775  0.0274 -0.0656  0.2147
74707W        W17801  12.814  16.871  18.851  0.1939  0.2347 -0.2211
74708W        W17802  14.729  18.615  20.421 -0.1442  0.0796 -0.2176
74709W        W17803  13.477  16.680  19.979 -0.1114  0.0809  0.1192
74710W        W17804  14.140  17.239  19.622  0.1537 -0.1394  0.1088
74711W        W17805  16.235  13.632  19.917  0.0529  0.0004  0.1476
74712W        W17806  17.689  15.965  19.071  0.0164 -0.0670  0.2082
74713W        W17807  15.954  17.706  19.472  0.3483 -0.0276 -0.2335
74714W        W17808  18.232  15.724  19.267 -0.2596  0.0631  0.3828
74715W        W17809  16.668  17.316  19.950  0.2682 -0.0943  0.1452
74716W        W17810  15.281  16.583  18.650  0.2833  0.0209  0.3960
74717W        W17811  13.442  17.839  19.130  0.0753  0.2309 -0.0101
74718W        W17812  14.403  16.462  20.170  0.0760 -0.1530 -0.0486
74719W        W17813  16.273  15.378  21.180  0.2920  0.1349  0.3577
74720W        W17814  17.302  16.095  18.728  0.0284 -0.1985 -0.0683
74721W        W17815  15.427  14.369  18.937 -0.4738 -0.0690 -0.2141
74722W        W17816  16.305  16.991  18.265 -0.4242  0.3754 -0.0977
74723W        W17817  13.987  17.633  19.966  0.2653 -0.3077  0.1255
74724W        W17818  13.884  15.942  19.512 -0.1443 -0.4114  0.3157
74725W        W17819  13.674  18.800  19.227 -0.0758  0.2647 -0.0922
74726W        W17820  17.184  17.905  16.997 -0.1867 -0.2840 -0.4238
74727W        W17821  15.943  16.268  17.482 -0.0648  0.3666 -0.0000
74728W        W17822  16.041  17.972  19.046  0.0131 -0.0960 -0.2183
74729W        W17823  13.926  15.194  18.235  0.2014 -0.1006  0.2056
74730W        W17824  14.943  18.396  19.732  0.1279  0.0113  0.1522
74731W        W17825  12.579  19.385  18.640 -0.3722  0.3200  0.0304
74732W        W17826  16.222  16.529  17.949 -0.0806  0.0248  0.1660
74733W        W17827  14.065  18.574  19.510  0.1412 -0.5049  0.2945
74734W        W17828  18.687  15.899  20.512  0.2623  0.0878  0.2485
74735W        W17829  15.293  15.895  17.995  0.0003 -0.0825  0.0605
74736W        W17830  19.444  16.445  19.354 -0.2172  0.0475  0.3635
74737W        W17831  17.911  14.801  17.663  0.4740  0.3113 -0.0491
74738W        W17832  15.044  16.055  19.145 -0.0006 -0.2843  0.0106
74739W        W17833  13.983  15.684  18.417 -0.0738 -0.2299  0.2260
74740W        W17834  14.777  15.840  20.227 -0.0568  0.3518 -0.0351
74741W        W17835  14.494  18.603  21.386  0.0592 -0.0623  0.1359
74742W        W17836  16.412  19.202  18.029  0.0588  0.2464 -0.0387
74743W        W17837  12.939  14.256  18.335  0.2139  0.3256 -0.1325
74744W        W17838  13.966  16.800  19.000 -0.0227  0.0622 -0.0874
74745W        W17839  14.863  17.366  17.880  0.0622  0.0261 -0.1905
74746W        W17840  16.572  14.344  17.888  0.0342 -0.1991  0.2877
74747W        W17841  15.795  19.109  18.640 -0.1806 -0.0970  0.0761
74748W        W17842  14.311  17.356  19.049 -0.2704 -0.2391  0.1468
74749W        W17843  14.813  18.844  19.924 -0.1534  0.1279 -0.1706
74750W        W17844  13.919  14.061  19.515  0.0065  0.2958  0.0504
74751W        W17845  17.263  15.621  18.892 -0.0786  0.1096  0.0214
74752W        W17846  15.210  16.259  19.611 -0.5340  0.1289  0.1116
74753W        W17847  15.715  14.761  19.111 -0.1676 -0.0499  0.1710
74754W        W17848  15.959  14.262  18.225 -0.1711  0.4441  0.2320
74755W        W17849  16.357  16.284  19.618 -0.1087 -0.1629 -0.0704
74756W        W17850  14.233  15.745  19.964  0.0178 -0.2612 -0.1332
74757W        W17851  15.765  15.709  18.358  0.0736  0.1696  0.3095
74758W        W17852  17.878  16.072  20.293 -0.2960 -0.0741  0.2207
74759W        W17853  16.456  16.064  17.425 -0.1153  0.1528  0.2793
74760W        W17854  17.165  19.609  21.605  0.0858  0.1387  0.1956
74761W        W17855  13.571  14.006  19.906  0.2990 -0.1189 -0.1122
74762W        W17856  15.648  16.469  17.907  0.2036  0.1383 -0.3805
74763W        W17857  13.389  16.352  18.792 -0.0749  0.1649  0.3387
74764W        W17858  14.952  15.840  19.704 -0.0540  0.2552 -0.1706
74765W        W17859  16.523  17.775  20.338 -0.0424 -0.0272 -0.2400
74766W        W17860  14.690  14.497  19.665 -0.1222  0.1013  0.1828
74767W        W17861  16.479  17.053  17.731 -0.1374 -0.5515  0.2100
74768W        W17862  18.089  16.327  19.160  0.0040 -0.0253 -0.0778
74769W        W17863  14.844  18.152  19.289  0.2539 -0.0422  0.2744
74770W        W17864  17.923  16.600  17.990 -0.1050 -0.2442  0.2238
74771W        W17865  17.659  17.951  18.137  0.2076 -0.1175 -0.0906
74772W        W17866  13.591  15.240  19.976  0.1490  0.2129 -0.1342
74773W        W17867  16.385  14.242  18.535 -0.0383 -0.0787 -0.1801
74774W        W17868  15.242  15.650  18.417  0.2120 -0.1237  0.3749
74775W        W17869  12.536  17.320  20.103  0.1420  0.1884 -0.1249
74776W        W17870  15.011  18.145  17.267 -0.1890 -0.1747 -0.1387
74777W        W17871  18.788  14.017  20.296  0.0072  0.0831  0.1482
74778W        W17872  16.228  17.694  19.930  0.1818  0.0746 -0.2452
74779W        W17873  13.530  16.056  18.147  0.2618  0.3112  0.0668
74780W        W17874  15.683  16.682  20.069  0.0064  0.0747 -0.3067
74781W        W17875  14.687  18.422  18.898 -0.3201  0.0140 -0.2282
74782W        W17876  17.202  18.187  18.160  0.0031  0.3205  0.0986
74783W        W17877  16.611  16.396  18.322  0.3207  0.2229  0.1638
74784W        W17878  15.852  13.669  19.543  0.2562 -0.1132 -0.1674
74785W        W17879  17.930  14.486  18.100 -0.2846 -0.2444 -0.0129
74786W        W17880  15.563  17.052  19.643  0.1227 -0.2099  0.0597
74787W        W17881  13.703  15.719  19.020  0.3444  0.0707  0.2234
74788W        W17882  13.564  17.625  18.567 -0.1592  0.0888 -0.2363
74789W        W17883  13.419  17.312  18.976 -0.0180  0.4443 -0.0692
74790W        W17884  17.095  12.969  20.449  0.1319 -0.1454  0.2173
74791W        W17885  13.750  14.662  21.328 -0.4709 -0.1030 -0.0525
74792W        W17886  15.194  18.558  18.966  0.3475 -0.0405 -0.0868
74793W        W17887  15.360  15.143  19.201  0.0844 -0.0581 -0.1957
74794W        W17888  15.818  17.108  18.321  0.0693 -0.0079  0.0600
74795W        W17889  15.713  14.479  20.471  0.2183 -0.3733  0.0497
74796W        W17890  14.523  14.763  19.036  0.2325  0.1274 -0.1053
74797W        W17891  16.354  17.256  18.667 -0.1948  0.0626  0.0146
74798W        W17892  17.079  17.605  17.457 -0.1532 -0.0022 -0.1657
74799W        W17893  15.931  15.036  18.718  0.1289 -0.0819  0.1991
74800W        W17894  13.098  18.939  18.030  0.0667  0.2804  0.3414
74801W        W17895  16.007  14.191  20.140 -0.0124  0.3122 -0.2229
74802W        W17896  14.452  14.085  17.556  0.0692  0.1718  0.0968
74803W        W17897  14.574  15.493  19.716  0.1274 -0.1874 -0.3184
74804W        W17898  14.526  18.010  17.440 -0.1651  0.0856  0.2930
74805W        W17899  16.609  18.745  17.854  0.3357  0.1998 -0.0981
74806W        W17900  15.468  17.524  19.504  0.1559 -0.1196 -0.1160
74807W        W17901  15.538  18.161  20.341 -0.1291  0.1846  0.2935
74808W        W17902  14.127  13.042  20.142 -0.0126 -0.5314  0.2206
74809W        W17903  17.916  16.606  17.422  0.0528  0.1416 -0.2384
74810W        W17904  15.901  17.339  20.126 -0.0550 -0.0741 -0.2036
74811W        W17905  17.986  18.761  17.456  0.0340  0.0652 -0.3633
74812W        W17906  16.782  16.878  18.128  0.0717 -0.0143  0.1007
74813W        W17907  14.887  15.332  20.079 -0.1824  0.0794 -0.1655
74814W        W17908  15.356  14.815  18.765  0.0374  0.1891  0.4357
74815W        W17909  15.619  15.440  17.922  0.2530  0.1242 -0.2105
74816W        W17910  16.023  16.207  18.270 -0.1128  0.0021 -0.2883
74817W        W17911  13.342  16.819  18.995 -0.3687  0.2257  0.0312
74818W        W17912  15.975  16.927  18.812  0.0261 -0.1269 -0.0859
74819W        W17913  16.147  15.639  19.940  0.0596 -0.2691  0.1622
74820W        W17914  16.901  17.500  18.393 -0.2195  0.4260  0.3845
74821W        W17915  18.759  16.326  20.816  0.0374  0.1557  0.3090
74822W        W17916  15.609  16.803  19.101 -0.0852  0.4427 -0.0893
74823W        W17917  18.130  16.944  17.722 -0.1122 -0.0061  0.2921
74824W        W17918  17.661  19.094  19.019  0.0960 -0.0162  0.0858
74825W        W17919  17.502  17.917  20.722  0.1009 -0.2341 -0.2241
74826W        W17920  14.075  13.541  19.338 -0.1094  0.1911 -0.4112
74827W        W17921  14.216  15.113  18.655 -0.1340  0.1409  0.1239
74828W        W17922  15.250  16.485  19.142  0.0076 -0.0477 -0.0612
74829W        W17923  14.993  14.827  19.905 -0.1496 -0.1665  0.3001
74830W        W17924  16.474  13.723  18.764 -0.2490  0.0896  0.2251
74831W        W17925  15.898  18.166  19.576 -0.2557  0.2324 -0.1567
74832W        W17926  16.505  16.597  19.210 -0.0172  0.0026  0.1289
74833W        W17927  16.117  17.124  23.035  0.0450  0.0144 -0.0816
74834W        W17928  17.948  15.824  21.281  0.0786 -0.2945 -0.0383
74835W        W17929  17.659  15.288  21.339  0.2066  0.4487 -0.0374
74836W        W17930  13.621  14.693  22.477  0.0191  0.0991  0.2123
74837W        W17931  16.496  18.708  21.597 -0.0804 -0.1249  0.0455
74838W        W17932  15.955  13.229  24.323 -0.3624  0.1565 -0.0137
74839W        W17933  18.298  17.065  22.577  0.0421  0.1341  0.1017
74840W        W17934  16.735  15.328  22.690 -0.2654  0.0400  0.3060
74841W        W17935  14.871  14.380  20.938  0.1024 -0.0607  0.2328
74842W        W17936  14.207  14.831  23.799 -0.2281  0.1242  0.1363
74843W        W17937  17.642  15.377  22.883  0.1208  0.0827  0.1087
74844W        W17938  15.665  14.629  21.659 -0.2862  0.1505 -0.3430
74845W        W17939  16.730  19.637  21.378  0.3051 -0.0389  0.0795
74846W        W17940  16.685  13.849  23.278 -0.1583 -0.1170 -0.1370
74847W        W17941  17.021  13.995  23.587  0.0873  0.0801 -0.5087
74848W        W17942  16.067  17.950  20.420  0.1253 -0.6250  0.0982
74849W        W17943  15.119  14.690  22.308  0.2364 -0.0630  0.0968
74850W        W17944  17.614  15.468  22.432  0.0341  0.0423 -0.3254
74851W        W17945  16.896  16.520  20.998  0.0704  0.1139  0.1720
74852W        W17946  16.484  17.707  22.153 -0.1098  0.1612  0.1531
74853W        W17947  17.610  15.458  23.771 -0.2413  0.2055 -0.1222
74854W        W17948  14.883  16.341  22.563  0.1050  0.1864 -0.3269
74855W        W17949  14.281  19.801  21.758 -0.0269  0.1343 -0.1480
74856W        W17950  15.739  18.747  20.943  0.0945 -0.1625 -0.1414
74857W        W17951  18.574  17.520  21.046 -0.0980 -0.0581 -0.2645
74858W        W17952  16.794  17.927  23.485  0.0357 -0.2527  0.2559
74859W        W17953  15.825  17.403  23.416  0.0973  0.0614  0.0082
74860W        W17954  16.283  15.850  22.211 -0.0987 -0.2226 -0.0141
74861W        W17955  14.864  17.851  21.038 -0.1566  0.2642  0.1018
74862W        W17956  16.756  16.995  22.836 -0.0461  0.4188 -0.0874
74863W        W17957  15.563  17.160  24.908  0.2923 -0.1116 -0.1240
74864W        W17958  14.699  18.096  20.564  0.2228 -0.1810 -0.0036
74865W        W17959  15.518  14.554  20.024  0.0602  0.0268  0.1031
74866W        W17960  15.910  13.730  21.449 -0.0482 -0.0888 -0.0324
74867W        W17961  18.264  16.674  22.978 -0.0112  0.2426  0.2608
74868W        W17962  15.997  15.810  20.394 -0.0989 -0.0213 -0.2161
74869W        W17963  17.021  15.721  22.424  0.0837  0.0091  0.0619
74870W        W17964  15.378  17.609  23.735  0.2467 -0.1957 -0.0443
74871W        W17965  14.755  15.548  22.175 -0.1305 -0.1066 -0.1654
74872W        W17966  17.502  18.186  20.309 -0.3204  0.0665  0.1005
74873W        W17967  16.729  17.813  21.035 -0.3871  0.0398  0.0984
74874W        W17968  15.832  13.144  20.789 -0.0673 -0.1646 -0.2262
74875W        W17969  18.977  16.734  23.729 -0.0252  0.2313 -0.3017
74876W        W17970  13.137  17.245  24.258 -0.1218  0.3434 -0.2872
74877W        W17971  18.548  14.240  23.022  0.0736  0.1559  0.0346
74878W        W17972  16.524  16.370  21.316 -0.2832 -0.3870 -0.2170
74879W        W17973  18.792  16.702  23.001 -0.0730 -0.1900 -0.0200
74880W        W17974  18.213  13.560  22.850  0.0450  0.2343 -0.3545
74881W        W17975  15.488  15.844  20.430 -0.0683  0.0463 -0.1722
74882W        W17976  15.704  15.520  20.825 -0.1325 -0.1150 -0.1879
74883W        W17977  18.411  17.294  22.985  0.2109 -0.1845 -0.0698
74884W        W17978  18.386  15.514  20.212  0.2131  0.3201  0.1034
74885W        W17979  13.966  18.478  22.136  0.1620 -0.3019 -0.0657
74886W        W17980  16.454  14.947  22.870 -0.1980 -0.0064  0.1456
74887W        W17981  13.830  19.316  20.991 -0.1751 -0.0170 -0.1424
74888W        W17982  14.850  16.561  23.458 -0.0064 -0.1599 -0.1412
74889W        W17983  14.462  16.757  21.420 -0.1861  0.0476  0.0183
74890W        W17984  14.288  14.324  24.858 -0.0255 -0.2818  0.4108
74891W        W17985  15.501  16.927  23.426 -0.3752 -0.3186  0.3138
74892W        W17986  18.040  14.875  21.680  0.0996 -0.3062  0.1201
74893W        W17987  15.501  14.119  23.703 -0.0856 -0.0838 -0.3269
74894W        W17988  18.558  13.849  22.654 -0.0819 -0.0254 -0.0255
74895W        W17989  18.084  14.834  20.739 -0.1238 -0.0440  0.0839
74896W        W17990  14.626  14.604  22.147 -0.2406 -0.1542  0.1460
74897W        W17991  15.792  14.677  23.977  0.0485 -0.1844  0.0592
74898W        W17992  14.853  14.214  23.060 -0.3742  0.0096  0.1872
74899W        W17993  15.106  14.571  20.344 -0.0116 -0.2114  0.1633
74900W        W17994  17.555  15.641  21.901  0.0061 -0.3404  0.1203
74901W        W17995  16.123  15.591  21.837 -0.1520 -0.0132  0.1846
74902W        W17996  14.169  16.579  21.739 -0.1570 -0.3888 -0.3050
74903W        W17997  18.424  14.523  23.436 -0.0032  0.2386  0.2399
74904W        W17998  17.139  18.796  21.359 -0.0129 -0.1343 -0.0478
74905W        W17999  18.410  18.961  23.180  0.1786  0.3601  0.1386
74906W        W18000  18.564  18.624  22.466  0.1342  0.0728 -0.3289
74907W        W18001  14.878  13.294  23.077  0.3158 -0.0228  0.3519
74908W        W18002  15.610  14.940  20.806  0.0631 -0.0264  0.0594
74909W        W18003  14.695  18.638  22.326 -0.0161 -0.1106 -0.4406
74910W        W18004  15.895  12.132  21.793  0.0579  0.2422  0.0882
74911W        W18005  16.142  15.763  20.869  0.3964 -0.3118 -0.4732
74912W        W18006  17.543  13.302  23.420  0.0879 -0.1061  0.0976
74913W        W18007  18.070  16.304  22.707 -0.0370  0.1908 -0.1063
74914W        W18008  14.464  14.426  21.228  0.2135  0.1311  0.0872
74915W        W18009  17.143  18.224  21.887  0.0887  0.0362  0.0052
74916W        W18010  16.902  17.763  21.863 -0.1824  0.1752  0.3331
74917W        W18011  17.089  15.804  24.127 -0.0627 -0.3767 -0.2531
74918W        W18012  18.108  14.456  21.040  0.1235 -0.2704 -0.1740
74919W        W18013  17.368  15.606  21.172  0.0313 -0.3823 -0.3606
74920W        W18014  15.072  17.360  24.916 -0.0303 -0.0475 -0.1436
74921W        W18015  16.907  18.050  21.509  0.2280 -0.1178 -0.1945
74922W        W18016  16.836  17.139  22.355 -0.2475 -0.0346  0.0709
74923W        W18017  16.055  14.694  20.765  0.3000  0.1763 -0.1735
74924W        W18018  18.645  18.031  21.279 -0.1090  0.0437 -0.2635
74925W        W18019  17.347  17.834  21.653 -0.1214 -0.2597  0.1654
74926W        W18020  15.821  14.072  23.259 -0.0567 -0.2526  0.0773
74927W        W18021  15.620  15.431  19.547 -0.1311 -0.1264 -0.2130
74928W        W18022  15.678  13.846  22.147 -0.1534 -0.1580  0.2168
74929W        W18023  15.156  18.289  21.665  0.2295  0.3869  0.3279
74930W        W18024  18.070  15.023  25.039  0.1967  0.2220  0.3872
74931W        W18025  17.016  13.818  22.279  0.3889 -0.1777  0.0518
74932W        W18026  17.791  13.619  23.890 -0.0831 -0.2865  0.3008
74933W        W18027  19.354  15.439  24.742  0.0853  0.0837  0.0221
74934W        W18028  15.396  15.108  20.055 -0.1518  0.2838 -0.0334
74935W        W18029  18.257  14.183  24.480 -0.0658 -0.1497  0.1517
74936W        W18030  17.128  16.419  21.513 -0.0777  0.1633 -0.0398
74937W        W18031  18.938  14.361  23.771  0.0919 -0.1599 -0.1080
74938W        W18032  14.029  18.641  21.101  0.0309  0.2377 -0.0543
74939W        W18033  15.496  17.107  20.189  0.2433  0.0796  0.0210
74940W        W18034  16.908  13.946  22.742 -0.1057 -0.1478  0.3486
74941W        W18035  16.211  16.922  22.533 -0.2585 -0.1759 -0.1014
74942W        W18036  18.739  13.785  24.065  0.1532  0.1040 -0.0596
74943W        W18037  15.991  15.180  20.651  0.1590 -0.1494  0.2505
74944W        W18038  16.530  13.994  22.308  0.2539  0.2681 -0.2720
74945W        W18039  15.842  14.157  22.738  0.0882  0.1050  0.5951
74946W        W18040  16.817  14.799  22.508  0.5482 -0.1136 -0.0289
74947W        W18041  14.026  17.452  22.620 -0.1724  0.0340 -0.0554
74948W        W18042  17.586  14.672  20.773 -0.0310  0.4216  0.0751
74949W        W18043  17.927  17.308  22.843  0.1402  0.2843 -0.3362
74950W        W18044  16.251  16.251  23.701  0.2396  0.2356 -0.1695
74951W        W18045  13.380  15.368  20.531 -0.1042 -0.1250  0.2289
74952W        W18046  15.527  14.970  22.103 -0.1185  0.4919 -0.3733
74953W        W18047  13.507  18.600  22.003 -0.0297 -0.0423 -0.0959
74954W        W18048  14.824  15.436  21.375 -0.3191 -0.2180  0.2524
74955W        W18049  15.377  18.070  21.192  0.0610  0.1754  0.1134
74956W        W18050  18.561  16.062  23.626  0.3011 -0.5428  0.0755
74957W        W18051  15.440  14.268  22.196  0.2318 -0.1076 -0.0186
74958W        W18052  14.837  14.869  21.333  0.0541  0.2417  0.0836
74959W        W18053  17.676  16.475  22.365 -0.1081  0.1127  0.0317
74960W        W18054  15.130  16.544  20.730 -0.0246 -0.2774  0.0859
74961W        W18055  14.870  15.114  22.439 -0.0303 -0.1218 -0.1064
74962W        W18056  14.750  17.321  22.353 -0.2563 -0.1706  0.2291
74963W        W18057  15.058  17.731  21.478 -0.2348 -0.6213 -0.1204
74964W        W18058  13.984  16.993  23.837 -0.0267  0.2555 -0.1788
74965W        W18059  18.616  14.298  20.898 -0.0732 -0.0817  0.0473
74966W        W18060  16.374  16.123  20.568  0.0266 -0.0474  0.4122
74967W        W18061  16.049  14.339  21.651 -0.0851 -0.0763 -0.1552
74968W        W18062  19.343  14.395  24.460 -0.1682 -0.1158 -0.0700
74969W        W18063  17.400  16.512  20.019  0.2974 -0.1387  0.1715
74970W        W18064  15.544  13.172  24.624 -0.1005 -0.0078  0.0019
74971W        W18065  13.487  14.398  24.143  0.1719 -0.0148  0.2724
74972W        W18066  15.690  16.608  23.828  0.0140 -0.0753  0.1021
74973W        W18067  15.911  14.324  22.213 -0.3718 -0.3250  0.0943
74974W        W18068  14.417  12.618  22.048 -0.2927 -0.0500  0.1912
74975W        W18069  15.543  17.193  23.864  0.0194  0.0136 -0.2566
74976W        W18070  16.697  16.894  21.399  0.1300  0.0593  0.0589
74977W        W18071  18.497  16.000  21.046  0.0608  0.1001  0.1268
74978W        W18072  16.264  14.189  23.413 -0.0788  0.1582 -0.1969
74979W        W18073  17.316  16.966  21.676 -0.2670  0.1774  0.0517
74980W        W18074  17.104  14.700  21.983  0.2616 -0.1266 -0.0573
74981W        W18075  17.942  14.171  23.200  0.1580 -0.0706 -0.1857
74982W        W18076  17.274  15.192  23.169 -0.2146 -0.3280  0.2558
74983W        W18077  14.679  14.732  24.734 -0.1095  0.1423  0.2136
74984W        W18078  19.166  16.078  20.923 -0.3435 -0.1069 -0.1097
74985W        W18079  19.435  14.923  22.894  0.0875  0.0726 -0.0624
74986W        W18080  17.719  16.442  21.374  0.2927 -0.2697 -0.0628
74987W        W18081  15.727  14.093  21.013 -0.1539  0.2665  0.1319
74988W        W18082  17.652  16.431  23.682  0.0952 -0.0308  0.2283
74989W        W18083  14.375  14.586  20.747  0.0152  0.1348  0.2872
74990W        W18084  17.034  15.475  23.726 -0.0669 -0.1281 -0.1408
74991W        W18085  16.057  18.467  20.602 -0.3727 -0.1174 -0.1076
74992W        W18086  17.589  16.970  22.229 -0.0660 -0.5773  0.2133
74993W        W18087  17.499  16.084  21.572  0.0259  0.0755  0.2280
74994W        W18088  14.385  15.112  22.419  0.1861  0.1273  0.0370
74995W        W18089  16.013  19.067  24.958 -0.0719  0.0379  0.2763
74996W        W18090  15.296  15.342  20.591 -0.2446  0.0231  0.2772
74997W        W18091  18.615  15.808  24.127 -0.0451  0.0218  0.1225
74998W        W18092  18.234  15.953  23.235  0.2841 -0.0834  0.0227
74999W        W18093  14.158  17.646  21.828  0.0680  0.0777 -0.1401
75000W        W18094  17.146  14.407  22.684 -0.0271  0.1015 -0.0348
75001W        W18095  15.389  17.866  22.598 -0.2921  0.2351  0.4679
75002W        W18096  15.307  16.378  23.604  0.0545  0.0768 -0.1309
75003W        W18097  15.507  17.828  21.750  0.1830 -0.0493 -0.1479
75004W        W18098  15.745  16.496  24.323 -0.2500  0.0492 -0.1393
75005W        W18099  18.542  16.128  22.747  0.4012 -0.0048 -0.2351
75006W        W18100  15.604  17.782  23.097  0.0826 -0.1537  0.2928
75007W        W18101  18.884  16.288  21.815 -0.0105 -0.1287 -0.0767
75008W        W18102  15.087  17.545  21.967  0.2341  0.2703  0.0987
75009W        W18103  14.402  15.784  24.468  0.1216 -0.0799  0.0458
75010W        W18104  16.093  15.658  24.489  0.1567  0.1826  0.1127
75011W        W18105  14.595  13.378  22.504  0.0443 -0.3167 -0.2549
75012W        W18106  16.782  18.331  25.260  0.4714 -0.0079 -0.0023
75013W        W18107  14.951  18.350  20.993 -0.2887  0.2776 -0.1185
75014W        W18108  15.363  14.246  20.721 -0.2748 -0.1260  0.2718
75015W        W18109  15.192  18.061  22.181  0.1686 -0.0442 -0.1004
75016W        W18110  13.366  18.497  21.054  0.2074  0.0175  0.3791
75017W        W18111  18.116  17.395  23.852  0.0956  0.1929 -0.2932
75018W        W18112  18.047  15.350  20.885 -0.0133 -0.1925 -0.0216
75019W        W18113  17.768  16.988  23.777  0.1856  0.2594  0.0822
75020W        W18114  16.035  16.893  23.532  0.3389 -0.1967  0.1940
75021W        W18115  14.878  14.122  20.440 -0.0763  0.1996  0.0152
75022W        W18116  15.709  15.345  24.178  0.0002  0.1243 -0.0298
75023W        W18117  19.241  13.559  24.041  0.2079  0.1118 -0.1176
75024W        W18118  15.337  18.612  24.975  0.0640 -0.0088 -0.0107
75025W        W18119  18.682  19.447  21.873  0.1211  0.0631  0.0120
75026W        W18120  13.021  14.892  21.505  0.0447  0.0404  0.0833
75027W        W18121  18.927  14.629  24.609 -0.3777 -0.0782 -0.0765
75028W        W18122  17.223  15.250  22.693 -0.2725  0.1167 -0.3283
75029W        W18123  15.676  19.839  21.109  0.1138  0.3113 -0.4271
75030W        W18124  16.377  17.352  22.614  0.0691  0.1937 -0.0450
75031W        W18125  15.231  15.209  21.160 -0.1681 -0.1009 -0.2806
75032W        W18126  17.396  13.827  24.430 -0.0283  0.0187  0.0462
75033W        W18127  16.436  14.921  20.603 -0.2411  0.0700  0.1433
75034W        W18128  18.143  15.794  20.619  0.0205  0.1933 -0.0763
75035W        W18129  17.574  17.859  23.448  0.0808 -0.2019  0.2993
75036W        W18130  15.379  13.864  22.950 -0.2938 -0.3897  0.2890
75037W        W18131  16.365  14.700  21.599  0.0139  0.0567  0.1412
75038W        W18132  15.396  16.355  22.637 -0.0847  0.1386  0.1583
75039W        W18133  15.349  12.394  23.600 -0.0385  0.3394 -0.0730
75040W        W18134  19.175  16.263  22.352 -0.0164  0.0747 -0.1111
75041W        W18135  15.439  18.718  20.361  0.2085  0.3703  0.1214
75042W        W18136  17.978  17.299  22.312  0.0004  0.0402 -0.0490
75043W        W18137  15.162  14.397  23.422 -0.0981 -0.0208 -0.0674
75044W        W18138  17.516  17.498  23.104 -0.1782 -0.0877  0.0424
75045W        W18139  15.697  16.059  23.006  0.2545  0.0786  0.0257
75046W        W18140  13.809  19.272  22.411  0.0321  0.0775 -0.1113
75047W        W18141  19.020  14.901  24.110 -0.0713 -0.1127 -0.0459
75048W        W18142  15.731  17.889  19.972  0.0363  0.0540  0.0521
75049W        W18143  18.896  14.465  25.275  0.0568 -0.1036 -0.2315
75050W        W18144  16.059  17.226  23.912 -0.2594 -0.2436 -0.5191
75051W        W18145  13.623  17.230  21.286  0.1002 -0.0579  0.2847
75052W        W18146  15.605  14.130  21.684 -0.1117 -0.0662  0.1640
75053W        W18147  18.183  14.533  22.006 -0.0573  0.1043  0.3485
75054W        W18148  16.708  13.890  21.835  0.1275 -0.1762 -0.1183
75055W        W18149  16.893  17.072  23.992 -0.1356  0.3242 -0.1719
75056W        W18150  13.523  16.276  21.052 -0.1791 -0.1672 -0.1735
75057W        W18151  14.317  16.845  19.897  0.1748  0.2182  0.0981
75058W        W18152  15.504  14.406  23.031 -0.0425  0.0434 -0.4812
75059W        W18153  13.946  15.118  21.584 -0.2828  0.1263 -0.0285
75060W        W18154  15.248  13.715  23.860 -0.2731  0.0204  0.0290
75061W        W18155  14.783  13.658  23.691  0.0200 -0.0900  0.1579
75062W        W18156  16.921  17.241  21.609 -0.0729  0.1027  0.2211
75063W        W18157  17.540  17.356  21.380 -0.0945 -0.0412 -0.0301
75064W        W18158  16.412  13.625  21.449 -0.3034 -0.0485  0.1066
75065W        W18159  18.241  17.956  23.742 -0.1821  0.2506  0.0942
75066W        W18160  14.321  16.950  20.380  0.1434 -0.0991 -0.0936
75067W        W18161  14.354  14.906  21.368 -0.0657  0.0205 -0.0266
75068W        W18162  16.186  14.641  22.407 -0.3296  0.0175 -0.1007
75069W        W18163  16.533  17.678  21.551  0.2113  0.1657  0.0756
75070W        W18164  16.874  18.095  20.205 -0.0894  0.1327 -0.1757
75071W        W18165  13.551  13.903  25.544  0.0284  0.1324 -0.0471
75072W        W18166  16.006  17.504  24.429 -0.0450  0.2135 -0.0502
75073W        W18167  18.535  14.041  23.583 -0.1242  0.2630 -0.1237
75074W        W18168  14.078  13.946  25.191  0.1612  0.2245  0.1313
75075W        W18169  16.097  16.736  24.065 -0.2471  0.0678 -0.0537
75076W        W18170  17.806  16.767  22.759  0.2237  0.3950 -0.1270
75077W        W18171  16.080  13.845  22.456  0.2816 -0.0093 -0.2490
75078W        W18172  17.504  14.913  22.307  0.3186  0.1718  0.0705
75079W        W18173  17.087  17.562  21.266 -0.1347 -0.0183 -0.0023
75080W        W18174  15.612  16.498  23.192  0.2178  0.0403  0.1531
75081W        W18175  17.263  17.459  21.939  0.4113 -0.1139 -0.1181
75082W        W18176  17.532  16.719  24.428 -0.0333 -0.2906  0.3650
75083W        W18177  16.084  14.143  20.652  0.1103  0.1667  0.0384
75084W        W18178  16.866  17.448  22.764 -0.1758  0.1895 -0.2805
75085W        W18179  15.046  13.743  24.848 -0.3334  0.0811 -0.3540
75086W        W18180  15.978  16.181  21.123  0.0313  0.4491  0.0754
75087W        W18181  15.765  16.853  22.873  0.3812  0.1849  0.2974
75088W        W18182  15.595  13.396  21.204 -0.1349 -0.3421  0.1519
75089W        W18183  16.106  17.668  23.009 -0.2621  0.1951 -0.2463
75090W        W18184  15.591  15.049  24.861  0.2059  0.0973 -0.1289
75091W        W18185  19.803  17.736  25.654 -0.3074 -0.1204 -0.0790
75092W        W18186  19.080  16.575  25.415  0.2910  0.0295  0.0428
75093W        W18187  18.178  17.589  25.506 -0.0888  0.0699 -0.0957
75094W        W18188  15.086  15.809  29.026  0.3003 -0.1472 -0.2183
75095W        W18189  17.927  17.088  26.246  0.0628  0.4319 -0.0877
75096W        W18190  18.882  17.364  27.047  0.0542  0.1014 -0.0364
75097W        W18191  17.387  16.248  25.197 -0.1994  0.0517 -0.1292
75098W        W18192  16.178  14.260  28.761 -0.2795  0.1195  0.0537
75099W        W18193  15.836  17.519  27.198  0.1981 -0.0525 -0.0733
75100W        W18194  15.864  15.323  28.303  0.0723 -0.0843  0.2449
75101W        W18195  17.632  14.778  26.713 -0.0028  0.1470 -0.3538
75102W        W18196  15.080  14.732  27.331 -0.0650 -0.1275 -0.1122
75103W        W18197  16.396  14.714  24.709 -0.1088 -0.1608  0.1148
75104W        W18198  17.017  18.690  24.889  0.0926 -0.0870  0.3339
75105W        W18199  14.551  15.786  27.699 -0.3492  0.0957  0.0490
75106W        W18200  15.777  15.389  28.906 -0.0990 -0.0879 -0.0519
75107W        W18201  15.093  17.303  24.065 -0.1595 -0.1911  0.0281
75108W        W18202  15.686  14.947  26.809 -0.0533  0.0369 -0.1557
75109W        W18203  16.569  13.766  26.381  0.1527 -0.0096  0.0013
75110W        W18204  19.137  16.561  25.974 -0.2710  0.0534 -0.0040
75111W        W18205  16.021  17.045  26.197  0.2223 -0.1417 -0.3145
75112W        W18206  17.366  15.873  29.083  0.0674  0.0673  0.0424
75113W        W18207  15.567  16.459  25.272 -0.0370 -0.1145  0.3969
75114W        W18208  19.309  17.452  25.484  0.1151  0.3054 -0.5845
75115W        W18209  17.933  16.483  28.209  0.1673  0.0818  0.0517
75116W        W18210  16.075  17.364  24.960  0.1204  0.0886  0.1109
75117W        W18211  15.709  15.490  26.730 -0.3150  0.0192  0.2041
75118W        W18212  16.875  15.123  26.107 -0.0528  0.0031  0.2346
75119W        W18213  16.223  18.678  25.263  0.2131  0.0763 -0.2567
75120W        W18214  16.955  17.129  26.121 -0.1019 -0.1031  0.1855
75121W        W18215  15.390  16.311  28.694  0.1612 -0.1005  0.0010
75122W        W18216  18.405  15.357  29.077 -0.0783 -0.1401 -0.1110
75123W        W18217  17.784  15.726  24.635 -0.0120  0.1310 -0.1015
75124W        W18218  17.846  15.135  24.569 -0.1066 -0.3744  0.0884
75125W        W18219  16.448  13.844  27.610  0.1321 -0.0266  0.1552
75126W        W18220  14.206  16.687  28.402  0.0621 -0.0490  0.3095
75127W        W18221  18.179  16.068  28.561  0.1130 -0.2599  0.2728
75128W        W18222  17.012  14.908  26.989  0.1355  0.2170 -0.1518
75129W        W18223  15.403  17.029  26.563  0.1085  0.2275  0.0965
75130W        W18224  18.065  18.259  24.760 -0.1662 -0.1309  0.0960
75131W        W18225  18.905  17.654  25.684  0.0486 -0.0459  0.1295
75132W        W18226  17.014  18.036  24.231  0.0578  0.1514  0.0861
75133W        W18227  14.815  16.562  27.292 -0.0873 -0.0545  0.0509
75134W        W18228  15.926  15.960  29.104  0.0061 -0.0583  0.0975
75135W        W18229  15.045  14.325  24.778 -0.1481  0.2610  0.2573
75136W        W18230  18.483  16.737  27.831 -0.2537 -0.1735 -0.6276
75137W        W18231  14.608  17.251  27.878 -0.1909  0.2033  0.3735
75138W        W18232  18.269  14.875  25.894 -0.2138  0.0631 -0.0454
75139W        W18233  18.513  16.992  27.416 -0.2765 -0.1623 -0.1014
75140W        W18234  18.099  14.758  27.065 -0.2265 -0.2093 -0.3106
75141W        W18235  17.055  14.019  27.618 -0.1200  0.0247  0.1516
75142W        W18236  16.650  17.116  24.709 -0.2293  0.1136 -0.1755
75143W        W18237  18.169  17.488  27.831  0.1465  0.0555 -0.1891
75144W        W18238  19.413  16.308  24.983  0.1078 -0.3516  0.3986
75145W        W18239  15.720  14.584  27.226 -0.2816 -0.1957 -0.2869
75146W        W18240  16.756  17.346  27.840  0.1035  0.3983 -0.0778
75147W        W18241  15.392  19.328  26.128 -0.2424 -0.2618 -0.2631
75148W        W18242  14.581  16.588  26.476  0.1477  0.1915  0.0142
75149W        W18243  14.682  15.557  28.911 -0.1263  0.0591 -0.0158
75150W        W18244  19.077  15.893  27.146 -0.0817 -0.2054  0.1289
75151W        W18245  14.635  16.414  28.070  0.0687  0.1288 -0.1622
75152W        W18246  17.043  14.455  27.268 -0.1409 -0.3426  0.2198
75153W        W18247  16.179  16.950  24.573 -0.1046  0.3126  0.1428
75154W        W18248  19.895  18.481  24.917  0.1069 -0.1373  0.2770
75155W        W18249  19.090  15.397  23.501  0.2066  0.3177 -0.2961
75156W        W18250  17.385  17.151  24.183  0.0911  0.2507  0.0347
75157W        W18251  15.582  15.154  25.910 -0.0666 -0.4003 -0.2022
75158W        W18252  14.134  16.483  29.723 -0.0609  0.2461 -0.0084
75159W        W18253  15.914  14.759  27.685  0.4035  0.0066 -0.1103
75160W        W18254  19.447  15.552  28.212  0.2920 -0.0473 -0.2397
75161W        W18255  14.110  13.287  26.025 -0.0849  0.3763  0.2631
75162W        W18256  16.671  14.054  26.773  0.0413 -0.0213 -0.0254
75163W        W18257  15.691  17.011  24.388  0.0455 -0.2927  0.0116
75164W        W18258  19.079  14.803  28.933  0.0632 -0.2133  0.0409
75165W        W18259  18.862  17.668  27.916 -0.0524  0.3128  0.2160
75166W        W18260  18.171  18.013  25.214 -0.1401 -0.0996 -0.1226
75167W        W18261  16.186  15.664  28.657  0.0678  0.1441 -0.1930
75168W        W18262  15.725  14.717  24.480  0.1799  0.0035 -0.2736
75169W        W18263  16.354  17.618  27.005  0.1483  0.1639 -0.0600
75170W        W18264  17.198  17.491  26.431  0.3115  0.3544 -0.0191
75171W        W18265  18.435  17.191  26.028 -0.2257 -0.0344  0.0566
75172W        W18266  16.346  14.898  30.327  0.3436 -0.2447 -0.1500
75173W        W18267  19.584  17.227  28.142 -0.2006  0.3718  0.0115
75174W        W18268  18.997  15.464  25.625 -0.0078  0.3842  0.1076
75175W        W18269  15.601  14.486  24.972 -0.1772  0.0091 -0.1651
75176W        W18270  15.450  16.708  24.703 -0.1352 -0.0065  0.0418
75177W        W18271  18.484  14.250  28.343  0.2550 -0.2545 -0.0340
75178W        W18272  12.785  17.209  29.803 -0.0485  0.2202 -0.1747
75179W        W18273  18.243  15.819  29.004 -0.1023  0.0413 -0.2746
75180W        W18274  17.394  14.591  25.189  0.1070  0.0292 -0.0150
75181W        W18275  18.925  14.113  26.851  0.1866 -0.0489  0.0281
75182W        W18276  18.559  16.683  25.244  0.0465  0.0820 -0.0372
75183W        W18277  16.882  15.604  24.606  0.4813  0.2948 -0.3995
75184W        W18278  17.283  14.224  24.890 -0.1440 -0.0989  0.0294
75185W        W18279  16.414  16.865  25.211  0.1406 -0.0484  0.4345
75186W        W18280  16.221  17.958  26.115 -0.0227  0.0821  0.1490
75187W        W18281  18.765  18.346  24.414  0.0209 -0.1549  0.2308
75188W        W18282  15.911  16.957  25.272  0.0123  0.1209 -0.0020
75189W        W18283  17.746  16.796  29.104  0.0395 -0.1631 -0.3078
75190W        W18284  15.228  14.851  29.309 -0.1558 -0.0306 -0.1146
75191W        W18285  16.812  14.457  26.474  0.1246 -0.0141  0.2987
75192W        W18286  17.252  14.472  26.779  0.0109  0.0135  0.1487
75193W        W18287  16.286  14.787  26.670  0.1321  0.2735 -0.0970
75194W        W18288  16.830  15.421  28.090 -0.0349  0.5008  0.0960
75195W        W18289  18.919  15.432  27.897  0.3982  0.1806 -0.2332
75196W        W18290  17.910  15.934  25.060  0.0307 -0.2156 -0.1734
75197W        W18291  16.591  16.018  24.750 -0.0442 -0.0745  0.1028
75198W        W18292  15.003  16.001  30.036 -0.0161 -0.1377 -0.1868
75199W        W18293  14.779  16.143  28.597  0.1242 -0.2076  0.0315
75200W        W18294  15.437  18.157  28.072 -0.3128 -0.1669  0.0362
75201W        W18295  17.325  16.631  25.962 -0.0959 -0.3172 -0.1117
75202W        W18296  16.440  14.607  27.832 -0.0693 -0.1030 -0.2033
75203W        W18297  16.366  16.448  24.304 -0.2272 -0.0720 -0.1715
75204W        W18298  16.490  15.100  27.093  0.3423  0.5726  0.0638
75205W        W18299  18.206  16.685  26.293  0.0146 -0.0330 -0.0975
75206W        W18300  17.769  13.870  29.830  0.6281  0.4247  0.0069
75207W        W18301  16.127  15.085  24.486 -0.1529 -0.1726 -0.0611
75208W        W18302  14.693  15.509  27.292 -0.3562 -0.4412 -0.0810
75209W        W18303  18.770  15.067  25.988 -0.1338 -0.0555 -0.0173
75210W        W18304  19.388  16.783  24.508  0.2681 -0.0337 -0.1367
75211W        W18305  15.173  14.150  26.585 -0.1330 -0.0916 -0.3282
75212W        W18306  15.310  14.277  27.390  0.0525  0.0288 -0.0540
75213W        W18307  18.600  15.973  27.061 -0.1320 -0.0220 -0.0155
75214W        W18308  17.584  13.464  26.752  0.1129 -0.1974 -0.1046
75215W        W18309  18.921  17.207  27.699 -0.0941 -0.0626 -0.0867
75216W        W18310  14.841  16.753  29.276  0.0352 -0.0538  0.1056
75217W        W18311  17.391  15.284  27.204  0.0318  0.1961 -0.1744
75218W        W18312  16.206  16.342  25.108 -0.0506  0.0848 -0.0807
75219W        W18313  17.457  17.133  26.127  0.1142 -0.1379  0.2561
75220W        W18314  16.450  17.542  24.611 -0.3846  0.0447 -0.0299
75221W        W18315  17.111  15.990  29.524  0.0658 -0.3252 -0.1814
75222W        W18316  17.161  15.475  27.679 -0.0258  0.3943 -0.1377
75223W        W18317  16.301  15.054  27.600 -0.0738  0.0313  0.0230
75224W        W18318  17.340  14.225  26.123 -0.0372  0.1295 -0.1380
75225W        W18319  18.403  16.455  27.414  0.1043  0.0025  0.3572
75226W        W18320  14.893  13.338  27.197  0.2473 -0.1838  0.0291
75227W        W18321  18.283  18.190  24.283 -0.0122  0.0224 -0.0829
75228W        W18322  16.611  14.555  26.971 -0.3823 -0.1431 -0.2408
75229W        W18323  15.190  15.561  26.893 -0.0403 -0.2680 -0.0981
75230W        W18324  15.192  16.808  23.815  0.4166  0.0960  0.0976
75231W        W18325  16.231  14.601  27.242  0.3199 -0.2506 -0.2105
75232W        W18326  16.004  17.060  26.681 -0.1230 -0.1600  0.1615
75233W        W18327  18.085  13.634  26.510  0.1003 -0.2488 -0.3803
75234W        W18328  15.511  14.238  26.953  0.2498 -0.0417 -0.0464
75235W        W18329  19.477  15.591  29.226 -0.1153  0.0031  0.1234
75236W        W18330  16.693  14.023  28.742 -0.0391  0.4785 -0.0863
75237W        W18331  16.167  15.170  28.659  0.0362  0.0970 -0.2371
75238W        W18332  19.258  17.720  26.194 -0.3578  0.1579 -0.0638
75239W        W18333  14.311  16.830  27.892 -0.2021 -0.0585  0.1075
75240W        W18334  17.217  17.507  28.026 -0.0222  0.0691 -0.1466
75241W        W18335  14.722  16.969  28.340  0.1818  0.0113 -0.3779
75242W        W18336  17.087  15.008  25.307  0.3116 -0.1212  0.0717
75243W        W18337  16.343  13.514  24.513 -0.0670  0.0331  0.0212
75244W        W18338  16.392  15.647  26.931 -0.1500 -0.0672  0.0235
75245W        W18339  18.386  16.662  26.934 -0.1740 -0.0733  0.1387
75246W        W18340  17.169  16.552  24.834  0.0890 -0.3151 -0.2003
75247W        W18341  17.445  15.645  26.823 -0.2880  0.2707  0.1596
75248W        W18342  17.818  16.325  24.520 -0.0648 -0.0016  0.0164
75249W        W18343  16.515  16.567  24.775  0.1392  0.0637 -0.0741
75250W        W18344  15.220  15.130  31.124 -0.2139  0.3291 -0.4921
75251W        W18345  18.259  16.106  25.917  0.0098  0.0313 -0.2787
75252W        W18346  16.710  15.358  27.501 -0.2709 -0.1818 -0.1197
75253W        W18347  17.502  15.061  27.975 -0.0723  0.1440 -0.0282
75254W        W18348  16.173  14.986  28.067 -0.0456  0.0078 -0.1895
75255W        W18349  13.809  16.335  30.602 -0.0414  0.0517 -0.4055
75256W        W18350  17.882  19.248  27.374  0.0261  0.2447  0.0955
75257W        W18351  18.126  15.508  24.334  0.2226 -0.0226  0.1024
75258W        W18352  17.990  14.828  27.932  0.2209  0.2352 -0.0833
75259W        W18353  18.886  17.185  25.435 -0.1598  0.0080 -0.2513
75260W        W18354  17.129  15.306  24.209  0.2005  0.1909  0.3486
75261W        W18355  14.735  15.092  27.037 -0.1002  0.2338  0.2638
75262W        W18356  17.226  15.289  28.351 -0.2824  0.2434  0.1472
75263W        W18357  15.956  14.343  24.690  0.3059 -0.2293  0.3708
75264W        W18358  17.000  14.973  27.999  0.3187  0.0614 -0.1849
75265W        W18359  15.959  17.852  24.773 -0.1952  0.0280  0.0661
75266W        W18360  18.160  15.508  24.845  0.5612 -0.1103  0.1936
75267W        W18361  14.565  14.434  26.982 -0.0426  0.1192  0.0379
75268W        W18362  16.118  16.027  27.727  0.1482  0.2309  0.1113
75269W        W18363  17.026  16.622  26.373 -0.1174 -0.1498  0.0678
75270W        W18364  19.066  16.724  28.586  0.0051  0.3208 -0.0535
75271W        W18365  19.675  15.093  28.019  0.2166 -0.3936  0.0451
75272W        W18366  17.550  14.149  27.501 -0.0989  0.0474  0.0239
75273W        W18367  15.889  17.980  27.886  0.0769 -0.0701 -0.2365
75274W        W18368  14.704  16.218  26.876  0.0075  0.0874 -0.2114
75275W        W18369  15.101  16.862  25.259  0.2114  0.0505 -0.1055
75276W        W18370  16.871  14.468  27.826 -0.0870 -0.0324 -0.1937
75277W        W18371  17.406  15.175  26.264 -0.0103  0.0293  0.0814
75278W        W18372  16.494  17.012  25.883 -0.2816  0.0768  0.2692
75279W        W18373  17.988  15.383  27.986 -0.1600 -0.1810  0.0436
75280W        W18374  18.006  16.918  27.832  0.0513  0.1653 -0.0885
75281W        W18375  15.957  16.893  25.744  0.1113  0.0425 -0.0867
75282W        W18376  19.806  16.139  25.346  0.2855  0.1223  0.0170
75283W        W18377  15.515  17.507  25.267 -0.2283  0.1522  0.0475
75284W        W18378  14.079  16.021  29.443 -0.1318  0.1244  0.0839
75285W        W18379  16.616  15.792  27.767  0.0403  0.0945 -0.2722
75286W        W18380  16.036  14.392  25.877 -0.1700 -0.0984  0.0493
75287W        W18381  14.562  14.657  27.469  0.2552 -0.2951 -0.0554
75288W        W18382  18.678  16.660  24.704 -0.0203  0.1327  0.0451
75289W        W18383  17.981  17.654  26.786  0.0575 -0.0654 -0.2228
75290W        W18384  17.044  14.100  25.676 -0.0322  0.1984  0.2021
75291W        W18385  13.511  17.190  24.006 -0.0699 -0.3409 -0.1546
75292W        W18386  18.003  15.849  28.115 -0.0968  0.2831 -0.2575
75293W        W18387  17.792  14.702  24.245 -0.1010  0.1107 -0.2210
75294W        W18388  19.327  16.973  26.284  0.4166  0.1730  0.1539
75295W        W18389  19.019  15.689  24.455  0.2715 -0.1255  0.2081
75296W        W18390  17.723  17.175  28.160 -0.0852  0.0576  0.2147
75297W        W18391  16.970  15.835  27.363 -0.1090  0.3251  0.0791
75298W        W18392  15.860  16.155  29.550  0.0645 -0.1732  0.1546
75299W        W18393  18.634  14.104  30.301  0.0731  0.0531 -0.2774
75300W        W18394  18.506  18.061  24.853  0.2358 -0.1929 -0.2424
75301W        W18395  14.978  13.895  26.192  0.2574 -0.3419  0.1958
75302W        W18396  16.675  14.774  27.448 -0.2632 -0.1055  0.1705
75303W        W18397  15.795  16.060  24.083  0.0339  0.0239 -0.0357
75304W        W18398  17.524  17.847  27.034 -0.0691  0.3382  0.1286
75305W        W18399  13.932  13.933  26.056  0.0442 -0.0474  0.4152
75306W        W18400  18.288  15.962  27.463  0.0685 -0.0665 -0.3117
75307W        W18401  16.767  16.417  28.970  0.2478 -0.2817 -0.2145
75308W        W18402  17.379  14.514  27.743  0.1901 -0.1343  0.1326
75309W        W18403  15.629  14.846  25.395 -0.0890  0.1434 -0.0513
75310W        W18404  18.261  16.389  24.858  0.1099  0.1622  0.0030
75311W        W18405  16.214  15.526  27.435 -0.0294 -0.1293 -0.0050
75312W        W18406  14.922  15.939  28.074  0.1829 -0.2576  0.0184
75313W        W18407  18.652  17.217  26.457  0.0198  0.0435  0.0420
75314W        W18408  17.440  15.990  23.721  0.0541  0.1223 -0.2442
75315W        W18409  17.989  17.604  28.335  0.1791  0.0068 -0.0313
75316W        W18410  15.274  14.647  26.812  0.1906  0.0100  0.1037
75317W        W18411  17.027  14.631  24.787 -0.1102 -0.2876  0.3511
75318W        W18412  15.348  15.557  28.136 -0.2570 -0.2047  0.2986
75319W        W18413  17.378  17.664  29.585  0.1461  0.1875 -0.2372
75320W        W18414  14.670  14.636  25.876  0.0088 -0.4961  0.3875
75321W        W18415  18.680  17.637  24.653  0.3627 -0.0093 -0.2486
75322W        W18416  18.472  15.625  27.822 -0.2718 -0.0299 -0.0502
75323W        W18417  15.504  17.679  24.509  0.0628 -0.1846  0.3009
75324W        W18418  19.159  16.329  24.576 -0.1206 -0.2887 -0.1838
75325W        W18419  17.891  18.080  26.403 -0.2172  0.0533 -0.0730
75326W        W18420  14.054  17.340  27.826 -0.1774 -0.0112 -0.0052
75327W        W18421  18.212  17.516  26.355  0.0527  0.2888  0.2269
75328W        W18422  18.489  17.546  28.356  0.0739 -0.0548 -0.2232
75329W        W18423  18.246  13.687  25.260  0.0960  0.0391 -0.1343
75330W        W18424  18.570  15.828  25.562  0.1729  0.0280 -0.0160
75331W        W18425  17.760  15.095  27.532 -0.0458  0.1570 -0.4227
75332W        W18426  16.164  14.770  28.970 -0.1192  0.1503  0.1154
75333W        W18427  16.409  17.239  28.247  0.1243  0.1385 -0.2247
75334W        W18428  15.915  16.592  24.834 -0.2098  0.4733  0.4675
75335W        W18429  17.101  16.275  25.615  0.4380 -0.2127  0.1732
75336W        W18430  19.313  17.666  26.926  0.1266 -0.1508  0.0499
75337W        W18431  18.090  15.463  25.360  0.2025  0.3604 -0.1120
75338W        W18432  18.225  16.305  25.415 -0.1967  0.1806 -0.0562
75339W        W18433  14.952  14.534  26.358  0.0381  0.0100  0.2552
75340W        W18434  19.276  15.409  27.099  0.2324 -0.1727  0.1324
75341W        W18435  17.824  15.183  26.990 -0.2196 -0.0764 -0.1460
75342W        W18436  16.028  15.029  27.192  0.0410 -0.2000  0.0925
75343W        W18437  14.114  15.829  24.953 -0.1598  0.0257  0.1392
75344W        W18438  16.032  16.152  24.530  0.0236 -0.1362 -0.3992
75345W        W18439  16.812  16.572  25.929 -0.3024  0.2168 -0.2379
75346W        W18440  17.044  13.327  30.499 -0.2056  0.1270  0.1056
75347W        W18441  13.957  15.430  30.564 -0.1659  0.0756 -0.0109
75348W        W18442  15.580  14.369  25.576  0.3639  0.4057  0.1614
75349W        W18443  14.071  15.654  27.441 -0.1380  0.1887 -0.2673
75350W        W18444  14.898  15.162  27.605 -0.1502 -0.0101 -0.1081
75351W        W18445  16.571  14.277  27.418  0.0215  0.0536 -0.2314
75352W        W18446  18.249  17.679  29.978 -0.5730 -0.2190 -0.0086
75353W        W18447  17.071  15.977  27.990 -0.3775 -0.2390  0.1654
75354W        W18448  16.688  15.039  28.388  0.0235  0.0990 -0.1639
75355W        W18449  14.415  14.353  25.416 -0.1952 -0.0523  0.1748
75356W        W18450  16.910  15.465  27.054 -0.0359  0.3374 -0.1925
75357W        W18451  17.437  17.640  24.229 -0.0536 -0.1687 -0.0295
75358W        W18452  14.947  15.913  27.236  0.1823  0.0480  0.2787
75359W        W18453  17.458  16.844  25.141  0.1256 -0.0648 -0.1853
75360W        W18454  16.751  16.860  27.686 -0.0235  0.3257  0.1013
75361W        W18455  19.178  17.428  24.970 -0.3638 -0.0536 -0.0296
75362W        W18456  17.116  14.998  27.532 -0.1846 -0.1300 -0.1129
75363W        W18457  15.071  14.077  30.259 -0.0971  0.1338  0.1562
75364W        W18458  15.458  16.145  29.913 -0.3723  0.1535  0.3909
75365W        W18459  18.032  17.924  27.475 -0.1277 -0.0369 -0.1039
75366W        W18460  14.658  14.095  26.529 -0.1780 -0.0812 -0.1854
75367W        W18461  19.384  14.271  27.211  0.0701 -0.1313  0.1222
75368W        W18462  15.667  15.962  26.600 -0.2036  0.0652  0.2329
75369W        W18463  17.127  15.446  25.013  0.1674 -0.0345 -0.0969
75370W        W18464  17.912  17.469  25.878 -0.1182 -0.3652  0.3279
75371W        W18465  17.849  16.583  26.736  0.2309 -0.3248 -0.0074
75372W        W18466  18.357  16.532  24.389 -0.1296 -0.0779  0.2772
75373W        W18467  18.524  17.648  26.744  0.3048  0.1768  0.1493
75374W        W18468  18.193  18.745  29.205 -0.1495  0.0464  0.0617
75375W        W18469  14.138  15.136  28.191 -0.2174 -0.1640  0.0518
75376W        W18470  17.913  15.019  28.368 -0.0437  0.1747 -0.3128
75377W        W18471  18.060  14.419  25.691 -0.1911 -0.1951  0.0178
75378W        W18472  17.539  16.185  26.915  0.1965  0.1925 -0.2364
75379W        W18473  17.519  15.142  29.232 -0.4578  0.1383 -0.0865
75380W        W18474  17.161  16.977  27.890 -0.5289 -0.2794 -0.0337
75381W        W18475  15.837  15.793  28.358 -0.1835 -0.2734  0.0062
75382W        W18476  16.280  16.252  28.368 -0.2596 -0.0054 -0.4789
75383W        W18477  15.730  15.761  29.956 -0.0515 -0.1686 -0.0744
75384W        W18478  17.278  15.496  29.465  0.1530 -0.2545 -0.2295
75385W        W18479  15.441  15.538  30.856  0.4378  0.2045  0.0101
75386W        W18480  17.719  15.419  30.120 -0.0708  0.0293  0.1472
75387W        W18481  17.865  17.827  29.464  0.1352  0.2196  0.0805
75388W        W18482  17.300  16.249  28.725  0.2830  0.1135 -0.3045
75389W        W18483  15.423  16.053  28.282  0.1612  0.3765  0.0559
75390W        W18484  17.541  18.057  29.135  0.2445  0.0628  0.0007
75391W        W18485  16.329  15.431  27.952 -0.2070 -0.0569  0.2267
75392W        W18486  17.891  16.154  30.634 -0.0431 -0.0337  0.1476
75393W        W18487  14.244  17.690  28.204  0.1041 -0.1925  0.2672
75394W        W18488  14.733  17.121  29.683 -0.1720 -0.1081 -0.0792
75395W        W18489  18.466  16.341  28.309 -0.0531  0.0283  0.2527
75396W        W18490  14.694  14.365  30.739 -0.1187 -0.3169 -0.0354
75397W        W18491  14.284  16.437  29.065 -0.0263 -0.0173 -0.0029
75398W        W18492  16.527  14.533  30.689 -0.1487 -0.1212  0.0014
75399W        W18493  15.913  18.578  29.122 -0.0008  0.0556  0.0023
75400W        W18494  18.173  14.794  29.224 -0.0329 -0.0018  0.3021
75401W        W18495  16.708  15.480  28.622 -0.0193  0.1773  0.0374
75402W        W18496  17.523  14.601  28.364  0.0101 -0.0826  0.0541
75403W        W18497  17.085  14.943  29.442  0.1826 -0.0974 -0.0756
75404W        W18498  17.073  15.799  28.494 -0.2506 -0.1429 -0.2178
75405W        W18499  14.632  17.126  30.155  0.0290  0.1555 -0.1554
75406W        W18500  14.739  15.421  31.636 -0.1964 -0.0902 -0.0566
75407W        W18501  15.775  17.271  29.265 -0.3959  0.0030 -0.0571
75408W        W18502  15.849  15.302  27.763 -0.1189  0.3234 -0.0082
75409W        W18503  15.024  15.923  29.558 -0.1883  0.1552 -0.0804
75410W        W18504  18.690  16.842  29.223  0.0927  0.1125  0.1721
75411W        W18505  17.135  14.584  29.785 -0.0543  0.0898  0.1263
75412W        W18506  13.930  15.535   0.102 -0.4552  0.1857 -0.0558
75413W        W18507  16.215  16.064  31.176 -0.1366 -0.0500 -0.0115
75414W        W18508  16.594  15.878  28.264 -0.0636 -0.0547 -0.3194
75415W        W18509  17.555  16.102  27.858  0.1453 -0.1445  0.2376
75416W        W18510  17.511  16.000  28.374  0.1740 -0.0192  0.0056
75417W        W18511  17.367  16.907  29.424 -0.0873 -0.3077 -0.0816
75418W        W18512  18.253  16.207  30.251 -0.0800 -0.0875 -0.1406
75419W        W18513  18.233  17.225  29.343  0.2031 -0.0041 -0.0369
75420W        W18514  16.866  15.965  29.125 -0.3135 -0.2410 -0.1096
75421W        W18515  16.571  16.278  27.958 -0.0071  0.0916  0.1637
75422W        W18516  14.575  16.252  29.457  0.1668  0.1804 -0.0350
75423W        W18517  15.672  17.700  29.485 -0.3820 -0.2999  0.2550
75424W        W18518  15.408  14.921  30.139 -0.0470  0.1113  0.1971
75425W        W18519  16.600  16.932  29.846  0.4343 -0.1451  0.0903
75426W        W18520  14.832  15.441  28.060 -0.1854  0.0477 -0.2336
75427W        W18521  18.142  16.174  29.675  0.1465  0.2963 -0.1270
75428W        W18522  18.489  15.151  29.662 -0.1291 -0.0047  0.1158
75429W        W18523  16.819  15.360  29.406  0.2848  0.2300  0.0915
75430W        W18524  17.149  16.500  28.121  0.1665 -0.2845  0.0576
75431W        W18525  16.804  13.902  27.221 -0.1083 -0.2162  0.3830
75432W        W18526  16.884  16.297  28.489 -0.4800  0.3193 -0.1532
75433W        W18527  17.641  16.606  27.664 -0.3586  0.1707  0.0432
75434W        W18528  16.145  17.174  28.891 -0.1319 -0.1789  0.0656
75435W        W18529  17.212  16.812  27.413  0.0576 -0.2038 -0.2079
75436W        W18530  14.639  16.211  30.301  0.2322  0.1264 -0.2174
75437W        W18531  14.138  15.098  30.992  0.2236  0.1462 -0.0236
75438W        W18532  16.360  16.085  27.257  0.4336 -0.0541 -0.2436
75439W        W18533  15.870  16.204  28.702  0.2475  0.0566  0.0839
75440W        W18534  15.200  14.946   0.556 -0.3261 -0.0326 -0.0589
75441W        W18535  17.672  17.720  27.900 -0.0004  0.0789  0.1167
75442W        W18536  17.177  17.320  29.250  0.2919  0.2710 -0.3424
75443W        W18537  18.428  16.863  29.705 -0.3211  0.0693  0.1174
75444W        W18538  12.939  21.574  18.599  0.0255 -0.0589 -0.1332
75445W        W18539  14.212  20.829  16.997 -0.1929  0.1804  0.1041
75446W        W18540  17.566  20.458  15.620  0.0120 -0.1932 -0.2808
75447W        W18541  18.621  21.275  15.682 -0.0068 -0.4419 -0.0437
75448W        W18542  13.974  19.426  16.626  0.0960  0.2212 -0.2097
75449W        W18543  17.503  21.834  16.967  0.0268 -0.1156  0.3417
75450W        W18544  14.888  17.562  18.425  0.3002 -0.0708  0.2104
75451W        W18545  16.874  21.136  17.730  0.1484  0.1278  0.2143
75452W        W18546  16.573  22.960  18.627  0.0541 -0.0307  0.1284
75453W        W18547  17.325  21.252  16.238  0.0199  0.0377  0.2105
75454W        W18548  16.136  20.393  18.688  0.2224  0.2145 -0.2045
75455W        W18549  16.064  21.663  18.297  0.0011  0.2327 -0.1664
75456W        W18550  15.789  19.822  16.046 -0.0319 -0.3724  0.3354
75457W        W18551  12.234  19.041  18.855  0.1140 -0.1180 -0.1662
75458W        W18552  17.479  19.443  17.994 -0.1890  0.0452  0.0087
75459W        W18553  14.868  19.791  16.369  0.0448  0.4046  0.2239
75460W        W18554  13.819  20.001  18.469  0.1776  0.1886  0.1716
75461W        W18555  15.183  19.576  16.733  0.2041 -0.2182  0.1880
75462W        W18556  15.438  22.714  16.577  0.0005 -0.2003  0.3243
75463W        W18557  16.108  18.830  18.399  0.0529  0.3591 -0.1523
75464W        W18558  15.179  18.633  17.710  0.2575 -0.0039  0.0970
75465W        W18559  17.596  22.219  16.385  0.1393 -0.4727  0.1285
75466W        W18560  12.972  18.788  15.947  0.3319 -0.2972 -0.1301
75467W        W18561  12.848  19.703  18.366 -0.1752  0.1696 -0.0342
75468W        W18562  14.339  21.083  17.431 -0.2644 -0.4204 -0.0127
75469W        W18563  16.656  18.478  17.371 -0.2202  0.2747  0.0968
75470W        W18564  17.845  20.258  18.253 -0.1280  0.1483  0.1608
75471W        W18565  15.518  21.630  17.064 -0.0353 -0.0766  0.2154
75472W        W18566  16.003  22.151  17.661 -0.1443  0.0382  0.1725
75473W        W18567  17.311  20.139  18.979 -0.1236  0.1199  0.2651
75474W        W18568  13.634  21.225  17.579 -0.1993 -0.0890 -0.0358
75475W        W18569  14.487  21.500  16.479 -0.0271  0.1496  0.3239
75476W        W18570  16.219  23.223  16.704  0.2972 -0.0346  0.4104
75477W        W18571  17.011  21.242  16.838  0.0790 -0.1164  0.0571
75478W        W18572  16.840  23.340  18.803  0.2465 -0.0817 -0.1228
75479W        W18573  16.439  21.570  19.451 -0.2564  0.1315 -0.1271
75480W        W18574  13.178  21.648  15.879 -0.3082  0.3105  0.2121
75481W        W18575  17.087  23.740  19.070  0.1138 -0.2590  0.3683
75482W        W18576  14.885  21.759  18.602  0.0819 -0.1430  0.0623
75483W        W18577  15.764  21.085  17.056  0.0083  0.0005 -0.3419
75484W        W18578  15.015  21.583  16.567  0.0862  0.0742  0.1371
75485W        W18579  15.891  21.379  16.646 -0.3138  0.3787  0.0591
75486W        W18580  15.458  20.236  18.247 -0.1773 -0.0739 -0.0105
75487W        W18581  15.252  20.492  18.916 -0.0011 -0.0094  0.0255
75488W        W18582  13.804  21.395  16.905  0.0609  0.0562 -0.0838
75489W        W18583  16.503  19.280  17.532 -0.1722 -0.0753  0.0745
75490W        W18584  15.490  21.360  15.317 -0.1382 -0.0771  0.0256
75491W        W18585  16.972  19.600  15.457 -0.1984  0.1898  0.1286
75492W        W18586  15.962  19.927  15.537 -0.0174 -0.1422 -0.0747
75493W        W18587  17.902  20.158  15.872 -0.4050  0.3423 -0.0104
75494W        W18588  14.677  18.474  17.600 -0.1378  0.2800  0.0579
75495W        W18589  13.437  21.094  18.467  0.2164 -0.0231  0.1325
75496W        W18590  16.359  21.194  17.594  0.0646 -0.0051 -0.0578
75497W        W18591  15.190  20.683  17.471  0.1733  0.0451  0.1189
75498W        W18592  15.936  21.171  15.605  0.1580 -0.3699  0.2174
75499W        W18593  15.614  20.198  16.952 -0.1260 -0.0099  0.2705
75500W        W18594  13.843  21.442  18.471 -0.0588 -0.1592  0.0205
75501W        W18595  14.365  20.621  17.439  0.2521  0.1413 -0.0372
75502W        W18596  17.917  21.149  15.988  0.0737  0.2782  0.4033
75503W        W18597  17.116  22.159  16.245  0.0761  0.4602 -0.1668
75504W        W18598  15.745  21.907  16.562  0.1499  0.0949 -0.0825
75505W        W18599  14.793  20.736  16.139  0.0134  0.0175 -0.2207
75506W        W18600  14.512  21.462  19.489 -0.0517  0.0136  0.3995
75507W        W18601  14.218  19.910  18.805 -0.1036  0.1885  0.1158
75508W        W18602  15.685  18.639  15.519  0.3035  0.2115  0.2682
75509W        W18603  16.415  21.341  18.543  0.0981 -0.1408  0.1930
75510W        W18604  12.261  21.958  18.829  0.2193  0.1047 -0.1873
75511W        W18605  18.741  19.549  16.761 -0.0120 -0.2099  0.1668
75512W        W18606  14.774  20.694  17.745  0.1013  0.1768  0.1209
75513W        W18607  16.883  22.818  18.169 -0.5995  0.1590 -0.1144
75514W        W18608  18.438  21.748  15.732  0.4596  0.0554  0.2094
75515W        W18609  16.160  20.612  17.352  0.0602 -0.1963  0.0682
75516W        W18610  15.594  18.885  18.042  0.1614 -0.0425 -0.1987
75517W        W18611  15.046  21.277  15.211  0.0357  0.0048  0.0326
75518W        W18612  15.886  20.721  15.453 -0.0084 -0.0648 -0.0147
75519W        W18613  17.256  22.337  18.979 -0.1087 -0.1518 -0.1401
75520W        W18614  17.323  20.296  16.091  0.0089 -0.1224 -0.3178
75521W        W18615  14.443  21.831  18.773 -0.1249 -0.2468  0.2871
75522W        W18616  15.597  21.368  18.653 -0.1535  0.0946  0.0536
75523W        W18617  16.457  21.875  18.573 -0.0476 -0.2796 -0.1128
75524W        W18618  13.856  21.411  15.522 -0.2713  0.0175  0.4216
75525W        W18619  13.133  20.933  16.961  0.2259 -0.0629 -0.0245
75526W        W18620  13.374  21.017  17.961  0.0472 -0.1656  0.0884
75527W        W18621  14.581  19.344  17.713 -0.0992  0.0823  0.3546
75528W        W18622  15.275  21.218  16.860 -0.0555  0.1435  0.0503
75529W        W18623  17.191  19.231  15.837 -0.0203  0.1306  0.3724
75530W        W18624  13.135  19.199  19.371  0.1188 -0.0721  0.1550
75531W        W18625  16.521  19.044  16.556 -0.2897 -0.0395  0.2249
75532W        W18626  14.949  22.017  16.225  0.0615 -0.1378 -0.0442
75533W        W18627  17.664  22.719  16.893  0.4538 -0.0548 -0.1131
75534W        W18628  17.780  19.663  15.104 -0.5503 -0.0925  0.1880
75535W        W18629  14.846  22.200  17.301  0.0278 -0.1916  0.0986
75536W        W18630  13.101  19.256  18.456 -0.0909 -0.0635 -0.1039
75537W        W18631  14.633  19.467  16.632  0.0578  0.2083 -0.2641
75538W        W18632  14.965  20.844  18.703 -0.0442 -0.2195 -0.0994
75539W        W18633  13.744  19.708  18.071  0.1768 -0.1373  0.0391
75540W        W18634  17.889  21.154  17.037  0.3268 -0.1306  0.0663
75541W        W18635  14.872  18.034  15.828  0.2017  0.4860  0.2282
75542W        W18636  16.490  20.167  17.387 -0.1536 -0.0590  0.1107
75543W        W18637  15.607  20.566  17.348 -0.1940 -0.0437 -0.1975
75544W        W18638  14.486  20.403  16.966 -0.0231 -0.2277  0.1296
75545W        W18639  15.006  20.210  18.420 -0.3615 -0.0976 -0.2630
75546W        W18640  17.591  22.436  17.310 -0.0176 -0.0126  0.0643
75547W        W18641  18.467  22.015  17.615  0.2352  0.2330  0.1119
75548W        W18642  16.885  22.274  17.776  0.0893  0.0057  0.1786
75549W        W18643  14.598  19.698  17.352 -0.2334 -0.1019  0.2665
75550W        W18644  15.223  19.282  16.309 -0.0311  0.3053  0.4815
75551W        W18645  15.126  22.498  17.004 -0.1032  0.2773  0.3309
75552W        W18646  15.623  21.766  17.572  0.0329 -0.1954  0.1439
75553W        W18647  14.969  20.806  17.075 -0.3613 -0.0812 -0.0396
75554W        W18648  18.046  22.425  17.664  0.1954  0.0349 -0.3101
75555W        W18649  16.283  20.600  16.527 -0.1686  0.0657 -0.0946
75556W        W18650  14.838  21.037  18.206 -0.1510  0.2108  0.3380
75557W        W18651  15.400  20.149  17.510 -0.0157 -0.0956 -0.2378
75558W        W18652  18.519  21.303  18.166  0.4300  0.0845  0.2150
75559W        W18653  16.221  19.986  16.978  0.0582  0.3006  0.3143
75560W        W18654  16.578  19.958  15.734  0.3400 -0.2956  0.0036
75561W        W18655  15.572  22.348  16.872  0.0120  0.1955  0.3148
75562W        W18656  14.810  22.330  16.590 -0.0253 -0.0945 -0.0340
75563W        W18657  14.140  21.814  16.956 -0.2040 -0.2620  0.1312
75564W        W18658  15.506  22.689  17.215 -0.2971 -0.0699 -0.0601
75565W        W18659  17.996  18.530  15.668 -0.1656  0.1629  0.0554
75566W        W18660  12.347  19.508  19.686 -0.0364 -0.1545  0.1065
75567W        W18661  16.024  20.290  19.647 -0.2110 -0.0360 -0.2045
75568W        W18662  13.942  20.349  15.896  0.0090  0.1379  0.3058
75569W        W18663  14.559  22.193  18.398 -0.5167 -0.0818 -0.0557
75570W        W18664  16.980  19.651  16.014  0.1531  0.1202  0.2801
75571W        W18665  19.226  18.601  15.166 -0.1544  0.1485  0.3297
75572W        W18666  16.320  20.227  17.854  0.1469  0.2168  0.0710
75573W        W18667  18.105  21.347  14.947 -0.0513 -0.3163  0.1334
75574W        W18668  17.193  19.071  15.382 -0.0977 -0.0727 -0.2398
75575W        W18669  18.138  19.397  16.144  0.0901 -0.2716  0.0211
75576W        W18670  15.206  21.358  18.346 -0.1546 -0.0937 -0.2624
75577W        W18671  15.632  20.718  15.892 -0.0389  0.1048 -0.2928
75578W        W18672  16.452  20.417  16.997  0.2112  0.3373  0.0076
75579W        W18673  16.157  19.586  15.838  0.0822  0.2470  0.1324
75580W        W18674  17.882  21.693  16.707  0.0469 -0.3099 -0.0898
75581W        W18675  13.481  21.741  17.579  0.0749 -0.1231  0.0544
75582W        W18676  16.379  21.156  19.078 -0.0910 -0.3485  0.3057
75583W        W18677  17.260  21.250  18.097 -0.0651  0.1273 -0.1183
75584W        W18678  14.092  17.756  17.522  0.2663 -0.2283 -0.1220
75585W        W18679  14.944  20.224  16.057  0.2488 -0.0853 -0.1961
75586W        W18680  15.582  18.990  17.534  0.0981 -0.2950  0.0145
75587W        W18681  13.798  22.106  17.246 -0.1507 -0.2349  0.1114
75588W        W18682  17.211  18.265  17.293 -0.0321  0.0949  0.1122
75589W        W18683  15.586  19.836  16.513  0.2072 -0.0170  0.0342
75590W        W18684  15.223  19.292  18.544 -0.0312  0.1937 -0.2704
75591W        W18685  18.251  19.152  18.381 -0.2629 -0.0260 -0.3265
75592W        W18686  16.014  19.211  17.202 -0.1190  0.1417 -0.0206
75593W        W18687  14.634  19.715  18.144 -0.0392 -0.0663 -0.0303
75594W        W18688  15.329  19.705  16.088  0.2343  0.2014  0.1648
75595W        W18689  15.300  20.696  19.350 -0.0683 -0.0942 -0.0309
75596W        W18690  14.374  20.406  19.245 -0.1313 -0.2962 -0.2140
75597W        W18691  14.715  21.508  18.119  0.0192 -0.1666 -0.2247
75598W        W18692  16.526  22.282  19.044 -0.1448  0.1792 -0.2736
75599W        W18693  16.802  20.399  16.523  0.0552 -0.1132 -0.0363
75600W        W18694  16.085  19.771  17.745  0.0970 -0.3485 -0.0486
75601W        W18695  16.546  19.524  16.250 -0.1207  0.1982  0.0868
75602W        W18696  14.446  21.622  17.382  0.0823  0.2613 -0.0698
75603W        W18697  16.076  21.439  17.184 -0.1609  0.1574  0.2557
75604W        W18698  14.139  18.037  17.067 -0.0954  0.0253  0.2576
75605W        W18699  16.563  21.696  17.153  0.1488 -0.2090 -0.1467
75606W        W18700  15.892  21.939  15.834 -0.2269 -0.0055 -0.0417
75607W        W18701  16.082  18.793  17.868 -0.1856 -0.3630  0.0647
75608W        W18702  15.673  21.884  18.077 -0.3977  0.1065  0.0521
75609W        W18703  17.941  17.210  15.879 -0.0623 -0.1540  0.0895
75610W        W18704  13.891  21.603  17.336 -0.0823  0.1564 -0.2446
75611W        W18705  16.224  19.166  16.147  0.1189  0.1092  0.2054
75612W        W18706  15.084  21.131  16.329 -0.2453  0.1294 -0.1195
75613W        W18707  17.988  18.835  16.972  0.0795 -0.2472 -0.3001
75614W        W18708  17.410  20.882  15.785  0.0326  0.0422  0.1315
75615W        W18709  13.831  18.743  18.049  0.1009 -0.0824  0.1677
75616W        W18710  16.271  19.680  17.321  0.0730  0.0733 -0.1295
75617W        W18711  13.838  22.034  18.594  0.3458  0.0502 -0.0583
75618W        W18712  17.369  20.887  17.718  0.1335 -0.2034  0.3088
75619W        W18713  20.291  17.932  16.455  0.0110 -0.0464  0.1804
75620W        W18714  16.651  21.203  17.195 -0.1467 -0.5595 -0.4096
75621W        W18715  13.335  20.139  18.963 -0.2670 -0.2987 -0.3165
75622W        W18716  14.770  18.530  15.975 -0.1692 -0.1255  0.1092
75623W        W18717  18.067  20.773  19.147  0.1426 -0.0206 -0.1985
75624W        W18718  15.957  20.165  16.577 -0.0002 -0.0757 -0.1385
75625W        W18719  13.483  20.848  16.588 -0.2438 -0.0369 -0.0935
75626W        W18720  15.570  22.273  19.010  0.0362  0.0505 -0.1202
75627W        W18721  14.581  21.157  16.110 -0.1814 -0.1271  0.0639
75628W        W18722  13.475  21.785  16.993  0.2635 -0.2048 -0.0027
75629W        W18723  15.175  19.755  18.268 -0.0981  0.0951 -0.0289
75630W        W18724  16.048  21.512  18.809 -0.3138 -0.1163  0.1066
75631W        W18725  12.717  20.129  18.604  0.2570  0.0618  0.3704
75632W        W18726  13.128  19.441  18.007  0.3175  0.0776  0.0184
75633W        W18727  14.849  19.935  16.830 -0.1819 -0.1014 -0.1469
75634W        W18728  15.905  20.678  16.857 -0.2204 -0.1520 -0.4033
75635W        W18729  17.203  21.111  17.277  0.2216 -0.0996 -0.3361
75636W        W18730  13.736  22.645  20.058  0.1288  0.1858 -0.0058
75637W        W18731  16.843  19.607  16.620  0.0940  0.1265  0.1011
75638W        W18732  19.287  23.376  17.002  0.1562 -0.0608  0.3218
75639W        W18733  16.107  21.688  17.790 -0.2860  0.1337  0.2904
75640W        W18734  14.137  21.103  16.482 -0.0241 -0.2378  0.2738
75641W        W18735  13.630  20.428  18.136  0.1314  0.1238  0.0618
75642W        W18736  15.166  21.593  17.902 -0.0735  0.1338  0.3217
75643W        W18737  15.087  20.366  17.948 -0.0992 -0.1174 -0.2159
75644W        W18738  13.323  22.061  18.071 -0.3851 -0.1808 -0.2194
75645W        W18739  15.640  21.369  17.900 -0.2981 -0.1251 -0.0698
75646W        W18740  14.253  22.074  19.559 -0.2611  0.0039  0.1627
75647W        W18741  17.023  20.810  16.286 -0.0413 -0.0429  0.0804
75648W        W18742  16.566  21.701  15.295  0.1208  0.0778  0.3117
75649W        W18743  16.505  19.971  16.543 -0.2033  0.0269 -0.1382
75650W        W18744  16.663  19.082  17.106 -0.0327  0.0288  0.1007
75651W        W18745  16.485  20.451  16.096 -0.0495 -0.0430  0.3468
75652W        W18746  15.928  19.243  18.149  0.2752  0.1169 -0.1334
75653W        W18747  14.410  18.981  17.382  0.1636 -0.0597  0.0247
75654W        W18748  16.810  21.362  16.360  0.1031 -0.0048  0.1811
75655W        W18749  14.148  20.518  18.197 -0.2476  0.2234 -0.0074
75656W        W18750  16.358  23.484  18.707  0.0546  0.2254 -0.0623
75657W        W18751  13.605  21.860  19.045 -0.1227  0.0725  0.3344
75658W        W18752  15.745  20.630  16.403  0.1479  0.4130  0.0468
75659W        W18753  14.346  19.075  16.501 -0.0573  0.0525 -0.1617
75660W        W18754  15.386  21.214  17.396  0.2279  0.1013  0.1050
75661W        W18755  18.451  20.926  17.859 -0.0406  0.1034  0.0973
75662W        W18756  16.332  21.295  15.868  0.1851  0.2631 -0.0208
75663W        W18757  18.070  20.648  15.806 -0.0084 -0.0123  0.2732
75664W        W18758  15.940  22.044  19.563 -0.1406 -0.1043 -0.4063
75665W        W18759  16.029  20.354  15.856  0.3029  0.3233  0.1598
75666W        W18760  16.617  20.953  16.048  0.0901  0.1981  0.1797
75667W        W18761  13.673  20.940  17.088  0.1115  0.0771 -0.1865
75668W        W18762  14.899  19.252  18.152 -0.0189  0.1270 -0.1503
75669W        W18763  17.375  20.126  16.952  0.3316  0.3617 -0.1654
75670W        W18764  18.493  19.767  17.115 -0.0694  0.3241 -0.2233
75671W        W18765  19.026  20.106  17.759  0.0288 -0.0688  0.1092
75672W        W18766  17.639  19.594  17.533  0.4927  0.0342 -0.3549
75673W        W18767  16.511  19.892  18.502 -0.0342  0.1325  0.1470
75674W        W18768  12.584  19.355  19.199 -0.0551  0.1571  0.0700
75675W        W18769  17.142  23.428  17.997 -0.1282  0.0057 -0.3179
75676W        W18770  18.139  21.308  15.548 -0.1200 -0.1007  0.2417
75677W        W18771  17.511  19.176  17.223  0.1535  0.0574 -0.0291
75678W        W18772  17.719  19.830  16.711 -0.2103 -0.2665  0.1923
75679W        W18773  16.225  20.022  16.164 -0.1079 -0.0481  0.0205
75680W        W18774  14.313  19.924  16.911 -0.2117 -0.2746  0.0125
75681W        W18775  16.539  21.468  18.062 -0.2575 -0.1446  0.2812
75682W        W18776  13.997  18.879  16.774  0.2017  0.0433 -0.0968
75683W        W18777  17.445  18.953  16.735 -0.1449 -0.0345 -0.0854
75684W        W18778  15.822  22.267  16.236  0.1506 -0.0627  0.2575
75685W        W18779  17.102  19.955  17.311  0.1373  0.5347 -0.2846
75686W        W18780  17.192  20.035  15.701 -0.0768 -0.0891 -0.1595
75687W        W18781  12.430  18.159  17.457 -0.0635 -0.2644 -0.3813
75688W        W18782  16.358  22.985  18.104 -0.2873 -0.0741 -0.1631
75689W        W18783  14.807  19.050  16.175 -0.0517 -0.4700 -0.1393
75690W        W18784  14.023  21.127  15.962  0.0278 -0.1000  0.2198
75691W        W18785  17.258  21.997  17.525  0.0350 -0.0616 -0.2188
75692W        W18786  17.793  22.214  16.863  0.2507  0.0259 -0.2041
75693W        W18787  14.546  18.807  16.953  0.2529 -0.0938  0.2713
75694W        W18788  17.793  19.958  17.788 -0.0353  0.0379 -0.1787
75695W        W18789  14.332  20.687  15.943  0.3037 -0.2929  0.0875
75696W        W18790  16.775  19.607  17.155  0.1379  0.2059  0.0461
75697W        W18791  15.492  23.680  17.327  0.0878 -0.2822 -0.0156
75698W        W18792  13.729  21.629  17.997 -0.1365 -0.0783  0.4343
75699W        W18793  14.910  23.409  17.029 -0.1275 -0.3470  0.3300
75700W        W18794  15.600  19.486  17.461  0.3007 -0.0375 -0.2314
75701W        W18795  15.879  21.094  17.551 -0.2072 -0.0053  0.2486
75702W        W18796  15.659  20.482  18.614  0.1694  0.2551  0.3119
75703W        W18797  17.187  21.925  18.259  0.0275  0.1241 -0.0431
75704W        W18798  17.422  21.503  17.579  0.2531 -0.0044 -0.4254
75705W        W18799  15.106  21.696  19.455 -0.1243 -0.1402 -0.1077
75706W        W18800  16.523  22.214  16.836  0.0507  0.3542 -0.2386
75707W        W18801  16.504  21.401  16.783 -0.2020 -0.0176 -0.1546
75708W        W18802  15.241  20.740  18.300 -0.2610 -0.0879  0.1201
75709W        W18803  13.827  20.762  19.907 -0.2183  0.0313  0.0850
75710W        W18804  16.022  19.419  18.973  0.0149  0.1000 -0.0643
75711W        W18805  16.647  20.771  17.478  0.1156 -0.1268  0.0528
75712W        W18806  14.923  20.605  16.621  0.1742 -0.0739 -0.0028
75713W        W18807  15.260  19.975  15.717  0.1242  0.1252  0.3216
75714W        W18808  16.087  22.786  19.714 -0.1073  0.2869  0.3564
75715W        W18809  14.859  21.344  19.797 -0.2338  0.2879 -0.1867
75716W        W18810  14.599  21.427  15.650 -0.1929  0.0704 -0.0692
75717W        W18811  16.791  20.035  16.944 -0.0173 -0.2458  0.0225
75718W        W18812  17.264  20.517  17.224 -0.2511  0.0954 -0.3145
75719W        W18813  16.599  22.586  17.167 -0.0395 -0.1086  0.0363
75720W        W18814  16.371  20.741  15.662 -0.2127 -0.0458  0.0616
75721W        W18815  15.238  20.981  17.878 -0.1503  0.0397  0.1914
75722W        W18816  14.132  23.000  16.794  0.1307  0.2296 -0.0252
75723W        W18817  17.167  21.608  14.982  0.0784 -0.1628  0.1196
75724W        W18818  14.556  22.701  16.854  0.0014  0.3759 -0.3169
75725W        W18819  17.980  23.746  18.068  0.1614 -0.0405 -0.1650
75726W        W18820  17.566  18.793  15.678  0.1887  0.0926  0.3030
75727W        W18821  17.602  20.835  16.274  0.3074 -0.2892 -0.1725
75728W        W18822  18.656  17.819  15.471  0.0233  0.0951  0.2776
75729W        W18823  18.403  23.123  19.411  0.1120 -0.1303  0.0276
75730W        W18824  15.843  19.993  17.369  0.0358  0.0222  0.0008
75731W        W18825  15.505  21.564  16.196 -0.0043 -0.0871 -0.1641
75732W        W18826  16.198  22.082  18.131  0.0346 -0.2855  0.1673
75733W        W18827  15.160  20.349  17.037 -0.0557  0.1693 -0.0810
75734W        W18828  14.540  23.023  19.069 -0.0737  0.2181  0.6051
75735W        W18829  18.005  22.030  16.149  0.0068  0.3091  0.1107
75736W        W18830  14.312  18.821  15.977  0.1053 -0.0511  0.4605
75737W        W18831  14.285  21.746  18.259 -0.2152  0.0029 -0.0273
75738W        W18832  17.011  18.030  17.677 -0.3503 -0.2586  0.0027
75739W        W18833  15.242  20.666  16.236  0.0405 -0.1339  0.0960
75740W        W18834  16.482  19.710  18.033  0.0897  0.0198 -0.0866
75741W        W18835  15.131  21.984  16.887  0.1292 -0.1114  0.2113
75742W        W18836  16.351  22.647  17.670  0.0794  0.1210 -0.2215
75743W        W18837  14.141  21.445  17.811  0.0770 -0.2896  0.0011
75744W        W18838  14.573  18.634  16.411  0.0146  0.1900  0.1279
75745W        W18839  17.739  21.567  16.190  0.0484 -0.0630 -0.3093
75746W        W18840  14.229  19.806  17.894  0.1744 -0.0573  0.2692
75747W        W18841  17.603  18.442  16.081 -0.1572  0.3499 -0.0166
75748W        W18842  13.952  20.264  17.206  0.0592 -0.0290  0.0474
75749W        W18843  17.018  19.208  16.298 -0.1490  0.3086 -0.2012
75750W        W18844  16.058  20.979  18.476 -0.1253  0.0315  0.2807
75751W        W18845  12.800  19.650  20.062 -0.0322 -0.1927 -0.3276
75752W        W18846  15.410  20.707  16.808 -0.0282 -0.0832  0.3987
75753W        W18847  17.138  19.441  17.528 -0.0921  0.0019 -0.0262
75754W        W18848  16.692  21.620  15.765  0.1571 -0.1067 -0.2111
75755W        W18849  18.285  23.475  18.973 -0.0720  0.0163  0.3224
75756W        W18850  14.952  18.020  16.780 -0.1070  0.0596  0.0151
75757W        W18851  16.079  19.651  16.447 -0.0877 -0.0329  0.0138
75758W        W18852  14.312  21.324  16.993  0.0547  0.1782  0.1435
75759W        W18853  14.363  20.143  17.425  0.0904  0.0406  0.0143
75760W        W18854  16.975  21.679  17.713  0.2581  0.2656  0.2153
75761W        W18855  12.816  18.340  17.176  0.1379  0.0980  0.0485
75762W        W18856  18.316  21.562  16.325  0.1514  0.2732 -0.1688
75763W        W18857  16.853  21.165  18.831  0.1041  0.0852 -0.1163
75764W        W18858  15.335  22.327  16.318 -0.0136  0.0147  0.0518
75765W        W18859  17.407  20.877  16.862  0.0254 -0.1481  0.2458
75766W        W18860  16.860  22.080  17.177 -0.0609 -0.1545 -0.0829
75767W        W18861  13.438  19.005  17.592 -0.1852  0.1745  0.2445
75768W        W18862  16.521  22.603  19.663  0.2382 -0.1070 -0.1849
75769W        W18863  16.560  20.402  18.296 -0.2046  0.0288 -0.0028
75770W        W18864  14.647  20.587  18.291 -0.1068 -0.2478  0.1269
75771W        W18865  13.697  19.458  18.508 -0.0660 -0.1309 -0.1675
75772W        W18866  15.108  21.745  17.374  0.1174  0.1110  0.0216
75773W        W18867  17.406  19.460  16.456  0.1604 -0.1238  0.0298
75774W        W18868  16.950  18.940  17.564  0.1869 -0.0518 -0.0487
75775W        W18869  14.330  22.143  16.681 -0.3350  0.1468  0.0673
75776W        W18870  17.569  18.543  17.096 -0.0538 -0.0500 -0.1155
75777W        W18871  16.227  21.817  20.001 -0.0949 -0.0295 -0.3294
75778W        W18872  16.224  20.736  17.797  0.2354  0.2784  0.0811
75779W        W18873  13.434  20.343  15.769 -0.3079  0.2153  0.1047
75780W        W18874  16.027  22.530  18.289 -0.0109  0.0075 -0.0071
75781W        W18875  15.990  22.787  16.434  0.0940 -0.0829  0.0742
75782W        W18876  15.962  21.433  16.134 -0.2338  0.0510 -0.1686
75783W        W18877  16.316  22.095  17.284 -0.4163 -0.3079 -0.2030
75784W        W18878  16.853  20.109  16.112  0.0477  0.1242 -0.1343
75785W        W18879  17.785  22.870  17.540 -0.1063 -0.3352 -0.0701
75786W        W18880  14.856  19.290  17.111  0.0209  0.0401 -0.1344
75787W        W18881  16.588  17.988  16.222 -0.0781 -0.0210  0.1572
75788W        W18882  16.183  18.463  15.462 -0.2916 -0.0035 -0.1402
75789W        W18883  14.062  20.786  17.820 -0.0832  0.0390  0.0824
75790W        W18884  13.850  20.717  16.211 -0.1931 -0.0183 -0.2898
75791W        W18885  15.480  21.254  15.795  0.0620 -0.1901  0.2270
75792W        W18886  14.451  20.862  18.757  0.1493  0.1203  0.1340
75793W        W18887  15.524  19.487  18.981 -0.2022 -0.1118 -0.0576
75794W        W18888  14.559  20.255  17.905  0.0484  0.0575  0.1823
75795W        W18889  13.487  19.842  17.149 -0.1660 -0.0791 -0.1530
75796W        W18890  15.498  18.164  16.800 -0.1862  0.2059  0.1389
75797W        W18891  16.871  20.706  17.057  0.1018  0.1432  0.3916
75798W        W18892  15.087  19.210  17.589 -0.1028  0.0388 -0.0665
75799W        W18893  13.276  17.527  16.707  0.0670  0.2495  0.3235
75800W        W18894  17.319  20.464  16.557 -0.0410  0.3467  0.5293
75801W        W18895  17.155  21.671  15.948 -0.0188  0.1307  0.0945
75802W        W18896  14.972  21.012  15.750 -0.3071 -0.1507  0.0372
75803W        W18897  17.188  22.911  18.934 -0.2895  0.2224  0.1231
75804W        W18898  14.876  21.353  17.101  0.2161 -0.0697 -0.0291
75805W        W18899  17.286  18.998  17.961 -0.1821 -0.0001 -0.1182
75806W        W18900  15.877  18.402  18.138  0.1504  0.1364  0.2643
75807W        W18901  14.600  20.193  16.495  0.1301  0.3690 -0.0755
75808W        W18902  15.425  18.482  17.299 -0.3381 -0.2215  0.1242
75809W        W18903  15.577  21.085  16.315 -0.0924  0.4789  0.0199
75810W        W18904  17.061  21.180  15.837  0.0494 -0.1989 -0.1401
75811W        W18905  16.000  20.533  18.230 -0.0647 -0.2925 -0.0733
75812W        W18906  15.141  22.497  20.384  0.1326  0.1546 -0.2676
75813W        W18907  14.011  18.413  18.349 -0.0797 -0.0458  0.0722
75814W        W18908  16.888  20.582  15.776 -0.1083  0.0013  0.0004
75815W        W18909  15.712  20.752  17.837  0.2368  0.2293  0.3056
75816W        W18910  19.583  20.997  15.875  0.0946 -0.0493  0.1612
75817W        W18911  16.943  18.814  16.659  0.1640  0.0372  0.2032
75818W        W18912  17.853  20.877  15.427 -0.2401  0.2487  0.1010
75819W        W18913  14.221  19.537  18.418 -0.1961 -0.1025 -0.0224
75820W        W18914  15.634  21.043  18.270 -0.0092  0.0615 -0.0843
75821W        W18915  17.810  20.287  17.034 -0.0532 -0.0878  0.3994
75822W        W18916  14.930  19.052  16.639 -0.0332 -0.3848 -0.2152
75823W        W18917  17.165  19.949  16.506  0.1033  0.2330  0.2359
75824W        W18918  16.862  21.792  16.704  0.2035  0.1176 -0.0816
75825W        W18919  13.709  18.608  17.489  0.0003  0.0341  0.1553
75826W        W18920  15.510  20.224  16.122 -0.1544 -0.2562 -0.2085
75827W        W18921  14.851  20.675  19.172  0.2158 -0.1353 -0.3265
75828W        W18922  16.697  20.914  16.631  0.0894 -0.2418 -0.2831
75829W        W18923  17.414  22.569  18.602  0.2020 -0.0674  0.1871
75830W        W18924  16.633  19.340  15.745  0.0740  0.0088  0.2906
75831W        W18925  17.975  20.336  15.430 -0.2633 -0.0537  0.5597
75832W        W18926  16.205  22.994  18.972 -0.1258 -0.0149 -0.1545
75833W        W18927  16.930  22.030  18.698 -0.1323 -0.0061  0.1705
75834W        W18928  15.808  22.018  17.171  0.0472 -0.1717 -0.1139
75835W        W18929  16.542  20.933  18.237 -0.2454  0.0644  0.1931
75836W        W18930  14.107  18.316  17.489  0.0870  0.2277 -0.0578
75837W        W18931  16.740  21.877  16.210  0.0523  0.0180  0.0624
75838W        W18932  14.844  21.261  17.595  0.2967  0.0709 -0.0438
75839W        W18933  17.457  19.631  17.056 -0.4018  0.0516  0.1626
75840W        W18934  14.052  20.275  17.774 -0.0317 -0.5403 -0.0659
75841W        W18935  17.514  19.804  16.025  0.1901 -0.2409  0.1863
75842W        W18936  14.986  22.004  18.139 -0.1837 -0.0930  0.0261
75843W        W18937  16.307  20.929  17.011 -0.1821  0.2412 -0.1247
75844W        W18938  15.475  20.655  20.419  0.1269 -0.6169  0.0160
75845W        W18939  13.850  18.671  20.084  0.1398 -0.0156 -0.1391
75846W        W18940  15.384  19.176  17.103  0.1400  0.0047  0.0108
75847W        W18941  17.597  20.635  19.085 -0.3010 -0.0076 -0.0303
75848W        W18942  13.767  19.424  20.535 -0.3001  0.3349 -0.1070
75849W        W18943  17.594  23.000  20.783  0.0637 -0.1456 -0.1307
75850W        W18944  14.937  19.471  20.660 -0.0269 -0.0576 -0.0828
75851W        W18945  16.647  21.057  20.098 -0.2383 -0.1547  0.1048
75852W        W18946  17.450  21.676  20.710  0.4622  0.1160  0.4640
75853W        W18947  16.491  20.304  20.030  0.2251 -0.2685  0.1597
75854W        W18948  14.186  19.777  19.346 -0.2764  0.3949  0.0507
75855W        W18949  14.876  22.166  20.764  0.0882 -0.0588  0.1162
75856W        W18950  14.489  19.518  19.058 -0.1135  0.0896  0.2326
75857W        W18951  12.122  17.751  20.032 -0.0553  0.1358  0.1027
75858W        W18952  16.147  20.198  20.385 -0.0256 -0.0495  0.1191
75859W        W18953  14.403  22.201  21.455 -0.1537  0.0649  0.0981
75860W        W18954  13.973  19.194  20.090  0.1360 -0.0949  0.3405
75861W        W18955  15.081  20.204  19.371 -0.0865  0.3887  0.2902
75862W        W18956  15.343  23.775  20.221 -0.1672  0.0309  0.1782
75863W        W18957  15.779  18.843  19.986 -0.0949  0.0973  0.0378
75864W        W18958  15.917  19.045  19.402  0.1517 -0.0937  0.3533
75865W        W18959  15.847  20.997  20.157 -0.0659  0.0026  0.2377
75866W        W18960  13.741  19.677  19.020 -0.2166  0.0408  0.0031
75867W        W18961  13.223  21.418  20.423 -0.0819  0.0259  0.4437
75868W        W18962  14.960  20.193  21.103  0.0285  0.0130 -0.0323
75869W        W18963  15.974  18.753  18.969 -0.2994  0.4090  0.1173
75870W        W18964  17.334  21.910  19.588  0.0794  0.4297 -0.1390
75871W        W18965  15.149  24.229  19.283 -0.1051  0.0725 -0.2207
75872W        W18966  14.948  23.256  20.644  0.0545  0.2336 -0.2614
75873W        W18967  17.611  20.145  21.685  0.0449 -0.3525 -0.0790
75874W        W18968  13.282  20.895  20.653  0.4961  0.2725 -0.0393
75875W        W18969  14.960  22.670  21.955 -0.1158  0.0322 -0.2143
75876W        W18970  15.961  22.048  20.385  0.1048  0.0706 -0.1227
75877W        W18971  16.893  21.356  19.329 -0.1052  0.1820  0.3317
75878W        W18972  17.774  21.195  20.747  0.2724  0.0763  0.0757
75879W        W18973  15.442  24.203  23.407  0.2217 -0.1165 -0.1479
75880W        W18974  12.231  21.556  19.424 -0.0144 -0.1504 -0.3524
75881W        W18975  17.406  21.462  21.231  0.0552  0.2717  0.3222
75882W        W18976  16.856  21.555  22.420 -0.1776  0.0378 -0.2572
75883W        W18977  16.214  20.753  19.898 -0.4203  0.2466  0.1408
75884W        W18978  16.571  20.138  20.736 -0.0578  0.0583 -0.2342
75885W        W18979  15.247  21.719  19.970  0.1389 -0.0406 -0.1819
75886W        W18980  15.737  20.550  19.991  0.3836  0.1728  0.2512
75887W        W18981  16.158  20.930  22.386  0.1019  0.3018 -0.0094
75888W        W18982  13.692  21.628  20.566  0.1757 -0.2105 -0.0352
75889W        W18983  18.010  19.197  21.458  0.0169  0.1211 -0.1845
75890W        W18984  16.078  22.324  19.987  0.2509  0.3304 -0.0533
75891W        W18985  17.342  20.410  17.994  0.2170 -0.1380  0.3444
75892W        W18986  16.948  19.149  19.386 -0.2978  0.1662  0.1964
75893W        W18987  17.715  19.135  17.739 -0.0510  0.4201 -0.1387
75894W        W18988  16.444  18.606  18.850 -0.0618  0.1981 -0.0536
75895W        W18989  13.968  23.767  21.192 -0.1556  0.0242 -0.0930
75896W        W18990  14.553  19.553  19.977  0.2370  0.1834  0.1496
75897W        W18991  18.931  21.813  24.288  0.0212 -0.4599 -0.2325
75898W        W18992  16.815  20.123  17.991  0.3414  0.1476 -0.0837
75899W        W18993  16.156  19.556  20.796 -0.3566  0.1922 -0.1564
75900W        W18994  15.051  22.629  22.499  0.1832 -0.0359  0.2937
75901W        W18995  15.192  20.692  21.115  0.2207  0.1613  0.2073
75902W        W18996  16.564  24.006  19.958  0.1999  0.1620 -0.1854
75903W        W18997  17.912  22.155  18.971 -0.1680 -0.0831  0.2567
75904W        W18998  16.839  21.572  18.462 -0.1845  0.0003 -0.0896
75905W        W18999  13.767  19.867  19.522 -0.3810 -0.0520 -0.1967
75906W        W19000  13.710  21.164  22.105  0.0899  0.1843  0.0683
75907W        W19001  15.311  22.315  22.154  0.1375 -0.1917  0.5308
75908W        W19002  13.525  18.571  18.796 -0.0276  0.1521 -0.4001
75909W        W19003  18.705  21.598  22.356  0.0776 -0.0726 -0.0928
75910W        W19004  14.128  22.819  23.683 -0.0685 -0.0252  0.1323
75911W        W19005  18.023  20.458  21.674 -0.0373 -0.1239  0.2380
75912W        W19006  15.644  20.090  20.462 -0.2002 -0.0504  0.1130
75913W        W19007  16.795  22.243  20.851 -0.1166  0.0183  0.2351
75914W        W19008  17.757  20.163  19.880  0.0748 -0.0616  0.1380
75915W        W19009  18.248  19.860  19.468  0.2906  0.3208 -0.0527
75916W        W19010  17.701  19.957  20.346  0.3077 -0.1021  0.1085
75917W        W19011  15.436  21.150  20.488  0.0121 -0.0440 -0.0913
75918W        W19012  15.598  21.683  19.049  0.0311 -0.1146  0.0016
75919W        W19013  17.758  22.120  20.661 -0.0184 -0.2382  0.0439
75920W        W19014  16.331  20.266  19.183 -0.1942 -0.0576  0.0940
75921W        W19015  14.481  23.269  22.168 -0.0594 -0.0073  0.1390
75922W        W19016  14.179  19.374  19.720 -0.0878  0.2256  0.0809
75923W        W19017  16.047  22.092  22.265  0.0690  0.1495 -0.2526
75924W        W19018  15.558  22.647  20.073 -0.2009  0.0900 -0.1660
75925W        W19019  14.286  21.763  21.712 -0.0258  0.0214 -0.4030
75926W        W19020  15.181  22.362  19.341  0.3800 -0.4170  0.1684
75927W        W19021  12.319  17.554  20.517 -0.2025 -0.4351  0.1967
75928W        W19022  17.107  21.837  21.548  0.2733 -0.0778 -0.2300
75929W        W19023  17.721  20.101  19.247  0.1564  0.3304 -0.2968
75930W        W19024  13.817  20.437  20.961 -0.2089 -0.0850  0.0049
75931W        W19025  17.451  19.931  18.266 -0.0866  0.0549 -0.0757
75932W        W19026  14.323  22.379  19.149 -0.2285  0.1029  0.0920
75933W        W19027  17.809  21.582  18.925  0.1638 -0.0707 -0.2577
75934W        W19028  17.895  19.591  18.164 -0.0055 -0.1061  0.1346
75935W        W19029  16.984  21.892  19.180 -0.1739  0.2404  0.2544
75936W        W19030  14.664  20.843  21.058  0.0010  0.0853  0.0257
75937W        W19031  14.115  18.674  18.948  0.2380 -0.1352  0.1545
75938W        W19032  15.568  19.385  20.707 -0.1919 -0.0234 -0.2857
75939W        W19033  13.604  18.418  19.716 -0.1781 -0.1608  0.0321
75940W        W19034  18.928  20.103  21.677 -0.0518 -0.0950  0.0294
75941W        W19035  13.639  17.988  20.133 -0.3342 -0.0088 -0.2208
75942W        W19036  17.511  20.421  20.336 -0.2788 -0.1958 -0.0627
75943W        W19037  14.694  20.338  18.750  0.0631  0.0530 -0.1672
75944W        W19038  14.391  21.816  20.927  0.1329  0.1480  0.0055
75945W        W19039  17.288  19.111  20.227 -0.1619 -0.0185 -0.1253
75946W        W19040  15.996  23.256  19.675  0.1360  0.0715  0.1816
75947W        W19041  18.412  21.562  20.717 -0.1390 -0.2189  0.3652
75948W        W19042  17.710  22.697  19.710  0.1292 -0.2293  0.1365
75949W        W19043  17.012  18.733  20.804  0.0984  0.1815  0.0179
75950W        W19044  15.113  21.437  18.934 -0.0490 -0.0652 -0.2235
75951W        W19045  14.610  23.568  21.031  0.3741  0.1317 -0.0008
75952W        W19046  14.980  23.742  20.683  0.0645  0.2819  0.0537
75953W        W19047  15.043  19.808  19.016  0.2218  0.1911  0.0736
75954W        W19048  15.999  23.742  19.998 -0.0635  0.1030  0.0511
75955W        W19049  16.492  20.761  18.709 -0.3418 -0.2285 -0.2068
75956W        W19050  16.718  21.559  21.772  0.0786  0.0048  0.2162
75957W        W19051  17.092  18.951  19.853 -0.2841  0.4870  0.0165
75958W        W19052  18.781  21.072  20.846  0.1948 -0.0533  0.2080
75959W        W19053  15.870  19.645  20.324 -0.1894 -0.4507 -0.3010
75960W        W19054  14.596  19.983  19.184 -0.0489  0.1557 -0.0727
75961W        W19055  17.284  22.501  20.788 -0.0671  0.2777 -0.0492
75962W        W19056  14.142  21.515  21.223 -0.1078  0.0568  0.2278
75963W        W19057  13.467  21.083  19.931 -0.1767  0.0830 -0.3220
75964W        W19058  15.419  22.778  21.808 -0.0910 -0.2572  0.0288
75965W        W19059  17.359  19.236  19.530 -0.0888  0.2459 -0.2544
75966W        W19060  14.698  20.763  22.280 -0.1226 -0.1746 -0.1860
75967W        W19061  16.999  20.486  20.928 -0.1353 -0.0586 -0.1580
75968W        W19062  12.707  18.917  18.922 -0.1379  0.1677  0.0701
75969W        W19063  15.453  22.894  22.388  0.3779  0.2143  0.2139
75970W        W19064  15.645  19.567  18.449 -0.2021  0.2092  0.2329
75971W        W19065  16.961  16.724  17.701  0.2551  0.1426 -0.0324
75972W        W19066  16.924  21.740  21.117  0.1760  0.0656  0.0112
75973W        W19067  17.553  20.970  19.519 -0.4338  0.0173 -0.0658
75974W        W19068  17.719  18.093  17.302 -0.3542 -0.1127  0.2035
75975W        W19069  15.645  19.820  17.920  0.0422  0.0589  0.0770
75976W        W19070  15.029  21.999  20.299  0.0210  0.0739  0.0316
75977W        W19071  15.137  22.493  21.009  0.0868  0.1781 -0.0896
75978W        W19072  16.497  20.402  21.722  0.0515  0.3491  0.3400
75979W        W19073  15.392  19.352  17.964  0.0647  0.0976  0.1935
75980W        W19074  20.198  22.325  20.040  0.3172  0.2799  0.0880
75981W        W19075  14.710  22.031  23.238 -0.1381 -0.0853  0.0640
75982W        W19076  17.278  20.880  21.173  0.0147  0.0047 -0.0792
75983W        W19077  16.037  21.540  20.860  0.0998  0.0290  0.3775
75984W        W19078  16.213  18.395  19.254 -0.1594 -0.2655  0.0157
75985W        W19079  15.829  20.480  19.135 -0.1004 -0.1632  0.3388
75986W        W19080  16.156  19.509  18.482 -0.3842 -0.0008 -0.0802
75987W        W19081  14.664  21.322  18.595  0.2023 -0.1721 -0.2268
75988W        W19082  17.275  20.034  20.032 -0.2072  0.1582 -0.2655
75989W        W19083  16.374  18.942  19.286 -0.0276  0.2007 -0.0064
75990W        W19084  16.776  19.065  20.195  0.2405  0.1566  0.1845
75991W        W19085  18.148  19.853  22.085  0.2067 -0.0575 -0.1635
75992W        W19086  17.254  21.082  18.582 -0.2339  0.0752  0.0141
75993W        W19087  15.259  20.698  19.838  0.2606  0.0351 -0.1638
75994W        W19088  14.755  22.227  18.850 -0.0975  0.2472 -0.0865
75995W        W19089  15.984  19.164  21.102  0.5712 -0.2302  0.2048
75996W        W19090  15.352  21.131  21.396  0.2187 -0.2197 -0.2305
75997W        W19091  13.236  22.381  23.712  0.2386 -0.3114  0.2020
75998W        W19092  17.573  22.844  21.276  0.3298  0.2002 -0.2871
75999W        W19093  15.868  20.967  18.959 -0.0977  0.1228 -0.0693
76000W        W19094  16.658  18.753  19.752 -0.2164 -0.0277  0.2261
76001W        W19095  16.066  20.042  20.868 -0.4001 -0.3403  0.0542
76002W        W19096  16.853  23.033  19.992  0.0804 -0.0297  0.0544
76003W        W19097  15.811  19.993  19.936  0.3161  0.0664 -0.2822
76004W        W19098  15.028  19.071  20.345  0.1891 -0.0002  0.1372
76005W        W19099  17.249  23.990  22.432 -0.0064 -0.0249  0.1672
76006W        W19100  15.379  21.811  18.512  0.1468 -0.0111 -0.2025
76007W        W19101  16.381  20.564  20.855  0.1368  0.1704 -0.1994
76008W        W19102  14.668  20.535  19.656  0.2020  0.0067  0.1448
76009W        W19103  12.890  23.441  20.104 -0.2982 -0.0454 -0.0849
76010W        W19104  15.725  20.859  19.604  0.1790  0.0354 -0.0018
76011W        W19105  13.987  21.675  20.173 -0.1795 -0.1107 -0.0288
76012W        W19106  16.920  19.650  19.421 -0.2656 -0.0179  0.0019
76013W        W19107  17.070  20.648  18.892  0.1066 -0.1260 -0.1404
76014W        W19108  15.589  18.655  19.439  0.3844 -0.0094 -0.0095
76015W        W19109  16.290  19.821  20.026 -0.0247 -0.0198 -0.3671
76016W        W19110  14.535  22.983  22.655 -0.2886  0.0934 -0.2888
76017W        W19111  18.053  21.672  23.126 -0.0487  0.2067 -0.0648
76018W        W19112  16.965  19.720  18.224 -0.0136  0.0386  0.0394
76019W        W19113  15.130  21.559  21.265 -0.1408 -0.0368  0.1303
76020W        W19114  14.664  20.947  19.967 -0.1252  0.2381  0.2051
76021W        W19115  13.144  18.827  19.668 -0.1534  0.0904 -0.0410
76022W        W19116  19.526  20.287  20.901  0.2214  0.2268  0.1865
76023W        W19117  15.580  20.874  20.884  0.0464  0.3290 -0.5038
76024W        W19118  14.414  22.286  20.713  0.2485 -0.1884  0.0553
76025W        W19119  16.736  21.582  19.921 -0.0961 -0.0556 -0.1414
76026W        W19120  14.111  19.896  19.939 -0.0274 -0.0647 -0.2201
76027W        W19121  16.105  21.883  21.303 -0.3644 -0.2605  0.1129
76028W        W19122  14.837  20.560  20.206  0.0204  0.3072 -0.0597
76029W        W19123  19.164  19.664  21.050  0.0608 -0.0110  0.1215
76030W        W19124  14.318  20.750  20.656  0.1581  0.0569 -0.0591
76031W        W19125  15.919  19.762  19.348  0.2252  0.0894  0.0606
76032W        W19126  16.667  19.320  19.012  0.0431  0.0012  0.0122
76033W        W19127  18.901  21.572  20.917 -0.3167 -0.1487  0.1010
76034W        W19128  15.471  19.202  20.088 -0.0954  0.1030  0.2739
76035W        W19129  15.591  21.347  22.429  0.0856  0.1103  0.1065
76036W        W19130  15.531  20.305  19.579  0.1884  0.0076 -0.1332
76037W        W19131  19.093  23.521  20.058 -0.3709  0.0975  0.1797
76038W        W19132  17.473  20.302  20.813 -0.0235  0.0934  0.3826
76039W        W19133  14.754  21.823  19.909 -0.1640  0.0028 -0.0335
76040W        W19134  12.978  20.491  19.909 -0.2421 -0.1895  0.1064
76041W        W19135  16.663  20.752  19.191  0.0750  0.0372  0.1192
76042W        W19136  16.347  19.827  18.975 -0.0022 -0.0785 -0.0930
76043W        W19137  14.132  22.628  21.213  0.6603  0.0618 -0.1103
76044W        W19138  15.792  21.569  19.801 -0.1172  0.1611  0.1109
76045W        W19139  14.652  21.628  21.355 -0.1024  0.1236  0.1590
76046W        W19140  17.755  19.097  18.253 -0.1654  0.0394  0.5152
76047W        W19141  16.125  21.203  18.057 -0.0757 -0.2925  0.2196
76048W        W19142  14.204  18.192  18.757  0.3475 -0.1161  0.1851
76049W        W19143  18.109  19.581  20.593  0.0235 -0.0997 -0.3224
76050W        W19144  16.159  20.791  19.357 -0.3557 -0.0655  0.0472
76051W        W19145  16.436  20.089  21.244 -0.1376  0.1057 -0.1319
76052W        W19146  15.428  19.654  19.737  0.2100 -0.0105 -0.1661
76053W        W19147  17.238  21.785  20.071 -0.1985 -0.2664  0.0976
76054W        W19148  13.569  20.380  21.382 -0.0827  0.5642 -0.1093
76055W        W19149  16.618  21.996  21.389  0.1345  0.1614  0.3972
76056W        W19150  15.401  21.196  21.944  0.2477 -0.0063  0.2178
76057W        W19151  16.669  20.331  18.812 -0.0723 -0.1703 -0.1410
76058W        W19152  14.848  19.649  19.503 -0.0601  0.4581  0.1965
76059W        W19153  15.123  21.199  20.862  0.3153  0.2631 -0.1504
76060W        W19154  16.494  21.530  20.354 -0.0619 -0.2394 -0.1137
76061W        W19155  15.656  22.451  19.594  0.0209 -0.2610  0.4935
76062W        W19156  17.130  21.321  19.824  0.1188 -0.0558  0.4476
76063W        W19157  14.768  22.150  21.793 -0.1275  0.2527 -0.0832
76064W        W19158  16.866  19.832  18.937 -0.1550 -0.0062  0.0574
76065W        W19159  17.227  19.934  17.824  0.0533  0.0837  0.0177
76066W        W19160  15.035  21.094  19.417 -0.1139 -0.0742  0.2641
76067W        W19161  16.036  19.564  21.734  0.0240 -0.2159  0.1685
76068W        W19162  17.115  20.766  20.194  0.0785 -0.0793 -0.2526
76069W        W19163  16.814  19.933  19.844 -0.1869  0.3010 -0.2701
76070W        W19164  17.009  19.502  20.433  0.2668  0.0982 -0.1541
76071W        W19165  18.876  21.536  21.576  0.2241  0.2767 -0.0025
76072W        W19166  16.208  20.671  21.329 -0.3081 -0.2228  0.3521
76073W        W19167  13.082  20.874  20.214 -0.2987  0.1795 -0.0041
76074W        W19168  18.891  22.085  22.300  0.1549  0.2833  0.0643
76075W        W19169  16.890  19.292  17.974 -0.0016  0.1071  0.3603
76076W        W19170  18.152  20.125  20.249  0.0857 -0.1650 -0.2061
76077W        W19171  16.535  20.524  19.587 -0.1109 -0.5020  0.3225
76078W        W19172  16.827  20.247  19.250 -0.0199 -0.4013  0.0706
76079W        W19173  14.541  19.202  20.279 -0.0093  0.3393 -0.0083
76080W        W19174  18.510  20.824  21.952 -0.0870  0.2280  0.0793
76081W        W19175  15.450  21.187  19.144 -0.5352 -0.3728 -0.0336
76082W        W19176  16.996  20.307  20.499  0.3959 -0.1593 -0.2607
76083W        W19177  15.159  22.706  18.795  0.1331 -0.0212  0.3725
76084W        W19178  15.467  20.888  18.709 -0.0046  0.0971 -0.1564
76085W        W19179  16.713  19.757  17.645 -0.0095  0.0842  0.2041
76086W        W19180  14.023  20.921  19.265 -0.0520 -0.1909 -0.0053
76087W        W19181  15.213  24.728  23.602 -0.1126  0.0897  0.1364
76088W        W19182  14.148  20.434  18.649  0.2844 -0.0119 -0.2122
76089W        W19183  15.481  21.229  19.907 -0.0080  0.0538  0.1978
76090W        W19184  15.331  21.999  21.087  0.0776  0.1705 -0.0134
76091W        W19185  18.972  20.611  21.842  0.1761  0.4192  0.1909
76092W        W19186  15.404  19.998  18.655  0.1955 -0.2542 -0.1413
76093W        W19187  18.231  19.470  21.801  0.2578 -0.1559  0.2102
76094W        W19188  15.969  20.226  21.318 -0.3951  0.0543  0.3489
76095W        W19189  16.896  18.849  18.799 -0.0951 -0.1692  0.1706
76096W        W19190  14.938  22.876  21.491  0.0806 -0.0482 -0.1372
76097W        W19191  14.565  23.020  20.975 -0.2791  0.0686  0.1929
76098W        W19192  14.982  21.519  21.763 -0.3779  0.2964  0.1976
76099W        W19193  16.339  19.098  19.803  0.0779  0.1776  0.1026
76100W        W19194  16.678  19.438  19.832 -0.3005  0.1031 -0.1753
76101W        W19195  17.270  19.737  18.670  0.0012 -0.1675 -0.0948
76102W        W19196  18.596  18.865  21.056  0.1761 -0.1264 -0.0492
76103W        W19197  16.950  21.145  22.006  0.1929  0.1190  0.0471
76104W        W19198  16.359  19.421  19.424 -0.2945 -0.0032 -0.0321
76105W        W19199  17.182  22.227  20.358  0.0717  0.0519 -0.1381
76106W        W19200  17.745  22.039  20.171 -0.1453  0.2067  0.1764
76107W        W19201  14.147  21.390  20.690  0.0518  0.0248  0.0256
76108W        W19202  14.796  21.127  21.462 -0.0153 -0.0805 -0.0663
76109W        W19203  14.467  20.954  19.400 -0.1519  0.0906  0.0116
76110W        W19204  16.741  20.985  20.573  0.0182 -0.4695 -0.0794
76111W        W19205  12.871  18.401  20.399  0.0960 -0.1969 -0.0894
76112W        W19206  15.126  23.361  19.761 -0.0465 -0.0623  0.1443
76113W        W19207  15.054  22.802  23.348 -0.3770 -0.1293 -0.2422
76114W        W19208  14.308  20.362  22.476 -0.0682 -0.0917 -0.1366
76115W        W19209  15.982  22.700  20.334 -0.1810  0.0277  0.0026
76116W        W19210  17.229  20.057  19.515 -0.3535 -0.3308  0.3553
76117W        W19211  15.367  19.646  20.327 -0.0451  0.0391  0.3069
76118W        W19212  16.969  21.336  21.362  0.1150  0.1977 -0.0200
76119W        W19213  15.890  19.946  18.822 -0.2371 -0.0731  0.1414
76120W        W19214  15.456  22.707  21.345  0.1703  0.0336  0.0583
76121W        W19215  14.267  22.950  19.988  0.1843 -0.2433 -0.0464
76122W        W19216  17.503  22.063  18.640  0.2479  0.2678  0.1039
76123W        W19217  14.655  22.339  20.297 -0.0015  0.3719 -0.2595
76124W        W19218  18.530  21.135  22.524  0.0327 -0.2944 -0.2132
76125W        W19219  16.286  18.358  17.750  0.0491 -0.3556  0.2862
76126W        W19220  17.067  20.775  21.646 -0.2184  0.2250  0.1627
76127W        W19221  17.525  20.490  18.606  0.4872  0.1195 -0.1280
76128W        W19222  17.217  21.179  20.812 -0.1423 -0.1113  0.3795
76129W        W19223  16.167  18.615  19.693  0.0018 -0.2991  0.0398
76130W        W19224  14.504  18.988  19.046  0.0665 -0.0713  0.0071
76131W        W19225  15.676  20.343  20.949  0.2237 -0.0621 -0.3538
76132W        W19226  13.565  23.391  24.140 -0.1880 -0.0309  0.0151
76133W        W19227  18.390  24.777  18.321  0.2684  0.0611 -0.0659
76134W        W19228  12.820  18.700  19.999 -0.2700 -0.1345  0.2836
76135W        W19229  16.368  19.909  19.551  0.3230 -0.0086  0.3934
76136W        W19230  14.602  21.696  20.490 -0.2286  0.2904  0.1979
76137W        W19231  17.690  19.672  19.626  0.2489  0.1874 -0.0545
76138W        W19232  14.028  22.864  19.213 -0.0441  0.3749  0.0501
76139W        W19233  14.051  20.641  22.034 -0.1994 -0.0646  0.0368
76140W        W19234  15.647  21.699  21.368  0.2066 -0.1401  0.0315
76141W        W19235  14.410  21.465  20.100 -0.2717  0.3195  0.1660
76142W        W19236  18.758  19.842  18.525 -0.2920  0.1761  0.2892
76143W        W19237  15.887  21.254  21.326  0.0740  0.1021  0.0660
76144W        W19238  16.677  19.278  18.506 -0.0538 -0.0035  0.2217
76145W        W19239  13.868  20.553  20.441 -0.0773  0.1592 -0.2060
76146W        W19240  18.243  20.315  19.356  0.1929 -0.0495  0.1861
76147W        W19241  16.434  22.114  19.536  0.0114  0.0847 -0.1760
76148W        W19242  14.533  21.211  22.051 -0.0935  0.1973 -0.2335
76149W        W19243  16.310  19.090  18.766 -0.1095  0.0232 -0.1877
76150W        W19244  19.371  20.964  21.970 -0.1939 -0.0281  0.0219
76151W        W19245  17.231  19.231  18.436 -0.0572  0.2519 -0.0204
76152W        W19246  17.392  23.386  21.147  0.0106  0.0109 -0.0270
76153W        W19247  14.309  20.465  20.035 -0.0884  0.1370 -0.3074
76154W        W19248  17.211  19.225  18.896  0.0557  0.0553  0.0245
76155W        W19249  14.075  21.931  19.102  0.1158 -0.0690 -0.2101
76156W        W19250  16.911  19.968  21.052  0.4113  0.1244 -0.1819
76157W        W19251  19.274  20.538  22.323 -0.0256  0.1473  0.2410
76158W        W19252  13.285  19.269  19.868 -0.1300 -0.1074 -0.0288
76159W        W19253  18.035  22.933  19.161 -0.3413  0.0651  0.1930
76160W        W19254  17.370  19.646  19.149  0.1823  0.0044 -0.1578
76161W        W19255  15.923  23.594  21.015  0.2685 -0.4267 -0.0128
76162W        W19256  16.523  21.110  19.589  0.1482  0.2225  0.4962
76163W        W19257  17.298  21.040  19.096 -0.1121  0.0651 -0.1194
76164W        W19258  13.196  20.072  20.207  0.0863  0.0272 -0.0961
76165W        W19259  17.883  21.142  21.211  0.1568  0.0807 -0.0995
76166W        W19260  17.316  20.734  20.655  0.0849 -0.4599  0.6033
76167W        W19261  15.503  18.954  19.031  0.2186  0.1335 -0.2746
76168W        W19262  15.244  20.333  20.721 -0.1754 -0.1023 -0.1120
76169W        W19263  15.111  22.957  20.104 -0.0163 -0.0235  0.0573
76170W        W19264  19.190  20.471  20.491  0.1483 -0.1849 -0.4109
76171W        W19265  18.383  19.243  20.131 -0.1128  0.0755  0.0680
76172W        W19266  16.035  23.850  18.845 -0.2013  0.0764  0.1193
76173W        W19267  17.683  19.299  20.004  0.2772  0.3339  0.0581
76174W        W19268  16.191  21.295  19.883 -0.1305  0.0514 -0.1005
76175W        W19269  15.159  21.752  22.143 -0.0025 -0.0709  0.2199
76176W        W19270  14.284  21.376  19.011 -0.0593  0.3110 -0.1344
76177W        W19271  14.915  21.661  20.863  0.2781 -0.0499 -0.0793
76178W        W19272  13.813  22.314  20.919  0.2906  0.1945  0.0002
76179W        W19273  16.452  21.851  20.828 -0.3184  0.0006 -0.1524
76180W        W19274  16.889  21.852  20.519 -0.2977  0.3162  0.1637
76181W        W19275  17.697  19.466  18.568  0.1424 -0.1105  0.0207
76182W        W19276  18.482  21.564  20.173  0.0997  0.1867 -0.2930
76183W        W19277  14.992  19.961  19.853 -0.2521 -0.0979  0.2048
76184W        W19278  18.262  19.589  18.625 -0.4456 -0.2420  0.2332
76185W        W19279  16.046  18.309  18.637 -0.1409 -0.0004  0.3318
76186W        W19280  16.613  19.596  20.895 -0.3105 -0.1803  0.0590
76187W        W19281  13.782  21.332  19.054  0.1860 -0.1069 -0.1443
76188W        W19282  15.475  21.949  19.482  0.2653  0.0189 -0.0024
76189W        W19283  14.035  21.015  21.074 -0.1255  0.0816 -0.2634
76190W        W19284  15.101  18.334  20.221 -0.1835  0.1621 -0.1412
76191W        W19285  12.835  19.513  20.597 -0.4152 -0.0490 -0.1749
76192W        W19286  13.462  20.855  21.075 -0.0395  0.0491 -0.0334
76193W        W19287  14.286  19.561  20.425  0.0019  0.0302  0.0686
76194W        W19288  16.962  21.372  20.349 -0.2493 -0.3716 -0.1864
76195W        W19289  15.441  19.135  19.534  0.2078 -0.0160  0.0458
76196W        W19290  13.643  18.668  21.459 -0.1518  0.3938 -0.1469
76197W        W19291  16.721  22.024  18.156 -0.2789  0.1935  0.2924
76198W        W19292  17.030  22.724  19.572 -0.0476 -0.3001  0.0346
76199W        W19293  15.525  20.018  19.178  0.2969  0.1406  0.1300
76200W        W19294  19.863  21.706  23.725  0.5008  0.0760  0.2581
76201W        W19295  16.569  21.893  17.692  0.0732 -0.0704 -0.3684
76202W        W19296  16.673  19.837  20.369 -0.0300 -0.0372  0.0345
76203W        W19297  17.166  19.512  19.940 -0.0052 -0.0187 -0.1335
76204W        W19298  12.302  18.663  19.162  0.0457 -0.1071 -0.2019
76205W        W19299  14.925  19.945  20.412  0.0454 -0.0496 -0.0799
76206W        W19300  15.654  22.060  20.013  0.0696 -0.3515  0.1850
76207W        W19301  16.321  23.070  20.087  0.2626 -0.1673 -0.1817
76208W        W19302  14.565  21.297  20.963 -0.2429 -0.2356  0.2004
76209W        W19303  15.876  21.258  22.040  0.2291  0.1452  0.0755
76210W        W19304  12.622  17.853  20.840  0.0034 -0.1942  0.1607
76211W        W19305  17.775  20.560  17.818 -0.2844 -0.2478 -0.1359
76212W        W19306  16.728  20.550  21.362 -0.3880 -0.1528 -0.3681
76213W        W19307  17.525  21.928  19.176  0.1561 -0.0347  0.2235
76214W        W19308  17.010  20.199  18.477  0.5332 -0.2912 -0.1925
76215W        W19309  14.595  19.838  20.719 -0.0266 -0.0018  0.2099
76216W        W19310  15.211  20.926  22.485 -0.0737  0.0075  0.0698
76217W        W19311  17.751  20.681  21.049  0.2688 -0.3997  0.2325
76218W        W19312  14.871  18.908  18.706 -0.1780 -0.0172 -0.1143
76219W        W19313  17.517  18.225  17.706 -0.1457 -0.1916  0.1162
76220W        W19314  17.041  20.700  18.396 -0.0139  0.0443 -0.1217
76221W        W19315  14.170  20.169  20.569 -0.0608 -0.0939  0.0933
76222W        W19316  16.067  19.997  18.251 -0.1404  0.1603 -0.0503
76223W        W19317  16.222  21.154  20.481 -0.0924  0.4421 -0.0982
76224W        W19318  16.485  20.613  20.384  0.0745 -0.1230 -0.1474
76225W        W19319  17.779  20.248  21.225  0.0820 -0.1576  0.2512
76226W        W19320  15.122  19.839  17.790 -0.2249 -0.1760 -0.0691
76227W        W19321  17.770  21.082  18.888 -0.0036 -0.2415  0.0029
76228W        W19322  15.433  23.989  20.662  0.1116 -0.2731 -0.2288
76229W        W19323  19.263  22.017  23.013  0.2072  0.3259  0.0218
76230W        W19324  15.588  21.368  20.968  0.1181 -0.1227  0.2996
76231W        W19325  16.657  20.953  21.060 -0.1718  0.1201 -0.0307
76232W        W19326  14.560  18.620  19.453 -0.0342  0.0502  0.1431
76233W        W19327  15.114  20.989  20.180  0.0506  0.2700 -0.2686
76234W        W19328  14.567  21.151  20.456  0.2812  0.1116  0.2388
76235W        W19329  18.326  20.583  20.569 -0.0211  0.0184 -0.0243
76236W        W19330  14.610  18.272  20.059 -0.0109  0.0179 -0.0708
76237W        W19331  14.808  20.341  17.396  0.0449  0.3209 -0.1891
76238W        W19332  15.607  23.653  23.593  0.0740  0.1846 -0.0484
76239W        W19333  15.527  22.438  20.641 -0.4023  0.0245 -0.0026
76240W        W19334  16.092  21.057  24.121 -0.2456  0.1298 -0.0740
76241W        W19335  16.684  19.985  22.082 -0.1072  0.0280 -0.0149
76242W        W19336  16.826  19.164  20.749  0.0224  0.0376  0.0526
76243W        W19337  18.076  19.326  22.239 -0.0348 -0.0666  0.3350
76244W        W19338  15.927  19.094  20.384 -0.0906  0.2980 -0.2659
76245W        W19339  17.273  20.376  21.363 -0.2631  0.2820  0.0771
76246W        W19340  19.090  21.553  23.300 -0.1282 -0.3261  0.1593
76247W        W19341  16.690  21.576  25.193  0.1091 -0.0797  0.0035
76248W        W19342  16.763  21.435  20.812 -0.1900  0.4282 -0.1151
76249W        W19343  16.347  19.239  23.219  0.1805 -0.1861  0.1647
76250W        W19344  17.774  21.400  24.681 -0.1688  0.2657  0.2337
76251W        W19345  14.060  18.870  22.709  0.2091  0.0598  0.2671
76252W        W19346  18.968  21.309  24.021 -0.1465 -0.3474  0.0361
76253W        W19347  15.543  20.707  23.135  0.3406  0.0354  0.0509
76254W        W19348  15.652  19.743  22.828 -0.2937 -0.3292 -0.2286
76255W        W19349  17.198  19.917  22.104 -0.0461 -0.0723  0.0900
76256W        W19350  17.267  23.659  23.921  0.0217 -0.0577 -0.1691
76257W        W19351  17.301  18.573  24.056 -0.1233  0.1640 -0.0874
76258W        W19352  14.275  21.651  23.015 -0.0781 -0.4593  0.0273
76259W        W19353  14.100  21.256  21.842  0.2498  0.0186  0.3387
76260W        W19354  15.825  20.011  23.314  0.1455  0.1137  0.2661
76261W        W19355  17.781  19.039  21.919  0.4043  0.2463 -0.1336
76262W        W19356  17.019  21.600  23.085 -0.0928  0.1713  0.1881
76263W        W19357  15.613  23.064  24.575  0.1392  0.0410  0.1937
76264W        W19358  16.558  20.844  23.995  0.0138  0.2112 -0.1543
76265W        W19359  18.631  20.808  26.631  0.1853 -0.3481  0.0424
76266W        W19360  15.839  20.765  22.716 -0.0145 -0.4239  0.0037
76267W        W19361  15.066  22.081  23.888  0.0771  0.3130 -0.2305
76268W        W19362  15.598  21.885  22.413 -0.0717 -0.2029 -0.2057
76269W        W19363  18.105  20.350  22.214 -0.0863  0.3401 -0.1647
76270W        W19364  16.461  21.152  25.325 -0.1773 -0.2266  0.0054
76271W        W19365  16.351  21.698  25.665 -0.0436 -0.2193  0.0172
76272W        W19366  14.256  21.044  23.007  0.0055 -0.2963 -0.0981
76273W        W19367  16.298  22.367  24.226 -0.3573  0.1586  0.0269
76274W        W19368  16.394  20.782  24.493  0.0312 -0.2058  0.0825
76275W        W19369  17.787  21.216  23.098 -0.0289  0.1628  0.2418
76276W        W19370  17.196  19.498  23.469 -0.1101 -0.1339 -0.3005
76277W        W19371  16.972  22.335  23.205  0.2254 -0.0584 -0.3317
76278W        W19372  16.666  22.367  23.900  0.2372  0.0903 -0.4422
76279W        W19373  14.355  22.207  22.019 -0.1505  0.0775 -0.3339
76280W        W19374  18.111  18.722  24.956 -0.1356  0.2112 -0.0538
76281W        W19375  15.257  22.010  22.760 -0.1442 -0.1154 -0.1705
76282W        W19376  18.298  19.956  21.664 -0.0257  0.2044  0.4073
76283W        W19377  16.245  21.372  21.640 -0.2238  0.1931 -0.3155
76284W        W19378  17.726  19.570  21.891 -0.0812  0.0484  0.2957
76285W        W19379  16.633  19.024  22.230 -0.0206  0.1688 -0.0606
76286W        W19380  15.749  21.643  23.371  0.1021 -0.2773  0.0217
76287W        W19381  15.766  18.666  22.102 -0.3032 -0.3019 -0.0007
76288W        W19382  19.249  20.783  24.182 -0.2298  0.0429  0.0615
76289W        W19383  15.892  20.444  21.754 -0.3969  0.0682 -0.1441
76290W        W19384  17.553  20.032  22.802 -0.0196  0.0530 -0.0289
76291W        W19385  15.608  22.583  24.491  0.1325 -0.1245  0.1229
76292W        W19386  15.198  19.817  21.777 -0.1505 -0.1287  0.3703
76293W        W19387  19.398  21.823  21.623 -0.1740  0.0177 -0.0750
76294W        W19388  19.051  22.225  24.559 -0.1053  0.2779 -0.1623
76295W        W19389  18.407  22.181  22.455 -0.0876  0.3753  0.3567
76296W        W19390  14.148  20.020  22.195 -0.1298 -0.1902 -0.3388
76297W        W19391  14.695  19.755  25.279 -0.1143  0.0311 -0.0479
76298W        W19392  15.689  19.856  21.580  0.1239 -0.1030 -0.0979
76299W        W19393  18.163  20.447  25.309 -0.1307 -0.1799 -0.3808
76300W        W19394  13.467  21.486  23.610  0.3084 -0.1797  0.3765
76301W        W19395  18.844  19.041  22.690  0.1440  0.0358 -0.0530
76302W        W19396  15.706  20.759  22.142 -0.0992  0.1137 -0.2836
76303W        W19397  18.700  22.313  26.251 -0.0539  0.2900  0.5980
76304W        W19398  17.889  19.768  21.391 -0.0975  0.0734 -0.0404
76305W        W19399  17.838  18.773  20.797  0.0245 -0.0092 -0.1616
76306W        W19400  15.734  21.846  21.883 -0.2743  0.1027 -0.1516
76307W        W19401  16.030  21.595  22.346  0.0305  0.3381 -0.1070
76308W        W19402  17.873  20.888  25.479 -0.3006 -0.0273  0.1295
76309W        W19403  18.832  19.797  22.773  0.0730 -0.0344  0.1207
76310W        W19404  16.726  21.883  23.389  0.1244 -0.1706 -0.1018
76311W        W19405  16.837  19.859  23.603  0.1210 -0.3403 -0.2597
76312W        W19406  17.260  22.562  24.495 -0.0505 -0.2113 -0.0909
76313W        W19407  15.930  22.072  22.710 -0.3127 -0.0448 -0.0939
76314W        W19408  15.556  20.140  21.970 -0.1121  0.2188 -0.2317
76315W        W19409  14.270  22.141  22.998 -0.0037 -0.0076 -0.0745
76316W        W19410  14.742  18.884  23.299 -0.2005 -0.1777  0.1024
76317W        W19411  16.514  20.886  23.424 -0.2567  0.2951 -0.5538
76318W        W19412  17.891  19.633  22.602 -0.3963  0.3840 -0.1876
76319W        W19413  15.063  19.267  23.501 -0.0693  0.2447 -0.1126
76320W        W19414  19.162  20.385  21.280 -0.2019 -0.2739 -0.3744
76321W        W19415  15.009  21.313  22.257  0.0580 -0.2287  0.0472
76322W        W19416  19.324  23.254  22.945 -0.2229 -0.1576 -0.0163
76323W        W19417  17.644  19.435  20.487  0.0169  0.1084 -0.0109
76324W        W19418  18.975  21.102  22.198 -0.1702  0.1702  0.1299
76325W        W19419  15.148  21.389  22.737 -0.0876 -0.0365 -0.1015
76326W        W19420  15.401  20.219  21.371  0.1852  0.1188 -0.2399
76327W        W19421  14.077  19.814  22.665  0.2294 -0.1848 -0.0932
76328W        W19422  17.056  20.299  25.446 -0.0674  0.0031 -0.2179
76329W        W19423  14.401  17.794  21.430 -0.1137  0.0563  0.2822
76330W        W19424  18.530  21.419  22.977 -0.1401  0.1623 -0.1677
76331W        W19425  15.058  20.571  22.819 -0.0053 -0.2265 -0.0103
76332W        W19426  13.881  20.793  21.634 -0.1848  0.0562  0.2377
76333W        W19427  17.814  19.339  24.317 -0.1995  0.0888 -0.1065
76334W        W19428  17.390  22.653  23.316 -0.0422 -0.1719  0.0715
76335W        W19429  18.529  21.586  25.681  0.1677  0.1089 -0.1699
76336W        W19430  19.229  21.806  22.483 -0.1464 -0.2505 -0.3037
76337W        W19431  15.919  19.440  19.833 -0.2243  0.0486  0.1076
76338W        W19432  15.475  22.434  23.925  0.2023 -0.0720 -0.2298
76339W        W19433  17.265  21.260  24.530  0.0167 -0.0126  0.1789
76340W        W19434  15.288  19.835  20.845  0.3103  0.1105 -0.0313
76341W        W19435  19.334  22.819  25.905 -0.4082  0.3538  0.1190
76342W        W19436  16.372  19.934  21.714  0.1492  0.1816  0.3616
76343W        W19437  15.623  22.038  23.645 -0.1742 -0.2681  0.3378
76344W        W19438  17.327  19.087  23.695  0.3581 -0.1936  0.2688
76345W        W19439  17.853  20.327  24.101 -0.0950  0.1116 -0.0317
76346W        W19440  18.006  20.090  22.708 -0.2005  0.0078 -0.0864
76347W        W19441  14.309  18.133  21.059  0.0918 -0.5655  0.0102
76348W        W19442  17.916  21.931  24.467  0.0663  0.0288 -0.0432
76349W        W19443  14.060  22.454  21.690 -0.1326  0.0227  0.0281
76350W        W19444  14.532  19.835  22.458 -0.2596 -0.0731 -0.1077
76351W        W19445  17.797  22.530  24.607  0.0891  0.0735  0.1759
76352W        W19446  17.752  19.094  22.532 -0.3777  0.1749  0.1386
76353W        W19447  14.982  20.746  20.619 -0.1442 -0.3645  0.0384
76354W        W19448  15.822  22.122  24.389  0.0739  0.0896  0.0421
76355W        W19449  18.313  18.935  22.045  0.0834  0.3643 -0.1579
76356W        W19450  18.477  19.347  21.282  0.0615  0.1232  0.0499
76357W        W19451  16.871  20.640  25.131 -0.0517 -0.1016  0.0905
76358W        W19452  18.496  20.583  22.614 -0.2409 -0.0963 -0.1218
76359W        W19453  17.734  19.756  20.854  0.1973  0.1378  0.0283
76360W        W19454  16.336  18.794  20.225 -0.2085  0.2205 -0.0210
76361W        W19455  16.593  20.781  22.025  0.0964 -0.0887  0.1342
76362W        W19456  17.179  20.418  22.842 -0.0982  0.0523 -0.0277
76363W        W19457  16.914  19.502  22.047 -0.1260 -0.0222  0.2383
76364W        W19458  20.040  20.209  21.265  0.3003 -0.1838 -0.0930
76365W        W19459  16.677  22.819  24.389 -0.2205 -0.2616 -0.2198
76366W        W19460  17.692  20.550  25.847 -0.2173  0.0729 -0.2408
76367W        W19461  18.059  21.417  24.280  0.1781  0.2017 -0.2270
76368W        W19462  16.126  18.932  22.880 -0.1535 -0.0095  0.0042
76369W        W19463  16.075  20.985  20.933  0.1293 -0.2621  0.1508
76370W        W19464  13.707  22.199  24.123 -0.2267  0.0294 -0.0945
76371W        W19465  17.471  19.498  22.925  0.0166  0.0498  0.0721
76372W        W19466  17.118  19.236  22.645 -0.2709  0.1115  0.1958
76373W        W19467  18.104  20.126  26.105  0.1626  0.3046  0.0459
76374W        W19468  17.679  18.866  21.327  0.0451  0.0716  0.1727
76375W        W19469  17.302  20.374  25.036  0.0826  0.3277  0.1002
76376W        W19470  13.596  19.801  20.960 -0.1200 -0.0375  0.1593
76377W        W19471  15.344  21.880  24.232 -0.1443 -0.1279 -0.0856
76378W        W19472  18.705  20.551  26.148 -0.0295 -0.0839  0.0516
76379W        W19473  17.490  20.492  23.663 -0.0353 -0.1114 -0.0890
76380W        W19474  17.723  18.882  24.135  0.1155 -0.1346 -0.0089
76381W        W19475  15.606  19.375  21.397  0.2323 -0.0008 -0.0775
76382W        W19476  17.589  23.242  24.198 -0.2432  0.1887  0.1433
76383W        W19477  16.059  22.323  21.779 -0.0304 -0.0181  0.0289
76384W        W19478  17.425  22.833  24.968 -0.0815 -0.1444 -0.1007
76385W        W19479  16.477  22.947  22.029 -0.4251 -0.1422 -0.1386
76386W        W19480  17.073  20.796  23.430 -0.2318  0.1302  0.3661
76387W        W19481  15.688  21.659  22.884 -0.2341  0.0527  0.0861
76388W        W19482  17.602  18.662  22.772  0.0664 -0.3477 -0.0104
76389W        W19483  14.246  23.004  24.431 -0.0454 -0.1095 -0.2063
76390W        W19484  15.289  18.746  19.850  0.0169 -0.2141 -0.1175
76391W        W19485  14.099  19.684  23.202 -0.0513  0.3655 -0.2308
76392W        W19486  17.187  19.788  22.585 -0.0027 -0.0393 -0.1054
76393W        W19487  18.309  20.862  21.405  0.3468  0.1323 -0.5472
76394W        W19488  17.659  20.435  22.563 -0.0883  0.0207  0.0852
76395W        W19489  16.023  21.271  22.742  0.0607 -0.0901  0.0654
76396W        W19490  17.352  20.194  24.102  0.0480  0.0476  0.0555
76397W        W19491  16.398  19.199  21.444 -0.2026  0.3951 -0.1177
76398W        W19492  17.051  22.076  24.231 -0.1537 -0.0225  0.0126
76399W        W19493  16.961  20.703  26.716  0.0987  0.0431  0.0394
76400W        W19494  13.030  20.449  21.808 -0.2443  0.3867 -0.1685
76401W        W19495  18.328  19.982  23.142 -0.1045 -0.0514 -0.2455
76402W        W19496  18.632  21.020  23.534 -0.1162 -0.0388  0.2234
76403W        W19497  16.223  20.409  22.174 -0.0588 -0.2241 -0.3468
76404W        W19498  18.333  20.960  26.247  0.0228 -0.2015 -0.0441
76405W        W19499  13.701  20.195  22.524 -0.3769 -0.2999  0.4081
76406W        W19500  15.140  20.509  22.259 -0.3516  0.2066 -0.0398
76407W        W19501  15.046  19.397  24.882  0.0880 -0.0884  0.4212
76408W        W19502  18.263  21.206  23.850 -0.1729 -0.1636  0.0084
76409W        W19503  16.714  20.034  22.920  0.0254  0.0206  0.0990
76410W        W19504  15.880  19.353  22.685  0.0891 -0.3274 -0.2161
76411W        W19505  16.846  19.480  22.962  0.3363 -0.2129  0.1570
76412W        W19506  17.828  21.518  23.822 -0.2273  0.1782  0.0127
76413W        W19507  16.550  17.838  22.604 -0.2076 -0.2667 -0.1544
76414W        W19508  18.486  21.915  24.478 -0.0757  0.1022  0.0071
76415W        W19509  17.600  20.195  24.587 -0.0041  0.0615 -0.2115
76416W        W19510  17.992  20.948  21.858  0.1099 -0.1382  0.0687
76417W        W19511  14.308  20.456  23.884 -0.0376  0.1527 -0.0925
76418W        W19512  15.948  20.698  20.512 -0.1055  0.2816 -0.0273
76419W        W19513  16.758  18.320  22.414  0.0635  0.1704 -0.0247
76420W        W19514  16.669  21.114  22.499  0.2446  0.1760 -0.2417
76421W        W19515  16.040  22.445  23.817 -0.2076  0.0548  0.1973
76422W        W19516  14.889  21.688  23.645  0.0834 -0.0683  0.1697
76423W        W19517  16.370  21.302  22.140 -0.0698 -0.0087 -0.0778
76424W        W19518  16.102  18.893  22.394  0.3098 -0.1455 -0.0674
76425W        W19519  17.289  19.045  23.110 -0.1471 -0.0496 -0.1671
76426W        W19520  17.612  20.685  21.545  0.1873 -0.1298 -0.0089
76427W        W19521  17.364  18.849  24.569 -0.2077  0.0241  0.3639
76428W        W19522  18.823  21.648  24.775 -0.3016 -0.1015 -0.0163
76429W        W19523  16.883  21.131  26.424  0.1816 -0.1788  0.1401
76430W        W19524  16.421  20.076  22.535  0.0229 -0.2819  0.3196
76431W        W19525  15.513  18.581  21.355 -0.0274  0.1582  0.2286
76432W        W19526  17.162  19.879  23.055  0.0526 -0.2678  0.0421
76433W        W19527  18.106  20.980  22.796  0.0826 -0.0512  0.0807
76434W        W19528  17.215  19.911  20.610 -0.1790 -0.1148 -0.3480
76435W        W19529  20.233  18.803  22.390 -0.3558 -0.2139 -0.1517
76436W        W19530  16.062  20.668  23.171 -0.1036  0.3336 -0.0786
76437W        W19531  17.803  21.391  22.549  0.1548  0.4893  0.2435
76438W        W19532  16.470  19.427  21.860 -0.0423  0.0903 -0.1891
76439W        W19533  16.285  19.693  22.885 -0.0339  0.3269 -0.1773
76440W        W19534  18.689  21.961  23.399  0.0494  0.2683  0.0586
76441W        W19535  17.482  19.449  22.307  0.0789  0.2490 -0.1228
76442W        W19536  16.950  18.804  23.482  0.0235 -0.5114 -0.0972
76443W        W19537  18.223  20.532  23.108 -0.1943  0.0689  0.1072
76444W        W19538  17.284  21.542  25.624  0.3879  0.2567  0.2443
76445W        W19539  17.148  19.545  20.933  0.0589  0.2046  0.1581
76446W        W19540  19.551  20.390  23.856 -0.2033  0.0218 -0.0855
76447W        W19541  17.994  20.072  23.652 -0.3185 -0.0774 -0.1768
76448W        W19542  18.503  20.102  22.521 -0.1284  0.0413 -0.2781
76449W        W19543  16.093  19.874  22.141 -0.3109 -0.0496  0.2809
76450W        W19544  19.268  21.078  25.734 -0.2906  0.1808 -0.0310
76451W        W19545  16.219  19.629  21.267  0.0674  0.2550  0.0927
76452W        W19546  18.345  19.783  24.922  0.0686 -0.3539  0.2446
76453W        W19547  15.841  21.991  20.876  0.0089  0.0823  0.0693
76454W        W19548  18.589  20.878  23.037 -0.4026 -0.0805  0.3452
76455W        W19549  17.684  20.022  22.212 -0.1596 -0.4378  0.1636
76456W        W19550  12.923  20.436  23.421 -0.3395  0.1022 -0.0376
76457W        W19551  14.287  23.508  24.105  0.1093  0.0796  0.0904
76458W        W19552  14.435  18.703  20.831 -0.0742  0.0277  0.4617
76459W        W19553  17.876  19.246  20.947 -0.1648 -0.6466  0.0486
76460W        W19554  17.098  21.549  23.603  0.3416  0.1840 -0.0574
76461W        W19555  19.021  19.824  25.248 -0.2238 -0.2634 -0.0975
76462W        W19556  16.445  19.380  20.315 -0.1792 -0.2538 -0.1554
76463W        W19557  17.835  19.689  25.188 -0.2474  0.1269  0.1303
76464W        W19558  16.220  21.693  22.800 -0.1601 -0.2099  0.1247
76465W        W19559  16.786  19.085  21.741  0.0442 -0.0828 -0.0266
76466W        W19560  16.331  21.893  24.246  0.3174 -0.2569 -0.0266
76467W        W19561  14.342  20.148  23.470 -0.0524 -0.4239  0.1115
76468W        W19562  15.675  20.418  23.544 -0.1701  0.3514 -0.1095
76469W        W19563  19.361  19.914  22.746 -0.1127 -0.0513 -0.0065
76470W        W19564  16.345  21.551  23.374  0.3707  0.1246 -0.1960
76471W        W19565  19.363  19.848  24.763 -0.2098  0.0223 -0.1282
76472W        W19566  17.945  22.064  24.998 -0.1824  0.0729  0.1707
76473W        W19567  15.335  19.369  22.581  0.1251 -0.1523  0.0886
76474W        W19568  16.865  21.796  25.931  0.1702 -0.1286 -0.1130
76475W        W19569  19.022  20.207  22.612  0.0884  0.1087  0.1187
76476W        W19570  17.040  22.103  23.720  0.1507 -0.1418 -0.1964
76477W        W19571  14.327  19.395  24.150 -0.1254  0.2874 -0.1863
76478W        W19572  16.406  20.596  24.980  0.0840  0.0449  0.2503
76479W        W19573  18.654  21.509  23.522  0.0297 -0.0610 -0.0443
76480W        W19574  15.591  19.056  21.766 -0.1809  0.1282  0.0882
76481W        W19575  18.137  20.829  22.333  0.2103 -0.0450 -0.0316
76482W        W19576  16.775  21.291  23.397  0.1556  0.0189 -0.1599
76483W        W19577  15.680  20.277  22.920  0.1780  0.2412  0.3028
76484W        W19578  17.831  22.728  22.035 -0.5425  0.2211 -0.0005
76485W        W19579  17.229  21.613  22.068 -0.0768 -0.2443  0.2844
76486W        W19580  17.784  21.691  22.108  0.1696  0.0333 -0.1585
76487W        W19581  17.511  21.889  23.862 -0.1810 -0.2109  0.1076
76488W        W19582  15.703  20.336  22.417 -0.1863 -0.0505  0.2338
76489W        W19583  16.953  21.949  22.679 -0.1898  0.0989  0.1618
76490W        W19584  13.570  21.470  22.974 -0.1684  0.1484  0.0836
76491W        W19585  18.212  21.732  22.627 -0.1336 -0.1547 -0.0935
76492W        W19586  17.413  21.862  22.485 -0.1717 -0.3411  0.1165
76493W        W19587  18.918  20.370  25.094  0.0723 -0.0395  0.0307
76494W        W19588  19.107  20.242  23.667  0.1086 -0.0510  0.2030
76495W        W19589  19.571  21.671  23.263 -0.2413 -0.0860  0.1038
76496W        W19590  17.475  21.719  24.919  0.1284  0.0677 -0.0687
76497W        W19591  17.244  20.772  22.308 -0.0847 -0.1672  0.0367
76498W        W19592  16.174  19.421  22.286 -0.0448 -0.0321  0.0946
76499W        W19593  18.685  18.694  23.617 -0.2323 -0.0742  0.0859
76500W        W19594  19.424  21.472  23.657 -0.2165  0.1489 -0.1736
76501W        W19595  14.662  19.442  21.625  0.1301 -0.0170  0.1642
76502W        W19596  17.598  20.736  23.172  0.1565  0.0604  0.2321
76503W        W19597  18.766  18.596  23.100  0.1247 -0.0602  0.1857
76504W        W19598  17.240  20.431  21.917  0.2467  0.1114  0.2927
76505W        W19599  17.500  20.940  22.715  0.2434  0.1084  0.2804
76506W        W19600  17.492  22.342  22.315  0.2880 -0.1298  0.0947
76507W        W19601  16.366  21.386  23.868 -0.1049 -0.1836 -0.3100
76508W        W19602  16.241  22.261  24.736  0.3321 -0.3810  0.0757
76509W        W19603  16.630  18.909  21.115  0.1823 -0.3609 -0.2060
76510W        W19604  20.146  18.622  23.881 -0.3121 -0.1352  0.0700
76511W        W19605  16.099  21.160  23.271 -0.0314  0.3067 -0.1819
76512W        W19606  17.546  21.147  22.097 -0.1976  0.0078  0.3009
76513W        W19607  17.983  20.606  23.673 -0.2195 -0.2340 -0.0203
76514W        W19608  16.873  20.074  21.543  0.0043 -0.0052 -0.0290
76515W        W19609  18.492  20.339  23.597 -0.1731 -0.1919  0.0728
76516W        W19610  17.386  19.930  21.231 -0.1935  0.1197 -0.1190
76517W        W19611  17.471  21.189  25.181 -0.0887  0.0872  0.1156
76518W        W19612  14.984  18.733  21.409  0.0099  0.2487 -0.2883
76519W        W19613  17.453  18.519  20.886 -0.0284 -0.3442 -0.0519
76520W        W19614  16.648  21.414  22.895 -0.1056 -0.0458  0.0039
76521W        W19615  16.646  20.468  23.107  0.0893  0.2329  0.4403
76522W        W19616  20.024  21.397  26.325  0.2999  0.1508  0.1113
76523W        W19617  14.774  19.764  22.044  0.0302 -0.3010  0.1584
76524W        W19618  19.502  19.601  22.373 -0.3634 -0.0723 -0.0927
76525W        W19619  16.565  20.610  22.561 -0.0205 -0.0171 -0.0562
76526W        W19620  16.494  22.859  22.479  0.2892  0.0031 -0.0081
76527W        W19621  17.656  21.055  23.604  0.1202 -0.1642  0.1401
76528W        W19622  19.391  21.744  24.097  0.0478 -0.1472 -0.0082
76529W        W19623  14.457  19.376  22.681  0.2863  0.0870  0.1876
76530W        W19624  16.652  21.351  25.702  0.4294 -0.1228  0.1152
76531W        W19625  18.236  21.690  24.797 -0.1499  0.1824 -0.0734
76532W        W19626  16.959  20.342  22.356  0.0249 -0.3299  0.2697
76533W        W19627  15.297  21.812  23.247 -0.0457  0.3031  0.1983
76534W        W19628  18.937  18.097  22.719 -0.2134 -0.0885 -0.0278
76535W        W19629  16.985  21.099  25.266 -0.1993  0.1909  0.1040
76536W        W19630  16.034  23.403  21.472  0.0152 -0.0867  0.3802
76537W        W19631  17.653  19.501  23.888 -0.1555 -0.0207 -0.0356
76538W        W19632  16.839  21.283  23.964 -0.1970  0.0081 -0.2952
76539W        W19633  15.525  22.796  26.263 -0.1891  0.2412  0.2654
76540W        W19634  13.772  21.135  22.671  0.0936  0.0831  0.2043
76541W        W19635  17.117  22.568  23.999  0.1618 -0.0707  0.1774
76542W        W19636  14.118  22.457  22.355  0.0566  0.2922 -0.1495
76543W        W19637  17.823  22.100  22.725  0.0001 -0.0328  0.3051
76544W        W19638  18.671  21.339  26.420 -0.1944  0.2858  0.2255
76545W        W19639  16.612  19.613  22.419 -0.0239  0.1576  0.2484
76546W        W19640  19.440  20.855  23.685 -0.1124  0.1910 -0.1150
76547W        W19641  15.982  18.669  21.637  0.2655 -0.0303  0.0006
76548W        W19642  17.383  19.055  20.822  0.2468  0.3683  0.0291
76549W        W19643  15.991  20.839  23.675 -0.2690  0.0317 -0.1384
76550W        W19644  13.840  20.191  21.831 -0.1832 -0.2004  0.0984
76551W        W19645  14.634  21.764  22.067  0.4349  0.2116 -0.0647
76552W        W19646  16.149  20.844  21.875  0.1120 -0.4281  0.2691
76553W        W19647  16.963  19.155  24.534 -0.2128  0.0389  0.3499
76554W        W19648  14.713  19.348  23.898  0.0291  0.0021  0.1678
76555W        W19649  16.348  20.981  22.886  0.3253 -0.1128  0.0430
76556W        W19650  15.327  19.003  21.162  0.0455 -0.0807  0.1770
76557W        W19651  17.580  21.690  21.642 -0.0188 -0.1734  0.1628
76558W        W19652  15.472  18.386  20.768 -0.0983  0.4294  0.1554
76559W        W19653  17.438  21.188  21.636 -0.0197  0.2260 -0.1253
76560W        W19654  18.152  21.323  22.209  0.0949 -0.2055 -0.1237
76561W        W19655  16.856  18.359  21.125  0.1806  0.0188 -0.1033
76562W        W19656  17.259  22.067  25.744 -0.1889 -0.1878  0.0697
76563W        W19657  13.572  20.547  22.003  0.1770  0.0646 -0.1013
76564W        W19658  16.537  19.706  24.973 -0.2752  0.4978  0.1375
76565W        W19659  16.860  18.907  24.010 -0.3516 -0.1471 -0.3752
76566W        W19660  14.262  18.505  20.358 -0.2003 -0.0188 -0.1181
76567W        W19661  16.492  19.735  23.313 -0.0605 -0.0834  0.2566
76568W        W19662  18.123  21.025  23.419 -0.2759 -0.2915  0.1567
76569W        W19663  17.683  22.096  21.131 -0.0699  0.0449 -0.0933
76570W        W19664  16.492  21.395  24.369 -0.2639  0.0959  0.2830
76571W        W19665  15.614  21.989  25.320  0.0978  0.1119  0.0363
76572W        W19666  16.958  20.950  22.900  0.1307  0.1771  0.2299
76573W        W19667  16.894  21.037  24.346 -0.3477  0.1002  0.1769
76574W        W19668  19.836  20.795  22.888  0.3332 -0.2671  0.0720
76575W        W19669  19.023  19.658  22.346 -0.2661 -0.4157 -0.2358
76576W        W19670  17.683  20.657  22.120  0.1370  0.0226  0.1155
76577W        W19671  18.742  20.816  24.255 -0.1402  0.2081 -0.0651
76578W        W19672  15.608  19.112  22.291  0.1438  0.1261 -0.0012
76579W        W19673  16.135  19.092  21.901 -0.0126  0.1304 -0.2341
76580W        W19674  18.544  21.355  21.920  0.1701 -0.0816 -0.0404
76581W        W19675  16.494  19.248  22.703  0.2658  0.0318 -0.0942
76582W        W19676  17.551  19.401  21.340 -0.1986  0.1001  0.1870
76583W        W19677  17.240  20.803  24.788  0.0841 -0.0366  0.1365
76584W        W19678  16.892  21.798  24.796 -0.2692  0.2410  0.1535
76585W        W19679  17.414  20.931  23.989  0.0645  0.4449 -0.1699
76586W        W19680  16.622  21.073  21.603  0.1225 -0.2131 -0.0773
76587W        W19681  20.351  19.909  22.520  0.4027 -0.1309 -0.0233
76588W        W19682  16.890  21.299  24.776  0.0538  0.0527 -0.0799
76589W        W19683  18.654  22.034  27.121  0.3478  0.1002 -0.1859
76590W        W19684  16.711  21.792  23.948  0.1606 -0.0592 -0.2390
76591W        W19685  19.212  20.210  23.088 -0.2485 -0.1254 -0.2926
76592W        W19686  14.296  18.418  22.552 -0.3753  0.1088  0.0603
76593W        W19687  15.214  19.945  22.271  0.0639  0.2745 -0.0804
76594W        W19688  14.633  21.079  22.689 -0.2116  0.1458  0.3992
76595W        W19689  17.882  19.738  23.131 -0.1959  0.1852  0.2312
76596W        W19690  16.877  18.609  21.986  0.0057 -0.1045  0.0978
76597W        W19691  16.994  19.241  21.298 -0.2321  0.3461 -0.3396
76598W        W19692  16.486  22.527  25.341 -0.1771 -0.1889  0.1378
76599W        W19693  17.675  20.892  24.520  0.1483 -0.1790  0.0966
76600W        W19694  17.777  20.201  23.249  0.0448  0.0994  0.2123
76601W        W19695  18.691  19.149  26.742 -0.3374  0.1696 -0.0525
76602W        W19696  14.113  19.075  25.992  0.0650  0.2631  0.1565
76603W        W19697  17.029  21.749  28.392 -0.1466  0.2479 -0.2609
76604W        W19698  16.098  17.997  27.364 -0.1109  0.2735  0.2097
76605W        W19699  16.840  20.468  27.239 -0.0066  0.2027 -0.0484
76606W        W19700  17.546  20.910  30.436  0.2266 -0.1122 -0.0052
76607W        W19701  18.760  21.158  25.944  0.1313  0.0120 -0.3900
76608W        W19702  16.729  19.366  27.551  0.4889  0.2353 -0.1029
76609W        W19703  16.354  21.213  27.804 -0.0501 -0.2561  0.0720
76610W        W19704  18.032  20.079  28.818  0.0719  0.0669 -0.0618
76611W        W19705  14.760  19.700  24.419  0.0111 -0.1114 -0.2065
76612W        W19706  15.819  18.960  25.987 -0.3605 -0.1318  0.3998
76613W        W19707  16.971  22.077  28.787  0.1226 -0.1678 -0.1881
76614W        W19708  17.796  22.327  26.906 -0.2529 -0.1068 -0.2233
76615W        W19709  13.703  21.310  24.211  0.0102 -0.0838 -0.2132
76616W        W19710  15.153  19.627  26.429 -0.0827 -0.0566 -0.1807
76617W        W19711  18.909  19.888  26.149 -0.0195 -0.0795  0.1081
76618W        W19712  17.084  21.961  27.478 -0.2708  0.1646  0.0049
76619W        W19713  16.262  22.773  28.234 -0.1784 -0.1279 -0.1525
76620W        W19714  17.772  19.035  29.050 -0.4370  0.0397  0.1473
76621W        W19715  14.640  22.380  26.786  0.1203 -0.2251  0.1473
76622W        W19716  18.116  19.885  26.732 -0.2083  0.3953  0.1050
76623W        W19717  16.820  20.439  28.754 -0.0690 -0.2306 -0.1779
76624W        W19718  14.769  20.650  28.849 -0.2530  0.5112  0.0059
76625W        W19719  16.280  21.180  24.854  0.2303 -0.2790 -0.0478
76626W        W19720  16.427  21.034  29.682 -0.0830 -0.0030 -0.1337
76627W        W19721  15.646  20.749  28.239  0.1883 -0.2217  0.1975
76628W        W19722  17.295  20.396  27.002 -0.1357  0.1881 -0.4921
76629W        W19723  17.131  19.854  25.854  0.0306  0.1191 -0.0225
76630W        W19724  14.914  20.200  28.591  0.0032  0.0098 -0.0411
76631W        W19725  15.471  20.469  27.218 -0.0857  0.0539  0.1013
76632W        W19726  18.319  18.950  28.682  0.3104 -0.1637  0.0511
76633W        W19727  14.669  21.233  24.819 -0.1904  0.0330  0.0225
76634W        W19728  17.735  19.042  24.869  0.2963  0.0199 -0.0954
76635W        W19729  15.686  19.313  24.398  0.3003  0.5280  0.3971
76636W        W19730  17.381  19.384  24.837 -0.0045  0.2216  0.0150
76637W        W19731  15.995  21.736  26.277 -0.0858  0.1226 -0.2825
76638W        W19732  18.479  19.541  26.363  0.1312  0.2143  0.0206
76639W        W19733  17.350  20.722  25.536  0.4841 -0.3788  0.1980
76640W        W19734  15.362  20.249  25.872  0.0879  0.2990  0.3218
76641W        W19735  18.988  22.135  27.937  0.0867  0.1050 -0.4697
76642W        W19736  17.726  21.593  28.168  0.1329  0.0392 -0.0943
76643W        W19737  17.383  21.182  27.709 -0.0551 -0.4338  0.1673
76644W        W19738  15.745  20.719  28.744  0.1345 -0.1924  0.0918
76645W        W19739  14.843  19.986  28.141 -0.0498  0.1506 -0.1091
76646W        W19740  18.813  20.374  29.514  0.1449  0.4589 -0.0330
76647W        W19741  14.935  21.814  28.861 -0.1099  0.0550  0.2866
76648W        W19742  18.937  20.377  26.605  0.4601  0.0218 -0.1405
76649W        W19743  16.509  21.098  27.355 -0.0016  0.2483  0.1548
76650W        W19744  17.431  20.832  28.127  0.1247  0.1251  0.1127
76651W        W19745  17.220  20.364  25.916 -0.5342 -0.2622  0.2823
76652W        W19746  18.347  18.476  26.269 -0.1082  0.1672 -0.1674
76653W        W19747  17.856  19.965  29.336 -0.0931  0.2459 -0.0016
76654W        W19748  16.528  20.149  24.701  0.0985 -0.2218  0.1044
76655W        W19749  17.478  21.454  29.455  0.2875  0.2306 -0.0581
76656W        W19750  18.152  20.011  24.541 -0.0634 -0.0917 -0.3005
76657W        W19751  16.155  21.677  27.950 -0.0552  0.3412 -0.2447
76658W        W19752  16.489  19.446  28.016  0.1269 -0.1775  0.1355
76659W        W19753  16.849  21.377  29.804 -0.1817  0.1201 -0.0668
76660W        W19754  14.927  22.681  24.988  0.1518 -0.1142  0.1042
76661W        W19755  14.830  20.861  27.881  0.1406  0.1151  0.1735
76662W        W19756  14.654  18.560  28.104  0.0779 -0.0615 -0.1036
76663W        W19757  18.036  18.981  25.780 -0.0060  0.1429 -0.1179
76664W        W19758  18.985  18.397  25.500  0.1404 -0.0597 -0.1021
76665W        W19759  15.027  21.992  26.083  0.0635 -0.1566 -0.2019
76666W        W19760  17.730  21.150  27.348  0.1613 -0.2381 -0.1979
76667W        W19761  19.066  20.682  27.097 -0.1211 -0.1615 -0.0232
76668W        W19762  17.844  21.614  26.402 -0.1603  0.1291 -0.3982
76669W        W19763  16.096  19.037  28.985  0.1389 -0.0272 -0.1569
76670W        W19764  18.118  18.891  30.785  0.2032 -0.0197 -0.1736
76671W        W19765  18.449  18.095  28.402  0.1560  0.0203 -0.0495
76672W        W19766  18.299  18.001  27.923  0.0235  0.0544 -0.1158
76673W        W19767  16.105  21.984  27.045  0.2068 -0.0301 -0.2502
76674W        W19768  17.426  21.984  31.389  0.2220  0.2425  0.2269
76675W        W19769  18.664  21.779  28.105 -0.0492  0.0810 -0.2783
76676W        W19770  14.465  22.556  25.847  0.0770  0.0649 -0.0043
76677W        W19771  16.658  21.968  27.108 -0.5266 -0.2862 -0.0049
76678W        W19772  17.943  21.615  30.608 -0.1605 -0.1605  0.0964
76679W        W19773  17.891  20.146  25.019  0.0234  0.0983 -0.0343
76680W        W19774  18.342  20.236  29.265  0.3950 -0.1169 -0.1956
76681W        W19775  15.046  20.035  24.794 -0.0921 -0.0414 -0.0492
76682W        W19776  18.359  21.592  28.995 -0.1110  0.1045 -0.2860
76683W        W19777  14.997  22.118  24.694 -0.0940  0.2963 -0.0208
76684W        W19778  15.272  22.380  27.867  0.0823 -0.3993  0.2570
76685W        W19779  18.513  18.969  27.130  0.0808 -0.0833 -0.2095
76686W        W19780  13.328  21.947  28.640 -0.2246  0.0840  0.0467
76687W        W19781  19.334  19.211  28.502  0.3462 -0.1266  0.1272
76688W        W19782  15.709  19.553  26.449  0.4018 -0.0515 -0.0661
76689W        W19783  16.509  21.244  29.102  0.2694  0.2504  0.2485
76690W        W19784  17.372  17.877  26.202  0.1146 -0.1757  0.0100
76691W        W19785  18.216  19.284  24.923  0.0818  0.0050  0.0219
76692W        W19786  17.104  20.698  31.061 -0.0940  0.0110  0.3898
76693W        W19787  18.460  20.686  27.055 -0.1257  0.1939 -0.0016
76694W        W19788  17.785  19.674  24.692  0.1905  0.1454  0.1819
76695W        W19789  17.353  19.289  24.246 -0.3009 -0.1738 -0.0567
76696W        W19790  14.680  21.137  28.261  0.0348  0.1377  0.0740
76697W        W19791  17.640  21.227  25.765 -0.0887 -0.2364 -0.0040
76698W        W19792  16.380  20.755  28.041 -0.1112  0.0487  0.2144
76699W        W19793  16.828  20.110  25.048 -0.1233  0.0320 -0.1462
76700W        W19794  19.695  22.161  27.241  0.0330 -0.1161  0.1751
76701W        W19795  16.015  19.877  29.666 -0.0279  0.1756  0.2122
76702W        W19796  17.155  22.374  29.454  0.0499 -0.0175 -0.0026
76703W        W19797  16.753  17.601  27.331 -0.1703  0.2109 -0.2971
76704W        W19798  17.910  19.090  27.967  0.2097  0.2639 -0.2229
76705W        W19799  17.575  18.436  26.815 -0.0757  0.1243  0.1928
76706W        W19800  15.829  19.098  26.508 -0.0434  0.2194  0.1069
76707W        W19801  17.066  18.890  29.645  0.0037 -0.2698 -0.1896
76708W        W19802  18.495  20.273  24.824 -0.1169 -0.1165 -0.1148
76709W        W19803  17.354  19.916  26.956 -0.2790  0.2934 -0.4082
76710W        W19804  17.060  18.010  27.216  0.0034 -0.0979  0.3635
76711W        W19805  15.534  19.378  27.935 -0.2309  0.0301  0.0802
76712W        W19806  15.279  22.498  28.394  0.0824  0.1696 -0.1488
76713W        W19807  17.021  20.113  29.129  0.0890 -0.0407 -0.1901
76714W        W19808  17.418  20.872  26.814  0.1540 -0.2330  0.3045
76715W        W19809  17.376  19.102  30.100 -0.2932  0.2515  0.0523
76716W        W19810  15.805  18.468  24.974  0.0119 -0.2931 -0.4036
76717W        W19811  14.954  22.019  26.670 -0.4742 -0.1731 -0.0312
76718W        W19812  16.897  20.744  25.698  0.1294 -0.0238  0.0737
76719W        W19813  16.631  18.769  26.659  0.1765 -0.0542 -0.1521
76720W        W19814  17.197  20.565  27.751 -0.1498  0.2195  0.0772
76721W        W19815  16.838  20.580  24.605 -0.2411 -0.3833 -0.2404
76722W        W19816  16.639  19.617  30.155  0.1694  0.0473  0.1522
76723W        W19817  15.551  21.937  26.098  0.0562  0.0405  0.3294
76724W        W19818  14.882  21.163  27.391  0.1200  0.1322 -0.1127
76725W        W19819  18.759  21.890  26.571 -0.1239  0.3058  0.1883
76726W        W19820  16.703  17.972  26.920 -0.1197  0.4277 -0.4385
76727W        W19821  14.542  20.796  27.449 -0.0848  0.0272 -0.0964
76728W        W19822  17.572  19.949  28.466 -0.0815  0.0183  0.1733
76729W        W19823  17.291  18.356  24.533  0.0746 -0.0750  0.3025
76730W        W19824  16.167  20.804  27.564 -0.0177  0.0209 -0.1306
76731W        W19825  15.287  21.417  28.740 -0.3122 -0.2109 -0.0047
76732W        W19826  15.542  19.062  24.821 -0.1061 -0.3022  0.0954
76733W        W19827  17.754  20.619  29.677 -0.1358 -0.2823 -0.1256
76734W        W19828  15.214  21.055  26.279  0.0037 -0.1884 -0.1862
76735W        W19829  16.979  21.139  31.247 -0.1056  0.0161 -0.0962
76736W        W19830  16.016  19.616  24.740  0.1337  0.2454  0.5128
76737W        W19831  17.163  20.876  28.638 -0.1259  0.3475  0.0586
76738W        W19832  17.570  19.868  27.432 -0.1807  0.0242 -0.0121
76739W        W19833  17.360  19.389  28.256  0.1175 -0.3239  0.0166
76740W        W19834  15.937  20.883  29.635  0.1942  0.0070  0.2375
76741W        W19835  17.126  17.930  26.696  0.1402 -0.0723  0.0437
76742W        W19836  18.427  23.105  27.936 -0.1239  0.0980 -0.0393
76743W        W19837  17.376  20.052  30.018  0.1541 -0.1002  0.0836
76744W        W19838  16.061  20.865  25.398  0.0605 -0.1741  0.2091
76745W        W19839  13.025  19.575  28.030 -0.1583 -0.2295 -0.3286
76746W        W19840  17.583  21.694  27.199  0.0674  0.1073  0.1227
76747W        W19841  16.001  20.722  27.114 -0.0683 -0.0850  0.0126
76748W        W19842  15.711  21.184  25.162  0.1128 -0.0490 -0.2214
76749W        W19843  15.089  20.590  28.279 -0.1126  0.1748 -0.0672
76750W        W19844  18.515  19.164  24.203  0.2286 -0.0699 -0.1252
76751W        W19845  17.880  20.930  26.588  0.3579 -0.0678  0.1745
76752W        W19846  18.237  19.348  29.071  0.3542 -0.0529  0.0268
76753W        W19847  18.499  20.308  25.789 -0.1896 -0.0260  0.3227
76754W        W19848  18.411  21.265  27.537  0.1836 -0.1605 -0.2768
76755W        W19849  15.882  22.153  28.969  0.1467 -0.0944 -0.1984
76756W        W19850  14.055  19.401  27.917  0.0682 -0.1014 -0.1560
76757W        W19851  15.871  21.115  27.841  0.0884 -0.1500 -0.0131
76758W        W19852  17.831  20.145  27.038 -0.0934 -0.0912 -0.1033
76759W        W19853  18.147  20.592  25.933 -0.4603  0.1619 -0.1323
76760W        W19854  18.532  19.522  28.015  0.4380  0.0884  0.1195
76761W        W19855  15.449  20.043  26.349 -0.1515 -0.1802  0.1357
76762W        W19856  17.141  21.204  25.937 -0.1193  0.1041 -0.0279
76763W        W19857  15.695  21.119  25.669 -0.1528  0.0133  0.2285
76764W        W19858  16.330  19.346  28.431  0.2426 -0.4955  0.1442
76765W        W19859  17.784  19.606  26.993 -0.4343 -0.0601 -0.1361
76766W        W19860  19.101  18.861  26.748  0.2205  0.3160 -0.0360
76767W        W19861  17.508  18.946  27.649  0.0266 -0.0507 -0.0666
76768W        W19862  17.743  19.788  29.751 -0.0106  0.0996 -0.2895
76769W        W19863  16.960  19.706  27.945 -0.0677  0.2048 -0.1539
76770W        W19864  17.504  21.521  30.347  0.1586  0.0113  0.0025
76771W        W19865  18.523  20.088  26.397 -0.3819  0.1292  0.2309
76772W        W19866  18.504  19.835  28.879  0.0361 -0.0270 -0.4376
76773W        W19867  18.526  20.033  25.332 -0.3436  0.0461  0.1346
76774W        W19868  17.392  19.747  24.407  0.2586 -0.0796 -0.1490
76775W        W19869  14.785  19.157  26.757 -0.0943 -0.0589 -0.1960
76776W        W19870  17.615  18.109  30.503  0.0533  0.0812 -0.0126
76777W        W19871  17.705  18.490  28.490 -0.0975 -0.3953  0.3177
76778W        W19872  16.930  21.562  24.338 -0.2772 -0.1365  0.2048
76779W        W19873  17.841  19.188  25.308  0.2020  0.0077  0.1167
76780W        W19874  15.258  20.351  29.209 -0.1461  0.1326 -0.1100
76781W        W19875  14.526  19.368  24.999  0.0638  0.1132  0.0925
76782W        W19876  17.866  20.985  26.101  0.1498  0.1283  0.0435
76783W        W19877  17.486  20.588  29.017  0.3030 -0.1443 -0.0150
76784W        W19878  17.360  20.526  30.172  0.0702  0.2110 -0.1741
76785W        W19879  16.902  18.507  24.306 -0.0303  0.3720  0.2751
76786W        W19880  18.427  18.668  29.863  0.1691 -0.1466  0.0667
76787W        W19881  14.520  21.885  25.814  0.2789 -0.3094 -0.1076
76788W        W19882  15.286  21.223  27.701 -0.1591 -0.2231 -0.2621
76789W        W19883  17.810  18.712  27.242 -0.1791 -0.2437  0.0164
76790W        W19884  17.802  19.685  30.785  0.0477  0.0938 -0.2739
76791W        W19885  18.091  19.082  29.620  0.1793  0.0106 -0.1452
76792W        W19886  17.985  20.105  28.290 -0.1780  0.2752  0.2689
76793W        W19887  18.024  20.701  29.176  0.1858  0.0446  0.1139
76794W        W19888  16.815  21.516  27.715  0.0114 -0.1178  0.1725
76795W        W19889  14.625  20.608  28.342 -0.1247  0.0194  0.0259
76796W        W19890  16.853  19.185  28.959 -0.0465  0.1342  0.2283
76797W        W19891  17.523  20.041  26.484  0.2226  0.1785 -0.0887
76798W        W19892  16.608  21.871  26.534 -0.0051 -0.0131 -0.0899
76799W        W19893  15.118  20.929  29.171  0.1760  0.1382  0.1634
76800W        W19894  16.487  23.041  25.624  0.1004 -0.1379  0.1738
76801W        W19895  18.214  21.431  26.104 -0.4296 -0.0707  0.1553
76802W        W19896  17.104  21.343  26.821  0.0108 -0.2287 -0.1683
76803W        W19897  17.855  22.219  31.308  0.1295 -0.0148 -0.2925
76804W        W19898  16.567  18.798  24.615 -0.1407  0.1330  0.0447
76805W        W19899  14.857  22.159  27.147 -0.2247  0.0088 -0.1961
76806W        W19900  14.367  23.955  25.850  0.1658  0.1545 -0.0258
76807W        W19901  17.122  20.155  28.174  0.3207 -0.1028  0.1357
76808W        W19902  16.334  22.463  25.842  0.1115 -0.2198  0.2659
76809W        W19903  18.025  20.716  30.166 -0.0507 -0.0356 -0.1013
76810W        W19904  17.600  18.705  23.658 -0.1672  0.1953 -0.2993
76811W        W19905  18.091  19.960  25.565  0.0665  0.2441  0.0600
76812W        W19906  17.093  20.112  24.619 -0.2257  0.0634  0.1142
76813W        W19907  16.466  20.812  28.913 -0.1126  0.0675 -0.3214
76814W        W19908  16.340  18.994  24.184  0.1300 -0.1793  0.1243
76815W        W19909  14.896  20.572  29.460 -0.1159  0.4086 -0.1746
76816W        W19910  18.765  17.658  30.086  0.3881  0.0060 -0.1290
76817W        W19911  14.188  22.083  28.185 -0.2652 -0.0051 -0.0558
76818W        W19912  17.312  21.662  27.874  0.1729 -0.0160  0.0299
76819W        W19913  15.276  19.170  26.589 -0.1542 -0.0894 -0.0216
76820W        W19914  16.535  19.909  27.066  0.1447 -0.0826 -0.1897
76821W        W19915  17.321  20.585  24.383 -0.2107  0.1118 -0.0476
76822W        W19916  16.995  19.641  26.292 -0.0332  0.0574  0.1533
76823W        W19917  15.047  22.715  26.004 -0.2194  0.0675  0.0403
76824W        W19918  17.114  21.583  26.301  0.1425  0.2174  0.0107
76825W        W19919  16.651  21.756  29.048 -0.0838  0.1082 -0.1039
76826W        W19920  18.239  19.314  26.794 -0.3112 -0.0011  0.0199
76827W        W19921  15.476  18.800  28.365 -0.0449 -0.2438  0.2341
76828W        W19922  15.272  19.137  25.286  0.2874  0.0636  0.3208
76829W        W19923  18.604  18.655  24.720 -0.0401 -0.0424  0.2762
76830W        W19924  16.783  20.861  27.738 -0.1586 -0.1849 -0.2434
76831W        W19925  16.444  19.733  24.461  0.1489 -0.3118 -0.1022
76832W        W19926  17.366  19.823  29.333 -0.0654 -0.1435  0.1037
76833W        W19927  17.644  20.678  25.079  0.2162 -0.0577  0.2256
76834W        W19928  17.322  21.030  29.985  0.1823 -0.3959 -0.2486
76835W        W19929  17.287  18.926  25.216  0.1051 -0.0218  0.1097
76836W        W19930  16.357  20.305  27.316 -0.3379  0.1431 -0.0333
76837W        W19931  16.398  21.571  28.683  0.4814 -0.0174  0.1737
76838W        W19932  18.547  21.552  27.000 -0.1130  0.0060 -0.2939
76839W        W19933  16.623  20.365  27.841  0.1041 -0.1039 -0.0313
76840W        W19934  16.739  22.509  27.308  0.1467 -0.0016  0.2874
76841W        W19935  18.473  19.787  25.934  0.0646  0.0356  0.0516
76842W        W19936  18.122  22.298  28.319 -0.1502  0.0293  0.0567
76843W        W19937  15.306  18.008  28.949  0.0188 -0.0131 -0.1007
76844W        W19938  16.404  20.363  28.304 -0.0577 -0.1545  0.1262
76845W        W19939  16.878  20.612  28.189 -0.3807  0.1136 -0.2891
76846W        W19940  16.518  19.224  26.396 -0.1905  0.2878 -0.0587
76847W        W19941  18.285  18.663  27.444  0.0112  0.0159  0.0958
76848W        W19942  17.466  21.248  26.337  0.0404 -0.2015  0.0007
76849W        W19943  19.059  18.649  29.149  0.1652 -0.1605  0.0605
76850W        W19944  17.541  21.972  29.523  0.0386  0.0049 -0.1174
76851W        W19945  15.400  21.209  29.671  0.0272  0.0916 -0.2781
76852W        W19946  15.700  19.246  25.589 -0.0016  0.0628 -0.0377
76853W        W19947  18.215  21.822  28.521  0.1503  0.4764  0.0321
76854W        W19948  17.291  20.791  27.335 -0.0024  0.2688  0.2179
76855W        W19949  19.265  20.502  27.639 -0.2984 -0.0170  0.0006
76856W        W19950  16.346  18.268  24.824  0.0972  0.1316 -0.0265
76857W        W19951  17.785  18.550  24.504  0.2308 -0.0871  0.2016
76858W        W19952  15.906  20.423  27.982 -0.1814 -0.1768 -0.0363
76859W        W19953  13.847  20.236  24.128 -0.0391 -0.1731 -0.0525
76860W        W19954  14.964  20.705  27.129 -0.1225 -0.2388 -0.1024
76861W        W19955  18.040  16.919  27.210  0.1735 -0.3404 -0.0752
76862W        W19956  14.874  19.261  26.237  0.0261 -0.0689 -0.0256
76863W        W19957  15.757  18.830  25.310  0.1249 -0.2873  0.0934
76864W        W19958  18.030  20.562  24.798  0.1404  0.1233  0.1423
76865W        W19959  16.977  21.210  28.074 -0.0367 -0.1411 -0.3080
76866W        W19960  18.132  21.670  27.224 -0.2756  0.2403  0.0414
76867W        W19961  16.029  21.135  28.887 -0.2214 -0.1937  0.0454
76868W        W19962  14.726  20.673  24.668 -0.1978  0.0786 -0.0200
76869W        W19963  17.520  20.105  28.932 -0.0044 -0.0972  0.0373
76870W        W19964  16.947  18.932  27.468 -0.1034  0.4015  0.2122
76871W        W19965  16.096  21.956  27.499  0.1958 -0.2049 -0.2218
76872W        W19966  17.676  22.103  27.522 -0.2407 -0.1421 -0.0939
76873W        W19967  16.111  20.847  28.502  0.2042  0.1694 -0.1006
76874W        W19968  15.680  21.181  28.518 -0.1009  0.1207  0.3666
76875W        W19969  15.221  18.666  27.914 -0.1703  0.0698  0.0089
76876W        W19970  17.612  20.194  25.443  0.0786 -0.1837 -0.0866
76877W        W19971  16.591  21.561  28.179  0.1699  0.4067 -0.2529
76878W        W19972  18.675  21.298  27.946 -0.2648 -0.0760 -0.0848
76879W        W19973  17.971  20.433  26.593 -0.1424 -0.0804  0.1857
76880W        W19974  17.309  19.432  25.370 -0.2344  0.0398 -0.1753
76881W        W19975  15.819  18.112  29.208 -0.3180 -0.0629  0.0700
76882W        W19976  17.880  20.261  29.936  0.0137  0.1361  0.0600
76883W        W19977  18.341  18.969  25.383 -0.1689 -0.1361  0.3520
76884W        W19978  18.237  20.976  27.944  0.0044 -0.1032  0.0437
76885W        W19979  15.038  20.204  27.184  0.1302 -0.0716 -0.3467
76886W        W19980  17.085  18.690  25.643  0.1273  0.1138  0.3928
76887W        W19981  17.113  19.929  28.691 -0.1078 -0.1488  0.1401
76888W        W19982  17.822  20.673  27.076  0.0541  0.0051  0.0715
76889W        W19983  16.792  19.472  28.554  0.0572 -0.1807 -0.4246
76890W        W19984  15.321  18.993  25.752 -0.0084  0.0667 -0.2216
76891W        W19985  18.817  19.043  26.267  0.0475  0.2682  0.2110
76892W        W19986  18.122  22.653  30.742  0.0395  0.2088  0.3979
76893W        W19987  16.846  20.318  29.656 -0.0873 -0.0456 -0.2292
76894W        W19988  16.907  21.956  27.950  0.3132 -0.0098 -0.2222
76895W        W19989  18.400  19.973  28.436 -0.1088 -0.1297 -0.1544
76896W        W19990  16.674  18.214  26.457 -0.0618 -0.0088  0.3128
76897W        W19991  17.855  19.318  29.990  0.1465  0.2745  0.0318
76898W        W19992  14.919  22.302  28.793  0.1554 -0.1111  0.0414
76899W        W19993  17.591  18.944  29.634 -0.0930  0.0470  0.0345
76900W        W19994  18.691  19.351  28.592  0.1247 -0.0861  0.1479
76901W        W19995  17.420  19.446  29.729  0.0362 -0.1276 -0.1618
76902W        W19996  14.562  19.700  29.372  0.1219  0.0636 -0.1340
76903W        W19997  14.102  21.093  29.125 -0.3505  0.1549  0.0004
76904W        W19998  16.845  19.542   0.449  0.0471  0.1442 -0.0517
76905W        W19999  16.034  20.635  30.856  0.0759 -0.0233 -0.0573
76906W        W20000  17.758  19.466  29.311 -0.0035  0.2533 -0.3175
76907W        W20001  16.892  20.693  31.567 -0.0852  0.0627  0.0592
76908W        W20002  16.701  20.279  31.320 -0.2769  0.2001  0.1069
76909W        W20003  17.407  19.051  31.271 -0.0282 -0.1108  0.0120
76910W        W20004  16.196  21.771  29.147 -0.2257 -0.1350  0.3427
76911W        W20005  18.197  19.960  27.866 -0.1153 -0.2402 -0.1247
76912W        W20006  15.981  22.171  29.498 -0.1973  0.1521  0.0399
76913W        W20007  14.667  19.428  30.281  0.4803  0.0638  0.0539
76914W        W20008  18.148  20.159  30.868 -0.1013 -0.1622  0.0177
76915W        W20009  15.610  19.378  29.087 -0.0915  0.0485  0.0664
76916W        W20010  15.442  18.626  30.009  0.0270  0.2654 -0.0869
76917W        W20011  15.758  16.999  29.759 -0.2488  0.1424  0.0568
76918W        W20012  15.655  19.472  31.600  0.0164  0.0814  0.2183
76919W        W20013  16.908  19.294  29.863  0.1104  0.0852  0.0806
76920W        W20014  17.026  18.214  28.943  0.2749  0.1247 -0.1371
76921W        W20015  16.653  19.314  29.372  0.0590 -0.2225 -0.0644
76922W        W20016  16.850  19.673  29.067  0.1514 -0.2049  0.2843
76923W        W20017  14.859  20.821  30.793 -0.0129  0.1465  0.1736
76924W        W20018  14.298  20.039  28.204  0.2411 -0.2146 -0.2018
76925W        W20019  15.931  21.281  29.982  0.1508  0.3434  0.2907
76926W        W20020  15.366  20.625  30.963 -0.2899 -0.0778  0.2564
76927W        W20021  15.919  19.528  28.695  0.2359  0.0123 -0.5830
76928W        W20022  16.458  19.841  29.377  0.2050 -0.0450 -0.0850
76929W        W20023  16.025  19.007  30.077  0.0422 -0.0326 -0.1810
76930W        W20024  16.363  19.452  28.971  0.1780 -0.1123 -0.0324
76931W        W20025  15.145  19.722  28.464 -0.0081 -0.0818 -0.1175
76932W        W20026  16.904  20.095  30.239 -0.1208 -0.3086 -0.0788
76933W        W20027  16.499  19.130  30.173  0.2811 -0.3669 -0.0251
76934W        W20028  15.828  19.284  30.587  0.2333  0.1344 -0.0908
76935W        W20029  17.267  19.460  28.814  0.0833  0.0740  0.0813
76936W        W20030  16.940  19.238  28.057 -0.0024 -0.0204 -0.4500
76937W        W20031  16.181  18.329  28.461 -0.0077 -0.1591  0.0719
76938W        W20032  16.275  20.557  31.459  0.0194  0.0718 -0.2140
76939W        W20033  15.808  20.113  30.979 -0.0368 -0.0742  0.0812
76940W        W20034  17.084  17.822  29.231 -0.2694  0.1639 -0.3548
76941W        W20035  16.061  20.737  29.187 -0.0631 -0.0023 -0.2104
76942W        W20036  16.585  19.773  31.036  0.1251 -0.2312 -0.2752
76943W        W20037  15.560  21.010  30.136 -0.1710 -0.2424  0.0769
76944W        W20038  16.965  20.047  30.937  0.0303  0.0586 -0.1829
76945W        W20039  17.363  18.494  29.521 -0.0403  0.0274 -0.1190
76946W        W20040  16.079  19.890  29.047 -0.1934 -0.0144 -0.2018
76947W        W20041  16.506  20.378  29.171 -0.1444 -0.2627  0.1510
76948W        W20042  15.566  18.891  28.832  0.2447  0.1920 -0.3274
76949W        W20043  15.907  19.991  30.454 -0.2774 -0.2125  0.3499
76950W        W20044  17.055  18.475  31.648 -0.3827 -0.1372 -0.0774
76951W        W20045  16.584  21.082  30.200 -0.0565 -0.3895  0.0129
76952W        W20046  16.588  21.961  27.597  0.2367  0.2472 -0.0933
76953W        W20047  15.564  19.820  29.416 -0.0179 -0.0939 -0.0937
76954W        W20048  14.677  20.745  30.343  0.0408  0.0012 -0.2053
76955W        W20049  15.451  20.298  28.334  0.2991 -0.0662  0.0852
76956W        W20050  13.973  19.964  28.692 -0.3155 -0.0171 -0.1673
76957W        W20051  13.476  19.119  29.737 -0.2752  0.0149 -0.3180
76958W        W20052  17.177  22.556  30.525  0.1191 -0.1168 -0.0530
76959W        W20053  17.910  20.436  31.840  0.0596  0.1413  0.1813
76960W        W20054  17.339  20.547   1.382  0.0393  0.0236 -0.2723
76961W        W20055  15.958  25.491  19.885  0.3794 -0.1646  0.0668
76962W        W20056  15.047  24.667  15.371  0.1579 -0.1292 -0.0496
76963W        W20057  18.707  21.938  16.234  0.2651  0.0169  0.1415
76964W        W20058  16.757  24.563  17.450 -0.1190  0.0086  0.2189
76965W        W20059  13.911  22.497  17.554  0.0250  0.0982  0.1237
76966W        W20060  16.526  25.228  16.711 -0.2361  0.3158 -0.1039
76967W        W20061  16.111  21.986  19.017  0.0241 -0.1094 -0.0441
76968W        W20062  16.647  24.856  17.919  0.1663 -0.0309 -0.0767
76969W        W20063  17.076  25.245  17.000  0.3438 -0.0707  0.0471
76970W        W20064  17.724  22.979  15.216 -0.2325  0.0384  0.1735
76971W        W20065  16.221  23.584  17.392 -0.2383 -0.3380 -0.1669
76972W        W20066  16.906  25.910  20.165  0.3893 -0.2883  0.1300
76973W        W20067  17.127  22.495  17.385 -0.0975 -0.0939 -0.0616
76974W        W20068  15.020  23.252  18.101  0.1669  0.3563  0.3735
76975W        W20069  17.146  24.661  17.837 -0.0508  0.2515  0.3021
76976W        W20070  14.482  24.629  16.773  0.0512  0.0249 -0.2625
76977W        W20071  15.137  23.290  17.590  0.3150  0.0412 -0.1516
76978W        W20072  15.669  23.837  16.834 -0.0669 -0.5030  0.1443
76979W        W20073  15.217  25.680  18.182 -0.3011 -0.2239 -0.1330
76980W        W20074  17.546  24.323  19.782 -0.1883 -0.2030 -0.0958
76981W        W20075  15.790  23.839  18.187 -0.0900  0.2704 -0.2079
76982W        W20076  15.441  26.212  18.237  0.0070 -0.2911  0.1989
76983W        W20077  12.637  22.993  16.989  0.0209 -0.1817 -0.1012
76984W        W20078  13.091  23.076  18.911 -0.0163 -0.2924  0.0223
76985W        W20079  15.863  22.864  17.950  0.0036  0.2214 -0.0339
76986W        W20080  16.218  24.485  19.025 -0.1757 -0.2980 -0.0241
76987W        W20081  16.162  25.469  18.498  0.1636  0.0099 -0.2030
76988W        W20082  14.433  26.213  18.860  0.0948  0.2842 -0.2280
76989W        W20083  14.782  25.867  17.547 -0.0746 -0.0229  0.2569
76990W        W20084  17.080  24.129  18.478 -0.0630  0.2596 -0.1717
76991W        W20085  12.781  24.281  18.020 -0.0274  0.1824  0.1331
76992W        W20086  14.008  25.833  17.041 -0.1975 -0.0589  0.3681
76993W        W20087  14.794  24.201  15.601  0.2126 -0.1172  0.1590
76994W        W20088  16.675  24.600  16.124  0.3160  0.1530 -0.0220
76995W        W20089  17.163  27.103  19.961  0.2808  0.2676  0.1348
76996W        W20090  15.377  25.539  18.760  0.1894 -0.4209  0.1534
76997W        W20091  13.894  25.446  17.337 -0.2731  0.1456  0.1740
76998W        W20092  16.368  25.865  20.274 -0.0327  0.1014 -0.0106
76999W        W20093  15.459  25.414  19.817 -0.1743  0.2468  0.2795
77000W        W20094  16.972  24.727  18.601 -0.3056  0.0081  0.0106
77001W        W20095  15.159  23.620  16.046 -0.3569  0.0074  0.0477
77002W        W20096  15.108  24.979  17.999 -0.0247  0.3395  0.4964
77003W        W20097  15.023  26.624  17.449  0.1793  0.0614 -0.0967
77004W        W20098  16.077  25.652  20.669  0.3060  0.1396 -0.2136
77005W        W20099  13.762  24.818  16.765  0.0895  0.2005 -0.2156
77006W        W20100  19.160  23.303  19.559 -0.1694 -0.0205  0.1754
77007W        W20101  15.542  25.841  17.854  0.2654  0.4258  0.0562
77008W        W20102  17.411  23.964  15.709 -0.0386  0.1424 -0.3000
77009W        W20103  17.028  22.811  16.880 -0.0070 -0.0427 -0.0780
77010W        W20104  17.088  24.378  15.967  0.0284 -0.0072  0.1099
77011W        W20105  14.957  23.398  16.511  0.0148 -0.4766 -0.4606
77012W        W20106  14.691  25.071  18.357  0.0569  0.2001  0.0907
77013W        W20107  15.037  23.911  17.415 -0.4387  0.1407 -0.2849
77014W        W20108  18.215  24.717  17.805  0.1669  0.0710 -0.0835
77015W        W20109  16.104  23.370  15.727  0.0927  0.2784  0.0871
77016W        W20110  15.874  23.653  17.678  0.0326  0.0198  0.1870
77017W        W20111  14.446  24.545  18.007 -0.1990  0.2341 -0.0004
77018W        W20112  14.720  23.637  17.841 -0.2632  0.0671 -0.2959
77019W        W20113  17.284  24.397  15.475 -0.1195  0.0680 -0.2137
77020W        W20114  19.821  26.278  18.930 -0.2740  0.3173  0.1500
77021W        W20115  16.740  25.277  16.273  0.0288 -0.1861 -0.0770
77022W        W20116  15.191  24.704  16.625  0.1433 -0.1477  0.1896
77023W        W20117  12.526  25.503  17.292 -0.0595 -0.0492 -0.4373
77024W        W20118  15.645  22.475  17.661  0.3071 -0.2535  0.3032
77025W        W20119  15.539  21.842  15.440  0.0635 -0.0927 -0.0612
77026W        W20120  18.261  23.812  18.546  0.0933 -0.2146  0.2686
77027W        W20121  13.371  23.949  19.286  0.1527  0.1773  0.1333
77028W        W20122  19.232  23.815  18.671  0.1538  0.1302  0.0563
77029W        W20123  14.333  25.652  17.412 -0.0681  0.0986  0.0697
77030W        W20124  17.610  25.840  18.624 -0.1649  0.2804  0.1731
77031W        W20125  17.838  24.186  15.799  0.0206  0.1742 -0.2214
77032W        W20126  16.423  22.750  16.721 -0.0230  0.0624 -0.0021
77033W        W20127  16.709  23.861  18.689  0.0504 -0.2600 -0.3087
77034W        W20128  15.885  23.911  15.601  0.0183 -0.0970  0.2316
77035W        W20129  15.539  23.963  16.009  0.4052 -0.0441 -0.2253
77036W        W20130  18.988  24.243  18.097 -0.0262  0.2910 -0.1361
77037W        W20131  16.057  24.370  15.926 -0.3663 -0.1643  0.0179
77038W        W20132  13.929  24.021  17.380 -0.0888  0.1492  0.1508
77039W        W20133  15.398  22.890  17.790  0.3293  0.1800 -0.0087
77040W        W20134  16.653  25.742  19.489  0.1710 -0.0898 -0.0616
77041W        W20135  14.940  25.160  15.663  0.2482 -0.0263 -0.1738
77042W        W20136  12.239  23.991  16.708 -0.2333  0.0105  0.2697
77043W        W20137  13.799  25.357  16.738  0.0604 -0.3451 -0.0229
77044W        W20138  14.816  22.959  17.227  0.1338 -0.1631  0.3842
77045W        W20139  15.012  23.625  19.328  0.1459 -0.2011  0.3114
77046W        W20140  17.051  23.624  16.558  0.3106 -0.3443 -0.0398
77047W        W20141  13.427  23.671  19.758  0.2636  0.0360  0.1424
77048W        W20142  16.066  22.312  16.686 -0.1053  0.1394 -0.1562
77049W        W20143  13.205  25.820  17.680  0.3656 -0.3430  0.2476
77050W        W20144  17.337  25.555  16.062 -0.1488 -0.3201 -0.2160
77051W        W20145  17.645  24.659  15.321  0.3271 -0.2706  0.0799
77052W        W20146  16.538  24.023  16.116  0.0825 -0.1309 -0.0203
77053W        W20147  14.730  23.571  18.350  0.0601  0.1781 -0.0763
77054W        W20148  13.588  23.649  17.920 -0.1186  0.3515  0.1344
77055W        W20149  16.553  24.330  18.061  0.2268  0.4672  0.0386
77056W        W20150  14.398  22.726  18.300 -0.2505 -0.2666  0.1058
77057W        W20151  19.048  23.539  18.172 -0.1739 -0.0646 -0.0521
77058W        W20152  14.259  21.005  15.521  0.0679 -0.1091 -0.1610
77059W        W20153  16.650  23.595  17.149  0.1968  0.1126  0.1119
77060W        W20154  14.888  24.401  16.877  0.1840  0.1871 -0.1859
77061W        W20155  12.360  25.881  16.614 -0.1540  0.3344  0.1958
77062W        W20156  16.952  24.616  19.312  0.0562 -0.0284  0.1429
77063W        W20157  16.103  25.201  15.588 -0.2127 -0.1342 -0.1491
77064W        W20158  18.742  25.044  19.672  0.3759  0.1633  0.4457
77065W        W20159  17.269  26.224  18.448 -0.1879 -0.4977  0.2385
77066W        W20160  15.387  23.904  17.781 -0.4150  0.2446 -0.0614
77067W        W20161  16.238  21.798  16.230  0.1091 -0.1182  0.0771
77068W        W20162  13.501  24.018  17.564  0.1435  0.2947  0.1201
77069W        W20163  15.216  24.542  17.737  0.0672 -0.2564 -0.1730
77070W        W20164  15.924  23.191  16.167 -0.0032 -0.1636 -0.2709
77071W        W20165  17.746  25.948  17.727  0.2979 -0.1997  0.0361
77072W        W20166  15.687  24.924  17.410 -0.3566  0.0094  0.1076
77073W        W20167  13.285  24.249  18.865 -0.0315  0.3616  0.2600
77074W        W20168  17.708  22.594  19.069 -0.0908 -0.0834  0.3413
77075W        W20169  17.389  24.434  17.421  0.0403 -0.2163 -0.1039
77076W        W20170  16.954  25.020  17.464 -0.0002  0.0843 -0.0048
77077W        W20171  15.037  24.900  16.074 -0.1975  0.0904 -0.0331
77078W        W20172  15.897  25.410  18.923 -0.0480 -0.0197  0.1110
77079W        W20173  15.292  24.618  17.138  0.0423 -0.0923 -0.1588
77080W        W20174  12.733  23.830  18.279 -0.0055 -0.0947  0.0380
77081W        W20175  13.659  24.599  17.817 -0.0642 -0.1204  0.1182
77082W        W20176  16.288  23.763  17.890  0.0146 -0.0648  0.0441
77083W        W20177  13.832  24.506  19.995  0.1148  0.2111  0.0613
77084W        W20178  16.702  23.307  18.306  0.0611  0.1288 -0.0815
77085W        W20179  13.266  24.832  17.631 -0.0390 -0.0114  0.0796
77086W        W20180  15.713  24.738  18.419 -0.3148 -0.1609 -0.3049
77087W        W20181  16.152  23.196  17.716  0.2563  0.3848 -0.0096
77088W        W20182  17.795  22.988  16.401  0.1043 -0.2974  0.4113
77089W        W20183  15.598  25.244  18.306  0.2216 -0.2521  0.0018
77090W        W20184  15.426  23.232  16.289 -0.1530 -0.2755 -0.0132
77091W        W20185  16.931  22.903  15.781  0.0231 -0.0984 -0.1850
77092W        W20186  16.055  20.829  16.095 -0.2842  0.0701  0.2897
77093W        W20187  15.221  23.789  18.296  0.0362  0.3878 -0.2392
77094W        W20188  15.667  24.683  16.719  0.0248  0.1535 -0.0014
77095W        W20189  16.873  26.249  18.739 -0.2011  0.1146 -0.2179
77096W        W20190  16.690  22.469  15.938  0.2040 -0.0940 -0.4118
77097W        W20191  17.374  25.501  17.364 -0.0084  0.1216  0.4647
77098W        W20192  14.789  24.940  17.035 -0.0896  0.0630 -0.3391
77099W        W20193  16.815  25.317  19.285  0.4414 -0.1867 -0.0673
77100W        W20194  16.211  25.497  16.386 -0.0184 -0.0728 -0.1896
77101W        W20195  16.031  23.398  18.159 -0.0632  0.2890  0.0533
77102W        W20196  15.926  22.771  15.376  0.0056 -0.1266  0.0826
77103W        W20197  16.374  22.384  16.294 -0.1364 -0.1874  0.0368
77104W        W20198  13.760  25.070  16.293  0.0637  0.1165  0.0163
77105W        W20199  18.278  23.666  19.535  0.1983 -0.1465 -0.0844
77106W        W20200  16.239  22.574  18.735  0.1244 -0.0210  0.0013
77107W        W20201  15.440  22.954  18.348  0.0105  0.1949  0.0481
77108W        W20202  18.703  23.434  18.520 -0.2381 -0.2072 -0.0795
77109W        W20203  16.026  23.754  16.059 -0.1436 -0.1955 -0.2743
77110W        W20204  15.883  22.880  17.457  0.3466  0.1006 -0.1970
77111W        W20205  15.110  22.485  15.917  0.1661  0.1476  0.2529
77112W        W20206  17.020  24.180  17.920 -0.0358 -0.2239 -0.0254
77113W        W20207  16.727  23.786  18.167  0.1554 -0.2390  0.0489
77114W        W20208  13.843  25.004  18.235 -0.0430 -0.1826  0.3044
77115W        W20209  16.494  25.461  19.858  0.2375 -0.2799 -0.1299
77116W        W20210  15.789  24.297  17.923 -0.0193 -0.1722  0.0686
77117W        W20211  17.549  23.951  18.923  0.0483 -0.1740  0.1860
77118W        W20212  16.797  22.657  16.455 -0.1168  0.1166 -0.0332
77119W        W20213  15.127  25.185  16.461 -0.2457 -0.0541 -0.1759
77120W        W20214  15.790  25.336  17.121 -0.2393  0.3983  0.0373
77121W        W20215  13.836  22.136  17.880  0.2233  0.5502  0.2201
77122W        W20216  13.636  24.220  18.468  0.0521  0.4203  0.0560
77123W        W20217  14.682  25.363  16.684  0.2049  0.1340  0.1799
77124W        W20218  16.843  24.330  18.913  0.1017  0.1520 -0.0794
77125W        W20219  12.268  25.210  18.728  0.1797 -0.2385 -0.0139
77126W        W20220  16.844  22.520  18.694 -0.1573 -0.1523 -0.2472
77127W        W20221  15.063  26.751  16.672  0.0464  0.2344  0.0856
77128W        W20222  16.243  23.172  15.291  0.1592  0.2586 -0.0967
77129W        W20223  13.201  24.350  16.431 -0.2324 -0.2028 -0.1440
77130W        W20224  17.355  22.955  17.243  0.1458  0.2045  0.0588
77131W        W20225  17.249  24.186  16.726 -0.1808 -0.1933 -0.3319
77132W        W20226  14.025  23.191  18.779 -0.2360 -0.0398  0.1414
77133W        W20227  14.246  22.031  17.595 -0.2267 -0.1341  0.2636
77134W        W20228  12.285  25.731  18.819  0.0855  0.2495  0.0760
77135W        W20229  15.480  23.810  19.067  0.0766 -0.2809 -0.1080
77136W        W20230  17.938  21.784  15.644 -0.2072 -0.3642 -0.0350
77137W        W20231  18.506  25.264  18.546 -0.2222 -0.1156  0.2629
77138W        W20232  15.425  25.254  19.276  0.1085 -0.0617 -0.1145
77139W        W20233  14.995  23.083  16.004  0.1086 -0.0870  0.4258
77140W        W20234  18.009  23.935  17.615 -0.1835 -0.2481  0.1918
77141W        W20235  14.609  22.385  16.112 -0.3395  0.2577 -0.0070
77142W        W20236  14.387  26.124  17.257 -0.0585 -0.1000  0.1302
77143W        W20237  16.052  25.261  17.595 -0.0912 -0.0325  0.1572
77144W        W20238  15.861  23.995  16.436 -0.1756  0.1188 -0.1881
77145W        W20239  14.781  24.496  17.372  0.3390 -0.1812 -0.0768
77146W        W20240  15.145  22.250  18.558  0.2697  0.2204 -0.1341
77147W        W20241  17.462  24.847  18.612  0.0073 -0.1699 -0.0379
77148W        W20242  16.513  22.557  18.283 -0.1807 -0.0455 -0.1084
77149W        W20243  14.669  23.864  16.801  0.1352  0.1729  0.1514
77150W        W20244  16.327  24.536  17.115 -0.3016 -0.0843  0.0687
77151W        W20245  16.992  25.365  18.230 -0.3811  0.0062  0.3482
77152W        W20246  16.631  23.357  17.788  0.2128  0.1145  0.1289
77153W        W20247  14.974  25.318  19.052 -0.2135  0.0841  0.1845
77154W        W20248  15.403  22.229  17.301  0.0047 -0.0732  0.0313
77155W        W20249  17.848  25.725  18.160 -0.1158 -0.2536 -0.0389
77156W        W20250  16.292  23.952  18.393 -0.2457  0.0720  0.2143
77157W        W20251  14.744  24.831  17.756 -0.1173 -0.1128 -0.2677
77158W        W20252  13.771  24.495  17.195  0.2385 -0.0878  0.2203
77159W        W20253  15.632  24.439  15.669 -0.0136 -0.1064  0.1000
77160W        W20254  16.109  22.585  17.104  0.1302 -0.2648  0.3260
77161W        W20255  15.619  25.202  20.191  0.3902  0.0910  0.2476
77162W        W20256  13.740  25.567  16.263 -0.0222  0.0788  0.0918
77163W        W20257  14.535  24.558  18.510  0.1096 -0.0876  0.2919
77164W        W20258  18.999  21.931  15.540 -0.0571  0.1146 -0.1146
77165W        W20259  15.961  25.124  16.610  0.1150  0.1270 -0.0131
77166W        W20260  15.009  23.557  15.258 -0.0180  0.2617 -0.0830
77167W        W20261  17.751  23.488  19.205  0.2268 -0.2216 -0.1779
77168W        W20262  16.844  24.168  15.211 -0.0663  0.4459  0.0756
77169W        W20263  17.181  23.079  18.438 -0.3676  0.1065 -0.1078
77170W        W20264  15.105  22.562  17.531 -0.0354 -0.1180  0.0213
77171W        W20265  15.165  25.003  17.441  0.6074  0.1491  0.0905
77172W        W20266  13.387  23.782  18.590  0.2208 -0.1385 -0.1497
77173W        W20267  16.898  25.275  20.363 -0.2146 -0.1619 -0.1320
77174W        W20268  14.166  25.464  19.483  0.2593 -0.0019  0.3754
77175W        W20269  17.317  22.355  16.829  0.1042 -0.1815  0.3287
77176W        W20270  15.054  21.574  15.734  0.0445  0.2653  0.0947
77177W        W20271  15.606  24.819  17.936  0.1101  0.0712  0.0440
77178W        W20272  17.519  24.651  15.863  0.3100 -0.1242 -0.3547
77179W        W20273  15.013  24.173  16.428  0.1345  0.0207  0.1027
77180W        W20274  17.134  23.414  17.049  0.0561  0.0208  0.3208
77181W        W20275  15.829  24.479  17.391 -0.3522  0.0761 -0.1004
77182W        W20276  15.870  23.515  16.527 -0.0633  0.3610 -0.1641
77183W        W20277  14.131  24.824  17.117  0.1229 -0.1035 -0.2423
77184W        W20278  14.706  24.984  18.823  0.2666  0.0552  0.0695
77185W        W20279  15.864  22.073  18.496  0.0781  0.1107  0.0663
77186W        W20280  16.291  24.886  17.437 -0.1884  0.0860 -0.2935
77187W        W20281  16.218  23.804  16.875  0.2037 -0.0797 -0.0733
77188W        W20282  17.317  23.476  19.653  0.1903  0.0708  0.5705
77189W        W20283  16.561  24.856  18.977  0.1583 -0.1095 -0.0471
77190W        W20284  15.879  23.451  17.062  0.1152  0.1110  0.1263
77191W        W20285  15.657  23.463  18.528  0.3742  0.1437  0.4116
77192W        W20286  16.729  24.999  19.789 -0.1687 -0.1416  0.1672
77193W        W20287  19.405  23.028  16.634  0.2300  0.3120  0.0740
77194W        W20288  18.257  23.435  17.576 -0.1741 -0.0452 -0.1331
77195W        W20289  17.444  23.495  16.149  0.1700 -0.1000  0.1364
77196W        W20290  15.900  24.303  16.862  0.3163 -0.0721 -0.2899
77197W        W20291  14.556  23.294  17.479 -0.1924 -0.2152  0.0992
77198W        W20292  17.782  25.023  18.963 -0.0390  0.1086 -0.0232
77199W        W20293  17.007  23.282  16.231 -0.0652  0.0185  0.1422
77200W        W20294  18.222  23.289  18.327 -0.0137 -0.1876  0.1693
77201W        W20295  15.755  25.499  16.210  0.0154  0.2831  0.2581
77202W        W20296  17.667  26.386  18.141  0.2300 -0.2779 -0.0306
77203W        W20297  17.234  22.573  15.926 -0.2228  0.0089  0.0307
77204W        W20298  13.998  23.113  18.322 -0.1337 -0.0064 -0.1557
77205W        W20299  15.201  24.815  19.048 -0.1539 -0.0901  0.4172
77206W        W20300  15.529  22.730  16.025  0.1864  0.1154  0.0339
77207W        W20301  14.341  23.675  16.404 -0.0206 -0.2075  0.2418
77208W        W20302  16.720  25.888  19.015  0.1272 -0.0682 -0.3686
77209W        W20303  18.700  24.421  19.003  0.1635  0.3086  0.0705
77210W        W20304  17.365  22.684  16.459 -0.1940  0.2616 -0.0432
77211W        W20305  19.765  24.204  19.712  0.0951 -0.4144  0.4055
77212W        W20306  11.627  25.425  17.494 -0.1569  0.0946  0.0148
77213W        W20307  16.186  21.803  16.803 -0.0215  0.1869 -0.3286
77214W        W20308  14.337  25.172  19.121  0.1488  0.1198 -0.1914
77215W        W20309  13.849  23.614  18.359  0.1251 -0.0617 -0.1693
77216W        W20310  14.423  26.288  17.723  0.0048  0.1876 -0.0442
77217W        W20311  16.052  22.389  19.271 -0.4621 -0.4590  0.0131
77218W        W20312  16.352  25.315  17.168  0.0179 -0.0956  0.1466
77219W        W20313  15.978  24.946  19.118 -0.0738  0.0845  0.2278
77220W        W20314  19.482  24.642  18.967  0.2574 -0.1006 -0.0855
77221W        W20315  16.472  24.696  19.457 -0.0904 -0.0362 -0.0300
77222W        W20316  13.787  24.100  18.021 -0.1180 -0.1044 -0.1789
77223W        W20317  17.919  24.532  18.235  0.3302  0.2784 -0.0754
77224W        W20318  16.918  24.225  16.377  0.1931 -0.0079  0.1585
77225W        W20319  12.723  25.049  17.573 -0.1102 -0.1458  0.0828
77226W        W20320  14.496  23.158  18.591  0.0431  0.4576  0.0063
77227W        W20321  15.031  25.196  21.074 -0.1005  0.1473 -0.0328
77228W        W20322  16.242  24.323  17.629  0.0072 -0.2200  0.1311
77229W        W20323  16.264  21.081  16.413 -0.1386 -0.0197  0.3378
77230W        W20324  16.147  25.095  16.144 -0.0044  0.1272 -0.1740
77231W        W20325  15.521  25.723  19.364 -0.0515 -0.1994 -0.0438
77232W        W20326  12.848  24.843  18.013  0.0674 -0.0958  0.2024
77233W        W20327  14.315  26.140  16.718 -0.2279 -0.1271  0.1704
77234W        W20328  16.522  23.663  16.459  0.0227  0.0743 -0.2384
77235W        W20329  15.970  24.530  16.372  0.0513 -0.2392 -0.0917
77236W        W20330  18.394  25.460  19.496 -0.2337  0.4279 -0.1701
77237W        W20331  16.484  23.099  16.283  0.0803 -0.0972  0.0923
77238W        W20332  13.360  24.902  18.201  0.0120  0.2272  0.2032
77239W        W20333  15.578  25.453  16.686  0.1103  0.0458 -0.0444
77240W        W20334  15.300  25.162  16.935  0.0411 -0.3401 -0.0502
77241W        W20335  13.633  24.698  18.649  0.0128 -0.0114  0.3429
77242W        W20336  17.058  24.503  21.187 -0.1929  0.1279  0.0132
77243W        W20337  16.386  22.034  15.804  0.1294 -0.0179  0.1403
77244W        W20338  15.978  24.877  17.041  0.1754 -0.1014 -0.0233
77245W        W20339  17.328  23.115  16.703 -0.2216  0.0957 -0.1136
77246W        W20340  17.043  25.482  19.816 -0.2588  0.0119  0.1446
77247W        W20341  15.464  23.175  17.270  0.0652  0.1670  0.0644
77248W        W20342  15.771  23.035  16.831  0.0223 -0.3235 -0.0879
77249W        W20343  14.848  25.574  19.989  0.0324 -0.1810  0.0750
77250W        W20344  18.714  22.920  18.368  0.0899 -0.1386 -0.3400
77251W        W20345  15.702  26.847  21.144 -0.0714 -0.0371 -0.0264
77252W        W20346  17.271  26.065  16.422 -0.2225 -0.0177  0.2403
77253W        W20347  14.235  24.545  15.791  0.0941 -0.1470  0.0810
77254W        W20348  14.384  24.126  17.775 -0.0072  0.1316 -0.0336
77255W        W20349  16.918  22.858  17.710 -0.3029  0.1374  0.3069
77256W        W20350  15.496  24.415  16.295  0.2330 -0.0366 -0.3331
77257W        W20351  16.660  23.246  16.794  0.1263  0.0268  0.3266
77258W        W20352  15.246  25.966  17.380  0.0293 -0.0902 -0.1077
77259W        W20353  15.475  26.011  18.979  0.0618  0.2776 -0.1675
77260W        W20354  15.140  24.844  18.537  0.1236 -0.1353  0.2083
77261W        W20355  15.133  23.857  16.935 -0.0516  0.1837 -0.3736
77262W        W20356  18.375  22.005  16.603  0.1243  0.0647  0.3371
77263W        W20357  15.501  23.406  17.958  0.0098 -0.0746  0.2464
77264W        W20358  17.426  23.983  18.144 -0.2075 -0.2204  0.0659
77265W        W20359  14.512  23.872  17.258  0.0753 -0.1669  0.4233
77266W        W20360  16.695  23.300  15.617 -0.0369  0.2885  0.0004
77267W        W20361  15.426  24.469  18.827  0.1346  0.2545  0.0278
77268W        W20362  14.755  24.108  18.332 -0.0832  0.1554 -0.1479
77269W        W20363  16.621  23.449  15.113 -0.1912  0.2799  0.0574
77270W        W20364  19.110  23.493  19.018 -0.1557 -0.3466 -0.1341
77271W        W20365  16.003  22.663  15.932 -0.5220 -0.2230  0.2093
77272W        W20366  16.054  25.631  19.360 -0.0249 -0.0442  0.1576
77273W        W20367  14.599  23.135  16.650 -0.3901 -0.2683  0.1555
77274W        W20368  17.373  21.782  16.506  0.0219  0.0297  0.0118
77275W        W20369  14.564  25.771  16.264 -0.0811  0.1023  0.0529
77276W        W20370  15.418  24.195  17.323  0.2899 -0.1239 -0.3046
77277W        W20371  18.284  25.327  19.036  0.2406 -0.0571  0.2044
77278W        W20372  15.352  21.980  15.924  0.0762 -0.0955  0.2467
77279W        W20373  17.558  25.091  16.021  0.0126 -0.1073  0.0115
77280W        W20374  17.610  23.572  16.599  0.2051  0.0833 -0.1114
77281W        W20375  14.702  25.319  16.109 -0.1191 -0.1050 -0.1667
77282W        W20376  17.001  23.653  17.518  0.0869 -0.1896  0.2009
77283W        W20377  18.421  25.477  17.111 -0.3113  0.0198 -0.0207
77284W        W20378  13.522  22.416  18.419 -0.2850  0.6280 -0.1512
77285W        W20379  17.229  24.942  18.217 -0.4020 -0.1000  0.0302
77286W        W20380  16.337  24.771  16.581  0.0418 -0.0296  0.1875
77287W        W20381  15.166  22.979  16.908 -0.0128 -0.0651  0.1493
77288W        W20382  14.210  23.694  17.660 -0.1750 -0.1285  0.0830
77289W        W20383  14.830  26.558  16.211  0.1675  0.3243 -0.1250
77290W        W20384  16.820  24.458  16.854  0.2370  0.1861  0.0163
77291W        W20385  16.341  23.125  17.211  0.0014 -0.0498 -0.0776
77292W        W20386  14.842  26.149  16.556 -0.3859 -0.0082 -0.2899
77293W        W20387  18.547  23.746  18.073 -0.0348  0.0316 -0.0238
77294W        W20388  16.609  25.659  18.588  0.3658 -0.1181  0.0379
77295W        W20389  14.957  25.984  20.342  0.0125  0.0638 -0.0063
77296W        W20390  14.230  22.827  17.228  0.1468 -0.1462  0.0209
77297W        W20391  15.759  24.243  19.133  0.0393  0.1688  0.0607
77298W        W20392  15.621  25.799  17.035 -0.1395  0.1495  0.2073
77299W        W20393  14.812  25.399  17.369  0.1415  0.2284  0.0823
77300W        W20394  17.201  24.733  17.013  0.1919 -0.0953 -0.2024
77301W        W20395  14.140  24.603  17.662 -0.1044  0.0661  0.0650
77302W        W20396  17.808  24.690  17.511  0.4941  0.1369  0.0934
77303W        W20397  14.868  24.170  17.861 -0.0408  0.0278 -0.3874
77304W        W20398  18.184  22.927  16.083  0.2647  0.2201 -0.2480
77305W        W20399  18.281  22.432  16.119  0.0171 -0.0857 -0.2393
77306W        W20400  15.212  24.955  19.601  0.3159  0.0663 -0.0292
77307W        W20401  14.198  25.452  16.153  0.1133 -0.2102 -0.1353
77308W        W20402  15.157  24.446  15.823 -0.0688  0.0409 -0.1019
77309W        W20403  14.726  24.917  16.445 -0.3194 -0.1198  0.0254
77310W        W20404  15.168  23.382  18.598 -0.2068 -0.0745  0.1294
77311W        W20405  14.222  24.010  18.215 -0.0696 -0.0349  0.0981
77312W        W20406  14.669  24.500  16.151 -0.1323  0.0356  0.4559
77313W        W20407  15.374  23.403  16.782 -0.0643 -0.1387 -0.0610
77314W        W20408  17.826  24.959  15.646 -0.2088  0.0323 -0.2549
77315W        W20409  14.252  23.594  18.581 -0.1312  0.1741  0.3090
77316W        W20410  14.825  22.940  17.781 -0.1860 -0.1715 -0.1913
77317W        W20411  16.154  24.902  18.641  0.0276  0.3266  0.2790
77318W        W20412  16.858  25.537  17.308 -0.0532 -0.2524  0.1582
77319W        W20413  15.300  22.143  17.791 -0.1277  0.2055  0.0387
77320W        W20414  19.109  25.595  20.186  0.0243  0.0398 -0.0429
77321W        W20415  15.292  23.988  15.516 -0.0482  0.3096  0.4142
77322W        W20416  15.948  23.071  18.586 -0.0864 -0.2464 -0.1167
77323W        W20417  15.365  24.312  18.273  0.2297 -0.0685 -0.0847
77324W        W20418  14.496  22.863  16.107  0.1492 -0.1197  0.1644
77325W        W20419  16.433  24.094  17.203  0.1742  0.3914  0.0003
77326W        W20420  16.017  25.074  18.150 -0.0488  0.0103  0.2420
77327W        W20421  17.414  25.334  15.573  0.0464  0.0586 -0.2631
77328W        W20422  14.285  25.082  18.036 -0.1404 -0.1041  0.2757
77329W        W20423  17.743  26.352  18.702  0.0094 -0.0373 -0.0779
77330W        W20424  15.043  22.526  18.038 -0.0084 -0.1298  0.1186
77331W        W20425  16.679  24.900  17.089  0.2120  0.0780  0.2744
77332W        W20426  14.466  25.776  20.398 -0.2057  0.0209 -0.0554
77333W        W20427  16.724  23.955  16.808  0.0056 -0.2658 -0.0175
77334W        W20428  16.484  24.530  18.600 -0.0385 -0.2208 -0.1312
77335W        W20429  16.474  23.531  15.992  0.1754 -0.2731 -0.2317
77336W        W20430  15.633  24.006  18.633 -0.1072  0.1693  0.0483
77337W        W20431  15.711  25.891  19.823 -0.2634  0.0017  0.2179
77338W        W20432  18.493  23.959  18.973  0.2914 -0.2029  0.2176
77339W        W20433  13.492  22.364  16.959  0.1586  0.1338  0.0852
77340W        W20434  16.385  24.240  16.654  0.2755 -0.1613  0.2293
77341W        W20435  16.094  25.633  16.827  0.0988  0.1028  0.1201
77342W        W20436  14.295  24.334  17.169 -0.0980 -0.0355 -0.0883
77343W        W20437  15.944  24.002  17.306 -0.0490 -0.3767  0.1108
77344W        W20438  15.993  24.692  19.567 -0.3658 -0.2214  0.2250
77345W        W20439  14.649  25.341  17.859 -0.0953 -0.2523  0.1651
77346W        W20440  18.283  24.170  18.189 -0.2325 -0.3471  0.1189
77347W        W20441  14.238  25.334  17.003 -0.1584  0.1204 -0.2019
77348W        W20442  17.351  23.954  16.303 -0.3105 -0.1220 -0.0543
77349W        W20443  16.966  26.420  20.100 -0.1451  0.1466 -0.1442
77350W        W20444  18.024  25.906  19.593  0.1040 -0.2948 -0.2822
77351W        W20445  17.368  26.744  18.525  0.0199  0.1434  0.0291
77352W        W20446  17.009  25.723  17.800 -0.1703  0.0489  0.1339
77353W        W20447  14.692  21.908  17.711  0.0196 -0.0628  0.0935
77354W        W20448  14.739  23.951  16.087  0.1707 -0.2270  0.0219
77355W        W20449  15.374  23.753  16.433  0.0773 -0.3109  0.0807
77356W        W20450  16.662  24.011  17.617  0.1478 -0.0341 -0.2048
77357W        W20451  15.422  24.249  16.781  0.1967  0.1179  0.1095
77358W        W20452  17.507  21.998  15.886  0.2248 -0.1088 -0.0044
77359W        W20453  14.598  25.998  19.914  0.2813  0.1430 -0.0922
77360W        W20454  16.439  25.374  18.922 -0.0944  0.1615 -0.0778
77361W        W20455  15.617  24.499  22.669  0.0585 -0.0790  0.0683
77362W        W20456  15.915  24.166  20.771  0.2328 -0.0913  0.2185
77363W        W20457  17.840  23.597  18.698 -0.1083 -0.0341 -0.0326
77364W        W20458  18.849  24.183  19.997  0.1086  0.1541  0.0452
77365W        W20459  14.632  22.490  21.121  0.1298 -0.1200 -0.0060
77366W        W20460  16.800  25.132  20.890  0.1832  0.1622  0.0599
77367W        W20461  15.289  21.884  21.599 -0.1423  0.1110  0.4728
77368W        W20462  17.554  25.306  20.543  0.0193  0.2686 -0.3896
77369W        W20463  18.845  23.351  21.350  0.0868  0.2850  0.3111
77370W        W20464  17.745  24.269  19.307  0.1417 -0.2277 -0.2692
77371W        W20465  18.003  22.810  21.610 -0.0940 -0.0459  0.1454
77372W        W20466  15.886  25.322  22.307  0.0558 -0.3964 -0.0099
77373W        W20467  16.005  21.276  19.385 -0.1454 -0.1397 -0.2759
77374W        W20468  14.139  24.394  22.506 -0.1519  0.0134  0.1338
77375W        W20469  18.309  22.710  22.935  0.3552  0.2964 -0.2999
77376W        W20470  14.168  24.670  20.789 -0.0876 -0.3976  0.3110
77377W        W20471  15.563  22.405  22.606  0.0646 -0.0145 -0.1654
77378W        W20472  16.764  23.846  20.330 -0.1148  0.6095  0.0652
77379W        W20473  17.093  25.013  21.280  0.1574  0.1227 -0.0283
77380W        W20474  15.276  23.452  24.406 -0.1240  0.1524  0.3587
77381W        W20475  15.111  22.391  21.546  0.0577  0.4257 -0.2193
77382W        W20476  17.399  26.168  20.121  0.0207 -0.0228  0.3006
77383W        W20477  15.059  24.008  18.756  0.1637  0.2959  0.1114
77384W        W20478  14.348  24.594  21.256 -0.1505  0.0391 -0.3019
77385W        W20479  16.085  24.195  22.597  0.0549  0.0195 -0.0016
77386W        W20480  17.678  23.599  20.564  0.0905 -0.0373  0.2418
77387W        W20481  18.242  23.663  20.547  0.2277 -0.1353  0.0062
77388W        W20482  18.706  25.257  23.199  0.1092  0.1676  0.0564
77389W        W20483  18.204  24.351  22.339  0.0192  0.1344  0.1318
77390W        W20484  18.140  22.951  24.253 -0.2842  0.1251  0.0227
77391W        W20485  14.024  25.891  20.761  0.0823  0.1857  0.1706
77392W        W20486  12.789  24.719  22.951 -0.0886 -0.1167  0.0585
77393W        W20487  17.520  25.815  19.740  0.1683  0.0384  0.1615
77394W        W20488  18.242  23.654  21.077 -0.1183 -0.1539 -0.2443
77395W        W20489  18.431  24.315  22.973 -0.1632  0.3568  0.0969
77396W        W20490  17.022  26.308  24.165  0.2148  0.2085 -0.1253
77397W        W20491  16.226  25.031  19.840 -0.2317  0.3358  0.1012
77398W        W20492  17.906  25.386  24.526 -0.0589 -0.2151 -0.2727
77399W        W20493  16.124  24.475  24.246 -0.2169  0.3550  0.2466
77400W        W20494  16.622  24.722  23.307  0.3446  0.2265  0.1464
77401W        W20495  16.435  23.712  20.861  0.0535  0.2416  0.2139
77402W        W20496  15.551  24.406  20.964 -0.1603 -0.0459  0.0164
77403W        W20497  14.797  24.141  22.029 -0.1947  0.1446  0.0003
77404W        W20498  16.937  24.738  22.911 -0.2163 -0.3019 -0.2462
77405W        W20499  13.632  25.750  22.643  0.0431 -0.0113 -0.2784
77406W        W20500  18.493  22.153  23.900  0.2390  0.0097 -0.3866
77407W        W20501  15.964  26.532  20.890  0.0002 -0.0378 -0.0711
77408W        W20502  18.673  23.278  19.808 -0.0136  0.0594 -0.0059
77409W        W20503  18.048  23.695  20.015 -0.1071  0.3164  0.1143
77410W        W20504  17.719  24.023  20.273  0.0829 -0.1846 -0.0371
77411W        W20505  14.338  23.527  19.911 -0.1261  0.1478 -0.1181
77412W        W20506  15.192  26.947  21.026  0.0058 -0.0698  0.1046
77413W        W20507  16.480  22.181  20.497 -0.2175  0.2158  0.1994
77414W        W20508  18.966  24.688  22.129 -0.0635  0.2007  0.2526
77415W        W20509  15.598  25.599  21.039 -0.1507  0.0326 -0.0102
77416W        W20510  18.441  24.123  21.888 -0.1017 -0.0009  0.2385
77417W        W20511  15.436  26.012  22.636  0.0812  0.0387  0.1370
77418W        W20512  15.036  24.081  21.031  0.1871 -0.1558  0.0175
77419W        W20513  17.820  25.431  19.810  0.0231 -0.1093  0.0860
77420W        W20514  19.512  26.442  20.822 -0.0775  0.1692  0.1609
77421W        W20515  18.261  24.834  18.899 -0.3453  0.3321  0.0728
77422W        W20516  14.222  25.067  21.329  0.5580 -0.0797  0.0926
77423W        W20517  14.278  25.829  23.179 -0.0535  0.2626 -0.2963
77424W        W20518  15.941  23.942  23.011 -0.2052 -0.2769  0.0955
77425W        W20519  16.353  22.983  20.586  0.1325  0.2040 -0.1501
77426W        W20520  18.431  23.507  22.512  0.1480 -0.1641 -0.3647
77427W        W20521  12.670  25.920  23.212  0.1093 -0.1915 -0.1683
77428W        W20522  17.385  22.456  19.444 -0.0438 -0.0585  0.0051
77429W        W20523  14.719  24.031  22.466  0.4402 -0.0925  0.1917
77430W        W20524  18.115  23.957  22.706 -0.2117 -0.1763  0.0498
77431W        W20525  16.627  25.595  20.817 -0.1170  0.3310 -0.0600
77432W        W20526  18.781  22.502  21.993 -0.2978 -0.2715  0.2867
77433W        W20527  16.128  22.816  21.180  0.1626  0.2086 -0.0669
77434W        W20528  15.814  25.160  19.573  0.0313 -0.1190  0.0999
77435W        W20529  14.633  24.241  19.777 -0.0452  0.2289  0.0392
77436W        W20530  17.922  24.524  21.085  0.1639 -0.0709  0.0500
77437W        W20531  17.822  24.525  18.822  0.0837  0.0766  0.2381
77438W        W20532  15.007  25.867  21.816 -0.2307 -0.0535 -0.2079
77439W        W20533  17.510  23.061  21.689 -0.0704 -0.2117 -0.1614
77440W        W20534  17.154  25.634  22.945 -0.1986 -0.1010 -0.1066
77441W        W20535  13.286  25.979  19.520 -0.1848 -0.0603 -0.2821
77442W        W20536  14.081  25.239  21.884 -0.1053 -0.2704  0.0839
77443W        W20537  15.162  24.425  19.822  0.0637 -0.1118 -0.1732
77444W        W20538  14.606  23.916  23.385  0.1658 -0.1288 -0.0178
77445W        W20539  16.303  25.626  22.497  0.2034  0.0904 -0.0529
77446W        W20540  17.718  23.811  19.604  0.1892 -0.0566  0.1911
77447W        W20541  15.971  23.219  22.350  0.2999 -0.0150 -0.2394
77448W        W20542  17.524  21.000  20.012 -0.2441  0.2559  0.1130
77449W        W20543  14.761  24.641  19.387 -0.2270  0.0715 -0.1189
77450W        W20544  17.490  24.731  20.328  0.2389  0.1730  0.0730
77451W        W20545  19.798  22.055  20.368 -0.1455 -0.0326  0.2969
77452W        W20546  16.996  24.552  20.644 -0.1272 -0.2387  0.0067
77453W        W20547  15.112  24.755  22.601  0.0478  0.0519 -0.0319
77454W        W20548  17.047  23.260  19.331  0.2664  0.2128 -0.2580
77455W        W20549  15.529  22.796  22.870  0.1365 -0.0243  0.1516
77456W        W20550  15.829  22.339  21.306 -0.0164 -0.1451  0.1026
77457W        W20551  15.341  24.333  21.868  0.1372 -0.0206  0.1178
77458W        W20552  16.539  23.169  19.611 -0.2820  0.2206  0.1022
77459W        W20553  16.745  23.616  21.506 -0.1119 -0.2798 -0.2109
77460W        W20554  15.073  23.886  19.815  0.0012  0.1495  0.1862
77461W        W20555  13.181  25.011  21.671  0.1853  0.0715 -0.2329
77462W        W20556  18.989  21.780  23.798  0.1211 -0.2268  0.3137
77463W        W20557  17.989  25.542  18.626  0.0907  0.1181 -0.1695
77464W        W20558  18.774  25.487  21.771  0.2478 -0.0396 -0.0196
77465W        W20559  17.842  24.872  20.599  0.2224  0.0978  0.0526
77466W        W20560  15.683  23.273  22.756  0.2065 -0.0626 -0.0160
77467W        W20561  14.389  23.851  19.544  0.1708 -0.1888  0.0128
77468W        W20562  14.409  25.902  22.410  0.0813  0.0286  0.2513
77469W        W20563  17.090  23.783  22.000  0.0516  0.3336  0.0298
77470W        W20564  14.645  25.097  20.042 -0.0286 -0.1489 -0.1130
77471W        W20565  17.647  24.112  21.298 -0.1115  0.1140  0.0930
77472W        W20566  17.090  24.615  21.698  0.2539 -0.0345  0.0106
77473W        W20567  15.328  24.695  25.348 -0.1801  0.0052  0.2573
77474W        W20568  16.148  22.454  20.756  0.0400 -0.1924 -0.1953
77475W        W20569  18.444  24.139  20.841 -0.2942 -0.0251  0.2124
77476W        W20570  17.606  24.691  23.054  0.1851 -0.0424  0.1523
77477W        W20571  14.999  23.127  19.152 -0.2072  0.0891 -0.1591
77478W        W20572  15.274  26.055  21.100 -0.0939  0.0309 -0.0123
77479W        W20573  13.404  25.181  20.565  0.0493 -0.0602 -0.0463
77480W        W20574  14.204  23.642  22.392  0.2755 -0.0218 -0.0785
77481W        W20575  16.572  24.733  21.182  0.2782 -0.0011 -0.0224
77482W        W20576  18.464  22.492  20.981 -0.0011  0.1136  0.0125
77483W        W20577  15.236  24.588  23.102  0.1481  0.1651 -0.0222
77484W        W20578  17.042  23.236  21.460  0.0544 -0.0193  0.0079
77485W        W20579  15.388  24.307  20.212  0.2312  0.1856  0.0178
77486W        W20580  15.070  26.034  22.989 -0.3504 -0.1364 -0.2445
77487W        W20581  16.674  22.934  19.212  0.0425 -0.0720 -0.1841
77488W        W20582  18.189  24.388  19.158 -0.0817 -0.3652  0.1913
77489W        W20583  16.233  24.662  22.805 -0.0033  0.1699  0.3368
77490W        W20584  19.414  24.125  20.048 -0.1772 -0.2107  0.1354
77491W        W20585  18.703  23.522  19.306  0.1327 -0.3482 -0.0759
77492W        W20586  17.378  23.359  18.859 -0.2984 -0.1260  0.0160
77493W        W20587  13.953  25.295  23.537 -0.1910  0.1475 -0.1687
77494W        W20588  16.343  24.139  20.428 -0.1857 -0.1382  0.3653
77495W        W20589  15.812  24.963  22.825 -0.0799 -0.1837  0.0635
77496W        W20590  16.425  23.385  19.217 -0.1501  0.0242  0.0167
77497W        W20591  20.095  26.048  21.357  0.0235  0.0556 -0.0290
77498W        W20592  14.748  25.586  22.140  0.1973 -0.1245 -0.1903
77499W        W20593  17.735  24.344  23.432  0.0736 -0.0657 -0.0783
77500W        W20594  17.964  24.246  21.872 -0.1387 -0.0117 -0.0451
77501W        W20595  16.508  22.568  20.205 -0.0981  0.0146 -0.0101
77502W        W20596  16.038  24.899  20.401 -0.0915  0.1296 -0.1424
77503W        W20597  15.603  25.017  18.803 -0.0263 -0.0953  0.1179
77504W        W20598  12.982  24.997  19.371  0.0965 -0.1686 -0.2369
77505W        W20599  17.999  23.116  21.156 -0.1679  0.2318  0.3485
77506W        W20600  15.819  24.185  21.329 -0.0514  0.0511 -0.0124
77507W        W20601  16.460  23.543  20.082  0.0594  0.2771 -0.0546
77508W        W20602  18.141  22.976  23.346  0.1641  0.4189  0.1488
77509W        W20603  17.165  23.984  19.818 -0.2111  0.2486  0.0013
77510W        W20604  17.591  23.649  22.348  0.0549  0.1441  0.2068
77511W        W20605  13.898  23.854  19.939 -0.1134  0.1952 -0.0844
77512W        W20606  16.196  22.795  21.698 -0.0020 -0.0022 -0.1821
77513W        W20607  15.478  23.641  22.982 -0.4085 -0.1942  0.0752
77514W        W20608  14.834  26.302  24.429 -0.1731 -0.1020 -0.2376
77515W        W20609  17.663  25.418  22.066 -0.1480 -0.3380 -0.0187
77516W        W20610  17.182  24.284  20.251 -0.0379 -0.0201 -0.0382
77517W        W20611  16.432  21.420  21.188 -0.0685  0.2604  0.1359
77518W        W20612  16.910  22.234  19.593  0.1375  0.0178  0.5208
77519W        W20613  16.640  26.144  19.856  0.1771 -0.0876  0.0888
77520W        W20614  16.678  24.448  20.288 -0.2325  0.2183  0.2518
77521W        W20615  14.848  24.054  20.243 -0.1867  0.0461 -0.0599
77522W        W20616  15.896  24.582  21.871 -0.2756 -0.1752 -0.2411
77523W        W20617  15.423  26.190  20.348  0.2818  0.3004 -0.2906
77524W        W20618  18.117  24.897  22.594 -0.0329 -0.1840  0.1495
77525W        W20619  17.230  25.951  21.237 -0.0955 -0.2350  0.0053
77526W        W20620  17.472  23.007  19.411  0.2157  0.2456  0.0477
77527W        W20621  14.916  25.612  22.716 -0.0369 -0.0394  0.5280
77528W        W20622  16.536  25.111  18.452  0.0954 -0.4013 -0.0935
77529W        W20623  14.489  24.096  21.151  0.1414  0.3237  0.1709
77530W        W20624  17.124  22.991  21.029  0.4987 -0.2997 -0.1220
77531W        W20625  18.065  24.198  19.701  0.0737  0.0020  0.1997
77532W        W20626  15.726  23.643  21.823  0.0596 -0.0904 -0.0403
77533W        W20627  17.742  24.164  22.348 -0.1828  0.2140  0.0260
77534W        W20628  14.395  24.530  22.890  0.0009 -0.0315  0.3488
77535W        W20629  17.813  22.707  23.647 -0.2895  0.1993 -0.0006
77536W        W20630  18.576  22.980  18.874  0.5165  0.0781  0.0910
77537W        W20631  16.139  23.912  21.777 -0.1246 -0.0413 -0.1254
77538W        W20632  16.073  24.608  21.036 -0.0343  0.0990  0.0280
77539W        W20633  14.814  22.692  20.653 -0.0156 -0.1812  0.0167
77540W        W20634  18.244  22.146  23.050  0.4172  0.2393  0.0935
77541W        W20635  15.474  23.169  18.906 -0.1122 -0.4418  0.1701
77542W        W20636  13.617  25.627  19.813  0.0057  0.0193  0.1040
77543W        W20637  15.034  24.609  21.151  0.4270 -0.0669  0.2215
77544W        W20638  15.691  24.544  20.523  0.0777 -0.3363  0.3661
77545W        W20639  14.541  26.485  19.779  0.2281 -0.1172  0.1424
77546W        W20640  16.261  24.261  22.128  0.2282 -0.1548  0.0750
77547W        W20641  14.941  24.662  22.049 -0.0514  0.0590 -0.2971
77548W        W20642  16.273  23.237  21.025 -0.1389 -0.1273  0.0090
77549W        W20643  15.819  24.113  20.277 -0.2239  0.0380 -0.1090
77550W        W20644  15.276  23.175  21.519  0.1731 -0.2746  0.0859
77551W        W20645  17.346  22.570  21.822  0.1379 -0.1391  0.4012
77552W        W20646  16.771  24.111  20.743  0.0031  0.2608  0.2394
77553W        W20647  14.883  26.010  22.315 -0.2730  0.1271 -0.1076
77554W        W20648  17.082  23.450  20.147 -0.1622 -0.1136  0.0439
77555W        W20649  19.829  26.589  19.918 -0.0265  0.1117  0.1364
77556W        W20650  15.914  24.067  23.558  0.2763  0.0133  0.3302
77557W        W20651  15.908  25.171  21.118  0.0743 -0.3028 -0.1301
77558W        W20652  16.187  23.409  21.914 -0.4510  0.2515  0.1025
77559W        W20653  14.779  25.393  20.704  0.0989 -0.0093 -0.0501
77560W        W20654  16.629  24.231  22.696  0.2229 -0.0139 -0.0439
77561W        W20655  14.437  24.498  21.927  0.1456 -0.1615 -0.1814
77562W        W20656  14.877  24.450  18.904  0.0560  0.0908  0.0457
77563W        W20657  14.574  24.633  22.389 -0.1832  0.1340  0.0255
77564W        W20658  17.354  22.989  19.881 -0.1025  0.0709 -0.1543
77565W        W20659  16.336  25.144  19.358 -0.1637 -0.1087  0.0561
77566W        W20660  17.579  24.633  21.503 -0.0679  0.3604 -0.0450
77567W        W20661  17.574  23.120  23.235 -0.2542  0.0486  0.0705
77568W        W20662  17.373  24.417  18.839  0.0221  0.3026  0.0209
77569W        W20663  18.390  21.825  22.040 -0.0597 -0.0931 -0.0572
77570W        W20664  15.181  23.038  21.032 -0.2748 -0.0257 -0.0513
77571W        W20665  17.590  24.382  20.725 -0.2940 -0.2680 -0.0813
77572W        W20666  13.575  25.345  21.870 -0.4815 -0.2226 -0.2682
77573W        W20667  17.268  26.780  24.262 -0.1601  0.2536  0.0091
77574W        W20668  14.867  24.345  22.879  0.0348  0.2044 -0.0147
77575W        W20669  17.398  24.912  20.843 -0.1406  0.1743  0.0171
77576W        W20670  14.004  22.010  20.566  0.0244  0.2019  0.0802
77577W        W20671  16.102  23.568  22.687  0.1562  0.0661  0.3152
77578W        W20672  17.883  22.937  22.877 -0.0066 -0.0233  0.2030
77579W        W20673  17.828  24.965  19.968 -0.1488  0.1126 -0.3541
77580W        W20674  17.539  23.914  21.949  0.0210  0.0992 -0.1333
77581W        W20675  15.311  24.262  21.361 -0.0404  0.1316 -0.0939
77582W        W20676  17.282  24.071  20.962  0.3653 -0.0762 -0.0638
77583W        W20677  17.388  25.173  20.052 -0.1391 -0.2071  0.1256
77584W        W20678  14.591  24.935  20.983 -0.0208 -0.1510  0.0774
77585W        W20679  15.154  24.274  22.348 -0.4439  0.0114  0.0068
77586W        W20680  18.554  23.838  21.455 -0.2128  0.0645  0.1403
77587W        W20681  16.647  23.938  21.874 -0.0403 -0.0084  0.0929
77588W        W20682  17.850  23.533  21.351 -0.0664  0.0157 -0.1032
77589W        W20683  16.851  22.773  20.648  0.0966  0.0218  0.0074
77590W        W20684  16.333  24.929  23.784  0.1732 -0.1161 -0.0801
77591W        W20685  13.943  23.156  23.975  0.0124  0.0484 -0.0025
77592W        W20686  17.436  24.956  22.271  0.0044 -0.0399 -0.3141
77593W        W20687  17.175  24.160  19.317  0.0544 -0.1056  0.2753
77594W        W20688  17.172  22.233  21.217 -0.2010 -0.3244  0.3829
77595W        W20689  18.569  22.966  20.548 -0.1494  0.0285  0.2306
77596W        W20690  18.084  24.432  20.536 -0.0984 -0.1621  0.1742
77597W        W20691  15.238  23.345  21.959 -0.2629 -0.1226 -0.2347
77598W        W20692  17.838  23.414  23.559 -0.0005  0.0811  0.0198
77599W        W20693  14.609  23.379  19.474  0.0290  0.2601  0.0588
77600W        W20694  17.311  22.738  22.794 -0.2247 -0.1853 -0.0610
77601W        W20695  16.791  25.164  21.740  0.1672 -0.1215  0.2083
77602W        W20696  16.317  23.800  21.321 -0.2360 -0.2788 -0.1336
77603W        W20697  17.570  23.591  20.062 -0.3019  0.1283  0.0762
77604W        W20698  15.124  23.715  22.516  0.3065 -0.0103  0.0286
77605W        W20699  16.457  26.277  23.299  0.3940 -0.0230  0.0715
77606W        W20700  16.165  24.691  17.923  0.1672 -0.1382 -0.1265
77607W        W20701  16.199  24.208  19.538 -0.0155 -0.1624 -0.2314
77608W        W20702  15.259  25.618  22.326  0.2178  0.0665 -0.0693
77609W        W20703  18.071  24.373  24.591 -0.3659  0.1745  0.1859
77610W        W20704  15.827  22.984  19.279 -0.3323 -0.0207  0.1602
77611W        W20705  17.861  22.553  21.008  0.1247 -0.1558 -0.0548
77612W        W20706  13.821  25.432  20.584  0.1009 -0.2525 -0.0232
77613W        W20707  17.225  23.784  20.557  0.0143  0.2396 -0.0914
77614W        W20708  16.575  26.738  21.583  0.0244 -0.1610 -0.0236
77615W        W20709  13.200  24.616  22.672 -0.3641  0.2287  0.1991
77616W        W20710  16.853  27.049  20.386 -0.0264 -0.0844 -0.0870
77617W        W20711  16.394  22.454  22.126 -0.2070 -0.4872  0.2161
77618W        W20712  19.157  24.875  23.535 -0.0852  0.0491  0.0174
77619W        W20713  14.892  24.367  21.592 -0.0328  0.2067 -0.1363
77620W        W20714  18.215  23.033  22.536 -0.1998  0.0261  0.2442
77621W        W20715  16.207  24.926  21.484  0.0416  0.3495 -0.0660
77622W        W20716  15.749  25.047  21.749 -0.2802  0.2068  0.0783
77623W        W20717  17.954  23.925  23.165 -0.1699  0.3546  0.0054
77624W        W20718  17.205  24.130  21.618 -0.0304  0.0397 -0.0828
77625W        W20719  15.642  25.530  21.905 -0.0919  0.1029  0.1437
77626W        W20720  13.427  24.133  22.830  0.0515  0.1178 -0.2148
77627W        W20721  16.905  24.426  23.616 -0.0163 -0.0824  0.2359
77628W        W20722  16.727  23.294  21.003 -0.0675  0.1179 -0.1488
77629W        W20723  15.544  23.003  19.729  0.0748  0.3775  0.3608
77630W        W20724  17.256  26.515  20.947 -0.2152 -0.1199 -0.2588
77631W        W20725  15.563  27.026  23.234  0.5009  0.0238  0.1969
77632W        W20726  14.807  24.952  21.453 -0.0062 -0.0743  0.0155
77633W        W20727  14.640  26.508  20.261  0.3701  0.0730  0.0614
77634W        W20728  17.444  24.454  22.013 -0.2767 -0.1372  0.0505
77635W        W20729  16.324  24.501  19.915 -0.4794  0.1482 -0.1471
77636W        W20730  16.005  25.804  22.833  0.1102  0.1115  0.1305
77637W        W20731  15.901  23.788  19.379  0.3540  0.0861 -0.1992
77638W        W20732  14.311  25.828  21.185 -0.2812 -0.0319  0.1060
77639W        W20733  14.047  25.014  19.985  0.2550  0.0349  0.1302
77640W        W20734  17.862  25.883  20.123  0.0051 -0.0351 -0.0781
77641W        W20735  15.218  25.929  19.744  0.1128 -0.0797  0.1331
77642W        W20736  18.679  24.374  22.521 -0.2283 -0.1553  0.0264
77643W        W20737  18.419  22.129  19.447  0.0453 -0.3517  0.2914
77644W        W20738  15.372  23.010  20.529 -0.2114 -0.2220  0.0061
77645W        W20739  18.478  22.570  19.135  0.0125  0.1748 -0.3104
77646W        W20740  18.182  25.314  24.126 -0.2018  0.2307 -0.5648
77647W        W20741  14.575  25.415  21.244  0.1240 -0.0387 -0.0184
77648W        W20742  16.021  24.349  18.572  0.0241  0.0581 -0.4306
77649W        W20743  15.360  23.832  21.530 -0.1044  0.1388  0.0605
77650W        W20744  20.118  22.568  23.188 -0.2550  0.0053 -0.3707
77651W        W20745  14.247  25.688  23.968  0.3128 -0.0278  0.0352
77652W        W20746  18.847  25.584  19.736 -0.0164  0.0426 -0.1047
77653W        W20747  15.630  24.172  19.745  0.1794 -0.0941  0.2811
77654W        W20748  16.314  25.076  20.829  0.0598  0.1196  0.0798
77655W        W20749  16.437  22.460  21.349  0.2015  0.1484 -0.2301
77656W        W20750  16.524  24.932  20.268 -0.2020 -0.0548  0.1191
77657W        W20751  16.631  22.097  20.024 -0.1504 -0.0609 -0.0460
77658W        W20752  16.415  26.117  21.767 -0.3111 -0.4812  0.1028
77659W        W20753  15.078  26.359  21.671  0.1731  0.1810  0.1327
77660W        W20754  14.592  25.104  21.886  0.0320 -0.2262  0.1473
77661W        W20755  14.788  23.281  21.712  0.2285  0.0088 -0.0630
77662W        W20756  20.457  22.744  20.286  0.0691 -0.1572  0.3611
77663W        W20757  15.801  23.098  21.875 -0.2147 -0.2000  0.3230
77664W        W20758  18.189  22.384  21.375  0.0545 -0.0806  0.0296
77665W        W20759  15.301  23.853  22.082 -0.0648  0.0937  0.2081
77666W        W20760  18.984  23.782  19.627  0.0394  0.2532 -0.1396
77667W        W20761  15.235  25.093  22.008  0.2404  0.0809  0.2663
77668W        W20762  14.837  23.641  22.067  0.2326 -0.0615 -0.2941
77669W        W20763  15.894  23.438  19.071  0.2058 -0.1368 -0.0145
77670W        W20764  16.530  21.942  22.406  0.3816 -0.1775 -0.2935
77671W        W20765  17.621  23.382  18.269 -0.0660 -0.1725 -0.5157
77672W        W20766  17.784  26.608  23.381  0.1007 -0.0089  0.1079
77673W        W20767  14.238  24.025  20.721  0.0849  0.2907 -0.5462
77674W        W20768  16.843  24.434  19.851 -0.0890  0.0805  0.2262
77675W        W20769  14.379  24.743  19.687 -0.0687 -0.0535 -0.2652
77676W        W20770  16.999  24.286  23.084 -0.1313 -0.0548  0.0610
77677W        W20771  17.662  25.077  22.680  0.2543  0.0127  0.2649
77678W        W20772  15.487  23.396  19.402  0.1527  0.1348 -0.0159
77679W        W20773  17.228  24.785  19.745 -0.2301 -0.2480  0.1132
77680W        W20774  17.584  24.576  22.529 -0.3595 -0.0439  0.1650
77681W        W20775  16.334  27.098  19.563  0.1686 -0.1854  0.3163
77682W        W20776  17.057  25.099  22.555  0.0590  0.0210 -0.1422
77683W        W20777  16.882  24.318  22.039  0.1987  0.0287 -0.1531
77684W        W20778  13.422  24.509  21.672 -0.3335 -0.1387 -0.0565
77685W        W20779  16.030  25.537  21.531 -0.2825 -0.2212 -0.0623
77686W        W20780  18.882  24.207  22.020  0.0249 -0.1730  0.2077
77687W        W20781  15.573  23.604  19.826 -0.2579 -0.2595 -0.1172
77688W        W20782  16.321  23.695  19.629  0.0718  0.2839  0.0323
77689W        W20783  14.952  24.919  20.657 -0.0195  0.2223 -0.2966
77690W        W20784  17.412  22.025  21.913  0.0268 -0.0409 -0.0261
77691W        W20785  16.954  22.726  21.387  0.0723 -0.1776  0.0675
77692W        W20786  15.159  25.734  20.749 -0.0976 -0.1035  0.0266
77693W        W20787  18.000  21.940  21.570 -0.0391 -0.1457 -0.1302
77694W        W20788  15.684  24.598  23.315 -0.0330 -0.2964  0.2820
77695W        W20789  15.256  26.128  23.558 -0.2027 -0.1714  0.2747
77696W        W20790  14.871  24.689  20.188  0.1158  0.1324  0.0536
77697W        W20791  17.098  24.557  22.460 -0.0298  0.0691 -0.4293
77698W        W20792  16.410  25.323  21.214  0.2378  0.2398 -0.1961
77699W        W20793  15.431  25.863  21.535 -0.0425  0.0455  0.2026
77700W        W20794  17.725  25.784  20.596 -0.1355  0.2723 -0.2136
77701W        W20795  18.481  22.875  21.481  0.1442 -0.4283 -0.1143
77702W        W20796  17.958  24.008  20.868  0.1532  0.2498 -0.2358
77703W        W20797  16.715  23.346  20.481  0.3985  0.2460 -0.2399
77704W        W20798  17.769  22.075  19.614 -0.0275  0.2152  0.2977
77705W        W20799  16.986  22.580  20.076 -0.3251  0.1302  0.2220
77706W        W20800  14.967  25.390  21.689 -0.3897 -0.0047 -0.0250
77707W        W20801  14.888  23.485  20.201  0.4275  0.0639  0.0324
77708W        W20802  14.715  24.060  19.266 -0.0818  0.0613 -0.1013
77709W        W20803  16.868  25.498  21.230 -0.1498 -0.3946 -0.3562
77710W        W20804  16.495  23.421  22.372 -0.0112 -0.2282 -0.1653
77711W        W20805  14.999  24.291  23.427 -0.2637  0.0695  0.1639
77712W        W20806  14.461  25.656  21.704 -0.2178  0.3137 -0.1252
77713W        W20807  13.436  23.889  21.089 -0.0078  0.3409 -0.1725
77714W        W20808  16.702  24.204  19.442  0.2200  0.0649  0.1432
77715W        W20809  15.491  23.449  20.716  0.0078 -0.0726  0.0297
77716W        W20810  14.333  23.601  21.529 -0.0277  0.4651 -0.0525
77717W        W20811  16.335  24.214  21.005  0.0466 -0.0213 -0.4486
77718W        W20812  18.612  24.475  20.466 -0.0291 -0.0928  0.1061
77719W        W20813  16.927  25.230  18.774  0.0885 -0.2518  0.0977
77720W        W20814  19.414  25.879  23.598 -0.1050 -0.0099  0.1150
77721W        W20815  14.460  24.024  18.696  0.0753 -0.0771  0.0611
77722W        W20816  16.789  23.400  21.919 -0.2229 -0.0054 -0.0319
77723W        W20817  16.521  22.034  22.941  0.1698 -0.0076  0.1660
77724W        W20818  15.395  22.786  19.233  0.0077 -0.2081 -0.0999
77725W        W20819  17.321  23.339  22.016 -0.2280 -0.1493 -0.2907
77726W        W20820  17.476  25.470  21.038  0.4099  0.1739 -0.0509
77727W        W20821  18.011  25.341  20.297 -0.0199  0.0319  0.0052
77728W        W20822  15.859  26.173  21.754  0.0501 -0.2218  0.2124
77729W        W20823  16.218  24.332  21.551 -0.1148 -0.2203 -0.0106
77730W        W20824  13.732  22.914  24.561 -0.0871  0.0749 -0.3350
77731W        W20825  17.418  23.646  21.548  0.0783  0.1883 -0.1198
77732W        W20826  15.432  25.126  22.506  0.1465 -0.3516  0.1529
77733W        W20827  18.787  24.879  20.188 -0.0640  0.7031  0.2437
77734W        W20828  17.385  22.305  19.902  0.0525 -0.3792  0.1606
77735W        W20829  16.442  23.955  19.089  0.0973 -0.1920  0.0918
77736W        W20830  13.817  22.215  22.792 -0.1148 -0.0604  0.1349
77737W        W20831  14.883  25.183  23.721 -0.3564 -0.1312  0.0945
77738W        W20832  18.393  25.022  21.623  0.0170  0.0434  0.0533
77739W        W20833  15.909  22.995  20.789 -0.1368 -0.3307  0.1393
77740W        W20834  16.834  23.726  19.539 -0.2420  0.2536 -0.0824
77741W        W20835  16.157  23.474  20.459  0.0164 -0.0645 -0.1385
77742W        W20836  15.250  24.733  21.544 -0.1570  0.3833 -0.2261
77743W        W20837  15.719  23.155  21.253 -0.4106  0.1579  0.0232
77744W        W20838  18.338  23.322  21.564 -0.0597 -0.2191  0.1488
77745W        W20839  18.830  24.911  21.538  0.0577 -0.2984  0.2240
77746W        W20840  18.167  24.773  23.783  0.0117  0.3321 -0.0574
77747W        W20841  16.202  25.352  20.284 -0.0984  0.2865 -0.1067
77748W        W20842  18.506  24.146  19.536 -0.1347  0.1126  0.1874
77749W        W20843  17.260  25.928  22.232  0.2784 -0.0261 -0.1914
77750W        W20844  17.733  23.754  23.960  0.0166 -0.1788  0.1938
77751W        W20845  15.506  24.678  22.181  0.0561 -0.0370 -0.1912
77752W        W20846  19.416  23.863  23.314 -0.0291  0.1319 -0.1801
77753W        W20847  15.714  20.713  21.402 -0.1305  0.2910 -0.0315
77754W        W20848  15.314  24.837  20.347  0.1397 -0.3058 -0.2853
77755W        W20849  15.664  26.003  20.762 -0.0839  0.1117  0.1400
77756W        W20850  18.837  22.892  21.024  0.1538  0.0855 -0.3219
77757W        W20851  14.821  23.889  21.571 -0.2589 -0.1140 -0.0028
77758W        W20852  17.881  21.629  20.415  0.2268 -0.1038  0.0326
77759W        W20853  17.349  25.523  22.504  0.0444 -0.1358  0.4688
77760W        W20854  16.005  24.765  22.328  0.0328 -0.2309 -0.0730
77761W        W20855  16.020  24.755  27.169  0.0365  0.2301  0.0646
77762W        W20856  16.956  22.923  21.840  0.2614  0.0745 -0.2289
77763W        W20857  18.017  22.025  23.894  0.1442  0.3048  0.1522
77764W        W20858  18.626  22.865  23.443 -0.0482 -0.0904 -0.1920
77765W        W20859  15.607  24.215  25.497  0.1022 -0.0600  0.0527
77766W        W20860  17.237  25.482  25.474  0.1134  0.0359  0.0963
77767W        W20861  15.418  22.323  25.828  0.2621 -0.0972 -0.0628
77768W        W20862  17.566  25.831  25.803  0.0404 -0.3187 -0.1159
77769W        W20863  18.548  26.377  25.872  0.3608  0.1717 -0.1798
77770W        W20864  17.683  25.455  23.259  0.0700  0.3878 -0.0721
77771W        W20865  16.751  23.413  25.997  0.0669 -0.1460  0.0836
77772W        W20866  15.266  23.838  27.543 -0.0282  0.0562  0.0838
77773W        W20867  17.162  23.052  24.269  0.1991 -0.1090  0.0302
77774W        W20868  14.971  23.836  24.333 -0.0991 -0.0131  0.0449
77775W        W20869  16.151  22.804  24.573 -0.3264 -0.0056 -0.0249
77776W        W20870  16.199  23.724  24.556 -0.4214  0.1309  0.0398
77777W        W20871  15.475  21.411  24.305 -0.1553  0.1191  0.5722
77778W        W20872  16.866  22.396  22.734  0.1421 -0.3409 -0.1476
77779W        W20873  16.900  26.702  23.835 -0.2219  0.1226  0.1760
77780W        W20874  17.123  24.616  24.041 -0.2669  0.2450 -0.1749
77781W        W20875  18.568  22.112  25.798  0.2178 -0.2413 -0.1163
77782W        W20876  16.382  25.265  24.360  0.0411 -0.1701  0.2153
77783W        W20877  14.721  24.698  23.703 -0.0235 -0.3081 -0.2847
77784W        W20878  14.619  23.026  25.757 -0.0990  0.1963 -0.1339
77785W        W20879  15.998  22.876  25.043 -0.0301 -0.0194 -0.1911
77786W        W20880  19.034  22.438  25.769 -0.2075  0.2169  0.0137
77787W        W20881  17.618  24.982  23.486 -0.1841  0.1641 -0.0655
77788W        W20882  16.603  26.188  25.974 -0.1773 -0.0102  0.0165
77789W        W20883  17.118  24.907  25.498 -0.0703  0.3235  0.1104
77790W        W20884  16.254  22.937  27.290  0.1136 -0.1522 -0.1311
77791W        W20885  15.319  25.240  25.362 -0.1189  0.3440 -0.0541
77792W        W20886  15.577  26.882  26.396  0.3348 -0.2583 -0.0608
77793W        W20887  15.243  26.730  23.653  0.1032  0.3700 -0.3239
77794W        W20888  19.079  23.350  24.622 -0.0704 -0.2225  0.3750
77795W        W20889  17.470  25.131  24.629 -0.1470 -0.1692 -0.1566
77796W        W20890  16.826  24.510  27.011  0.3084  0.0750  0.0306
77797W        W20891  14.016  25.013  22.773  0.0007  0.0182 -0.2036
77798W        W20892  17.851  25.224  26.675  0.0188  0.0745  0.3915
77799W        W20893  17.041  25.008  27.102 -0.0573 -0.1189 -0.6363
77800W        W20894  16.563  24.293  24.263 -0.2398  0.6124 -0.1099
77801W        W20895  16.984  23.072  22.553 -0.1748 -0.0861  0.1638
77802W        W20896  16.077  25.599  23.876  0.3151  0.0535  0.0803
77803W        W20897  16.886  25.265  24.193  0.0653 -0.0337  0.0928
77804W        W20898  14.455  24.470  27.583  0.2195  0.3084  0.3279
77805W        W20899  15.706  24.591  25.806 -0.0191 -0.0048  0.0995
77806W        W20900  18.352  22.742  27.089  0.1878 -0.0729 -0.1196
77807W        W20901  15.072  25.369  24.210 -0.0925 -0.0798 -0.1101
77808W        W20902  17.550  22.242  24.264 -0.2900 -0.2492  0.0201
77809W        W20903  16.588  23.100  21.459 -0.2617  0.2516  0.1744
77810W        W20904  17.334  24.210  23.716  0.2300  0.0681  0.0139
77811W        W20905  16.272  21.983  23.751  0.1860 -0.1958 -0.1948
77812W        W20906  17.044  25.730  24.444 -0.0100 -0.0288 -0.2091
77813W        W20907  16.775  22.326  24.494  0.1923 -0.5325 -0.1070
77814W        W20908  18.644  24.933  27.061 -0.1518 -0.2408 -0.0050
77815W        W20909  15.945  22.689  22.167 -0.0353  0.0799 -0.1471
77816W        W20910  17.788  23.076  25.220 -0.0756  0.0508 -0.2291
77817W        W20911  15.724  25.074  25.602  0.0723  0.2179 -0.2044
77818W        W20912  15.370  23.941  24.785 -0.0995  0.0497  0.2319
77819W        W20913  17.580  25.489  23.754 -0.0464  0.0128  0.0461
77820W        W20914  18.989  23.836  24.767  0.2541  0.1205  0.1005
77821W        W20915  16.001  26.088  23.631 -0.2004  0.1908  0.3138
77822W        W20916  16.131  22.482  23.075  0.1718  0.1225 -0.0535
77823W        W20917  13.712  23.794  27.266 -0.0954 -0.2525 -0.0020
77824W        W20918  14.224  24.497  26.055 -0.3006  0.0261  0.3622
77825W        W20919  15.412  25.068  23.916  0.0633  0.1505 -0.2090
77826W        W20920  18.326  22.820  26.256  0.0078 -0.0569 -0.1999
77827W        W20921  13.410  24.371  26.781 -0.0690  0.1584 -0.0828
77828W        W20922  18.616  23.091  24.139  0.0858 -0.0691 -0.3293
77829W        W20923  17.489  24.501  24.564  0.2469  0.0638  0.0549
77830W        W20924  17.937  24.786  25.561 -0.1138  0.0987 -0.1400
77831W        W20925  17.050  23.545  22.422  0.2078 -0.0561  0.0749
77832W        W20926  18.967  22.333  26.668 -0.2398  0.1373  0.2853
77833W        W20927  18.705  21.138  24.823 -0.1796 -0.1983 -0.2433
77834W        W20928  14.742  24.769  23.146 -0.1365  0.1896  0.2005
77835W        W20929  16.866  23.399  24.496 -0.2700  0.1036 -0.3942
77836W        W20930  17.690  23.991  25.869 -0.0288  0.2516 -0.0308
77837W        W20931  18.150  23.858  23.695  0.1571  0.1365  0.0986
77838W        W20932  16.374  23.932  25.809 -0.1221 -0.0277  0.1718
77839W        W20933  16.854  22.253  26.081  0.2658  0.0944  0.1271
77840W        W20934  17.590  24.965  26.278 -0.1668 -0.2530  0.0395
77841W        W20935  16.235  27.029  24.240 -0.0175 -0.2394  0.0055
77842W        W20936  15.134  24.196  25.266  0.0222 -0.1383  0.1927
77843W        W20937  16.021  24.991  24.181  0.1604 -0.0506 -0.0520
77844W        W20938  13.642  22.279  25.061 -0.1924  0.1954 -0.0280
77845W        W20939  15.721  24.540  26.269 -0.2354  0.0791  0.0597
77846W        W20940  16.885  22.679  23.508 -0.0837  0.0214  0.1936
77847W        W20941  14.104  22.896  25.815  0.0661  0.0619 -0.0487
77848W        W20942  17.945  20.851  24.056  0.0487  0.1326 -0.1664
77849W        W20943  16.616  25.515  23.761 -0.0032  0.3409 -0.1424
77850W        W20944  16.846  25.267  25.807  0.2587  0.1732 -0.1011
77851W        W20945  18.760  23.020  22.010  0.2781  0.0387  0.0852
77852W        W20946  16.808  25.244  22.976  0.1792 -0.1568 -0.2850
77853W        W20947  15.207  24.979  25.764  0.2898 -0.1668  0.0276
77854W        W20948  14.649  22.423  24.648  0.0924 -0.1635 -0.1632
77855W        W20949  16.117  23.288  24.229 -0.0942  0.1353 -0.5074
77856W        W20950  14.945  23.649  25.364  0.1468  0.1694 -0.2616
77857W        W20951  17.734  23.498  25.691  0.1889 -0.0535 -0.0096
77858W        W20952  14.848  23.223  24.208  0.4248 -0.1194 -0.0517
77859W        W20953  17.826  23.028  24.662  0.0110 -0.1726 -0.4699
77860W        W20954  15.533  24.269  23.937 -0.0745 -0.0928  0.0095
77861W        W20955  14.752  24.679  25.388  0.1927 -0.0854  0.1974
77862W        W20956  18.316  21.870  26.300 -0.1435 -0.0184 -0.3039
77863W        W20957  16.553  25.464  22.065 -0.4706 -0.1746  0.0675
77864W        W20958  17.628  24.493  25.208  0.1037 -0.1866 -0.1580
77865W        W20959  17.294  24.474  26.228 -0.0648  0.0422 -0.0117
77866W        W20960  15.710  23.487  24.050  0.1305  0.0979  0.0608
77867W        W20961  16.023  23.519  23.280  0.0405 -0.3053 -0.1023
77868W        W20962  13.618  26.664  25.861 -0.2615  0.0166 -0.0711
77869W        W20963  16.462  24.667  24.645 -0.0493  0.2043  0.2175
77870W        W20964  16.085  22.023  23.227 -0.1194 -0.2863 -0.0169
77871W        W20965  17.268  25.436  26.027  0.0572  0.2695  0.1772
77872W        W20966  17.965  24.438  22.805  0.0960  0.2373  0.0691
77873W        W20967  15.478  23.758  25.287 -0.1532 -0.0914 -0.0985
77874W        W20968  18.289  21.853  25.373 -0.3051 -0.3336  0.2748
77875W        W20969  17.109  24.269  25.411  0.0007 -0.1028 -0.1001
77876W        W20970  18.299  23.223  25.407 -0.0531 -0.3057 -0.0027
77877W        W20971  15.970  23.903  24.028  0.3327 -0.0355 -0.1550
77878W        W20972  17.289  25.194  26.600  0.3221 -0.1647  0.1055
77879W        W20973  14.751  25.303  23.189 -0.0089  0.0908 -0.3060
77880W        W20974  14.018  25.221  24.137  0.2029 -0.2627 -0.0783
77881W        W20975  15.595  25.648  23.656  0.1108 -0.1859 -0.1510
77882W        W20976  18.550  22.602  25.797 -0.2183 -0.0720 -0.1219
77883W        W20977  15.539  23.425  27.532 -0.1165  0.0691  0.2336
77884W        W20978  16.647  22.083  25.519 -0.0540 -0.0096 -0.2096
77885W        W20979  14.521  24.203  23.842 -0.1456 -0.0724 -0.0750
77886W        W20980  15.351  25.111  26.693 -0.2207  0.0103  0.2238
77887W        W20981  20.165  21.026  23.200  0.1032 -0.3467 -0.1437
77888W        W20982  18.180  21.077  24.720 -0.0589 -0.1255 -0.0124
77889W        W20983  17.374  24.261  27.733  0.0379  0.1641  0.0855
77890W        W20984  17.249  24.726  24.986 -0.2269 -0.0820  0.0783
77891W        W20985  18.084  24.287  23.995  0.2156  0.1459  0.2634
77892W        W20986  18.270  22.431  23.489 -0.1604  0.0625  0.0627
77893W        W20987  14.872  25.929  27.830 -0.2420 -0.5382 -0.1867
77894W        W20988  16.590  25.741  24.196 -0.2714 -0.3027  0.1270
77895W        W20989  16.997  23.415  24.982 -0.1969 -0.0006 -0.1791
77896W        W20990  17.750  23.136  22.280  0.2030 -0.0268  0.1810
77897W        W20991  18.843  25.990  24.248  0.0517 -0.0100  0.1014
77898W        W20992  15.396  24.165  26.182  0.0640  0.1546 -0.1713
77899W        W20993  18.000  24.859  27.050 -0.0909  0.1367 -0.1163
77900W        W20994  17.790  25.652  25.157  0.5033 -0.2736  0.2701
77901W        W20995  17.574  22.722  24.094 -0.0018 -0.0776 -0.0860
77902W        W20996  15.758  24.728  21.383 -0.1964  0.0836 -0.2367
77903W        W20997  17.331  21.389  23.987 -0.0117 -0.0039  0.1504
77904W        W20998  14.320  26.168  23.671 -0.0845  0.1971 -0.0910
77905W        W20999  18.497  24.188  25.035  0.3143  0.1269 -0.0306
77906W        W21000  18.533  21.267  24.311 -0.1709 -0.0277  0.0765
77907W        W21001  17.305  22.958  23.751  0.0911  0.1732 -0.2176
77908W        W21002  17.725  21.846  25.420 -0.0900  0.1736  0.1616
77909W        W21003  17.464  24.181  22.848  0.2727  0.1753  0.0337
77910W        W21004  16.855  23.121  26.412  0.0017 -0.3598  0.1176
77911W        W21005  14.012  24.201  23.078 -0.2167  0.0402  0.3195
77912W        W21006  16.480  22.776  24.866 -0.0905 -0.0628  0.1993
77913W        W21007  15.210  23.835  25.812  0.2027 -0.0906  0.1148
77914W        W21008  14.476  26.125  26.479 -0.0033  0.3468 -0.1234
77915W        W21009  16.980  23.680  26.389 -0.0940 -0.3400  0.0263
77916W        W21010  16.777  24.366  25.019  0.0497 -0.4874 -0.5000
77917W        W21011  16.988  22.950  24.753 -0.0078  0.1076  0.3973
77918W        W21012  16.592  23.207  22.795 -0.1438  0.0112 -0.2129
77919W        W21013  16.207  25.733  23.353  0.0023  0.1495  0.0808
77920W        W21014  15.206  25.594  23.238 -0.2153 -0.2164 -0.1443
77921W        W21015  15.172  22.242  23.416 -0.0286  0.1875 -0.0837
77922W        W21016  15.927  24.895  26.715  0.0017 -0.1493  0.1345
77923W        W21017  16.210  25.327  22.894  0.1716 -0.4379 -0.2959
77924W        W21018  16.836  23.366  26.852 -0.2641 -0.2434  0.0197
77925W        W21019  15.670  25.432  24.147  0.2957  0.0704  0.1146
77926W        W21020  18.259  21.776  23.560 -0.0760  0.1630 -0.2184
77927W        W21021  16.204  25.701  25.192  0.0604 -0.0927  0.2279
77928W        W21022  15.247  23.221  25.493 -0.1685 -0.1451 -0.1770
77929W        W21023  14.539  25.193  24.294 -0.0301  0.1257 -0.1740
77930W        W21024  18.349  22.761  23.847 -0.0147  0.1044 -0.1439
77931W        W21025  16.630  25.966  22.214 -0.1987  0.0608 -0.1599
77932W        W21026  15.341  22.914  24.185  0.2190 -0.1556  0.2616
77933W        W21027  17.290  21.944  23.279  0.0087 -0.1706 -0.0237
77934W        W21028  15.452  25.461  25.760  0.4102  0.0708  0.1114
77935W        W21029  16.255  24.445  25.821 -0.1543  0.0786  0.4891
77936W        W21030  17.305  21.202  23.222 -0.1477  0.0514  0.2100
77937W        W21031  16.268  23.477  25.753 -0.3126  0.3011  0.2206
77938W        W21032  15.671  23.426  25.762  0.0107  0.0499 -0.3067
77939W        W21033  14.367  24.724  24.081  0.0757  0.1640 -0.4668
77940W        W21034  18.522  24.170  25.611  0.0987  0.3358 -0.0791
77941W        W21035  16.614  23.414  23.381 -0.1467  0.1173  0.1039
77942W        W21036  14.342  26.260  25.034  0.2733 -0.3257 -0.1121
77943W        W21037  16.604  26.476  25.095  0.0877 -0.0509  0.0849
77944W        W21038  16.940  24.069  24.044  0.5435 -0.0381 -0.0173
77945W        W21039  16.019  25.490  25.596  0.1608 -0.2045  0.1353
77946W        W21040  15.362  23.163  26.547 -0.1667  0.0105 -0.0470
77947W        W21041  19.001  24.505  25.996  0.2482 -0.0542 -0.0743
77948W        W21042  16.096  23.255  24.748  0.4113  0.0360  0.0503
77949W        W21043  15.965  22.795  22.640  0.0191  0.1864  0.2259
77950W        W21044  18.142  22.384  24.243  0.1463 -0.2043 -0.1413
77951W        W21045  16.556  24.954  26.132 -0.1995 -0.0183  0.1981
77952W        W21046  18.057  21.799  25.806 -0.1931 -0.1629  0.0098
77953W        W21047  15.651  24.000  26.956  0.1207  0.0235 -0.1063
77954W        W21048  15.817  22.816  24.103 -0.2252  0.1246 -0.2433
77955W        W21049  17.903  27.240  25.279 -0.0024 -0.0586  0.2988
77956W        W21050  16.759  23.068  27.257  0.0586 -0.2032  0.1434
77957W        W21051  16.218  23.070  23.086 -0.0186  0.2655 -0.0545
77958W        W21052  13.762  23.998  24.477 -0.3864 -0.0176 -0.0128
77959W        W21053  16.842  25.619  25.049 -0.0749 -0.1471 -0.1035
77960W        W21054  18.279  22.416  24.715  0.2132 -0.0261  0.2030
77961W        W21055  16.176  24.987  25.798  0.2252 -0.0697 -0.0395
77962W        W21056  15.906  24.107  24.539 -0.0617 -0.0551 -0.4082
77963W        W21057  15.857  24.063  26.444 -0.2117  0.2066 -0.0741
77964W        W21058  18.968  20.693  23.772  0.0563  0.2425 -0.1001
77965W        W21059  15.747  24.183  22.069 -0.4325 -0.0638  0.0928
77966W        W21060  16.469  22.349  23.463  0.2150 -0.0817  0.0646
77967W        W21061  19.262  22.348  26.210 -0.0417  0.0289  0.0728
77968W        W21062  16.893  23.974  23.429  0.2544 -0.1201  0.0334
77969W        W21063  17.920  21.437  25.172 -0.0350  0.1065 -0.3232
77970W        W21064  15.072  22.416  24.279 -0.3322 -0.1194  0.1392
77971W        W21065  17.102  24.857  24.444  0.0688  0.1022  0.0543
77972W        W21066  14.965  24.254  26.578 -0.1749  0.0261  0.2455
77973W        W21067  15.694  24.753  27.886 -0.0395  0.1888 -0.1253
77974W        W21068  13.871  24.262  27.015 -0.1124 -0.0413  0.0980
77975W        W21069  16.473  22.927  23.487 -0.0540 -0.0646  0.2368
77976W        W21070  15.648  23.091  23.270  0.4679 -0.1753  0.5143
77977W        W21071  15.908  23.606  26.641 -0.0664  0.0096 -0.1337
77978W        W21072  17.839  23.247  26.516 -0.3114  0.2531  0.0588
77979W        W21073  15.921  24.674  24.698 -0.1903 -0.0273  0.1488
77980W        W21074  17.634  23.039  25.921  0.0982 -0.1811 -0.0858
77981W        W21075  14.531  24.306  25.099 -0.1366  0.0055 -0.0188
77982W        W21076  18.901  24.428  24.864 -0.1565 -0.1220  0.1501
77983W        W21077  16.441  24.460  23.780 -0.1245  0.1114  0.0782
77984W        W21078  16.558  24.773  24.205 -0.1944  0.1004  0.0383
77985W        W21079  16.218  22.059  25.287  0.0129  0.0294  0.1336
77986W        W21080  16.801  24.889  25.131 -0.1093 -0.0983 -0.0921
77987W        W21081  18.865  23.082  24.999 -0.1674  0.1959 -0.0014
77988W        W21082  18.706  24.086  26.181  0.0711  0.0914  0.0253
77989W        W21083  17.411  23.385  26.880  0.2106  0.0220 -0.0276
77990W        W21084  14.621  22.176  25.125  0.2877 -0.2633 -0.0066
77991W        W21085  14.327  23.408  25.009 -0.0439 -0.0230 -0.1068
77992W        W21086  17.547  24.493  25.694  0.0567  0.1404 -0.2316
77993W        W21087  17.584  21.714  22.908 -0.0034 -0.0668 -0.0810
77994W        W21088  18.414  22.283  26.738 -0.0988  0.1595  0.3542
77995W        W21089  18.977  23.021  23.788  0.2842  0.0636 -0.2923
77996W        W21090  16.983  23.042  23.132  0.0017  0.2329 -0.2152
77997W        W21091  16.131  23.511  23.796  0.2069 -0.1887  0.1067
77998W        W21092  17.459  23.011  27.282  0.1533 -0.0090 -0.0077
77999W        W21093  16.614  22.748  22.999  0.2530 -0.0259  0.0017
78000W        W21094  17.877  22.575  25.128 -0.0834  0.4112 -0.2025
78001W        W21095  16.562  25.098  22.527  0.0799 -0.0678 -0.1059
78002W        W21096  16.766  25.290  24.690 -0.1417 -0.1880 -0.0602
78003W        W21097  18.224  23.922  24.726 -0.1849  0.0565 -0.0392
78004W        W21098  14.432  21.478  23.985 -0.0548  0.0114 -0.2479
78005W        W21099  16.393  25.631  26.596 -0.1358 -0.1903 -0.0912
78006W        W21100  14.534  22.420  24.164  0.0538 -0.2667  0.2342
78007W        W21101  15.627  23.859  22.586 -0.1119 -0.2008  0.2192
78008W        W21102  16.171  26.095  25.533  0.0987  0.1570 -0.1443
78009W        W21103  17.333  22.443  26.701 -0.1340  0.0235  0.1198
78010W        W21104  16.474  21.958  21.893  0.0681 -0.1679 -0.0133
78011W        W21105  18.413  23.657  26.274 -0.0062 -0.0451 -0.4764
78012W        W21106  15.421  25.175  23.385 -0.4592 -0.2016 -0.1596
78013W        W21107  17.414  21.756  24.348 -0.2363 -0.1188 -0.0468
78014W        W21108  14.896  25.561  25.739  0.0321  0.1276 -0.0502
78015W        W21109  15.047  24.349  28.285 -0.0083  0.2239  0.0311
78016W        W21110  16.285  26.636  24.576  0.0257 -0.1701  0.0898
78017W        W21111  19.020  21.495  25.665 -0.0625  0.1428 -0.1827
78018W        W21112  16.925  24.491  25.876 -0.1655 -0.0319  0.0254
78019W        W21113  16.803  23.397  23.842  0.2406 -0.1547  0.2961
78020W        W21114  18.953  22.971  25.577  0.4481  0.3291 -0.0144
78021W        W21115  16.223  25.152  26.438 -0.1248 -0.1961  0.4231
78022W        W21116  15.919  24.099  25.949  0.0239 -0.0572  0.0412
78023W        W21117  17.087  24.731  26.619 -0.1975  0.4150 -0.1622
78024W        W21118  16.327  24.098  24.926  0.0426  0.2143  0.2684
78025W        W21119  16.793  25.289  26.470 -0.0218  0.3196  0.1945
78026W        W21120  13.827  22.879  26.638  0.1523  0.0730 -0.1042
78027W        W21121  17.213  22.925  25.522 -0.4137  0.1781 -0.3176
78028W        W21122  16.957  24.389  24.524  0.5859 -0.0451  0.0976
78029W        W21123  15.404  21.576  23.808 -0.0655  0.0922  0.1453
78030W        W21124  16.119  24.857  23.270 -0.2907 -0.0415  0.0768
78031W        W21125  14.539  24.308  28.017  0.0402  0.2554  0.0140
78032W        W21126  14.729  23.885  26.263  0.3906  0.1373 -0.1109
78033W        W21127  15.249  26.293  25.357  0.3375  0.1704 -0.0442
78034W        W21128  18.296  25.571  25.410  0.1185  0.2383  0.2476
78035W        W21129  17.731  24.066  24.342 -0.1463  0.0257 -0.2579
78036W        W21130  15.838  25.622  24.808 -0.0866  0.3012 -0.3046
78037W        W21131  15.988  23.754  22.244 -0.1171  0.0971 -0.0018
78038W        W21132  15.772  24.614  25.300 -0.1647 -0.1552  0.4362
78039W        W21133  13.960  26.246  24.633 -0.2823  0.0808  0.2075
78040W        W21134  17.983  25.107  23.052  0.1401  0.3458 -0.3098
78041W        W21135  15.501  26.815  25.593  0.0003  0.1424  0.1363
78042W        W21136  18.257  23.800  25.303  0.0850 -0.0865  0.1609
78043W        W21137  19.821  21.978  22.951  0.2104 -0.0991 -0.0277
78044W        W21138  18.214  23.704  25.814  0.3506  0.2493 -0.0221
78045W        W21139  16.422  22.800  23.952  0.3127 -0.0439  0.1922
78046W        W21140  17.965  24.905  27.640 -0.3987 -0.0217  0.1680
78047W        W21141  16.504  23.661  24.121 -0.2328 -0.1522 -0.3522
78048W        W21142  16.996  22.060  22.187 -0.2436 -0.0163 -0.0041
78049W        W21143  15.456  22.875  25.142 -0.2428  0.2106  0.2680
78050W        W21144  18.216  21.355  26.625 -0.1207  0.1734 -0.1040
78051W        W21145  14.639  24.968  27.547 -0.3326 -0.0115 -0.0948
78052W        W21146  18.350  26.757  23.188 -0.0101  0.0292 -0.1538
78053W        W21147  15.658  24.693  24.270  0.0797 -0.3380 -0.1380
78054W        W21148  15.271  23.463  24.925  0.0788 -0.1403  0.3193
78055W        W21149  18.176  21.201  25.655  0.2563 -0.0757  0.1001
78056W        W21150  16.427  23.921  23.706 -0.0611 -0.0623 -0.1280
78057W        W21151  17.407  23.461  26.380  0.1560 -0.0226 -0.1830
78058W        W21152  15.673  25.963  24.059 -0.2469  0.1028  0.0384
78059W        W21153  16.433  23.788  25.326  0.0533  0.3232 -0.1703
78060W        W21154  14.904  26.265  26.613 -0.0648 -0.1409  0.0681
78061W        W21155  15.271  23.390  23.886  0.1156 -0.0210  0.4341
78062W        W21156  20.407  21.491  24.448 -0.2557 -0.1823  0.1741
78063W        W21157  15.757  23.322  25.100  0.1055  0.0832  0.0464
78064W        W21158  19.089  24.136  25.677  0.6511 -0.0454  0.1042
78065W        W21159  16.543  23.536  24.870  0.3205 -0.0639 -0.1933
78066W        W21160  18.236  22.970  24.960  0.1641  0.0423 -0.1285
78067W        W21161  17.000  24.206  26.551  0.2841  0.1959 -0.5280
78068W        W21162  13.762  22.372  24.559  0.0569  0.1262  0.0601
78069W        W21163  16.601  22.808  21.039 -0.3345 -0.1001  0.2024
78070W        W21164  18.560  23.234  25.863  0.1792  0.1871 -0.1281
78071W        W21165  17.109  23.775  22.917 -0.1798  0.4497  0.0575
78072W        W21166  16.640  24.873  27.788 -0.2735  0.1595  0.1588
78073W        W21167  16.302  22.424  22.614  0.0924  0.4642 -0.0559
78074W        W21168  17.375  23.256  24.698  0.1763  0.2498  0.2220
78075W        W21169  16.748  23.915  24.635  0.2359 -0.0407 -0.1689
78076W        W21170  15.733  22.540  25.541 -0.0550  0.1276 -0.1669
78077W        W21171  16.448  25.668  24.662  0.0952 -0.0408  0.0177
78078W        W21172  15.638  21.202  23.049  0.0869 -0.0187 -0.0095
78079W        W21173  18.111  25.214  23.511  0.0984  0.0469  0.0129
78080W        W21174  17.887  24.657  26.047  0.3848  0.0791  0.0576
78081W        W21175  15.476  25.532  22.734  0.0965 -0.2878  0.1298
78082W        W21176  17.468  23.700  25.023  0.0272 -0.4210  0.1111
78083W        W21177  17.732  25.441  26.178 -0.1854 -0.0084 -0.3555
78084W        W21178  14.718  23.604  25.851 -0.3642 -0.3254 -0.1137
78085W        W21179  16.522  24.822  26.668  0.1996  0.0677  0.1128
78086W        W21180  16.488  25.282  25.336  0.0275 -0.1187  0.1295
78087W        W21181  16.878  22.700  22.242  0.0207  0.0747 -0.3764
78088W        W21182  15.920  23.828  24.997 -0.1545 -0.1168  0.0717
78089W        W21183  15.948  25.046  25.140  0.1112 -0.0741  0.0180
78090W        W21184  18.835  23.438  25.401  0.1595 -0.2889 -0.2544
78091W        W21185  18.738  22.382  25.375 -0.1886  0.1028  0.0608
78092W        W21186  16.510  25.699  21.534 -0.4119 -0.2485 -0.4633
78093W        W21187  17.453  22.337  25.260  0.0727 -0.0682  0.2365
78094W        W21188  16.533  25.786  27.225  0.0916  0.2267 -0.0767
78095W        W21189  17.007  24.683  27.519 -0.0942 -0.1990  0.2471
78096W        W21190  14.531  25.082  22.821 -0.0184  0.0033  0.2305
78097W        W21191  16.213  24.638  26.304  0.0062 -0.3927 -0.0153
78098W        W21192  17.441  25.475  24.220  0.0604 -0.0145  0.1036
78099W        W21193  16.699  26.922  24.422 -0.0003 -0.2520 -0.1901
78100W        W21194  16.550  26.350  26.838  0.1930  0.0944 -0.1649
78101W        W21195  17.340  22.873  22.234 -0.0378  0.1917 -0.0251
78102W        W21196  18.097  24.586  25.107 -0.2561  0.1139  0.1060
78103W        W21197  17.374  22.205  22.889  0.0297  0.4545 -0.0362
78104W        W21198  19.288  20.792  23.006  0.0057 -0.1743  0.1671
78105W        W21199  17.628  21.571  23.389 -0.2563  0.0084  0.0208
78106W        W21200  16.971  23.882  25.097 -0.2499  0.0079 -0.0574
78107W        W21201  15.919  24.625  23.794  0.2653  0.1530  0.1915
78108W        W21202  14.711  24.250  24.388 -0.0744  0.1750 -0.0336
78109W        W21203  15.740  23.591  24.614 -0.2183 -0.1335  0.2343
78110W        W21204  17.524  21.845  26.668  0.0529  0.0048 -0.1077
78111W        W21205  14.357  23.256  26.648 -0.1506  0.1365 -0.0053
78112W        W21206  14.766  23.094  25.240  0.0226  0.0487 -0.1031
78113W        W21207  14.964  22.666  23.874 -0.0675 -0.1198 -0.0472
78114W        W21208  16.035  25.590  24.391 -0.2540 -0.0457  0.3331
78115W        W21209  15.907  21.373  23.714 -0.1941 -0.0530  0.0921
78116W        W21210  13.998  21.659  23.837  0.1834 -0.0308 -0.0427
78117W        W21211  17.266  25.117  23.856 -0.0385 -0.0640  0.0745
78118W        W21212  17.564  25.134  25.262  0.0665  0.0041  0.1654
78119W        W21213  17.162  23.452  23.400 -0.2120  0.1124 -0.0312
78120W        W21214  18.214  25.374  27.009 -0.2089  0.4678  0.0599
78121W        W21215  16.541  23.750  22.964 -0.0435  0.1074  0.3091
78122W        W21216  17.927  24.719  26.590  0.2534  0.0276  0.2366
78123W        W21217  16.952  22.524  25.691  0.2826  0.3855 -0.0995
78124W        W21218  14.020  24.729  23.218  0.2457 -0.2757  0.0319
78125W        W21219  15.350  22.956  23.691  0.0473  0.1079 -0.3793
78126W        W21220  15.801  25.424  23.189  0.0454 -0.1882 -0.0993
78127W        W21221  17.237  25.797  23.462  0.1329  0.1450 -0.3088
78128W        W21222  15.949  24.421  26.778  0.0467 -0.0944  0.0756
78129W        W21223  16.257  24.710  25.348 -0.1613  0.3240 -0.3154
78130W        W21224  15.541  22.589  23.417 -0.1524  0.1668  0.1973
78131W        W21225  17.252  23.779  24.534  0.0296  0.4426  0.1047
78132W        W21226  16.476  23.639  26.453 -0.1181 -0.0339 -0.0916
78133W        W21227  19.301  25.309  24.617 -0.0348  0.2608  0.1458
78134W        W21228  19.878  21.035  26.023  0.2297  0.0656  0.0699
78135W        W21229  17.788  24.985  23.964 -0.1961  0.1118  0.2011
78136W        W21230  15.269  22.364  25.319 -0.1561 -0.1655  0.0633
78137W        W21231  14.720  24.185  27.172  0.2653 -0.2260  0.0061
78138W        W21232  18.307  25.053  26.623 -0.2839 -0.2504 -0.4406
78139W        W21233  15.648  22.235  23.096 -0.3403  0.1395  0.1285
78140W        W21234  18.318  22.709  22.121 -0.2446 -0.0674 -0.0371
78141W        W21235  16.648  23.888  22.369 -0.2447 -0.2155 -0.1363
78142W        W21236  15.924  22.087  25.749 -0.1033  0.1123 -0.2031
78143W        W21237  17.528  23.822  23.514 -0.1776 -0.1281  0.0382
78144W        W21238  16.359  23.166  26.303  0.2632  0.0392  0.1218
78145W        W21239  16.666  24.798  25.632  0.2015  0.1958  0.2138
78146W        W21240  16.847  23.872  25.594  0.0615  0.1449 -0.2478
78147W        W21241  17.516  23.221  22.722 -0.1118 -0.1999 -0.1726
78148W        W21242  18.023  23.382  23.092 -0.1027 -0.2445  0.1627
78149W        W21243  17.449  25.012  27.436  0.1385  0.1721  0.0637
78150W        W21244  19.004  26.280  28.162  0.3395  0.0323  0.2950
78151W        W21245  16.288  25.477  26.041 -0.1000  0.0563  0.2704
78152W        W21246  18.528  22.825  25.332 -0.3004  0.2809 -0.3424
78153W        W21247  13.685  23.717  25.972 -0.1210  0.2008 -0.2931
78154W        W21248  15.831  23.056  25.494  0.2887 -0.3804 -0.3072
78155W        W21249  17.975  23.469  25.070  0.3282 -0.0480  0.0345
78156W        W21250  18.249  23.346  24.649  0.2389 -0.0372  0.0823
78157W        W21251  16.495  24.248  23.257  0.1345 -0.1764  0.1901
78158W        W21252  17.886  22.197  22.061 -0.0079  0.0759  0.2713
78159W        W21253  16.039  25.621  26.975 -0.2212  0.0459  0.0291
78160W        W21254  15.929  23.635  25.437  0.1838 -0.2385 -0.2638
78161W        W21255  16.707  22.961  28.870  0.0745  0.0207 -0.0238
78162W        W21256  16.969  22.612  26.401  0.2784  0.0827  0.2678
78163W        W21257  18.423  22.694  27.617  0.0620 -0.3387  0.1239
78164W        W21258  17.332  23.539  30.272  0.1150  0.1451 -0.0644
78165W        W21259  14.389  22.289  27.801 -0.0096 -0.0710 -0.4247
78166W        W21260  16.048  24.613  28.196 -0.0415 -0.1983 -0.2345
78167W        W21261  14.988  21.945  29.352 -0.2358 -0.0091  0.3268
78168W        W21262  16.197  23.391  28.136  0.1502 -0.1895 -0.3032
78169W        W21263  17.669  25.422  30.070 -0.0119 -0.1809 -0.0405
78170W        W21264  17.238  24.136  25.823  0.0284 -0.0238 -0.0511
78171W        W21265  16.210  22.387  30.689 -0.0591 -0.0149 -0.0738
78172W        W21266  16.007  23.275  27.616  0.1742  0.0484 -0.3163
78173W        W21267  15.854  22.141  26.619 -0.1006 -0.0339  0.0159
78174W        W21268  13.745  20.701  28.270  0.2759 -0.0429  0.1789
78175W        W21269  18.849  22.586  29.433  0.1434  0.0750 -0.0569
78176W        W21270  14.844  24.102  27.643 -0.3939 -0.0822 -0.3876
78177W        W21271  15.301  22.497  29.781  0.2532  0.0570 -0.1027
78178W        W21272  16.589  22.774  26.136  0.0353 -0.1256 -0.2444
78179W        W21273  17.301  24.245  28.264 -0.2107 -0.1050 -0.1696
78180W        W21274  17.127  21.650  29.013 -0.0636  0.2266  0.2067
78181W        W21275  17.181  21.189  31.723 -0.1330  0.1220  0.2921
78182W        W21276  16.671  24.018  27.088 -0.2153  0.1650 -0.1421
78183W        W21277  15.515  23.646  26.202 -0.2595 -0.0542  0.2122
78184W        W21278  14.844  23.607  29.598  0.0822 -0.1986 -0.0443
78185W        W21279  15.789  22.670  28.686  0.2072  0.1852  0.1611
78186W        W21280  19.458  22.623  29.722 -0.0184  0.0023  0.0664
78187W        W21281  19.945  22.432  30.032  0.0819  0.1720 -0.0608
78188W        W21282  15.814  24.434  28.696 -0.1927  0.0044  0.0124
78189W        W21283  16.685  24.289  28.925  0.0975 -0.1662 -0.4665
78190W        W21284  17.797  23.123  29.494  0.1645 -0.0802  0.1518
78191W        W21285  13.950  22.543  27.402 -0.0453 -0.0666 -0.2316
78192W        W21286  15.151  24.767  29.156  0.0238 -0.1912  0.0445
78193W        W21287  16.281  23.292  26.770  0.0404 -0.3803  0.1003
78194W        W21288  17.388  24.053  29.287  0.1792  0.3461  0.1293
78195W        W21289  16.059  23.923  29.485  0.1371  0.0599  0.1891
78196W        W21290  15.418  23.686  29.696  0.0510 -0.1783 -0.2981
78197W        W21291  15.605  23.304  28.040 -0.2319 -0.3223 -0.1454
78198W        W21292  17.913  26.590  30.836  0.2020  0.0263 -0.0989
78199W        W21293  16.001  22.857  30.645  0.1591 -0.1006 -0.0027
78200W        W21294  16.543  24.336  29.408  0.0158  0.0462 -0.0211
78201W        W21295  16.914  23.701  29.883  0.0697 -0.1514  0.0785
78202W        W21296  15.878  24.210  27.913  0.1623 -0.1441  0.1843
78203W        W21297  15.768  22.904  27.302 -0.2662 -0.1297  0.2376
78204W        W21298  15.806  23.494  29.974  0.4781  0.2181  0.2153
78205W        W21299  14.185  24.577  29.482 -0.3295 -0.0047 -0.2012
78206W        W21300  19.408  21.843  30.641  0.1255 -0.2319  0.0230
78207W        W21301  16.320  25.670  27.639  0.2624  0.2733 -0.2251
78208W        W21302  17.717  22.247  25.742 -0.0021  0.1340 -0.2603
78209W        W21303  15.682  22.351  24.940 -0.1751  0.0993 -0.2653
78210W        W21304  18.501  20.819  25.672  0.1332 -0.2405  0.0079
78211W        W21305  17.342  22.126  29.076 -0.3794  0.1472 -0.0524
78212W        W21306  16.221  24.121  28.502  0.1884 -0.1813  0.0470
78213W        W21307  17.475  21.752  28.605  0.0083  0.3735  0.0329
78214W        W21308  16.726  23.277  29.513 -0.0272 -0.1519 -0.1007
78215W        W21309  17.133  21.928  26.969  0.2705 -0.1706 -0.0797
78216W        W21310  17.346  22.870  29.722  0.2358  0.1939 -0.0117
78217W        W21311  15.317  25.471  29.898  0.3615  0.2155  0.2229
78218W        W21312  14.827  22.390  27.615 -0.1300 -0.0982  0.0734
78219W        W21313  17.213  24.903  28.908 -0.0438 -0.0091 -0.1252
78220W        W21314  17.889  24.577  30.203 -0.0852 -0.0436  0.1162
78221W        W21315  16.216  25.086  27.831  0.2056  0.0400 -0.1769
78222W        W21316  14.268  23.397  25.875 -0.2464 -0.0757 -0.0901
78223W        W21317  13.802  24.163  31.969  0.0681  0.0729  0.1312
78224W        W21318  14.247  22.705  30.053  0.1113 -0.0418  0.1837
78225W        W21319  17.079  21.892  25.294  0.1325 -0.0580  0.0713
78226W        W21320  18.538  25.074  31.800  0.1582 -0.0369  0.0368
78227W        W21321  15.786  23.368  30.746  0.1869  0.1407  0.1304
78228W        W21322  17.973  23.692  29.727  0.0501  0.0430  0.1933
78229W        W21323  15.341  22.500  27.290  0.2379 -0.2371  0.2133
78230W        W21324  16.869  25.154  29.493  0.0002 -0.0568 -0.1118
78231W        W21325  17.768  25.687  26.644  0.1904  0.1580 -0.0742
78232W        W21326  18.623  22.068  29.370  0.2154 -0.0566 -0.1979
78233W        W21327  17.638  22.595  28.184 -0.1593  0.2938 -0.2751
78234W        W21328  14.924  24.587  27.382 -0.3756  0.0113  0.0849
78235W        W21329  16.564  22.855  26.802 -0.1449 -0.1506 -0.3422
78236W        W21330  18.135  26.264  30.481 -0.0518 -0.0931 -0.0956
78237W        W21331  17.267  23.757  27.852 -0.0286  0.0018  0.0195
78238W        W21332  16.252  23.459  29.426 -0.0333 -0.1119  0.0429
78239W        W21333  15.789  21.610  28.792 -0.2108 -0.0574  0.1275
78240W        W21334  17.277  24.636  31.406 -0.4018 -0.0227 -0.1723
78241W        W21335  15.460  25.293  28.459 -0.0837  0.0196  0.0409
78242W        W21336  13.959  23.432  29.502 -0.0841  0.4459  0.0490
78243W        W21337  14.988  23.483  26.431 -0.0005 -0.0484 -0.0724
78244W        W21338  14.445  22.471  27.295 -0.0068  0.2206  0.1134
78245W        W21339  16.676  22.539  28.593 -0.1145  0.1947  0.0542
78246W        W21340  17.043  23.783  28.323  0.2857 -0.1580  0.3579
78247W        W21341  14.246  21.421  28.300  0.0511 -0.0582 -0.0373
78248W        W21342  18.422  23.216  28.582  0.1787  0.0159  0.1775
78249W        W21343  14.467  22.837  28.159  0.1248  0.1264  0.2872
78250W        W21344  17.494  25.499  28.376  0.1667  0.3584  0.0838
78251W        W21345  17.246  22.810  28.019 -0.0526 -0.2107  0.2502
78252W        W21346  17.849  24.418  27.579 -0.1185 -0.0289 -0.2144
78253W        W21347  13.622  23.287  30.476  0.0008 -0.1481  0.2685
78254W        W21348  16.053  23.609  26.165  0.4919  0.1239  0.1469
78255W        W21349  16.595  21.925  30.448  0.1532 -0.1990 -0.0422
78256W        W21350  14.818  21.391  27.853 -0.4343 -0.0482  0.1736
78257W        W21351  17.793  23.165  31.316 -0.0137  0.0789  0.1290
78258W        W21352  16.328  23.242  25.213 -0.1646 -0.0779 -0.0446
78259W        W21353  18.620  22.804  29.063 -0.2293  0.0786  0.1880
78260W        W21354  15.197  22.410  26.362  0.2702 -0.1900  0.1717
78261W        W21355  15.544  24.479  28.301  0.0535 -0.1701  0.2293
78262W        W21356  18.523  22.036  30.720  0.1467  0.1255  0.0555
78263W        W21357  14.775  25.734  29.246 -0.0951  0.3272  0.0873
78264W        W21358  18.273  24.118  31.735  0.0952 -0.1464  0.1141
78265W        W21359  16.485  25.145  28.872 -0.0155  0.1061  0.0687
78266W        W21360  16.048  21.810  28.417  0.1948  0.0865  0.0493
78267W        W21361  14.489  22.625  25.360  0.0427 -0.1285  0.3874
78268W        W21362  15.449  25.076  29.528  0.3805 -0.0581 -0.0382
78269W        W21363  15.349  23.857  29.069  0.3113 -0.0614  0.0535
78270W        W21364  16.368  21.686  24.818 -0.0692  0.0933 -0.0540
78271W        W21365  17.576  24.497  28.965  0.1445  0.1507  0.0779
78272W        W21366  16.822  23.758  27.587 -0.0764 -0.2078 -0.1640
78273W        W21367  15.624  23.125  28.914 -0.5470  0.3766  0.3903
78274W        W21368  17.510  22.220  30.315 -0.2311 -0.0509 -0.0158
78275W        W21369  17.846  22.917  30.267 -0.0785 -0.2100  0.0101
78276W        W21370  17.667  22.683  28.706  0.2175 -0.1790  0.2347
78277W        W21371  15.510  21.883  24.766  0.2803 -0.0715 -0.0720
78278W        W21372  16.990  24.126  29.653 -0.0496 -0.0229 -0.0407
78279W        W21373  15.813  23.970  27.462 -0.0010  0.1101  0.0956
78280W        W21374  14.104  22.410  26.885  0.2748 -0.1859 -0.1557
78281W        W21375  16.553  25.816  28.061  0.4327  0.2677 -0.0799
78282W        W21376  17.797  22.249  29.153  0.1163 -0.0391  0.1467
78283W        W21377  13.382  22.395  29.482  0.3505  0.1219  0.0467
78284W        W21378  16.297  22.535  29.742  0.1880 -0.0122 -0.0541
78285W        W21379  15.003  22.626  26.996  0.0331  0.4282 -0.0198
78286W        W21380  15.569  24.144  29.789  0.0005  0.0106 -0.1263
78287W        W21381  17.813  20.763  27.646 -0.2414 -0.0350 -0.1738
78288W        W21382  17.268  23.211  28.264  0.0346  0.2390  0.1190
78289W        W21383  17.147  22.167  29.946  0.1010  0.0147  0.4218
78290W        W21384  17.789  23.135  28.606 -0.1653 -0.0840 -0.0910
78291W        W21385  18.210  22.337  26.086 -0.2058 -0.2423  0.0611
78292W        W21386  16.874  22.400  26.833 -0.2392  0.1918  0.1309
78293W        W21387  15.040  25.281  30.313 -0.0176 -0.2255  0.1046
78294W        W21388  16.479  24.811  29.613  0.0178  0.0101  0.0546
78295W        W21389  15.300  22.839  27.628 -0.0544 -0.0223  0.3865
78296W        W21390  16.360  22.393  26.946 -0.2024  0.2018  0.2657
78297W        W21391  18.406  25.037  28.059 -0.1335  0.1695  0.0220
78298W        W21392  14.171  25.127  30.835  0.0179 -0.1223  0.2558
78299W        W21393  17.228  24.317  30.707 -0.4216  0.0786  0.0884
78300W        W21394  17.653  24.028  30.075 -0.1164 -0.1474 -0.0145
78301W        W21395  18.543  21.508  29.474  0.1575  0.0850 -0.1672
78302W        W21396  17.021  22.541  24.973 -0.2386  0.1263 -0.0221
78303W        W21397  18.502  21.391  28.427  0.1028 -0.2703 -0.1660
78304W        W21398  14.733  23.987  29.197  0.2392  0.1958 -0.3508
78305W        W21399  17.932  22.812  29.132 -0.0274  0.2792 -0.0228
78306W        W21400  18.328  22.750  30.234 -0.1090  0.0208 -0.0905
78307W        W21401  16.409  21.520  29.563  0.0716  0.0061  0.0912
78308W        W21402  17.387  22.844  31.851 -0.0440  0.1565  0.2843
78309W        W21403  17.030  23.232  29.122 -0.4689 -0.0220  0.3130
78310W        W21404  17.038  22.549  28.959 -0.1385 -0.0154  0.0604
78311W        W21405  15.496  22.884  25.790  0.1660  0.0333 -0.1303
78312W        W21406  17.867  21.437  28.668 -0.1553  0.0587  0.3119
78313W        W21407  16.141  23.141  28.992 -0.1822 -0.2081  0.0925
78314W        W21408  14.108  24.112  30.400  0.0821  0.0876 -0.1007
78315W        W21409  16.359  23.870  29.049 -0.1052  0.0614 -0.0242
78316W        W21410  16.460  23.451  27.726 -0.2964  0.3365  0.1027
78317W        W21411  16.303  21.633  30.177 -0.2918  0.0296  0.1631
78318W        W21412  17.647  22.690  25.545  0.0790 -0.1173  0.5228
78319W        W21413  15.890  24.987  28.714  0.1187 -0.2759 -0.2121
78320W        W21414  15.715  24.507  27.463  0.1797 -0.0952  0.1365
78321W        W21415  16.363  22.025  26.086 -0.1206  0.2038 -0.3409
78322W        W21416  14.955  23.024  28.993 -0.0186  0.2526 -0.0165
78323W        W21417  16.095  24.189  25.374  0.0892  0.1986  0.1146
78324W        W21418  16.308  23.566  29.893 -0.2067 -0.1852  0.0860
78325W        W21419  14.696  24.869  29.644 -0.0987 -0.0394 -0.0339
78326W        W21420  17.751  20.300  30.478 -0.3642  0.3182 -0.0443
78327W        W21421  14.434  24.735  30.025 -0.0077  0.1683  0.0831
78328W        W21422  15.416  23.529  26.960 -0.1495 -0.0521 -0.3880
78329W        W21423  14.458  23.344  27.155  0.0861 -0.1744  0.2696
78330W        W21424  18.552  22.217  28.522 -0.0718  0.0650 -0.0863
78331W        W21425  17.067  22.810  27.560  0.4102  0.0399  0.3088
78332W        W21426  15.113  21.859  27.860  0.1985 -0.2515  0.1552
78333W        W21427  16.959  21.816  29.471  0.0582 -0.1007  0.0432
78334W        W21428  14.124  24.995  29.815 -0.0420  0.1142 -0.2139
78335W        W21429  17.109  21.901  30.352 -0.3789  0.0366  0.3657
78336W        W21430  19.561  21.656  27.520 -0.0516  0.1360 -0.1293
78337W        W21431  17.141  23.996  30.221  0.2074 -0.1765  0.3386
78338W        W21432  16.577  23.943  30.151  0.0808 -0.2041  0.3741
78339W        W21433  13.550  21.519  26.046 -0.2961  0.0586 -0.1074
78340W        W21434  18.086  24.025  30.284  0.1150  0.1382  0.0427
78341W        W21435  14.393  22.420  28.464 -0.0409  0.2570 -0.2733
78342W        W21436  13.763  24.691  30.033 -0.1364 -0.0078  0.1590
78343W        W21437  16.299  24.812  29.173  0.0676 -0.1266 -0.1004
78344W        W21438  15.875  23.706  27.854  0.0878 -0.2620  0.0126
78345W        W21439  14.730  23.191  28.299 -0.3551 -0.1483  0.2112
78346W        W21440  14.769  22.570  29.937  0.0369  0.2581  0.2255
78347W        W21441  17.401  24.476  30.214  0.2432  0.4316  0.0713
78348W        W21442  17.226  22.886  28.665  0.0310 -0.2397  0.0636
78349W        W21443  14.624  23.238  26.183  0.0731  0.2581 -0.1715
78350W        W21444  18.164  22.748  28.110  0.2196 -0.0206 -0.0136
78351W        W21445  17.933  23.533  30.217  0.0526  0.1462 -0.0084
78352W        W21446  17.550  22.435  29.846  0.0032 -0.0300  0.4253
78353W        W21447  16.058  23.492  28.591  0.0136  0.0645 -0.0488
78354W        W21448  16.625  22.452  29.323  0.1526 -0.1549 -0.0258
78355W        W21449  17.789  24.346  28.445 -0.0040  0.1178 -0.2499
78356W        W21450  17.181  23.781  30.742 -0.2799  0.3947 -0.1648
78357W        W21451  15.801  23.155  26.859  0.0157 -0.1464 -0.2582
78358W        W21452  14.794  23.455  30.302 -0.3963  0.0704 -0.0250
78359W        W21453  15.390  23.907  28.038 -0.0907  0.1862  0.1098
78360W        W21454  17.403  22.279  28.572  0.0169 -0.2619  0.3280
78361W        W21455  16.094  22.986  29.826  0.1525  0.3609  0.0093
78362W        W21456  14.865  23.550  27.435 -0.1408 -0.2312  0.0121
78363W        W21457  15.767  23.115  30.260 -0.1258 -0.0147  0.0595
78364W        W21458  18.669  22.243  27.573 -0.3159 -0.2084  0.2361
78365W        W21459  16.534  24.851  27.253 -0.0855 -0.1199  0.0517
78366W        W21460  15.995  22.740  26.590  0.0797 -0.4479  0.2100
78367W        W21461  18.459  20.843  30.403 -0.0480 -0.0239  0.0560
78368W        W21462  16.765  24.073  26.091  0.0369 -0.1105  0.1241
78369W        W21463  16.573  21.465  31.236 -0.1388 -0.2359 -0.0570
78370W        W21464  15.246  21.135  28.191 -0.0924  0.1357 -0.1230
78371W        W21465  16.561  23.884  29.579  0.2297  0.3625  0.0727
78372W        W21466  13.714  21.833  29.003 -0.1501 -0.1210 -0.2848
78373W        W21467  16.956  24.854  31.675  0.1046 -0.1775 -0.0822
78374W        W21468  14.863  22.893  27.864  0.2113 -0.2100  0.3901
78375W        W21469  16.921  23.282  27.749  0.0695  0.0132  0.1368
78376W        W21470  14.164  22.294  24.965 -0.0868 -0.0407  0.1039
78377W        W21471  15.707  22.530  28.105 -0.2836 -0.1408 -0.1769
78378W        W21472  16.592  23.450  29.058  0.0186 -0.1771  0.2439
78379W        W21473  16.271  22.462  27.513 -0.1558  0.1432 -0.1892
78380W        W21474  17.959  24.422  29.336  0.3396  0.1295  0.1491
78381W        W21475  15.423  22.839  29.340  0.0401 -0.0570  0.2078
78382W        W21476  16.939  23.312  28.653  0.0149  0.1469 -0.1312
78383W        W21477  16.461  23.556  27.205 -0.0201 -0.1845  0.1574
78384W        W21478  15.292  24.888  28.168  0.1995  0.2511  0.1574
78385W        W21479  16.296  22.654  28.862  0.0764  0.1651  0.1606
78386W        W21480  17.040  22.364  28.264 -0.1165 -0.0408 -0.0391
78387W        W21481  17.368  23.474  28.764 -0.0678  0.0041 -0.2468
78388W        W21482  16.412  21.995  29.693 -0.0201 -0.1246  0.1506
78389W        W21483  18.221  21.938  30.224 -0.1703  0.5699 -0.1477
78390W        W21484  16.120  22.617  30.216 -0.0091 -0.0612  0.2740
78391W        W21485  15.621  21.673  30.236 -0.1302 -0.1157  0.0704
78392W        W21486  16.961  24.686  29.614  0.1565 -0.1302 -0.1057
78393W        W21487  17.046  23.017  25.940  0.1870  0.2766 -0.1837
78394W        W21488  18.383  23.372  30.463  0.2679  0.0479 -0.1057
78395W        W21489  17.634  23.635  28.300 -0.0763  0.1418  0.0309
78396W        W21490  16.802  23.376  25.491  0.0381 -0.1069  0.3692
78397W        W21491  15.762  21.588  27.143 -0.2409 -0.0388 -0.0479
78398W        W21492  15.829  23.055  28.400  0.0009  0.3263 -0.1609
78399W        W21493  16.629  22.139  25.039 -0.0566  0.2575  0.4073
78400W        W21494  17.733  24.287  30.619 -0.1926 -0.0128  0.0824
78401W        W21495  15.933  23.579  27.122 -0.1233 -0.0559 -0.3078
78402W        W21496  17.977  22.388  30.294  0.0318 -0.0541  0.0148
78403W        W21497  17.261  22.504  27.224 -0.1404  0.3201  0.0471
78404W        W21498  14.903  23.311  26.984 -0.2805 -0.0837  0.1465
78405W        W21499  14.858  26.611  30.498 -0.0331  0.0976 -0.1760
78406W        W21500  14.941  22.710  25.481 -0.1665 -0.0659  0.0554
78407W        W21501  16.079  22.889  25.967 -0.2423 -0.1888  0.0062
78408W        W21502  14.757  22.321  28.149  0.1041 -0.1366  0.0241
78409W        W21503  17.639  23.540  31.568 -0.1333 -0.0173 -0.1402
78410W        W21504  17.514  20.516  26.435  0.0116  0.0101  0.0547
78411W        W21505  17.985  24.116  31.305 -0.0642 -0.4119 -0.1439
78412W        W21506  15.339  24.380  27.152  0.0186  0.1107  0.0543
78413W        W21507  18.143  21.880  29.388 -0.1502 -0.1106 -0.0249
78414W        W21508  15.035  24.089  29.603  0.0559 -0.1472 -0.1616
78415W        W21509  15.231  25.408  30.785  0.1059 -0.3113 -0.1471
78416W        W21510  14.260  23.982  27.710 -0.4296 -0.1331 -0.1430
78417W        W21511  16.981  20.706  29.170 -0.1537 -0.1435 -0.0992
78418W        W21512  18.491  22.450  29.736  0.1343 -0.0947 -0.2296
78419W        W21513  16.574  22.049  28.366 -0.0450 -0.2124  0.1041
78420W        W21514  18.811  23.917  29.050 -0.1770 -0.4051  0.2177
78421W        W21515  16.824  23.504  30.394 -0.2544 -0.4088 -0.2242
78422W        W21516  15.876  23.980  28.835 -0.2268 -0.1538 -0.0943
78423W        W21517  16.629  24.398  29.866 -0.0689 -0.2580 -0.1403
78424W        W21518  16.803  24.021  30.590  0.0134 -0.1109  0.0648
78425W        W21519  14.401  23.468  29.836  0.0498 -0.2514  0.0943
78426W        W21520  14.078  21.758  29.391 -0.1137  0.0763  0.1690
78427W        W21521  16.935  21.771  30.815 -0.0423 -0.2858  0.1914
78428W        W21522  15.826  22.466  27.078  0.0060 -0.0426  0.0985
78429W        W21523  17.534  22.061  28.150 -0.2286 -0.1536  0.3231
78430W        W21524  16.440  24.337  26.738 -0.1851  0.2980 -0.1580
78431W        W21525  16.585  25.080  30.931  0.1348  0.1541 -0.0592
78432W        W21526  13.879  23.874  29.312 -0.3320 -0.0221 -0.3058
78433W        W21527  14.786  23.682  28.116 -0.2270  0.0878 -0.0646
78434W        W21528  17.435  24.322  26.808 -0.3715  0.2396 -0.1416
78435W        W21529  16.704  24.530  26.319  0.1044  0.3721 -0.0040
78436W        W21530  16.528  25.357  30.426 -0.0516  0.2660 -0.1986
78437W        W21531  16.795  22.925  25.187  0.3544 -0.1780 -0.0942
78438W        W21532  14.401  23.738  28.903  0.1268 -0.3889  0.2945
78439W        W21533  15.025  25.131  27.168  0.2624  0.3725 -0.3510
78440W        W21534  17.724  24.067  27.946  0.1540  0.0965  0.0616
78441W        W21535  15.673  24.234  29.167 -0.2059  0.2073 -0.1269
78442W        W21536  16.951  24.084  31.095 -0.2321  0.0440  0.3087
78443W        W21537  17.832  22.048  26.286  0.0863  0.1749 -0.1073
78444W        W21538  18.584  24.450  30.374  0.1127  0.1223  0.1634
78445W        W21539  18.260  23.797  29.338  0.0934 -0.0638 -0.0885
78446W        W21540  16.798  24.528  30.856  0.2390 -0.1327 -0.1847
78447W        W21541  14.956  21.582  28.390 -0.0268 -0.0565  0.3278
78448W        W21542  17.285  22.124  26.259  0.0541  0.5274 -0.2436
78449W        W21543  15.219  24.096  30.697 -0.0526 -0.1213 -0.0136
78450W        W21544  15.979  21.327  29.309 -0.1422 -0.0461 -0.1446
78451W        W21545  15.111  25.495  31.309  0.0264 -0.2888  0.3022
78452W        W21546  16.254  24.644  28.681 -0.1034  0.0496 -0.0958
78453W        W21547  14.832  22.807  28.550  0.0202  0.1609 -0.2705
78454W        W21548  16.103  22.308  28.414  0.1282  0.1249 -0.0349
78455W        W21549  18.430  23.367  30.957 -0.3126 -0.1925 -0.1227
78456W        W21550  14.099  23.998  26.659 -0.2631 -0.1834 -0.1249
78457W        W21551  16.738  22.387  29.780  0.1496 -0.3525  0.2364
78458W        W21552  16.294  25.053  28.368  0.3012 -0.0971 -0.3172
78459W        W21553  15.265  25.601  29.235 -0.2474  0.1666 -0.0895
78460W        W21554  15.112  24.475  29.897 -0.1194 -0.5696 -0.0048
78461W        W21555  13.990  22.572  25.473  0.1478  0.0489  0.0720
78462W        W21556  17.501  23.924  27.397  0.1450  0.5706  0.1802
78463W        W21557  14.606  22.210  29.265  0.0481  0.0318  0.0553
78464W        W21558  17.860  21.910  31.742  0.1383  0.2563 -0.1742
78465W        W21559  14.577  22.903  26.965 -0.0782  0.0363  0.2765
78466W        W21560  17.723  23.082  28.113 -0.2215 -0.0257 -0.1764
78467W        W21561  15.154  23.418  27.847 -0.0858 -0.0648  0.3003
78468W        W21562  15.410  21.954  28.977 -0.0409  0.1193 -0.0586
78469W        W21563  15.270  22.979  28.297  0.4635 -0.1278 -0.0712
78470W        W21564  17.674  24.513  31.023  0.1909  0.3369 -0.1491
78471W        W21565  18.136  22.875  25.746 -0.2661 -0.0702  0.0582
78472W        W21566  16.314  24.330  31.508  0.0910 -0.3413 -0.1586
78473W        W21567  15.305  23.049  27.141 -0.3939 -0.1256 -0.1145
78474W        W21568  17.623  21.723  25.968  0.1043 -0.0832 -0.3136
78475W        W21569  13.928  23.978  28.797  0.0837  0.1425 -0.3241
78476W        W21570  16.156  22.152  30.129 -0.1737 -0.0265  0.0541
78477W        W21571  17.614  23.227  29.948  0.1788 -0.0234  0.0450
78478W        W21572  14.217  23.021  29.161 -0.0006  0.1509 -0.0366
78479W        W21573  17.851  22.618  27.287 -0.4928  0.0298  0.1605
78480W        W21574  19.169  23.452  29.549  0.1043  0.0050 -0.2751
78481W        W21575  15.748  25.843  28.267 -0.0016 -0.0805  0.0758
78482W        W21576  17.500  23.084  29.030  0.0797 -0.2433  0.0089
78483W        W21577  15.764  24.704  29.145  0.0773 -0.0656  0.1352
78484W        W21578  15.537  21.674  28.276  0.1491  0.2551  0.0588
78485W        W21579  17.303  23.311  29.525  0.1561  0.0356  0.2040
78486W        W21580  16.403  24.156  31.042  0.2419 -0.2302  0.2293
78487W        W21581  17.238  22.373  27.841  0.1567 -0.0177 -0.5433
78488W        W21582  16.339  22.410  26.414  0.0012  0.0075 -0.0166
78489W        W21583  14.083  24.859  28.338 -0.0807 -0.2403 -0.1795
78490W        W21584  17.949  22.763  29.788  0.1785  0.1943 -0.0500
78491W        W21585  17.692  22.538  30.919  0.3904 -0.2816 -0.0312
78492W        W21586  17.052  25.561  27.105  0.0444 -0.3216 -0.2593
78493W        W21587  17.503  22.681  29.277 -0.0479  0.3139  0.2106
78494W        W21588  16.351  23.101  28.571  0.0484 -0.3182  0.1100
78495W        W21589  16.299  23.050  30.276  0.1050  0.2410  0.1270
78496W        W21590  15.113  23.963  27.066 -0.2271  0.0216 -0.1896
78497W        W21591  15.871  23.095  29.418  0.0679  0.1637 -0.3794
78498W        W21592  16.495  23.706  28.609 -0.2823 -0.2153  0.2948
78499W        W21593  15.752  25.113  27.603 -0.0131 -0.0002  0.0432
78500W        W21594  17.374  24.876  29.418  0.0353 -0.0937  0.0096
78501W        W21595  18.305  21.828  27.701  0.0204 -0.2788  0.0753
78502W        W21596  18.197  23.941  28.076 -0.0161 -0.1227  0.0119
78503W        W21597  16.680  22.415  27.835 -0.0669 -0.0345 -0.0546
78504W        W21598  18.237  21.535  28.067  0.0361  0.2273  0.2359
78505W        W21599  17.558  20.968  29.360 -0.3078  0.2042  0.0701
78506W        W21600  14.840  23.084  29.537  0.3788 -0.1547  0.3434
78507W        W21601  15.823  23.189  26.325  0.0167  0.0889 -0.2876
78508W        W21602  16.329  24.091  26.298 -0.1849 -0.1843 -0.1569
78509W        W21603  15.308  23.313  29.294  0.1618  0.0185 -0.2707
78510W        W21604  16.951  19.779  29.609  0.0632  0.2073 -0.0434
78511W        W21605  15.641  22.135  28.508 -0.1029 -0.1262  0.1326
78512W        W21606  14.432  23.483  29.309 -0.0824 -0.1963  0.2086
78513W        W21607  14.637  22.289  26.289 -0.3494 -0.2728 -0.0581
78514W        W21608  17.870  25.758  28.133  0.0912  0.2333 -0.0742
78515W        W21609  16.229  22.179  27.905  0.1503 -0.0039 -0.2496
78516W        W21610  14.398  22.847  27.597 -0.2292  0.2138 -0.1644
78517W        W21611  16.607  24.357  27.576 -0.0338 -0.0132  0.0679
78518W        W21612  17.665  25.192  28.758 -0.1209 -0.0062  0.0677
78519W        W21613  17.101  22.850  26.911  0.1372  0.3179  0.3274
78520W        W21614  17.799  23.977  31.755 -0.1339  0.1502 -0.4454
78521W        W21615  13.403  24.134  27.526  0.1959  0.4098  0.0144
78522W        W21616  16.361  22.147  28.792 -0.0510  0.2861  0.2497
78523W        W21617  16.655  20.605  29.996  0.1770  0.0266 -0.2873
78524W        W21618  14.074  22.333  26.005 -0.0890  0.0817  0.0371
78525W        W21619  15.753  22.018  27.928  0.1778  0.1649  0.0458
78526W        W21620  16.941  24.174  27.947  0.1566 -0.2916 -0.0051
78527W        W21621  16.214  23.913  26.808  0.1854 -0.0649  0.2528
78528W        W21622  15.400  24.479  29.493  0.0126 -0.1252  0.0093
78529W        W21623  17.233  23.949  31.519 -0.0986 -0.1350  0.0772
78530W        W21624  15.544  21.846  30.855 -0.2142 -0.0724 -0.0421
78531W        W21625  16.470  23.878  28.107 -0.3308 -0.2468 -0.1170
78532W        W21626  16.356  22.946  29.377  0.0082 -0.1107  0.1576
78533W        W21627  18.010  23.107  27.062 -0.2181 -0.3114 -0.1614
78534W        W21628  17.969  22.113  30.717  0.0515 -0.3145  0.0512
78535W        W21629  16.564  22.888  27.685  0.0024  0.0496  0.0694
78536W        W21630  15.985  22.644  29.254  0.0880  0.3641  0.2952
78537W        W21631  15.811  23.520  29.139 -0.2327  0.1788 -0.0340
78538W        W21632  17.673  23.617  29.288  0.1552 -0.0232 -0.0588
78539W        W21633  15.456  22.724  26.791 -0.1002  0.0858 -0.2156
78540W        W21634  15.722  22.468  27.606  0.2995  0.1028  0.0975
78541W        W21635  16.313  23.963  27.588 -0.3040  0.0926  0.0604
78542W        W21636  15.687  21.690  29.336  0.0906  0.2408  0.0959
78543W        W21637  17.325  22.175  24.756  0.3794 -0.0808 -0.0990
78544W        W21638  15.685  22.281  30.690  0.0508  0.2028  0.2133
78545W        W21639  15.774  23.942  28.329 -0.1146 -0.0311 -0.2880
78546W        W21640  16.881  22.795  31.635 -0.2809 -0.0771  0.2026
78547W        W21641  15.861  22.414  26.197 -0.1540  0.1701  0.2307
78548W        W21642  18.351  24.491  26.797  0.2035  0.0132 -0.4471
78549W        W21643  14.928  24.784  30.305 -0.4142 -0.1826  0.1505
78550W        W21644  19.177  25.190  31.179 -0.0710  0.2148 -0.4167
78551W        W21645  15.086  24.674  30.769 -0.2220  0.1518 -0.1567
78552W        W21646  18.136  22.735  28.656  0.2268 -0.1899  0.1640
78553W        W21647  14.381  21.157  27.790  0.1325 -0.2446  0.1632
78554W        W21648  16.787  24.239  28.413  0.0972 -0.2379  0.1119
78555W        W21649  15.811  22.896  27.844  0.2647 -0.1727  0.1143
78556W        W21650  18.137  21.222  30.236 -0.2818 -0.2851 -0.1545
78557W        W21651  15.549  22.049  27.414  0.0270  0.1289  0.3027
78558W        W21652  18.016  22.382  27.784 -0.0620  0.0510 -0.0089
78559W        W21653  16.037  24.050  30.038  0.0672 -0.0467  0.1785
78560W        W21654  16.699  23.365  28.233  0.2570 -0.2448  0.0738
78561W        W21655  18.334  20.695  31.280 -0.2002  0.2976 -0.2017
78562W        W21656  17.380  23.022  30.447 -0.2075 -0.2274 -0.3832
78563W        W21657  14.221  23.612  30.373 -0.1160 -0.1524  0.1165
78564W        W21658  15.101  25.015  29.880  0.1381  0.2894  0.3484
78565W        W21659  17.073  23.088  30.822  0.1041  0.2261 -0.1756
78566W        W21660  15.126  23.359  29.973  0.1906 -0.0799  0.1335
78567W        W21661  17.625  22.388  31.793 -0.2505 -0.2964  0.0388
78568W        W21662  16.910  22.252  31.396  0.0636 -0.1509  0.2288
78569W        W21663  17.016  20.881  30.419  0.0914 -0.0386 -0.0553
78570W        W21664  18.106  23.291   0.267  0.2126  0.3694 -0.1379
78571W        W21665  17.466  24.048  31.049  0.0438  0.2599 -0.1882
78572W        W21666  16.164  21.116  30.460 -0.0290 -0.1763 -0.0294
78573W        W21667  18.216  24.235  29.786  0.4196 -0.1781  0.2170
78574W        W21668  14.493  23.289  28.776  0.2122 -0.1808  0.1445
78575W        W21669  16.881  22.674  31.089  0.0728  0.3453 -0.3375
78576W        W21670  15.781  23.827  31.750 -0.1704 -0.1283  0.0634
78577W        W21671  14.416  22.870  31.633 -0.4950  0.1117 -0.1099
78578W        W21672  18.170  23.259  29.885 -0.1693  0.0610 -0.0762
78579W        W21673  13.796  22.197  30.006  0.1165  0.0606 -0.1630
78580W        W21674  15.562  22.619  30.246  0.1985 -0.0692  0.0420
78581W        W21675  16.561  21.070  28.388 -0.0908  0.0562 -0.3181
78582W        W21676  14.826  23.106  30.751 -0.3672  0.1253  0.3400
78583W        W21677  19.171  22.177  30.305  0.2999  0.1266  0.0145
78584W        W21678  17.827  22.094  28.699  0.0374 -0.1713 -0.0892
78585W        W21679  16.757  21.820  29.975  0.1071 -0.0359 -0.1617
78586W        W21680  16.924  22.835  29.424 -0.0249  0.0250 -0.0797
78587W        W21681  17.543  21.873  30.687  0.0821  0.1212  0.2570
78588W        W21682  15.320  23.619  31.908 -0.1021  0.0606  0.0935
78589W        W21683  16.639  22.901  29.826 -0.1361 -0.1412  0.2242
78590W        W21684  16.229  23.546  31.336 -0.2586 -0.0826 -0.2645
78591W        W21685  16.762  23.775  31.444 -0.0005  0.1147 -0.2532
78592W        W21686  15.147  22.468  30.466  0.3878  0.1629 -0.2320
78593W        W21687  17.293  23.117  31.313  0.0357 -0.0646  0.0650
78594W        W21688  17.156  22.224  30.940  0.2337 -0.1074 -0.1978
78595W        W21689  14.605  22.676  28.940 -0.0165 -0.1011  0.1998
78596W        W21690  16.625  22.405  30.296 -0.2706  0.1457  0.1099
78597W        W21691  15.114  22.918  30.161 -0.0309  0.2635 -0.2660
78598W        W21692  16.759  22.880  30.453  0.4490 -0.3075 -0.3358
78599W        W21693  17.907  22.426   0.343 -0.3039  0.0182  0.2361
78600W        W21694  16.050  22.630  31.130  0.1999 -0.0135 -0.3395
78601W        W21695  18.523  22.789  31.627  0.0777 -0.0609  0.2544
78602W        W21696  17.287  21.049  30.817  0.1044  0.2304  0.0379
78603W        W21697  16.133  21.308  28.301 -0.1442 -0.1349  0.1932
78604W        W21698  18.265  23.226  31.475  0.2668  0.0090  0.0370
78605W        W21699  15.540  23.163  29.771 -0.0556 -0.4789 -0.4412
78606W        W21700  17.681  23.754  30.615 -0.2361 -0.3081 -0.0274
78607W        W21701  18.193  21.563  29.860 -0.2233 -0.0662 -0.1549
78608W        W21702  18.124  24.583  31.320 -0.0544  0.2905 -0.1366
78609W        W21703  18.017  23.211  30.774  0.1178 -0.1022  0.2954
78610W        W21704  14.020  25.601   0.195  0.0693 -0.1196 -0.1431
78611W        W21705  17.318  24.447   0.438 -0.0652 -0.5006 -0.2696
78612W        W21706  17.230  20.426  30.626  0.0459  0.0580 -0.1211
78613W        W21707  15.696  22.048   0.101  0.0293 -0.0543 -0.0716
78614W        W21708  16.574  23.265  30.707  0.2560 -0.2405  0.2683
78615W        W21709  16.963  21.015   0.485  0.2669  0.0039 -0.0393
78616W        W21710  17.706  21.929  30.002 -0.3336  0.0032 -0.0415
78617W        W21711  18.206  25.522  31.221  0.1865  0.0428  0.1493
78618W        W21712  17.656  24.396   0.105  0.0461  0.0942  0.2111
78619W        W21713  16.201  23.744  30.889 -0.0900  0.0402  0.2374
78620W        W21714  14.319  23.001  30.752  0.1479  0.2374 -0.3618
78621W        W21715  15.552  22.643  30.988 -0.2622  0.0637  0.2240
78622W        W21716  14.937  23.553  29.099  0.0534 -0.2433  0.0664
78623W        W21717  15.169  25.012  31.085  0.0600 -0.5126 -0.2028
78624W        W21718  14.193  21.987  30.702  0.0256 -0.2616 -0.0673
78625W        W21719  15.816  25.301   0.498 -0.1579 -0.1666 -0.0133
78626W        W21720  18.145  24.762   1.234  0.0381 -0.1596 -0.1551
78627W        W21721  18.809  24.843  30.727 -0.1558 -0.3110 -0.1355
78628W        W21722  15.597  28.267  18.503  0.1862 -0.2630 -0.0305
78629W        W21723  14.595  26.843  17.696  0.0145 -0.1167 -0.0187
78630W        W21724  16.750  26.289  16.429 -0.1575 -0.0280 -0.1533
78631W        W21725  16.818  27.052  16.077 -0.2502  0.4801 -0.0105
78632W        W21726  14.235  25.641  17.906  0.4849  0.2133  0.0595
78633W        W21727  16.046  30.085  16.467 -0.4218 -0.0235 -0.0622
78634W        W21728  14.706  25.129  19.549 -0.1131  0.2471 -0.0640
78635W        W21729  15.589  28.718  17.689 -0.2523  0.0097  0.1808
78636W        W21730  16.953  28.284  19.140  0.1680  0.0029  0.0996
78637W        W21731  16.546  28.773  16.091 -0.2572 -0.1098 -0.1309
78638W        W21732  14.959  26.617  19.613 -0.3319  0.0680  0.0231
78639W        W21733  15.844  29.351  19.323  0.0672  0.1608  0.1417
78640W        W21734  13.754  25.690  17.726 -0.0466  0.1245  0.1674
78641W        W21735  14.190  25.941  18.395  0.0529  0.1398 -0.2760
78642W        W21736  16.102  27.129  17.315  0.1455  0.0036 -0.0944
78643W        W21737  15.084  28.319  16.708  0.1244 -0.2470 -0.2674
78644W        W21738  14.918  25.510  18.525 -0.3487  0.2247 -0.0443
78645W        W21739  15.723  27.415  16.930  0.2141 -0.1723  0.1492
78646W        W21740  15.986  29.568  16.332  0.1229 -0.1042 -0.2005
78647W        W21741  16.313  26.265  19.374  0.2583  0.0818  0.0817
78648W        W21742  17.846  27.012  18.918  0.0894 -0.1440 -0.1321
78649W        W21743  16.139  28.089  16.210  0.0860  0.0944  0.1303
78650W        W21744  15.286  27.390  16.215  0.2190 -0.2219  0.2040
78651W        W21745  16.186  28.039  17.484 -0.0187 -0.0001 -0.2025
78652W        W21746  15.967  26.305  18.858 -0.1186  0.0293 -0.0111
78653W        W21747  16.785  26.196  17.842  0.1456 -0.4051  0.1469
78654W        W21748  16.557  28.643  16.991 -0.0108  0.0284  0.0648
78655W        W21749  16.705  28.876  17.933  0.1186  0.2181  0.1341
78656W        W21750  17.422  28.862  17.423 -0.0834  0.1625  0.0686
78657W        W21751  16.920  27.037  20.921 -0.0305 -0.3902 -0.1113
78658W        W21752  14.522  28.199  17.902 -0.1415 -0.4669 -0.1909
78659W        W21753  12.646  29.136  17.540 -0.1825 -0.4814  0.0277
78660W        W21754  15.920  28.436  16.877 -0.1262  0.0819 -0.0427
78661W        W21755  17.323  28.099  16.575 -0.0236  0.1685  0.1485
78662W        W21756  17.962  28.796  19.758  0.0548  0.1269  0.0907
78663W        W21757  17.386  28.565  20.762 -0.2482  0.0360 -0.1130
78664W        W21758  14.664  29.818  16.568  0.0826  0.2137 -0.0562
78665W        W21759  17.764  28.668  18.862  0.0209 -0.0505 -0.4030
78666W        W21760  16.103  28.868  19.299 -0.0732  0.0817 -0.0173
78667W        W21761  17.544  27.027  17.741  0.1243 -0.0840  0.0774
78668W        W21762  14.154  28.234  18.308 -0.0156  0.1217 -0.4100
78669W        W21763  15.443  28.653  16.973  0.0646 -0.2445  0.2620
78670W        W21764  15.437  28.548  18.124 -0.0637 -0.1961  0.1146
78671W        W21765  16.107  27.637  20.331  0.1843 -0.2160 -0.0855
78672W        W21766  16.070  28.075  18.573  0.0621 -0.0395  0.1919
78673W        W21767  17.044  24.846  20.185  0.0772  0.2954 -0.2814
78674W        W21768  15.533  29.934  16.430 -0.0126  0.0507  0.0213
78675W        W21769  16.448  26.810  15.787  0.0836 -0.1341  0.1210
78676W        W21770  15.717  27.481  16.382 -0.0626 -0.0643  0.0894
78677W        W21771  18.211  25.822  16.803 -0.0887  0.2808  0.0406
78678W        W21772  15.735  26.170  17.365 -0.1879 -0.1146  0.0347
78679W        W21773  15.395  30.493  18.176  0.0401  0.0022  0.0506
78680W        W21774  14.126  26.028  19.832 -0.1201 -0.0933  0.0320
78681W        W21775  16.626  30.136  20.202 -0.0230 -0.0458 -0.1519
78682W        W21776  15.807  26.409  16.395  0.2031  0.0343 -0.2754
78683W        W21777  15.442  26.965  18.396  0.1358  0.3457  0.0027
78684W        W21778  15.187  29.994  17.741 -0.2023 -0.1070 -0.0315
78685W        W21779  14.304  27.093  18.412 -0.3884  0.1947 -0.2030
78686W        W21780  17.926  28.965  16.486 -0.1303 -0.1353 -0.1541
78687W        W21781  17.430  27.737  18.472 -0.0189  0.2342 -0.0104
78688W        W21782  16.655  27.317  16.472  0.2168  0.1004 -0.4523
78689W        W21783  14.235  27.344  15.695  0.0249 -0.0369 -0.1062
78690W        W21784  16.701  27.550  18.173 -0.1702 -0.0998  0.3355
78691W        W21785  15.008  27.635  19.874 -0.1271 -0.1384 -0.1848
78692W        W21786  13.318  27.488  15.493 -0.1085  0.0629  0.0699
78693W        W21787  16.837  27.821  19.909 -0.2511  0.0267  0.4023
78694W        W21788  14.470  27.877  19.800 -0.0583 -0.0876  0.1956
78695W        W21789  18.531  26.733  17.048  0.2612  0.0167  0.0364
78696W        W21790  15.174  27.300  18.846 -0.1648  0.1729 -0.0977
78697W        W21791  15.527  27.162  19.195 -0.3419 -0.1589 -0.0266
78698W        W21792  16.302  27.059  16.203  0.1969  0.0983  0.1896
78699W        W21793  16.179  25.840  18.849  0.1038 -0.2955  0.1259
78700W        W21794  17.201  25.893  16.961  0.2518  0.1072  0.1167
78701W        W21795  15.376  27.221  16.702  0.2017  0.0199  0.1095
78702W        W21796  15.210  27.861  16.308  0.2953 -0.2494 -0.1778
78703W        W21797  16.554  28.028  18.404  0.1083  0.1558 -0.2562
78704W        W21798  17.666  26.976  16.508 -0.0489 -0.0116  0.1704
78705W        W21799  14.332  27.218  17.863  0.0804  0.0124 -0.0906
78706W        W21800  17.020  27.119  17.686 -0.1053 -0.1720  0.0189
78707W        W21801  16.434  30.709  20.550 -0.0466 -0.0853  0.0432
78708W        W21802  13.981  29.239  16.586  0.3811  0.0215 -0.2653
78709W        W21803  15.729  28.447  19.376 -0.2502  0.1128 -0.1027
78710W        W21804  14.490  28.626  16.053 -0.0445  0.0764 -0.2336
78711W        W21805  14.121  24.905  18.652 -0.0007 -0.0208  0.0659
78712W        W21806  16.186  27.446  18.261  0.2925 -0.2345 -0.0874
78713W        W21807  17.033  27.001  16.634  0.1221 -0.0662  0.0230
78714W        W21808  14.904  26.434  18.809  0.2909  0.2226  0.2406
78715W        W21809  17.314  24.596  16.380 -0.0556 -0.2513 -0.1340
78716W        W21810  14.396  28.433  17.464  0.0071 -0.2831 -0.3018
78717W        W21811  17.176  28.052  17.442 -0.0164 -0.2876 -0.0181
78718W        W21812  16.436  26.154  18.498  0.0923  0.1413  0.0661
78719W        W21813  17.080  27.318  15.677 -0.0518 -0.0536 -0.1389
78720W        W21814  15.670  27.659  21.689 -0.1728 -0.0318 -0.0733
78721W        W21815  13.852  25.569  18.277  0.0305  0.0680  0.2709
78722W        W21816  16.569  26.711  20.000 -0.4310 -0.3698  0.0654
78723W        W21817  14.221  27.139  19.157 -0.1576  0.0119  0.0001
78724W        W21818  18.351  27.120  17.321 -0.0400 -0.1711  0.3531
78725W        W21819  14.112  25.899  16.004 -0.1223  0.0681 -0.1001
78726W        W21820  15.463  26.399  18.724  0.1994  0.0219  0.2406
78727W        W21821  16.546  27.018  16.938 -0.0722  0.0286  0.0724
78728W        W21822  14.120  27.709  16.911  0.3528 -0.2540 -0.3428
78729W        W21823  18.260  26.457  19.594 -0.2394  0.0926  0.0320
78730W        W21824  16.051  28.632  16.319 -0.1400 -0.2214  0.1757
78731W        W21825  17.412  29.140  19.158 -0.0252 -0.0384  0.2455
78732W        W21826  16.153  27.661  17.131  0.2087  0.3834  0.1861
78733W        W21827  15.079  27.018  19.298  0.2196 -0.2043  0.1071
78734W        W21828  15.570  26.681  18.027 -0.2133 -0.1284  0.2069
78735W        W21829  13.726  28.399  18.209 -0.2072 -0.2043  0.1860
78736W        W21830  15.076  27.773  17.702  0.2266 -0.1101  0.0445
78737W        W21831  14.978  25.647  15.850 -0.2305 -0.2627  0.1080
78738W        W21832  18.638  29.979  17.638 -0.2467  0.0528  0.1799
78739W        W21833  17.148  27.821  17.027  0.0204 -0.2666  0.0943
78740W        W21834  17.428  27.685  20.542 -0.1013 -0.1770 -0.0026
78741W        W21835  17.432  25.227  19.557  0.0885  0.0112  0.1229
78742W        W21836  18.910  27.856  17.805 -0.1210  0.2926 -0.0591
78743W        W21837  16.655  25.817  16.326  0.1854  0.2563 -0.0332
78744W        W21838  14.127  26.454  16.038  0.1136 -0.2687 -0.0563
78745W        W21839  16.173  29.107  17.460 -0.1603 -0.0233  0.2364
78746W        W21840  14.603  28.473  16.545  0.0390 -0.1081  0.3651
78747W        W21841  13.310  27.178  18.622  0.3070 -0.0577  0.1227
78748W        W21842  16.056  29.285  18.405  0.0276  0.0240  0.1990
78749W        W21843  17.683  27.496  18.052  0.1453  0.1440  0.3919
78750W        W21844  16.134  28.498  21.692  0.1357  0.3629  0.3563
78751W        W21845  16.242  27.121  20.199  0.0764 -0.2059 -0.0085
78752W        W21846  13.571  25.722  15.777 -0.0824 -0.0936  0.2676
78753W        W21847  14.545  29.844  19.413 -0.1001 -0.0988 -0.0269
78754W        W21848  17.259  26.683  17.971 -0.1757  0.2024  0.0613
78755W        W21849  17.562  26.439  16.580 -0.2610 -0.0903  0.0991
78756W        W21850  17.396  27.471  19.227  0.2195 -0.0558  0.1064
78757W        W21851  16.977  28.432  17.183  0.4139  0.1175  0.1284
78758W        W21852  15.464  25.908  15.969 -0.1051 -0.2670  0.4764
78759W        W21853  16.506  26.037  15.895  0.1778 -0.2632 -0.0410
78760W        W21854  14.800  27.762  20.620  0.3078  0.1857 -0.1927
78761W        W21855  15.827  28.250  17.755  0.0934 -0.2277  0.0323
78762W        W21856  15.886  26.292  17.860  0.1787 -0.1474  0.1002
78763W        W21857  16.352  25.557  15.890  0.2339 -0.4308 -0.3503
78764W        W21858  17.950  27.857  18.383  0.4270 -0.0728 -0.1534
78765W        W21859  15.929  28.467  18.848 -0.1710 -0.1588 -0.1698
78766W        W21860  17.746  28.301  19.763 -0.1654 -0.0525 -0.0781
78767W        W21861  16.255  28.442  15.885  0.1102 -0.1326  0.0041
78768W        W21862  16.468  26.706  19.352 -0.0305  0.0720 -0.0442
78769W        W21863  14.702  27.706  17.154 -0.1656  0.2706  0.0508
78770W        W21864  15.325  26.271  16.324 -0.0014  0.2178  0.0864
78771W        W21865  13.951  28.455  16.962 -0.1446  0.0469  0.1456
78772W        W21866  17.286  25.977  17.467 -0.1510 -0.0033  0.3444
78773W        W21867  14.911  26.259  17.954  0.2635  0.3505  0.0699
78774W        W21868  15.479  26.975  20.598  0.0237 -0.0831  0.0217
78775W        W21869  17.488  29.435  20.574 -0.0266 -0.0092  0.1280
78776W        W21870  17.181  27.439  18.069 -0.0199  0.2968 -0.2767
78777W        W21871  16.357  26.476  18.169 -0.0381 -0.0716 -0.4134
78778W        W21872  14.979  27.022  15.943  0.0990 -0.1141  0.2954
78779W        W21873  17.279  25.006  19.066 -0.1128  0.0206 -0.0334
78780W        W21874  15.436  26.783  19.584 -0.0362 -0.2230  0.2535
78781W        W21875  15.375  27.946  18.065 -0.1950 -0.1505  0.1326
78782W        W21876  16.105  26.769  17.703  0.1328  0.0628  0.0416
78783W        W21877  16.918  27.856  15.576  0.2643 -0.3724  0.0099
78784W        W21878  14.488  25.042  20.546 -0.0055  0.0499  0.0530
78785W        W21879  15.670  26.423  15.931 -0.2630  0.0079  0.0061
78786W        W21880  14.194  29.590  17.570 -0.0170  0.1977 -0.1120
78787W        W21881  14.701  28.810  17.550  0.1154  0.2666 -0.0909
78788W        W21882  15.085  26.523  18.376 -0.0273 -0.3639  0.2619
78789W        W21883  16.495  27.172  17.861  0.0359  0.2605  0.1743
78790W        W21884  16.686  27.866  17.327 -0.1002  0.1363  0.0675
78791W        W21885  15.942  26.537  19.557  0.1451 -0.1368 -0.1821
78792W        W21886  16.166  28.602  17.352 -0.0810 -0.2656 -0.0917
78793W        W21887  16.982  26.582  17.544  0.0993 -0.3298  0.0253
78794W        W21888  13.811  28.733  16.558  0.1314  0.1357  0.0395
78795W        W21889  14.353  26.804  16.282 -0.0402  0.0082  0.0635
78796W        W21890  15.365  26.403  17.134 -0.1266 -0.0818 -0.1546
78797W        W21891  17.248  25.107  16.490 -0.1687 -0.0883  0.0474
78798W        W21892  16.287  26.485  16.194 -0.0682  0.1141 -0.2889
78799W        W21893  15.786  27.709  18.036 -0.1230  0.0610 -0.1530
78800W        W21894  16.119  27.265  16.720  0.0065 -0.1423 -0.2790
78801W        W21895  12.761  28.673  17.831 -0.4494  0.0772 -0.0997
78802W        W21896  17.319  26.227  18.971 -0.1426  0.0344 -0.1669
78803W        W21897  15.597  25.276  17.787  0.1889 -0.3015  0.2235
78804W        W21898  16.630  27.896  19.056  0.0910  0.2816 -0.3893
78805W        W21899  16.540  28.190  20.924 -0.1155 -0.1356 -0.0058
78806W        W21900  13.365  25.889  16.166 -0.0947 -0.1580 -0.2503
78807W        W21901  17.023  26.667  19.046  0.0672  0.0104 -0.0271
78808W        W21902  14.552  27.974  18.472  0.1355  0.4241  0.1765
78809W        W21903  14.874  27.623  19.035  0.4829  0.0496 -0.3690
78810W        W21904  16.588  28.337  17.443 -0.1241 -0.1067 -0.1664
78811W        W21905  14.308  28.278  15.765  0.0477 -0.0580  0.0563
78812W        W21906  14.338  27.866  17.554 -0.1464 -0.0449  0.3503
78813W        W21907  15.753  25.764  18.504 -0.4627  0.2365 -0.1885
78814W        W21908  18.234  26.760  19.179  0.0214  0.0071  0.0534
78815W        W21909  14.595  26.694  19.266 -0.1157 -0.1468 -0.2614
78816W        W21910  14.557  26.590  16.677 -0.0995 -0.1804 -0.0216
78817W        W21911  15.108  26.795  17.931 -0.1781 -0.0068 -0.0497
78818W        W21912  16.960  27.713  16.559  0.1363  0.2737 -0.2361
78819W        W21913  17.005  26.996  18.267 -0.0064  0.3392  0.0746
78820W        W21914  14.291  27.520  18.739  0.1041 -0.0153  0.0116
78821W        W21915  16.964  26.682  19.629 -0.0810 -0.0562 -0.2068
78822W        W21916  17.608  28.347  17.592 -0.0544 -0.0808 -0.1442
78823W        W21917  15.680  27.776  19.650 -0.2811  0.2165 -0.1708
78824W        W21918  14.790  27.938  16.731  0.1932 -0.1384 -0.2393
78825W        W21919  15.144  27.979  18.692  0.0785  0.1262 -0.0438
78826W        W21920  14.791  27.288  17.597 -0.1836  0.3205 -0.2825
78827W        W21921  15.548  24.671  19.360 -0.2768 -0.1346  0.2413
78828W        W21922  16.308  28.200  17.051  0.2379  0.0846  0.0520
78829W        W21923  15.186  28.084  17.189  0.1786 -0.0865  0.2336
78830W        W21924  15.712  28.921  19.028 -0.1915  0.1395  0.1124
78831W        W21925  17.509  25.029  17.312  0.2128 -0.3711  0.0241
78832W        W21926  17.104  28.343  15.756  0.1385 -0.1349 -0.2621
78833W        W21927  15.376  26.334  17.754 -0.1134  0.0064  0.0491
78834W        W21928  18.150  26.616  18.217 -0.0513  0.0791  0.1684
78835W        W21929  17.287  26.122  17.906  0.0796  0.1474  0.0383
78836W        W21930  18.289  25.092  19.815 -0.0337 -0.2845  0.0330
78837W        W21931  15.096  26.011  18.493  0.2610  0.0859 -0.2224
78838W        W21932  18.726  28.935  17.689  0.0525 -0.0630 -0.2392
78839W        W21933  15.322  27.007  20.119 -0.2418  0.1725 -0.0397
78840W        W21934  15.492  30.906  19.714  0.0078 -0.0535 -0.0751
78841W        W21935  16.103  28.176  21.253  0.4949 -0.2271 -0.0377
78842W        W21936  15.761  26.947  16.434 -0.0242 -0.0865  0.3015
78843W        W21937  15.338  25.445  17.322 -0.3126 -0.2944  0.2429
78844W        W21938  16.441  26.612  18.781 -0.1746 -0.2820  0.1830
78845W        W21939  16.726  27.061  18.786  0.3162  0.1286  0.2371
78846W        W21940  15.254  28.336  16.228 -0.1638  0.0221 -0.1704
78847W        W21941  16.624  25.912  16.801 -0.1106  0.0599  0.1301
78848W        W21942  15.987  26.932  18.203 -0.1445  0.1052  0.0432
78849W        W21943  16.344  27.642  17.768 -0.0427  0.0513  0.5287
78850W        W21944  17.450  27.417  16.684 -0.1467 -0.2901 -0.0768
78851W        W21945  15.258  27.544  18.396  0.3876 -0.2071 -0.0179
78852W        W21946  17.074  26.009  19.705 -0.0177 -0.1713  0.1532
78853W        W21947  16.847  26.159  17.281  0.0041 -0.0204  0.0125
78854W        W21948  17.299  26.390  17.188 -0.0904  0.0739  0.1447
78855W        W21949  17.368  24.474  18.228 -0.5118 -0.1245 -0.0397
78856W        W21950  16.902  26.289  19.326 -0.0122  0.0223  0.0630
78857W        W21951  16.457  27.664  19.552  0.0739 -0.0258 -0.3167
78858W        W21952  13.932  25.561  18.796 -0.0730 -0.1528  0.1059
78859W        W21953  17.571  27.888  18.943  0.1582  0.0862  0.1110
78860W        W21954  17.689  25.895  16.602  0.0076  0.1932  0.1414
78861W        W21955  17.394  26.342  19.471  0.1418  0.0342 -0.1261
78862W        W21956  17.052  26.485  16.751 -0.2331  0.2553 -0.3528
78863W        W21957  16.198  26.199  16.659 -0.1889  0.4365 -0.2690
78864W        W21958  15.760  27.224  18.721  0.1244 -0.0754  0.1461
78865W        W21959  17.542  27.946  19.411  0.1389  0.1661  0.0600
78866W        W21960  15.279  25.288  15.954 -0.3649 -0.0919  0.2268
78867W        W21961  17.410  27.051  21.111  0.0025  0.2127  0.2958
78868W        W21962  14.967  28.784  16.316  0.1387 -0.1297 -0.1147
78869W        W21963  16.593  27.669  16.873  0.1713  0.3661  0.1809
78870W        W21964  16.861  25.909  18.234  0.2995  0.0607 -0.1454
78871W        W21965  14.058  26.430  17.048  0.1907  0.1120 -0.0764
78872W        W21966  15.051  27.967  20.242 -0.0981 -0.3740  0.1509
78873W        W21967  15.971  26.854  15.930 -0.0194  0.2626 -0.2004
78874W        W21968  14.952  27.504  16.753  0.1154  0.0148  0.1328
78875W        W21969  16.122  26.728  16.676 -0.1360 -0.2823 -0.0364
78876W        W21970  19.676  28.306  19.789 -0.3002 -0.2224  0.0741
78877W        W21971  16.224  25.920  15.470 -0.0066 -0.0302 -0.3262
78878W        W21972  18.369  27.591  19.601  0.2720 -0.0335  0.2668
78879W        W21973  13.757  28.057  16.732  0.1608  0.0183 -0.0110
78880W        W21974  15.135  25.441  17.747 -0.2219 -0.3924 -0.0046
78881W        W21975  15.688  30.036  18.337 -0.0955  0.0696 -0.0121
78882W        W21976  14.798  26.883  20.002 -0.3969 -0.1795  0.0891
78883W        W21977  15.772  27.935  17.037 -0.1612 -0.0114 -0.0016
78884W        W21978  16.939  27.521  19.058  0.0194 -0.1499  0.1391
78885W        W21979  15.952  25.597  17.964 -0.1563 -0.1377  0.3486
78886W        W21980  16.101  26.635  17.181  0.2066  0.1597 -0.1961
78887W        W21981  16.597  27.392  19.985  0.0450  0.0497  0.2983
78888W        W21982  16.287  28.527  17.827 -0.1323  0.0686  0.0659
78889W        W21983  13.749  27.393  18.631 -0.1221 -0.1654 -0.0113
78890W        W21984  16.497  28.665  19.688  0.0303 -0.0725  0.0997
78891W        W21985  17.060  29.078  17.665  0.1506 -0.2112 -0.0827
78892W        W21986  15.610  28.377  17.332  0.0810 -0.3282  0.0865
78893W        W21987  15.653  27.090  21.723  0.1664  0.3140  0.0532
78894W        W21988  15.497  27.621  18.972 -0.1493 -0.2568  0.0350
78895W        W21989  16.575  26.474  16.944  0.0760 -0.0382 -0.2432
78896W        W21990  14.549  26.711  17.195  0.2676  0.1578  0.1834
78897W        W21991  14.707  29.162  16.184  0.1090  0.1130 -0.1528
78898W        W21992  15.289  29.120  19.316  0.0808 -0.0329 -0.0650
78899W        W21993  16.068  27.629  18.851 -0.1288 -0.3427  0.3545
78900W        W21994  15.389  29.473  16.988 -0.0768  0.0610 -0.1999
78901W        W21995  16.794  28.162  16.836  0.0854 -0.1983  0.1812
78902W        W21996  15.390  29.146  15.595 -0.3298 -0.0405  0.4733
78903W        W21997  16.548  28.356  18.828  0.0490 -0.3297  0.3241
78904W        W21998  15.670  27.240  17.427  0.0937 -0.0686 -0.1191
78905W        W21999  15.226  27.061  17.553  0.0214 -0.1785  0.0224
78906W        W22000  14.298  28.871  16.470  0.4101 -0.1571  0.0022
78907W        W22001  16.541  29.123  16.990  0.0661  0.1472  0.0577
78908W        W22002  15.677  27.738  17.511  0.0559 -0.0065  0.2710
78909W        W22003  18.176  27.741  18.994 -0.0521  0.0915 -0.0031
78910W        W22004  16.784  26.460  15.976  0.1944  0.0824 -0.0988
78911W        W22005  17.253  27.145  18.871 -0.1637 -0.2998 -0.0712
78912W        W22006  18.747  26.871  17.770  0.2990 -0.1860 -0.0252
78913W        W22007  17.548  28.102  20.878  0.1826 -0.0745  0.0444
78914W        W22008  15.609  26.727  17.502  0.0507  0.4075  0.2001
78915W        W22009  15.854  25.668  15.652  0.3363  0.2632 -0.0758
78916W        W22010  17.215  28.995  20.900 -0.4172  0.1134  0.0991
78917W        W22011  17.799  26.462  20.378  0.3330 -0.0440 -0.2042
78918W        W22012  15.208  29.119  18.836 -0.1076  0.0939 -0.0400
78919W        W22013  16.374  28.367  16.574  0.0509  0.1299 -0.0254
78920W        W22014  14.214  26.738  17.979  0.2211 -0.0728 -0.1965
78921W        W22015  15.227  27.564  17.291 -0.1630  0.0373  0.0968
78922W        W22016  18.257  27.112  18.705  0.0897 -0.0941 -0.0014
78923W        W22017  14.500  29.290  16.707  0.2023 -0.2073  0.3055
78924W        W22018  16.287  26.041  17.973  0.0404  0.2424  0.1102
78925W        W22019  16.101  29.829  18.100  0.1156  0.2175  0.0386
78926W        W22020  14.429  28.597  18.623 -0.2166  0.0967  0.2666
78927W        W22021  15.276  29.109  18.262  0.2672 -0.3167 -0.2547
78928W        W22022  15.173  25.696  16.330 -0.0558  0.6236 -0.0820
78929W        W22023  16.736  26.755  17.916  0.1068 -0.0088 -0.1059
78930W        W22024  15.796  26.520  20.397 -0.0156  0.1866  0.0946
78931W        W22025  18.685  25.400  17.532  0.0894  0.1170 -0.1295
78932W        W22026  14.765  27.703  16.308 -0.0313 -0.1838  0.0716
78933W        W22027  16.828  24.836  16.526  0.0526 -0.0035 -0.3787
78934W        W22028  15.865  26.771  18.666  0.0741 -0.0622  0.3452
78935W        W22029  15.154  26.480  20.043  0.2385 -0.0913 -0.2082
78936W        W22030  15.737  25.912  16.501 -0.1734  0.0015  0.1776
78937W        W22031  18.702  27.548  19.130  0.2218  0.1795 -0.4699
78938W        W22032  15.587  26.147  15.528  0.1160 -0.1478  0.1942
78939W        W22033  17.071  28.649  19.997  0.0325 -0.2729 -0.0351
78940W        W22034  13.981  26.285  18.023 -0.1390 -0.0540  0.0187
78941W        W22035  16.571  25.297  17.672 -0.0749 -0.1054 -0.2341
78942W        W22036  13.842  26.905  18.514  0.1877  0.0137 -0.1395
78943W        W22037  17.207  25.709  19.201 -0.1710  0.1348  0.0779
78944W        W22038  17.159  29.267  20.239  0.0882 -0.2257  0.0201
78945W        W22039  13.490  26.252  17.787 -0.1744 -0.2380  0.5420
78946W        W22040  18.059  27.556  16.556 -0.1861  0.1360  0.1865
78947W        W22041  16.333  25.858  17.265  0.0269 -0.0731 -0.0883
78948W        W22042  15.380  29.073  16.739 -0.1142  0.0131  0.0442
78949W        W22043  17.059  27.325  17.039 -0.1222 -0.1003  0.0034
78950W        W22044  17.362  28.546  19.204  0.0573 -0.0805 -0.2264
78951W        W22045  14.461  26.681  18.657  0.2536 -0.0859 -0.1212
78952W        W22046  18.352  28.062  18.236 -0.2604 -0.1946  0.1340
78953W        W22047  17.011  28.481  18.573 -0.0856  0.0171 -0.4178
78954W        W22048  17.098  25.772  18.682  0.1242  0.0994 -0.0390
78955W        W22049  14.698  25.803  18.117  0.0453 -0.1403  0.3079
78956W        W22050  14.365  29.104  17.640 -0.1845 -0.1230 -0.0765
78957W        W22051  17.333  25.724  18.227 -0.1341  0.3696  0.1251
78958W        W22052  17.749  26.262  19.800  0.1394  0.0541  0.1033
78959W        W22053  15.404  28.682  15.891  0.2414  0.0705  0.2150
78960W        W22054  17.934  25.009  18.499 -0.2454  0.0421 -0.4636
78961W        W22055  18.389  28.990  19.462 -0.0997 -0.0069 -0.0828
78962W        W22056  16.308  30.154  20.644  0.1619 -0.1960  0.1119
78963W        W22057  14.597  27.672  18.018 -0.4579 -0.1632 -0.0178
78964W        W22058  17.105  27.955  18.772  0.1240  0.1399  0.2630
78965W        W22059  16.049  27.824  16.626  0.1349 -0.2037 -0.0044
78966W        W22060  15.201  29.020  17.784  0.0228  0.1697 -0.0630
78967W        W22061  16.174  28.860  16.793  0.1530  0.2503 -0.0674
78968W        W22062  15.273  26.902  17.074 -0.1391 -0.1916 -0.1411
78969W        W22063  17.129  28.528  16.671 -0.0134  0.0615  0.0043
78970W        W22064  15.781  26.356  16.873 -0.1410  0.0310 -0.0128
78971W        W22065  18.020  25.097  17.193  0.0789 -0.3969  0.0722
78972W        W22066  17.643  25.289  16.923 -0.0113 -0.0693 -0.0921
78973W        W22067  15.957  26.259  18.338  0.3194  0.2075  0.0449
78974W        W22068  14.591  27.244  16.150 -0.1069  0.0177 -0.0593
78975W        W22069  14.975  29.417  16.612 -0.0048  0.1496 -0.0657
78976W        W22070  15.918  28.437  18.175  0.1834 -0.1030  0.2636
78977W        W22071  15.567  26.629  21.837 -0.1629 -0.2571  0.2513
78978W        W22072  15.986  27.045  20.769  0.1509 -0.2604 -0.0335
78979W        W22073  16.289  28.726  18.383 -0.1856  0.0105  0.0484
78980W        W22074  14.136  26.780  17.402 -0.2203  0.1758  0.1572
78981W        W22075  17.595  29.084  16.167  0.1291 -0.2041  0.0063
78982W        W22076  15.104  25.636  16.837 -0.0105  0.0150 -0.1246
78983W        W22077  14.069  26.436  18.479  0.1414  0.0875  0.0964
78984W        W22078  16.514  27.847  16.366 -0.1323 -0.0614 -0.3409
78985W        W22079  16.920  26.806  15.538  0.0961 -0.1574 -0.1761
78986W        W22080  15.763  26.903  16.969  0.0330  0.0764  0.0065
78987W        W22081  17.857  28.408  20.596  0.0285  0.1486 -0.4341
78988W        W22082  14.366  28.154  16.866 -0.4828 -0.2815  0.0223
78989W        W22083  17.567  27.250  19.685 -0.2928 -0.0381 -0.1300
78990W        W22084  14.258  26.317  19.348 -0.2243 -0.3798  0.1436
78991W        W22085  14.467  26.229  16.234 -0.0437 -0.0112 -0.0639
78992W        W22086  16.481  27.333  19.150 -0.1480  0.1946  0.1844
78993W        W22087  16.711  28.053  17.835 -0.1952  0.0286 -0.1124
78994W        W22088  16.765  29.250  15.696  0.1466  0.0941  0.0599
78995W        W22089  15.697  29.407  18.824  0.0812 -0.0869  0.0178
78996W        W22090  16.251  29.553  18.951 -0.0060  0.2446  0.1471
78997W        W22091  14.618  25.742  19.523  0.4347 -0.3399 -0.0783
78998W        W22092  17.786  27.119  16.998  0.2098  0.0847 -0.1352
78999W        W22093  15.923  27.450  19.409  0.0364  0.2323  0.1059
79000W        W22094  17.865  28.425  16.736  0.0277 -0.1793  0.3032
79001W        W22095  18.213  26.559  18.707  0.0712  0.1448 -0.1839
79002W        W22096  15.636  27.850  16.035 -0.0907  0.0627  0.0858
79003W        W22097  14.448  26.939  20.428  0.0566  0.1713 -0.2204
79004W        W22098  15.242  26.851  18.899 -0.1690 -0.0699  0.1267
79005W        W22099  19.195  26.981  19.424 -0.0845  0.1978 -0.4436
79006W        W22100  12.516  24.224  18.510  0.1781  0.0527  0.0888
79007W        W22101  15.785  25.675  17.478  0.1418  0.0296  0.0710
79008W        W22102  15.714  28.354  16.064 -0.0431 -0.1408 -0.1177
79009W        W22103  15.338  28.670  18.705  0.0007 -0.0179 -0.1060
79010W        W22104  16.397  26.383  17.593 -0.3549 -0.0784 -0.2212
79011W        W22105  16.027  28.637  20.891  0.0034 -0.1990  0.2372
79012W        W22106  16.551  27.378  17.368  0.2032 -0.1487  0.0596
79013W        W22107  17.077  27.853  19.397  0.0520 -0.1216 -0.0974
79014W        W22108  12.988  27.088  15.018 -0.1388  0.0423 -0.1444
79015W        W22109  16.605  26.784  16.483 -0.0914 -0.1073  0.2718
79016W        W22110  17.645  29.680  21.549 -0.0816 -0.0301  0.0524
79017W        W22111  16.331  29.316  20.192 -0.2400 -0.0513  0.1829
79018W        W22112  15.919  29.856  19.115 -0.3968 -0.0525  0.0596
79019W        W22113  16.495  27.587  18.678  0.1887  0.6064 -0.3467
79020W        W22114  15.030  25.811  19.135 -0.1278  0.2933  0.0240
79021W        W22115  14.061  27.256  16.180  0.2882  0.1258 -0.0685
79022W        W22116  14.819  28.180  17.453 -0.0231 -0.0169 -0.0835
79023W        W22117  16.515  25.587  18.058 -0.3636  0.4484  0.1110
79024W        W22118  14.573  26.272  18.351  0.0621  0.0495  0.0174
79025W        W22119  17.879  25.712  17.146  0.0381 -0.0621 -0.0250
79026W        W22120  17.124  29.780  20.349  0.5859  0.0147  0.0620
79027W        W22121  17.236  27.367  16.210  0.3827  0.0687 -0.3493
79028W        W22122  16.315  27.123  22.770  0.0267 -0.0533  0.0897
79029W        W22123  15.453  26.500  21.351 -0.0620  0.0361 -0.0473
79030W        W22124  16.811  26.553  21.134 -0.0959 -0.2800 -0.0972
79031W        W22125  17.621  28.297  22.609 -0.1511 -0.1791  0.0001
79032W        W22126  13.824  27.065  22.135 -0.0014 -0.2288  0.2056
79033W        W22127  16.679  28.956  20.316 -0.2331  0.2222 -0.2639
79034W        W22128  14.045  24.159  22.076 -0.0025 -0.0696 -0.0389
79035W        W22129  19.028  25.968  22.858 -0.0729  0.1138 -0.1838
79036W        W22130  18.633  29.367  22.020  0.1924  0.1410  0.0077
79037W        W22131  15.889  29.163  21.106  0.0503  0.0479  0.1145
79038W        W22132  16.443  25.228  23.348 -0.1621  0.1387  0.0409
79039W        W22133  13.776  29.281  23.779  0.0662  0.1735 -0.0971
79040W        W22134  16.926  27.969  21.166 -0.0370 -0.3143 -0.0199
79041W        W22135  14.997  25.678  21.271 -0.1839 -0.1449  0.0458
79042W        W22136  17.980  27.158  23.053  0.1579 -0.2549  0.0754
79043W        W22137  15.737  27.268  20.289  0.1679  0.1779  0.0843
79044W        W22138  15.511  26.945  22.588 -0.0736 -0.1963 -0.1006
79045W        W22139  17.789  25.960  22.234  0.1345  0.2237 -0.1122
79046W        W22140  16.614  29.722  22.754  0.0245  0.1430  0.0607
79047W        W22141  15.815  27.356  23.009  0.2950 -0.0299  0.1813
79048W        W22142  16.500  25.950  22.814  0.4614 -0.0793 -0.1656
79049W        W22143  16.120  28.021  20.720  0.0907 -0.1088  0.0547
79050W        W22144  15.437  28.191  19.848 -0.0064  0.1877 -0.1736
79051W        W22145  13.785  27.469  22.453  0.2259 -0.2650 -0.1686
79052W        W22146  15.329  28.039  21.776 -0.3494 -0.0859  0.1146
79053W        W22147  16.554  24.671  21.770  0.0758 -0.5568 -0.0355
79054W        W22148  17.855  28.455  21.125  0.0881 -0.0995  0.1617
79055W        W22149  17.211  28.008  23.498  0.0315 -0.1104 -0.1136
79056W        W22150  16.244  27.774  23.133 -0.1031 -0.0113  0.1323
79057W        W22151  18.287  26.013  21.988  0.0970  0.1518  0.0708
79058W        W22152  13.971  27.941  21.936 -0.2469 -0.2366 -0.1710
79059W        W22153  15.242  28.263  21.134  0.1865 -0.0359  0.0338
79060W        W22154  16.555  27.268  21.840  0.0262 -0.1579  0.0472
79061W        W22155  19.422  28.015  22.783 -0.1642  0.0600  0.0608
79062W        W22156  17.322  29.221  22.838  0.1994  0.1074  0.1932
79063W        W22157  15.297  30.889  22.951 -0.0658  0.0652 -0.1076
79064W        W22158  14.935  28.289  21.653 -0.0611  0.0569  0.0371
79065W        W22159  16.480  28.555  23.748  0.0596 -0.4701  0.2137
79066W        W22160  14.628  28.868  23.591 -0.0703  0.0795  0.0501
79067W        W22161  17.484  26.850  21.652  0.0652  0.1926 -0.2812
79068W        W22162  15.905  27.318  22.536  0.0738 -0.0797  0.1474
79069W        W22163  16.190  29.604  22.455 -0.2662 -0.0067 -0.1374
79070W        W22164  17.088  28.200  21.619 -0.0477  0.1622  0.1507
79071W        W22165  15.237  27.686  24.649  0.0801  0.1118 -0.1017
79072W        W22166  13.289  28.954  21.605  0.2048  0.1231  0.2589
79073W        W22167  17.908  25.895  24.667  0.1381 -0.2311  0.0280
79074W        W22168  15.146  28.652  19.176  0.2517  0.1366 -0.1103
79075W        W22169  18.123  27.185  20.162 -0.1738  0.0161 -0.1333
79076W        W22170  15.865  25.965  20.316  0.0187  0.1828 -0.0478
79077W        W22171  17.683  27.435  20.972  0.0236  0.1001 -0.0878
79078W        W22172  17.179  26.789  22.156  0.2955  0.0319  0.1797
79079W        W22173  15.452  29.033  21.838  0.1530 -0.2295  0.0327
79080W        W22174  15.754  26.343  22.290  0.0614  0.0271 -0.1228
79081W        W22175  17.909  29.393  22.772 -0.3142 -0.0635 -0.2008
79082W        W22176  16.562  27.373  23.272 -0.0862 -0.1566  0.4021
79083W        W22177  18.912  26.926  22.038  0.1978 -0.1055 -0.1919
79084W        W22178  14.574  28.487  21.346 -0.0435 -0.0201  0.2165
79085W        W22179  14.615  26.432  22.276  0.0945 -0.1362 -0.0780
79086W        W22180  16.660  28.828  20.883  0.1665 -0.0522  0.2779
79087W        W22181  17.569  29.548  22.009  0.1494  0.2341  0.1373
79088W        W22182  15.444  28.222  19.013 -0.3759  0.1904 -0.3456
79089W        W22183  16.388  27.677  21.098 -0.0123  0.3252 -0.0661
79090W        W22184  15.526  27.981  22.814  0.1535 -0.0386  0.0165
79091W        W22185  15.089  26.660  23.191 -0.1082 -0.1780  0.1094
79092W        W22186  13.183  25.214  20.045  0.0536 -0.1661  0.0360
79093W        W22187  19.152  27.845  24.012 -0.0639 -0.0213 -0.3020
79094W        W22188  14.325  28.264  22.218 -0.1097  0.2347  0.0028
79095W        W22189  16.937  27.824  22.419  0.1449  0.0279  0.0108
79096W        W22190  16.554  27.205  21.273  0.1107 -0.2703  0.1908
79097W        W22191  16.801  27.921  23.022  0.2133 -0.0541 -0.0204
79098W        W22192  16.654  28.482  20.521 -0.1957 -0.1513  0.0371
79099W        W22193  19.600  26.882  22.562 -0.1263 -0.2340 -0.0536
79100W        W22194  16.729  24.215  21.435  0.2695  0.1754  0.0670
79101W        W22195  15.770  29.375  21.685  0.0894  0.0320  0.0332
79102W        W22196  17.034  28.655  21.825  0.2410  0.1545  0.0459
79103W        W22197  17.638  29.188  22.459  0.1844 -0.2208 -0.3431
79104W        W22198  18.109  27.323  21.381  0.3695  0.1844 -0.0291
79105W        W22199  13.738  29.178  21.074  0.1149  0.0651  0.0775
79106W        W22200  16.948  25.954  21.735 -0.0909 -0.0577 -0.0327
79107W        W22201  17.012  28.216  24.719  0.1699  0.0263  0.0844
79108W        W22202  15.203  29.768  20.293  0.1869  0.0576 -0.0308
79109W        W22203  12.500  28.954  20.549 -0.0336 -0.0633  0.1991
79110W        W22204  13.402  27.910  21.202  0.1096  0.0903 -0.2016
79111W        W22205  15.054  28.316  23.938 -0.0101  0.1488  0.0815
79112W        W22206  15.835  29.290  22.280 -0.0144 -0.0689 -0.1079
79113W        W22207  18.409  25.838  21.512  0.0171 -0.0113 -0.0921
79114W        W22208  15.226  26.540  22.410 -0.3026  0.1358 -0.1197
79115W        W22209  18.297  25.642  19.958  0.3468 -0.3698 -0.2700
79116W        W22210  15.029  29.032  20.320 -0.1022  0.0438  0.1288
79117W        W22211  16.952  29.510  20.730  0.3150 -0.0578  0.1695
79118W        W22212  18.468  27.631  21.576  0.3709  0.1294  0.0066
79119W        W22213  17.610  27.367  21.559 -0.1010 -0.2567 -0.1567
79120W        W22214  15.785  27.407  23.508 -0.2734  0.4054 -0.0050
79121W        W22215  15.062  26.909  21.496 -0.0722  0.1638 -0.4011
79122W        W22216  14.465  26.591  21.710 -0.5778  0.1418  0.2051
79123W        W22217  14.510  27.094  21.846 -0.0720 -0.1060  0.0317
79124W        W22218  18.230  26.709  21.964  0.0658  0.1562 -0.0128
79125W        W22219  13.448  24.829  20.240  0.0620  0.1472 -0.2363
79126W        W22220  17.614  26.415  22.051  0.0659 -0.2778  0.0656
79127W        W22221  15.944  26.595  21.500 -0.0879  0.0020 -0.1337
79128W        W22222  14.299  27.351  21.163 -0.2552  0.0077 -0.0386
79129W        W22223  19.643  25.914  22.272  0.1684  0.2813  0.1615
79130W        W22224  16.160  29.061  20.649 -0.1730 -0.1197 -0.0983
79131W        W22225  18.939  28.302  22.944  0.2009 -0.1866  0.1906
79132W        W22226  18.137  30.411  21.864  0.1746  0.1685  0.2397
79133W        W22227  15.920  26.777  22.960 -0.2376  0.2789  0.2131
79134W        W22228  15.947  27.433  21.088  0.3652 -0.2823 -0.4624
79135W        W22229  15.093  28.740  21.512 -0.1567 -0.1183  0.1148
79136W        W22230  16.208  28.009  21.952 -0.0329  0.0573 -0.1062
79137W        W22231  17.139  25.467  22.087  0.0187  0.3022 -0.4808
79138W        W22232  18.151  29.431  21.800  0.1026 -0.3574 -0.1039
79139W        W22233  18.802  26.917  20.797  0.0364  0.0971 -0.0314
79140W        W22234  14.485  27.391  23.896  0.0122 -0.0562  0.0135
79141W        W22235  17.274  25.573  21.583  0.3960 -0.0594  0.1210
79142W        W22236  18.551  27.766  22.458  0.0336 -0.3437 -0.2430
79143W        W22237  19.039  27.423  21.901  0.1386  0.2249 -0.1054
79144W        W22238  15.472  25.237  21.377 -0.2598 -0.1767 -0.3281
79145W        W22239  17.612  30.303  21.032 -0.0224 -0.1625 -0.1671
79146W        W22240  14.290  28.293  20.568 -0.1370 -0.0724 -0.2747
79147W        W22241  14.112  26.596  21.361 -0.1791  0.1229  0.1720
79148W        W22242  16.699  28.532  22.773  0.0487 -0.0071  0.4114
79149W        W22243  18.535  26.164  22.350  0.2377 -0.2702 -0.4542
79150W        W22244  15.195  26.738  24.150  0.1416 -0.2374  0.0343
79151W        W22245  16.158  26.478  22.015  0.0633 -0.0487  0.1091
79152W        W22246  16.374  27.978  20.077 -0.1507 -0.0978  0.3035
79153W        W22247  13.392  28.458  23.091 -0.1266  0.0774 -0.1513
79154W        W22248  16.262  25.042  22.009  0.2171  0.1540 -0.0176
79155W        W22249  18.224  26.224  20.060 -0.3174 -0.1588 -0.0329
79156W        W22250  17.026  27.198  21.854  0.0237  0.0752 -0.0019
79157W        W22251  16.985  28.396  22.363  0.1247 -0.2497  0.0283
79158W        W22252  17.144  27.530  20.949  0.0652 -0.3174 -0.0236
79159W        W22253  15.644  26.646  19.142  0.1269  0.1528 -0.1440
79160W        W22254  15.290  28.710  24.157  0.1080  0.0431 -0.0954
79161W        W22255  17.508  27.892  21.342  0.0554  0.2731  0.0985
79162W        W22256  16.931  28.928  22.989  0.0434 -0.0441  0.2480
79163W        W22257  17.139  25.625  20.687  0.1326 -0.1892  0.2438
79164W        W22258  18.437  26.820  19.901 -0.2000 -0.2040 -0.3605
79165W        W22259  14.156  27.382  22.979 -0.0581 -0.1193 -0.0064
79166W        W22260  15.408  28.564  22.744 -0.0801 -0.0314 -0.3364
79167W        W22261  15.390  27.436  22.664 -0.3469 -0.0146 -0.2206
79168W        W22262  17.552  25.921  22.807  0.1133 -0.1381  0.3246
79169W        W22263  15.629  26.433  19.943  0.0228 -0.1189 -0.0628
79170W        W22264  17.395  27.236  22.272  0.0339  0.0227 -0.0938
79171W        W22265  13.453  27.992  20.488  0.1110 -0.0790  0.0363
79172W        W22266  16.384  24.592  20.661 -0.0168 -0.1177 -0.2314
79173W        W22267  17.557  27.276  22.710  0.0625  0.0255  0.0118
79174W        W22268  16.544  24.571  22.347  0.1145  0.1497 -0.0479
79175W        W22269  16.644  26.065  23.792  0.2434 -0.2249  0.1185
79176W        W22270  17.833  28.045  20.188  0.1395 -0.0358  0.0592
79177W        W22271  18.541  28.444  21.733 -0.0785 -0.4716  0.3092
79178W        W22272  15.821  26.861  19.970 -0.0768  0.2741 -0.2011
79179W        W22273  17.325  25.160  23.051  0.2628 -0.0285 -0.2011
79180W        W22274  16.315  28.998  22.369  0.4065  0.2308 -0.3119
79181W        W22275  15.344  29.063  22.285 -0.0539 -0.0885 -0.0321
79182W        W22276  17.742  28.734  23.379  0.3031  0.1908  0.2392
79183W        W22277  16.798  27.672  21.896  0.1533  0.0474 -0.2479
79184W        W22278  16.090  27.160  21.488 -0.4698  0.0502  0.2641
79185W        W22279  16.796  26.519  20.626 -0.0492 -0.0283  0.2629
79186W        W22280  16.120  29.527  21.355 -0.1635 -0.2153 -0.4795
79187W        W22281  17.105  28.759  20.459 -0.2168  0.2010 -0.1215
79188W        W22282  14.963  26.531  21.211  0.0217 -0.0273 -0.3463
79189W        W22283  17.980  29.904  21.925 -0.1677  0.0239  0.0716
79190W        W22284  16.138  28.656  20.387 -0.3549 -0.0519  0.4066
79191W        W22285  16.808  27.297  22.286  0.1119 -0.0886 -0.1669
79192W        W22286  15.144  27.568  21.588  0.1311  0.1604 -0.0835
79193W        W22287  18.348  24.715  24.237 -0.0880  0.2548  0.1448
79194W        W22288  13.693  28.880  22.383 -0.0460  0.0135 -0.3489
79195W        W22289  17.646  26.471  21.382 -0.1176 -0.1797 -0.2263
79196W        W22290  14.361  27.155  19.852  0.1613 -0.1153  0.0344
79197W        W22291  18.036  24.666  21.643 -0.2894 -0.0888 -0.1896
79198W        W22292  18.104  27.842  21.195  0.0508  0.0388  0.0311
79199W        W22293  15.355  27.186  23.799 -0.2547  0.1742 -0.0594
79200W        W22294  17.161  26.400  21.510 -0.0390  0.0324 -0.0272
79201W        W22295  12.268  28.103  21.835 -0.0737 -0.2559  0.0695
79202W        W22296  17.011  26.919  21.425 -0.0905 -0.1699 -0.2484
79203W        W22297  16.149  26.417  20.065 -0.1263  0.0480  0.1414
79204W        W22298  16.314  28.771  23.050  0.2099  0.0524 -0.0209
79205W        W22299  16.687  26.891  22.088 -0.1037  0.1266 -0.0563
79206W        W22300  14.529  27.714  22.248  0.1336 -0.1856  0.0523
79207W        W22301  17.746  26.843  22.220  0.1813  0.0569 -0.1601
79208W        W22302  17.457  26.043  21.697  0.0411  0.0649  0.2004
79209W        W22303  14.830  28.197  22.222 -0.1614  0.0263  0.0059
79210W        W22304  14.931  29.166  21.766 -0.1975 -0.0119  0.0594
79211W        W22305  14.565  26.888  21.279  0.1420 -0.0995 -0.0285
79212W        W22306  14.294  26.808  22.249 -0.1951 -0.0199  0.1906
79213W        W22307  17.538  26.734  22.896  0.1977  0.1632  0.0502
79214W        W22308  19.364  26.653  22.914 -0.1307 -0.0007 -0.1307
79215W        W22309  15.782  27.819  22.183  0.3929  0.3906 -0.0137
79216W        W22310  16.298  27.138  22.298 -0.0801 -0.0516  0.0519
79217W        W22311  15.423  27.663  23.847 -0.0126  0.1895 -0.0201
79218W        W22312  17.283  28.034  23.973  0.1996  0.2786  0.1931
79219W        W22313  18.231  25.666  22.373 -0.1024 -0.0606 -0.2753
79220W        W22314  14.982  27.716  24.175  0.0068  0.1436  0.1442
79221W        W22315  17.306  25.105  21.774  0.0920 -0.0857  0.0121
79222W        W22316  17.760  29.222  21.525 -0.4098  0.0398  0.3280
79223W        W22317  17.750  27.884  23.699  0.0072  0.0113 -0.0152
79224W        W22318  16.949  27.508  21.420  0.0668  0.3937 -0.2930
79225W        W22319  14.346  27.804  21.390  0.0004  0.2068  0.0228
79226W        W22320  14.650  27.558  21.796  0.0110 -0.5107 -0.0379
79227W        W22321  18.852  27.078  21.278 -0.3757 -0.0447 -0.0035
79228W        W22322  14.966  29.012  22.725 -0.0669  0.0830  0.1152
79229W        W22323  14.302  27.837  20.887 -0.0007 -0.0386  0.4158
79230W        W22324  14.603  27.616  22.824  0.0162 -0.1871  0.1568
79231W        W22325  16.893  26.075  20.806 -0.0412  0.3741 -0.0535
79232W        W22326  18.320  28.551  20.554 -0.0138  0.3694 -0.2241
79233W        W22327  16.417  26.238  20.810 -0.1424 -0.1706 -0.0732
79234W        W22328  17.854  25.542  22.659  0.4622  0.2526 -0.1394
79235W        W22329  16.528  27.316  20.706  0.2111 -0.1259  0.3879
79236W        W22330  17.088  26.248  23.593 -0.0012  0.0511  0.0245
79237W        W22331  16.259  26.195  22.442 -0.0251  0.2558  0.1303
79238W        W22332  17.542  27.780  22.500  0.0742  0.0221  0.2337
79239W        W22333  14.394  26.821  23.635 -0.0815  0.2823 -0.0165
79240W        W22334  16.634  30.215  23.471 -0.2303 -0.0548  0.2057
79241W        W22335  15.328  26.853  24.616 -0.1979  0.0530  0.2568
79242W        W22336  17.306  26.139  20.589  0.1200  0.0958  0.1367
79243W        W22337  15.473  24.887  20.833 -0.3674  0.2161  0.4604
79244W        W22338  16.734  26.442  22.511  0.1596 -0.0076  0.0714
79245W        W22339  18.068  28.488  23.112  0.1809 -0.0110  0.2039
79246W        W22340  17.482  28.829  21.703  0.0584  0.1684  0.0551
79247W        W22341  18.183  29.077  20.863 -0.0037  0.1447 -0.1659
79248W        W22342  14.772  27.013  23.371 -0.0456 -0.1630  0.2643
79249W        W22343  18.096  27.308  20.651 -0.0352 -0.1138 -0.2794
79250W        W22344  17.412  28.578  21.313 -0.0177 -0.1243  0.0009
79251W        W22345  14.729  26.890  22.623  0.1698 -0.0612  0.2108
79252W        W22346  15.813  25.843  22.321 -0.3980 -0.1675  0.0048
79253W        W22347  17.681  28.870  22.821 -0.1199  0.0201  0.1591
79254W        W22348  18.354  25.857  21.024 -0.2303 -0.1190  0.1471
79255W        W22349  18.561  25.821  22.751  0.4585 -0.0930 -0.1100
79256W        W22350  17.040  26.514  22.913 -0.4290 -0.1297 -0.2181
79257W        W22351  17.432  26.239  23.226  0.0324  0.0467 -0.0938
79258W        W22352  14.645  26.582  24.090 -0.0121  0.1172 -0.4286
79259W        W22353  17.183  32.301  23.408 -0.3504  0.0784 -0.2681
79260W        W22354  16.970  26.335  22.085  0.2239  0.1750 -0.2016
79261W        W22355  20.438  26.085  22.780 -0.0613  0.0526  0.1730
79262W        W22356  19.186  27.661  22.345 -0.4019  0.2930 -0.1129
79263W        W22357  17.331  27.197  20.593  0.1464  0.0821  0.0986
79264W        W22358  16.179  26.691  22.517  0.0546  0.2550  0.0718
79265W        W22359  16.356  26.517  23.844 -0.1638 -0.2819 -0.0026
79266W        W22360  14.734  26.812  20.827 -0.0167  0.1848 -0.1921
79267W        W22361  18.091  26.064  22.730  0.0487 -0.0300  0.0583
79268W        W22362  17.812  29.026  22.016 -0.4157 -0.1781  0.1276
79269W        W22363  17.957  28.770  21.534 -0.0103  0.2712 -0.0245
79270W        W22364  17.654  26.198  20.957  0.1443 -0.0160  0.2486
79271W        W22365  14.109  28.251  19.842  0.0879 -0.1066  0.1121
79272W        W22366  13.625  27.557  21.880 -0.0251 -0.3050 -0.0282
79273W        W22367  12.949  26.533  18.816  0.2290  0.1263  0.3840
79274W        W22368  15.553  27.766  20.220 -0.0893 -0.4969  0.2291
79275W        W22369  18.008  27.139  21.884 -0.1379 -0.0298  0.2283
79276W        W22370  17.661  28.164  23.203  0.0915  0.0843  0.1318
79277W        W22371  16.163  25.955  19.767  0.0488 -0.1086 -0.0750
79278W        W22372  17.548  26.519  23.803  0.6351 -0.1144  0.1466
79279W        W22373  13.808  28.000  20.900  0.1859  0.3842  0.1280
79280W        W22374  16.928  24.862  22.123  0.2299  0.3285 -0.0866
79281W        W22375  14.352  28.390  23.414  0.0632  0.0166  0.2778
79282W        W22376  15.082  27.653  22.977 -0.0835 -0.0128  0.1449
79283W        W22377  15.337  29.528  21.754 -0.1913 -0.1679 -0.1125
79284W        W22378  18.113  23.819  21.702 -0.1761 -0.0157  0.1270
79285W        W22379  17.184  26.939  22.670  0.0992  0.1963  0.1006
79286W        W22380  16.997  29.413  22.451  0.1338  0.1136  0.0849
79287W        W22381  18.866  28.050  23.369  0.0087 -0.2039 -0.1497
79288W        W22382  15.699  27.829  23.260 -0.0033  0.0197  0.0487
79289W        W22383  14.975  28.449  22.615 -0.0138  0.1556  0.0468
79290W        W22384  16.280  30.022  23.126 -0.0130  0.0360  0.3142
79291W        W22385  18.533  26.270  21.337 -0.0615 -0.5728  0.0648
79292W        W22386  15.060  27.200  22.029  0.1138  0.3023  0.0916
79293W        W22387  15.627  25.968  23.197 -0.0813  0.2394 -0.0963
79294W        W22388  18.169  27.708  23.993 -0.1001 -0.0579  0.2318
79295W        W22389  18.082  26.388  21.145  0.0053 -0.0147 -0.1748
79296W        W22390  15.449  26.433  20.814  0.0841 -0.0709  0.1415
79297W        W22391  16.740  28.296  20.099  0.4060  0.2768 -0.1260
79298W        W22392  13.871  28.333  23.613  0.0407  0.0076 -0.3253
79299W        W22393  15.277  27.414  23.359 -0.2608 -0.0980  0.0694
79300W        W22394  14.762  28.225  20.856  0.0478 -0.3755 -0.3007
79301W        W22395  17.261  29.269  21.666  0.0372 -0.0098 -0.2157
79302W        W22396  16.717  28.181  21.941 -0.3320  0.3136  0.2659
79303W        W22397  18.004  29.537  22.324 -0.0613 -0.4859  0.2256
79304W        W22398  15.363  25.686  20.246 -0.1737 -0.0888  0.1121
79305W        W22399  14.087  27.806  22.649  0.1038 -0.2655  0.2615
79306W        W22400  14.198  28.493  21.677  0.2402  0.0663 -0.1356
79307W        W22401  17.299  29.285  19.708 -0.0314  0.1663 -0.0669
79308W        W22402  14.585  28.095  22.665 -0.2733 -0.1433  0.0382
79309W        W22403  18.310  28.066  23.542 -0.2552 -0.4521 -0.1075
79310W        W22404  17.691  24.182  18.490 -0.1774 -0.0028  0.2085
79311W        W22405  20.356  28.066  21.872  0.0017  0.2138 -0.1559
79312W        W22406  18.301  27.532  22.062 -0.1638  0.1562 -0.1585
79313W        W22407  15.864  28.751  22.889 -0.1013 -0.1048  0.1077
79314W        W22408  18.624  26.459  21.845  0.0396 -0.0969 -0.0965
79315W        W22409  16.203  25.789  21.115  0.0920 -0.3219  0.0295
79316W        W22410  17.089  27.643  23.745  0.2065 -0.0160 -0.0189
79317W        W22411  19.216  25.590  23.164  0.2639  0.1057 -0.0427
79318W        W22412  14.045  27.328  24.384  0.2291 -0.2611  0.0752
79319W        W22413  17.750  28.943  21.032 -0.0915  0.2418 -0.1206
79320W        W22414  14.829  27.308  21.238 -0.2397 -0.1245 -0.0484
79321W        W22415  16.024  27.375  21.934 -0.2594  0.0378  0.0290
79322W        W22416  18.474  24.632  21.878  0.0856  0.0698 -0.2244
79323W        W22417  15.862  27.962  19.216 -0.1536 -0.3541  0.0509
79324W        W22418  15.856  26.125  21.238  0.0883  0.1787  0.2607
79325W        W22419  15.817  28.841  21.555 -0.1036 -0.0365  0.0080
79326W        W22420  15.078  27.081  22.951 -0.2405 -0.1471  0.0364
79327W        W22421  14.935  28.488  23.493  0.0841 -0.0674 -0.0462
79328W        W22422  14.257  25.312  20.856 -0.1205  0.3860 -0.4055
79329W        W22423  17.859  25.770  21.177 -0.1486 -0.2914  0.0166
79330W        W22424  16.345  27.647  22.233  0.0215 -0.1308  0.2874
79331W        W22425  19.922  25.983  23.124 -0.0976 -0.0219 -0.0909
79332W        W22426  15.858  26.910  22.180 -0.0448  0.0723  0.1616
79333W        W22427  18.212  25.173  22.164 -0.1561 -0.1473 -0.0893
79334W        W22428  17.302  27.718  21.785 -0.1026 -0.1360  0.1746
79335W        W22429  16.895  27.169  23.589  0.2025  0.3421  0.3103
79336W        W22430  16.378  26.791  21.041  0.1050  0.0190  0.0721
79337W        W22431  18.048  27.816  23.100  0.2687 -0.2194  0.2585
79338W        W22432  16.867  27.299  19.543 -0.0686 -0.1478  0.2412
79339W        W22433  16.558  28.211  24.473 -0.1666  0.3933 -0.1942
79340W        W22434  14.154  25.545  22.785  0.1923  0.3906 -0.0199
79341W        W22435  17.387  26.661  19.897  0.1227 -0.0630 -0.0033
79342W        W22436  15.500  27.358  22.119 -0.0027  0.1172  0.0638
79343W        W22437  16.820  26.974  23.056  0.1104 -0.0299  0.1393
79344W        W22438  18.555  28.444  23.780  0.3781 -0.0733  0.2419
79345W        W22439  14.795  26.066  20.848  0.0176  0.0346  0.1548
79346W        W22440  18.963  27.720  20.864 -0.1337 -0.0168 -0.1721
79347W        W22441  18.335  27.072  22.274 -0.2118 -0.0289 -0.0269
79348W        W22442  16.562  29.308  21.081 -0.0384  0.1221 -0.3457
79349W        W22443  18.217  27.698  20.122 -0.1027 -0.0440  0.0152
79350W        W22444  18.136  26.297  21.641  0.2477 -0.1756 -0.0274
79351W        W22445  13.974  26.646  21.816 -0.1283  0.1932  0.3773
79352W        W22446  16.792  28.931  22.201  0.1966  0.1459 -0.3878
79353W        W22447  18.504  28.599  22.293  0.3157 -0.4307  0.2129
79354W        W22448  18.462  26.533  20.885 -0.1754  0.1589 -0.1374
79355W        W22449  15.601  26.547  23.302  0.1224  0.0779  0.1337
79356W        W22450  14.213  28.683  20.310 -0.1359 -0.1270 -0.1410
79357W        W22451  19.049  26.191  21.439  0.3285  0.2291 -0.0385
79358W        W22452  17.876  24.768  22.131  0.0448  0.1868  0.1788
79359W        W22453  17.088  28.051  20.693 -0.0613 -0.3818  0.1146
79360W        W22454  18.263  26.904  22.733 -0.0594 -0.2743  0.1100
79361W        W22455  16.564  28.135  22.433 -0.2197 -0.2037  0.1293
79362W        W22456  15.940  28.692  23.499 -0.0669 -0.4463 -0.0180
79363W        W22457  16.133  28.075  19.616 -0.1530 -0.2041  0.2050
79364W        W22458  15.644  28.543  21.914  0.0111  0.1868 -0.0841
79365W        W22459  16.003  28.219  22.987 -0.0749 -0.2817 -0.0572
79366W        W22460  16.201  29.880  22.026 -0.0266 -0.1859 -0.1878
79367W        W22461  16.520  28.477  21.368 -0.0534 -0.1874 -0.0761
79368W        W22462  16.762  26.077  21.280  0.0343  0.1887  0.0849
79369W        W22463  18.036  28.570  22.548 -0.1862 -0.1909  0.2428
79370W        W22464  14.147  27.449  21.918 -0.3312 -0.1120 -0.0200
79371W        W22465  18.315  25.706  20.540  0.2314  0.2411 -0.2643
79372W        W22466  18.095  26.154  20.685  0.1670  0.2058 -0.1847
79373W        W22467  14.271  27.949  23.506  0.0879  0.0729 -0.2556
79374W        W22468  15.475  27.307  21.297  0.1564 -0.2397 -0.0438
79375W        W22469  16.057  27.449  19.876  0.1396  0.0377  0.0414
79376W        W22470  15.196  27.252  24.308 -0.3328 -0.0484  0.2490
79377W        W22471  17.029  26.046  22.645  0.3166 -0.1388 -0.3630
79378W        W22472  16.194  27.367  26.058 -0.2359 -0.2514 -0.2064
79379W        W22473  14.540  27.301  20.741 -0.2376 -0.0776 -0.0629
79380W        W22474  13.856  26.387  20.972  0.0832 -0.1333  0.0385
79381W        W22475  18.591  28.019  21.242 -0.1211  0.1264  0.1791
79382W        W22476  14.222  26.120  21.614 -0.0273  0.1465  0.0675
79383W        W22477  13.531  26.352  21.364 -0.2189  0.0234 -0.0558
79384W        W22478  17.051  29.718  21.461  0.1735 -0.2474  0.1474
79385W        W22479  16.495  28.836  21.745 -0.2395  0.0769 -0.0627
79386W        W22480  14.944  26.681  21.970 -0.0150 -0.0559 -0.3479
79387W        W22481  18.695  27.958  23.825  0.1537 -0.0128  0.0525
79388W        W22482  16.647  28.770  19.132  0.1087  0.0301  0.0593
79389W        W22483  16.072  26.628  23.414  0.2182 -0.0874  0.2688
79390W        W22484  14.866  25.106  22.337  0.0670 -0.0336 -0.0967
79391W        W22485  14.036  27.261  20.568 -0.3183  0.1787 -0.2274
79392W        W22486  18.456  26.885  24.145 -0.1994  0.1430  0.1358
79393W        W22487  17.237  29.073  22.123  0.3368  0.1092  0.1103
79394W        W22488  18.451  29.149  20.464 -0.2432  0.3078 -0.5596
79395W        W22489  16.362  28.463  22.127 -0.0231  0.2307  0.0479
79396W        W22490  14.519  28.966  23.013  0.0077  0.3576 -0.1250
79397W        W22491  14.807  26.557  23.573  0.0626  0.0232  0.1124
79398W        W22492  16.737  29.310  21.798  0.3374  0.1560 -0.2896
79399W        W22493  14.679  28.043  23.831  0.3210 -0.1478  0.1830
79400W        W22494  18.580  28.024  19.891 -0.1323 -0.0810  0.1384
79401W        W22495  17.885  25.831  21.648 -0.1164 -0.0428  0.1958
79402W        W22496  16.932  28.420  20.998  0.0461 -0.0340 -0.0723
79403W        W22497  15.869  26.526  24.287 -0.1144  0.0956  0.0609
79404W        W22498  15.970  27.355  24.978  0.0626  0.1569  0.1798
79405W        W22499  17.469  29.544  23.755  0.1717  0.0998  0.1999
79406W        W22500  16.125  25.763  21.963 -0.0000 -0.1793 -0.0410
79407W        W22501  17.424  25.632  20.176  0.0706 -0.1898  0.2334
79408W        W22502  17.540  29.662  22.549 -0.0841  0.0210  0.0920
79409W        W22503  15.916  27.386  24.006  0.2734  0.2395 -0.3097
79410W        W22504  16.318  26.308  21.290 -0.0246 -0.2163 -0.0632
79411W        W22505  17.215  28.054  22.814  0.0395  0.0304  0.1313
79412W        W22506  16.205  28.496  22.613 -0.3369  0.1420 -0.1067
79413W        W22507  18.049  26.479  22.380 -0.3961  0.0253 -0.0544
79414W        W22508  18.244  26.821  20.475 -0.1272 -0.1412  0.0355
79415W        W22509  18.297  27.072  21.013 -0.2915  0.2576  0.1054
79416W        W22510  17.116  27.453  22.702  0.1253  0.1810 -0.0951
79417W        W22511  19.667  28.440  23.207  0.1866 -0.3243  0.2941
79418W        W22512  16.276  27.638  21.655 -0.3081  0.0431  0.0673
79419W        W22513  19.310  25.410  22.390 -0.0817 -0.0880  0.0000
79420W        W22514  15.521  26.468  22.822 -0.2415  0.0617  0.0038
79421W        W22515  17.050  27.481  20.289  0.3266 -0.1858  0.1517
79422W        W22516  16.075  27.822  22.616  0.0925  0.0469  0.0227
79423W        W22517  19.038  25.448  21.018 -0.2853 -0.1826 -0.2815
79424W        W22518  15.123  29.247  20.791  0.0967  0.0907 -0.0013
79425W        W22519  17.923  24.500  20.094  0.1780  0.0243 -0.0751
79426W        W22520  17.599  28.375  21.755  0.1864 -0.0157 -0.3121
79427W        W22521  17.937  27.830  21.676 -0.2585  0.0369 -0.2200
79428W        W22522  15.693  28.993  27.143 -0.2056  0.1125 -0.0923
79429W        W22523  14.766  26.810  25.954 -0.1007 -0.1735  0.1793
79430W        W22524  18.528  26.536  23.598  0.1005  0.0057  0.1664
79431W        W22525  16.726  27.367  24.639  0.1930  0.0846  0.0497
79432W        W22526  15.679  26.022  25.647  0.3505  0.1947 -0.2715
79433W        W22527  17.264  29.843  24.877  0.0366 -0.0537  0.1263
79434W        W22528  15.676  25.735  26.174 -0.3351  0.1398 -0.0353
79435W        W22529  17.123  28.689  25.547 -0.0961 -0.0352 -0.2108
79436W        W22530  16.814  28.191  25.496 -0.2032  0.0345 -0.0571
79437W        W22531  16.840  28.603  24.434  0.2342 -0.1572 -0.4755
79438W        W22532  15.734  25.094  26.173  0.0991  0.1496 -0.1552
79439W        W22533  14.751  29.575  25.811 -0.2954 -0.1263  0.0508
79440W        W22534  15.772  26.058  25.134  0.3894  0.2029  0.1690
79441W        W22535  13.185  26.737  25.064  0.1001  0.0491  0.1594
79442W        W22536  18.174  27.673  26.370  0.1373  0.3038  0.1794
79443W        W22537  14.833  28.306  26.550  0.2153  0.2536 -0.0502
79444W        W22538  14.481  27.847  26.258 -0.1129 -0.0503 -0.2476
79445W        W22539  15.564  27.809  25.216 -0.2928 -0.0609 -0.1271
79446W        W22540  16.443  29.890  23.809 -0.0502 -0.0011  0.3604
79447W        W22541  15.612  25.375  27.164 -0.4733 -0.2207  0.0415
79448W        W22542  16.583  25.275  26.928 -0.0790  0.0232 -0.1415
79449W        W22543  16.896  28.328  24.001 -0.2858  0.2345  0.2952
79450W        W22544  15.232  26.874  25.107  0.1737  0.0634 -0.0859
79451W        W22545  15.629  27.006  24.220 -0.0987 -0.1411  0.1381
79452W        W22546  15.901  27.276  26.457  0.0698  0.0173 -0.4177
79453W        W22547  17.803  26.306  26.865 -0.0514  0.0069  0.2785
79454W        W22548  18.436  26.067  23.949 -0.1299  0.1412  0.0155
79455W        W22549  16.864  29.644  24.038 -0.1704 -0.2397 -0.3412
79456W        W22550  16.397  30.301  25.137  0.0574 -0.0124  0.0940
79457W        W22551  17.385  25.930  27.030  0.0427  0.3854  0.1390
79458W        W22552  14.805  28.773  25.761  0.2485 -0.2695  0.0924
79459W        W22553  14.777  27.927  24.597  0.0916  0.0307  0.3641
79460W        W22554  15.632  28.518  24.531 -0.0446  0.3390 -0.2061
79461W        W22555  17.953  26.698  23.986  0.1455  0.0405 -0.0446
79462W        W22556  18.012  28.920  26.687 -0.0547  0.1082 -0.1573
79463W        W22557  16.580  30.697  27.575  0.1569 -0.1495  0.2473
79464W        W22558  14.936  27.639  25.089  0.1354 -0.1460 -0.1990
79465W        W22559  16.104  29.831  27.115 -0.1183 -0.1409 -0.1299
79466W        W22560  15.442  28.497  26.916 -0.2355  0.1389  0.0567
79467W        W22561  17.429  25.625  27.419 -0.1858  0.0921 -0.0971
79468W        W22562  16.362  27.286  26.675 -0.1579  0.0474 -0.0633
79469W        W22563  14.260  28.091  24.551  0.1860 -0.0432 -0.1093
79470W        W22564  16.185  28.501  24.332  0.1828  0.2513 -0.2017
79471W        W22565  15.559  27.690  27.295  0.0778  0.1938 -0.1742
79472W        W22566  14.917  29.322  25.049 -0.1056  0.2926 -0.2061
79473W        W22567  17.461  24.520  27.302 -0.3067  0.1024  0.0132
79474W        W22568  14.552  27.897  25.222 -0.1756  0.1356 -0.2203
79475W        W22569  17.078  25.306  23.433  0.0239 -0.0155  0.3489
79476W        W22570  16.725  25.669  23.280 -0.2828  0.0084 -0.0226
79477W        W22571  17.617  25.977  23.715  0.2465 -0.0396 -0.2544
79478W        W22572  16.998  26.044  27.253 -0.2356 -0.0080  0.2517
79479W        W22573  15.624  29.837  27.090 -0.0193  0.0755 -0.1277
79480W        W22574  14.836  26.048  25.628  0.3586 -0.0473 -0.2950
79481W        W22575  17.739  27.864  26.362  0.0047 -0.0501  0.1256
79482W        W22576  17.386  27.057  23.853 -0.3046 -0.0119  0.2327
79483W        W22577  16.592  27.068  26.211  0.1599 -0.1260  0.4174
79484W        W22578  13.698  27.796  25.809 -0.0775  0.0626 -0.3413
79485W        W22579  16.128  26.598  27.113  0.1769  0.0951  0.2444
79486W        W22580  18.078  28.473  23.612 -0.2408  0.0811 -0.2253
79487W        W22581  17.543  27.954  24.607  0.2573  0.0515  0.1431
79488W        W22582  15.536  29.721  22.275  0.0640  0.2089  0.1013
79489W        W22583  13.931  27.240  25.300  0.0413  0.2143  0.2701
79490W        W22584  15.308  28.169  26.487  0.1710 -0.2500 -0.4235
79491W        W22585  16.462  26.558  26.309  0.0313 -0.1311 -0.3813
79492W        W22586  15.176  25.157  22.927  0.1177  0.2363 -0.0286
79493W        W22587  17.579  27.339  27.136  0.2056  0.2316 -0.2556
79494W        W22588  15.200  28.695  26.442 -0.2158  0.0813  0.2043
79495W        W22589  18.206  27.408  25.601  0.1450  0.0224 -0.2419
79496W        W22590  15.391  29.108  26.137  0.1429  0.1865 -0.0884
79497W        W22591  17.107  30.361  24.918  0.0845  0.1337 -0.0987
79498W        W22592  17.619  27.488  23.995  0.1398 -0.0471 -0.0632
79499W        W22593  17.503  24.995  25.792  0.0118  0.1246  0.1345
79500W        W22594  16.600  24.302  25.491 -0.0943 -0.1631 -0.1135
79501W        W22595  16.066  28.452  25.136  0.3488 -0.2815 -0.0044
79502W        W22596  16.907  28.365  23.298 -0.0315 -0.1426  0.1007
79503W        W22597  17.099  29.406  26.647  0.1442  0.2735 -0.0464
79504W        W22598  18.523  27.264  22.947  0.1311  0.1208 -0.1822
79505W        W22599  15.318  28.881  25.653 -0.1325 -0.1175  0.3398
79506W        W22600  15.259  25.922  25.882 -0.1123 -0.4230 -0.1063
79507W        W22601  15.485  28.542  26.063  0.0255 -0.1130  0.2101
79508W        W22602  15.094  29.750  25.018 -0.2346 -0.2160 -0.1444
79509W        W22603  14.542  27.898  25.785 -0.3063 -0.2368 -0.2118
79510W        W22604  15.600  26.556  25.984  0.2362  0.2451 -0.0329
79511W        W22605  14.308  27.049  25.982 -0.0925 -0.3722  0.2003
79512W        W22606  16.151  27.727  26.459 -0.0773  0.0247  0.1069
79513W        W22607  17.174  25.954  25.173  0.0990  0.1453  0.1201
79514W        W22608  14.146  27.192  27.063  0.2410 -0.3243 -0.1241
79515W        W22609  18.758  25.440  25.839 -0.1301 -0.1679  0.1004
79516W        W22610  16.175  27.741  24.250  0.0155 -0.1668  0.2226
79517W        W22611  21.243  28.893  23.987 -0.1374  0.1243  0.3645
79518W        W22612  17.601  27.667  22.984 -0.0324  0.3041 -0.0937
79519W        W22613  17.030  27.569  23.268  0.3102 -0.1172 -0.0249
79520W        W22614  15.233  27.487  25.750 -0.2376 -0.1142  0.0061
79521W        W22615  14.182  26.176  26.069 -0.0674  0.0837  0.0649
79522W        W22616  14.899  26.603  27.023  0.0687  0.0072  0.3588
79523W        W22617  14.855  24.792  26.411  0.1669 -0.0660 -0.0745
79524W        W22618  17.893  25.937  26.197  0.1508  0.1067 -0.3533
79525W        W22619  14.929  25.337  24.644 -0.2027 -0.1886 -0.0342
79526W        W22620  17.100  27.188  25.627 -0.1053  0.1243 -0.2236
79527W        W22621  16.477  27.400  25.115 -0.0312 -0.2080  0.1550
79528W        W22622  13.845  28.625  25.658  0.3388 -0.0359 -0.0569
79529W        W22623  17.981  26.369  25.945 -0.0926  0.0645 -0.0272
79530W        W22624  17.280  29.989  24.042 -0.0181 -0.0808 -0.2161
79531W        W22625  18.166  28.868  25.273 -0.0364  0.1334 -0.0684
79532W        W22626  17.499  28.506  25.224 -0.0838  0.1605  0.0404
79533W        W22627  15.642  26.419  27.130 -0.0482 -0.1667 -0.0123
79534W        W22628  15.812  26.896  24.674 -0.0909 -0.2329 -0.2324
79535W        W22629  16.230  29.632  24.207  0.0667 -0.1476  0.0894
79536W        W22630  17.341  28.154  26.158  0.0766  0.1655 -0.1375
79537W        W22631  16.293  27.096  24.729 -0.0494  0.2625  0.1242
79538W        W22632  16.980  29.993  25.975  0.1158 -0.0974  0.0532
79539W        W22633  16.282  27.755  24.771  0.0359 -0.0379  0.0564
79540W        W22634  15.779  28.113  26.247  0.2012  0.1201  0.0652
79541W        W22635  17.615  25.347  27.879 -0.1656  0.1273 -0.2056
79542W        W22636  17.101  27.657  27.175 -0.3275  0.1673 -0.1645
79543W        W22637  16.997  28.466  25.978 -0.3527  0.1255 -0.2939
79544W        W22638  16.221  27.640  23.723  0.0501 -0.1396  0.3006
79545W        W22639  16.793  30.232  24.041 -0.1208 -0.1724 -0.3115
79546W        W22640  15.613  29.072  24.668  0.0924  0.1568  0.1044
79547W        W22641  15.022  28.300  25.028  0.1725  0.2447  0.3655
79548W        W22642  15.925  28.936  24.313  0.0152 -0.0440  0.0879
79549W        W22643  16.368  27.148  23.746  0.1565  0.0095 -0.0069
79550W        W22644  14.079  27.673  27.943 -0.0678 -0.0236 -0.3030
79551W        W22645  16.503  26.302  27.309  0.0265  0.3722 -0.3482
79552W        W22646  14.498  27.400  25.139 -0.0747 -0.0772 -0.2081
79553W        W22647  16.497  29.230  25.578  0.0202 -0.1557  0.0810
79554W        W22648  17.351  27.133  23.187  0.2154 -0.2720  0.2766
79555W        W22649  18.027  26.258  24.207 -0.1362 -0.1031  0.1567
79556W        W22650  17.976  28.019  26.880  0.1373 -0.1641  0.2496
79557W        W22651  16.129  28.222  24.717 -0.3432  0.3392  0.3200
79558W        W22652  17.325  26.427  22.493  0.0283 -0.1270  0.0322
79559W        W22653  17.503  26.033  24.304 -0.3251 -0.0179 -0.1035
79560W        W22654  13.580  28.315  26.451 -0.1861  0.3018 -0.0932
79561W        W22655  16.473  28.583  24.782  0.4937  0.0091  0.1455
79562W        W22656  16.209  29.071  26.792 -0.0094 -0.1586  0.4542
79563W        W22657  15.354  26.099  22.154 -0.0014 -0.0102  0.1747
79564W        W22658  16.639  29.711  23.418  0.1573  0.0125 -0.0649
79565W        W22659  16.967  27.382  26.100 -0.3373 -0.0970  0.0925
79566W        W22660  16.128  27.586  27.120 -0.0745 -0.2958  0.1606
79567W        W22661  15.801  28.717  25.570  0.0669  0.1790 -0.1204
79568W        W22662  17.559  25.404  27.011 -0.0879 -0.0654 -0.0491
79569W        W22663  16.787  25.600  22.515  0.1479 -0.0781  0.1164
79570W        W22664  16.099  26.403  25.998  0.1294  0.0994 -0.1475
79571W        W22665  13.365  28.906  23.373  0.0122 -0.1437 -0.1899
79572W        W22666  17.575  26.784  24.937  0.3699 -0.0142 -0.1622
79573W        W22667  16.662  25.313  27.526 -0.1968  0.0547  0.0943
79574W        W22668  16.137  25.535  28.153 -0.0961 -0.1239  0.0736
79575W        W22669  17.669  27.344  26.328  0.0563 -0.4760 -0.2453
79576W        W22670  16.561  26.750  23.399  0.1900 -0.2260  0.0624
79577W        W22671  17.061  25.863  25.789  0.2888 -0.0334  0.0051
79578W        W22672  15.883  28.094  24.293 -0.0038 -0.2797 -0.0014
79579W        W22673  15.866  25.942  26.617 -0.3071  0.0117 -0.1051
79580W        W22674  16.053  27.866  25.937 -0.1389  0.0546  0.0750
79581W        W22675  15.063  28.922  27.065  0.0068 -0.1590 -0.0854
79582W        W22676  15.720  27.891  26.717  0.2173 -0.2375  0.2592
79583W        W22677  16.874  29.079  25.344 -0.0167  0.2347  0.3954
79584W        W22678  15.547  24.887  27.123 -0.1238 -0.0158 -0.0181
79585W        W22679  16.468  26.633  22.922  0.1736  0.1253 -0.3800
79586W        W22680  15.716  29.437  24.180 -0.0108  0.0212 -0.1533
79587W        W22681  16.652  28.017  23.577 -0.0285 -0.4470 -0.1081
79588W        W22682  16.348  25.167  24.852 -0.0224  0.0198 -0.2075
79589W        W22683  14.815  29.669  26.278 -0.0101 -0.3238  0.0692
79590W        W22684  15.524  27.315  25.241 -0.0283  0.0000 -0.1662
79591W        W22685  16.936  26.140  26.354  0.0776 -0.2062  0.0101
79592W        W22686  15.780  28.495  23.976 -0.0640  0.2617 -0.2257
79593W        W22687  19.551  26.729  26.241  0.1578 -0.3569  0.2222
79594W        W22688  14.243  28.208  25.453  0.0578 -0.0658  0.0776
79595W        W22689  14.962  27.543  23.752  0.0036 -0.0969 -0.1546
79596W        W22690  15.354  28.414  25.396  0.0722  0.1313 -0.1126
79597W        W22691  17.413  26.184  25.515 -0.0554 -0.1603 -0.2952
79598W        W22692  17.221  26.700  23.387 -0.0428  0.1584 -0.2060
79599W        W22693  14.787  26.524  25.400 -0.2764 -0.0171 -0.0512
79600W        W22694  16.862  25.868  26.734  0.1337  0.0070  0.3124
79601W        W22695  14.316  28.889  25.100 -0.0823 -0.3108 -0.1173
79602W        W22696  17.192  25.729  26.384 -0.1569 -0.1229 -0.1530
79603W        W22697  17.444  25.696  24.765 -0.2539 -0.1751 -0.1191
79604W        W22698  17.497  28.858  27.443  0.0806 -0.3341  0.1723
79605W        W22699  16.323  28.351  26.580 -0.0920  0.0088  0.0026
79606W        W22700  13.730  27.715  24.242  0.2205  0.0781  0.0447
79607W        W22701  18.046  26.055  25.491 -0.1988  0.1791  0.0069
79608W        W22702  14.140  25.996  27.007 -0.1591 -0.1437  0.1112
79609W        W22703  13.346  29.464  24.604 -0.0617 -0.2727  0.0776
79610W        W22704  17.844  28.436  26.566 -0.3893 -0.2648  0.0981
79611W        W22705  15.534  27.319  24.724  0.0501 -0.1882  0.0587
79612W        W22706  15.797  28.028  23.757 -0.1472 -0.3186  0.0953
79613W        W22707  15.185  27.033  26.089  0.0631  0.0801  0.1648
79614W        W22708  16.940  26.360  25.605  0.1936 -0.2841 -0.2679
79615W        W22709  15.321  25.903  24.935 -0.0568  0.1579  0.0892
79616W        W22710  14.715  28.310  25.421  0.2030 -0.0095 -0.1331
79617W        W22711  16.688  26.930  24.897 -0.0251 -0.0006  0.3823
79618W        W22712  18.714  28.952  26.731  0.3089 -0.1608 -0.2461
79619W        W22713  16.544  27.093  28.155  0.3272 -0.2290 -0.0345
79620W        W22714  15.574  29.309  25.728  0.2353 -0.1083  0.2552
79621W        W22715  15.833  25.439  26.546 -0.1632  0.3378 -0.1919
79622W        W22716  17.969  29.730  25.588  0.0256 -0.0102 -0.0412
79623W        W22717  16.759  27.383  28.602  0.0242 -0.0762 -0.0557
79624W        W22718  15.990  27.372  24.499 -0.0953  0.1812  0.2932
79625W        W22719  15.983  28.687  26.628 -0.0593 -0.2861 -0.0242
79626W        W22720  15.807  28.159  25.479  0.2584 -0.4230 -0.0742
79627W        W22721  16.092  26.094  27.050  0.0160 -0.1628 -0.1892
79628W        W22722  15.072  28.380  25.853 -0.0956  0.2205  0.3382
79629W        W22723  15.699  27.660  25.640 -0.1096  0.5548 -0.0166
79630W        W22724  13.370  27.504  25.599  0.0315 -0.1424  0.1967
79631W        W22725  17.700  26.119  25.087  0.0757 -0.0946  0.0950
79632W        W22726  17.782  28.052  24.173 -0.2745  0.1203 -0.0473
79633W        W22727  15.496  26.134  26.331  0.0208 -0.1330  0.0086
79634W        W22728  17.899  25.002  28.285  0.2191  0.0664  0.3883
79635W        W22729  16.144  27.106  23.290  0.1723  0.0053  0.1173
79636W        W22730  16.224  24.311  27.222 -0.0524  0.2065  0.0329
79637W        W22731  13.699  26.090  27.232  0.0908  0.1178  0.2940
79638W        W22732  18.360  28.674  26.360 -0.0059 -0.3278  0.2416
79639W        W22733  14.298  26.696  26.378 -0.2693  0.1523  0.0646
79640W        W22734  15.616  29.480  27.452 -0.1774 -0.0546  0.1967
79641W        W22735  13.239  28.037  27.640 -0.2914  0.0873  0.1774
79642W        W22736  16.085  27.338  25.552 -0.0261  0.0448 -0.0993
79643W        W22737  16.310  26.157  24.765  0.2545  0.3007  0.2117
79644W        W22738  17.405  27.623  25.973 -0.1639  0.0033 -0.0431
79645W        W22739  17.660  29.201  27.074  0.2102  0.3145  0.1750
79646W        W22740  17.138  27.658  25.477  0.2877  0.1689  0.1622
79647W        W22741  19.041  27.121  25.530 -0.0370  0.1542  0.1440
79648W        W22742  14.945  29.184  26.043  0.0889 -0.2550  0.0382
79649W        W22743  16.573  25.710  25.664 -0.0667  0.0649  0.0439
79650W        W22744  16.297  28.242  25.570 -0.0537  0.1640 -0.1791
79651W        W22745  16.011  29.509  25.115 -0.0011 -0.2320  0.1285
79652W        W22746  15.161  26.423  25.841  0.0867 -0.0797 -0.2616
79653W        W22747  15.974  28.647  26.142 -0.1765  0.0044 -0.1636
79654W        W22748  17.159  25.226  25.002  0.1473 -0.0491  0.2872
79655W        W22749  17.066  26.314  26.810  0.1838 -0.0134 -0.1830
79656W        W22750  17.276  27.391  27.592  0.2753  0.1466  0.0599
79657W        W22751  15.181  27.573  26.990  0.0057 -0.1885  0.0773
79658W        W22752  14.803  25.831  26.280  0.1598  0.1643  0.0635
79659W        W22753  17.562  28.948  26.461  0.4262  0.2459 -0.0104
79660W        W22754  18.941  27.684  22.849 -0.0167  0.1982 -0.2223
79661W        W22755  17.882  28.110  27.719  0.0108  0.0815  0.2663
79662W        W22756  17.485  27.982  25.092 -0.1314 -0.1937  0.2909
79663W        W22757  16.984  27.904  25.952  0.1817  0.4951 -0.0447
79664W        W22758  14.816  27.337  26.707  0.0437  0.2656 -0.0063
79665W        W22759  17.796  27.567  26.749 -0.0631  0.2075  0.1012
79666W        W22760  15.407  26.327  24.488  0.1345  0.3510  0.1218
79667W        W22761  17.516  24.894  26.914  0.3331 -0.1554 -0.2750
79668W        W22762  16.660  28.968  24.005 -0.4806 -0.0707  0.0157
79669W        W22763  16.488  28.127  25.103  0.0304 -0.0271 -0.0293
79670W        W22764  16.896  26.078  23.125  0.0526 -0.0969  0.1535
79671W        W22765  14.553  26.878  26.833  0.1751 -0.0586 -0.0916
79672W        W22766  14.662  28.779  27.399 -0.2038 -0.0810  0.1352
79673W        W22767  14.419  27.724  24.220 -0.1648 -0.2159 -0.2152
79674W        W22768  16.705  26.917  22.587 -0.0976 -0.0570 -0.0574
79675W        W22769  17.325  28.467  26.608  0.3310  0.1956  0.0039
79676W        W22770  17.668  26.991  27.635 -0.1013 -0.3128  0.1314
79677W        W22771  16.565  26.317  24.324 -0.3508  0.3460  0.2308
79678W        W22772  16.275  26.788  26.706  0.0253  0.1847  0.2032
79679W        W22773  15.427  28.598  23.629  0.2287 -0.1827 -0.1554
79680W        W22774  16.698  25.749  26.147  0.2467  0.0912  0.1884
79681W        W22775  15.375  30.242  25.218  0.0074 -0.2309  0.1316
79682W        W22776  13.932  28.326  27.172  0.1260  0.0674 -0.1924
79683W        W22777  15.039  27.924  26.115 -0.0238  0.1177  0.1530
79684W        W22778  16.237  25.273  27.300 -0.3156  0.1788  0.2497
79685W        W22779  16.065  26.561  25.041  0.2504  0.5941  0.3934
79686W        W22780  16.339  26.949  25.292 -0.2059  0.0773  0.1671
79687W        W22781  16.594  26.830  27.098 -0.0348  0.2803  0.0436
79688W        W22782  16.858  28.188  26.357  0.1667  0.1678 -0.1749
79689W        W22783  16.191  28.932  23.855  0.0285 -0.0753  0.1146
79690W        W22784  17.213  29.220  27.301  0.1482  0.3290  0.2409
79691W        W22785  17.157  27.065  24.631 -0.1633  0.0376 -0.0565
79692W        W22786  17.437  28.354  27.286  0.2805  0.0686  0.1108
79693W        W22787  14.447  26.404  26.941 -0.0432  0.1894 -0.0973
79694W        W22788  15.810  27.447  28.110 -0.5142  0.1582  0.1697
79695W        W22789  16.540  27.743  25.613  0.1419 -0.0949 -0.2177
79696W        W22790  16.032  26.271  22.962 -0.3252  0.2159  0.1850
79697W        W22791  15.642  29.008  23.907 -0.0717 -0.3594  0.3289
79698W        W22792  13.676  27.996  27.947  0.1319  0.0353  0.3951
79699W        W22793  15.990  29.088  25.280 -0.3081 -0.0455 -0.1003
79700W        W22794  15.460  30.490  23.239  0.0542  0.2261 -0.0666
79701W        W22795  17.667  27.719  25.499  0.0146  0.0978  0.0389
79702W        W22796  17.901  27.564  24.435  0.1320  0.1402 -0.0564
79703W        W22797  16.560  29.954  26.297  0.2762 -0.2187  0.3141
79704W        W22798  15.434  28.119  24.154 -0.1669  0.0404  0.0465
79705W        W22799  15.202  28.835  24.738  0.0047  0.0647 -0.3026
79706W        W22800  14.425  28.516  23.976 -0.1539  0.0544  0.1254
79707W        W22801  16.404  28.837  25.247 -0.1284  0.1179  0.0323
79708W        W22802  15.830  30.171  22.943 -0.0762 -0.0048  0.1082
79709W        W22803  16.570  27.394  27.109  0.0052  0.3249  0.0788
79710W        W22804  18.133  25.705  23.077 -0.1535 -0.1367 -0.3488
79711W        W22805  18.305  25.587  24.861  0.0229  0.2341  0.2267
79712W        W22806  18.875  26.421  23.214 -0.2974 -0.0782 -0.2267
79713W        W22807  16.637  29.392  28.089 -0.0969 -0.1075  0.1452
79714W        W22808  17.159  27.367  24.232  0.2230 -0.1600  0.1119
79715W        W22809  16.112  26.083  24.148 -0.0310  0.1678  0.0907
79716W        W22810  15.730  26.884  26.863 -0.1155 -0.2590 -0.1048
79717W        W22811  17.519  24.718  27.952  0.2773 -0.0985  0.1777
79718W        W22812  14.045  29.340  26.636 -0.4690 -0.0433  0.0826
79719W        W22813  18.639  29.111  24.849  0.3325 -0.0370 -0.3018
79720W        W22814  14.828  26.092  25.064  0.0315  0.1457 -0.0888
79721W        W22815  16.820  26.789  25.429  0.2820 -0.0763 -0.1946
79722W        W22816  17.482  26.098  26.577 -0.0962  0.1348  0.0534
79723W        W22817  16.403  29.257  25.003 -0.0724 -0.0588 -0.2457
79724W        W22818  16.477  26.635  25.730  0.0924 -0.2288 -0.0768
79725W        W22819  15.603  28.733  25.100 -0.2240 -0.0780  0.2758
79726W        W22820  15.911  29.219  26.300  0.0532 -0.1556  0.1714
79727W        W22821  16.649  30.065  25.587 -0.0240  0.0094 -0.2232
79728W        W22822  15.185  26.077  24.052  0.1045 -0.1221  0.0159
79729W        W22823  17.524  26.620  25.922 -0.2779  0.1170 -0.1575
79730W        W22824  16.046  26.861  26.189 -0.0082  0.2412  0.1622
79731W        W22825  18.377  25.850  27.357  0.0390 -0.2915  0.3066
79732W        W22826  16.022  26.866  25.709  0.0875  0.2139 -0.0206
79733W        W22827  18.185  26.141  23.241  0.0297  0.2360 -0.2632
79734W        W22828  17.269  27.144  26.557 -0.4210  0.0523 -0.1143
79735W        W22829  16.614  27.909  27.313  0.2308 -0.2534 -0.2034
79736W        W22830  16.592  27.393  24.145 -0.1375  0.0666  0.1871
79737W        W22831  17.440  27.656  28.016 -0.0225 -0.0742  0.0318
79738W        W22832  16.625  27.608  22.715  0.0725 -0.0339 -0.2049
79739W        W22833  17.119  29.912  27.527  0.1299  0.1579  0.2254
79740W        W22834  15.734  27.197  25.979  0.1246  0.0763 -0.3027
79741W        W22835  17.486  28.452  23.798  0.1852 -0.1953  0.0432
79742W        W22836  15.419  27.991  25.823  0.0131  0.0939  0.0004
79743W        W22837  17.000  27.970  26.769  0.1976 -0.1582 -0.1984
79744W        W22838  15.913  29.228  28.748 -0.1811 -0.3138 -0.0366
79745W        W22839  15.646  26.410  23.811 -0.2124 -0.0550  0.0640
79746W        W22840  19.351  27.663  23.147 -0.0622 -0.2475 -0.1251
79747W        W22841  17.454  27.312  25.226 -0.0465 -0.1134 -0.0128
79748W        W22842  15.696  29.150  23.291 -0.2787 -0.0954  0.2729
79749W        W22843  17.278  28.189  25.677  0.0627  0.1107 -0.1005
79750W        W22844  17.065  28.933  26.295  0.1453 -0.3571  0.2519
79751W        W22845  14.389  27.550  26.751 -0.1635  0.0831 -0.2101
79752W        W22846  18.397  28.549  26.865 -0.2128  0.0179 -0.0327
79753W        W22847  18.080  28.242  26.052 -0.1000  0.0774  0.0121
79754W        W22848  15.863  25.149  23.760 -0.1961 -0.2756 -0.2506
79755W        W22849  15.642  27.620  26.222  0.0919 -0.0287 -0.2781
79756W        W22850  14.807  30.120  24.973  0.0705  0.0235  0.2688
79757W        W22851  16.622  26.057  25.292  0.0474  0.1373  0.0053
79758W        W22852  18.225  26.003  27.828 -0.0452  0.1262  0.0403
79759W        W22853  17.336  28.536  23.084 -0.3870  0.1001 -0.2310
79760W        W22854  17.001  25.546  28.149 -0.0084 -0.1416 -0.0112
79761W        W22855  15.606  28.695  27.650 -0.1304 -0.2373  0.0917
79762W        W22856  15.955  28.267  26.908  0.2795 -0.0170  0.0393
79763W        W22857  15.543  26.512  25.035 -0.0027 -0.2666  0.0360
79764W        W22858  16.968  28.727  27.259 -0.2296 -0.3860  0.1438
79765W        W22859  15.760  30.185  26.034 -0.0246  0.3800  0.0287
79766W        W22860  16.919  29.238  24.360 -0.0754  0.0004 -0.0442
79767W        W22861  16.404  29.563  26.860  0.0797  0.1517 -0.0572
79768W        W22862  17.141  26.419  25.126  0.0124 -0.1902 -0.0196
79769W        W22863  18.018  27.741  25.876  0.0113 -0.4028  0.0784
79770W        W22864  16.916  26.531  24.623 -0.1205 -0.1564 -0.1516
79771W        W22865  17.318  24.124  24.874 -0.2937 -0.2185 -0.0631
79772W        W22866  17.945  25.751  24.110 -0.0639  0.2381 -0.2443
79773W        W22867  16.855  26.802  26.716  0.1251 -0.1771  0.2364
79774W        W22868  14.372  27.093  24.669 -0.1474  0.2879 -0.3232
79775W        W22869  14.963  27.225  24.775  0.0915  0.0076  0.2713
79776W        W22870  14.798  27.447  25.612  0.0108 -0.1153 -0.0389
79777W        W22871  16.088  25.998  27.939  0.1840 -0.0997  0.2849
79778W        W22872  16.959  26.793  26.004 -0.2180  0.1520  0.0636
79779W        W22873  15.095  29.198  26.564  0.1259  0.2159 -0.2173
79780W        W22874  14.818  27.486  26.114 -0.2182  0.1444 -0.4209
79781W        W22875  18.267  28.588  24.794  0.0428 -0.1800 -0.0513
79782W        W22876  15.586  24.289  24.995  0.2103  0.1508 -0.0464
79783W        W22877  15.400  25.726  24.451 -0.1862  0.5465  0.0911
79784W        W22878  16.482  28.092  26.016  0.3301  0.0079  0.1951
79785W        W22879  17.562  29.393  24.823 -0.2361  0.0449  0.1515
79786W        W22880  15.835  26.140  24.599 -0.0570 -0.3103  0.0636
79787W        W22881  16.256  29.816  28.021 -0.1313  0.2001  0.3460
79788W        W22882  16.171  28.165  23.457 -0.3090 -0.3177  0.0782
79789W        W22883  15.302  27.111  26.740  0.0263 -0.1740  0.2092
79790W        W22884  16.509  26.224  27.780 -0.3095  0.0048  0.1122
79791W        W22885  14.776  26.123  23.865 -0.3563  0.2969  0.0593
79792W        W22886  15.855  26.469  25.507  0.1413  0.0694 -0.0395
79793W        W22887  16.113  29.499  23.078 -0.0700  0.0568  0.0132
79794W        W22888  17.532  28.868  24.408  0.0569 -0.0556  0.0877
79795W        W22889  16.476  29.103  26.149  0.0380 -0.1393  0.4932
79796W        W22890  16.112  29.006  25.810 -0.0179 -0.0459 -0.5094
79797W        W22891  14.557  24.976  27.013  0.0020 -0.0193  0.4178
79798W        W22892  16.283  28.113  23.943 -0.0413  0.3035 -0.1887
79799W        W22893  15.462  29.530  26.425  0.2044 -0.1188  0.1013
79800W        W22894  18.072  27.212  24.117 -0.1863  0.1588 -0.0849
79801W        W22895  17.271  26.618  26.424  0.3677 -0.2514 -0.0469
79802W        W22896  16.592  27.193  25.649  0.0009 -0.1056  0.2823
79803W        W22897  15.949  26.353  28.378  0.1047  0.0174 -0.0116
79804W        W22898  15.169  27.998  27.524 -0.0513  0.2545  0.1624
79805W        W22899  18.481  27.529  25.976  0.0014 -0.0474 -0.2557
79806W        W22900  16.839  27.756  25.023 -0.0869  0.0571  0.3470
79807W        W22901  18.087  25.136  25.158 -0.0290  0.1615 -0.0573
79808W        W22902  16.907  28.578  25.139 -0.1148  0.0195  0.2711
79809W        W22903  16.671  29.047  26.671  0.0350  0.3460  0.2370
79810W        W22904  16.945  27.869  24.320 -0.0446  0.1055  0.0707
79811W        W22905  16.933  27.737  27.803  0.3111  0.1141  0.1606
79812W        W22906  16.422  28.643  27.043 -0.3921 -0.0875 -0.0799
79813W        W22907  17.769  27.093  26.778 -0.2241  0.3444  0.2787
79814W        W22908  15.943  26.891  23.836 -0.0621  0.1934  0.2886
79815W        W22909  18.844  26.549  24.091  0.2769  0.1547 -0.3175
79816W        W22910  16.028  29.518  25.621  0.1842 -0.0916 -0.2102
79817W        W22911  18.193  29.328  28.672 -0.1916 -0.1951 -0.0441
79818W        W22912  15.908  29.878  27.575 -0.0783  0.1828 -0.1034
79819W        W22913  17.313  27.624  26.492  0.0867 -0.0544 -0.0478
79820W        W22914  15.649  25.576  25.254 -0.0982  0.2076 -0.1392
79821W        W22915  16.657  27.685  26.318 -0.0901  0.1570  0.0259
79822W        W22916  15.748  27.813  24.681  0.3221 -0.2789  0.1473
79823W        W22917  18.297  25.603  26.288  0.2752 -0.0969  0.2586
79824W        W22918  17.492  28.029  26.829 -0.0308 -0.0317 -0.1292
79825W        W22919  16.845  26.069  24.757  0.3265  0.3700  0.0245
79826W        W22920  15.895  29.498  26.807  0.2093 -0.0310 -0.2512
79827W        W22921  16.012  28.657  27.375  0.1574  0.0715 -0.2287
79828W        W22922  17.175  28.198  31.455  0.0935  0.2299  0.0697
79829W        W22923  16.373  26.103  26.451  0.2964 -0.0773  0.0139
79830W        W22924  17.495  26.337  27.288 -0.0529  0.3128  0.0152
79831W        W22925  16.813  26.602  28.156  0.2596 -0.0716  0.1680
79832W        W22926  15.169  26.668  28.935 -0.0362 -0.2299 -0.1087
79833W        W22927  16.668  28.247  29.927 -0.1913 -0.0584 -0.1168
79834W        W22928  16.468  25.507  31.224 -0.1097 -0.1699  0.0782
79835W        W22929  17.995  29.188  30.493  0.0505 -0.0265  0.0012
79836W        W22930  17.451  28.946  30.695 -0.1865  0.1019  0.0311
79837W        W22931  16.242  27.631  27.629  0.0991 -0.0604  0.4258
79838W        W22932  15.981  24.989  29.542  0.1264  0.0737  0.0773
79839W        W22933  16.196  28.745  30.484 -0.2428  0.3950  0.0859
79840W        W22934  16.455  26.102  29.323  0.0092 -0.0333 -0.0001
79841W        W22935  15.201  25.948  29.609 -0.2631 -0.0592 -0.2981
79842W        W22936  17.756  27.281  30.356  0.3703  0.1783  0.1037
79843W        W22937  15.259  27.728  28.732 -0.1528 -0.1534 -0.1810
79844W        W22938  16.217  25.655  29.750  0.0622 -0.1193 -0.1054
79845W        W22939  14.998  27.554  27.447 -0.1767  0.1797 -0.0557
79846W        W22940  16.122  27.976  28.710 -0.0594 -0.0880 -0.5278
79847W        W22941  16.466  26.212  29.889 -0.3404 -0.1261 -0.1021
79848W        W22942  17.589  24.875  31.882 -0.1058  0.0211  0.1031
79849W        W22943  16.499  27.948  26.810  0.2750 -0.4016  0.2710
79850W        W22944  14.176  27.987  27.574  0.1601  0.0163 -0.1819
79851W        W22945  16.935  26.590  30.031  0.1186 -0.2672 -0.0943
79852W        W22946  16.294  27.398  28.434  0.0743 -0.1861 -0.1404
79853W        W22947  16.768  24.786  29.174 -0.1005  0.2069 -0.0255
79854W        W22948  16.763  27.038  30.199  0.0362 -0.3008 -0.0436
79855W        W22949  16.340  29.205  29.975  0.1595 -0.0499 -0.2173
79856W        W22950  15.901  28.898  30.056 -0.2031  0.1153  0.3434
79857W        W22951  16.846  25.823  31.010 -0.1709 -0.3757 -0.0986
79858W        W22952  14.895  29.578  30.942  0.0972 -0.0490 -0.4737
79859W        W22953  14.820  29.514  28.588 -0.2577  0.1755 -0.0770
79860W        W22954  16.017  26.696  28.750 -0.0988  0.0340  0.2171
79861W        W22955  17.958  27.224  29.005 -0.0446 -0.3384  0.1350
79862W        W22956  17.922  29.123  31.547  0.1267 -0.0535 -0.2075
79863W        W22957  15.522  30.552   1.185  0.1171  0.0597  0.0430
79864W        W22958  14.995  28.144  28.042  0.1260  0.1733  0.0828
79865W        W22959  16.586  29.898  30.224  0.2889 -0.2481  0.1749
79866W        W22960  16.824  26.275  30.780  0.0296 -0.1192  0.2432
79867W        W22961  16.622  26.670  30.567 -0.0033 -0.1420 -0.0573
79868W        W22962  16.424  26.714  29.126  0.0963  0.2879  0.1162
79869W        W22963  16.580  27.982  28.482 -0.0154  0.3011 -0.1334
79870W        W22964  16.513  27.629  28.078  0.0034  0.5024 -0.3259
79871W        W22965  15.612  28.322  29.340  0.0147 -0.0312 -0.1455
79872W        W22966  14.970  28.161  30.547  0.0203  0.0134  0.0753
79873W        W22967  17.003  24.913  30.523 -0.1755  0.0632 -0.0186
79874W        W22968  15.958  28.315  27.785  0.0817  0.0902 -0.1410
79875W        W22969  15.802  26.807  27.484 -0.0019  0.1971  0.1575
79876W        W22970  15.712  26.118  27.532  0.0642  0.2072  0.0291
79877W        W22971  17.094  26.418  27.781  0.0870  0.1642  0.1309
79878W        W22972  16.413  25.254  29.390  0.4162 -0.1822  0.0170
79879W        W22973  16.612  27.541  30.360 -0.0649  0.0216  0.2110
79880W        W22974  15.489  24.846  30.389  0.5109 -0.1191  0.0521
79881W        W22975  17.399  27.471  30.768 -0.1214 -0.1525 -0.3044
79882W        W22976  15.156  27.142  28.709  0.0828  0.1175  0.3221
79883W        W22977  16.782  25.433  29.075  0.0250  0.2385 -0.2877
79884W        W22978  14.983  29.287  30.261  0.0678 -0.1316 -0.2297
79885W        W22979  14.279  26.809  29.198  0.0935 -0.2664 -0.1906
79886W        W22980  17.802  28.977  28.676 -0.0451 -0.0560 -0.0325
79887W        W22981  16.857  28.050  29.463 -0.1028 -0.0769 -0.1366
79888W        W22982  16.820  28.944  27.762  0.0741  0.2001 -0.1809
79889W        W22983  14.480  27.616  27.243 -0.1925  0.1160 -0.1097
79890W        W22984  15.455  27.184   0.409  0.0148 -0.0361 -0.1077
79891W        W22985  14.970  27.084  31.484 -0.0833  0.1961  0.1936
79892W        W22986  16.096  25.909  26.089 -0.2742 -0.2421 -0.1050
79893W        W22987  16.983  27.341  29.805 -0.1351  0.1608 -0.1170
79894W        W22988  14.024  28.189  30.711 -0.1310 -0.2765 -0.0991
79895W        W22989  17.799  25.815  29.530 -0.0912  0.2028  0.1468
79896W        W22990  17.287  26.240  30.448  0.4893 -0.1350 -0.1068
79897W        W22991  18.381  28.643  30.912 -0.1003  0.0450  0.1188
79898W        W22992  17.028  28.210  28.015  0.3366  0.1735 -0.0438
79899W        W22993  17.292  25.301  29.193  0.1209  0.0501 -0.1341
79900W        W22994  16.307  25.621  29.047  0.5830  0.1555  0.1621
79901W        W22995  15.366  27.556  27.875  0.0363 -0.1373 -0.0748
79902W        W22996  15.694  27.546  28.633  0.0855 -0.2907  0.1939
79903W        W22997  18.851  28.920  30.884 -0.1082  0.1356  0.4289
79904W        W22998  17.541  28.073  28.652 -0.1349 -0.0634 -0.2013
79905W        W22999  16.360  29.893  29.335  0.1361 -0.1951 -0.0260
79906W        W23000  16.242  24.789  31.813 -0.1097  0.0260 -0.1250
79907W        W23001  17.715  27.202  29.824  0.0006  0.2595  0.1391
79908W        W23002  15.908  29.686  28.393 -0.2956 -0.3456  0.0517
79909W        W23003  15.557  28.670  28.806 -0.3127 -0.2921  0.2383
79910W        W23004  14.791  28.585  28.303  0.0324 -0.1442 -0.1118
79911W        W23005  14.666  26.004  30.344 -0.1107  0.2165  0.1394
79912W        W23006  15.631  27.203  29.717  0.4356  0.0505  0.0065
79913W        W23007  17.230  27.286  28.964 -0.0025  0.0368 -0.0493
79914W        W23008  15.803  25.699  29.152  0.0988 -0.1210  0.1686
79915W        W23009  17.407  24.425  29.708 -0.0072 -0.2607  0.4019
79916W        W23010  14.771  28.239  28.752  0.2150  0.0727  0.4073
79917W        W23011  18.452  28.939  28.964  0.1324 -0.1790  0.0764
79918W        W23012  17.083  25.220  27.665 -0.0063 -0.0957 -0.2737
79919W        W23013  17.037  28.358  28.559 -0.0312 -0.0788  0.1079
79920W        W23014  16.049  27.484  29.621 -0.2736 -0.1202  0.1428
79921W        W23015  14.802  27.930  27.070 -0.0479 -0.0885 -0.0242
79922W        W23016  14.535  26.161  29.852  0.2747  0.0403  0.2451
79923W        W23017  15.593  25.404  30.405  0.0196 -0.0104 -0.3597
79924W        W23018  18.251  27.268  30.591  0.1985  0.1683 -0.0189
79925W        W23019  14.656  26.126  27.330 -0.0754  0.0815  0.1545
79926W        W23020  16.642  26.922  29.697 -0.3271 -0.0474  0.1679
79927W        W23021  15.105  27.367  28.294  0.4150  0.1283 -0.0806
79928W        W23022  14.081  27.005  28.726  0.3011 -0.0985 -0.0222
79929W        W23023  17.441  25.369  31.063 -0.1608  0.0047 -0.1169
79930W        W23024  17.305  28.013  29.593  0.0095 -0.0795  0.5354
79931W        W23025  18.005  28.004  30.798 -0.0712  0.0653  0.2463
79932W        W23026  17.312  27.483  28.490  0.2570 -0.2251  0.2908
79933W        W23027  15.332  26.831  30.187 -0.2241  0.2254  0.1367
79934W        W23028  15.393  26.002  27.923 -0.2553 -0.0494 -0.2665
79935W        W23029  15.517  29.609  28.656 -0.2131  0.0776 -0.2192
79936W        W23030  15.905  27.144  29.205  0.2631 -0.0486 -0.6730
79937W        W23031  15.274  26.753  27.252  0.2515  0.2072 -0.1610
79938W        W23032  17.277  28.624  30.140  0.1199 -0.0935  0.2210
79939W        W23033  17.135  27.998  28.994 -0.1643  0.1604  0.1991
79940W        W23034  14.733  26.451  29.115  0.2032  0.0344  0.0705
79941W        W23035  17.342  25.753  30.241 -0.2517  0.0976 -0.0381
79942W        W23036  18.049  26.997  31.151  0.0303 -0.1136  0.5425
79943W        W23037  16.994  27.282  28.017 -0.1119  0.4531 -0.0689
79944W        W23038  14.468  25.474  27.726  0.1679  0.0529 -0.1283
79945W        W23039  16.661  28.482  30.393 -0.0795  0.1078  0.1019
79946W        W23040  15.180  28.419  29.062  0.1842  0.2052 -0.2120
79947W        W23041  14.281  26.378  28.848 -0.3219  0.0223 -0.0023
79948W        W23042  15.605  28.461  29.933  0.0019  0.1529 -0.0380
79949W        W23043  17.275  26.570  30.840  0.1147  0.2431 -0.2398
79950W        W23044  15.254  26.740   0.236 -0.1393  0.0268 -0.1718
79951W        W23045  18.178  26.812  29.840  0.0084  0.0053  0.1595
79952W        W23046  15.387  27.066  29.299 -0.0264 -0.0562  0.2875
79953W        W23047  14.929  28.929  29.358 -0.0090 -0.0407 -0.3976
79954W        W23048  16.914  25.837  29.477 -0.0625 -0.1830  0.0800
79955W        W23049  16.978  26.087  28.140 -0.0403  0.2115 -0.1089
79956W        W23050  16.976  25.351  30.900  0.0667  0.0763  0.0799
79957W        W23051  16.867  28.784  28.940 -0.1046  0.0698 -0.0660
79958W        W23052  16.132  27.136  27.190 -0.0579  0.0978  0.0232
79959W        W23053  16.810  24.836  28.591 -0.1239 -0.2004  0.0664
79960W        W23054  16.133  28.297  30.252  0.3386  0.0333  0.3227
79961W        W23055  18.389  29.879  28.573  0.0909 -0.3114  0.3183
79962W        W23056  16.292  27.709  30.925  0.0088 -0.4150  0.2828
79963W        W23057  16.600  25.598  28.592  0.0048 -0.0185 -0.1511
79964W        W23058  18.027  28.633  28.233 -0.2625  0.2327  0.0743
79965W        W23059  16.104  26.679  30.633  0.0873 -0.1412  0.3530
79966W        W23060  17.532  26.754  31.222 -0.1859 -0.0044  0.0732
79967W        W23061  16.404  27.845  30.084  0.1617 -0.1271 -0.2075
79968W        W23062  16.346  24.200  30.530  0.0352 -0.0941  0.1877
79969W        W23063  15.366  27.218  27.251 -0.3719  0.1352 -0.2108
79970W        W23064  16.170  24.604  27.644  0.0298 -0.2462 -0.1844
79971W        W23065  14.364  29.773  26.682 -0.2486 -0.0160  0.2125
79972W        W23066  18.167  26.131  30.968 -0.0759  0.0380 -0.2984
79973W        W23067  16.413  26.328  28.805 -0.1301  0.0956  0.0022
79974W        W23068  16.688  23.685  30.935 -0.2150 -0.2732  0.2356
79975W        W23069  17.750  25.618   0.685 -0.1723 -0.1207 -0.1955
79976W        W23070  17.147  26.934  28.485 -0.4086  0.2440  0.3228
79977W        W23071  17.000  25.396  30.213  0.1286  0.0904  0.2993
79978W        W23072  14.893  26.421  27.644 -0.1619  0.2546  0.0324
79979W        W23073  16.460  24.792  30.539  0.1496  0.1807  0.1972
79980W        W23074  14.402  27.773  29.864  0.0475  0.2643  0.3897
79981W        W23075  15.093  29.751  28.983  0.0156  0.2046  0.0372
79982W        W23076  17.393  29.856  30.401  0.1867  0.0881  0.0717
79983W        W23077  17.107  27.603  29.340 -0.2640 -0.1841  0.0664
79984W        W23078  16.520  24.838  31.351 -0.1492  0.0855  0.2762
79985W        W23079  16.130  26.458  27.565  0.1106 -0.0452 -0.0909
79986W        W23080  14.372  28.302  26.881 -0.0500 -0.0288 -0.3448
79987W        W23081  14.574  27.722  27.689 -0.1971  0.0264 -0.2629
79988W        W23082  15.430  24.353  30.300 -0.2807 -0.0468 -0.1543
79989W        W23083  15.334  27.959  30.855 -0.3017  0.0285  0.0711
79990W        W23084  15.345  29.396  27.032  0.0717  0.0587  0.1655
79991W        W23085  17.909  28.969  30.940 -0.0343 -0.0238 -0.3018
79992W        W23086  15.235  28.283  28.515  0.2176 -0.1856  0.1432
79993W        W23087  16.929  24.449  30.292 -0.2020  0.0174  0.1636
79994W        W23088  15.108  29.504  29.850 -0.1260  0.2763 -0.3584
79995W        W23089  15.397  26.452  27.632  0.1258  0.4710  0.2936
79996W        W23090  15.794  27.331  27.548  0.2477 -0.0718  0.2188
79997W        W23091  17.323  26.793  28.960 -0.0594  0.3605 -0.1531
79998W        W23092  17.835  27.278  28.169  0.0276 -0.3469 -0.1314
79999W        W23093  13.962  26.420  29.412 -0.1790  0.0458  0.0446
80000W        W23094  15.939  24.481  30.447  0.0726 -0.1588  0.0813
80001W        W23095  14.480  27.614  31.338 -0.0661  0.0106  0.1523
80002W        W23096  15.694  26.424  30.951 -0.0531  0.0088 -0.4320
80003W        W23097  16.476  26.236  28.299 -0.1812  0.0582  0.1642
80004W        W23098  17.553  26.954  30.733  0.0939  0.4010 -0.1503
80005W        W23099  15.089  27.441  31.177 -0.0830 -0.2215 -0.0121
80006W        W23100  14.200  25.302  26.914 -0.1024  0.0449 -0.2084
80007W        W23101  18.238  26.329  29.244 -0.1310 -0.1434  0.1898
80008W        W23102  17.681  26.738  30.149 -0.3529 -0.0041 -0.1295
80009W        W23103  15.477  29.113  28.498  0.1802 -0.0914  0.1034
80010W        W23104  16.084  27.788  30.473  0.1032 -0.2618  0.1197
80011W        W23105  14.853  27.153  27.192  0.0956  0.0046 -0.2293
80012W        W23106  15.399  28.066  29.746  0.0056  0.0546  0.0910
80013W        W23107  15.071  26.391  30.038 -0.0799  0.2205  0.0190
80014W        W23108  17.634  26.232  30.985  0.0294 -0.1557 -0.1641
80015W        W23109  15.638  27.077  28.830  0.0585 -0.1823  0.1811
80016W        W23110  15.227  26.539  29.525 -0.2463 -0.0354  0.1495
80017W        W23111  16.270  27.107  28.807  0.0714 -0.1346  0.0504
80018W        W23112  17.304  27.224  30.247 -0.0803 -0.0110 -0.0235
80019W        W23113  15.408  27.228  30.875  0.0565  0.2181  0.3318
80020W        W23114  15.699  29.443  31.359  0.2015  0.2219  0.1292
80021W        W23115  15.537  25.238  28.982  0.0049  0.3639 -0.3339
80022W        W23116  19.199  28.745  27.780  0.0812  0.1069 -0.1426
80023W        W23117  17.540  25.334  31.558 -0.0496 -0.0571 -0.0157
80024W        W23118  15.785  26.697  29.575 -0.0583  0.3275  0.4212
80025W        W23119  15.502  26.063  29.962  0.0299  0.2471 -0.2586
80026W        W23120  16.661  28.552  29.423 -0.2097  0.0008 -0.0499
80027W        W23121  16.889  25.892  30.484  0.2254  0.2485  0.3205
80028W        W23122  15.952  29.296  30.348 -0.2570 -0.2030 -0.1339
80029W        W23123  13.876  28.809  27.908 -0.0572  0.1991  0.0440
80030W        W23124  15.331  28.980  29.073 -0.0981  0.1634  0.0623
80031W        W23125  18.255  24.487  27.298 -0.1901  0.0145  0.0967
80032W        W23126  16.805  28.518  26.768 -0.0568  0.1438 -0.2037
80033W        W23127  16.192  24.321  29.099 -0.2128 -0.2063 -0.1767
80034W        W23128  17.713  24.938  29.860  0.0739  0.0662 -0.1989
80035W        W23129  17.897  27.655  28.507 -0.1801 -0.0637 -0.0512
80036W        W23130  17.320  25.382   0.488  0.1538 -0.1113  0.0278
80037W        W23131  15.905  26.968  30.108  0.3236 -0.2561 -0.1006
80038W        W23132  17.321  26.836  29.800  0.0400  0.3624 -0.1232
80039W        W23133  15.855  26.502  30.034  0.3915  0.1828  0.4056
80040W        W23134  18.007  30.374   0.338 -0.2997  0.0657 -0.1672
80041W        W23135  15.387  27.938  31.330  0.1211  0.0141  0.0129
80042W        W23136  15.262  24.937  27.632  0.2233 -0.1450 -0.0668
80043W        W23137  15.844  25.121  28.168 -0.0668  0.0537  0.2017
80044W        W23138  16.060  26.901  28.325 -0.2173  0.2099 -0.0362
80045W        W23139  17.793  25.812  30.575  0.2258  0.1983 -0.0619
80046W        W23140  16.450  28.411  27.482 -0.3404 -0.3529  0.0279
80047W        W23141  18.196  26.888  29.336  0.2718  0.1577  0.1445
80048W        W23142  14.380  27.311  29.125 -0.0694 -0.1524 -0.0200
80049W        W23143  18.080  25.287  29.068 -0.3190 -0.0535  0.2002
80050W        W23144  16.632  26.759  27.610 -0.0550 -0.0215 -0.3271
80051W        W23145  14.445  28.601  28.651 -0.0851 -0.2403  0.0633
80052W        W23146  14.998  27.147  30.424  0.0487  0.0888  0.1503
80053W        W23147  17.046  28.219  30.781 -0.0102 -0.0366 -0.0770
80054W        W23148  16.322  26.655  27.984 -0.3795  0.1534  0.0539
80055W        W23149  17.172  27.065  31.163  0.2816 -0.2173 -0.1161
80056W        W23150  16.773  27.574  30.829 -0.0698  0.3660 -0.0459
80057W        W23151  15.572  25.906  30.767 -0.0558 -0.0976 -0.0706
80058W        W23152  14.933  25.865  30.946  0.0706  0.1437  0.2798
80059W        W23153  17.432  28.827  29.376  0.1593 -0.0143  0.0518
80060W        W23154  17.976  26.280  28.185  0.0457  0.3202  0.1089
80061W        W23155  18.215  25.082  31.427  0.0740 -0.2465  0.0433
80062W        W23156  18.561  27.892  28.955  0.1039 -0.3083  0.3494
80063W        W23157  17.665  27.716  29.421  0.0764  0.3098 -0.1134
80064W        W23158  15.524  26.345  30.380 -0.2158 -0.0568  0.0402
80065W        W23159  16.836  25.605  31.662 -0.0786 -0.0518  0.0575
80066W        W23160  15.352  27.088  27.695 -0.0634  0.0017 -0.3124
80067W        W23161  17.394  25.294  30.508  0.1865  0.0280  0.0425
80068W        W23162  15.591  28.994  26.683 -0.1138  0.0363  0.1100
80069W        W23163  17.000  28.156  30.281  0.0279 -0.1148  0.1649
80070W        W23164  17.224  26.726  30.374 -0.1470 -0.0127  0.1031
80071W        W23165  15.762  26.249  28.803 -0.1897  0.2129 -0.3097
80072W        W23166  15.416  29.473  30.335 -0.1101 -0.0563  0.2494
80073W        W23167  14.944  26.764  26.489 -0.0299  0.0816 -0.0134
80074W        W23168  16.096  27.534  28.931  0.2850 -0.1048 -0.1752
80075W        W23169  16.994  28.720  30.655  0.0369 -0.1316 -0.0802
80076W        W23170  18.418  26.851  31.500  0.2248  0.1883 -0.0054
80077W        W23171  15.936  25.476  28.642 -0.2803  0.0487  0.1533
80078W        W23172  19.346  26.127   0.179  0.0252 -0.2001 -0.0248
80079W        W23173  14.237  27.021  28.264 -0.0964 -0.0715  0.2827
80080W        W23174  17.123  25.867  28.534 -0.2068 -0.1539 -0.1511
80081W        W23175  15.695  28.889  30.695 -0.1699  0.0098 -0.3363
80082W        W23176  14.706  28.590  31.004 -0.2387 -0.1515 -0.0022
80083W        W23177  16.701  28.243  28.985  0.1468 -0.4403 -0.2498
80084W        W23178  15.663  25.051  30.837 -0.2134  0.0008 -0.1092
80085W        W23179  16.490  27.325  29.901 -0.0597 -0.0947  0.2876
80086W        W23180  17.346  26.520  29.367  0.3551  0.3200 -0.4847
80087W        W23181  17.449  26.308  29.985 -0.0267 -0.1156  0.0804
80088W        W23182  18.156  27.208  31.790  0.2287  0.0718 -0.0219
80089W        W23183  14.872  27.391  29.873 -0.3699  0.3224  0.0212
80090W        W23184  17.313  29.018  29.826 -0.4151 -0.1418  0.3092
80091W        W23185  17.555  25.728  29.110 -0.3037 -0.0433 -0.3559
80092W        W23186  16.486  27.780  29.585  0.0326 -0.1383  0.1163
80093W        W23187  15.335  26.724  30.707 -0.1198 -0.4541  0.0019
80094W        W23188  17.174  26.548  31.471 -0.1854 -0.0472 -0.3407
80095W        W23189  16.969  27.800  29.921 -0.1259  0.1841  0.0237
80096W        W23190  14.888  25.371  26.683  0.0841 -0.1379  0.2073
80097W        W23191  16.041  27.957  28.163 -0.1066 -0.2799 -0.0973
80098W        W23192  14.569  28.970  30.191  0.1472 -0.0100 -0.1123
80099W        W23193  14.176  28.161  30.130 -0.1237 -0.0401 -0.4045
80100W        W23194  17.083  27.894  28.360  0.1477 -0.0307  0.0094
80101W        W23195  17.510  28.141  28.153  0.3032  0.1912 -0.1124
80102W        W23196  16.815  26.913  28.893 -0.0647 -0.2798  0.0338
80103W        W23197  17.875  28.453  30.894  0.1210 -0.2786  0.0732
80104W        W23198  16.920  26.424  29.592  0.1498 -0.0954  0.1212
80105W        W23199  15.106  28.484  29.567  0.0347  0.1009  0.0959
80106W        W23200  13.692  27.937  27.370  0.0584  0.1191 -0.3391
80107W        W23201  18.397  29.506  28.207  0.3467 -0.1391  0.0537
80108W        W23202  15.994  28.645  29.622  0.1727  0.1874 -0.1690
80109W        W23203  17.535  28.108  31.057  0.0003 -0.1936 -0.2538
80110W        W23204  16.942  25.730  27.671  0.1008 -0.1286 -0.0731
80111W        W23205  17.784  25.949  30.074  0.2223  0.0604  0.0789
80112W        W23206  17.961  24.734  28.704 -0.2954 -0.3525 -0.3064
80113W        W23207  16.749  28.445  31.258 -0.0437  0.1833 -0.1459
80114W        W23208  16.947  25.918  29.984 -0.1064  0.4245 -0.1904
80115W        W23209  16.181  25.925  28.657  0.2177 -0.0628  0.0333
80116W        W23210  15.265  25.766  30.349  0.1137 -0.2650  0.1691
80117W        W23211  19.414  25.531  30.891  0.2638  0.0767 -0.0222
80118W        W23212  13.984  28.636  30.106  0.2111  0.1269  0.1144
80119W        W23213  17.609  28.727  27.932 -0.1071 -0.2318 -0.0043
80120W        W23214  15.550  26.630  28.528 -0.0194  0.0475  0.2687
80121W        W23215  15.730  26.667  27.999 -0.2253 -0.0697  0.2505
80122W        W23216  18.659  25.337  31.350 -0.0948  0.0596  0.1385
80123W        W23217  15.251  27.473  26.449 -0.1691 -0.2778  0.1582
80124W        W23218  17.218  25.048  29.893  0.1297  0.1415 -0.1070
80125W        W23219  15.632  28.282  27.355  0.2593 -0.1973 -0.1071
80126W        W23220  15.423  28.450  30.479  0.4387  0.3234 -0.0407
80127W        W23221  16.092  27.419  30.172  0.1850 -0.2946  0.1367
80128W        W23222  15.782  25.625  27.626 -0.2291 -0.3169  0.2804
80129W        W23223  19.221  27.184  28.473 -0.1529  0.1038 -0.0217
80130W        W23224  16.217  25.172  29.986 -0.0580 -0.1001 -0.0515
80131W        W23225  17.015  27.110  30.645  0.0498  0.0333  0.3148
80132W        W23226  14.678  27.624  29.427  0.3226 -0.1441 -0.2380
80133W        W23227  18.032  25.850  29.073  0.3032 -0.0431  0.0010
80134W        W23228  16.662  25.470  29.798  0.0590 -0.3154  0.1082
80135W        W23229  16.465  25.777  30.203 -0.3623  0.0296  0.0628
80136W        W23230  16.189  27.128  27.757 -0.0092  0.1738 -0.0005
80137W        W23231  17.101  27.644  30.387  0.0077  0.1763  0.0250
80138W        W23232  15.862  26.449  26.573 -0.0702  0.1702  0.0433
80139W        W23233  16.926  29.517  30.395  0.1336  0.0547 -0.2036
80140W        W23234  15.626  26.682  29.080 -0.0656 -0.2565 -0.0040
80141W        W23235  16.501  26.737  28.551  0.1285 -0.1336 -0.2081
80142W        W23236  15.542  27.098  28.338 -0.0736 -0.1342  0.0217
80143W        W23237  16.114  27.268  31.212  0.0759 -0.0729 -0.1216
80144W        W23238  19.259  30.857  31.671  0.1800 -0.1991 -0.1159
80145W        W23239  14.619  25.237  28.499 -0.2204 -0.0083  0.2254
80146W        W23240  17.339  29.312  28.378 -0.1294  0.0151 -0.1781
80147W        W23241  19.231  26.663  29.307 -0.1626 -0.1832  0.2604
80148W        W23242  15.483  29.139  27.933 -0.1847  0.2153 -0.1985
80149W        W23243  17.002  26.984  29.351  0.1798  0.3270  0.0866
80150W        W23244  18.255  29.096  29.991 -0.0680 -0.1874  0.1552
80151W        W23245  15.683  27.065  30.543 -0.1053  0.0740  0.4476
80152W        W23246  18.746  29.285  29.968 -0.0635  0.1735 -0.0135
80153W        W23247  17.742  28.918  30.111 -0.1062  0.2182  0.1395
80154W        W23248  17.048  24.666  28.141 -0.1447  0.0106 -0.1798
80155W        W23249  16.074  24.447  29.565  0.1479 -0.1435  0.0381
80156W        W23250  15.730  28.281  28.485  0.1264 -0.0020 -0.1962
80157W        W23251  19.448  26.817  30.812  0.3966  0.1295  0.2893
80158W        W23252  17.193  25.703  31.326  0.0608 -0.0670  0.1247
80159W        W23253  16.134  28.028  27.277 -0.3617 -0.1782  0.0652
80160W        W23254  16.903  25.212  31.346  0.0121  0.1564 -0.0796
80161W        W23255  15.707  28.053  30.408  0.1328 -0.1210  0.1976
80162W        W23256  16.321  27.490   0.196  0.2047 -0.2431 -0.1970
80163W        W23257  15.473  27.803  28.320 -0.0578 -0.0116  0.1381
80164W        W23258  16.346  26.695  30.127 -0.1409 -0.2726  0.0721
80165W        W23259  16.343  28.674  30.006  0.3516  0.0542 -0.1289
80166W        W23260  16.504  28.938  28.493  0.2700 -0.2533  0.2538
80167W        W23261  18.817  29.176  29.213  0.0984 -0.0058 -0.1862
80168W        W23262  16.472  26.240  30.358  0.1673  0.4446  0.0198
80169W        W23263  17.452  27.671  30.023 -0.2379  0.0394  0.1162
80170W        W23264  16.260  24.678  30.060 -0.1188  0.4368  0.1019
80171W        W23265  16.720  25.904  28.937 -0.1759 -0.3941 -0.0676
80172W        W23266  17.255  25.531  29.762  0.2396 -0.0582 -0.0523
80173W        W23267  14.448  27.916  29.003  0.0075 -0.2907  0.0699
80174W        W23268  13.516  27.512  27.694 -0.0104 -0.0331  0.1387
80175W        W23269  14.666  28.229  27.681 -0.1616  0.2487 -0.0400
80176W        W23270  15.129  28.418  30.062  0.1407 -0.1690 -0.2208
80177W        W23271  17.308  25.776  30.838 -0.1876  0.0437  0.0453
80178W        W23272  16.015  26.403   0.104  0.1263 -0.1311  0.1407
80179W        W23273  15.165  26.993  29.717 -0.2136 -0.0529 -0.0259
80180W        W23274  14.900  26.328  28.139  0.3911 -0.2181  0.0411
80181W        W23275  17.207  28.554  27.688 -0.1130 -0.2526 -0.1447
80182W        W23276  14.565  23.878  30.017  0.2806  0.2725  0.2386
80183W        W23277  15.353  25.498  28.008 -0.2408 -0.0261 -0.1227
80184W        W23278  16.475  27.803  28.997 -0.1264 -0.0735 -0.2042
80185W        W23279  18.336  28.089  27.789 -0.3684 -0.2156  0.0575
80186W        W23280  17.074  24.388  29.200  0.0790 -0.1198  0.1433
80187W        W23281  16.813  29.255   0.146 -0.1179 -0.4194  0.0179
80188W        W23282  15.481  28.260  27.892 -0.0234  0.1629  0.0250
80189W        W23283  16.204  25.040   0.721 -0.0494 -0.0435  0.0917
80190W        W23284  15.746  23.838  30.409  0.0787 -0.1571 -0.0550
80191W        W23285  15.151  26.197  27.215  0.1849  0.2136 -0.0531
80192W        W23286  15.660  25.098  30.019  0.1810 -0.1744  0.3481
80193W        W23287  17.130  28.452  29.223  0.3784 -0.1681  0.0331
80194W        W23288  17.853  28.015  29.823  0.0298 -0.1759  0.1626
80195W        W23289  15.015  28.927  29.915  0.1620  0.0562 -0.1797
80196W        W23290  14.503  28.056  29.452 -0.3124  0.2111 -0.1262
80197W        W23291  16.097  24.836  30.920 -0.2388 -0.2001 -0.1245
80198W        W23292  17.594  27.630  28.955 -0.2098 -0.0289  0.1317
80199W        W23293  17.249  27.605  31.359  0.0985 -0.0546  0.0897
80200W        W23294  16.714  27.366  27.592  0.3812  0.1096  0.0141
80201W        W23295  17.262  24.818  30.936  0.0461 -0.2434  0.0559
80202W        W23296  17.176  26.089  29.049  0.1448  0.3147 -0.3897
80203W        W23297  15.095  26.185  30.603 -0.2741 -0.2061  0.3504
80204W        W23298  16.165  27.022  29.655  0.0818  0.0745  0.0050
80205W        W23299  18.159  27.370  29.989 -0.0740 -0.3321  0.0605
80206W        W23300  16.023  26.315  29.175 -0.3440  0.0987  0.2075
80207W        W23301  16.890  26.300  28.630 -0.1713 -0.3477  0.1106
80208W        W23302  17.101  28.477  29.698  0.2175 -0.0746 -0.1160
80209W        W23303  14.635  26.889  28.841  0.1888  0.2003 -0.1237
80210W        W23304  16.892  26.481  29.089  0.0196 -0.0661  0.1727
80211W        W23305  17.156  26.196  31.142 -0.1457  0.0194  0.2515
80212W        W23306  15.604  29.286  29.884 -0.3569  0.2671 -0.4082
80213W        W23307  18.564  27.016  30.047  0.1629  0.0426 -0.2086
80214W        W23308  15.746  27.857  27.697  0.0963  0.0965 -0.1392
80215W        W23309  18.601  27.034  27.637  0.4897  0.1814  0.1536
80216W        W23310  17.422  30.418  29.080 -0.1326 -0.1958 -0.1069
80217W        W23311  17.846  29.430  31.883 -0.0358  0.1296  0.2738
80218W        W23312  16.416  29.444  30.407 -0.1425  0.2808  0.1507
80219W        W23313  17.811  26.739  29.013  0.0460  0.0778  0.2966
80220W        W23314  14.806  24.481  29.375  0.0094  0.0434  0.0902
80221W        W23315  16.395  28.432  28.615  0.5061  0.2741 -0.1524
80222W        W23316  16.295  28.167  29.259  0.4095 -0.0166 -0.2676
80223W        W23317  18.590  26.931  30.575 -0.0372  0.2257  0.1911
80224W        W23318  15.885  26.078  29.622  0.1718 -0.0456  0.2079
80225W        W23319  17.026  25.334  28.603  0.2506 -0.0786  0.0553
80226W        W23320  15.700  29.379  30.809  0.0741 -0.1089 -0.3331
80227W        W23321  15.981  28.146  29.748  0.0738 -0.1098  0.1279
80228W        W23322  16.750  24.992  30.041  0.1090 -0.0018 -0.0730
80229W        W23323  15.949  27.390  30.807  0.3294 -0.1263 -0.1213
80230W        W23324  15.298  27.350  30.086  0.1859  0.0374  0.0941
80231W        W23325  14.601  28.620  29.810  0.0726 -0.0319  0.0489
80232W        W23326  16.356  28.135  31.429  0.3038 -0.2594 -0.2901
80233W        W23327  15.307  29.232  31.225  0.1506  0.0079 -0.0123
80234W        W23328  18.297  25.678  30.714 -0.0260  0.0216  0.2314
80235W        W23329  16.082  25.415  30.787 -0.1441 -0.0390 -0.3331
80236W        W23330  17.160  24.857   0.215 -0.1472 -0.0627  0.1655
80237W        W23331  18.583  28.074  31.094 -0.1994 -0.2175 -0.1116
80238W        W23332  16.716  27.993  31.124 -0.0615  0.1872 -0.1926
80239W        W23333  15.435  23.001  30.681  0.0539 -0.1551 -0.0427
80240W        W23334  16.752  27.419  31.310  0.3309  0.3882 -0.2066
80241W        W23335  15.602  24.510  30.790 -0.2988 -0.0184 -0.1291
80242W        W23336  17.865  26.886  31.583  0.2176 -0.1500  0.3446
80243W        W23337  16.502  28.765  30.905  0.1202 -0.0226 -0.2334
80244W        W23338  15.826  28.890  29.143 -0.0411  0.0829  0.1188
80245W        W23339  17.335  28.572  31.105 -0.0551 -0.0319  0.0390
80246W        W23340  14.255  25.311  31.380 -0.1417  0.1073  0.1966
80247W        W23341  15.778  28.070  31.978  0.5532 -0.2132 -0.2517
80248W        W23342  15.348  24.976  31.596  0.2583  0.3013 -0.0422
80249W        W23343  14.843  30.602   0.647  0.2220 -0.0686 -0.0029
80250W        W23344  17.586  26.096  31.482  0.1463 -0.3406 -0.1439
80251W        W23345  17.285  26.332   0.967  0.1141  0.0502 -0.1006
80252W        W23346  15.758  26.409  31.460 -0.0128 -0.1670 -0.0501
80253W        W23347  16.627  26.961  31.557  0.1125  0.2709  0.3834
80254W        W23348  16.296  26.330  31.692  0.2240 -0.0361  0.3068
80255W        W23349  15.967  29.055   0.779 -0.0327 -0.3683  0.2019
80256W        W23350  16.306  27.052  30.421 -0.3538  0.1395 -0.1222
80257W        W23351  15.089  27.625  30.597 -0.1310  0.4124  0.0060
80258W        W23352  16.526  27.168  30.849  0.3769 -0.0417 -0.0300
80259W        W23353  15.806  25.038  31.729 -0.3370 -0.0864  0.1699
80260W        W23354  18.001  26.426  31.408  0.1294  0.1592  0.2335
80261W        W23355  17.191  24.811   0.795  0.1190 -0.0059 -0.0580
80262W        W23356  15.815  26.892  30.999  0.2029 -0.0152 -0.2533
80263W        W23357  15.892  27.333  31.837 -0.2842 -0.2887  0.0105
80264W        W23358  15.650  28.768  31.487 -0.0599  0.2728 -0.1443
80265W        W23359  16.743  28.403  31.728  0.1290  0.0108 -0.1450
80266W        W23360  18.289  27.466  31.401  0.4532 -0.0395 -0.1597
80267W        W23361  16.390  25.982  31.290 -0.0221 -0.1669  0.3173
80268W        W23362  16.874  24.845   1.250 -0.0831  0.1311  0.0898
80269W        W23363  16.190  29.346  30.842  0.1369 -0.0363  0.2520
80270W        W23364  16.184  23.602  30.395  0.0703 -0.2797  0.1401
80271W        W23365  15.605  30.594  31.550  0.0083  0.2750  0.0532
80272W        W23366  16.386  25.797  30.742  0.1428 -0.0465 -0.2391
80273W        W23367  16.409  27.485  31.708  0.0419 -0.1797 -0.0265
80274W        W23368  15.968  26.216  30.547 -0.1915  0.1034  0.0115
80275W        W23369  15.846  28.437  30.723 -0.2023  0.3161 -0.1975
80276W        W23370  16.502  29.451  31.723 -0.2187 -0.0055  0.1613
80277W        W23371  16.210  29.969  31.621  0.0255  0.1374 -0.3497
80278W        W23372  16.401  29.685  31.223  0.2964 -0.3237 -0.1219
80279W        W23373  18.470  25.535   0.204  0.2008 -0.0946 -0.0468
80280W        W23374  16.550  25.215  31.697  0.1508  0.1320 -0.2729
80281W        W23375  15.631  27.675  29.829  0.2641 -0.3926 -0.0644
80282W        W23376  17.227  25.815  31.828 -0.1031 -0.0956 -0.0428
80283W        W23377  15.974  26.000  31.034 -0.0482  0.1030 -0.0733
80284W        W23378  18.702  29.012  30.383  0.0867  0.1473  0.1935
80285W        W23379  14.915  31.410   1.007 -0.1141 -0.2968  0.1148
80286W        W23380  17.229  28.675  31.620 -0.2299  0.0380 -0.1687
80287W        W23381  14.874  27.921  29.776  0.0875 -0.0242 -0.2735
80288W        W23382  15.554  29.542   0.227  0.3039 -0.0820 -0.1380
80289W        W23383  15.572  27.575  30.451 -0.0846  0.0578 -0.0697
80290W        W23384  15.960  29.642  31.873 -0.1187  0.2475 -0.2537
80291W        W23385  15.937  25.552   0.024  0.3380 -0.2044 -0.0143
80292W        W23386  18.049  28.434   0.756  0.0631 -0.0238  0.0192
80293W        W23387  17.637  27.528  31.775  0.3267  0.2299  0.0973
80294W        W23388  19.577  25.401  31.653  0.2835  0.2857  0.1859
80295W        W23389  16.219  32.295  18.141 -0.0279 -0.1881  0.0280
80296W        W23390  15.590  30.322  16.838 -0.1758  0.1365 -0.0980
80297W        W23391  18.117  30.283  16.382  0.1759 -0.2220  0.1608
80298W        W23392  16.996  31.601  15.857 -0.1618  0.0182  0.1388
80299W        W23393  13.404  29.596  17.916  0.1873 -0.2773  0.1886
80300W        W23394  17.588  32.876  18.129 -0.1112  0.2604 -0.0343
80301W        W23395  15.115  28.672  19.666 -0.2849 -0.3375  0.3387
80302W        W23396  16.394  33.473  18.374  0.1858 -0.2323  0.2292
80303W        W23397  17.951  29.970  18.785  0.2556  0.2454 -0.2001
80304W        W23398  17.572  30.092  16.944 -0.0555 -0.2206 -0.0266
80305W        W23399  15.905  30.292  20.336  0.0213  0.3195  0.4364
80306W        W23400  14.625  31.681  17.333  0.0598  0.1424 -0.0392
80307W        W23401  15.296  29.151  16.158  0.1092 -0.1893  0.1776
80308W        W23402  14.490  29.494  18.152 -0.2250 -0.0929  0.1799
80309W        W23403  16.023  29.768  18.570  0.2188  0.1708 -0.3887
80310W        W23404  14.375  31.441  15.927 -0.0136  0.0191  0.1550
80311W        W23405  16.078  29.458  17.782 -0.0903  0.1099  0.1468
80312W        W23406  14.922  28.704  18.433  0.1204  0.0608 -0.3976
80313W        W23407  16.416  33.047  17.139 -0.2877  0.2801  0.0541
80314W        W23408  16.037  30.829  20.271  0.0576  0.1181 -0.0048
80315W        W23409  17.188  28.279  19.646  0.4529 -0.3899 -0.2918
80316W        W23410  16.042  32.039  16.498 -0.2171  0.3505  0.1849
80317W        W23411  14.751  30.514  15.804 -0.0417  0.0435  0.1937
80318W        W23412  13.829  29.930  18.154 -0.0736 -0.0939 -0.0735
80319W        W23413  16.238  30.319  17.787  0.0910 -0.2286 -0.1397
80320W        W23414  17.364  30.491  19.714 -0.0873  0.0060 -0.0430
80321W        W23415  17.505  29.196  18.235  0.1160 -0.3963  0.2815
80322W        W23416  16.591  32.127  17.060 -0.0850  0.1884  0.0624
80323W        W23417  15.238  30.781  17.756 -0.3173  0.1394  0.0019
80324W        W23418  16.762  30.480  19.887 -0.0996  0.0148 -0.0354
80325W        W23419  13.252  31.301  17.550 -0.2206 -0.0554 -0.3477
80326W        W23420  14.133  33.862  16.480 -0.2377  0.3456  0.2337
80327W        W23421  15.514  32.157  15.865  0.1627 -0.1396 -0.5674
80328W        W23422  17.078  29.998  17.046  0.0601 -0.0218  0.1551
80329W        W23423  17.628  31.823  19.087 -0.1563 -0.1204 -0.1187
80330W        W23424  17.425  32.687  19.833 -0.0317  0.0035 -0.0551
80331W        W23425  14.300  31.866  16.265  0.3488 -0.0589 -0.3169
80332W        W23426  17.234   0.204  19.137 -0.1117  0.2203  0.2747
80333W        W23427  15.603  31.947  18.252  0.2829 -0.0391 -0.3869
80334W        W23428  16.270  29.698  19.417  0.0206 -0.4378  0.3955
80335W        W23429  16.786  31.312  17.379  0.1918 -0.0671  0.1511
80336W        W23430  14.801  32.530  15.461  0.0761 -0.0905  0.1220
80337W        W23431  14.444  31.301  18.977  0.1934 -0.3327 -0.1497
80338W        W23432  15.657  31.482  18.541 -0.2088 -0.1107 -0.1024
80339W        W23433  14.963  31.965  17.707  0.2305 -0.0641 -0.2023
80340W        W23434  17.496  30.073  20.426  0.0023 -0.1665 -0.2805
80341W        W23435  16.277  32.695  16.322  0.1329  0.0019  0.1148
80342W        W23436  17.198  30.126  17.965  0.0279 -0.1957 -0.0023
80343W        W23437  15.624  29.494  15.948 -0.2329 -0.0224  0.0953
80344W        W23438  16.937  29.895  16.490  0.0763 -0.0080 -0.3611
80345W        W23439  14.850  28.509  17.083 -0.1159  0.3388  0.2093
80346W        W23440  15.876  31.977  17.477  0.1310  0.0133  0.0405
80347W        W23441  16.102  30.344  19.388 -0.1611 -0.3615 -0.1864
80348W        W23442  18.297  30.965  19.051 -0.1274  0.2054 -0.0851
80349W        W23443  16.602  29.903  16.860  0.0965  0.0958 -0.1798
80350W        W23444  16.485  30.118  19.647  0.0854  0.0779  0.1398
80351W        W23445  14.672  31.260  18.465  0.3551 -0.0283  0.2116
80352W        W23446  13.440  30.479  16.683 -0.1399  0.3804  0.1397
80353W        W23447  17.033  32.519  15.994  0.1602  0.2430  0.1545
80354W        W23448  17.225  31.123  17.642  0.2651 -0.0574  0.3793
80355W        W23449  16.332  31.732  16.839  0.3251  0.2691  0.1169
80356W        W23450  14.568  30.376  16.624 -0.0572 -0.1741  0.2275
80357W        W23451  15.267  29.599  18.572  0.0845 -0.0152  0.1827
80358W        W23452  13.111  31.318  18.795 -0.3919 -0.0904 -0.3918
80359W        W23453  15.432  29.908  15.924 -0.2240 -0.0820 -0.2950
80360W        W23454  17.061  32.100  21.679 -0.2292  0.1403 -0.0398
80361W        W23455  14.410  32.317  19.433  0.0934 -0.0529 -0.1463
80362W        W23456  16.868  29.291  19.099 -0.2985 -0.1472 -0.0451
80363W        W23457  15.535  29.976  17.300  0.0609 -0.1612  0.1060
80364W        W23458  16.529  32.933  18.049 -0.0239 -0.1442  0.2443
80365W        W23459  16.145  30.358  16.834 -0.0112 -0.0040 -0.1205
80366W        W23460  16.659  28.147  19.593 -0.2026 -0.4062 -0.2774
80367W        W23461  16.496  29.221  19.408 -0.1309 -0.0645 -0.2572
80368W        W23462  16.005  31.498  16.435  0.1178 -0.0070  0.0462
80369W        W23463  17.641  31.904  18.034 -0.1371 -0.1336 -0.0732
80370W        W23464  18.889  31.561  18.629 -0.3285  0.2595 -0.1279
80371W        W23465  17.274  30.500  17.193  0.1442 -0.2621  0.0696
80372W        W23466  13.304  31.074  18.040 -0.0299  0.1437  0.2582
80373W        W23467  16.843  29.099  19.869 -0.1068 -0.1449  0.1671
80374W        W23468  16.202  31.156  19.191 -0.2658  0.0580 -0.0621
80375W        W23469  14.847  32.603  16.936  0.2045  0.3052 -0.3089
80376W        W23470  14.147  32.351  18.110  0.1477  0.0457  0.2296
80377W        W23471  15.092  32.938  16.519 -0.2896 -0.0332 -0.3253
80378W        W23472  13.892  31.129  18.087 -0.1757  0.0380  0.1616
80379W        W23473  15.194  31.314  18.446  0.1741 -0.0235  0.0078
80380W        W23474  17.324  29.658  16.762 -0.0795 -0.1727  0.0892
80381W        W23475  14.999  30.743  19.183 -0.1324 -0.0157 -0.0242
80382W        W23476  17.499  29.735  17.318 -0.1018 -0.4800  0.1288
80383W        W23477  14.924  31.483  16.050  0.0900  0.1855  0.0280
80384W        W23478  18.130  32.380  16.362 -0.0619  0.1606 -0.0869
80385W        W23479  18.495  31.292  16.133 -0.2303  0.3080 -0.0600
80386W        W23480  17.656  31.994  16.945 -0.3500 -0.1304  0.2262
80387W        W23481  15.007  29.807  18.963  0.0728  0.0868 -0.0977
80388W        W23482  13.079  29.088  18.036  0.0227 -0.1798 -0.1655
80389W        W23483  14.596  29.423  19.002  0.0804 -0.0597  0.1174
80390W        W23484  14.644  29.820  17.579 -0.0506 -0.1738  0.0661
80391W        W23485  16.961  31.727  18.103  0.0782 -0.0119  0.0480
80392W        W23486  14.225  30.498  17.022 -0.1806 -0.3109  0.2071
80393W        W23487  16.484  31.300  16.500  0.0390 -0.2870 -0.3347
80394W        W23488  16.490  29.906  18.702  0.1334  0.1140  0.0273
80395W        W23489  13.773  31.108  17.599 -0.0973 -0.0288 -0.0789
80396W        W23490  18.598  30.053  21.228  0.2216 -0.1320 -0.5295
80397W        W23491  17.587  31.381  17.940 -0.1104  0.0903 -0.1311
80398W        W23492  18.086  32.450  20.239 -0.2944 -0.3227  0.0174
80399W        W23493  18.074  31.107  18.157 -0.1467 -0.1526  0.1856
80400W        W23494  14.693  30.521  19.565 -0.1793 -0.2166 -0.0817
80401W        W23495  15.556  29.474  16.479  0.1056 -0.1776 -0.0136
80402W        W23496  14.419  33.261  18.058 -0.1569 -0.2475  0.1923
80403W        W23497  14.740  30.912  17.611  0.1454 -0.2454  0.0296
80404W        W23498  15.828  29.920  16.921 -0.0781  0.1619  0.0703
80405W        W23499  17.316  32.072  18.383 -0.2148 -0.0933 -0.1815
80406W        W23500  15.568  32.178  16.333 -0.0499 -0.0425 -0.2106
80407W        W23501  14.103  30.540  17.935 -0.0459 -0.0953  0.0506
80408W        W23502  16.903  29.525  19.534 -0.1338  0.0252 -0.1442
80409W        W23503  18.528  31.534  20.067 -0.3679  0.1218 -0.3175
80410W        W23504  15.078  30.366  17.332 -0.2057  0.0455 -0.0048
80411W        W23505  15.801  30.651  16.562 -0.0758 -0.1787  0.0108
80412W        W23506  16.440  31.836  17.902  0.2115 -0.2425 -0.1812
80413W        W23507  15.210  31.947  16.742  0.4985  0.1673 -0.0331
80414W        W23508  13.310  30.682  17.659  0.2165 -0.1683 -0.3712
80415W        W23509  16.660  31.353  17.911  0.0693 -0.0654  0.0251
80416W        W23510  17.144  28.784  18.090 -0.2032  0.0359 -0.0523
80417W        W23511  14.923  31.451  19.307 -0.2162 -0.0294 -0.1332
80418W        W23512  16.683  31.590  20.554 -0.5506  0.0449  0.1300
80419W        W23513  14.817  30.908  16.671 -0.3129  0.1444 -0.0522
80420W        W23514  13.244  31.377  19.283 -0.2643 -0.2716 -0.0858
80421W        W23515  16.710  28.851  16.574  0.1130  0.2292 -0.2667
80422W        W23516  17.815  29.860  16.489  0.0234 -0.1627  0.0362
80423W        W23517  14.715  29.969  18.024 -0.0994  0.1413 -0.1513
80424W        W23518  17.747  30.547  17.122 -0.0936 -0.0354  0.1165
80425W        W23519  17.497  28.722  16.925  0.0284 -0.0910  0.0550
80426W        W23520  16.067  29.335  16.828 -0.0200 -0.2346  0.0451
80427W        W23521  15.020  31.995  19.665 -0.0378 -0.1278  0.0732
80428W        W23522  17.125  29.767  18.336  0.0710 -0.0378 -0.0344
80429W        W23523  16.436  30.122  17.283  0.2096 -0.0541  0.1718
80430W        W23524  16.307  31.240  15.962 -0.3222 -0.1034 -0.1289
80431W        W23525  18.142  32.310  16.858 -0.2225 -0.0794  0.0640
80432W        W23526  14.555  30.341  17.469 -0.1297  0.0835  0.2781
80433W        W23527  15.944  30.568  18.123  0.1106 -0.2136  0.0139
80434W        W23528  17.252  31.745  17.711  0.3412 -0.3889  0.1045
80435W        W23529  15.765  28.780  18.514 -0.0373 -0.1377  0.2215
80436W        W23530  16.074  30.988  16.283 -0.2905  0.1474  0.2420
80437W        W23531  16.751  28.918  18.588  0.3411  0.0035  0.0347
80438W        W23532  14.715  32.563  14.933  0.1255  0.1103  0.0983
80439W        W23533  18.239  29.228  19.927 -0.0434 -0.0187  0.1547
80440W        W23534  15.141  28.659  17.431 -0.1673 -0.1814 -0.1612
80441W        W23535  16.737  28.444  18.119 -0.0975 -0.1042  0.1460
80442W        W23536  16.651  31.038  18.853 -0.0410 -0.1869  0.0501
80443W        W23537  16.447  30.344  16.456 -0.0586  0.1656 -0.1213
80444W        W23538  16.091  30.259  18.729 -0.3221  0.0115 -0.2650
80445W        W23539  15.420  31.404  15.851 -0.1614  0.0219  0.0836
80446W        W23540  17.089  30.052  19.285 -0.1256 -0.2238 -0.3987
80447W        W23541  14.073  30.628  19.365 -0.2044 -0.0055 -0.1087
80448W        W23542  14.360  32.767  18.377  0.2662  0.3476 -0.3341
80449W        W23543  16.937  31.779  18.688  0.0474 -0.0372  0.2237
80450W        W23544  15.484  30.606  17.269  0.3539 -0.0553 -0.0395
80451W        W23545  15.946  29.511  19.810  0.0522 -0.1134 -0.2316
80452W        W23546  15.960  28.629  15.518 -0.0627 -0.1359  0.0068
80453W        W23547  15.595  32.901  16.659  0.3350  0.3323 -0.1165
80454W        W23548  15.936  31.555  17.085 -0.0146  0.1808  0.0681
80455W        W23549  14.793  29.756  18.484 -0.0839 -0.2770 -0.2650
80456W        W23550  16.235  31.300  18.586  0.0370  0.0406 -0.2192
80457W        W23551  15.468  32.846  17.599  0.1779 -0.4361 -0.2014
80458W        W23552  16.941  30.728  18.577 -0.0073 -0.2184  0.1579
80459W        W23553  14.802  33.244  17.185  0.1053 -0.1218  0.1555
80460W        W23554  17.862  28.345  19.268  0.0169 -0.0849 -0.0396
80461W        W23555  14.550  32.149  17.826 -0.1683 -0.0987  0.0085
80462W        W23556  14.213  31.453  17.110 -0.3237  0.3626 -0.0515
80463W        W23557  13.859  31.589  16.182  0.2409 -0.1405  0.0720
80464W        W23558  16.242  29.100  16.324  0.0768 -0.0057 -0.0319
80465W        W23559  17.743  31.372  17.077  0.1039  0.1012 -0.1352
80466W        W23560  14.561  30.474  18.307 -0.4677 -0.0278 -0.1187
80467W        W23561  17.410  29.744  19.904 -0.0930  0.1469 -0.0877
80468W        W23562  13.154  31.822  19.850  0.2022  0.0876 -0.5022
80469W        W23563  16.453  30.679  19.541  0.1234 -0.5028  0.0349
80470W        W23564  17.990  29.757  17.570 -0.2476  0.4632 -0.2436
80471W        W23565  15.811  30.675  18.750  0.1960 -0.1111 -0.0483
80472W        W23566  15.485  30.499  19.105 -0.2227  0.1142  0.2068
80473W        W23567  13.056  31.163  16.149 -0.0178  0.0168 -0.1569
80474W        W23568  18.092  30.458  18.390 -0.5048 -0.0234 -0.5278
80475W        W23569  16.482  29.443  18.130 -0.0506  0.0003  0.0805
80476W        W23570  15.959  32.097  17.002  0.3466 -0.4248  0.0383
80477W        W23571  14.150  32.068  17.226  0.5027 -0.0027  0.1544
80478W        W23572  15.367  30.875  16.851 -0.1622 -0.1771  0.0187
80479W        W23573  15.049  30.484  16.790 -0.0777 -0.1641 -0.3131
80480W        W23574  13.340  30.147  19.636  0.0148  0.2310 -0.0544
80481W        W23575  16.897  32.354  18.373  0.2466 -0.1747 -0.1164
80482W        W23576  16.024  30.382  17.354  0.1850 -0.1220 -0.1579
80483W        W23577  13.776  31.704  17.206 -0.0048  0.0129  0.3866
80484W        W23578  16.940  29.201  18.229  0.1809 -0.1452  0.3038
80485W        W23579  18.158  31.319  18.629  0.1854 -0.2266  0.2044
80486W        W23580  16.681  29.787  19.185  0.0138 -0.1322 -0.4343
80487W        W23581  14.947  32.552  17.911  0.1626 -0.0501  0.1591
80488W        W23582  16.278  29.048  18.835  0.0499 -0.1050 -0.3105
80489W        W23583  17.750  33.122  17.053 -0.1605 -0.0045 -0.1530
80490W        W23584  15.478  30.037  19.440 -0.3854  0.3570 -0.2632
80491W        W23585  15.012  30.972  15.780  0.2811 -0.0820  0.1343
80492W        W23586  14.358  31.129  18.041 -0.0717 -0.1958  0.5289
80493W        W23587  14.126  33.034  16.515  0.1755 -0.1954 -0.0029
80494W        W23588  15.433  30.688  20.161 -0.0962  0.1346 -0.0871
80495W        W23589  14.668  31.574  17.845 -0.0537 -0.2380  0.0662
80496W        W23590  15.748  32.596  17.113 -0.0257  0.2510  0.1124
80497W        W23591  15.698  31.855  19.362 -0.0025  0.2706 -0.0988
80498W        W23592  16.175  28.015  18.052 -0.2689  0.1174 -0.3888
80499W        W23593  16.839  30.935  16.572  0.0061 -0.1582 -0.0003
80500W        W23594  17.183  29.406  17.160  0.0363 -0.0807 -0.0713
80501W        W23595  18.095  30.654  17.922 -0.1646 -0.0417  0.0274
80502W        W23596  16.784  31.133  16.015  0.0126  0.1595  0.0419
80503W        W23597  17.941  29.728  19.837  0.1648  0.1757 -0.0216
80504W        W23598  15.170  31.269  17.796  0.0818 -0.4551  0.0013
80505W        W23599  17.085  29.623  17.741  0.0341 -0.1119 -0.3341
80506W        W23600  14.325  30.235  19.303 -0.0270 -0.0144 -0.2276
80507W        W23601  17.434  31.620  18.603 -0.3477 -0.0076 -0.0224
80508W        W23602  14.707  28.427  19.289 -0.1403  0.2992  0.1298
80509W        W23603  14.809  29.350  17.677 -0.0695 -0.1298  0.2367
80510W        W23604  16.232  29.011  17.938 -0.1771 -0.0426 -0.0641
80511W        W23605  17.034  31.338  18.739 -0.0879  0.0444 -0.0927
80512W        W23606  17.274  30.823  18.973 -0.1839  0.0724  0.2674
80513W        W23607  14.685  31.472  16.627 -0.2290  0.1111  0.0468
80514W        W23608  18.247  29.970  16.753 -0.1909  0.2330  0.0101
80515W        W23609  14.750  30.218  18.710 -0.0308 -0.3547  0.0326
80516W        W23610  16.734  31.952  16.606 -0.2737  0.0697 -0.0264
80517W        W23611  16.331  31.214  16.985 -0.2536 -0.2483 -0.1837
80518W        W23612  13.873  29.614  16.940  0.1188 -0.0070  0.0682
80519W        W23613  14.983  30.241  19.219  0.0290  0.0943 -0.0507
80520W        W23614  17.904  31.122  17.527 -0.0690  0.4176  0.4315
80521W        W23615  18.023  28.504  18.175  0.0085  0.0549  0.1139
80522W        W23616  15.778  31.311  19.429  0.0489  0.1360 -0.1669
80523W        W23617  18.372  30.057  18.616 -0.0488  0.1494  0.2284
80524W        W23618  14.975  30.675  20.474  0.1372 -0.0854 -0.0123
80525W        W23619  14.672  29.221  18.562 -0.0352  0.0676  0.3646
80526W        W23620  16.462  32.169  18.560 -0.0330  0.0864  0.0477
80527W        W23621  16.538  30.780  16.203 -0.2913 -0.0939  0.1694
80528W        W23622  17.474  28.760  19.624  0.1764  0.0284  0.3492
80529W        W23623  18.075  30.851  16.102 -0.1287 -0.1238  0.2732
80530W        W23624  16.568  31.692  16.188  0.0484 -0.0085  0.0564
80531W        W23625  15.162  29.925  16.869  0.0858  0.0899 -0.1764
80532W        W23626  18.524  30.256  18.081 -0.3626 -0.1747  0.3012
80533W        W23627  15.964  30.001  15.916  0.0104 -0.1759 -0.2330
80534W        W23628  15.807  30.507  19.817  0.2270 -0.1126 -0.1029
80535W        W23629  16.475  32.464  15.812 -0.1567 -0.3738  0.2900
80536W        W23630  18.714  31.069  18.803  0.0360  0.0049  0.3465
80537W        W23631  16.015  29.902  17.406  0.0328 -0.1471 -0.1104
80538W        W23632  15.680  29.919  17.847  0.4270 -0.1314  0.1835
80539W        W23633  15.793  32.340  19.090  0.1413 -0.0258  0.1571
80540W        W23634  14.646  29.637  16.131 -0.0503  0.1908  0.0253
80541W        W23635  14.176  30.986  16.921 -0.1094 -0.1061  0.0237
80542W        W23636  15.369  30.872  18.716 -0.1871 -0.1343  0.0948
80543W        W23637  18.857  31.868  20.010  0.5450 -0.1480 -0.1019
80544W        W23638  15.633  28.105  16.591 -0.0001  0.2678 -0.0428
80545W        W23639  18.220  30.554  20.025  0.2286  0.3748  0.1848
80546W        W23640  15.056  30.139  16.459 -0.0551  0.0338  0.1248
80547W        W23641  16.743  29.222  16.150  0.4042 -0.0901  0.0804
80548W        W23642  15.282  32.717  18.234 -0.0474 -0.2155  0.0613
80549W        W23643  14.852  31.754  18.302  0.0704 -0.0201 -0.0746
80550W        W23644  14.585  31.101  17.136 -0.2424 -0.1077  0.2894
80551W        W23645  16.004  30.034  19.846 -0.0148 -0.0318  0.0640
80552W        W23646  17.142  30.340  18.905 -0.0534  0.0361  0.0120
80553W        W23647  15.580  30.380  17.720  0.0643  0.3247 -0.1134
80554W        W23648  18.886  29.420  17.765 -0.0545  0.0277  0.0640
80555W        W23649  15.995  32.951  17.423 -0.3541 -0.0483 -0.0051
80556W        W23650  14.223  30.767  17.447  0.1418  0.1743 -0.1363
80557W        W23651  14.232  31.715  18.128 -0.1271  0.1217  0.0692
80558W        W23652  16.766  30.447  17.947  0.0363  0.2556 -0.1205
80559W        W23653  14.661  32.106  16.824  0.2002 -0.1816  0.1220
80560W        W23654  14.400  31.932  18.619 -0.0150 -0.1266  0.1070
80561W        W23655  16.894  30.213  18.394 -0.2561  0.0881 -0.0108
80562W        W23656  15.836  29.472  17.262 -0.0475  0.1099  0.3053
80563W        W23657  14.716  30.118  16.992  0.0236 -0.0965  0.1577
80564W        W23658  15.752  31.744  16.093 -0.2541  0.3496  0.2720
80565W        W23659  15.645  31.961  18.802  0.1399 -0.2519  0.1838
80566W        W23660  14.980  31.206  18.889  0.2747  0.0098 -0.1099
80567W        W23661  14.287  31.574  15.376 -0.2140  0.0480  0.0899
80568W        W23662  17.347  30.996  16.229  0.2298 -0.1909 -0.0159
80569W        W23663  17.288  32.029  16.609 -0.3701 -0.0021  0.2220
80570W        W23664  17.118  32.227  18.844  0.0468 -0.1705 -0.2754
80571W        W23665  14.846  30.587  16.251 -0.1053  0.0917 -0.3189
80572W        W23666  15.383  30.967  18.206  0.0195 -0.1805 -0.2245
80573W        W23667  14.843  31.928  16.325  0.2693 -0.1547  0.2853
80574W        W23668  17.114  32.245  17.047 -0.2716  0.0810  0.0938
80575W        W23669  14.571  32.855  16.378  0.1655  0.1244  0.0312
80576W        W23670  15.808  30.820  19.299 -0.1830  0.0823  0.1805
80577W        W23671  17.545  28.278  17.099  0.1139 -0.0343  0.1089
80578W        W23672  17.633  29.677  18.428  0.2491  0.1501  0.1557
80579W        W23673  17.434  30.157  16.447 -0.1274 -0.3501  0.1075
80580W        W23674  15.513  30.056  18.849  0.1059 -0.1906  0.2127
80581W        W23675  16.761  30.723  17.550 -0.0654  0.0473  0.1554
80582W        W23676  15.124  29.599  16.175  0.3466 -0.2557 -0.0885
80583W        W23677  15.400  31.084  19.195 -0.1832  0.1083 -0.3154
80584W        W23678  17.938  30.408  19.516 -0.0816  0.1842 -0.1722
80585W        W23679  14.368  33.347  19.566 -0.0230  0.1027  0.3951
80586W        W23680  18.702  31.527  17.200  0.3338  0.0313 -0.0184
80587W        W23681  14.238  30.340  15.809  0.0243 -0.2279  0.0536
80588W        W23682  13.871  30.665  16.551 -0.2020 -0.3964  0.0325
80589W        W23683  17.227  29.360  18.625  0.0513  0.2146 -0.0654
80590W        W23684  15.643  31.245  16.278  0.0102 -0.1710  0.1521
80591W        W23685  16.632  29.286  17.669  0.0782 -0.3222  0.0368
80592W        W23686  14.646  32.244  17.357  0.1705  0.0361  0.2085
80593W        W23687  15.891  32.457  16.648  0.3584  0.0568  0.1128
80594W        W23688  15.213  31.922  18.565 -0.1927 -0.1316  0.1521
80595W        W23689  14.133  30.319  16.311 -0.1004 -0.1237  0.1488
80596W        W23690  17.305  30.655  16.711 -0.2717 -0.0050 -0.0042
80597W        W23691  15.172  30.001  18.284  0.0504 -0.1258 -0.2825
80598W        W23692  17.761  30.894  19.847 -0.1172  0.2153 -0.1492
80599W        W23693  15.478  31.373  16.929 -0.3096 -0.3223  0.3500
80600W        W23694  16.804  29.676  17.367  0.0291 -0.0511  0.1914
80601W        W23695  15.265  30.413  18.650 -0.0925 -0.1247  0.0216
80602W        W23696  12.969  29.645  19.190 -0.0001 -0.1317  0.0062
80603W        W23697  15.908  31.154  16.733  0.1585 -0.1539  0.1148
80604W        W23698  17.608  29.855  17.921  0.1300  0.1231 -0.0525
80605W        W23699  16.852  30.483  16.883  0.3324 -0.0554 -0.3832
80606W        W23700  16.516  31.794  19.799 -0.1303 -0.0882 -0.1157
80607W        W23701  14.709  29.227  17.201  0.1148  0.0033 -0.3106
80608W        W23702  16.350  30.804  16.695  0.2336  0.1936 -0.1779
80609W        W23703  15.142  31.121  17.175 -0.1836  0.1221  0.1119
80610W        W23704  14.706  30.639  17.113  0.1479 -0.1312  0.1088
80611W        W23705  17.582  30.785  20.775  0.1019  0.1055 -0.3336
80612W        W23706  15.360  27.757  16.832 -0.7779 -0.4214 -0.3099
80613W        W23707  17.248  30.608  17.712  0.2264  0.1232 -0.0104
80614W        W23708  17.513  30.028  18.994  0.0865  0.4186  0.2337
80615W        W23709  14.866  32.778  15.984 -0.3843 -0.0193 -0.1728
80616W        W23710  16.387  29.803  17.682  0.1001  0.0773 -0.0340
80617W        W23711  16.931  34.035  19.081  0.1208 -0.1308 -0.1128
80618W        W23712  14.662  30.793  18.722  0.0659 -0.2202  0.3195
80619W        W23713  17.150  31.726  19.116 -0.1132 -0.1382 -0.0184
80620W        W23714  15.930  31.610  18.960 -0.1234  0.2384 -0.0709
80621W        W23715  15.200  29.169  17.340  0.1488  0.0524  0.2070
80622W        W23716  15.019  29.616  17.285 -0.1269  0.1238 -0.2062
80623W        W23717  15.322  31.614  17.405  0.2476 -0.1048 -0.3077
80624W        W23718  17.622  28.741  18.395 -0.4467  0.1843  0.0400
80625W        W23719  17.376  29.637  19.368 -0.2247  0.2422  0.0731
80626W        W23720  13.490  32.342  16.577 -0.3783  0.0055  0.1540
80627W        W23721  17.793  29.837  20.890  0.0688  0.0937 -0.1023
80628W        W23722  15.695  31.331  17.964  0.2300  0.3403 -0.0305
80629W        W23723  14.768  32.227  18.494 -0.2578  0.0414  0.0515
80630W        W23724  15.880  31.547  15.611 -0.0606  0.0154 -0.4308
80631W        W23725  15.871  31.017  18.342 -0.0840 -0.1202 -0.2003
80632W        W23726  16.239  32.576  17.173  0.2285 -0.1364  0.2742
80633W        W23727  15.620  31.750  16.621  0.1023  0.3246 -0.2455
80634W        W23728  18.204  31.339  19.727 -0.1267 -0.1262  0.2213
80635W        W23729  16.889  29.424  16.702  0.0181 -0.1402  0.1437
80636W        W23730  17.937  30.977  16.912 -0.2764  0.0869  0.2783
80637W        W23731  16.405  30.316  18.317 -0.1643  0.1669  0.2562
80638W        W23732  16.618  29.408  18.610  0.0519  0.1983 -0.2541
80639W        W23733  17.662  29.215  17.025  0.2916 -0.1733  0.3419
80640W        W23734  16.170  31.403  18.101 -0.2221 -0.0669  0.0614
80641W        W23735  13.778  30.604  16.026 -0.1284 -0.0412 -0.2324
80642W        W23736  15.294  31.760  16.180  0.4872  0.2590  0.1087
80643W        W23737  13.631  31.246  17.154  0.0068  0.1821  0.2356
80644W        W23738  16.196  29.380  21.973 -0.1882 -0.0640 -0.2838
80645W        W23739  14.272  30.440  18.751 -0.3876  0.0541  0.2253
80646W        W23740  16.685  31.177  18.372  0.1357  0.0517  0.2845
80647W        W23741  15.700  29.512  18.186 -0.1618  0.0236 -0.0375
80648W        W23742  16.905  30.919  17.999 -0.1148 -0.1083  0.3120
80649W        W23743  15.744  29.032  18.037  0.0833  0.3403  0.0347
80650W        W23744  14.942  28.582  17.903  0.1326  0.1954 -0.3766
80651W        W23745  16.892  31.482  16.896 -0.0063  0.2543 -0.0027
80652W        W23746  16.789  32.347  17.508 -0.3173 -0.1702 -0.1522
80653W        W23747  15.419  29.553  17.625  0.1821  0.1345  0.0209
80654W        W23748  18.615  31.705  19.537 -0.0466  0.1258  0.1598
80655W        W23749  15.223  30.373  15.948  0.1918  0.1744 -0.5343
80656W        W23750  14.995  30.975  19.655 -0.0519 -0.0068  0.0303
80657W        W23751  15.586  28.878  20.639 -0.0284 -0.0161  0.2412
80658W        W23752  13.741  30.698  17.080 -0.0064 -0.2158 -0.1128
80659W        W23753  17.254  28.850  18.772  0.2000 -0.4057  0.0580
80660W        W23754  16.629  32.506  17.974  0.1921  0.3374 -0.1170
80661W        W23755  17.010  32.015  16.201  0.0264  0.2340  0.1280
80662W        W23756  14.301  31.257  17.575 -0.2917  0.1376  0.1854
80663W        W23757  14.877  33.306  19.817  0.0732  0.2380 -0.0468
80664W        W23758  13.904  28.862  17.944 -0.1586  0.3168  0.1504
80665W        W23759  17.404  31.730  15.650 -0.0655 -0.1985 -0.1680
80666W        W23760  15.263  33.275  19.507 -0.0858 -0.0293  0.1560
80667W        W23761  19.123  32.313  16.273 -0.1662 -0.2663 -0.0122
80668W        W23762  18.048  27.960  19.570  0.0451 -0.3279  0.0683
80669W        W23763  15.641  31.144  17.355 -0.0001 -0.1038  0.1946
80670W        W23764  15.380  29.605  19.186  0.0853 -0.0522 -0.0630
80671W        W23765  13.865  31.741  18.475 -0.1170 -0.0499  0.2040
80672W        W23766  16.529  31.552  18.905 -0.2363 -0.1701  0.0531
80673W        W23767  15.270  28.256  17.695 -0.0964  0.2437  0.2233
80674W        W23768  17.315  29.038  16.600 -0.2140  0.0644 -0.3291
80675W        W23769  16.852  30.983  17.044 -0.0117  0.3699  0.0979
80676W        W23770  14.214  30.002  17.298 -0.2017  0.1417  0.1075
80677W        W23771  16.338  29.612  17.219 -0.0220 -0.0116  0.1975
80678W        W23772  16.729  29.955  17.989  0.0430  0.3974  0.1540
80679W        W23773  17.627  31.155  18.529 -0.2694 -0.1654 -0.0318
80680W        W23774  17.469  31.370  20.004  0.2212  0.0057  0.4160
80681W        W23775  15.711  28.959  17.217 -0.1064  0.1907 -0.1343
80682W        W23776  17.253  31.120  16.747  0.1230 -0.1157 -0.3543
80683W        W23777  16.404  32.281  19.955 -0.1679  0.1421  0.1290
80684W        W23778  17.827  32.116  20.465 -0.1752  0.2387  0.0226
80685W        W23779  16.365  30.803  17.928 -0.1676  0.0956  0.2235
80686W        W23780  17.821  29.487  19.058 -0.1534 -0.2360  0.0033
80687W        W23781  13.900  29.958  18.716 -0.1046 -0.0538 -0.0477
80688W        W23782  14.114  33.270  15.868 -0.2560 -0.3599 -0.2349
80689W        W23783  15.946  30.814  17.086  0.0872  0.1120  0.0029
80690W        W23784  17.081  29.839  18.833 -0.0612  0.0651 -0.1642
80691W        W23785  17.589  29.304  17.574 -0.3858 -0.1724  0.0656
80692W        W23786  16.363  29.418  15.915 -0.0545 -0.1663  0.5897
80693W        W23787  15.633  32.820  18.572 -0.1017 -0.1021  0.2432
80694W        W23788  16.543  31.663  18.369  0.0259  0.4791 -0.0988
80695W        W23789  15.590  31.311  22.898  0.0254  0.1689  0.0480
80696W        W23790  15.647  29.953  20.642  0.1020  0.2055  0.1238
80697W        W23791  16.521  29.652  19.813 -0.2059 -0.2633  0.0140
80698W        W23792  16.015  30.966  19.761 -0.2753  0.2590 -0.1260
80699W        W23793  13.591  28.342  19.593  0.0159 -0.1648  0.0952
80700W        W23794  17.186  31.426  19.619  0.0030  0.1322  0.1100
80701W        W23795  13.618  28.716  23.799  0.3216  0.1414 -0.1999
80702W        W23796  17.016  32.326  22.264  0.2363 -0.2072  0.0856
80703W        W23797  18.736  33.198  21.919  0.0762  0.0807 -0.1440
80704W        W23798  17.884  30.861  20.362 -0.2018 -0.0103 -0.1289
80705W        W23799  14.974  30.208  23.446  0.0057 -0.3745  0.1114
80706W        W23800  16.875  31.892  23.088  0.3057 -0.2405 -0.1265
80707W        W23801  15.221  28.433  20.678  0.0921  0.2005  0.1815
80708W        W23802  14.573  28.183  20.161  0.1031  0.2562 -0.1781
80709W        W23803  17.226  30.809  22.308  0.0715  0.1392  0.2445
80710W        W23804  14.533  30.457  20.355 -0.0338  0.0531 -0.2390
80711W        W23805  14.799  30.376  22.024  0.0776  0.2474 -0.2442
80712W        W23806  16.320  31.270  20.190  0.0935 -0.0265  0.1378
80713W        W23807  17.204  32.268  19.878 -0.1137 -0.1052 -0.0529
80714W        W23808  15.558  27.591  24.288 -0.0904 -0.0925 -0.2238
80715W        W23809  17.077  29.682  22.039 -0.3388  0.1699 -0.0445
80716W        W23810  15.320  31.288  20.687 -0.1356 -0.1233  0.0315
80717W        W23811  14.212  29.575  18.559  0.1802  0.1502 -0.2027
80718W        W23812  14.685  28.996  21.291  0.3418 -0.0195  0.0739
80719W        W23813  15.275  29.834  23.958 -0.0415  0.2615  0.2583
80720W        W23814  16.829  30.913  22.969  0.0787  0.0568  0.2801
80721W        W23815  16.907  30.630  20.373 -0.1578 -0.2608  0.2675
80722W        W23816  16.546  31.482  22.303 -0.0774 -0.0891 -0.1161
80723W        W23817  15.849  32.270  22.084 -0.1650 -0.1469  0.1186
80724W        W23818  17.029  31.380  23.158 -0.2323  0.1025 -0.2274
80725W        W23819  13.963  31.275  20.130 -0.0368 -0.1339 -0.0537
80726W        W23820  14.665  32.535  21.219 -0.2537 -0.0472  0.2014
80727W        W23821  16.904  33.540  20.667  0.3149 -0.2818  0.1349
80728W        W23822  18.014  31.483  22.646  0.1152 -0.2668 -0.1652
80729W        W23823  17.836  31.058  23.479 -0.1356  0.1679 -0.4183
80730W        W23824  16.022  32.875  23.800 -0.1029 -0.2481  0.0903
80731W        W23825  13.828  32.310  20.284 -0.0526  0.1003 -0.4397
80732W        W23826  16.830  32.670  24.893 -0.0781  0.3439 -0.1704
80733W        W23827  14.686  32.697  22.888  0.1542 -0.0536 -0.0609
80734W        W23828  16.779  31.043  22.505 -0.1152  0.0750  0.4801
80735W        W23829  16.037  30.561  20.805  0.2121  0.0876 -0.0636
80736W        W23830  15.114  32.900  20.283 -0.1140 -0.0462  0.1967
80737W        W23831  14.317  31.408  20.474  0.4522  0.1334  0.0719
80738W        W23832  15.873  32.587  23.054 -0.0932  0.3167 -0.1101
80739W        W23833  14.528  32.897  20.500 -0.4271  0.2513  0.1827
80740W        W23834  17.614  29.028  23.790  0.2453 -0.1556 -0.0859
80741W        W23835  14.773  32.532  19.024  0.1109  0.0841 -0.3377
80742W        W23836  16.763  31.328  19.914  0.1430  0.1923  0.0306
80743W        W23837  15.744  31.584  20.910  0.0641 -0.1736  0.0315
80744W        W23838  16.769  31.095  20.393 -0.2457  0.0359 -0.1196
80745W        W23839  15.069  27.916  22.578  0.1342  0.0703  0.3330
80746W        W23840  15.324  30.940  22.452  0.0211  0.0272  0.4635
80747W        W23841  15.578  29.522  23.677  0.0724 -0.1617  0.1173
80748W        W23842  17.043  30.782  21.789 -0.0998 -0.0628 -0.0688
80749W        W23843  15.579  30.824  21.088  0.0088 -0.0762  0.2820
80750W        W23844  15.959  30.382  21.830 -0.1603 -0.0517  0.0576
80751W        W23845  14.520  32.446  22.463 -0.0681  0.1615  0.1592
80752W        W23846  13.322  31.181  22.121  0.0135 -0.1237 -0.0852
80753W        W23847  16.872  30.677  19.280 -0.0321 -0.2997  0.1971
80754W        W23848  16.218  32.487  21.708 -0.0678  0.5972 -0.0957
80755W        W23849  16.777  32.657  20.171 -0.2431 -0.2187  0.2071
80756W        W23850  14.719  31.863  21.207 -0.0693 -0.2302 -0.0708
80757W        W23851  14.868  30.762  22.734 -0.4484  0.0017  0.1929
80758W        W23852  14.701  29.758  23.722 -0.0754  0.0588  0.2121
80759W        W23853  14.888  29.449  19.456 -0.1405  0.0074  0.2291
80760W        W23854  17.966  29.385  23.648 -0.2691 -0.0355  0.3288
80761W        W23855  15.758  31.877  22.608 -0.0856  0.2131  0.0790
80762W        W23856  18.354  29.980  22.295 -0.2451 -0.1659 -0.2842
80763W        W23857  14.502  31.412  21.394 -0.2770  0.0744  0.0798
80764W        W23858  16.620  30.781  23.450 -0.2688 -0.0444  0.1995
80765W        W23859  17.515  30.071  19.526 -0.1958 -0.2884  0.0596
80766W        W23860  17.273  28.173  22.062  0.0080  0.1200  0.0094
80767W        W23861  18.226  30.490  22.362  0.0509 -0.1234 -0.1732
80768W        W23862  14.512  31.021  19.595 -0.2999 -0.0298  0.0976
80769W        W23863  15.603  32.163  19.791 -0.5581  0.3364 -0.0835
80770W        W23864  19.703  31.362  22.808 -0.0176  0.0097  0.1043
80771W        W23865  17.453  30.583  20.282  0.0258  0.0513 -0.0814
80772W        W23866  15.175  31.689  22.630  0.2038  0.1171 -0.2159
80773W        W23867  15.128  29.017  23.631  0.5798  0.1383 -0.0700
80774W        W23868  17.372  31.852  23.273 -0.0147  0.0566  0.1015
80775W        W23869  14.986  32.701  19.466 -0.2687 -0.2681 -0.0781
80776W        W23870  14.294  32.180  21.140  0.1642  0.0076  0.1074
80777W        W23871  15.800  31.160  18.882  0.2804 -0.0511  0.1084
80778W        W23872  13.054  28.780  22.834 -0.2776  0.4920  0.0767
80779W        W23873  15.175  30.810  21.938 -0.1049 -0.1309 -0.0558
80780W        W23874  17.608  29.402  21.084 -0.1794 -0.0020  0.2791
80781W        W23875  13.804  29.355  22.514 -0.2002  0.3173 -0.2079
80782W        W23876  18.113  28.269  21.550  0.1335  0.2973 -0.2444
80783W        W23877  13.819  31.287  21.550 -0.0123 -0.1600 -0.0217
80784W        W23878  17.935  31.278  20.096 -0.0264 -0.2933  0.0012
80785W        W23879  16.429  30.866  21.118  0.1058 -0.3025  0.1678
80786W        W23880  17.466  31.288  19.020 -0.1256 -0.4557  0.0923
80787W        W23881  13.750  32.034  22.303  0.2385 -0.1104 -0.1691
80788W        W23882  16.008  31.465  22.061  0.0697  0.0059 -0.0443
80789W        W23883  15.796  28.248  22.469  0.1005  0.0786 -0.0446
80790W        W23884  14.692  28.477  23.070 -0.0010 -0.0247 -0.2091
80791W        W23885  17.749  30.846  24.140  0.2089 -0.0096  0.0099
80792W        W23886  14.380  29.434  19.749 -0.0465 -0.0091 -0.3798
80793W        W23887  16.321  30.217  21.236 -0.1843 -0.1464 -0.2535
80794W        W23888  15.622  31.838  22.163  0.0015  0.0408  0.0881
80795W        W23889  13.283  31.226  20.705  0.1457  0.2251 -0.1702
80796W        W23890  17.186  28.812  24.061  0.2449  0.1458  0.4183
80797W        W23891  16.476  32.385  19.474 -0.0420  0.1905 -0.2998
80798W        W23892  17.992  32.349  22.857 -0.2164 -0.0833 -0.3675
80799W        W23893  18.167  31.906  20.868 -0.0624 -0.0278  0.0414
80800W        W23894  15.304  30.276  20.940 -0.0446  0.0364 -0.1054
80801W        W23895  15.391  29.638  19.721 -0.2255  0.1828  0.2412
80802W        W23896  15.242  33.125  21.480 -0.1486  0.0876  0.4207
80803W        W23897  15.528  32.423  21.159  0.1408 -0.0292 -0.0775
80804W        W23898  15.856  32.136  21.579  0.3400  0.0987  0.0230
80805W        W23899  17.812  32.817  23.006 -0.0635 -0.4094 -0.1774
80806W        W23900  16.753  32.151  22.626 -0.3962 -0.0825  0.1595
80807W        W23901  14.617  30.542  23.651 -0.3457 -0.0148 -0.2878
80808W        W23902  15.200  27.986  23.550 -0.0893 -0.2336  0.1276
80809W        W23903  17.900  29.137  23.185 -0.3114  0.2479 -0.0827
80810W        W23904  17.083  30.602  21.290 -0.1073 -0.2810  0.4627
80811W        W23905  14.338  28.690  19.575  0.3755  0.1175 -0.0503
80812W        W23906  16.660  31.067  21.964  0.2661  0.0347  0.1433
80813W        W23907  14.142  31.265  21.029 -0.2190  0.0079 -0.1200
80814W        W23908  13.488  30.887  21.386  0.0661  0.4330 -0.0161
80815W        W23909  16.105  31.446  22.578 -0.2146 -0.2718  0.0744
80816W        W23910  16.724  28.846  23.450 -0.0275 -0.0256 -0.0804
80817W        W23911  16.337  30.975  22.897  0.0311  0.0381  0.0151
80818W        W23912  17.548  30.549  22.597  0.0603  0.4447  0.2279
80819W        W23913  15.600  30.648  20.624  0.0205 -0.0662 -0.0519
80820W        W23914  15.412  32.262  23.232 -0.1437 -0.5104  0.0567
80821W        W23915  18.214  29.665  21.186  0.5232 -0.4520 -0.0795
80822W        W23916  17.221  30.972  20.144  0.0485  0.0922 -0.0178
80823W        W23917  16.132  30.955  23.428 -0.0164  0.5082  0.1748
80824W        W23918  17.231  31.660  21.214 -0.2766 -0.0433  0.0042
80825W        W23919  16.976  30.975  19.705  0.0689 -0.2225 -0.2608
80826W        W23920  16.177  29.863  20.280 -0.0341  0.0600  0.2207
80827W        W23921  15.249  32.440  23.697 -0.3108 -0.5484  0.1839
80828W        W23922  15.657  31.183  20.105 -0.2391  0.1324 -0.3326
80829W        W23923  14.844  32.187  21.560 -0.0633 -0.1697 -0.1977
80830W        W23924  15.235  30.493  19.583 -0.0386 -0.3556  0.0843
80831W        W23925  18.170  31.534  20.499 -0.2686  0.3637 -0.0959
80832W        W23926  14.353  30.660  22.617 -0.1999 -0.2585 -0.3326
80833W        W23927  17.162  30.485  23.339 -0.0367 -0.3588  0.0947
80834W        W23928  17.357  31.316  20.806  0.1859  0.1152 -0.0999
80835W        W23929  15.330  28.832  23.142 -0.1546  0.0519 -0.1214
80836W        W23930  15.665  29.730  20.137  0.1107 -0.1552  0.1176
80837W        W23931  17.195  28.704  23.530  0.4751  0.2792 -0.4392
80838W        W23932  14.229  31.425  19.475  0.2471 -0.0362  0.1385
80839W        W23933  18.560  28.625  22.806 -0.0685 -0.1400 -0.0955
80840W        W23934  15.791  30.252  21.132  0.3589  0.1245  0.0785
80841W        W23935  16.360  30.085  22.547  0.3780  0.0874 -0.0036
80842W        W23936  18.609  30.037  24.115 -0.1077 -0.2593 -0.2750
80843W        W23937  15.771  31.138  20.670  0.0147 -0.0489  0.1084
80844W        W23938  17.261  30.957  23.206  0.0255 -0.1775 -0.0628
80845W        W23939  14.934  30.526  20.029  0.0444 -0.0461  0.0805
80846W        W23940  16.515  29.246  22.830  0.0550  0.1082  0.0340
80847W        W23941  15.828  30.865  22.956 -0.2671 -0.3591  0.0101
80848W        W23942  14.714  33.543  23.471  0.0646  0.0013 -0.4481
80849W        W23943  17.448  31.680  22.794  0.0623 -0.2528  0.1575
80850W        W23944  16.319  30.993  21.562 -0.0511 -0.0557  0.3194
80851W        W23945  17.283  30.239  22.229  0.0441  0.2071 -0.0601
80852W        W23946  16.625  29.666  22.203 -0.0221  0.1159 -0.1718
80853W        W23947  15.269  33.379  20.164  0.2115  0.0960 -0.0503
80854W        W23948  14.711  31.398  20.866 -0.0960 -0.3409 -0.2142
80855W        W23949  15.181  29.512  22.603 -0.0799 -0.0601 -0.1819
80856W        W23950  16.489  32.569  22.609  0.3770 -0.1557  0.1051
80857W        W23951  17.025  31.192  19.226 -0.0453  0.0002  0.1909
80858W        W23952  16.566  29.795  21.011  0.1224 -0.2353  0.1244
80859W        W23953  15.349  31.608  18.941  0.1582 -0.0172 -0.0430
80860W        W23954  18.018  28.581  21.979 -0.0285 -0.0352 -0.1073
80861W        W23955  15.537  31.413  22.371  0.3370  0.1110  0.0857
80862W        W23956  14.356  29.074  19.284  0.0109 -0.0711  0.1694
80863W        W23957  13.836  28.844  21.648  0.0118  0.0885  0.1135
80864W        W23958  17.887  30.385  20.519  0.1139 -0.0879  0.1176
80865W        W23959  18.500  30.426  20.509 -0.1800 -0.2629 -0.0609
80866W        W23960  15.138  28.252  23.058 -0.1502  0.2257  0.1741
80867W        W23961  15.040  29.942  22.324  0.1259  0.0970  0.0041
80868W        W23962  13.890  32.750  21.558  0.1592  0.4036 -0.0732
80869W        W23963  16.305  31.046  22.312 -0.2983  0.0324  0.1658
80870W        W23964  17.073  29.327  21.194 -0.0171 -0.0184 -0.1414
80871W        W23965  17.187  31.854  22.109 -0.1205 -0.2949 -0.2400
80872W        W23966  16.241  30.987  23.901 -0.0509  0.1394  0.5150
80873W        W23967  13.552  29.724  19.075  0.0265  0.0505  0.6678
80874W        W23968  18.075  29.868  22.707  0.3647 -0.3098 -0.1889
80875W        W23969  15.092  28.490  20.160 -0.4324  0.2545 -0.2299
80876W        W23970  15.331  32.310  19.359 -0.0312  0.2082  0.1351
80877W        W23971  16.572  32.076  21.608 -0.1311  0.2059  0.3178
80878W        W23972  15.242  31.294  21.696 -0.1247 -0.5225 -0.1071
80879W        W23973  14.715  32.082  20.060  0.0710  0.0277  0.0785
80880W        W23974  16.856  31.163  23.655 -0.2641 -0.3997  0.0487
80881W        W23975  16.859  31.631  21.591  0.3389 -0.3117 -0.2605
80882W        W23976  14.863  29.951  21.283  0.1580 -0.2125  0.1018
80883W        W23977  14.957  31.365  21.284 -0.3071  0.1939  0.1389
80884W        W23978  15.976  31.086  21.155  0.0234  0.1340 -0.0641
80885W        W23979  17.494  30.086  23.510  0.0697 -0.0488  0.0870
80886W        W23980  14.567  29.466  20.978 -0.0036  0.0180 -0.0664
80887W        W23981  15.598  33.034  22.941  0.3925  0.0585  0.0364
80888W        W23982  15.985  29.174  22.714  0.0733 -0.1773 -0.0606
80889W        W23983  16.847  32.468  21.388 -0.0233  0.1433  0.1363
80890W        W23984  15.748  30.380  25.551 -0.3139  0.0668 -0.0597
80891W        W23985  14.797  31.662  18.760  0.2784  0.1404 -0.0917
80892W        W23986  13.627  31.560  22.363 -0.1312  0.2352  0.2003
80893W        W23987  15.094  32.638  21.495 -0.1518  0.1145  0.1003
80894W        W23988  15.788  30.192  22.319  0.0346 -0.3194  0.1913
80895W        W23989  15.984  30.979  21.982  0.1379  0.1259 -0.0494
80896W        W23990  14.315  31.745  20.921 -0.3998 -0.0836  0.0694
80897W        W23991  15.559  31.936  21.209  0.1874  0.0378  0.0037
80898W        W23992  19.179  28.986  20.658  0.2022  0.1914 -0.4166
80899W        W23993  14.392  29.959  20.557  0.1521 -0.0519 -0.2782
80900W        W23994  15.687  31.595  21.620 -0.1695 -0.0561  0.0368
80901W        W23995  18.744  29.568  23.010 -0.0371 -0.1946  0.0664
80902W        W23996  17.105  31.773  20.708 -0.1157  0.1011  0.0135
80903W        W23997  16.405  29.019  24.493 -0.3169 -0.3801 -0.1682
80904W        W23998  15.714  28.778  22.369  0.0735 -0.0133  0.3254
80905W        W23999  16.718  31.784  21.102  0.2444 -0.0011 -0.0793
80906W        W24000  14.890  29.873  21.836  0.1399  0.0831  0.1380
80907W        W24001  17.976  32.557  23.464  0.2219  0.4010  0.3843
80908W        W24002  14.524  30.972  22.983 -0.0587  0.4617  0.3549
80909W        W24003  15.370  29.229  21.371  0.1288 -0.1718  0.3701
80910W        W24004  15.648  29.680  21.176  0.0529 -0.1213  0.0955
80911W        W24005  15.005  31.746  23.151  0.1539 -0.1803  0.0416
80912W        W24006  17.972  30.633  21.229 -0.1724  0.0649 -0.1027
80913W        W24007  16.419  31.430  21.195  0.2125  0.0448 -0.0674
80914W        W24008  17.848  30.875  23.001  0.1004  0.2167 -0.2667
80915W        W24009  15.383  30.124  21.974  0.1998  0.3925  0.3900
80916W        W24010  15.316  29.967  21.451  0.0511 -0.2426  0.2339
80917W        W24011  15.978  32.602  21.188  0.1007  0.1974 -0.0954
80918W        W24012  15.349  31.556  20.301 -0.0547  0.1698  0.1140
80919W        W24013  15.646  29.659  23.223  0.0184  0.2938 -0.1329
80920W        W24014  18.743  30.472  20.956 -0.1098 -0.1387  0.2435
80921W        W24015  17.191  28.788  22.628 -0.1184  0.2638 -0.3830
80922W        W24016  17.491  30.046  22.826 -0.4472  0.0071 -0.2586
80923W        W24017  17.042  30.267  21.690 -0.0279  0.0771  0.2713
80924W        W24018  16.760  31.228  24.156 -0.0363 -0.0002  0.0663
80925W        W24019  15.157  28.706  22.036  0.2146  0.0780  0.2490
80926W        W24020  17.564  32.633  22.627  0.1645 -0.2562 -0.0553
80927W        W24021  18.704  30.924  20.794  0.0110 -0.1756 -0.1363
80928W        W24022  17.802  31.884  23.005 -0.4592  0.1327 -0.0509
80929W        W24023  16.972  30.835  20.883 -0.0298 -0.1716 -0.0205
80930W        W24024  15.918  31.969  20.127 -0.0289 -0.1178 -0.1848
80931W        W24025  15.633  28.295  21.405  0.0250  0.1226 -0.3153
80932W        W24026  18.201  29.633  24.080 -0.2429  0.0428 -0.0133
80933W        W24027  16.030  28.574  19.779  0.1468 -0.0844 -0.2002
80934W        W24028  18.532  29.329  23.841  0.0474  0.1155  0.1092
80935W        W24029  17.121  31.415  20.362  0.0210 -0.0018  0.3719
80936W        W24030  16.835  30.110  21.259 -0.2556  0.0360  0.3819
80937W        W24031  16.478  29.821  21.525  0.1084  0.1273 -0.1407
80938W        W24032  12.953  31.460  22.375  0.1383  0.0988  0.1455
80939W        W24033  17.141  32.411  24.011 -0.2561  0.0702  0.0747
80940W        W24034  15.276  29.114  19.875  0.0242 -0.1162  0.1409
80941W        W24035  15.906  31.530  20.372  0.2208 -0.2019  0.0341
80942W        W24036  16.100  30.538  22.627  0.3025  0.0780 -0.0008
80943W        W24037  17.664  31.789  23.968  0.1700 -0.2461 -0.1944
80944W        W24038  16.662  29.624  20.360  0.0746  0.0763  0.0796
80945W        W24039  18.785  28.953  23.579 -0.1264  0.3845  0.0565
80946W        W24040  14.154  33.232  20.929 -0.2388  0.1156 -0.5309
80947W        W24041  17.544  30.146  21.858  0.0277  0.0249 -0.1593
80948W        W24042  16.373  33.246  22.027  0.1457  0.1813  0.2358
80949W        W24043  14.269  32.980  21.849 -0.1975  0.0782 -0.0349
80950W        W24044  14.858  32.496  20.366 -0.5632  0.1582  0.1405
80951W        W24045  15.555  30.441  21.538 -0.2779  0.1333  0.0905
80952W        W24046  16.600  31.150  19.455 -0.2506 -0.0516 -0.1125
80953W        W24047  15.335  32.093  22.734 -0.0968 -0.1231  0.2531
80954W        W24048  18.486  29.165  24.304  0.2864  0.2152 -0.1700
80955W        W24049  16.507  31.299  23.313  0.2348  0.1503  0.2949
80956W        W24050  15.457  31.307  21.177  0.0792 -0.0188 -0.1359
80957W        W24051  18.156  31.279  23.130  0.0094  0.0734  0.0438
80958W        W24052  17.209  30.421  20.731  0.1955  0.1152 -0.1155
80959W        W24053  15.178  33.199  20.964  0.1938 -0.0497 -0.0629
80960W        W24054  14.938  29.463  21.324  0.1756  0.0959  0.0623
80961W        W24055  16.683  32.173  23.553 -0.0261 -0.1312 -0.1970
80962W        W24056  15.840  31.017  22.499 -0.3198  0.3159 -0.2124
80963W        W24057  15.992  28.927  22.006  0.1873 -0.1176  0.0717
80964W        W24058  16.756  31.613  19.399 -0.3723 -0.0873  0.0501
80965W        W24059  15.560  31.693  23.224  0.0430 -0.0080  0.0282
80966W        W24060  15.590  30.497  22.662 -0.2530 -0.1927  0.1586
80967W        W24061  14.902  32.780  18.616  0.1256  0.0136 -0.1060
80968W        W24062  16.958  33.136  22.108 -0.1155  0.1184 -0.1102
80969W        W24063  16.791  32.166  20.745  0.2809  0.2301  0.1680
80970W        W24064  15.385  32.337  22.264  0.0368 -0.5704  0.0888
80971W        W24065  15.093  31.092  20.188  0.0730 -0.2353 -0.0157
80972W        W24066  14.972  31.295  22.300 -0.1826 -0.1885  0.0937
80973W        W24067  15.171  32.038  20.195  0.0769  0.0163 -0.1682
80974W        W24068  17.461  31.875  19.610 -0.2486  0.1313  0.0596
80975W        W24069  15.637  32.653  21.588 -0.2493  0.1368 -0.0672
80976W        W24070  19.207  31.051  23.776 -0.0763  0.1372 -0.3651
80977W        W24071  18.674  29.605  21.515 -0.1244 -0.1490  0.2292
80978W        W24072  18.141  30.226  20.915  0.2683  0.1198 -0.0363
80979W        W24073  18.268  29.766  20.673  0.1250  0.0767 -0.0460
80980W        W24074  17.575  32.334  23.111  0.0892  0.2166 -0.2056
80981W        W24075  16.220  31.848  22.370  0.1472  0.0148  0.4778
80982W        W24076  15.679  28.199  20.809  0.0674 -0.3499  0.2346
80983W        W24077  14.964  31.253  22.795  0.0271 -0.2244 -0.3296
80984W        W24078  18.472  29.338  23.357 -0.0440  0.4076 -0.1952
80985W        W24079  14.198  32.725  23.946  0.0401 -0.0707  0.0388
80986W        W24080  18.622  32.189  20.787 -0.1183  0.2630 -0.3066
80987W        W24081  15.040  30.880  20.952  0.4041  0.4386 -0.0669
80988W        W24082  16.605  30.625  21.471  0.0660  0.0825  0.2608
80989W        W24083  18.227  28.958  23.827  0.0674  0.1629  0.0945
80990W        W24084  16.070  31.774  21.369 -0.0934 -0.0211  0.0435
80991W        W24085  16.769  30.231  22.170  0.0461 -0.2447 -0.1469
80992W        W24086  15.980  32.304  22.621 -0.1819 -0.2046 -0.0175
80993W        W24087  14.859  32.136  22.737 -0.3409  0.1696 -0.2189
80994W        W24088  15.076  32.260  21.022 -0.0382  0.1565 -0.0270
80995W        W24089  14.659  30.423  21.152  0.0857 -0.2823  0.2151
80996W        W24090  17.996  29.336  20.523  0.0095  0.4318  0.0510
80997W        W24091  14.596  29.820  22.267  0.2586 -0.3066  0.2726
80998W        W24092  16.934  29.922  24.440 -0.1897 -0.0708 -0.0605
80999W        W24093  14.766  31.157  21.851  0.1835  0.2228 -0.1102
81000W        W24094  16.463  30.236  21.789 -0.1635 -0.2613  0.0577
81001W        W24095  17.185  31.981  23.819  0.1246  0.2170  0.2841
81002W        W24096  14.795  29.863  23.071  0.0713 -0.3659 -0.2634
81003W        W24097  16.051  32.179  19.500  0.1615 -0.3036  0.0115
81004W        W24098  18.335  30.900  23.357  0.0440 -0.0879  0.1150
81005W        W24099  15.302  31.392  19.603 -0.1254 -0.3891 -0.0424
81006W        W24100  18.416  32.707  22.091  0.1311  0.0974 -0.1507
81007W        W24101  15.224  30.254  20.431  0.1141 -0.1909 -0.2202
81008W        W24102  17.323  28.186  20.250 -0.2276 -0.3757  0.2145
81009W        W24103  14.402  31.436  19.938 -0.0579  0.0579  0.0815
81010W        W24104  17.092  31.322  22.202  0.2784 -0.2320 -0.3365
81011W        W24105  18.959  31.646  23.085  0.1033  0.2433 -0.1987
81012W        W24106  15.311  28.286  22.234 -0.1845  0.0783  0.1819
81013W        W24107  18.189  30.709  20.787 -0.0240  0.1014 -0.3875
81014W        W24108  18.483  30.496  21.457 -0.2551  0.1720 -0.1504
81015W        W24109  14.993  32.035  19.160 -0.2027 -0.2417  0.3674
81016W        W24110  16.227  31.637  19.370 -0.0063 -0.1263  0.1166
81017W        W24111  16.865  32.140  20.249 -0.3546  0.2428 -0.0398
81018W        W24112  14.681  30.254  22.493  0.0624  0.1609  0.2902
81019W        W24113  18.014  33.103  22.327 -0.1155  0.1884 -0.3057
81020W        W24114  17.222  32.157  22.843 -0.1498 -0.0567  0.1423
81021W        W24115  15.224  29.744  20.928  0.3354 -0.1535  0.0140
81022W        W24116  13.976  29.905  22.413  0.1138 -0.0662 -0.1211
81023W        W24117  14.574  31.831  19.604  0.2402 -0.4228  0.1136
81024W        W24118  18.018  30.369  22.824 -0.3794  0.0097  0.2013
81025W        W24119  17.762  30.140  22.385 -0.2116  0.4557  0.0817
81026W        W24120  16.485  33.071  18.793 -0.0047  0.3892 -0.0078
81027W        W24121  19.136  28.563  23.479  0.2557  0.1589 -0.1770
81028W        W24122  16.591  31.393  22.846 -0.3027 -0.1445 -0.2674
81029W        W24123  14.864  33.147  23.082  0.0154  0.2721  0.0403
81030W        W24124  15.945  29.507  20.522  0.1991  0.0273 -0.0275
81031W        W24125  15.702  31.183  23.395 -0.0434 -0.1961 -0.1145
81032W        W24126  15.643  31.945  20.510  0.3969  0.0457  0.3441
81033W        W24127  16.637  31.873  22.023 -0.3652  0.2748  0.1780
81034W        W24128  17.765  30.978  22.487 -0.0302  0.1192 -0.2417
81035W        W24129  15.707  31.082  21.597  0.0093 -0.0062  0.1908
81036W        W24130  17.533  30.576  21.572 -0.1062 -0.4598  0.0191
81037W        W24131  14.992  30.350  21.608 -0.2188 -0.0635  0.1791
81038W        W24132  18.959  31.967  20.484 -0.1430  0.1732  0.0874
81039W        W24133  16.946  28.850  21.277  0.1597 -0.0928 -0.1173
81040W        W24134  16.136  30.446  23.285 -0.0199 -0.2245 -0.3342
81041W        W24135  15.348  30.135  19.921  0.0042  0.2437  0.2548
81042W        W24136  15.604  31.665  19.887 -0.1939  0.0043 -0.0776
81043W        W24137  14.727  31.733  21.724  0.2343  0.1636 -0.1419
81044W        W24138  15.695  29.576  22.729 -0.2303 -0.1547 -0.0144
81045W        W24139  16.003  30.079  23.587 -0.0384  0.0462 -0.2397
81046W        W24140  14.470  29.588  21.651  0.2960 -0.2170 -0.0322
81047W        W24141  15.483  29.385  20.469  0.1234  0.1026 -0.2625
81048W        W24142  17.795  30.196  19.976  0.2055  0.1259  0.0368
81049W        W24143  14.137  29.324  21.367  0.0144  0.1483 -0.2406
81050W        W24144  14.954  28.686  21.007 -0.3623  0.2126 -0.0004
81051W        W24145  16.391  31.486  21.709 -0.0426 -0.1386  0.1444
81052W        W24146  18.480  31.832  21.237 -0.1996 -0.0184  0.2535
81053W        W24147  15.055  27.704  22.101  0.0091  0.1164 -0.0726
81054W        W24148  18.918  31.165  23.229 -0.0306  0.0129 -0.1209
81055W        W24149  14.808  31.446  20.352  0.0488 -0.2719 -0.1042
81056W        W24150  16.368  30.574  22.144 -0.0603 -0.2533 -0.0442
81057W        W24151  15.225  31.221  23.851 -0.0514  0.1928 -0.4055
81058W        W24152  16.182  29.034  19.797 -0.1191 -0.3147  0.2969
81059W        W24153  16.662  30.576  22.575 -0.2227 -0.0795 -0.1128
81060W        W24154  16.843  31.294  20.913  0.1613 -0.1339 -0.1672
81061W        W24155  17.691  31.532  20.422  0.1442  0.2398  0.0499
81062W        W24156  16.048  31.500  23.111 -0.1819 -0.0336  0.3431
81063W        W24157  16.354  31.822  22.808 -0.0834 -0.0734 -0.1619
81064W        W24158  14.235  29.310  23.460 -0.1929  0.0324  0.1163
81065W        W24159  16.242  30.678  19.006  0.1381 -0.1291 -0.0316
81066W        W24160  18.054  32.046  24.374  0.2591  0.0648  0.1956
81067W        W24161  18.715  31.022  21.691  0.3151 -0.0468 -0.1649
81068W        W24162  17.441  28.644  22.183  0.1184  0.1750 -0.2779
81069W        W24163  16.025  30.585  21.404  0.2170 -0.0648  0.2240
81070W        W24164  13.597  28.878  22.877 -0.2044  0.0865  0.1624
81071W        W24165  15.973  32.024  23.050 -0.1480 -0.2171 -0.0559
81072W        W24166  18.872  30.195  22.265 -0.0403 -0.1368  0.2268
81073W        W24167  14.396  29.061  21.704 -0.3333 -0.3297  0.1623
81074W        W24168  16.009  29.850  20.923  0.1864 -0.0785  0.3298
81075W        W24169  16.049  31.547  19.852 -0.2506 -0.0623 -0.1441
81076W        W24170  15.216  31.231  23.275 -0.2209  0.1352  0.1109
81077W        W24171  16.300  30.455  19.955  0.2735 -0.1751  0.4282
81078W        W24172  15.364  29.930  22.843 -0.3201  0.3091  0.2000
81079W        W24173  16.158  31.945  21.877 -0.2019  0.2638  0.2932
81080W        W24174  16.311  30.638  24.779 -0.2570  0.3884 -0.0357
81081W        W24175  16.346  31.206  20.661  0.0211 -0.2493  0.0627
81082W        W24176  18.368  31.108  20.401 -0.0093 -0.2590 -0.0785
81083W        W24177  17.883  31.590  23.487 -0.0735  0.1849 -0.2710
81084W        W24178  17.862  33.455  23.614 -0.1156  0.0536  0.0628
81085W        W24179  17.133  32.648  21.867 -0.1724  0.1525  0.1260
81086W        W24180  18.238  31.121  22.371 -0.1346 -0.1390  0.0576
81087W        W24181  14.581  29.247  22.335 -0.1572  0.0176  0.2941
81088W        W24182  14.520  30.923  21.007 -0.0201  0.1024  0.0510
81089W        W24183  15.144  31.701  20.950  0.0740 -0.2148  0.0859
81090W        W24184  16.954  29.994  19.757  0.0301  0.0243 -0.1453
81091W        W24185  16.614  30.477  20.949 -0.1730  0.1539 -0.1632
81092W        W24186  15.896  29.950  21.614  0.3020 -0.5453 -0.2178
81093W        W24187  16.152  32.427  23.516 -0.0123  0.1092  0.2171
81094W        W24188  16.667  32.976  22.448 -0.1851  0.1840  0.2118
81095W        W24189  17.247  32.265  27.832  0.0454 -0.0522  0.2364
81096W        W24190  15.248  29.325  23.132 -0.4230 -0.0738 -0.2323
81097W        W24191  16.480  29.389  23.832  0.2720  0.1939  0.1905
81098W        W24192  16.929  30.062  23.070 -0.0771 -0.2835 -0.2069
81099W        W24193  14.666  29.831  25.351  0.3964  0.2379  0.0398
81100W        W24194  16.900  31.675  23.559 -0.0048 -0.0560 -0.0196
81101W        W24195  14.893  30.045  25.920 -0.1141  0.4173  0.1648
81102W        W24196  16.382  31.920  24.557  0.1503  0.0769  0.0705
81103W        W24197  17.266  33.557  25.397 -0.0932 -0.0950 -0.2928
81104W        W24198  17.707  30.523  23.707  0.0425  0.1088  0.0801
81105W        W24199  16.335  31.788  26.814  0.0625 -0.2447 -0.0041
81106W        W24200  17.886  31.466  26.648  0.1221 -0.0910  0.3021
81107W        W24201  17.018  29.361  23.603  0.1911 -0.1885  0.3775
81108W        W24202  14.612  31.873  25.380  0.3034  0.0076 -0.1241
81109W        W24203  17.733  30.528  26.140  0.0519  0.2287 -0.0468
81110W        W24204  14.264  30.194  24.444  0.1653 -0.3951  0.2293
81111W        W24205  15.224  31.172  24.380  0.2326  0.1718 -0.0864
81112W        W24206  16.459  29.699  25.283  0.3613  0.0799  0.1279
81113W        W24207  17.440  32.009  26.274 -0.0894  0.1417  0.2212
81114W        W24208  16.246  30.012  25.900 -0.2430  0.0837  0.1855
81115W        W24209  16.326  28.787  27.821  0.0180  0.1162 -0.1163
81116W        W24210  16.762  31.555  24.523 -0.0233 -0.0590  0.1037
81117W        W24211  15.188  29.784  23.399 -0.2193 -0.0958  0.0314
81118W        W24212  14.957  30.261  25.468  0.1741 -0.0706 -0.0511
81119W        W24213  16.085  31.215  26.937 -0.1309  0.0326  0.4115
81120W        W24214  17.144  30.093  28.820 -0.1387 -0.0671 -0.0573
81121W        W24215  17.959  30.893  25.874  0.3936  0.2031  0.0417
81122W        W24216  17.362  33.937  25.025  0.0272  0.0250 -0.0023
81123W        W24217  16.607  31.697  25.008  0.3877 -0.0802 -0.0080
81124W        W24218  19.473  32.034  27.353 -0.0267 -0.2358  0.2841
81125W        W24219  13.860  32.629  25.111 -0.0121  0.0155  0.2955
81126W        W24220  16.337  33.353  25.372 -0.3995  0.2675  0.1185
81127W        W24221  15.907  31.902  24.399  0.1019  0.1514 -0.0030
81128W        W24222  18.155  31.524  25.899  0.2287 -0.0094 -0.1086
81129W        W24223  18.850  33.277  27.210 -0.1582 -0.0484 -0.0543
81130W        W24224  18.070  34.332  27.789  0.3578  0.3075  0.0583
81131W        W24225  15.195  31.405  26.023  0.0290  0.0263  0.2291
81132W        W24226  18.129  32.557  27.374  0.0005  0.1058 -0.0535
81133W        W24227  15.441  31.419  28.199 -0.4928 -0.5083 -0.3291
81134W        W24228  16.502  31.238  26.604 -0.0087 -0.0516  0.1138
81135W        W24229  17.191  30.367  24.371 -0.0895 -0.1235 -0.0734
81136W        W24230  16.595  32.200  26.306  0.0154 -0.1423  0.1178
81137W        W24231  15.749  31.756  25.620 -0.1450  0.0954 -0.0091
81138W        W24232  16.684  31.912  27.267 -0.0934 -0.0801 -0.1706
81139W        W24233  15.161  32.457  26.938 -0.2741 -0.2444  0.2699
81140W        W24234  17.730  30.509  28.160 -0.1210 -0.0008  0.3104
81141W        W24235  15.889  32.400  23.955 -0.0377  0.0758 -0.2809
81142W        W24236  17.369  29.664  24.462  0.1056 -0.0571 -0.1469
81143W        W24237  15.500  29.110  22.759  0.1864 -0.1019  0.3031
81144W        W24238  16.179  30.571  24.277 -0.2329  0.1394 -0.0275
81145W        W24239  16.613  30.876  25.990  0.0085  0.0754  0.3107
81146W        W24240  15.377  32.267  24.818 -0.2066  0.2024 -0.1664
81147W        W24241  15.213  30.905  26.016  0.1600 -0.1004 -0.0330
81148W        W24242  17.754  32.276  27.163 -0.0108  0.0913 -0.0874
81149W        W24243  17.212  30.872  24.225  0.1237 -0.0926  0.1344
81150W        W24244  16.616  29.894  27.300 -0.1312 -0.0514  0.1954
81151W        W24245  15.789  32.023  27.557  0.2534 -0.2242 -0.1582
81152W        W24246  13.330  31.323  24.742  0.0927 -0.1202  0.3248
81153W        W24247  17.706  32.114  23.561  0.0992 -0.0001  0.0549
81154W        W24248  18.324  32.204  25.187  0.1848  0.1213  0.2218
81155W        W24249  16.698  32.347  24.425 -0.3541  0.0006 -0.1705
81156W        W24250  15.653  31.761  26.208 -0.1271 -0.1226  0.0458
81157W        W24251  15.960  32.917  26.153  0.0759  0.0496  0.0263
81158W        W24252  13.492  32.733  27.795 -0.0414  0.0846 -0.1411
81159W        W24253  14.383  28.753  24.444  0.0010 -0.1275  0.0185
81160W        W24254  18.826  31.664  26.304 -0.0647 -0.1116 -0.0245
81161W        W24255  15.342  30.716  27.658 -0.1566 -0.1645  0.1678
81162W        W24256  17.874  30.218  27.026 -0.0591  0.0632  0.2596
81163W        W24257  15.575  32.136  25.886 -0.3373 -0.1425  0.1629
81164W        W24258  16.978  32.227  26.668  0.0216 -0.0766  0.1037
81165W        W24259  17.014  29.948  22.555 -0.1023  0.0881 -0.0962
81166W        W24260  16.914  29.532  25.520 -0.2489  0.0641  0.0360
81167W        W24261  16.583  28.598  26.222 -0.2966  0.3764  0.0805
81168W        W24262  15.325  30.388  24.681  0.0444 -0.2304 -0.1924
81169W        W24263  17.235  31.386  24.014  0.2741  0.3394  0.2842
81170W        W24264  17.663  31.814  25.846 -0.0198  0.0719 -0.3557
81171W        W24265  18.447  29.535  24.626  0.3301  0.1473 -0.1124
81172W        W24266  16.020  31.965  25.304 -0.4050 -0.1714 -0.0213
81173W        W24267  17.259  30.539  27.803  0.1550 -0.2175 -0.0545
81174W        W24268  17.095  31.807  27.580 -0.4025 -0.0673 -0.0386
81175W        W24269  15.005  32.116  23.988  0.0552  0.2960  0.3470
81176W        W24270  15.006  31.525  24.594  0.1675  0.0277 -0.0784
81177W        W24271  13.215  31.773  25.140  0.0777 -0.3344 -0.0037
81178W        W24272  14.769  30.585  25.737  0.0704 -0.1084  0.3175
81179W        W24273  16.514  31.706  26.385  0.1188 -0.0561  0.1517
81180W        W24274  17.839  28.820  25.605  0.0241 -0.1051 -0.4321
81181W        W24275  15.169  31.191  28.990  0.1665  0.0881 -0.1525
81182W        W24276  18.411  29.440  26.741 -0.1917 -0.1246  0.2107
81183W        W24277  15.714  31.461  24.362  0.0180  0.0461  0.2114
81184W        W24278  18.688  32.915  24.493  0.0366 -0.0075  0.0129
81185W        W24279  17.969  29.600  24.575  0.1124  0.1230  0.3090
81186W        W24280  16.785  30.747  23.947 -0.0306  0.1092 -0.1577
81187W        W24281  15.321  30.859  26.600  0.2307  0.1058  0.0939
81188W        W24282  14.980  30.659  24.367  0.0288  0.1119  0.2739
81189W        W24283  15.050  30.743  29.275  0.2958 -0.0002  0.1124
81190W        W24284  14.428  29.101  25.950 -0.2608  0.1064  0.1181
81191W        W24285  18.284  30.677  26.168  0.0902  0.0716 -0.0481
81192W        W24286  13.757  28.101  23.172 -0.1062 -0.2622 -0.0600
81193W        W24287  17.122  30.920  25.588 -0.0228  0.0764 -0.2323
81194W        W24288  15.273  31.658  24.204 -0.1931 -0.0624 -0.1083
81195W        W24289  14.511  30.646  26.247  0.1811 -0.0682  0.0322
81196W        W24290  17.627  30.046  28.647 -0.1782 -0.2249 -0.2970
81197W        W24291  17.087  33.689  23.498 -0.1370  0.1353 -0.1511
81198W        W24292  19.760  32.419  25.992 -0.2418  0.4665 -0.1426
81199W        W24293  17.389  32.114  24.950 -0.2754  0.2731 -0.2990
81200W        W24294  16.254  29.529  26.399  0.0363 -0.1764 -0.0246
81201W        W24295  15.849  29.913  24.053  0.0042 -0.1679  0.3297
81202W        W24296  15.794  32.522  25.258  0.0190 -0.1329 -0.1488
81203W        W24297  15.947  31.264  25.390  0.0835  0.0896 -0.3504
81204W        W24298  16.279  31.577  24.242  0.1434  0.1128  0.0220
81205W        W24299  18.101  33.613  24.403 -0.0784 -0.0483  0.0766
81206W        W24300  17.576  31.398  24.932  0.2205  0.0696  0.2020
81207W        W24301  14.262  33.235  27.023 -0.1901  0.1735  0.0787
81208W        W24302  17.964  28.837  27.360  0.2629  0.0247  0.0857
81209W        W24303  18.330  30.813  25.048  0.0479 -0.3147  0.0204
81210W        W24304  17.385  30.214  26.298 -0.0063 -0.0084 -0.2381
81211W        W24305  14.659  29.676  24.672 -0.0563  0.6037 -0.0879
81212W        W24306  17.492  31.778  25.320 -0.0290 -0.0308  0.0856
81213W        W24307  15.827  33.266  24.236 -0.1035 -0.0336  0.1657
81214W        W24308  13.809  31.133  24.566  0.0940 -0.2714 -0.0922
81215W        W24309  16.304  32.512  25.283 -0.0417 -0.0186 -0.1865
81216W        W24310  17.543  29.147  25.982 -0.1313  0.1272 -0.0594
81217W        W24311  14.269  31.879  27.476 -0.2015  0.1448  0.4179
81218W        W24312  17.258  30.356  28.272 -0.0141 -0.0804  0.0714
81219W        W24313  13.473  30.046  24.172 -0.0841  0.2971 -0.0344
81220W        W24314  17.068  32.617  28.196 -0.0304  0.0008 -0.1674
81221W        W24315  17.297  28.660  24.776 -0.0830  0.1908  0.2895
81222W        W24316  17.719  29.755  24.175  0.0891  0.1011 -0.3007
81223W        W24317  16.914  31.062  28.376  0.2191  0.3073  0.3322
81224W        W24318  17.986  31.513  24.553 -0.1345 -0.1131  0.2623
81225W        W24319  15.446  30.842  23.653 -0.5306 -0.0576 -0.1748
81226W        W24320  18.354  28.968  21.780  0.1492  0.0695  0.2920
81227W        W24321  14.799  32.805  26.332  0.2112 -0.1855  0.1961
81228W        W24322  18.679  31.471  24.068 -0.0785  0.0962 -0.0750
81229W        W24323  17.035  31.842  25.219  0.2717  0.1073 -0.1757
81230W        W24324  15.652  28.326  23.285 -0.0714 -0.1794 -0.1354
81231W        W24325  19.528  32.249  23.287 -0.3393  0.1290  0.1518
81232W        W24326  15.123  31.218  25.104  0.1572 -0.0860  0.4117
81233W        W24327  17.650  32.015  27.593 -0.2010 -0.1239  0.0510
81234W        W24328  17.691  31.271  25.406 -0.0743  0.0947 -0.0801
81235W        W24329  15.215  29.032  27.557  0.0775  0.1813  0.1965
81236W        W24330  15.655  31.663  23.901 -0.1649  0.0744 -0.2098
81237W        W24331  17.240  29.967  25.470  0.3846  0.3731  0.0448
81238W        W24332  13.911  32.283  22.672  0.0190 -0.0555 -0.1506
81239W        W24333  17.573  29.352  25.532 -0.1932  0.2786  0.0566
81240W        W24334  16.331  29.559  27.594 -0.0304 -0.2094  0.5361
81241W        W24335  16.103  29.270  27.241 -0.2173 -0.3273 -0.1347
81242W        W24336  18.427  30.972  28.240 -0.0335  0.0502 -0.1905
81243W        W24337  17.638  29.756  25.218  0.0150 -0.1233  0.1481
81244W        W24338  16.991  29.134  25.803  0.0489 -0.2907 -0.1066
81245W        W24339  16.474  31.451  23.784 -0.3499  0.2546 -0.0010
81246W        W24340  16.743  30.193  27.671 -0.0416  0.1192  0.1501
81247W        W24341  16.190  30.911  26.297  0.0080  0.1727 -0.1445
81248W        W24342  13.666  32.111  25.349  0.2446  0.0673  0.2395
81249W        W24343  18.564  32.264  27.325  0.0349  0.2835  0.0064
81250W        W24344  16.866  31.037  26.806 -0.0239 -0.0817  0.0777
81251W        W24345  16.955  30.176  27.063  0.0225 -0.0109 -0.0671
81252W        W24346  18.323  28.698  24.318 -0.0077 -0.0344  0.1681
81253W        W24347  16.158  31.964  23.918 -0.0789 -0.1889 -0.0471
81254W        W24348  14.912  31.601  23.840 -0.2867 -0.1063 -0.2829
81255W        W24349  15.245  30.400  25.882 -0.1622 -0.2387  0.0072
81256W        W24350  16.762  31.535  26.891  0.1515  0.0096  0.2875
81257W        W24351  18.885  32.245  23.864 -0.1393 -0.2392  0.0282
81258W        W24352  17.336  31.118  26.629  0.0459 -0.3118  0.0115
81259W        W24353  15.805  31.588  26.748  0.1231  0.1183 -0.0363
81260W        W24354  16.497  29.584  25.916  0.4719 -0.2595 -0.6515
81261W        W24355  15.751  32.382  26.268  0.0210  0.1158 -0.3110
81262W        W24356  16.350  29.171  23.391 -0.0114  0.0014  0.1386
81263W        W24357  15.329  29.932  24.470 -0.0002 -0.0930  0.3531
81264W        W24358  16.877  29.434  26.158 -0.3737 -0.2222 -0.0176
81265W        W24359  18.159  30.654  25.473 -0.0210  0.0338 -0.0260
81266W        W24360  15.069  29.294  25.549  0.0905  0.3389  0.1796
81267W        W24361  14.339  29.625  26.165 -0.0941  0.1421  0.2265
81268W        W24362  15.306  32.424  25.671 -0.0222 -0.0309 -0.1097
81269W        W24363  18.390  30.736  27.130  0.3270 -0.0817  0.3430
81270W        W24364  19.105  29.848  23.173 -0.0736 -0.0244  0.0240
81271W        W24365  16.539  30.551  25.611 -0.0825  0.1293  0.1563
81272W        W24366  16.296  31.597  27.251 -0.0307  0.1571 -0.1807
81273W        W24367  15.555  30.311  24.121  0.1248  0.2065 -0.1424
81274W        W24368  18.047  29.242  25.588  0.0217  0.0655  0.0015
81275W        W24369  15.578  30.942  25.158 -0.1912  0.2080  0.2353
81276W        W24370  15.885  32.137  24.871 -0.0189  0.0836 -0.0044
81277W        W24371  17.497  31.559  27.479  0.0536 -0.3169 -0.0333
81278W        W24372  14.635  30.516  23.142  0.1694  0.1168 -0.0909
81279W        W24373  16.403  33.257  25.908 -0.0306 -0.2035  0.2157
81280W        W24374  16.052  30.318  26.908 -0.1936 -0.2418 -0.0121
81281W        W24375  17.952  30.768  26.962 -0.0930  0.0774 -0.4748
81282W        W24376  15.640  29.904  25.638 -0.1141 -0.1120  0.0667
81283W        W24377  16.467  30.728  26.676 -0.1086 -0.0460 -0.0480
81284W        W24378  15.816  31.295  25.929  0.1394  0.1790 -0.0841
81285W        W24379  17.522  32.285  25.815  0.3370 -0.0126 -0.2613
81286W        W24380  15.670  30.279  27.348 -0.0513 -0.0955  0.0837
81287W        W24381  16.864  30.990  27.885  0.0098 -0.1649 -0.2080
81288W        W24382  17.481  30.799  27.150  0.0794  0.0307 -0.1052
81289W        W24383  18.560  32.212  22.940  0.1543  0.3471 -0.2194
81290W        W24384  18.055  30.203  27.934 -0.1879  0.2872  0.0349
81291W        W24385  15.439  30.804  24.150  0.1388 -0.1700 -0.2317
81292W        W24386  14.229  32.830  26.119 -0.1945  0.2561 -0.1806
81293W        W24387  15.751  31.177  23.921  0.3758 -0.1039  0.1368
81294W        W24388  16.878  30.291  26.524 -0.1311 -0.2224  0.0692
81295W        W24389  15.959  32.086  27.062 -0.1899  0.0386  0.2034
81296W        W24390  15.710  33.676  23.789 -0.1691 -0.1651 -0.0863
81297W        W24391  14.009  32.403  26.089  0.2439 -0.3867  0.0226
81298W        W24392  16.827  28.969  24.827 -0.0654 -0.2436  0.0467
81299W        W24393  18.431  31.406  23.640 -0.1196 -0.2966  0.0551
81300W        W24394  16.406  30.085  24.359  0.0514  0.0871 -0.5465
81301W        W24395  19.570  29.452  27.537  0.0006  0.1857 -0.0329
81302W        W24396  17.093  30.516  22.811  0.2763  0.1279  0.0172
81303W        W24397  18.317  30.213  27.501 -0.1883  0.4703 -0.1668
81304W        W24398  14.501  29.239  26.442 -0.0631 -0.1114  0.0007
81305W        W24399  16.768  29.985  24.958 -0.3309  0.2720  0.0737
81306W        W24400  14.325  30.782  27.309  0.2375  0.2503  0.0487
81307W        W24401  17.924  32.762  28.449 -0.0405  0.2160  0.3084
81308W        W24402  15.306  31.633  26.740 -0.1350 -0.3279 -0.0081
81309W        W24403  15.811  30.312  24.996 -0.1026  0.0738 -0.0544
81310W        W24404  14.771  28.448  24.450  0.2202  0.1221  0.0809
81311W        W24405  17.085  30.594  26.851 -0.1332 -0.2688 -0.3616
81312W        W24406  17.793  30.962  26.527  0.2812  0.0685 -0.1684
81313W        W24407  17.573  31.776  24.577  0.1032 -0.1976  0.1740
81314W        W24408  17.293  29.603  25.889  0.3211 -0.0296  0.1046
81315W        W24409  16.399  31.433  25.938 -0.0913 -0.3356 -0.0700
81316W        W24410  18.229  31.688  23.956 -0.0743 -0.0509 -0.0092
81317W        W24411  17.237  31.418  25.594  0.0064  0.2095 -0.0667
81318W        W24412  15.035  32.011  24.476  0.4673  0.1162  0.2142
81319W        W24413  15.469  29.936  27.781  0.0087 -0.1015  0.0791
81320W        W24414  17.268  31.596  26.745 -0.1001 -0.0925  0.0683
81321W        W24415  17.777  28.868  24.912 -0.2056 -0.1901 -0.1876
81322W        W24416  17.789  29.720  26.863  0.0720  0.0984 -0.0760
81323W        W24417  16.994  30.756  27.351 -0.3600  0.2902  0.0805
81324W        W24418  16.178  31.706  28.254 -0.1508  0.0544 -0.1738
81325W        W24419  14.786  30.116  26.690 -0.0750  0.1623  0.1631
81326W        W24420  17.955  31.932  28.439 -0.2260  0.2287 -0.1736
81327W        W24421  19.075  28.897  25.021  0.2691  0.0588  0.0296
81328W        W24422  18.175  29.702  27.753 -0.0415 -0.0557 -0.0892
81329W        W24423  18.261  31.232  24.170 -0.0341 -0.0196 -0.0211
81330W        W24424  17.230  30.451  23.871  0.2436 -0.0273 -0.2314
81331W        W24425  14.719  32.189  25.873  0.0470 -0.2094  0.0018
81332W        W24426  18.043  31.619  27.359  0.0627 -0.0865  0.2024
81333W        W24427  16.328  30.485  23.774 -0.0686 -0.1315  0.1842
81334W        W24428  16.989  29.670  27.087 -0.2972  0.0644  0.1499
81335W        W24429  17.557  31.280  24.369 -0.0797 -0.0688 -0.1689
81336W        W24430  17.927  32.035  26.643  0.0927  0.0209  0.2311
81337W        W24431  16.575  31.209  24.878 -0.0805  0.0268  0.0904
81338W        W24432  15.268  29.686  25.958  0.2527  0.0568  0.1604
81339W        W24433  16.220  33.178  27.418  0.0563 -0.1399 -0.1939
81340W        W24434  16.022  31.123  24.451 -0.0275 -0.2220 -0.0314
81341W        W24435  16.041  31.583  24.754  0.2449  0.0761  0.1791
81342W        W24436  17.144  30.681  26.359 -0.0901 -0.0986  0.1106
81343W        W24437  19.044  32.296  27.691  0.0826  0.0406 -0.1014
81344W        W24438  17.013  29.545  23.027  0.0015 -0.0610 -0.0649
81345W        W24439  17.554  30.515  26.674  0.1628  0.0612 -0.1894
81346W        W24440  15.459  31.759  24.663 -0.1341  0.1657 -0.4020
81347W        W24441  16.658  30.744  25.126  0.0924 -0.2914  0.1795
81348W        W24442  16.454  33.856  25.279 -0.1397 -0.1203  0.0558
81349W        W24443  14.445  32.693  27.261 -0.0038 -0.1270  0.4682
81350W        W24444  16.090  32.064  25.882 -0.2613  0.0149 -0.1814
81351W        W24445  17.906  30.538  27.414 -0.1231  0.1501  0.3405
81352W        W24446  18.579  31.599  27.187 -0.1251 -0.0596  0.4949
81353W        W24447  15.599  30.396  26.709  0.2220 -0.1569  0.2739
81354W        W24448  19.469  30.192  27.335 -0.3818 -0.1395  0.1206
81355W        W24449  17.648  31.248  27.136 -0.0781 -0.2785 -0.0331
81356W        W24450  16.981  32.037  25.966  0.1276 -0.0676  0.2174
81357W        W24451  18.118  31.188  26.993 -0.0725 -0.0776  0.0519
81358W        W24452  18.789  31.425  25.687 -0.0836 -0.0341  0.0127
81359W        W24453  16.508  32.033  25.582  0.0516  0.0116 -0.0464
81360W        W24454  13.748  31.866  26.680 -0.1431 -0.2628 -0.2665
81361W        W24455  16.799  30.209  28.491 -0.0763 -0.0258  0.2725
81362W        W24456  15.707  30.788  26.178  0.0269  0.1956 -0.3087
81363W        W24457  16.090  30.043  25.439 -0.0510 -0.2238 -0.0248
81364W        W24458  16.036  31.491  23.609  0.0702 -0.0557 -0.1778
81365W        W24459  15.010  32.609  27.792 -0.2538 -0.1245 -0.0137
81366W        W24460  14.697  31.127  26.034  0.3020 -0.3169  0.1667
81367W        W24461  15.261  34.446  24.023 -0.0681  0.3917 -0.0908
81368W        W24462  18.780  32.446  24.407  0.0671 -0.1975 -0.1673
81369W        W24463  17.930  32.015  24.934  0.1629  0.3183  0.2654
81370W        W24464  17.470  32.208  26.751 -0.1037 -0.1968 -0.0641
81371W        W24465  17.495  29.559  23.252  0.0185 -0.1817 -0.1086
81372W        W24466  15.365  31.259  25.590  0.1330  0.1849 -0.0557
81373W        W24467  14.283  31.380  24.107 -0.0545  0.1522 -0.4019
81374W        W24468  17.520  32.549  23.649  0.0783 -0.3330 -0.0253
81375W        W24469  15.955  32.556  25.773 -0.0925  0.1816 -0.0555
81376W        W24470  18.128  32.538  25.488 -0.0936 -0.0824 -0.1739
81377W        W24471  17.910  29.267  24.182 -0.0853  0.1270  0.1118
81378W        W24472  18.769  31.482  27.649  0.0949  0.2776 -0.4285
81379W        W24473  18.814  29.627  24.186  0.0095 -0.0533 -0.2727
81380W        W24474  18.471  31.876  27.612  0.0987 -0.0314  0.0194
81381W        W24475  16.637  31.099  25.559  0.0526 -0.1118 -0.2384
81382W        W24476  14.931  30.819  23.898 -0.1825  0.0145  0.0540
81383W        W24477  15.825  31.630  27.265  0.1397 -0.1495 -0.0245
81384W        W24478  17.338  30.329  27.307  0.1619 -0.0433 -0.2247
81385W        W24479  15.657  32.448  27.024 -0.0555 -0.1122  0.0429
81386W        W24480  16.946  32.821  24.325 -0.1136 -0.0719 -0.4905
81387W        W24481  15.466  30.164  23.668 -0.1577 -0.1628  0.1886
81388W        W24482  13.795  31.480  24.922 -0.0419  0.0551 -0.0762
81389W        W24483  19.229  29.301  26.971  0.3485  0.0214  0.0872
81390W        W24484  15.769  30.609  24.560  0.0755 -0.0020 -0.0788
81391W        W24485  17.024  29.838  26.471 -0.2382 -0.2035 -0.1045
81392W        W24486  15.592  32.889  25.581 -0.3726  0.0527  0.2067
81393W        W24487  16.814  31.606  25.686 -0.0482 -0.2622  0.0300
81394W        W24488  15.517  31.599  25.234 -0.4613 -0.3420  0.1372
81395W        W24489  16.065  29.371  24.598  0.0727 -0.1231  0.1405
81396W        W24490  17.078  31.117  24.613 -0.1315 -0.2669 -0.3469
81397W        W24491  15.310  30.103  26.281  0.4370  0.1252 -0.0186
81398W        W24492  16.706  29.181  27.166 -0.0809 -0.1692  0.0352
81399W        W24493  16.081  30.440  26.446 -0.1184 -0.1032  0.0601
81400W        W24494  16.965  29.430  25.021 -0.2270  0.2365  0.1724
81401W        W24495  16.594  30.505  27.095 -0.3938  0.1489 -0.0671
81402W        W24496  14.183  30.891  24.960  0.2201 -0.2433 -0.1978
81403W        W24497  17.055  29.914  23.609 -0.1592  0.1416 -0.0393
81404W        W24498  19.654  31.518  27.356  0.3419 -0.2753 -0.1294
81405W        W24499  16.970  31.209  25.164 -0.0736 -0.0407 -0.3973
81406W        W24500  17.587  33.556  25.775  0.0759  0.2886 -0.0369
81407W        W24501  16.526  28.696  25.678 -0.0349  0.1712 -0.3012
81408W        W24502  17.407  29.086  23.280 -0.2042 -0.0323 -0.5157
81409W        W24503  14.699  31.181  24.219  0.1488 -0.0811 -0.1770
81410W        W24504  16.856  31.270  26.218  0.1939  0.2353 -0.2054
81411W        W24505  18.039  31.038  27.433  0.0694 -0.2735  0.2019
81412W        W24506  16.013  28.839  24.817  0.0134  0.0975 -0.1510
81413W        W24507  17.420  31.376  23.524  0.3559 -0.0614  0.0548
81414W        W24508  18.420  29.984  26.427  0.0703 -0.2092 -0.2798
81415W        W24509  16.367  32.124  25.012  0.1324  0.0086 -0.0255
81416W        W24510  16.706  30.468  24.523 -0.1580  0.2502 -0.1521
81417W        W24511  17.742  31.295  26.056  0.0826  0.0017  0.0477
81418W        W24512  14.249  31.730  26.835  0.0464 -0.0722  0.0701
81419W        W24513  17.642  32.460  26.314  0.1685  0.2508  0.3314
81420W        W24514  17.311  32.614  24.983 -0.2281  0.3724 -0.1966
81421W        W24515  16.567  30.505  23.046  0.3192  0.2662  0.0291
81422W        W24516  16.359  31.592  25.410 -0.1061 -0.0227  0.1942
81423W        W24517  13.720  32.307  23.248 -0.4010 -0.0707  0.0673
81424W        W24518  18.128  29.702  26.058 -0.1468  0.1377  0.1988
81425W        W24519  18.899  30.733  27.264 -0.2600 -0.0598  0.2243
81426W        W24520  16.107  30.680  25.365 -0.2730  0.0133  0.1995
81427W        W24521  17.966  28.360  27.311  0.3281 -0.0650  0.1999
81428W        W24522  17.445  30.898  26.024 -0.1924  0.1462 -0.0015
81429W        W24523  17.270  31.455  27.954  0.1263 -0.1646  0.3493
81430W        W24524  14.987  30.737  23.392  0.1374  0.1049  0.1652
81431W        W24525  15.933  31.287  28.229 -0.0234 -0.2421  0.1415
81432W        W24526  18.413  32.553  23.843  0.3821  0.2987  0.2060
81433W        W24527  16.667  32.422  25.904  0.0711  0.0704  0.0444
81434W        W24528  18.033  31.256  25.009 -0.0973 -0.0815  0.0034
81435W        W24529  16.516  30.417  26.178  0.1061 -0.0660 -0.0336
81436W        W24530  18.220  31.179  26.287  0.1939 -0.2133  0.1802
81437W        W24531  15.426  32.092  26.573  0.0317 -0.1131 -0.0772
81438W        W24532  16.242  29.929  24.853  0.0103 -0.1024  0.0267
81439W        W24533  18.059  30.284  25.005  0.0699 -0.2262 -0.2474
81440W        W24534  15.750  31.717  28.593  0.1746 -0.0346 -0.0339
81441W        W24535  13.880  30.455  24.148  0.0985 -0.1766 -0.0277
81442W        W24536  16.006  31.005  24.909 -0.3274 -0.1365  0.2800
81443W        W24537  16.210  31.038  25.753  0.0201 -0.0502  0.2117
81444W        W24538  15.764  29.525  27.926  0.0553  0.0418 -0.1254
81445W        W24539  16.062  31.360  26.372 -0.0177  0.2704 -0.3652
81446W        W24540  14.166  30.906  23.363 -0.3116  0.0219 -0.0989
81447W        W24541  15.898  30.083  24.520 -0.1934  0.0453 -0.1929
81448W        W24542  17.805  31.295  23.910  0.1013  0.2302 -0.2000
81449W        W24543  14.972  28.882  25.260 -0.2350  0.0484  0.1740
81450W        W24544  14.357  31.379  25.430  0.2536  0.0801  0.0107
81451W        W24545  17.744  29.999  24.794  0.0837 -0.0803  0.2997
81452W        W24546  17.922  32.657  23.999 -0.0122  0.0837  0.1891
81453W        W24547  16.090  29.594  23.582  0.0202  0.1580 -0.2583
81454W        W24548  17.416  32.650  27.187 -0.1028 -0.0668 -0.0719
81455W        W24549  13.271  31.458  24.264  0.1110 -0.2006  0.0847
81456W        W24550  17.702  30.882  29.055 -0.1408  0.0115 -0.0281
81457W        W24551  16.391  29.427  28.547  0.1209 -0.1917  0.4830
81458W        W24552  15.069  30.357  22.903 -0.1357  0.2273  0.3148
81459W        W24553  16.123  30.582  25.891 -0.0931 -0.1100 -0.0139
81460W        W24554  17.281  32.295  25.400 -0.0756  0.3701  0.1675
81461W        W24555  19.113  33.891  23.594 -0.1927  0.0159  0.2751
81462W        W24556  16.480  31.017  27.125  0.0064 -0.0865  0.1069
81463W        W24557  17.323  33.146  27.402  0.3428  0.0084  0.0059
81464W        W24558  15.184  29.777  27.282  0.3355 -0.0443  0.0502
81465W        W24559  17.129  31.638  24.769 -0.1953 -0.1873  0.1036
81466W        W24560  18.094  32.670  27.890 -0.0160  0.1891 -0.2007
81467W        W24561  19.388  30.558  23.849  0.2044  0.1242 -0.4982
81468W        W24562  17.213  28.932  26.855  0.2232 -0.0512 -0.1618
81469W        W24563  16.547  29.516  24.640  0.0409 -0.0861  0.2383
81470W        W24564  14.723  29.766  27.082 -0.0557  0.1571 -0.1712
81471W        W24565  15.105  31.637  28.519 -0.0476  0.0177 -0.0107
81472W        W24566  18.047  30.458  26.603 -0.1496  0.0284 -0.0337
81473W        W24567  16.926  30.474  25.915 -0.0636  0.2649  0.1741
81474W        W24568  17.330  30.927  25.053  0.1544 -0.1008  0.1252
81475W        W24569  19.149  31.390  24.190 -0.2434  0.0507 -0.2561
81476W        W24570  14.740  31.646  26.021 -0.1852 -0.2078  0.0822
81477W        W24571  17.002  30.422  25.395 -0.0609  0.0795 -0.1313
81478W        W24572  17.281  31.101  27.603 -0.0088  0.1055  0.3885
81479W        W24573  17.566  30.808  25.507  0.5942 -0.1260 -0.0995
81480W        W24574  17.907  32.131  26.095  0.0673 -0.4355 -0.1604
81481W        W24575  15.520  31.291  24.796  0.3199 -0.3254  0.2927
81482W        W24576  18.164  32.079  23.336  0.1163 -0.1273 -0.0387
81483W        W24577  17.672  32.896  24.837 -0.1194  0.0820  0.2753
81484W        W24578  18.642  33.483  28.727 -0.5595  0.1085 -0.2479
81485W        W24579  17.697  31.779  27.028  0.0231  0.2364 -0.0632
81486W        W24580  18.504  31.421  26.633  0.0913  0.1115 -0.2778
81487W        W24581  14.254  30.438  25.805  0.0815  0.0385 -0.0006
81488W        W24582  15.309  30.853  24.764  0.0870  0.3207  0.2190
81489W        W24583  15.223  31.896  23.612  0.2449 -0.1782  0.3359
81490W        W24584  18.427  29.525  25.710  0.3327 -0.2693  0.0196
81491W        W24585  13.978  29.275  26.140  0.0594 -0.0243  0.1238
81492W        W24586  18.294  31.086  24.616  0.3850 -0.0379 -0.0700
81493W        W24587  15.450  32.708  26.059 -0.0868 -0.2027 -0.3759
81494W        W24588  16.179  30.301  27.445  0.1943 -0.0136  0.2201
81495W        W24589  15.351  31.060  30.377 -0.1632  0.5040  0.4182
81496W        W24590  15.945  30.760  29.053 -0.4188  0.0373  0.0611
81497W        W24591  17.613  29.989  25.927  0.2607  0.1159  0.1396
81498W        W24592  18.293  31.255  27.855 -0.1192 -0.1504 -0.3062
81499W        W24593  14.641  29.045  28.417  0.0821  0.0871  0.1248
81500W        W24594  18.255  33.169  27.845 -0.0332  0.0151  0.1008
81501W        W24595  13.813  28.779  30.782 -0.1270 -0.0612  0.2926
81502W        W24596  19.292  31.346  28.528  0.0272 -0.3536 -0.1794
81503W        W24597  18.069  32.129  29.503  0.2195 -0.0235  0.0499
81504W        W24598  17.175  30.958  29.177 -0.1599 -0.2248  0.3628
81505W        W24599  15.610  29.795  30.616  0.0759 -0.0702 -0.3096
81506W        W24600  15.221  30.521  30.066 -0.0714 -0.0608  0.0767
81507W        W24601  15.955  29.049  28.180 -0.2091  0.1001  0.0913
81508W        W24602  15.790  29.679  29.501 -0.0105  0.1299 -0.2791
81509W        W24603  17.543  29.435  31.501 -0.3800  0.0114 -0.1363
81510W        W24604  14.058  30.958  28.210  0.1191  0.0728  0.1279
81511W        W24605  14.284  30.482  28.671  0.0414 -0.2040  0.1095
81512W        W24606  16.517  31.434  29.046  0.1873  0.1356  0.0829
81513W        W24607  17.863  31.865  29.032 -0.1437  0.1521 -0.2689
81514W        W24608  14.820  29.083  31.004  0.0541  0.0613  0.0125
81515W        W24609  16.628  28.020  30.563  0.1813  0.3307  0.0936
81516W        W24610  16.245  31.827  28.827 -0.0541  0.0239  0.0958
81517W        W24611  13.217  32.099  27.752 -0.0587  0.3744 -0.0723
81518W        W24612  14.604  30.767  28.401 -0.0111  0.0508  0.1951
81519W        W24613  14.953  31.289  30.790  0.5091  0.0512  0.0612
81520W        W24614  15.377  30.205  29.671  0.1196 -0.2747  0.0731
81521W        W24615  18.191  30.917  29.022  0.2866 -0.5504 -0.3481
81522W        W24616  17.129  31.940  29.851  0.0118  0.1749  0.3394
81523W        W24617  17.517  32.493  28.530 -0.5257 -0.0115  0.0393
81524W        W24618  17.369  30.656  30.389  0.1912 -0.0497 -0.0313
81525W        W24619  15.598  31.157  28.768  0.3295 -0.2549 -0.1552
81526W        W24620  14.604  32.762  28.969  0.1653 -0.0468  0.2094
81527W        W24621  16.165  30.963  29.433 -0.1168  0.1167  0.0264
81528W        W24622  19.393  32.520  26.709 -0.2175 -0.1596 -0.1803
81529W        W24623  18.192  31.256  31.280 -0.0177  0.1895  0.1837
81530W        W24624  14.695  32.191  31.380  0.1603 -0.0601 -0.1502
81531W        W24625  15.849  30.866  26.706  0.1621 -0.0617 -0.3614
81532W        W24626  16.412  32.366  30.600  0.0688 -0.0657 -0.2503
81533W        W24627  15.509  31.630   1.498  0.0293 -0.1332  0.2648
81534W        W24628  15.181  31.975  30.639 -0.0548  0.0093  0.2443
81535W        W24629  15.594  29.798  29.991  0.3480  0.2277  0.0989
81536W        W24630  16.112  32.005  29.526 -0.1434 -0.0093  0.1016
81537W        W24631  15.785  30.618  29.548  0.1668  0.0000  0.0266
81538W        W24632  15.944  30.833  31.949  0.0005 -0.0616 -0.0280
81539W        W24633  15.491  31.562  29.188 -0.3818 -0.0247 -0.0408
81540W        W24634  18.881  30.740  31.401 -0.0242 -0.2907  0.0293
81541W        W24635  15.903  32.641  29.333 -0.1166  0.2077  0.1087
81542W        W24636  18.921  31.884  27.344 -0.0808 -0.0168 -0.1643
81543W        W24637  17.402  31.042  28.599 -0.1771 -0.2331  0.1003
81544W        W24638  17.582  28.550  28.407 -0.0462 -0.0387  0.3550
81545W        W24639  14.415  29.852  28.917 -0.0327 -0.0678 -0.0606
81546W        W24640  16.125  32.487  29.771  0.2005 -0.1242  0.1603
81547W        W24641  15.639  27.987  28.859 -0.0727 -0.2817 -0.2454
81548W        W24642  18.589  31.162  30.584 -0.1959  0.0401 -0.0529
81549W        W24643  17.185  29.592  28.889 -0.1690  0.0421 -0.2796
81550W        W24644  15.916  31.098  30.988 -0.1847 -0.0129 -0.2559
81551W        W24645  14.256  31.298  31.364  0.2292 -0.2202 -0.1958
81552W        W24646  14.382  29.991  27.888 -0.1703 -0.1649 -0.1842
81553W        W24647  18.310  33.043  27.332  0.0623  0.1043 -0.2536
81554W        W24648  18.417  31.861  28.131  0.0707  0.0082 -0.0175
81555W        W24649  17.149  32.115  28.533 -0.1344  0.1190  0.0934
81556W        W24650  13.737  31.807  28.897  0.0224 -0.0455  0.0172
81557W        W24651  14.225  30.183  29.731 -0.1401  0.0136  0.2891
81558W        W24652  14.661  31.882  30.475 -0.3698 -0.1136 -0.1207
81559W        W24653  15.920  29.099  27.660  0.1646  0.1885  0.0192
81560W        W24654  17.489  30.608  31.548  0.0904  0.0209 -0.0514
81561W        W24655  14.841  32.021  28.698 -0.0909 -0.0431 -0.3232
81562W        W24656  18.769  29.797  28.907 -0.0715 -0.1637 -0.0619
81563W        W24657  15.186  30.244  29.170 -0.2145 -0.1311  0.1671
81564W        W24658  17.928  32.410  30.377  0.1462  0.1813 -0.0244
81565W        W24659  18.148  31.457  28.293 -0.2271  0.2013  0.3579
81566W        W24660  17.310  29.094  28.866  0.4408 -0.1341  0.1758
81567W        W24661  17.280  30.208  29.552  0.0933 -0.1787 -0.0343
81568W        W24662  16.777  30.523  28.052 -0.2513 -0.2283  0.3164
81569W        W24663  16.335  31.296  27.848  0.0101 -0.0656 -0.0567
81570W        W24664  19.150  31.884  30.540  0.0214 -0.1712 -0.1987
81571W        W24665  18.336  31.666  28.865  0.0045  0.1967 -0.0486
81572W        W24666  14.503  32.022  29.934 -0.0660  0.3003 -0.2342
81573W        W24667  16.913  30.655  30.583 -0.1128 -0.0464  0.2592
81574W        W24668  16.806  32.299  30.203 -0.3471 -0.2787  0.1193
81575W        W24669  17.107  33.703  27.602 -0.2032 -0.0852  0.1815
81576W        W24670  14.123  30.060  29.228  0.3099 -0.1811  0.2139
81577W        W24671  13.542  31.348  27.543  0.0739  0.1048  0.0162
81578W        W24672  15.047  28.723  28.711  0.1113 -0.0299  0.0907
81579W        W24673  15.699  30.283  30.115  0.3059 -0.0440  0.2861
81580W        W24674  18.265  28.878  29.441 -0.0233 -0.0241 -0.1251
81581W        W24675  14.558  29.247  30.585 -0.0902 -0.1163  0.0626
81582W        W24676  17.444  28.590  28.915 -0.1624  0.1084  0.0203
81583W        W24677  14.632  31.701  28.274  0.0513  0.0840  0.0548
81584W        W24678  17.870  32.058  29.982 -0.1185  0.0139  0.1408
81585W        W24679  18.438  30.262  28.942  0.0336 -0.1345 -0.0364
81586W        W24680  18.817  33.773  27.144 -0.0722 -0.0715 -0.2320
81587W        W24681  13.444  29.567  29.359 -0.1515  0.4798  0.0725
81588W        W24682  15.020  30.753  28.715 -0.1991  0.4084 -0.1919
81589W        W24683  14.720  29.420  29.166  0.3275  0.0824  0.2381
81590W        W24684  14.337  28.675  30.602 -0.1325  0.2735 -0.0240
81591W        W24685  18.090  31.734  31.107  0.0053 -0.1620 -0.1167
81592W        W24686  15.492  28.664  28.262 -0.0889 -0.2449 -0.0723
81593W        W24687  16.708  29.494  29.934 -0.3440  0.2586  0.2543
81594W        W24688  16.410  30.839  28.821 -0.2743  0.1137 -0.1798
81595W        W24689  15.570  31.113  29.376 -0.1556  0.0992 -0.0677
81596W        W24690  17.984  29.618  29.320 -0.0702  0.1325  0.3640
81597W        W24691  17.712  32.489  27.647 -0.0118  0.0955  0.5138
81598W        W24692  17.761  31.056  31.676  0.0075  0.1765  0.1702
81599W        W24693  18.168  32.480  29.926  0.0724  0.1172 -0.0231
81600W        W24694  14.624  30.120  29.303 -0.0047 -0.2874 -0.0118
81601W        W24695  14.818  29.693  28.044  0.3389  0.1359  0.0240
81602W        W24696  15.100  31.590  27.287  0.2250 -0.0560 -0.0546
81603W        W24697  14.166  31.733  29.232  0.2971 -0.0639 -0.0479
81604W        W24698  16.047  29.688  28.878 -0.2162 -0.0231 -0.1937
81605W        W24699  19.693  32.269  29.598  0.2031 -0.1909 -0.1735
81606W        W24700  16.562  31.164  29.812 -0.1349 -0.2798 -0.2464
81607W        W24701  14.945  30.499  30.495  0.4259 -0.3515  0.2405
81608W        W24702  18.003  30.278  31.629 -0.0506 -0.0330 -0.3346
81609W        W24703  18.404  29.691  30.195  0.3550  0.1001  0.1189
81610W        W24704  18.032  28.075  29.347 -0.0605 -0.1406 -0.2427
81611W        W24705  15.197  29.526  27.702 -0.1914 -0.2869  0.2736
81612W        W24706  17.662  33.835  27.748  0.0780  0.2183  0.1034
81613W        W24707  14.814  33.362  28.254 -0.1013  0.0229  0.1374
81614W        W24708  14.716  31.993  27.747  0.0729 -0.2038  0.0121
81615W        W24709  15.451  31.876  30.232 -0.0816  0.4927 -0.0385
81616W        W24710  17.921  29.143  29.159 -0.1040 -0.0369  0.0966
81617W        W24711  12.871  31.499  30.180 -0.1383 -0.4484  0.1952
81618W        W24712  16.922  31.257   0.847  0.0396  0.0323 -0.1067
81619W        W24713  15.128  31.208  27.733 -0.0919 -0.2438 -0.1078
81620W        W24714  14.924  32.259  30.284  0.1300  0.0080 -0.1846
81621W        W24715  17.127  28.805  28.189 -0.1069 -0.1405 -0.2750
81622W        W24716  18.068  30.308  28.542 -0.0260 -0.0753 -0.1780
81623W        W24717  17.446  31.969  30.679  0.1776 -0.2626 -0.1671
81624W        W24718  19.140  31.289  28.048 -0.0023  0.0368  0.0444
81625W        W24719  18.839  30.163  27.729  0.0216 -0.0255 -0.0818
81626W        W24720  16.745  29.335  28.939  0.0097  0.1683 -0.0992
81627W        W24721  14.693  31.420  30.047  0.0954 -0.1052  0.0470
81628W        W24722  16.479  31.298  28.542  0.0005 -0.0847  0.1261
81629W        W24723  15.649  31.799  30.676 -0.1884  0.1307  0.2492
81630W        W24724  16.709  29.791  28.758 -0.2365  0.1050  0.2661
81631W        W24725  18.435  32.486  30.584  0.3997 -0.4334 -0.0904
81632W        W24726  13.945  31.642  31.218 -0.0067  0.1139 -0.3030
81633W        W24727  18.035  32.215  31.442  0.0555  0.3567  0.5536
81634W        W24728  18.190  31.056  30.314  0.2133 -0.0885  0.3696
81635W        W24729  17.093  30.621  29.984 -0.0430  0.2098  0.2144
81636W        W24730  17.560  29.858  29.149  0.3529  0.0220 -0.2771
81637W        W24731  16.099  29.869  30.481 -0.4043 -0.2204  0.2221
81638W        W24732  14.497  32.162  26.825  0.4617 -0.0169  0.1458
81639W        W24733  16.456  29.000  29.538  0.1292  0.3002 -0.0492
81640W        W24734  16.855  31.133  28.883 -0.2116  0.1620 -0.0863
81641W        W24735  17.532  29.346  30.422 -0.0675 -0.2378  0.0952
81642W        W24736  18.781  30.240   1.429  0.2337 -0.2960  0.1880
81643W        W24737  19.423  32.099  27.965 -0.0399  0.2298 -0.1094
81644W        W24738  14.927  31.822  30.082 -0.1489 -0.2114  0.2936
81645W        W24739  16.391  30.855  28.080 -0.0806 -0.1224  0.1268
81646W        W24740  14.965  29.736  30.448 -0.0688  0.1403  0.2137
81647W        W24741  15.404  29.683  31.066 -0.1011  0.1736 -0.2412
81648W        W24742  15.467  33.169  29.805  0.1416 -0.0178 -0.0569
81649W        W24743  18.484  30.618  30.383 -0.1319 -0.1760 -0.1948
81650W        W24744  16.914  31.453  30.035  0.3304  0.0104  0.0331
81651W        W24745  16.621  30.365  31.434  0.4471 -0.1581  0.0995
81652W        W24746  17.595  29.658  27.312 -0.4797 -0.2052  0.0629
81653W        W24747  16.315  32.221  30.116  0.2543 -0.0514  0.1396
81654W        W24748  17.160  31.246  27.144  0.1324 -0.0350 -0.1554
81655W        W24749  15.966  29.185  29.565 -0.2797 -0.3177 -0.1825
81656W        W24750  16.711  30.854  30.959 -0.2065  0.0658 -0.3442
81657W        W24751  16.950  31.862  28.089 -0.1742  0.0481  0.1402
81658W        W24752  17.666  31.546  30.871 -0.2740  0.3332 -0.1730
81659W        W24753  15.372  32.137  28.679 -0.1198  0.1654  0.3110
81660W        W24754  16.727  29.508  30.858  0.0812 -0.2440 -0.2574
81661W        W24755  14.762  32.777  28.218  0.1112 -0.2657  0.2194
81662W        W24756  17.164  31.486  28.490 -0.0185  0.3202 -0.1978
81663W        W24757  12.808  31.224  28.846  0.1776 -0.0014  0.1745
81664W        W24758  17.895  28.633  29.186 -0.0716  0.1491  0.1078
81665W        W24759  18.679  31.441  28.221 -0.0839  0.4713 -0.3147
81666W        W24760  15.265  29.286  29.447 -0.0900 -0.2749 -0.1975
81667W        W24761  16.209  30.170  30.104 -0.0850 -0.0247 -0.1105
81668W        W24762  15.056  33.365  29.481 -0.1185  0.0904  0.0940
81669W        W24763  16.146  31.048  30.099 -0.0832 -0.1408 -0.3190
81670W        W24764  15.109  29.897  28.469  0.0099 -0.1317 -0.0127
81671W        W24765  17.581  31.200  29.528 -0.1219 -0.0817 -0.0290
81672W        W24766  16.378  29.961   0.827  0.1253 -0.2088  0.1340
81673W        W24767  16.017  30.738  27.196 -0.0014  0.2386 -0.0914
81674W        W24768  17.228  31.162  31.312 -0.0089 -0.0498 -0.0933
81675W        W24769  16.069  31.770  30.000  0.1066  0.0132  0.0285
81676W        W24770  15.339  30.643  27.159 -0.3527  0.0011 -0.1008
81677W        W24771  17.737  33.175  29.375  0.0006  0.2368  0.2638
81678W        W24772  16.018  29.961  26.530  0.2593 -0.0457  0.1920
81679W        W24773  16.302  31.492  29.524  0.1540 -0.0213 -0.2994
81680W        W24774  16.000  31.046  31.479 -0.2392  0.0110 -0.0520
81681W        W24775  18.918  31.120  31.893 -0.1142 -0.1950  0.1190
81682W        W24776  16.642  30.384  30.207 -0.3108  0.1567 -0.0360
81683W        W24777  16.619  30.143  29.684  0.4664 -0.0257 -0.1397
81684W        W24778  15.555  29.885  29.133  0.0875  0.1339  0.0509
81685W        W24779  17.419  31.464  30.430 -0.0980 -0.1494 -0.0495
81686W        W24780  17.654  29.398  30.915  0.0305 -0.1235  0.3224
81687W        W24781  17.040  30.861  31.749  0.0531  0.0330  0.0213
81688W        W24782  15.953  28.378  28.987  0.0624  0.3434  0.2050
81689W        W24783  20.443  33.562  27.710 -0.1345 -0.0697  0.2525
81690W        W24784  16.984  30.062  29.999  0.4748 -0.2354 -0.0224
81691W        W24785  16.345  29.990  28.445 -0.0472 -0.0913  0.1212
81692W        W24786  14.065  30.673  29.670  0.0795  0.2231 -0.1338
81693W        W24787  15.701  31.942  28.130  0.0625  0.1322  0.0365
81694W        W24788  16.527  30.458  30.773 -0.0319  0.0432  0.3646
81695W        W24789  14.512  32.964  29.500  0.1323  0.1643 -0.0936
81696W        W24790  15.788  32.184  28.975  0.1219  0.1176 -0.0577
81697W        W24791  15.663  32.680  29.838 -0.2477  0.0260  0.2538
81698W        W24792  19.516  29.908  27.799 -0.1039 -0.0344 -0.1883
81699W        W24793  17.374  30.952  28.078 -0.1288 -0.3610  0.1719
81700W        W24794  17.723  29.500  28.775  0.2106  0.0068 -0.0255
81701W        W24795  17.187  29.347  30.790  0.4298 -0.0518  0.2300
81702W        W24796  18.566  29.983  28.128  0.1707 -0.5798  0.0836
81703W        W24797  16.731  29.698   0.521  0.1826 -0.0565  0.1003
81704W        W24798  16.216  29.665  29.782  0.3171  0.1282  0.0907
81705W        W24799  17.737  31.173  27.789  0.0635  0.1564  0.4158
81706W        W24800  15.518  31.585  31.609 -0.2269  0.0809  0.1307
81707W        W24801  16.636  31.726  31.381 -0.2031 -0.1221 -0.4186
81708W        W24802  16.462  31.302  31.201  0.2131 -0.3149  0.0133
81709W        W24803  16.988  29.077  29.390 -0.1255  0.3064 -0.3608
81710W        W24804  14.772  30.239  28.147 -0.1319 -0.1835  0.0429
81711W        W24805  16.664  29.510  29.434 -0.0966  0.2365  0.4785
81712W        W24806  17.808  29.437  29.988 -0.3438 -0.1135  0.0650
81713W        W24807  16.720  31.458  28.150  0.0453  0.0543 -0.3930
81714W        W24808  16.843  30.061  29.263  0.4228 -0.1377  0.3268
81715W        W24809  14.883  30.414  29.656  0.1340  0.0003  0.2245
81716W        W24810  17.940  30.110  29.468  0.2761  0.2370  0.0219
81717W        W24811  15.545  31.132  27.420  0.1513 -0.2596  0.0280
81718W        W24812  15.529  31.199  26.926 -0.0912  0.0156  0.0610
81719W        W24813  14.489  30.706  30.519  0.2170 -0.1967 -0.3660
81720W        W24814  17.097  29.699  29.579  0.3983  0.0684 -0.2358
81721W        W24815  16.878  29.359  28.482 -0.2266 -0.2805 -0.0603
81722W        W24816  17.301  29.578  29.979  0.0134  0.1351 -0.1856
81723W        W24817  15.688  31.517  31.164  0.0362  0.3906  0.1586
81724W        W24818  16.619  31.459   0.425 -0.0797  0.1663  0.3961
81725W        W24819  14.997  30.313   0.155 -0.0802 -0.1314  0.2541
81726W        W24820  17.422  32.969  31.363 -0.2655  0.0051  0.1152
81727W        W24821  19.273  31.547  26.467  0.1993 -0.2623 -0.3564
81728W        W24822  17.839  31.435  30.006 -0.1285  0.0155  0.2080
81729W        W24823  18.013  31.367  29.222 -0.1964  0.0096  0.0029
81730W        W24824  18.852  29.676  28.400  0.0847 -0.1131 -0.0292
81731W        W24825  14.218  31.319  28.922 -0.1749 -0.0295  0.3759
81732W        W24826  16.873  30.622   0.164  0.0845  0.2195  0.1007
81733W        W24827  15.188  28.526  27.330 -0.1541  0.3162  0.0360
81734W        W24828  16.094  30.568  30.433  0.0174  0.0964 -0.2728
81735W        W24829  16.981  31.663  28.965 -0.2547  0.2225 -0.1747
81736W        W24830  18.504  31.257  29.285 -0.1487  0.0213 -0.1351
81737W        W24831  16.387  30.465  29.350  0.2900  0.1007 -0.0312
81738W        W24832  14.654  28.949  28.957  0.0294 -0.0528 -0.0408
81739W        W24833  16.835  31.350  31.597 -0.0016 -0.0437  0.0300
81740W        W24834  16.464  30.083  26.816 -0.0763 -0.0546  0.4617
81741W        W24835  17.212  29.181  27.853 -0.4902 -0.1879 -0.3103
81742W        W24836  16.325  31.001  30.591  0.1559 -0.2059  0.0391
81743W        W24837  17.997  30.774   0.054  0.0913  0.0986 -0.1816
81744W        W24838  15.122  29.001  28.191 -0.0599 -0.4137  0.1350
81745W        W24839  16.731  29.911  31.576  0.3547  0.0529  0.1040
81746W        W24840  15.056  31.722  29.102  0.0223  0.0953  0.0198
81747W        W24841  17.433  28.465  30.607  0.1218  0.1079  0.1001
81748W        W24842  15.798  31.197  29.793 -0.4227 -0.1616  0.1694
81749W        W24843  14.533  30.574  29.916 -0.0822  0.3548  0.0160
81750W        W24844  15.967  31.633  29.182 -0.3020 -0.4650 -0.0406
81751W        W24845  16.290  28.252  30.836 -0.0670  0.0805  0.0791
81752W        W24846  17.040  31.092  29.732 -0.1815  0.2828 -0.0581
81753W        W24847  16.433  31.473  30.285  0.1593 -0.1184  0.0189
81754W        W24848  19.192  30.297  31.452  0.1244 -0.0552 -0.3999
81755W        W24849  17.058  30.676   1.517  0.0307  0.0523 -0.2755
81756W        W24850  16.016  30.739  27.718  0.3612 -0.2105  0.0150
81757W        W24851  16.891  31.512  29.456 -0.2116 -0.0368 -0.0263
81758W        W24852  18.272  30.763  29.920  0.0218  0.0637  0.1551
81759W        W24853  15.258  31.301  29.960  0.2320 -0.1061 -0.1467
81760W        W24854  16.501  30.306  31.966 -0.1565 -0.0899 -0.1557
81761W        W24855  16.622  30.299   0.532  0.1926  0.1327  0.3575
81762W        W24856  16.581  31.905  30.387  0.1924 -0.1300 -0.1558
81763W        W24857  15.996  28.783  28.633  0.2793 -0.2046 -0.0303
81764W        W24858  17.228  31.911  27.113  0.0186  0.2409 -0.1662
81765W        W24859  15.445  31.388  30.750 -0.1879 -0.0738 -0.1350
81766W        W24860  14.790  31.047  29.711  0.3432  0.0944  0.0633
81767W        W24861  16.262  33.618  28.242  0.0940 -0.1475  0.0141
81768W        W24862  17.888  30.974  28.291 -0.1011 -0.3752  0.0540
81769W        W24863  18.410  31.189  28.698  0.2224 -0.0799 -0.1981
81770W        W24864  17.536  32.185  29.583  0.1498 -0.0556  0.2306
81771W        W24865  17.107  30.618  28.670  0.1061  0.0051  0.2694
81772W        W24866  15.048  32.893  29.757 -0.0188 -0.2120 -0.1859
81773W        W24867  13.945  33.057  26.671 -0.0056 -0.1544 -0.2248
81774W        W24868  17.715  32.345  28.147 -0.0797 -0.2674  0.1459
81775W        W24869  17.443  31.866  28.164 -0.2897 -0.1977  0.0092
81776W        W24870  16.131  31.611  31.566  0.2038  0.3048  0.2221
81777W        W24871  17.526  29.972  28.133  0.2506  0.1320  0.1504
81778W        W24872  17.424  30.712  29.610  0.0554 -0.3043 -0.0288
81779W        W24873  17.675  29.519  27.970 -0.0795  0.0142 -0.2961
81780W        W24874  18.473  30.985   0.162  0.4005 -0.0593 -0.0626
81781W        W24875  15.982  30.188  29.670 -0.1082  0.0281  0.1558
81782W        W24876  16.712  28.561  28.133 -0.1244 -0.0682  0.1296
81783W        W24877  16.500  29.922  30.733 -0.3410  0.1287 -0.1218
81784W        W24878  17.945  29.808  31.448 -0.0711 -0.1449 -0.3580
81785W        W24879  15.843  32.308  30.748  0.1219 -0.4004 -0.1611
81786W        W24880  19.110  32.887  27.020 -0.1654 -0.0612 -0.0533
81787W        W24881  15.429  30.759  29.003  0.1804 -0.2637 -0.1376
81788W        W24882  16.408  30.520  28.426 -0.2425  0.1521  0.0021
81789W        W24883  18.955  27.984  29.356 -0.0718  0.3216  0.3171
81790W        W24884  15.613  31.026  27.933 -0.0305 -0.1144  0.1364
81791W        W24885  16.604  32.048  30.945 -0.1044  0.1414 -0.1510
81792W        W24886  14.972  32.998  28.637  0.0546  0.1106 -0.0810
81793W        W24887  15.717  32.432  28.407 -0.1188 -0.1331  0.1510
81794W        W24888  17.392  31.767  29.302  0.0463 -0.0193 -0.1199
81795W        W24889  15.547  30.031  28.264  0.3010  0.1126  0.1710
81796W        W24890  18.443  30.478  28.082  0.0977  0.0976 -0.0528
81797W        W24891  15.845  30.998  30.498 -0.1617  0.1259  0.2381
81798W        W24892  16.842  29.421  31.349  0.2569 -0.3029 -0.1167
81799W        W24893  15.820  30.294  27.854  0.1491 -0.2204 -0.1763
81800W        W24894  18.712  28.928  29.625 -0.3882  0.3281  0.0195
81801W        W24895  16.165  31.762  31.105  0.1430  0.1150  0.2270
81802W        W24896  14.646  29.220  29.693  0.0114 -0.0078 -0.1334
81803W        W24897  17.610  30.535  28.624 -0.0530 -0.1046  0.0026
81804W        W24898  18.145  31.216  29.714 -0.0774  0.2843  0.1285
81805W        W24899  18.144  30.762  27.837  0.0360 -0.1307 -0.0675
81806W        W24900  16.135  31.911  30.570  0.2002 -0.2147 -0.1496
81807W        W24901  15.700  30.128  28.753  0.0732  0.0818 -0.1650
81808W        W24902  16.940  28.258  27.155  0.0164 -0.1337  0.2421
81809W        W24903  14.572  30.706  29.383 -0.2280  0.1653  0.3167
81810W        W24904  15.679  30.805  30.054  0.0583  0.5289  0.1249
81811W        W24905  17.240  31.677  31.324  0.1174 -0.1324  0.3506
81812W        W24906  14.342  29.603  29.450  0.3918 -0.1633  0.4537
81813W        W24907  18.807  32.629  26.591 -0.0634 -0.1813  0.1545
81814W        W24908  17.060  30.156  30.598  0.1386 -0.2983  0.2698
81815W        W24909  18.265  31.946  27.058  0.2158  0.0911 -0.2169
81816W        W24910  16.674  30.951  30.232  0.0197  0.0064  0.2970
81817W        W24911  19.030  33.745  28.888  0.0084  0.2121  0.0019
81818W        W24912  14.218  29.035  29.860  0.3675  0.2080 -0.2260
81819W        W24913  17.294  32.265  30.262 -0.1143  0.1333 -0.0343
81820W        W24914  18.528  32.128  28.737  0.0911  0.0082  0.1779
81821W        W24915  15.829  30.263  29.196  0.1151 -0.0603  0.1558
81822W        W24916  14.542  30.869  28.870  0.1827 -0.0908  0.0681
81823W        W24917  15.270  32.198  28.093 -0.2158  0.1057 -0.0282
81824W        W24918  17.836  29.058  29.638 -0.0694  0.6099 -0.5254
81825W        W24919  17.953  29.699  30.477 -0.1062  0.2395  0.1048
81826W        W24920  17.791  32.723  26.839  0.0455  0.1890  0.0414
81827W        W24921  17.385  29.864  30.952  0.0087 -0.1942  0.1806
81828W        W24922  14.906  30.940  30.200  0.0338  0.2714 -0.1465
81829W        W24923  16.008  32.673   0.373 -0.0035  0.0502  0.1307
81830W        W24924  14.632  31.724  27.159  0.0095 -0.0157 -0.4515
81831W        W24925  16.241  30.715  31.075 -0.1093 -0.2775  0.3408
81832W        W24926  14.726  31.245  29.204 -0.1608  0.1800  0.1314
81833W        W24927  15.268  32.549  29.493  0.0584  0.1819  0.1532
81834W        W24928  17.907  30.617  29.496  0.1659  0.1069  0.1004
81835W        W24929  17.428  29.361  29.454 -0.0015  0.0983 -0.0621
81836W        W24930  17.292  31.508  29.752 -0.1983  0.0025 -0.1419
81837W        W24931  16.565  27.349  29.386  0.1900 -0.1525 -0.1672
81838W        W24932  18.411  29.434  29.091  0.2613  0.1695  0.2882
81839W        W24933  17.151  29.771  28.449  0.2004  0.2953  0.1329
81840W        W24934  15.259  30.818  29.718 -0.1303 -0.0565 -0.2002
81841W        W24935  16.053  31.204  27.433  0.3707  0.1422  0.0116
81842W        W24936  16.062  31.229  28.892 -0.2461 -0.1144  0.1450
81843W        W24937  15.434  31.650  27.621 -0.2360  0.2610  0.1330
81844W        W24938  16.986  30.412  31.072  0.0247  0.4021  0.2145
81845W        W24939  14.714  30.193  30.206  0.2204 -0.0057 -0.0996
81846W        W24940  15.040  31.479  29.551 -0.0785 -0.0394  0.2122
81847W        W24941  15.397  30.914  28.330  0.2110  0.0377  0.0769
81848W        W24942  19.659  31.191  27.664  0.0616 -0.1419 -0.3790
81849W        W24943  16.250  29.361  29.154 -0.1027 -0.0213  0.2868
81850W        W24944  15.508  27.579  29.126  0.4194 -0.0885  0.0734
81851W        W24945  18.895  30.988  28.387 -0.3138 -0.3016  0.1064
81852W        W24946  17.817  32.988  27.608 -0.3869  0.4117  0.4895
81853W        W24947  16.336  28.883  29.001 -0.2316  0.5201 -0.0160
81854W        W24948  17.595  31.931  31.640 -0.0277 -0.0985 -0.0860
81855W        W24949  14.295  30.387  28.177 -0.2007 -0.0526 -0.0600
81856W        W24950  15.229  30.822  30.854  0.0720  0.1328  0.3294
81857W        W24951  15.716  30.662  31.042  0.1048 -0.0296 -0.2723
81858W        W24952  15.320  29.524  28.211 -0.0180 -0.1668  0.2752
81859W        W24953  16.648  30.670  29.798 -0.2008 -0.1078  0.4689
81860W        W24954  17.914  31.346  28.717 -0.2323 -0.1010 -0.1620
81861W        W24955  17.471  31.409  29.004 -0.2584  0.2786  0.1018
81862W        W24956  14.280  31.292  30.399 -0.3801  0.2100 -0.0498
81863W        W24957  16.389  32.433   0.122 -0.1405  0.2580 -0.1400
81864W        W24958  16.167  30.596  29.857 -0.4054  0.1238 -0.1241
81865W        W24959  16.761  31.405  27.476 -0.2499  0.1133 -0.0074
81866W        W24960  15.052  31.946  29.584 -0.1687  0.2882 -0.1275
81867W        W24961  19.392  30.839  27.986  0.1544 -0.0928  0.1359
81868W        W24962  18.160  28.709  30.425 -0.1331 -0.2568 -0.0338
81869W        W24963  16.940  30.562  29.430  0.2766 -0.0609  0.1777
81870W        W24964  15.221  29.223  30.709  0.0718  0.2197 -0.1970
81871W        W24965  15.709  31.463  30.284 -0.0175  0.2900 -0.2279
81872W        W24966  18.722  30.605  29.958 -0.1259 -0.1146  0.0021
81873W        W24967  15.176  29.790  29.482  0.0596 -0.0230 -0.0471
81874W        W24968  18.033  29.959  28.946 -0.1182  0.2468  0.2999
81875W        W24969  17.935  31.781  27.952 -0.0813 -0.2075  0.0911
81876W        W24970  14.285  30.699  30.975  0.1626 -0.2240  0.0172
81877W        W24971  16.861  29.897  28.036 -0.0322  0.1913  0.1977
81878W        W24972  15.288  30.063  30.388 -0.2601  0.0779  0.1756
81879W        W24973  16.636  30.929  29.265 -0.1975 -0.0718 -0.0607
81880W        W24974  17.455  30.900   0.053 -0.1513  0.2738 -0.0788
81881W        W24975  16.329  30.231  28.889  0.0188 -0.2694 -0.1999
81882W        W24976  19.623  31.536  27.996 -0.0292 -0.1538 -0.0995
81883W        W24977  16.970  32.299  30.670  0.0413  0.0473  0.2721
81884W        W24978  18.566  30.800  30.979 -0.0717  0.5490 -0.0855
81885W        W24979  16.611  32.536  31.081  0.0112  0.0223  0.2654
81886W        W24980  17.423  30.623  31.008 -0.2991 -0.1848 -0.2873
81887W        W24981  15.060  29.946  29.913  0.3834 -0.1881  0.3161
81888W        W24982  16.302  30.313  27.948 -0.1402  0.1424 -0.1995
81889W        W24983  14.801  30.265  28.662  0.3772 -0.3906 -0.1038
81890W        W24984  17.473  31.816  30.133  0.0006  0.0264 -0.2180
81891W        W24985  15.958  30.281  28.379  0.2095  0.2184  0.1034
81892W        W24986  18.455  30.653  28.647 -0.2256 -0.4608  0.2967
81893W        W24987  16.491  31.593  30.782  0.1923 -0.0267 -0.0238
81894W        W24988  17.683  31.028  30.582  0.1277  0.0584  0.2285
81895W        W24989  17.063  30.062   0.277 -0.0908 -0.2156 -0.0498
81896W        W24990  15.243  30.814   0.236  0.0831  0.2886  0.3161
81897W        W24991  15.210  31.577  31.163 -0.1259  0.2156 -0.2758
81898W        W24992  14.001  32.602  31.852 -0.0688 -0.1097  0.0666
81899W        W24993  14.739  32.379  30.725  0.0838 -0.0141  0.0829
81900W        W24994  16.392  34.148  31.334  0.1739  0.3800 -0.4070
81901W        W24995  17.142  30.194  31.801  0.1046 -0.3876  0.2795
81902W        W24996  16.203  29.983   0.310  0.1685  0.3052 -0.1823
81903W        W24997  18.751  31.225  31.221 -0.0730 -0.0095  0.0635
81904W        W24998  17.771  31.899   0.632 -0.3031 -0.2831  0.1241
81905W        W24999  18.866  31.436   0.315  0.1477 -0.0800 -0.1234
81906W        W25000  14.515  29.430  31.874  0.0085 -0.0253  0.0769
81907W        W25001  16.636  32.309  31.516  0.2371 -0.0591 -0.0353
81908W        W25002  14.001  31.237  30.843  0.1380  0.2815 -0.0772
81909W        W25003  18.853  30.668  31.964  0.2726 -0.2226  0.0785
81910W        W25004  15.403  33.583  30.335  0.0335 -0.1987  0.0792
81911W        W25005  13.495  30.459   0.098 -0.0197 -0.4714  0.2904
81912W        W25006  17.329  31.369  31.794  0.0598 -0.0390  0.0255
81913W        W25007  15.920  27.163   0.610  0.1990 -0.0934  0.0712
81914W        W25008  15.131  29.720  31.542 -0.1270  0.0679 -0.6295
81915W        W25009  15.338  29.919   0.000  0.0923  0.2464 -0.0430
81916W        W25010  15.285  32.508  30.649 -0.0582 -0.0999  0.1409
81917W        W25011  18.073  29.494   0.527 -0.1604 -0.4276  0.0894
81918W        W25012  17.579  29.871  31.778 -0.0234 -0.0250 -0.0292
81919W        W25013  17.677  30.253  31.245 -0.0545 -0.1655 -0.1511
81920W        W25014  16.212  30.567  31.595  0.2580  0.0988  0.5161
81921W        W25015  15.524  31.018  31.786  0.0401 -0.2170 -0.0925
81922W        W25016  15.315  32.235  29.959  0.3381  0.2917 -0.2378
81923W        W25017  15.120  30.762  31.674 -0.2930 -0.0792 -0.0015
81924W        W25018  17.217  31.064  30.814  0.1252 -0.1270 -0.0324
81925W        W25019  17.257  31.065  30.166  0.0601 -0.1246  0.1882
81926W        W25020  17.231  29.834  31.415  0.1702 -0.3735 -0.3292
81927W        W25021  17.590  30.873   0.513 -0.3507 -0.0002  0.1792
81928W        W25022  16.868  29.899  31.111 -0.1170 -0.1118 -0.0364
81929W        W25023  15.429  30.212  30.957  0.1840  0.3627  0.2152
81930W        W25024  14.611  29.906  29.762 -0.1403  0.0239 -0.0897
81931W        W25025  16.022  31.464  30.644  0.1894 -0.3297  0.0683
81932W        W25026  15.686  31.111   0.336 -0.5647  0.1504 -0.0693
81933W        W25027  15.320  32.029  31.505 -0.2336  0.3466  0.2241
81934W        W25028  15.501  31.877   0.514 -0.0993 -0.1911  0.3538
81935W        W25029  15.581  30.627  30.520 -0.3208 -0.1193  0.0641
81936W        W25030  17.600  30.339   0.629  0.2736  0.0134  0.1111
81937W        W25031  16.197  30.505   0.391 -0.1318  0.0919  0.3609
81938W        W25032  16.750  33.190   0.811  0.2086 -0.0479  0.0562
81939W        W25033  16.244  30.197  31.176 -0.2275 -0.0504  0.0107
81940W        W25034  14.640  30.441  31.770 -0.2223 -0.1318 -0.1685
81941W        W25035  16.458  29.145  31.272 -0.0785 -0.0902  0.1712
81942W        W25036  14.014  30.571  31.949  0.3724 -0.0658 -0.2605
81943W        W25037  17.597  31.505   0.378  0.2643  0.0271  0.0263
81944W        W25038  12.222  31.226  31.266 -0.1021  0.2571  0.0342
81945W        W25039  16.884  32.104   0.122 -0.2232 -0.0795  0.1026
81946W        W25040  17.067  29.623  31.834 -0.2769 -0.2926  0.2385
81947W        W25041  17.176  29.521   0.316 -0.0056 -0.2855  0.1607
81948W        W25042  16.397  31.168   0.873  0.0527  0.1638 -0.1032
81949W        W25043  14.786  30.820   0.143  0.2784  0.1454 -0.0283
81950W        W25044  15.924  32.261   0.138 -0.0937 -0.2070  0.1249
81951W        W25045  16.905  31.238  30.532  0.1264  0.0090  0.0025
81952W        W25046  17.089  32.499  31.588 -0.0105  0.4605  0.0201
81953W        W25047  16.078  32.641  30.276  0.1022  0.0390 -0.1809
81954W        W25048  14.398  31.728  31.610 -0.3870 -0.1833 -0.1537
81955W        W25049  15.734  31.841  31.958  0.2822 -0.0596  0.0967
81956W        W25050  14.501  31.109  30.810 -0.0104 -0.1042  0.3515
81957W        W25051  13.876  29.801  29.628 -0.0969 -0.0169 -0.2601
81958W        W25052  14.483  28.698  31.450  0.2023 -0.4180 -0.4623
81959W        W25053  17.821  32.281  31.903  0.1053 -0.1702  0.0395
81960W        W25054  18.569  31.180   0.826 -0.0925  0.3300 -0.1365
81961W        W25055  17.938  31.290   0.816 -0.0246 -0.0840  0.1726
81962W        W25056  14.531   1.028  16.722  0.0933  0.2201  0.1387
81963W        W25057  16.262  33.237  16.313 -0.0360  0.0125 -0.1067
81964W        W25058  17.647   0.287  16.273 -0.3671  0.1113 -0.0651
81965W        W25059  14.838  32.976  18.132 -0.1421 -0.0572  0.1637
81966W        W25060  15.256  32.586  18.953  0.5071 -0.1307 -0.0329
81967W        W25061  17.426  34.127  15.910  0.0236 -0.1375  0.2147
81968W        W25062  17.350  33.919  19.464  0.0363  0.1588  0.3841
81969W        W25063  14.904  33.300  16.218  0.2554 -0.2174  0.0293
81970W        W25064  15.358  32.451  16.866  0.4584  0.1993 -0.1030
81971W        W25065  16.274  32.604  18.964  0.1150 -0.2470  0.0180
81972W        W25066  14.532  33.739  16.810 -0.0699  0.1165 -0.0637
81973W        W25067  15.695  33.766  18.783  0.0561  0.1307  0.1710
81974W        W25068  15.699  34.395  15.923 -0.0310 -0.3117  0.0322
81975W        W25069  16.083  31.848  18.496 -0.3344 -0.2120 -0.1695
81976W        W25070  15.434  32.351  18.564 -0.1004 -0.0526 -0.3210
81977W        W25071  15.218  34.150  15.774  0.1961  0.3457 -0.0126
81978W        W25072  15.720  34.166  19.133 -0.1297 -0.1086 -0.0523
81979W        W25073  15.972  33.692  18.225  0.0358 -0.1470  0.2800
81980W        W25074  17.639  33.448  17.422  0.0343  0.3576 -0.1694
81981W        W25075  17.356  34.441  18.360  0.1556 -0.1780 -0.3467
81982W        W25076  17.393  32.702  19.012 -0.0275  0.1684 -0.1933
81983W        W25077  15.744   0.102  18.192  0.1492  0.1913 -0.0222
81984W        W25078  16.204  32.952  15.916  0.1390  0.2212  0.3048
81985W        W25079  18.292  32.499  19.451 -0.0684  0.1529  0.0767
81986W        W25080  16.727  32.872  16.198 -0.0762 -0.0589 -0.3465
81987W        W25081  16.323   0.733  17.154 -0.0590 -0.3698  0.1460
81988W        W25082  17.095  32.810  15.536 -0.5487 -0.2966  0.1381
81989W        W25083  15.842  32.876  16.276  0.1519  0.2671 -0.1325
81990W        W25084  16.286  32.278  17.638  0.0442 -0.0055 -0.0936
81991W        W25085  17.622  34.248  16.880  0.1494  0.1286 -0.0101
81992W        W25086  16.087  32.757  17.917 -0.0543  0.0864 -0.1536
81993W        W25087  16.300   0.213  17.347 -0.2656  0.1865 -0.0484
81994W        W25088  13.567  33.283  17.003  0.1096  0.3978 -0.1337
81995W        W25089  14.058   0.803  18.028  0.1177  0.0024 -0.0066
81996W        W25090  14.059  33.793  18.659  0.2853 -0.1875 -0.2824
81997W        W25091  16.547  33.348  15.884  0.0887  0.0523 -0.1705
81998W        W25092  17.219  32.717  16.854 -0.2689 -0.0499  0.4348
81999W        W25093  16.186  32.043  18.959  0.0914  0.0191  0.0788
82000W        W25094  15.956  31.850  17.944 -0.2803  0.0307 -0.0047
82001W        W25095  16.685  33.475  16.393  0.1215  0.0107 -0.0602
82002W        W25096  16.848  34.519  19.065 -0.0944  0.3675 -0.3239
82003W        W25097  13.769  33.811  17.764 -0.0802 -0.0960 -0.2580
82004W        W25098  16.591  32.898  16.710  0.1243 -0.1293  0.2635
82005W        W25099  14.502  32.849  19.442 -0.0561 -0.1447  0.0148
82006W        W25100  17.023  34.563  16.750  0.0201 -0.1842  0.0417
82007W        W25101  18.042  33.544  17.101 -0.5204  0.0221 -0.1522
82008W        W25102  15.601  34.273  17.401 -0.1372 -0.0999  0.0765
82009W        W25103  12.757  33.741  17.852 -0.0774 -0.2359 -0.2092
82010W        W25104  16.008  33.305  20.152 -0.0948  0.2295  0.1058
82011W        W25105  14.973  33.025  19.062  0.3508  0.0802 -0.0352
82012W        W25106  17.661   0.160  18.804  0.2650 -0.4017 -0.2768
82013W        W25107  15.634  31.932  15.358  0.0021 -0.1272  0.1498
82014W        W25108  17.299  33.270  18.262  0.3404 -0.4000 -0.0806
82015W        W25109  16.674  33.313  17.501  0.0532 -0.2625 -0.0648
82016W        W25110  17.926  33.278  19.756 -0.1257 -0.1233 -0.0475
82017W        W25111  15.270  31.665  18.026  0.1748 -0.2755  0.0660
82018W        W25112  15.052  32.223  16.000  0.3388  0.0802  0.1958
82019W        W25113  14.521  32.996  15.669 -0.1799  0.0526 -0.2268
82020W        W25114  17.655  33.776  19.876  0.0174  0.1020 -0.0215
82021W        W25115  16.438   0.175  18.964  0.1538  0.0384 -0.1510
82022W        W25116  15.200  32.560  15.134 -0.0962  0.0040  0.0197
82023W        W25117  14.198  33.785  15.967  0.0184  0.0622  0.0359
82024W        W25118  18.659  32.260  18.225  0.2948 -0.1155  0.0341
82025W        W25119  14.377  33.756  20.456  0.1232 -0.1839  0.2186
82026W        W25120  16.194  33.332  19.322  0.3551  0.3164  0.0343
82027W        W25121  15.470  33.327  15.672 -0.0026  0.1307  0.0408
82028W        W25122  17.689  32.920  16.643 -0.0488  0.1844  0.0644
82029W        W25123  17.161  33.370  16.326  0.2692 -0.1822  0.3072
82030W        W25124  16.129  34.070  17.258  0.0076  0.1655  0.0596
82031W        W25125  16.977  32.468  16.519 -0.0273  0.1507 -0.0613
82032W        W25126  16.127  32.574  15.546 -0.1332  0.0925  0.1646
82033W        W25127  15.703  33.353  18.519  0.2082 -0.0926 -0.0314
82034W        W25128  16.223  34.301  16.289  0.0922 -0.0037  0.1180
82035W        W25129  16.034  34.380  17.633 -0.1990  0.1230 -0.1414
82036W        W25130  17.736  32.739  19.372 -0.1747 -0.0177 -0.0911
82037W        W25131  16.101   0.255  17.829 -0.0464 -0.1225 -0.0008
82038W        W25132  16.876  32.133  19.564 -0.1031  0.2569  0.0632
82039W        W25133  17.316  32.225  20.626 -0.1840  0.4601  0.5530
82040W        W25134  16.989  33.843  17.805  0.0000  0.4294  0.1676
82041W        W25135  17.151   0.165  18.096 -0.0050 -0.0079 -0.1195
82042W        W25136  16.049  34.314  15.381  0.0923 -0.0877 -0.2408
82043W        W25137  16.613  32.886  19.293  0.2976 -0.0361  0.2253
82044W        W25138  17.243   0.243  19.663 -0.2218  0.0984 -0.0212
82045W        W25139  15.352  32.612  16.162  0.1466  0.0622 -0.0184
82046W        W25140  15.179  32.205  18.134 -0.0533 -0.1456  0.0964
82047W        W25141  18.306  33.622  19.342  0.2561  0.3959 -0.1886
82048W        W25142  14.597  31.869  15.811 -0.1538 -0.1658  0.2091
82049W        W25143  15.181  34.571  16.097  0.1728  0.0798 -0.2457
82050W        W25144  17.104  32.752  18.068  0.1421  0.1699  0.1492
82051W        W25145  15.056  33.983  17.761  0.0694 -0.0671 -0.0546
82052W        W25146  14.962  32.938  17.605 -0.0071  0.0787  0.0577
82053W        W25147  16.519   0.412  18.037  0.0373  0.0730 -0.0861
82054W        W25148  17.023  31.502  16.376 -0.3789 -0.1427  0.3799
82055W        W25149  17.131   0.586  20.438  0.0343 -0.0362 -0.0180
82056W        W25150  13.829  33.408  17.435 -0.0059 -0.1464  0.1627
82057W        W25151  18.426  32.706  19.980  0.1769 -0.1610 -0.4208
82058W        W25152  16.098  34.624  19.221 -0.0602  0.0550  0.0461
82059W        W25153  14.165  33.617  15.391  0.0807  0.1186 -0.4471
82060W        W25154  16.106  32.700  19.418  0.0684  0.2642 -0.1302
82061W        W25155  15.788  34.176  18.392 -0.3018  0.2366  0.0889
82062W        W25156  16.313  31.761  17.395 -0.0198  0.0090 -0.2565
82063W        W25157  15.802  32.478  17.599 -0.1785  0.1097 -0.1689
82064W        W25158  16.547  33.355  19.666  0.1697  0.0750 -0.0114
82065W        W25159  15.742  30.874  17.819 -0.0762 -0.1694  0.2503
82066W        W25160  18.085  34.673  20.957  0.2257 -0.2078  0.0334
82067W        W25161  14.586  33.376  19.080 -0.2740  0.0179 -0.2491
82068W        W25162  18.361  31.786  17.471 -0.2692  0.0214  0.0637
82069W        W25163  17.268  33.377  17.711 -0.0951 -0.2842 -0.2525
82070W        W25164  17.352  32.367  19.419 -0.0884 -0.0640  0.3001
82071W        W25165  16.916  32.852  17.619 -0.1188 -0.0607  0.0262
82072W        W25166  17.303  34.248  19.919  0.2933 -0.3869  0.1624
82073W        W25167  15.702  32.407  18.088  0.0627 -0.1655  0.4513
82074W        W25168  15.329  34.101  18.653 -0.1627  0.1078 -0.0165
82075W        W25169  15.675  33.466  19.268 -0.2256 -0.2082 -0.0588
82076W        W25170  16.393  33.840  16.881 -0.0399 -0.0603  0.3337
82077W        W25171  15.241  32.602  15.651 -0.1057 -0.2415 -0.2662
82078W        W25172  16.237  33.924  18.627  0.1515  0.0050  0.1734
82079W        W25173  17.321  33.228  16.793 -0.1006 -0.3447  0.2369
82080W        W25174  14.465   0.487  18.291  0.0966 -0.2262 -0.0226
82081W        W25175  15.400  33.155  16.188 -0.2290 -0.1889  0.1686
82082W        W25176  15.655  32.943  20.295 -0.3584  0.1263  0.3351
82083W        W25177  15.675  33.123  17.091 -0.0789  0.2280 -0.3641
82084W        W25178  16.113  33.798  19.134  0.2271  0.3230  0.2064
82085W        W25179  17.963  33.738  18.854  0.1065  0.0194 -0.4370
82086W        W25180  15.587  34.386  20.375  0.0408 -0.0559 -0.2196
82087W        W25181  14.573  34.202  20.542 -0.4240 -0.0981  0.4095
82088W        W25182  17.542  33.217  15.589  0.2112 -0.5777  0.1730
82089W        W25183  18.043   0.244  20.119  0.0084  0.2093 -0.0477
82090W        W25184  18.004  33.806  16.192 -0.0488  0.1338  0.1132
82091W        W25185  18.570  33.988  17.733 -0.2070  0.0185 -0.0994
82092W        W25186  14.524  32.704  17.285  0.1102 -0.1011  0.1387
82093W        W25187  17.749  33.557  20.707 -0.3495  0.1296  0.1709
82094W        W25188  15.893  32.421  16.071  0.0537  0.1125  0.1182
82095W        W25189  15.962  32.473  19.898 -0.2191 -0.0581 -0.0423
82096W        W25190  16.883  33.709  16.823 -0.1446 -0.2445 -0.0314
82097W        W25191  15.262  33.915  17.341  0.3100  0.0736 -0.2109
82098W        W25192  13.720  34.039  17.057  0.0097 -0.0713  0.1720
82099W        W25193  14.710   0.803  15.850 -0.0018  0.0108 -0.1062
82100W        W25194  16.591  32.211  16.211  0.2320 -0.0300 -0.1428
82101W        W25195  18.422  34.100  20.069 -0.0650 -0.1020  0.1408
82102W        W25196  17.782  31.715  17.408 -0.2577 -0.0094 -0.1183
82103W        W25197  15.511  32.045  17.750  0.1096 -0.0655  0.0539
82104W        W25198  17.214  32.920  19.443  0.0637  0.1179  0.3051
82105W        W25199  15.726  33.763  17.208  0.1009 -0.1522 -0.3671
82106W        W25200  16.468  34.064  18.235 -0.1558 -0.0818 -0.3409
82107W        W25201  16.507  34.423  17.329 -0.0324 -0.1833  0.0880
82108W        W25202  14.055  31.903  19.434  0.0735 -0.1286 -0.0394
82109W        W25203  16.442  32.404  16.675  0.1053  0.0343  0.0446
82110W        W25204  15.850  33.327  16.052 -0.2182  0.0473 -0.0592
82111W        W25205  17.275  32.836  16.341  0.0056 -0.1580  0.3166
82112W        W25206  17.847  33.457  19.315  0.0030  0.0718 -0.3521
82113W        W25207  18.324  34.161  15.512 -0.0129 -0.0936  0.0589
82114W        W25208  16.069  32.879  16.813  0.0043  0.0391  0.0726
82115W        W25209  15.441  32.001  17.140 -0.4303  0.1859  0.1175
82116W        W25210  15.340   0.914  19.883 -0.0358 -0.0393 -0.0321
82117W        W25211  17.122  32.200  21.099 -0.0624 -0.2333 -0.0788
82118W        W25212  15.682  32.832  15.800 -0.0761  0.0819  0.2871
82119W        W25213  14.992  33.719  16.487 -0.0981  0.0359 -0.2131
82120W        W25214  18.129  32.671  17.431  0.2118 -0.1007 -0.2767
82121W        W25215  16.182  33.726  16.237  0.5338 -0.0430  0.0708
82122W        W25216  14.233  32.758  16.037 -0.0778 -0.0526 -0.1707
82123W        W25217  17.973  34.516  18.439 -0.2018 -0.1033  0.2742
82124W        W25218  16.594  33.750  19.997  0.1048 -0.0789  0.0385
82125W        W25219  16.682  32.013  19.104 -0.1752  0.0059 -0.4364
82126W        W25220  14.449  34.251  17.441  0.1823  0.0171 -0.0679
82127W        W25221  17.450  33.701  16.866 -0.1725  0.0351  0.2073
82128W        W25222  15.375  33.742  18.259 -0.3239  0.1293  0.0023
82129W        W25223  16.705  34.549  16.343 -0.0975  0.1722 -0.2136
82130W        W25224  18.228   0.829  19.465 -0.2754  0.0381  0.2535
82131W        W25225  15.369  33.743  15.454  0.2212 -0.2181 -0.0915
82132W        W25226  16.160  33.288  17.876  0.1911  0.2878  0.2858
82133W        W25227  16.733  32.616  17.086  0.4009  0.3804 -0.1195
82134W        W25228  14.669  34.497  17.831 -0.0527  0.0463  0.1403
82135W        W25229  17.248  33.009  17.246 -0.1422 -0.3393  0.1232
82136W        W25230  15.681  33.040  18.084  0.2139  0.1234 -0.0690
82137W        W25231  17.377  33.743  18.089 -0.0365 -0.1720  0.4139
82138W        W25232  18.508  33.715  18.216  0.2251 -0.0927 -0.0647
82139W        W25233  13.816  33.413  18.890  0.0673 -0.1585  0.1084
82140W        W25234  16.829  31.817  17.433 -0.1680 -0.0909  0.1654
82141W        W25235  15.597  34.304  17.927  0.0123 -0.1541  0.2834
82142W        W25236  17.655  32.919  17.591  0.0490  0.2763  0.1222
82143W        W25237  17.796  34.222  18.797 -0.1746  0.2254  0.0050
82144W        W25238  17.374  30.953  19.442 -0.0392 -0.0946 -0.0653
82145W        W25239  16.621  34.684  17.738  0.1506 -0.1343 -0.1169
82146W        W25240  15.635  34.512  16.501 -0.5139 -0.0816 -0.2086
82147W        W25241  16.448  30.619  17.195 -0.0785  0.0776 -0.3438
82148W        W25242  18.201  31.372  17.200  0.2413 -0.2639 -0.0924
82149W        W25243  15.074  34.320  18.160  0.1367  0.1332  0.1481
82150W        W25244  13.911  34.132  15.631  0.1901 -0.3936 -0.1596
82151W        W25245  16.374  31.897  20.327  0.0808  0.2616  0.0042
82152W        W25246  15.639  33.467  19.807  0.0225 -0.2309 -0.2296
82153W        W25247  14.599  33.769  17.302 -0.1993  0.2145 -0.3115
82154W        W25248  14.580  33.481  15.727  0.0027 -0.1402  0.1855
82155W        W25249  15.011  31.605  16.997 -0.0298  0.2441 -0.0554
82156W        W25250  13.979  33.462  16.777  0.0716 -0.3388 -0.4187
82157W        W25251  15.340  34.637  15.628  0.3501  0.2546  0.1986
82158W        W25252  16.875  34.434  19.820 -0.3669 -0.3440  0.1927
82159W        W25253  15.882  33.007  19.745 -0.4699 -0.1088  0.2768
82160W        W25254  13.948  34.210  16.154 -0.3510  0.0161  0.2616
82161W        W25255  15.499  34.163  19.560 -0.1133  0.1796 -0.1156
82162W        W25256  13.471  33.334  20.668  0.0292  0.0044  0.1362
82163W        W25257  17.164  32.207  17.911  0.1410  0.0263 -0.2696
82164W        W25258  17.343  34.591  17.238 -0.0147  0.3069  0.0097
82165W        W25259  15.077  32.460  19.919 -0.0828  0.1227  0.3946
82166W        W25260  16.359  33.382  16.809  0.0901 -0.0427 -0.0096
82167W        W25261  16.830  33.237  16.989 -0.1743  0.1846  0.3286
82168W        W25262  16.094  33.837  17.773  0.5210  0.0069 -0.1773
82169W        W25263  15.853  33.340  16.675  0.0046 -0.0585  0.2882
82170W        W25264  16.135  33.525  17.229 -0.1171  0.4001  0.0529
82171W        W25265  16.079   0.133  16.374  0.3776  0.1680 -0.0522
82172W        W25266  17.797  34.262  16.427 -0.2104 -0.0339  0.2041
82173W        W25267  16.115  33.419  18.805 -0.0893 -0.0103  0.1892
82174W        W25268  15.626   0.143  16.130  0.0299  0.0160  0.0528
82175W        W25269  15.951  33.790  16.668  0.0838 -0.0219 -0.0544
82176W        W25270  16.447  32.799  17.576 -0.1713 -0.2503 -0.0971
82177W        W25271  15.985  32.358  18.627 -0.2027 -0.4246 -0.1903
82178W        W25272  16.536  33.635  17.844  0.3128 -0.2206  0.2088
82179W        W25273  14.705   0.092  21.144  0.0436 -0.0000 -0.1998
82180W        W25274  17.809  32.265  19.331  0.0968 -0.0158 -0.0966
82181W        W25275  17.433  32.974  21.562  0.2062 -0.0627 -0.1043
82182W        W25276  14.139  32.124  19.842 -0.0162  0.3738  0.0411
82183W        W25277  15.369  33.134  22.432  0.2666  0.0165 -0.1301
82184W        W25278  16.895  33.564  19.353  0.0320 -0.2040 -0.1429
82185W        W25279  16.509  34.124  21.237 -0.2270  0.2641  0.0445
82186W        W25280  15.531  32.465  20.210  0.1472 -0.0055 -0.0639
82187W        W25281  15.171  31.795  21.442 -0.2959 -0.4544  0.1850
82188W        W25282  16.075  33.191  21.189 -0.1136 -0.0730 -0.1927
82189W        W25283  14.666  34.222  22.260  0.0207 -0.1697 -0.4135
82190W        W25284  14.713  34.350  21.783 -0.1788 -0.2769  0.1926
82191W        W25285  15.794  33.685  20.434  0.0829 -0.2469  0.2936
82192W        W25286  16.749  33.762  21.646  0.1771  0.2711 -0.0949
82193W        W25287  17.588  32.248  24.102  0.2648 -0.0802 -0.1643
82194W        W25288  14.534  34.046  19.313  0.3170 -0.4318  0.0350
82195W        W25289  14.354  33.844  22.237  0.0916  0.0691 -0.0867
82196W        W25290  16.880  34.588  20.977  0.1388 -0.1666 -0.2607
82197W        W25291  16.437  32.799  21.282  0.2013  0.0872 -0.1751
82198W        W25292  17.305  34.275  21.078 -0.2623  0.2927  0.1049
82199W        W25293  17.460  33.247  22.387 -0.0496 -0.1628  0.1271
82200W        W25294  16.179   0.242  20.654 -0.1450  0.0582  0.0281
82201W        W25295  15.203   0.901  20.719 -0.1944 -0.0877 -0.0744
82202W        W25296  18.198  34.502  25.318  0.2614  0.2995  0.0943
82203W        W25297  16.735   0.058  20.499  0.1578  0.1733 -0.1180
82204W        W25298  16.555  33.941  19.480 -0.1822 -0.4627 -0.1800
82205W        W25299  17.424  33.609  20.297  0.1594  0.2992  0.1892
82206W        W25300  16.385  32.180  21.092  0.0162  0.1777  0.0152
82207W        W25301  15.708  33.822  22.100 -0.0041  0.4795 -0.1128
82208W        W25302  15.069   0.451  21.297  0.1279 -0.0754 -0.1237
82209W        W25303  16.721  33.596  22.116 -0.4099 -0.0282 -0.1091
82210W        W25304  14.527  34.004  21.431  0.1159  0.1950 -0.1008
82211W        W25305  15.653  34.520  21.433  0.0799  0.3555  0.2860
82212W        W25306  14.314   0.373  22.475  0.1892  0.2256 -0.1396
82213W        W25307  14.572  34.605  24.038 -0.2954  0.2079 -0.3964
82214W        W25308  17.113  32.716  20.463  0.0281 -0.2350  0.1152
82215W        W25309  17.675  31.857  21.942  0.0367 -0.0958  0.1291
82216W        W25310  16.450  32.301  22.183  0.3816 -0.0325 -0.2843
82217W        W25311  18.318  33.088  22.773 -0.2580 -0.0248  0.0065
82218W        W25312  17.796   0.044  20.524 -0.2036 -0.2514 -0.0316
82219W        W25313  16.628  33.659  23.515 -0.0617 -0.0072  0.0671
82220W        W25314  14.545  33.401  22.033  0.1370 -0.2947  0.0993
82221W        W25315  17.703  33.386  21.657 -0.0506  0.5142  0.3900
82222W        W25316  14.501  34.049  22.733 -0.0603 -0.0347  0.2043
82223W        W25317  17.338  32.490  21.424 -0.2128 -0.0375  0.2710
82224W        W25318  17.581  33.176  20.464  0.1714  0.3006 -0.0514
82225W        W25319  14.039  33.905  22.634  0.1133  0.0905 -0.1017
82226W        W25320  14.601  32.341  20.750 -0.0619 -0.2926  0.2506
82227W        W25321  16.190  33.902  23.114 -0.1442 -0.0160  0.0230
82228W        W25322  14.919  33.749  20.321  0.1323 -0.0846 -0.1007
82229W        W25323  17.082   0.151  22.045  0.0165  0.0075  0.0191
82230W        W25324  14.506  33.333  20.156 -0.0398  0.1479  0.3747
82231W        W25325  17.368  31.520  21.752  0.0083  0.1202 -0.1255
82232W        W25326  14.984  33.964  20.790 -0.0299 -0.1933  0.2072
82233W        W25327  16.768  33.210  23.389 -0.1266  0.2172 -0.0410
82234W        W25328  15.737  33.816  22.681  0.0885 -0.1605  0.4553
82235W        W25329  14.355  34.586  21.423  0.0872 -0.0699 -0.0364
82236W        W25330  16.157  32.839  20.267 -0.2923  0.1256 -0.1523
82237W        W25331  18.889  32.388  22.598  0.2309  0.1983  0.1288
82238W        W25332  16.828   0.400  19.821 -0.0264  0.1277  0.3272
82239W        W25333  13.242  32.224  20.654 -0.0753 -0.0558 -0.1596
82240W        W25334  13.504  33.838  22.153 -0.1535 -0.1130 -0.1493
82241W        W25335  18.747  33.102  20.056 -0.0112  0.0183  0.0062
82242W        W25336  15.062  34.388  22.740  0.3753 -0.0571 -0.0312
82243W        W25337  16.677  34.573  24.157  0.1160  0.0911 -0.1578
82244W        W25338  15.079  34.599  21.398  0.1621 -0.1439 -0.1227
82245W        W25339  16.537  33.150  20.210 -0.1827  0.0145 -0.0583
82246W        W25340  18.293  32.127  19.853  0.0139 -0.1045 -0.0701
82247W        W25341  17.445  33.209  19.121  0.1326  0.0449  0.1839
82248W        W25342  16.541  30.906  19.985  0.2930  0.3636 -0.2776
82249W        W25343  16.181  32.258  20.518  0.0666 -0.2190 -0.3183
82250W        W25344  16.380  32.873  22.990  0.2037  0.2126 -0.0626
82251W        W25345  18.154  33.707  19.829 -0.1076 -0.2019  0.3898
82252W        W25346  16.101  32.914  20.766 -0.2052  0.1026 -0.2312
82253W        W25347  16.929  33.446  22.551 -0.2496  0.0248  0.3558
82254W        W25348  18.100  33.086  21.382  0.1594  0.0254 -0.0086
82255W        W25349  15.742  32.116  23.584  0.1915  0.1745 -0.2092
82256W        W25350  18.268  34.099  23.154  0.0969 -0.2617 -0.2091
82257W        W25351  17.474  32.703  20.785 -0.1667  0.1689  0.2814
82258W        W25352  16.043  34.540  20.275  0.2154 -0.0288  0.0176
82259W        W25353  16.455  32.811  19.752 -0.0597 -0.0317 -0.1272
82260W        W25354  16.416  32.834  23.518  0.0528 -0.0271  0.0495
82261W        W25355  15.929  33.056  25.071 -0.1526 -0.0277 -0.1941
82262W        W25356  16.161  32.694  22.221  0.0785 -0.1343  0.0839
82263W        W25357  16.370  31.796  23.426  0.0921 -0.4124  0.0869
82264W        W25358  19.186  32.668  21.541 -0.3854  0.0422  0.0004
82265W        W25359  15.593  34.026  20.724 -0.1191 -0.2595  0.0604
82266W        W25360  13.383   0.621  22.140 -0.3420 -0.0287  0.1985
82267W        W25361  17.389  31.930  20.190 -0.1604  0.2121 -0.1259
82268W        W25362  15.627  32.679  23.544 -0.0785 -0.1229 -0.3208
82269W        W25363  16.432  33.505  23.054 -0.0363 -0.2656 -0.2303
82270W        W25364  16.017  33.753  21.341 -0.0387 -0.1364 -0.0336
82271W        W25365  17.000  33.869  20.281 -0.0939  0.2297 -0.2868
82272W        W25366  15.206  33.942  23.935  0.0297  0.1099 -0.0435
82273W        W25367  13.524  33.385  19.800  0.2361  0.0186  0.1057
82274W        W25368  17.195  34.537  22.829  0.0630  0.0571 -0.1397
82275W        W25369  15.970  33.394  22.900  0.0227 -0.0644  0.1119
82276W        W25370  17.106  33.740  19.824 -0.3886  0.1998 -0.2771
82277W        W25371  15.344  33.668  21.648 -0.0786 -0.2330 -0.3569
82278W        W25372  15.870  33.450  22.347  0.3432 -0.0469 -0.3635
82279W        W25373  15.963  34.671  22.477  0.2488  0.0350  0.1595
82280W        W25374  15.638  32.908  21.102  0.0178 -0.3759 -0.1402
82281W        W25375  16.060  34.276  22.781 -0.1114 -0.0410  0.0462
82282W        W25376  16.401  32.287  23.134 -0.1794 -0.2735 -0.0411
82283W        W25377  16.990  33.698  23.025  0.0961  0.1910 -0.0372
82284W        W25378  16.374  33.396  22.524  0.1958 -0.0381  0.0445
82285W        W25379  16.895  32.675  18.807 -0.1603 -0.1930 -0.1353
82286W        W25380  16.405  33.920  22.586  0.0576  0.1551 -0.3047
82287W        W25381  18.100  31.716  22.165  0.0927 -0.4450 -0.0646
82288W        W25382  17.523   0.316  20.183 -0.0575 -0.3249 -0.2228
82289W        W25383  17.992  33.737  22.525  0.0105 -0.1303  0.0207
82290W        W25384  16.168  32.331  24.428 -0.1673  0.0508  0.0326
82291W        W25385  15.536  33.642  24.295  0.2530 -0.0381 -0.0792
82292W        W25386  14.355  34.157  23.908  0.2259 -0.0950 -0.0216
82293W        W25387  17.157  33.073  20.123  0.3631 -0.1161 -0.1726
82294W        W25388  15.671  33.278  20.798  0.0262  0.0264  0.0369
82295W        W25389  15.060  34.499  22.127  0.0605 -0.1955 -0.3660
82296W        W25390  17.644  32.139  22.569  0.1232  0.3131  0.2889
82297W        W25391  15.372  34.184  21.813  0.0598 -0.1834  0.3769
82298W        W25392  17.470  34.125  20.418 -0.0817  0.2367 -0.1840
82299W        W25393  15.220  32.719  23.110  0.1861 -0.1063  0.0350
82300W        W25394  16.724  34.270  20.281 -0.1817 -0.2298 -0.1508
82301W        W25395  17.808  33.777  23.005  0.0855 -0.2498 -0.0281
82302W        W25396  16.694  34.325  22.853 -0.1433 -0.1389 -0.2085
82303W        W25397  15.533  34.386  22.873  0.0860 -0.0725 -0.1926
82304W        W25398  14.768  33.134  24.297  0.1362 -0.1034  0.0482
82305W        W25399  18.888  32.866  18.970  0.1933  0.0538 -0.1236
82306W        W25400  18.193  33.075  21.892 -0.4752  0.2840  0.1419
82307W        W25401  17.047  34.051  22.067 -0.0640 -0.1500 -0.2236
82308W        W25402  17.226  34.593  20.590 -0.5368  0.0987  0.0864
82309W        W25403  13.400  33.823  20.646 -0.0318 -0.3253 -0.0841
82310W        W25404  16.314  33.291  23.663  0.2570  0.1643 -0.0333
82311W        W25405  14.967  32.743  20.836  0.0778  0.0525  0.1688
82312W        W25406  17.134  34.218  23.735 -0.2586 -0.1349  0.1122
82313W        W25407  16.208  31.703  20.839  0.1480  0.0535 -0.0718
82314W        W25408  14.294  34.076  20.927  0.1966  0.1610  0.1377
82315W        W25409  15.827  34.141  19.996  0.0784 -0.0375 -0.1042
82316W        W25410  15.135  34.265  19.179  0.0852 -0.1159 -0.0119
82317W        W25411  15.558  32.840  19.313  0.1759  0.3717  0.1432
82318W        W25412  17.416  33.072  22.867  0.0177 -0.2062 -0.0202
82319W        W25413  16.951  32.667  20.985  0.1979 -0.3636 -0.2332
82320W        W25414  16.580  32.759  21.912 -0.1446 -0.0345 -0.3516
82321W        W25415  17.751  32.257  19.857 -0.0266  0.0262 -0.1853
82322W        W25416  16.527   1.051  20.230 -0.1191 -0.1785  0.0445
82323W        W25417  18.490  33.129  22.328 -0.2263 -0.0966  0.0410
82324W        W25418  16.077  34.105  20.880  0.1888 -0.3813  0.2285
82325W        W25419  15.497  33.436  23.349 -0.0957  0.0876  0.2089
82326W        W25420  17.003  31.761  19.903  0.3930  0.0304  0.1451
82327W        W25421  15.927  32.146  20.925 -0.1565 -0.2736  0.0559
82328W        W25422  16.141  31.106  17.523 -0.0729  0.0724  0.0310
82329W        W25423  17.714  32.748  21.247  0.0285  0.0911 -0.1446
82330W        W25424  18.160  32.389  20.747 -0.1783 -0.0248  0.0674
82331W        W25425  14.935  33.548  21.271  0.0313  0.0484  0.0082
82332W        W25426  16.169  33.697  19.756 -0.3660  0.0411 -0.1371
82333W        W25427  16.057   0.608  22.980 -0.0407  0.3640 -0.0347
82334W        W25428  18.936  32.878  22.287 -0.2483  0.1102  0.1353
82335W        W25429  13.986  33.259  20.402  0.2814 -0.1309  0.0119
82336W        W25430  16.242  33.407  20.634 -0.1466 -0.0962  0.1729
82337W        W25431  18.579  32.024  22.159  0.0555 -0.1808  0.3401
82338W        W25432  16.682  33.126  20.899  0.0475 -0.3776 -0.0749
82339W        W25433  13.207  34.380  20.418 -0.0780  0.1664  0.1410
82340W        W25434  18.829  33.676  21.786 -0.2785 -0.1185 -0.3239
82341W        W25435  15.597  34.095  21.240  0.1522 -0.0044  0.0763
82342W        W25436  19.726  32.746  21.679 -0.1305 -0.1926  0.2027
82343W        W25437  14.735  34.315  20.969  0.1703 -0.1318 -0.0708
82344W        W25438  17.135  33.352  21.731  0.0389 -0.1355  0.0784
82345W        W25439  15.279  33.962  22.880  0.2390 -0.2871 -0.1871
82346W        W25440  15.918   1.631  19.433 -0.1793  0.0383 -0.1902
82347W        W25441  17.896  34.045  22.130 -0.3333  0.1244 -0.0261
82348W        W25442  17.954  33.489  20.201  0.0471  0.1104  0.0826
82349W        W25443  14.111  32.687  20.944  0.1641  0.1958  0.1073
82350W        W25444  16.897  32.615  19.716  0.1100 -0.1264  0.0003
82351W        W25445  15.506   0.237  21.178  0.1736 -0.2766  0.1470
82352W        W25446  16.043  32.921  21.653  0.1668  0.1009 -0.2674
82353W        W25447  15.384  32.165  21.697 -0.0965  0.0650 -0.3181
82354W        W25448  17.945  34.222  22.765  0.0020  0.1326 -0.0343
82355W        W25449  16.542   0.514  20.825  0.1500 -0.2522 -0.0641
82356W        W25450  13.294   0.735  21.607 -0.0951 -0.0945 -0.1537
82357W        W25451  17.951  32.822  19.840 -0.1629 -0.0414 -0.0549
82358W        W25452  16.033  34.177  22.296 -0.2151 -0.1867 -0.0384
82359W        W25453  17.543  34.693  22.464  0.0796  0.0917 -0.1287
82360W        W25454  17.464  33.420  23.208 -0.1307  0.2115 -0.2389
82361W        W25455  17.623  30.462  23.142  0.4381  0.3264 -0.0870
82362W        W25456  16.561  33.911  20.684  0.0940 -0.0293  0.1306
82363W        W25457  15.064  33.407  22.041 -0.2619  0.1048  0.1401
82364W        W25458  17.491  32.307  21.894 -0.1225 -0.0242 -0.0089
82365W        W25459  18.450  32.774  20.532 -0.1019 -0.2792  0.3153
82366W        W25460  16.243  33.676  23.953  0.1533  0.2343  0.2158
82367W        W25461  14.747  32.846  19.968 -0.2375  0.1713  0.2183
82368W        W25462  17.117  31.898  24.296  0.2027  0.0586  0.3155
82369W        W25463  14.165  33.701  23.606 -0.2177 -0.1491  0.0790
82370W        W25464  14.060   0.038  22.021  0.0636 -0.1241  0.0709
82371W        W25465  15.666  32.811  22.099 -0.1017 -0.0034  0.1045
82372W        W25466  16.532  32.662  20.633  0.3782 -0.0346  0.0067
82373W        W25467  13.412  32.928  21.556  0.1195  0.1418 -0.1172
82374W        W25468  15.015  32.671  22.473 -0.0129 -0.2341  0.1447
82375W        W25469  16.643  34.637  22.096  0.3375 -0.1938  0.2774
82376W        W25470  17.367  34.089  23.036  0.1843 -0.0125  0.1498
82377W        W25471  13.533  33.063  20.212  0.0479  0.0357 -0.1311
82378W        W25472  16.555  34.154  22.153 -0.0413  0.1137 -0.0399
82379W        W25473  14.890  33.122  22.597  0.1424  0.0971  0.1697
82380W        W25474  18.024  32.497  22.348 -0.2912 -0.0494  0.1970
82381W        W25475  17.437  33.885  18.984  0.4012  0.0942  0.0253
82382W        W25476  15.992  32.918  22.608  0.1236 -0.0251  0.2748
82383W        W25477  14.356  32.900  21.351  0.1170  0.0807  0.1611
82384W        W25478  16.562  33.290  21.552  0.1694  0.1357  0.0705
82385W        W25479  12.995  33.680  22.936 -0.0742 -0.2415 -0.1935
82386W        W25480  17.410  33.436  19.608  0.3479  0.1193  0.1993
82387W        W25481  16.906  33.889  21.079 -0.1322  0.0780 -0.2816
82388W        W25482  15.358  33.800  19.179  0.0736 -0.1746 -0.1413
82389W        W25483  19.030  34.181  19.264 -0.1472  0.2883 -0.0660
82390W        W25484  14.906  32.127  22.193  0.1023 -0.2203  0.2130
82391W        W25485  15.876   0.701  21.459  0.1517 -0.2696  0.0526
82392W        W25486  16.394  34.689  21.059 -0.0949  0.0012 -0.0916
82393W        W25487  18.030  32.596  21.642 -0.2486 -0.2206  0.1706
82394W        W25488  15.167  32.885  21.971 -0.3757  0.2024 -0.1877
82395W        W25489  17.212  33.153  20.787  0.0622  0.0229 -0.1786
82396W        W25490  16.248  33.206  24.629 -0.1354  0.0684 -0.1488
82397W        W25491  17.351  33.664  22.675 -0.1343  0.1486 -0.0690
82398W        W25492  17.977  34.606  24.072 -0.0205  0.0345  0.0056
82399W        W25493  14.721  32.635  24.362  0.0753 -0.2661 -0.1967
82400W        W25494  16.045  31.960  26.446 -0.0919 -0.1266 -0.0510
82401W        W25495  16.233  33.743  22.147 -0.2691  0.4050  0.0423
82402W        W25496  16.670  33.551  26.298 -0.1447 -0.1065  0.3034
82403W        W25497  17.304  33.800  24.043 -0.2836 -0.0627  0.1981
82404W        W25498  16.313  33.023  26.497 -0.1034 -0.0832  0.0402
82405W        W25499  18.270  33.591  23.920 -0.1357  0.2117  0.1766
82406W        W25500  15.686  33.991  24.664 -0.2886 -0.1672 -0.1494
82407W        W25501  15.540   0.582  25.848  0.0045  0.0149  0.2851
82408W        W25502  15.528  34.164  23.634  0.2176 -0.0838  0.0229
82409W        W25503  16.473  32.584  28.699 -0.2581 -0.1864 -0.0029
82410W        W25504  17.114  33.556  26.542  0.0601  0.0418 -0.0103
82411W        W25505  14.152  33.165  23.648  0.2745 -0.0637  0.0391
82412W        W25506  15.235  34.584  25.356  0.1854 -0.1448 -0.1566
82413W        W25507  15.971   0.407  26.726  0.0139 -0.1323  0.0083
82414W        W25508  16.815  33.216  25.197  0.1676  0.2321  0.2620
82415W        W25509  17.220   0.359  24.647  0.1749  0.3216 -0.0255
82416W        W25510  16.650  33.754  26.894 -0.0758 -0.2870 -0.3678
82417W        W25511  17.154   0.299  25.440  0.0920  0.1919 -0.1846
82418W        W25512  17.126  34.616  24.474  0.0056 -0.0900 -0.2825
82419W        W25513  18.609  34.200  26.458  0.0238 -0.0497  0.0286
82420W        W25514  17.537  34.364  24.514  0.1769  0.1014  0.0647
82421W        W25515  16.440  34.461  22.492 -0.0730 -0.3002 -0.0162
82422W        W25516  17.933   0.263  23.341  0.0421  0.2613  0.2923
82423W        W25517  17.022  32.447  26.235 -0.2098  0.4672 -0.2166
82424W        W25518  16.708  33.245  26.757 -0.2010  0.3359 -0.0843
82425W        W25519  16.106  34.439  23.921 -0.2221 -0.0467 -0.1815
82426W        W25520  17.107  33.597  26.049  0.1026  0.0024  0.1180
82427W        W25521  14.990   0.244  25.060  0.1111  0.2163 -0.0224
82428W        W25522  16.412  32.930  25.088 -0.1470 -0.1189  0.0295
82429W        W25523  15.618  33.276  26.486  0.2504  0.1419 -0.0617
82430W        W25524  16.695   0.626  26.504 -0.4327 -0.0775  0.2737
82431W        W25525  15.993  33.565  23.409  0.1727 -0.2942 -0.0877
82432W        W25526  18.747  33.659  23.928  0.0566 -0.1152 -0.2645
82433W        W25527  16.470  32.771  24.468 -0.1638  0.1586 -0.1432
82434W        W25528  17.202  33.161  25.819 -0.3143 -0.2443  0.1094
82435W        W25529  17.833  34.627  22.109 -0.0033  0.3168 -0.1351
82436W        W25530  17.155   0.089  27.622 -0.0512 -0.1354 -0.2224
82437W        W25531  15.434  32.913  27.153 -0.2339 -0.2784  0.0471
82438W        W25532  18.730  32.858  23.515  0.0854  0.0905 -0.0760
82439W        W25533  16.492  33.738  27.396  0.0918 -0.2130  0.1761
82440W        W25534  17.653  32.297  24.583  0.3326 -0.1981 -0.1700
82441W        W25535  18.871  33.297  22.797 -0.2656 -0.2278 -0.3343
82442W        W25536  15.688   1.834  25.232 -0.0929  0.3222  0.1071
82443W        W25537  16.017  33.668  25.025 -0.3965 -0.2804  0.1043
82444W        W25538  14.925  34.645  26.366  0.0075 -0.0707 -0.2744
82445W        W25539  15.445  33.772  25.692  0.0886 -0.0188 -0.1423
82446W        W25540  18.653  34.302  25.594 -0.0540  0.1599  0.1107
82447W        W25541  14.746  31.292  23.273 -0.0159 -0.0403  0.0622
82448W        W25542  16.585  32.862  26.139  0.1395  0.4712  0.0456
82449W        W25543  15.058  33.490  23.836 -0.0083 -0.1774  0.0751
82450W        W25544  16.455  34.231  26.861 -0.2156 -0.2832 -0.2611
82451W        W25545  16.737  33.290  27.376  0.0079  0.0363  0.2003
82452W        W25546  15.186  32.964  23.520 -0.0696  0.0963 -0.0159
82453W        W25547  16.051  34.125  23.542  0.0871 -0.3249 -0.1094
82454W        W25548  18.048  33.421  24.977 -0.0668  0.1521 -0.0993
82455W        W25549  16.569  34.392  24.592  0.0833 -0.1552 -0.1738
82456W        W25550  14.899  34.480  23.700 -0.5170  0.1082  0.6873
82457W        W25551  14.055  34.646  24.820  0.0269  0.2045 -0.1440
82458W        W25552  17.618  32.706  25.377 -0.1562  0.1875 -0.0507
82459W        W25553  14.531   0.836  26.535  0.1565  0.0797 -0.1087
82460W        W25554  16.392   0.043  25.365 -0.0437  0.1999 -0.1400
82461W        W25555  15.942  32.808  24.327 -0.1094 -0.0494  0.1329
82462W        W25556  16.655  31.898  24.078 -0.0056  0.0463  0.3166
82463W        W25557  16.489  33.523  24.915  0.0256  0.0202 -0.1147
82464W        W25558  18.610  34.100  23.583 -0.0202 -0.0591 -0.0165
82465W        W25559  16.003  33.018  23.272 -0.2608  0.1153 -0.0655
82466W        W25560  16.747  33.086  23.858 -0.1269  0.2953  0.0954
82467W        W25561  16.816  34.593  25.509  0.1590  0.2236 -0.0595
82468W        W25562  17.437  33.683  22.191  0.1792 -0.2219 -0.0550
82469W        W25563  16.851  32.092  24.819 -0.0004  0.0667  0.0157
82470W        W25564  18.145  34.058  25.565 -0.2168 -0.1524  0.2283
82471W        W25565  16.769  32.707  26.621  0.0562 -0.2706  0.0678
82472W        W25566  16.950  32.875  27.075 -0.0569 -0.0594 -0.0176
82473W        W25567  17.679   1.421  26.181 -0.1545  0.2867  0.0403
82474W        W25568  18.293  34.097  23.984  0.1012  0.0966  0.0890
82475W        W25569  17.578   0.533  25.093 -0.0695  0.1889  0.1373
82476W        W25570  15.709  33.961  23.150  0.3269 -0.3656 -0.0848
82477W        W25571  16.310  33.958  26.011  0.1925  0.1749  0.1588
82478W        W25572  16.673  32.971  27.672  0.0697  0.1760  0.0609
82479W        W25573  15.510  32.616  22.672 -0.0180  0.1127  0.2053
82480W        W25574  15.610  33.348  25.978 -0.2751 -0.0267 -0.0622
82481W        W25575  17.139  33.703  24.556 -0.0895 -0.0691  0.0497
82482W        W25576  16.247   0.176  23.651 -0.1401  0.1042  0.0149
82483W        W25577  13.855  33.949  23.902 -0.0996 -0.0435 -0.1971
82484W        W25578  18.546  32.924  25.572  0.0344  0.1618  0.1437
82485W        W25579  15.554  34.281  25.746  0.0059 -0.0684 -0.0606
82486W        W25580  16.782  32.763  25.428 -0.3049  0.0972 -0.0217
82487W        W25581  16.117  33.920  26.504  0.1877  0.1228 -0.1955
82488W        W25582  16.835  33.162  22.918  0.0918  0.0200 -0.0237
82489W        W25583  15.619  34.687  27.583  0.2790  0.2129 -0.2715
82490W        W25584  14.525  33.615  23.953 -0.0325  0.2938 -0.1892
82491W        W25585  16.568  34.302  25.108  0.0509 -0.2929 -0.5344
82492W        W25586  16.342  33.983  24.773  0.2272  0.2097  0.1976
82493W        W25587  15.862  34.548  23.406  0.4546  0.2083 -0.1827
82494W        W25588  16.305  33.444  27.013  0.1706  0.3417  0.1497
82495W        W25589  16.581  34.123  23.773 -0.0641  0.2590  0.1362
82496W        W25590  16.345  33.186  24.141  0.0768  0.0587  0.0984
82497W        W25591  16.955  34.623  24.989  0.0383 -0.2509  0.1318
82498W        W25592  16.928  33.981  25.869  0.3066 -0.2275 -0.0111
82499W        W25593  17.017  31.790  26.351  0.3141 -0.1717 -0.2917
82500W        W25594  17.657   0.277  25.549  0.0053  0.1532 -0.0782
82501W        W25595  16.026  34.466  26.670 -0.2935  0.0589 -0.0836
82502W        W25596  17.781  32.215  25.423  0.0798 -0.1056  0.0761
82503W        W25597  15.562   0.097  25.702  0.2245  0.1334 -0.2164
82504W        W25598  17.142  33.967  26.904  0.1563  0.1213 -0.1565
82505W        W25599  16.933  34.199  23.275  0.1061 -0.2454 -0.0234
82506W        W25600  17.957  33.463  27.585  0.3565  0.0584  0.0024
82507W        W25601  14.994  34.007  27.450  0.2145  0.1993  0.4171
82508W        W25602  15.269  33.362  26.926 -0.0651 -0.2703 -0.0450
82509W        W25603  14.942  34.259  28.115 -0.0692 -0.1050 -0.0346
82510W        W25604  17.400  32.899  26.159  0.1748  0.1322 -0.0369
82511W        W25605  14.873  32.329  23.268 -0.2714  0.1192 -0.1077
82512W        W25606  15.870   1.224  26.239 -0.4723  0.1051  0.2797
82513W        W25607  17.812  33.767  25.256 -0.1252 -0.0673  0.0776
82514W        W25608  15.578   1.718  27.585 -0.3079  0.1696  0.0770
82515W        W25609  16.837  33.631  24.060 -0.2138 -0.3513  0.1445
82516W        W25610  15.993  33.663  27.462  0.3933  0.3874 -0.2376
82517W        W25611  16.050  34.187  25.066 -0.1483 -0.0498 -0.1896
82518W        W25612  18.109  33.294  26.130  0.0204 -0.0208 -0.1975
82519W        W25613  16.698  34.054  26.472 -0.0548  0.2027 -0.0216
82520W        W25614  16.970  34.311  27.733  0.2608 -0.0724 -0.1414
82521W        W25615  16.081  32.460  26.680  0.2067 -0.0580 -0.4474
82522W        W25616  19.018  33.414  22.295 -0.0743 -0.0310  0.0509
82523W        W25617  18.829  33.427  25.281 -0.1447 -0.2826 -0.1855
82524W        W25618  17.672  33.128  24.022  0.5070  0.1038 -0.2027
82525W        W25619  18.037  33.927  23.565 -0.1361  0.0227  0.2332
82526W        W25620  16.136   0.430  24.969  0.1214  0.1610 -0.1513
82527W        W25621  17.559   0.422  26.748  0.0183  0.2140  0.2335
82528W        W25622  15.500  33.222  23.846 -0.1455 -0.0476 -0.0329
82529W        W25623  17.117  33.449  27.014  0.3288 -0.0924  0.0478
82530W        W25624  17.739  34.156  23.854  0.1318 -0.0205  0.3213
82531W        W25625  14.714  33.837  25.190  0.3527  0.0692  0.1200
82532W        W25626  15.024  34.105  21.333 -0.1029  0.0172  0.2969
82533W        W25627  17.066   0.273  24.058  0.0891  0.1052  0.0685
82534W        W25628  16.881  32.652  23.107  0.0600 -0.2628  0.0323
82535W        W25629  17.347  34.429  26.936 -0.2773 -0.0901 -0.0013
82536W        W25630  17.203  32.648  25.749  0.0976  0.1305 -0.1689
82537W        W25631  16.667  32.523  27.325  0.0203  0.1056  0.4128
82538W        W25632  17.436  34.687  24.935 -0.4751 -0.0881  0.2059
82539W        W25633  16.808  33.522  25.608 -0.1834 -0.0987  0.0751
82540W        W25634  18.044   0.037  27.307  0.4092  0.2785 -0.0617
82541W        W25635  15.793  34.086  24.078 -0.2046  0.3363  0.0482
82542W        W25636  15.644  33.948  27.226  0.1883 -0.1132 -0.4415
82543W        W25637  15.602  33.816  25.184  0.0108 -0.1593 -0.0021
82544W        W25638  16.294  34.172  24.277  0.4407 -0.0826 -0.1818
82545W        W25639  17.220  32.993  23.361  0.2830 -0.4465 -0.2894
82546W        W25640  18.758  34.152  24.070 -0.1121 -0.3204 -0.0318
82547W        W25641  17.990  34.079  24.383 -0.3132  0.1036  0.0579
82548W        W25642  15.401  34.540  26.124 -0.2321 -0.1187  0.0222
82549W        W25643  16.463  32.624  24.002 -0.1084 -0.1020  0.2167
82550W        W25644  16.363   0.261  26.249 -0.2106  0.0025 -0.2460
82551W        W25645  20.160  32.806  27.126 -0.0453 -0.0693  0.5159
82552W        W25646  15.200  33.480  22.895 -0.3253 -0.1816  0.3734
82553W        W25647  17.094   1.164  26.125  0.0401 -0.2255 -0.4669
82554W        W25648  18.260  31.744  26.316 -0.0179 -0.2191 -0.0240
82555W        W25649  16.767  32.289  25.259 -0.0002  0.0471  0.2092
82556W        W25650  15.490  32.063  24.099  0.0996  0.0264 -0.1543
82557W        W25651  18.432  34.521  24.526 -0.1143  0.5397 -0.2076
82558W        W25652  15.703   1.363  25.126 -0.0742 -0.0239 -0.1645
82559W        W25653  17.985  33.746  26.936  0.0788  0.0795 -0.0403
82560W        W25654  16.268   1.397  25.998 -0.5850  0.6036  0.1415
82561W        W25655  18.464   0.025  25.758  0.2684 -0.1979  0.1906
82562W        W25656  16.117  33.477  26.317 -0.1454  0.1473 -0.1268
82563W        W25657  15.095  33.980  22.256  0.1158  0.3727  0.0256
82564W        W25658  18.470   0.459  26.075  0.0033 -0.1808  0.1413
82565W        W25659  15.550  33.320  21.922 -0.1486  0.0827 -0.1322
82566W        W25660  15.691  33.348  24.694  0.1224 -0.2147  0.1731
82567W        W25661  17.442  34.633  24.081  0.2508 -0.2938  0.0508
82568W        W25662  15.305  33.169  24.319  0.2258 -0.2916 -0.0008
82569W        W25663  18.114  33.644  25.827  0.1383 -0.2060 -0.0132
82570W        W25664  16.118  32.638  24.823  0.1933  0.0345  0.1204
82571W        W25665  17.754  33.628  24.051  0.1589 -0.1019  0.2080
82572W        W25666  17.938  34.514  24.750 -0.0861 -0.1234 -0.1805
82573W        W25667  15.659   1.201  25.774 -0.1821 -0.3855 -0.1405
82574W        W25668  15.946  34.523  25.504  0.1905 -0.1304 -0.0407
82575W        W25669  15.684   0.141  25.103  0.3606  0.0668  0.1583
82576W        W25670  17.286  33.330  24.288 -0.1936 -0.0539  0.1842
82577W        W25671  18.173  32.398  26.898  0.1755 -0.3748  0.1233
82578W        W25672  17.820  33.261  27.166 -0.1242 -0.1420  0.1385
82579W        W25673  16.477  33.676  24.392 -0.1972  0.1815 -0.1276
82580W        W25674  16.273  34.650  25.875  0.2077 -0.0331 -0.1310
82581W        W25675  17.190  32.380  24.550  0.2286 -0.2639  0.1153
82582W        W25676  17.278  32.871  23.917  0.2858 -0.1321 -0.1496
82583W        W25677  16.544   0.343  25.715  0.1461 -0.4953  0.0498
82584W        W25678  14.023  34.671  22.707  0.1926  0.2243  0.2225
82585W        W25679  17.484  33.855  26.339 -0.1533  0.1590 -0.1598
82586W        W25680  16.662  33.488  27.844 -0.2128  0.3030 -0.1987
82587W        W25681  15.470   0.885  26.211  0.0860 -0.0801 -0.3301
82588W        W25682  15.348   0.508  25.387 -0.3440  0.4285 -0.0247
82589W        W25683  16.426  32.895  27.010  0.2979 -0.1366 -0.0222
82590W        W25684  14.139  31.843  23.740  0.0121  0.2948 -0.0345
82591W        W25685  16.021  34.030  25.526 -0.1465  0.4184  0.1150
82592W        W25686  17.627  33.706  27.300 -0.1377 -0.1413 -0.2315
82593W        W25687  17.293  32.684  26.629  0.2735 -0.1237 -0.1715
82594W        W25688  13.144  33.234  23.589  0.0746 -0.2468  0.2739
82595W        W25689  16.757  33.288  24.542  0.1950 -0.0724  0.4166
82596W        W25690  16.260  32.657  27.709 -0.1719 -0.0854 -0.0759
82597W        W25691  17.326  33.452  24.920 -0.1306  0.1630  0.4643
82598W        W25692  16.373   0.717  25.325 -0.1073  0.4884 -0.2120
82599W        W25693  16.227   0.727  25.831 -0.0387  0.1053 -0.2023
82600W        W25694  15.214  34.134  25.388  0.0233 -0.0031 -0.0040
82601W        W25695  17.173  33.299  23.821  0.0410  0.0484  0.0909
82602W        W25696  15.335  32.992  27.672  0.3133 -0.0210  0.0135
82603W        W25697  17.306   0.330  23.589 -0.0570  0.1253 -0.0923
82604W        W25698  16.874  34.473  27.021  0.5400 -0.0306  0.0735
82605W        W25699  16.683  34.652  23.689 -0.1324  0.2679  0.0284
82606W        W25700  17.518   0.421  23.103  0.1497  0.3933 -0.0705
82607W        W25701  15.683  33.407  25.423 -0.1534 -0.0348  0.1046
82608W        W25702  14.787  33.990  24.170 -0.1065  0.0967  0.3181
82609W        W25703  16.014  33.635  24.506 -0.1586  0.2907 -0.2287
82610W        W25704  17.164  33.014  24.732  0.1443 -0.0847  0.1557
82611W        W25705  15.753   0.212  26.172 -0.0474  0.1097  0.0203
82612W        W25706  17.218  33.028  25.339  0.0094  0.2029  0.1636
82613W        W25707  14.791  32.240  27.317  0.1197 -0.2121 -0.0850
82614W        W25708  17.413  33.081  26.904  0.2855 -0.0309  0.0122
82615W        W25709  18.855   0.001  27.709  0.1351  0.2338  0.1157
82616W        W25710  13.792  33.902  28.081  0.2926 -0.2735  0.2373
82617W        W25711  16.229  33.118  30.419  0.1812  0.0401 -0.0543
82618W        W25712  17.203  33.475  28.686  0.0876 -0.1019 -0.1666
82619W        W25713  16.580  32.201  28.398  0.0875  0.2708  0.2499
82620W        W25714  17.842  31.671  29.557  0.0328 -0.2070 -0.1260
82621W        W25715  15.531  32.944  29.378  0.1959  0.2072  0.1317
82622W        W25716  18.638  33.774  29.226  0.2170  0.3556 -0.1907
82623W        W25717  15.341  33.885  28.147 -0.0480  0.0860  0.0247
82624W        W25718  15.911  34.224  29.885  0.1658 -0.0392 -0.0220
82625W        W25719  16.578  32.600  28.114 -0.0617  0.1027  0.2118
82626W        W25720  16.990  32.045  29.402 -0.0587 -0.1027  0.0310
82627W        W25721  16.124  32.770  31.858  0.2375 -0.3956  0.0573
82628W        W25722  15.715  33.554  26.912  0.1399  0.4279 -0.1721
82629W        W25723  15.527  33.477  29.347 -0.1766  0.1824 -0.3467
82630W        W25724  14.763  34.454  30.684  0.0096 -0.1425  0.0294
82631W        W25725  18.177  33.673  28.921  0.0885  0.2584 -0.0971
82632W        W25726  18.323  34.175  29.058 -0.1181  0.2189  0.3029
82633W        W25727  18.990  32.821  29.472  0.0413 -0.1949 -0.1178
82634W        W25728  17.284  32.744  29.014 -0.0073 -0.2381  0.2128
82635W        W25729  16.392   0.341  27.927  0.2346 -0.3660  0.0656
82636W        W25730  18.938  32.446  30.754 -0.4000 -0.0193  0.1284
82637W        W25731  16.432   0.516  26.938 -0.1327  0.1289  0.0790
82638W        W25732  16.622   0.020  27.574  0.1544 -0.0711  0.2317
82639W        W25733  17.577  33.525  28.303 -0.1512 -0.3236 -0.0378
82640W        W25734  17.344  32.764  29.511  0.0809  0.1791  0.0955
82641W        W25735  17.892  34.035  29.344 -0.1324  0.1414  0.0101
82642W        W25736  16.684  33.486  28.540 -0.1650 -0.0224  0.1392
82643W        W25737  16.240  34.077  30.335 -0.0551  0.1658  0.0293
82644W        W25738  15.811  33.827  28.422 -0.1375  0.1121  0.0166
82645W        W25739  16.445  31.787  27.835  0.0066  0.1187 -0.0056
82646W        W25740  15.425   0.547  31.606  0.1002 -0.1529 -0.0538
82647W        W25741  14.761  33.603  30.958  0.1923  0.0585  0.0913
82648W        W25742  16.064  33.915  26.973  0.1684  0.1312 -0.0700
82649W        W25743  18.098  33.685  28.421 -0.1909  0.0919 -0.1461
82650W        W25744  18.464  33.942  28.615  0.3955 -0.0222  0.0047
82651W        W25745  16.082  32.113  31.679 -0.0760  0.1658 -0.2626
82652W        W25746  17.527  33.655  26.846 -0.1921 -0.0244 -0.2115
82653W        W25747  17.180  32.866  29.951 -0.2101  0.1907 -0.0225
82654W        W25748  14.586  34.290  30.240 -0.0149 -0.1290 -0.0648
82655W        W25749  17.003  33.104  26.351  0.0996  0.0115 -0.1429
82656W        W25750  15.810  32.166  30.170 -0.1488 -0.2107 -0.0126
82657W        W25751  18.801  34.177  29.651  0.2071 -0.0471  0.2044
82658W        W25752  17.683  34.108  26.675  0.2575  0.3461  0.0288
82659W        W25753  16.106   0.029  30.734 -0.1149 -0.2091 -0.2413
82660W        W25754  15.199  32.999  28.186 -0.3302  0.1933 -0.0636
82661W        W25755  15.039  32.482  31.227  0.1030  0.0190 -0.0344
82662W        W25756  15.870  34.114  28.861  0.1224  0.0167  0.0178
82663W        W25757  19.366  33.669  30.359  0.1293  0.2161  0.2054
82664W        W25758  15.654  33.537  28.844  0.0635  0.3573 -0.1622
82665W        W25759  17.179  34.503  28.312  0.4188 -0.0530 -0.2302
82666W        W25760  16.400  34.007  28.598 -0.1216 -0.0032  0.0824
82667W        W25761  18.313  32.852  30.900  0.0626  0.2782 -0.3309
82668W        W25762  17.043  34.164  29.453  0.0568  0.3271  0.0594
82669W        W25763  14.897  32.729  27.348 -0.0915  0.2295  0.1279
82670W        W25764  16.009  32.671  28.839  0.1294  0.0533 -0.4782
82671W        W25765  17.800  32.797  31.155  0.1336  0.1731 -0.1943
82672W        W25766  18.371   0.075  27.850 -0.2522 -0.2258 -0.2704
82673W        W25767  14.153  33.615  26.484 -0.1257 -0.3260  0.1118
82674W        W25768  15.689  34.664  29.980 -0.4063 -0.0533 -0.3406
82675W        W25769  19.268  33.159  28.770 -0.2792  0.1448 -0.5359
82676W        W25770  15.302  34.467  30.573  0.0179  0.3129 -0.0914
82677W        W25771  16.734  34.257  31.760 -0.0154  0.0330 -0.2011
82678W        W25772  16.136  33.186  27.934 -0.2091  0.1216 -0.0950
82679W        W25773  16.712  31.766  28.558  0.0973  0.1460 -0.1225
82680W        W25774  17.891  33.336  26.662  0.0671 -0.0254 -0.3694
82681W        W25775  16.354  34.380  26.294 -0.0637 -0.4607  0.0118
82682W        W25776  16.548  32.209  26.845  0.2612 -0.3298  0.2099
82683W        W25777  17.429  33.348  27.874  0.0785  0.0156  0.2583
82684W        W25778  16.731  32.746  30.477  0.3369  0.0994  0.0944
82685W        W25779  16.402  34.279  27.434 -0.1381  0.2280  0.1406
82686W        W25780  16.757  33.172  28.956  0.1756  0.0489 -0.1515
82687W        W25781  17.409  33.288  30.148  0.2408 -0.2247  0.2425
82688W        W25782  17.042  31.821  30.383  0.1453  0.1302  0.2144
82689W        W25783  16.298  34.157  30.842 -0.0592 -0.1412 -0.1903
82690W        W25784  19.328  33.207  29.824 -0.3007  0.0105 -0.0427
82691W        W25785  17.305  34.131  27.393 -0.5135  0.2788 -0.2432
82692W        W25786  19.168   0.473  28.252 -0.0165  0.1557  0.1932
82693W        W25787  16.364   0.030  27.076  0.1329  0.0145 -0.3827
82694W        W25788  17.718  32.422  29.180  0.3419  0.1007 -0.2716
82695W        W25789  17.016  33.201  30.588 -0.1057 -0.0067 -0.0050
82696W        W25790  17.068  33.596  28.186 -0.0943 -0.0084 -0.1119
82697W        W25791  16.794  32.460  29.196  0.1135 -0.0717  0.0677
82698W        W25792  18.555  32.588  29.525  0.1946  0.1375  0.0648
82699W        W25793  16.049  32.566  27.231 -0.0286  0.4317  0.0241
82700W        W25794  14.861  33.161  27.825 -0.2046 -0.0964  0.0021
82701W        W25795  18.990  34.068  28.507 -0.0873  0.1214 -0.0628
82702W        W25796  15.000  34.276  29.353  0.0261 -0.0378  0.2383
82703W        W25797  16.561  32.307  29.701 -0.2292 -0.0488 -0.0085
82704W        W25798  17.934   0.619  30.799 -0.0717 -0.3047  0.3052
82705W        W25799  17.274  34.456  25.378  0.1310  0.0978 -0.0495
82706W        W25800  16.009  33.659  31.578  0.1309  0.3046 -0.2661
82707W        W25801  16.083  32.722  28.278  0.2161  0.0619  0.0099
82708W        W25802  18.758   0.114  28.203  0.0784 -0.0880 -0.3949
82709W        W25803  17.045  33.074  28.037  0.2301  0.2744 -0.3266
82710W        W25804  16.433   0.612  27.464  0.0024  0.1699  0.0384
82711W        W25805  15.591  33.884  31.053 -0.1043 -0.0644  0.3061
82712W        W25806  17.298  33.922  29.023 -0.2250  0.0817  0.2367
82713W        W25807  16.136  32.249  28.581 -0.3079  0.2379  0.1544
82714W        W25808  18.077  34.341  28.612  0.0231 -0.0665  0.3932
82715W        W25809  16.496  34.544  30.248  0.3690 -0.0161  0.0381
82716W        W25810  17.063  32.433  29.726  0.0313 -0.1514 -0.1129
82717W        W25811  17.782  33.049  29.871 -0.1616 -0.0187 -0.2319
82718W        W25812  18.257  32.965  29.171  0.0451  0.2862  0.0608
82719W        W25813  19.304  33.044  27.483 -0.0804 -0.0179 -0.2674
82720W        W25814  17.774  33.391  28.799  0.0004  0.1019 -0.0551
82721W        W25815  18.742  32.562  31.186  0.3574 -0.2122  0.0201
82722W        W25816  15.989   0.503  28.196  0.2788  0.2142 -0.1405
82723W        W25817  16.355  31.294  31.818  0.1006  0.0833 -0.1843
82724W        W25818  16.475  34.191  29.599 -0.0247 -0.0097  0.1063
82725W        W25819  15.752  33.956  30.522  0.0688  0.0770  0.1041
82726W        W25820  15.758  34.104  31.536  0.3451 -0.0897 -0.0948
82727W        W25821  16.285  32.268  29.079 -0.1139  0.1167  0.1613
82728W        W25822  17.102  32.647  27.567  0.0850 -0.2645  0.1394
82729W        W25823  15.802  34.455  30.436  0.2634 -0.2036 -0.3733
82730W        W25824  18.241   0.057  28.328  0.1167  0.4047  0.0885
82731W        W25825  14.955   1.603  29.371 -0.4691  0.3301  0.1413
82732W        W25826  18.513  33.393  28.236  0.0212 -0.0777  0.1065
82733W        W25827  15.630  32.539  31.137  0.3405  0.3877  0.0399
82734W        W25828  16.829  33.678  30.747 -0.1289 -0.4166  0.3333
82735W        W25829  18.134  33.603  29.465  0.0603 -0.0227  0.1335
82736W        W25830  18.668  33.661  29.822 -0.1593  0.0036 -0.0494
82737W        W25831  17.654  32.581  29.888 -0.1971  0.2787  0.1340
82738W        W25832  15.057  33.804  29.705  0.2323  0.1298  0.0408
82739W        W25833  18.925  34.152  26.832 -0.0102 -0.0348  0.0074
82740W        W25834  18.704  33.018  28.978 -0.0896  0.3540 -0.1211
82741W        W25835  18.073   0.521  27.493  0.0738 -0.0708 -0.0173
82742W        W25836  17.923  33.210  28.190  0.1455 -0.2246  0.0083
82743W        W25837  15.927  33.741  29.237 -0.0214 -0.1206 -0.1138
82744W        W25838  17.451  32.500  30.916 -0.0127 -0.0186  0.0117
82745W        W25839  15.854  34.310  26.139  0.0145  0.1084 -0.2237
82746W        W25840  17.810  32.829  30.665 -0.0658 -0.0761  0.1262
82747W        W25841  17.279  32.236  28.994 -0.1459  0.1326 -0.1824
82748W        W25842  15.051  34.042  30.249  0.0602  0.0263  0.0090
82749W        W25843  15.678  32.751  26.618  0.2892  0.1853 -0.1644
82750W        W25844  15.106   0.025  26.889  0.0499 -0.0686  0.2774
82751W        W25845  17.575  33.348  26.293  0.0919  0.1646  0.0020
82752W        W25846  18.645  32.464  30.082  0.0864 -0.1582 -0.0727
82753W        W25847  17.992  32.328  28.709 -0.0974  0.2800  0.0025
82754W        W25848  17.048  31.990  31.645 -0.1827 -0.1501 -0.1387
82755W        W25849  17.101  33.665  30.236 -0.1084 -0.0802  0.4723
82756W        W25850  16.364   0.784  28.779 -0.0443  0.1009  0.0277
82757W        W25851  19.011  33.967  31.121  0.0240 -0.0135 -0.2629
82758W        W25852  15.927  33.729  30.080  0.0880  0.2615  0.0700
82759W        W25853  16.290  33.619  30.660 -0.0694 -0.0641 -0.0501
82760W        W25854  16.706  32.124  28.874 -0.0251  0.0674  0.2202
82761W        W25855  17.586  32.852  28.041  0.3836  0.0125  0.0880
82762W        W25856  18.605  32.836  27.648 -0.0210  0.1501  0.0912
82763W        W25857  17.964  34.491  29.159 -0.0681 -0.2183 -0.0993
82764W        W25858  17.070  33.336  29.780  0.0755 -0.0932  0.1672
82765W        W25859  16.259  33.061  28.641 -0.3576  0.0584  0.0883
82766W        W25860  17.307  33.979  28.082 -0.2396  0.0479  0.1560
82767W        W25861  16.554  33.799  31.742 -0.1644  0.0010  0.4113
82768W        W25862  18.928  31.930  30.040 -0.0697 -0.1481  0.1271
82769W        W25863  16.550  33.117  28.189 -0.0868 -0.1175 -0.0016
82770W        W25864  17.479  34.245  28.623 -0.0966  0.0189 -0.4506
82771W        W25865  18.798  33.022  28.451  0.0493  0.2363 -0.2751
82772W        W25866  17.360  33.931  30.998  0.1444 -0.0595 -0.3386
82773W        W25867  15.352  33.332  28.504 -0.3594  0.3135 -0.3875
82774W        W25868  18.390  32.836  28.189 -0.1610 -0.1133 -0.2118
82775W        W25869  16.666  33.836  30.109 -0.0916 -0.0585  0.2711
82776W        W25870  18.043  32.649  29.500 -0.1394 -0.1508 -0.0491
82777W        W25871  15.711   0.189  28.558  0.1988 -0.0153  0.1825
82778W        W25872  18.906  34.385  30.196  0.1249 -0.0860 -0.4172
82779W        W25873  16.078  34.541  31.186 -0.3184  0.0723  0.1370
82780W        W25874  16.888   0.169  28.071  0.1174 -0.2883 -0.2496
82781W        W25875  18.587   0.043  31.466 -0.1624 -0.1446  0.0722
82782W        W25876  17.457  34.006  25.542 -0.2786  0.1785  0.1499
82783W        W25877  16.281  32.170  27.448  0.0851 -0.3710  0.0690
82784W        W25878  16.935  32.523  28.687  0.0882 -0.4208  0.2985
82785W        W25879  16.089  34.365  28.454  0.2461  0.4067  0.3739
82786W        W25880  17.125   0.349  29.704  0.0450  0.2317 -0.6435
82787W        W25881  14.724  31.398  26.819 -0.0074  0.1361 -0.1372
82788W        W25882  18.578   0.234  30.816  0.1812 -0.1751  0.2184
82789W        W25883  17.967   0.489  28.650  0.1745 -0.3933  0.4106
82790W        W25884  15.813  33.403  30.673  0.0887 -0.1448 -0.0922
82791W        W25885  17.537  31.821  28.672 -0.0987  0.0254 -0.3342
82792W        W25886  16.904  33.014  28.544  0.0584  0.1399  0.1106
82793W        W25887  17.952   0.350  29.137 -0.0102 -0.0182  0.2474
82794W        W25888  17.222  33.248  29.167 -0.2026  0.0354 -0.2877
82795W        W25889  18.027  32.873   0.259 -0.0471 -0.1132  0.0019
82796W        W25890  17.797  34.193  28.223 -0.0435 -0.0475  0.1595
82797W        W25891  16.788  32.213  27.733  0.1982 -0.1104 -0.3867
82798W        W25892  18.279  32.357  28.284  0.0782  0.2231 -0.1540
82799W        W25893  17.612  31.405  28.304  0.1889  0.1667  0.2240
82800W        W25894  15.703   1.363  30.929  0.3538 -0.2604  0.2336
82801W        W25895  14.809   0.433  26.690 -0.4026  0.2414 -0.1382
82802W        W25896  16.731  32.780  29.557 -0.0919  0.1166 -0.0668
82803W        W25897  15.807  34.279  30.912  0.1323  0.0938 -0.1374
82804W        W25898  16.891  34.224  28.948 -0.1459 -0.2351 -0.3643
82805W        W25899  16.165  32.221  27.994  0.0164  0.1398  0.1272
82806W        W25900  15.058  31.699  27.995 -0.1000 -0.2095  0.2047
82807W        W25901  15.349  33.093  28.956 -0.1637 -0.0674  0.1032
82808W        W25902  16.554  31.889  29.268  0.1519  0.0871 -0.2275
82809W        W25903  17.528  32.443  31.428 -0.1840 -0.1360  0.1528
82810W        W25904  15.365  32.121  31.034 -0.2057  0.0265  0.0428
82811W        W25905  13.987  32.312  27.635 -0.0957 -0.2371  0.2708
82812W        W25906  16.199  33.795  29.674  0.0702 -0.3881  0.1951
82813W        W25907  15.728  32.244  29.600  0.1581 -0.1357  0.0034
82814W        W25908  19.074  33.538  29.615 -0.2943 -0.2254  0.0119
82815W        W25909  16.652   0.215  28.847 -0.2602 -0.2277 -0.1648
82816W        W25910  15.358  32.803   0.073  0.3715 -0.0330  0.0683
82817W        W25911  15.583  32.854  28.592  0.0711 -0.0141 -0.1569
82818W        W25912  17.470  33.012  28.500  0.0985  0.2081  0.0826
82819W        W25913  15.168   0.370  30.307  0.6661  0.2632 -0.0341
82820W        W25914  18.326  33.752  27.903  0.2120  0.0221 -0.0077
82821W        W25915  18.472  34.014  30.187 -0.2232  0.1499 -0.1114
82822W        W25916  16.187  33.566  28.803  0.2419 -0.2248  0.0971
82823W        W25917  18.697   0.615  27.010  0.2684 -0.2867  0.1557
82824W        W25918  15.192  34.645  30.016 -0.2321 -0.0017 -0.0882
82825W        W25919  16.147   0.002  27.577  0.0987  0.0493  0.0236
82826W        W25920  16.713   0.558  28.498  0.1634 -0.0503  0.3407
82827W        W25921  16.055  32.973  29.895 -0.4289  0.0449 -0.0666
82828W        W25922  15.774  32.496  27.883  0.1476  0.0928 -0.3339
82829W        W25923  18.206  33.199  28.631  0.2864  0.3036 -0.1705
82830W        W25924  18.157  33.256  31.946  0.1444 -0.0461 -0.2185
82831W        W25925  17.545  34.546  30.540  0.1474 -0.1789 -0.0261
82832W        W25926  15.239  33.088  30.346 -0.0510  0.2303  0.1494
82833W        W25927  17.544  33.432   0.563 -0.1476 -0.0385  0.1653
82834W        W25928  17.634  33.546  29.718  0.1333  0.0778  0.2171
82835W        W25929  17.850  33.301  30.395 -0.2573 -0.2362 -0.2633
82836W        W25930  15.794  33.058   0.125 -0.1937  0.1203 -0.1084
82837W        W25931  18.013   0.428  31.269 -0.0390  0.2683 -0.2110
82838W        W25932  15.916  33.136  31.578  0.0181  0.4580 -0.3213
82839W        W25933  17.519  33.471  31.208  0.1005  0.1314  0.0620
82840W        W25934  16.146  32.397  31.287  0.2117 -0.0223  0.2306
82841W        W25935  19.146  33.609   0.185  0.1645  0.0762  0.5069
82842W        W25936  17.000  33.811  31.951 -0.3961  0.0228 -0.0384
82843W        W25937  16.310  32.853  31.388 -0.1116 -0.2835  0.0486
82844W        W25938  16.953  33.127   0.332  0.0941  0.0280 -0.1321
82845W        W25939  16.023   0.236  31.603  0.0987 -0.4451 -0.0834
82846W        W25940  15.425  34.208   0.532 -0.2858 -0.1117 -0.1080
82847W        W25941  16.582  33.157  30.836  0.0823  0.1947  0.0968
82848W        W25942  17.030  32.725   0.714 -0.1245  0.1405  0.0376
82849W        W25943  14.978  33.338  30.002 -0.0365  0.2728 -0.0351
82850W        W25944  16.905   0.383  31.936  0.3265  0.2855  0.1614
82851W        W25945  17.301  32.706  30.478 -0.1606  0.1111  0.0306
82852W        W25946  17.857  33.322  30.866  0.0591  0.4349 -0.2076
82853W        W25947  16.482  32.850  30.063 -0.3346  0.0911 -0.1967
82854W        W25948  16.623  33.647  31.199  0.0835  0.2018 -0.0423
82855W        W25949  17.054  34.101  29.994  0.0552  0.0034 -0.0229
82856W        W25950  16.801  33.005  31.281 -0.2712  0.0053  0.0068
82857W        W25951  17.586  33.086   0.046  0.1319 -0.0574  0.1594
82858W        W25952  17.125  34.145   0.514  0.1437  0.2539 -0.2902
82859W        W25953  17.193  34.382  30.863 -0.1382 -0.0006 -0.1702
82860W        W25954  17.346  33.824   0.889  0.2668  0.0984 -0.1216
82861W        W25955  16.724  33.770  29.566 -0.2924  0.2705 -0.0200
82862W        W25956  15.673  32.448  31.655 -0.0607  0.0739  0.0651
82863W        W25957  18.158  32.765   1.217 -0.0158 -0.1288 -0.2627
82864W        W25958  19.946   2.905  20.448  0.0434 -0.2032 -0.1208
82865W        W25959  19.751   1.972  17.587  0.1362 -0.0515 -0.0492
82866W        W25960  20.765   1.295  16.696 -0.2612  0.0693 -0.2324
82867W        W25961  20.933   2.750  17.161  0.1418  0.0876  0.0466
82868W        W25962  19.499  33.922  18.133 -0.1115  0.0256 -0.0080
82869W        W25963  21.008   2.891  17.625  0.0693  0.1610 -0.1372
82870W        W25964  18.650  32.820  19.503 -0.0546  0.2391  0.1083
82871W        W25965  21.130   1.641  17.660 -0.1771 -0.1792  0.0061
82872W        W25966  22.694   3.662  17.140 -0.0421  0.2365 -0.0446
82873W        W25967  20.280   1.817  16.283 -0.3926  0.1871  0.0098
82874W        W25968  19.189   1.145  18.513 -0.0808  0.2550 -0.3457
82875W        W25969  19.323   3.905  19.218 -0.3831 -0.1446  0.0697
82876W        W25970  19.819  34.334  15.406 -0.1574 -0.1577 -0.0023
82877W        W25971  17.016  34.679  18.608 -0.3029 -0.3604  0.0037
82878W        W25972  21.479   0.582  18.442 -0.0274 -0.1220 -0.2126
82879W        W25973  19.950   0.679  16.912 -0.0445 -0.4894  0.0040
82880W        W25974  18.551   1.626  18.015  0.3093  0.3249 -0.2051
82881W        W25975  19.526   0.061  16.508  0.0789 -0.4313  0.1573
82882W        W25976  20.806   2.023  17.403  0.2514 -0.0376 -0.0528
82883W        W25977  17.891   0.347  19.255  0.1581 -0.0074  0.2662
82884W        W25978  20.731  33.987  19.811  0.0129  0.0520  0.1014
82885W        W25979  20.004   2.733  16.619 -0.0055 -0.3001  0.1094
82886W        W25980  19.083   0.724  16.537 -0.1378  0.0847  0.1349
82887W        W25981  17.461   0.141  16.755  0.0752  0.0473  0.1535
82888W        W25982  18.503   1.902  19.035 -0.2275  0.2256 -0.0454
82889W        W25983  20.289   1.885  18.717 -0.3385  0.2003 -0.0779
82890W        W25984  19.640   1.012  17.868  0.2327  0.2543 -0.2005
82891W        W25985  18.634   3.369  18.015 -0.1945  0.1388  0.3551
82892W        W25986  21.658   2.602  18.272  0.2362  0.3857  0.0655
82893W        W25987  22.386   1.583  19.320 -0.1953 -0.0978  0.0454
82894W        W25988  18.602   1.971  17.671  0.2821 -0.2792 -0.2247
82895W        W25989  17.250   3.094  18.578  0.0689  0.0050 -0.2805
82896W        W25990  19.671   2.532  16.299 -0.1388 -0.2262  0.2074
82897W        W25991  22.247   2.665  18.124 -0.0529 -0.3198  0.1153
82898W        W25992  21.051   1.934  18.690 -0.3979 -0.0547  0.0334
82899W        W25993  20.061   4.446  19.317  0.1614 -0.0198  0.2396
82900W        W25994  18.560   1.739  15.967 -0.0907  0.0588 -0.0345
82901W        W25995  19.671   2.929  19.477 -0.0333 -0.1582 -0.2347
82902W        W25996  19.086   2.437  18.256 -0.1180 -0.0044 -0.0074
82903W        W25997  20.165   2.741  18.132  0.0818  0.1755  0.0029
82904W        W25998  19.920   2.345  17.214  0.0917 -0.1335  0.1536
82905W        W25999  18.947   3.009  16.931 -0.4905 -0.1038 -0.1731
82906W        W26000  19.407   3.173  18.011 -0.0961 -0.0473 -0.0394
82907W        W26001  20.139   2.148  19.788  0.4739  0.1693 -0.2626
82908W        W26002  16.434   2.457  18.142  0.0877  0.1230  0.1015
82909W        W26003  21.237   1.616  19.891 -0.1753  0.0648 -0.2379
82910W        W26004  19.325   3.115  16.145 -0.1854  0.1453 -0.1676
82911W        W26005  20.326   1.325  16.314  0.1895 -0.0985 -0.1554
82912W        W26006  20.837  34.442  15.444  0.0540 -0.1732  0.0580
82913W        W26007  20.706   1.012  16.263  0.0412 -0.2181  0.2139
82914W        W26008  20.664  33.364  17.810  0.1942  0.2760  0.0966
82915W        W26009  20.603   4.732  17.704  0.1458 -0.0545 -0.1692
82916W        W26010  20.318   0.542  18.279 -0.2081  0.1932  0.2243
82917W        W26011  20.210   3.210  19.584 -0.0056  0.0517 -0.1328
82918W        W26012  19.881   1.108  16.743 -0.0740  0.4210  0.4411
82919W        W26013  20.623   1.036  18.722  0.1171 -0.2035 -0.1553
82920W        W26014  19.092   5.615  19.217 -0.2459 -0.3759  0.2403
82921W        W26015  19.366   0.054  18.117 -0.0009 -0.1155 -0.3666
82922W        W26016  20.924   4.312  16.178 -0.1776 -0.3407  0.1293
82923W        W26017  21.854   2.792  17.802  0.1531  0.0621 -0.1357
82924W        W26018  20.350   3.745  16.530  0.0667  0.0085  0.4031
82925W        W26019  19.290   0.345  17.387 -0.2083  0.1423 -0.1994
82926W        W26020  17.457   2.067  19.395 -0.1323  0.0272 -0.1352
82927W        W26021  17.514   2.610  18.442 -0.0486  0.1457  0.0082
82928W        W26022  19.682   0.276  16.078  0.0211 -0.4571  0.2620
82929W        W26023  23.097   2.183  17.893 -0.1713 -0.2781  0.2024
82930W        W26024  17.432   2.925  19.558  0.1063 -0.0997 -0.2103
82931W        W26025  21.138  34.234  15.836 -0.0317 -0.0545 -0.2758
82932W        W26026  17.839   2.272  18.296  0.2376 -0.0980 -0.1288
82933W        W26027  20.725   2.510  18.081 -0.1290 -0.0336 -0.0455
82934W        W26028  20.631   2.995  15.905  0.1648 -0.1084 -0.1423
82935W        W26029  21.912  34.133  16.470  0.0622  0.0948 -0.1305
82936W        W26030  20.739   0.435  17.261  0.1458  0.0073  0.0812
82937W        W26031  20.402   2.163  16.668  0.0912 -0.0556 -0.0478
82938W        W26032  19.422   2.082  16.460 -0.0170 -0.0645  0.1104
82939W        W26033  21.561   3.303  18.480 -0.1942  0.3678  0.0816
82940W        W26034  21.475   0.241  16.797 -0.4853  0.0827  0.2868
82941W        W26035  17.935   4.505  17.614  0.1179  0.1163  0.0310
82942W        W26036  18.176   1.272  18.079 -0.2314 -0.1695 -0.0464
82943W        W26037  19.319   3.644  19.632 -0.1567  0.0228  0.2470
82944W        W26038  18.272   2.611  15.893 -0.1827 -0.0226 -0.0272
82945W        W26039  18.851   2.370  17.782 -0.0289 -0.1177  0.0874
82946W        W26040  18.473   0.391  17.829 -0.0331  0.0372 -0.0551
82947W        W26041  16.924  33.152  19.011  0.0955  0.1464  0.0604
82948W        W26042  18.792   1.501  17.573  0.2791 -0.2207 -0.0415
82949W        W26043  21.098   0.078  17.104 -0.0353  0.2304  0.0660
82950W        W26044  17.217   0.405  18.663 -0.0843 -0.5367 -0.2299
82951W        W26045  21.931   0.333  18.676 -0.2835  0.2127  0.2041
82952W        W26046  18.605   2.486  19.126  0.0545 -0.3371 -0.0133
82953W        W26047  20.990   3.540  16.794 -0.0625 -0.2215 -0.1412
82954W        W26048  20.421  34.435  16.240 -0.1890 -0.0974 -0.2699
82955W        W26049  21.994   3.143  15.859 -0.0123  0.1519  0.1017
82956W        W26050  17.859   1.789  19.571 -0.0276 -0.0672 -0.1331
82957W        W26051  17.957   0.066  17.861 -0.0962  0.0920  0.0031
82958W        W26052  18.967  33.568  19.966  0.2022 -0.1148  0.1512
82959W        W26053  17.629  33.474  18.592 -0.1167  0.0629 -0.2489
82960W        W26054  21.450   1.650  18.887  0.2825  0.2131 -0.0557
82961W        W26055  17.971  33.901  16.734  0.0062  0.2506  0.0361
82962W        W26056  20.361   0.753  17.408  0.0578 -0.0994 -0.0610
82963W        W26057  20.262   0.786  16.528 -0.1307  0.2073  0.0820
82964W        W26058  18.023   1.234  17.373 -0.1180  0.1823  0.1550
82965W        W26059  20.323   0.334  18.768  0.2642 -0.1021 -0.1180
82966W        W26060  20.583   2.624  16.778 -0.1899 -0.2210 -0.2587
82967W        W26061  21.368   3.609  18.055  0.0890 -0.2603 -0.1668
82968W        W26062  21.659   3.297  17.053  0.4224 -0.2114  0.2911
82969W        W26063  20.531   0.971  18.098 -0.0303 -0.0119  0.2194
82970W        W26064  19.753   0.171  16.999 -0.1490 -0.0696  0.2196
82971W        W26065  19.389   2.258  17.805 -0.0011  0.0907 -0.0785
82972W        W26066  19.231   3.080  19.468 -0.0293  0.0379  0.2687
82973W        W26067  19.918   0.932  17.374 -0.1628 -0.1078 -0.0985
82974W        W26068  21.920   4.169  16.428  0.1798 -0.0312 -0.2672
82975W        W26069  20.239   1.165  17.718 -0.1055  0.0666  0.0781
82976W        W26070  15.479   2.103  19.063  0.1806  0.0334  0.2432
82977W        W26071  20.227  33.119  19.227 -0.3764 -0.2921  0.1367
82978W        W26072  20.724   2.231  19.008  0.0409 -0.2677  0.2188
82979W        W26073  20.756   0.941  17.611 -0.1000  0.3393  0.1078
82980W        W26074  18.726  34.228  15.876  0.0114  0.0116  0.0542
82981W        W26075  22.055   4.850  17.358 -0.1508 -0.1871  0.0904
82982W        W26076  18.275   2.102  18.067  0.1051  0.2604  0.1885
82983W        W26077  18.122  34.093  17.514  0.0587  0.1733  0.1638
82984W        W26078  19.288   3.921  18.604 -0.1995 -0.1495 -0.3795
82985W        W26079  21.070   0.146  17.721  0.1178  0.2468 -0.0000
82986W        W26080  18.451   2.494  19.806 -0.1128  0.0367 -0.1077
82987W        W26081  18.953   0.368  18.037  0.0382 -0.1248 -0.0284
82988W        W26082  19.435   0.842  17.468  0.0350 -0.2422 -0.1110
82989W        W26083  18.767   2.887  19.992 -0.0761  0.3725  0.0165
82990W        W26084  21.756  34.205  16.956 -0.0712  0.0068 -0.2757
82991W        W26085  20.342   1.045  15.863 -0.3866  0.0205 -0.4277
82992W        W26086  21.049   1.370  18.641 -0.2659 -0.1115  0.0915
82993W        W26087  20.822   1.978  15.969 -0.0583 -0.0593  0.1677
82994W        W26088  21.625   1.326  15.972 -0.0570  0.1883 -0.0419
82995W        W26089  22.014   1.670  15.829  0.1571 -0.0461 -0.1270
82996W        W26090  20.240   2.072  20.931  0.0295 -0.0173  0.1386
82997W        W26091  20.544   3.905  17.626 -0.1073 -0.0417  0.2047
82998W        W26092  20.293   1.379  18.780 -0.1448  0.0387  0.0913
82999W        W26093  20.601   0.577  15.956 -0.1751  0.1301 -0.1292
83000W        W26094  21.727   3.297  16.340  0.1422  0.1024 -0.1762
83001W        W26095  17.651   2.568  19.271 -0.3779 -0.2369  0.1217
83002W        W26096  21.513   4.026  19.181  0.2011  0.0421 -0.1551
83003W        W26097  21.075   3.601  18.520  0.2702  0.0815 -0.0978
83004W        W26098  19.832   0.127  19.155  0.1372  0.0118  0.0111
83005W        W26099  19.561   0.820  16.524  0.0291 -0.0325  0.1702
83006W        W26100  20.439  34.268  17.249 -0.1052  0.0373 -0.0023
83007W        W26101  17.106   2.450  16.972 -0.0132  0.1943  0.2898
83008W        W26102  21.610  34.529  16.479  0.2700  0.2251  0.1600
83009W        W26103  21.267  34.477  18.005  0.0722  0.0064  0.0115
83010W        W26104  18.541  34.565  19.294 -0.1591  0.0736 -0.1068
83011W        W26105  22.154   2.180  20.055  0.1930 -0.2238  0.2853
83012W        W26106  20.509   0.244  16.455 -0.5035  0.1682  0.1370
83013W        W26107  21.136   0.612  17.525  0.2672 -0.0874  0.2804
83014W        W26108  19.704   1.715  17.031 -0.0846 -0.3007  0.1414
83015W        W26109  19.396   1.615  18.713  0.1240  0.0840  0.0301
83016W        W26110  18.902   2.074  17.286 -0.4195 -0.0271 -0.1648
83017W        W26111  20.899   4.401  19.692  0.2270  0.0983  0.2741
83018W        W26112  21.002   2.441  20.223  0.0879  0.0834  0.0413
83019W        W26113  21.305   1.506  16.410 -0.3915 -0.0811 -0.4074
83020W        W26114  20.413   0.256  19.338  0.2479  0.2410  0.0577
83021W        W26115  19.960  34.587  16.298 -0.3514  0.1266 -0.0156
83022W        W26116  20.778   3.402  16.388  0.1559 -0.1283  0.1444
83023W        W26117  18.298   2.979  17.361 -0.3696  0.0302  0.0899
83024W        W26118  18.899  34.679  18.353  0.1408 -0.1807 -0.2819
83025W        W26119  20.146   2.003  18.162 -0.0405 -0.4008 -0.0895
83026W        W26120  19.684   2.757  15.852 -0.1134 -0.0786  0.2156
83027W        W26121  21.900   2.535  18.706 -0.0871 -0.3442 -0.2364
83028W        W26122  19.416   2.403  17.331 -0.2389  0.1474  0.2137
83029W        W26123  20.930  34.392  18.466 -0.2987  0.0394 -0.0409
83030W        W26124  18.957   2.989  18.207 -0.3823 -0.1357  0.4785
83031W        W26125  18.809   1.197  18.103 -0.0977  0.1062  0.0246
83032W        W26126  18.236   0.105  17.396 -0.1364 -0.0847  0.2828
83033W        W26127  21.212  33.441  16.845 -0.0763  0.0332 -0.1327
83034W        W26128  20.893   2.877  16.344 -0.0769 -0.1343 -0.0239
83035W        W26129  19.443   0.567  18.403 -0.0571  0.0096 -0.2259
83036W        W26130  19.573   0.760  18.926  0.1092  0.2052 -0.1193
83037W        W26131  17.352   2.385  18.848  0.2116  0.1886 -0.0234
83038W        W26132  21.165   2.078  19.236  0.0456 -0.4773  0.0310
83039W        W26133  20.813   0.957  15.758 -0.0417 -0.1797  0.1198
83040W        W26134  20.655   1.709  16.932 -0.0720  0.2720  0.2910
83041W        W26135  19.256   2.487  19.364 -0.0806 -0.2383  0.0802
83042W        W26136  17.977   0.996  16.449 -0.1343  0.0195 -0.3149
83043W        W26137  20.128   1.248  18.196  0.1164  0.1209  0.1916
83044W        W26138  20.573   0.452  17.820  0.1772 -0.1234 -0.0425
83045W        W26139  18.355   1.724  18.492  0.0111 -0.1442 -0.1876
83046W        W26140  21.909   0.493  18.209 -0.2895 -0.4566  0.0350
83047W        W26141  19.204   1.575  16.599  0.1298  0.2588  0.0178
83048W        W26142  20.173   3.247  16.625 -0.0321 -0.1410 -0.1607
83049W        W26143  19.924  34.294  18.854  0.4092 -0.0883  0.0847
83050W        W26144  21.568   1.892  19.472 -0.3699 -0.0626 -0.0204
83051W        W26145  20.094   0.906  18.723  0.1019  0.2060  0.1242
83052W        W26146  19.471  34.486  17.236 -0.2210 -0.0109  0.1677
83053W        W26147  19.567   1.329  17.469  0.1586 -0.2741  0.1815
83054W        W26148  21.065   2.093  19.737  0.1561 -0.0365 -0.1564
83055W        W26149  19.379   2.108  19.076 -0.0570  0.0227 -0.1243
83056W        W26150  18.013   0.858  17.850 -0.2171  0.0553 -0.1501
83057W        W26151  21.717  34.011  17.430 -0.3671  0.0111  0.0593
83058W        W26152  22.279   4.046  16.960  0.3210  0.2053  0.0685
83059W        W26153  20.750   1.588  19.042  0.3780  0.0392 -0.0155
83060W        W26154  19.679   1.542  16.471 -0.1484 -0.1382 -0.2136
83061W        W26155  18.453   0.794  18.943  0.0642  0.0430 -0.1133
83062W        W26156  20.780   1.341  17.888 -0.1617 -0.1192  0.1202
83063W        W26157  19.288   0.160  18.647  0.1166 -0.1371  0.0620
83064W        W26158  19.410   4.316  19.534  0.1950  0.0670  0.0539
83065W        W26159  18.454   1.111  17.699 -0.0710 -0.1980 -0.0479
83066W        W26160  18.600   2.524  18.193  0.0441  0.2966 -0.1706
83067W        W26161  21.107   0.166  15.649  0.2280 -0.2624  0.4568
83068W        W26162  20.365   3.365  16.175  0.0447  0.0008 -0.2327
83069W        W26163  19.871   0.840  18.293  0.1542  0.0647 -0.4218
83070W        W26164  19.764   1.268  18.802 -0.2377  0.2211  0.0012
83071W        W26165  20.714   1.794  16.439 -0.0909 -0.1379  0.0473
83072W        W26166  20.163  34.602  19.606  0.1162  0.0313  0.1401
83073W        W26167  19.963  33.906  17.974  0.0695 -0.2272 -0.1927
83074W        W26168  21.624   2.326  16.591  0.1523 -0.0856 -0.0593
83075W        W26169  17.629   1.174  19.058  0.1080 -0.1260  0.1493
83076W        W26170  19.805   2.101  19.365 -0.0345  0.0774  0.0866
83077W        W26171  17.893   1.733  20.113  0.0799 -0.0794  0.0296
83078W        W26172  20.028   0.355  16.518 -0.3082  0.0438  0.0480
83079W        W26173  18.843  34.018  16.377  0.0073 -0.0013  0.0047
83080W        W26174  20.287   2.361  18.446  0.1493 -0.0733 -0.2401
83081W        W26175  22.151   2.258  18.354 -0.0888  0.0706 -0.1223
83082W        W26176  20.192   1.892  17.118  0.1301  0.1011 -0.0109
83083W        W26177  20.226   0.274  17.371 -0.0070  0.0887  0.1622
83084W        W26178  19.208   2.712  17.849 -0.4150  0.0445  0.1118
83085W        W26179  21.205   1.630  17.161 -0.1931  0.3823  0.3696
83086W        W26180  19.944   1.968  16.632  0.1011  0.1932 -0.0971
83087W        W26181  19.422   1.139  16.896 -0.0269  0.0057 -0.0043
83088W        W26182  18.761   0.815  19.627 -0.1003  0.0755 -0.1450
83089W        W26183  22.025   2.313  17.802  0.1243  0.2241  0.0491
83090W        W26184  20.160  34.584  16.749 -0.1240  0.0269 -0.1230
83091W        W26185  19.926  34.383  18.011  0.0240 -0.0199 -0.1959
83092W        W26186  20.200   0.106  17.847 -0.0799 -0.0768  0.1648
83093W        W26187  18.914   2.098  19.214 -0.2522  0.0586  0.0802
83094W        W26188  18.181   0.952  20.662  0.3656 -0.1902  0.0718
83095W        W26189  21.667   4.131  17.425  0.0352  0.2033 -0.1799
83096W        W26190  21.980   0.802  15.274 -0.2764 -0.0936  0.1677
83097W        W26191  20.661  34.529  17.767  0.2521  0.2632  0.0473
83098W        W26192  21.794   0.042  17.101 -0.2356  0.1610  0.3751
83099W        W26193  20.796   0.948  17.141 -0.0745  0.0239  0.0647
83100W        W26194  18.700   0.435  18.471 -0.0152  0.3261 -0.0276
83101W        W26195  21.443   2.571  19.981  0.1823  0.0521  0.1346
83102W        W26196  19.075   0.209  16.367 -0.0308  0.1868  0.0884
83103W        W26197  21.163   1.254  20.273 -0.3321 -0.0916 -0.1390
83104W        W26198  21.185   2.543  16.644  0.1231  0.1800  0.3237
83105W        W26199  21.137   2.382  18.361 -0.0561  0.1203 -0.0899
83106W        W26200  19.804   0.282  18.167  0.1167 -0.1931 -0.5178
83107W        W26201  17.338   0.765  18.259 -0.0892 -0.1424  0.0077
83108W        W26202  18.695   2.104  18.640  0.0636 -0.0298  0.0908
83109W        W26203  18.645   0.266  16.539  0.0523  0.1676 -0.2297
83110W        W26204  19.932   1.047  16.223  0.1804 -0.2620  0.0420
83111W        W26205  19.151   1.558  17.163 -0.0564 -0.0478  0.0790
83112W        W26206  20.936   2.764  20.652 -0.2802 -0.0457  0.0537
83113W        W26207  19.422  34.099  16.427  0.3160  0.0540  0.1514
83114W        W26208  20.558   0.704  19.814 -0.0034 -0.0534 -0.0495
83115W        W26209  17.451   0.557  17.087 -0.0665 -0.1201  0.1050
83116W        W26210  22.292  33.710  18.124 -0.1966 -0.1614  0.2884
83117W        W26211  17.811   3.430  17.202  0.3520 -0.0752  0.1483
83118W        W26212  17.896   3.182  19.666 -0.0318  0.1137  0.1801
83119W        W26213  19.636   2.872  17.537  0.2209  0.2413 -0.0313
83120W        W26214  19.589   0.256  19.613 -0.0767  0.3328 -0.0210
83121W        W26215  20.286   2.194  19.254 -0.3461  0.0016  0.2640
83122W        W26216  20.078   1.367  17.248 -0.0230  0.0966  0.1761
83123W        W26217  20.078   0.647  19.159  0.0020 -0.0137 -0.3407
83124W        W26218  20.332   2.697  19.029  0.3804 -0.2072  0.0715
83125W        W26219  19.243   1.341  17.861  0.1268 -0.1737  0.1371
83126W        W26220  19.800   3.930  19.452  0.0504  0.3341 -0.1003
83127W        W26221  21.326   2.077  17.917  0.0498  0.4799  0.2120
83128W        W26222  18.384   1.633  17.303 -0.1470  0.0215  0.0818
83129W        W26223  18.360   1.563  19.437  0.1337  0.2563  0.2213
83130W        W26224  19.612   1.274  18.304  0.0926 -0.1982  0.1668
83131W        W26225  20.084   3.713  17.946 -0.1733  0.2797  0.2615
83132W        W26226  20.930  34.280  16.992  0.2547  0.1218 -0.0084
83133W        W26227  21.154   3.055  15.588  0.1318  0.0391  0.0286
83134W        W26228  19.652   2.441  19.768 -0.1611 -0.1936  0.1480
83135W        W26229  18.652   1.057  18.521  0.1195 -0.0510 -0.1150
83136W        W26230  17.652   2.554  16.937 -0.0807  0.0241 -0.0656
83137W        W26231  19.806   4.083  16.954 -0.2678  0.2402 -0.1423
83138W        W26232  21.456   0.701  16.623 -0.1243 -0.1564  0.0420
83139W        W26233  19.850   2.483  17.707  0.0690 -0.3202  0.0203
83140W        W26234  20.338   1.035  16.985 -0.2233 -0.1303 -0.1205
83141W        W26235  18.926   0.868  17.495  0.2300  0.1538 -0.0865
83142W        W26236  18.901   2.685  16.482  0.0446  0.2617 -0.0947
83143W        W26237  22.210   3.432  18.486 -0.0561  0.2126  0.2171
83144W        W26238  18.392   0.673  17.419 -0.0976  0.0901 -0.2182
83145W        W26239  20.717   1.927  19.402 -0.0990 -0.0989 -0.1263
83146W        W26240  21.053  34.548  16.549  0.1065  0.0465 -0.1016
83147W        W26241  21.226   0.678  18.022 -0.0250 -0.0176  0.3755
83148W        W26242  22.708  34.511  16.057 -0.1071  0.0105 -0.0341
83149W        W26243  19.433   3.420  19.178 -0.1338 -0.1176 -0.0315
83150W        W26244  17.976   1.678  19.073 -0.0345  0.2735  0.2052
83151W        W26245  20.543  34.172  16.753 -0.0351 -0.0768 -0.0229
83152W        W26246  19.665   0.760  19.657 -0.4171  0.4226 -0.1415
83153W        W26247  23.140   0.811  20.631  0.1022  0.0599 -0.0052
83154W        W26248  16.376   2.884  18.367 -0.1195  0.0463  0.2202
83155W        W26249  21.319   2.582  17.896  0.0247 -0.2654 -0.2700
83156W        W26250  17.748   0.650  15.918 -0.1110 -0.0142  0.1966
83157W        W26251  18.790   2.045  18.166 -0.0319 -0.0375 -0.2326
83158W        W26252  21.904  33.690  17.799  0.0740  0.3691 -0.2777
83159W        W26253  18.199   2.146  18.705  0.1816 -0.0857  0.0386
83160W        W26254  19.656  34.489  18.462 -0.2205 -0.3674  0.1848
83161W        W26255  20.233   2.913  17.033  0.0428  0.1515  0.0530
83162W        W26256  18.663   3.829  18.430  0.1323  0.0838 -0.1444
83163W        W26257  18.686   3.501  16.776  0.1850  0.3244  0.0496
83164W        W26258  18.079   0.138  15.973 -0.1478 -0.0912 -0.1768
83165W        W26259  20.887   0.337  16.749  0.0236  0.0902 -0.0695
83166W        W26260  19.028   1.606  19.105  0.0721 -0.1121  0.1140
83167W        W26261  21.028  33.926  18.783  0.1894 -0.1922  0.3133
83168W        W26262  18.465   0.811  18.142 -0.2161  0.0532  0.0021
83169W        W26263  21.485   1.326  17.381  0.2511  0.1542  0.2596
83170W        W26264  19.924   1.685  18.462  0.0840  0.0129  0.0847
83171W        W26265  18.201   0.957  18.574 -0.2461  0.3204 -0.0575
83172W        W26266  20.158   1.553  16.743  0.1212 -0.1122  0.3256
83173W        W26267  22.132   0.587  20.250 -0.0592 -0.1246  0.0947
83174W        W26268  21.193   1.267  15.603 -0.0933  0.0466 -0.2741
83175W        W26269  20.996   4.015  19.327 -0.3286  0.0297  0.0746
83176W        W26270  18.488  34.490  18.717 -0.3535  0.0375 -0.2498
83177W        W26271  21.101   1.877  15.458  0.1373  0.0227  0.2950
83178W        W26272  18.402   0.061  18.303 -0.1478 -0.0113 -0.3214
83179W        W26273  20.427   2.309  17.150  0.1873  0.1883 -0.0501
83180W        W26274  21.810   3.765  18.346  0.1976  0.1386  0.1673
83181W        W26275  19.709  34.368  16.721 -0.1227 -0.1708  0.3234
83182W        W26276  20.445   1.644  15.856 -0.0287  0.1579 -0.2158
83183W        W26277  19.881  34.039  17.075  0.0912  0.0236  0.0655
83184W        W26278  20.429   4.016  16.929  0.1222  0.0216 -0.2128
83185W        W26279  20.394   0.478  16.920 -0.1620  0.3498 -0.0068
83186W        W26280  20.616   2.565  17.568 -0.2034 -0.2351 -0.1004
83187W        W26281  17.865  33.857  18.216 -0.2571  0.2480  0.0290
83188W        W26282  19.851   1.501  17.854  0.3466  0.0174  0.1490
83189W        W26283  22.277   1.731  18.228 -0.1725  0.0458  0.2307
83190W        W26284  20.067  34.365  15.839  0.1341  0.1340  0.4326
83191W        W26285  19.469  34.527  18.910  0.1904 -0.3566  0.2213
83192W        W26286  18.485   3.053  19.202  0.1122 -0.0021 -0.1823
83193W        W26287  19.963  34.455  17.393  0.0566 -0.0652  0.0220
83194W        W26288  19.234   0.541  19.759  0.1385 -0.1336 -0.0259
83195W        W26289  21.201   3.182  16.048 -0.1940 -0.2065  0.3187
83196W        W26290  21.294  33.960  19.537  0.3674  0.1277 -0.2490
83197W        W26291  19.467   4.819  19.688  0.0286  0.1421 -0.3066
83198W        W26292  18.792   2.177  19.777  0.0599 -0.0185 -0.0832
83199W        W26293  19.449   0.612  16.995 -0.1868 -0.1250 -0.0027
83200W        W26294  19.071   1.678  18.223 -0.0418 -0.1351 -0.1257
83201W        W26295  19.263   2.483  16.742 -0.0688  0.0341 -0.3414
83202W        W26296  19.890   3.681  16.667  0.0774 -0.0216 -0.0010
83203W        W26297  20.081   2.683  19.530  0.0906 -0.0173  0.1275
83204W        W26298  18.933   2.144  16.633  0.0881  0.0378 -0.2378
83205W        W26299  22.257   3.801  17.493 -0.1351 -0.0338 -0.0006
83206W        W26300  19.748   0.424  17.470 -0.0122  0.2342  0.3516
83207W        W26301  22.729  34.084  17.705 -0.1103  0.3014 -0.0489
83208W        W26302  20.541   0.033  17.017 -0.2004 -0.1691  0.1056
83209W        W26303  19.420   2.444  18.706  0.1998  0.0883 -0.2199
83210W        W26304  18.900   0.617  17.074 -0.1553 -0.1660  0.2864
83211W        W26305  18.287   1.439  16.742  0.1509  0.0498 -0.3758
83212W        W26306  17.234   1.747  19.678 -0.0583 -0.0362  0.2130
83213W        W26307  19.305  34.442  21.039 -0.3133  0.0368 -0.0697
83214W        W26308  18.421   0.312  19.159 -0.4234 -0.1874 -0.1604
83215W        W26309  17.860   1.641  18.205  0.0045 -0.0887 -0.2237
83216W        W26310  18.236   0.008  16.465  0.3170  0.0431 -0.2965
83217W        W26311  20.902   2.231  16.939 -0.1140 -0.2665 -0.1968
83218W        W26312  18.739  34.179  18.244 -0.0294 -0.0329  0.1213
83219W        W26313  18.120  34.456  16.865 -0.1017 -0.1308 -0.3524
83220W        W26314  21.333   3.776  17.172  0.2389 -0.0624  0.0424
83221W        W26315  21.268   3.158  16.665 -0.1399 -0.0800  0.1834
83222W        W26316  19.655   0.016  17.692  0.4151  0.0175  0.0984
83223W        W26317  21.733   3.080  19.323 -0.1642 -0.2837 -0.1173
83224W        W26318  17.650   1.393  16.319 -0.0585  0.3522 -0.3440
83225W        W26319  19.561   1.896  18.187  0.1012  0.0470  0.2767
83226W        W26320  20.416  34.033  19.108  0.0266  0.0112  0.1215
83227W        W26321  19.189   0.195  16.870  0.1836 -0.1465 -0.0686
83228W        W26322  19.185   0.902  18.085 -0.1782 -0.0021 -0.2797
83229W        W26323  20.613   2.016  17.865 -0.0079 -0.0594  0.0769
83230W        W26324  20.674   3.136  16.795  0.0648 -0.0806 -0.2042
83231W        W26325  19.777   4.100  17.926  0.3074 -0.0061 -0.3586
83232W        W26326  19.477   3.260  18.681  0.1042  0.1006  0.0760
83233W        W26327  17.857  33.990  19.263 -0.0313  0.0556  0.1254
83234W        W26328  21.230   1.244  16.821 -0.1424 -0.0198  0.0325
83235W        W26329  19.205   2.023  18.529 -0.0332  0.0885 -0.2784
83236W        W26330  21.516   3.644  16.733 -0.1946 -0.1225 -0.1256
83237W        W26331  21.311  33.638  18.405  0.0610 -0.1217  0.2576
83238W        W26332  20.947   0.844  16.665  0.0814  0.0897 -0.0572
83239W        W26333  18.714  34.068  18.784 -0.0328 -0.3802  0.1332
83240W        W26334  20.729   1.674  19.849 -0.1074 -0.2150 -0.2184
83241W        W26335  21.494   2.153  18.576 -0.2230  0.0655 -0.2627
83242W        W26336  19.117   0.015  17.682  0.0758  0.2267 -0.0824
83243W        W26337  20.637  33.843  17.545 -0.2109  0.2758  0.1104
83244W        W26338  20.796   2.289  16.402 -0.2016 -0.1151  0.1534
83245W        W26339  17.731   0.296  17.423  0.0870  0.0850  0.1292
83246W        W26340  20.328  33.365  17.426  0.3262 -0.0622  0.1407
83247W        W26341  22.294   1.922  20.791  0.1295 -0.1140  0.0731
83248W        W26342  21.585   1.962  17.470  0.1609  0.0731  0.3840
83249W        W26343  20.708   1.389  20.320  0.1220 -0.2570 -0.0644
83250W        W26344  18.954   1.145  16.831  0.3040  0.0362 -0.2130
83251W        W26345  21.788   1.731  16.404 -0.1700  0.2567 -0.0875
83252W        W26346  21.485   3.103  17.989 -0.0978  0.2047  0.0949
83253W        W26347  21.857   4.082  19.506  0.0200  0.3402  0.2158
83254W        W26348  19.953   2.680  18.648  0.0788 -0.1621  0.3386
83255W        W26349  21.344   1.385  18.128 -0.0267 -0.0073 -0.1318
83256W        W26350  19.753  33.502  18.213 -0.2988 -0.0405  0.0366
83257W        W26351  19.304   1.983  16.904 -0.0344 -0.1377  0.1884
83258W        W26352  18.500   2.074  16.947  0.3839 -0.4056  0.0588
83259W        W26353  20.003   0.639  17.826 -0.2132 -0.2348  0.2101
83260W        W26354  19.141  34.342  17.983  0.1949  0.1623 -0.1815
83261W        W26355  20.437  33.709  16.463  0.1713 -0.1691 -0.4350
83262W        W26356  19.287   3.285  19.933 -0.0689 -0.1132  0.0047
83263W        W26357  20.349   1.601  17.870  0.1005 -0.1509  0.0224
83264W        W26358  19.188   4.063  23.127  0.3159  0.2994  0.2144
83265W        W26359  17.878   0.713  20.367 -0.1403  0.1601  0.0168
83266W        W26360  21.828   1.043  21.242 -0.3642  0.0848  0.0906
83267W        W26361  20.957   3.210  21.159  0.3829  0.0634  0.0690
83268W        W26362  19.724   1.412  21.028  0.2253  0.0657 -0.3793
83269W        W26363  20.610   3.143  19.263 -0.2856 -0.0447  0.1058
83270W        W26364  20.312   0.687  22.625  0.3701  0.1815 -0.0246
83271W        W26365  20.656   2.144  22.772  0.3209 -0.2286  0.1139
83272W        W26366  21.423   3.571  23.513  0.3084 -0.4493  0.2625
83273W        W26367  20.416   2.783  19.884  0.0003  0.3050 -0.1802
83274W        W26368  19.932  34.570  22.224 -0.1060  0.1038  0.0961
83275W        W26369  20.429   3.792  22.555 -0.0113 -0.0088  0.1904
83276W        W26370  17.856   0.534  21.235 -0.0094 -0.0333  0.0237
83277W        W26371  17.841  34.176  21.333 -0.1579 -0.0134 -0.1324
83278W        W26372  20.849   2.282  22.367  0.0244  0.2772 -0.1535
83279W        W26373  16.838   1.987  20.276 -0.1389 -0.1423  0.0528
83280W        W26374  19.461   0.908  22.916  0.2687 -0.0261 -0.1455
83281W        W26375  19.352   2.005  19.637  0.0972 -0.0571  0.0705
83282W        W26376  20.539   2.686  20.984  0.1001  0.2548  0.2000
83283W        W26377  19.005  34.665  23.697  0.0241 -0.0945  0.0022
83284W        W26378  20.377   0.040  22.375  0.3083  0.0720  0.0124
83285W        W26379  20.146   2.787  17.519  0.0624 -0.0477 -0.0082
83286W        W26380  18.734   2.445  20.293  0.0835  0.1257 -0.2734
83287W        W26381  18.244   1.745  22.105 -0.1315  0.0927 -0.0058
83288W        W26382  19.870   2.414  22.141  0.3241  0.0735  0.0335
83289W        W26383  21.975   0.849  20.787 -0.1236  0.6421 -0.0895
83290W        W26384  21.021   0.982  20.813 -0.0025  0.3830  0.2028
83291W        W26385  20.314   3.334  22.330  0.1833 -0.0816 -0.0220
83292W        W26386  19.290   1.886  20.886 -0.0151 -0.0012 -0.1671
83293W        W26387  19.930   0.091  22.746  0.2507 -0.1450  0.1153
83294W        W26388  16.944   2.344  20.603  0.1306 -0.0998  0.1715
83295W        W26389  18.775   2.005  21.175  0.4282 -0.0386  0.1208
83296W        W26390  18.986   2.209  20.625  0.0450  0.0313  0.1766
83297W        W26391  21.503   3.339  21.396  0.0679  0.0508  0.0666
83298W        W26392  21.775   2.881  23.113 -0.1082 -0.4358 -0.1432
83299W        W26393  20.602   3.606  23.118  0.3510  0.0693 -0.1252
83300W        W26394  17.905   3.023  19.123 -0.0444 -0.4698  0.1064
83301W        W26395  19.279   2.368  22.120 -0.2908  0.2536 -0.4551
83302W        W26396  18.255   3.671  22.658 -0.3248 -0.2252  0.0261
83303W        W26397  20.457   1.708  22.450 -0.1904 -0.0194 -0.4065
83304W        W26398  19.930   1.780  21.258  0.1229  0.0303  0.0269
83305W        W26399  19.506   1.633  19.325 -0.2595 -0.0642 -0.0336
83306W        W26400  18.251   3.092  21.453 -0.0492  0.0883  0.2699
83307W        W26401  19.359   4.937  23.503  0.0153  0.1579 -0.1852
83308W        W26402  17.792   3.934  22.294  0.0417  0.0421 -0.0782
83309W        W26403  20.879  34.248  23.605  0.0000  0.0104 -0.2103
83310W        W26404  20.973   2.758  19.255 -0.2541  0.0998 -0.0560
83311W        W26405  22.224   1.421  21.360 -0.0528 -0.0046  0.1723
83312W        W26406  19.004   0.772  18.779 -0.0414 -0.1517 -0.0719
83313W        W26407  21.985   1.856  21.123  0.2999  0.4129 -0.1279
83314W        W26408  18.333  33.597  22.888  0.0184 -0.1307  0.1155
83315W        W26409  20.100   4.136  22.376 -0.4246  0.1084 -0.0607
83316W        W26410  19.398   0.887  22.430 -0.1747  0.1448  0.4202
83317W        W26411  20.827   1.748  21.605 -0.0092  0.0964  0.0956
83318W        W26412  20.412   0.734  20.530  0.0909 -0.0052  0.1026
83319W        W26413  19.437   1.068  21.757  0.0024 -0.1976  0.0162
83320W        W26414  18.273   3.120  22.191  0.1719  0.1942  0.1858
83321W        W26415  18.944   0.972  21.357 -0.0097  0.0332  0.0258
83322W        W26416  21.763   3.607  18.826  0.3534  0.1280 -0.0507
83323W        W26417  21.037   3.225  20.619  0.1373 -0.0795  0.2079
83324W        W26418  20.736   4.258  20.229  0.1799  0.0702 -0.0541
83325W        W26419  17.271   1.657  20.239 -0.0921  0.0526 -0.0031
83326W        W26420  17.234   1.254  22.315 -0.3812  0.5208 -0.2544
83327W        W26421  17.717   1.783  22.116 -0.3486  0.3698 -0.0287
83328W        W26422  20.525  32.624  18.549  0.0870 -0.3204 -0.2812
83329W        W26423  21.731   3.250  21.843  0.3796 -0.1457 -0.1937
83330W        W26424  19.262   1.307  23.810  0.1879 -0.1213 -0.1868
83331W        W26425  21.518   0.875  20.033  0.0405 -0.1950  0.1181
83332W        W26426  18.276   1.655  20.538 -0.2060 -0.0107  0.1777
83333W        W26427  21.344   2.879  21.840  0.2740 -0.0126  0.0099
83334W        W26428  21.277   2.624  18.849 -0.4193  0.0613  0.1173
83335W        W26429  20.124   1.559  20.683 -0.0774  0.2463  0.2442
83336W        W26430  21.000  33.787  20.727 -0.0254 -0.1452  0.1247
83337W        W26431  18.453   2.089  19.474 -0.1721 -0.1608 -0.1532
83338W        W26432  20.143   1.020  19.669 -0.0319 -0.4103 -0.0899
83339W        W26433  21.804   3.744  23.273  0.1857 -0.0435  0.1185
83340W        W26434  20.660   2.316  20.701 -0.2804  0.0361  0.3541
83341W        W26435  18.340   2.647  21.164 -0.1331  0.1682 -0.1382
83342W        W26436  19.935   0.940  22.158 -0.0911  0.0940  0.2250
83343W        W26437  19.010   3.192  24.526 -0.0045  0.0207 -0.1362
83344W        W26438  18.361   3.102  19.776 -0.0824 -0.2154 -0.0734
83345W        W26439  18.092   1.973  21.693  0.1311  0.2418 -0.0482
83346W        W26440  17.858   1.798  21.037  0.0878 -0.0437  0.3354
83347W        W26441  16.455   1.379  21.034 -0.0493 -0.0447  0.2139
83348W        W26442  19.902   2.409  20.620 -0.3859  0.0605 -0.3173
83349W        W26443  20.442   1.714  21.165 -0.1252 -0.3534  0.1161
83350W        W26444  18.622   1.207  21.957 -0.1307  0.0687  0.1884
83351W        W26445  21.097   0.971  21.363 -0.2250  0.1048 -0.0616
83352W        W26446  18.683   1.062  20.479 -0.1878 -0.0947  0.2138
83353W        W26447  20.968   5.789  20.941  0.2995 -0.3470  0.1740
83354W        W26448  21.945   0.935  19.851  0.1518  0.1973 -0.0153
83355W        W26449  21.010   2.466  21.058 -0.0489  0.1618 -0.1252
83356W        W26450  18.528   0.943  21.558 -0.0296  0.1492  0.2201
83357W        W26451  17.342   0.475  21.236  0.1814  0.1287 -0.3039
83358W        W26452  19.096   0.256  23.255 -0.0046  0.1251  0.1059
83359W        W26453  18.417  34.049  22.157  0.2949 -0.1158 -0.0350
83360W        W26454  20.628   1.097  23.670 -0.0754 -0.0484 -0.0512
83361W        W26455  18.821  34.548  20.845  0.1781  0.3025  0.4054
83362W        W26456  21.798   1.898  22.530 -0.1014  0.0472 -0.0507
83363W        W26457  19.988   0.974  20.758 -0.4073 -0.1857 -0.2500
83364W        W26458  17.976   3.605  20.831  0.1280 -0.4175 -0.0490
83365W        W26459  20.881   0.236  22.084 -0.0259 -0.0102  0.0007
83366W        W26460  20.496   3.536  21.232  0.1943  0.0740  0.0672
83367W        W26461  23.190   2.598  23.646  0.0928 -0.2356 -0.1872
83368W        W26462  20.771   4.797  20.011 -0.0841 -0.1606 -0.0192
83369W        W26463  18.978  34.156  22.041  0.0904  0.0734  0.0014
83370W        W26464  20.280   1.143  19.217  0.0031  0.3936 -0.0823
83371W        W26465  19.384   3.051  21.500  0.1213 -0.1202  0.0211
83372W        W26466  19.275   3.080  22.234  0.0682 -0.0884  0.0895
83373W        W26467  20.052   0.426  19.653  0.0897 -0.4051  0.0519
83374W        W26468  20.141   2.934  21.757 -0.1403 -0.0832  0.2245
83375W        W26469  20.230   1.124  20.192  0.1655 -0.0452  0.1605
83376W        W26470  19.188   1.820  22.602 -0.1638  0.2105  0.2185
83377W        W26471  20.363  34.433  22.805 -0.2570 -0.3918  0.0390
83378W        W26472  22.307   1.561  22.348  0.1269 -0.0501 -0.0357
83379W        W26473  18.928   1.549  21.090 -0.3503 -0.0811  0.0273
83380W        W26474  19.373   0.303  19.115  0.0935 -0.2683  0.5171
83381W        W26475  21.924   2.827  21.641 -0.0302  0.0830 -0.0403
83382W        W26476  19.454   2.809  18.414 -0.0085  0.1074 -0.1510
83383W        W26477  18.237   2.146  21.158  0.0190 -0.2263 -0.2451
83384W        W26478  18.776   1.942  20.209  0.1352 -0.2753 -0.1239
83385W        W26479  19.951   0.576  21.815 -0.0122 -0.0736 -0.1743
83386W        W26480  18.767   2.165  22.747 -0.0332  0.3374 -0.2846
83387W        W26481  20.158   0.998  23.530 -0.0286 -0.2279 -0.1979
83388W        W26482  18.815   1.539  18.608 -0.0747  0.2349  0.0712
83389W        W26483  18.877   2.043  22.283  0.1526 -0.0720  0.0039
83390W        W26484  21.068   1.454  21.247  0.0752 -0.1752 -0.2919
83391W        W26485  21.076   1.537  20.692 -0.3341  0.0904 -0.1386
83392W        W26486  20.461   1.979  23.221 -0.1628  0.0974  0.1052
83393W        W26487  20.414   2.747  20.470 -0.0627  0.0572 -0.1459
83394W        W26488  20.634   1.546  18.376 -0.2076  0.1433 -0.3245
83395W        W26489  19.744  33.839  18.747  0.1134  0.0059 -0.0595
83396W        W26490  19.093   1.356  22.196 -0.2138  0.5243 -0.0527
83397W        W26491  20.613   1.172  19.888  0.0147  0.3705  0.0570
83398W        W26492  20.540   2.625  21.582  0.1161  0.2309 -0.0182
83399W        W26493  19.209   0.786  19.348  0.0936  0.0749  0.3867
83400W        W26494  21.116   4.316  21.641  0.1855 -0.4603  0.2045
83401W        W26495  18.149   1.349  21.848  0.0153 -0.3964  0.0426
83402W        W26496  19.438   3.590  22.160 -0.2669 -0.0439 -0.0627
83403W        W26497  19.791   3.144  22.139 -0.0718  0.1362 -0.2574
83404W        W26498  19.449  34.036  21.231  0.0126 -0.1616 -0.1109
83405W        W26499  20.155  34.604  18.435  0.2443 -0.4117 -0.3438
83406W        W26500  20.428   1.054  21.996 -0.2117  0.0217 -0.0404
83407W        W26501  18.551   4.535  19.998  0.0029  0.0740 -0.0561
83408W        W26502  20.503   1.210  22.455 -0.2335 -0.4085 -0.0424
83409W        W26503  19.690  33.930  22.419  0.2201 -0.2438 -0.0228
83410W        W26504  19.539   0.468  23.159 -0.1074  0.5651  0.2270
83411W        W26505  21.502   1.348  23.882 -0.4476 -0.1923  0.0160
83412W        W26506  21.000   1.850  20.267  0.0479 -0.1740 -0.1688
83413W        W26507  20.926   1.913  21.096 -0.1497 -0.0908 -0.3511
83414W        W26508  19.605   1.249  19.825  0.1547  0.1736 -0.0623
83415W        W26509  20.078   0.151  21.476 -0.0454 -0.2196  0.1757
83416W        W26510  18.289   2.077  22.967 -0.0421  0.1641 -0.1325
83417W        W26511  18.971   2.786  22.644  0.0287  0.2294 -0.0870
83418W        W26512  20.381   1.496  23.216  0.3673  0.3232  0.0620
83419W        W26513  21.204   0.721  22.407 -0.2135  0.3677 -0.2041
83420W        W26514  19.699   1.445  23.536 -0.1444  0.3582 -0.0395
83421W        W26515  20.483   0.210  19.823 -0.0818 -0.1453  0.1318
83422W        W26516  20.195   4.083  18.984 -0.1118  0.2214 -0.0928
83423W        W26517  19.272   1.643  19.917  0.1301  0.3412 -0.1297
83424W        W26518  19.773  32.951  22.181  0.1540  0.0837 -0.0438
83425W        W26519  20.700   3.328  19.785 -0.1773  0.3375  0.0430
83426W        W26520  18.979   2.660  18.714  0.2537  0.0584 -0.0486
83427W        W26521  19.272   1.795  23.547  0.2775  0.0028  0.3956
83428W        W26522  19.072   4.100  19.868 -0.3316 -0.2193 -0.0300
83429W        W26523  21.926   0.635  21.978 -0.0107 -0.6039 -0.0826
83430W        W26524  18.491   2.609  22.449  0.0049 -0.1214 -0.0514
83431W        W26525  19.684  34.665  20.477  0.1180  0.2681 -0.1637
83432W        W26526  16.868   0.914  18.623 -0.0119 -0.1118 -0.2213
83433W        W26527  22.075  34.494  21.030  0.1418  0.2305  0.0541
83434W        W26528  21.186   2.153  20.694 -0.1972  0.0695  0.0984
83435W        W26529  19.260   0.351  22.719  0.0097 -0.3141  0.0500
83436W        W26530  20.711   1.186  21.575  0.0778  0.0333 -0.0030
83437W        W26531  17.875   3.417  22.416  0.2315  0.0526 -0.0259
83438W        W26532  21.014   2.345  21.591 -0.0489 -0.0210 -0.1858
83439W        W26533  20.982   0.538  20.577 -0.3140 -0.0343 -0.0355
83440W        W26534  21.394   1.613  22.610  0.2970  0.1938  0.1845
83441W        W26535  18.811   2.944  21.408  0.2865  0.1167  0.0889
83442W        W26536  18.835   1.700  19.551  0.0485 -0.0689  0.1018
83443W        W26537  20.715   1.588  22.879 -0.0099 -0.2697  0.2069
83444W        W26538  18.976   1.031  20.854 -0.1226  0.1441 -0.1801
83445W        W26539  19.243   1.814  20.369  0.0147  0.1957  0.1050
83446W        W26540  21.331   3.621  20.880  0.2615  0.1186  0.1958
83447W        W26541  19.776   1.908  20.774 -0.1112  0.2787  0.2608
83448W        W26542  20.096   2.572  21.322 -0.0124  0.0358  0.1672
83449W        W26543  18.864   1.092  23.106 -0.5195  0.0556  0.0404
83450W        W26544  21.795   2.814  22.151 -0.2282 -0.1881 -0.0514
83451W        W26545  19.809   0.479  21.290 -0.4525  0.2040  0.0402
83452W        W26546  18.736   1.226  19.258 -0.0005  0.3134 -0.1853
83453W        W26547  19.268   0.645  20.446 -0.2892 -0.0891 -0.1389
83454W        W26548  21.444   3.110  20.877  0.0787  0.1130 -0.0025
83455W        W26549  19.823   1.862  21.999 -0.3193  0.2018  0.4456
83456W        W26550  19.275   2.295  22.690 -0.1100  0.0206 -0.1975
83457W        W26551  20.601   1.526  22.013 -0.0666  0.1424  0.1321
83458W        W26552  21.887   3.803  20.286  0.0382  0.0952 -0.1279
83459W        W26553  18.392   2.042  22.446  0.2203  0.0271 -0.1866
83460W        W26554  20.077   2.496  20.142  0.1557 -0.2135 -0.0497
83461W        W26555  19.147   2.389  21.221 -0.0377 -0.2773  0.2404
83462W        W26556  18.785   1.580  20.597 -0.3889 -0.1873  0.3602
83463W        W26557  20.464   0.079  21.789  0.1416 -0.1718  0.0029
83464W        W26558  19.652   2.326  21.031  0.0102  0.2730 -0.0714
83465W        W26559  19.580   2.700  20.262  0.4325 -0.1114  0.0476
83466W        W26560  16.085   2.495  21.638  0.0877 -0.4121 -0.3484
83467W        W26561  22.800   0.506  20.877  0.1059  0.0205 -0.0850
83468W        W26562  21.476   2.668  19.336  0.1279 -0.2397  0.0390
83469W        W26563  19.670   0.954  20.252 -0.0072  0.1379  0.0211
83470W        W26564  21.130   0.371  23.744 -0.0548 -0.2573  0.2911
83471W        W26565  21.416   2.184  21.222 -0.2854  0.0518  0.4703
83472W        W26566  21.063  34.573  23.948 -0.0721  0.1880 -0.0280
83473W        W26567  19.591   1.356  22.120  0.0651 -0.1914  0.1334
83474W        W26568  20.317   2.613  22.114 -0.1524 -0.0574 -0.0693
83475W        W26569  17.990   0.734  23.011 -0.0277 -0.0728 -0.3125
83476W        W26570  21.090   2.434  22.819 -0.3946  0.1922 -0.4053
83477W        W26571  18.496   2.597  22.940  0.0062 -0.0559  0.0782
83478W        W26572  21.064   0.891  19.754 -0.1259  0.1732  0.1428
83479W        W26573  19.182  33.716  19.455 -0.4673  0.0159 -0.1287
83480W        W26574  19.184   2.888  21.026 -0.0411 -0.1105  0.2488
83481W        W26575  22.095   2.437  21.934  0.0920 -0.3143 -0.0406
83482W        W26576  19.971   1.663  19.144  0.0928  0.2280  0.1193
83483W        W26577  21.924   0.768  22.456  0.0212  0.2865  0.0538
83484W        W26578  17.705   1.673  21.650 -0.0346 -0.2108 -0.0591
83485W        W26579  20.630   1.797  20.641 -0.0861 -0.1966 -0.1332
83486W        W26580  20.249   3.236  20.092  0.2229  0.0363  0.3374
83487W        W26581  17.873   2.651  20.922 -0.0105  0.2470  0.0443
83488W        W26582  19.989   0.372  22.296  0.0206  0.0340  0.1531
83489W        W26583  19.127   2.606  21.640 -0.1553 -0.1352  0.0335
83490W        W26584  20.157   2.292  21.710  0.1653 -0.1271  0.2572
83491W        W26585  20.039   0.669  23.097 -0.0018 -0.1090 -0.0877
83492W        W26586  20.917   1.762  23.347 -0.1115  0.3792 -0.1992
83493W        W26587  19.897   1.113  22.614 -0.0475  0.1300  0.1481
83494W        W26588  19.014   1.332  21.713  0.0423  0.3075 -0.2227
83495W        W26589  20.491   3.711  21.802 -0.0896  0.1881 -0.2484
83496W        W26590  21.710   1.884  19.952  0.0206  0.3148 -0.0116
83497W        W26591  20.863  34.527  22.381 -0.3764 -0.1223  0.1066
83498W        W26592  21.990   1.342  20.897  0.3073  0.0755 -0.0345
83499W        W26593  20.622   0.677  19.085 -0.1663 -0.1701 -0.0787
83500W        W26594  19.635   1.627  21.624 -0.1604 -0.0064 -0.0878
83501W        W26595  20.354   1.992  23.668 -0.3220 -0.0978 -0.2495
83502W        W26596  19.166   0.134  20.494  0.1648  0.0636 -0.0768
83503W        W26597  20.848   1.251  23.238  0.1278 -0.1489  0.0389
83504W        W26598  20.443   3.745  20.235 -0.1066 -0.0776 -0.1391
83505W        W26599  19.896   3.093  21.344  0.0886 -0.0523 -0.3191
83506W        W26600  20.540   2.128  21.405  0.1596 -0.1065  0.0965
83507W        W26601  17.367  34.445  21.994 -0.2525  0.0302 -0.2281
83508W        W26602  18.689   3.028  23.025 -0.0178 -0.0456  0.2317
83509W        W26603  19.210  34.144  18.489  0.1425 -0.2477 -0.0262
83510W        W26604  19.744   1.499  20.363 -0.0381 -0.1083  0.3095
83511W        W26605  19.389   2.483  20.665 -0.0579  0.0886 -0.3138
83512W        W26606  20.817   1.785  24.499  0.1262 -0.1783  0.0969
83513W        W26607  18.860   0.161  19.749 -0.0559  0.0486 -0.1096
83514W        W26608  21.058   1.214  22.261  0.6487 -0.1170 -0.0310
83515W        W26609  19.100   2.814  20.404  0.0783 -0.2158 -0.1268
83516W        W26610  20.259   0.833  21.472 -0.1937 -0.2293  0.2021
83517W        W26611  18.589   2.378  21.510 -0.3267 -0.0497  0.2427
83518W        W26612  18.080   0.859  22.016 -0.3661  0.0254  0.0793
83519W        W26613  19.832   3.973  21.090  0.1527 -0.0343 -0.0956
83520W        W26614  20.725   0.730  22.315 -0.3572 -0.1787  0.1908
83521W        W26615  19.299   1.296  21.322  0.2022  0.3911 -0.1173
83522W        W26616  20.580   2.115  21.929 -0.1744  0.0436 -0.0883
83523W        W26617  21.858   0.791  24.598  0.1428  0.0082  0.2352
83524W        W26618  21.159   1.420  21.821  0.0231  0.1311  0.1447
83525W        W26619  18.488   2.794  21.823  0.1265  0.1462  0.1673
83526W        W26620  21.240   1.780  23.823 -0.0283  0.0858 -0.0588
83527W        W26621  20.971   2.843  21.450 -0.2402  0.0337  0.3540
83528W        W26622  19.481   2.194  21.697 -0.0533 -0.0549  0.3093
83529W        W26623  17.829   0.372  22.714  0.0032 -0.1479 -0.5093
83530W        W26624  19.598   1.704  22.977 -0.1286  0.1833  0.1552
83531W        W26625  20.857   1.040  22.763  0.0211  0.1118  0.2881
83532W        W26626  18.560   0.204  20.550 -0.2058  0.1830  0.1698
83533W        W26627  20.326   1.664  20.168 -0.0193  0.2032  0.0290
83534W        W26628  18.774   3.804  23.376  0.1828  0.0796 -0.0718
83535W        W26629  18.457   0.084  21.674  0.0918 -0.0027 -0.1627
83536W        W26630  19.796   2.550  19.088  0.0612 -0.1358 -0.0576
83537W        W26631  20.294   4.251  20.515  0.1857 -0.3204 -0.0722
83538W        W26632  19.404   4.206  20.888 -0.0591 -0.3135  0.0382
83539W        W26633  20.733   2.716  22.680 -0.0549  0.0747 -0.1667
83540W        W26634  19.842   0.521  20.571  0.1683 -0.0218 -0.0698
83541W        W26635  19.606   2.633  21.411  0.1265  0.1754 -0.1581
83542W        W26636  18.841   3.355  19.667  0.0238  0.0160 -0.0741
83543W        W26637  20.166   4.166  21.761  0.1839  0.0221 -0.1395
83544W        W26638  17.706   3.087  21.043 -0.2725  0.2039  0.2688
83545W        W26639  22.236   1.753  23.110  0.0153  0.0463 -0.0669
83546W        W26640  20.303  34.553  19.088 -0.3536 -0.2178  0.2470
83547W        W26641  21.645   0.366  22.348 -0.1409 -0.1169  0.1514
83548W        W26642  21.532   0.890  21.610  0.2824  0.0418  0.0238
83549W        W26643  19.058   3.407  23.122 -0.0524  0.3348 -0.3663
83550W        W26644  19.854   0.977  21.261  0.3981 -0.1933  0.2585
83551W        W26645  19.578   0.393  20.155 -0.2047  0.0703  0.4442
83552W        W26646  18.740   1.724  21.904 -0.1334  0.0756  0.1729
83553W        W26647  21.450  34.162  23.696 -0.1208  0.0030  0.1633
83554W        W26648  18.037   2.599  23.245 -0.0411  0.0487  0.0124
83555W        W26649  20.766   4.239  20.740 -0.4317 -0.2775  0.1165
83556W        W26650  19.164   0.989  19.897  0.1142  0.3050 -0.0726
83557W        W26651  17.548   2.214  20.839  0.0600 -0.1292  0.0710
83558W        W26652  22.223  33.975  21.296  0.0545  0.0655  0.2473
83559W        W26653  19.702   2.359  18.284  0.1221 -0.3838 -0.0734
83560W        W26654  20.561   0.275  21.248  0.0170  0.0142 -0.0816
83561W        W26655  20.708   5.111  18.098 -0.2786  0.1503 -0.2869
83562W        W26656  18.880   3.644  20.846  0.1686  0.0196 -0.2765
83563W        W26657  20.463   4.134  23.376 -0.2573 -0.0061 -0.2076
83564W        W26658  19.007  34.011  20.141  0.1020 -0.0310  0.0742
83565W        W26659  22.374   1.294  21.871  0.0885  0.2023 -0.1408
83566W        W26660  19.770   1.872  22.524  0.1470  0.1019 -0.2086
83567W        W26661  21.964  34.541  21.500 -0.1756  0.0377  0.0197
83568W        W26662  17.575   0.430  20.750 -0.2431 -0.0883  0.1330
83569W        W26663  22.155   2.701  20.277 -0.0278  0.3674 -0.1534
83570W        W26664  21.642   3.061  22.583 -0.0099 -0.1943 -0.2097
83571W        W26665  18.611   1.429  21.448 -0.0367  0.0855  0.2201
83572W        W26666  19.672   1.148  19.319 -0.1155  0.0551  0.0453
83573W        W26667  21.620   1.628  21.953  0.0080  0.0286  0.1345
83574W        W26668  18.837   1.485  20.107  0.0129 -0.2717 -0.1275
83575W        W26669  21.066   3.017  22.393 -0.0630 -0.0676  0.1010
83576W        W26670  18.051   0.477  20.780  0.0054 -0.1610 -0.1780
83577W        W26671  22.289   1.121  19.516 -0.0925 -0.1475 -0.1238
83578W        W26672  18.121   0.985  21.212 -0.2586 -0.0943 -0.2276
83579W        W26673  19.482   0.583  21.919  0.2931 -0.2942  0.1557
83580W        W26674  20.424   2.868  23.089  0.1058 -0.1133 -0.0473
83581W        W26675  16.922  32.969  21.423 -0.2800  0.4028 -0.0793
83582W        W26676  22.753   2.794  18.537  0.0033 -0.0244  0.3337
83583W        W26677  21.950   2.381  22.464  0.2515 -0.2317  0.2363
83584W        W26678  19.927   4.983  19.075 -0.0046 -0.1751  0.3850
83585W        W26679  21.749   2.041  20.644  0.1166 -0.0731  0.1926
83586W        W26680  20.936   3.737  20.476 -0.1362  0.1681 -0.0440
83587W        W26681  17.692   1.236  22.123 -0.1548  0.1393 -0.0585
83588W        W26682  21.166   2.083  21.976  0.3235 -0.1044 -0.0887
83589W        W26683  22.519   2.419  22.337  0.0301  0.1337  0.0847
83590W        W26684  19.330   0.304  21.529 -0.0400 -0.2876 -0.1744
83591W        W26685  18.784   2.535  20.932  0.2438  0.2322 -0.1125
83592W        W26686  19.496   4.085  20.390 -0.0808  0.2547  0.0357
83593W        W26687  20.999   0.866  21.884  0.1614 -0.0514  0.4948
83594W        W26688  20.344   0.496  23.495  0.1138 -0.5703 -0.2078
83595W        W26689  20.656   3.653  19.403  0.0423 -0.0816  0.2755
83596W        W26690  21.719  33.979  23.326 -0.1790 -0.2144  0.2543
83597W        W26691  19.654   2.946  22.607  0.1787 -0.3827 -0.1682
83598W        W26692  18.463   3.407  23.346  0.1144  0.2521  0.2589
83599W        W26693  17.575   1.307  20.038  0.2425  0.1920  0.2372
83600W        W26694  21.498   0.940  22.099  0.2514 -0.1077  0.1849
83601W        W26695  19.161   1.158  20.353  0.0457 -0.1742  0.1255
83602W        W26696  19.178   2.276  20.112 -0.1559 -0.0984  0.1362
83603W        W26697  20.665   3.070  21.868 -0.1949 -0.0941 -0.0403
83604W        W26698  20.104   0.602  20.108 -0.1887  0.1024 -0.0235
83605W        W26699  20.799   3.429  22.303 -0.0528  0.0517 -0.1314
83606W        W26700  19.350  34.394  21.543  0.1391  0.1334 -0.0445
83607W        W26701  21.321   0.181  19.363  0.1788  0.2952 -0.2050
83608W        W26702  20.683   0.651  21.573 -0.2185 -0.2552 -0.0438
83609W        W26703  19.250   3.787  21.531 -0.2087 -0.1708 -0.2151
83610W        W26704  18.169   0.867  19.967 -0.2769  0.1885 -0.0957
83611W        W26705  17.483   1.674  19.122 -0.1974  0.3068 -0.0625
83612W        W26706  18.503   3.333  21.783  0.1441  0.0370  0.2516
83613W        W26707  21.062   0.086  20.733 -0.2471  0.0892 -0.0507
83614W        W26708  18.979   1.151  22.615  0.2948  0.1882 -0.2528
83615W        W26709  17.801   2.288  21.274  0.1044  0.2939 -0.0065
83616W        W26710  19.452   0.943  20.875 -0.0679  0.1439 -0.0395
83617W        W26711  21.139   3.430  20.094  0.0943 -0.1046 -0.0953
83618W        W26712  18.488   0.148  21.142  0.1176  0.0765 -0.1640
83619W        W26713  17.728   0.901  20.939  0.2271 -0.3111 -0.0289
83620W        W26714  20.533   3.344  20.615 -0.1431  0.0061 -0.0122
83621W        W26715  20.627   2.438  19.562  0.2571  0.1651  0.3314
83622W        W26716  19.344   1.434  20.724  0.1004 -0.0288 -0.3174
83623W        W26717  22.381   4.721  22.827 -0.1001  0.1049  0.1338
83624W        W26718  18.510   2.096  20.737  0.0377 -0.1760 -0.0626
83625W        W26719  20.256   2.173  22.322  0.1980  0.2187 -0.1250
83626W        W26720  18.960   0.711  22.842  0.4890 -0.1339 -0.1018
83627W        W26721  17.014   1.341  18.883 -0.0881 -0.2290  0.0654
83628W        W26722  20.226   0.654  20.990  0.2876  0.0867 -0.2772
83629W        W26723  19.026   4.098  20.627 -0.0089 -0.0961 -0.1283
83630W        W26724  21.651   4.411  20.845 -0.0950  0.1365  0.3205
83631W        W26725  19.976   1.248  21.688  0.1762  0.1067  0.0290
83632W        W26726  20.260   2.471  22.812  0.0043 -0.0225 -0.2782
83633W        W26727  18.583  33.783  22.524  0.0583 -0.1687  0.1054
83634W        W26728  21.410   3.972  20.532 -0.3434 -0.2064 -0.0353
83635W        W26729  19.536   3.446  21.211  0.1027  0.0828 -0.0474
83636W        W26730  22.879   2.797  21.770  0.0816 -0.0904 -0.1033
83637W        W26731  22.858   1.630  22.724  0.2079 -0.1179  0.1389
83638W        W26732  20.234   1.709  21.710  0.0486 -0.2436 -0.1152
83639W        W26733  18.959   0.601  22.317 -0.2792  0.2604  0.0806
83640W        W26734  19.438   3.115  23.248 -0.0627 -0.0387  0.1737
83641W        W26735  22.151   2.002  22.218  0.1782  0.0470 -0.0501
83642W        W26736  18.531   0.719  21.048  0.2992  0.0482  0.1554
83643W        W26737  21.901   1.150  21.810 -0.1943 -0.2152 -0.2913
83644W        W26738  19.794   1.700  19.753  0.0002 -0.0233  0.0195
83645W        W26739  19.154   1.786  21.506 -0.0532 -0.0733  0.1538
83646W        W26740  21.463   1.730  20.948 -0.5216  0.1946  0.2375
83647W        W26741  21.777   1.385  22.353  0.0181  0.1289  0.0462
83648W        W26742  18.159   3.078  20.878 -0.5211  0.0632 -0.2470
83649W        W26743  21.278   0.877  23.918 -0.0985 -0.2411 -0.0309
83650W        W26744  19.768   2.050  20.108  0.2516 -0.2356 -0.3165
83651W        W26745  21.856   2.813  19.800  0.3188  0.1089 -0.0336
83652W        W26746  21.488   3.286  23.071 -0.2202 -0.2882  0.0463
83653W        W26747  21.640   4.535  23.306  0.0578 -0.0618 -0.0849
83654W        W26748  19.898   4.495  21.390  0.2652 -0.3242 -0.0700
83655W        W26749  21.696   2.105  22.103  0.0172  0.3107 -0.0014
83656W        W26750  19.049  34.504  24.191 -0.2612  0.0875  0.1413
83657W        W26751  19.270   1.194  19.005 -0.1559  0.0301  0.2730
83658W        W26752  18.354   1.697  19.908  0.0722  0.4343  0.0295
83659W        W26753  20.944   1.721  22.317 -0.0213 -0.0547  0.1960
83660W        W26754  18.821   0.494  21.493 -0.2149 -0.2770 -0.0852
83661W        W26755  20.810   0.899  20.255 -0.1897 -0.0648  0.1547
83662W        W26756  21.135   3.798  21.294  0.2050 -0.2308 -0.0519
83663W        W26757  19.592   2.680  21.881 -0.2989 -0.2560 -0.1991
83664W        W26758  19.568   2.572  27.072  0.0133 -0.0899 -0.1746
83665W        W26759  18.101   1.281  23.773 -0.0739  0.2326  0.1610
83666W        W26760  21.531   0.989  23.478  0.0553 -0.0283  0.1007
83667W        W26761  20.222   1.319  24.764 -0.0626  0.1122  0.3252
83668W        W26762  18.735   0.244  24.197  0.0137  0.1179  0.0401
83669W        W26763  20.898   3.997  23.619  0.1225 -0.1158 -0.0851
83670W        W26764  19.631  34.472  24.307  0.2270 -0.0419 -0.1843
83671W        W26765  20.674   2.131  24.118 -0.5793 -0.0010 -0.1734
83672W        W26766  21.280   4.041  24.447 -0.2807  0.0441  0.0765
83673W        W26767  21.332   2.599  22.263  0.0204  0.0632  0.2217
83674W        W26768  19.241   2.333  25.350 -0.0199 -0.3297 -0.1498
83675W        W26769  18.930   3.422  24.958  0.4242 -0.1028 -0.3177
83676W        W26770  19.008   0.434  25.036 -0.1758 -0.0773  0.2226
83677W        W26771  17.723  33.285  24.535  0.0378  0.0575  0.1609
83678W        W26772  20.273   1.062  26.085  0.1977 -0.0341 -0.0157
83679W        W26773  17.351   1.973  23.428  0.0469 -0.0945 -0.2091
83680W        W26774  19.325   1.410  25.065  0.0337 -0.0089  0.0641
83681W        W26775  20.139  34.571  24.225  0.2231 -0.0148 -0.1283
83682W        W26776  20.801   2.783  24.312  0.1811  0.0388  0.0995
83683W        W26777  20.973  33.535  26.568  0.0000 -0.4164 -0.1352
83684W        W26778  20.274  33.847  26.769  0.0166 -0.0857 -0.1502
83685W        W26779  19.267   2.875  23.646  0.0878 -0.1925 -0.0119
83686W        W26780  18.158   1.308  22.334  0.1157  0.1893 -0.1146
83687W        W26781  18.768   1.725  25.975  0.0385  0.0528 -0.2300
83688W        W26782  18.554   0.618  25.138 -0.0132  0.0849  0.0261
83689W        W26783  20.551  34.298  25.172  0.1047  0.0058 -0.1935
83690W        W26784  20.672   0.179  26.574  0.1020  0.1202 -0.1250
83691W        W26785  18.440   3.164  23.778  0.0514  0.0576  0.1469
83692W        W26786  20.376   2.549  24.143 -0.1129 -0.2966 -0.0863
83693W        W26787  20.623   1.360  26.839 -0.0291 -0.1934 -0.1745
83694W        W26788  17.789   1.727  25.669  0.0396  0.1853  0.0870
83695W        W26789  18.240   4.458  23.724  0.0206 -0.0924 -0.1119
83696W        W26790  17.738   3.197  24.179 -0.2646 -0.4794 -0.0030
83697W        W26791  20.069   0.946  25.044 -0.2188  0.0925  0.1979
83698W        W26792  20.668   4.319  27.329 -0.0404  0.1649  0.1460
83699W        W26793  19.877   4.935  28.335 -0.0719 -0.1519  0.3106
83700W        W26794  17.741   3.424  24.989  0.0139  0.2677  0.2185
83701W        W26795  19.814   4.142  26.735 -0.0363 -0.1910 -0.0647
83702W        W26796  18.675   3.028  25.786  0.1149 -0.1301  0.3106
83703W        W26797  19.736   2.184  25.139  0.0226  0.0695  0.1158
83704W        W26798  19.860   1.636  25.083  0.0352  0.0417  0.2228
83705W        W26799  19.007   3.266  23.993  0.0448 -0.1127  0.1178
83706W        W26800  20.302   2.960  24.426  0.0081  0.3367  0.3796
83707W        W26801  19.056   1.666  27.912 -0.2943  0.0373 -0.0047
83708W        W26802  17.690   2.972  25.029 -0.2523  0.1880  0.2029
83709W        W26803  21.584   2.390  28.626 -0.0103  0.1067 -0.2589
83710W        W26804  17.782   2.461  25.149 -0.1412  0.2161 -0.0374
83711W        W26805  19.745   1.151  24.183  0.1115 -0.3692 -0.0999
83712W        W26806  20.359   0.885  24.553 -0.4854 -0.2485  0.0228
83713W        W26807  20.813   1.403  25.002 -0.1735 -0.1456  0.1256
83714W        W26808  20.336  33.631  26.262  0.2490 -0.2903 -0.1577
83715W        W26809  19.313   3.472  25.824 -0.2382  0.1048 -0.2549
83716W        W26810  18.994   0.778  25.849  0.2836 -0.0014  0.1081
83717W        W26811  21.341   3.647  25.851  0.0141 -0.3788 -0.1941
83718W        W26812  18.967   2.286  24.012  0.2896  0.0010  0.5838
83719W        W26813  19.801   0.690  26.461  0.1324  0.2184  0.0418
83720W        W26814  18.851   2.716  27.479  0.0904  0.2155  0.0735
83721W        W26815  18.359   0.192  24.874  0.1560  0.1946 -0.0205
83722W        W26816  20.552   3.213  23.449  0.0032  0.1596  0.3830
83723W        W26817  21.293   3.879  23.948 -0.0312 -0.1346 -0.3659
83724W        W26818  21.227   2.152  23.285  0.0125 -0.3702  0.0527
83725W        W26819  18.871   3.131  23.538  0.0815 -0.0535 -0.0276
83726W        W26820  17.907   3.323  27.141  0.1055  0.3841  0.2217
83727W        W26821  18.687   1.404  27.131 -0.2787 -0.0592  0.1781
83728W        W26822  20.651   0.630  23.855 -0.1438 -0.1978 -0.1458
83729W        W26823  21.726   2.820  26.416  0.0097 -0.0395  0.3973
83730W        W26824  18.068   3.012  26.763  0.0594 -0.0067  0.0890
83731W        W26825  21.733   1.189  26.645 -0.0629 -0.0088 -0.1264
83732W        W26826  19.282   1.950  24.905 -0.0547  0.4956 -0.1906
83733W        W26827  20.116   1.959  25.383 -0.0645 -0.1188 -0.1148
83734W        W26828  21.102   1.927  22.851  0.1693  0.2139 -0.1722
83735W        W26829  20.214  34.547  26.617  0.1047  0.0101  0.2904
83736W        W26830  19.975   1.635  25.779  0.0961  0.1629 -0.0254
83737W        W26831  19.281   1.749  21.977 -0.2836 -0.1177 -0.2477
83738W        W26832  19.304   1.276  23.266 -0.0440  0.0119 -0.0582
83739W        W26833  22.281   3.208  26.821  0.0800 -0.0136  0.0825
83740W        W26834  20.998   1.370  25.525 -0.1015 -0.0739 -0.3324
83741W        W26835  18.067   2.205  25.512 -0.3793 -0.0167  0.0737
83742W        W26836  21.934   0.175  26.171 -0.0071 -0.1177 -0.0751
83743W        W26837  19.984   3.262  24.767  0.0994 -0.0704  0.3478
83744W        W26838  18.655   3.571  24.442  0.2990 -0.1671 -0.2113
83745W        W26839  18.195   2.951  25.086  0.1782 -0.2780 -0.1086
83746W        W26840  16.678   1.719  24.070 -0.0894 -0.0698  0.1830
83747W        W26841  18.041   1.838  25.218  0.1554 -0.2602  0.1280
83748W        W26842  20.652   3.331  25.255  0.1237 -0.1511  0.0699
83749W        W26843  21.653   0.741  26.355 -0.0404 -0.2671  0.0052
83750W        W26844  19.863   0.101  26.267  0.1291  0.0935  0.0125
83751W        W26845  22.844  34.636  26.475 -0.1086  0.1594 -0.1410
83752W        W26846  17.615   2.471  23.464 -0.1560 -0.0313 -0.4938
83753W        W26847  21.937   3.470  24.378  0.2459 -0.2535  0.1236
83754W        W26848  21.457   1.062  24.384  0.0037  0.0177  0.2636
83755W        W26849  22.724   1.825  23.161  0.0673  0.0883 -0.1497
83756W        W26850  18.688   2.522  25.957  0.3086  0.1370  0.2697
83757W        W26851  19.477   1.747  25.375 -0.1578 -0.2245  0.0323
83758W        W26852  19.158  34.626  26.400  0.0478 -0.1292 -0.2292
83759W        W26853  17.949   0.855  25.269  0.0919  0.1164 -0.2018
83760W        W26854  21.080   2.098  26.324  0.1100 -0.0335 -0.1002
83761W        W26855  19.669   0.928  23.389 -0.0995 -0.0092  0.0695
83762W        W26856  20.598  34.560  23.293 -0.0547  0.1740  0.0012
83763W        W26857  18.819   1.452  23.447  0.1598  0.1604 -0.1801
83764W        W26858  17.530   3.297  23.126  0.0937 -0.1199  0.1137
83765W        W26859  21.512   1.249  26.107 -0.0819  0.1588 -0.0942
83766W        W26860  19.222   2.724  24.302 -0.2688  0.3102 -0.3700
83767W        W26861  21.859   3.495  26.684  0.2348 -0.1766 -0.3723
83768W        W26862  20.822   4.070  24.553  0.1277 -0.0836  0.1156
83769W        W26863  20.426   0.346  27.010  0.0159  0.1555 -0.2036
83770W        W26864  19.427   1.359  22.623 -0.1513 -0.0327  0.3739
83771W        W26865  18.641   3.088  24.259 -0.2352  0.5179  0.1582
83772W        W26866  20.858   4.594  26.245 -0.0113 -0.0969 -0.0147
83773W        W26867  19.435   0.692  24.357 -0.0096 -0.3816 -0.0178
83774W        W26868  20.322   4.495  24.298 -0.1458  0.0849 -0.0522
83775W        W26869  18.384   0.863  24.126 -0.0635  0.1431  0.0171
83776W        W26870  19.368   2.864  25.558 -0.2248 -0.0030 -0.1324
83777W        W26871  20.962   1.014  27.035 -0.0261 -0.1444  0.0236
83778W        W26872  22.196   2.719  26.631  0.2232  0.0856  0.1417
83779W        W26873  20.331   0.251  25.178  0.1971 -0.1745  0.3441
83780W        W26874  18.248   0.373  22.367 -0.1971 -0.1930 -0.2219
83781W        W26875  20.464   3.601  24.762  0.2426  0.0034  0.3421
83782W        W26876  19.853   3.936  22.812 -0.0543 -0.3619  0.4841
83783W        W26877  18.341   0.392  23.880  0.2042 -0.1592 -0.0713
83784W        W26878  19.839   3.801  24.379 -0.2107 -0.3495 -0.0871
83785W        W26879  19.731  33.960  26.237  0.1233 -0.0380  0.0964
83786W        W26880  19.050   3.261  25.435 -0.1959  0.2045 -0.4146
83787W        W26881  20.864   1.659  25.950 -0.0899  0.0475 -0.0977
83788W        W26882  18.370   1.217  23.213  0.3762 -0.2156  0.3021
83789W        W26883  19.563   2.275  26.114 -0.2688  0.0049 -0.1812
83790W        W26884  19.879  34.168  24.580 -0.2833  0.2961 -0.1240
83791W        W26885  20.379  34.236  23.642 -0.2341  0.0139  0.1851
83792W        W26886  20.040   1.279  27.912  0.0797  0.1543 -0.0544
83793W        W26887  22.494   0.509  25.142  0.3553  0.2330 -0.0715
83794W        W26888  20.680   2.421  23.144 -0.1077  0.1271  0.1607
83795W        W26889  20.596  33.758  23.624 -0.2985 -0.1681 -0.0303
83796W        W26890  17.633   2.736  26.809 -0.1892 -0.2161 -0.3029
83797W        W26891  19.740   1.681  23.974  0.0954  0.1956 -0.1350
83798W        W26892  20.197   2.378  25.063  0.0777 -0.1042 -0.2225
83799W        W26893  21.549   0.748  25.005 -0.0478  0.0879 -0.1149
83800W        W26894  20.807   2.957  25.980  0.3799 -0.4318  0.0355
83801W        W26895  18.511   2.013  26.362  0.0357  0.1837  0.2733
83802W        W26896  20.967   2.193  27.163 -0.1139 -0.0362  0.0564
83803W        W26897  21.148   3.312  24.011  0.0774 -0.0248 -0.0360
83804W        W26898  20.268   1.651  26.642 -0.2304 -0.1585 -0.4545
83805W        W26899  20.083   1.461  22.231  0.1624 -0.1642 -0.2408
83806W        W26900  20.629   0.975  26.515 -0.1420  0.0071 -0.1517
83807W        W26901  17.967   2.905  22.533  0.0757 -0.2877 -0.0382
83808W        W26902  21.563   1.752  26.633  0.0619  0.1866 -0.0387
83809W        W26903  20.348   2.357  24.611 -0.1649  0.1332  0.1991
83810W        W26904  19.982   1.150  26.928 -0.0682  0.0872 -0.1053
83811W        W26905  20.783   2.153  25.794  0.1777 -0.0493  0.0856
83812W        W26906  21.566   0.329  24.669 -0.1733  0.0725  0.0852
83813W        W26907  19.596   0.625  25.735 -0.2547 -0.0442  0.1944
83814W        W26908  18.487   2.675  23.532  0.2339  0.0958 -0.0349
83815W        W26909  19.839   1.663  26.884  0.2876 -0.0014 -0.0360
83816W        W26910  19.131   1.996  25.729  0.1081  0.3364  0.0706
83817W        W26911  17.990   4.972  25.676 -0.1236 -0.1702  0.0900
83818W        W26912  21.797   3.761  26.193  0.4036 -0.0506 -0.2340
83819W        W26913  19.421   3.446  24.812  0.0130 -0.0825 -0.0545
83820W        W26914  18.800   0.844  26.282  0.1789  0.0351  0.0646
83821W        W26915  19.649   1.084  24.719  0.0364  0.1388 -0.2285
83822W        W26916  19.208   2.647  23.087 -0.1258  0.0704  0.1382
83823W        W26917  18.003   2.492  23.807 -0.4114 -0.0443 -0.3446
83824W        W26918  20.115  33.895  25.010  0.2687  0.1213 -0.0118
83825W        W26919  20.309   2.029  25.869 -0.0753 -0.0044 -0.1417
83826W        W26920  19.789   2.384  22.622 -0.1064  0.0923 -0.0001
83827W        W26921  18.993   1.250  26.594  0.3219  0.1576 -0.2280
83828W        W26922  19.019   3.785  25.531 -0.0190  0.2095 -0.0790
83829W        W26923  22.145   0.614  26.225  0.0927 -0.1985 -0.3570
83830W        W26924  16.716   4.248  25.218 -0.1744 -0.2562  0.1684
83831W        W26925  20.086   0.151  23.235 -0.1696 -0.1336 -0.0692
83832W        W26926  18.715  34.447  23.268 -0.1377  0.3439  0.1103
83833W        W26927  19.560   0.846  25.221  0.0158 -0.0733 -0.2163
83834W        W26928  20.541   1.023  25.211 -0.1337 -0.0335 -0.0022
83835W        W26929  18.830   2.537  26.493  0.0344 -0.0493  0.2347
83836W        W26930  19.862  34.347  25.059  0.1215 -0.2299  0.1822
83837W        W26931  17.903   2.742  26.346 -0.1382  0.4308  0.0095
83838W        W26932  20.637   0.667  24.847 -0.1647 -0.2034  0.3639
83839W        W26933  20.696  34.131  24.040 -0.2558 -0.0018 -0.1298
83840W        W26934  19.229   1.631  26.277 -0.0112 -0.1207  0.0286
83841W        W26935  18.438   2.616  25.544 -0.0025  0.0156 -0.0101
83842W        W26936  19.099   1.912  23.108 -0.1137 -0.0424 -0.2703
83843W        W26937  20.487   0.867  27.006  0.0043 -0.0228  0.1168
83844W        W26938  18.915   0.791  24.098 -0.3428  0.2498  0.0538
83845W        W26939  17.948   2.435  22.733 -0.0476 -0.1133 -0.0152
83846W        W26940  21.096   3.595  24.619  0.0647  0.4664 -0.0429
83847W        W26941  18.858   1.568  22.906 -0.0533 -0.0922  0.3539
83848W        W26942  17.753   2.087  23.054  0.0653 -0.1525  0.0779
83849W        W26943  21.059   0.611  26.543  0.3061  0.3920  0.1139
83850W        W26944  20.716   2.371  26.772  0.2178  0.0571 -0.2211
83851W        W26945  19.296  34.674  24.635 -0.0109  0.1360 -0.1751
83852W        W26946  19.756   0.242  24.443 -0.1513  0.0612  0.0432
83853W        W26947  19.960   1.964  26.207  0.1134  0.1317  0.0087
83854W        W26948  20.343   1.821  24.943  0.1674 -0.0135  0.0380
83855W        W26949  20.503   2.017  26.368  0.0611  0.0193  0.0789
83856W        W26950  19.884   3.839  27.140  0.0651 -0.1331  0.1060
83857W        W26951  19.346  34.029  24.703  0.0698 -0.4536 -0.0865
83858W        W26952  22.844   3.475  23.575  0.0767 -0.2712  0.0007
83859W        W26953  20.449   2.759  24.892  0.1056  0.0697 -0.0061
83860W        W26954  18.601   1.943  24.265 -0.1371 -0.4664  0.0593
83861W        W26955  18.410   1.387  24.312  0.0110  0.1470  0.1210
83862W        W26956  19.661   2.068  23.685  0.1733  0.0201  0.2099
83863W        W26957  19.997   0.067  25.604 -0.1725 -0.3360 -0.2717
83864W        W26958  18.081   2.863  24.168  0.1827 -0.5545  0.1804
83865W        W26959  17.561   2.663  22.355 -0.0811 -0.1508  0.2243
83866W        W26960  18.127   3.273  26.328  0.1497  0.0085 -0.0723
83867W        W26961  21.591   0.525  23.690 -0.0461  0.0718  0.2226
83868W        W26962  19.918   2.761  22.994  0.0513 -0.1029  0.1823
83869W        W26963  19.518   0.492  24.863 -0.1655 -0.1130  0.1727
83870W        W26964  21.420   0.779  26.855 -0.0292  0.1296  0.0836
83871W        W26965  21.239   2.953  24.542 -0.0200  0.3489  0.1689
83872W        W26966  20.258   1.533  27.189 -0.0293 -0.1295  0.1304
83873W        W26967  19.377   0.610  26.129 -0.1029 -0.1883  0.2372
83874W        W26968  21.637   2.528  25.683 -0.0179 -0.2380 -0.1995
83875W        W26969  19.414  34.591  27.020  0.0877 -0.1869 -0.2166
83876W        W26970  20.306   3.924  27.369  0.3113  0.0884  0.0125
83877W        W26971  18.935   2.223  27.780  0.0434  0.1268 -0.2699
83878W        W26972  19.069   1.759  24.060  0.2267  0.1678  0.2614
83879W        W26973  19.898   0.746  24.396 -0.0352 -0.0500  0.0849
83880W        W26974  18.758   1.245  26.020  0.0802 -0.3303 -0.1363
83881W        W26975  20.576   1.711  25.495 -0.0930 -0.2443  0.0209
83882W        W26976  18.778   1.575  24.575 -0.2329  0.0067  0.0785
83883W        W26977  21.437   1.513  25.171 -0.3599 -0.0670 -0.2953
83884W        W26978  18.475   1.663  24.984 -0.0951 -0.0213  0.2989
83885W        W26979  21.259   0.580  25.478 -0.2524  0.0468 -0.1126
83886W        W26980  20.031   2.064  22.895 -0.1582  0.0351 -0.2444
83887W        W26981  18.233   2.248  25.029  0.1149 -0.0761 -0.0753
83888W        W26982  19.479  34.539  25.570 -0.0339 -0.0796  0.0414
83889W        W26983  20.994   2.622  25.685 -0.2998 -0.2321  0.0452
83890W        W26984  19.997  34.383  25.980 -0.0418  0.2348  0.1687
83891W        W26985  20.489   0.466  25.640  0.3832 -0.1553  0.1463
83892W        W26986  20.599   2.490  26.063 -0.0734  0.0056  0.2600
83893W        W26987  19.252   1.109  26.101 -0.2860 -0.0906 -0.3120
83894W        W26988  17.401   0.015  26.368  0.1218 -0.0366  0.2859
83895W        W26989  21.600   3.287  24.748  0.0453 -0.2090 -0.0944
83896W        W26990  20.135   0.377  24.057 -0.0164 -0.3765  0.2155
83897W        W26991  21.849   1.821  27.895  0.0429  0.0520 -0.2255
83898W        W26992  21.569   0.434  25.948  0.2405 -0.2369 -0.0616
83899W        W26993  19.393   1.062  25.656 -0.0322  0.0146  0.5073
83900W        W26994  19.162   1.175  24.383  0.0980 -0.1313  0.1506
83901W        W26995  19.796   1.062  26.002  0.0581  0.2614  0.2936
83902W        W26996  19.240   0.259  24.236  0.1753  0.3492  0.3029
83903W        W26997  19.406   1.507  25.841 -0.1559  0.3191  0.1240
83904W        W26998  20.194   1.480  23.781 -0.2921  0.1209  0.0207
83905W        W26999  19.429   2.478  23.925 -0.0684  0.0706 -0.0484
83906W        W27000  21.161   2.114  24.349 -0.2548 -0.2072  0.0006
83907W        W27001  19.164   0.975  24.858 -0.0704  0.0743  0.1613
83908W        W27002  17.632   4.458  27.531 -0.2532 -0.0689 -0.0224
83909W        W27003  18.727   0.594  23.243 -0.1688 -0.0699 -0.1228
83910W        W27004  19.843   1.287  23.064  0.0103 -0.1045  0.1067
83911W        W27005  20.822   3.506  26.055  0.1653  0.2818 -0.1388
83912W        W27006  20.626   2.889  25.447  0.1805  0.1904 -0.1227
83913W        W27007  21.024   0.843  23.512 -0.0478  0.1264  0.0597
83914W        W27008  21.510   1.228  27.139 -0.0665 -0.2542 -0.3051
83915W        W27009  18.342   1.523  22.760 -0.0503 -0.2378  0.2527
83916W        W27010  21.101  33.254  23.589  0.3754 -0.2662 -0.2104
83917W        W27011  19.472   3.093  24.144 -0.4512  0.0417  0.0842
83918W        W27012  16.187   1.116  24.439  0.0179  0.0995  0.1310
83919W        W27013  17.816   2.851  25.487  0.3253 -0.1085  0.2783
83920W        W27014  20.018   0.678  27.005 -0.1066 -0.0989  0.0317
83921W        W27015  20.231   1.421  25.253  0.1572  0.3329  0.0700
83922W        W27016  19.820   2.378  24.233 -0.0084  0.0242 -0.0513
83923W        W27017  21.282   2.037  25.825  0.1337 -0.0426  0.1992
83924W        W27018  19.712   2.426  26.627  0.0097  0.1181  0.2637
83925W        W27019  19.948   2.022  24.647  0.0346  0.0427 -0.0707
83926W        W27020  19.023   2.770  27.037 -0.2024 -0.1044 -0.1966
83927W        W27021  20.685   1.566  23.887  0.0164  0.2659 -0.0004
83928W        W27022  19.615   3.157  25.228  0.0093  0.1039 -0.2007
83929W        W27023  18.429   1.759  26.790  0.2461 -0.3540 -0.0236
83930W        W27024  20.396   1.595  26.129 -0.1133 -0.1608  0.0421
83931W        W27025  18.963   1.763  25.230 -0.1847 -0.0730  0.1651
83932W        W27026  19.885  34.297  23.750  0.1701  0.0523 -0.1757
83933W        W27027  18.772   2.495  24.426  0.0475  0.2028 -0.0208
83934W        W27028  18.469   3.917  28.049  0.0067 -0.0051  0.0208
83935W        W27029  18.305   3.562  25.923  0.0807 -0.0990 -0.1668
83936W        W27030  19.274   3.566  24.333  0.0490  0.1253  0.3998
83937W        W27031  21.313   2.373  23.787  0.2369  0.2283 -0.1060
83938W        W27032  19.986   3.632  23.898  0.0007  0.0310  0.2168
83939W        W27033  20.382   3.358  25.688 -0.2426  0.1438 -0.1441
83940W        W27034  20.268   0.998  24.041 -0.1210  0.2119 -0.0733
83941W        W27035  19.927   2.810  23.997 -0.0799 -0.0829 -0.2153
83942W        W27036  17.603   2.738  23.035 -0.1105 -0.0458  0.2642
83943W        W27037  21.069   1.263  23.736 -0.0705  0.1369  0.0596
83944W        W27038  18.663   3.896  25.248  0.1985  0.0388 -0.0674
83945W        W27039  20.951   3.271  25.625  0.0700 -0.1688 -0.1978
83946W        W27040  21.775   0.465  23.199  0.2905  0.2520  0.2117
83947W        W27041  21.964   2.198  25.519 -0.2768 -0.1623  0.0082
83948W        W27042  21.042   0.968  25.165  0.2691  0.2009  0.0618
83949W        W27043  21.568   3.202  25.665  0.0208 -0.0592 -0.0158
83950W        W27044  18.829   1.317  25.052  0.2289  0.2126 -0.2404
83951W        W27045  19.845   0.445  23.587 -0.3226 -0.2223 -0.3386
83952W        W27046  19.874   1.472  26.333  0.1759  0.3478 -0.0696
83953W        W27047  22.008   2.001  26.799  0.0285 -0.3914  0.2756
83954W        W27048  18.352   3.128  28.830 -0.0329 -0.2557  0.0436
83955W        W27049  20.879   2.882  23.316 -0.0523 -0.0777  0.0294
83956W        W27050  18.907  33.968  22.901 -0.2571 -0.0271 -0.1312
83957W        W27051  18.479   2.359  23.931 -0.2103  0.0406  0.2489
83958W        W27052  23.639   1.038  27.605 -0.2071 -0.0309  0.2594
83959W        W27053  18.079   1.616  23.203 -0.0082 -0.0562 -0.0475
83960W        W27054  19.975   0.550  25.379 -0.2062  0.4846  0.1123
83961W        W27055  19.494   3.817  23.915 -0.1746 -0.1459 -0.0123
83962W        W27056  17.959   1.360  25.340  0.1490  0.2731  0.0974
83963W        W27057  20.403   3.857  26.037  0.0395  0.1847  0.0449
83964W        W27058  19.352   0.364  23.676  0.1366  0.0303 -0.3134
83965W        W27059  22.971   0.622  26.469  0.0296  0.1817 -0.1432
83966W        W27060  18.213   1.927  24.626 -0.1183 -0.0937  0.0836
83967W        W27061  22.247  34.690  26.745  0.2735 -0.0636 -0.1322
83968W        W27062  17.762   2.506  25.923  0.2366 -0.3129  0.0667
83969W        W27063  20.398  33.577  24.611 -0.0503 -0.1129 -0.3651
83970W        W27064  20.139   1.983  24.154 -0.0307  0.0842  0.0955
83971W        W27065  18.387   0.849  25.762 -0.0335 -0.1952 -0.4023
83972W        W27066  21.554   2.032  22.910 -0.0453 -0.1044  0.1288
83973W        W27067  19.484   2.631  25.018 -0.0075  0.0392 -0.1559
83974W        W27068  21.737   2.805  24.450  0.0183  0.4893 -0.0588
83975W        W27069  21.742   4.646  25.659  0.0742  0.1603  0.2900
83976W        W27070  18.181   0.339  24.377  0.1849 -0.0590 -0.0122
83977W        W27071  19.992   0.509  24.824 -0.1139  0.0393 -0.0800
83978W        W27072  17.688   1.016  24.028  0.1023  0.1024 -0.3531
83979W        W27073  19.121   2.964  25.026  0.2181  0.1839 -0.3071
83980W        W27074  21.131   3.408  25.126  0.1705  0.1329  0.0012
83981W        W27075  20.627   0.136  23.769  0.1223 -0.1754 -0.2611
83982W        W27076  20.787   3.688  24.030 -0.2665  0.0551  0.1437
83983W        W27077  20.109   0.987  25.583 -0.2507  0.0255 -0.2237
83984W        W27078  20.841   4.651  22.863 -0.0830  0.2780 -0.1156
83985W        W27079  19.979   1.797  23.296 -0.0870 -0.2439  0.3118
83986W        W27080  21.244   1.482  24.708 -0.1660 -0.0620 -0.0815
83987W        W27081  18.400   1.858  25.602 -0.0755  0.1110 -0.0566
83988W        W27082  21.183   3.696  26.338  0.1419  0.1458  0.0771
83989W        W27083  20.913   3.081  26.531 -0.1856 -0.1661  0.3206
83990W        W27084  20.876  33.599  23.988  0.1731  0.3074 -0.0154
83991W        W27085  18.621   2.715  25.081 -0.1528 -0.2102 -0.0014
83992W        W27086  17.492   3.062  24.590 -0.1188 -0.4125 -0.0635
83993W        W27087  22.950   2.033  26.259  0.1092  0.1726  0.1177
83994W        W27088  21.158   1.169  26.591 -0.2807 -0.1032 -0.0498
83995W        W27089  19.728   2.640  23.511  0.1656  0.1808 -0.2045
83996W        W27090  21.337   0.195  27.003  0.0813 -0.0956 -0.2395
83997W        W27091  20.065   2.933  25.256 -0.1179 -0.0404 -0.0143
83998W        W27092  18.789   3.508  25.864  0.0920 -0.2532 -0.0692
83999W        W27093  17.864   1.185  23.355  0.0775 -0.3241 -0.2881
84000W        W27094  19.542   2.934  27.445 -0.2545 -0.1331 -0.4977
84001W        W27095  18.996   2.442  24.834 -0.0560 -0.2530 -0.1474
84002W        W27096  19.643   3.335  23.658 -0.1583 -0.0007 -0.1151
84003W        W27097  20.164   2.364  23.268  0.2475  0.0872  0.3066
84004W        W27098  18.919   1.406  25.542  0.0665  0.1909  0.1001
84005W        W27099  20.858   2.982  23.800 -0.3634  0.4013 -0.0068
84006W        W27100  18.683   0.035  25.271 -0.0063  0.1387 -0.1725
84007W        W27101  21.084   0.234  26.195 -0.2671  0.1832 -0.1066
84008W        W27102  20.093  33.749  23.702  0.1766  0.0391  0.2075
84009W        W27103  18.621   2.210  26.862 -0.1103  0.1357 -0.1962
84010W        W27104  18.234   0.792  23.631  0.1747  0.1580 -0.0564
84011W        W27105  18.423   1.670  23.871  0.0076 -0.2750 -0.1271
84012W        W27106  17.475   2.435  24.375  0.0025  0.2001 -0.1436
84013W        W27107  19.739   1.364  25.457 -0.0073  0.1273 -0.0971
84014W        W27108  18.578   1.016  27.370  0.0180 -0.0469 -0.0409
84015W        W27109  18.355   2.772  24.564 -0.3619  0.0442  0.0435
84016W        W27110  19.453   0.853  23.872  0.1199  0.1720 -0.0986
84017W        W27111  21.637   2.321  24.272  0.1147  0.0594 -0.1630
84018W        W27112  19.705   0.085  23.966  0.0020  0.2230 -0.0241
84019W        W27113  18.991   0.580  24.564 -0.0124  0.0309 -0.1870
84020W        W27114  19.848   1.566  24.580  0.3937 -0.0405 -0.0977
84021W        W27115  21.333   2.671  23.329 -0.0346  0.0179 -0.0359
84022W        W27116  20.840   0.359  24.351 -0.0306  0.3387 -0.1059
84023W        W27117  20.685   2.236  25.330 -0.2333  0.0109 -0.1630
84024W        W27118  16.395   1.105  22.101 -0.0776 -0.1017  0.3556
84025W        W27119  20.061   0.596  25.936 -0.0094  0.1249 -0.0746
84026W        W27120  20.368   0.075  26.085 -0.0957  0.0143 -0.1511
84027W        W27121  18.208  34.589  23.079 -0.1770  0.1349  0.1279
84028W        W27122  19.332   1.627  24.444  0.3018  0.0286 -0.1535
84029W        W27123  20.107   3.762  23.174 -0.2101 -0.0017  0.1954
84030W        W27124  20.813   3.231  22.795  0.0557 -0.0227 -0.1487
84031W        W27125  19.483   2.294  24.604  0.0902 -0.1591 -0.1551
84032W        W27126  20.249   2.913  25.951  0.1369 -0.2522  0.0821
84033W        W27127  18.261   1.016  24.754  0.0441 -0.1577  0.0397
84034W        W27128  20.845   0.922  24.211 -0.0872 -0.2356 -0.0014
84035W        W27129  19.205   2.490  25.889  0.0413 -0.0152  0.0122
84036W        W27130  22.317   3.051  24.335 -0.1694  0.0233 -0.0026
84037W        W27131  21.832   0.066  27.061  0.1145  0.0953  0.0269
84038W        W27132  18.764   1.969  23.588  0.0997 -0.0177 -0.4490
84039W        W27133  20.270   0.582  26.574  0.2864 -0.3220 -0.1521
84040W        W27134  19.946   3.716  27.614  0.2244  0.1158 -0.1350
84041W        W27135  20.915   2.668  25.092 -0.1680 -0.0609  0.1131
84042W        W27136  20.164   0.016  23.726 -0.0304  0.2710  0.1218
84043W        W27137  19.824   0.127  25.078  0.1078  0.1060  0.0513
84044W        W27138  20.071   2.351  23.809  0.1975  0.3539 -0.0024
84045W        W27139  19.071   2.085  24.457  0.1572 -0.1593 -0.0033
84046W        W27140  18.800   2.332  23.241  0.1398  0.3868 -0.0273
84047W        W27141  19.030   2.082  26.230  0.1753 -0.0855 -0.0233
84048W        W27142  21.301   3.035  23.622  0.0473  0.1707 -0.2293
84049W        W27143  21.586   3.036  27.416  0.2468 -0.1619 -0.0356
84050W        W27144  20.965   1.057  24.677 -0.1952  0.1394 -0.2563
84051W        W27145  21.400   2.012  24.885 -0.0845 -0.1390 -0.0449
84052W        W27146  20.810   4.476  26.839 -0.0992 -0.3394 -0.1076
84053W        W27147  20.647   4.029  26.894  0.0026  0.0488 -0.4211
84054W        W27148  19.192   3.478  26.852 -0.0010 -0.2641 -0.1487
84055W        W27149  21.240   2.311  25.379  0.1902 -0.0840  0.0806
84056W        W27150  19.290   0.384  25.436 -0.4134 -0.0757  0.2701
84057W        W27151  18.803   2.806  23.905 -0.1426 -0.0909  0.0605
84058W        W27152  18.060   0.845  22.520  0.0475  0.0031 -0.2305
84059W        W27153  20.573   1.286  25.778 -0.1993  0.1470  0.2119
84060W        W27154  20.213  34.067  24.128  0.0371 -0.2879  0.0827
84061W        W27155  22.665  34.662  25.065 -0.2772 -0.4258  0.0272
84062W        W27156  20.461   4.208  26.456 -0.2050  0.0688  0.1372
84063W        W27157  20.090   2.463  26.161  0.1953 -0.0994 -0.1650
84064W        W27158  20.176   2.064  29.564 -0.1803 -0.0221  0.0776
84065W        W27159  19.792   1.914  29.209 -0.0109  0.0280  0.1969
84066W        W27160  21.379   1.620  28.048  0.1839  0.2467 -0.3111
84067W        W27161  22.328   1.432  27.984 -0.0963 -0.2776  0.1687
84068W        W27162  17.197   0.416  29.070  0.0029 -0.2485 -0.1874
84069W        W27163  21.929   2.605  28.232 -0.2565  0.0499 -0.1999
84070W        W27164  20.623  34.564  30.913 -0.3075 -0.1527  0.3726
84071W        W27165  20.397   3.634  27.742 -0.0292 -0.3496  0.1182
84072W        W27166  20.676   2.591  28.796  0.1252 -0.0141  0.0095
84073W        W27167  20.402   1.597  27.672  0.1880 -0.0618  0.0164
84074W        W27168  19.154   2.667  28.817 -0.0137  0.2130 -0.2422
84075W        W27169  20.415   3.307  28.675 -0.1096 -0.0859 -0.0867
84076W        W27170  19.549   0.339  27.266 -0.0188  0.0744 -0.0071
84077W        W27171  17.208  33.727  29.448  0.2287  0.1744 -0.0037
84078W        W27172  21.796   2.038  28.885  0.0432 -0.1549 -0.1155
84079W        W27173  19.391   3.809  27.391  0.1883  0.1066  0.0853
84080W        W27174  18.465   2.069  29.862  0.0054 -0.0191  0.0483
84081W        W27175  19.440   1.899  29.656 -0.0288  0.0712 -0.1135
84082W        W27176  21.546   3.335  26.149 -0.1779  0.0910  0.3211
84083W        W27177  20.243  34.212  30.717  0.2114 -0.3624 -0.1688
84084W        W27178  20.285  34.296  31.214 -0.1707  0.0849  0.2821
84085W        W27179  19.652   3.610  26.707  0.1913 -0.5901 -0.2043
84086W        W27180  17.871   1.457  27.484 -0.1130 -0.0183  0.0304
84087W        W27181  18.044  34.668  30.676 -0.0991  0.0792  0.1432
84088W        W27182  20.075   2.754  29.332 -0.0095  0.1461  0.1609
84089W        W27183  22.146   0.794  29.226  0.0576  0.2613 -0.2642
84090W        W27184  22.092   2.425  28.702 -0.3072 -0.0612 -0.0340
84091W        W27185  20.636   3.026  27.936  0.0888  0.3192 -0.3952
84092W        W27186  21.552   3.471  28.336 -0.0947 -0.1020 -0.0493
84093W        W27187  20.926   0.228  30.674  0.0897 -0.1128  0.2401
84094W        W27188  17.785   1.335  30.250 -0.1102 -0.2153  0.3178
84095W        W27189  17.818   4.274  29.898  0.3259 -0.2833 -0.1979
84096W        W27190  19.625   3.347  28.143  0.0014  0.1235 -0.3091
84097W        W27191  22.546   4.203  28.519 -0.5098 -0.0857 -0.3271
84098W        W27192  20.658   3.118  29.783 -0.1220 -0.0305  0.1192
84099W        W27193  19.185   2.467  30.599  0.1132  0.1468 -0.0790
84100W        W27194  18.913   2.238  28.656  0.0498  0.0380  0.1582
84101W        W27195  20.623   3.869  30.919  0.3271  0.0170  0.0728
84102W        W27196  20.357   3.456   0.285  0.1941  0.2859  0.1395
84103W        W27197  19.262   0.761  29.461 -0.0908  0.0950 -0.3041
84104W        W27198  19.193   1.840  28.508 -0.0952 -0.1760  0.2989
84105W        W27199  20.716   3.562  27.180 -0.0123 -0.0007 -0.0157
84106W        W27200  20.246   3.413  27.316  0.0014 -0.2400  0.1733
84107W        W27201  19.435   2.991  29.922 -0.3242 -0.0518  0.1552
84108W        W27202  19.691   3.024  29.524 -0.0382 -0.0712 -0.2894
84109W        W27203  19.478  34.468  31.563  0.5082  0.0460  0.1979
84110W        W27204  18.345   3.832  29.566  0.1366 -0.2403 -0.1087
84111W        W27205  20.505   0.037  27.376 -0.1672  0.0173  0.1478
84112W        W27206  19.094   0.266  27.174  0.2807  0.2983  0.3039
84113W        W27207  20.891   1.614  26.481 -0.0812 -0.0346 -0.0435
84114W        W27208  19.724  33.407  28.770 -0.1114 -0.0439  0.0716
84115W        W27209  20.532   3.494  28.206  0.1790 -0.0023 -0.1216
84116W        W27210  20.020   0.564  30.021  0.1281  0.2605 -0.0436
84117W        W27211  21.351   2.687  30.248 -0.3830 -0.2045  0.1975
84118W        W27212  20.107  34.570  27.751  0.2439  0.0432  0.0254
84119W        W27213  21.324   2.213  29.046  0.0074 -0.1055 -0.2469
84120W        W27214  20.734   2.632  29.352 -0.0905 -0.4445 -0.2282
84121W        W27215  19.039   1.166  29.636  0.1406  0.4553 -0.1957
84122W        W27216  20.365   3.390  26.315  0.0472 -0.1940 -0.1278
84123W        W27217  21.059   3.548  30.632 -0.5048 -0.0763 -0.0488
84124W        W27218  19.940   3.206  27.658  0.2385  0.0658 -0.2701
84125W        W27219  18.938   0.364  28.659  0.0691 -0.1672 -0.2533
84126W        W27220  19.252   1.489  30.940 -0.0064  0.0045  0.2314
84127W        W27221  18.962   0.719  30.863  0.2457 -0.0470 -0.0777
84128W        W27222  20.243   1.018  27.417  0.2268 -0.3886  0.0249
84129W        W27223  22.442   3.103  31.553 -0.1008  0.1299  0.2241
84130W        W27224  19.187   2.379  31.130 -0.1788 -0.1662  0.1225
84131W        W27225  20.853   1.153  29.859  0.0552  0.2586 -0.0581
84132W        W27226  18.913   1.462  30.508  0.0693 -0.2806  0.0635
84133W        W27227  22.011   1.742  29.274 -0.0223 -0.2025  0.4258
84134W        W27228  20.893   1.728  27.393  0.2905  0.0557  0.1628
84135W        W27229  21.633   1.080  30.742  0.0163 -0.1708  0.1790
84136W        W27230  19.517   0.041  30.294 -0.0795  0.1745  0.1712
84137W        W27231  18.951   1.942  27.135  0.1000  0.0090  0.4276
84138W        W27232  19.634   2.892  28.032 -0.3655 -0.0280  0.0806
84139W        W27233  22.022   3.467  30.572 -0.1250  0.0802 -0.2444
84140W        W27234  20.870   2.789  26.995 -0.1242  0.0406  0.0485
84141W        W27235  19.876   1.716  29.820  0.0006  0.2338 -0.0496
84142W        W27236  20.341   1.803  31.053 -0.0485 -0.0221 -0.5229
84143W        W27237  20.638   2.368  31.748 -0.2724 -0.1300  0.2237
84144W        W27238  19.150   3.004  27.894  0.2582 -0.0412  0.1398
84145W        W27239  18.953   2.073  29.663 -0.2822 -0.0713  0.1213
84146W        W27240  18.238   2.173  27.999  0.1505 -0.3048 -0.1443
84147W        W27241  19.084  34.008  30.626 -0.4313  0.1483 -0.0326
84148W        W27242  18.986   2.924  29.825  0.1602  0.0780 -0.1113
84149W        W27243  21.481   1.746  27.571  0.2472 -0.0185  0.1970
84150W        W27244  21.023   2.269  30.128  0.3531  0.2078 -0.0130
84151W        W27245  20.808  34.181  29.553  0.2043 -0.2658 -0.3548
84152W        W27246  18.742   3.140  29.193  0.2456 -0.1030 -0.1201
84153W        W27247  22.726   5.063  29.249  0.1249  0.2115 -0.2679
84154W        W27248  20.028   2.589  28.331  0.0513 -0.3069 -0.2258
84155W        W27249  20.770   2.585  27.584 -0.2346 -0.2028  0.0519
84156W        W27250  18.334   1.424  30.391  0.1989  0.2430 -0.0186
84157W        W27251  19.260   1.159  29.202 -0.2100 -0.0230  0.0944
84158W        W27252  18.666  34.445  31.010  0.1867  0.1662 -0.0943
84159W        W27253  18.564   0.868  29.736 -0.0163  0.1345 -0.0981
84160W        W27254  21.539   1.399  29.865  0.1236  0.1815 -0.3133
84161W        W27255  18.947  34.320  28.076 -0.0517  0.0926 -0.1822
84162W        W27256  21.438   1.086  27.951 -0.1702  0.2439  0.0097
84163W        W27257  19.255   2.271  27.372 -0.0756  0.0616  0.0548
84164W        W27258  17.414   2.095  27.780  0.0077 -0.2709 -0.1641
84165W        W27259  20.264   0.632  30.835  0.2084  0.0620  0.3012
84166W        W27260  21.130   3.553  27.425 -0.1008  0.1520  0.0059
84167W        W27261  21.859   3.685  30.996  0.0914  0.2701  0.1426
84168W        W27262  20.963   3.469  28.936 -0.0274  0.1075  0.2033
84169W        W27263  18.762   0.350  30.345 -0.1801 -0.0847  0.0238
84170W        W27264  19.324   1.665  26.905  0.1175 -0.0716 -0.0181
84171W        W27265  18.778   2.487  30.026  0.3507  0.1669  0.0390
84172W        W27266  20.349   2.279  29.098 -0.0362  0.1862 -0.1043
84173W        W27267  19.641   0.554  28.105 -0.1075 -0.2139  0.1559
84174W        W27268  20.836   3.861  29.346  0.1626 -0.1247 -0.2522
84175W        W27269  19.530   3.069  26.761 -0.1223  0.0443 -0.0910
84176W        W27270  18.734   1.232  30.094  0.0548 -0.1357 -0.1586
84177W        W27271  21.202  34.480  30.834 -0.3820  0.1239  0.5578
84178W        W27272  22.464   1.481  28.747 -0.0827  0.0356  0.1051
84179W        W27273  21.463   3.204  28.748 -0.1749 -0.0071  0.3406
84180W        W27274  19.324  33.566  27.425 -0.0829 -0.2061  0.3707
84181W        W27275  22.060   3.407  28.709  0.2150  0.2127  0.0708
84182W        W27276  19.998   2.731  27.777 -0.1259 -0.0823 -0.0456
84183W        W27277  18.726   1.649  29.793 -0.3285  0.1298  0.1071
84184W        W27278  19.076   3.324  28.272  0.3187  0.2121 -0.0542
84185W        W27279  21.394   0.094  29.297 -0.2384  0.3056 -0.0819
84186W        W27280  17.730   1.238  31.553 -0.2744 -0.0044  0.0291
84187W        W27281  21.005   1.588  29.552 -0.0232  0.3869  0.1183
84188W        W27282  18.264   1.832  27.224  0.0397  0.1171  0.5704
84189W        W27283  18.762   2.212  30.690 -0.2397  0.0250  0.0968
84190W        W27284  20.475   1.468  28.143 -0.2551  0.0765 -0.1579
84191W        W27285  20.494   1.985  28.073  0.0820 -0.2472  0.1237
84192W        W27286  20.996   3.093  29.293 -0.0829 -0.2038 -0.0256
84193W        W27287  20.490   2.756  26.409 -0.0844  0.2981  0.0612
84194W        W27288  20.706   1.860  26.903  0.3392  0.2328  0.2205
84195W        W27289  19.930   0.037  27.312 -0.0003  0.0094 -0.0984
84196W        W27290  19.481   2.691  31.833  0.0916 -0.2122 -0.1164
84197W        W27291  22.025   3.238  28.258 -0.1519  0.0386 -0.1235
84198W        W27292  19.926   3.308  28.601  0.1717  0.0931 -0.0619
84199W        W27293  19.559   1.103  27.680  0.0702 -0.2651 -0.0272
84200W        W27294  21.926   3.392  27.354  0.3251 -0.0745 -0.0433
84201W        W27295  19.192   1.970  30.611  0.1276 -0.5023 -0.0734
84202W        W27296  19.708   0.776  31.613 -0.0122 -0.2175 -0.4112
84203W        W27297  22.585   3.105  29.241  0.0443 -0.2796 -0.1231
84204W        W27298  20.009   1.489  29.352 -0.0421  0.0106 -0.4048
84205W        W27299  18.904   0.397  26.520  0.2351 -0.2715  0.1085
84206W        W27300  21.676   1.297  29.215 -0.2176  0.0898  0.2494
84207W        W27301  18.380   3.007  27.305  0.2287  0.1985 -0.1867
84208W        W27302  20.390   1.279  29.966 -0.0006 -0.1869  0.1321
84209W        W27303  21.003   0.196  31.198 -0.2426 -0.2658  0.0657
84210W        W27304  20.192   0.802  28.024  0.1741 -0.1564  0.1918
84211W        W27305  22.106   1.516  30.474  0.1741  0.0245 -0.0716
84212W        W27306  19.953   1.557  28.854  0.0313  0.3814 -0.2463
84213W        W27307  22.192   1.875  29.719  0.0841 -0.1175 -0.0478
84214W        W27308  19.581   1.917  26.563  0.0057 -0.3133 -0.1137
84215W        W27309  20.534   0.703  29.865  0.0971 -0.0978  0.0175
84216W        W27310  18.066   0.946  30.368  0.2296 -0.2066 -0.2108
84217W        W27311  18.726   3.148  31.021 -0.0561 -0.1118 -0.0864
84218W        W27312  21.656   3.154  30.374  0.2294  0.1586  0.1404
84219W        W27313  21.304   2.745  29.454  0.0183  0.0298  0.0780
84220W        W27314  20.132   0.038  30.857 -0.0666 -0.1648 -0.3056
84221W        W27315  19.754   0.637  27.591  0.0254  0.1552 -0.2488
84222W        W27316  20.583   4.149  28.699  0.0235 -0.1147  0.2296
84223W        W27317  19.899   2.863  26.466  0.0155  0.0511  0.1082
84224W        W27318  19.649   2.900  28.995  0.1530  0.2962  0.1461
84225W        W27319  21.392   1.927  28.546 -0.1208  0.0133 -0.1436
84226W        W27320  18.538   3.313  28.186 -0.2136  0.2521  0.0275
84227W        W27321  20.922   2.942  31.535 -0.0102  0.1573 -0.3476
84228W        W27322  18.480   3.583  29.119 -0.2427 -0.1767  0.1649
84229W        W27323  21.480  33.559  31.218  0.3026 -0.0238 -0.3053
84230W        W27324  20.091   3.062  28.200  0.1212 -0.0265  0.2545
84231W        W27325  19.627   2.090  27.049 -0.0764 -0.0904 -0.0088
84232W        W27326  18.632   1.892  28.188  0.0875  0.3591  0.0416
84233W        W27327  22.466   1.146  28.375  0.2900  0.2280  0.0992
84234W        W27328  21.414   3.279  26.590  0.0539  0.2785 -0.2281
84235W        W27329  18.955  34.624  29.493 -0.0142  0.0318  0.0397
84236W        W27330  20.765   1.172  28.628 -0.2004  0.3796  0.0255
84237W        W27331  17.812   2.424  31.177  0.2532  0.0108 -0.1104
84238W        W27332  20.412   2.535  30.188  0.2537  0.1013 -0.2922
84239W        W27333  20.610   2.126  27.617  0.4341  0.2091  0.0256
84240W        W27334  20.446   1.994  30.011  0.0953  0.3446  0.3746
84241W        W27335  21.018   3.234  30.174 -0.0425  0.1668 -0.2069
84242W        W27336  18.182   1.359  27.054 -0.2599 -0.0229  0.0355
84243W        W27337  20.972   2.692  29.808  0.0801  0.1438 -0.1072
84244W        W27338  19.831   2.357  29.061  0.1779 -0.0622 -0.0435
84245W        W27339  17.839   3.398  29.653 -0.0817  0.3258 -0.1497
84246W        W27340  20.003   3.303  29.775  0.0621 -0.0319  0.1620
84247W        W27341  18.228   2.583  27.642 -0.3429  0.0560 -0.2895
84248W        W27342  17.685   2.506  29.005 -0.1989 -0.2391  0.0511
84249W        W27343  19.819  34.466  31.184 -0.2800 -0.2265 -0.0198
84250W        W27344  21.460   2.408  29.819  0.1097 -0.0601 -0.0480
84251W        W27345  19.898   0.054  28.387  0.1835 -0.2187  0.0178
84252W        W27346  18.957   0.881  28.859  0.1059  0.0747  0.2907
84253W        W27347  20.432   1.575  29.571 -0.2250 -0.2808 -0.3426
84254W        W27348  21.141   3.447  29.626 -0.0519 -0.0337  0.2759
84255W        W27349  21.463   1.780  29.234 -0.0335 -0.1767 -0.1101
84256W        W27350  20.365   3.649  30.042 -0.1411 -0.0533  0.1418
84257W        W27351  20.511   0.479  29.046  0.1145 -0.2944  0.2741
84258W        W27352  21.767   4.409  26.619 -0.1021 -0.0766 -0.1096
84259W        W27353  20.795   1.611  28.996 -0.0945 -0.3214 -0.1101
84260W        W27354  20.769   3.554  26.662 -0.0913 -0.1600  0.0749
84261W        W27355  17.706   3.452  30.147 -0.0682  0.2266 -0.1728
84262W        W27356  19.545   2.667  28.543  0.0373  0.0028 -0.0224
84263W        W27357  20.843  34.445  30.479  0.0136 -0.0540 -0.1337
84264W        W27358  21.347   3.021  29.852 -0.3953  0.0018  0.1211
84265W        W27359  18.831   3.705  27.354 -0.1444 -0.2900  0.1117
84266W        W27360  18.141   1.918  30.473  0.0709 -0.2059  0.2951
84267W        W27361  20.670   0.738  28.268  0.0069  0.1007  0.1853
84268W        W27362  21.305   1.649  26.203 -0.2689 -0.4019 -0.1158
84269W        W27363  19.409   2.300  29.350  0.0246 -0.1310  0.0365
84270W        W27364  21.448   0.428  30.157  0.2280 -0.1179  0.1604
84271W        W27365  21.464   2.082  27.177 -0.2936  0.3167  0.0077
84272W        W27366  20.225   0.819   0.684  0.2803 -0.0263 -0.0675
84273W        W27367  18.564   0.172  29.867 -0.1931 -0.1895  0.0354
84274W        W27368  21.449   2.847  28.383  0.1773 -0.0921  0.1644
84275W        W27369  18.255   0.471  30.475 -0.1903 -0.0356 -0.0957
84276W        W27370  20.233   3.927  30.627  0.1080  0.0472  0.1192
84277W        W27371  18.785   1.195  30.909  0.1190  0.0471  0.2119
84278W        W27372  19.499   1.401  29.670  0.0413 -0.4936  0.1038
84279W        W27373  19.252   0.724  27.344 -0.2649 -0.0555  0.0464
84280W        W27374  21.711   2.663  29.035 -0.1320  0.2597 -0.1850
84281W        W27375  20.167   2.249  27.845  0.1189  0.1345 -0.1740
84282W        W27376  19.681   2.047  25.715  0.0042 -0.1452 -0.2165
84283W        W27377  21.111   2.678  28.982 -0.2022 -0.1383 -0.0461
84284W        W27378  19.236   0.944  30.523 -0.0427 -0.2532 -0.2353
84285W        W27379  20.307   1.276  29.068 -0.0389 -0.0054  0.0768
84286W        W27380  20.013   1.965  27.315 -0.0916 -0.2202 -0.0353
84287W        W27381  19.264   2.321  28.242 -0.1686 -0.2155 -0.1166
84288W        W27382  18.668   0.455  31.722 -0.0010 -0.0331  0.0421
84289W        W27383  20.851   3.676  29.949  0.3132 -0.2873 -0.0468
84290W        W27384  20.549   1.118  27.779  0.3529  0.2531 -0.2857
84291W        W27385  20.726   1.640  30.040  0.0025  0.2501  0.1199
84292W        W27386  20.909   1.175  28.110 -0.4225 -0.1152  0.0700
84293W        W27387  20.689   1.295  30.385  0.1790 -0.0236  0.0227
84294W        W27388  20.179   1.027  30.453  0.2862  0.2659  0.4456
84295W        W27389  20.964   4.407  30.185 -0.1885 -0.0534  0.2851
84296W        W27390  21.160   2.191  27.604 -0.0248  0.2473  0.2249
84297W        W27391  19.959   0.285  30.440  0.2486 -0.0893  0.0459
84298W        W27392  22.077   1.527  27.535  0.1702 -0.0090  0.1101
84299W        W27393  20.920   1.638  28.443  0.2865 -0.0985 -0.2129
84300W        W27394  18.976   0.754  30.041 -0.0127  0.1808  0.0181
84301W        W27395  22.269   3.393  31.086 -0.2230  0.3649  0.2360
84302W        W27396  19.541   0.775  26.939 -0.2123  0.2601 -0.1141
84303W        W27397  21.897   0.534  30.440 -0.0405  0.1297  0.1631
84304W        W27398  18.590   4.189  27.287 -0.2585  0.3894 -0.0422
84305W        W27399  20.792   3.933  27.557 -0.0300 -0.1666 -0.1514
84306W        W27400  19.477   1.264  27.076  0.0983 -0.0915 -0.0466
84307W        W27401  18.509   0.385  29.311  0.0310 -0.0434  0.2295
84308W        W27402  19.998   2.262  30.086  0.3636 -0.0159 -0.3866
84309W        W27403  17.989   0.264  26.419 -0.1107  0.0016 -0.0215
84310W        W27404  19.854   2.710  25.609 -0.2416 -0.2324 -0.2453
84311W        W27405  20.509   2.625  30.714  0.2447  0.3874 -0.4159
84312W        W27406  21.933   2.337  29.878 -0.1144  0.2328 -0.1966
84313W        W27407  20.764  33.738  27.018  0.0156 -0.0697 -0.2066
84314W        W27408  23.201   2.446  28.850  0.1382  0.2524  0.3325
84315W        W27409  18.023   1.954  29.084  0.1741 -0.0299  0.3298
84316W        W27410  20.380   0.158  29.929  0.1501  0.2202  0.0088
84317W        W27411  19.442   3.151  28.575  0.1186 -0.1844  0.0704
84318W        W27412  18.971   2.800  31.411  0.0244 -0.2063  0.1828
84319W        W27413  20.609   2.878  28.417  0.0656 -0.0796 -0.2480
84320W        W27414  19.952  33.515  30.710 -0.0259 -0.0358 -0.0451
84321W        W27415  22.019   1.488  29.967  0.2769 -0.1309  0.0273
84322W        W27416  21.031   2.540  28.410  0.1244 -0.0479 -0.0157
84323W        W27417  21.527   1.564  30.395 -0.0618  0.0316  0.1244
84324W        W27418  20.449   4.072  29.578  0.0111 -0.1117  0.1520
84325W        W27419  19.669   2.116  28.425 -0.3004  0.0576 -0.0382
84326W        W27420  20.102   4.003  29.213  0.0316 -0.0513  0.1041
84327W        W27421  22.173   2.202  27.981 -0.1077  0.1951 -0.0131
84328W        W27422  18.276   3.544  30.033 -0.1163 -0.1474 -0.3160
84329W        W27423  18.938   0.296  31.188  0.4846 -0.0295 -0.1157
84330W        W27424  19.854   1.330  30.259 -0.2368  0.0394  0.1205
84331W        W27425  20.831   2.105  29.201 -0.2276 -0.1433 -0.1817
84332W        W27426  21.574   0.888  28.870  0.1306  0.2108 -0.1392
84333W        W27427  20.215   4.603  28.078 -0.0977  0.0262  0.0642
84334W        W27428  19.347   1.511   1.185  0.3247  0.3708  0.2730
84335W        W27429  18.609   0.976  30.495 -0.1274  0.0699 -0.0493
84336W        W27430  19.422   3.394  27.686  0.1249  0.0203  0.0828
84337W        W27431  20.888   1.679  27.957  0.0277  0.1479  0.0161
84338W        W27432  21.811   2.975  26.916  0.2650 -0.3936  0.1859
84339W        W27433  20.466   3.561  29.559 -0.0357 -0.0266 -0.1417
84340W        W27434  19.902   1.827  27.920  0.1426 -0.1120  0.2380
84341W        W27435  19.800   3.917  28.491  0.2327  0.1789 -0.1055
84342W        W27436  18.268   3.528  26.771  0.0462  0.0832  0.2280
84343W        W27437  20.869   3.700  28.530  0.0745 -0.0750  0.3103
84344W        W27438  17.128   3.445  28.187 -0.2400  0.1596 -0.2322
84345W        W27439  20.204   2.781  31.678 -0.1223  0.1262  0.1964
84346W        W27440  20.949   1.192  26.170 -0.0335  0.2746  0.1166
84347W        W27441  22.050   3.711  28.090  0.1293  0.0907  0.3931
84348W        W27442  22.339   0.380  27.063  0.3763  0.1024 -0.0821
84349W        W27443  20.109   4.610  30.256  0.0908  0.0127 -0.4025
84350W        W27444  19.834   1.701  30.858 -0.1424  0.0653 -0.3351
84351W        W27445  19.930   0.261  26.781  0.0493  0.3348  0.0444
84352W        W27446  19.270   3.112  31.654  0.0816 -0.3500 -0.1945
84353W        W27447  22.365  33.324  31.235  0.0291 -0.1011  0.1736
84354W        W27448  17.525   4.506   0.220  0.2736 -0.1434  0.2548
84355W        W27449  20.894   3.120  27.419  0.4493 -0.0623  0.1682
84356W        W27450  19.031   1.031  27.060  0.2119  0.1344 -0.3048
84357W        W27451  19.573   1.499  28.000 -0.3579 -0.3047  0.3509
84358W        W27452  22.293  34.621  29.130  0.1047 -0.1216 -0.3771
84359W        W27453  19.062   4.577  26.588  0.1491  0.1637  0.0105
84360W        W27454  20.242   2.524  29.723  0.0241 -0.1179  0.1486
84361W        W27455  20.162   2.705  28.857 -0.1701  0.1676  0.0813
84362W        W27456  18.628   3.375  29.689  0.0300 -0.0082 -0.1121
84363W        W27457  19.089   3.390  30.032  0.1044 -0.0420  0.0886
84364W        W27458  17.784  34.231  27.203 -0.2068  0.1602  0.2174
84365W        W27459  20.039   2.053  28.773  0.3153 -0.1393  0.0752
84366W        W27460  19.675   1.441  31.250 -0.0709  0.1918  0.1317
84367W        W27461  21.121   0.571  31.506 -0.0314 -0.0757 -0.1237
84368W        W27462  19.191   1.599  30.090 -0.0408 -0.1213 -0.3577
84369W        W27463  20.936   2.190  28.054 -0.3340  0.4041  0.2401
84370W        W27464  19.753   2.374  29.683  0.2005 -0.0267 -0.3924
84371W        W27465  19.424   0.506  29.939 -0.1954 -0.1686 -0.1400
84372W        W27466  20.230   2.254  26.649  0.1168  0.0097  0.3259
84373W        W27467  22.203   2.366  29.236  0.2768  0.0372  0.0158
84374W        W27468  19.545   1.168  26.574 -0.2569 -0.1197 -0.4250
84375W        W27469  20.151   4.427  30.723 -0.2676 -0.0767 -0.3057
84376W        W27470  18.460  34.432  29.922  0.2345 -0.0346  0.1153
84377W        W27471  21.454   0.581  27.857 -0.4562 -0.1679  0.0281
84378W        W27472  18.298   0.912  29.147  0.1290 -0.2694  0.0489
84379W        W27473  20.766   1.121  29.218  0.0708 -0.1369  0.2234
84380W        W27474  21.975   3.639  31.449  0.0903 -0.0230 -0.0701
84381W        W27475  19.151   0.805  27.909  0.1116  0.1467 -0.1464
84382W        W27476  21.752   2.378  27.741  0.0405  0.1507  0.2511
84383W        W27477  21.871   1.351  28.131  0.0882  0.0126 -0.1545
84384W        W27478  19.040   4.621  28.460 -0.1559 -0.0903 -0.1970
84385W        W27479  23.315   1.413  28.835 -0.3517  0.0233 -0.0242
84386W        W27480  21.729   3.387  27.846 -0.1758 -0.0537  0.1472
84387W        W27481  17.805   0.416  30.310 -0.1734  0.0279  0.0161
84388W        W27482  20.998   3.038  28.689 -0.0131 -0.2239  0.0418
84389W        W27483  21.924   4.051  28.819 -0.0647  0.1792  0.0141
84390W        W27484  19.504   1.538  29.050 -0.1432 -0.0817  0.0671
84391W        W27485  19.698   0.800  30.377 -0.0351 -0.0253  0.2357
84392W        W27486  18.063   3.099  30.026 -0.0064 -0.0720  0.0249
84393W        W27487  21.778   1.570  30.889 -0.1668  0.0986 -0.0664
84394W        W27488  19.500   1.519  30.533  0.0834  0.1003 -0.4086
84395W        W27489  19.536   3.787  26.212 -0.1901  0.1024  0.0129
84396W        W27490  20.548  34.513  31.598  0.1133 -0.2285  0.2459
84397W        W27491  18.838   2.643  30.887  0.3754 -0.0926 -0.0520
84398W        W27492  19.249   2.503  29.764 -0.0935 -0.2416 -0.1426
84399W        W27493  20.320   2.335  27.235  0.3151 -0.3705 -0.2446
84400W        W27494  21.258   2.956  30.667 -0.0097 -0.1272 -0.1563
84401W        W27495  19.627   1.430  28.519  0.1044 -0.1220  0.0052
84402W        W27496  21.042   4.007  28.904 -0.1796 -0.0242  0.0594
84403W        W27497  20.252   3.746  28.607  0.0004 -0.2181  0.1199
84404W        W27498  20.517   2.574  28.035 -0.4159  0.0182 -0.4475
84405W        W27499  21.886   4.256  28.049 -0.1256  0.1870 -0.2045
84406W        W27500  18.764   0.849  29.295 -0.1105  0.1158  0.2181
84407W        W27501  22.074   1.035  28.757 -0.1476 -0.3364 -0.2482
84408W        W27502  20.447   0.405  28.570 -0.3156  0.3856 -0.0871
84409W        W27503  20.690   2.231  29.648  0.1243  0.0075  0.0855
84410W        W27504  17.327   2.543  28.055 -0.2123  0.0106 -0.0617
84411W        W27505  18.767   2.213  25.426  0.0621  0.1137 -0.1516
84412W        W27506  19.390   2.210  28.819  0.1213 -0.0456  0.0631
84413W        W27507  18.750  33.122  29.946 -0.0702 -0.1533  0.0681
84414W        W27508  18.244   1.177  30.832 -0.3035  0.1819 -0.2300
84415W        W27509  17.670   0.177  30.944 -0.0626  0.2013  0.1672
84416W        W27510  18.812   1.509  28.471 -0.3218  0.2045  0.3622
84417W        W27511  20.387   2.935  27.503 -0.3488 -0.1673  0.0187
84418W        W27512  19.429   0.872  28.622 -0.1082  0.0862 -0.0164
84419W        W27513  18.890   0.924  28.365 -0.1900 -0.4175  0.1498
84420W        W27514  22.494   1.806  29.168 -0.1451  0.0626 -0.1789
84421W        W27515  20.295   3.654  26.882  0.0310 -0.2735 -0.2871
84422W        W27516  20.360   0.884  28.727  0.1282  0.0087  0.0156
84423W        W27517  21.338   3.564  30.181 -0.0179 -0.1114 -0.0804
84424W        W27518  17.058   2.136  28.346 -0.1066  0.1654 -0.3884
84425W        W27519  19.447   0.122  31.192  0.0196  0.2678  0.3013
84426W        W27520  20.249   1.009  31.852  0.0352 -0.1369  0.0832
84427W        W27521  19.512   1.827  27.433 -0.1712 -0.0632 -0.0661
84428W        W27522  19.921   1.055  29.857  0.3537 -0.2468  0.1266
84429W        W27523  21.494   3.296  29.214  0.0166 -0.1772 -0.0552
84430W        W27524  21.253   4.142  27.436 -0.2642  0.0033  0.0591
84431W        W27525  20.027   2.516  30.532 -0.2710 -0.1304 -0.1055
84432W        W27526  19.189   3.264  31.044 -0.0646 -0.2717 -0.2304
84433W        W27527  19.478   0.015  28.953  0.1927 -0.0651  0.0662
84434W        W27528  22.409   2.885  28.440  0.3212  0.2748 -0.1921
84435W        W27529  20.901   2.787   0.472 -0.0617  0.0427  0.0348
84436W        W27530  22.460   2.659  27.994 -0.1706 -0.2117  0.1660
84437W        W27531  21.570   0.882  29.935  0.0768  0.2204  0.0185
84438W        W27532  20.364   2.302  28.512 -0.0053 -0.2466  0.0954
84439W        W27533  18.779  34.026   0.118 -0.2045  0.1391  0.0305
84440W        W27534  18.648   1.838  30.308  0.0378 -0.2966  0.0089
84441W        W27535  22.452   2.664  29.497 -0.1287  0.0580  0.4037
84442W        W27536  20.200   0.392  27.512 -0.0601 -0.2184 -0.2141
84443W        W27537  19.105   1.867  29.040  0.0162 -0.1298 -0.0043
84444W        W27538  19.942   3.010  27.126  0.0922 -0.2797 -0.1769
84445W        W27539  18.287   2.276  29.364  0.1037 -0.0017 -0.0053
84446W        W27540  20.153   0.310  28.023 -0.0958 -0.0896 -0.0284
84447W        W27541  21.862   2.509  30.550 -0.0614 -0.1056  0.0503
84448W        W27542  19.101   2.772  29.344 -0.0127  0.0038  0.1960
84449W        W27543  20.662   0.726  30.498 -0.1236  0.0652  0.0149
84450W        W27544  19.037   0.411  29.147 -0.1758 -0.1507 -0.1947
84451W        W27545  22.686   2.710  27.011  0.1699 -0.0979  0.3804
84452W        W27546  21.332   4.877  31.487  0.0083  0.1245 -0.0460
84453W        W27547  23.125   4.134  30.483 -0.2046  0.0078  0.1088
84454W        W27548  19.170   3.274  29.516  0.2897  0.1137  0.3775
84455W        W27549  21.701   2.208  29.405  0.0729  0.0485  0.1268
84456W        W27550  19.134  34.561  28.554 -0.1309  0.2360 -0.0979
84457W        W27551  20.822   3.473  27.838 -0.1398 -0.1264  0.2340
84458W        W27552  19.343   2.555  27.767  0.0568 -0.1402  0.1092
84459W        W27553  22.424   2.369  30.738 -0.2572  0.1064 -0.1170
84460W        W27554  20.318   1.808  29.125  0.1347 -0.0947 -0.3257
84461W        W27555  20.440   1.565  28.673  0.4064  0.3515 -0.1708
84462W        W27556  18.763   3.995  29.348  0.4040  0.0387 -0.3699
84463W        W27557  20.066   1.742  28.352 -0.2813 -0.1812  0.0264
84464W        W27558  23.163   0.786  30.406  0.0428  0.0051 -0.1192
84465W        W27559  20.371   1.700  30.486 -0.4959  0.0191 -0.0329
84466W        W27560  18.140   0.949   0.128 -0.0951 -0.4949 -0.0390
84467W        W27561  19.715   3.847  30.460  0.2673  0.0107  0.2391
84468W        W27562  19.935   2.768  29.990  0.2073 -0.2369 -0.1786
84469W        W27563  18.673   1.578  31.896 -0.5010  0.0594  0.0397
84470W        W27564  21.184   2.119  29.555 -0.2136  0.0122 -0.1099
84471W        W27565  18.550   1.768   0.494 -0.2599 -0.1653  0.0342
84472W        W27566  21.084   2.006  31.225  0.0519 -0.1612 -0.0165
84473W        W27567  20.284   3.041  30.177  0.1691 -0.1462 -0.3201
84474W        W27568  20.345   3.454  30.576 -0.0418 -0.3345 -0.0360
84475W        W27569  18.505  34.255  31.723  0.0979  0.2119  0.0247
84476W        W27570  22.106   2.139  31.445  0.1159 -0.0476 -0.1049
84477W        W27571  19.352   1.118  30.058 -0.0086  0.1730 -0.2845
84478W        W27572  21.014   1.054  31.493  0.0870  0.0101  0.1058
84479W        W27573  18.699   2.926   0.364  0.4519  0.1664  0.2795
84480W        W27574  18.186   1.415  31.238 -0.1413 -0.0624  0.0097
84481W        W27575  22.561   2.360  31.261  0.1967  0.2970 -0.1382
84482W        W27576  19.341  34.149  31.912 -0.1017 -0.0103  0.1252
84483W        W27577  19.211   0.681  31.821 -0.1342  0.1428  0.0176
84484W        W27578  18.627  33.736   0.536 -0.1900  0.0605 -0.0359
84485W        W27579  16.689   3.489  31.802 -0.2100  0.0897  0.1120
84486W        W27580  21.158   0.808  30.775  0.0630 -0.0866  0.0382
84487W        W27581  19.677   1.105  30.849  0.0929  0.2876  0.2768
84488W        W27582  20.509   1.042  31.294 -0.2486 -0.0769 -0.1290
84489W        W27583  19.879   1.293  31.678 -0.2823 -0.4045 -0.1328
84490W        W27584  19.986   1.771  31.404 -0.1419  0.1462  0.0982
84491W        W27585  15.594   3.014   0.549 -0.1712 -0.1357  0.2551
84492W        W27586  18.778   0.710   0.168 -0.3875 -0.2352 -0.3971
84493W        W27587  20.655   2.216  30.480  0.0449 -0.0732  0.1898
84494W        W27588  20.624   3.341  31.380  0.0074  0.0253 -0.1089
84495W        W27589  18.506   0.446  31.260 -0.1129 -0.1267 -0.2201
84496W        W27590  20.752   0.864   0.186  0.2239 -0.2767  0.1364
84497W        W27591  20.568   1.228  30.848 -0.4947  0.2051 -0.1268
84498W        W27592  17.732  33.941  31.342  0.1771  0.0710  0.2691
84499W        W27593  19.483   1.080   0.115 -0.0998  0.2737  0.2046
84500W        W27594  20.766   2.347   0.288 -0.1906  0.1909 -0.1709
84501W        W27595  21.077   1.877  30.451  0.1389  0.0365  0.4621
84502W        W27596  21.273   1.837  29.953 -0.2390  0.0353  0.2639
84503W        W27597  20.744   1.703  30.806  0.0122 -0.1414 -0.0998
84504W        W27598  21.510   0.701  31.096 -0.3717  0.0806  0.0618
84505W        W27599  21.328   2.441  31.931 -0.0320  0.0427  0.1778
84506W        W27600  19.529   0.271  31.738  0.0096  0.1817 -0.0258
84507W        W27601  20.192   2.986  30.625  0.3440 -0.1022 -0.1763
84508W        W27602  19.104   1.351  31.886  0.0281 -0.0167  0.2368
84509W        W27603  19.502   1.993  30.148 -0.2059 -0.1176  0.2164
84510W        W27604  19.350   1.144  31.472 -0.1258  0.1582 -0.0991
84511W        W27605  20.420   1.530  31.476 -0.5786 -0.0688  0.1072
84512W        W27606  21.692   4.942  31.907 -0.0968  0.0606 -0.3026
84513W        W27607  19.638   2.184  30.592  0.3187  0.1928 -0.1967
84514W        W27608  21.080   3.253  31.062 -0.1818  0.0988  0.2059
84515W        W27609  21.696   0.138  31.488  0.0163 -0.0797  0.0536
84516W        W27610  21.136   1.416  30.826  0.1144 -0.1896  0.2117
84517W        W27611  20.876   2.706  30.350 -0.1080 -0.0467 -0.1231
84518W        W27612  20.731   1.859   0.041  0.0588  0.1247  0.2893
84519W        W27613  20.463   0.089  30.491 -0.0058  0.1267 -0.3885
84520W        W27614  20.749   3.124  30.683 -0.0244  0.1139 -0.2582
84521W        W27615  20.154   3.349  31.614  0.1686 -0.1058 -0.1013
84522W        W27616  21.162   2.381  30.577 -0.4102 -0.0041 -0.0366
84523W        W27617  18.387   2.041  31.863  0.0323 -0.1251  0.2674
84524W        W27618  17.356   2.285  31.122  0.2610 -0.1883 -0.1209
84525W        W27619  18.839   2.148  31.453 -0.1514  0.0948  0.0273
84526W        W27620  20.213   2.099  30.706 -0.3973  0.3650 -0.0323
84527W        W27621  16.779  33.079   1.325 -0.1257 -0.0314 -0.1097
84528W        W27622  22.905   4.511  30.722 -0.0314 -0.5396  0.4244
84529W        W27623  21.412   2.427  31.028  0.1880  0.0625  0.1742
84530W        W27624  20.606   2.083   1.134 -0.0110 -0.0840 -0.2124
84531W        W27625  18.046   5.651  18.411  0.0417  0.2635  0.1214
84532W        W27626  18.807   6.427  16.588  0.1999 -0.2487 -0.0961
84533W        W27627  22.077   4.611  16.230  0.1003  0.2956  0.1421
84534W        W27628  21.250   6.412  17.432 -0.0535 -0.0865  0.0031
84535W        W27629  17.993   3.767  16.872  0.2082 -0.1344 -0.0522
84536W        W27630  19.684   5.854  16.661 -0.4447  0.1181  0.0630
84537W        W27631  19.199   3.752  20.181 -0.2955 -0.1490  0.2397
84538W        W27632  19.974   6.587  17.566  0.3472  0.4202  0.0830
84539W        W27633  22.157   5.271  19.341 -0.0870  0.1172 -0.0221
84540W        W27634  19.626   4.812  15.717  0.0867  0.1107 -0.2715
84541W        W27635  18.480   5.454  18.046  0.0165  0.2667  0.0017
84542W        W27636  19.428   7.207  19.349  0.1473  0.2108 -0.0379
84543W        W27637  19.026   3.346  17.653  0.1428  0.1584 -0.2041
84544W        W27638  18.139   3.031  17.791 -0.1230  0.2712  0.0622
84545W        W27639  21.895   5.111  16.992 -0.0159  0.2787  0.2427
84546W        W27640  18.015   5.546  17.855  0.0222 -0.0105 -0.1024
84547W        W27641  18.392   4.274  19.578  0.0197 -0.1722  0.2131
84548W        W27642  18.277   4.103  17.559 -0.1978  0.0734  0.1392
84549W        W27643  20.135   5.235  17.175  0.2013  0.4332 -0.1121
84550W        W27644  21.001   4.770  18.651 -0.0663 -0.2580 -0.0075
84551W        W27645  20.581   3.989  18.540 -0.0988  0.2063  0.1745
84552W        W27646  19.524   5.459  17.105  0.2432 -0.0690  0.2165
84553W        W27647  17.390   2.741  16.569 -0.0237  0.1084 -0.1283
84554W        W27648  19.698   4.278  19.022 -0.2035  0.2134  0.2813
84555W        W27649  17.948   6.175  18.424 -0.4750 -0.4080 -0.0926
84556W        W27650  21.239   4.297  17.259 -0.2597  0.0686  0.2287
84557W        W27651  21.296   5.770  17.753  0.2239 -0.0754  0.1365
84558W        W27652  19.278   7.270  17.506  0.1303  0.2248  0.0540
84559W        W27653  19.318   6.127  18.426 -0.0163  0.2416 -0.0713
84560W        W27654  20.086   5.440  18.958 -0.1216 -0.2609  0.1015
84561W        W27655  18.633   7.170  18.208  0.0179 -0.0875 -0.2640
84562W        W27656  18.112   6.351  17.107  0.2909 -0.0561  0.0541
84563W        W27657  19.604   5.688  19.113  0.1689  0.0173  0.3302
84564W        W27658  20.436   6.582  16.838  0.0680 -0.1459  0.0957
84565W        W27659  21.485   7.229  18.334 -0.0855  0.2517  0.0702
84566W        W27660  19.082   7.177  20.599 -0.2659 -0.0118 -0.2327
84567W        W27661  19.523   6.814  17.388  0.0397  0.0900 -0.2005
84568W        W27662  18.850   7.253  18.800  0.4704  0.0423 -0.0246
84569W        W27663  19.777   6.844  20.241 -0.0388  0.1634  0.2034
84570W        W27664  18.517   4.809  17.442 -0.1231  0.3633 -0.2210
84571W        W27665  20.277   6.028  17.699 -0.2225 -0.2472  0.0253
84572W        W27666  19.723   4.638  17.171  0.1228 -0.0705  0.1616
84573W        W27667  19.433   6.168  19.425 -0.0776  0.1024  0.1584
84574W        W27668  20.935   5.345  20.706 -0.2057  0.3842 -0.1869
84575W        W27669  18.333   7.146  17.268  0.1486 -0.0762  0.3120
84576W        W27670  22.259   3.737  21.110  0.2100  0.1644 -0.1942
84577W        W27671  17.729   5.828  16.547 -0.2741 -0.1041  0.0587
84578W        W27672  20.905   5.751  15.776 -0.2766 -0.1998  0.0021
84579W        W27673  20.337   2.876  16.269 -0.2674 -0.0068 -0.0521
84580W        W27674  21.932   4.975  17.842 -0.2718 -0.2531  0.1679
84581W        W27675  20.263   2.168  17.605  0.1962  0.1086 -0.0585
84582W        W27676  19.667   7.266  17.116  0.0201 -0.0833  0.0130
84583W        W27677  19.613   3.677  18.234  0.0198 -0.0088 -0.0554
84584W        W27678  22.054   6.420  19.708 -0.1278 -0.1629  0.4750
84585W        W27679  20.273   5.328  16.403 -0.0906  0.1795  0.0132
84586W        W27680  20.259   5.092  17.713  0.0717  0.0780  0.2842
84587W        W27681  19.805   7.099  18.492  0.2001 -0.0036 -0.3985
84588W        W27682  19.281   5.600  18.530 -0.0088  0.1005 -0.0824
84589W        W27683  20.211   6.929  16.519  0.0128 -0.1222 -0.1296
84590W        W27684  21.054   6.761  16.876 -0.0153 -0.0138 -0.1112
84591W        W27685  19.966   7.124  16.091 -0.1322  0.1075 -0.1570
84592W        W27686  18.648   4.734  16.083  0.0590 -0.0778  0.1988
84593W        W27687  18.435   5.939  19.350 -0.3751  0.0855  0.3365
84594W        W27688  17.126   5.620  18.833 -0.1005  0.2795 -0.0355
84595W        W27689  19.230   3.755  17.363  0.1069  0.0672 -0.0376
84596W        W27690  21.356   6.127  20.096 -0.3238 -0.0147 -0.0801
84597W        W27691  17.849   6.109  18.932 -0.3425  0.1121  0.2071
84598W        W27692  20.702   5.209  17.150  0.2576  0.0048  0.0345
84599W        W27693  19.684   5.934  18.687 -0.0727 -0.0622 -0.1121
84600W        W27694  21.720   5.573  17.149 -0.0637  0.2566 -0.0683
84601W        W27695  20.927   5.720  17.157  0.1578 -0.1023 -0.0573
84602W        W27696  22.068   3.761  19.196 -0.1530  0.0226  0.2872
84603W        W27697  21.209   2.888  18.391  0.1674 -0.0255  0.0485
84604W        W27698  20.005   5.312  15.377 -0.1432 -0.1891 -0.0194
84605W        W27699  19.473   4.879  16.476  0.1462 -0.2714 -0.1717
84606W        W27700  21.132   7.059  18.824  0.4468 -0.1079 -0.2420
84607W        W27701  20.685   5.966  16.771  0.0428 -0.1221  0.2114
84608W        W27702  20.237   6.391  18.000  0.2385 -0.2541  0.1265
84609W        W27703  21.092   4.880  19.582 -0.0533  0.1140 -0.0881
84610W        W27704  20.035   8.056  19.318 -0.0163 -0.0725 -0.1315
84611W        W27705  18.982   5.690  16.409 -0.1245 -0.1344  0.0852
84612W        W27706  17.098   6.822  17.515  0.3603  0.2391  0.1447
84613W        W27707  18.059   5.873  16.866  0.3647 -0.3011  0.2383
84614W        W27708  18.094   3.438  19.284  0.0837 -0.1469 -0.2562
84615W        W27709  20.020   5.014  18.557  0.0080  0.1062  0.2310
84616W        W27710  19.672   2.763  17.063 -0.1311 -0.1467  0.2341
84617W        W27711  18.694   4.382  18.578  0.1038  0.0415 -0.1373
84618W        W27712  22.540   4.609  16.595  0.1894  0.0106  0.1549
84619W        W27713  18.594   6.599  17.094 -0.0337  0.1994  0.2436
84620W        W27714  20.589   7.255  16.156 -0.1592  0.2020 -0.0223
84621W        W27715  20.793   6.277  17.131 -0.0906  0.3338  0.0333
84622W        W27716  19.968   6.599  16.229  0.0401  0.1251 -0.4336
84623W        W27717  17.275   5.237  18.558  0.2173  0.4574 -0.2765
84624W        W27718  19.402   4.441  18.436 -0.2644  0.1037  0.0868
84625W        W27719  18.879   4.007  19.431  0.1468  0.2832  0.0518
84626W        W27720  18.184   3.655  17.986  0.0618  0.0719  0.0407
84627W        W27721  21.706   5.780  20.015  0.1092  0.0444 -0.2479
84628W        W27722  18.517   2.443  17.418  0.1425  0.0238 -0.2131
84629W        W27723  18.861   5.644  17.448  0.0052  0.1995  0.0912
84630W        W27724  19.237   4.732  17.297  0.3429  0.1274  0.0286
84631W        W27725  17.713   5.571  16.983 -0.0842 -0.0221  0.2637
84632W        W27726  20.807   3.027  18.820 -0.0720  0.1397  0.1691
84633W        W27727  19.977   6.347  16.716 -0.2153 -0.0453  0.0139
84634W        W27728  20.408   7.552  19.238 -0.1740 -0.0842 -0.2288
84635W        W27729  20.988   6.247  18.531 -0.0089  0.2003  0.1460
84636W        W27730  17.023   1.849  19.231 -0.1176 -0.0117  0.1170
84637W        W27731  17.981   3.668  16.263  0.0845  0.0430 -0.0855
84638W        W27732  18.215   7.507  18.255  0.0098  0.0469 -0.2848
84639W        W27733  19.343   5.900  17.279  0.0041 -0.0272  0.2645
84640W        W27734  18.771   2.564  16.978 -0.0012  0.1479 -0.1562
84641W        W27735  22.933   5.699  18.101  0.0439 -0.1823 -0.2379
84642W        W27736  19.847   5.281  17.944 -0.0159 -0.0911 -0.1166
84643W        W27737  19.634   5.394  20.000  0.1157  0.2190  0.0271
84644W        W27738  21.607   3.544  19.335 -0.1632  0.0173 -0.0125
84645W        W27739  19.620   5.261  18.768  0.0570 -0.0652  0.1791
84646W        W27740  20.343   4.984  16.784  0.4098  0.2137 -0.0526
84647W        W27741  19.160   2.827  17.396 -0.1849 -0.3697 -0.2541
84648W        W27742  21.419   7.384  17.561  0.2704 -0.0878  0.4216
84649W        W27743  17.776   6.793  16.860  0.2093  0.1208 -0.1214
84650W        W27744  19.716   5.102  17.436 -0.0869  0.4132  0.4323
84651W        W27745  18.853   7.027  17.266 -0.6034 -0.3179  0.2972
84652W        W27746  21.521   5.303  17.957  0.1252 -0.1707 -0.0252
84653W        W27747  18.683   5.464  20.151 -0.3720 -0.3306 -0.1822
84654W        W27748  20.351   4.648  20.242 -0.0725 -0.1683  0.1549
84655W        W27749  18.288   4.740  16.914  0.0069  0.2084 -0.0315
84656W        W27750  18.948   6.021  19.461 -0.0923  0.0421  0.0717
84657W        W27751  20.934   4.704  17.266 -0.1962 -0.0011  0.1563
84658W        W27752  21.644   4.554  17.106  0.1890  0.0201 -0.2020
84659W        W27753  20.359   5.813  19.237  0.3462  0.0187  0.0133
84660W        W27754  19.968   4.167  16.468  0.0040 -0.3213  0.2064
84661W        W27755  20.878   3.885  16.457 -0.1010 -0.0286  0.1982
84662W        W27756  20.091   3.167  15.793 -0.2467  0.1334  0.1535
84663W        W27757  19.518   6.074  20.192  0.0304  0.1080  0.2946
84664W        W27758  19.354   5.472  16.598  0.0486 -0.2612  0.1642
84665W        W27759  19.382   6.254  17.663 -0.0086 -0.1325 -0.1839
84666W        W27760  20.384   3.472  17.058  0.1807  0.2289  0.0676
84667W        W27761  21.201   6.500  17.938  0.0636  0.2056 -0.0395
84668W        W27762  17.742   4.645  18.077 -0.0753 -0.1182 -0.4085
84669W        W27763  20.568   6.796  20.398  0.2591 -0.1887  0.0597
84670W        W27764  20.653   6.836  17.249  0.3204 -0.2749 -0.3171
84671W        W27765  18.901   3.870  18.888 -0.2494  0.2940  0.3189
84672W        W27766  19.575   4.440  16.583 -0.1833  0.0236  0.0847
84673W        W27767  19.664   4.117  17.457  0.0702 -0.1094  0.0858
84674W        W27768  17.819   7.655  15.356 -0.1236  0.0983  0.0631
84675W        W27769  20.981   3.269  18.114 -0.0464  0.1131  0.0135
84676W        W27770  20.669   1.443  17.404 -0.1460  0.1510 -0.0369
84677W        W27771  19.753   4.126  18.496 -0.1447 -0.4395 -0.1642
84678W        W27772  21.255   5.287  19.386 -0.0801  0.1268 -0.0024
84679W        W27773  20.619   4.507  16.909  0.0644 -0.0533 -0.2506
84680W        W27774  20.748   4.573  18.217  0.1685 -0.3851  0.0506
84681W        W27775  18.560   4.449  16.522 -0.0792 -0.1213  0.0473
84682W        W27776  21.426   4.496  19.391 -0.0701  0.0656 -0.3372
84683W        W27777  17.582   5.640  19.038  0.0147  0.0078  0.0437
84684W        W27778  20.503   8.117  19.409  0.0447  0.0056  0.1606
84685W        W27779  20.711   6.088  18.966  0.1551 -0.0541 -0.4504
84686W        W27780  21.313   5.507  16.871  0.4381 -0.5141 -0.3783
84687W        W27781  21.010   4.153  18.360  0.0300  0.0926  0.1954
84688W        W27782  19.154   3.523  16.892  0.2317 -0.1806 -0.5025
84689W        W27783  19.975   8.061  16.176  0.1112 -0.0031 -0.1608
84690W        W27784  19.077   6.617  16.972  0.0568 -0.4611  0.0928
84691W        W27785  19.695   3.601  17.643  0.0669 -0.1310 -0.2658
84692W        W27786  21.717   5.764  18.615  0.0525 -0.0651 -0.1168
84693W        W27787  18.284   6.611  16.700 -0.1269 -0.1388 -0.3508
84694W        W27788  20.641   6.047  18.033  0.3631  0.2039  0.2197
84695W        W27789  19.701   7.565  16.244 -0.1258  0.3285  0.1483
84696W        W27790  21.894   3.297  17.574 -0.0368 -0.1226 -0.0554
84697W        W27791  18.995   8.089  16.588  0.1308  0.1465  0.3189
84698W        W27792  19.763   4.522  16.141  0.3997  0.2245  0.1917
84699W        W27793  18.453   5.303  17.494 -0.0894  0.0251  0.2115
84700W        W27794  20.656   5.594  17.588  0.3160 -0.0586  0.1863
84701W        W27795  20.601   4.720  16.395 -0.1141 -0.2758 -0.0654
84702W        W27796  17.932   5.300  17.359  0.1555  0.4263 -0.0701
84703W        W27797  19.287   5.121  18.365  0.0206  0.1665 -0.2927
84704W        W27798  17.433   6.187  18.286  0.3577  0.1788 -0.3237
84705W        W27799  19.542   5.764  19.647 -0.0249 -0.2405  0.0036
84706W        W27800  20.075   3.927  17.344  0.0097  0.0055  0.2082
84707W        W27801  20.371   6.464  18.907 -0.0915  0.3978  0.0841
84708W        W27802  19.357   6.451  19.918 -0.1180  0.0118  0.1870
84709W        W27803  18.516   2.972  16.683  0.0385 -0.2042 -0.0737
84710W        W27804  21.469   6.220  18.384  0.2276  0.0483  0.1305
84711W        W27805  18.932   4.606  17.711 -0.1769 -0.1026  0.2635
84712W        W27806  18.087   5.826  17.368 -0.1058 -0.1262  0.2892
84713W        W27807  21.108   7.632  18.112  0.0315 -0.2472 -0.1418
84714W        W27808  20.148   5.382  15.924 -0.1190 -0.0170 -0.0138
84715W        W27809  19.295   7.546  16.558 -0.3589  0.4053 -0.1160
84716W        W27810  19.857   4.452  20.360 -0.0098 -0.0864  0.3394
84717W        W27811  21.338   5.440  18.876  0.1997  0.4022 -0.1004
84718W        W27812  20.393   5.821  17.176 -0.1748 -0.0319  0.4538
84719W        W27813  18.955   4.218  16.727  0.1048 -0.0068  0.2109
84720W        W27814  19.130   4.708  18.170  0.0090 -0.0010 -0.0289
84721W        W27815  21.659   6.706  18.248  0.0977 -0.0775 -0.0572
84722W        W27816  19.068   3.567  18.330 -0.2281  0.3030 -0.0091
84723W        W27817  20.273   6.827  18.577  0.2220  0.2074 -0.1185
84724W        W27818  20.116   3.781  18.539  0.0121  0.2108 -0.2175
84725W        W27819  21.596   7.138  16.278  0.0720 -0.0665 -0.0375
84726W        W27820  21.947   5.310  19.918  0.2906 -0.0844 -0.0775
84727W        W27821  18.980   5.540  16.929  0.0344 -0.0245 -0.0405
84728W        W27822  17.013   4.495  17.493 -0.2775  0.0877 -0.1653
84729W        W27823  18.403   5.004  16.470  0.0978  0.3797  0.0390
84730W        W27824  19.918   3.149  17.819 -0.1844 -0.1603  0.2521
84731W        W27825  17.353   4.960  18.149  0.1771 -0.0212 -0.0438
84732W        W27826  19.480   6.395  16.387  0.3140  0.1445  0.0067
84733W        W27827  16.729   5.445  18.553 -0.4739 -0.3337  0.1447
84734W        W27828  21.233   4.028  15.927 -0.0914  0.0937 -0.0110
84735W        W27829  20.036   5.499  16.800  0.1465 -0.0669 -0.3159
84736W        W27830  21.220   5.429  17.392  0.1415  0.1456  0.0073
84737W        W27831  21.225   3.557  19.014  0.1867  0.0533  0.1620
84738W        W27832  21.410   5.343  16.322 -0.2245  0.0470  0.0660
84739W        W27833  21.352   4.115  19.696 -0.0810 -0.3739 -0.0578
84740W        W27834  18.701   3.376  17.258 -0.0449  0.0043 -0.1667
84741W        W27835  21.799   5.868  17.531 -0.1031  0.3209  0.0842
84742W        W27836  17.701   6.003  19.878 -0.0069 -0.2990 -0.0533
84743W        W27837  20.787   7.180  19.194  0.1948  0.1016  0.0432
84744W        W27838  18.594   5.061  19.751  0.1792 -0.2243  0.1159
84745W        W27839  19.865   4.741  17.706 -0.3083 -0.0854  0.4107
84746W        W27840  19.391   3.273  17.279  0.0449  0.0030 -0.1073
84747W        W27841  19.249   5.990  18.917  0.1085  0.2343  0.3264
84748W        W27842  21.276   5.666  18.440  0.0195  0.0886 -0.0569
84749W        W27843  20.210   5.920  16.676 -0.3059  0.0503 -0.1678
84750W        W27844  20.801   3.674  17.218 -0.0444  0.0844 -0.0254
84751W        W27845  19.842   5.546  18.430 -0.0175 -0.2593 -0.1290
84752W        W27846  22.011   5.463  17.877 -0.2515  0.1894  0.3489
84753W        W27847  21.335   5.763  16.062 -0.0422  0.1442 -0.2449
84754W        W27848  18.727   6.249  18.518  0.3004  0.1018  0.0070
84755W        W27849  19.105   4.351  19.115 -0.2289  0.1281  0.2665
84756W        W27850  20.375   4.787  17.258 -0.1036  0.2030 -0.2869
84757W        W27851  21.400   4.117  17.924  0.0210 -0.0363 -0.0309
84758W        W27852  21.728   3.734  17.749  0.2824  0.1710 -0.1073
84759W        W27853  18.725   4.999  18.406 -0.0247 -0.0467  0.1900
84760W        W27854  19.158   5.506  20.341  0.1334  0.0544  0.0993
84761W        W27855  17.825   2.765  19.889 -0.2108 -0.1371 -0.0143
84762W        W27856  22.226   7.304  18.954  0.0095 -0.1638 -0.1368
84763W        W27857  20.609   5.496  16.756 -0.0818 -0.1790  0.0165
84764W        W27858  22.328   3.284  17.162 -0.1627 -0.0471  0.1799
84765W        W27859  21.640   5.808  18.137  0.1590  0.2519 -0.1786
84766W        W27860  19.790   5.048  16.797 -0.2358  0.4527 -0.4176
84767W        W27861  18.181   4.930  17.827 -0.1674  0.2911  0.1174
84768W        W27862  22.421   6.037  19.632 -0.1619 -0.1396 -0.0188
84769W        W27863  18.465   3.911  16.644 -0.2613  0.2274 -0.3234
84770W        W27864  21.130   4.218  18.875 -0.1671 -0.0098 -0.2187
84771W        W27865  19.679   6.303  15.885  0.1214  0.1817  0.2158
84772W        W27866  20.990   7.631  17.385 -0.0546 -0.0072 -0.2041
84773W        W27867  20.095   4.542  16.830 -0.2727 -0.0198 -0.0513
84774W        W27868  18.905   3.181  16.430 -0.1290  0.1273  0.3548
84775W        W27869  20.378   6.929  19.045  0.0362 -0.1873  0.0222
84776W        W27870  17.857   3.858  17.443  0.2090  0.2003 -0.2495
84777W        W27871  18.833   3.853  17.048  0.1392 -0.2898 -0.3695
84778W        W27872  19.717   6.318  18.019 -0.0179 -0.2112  0.2147
84779W        W27873  21.908   6.662  20.271 -0.0145  0.0878  0.1070
84780W        W27874  20.486   4.251  16.504 -0.2295  0.1047 -0.0900
84781W        W27875  21.404   4.917  18.994 -0.0923  0.1892  0.0124
84782W        W27876  19.257   6.080  16.661 -0.1831 -0.2634  0.0704
84783W        W27877  20.541   2.980  17.844  0.0337 -0.0589  0.1202
84784W        W27878  18.802   8.046  18.381  0.0479  0.0148  0.1681
84785W        W27879  18.050   7.164  18.584  0.1130  0.3125  0.1651
84786W        W27880  19.512   6.378  17.123  0.3802  0.0942 -0.0283
84787W        W27881  19.736   3.766  18.838  0.0781  0.0758  0.2186
84788W        W27882  19.312   4.956  17.755  0.2898  0.2903 -0.1255
84789W        W27883  21.366   5.101  18.526 -0.1071 -0.1254  0.0058
84790W        W27884  19.994   5.395  19.595 -0.3606 -0.0928  0.0061
84791W        W27885  20.003   6.151  18.924 -0.4204  0.1123 -0.2001
84792W        W27886  19.987   6.786  18.127 -0.3517  0.3124  0.0866
84793W        W27887  20.326   7.136  18.199 -0.1703  0.1377 -0.4732
84794W        W27888  20.011   5.615  17.486 -0.2482  0.0687  0.1698
84795W        W27889  17.933   5.041  19.173 -0.1342  0.1165 -0.3822
84796W        W27890  18.677   3.850  20.392 -0.1418  0.0136 -0.0781
84797W        W27891  19.937   5.797  19.916  0.0336  0.0578 -0.4274
84798W        W27892  20.965   5.103  17.633  0.4112  0.4842  0.3567
84799W        W27893  18.749   3.279  18.671 -0.0257  0.1862  0.3107
84800W        W27894  20.357   6.301  17.298 -0.1457  0.0100  0.0589
84801W        W27895  19.551   6.351  18.910  0.1013 -0.1114  0.2439
84802W        W27896  17.230   5.144  19.040 -0.2067 -0.3261  0.3695
84803W        W27897  18.883   7.230  16.300 -0.0454  0.1980  0.0995
84804W        W27898  21.486   6.372  16.971  0.1570 -0.1157 -0.0489
84805W        W27899  18.588   5.132  17.025 -0.0547  0.0785  0.1330
84806W        W27900  19.497   6.616  18.397 -0.1124 -0.0508  0.0812
84807W        W27901  19.706   3.255  16.875 -0.1724 -0.1715 -0.0254
84808W        W27902  18.869   7.859  17.904  0.4250  0.2020  0.0958
84809W        W27903  18.609   5.964  16.247 -0.3563  0.1283 -0.2788
84810W        W27904  20.905   6.044  17.595  0.0739 -0.0041  0.0407
84811W        W27905  18.409   7.695  17.513 -0.1361  0.3288  0.1426
84812W        W27906  21.678   6.938  20.808 -0.0324 -0.0693  0.2248
84813W        W27907  20.813   4.132  15.710  0.0771 -0.1513 -0.0209
84814W        W27908  22.269   6.792  17.367 -0.0576 -0.1802 -0.2557
84815W        W27909  20.982   4.032  16.929  0.2687  0.0868 -0.0095
84816W        W27910  19.298   8.225  18.989  0.1167 -0.0565  0.0041
84817W        W27911  20.791   5.823  18.502  0.2213  0.2300  0.1958
84818W        W27912  20.174   2.380  16.258  0.0704 -0.0085 -0.0593
84819W        W27913  18.473   4.940  20.268  0.3695 -0.2139  0.1355
84820W        W27914  21.381   2.132  20.218  0.3055 -0.0230 -0.4470
84821W        W27915  18.349   6.252  18.900  0.0385 -0.1524  0.1340
84822W        W27916  21.601   5.870  16.591 -0.0889  0.1463 -0.1280
84823W        W27917  18.905   4.216  17.382 -0.1972 -0.2468 -0.0139
84824W        W27918  20.686   6.479  17.632  0.2306 -0.0924 -0.2071
84825W        W27919  23.585   2.842  19.062  0.0191  0.0236  0.0410
84826W        W27920  20.997   5.659  16.502 -0.0290  0.0302 -0.1370
84827W        W27921  19.888   3.019  19.056 -0.2151  0.0949  0.0023
84828W        W27922  19.344   7.933  18.559  0.0931  0.1007 -0.2411
84829W        W27923  20.748   6.713  18.657  0.1239  0.2805  0.1515
84830W        W27924  20.945   7.128  18.318  0.1709  0.1818  0.1307
84831W        W27925  18.788   4.686  17.002 -0.3574  0.0104  0.3617
84832W        W27926  20.743   3.771  18.110 -0.0708 -0.2006  0.3743
84833W        W27927  19.469   5.321  19.419  0.3079  0.0330  0.1508
84834W        W27928  21.712   6.070  19.579 -0.2809  0.0765  0.0318
84835W        W27929  19.786   5.995  17.664 -0.0877 -0.0817  0.1869
84836W        W27930  19.670   3.656  17.119 -0.1197 -0.2140 -0.0252
84837W        W27931  20.963   5.564  18.021  0.5382  0.0824 -0.0487
84838W        W27932  18.532   4.105  18.062 -0.0319 -0.2168  0.0544
84839W        W27933  19.428   3.969  16.660  0.0277 -0.0761  0.0036
84840W        W27934  20.049   5.937  18.136 -0.0089  0.2504 -0.2420
84841W        W27935  21.251   4.760  16.251  0.2957  0.0572 -0.0797
84842W        W27936  20.619   6.862  19.779  0.1000  0.3287  0.1073
84843W        W27937  18.448   6.158  16.804  0.3868  0.2567  0.1808
84844W        W27938  20.090   4.785  16.419  0.0723  0.2179 -0.0516
84845W        W27939  19.454   5.563  17.607  0.0603  0.1747  0.0598
84846W        W27940  20.469   5.300  19.267  0.1008 -0.2004  0.5090
84847W        W27941  21.969   6.707  22.119  0.2781 -0.0281  0.1569
84848W        W27942  19.416   2.955  16.613  0.0418 -0.0881  0.0743
84849W        W27943  20.881   6.087  16.186 -0.1474  0.0959  0.1774
84850W        W27944  21.654   5.189  17.456  0.1357  0.1404  0.0969
84851W        W27945  18.203   7.353  15.779 -0.2748  0.0565 -0.0055
84852W        W27946  20.332   3.349  18.116 -0.1114 -0.2691  0.4013
84853W        W27947  22.650   6.446  19.411  0.0815  0.2816  0.1836
84854W        W27948  17.849   4.130  17.850 -0.3104 -0.4009 -0.2374
84855W        W27949  20.784   7.269  17.810  0.2732  0.1583 -0.1591
84856W        W27950  21.825   6.012  17.034  0.0946  0.0942 -0.5161
84857W        W27951  19.452   3.492  16.457  0.0907  0.2348  0.1325
84858W        W27952  19.065   5.858  19.922  0.0280  0.1804  0.1073
84859W        W27953  17.736   5.914  18.005  0.2219 -0.3392  0.1445
84860W        W27954  20.914   5.287  18.533 -0.1025  0.3561 -0.0965
84861W        W27955  20.600   4.932  19.573  0.0924 -0.0357 -0.0419
84862W        W27956  19.207   7.240  16.921 -0.0547 -0.1353  0.1521
84863W        W27957  21.102   3.637  19.621 -0.1931  0.3960  0.2043
84864W        W27958  20.636   5.577  18.901 -0.0648  0.4607 -0.0976
84865W        W27959  20.051   6.789  19.839  0.2004  0.1559 -0.0149
84866W        W27960  19.448   5.842  16.212 -0.2555 -0.1864  0.1064
84867W        W27961  19.908   5.982  19.396  0.1198 -0.1649 -0.1394
84868W        W27962  19.520   6.893  17.868  0.1605 -0.0695 -0.2713
84869W        W27963  19.095   7.010  15.883 -0.2037  0.3231 -0.1515
84870W        W27964  20.402   7.903  17.489 -0.0430 -0.2878  0.0621
84871W        W27965  19.295   4.198  17.100  0.1997  0.0876  0.0473
84872W        W27966  22.214   5.288  17.439  0.0534 -0.0173 -0.2305
84873W        W27967  18.915   5.067  17.411 -0.2318  0.0785  0.2038
84874W        W27968  21.677   4.603  16.576  0.1874  0.1150  0.0099
84875W        W27969  20.888   4.338  17.829 -0.0662  0.0392  0.0681
84876W        W27970  20.351   5.509  18.003  0.1153  0.2388 -0.1119
84877W        W27971  17.586   4.017  16.276  0.2786 -0.0125 -0.1609
84878W        W27972  19.211   4.700  16.085 -0.1135  0.0735 -0.3646
84879W        W27973  19.454   5.877  18.035  0.2586 -0.3037  0.0542
84880W        W27974  20.613   3.009  18.344 -0.1910  0.1322 -0.2512
84881W        W27975  18.727   5.744  20.763 -0.2287 -0.1569  0.0498
84882W        W27976  18.919   6.033  17.773 -0.2343 -0.0319 -0.2568
84883W        W27977  18.664   3.728  17.659  0.2273 -0.3237 -0.0307
84884W        W27978  21.986   7.122  16.585 -0.0746  0.1168 -0.1970
84885W        W27979  18.696   5.013  17.837 -0.1660 -0.0766  0.2444
84886W        W27980  17.975   2.592  17.344 -0.1216  0.0488 -0.0579
84887W        W27981  21.390   5.950  17.270 -0.1809  0.1570  0.0136
84888W        W27982  21.304   8.164  16.879  0.0708  0.3344  0.0334
84889W        W27983  19.272   3.897  17.837  0.0735  0.0973  0.2391
84890W        W27984  21.601   5.786  19.145 -0.1851 -0.0906  0.1086
84891W        W27985  17.892   4.779  17.171 -0.0058 -0.0623 -0.0875
84892W        W27986  20.417   5.447  18.480  0.3680  0.0546 -0.3394
84893W        W27987  19.572   4.786  18.702 -0.5293  0.2928 -0.0673
84894W        W27988  18.163   3.221  16.431  0.1964 -0.1457 -0.1024
84895W        W27989  18.278   5.825  19.814 -0.0774 -0.0252 -0.1857
84896W        W27990  21.079   6.963  17.540  0.0594  0.1850  0.0726
84897W        W27991  20.674   7.327  16.854 -0.2999 -0.3086  0.1071
84898W        W27992  19.420   7.664  19.160 -0.0503 -0.1180  0.2362
84899W        W27993  18.975   7.088  19.201  0.0145 -0.1045 -0.0435
84900W        W27994  17.415   3.943  18.650  0.1039  0.1694  0.0787
84901W        W27995  20.821   5.189  16.396 -0.0571  0.0359 -0.2018
84902W        W27996  20.244   7.245  20.052 -0.1159 -0.2281  0.1037
84903W        W27997  21.840   6.809  16.946 -0.0845  0.0381 -0.0338
84904W        W27998  22.567   4.629  17.165  0.0493 -0.0830  0.2785
84905W        W27999  20.183   4.731  18.174  0.3089 -0.4961  0.1029
84906W        W28000  18.104   4.118  19.957  0.0607 -0.2984 -0.0035
84907W        W28001  18.185   5.744  18.859  0.0554 -0.1738  0.3287
84908W        W28002  19.623   4.858  18.152 -0.1547 -0.0526 -0.2894
84909W        W28003  19.032   4.187  18.207  0.2560  0.1619 -0.2741
84910W        W28004  19.932   3.223  17.331  0.2523 -0.0890  0.1607
84911W        W28005  19.551   7.682  17.627 -0.0535  0.0867  0.2609
84912W        W28006  18.948   5.860  18.231  0.0353 -0.1210  0.1243
84913W        W28007  19.804   3.053  16.191 -0.0547 -0.0014 -0.2371
84914W        W28008  20.269   5.817  18.712 -0.1012 -0.2286 -0.1093
84915W        W28009  20.027   6.622  17.096 -0.0100 -0.1573 -0.3529
84916W        W28010  20.497   5.189  20.512  0.0576  0.2100  0.3397
84917W        W28011  18.478   4.267  17.003 -0.0637  0.0745  0.0739
84918W        W28012  21.865   6.346  16.627 -0.0664 -0.2334  0.2169
84919W        W28013  20.094   7.588  18.400 -0.0774  0.0188 -0.2378
84920W        W28014  22.259   6.245  20.572 -0.0594  0.2549  0.0238
84921W        W28015  19.746   7.334  17.907 -0.1611  0.2890  0.0206
84922W        W28016  20.479   6.233  18.483  0.0192  0.1731  0.0154
84923W        W28017  16.737   3.397  18.953 -0.1700  0.0934  0.2277
84924W        W28018  20.233   4.382  17.659  0.0077 -0.4027  0.2721
84925W        W28019  19.535   6.782  16.817 -0.3852  0.1258 -0.1481
84926W        W28020  20.522   4.940  18.618  0.2960  0.0961 -0.2874
84927W        W28021  18.435   5.834  17.683 -0.0496  0.0135 -0.3916
84928W        W28022  19.404   4.401  17.770  0.0604 -0.0864  0.1266
84929W        W28023  19.785   7.677  16.739 -0.2362  0.2516  0.2810
84930W        W28024  20.633   4.467  18.759  0.1340  0.0161 -0.2162
84931W        W28025  18.716   5.912  22.220 -0.0571  0.2579  0.1587
84932W        W28026  20.784   3.777  18.909  0.3436 -0.3254 -0.1524
84933W        W28027  20.481   5.348  21.390  0.0438  0.2242 -0.1908
84934W        W28028  21.654   6.857  21.674  0.1150 -0.0664 -0.1210
84935W        W28029  18.634   2.947  20.478  0.3068  0.2760 -0.3706
84936W        W28030  20.969   6.253  21.152  0.1600  0.1761 -0.1220
84937W        W28031  19.032   3.389  21.282 -0.1996 -0.0155 -0.1232
84938W        W28032  19.779   5.501  22.825 -0.5478 -0.2952  0.2931
84939W        W28033  22.190   6.310  21.068  0.0900 -0.4679 -0.1521
84940W        W28034  21.690   5.311  20.397  0.0174  0.0024 -0.0350
84941W        W28035  18.642   4.117  21.420  0.1581  0.0168 -0.5175
84942W        W28036  20.242   6.412  21.838  0.3081 -0.0250 -0.0533
84943W        W28037  19.852   2.944  19.934 -0.1771 -0.1915  0.1460
84944W        W28038  16.876   4.149  22.289  0.0950 -0.1460  0.0486
84945W        W28039  20.116   7.177  21.934 -0.1818  0.1492  0.2892
84946W        W28040  18.122   4.400  21.001  0.2022  0.0213  0.1399
84947W        W28041  17.311   3.262  21.814 -0.2008  0.1120 -0.2084
84948W        W28042  20.302   4.190  21.234 -0.2191 -0.2654  0.1728
84949W        W28043  19.750   6.338  20.634 -0.2868 -0.0194 -0.5007
84950W        W28044  19.976   4.547  22.062  0.0307 -0.1673  0.1992
84951W        W28045  20.973   4.424  23.422 -0.1109  0.3357 -0.1269
84952W        W28046  19.689   5.243  20.605 -0.2559 -0.0636 -0.0516
84953W        W28047  19.238   5.142  20.781 -0.0988 -0.1233 -0.1703
84954W        W28048  17.894   3.544  21.340 -0.1046 -0.1166  0.0593
84955W        W28049  18.530   3.494  21.227 -0.0931  0.0649  0.0129
84956W        W28050  19.097   5.553  21.019  0.4839  0.1067  0.2338
84957W        W28051  20.143   6.823  22.506  0.1475 -0.2253  0.0873
84958W        W28052  18.122   7.517  22.608  0.0083 -0.0650  0.0016
84959W        W28053  19.545   6.189  21.630  0.2018 -0.1791  0.2192
84960W        W28054  20.148   4.917  23.594  0.1657  0.1483 -0.1554
84961W        W28055  18.524   5.370  21.073 -0.1184 -0.5284  0.2349
84962W        W28056  17.492   7.358  19.906  0.2458 -0.2088 -0.0891
84963W        W28057  18.795   6.004  20.337 -0.0658 -0.1377  0.3772
84964W        W28058  22.040   4.084  22.118 -0.0729 -0.0264  0.2064
84965W        W28059  21.291   6.024  23.003 -0.1041  0.0838 -0.2462
84966W        W28060  20.574   6.261  23.842  0.1314 -0.1599  0.0608
84967W        W28061  17.865   5.547  20.508  0.0658 -0.2578 -0.0820
84968W        W28062  19.398   6.539  22.351 -0.0723 -0.1011 -0.1065
84969W        W28063  18.088   4.836  23.108 -0.1550 -0.2608  0.1267
84970W        W28064  19.518   4.711  22.368  0.0284 -0.1097 -0.0691
84971W        W28065  19.676   5.700  21.520 -0.1403 -0.0503  0.1284
84972W        W28066  17.948   6.478  20.002 -0.1011 -0.3064 -0.0088
84973W        W28067  19.380   6.698  19.389 -0.0173  0.0420  0.0075
84974W        W28068  18.879   5.761  22.953 -0.0559  0.0445 -0.2577
84975W        W28069  18.763   5.390  22.154  0.0829 -0.1998  0.1053
84976W        W28070  23.542   4.716  23.486 -0.0538  0.0954 -0.2394
84977W        W28071  18.919   6.658  19.685 -0.1203  0.0018  0.3797
84978W        W28072  20.412   5.224  19.989 -0.2765  0.4901  0.0134
84979W        W28073  18.721   4.753  19.053 -0.1440 -0.0797  0.1115
84980W        W28074  20.941   5.216  20.219  0.3050  0.0031 -0.0913
84981W        W28075  20.190   2.904  22.510  0.2992 -0.0372  0.1130
84982W        W28076  18.948   6.851  21.685 -0.1590  0.0363  0.0533
84983W        W28077  17.932   4.140  21.863  0.3435  0.0131  0.1698
84984W        W28078  20.067   7.560  24.192  0.1086 -0.2045 -0.0962
84985W        W28079  20.975   6.477  20.348 -0.1299  0.2090  0.0239
84986W        W28080  19.964   7.645  22.001  0.0704  0.0743 -0.2467
84987W        W28081  18.071   4.702  22.047  0.3042 -0.2094 -0.3224
84988W        W28082  17.316   4.425  21.272 -0.1806  0.0771 -0.2310
84989W        W28083  22.514   6.477  19.968 -0.0233  0.1130 -0.1924
84990W        W28084  22.496   6.775  22.075 -0.1960 -0.0787 -0.3076
84991W        W28085  20.611   7.209  18.713  0.0904 -0.2697  0.3666
84992W        W28086  18.933   5.036  20.282 -0.0472 -0.0917  0.0135
84993W        W28087  18.747   5.713  23.456  0.0555  0.4476 -0.1009
84994W        W28088  19.281   5.631  22.673 -0.1513  0.0486  0.1640
84995W        W28089  19.586   3.992  19.910  0.0704 -0.0665  0.1356
84996W        W28090  20.803   5.255  23.550  0.1374  0.3678  0.0513
84997W        W28091  16.614   6.640  23.513 -0.2517 -0.3806  0.1215
84998W        W28092  20.547   5.865  22.690  0.2827 -0.1591  0.3829
84999W        W28093  18.268   5.998  21.422  0.1892  0.0579 -0.0389
85000W        W28094  20.527   7.255  22.477 -0.2651  0.0473 -0.2671
85001W        W28095  20.566   6.429  20.069  0.0215  0.0536  0.0136
85002W        W28096  20.796   3.046  20.241  0.0293  0.1403 -0.0120
85003W        W28097  19.211   4.628  21.074 -0.0707 -0.3290 -0.0517
85004W        W28098  18.298   5.781  20.385  0.1919 -0.0661  0.1875
85005W        W28099  20.074   5.386  20.304  0.0521  0.2560  0.3777
85006W        W28100  20.512   6.196  23.045 -0.0751 -0.0999 -0.3081
85007W        W28101  21.653   5.511  21.308 -0.4690 -0.0564 -0.2221
85008W        W28102  17.897   7.098  21.472 -0.0896 -0.0870 -0.0154
85009W        W28103  18.475   3.190  22.622 -0.0219 -0.0455 -0.2713
85010W        W28104  20.541   7.152  24.329 -0.0983  0.4137  0.1673
85011W        W28105  20.283   7.737  19.725  0.0604 -0.0953 -0.0116
85012W        W28106  17.380   5.544  21.434 -0.2973  0.0518  0.1891
85013W        W28107  20.058   4.909  20.575 -0.0223  0.2798 -0.2563
85014W        W28108  19.010   3.269  22.628 -0.2440  0.1423  0.2131
85015W        W28109  17.995   6.220  21.840  0.2828  0.0556 -0.2738
85016W        W28110  21.229   4.178  20.998 -0.1241 -0.0722  0.0218
85017W        W28111  18.148   3.959  21.388 -0.2968  0.0804 -0.2553
85018W        W28112  22.331   4.079  22.905 -0.1416 -0.2289 -0.0494
85019W        W28113  18.611   7.678  20.019  0.0343 -0.0679 -0.0745
85020W        W28114  21.338   7.132  21.250  0.0962 -0.1614  0.0959
85021W        W28115  21.396   4.676  21.822 -0.0657  0.0582  0.2271
85022W        W28116  21.565   6.976  20.276 -0.2191 -0.2303  0.0884
85023W        W28117  17.103   5.162  20.804 -0.0985  0.0172 -0.0459
85024W        W28118  18.111   3.421  20.300  0.0069 -0.6014 -0.1492
85025W        W28119  20.027   3.727  22.132 -0.1327 -0.2316  0.1250
85026W        W28120  18.230   3.630  22.118 -0.2901 -0.0812  0.1755
85027W        W28121  19.090   4.605  22.655 -0.0636 -0.1598 -0.0811
85028W        W28122  20.344   4.219  18.100 -0.2546  0.0216  0.1600
85029W        W28123  20.143   5.700  21.207 -0.1539  0.4759  0.2468
85030W        W28124  20.353   4.751  19.080 -0.0941  0.5197 -0.3205
85031W        W28125  17.187   6.170  19.880 -0.2831 -0.3191 -0.2407
85032W        W28126  21.107   3.629  23.046 -0.0648 -0.0515  0.2546
85033W        W28127  20.341   7.918  22.544  0.2996 -0.0491  0.4300
85034W        W28128  21.940   5.825  24.149 -0.1201 -0.1378 -0.0626
85035W        W28129  19.128   8.203  21.790 -0.0298 -0.2191  0.0917
85036W        W28130  18.749   3.004  22.188 -0.1778 -0.3044  0.2261
85037W        W28131  19.703   2.809  20.941 -0.1780  0.2347  0.0391
85038W        W28132  18.405   5.109  21.852  0.0465  0.0073 -0.2293
85039W        W28133  18.675   7.287  21.791  0.0688  0.0476 -0.0155
85040W        W28134  19.901   3.983  20.629 -0.1226 -0.0792  0.1666
85041W        W28135  20.788   7.722  22.427 -0.0446  0.0067 -0.0497
85042W        W28136  20.822   6.479  22.168  0.0274  0.0008  0.2752
85043W        W28137  17.337   5.063  21.306  0.0942 -0.1670  0.0487
85044W        W28138  20.488   4.791  22.101  0.2027 -0.2567 -0.0415
85045W        W28139  22.167   4.391  22.519 -0.0053  0.0556 -0.1349
85046W        W28140  22.292   4.782  20.709  0.1939  0.0356  0.0765
85047W        W28141  20.639   4.315  19.274 -0.1329  0.1334  0.1231
85048W        W28142  18.528   6.301  21.742 -0.2145 -0.1853 -0.2753
85049W        W28143  18.734   7.508  20.499  0.2238 -0.1459  0.3041
85050W        W28144  17.273   5.458  20.521  0.1650  0.2009  0.0891
85051W        W28145  18.438   6.331  20.301  0.2384  0.0901  0.2043
85052W        W28146  21.769   4.650  22.826  0.1712 -0.1765  0.0740
85053W        W28147  18.482   5.292  24.338 -0.0408 -0.1283  0.2455
85054W        W28148  20.092   5.448  21.863 -0.1201  0.2023 -0.0516
85055W        W28149  17.805   4.269  18.698 -0.2453  0.0171 -0.0511
85056W        W28150  19.055   5.112  22.609 -0.2660 -0.3942  0.4115
85057W        W28151  21.259   4.685  20.895  0.1309  0.3192 -0.0593
85058W        W28152  21.396   5.172  20.948 -0.1350  0.0716 -0.1444
85059W        W28153  19.858   6.040  21.976 -0.2264  0.1432 -0.1738
85060W        W28154  20.061   6.167  21.459 -0.3726 -0.1360 -0.1423
85061W        W28155  19.925   3.262  18.382 -0.1997 -0.0599  0.0342
85062W        W28156  20.868   5.404  19.713 -0.3479 -0.0047 -0.1137
85063W        W28157  18.498   4.731  23.369  0.0438  0.2086 -0.1618
85064W        W28158  18.031   6.536  21.465 -0.0205 -0.0890  0.0719
85065W        W28159  20.694   5.803  21.335 -0.1894  0.2045 -0.1851
85066W        W28160  20.285   3.107  18.735  0.0509  0.1484 -0.1620
85067W        W28161  21.471   4.838  21.352 -0.3217 -0.0501 -0.0811
85068W        W28162  17.647   5.179  22.932 -0.2665  0.2529  0.0830
85069W        W28163  20.162   5.502  23.593  0.1488  0.3645  0.0429
85070W        W28164  20.095   6.596  21.069  0.0903 -0.2576 -0.1295
85071W        W28165  19.957   4.942  20.091 -0.0579  0.0989  0.2204
85072W        W28166  19.158   5.286  19.899  0.1057  0.5564 -0.1419
85073W        W28167  20.004   3.418  20.542  0.2411 -0.0609 -0.1503
85074W        W28168  16.200   6.334  20.731  0.1883 -0.0199 -0.1947
85075W        W28169  20.803   3.801  20.953 -0.4393  0.1346  0.2390
85076W        W28170  20.817   4.722  20.525  0.1701  0.2765 -0.1791
85077W        W28171  19.840   3.509  22.506 -0.0707 -0.1657 -0.1558
85078W        W28172  21.061   5.767  22.642 -0.1953 -0.1001 -0.0726
85079W        W28173  21.312   6.503  22.451 -0.4150 -0.1818  0.1452
85080W        W28174  19.695   4.993  21.029 -0.0620 -0.0742 -0.2441
85081W        W28175  18.797   5.558  19.633 -0.1402  0.1244 -0.0413
85082W        W28176  20.751   4.962  21.621 -0.0180 -0.2229 -0.1147
85083W        W28177  19.241   4.990  22.013  0.1715 -0.0188 -0.0700
85084W        W28178  16.732   7.614  22.752  0.0854  0.0465  0.4748
85085W        W28179  20.291   8.596  22.006 -0.2449 -0.3677  0.1705
85086W        W28180  20.008   5.637  20.733 -0.0861  0.0058  0.1442
85087W        W28181  20.082   3.199  23.182  0.0677 -0.0969 -0.0720
85088W        W28182  20.518   3.510  18.521 -0.2252 -0.0164 -0.3034
85089W        W28183  19.805   7.319  19.782 -0.4241 -0.0952 -0.0649
85090W        W28184  18.727   5.824  18.943  0.1029 -0.0819  0.1909
85091W        W28185  19.483   4.261  21.403 -0.2141 -0.0581  0.0937
85092W        W28186  19.940   7.076  21.108  0.1129  0.0955  0.1247
85093W        W28187  19.786   6.469  19.596 -0.0719 -0.0292  0.1237
85094W        W28188  20.492   5.404  23.945 -0.6171  0.1308 -0.2419
85095W        W28189  19.431   7.248  20.222 -0.1310 -0.0862 -0.0842
85096W        W28190  21.010   3.445  21.593 -0.0832  0.0910 -0.0702
85097W        W28191  19.146   5.699  21.588 -0.1077 -0.3822 -0.0347
85098W        W28192  19.439   4.455  20.052 -0.0611 -0.0841  0.1482
85099W        W28193  18.007   5.163  21.008  0.2336 -0.1191 -0.0210
85100W        W28194  20.554   6.418  21.394 -0.0217 -0.1538  0.0685
85101W        W28195  21.948   5.426  20.831  0.0701  0.0506  0.0459
85102W        W28196  20.262   3.649  19.785  0.0357 -0.1707  0.1760
85103W        W28197  20.583   4.146  22.100 -0.2194 -0.1362  0.2489
85104W        W28198  17.197   6.795  22.164  0.2017  0.1068 -0.0129
85105W        W28199  19.380   7.513  22.171  0.1943 -0.1728  0.3241
85106W        W28200  21.234   4.418  20.492 -0.2379 -0.1721  0.3645
85107W        W28201  18.932   7.424  22.316 -0.1581 -0.1032  0.3051
85108W        W28202  18.992   6.451  23.289 -0.5271 -0.0410 -0.1906
85109W        W28203  18.801   5.296  20.641  0.0620  0.0987  0.0730
85110W        W28204  21.629   4.203  22.545  0.0843 -0.0367 -0.2296
85111W        W28205  19.781   3.900  21.668  0.1956 -0.0141 -0.2923
85112W        W28206  17.515   6.392  20.823  0.0145 -0.0361  0.2032
85113W        W28207  18.902   6.665  22.537  0.3214 -0.2718  0.1112
85114W        W28208  17.866   4.253  19.460  0.0415  0.2980  0.0200
85115W        W28209  19.362   6.580  20.415  0.1973  0.1935  0.3530
85116W        W28210  18.859   3.492  22.178  0.1004 -0.1967  0.1505
85117W        W28211  19.813   4.870  23.164  0.2956 -0.2357 -0.3288
85118W        W28212  18.174   4.427  21.543  0.0340 -0.0683 -0.0184
85119W        W28213  19.011   4.043  21.153  0.2183  0.0818  0.1442
85120W        W28214  18.357   4.825  20.874 -0.2658  0.1972 -0.0447
85121W        W28215  20.036   6.086  22.765 -0.0664 -0.1119  0.0037
85122W        W28216  21.190   5.366  23.129 -0.0403 -0.1126  0.1122
85123W        W28217  19.190   7.083  22.609 -0.0477 -0.1661 -0.0399
85124W        W28218  20.437   3.043  21.332 -0.0272  0.0818  0.2193
85125W        W28219  21.453   6.103  21.067  0.1893 -0.1438 -0.0539
85126W        W28220  20.164   5.278  22.522  0.1051 -0.1255  0.1839
85127W        W28221  17.514   3.839  20.642 -0.0761  0.0591  0.2645
85128W        W28222  17.560   5.251  23.458 -0.1423 -0.0431  0.0194
85129W        W28223  18.373   7.281  19.805 -0.0737  0.2510  0.1118
85130W        W28224  20.692   5.421  22.535  0.0687 -0.0348  0.1510
85131W        W28225  19.817   6.730  21.945  0.3067 -0.3567  0.2026
85132W        W28226  18.458   6.168  20.794  0.0986 -0.0344  0.3717
85133W        W28227  17.442   6.162  23.088  0.0340  0.3592  0.1659
85134W        W28228  20.264   4.798  21.301  0.1284 -0.1458  0.1346
85135W        W28229  20.301   6.595  19.385 -0.0707  0.0622 -0.0096
85136W        W28230  20.842   4.932  20.963 -0.2784 -0.0997 -0.2582
85137W        W28231  20.701   5.191  22.967 -0.1660 -0.0745 -0.0098
85138W        W28232  21.173   6.060  20.620  0.2288 -0.0112  0.1168
85139W        W28233  19.706   3.312  22.899  0.0484  0.3745 -0.3424
85140W        W28234  18.383   3.929  20.946  0.0232 -0.4583  0.0676
85141W        W28235  18.941   6.453  22.117  0.1467  0.1989 -0.0270
85142W        W28236  16.588   4.982  22.381  0.0956 -0.0744 -0.0176
85143W        W28237  20.180   5.912  23.847 -0.0660 -0.3432 -0.0065
85144W        W28238  18.850   5.095  23.554 -0.0850 -0.1272  0.2693
85145W        W28239  20.378   4.529  19.775  0.1365  0.0132  0.1355
85146W        W28240  20.004   3.506  21.059  0.2474 -0.0546 -0.0556
85147W        W28241  19.216   6.945  22.132  0.0536 -0.2200  0.4453
85148W        W28242  20.977   6.847  22.440 -0.0833  0.2125 -0.0036
85149W        W28243  20.677   5.626  20.214 -0.2317  0.2039  0.1264
85150W        W28244  21.942   6.213  21.464 -0.0284 -0.0458  0.1181
85151W        W28245  16.857   4.679  21.142  0.2345 -0.0441 -0.0623
85152W        W28246  19.593   6.046  22.603 -0.0665 -0.0496 -0.1262
85153W        W28247  21.455   5.358  19.973  0.1104 -0.1250 -0.1242
85154W        W28248  19.870   4.475  19.833  0.1249 -0.0649  0.2382
85155W        W28249  19.923   5.052  22.149  0.0915  0.1434  0.0895
85156W        W28250  19.590   7.101  21.758  0.1500  0.0385 -0.0383
85157W        W28251  19.853   4.544  20.866  0.0294  0.0403 -0.0436
85158W        W28252  20.541   4.463  22.483 -0.2103  0.1500 -0.3518
85159W        W28253  19.703   4.908  21.627  0.0482  0.0138  0.0784
85160W        W28254  18.691   4.647  21.478 -0.1472  0.1133 -0.1503
85161W        W28255  17.341   3.618  22.440 -0.2380 -0.1815  0.0707
85162W        W28256  20.148   6.586  23.044  0.0098  0.0214  0.2738
85163W        W28257  21.540   3.641  19.928  0.1082  0.2822 -0.1250
85164W        W28258  21.255   4.345  22.895 -0.0288  0.0724 -0.2697
85165W        W28259  20.955   4.652  19.105  0.2355 -0.5117 -0.2658
85166W        W28260  21.195   5.802  21.393 -0.0201  0.2137  0.0855
85167W        W28261  17.684   3.692  20.171  0.0880  0.0300 -0.2857
85168W        W28262  20.875   5.774  23.965 -0.1362  0.1266 -0.2123
85169W        W28263  18.882   4.461  20.336 -0.0835  0.0254  0.2572
85170W        W28264  20.733   4.022  21.489  0.1193 -0.2997 -0.1067
85171W        W28265  20.187   7.750  20.374 -0.2093  0.3426 -0.0838
85172W        W28266  19.709   7.148  22.276 -0.0577  0.0190 -0.1833
85173W        W28267  20.276   6.277  19.743  0.1387  0.2010 -0.1712
85174W        W28268  18.491   3.731  19.398 -0.0990 -0.3131 -0.2108
85175W        W28269  18.936   7.586  23.279 -0.2220  0.2553  0.3719
85176W        W28270  18.625   5.623  21.505  0.0592 -0.1174  0.2328
85177W        W28271  18.621   6.196  19.825  0.1126  0.0124  0.0020
85178W        W28272  20.813   5.742  22.215  0.2568  0.2593  0.2900
85179W        W28273  21.028   5.261  24.108  0.1180  0.1852  0.0128
85180W        W28274  20.217   5.925  20.304 -0.1477  0.0608 -0.0040
85181W        W28275  20.410   6.341  22.420 -0.2595  0.0567  0.1774
85182W        W28276  16.703   5.331  20.401  0.3322 -0.4413 -0.0819
85183W        W28277  20.154   2.993  20.869 -0.4235  0.1081  0.1285
85184W        W28278  17.810   5.797  21.244  0.3910  0.1206 -0.0787
85185W        W28279  17.671   5.984  22.550  0.1350 -0.0188 -0.0971
85186W        W28280  19.090   6.168  20.732  0.1152 -0.3200  0.2044
85187W        W28281  20.932   5.558  21.748 -0.2772  0.0062  0.1084
85188W        W28282  19.942   5.253  21.357  0.1210  0.3412 -0.2344
85189W        W28283  20.249   4.988  21.759  0.2776  0.0434  0.2868
85190W        W28284  21.140   5.224  22.517 -0.2074  0.0894  0.3278
85191W        W28285  19.239   5.643  22.178  0.2298  0.1510 -0.0464
85192W        W28286  18.303   4.933  21.364 -0.1091 -0.2985 -0.3946
85193W        W28287  19.981   7.396  23.245  0.2278  0.0471  0.1582
85194W        W28288  21.200   6.106  22.266  0.2544 -0.1843 -0.0899
85195W        W28289  19.342   6.112  22.078  0.0257 -0.2193 -0.1765
85196W        W28290  15.563   4.235  24.164  0.2342  0.0656  0.1749
85197W        W28291  19.438   4.422  21.918  0.0924  0.0205  0.0402
85198W        W28292  20.869   6.039  21.722  0.0090 -0.0361  0.3427
85199W        W28293  19.629   3.390  21.765  0.2595 -0.2074  0.0076
85200W        W28294  19.468   6.891  20.764  0.2754 -0.3033  0.2138
85201W        W28295  18.066   4.289  23.292  0.0604 -0.2368 -0.1653
85202W        W28296  18.777   4.792  21.943 -0.1952  0.0218  0.0155
85203W        W28297  19.200   7.675  20.474  0.0813 -0.3871 -0.0385
85204W        W28298  20.347   6.194  20.943 -0.2584  0.0049 -0.0274
85205W        W28299  19.432   6.464  20.997 -0.1871 -0.0720 -0.1689
85206W        W28300  20.058   7.494  22.508  0.0490 -0.1073 -0.2305
85207W        W28301  19.522   4.761  19.208 -0.0511 -0.2019  0.0036
85208W        W28302  18.947   6.398  20.124 -0.0317  0.1053 -0.0515
85209W        W28303  17.434   5.783  20.209 -0.1314  0.1566  0.0644
85210W        W28304  20.563   7.363  20.483 -0.0985  0.1191  0.0154
85211W        W28305  18.217   5.671  21.864 -0.2333 -0.1244  0.1400
85212W        W28306  19.898   6.929  23.251 -0.1517 -0.1998  0.3234
85213W        W28307  20.829   4.469  21.202  0.3750 -0.0554 -0.0429
85214W        W28308  21.815   4.890  21.699  0.0216  0.0511  0.0161
85215W        W28309  21.468   5.031  22.156  0.0302  0.1571  0.1908
85216W        W28310  21.333   6.705  24.157  0.3936 -0.2240 -0.0601
85217W        W28311  19.600   5.564  21.064  0.0746 -0.2553 -0.3551
85218W        W28312  19.415   4.950  20.225 -0.0612  0.3951 -0.2186
85219W        W28313  19.032   4.250  21.649 -0.0039  0.3471  0.4047
85220W        W28314  21.798   3.147  24.006 -0.0971  0.4902  0.1902
85221W        W28315  17.896   6.618  23.337 -0.2236  0.0297 -0.2213
85222W        W28316  19.953   7.833  21.363 -0.0556  0.2677 -0.0103
85223W        W28317  20.182   4.135  19.965  0.1881  0.1281  0.2283
85224W        W28318  19.381   3.694  20.710  0.0012  0.1239 -0.1760
85225W        W28319  22.205   3.131  23.010  0.0529 -0.0045  0.0797
85226W        W28320  19.918   6.703  18.950  0.3111 -0.0878 -0.1357
85227W        W28321  20.100   4.852  19.565  0.1259 -0.0056  0.2442
85228W        W28322  18.317   7.286  19.108  0.0500  0.1311  0.1061
85229W        W28323  18.300   6.527  22.144 -0.0375  0.3337 -0.0828
85230W        W28324  17.787   6.463  22.236 -0.0197  0.1536  0.1258
85231W        W28325  19.749   3.459  19.793 -0.0543  0.2600 -0.0146
85232W        W28326  22.007   3.293  21.385 -0.0292 -0.0198 -0.2089
85233W        W28327  18.663   3.798  21.838 -0.2028 -0.2936  0.3615
85234W        W28328  20.828   2.360  23.611 -0.0593 -0.2440 -0.1714
85235W        W28329  17.300   4.693  20.836  0.2922 -0.1853 -0.1068
85236W        W28330  21.523   5.563  22.557 -0.1224 -0.3261  0.1066
85237W        W28331  19.261   6.125  23.011 -0.3427  0.2326  0.1689
85238W        W28332  18.632   4.395  21.040 -0.0550  0.0698 -0.0975
85239W        W28333  20.443   5.777  19.800 -0.0157  0.0258 -0.0071
85240W        W28334  22.321   5.099  21.946 -0.1445 -0.1168  0.0429
85241W        W28335  19.920   3.485  19.235 -0.4557  0.1880 -0.0787
85242W        W28336  20.901   6.778  24.517 -0.0028  0.2697  0.0979
85243W        W28337  18.575   3.920  19.878 -0.0110  0.1683 -0.0384
85244W        W28338  21.458   3.961  18.624 -0.0802 -0.2067 -0.2897
85245W        W28339  18.112   5.462  21.361 -0.0737  0.1045  0.1429
85246W        W28340  18.508   4.260  20.536  0.0071  0.1660  0.1481
85247W        W28341  20.525   7.685  24.054 -0.2473  0.2394  0.0786
85248W        W28342  19.952   3.738  20.135 -0.0027 -0.1054 -0.2046
85249W        W28343  21.093   7.027  20.511  0.0178 -0.1247  0.2481
85250W        W28344  19.366   5.255  21.436  0.0978 -0.0491  0.0275
85251W        W28345  19.658   9.022  21.407  0.1334  0.1629 -0.3058
85252W        W28346  21.210   6.523  20.862  0.0082  0.1548  0.2667
85253W        W28347  19.354   7.123  23.077  0.1149 -0.0203  0.0481
85254W        W28348  16.989   4.308  21.659  0.1250 -0.1144  0.3273
85255W        W28349  19.408   6.954  21.325  0.1130 -0.1449  0.1255
85256W        W28350  21.553   7.237  22.053  0.0311 -0.2026  0.0317
85257W        W28351  20.100   3.493  21.543  0.1017  0.0268  0.1343
85258W        W28352  18.149   4.304  22.322  0.0960 -0.4396 -0.0649
85259W        W28353  17.510   6.323  20.262 -0.0922 -0.1389  0.0941
85260W        W28354  20.622   4.733  23.334 -0.0259  0.0981  0.0489
85261W        W28355  20.560   4.441  21.660 -0.2117  0.0323  0.2378
85262W        W28356  21.326   7.391  19.507  0.0532  0.0671 -0.1810
85263W        W28357  21.839   3.262  23.491  0.0598  0.0809 -0.0543
85264W        W28358  17.730   5.544  21.988  0.2164 -0.1454 -0.0452
85265W        W28359  18.198   6.333  23.117  0.0348  0.1267  0.1252
85266W        W28360  18.285   5.333  20.546  0.1281  0.2052  0.0985
85267W        W28361  19.153   3.578  23.641 -0.2165 -0.2387  0.0539
85268W        W28362  19.861   6.075  21.027  0.0882 -0.0015  0.1894
85269W        W28363  21.017   7.385  22.104  0.1634  0.0845  0.1122
85270W        W28364  22.265   4.661  22.014  0.0068 -0.1227 -0.0504
85271W        W28365  20.216   5.197  20.909  0.2494 -0.0127  0.2813
85272W        W28366  20.911   6.311  22.704 -0.1134  0.1356 -0.0115
85273W        W28367  20.382   4.708  20.855 -0.0567 -0.2536  0.2262
85274W        W28368  23.457   3.000  21.384  0.1120 -0.0790  0.2656
85275W        W28369  22.030   3.358  22.280  0.2112 -0.1618 -0.2740
85276W        W28370  18.920   5.247  21.695  0.1287  0.2392 -0.0105
85277W        W28371  17.669   5.014  20.654 -0.0250 -0.2672 -0.0923
85278W        W28372  17.911   5.546  19.954  0.0793 -0.0139 -0.0602
85279W        W28373  18.918   5.058  21.163  0.0823 -0.0008  0.0595
85280W        W28374  19.665   2.294  23.136  0.2260 -0.1388  0.4437
85281W        W28375  17.361   5.082  21.827 -0.3398  0.0183  0.0982
85282W        W28376  18.848   4.786  20.732  0.1356  0.2866  0.3273
85283W        W28377  20.327   3.822  20.813 -0.1571 -0.0384  0.3209
85284W        W28378  20.897   7.884  21.963  0.1559  0.1231  0.0164
85285W        W28379  19.418   3.194  20.666  0.3306  0.0772 -0.0270
85286W        W28380  19.352   4.572  20.541 -0.0049  0.0274 -0.0888
85287W        W28381  20.660   6.586  20.930  0.0923 -0.0558  0.1818
85288W        W28382  20.888   7.510  21.570  0.0248 -0.1513 -0.1692
85289W        W28383  21.204   5.715  20.235 -0.0493  0.0752 -0.2126
85290W        W28384  20.056   6.616  23.689 -0.2293  0.0021 -0.1278
85291W        W28385  17.437   6.604  18.725 -0.0037  0.1359 -0.0322
85292W        W28386  19.217   4.731  21.568 -0.2765 -0.0688 -0.0625
85293W        W28387  19.507   3.657  23.253  0.0541  0.3058 -0.2847
85294W        W28388  18.265   4.736  19.426  0.0440  0.1765  0.0946
85295W        W28389  20.415   5.848  21.779 -0.1819  0.1430  0.0231
85296W        W28390  19.744   6.615  21.491  0.1603  0.1101 -0.0564
85297W        W28391  20.278   7.507  20.941  0.0162  0.1548  0.0791
85298W        W28392  18.078   4.731  22.564 -0.0416  0.0605 -0.1621
85299W        W28393  19.197   7.187  23.572  0.1795  0.1350  0.0882
85300W        W28394  17.704   2.260  21.757  0.0245 -0.2126 -0.1311
85301W        W28395  20.416   7.030  20.947  0.1434 -0.3305 -0.0366
85302W        W28396  19.011   6.137  21.711 -0.1262 -0.1008 -0.3906
85303W        W28397  22.478   6.671  21.233  0.2455 -0.1528 -0.1359
85304W        W28398  20.893   2.616  22.006  0.5438 -0.1622 -0.1720
85305W        W28399  20.261   6.409  20.490  0.0609  0.1745  0.0495
85306W        W28400  17.770   4.466  22.919 -0.1056 -0.1882 -0.1268
85307W        W28401  19.547   5.401  21.909  0.0275 -0.1770 -0.1673
85308W        W28402  21.005   5.132  22.021 -0.1515 -0.1044 -0.0690
85309W        W28403  18.829   2.525  22.077 -0.1466  0.0807  0.0324
85310W        W28404  21.316   5.216  21.689  0.0345  0.0203 -0.0077
85311W        W28405  20.044   7.390  18.845  0.3519  0.1840  0.0896
85312W        W28406  17.612   5.394  21.020 -0.0651 -0.2033  0.1960
85313W        W28407  21.634   4.921  19.677  0.1998 -0.0995  0.1176
85314W        W28408  20.304   5.810  22.262  0.1976 -0.1465 -0.4665
85315W        W28409  19.095   6.097  22.488  0.3703 -0.1491 -0.4360
85316W        W28410  19.709   6.394  22.981  0.0380 -0.0863  0.0816
85317W        W28411  20.088   4.477  18.665 -0.2978 -0.0645 -0.0307
85318W        W28412  22.159   6.923  19.954 -0.0341  0.3014  0.1608
85319W        W28413  20.180   7.470  23.724  0.1417 -0.1209 -0.0579
85320W        W28414  22.096   8.413  24.655 -0.0146 -0.1083  0.1043
85321W        W28415  18.707   7.543  21.380  0.2967 -0.2912  0.1665
85322W        W28416  21.159   4.879  23.438 -0.1357  0.1008  0.1332
85323W        W28417  17.345   3.333  21.335 -0.1181 -0.0833  0.0248
85324W        W28418  17.722   3.587  21.958 -0.0313  0.4540  0.0955
85325W        W28419  20.289   3.991  19.465  0.1664  0.0889 -0.1549
85326W        W28420  20.379   4.887  22.769 -0.0163  0.1587  0.2049
85327W        W28421  18.714   3.098  20.947  0.0161 -0.4196 -0.3206
85328W        W28422  22.385   3.209  20.889 -0.1710 -0.1243  0.2082
85329W        W28423  18.281   5.775  23.212 -0.0271 -0.0699 -0.1010
85330W        W28424  21.332   5.538  22.086 -0.0333  0.1226 -0.1356
85331W        W28425  19.729   6.737  26.344  0.1320  0.0242 -0.0467
85332W        W28426  18.776   4.227  22.817  0.0075  0.1831 -0.1973
85333W        W28427  22.627   3.866  23.271  0.0883  0.1630  0.1233
85334W        W28428  21.663   6.739  25.103  0.1105 -0.1593  0.5344
85335W        W28429  18.053   3.751  24.531 -0.2052  0.1174 -0.2915
85336W        W28430  20.361   6.872  24.765  0.1476 -0.0246  0.2637
85337W        W28431  19.283   2.673  26.464  0.1574 -0.0586  0.0217
85338W        W28432  20.282   6.510  25.675  0.1240  0.0958 -0.2442
85339W        W28433  21.849   6.974  25.600  0.1772  0.1356 -0.0356
85340W        W28434  21.553   5.000  24.418  0.3262 -0.4518 -0.1215
85341W        W28435  18.429   5.125  25.686  0.1583  0.2301  0.1192
85342W        W28436  19.785   6.336  26.960 -0.1809 -0.1181  0.0794
85343W        W28437  18.645   4.204  23.881  0.0885 -0.0845  0.0174
85344W        W28438  18.144   3.746  25.455  0.2207  0.1175 -0.1765
85345W        W28439  20.157   4.569  26.647  0.1090 -0.1402 -0.1323
85346W        W28440  19.089   5.006  25.334 -0.0732 -0.2926 -0.3441
85347W        W28441  19.430   3.999  25.724  0.1704  0.3054  0.0398
85348W        W28442  19.367   4.929  22.970  0.0951 -0.1273 -0.2033
85349W        W28443  20.619   7.144  25.210  0.0837  0.1137 -0.0035
85350W        W28444  19.144   5.139  26.654  0.0936  0.1025  0.2246
85351W        W28445  19.792   4.740  27.166  0.2972  0.0393 -0.0373
85352W        W28446  19.520   6.201  24.476 -0.0911 -0.1000 -0.2185
85353W        W28447  17.269   4.553  22.009 -0.1911  0.0190  0.4182
85354W        W28448  18.265   4.839  25.258 -0.0735  0.1213 -0.1042
85355W        W28449  19.219   5.604  25.604  0.0790 -0.0880  0.0783
85356W        W28450  19.379   4.866  24.768 -0.0734 -0.2881 -0.1661
85357W        W28451  21.064   5.711  26.357 -0.1009 -0.0557 -0.1919
85358W        W28452  19.963   6.050  24.622  0.0327  0.0957 -0.2090
85359W        W28453  20.092   6.121  25.284  0.2442 -0.3374  0.0456
85360W        W28454  19.999   5.884  26.519  0.1403 -0.0787  0.1019
85361W        W28455  18.423   6.764  25.394  0.1843  0.0171  0.1110
85362W        W28456  18.128   6.655  25.937  0.0843 -0.1190 -0.0565
85363W        W28457  19.238   6.005  23.514  0.1473 -0.3917  0.1012
85364W        W28458  22.686   6.415  24.308 -0.0286 -0.0301 -0.1396
85365W        W28459  20.077   7.416  26.045 -0.1282  0.2851 -0.4331
85366W        W28460  20.592   7.324  26.763 -0.0002 -0.0284  0.3202
85367W        W28461  18.602   6.152  23.265 -0.2581 -0.0347 -0.3068
85368W        W28462  19.613   6.251  26.407 -0.1403 -0.1135 -0.0470
85369W        W28463  19.015   6.050  25.626  0.4928  0.2465 -0.3043
85370W        W28464  19.811   5.248  23.866  0.0467 -0.1112 -0.1662
85371W        W28465  20.123   5.386  24.306  0.0744  0.0367 -0.0160
85372W        W28466  19.242   6.648  22.907 -0.2163  0.0316 -0.0199
85373W        W28467  20.787   5.349  26.043  0.0624  0.2874 -0.0449
85374W        W28468  19.398   4.915  28.620 -0.0453  0.0195 -0.0202
85375W        W28469  18.688   6.585  26.584 -0.1322  0.0312 -0.0422
85376W        W28470  22.424   5.615  26.779  0.3562  0.0837 -0.0680
85377W        W28471  19.446   7.317  24.331  0.2501  0.2198  0.4190
85378W        W28472  21.243   2.927  22.851  0.3777 -0.2299  0.0465
85379W        W28473  19.810   4.971  22.700  0.4057 -0.0633 -0.1614
85380W        W28474  20.756   4.673  24.352  0.0781 -0.0133  0.1240
85381W        W28475  19.879   3.341  26.229 -0.1837  0.1016  0.1572
85382W        W28476  20.283   5.468  24.780  0.0881  0.3830  0.0142
85383W        W28477  19.056   4.521  25.206 -0.0802 -0.1233  0.0218
85384W        W28478  19.958   6.601  27.459  0.4063  0.0278 -0.0278
85385W        W28479  19.248   4.159  22.590 -0.0727  0.0581 -0.0739
85386W        W28480  20.037   4.773  25.652  0.2394  0.3118  0.1442
85387W        W28481  18.944   8.243  26.543 -0.1239 -0.0067 -0.1434
85388W        W28482  19.193   5.254  24.517 -0.1398 -0.1927  0.1744
85389W        W28483  21.294   6.223  24.262  0.1539 -0.3785 -0.1223
85390W        W28484  20.593   6.617  26.149 -0.1236 -0.1839 -0.0589
85391W        W28485  20.505   6.550  23.401 -0.2427 -0.1008  0.2152
85392W        W28486  18.082   4.992  23.611  0.0110 -0.0739  0.2584
85393W        W28487  18.852   5.457  26.443 -0.0969 -0.3117 -0.1298
85394W        W28488  18.144   4.991  26.588  0.2027  0.0505 -0.0231
85395W        W28489  19.069   3.248  21.791  0.1172  0.0011  0.0457
85396W        W28490  21.063   5.180  27.744  0.0540 -0.0104 -0.0739
85397W        W28491  18.540   6.839  26.987  0.0398 -0.1149  0.3125
85398W        W28492  21.078   5.072  24.561 -0.1524 -0.0750 -0.1907
85399W        W28493  20.710   6.382  26.654 -0.1510 -0.1374 -0.2625
85400W        W28494  21.802   7.843  26.063  0.3546  0.0732 -0.2128
85401W        W28495  20.905   6.217  23.348 -0.2876 -0.1728  0.0275
85402W        W28496  20.116   3.119  23.665 -0.2210 -0.2818  0.0647
85403W        W28497  20.740   3.795  25.584  0.0295  0.0600 -0.0457
85404W        W28498  18.533   4.901  22.920 -0.0649 -0.2181 -0.0759
85405W        W28499  19.683   6.365  23.538  0.0904  0.0042  0.0112
85406W        W28500  22.074   6.185  26.409 -0.3302 -0.2227  0.3188
85407W        W28501  21.030   5.771  24.476 -0.0638 -0.1513 -0.1482
85408W        W28502  17.261   5.916  28.253 -0.1927 -0.0482 -0.0587
85409W        W28503  18.663   2.092  24.749  0.0957  0.1550  0.0870
85410W        W28504  21.444   6.262  27.065  0.0917  0.0875 -0.1695
85411W        W28505  18.356   7.526  23.583  0.0355  0.0955 -0.3082
85412W        W28506  19.715   5.735  24.878  0.1353 -0.1476 -0.1140
85413W        W28507  17.968   6.332  23.840  0.1601  0.0690 -0.3228
85414W        W28508  17.828   3.548  25.899 -0.2587 -0.1589 -0.1799
85415W        W28509  19.384   4.326  26.279  0.1000 -0.1116  0.0740
85416W        W28510  21.713   4.295  24.725 -0.1591 -0.2954 -0.3112
85417W        W28511  18.991   4.010  26.022 -0.0111  0.0735 -0.5958
85418W        W28512  20.468   4.479  24.848  0.0966  0.5321  0.1549
85419W        W28513  17.833   6.807  24.183 -0.2566 -0.0201  0.0224
85420W        W28514  22.075   7.927  25.623  0.1112  0.1567  0.1597
85421W        W28515  21.687   6.076  24.594  0.0399 -0.0725 -0.1008
85422W        W28516  21.097   6.258  23.797  0.2653  0.0627 -0.1395
85423W        W28517  18.415   3.833  26.344 -0.2795  0.0970 -0.1915
85424W        W28518  18.955   5.082  24.047 -0.1307  0.0896  0.4312
85425W        W28519  19.136   3.193  27.347  0.2834 -0.1600 -0.1557
85426W        W28520  21.009   4.141  26.505 -0.1933  0.1471  0.2962
85427W        W28521  21.822   4.579  26.162 -0.0546  0.0011 -0.1508
85428W        W28522  18.366   4.890  24.024 -0.1710  0.1389  0.1715
85429W        W28523  22.110   6.595  25.276  0.2576  0.0061  0.0002
85430W        W28524  19.708   5.728  23.776 -0.1562 -0.3071 -0.1801
85431W        W28525  18.656   5.366  22.741  0.2121 -0.0890 -0.2876
85432W        W28526  21.183   6.082  25.775 -0.1654 -0.1929 -0.0939
85433W        W28527  19.997   6.535  24.837 -0.0212 -0.0816 -0.1820
85434W        W28528  20.709   6.144  27.576 -0.0495 -0.2023  0.1235
85435W        W28529  21.180   6.872  25.303  0.1006  0.0732 -0.0652
85436W        W28530  19.154   5.545  27.375  0.1176  0.0077  0.0510
85437W        W28531  19.112   3.942  22.026 -0.2473  0.0467  0.0788
85438W        W28532  18.821   5.493  25.292 -0.1050  0.1741 -0.1748
85439W        W28533  20.732   6.263  25.780  0.0376 -0.1048  0.0121
85440W        W28534  19.376   4.840  23.965 -0.0870 -0.1762 -0.1822
85441W        W28535  22.486   6.283  25.323 -0.2464 -0.0499 -0.2140
85442W        W28536  19.815   5.841  23.312  0.0543 -0.1571 -0.2205
85443W        W28537  17.479   6.990  26.002 -0.2154 -0.1359  0.2063
85444W        W28538  20.181   4.300  25.800  0.1715 -0.1144  0.2628
85445W        W28539  21.669   7.574  27.465 -0.2668 -0.0386  0.1687
85446W        W28540  19.907   4.791  24.090  0.0962 -0.0695 -0.0164
85447W        W28541  17.809   3.170  21.731 -0.0324  0.0776 -0.2442
85448W        W28542  21.444   7.277  25.485 -0.1297  0.1640  0.0960
85449W        W28543  17.511   6.387  24.102  0.0709 -0.3944 -0.2226
85450W        W28544  18.356   5.248  24.937  0.0829  0.3377 -0.0442
85451W        W28545  19.340   5.374  24.065 -0.4177 -0.0185  0.1107
85452W        W28546  21.352   5.723  24.950  0.2112  0.4802 -0.1396
85453W        W28547  19.047   4.634  27.631  0.1456  0.1934 -0.1024
85454W        W28548  20.011   4.693  26.133  0.4795  0.2500 -0.1172
85455W        W28549  18.926   3.800  24.053  0.0521 -0.1228  0.0730
85456W        W28550  18.822   6.114  26.671 -0.0271 -0.0844  0.0789
85457W        W28551  21.383   2.505  24.807  0.0715  0.0198 -0.1896
85458W        W28552  20.165   4.444  23.769  0.0741  0.4286  0.0543
85459W        W28553  19.605   5.281  27.808 -0.0698  0.3525 -0.0014
85460W        W28554  22.241   6.118  24.449 -0.1904 -0.1320  0.1049
85461W        W28555  22.138   4.031  23.437  0.1438 -0.0929  0.1944
85462W        W28556  20.950   3.449  23.545  0.0314  0.4202  0.1755
85463W        W28557  18.361   4.864  27.683 -0.1822 -0.2063  0.1460
85464W        W28558  20.554   6.185  25.290 -0.2775  0.0225  0.0024
85465W        W28559  20.573   5.738  26.695 -0.0894  0.2130  0.1623
85466W        W28560  20.156   5.284  23.117  0.1050 -0.1105  0.3021
85467W        W28561  22.798   7.290  25.212 -0.2598  0.4204 -0.0432
85468W        W28562  18.569   5.843  25.613  0.0717 -0.0145 -0.3968
85469W        W28563  20.291   7.143  25.616 -0.2328 -0.0345 -0.4525
85470W        W28564  20.413   7.839  25.127  0.3528 -0.2301  0.1669
85471W        W28565  19.564   3.355  27.175  0.3203 -0.0407  0.0490
85472W        W28566  19.909   4.489  22.679  0.0440 -0.0153 -0.3355
85473W        W28567  19.931   2.597  24.724  0.2881  0.0734  0.2358
85474W        W28568  17.170   6.587  22.685  0.0444 -0.4622 -0.2551
85475W        W28569  20.817   5.664  24.952 -0.0654  0.1122 -0.0009
85476W        W28570  19.055   4.396  25.683 -0.0935 -0.2148  0.0693
85477W        W28571  19.874   4.159  27.953 -0.2291 -0.0822  0.0697
85478W        W28572  20.935   5.094  28.330 -0.0418  0.1455 -0.1547
85479W        W28573  19.958   4.633  24.593 -0.2792 -0.4424  0.2527
85480W        W28574  19.812   4.174  26.142 -0.0081  0.2923  0.0680
85481W        W28575  19.143   4.086  23.671 -0.0689  0.3288 -0.1784
85482W        W28576  20.794   4.413  25.558  0.0325 -0.0201 -0.3371
85483W        W28577  20.203   5.707  27.233  0.0977 -0.2540 -0.0269
85484W        W28578  17.417   7.897  26.946 -0.0479 -0.0261 -0.0254
85485W        W28579  19.926   7.307  26.654 -0.0697 -0.5473 -0.2636
85486W        W28580  21.397   6.568  24.589 -0.4008 -0.1130 -0.0175
85487W        W28581  18.986   3.081  26.626 -0.0840  0.0262  0.0113
85488W        W28582  18.174   4.159  24.143 -0.0883  0.1531 -0.0202
85489W        W28583  19.138   7.118  24.743 -0.0146 -0.1117 -0.4229
85490W        W28584  19.057   5.281  23.110  0.1775 -0.0429 -0.1901
85491W        W28585  19.541   2.817  26.052  0.1218 -0.0309  0.2308
85492W        W28586  19.818   6.536  25.371 -0.2467 -0.0984 -0.2599
85493W        W28587  18.911   6.972  23.154 -0.3050  0.1017  0.1040
85494W        W28588  20.478   5.671  25.352 -0.0561 -0.3338 -0.0464
85495W        W28589  17.435   6.287  23.586  0.1494 -0.0040  0.4188
85496W        W28590  21.195   3.914  25.269  0.0866 -0.0786 -0.2226
85497W        W28591  19.487   6.389  27.329 -0.1392  0.1284  0.0700
85498W        W28592  19.005   4.607  23.687  0.2245 -0.2461  0.2782
85499W        W28593  17.442   6.150  24.995  0.2226 -0.3051  0.1677
85500W        W28594  21.731   3.958  24.221 -0.0869  0.0310  0.0188
85501W        W28595  22.016   5.698  24.667  0.0753  0.1679  0.4615
85502W        W28596  18.696   3.418  27.687 -0.3319 -0.1866  0.0680
85503W        W28597  19.791   3.175  25.751 -0.2567 -0.0716 -0.0323
85504W        W28598  20.397   5.922  24.934  0.3939  0.2491  0.2378
85505W        W28599  20.282   6.959  26.499  0.0306 -0.0117 -0.3978
85506W        W28600  20.460   3.703  23.652  0.2319  0.0333  0.1692
85507W        W28601  21.301   6.347  27.578  0.1266 -0.1375  0.0119
85508W        W28602  19.020   5.132  28.296  0.2075 -0.1453  0.1143
85509W        W28603  19.381   3.645  22.782  0.0584 -0.1772  0.1254
85510W        W28604  24.560   4.307  25.678 -0.2304  0.0570  0.4396
85511W        W28605  19.345   4.068  24.449  0.0374 -0.2812  0.1521
85512W        W28606  18.292   6.195  24.724 -0.0611 -0.1709  0.1652
85513W        W28607  20.032   5.516  25.191 -0.0393 -0.3496 -0.2300
85514W        W28608  19.339   5.652  23.218 -0.2006 -0.1455 -0.0869
85515W        W28609  17.901   7.245  23.905  0.1180  0.0138 -0.1047
85516W        W28610  19.232   3.937  26.626 -0.0821 -0.1194 -0.0701
85517W        W28611  21.350   6.824  26.782 -0.2636  0.0932  0.2735
85518W        W28612  18.890   5.587  24.249  0.1388  0.1197 -0.0536
85519W        W28613  18.314   3.945  23.590 -0.2101  0.0191 -0.0476
85520W        W28614  19.570   4.637  25.372  0.1375 -0.0222 -0.1212
85521W        W28615  21.743   7.009  26.460 -0.3315  0.4514 -0.0957
85522W        W28616  19.626   5.547  26.560  0.0007 -0.0493  0.1286
85523W        W28617  19.187   6.597  26.545 -0.4691 -0.3095 -0.1804
85524W        W28618  20.708   3.319  24.359  0.3436  0.0271 -0.1812
85525W        W28619  23.606   8.587  24.751 -0.1685  0.0534  0.2617
85526W        W28620  19.211   5.844  26.339 -0.0822 -0.1212  0.1379
85527W        W28621  19.616   4.085  22.219  0.1968 -0.0637 -0.0479
85528W        W28622  17.633   5.713  25.319 -0.2975  0.1311  0.1663
85529W        W28623  18.681   6.353  23.742 -0.3209  0.4023 -0.2178
85530W        W28624  18.966   4.363  24.646 -0.0959  0.0386  0.0157
85531W        W28625  19.639   6.259  24.971  0.2775 -0.1739  0.0925
85532W        W28626  19.140   5.504  23.632  0.0024 -0.0521  0.2762
85533W        W28627  19.074   6.979  26.890  0.1591 -0.2527 -0.0442
85534W        W28628  19.877   4.022  23.609 -0.2614 -0.0165 -0.1074
85535W        W28629  22.303   6.681  22.841 -0.2169 -0.2286 -0.4125
85536W        W28630  18.756   5.014  24.950  0.0842  0.0275 -0.0712
85537W        W28631  21.138   4.665  27.522 -0.0252  0.4162  0.1037
85538W        W28632  19.835   4.279  24.119 -0.1168 -0.0762  0.0283
85539W        W28633  21.226   4.260  26.985  0.0231  0.2110 -0.0000
85540W        W28634  19.355   3.278  26.285 -0.0790  0.0318 -0.0080
85541W        W28635  23.420   5.648  25.394  0.2389  0.0966 -0.1536
85542W        W28636  18.866   5.657  25.981 -0.2480  0.0117  0.2045
85543W        W28637  21.353   6.995  30.260 -0.2037 -0.0855 -0.1878
85544W        W28638  18.305   6.403  26.334 -0.0976 -0.2674 -0.0078
85545W        W28639  19.610   4.502  23.630 -0.0143 -0.0340  0.2449
85546W        W28640  18.544   3.975  22.359 -0.1087 -0.0834 -0.3592
85547W        W28641  20.292   5.926  25.712 -0.2478  0.2105  0.3710
85548W        W28642  21.618   6.455  25.554 -0.1075 -0.0223  0.0286
85549W        W28643  21.359   5.253  23.733 -0.0199  0.0610  0.1009
85550W        W28644  21.431   5.622  25.474 -0.1672 -0.1414 -0.3185
85551W        W28645  19.315   5.867  25.183 -0.1897  0.2191 -0.0959
85552W        W28646  21.007   6.225  24.896 -0.2041 -0.0863  0.1103
85553W        W28647  20.635   5.301  24.488 -0.0218  0.0648 -0.4928
85554W        W28648  18.545   5.115  26.281  0.4579  0.3073 -0.2443
85555W        W28649  18.353   4.042  28.531  0.3657 -0.0436  0.1080
85556W        W28650  20.054   6.238  25.974  0.0328  0.0529 -0.0703
85557W        W28651  21.030   6.187  26.265  0.0566 -0.2487  0.1168
85558W        W28652  19.259   4.090  25.267  0.3096 -0.0728  0.1138
85559W        W28653  19.678   5.902  26.073  0.0010 -0.0439 -0.1434
85560W        W28654  18.687   4.450  26.042  0.0596  0.0940  0.4028
85561W        W28655  18.006   5.193  26.128 -0.1035  0.1119 -0.0488
85562W        W28656  21.662   8.290  25.314  0.0728  0.2418  0.6282
85563W        W28657  21.446   6.221  25.121  0.3029 -0.0847 -0.0339
85564W        W28658  22.817   5.604  25.895 -0.0111 -0.1627 -0.0384
85565W        W28659  22.545   7.388  24.767 -0.1371  0.0981 -0.1206
85566W        W28660  20.347   4.958  24.713  0.1540  0.2068 -0.0102
85567W        W28661  19.966   3.264  24.231 -0.1873  0.3133  0.0178
85568W        W28662  20.747   6.174  29.352 -0.0715 -0.2579 -0.0758
85569W        W28663  19.567   4.367  23.037  0.1070  0.1649 -0.2049
85570W        W28664  20.526   4.765  25.365  0.1939 -0.1986  0.0561
85571W        W28665  19.658   7.270  23.583  0.1574  0.3322  0.2799
85572W        W28666  21.236   4.594  24.507 -0.0433 -0.3279 -0.1474
85573W        W28667  20.057   4.859  25.167 -0.0342 -0.1852  0.0556
85574W        W28668  19.566   3.693  25.317  0.1878 -0.1004 -0.0552
85575W        W28669  18.702   5.627  28.294  0.2865 -0.1622  0.0826
85576W        W28670  18.479   4.317  21.963  0.1267  0.1931 -0.0288
85577W        W28671  20.540   5.293  22.010  0.1467 -0.1413  0.0534
85578W        W28672  21.127   7.085  25.835  0.0528 -0.3981  0.1640
85579W        W28673  19.377   6.065  26.805 -0.1515 -0.3458 -0.0933
85580W        W28674  18.773   3.685  22.811 -0.1657  0.0374 -0.1368
85581W        W28675  21.964   5.314  26.963  0.0284 -0.0484  0.0019
85582W        W28676  18.303   6.753  23.896 -0.1763  0.2641  0.1035
85583W        W28677  20.328   3.690  24.242 -0.0895 -0.3274 -0.1854
85584W        W28678  19.047   7.772  24.826 -0.0730  0.1451  0.1619
85585W        W28679  19.202   7.498  26.287 -0.3509 -0.0558  0.3909
85586W        W28680  18.672   5.961  24.017 -0.0621  0.0683 -0.0977
85587W        W28681  20.058   3.791  26.458 -0.1959 -0.1682  0.2052
85588W        W28682  21.785   5.972  25.486 -0.1880  0.0382  0.0578
85589W        W28683  20.371   5.315  25.728 -0.0556  0.3478  0.1982
85590W        W28684  20.463   5.284  27.565 -0.1159 -0.3238 -0.0372
85591W        W28685  19.697   6.590  25.846 -0.0296  0.2089 -0.3331
85592W        W28686  18.863   5.478  24.813  0.1837 -0.0095 -0.0174
85593W        W28687  20.854   8.305  27.429  0.3978  0.0479  0.0475
85594W        W28688  23.664   7.300  25.500  0.0318 -0.2020 -0.2515
85595W        W28689  20.156   5.601  26.149  0.0681 -0.1498  0.0015
85596W        W28690  18.070   4.736  27.282 -0.3036 -0.3188 -0.0982
85597W        W28691  19.466   5.389  28.382  0.1043  0.1859 -0.1505
85598W        W28692  20.475   6.056  26.304  0.0013 -0.4572  0.0426
85599W        W28693  18.476   3.644  23.980  0.2788  0.0701 -0.3130
85600W        W28694  19.883   6.382  22.332 -0.1440  0.1583  0.1284
85601W        W28695  18.792   7.325  27.240 -0.3381  0.0094 -0.1817
85602W        W28696  18.988   4.873  25.963  0.0186 -0.2812 -0.2532
85603W        W28697  19.194   6.447  23.859 -0.2183  0.1894 -0.0013
85604W        W28698  20.601   5.228  25.104 -0.1283 -0.0952 -0.1811
85605W        W28699  21.205   5.196  25.105  0.2831 -0.1238 -0.1138
85606W        W28700  20.735   6.774  25.606  0.0980  0.3642  0.1448
85607W        W28701  19.534   4.585  24.370  0.0085  0.1116 -0.1815
85608W        W28702  18.789   5.921  25.037 -0.2449  0.0630  0.0216
85609W        W28703  17.523   6.927  22.705  0.2104 -0.0719 -0.2256
85610W        W28704  20.656   7.440  25.850  0.0688 -0.0854  0.1049
85611W        W28705  17.210   6.041  24.424 -0.3410  0.0124  0.3575
85612W        W28706  20.073   7.566  28.114 -0.4527 -0.3174  0.1263
85613W        W28707  20.780   4.745  23.785  0.1729  0.0273  0.1385
85614W        W28708  20.764   6.685  25.071  0.0977  0.0772 -0.1086
85615W        W28709  22.035   4.819  24.111 -0.0932  0.0378  0.0546
85616W        W28710  19.541   6.597  27.787 -0.1998 -0.1008  0.1666
85617W        W28711  19.587   4.526  25.879 -0.2384  0.1279 -0.0174
85618W        W28712  20.296   4.205  22.859 -0.2471  0.2266  0.1126
85619W        W28713  19.208   5.637  26.790  0.1024  0.0702 -0.0447
85620W        W28714  23.119   4.941  26.552 -0.0322 -0.2274 -0.2604
85621W        W28715  19.606   7.642  28.316  0.0878 -0.1943  0.0160
85622W        W28716  22.408   7.797  24.495 -0.0069 -0.0495 -0.0848
85623W        W28717  18.626   4.059  24.371 -0.4148 -0.1159  0.0894
85624W        W28718  19.269   5.952  24.082 -0.0193 -0.1385 -0.0258
85625W        W28719  21.441   4.116  26.213 -0.2306  0.1165  0.0576
85626W        W28720  19.506   5.269  22.443 -0.0055  0.0960  0.0078
85627W        W28721  21.276   4.697  25.412 -0.3517  0.0641  0.1927
85628W        W28722  19.699   5.135  25.347 -0.1014 -0.0714 -0.1205
85629W        W28723  18.501   6.962  24.957 -0.0771  0.0971 -0.2650
85630W        W28724  19.261   5.314  26.123  0.2727 -0.1985 -0.2724
85631W        W28725  16.694   6.049  25.596 -0.0667  0.0295 -0.1651
85632W        W28726  22.139   5.114  25.015  0.2367 -0.1727  0.1291
85633W        W28727  19.421   4.189  27.041  0.3471  0.1365 -0.1654
85634W        W28728  21.288   4.604  26.590 -0.1495  0.0047 -0.1680
85635W        W28729  18.474   5.399  23.734  0.1175  0.2392  0.1859
85636W        W28730  20.949   5.887  25.365 -0.1457 -0.0916 -0.0306
85637W        W28731  19.939   3.830  25.806 -0.2835 -0.2882 -0.1250
85638W        W28732  19.804   5.188  26.071  0.1247  0.0563  0.1635
85639W        W28733  19.657   5.134  24.388 -0.0265 -0.1514 -0.0826
85640W        W28734  21.529   5.452  26.409 -0.1003  0.0075 -0.1774
85641W        W28735  21.352   4.924  22.993  0.2911 -0.2094  0.1224
85642W        W28736  20.594   6.914  27.131 -0.3944 -0.1666  0.0999
85643W        W28737  20.214   4.091  24.648 -0.1692 -0.0935  0.1913
85644W        W28738  20.937   4.556  22.107 -0.1990 -0.1220  0.0836
85645W        W28739  19.733   5.754  24.368 -0.1200  0.1045 -0.2429
85646W        W28740  19.371   4.849  26.264  0.0671  0.2361  0.1957
85647W        W28741  21.099   7.342  26.790  0.3434 -0.2738  0.2208
85648W        W28742  17.879   3.607  23.415 -0.0811 -0.1755  0.0805
85649W        W28743  20.825   6.298  24.413  0.0589 -0.2129 -0.1434
85650W        W28744  21.805   5.407  25.706  0.0487 -0.2379  0.3781
85651W        W28745  20.465   6.422  24.738  0.0922  0.2500 -0.0470
85652W        W28746  21.530   5.571  24.484 -0.4092 -0.3105  0.0466
85653W        W28747  21.474   7.654  24.916 -0.0614  0.2647  0.0014
85654W        W28748  19.516   2.988  24.690 -0.1690  0.0058  0.0155
85655W        W28749  21.151   6.633  26.342 -0.3006  0.2366  0.0416
85656W        W28750  20.713   8.178  24.928 -0.0155  0.1115  0.1312
85657W        W28751  19.791   3.835  24.886  0.0020 -0.0912  0.1339
85658W        W28752  18.821   6.099  24.539  0.1745  0.0480  0.2180
85659W        W28753  18.378   7.085  25.788  0.4007  0.1428  0.0861
85660W        W28754  21.027   5.203  26.442  0.2590  0.1282  0.0996
85661W        W28755  21.526   5.969  26.483  0.3455 -0.2448  0.0602
85662W        W28756  20.325   7.208  22.934  0.3076  0.0626 -0.2909
85663W        W28757  21.384   4.131  25.727 -0.0552 -0.1618 -0.1931
85664W        W28758  19.320   6.346  25.326 -0.0312  0.1697 -0.0097
85665W        W28759  18.697   7.730  26.957 -0.5067 -0.0391  0.2137
85666W        W28760  17.262   3.727  23.015 -0.0121 -0.0626 -0.0397
85667W        W28761  18.555   5.925  26.289  0.0030  0.2248  0.0561
85668W        W28762  20.398   4.973  24.100 -0.0553 -0.0636 -0.0003
85669W        W28763  20.525   5.762  24.362  0.1426  0.1470  0.0142
85670W        W28764  21.585   6.756  26.038 -0.0269 -0.0061 -0.1538
85671W        W28765  20.186   4.514  23.247 -0.1455  0.1437 -0.2750
85672W        W28766  21.259   6.999  24.846 -0.0879 -0.0202 -0.1484
85673W        W28767  19.911   4.394  25.002  0.2185 -0.1633 -0.2244
85674W        W28768  21.052   4.313  24.131 -0.2790  0.1124 -0.0497
85675W        W28769  20.412   3.187  24.013 -0.0771 -0.0661 -0.0198
85676W        W28770  19.042   5.166  27.138 -0.1959 -0.0758 -0.1133
85677W        W28771  16.925   5.189  22.695  0.1292  0.2299 -0.4976
85678W        W28772  18.159   5.213  22.758  0.2609 -0.0638 -0.0806
85679W        W28773  19.072   6.953  24.021  0.1502 -0.0339  0.2276
85680W        W28774  21.296   4.742  28.713  0.0003 -0.1742 -0.1125
85681W        W28775  20.110   5.448  26.796 -0.1033 -0.0911  0.0529
85682W        W28776  17.905   5.635  24.887 -0.0027  0.1060 -0.1484
85683W        W28777  18.706   4.522  24.239  0.1090  0.2655 -0.2719
85684W        W28778  22.124   7.131  24.527 -0.1901  0.4084  0.0494
85685W        W28779  20.731   3.817  25.085  0.1705 -0.1062  0.2343
85686W        W28780  18.547   3.228  25.241 -0.0707  0.2567  0.5674
85687W        W28781  22.445   6.613  23.355  0.1744 -0.0750 -0.0643
85688W        W28782  21.129   8.132  25.922  0.2343 -0.0869  0.1939
85689W        W28783  20.201   3.904  25.181  0.1883 -0.0102  0.0819
85690W        W28784  21.111   7.518  27.309  0.2404  0.0290 -0.0158
85691W        W28785  17.268   6.947  24.035  0.3161 -0.0809 -0.0338
85692W        W28786  19.819   4.746  27.719  0.4229  0.0914  0.0920
85693W        W28787  18.697   4.968  26.759 -0.1768 -0.2069  0.0114
85694W        W28788  17.303   4.072  22.597  0.1053  0.1605  0.0987
85695W        W28789  20.791   5.777  25.878  0.0334 -0.0165 -0.0707
85696W        W28790  20.818   6.688  24.012  0.0568  0.1882 -0.1766
85697W        W28791  19.607   7.665  23.954 -0.1866 -0.1589  0.1516
85698W        W28792  19.875   5.580  25.701 -0.1226 -0.3322 -0.0364
85699W        W28793  19.434   8.287  26.395  0.1035  0.3028  0.0083
85700W        W28794  18.495   4.608  26.468 -0.0708  0.4173 -0.1743
85701W        W28795  21.959   7.026  23.511 -0.6938 -0.0334 -0.0392
85702W        W28796  18.997   7.045  26.400  0.1501  0.1168  0.2938
85703W        W28797  21.144   7.145  24.275  0.0875 -0.2931 -0.0750
85704W        W28798  22.503   5.987  25.761  0.0700 -0.0151 -0.0654
85705W        W28799  20.551   4.145  24.027  0.0992  0.3658 -0.0137
85706W        W28800  18.207   3.149  25.591 -0.1488 -0.2388 -0.1839
85707W        W28801  18.645   6.525  24.768  0.4794 -0.2006 -0.3607
85708W        W28802  22.847   6.470  25.611  0.1253 -0.0746  0.3307
85709W        W28803  19.234   2.298  23.466  0.2978  0.0526 -0.1450
85710W        W28804  20.138   1.574  22.767  0.4296  0.0676  0.1895
85711W        W28805  20.275   5.724  23.060 -0.0543  0.0716  0.1218
85712W        W28806  19.422   4.967  25.749  0.0654 -0.1150  0.0068
85713W        W28807  19.733   5.341  23.341  0.0804  0.2084 -0.1049
85714W        W28808  18.684   4.768  27.288 -0.0448 -0.1300 -0.1198
85715W        W28809  20.076   6.930  26.017 -0.2245  0.2840 -0.0691
85716W        W28810  20.590   4.986  26.505  0.2295  0.1968 -0.1039
85717W        W28811  18.980   4.420  22.197 -0.3456  0.1211 -0.3307
85718W        W28812  22.644   4.505  24.433 -0.3056 -0.1391  0.1830
85719W        W28813  19.581   7.173  26.141 -0.0912  0.1180  0.1244
85720W        W28814  21.234   6.893  27.666  0.1055  0.2324  0.1926
85721W        W28815  20.412   7.604  26.422  0.1875  0.2527  0.2057
85722W        W28816  21.284   5.420  25.932 -0.2783  0.0249 -0.2573
85723W        W28817  18.955   3.912  24.793 -0.1255  0.0147 -0.2794
85724W        W28818  18.654   6.529  24.192 -0.1394  0.1724  0.1543
85725W        W28819  20.196   6.161  23.389 -0.2569 -0.1447  0.1787
85726W        W28820  20.434   4.884  25.946 -0.4235  0.2548 -0.0958
85727W        W28821  18.438   5.725  24.644 -0.1871 -0.0035 -0.1741
85728W        W28822  20.441   2.742  23.698  0.1109 -0.1073 -0.0958
85729W        W28823  19.634   7.556  26.995  0.2081 -0.0080  0.2555
85730W        W28824  20.700   5.310  26.928  0.2208  0.1271  0.2700
85731W        W28825  18.017   5.102  30.166 -0.2482 -0.2991  0.1046
85732W        W28826  18.195   4.002  29.023  0.1042 -0.3147 -0.1497
85733W        W28827  21.085   5.025  26.896 -0.4184 -0.1567  0.1969
85734W        W28828  22.613   6.943  27.938  0.2308 -0.0585 -0.1100
85735W        W28829  17.608   4.099  27.860 -0.2036  0.0814  0.2890
85736W        W28830  21.729   7.135  29.621  0.1645  0.0941  0.1338
85737W        W28831  19.496   4.852  31.195  0.3049  0.0858  0.1394
85738W        W28832  21.273   7.687  30.166  0.2474 -0.0397 -0.4019
85739W        W28833  21.017   6.427  29.695 -0.3239 -0.0560  0.0383
85740W        W28834  20.268   6.979  27.506 -0.2701 -0.0613  0.1687
85741W        W28835  20.469   6.091  31.663  0.0144  0.2806  0.1461
85742W        W28836  18.705   5.702  30.580 -0.2574  0.1019  0.1407
85743W        W28837  19.140   4.046  28.493  0.0051 -0.1684  0.1974
85744W        W28838  17.584   3.573  30.717 -0.0216 -0.0765 -0.0540
85745W        W28839  19.354   3.642  28.719 -0.3431  0.1131 -0.2101
85746W        W28840  18.135   4.890  28.231  0.2817 -0.3788  0.1433
85747W        W28841  19.182   3.834  30.290 -0.0188  0.0359  0.1173
85748W        W28842  19.213   4.649  27.156  0.1067 -0.3464  0.1284
85749W        W28843  19.183   6.501  30.065 -0.0135 -0.0851 -0.0776
85750W        W28844  19.879   4.483  31.221  0.1041 -0.0288  0.0195
85751W        W28845  21.229   4.409  31.332  0.0818 -0.1569  0.0046
85752W        W28846  19.811   6.651  29.182  0.1809 -0.1974 -0.1111
85753W        W28847  19.560   4.631  26.744  0.3172  0.0778 -0.2673
85754W        W28848  16.614   4.727  28.788 -0.0656 -0.0718  0.3275
85755W        W28849  18.967   5.628  30.127  0.1417  0.0399  0.0316
85756W        W28850  20.103   5.872  28.761 -0.0356  0.0373 -0.0149
85757W        W28851  20.541   5.567  28.794 -0.0102 -0.0753  0.0683
85758W        W28852  20.212   5.634  30.391 -0.0262 -0.2697 -0.0459
85759W        W28853  19.822   6.694  30.519 -0.4884 -0.2054 -0.0529
85760W        W28854  20.438   5.671  31.372  0.2904 -0.0428 -0.3798
85761W        W28855  18.275   5.177  28.961 -0.2878  0.0662  0.0963
85762W        W28856  18.694   6.629  28.562  0.1313  0.0902 -0.4214
85763W        W28857  19.099   6.255  24.899 -0.1878  0.1150  0.1473
85764W        W28858  21.266   6.970  29.424  0.0901 -0.0499 -0.3029
85765W        W28859  19.951   6.858  31.764 -0.2319 -0.1922 -0.0663
85766W        W28860  20.274   8.311  30.449  0.3399  0.0831  0.2161
85767W        W28861  18.709   5.401  28.741  0.3632 -0.0073 -0.1424
85768W        W28862  20.241   7.471  31.024 -0.0962 -0.0275  0.1221
85769W        W28863  19.114   6.173  30.774 -0.0007  0.2139  0.2004
85770W        W28864  20.680   6.523  30.794  0.0160 -0.1325  0.2830
85771W        W28865  19.759   5.535  30.158 -0.2168  0.0502 -0.2306
85772W        W28866  20.149   6.659  27.961 -0.1598  0.1057 -0.1710
85773W        W28867  20.407   7.082  30.038  0.0834  0.1072  0.1458
85774W        W28868  20.117   6.294  29.695  0.1708 -0.1289 -0.0475
85775W        W28869  19.199   5.649  30.620  0.0564  0.0753  0.2093
85776W        W28870  22.626   4.424  31.334 -0.1311 -0.2585 -0.3118
85777W        W28871  19.455   7.046  28.266  0.1870  0.1667  0.0591
85778W        W28872  20.747   4.957  27.343  0.2762 -0.1260 -0.0713
85779W        W28873  19.935   4.325  27.454  0.2136  0.2237 -0.4449
85780W        W28874  20.137   6.126  28.310  0.1639  0.1962 -0.1805
85781W        W28875  20.015   3.292  26.694 -0.3725  0.2685 -0.0579
85782W        W28876  18.821   6.206  29.338 -0.1185 -0.0859  0.2077
85783W        W28877  18.933   2.355  29.133  0.1323 -0.0291 -0.4466
85784W        W28878  19.729   7.161  31.385  0.0065 -0.0165  0.2799
85785W        W28879  19.950   5.637  27.690 -0.1926 -0.0247 -0.0178
85786W        W28880  20.783   5.055  30.795 -0.0345 -0.0887 -0.1253
85787W        W28881  19.972   5.923  31.596 -0.0122 -0.1902 -0.0523
85788W        W28882  17.581   5.620   0.038  0.0806 -0.1124 -0.4402
85789W        W28883  21.375   7.598  27.829  0.3225  0.1926 -0.0874
85790W        W28884  22.307   8.283  27.659  0.0466  0.2904  0.0084
85791W        W28885  20.777   7.219  27.571 -0.2580 -0.2316 -0.2824
85792W        W28886  18.366   5.336  30.466  0.1639 -0.1301 -0.2036
85793W        W28887  18.035   5.298  31.051  0.0955 -0.2501  0.1378
85794W        W28888  17.484   6.044  30.637 -0.0700  0.1035 -0.0716
85795W        W28889  19.700   2.402  28.044 -0.0509  0.0681 -0.2142
85796W        W28890  22.245   5.918  31.185 -0.2040 -0.0614 -0.0725
85797W        W28891  18.164   5.737  31.500  0.2305  0.1756 -0.0271
85798W        W28892  20.673   4.882  27.852  0.0424  0.0714  0.0832
85799W        W28893  20.610   5.554  30.941 -0.2543 -0.5083 -0.1077
85800W        W28894  21.870   4.887  31.322 -0.1774 -0.2114 -0.0104
85801W        W28895  21.608   5.802  27.109  0.1064  0.1151  0.0058
85802W        W28896  20.352   4.921  29.162 -0.0700 -0.0702  0.1082
85803W        W28897  20.666   3.838  30.409  0.0787 -0.1456  0.0901
85804W        W28898  18.492   4.348  27.715  0.2901  0.0977 -0.1644
85805W        W28899  19.165   5.440  29.295 -0.0543  0.1253 -0.4244
85806W        W28900  21.566   8.027  31.139  0.2489  0.0430 -0.2328
85807W        W28901  21.512   6.452  28.157 -0.0098 -0.1075  0.2553
85808W        W28902  18.684   5.160  30.137 -0.2544 -0.2673  0.1617
85809W        W28903  19.531   4.042  29.988 -0.1414 -0.1072  0.1302
85810W        W28904  19.382   5.945   0.037  0.1661 -0.1020  0.0313
85811W        W28905  17.887   7.743  27.149  0.1634 -0.0440  0.2504
85812W        W28906  19.128   4.340  29.526 -0.3508  0.0894  0.1581
85813W        W28907  19.037   6.621  27.507  0.0250  0.0904  0.1129
85814W        W28908  18.761   3.618  31.034  0.0864 -0.0540 -0.2307
85815W        W28909  18.221   4.913  29.416 -0.2895  0.0950 -0.1990
85816W        W28910  21.221   5.565  26.812 -0.0707 -0.0201  0.1533
85817W        W28911  19.508   5.121  29.024  0.2010 -0.1976  0.2210
85818W        W28912  21.294   4.477  29.235 -0.0391 -0.0093  0.0507
85819W        W28913  19.009   3.652  29.137  0.1131 -0.3209 -0.0207
85820W        W28914  20.950   8.292  29.437 -0.2097 -0.2493  0.0839
85821W        W28915  21.395   5.628  27.572 -0.0243  0.1062 -0.2259
85822W        W28916  19.570   5.853  27.435  0.0712  0.2095  0.3812
85823W        W28917  17.314   4.071  30.949  0.0580 -0.0023  0.1224
85824W        W28918  18.807   3.781  29.901 -0.1030 -0.1181  0.0138
85825W        W28919  20.340   4.472  31.549  0.1888  0.1502 -0.0809
85826W        W28920  17.212   2.557  30.283 -0.0273  0.1775 -0.0963
85827W        W28921  22.160   6.645  30.505  0.0599  0.1467  0.0920
85828W        W28922  18.746   3.682  28.489 -0.0226  0.0598 -0.0278
85829W        W28923  20.263   4.970  26.984 -0.1221 -0.0472  0.2098
85830W        W28924  20.232   4.176  28.306  0.0730 -0.1028 -0.0624
85831W        W28925  18.207   4.711  28.669 -0.0110 -0.2742 -0.0614
85832W        W28926  21.386   4.536  30.586 -0.0226 -0.0508  0.0224
85833W        W28927  20.483   7.597  30.138  0.1637 -0.2552  0.3414
85834W        W28928  21.087   8.007  31.014 -0.0200  0.2919 -0.0173
85835W        W28929  22.967   7.565  29.880 -0.2406 -0.1304  0.1768
85836W        W28930  18.115   4.481  30.943 -0.1201  0.0181  0.1309
85837W        W28931  19.021   4.143  27.548 -0.3166 -0.0729  0.0906
85838W        W28932  19.757   6.530  28.254 -0.0273 -0.2027  0.0090
85839W        W28933  20.230   5.844  29.471  0.1786  0.0939 -0.0452
85840W        W28934  17.920   3.905  30.310 -0.1237 -0.2288  0.0852
85841W        W28935  21.127   9.014  30.477 -0.1082  0.0815  0.1599
85842W        W28936  20.475   7.378  28.620  0.1929 -0.1823 -0.0969
85843W        W28937  18.197   5.554  29.284 -0.0103  0.2168 -0.4479
85844W        W28938  19.529   4.373  30.365  0.2398 -0.2133 -0.1479
85845W        W28939  20.326   5.128  29.657  0.0230  0.2906  0.1015
85846W        W28940  20.337   4.722  27.563 -0.0106  0.3569  0.0041
85847W        W28941  18.222   2.749  25.976 -0.1461 -0.3938  0.1928
85848W        W28942  20.778   7.211  29.029 -0.0881  0.1892  0.0119
85849W        W28943  17.727   6.091  27.726  0.2855 -0.0609  0.0722
85850W        W28944  17.544   5.245  29.936  0.2539  0.1335 -0.1607
85851W        W28945  20.608   6.712  28.246 -0.0226 -0.0142 -0.2097
85852W        W28946  21.859   5.426  28.919  0.0581 -0.0570 -0.0621
85853W        W28947  18.168   5.026  31.750 -0.1108 -0.1446 -0.0629
85854W        W28948  20.412   5.150  31.147 -0.0100 -0.1024 -0.2049
85855W        W28949  18.825   4.034  28.857  0.0587 -0.0047  0.0095
85856W        W28950  18.347   7.101  31.220 -0.0994 -0.2713 -0.0161
85857W        W28951  21.166   3.715  28.093  0.1396  0.0043  0.3782
85858W        W28952  21.877   5.057  26.019 -0.1366  0.1017  0.2828
85859W        W28953  21.256   7.358  31.597 -0.0652 -0.1131  0.3100
85860W        W28954  21.032   5.939  27.945 -0.1399  0.0799  0.2098
85861W        W28955  19.925   5.202  27.371 -0.3111  0.1981 -0.2441
85862W        W28956  20.787   4.331  27.855  0.1947 -0.2402  0.1695
85863W        W28957  17.017   5.934   0.004  0.0012  0.1338 -0.1572
85864W        W28958  19.324   4.853  27.971 -0.0243 -0.3390  0.2399
85865W        W28959  20.663   5.805  30.230 -0.0494 -0.1393  0.1846
85866W        W28960  21.096   3.779  26.926  0.0466  0.1549  0.1145
85867W        W28961  20.410   5.785  27.783  0.3144  0.1149 -0.5983
85868W        W28962  17.086   4.906  28.858 -0.3709 -0.3001  0.1004
85869W        W28963  20.265   7.608   0.028  0.2676  0.0314 -0.0086
85870W        W28964  21.219   6.451  30.187  0.1491  0.2894  0.3051
85871W        W28965  20.295   4.691  31.099  0.1269  0.4093 -0.2195
85872W        W28966  20.109   3.702  28.114  0.0137  0.1004  0.2173
85873W        W28967  20.320   4.653  28.649  0.0405 -0.1933  0.2487
85874W        W28968  18.906   6.200  28.320  0.0570 -0.1407  0.0124
85875W        W28969  22.056   5.329  28.477 -0.1582 -0.1578  0.0035
85876W        W28970  19.538   4.609  29.212 -0.1714  0.0861 -0.1599
85877W        W28971  18.456   4.696  30.504  0.0283 -0.0946  0.0027
85878W        W28972  23.043   6.758  31.664 -0.1535  0.0361 -0.1374
85879W        W28973  20.557   5.908  28.392 -0.1455  0.2860 -0.0903
85880W        W28974  19.551   4.536  29.782 -0.0641 -0.0517  0.2588
85881W        W28975  19.460   4.420  27.576 -0.0373  0.0236 -0.0481
85882W        W28976  18.631   3.016  30.143 -0.1530  0.1831 -0.1204
85883W        W28977  17.589   4.705  30.980 -0.0114 -0.1717  0.0187
85884W        W28978  17.856   5.200  29.560 -0.1727 -0.1889 -0.0909
85885W        W28979  22.022   6.007  31.619 -0.1051  0.0067  0.1238
85886W        W28980  19.765   5.822  26.976 -0.0740 -0.4570  0.0613
85887W        W28981  21.081   4.214  30.893  0.0702 -0.1689  0.2099
85888W        W28982  19.874   4.782  28.826 -0.0419 -0.0581 -0.3575
85889W        W28983  19.190   7.018  28.672  0.0781  0.0026  0.1341
85890W        W28984  18.744   5.548  26.993 -0.2218 -0.2367 -0.1178
85891W        W28985  19.706   3.867  28.939  0.2773 -0.1029  0.2470
85892W        W28986  19.995   7.319  29.720 -0.0369  0.0251 -0.1657
85893W        W28987  19.743   7.140  27.776  0.2283 -0.1109  0.1781
85894W        W28988  20.653   4.801  30.247 -0.2324  0.1528  0.1052
85895W        W28989  18.959   6.616  29.040 -0.0472 -0.2982 -0.1250
85896W        W28990  20.581   4.350  29.181  0.1375 -0.1177  0.0784
85897W        W28991  20.187   5.453  29.137  0.0960  0.1110 -0.1085
85898W        W28992  18.889   4.180  28.090  0.1683  0.0277 -0.0568
85899W        W28993  18.342   6.266  28.384  0.0657  0.0568  0.3668
85900W        W28994  21.107   4.684  28.099  0.1613 -0.1220 -0.0149
85901W        W28995  20.866   6.616  28.969 -0.0566  0.1981  0.1230
85902W        W28996  19.105   2.852  30.292  0.2127 -0.2601  0.1753
85903W        W28997  20.528   3.579  29.067  0.0369  0.3665 -0.0319
85904W        W28998  17.406   5.610  31.511 -0.0598 -0.0984  0.1178
85905W        W28999  19.856   5.196  30.597  0.2819 -0.0822  0.1368
85906W        W29000  21.033   6.060  26.743  0.0437  0.1305  0.0438
85907W        W29001  20.944   6.601  31.213 -0.0364  0.1313 -0.0081
85908W        W29002  21.200   6.344  30.730  0.0081  0.3740 -0.0156
85909W        W29003  18.589   4.352  29.648 -0.0306  0.0313 -0.0809
85910W        W29004  20.917   5.599  29.147 -0.1672  0.0437 -0.0745
85911W        W29005  19.553   3.562  29.966  0.1150 -0.1531 -0.1338
85912W        W29006  18.370   5.847  27.897  0.1325  0.3136  0.0078
85913W        W29007  19.425   6.813  30.803 -0.3197  0.0443  0.0094
85914W        W29008  19.075   4.509  28.940  0.1728 -0.1980  0.1335
85915W        W29009  18.831   5.702  27.742  0.1677 -0.0249 -0.1446
85916W        W29010  20.617   4.439   0.539  0.1389  0.2283  0.1843
85917W        W29011  21.557   5.342  30.224 -0.1554 -0.1004 -0.1238
85918W        W29012  17.656   4.729  30.178  0.1417  0.1284  0.2250
85919W        W29013  19.567   6.237  29.517  0.2640 -0.4256  0.3929
85920W        W29014  20.072   4.272  28.794  0.2336 -0.1896  0.1201
85921W        W29015  21.426   6.232  31.290  0.0176  0.1348 -0.1077
85922W        W29016  21.056   5.719  31.347  0.1630  0.0804 -0.3460
85923W        W29017  19.746   4.657  30.753 -0.2601 -0.1190  0.0231
85924W        W29018  20.904   4.372  29.666  0.1095 -0.0095  0.4776
85925W        W29019  22.733   7.582  27.038 -0.1209 -0.1409 -0.1705
85926W        W29020  20.477   4.661  29.601 -0.1682 -0.1528  0.2103
85927W        W29021  18.580   4.946  28.427  0.0745 -0.2089 -0.0265
85928W        W29022  18.966   5.284  29.746  0.0843 -0.1137 -0.1832
85929W        W29023  20.329   6.432  29.199 -0.1749 -0.1442 -0.2585
85930W        W29024  19.670   4.844  30.226  0.1351 -0.3849 -0.3983
85931W        W29025  17.547   6.527  29.737 -0.3101  0.4003 -0.0564
85932W        W29026  18.546   5.206  27.971  0.2585  0.0871  0.1957
85933W        W29027  19.056   6.105  28.791 -0.1864 -0.1976  0.5267
85934W        W29028  20.197   4.304  27.050 -0.5411  0.2518  0.2963
85935W        W29029  19.187   6.194  27.902 -0.0966 -0.1038 -0.0690
85936W        W29030  21.947   4.499  28.572 -0.2256  0.0463 -0.1240
85937W        W29031  22.021   4.939  28.157 -0.1795 -0.1160  0.4143
85938W        W29032  20.487   6.431  28.638 -0.0797 -0.0202 -0.0391
85939W        W29033  20.488   4.319  30.009 -0.0415 -0.3872 -0.0427
85940W        W29034  19.325   3.762  30.805 -0.1154  0.0272 -0.0705
85941W        W29035  22.570   7.235  30.408 -0.1771 -0.1610 -0.0456
85942W        W29036  17.669   5.119   0.135  0.0659  0.1492 -0.1661
85943W        W29037  19.025   7.038  30.682  0.2335  0.1278  0.2438
85944W        W29038  18.977   4.672  30.516  0.0875 -0.3362  0.0884
85945W        W29039  21.738   4.955  28.696  0.1894  0.1875 -0.2578
85946W        W29040  18.439   4.361  28.212 -0.1696 -0.2299 -0.0869
85947W        W29041  18.325   5.647  30.924  0.0633 -0.0033  0.2617
85948W        W29042  21.565   5.904  29.348  0.0287 -0.1538  0.0553
85949W        W29043  20.156   6.127  30.158 -0.3416 -0.0385 -0.3630
85950W        W29044  20.974   5.687  28.580 -0.2505 -0.0172 -0.3518
85951W        W29045  18.173   6.083  31.062  0.0467  0.1005  0.0459
85952W        W29046  21.304   4.247  27.919 -0.0697  0.1045 -0.0365
85953W        W29047  19.795   5.025  26.616 -0.2591 -0.5239 -0.2597
85954W        W29048  19.378   5.624  29.770 -0.0539  0.1474 -0.2625
85955W        W29049  18.939   3.373  30.593  0.0089  0.2629 -0.0776
85956W        W29050  20.323   5.681  29.915  0.1116  0.1041  0.1922
85957W        W29051  20.103   5.186  30.143  0.0701 -0.2515  0.1049
85958W        W29052  19.642   4.193  30.823  0.1837  0.0923  0.3276
85959W        W29053  20.446   4.999  28.296  0.0710  0.2982  0.4555
85960W        W29054  20.171   6.496  30.899  0.0376 -0.0374 -0.0202
85961W        W29055  17.759   4.855   0.578 -0.0499 -0.0462  0.3324
85962W        W29056  21.970   6.527  29.918 -0.2046 -0.0007 -0.3295
85963W        W29057  21.483   4.658  27.088 -0.0918  0.1013 -0.3306
85964W        W29058  22.872   5.512  31.433  0.0112 -0.0175  0.0601
85965W        W29059  20.149   5.156  27.926  0.2921 -0.0555 -0.3729
85966W        W29060  21.573   4.788  27.819  0.0151  0.5224 -0.3270
85967W        W29061  16.903   3.840  30.476 -0.0835 -0.1777 -0.2998
85968W        W29062  21.278   6.496   0.048 -0.0456  0.1278  0.1490
85969W        W29063  19.064   3.753  27.805 -0.0548 -0.0912 -0.3149
85970W        W29064  21.657   4.511  31.584 -0.1172  0.1712 -0.1665
85971W        W29065  20.361   7.216  27.915  0.1709  0.1939  0.0868
85972W        W29066  21.527   5.977  30.310 -0.1346 -0.0977  0.3879
85973W        W29067  20.676   5.136  28.783 -0.2574 -0.1334  0.1950
85974W        W29068  16.687   3.413  30.098  0.0016 -0.0383 -0.1676
85975W        W29069  17.945   6.837  31.582 -0.2061 -0.1048 -0.2974
85976W        W29070  18.748   3.748  26.851 -0.3228  0.1379  0.2698
85977W        W29071  19.725   5.738  28.176 -0.0121 -0.0456  0.2933
85978W        W29072  19.245   5.236  30.216  0.3248 -0.0101  0.0839
85979W        W29073  22.413   6.353  29.844 -0.0150 -0.0471 -0.3953
85980W        W29074  19.493   3.848  28.066 -0.0703  0.0419  0.0268
85981W        W29075  22.655   6.771  30.580 -0.0834 -0.2506  0.0420
85982W        W29076  18.999   5.208  27.755 -0.0078  0.2802 -0.0917
85983W        W29077  21.071   4.807  29.733  0.0451 -0.0450  0.0320
85984W        W29078  19.712   5.665  30.647 -0.0615 -0.1391  0.0838
85985W        W29079  17.798   6.109  29.788 -0.1331  0.4922  0.0749
85986W        W29080  19.451   6.172  28.385  0.2041  0.4479  0.1424
85987W        W29081  20.013   3.777  29.710  0.0400  0.0840 -0.0369
85988W        W29082  20.021   6.112  27.426  0.0285 -0.2855  0.0100
85989W        W29083  20.171   5.995  31.149 -0.0214 -0.1492  0.0721
85990W        W29084  21.075   6.014  30.011 -0.1637 -0.2488 -0.0029
85991W        W29085  20.203   7.025  31.324  0.0538 -0.2827  0.0994
85992W        W29086  18.568   4.638  29.107  0.0699 -0.3072 -0.2603
85993W        W29087  20.576   7.051  31.013 -0.2801  0.2900  0.1228
85994W        W29088  21.486   5.749  28.914 -0.1940  0.1007  0.1029
85995W        W29089  16.617   4.705  29.345  0.1380  0.0194 -0.0608
85996W        W29090  18.842   4.137  31.185 -0.0098  0.0236  0.0741
85997W        W29091  22.034   4.882  30.890 -0.2140  0.2585  0.0264
85998W        W29092  20.631   6.134  29.838 -0.2258 -0.2451  0.1861
85999W        W29093  20.877   4.623  28.873 -0.1989 -0.0412  0.1078
86000W        W29094  19.273   5.695  27.889  0.1322 -0.1726  0.1592
86001W        W29095  16.761   5.380  30.395 -0.0173  0.0395  0.1593
86002W        W29096  17.222   5.877  28.863 -0.1067  0.2344  0.0980
86003W        W29097  19.958   7.949  27.321 -0.4461  0.0728  0.1957
86004W        W29098  19.542   5.249  26.981  0.0786  0.5005 -0.3347
86005W        W29099  20.674   6.787  29.427 -0.1738 -0.4367  0.1617
86006W        W29100  20.332   7.443  29.328  0.0622  0.1700  0.0179
86007W        W29101  19.526   4.405  28.722  0.0145  0.1687 -0.1772
86008W        W29102  20.157   6.834  29.524  0.0761 -0.3114 -0.0546
86009W        W29103  18.816   7.575  27.804 -0.0463  0.2139 -0.2060
86010W        W29104  20.936   7.594  28.765  0.1213  0.0328  0.0873
86011W        W29105  18.028   7.061  30.413  0.0491  0.2864  0.0333
86012W        W29106  19.900   6.960  30.962  0.0682 -0.2137 -0.0887
86013W        W29107  21.591   5.051  26.774  0.1478 -0.3351 -0.0599
86014W        W29108  21.580   6.213  29.748 -0.1405 -0.3213  0.3840
86015W        W29109  22.600   5.399  27.620  0.2090  0.1050  0.1542
86016W        W29110  19.902   5.052  31.059  0.1355 -0.1737 -0.1313
86017W        W29111  17.562   6.135  31.122  0.1423  0.0875 -0.4100
86018W        W29112  19.336   4.383  28.101  0.0284 -0.0887 -0.1277
86019W        W29113  19.441   5.373  31.051  0.2697 -0.0706 -0.1368
86020W        W29114  21.565   4.529   0.765  0.1943 -0.1912  0.1483
86021W        W29115  16.935   7.372  31.748 -0.3008  0.0386 -0.0632
86022W        W29116  21.129   7.421  29.291 -0.2006  0.3281 -0.2052
86023W        W29117  18.229   4.638  29.906  0.3196 -0.2736 -0.1402
86024W        W29118  19.181   5.776  28.350 -0.2468 -0.1333 -0.0192
86025W        W29119  20.042   4.341  29.681 -0.0182  0.1944 -0.1194
86026W        W29120  20.671   5.724  27.193  0.2698  0.0920  0.2657
86027W        W29121  19.645   6.006  28.823  0.4063  0.0151  0.0419
86028W        W29122  19.301   5.590  28.829 -0.0295 -0.1827 -0.4948
86029W        W29123  19.801   5.897  29.771 -0.1535 -0.0422 -0.0549
86030W        W29124  19.458   6.389  30.506  0.2047  0.0097  0.1877
86031W        W29125  18.610   3.200  26.238  0.3565  0.1250 -0.0677
86032W        W29126  22.168   5.876  29.327  0.0374 -0.6033 -0.1816
86033W        W29127  19.107   4.335  30.102 -0.0888  0.1176 -0.0728
86034W        W29128  21.211   4.015  29.835  0.0857  0.2036  0.0036
86035W        W29129  20.158   5.547  30.963  0.2553  0.1446 -0.0243
86036W        W29130  21.446   5.050  27.389 -0.0026  0.0177  0.2465
86037W        W29131  21.186   5.439  30.781 -0.1186 -0.1081 -0.0682
86038W        W29132  18.685   3.745  30.386 -0.4029  0.1615 -0.1923
86039W        W29133  19.440   4.997  27.454  0.2303 -0.0308  0.3692
86040W        W29134  21.668   6.483  30.379  0.2448  0.0864  0.0911
86041W        W29135  20.180   6.447  26.427  0.3303  0.1298 -0.3273
86042W        W29136  20.445   7.353  30.593 -0.0710 -0.2892 -0.0832
86043W        W29137  19.414   3.331  29.083 -0.1653 -0.1771 -0.2914
86044W        W29138  21.478   4.289  28.717  0.2511  0.3174  0.0027
86045W        W29139  17.391   5.333  28.968  0.2270  0.0549  0.2487
86046W        W29140  19.402   5.030  30.690  0.1416  0.0489 -0.1324
86047W        W29141  19.887   6.741   0.333 -0.0260  0.0426  0.1309
86048W        W29142  17.925   4.383  30.447  0.0011 -0.1962  0.0847
86049W        W29143  20.594   6.663  27.738 -0.0763 -0.0961  0.0352
86050W        W29144  22.688   4.032  29.525 -0.0146  0.2623  0.0662
86051W        W29145  19.934   7.089  28.215 -0.1235  0.0721 -0.1401
86052W        W29146  19.975   6.123  29.178 -0.2516 -0.1921  0.1535
86053W        W29147  21.495   6.705  29.840  0.1411  0.1595  0.2789
86054W        W29148  16.415   3.864  30.199 -0.0717  0.2052 -0.5529
86055W        W29149  20.659   5.343  30.453 -0.1371 -0.0250  0.1078
86056W        W29150  21.863   6.930  30.221 -0.3074 -0.2801 -0.1229
86057W        W29151  20.534   3.155  26.873 -0.2716 -0.2918  0.5976
86058W        W29152  19.222   3.786  29.610 -0.0529  0.0229 -0.1144
86059W        W29153  18.744   5.728  29.118 -0.0871 -0.3608  0.0036
86060W        W29154  20.611   5.512  29.518  0.0741  0.3379  0.4002
86061W        W29155  21.928   4.546  30.500 -0.0096  0.2156 -0.0207
86062W        W29156  19.232   7.001  27.769 -0.4277 -0.1196  0.0683
86063W        W29157  22.818   4.018  30.975 -0.0260  0.6434 -0.2136
86064W        W29158  20.269   6.731  30.370 -0.2329 -0.0793 -0.0819
86065W        W29159  19.412   5.622  31.569  0.2183 -0.2898 -0.4320
86066W        W29160  17.678   6.558  27.600 -0.0224  0.0906  0.1509
86067W        W29161  20.564   6.627  31.703  0.0343  0.1873  0.0452
86068W        W29162  20.348   7.914  28.462  0.1650 -0.0494  0.0023
86069W        W29163  19.405   6.426  29.049 -0.2523  0.0582  0.1743
86070W        W29164  22.073   6.330  29.460  0.2632 -0.1473  0.2186
86071W        W29165  20.329   4.143  27.798 -0.0946 -0.1912  0.1447
86072W        W29166  21.992   7.339  29.265 -0.0887 -0.2966 -0.1292
86073W        W29167  21.495   4.755  30.150 -0.5653  0.3236 -0.2919
86074W        W29168  21.525   4.530  28.300 -0.3375 -0.2717 -0.3171
86075W        W29169  22.919   4.405  28.744  0.1235  0.0633  0.0391
86076W        W29170  19.197   5.803  31.138  0.1255 -0.1265 -0.1397
86077W        W29171  19.283   4.078  29.137  0.2244 -0.5264 -0.0627
86078W        W29172  17.898   6.320  28.145 -0.1551 -0.0293 -0.2189
86079W        W29173  17.965   5.565  28.837 -0.0095  0.3856  0.1427
86080W        W29174  19.877   3.347  30.351  0.2411 -0.0400 -0.0564
86081W        W29175  19.008   3.763  31.789 -0.0748  0.2256  0.1571
86082W        W29176  17.464   5.639  30.236  0.0188 -0.1283 -0.1463
86083W        W29177  20.459   3.129  29.291 -0.1791 -0.3247 -0.2523
86084W        W29178  21.021   6.903  28.499 -0.2095 -0.0534  0.2095
86085W        W29179  18.101   4.403  29.454 -0.1351 -0.0680 -0.1605
86086W        W29180  18.733   4.171  31.702  0.0541 -0.0693 -0.1227
86087W        W29181  21.008   6.383  28.478 -0.0275  0.1109 -0.1747
86088W        W29182  22.342   5.459  28.985 -0.2023  0.2397  0.2275
86089W        W29183  21.054   3.263  27.005  0.2348 -0.1670 -0.2451
86090W        W29184  20.166   6.454  31.446  0.1617 -0.0555  0.0953
86091W        W29185  17.571   5.508  28.467 -0.0342  0.1263  0.0677
86092W        W29186  20.274   5.006  30.600 -0.0329 -0.0633  0.4391
86093W        W29187  20.592   3.632  31.847 -0.1051 -0.1348 -0.1334
86094W        W29188  19.974   3.382  29.093 -0.1934 -0.0593 -0.0130
86095W        W29189  19.105   4.806  29.950  0.2545 -0.2417 -0.1228
86096W        W29190  20.478   7.896  29.657 -0.2373 -0.1978 -0.2124
86097W        W29191  21.787   8.564  27.694  0.0584  0.3359 -0.2331
86098W        W29192  19.402   5.985  30.178 -0.3609 -0.0728 -0.0229
86099W        W29193  18.911   5.169  30.591 -0.2346  0.0564  0.0090
86100W        W29194  18.865   3.361  31.521 -0.1820  0.3097  0.0854
86101W        W29195  21.394   6.967  28.124 -0.0149  0.0239  0.0202
86102W        W29196  19.694   5.766  31.144  0.2259  0.0869  0.3888
86103W        W29197  22.395   6.810  27.553  0.0281 -0.1790 -0.2126
86104W        W29198  19.782   6.203  27.873 -0.1333  0.4456 -0.0012
86105W        W29199  20.167   5.536  28.297 -0.2894  0.0474  0.0766
86106W        W29200  19.405   3.346  30.471 -0.2055 -0.2532 -0.2353
86107W        W29201  19.175   5.294  31.973 -0.0878 -0.2482  0.3534
86108W        W29202  20.614   6.046  28.872 -0.3182 -0.2666  0.0318
86109W        W29203  17.436   4.472  30.602  0.2217 -0.0828 -0.2043
86110W        W29204  19.899   5.029  29.341  0.0403  0.0541  0.1033
86111W        W29205  19.160   6.541  29.515 -0.1315 -0.0996  0.3010
86112W        W29206  17.696   5.714  29.308 -0.0481  0.0355 -0.0537
86113W        W29207  20.660   3.966  28.160  0.3236  0.3673 -0.1624
86114W        W29208  20.791   5.244  29.928  0.1056  0.0032 -0.2031
86115W        W29209  20.388   5.964  30.703 -0.4135  0.2322  0.3168
86116W        W29210  20.322   6.168   0.843  0.1165  0.0323  0.1086
86117W        W29211  19.640   4.090  29.451  0.3213 -0.3571 -0.0429
86118W        W29212  21.624   6.495  26.524  0.0974 -0.2739  0.1092
86119W        W29213  20.619   6.300  30.350 -0.1519  0.2422 -0.1217
86120W        W29214  18.864   7.454  30.897 -0.0299  0.4283 -0.0863
86121W        W29215  19.623   6.733  29.693  0.1243  0.0318  0.0855
86122W        W29216  22.030   5.163  29.272 -0.1819 -0.1242 -0.2829
86123W        W29217  18.961   3.303  28.772 -0.0129 -0.1096 -0.0347
86124W        W29218  20.087   4.508  29.228 -0.1144 -0.1475 -0.1004
86125W        W29219  19.642   3.544  29.464  0.5651 -0.0379 -0.3133
86126W        W29220  21.181   5.243  28.831  0.1130 -0.2125  0.1102
86127W        W29221  18.265   3.142  29.390 -0.4245  0.2996  0.0041
86128W        W29222  20.639   4.466  28.308 -0.3008 -0.0958 -0.0062
86129W        W29223  19.782   8.839  29.833 -0.1654 -0.0647 -0.2838
86130W        W29224  19.868   5.408  29.657 -0.1281 -0.0406  0.2188
86131W        W29225  21.071   4.301   0.346 -0.1171  0.2640  0.2438
86132W        W29226  21.818   6.571  31.903  0.0656  0.1606  0.0152
86133W        W29227  20.078   4.136  30.206  0.2645  0.1949  0.2463
86134W        W29228  18.887   5.862   0.193  0.1350 -0.1815 -0.0783
86135W        W29229  18.432   7.667  29.800 -0.3625  0.2073  0.0383
86136W        W29230  18.263   6.728  30.823 -0.0916 -0.1828  0.1222
86137W        W29231  23.643   5.477  31.362  0.1047 -0.3132 -0.0331
86138W        W29232  21.988   4.525  29.969  0.1542  0.0786 -0.3181
86139W        W29233  20.187   5.765   0.548  0.1316 -0.1137  0.4369
86140W        W29234  19.652   8.365  31.455 -0.2652  0.2149  0.0849
86141W        W29235  19.469   6.911  30.268  0.0676 -0.0698 -0.1474
86142W        W29236  19.270   4.509  30.908  0.2319  0.3190 -0.2823
86143W        W29237  20.988   5.833   0.131 -0.0018 -0.2170  0.3267
86144W        W29238  17.847   5.735  31.137  0.2382  0.0873 -0.0807
86145W        W29239  22.609   6.698  31.180 -0.2248  0.2002  0.0966
86146W        W29240  18.621   5.924  31.226  0.1864  0.0909 -0.0193
86147W        W29241  17.969   4.871  31.304  0.2212  0.1730 -0.1837
86148W        W29242  20.689   6.496   0.474  0.0044 -0.1122 -0.2568
86149W        W29243  17.253   4.060   0.174  0.1300 -0.2514 -0.0756
86150W        W29244  16.470   4.667   0.072 -0.0957 -0.0007 -0.1116
86151W        W29245  19.777   3.734  31.114 -0.0934 -0.0218  0.1013
86152W        W29246  17.027   5.286  31.197  0.0412 -0.2360  0.1255
86153W        W29247  21.025   3.436  31.664 -0.1533 -0.3400 -0.0727
86154W        W29248  21.844   5.736   0.007 -0.1986  0.2121  0.2729
86155W        W29249  21.549   4.095  30.789 -0.2125  0.2371  0.2448
86156W        W29250  21.300   5.272  29.786  0.0905  0.0373  0.0394
86157W        W29251  20.956   5.232  31.213  0.0624 -0.3229 -0.1142
86158W        W29252  18.115   6.355  31.616  0.3294 -0.2299 -0.0814
86159W        W29253  19.582   4.480   0.211 -0.0513 -0.1002  0.0550
86160W        W29254  19.576   6.346   0.299 -0.0466  0.1904  0.0303
86161W        W29255  19.552   6.134  31.433 -0.0030  0.0181 -0.1719
86162W        W29256  19.655   5.187  31.772 -0.0962  0.2063 -0.0383
86163W        W29257  20.616   7.851  31.748 -0.2172 -0.1275  0.0281
86164W        W29258  21.507   5.949  30.887 -0.3556 -0.1705 -0.0726
86165W        W29259  17.220   5.249  31.791 -0.4270 -0.1791  0.3673
86166W        W29260  19.038   6.010  31.625 -0.1307  0.1075  0.2431
86167W        W29261  18.228   7.167  31.919  0.3544  0.0939  0.0852
86168W        W29262  20.880   7.041  31.549  0.0063 -0.0263  0.1821
86169W        W29263  21.493   6.210   1.331 -0.0021 -0.1235 -0.2829
86170W        W29264  21.754   6.388  30.905  0.2821  0.1186  0.0790
86171W        W29265  20.855   5.522  31.749  0.0853  0.1723 -0.3866
86172W        W29266  20.366   6.742   0.139 -0.3432  0.0585  0.2874
86173W        W29267  19.941   2.968  31.226 -0.0007 -0.1670  0.0353
86174W        W29268  19.781   7.357  31.851  0.1229  0.1078  0.2784
86175W        W29269  18.517   5.149  30.907  0.1746 -0.2316  0.0640
86176W        W29270  20.280   5.371   1.465 -0.1956  0.3475  0.0138
86177W        W29271  19.577   2.510  30.171  0.0997  0.1781  0.3134
86178W        W29272  19.234   5.978   0.552 -0.1602 -0.1651 -0.3009
86179W        W29273  21.182   7.724   0.312  0.0801  0.0126 -0.0814
86180W        W29274  16.619   5.077   0.358 -0.2249 -0.0488 -0.0996
86181W        W29275  21.844   6.498  31.396  0.1844  0.1301  0.0986
86182W        W29276  21.675   4.505  31.031 -0.2039  0.2675 -0.0791
86183W        W29277  20.648   6.086  31.138 -0.4611  0.0476  0.0692
86184W        W29278  19.963   5.452  31.428  0.0750  0.0962 -0.0980
86185W        W29279  20.761   3.858  31.448 -0.1186  0.0637 -0.1021
86186W        W29280  21.153   6.930  30.697 -0.3390 -0.0507 -0.2172
86187W        W29281  21.334   6.990   0.040 -0.2827  0.1456 -0.0811
86188W        W29282  19.064   6.860   0.473  0.2073 -0.2870  0.3147
86189W        W29283  18.950   7.045  29.655  0.2154  0.1740  0.3218
86190W        W29284  19.218   5.200  31.471  0.4996  0.2811 -0.1695
86191W        W29285  19.056   4.984  31.046  0.2788  0.1182 -0.1192
86192W        W29286  17.297   6.943   0.403 -0.4150 -0.2692  0.2986
86193W        W29287  17.511   5.436  30.982 -0.1060  0.0027  0.2124
86194W        W29288  19.221   3.702  31.374  0.0916 -0.0195 -0.0771
86195W        W29289  19.923   6.365  31.841  0.2310 -0.2290 -0.1442
86196W        W29290  21.941   5.379  29.746  0.2026 -0.0833 -0.1132
86197W        W29291  21.623   6.792   0.464  0.0013 -0.0803 -0.0298
86198W        W29292  19.064   9.761  19.233 -0.0239 -0.3397  0.0204
86199W        W29293  19.555   8.212  17.225 -0.0301  0.0928 -0.2499
86200W        W29294  20.285   8.443  15.473  0.0010  0.1292 -0.0968
86201W        W29295  21.204   8.044  17.898  0.2048  0.0461 -0.0324
86202W        W29296  17.572   8.130  16.406  0.1350  0.2594  0.0853
86203W        W29297  22.430  12.128  17.573 -0.1053  0.0935 -0.3072
86204W        W29298  18.433   6.479  19.372 -0.0885  0.1896 -0.0049
86205W        W29299  20.622  11.516  17.668  0.0307 -0.0621  0.2680
86206W        W29300  22.285   9.375  17.940 -0.3164  0.1443  0.1453
86207W        W29301  18.972   9.135  15.453 -0.0397 -0.0358  0.1925
86208W        W29302  19.902   7.876  17.962 -0.1788  0.2010  0.0669
86209W        W29303  19.801  10.051  18.412 -0.2668 -0.0267 -0.3013
86210W        W29304  18.640   7.546  17.101 -0.2172  0.1562 -0.0329
86211W        W29305  18.765   6.720  18.296 -0.3614  0.3034 -0.6136
86212W        W29306  20.251   7.950  18.858 -0.0332 -0.0618  0.3425
86213W        W29307  18.710   8.892  16.541  0.0455 -0.0002  0.3068
86214W        W29308  19.030   8.449  18.664 -0.1246  0.1653 -0.4185
86215W        W29309  19.246   8.084  17.628 -0.0925 -0.1648  0.3361
86216W        W29310  20.704  10.050  18.582 -0.0597 -0.1442 -0.1592
86217W        W29311  19.350   7.402  18.770 -0.1858  0.3419 -0.1321
86218W        W29312  22.047   7.106  20.404 -0.3009 -0.1546  0.2218
86219W        W29313  20.490  10.169  16.410 -0.0140  0.0363  0.0980
86220W        W29314  18.873   8.523  15.636 -0.2286 -0.2107 -0.0304
86221W        W29315  17.866   7.725  17.780  0.1917 -0.0923 -0.2616
86222W        W29316  18.850   9.452  17.691  0.0237  0.1382  0.2545
86223W        W29317  20.762   6.569  19.193  0.2269 -0.2070  0.0735
86224W        W29318  20.988   8.879  17.893  0.2171 -0.2207 -0.0925
86225W        W29319  20.327   9.885  18.248  0.0728  0.0689  0.2593
86226W        W29320  20.369  10.949  17.548  0.1187  0.2506  0.1724
86227W        W29321  20.432   8.596  20.115 -0.0545  0.0713 -0.3244
86228W        W29322  18.554   9.481  16.598 -0.0340 -0.0878  0.1184
86229W        W29323  17.729  12.309  17.281  0.3501 -0.4376 -0.2301
86230W        W29324  20.006   9.216  16.561  0.0802 -0.1853 -0.0814
86231W        W29325  22.092   9.576  16.889 -0.1781 -0.1231  0.1990
86232W        W29326  21.985   9.002  18.159  0.0629 -0.1236 -0.3974
86233W        W29327  21.266   9.371  18.662  0.0789 -0.4078 -0.0714
86234W        W29328  19.110  10.181  16.596 -0.0110  0.2115  0.1819
86235W        W29329  22.067  11.159  19.397  0.1042 -0.1126  0.2783
86236W        W29330  21.243   8.392  18.621  0.2539 -0.0095  0.1824
86237W        W29331  20.805   7.443  19.643 -0.0722 -0.1267 -0.0496
86238W        W29332  20.504   9.609  17.403 -0.1296 -0.3253  0.1925
86239W        W29333  19.430   9.692  17.040 -0.1421 -0.1859  0.1645
86240W        W29334  20.689   9.710  16.918  0.0332 -0.0363  0.2912
86241W        W29335  20.085   9.683  20.715  0.1524  0.0748  0.1829
86242W        W29336  18.769   9.319  18.221  0.1989 -0.1442  0.2374
86243W        W29337  21.279   8.299  20.181  0.0547 -0.1208 -0.1927
86244W        W29338  19.754   9.586  16.179 -0.0888 -0.1629  0.0200
86245W        W29339  21.585   9.439  15.961 -0.1877  0.0170 -0.3243
86246W        W29340  18.995   8.915  16.019  0.0879  0.1349 -0.1187
86247W        W29341  21.219   7.400  16.099 -0.2310  0.0093 -0.0869
86248W        W29342  18.704   8.089  17.481 -0.0527 -0.0707 -0.1192
86249W        W29343  17.732  11.561  16.810  0.1453 -0.4130  0.3113
86250W        W29344  18.056   8.129  18.753 -0.0801 -0.0134  0.2727
86251W        W29345  21.157   8.747  19.067 -0.1444  0.0010  0.2673
86252W        W29346  19.914   7.590  15.838 -0.1168  0.2370 -0.1523
86253W        W29347  20.280   8.028  18.260  0.1670  0.2454 -0.1707
86254W        W29348  19.459   9.396  19.540 -0.2441  0.1779  0.0073
86255W        W29349  15.940   8.275  17.119  0.2201 -0.0467  0.0828
86256W        W29350  21.655   9.555  14.823  0.1571 -0.0056  0.1395
86257W        W29351  21.490  10.536  17.652 -0.0814  0.0302 -0.3436
86258W        W29352  19.990  10.704  17.193  0.0233  0.0278  0.1294
86259W        W29353  18.170   8.712  17.484  0.0270  0.0755 -0.1529
86260W        W29354  17.366   7.766  18.712 -0.0256 -0.4260  0.0198
86261W        W29355  18.093   9.163  18.180 -0.0436  0.0451 -0.2149
86262W        W29356  17.312   7.530  15.569 -0.0198 -0.3250 -0.0460
86263W        W29357  21.874   9.217  18.756  0.0842  0.0449  0.3284
86264W        W29358  17.710  10.532  19.099 -0.0976  0.3131  0.2416
86265W        W29359  21.069   7.301  16.591 -0.1040 -0.3991  0.1911
86266W        W29360  19.302   9.289  18.084  0.4323 -0.1671 -0.2840
86267W        W29361  20.609   9.920  19.271 -0.0435 -0.1660  0.3162
86268W        W29362  20.979   9.207  16.149  0.3263 -0.3196  0.3404
86269W        W29363  21.475   6.993  17.866 -0.0721 -0.4149  0.2124
86270W        W29364  20.605   7.557  18.282  0.2338  0.1777 -0.3202
86271W        W29365  18.808   7.617  16.631 -0.0459 -0.2541 -0.0890
86272W        W29366  20.145  10.440  16.814  0.0839 -0.1273 -0.1122
86273W        W29367  21.840  10.195  18.996 -0.1417 -0.2549 -0.0356
86274W        W29368  19.863   9.041  16.042 -0.2749 -0.3990  0.1090
86275W        W29369  18.594  10.243  18.630 -0.1327 -0.1808 -0.0062
86276W        W29370  18.285   8.405  20.610  0.1192 -0.0828 -0.0810
86277W        W29371  19.968   9.385  19.005 -0.0740  0.0836  0.0046
86278W        W29372  17.989  11.398  16.370  0.1887 -0.0539  0.1433
86279W        W29373  17.327   8.584  17.716 -0.0943 -0.0826  0.1201
86280W        W29374  19.994   8.741  17.692 -0.0680 -0.2240 -0.0153
86281W        W29375  18.469   6.935  18.803  0.1421 -0.3123  0.0442
86282W        W29376  20.742   9.294  17.795  0.1889 -0.0028  0.0525
86283W        W29377  20.001   8.452  17.158  0.1556 -0.1484 -0.0430
86284W        W29378  18.986   6.743  18.748  0.1326 -0.0485  0.0523
86285W        W29379  21.364   8.441  17.643 -0.0699  0.0597  0.2082
86286W        W29380  18.836   8.546  17.421  0.1767  0.3647  0.4565
86287W        W29381  20.699  11.020  16.288  0.3651 -0.1233  0.1781
86288W        W29382  20.405   8.080  15.816  0.0585 -0.3493 -0.0581
86289W        W29383  20.250  10.894  15.967 -0.5974 -0.3895 -0.2215
86290W        W29384  17.539   7.418  17.450  0.1463 -0.2653 -0.1379
86291W        W29385  17.813   7.263  17.044  0.3102  0.0837  0.1048
86292W        W29386  19.236   7.518  18.034 -0.1945 -0.3070 -0.2184
86293W        W29387  18.133   6.833  18.130 -0.0649  0.1413 -0.0681
86294W        W29388  20.404   8.777  17.971 -0.0733 -0.4484 -0.0105
86295W        W29389  17.707   7.452  15.897 -0.0801 -0.0360  0.4157
86296W        W29390  20.741   7.901  17.869  0.3029  0.1955 -0.0086
86297W        W29391  19.752   9.611  18.029  0.2514  0.0444 -0.1346
86298W        W29392  18.990   9.611  17.247  0.1364  0.1806  0.1898
86299W        W29393  20.834   8.024  21.033 -0.2317 -0.0096 -0.0070
86300W        W29394  21.177   9.885  15.902 -0.0872  0.2769 -0.4333
86301W        W29395  21.316  10.846  17.295 -0.0052 -0.3465 -0.4922
86302W        W29396  21.338  11.659  16.807 -0.0463  0.1056 -0.1826
86303W        W29397  19.006   7.774  18.904 -0.4231 -0.1350  0.1446
86304W        W29398  18.650   7.228  15.881  0.3266  0.4157  0.1988
86305W        W29399  18.816  10.353  17.363 -0.2070  0.0822  0.1562
86306W        W29400  20.269   9.445  16.871  0.0283  0.1104 -0.0046
86307W        W29401  20.361   7.684  16.104  0.0624  0.0921 -0.0533
86308W        W29402  23.689   9.653  18.343  0.5306 -0.1217 -0.0805
86309W        W29403  20.409   9.267  16.080 -0.0129 -0.0301  0.1272
86310W        W29404  17.693   8.923  19.774 -0.1942 -0.1843  0.2950
86311W        W29405  19.780   7.814  18.884  0.3212  0.0273 -0.1191
86312W        W29406  22.003   7.148  18.550  0.0559  0.0011  0.0844
86313W        W29407  19.409   8.445  18.143 -0.1036 -0.0981 -0.1706
86314W        W29408  17.540   7.732  14.981 -0.0193 -0.1113  0.0510
86315W        W29409  22.360  10.439  17.335 -0.2082 -0.1002 -0.2025
86316W        W29410  18.664   9.972  16.492 -0.0767 -0.5843  0.0298
86317W        W29411  20.112   9.642  17.687 -0.0075  0.1980  0.0470
86318W        W29412  20.239  10.047  18.724 -0.1251 -0.1651 -0.3402
86319W        W29413  20.674   6.645  18.145  0.0721  0.1934  0.0722
86320W        W29414  18.727   9.393  19.081  0.0768 -0.0847  0.1265
86321W        W29415  19.896   8.704  20.263 -0.2415 -0.0614  0.1054
86322W        W29416  17.208   7.820  17.443  0.0961  0.2645  0.2689
86323W        W29417  18.992   9.787  20.379 -0.1881 -0.3090 -0.3270
86324W        W29418  19.951   7.105  17.510  0.0921  0.1343 -0.0932
86325W        W29419  22.044   7.585  16.390  0.3156 -0.2392 -0.2135
86326W        W29420  20.675   9.232  20.188  0.0152  0.2867 -0.0578
86327W        W29421  20.704   8.100  18.542 -0.5302  0.0144  0.2516
86328W        W29422  19.978   8.553  15.895  0.1553 -0.1402  0.2612
86329W        W29423  19.707   7.186  16.614 -0.0643  0.0355 -0.0970
86330W        W29424  16.556   9.604  20.296 -0.1530  0.1238  0.0549
86331W        W29425  20.524   9.103  16.631  0.2618  0.0196  0.0179
86332W        W29426  20.846   9.734  18.057  0.1069  0.0119  0.0554
86333W        W29427  20.283   7.603  16.972  0.0227  0.0439  0.2415
86334W        W29428  21.027   9.297  16.631 -0.1673 -0.3464  0.1299
86335W        W29429  18.454   8.594  19.124  0.0515 -0.1323  0.0505
86336W        W29430  20.760  10.354  19.029  0.0075 -0.0148  0.1211
86337W        W29431  20.748  10.616  17.840 -0.2025 -0.0200 -0.2189
86338W        W29432  18.972   7.199  19.673  0.2299 -0.0832 -0.3183
86339W        W29433  19.408   9.021  16.270 -0.0086  0.1022 -0.2299
86340W        W29434  19.449   7.932  18.091 -0.1184  0.0230  0.6443
86341W        W29435  18.151   9.698  16.890  0.3477 -0.0240 -0.2087
86342W        W29436  22.956   6.143  18.536  0.0267 -0.0889 -0.2060
86343W        W29437  19.602   7.570  18.374 -0.2575  0.0326 -0.0418
86344W        W29438  18.576   8.239  18.758 -0.1339 -0.2197  0.1559
86345W        W29439  22.287   8.691  19.497  0.1875  0.1655  0.1434
86346W        W29440  20.879   8.412  17.709 -0.1716 -0.0189 -0.3028
86347W        W29441  20.651   9.043  18.336 -0.2982  0.1170 -0.1679
86348W        W29442  18.124   8.277  16.204 -0.2956 -0.0471  0.0160
86349W        W29443  21.096   6.433  19.756  0.5400  0.1104 -0.0686
86350W        W29444  19.867   8.483  19.652 -0.0576 -0.0696 -0.0602
86351W        W29445  18.722  10.009  20.019 -0.0002 -0.0888 -0.1683
86352W        W29446  22.348   9.165  18.937 -0.1353  0.0745  0.3051
86353W        W29447  19.833   9.449  17.226 -0.0784 -0.2965  0.1363
86354W        W29448  19.097   7.930  19.455  0.0240 -0.0798 -0.2695
86355W        W29449  18.888   8.634  16.930  0.1385  0.5146 -0.1283
86356W        W29450  19.803  11.298  16.353 -0.1232  0.0986  0.0943
86357W        W29451  20.188   9.781  16.304 -0.2675 -0.2376  0.1280
86358W        W29452  20.467   7.322  17.354  0.1681 -0.1430  0.0375
86359W        W29453  21.098   8.938  18.538  0.1106  0.3068  0.1617
86360W        W29454  18.363   7.876  16.524  0.0591  0.0356 -0.2800
86361W        W29455  20.731   8.630  19.366 -0.3575 -0.0866  0.0831
86362W        W29456  19.083   9.939  17.634 -0.1165  0.0540 -0.0766
86363W        W29457  21.424   8.008  18.372  0.0741  0.0569  0.2170
86364W        W29458  18.207  10.323  18.223 -0.1964  0.1320  0.1490
86365W        W29459  18.036   8.222  16.722 -0.0998 -0.0573 -0.0632
86366W        W29460  19.247   8.679  17.228 -0.1058  0.1903 -0.0227
86367W        W29461  20.509   8.236  16.298  0.0237  0.1027  0.1622
86368W        W29462  21.228   8.723  16.689  0.1887 -0.2256  0.0399
86369W        W29463  18.129   9.708  17.381  0.0372  0.0595  0.0595
86370W        W29464  19.467   6.890  18.882 -0.0329 -0.0216 -0.0741
86371W        W29465  18.266   9.140  17.719  0.0388  0.1066  0.1287
86372W        W29466  20.908   8.480  18.240  0.1801  0.0766  0.1343
86373W        W29467  21.133   6.911  16.298  0.1551 -0.2192  0.0788
86374W        W29468  21.118   9.299  18.149  0.4576  0.0194  0.0456
86375W        W29469  20.075   8.957  19.839 -0.2363  0.0495 -0.0779
86376W        W29470  18.352   7.811  15.955 -0.2160 -0.2630  0.1142
86377W        W29471  21.737   8.167  17.961  0.2962  0.0792  0.0589
86378W        W29472  18.934   8.385  17.847 -0.1630 -0.2477 -0.3243
86379W        W29473  18.255  10.394  17.318  0.1499 -0.0697 -0.1669
86380W        W29474  20.005   9.660  18.579  0.1367 -0.1307  0.0356
86381W        W29475  19.489   9.333  16.688 -0.1940  0.1479  0.1001
86382W        W29476  21.074   9.638  17.608 -0.0919  0.5256 -0.0929
86383W        W29477  19.424   9.254  19.039  0.2369  0.3426  0.1960
86384W        W29478  21.521   7.954  17.582  0.2576  0.0931 -0.0753
86385W        W29479  20.225   8.851  18.965  0.0534  0.3091  0.1501
86386W        W29480  18.723   7.383  17.785  0.0198  0.2335  0.2020
86387W        W29481  20.070   8.868  18.316  0.1363 -0.3730 -0.0807
86388W        W29482  21.269   7.908  18.892 -0.0793  0.1254 -0.1324
86389W        W29483  20.789   8.438  19.845 -0.0816 -0.1277 -0.2024
86390W        W29484  19.885  10.680  21.047 -0.0163 -0.2250 -0.0489
86391W        W29485  19.304   8.770  18.995 -0.1448  0.0829 -0.1516
86392W        W29486  22.368  11.063  17.540 -0.0149  0.1551  0.3160
86393W        W29487  20.638   8.938  19.737  0.0310 -0.2793  0.0707
86394W        W29488  20.088   9.909  17.231 -0.0429 -0.0506  0.0156
86395W        W29489  18.616   9.907  17.457  0.2529  0.1145 -0.1874
86396W        W29490  19.847  10.701  16.482 -0.1414 -0.1961  0.3276
86397W        W29491  20.001   8.376  18.116  0.0724  0.1470  0.0475
86398W        W29492  17.579   8.959  18.279 -0.0565 -0.1328  0.0647
86399W        W29493  18.548  10.643  17.719  0.0419  0.2203  0.0681
86400W        W29494  19.280   8.916  19.437 -0.2079  0.3096 -0.1312
86401W        W29495  21.268   7.830  16.377  0.1304 -0.1317  0.0257
86402W        W29496  19.837   8.750  15.428 -0.0782 -0.2182 -0.4897
86403W        W29497  20.361   8.090  17.042  0.4399 -0.0618 -0.1084
86404W        W29498  20.189   6.850  21.499  0.2265  0.0805 -0.2076
86405W        W29499  20.714   9.620  15.888  0.1976 -0.0692  0.3055
86406W        W29500  21.417   7.374  20.682  0.1500  0.1650 -0.4742
86407W        W29501  18.359   8.460  17.095  0.1389  0.1811 -0.2390
86408W        W29502  20.495  10.575  17.210 -0.1250  0.3326  0.2105
86409W        W29503  18.256   7.913  18.006 -0.2407  0.0828 -0.3443
86410W        W29504  20.944  10.681  18.451  0.0222  0.2555  0.1183
86411W        W29505  18.955   8.422  19.250 -0.3298  0.3120 -0.1364
86412W        W29506  20.339   6.917  17.751  0.1695  0.0769  0.0865
86413W        W29507  18.935   7.598  15.690  0.1606 -0.0786 -0.0802
86414W        W29508  19.616   9.745  18.936  0.3043 -0.0345  0.1145
86415W        W29509  21.582  10.246  18.537 -0.0149  0.2251 -0.0084
86416W        W29510  20.059  10.377  16.065 -0.1400  0.2256 -0.0970
86417W        W29511  20.454   8.288  17.876 -0.2326  0.2094 -0.0704
86418W        W29512  18.665   8.501  18.308 -0.0755  0.0810  0.0551
86419W        W29513  20.802   8.857  17.427  0.3580  0.1941 -0.1110
86420W        W29514  20.153   8.808  16.307 -0.4088 -0.0662  0.3681
86421W        W29515  20.305   9.945  16.795  0.0580 -0.2139  0.4499
86422W        W29516  19.487   8.473  18.622 -0.1705 -0.0002  0.1486
86423W        W29517  22.222   8.816  18.545 -0.1004 -0.0226 -0.0052
86424W        W29518  20.220   8.495  16.679  0.0397  0.0657  0.0095
86425W        W29519  21.073   7.531  18.568  0.3178  0.0614 -0.0137
86426W        W29520  20.930   8.264  18.996 -0.3062 -0.0965 -0.2301
86427W        W29521  20.962   7.653  19.238 -0.2095 -0.1709 -0.1063
86428W        W29522  17.742   6.651  18.316 -0.0805  0.1174 -0.2545
86429W        W29523  21.938  11.255  17.425 -0.1531  0.2759  0.0391
86430W        W29524  21.920   8.250  15.707  0.1172  0.0552  0.3505
86431W        W29525  21.569   8.214  19.772 -0.2049  0.0808 -0.0308
86432W        W29526  21.119   7.256  17.130  0.2007  0.0423 -0.4825
86433W        W29527  19.246   8.892  16.772  0.1254  0.1030  0.0303
86434W        W29528  18.845   8.951  18.818 -0.4025  0.1401  0.1071
86435W        W29529  21.178   8.518  19.615 -0.0799  0.0970 -0.0719
86436W        W29530  18.328   8.393  15.674 -0.0756 -0.0482 -0.1131
86437W        W29531  21.268   6.159  19.299 -0.0937 -0.2528 -0.3311
86438W        W29532  19.805  10.043  15.828  0.0899 -0.1947 -0.0599
86439W        W29533  21.590   8.870  18.425  0.3253 -0.0743 -0.0465
86440W        W29534  20.718   8.617  16.980 -0.1497 -0.0646 -0.0048
86441W        W29535  18.122   8.108  17.472 -0.1055  0.0569  0.3968
86442W        W29536  19.507   9.983  19.380  0.1953  0.3206 -0.1275
86443W        W29537  17.470   8.129  15.379  0.1220  0.0168 -0.0706
86444W        W29538  19.437   9.847  16.425  0.2799  0.0245 -0.0826
86445W        W29539  20.949  10.727  16.939 -0.1118 -0.1410  0.1810
86446W        W29540  21.518   9.195  20.279  0.3575 -0.0492 -0.1444
86447W        W29541  19.075   8.194  17.147 -0.1418 -0.4767 -0.0925
86448W        W29542  21.567   7.239  19.071 -0.0367 -0.1182 -0.2267
86449W        W29543  17.877  11.052  16.829  0.0430 -0.2212  0.1638
86450W        W29544  20.211   7.107  16.989 -0.2433 -0.0117  0.1389
86451W        W29545  18.076   9.680  18.036  0.4418 -0.1850 -0.0724
86452W        W29546  18.277   9.718  19.131  0.0326  0.0222 -0.2210
86453W        W29547  19.364  10.639  18.147 -0.1154  0.0194 -0.0998
86454W        W29548  20.703   7.707  18.829 -0.1278 -0.2184 -0.1219
86455W        W29549  21.396   8.517  18.159  0.0761 -0.2144 -0.2550
86456W        W29550  20.164   9.372  18.126 -0.1184 -0.0404 -0.1586
86457W        W29551  22.494   8.299  19.242 -0.1467 -0.0889  0.0429
86458W        W29552  21.212  10.492  19.378 -0.3676  0.0140 -0.1285
86459W        W29553  17.944   8.646  19.062 -0.1235 -0.2579  0.0282
86460W        W29554  20.035  11.139  19.903  0.1725 -0.0749 -0.0673
86461W        W29555  21.466   9.155  16.442 -0.2015 -0.0171  0.0657
86462W        W29556  19.648   9.941  17.436 -0.1897 -0.1291 -0.6113
86463W        W29557  18.405   8.763  18.611  0.0564 -0.1800 -0.0181
86464W        W29558  20.701   8.779  18.850 -0.0282  0.1554  0.3108
86465W        W29559  21.822   8.408  18.425  0.0254 -0.3726 -0.2810
86466W        W29560  19.077   6.155  16.158 -0.0404  0.2129  0.2772
86467W        W29561  19.089  10.197  18.422 -0.3692 -0.1593  0.0747
86468W        W29562  20.444  10.896  19.956  0.1697  0.1720 -0.1715
86469W        W29563  17.450   8.811  18.823 -0.0071  0.0012  0.2851
86470W        W29564  18.240  10.819  16.516 -0.3059 -0.0083 -0.1933
86471W        W29565  21.200  10.135  17.650  0.1164 -0.2180  0.1399
86472W        W29566  21.287   8.793  16.169  0.0027  0.0224  0.1760
86473W        W29567  22.235  11.476  16.733  0.0240  0.0889 -0.0442
86474W        W29568  19.846   8.203  16.773  0.2840  0.0126  0.0818
86475W        W29569  18.256  10.149  17.731  0.1227 -0.2763 -0.0465
86476W        W29570  19.022   9.738  18.056 -0.2428  0.2170  0.1755
86477W        W29571  21.904   9.475  16.353  0.0339  0.0464  0.0640
86478W        W29572  19.391  10.323  15.722  0.2300 -0.1405  0.0670
86479W        W29573  21.622   9.837  19.550  0.0564  0.1997 -0.1273
86480W        W29574  21.461   7.045  16.758  0.4379  0.0480  0.2096
86481W        W29575  21.663   8.907  17.316  0.0215 -0.3585 -0.0109
86482W        W29576  21.178   8.291  16.352  0.1244 -0.0498  0.0203
86483W        W29577  20.739   7.904  20.522  0.0108 -0.0780 -0.0820
86484W        W29578  19.175   8.933  17.733 -0.3903 -0.3416  0.1591
86485W        W29579  19.501   8.004  16.349  0.1266 -0.0717 -0.1532
86486W        W29580  20.180   9.222  20.246  0.1368  0.0289  0.0502
86487W        W29581  22.433   6.858  19.023 -0.1515  0.2622 -0.1709
86488W        W29582  17.556  10.185  19.463  0.1738  0.0795  0.0811
86489W        W29583  20.333   8.834  17.181  0.1303  0.1997 -0.1347
86490W        W29584  17.951   7.753  16.174 -0.3298  0.4625  0.0108
86491W        W29585  19.850   8.901  17.214  0.0530  0.1595  0.2412
86492W        W29586  22.119   6.693  20.733  0.2225  0.1747 -0.2553
86493W        W29587  19.007   9.668  16.724  0.0484 -0.0596 -0.2096
86494W        W29588  19.550   8.514  17.626  0.0408  0.0827 -0.0260
86495W        W29589  18.535  11.123  17.596 -0.3167 -0.0969 -0.1494
86496W        W29590  19.384   9.506  17.521 -0.2781  0.0238 -0.3641
86497W        W29591  18.874  10.906  18.015 -0.1870  0.0827  0.1653
86498W        W29592  17.970   8.006  15.680 -0.0591  0.2037  0.0889
86499W        W29593  22.384   7.836  17.230  0.0551 -0.2891  0.1937
86500W        W29594  19.169   8.846  18.298 -0.0465  0.1408 -0.1384
86501W        W29595  21.753   7.451  20.316  0.1785 -0.1660  0.1961
86502W        W29596  18.446   8.390  17.740 -0.2258 -0.1290  0.3271
86503W        W29597  20.993   7.752  16.875  0.1354  0.0836 -0.0897
86504W        W29598  21.027  10.211  18.219 -0.5549 -0.3175 -0.1797
86505W        W29599  17.948   8.373  17.886 -0.1644  0.4318 -0.1765
86506W        W29600  21.392   9.724  16.361 -0.0302  0.2237 -0.0684
86507W        W29601  21.692   9.553  19.173  0.4634  0.0587 -0.2291
86508W        W29602  20.810   7.763  15.862 -0.2298 -0.2829 -0.1341
86509W        W29603  21.873  12.109  17.426 -0.0181  0.1314 -0.1346
86510W        W29604  17.757   8.849  17.824 -0.3233  0.0828  0.0362
86511W        W29605  19.403   8.396  16.822 -0.0933 -0.0406 -0.1482
86512W        W29606  18.511   9.448  17.108  0.1855 -0.2471  0.3011
86513W        W29607  20.939   9.229  19.001 -0.0762 -0.0007 -0.0776
86514W        W29608  20.911   8.001  20.094 -0.2150 -0.1670  0.1575
86515W        W29609  18.530   6.904  17.712  0.0021  0.3774 -0.1096
86516W        W29610  22.255   9.277  15.916 -0.1279 -0.1830  0.0611
86517W        W29611  21.611   7.680  18.054 -0.1611  0.1262  0.2061
86518W        W29612  18.594  11.330  15.857 -0.0741  0.2596 -0.0343
86519W        W29613  20.697   9.228  17.084 -0.1290  0.2337  0.0543
86520W        W29614  21.880  10.521  16.699  0.0455 -0.1695  0.0999
86521W        W29615  19.639   8.883  18.068  0.1315  0.0579 -0.0707
86522W        W29616  20.878  12.639  17.182  0.1062 -0.3155  0.1901
86523W        W29617  22.714   9.473  19.048  0.0328  0.0327 -0.0773
86524W        W29618  20.127   7.420  16.460 -0.0571 -0.2612 -0.1231
86525W        W29619  18.696   8.958  17.887 -0.1883  0.1637 -0.1337
86526W        W29620  18.765  10.486  16.442  0.0301 -0.0897 -0.2741
86527W        W29621  21.955   6.872  19.066 -0.0395  0.0687 -0.2085
86528W        W29622  21.583   7.748  19.197  0.4876 -0.1768  0.0052
86529W        W29623  18.525  10.227  16.042  0.0005 -0.1479  0.4229
86530W        W29624  21.167   6.987  19.810  0.6540 -0.0689  0.0082
86531W        W29625  19.499  10.415  18.608 -0.3278  0.0113 -0.1006
86532W        W29626  19.115   9.310  20.083  0.0362  0.0545  0.0405
86533W        W29627  18.520   9.670  16.082 -0.1680  0.3725 -0.2693
86534W        W29628  19.634   9.322  18.505 -0.1655 -0.1554  0.0559
86535W        W29629  20.457   8.401  17.379  0.0034  0.2023  0.1335
86536W        W29630  19.298  10.222  17.195  0.1163 -0.1826 -0.1157
86537W        W29631  19.483  10.355  17.641  0.4937 -0.2360  0.1255
86538W        W29632  20.247   7.918  16.561  0.2372 -0.0455 -0.0026
86539W        W29633  21.621  10.089  18.032  0.3433 -0.0333 -0.0135
86540W        W29634  20.283   7.506  17.871 -0.0625  0.1055 -0.1045
86541W        W29635  22.158   5.967  18.729  0.1515 -0.2522 -0.0153
86542W        W29636  20.753   7.788  16.383 -0.0810  0.0878 -0.1523
86543W        W29637  17.959   9.004  18.722 -0.0667 -0.0180 -0.3220
86544W        W29638  18.717   8.112  16.080 -0.3197  0.1719 -0.0137
86545W        W29639  18.373   9.171  16.259  0.1727  0.0606  0.2167
86546W        W29640  20.431   8.379  18.939 -0.4575  0.2509  0.1505
86547W        W29641  19.870   7.544  19.344  0.1705  0.2591 -0.1668
86548W        W29642  17.406   8.719  19.307 -0.0447 -0.1060  0.3654
86549W        W29643  16.808   8.108  17.323  0.1935  0.0679 -0.2405
86550W        W29644  17.968   7.214  17.642  0.1054  0.0514 -0.2400
86551W        W29645  20.744   8.635  16.389 -0.0643  0.1730 -0.0245
86552W        W29646  18.952   7.586  18.436 -0.1404  0.0966 -0.0341
86553W        W29647  18.464   6.217  17.408 -0.1163 -0.1282 -0.0512
86554W        W29648  20.740  10.065  17.362  0.1141 -0.2119 -0.0492
86555W        W29649  19.855   9.695  16.735 -0.3593 -0.4069 -0.0549
86556W        W29650  19.388   7.841  16.953 -0.0042 -0.0323 -0.0503
86557W        W29651  23.047   9.972  18.273 -0.0557  0.0346 -0.0316
86558W        W29652  18.029   8.892  15.478 -0.1648 -0.2056  0.1915
86559W        W29653  19.673   9.137  20.177 -0.0379 -0.0488 -0.0346
86560W        W29654  20.010   8.461  18.674  0.2776  0.0543  0.0051
86561W        W29655  17.396   9.076  16.418 -0.0054  0.1729 -0.3667
86562W        W29656  20.417   8.503  18.405  0.3353  0.1087  0.0612
86563W        W29657  20.848  11.145  17.769  0.2444  0.0642 -0.2845
86564W        W29658  19.838  11.214  15.846  0.0875 -0.0622  0.1690
86565W        W29659  19.886  10.551  18.032 -0.1795  0.1193 -0.1699
86566W        W29660  20.171   9.748  20.211 -0.0103  0.1785 -0.0487
86567W        W29661  17.761   8.517  18.579 -0.2396 -0.0835 -0.1451
86568W        W29662  20.328   9.135  17.618  0.0228  0.1885 -0.1367
86569W        W29663  21.571   7.641  18.644 -0.1993  0.1630  0.2368
86570W        W29664  21.774   8.700  17.794  0.0301 -0.0440 -0.1261
86571W        W29665  20.779   8.220  16.707 -0.0347  0.0430  0.0558
86572W        W29666  19.804   8.064  18.427 -0.1158  0.1247  0.0990
86573W        W29667  19.474   7.619  19.681 -0.2052 -0.0937 -0.2574
86574W        W29668  18.241  10.117  20.170  0.2727  0.2269  0.0445
86575W        W29669  22.086   8.669  19.009 -0.1434  0.2904  0.1206
86576W        W29670  18.118   6.631  17.521  0.0845  0.1189  0.1283
86577W        W29671  19.969   8.199  17.536 -0.4136 -0.1111  0.2478
86578W        W29672  20.205  10.468  15.583  0.0197 -0.2040  0.0108
86579W        W29673  18.279   9.166  19.017 -0.1326 -0.0224 -0.0218
86580W        W29674  19.767   8.794  16.639  0.2221 -0.0419 -0.0521
86581W        W29675  19.853   8.173  20.372  0.2627  0.1316 -0.1075
86582W        W29676  19.736  10.141  16.954  0.4760  0.2104  0.0023
86583W        W29677  21.186   9.002  19.504 -0.1645  0.2253 -0.0682
86584W        W29678  19.343   9.140  17.213  0.1866 -0.0951 -0.0284
86585W        W29679  19.641   8.501  16.294  0.0580 -0.0783 -0.0627
86586W        W29680  22.049  11.519  18.765 -0.1849 -0.0832  0.1099
86587W        W29681  20.751   9.425  19.456 -0.1282 -0.0001  0.2382
86588W        W29682  20.190  11.241  18.634 -0.0326  0.1959  0.1313
86589W        W29683  22.500   7.955  18.285 -0.1629  0.4001 -0.1122
86590W        W29684  19.977   6.017  17.156 -0.1028  0.1923 -0.0380
86591W        W29685  19.753   9.241  17.720  0.0372 -0.3875  0.0394
86592W        W29686  19.943   7.813  17.226  0.1055 -0.0812 -0.1427
86593W        W29687  22.061   7.690  18.694  0.0932  0.0320  0.0812
86594W        W29688  17.264   8.305  17.285  0.4473 -0.3592 -0.1695
86595W        W29689  20.700   6.855  16.516  0.1097 -0.2498  0.2182
86596W        W29690  19.121   9.375  18.630 -0.2796  0.1680  0.0818
86597W        W29691  20.264   9.221  18.639 -0.2139  0.0457 -0.2372
86598W        W29692  18.868   9.460  22.809 -0.0308 -0.2268  0.4385
86599W        W29693  19.295   9.734  21.821 -0.3232  0.0216  0.1459
86600W        W29694  21.397   8.295  19.224  0.2489  0.1870 -0.0021
86601W        W29695  20.691   9.745  19.926 -0.2112  0.0515  0.2632
86602W        W29696  17.941   6.911  21.939 -0.2927  0.1919 -0.1736
86603W        W29697  20.333  10.643  20.796 -0.0339  0.2282  0.0727
86604W        W29698  18.619   6.218  22.628  0.0888 -0.1790 -0.2975
86605W        W29699  21.122  10.125  21.642 -0.2580  0.1751 -0.1017
86606W        W29700  21.320   9.793  21.333 -0.0145 -0.1439  0.0516
86607W        W29701  19.006   8.793  19.809 -0.2993  0.1785  0.2065
86608W        W29702  18.438   7.396  22.239  0.1712 -0.0054 -0.2331
86609W        W29703  18.524   9.251  22.477 -0.1993 -0.3325  0.1475
86610W        W29704  19.616   7.462  21.400 -0.3995  0.0229 -0.1525
86611W        W29705  18.160   6.058  22.297  0.1832 -0.2341 -0.0100
86612W        W29706  21.384   9.011  23.033  0.0962 -0.4289  0.3663
86613W        W29707  18.405   9.735  21.021 -0.1585  0.0837  0.0602
86614W        W29708  18.734   7.958  22.498 -0.3285 -0.1017 -0.0830
86615W        W29709  19.277   8.814  20.280 -0.1417 -0.0425  0.2002
86616W        W29710  20.411   9.996  21.193 -0.3211  0.0017  0.0438
86617W        W29711  19.491   8.582  21.679  0.1958 -0.2442  0.2770
86618W        W29712  18.595   7.915  24.875 -0.0868 -0.1988 -0.3464
86619W        W29713  19.798   9.711  21.873 -0.3830 -0.0894  0.1577
86620W        W29714  19.113   7.058  18.352 -0.4340  0.0588  0.2326
86621W        W29715  17.233   8.547  21.829 -0.0724  0.1141  0.2551
86622W        W29716  18.408   9.009  21.854 -0.1695  0.1439 -0.0062
86623W        W29717  20.746   9.650  22.616  0.0130 -0.0422  0.2226
86624W        W29718  19.798   8.198  21.765  0.1350  0.0977  0.1024
86625W        W29719  20.404  10.557  21.278 -0.0807 -0.1659  0.0329
86626W        W29720  20.509  10.229  20.679 -0.2872  0.0232 -0.1959
86627W        W29721  20.749  10.359  24.152 -0.4464 -0.1490  0.2173
86628W        W29722  18.878   9.276  21.929 -0.2184  0.1788 -0.1282
86629W        W29723  17.599   9.912  20.814 -0.1379 -0.1923  0.3769
86630W        W29724  18.744  11.602  20.401 -0.1173 -0.0504  0.0126
86631W        W29725  20.810   9.792  21.381  0.0416 -0.0741  0.2470
86632W        W29726  19.479   9.940  23.817 -0.0211  0.0368  0.3880
86633W        W29727  19.880  11.545  23.282 -0.0157 -0.3569 -0.1159
86634W        W29728  17.868   9.642  19.447  0.0499 -0.1530  0.0413
86635W        W29729  21.781  10.889  23.011 -0.0061 -0.2142 -0.0653
86636W        W29730  18.954  10.800  23.193  0.1079 -0.1455  0.2514
86637W        W29731  20.476   8.453  20.964  0.1475 -0.0137 -0.2422
86638W        W29732  18.748   8.633  21.403 -0.1013 -0.2476  0.0877
86639W        W29733  19.615  10.540  20.512 -0.1281 -0.1274 -0.2399
86640W        W29734  18.744   8.114  22.069  0.2124 -0.0627 -0.1163
86641W        W29735  19.028  10.394  24.067  0.1240 -0.1112 -0.0904
86642W        W29736  17.649  10.115  22.422 -0.0372 -0.1168  0.0231
86643W        W29737  21.885   7.963  24.460 -0.1689  0.0170 -0.2581
86644W        W29738  19.281  10.188  20.722 -0.1764 -0.1324  0.2289
86645W        W29739  21.592   8.691  19.409  0.3535  0.1086 -0.0317
86646W        W29740  18.574   8.115  19.377 -0.3343 -0.1764 -0.1892
86647W        W29741  20.674   9.304  21.733  0.1021 -0.0060  0.1122
86648W        W29742  18.706   7.091  21.297  0.1817 -0.0111  0.0395
86649W        W29743  18.532  10.505  22.183 -0.0831  0.0239 -0.0221
86650W        W29744  19.185   7.970  22.242 -0.3038 -0.2667  0.3152
86651W        W29745  21.071  10.285  23.383  0.2162  0.0110 -0.2401
86652W        W29746  19.354   8.162  20.577 -0.1004 -0.0418 -0.2075
86653W        W29747  19.323   8.205  22.662  0.1486  0.1157 -0.3827
86654W        W29748  19.946  10.137  22.821  0.0389  0.0772 -0.2309
86655W        W29749  19.163   8.503  22.256  0.1489  0.2864 -0.0696
86656W        W29750  22.079   9.876  19.301  0.1550  0.2130  0.0363
86657W        W29751  21.792   8.887  20.612  0.1097 -0.0994  0.1236
86658W        W29752  20.797   9.486  18.513  0.0636  0.0099  0.0355
86659W        W29753  19.103   9.163  21.456 -0.0181 -0.1265  0.1095
86660W        W29754  18.815   9.786  21.634 -0.1374  0.0560  0.0356
86661W        W29755  18.963   9.181  23.592  0.0122 -0.0397 -0.0257
86662W        W29756  19.964   6.401  18.462  0.2431  0.0639  0.1130
86663W        W29757  21.616  12.138  23.769  0.0220 -0.0574 -0.0254
86664W        W29758  18.496  10.063  23.501 -0.4868 -0.0559 -0.0059
86665W        W29759  20.750   7.515  21.082 -0.0102  0.0131 -0.0966
86666W        W29760  17.445   9.345  21.282 -0.2057  0.2422  0.1987
86667W        W29761  20.943   9.096  22.665  0.0987  0.1204  0.2066
86668W        W29762  19.931   9.552  19.479 -0.1402 -0.0920  0.0229
86669W        W29763  20.325   7.366  21.485  0.0764  0.0964  0.0979
86670W        W29764  19.526   7.760  21.755 -0.0894 -0.0220 -0.0169
86671W        W29765  18.029   8.146  20.226  0.4100 -0.0233  0.1218
86672W        W29766  17.851   9.065  20.235 -0.1365  0.0793  0.0575
86673W        W29767  22.543  10.700  21.979  0.1151 -0.5671 -0.0070
86674W        W29768  21.577   9.315  19.722 -0.2149 -0.1985 -0.0717
86675W        W29769  20.337   9.085  22.012  0.2232  0.0063  0.1021
86676W        W29770  18.260   7.988  23.798 -0.0536 -0.2312 -0.2145
86677W        W29771  20.781   9.763  21.936 -0.1723 -0.0574 -0.0975
86678W        W29772  18.078  10.614  20.086  0.4066 -0.0317 -0.1236
86679W        W29773  18.313  10.192  23.020 -0.1488 -0.0780  0.2080
86680W        W29774  17.132   9.613  20.078  0.1580 -0.1482 -0.0176
86681W        W29775  17.992   7.604  20.754 -0.3119 -0.0373  0.0234
86682W        W29776  19.128   9.958  24.161  0.2531  0.0153 -0.4658
86683W        W29777  22.108   6.619  21.657  0.5116  0.0955 -0.0584
86684W        W29778  19.140   7.745  22.844 -0.0775  0.4757 -0.1229
86685W        W29779  21.121   8.498  20.825 -0.1280 -0.3658  0.1007
86686W        W29780  18.775   8.973  20.441  0.0460 -0.1767 -0.0888
86687W        W29781  20.854   9.416  20.793  0.0436 -0.2314  0.3923
86688W        W29782  20.501   9.478  21.105  0.1455  0.2068  0.0205
86689W        W29783  20.548  10.222  20.132 -0.0159 -0.1477 -0.1149
86690W        W29784  17.102   8.227  22.296  0.3409 -0.1644 -0.2963
86691W        W29785  17.813   7.793  21.662  0.2101  0.3057 -0.1902
86692W        W29786  18.898   8.079  23.097 -0.1631 -0.1972 -0.0171
86693W        W29787  19.007   6.843  20.991  0.1765  0.4764  0.1491
86694W        W29788  19.929   9.425  22.863 -0.1327  0.0894  0.0613
86695W        W29789  19.201   7.976  20.029  0.2813  0.0403 -0.2038
86696W        W29790  21.584   6.636  21.229 -0.1038 -0.1157 -0.4600
86697W        W29791  18.159   8.740  21.486 -0.0338  0.2493 -0.4253
86698W        W29792  17.692   8.611  20.301 -0.2391 -0.2553 -0.1608
86699W        W29793  20.862   8.950  23.752  0.0718  0.1488  0.1170
86700W        W29794  19.723   9.666  20.072 -0.2107  0.2605  0.2550
86701W        W29795  21.991  11.327  22.606  0.1515 -0.2596  0.1005
86702W        W29796  20.928  10.218  22.133  0.0176  0.1257  0.0324
86703W        W29797  19.681   7.936  22.271  0.1719 -0.2198 -0.1741
86704W        W29798  18.267   7.375  20.371 -0.0319  0.0383  0.1037
86705W        W29799  19.438  10.433  21.317 -0.0645 -0.1638 -0.4196
86706W        W29800  19.348   9.142  21.888  0.3086  0.2621 -0.2253
86707W        W29801  18.060   7.603  19.985  0.1237 -0.0794 -0.1322
86708W        W29802  22.315  10.485  21.583 -0.2165 -0.2840 -0.0772
86709W        W29803  19.910   9.336  21.083 -0.0230 -0.0183 -0.0144
86710W        W29804  18.917   9.881  20.936 -0.1872  0.0623  0.0216
86711W        W29805  21.417   6.386  23.348  0.1078  0.0737  0.0500
86712W        W29806  20.228   9.755  22.687  0.0436 -0.0943  0.0866
86713W        W29807  19.435   7.800  21.038  0.1374 -0.0257 -0.1084
86714W        W29808  17.792   9.154  19.209 -0.1296 -0.1133  0.2437
86715W        W29809  20.657  11.136  22.118  0.1816  0.0535  0.0268
86716W        W29810  19.885  10.059  19.838  0.2796  0.2072  0.0865
86717W        W29811  17.392   8.221  20.229 -0.2276 -0.0287 -0.0526
86718W        W29812  19.930  10.301  21.373 -0.0268 -0.0148 -0.2329
86719W        W29813  20.129   8.392  21.343  0.0515  0.1907 -0.1490
86720W        W29814  17.347   8.985  22.985  0.0999 -0.0663 -0.3034
86721W        W29815  20.781   7.754  23.445  0.0111 -0.2049  0.1827
86722W        W29816  19.791   8.510  19.162 -0.2216  0.0493  0.2007
86723W        W29817  18.430  11.105  24.357  0.0977  0.0649 -0.2451
86724W        W29818  19.912   9.241  22.378  0.0427  0.3051  0.2358
86725W        W29819  21.731   9.828  21.024 -0.1174 -0.1284  0.0205
86726W        W29820  19.838   9.859  24.726 -0.3136 -0.1895 -0.1120
86727W        W29821  21.245   9.149  20.792  0.2245  0.3133 -0.2335
86728W        W29822  20.336   7.194  19.537 -0.0433  0.0178  0.2119
86729W        W29823  18.619   8.599  20.059  0.1267 -0.0392  0.1787
86730W        W29824  18.507   8.694  24.186 -0.0581  0.1656 -0.0189
86731W        W29825  20.517   8.814  21.478  0.0660  0.0970 -0.0595
86732W        W29826  19.244   8.576  23.000 -0.1226 -0.0896  0.1425
86733W        W29827  18.712   8.165  20.814 -0.0544  0.1837 -0.0556
86734W        W29828  22.317   9.680  20.216 -0.0841  0.0238  0.1501
86735W        W29829  18.130   9.801  23.780  0.2796  0.0110  0.2364
86736W        W29830  20.210   9.713  23.216 -0.4169  0.0556 -0.0041
86737W        W29831  21.082   9.482  20.364  0.0928  0.1105 -0.2583
86738W        W29832  18.108   7.507  21.280  0.2110  0.0019  0.1699
86739W        W29833  19.003   8.595  20.768  0.0773 -0.1440 -0.0307
86740W        W29834  21.306   6.260  21.554  0.3766  0.0342  0.1007
86741W        W29835  18.194  11.271  19.792 -0.0553  0.2003  0.4024
86742W        W29836  19.291   8.664  23.876 -0.2730  0.1622 -0.2379
86743W        W29837  19.794   8.735  21.081  0.2469 -0.0860  0.1672
86744W        W29838  18.451   6.765  21.644  0.3391  0.0597  0.0185
86745W        W29839  20.316  11.065  24.520 -0.3415 -0.2190  0.2230
86746W        W29840  20.439   8.765  20.566  0.1493 -0.0730  0.2379
86747W        W29841  18.348   7.876  20.477  0.0897  0.2959 -0.2319
86748W        W29842  19.048   8.403  20.260  0.4719 -0.0338 -0.1297
86749W        W29843  19.786   8.459  22.927 -0.0868 -0.2264 -0.2081
86750W        W29844  18.048   8.757  23.858  0.2249  0.0779 -0.0372
86751W        W29845  17.846  10.576  22.247 -0.2246  0.1634 -0.0989
86752W        W29846  19.526   8.926  22.237 -0.2397  0.1164 -0.0714
86753W        W29847  20.566   8.256  21.644 -0.0145 -0.0941 -0.0034
86754W        W29848  18.821   8.475  22.732 -0.1167 -0.0911  0.0119
86755W        W29849  19.673   8.023  19.817 -0.2330 -0.1890  0.2116
86756W        W29850  18.687  10.810  20.970  0.2625 -0.0284  0.2478
86757W        W29851  19.733   8.236  21.079 -0.3882 -0.2577  0.1359
86758W        W29852  17.881   7.908  21.174  0.4001  0.1228 -0.0861
86759W        W29853  18.440   9.650  22.057 -0.0761 -0.0264 -0.1128
86760W        W29854  18.889  10.581  20.602 -0.0964  0.1461 -0.2492
86761W        W29855  20.769   8.903  22.142 -0.0878 -0.0597  0.2240
86762W        W29856  18.015  10.632  19.527  0.0773  0.0167 -0.2236
86763W        W29857  20.492   7.601  22.056  0.0271  0.1454  0.0302
86764W        W29858  17.641  10.221  21.773  0.0841  0.0220 -0.0065
86765W        W29859  19.278   8.977  20.806  0.0253 -0.2956  0.1103
86766W        W29860  18.028   8.831  20.629  0.0605  0.4138 -0.2863
86767W        W29861  21.400   7.704  21.756  0.2545  0.2045 -0.0845
86768W        W29862  20.763   8.973  20.969 -0.1815  0.1123 -0.0591
86769W        W29863  18.768   8.876  22.236  0.0104  0.1407  0.2624
86770W        W29864  18.906   7.705  20.918  0.2987 -0.2907  0.3112
86771W        W29865  18.087   9.685  22.526  0.0132  0.0599  0.0997
86772W        W29866  19.990   8.792  22.345  0.0018 -0.1581  0.0583
86773W        W29867  20.322   8.036  20.922 -0.0334  0.0294  0.2745
86774W        W29868  21.024  10.020  22.854 -0.1202  0.0843 -0.0452
86775W        W29869  19.249   8.688  24.589  0.0768  0.2470 -0.0961
86776W        W29870  18.244   8.304  18.331 -0.1190  0.1021 -0.2328
86777W        W29871  20.115   8.398  23.715  0.1383 -0.1582  0.2769
86778W        W29872  19.276   9.930  21.299  0.4627 -0.3487 -0.1239
86779W        W29873  18.104  10.189  21.782 -0.0579 -0.1866 -0.4291
86780W        W29874  18.442   9.071  23.835  0.2409 -0.0638 -0.0133
86781W        W29875  19.780   9.022  19.307 -0.0410 -0.1893  0.2603
86782W        W29876  18.427  10.335  20.995  0.3782  0.1625  0.1771
86783W        W29877  17.727   7.787  22.287  0.2346 -0.0682  0.3008
86784W        W29878  19.620   9.248  23.224  0.1389  0.1661  0.0184
86785W        W29879  19.283   9.599  23.466 -0.2576 -0.2730 -0.2991
86786W        W29880  19.620   7.430  20.858  0.2276 -0.2289 -0.2055
86787W        W29881  20.405   9.292  20.684 -0.3498  0.0056  0.2420
86788W        W29882  19.546   9.591  22.289 -0.2305 -0.2631 -0.3269
86789W        W29883  19.388   9.488  24.442 -0.2772  0.2297 -0.0085
86790W        W29884  19.321  10.169  23.314 -0.1493 -0.1957 -0.0970
86791W        W29885  20.015   6.817  20.633 -0.0306 -0.0553 -0.0123
86792W        W29886  20.617  11.193  21.513 -0.1808  0.1880  0.1150
86793W        W29887  20.617  11.141  23.266  0.1605 -0.0286 -0.2388
86794W        W29888  18.499   9.706  20.422  0.1363 -0.0272  0.4020
86795W        W29889  17.632   9.507  22.403  0.1673 -0.2973  0.3100
86796W        W29890  17.982  10.499  21.435  0.1968  0.0474 -0.1842
86797W        W29891  19.906   6.325  20.089  0.2555 -0.1371 -0.0074
86798W        W29892  18.949  10.326  21.069 -0.2200  0.0156 -0.0197
86799W        W29893  20.309   9.735  21.624 -0.2358 -0.0853 -0.3004
86800W        W29894  18.828  10.139  22.053  0.2822  0.0313  0.0775
86801W        W29895  20.661   7.003  21.644  0.0312  0.0324 -0.0151
86802W        W29896  20.057   8.489  20.699  0.0510 -0.0281  0.0332
86803W        W29897  19.142   7.802  21.443 -0.2938 -0.0210  0.0211
86804W        W29898  21.097   6.701  23.579  0.1492  0.3404  0.4424
86805W        W29899  20.588   9.776  20.507  0.2270  0.0640 -0.2401
86806W        W29900  21.328   7.116  23.726 -0.1943 -0.2614 -0.2616
86807W        W29901  18.678   6.859  22.071  0.3423 -0.3196  0.2206
86808W        W29902  21.261   8.851  21.171 -0.0498 -0.2705 -0.2492
86809W        W29903  18.104   7.619  24.908 -0.2017 -0.3250 -0.0260
86810W        W29904  20.972  10.949  24.107 -0.2093 -0.0465  0.1955
86811W        W29905  19.051   9.198  24.717 -0.0755 -0.1412  0.2400
86812W        W29906  19.512   6.897  19.829  0.1178 -0.2570 -0.2654
86813W        W29907  19.104   6.887  20.125  0.0741 -0.6070 -0.0608
86814W        W29908  19.186   9.237  22.340 -0.2872  0.2134 -0.1100
86815W        W29909  21.058   8.926  21.608 -0.1018 -0.1437 -0.1788
86816W        W29910  18.631   9.445  20.016  0.0184 -0.1465 -0.1522
86817W        W29911  19.528   9.491  21.491  0.1007  0.0934 -0.2278
86818W        W29912  17.967   9.228  21.475 -0.2175  0.0365  0.0586
86819W        W29913  19.784   9.102  20.691 -0.0074  0.1677  0.0178
86820W        W29914  19.503   8.417  20.098 -0.0038 -0.2058 -0.1463
86821W        W29915  17.870   8.284  21.896  0.0854 -0.2747  0.4698
86822W        W29916  17.675   8.283  21.425 -0.1776  0.0906  0.2777
86823W        W29917  20.392   8.214  20.492  0.0059 -0.1589 -0.2797
86824W        W29918  20.219   8.091  22.067 -0.1988 -0.1870 -0.2687
86825W        W29919  20.063   8.276  23.255  0.2114 -0.1595 -0.2670
86826W        W29920  20.650   9.981  23.500  0.2081 -0.4791 -0.2396
86827W        W29921  19.886  10.942  23.913  0.3771  0.3172  0.1774
86828W        W29922  18.704   7.065  23.661  0.2804  0.3169 -0.1908
86829W        W29923  22.345   9.619  21.086 -0.0729 -0.4016 -0.1435
86830W        W29924  22.567   8.270  19.753  0.1200  0.1420  0.0411
86831W        W29925  21.308   8.467  22.933 -0.4349  0.1164 -0.1129
86832W        W29926  20.939   8.516  21.278 -0.0903  0.1280  0.1002
86833W        W29927  21.208   7.896  20.539 -0.3021 -0.1363 -0.1678
86834W        W29928  17.567   7.176  20.876 -0.1143 -0.3162 -0.1098
86835W        W29929  18.893   9.714  24.834  0.2132 -0.1095 -0.1451
86836W        W29930  19.089   7.490  20.050 -0.1262  0.2717 -0.2826
86837W        W29931  20.027   9.265  23.985 -0.0695 -0.0446 -0.0491
86838W        W29932  20.651  12.261  18.043  0.0455  0.0803  0.1570
86839W        W29933  21.612  10.003  21.715 -0.0930  0.4338 -0.0332
86840W        W29934  19.929   7.332  20.467 -0.1319  0.2392  0.0194
86841W        W29935  18.400   8.753  22.844 -0.1434 -0.1666  0.1627
86842W        W29936  17.810   9.813  22.061 -0.1002  0.1844  0.1689
86843W        W29937  18.432   8.487  19.642 -0.0025 -0.0011  0.3055
86844W        W29938  20.313   9.211  19.301  0.0063  0.1443 -0.2037
86845W        W29939  19.799   9.547  23.631  0.2085 -0.1075 -0.5419
86846W        W29940  20.549   8.867  23.272  0.0340 -0.1574 -0.0335
86847W        W29941  21.603   7.312  19.866  0.0822  0.2369 -0.0331
86848W        W29942  20.529   8.378  23.242  0.2328 -0.0240 -0.1568
86849W        W29943  17.385  11.175  20.293  0.1357 -0.0804 -0.0721
86850W        W29944  20.185   9.224  21.517  0.2992  0.0323  0.0605
86851W        W29945  18.651  10.950  22.680  0.0207 -0.0308  0.0562
86852W        W29946  19.120   9.154  23.144 -0.1401  0.0772  0.2121
86853W        W29947  20.569  10.173  21.653  0.2964  0.0534  0.1670
86854W        W29948  20.314   7.825  23.087 -0.0149 -0.0005 -0.0928
86855W        W29949  20.226   9.602  22.161  0.0312  0.0038  0.2843
86856W        W29950  19.838   9.229  21.849 -0.1488  0.1401 -0.1909
86857W        W29951  19.803   8.802  23.813  0.2167 -0.1181 -0.1561
86858W        W29952  19.156   9.158  25.234  0.1098 -0.2240 -0.2081
86859W        W29953  19.161   8.241  21.169 -0.1975  0.0182 -0.0590
86860W        W29954  21.778   8.496  22.986  0.0062 -0.0750  0.3622
86861W        W29955  22.502   9.161  21.155 -0.1003 -0.1949  0.3071
86862W        W29956  19.616   9.836  20.851 -0.1290  0.2753 -0.2987
86863W        W29957  18.426   8.077  24.379  0.1774  0.0720 -0.1531
86864W        W29958  20.151   9.198  25.589 -0.1923  0.2632 -0.0981
86865W        W29959  18.438   7.812  21.720 -0.3618  0.2249  0.1358
86866W        W29960  19.154   6.425  21.360  0.1528 -0.1115  0.1164
86867W        W29961  18.577  11.184  21.805 -0.2210  0.0950 -0.1762
86868W        W29962  18.740   8.857  26.083  0.0848 -0.2981  0.2204
86869W        W29963  19.069  11.039  23.623 -0.0682 -0.2550  0.1969
86870W        W29964  19.548  11.133  21.125  0.1133 -0.1266 -0.2757
86871W        W29965  22.567   9.129  19.395  0.2745 -0.0202 -0.0008
86872W        W29966  19.917   9.799  21.296 -0.2990 -0.0042 -0.0599
86873W        W29967  22.015  10.491  22.033  0.2003  0.0752  0.0407
86874W        W29968  17.782   8.614  21.077 -0.2933 -0.2469  0.2022
86875W        W29969  18.451   9.222  21.396  0.0630 -0.2314  0.1688
86876W        W29970  18.534   9.011  19.790  0.1077  0.1928  0.0537
86877W        W29971  20.827  11.109  20.198  0.0501  0.2337  0.0407
86878W        W29972  18.605   9.815  22.459  0.0264 -0.0242  0.1593
86879W        W29973  21.453   9.938  22.562 -0.0882 -0.1397  0.1099
86880W        W29974  21.334   7.758  19.934  0.2678  0.2860 -0.3678
86881W        W29975  19.634   8.941  22.756 -0.2107 -0.3322  0.2959
86882W        W29976  21.029   8.637  22.470  0.2575 -0.0475 -0.0843
86883W        W29977  19.588  10.537  22.586  0.2093  0.0649  0.2998
86884W        W29978  18.277   8.450  21.082 -0.1852  0.0489 -0.1214
86885W        W29979  19.604   7.769  20.240 -0.3483  0.2999  0.1777
86886W        W29980  18.656   9.176  25.058  0.1847 -0.4780 -0.0247
86887W        W29981  21.868   7.791  23.582 -0.0170  0.0648 -0.2768
86888W        W29982  17.682  11.402  22.667 -0.1089 -0.0466  0.0071
86889W        W29983  21.402   9.668  20.028 -0.1943  0.0171 -0.1251
86890W        W29984  17.833   6.684  21.011 -0.1347 -0.2226  0.4945
86891W        W29985  18.412   7.907  21.056 -0.1450 -0.0102 -0.1521
86892W        W29986  20.769   6.966  23.206 -0.1295  0.1819  0.1053
86893W        W29987  18.818   7.995  20.343 -0.0258 -0.3870 -0.0307
86894W        W29988  20.890   7.061  21.026 -0.4245  0.1870  0.2050
86895W        W29989  21.242  10.659  21.521 -0.1976  0.1484 -0.3113
86896W        W29990  20.080  10.533  22.530 -0.4339  0.1951  0.2094
86897W        W29991  19.344  10.265  22.246 -0.0412  0.0949 -0.4804
86898W        W29992  18.714   7.546  19.307 -0.1947  0.2820  0.1257
86899W        W29993  21.627  10.560  23.341 -0.1376 -0.1741 -0.0820
86900W        W29994  19.417   9.485  22.784 -0.1037  0.1323 -0.1081
86901W        W29995  20.754   8.142  22.887  0.3150 -0.0921  0.1990
86902W        W29996  17.067   7.695  21.574  0.1807  0.0348  0.0293
86903W        W29997  20.503   7.821  21.369 -0.3520  0.0029  0.1422
86904W        W29998  18.816   9.663  23.258 -0.3033  0.0602 -0.2372
86905W        W29999  18.604   9.150  23.099 -0.1990 -0.0850 -0.0591
86906W        W30000  19.249   8.745  21.229  0.1424 -0.0529  0.3120
86907W        W30001  21.010   9.439  23.778 -0.0861  0.2609 -0.0088
86908W        W30002  21.187   6.845  19.295  0.2593  0.0482  0.0859
86909W        W30003  21.631  11.106  23.461 -0.2016  0.2878 -0.1667
86910W        W30004  18.813   6.587  20.609  0.0566 -0.3558 -0.2235
86911W        W30005  20.607   7.582  20.044 -0.0159 -0.2043 -0.2984
86912W        W30006  18.057   7.032  20.668 -0.0163  0.0151 -0.0128
86913W        W30007  19.538  10.614  23.077  0.2052  0.0776 -0.2095
86914W        W30008  21.973  11.288  23.805  0.2620 -0.0805 -0.1315
86915W        W30009  18.590   6.466  21.171  0.1288  0.1783 -0.2406
86916W        W30010  20.287   8.706  19.449  0.0947  0.0585 -0.2144
86917W        W30011  21.863   7.062  23.024  0.1987  0.1979  0.0420
86918W        W30012  19.558   8.830  19.843 -0.0898  0.0508  0.3048
86919W        W30013  20.992  10.303  19.964 -0.1670 -0.1398 -0.3197
86920W        W30014  20.547  11.849  19.774 -0.0063 -0.1347 -0.2371
86921W        W30015  18.316   7.854  22.205 -0.4092  0.2457  0.3539
86922W        W30016  21.308   9.813  22.068 -0.0720  0.0124 -0.3020
86923W        W30017  22.130  11.342  23.335 -0.1115 -0.0143  0.2043
86924W        W30018  19.371   6.610  21.790  0.0441  0.2071  0.2294
86925W        W30019  16.737   7.622  22.059 -0.0206 -0.3352  0.2106
86926W        W30020  17.725  10.406  20.890 -0.0459  0.0446 -0.1289
86927W        W30021  21.190   7.192  22.826  0.0548 -0.0346  0.3437
86928W        W30022  19.872   7.817  23.512 -0.0053  0.1391 -0.2139
86929W        W30023  20.366   9.987  19.682  0.3566 -0.1158 -0.0490
86930W        W30024  21.031   7.370  25.218  0.1307 -0.0307 -0.0007
86931W        W30025  19.681  10.778  21.571 -0.0994  0.3556  0.0013
86932W        W30026  19.570  11.897  22.894 -0.2354 -0.1961 -0.0122
86933W        W30027  18.769   8.890  19.345 -0.1459 -0.4041 -0.0015
86934W        W30028  18.945   9.027  24.088  0.1445  0.1062 -0.1501
86935W        W30029  18.766   8.962  21.019  0.0489  0.2882  0.2360
86936W        W30030  20.310  11.029  21.150 -0.0357 -0.2760 -0.0588
86937W        W30031  21.965  10.937  21.704 -0.1786  0.0019  0.0621
86938W        W30032  20.060  10.217  20.879  0.2255 -0.0379  0.0480
86939W        W30033  21.479   9.049  22.512  0.1414 -0.1674 -0.0577
86940W        W30034  17.818   8.164  20.726 -0.0151 -0.0358 -0.0534
86941W        W30035  21.348   8.759  20.452 -0.1785  0.0461 -0.2594
86942W        W30036  20.690   6.035  20.471  0.0517  0.0293  0.1619
86943W        W30037  18.065   9.191  22.653 -0.1615  0.0312 -0.5167
86944W        W30038  19.580   8.575  20.649 -0.1270 -0.1412 -0.1207
86945W        W30039  18.146   8.896  19.514 -0.0811  0.0856  0.3155
86946W        W30040  18.258   8.840  22.359 -0.2956  0.1555  0.2310
86947W        W30041  20.873   7.366  23.770 -0.2489  0.0850  0.1036
86948W        W30042  18.342   8.880  23.390  0.1388  0.1584  0.0025
86949W        W30043  16.899   8.940  21.983 -0.3009 -0.2307  0.1964
86950W        W30044  17.333   9.387  20.765  0.1239 -0.0153 -0.1725
86951W        W30045  21.064   8.857  20.022  0.0025  0.2766  0.1101
86952W        W30046  18.715   7.168  22.716 -0.1246  0.0508  0.1030
86953W        W30047  16.983   5.536  21.134  0.3599 -0.1757  0.0591
86954W        W30048  20.968   9.991  20.333  0.0431  0.1310 -0.0662
86955W        W30049  21.632  11.031  21.279  0.0647 -0.0103 -0.1230
86956W        W30050  18.964   7.664  21.895  0.2053  0.0286 -0.0791
86957W        W30051  21.173  10.648  22.985 -0.0283  0.2686 -0.1893
86958W        W30052  18.781   8.157  19.871  0.3364  0.0145  0.0454
86959W        W30053  18.550   7.458  24.753 -0.1504  0.6057  0.1446
86960W        W30054  18.158   8.147  21.496  0.1701  0.0694 -0.0681
86961W        W30055  19.784   5.666  22.333 -0.3422 -0.1613  0.0794
86962W        W30056  20.758   8.645  22.892 -0.0947 -0.1466  0.5236
86963W        W30057  19.632  10.074  20.377  0.1576 -0.4310 -0.0229
86964W        W30058  21.330   9.793  18.394 -0.1102 -0.0124 -0.4946
86965W        W30059  18.978   9.664  22.208 -0.2132  0.0804  0.1788
86966W        W30060  20.257  10.892  21.645 -0.0250 -0.1379 -0.1101
86967W        W30061  17.642   7.237  22.328  0.2191 -0.0261 -0.0304
86968W        W30062  21.677  10.356  19.473  0.1996 -0.2793  0.3311
86969W        W30063  19.302  10.639  21.871 -0.1091 -0.0365  0.0082
86970W        W30064  22.393   9.256  19.928 -0.0023  0.0366 -0.1791
86971W        W30065  20.467   6.953  23.667 -0.0228 -0.1437 -0.0760
86972W        W30066  18.429   7.404  20.948 -0.1522 -0.0091 -0.0890
86973W        W30067  18.572   6.615  22.885  0.0898 -0.1323 -0.1179
86974W        W30068  19.268   9.994  24.671  0.0689 -0.0152  0.2604
86975W        W30069  21.647  10.322  22.864 -0.1307  0.3007 -0.1307
86976W        W30070  19.184   7.338  21.073 -0.1079  0.0280 -0.0441
86977W        W30071  19.851   7.843  20.747 -0.2660  0.1868 -0.6093
86978W        W30072  20.305  10.486  19.277 -0.0890 -0.1193 -0.1446
86979W        W30073  18.355   9.559  24.135  0.0744 -0.1667  0.2346
86980W        W30074  21.064   6.683  21.385  0.3011  0.3237 -0.0208
86981W        W30075  20.620  10.555  23.173  0.1992 -0.0217  0.0946
86982W        W30076  20.070  10.104  21.827  0.1985  0.3381  0.1057
86983W        W30077  20.236  11.272  24.112  0.0068  0.2475  0.0833
86984W        W30078  17.652   7.785  20.379 -0.0469 -0.1855  0.0523
86985W        W30079  22.017   9.293  20.262 -0.2833  0.0743  0.2203
86986W        W30080  21.223   9.075  22.090 -0.0566  0.0031  0.0205
86987W        W30081  20.769  11.468  24.141  0.1947 -0.0214  0.3227
86988W        W30082  19.004   8.791  21.802  0.2277 -0.3075 -0.4138
86989W        W30083  18.742   8.057  21.407  0.1739  0.1316  0.2130
86990W        W30084  17.833   7.676  23.425  0.0854  0.4081  0.2502
86991W        W30085  18.827   9.448  21.199  0.0901  0.0706  0.3231
86992W        W30086  19.432   9.481  20.498  0.3211 -0.0291 -0.1334
86993W        W30087  19.785   9.679  24.137 -0.0394  0.0452  0.0596
86994W        W30088  18.350   5.572  22.397  0.2800 -0.2835  0.0200
86995W        W30089  20.394   8.088  20.005  0.1573  0.0052  0.0990
86996W        W30090  21.499  10.869  21.915  0.0490 -0.1319 -0.0048
86997W        W30091  20.805   9.346  22.230 -0.1207 -0.1044  0.2865
86998W        W30092  17.580  10.472  27.470 -0.0764  0.4405  0.0427
86999W        W30093  19.498   8.958  24.209  0.1813 -0.2108 -0.3002
87000W        W30094  19.753   7.866  24.522 -0.1076 -0.0078 -0.1045
87001W        W30095  21.479   8.929  23.867 -0.0033 -0.0520  0.2720
87002W        W30096  19.213   8.311  25.104  0.0862 -0.0117 -0.2330
87003W        W30097  19.945  11.138  25.848  0.4145 -0.1269 -0.0476
87004W        W30098  19.124   6.642  28.155 -0.0732 -0.1534 -0.3143
87005W        W30099  20.773  10.436  25.540  0.1945 -0.0563  0.2949
87006W        W30100  20.174  11.584  25.631 -0.0594 -0.0275 -0.1309
87007W        W30101  20.292   9.649  23.782 -0.0815  0.1562 -0.2493
87008W        W30102  20.691   7.905  25.874 -0.3566 -0.1421 -0.2213
87009W        W30103  19.794   9.971  26.972  0.1373  0.0952  0.2221
87010W        W30104  19.121   6.647  24.525 -0.0842 -0.2645 -0.1623
87011W        W30105  18.652   6.804  26.076 -0.1220 -0.1176 -0.3434
87012W        W30106  20.276   9.616  24.320 -0.5112 -0.2141  0.2275
87013W        W30107  19.582   8.332  25.431  0.0294 -0.0765 -0.0758
87014W        W30108  20.258   7.721  25.649  0.3023  0.1649  0.1252
87015W        W30109  21.287   8.243  24.826 -0.1012  0.0222 -0.0472
87016W        W30110  20.152  12.048  26.290 -0.1550  0.3175 -0.0163
87017W        W30111  18.152   8.640  26.875  0.1501 -0.1287  0.1047
87018W        W30112  20.193   8.339  25.644 -0.2739  0.0343  0.3843
87019W        W30113  20.005  10.436  23.295 -0.0975  0.2215  0.2191
87020W        W30114  18.688   8.549  23.217 -0.6026  0.0407 -0.0396
87021W        W30115  17.155   7.684  26.538 -0.2043  0.0157 -0.0594
87022W        W30116  19.772   7.081  25.664 -0.0718 -0.1097 -0.2934
87023W        W30117  21.097   9.046  25.377 -0.0580  0.0103 -0.0690
87024W        W30118  21.576   7.488  24.406  0.1792  0.1507 -0.0773
87025W        W30119  18.710  10.235  26.731 -0.2741 -0.0232  0.1640
87026W        W30120  21.317  11.088  25.950 -0.0571  0.2400 -0.1015
87027W        W30121  19.089   8.757  26.432  0.1796 -0.2732  0.1137
87028W        W30122  18.778   9.141  26.541 -0.0228 -0.0037 -0.1265
87029W        W30123  17.043   9.926  24.702 -0.0172 -0.2825 -0.1326
87030W        W30124  18.863  11.430  23.398  0.1619  0.1442  0.2744
87031W        W30125  22.696   9.652  25.806  0.3107 -0.0159  0.1597
87032W        W30126  21.779  10.015  25.740  0.3174 -0.2879 -0.2405
87033W        W30127  18.808  12.496  26.821  0.1038 -0.1293  0.0698
87034W        W30128  18.571   8.635  26.619 -0.1279  0.0401  0.3311
87035W        W30129  20.369  10.754  25.891  0.1052  0.1081  0.1687
87036W        W30130  18.737  11.056  27.601 -0.1381  0.0338 -0.0944
87037W        W30131  18.702   9.373  26.093 -0.0530  0.1654 -0.0348
87038W        W30132  20.704   9.735  24.016 -0.0120  0.1658 -0.2539
87039W        W30133  19.425   9.931  22.741  0.0992  0.0554 -0.2389
87040W        W30134  19.124  10.270  26.269 -0.1407  0.2212 -0.2590
87041W        W30135  20.364   9.758  27.600  0.1773  0.1162 -0.1469
87042W        W30136  17.861  10.223  25.566 -0.0557  0.3095 -0.0657
87043W        W30137  21.841   8.117  27.367 -0.0139  0.1184 -0.2202
87044W        W30138  18.291   9.377  23.417 -0.1365 -0.0369  0.2203
87045W        W30139  19.682   8.423  22.223  0.1406 -0.2340 -0.1931
87046W        W30140  19.400   6.773  23.404  0.2448  0.0980  0.1729
87047W        W30141  20.294   8.417  24.332 -0.3095 -0.0752  0.0464
87048W        W30142  19.096   7.596  23.917  0.0555  0.0737 -0.1740
87049W        W30143  19.081  10.511  23.580 -0.4358  0.3561  0.4854
87050W        W30144  18.132   7.154  24.607 -0.3602  0.2695 -0.0852
87051W        W30145  21.629  10.601  24.892  0.0964 -0.2622  0.2585
87052W        W30146  20.201   9.122  25.011  0.0645 -0.0204 -0.0594
87053W        W30147  21.074   8.587  25.780 -0.1571 -0.1516 -0.0286
87054W        W30148  18.461  10.744  26.746 -0.1133  0.2522  0.3214
87055W        W30149  19.399   8.740  23.392 -0.0586  0.1957  0.1718
87056W        W30150  22.044  10.964  24.221  0.1330 -0.1272  0.1332
87057W        W30151  21.701  10.489  25.554 -0.0014 -0.1102  0.1974
87058W        W30152  20.537  12.141  23.611  0.1047 -0.1060  0.3945
87059W        W30153  18.623   8.814  24.644 -0.2785 -0.1316 -0.0664
87060W        W30154  19.915   8.916  25.954  0.4219 -0.0472 -0.3294
87061W        W30155  17.959   9.292  26.775 -0.0889  0.0785  0.0718
87062W        W30156  19.724   6.928  22.736 -0.0360  0.2327 -0.4048
87063W        W30157  22.250  10.186  28.073  0.0971  0.0566  0.3795
87064W        W30158  19.625   9.336  27.458  0.0592  0.1081  0.0160
87065W        W30159  19.977   7.712  24.971 -0.1221  0.1030 -0.4058
87066W        W30160  18.230   8.982  26.400  0.0314  0.0933  0.1256
87067W        W30161  20.682   8.727  24.232  0.0042  0.1158  0.0788
87068W        W30162  21.074  11.009  23.488 -0.0491 -0.1842 -0.0121
87069W        W30163  20.725   7.160  26.321 -0.0189 -0.0720  0.0498
87070W        W30164  18.878   7.857  24.390  0.1628  0.1722 -0.0583
87071W        W30165  18.302  10.354  25.810  0.2370  0.0169 -0.2143
87072W        W30166  18.823  10.198  24.563  0.3815 -0.0835  0.1623
87073W        W30167  21.296  10.143  25.574  0.1920  0.2206  0.0653
87074W        W30168  20.974   8.048  23.881  0.1322  0.0616 -0.0223
87075W        W30169  18.769  10.365  25.529 -0.3131  0.3957 -0.0825
87076W        W30170  20.613   8.870  28.121 -0.0997 -0.1196 -0.0592
87077W        W30171  20.695  10.559  26.491  0.0032 -0.0699  0.0719
87078W        W30172  18.409   9.695  22.957  0.1598 -0.1791 -0.0952
87079W        W30173  18.635   9.276  27.095  0.3457 -0.3086  0.0501
87080W        W30174  18.183   8.547  26.156 -0.0274 -0.1206 -0.2917
87081W        W30175  16.985   8.235  27.012  0.2469 -0.0795  0.0133
87082W        W30176  19.906  10.646  25.695 -0.1858 -0.1433 -0.3485
87083W        W30177  20.981   7.750  24.865 -0.0272 -0.0098 -0.1707
87084W        W30178  18.668   7.137  28.590 -0.1392 -0.1183 -0.0165
87085W        W30179  22.112   7.078  25.055  0.0728  0.0757  0.0076
87086W        W30180  16.916   8.136  26.403  0.0248  0.1587 -0.4117
87087W        W30181  21.289  10.993  25.039  0.0658  0.1490  0.0760
87088W        W30182  21.967   8.860  23.624 -0.1645  0.0099 -0.0473
87089W        W30183  21.074  12.894  24.643  0.3410  0.0027 -0.0060
87090W        W30184  18.960   8.811  26.923  0.2433  0.1719  0.1458
87091W        W30185  19.870   7.991  25.631  0.3505  0.0563 -0.0940
87092W        W30186  19.105   8.578  29.172 -0.0003 -0.1004  0.0384
87093W        W30187  18.362   7.308  25.310  0.4054 -0.1638  0.3115
87094W        W30188  21.414   9.381  26.822  0.1141  0.2771  0.0609
87095W        W30189  16.952   7.004  23.460 -0.0237 -0.2435 -0.1135
87096W        W30190  21.108   7.361  23.348  0.3162 -0.0314 -0.3956
87097W        W30191  19.979   8.833  24.310  0.1896  0.0230  0.1908
87098W        W30192  17.417   8.036  24.343  0.0975 -0.1246 -0.1381
87099W        W30193  21.764   9.258  27.243 -0.0479 -0.0349 -0.0202
87100W        W30194  19.544  10.909  23.476 -0.1801 -0.0402 -0.1044
87101W        W30195  22.285  11.354  28.057  0.1673 -0.6522 -0.2609
87102W        W30196  21.243  11.276  25.462  0.3517 -0.0436  0.0609
87103W        W30197  18.701   8.345  26.121  0.0423  0.0751 -0.0519
87104W        W30198  18.270   6.158  24.222  0.0373 -0.0072  0.0151
87105W        W30199  18.383  11.525  25.266  0.1629 -0.4210 -0.2149
87106W        W30200  20.190  10.043  24.015 -0.1208 -0.0301 -0.1146
87107W        W30201  20.242   6.227  24.191 -0.1186  0.0629 -0.1282
87108W        W30202  21.730  10.687  26.343 -0.0854  0.4068  0.1261
87109W        W30203  19.532   8.737  25.066  0.2565 -0.4751  0.1199
87110W        W30204  19.297   9.843  27.118  0.0269 -0.0202  0.0835
87111W        W30205  20.376   8.818  26.029  0.0270  0.3994 -0.0168
87112W        W30206  20.899   9.547  24.580  0.0878  0.3003 -0.1279
87113W        W30207  21.938   8.527  26.836 -0.0572 -0.0850  0.1094
87114W        W30208  17.611   6.765  23.717 -0.1981  0.1980 -0.0184
87115W        W30209  21.313  11.600  26.360 -0.0970 -0.2603  0.1449
87116W        W30210  16.663   8.881  25.150  0.0921 -0.0370  0.0467
87117W        W30211  18.134   8.111  25.730 -0.2951 -0.0863  0.2471
87118W        W30212  19.906   9.756  25.323 -0.1134 -0.1708  0.0676
87119W        W30213  20.736   8.774  25.064  0.2684 -0.0367 -0.1219
87120W        W30214  18.213   9.129  27.418 -0.1844 -0.1519  0.2803
87121W        W30215  21.561   8.173  26.528  0.2732 -0.2335 -0.0392
87122W        W30216  19.601   7.616  22.668 -0.1793  0.2754 -0.0158
87123W        W30217  19.226  11.237  27.831  0.0755  0.0835 -0.0730
87124W        W30218  19.649   8.382  24.725 -0.0321  0.1422 -0.1146
87125W        W30219  19.197   8.104  23.945 -0.1459 -0.0476  0.0758
87126W        W30220  20.054   9.271  27.611  0.0859  0.0393 -0.0570
87127W        W30221  20.570  11.195  24.997 -0.1175  0.1877  0.3859
87128W        W30222  19.912   7.994  22.821  0.3243 -0.0336  0.1352
87129W        W30223  20.051   8.753  25.347  0.0281 -0.0156 -0.1789
87130W        W30224  20.414   8.389  27.595  0.0448  0.0524 -0.1632
87131W        W30225  19.679   9.788  23.198  0.0450  0.1700  0.1480
87132W        W30226  19.888   9.383  24.537  0.0076 -0.1094  0.1737
87133W        W30227  19.444   8.117  23.170 -0.1340  0.0955 -0.1035
87134W        W30228  21.549  10.246  24.062  0.0055  0.0942 -0.1883
87135W        W30229  19.194   8.980  25.937  0.0172 -0.0063 -0.0118
87136W        W30230  21.163  10.051  26.626 -0.2848 -0.1638  0.0320
87137W        W30231  21.025   9.933  25.202 -0.0873 -0.2208 -0.1809
87138W        W30232  20.375   8.690  27.191  0.3470  0.0551  0.2903
87139W        W30233  18.873   8.342  24.725  0.2969 -0.0349 -0.0252
87140W        W30234  20.279   6.733  25.227  0.3948  0.0377  0.0138
87141W        W30235  17.413  10.477  24.715  0.1830 -0.1545  0.2098
87142W        W30236  21.800   9.227  25.472 -0.2361  0.1668  0.0524
87143W        W30237  19.482   7.482  24.795  0.0097  0.0461 -0.3240
87144W        W30238  20.088   9.783  26.334 -0.1640  0.4813 -0.0960
87145W        W30239  21.660   7.170  28.561 -0.0773  0.3388 -0.4329
87146W        W30240  20.825  10.619  23.760  0.0223  0.2599  0.2615
87147W        W30241  21.067   9.099  24.686  0.2499 -0.1385  0.0168
87148W        W30242  19.038   8.920  22.720 -0.3292  0.0469  0.1208
87149W        W30243  21.217   9.245  26.358 -0.0899 -0.0178  0.1367
87150W        W30244  18.287   8.073  26.364  0.3087  0.1771 -0.0940
87151W        W30245  18.422  10.721  25.545 -0.1356 -0.0686  0.0778
87152W        W30246  21.370  10.512  25.984 -0.2046 -0.2065  0.0175
87153W        W30247  21.230   8.714  24.995  0.2676 -0.0016 -0.0182
87154W        W30248  19.293   8.453  26.841  0.6047 -0.0210 -0.2517
87155W        W30249  19.591   6.859  23.899  0.2427 -0.2457  0.5897
87156W        W30250  18.738  10.728  24.552  0.1462 -0.2619  0.1353
87157W        W30251  19.693  11.631  24.095  0.1154  0.1233  0.1295
87158W        W30252  19.886   6.574  24.287 -0.0474 -0.0581  0.0758
87159W        W30253  18.554  10.036  25.051  0.0211 -0.3740  0.2550
87160W        W30254  18.573  10.569  23.597  0.0774  0.0117 -0.1192
87161W        W30255  19.958   9.421  26.673  0.1620 -0.0362 -0.0472
87162W        W30256  18.672  10.221  26.124  0.1626 -0.0214  0.2372
87163W        W30257  22.005   8.984  25.930  0.0058 -0.0581  0.0893
87164W        W30258  18.971   8.725  25.052  0.1616 -0.1456 -0.0244
87165W        W30259  19.284   8.097  24.490  0.1284  0.1503 -0.0238
87166W        W30260  18.773   8.196  25.224 -0.0226  0.0393  0.0754
87167W        W30261  21.604   8.353  24.444  0.0286  0.1788  0.1318
87168W        W30262  21.114  10.689  24.699 -0.6508 -0.2063  0.0640
87169W        W30263  17.197   8.354  27.777 -0.0929 -0.2860  0.1762
87170W        W30264  20.210   7.279  25.054  0.2827  0.2153  0.2794
87171W        W30265  18.289  10.441  26.392 -0.2123  0.3824 -0.0597
87172W        W30266  19.583   9.086  24.723  0.2010  0.0331 -0.1284
87173W        W30267  20.433   7.541  24.594 -0.1098  0.0682  0.0161
87174W        W30268  20.421   9.712  25.313  0.1876 -0.1245  0.0793
87175W        W30269  20.111   8.998  26.428 -0.0749  0.3127  0.0225
87176W        W30270  18.183   7.632  24.360 -0.1013 -0.0165  0.2236
87177W        W30271  21.313   9.742  26.235  0.2097  0.3260 -0.0376
87178W        W30272  20.665   8.380  26.014  0.0157  0.4421  0.0452
87179W        W30273  18.684   9.823  25.803  0.1938 -0.1782 -0.4663
87180W        W30274  20.561  10.306  26.074  0.1177 -0.0119 -0.0050
87181W        W30275  19.334   7.847  23.548  0.1667  0.0979  0.0148
87182W        W30276  19.622   8.858  25.562 -0.0150 -0.0122  0.0923
87183W        W30277  20.762   8.347  26.886 -0.0533 -0.2997 -0.0308
87184W        W30278  19.545   9.799  27.797  0.3042 -0.1345 -0.2535
87185W        W30279  21.074   8.339  25.316 -0.2739  0.2245  0.0306
87186W        W30280  19.983   8.200  25.170  0.2904 -0.0118  0.0670
87187W        W30281  20.444   8.989  24.571 -0.3310 -0.0343  0.0513
87188W        W30282  19.563  10.309  26.017  0.0226 -0.2336  0.0345
87189W        W30283  21.028   9.129  28.020  0.0801 -0.0913 -0.2677
87190W        W30284  17.317   9.000  28.834 -0.1415 -0.0634 -0.1163
87191W        W30285  19.896   5.199  24.836  0.4311 -0.0133 -0.2150
87192W        W30286  22.306  11.548  24.325 -0.1440  0.2393 -0.0444
87193W        W30287  20.504   8.716  26.574  0.0180 -0.0785 -0.0649
87194W        W30288  18.365   9.132  24.360 -0.1100 -0.0841 -0.3534
87195W        W30289  17.782   8.033  26.107 -0.0586 -0.0859  0.2372
87196W        W30290  19.447   9.609  25.479  0.1064  0.3082  0.3275
87197W        W30291  19.744   8.357  27.256  0.3263 -0.0479  0.0884
87198W        W30292  19.562  10.087  25.078 -0.4706  0.2102  0.1178
87199W        W30293  19.979  10.027  23.552 -0.1238 -0.0725  0.1724
87200W        W30294  19.837  10.563  26.898  0.2203 -0.1100  0.0695
87201W        W30295  22.478   8.196  25.830 -0.1740  0.0573 -0.3927
87202W        W30296  20.172  10.470  24.395 -0.0053 -0.2108 -0.0280
87203W        W30297  20.176   8.062  24.686 -0.1761 -0.0988  0.0259
87204W        W30298  22.264   8.194  27.069  0.2323  0.1069  0.1426
87205W        W30299  20.856  10.041  24.722 -0.3253 -0.0950  0.0331
87206W        W30300  20.635   6.257  28.044  0.0567 -0.2189 -0.0795
87207W        W30301  19.660   7.676  26.488  0.0065  0.3516 -0.0535
87208W        W30302  21.771  10.964  25.256 -0.2100  0.0521 -0.0585
87209W        W30303  19.799   8.147  26.755  0.0755  0.2839 -0.2328
87210W        W30304  20.656  11.412  26.555  0.3890  0.2103 -0.1249
87211W        W30305  18.916  10.307  27.214 -0.0343  0.0073 -0.0472
87212W        W30306  19.853   6.964  25.037  0.5195  0.0580  0.2063
87213W        W30307  19.225   5.746  24.626 -0.1342 -0.0537  0.3559
87214W        W30308  19.398   9.586  24.949 -0.1181 -0.0295  0.2418
87215W        W30309  21.767  10.560  24.432 -0.3253 -0.0333 -0.1181
87216W        W30310  19.814  10.405  24.724  0.0133 -0.2776  0.2090
87217W        W30311  21.689   8.341  25.800  0.3743  0.1823 -0.0627
87218W        W30312  19.742   9.289  26.268  0.2234 -0.3066 -0.2504
87219W        W30313  21.315  10.522  23.717 -0.2033  0.2628  0.0341
87220W        W30314  19.975   7.219  24.573  0.1446  0.1964 -0.3803
87221W        W30315  19.666   9.308  25.799  0.1822  0.1595 -0.0133
87222W        W30316  20.290   8.238  27.084  0.1528 -0.0927  0.2239
87223W        W30317  20.597   8.786  25.554 -0.4127 -0.1238 -0.0483
87224W        W30318  20.955   7.826  25.449 -0.0263 -0.3515  0.0752
87225W        W30319  20.647   9.933  26.396 -0.1287  0.1353  0.2235
87226W        W30320  20.232   9.331  26.055 -0.2039  0.0034  0.0544
87227W        W30321  19.890   9.093  27.075 -0.0524  0.0620 -0.0895
87228W        W30322  18.372   7.213  27.530  0.2881 -0.1933 -0.0571
87229W        W30323  20.831  11.530  26.095  0.1535 -0.0844 -0.0175
87230W        W30324  20.121   9.263  23.372  0.1272 -0.0554  0.0813
87231W        W30325  20.621   8.247  25.473  0.1801 -0.2364 -0.1017
87232W        W30326  20.479  10.785  24.137  0.0554 -0.0872  0.1609
87233W        W30327  21.468   8.713  25.454 -0.2961  0.3029 -0.1179
87234W        W30328  19.138   7.804  25.440  0.0942  0.1912  0.4188
87235W        W30329  21.380   9.007  27.571  0.2112 -0.0779  0.0456
87236W        W30330  18.327   5.957  23.689  0.0190 -0.1066 -0.1201
87237W        W30331  20.807   6.866  26.694  0.1403 -0.0578 -0.1359
87238W        W30332  19.753  10.173  25.567  0.2766 -0.1175  0.0111
87239W        W30333  20.490  11.244  25.818  0.3197 -0.2102 -0.4202
87240W        W30334  20.285   8.891  23.696 -0.1542 -0.3174 -0.1417
87241W        W30335  17.450   8.124  26.492 -0.0705 -0.4277  0.1152
87242W        W30336  19.298  11.243  27.201  0.1482 -0.1554  0.2536
87243W        W30337  18.476   7.203  23.174  0.0892 -0.2411 -0.0819
87244W        W30338  19.189   9.531  23.945 -0.1000  0.3368 -0.1630
87245W        W30339  22.287  10.705  26.333 -0.1283 -0.0033  0.0607
87246W        W30340  21.458   9.574  27.522  0.0372 -0.3501 -0.3636
87247W        W30341  19.720   6.186  24.020  0.1540 -0.1655 -0.1339
87248W        W30342  21.945  10.332  26.658 -0.2138 -0.0615 -0.0461
87249W        W30343  18.230  10.398  24.665 -0.1584  0.1580  0.0779
87250W        W30344  19.941   8.029  24.042  0.3285 -0.0002 -0.0324
87251W        W30345  19.069  10.038  25.163 -0.1593  0.0744 -0.1296
87252W        W30346  18.282  10.904  27.946  0.2932 -0.0162 -0.0755
87253W        W30347  19.671  11.057  24.826  0.0119 -0.1220 -0.1110
87254W        W30348  20.956   8.156  26.377  0.2698 -0.0433  0.0373
87255W        W30349  20.982   8.796  26.353 -0.0530  0.4945 -0.0944
87256W        W30350  19.762   9.260  25.235 -0.3458 -0.1156  0.4673
87257W        W30351  21.931  10.375  26.048 -0.2697 -0.0460 -0.1458
87258W        W30352  19.982   9.764  25.818  0.2186  0.0034  0.1124
87259W        W30353  17.286   8.340  25.936 -0.0577  0.4729 -0.1011
87260W        W30354  20.497   9.771  25.891  0.0368  0.2007  0.1162
87261W        W30355  20.651  10.502  24.681 -0.0329 -0.1761  0.1671
87262W        W30356  19.114   9.488  25.787  0.0887  0.0322 -0.0779
87263W        W30357  16.822   8.059  27.546 -0.0131 -0.0553  0.3979
87264W        W30358  20.873   9.529  26.189  0.3096  0.0131 -0.2325
87265W        W30359  20.614  10.218  25.145  0.2656  0.0742  0.0523
87266W        W30360  18.491   8.665  25.182 -0.0749  0.3791  0.0460
87267W        W30361  20.827  12.327  25.122 -0.1084  0.2095 -0.0772
87268W        W30362  18.197   9.512  28.477 -0.1652  0.0906 -0.2511
87269W        W30363  19.354   9.073  26.774 -0.0980 -0.1391 -0.0257
87270W        W30364  18.478  11.053  23.732 -0.0286  0.2304 -0.0160
87271W        W30365  20.772  11.526  25.523 -0.4854  0.0371  0.1189
87272W        W30366  19.682   8.397  24.166  0.1428 -0.0926  0.0709
87273W        W30367  21.445  11.541  27.227 -0.1637 -0.1964 -0.0743
87274W        W30368  18.918   7.307  24.333 -0.0426  0.0643  0.3933
87275W        W30369  19.029   9.760  26.210  0.0849  0.0324  0.1824
87276W        W30370  18.793   9.018  25.607 -0.2640 -0.1749 -0.4197
87277W        W30371  20.291  11.180  25.386  0.2503 -0.3348  0.4663
87278W        W30372  18.293   9.050  25.890 -0.1632 -0.4756 -0.2536
87279W        W30373  21.183   9.809  27.093  0.1364 -0.1312  0.1049
87280W        W30374  20.822   7.252  24.734  0.0608 -0.2580  0.0120
87281W        W30375  21.797   8.529  23.955  0.0358 -0.2916  0.4849
87282W        W30376  21.522   8.790  26.511  0.0690  0.0081 -0.2861
87283W        W30377  21.069   9.728  28.160 -0.0575  0.0544  0.1087
87284W        W30378  20.656   9.312  25.586 -0.1817  0.1756  0.0377
87285W        W30379  19.512   7.566  23.160 -0.0741 -0.0433  0.2094
87286W        W30380  18.193   9.094  28.117 -0.1149 -0.1405 -0.0458
87287W        W30381  20.631   9.196  26.410 -0.0251  0.1408 -0.0601
87288W        W30382  18.447  10.574  27.258  0.3281 -0.3642  0.2431
87289W        W30383  22.465  11.037  24.009 -0.2734 -0.0727 -0.0332
87290W        W30384  19.408   6.717  25.024  0.0861  0.3437 -0.4110
87291W        W30385  19.692   8.457  25.927 -0.2351  0.0839 -0.2104
87292W        W30386  19.684   6.051  25.576  0.1299  0.0887  0.1079
87293W        W30387  18.937   9.978  22.918  0.1157 -0.2211  0.2569
87294W        W30388  22.343   7.579  23.897 -0.1362 -0.0251 -0.2412
87295W        W30389  19.653  11.554  25.600 -0.1467 -0.1137 -0.4819
87296W        W30390  19.473  10.776  26.378 -0.1205 -0.2926 -0.0666
87297W        W30391  18.998  11.088  26.191  0.3891 -0.0071 -0.0256
87298W        W30392  17.956   7.134  25.093 -0.3037 -0.0498  0.0683
87299W        W30393  22.460   9.215  24.655 -0.1521  0.1821 -0.1439
87300W        W30394  19.480   8.827  27.285 -0.0993  0.1617 -0.1799
87301W        W30395  20.394   8.174  26.546  0.1465 -0.0652 -0.1361
87302W        W30396  18.775   7.540  25.524  0.2388 -0.2281 -0.0340
87303W        W30397  21.301   7.555  23.976 -0.0072  0.2583 -0.0745
87304W        W30398  20.411   9.124  26.836 -0.1613  0.0993 -0.0705
87305W        W30399  19.313   7.954  26.730  0.4575  0.1910  0.0259
87306W        W30400  19.442   9.163  23.734 -0.0830  0.1502 -0.0644
87307W        W30401  21.427   9.579  25.261 -0.2572  0.3647  0.1679
87308W        W30402  20.527   8.218  23.972 -0.1360 -0.0482  0.2173
87309W        W30403  21.488  10.279  28.518  0.0195 -0.0777 -0.4012
87310W        W30404  18.311   7.486  26.317 -0.1882 -0.1702 -0.1117
87311W        W30405  20.287   8.378  22.746 -0.2679 -0.1850 -0.1957
87312W        W30406  19.508   9.756  25.961 -0.1570  0.0808  0.1872
87313W        W30407  20.917   9.068  25.914 -0.2637 -0.1744  0.0262
87314W        W30408  20.349  10.374  27.565  0.1292 -0.4202 -0.2751
87315W        W30409  18.174   6.596  26.805  0.1273 -0.0512  0.0568
87316W        W30410  21.532  11.003  24.025  0.2339 -0.2207 -0.2168
87317W        W30411  21.966   8.757  25.317  0.2099 -0.3168  0.1300
87318W        W30412  19.302  11.329  22.521 -0.0892 -0.0430 -0.1078
87319W        W30413  20.543   9.247  24.133  0.0015  0.0321  0.1660
87320W        W30414  21.858  12.136  26.500  0.0525  0.0575  0.1228
87321W        W30415  18.728   7.811  26.439 -0.2330 -0.0354  0.1951
87322W        W30416  20.272  10.682  25.350  0.1377  0.0615 -0.1096
87323W        W30417  22.890   9.922  27.067 -0.3237  0.0655  0.2859
87324W        W30418  20.399   6.683  24.246  0.0715  0.0917 -0.1149
87325W        W30419  19.967   8.514  26.342 -0.3381 -0.2368  0.1606
87326W        W30420  19.363  10.456  24.456 -0.0910  0.1195  0.1800
87327W        W30421  21.991   9.058  24.705  0.0142  0.3595 -0.2441
87328W        W30422  21.420   8.853  27.006  0.0637 -0.3644 -0.2536
87329W        W30423  19.332  11.683  23.667 -0.1180 -0.1024  0.1747
87330W        W30424  21.130   7.986  28.342 -0.0273 -0.0026  0.2418
87331W        W30425  18.885  10.724  26.494 -0.2548 -0.1310 -0.1689
87332W        W30426  19.452  10.335  27.180 -0.2713 -0.0002  0.0045
87333W        W30427  17.734   9.427  23.011 -0.0452  0.1396 -0.2620
87334W        W30428  20.430   9.632  26.711  0.2308 -0.1165  0.1494
87335W        W30429  18.858  11.001  24.096  0.1655 -0.2995 -0.1471
87336W        W30430  18.998  10.687  22.382 -0.1415  0.2593  0.3519
87337W        W30431  20.466   9.577  24.816  0.0558 -0.1298 -0.2553
87338W        W30432  19.627   8.295  23.611 -0.0849  0.0090  0.0846
87339W        W30433  21.364   9.754  24.768 -0.0266 -0.0528 -0.2415
87340W        W30434  19.129   8.483  26.015 -0.1304 -0.0757  0.0365
87341W        W30435  22.340   7.728  26.131  0.1103 -0.1019 -0.0676
87342W        W30436  21.250   7.099  26.339  0.3843  0.0361 -0.0972
87343W        W30437  20.719  10.010  27.334  0.1408 -0.2713  0.2346
87344W        W30438  18.552   7.693  24.068 -0.0736  0.0687  0.2640
87345W        W30439  18.457   9.402  25.603  0.0403 -0.2978  0.1898
87346W        W30440  19.143   9.211  27.215 -0.4145 -0.0028 -0.0868
87347W        W30441  19.691   6.836  26.864 -0.2911  0.0352 -0.0452
87348W        W30442  19.555   9.456  27.000 -0.1407 -0.0742 -0.1059
87349W        W30443  16.840   8.537  27.379  0.0222 -0.3183  0.3529
87350W        W30444  18.409   7.233  24.109  0.1040 -0.1780 -0.2867
87351W        W30445  21.452  11.551  24.851 -0.0250 -0.0823 -0.1588
87352W        W30446  19.288   7.332  25.755 -0.0641  0.1762 -0.3912
87353W        W30447  17.727   7.618  24.520 -0.0470  0.1203  0.1683
87354W        W30448  20.017  11.843  23.754  0.1481 -0.2560 -0.2101
87355W        W30449  20.729  11.028  25.463 -0.2280 -0.0109  0.0127
87356W        W30450  19.590   6.876  24.536 -0.0443 -0.3531 -0.2549
87357W        W30451  22.580  10.952  27.839 -0.0126  0.0555  0.0742
87358W        W30452  18.577   7.906  25.903  0.3445 -0.1259  0.5857
87359W        W30453  19.941   8.664  26.847  0.0056  0.1608  0.1727
87360W        W30454  19.423   7.203  26.612  0.1790  0.0292  0.0708
87361W        W30455  16.419   5.929  25.157 -0.2694 -0.0188 -0.1417
87362W        W30456  19.445   9.709  26.579  0.3792 -0.1234 -0.2204
87363W        W30457  20.112  10.766  24.925  0.1239  0.1385  0.0813
87364W        W30458  19.802  11.073  25.378 -0.0147  0.5223  0.2803
87365W        W30459  19.725  10.280  26.476  0.1014 -0.0857 -0.1380
87366W        W30460  20.255  10.724  26.618  0.0098 -0.1199 -0.0833
87367W        W30461  20.163   6.734  26.962  0.1152 -0.0216  0.0074
87368W        W30462  21.826  11.502  24.425  0.1731  0.1426 -0.3933
87369W        W30463  20.999  10.510  26.938 -0.2659  0.0314  0.0049
87370W        W30464  22.157  10.617  24.687  0.3711 -0.2187  0.0659
87371W        W30465  21.588   7.782  25.477  0.0569  0.2273 -0.1924
87372W        W30466  18.614   8.322  23.886 -0.2658  0.0343 -0.1335
87373W        W30467  19.088   7.599  28.514 -0.0562  0.2046 -0.1065
87374W        W30468  20.268  10.230  26.577  0.3723  0.1289  0.3527
87375W        W30469  21.818   9.570  25.960 -0.1551  0.1900 -0.0162
87376W        W30470  20.114   7.043  24.000 -0.0200 -0.3203 -0.0041
87377W        W30471  20.862   9.423  25.131  0.0737  0.2838  0.0041
87378W        W30472  19.765  10.820  24.382  0.0058 -0.2437  0.0190
87379W        W30473  19.054   7.942  26.127 -0.1791 -0.1815 -0.0192
87380W        W30474  19.993   7.929  26.280  0.0748 -0.0146  0.3171
87381W        W30475  19.565   8.825  26.393  0.1976  0.2333  0.2870
87382W        W30476  20.323  10.230  25.598  0.2334 -0.0014 -0.3123
87383W        W30477  21.016  10.125  26.084 -0.1593 -0.1396  0.0377
87384W        W30478  18.952   8.452  24.255 -0.3152  0.1777 -0.1016
87385W        W30479  20.686   7.993  24.485 -0.3098  0.2534  0.1266
87386W        W30480  21.566  11.836  26.821  0.0366 -0.1838  0.1143
87387W        W30481  20.424  10.469  27.058  0.1455  0.0726  0.0627
87388W        W30482  19.865  11.150  26.382  0.1210 -0.1110 -0.0317
87389W        W30483  21.088   9.917  24.303 -0.1358 -0.3527 -0.2304
87390W        W30484  18.822   8.183  27.013  0.0261 -0.1130  0.1531
87391W        W30485  18.027   8.048  24.607  0.3260 -0.0075  0.2958
87392W        W30486  20.149  10.189  25.091  0.1003  0.0638 -0.3151
87393W        W30487  20.154   8.538  24.807  0.1385  0.0900  0.2510
87394W        W30488  19.541   7.907  25.076 -0.1262  0.0716 -0.2215
87395W        W30489  21.294   7.922  24.432  0.1136  0.0786  0.2523
87396W        W30490  19.729  11.556  27.228 -0.2172 -0.1452  0.0090
87397W        W30491  20.870  10.715  25.990  0.1028  0.0347 -0.1345
87398W        W30492  19.315  11.200  30.452  0.0452 -0.0300 -0.1265
87399W        W30493  17.696   8.931  29.181 -0.0727 -0.1143  0.2603
87400W        W30494  20.214   9.189  28.090  0.0511  0.3467  0.0201
87401W        W30495  21.289  10.686  28.335 -0.4429 -0.3467 -0.0169
87402W        W30496  18.726   7.143  29.122 -0.0724  0.2153 -0.2296
87403W        W30497  20.895   9.044  28.520 -0.2160  0.0506 -0.1186
87404W        W30498  18.736   5.747  29.667 -0.0162  0.0957  0.0380
87405W        W30499  20.556   9.466  30.898  0.1279 -0.1382 -0.1920
87406W        W30500  20.057  10.148  28.404  0.1475  0.2620 -0.1281
87407W        W30501  21.437   9.407  28.023 -0.0562  0.2297  0.0717
87408W        W30502  19.138   6.054  29.696  0.0703 -0.0702 -0.3449
87409W        W30503  19.066  10.500  30.471  0.0697 -0.0213 -0.2455
87410W        W30504  19.373   7.214  27.294  0.1158 -0.1550  0.3051
87411W        W30505  17.809   6.009  30.281 -0.2702  0.1732 -0.0354
87412W        W30506  20.548   8.385  29.759  0.1718 -0.1189 -0.1705
87413W        W30507  19.316   7.875  28.839  0.2134  0.3868  0.0540
87414W        W30508  18.268   8.454  29.886 -0.2478  0.0930 -0.2170
87415W        W30509  19.849   8.163  29.212  0.0750  0.0582 -0.0232
87416W        W30510  20.172  10.894  29.468 -0.0581  0.0581  0.0502
87417W        W30511  19.396   7.669  31.661  0.1536  0.0268  0.0908
87418W        W30512  21.033   7.480  30.589 -0.1901  0.0629 -0.1173
87419W        W30513  19.309  10.683  26.798 -0.0521 -0.2235  0.1352
87420W        W30514  17.724   9.308  27.245  0.2171 -0.1712 -0.3590
87421W        W30515  18.098   7.984  29.983  0.0959  0.1721  0.3172
87422W        W30516  20.182   8.897  29.125  0.1846 -0.1397  0.2207
87423W        W30517  20.691   7.651  30.941  0.0088  0.1222 -0.0665
87424W        W30518  20.272   9.668  28.611  0.0505 -0.1397  0.1060
87425W        W30519  19.978  10.494  28.800 -0.1148  0.1108 -0.0763
87426W        W30520  21.156  11.792  30.763  0.0251  0.0849 -0.0045
87427W        W30521  20.410   8.111   0.230  0.1034  0.0950 -0.1182
87428W        W30522  18.736   9.195  28.958 -0.1371  0.0203 -0.1440
87429W        W30523  19.650  10.592  29.397  0.0148  0.3004 -0.0979
87430W        W30524  19.399  10.820  27.964  0.3433  0.1222 -0.0973
87431W        W30525  22.657  10.454  27.925  0.1135  0.1185 -0.0749
87432W        W30526  21.462  11.478  30.015  0.0145  0.0044 -0.1225
87433W        W30527  20.081  10.521  30.512  0.1891  0.0685 -0.0449
87434W        W30528  19.325  11.664  28.195 -0.2896 -0.1632  0.0288
87435W        W30529  19.960  11.420  31.066 -0.1505  0.3320  0.0687
87436W        W30530  18.891  10.396  30.946  0.2083 -0.2283 -0.0223
87437W        W30531  19.957   9.266  30.167 -0.6505 -0.3051 -0.1606
87438W        W30532  19.425   9.395  28.528  0.0381 -0.1709 -0.0268
87439W        W30533  21.474  11.773  28.483 -0.0190 -0.0177 -0.2222
87440W        W30534  20.084  11.169  28.678 -0.1719 -0.1718 -0.2551
87441W        W30535  20.601   8.633  31.253 -0.0167 -0.0131 -0.0501
87442W        W30536  17.273   8.655  29.301 -0.1166 -0.0891 -0.1419
87443W        W30537  20.588   7.435  31.397  0.0686 -0.1118 -0.2299
87444W        W30538  18.856  11.655  26.479 -0.1844  0.4056  0.0841
87445W        W30539  20.659   7.959  30.410  0.1197 -0.0500 -0.0740
87446W        W30540  21.010   9.088  26.790 -0.1871  0.2330 -0.0184
87447W        W30541  21.255   7.426  28.324 -0.0555 -0.1285 -0.4226
87448W        W30542  19.273   5.943  29.223 -0.0126  0.0225 -0.1426
87449W        W30543  20.748  11.601  29.155  0.1227 -0.3969 -0.1159
87450W        W30544  18.262   8.116  29.557  0.1736  0.0777  0.1025
87451W        W30545  20.949  11.149   0.824  0.0364 -0.0024  0.0261
87452W        W30546  19.728   9.093  28.810  0.0535  0.0511  0.0504
87453W        W30547  19.952   7.536  28.672 -0.0232  0.1093  0.0123
87454W        W30548  19.352  10.093  30.264 -0.0410 -0.1421 -0.2068
87455W        W30549  18.881   8.418  30.210 -0.0212  0.1328 -0.1355
87456W        W30550  20.720  10.808  28.685 -0.2999  0.0656  0.0514
87457W        W30551  22.430  10.452  29.844  0.1750  0.0870 -0.0036
87458W        W30552  19.917   8.311  27.701 -0.2817 -0.1832 -0.2321
87459W        W30553  18.880   8.130  28.865 -0.1513 -0.1339 -0.0603
87460W        W30554  18.328   9.362  30.085  0.0472  0.2605 -0.3247
87461W        W30555  18.274   7.555  30.347 -0.2562  0.1275  0.2037
87462W        W30556  20.132   7.765  26.783  0.0944 -0.1731  0.3574
87463W        W30557  22.515  11.261   1.221  0.0724  0.1474  0.2423
87464W        W30558  18.903   9.228  30.036  0.2829  0.0165 -0.0724
87465W        W30559  21.780   9.640  29.697  0.2113  0.1552 -0.2499
87466W        W30560  19.965  10.169  29.663 -0.2016 -0.1748  0.2625
87467W        W30561  21.934   9.981  30.087 -0.0929 -0.3244 -0.2735
87468W        W30562  21.006   8.527  28.433  0.1891  0.0179 -0.0086
87469W        W30563  21.524   8.224  30.257  0.1326  0.0861  0.2617
87470W        W30564  20.987   7.671  31.375  0.1394  0.1326 -0.2726
87471W        W30565  18.838   9.750  27.255 -0.2771 -0.0010 -0.1320
87472W        W30566  19.065   8.582  28.132 -0.3210 -0.1597 -0.1261
87473W        W30567  21.238  10.877   0.384 -0.0009  0.0172  0.3337
87474W        W30568  20.953   9.560  27.641 -0.0353  0.2476 -0.1114
87475W        W30569  18.188  10.407  29.869 -0.1051 -0.1465 -0.0200
87476W        W30570  19.337   8.105  29.347  0.0206 -0.0513  0.1087
87477W        W30571  19.718  10.363  30.102 -0.1496 -0.0736 -0.2079
87478W        W30572  19.256  11.100  28.296  0.0379  0.1154 -0.3996
87479W        W30573  17.304   9.138  29.522  0.0679 -0.2859  0.0211
87480W        W30574  18.771  10.160  29.268  0.3347 -0.0251 -0.1204
87481W        W30575  19.443   5.130  29.634  0.0745  0.0033 -0.2207
87482W        W30576  19.953  10.894  30.034 -0.1286 -0.0339 -0.0118
87483W        W30577  21.306   8.764  28.746  0.1990 -0.1709  0.1235
87484W        W30578  16.910   7.797  30.940 -0.0627 -0.0512 -0.2976
87485W        W30579  21.072   7.806  29.694  0.2604  0.2404 -0.1977
87486W        W30580  19.410  10.809  28.932  0.1851 -0.1099 -0.2510
87487W        W30581  21.793  10.789  28.159  0.1439  0.0412 -0.0399
87488W        W30582  20.552  10.032  28.374  0.1180  0.0406 -0.1065
87489W        W30583  21.330  10.694  27.745  0.0288 -0.1141 -0.1359
87490W        W30584  17.163   8.364  30.238 -0.0168 -0.1403  0.0319
87491W        W30585  19.803   7.993  28.672  0.0209  0.1324  0.0471
87492W        W30586  19.361   7.333  29.735  0.1508  0.3152 -0.2374
87493W        W30587  19.182   7.979  30.178  0.2025 -0.2129 -0.0308
87494W        W30588  19.623   7.700  29.438  0.1537  0.0519 -0.2206
87495W        W30589  20.279   8.389  28.235 -0.0650 -0.0375 -0.0673
87496W        W30590  20.331   6.918  29.049 -0.0884 -0.0917  0.1259
87497W        W30591  19.929   9.774  27.394  0.1841 -0.1592 -0.4875
87498W        W30592  18.425   9.022  28.605  0.4189 -0.3311  0.1361
87499W        W30593  20.035   8.650  31.300  0.0257 -0.0640 -0.0136
87500W        W30594  19.580  11.120  26.772 -0.2684  0.0653 -0.0707
87501W        W30595  20.974  11.677  28.590 -0.3998 -0.1616 -0.0438
87502W        W30596  21.619  10.808  30.272  0.1167  0.1810 -0.1044
87503W        W30597  20.780   8.963  30.161  0.0782 -0.0612 -0.2662
87504W        W30598  18.744   8.381  27.605  0.1259  0.0128 -0.0240
87505W        W30599  19.646  11.908  29.086  0.1603  0.0341 -0.1314
87506W        W30600  20.153  10.439  29.284  0.0992 -0.1045  0.0657
87507W        W30601  21.161   8.496  26.697 -0.2085 -0.0762 -0.2206
87508W        W30602  22.336   9.605  30.223  0.0842 -0.2225  0.0403
87509W        W30603  20.974   8.723  27.718 -0.1914 -0.1244  0.0115
87510W        W30604  17.717   8.408  30.145 -0.4663 -0.0998  0.3304
87511W        W30605  21.045   7.214  31.104 -0.1349  0.0005 -0.3198
87512W        W30606  21.758   9.356  31.543 -0.0759 -0.0833  0.0792
87513W        W30607  21.330   7.989  29.266 -0.1007 -0.0910 -0.1615
87514W        W30608  19.873   7.169  27.171  0.2456  0.3137 -0.2082
87515W        W30609  20.667   9.753  28.942  0.1437  0.0484  0.1434
87516W        W30610  19.580  10.370  28.164 -0.0937  0.1485 -0.0725
87517W        W30611  17.983   8.892  30.171  0.0846 -0.0656 -0.0869
87518W        W30612  19.899  10.675  27.788 -0.0418 -0.0581  0.0401
87519W        W30613  20.787   9.503  28.514  0.1658 -0.1757 -0.0718
87520W        W30614  17.890   8.148  30.950  0.4253  0.0040 -0.2847
87521W        W30615  19.679   7.149  29.338  0.2378 -0.1791  0.2948
87522W        W30616  19.569   8.360  28.244 -0.0683  0.0273 -0.0512
87523W        W30617  18.532  10.222  30.530 -0.0442 -0.0835  0.1438
87524W        W30618  20.181   7.898  29.054  0.3101  0.1735  0.0919
87525W        W30619  20.981   7.852  27.848  0.1491 -0.1419 -0.0150
87526W        W30620  18.859   8.961  31.270 -0.1375 -0.3472 -0.4468
87527W        W30621  21.127  10.617  29.670  0.2512 -0.1774  0.0161
87528W        W30622  21.263   8.252  28.726 -0.0904  0.0456  0.1297
87529W        W30623  20.322   7.450  27.131 -0.0806 -0.3720 -0.0487
87530W        W30624  19.118   9.086  29.356  0.5387  0.2095 -0.2455
87531W        W30625  20.573   9.520  27.999 -0.1786 -0.1045 -0.3598
87532W        W30626  19.634  10.659  30.537 -0.0128 -0.1525 -0.1735
87533W        W30627  18.883   6.690  25.168 -0.1929 -0.0966  0.2546
87534W        W30628  21.058  10.809  27.305 -0.0857 -0.1180  0.2924
87535W        W30629  19.311   9.506  30.179 -0.2046  0.5037 -0.1259
87536W        W30630  19.152   7.931   0.446 -0.0897 -0.0199 -0.2177
87537W        W30631  21.420   9.693  29.333  0.0015  0.3667  0.0461
87538W        W30632  18.675   6.675  29.995  0.0872  0.1590 -0.1893
87539W        W30633  17.960   7.234  27.985 -0.0437  0.0795  0.5031
87540W        W30634  20.122   8.365  28.782  0.2254  0.1325  0.1274
87541W        W30635  17.780  10.845  27.771  0.2225  0.0872  0.1464
87542W        W30636  20.807   9.407  30.443 -0.1670 -0.2916  0.2688
87543W        W30637  19.721   9.152  29.363  0.0802 -0.1396  0.0507
87544W        W30638  19.683   6.370  30.049 -0.0970  0.1313  0.1093
87545W        W30639  21.676   9.374  30.093  0.3360 -0.1860  0.0661
87546W        W30640  19.581  10.319  27.655 -0.1664 -0.3865  0.1368
87547W        W30641  18.764   7.516  30.258  0.2115  0.0219  0.0428
87548W        W30642  19.927  10.238  27.339 -0.0200 -0.0954 -0.0453
87549W        W30643  19.628   8.338  29.685  0.0680  0.0195  0.0746
87550W        W30644  19.372   8.451  30.170  0.1171 -0.0624  0.0387
87551W        W30645  19.516  11.633  29.748 -0.3434  0.2362 -0.0224
87552W        W30646  22.394   9.839  30.768  0.1777 -0.2015  0.1172
87553W        W30647  20.807  10.677  28.186  0.2891  0.0738  0.0557
87554W        W30648  21.110   8.517  30.209  0.2922 -0.0353  0.0950
87555W        W30649  20.398   9.197  28.539  0.2484 -0.1374 -0.1562
87556W        W30650  19.223   9.582  28.104 -0.0218  0.2371 -0.0524
87557W        W30651  18.522   8.787  27.227  0.2982  0.1271 -0.3335
87558W        W30652  20.081   8.583  29.501  0.2489 -0.3282 -0.0289
87559W        W30653  20.957  10.194  30.049 -0.1490  0.0561  0.0923
87560W        W30654  20.896   8.835  27.185  0.2875 -0.0240  0.0539
87561W        W30655  20.183   7.921  30.785  0.1766  0.1031 -0.0784
87562W        W30656  19.672  12.162  27.529  0.0738 -0.1376  0.1991
87563W        W30657  20.840   6.845  30.320  0.0913 -0.0815  0.1144
87564W        W30658  19.182  10.609  28.400  0.0779 -0.0882  0.2417
87565W        W30659  20.220   9.451  27.182  0.0321 -0.2099  0.0211
87566W        W30660  17.025  10.559  28.230 -0.1341  0.1499  0.2759
87567W        W30661  20.889   8.107  29.993  0.3408 -0.0681 -0.0258
87568W        W30662  21.311  11.089  29.337  0.2773 -0.0305 -0.1498
87569W        W30663  17.817   7.065  30.890 -0.1389 -0.1939 -0.0532
87570W        W30664  19.712   8.650  29.142 -0.2704 -0.1109  0.1345
87571W        W30665  18.461  10.046  28.879  0.0436 -0.2299 -0.2678
87572W        W30666  20.626   8.969  29.556 -0.0760  0.2034  0.0961
87573W        W30667  22.490   7.360  28.260 -0.0276 -0.1980 -0.3325
87574W        W30668  21.786   9.789  31.046 -0.3689  0.2616 -0.0297
87575W        W30669  19.843   8.889  30.889 -0.0483 -0.1952  0.1423
87576W        W30670  20.153   9.788  28.108  0.0823 -0.0401  0.0514
87577W        W30671  22.421   8.513  30.652 -0.1969  0.1346  0.4142
87578W        W30672  19.239   7.802  29.731  0.0490  0.0651  0.1264
87579W        W30673  17.838   9.287  28.832 -0.0365  0.2649 -0.0859
87580W        W30674  19.618   9.823  29.919  0.0267 -0.0352  0.3435
87581W        W30675  18.670   8.109  29.880 -0.3727 -0.3466 -0.1119
87582W        W30676  19.017  12.100  29.080 -0.0071  0.1258  0.0013
87583W        W30677  20.012   8.408  30.049 -0.1106 -0.1260  0.2141
87584W        W30678  20.284   8.590  30.863  0.1135 -0.1276 -0.0849
87585W        W30679  19.468   8.893  28.272  0.2239 -0.0028  0.4050
87586W        W30680  20.444   7.894  27.840 -0.2180  0.0002 -0.0182
87587W        W30681  20.636   8.292  28.607 -0.2007 -0.0385  0.1769
87588W        W30682  19.770  10.935  28.384  0.1540  0.0315  0.2845
87589W        W30683  20.523   9.472  29.462  0.3153  0.1118 -0.0164
87590W        W30684  18.378   9.321  30.970  0.1762 -0.0364  0.1781
87591W        W30685  19.849   6.132  30.555  0.1841 -0.0613  0.0408
87592W        W30686  22.016  10.507  27.106 -0.0297 -0.2642  0.0887
87593W        W30687  21.200   8.434   0.030 -0.1758 -0.1621 -0.0129
87594W        W30688  18.994   9.080  28.397  0.0377 -0.1379 -0.0094
87595W        W30689  18.040   9.736  29.744 -0.0072 -0.4351  0.2210
87596W        W30690  19.629   9.819  28.322  0.2407 -0.0368 -0.0652
87597W        W30691  19.212   7.506  30.517  0.2278 -0.2252  0.1461
87598W        W30692  18.237   9.044  29.119  0.2925  0.1205 -0.1512
87599W        W30693  18.901  10.394  28.806  0.1467  0.3038 -0.1260
87600W        W30694  19.443  10.275  29.707  0.0557  0.0559  0.0855
87601W        W30695  21.454   7.595  28.850  0.4131  0.1551  0.0942
87602W        W30696  20.370  10.493  28.546 -0.2386  0.2360 -0.2575
87603W        W30697  19.446   8.564  27.787 -0.0878  0.3530 -0.0032
87604W        W30698  21.456   8.490  31.237 -0.0265  0.1351  0.1188
87605W        W30699  20.699   7.681  28.220 -0.2012 -0.0711 -0.0871
87606W        W30700  20.899   7.310  30.167 -0.0224  0.0032  0.1222
87607W        W30701  17.635   7.348  29.586  0.0930  0.0027 -0.0717
87608W        W30702  21.544   9.013  29.111 -0.1117 -0.1917  0.3159
87609W        W30703  18.557   6.798  29.493  0.1402 -0.0226 -0.2877
87610W        W30704  20.909  12.236  30.823 -0.1346 -0.4309  0.5629
87611W        W30705  19.283   8.697  31.665 -0.0109  0.1954  0.2496
87612W        W30706  19.979   6.397  28.672 -0.0277 -0.0699 -0.1527
87613W        W30707  19.191   7.033  29.227 -0.3031 -0.0400 -0.2658
87614W        W30708  18.647   9.816  30.195  0.1684 -0.0735 -0.0080
87615W        W30709  20.977  10.767  31.394  0.2497  0.1276 -0.3902
87616W        W30710  19.921   9.336  28.441 -0.2267 -0.0343  0.0610
87617W        W30711  20.895  10.297  28.608 -0.0620  0.0132 -0.1571
87618W        W30712  18.648   9.030  29.493 -0.4256 -0.1783  0.0833
87619W        W30713  21.366   8.800  28.222 -0.3204 -0.0494  0.4440
87620W        W30714  20.654   9.110  27.548 -0.2244  0.2033  0.0926
87621W        W30715  19.493  10.325  28.641  0.1635  0.1054  0.0210
87622W        W30716  18.682   5.266  29.364 -0.0222 -0.4173  0.1756
87623W        W30717  21.331  10.154  29.501 -0.3008  0.1219  0.0815
87624W        W30718  20.905   8.068  28.961  0.0110 -0.3410  0.5754
87625W        W30719  20.759   7.686  29.259 -0.0804 -0.3158  0.5805
87626W        W30720  20.278   9.060  31.150  0.1723  0.0435  0.4331
87627W        W30721  20.319   9.621  30.372  0.2779 -0.0092 -0.1215
87628W        W30722  17.705   7.318  31.349  0.3761  0.1745 -0.1515
87629W        W30723  20.880  11.413  30.706 -0.1720  0.2771  0.3328
87630W        W30724  22.169   7.643  27.180 -0.0105  0.0173 -0.2173
87631W        W30725  19.979   7.918  29.852  0.0134 -0.0452  0.1209
87632W        W30726  21.559   9.817  28.303 -0.0060 -0.0415  0.1515
87633W        W30727  21.346   8.024  27.374 -0.0480  0.0376 -0.0955
87634W        W30728  18.773   7.024  27.708  0.2057 -0.0796 -0.3825
87635W        W30729  22.047   9.048  31.247 -0.1354 -0.0564  0.0224
87636W        W30730  18.654   8.850  28.124  0.1549 -0.2619  0.2171
87637W        W30731  20.482   9.328  29.995 -0.1514  0.1849 -0.1806
87638W        W30732  20.640  11.527  27.626 -0.0672 -0.0792 -0.3321
87639W        W30733  20.628   8.213  30.829  0.2260  0.5104  0.0191
87640W        W30734  20.498   8.454  29.199  0.1025  0.0732 -0.1529
87641W        W30735  17.233   7.383  29.241 -0.3173  0.0618 -0.1552
87642W        W30736  19.051   9.850  29.882 -0.1223 -0.0487 -0.0419
87643W        W30737  17.345   7.928  27.423 -0.0958 -0.1617 -0.1439
87644W        W30738  20.013  10.155  27.801 -0.1216  0.2288  0.2795
87645W        W30739  19.957   8.777  30.392  0.0359  0.0037 -0.3172
87646W        W30740  21.018   8.215  31.508  0.0484  0.2921 -0.1137
87647W        W30741  20.437   6.442  27.288  0.3870  0.0819  0.3239
87648W        W30742  22.039   8.113  31.827 -0.3168  0.2193  0.1416
87649W        W30743  18.008   8.727  28.737 -0.0242  0.1146  0.2534
87650W        W30744  20.714   7.336  29.681 -0.0753  0.0244  0.2845
87651W        W30745  18.506  10.594  30.222 -0.0890 -0.4263 -0.0433
87652W        W30746  18.932   8.902  30.372  0.1344 -0.0829  0.1524
87653W        W30747  20.356  10.483  28.053  0.2556 -0.3317  0.1530
87654W        W30748  18.438   8.199  30.363 -0.2477 -0.0762 -0.1484
87655W        W30749  21.735   7.856  29.962  0.1623  0.1036 -0.1279
87656W        W30750  20.338   8.830  30.017 -0.0325  0.1505 -0.1572
87657W        W30751  21.208   7.851  31.815 -0.2432 -0.2296 -0.0903
87658W        W30752  18.195   8.600  30.620 -0.3450 -0.0623  0.0236
87659W        W30753  17.785   8.218  29.545  0.1602 -0.1178  0.1869
87660W        W30754  20.633   8.642  30.479 -0.0882  0.4127  0.0693
87661W        W30755  21.942   9.774  29.281 -0.1605 -0.0739  0.1550
87662W        W30756  19.261  10.350  29.148 -0.1208  0.1667 -0.0094
87663W        W30757  18.305   8.329  31.236  0.1436 -0.1615 -0.2513
87664W        W30758  20.316   9.260  31.614 -0.2172  0.0981  0.0321
87665W        W30759  20.137   9.351  29.014 -0.1223  0.1893 -0.2311
87666W        W30760  18.163   6.075  29.162 -0.3705 -0.0716 -0.1743
87667W        W30761  20.553  10.920  27.342  0.1158 -0.4080 -0.2465
87668W        W30762  17.441   9.929  30.632 -0.1796 -0.1411  0.2044
87669W        W30763  17.628   9.091  30.824 -0.0336  0.2537 -0.0435
87670W        W30764  17.163  11.201  29.228 -0.1117 -0.1240  0.2265
87671W        W30765  20.367  10.892  27.807  0.0093  0.2798 -0.0476
87672W        W30766  19.792   9.694  28.787 -0.3233  0.3083  0.1770
87673W        W30767  21.258  11.828  29.103 -0.1503  0.0949  0.0860
87674W        W30768  19.171   8.439  27.360  0.1449  0.2065 -0.2729
87675W        W30769  18.315   9.416  29.508  0.2346 -0.0496  0.0749
87676W        W30770  19.217   8.953  28.850 -0.0759 -0.0876 -0.2955
87677W        W30771  21.767  11.139  27.226 -0.1246 -0.1266 -0.2236
87678W        W30772  18.906  11.411  28.442  0.0338 -0.1919 -0.1632
87679W        W30773  21.359   9.552  31.854 -0.1569  0.0930  0.1340
87680W        W30774  21.061   6.995  27.208  0.0193 -0.2486 -0.3102
87681W        W30775  21.094   9.377  30.927  0.3567 -0.3136 -0.0198
87682W        W30776  21.824   7.526  28.236 -0.0994 -0.0638  0.1072
87683W        W30777  21.018  11.909   0.119  0.1435  0.0697 -0.1180
87684W        W30778  19.307   9.426  29.069  0.0414 -0.0492  0.0287
87685W        W30779  21.257   7.860  26.806  0.1083 -0.3034  0.0546
87686W        W30780  19.982   7.295  30.302  0.2255  0.1266  0.0365
87687W        W30781  22.562   8.264  31.643  0.3951 -0.0122 -0.3991
87688W        W30782  16.904   9.126  29.174  0.2674 -0.0839  0.2557
87689W        W30783  21.155  11.327  28.846 -0.0632  0.0156  0.2988
87690W        W30784  19.509   8.013  27.929 -0.0452  0.1044  0.0952
87691W        W30785  19.851  10.962  29.076  0.3805  0.1669  0.0679
87692W        W30786  22.383   8.034   0.260  0.2684  0.0149 -0.0963
87693W        W30787  20.064  10.786  27.300  0.0672  0.0262  0.0855
87694W        W30788  20.776   8.308  28.014  0.2322 -0.1851 -0.0990
87695W        W30789  19.026  11.178  28.948 -0.2251 -0.0071  0.0718
87696W        W30790  18.002  10.325  28.648  0.0797  0.0021  0.2022
87697W        W30791  20.089  10.057  30.204  0.2723 -0.1147  0.1032
87698W        W30792  19.498   7.397  28.834  0.1755 -0.1918 -0.0538
87699W        W30793  21.768   8.392  28.209  0.1745 -0.2849 -0.0046
87700W        W30794  18.285   7.268  29.480  0.1304 -0.2622  0.0013
87701W        W30795  22.222   7.767  29.676 -0.2119  0.1348 -0.0538
87702W        W30796  19.683   9.646  29.386 -0.1194  0.0423 -0.3461
87703W        W30797  20.657   9.123  29.046 -0.4793  0.0195 -0.0149
87704W        W30798  19.108   9.169  30.917 -0.1788  0.1308 -0.0646
87705W        W30799  18.387   7.367  30.801 -0.0613 -0.2212  0.0944
87706W        W30800  20.029   8.816  28.529  0.3022 -0.1932 -0.0046
87707W        W30801  20.741   8.932  30.861 -0.0144 -0.2440  0.0458
87708W        W30802  20.620   7.872  27.367 -0.1228 -0.4861  0.0328
87709W        W30803  20.453  10.909  30.596 -0.1088 -0.3135 -0.0998
87710W        W30804  17.963   7.736  29.585 -0.2108 -0.3389  0.0136
87711W        W30805  20.700   7.825  26.815  0.2467  0.5168 -0.0679
87712W        W30806  18.688   9.325  27.635 -0.2163 -0.0789  0.0219
87713W        W30807  19.369   9.057  30.102 -0.0953 -0.2716 -0.1096
87714W        W30808  20.402  10.346  31.122 -0.0762 -0.0159  0.2673
87715W        W30809  19.646   7.579  27.561 -0.1328  0.1939  0.2661
87716W        W30810  20.379  10.109  28.940  0.0399  0.0436  0.2313
87717W        W30811  20.650  10.552  30.125  0.1126 -0.1708  0.0546
87718W        W30812  20.164  12.056  27.022  0.0336 -0.0766 -0.2079
87719W        W30813  21.113   9.459  29.028  0.2981  0.0910  0.1229
87720W        W30814  20.210  10.460  29.991 -0.0295  0.0825  0.1342
87721W        W30815  18.174   6.752  29.920  0.0205 -0.0952 -0.2474
87722W        W30816  20.375  10.786  29.014 -0.1206  0.1897 -0.1104
87723W        W30817  20.931  10.957  30.269 -0.2357 -0.1879  0.0602
87724W        W30818  21.286   7.101  28.906  0.0628  0.0721  0.2940
87725W        W30819  19.558   8.461  28.725 -0.1295 -0.3733  0.0507
87726W        W30820  18.635  10.396  28.279  0.3109  0.1034 -0.2906
87727W        W30821  21.402   8.527  30.680 -0.0657  0.2699  0.1714
87728W        W30822  19.621   7.757  30.784 -0.0274  0.2678 -0.3842
87729W        W30823  19.498  11.541  26.533  0.3134  0.0667  0.1130
87730W        W30824  21.641   8.030   0.130  0.2477  0.3401  0.2650
87731W        W30825  20.161   9.687  29.885  0.2028 -0.0809 -0.0476
87732W        W30826  21.154   9.317  30.041 -0.0468 -0.0868 -0.1199
87733W        W30827  17.668   8.546  27.710 -0.0535  0.1012  0.1152
87734W        W30828  19.596   9.182  30.567  0.0740  0.4284  0.1150
87735W        W30829  19.864   8.689  28.047 -0.3004 -0.2319  0.0983
87736W        W30830  20.808  10.582  27.711  0.1241 -0.0648  0.3122
87737W        W30831  21.308   9.814  30.993 -0.2196 -0.1200 -0.0447
87738W        W30832  20.526   8.753  28.712 -0.2039  0.2094  0.0556
87739W        W30833  22.751  10.787  30.982  0.2085  0.0867 -0.0281
87740W        W30834  19.015   8.108  27.995  0.1801 -0.1978  0.1402
87741W        W30835  21.505   6.653  28.766 -0.0492  0.0860  0.1311
87742W        W30836  21.313   6.408  29.268 -0.1000  0.2582  0.1299
87743W        W30837  19.777  10.143  29.083 -0.0828  0.0334  0.5319
87744W        W30838  19.912   8.758  27.478  0.0607 -0.0354 -0.2144
87745W        W30839  18.963   9.601  28.591 -0.0498  0.3418  0.1132
87746W        W30840  18.339   8.366  28.169 -0.0715 -0.2106  0.0703
87747W        W30841  19.047   7.131  30.132  0.0963  0.2027 -0.0026
87748W        W30842  18.921   6.561  30.512  0.1087  0.1935  0.2283
87749W        W30843  18.359   7.755  29.237 -0.1962 -0.0976 -0.1942
87750W        W30844  18.679   8.088  28.416 -0.0193 -0.0014 -0.0278
87751W        W30845  20.833  11.322  27.203 -0.2017  0.1382  0.0511
87752W        W30846  18.275   7.293  28.943 -0.0166  0.2723  0.0453
87753W        W30847  18.708   7.592  28.873 -0.2608 -0.3008 -0.2578
87754W        W30848  20.338  11.281  29.132  0.2520  0.0195 -0.0095
87755W        W30849  20.915  10.648  29.117 -0.1583 -0.0170 -0.0314
87756W        W30850  19.947   8.022  28.187  0.1042 -0.2500  0.2075
87757W        W30851  20.489  10.457   0.511 -0.2938  0.0911  0.0101
87758W        W30852  17.913  10.537  27.081  0.0302  0.0857 -0.1830
87759W        W30853  21.112   8.156  30.525  0.1721  0.0026 -0.0827
87760W        W30854  19.008   8.422  30.700  0.1615  0.0695  0.2594
87761W        W30855  17.388   7.520  28.791 -0.0083  0.0461  0.0067
87762W        W30856  20.882   7.126  28.080 -0.2391 -0.0925 -0.0595
87763W        W30857  19.073  10.422  27.901  0.1051  0.0917 -0.5407
87764W        W30858  20.600  11.474  28.194  0.2905 -0.2884  0.0674
87765W        W30859  19.383  10.553  31.290 -0.5620  0.4550  0.2805
87766W        W30860  20.983   9.851  30.537 -0.4044 -0.0875 -0.0622
87767W        W30861  17.455   7.444  30.845 -0.2080 -0.4975 -0.0432
87768W        W30862  21.612   9.950  28.904 -0.0005  0.0513 -0.0278
87769W        W30863  19.063   8.821  29.831  0.0528  0.0835 -0.2484
87770W        W30864  20.288   9.950  27.084 -0.0343 -0.2847  0.0671
87771W        W30865  21.118   9.339  29.520 -0.0732  0.2878 -0.1260
87772W        W30866  19.180   8.139  28.444  0.0576 -0.3559 -0.0361
87773W        W30867  18.571   6.276  30.772  0.1444 -0.0257 -0.2263
87774W        W30868  18.163   9.800  31.196 -0.0480  0.1871  0.1972
87775W        W30869  20.831   9.726  29.936 -0.0828  0.4162 -0.2375
87776W        W30870  19.148   7.619  29.236 -0.3394  0.1869  0.3488
87777W        W30871  20.099   7.762  30.361  0.1606 -0.0514  0.1222
87778W        W30872  21.168  11.562  27.656  0.0759  0.0161  0.2336
87779W        W30873  20.162   9.152  29.630  0.1230 -0.1349  0.0645
87780W        W30874  20.151   7.538  27.577  0.1142  0.0635  0.2728
87781W        W30875  20.144   9.817  29.265 -0.0240  0.2213 -0.1071
87782W        W30876  20.491  10.108  29.868  0.2683  0.3934  0.3730
87783W        W30877  19.424   8.785   0.413  0.0531  0.4000 -0.0911
87784W        W30878  19.093   8.343  29.743  0.0438  0.0484  0.0805
87785W        W30879  21.548   8.339  27.047  0.0761 -0.0619 -0.1046
87786W        W30880  20.641  10.763  29.593 -0.4500  0.1553 -0.0711
87787W        W30881  21.066  10.903   1.256  0.1083  0.0565  0.0075
87788W        W30882  20.532  10.059  30.393  0.0384  0.0153  0.1207
87789W        W30883  22.235   8.852  29.403 -0.1907  0.0660  0.0952
87790W        W30884  18.847   7.504  29.610  0.0717  0.4739  0.0145
87791W        W30885  18.654   8.483  29.545  0.1634  0.0478 -0.0096
87792W        W30886  19.299   9.915  28.899  0.0956  0.1151  0.1391
87793W        W30887  21.181   8.729  29.759  0.0746  0.0457  0.1810
87794W        W30888  19.263   6.560  28.608 -0.0006  0.1412 -0.1942
87795W        W30889  19.752   6.886  28.733 -0.2029 -0.1063  0.1586
87796W        W30890  18.981  11.013  31.316 -0.1300  0.0736 -0.0655
87797W        W30891  19.150   9.827  29.328 -0.1013 -0.2140  0.2482
87798W        W30892  19.908   6.844  30.030 -0.2170 -0.1441  0.0620
87799W        W30893  19.711   9.640  31.487 -0.0923 -0.0242  0.1976
87800W        W30894  17.890   8.060  31.422  0.2673  0.0405 -0.3874
87801W        W30895  18.372  10.291  30.984 -0.1787  0.0248  0.1488
87802W        W30896  20.380   9.087  30.546  0.0500 -0.1796 -0.0546
87803W        W30897  18.314  10.016   0.583  0.1524 -0.1020 -0.1960
87804W        W30898  20.643   7.627   0.378 -0.0335  0.2556 -0.0706
87805W        W30899  19.247   7.885  31.141 -0.1657 -0.0007 -0.0466
87806W        W30900  21.860   9.186   0.832  0.0510  0.0653 -0.2048
87807W        W30901  21.415  10.549   1.323 -0.1039 -0.1220  0.0513
87808W        W30902  19.867  10.652   0.886 -0.0775  0.0751  0.0462
87809W        W30903  18.188   6.258  30.049  0.1715  0.1677 -0.5955
87810W        W30904  21.338   8.971  30.970  0.2684 -0.0492 -0.3184
87811W        W30905  18.244   9.451   0.680 -0.0722  0.3986  0.0014
87812W        W30906  20.223   9.904  30.817 -0.3410  0.3572  0.1179
87813W        W30907  18.434  10.911  31.549  0.1884  0.1144  0.0521
87814W        W30908  19.747   8.829  31.924 -0.1594 -0.0263  0.3689
87815W        W30909  20.689   9.945   0.328 -0.3495  0.3077  0.3590
87816W        W30910  16.661   7.519  31.309  0.1425 -0.1182 -0.1015
87817W        W30911  18.052   8.854  31.014 -0.1584  0.4287  0.2656
87818W        W30912  18.644   6.162  29.862  0.1400  0.1546  0.0326
87819W        W30913  18.384   8.815  31.406  0.2775 -0.0909 -0.1671
87820W        W30914  20.488   8.034   0.806  0.1115 -0.0398  0.1859
87821W        W30915  18.867   8.866   1.298 -0.1975 -0.2450 -0.1129
87822W        W30916  19.576   7.691  30.202  0.3046 -0.0767  0.2371
87823W        W30917  19.493   8.273  31.926 -0.0220 -0.1532  0.2834
87824W        W30918  17.615   9.677  31.428  0.3776  0.1998 -0.3278
87825W        W30919  18.903  10.324   0.170  0.0470 -0.2349  0.2112
87826W        W30920  18.745   8.215   0.122  0.1200  0.0377  0.1838
87827W        W30921  18.952   9.998  30.615  0.0364  0.0808  0.1234
87828W        W30922  20.043   9.373  30.763 -0.2411 -0.0013  0.0468
87829W        W30923  18.340   6.529  30.383 -0.2633 -0.2525 -0.0207
87830W        W30924  21.362   9.334   0.544  0.1778  0.2713  0.0738
87831W        W30925  20.157   8.505   0.129  0.3577 -0.0265  0.2772
87832W        W30926  16.823   6.965  29.957  0.0817  0.1343  0.0023
87833W        W30927  18.197  10.274  31.443  0.1357 -0.1835  0.0166
87834W        W30928  18.506   9.966   0.102  0.2550 -0.0184  0.2934
87835W        W30929  20.348   9.716  31.800  0.1896 -0.0959 -0.0460
87836W        W30930  19.736   9.955  31.103 -0.2426 -0.1374 -0.2103
87837W        W30931  20.899   8.546   0.767  0.2337  0.0351  0.1766
87838W        W30932  20.678   8.448  31.787  0.2171 -0.0377  0.0774
87839W        W30933  18.936   7.665  31.466  0.0414  0.1324  0.0848
87840W        W30934  19.215   6.833  31.251  0.0916  0.0799 -0.0712
87841W        W30935  20.121  11.588  30.584  0.0606  0.0523  0.1301
87842W        W30936  17.994   6.513  31.166 -0.3297  0.0556  0.2636
87843W        W30937  18.820   8.943  31.780 -0.0781 -0.1256  0.2449
87844W        W30938  17.937   7.402  29.981  0.3208 -0.0176 -0.1116
87845W        W30939  20.173   9.583  31.210  0.0604 -0.0509 -0.1115
87846W        W30940  21.106   9.774  31.469  0.2743  0.3327 -0.0104
87847W        W30941  18.291   9.286  31.536  0.0997 -0.1093  0.1495
87848W        W30942  21.062  10.425  31.084  0.1485  0.0972 -0.2722
87849W        W30943  20.091   7.518  31.528  0.0460  0.2155 -0.3202
87850W        W30944  19.571   8.125  30.449 -0.1112 -0.2635 -0.0488
87851W        W30945  18.483  10.541   0.484 -0.0446 -0.1707  0.4536
87852W        W30946  20.911   9.195   0.311  0.2360 -0.0120  0.0284
87853W        W30947  20.552   8.172  31.316  0.1120 -0.1884  0.1892
87854W        W30948  20.852  11.311  31.392 -0.2643  0.2017 -0.0761
87855W        W30949  19.827  10.131  30.639 -0.1285 -0.1725  0.1061
87856W        W30950  19.351  10.522  31.926 -0.0385  0.0390  0.2195
87857W        W30951  19.640   9.300  31.082 -0.0659 -0.1633  0.0368
87858W        W30952  17.944   7.578  30.913  0.0893  0.2576  0.1028
87859W        W30953  18.256   7.685  31.313  0.1047 -0.1810 -0.0627
87860W        W30954  16.503  10.209  31.698 -0.4102  0.2189 -0.2743
87861W        W30955  17.178   6.911  31.008 -0.1229  0.2241  0.0492
87862W        W30956  20.432  11.304  30.937  0.1188  0.4445 -0.0113
87863W        W30957  21.660  10.583   0.279 -0.0100 -0.1178 -0.0107
87864W        W30958  22.231   9.647  31.173  0.1933 -0.1954 -0.1246
87865W        W30959  20.484  12.102  16.922 -0.1972  0.0621  0.6291
87866W        W30960  17.822  12.301  16.792 -0.0480  0.3106  0.1825
87867W        W30961  20.254  11.382  16.074  0.2481  0.2589  0.0992
87868W        W30962  21.469  12.295  16.013 -0.1107 -0.1982 -0.1375
87869W        W30963  17.606  10.378  18.623  0.1201  0.0158 -0.0457
87870W        W30964  20.906  12.472  15.952  0.3770 -0.0233  0.0973
87871W        W30965  19.094   9.751  19.832  0.2835  0.0212 -0.0944
87872W        W30966  21.709  12.738  17.803 -0.0293  0.3175  0.0561
87873W        W30967  22.639  14.374  17.807 -0.2897  0.1723 -0.0771
87874W        W30968  19.899  11.770  16.590 -0.1820  0.0792 -0.2900
87875W        W30969  20.185  12.043  18.388 -0.0325  0.1357 -0.0425
87876W        W30970  19.889  12.614  16.905 -0.0682  0.1869 -0.2479
87877W        W30971  19.631  11.366  17.409 -0.1608 -0.0036  0.3592
87878W        W30972  18.701  11.157  18.387  0.0055  0.1082 -0.2704
87879W        W30973  21.787  13.568  17.298  0.0675 -0.3464 -0.1481
87880W        W30974  16.478  12.890  17.101  0.0216  0.3385 -0.0302
87881W        W30975  18.674  12.249  16.209 -0.0832  0.1028  0.0159
87882W        W30976  20.306  11.058  17.005  0.0285 -0.0862 -0.0655
87883W        W30977  19.909  14.185  15.475 -0.1650 -0.0007  0.1777
87884W        W30978  20.380  11.218  19.081  0.0180  0.0048  0.0531
87885W        W30979  21.000  10.795  18.934  0.0252  0.1520 -0.0430
87886W        W30980  20.101  13.794  15.675  0.0655 -0.2926 -0.0898
87887W        W30981  18.263  13.404  16.636  0.0537 -0.1981 -0.1225
87888W        W30982  18.883  11.601  18.578  0.0232 -0.0576  0.0241
87889W        W30983  18.818  11.789  17.609  0.2753 -0.1847  0.0762
87890W        W30984  21.752  11.237  16.714 -0.1768 -0.1632  0.0753
87891W        W30985  20.510  11.512  17.159 -0.1022  0.1919  0.0608
87892W        W30986  20.288  13.367  17.007 -0.3277  0.1692 -0.1437
87893W        W30987  20.801  14.168  15.855  0.2089 -0.0649  0.1607
87894W        W30988  20.831  12.014  18.912 -0.0551  0.0215  0.1980
87895W        W30989  16.770  13.180  18.639  0.1505 -0.4109  0.2640
87896W        W30990  18.512  13.987  16.597  0.2002 -0.1618  0.1979
87897W        W30991  19.712  13.390  15.195 -0.0488  0.1112  0.0765
87898W        W30992  23.869  13.883  17.123  0.0169  0.1137 -0.1997
87899W        W30993  22.181  12.765  18.521  0.0749 -0.0418  0.3183
87900W        W30994  20.385  13.707  17.379 -0.3112  0.1533 -0.0725
87901W        W30995  19.333  14.081  16.382  0.2173  0.0836 -0.1222
87902W        W30996  21.818  13.911  16.854 -0.0682 -0.1418  0.1629
87903W        W30997  19.523  12.736  18.600  0.2086 -0.0515 -0.0282
87904W        W30998  19.917  12.208  17.992 -0.0936  0.2462  0.0237
87905W        W30999  19.597  12.525  16.573  0.3155  0.3070 -0.1411
87906W        W31000  20.502  14.185  15.476 -0.0299 -0.1985  0.2351
87907W        W31001  19.666  13.077  16.214 -0.0149 -0.3744 -0.0857
87908W        W31002  19.610  11.858  18.207 -0.0245  0.1138 -0.2782
87909W        W31003  16.421  12.871  16.554 -0.0555  0.2073 -0.0873
87910W        W31004  21.519  11.669  18.174  0.2567  0.2278  0.3218
87911W        W31005  18.849  14.355  15.558 -0.2313  0.5161 -0.2897
87912W        W31006  21.068  11.451  15.844  0.0551 -0.3046  0.2088
87913W        W31007  19.460  10.339  16.254  0.2172  0.0399 -0.2350
87914W        W31008  21.142  11.580  17.875 -0.1604 -0.1164 -0.2562
87915W        W31009  20.185  10.367  17.628 -0.3021 -0.1374 -0.4974
87916W        W31010  18.787  14.354  16.406  0.1153  0.0059 -0.1556
87917W        W31011  19.412  11.019  17.794  0.0790 -0.1791 -0.0841
87918W        W31012  23.340  12.285  17.769  0.3403  0.2258  0.0032
87919W        W31013  19.334  12.926  15.913 -0.1184  0.1576  0.1641
87920W        W31014  20.770  11.180  16.815  0.2772  0.0952  0.0202
87921W        W31015  19.643  14.441  17.211 -0.1064 -0.0051  0.0821
87922W        W31016  17.962  11.661  18.154 -0.1477  0.3554  0.2087
87923W        W31017  20.678  13.266  15.360  0.0716  0.2247 -0.3309
87924W        W31018  23.336  13.716  15.899  0.5195  0.1206  0.1648
87925W        W31019  20.705  13.702  15.747 -0.1443  0.1621  0.1572
87926W        W31020  16.778  12.225  18.615 -0.0560  0.0933 -0.2679
87927W        W31021  18.178  11.647  18.903  0.2395 -0.0814  0.0439
87928W        W31022  20.081   9.886  19.165 -0.0510  0.1019 -0.0955
87929W        W31023  19.024   9.865  15.606  0.0371  0.1482 -0.0812
87930W        W31024  20.882  12.150  18.462  0.0431 -0.0344  0.0232
87931W        W31025  17.180  13.070  17.501  0.1315  0.0924  0.2515
87932W        W31026  21.999  12.542  17.279  0.0675  0.3063  0.1903
87933W        W31027  18.226  12.848  18.172  0.2510 -0.1290  0.2184
87934W        W31028  21.237  13.312  18.011 -0.1163  0.2670 -0.0285
87935W        W31029  21.799  12.718  15.847 -0.2760 -0.1865  0.0663
87936W        W31030  21.977  11.096  17.923  0.0124 -0.0041  0.2142
87937W        W31031  20.837  11.747  16.733  0.0511  0.1346  0.2444
87938W        W31032  18.336  12.654  16.188 -0.2573  0.1411  0.0888
87939W        W31033  20.039  12.461  15.507  0.1930  0.1942 -0.1746
87940W        W31034  22.368  12.154  18.145  0.0463 -0.0469  0.0552
87941W        W31035  22.033  12.598  15.449  0.2198  0.1548  0.1622
87942W        W31036  18.945  13.752  17.302 -0.0445 -0.2552 -0.4140
87943W        W31037  21.544  10.929  19.404 -0.1959 -0.4167  0.1888
87944W        W31038  20.783  11.992  17.628 -0.0435  0.1067  0.0101
87945W        W31039  19.406  13.386  15.633 -0.0047  0.0526  0.0586
87946W        W31040  16.532  13.155  19.148 -0.2157  0.1369  0.2570
87947W        W31041  18.116  13.101  16.214 -0.1251 -0.2725 -0.0467
87948W        W31042  18.638  10.074  19.063  0.1091 -0.4847  0.1684
87949W        W31043  19.029  14.093  15.980  0.1274 -0.1391  0.0798
87950W        W31044  20.666  13.117  17.286  0.1285 -0.0229  0.0619
87951W        W31045  20.360   9.373  19.801  0.2370  0.1534  0.2587
87952W        W31046  22.789  11.562  17.590 -0.0530  0.1134  0.4442
87953W        W31047  17.643  12.997  16.000 -0.1783  0.0470 -0.1587
87954W        W31048  21.653  14.799  15.623 -0.1087  0.0680 -0.4270
87955W        W31049  21.049  10.688  16.400  0.0272 -0.0480  0.1072
87956W        W31050  20.399  12.427  16.099 -0.1125 -0.3058  0.2962
87957W        W31051  18.969  12.666  17.686  0.0110  0.0256  0.3560
87958W        W31052  18.639  11.421  17.165  0.0098  0.0107  0.0084
87959W        W31053  18.842   9.750  18.707 -0.0339  0.3510  0.2430
87960W        W31054  18.130  11.396  17.167 -0.2745  0.3795 -0.1335
87961W        W31055  21.181  11.221  18.827 -0.0085 -0.0521  0.1272
87962W        W31056  18.999  10.277  16.042  0.0107 -0.1024 -0.1205
87963W        W31057  21.647  12.722  16.839  0.0975  0.2027 -0.0285
87964W        W31058  19.653  13.486  16.587  0.0981  0.0664  0.2814
87965W        W31059  16.852  13.068  17.872  0.1671 -0.1579 -0.0066
87966W        W31060  21.469  11.099  17.718  0.1296  0.0000 -0.3103
87967W        W31061  20.275  14.260  15.879 -0.0182  0.2561 -0.2509
87968W        W31062  22.700  13.932  17.240 -0.3293  0.1843  0.3440
87969W        W31063  22.210  13.967  15.990 -0.0237  0.0540 -0.0334
87970W        W31064  20.880  12.161  20.085 -0.2750  0.2360  0.0923
87971W        W31065  17.970  12.315  15.611  0.0361  0.2819  0.1287
87972W        W31066  19.103  13.900  15.453  0.1677  0.2382  0.1290
87973W        W31067  18.606  13.081  16.410 -0.2581  0.3404 -0.0731
87974W        W31068  19.313  12.527  15.578 -0.2153 -0.2963 -0.1184
87975W        W31069  23.140  14.030  16.283  0.0140 -0.0161  0.0318
87976W        W31070  19.858  13.311  15.769  0.0699 -0.0824 -0.0731
87977W        W31071  19.146  12.162  17.384  0.0383 -0.2157 -0.3344
87978W        W31072  21.487  10.567  18.988  0.0160 -0.2951 -0.1827
87979W        W31073  22.915  12.540  18.056  0.0055  0.1474  0.6090
87980W        W31074  21.009  12.413  17.632  0.0964  0.0757 -0.1073
87981W        W31075  19.378  10.611  16.696  0.0864 -0.0887 -0.1048
87982W        W31076  22.136  13.970  16.487 -0.2820 -0.1956  0.0134
87983W        W31077  18.376  12.271  16.600  0.2570  0.4216 -0.2585
87984W        W31078  18.045  12.844  17.433 -0.0959 -0.2427  0.0449
87985W        W31079  19.239  13.431  17.019  0.1166  0.3005 -0.1851
87986W        W31080  22.265  11.482  17.724  0.3352  0.1626  0.0358
87987W        W31081  18.068  10.961  19.070  0.3111  0.1785 -0.2146
87988W        W31082  21.487  12.425  17.330  0.0149  0.1712  0.3101
87989W        W31083  17.839  13.036  17.895 -0.0401  0.3555  0.0857
87990W        W31084  19.035  13.162  18.505 -0.0446  0.3747 -0.1061
87991W        W31085  20.153  11.412  17.529 -0.0081 -0.1672  0.0937
87992W        W31086  20.693  10.250  16.911 -0.0490 -0.1467 -0.1056
87993W        W31087  20.307  11.856  17.804 -0.2682 -0.1107 -0.1130
87994W        W31088  22.532  12.606  17.236  0.2244 -0.0939  0.2455
87995W        W31089  21.386  10.618  16.805  0.0839  0.0363  0.0857
87996W        W31090  19.700  10.716  15.964  0.1816 -0.0324  0.0556
87997W        W31091  19.390  12.505  19.056  0.1180 -0.0578  0.2464
87998W        W31092  20.113  13.305  16.179 -0.1945  0.1763 -0.1379
87999W        W31093  20.490  13.126  16.627  0.2538  0.1486 -0.3130
88000W        W31094  19.272  11.477  15.873  0.1583 -0.1733  0.1342
88001W        W31095  21.479  14.684  16.132  0.0117 -0.0024 -0.1787
88002W        W31096  17.771  13.708  17.152  0.0521 -0.3620 -0.0430
88003W        W31097  20.294  13.253  17.587 -0.0474  0.0485 -0.1277
88004W        W31098  20.919  13.026  16.397  0.0857 -0.2565  0.0499
88005W        W31099  19.260  11.774  17.784 -0.2852  0.0381 -0.1679
88006W        W31100  18.466  12.504  15.699 -0.1115 -0.2823  0.3296
88007W        W31101  17.708  11.472  17.717  0.1905  0.1463 -0.0648
88008W        W31102  17.652  14.575  14.521  0.1146 -0.6358 -0.0032
88009W        W31103  23.139  11.057  18.426 -0.2663 -0.1523  0.0874
88010W        W31104  21.942  11.990  17.909  0.2001 -0.2134 -0.4473
88011W        W31105  20.864  11.355  18.247 -0.1886  0.4782  0.0361
88012W        W31106  20.144  12.063  19.444  0.0693 -0.1400  0.0346
88013W        W31107  19.921  12.302  17.465 -0.0947  0.4738  0.0044
88014W        W31108  18.475  11.143  16.822 -0.1910  0.0662 -0.0505
88015W        W31109  18.930  12.227  15.753  0.1085  0.0586 -0.1252
88016W        W31110  22.472  11.169  18.043  0.0656 -0.1561  0.4145
88017W        W31111  20.544  12.450  18.763  0.0679  0.1987 -0.3253
88018W        W31112  20.086  14.238  16.420 -0.0519 -0.2213  0.0244
88019W        W31113  21.538  11.642  18.639  0.2316  0.0964 -0.1304
88020W        W31114  22.773  11.889  17.170  0.0411  0.0856 -0.0816
88021W        W31115  21.177  10.879  18.022  0.2795  0.1378  0.0996
88022W        W31116  19.128  11.921  16.156 -0.1461 -0.0010 -0.0266
88023W        W31117  19.324  13.592  16.134  0.0176 -0.0516  0.2117
88024W        W31118  19.016  13.437  15.339  0.2752 -0.1303 -0.4141
88025W        W31119  19.464  10.805  17.320 -0.1596 -0.1290  0.2426
88026W        W31120  20.524  12.031  16.423  0.1212 -0.1469 -0.0762
88027W        W31121  18.646  13.303  15.019  0.2865  0.0020  0.2438
88028W        W31122  21.822  12.406  18.724  0.0668  0.0210 -0.2230
88029W        W31123  18.267  13.724  15.727 -0.1452  0.0348 -0.0647
88030W        W31124  21.985  10.746  17.540 -0.0605  0.0252  0.0864
88031W        W31125  17.676  13.283  17.526 -0.0645 -0.0333  0.0130
88032W        W31126  19.434  12.028  15.744  0.1257  0.2297 -0.1062
88033W        W31127  16.935  12.232  15.203  0.1732 -0.0659 -0.1253
88034W        W31128  21.094  11.359  16.438 -0.1132 -0.0271  0.3441
88035W        W31129  21.066  12.026  16.190  0.1286 -0.1682 -0.0173
88036W        W31130  19.422  10.465  19.229  0.1013 -0.0088  0.2263
88037W        W31131  19.896  11.293  19.040  0.0812 -0.2723 -0.1740
88038W        W31132  17.026  13.949  17.299 -0.0626 -0.3017 -0.3893
88039W        W31133  18.901  12.683  15.946 -0.0440 -0.2445 -0.0155
88040W        W31134  20.631  10.574  16.093 -0.0740  0.1887 -0.0543
88041W        W31135  21.231  12.894  17.567 -0.0525 -0.2950  0.3094
88042W        W31136  18.996  11.141  19.847  0.0986  0.0993 -0.0120
88043W        W31137  15.989  11.076  16.632  0.0735  0.0938 -0.0357
88044W        W31138  23.579  12.838  19.231 -0.0431 -0.0133  0.2145
88045W        W31139  17.978  11.203  18.688  0.2079 -0.1160  0.1974
88046W        W31140  16.690  13.468  16.425 -0.2706 -0.0469 -0.0667
88047W        W31141  21.412  13.031  16.462  0.0828 -0.0429  0.0468
88048W        W31142  18.821  13.040  16.879  0.1078 -0.3404  0.2088
88049W        W31143  18.949  13.780  16.396 -0.2895 -0.1597  0.0344
88050W        W31144  18.400  11.230  20.939  0.0393 -0.0140 -0.2546
88051W        W31145  21.968  12.420  18.229 -0.0247  0.0069 -0.0213
88052W        W31146  18.502  11.949  17.170 -0.0828  0.0011 -0.1746
88053W        W31147  20.043  10.497  18.508 -0.0823  0.2276  0.3778
88054W        W31148  21.355  11.954  17.481  0.2338  0.0147  0.1340
88055W        W31149  22.612  12.501  18.453 -0.0278 -0.0335 -0.2573
88056W        W31150  21.449  11.391  17.293 -0.0027 -0.0209  0.1826
88057W        W31151  19.712  13.175  17.729 -0.0249 -0.1025  0.0286
88058W        W31152  19.368  10.274  19.730  0.3047 -0.0409  0.0839
88059W        W31153  22.500  14.769  15.912 -0.0546  0.0281 -0.3237
88060W        W31154  20.857  12.581  19.103 -0.0443  0.0274  0.4712
88061W        W31155  18.516  12.991  15.863  0.2287  0.1109  0.1584
88062W        W31156  17.062  12.020  18.169 -0.3141 -0.1234  0.1547
88063W        W31157  18.375  11.594  17.579 -0.0073 -0.1266  0.1475
88064W        W31158  20.719  10.338  19.561 -0.1107 -0.0737  0.2297
88065W        W31159  18.576  13.435  17.294 -0.0197 -0.0344  0.3537
88066W        W31160  17.824  12.629  16.368 -0.0398 -0.0928 -0.1956
88067W        W31161  19.148  13.104  17.856  0.1833  0.0570 -0.2288
88068W        W31162  21.557  10.841  16.343 -0.1396  0.3674 -0.3954
88069W        W31163  20.044  12.728  16.372 -0.1871 -0.0975  0.3057
88070W        W31164  19.163  11.206  17.133  0.1767  0.2048 -0.0317
88071W        W31165  23.415  10.175  18.695 -0.1208  0.0153 -0.3710
88072W        W31166  20.415  11.485  16.585 -0.1410  0.0910 -0.0022
88073W        W31167  21.826  10.584  17.999 -0.0331 -0.2178 -0.2484
88074W        W31168  18.706  10.452  18.209 -0.1687 -0.1020  0.0576
88075W        W31169  22.094  12.960  17.059  0.0060  0.0409 -0.0951
88076W        W31170  18.223  11.362  19.308 -0.2208 -0.3763  0.5161
88077W        W31171  20.806  13.858  17.635 -0.1314 -0.0191  0.1660
88078W        W31172  19.442  11.602  17.024 -0.1252  0.0115 -0.0987
88079W        W31173  19.897  10.954  17.604  0.2137  0.1090 -0.2019
88080W        W31174  18.473  11.304  16.387 -0.0520  0.3489 -0.0163
88081W        W31175  18.955  11.795  17.054 -0.0539 -0.2660  0.5154
88082W        W31176  23.264  11.854  17.496 -0.1234 -0.1680  0.1011
88083W        W31177  20.045  12.877  15.911  0.2054 -0.2081 -0.0718
88084W        W31178  20.566  10.646  16.627  0.3844 -0.0416  0.4124
88085W        W31179  19.930  12.098  16.971  0.0800  0.0749  0.1704
88086W        W31180  21.828  11.990  18.432  0.0027  0.0738  0.2995
88087W        W31181  20.087  12.244  16.504 -0.5216  0.2417 -0.0045
88088W        W31182  19.648  11.097  16.846 -0.0588  0.1260  0.3555
88089W        W31183  19.003  10.284  19.341  0.2756 -0.4016 -0.0631
88090W        W31184  21.416  12.336  18.382 -0.2006  0.1528 -0.3997
88091W        W31185  19.437  10.096  18.087 -0.0590 -0.1710 -0.0274
88092W        W31186  21.695  11.652  17.689 -0.3194  0.1938 -0.1059
88093W        W31187  20.140  12.690  17.759  0.0861  0.2640  0.0649
88094W        W31188  19.126  11.699  18.971  0.0369 -0.0799 -0.1155
88095W        W31189  17.845  10.185  19.925 -0.2311  0.1342  0.1485
88096W        W31190  21.297  13.316  17.256  0.1854 -0.0744  0.0306
88097W        W31191  21.409  11.670  16.265  0.0782  0.1696 -0.1329
88098W        W31192  23.267  11.243  19.304  0.0438  0.1558  0.5346
88099W        W31193  21.879  11.678  17.183 -0.1735  0.0846  0.1196
88100W        W31194  19.900  10.143  16.496 -0.2570  0.1127  0.0483
88101W        W31195  17.988  11.915  17.105  0.0924  0.2864 -0.0019
88102W        W31196  20.856  11.486  19.112  0.2142 -0.1361  0.0088
88103W        W31197  18.053  11.081  15.971  0.0552 -0.2618 -0.1360
88104W        W31198  21.053  11.676  18.630  0.0337  0.2828  0.0071
88105W        W31199  20.799  15.343  14.441 -0.0451  0.0280 -0.1392
88106W        W31200  20.714  11.580  16.156 -0.3847  0.1975 -0.0475
88107W        W31201  19.447  12.259  17.766 -0.2105 -0.1829  0.0341
88108W        W31202  18.074  11.060  17.653  0.2684  0.3056 -0.5169
88109W        W31203  19.035  13.066  17.389 -0.1563 -0.0857  0.2603
88110W        W31204  18.094  10.574  16.035  0.3680  0.3324  0.2523
88111W        W31205  18.376  12.829  16.778 -0.1439  0.0527  0.1317
88112W        W31206  20.329  13.440  18.383 -0.2229  0.1675  0.0690
88113W        W31207  24.010  13.157  19.160 -0.0814  0.3075 -0.3029
88114W        W31208  20.275  11.003  16.471 -0.0108 -0.1196 -0.0899
88115W        W31209  22.973  11.819  19.779  0.1453 -0.0120  0.2730
88116W        W31210  18.760  12.618  16.535 -0.0855  0.2956  0.2911
88117W        W31211  21.268  11.113  16.788 -0.2713 -0.0735 -0.3389
88118W        W31212  19.568  13.951  17.459  0.0831  0.2053 -0.0762
88119W        W31213  18.567  13.308  18.208  0.0587  0.0387  0.4661
88120W        W31214  20.099  13.615  16.594  0.0907  0.1498  0.0351
88121W        W31215  19.801  12.250  18.693 -0.2398  0.2579 -0.0828
88122W        W31216  20.984  11.618  17.269 -0.0960  0.5386  0.1184
88123W        W31217  18.259  12.392  17.090 -0.4444  0.4049  0.0826
88124W        W31218  22.543  10.723  18.706  0.3490  0.1311  0.5546
88125W        W31219  22.316  12.995  19.010 -0.0509 -0.0288  0.3173
88126W        W31220  19.640  11.355  18.322 -0.3212 -0.0490  0.2410
88127W        W31221  22.004  13.025  18.116  0.0801  0.0588  0.4773
88128W        W31222  22.167  12.959  17.635  0.1255 -0.0714  0.0847
88129W        W31223  18.297  13.183  17.748 -0.1848 -0.3363  0.0863
88130W        W31224  19.469  11.334  18.763 -0.1669  0.0414 -0.1431
88131W        W31225  20.567  12.369  19.467  0.0942 -0.1829 -0.0552
88132W        W31226  20.598  12.572  16.514  0.1471  0.1092 -0.0623
88133W        W31227  18.006  11.888  16.505  0.1311  0.0630 -0.0176
88134W        W31228  20.215  14.594  15.511 -0.1696 -0.2879 -0.0833
88135W        W31229  18.474  14.490  16.738  0.2381 -0.2850 -0.2097
88136W        W31230  18.192  12.110  17.559 -0.1056 -0.0189 -0.0428
88137W        W31231  18.526  13.321  15.523  0.4149  0.0109 -0.1194
88138W        W31232  21.860  13.261  15.902 -0.3400 -0.1838  0.5539
88139W        W31233  18.924  13.211  16.000 -0.0002 -0.1063 -0.1468
88140W        W31234  20.673  14.963  16.366  0.0788 -0.1160 -0.1116
88141W        W31235  19.230  12.378  16.159 -0.1382  0.1079  0.3448
88142W        W31236  18.077  14.033  17.319  0.1236  0.1487  0.0697
88143W        W31237  17.301  13.829  15.840  0.2423 -0.2534  0.1338
88144W        W31238  20.926  12.820  15.405 -0.1893 -0.1030  0.0165
88145W        W31239  19.181  12.835  16.366  0.2678 -0.1202 -0.4023
88146W        W31240  22.824  14.242  18.280  0.1865 -0.1318 -0.3784
88147W        W31241  21.645  10.197  17.006 -0.0614 -0.2538 -0.0526
88148W        W31242  22.683  11.654  16.698  0.1132  0.1241  0.4435
88149W        W31243  21.317  10.412  15.998  0.4362 -0.1168  0.0362
88150W        W31244  21.183  13.514  18.461 -0.1590 -0.1875 -0.0749
88151W        W31245  20.331  13.066  18.102  0.0138 -0.2301  0.4494
88152W        W31246  18.918  11.655  16.556 -0.1919 -0.1010  0.1002
88153W        W31247  20.166  11.369  19.497 -0.0211  0.0837  0.3390
88154W        W31248  22.147   8.965  17.655 -0.0663  0.2047 -0.1479
88155W        W31249  16.625  13.241  17.418 -0.1257 -0.1840  0.2115
88156W        W31250  19.789  13.703  16.122 -0.0016  0.0564  0.0463
88157W        W31251  17.499  11.812  16.464 -0.2460 -0.1775  0.6158
88158W        W31252  20.011  11.109  18.064  0.3006 -0.1503 -0.1542
88159W        W31253  22.025  10.023  18.311 -0.2258  0.0118 -0.0930
88160W        W31254  18.954  11.310  16.191 -0.0885 -0.0519  0.0359
88161W        W31255  21.554  12.050  17.038 -0.2004 -0.2340 -0.0039
88162W        W31256  18.526  13.980  16.032  0.1388  0.2992  0.0414
88163W        W31257  19.124  13.319  16.533 -0.2586  0.0487 -0.1704
88164W        W31258  21.126  13.969  16.567 -0.2410  0.2027  0.2245
88165W        W31259  18.316  11.619  16.779  0.2903  0.5926 -0.2231
88166W        W31260  21.416  11.193  16.079 -0.1612 -0.0349  0.2155
88167W        W31261  20.268  12.066  18.927 -0.0407 -0.0815  0.1630
88168W        W31262  20.505  10.064  17.778  0.1055 -0.1162 -0.0136
88169W        W31263  18.109  13.571  17.545  0.0933  0.0594 -0.0744
88170W        W31264  22.446  10.189  16.406  0.0928  0.1633  0.1668
88171W        W31265  21.237  12.472  16.876 -0.0232  0.1529 -0.1961
88172W        W31266  20.162  11.874  17.356  0.2857  0.1235 -0.3711
88173W        W31267  18.565  10.877  16.158 -0.1849 -0.2272  0.3857
88174W        W31268  22.651  10.681  17.080  0.1212  0.0137  0.0079
88175W        W31269  20.026  11.491  17.040 -0.0950 -0.2864  0.0710
88176W        W31270  21.319  14.658  17.814  0.1242  0.0438  0.2330
88177W        W31271  20.838  10.997  17.331 -0.1577 -0.1081  0.0955
88178W        W31272  19.588  11.917  17.431  0.0411  0.1061  0.1956
88179W        W31273  18.855  12.197  17.898 -0.0066  0.0517 -0.0771
88180W        W31274  20.460  13.018  18.667 -0.0529  0.1121  0.0064
88181W        W31275  22.664  14.791  17.457  0.2419  0.0674  0.0520
88182W        W31276  17.673  12.447  17.854 -0.2486 -0.0404 -0.0845
88183W        W31277  21.193  13.606  15.624 -0.2697  0.2214 -0.0638
88184W        W31278  22.613  12.557  17.687 -0.0370  0.3523 -0.3559
88185W        W31279  18.452  13.463  16.164 -0.1643 -0.1933  0.0449
88186W        W31280  22.842  12.021  16.284  0.0297 -0.1801 -0.2617
88187W        W31281  21.641  13.254  17.679  0.0449 -0.2073  0.4825
88188W        W31282  19.054  12.115  18.688 -0.0042  0.1809  0.0136
88189W        W31283  20.953  12.118  17.194 -0.2906 -0.0328 -0.5132
88190W        W31284  22.567  14.170  15.539 -0.0603 -0.4105  0.0270
88191W        W31285  20.454   9.559  18.931 -0.0649  0.1120  0.1969
88192W        W31286  19.494  12.799  17.399 -0.1835  0.0144 -0.0255
88193W        W31287  18.312  14.386  16.258 -0.0700 -0.6111  0.0255
88194W        W31288  20.871  12.239  16.649 -0.1258  0.0181 -0.0861
88195W        W31289  21.116  12.041  18.028 -0.0455 -0.1089 -0.0651
88196W        W31290  21.216  14.313  14.944 -0.0506 -0.2727  0.1592
88197W        W31291  21.361  10.045  19.187 -0.0054  0.1175 -0.0105
88198W        W31292  19.534  12.729  17.877 -0.1263  0.0425  0.0687
88199W        W31293  20.747  13.341  17.711 -0.2272 -0.1274  0.2183
88200W        W31294  17.416  12.082  16.954 -0.5046 -0.3587  0.2983
88201W        W31295  21.177  12.639  18.099  0.2265 -0.0380  0.3796
88202W        W31296  20.589  13.626  16.621 -0.0634  0.1172  0.1124
88203W        W31297  20.015  15.020  15.341 -0.1533 -0.1585  0.0578
88204W        W31298  21.976  13.006  16.571  0.0922  0.1999  0.1295
88205W        W31299  19.886  10.082  17.909  0.2262 -0.0865  0.0752
88206W        W31300  24.160  14.081  16.089  0.3526  0.1254 -0.0497
88207W        W31301  18.989  10.764  16.984 -0.0191 -0.2838  0.3577
88208W        W31302  22.048   9.669  17.420 -0.2849 -0.1399 -0.2097
88209W        W31303  21.459  12.126  16.542  0.0300 -0.0776  0.5719
88210W        W31304  19.938  13.593  17.558  0.0666 -0.2382 -0.1686
88211W        W31305  17.550  12.659  15.602  0.1028  0.2771 -0.0758
88212W        W31306  18.849  13.768  14.969  0.0181 -0.0610 -0.1111
88213W        W31307  19.431  12.315  18.289 -0.4451 -0.3447  0.0075
88214W        W31308  20.063  10.772  18.944  0.1436  0.0898  0.2390
88215W        W31309  19.989  10.841  20.329  0.2486 -0.1136 -0.0591
88216W        W31310  17.814  12.795  16.927 -0.0777 -0.0047 -0.2236
88217W        W31311  19.319  11.962  16.681 -0.0182  0.1626  0.3895
88218W        W31312  22.681  14.371  16.503 -0.1016  0.0550 -0.1267
88219W        W31313  19.069  10.826  19.276  0.0413  0.2586  0.0391
88220W        W31314  18.547  10.758  18.709  0.0373 -0.0209  0.0011
88221W        W31315  22.233  13.895  17.101  0.1816 -0.2631  0.1736
88222W        W31316  21.555  13.711  16.416  0.0498  0.1455 -0.1753
88223W        W31317  19.388  11.478  16.518  0.0639 -0.2563  0.3145
88224W        W31318  22.363  15.187  17.521 -0.4169  0.0358 -0.2530
88225W        W31319  17.955  14.088  15.863  0.0419 -0.0671 -0.2091
88226W        W31320  19.666  12.041  19.264  0.2190 -0.1098  0.1287
88227W        W31321  20.748  10.854  19.336 -0.0218 -0.1312 -0.1464
88228W        W31322  17.680  10.737  15.854  0.0919  0.2267 -0.0075
88229W        W31323  20.665  11.806  18.154 -0.0051 -0.2596  0.0708
88230W        W31324  21.589  13.198  16.905 -0.0549  0.1577  0.0487
88231W        W31325  20.545  12.904  16.073  0.1862  0.1289  0.3865
88232W        W31326  20.235  11.555  18.232  0.1447 -0.3660 -0.0944
88233W        W31327  21.274  13.813  17.065  0.2339  0.0779 -0.1999
88234W        W31328  17.513  11.367  18.605 -0.0183 -0.5475 -0.1417
88235W        W31329  22.991  13.482  16.203 -0.0860  0.1883  0.0598
88236W        W31330  19.048  12.684  18.161  0.0195  0.0424 -0.1089
88237W        W31331  21.975  12.315  16.747 -0.0593  0.0954  0.0344
88238W        W31332  22.593  11.653  18.043 -0.0044 -0.5658 -0.1563
88239W        W31333  19.804  11.637  17.776  0.0722 -0.2836  0.1946
88240W        W31334  20.497  11.713  18.677 -0.1667 -0.0247 -0.0650
88241W        W31335  19.956  11.665  18.650  0.1749  0.3011  0.0499
88242W        W31336  22.316  12.101  17.031  0.0419  0.0763  0.1139
88243W        W31337  18.940  10.840  17.489 -0.1298  0.3483  0.2786
88244W        W31338  21.755  10.948  17.097 -0.0270  0.2763 -0.1007
88245W        W31339  20.871  13.203  15.818  0.0791  0.1541 -0.2610
88246W        W31340  18.468  11.959  18.117  0.0829 -0.1573  0.1645
88247W        W31341  19.594  12.039  16.251 -0.2341 -0.0128 -0.1851
88248W        W31342  21.253  12.674  18.744 -0.1801 -0.1551 -0.2209
88249W        W31343  20.403  12.738  17.004  0.1234  0.2691 -0.0398
88250W        W31344  22.294  12.141  18.663  0.1093 -0.2974  0.4533
88251W        W31345  19.746  11.672  15.948 -0.2304 -0.2155 -0.1275
88252W        W31346  22.136  12.392  16.262 -0.2166  0.1010  0.1764
88253W        W31347  21.752  13.833  15.955  0.1704 -0.1044 -0.0554
88254W        W31348  23.398  14.770  18.395  0.0553  0.0230  0.1000
88255W        W31349  20.884  13.727  18.125  0.1227 -0.0666 -0.0395
88256W        W31350  21.543  12.292  17.855 -0.1754 -0.0648  0.1855
88257W        W31351  18.467  11.257  18.846  0.3097 -0.0958 -0.3291
88258W        W31352  18.169  12.154  16.099  0.0785  0.0249  0.1292
88259W        W31353  18.635  12.345  17.417 -0.1770 -0.2550  0.3382
88260W        W31354  22.991  11.590  18.391 -0.1805 -0.3262 -0.1103
88261W        W31355  19.283  10.091  18.887  0.1244  0.1258 -0.1923
88262W        W31356  20.734   9.715  16.396  0.0165 -0.1574 -0.0952
88263W        W31357  21.051  14.505  16.454 -0.3936 -0.0424 -0.1229
88264W        W31358  20.011  12.914  17.286 -0.0889 -0.2297  0.1634
88265W        W31359  20.119  12.338  21.188 -0.2377 -0.0923  0.1855
88266W        W31360  18.653  11.575  19.866 -0.2204 -0.4137 -0.0004
88267W        W31361  23.293  10.666  19.245 -0.0446 -0.1127  0.2361
88268W        W31362  22.392  10.525  20.148 -0.0886  0.3695  0.0390
88269W        W31363  18.109  10.726  20.995 -0.1302  0.2044  0.1746
88270W        W31364  21.697  12.526  19.713 -0.2009  0.1642 -0.0598
88271W        W31365  18.676  10.332  22.642 -0.0222 -0.0006  0.2386
88272W        W31366  22.295  13.599  22.494 -0.0168  0.0116 -0.2498
88273W        W31367  22.497  13.502  20.193  0.1533  0.2449 -0.0044
88274W        W31368  20.947  12.082  19.497  0.0172  0.1316  0.0347
88275W        W31369  19.070  10.285  21.636  0.0916 -0.3162 -0.1779
88276W        W31370  20.230  12.193  19.995  0.1055  0.1824 -0.3254
88277W        W31371  20.239  10.480  19.794  0.3605  0.1644  0.3766
88278W        W31372  18.119  11.283  21.738 -0.1195 -0.3201 -0.0887
88279W        W31373  21.288  13.015  21.193 -0.4895  0.2571 -0.5260
88280W        W31374  18.574  11.959  21.343 -0.0983  0.0371  0.0900
88281W        W31375  20.203  11.367  22.360  0.3663 -0.0234  0.1307
88282W        W31376  21.034   9.912  19.605  0.0611 -0.0293 -0.1900
88283W        W31377  20.254  13.724  18.816  0.1030  0.0721 -0.1944
88284W        W31378  20.230  10.831  23.004 -0.0297 -0.0684 -0.0154
88285W        W31379  21.453  11.443  23.783  0.0693  0.0439  0.0846
88286W        W31380  20.821  12.953  19.462  0.2610 -0.0789  0.0066
88287W        W31381  19.126  11.896  18.242  0.3022 -0.2887 -0.0299
88288W        W31382  17.798  13.143  19.257  0.0772  0.0468  0.1569
88289W        W31383  18.779  10.327  23.210 -0.1035 -0.1958 -0.0119
88290W        W31384  22.079  11.198  21.122  0.1739  0.0304  0.2795
88291W        W31385  20.643  11.470  21.079 -0.1400  0.0109 -0.1287
88292W        W31386  20.945  13.073  18.968 -0.1045 -0.2206 -0.4452
88293W        W31387  21.569  12.464  20.842  0.1769  0.2361  0.0920
88294W        W31388  20.284  12.877  22.853 -0.0869  0.0970 -0.1713
88295W        W31389  18.935  11.012  20.388  0.2372 -0.4821 -0.1939
88296W        W31390  19.802  12.149  19.758  0.0428 -0.1056 -0.2232
88297W        W31391  22.882  13.861  21.299  0.0716  0.0913  0.2369
88298W        W31392  22.084  14.179  21.360  0.1634  0.0462 -0.0479
88299W        W31393  20.173  13.886  20.220 -0.0584  0.0042  0.3528
88300W        W31394  18.178  13.645  18.064 -0.0962  0.3417 -0.2578
88301W        W31395  21.137  13.467  21.402 -0.2672 -0.0872  0.4577
88302W        W31396  20.739  13.060  21.581  0.0634 -0.3409 -0.4267
88303W        W31397  19.029  11.523  19.509 -0.1427 -0.0809  0.1226
88304W        W31398  21.607  12.994  20.783  0.1227  0.0574  0.2654
88305W        W31399  17.855  13.040  21.498 -0.0368  0.0099 -0.0637
88306W        W31400  19.041  12.000  21.146 -0.0636  0.3190 -0.0910
88307W        W31401  21.929  11.024  24.765  0.1017  0.0005  0.1692
88308W        W31402  18.485  13.946  17.750  0.0225  0.1470 -0.0060
88309W        W31403  21.962  10.585  18.637 -0.1912  0.1724  0.0280
88310W        W31404  20.464  10.930  18.246  0.2434  0.1367  0.1926
88311W        W31405  22.137  11.460  19.900  0.0210 -0.1110 -0.1758
88312W        W31406  19.954   9.966  22.328 -0.3809 -0.0599 -0.3433
88313W        W31407  21.626  11.994  20.991 -0.0146 -0.0752 -0.0408
88314W        W31408  22.123  13.159  22.347  0.2752 -0.3060 -0.1943
88315W        W31409  20.641  11.269  19.607  0.1695  0.2069 -0.0864
88316W        W31410  21.134  11.621  22.743 -0.5510  0.1349 -0.0658
88317W        W31411  18.743  12.896  21.331 -0.0687  0.0837  0.2711
88318W        W31412  19.807  11.605  21.168 -0.1628  0.0333  0.0356
88319W        W31413  21.922  14.502  17.551 -0.2151 -0.0006  0.0320
88320W        W31414  23.119  13.610  20.321 -0.0978  0.2522  0.4391
88321W        W31415  22.245  14.768  17.808  0.0202 -0.1840 -0.0173
88322W        W31416  18.147  12.511  20.623 -0.0587  0.2509  0.0311
88323W        W31417  19.522  11.567  21.596  0.0990 -0.2069 -0.1610
88324W        W31418  19.127  12.604  21.780  0.1521 -0.0527  0.1481
88325W        W31419  20.643  10.694  20.345 -0.0896 -0.0297  0.0833
88326W        W31420  21.014  13.922  22.565  0.3079  0.0516  0.3496
88327W        W31421  18.305  12.789  21.001 -0.1904 -0.1360  0.0081
88328W        W31422  21.167  11.207  19.428  0.3371 -0.0674  0.1843
88329W        W31423  20.291  12.387  22.637 -0.0353 -0.1022 -0.2991
88330W        W31424  22.645  13.313  21.370  0.1527  0.0681  0.1784
88331W        W31425  20.465  12.394  17.363 -0.1378 -0.5058  0.2443
88332W        W31426  21.162  12.014  21.115  0.1363  0.1917  0.4062
88333W        W31427  21.215  11.590  21.384  0.0504  0.0407  0.0498
88334W        W31428  19.709  12.941  19.181 -0.4502 -0.1387 -0.1259
88335W        W31429  19.674  12.162  20.457  0.2154  0.0723 -0.2117
88336W        W31430  23.086  13.740  19.444 -0.0705  0.4805 -0.2422
88337W        W31431  22.029  11.681  19.379  0.1511 -0.0539 -0.0364
88338W        W31432  19.173  12.530  20.302 -0.2164  0.0542  0.1777
88339W        W31433  20.637  11.685  22.260  0.0732  0.1253  0.2054
88340W        W31434  19.981  12.756  22.490 -0.0360 -0.2158 -0.2208
88341W        W31435  20.851  14.186  16.919 -0.0135 -0.2399  0.0919
88342W        W31436  18.291  11.703  20.975 -0.1586  0.1763  0.1602
88343W        W31437  19.275  12.237  19.881  0.3844  0.0359  0.2307
88344W        W31438  19.764  11.471  22.174 -0.1278  0.0535 -0.1187
88345W        W31439  19.575  12.508  21.124 -0.1876  0.1880  0.0136
88346W        W31440  21.487  10.242  21.237  0.1616 -0.0016  0.0569
88347W        W31441  19.486  10.964  22.230 -0.1477 -0.3387 -0.2576
88348W        W31442  21.040  11.572  19.663  0.0338 -0.3268 -0.1705
88349W        W31443  19.208  12.374  20.783  0.1992 -0.0973  0.1609
88350W        W31444  21.967  13.231  18.654  0.2354  0.0488 -0.0510
88351W        W31445  22.541  11.154  19.648 -0.2865 -0.0436  0.0214
88352W        W31446  21.655  13.713  17.867 -0.0774 -0.5254 -0.1195
88353W        W31447  18.677  12.345  21.602  0.3056 -0.4229  0.2254
88354W        W31448  20.427  11.562  23.708 -0.0324  0.1902  0.3637
88355W        W31449  19.872  11.907  22.510 -0.1336  0.0557  0.0500
88356W        W31450  18.539  10.403  21.478  0.3394  0.0262 -0.0279
88357W        W31451  22.476  12.447  21.387  0.0619  0.2294 -0.5507
88358W        W31452  19.764  11.624  20.695  0.3685  0.1949 -0.0923
88359W        W31453  20.902   9.948  20.870  0.0222 -0.1811 -0.1412
88360W        W31454  20.774  11.991  20.593 -0.6532  0.0814  0.1010
88361W        W31455  18.067  12.670  19.149  0.1800 -0.3090 -0.1576
88362W        W31456  22.672  11.745  22.807  0.1167 -0.3114  0.4396
88363W        W31457  21.369  13.943  18.182 -0.3411  0.0829 -0.1120
88364W        W31458  21.440  14.014  22.271 -0.0534 -0.2584  0.0577
88365W        W31459  22.576  13.954  19.592 -0.0037  0.0582  0.0236
88366W        W31460  20.753  11.673  21.763  0.1812 -0.0604  0.0267
88367W        W31461  19.269  11.445  20.524  0.0975  0.1866 -0.0173
88368W        W31462  18.994  12.639  18.767  0.0640  0.1446 -0.5133
88369W        W31463  20.047  13.316  19.459 -0.3641 -0.2779  0.1543
88370W        W31464  21.323  11.244  18.327  0.0916 -0.1294 -0.1208
88371W        W31465  22.379  14.432  19.820  0.1582  0.3132  0.3112
88372W        W31466  21.725  13.296  21.210  0.1030  0.0503 -0.2251
88373W        W31467  17.965  13.092  20.790  0.2764 -0.0520 -0.0128
88374W        W31468  22.211  11.610  22.932 -0.1204 -0.3856  0.0793
88375W        W31469  22.939  12.159  22.081  0.1707 -0.1631  0.1215
88376W        W31470  21.608  12.485  22.462 -0.0036  0.2776 -0.1661
88377W        W31471  19.199  10.179  20.187  0.3848  0.0721 -0.0143
88378W        W31472  20.902  13.016  19.970  0.1032  0.0201 -0.1676
88379W        W31473  19.492  13.517  18.473  0.1274  0.1337  0.0899
88380W        W31474  18.213  11.790  20.039  0.0463 -0.1506  0.1151
88381W        W31475  20.527  12.575  20.010 -0.1061 -0.1798 -0.0226
88382W        W31476  21.216  11.354  20.399 -0.2020  0.1295 -0.0177
88383W        W31477  17.803  10.909  22.680 -0.0775 -0.3315 -0.3666
88384W        W31478  21.124  12.839  21.673  0.1256 -0.3918  0.1240
88385W        W31479  19.017  11.179  18.883  0.3099  0.2536  0.2175
88386W        W31480  20.326  11.099  20.521 -0.1716  0.0499  0.1142
88387W        W31481  20.922  11.646  20.140 -0.0081  0.0384  0.0132
88388W        W31482  19.262  13.444  22.253 -0.4010 -0.1935 -0.2699
88389W        W31483  22.561  12.514  19.390 -0.2114 -0.1655 -0.0193
88390W        W31484  22.368  10.389  18.325  0.0796 -0.0374  0.0273
88391W        W31485  21.452  10.623  19.868 -0.0018 -0.1479  0.2068
88392W        W31486  18.285  12.693  21.503 -0.0227  0.1200  0.1626
88393W        W31487  22.041  12.839  20.050 -0.1657 -0.0232 -0.1119
88394W        W31488  20.786  11.971  22.672 -0.1927  0.0840 -0.1178
88395W        W31489  21.235   9.498  19.307 -0.2420 -0.0336  0.1343
88396W        W31490  23.578  14.055  18.822  0.1077  0.4549 -0.1193
88397W        W31491  18.504  12.490  18.878  0.3233 -0.0234  0.0710
88398W        W31492  20.251  13.163  22.311  0.1666  0.2145  0.1754
88399W        W31493  21.723  11.513  20.718  0.1538 -0.0710 -0.1580
88400W        W31494  20.469  10.052  22.271 -0.0095 -0.3013 -0.1828
88401W        W31495  19.492  12.498  19.531 -0.3028 -0.1143 -0.2644
88402W        W31496  19.523  11.052  20.317 -0.0388 -0.1219  0.1513
88403W        W31497  18.778  14.389  17.578 -0.2484  0.0748 -0.2370
88404W        W31498  21.755  11.060  22.275  0.2284  0.0438 -0.0064
88405W        W31499  21.714  11.448  23.027 -0.1359 -0.0848  0.3575
88406W        W31500  21.197  10.494  22.499 -0.1457  0.2650 -0.1651
88407W        W31501  22.793  11.613  22.325  0.3056 -0.0628  0.0156
88408W        W31502  20.053  11.685  19.869  0.0153  0.1447 -0.0071
88409W        W31503  22.065  11.144  20.573  0.4106 -0.2844  0.2722
88410W        W31504  18.359  10.299  19.768  0.0176  0.4143 -0.2782
88411W        W31505  20.287  11.837  23.293 -0.0846  0.3863  0.0254
88412W        W31506  19.614  13.333  20.211  0.0243 -0.3142  0.0181
88413W        W31507  21.790  14.076  23.718 -0.0360 -0.2806 -0.2213
88414W        W31508  21.069  12.403  20.848  0.4934  0.4126 -0.1347
88415W        W31509  21.574  11.953  23.041 -0.3321  0.1290  0.2100
88416W        W31510  20.516  10.371  18.167 -0.2139 -0.4020 -0.1216
88417W        W31511  19.933  12.585  18.298 -0.1038  0.0937 -0.0769
88418W        W31512  20.718  13.448  18.731  0.0746 -0.3116 -0.1426
88419W        W31513  20.555  10.537  22.090  0.1642  0.1159 -0.1732
88420W        W31514  20.454  11.441  20.107  0.1019  0.1295 -0.1766
88421W        W31515  20.868  13.032  18.240  0.3458  0.4670  0.0105
88422W        W31516  20.908  12.939  22.231 -0.0182  0.2517  0.2050
88423W        W31517  20.351  13.629  17.925 -0.1108  0.2112 -0.0670
88424W        W31518  22.154  10.826  22.580  0.1453  0.0733  0.2002
88425W        W31519  18.958  12.605  19.705 -0.2313  0.1200  0.0292
88426W        W31520  18.687  11.184  19.396  0.1716 -0.0648 -0.0991
88427W        W31521  17.135  12.519  20.109  0.3516 -0.1751 -0.0533
88428W        W31522  22.099  11.828  21.228  0.1239 -0.1209  0.0469
88429W        W31523  21.225  11.781  19.234 -0.1202 -0.1680  0.1909
88430W        W31524  19.775  12.065  20.978  0.1913 -0.0095  0.5529
88431W        W31525  20.594  11.109  23.780  0.0700 -0.2104  0.1757
88432W        W31526  18.446  13.677  19.457  0.3078  0.2308 -0.5078
88433W        W31527  21.194  12.442  22.953 -0.1341 -0.1078 -0.3261
88434W        W31528  22.058  12.300  19.363 -0.0093  0.1529  0.2265
88435W        W31529  21.860  13.192  20.345 -0.1516 -0.2342 -0.1825
88436W        W31530  20.010  12.729  20.970 -0.0525  0.0108 -0.2040
88437W        W31531  19.763  10.847  19.349  0.1109  0.2502 -0.1706
88438W        W31532  22.345  12.711  22.056 -0.0476 -0.4880 -0.1039
88439W        W31533  21.409  11.163  20.872  0.0861  0.1791  0.0743
88440W        W31534  18.665  12.106  19.150 -0.1696  0.3258 -0.0312
88441W        W31535  21.928  12.851  21.117 -0.1728 -0.0234  0.3345
88442W        W31536  19.331  12.950  19.965  0.0061  0.2001  0.1203
88443W        W31537  20.123  12.799  20.396  0.3251 -0.0704  0.1139
88444W        W31538  19.333  11.956  22.461  0.2560  0.0463 -0.1201
88445W        W31539  21.551  12.461  21.781 -0.2604 -0.0496  0.1046
88446W        W31540  20.131  11.792  22.051  0.0739  0.2304  0.0381
88447W        W31541  20.234  11.441  20.845 -0.1767 -0.0995  0.0019
88448W        W31542  21.089  11.562  20.843 -0.0396  0.0632 -0.1127
88449W        W31543  21.637  11.475  19.158 -0.2678  0.0591  0.0181
88450W        W31544  20.777  13.020  22.776  0.2052  0.1380 -0.2004
88451W        W31545  19.772  13.216  22.345  0.2322 -0.3718 -0.0755
88452W        W31546  20.250   8.907  21.029  0.1443  0.1702  0.2814
88453W        W31547  22.871  13.181  20.443  0.2033  0.1912 -0.1401
88454W        W31548  19.890  12.855  21.451  0.0962 -0.1270  0.0475
88455W        W31549  18.837  14.097  18.534  0.0130 -0.0886 -0.1825
88456W        W31550  18.580  12.707  19.337  0.0877  0.1001 -0.1111
88457W        W31551  19.851  13.157  20.601 -0.0482  0.3079  0.0051
88458W        W31552  21.953  11.765  21.915  0.2480 -0.0604 -0.0820
88459W        W31553  20.068  13.390  21.003 -0.3524  0.1437  0.1402
88460W        W31554  18.583  12.893  18.495 -0.0503  0.3055  0.0527
88461W        W31555  18.800  12.792  20.104 -0.0933 -0.0515  0.1430
88462W        W31556  21.015   9.351  19.851  0.1119 -0.1897  0.1950
88463W        W31557  20.654  12.841  17.745 -0.0534 -0.0133 -0.2729
88464W        W31558  19.358  11.916  20.771  0.1648 -0.2286  0.0881
88465W        W31559  23.146  11.291  23.300 -0.1454 -0.0422 -0.0176
88466W        W31560  21.494  13.130  18.769 -0.2090  0.1667 -0.0173
88467W        W31561  21.084  12.495  22.059 -0.1659 -0.0128 -0.0107
88468W        W31562  18.996  11.223  22.943 -0.1105 -0.0630 -0.0269
88469W        W31563  22.774  13.148  19.366 -0.1897 -0.2244  0.1557
88470W        W31564  19.051  12.029  21.748  0.0735  0.2887 -0.0801
88471W        W31565  21.221  14.507  23.218  0.2873 -0.0887 -0.0370
88472W        W31566  18.015  12.719  23.284 -0.0163 -0.0505 -0.0780
88473W        W31567  18.921   9.375  19.607  0.0848 -0.0310  0.2131
88474W        W31568  18.997  10.534  18.906  0.1994 -0.2530  0.1419
88475W        W31569  20.252  11.565  21.360  0.0134  0.3857  0.0312
88476W        W31570  22.435  13.776  21.466  0.2582 -0.0889  0.5832
88477W        W31571  20.070  12.551  19.667 -0.1222  0.1238 -0.0663
88478W        W31572  22.536  12.048  21.097 -0.0867 -0.2092  0.0793
88479W        W31573  19.133  12.448  21.308 -0.1157  0.0140  0.2507
88480W        W31574  21.338  11.117  19.907 -0.1451 -0.0513 -0.0729
88481W        W31575  19.610  11.350  19.791 -0.0064  0.2252 -0.0455
88482W        W31576  20.927  10.906  22.584  0.0156 -0.2689 -0.1712
88483W        W31577  18.790  11.396  22.480 -0.1000 -0.0429  0.3858
88484W        W31578  22.292  12.440  19.846 -0.2468  0.0067 -0.0414
88485W        W31579  21.519  10.409  20.372  0.0740  0.0468  0.1594
88486W        W31580  21.442  11.032  22.683  0.0182  0.1459  0.0607
88487W        W31581  21.485  12.033  21.536  0.0304  0.3886 -0.0152
88488W        W31582  19.825  11.486  22.753  0.0966 -0.2702 -0.0411
88489W        W31583  19.921  12.790  22.032 -0.0203 -0.3289 -0.1881
88490W        W31584  22.341  14.265  20.574  0.0269  0.0386  0.1380
88491W        W31585  19.845  10.311  18.995 -0.4393 -0.0698 -0.1893
88492W        W31586  22.642  11.753  21.732 -0.0722  0.2565 -0.0006
88493W        W31587  23.042  13.322  21.672  0.2170  0.5122  0.2124
88494W        W31588  19.832  10.372  19.482  0.0369  0.1319  0.1045
88495W        W31589  20.777  12.475  20.437  0.4176  0.3457  0.1177
88496W        W31590  22.154  12.669  23.069 -0.3628 -0.0764 -0.0028
88497W        W31591  18.578  10.658  19.226  0.0200  0.5093  0.1311
88498W        W31592  20.669  12.180  22.218 -0.0354  0.0097 -0.0026
88499W        W31593  19.916  13.050  18.460 -0.2425  0.1184 -0.5792
88500W        W31594  20.800  12.800  21.136  0.0758  0.0778  0.0645
88501W        W31595  21.410  11.638  20.079  0.0657 -0.0006 -0.2152
88502W        W31596  19.115  12.037  20.339 -0.0797 -0.1251 -0.1339
88503W        W31597  18.312  11.563  18.448  0.2022 -0.3918  0.0783
88504W        W31598  19.202  11.426  18.197 -0.0679 -0.0704  0.1489
88505W        W31599  21.478  13.544  19.964 -0.0162 -0.3370 -0.2219
88506W        W31600  22.813  13.833  23.445  0.1793  0.1461 -0.1654
88507W        W31601  20.068  10.367  20.282 -0.0806 -0.0063  0.2875
88508W        W31602  22.262  11.719  22.469  0.1281 -0.0025 -0.0342
88509W        W31603  18.482  12.017  18.687 -0.1180 -0.0445 -0.0993
88510W        W31604  21.092  11.275  21.739 -0.1414  0.2690  0.0132
88511W        W31605  18.904  13.484  19.279  0.1131 -0.0407  0.0051
88512W        W31606  19.253  12.855  20.886 -0.4891 -0.0459 -0.2167
88513W        W31607  19.421  11.819  19.664  0.0765 -0.1393  0.1244
88514W        W31608  20.065  10.919  22.124 -0.1975  0.2122  0.1195
88515W        W31609  22.136  11.350  22.134  0.2724  0.3166  0.1334
88516W        W31610  21.063  11.117  21.277  0.1603 -0.1106 -0.1941
88517W        W31611  23.331  11.750  22.975 -0.1516  0.3687 -0.6264
88518W        W31612  19.854  12.632  22.978  0.3160 -0.0484  0.1852
88519W        W31613  19.981  12.038  21.609  0.2506 -0.1959  0.1547
88520W        W31614  20.252  13.067  21.799 -0.1112 -0.1014  0.0231
88521W        W31615  22.479  12.061  20.636 -0.1981  0.0766  0.1829
88522W        W31616  19.314  12.863  21.406  0.1553  0.0308  0.1797
88523W        W31617  17.843  10.768  24.544  0.0995 -0.1693  0.0696
88524W        W31618  19.978  12.147  23.003 -0.2640  0.0111  0.0952
88525W        W31619  21.726  13.249  19.608  0.0485  0.2922 -0.0790
88526W        W31620  19.033  11.154  20.881 -0.0049  0.3227 -0.1724
88527W        W31621  19.176  12.135  19.360  0.0326  0.2944 -0.2909
88528W        W31622  18.181  13.981  20.617 -0.0866  0.0886  0.0389
88529W        W31623  17.915  12.380  21.650  0.0255 -0.0623  0.0788
88530W        W31624  21.332  13.265  20.385 -0.2877  0.1033 -0.2063
88531W        W31625  21.370  12.191  19.883 -0.1215  0.0175 -0.0642
88532W        W31626  20.298  12.302  20.496  0.2761  0.1701 -0.1336
88533W        W31627  19.223  12.941  19.320 -0.0151  0.0066 -0.2312
88534W        W31628  19.724  12.539  20.091  0.2856  0.1321 -0.0743
88535W        W31629  21.632  13.318  18.248 -0.2284  0.2754  0.1798
88536W        W31630  19.718  13.731  18.831  0.0782  0.1407 -0.0869
88537W        W31631  21.053  14.061  23.067  0.4214 -0.3331  0.0228
88538W        W31632  20.961  11.005  20.695  0.1688  0.0868  0.1759
88539W        W31633  22.543  13.383  20.833 -0.0165  0.0883 -0.0642
88540W        W31634  21.926  10.503  19.966 -0.3169  0.1195 -0.2292
88541W        W31635  20.627  13.841  22.876 -0.1322  0.0507 -0.1155
88542W        W31636  20.570  12.306  20.919  0.0187 -0.0652  0.1378
88543W        W31637  20.410  12.621  18.307 -0.0642  0.0970  0.1970
88544W        W31638  19.650  12.395  21.686  0.0430 -0.0892 -0.0253
88545W        W31639  20.456  11.840  25.960  0.1071 -0.0639 -0.1385
88546W        W31640  18.581  14.547  20.421 -0.0305 -0.1031  0.2871
88547W        W31641  21.824  13.397  19.156 -0.3694 -0.1385 -0.1117
88548W        W31642  18.777  11.616  20.981  0.0713  0.3079 -0.3271
88549W        W31643  19.819  11.102  20.739  0.2659  0.1596  0.1809
88550W        W31644  22.723  10.830  22.769  0.2182  0.0668  0.0931
88551W        W31645  19.909  12.449  19.184  0.2319  0.0070 -0.1266
88552W        W31646  21.243  11.972  20.455  0.2933  0.2099 -0.1525
88553W        W31647  20.070  13.262  18.910  0.0761  0.0565 -0.0091
88554W        W31648  19.745  13.029  19.707 -0.4687  0.2743 -0.0324
88555W        W31649  19.569  10.138  21.750 -0.0071 -0.1835 -0.0519
88556W        W31650  22.000  12.075  20.727 -0.0098 -0.2479 -0.0999
88557W        W31651  20.017  12.341  22.231 -0.1576  0.0850  0.0468
88558W        W31652  23.334  10.764  24.004  0.0056  0.1933 -0.2730
88559W        W31653  20.205  11.807  20.376 -0.1099 -0.0979  0.2444
88560W        W31654  21.722  11.519  21.400 -0.1889 -0.0336  0.0032
88561W        W31655  21.093  12.883  20.683  0.0521  0.1466  0.0890
88562W        W31656  18.161  10.755  21.873 -0.1481 -0.0006  0.2488
88563W        W31657  21.592  11.457  19.643 -0.0080  0.1506 -0.2370
88564W        W31658  22.178  13.173  21.465 -0.1904  0.0822 -0.2354
88565W        W31659  20.460  12.755  20.748 -0.1210  0.0564  0.2522
88566W        W31660  21.957  14.171  20.862 -0.2326  0.2841 -0.1570
88567W        W31661  19.948  11.215  21.524 -0.0767 -0.1530 -0.1042
88568W        W31662  20.506  10.614  18.671  0.1113 -0.1431  0.0876
88569W        W31663  18.399  12.963  20.474  0.2538  0.2784  0.1695
88570W        W31664  20.251  11.919  20.919  0.1552  0.2158 -0.2093
88571W        W31665  20.988  14.251  22.193  0.1898  0.4026  0.1383
88572W        W31666  19.102  10.793  21.218 -0.1066 -0.1278  0.0961
88573W        W31667  22.004  13.705  18.256  0.3423 -0.2259 -0.2596
88574W        W31668  21.686  13.394  22.588  0.0829  0.0518  0.0758
88575W        W31669  20.192  14.606  18.048  0.0584 -0.1225  0.0157
88576W        W31670  21.874  11.843  20.297 -0.1517  0.1139  0.0528
88577W        W31671  21.937  12.710  20.523  0.2071  0.3708  0.1164
88578W        W31672  18.945  11.525  21.677  0.1114  0.0698 -0.1726
88579W        W31673  22.060  13.561  19.972  0.1172 -0.2303  0.2416
88580W        W31674  22.907  14.576  20.973 -0.2446  0.0912  0.2213
88581W        W31675  21.360  10.135  20.752 -0.0459  0.0282 -0.1150
88582W        W31676  20.649  11.964  21.301  0.0442 -0.2727 -0.2898
88583W        W31677  18.650  12.949  17.938 -0.0949  0.2319 -0.0205
88584W        W31678  21.929  12.358  21.217  0.2432  0.1638 -0.0222
88585W        W31679  21.131  11.684  22.241  0.0336 -0.0693  0.0086
88586W        W31680  19.950  13.405  18.081 -0.0798 -0.2064  0.0140
88587W        W31681  22.679  11.976  23.741 -0.1929  0.0989 -0.0448
88588W        W31682  21.172  13.353  20.888 -0.0247  0.1414 -0.1879
88589W        W31683  18.374  13.207  21.404 -0.0682  0.0721  0.1671
88590W        W31684  18.637  12.232  20.282  0.0755 -0.0060 -0.0173
88591W        W31685  20.150  12.476  21.735  0.2434 -0.0331  0.1724
88592W        W31686  21.457  12.425  19.263 -0.0871  0.0769 -0.0389
88593W        W31687  20.050  12.716  18.818  0.3663 -0.1217 -0.2089
88594W        W31688  21.540  12.972  20.048  0.0445 -0.1773 -0.0930
88595W        W31689  20.503  11.704  19.301 -0.1585 -0.0496  0.0322
88596W        W31690  22.644  13.853  20.508 -0.0977  0.1508 -0.0417
88597W        W31691  18.789  12.075  20.751 -0.1426 -0.0657 -0.1850
88598W        W31692  22.186  10.535  20.596 -0.4654 -0.0049 -0.2312
88599W        W31693  20.675  11.465  20.575 -0.0628  0.1177 -0.1884
88600W        W31694  20.453  12.712  22.202 -0.1740 -0.0812 -0.0121
88601W        W31695  17.266  10.184  19.055 -0.1214  0.1318 -0.3297
88602W        W31696  18.923  10.561  19.753 -0.1264  0.0171  0.2068
88603W        W31697  19.398  13.367  20.685 -0.2255 -0.4128 -0.0994
88604W        W31698  21.069  11.233  23.008  0.1121  0.0968 -0.0251
88605W        W31699  19.629  11.918  21.998 -0.2969 -0.1436  0.0731
88606W        W31700  19.321  11.570  21.140 -0.1176  0.0435 -0.1924
88607W        W31701  18.599  10.482  20.168 -0.0207  0.0907  0.0033
88608W        W31702  22.631  13.001  20.036 -0.2680  0.0582  0.1786
88609W        W31703  19.361  10.786  20.805 -0.0728 -0.0614  0.1181
88610W        W31704  17.134  10.813  21.551  0.0397  0.1454  0.0845
88611W        W31705  21.679  12.298  20.378 -0.1421 -0.1255 -0.0363
88612W        W31706  21.753  13.726  19.575  0.0811  0.0508  0.5320
88613W        W31707  20.778  10.778  21.620 -0.1985  0.3065  0.0572
88614W        W31708  21.688  13.543  21.616  0.0274 -0.1007  0.0355
88615W        W31709  19.479  11.854  18.675  0.0669 -0.1911 -0.2770
88616W        W31710  20.967  12.372  23.903  0.0729  0.3321  0.2892
88617W        W31711  20.135  11.156  23.434  0.0577 -0.0557 -0.3895
88618W        W31712  17.829  10.991  19.893 -0.3097 -0.2360  0.0350
88619W        W31713  20.539  10.115  22.933  0.1986  0.0064 -0.2718
88620W        W31714  21.648  12.796  18.385  0.4337  0.0136 -0.3928
88621W        W31715  22.268  14.460  18.253  0.2859  0.1049 -0.1049
88622W        W31716  21.186  12.516  21.292  0.2968 -0.0658 -0.1641
88623W        W31717  19.333  13.713  21.345 -0.1060  0.2855  0.1374
88624W        W31718  17.829  10.862  20.562 -0.1016  0.1239 -0.0937
88625W        W31719  21.463  12.960  19.241  0.0212  0.0188  0.0897
88626W        W31720  20.629  12.525  21.498 -0.0109  0.0845  0.1101
88627W        W31721  22.992  13.628  20.822  0.1055 -0.1905  0.0387
88628W        W31722  22.486  11.509  21.233 -0.0370  0.2686 -0.2491
88629W        W31723  19.390  10.815  19.645 -0.2800 -0.0105  0.0456
88630W        W31724  19.828  10.511  22.036 -0.0118  0.2213 -0.1245
88631W        W31725  18.347  11.473  22.176  0.0160  0.0463 -0.3035
88632W        W31726  20.616  13.367  22.013  0.1450 -0.0427 -0.1731
88633W        W31727  20.314  11.355  21.877  0.0763  0.1819  0.0944
88634W        W31728  20.687  11.132  18.721 -0.2717 -0.0447  0.5185
88635W        W31729  21.949  12.790  19.402 -0.0423 -0.0408  0.0337
88636W        W31730  18.463  10.827  20.536  0.0813 -0.0160  0.1334
88637W        W31731  20.933  10.774  19.816 -0.1744 -0.2446 -0.0138
88638W        W31732  19.687  12.328  22.596 -0.1580 -0.1724  0.0149
88639W        W31733  21.288  13.774  21.022 -0.0693  0.1442  0.0070
88640W        W31734  21.264  13.177  23.766  0.0080 -0.1328  0.1224
88641W        W31735  18.570  11.182  20.100 -0.2038 -0.2813  0.1560
88642W        W31736  21.339  12.113  18.782  0.0972 -0.3020  0.1942
88643W        W31737  21.091  13.290  21.915 -0.1996 -0.0132  0.2146
88644W        W31738  21.666  12.480  22.974  0.2707  0.3184  0.0090
88645W        W31739  20.091  13.236  20.080  0.2951 -0.1074  0.0988
88646W        W31740  22.350  13.047  20.463 -0.0545  0.2841 -0.1578
88647W        W31741  19.072  11.159  22.097 -0.2222  0.0037  0.0294
88648W        W31742  19.537  12.863  20.461 -0.2142 -0.1017 -0.1190
88649W        W31743  19.628  11.734  20.178  0.1572 -0.1732  0.3711
88650W        W31744  22.981  12.985  22.061  0.0922 -0.0581 -0.1187
88651W        W31745  19.630  10.090  24.266 -0.0306 -0.1967 -0.2062
88652W        W31746  19.684  10.535  20.016 -0.3846  0.0413  0.1204
88653W        W31747  19.806  13.737  19.420 -0.0271 -0.1490  0.0084
88654W        W31748  20.757  11.636  23.253  0.2774 -0.2403  0.1973
88655W        W31749  17.949  13.156  26.372 -0.0744  0.1122  0.2261
88656W        W31750  18.188  11.057  25.250 -0.1067 -0.0309 -0.2350
88657W        W31751  21.859  12.968  22.735 -0.2675 -0.1954 -0.0195
88658W        W31752  20.957  12.372  24.411  0.4792  0.3548 -0.1648
88659W        W31753  18.815  11.176  24.724  0.0441  0.1099 -0.1318
88660W        W31754  22.631  11.647  24.714 -0.0582 -0.0636 -0.1674
88661W        W31755  19.738  11.161  27.579 -0.1378 -0.2566 -0.0915
88662W        W31756  20.820  13.968  23.957 -0.0197 -0.0255  0.1452
88663W        W31757  19.351  14.485  24.977  0.2244  0.3112  0.0021
88664W        W31758  19.794  13.220  22.935 -0.2634 -0.0889  0.1947
88665W        W31759  20.384  12.524  26.882 -0.0749 -0.1848  0.2239
88666W        W31760  18.123  13.946  25.700  0.1708 -0.0622 -0.1610
88667W        W31761  19.367  10.729  23.972  0.1192 -0.2835 -0.1326
88668W        W31762  18.174   9.488  25.160  0.2886 -0.1452  0.1514
88669W        W31763  20.320  12.031  25.475 -0.0675 -0.0266 -0.0769
88670W        W31764  18.451  12.128  22.418 -0.0322 -0.0680 -0.2431
88671W        W31765  19.182  11.361  25.645 -0.1046  0.1722 -0.0696
88672W        W31766  19.373  10.933  22.760  0.1679 -0.2613  0.2659
88673W        W31767  21.177  14.942  24.765 -0.0766  0.0222 -0.1339
88674W        W31768  20.176  11.749  27.499  0.4614  0.1977  0.0279
88675W        W31769  20.663  12.276  25.943 -0.0108  0.3053  0.0690
88676W        W31770  19.279  12.830  23.137 -0.0947  0.0384 -0.2229
88677W        W31771  19.562  12.008  23.382 -0.0469  0.0986  0.2644
88678W        W31772  18.693  12.522  25.882 -0.1874 -0.0465 -0.0288
88679W        W31773  19.542  13.166  25.392  0.0427  0.2326  0.0046
88680W        W31774  20.378  13.455  26.781 -0.0577  0.1938 -0.0474
88681W        W31775  20.652  14.254  26.283 -0.1988 -0.0817  0.1089
88682W        W31776  20.329  13.858  24.118  0.1898 -0.2209 -0.1772
88683W        W31777  20.706  14.404  23.174 -0.2087  0.1306  0.1556
88684W        W31778  22.218  13.209  27.111 -0.1588  0.2505 -0.1194
88685W        W31779  18.429  12.123  25.707 -0.0834  0.0945  0.0523
88686W        W31780  18.063  13.996  22.713  0.2013 -0.0887  0.2616
88687W        W31781  21.176  13.500  24.129 -0.3544  0.0414  0.0880
88688W        W31782  22.042  12.446  25.588 -0.2060  0.3928  0.0609
88689W        W31783  21.470  14.590  24.579 -0.0189 -0.0711  0.2405
88690W        W31784  19.814  14.732  26.995  0.0728  0.1025  0.0928
88691W        W31785  18.939  14.444  23.263 -0.2987  0.5410 -0.0781
88692W        W31786  21.046  14.006  25.533 -0.3057  0.1469 -0.1714
88693W        W31787  18.345  12.747  25.521  0.1016 -0.0338 -0.0015
88694W        W31788  20.526  13.061  23.973  0.0996  0.2015 -0.3332
88695W        W31789  19.967  12.466  23.428 -0.0720 -0.5758 -0.0917
88696W        W31790  19.555  14.187  22.618 -0.1400  0.0199  0.3409
88697W        W31791  20.639  11.957  24.680  0.2102 -0.1099 -0.0834
88698W        W31792  17.914  12.553  25.692  0.2907  0.0432  0.0632
88699W        W31793  19.781  14.112  23.323 -0.0367 -0.0342  0.4972
88700W        W31794  22.283  12.391  28.148  0.0624  0.3068  0.2227
88701W        W31795  19.592  13.262  21.151  0.3324 -0.1003  0.3053
88702W        W31796  21.312  12.047  22.552 -0.3631 -0.2385 -0.1398
88703W        W31797  21.820  12.054  22.508  0.0789  0.0195 -0.0184
88704W        W31798  19.946  12.937  23.346 -0.1337  0.0119  0.0077
88705W        W31799  20.356  10.014  24.622 -0.2334  0.1625  0.0235
88706W        W31800  19.252  14.054  25.262 -0.1733  0.0349  0.1223
88707W        W31801  19.714  12.782  25.789  0.0259  0.1636  0.2195
88708W        W31802  21.072  14.769  27.050 -0.2558  0.1709  0.1233
88709W        W31803  19.370  11.395  23.158  0.1638 -0.1707 -0.0667
88710W        W31804  20.996  11.900  27.293  0.2166  0.0250  0.1723
88711W        W31805  18.968  14.025  24.832 -0.0855 -0.2555  0.0159
88712W        W31806  17.651  10.343  25.145  0.1146  0.1424 -0.0771
88713W        W31807  21.713  15.024  21.624  0.4460  0.0310 -0.3686
88714W        W31808  21.391  15.771  24.661 -0.5481  0.1710 -0.1210
88715W        W31809  20.216  14.680  21.758 -0.0985 -0.2174  0.0776
88716W        W31810  18.880  13.080  23.214 -0.2447 -0.3622 -0.2245
88717W        W31811  17.561  11.474  26.248  0.2246  0.1824 -0.2348
88718W        W31812  18.135  12.080  27.405 -0.0348 -0.3413  0.0011
88719W        W31813  19.868  10.949  22.613 -0.0371 -0.1105 -0.1585
88720W        W31814  21.638  13.852  26.978 -0.0536 -0.0675  0.2902
88721W        W31815  19.721  13.529  24.989 -0.1546  0.0070  0.0175
88722W        W31816  22.344  12.048  24.238 -0.0427  0.3812 -0.0138
88723W        W31817  20.354  12.890  25.045  0.0403  0.1168  0.1019
88724W        W31818  21.315  13.817  25.044 -0.0627 -0.1973  0.0648
88725W        W31819  22.483  11.858  23.309  0.2392  0.1793  0.0787
88726W        W31820  21.682  11.424  26.056  0.3215  0.1438 -0.0719
88727W        W31821  20.535  10.990  26.299 -0.2342 -0.1020  0.2584
88728W        W31822  18.392  13.097  22.886 -0.1740  0.0681 -0.4029
88729W        W31823  19.430  13.378  21.769 -0.0182 -0.0773  0.1522
88730W        W31824  20.944  14.956  26.183 -0.2418 -0.0567 -0.0311
88731W        W31825  21.964  12.385  22.104 -0.1593  0.1636 -0.1633
88732W        W31826  19.819  13.655  23.999 -0.0660 -0.0973 -0.0262
88733W        W31827  20.116  12.831  26.553 -0.1165 -0.1511 -0.0401
88734W        W31828  20.606  13.549  27.225  0.1789 -0.1891  0.2606
88735W        W31829  19.047  13.185  25.500  0.0039 -0.1850  0.5997
88736W        W31830  18.368  13.874  21.296 -0.1042  0.0202 -0.0178
88737W        W31831  18.041  10.757  26.071  0.0431  0.1356  0.2553
88738W        W31832  19.998  13.088  23.842 -0.1516  0.1388  0.3366
88739W        W31833  21.918  12.246  24.239 -0.1122  0.3086  0.0712
88740W        W31834  19.760  11.595  26.101 -0.2449 -0.1023 -0.2131
88741W        W31835  22.141  11.782  25.397  0.0042  0.1283 -0.1344
88742W        W31836  20.224  13.391  24.229  0.0065  0.2326  0.0499
88743W        W31837  22.291  14.045  24.578  0.0381  0.0511 -0.0164
88744W        W31838  22.577  12.178  22.561 -0.3076 -0.0325  0.1577
88745W        W31839  21.558  12.950  24.791  0.1699  0.3662  0.0469
88746W        W31840  19.324  13.046  24.068  0.4123  0.0349 -0.1902
88747W        W31841  19.227  12.213  24.496 -0.2424  0.1725  0.1002
88748W        W31842  19.044  11.547  24.943 -0.1260  0.0705  0.1294
88749W        W31843  19.423  11.903  25.303  0.0176 -0.2037  0.0430
88750W        W31844  22.637  11.974  27.817  0.0318 -0.4340  0.0213
88751W        W31845  19.604  12.109  23.840  0.2406  0.0357  0.0228
88752W        W31846  19.338  10.538  24.952  0.0425  0.0316  0.0912
88753W        W31847  19.750  11.144  23.083 -0.1183 -0.0578  0.2232
88754W        W31848  17.553  13.841  21.900  0.0527  0.2778  0.0668
88755W        W31849  21.479  11.974  27.512  0.0829  0.0272 -0.0950
88756W        W31850  20.815  13.872  24.882 -0.0755  0.0010  0.0880
88757W        W31851  21.287  15.321  26.182 -0.0873  0.0790  0.2247
88758W        W31852  20.455  14.143  23.652  0.1710  0.0149 -0.0762
88759W        W31853  19.175  10.633  25.981 -0.1101 -0.0776 -0.1869
88760W        W31854  18.135  11.310  24.764  0.1253  0.0206 -0.0230
88761W        W31855  19.514  15.185  23.311 -0.0849  0.2127  0.0532
88762W        W31856  21.479  13.821  22.733  0.1752  0.1884  0.2039
88763W        W31857  20.235  11.327  22.989 -0.3509 -0.1582 -0.0920
88764W        W31858  22.096  13.747  23.426 -0.1554  0.1659 -0.2074
88765W        W31859  20.587  12.558  24.194 -0.0489  0.1921 -0.0779
88766W        W31860  18.701  13.688  25.668 -0.0602 -0.2337 -0.0388
88767W        W31861  22.000  13.441  27.870  0.0938 -0.0612  0.0216
88768W        W31862  20.746  12.845  25.913 -0.0789 -0.0339  0.0635
88769W        W31863  20.128  12.292  23.971  0.1680  0.2450  0.0300
88770W        W31864  18.827  10.750  21.732  0.2571 -0.4195  0.1501
88771W        W31865  21.953  13.900  24.235  0.3344 -0.0086 -0.1834
88772W        W31866  19.283  13.413  23.119 -0.1393 -0.2601  0.0411
88773W        W31867  20.135  11.850  24.759  0.0221  0.1402 -0.3647
88774W        W31868  21.155  14.258  24.170 -0.1300  0.1661 -0.0853
88775W        W31869  22.040  11.665  26.442 -0.0400  0.1824  0.3765
88776W        W31870  17.811  13.055  25.888  0.1574 -0.0683  0.2515
88777W        W31871  20.090  13.345  26.229  0.0268 -0.1073 -0.1856
88778W        W31872  18.532  11.516  22.935 -0.0834  0.1420  0.1379
88779W        W31873  18.835  12.299  26.278 -0.0337  0.2321 -0.0474
88780W        W31874  20.991  11.995  26.219 -0.4971 -0.3768 -0.1919
88781W        W31875  21.403  12.022  24.306 -0.0123  0.1252 -0.0243
88782W        W31876  19.391  13.660  26.081 -0.3527  0.0957  0.0701
88783W        W31877  20.763  12.658  23.160  0.1143 -0.3014  0.0930
88784W        W31878  21.419  12.527  24.325  0.1632 -0.0036  0.0093
88785W        W31879  20.695  10.466  22.597 -0.1409  0.2181  0.5886
88786W        W31880  18.429  14.390  26.120  0.1192 -0.0861  0.2979
88787W        W31881  20.226  13.705  25.083 -0.4644  0.0785  0.1751
88788W        W31882  19.945  12.727  24.811 -0.3648 -0.3491 -0.1088
88789W        W31883  20.613  11.996  24.089 -0.2371  0.0869  0.1751
88790W        W31884  22.167  14.762  25.409  0.1948 -0.0509 -0.0206
88791W        W31885  18.783  13.272  24.273 -0.0658 -0.1291 -0.0504
88792W        W31886  19.609  15.210  26.380  0.1368  0.1342 -0.0911
88793W        W31887  21.167  13.050  25.566 -0.2469  0.3090  0.2131
88794W        W31888  19.485  11.979  26.402 -0.1340  0.0248  0.2089
88795W        W31889  20.131  12.790  24.292 -0.0272 -0.0789  0.0424
88796W        W31890  20.872  10.742  25.125 -0.2550 -0.0716 -0.3677
88797W        W31891  18.047  13.494  21.789  0.0126  0.1286 -0.1656
88798W        W31892  21.554  10.202  26.351 -0.1262  0.1620 -0.0277
88799W        W31893  21.235  10.610  26.557  0.2025  0.0342  0.0946
88800W        W31894  21.091  11.092  26.438 -0.0897 -0.0453  0.0769
88801W        W31895  22.837  12.310  27.518  0.0974 -0.3983  0.0557
88802W        W31896  22.204  12.171  23.772 -0.1178 -0.1968  0.0247
88803W        W31897  19.184  12.732  25.692  0.2585 -0.2045  0.2613
88804W        W31898  18.803  13.570  22.350  0.0209  0.0497 -0.1354
88805W        W31899  19.627  12.063  27.044  0.0097 -0.3766  0.1985
88806W        W31900  19.027  12.567  24.812 -0.1412 -0.2106 -0.2149
88807W        W31901  18.768  14.232  24.336  0.2287  0.2426 -0.0423
88808W        W31902  21.211  14.939  26.564  0.3614  0.0897  0.0938
88809W        W31903  20.814  13.569  25.668  0.0373 -0.2038  0.1568
88810W        W31904  20.285  11.548  26.257 -0.0481  0.1991 -0.0010
88811W        W31905  21.300  11.652  23.322  0.0657  0.2526  0.1390
88812W        W31906  19.722  14.769  23.415  0.5421 -0.1963  0.1637
88813W        W31907  19.793  13.744  22.972  0.0845  0.1040 -0.1910
88814W        W31908  19.383  10.864  25.575 -0.2165  0.0584  0.0970
88815W        W31909  20.152  14.407  24.111  0.1695 -0.1449  0.2650
88816W        W31910  18.285  12.704  22.570 -0.1834 -0.2486 -0.2345
88817W        W31911  20.555  13.285  26.032  0.0898  0.0380  0.3957
88818W        W31912  19.690  12.652  24.026  0.3290 -0.2661  0.0481
88819W        W31913  22.280  12.374  26.750 -0.1049  0.0418  0.0159
88820W        W31914  19.383  14.280  23.555 -0.4619  0.0384 -0.0914
88821W        W31915  19.119  11.879  23.156  0.1436  0.0883 -0.0660
88822W        W31916  18.393  11.549  23.485 -0.1015 -0.2160  0.1744
88823W        W31917  21.270  11.629  25.816  0.3485 -0.1082 -0.3358
88824W        W31918  21.234  13.602  23.453  0.0815 -0.0029  0.2131
88825W        W31919  17.736  11.183  25.820 -0.3244  0.0279 -0.4872
88826W        W31920  20.632  12.503  26.441 -0.0316  0.1112  0.1638
88827W        W31921  18.928  13.310  23.770  0.2414 -0.1332  0.0501
88828W        W31922  19.823  13.475  26.674 -0.2509 -0.1400 -0.1075
88829W        W31923  21.145  12.011  24.818 -0.0383 -0.1044  0.2075
88830W        W31924  21.443  13.754  24.457 -0.0350  0.1609  0.0688
88831W        W31925  19.302  14.200  26.158  0.0883  0.3272  0.2246
88832W        W31926  19.431  11.187  24.038 -0.1313 -0.0165  0.0867
88833W        W31927  21.228  12.585  26.271  0.0077  0.2216 -0.4029
88834W        W31928  19.897  11.994  25.796 -0.2735  0.0484  0.1191
88835W        W31929  18.875  12.895  22.749  0.0662  0.1773 -0.1239
88836W        W31930  22.099  14.164  26.258 -0.0766  0.2562 -0.1981
88837W        W31931  20.176  13.624  22.428 -0.2485  0.2127  0.1554
88838W        W31932  20.817  13.246  23.294 -0.1498  0.0235 -0.0023
88839W        W31933  21.395  12.504  27.640  0.0626 -0.1610 -0.0048
88840W        W31934  22.234  13.919  26.755  0.1822  0.3925  0.0585
88841W        W31935  19.956  11.825  25.229 -0.2708  0.0916  0.0758
88842W        W31936  19.487  12.634  24.537  0.2266  0.0244  0.2339
88843W        W31937  19.453  11.773  24.540  0.1497 -0.0159 -0.2903
88844W        W31938  20.376  14.695  26.375 -0.0095 -0.0852  0.0091
88845W        W31939  22.251  12.605  27.188 -0.0441 -0.0689  0.1086
88846W        W31940  18.076  14.114  27.022 -0.0392 -0.2325  0.0382
88847W        W31941  20.107  11.334  24.923  0.1164 -0.1268  0.3113
88848W        W31942  23.339  15.986  22.732 -0.2727  0.2159 -0.2341
88849W        W31943  19.503  14.471  26.640  0.1835 -0.1656 -0.1603
88850W        W31944  18.509  12.676  23.132  0.0342  0.1928  0.0844
88851W        W31945  18.463  11.951  26.471 -0.1029  0.1907  0.0032
88852W        W31946  18.471  12.982  23.507 -0.2710  0.2203  0.0952
88853W        W31947  20.651  12.633  24.751 -0.2704  0.1469  0.1432
88854W        W31948  19.866  15.270  23.776  0.1801 -0.2180 -0.0722
88855W        W31949  19.470  12.354  23.079  0.0918  0.0625  0.1177
88856W        W31950  19.475  12.900  24.954 -0.2538 -0.2237 -0.1931
88857W        W31951  21.815  11.658  23.461 -0.0768  0.0621 -0.0152
88858W        W31952  20.278  13.915  23.234  0.0806  0.0688 -0.0777
88859W        W31953  19.381  12.484  25.222 -0.3542 -0.0846 -0.1889
88860W        W31954  21.378  11.111  27.513 -0.0751 -0.0019 -0.2021
88861W        W31955  20.373  12.661  23.674  0.1152 -0.2242 -0.0352
88862W        W31956  21.593  11.909  26.078  0.0585 -0.1956  0.0817
88863W        W31957  19.243  11.112  25.107  0.0014  0.0719 -0.0813
88864W        W31958  21.221  13.829  26.506 -0.0479  0.0421 -0.1623
88865W        W31959  18.424  13.400  24.859  0.1096  0.0872  0.0858
88866W        W31960  20.170  15.233  26.644 -0.0354 -0.0705 -0.0186
88867W        W31961  18.098  13.512  27.628 -0.0160 -0.4197 -0.1748
88868W        W31962  20.301  11.750  22.779  0.2846 -0.0860  0.1612
88869W        W31963  19.007  12.172  23.654  0.1836  0.0731 -0.0352
88870W        W31964  20.262  13.676  23.673 -0.2104  0.0181 -0.1823
88871W        W31965  20.282  14.422  24.560  0.0406  0.2257 -0.3221
88872W        W31966  20.641  11.364  22.718  0.1964 -0.3189  0.1755
88873W        W31967  21.953  12.164  27.091  0.1197  0.2147  0.2344
88874W        W31968  19.940  13.925  24.724  0.1567 -0.0166  0.3360
88875W        W31969  20.216  12.476  26.033  0.0693  0.1077  0.0508
88876W        W31970  21.321  12.479  24.800  0.0512 -0.0990  0.1941
88877W        W31971  19.225  12.483  22.646 -0.0448 -0.0675  0.0411
88878W        W31972  20.057  10.204  26.034  0.1715  0.0264  0.0493
88879W        W31973  21.071  13.162  26.159 -0.0298 -0.1105  0.0574
88880W        W31974  19.771  12.092  24.271 -0.0898 -0.4171  0.0812
88881W        W31975  20.723  10.132  26.843  0.0376  0.0489  0.1249
88882W        W31976  20.999  12.154  26.696 -0.1327 -0.0846  0.0625
88883W        W31977  18.722  12.904  26.278  0.1054 -0.0383  0.1173
88884W        W31978  18.058  11.511  27.232  0.1733 -0.4388  0.1637
88885W        W31979  20.626  15.860  24.976 -0.0659 -0.4272 -0.4072
88886W        W31980  20.687  13.432  22.510  0.2814  0.2245  0.0203
88887W        W31981  19.675  12.624  26.349  0.1626  0.2395 -0.1132
88888W        W31982  20.667  13.369  25.098 -0.0943 -0.1791 -0.1694
88889W        W31983  20.969  11.682  24.501 -0.0582  0.0606  0.1334
88890W        W31984  20.268  12.351  24.479  0.4050 -0.2899 -0.2146
88891W        W31985  20.201  13.896  26.672  0.1185  0.2685 -0.2016
88892W        W31986  20.425  10.922  22.498 -0.1070 -0.2003 -0.1081
88893W        W31987  20.532  12.713  27.321  0.1786 -0.2440 -0.0840
88894W        W31988  19.913  13.360  21.542  0.1329  0.1717  0.1132
88895W        W31989  20.772  13.449  23.746 -0.0397  0.2755  0.1737
88896W        W31990  20.966  12.870  24.104 -0.1417 -0.1200  0.2159
88897W        W31991  18.190  11.952  24.902 -0.3041 -0.0084 -0.0176
88898W        W31992  19.065  13.687  24.506 -0.0985 -0.0122  0.0614
88899W        W31993  18.425  13.193  21.895 -0.0556  0.0817 -0.1846
88900W        W31994  19.142  13.688  22.717 -0.2764 -0.1835  0.1848
88901W        W31995  21.118  14.116  24.656  0.2313 -0.3221  0.0338
88902W        W31996  21.378  13.493  26.833  0.4552  0.1258 -0.0920
88903W        W31997  20.431  11.494  24.596 -0.1354 -0.0111  0.3217
88904W        W31998  22.103  11.729  25.936  0.1821 -0.3332  0.0604
88905W        W31999  18.304  13.622  22.213 -0.1063 -0.0186 -0.0846
88906W        W32000  20.209  11.187  26.755  0.2483  0.2621  0.0151
88907W        W32001  19.190  14.899  26.442 -0.1823  0.0726 -0.0449
88908W        W32002  18.222  13.323  25.653 -0.1349 -0.1925 -0.1426
88909W        W32003  20.228  14.575  23.592  0.2271  0.1015  0.0919
88910W        W32004  19.989  10.649  26.218  0.2708 -0.0885 -0.0459
88911W        W32005  20.464  13.102  25.486 -0.1714 -0.0454 -0.0902
88912W        W32006  20.578  13.873  25.363 -0.1681 -0.1948 -0.0786
88913W        W32007  20.907  12.559  25.541 -0.2852 -0.2297  0.0254
88914W        W32008  20.863  13.493  26.432 -0.4633 -0.0832  0.2748
88915W        W32009  20.021  13.345  25.338  0.2115 -0.2463 -0.0239
88916W        W32010  21.571  13.899  25.997  0.0868  0.4374  0.0026
88917W        W32011  23.205  11.902  23.875 -0.0189  0.0471 -0.0687
88918W        W32012  19.254  14.784  23.566  0.0738 -0.0650 -0.0436
88919W        W32013  17.719  11.977  25.919 -0.1318 -0.0361  0.4636
88920W        W32014  22.011  12.999  27.652  0.0376 -0.1349 -0.0075
88921W        W32015  21.045  13.495  24.668  0.0950  0.1409  0.1534
88922W        W32016  19.601  10.409  23.621 -0.0566 -0.0354 -0.0316
88923W        W32017  21.019  14.460  22.707 -0.2904  0.1265  0.1537
88924W        W32018  17.980  13.307  25.193  0.2058  0.0239  0.0851
88925W        W32019  19.222  13.510  24.969  0.1843  0.1929 -0.0094
88926W        W32020  19.029  14.542  21.282  0.1132 -0.4307  0.6097
88927W        W32021  21.221  15.388  24.434 -0.4645  0.1696  0.0323
88928W        W32022  20.833  12.864  23.604  0.2570 -0.2228  0.0722
88929W        W32023  19.792  14.086  24.280  0.0887  0.0637  0.0789
88930W        W32024  19.443  12.974  22.088 -0.1536  0.3739  0.1415
88931W        W32025  21.259  14.827  24.220 -0.0742  0.0840 -0.1748
88932W        W32026  17.889  13.905  21.139  0.0461 -0.1532  0.1754
88933W        W32027  20.729  13.806  23.374 -0.3153 -0.0688 -0.4164
88934W        W32028  20.133  14.378  23.120 -0.1584 -0.0400 -0.3747
88935W        W32029  20.918  14.569  26.562  0.0238 -0.3706 -0.1835
88936W        W32030  22.774  11.784  24.209 -0.0259  0.0379  0.0742
88937W        W32031  22.426  12.425  25.181 -0.1942  0.0895 -0.0650
88938W        W32032  21.941  11.422  25.026 -0.0053  0.0994  0.0009
88939W        W32033  20.411  16.000  26.065 -0.1313 -0.1128 -0.1760
88940W        W32034  18.070  12.283  24.533 -0.0906 -0.3071  0.0187
88941W        W32035  20.981  11.480  25.040  0.0420 -0.2523  0.0488
88942W        W32036  20.143  13.025  25.835 -0.0914 -0.1948 -0.1809
88943W        W32037  20.732  10.949  26.791  0.0036 -0.2391 -0.0033
88944W        W32038  18.850  14.600  26.248  0.0051  0.0352 -0.1719
88945W        W32039  21.631  14.327  24.151 -0.2840  0.0283 -0.0999
88946W        W32040  18.040  10.028  24.940 -0.1811 -0.1008 -0.0344
88947W        W32041  20.327  12.380  25.042 -0.0268  0.0959  0.0756
88948W        W32042  22.356  10.213  26.303 -0.2817 -0.1742 -0.0950
88949W        W32043  20.282  13.461  20.534 -0.0783  0.0216 -0.1855
88950W        W32044  20.474  11.670  25.112 -0.1363 -0.2656 -0.0121
88951W        W32045  19.000  14.911  23.177  0.0402  0.0378  0.0615
88952W        W32046  19.831  13.798  25.419 -0.0448 -0.0141 -0.1807
88953W        W32047  20.201  15.650  23.477  0.0285  0.1271 -0.4092
88954W        W32048  17.665   9.666  23.600  0.2103 -0.0776 -0.0473
88955W        W32049  22.277  11.668  23.809 -0.1543 -0.0194 -0.0181
88956W        W32050  19.823  12.512  27.141 -0.0191 -0.3601  0.0329
88957W        W32051  22.250  11.788  26.865 -0.2771  0.3007 -0.0136
88958W        W32052  18.861  12.205  24.163  0.0727 -0.1785 -0.0303
88959W        W32053  19.911  12.352  25.359  0.0002 -0.1577 -0.1604
88960W        W32054  20.972  12.624  26.968  0.0673  0.1858  0.2283
88961W        W32055  18.990  12.779  24.395 -0.1307 -0.0334  0.2469
88962W        W32056  20.378  12.372  23.195 -0.0066  0.1136 -0.0969
88963W        W32057  21.677  14.078  26.493  0.2119 -0.2104 -0.1239
88964W        W32058  20.333  12.943  21.253  0.1491  0.2024  0.0211
88965W        W32059  19.898  14.869  26.496  0.3166 -0.1374  0.0641
88966W        W32060  18.716  11.029  25.271 -0.1676 -0.0058 -0.3979
88967W        W32061  19.088  10.443  22.842 -0.0973  0.0709  0.1261
88968W        W32062  18.521  13.189  22.408  0.0853 -0.0824  0.0885
88969W        W32063  19.793  13.435  25.770 -0.0005  0.0784  0.0370
88970W        W32064  21.561  14.862  27.076  0.1046 -0.1202  0.1204
88971W        W32065  19.226  11.891  24.082 -0.2602 -0.3224 -0.1794
88972W        W32066  21.778  12.532  24.654  0.0412 -0.1171  0.3003
88973W        W32067  21.370  13.476  25.455  0.1096  0.2890  0.0070
88974W        W32068  20.427  13.441  21.418  0.0629  0.0181 -0.2701
88975W        W32069  21.365  12.792  25.212  0.0905 -0.1197 -0.2096
88976W        W32070  21.811  14.414  25.293  0.1482 -0.1388 -0.0933
88977W        W32071  17.502  11.639  25.714  0.2261  0.1068 -0.2769
88978W        W32072  22.052  13.204  25.004  0.4131  0.1263 -0.0030
88979W        W32073  21.691  13.099  27.028  0.0728  0.0320  0.0487
88980W        W32074  19.835  11.370  24.471 -0.3248  0.0536  0.3028
88981W        W32075  19.431  12.555  23.586 -0.4152  0.0290  0.3560
88982W        W32076  18.920  13.149  21.997 -0.0938 -0.0371 -0.1129
88983W        W32077  20.855  12.543  22.545 -0.0651 -0.2037  0.1552
88984W        W32078  20.501  11.885  26.565  0.0064 -0.1694 -0.1754
88985W        W32079  19.006  13.330  21.462  0.1774  0.3559 -0.3090
88986W        W32080  21.693   9.780  26.946 -0.4602  0.0789  0.1467
88987W        W32081  20.670  14.072  24.413 -0.2037  0.5240 -0.1381
88988W        W32082  19.315  14.042  24.035 -0.2193  0.2601 -0.2549
88989W        W32083  18.057  13.146  22.434 -0.2918  0.0810 -0.0274
88990W        W32084  20.877  14.539  24.968 -0.1469  0.1036 -0.0043
88991W        W32085  21.243  12.329  23.462  0.0358  0.2394  0.0348
88992W        W32086  20.341  13.381  22.868 -0.1009  0.0714 -0.2190
88993W        W32087  21.572  13.921  23.245  0.1363 -0.0167  0.1134
88994W        W32088  19.209  12.552  24.047  0.1333  0.0329 -0.0296
88995W        W32089  21.413  12.314  25.313  0.1537 -0.0302 -0.0487
88996W        W32090  19.584  11.493  25.027  0.1096 -0.1452  0.1414
88997W        W32091  21.669  11.489  25.539  0.0559  0.0115 -0.1422
88998W        W32092  21.755  12.540  23.492 -0.0592 -0.0975  0.1906
88999W        W32093  19.464  14.020  25.725  0.4611 -0.4991 -0.1661
89000W        W32094  18.909  11.458  23.904 -0.2447  0.0278  0.2961
89001W        W32095  18.397  13.428  20.979  0.1630  0.1272 -0.1557
89002W        W32096  19.608  13.668  24.448  0.2610  0.4646 -0.0566
89003W        W32097  19.837  12.294  26.665  0.4782 -0.1169  0.2605
89004W        W32098  18.331  11.169  25.809 -0.2475  0.1820 -0.0857
89005W        W32099  18.537  13.171  25.272  0.0443  0.1044  0.1066
89006W        W32100  19.632  12.170  24.892 -0.1746 -0.1943 -0.2697
89007W        W32101  22.059  14.436  23.987 -0.2729  0.2638 -0.2765
89008W        W32102  17.910  11.554  25.437 -0.1031  0.4257 -0.1285
89009W        W32103  16.734  10.769  25.846 -0.0734 -0.0332 -0.4066
89010W        W32104  20.659  12.998  26.427  0.0421 -0.3436  0.0515
89011W        W32105  21.058  13.564  22.903 -0.2417  0.2823  0.2676
89012W        W32106  21.948  12.096  23.308 -0.0730  0.3572  0.1499
89013W        W32107  22.457  13.465  26.719 -0.2967  0.2937 -0.1112
89014W        W32108  18.961  12.791  22.311  0.0662  0.1054 -0.0740
89015W        W32109  19.555  13.178  26.367 -0.0778  0.2411  0.2457
89016W        W32110  19.986  11.587  26.740 -0.1811  0.1077 -0.0281
89017W        W32111  18.130  10.849  23.422  0.1422 -0.3629 -0.0233
89018W        W32112  19.942  12.873  25.339  0.3431  0.3699  0.1443
89019W        W32113  21.323  13.893  23.879 -0.1163 -0.0116  0.2630
89020W        W32114  20.158  13.558  21.947  0.0470 -0.1343 -0.1437
89021W        W32115  19.858  14.397  26.160 -0.1409 -0.3074  0.2792
89022W        W32116  19.719  13.994  26.411  0.0735 -0.2087  0.0224
89023W        W32117  19.407  11.884  25.846  0.1313  0.0329  0.0549
89024W        W32118  21.355  12.617  23.853 -0.1012 -0.1507 -0.3035
89025W        W32119  19.466  13.997  24.777 -0.2203 -0.2271 -0.3771
89026W        W32120  21.658  13.570  24.000 -0.0565  0.1269  0.2037
89027W        W32121  21.465  12.366  26.652  0.3405  0.0501 -0.2366
89028W        W32122  19.373  13.196  24.598  0.0987 -0.0992 -0.1631
89029W        W32123  19.120  11.252  26.648  0.1642 -0.2954 -0.1506
89030W        W32124  19.022  12.293  25.542 -0.1842 -0.1988 -0.1569
89031W        W32125  21.568  12.684  25.713  0.2019 -0.0091 -0.2706
89032W        W32126  19.284  11.124  24.526 -0.2422 -0.0732 -0.1423
89033W        W32127  21.748  12.038  24.669 -0.0698  0.0430  0.2258
89034W        W32128  20.843  14.711  24.509 -0.0271  0.0365 -0.2495
89035W        W32129  17.920  10.703  25.487 -0.0503  0.1336 -0.1147
89036W        W32130  21.341  12.824  23.252  0.4331  0.1927  0.6157
89037W        W32131  20.381  13.226  27.575  0.0688 -0.0255  0.1978
89038W        W32132  20.430  14.193  24.969 -0.1221  0.3074  0.3021
89039W        W32133  20.632  14.998  26.769 -0.0061 -0.0150  0.0376
89040W        W32134  19.357  13.108  22.682  0.0222 -0.2397 -0.2137
89041W        W32135  22.917  12.216  24.152  0.1061 -0.0950  0.1004
89042W        W32136  20.643  14.025  25.833 -0.0022  0.2467 -0.1635
89043W        W32137  21.061  15.242  27.860 -0.3419 -0.3217 -0.2059
89044W        W32138  18.896  15.209  24.500  0.0149  0.5187  0.1447
89045W        W32139  20.720  13.411  24.245 -0.1185 -0.0320  0.1319
89046W        W32140  18.527  10.746  26.095  0.0387 -0.2515  0.0766
89047W        W32141  18.558  12.748  22.117 -0.1130 -0.1947 -0.1050
89048W        W32142  19.020  12.864  23.700  0.1639 -0.1773  0.3050
89049W        W32143  20.826  12.010  25.560  0.0277  0.0744 -0.3525
89050W        W32144  19.758  10.608  25.227 -0.3322 -0.0844 -0.0417
89051W        W32145  20.176  11.760  24.273 -0.0666 -0.3325 -0.0074
89052W        W32146  20.110  13.273  24.761 -0.0203 -0.1214 -0.0188
89053W        W32147  20.863  12.855  25.158 -0.1556  0.0363 -0.1149
89054W        W32148  18.776  12.313  29.839  0.1608  0.1074  0.1780
89055W        W32149  18.801  12.904  27.181  0.0807  0.0743  0.1691
89056W        W32150  22.493  13.223  27.568  0.1287  0.4119 -0.0712
89057W        W32151  22.674  14.012  27.355  0.1706  0.0690 -0.0961
89058W        W32152  18.611  11.761  28.267 -0.3121 -0.1469 -0.1920
89059W        W32153  20.460  14.309  28.771  0.1307 -0.2025 -0.0966
89060W        W32154  19.217  10.794  30.824 -0.3060 -0.3910  0.0306
89061W        W32155  19.724  13.222  29.022  0.0457 -0.1466  0.2688
89062W        W32156  21.695  13.190  29.498  0.2182  0.2713  0.2271
89063W        W32157  21.776  12.342  27.910 -0.2776  0.0933 -0.2750
89064W        W32158  19.557  11.393  29.222  0.2788  0.2412  0.0399
89065W        W32159  20.012  14.496  28.622  0.1360  0.2918  0.1059
89066W        W32160  20.140  11.280  27.259 -0.2472  0.1478  0.0383
89067W        W32161  18.274   9.562  29.022  0.1685 -0.1288 -0.2966
89068W        W32162  20.829  12.047  29.374 -0.2673 -0.2134 -0.2516
89069W        W32163  18.780  12.004  26.934  0.1091  0.1496  0.0735
89070W        W32164  19.416  12.876  29.341 -0.0440  0.0475 -0.1816
89071W        W32165  18.787  11.479  26.973  0.1890 -0.1059 -0.0814
89072W        W32166  20.852  13.938  30.032  0.2979  0.1158  0.1338
89073W        W32167  19.841  11.850  30.158 -0.3849 -0.2779  0.0157
89074W        W32168  20.512  12.037  31.909 -0.0160  0.0997 -0.0993
89075W        W32169  20.304  12.816  27.792  0.0600 -0.1472  0.1864
89076W        W32170  18.504  11.458  26.190 -0.1452 -0.0334 -0.0381
89077W        W32171  17.925  14.429  30.164 -0.1066 -0.3528  0.3409
89078W        W32172  19.572  12.582  29.749 -0.1097  0.2417 -0.0981
89079W        W32173  21.730  12.571  29.188  0.1560 -0.0367  0.1152
89080W        W32174  22.942  11.097  29.587 -0.3219 -0.3928 -0.3715
89081W        W32175  19.825  12.575  28.963 -0.1838 -0.1477 -0.0322
89082W        W32176  20.755  13.895  28.471  0.0265  0.1877 -0.0931
89083W        W32177  19.320  12.911  31.481 -0.2482 -0.1767  0.1788
89084W        W32178  19.046  12.588  29.106  0.1529  0.1798 -0.1613
89085W        W32179  17.716  14.410  27.097 -0.2195 -0.0482  0.1590
89086W        W32180  20.619  13.448  27.928  0.0258 -0.2456  0.2732
89087W        W32181  22.058  14.946  27.098 -0.2502  0.2694  0.2824
89088W        W32182  21.397  11.924  30.248  0.2286 -0.0152  0.0864
89089W        W32183  18.776  13.998  28.719  0.0452 -0.1494 -0.1506
89090W        W32184  17.891  14.170  26.115  0.0897 -0.0240 -0.2765
89091W        W32185  20.586  14.142  31.330 -0.0855 -0.3316 -0.0290
89092W        W32186  18.807  13.468  29.098 -0.2012  0.0296  0.3151
89093W        W32187  20.505  12.393  29.157  0.0342 -0.2138  0.0355
89094W        W32188  20.270  13.190  28.753  0.0704  0.0719 -0.3058
89095W        W32189  21.257  14.719  27.512  0.2271  0.0939 -0.2521
89096W        W32190  20.591  12.370  27.876  0.0382 -0.0663 -0.0323
89097W        W32191  19.240  12.116  30.583 -0.2088  0.0419  0.1720
89098W        W32192  16.524  13.083  29.464 -0.2962  0.0304 -0.1288
89099W        W32193  21.428  10.770  30.764 -0.0204 -0.1588  0.2632
89100W        W32194  18.452  14.045  26.643 -0.0394 -0.0909  0.1632
89101W        W32195  21.435  14.381  27.200 -0.1435  0.0430 -0.1197
89102W        W32196  21.131  11.589  26.878 -0.2486  0.0826 -0.0223
89103W        W32197  20.738  13.310  28.426  0.3340 -0.0277  0.1872
89104W        W32198  20.418  10.907  28.317 -0.0293 -0.1780  0.0776
89105W        W32199  18.867  15.336  27.394 -0.0884 -0.1252  0.0892
89106W        W32200  19.246  11.052  29.361 -0.2279 -0.2316  0.1397
89107W        W32201  20.915  12.083  30.226  0.1642  0.0999 -0.0316
89108W        W32202  19.839  13.353  27.645 -0.0187  0.1206  0.1178
89109W        W32203  21.186  12.431  29.881 -0.3304  0.1221  0.0730
89110W        W32204  18.272  13.892  27.981  0.1771  0.1715 -0.0314
89111W        W32205  17.563  12.137  29.217  0.1732  0.2448 -0.1970
89112W        W32206  21.357  15.654  27.215 -0.0769 -0.1144  0.0718
89113W        W32207  23.439  13.220  26.729  0.0853  0.0955  0.3588
89114W        W32208  19.448  14.743  26.013 -0.2204 -0.5432  0.1596
89115W        W32209  18.817  13.037  27.740  0.2291  0.0006  0.1145
89116W        W32210  19.345  12.549  30.828 -0.1512 -0.0832 -0.0112
89117W        W32211  19.150  12.035  29.582  0.0567 -0.1793  0.3077
89118W        W32212  19.320  12.428  26.669 -0.1367  0.1454 -0.0170
89119W        W32213  21.229  13.501  31.114  0.0311 -0.0789 -0.0760
89120W        W32214  18.042  13.999  28.451  0.1078 -0.3200 -0.2408
89121W        W32215  20.977  11.102  29.784  0.0582  0.1939  0.0721
89122W        W32216  21.358  12.259  29.327 -0.0424  0.3178  0.4994
89123W        W32217  20.813  13.924  28.951  0.3521  0.0972 -0.1288
89124W        W32218  21.146  14.091  26.959 -0.0311  0.3330  0.2933
89125W        W32219  19.677  11.329  28.065 -0.1594 -0.0614 -0.0034
89126W        W32220  21.800  11.902  29.806  0.0409 -0.1628 -0.0865
89127W        W32221  19.569  12.927  26.779 -0.1260  0.2413  0.1221
89128W        W32222  19.411  13.881  26.782  0.1523  0.2658 -0.2116
89129W        W32223  21.654  12.887  31.573 -0.0312 -0.2517 -0.3739
89130W        W32224  22.628  12.936  27.181 -0.0447  0.0017 -0.1523
89131W        W32225  19.871  13.620  28.461 -0.1141  0.1180  0.0999
89132W        W32226  19.507  12.389  29.281  0.3063  0.3180  0.2370
89133W        W32227  20.206  12.624  31.315 -0.0321 -0.0101 -0.2119
89134W        W32228  19.115  15.888  24.892  0.1877 -0.0339  0.1636
89135W        W32229  18.642  11.771  28.846 -0.1397  0.1610 -0.0157
89136W        W32230  17.485  14.791  27.239  0.0647  0.3871 -0.1404
89137W        W32231  17.239  11.430  30.794  0.0007 -0.3971  0.3802
89138W        W32232  18.479  12.711  28.554 -0.0961  0.0541  0.1174
89139W        W32233  22.170  12.155  27.615  0.0301  0.0838  0.1574
89140W        W32234  19.706  11.056  29.621 -0.0503 -0.0276  0.1087
89141W        W32235  20.601  10.811  31.085 -0.0889  0.1118 -0.1457
89142W        W32236  18.462  13.333  27.911 -0.0122  0.3521  0.0286
89143W        W32237  22.452  14.288  28.629  0.0643  0.1131  0.3009
89144W        W32238  20.965  13.160  26.808 -0.0950 -0.4044 -0.0103
89145W        W32239  20.873  15.336  26.522  0.0652  0.0500 -0.0781
89146W        W32240  18.233  12.830  29.051 -0.2416 -0.0092  0.1744
89147W        W32241  17.746  13.573  28.596 -0.0138  0.1189 -0.3647
89148W        W32242  18.678  10.499  31.397  0.1642 -0.1740 -0.0848
89149W        W32243  18.099  11.868  29.574 -0.1487 -0.0058  0.0218
89150W        W32244  20.507  11.034  30.052  0.0204  0.0498  0.1989
89151W        W32245  18.977  12.960  28.502  0.1077 -0.3302 -0.2670
89152W        W32246  20.849  12.819  27.715 -0.1116 -0.0014 -0.1552
89153W        W32247  20.207  11.638  28.447 -0.0701  0.3475 -0.1272
89154W        W32248  17.249  12.293  26.040 -0.1565  0.0199 -0.3429
89155W        W32249  20.954  10.916  30.773  0.0113 -0.4434 -0.0553
89156W        W32250  21.439  14.256  27.735 -0.0008 -0.0938  0.2003
89157W        W32251  20.457  12.776  29.483  0.0318  0.0759 -0.2109
89158W        W32252  20.391  13.281  29.233 -0.0152 -0.0608 -0.0704
89159W        W32253  17.782  11.520  29.438 -0.2425  0.0432 -0.3573
89160W        W32254  19.402  12.520  27.697  0.0487  0.1988  0.2733
89161W        W32255  19.299  13.826  28.395 -0.0965  0.3309  0.2911
89162W        W32256  20.080  14.130  29.046  0.0162 -0.0862 -0.0227
89163W        W32257  19.262  12.353  27.227  0.1500 -0.2821 -0.2749
89164W        W32258  22.198  13.375  29.444 -0.0411  0.1898 -0.0518
89165W        W32259  21.259  12.636  29.034  0.0431  0.2057 -0.0417
89166W        W32260  19.722  12.071  29.617 -0.3574 -0.1800  0.1402
89167W        W32261  21.101  10.415  30.537  0.1992  0.0551  0.0648
89168W        W32262  21.830  13.040  29.096  0.1094 -0.0110 -0.0036
89169W        W32263  21.492  13.025  27.680  0.1253  0.1360  0.2613
89170W        W32264  17.952  10.516  28.175 -0.1373 -0.3181  0.1721
89171W        W32265  21.444  12.956  30.479  0.2251  0.1574  0.0703
89172W        W32266  18.693  14.015  27.744 -0.2860  0.0258  0.1133
89173W        W32267  17.616  11.416  28.105  0.1441  0.1827 -0.1246
89174W        W32268  19.569  13.312  27.094  0.1480 -0.1689 -0.3545
89175W        W32269  23.094  11.620  28.328  0.5943 -0.0838 -0.3229
89176W        W32270  18.422  11.583  29.899  0.0646  0.1118  0.1648
89177W        W32271  20.166  11.362  29.886 -0.0800 -0.0711 -0.0119
89178W        W32272  18.480  12.402  27.230 -0.2103  0.4226 -0.1874
89179W        W32273  18.591  12.489  29.332  0.0136  0.1105  0.2566
89180W        W32274  20.808  10.275  29.476 -0.2965 -0.0741  0.0436
89181W        W32275  22.852  10.948  29.065 -0.1281  0.1984 -0.1127
89182W        W32276  20.657  12.736  31.574 -0.0839  0.0147  0.0725
89183W        W32277  21.195  12.898  28.571  0.0513  0.1319  0.1147
89184W        W32278  21.290  13.368  27.278  0.2175  0.1142  0.1977
89185W        W32279  21.414  11.178  28.024 -0.1365 -0.0397 -0.0586
89186W        W32280  18.623  11.438  29.215  0.0854 -0.2090 -0.0151
89187W        W32281  20.881  12.876  29.746  0.2371 -0.2519 -0.1421
89188W        W32282  20.052  12.431  29.406  0.2867  0.3599 -0.1657
89189W        W32283  21.001  11.981  27.811  0.3817 -0.2141 -0.1382
89190W        W32284  22.082  14.381  28.360  0.1574  0.1571  0.0128
89191W        W32285  18.387  14.775  28.203 -0.0609 -0.4201 -0.0959
89192W        W32286  20.192  13.188  31.395  0.0385  0.2620 -0.0152
89193W        W32287  22.920  13.820  29.799  0.0681  0.2576 -0.1078
89194W        W32288  19.320   9.478  29.665  0.1788  0.1166 -0.0614
89195W        W32289  19.562  12.351  25.678  0.1630  0.0803  0.3373
89196W        W32290  21.005  12.440  28.126  0.0455  0.1338 -0.1198
89197W        W32291  17.883  14.009  25.250 -0.0704 -0.0327  0.3393
89198W        W32292  22.507  11.842  29.950  0.2599  0.0672 -0.1013
89199W        W32293  20.204  11.939  29.762  0.1117 -0.0183  0.2341
89200W        W32294  19.503  13.324  28.408 -0.0668 -0.1865  0.2823
89201W        W32295  21.565  11.546  30.736 -0.2953  0.0149  0.0303
89202W        W32296  21.585  13.198  28.163  0.0211 -0.1985 -0.0985
89203W        W32297  21.628  13.454  30.779  0.2552  0.3375  0.1255
89204W        W32298  18.541  12.207  25.216 -0.1930 -0.1902 -0.1251
89205W        W32299  20.810  12.480  28.593  0.5045  0.1993 -0.1198
89206W        W32300  19.295  12.873  27.211  0.2741  0.0736  0.2170
89207W        W32301  19.761  14.269  29.403 -0.0488 -0.2564  0.3474
89208W        W32302  20.849  13.039  30.319 -0.0689  0.1269  0.2002
89209W        W32303  22.628  12.535  28.879 -0.3420 -0.1436 -0.2986
89210W        W32304  20.531  11.529  30.264  0.0892 -0.1685 -0.2735
89211W        W32305  18.681  11.983  27.641 -0.0885  0.0284 -0.2301
89212W        W32306  18.084  15.002  26.534 -0.2526  0.1747  0.0490
89213W        W32307  19.832  12.835  27.546 -0.1703 -0.0760 -0.1580
89214W        W32308  20.579  11.265  29.604 -0.4217  0.0681  0.1857
89215W        W32309  19.889  13.481  29.456 -0.4228 -0.3643 -0.3484
89216W        W32310  19.791  14.419  25.672  0.3265  0.0281  0.0942
89217W        W32311  20.989  11.563  30.111  0.2081  0.2593  0.0801
89218W        W32312  19.420  13.638  28.813 -0.0918 -0.2875  0.1857
89219W        W32313  20.838  11.140  29.197  0.2484 -0.3013 -0.2165
89220W        W32314  18.952  15.346  28.472  0.5190 -0.0164 -0.0803
89221W        W32315  18.650  13.088  25.756 -0.0447  0.1466  0.1892
89222W        W32316  17.568  12.824  28.053 -0.2538 -0.1041  0.4061
89223W        W32317  21.224  11.981  29.761  0.3233  0.0223 -0.2599
89224W        W32318  21.923  13.109  26.511  0.0649 -0.1309 -0.3484
89225W        W32319  19.226  11.624  28.747  0.2078 -0.0108 -0.0262
89226W        W32320  19.531  10.776  27.267 -0.2559 -0.1538  0.0766
89227W        W32321  17.184  13.555  27.299  0.1462 -0.1864 -0.2244
89228W        W32322  19.926  13.442  29.961  0.2006  0.1740  0.1829
89229W        W32323  21.786  12.268  28.406  0.0063  0.1518  0.0225
89230W        W32324  20.685  11.838  29.792  0.2078  0.0279 -0.0700
89231W        W32325  19.988  13.057  30.457 -0.1651 -0.2872  0.1022
89232W        W32326  18.904  14.446  27.292 -0.2178  0.1289 -0.1045
89233W        W32327  21.724  12.026  30.625 -0.0925 -0.2659  0.2704
89234W        W32328  18.259  11.983  27.919 -0.0680 -0.3599 -0.1007
89235W        W32329  17.745  12.961  26.812 -0.2981 -0.1417 -0.1681
89236W        W32330  19.865  13.709  29.021  0.2688 -0.2621 -0.2668
89237W        W32331  20.463  12.998  26.887 -0.2098 -0.0527  0.2262
89238W        W32332  18.188  12.026  26.884 -0.1092  0.0430  0.0584
89239W        W32333  21.045  11.514  29.525  0.1662 -0.1553 -0.3285
89240W        W32334  20.914  12.549  29.378  0.2366  0.1949 -0.0125
89241W        W32335  20.558  11.872  28.761  0.1374 -0.1538 -0.0973
89242W        W32336  19.170  12.101  27.634  0.0551 -0.2106  0.0568
89243W        W32337  19.817  13.045  28.084 -0.2878  0.0222  0.0558
89244W        W32338  21.751  12.757  28.622 -0.2722 -0.1755 -0.1190
89245W        W32339  20.952  12.174  28.934  0.0698 -0.0297  0.0593
89246W        W32340  19.161  14.092  29.195 -0.2443 -0.0595  0.0689
89247W        W32341  21.015  11.187  28.339  0.0607 -0.1269 -0.0393
89248W        W32342  20.909  15.857  27.897 -0.2588  0.0669 -0.0687
89249W        W32343  19.153  12.023  31.122 -0.1801 -0.0807  0.0271
89250W        W32344  19.103  13.342  28.041  0.0780 -0.3553  0.0661
89251W        W32345  18.879  11.588  29.666  0.3521 -0.1998 -0.2257
89252W        W32346  19.306  12.349  26.108 -0.0016  0.1854 -0.0746
89253W        W32347  20.322  11.867  29.300 -0.1053  0.2384  0.3134
89254W        W32348  17.721  13.114  28.906  0.0842 -0.0110  0.1833
89255W        W32349  18.718  14.523  27.868 -0.0534 -0.0075  0.3160
89256W        W32350  17.881  14.590  27.514 -0.1940 -0.0731 -0.2807
89257W        W32351  21.991  11.431  28.582 -0.3410 -0.3370  0.1887
89258W        W32352  21.219  12.888  27.271 -0.1140 -0.0922 -0.0152
89259W        W32353  19.863  11.800  28.099 -0.0353 -0.2347 -0.1485
89260W        W32354  21.907  10.802  31.593  0.1552 -0.0686 -0.0625
89261W        W32355  20.746  13.903  27.615  0.1579 -0.3382 -0.0259
89262W        W32356  21.469  11.995  31.090 -0.2274  0.0379  0.2066
89263W        W32357  19.876  10.476  31.084 -0.0403  0.2324 -0.2675
89264W        W32358  23.036  11.953  28.771 -0.0759  0.0346 -0.1753
89265W        W32359  18.428  10.986  29.850  0.2243 -0.0863  0.0433
89266W        W32360  19.125  13.859  30.141  0.2991  0.4833 -0.0482
89267W        W32361  18.644  11.984  29.468 -0.0867 -0.0433 -0.3746
89268W        W32362  19.726  11.780  28.549  0.3548  0.2937  0.2920
89269W        W32363  20.393  11.845  27.928  0.1148  0.1854 -0.1502
89270W        W32364  20.104  12.696  28.241  0.0908 -0.1281  0.1299
89271W        W32365  23.266  12.561  27.844  0.1783  0.1941 -0.3321
89272W        W32366  18.577  14.475  26.933  0.0347  0.0664 -0.4743
89273W        W32367  21.161  11.640  28.135  0.1386 -0.1674 -0.0058
89274W        W32368  19.369  13.012  27.710 -0.0993  0.1543  0.0362
89275W        W32369  20.945  12.345  27.415 -0.1614 -0.3979  0.2137
89276W        W32370  19.846  12.958  28.603 -0.0266  0.0097 -0.1210
89277W        W32371  18.890  12.162  28.127 -0.1289  0.5562  0.0166
89278W        W32372  18.253  11.507  30.831  0.0316 -0.1955 -0.0164
89279W        W32373  22.270  12.848  29.358 -0.0952 -0.0541  0.2890
89280W        W32374  21.276  11.189  30.509  0.0348  0.0269  0.0679
89281W        W32375  21.345  12.410  28.613 -0.0822 -0.2169 -0.2144
89282W        W32376  21.210  12.098   0.520  0.1638  0.2400  0.1701
89283W        W32377  18.943  10.917  30.045  0.0395  0.2244 -0.2453
89284W        W32378  18.572   9.931  29.701  0.0759 -0.0861  0.1455
89285W        W32379  20.444  13.746  29.307 -0.0485 -0.4085  0.2209
89286W        W32380  21.585  13.358  28.639  0.0196 -0.1887 -0.1893
89287W        W32381  21.930  10.397  30.414  0.3519 -0.0127  0.2404
89288W        W32382  22.325  13.950  28.229  0.2916 -0.0467  0.0778
89289W        W32383  20.715  13.896  26.708 -0.2555 -0.1064 -0.2785
89290W        W32384  18.896  10.704  29.147  0.2216 -0.4533 -0.0550
89291W        W32385  21.448  11.863  31.731 -0.1088  0.0199 -0.2107
89292W        W32386  17.682  11.226  27.307 -0.0247  0.1229  0.0470
89293W        W32387  20.003  11.037  30.770 -0.3482 -0.0050 -0.2376
89294W        W32388  19.029  13.914  27.371  0.2499 -0.1102 -0.0474
89295W        W32389  22.125  12.491  28.744  0.1323 -0.2673 -0.0148
89296W        W32390  20.126  12.389  27.498  0.2898 -0.1182 -0.2278
89297W        W32391  17.606  11.312  29.002 -0.2796  0.0047  0.1161
89298W        W32392  18.373  13.429  29.349  0.1263  0.1142 -0.0797
89299W        W32393  19.218  11.503  26.133 -0.0972 -0.1271 -0.2645
89300W        W32394  20.093  13.456  27.203 -0.1096  0.0277  0.0507
89301W        W32395  19.672  12.677  30.238  0.0749  0.0532  0.1161
89302W        W32396  22.289  12.364  29.207 -0.0911 -0.0199  0.2325
89303W        W32397  20.436  11.606  26.996  0.1572 -0.3129 -0.0955
89304W        W32398  21.839  11.623  30.321  0.2169 -0.2986 -0.0906
89305W        W32399  18.367  15.105  24.653  0.1309  0.0612 -0.0904
89306W        W32400  19.083  11.697  27.405 -0.1924  0.1531 -0.0984
89307W        W32401  18.619  13.919  29.262 -0.2012  0.0585 -0.2642
89308W        W32402  18.698  12.958  28.976  0.0936 -0.1270  0.1617
89309W        W32403  18.974  13.845  29.611  0.3174  0.1490 -0.0745
89310W        W32404  21.582  10.718  29.597  0.2413  0.1409  0.1357
89311W        W32405  21.099  13.122  28.056 -0.1172 -0.1356  0.3450
89312W        W32406  21.659  12.160  28.904  0.0175  0.1155  0.0512
89313W        W32407  21.300  12.993  29.999 -0.0060 -0.0219 -0.0352
89314W        W32408  20.461  13.697  29.853  0.4983  0.0919  0.1340
89315W        W32409  19.034  12.692  28.014  0.1630  0.3744  0.0942
89316W        W32410  20.647  15.334  30.294  0.2386  0.3178  0.0166
89317W        W32411  22.129  13.963  28.725 -0.1714 -0.4080  0.0332
89318W        W32412  18.340  13.871  26.153  0.1440 -0.0978 -0.0812
89319W        W32413  17.292   9.939  29.253  0.1424 -0.0812  0.0536
89320W        W32414  19.402  12.766  28.745  0.0545 -0.1219  0.0848
89321W        W32415  22.527  13.054  30.247  0.0445 -0.0121  0.1426
89322W        W32416  19.142  10.041  28.344 -0.1403  0.1280  0.0160
89323W        W32417  19.741  14.163  27.563  0.0059  0.1519  0.1783
89324W        W32418  18.325  12.825  30.506  0.0692 -0.3170 -0.1220
89325W        W32419  18.926  13.166  29.504 -0.1250  0.2451  0.0762
89326W        W32420  18.138  14.405  26.523 -0.1310 -0.0880 -0.0088
89327W        W32421  22.210  13.946  27.722 -0.4449 -0.1568  0.0441
89328W        W32422  20.995  13.813  28.057  0.2992 -0.1676  0.0470
89329W        W32423  19.300  14.529  29.394 -0.1809  0.0339  0.0627
89330W        W32424  19.913  12.283  28.501  0.0694 -0.2783 -0.1669
89331W        W32425  18.472  13.187  28.370  0.1146  0.0048  0.0828
89332W        W32426  17.402  14.026  25.342 -0.2018 -0.1336 -0.2095
89333W        W32427  20.286  14.942  27.190 -0.5462 -0.1442  0.0574
89334W        W32428  18.667  14.890  27.225 -0.3995 -0.0145 -0.2792
89335W        W32429  21.587  13.508  29.102 -0.2644  0.0491 -0.1012
89336W        W32430  22.432  12.697  27.658  0.0642  0.2064 -0.0341
89337W        W32431  22.531  12.022  28.862 -0.0170 -0.2072  0.1584
89338W        W32432  22.037  10.773  29.445 -0.3661  0.1512  0.1102
89339W        W32433  20.277  13.723  28.781 -0.2042 -0.0548 -0.0349
89340W        W32434  20.100  12.183  28.979  0.1088 -0.0838  0.2657
89341W        W32435  19.895  12.348  27.929 -0.0164  0.0081 -0.0962
89342W        W32436  18.773  11.871  30.290 -0.3366 -0.0296 -0.0426
89343W        W32437  20.679  10.462  30.708  0.5018  0.0809  0.0050
89344W        W32438  17.900  12.147  30.315 -0.2388 -0.3098  0.0989
89345W        W32439  21.041  15.246  26.963  0.0983  0.1572  0.0465
89346W        W32440  18.762   9.892  27.911 -0.2635 -0.3929  0.2601
89347W        W32441  19.763  13.782  27.921  0.1850 -0.1143 -0.2268
89348W        W32442  22.550  10.793  29.455  0.0325 -0.2055 -0.0067
89349W        W32443  19.302  13.169  25.884 -0.1242 -0.0346  0.0655
89350W        W32444  20.381  12.199  28.393 -0.2594 -0.1470  0.1008
89351W        W32445  20.297  13.764  27.623  0.1562  0.1446 -0.0108
89352W        W32446  19.404  13.603  27.532 -0.4687  0.3196 -0.0039
89353W        W32447  20.926  13.223  29.408  0.1655  0.1656 -0.0125
89354W        W32448  17.480  10.739  28.139 -0.2074  0.1204 -0.1014
89355W        W32449  22.533  11.609  28.478  0.5746 -0.2880 -0.0473
89356W        W32450  20.015  12.864  29.918  0.2715 -0.1304 -0.1170
89357W        W32451  21.502  11.647  29.455 -0.2690  0.2129  0.3389
89358W        W32452  18.495  10.967  29.009  0.2419  0.0691 -0.2353
89359W        W32453  21.228  10.854  28.798 -0.0365 -0.0120 -0.3526
89360W        W32454  19.664  13.130  29.719 -0.1739 -0.0521  0.0868
89361W        W32455  17.886  12.999  29.387  0.2430  0.0804 -0.0883
89362W        W32456  20.007  12.987  27.091  0.1768 -0.2147 -0.0356
89363W        W32457  22.352  11.920  29.487  0.0111 -0.2199  0.0632
89364W        W32458  19.025  12.931  26.684 -0.1359 -0.2113 -0.0923
89365W        W32459  20.475  12.994  30.650 -0.0019  0.5562  0.1843
89366W        W32460  19.438  10.792  30.020  0.1051  0.0133 -0.0633
89367W        W32461  20.894  13.285  27.555  0.0978 -0.0459 -0.0800
89368W        W32462  18.514  12.415  27.884  0.0565 -0.3746 -0.1209
89369W        W32463  19.442  12.180  28.752  0.0629  0.0759 -0.2166
89370W        W32464  21.773  12.863  30.031  0.0603 -0.0278 -0.2666
89371W        W32465  18.612  12.347  28.865  0.2970  0.1790 -0.1548
89372W        W32466  22.389  13.529  28.503 -0.2391  0.1623 -0.1278
89373W        W32467  22.015  13.218  28.422  0.1735 -0.1216  0.0737
89374W        W32468  17.933  14.960  25.539 -0.1097  0.1124 -0.0679
89375W        W32469  22.437  13.009  28.030  0.1460  0.0116  0.1704
89376W        W32470  20.738  13.392  28.918  0.0054 -0.2488 -0.0160
89377W        W32471  19.584  11.260  28.741 -0.3379 -0.0381  0.0303
89378W        W32472  22.062  13.469  28.866 -0.1547 -0.0736 -0.0545
89379W        W32473  21.327  12.840  29.523  0.2501 -0.1018 -0.3754
89380W        W32474  20.649  12.857  28.235 -0.1290 -0.1540 -0.1083
89381W        W32475  18.771  13.668  28.156  0.3637 -0.1367 -0.2711
89382W        W32476  18.201  14.008  27.502  0.1663  0.3580  0.0214
89383W        W32477  20.559  12.095  27.351  0.1752 -0.2728  0.2373
89384W        W32478  22.433  12.716  29.827  0.0212 -0.4000 -0.3437
89385W        W32479  20.181  14.116  25.541  0.1965 -0.3147 -0.1815
89386W        W32480  21.293  11.220  31.087 -0.0810  0.1400 -0.0220
89387W        W32481  20.178  12.603  30.325 -0.2294 -0.4147 -0.0777
89388W        W32482  18.882  13.878  30.673  0.2032  0.0233 -0.0927
89389W        W32483  19.113  10.686  27.478 -0.3252  0.4013  0.1736
89390W        W32484  20.357  12.686  28.726 -0.2467  0.1559 -0.4612
89391W        W32485  17.679  13.674  27.251 -0.1148 -0.1266 -0.1149
89392W        W32486  20.225  13.278  28.220  0.4230 -0.0782 -0.0342
89393W        W32487  21.642  14.077  29.355  0.2827 -0.3548 -0.3815
89394W        W32488  20.818  11.983  28.256 -0.1783  0.0344  0.0924
89395W        W32489  21.700  13.843  27.873 -0.1508  0.2196  0.2799
89396W        W32490  18.409  12.187  28.371 -0.2098 -0.0125 -0.4372
89397W        W32491  21.696  11.531  28.954  0.0836 -0.2490  0.4077
89398W        W32492  22.260  10.681  28.123  0.1482 -0.1554  0.4082
89399W        W32493  18.577  14.029  27.188 -0.0142  0.1802  0.1122
89400W        W32494  18.007  12.460  27.780 -0.0499  0.1668  0.0321
89401W        W32495  17.691  14.139  26.636 -0.2836 -0.2346 -0.3520
89402W        W32496  17.907  11.918  28.979  0.1677  0.0576 -0.0431
89403W        W32497  19.356  10.231  30.875 -0.1569  0.1332  0.0488
89404W        W32498  19.769   9.652  30.398 -0.2362 -0.1125 -0.1439
89405W        W32499  18.092  12.372  28.763 -0.2641  0.0049 -0.3162
89406W        W32500  19.523  11.696  27.713  0.2056 -0.0438 -0.0519
89407W        W32501  22.571  13.576  27.208 -0.0429  0.1139 -0.3827
89408W        W32502  19.003  11.990  28.586 -0.0096  0.0215  0.1073
89409W        W32503  18.769  10.926  28.587  0.1453 -0.2195  0.5113
89410W        W32504  21.422  13.849  28.318 -0.2964  0.0639 -0.3451
89411W        W32505  21.818  15.636  27.377  0.2061 -0.0304 -0.1399
89412W        W32506  20.233  11.385  27.905 -0.0367  0.2439 -0.0179
89413W        W32507  19.994  12.600  30.806  0.4903  0.1420 -0.0672
89414W        W32508  17.463  13.089  25.419 -0.0891 -0.0003  0.3775
89415W        W32509  20.959  11.171  31.975  0.3046 -0.0257  0.4623
89416W        W32510  21.647  11.921   0.255  0.0877  0.0234 -0.0341
89417W        W32511  17.973   9.900  28.271  0.1492 -0.1816  0.3009
89418W        W32512  19.495  12.662  28.268 -0.1141  0.2228 -0.0106
89419W        W32513  20.349  13.735  28.175  0.0664  0.3099 -0.0010
89420W        W32514  21.883  14.303  26.990 -0.1098 -0.1763  0.1062
89421W        W32515  20.600  12.386  29.880  0.0059  0.0739  0.0792
89422W        W32516  19.530  13.826  29.374  0.1819 -0.3528  0.1540
89423W        W32517  18.220  10.084  29.423  0.0301 -0.1342  0.0719
89424W        W32518  20.759  15.011  27.309  0.1833 -0.1990 -0.0284
89425W        W32519  19.686  12.769  31.144 -0.0179 -0.0237  0.0597
89426W        W32520  21.058  14.302  28.084  0.0752 -0.0013 -0.2188
89427W        W32521  21.894  11.190  31.292 -0.2748 -0.1663  0.1253
89428W        W32522  21.385  12.088  28.150 -0.1887 -0.4320 -0.0439
89429W        W32523  19.449   9.731  30.748 -0.2832 -0.1325 -0.3422
89430W        W32524  17.531  12.196  30.647 -0.1545  0.2723 -0.0502
89431W        W32525  22.591  13.659  29.328  0.0053 -0.0132 -0.1395
89432W        W32526  19.964  11.529  29.495  0.0072  0.2253 -0.1746
89433W        W32527  20.602  11.276  28.706  0.0093  0.1996  0.1741
89434W        W32528  22.086  14.383  27.455 -0.3930  0.2867 -0.1068
89435W        W32529  17.727  13.375  29.821  0.0744  0.1915 -0.0132
89436W        W32530  18.494  11.770  27.250 -0.4040 -0.0521 -0.0070
89437W        W32531  21.496  11.557  31.343 -0.5316 -0.0219 -0.3738
89438W        W32532  19.439  12.131  28.112  0.2411 -0.3855  0.0033
89439W        W32533  22.066  13.381   0.394  0.0792 -0.1226  0.1849
89440W        W32534  19.062  12.485  28.499  0.0382 -0.2956  0.0036
89441W        W32535  23.130  14.798  26.632 -0.1798  0.2286  0.0379
89442W        W32536  21.183  14.545  30.025  0.2044 -0.0617  0.0125
89443W        W32537  19.857  14.209  30.131 -0.1135  0.0373 -0.1893
89444W        W32538  20.018  12.972  29.305 -0.1684 -0.0213 -0.1948
89445W        W32539  22.954  12.043  29.320 -0.1761  0.0091 -0.1624
89446W        W32540  20.748  11.749  31.114 -0.1375  0.0122  0.0702
89447W        W32541  18.650  13.508  26.771 -0.3380  0.2470 -0.2048
89448W        W32542  18.892  12.524  27.516  0.0724  0.0145 -0.0398
89449W        W32543  21.614  12.494  29.692 -0.0950  0.1457 -0.0658
89450W        W32544  20.074  11.704  28.919  0.1296  0.0273 -0.0205
89451W        W32545  22.134  11.397  29.409 -0.0878  0.1994 -0.2221
89452W        W32546  20.194  14.091  28.403 -0.2382  0.1738 -0.2260
89453W        W32547  20.942  13.450  29.942 -0.1957 -0.1085 -0.4672
89454W        W32548  22.023  10.606   0.999  0.3011 -0.0480 -0.0821
89455W        W32549  20.914  12.508  31.281 -0.0738 -0.1243  0.2082
89456W        W32550  18.693  12.661  31.363 -0.2010 -0.0631  0.0290
89457W        W32551  18.838  11.413  30.179  0.0752 -0.0276 -0.2709
89458W        W32552  20.501  12.876  30.054  0.2042  0.0097  0.2001
89459W        W32553  20.637  12.462  30.407  0.0276  0.4239  0.0351
89460W        W32554  21.700  13.480   0.757  0.0930 -0.0851  0.2256
89461W        W32555  19.546  11.714  30.549  0.0043 -0.2047  0.1441
89462W        W32556  21.301  13.259  31.709  0.0603  0.0408 -0.0202
89463W        W32557  22.014  13.648  30.335 -0.0041  0.1175 -0.1211
89464W        W32558  18.579  14.477  28.985 -0.3455  0.1557 -0.0824
89465W        W32559  17.966  10.641  31.059 -0.1250 -0.0523 -0.3217
89466W        W32560  20.403  12.073  30.224 -0.1473  0.0614  0.2686
89467W        W32561  18.729  11.494  30.659 -0.1434 -0.2018  0.3837
89468W        W32562  20.174  12.081  30.704  0.0764 -0.0336  0.0307
89469W        W32563  18.592  12.936  30.946  0.5036 -0.3882 -0.0870
89470W        W32564  18.319  11.292  30.332  0.1902 -0.0915  0.1891
89471W        W32565  20.585  11.852  30.670 -0.1062 -0.0461  0.1921
89472W        W32566  17.514  10.552  31.385  0.1860  0.3581 -0.0336
89473W        W32567  18.985  10.501  29.572  0.0446  0.0891 -0.0702
89474W        W32568  19.024  11.533  31.411 -0.4810  0.0847  0.0167
89475W        W32569  18.934  13.314  30.269  0.0483  0.1339 -0.1023
89476W        W32570  22.063  11.102   1.040  0.0929  0.0528  0.0009
89477W        W32571  21.861  12.559  30.578 -0.0137  0.2478  0.0204
89478W        W32572  21.712  12.125   0.767  0.0544  0.0141 -0.2113
89479W        W32573  20.640  11.552  31.912 -0.3137 -0.0587 -0.1946
89480W        W32574  19.257  11.249  29.824  0.1377  0.0027  0.3052
89481W        W32575  19.002  14.368  29.942 -0.0781  0.2140 -0.0648
89482W        W32576  18.559  11.433  31.658  0.0064  0.0520  0.1713
89483W        W32577  18.165  12.372  31.708  0.0815 -0.0999  0.0132
89484W        W32578  18.687  12.823  29.989 -0.1676 -0.2807 -0.2069
89485W        W32579  19.090  12.965  30.980  0.3216  0.0241 -0.2027
89486W        W32580  20.212  12.518  31.864 -0.0968 -0.0424 -0.1390
89487W        W32581  22.118  13.179   1.006 -0.1988  0.3680  0.1292
89488W        W32582  17.627  11.012  31.314  0.0428  0.2509  0.3352
89489W        W32583  19.271  14.769  30.155 -0.0588  0.0155 -0.2361
89490W        W32584  19.246  11.687  30.188  0.1270 -0.0560  0.0033
89491W        W32585  20.040  12.336  29.931 -0.2382 -0.1343 -0.0076
89492W        W32586  20.650  12.650   0.119  0.1050  0.2254  0.0301
89493W        W32587  19.770  13.405  31.532  0.0876 -0.0392  0.1625
89494W        W32588  21.005  12.241  31.688  0.1104 -0.1019  0.0991
89495W        W32589  20.994  11.780  31.542  0.0097 -0.3451 -0.1622
89496W        W32590  19.512  11.584  31.199  0.1188  0.0256 -0.0602
89497W        W32591  19.574  15.029  30.504  0.2403  0.0696 -0.0886
89498W        W32592  19.768  12.240  30.449  0.0171  0.1461  0.0733
89499W        W32593  20.622  12.973  31.169 -0.1193 -0.0891  0.3762
89500W        W32594  18.820   9.434  31.325 -0.0687  0.1326 -0.1615
89501W        W32595  21.663  12.282  30.151  0.1692 -0.3577 -0.2949
89502W        W32596  19.704  12.468  31.484 -0.1044 -0.4295  0.0352
89503W        W32597  18.639  13.388  29.861  0.0916 -0.0154 -0.0152
89504W        W32598  21.130  14.311  31.584  0.0844 -0.1349 -0.0385
89505W        W32599  21.920  11.659  31.107 -0.0151  0.2412 -0.2608
89506W        W32600  20.571   9.828  31.382 -0.0213 -0.0210  0.2540
89507W        W32601  20.114  13.676  31.293 -0.2973 -0.0907 -0.0443
89508W        W32602  19.506  12.717   0.185  0.4004 -0.1341 -0.0485
89509W        W32603  22.125  12.308  29.740  0.4180 -0.0277 -0.1472
89510W        W32604  21.200  13.622   0.027  0.0374  0.0661  0.2146
89511W        W32605  19.470  15.094  29.151 -0.1696  0.1903 -0.1524
89512W        W32606  18.518  13.988  29.831 -0.0930  0.1141 -0.2730
89513W        W32607  17.805  11.295  30.408 -0.2042  0.0690  0.0007
89514W        W32608  18.577  10.803  31.031  0.1959 -0.0058  0.5194
89515W        W32609  19.159  13.169  28.910 -0.1398  0.1168  0.1131
89516W        W32610  17.434  13.094  31.600 -0.0687  0.0784  0.3743
89517W        W32611  18.035  10.279   0.188  0.1095 -0.0512  0.0690
89518W        W32612  21.169  12.752  31.668 -0.2704 -0.0876  0.0217
89519W        W32613  21.715  13.807   0.147  0.4205 -0.0068 -0.0060
89520W        W32614  21.842  12.615   0.798  0.1669 -0.0815 -0.1977
89521W        W32615  20.233  17.486  16.700  0.1585 -0.0434  0.5892
89522W        W32616  18.515  16.138  15.666  0.0274  0.0836  0.0115
89523W        W32617  21.808  16.303  14.564 -0.0825 -0.1340 -0.2925
89524W        W32618  21.242  16.449  15.226 -0.0557  0.2822  0.1731
89525W        W32619  18.028  16.040  15.826  0.1135 -0.1053 -0.0913
89526W        W32620  21.497  18.825  14.854 -0.0041 -0.0713  0.1704
89527W        W32621  19.909  13.099  16.709  0.0789 -0.4982 -0.1435
89528W        W32622  20.630  17.424  16.282  0.2328  0.1401  0.0142
89529W        W32623  22.104  18.139  15.506 -0.0166  0.3014  0.1125
89530W        W32624  20.245  17.710  14.657 -0.3248  0.0642  0.2651
89531W        W32625  20.985  15.368  16.342  0.1312 -0.2366 -0.1143
89532W        W32626  20.723  17.426  16.809 -0.3737  0.0949  0.0152
89533W        W32627  20.069  15.594  15.413 -0.0132  0.2283  0.1270
89534W        W32628  17.363  13.789  16.757  0.0712  0.1087 -0.3095
89535W        W32629  21.339  17.227  15.966  0.2136 -0.0443  0.1800
89536W        W32630  18.263  16.326  16.754  0.0746  0.0104 -0.0820
89537W        W32631  20.325  14.680  16.229  0.1531  0.1050 -0.0038
89538W        W32632  20.733  14.145  15.025 -0.0611  0.0181 -0.1610
89539W        W32633  22.057  18.331  16.774 -0.1982 -0.0841 -0.1863
89540W        W32634  19.946  14.675  15.900 -0.0861  0.1925 -0.2362
89541W        W32635  20.597  14.162  17.326  0.1502 -0.0601 -0.1802
89542W        W32636  19.629  20.022  15.800 -0.3202 -0.0330  0.0536
89543W        W32637  19.210  16.928  14.531  0.1759  0.1666  0.0582
89544W        W32638  17.995  15.828  16.621 -0.0589  0.0925 -0.0387
89545W        W32639  20.112  15.126  16.271  0.0462 -0.1001 -0.2542
89546W        W32640  21.896  15.262  16.543  0.0047 -0.0123 -0.0539
89547W        W32641  21.094  15.858  16.061 -0.2025 -0.0741  0.0294
89548W        W32642  20.400  19.208  16.924  0.0351 -0.3956 -0.0759
89549W        W32643  19.713  18.633  15.321 -0.1829 -0.0059 -0.1464
89550W        W32644  22.418  14.906  17.026  0.2338 -0.3831 -0.0824
89551W        W32645  18.046  16.855  16.328 -0.3987  0.1328 -0.0210
89552W        W32646  18.516  18.229  15.705 -0.1257  0.5056 -0.2074
89553W        W32647  20.036  17.681  15.106 -0.2552  0.1595 -0.2827
89554W        W32648  22.072  17.842  14.555 -0.0772  0.1667  0.1938
89555W        W32649  22.433  18.693  17.163  0.0746 -0.1530 -0.0295
89556W        W32650  19.906  18.809  16.832 -0.0657  0.2313  0.1774
89557W        W32651  17.484  18.223  15.702  0.0088  0.3279  0.2090
89558W        W32652  21.091  19.837  16.936  0.1014  0.4569  0.0662
89559W        W32653  20.601  18.202  16.804 -0.2529 -0.0259 -0.0123
89560W        W32654  20.496  14.574  16.733  0.1362 -0.4063  0.2374
89561W        W32655  20.987  17.614  15.903 -0.0659 -0.1955 -0.1361
89562W        W32656  18.762  18.811  15.032 -0.0001  0.0552 -0.3167
89563W        W32657  20.387  17.964  15.374 -0.0865  0.2181  0.0616
89564W        W32658  20.531  16.437  16.505  0.2788 -0.4613 -0.0520
89565W        W32659  18.996  18.970  15.819  0.3855  0.0265  0.0513
89566W        W32660  22.491  15.470  17.981 -0.0604  0.2491 -0.1546
89567W        W32661  19.268  17.648  15.628 -0.1358  0.4054  0.3227
89568W        W32662  21.005  15.520  15.268 -0.2363  0.2111 -0.0094
89569W        W32663  21.256  13.273  15.298  0.1665 -0.0654 -0.3215
89570W        W32664  20.880  15.921  15.591 -0.2181 -0.2840 -0.0925
89571W        W32665  18.736  13.542  16.808 -0.1333 -0.1054  0.1268
89572W        W32666  18.351  19.343  16.918 -0.1193  0.2733 -0.1348
89573W        W32667  19.514  14.514  16.609 -0.1275 -0.2409 -0.0167
89574W        W32668  22.474  17.636  16.569  0.0951  0.0859 -0.0660
89575W        W32669  20.511  16.709  14.663 -0.1014  0.2718 -0.0527
89576W        W32670  20.041  16.387  15.727  0.0670  0.1428 -0.2976
89577W        W32671  19.868  17.538  16.963  0.0499  0.0431  0.0121
89578W        W32672  17.287  15.172  15.435 -0.0967 -0.2618  0.3355
89579W        W32673  19.913  18.154  15.330 -0.2634  0.1768  0.2151
89580W        W32674  21.847  17.376  15.996 -0.2355  0.2400 -0.0307
89581W        W32675  20.751  17.764  14.498 -0.0365  0.0099  0.2252
89582W        W32676  18.459  17.383  15.181 -0.4896  0.2436  0.1990
89583W        W32677  19.026  16.689  16.680  0.0311 -0.1392  0.3530
89584W        W32678  19.027  15.980  17.147  0.1697  0.1632 -0.3474
89585W        W32679  19.148  14.784  15.615  0.0017 -0.2113  0.2435
89586W        W32680  22.676  17.278  17.613 -0.4582 -0.2025  0.3748
89587W        W32681  18.400  18.600  16.857  0.1190  0.1502  0.0824
89588W        W32682  23.161  15.186  16.502 -0.1139  0.1343 -0.4329
89589W        W32683  20.208  16.690  16.041  0.1201 -0.4200 -0.1460
89590W        W32684  21.652  17.134  16.407  0.0056 -0.1776 -0.0496
89591W        W32685  21.123  17.135  15.105 -0.2237  0.3862  0.2621
89592W        W32686  21.823  14.813  16.546  0.2159  0.0244 -0.2072
89593W        W32687  21.695  14.305  16.433 -0.0030 -0.2593 -0.0978
89594W        W32688  18.661  17.240  14.764  0.0070 -0.1986 -0.3337
89595W        W32689  19.313  15.926  16.037 -0.0100  0.0545  0.2865
89596W        W32690  23.089  16.351  17.501  0.2625 -0.0241  0.1314
89597W        W32691  21.871  15.375  15.682  0.2355  0.0895 -0.2316
89598W        W32692  20.986  17.790  16.527 -0.1053  0.0357  0.0508
89599W        W32693  20.264  14.986  16.995  0.1610  0.0518  0.1846
89600W        W32694  21.016  17.161  16.413 -0.0742  0.1588 -0.0534
89601W        W32695  19.384  20.770  16.378  0.0188 -0.0934  0.1264
89602W        W32696  18.440  17.729  15.904  0.1042 -0.1334  0.0320
89603W        W32697  18.367  16.397  16.236  0.1160 -0.1054 -0.0639
89604W        W32698  19.017  15.102  17.023  0.0282  0.0349 -0.1728
89605W        W32699  18.746  16.255  16.699 -0.0204 -0.0927  0.0873
89606W        W32700  21.450  15.261  15.406 -0.1122 -0.4277 -0.3469
89607W        W32701  18.542  12.853  17.282 -0.3211 -0.2945 -0.2704
89608W        W32702  23.459  14.836  16.711 -0.0461  0.0465 -0.1096
89609W        W32703  18.505  16.853  16.494  0.1687  0.1896 -0.0867
89610W        W32704  21.627  18.672  15.644 -0.1011  0.1404  0.0055
89611W        W32705  22.755  15.287  16.225 -0.0725  0.2353  0.3175
89612W        W32706  21.146  18.045  14.733  0.0894 -0.1189 -0.0126
89613W        W32707  17.657  15.626  17.438  0.0121 -0.0577  0.1648
89614W        W32708  18.537  16.705  15.820  0.2986  0.0417  0.1657
89615W        W32709  18.461  14.876  16.320 -0.0532  0.3439 -0.0300
89616W        W32710  17.435  15.227  16.971  0.0988 -0.2727  0.0962
89617W        W32711  22.262  15.720  17.565  0.3808 -0.1748 -0.1504
89618W        W32712  18.594  15.212  15.422 -0.5786 -0.1841  0.0628
89619W        W32713  20.017  15.708  16.120  0.2374 -0.0127  0.0919
89620W        W32714  20.533  16.375  15.328  0.0687  0.1506  0.2599
89621W        W32715  19.116  15.934  15.567 -0.2351  0.3415 -0.1399
89622W        W32716  22.335  14.877  16.491  0.0029 -0.0483 -0.0246
89623W        W32717  20.664  17.760  14.964 -0.0752 -0.1123  0.0356
89624W        W32718  24.002  17.456  17.272 -0.1456 -0.4249  0.3287
89625W        W32719  21.262  18.532  15.209  0.2713 -0.0640 -0.3970
89626W        W32720  19.367  14.002  16.947  0.0239 -0.0507  0.0362
89627W        W32721  19.565  15.861  15.194 -0.1260  0.0840 -0.2267
89628W        W32722  19.641  18.646  16.377  0.0349 -0.1591  0.0838
89629W        W32723  19.394  17.234  16.021  0.0468  0.0861  0.0723
89630W        W32724  19.071  15.076  15.187 -0.0362 -0.0617 -0.0977
89631W        W32725  22.521  17.972  15.958 -0.1927 -0.0593  0.0846
89632W        W32726  19.824  16.679  15.318 -0.1766  0.0749  0.1278
89633W        W32727  19.384  16.230  16.880  0.0746  0.0824 -0.2384
89634W        W32728  21.226  13.751  17.656  0.0039  0.1336 -0.0861
89635W        W32729  21.675  16.141  17.317 -0.0082  0.3532  0.0486
89636W        W32730  20.358  15.857  15.762 -0.3307  0.1411 -0.1373
89637W        W32731  18.858  13.642  15.819 -0.1108 -0.2513 -0.2879
89638W        W32732  20.091  18.518  15.665 -0.0747  0.0294  0.0260
89639W        W32733  17.686  17.376  15.382  0.1244  0.2493 -0.1028
89640W        W32734  19.435  18.192  16.165  0.0656 -0.1561 -0.0020
89641W        W32735  21.211  18.072  16.052 -0.3008 -0.0885  0.0130
89642W        W32736  22.063  14.035  15.504 -0.1857 -0.2587  0.2642
89643W        W32737  17.561  16.650  17.133 -0.0134  0.2092  0.2129
89644W        W32738  21.140  15.330  16.958 -0.2772 -0.0759 -0.0547
89645W        W32739  17.836  16.698  14.427  0.0687  0.1094  0.0169
89646W        W32740  19.358  17.067  16.501  0.1368 -0.0785  0.1098
89647W        W32741  19.752  14.200  16.005 -0.1821  0.2466 -0.1303
89648W        W32742  23.133  15.867  15.435 -0.0236  0.1099 -0.1361
89649W        W32743  21.508  17.649  14.620  0.1034  0.0651  0.0231
89650W        W32744  21.176  15.521  14.742  0.0718 -0.0725 -0.2620
89651W        W32745  20.295  15.336  15.008  0.0616 -0.0056  0.1130
89652W        W32746  18.889  17.129  16.368  0.1429 -0.0756 -0.1280
89653W        W32747  20.714  17.983  16.216 -0.3661  0.1652  0.0263
89654W        W32748  20.097  17.277  15.519  0.0291  0.1790  0.0741
89655W        W32749  20.824  16.570  15.617  0.0419 -0.1076  0.0702
89656W        W32750  22.241  17.681  15.050  0.1142 -0.1601 -0.0522
89657W        W32751  19.812  17.062  16.786  0.0213 -0.0858 -0.1109
89658W        W32752  21.524  16.544  17.078 -0.0110  0.0832  0.0913
89659W        W32753  19.314  19.582  16.729  0.2689 -0.1797 -0.1270
89660W        W32754  19.811  14.014  16.757  0.1089 -0.1131  0.1867
89661W        W32755  21.271  15.999  14.183 -0.2196 -0.0066 -0.0289
89662W        W32756  20.608  13.402  16.182 -0.0668  0.2268 -0.2136
89663W        W32757  18.117  19.232  15.720  0.0298 -0.2512  0.2567
89664W        W32758  22.220  14.346  16.840 -0.2756 -0.1849 -0.1293
89665W        W32759  20.864  15.125  14.945  0.2140  0.1234  0.1985
89666W        W32760  20.371  14.020  16.906  0.3560  0.2597 -0.1687
89667W        W32761  21.986  16.895  16.951 -0.0118 -0.1905 -0.2484
89668W        W32762  22.222  16.361  14.974 -0.1689 -0.4206  0.3104
89669W        W32763  19.690  16.275  16.107 -0.0766  0.0877 -0.2239
89670W        W32764  18.155  15.973  15.347 -0.0282 -0.0234  0.3328
89671W        W32765  21.064  14.628  16.928  0.0030 -0.1101 -0.0287
89672W        W32766  18.978  15.781  16.623  0.1864 -0.1396  0.1345
89673W        W32767  18.798  17.737  17.370 -0.0154  0.1654  0.0787
89674W        W32768  21.331  17.361  16.730 -0.1781 -0.3074  0.1980
89675W        W32769  21.863  15.557  16.186  0.3234 -0.1284 -0.2081
89676W        W32770  22.088  13.514  16.346  0.2488 -0.0577  0.2021
89677W        W32771  20.609  15.664  14.779  0.1970 -0.4715 -0.1970
89678W        W32772  18.671  18.116  16.168  0.1353  0.1607 -0.1411
89679W        W32773  19.138  16.367  15.890 -0.1841 -0.1165  0.4678
89680W        W32774  19.492  12.364  17.074  0.0832  0.1307 -0.0391
89681W        W32775  20.654  16.970  16.645  0.3770  0.3010 -0.0863
89682W        W32776  17.653  17.887  15.378  0.0260 -0.2113  0.0813
89683W        W32777  18.834  18.586  15.552 -0.2426 -0.0093  0.0523
89684W        W32778  22.959  14.421  17.312 -0.2342 -0.1479 -0.1624
89685W        W32779  17.063  18.288  15.911  0.1756  0.0313 -0.0311
89686W        W32780  18.976  15.519  15.220 -0.1013  0.0050  0.0998
89687W        W32781  17.512  16.622  16.572  0.0043  0.1252 -0.3403
89688W        W32782  21.970  14.880  16.055  0.1802  0.1339  0.0245
89689W        W32783  20.845  17.355  14.736  0.2426  0.2543 -0.1474
89690W        W32784  19.335  15.391  16.545  0.0703 -0.0653 -0.1808
89691W        W32785  19.045  15.159  16.139  0.0655  0.0657  0.0299
89692W        W32786  18.991  17.478  15.281 -0.1675  0.0892 -0.0380
89693W        W32787  21.096  15.436  15.746  0.0130 -0.2594 -0.2183
89694W        W32788  21.767  15.227  14.741 -0.2415  0.3912 -0.0494
89695W        W32789  21.452  17.866  16.760 -0.0932 -0.0360  0.0785
89696W        W32790  20.405  16.251  16.978 -0.0529 -0.1155  0.0437
89697W        W32791  17.367  17.092  17.130  0.0795  0.0684 -0.0792
89698W        W32792  21.639  16.033  16.812  0.1737  0.0500  0.0531
89699W        W32793  18.849  16.100  16.228  0.0598  0.1345 -0.4858
89700W        W32794  17.834  18.646  14.805  0.2308  0.0205 -0.1098
89701W        W32795  20.913  18.550  16.047 -0.1488 -0.2588 -0.0741
89702W        W32796  19.031  15.358  15.692 -0.0749 -0.0184  0.0046
89703W        W32797  19.632  16.703  15.833 -0.2075 -0.1745 -0.1048
89704W        W32798  19.887  14.956  17.513  0.0198  0.0116  0.1947
89705W        W32799  20.976  16.382  16.334  0.2251  0.1585  0.1615
89706W        W32800  20.463  15.414  16.519 -0.4776  0.1728 -0.0663
89707W        W32801  18.278  15.654  16.078 -0.0810  0.1480  0.0061
89708W        W32802  20.509  17.617  15.747  0.2374  0.2936  0.2698
89709W        W32803  21.239  16.309  15.933 -0.3173  0.2085  0.1777
89710W        W32804  21.457  15.205  15.973 -0.2010 -0.1815  0.0936
89711W        W32805  20.101  14.094  17.336 -0.0100  0.3562  0.1325
89712W        W32806  22.052  19.012  15.913  0.0510  0.0670  0.0071
89713W        W32807  18.837  16.586  16.228  0.3553  0.1250  0.1772
89714W        W32808  18.186  17.923  16.922  0.1044  0.0240  0.1124
89715W        W32809  19.879  18.867  15.962  0.0887 -0.1313 -0.2354
89716W        W32810  20.614  14.150  16.400  0.0703 -0.0218  0.0821
89717W        W32811  19.244  16.252  16.421  0.3469  0.4550 -0.0124
89718W        W32812  18.823  17.296  15.834 -0.2105 -0.2791  0.0550
89719W        W32813  18.874  18.505  16.629 -0.0297  0.3191 -0.0615
89720W        W32814  21.754  14.893  15.178 -0.4904  0.1189 -0.1046
89721W        W32815  20.481  18.843  15.973  0.0096 -0.1367  0.1074
89722W        W32816  19.654  15.915  16.468  0.0956  0.1218 -0.0253
89723W        W32817  23.358  14.298  18.220 -0.1508 -0.0997  0.2677
89724W        W32818  21.174  17.402  15.509 -0.0491  0.0874 -0.0095
89725W        W32819  21.023  14.966  17.347 -0.0097 -0.1828 -0.4687
89726W        W32820  19.905  13.670  17.056 -0.0421 -0.0876  0.2344
89727W        W32821  21.447  17.972  15.388 -0.1250 -0.2688  0.0821
89728W        W32822  19.592  14.874  16.937  0.0235  0.4701  0.2613
89729W        W32823  20.632  18.691  16.516  0.1272  0.0072  0.2067
89730W        W32824  17.270  15.460  17.613  0.3898  0.1473  0.0227
89731W        W32825  19.489  15.038  15.878  0.2153  0.0459  0.2042
89732W        W32826  19.506  15.405  15.536 -0.0694 -0.5524  0.0496
89733W        W32827  19.521  16.309  15.581  0.3859  0.2182  0.0731
89734W        W32828  21.935  17.509  16.479  0.0760  0.2699 -0.1662
89735W        W32829  19.775  17.205  15.124 -0.0926 -0.2985  0.1226
89736W        W32830  20.951  15.037  15.466 -0.1553  0.2355 -0.0993
89737W        W32831  19.312  16.701  16.205 -0.0599 -0.0605 -0.1212
89738W        W32832  21.053  14.116  15.382  0.1384  0.0120 -0.2997
89739W        W32833  19.454  18.108  15.330 -0.1395  0.1636  0.2810
89740W        W32834  19.758  17.363  16.371  0.2330 -0.3705  0.2765
89741W        W32835  18.986  12.627  17.157 -0.0705 -0.1009  0.0252
89742W        W32836  20.452  15.859  15.265  0.1364  0.4014  0.1427
89743W        W32837  21.032  14.965  16.031  0.2248  0.3242 -0.3957
89744W        W32838  22.377  15.655  16.257  0.2735  0.1927  0.3125
89745W        W32839  22.006  15.789  16.578  0.1717 -0.1453  0.2681
89746W        W32840  20.360  13.834  16.110  0.0637 -0.0038  0.3614
89747W        W32841  18.867  14.175  16.854  0.1004 -0.1841 -0.1382
89748W        W32842  22.271  18.052  16.371 -0.1920 -0.0081  0.0173
89749W        W32843  20.916  15.910  14.473  0.0119  0.2970 -0.2629
89750W        W32844  22.531  15.267  15.426  0.0060  0.1259 -0.1295
89751W        W32845  21.944  15.942  15.899  0.1634  0.1312 -0.0739
89752W        W32846  20.637  16.424  14.240  0.0470  0.2156  0.2068
89753W        W32847  19.837  15.313  16.729 -0.1919  0.1447  0.1097
89754W        W32848  21.171  15.484  17.499 -0.3468  0.2657 -0.0673
89755W        W32849  20.950  14.683  14.805 -0.1347 -0.1547  0.4329
89756W        W32850  21.743  14.107  17.278 -0.0208 -0.0217  0.1001
89757W        W32851  18.786  17.030  15.368  0.0407 -0.1386 -0.0098
89758W        W32852  20.642  18.212  15.751  0.1819  0.2702  0.1205
89759W        W32853  20.501  14.955  15.286 -0.3299 -0.1638  0.3054
89760W        W32854  18.074  14.787  16.685  0.2251  0.3180  0.1303
89761W        W32855  20.187  18.826  16.417  0.2478 -0.0249 -0.3930
89762W        W32856  17.668  15.330  15.655 -0.1673 -0.2259  0.0964
89763W        W32857  18.882  16.810  14.881  0.0811 -0.0461  0.5736
89764W        W32858  20.837  19.147  16.705  0.0203 -0.0142 -0.0081
89765W        W32859  20.829  14.547  15.295 -0.0358 -0.0756  0.1156
89766W        W32860  22.588  15.513  17.264  0.0078  0.0801 -0.0176
89767W        W32861  19.908  18.232  16.258 -0.3372 -0.0527  0.2419
89768W        W32862  20.828  13.694  17.104  0.0718  0.0946  0.1151
89769W        W32863  19.303  18.697  16.786 -0.0140 -0.2408  0.0924
89770W        W32864  19.048  16.882  17.293 -0.1060 -0.0784 -0.2994
89771W        W32865  19.610  19.121  17.039  0.1244 -0.1795 -0.1683
89772W        W32866  21.229  13.460  16.657 -0.0190 -0.0996 -0.1939
89773W        W32867  21.437  15.650  16.451 -0.0447  0.1623  0.0411
89774W        W32868  19.866  17.128  15.945  0.0928 -0.1978 -0.3369
89775W        W32869  22.114  15.836  17.125 -0.0484 -0.0889  0.1025
89776W        W32870  20.659  16.197  15.942 -0.3655 -0.0091  0.1636
89777W        W32871  20.389  17.173  15.960  0.3191 -0.1087  0.0066
89778W        W32872  21.430  17.619  16.277  0.0786 -0.1452  0.1693
89779W        W32873  21.320  16.042  14.800 -0.0962  0.1366 -0.0664
89780W        W32874  18.339  17.067  15.569  0.1142  0.1148  0.2027
89781W        W32875  17.786  16.124  17.864  0.0733 -0.1599  0.2846
89782W        W32876  22.000  16.346  16.777 -0.1765 -0.0538  0.1153
89783W        W32877  20.919  17.847  15.474 -0.1526  0.1644 -0.2083
89784W        W32878  18.178  15.019  15.563 -0.2228 -0.2407 -0.2777
89785W        W32879  18.746  17.635  16.401 -0.0875 -0.0460  0.2293
89786W        W32880  18.656  18.094  16.879 -0.0967 -0.2712  0.0402
89787W        W32881  18.520  15.752  16.496  0.1688  0.2115 -0.0433
89788W        W32882  17.662  19.340  15.855 -0.1316  0.0976  0.1881
89789W        W32883  20.809  16.761  15.101  0.3777  0.3861 -0.1555
89790W        W32884  19.917  16.878  14.683 -0.0860 -0.0281  0.0519
89791W        W32885  21.504  17.712  15.794  0.2338 -0.0346 -0.0972
89792W        W32886  19.636  15.763  14.628 -0.1977  0.3222 -0.1367
89793W        W32887  19.130  17.806  16.130 -0.3046  0.2617  0.0387
89794W        W32888  18.115  18.112  15.432 -0.0995  0.0843 -0.2308
89795W        W32889  21.195  17.656  15.092 -0.0663  0.1386  0.1349
89796W        W32890  18.122  18.170  16.017 -0.2657  0.0650 -0.0783
89797W        W32891  21.725  18.149  17.176  0.0405 -0.2068  0.0037
89798W        W32892  21.423  14.719  14.637  0.0507  0.1199  0.0758
89799W        W32893  21.574  15.559  16.882  0.3238  0.3648  0.1114
89800W        W32894  22.321  15.246  15.978 -0.2396  0.0472 -0.5583
89801W        W32895  20.516  18.344  17.311 -0.1445  0.2493 -0.0001
89802W        W32896  20.621  15.879  16.325 -0.0899  0.1695 -0.0017
89803W        W32897  19.978  14.925  14.861 -0.2939  0.0018  0.0515
89804W        W32898  18.842  15.287  16.565 -0.3128  0.2058  0.0317
89805W        W32899  22.703  15.822  18.427 -0.1595 -0.2756  0.0455
89806W        W32900  18.669  19.017  16.748  0.0605  0.3070 -0.1028
89807W        W32901  22.565  18.001  15.379  0.3795  0.0565 -0.3488
89808W        W32902  19.088  16.879  15.784  0.1203  0.0284 -0.3394
89809W        W32903  19.796  15.871  15.704  0.0276  0.0121 -0.1115
89810W        W32904  22.868  15.735  16.359 -0.0967  0.0411 -0.1117
89811W        W32905  19.112  16.336  15.060 -0.3486  0.0714 -0.3532
89812W        W32906  20.340  15.007  15.835  0.0425 -0.0735  0.1818
89813W        W32907  20.665  19.673  17.040  0.2272 -0.0638  0.1762
89814W        W32908  19.981  19.407  16.210 -0.1434  0.3144  0.0724
89815W        W32909  19.919  19.418  16.705  0.0067 -0.1426  0.0316
89816W        W32910  18.135  15.500  15.649 -0.0631 -0.6339  0.1224
89817W        W32911  23.827  15.800  16.227 -0.0089 -0.0254  0.0719
89818W        W32912  20.703  14.685  15.757 -0.1478 -0.1156 -0.1134
89819W        W32913  22.380  14.287  17.343 -0.0232  0.2908  0.0464
89820W        W32914  18.026  16.612  15.895  0.1538  0.4004 -0.2615
89821W        W32915  21.366  14.137  16.041  0.0483  0.1381 -0.1351
89822W        W32916  20.343  16.793  15.579 -0.0869  0.1065 -0.0154
89823W        W32917  19.983  14.763  16.602 -0.1602  0.2192  0.3792
89824W        W32918  19.757  18.154  15.807  0.0441 -0.2379  0.1510
89825W        W32919  22.830  16.817  16.845  0.0189  0.2888 -0.1105
89826W        W32920  20.108  16.528  14.967 -0.1190 -0.1439  0.3154
89827W        W32921  22.860  18.436  16.153 -0.1540  0.0190 -0.0270
89828W        W32922  17.835  14.398  16.280  0.0024 -0.0482  0.0959
89829W        W32923  20.918  15.989  15.037  0.2793  0.0572 -0.3559
89830W        W32924  17.759  15.339  16.510 -0.0011 -0.0407  0.1771
89831W        W32925  20.614  15.450  15.994  0.4186 -0.1696 -0.0453
89832W        W32926  21.123  17.620  17.121 -0.0373 -0.2030 -0.0685
89833W        W32927  17.639  14.825  15.715 -0.0041  0.0865  0.0849
89834W        W32928  19.386  17.910  14.332 -0.0360  0.2836  0.1397
89835W        W32929  22.182  16.182  16.337 -0.0057  0.2527  0.1234
89836W        W32930  19.212  17.894  14.791  0.3411  0.2507  0.2090
89837W        W32931  21.630  17.179  15.581  0.1492  0.1002 -0.2036
89838W        W32932  21.197  18.329  15.637 -0.3110  0.1086  0.2603
89839W        W32933  16.440  15.295  17.719 -0.1576 -0.0710  0.0347
89840W        W32934  22.385  17.472  16.113 -0.0791 -0.0718  0.2260
89841W        W32935  23.216  17.634  17.055 -0.0418 -0.2746  0.0198
89842W        W32936  20.466  14.986  14.656  0.1489  0.1758 -0.4015
89843W        W32937  19.557  15.520  16.097  0.1641  0.2913  0.0596
89844W        W32938  17.121  18.022  15.404 -0.0567  0.1693  0.1053
89845W        W32939  21.961  15.343  17.217  0.0612  0.1583 -0.1276
89846W        W32940  21.299  14.943  16.549 -0.2214  0.3410 -0.1922
89847W        W32941  19.539  19.035  15.531  0.1131  0.0602  0.0872
89848W        W32942  21.470  14.625  17.255 -0.3501 -0.1835 -0.0600
89849W        W32943  21.483  19.961  17.413 -0.1397 -0.0355 -0.2119
89850W        W32944  20.073  18.990  17.257 -0.5414 -0.3020 -0.0184
89851W        W32945  18.899  15.628  16.184  0.0768 -0.1168 -0.0782
89852W        W32946  20.237  16.198  16.210  0.0966  0.1343 -0.1238
89853W        W32947  21.768  18.211  16.380 -0.2380  0.4645  0.1240
89854W        W32948  18.741  17.682  14.896  0.0738 -0.0975  0.2899
89855W        W32949  20.978  18.294  16.519 -0.0217  0.3918  0.2495
89856W        W32950  21.640  16.243  15.643 -0.0166  0.0253 -0.1324
89857W        W32951  22.196  17.018  16.309  0.1493 -0.1801 -0.1429
89858W        W32952  19.329  14.560  16.021 -0.1485  0.0743  0.3945
89859W        W32953  21.875  15.734  15.358 -0.1214 -0.0768 -0.0819
89860W        W32954  21.536  14.449  15.285  0.2037 -0.0682 -0.1219
89861W        W32955  19.800  16.784  16.310 -0.1533  0.0591 -0.0439
89862W        W32956  17.284  17.648  15.755 -0.2064  0.0449  0.1321
89863W        W32957  18.851  16.533  15.414 -0.0409 -0.3529 -0.2377
89864W        W32958  19.320  17.534  16.527  0.2227  0.1083 -0.0702
89865W        W32959  20.541  14.263  17.859 -0.0486 -0.0668  0.1714
89866W        W32960  18.712  15.520  16.999  0.1865  0.1712 -0.0366
89867W        W32961  17.992  16.050  17.287  0.1891  0.1497 -0.0883
89868W        W32962  19.385  14.318  15.525 -0.1591 -0.4102  0.1561
89869W        W32963  21.125  18.764  16.449 -0.2521  0.0511 -0.0284
89870W        W32964  19.103  14.577  16.984 -0.0671 -0.0273  0.1044
89871W        W32965  17.880  14.396  15.512 -0.2119 -0.1858  0.0041
89872W        W32966  22.321  17.524  15.628  0.1544  0.2305  0.3398
89873W        W32967  21.593  17.421  15.135  0.0905  0.0799  0.0947
89874W        W32968  19.923  15.261  15.789  0.0709 -0.0694 -0.2385
89875W        W32969  22.684  18.205  17.537 -0.1720 -0.2633 -0.1253
89876W        W32970  17.514  17.137  14.895 -0.0152  0.1385  0.1508
89877W        W32971  20.834  15.250  17.868 -0.0791 -0.0268 -0.1180
89878W        W32972  20.094  14.446  16.971  0.2193 -0.1488 -0.0066
89879W        W32973  17.866  13.913  15.401 -0.0793 -0.0150  0.0485
89880W        W32974  19.657  13.287  17.214 -0.0953 -0.1641  0.1339
89881W        W32975  20.624  17.237  15.395  0.0228 -0.2079 -0.0632
89882W        W32976  19.618  17.197  14.411 -0.2289  0.0769 -0.1254
89883W        W32977  20.152  17.113  16.408 -0.1574 -0.0148  0.3002
89884W        W32978  20.975  18.650  16.921 -0.1100  0.2126 -0.0098
89885W        W32979  17.438  14.255  16.610 -0.2713  0.2907 -0.1951
89886W        W32980  21.956  16.655  15.406 -0.1521  0.2378 -0.1426
89887W        W32981  20.099  17.350  17.429 -0.0729  0.0129  0.3468
89888W        W32982  22.067  17.207  15.341  0.2047 -0.1902 -0.0507
89889W        W32983  22.834  14.360  15.910 -0.1447 -0.1119 -0.3653
89890W        W32984  20.571  15.407  15.478  0.0996  0.0841  0.3032
89891W        W32985  20.191  14.542  17.543  0.3270 -0.3101  0.0865
89892W        W32986  18.986  17.651  16.874 -0.0231 -0.0489 -0.0272
89893W        W32987  21.555  16.089  16.228 -0.1769  0.1920  0.1381
89894W        W32988  18.594  15.656  15.642  0.0095 -0.1645 -0.0105
89895W        W32989  21.348  15.971  15.327 -0.1600  0.1071  0.1190
89896W        W32990  20.267  17.207  14.706  0.0423  0.2023  0.3456
89897W        W32991  17.760  16.257  16.820 -0.1226 -0.0308 -0.0440
89898W        W32992  20.859  17.125  15.815  0.1094 -0.2174  0.1882
89899W        W32993  21.514  15.711  15.756 -0.1586  0.1216  0.0753
89900W        W32994  20.211  18.018  15.867  0.1478 -0.3578 -0.2227
89901W        W32995  20.721  16.727  16.120 -0.1212  0.0815  0.3735
89902W        W32996  19.993  16.125  15.283  0.0686 -0.2646 -0.0079
89903W        W32997  22.676  17.007  15.915  0.1394  0.2464 -0.1920
89904W        W32998  20.859  18.704  17.435 -0.2360  0.2438  0.0391
89905W        W32999  23.136  18.296  17.553 -0.0836  0.2108  0.0966
89906W        W33000  19.420  19.847  17.875  0.0943 -0.0740  0.0505
89907W        W33001  22.452  15.944  16.664  0.1218 -0.1497  0.0013
89908W        W33002  19.388  12.969  16.894 -0.0397  0.1404  0.0566
89909W        W33003  19.408  17.185  15.525 -0.0111  0.1628 -0.0615
89910W        W33004  19.818  17.714  15.623  0.1331 -0.0121  0.0057
89911W        W33005  21.557  15.030  16.933  0.1817 -0.2131 -0.1290
89912W        W33006  18.257  15.326  16.443  0.1049 -0.0420  0.0621
89913W        W33007  20.381  14.578  15.037  0.0863 -0.0365 -0.2493
89914W        W33008  20.168  18.405  16.667  0.1042  0.1832 -0.0344
89915W        W33009  20.112  17.579  16.093  0.0307  0.4171  0.2314
89916W        W33010  19.941  15.098  17.988 -0.0886  0.4203  0.1455
89917W        W33011  22.968  14.676  16.816  0.0385  0.1428 -0.1616
89918W        W33012  19.119  13.842  17.763 -0.0695 -0.0128 -0.0144
89919W        W33013  20.683  17.116  19.888 -0.0029 -0.2237 -0.2117
89920W        W33014  23.188  17.860  20.519  0.1419  0.0395  0.1133
89921W        W33015  18.826  13.813  19.851  0.0938 -0.0007  0.0703
89922W        W33016  21.743  16.085  20.014 -0.0985  0.2969 -0.3457
89923W        W33017  19.398  16.605  17.470 -0.0859  0.1736 -0.1390
89924W        W33018  18.625  15.488  19.600 -0.1952 -0.0093 -0.0156
89925W        W33019  20.541  15.036  18.174 -0.0903  0.0633 -0.1331
89926W        W33020  20.212  14.007  19.740 -0.1100  0.2305 -0.1051
89927W        W33021  21.314  13.887  21.792 -0.1295  0.1895 -0.0950
89928W        W33022  20.855  17.600  18.120 -0.0127 -0.3285 -0.0545
89929W        W33023  18.769  15.677  17.536  0.1652 -0.1367  0.0114
89930W        W33024  18.904  15.817  19.402  0.2460 -0.1512  0.1661
89931W        W33025  19.831  16.479  19.664 -0.2574 -0.1467 -0.0918
89932W        W33026  20.182  17.892  19.409  0.0854  0.0193  0.2621
89933W        W33027  20.892  16.929  18.427 -0.2927 -0.1632  0.1623
89934W        W33028  21.942  15.210  20.500  0.0157 -0.0574  0.3992
89935W        W33029  18.540  16.853  18.038  0.0920  0.0444  0.1168
89936W        W33030  18.913  19.316  19.428  0.0921  0.0756  0.3494
89937W        W33031  22.195  17.763  18.666 -0.0056  0.1874 -0.0656
89938W        W33032  18.871  17.141  16.881  0.0201 -0.4139 -0.1082
89939W        W33033  19.900  16.899  19.262  0.0014 -0.0737  0.1845
89940W        W33034  19.533  17.995  19.152  0.0842 -0.2599  0.0778
89941W        W33035  21.295  15.019  22.150 -0.1829 -0.2750  0.2640
89942W        W33036  20.745  15.021  16.845 -0.2388 -0.1546  0.1797
89943W        W33037  19.688  14.446  17.738  0.1210 -0.0237  0.1558
89944W        W33038  21.627  15.106  17.560 -0.3000  0.0226 -0.0623
89945W        W33039  19.498  13.100  18.238  0.3355 -0.0053  0.0435
89946W        W33040  20.802  15.039  19.760  0.3514  0.1800 -0.0141
89947W        W33041  18.925  15.536  20.116  0.3359  0.0577  0.0636
89948W        W33042  22.149  18.878  16.764 -0.1064 -0.3767 -0.0311
89949W        W33043  20.302  12.841  19.279  0.0770 -0.2473  0.2116
89950W        W33044  22.031  16.157  22.297  0.0126  0.0698  0.1509
89951W        W33045  22.089  14.426  19.024 -0.1100  0.1053  0.3900
89952W        W33046  22.154  16.224  17.598 -0.1089 -0.1587  0.2240
89953W        W33047  19.474  16.719  16.966 -0.0299  0.1348  0.1117
89954W        W33048  19.721  16.873  17.803 -0.0596 -0.0891 -0.2952
89955W        W33049  23.475  15.205  17.503  0.2463 -0.0783 -0.1996
89956W        W33050  19.024  18.198  19.228  0.0547 -0.0293  0.0554
89957W        W33051  20.873  17.554  20.729 -0.0730  0.0626  0.2687
89958W        W33052  19.071  18.541  17.502  0.0069  0.2606  0.2647
89959W        W33053  18.403  16.316  18.704 -0.1752 -0.4384  0.0891
89960W        W33054  18.991  16.462  17.109  0.0756  0.2721 -0.2223
89961W        W33055  19.042  16.690  19.012 -0.0243  0.0633 -0.0954
89962W        W33056  22.263  13.944  18.973  0.0722  0.0925  0.3700
89963W        W33057  22.633  13.620  19.115 -0.2190 -0.0364  0.1845
89964W        W33058  19.704  17.426  19.155  0.1234  0.1631 -0.2799
89965W        W33059  22.081  15.798  20.251 -0.1299  0.2643  0.1425
89966W        W33060  18.942  16.173  18.859  0.4441 -0.1009  0.0871
89967W        W33061  20.947  14.928  23.055 -0.0447  0.1011 -0.1139
89968W        W33062  20.977  18.238  17.483  0.1217  0.0460 -0.6292
89969W        W33063  22.340  18.576  21.248 -0.2630 -0.0280  0.0686
89970W        W33064  19.247  16.027  20.401  0.1011  0.4108  0.4332
89971W        W33065  19.150  13.496  18.120 -0.0530  0.1534 -0.3203
89972W        W33066  19.562  16.557  18.786 -0.0296 -0.0647  0.2159
89973W        W33067  22.775  18.275  21.260 -0.1013 -0.3489 -0.0321
89974W        W33068  18.385  16.039  20.140 -0.0821  0.2004  0.1183
89975W        W33069  20.977  14.260  21.651  0.0112  0.0923  0.0312
89976W        W33070  22.679  16.484  19.834  0.1696 -0.2018 -0.0890
89977W        W33071  19.951  17.092  18.833  0.1968  0.3033 -0.0550
89978W        W33072  18.575  14.113  17.274 -0.1800 -0.0074  0.1508
89979W        W33073  20.407  17.730  18.170 -0.1385  0.0206  0.1052
89980W        W33074  21.941  14.924  19.163 -0.3547 -0.1344  0.1040
89981W        W33075  17.835  16.247  19.798 -0.1271 -0.0137 -0.1484
89982W        W33076  21.401  14.682  21.449  0.1168  0.0576  0.2952
89983W        W33077  21.244  13.176  19.677  0.0430 -0.1522 -0.2793
89984W        W33078  22.024  15.271  17.828  0.3906 -0.0545  0.3083
89985W        W33079  19.821  15.654  19.639 -0.2287  0.2013  0.5241
89986W        W33080  23.093  15.372  17.015 -0.1685 -0.0084 -0.0706
89987W        W33081  21.014  14.426  17.467  0.0942  0.1493 -0.0177
89988W        W33082  19.706  16.067  19.923  0.2817  0.2449  0.1374
89989W        W33083  21.408  14.252  16.841  0.3107  0.1751 -0.0460
89990W        W33084  23.438  17.932  18.990  0.0535 -0.0049 -0.0778
89991W        W33085  18.962  16.291  19.379 -0.1803  0.1322 -0.2215
89992W        W33086  21.734  16.799  20.850 -0.3840 -0.2670  0.0249
89993W        W33087  20.696  15.585  16.879 -0.0801 -0.0275 -0.2295
89994W        W33088  20.705  13.783  19.152 -0.0442 -0.2413 -0.3355
89995W        W33089  18.238  18.994  16.521  0.0483 -0.0031  0.1900
89996W        W33090  21.821  14.540  21.667 -0.1063  0.0389 -0.0698
89997W        W33091  20.497  17.161  19.311  0.2165 -0.0757 -0.1660
89998W        W33092  20.661  15.445  20.762  0.2173 -0.0351  0.0509
89999W        W33093  20.856  16.744  19.357  0.2920 -0.0292 -0.2785
90000W        W33094  20.946  14.998  20.667 -0.0245  0.1033 -0.0485
90001W        W33095  20.398  17.421  20.253 -0.0147 -0.2495 -0.0408
90002W        W33096  21.965  14.366  20.123  0.0665  0.0395  0.0164
90003W        W33097  18.405  17.932  18.712  0.3239  0.1660 -0.1931
90004W        W33098  20.573  15.311  17.282 -0.0115  0.0617 -0.0669
90005W        W33099  18.268  15.667  17.476 -0.0726  0.0038  0.0804
90006W        W33100  22.469  16.798  18.160 -0.0254  0.1667  0.2703
90007W        W33101  20.907  15.498  20.337  0.0446 -0.3778 -0.0775
90008W        W33102  18.536  18.188  19.095 -0.0484  0.3286 -0.0096
90009W        W33103  21.019  16.209  20.041 -0.4298 -0.2218 -0.1827
90010W        W33104  21.883  14.134  18.079  0.1007  0.1897 -0.0178
90011W        W33105  21.574  17.880  20.194  0.1590 -0.0443 -0.0413
90012W        W33106  19.075  14.805  16.523  0.2129 -0.1153 -0.0078
90013W        W33107  21.901  15.573  20.871  0.0022  0.1459  0.1176
90014W        W33108  19.682  16.876  18.378 -0.0545  0.5248  0.3425
90015W        W33109  22.118  16.984  19.812 -0.1517  0.1390 -0.2329
90016W        W33110  19.600  15.752  20.611  0.2158  0.1778 -0.0100
90017W        W33111  21.039  12.572  19.763 -0.1330 -0.3159 -0.0330
90018W        W33112  19.752  16.922  17.291 -0.0254 -0.0598  0.0452
90019W        W33113  18.957  16.053  19.975 -0.2781  0.0829  0.1968
90020W        W33114  20.552  15.486  19.882 -0.0455  0.3172 -0.1188
90021W        W33115  20.318  17.123  17.083 -0.1865  0.1248 -0.0513
90022W        W33116  18.120  17.832  19.545  0.1640  0.2212 -0.1304
90023W        W33117  21.528  14.205  17.738 -0.2566  0.1343  0.2323
90024W        W33118  21.343  17.120  17.549 -0.0750 -0.2341  0.2263
90025W        W33119  20.331  14.653  18.999 -0.1100  0.0881  0.0151
90026W        W33120  21.354  14.557  22.368 -0.2119  0.0524 -0.3150
90027W        W33121  21.576  16.543  17.591 -0.2983 -0.0873  0.1482
90028W        W33122  21.587  14.166  21.371 -0.0792  0.0186  0.1397
90029W        W33123  19.835  14.217  19.503 -0.4009  0.2847 -0.3253
90030W        W33124  21.020  15.136  18.330  0.1880  0.4148 -0.1761
90031W        W33125  19.950  13.777  18.358  0.0078 -0.0972  0.1270
90032W        W33126  22.636  17.011  19.626 -0.2004  0.0015  0.2412
90033W        W33127  20.737  17.549  19.052  0.0621 -0.0832  0.2574
90034W        W33128  23.303  17.062  19.575 -0.1508  0.2853  0.3445
90035W        W33129  21.745  15.417  18.242 -0.0892  0.0304  0.0487
90036W        W33130  20.915  16.924  17.838 -0.0155 -0.2635 -0.1569
90037W        W33131  19.338  16.267  17.873 -0.1927  0.0495  0.3096
90038W        W33132  21.147  14.739  20.059  0.2620 -0.0417 -0.1893
90039W        W33133  18.976  15.194  19.762  0.1531 -0.2405 -0.0626
90040W        W33134  22.027  15.774  17.967 -0.1907  0.1385 -0.1034
90041W        W33135  22.435  15.334  20.426  0.0575  0.1541  0.1332
90042W        W33136  20.060  14.102  17.928 -0.1981  0.1665 -0.0147
90043W        W33137  20.077  16.614  18.594 -0.1985 -0.1026 -0.0690
90044W        W33138  17.871  15.524  18.912 -0.3220 -0.0561  0.1385
90045W        W33139  18.164  15.181  17.750 -0.0748  0.1795 -0.1835
90046W        W33140  20.250  16.717  17.439  0.0791 -0.1484 -0.0893
90047W        W33141  20.490  17.881  20.495 -0.0748  0.1717  0.2067
90048W        W33142  21.427  16.851  21.239 -0.1542 -0.0694  0.1599
90049W        W33143  21.875  14.033  18.601  0.2417 -0.0169  0.1309
90050W        W33144  22.222  16.709  21.062  0.2550  0.0259  0.1186
90051W        W33145  17.588  17.721  17.622 -0.1408 -0.0536 -0.1316
90052W        W33146  21.875  12.830  18.926 -0.2059  0.0540  0.0135
90053W        W33147  19.773  16.061  19.369  0.1852  0.1980  0.1381
90054W        W33148  21.787  15.060  21.034 -0.0382 -0.1011 -0.0463
90055W        W33149  20.701  17.654  19.694 -0.0739 -0.2246  0.0186
90056W        W33150  19.237  16.289  18.492  0.0835 -0.2210  0.2131
90057W        W33151  21.843  16.557  19.040 -0.1281 -0.2009  0.1042
90058W        W33152  18.816  16.427  20.334  0.0552 -0.0178 -0.0400
90059W        W33153  21.269  16.813  18.981  0.3351 -0.3449 -0.0193
90060W        W33154  19.917  14.317  18.998 -0.0839  0.3209  0.2483
90061W        W33155  18.676  17.755  20.085 -0.2116  0.1692  0.0168
90062W        W33156  18.176  16.526  20.104  0.0622 -0.1513 -0.2938
90063W        W33157  21.359  17.267  18.553 -0.1589  0.2057 -0.1998
90064W        W33158  21.412  16.842  17.974  0.5085  0.1073 -0.3658
90065W        W33159  19.321  15.974  19.117 -0.2152 -0.0938  0.4677
90066W        W33160  22.801  18.545  17.917  0.0923  0.4418  0.1395
90067W        W33161  22.385  14.022  18.465  0.1536 -0.0627  0.0694
90068W        W33162  22.134  15.059  18.294  0.1797  0.0285 -0.3046
90069W        W33163  19.396  17.024  18.983 -0.0270 -0.0986  0.0143
90070W        W33164  19.203  14.263  17.391 -0.2154 -0.2736 -0.2030
90071W        W33165  21.819  14.022  21.762 -0.0265 -0.1712  0.0865
90072W        W33166  18.145  17.945  20.007 -0.2473  0.2620  0.2420
90073W        W33167  22.741  18.357  18.375  0.0346 -0.1354  0.1182
90074W        W33168  19.278  15.064  17.855  0.0508  0.0996 -0.0515
90075W        W33169  22.422  14.300  22.635 -0.0501 -0.3332 -0.0789
90076W        W33170  20.191  17.518  18.991 -0.3266  0.0208  0.1147
90077W        W33171  20.324  17.884  19.943  0.0395 -0.0332  0.1828
90078W        W33172  19.318  13.421  17.570  0.2122 -0.0766 -0.2218
90079W        W33173  22.206  14.671  21.018 -0.0421  0.0101  0.2498
90080W        W33174  21.346  15.325  17.943  0.3882  0.1226  0.1496
90081W        W33175  19.866  16.187  20.531 -0.1523 -0.2497  0.1459
90082W        W33176  22.021  16.596  17.310 -0.0052 -0.0787  0.1430
90083W        W33177  21.235  18.600  20.509  0.0750  0.0558  0.1246
90084W        W33178  19.114  14.572  18.473 -0.1265  0.2568 -0.2109
90085W        W33179  20.618  14.704  17.282  0.0077 -0.3822  0.0425
90086W        W33180  18.730  15.995  18.279  0.0456 -0.0606  0.1076
90087W        W33181  19.387  15.436  19.579  0.0901  0.0633  0.2477
90088W        W33182  21.646  17.778  20.745 -0.1586  0.2892  0.3047
90089W        W33183  18.916  14.199  18.043 -0.2190 -0.1418 -0.2796
90090W        W33184  22.306  16.713  17.710  0.0762  0.0684 -0.2274
90091W        W33185  19.992  18.472  17.321  0.1914 -0.2310 -0.0158
90092W        W33186  21.735  15.798  18.724 -0.1030 -0.3566  0.0366
90093W        W33187  21.351  17.900  18.956  0.2129 -0.0022 -0.4176
90094W        W33188  20.857  17.042  18.909 -0.0985 -0.3462  0.3333
90095W        W33189  23.178  16.381  19.840  0.0777  0.2692  0.0812
90096W        W33190  21.222  13.779  18.938 -0.3402 -0.3188 -0.3024
90097W        W33191  21.679  14.902  20.098  0.1562 -0.1480  0.2747
90098W        W33192  20.510  18.743  17.022 -0.1165 -0.1802  0.3305
90099W        W33193  22.472  13.535  23.162  0.0785 -0.4751 -0.0923
90100W        W33194  18.511  16.013  17.057  0.3693 -0.0003  0.1172
90101W        W33195  20.597  14.258  18.875 -0.0218  0.2287  0.1931
90102W        W33196  22.985  13.900  19.900 -0.0653  0.1552  0.1436
90103W        W33197  22.319  13.084  19.581 -0.0123 -0.0891  0.0071
90104W        W33198  17.485  16.098  17.218 -0.1035  0.1571 -0.1322
90105W        W33199  19.406  17.226  17.008  0.0488  0.1136  0.0471
90106W        W33200  19.403  15.665  20.064  0.3165  0.1702  0.0927
90107W        W33201  19.518  14.686  18.151 -0.0104 -0.1183 -0.0943
90108W        W33202  22.911  17.944  17.927  0.0606 -0.0847 -0.2131
90109W        W33203  18.865  13.131  19.656 -0.0544  0.2026 -0.2867
90110W        W33204  18.456  14.822  19.016 -0.0239  0.0452 -0.0953
90111W        W33205  21.195  17.395  19.047  0.1840 -0.0602  0.1996
90112W        W33206  22.397  17.264  18.365  0.3105  0.1901 -0.2961
90113W        W33207  22.149  17.570  21.228 -0.1112 -0.0821  0.0613
90114W        W33208  18.277  17.810  16.413  0.0674 -0.0615  0.2664
90115W        W33209  21.476  15.444  20.613 -0.0250  0.3614  0.1237
90116W        W33210  20.548  14.694  20.950  0.1119 -0.2231 -0.0096
90117W        W33211  18.037  12.246  18.075  0.1232 -0.2869  0.1151
90118W        W33212  19.324  16.026  19.620  0.2522  0.3133  0.5116
90119W        W33213  21.537  20.181  18.357 -0.1117 -0.0910 -0.0102
90120W        W33214  23.128  17.811  17.500  0.2567 -0.3841 -0.0461
90121W        W33215  21.958  13.025  21.896  0.0510 -0.3360  0.1957
90122W        W33216  18.655  13.841  20.708  0.0423  0.4170 -0.0349
90123W        W33217  18.657  13.856  19.007  0.1340 -0.0173  0.3123
90124W        W33218  21.529  14.315  18.897 -0.1005  0.0046 -0.1142
90125W        W33219  21.285  17.785  18.422 -0.2954 -0.1399 -0.2840
90126W        W33220  20.847  17.410  18.521  0.1294  0.1589 -0.3241
90127W        W33221  20.374  15.048  17.735 -0.3224  0.1485  0.1375
90128W        W33222  20.893  19.251  21.401 -0.2085  0.6344  0.0429
90129W        W33223  20.677  18.219  21.555  0.1525 -0.0627  0.1666
90130W        W33224  19.544  13.370  19.289 -0.3634 -0.3923  0.1326
90131W        W33225  22.176  15.275  19.946  0.2109 -0.0798  0.2490
90132W        W33226  21.703  13.612  18.738  0.0629  0.1990 -0.0543
90133W        W33227  20.383  16.852  18.952  0.0471 -0.1089 -0.3520
90134W        W33228  19.942  18.300  24.435 -0.3992 -0.2857 -0.0959
90135W        W33229  19.705  15.477  21.507 -0.2081 -0.0891  0.1880
90136W        W33230  21.107  15.847  21.666 -0.0717  0.2257  0.3824
90137W        W33231  21.437  16.480  21.660  0.2754 -0.2199 -0.2476
90138W        W33232  20.897  17.189  22.210 -0.1479  0.0488  0.0608
90139W        W33233  19.405  15.045  24.358 -0.1800  0.0101 -0.1153
90140W        W33234  21.232  18.031  24.610  0.0833 -0.0553  0.0038
90141W        W33235  21.531  17.309  22.973 -0.0335  0.1897  0.1049
90142W        W33236  20.779  16.337  21.400  0.2940 -0.1987 -0.0766
90143W        W33237  20.768  15.059  25.086 -0.0155  0.5116  0.3301
90144W        W33238  20.308  17.753  22.703 -0.1730  0.1764  0.3372
90145W        W33239  20.305  14.778  22.821 -0.3467  0.0494 -0.0029
90146W        W33240  19.033  13.870  23.656  0.5674 -0.2267 -0.0598
90147W        W33241  21.093  17.060  24.216  0.4229  0.1353 -0.2177
90148W        W33242  20.044  15.184  23.335  0.0395 -0.0569 -0.1469
90149W        W33243  21.186  17.711  23.602 -0.1816  0.1756 -0.1415
90150W        W33244  20.293  14.410  25.898  0.0027  0.4512 -0.0011
90151W        W33245  21.409  15.464  26.707  0.3161  0.1476 -0.0745
90152W        W33246  20.510  18.570  22.048 -0.1357  0.1070 -0.2340
90153W        W33247  18.931  15.998  21.358  0.1036  0.5024 -0.0767
90154W        W33248  18.861  16.243  23.998  0.3484  0.1354 -0.1341
90155W        W33249  20.050  16.128  24.355  0.1234 -0.0809 -0.2131
90156W        W33250  19.966  15.617  24.573 -0.0353  0.1515  0.1493
90157W        W33251  22.115  15.299  24.509 -0.2018 -0.1106 -0.2351
90158W        W33252  20.653  16.377  23.475  0.1231  0.0169  0.1717
90159W        W33253  20.237  18.975  24.322 -0.2266 -0.4034  0.2694
90160W        W33254  19.924  15.889  25.797  0.1089  0.2575 -0.1714
90161W        W33255  19.022  17.179  21.259 -0.0669 -0.0569  0.1808
90162W        W33256  18.506  18.204  22.874  0.2788  0.1603 -0.2762
90163W        W33257  21.894  17.296  23.377  0.0193 -0.0361  0.2409
90164W        W33258  21.978  15.577  23.070  0.1215 -0.0322  0.2166
90165W        W33259  20.384  17.983  24.570 -0.0157 -0.0175 -0.0360
90166W        W33260  18.865  17.491  20.503  0.0427 -0.2348  0.0066
90167W        W33261  20.861  17.708  24.957 -0.4895  0.0139 -0.0603
90168W        W33262  20.208  17.685  25.109 -0.0163 -0.1860  0.0260
90169W        W33263  18.865  16.713  24.245 -0.0197 -0.2056  0.0237
90170W        W33264  20.640  15.865  23.292 -0.0794  0.0434 -0.0557
90171W        W33265  20.013  19.622  22.178 -0.0670 -0.2652  0.2565
90172W        W33266  20.794  16.636  23.845 -0.1612 -0.0951  0.1129
90173W        W33267  21.453  17.594  24.620  0.3260 -0.1028  0.4136
90174W        W33268  22.289  15.072  26.572  0.0571 -0.4685 -0.1880
90175W        W33269  19.195  18.112  20.790 -0.1107 -0.1008 -0.2990
90176W        W33270  20.739  16.648  22.930  0.1024  0.1974  0.0212
90177W        W33271  20.369  15.026  23.803 -0.1054 -0.0125 -0.0053
90178W        W33272  19.138  19.007  23.658  0.0550 -0.1261 -0.1781
90179W        W33273  19.475  15.716  23.188 -0.2858 -0.0346 -0.1469
90180W        W33274  20.993  16.474  25.678 -0.1177 -0.0783 -0.1483
90181W        W33275  19.834  16.731  24.078  0.2360 -0.0637  0.2375
90182W        W33276  19.146  17.626  22.947 -0.0460  0.0295 -0.1531
90183W        W33277  19.393  15.805  22.250 -0.1185  0.1244  0.2174
90184W        W33278  22.083  17.494  21.698  0.0781  0.0035 -0.0342
90185W        W33279  22.290  17.254  23.678  0.1082  0.1130  0.1922
90186W        W33280  18.663  17.861  24.126 -0.0081  0.0172  0.1021
90187W        W33281  19.741  13.818  21.100 -0.1318  0.1346  0.1147
90188W        W33282  21.208  17.124  26.527  0.1409  0.0753  0.2672
90189W        W33283  18.519  17.431  23.542 -0.0435  0.1854  0.0187
90190W        W33284  22.210  13.888  22.884  0.0583  0.2208 -0.1149
90191W        W33285  19.932  17.425  22.819  0.1088 -0.0221 -0.3806
90192W        W33286  20.826  17.079  24.782 -0.0713  0.0416  0.1267
90193W        W33287  21.748  14.917  24.340  0.0092 -0.1192 -0.1890
90194W        W33288  20.889  15.770  24.512  0.0142  0.0858  0.1099
90195W        W33289  21.998  16.719  25.388  0.1038  0.1525  0.1841
90196W        W33290  21.924  14.319  22.145  0.1709 -0.0965 -0.0845
90197W        W33291  19.486  17.162  22.415 -0.2157 -0.0741 -0.0367
90198W        W33292  20.406  15.463  23.101  0.2112 -0.0740  0.1479
90199W        W33293  20.557  15.826  25.518  0.5178  0.2685  0.1037
90200W        W33294  18.759  17.923  20.716 -0.2635 -0.3433  0.1934
90201W        W33295  18.803  14.801  23.670 -0.1257  0.0634  0.0953
90202W        W33296  19.443  17.589  23.948  0.2053 -0.1521  0.0345
90203W        W33297  20.528  14.338  21.965 -0.0316 -0.0142 -0.0389
90204W        W33298  18.563  15.627  24.587 -0.2376 -0.0395 -0.0012
90205W        W33299  21.032  16.168  23.717  0.3083 -0.2072 -0.3444
90206W        W33300  21.420  17.306  23.483 -0.0215  0.2873 -0.2360
90207W        W33301  21.484  16.308  23.447 -0.2615  0.0852  0.0429
90208W        W33302  21.549  17.725  21.411  0.2030 -0.2981 -0.0178
90209W        W33303  19.293  14.874  22.029  0.0735  0.2040  0.3026
90210W        W33304  19.813  14.807  24.458  0.5049  0.1337  0.2561
90211W        W33305  19.106  15.424  24.057 -0.3659  0.0009  0.0190
90212W        W33306  20.733  16.322  25.226 -0.5599 -0.1371 -0.0377
90213W        W33307  18.402  14.565  21.416 -0.2050  0.1172  0.1977
90214W        W33308  20.973  15.091  23.570  0.0357 -0.2818  0.2596
90215W        W33309  20.653  15.943  21.683 -0.1348 -0.0606 -0.0814
90216W        W33310  21.314  15.202  27.403 -0.0069  0.0221  0.0686
90217W        W33311  20.755  17.385  23.337  0.1497 -0.0342  0.0219
90218W        W33312  21.540  16.548  25.743  0.1122 -0.3303 -0.0040
90219W        W33313  20.929  18.157  22.335  0.1203  0.2878 -0.0086
90220W        W33314  19.352  16.610  24.039 -0.0726 -0.0732  0.0744
90221W        W33315  19.586  14.255  22.082  0.1437  0.0604 -0.0566
90222W        W33316  19.515  19.075  24.349 -0.2212  0.1109  0.0184
90223W        W33317  20.189  17.095  23.132 -0.1167  0.1742 -0.0869
90224W        W33318  19.390  14.585  23.984 -0.2616 -0.0669 -0.0026
90225W        W33319  22.326  18.570  24.199 -0.0300 -0.3079 -0.3114
90226W        W33320  21.055  16.856  22.622 -0.0529 -0.0117  0.1733
90227W        W33321  19.029  17.216  23.639 -0.0407 -0.0675  0.0662
90228W        W33322  20.441  13.753  26.250  0.2304 -0.1451 -0.2243
90229W        W33323  21.682  16.002  24.312  0.3320  0.0792 -0.0083
90230W        W33324  20.519  16.151  22.774  0.0770 -0.0019  0.0341
90231W        W33325  20.719  17.680  22.412  0.1593  0.1343  0.1094
90232W        W33326  18.214  17.967  20.963  0.0501  0.1162 -0.2551
90233W        W33327  19.852  16.941  22.706 -0.0225  0.0754  0.0611
90234W        W33328  20.421  13.629  24.609  0.1121 -0.0665 -0.0551
90235W        W33329  19.631  15.454  24.210 -0.2912  0.1800 -0.0132
90236W        W33330  20.171  16.405  26.378 -0.0937 -0.2401  0.0923
90237W        W33331  19.184  17.895  25.178 -0.0301 -0.0140 -0.1553
90238W        W33332  21.621  15.351  24.889  0.0663 -0.2520 -0.0026
90239W        W33333  21.608  14.936  22.531  0.2720 -0.0561  0.0309
90240W        W33334  19.650  16.542  23.617  0.1221  0.1287  0.2130
90241W        W33335  20.983  17.129  23.671  0.1253  0.2773  0.1568
90242W        W33336  20.874  15.306  22.243 -0.0172  0.0000 -0.0608
90243W        W33337  20.575  13.893  21.784  0.0876  0.0309  0.1573
90244W        W33338  18.244  16.934  24.104 -0.1926 -0.0561  0.0430
90245W        W33339  21.009  16.023  23.019  0.1325 -0.0787  0.1987
90246W        W33340  20.277  17.454  24.242  0.2613 -0.3264 -0.1659
90247W        W33341  20.354  13.192  23.445 -0.0793  0.1128  0.0334
90248W        W33342  22.414  18.044  23.471  0.1745 -0.0547  0.1509
90249W        W33343  22.097  16.519  26.557 -0.1656 -0.1086 -0.0358
90250W        W33344  21.116  17.447  22.618 -0.1571 -0.1540  0.0559
90251W        W33345  20.743  15.281  24.500 -0.1357  0.0376  0.1682
90252W        W33346  18.657  18.989  21.636 -0.1740  0.2037  0.3981
90253W        W33347  20.796  14.940  24.018 -0.3338 -0.1367  0.0817
90254W        W33348  20.620  15.457  23.608 -0.2520 -0.2090 -0.0402
90255W        W33349  20.064  14.576  27.453 -0.0532 -0.1523  0.2308
90256W        W33350  21.157  16.037  25.458  0.1453 -0.0480  0.0173
90257W        W33351  21.284  15.294  21.708 -0.2997 -0.1090  0.0965
90258W        W33352  20.739  17.381  24.021 -0.0849  0.0500 -0.2611
90259W        W33353  20.604  15.847  21.201  0.1931 -0.1948  0.3380
90260W        W33354  20.414  15.086  26.023 -0.0445 -0.1618 -0.0085
90261W        W33355  20.398  16.338  25.638  0.2550 -0.0645  0.1877
90262W        W33356  19.045  17.594  24.302 -0.0569 -0.0401 -0.2416
90263W        W33357  21.559  17.034  25.288 -0.1179 -0.0774 -0.0799
90264W        W33358  21.283  16.618  23.966  0.0695 -0.1541 -0.2453
90265W        W33359  20.396  15.518  26.328  0.1028  0.1202  0.3230
90266W        W33360  20.583  19.012  21.776 -0.0571  0.0240  0.0084
90267W        W33361  19.925  14.566  22.585 -0.2253 -0.0843  0.2518
90268W        W33362  19.973  15.999  24.907  0.1698 -0.3005  0.1399
90269W        W33363  21.811  17.033  23.781 -0.0008 -0.1026  0.3532
90270W        W33364  19.596  18.098  21.832  0.0572  0.0173  0.0436
90271W        W33365  20.264  16.283  25.155  0.1446  0.2151 -0.0060
90272W        W33366  18.374  18.037  22.410  0.1084  0.0475 -0.1702
90273W        W33367  18.943  15.777  21.983  0.0730 -0.4376 -0.0173
90274W        W33368  21.686  14.535  23.518  0.0137  0.2498  0.0557
90275W        W33369  21.214  16.810  22.034  0.0196 -0.2487  0.1899
90276W        W33370  18.548  15.263  24.066  0.4542 -0.2090  0.0858
90277W        W33371  19.508  15.380  22.766 -0.1488 -0.2662 -0.0636
90278W        W33372  19.003  18.033  23.274  0.1361  0.0725 -0.0769
90279W        W33373  20.365  16.608  24.280  0.0714  0.1907  0.1814
90280W        W33374  21.606  13.512  20.717  0.0083  0.2109  0.1836
90281W        W33375  21.642  16.867  23.349 -0.0968 -0.1884  0.0110
90282W        W33376  20.571  15.964  26.700  0.0589 -0.0097  0.0456
90283W        W33377  19.837  14.388  24.780  0.1656 -0.1190 -0.2671
90284W        W33378  18.658  17.573  21.555  0.2922  0.4334 -0.1772
90285W        W33379  20.974  19.168  23.289  0.0991 -0.2514  0.3112
90286W        W33380  19.956  15.808  21.157  0.0886 -0.4416 -0.1674
90287W        W33381  20.403  15.838  24.484 -0.0740 -0.0083 -0.3060
90288W        W33382  20.868  16.669  24.341  0.0302 -0.1885  0.2088
90289W        W33383  20.828  15.635  22.632 -0.1726  0.1623 -0.0509
90290W        W33384  19.703  16.152  23.915 -0.3021 -0.0020 -0.0471
90291W        W33385  20.342  17.330  22.412 -0.1669 -0.1707  0.0301
90292W        W33386  20.368  16.987  23.972 -0.0623  0.0159  0.2448
90293W        W33387  19.748  17.780  26.185 -0.0439 -0.0479  0.3165
90294W        W33388  19.818  14.817  23.968 -0.2181  0.3070  0.1455
90295W        W33389  22.017  18.123  22.076 -0.0573  0.2806  0.0248
90296W        W33390  20.318  15.457  25.694 -0.0738  0.0384 -0.2436
90297W        W33391  20.385  14.840  24.276  0.0144 -0.1322  0.2125
90298W        W33392  19.926  16.110  22.994 -0.1077 -0.0111 -0.3324
90299W        W33393  19.837  17.843  23.132 -0.1005 -0.1282  0.1987
90300W        W33394  21.307  15.493  22.378  0.1804  0.2011 -0.0790
90301W        W33395  19.978  15.136  22.844 -0.0031 -0.2087  0.1857
90302W        W33396  22.541  15.551  26.703 -0.2357 -0.1258 -0.0629
90303W        W33397  22.314  15.046  21.481 -0.2359 -0.1021 -0.2288
90304W        W33398  19.913  13.915  25.992 -0.1121 -0.3473  0.0947
90305W        W33399  21.066  15.486  24.956 -0.1748 -0.0786 -0.0269
90306W        W33400  21.122  17.072  23.114 -0.1521  0.3169 -0.0890
90307W        W33401  19.054  15.376  23.004  0.1714 -0.2399 -0.1522
90308W        W33402  20.686  18.707  24.151  0.2476  0.1575  0.0049
90309W        W33403  21.259  16.955  25.637  0.0392 -0.1292 -0.0003
90310W        W33404  21.188  15.139  22.669  0.1886 -0.1715 -0.1462
90311W        W33405  19.560  15.701  23.809  0.2459  0.1203 -0.0455
90312W        W33406  21.390  16.728  24.463 -0.0944 -0.1903 -0.3372
90313W        W33407  20.399  16.584  21.295  0.0093 -0.1830 -0.2819
90314W        W33408  20.931  15.461  24.032  0.3063  0.1792 -0.1388
90315W        W33409  19.398  16.288  23.170  0.1020  0.1530  0.2448
90316W        W33410  20.631  16.515  22.388 -0.0291 -0.3438 -0.1655
90317W        W33411  21.706  16.598  22.165  0.0941  0.0847 -0.1090
90318W        W33412  20.261  16.016  22.318 -0.2479 -0.1826  0.0317
90319W        W33413  20.059  14.882  25.733  0.3548  0.0592  0.3188
90320W        W33414  21.327  16.373  22.988 -0.0386 -0.1908  0.0385
90321W        W33415  20.703  14.679  23.622 -0.1923  0.2271 -0.1123
90322W        W33416  20.212  16.458  23.813  0.4382 -0.1631  0.3558
90323W        W33417  20.388  15.433  24.793 -0.2046 -0.1256  0.4072
90324W        W33418  19.723  14.857  24.983 -0.0294  0.3862  0.0456
90325W        W33419  19.384  15.217  25.788  0.3081 -0.4132 -0.1029
90326W        W33420  23.090  18.212  26.655  0.0838  0.1474 -0.1887
90327W        W33421  21.340  15.912  22.107  0.2104  0.1237  0.1780
90328W        W33422  19.536  15.698  25.113  0.0578  0.3383 -0.1906
90329W        W33423  21.206  14.685  23.715 -0.0742 -0.1266 -0.0738
90330W        W33424  21.621  15.758  21.573  0.3997 -0.1940 -0.0538
90331W        W33425  18.997  16.208  22.860  0.0706  0.0559  0.2945
90332W        W33426  21.464  15.189  28.627 -0.0614 -0.4297 -0.0123
90333W        W33427  19.889  14.463  21.387 -0.0994 -0.1799 -0.1545
90334W        W33428  20.549  17.084  24.412 -0.0005 -0.1071  0.2941
90335W        W33429  21.410  17.145  22.385 -0.3167  0.2745 -0.0531
90336W        W33430  21.016  14.207  23.597  0.0915 -0.2042 -0.0705
90337W        W33431  18.431  14.831  22.478  0.1124 -0.0206  0.1696
90338W        W33432  19.061  17.951  24.694 -0.0210  0.0018 -0.2003
90339W        W33433  20.035  18.145  25.456 -0.4029 -0.0232 -0.2524
90340W        W33434  21.225  16.037  27.513  0.2000 -0.0620 -0.2203
90341W        W33435  20.085  14.063  22.724 -0.0096  0.6124  0.2075
90342W        W33436  21.905  15.374  26.965 -0.2143  0.0018  0.3651
90343W        W33437  21.335  14.321  25.081 -0.2057 -0.1748 -0.1462
90344W        W33438  18.945  17.788  23.687  0.0961  0.0002 -0.1546
90345W        W33439  19.231  16.254  23.668 -0.2182  0.1492  0.1124
90346W        W33440  20.284  13.606  25.747 -0.1150  0.2072 -0.0839
90347W        W33441  20.976  15.530  25.475 -0.1053  0.1512  0.2163
90348W        W33442  19.940  15.615  23.076  0.2635 -0.0988 -0.2460
90349W        W33443  22.505  16.445  27.381  0.2480  0.3334 -0.2687
90350W        W33444  20.626  17.683  25.429 -0.3168 -0.0848  0.0186
90351W        W33445  19.316  15.965  24.177  0.1921  0.1311 -0.1741
90352W        W33446  20.772  17.982  23.342 -0.0464  0.0269  0.3175
90353W        W33447  22.237  16.711  24.052 -0.1584  0.0437 -0.0025
90354W        W33448  20.440  18.019  21.929 -0.0992  0.1741  0.1781
90355W        W33449  19.738  16.451  24.601 -0.1306  0.1598  0.1804
90356W        W33450  20.834  15.815  22.170 -0.0199 -0.2070 -0.0619
90357W        W33451  20.447  14.946  23.268  0.0819 -0.1526 -0.2323
90358W        W33452  20.823  17.349  21.554 -0.1702  0.0929 -0.0649
90359W        W33453  19.835  17.698  23.617 -0.1801 -0.0947  0.2045
90360W        W33454  19.723  16.691  23.150 -0.0636 -0.1120 -0.0052
90361W        W33455  19.674  18.739  22.573  0.0986  0.1963  0.2394
90362W        W33456  21.861  17.141  22.006 -0.0110 -0.0478 -0.0438
90363W        W33457  20.986  16.363  21.916  0.0661 -0.0070  0.1081
90364W        W33458  20.556  16.932  23.505 -0.2043 -0.0938  0.2482
90365W        W33459  19.647  13.744  22.312 -0.3296  0.0443 -0.0091
90366W        W33460  19.602  17.808  22.710  0.1830 -0.1656  0.0746
90367W        W33461  18.487  16.039  19.610  0.1477 -0.0902 -0.3273
90368W        W33462  21.713  17.531  22.559 -0.0550  0.4009  0.1441
90369W        W33463  19.840  18.630  23.243 -0.2235 -0.0445  0.1082
90370W        W33464  22.525  17.040  27.243 -0.0890  0.2199 -0.0624
90371W        W33465  21.412  14.400  21.905 -0.1850  0.2087 -0.1032
90372W        W33466  21.313  16.595  25.265  0.0108 -0.2802  0.1373
90373W        W33467  23.620  15.856  22.355 -0.1391 -0.1740 -0.1589
90374W        W33468  22.196  16.984  24.543 -0.0023  0.5340 -0.0007
90375W        W33469  19.149  17.151  24.086  0.0315 -0.2323  0.2359
90376W        W33470  20.403  16.890  25.513 -0.2325  0.1947 -0.0112
90377W        W33471  22.260  14.837  27.619 -0.1064 -0.2611 -0.0215
90378W        W33472  18.114  18.946  24.510  0.1456 -0.0973  0.0933
90379W        W33473  22.845  16.860  22.269 -0.2244  0.1425 -0.0069
90380W        W33474  19.451  15.710  21.145 -0.0356  0.3144  0.0777
90381W        W33475  20.023  16.845  23.549 -0.0829  0.2230 -0.3217
90382W        W33476  20.606  14.380  25.395 -0.1056  0.0826 -0.0588
90383W        W33477  20.414  15.940  23.845 -0.2341 -0.0954 -0.0652
90384W        W33478  19.135  18.613  22.457  0.2269 -0.1215 -0.1539
90385W        W33479  20.017  17.816  22.279  0.0401 -0.1446  0.0277
90386W        W33480  20.313  17.507  23.734 -0.0156  0.1338 -0.0788
90387W        W33481  21.029  16.206  22.534 -0.1925  0.1133  0.1509
90388W        W33482  20.011  15.683  24.015  0.0947 -0.3659  0.0330
90389W        W33483  20.563  14.857  25.521 -0.1923  0.0992 -0.0884
90390W        W33484  21.120  15.705  23.535  0.2252  0.1779 -0.2352
90391W        W33485  21.245  18.264  23.186 -0.1098  0.0122  0.0221
90392W        W33486  19.080  16.127  26.191  0.0132  0.0549  0.3170
90393W        W33487  20.034  15.830  20.216  0.0974  0.0088  0.2501
90394W        W33488  20.831  17.139  25.666  0.1269  0.2851 -0.1591
90395W        W33489  21.658  17.256  21.500 -0.1573  0.4068 -0.0186
90396W        W33490  21.399  17.342  24.015 -0.2509  0.2458 -0.1057
90397W        W33491  21.899  13.817  22.280 -0.0758 -0.0812 -0.1699
90398W        W33492  20.315  15.693  22.669 -0.0198  0.4628 -0.3530
90399W        W33493  20.072  16.981  24.556 -0.1069  0.2956 -0.2473
90400W        W33494  22.189  17.503  26.666 -0.0990 -0.0034  0.2274
90401W        W33495  19.880  13.439  23.393  0.2184 -0.1923  0.0037
90402W        W33496  21.838  16.797  21.593 -0.1938  0.0075 -0.3493
90403W        W33497  21.253  16.264  24.334 -0.1676  0.0814 -0.1350
90404W        W33498  20.181  17.944  20.996 -0.2602 -0.0975  0.0514
90405W        W33499  20.905  15.456  23.089 -0.2033 -0.2509 -0.0127
90406W        W33500  20.766  17.728  22.907 -0.1109 -0.1451 -0.0241
90407W        W33501  20.283  18.136  23.070 -0.2346 -0.0224 -0.2120
90408W        W33502  21.282  17.971  22.790 -0.3676 -0.4605 -0.0205
90409W        W33503  20.695  14.420  24.061 -0.1042 -0.0784  0.1754
90410W        W33504  20.778  16.239  24.640  0.1730 -0.1523  0.0899
90411W        W33505  21.438  15.632  25.263  0.1234 -0.3304 -0.0028
90412W        W33506  19.587  14.853  25.481  0.0012 -0.2159  0.2851
90413W        W33507  20.771  18.049  21.075 -0.0202  0.0973  0.4847
90414W        W33508  21.553  16.067  27.882  0.3210  0.3161  0.3298
90415W        W33509  20.290  17.609  23.204 -0.0531  0.0923 -0.4299
90416W        W33510  20.820  18.205  24.901  0.0587 -0.0626 -0.2501
90417W        W33511  19.636  16.167  20.975 -0.0762 -0.1529  0.1473
90418W        W33512  20.938  17.552  24.475 -0.0306  0.0464  0.1144
90419W        W33513  19.731  17.089  21.902  0.1961  0.0895  0.2347
90420W        W33514  20.965  18.753  21.514  0.4835 -0.0485  0.1485
90421W        W33515  22.630  16.843  25.930  0.3365  0.4306 -0.1850
90422W        W33516  20.321  16.786  22.667 -0.3835 -0.1289  0.2640
90423W        W33517  22.643  16.614  24.518  0.1789 -0.0682  0.0928
90424W        W33518  19.423  15.917  22.744  0.0191 -0.0254 -0.0040
90425W        W33519  22.498  14.728  23.910  0.2326 -0.1805  0.2672
90426W        W33520  21.322  15.130  25.245 -0.3683 -0.2870  0.0695
90427W        W33521  19.478  17.015  23.728 -0.2237 -0.1310  0.3016
90428W        W33522  18.773  16.953  20.767 -0.0353 -0.2711  0.2590
90429W        W33523  18.338  16.303  20.582 -0.0611  0.1504 -0.2722
90430W        W33524  18.857  14.054  26.264  0.1880  0.2742 -0.1196
90431W        W33525  18.402  14.440  27.399 -0.3256 -0.1723 -0.0377
90432W        W33526  19.417  17.186  22.991  0.3012  0.1127  0.0592
90433W        W33527  22.068  17.749  23.083  0.0500 -0.0302 -0.1776
90434W        W33528  20.059  15.233  24.263 -0.3003 -0.1296 -0.0086
90435W        W33529  18.996  14.739  22.687  0.2248 -0.1710  0.2879
90436W        W33530  21.522  16.135  22.528  0.3288 -0.0199 -0.1139
90437W        W33531  21.762  17.767  24.144  0.0616 -0.0844 -0.0368
90438W        W33532  20.058  14.038  22.125 -0.1764  0.2200 -0.1901
90439W        W33533  21.961  17.353  25.442 -0.3792  0.1093 -0.1065
90440W        W33534  18.605  15.444  20.810 -0.1756 -0.1332 -0.1833
90441W        W33535  20.768  16.136  24.149 -0.4892  0.3526 -0.1169
90442W        W33536  20.315  14.946  24.809 -0.2638 -0.0124  0.2036
90443W        W33537  19.810  15.967  23.478  0.0212 -0.2271 -0.0799
90444W        W33538  20.666  17.252  22.828 -0.0038  0.4367  0.2808
90445W        W33539  21.140  18.299  21.435 -0.2716  0.1106  0.1456
90446W        W33540  20.136  16.839  26.081  0.0517 -0.2693 -0.0125
90447W        W33541  21.796  16.781  24.838  0.2405  0.0247  0.2689
90448W        W33542  19.098  15.344  26.194  0.1651 -0.3270  0.1848
90449W        W33543  21.320  15.712  22.837  0.3614  0.4564 -0.0712
90450W        W33544  19.906  17.230  23.840 -0.0550  0.0044 -0.2604
90451W        W33545  21.996  16.554  22.626 -0.3765 -0.1196 -0.1999
90452W        W33546  21.084  14.648  25.404 -0.1713  0.0467 -0.2138
90453W        W33547  21.684  15.983  23.022 -0.2069  0.1498 -0.1359
90454W        W33548  19.058  14.568  26.838  0.1760  0.1537 -0.0795
90455W        W33549  19.262  16.826  23.310  0.0357  0.0581  0.0252
90456W        W33550  22.637  16.431  23.945 -0.0779  0.1035  0.2121
90457W        W33551  19.978  14.095  23.802 -0.2424  0.1032 -0.1913
90458W        W33552  21.692  14.908  23.822  0.1296  0.1085  0.0502
90459W        W33553  20.226  16.592  23.106 -0.4056  0.1490  0.0136
90460W        W33554  20.537  15.004  21.983 -0.1182  0.0566 -0.3360
90461W        W33555  19.806  17.317  23.331  0.1206 -0.2108 -0.3220
90462W        W33556  19.553  17.231  24.385 -0.0963  0.2573  0.2193
90463W        W33557  21.428  16.227  26.952  0.0825 -0.1779 -0.2579
90464W        W33558  21.971  17.028  22.968  0.3552 -0.2213 -0.1419
90465W        W33559  21.675  17.168  24.502 -0.0748 -0.3563 -0.0073
90466W        W33560  22.055  17.998  25.818  0.2525 -0.1305  0.0165
90467W        W33561  20.324  18.663  22.854  0.0271  0.0464  0.1278
90468W        W33562  22.269  18.044  24.780  0.3080  0.0441  0.0831
90469W        W33563  19.411  15.109  23.866  0.0976  0.1572 -0.1166
90470W        W33564  19.802  16.008  21.591 -0.1620  0.2120  0.2461
90471W        W33565  20.074  16.464  22.396  0.2272 -0.2795 -0.2319
90472W        W33566  20.435  15.507  24.120 -0.0545 -0.1423  0.4387
90473W        W33567  20.243  16.163  23.377  0.2667 -0.0596  0.0633
90474W        W33568  22.020  13.420  22.923 -0.1264  0.2485 -0.0299
90475W        W33569  19.936  18.162  22.701  0.0306  0.5001 -0.2700
90476W        W33570  19.577  16.470  22.689  0.2300 -0.0354  0.1205
90477W        W33571  19.380  17.520  28.996  0.1036 -0.2298 -0.0380
90478W        W33572  18.748  15.573  26.916 -0.1395 -0.0854  0.0437
90479W        W33573  22.746  15.861  28.551 -0.3431  0.0707  0.0910
90480W        W33574  20.346  15.805  27.572 -0.0031 -0.1437  0.2505
90481W        W33575  17.877  14.548  25.207  0.1569 -0.1411 -0.2993
90482W        W33576  20.458  18.605  27.349  0.2944  0.0624  0.2724
90483W        W33577  18.861  14.861  29.867 -0.3816 -0.2462 -0.0227
90484W        W33578  20.304  17.825  28.313 -0.2762  0.0384 -0.1320
90485W        W33579  18.902  18.899  29.609  0.1629 -0.1625 -0.1589
90486W        W33580  21.102  16.720  26.917  0.0305 -0.1031 -0.0582
90487W        W33581  19.818  15.550  27.553 -0.2699  0.0655  0.0722
90488W        W33582  20.128  17.629  29.204 -0.0456  0.3141  0.1587
90489W        W33583  19.933  15.069  27.600  0.0642  0.0218  0.0698
90490W        W33584  18.197  15.277  27.328  0.0150  0.0256 -0.1818
90491W        W33585  21.277  15.308  30.394 -0.0990  0.0197  0.2879
90492W        W33586  19.307  16.964  25.685  0.2909  0.0156  0.0462
90493W        W33587  19.780  16.993  27.372  0.2203  0.0807  0.0265
90494W        W33588  18.095  15.683  26.237 -0.2374 -0.3206 -0.0069
90495W        W33589  19.950  18.777  27.172 -0.2107 -0.0523 -0.0219
90496W        W33590  20.411  14.138  30.031  0.0677  0.0081 -0.1673
90497W        W33591  20.765  14.614  29.055  0.0416  0.2948  0.1045
90498W        W33592  19.588  17.335  26.445 -0.0045  0.1216  0.0497
90499W        W33593  18.532  14.782  24.279  0.1178  0.0117 -0.2694
90500W        W33594  18.364  15.160  26.899 -0.0590 -0.0258  0.0570
90501W        W33595  19.816  16.570  28.290 -0.2570  0.0021 -0.3421
90502W        W33596  21.182  16.061  28.339  0.0025  0.1103  0.3035
90503W        W33597  20.269  16.174  29.106  0.2260  0.0347  0.0597
90504W        W33598  20.689  18.039  26.040  0.0320  0.0794 -0.4097
90505W        W33599  19.997  18.460  27.536 -0.2314  0.0571 -0.0959
90506W        W33600  20.769  16.111  31.253 -0.2325  0.0855  0.0326
90507W        W33601  18.677  16.104  24.558  0.1055 -0.1740 -0.2099
90508W        W33602  19.937  18.278  26.528  0.1918 -0.0744 -0.0381
90509W        W33603  18.502  18.475  25.190  0.0097 -0.1784 -0.4586
90510W        W33604  21.066  17.471  28.021  0.1461  0.0879  0.1017
90511W        W33605  20.539  17.029  30.371  0.0825  0.1254  0.2032
90512W        W33606  18.176  18.443  28.654 -0.1084 -0.0711  0.1357
90513W        W33607  21.065  18.381  25.849  0.1195 -0.2327  0.1937
90514W        W33608  20.836  17.973  29.224 -0.1612 -0.2061  0.1880
90515W        W33609  19.140  19.383  29.768 -0.0584 -0.1307 -0.0387
90516W        W33610  19.928  16.224  29.564  0.1867  0.2274  0.0551
90517W        W33611  21.351  16.572  26.548  0.1512 -0.0105  0.0188
90518W        W33612  19.970  16.769  25.594  0.0862  0.1619 -0.2443
90519W        W33613  20.041  16.993  28.422  0.1240 -0.0137  0.4749
90520W        W33614  19.527  17.610  28.481 -0.0951  0.1721  0.1959
90521W        W33615  19.135  17.764  27.383  0.0131  0.2081  0.2971
90522W        W33616  22.152  16.291  30.795 -0.2173  0.0350  0.1860
90523W        W33617  19.835  19.792  24.873 -0.0057 -0.0654 -0.2268
90524W        W33618  20.922  15.533  27.485 -0.2288 -0.6617 -0.0411
90525W        W33619  19.490  15.792  26.268 -0.0515 -0.1403  0.2269
90526W        W33620  20.658  15.966  27.218  0.0467 -0.1745  0.1752
90527W        W33621  20.087  14.147  27.912  0.0250  0.0389  0.3081
90528W        W33622  19.027  18.214  29.356  0.1122 -0.0314 -0.0112
90529W        W33623  18.500  15.257  28.223  0.1790  0.1600  0.0737
90530W        W33624  20.930  17.360  30.059 -0.1288  0.1524  0.1910
90531W        W33625  20.691  17.832  23.853  0.0198 -0.3403 -0.2468
90532W        W33626  20.403  14.869  27.793 -0.2016 -0.1773  0.0589
90533W        W33627  19.360  18.361  30.064  0.0268  0.5222  0.1229
90534W        W33628  17.784  15.681  27.683 -0.0110  0.1300  0.1970
90535W        W33629  20.927  19.268  26.213  0.2066 -0.0221  0.1585
90536W        W33630  21.336  18.852  27.232 -0.0082 -0.6689 -0.0744
90537W        W33631  20.286  18.595  24.705  0.2877 -0.0937 -0.1174
90538W        W33632  19.580  16.421  26.366 -0.1419  0.0450 -0.1773
90539W        W33633  18.620  17.384  29.643  0.2401  0.5471  0.0468
90540W        W33634  19.150  15.947  28.432  0.3861  0.1105 -0.0110
90541W        W33635  18.915  14.121  25.699 -0.0285 -0.2059  0.0295
90542W        W33636  21.105  16.119  30.167 -0.1405  0.0800  0.0195
90543W        W33637  18.204  18.107  29.134  0.3214 -0.0627 -0.1214
90544W        W33638  21.348  14.858  28.045  0.2092  0.0167 -0.2379
90545W        W33639  19.359  17.347  27.358  0.0022 -0.1588  0.1919
90546W        W33640  20.592  17.552  29.072  0.0099  0.0426 -0.3183
90547W        W33641  21.309  15.930  26.506 -0.1236 -0.5015 -0.0631
90548W        W33642  21.114  15.557  28.238 -0.1639 -0.4816  0.0140
90549W        W33643  20.463  14.251  29.391 -0.0228  0.1219  0.0827
90550W        W33644  20.408  17.493  24.685  0.0435  0.0737 -0.0408
90551W        W33645  20.619  16.734  25.907  0.0707  0.0330  0.0087
90552W        W33646  20.992  16.966  30.612  0.2488  0.0486 -0.1872
90553W        W33647  21.496  17.847  27.216  0.1125 -0.1073  0.2937
90554W        W33648  19.222  19.213  29.011 -0.1130 -0.4643 -0.0064
90555W        W33649  19.660  15.008  30.000  0.0380  0.1997  0.2690
90556W        W33650  19.395  16.809  30.122  0.3034 -0.0184 -0.1350
90557W        W33651  19.017  17.117  24.527 -0.0060 -0.2093  0.0174
90558W        W33652  18.555  17.220  27.973  0.1156  0.0771  0.2470
90559W        W33653  19.585  17.029  24.851  0.0287 -0.0564 -0.0227
90560W        W33654  17.977  14.485  28.296 -0.1539  0.0963  0.2824
90561W        W33655  18.800  15.726  28.887  0.0401  0.0144  0.1325
90562W        W33656  20.567  15.483  26.913 -0.0022  0.0376  0.0524
90563W        W33657  18.474  15.007  28.695  0.0494  0.1089 -0.1558
90564W        W33658  21.788  14.427  28.739 -0.0322  0.2347  0.1260
90565W        W33659  20.294  17.734  25.804  0.1678 -0.2406  0.3284
90566W        W33660  21.025  18.055  25.480  0.1096  0.0895  0.5353
90567W        W33661  19.618  17.016  25.342 -0.0018 -0.4419 -0.1786
90568W        W33662  20.770  18.531  25.313  0.1093  0.1275  0.0219
90569W        W33663  19.246  16.305  27.469 -0.2108 -0.0538  0.4449
90570W        W33664  17.788  15.396  26.523 -0.0421  0.1894 -0.1826
90571W        W33665  19.006  15.304  29.080 -0.3730  0.2060  0.0342
90572W        W33666  18.888  14.651  28.457  0.2099 -0.1585  0.2079
90573W        W33667  20.999  16.861  29.962  0.2060 -0.2078  0.2527
90574W        W33668  19.235  14.932  24.827  0.2517  0.1537  0.0529
90575W        W33669  21.035  17.648  26.967  0.0481 -0.2093  0.1781
90576W        W33670  20.587  17.235  25.204  0.0125  0.2772  0.1843
90577W        W33671  18.612  15.874  26.414  0.0545 -0.1591 -0.0194
90578W        W33672  20.702  15.586  29.488  0.0171  0.0211  0.5252
90579W        W33673  21.278  19.020  28.416  0.1732 -0.0966 -0.0583
90580W        W33674  20.706  18.231  29.829  0.0039 -0.2356  0.2222
90581W        W33675  20.269  18.333  28.630  0.1028 -0.0032  0.2353
90582W        W33676  19.389  15.248  27.581  0.2112 -0.2750 -0.3010
90583W        W33677  19.378  15.247  25.219  0.0139  0.1362 -0.0326
90584W        W33678  18.588  18.373  26.952 -0.0453 -0.2748  0.0908
90585W        W33679  19.132  17.377  26.551 -0.3382 -0.0691 -0.1478
90586W        W33680  19.817  15.384  25.533  0.1990 -0.0122  0.2458
90587W        W33681  21.102  19.629  28.918  0.3759 -0.0081  0.1063
90588W        W33682  20.075  17.287  29.765  0.1656  0.1796  0.2982
90589W        W33683  18.859  17.706  28.688 -0.1938 -0.1670 -0.0088
90590W        W33684  20.628  14.397  30.389 -0.2773 -0.1807 -0.2486
90591W        W33685  20.757  16.546  30.322 -0.0029 -0.3097  0.2081
90592W        W33686  19.769  16.829  28.841 -0.0112  0.1973  0.2035
90593W        W33687  18.870  15.395  25.049  0.0828  0.0831  0.3343
90594W        W33688  20.015  20.202  27.307 -0.1365 -0.0861  0.1776
90595W        W33689  18.617  17.205  23.930 -0.2617 -0.0600 -0.0917
90596W        W33690  20.724  17.089  26.954  0.0203  0.1879  0.0044
90597W        W33691  20.007  17.442  28.204  0.1151  0.1451 -0.2390
90598W        W33692  20.967  14.301  29.422 -0.2081 -0.0025  0.1880
90599W        W33693  18.692  15.869  28.266 -0.1923  0.1005  0.0508
90600W        W33694  19.743  16.540  30.402 -0.2339  0.1378  0.1817
90601W        W33695  18.445  15.899  25.016  0.0700  0.0552  0.0823
90602W        W33696  19.918  17.779  29.621  0.3079  0.0607  0.1465
90603W        W33697  19.778  14.071  28.691  0.1641  0.2261 -0.1882
90604W        W33698  22.206  15.687  28.293  0.2446  0.0160 -0.1157
90605W        W33699  19.310  16.725  29.646  0.2040  0.0332 -0.1498
90606W        W33700  21.561  17.563  27.664  0.0831  0.1035 -0.1572
90607W        W33701  21.718  15.836  26.843 -0.2288 -0.2621  0.2686
90608W        W33702  20.555  14.494  26.977 -0.0646 -0.0747  0.2781
90609W        W33703  19.160  17.935  29.888  0.1663  0.0217  0.4958
90610W        W33704  21.229  18.016  27.661  0.1220 -0.3141  0.3321
90611W        W33705  20.567  16.707  30.825 -0.2105  0.0917  0.3817
90612W        W33706  19.802  15.178  27.159  0.0116 -0.1818  0.0217
90613W        W33707  21.836  17.847  26.835  0.2809 -0.0930 -0.0906
90614W        W33708  18.694  16.809  25.843  0.2628 -0.0966  0.1819
90615W        W33709  19.356  15.999  31.061 -0.1161  0.0187 -0.2729
90616W        W33710  20.700  17.716  27.852 -0.1350  0.0216 -0.1305
90617W        W33711  18.157  14.597  28.733 -0.0971  0.7329  0.4153
90618W        W33712  20.499  16.682  24.762  0.1455 -0.0421  0.0601
90619W        W33713  19.266  14.489  25.619 -0.1726  0.0049  0.0080
90620W        W33714  18.371  18.674  24.175 -0.1730  0.2860  0.0628
90621W        W33715  20.369  13.200  29.721 -0.1519 -0.4742  0.1566
90622W        W33716  20.069  15.889  28.712  0.0721  0.0463  0.1561
90623W        W33717  20.950  13.562  30.417 -0.0481 -0.1745 -0.0617
90624W        W33718  20.173  16.044  30.617  0.1523 -0.1293  0.2399
90625W        W33719  20.607  17.615  26.293 -0.1573  0.1515  0.2485
90626W        W33720  20.532  16.090  28.674  0.1410  0.1698 -0.0616
90627W        W33721  19.744  17.210  26.933 -0.0804  0.0785  0.1272
90628W        W33722  18.877  14.980  28.016 -0.1132 -0.2972 -0.0907
90629W        W33723  19.804  17.348  28.793 -0.0519  0.1575 -0.2141
90630W        W33724  17.931  16.815  28.583  0.2263  0.2124 -0.2063
90631W        W33725  20.789  17.677  29.684  0.0706  0.0127 -0.4727
90632W        W33726  21.180  18.534  28.175 -0.2037 -0.2125 -0.2589
90633W        W33727  20.438  14.922  30.656  0.5620  0.0029 -0.2938
90634W        W33728  20.550  16.595  26.909  0.3823  0.2361 -0.1915
90635W        W33729  19.345  18.242  26.192  0.0904 -0.4505  0.2054
90636W        W33730  19.856  15.336  24.960 -0.2638 -0.0410  0.2495
90637W        W33731  19.704  14.168  28.229  0.2340 -0.2194  0.1685
90638W        W33732  19.289  18.324  27.502 -0.1779  0.2887 -0.0340
90639W        W33733  18.845  18.063  25.993 -0.2142  0.1452  0.0152
90640W        W33734  19.718  16.016  29.115  0.4752  0.0866  0.4210
90641W        W33735  19.577  16.521  25.455 -0.0765 -0.1991 -0.0413
90642W        W33736  21.212  13.763  29.243  0.1292  0.0121  0.2826
90643W        W33737  19.312  17.511  27.815  0.0983  0.0840 -0.3678
90644W        W33738  19.930  15.297  26.011  0.0319 -0.3731 -0.0679
90645W        W33739  18.843  15.744  26.007  0.0615 -0.0519  0.1881
90646W        W33740  20.753  14.935  28.159 -0.0638  0.2750  0.0707
90647W        W33741  21.847  17.611  28.575  0.0391 -0.0875  0.2176
90648W        W33742  19.003  16.204  28.002  0.1094 -0.1231  0.2250
90649W        W33743  20.192  15.068  28.296  0.0819  0.1050 -0.1897
90650W        W33744  17.505  17.764  28.370 -0.1442 -0.4769  0.1782
90651W        W33745  19.552  16.967  29.284 -0.2411  0.0483  0.0720
90652W        W33746  21.739  14.721  27.507  0.4070  0.2187  0.1679
90653W        W33747  20.858  16.875  29.388  0.0755  0.2778  0.1442
90654W        W33748  18.919  16.348  29.511  0.0540  0.0411 -0.2061
90655W        W33749  18.680  16.294  25.729  0.0160  0.3560  0.0550
90656W        W33750  20.384  15.449  28.622  0.3198  0.0187 -0.3215
90657W        W33751  18.835  16.419  27.118  0.1043 -0.0888  0.0949
90658W        W33752  19.675  17.498  25.129  0.0053 -0.2080 -0.0671
90659W        W33753  20.515  17.286  29.510  0.2217 -0.1859 -0.1415
90660W        W33754  19.864  16.846  26.490  0.0414  0.1029  0.1068
90661W        W33755  19.267  16.550  26.772 -0.2323  0.0686  0.0231
90662W        W33756  20.085  15.539  28.004 -0.0006  0.0528 -0.0370
90663W        W33757  21.077  17.038  28.282 -0.1325  0.0694 -0.2071
90664W        W33758  20.089  16.548  27.206 -0.2819 -0.2202 -0.0829
90665W        W33759  19.028  14.222  28.140 -0.0091  0.1456 -0.2489
90666W        W33760  18.964  17.285  28.197 -0.1375 -0.1895 -0.0065
90667W        W33761  20.235  17.031  26.898  0.1849 -0.1104 -0.0262
90668W        W33762  20.392  15.416  29.823  0.1557  0.0464 -0.0367
90669W        W33763  18.886  18.365  29.835  0.1569  0.3251  0.0442
90670W        W33764  20.681  12.892  29.060  0.0668  0.1627 -0.0880
90671W        W33765  20.876  18.012  27.301  0.0353 -0.0204  0.3533
90672W        W33766  20.377  16.694  29.468 -0.0637  0.2783  0.4706
90673W        W33767  19.543  16.008  26.729  0.2546  0.2523  0.0399
90674W        W33768  18.863  16.756  26.378 -0.0331  0.0064 -0.0205
90675W        W33769  19.959  16.382  25.915 -0.1162  0.0468  0.0466
90676W        W33770  20.416  14.849  28.750  0.0328  0.0267 -0.0187
90677W        W33771  20.195  17.766  27.748 -0.0081 -0.2365  0.1588
90678W        W33772  21.557  18.826  26.762 -0.0366  0.2232  0.3593
90679W        W33773  18.611  17.515  27.476  0.0253 -0.1764  0.0955
90680W        W33774  21.374  13.472  27.751 -0.2091 -0.1467  0.1651
90681W        W33775  21.280  17.358  25.977 -0.4061  0.2425 -0.0733
90682W        W33776  20.497  17.067  26.436  0.0982  0.0514 -0.2593
90683W        W33777  22.186  15.486  31.745 -0.2673 -0.5418 -0.2742
90684W        W33778  21.506  17.502  26.769 -0.1575 -0.1807  0.1067
90685W        W33779  21.059  14.941  29.559  0.1936 -0.1797  0.1676
90686W        W33780  19.500  14.025  29.831 -0.2104 -0.5326 -0.3449
90687W        W33781  21.532  18.435  27.736  0.0653  0.1107  0.0308
90688W        W33782  18.579  16.234  27.830  0.0769 -0.0515 -0.0159
90689W        W33783  18.900  18.632  30.748  0.0952 -0.0767  0.2227
90690W        W33784  19.345  14.972  29.644 -0.2801 -0.1547  0.0219
90691W        W33785  20.470  14.361  27.615 -0.1481  0.2673  0.2448
90692W        W33786  18.567  14.851  26.571 -0.0045 -0.2719  0.0649
90693W        W33787  18.284  17.368  27.062  0.0506  0.1673  0.3315
90694W        W33788  20.431  18.798  28.804  0.3104  0.0069  0.1948
90695W        W33789  21.290  17.828  24.060 -0.1224  0.4240  0.2032
90696W        W33790  21.874  15.831  28.760  0.2772 -0.1088 -0.0296
90697W        W33791  19.041  16.107  26.683  0.0057 -0.3293  0.0822
90698W        W33792  20.954  16.344  27.219  0.0051  0.0353 -0.1482
90699W        W33793  21.287  18.249  26.305  0.0626  0.2295  0.2603
90700W        W33794  19.445  17.961  26.564  0.2353  0.2943 -0.0531
90701W        W33795  18.288  15.638  26.700  0.0211 -0.2861 -0.0979
90702W        W33796  20.861  16.623  28.873 -0.0797  0.0385  0.0143
90703W        W33797  19.975  16.162  27.651  0.2458 -0.2270 -0.0351
90704W        W33798  19.908  15.442  28.973  0.2780 -0.1709  0.0492
90705W        W33799  19.920  16.067  28.287 -0.0634 -0.3975  0.0062
90706W        W33800  19.357  15.084  28.627 -0.1786 -0.0901  0.1822
90707W        W33801  18.255  13.875  28.890 -0.1939  0.1352 -0.0337
90708W        W33802  20.694  18.765  30.366 -0.2395 -0.1786  0.1971
90709W        W33803  20.215  15.124  25.294  0.0202 -0.1371 -0.1325
90710W        W33804  21.324  14.889  30.963  0.0990 -0.0203 -0.1930
90711W        W33805  20.381  15.332  27.461 -0.2659  0.2488  0.1857
90712W        W33806  20.201  16.559  27.922  0.2336  0.2112 -0.3201
90713W        W33807  18.414  13.691  28.511  0.3889  0.2090  0.0087
90714W        W33808  19.103  15.944  29.219 -0.0152  0.0820  0.0119
90715W        W33809  19.241  14.270  27.670  0.2129  0.1042 -0.1105
90716W        W33810  20.686  16.477  29.803 -0.1501  0.0685 -0.1712
90717W        W33811  20.388  17.285  25.947 -0.4866  0.2116  0.0238
90718W        W33812  20.944  18.470  28.810 -0.0089 -0.0627  0.2599
90719W        W33813  20.561  16.331  27.539  0.3829  0.3959  0.1532
90720W        W33814  18.536  15.328  26.344 -0.1516  0.1547 -0.1259
90721W        W33815  18.635  17.118  30.527 -0.1227  0.1426  0.0390
90722W        W33816  19.522  15.936  24.608 -0.1716 -0.0528 -0.0185
90723W        W33817  21.066  17.417  25.248  0.3020  0.3436 -0.0221
90724W        W33818  20.293  17.248  27.704 -0.2272 -0.2558  0.2121
90725W        W33819  21.062  16.492  30.705 -0.0018 -0.0798  0.1681
90726W        W33820  19.173  13.842  27.891 -0.1010  0.1159  0.0934
90727W        W33821  21.033  15.996  29.636  0.0476 -0.2289 -0.2527
90728W        W33822  19.925  17.413  24.684 -0.0793 -0.3439  0.1993
90729W        W33823  19.908  14.676  27.939  0.0561 -0.1808 -0.2405
90730W        W33824  19.323  17.975  25.722  0.0102  0.2723 -0.3619
90731W        W33825  19.186  16.632  28.063 -0.1247 -0.1775  0.1348
90732W        W33826  20.405  18.480  26.553 -0.2949  0.3152 -0.0472
90733W        W33827  20.349  14.581  28.198  0.1572  0.0297 -0.2159
90734W        W33828  21.148  17.440  27.400  0.0856  0.1488  0.1491
90735W        W33829  19.890  16.596  29.274  0.1883 -0.0902  0.1506
90736W        W33830  19.483  16.309  29.418 -0.4381  0.1365 -0.1514
90737W        W33831  19.888  16.682  29.769  0.0737 -0.3656  0.0379
90738W        W33832  19.683  17.711  27.241  0.2279 -0.1913 -0.1209
90739W        W33833  20.026  16.955  30.152  0.1014 -0.1530  0.0404
90740W        W33834  21.435  17.720  28.277  0.2677 -0.0517 -0.2219
90741W        W33835  19.927  17.705  26.735 -0.0462  0.3036  0.0403
90742W        W33836  19.313  13.502  29.849  0.1171 -0.1556 -0.0485
90743W        W33837  19.653  17.486  30.858 -0.1591  0.1349 -0.0270
90744W        W33838  20.394  16.784  28.973 -0.2330  0.2137  0.0403
90745W        W33839  18.968  13.416  27.211 -0.0374  0.0727 -0.2383
90746W        W33840  20.862  17.603  25.838 -0.0651 -0.3223  0.0160
90747W        W33841  19.692  18.702  30.306 -0.0372  0.1653  0.0912
90748W        W33842  17.818  16.192  27.413  0.1613 -0.4128  0.0623
90749W        W33843  18.824  18.906  25.636  0.1248  0.2705  0.0189
90750W        W33844  20.017  17.323  26.320 -0.2494  0.1086  0.0387
90751W        W33845  20.391  17.423  28.663 -0.1708 -0.1270  0.1039
90752W        W33846  19.479  18.344  29.103 -0.0532 -0.2825  0.0942
90753W        W33847  19.674  15.523  26.778 -0.1172 -0.1226 -0.0379
90754W        W33848  20.782  18.608  26.226  0.6595 -0.0422  0.1381
90755W        W33849  18.538  17.113  24.447 -0.2146  0.2343 -0.2717
90756W        W33850  21.096  18.434  27.346  0.2234  0.1377 -0.0591
90757W        W33851  20.149  18.357  27.007  0.0334  0.1145  0.0393
90758W        W33852  23.097  15.909  31.424 -0.0212 -0.4672  0.0198
90759W        W33853  19.605  15.812  27.171 -0.2202  0.1750 -0.1590
90760W        W33854  21.254  16.327  28.810  0.0434 -0.1230 -0.4450
90761W        W33855  21.199  14.717  28.552 -0.0755 -0.3260  0.2947
90762W        W33856  20.663  16.655  31.352  0.0454 -0.1010 -0.2363
90763W        W33857  20.826  16.807  27.345  0.0423 -0.1373 -0.1151
90764W        W33858  19.990  14.346  26.729 -0.1622 -0.2973 -0.1126
90765W        W33859  18.407  14.947  27.699 -0.0193  0.0503 -0.0219
90766W        W33860  20.652  13.497   0.044 -0.1682  0.1571  0.3381
90767W        W33861  20.610  19.433  29.129  0.0021  0.0037 -0.1476
90768W        W33862  21.693  18.366  27.218  0.0715  0.3793  0.4002
90769W        W33863  19.097  16.004  25.567 -0.1419 -0.1763 -0.0440
90770W        W33864  19.009  17.288  26.011 -0.0676  0.0784  0.1294
90771W        W33865  22.433  14.699  29.435  0.1403 -0.1796 -0.0427
90772W        W33866  20.856  17.215  26.139 -0.0011 -0.1033  0.1188
90773W        W33867  20.877  15.627  28.812 -0.0897  0.0201 -0.0015
90774W        W33868  20.237  17.904  26.346 -0.1546 -0.0755  0.5403
90775W        W33869  19.321  17.161  28.575 -0.3395  0.3440  0.1030
90776W        W33870  18.840  16.895  26.884 -0.1008 -0.0995  0.1411
90777W        W33871  19.181  14.254  28.630  0.0090 -0.0879 -0.0427
90778W        W33872  21.489  14.405  28.256 -0.2567 -0.3397  0.1443
90779W        W33873  19.971  16.963  27.871  0.0906  0.2354 -0.0200
90780W        W33874  20.576  13.854  30.437 -0.0247  0.1319 -0.0606
90781W        W33875  19.461  16.172  25.903 -0.1109  0.1259  0.1582
90782W        W33876  20.147  15.674  27.099 -0.1216  0.2905  0.1231
90783W        W33877  20.594  17.542  27.191 -0.2101 -0.1428 -0.2426
90784W        W33878  18.877  16.606  27.577  0.1229  0.1717  0.0476
90785W        W33879  20.876  15.795  26.329 -0.3348 -0.1306  0.4957
90786W        W33880  21.201  16.430  29.788  0.1529 -0.0170 -0.1412
90787W        W33881  21.235  15.740  25.950  0.3743  0.2372 -0.0264
90788W        W33882  20.791  20.020  29.107  0.1964  0.1475  0.1830
90789W        W33883  19.361  14.889  27.071 -0.1346 -0.0763  0.0844
90790W        W33884  20.070  16.180  26.874 -0.2809 -0.3086  0.4048
90791W        W33885  18.541  16.295  26.691  0.1624 -0.3952  0.0582
90792W        W33886  20.224  15.155  29.256 -0.0350 -0.1537  0.1289
90793W        W33887  20.850  17.082  31.060  0.0033  0.0896  0.1184
90794W        W33888  19.577  14.647  27.465 -0.1253 -0.0489 -0.1422
90795W        W33889  21.736  16.979  26.664 -0.4224 -0.0835 -0.1468
90796W        W33890  22.456  15.448  30.495  0.0270  0.0370  0.0178
90797W        W33891  19.205  19.315  24.741 -0.1098  0.2414 -0.0908
90798W        W33892  20.527  17.320  28.158 -0.0275  0.1756  0.2293
90799W        W33893  19.925  18.871  28.002 -0.0318  0.4319  0.0475
90800W        W33894  18.219  17.123  28.296  0.1422  0.0880  0.0504
90801W        W33895  20.737  18.708  28.402 -0.0916  0.0758  0.0710
90802W        W33896  21.647  17.061  27.495  0.0941  0.1147 -0.1119
90803W        W33897  20.393  14.032  27.157 -0.2131 -0.1460  0.1788
90804W        W33898  19.333  16.814  27.330  0.0878 -0.0033  0.0005
90805W        W33899  18.841  18.560  25.979  0.1980  0.0934 -0.3673
90806W        W33900  20.789  15.153  29.137 -0.0500  0.2572 -0.0275
90807W        W33901  20.250  16.400  30.032  0.2428  0.0515 -0.1963
90808W        W33902  20.775  18.968  25.719  0.0664  0.0791  0.1291
90809W        W33903  20.865  13.785  29.565  0.0660 -0.1561  0.2730
90810W        W33904  19.579  17.471  29.448 -0.1693  0.3185  0.1439
90811W        W33905  18.379  18.592  30.465 -0.1879 -0.0155 -0.0483
90812W        W33906  18.220  15.948  24.557 -0.0093  0.0018  0.2050
90813W        W33907  19.886  15.470  29.994 -0.1211 -0.1775 -0.0872
90814W        W33908  19.641  16.763  25.971 -0.0941  0.2379 -0.3622
90815W        W33909  20.202  18.287  25.886 -0.4525 -0.3389 -0.0123
90816W        W33910  20.957  17.351  29.316 -0.0456  0.3959 -0.0318
90817W        W33911  19.835  16.647  25.059 -0.4210  0.4087 -0.1510
90818W        W33912  20.942  17.190  28.859  0.3170 -0.0428  0.0234
90819W        W33913  19.613  16.293  27.194 -0.1746 -0.2210  0.0527
90820W        W33914  21.540  13.913  28.796  0.1591  0.1574 -0.0253
90821W        W33915  20.589  14.181  28.098  0.0424 -0.0875 -0.1388
90822W        W33916  18.105  16.203  27.010 -0.1790  0.3701 -0.0538
90823W        W33917  18.583  16.337  26.221 -0.1247  0.1140  0.1439
90824W        W33918  19.108  16.774  24.962  0.0618  0.4790  0.0517
90825W        W33919  20.115  17.351  25.496  0.3396 -0.2445  0.3514
90826W        W33920  19.370  14.272  30.270 -0.1148 -0.0196 -0.2358
90827W        W33921  20.361  17.450  26.700  0.1815 -0.3479 -0.0048
90828W        W33922  19.606  16.562  27.834  0.3399 -0.1328 -0.1640
90829W        W33923  19.344  15.742  27.620  0.2081 -0.0313  0.4891
90830W        W33924  20.391  17.911  26.832 -0.0431 -0.1886  0.0687
90831W        W33925  19.185  15.571  26.638  0.0536  0.0102  0.1229
90832W        W33926  16.853  14.119  26.096  0.1115 -0.2173  0.4532
90833W        W33927  20.828  18.516  27.776  0.2474 -0.0384  0.4952
90834W        W33928  21.717  18.341  26.659 -0.1735 -0.0531  0.2171
90835W        W33929  19.384  14.626  28.030 -0.1772 -0.2893 -0.0502
90836W        W33930  20.424  17.786  30.497  0.0501  0.3450 -0.0847
90837W        W33931  18.806  16.246  25.138 -0.1456  0.2151 -0.1562
90838W        W33932  18.811  16.275  28.671  0.2041 -0.0820  0.0012
90839W        W33933  20.223  14.630  29.198  0.0494  0.3058  0.0847
90840W        W33934  18.946  15.102  26.893  0.0614 -0.1479  0.1967
90841W        W33935  20.492  15.711  29.072  0.1607  0.0784  0.1549
90842W        W33936  20.761  17.234  27.597  0.1835 -0.0575  0.2250
90843W        W33937  20.742  18.107  26.532  0.0118  0.3284 -0.0095
90844W        W33938  19.310  17.029  26.808  0.1189 -0.3356  0.0759
90845W        W33939  19.009  18.236  28.800 -0.3120 -0.1833  0.0688
90846W        W33940  18.022  12.979  28.541 -0.0616 -0.1463 -0.3689
90847W        W33941  20.755  16.268  26.270  0.0514  0.0636 -0.1661
90848W        W33942  19.410  18.470  29.553  0.0015  0.0071  0.1064
90849W        W33943  22.198  17.937  27.541  0.1887  0.1595 -0.3384
90850W        W33944  21.221  12.936  31.184 -0.1667  0.2790  0.0956
90851W        W33945  20.558  16.936  28.502  0.4827 -0.0131  0.2812
90852W        W33946  18.893  12.816  30.573 -0.1012 -0.4462  0.2020
90853W        W33947  19.117  16.409  29.970  0.1380  0.0095  0.0387
90854W        W33948  21.294  17.697  29.428  0.2494 -0.1992  0.0435
90855W        W33949  19.443  15.687  25.725 -0.0481 -0.0343  0.1692
90856W        W33950  20.603  16.239  28.120  0.0745 -0.0467 -0.0203
90857W        W33951  20.135  17.403  27.244 -0.3190  0.0127 -0.0073
90858W        W33952  20.046  15.819  26.544  0.1719  0.0580 -0.1461
90859W        W33953  20.980  16.243  26.746  0.2316 -0.0315  0.0932
90860W        W33954  19.986  16.378  28.799  0.0998 -0.2121  0.2628
90861W        W33955  19.818  17.957  29.085  0.1191 -0.1175  0.1249
90862W        W33956  19.601  16.053  28.669 -0.2473  0.0755  0.2519
90863W        W33957  19.700  16.717  26.958 -0.2321 -0.1891  0.3286
90864W        W33958  22.155  18.016  26.401  0.0383 -0.0194 -0.0772
90865W        W33959  19.601  17.138  29.838  0.0665  0.0375 -0.1222
90866W        W33960  22.026  16.821  30.812  0.1632  0.1463  0.0927
90867W        W33961  19.606  17.596  29.982  0.0137  0.1583  0.1308
90868W        W33962  19.590  16.281  29.910 -0.1410  0.0432  0.3895
90869W        W33963  18.942  13.495  28.603 -0.1544  0.0646 -0.0127
90870W        W33964  19.828  17.927  24.834  0.1379 -0.2196 -0.3349
90871W        W33965  20.059  18.214  28.055 -0.3380 -0.0898  0.0139
90872W        W33966  20.341  16.829  27.489 -0.0420  0.0175  0.2066
90873W        W33967  19.492  16.120  28.030 -0.2839  0.0371 -0.1268
90874W        W33968  20.892  14.647  27.783  0.1065  0.0108  0.0471
90875W        W33969  19.608  18.164  28.300 -0.0038  0.0152 -0.2053
90876W        W33970  19.947  17.852  28.635 -0.0192  0.1904  0.3215
90877W        W33971  20.557  14.945  29.989  0.2925 -0.1529  0.1264
90878W        W33972  20.453  15.835  30.998  0.1033 -0.1783 -0.1452
90879W        W33973  17.740  15.921  28.786  0.0592  0.0259  0.1985
90880W        W33974  19.104  16.790  31.055 -0.0162 -0.1551 -0.1148
90881W        W33975  20.021  18.311  29.463  0.2589 -0.1624 -0.2717
90882W        W33976  19.685  17.238  30.362 -0.4246  0.0357 -0.0661
90883W        W33977  20.518  16.078  29.528 -0.0295 -0.1430  0.1720
90884W        W33978  19.902  15.447  28.453 -0.2982  0.1836  0.4151
90885W        W33979  19.923  14.898  28.904 -0.0872  0.0952 -0.0291
90886W        W33980  21.345  18.131  30.291  0.1917  0.1535 -0.3440
90887W        W33981  19.637  15.809  29.631 -0.0733 -0.1570  0.1232
90888W        W33982  19.549  14.580  28.924 -0.1142 -0.0378  0.0016
90889W        W33983  21.074  15.986  31.633  0.0556 -0.1420 -0.0784
90890W        W33984  20.116  17.107  29.227  0.0500 -0.2722 -0.0763
90891W        W33985  21.673  15.080  31.233  0.2888 -0.1152  0.1428
90892W        W33986  18.671  19.895  29.457  0.4270 -0.0644  0.0543
90893W        W33987  18.922  17.012  29.633  0.1552 -0.2055 -0.0375
90894W        W33988  20.812  17.972  30.173  0.0692  0.3361 -0.1524
90895W        W33989  15.806  13.857  31.287  0.3384 -0.0652 -0.3665
90896W        W33990  18.358  15.552  28.616 -0.4770  0.2093  0.1441
90897W        W33991  18.467  13.424  30.434 -0.0366  0.2110 -0.0448
90898W        W33992  18.314  17.698  29.344  0.1587 -0.0355  0.2419
90899W        W33993  21.372  14.705  30.502  0.1207  0.0690  0.2964
90900W        W33994  20.234  16.555  30.479  0.2481 -0.0979  0.0446
90901W        W33995  20.263  13.967  30.897  0.0978  0.0547  0.3073
90902W        W33996  19.589  14.513  29.841 -0.0039  0.0509 -0.0429
90903W        W33997  19.402  16.998  27.762  0.2500  0.0063  0.2561
90904W        W33998  18.656  18.022  29.052  0.0383  0.0419  0.2974
90905W        W33999  19.267  16.295  28.926 -0.0699 -0.0895  0.0138
90906W        W34000  19.403  16.449  30.884 -0.0294 -0.1614  0.1580
90907W        W34001  19.039  17.162  29.123  0.4956  0.0217  0.4637
90908W        W34002  18.342  16.409  30.704 -0.1094  0.2049 -0.4841
90909W        W34003  22.973  15.833  30.447  0.0702  0.1285  0.1330
90910W        W34004  19.803  16.127  31.281  0.1339 -0.0928 -0.1472
90911W        W34005  18.633  14.939  29.191  0.1184  0.0724  0.0016
90912W        W34006  20.111  15.880  29.845 -0.1875 -0.2173 -0.1116
90913W        W34007  18.813  17.730  30.655 -0.1714 -0.0020  0.1388
90914W        W34008  19.819  14.657  30.703  0.1488  0.1422  0.0729
90915W        W34009  20.039  14.965  31.013  0.0818 -0.1789 -0.4080
90916W        W34010  19.160  15.782  30.652 -0.0650  0.1189  0.0868
90917W        W34011  21.292  16.324  31.212 -0.0630  0.2671 -0.0535
90918W        W34012  19.929  15.653  30.984  0.0469 -0.0944  0.5220
90919W        W34013  17.820  14.959  30.304 -0.1695 -0.2140 -0.1508
90920W        W34014  19.795  17.831  30.389  0.0084 -0.1351  0.0572
90921W        W34015  19.377  15.560  28.778 -0.0694 -0.0124  0.0501
90922W        W34016  19.740  15.271  29.549 -0.1559  0.0836  0.1773
90923W        W34017  19.371  15.362  30.098 -0.5737  0.1996 -0.1281
90924W        W34018  19.802  18.250  31.307  0.0953 -0.0342 -0.0455
90925W        W34019  20.473  16.931  29.904  0.0291 -0.0806  0.0673
90926W        W34020  18.296  17.758  28.739 -0.2892  0.0064  0.0697
90927W        W34021  19.677  15.986  30.667  0.2671  0.1489  0.1853
90928W        W34022  21.217  14.924  29.026  0.1363  0.1797 -0.1943
90929W        W34023  19.794  14.785  29.423  0.1953  0.0244 -0.0123
90930W        W34024  19.667  14.771  28.435 -0.0036 -0.0444  0.1601
90931W        W34025  19.424  15.412  30.891  0.0207  0.0943 -0.0895
90932W        W34026  19.137  15.383  29.613  0.0865 -0.1119 -0.0487
90933W        W34027  21.531  16.332  30.573  0.2730  0.1390  0.0872
90934W        W34028  18.503  17.187  30.086 -0.0894 -0.0647  0.0546
90935W        W34029  18.993  17.690  29.291 -0.5991  0.0056 -0.4269
90936W        W34030  17.475  15.842  27.345 -0.0279  0.0583  0.1224
90937W        W34031  17.025  16.758  28.609  0.1039  0.0976  0.0543
90938W        W34032  18.029  17.059  30.043 -0.2036 -0.0118 -0.1277
90939W        W34033  17.964  15.123  28.956 -0.3181 -0.0091  0.0756
90940W        W34034  18.412  15.062  30.123  0.0628  0.0641 -0.0987
90941W        W34035  19.162  18.977  30.486 -0.0546  0.1579 -0.1273
90942W        W34036  23.028  17.070  31.746  0.0389  0.0248  0.4240
90943W        W34037  20.449  17.486  30.022 -0.5113  0.2790 -0.2116
90944W        W34038  19.969  21.807  19.088 -0.1787  0.2982  0.0096
90945W        W34039  19.244  20.091  16.884  0.0768  0.0796 -0.0951
90946W        W34040  21.421  19.801  15.543  0.1327  0.3332  0.2283
90947W        W34041  20.739  21.103  16.481  0.1085 -0.1555 -0.1408
90948W        W34042  18.204  20.223  16.664  0.3566 -0.1256 -0.4552
90949W        W34043  20.164  22.301  17.989 -0.1102 -0.0966  0.1975
90950W        W34044  17.428  18.767  17.544  0.1990 -0.0232  0.0516
90951W        W34045  20.229  20.018  15.470  0.0210 -0.2953 -0.0484
90952W        W34046  20.709  21.556  17.747 -0.4336 -0.1173 -0.1636
90953W        W34047  19.376  20.209  14.594 -0.2075  0.0837 -0.2405
90954W        W34048  20.026  20.530  17.919  0.1605 -0.0040 -0.1852
90955W        W34049  20.176  21.169  18.753  0.1200 -0.0926 -0.1051
90956W        W34050  20.989  19.483  16.342 -0.5001  0.0585  0.1504
90957W        W34051  19.040  18.118  15.691  0.1241 -0.0960 -0.4363
90958W        W34052  21.164  20.922  16.909 -0.2255  0.2612 -0.1372
90959W        W34053  19.489  20.493  16.912 -0.0977  0.0869 -0.1210
90960W        W34054  18.578  20.465  17.694  0.0787  0.0580  0.1817
90961W        W34055  18.087  20.585  16.311  0.0792  0.5690 -0.3574
90962W        W34056  19.435  22.378  17.287  0.0219 -0.1143  0.1211
90963W        W34057  18.236  19.737  16.674 -0.0230 -0.1731  0.2537
90964W        W34058  20.561  22.185  15.204  0.2150  0.0222 -0.1207
90965W        W34059  19.024  20.461  16.528  0.1672  0.3807  0.0359
90966W        W34060  17.890  20.704  16.759 -0.0570  0.0806  0.1729
90967W        W34061  16.818  20.667  17.930 -0.3449  0.0281 -0.0175
90968W        W34062  20.839  19.863  17.920 -0.0459  0.0041 -0.1892
90969W        W34063  22.598  20.875  15.795 -0.2900  0.2539 -0.1137
90970W        W34064  19.585  20.819  18.000  0.0208  0.0799  0.0370
90971W        W34065  20.378  21.653  18.779 -0.3994 -0.2272 -0.1217
90972W        W34066  21.954  20.866  17.776 -0.1091 -0.1661 -0.2836
90973W        W34067  17.077  21.605  17.137 -0.0577  0.0050 -0.0652
90974W        W34068  17.810  23.545  17.418 -0.0372 -0.0605  0.1072
90975W        W34069  19.483  22.487  16.751 -0.0133  0.2572  0.0631
90976W        W34070  21.992  20.793  16.395 -0.0762  0.0818  0.0372
90977W        W34071  22.551  22.221  18.749  0.1943  0.4257  0.1699
90978W        W34072  20.259  22.205  18.889  0.1823 -0.0660 -0.3012
90979W        W34073  18.248  21.830  15.224 -0.0800  0.0628 -0.0568
90980W        W34074  20.176  22.751  18.344  0.0004 -0.0438 -0.1623
90981W        W34075  19.455  21.398  19.108  0.0852 -0.1540 -0.3046
90982W        W34076  20.231  20.965  18.133 -0.1846 -0.1327 -0.4719
90983W        W34077  18.308  21.483  16.860 -0.2064  0.0214  0.2049
90984W        W34078  18.985  21.469  15.406 -0.1972 -0.0149  0.0934
90985W        W34079  19.264  21.720  16.492  0.1312  0.0962  0.2312
90986W        W34080  18.282  22.016  18.096 -0.1444 -0.1780  0.3033
90987W        W34081  17.999  23.110  18.696 -0.2109 -0.1402 -0.3536
90988W        W34082  22.907  18.596  17.068  0.2209  0.1607 -0.3268
90989W        W34083  19.630  21.434  16.634 -0.1751 -0.1988  0.2625
90990W        W34084  20.840  18.262  15.058 -0.4446  0.3072  0.3335
90991W        W34085  19.536  17.665  15.158  0.0986  0.1959 -0.1397
90992W        W34086  21.714  19.892  15.940 -0.0784 -0.2959 -0.0795
90993W        W34087  19.054  19.708  17.157 -0.2164  0.0015 -0.0017
90994W        W34088  19.222  21.893  17.327 -0.2058  0.2521  0.0465
90995W        W34089  18.207  19.955  18.011 -0.2795  0.2486  0.1102
90996W        W34090  22.497  21.876  16.817  0.1114  0.0471 -0.2893
90997W        W34091  19.438  21.949  16.052 -0.0803  0.0182  0.0006
90998W        W34092  20.155  20.714  17.482  0.2343  0.2944 -0.1113
90999W        W34093  18.400  20.875  19.524  0.1261 -0.1579 -0.0502
91000W        W34094  18.392  20.971  16.043  0.0177  0.0535 -0.0399
91001W        W34095  20.767  21.315  15.502 -0.3631  0.0679 -0.0265
91002W        W34096  21.587  22.547  18.025 -0.1491 -0.1711 -0.0982
91003W        W34097  20.466  21.733  15.577 -0.1591  0.4278  0.3305
91004W        W34098  18.732  21.235  16.965 -0.2827 -0.0493 -0.1577
91005W        W34099  17.531  20.813  18.228  0.0713  0.3235  0.0912
91006W        W34100  17.689  20.715  17.318  0.0170  0.0603 -0.0196
91007W        W34101  18.953  18.135  15.161  0.1354  0.0481 -0.1954
91008W        W34102  21.327  22.296  20.175  0.1492 -0.2145 -0.3080
91009W        W34103  19.153  22.915  19.018 -0.0198 -0.0485  0.0914
91010W        W34104  23.359  19.586  16.876 -0.0354  0.0129  0.0624
91011W        W34105  18.997  21.478  18.309 -0.0114  0.2884  0.1193
91012W        W34106  21.766  22.133  17.067 -0.3590  0.2470  0.0355
91013W        W34107  20.348  19.401  14.738 -0.0535  0.1610 -0.2589
91014W        W34108  23.129  19.156  17.189 -0.0608  0.1822  0.1062
91015W        W34109  21.452  18.653  16.081 -0.0849 -0.3245  0.2286
91016W        W34110  19.156  19.492  15.709 -0.2279  0.1670 -0.0054
91017W        W34111  19.198  19.969  15.470  0.1231  0.2644 -0.1661
91018W        W34112  21.048  22.021  17.570 -0.0624 -0.1978 -0.0642
91019W        W34113  21.045  20.547  15.682 -0.2028  0.0417  0.0556
91020W        W34114  18.695  23.328  17.361 -0.3333  0.2547 -0.0984
91021W        W34115  18.783  21.011  17.392 -0.1436  0.1971  0.0979
91022W        W34116  20.029  20.298  18.512  0.1489 -0.1459  0.4867
91023W        W34117  18.927  20.721  15.237  0.2155  0.2412  0.2513
91024W        W34118  16.926  20.323  17.558 -0.0723  0.0165 -0.1113
91025W        W34119  17.962  21.163  16.554 -0.0823 -0.0363  0.0910
91026W        W34120  17.563  20.149  17.426 -0.0995 -0.1462 -0.1107
91027W        W34121  19.231  21.436  17.545 -0.2235 -0.2910 -0.1866
91028W        W34122  20.505  18.959  15.006  0.1301  0.2887 -0.0639
91029W        W34123  19.486  17.839  16.974  0.3122  0.3790  0.0056
91030W        W34124  23.270  19.654  17.397 -0.4339  0.5266  0.2663
91031W        W34125  21.179  20.904  16.391  0.1263  0.1228 -0.3655
91032W        W34126  19.837  21.840  18.064 -0.1069 -0.2099 -0.1893
91033W        W34127  21.605  20.631  16.203  0.0435  0.2246 -0.1701
91034W        W34128  20.675  20.340  15.289 -0.3368 -0.0628 -0.1598
91035W        W34129  18.589  20.239  16.281  0.3254  0.2188 -0.3607
91036W        W34130  19.730  20.960  16.711  0.3369  0.1083  0.1555
91037W        W34131  18.346  20.189  18.483  0.2301 -0.1186 -0.0740
91038W        W34132  19.468  19.139  16.522 -0.1118 -0.1074 -0.1613
91039W        W34133  22.835  19.889  17.472 -0.1685  0.0238 -0.1811
91040W        W34134  17.882  18.124  14.797  0.2758 -0.1824  0.0867
91041W        W34135  21.638  20.034  16.902 -0.1625  0.1140  0.0187
91042W        W34136  20.453  19.231  16.277  0.2289  0.2366  0.1505
91043W        W34137  17.504  21.365  15.717  0.0705  0.1595  0.0779
91044W        W34138  22.544  20.425  17.365 -0.2615 -0.0379  0.1887
91045W        W34139  20.002  22.177  15.955  0.1281  0.0388  0.1459
91046W        W34140  21.028  22.001  19.302  0.0789 -0.1797 -0.1219
91047W        W34141  20.198  21.570  17.862 -0.2071  0.1665 -0.2622
91048W        W34142  18.864  18.976  17.588  0.0224  0.2557  0.1393
91049W        W34143  18.920  18.523  16.060  0.2306 -0.1609 -0.0151
91050W        W34144  18.956  22.050  17.720  0.0442  0.1431 -0.1061
91051W        W34145  18.737  22.461  17.918  0.0139 -0.0916  0.0819
91052W        W34146  17.536  19.025  16.255 -0.2083  0.2057  0.2524
91053W        W34147  22.288  21.811  16.234  0.2120  0.0024 -0.3150
91054W        W34148  20.438  20.503  17.118  0.2644  0.0713  0.3612
91055W        W34149  18.768  20.851  18.721  0.2940 -0.1273  0.1603
91056W        W34150  21.548  19.499  17.077  0.0843 -0.2245  0.0402
91057W        W34151  21.973  21.178  18.195 -0.1022  0.2404  0.1932
91058W        W34152  20.440  19.731  17.521  0.0962 -0.0337 -0.5495
91059W        W34153  18.311  18.901  14.902  0.1968  0.1029  0.1068
91060W        W34154  19.838  22.301  18.470  0.1422  0.0453 -0.0685
91061W        W34155  18.953  22.374  17.164  0.1239  0.0553  0.0870
91062W        W34156  17.741  20.209  16.388 -0.1156 -0.2184  0.0675
91063W        W34157  19.370  21.724  18.036 -0.1030  0.1502  0.0917
91064W        W34158  22.881  19.130  16.728 -0.2038  0.2444 -0.0562
91065W        W34159  16.940  20.862  19.694 -0.2198  0.2406  0.0256
91066W        W34160  21.456  20.515  17.968 -0.0845  0.2662 -0.0503
91067W        W34161  18.550  20.750  15.610  0.0983 -0.1102 -0.1755
91068W        W34162  19.541  22.143  17.708  0.1650  0.1717 -0.2467
91069W        W34163  21.957  17.858  15.983 -0.2601 -0.1808 -0.1576
91070W        W34164  20.488  20.958  15.704  0.0761  0.0913 -0.1507
91071W        W34165  19.796  20.023  18.165  0.0219  0.3142  0.1389
91072W        W34166  21.587  22.204  17.578  0.0427  0.2235  0.0976
91073W        W34167  21.404  19.121  15.903  0.2407  0.1676 -0.0552
91074W        W34168  20.191  19.185  15.760 -0.2701 -0.0996 -0.0100
91075W        W34169  18.364  20.363  17.137 -0.2510  0.1304  0.1643
91076W        W34170  20.114  21.405  18.320  0.2311  0.1049  0.1595
91077W        W34171  19.646  21.309  18.119 -0.0691 -0.1158 -0.0659
91078W        W34172  18.662  19.882  15.555  0.2292  0.1631  0.0835
91079W        W34173  20.956  21.785  18.146 -0.0522  0.4066  0.0042
91080W        W34174  19.029  21.763  18.728 -0.0583  0.1000  0.0485
91081W        W34175  21.000  22.655  20.206 -0.2838 -0.0600 -0.0370
91082W        W34176  20.582  20.958  17.077 -0.0868 -0.1422  0.3310
91083W        W34177  19.396  19.186  16.066 -0.0320  0.0765  0.1917
91084W        W34178  18.970  19.579  15.285  0.1434 -0.0267  0.1569
91085W        W34179  20.412  18.410  16.158  0.1021  0.3262 -0.1995
91086W        W34180  18.865  22.119  16.692 -0.1530 -0.1137 -0.2191
91087W        W34181  21.993  17.826  16.913  0.2016 -0.1771 -0.0753
91088W        W34182  20.100  18.956  15.339  0.2084 -0.0883  0.1696
91089W        W34183  20.963  19.281  17.193  0.2156  0.1013  0.3874
91090W        W34184  23.352  20.824  19.608  0.1358  0.3505  0.1233
91091W        W34185  20.710  19.423  15.891 -0.1534 -0.3008 -0.2648
91092W        W34186  21.716  21.586  17.941  0.2385  0.2425  0.0895
91093W        W34187  18.885  20.356  15.604 -0.0448 -0.4797  0.0466
91094W        W34188  21.249  19.483  18.180 -0.0630  0.0134  0.2277
91095W        W34189  19.097  19.219  16.986  0.0314 -0.0930 -0.1120
91096W        W34190  18.072  21.562  18.219  0.1540 -0.0489 -0.0956
91097W        W34191  20.582  20.975  17.772 -0.1523 -0.2829 -0.0124
91098W        W34192  19.702  21.165  17.265 -0.2291  0.1954  0.2428
91099W        W34193  20.832  20.274  16.965  0.0279  0.2705 -0.0688
91100W        W34194  20.068  20.670  15.759 -0.0000  0.2767  0.1723
91101W        W34195  18.684  22.281  15.877 -0.1485  0.0710 -0.2255
91102W        W34196  20.024  19.862  14.931 -0.0508  0.1948  0.2179
91103W        W34197  22.000  19.799  16.488 -0.1797 -0.0556 -0.1880
91104W        W34198  19.529  20.992  19.502 -0.2586  0.2176 -0.0217
91105W        W34199  18.675  20.477  14.876 -0.0047  0.2407  0.1631
91106W        W34200  20.573  20.196  18.550 -0.2239  0.1961 -0.1418
91107W        W34201  19.684  22.038  16.453  0.1530 -0.2982  0.1852
91108W        W34202  22.213  19.363  16.283  0.1536 -0.0059 -0.0839
91109W        W34203  17.982  22.362  18.246 -0.2217  0.0192  0.0520
91110W        W34204  18.407  20.258  15.804 -0.2222  0.0203 -0.1282
91111W        W34205  18.832  20.841  16.282  0.0373  0.0081 -0.0629
91112W        W34206  22.441  20.844  16.734 -0.1086 -0.0887  0.0442
91113W        W34207  19.251  21.202  16.174 -0.0003 -0.0775 -0.0672
91114W        W34208  19.446  20.208  16.435  0.2608 -0.1531 -0.1433
91115W        W34209  19.702  19.813  16.981 -0.1843 -0.0870 -0.2945
91116W        W34210  17.392  23.337  17.544 -0.0659 -0.0936 -0.0572
91117W        W34211  19.754  21.525  19.577  0.0737 -0.2046 -0.3096
91118W        W34212  20.635  18.659  15.483 -0.0266  0.0012  0.0147
91119W        W34213  21.520  21.322  17.075 -0.1125  0.1091 -0.2752
91120W        W34214  19.505  20.424  19.134  0.0155 -0.0046  0.3845
91121W        W34215  18.676  19.316  15.646  0.0980 -0.2037 -0.0252
91122W        W34216  21.478  21.319  16.546 -0.2267  0.1762 -0.1542
91123W        W34217  19.898  20.505  16.429  0.1989  0.0106  0.0521
91124W        W34218  17.526  22.472  17.920 -0.0090  0.1058 -0.4028
91125W        W34219  21.380  21.290  18.787 -0.0340 -0.0925  0.3248
91126W        W34220  19.397  20.537  15.549 -0.0077 -0.0811  0.2501
91127W        W34221  18.776  21.658  16.621 -0.0274  0.2526  0.0674
91128W        W34222  19.101  19.453  17.576 -0.2018  0.2940  0.1468
91129W        W34223  22.444  19.531  17.406  0.1649  0.3396 -0.0591
91130W        W34224  20.887  20.033  16.486  0.0936 -0.1975 -0.2850
91131W        W34225  20.379  19.672  16.600  0.2874  0.1742  0.0417
91132W        W34226  19.916  19.862  17.593  0.2180 -0.0102  0.3079
91133W        W34227  21.453  21.096  17.980 -0.0528 -0.0189 -0.0180
91134W        W34228  19.816  20.879  18.528 -0.5277 -0.0267 -0.1478
91135W        W34229  17.809  21.848  17.890 -0.2493  0.0324 -0.0998
91136W        W34230  21.864  19.349  16.634 -0.1529  0.0352  0.3178
91137W        W34231  21.065  24.694  17.093  0.1994  0.2424  0.1183
91138W        W34232  21.339  21.483  18.247 -0.0762 -0.1651 -0.2341
91139W        W34233  18.565  19.691  16.303  0.1407 -0.2740 -0.2364
91140W        W34234  17.963  19.850  17.275 -0.2359 -0.3094 -0.1735
91141W        W34235  18.832  22.109  18.277 -0.0899 -0.0600  0.2563
91142W        W34236  20.913  21.134  17.414 -0.0701  0.1145  0.1225
91143W        W34237  17.680  21.297  18.389  0.4180  0.0426  0.1990
91144W        W34238  20.085  21.249  15.801 -0.0879  0.0870 -0.0375
91145W        W34239  18.293  22.125  18.644  0.2029 -0.1285 -0.2268
91146W        W34240  21.071  18.996  15.127  0.0554 -0.0717 -0.0072
91147W        W34241  20.307  21.253  15.313 -0.0158 -0.2868 -0.0509
91148W        W34242  20.037  20.130  16.164 -0.0605 -0.0825  0.2954
91149W        W34243  22.456  19.371  16.733 -0.0015  0.3035 -0.2971
91150W        W34244  20.505  19.893  15.042 -0.0139  0.0398  0.4434
91151W        W34245  22.555  20.028  17.054  0.0101  0.1166 -0.0598
91152W        W34246  19.400  18.614  15.775  0.2609  0.1516  0.2307
91153W        W34247  21.911  22.121  17.918 -0.1432  0.0486 -0.1291
91154W        W34248  18.001  19.224  17.334 -0.0700 -0.0673  0.0319
91155W        W34249  20.600  22.466  19.219  0.1962  0.1011 -0.2865
91156W        W34250  18.902  20.208  17.263  0.1578  0.0792  0.0899
91157W        W34251  21.315  19.630  16.014  0.1133  0.3923  0.0301
91158W        W34252  18.480  18.918  15.407  0.2262 -0.2692  0.0366
91159W        W34253  19.337  20.156  18.240  0.0451 -0.0211 -0.0898
91160W        W34254  22.320  22.422  17.908 -0.1918 -0.0599  0.2241
91161W        W34255  20.202  21.270  17.365 -0.1227  0.3761 -0.1911
91162W        W34256  21.020  19.966  15.804  0.1682 -0.3124 -0.0766
91163W        W34257  18.799  21.393  17.749  0.1096  0.0948  0.1896
91164W        W34258  22.419  21.388  16.695  0.0229  0.0478 -0.3208
91165W        W34259  19.726  20.251  14.934  0.2058  0.1102 -0.1273
91166W        W34260  18.754  21.388  16.230 -0.1865 -0.1808 -0.0081
91167W        W34261  19.961  20.656  16.979  0.0142  0.2415 -0.1474
91168W        W34262  21.922  20.292  16.418  0.2991 -0.3789  0.0532
91169W        W34263  22.512  18.560  15.784 -0.2907  0.2597  0.0635
91170W        W34264  21.980  20.003  17.286 -0.1127 -0.1365 -0.1442
91171W        W34265  21.329  20.801  17.586 -0.0194 -0.0827  0.0878
91172W        W34266  18.838  20.918  18.169 -0.1231  0.1158  0.1242
91173W        W34267  18.148  20.243  17.601  0.1412 -0.2125  0.2139
91174W        W34268  21.069  22.728  19.376 -0.1600 -0.1929  0.3534
91175W        W34269  22.097  20.988  15.902  0.0613  0.0534  0.3060
91176W        W34270  22.836  19.360  17.677  0.3977 -0.1069  0.1819
91177W        W34271  20.793  20.661  16.681 -0.1411 -0.1472  0.0823
91178W        W34272  19.741  19.830  15.338 -0.1302  0.2362  0.1625
91179W        W34273  19.564  19.476  17.345  0.2030  0.0429 -0.0895
91180W        W34274  21.635  21.344  19.254  0.1295  0.0223  0.2776
91181W        W34275  19.138  20.557  16.015  0.1792  0.1569  0.0747
91182W        W34276  21.754  20.775  18.415  0.1600 -0.3441 -0.1869
91183W        W34277  19.405  21.229  15.288  0.0621  0.4226 -0.0712
91184W        W34278  21.765  21.244  17.509  0.0363 -0.0018 -0.1040
91185W        W34279  20.616  19.717  15.492 -0.0200  0.1214  0.3598
91186W        W34280  18.662  20.069  16.778 -0.3043  0.2642  0.0274
91187W        W34281  17.685  22.896  18.397 -0.2029 -0.3562 -0.0321
91188W        W34282  17.988  18.844  15.276  0.2124  0.0757 -0.2481
91189W        W34283  20.263  20.725  15.341  0.1701  0.1872 -0.0488
91190W        W34284  21.197  20.967  18.385 -0.1694 -0.0760 -0.3382
91191W        W34285  22.131  21.549  19.662 -0.3084 -0.2891  0.0494
91192W        W34286  20.240  19.473  15.285  0.0565  0.1451  0.0983
91193W        W34287  23.232  20.010  17.818  0.0863 -0.3512  0.0733
91194W        W34288  20.819  21.861  15.996  0.3237  0.0580  0.2120
91195W        W34289  20.963  19.082  16.113 -0.3022 -0.0817 -0.1587
91196W        W34290  19.969  23.182  18.751  0.0066 -0.0775 -0.1029
91197W        W34291  17.923  21.643  17.290  0.3028 -0.0674  0.3832
91198W        W34292  19.750  19.785  16.467 -0.3764  0.0924 -0.1117
91199W        W34293  21.934  19.553  17.452  0.0705 -0.1483  0.0772
91200W        W34294  22.212  19.712  16.978 -0.2208  0.2003 -0.2102
91201W        W34295  20.613  20.409  18.005  0.1198  0.2281  0.3077
91202W        W34296  22.842  20.706  18.081 -0.1515 -0.1171  0.0634
91203W        W34297  20.760  20.676  18.412 -0.0673  0.4501  0.1564
91204W        W34298  18.842  20.644  17.018  0.2086 -0.0128  0.1989
91205W        W34299  21.684  21.809  19.435 -0.1142 -0.4231 -0.1327
91206W        W34300  21.584  20.720  16.752  0.0797 -0.2913 -0.1687
91207W        W34301  18.386  21.314  17.375 -0.4166  0.1467 -0.0298
91208W        W34302  15.846  20.310  17.721 -0.0660 -0.0080 -0.1850
91209W        W34303  20.306  20.719  18.628 -0.0753 -0.1780 -0.0694
91210W        W34304  20.870  20.652  17.376  0.0349 -0.0699  0.0234
91211W        W34305  19.521  18.956  14.963 -0.5292 -0.4185  0.0995
91212W        W34306  19.848  20.997  15.429 -0.1478 -0.1689  0.2851
91213W        W34307  18.226  21.238  19.186  0.0300 -0.2067 -0.2273
91214W        W34308  17.065  19.272  16.895  0.0976  0.0503  0.1733
91215W        W34309  18.725  22.270  15.395 -0.0900  0.2277 -0.0969
91216W        W34310  21.321  20.180  16.090  0.0459 -0.0552  0.0666
91217W        W34311  19.630  20.461  15.990 -0.0291 -0.0044  0.2836
91218W        W34312  20.866  22.280  18.799  0.0050 -0.0550  0.0720
91219W        W34313  19.952  20.930  16.234  0.1525  0.3455  0.0068
91220W        W34314  17.881  21.196  17.553 -0.1889 -0.1610 -0.0873
91221W        W34315  17.503  21.365  16.739  0.0995 -0.0404  0.0651
91222W        W34316  19.397  19.692  16.124  0.1793 -0.0234 -0.0118
91223W        W34317  18.076  22.097  17.296 -0.0943  0.0151  0.0410
91224W        W34318  22.159  21.770  18.185 -0.1888 -0.1334 -0.3181
91225W        W34319  18.856  18.297  14.683 -0.1371 -0.1558 -0.2532
91226W        W34320  22.822  22.267  17.482  0.1650  0.4376  0.0241
91227W        W34321  20.817  20.435  16.184  0.1188  0.2803  0.1181
91228W        W34322  19.678  22.362  18.965 -0.1552  0.0216 -0.3601
91229W        W34323  18.699  20.152  18.089  0.0815  0.0032  0.2317
91230W        W34324  19.489  18.819  14.502  0.0720 -0.1877  0.4426
91231W        W34325  19.539  20.336  17.816  0.0996 -0.0576 -0.1518
91232W        W34326  23.594  17.588  17.516 -0.0170 -0.1163  0.0666
91233W        W34327  18.286  21.092  18.685  0.0414 -0.0230  0.0325
91234W        W34328  20.139  21.699  16.575  0.0584  0.1042  0.0055
91235W        W34329  18.056  19.873  16.254 -0.1448 -0.1047  0.5185
91236W        W34330  20.544  21.555  18.220 -0.1416 -0.2336  0.1808
91237W        W34331  22.540  18.992  16.130  0.1208 -0.1098 -0.1271
91238W        W34332  18.806  21.901  15.083 -0.1898  0.1746  0.1422
91239W        W34333  21.951  18.569  17.185  0.1007 -0.0630 -0.2506
91240W        W34334  19.005  22.625  16.753  0.0814 -0.2958 -0.3236
91241W        W34335  20.099  21.262  16.879 -0.0254 -0.0954 -0.0830
91242W        W34336  19.911  21.104  17.752 -0.0711 -0.1480  0.2488
91243W        W34337  18.195  19.744  15.716  0.1490 -0.4052  0.1004
91244W        W34338  21.854  21.137  16.776  0.0872  0.0647 -0.3113
91245W        W34339  18.419  19.476  18.069 -0.0884  0.1415 -0.1002
91246W        W34340  22.955  18.109  17.113  0.1464  0.0086 -0.1030
91247W        W34341  18.335  20.941  17.064  0.0090 -0.0747 -0.0019
91248W        W34342  21.422  20.316  16.566  0.0552  0.2193  0.0279
91249W        W34343  20.520  20.399  15.761 -0.3466 -0.0750  0.1169
91250W        W34344  20.483  19.462  18.000  0.2006  0.2979  0.0626
91251W        W34345  21.183  20.326  14.522  0.1222  0.3897 -0.0165
91252W        W34346  22.588  19.977  18.373  0.0921  0.2546  0.1494
91253W        W34347  20.572  19.144  15.475  0.1508 -0.1474  0.2781
91254W        W34348  20.734  23.127  19.306 -0.3130  0.1140 -0.0897
91255W        W34349  20.210  19.991  17.011 -0.0316 -0.3445  0.0158
91256W        W34350  21.040  18.829  15.629 -0.0186 -0.1429  0.1388
91257W        W34351  18.150  20.709  17.533 -0.0242 -0.0792 -0.0129
91258W        W34352  20.119  19.541  17.154 -0.0490 -0.0656 -0.2436
91259W        W34353  21.809  21.574  18.437  0.1795  0.4730  0.0129
91260W        W34354  19.015  20.028  15.960  0.1597 -0.1392  0.1867
91261W        W34355  20.585  22.728  16.557  0.0351  0.2823  0.0347
91262W        W34356  21.301  20.407  17.113  0.3896  0.1399  0.2896
91263W        W34357  20.030  21.950  15.500 -0.0712 -0.2182  0.1572
91264W        W34358  21.368  19.831  16.497 -0.1161  0.4059 -0.2961
91265W        W34359  21.573  21.455  15.702  0.1062  0.1113  0.1467
91266W        W34360  18.177  19.568  17.638 -0.1308 -0.0425  0.0270
91267W        W34361  20.614  22.129  17.322  0.1224 -0.1530 -0.1320
91268W        W34362  22.933  20.927  16.709  0.3101  0.2007  0.2514
91269W        W34363  21.379  19.159  16.619 -0.1906  0.2505  0.0857
91270W        W34364  19.010  19.883  16.458  0.1226 -0.1171 -0.3450
91271W        W34365  18.497  21.104  16.536 -0.0599  0.1325  0.3678
91272W        W34366  22.515  19.396  15.470  0.0374 -0.1077 -0.1603
91273W        W34367  23.317  20.078  17.158  0.1742  0.1191 -0.1872
91274W        W34368  21.200  21.047  15.453  0.1444 -0.0485 -0.1169
91275W        W34369  22.547  18.485  16.584  0.0236  0.1712 -0.0815
91276W        W34370  21.397  21.970  17.976 -0.0999  0.2665 -0.0665
91277W        W34371  20.457  22.346  18.415 -0.0293 -0.1492 -0.1395
91278W        W34372  18.460  20.650  16.665  0.1129 -0.0627 -0.1685
91279W        W34373  19.802  19.419  18.651  0.2312 -0.0023 -0.1571
91280W        W34374  19.253  20.957  17.181  0.3079  0.2405 -0.1317
91281W        W34375  19.224  22.299  16.330  0.0841 -0.2294  0.0381
91282W        W34376  21.478  21.769  16.812  0.1430  0.0420 -0.2799
91283W        W34377  20.383  20.254  17.609 -0.0728  0.2490  0.1408
91284W        W34378  22.855  21.523  16.866 -0.0583 -0.0528  0.1368
91285W        W34379  18.564  19.952  17.613 -0.3331  0.2422 -0.0850
91286W        W34380  21.780  18.927  16.378 -0.2781 -0.0787 -0.0615
91287W        W34381  20.178  19.692  15.816 -0.1141  0.2965 -0.0427
91288W        W34382  18.021  21.607  19.440 -0.0250 -0.1852  0.2016
91289W        W34383  19.054  19.089  15.338  0.3189  0.0432 -0.1460
91290W        W34384  19.236  21.537  16.967 -0.0924 -0.0727  0.1983
91291W        W34385  19.712  21.341  18.693  0.1973 -0.0506 -0.0372
91292W        W34386  21.670  18.996  17.008  0.0863 -0.1902 -0.0124
91293W        W34387  19.114  20.538  17.959  0.2239 -0.1000  0.2235
91294W        W34388  18.497  22.000  17.086 -0.0233 -0.0332  0.0822
91295W        W34389  18.419  18.716  15.891 -0.0320 -0.2754  0.1062
91296W        W34390  21.946  19.942  15.499 -0.2997 -0.0880 -0.1365
91297W        W34391  21.452  18.563  16.767  0.1290  0.1514 -0.0367
91298W        W34392  18.548  19.125  16.065  0.0672  0.0302 -0.1576
91299W        W34393  20.291  20.876  16.604 -0.3996  0.1935  0.4093
91300W        W34394  20.639  21.630  16.408 -0.0335  0.4693  0.1928
91301W        W34395  19.078  18.892  16.388 -0.2104 -0.4353 -0.0404
91302W        W34396  22.829  21.934  19.669 -0.0944  0.2383  0.1520
91303W        W34397  17.334  20.658  15.002 -0.2063 -0.0537  0.2090
91304W        W34398  19.251  20.844  18.457 -0.0156 -0.2941  0.0588
91305W        W34399  19.598  20.619  17.355 -0.1307 -0.3664 -0.0628
91306W        W34400  19.683  19.482  15.780 -0.1007  0.1117  0.3059
91307W        W34401  21.521  21.747  17.345  0.1245 -0.2116  0.1286
91308W        W34402  20.358  21.713  17.329 -0.0126  0.2231  0.0068
91309W        W34403  19.926  23.846  17.537 -0.2039  0.1344  0.1524
91310W        W34404  19.311  20.874  18.981 -0.0940 -0.1468  0.0020
91311W        W34405  20.217  21.415  19.280 -0.0768 -0.0562  0.1633
91312W        W34406  16.677  18.921  16.132  0.2569 -0.1348 -0.0785
91313W        W34407  20.312  21.789  16.049  0.2921  0.2301  0.2708
91314W        W34408  18.504  21.698  18.515  0.0720 -0.0539 -0.0227
91315W        W34409  22.205  23.093  15.830  0.3315  0.2194  0.2353
91316W        W34410  22.068  20.470  17.033 -0.1136  0.2309  0.2957
91317W        W34411  20.746  20.862  15.271 -0.0626 -0.0838 -0.0592
91318W        W34412  18.597  19.327  17.343 -0.1886 -0.3226  0.1887
91319W        W34413  17.060  22.372  18.283 -0.2064  0.1349 -0.0412
91320W        W34414  23.023  20.586  18.501 -0.1188  0.1951  0.3098
91321W        W34415  18.939  19.354  16.241  0.1129 -0.2981  0.0351
91322W        W34416  22.438  19.124  15.039  0.0023 -0.1656  0.1704
91323W        W34417  20.268  22.142  16.384 -0.2584  0.1011 -0.1981
91324W        W34418  18.001  20.978  18.086 -0.0353  0.0868 -0.1042
91325W        W34419  20.589  19.856  16.158  0.1802 -0.2729  0.0246
91326W        W34420  19.111  20.571  17.469  0.2578 -0.0048  0.0323
91327W        W34421  20.228  21.300  16.326 -0.1350 -0.0219 -0.0789
91328W        W34422  21.857  20.488  20.214  0.0173 -0.2526 -0.1195
91329W        W34423  19.229  21.149  16.644  0.1084 -0.0559  0.3100
91330W        W34424  21.131  20.987  14.948 -0.3036  0.1424  0.1302
91331W        W34425  21.248  23.228  19.680 -0.0404 -0.1392  0.0856
91332W        W34426  21.652  21.784  18.930 -0.1008 -0.2671 -0.2988
91333W        W34427  19.530  21.825  18.657  0.1399 -0.0704  0.0655
91334W        W34428  22.671  20.687  19.047 -0.1270 -0.1030  0.1630
91335W        W34429  17.837  19.241  16.633  0.1003 -0.0239 -0.0828
91336W        W34430  19.116  20.964  15.661  0.1633 -0.0982  0.0854
91337W        W34431  20.377  20.623  16.178  0.0117  0.0148 -0.1579
91338W        W34432  21.697  20.873  17.201  0.0331  0.2704  0.1083
91339W        W34433  19.185  20.975  17.744  0.0114  0.1325  0.0575
91340W        W34434  21.096  18.543  14.749  0.2186 -0.1939  0.4346
91341W        W34435  18.063  22.604  18.725  0.1276  0.0274 -0.2508
91342W        W34436  19.504  20.459  18.600 -0.0994  0.1126 -0.0417
91343W        W34437  19.132  21.538  22.007  0.0736  0.0071  0.0823
91344W        W34438  20.159  19.805  18.518  0.1472  0.0481  0.1449
91345W        W34439  21.722  20.420  17.477  0.1156 -0.0262  0.1604
91346W        W34440  21.202  20.529  18.636 -0.0062  0.1209 -0.1932
91347W        W34441  18.750  19.041  19.007 -0.2615  0.3099 -0.1216
91348W        W34442  21.266  21.045  20.543  0.0748  0.3473 -0.1414
91349W        W34443  22.057  20.071  21.074 -0.1638 -0.2722 -0.0524
91350W        W34444  22.241  19.362  20.493  0.0295 -0.1721  0.2880
91351W        W34445  19.426  19.639  19.091 -0.1684 -0.3255 -0.1948
91352W        W34446  21.069  21.116  19.832 -0.1672  0.0915  0.1021
91353W        W34447  19.696  21.389  21.613  0.0743 -0.3232  0.3387
91354W        W34448  21.037  20.029  21.528 -0.1658  0.2275  0.0443
91355W        W34449  19.192  20.546  19.480  0.3515 -0.2263 -0.4152
91356W        W34450  19.461  21.452  20.224 -0.1470  0.1357 -0.3299
91357W        W34451  20.623  20.594  20.434 -0.1697 -0.0008 -0.2940
91358W        W34452  21.673  19.284  21.204  0.0957 -0.0583  0.2161
91359W        W34453  21.531  21.764  20.038 -0.1192  0.3369  0.0633
91360W        W34454  18.229  21.607  17.700  0.1838 -0.1294 -0.0575
91361W        W34455  18.103  19.629  20.114  0.1664  0.1367  0.1394
91362W        W34456  20.520  20.236  21.472  0.2570 -0.0583 -0.1104
91363W        W34457  22.310  20.626  19.444 -0.2604  0.1270 -0.2986
91364W        W34458  18.258  22.034  20.482 -0.0020  0.3035 -0.0955
91365W        W34459  20.554  23.213  22.263  0.0474 -0.1818 -0.4764
91366W        W34460  20.328  19.759  21.090  0.2527  0.1213 -0.0913
91367W        W34461  18.814  21.822  20.389  0.0831  0.0258  0.3896
91368W        W34462  17.273  22.847  20.355 -0.1500  0.4752 -0.1227
91369W        W34463  18.921  20.390  18.497  0.3500 -0.0639 -0.1577
91370W        W34464  21.646  20.750  18.941 -0.2514  0.1854 -0.1870
91371W        W34465  20.772  21.764  22.732 -0.2518 -0.0844  0.1019
91372W        W34466  19.435  21.020  22.617 -0.0089 -0.3387 -0.0438
91373W        W34467  17.929  23.165  17.949 -0.1506 -0.1302  0.0697
91374W        W34468  19.911  22.303  21.373 -0.2044  0.4598  0.1440
91375W        W34469  18.977  20.721  22.666 -0.3821 -0.2554 -0.0369
91376W        W34470  20.382  20.468  20.890 -0.3201  0.1611 -0.0841
91377W        W34471  19.595  20.130  20.452 -0.0845 -0.2412  0.0190
91378W        W34472  20.265  21.432  19.831  0.0256  0.0732 -0.0680
91379W        W34473  19.785  22.612  22.742 -0.1190  0.1496  0.0961
91380W        W34474  20.650  20.309  21.959  0.1501  0.1445 -0.0955
91381W        W34475  17.500  21.351  20.357 -0.1481  0.2600 -0.0551
91382W        W34476  21.599  20.684  20.555 -0.0661  0.1535  0.2720
91383W        W34477  20.022  21.008  19.653  0.2793 -0.0600  0.0894
91384W        W34478  19.025  20.494  19.016  0.2192 -0.3015 -0.0243
91385W        W34479  19.944  20.267  17.330 -0.2064 -0.0340  0.1094
91386W        W34480  21.087  20.318  17.706  0.2110 -0.1230  0.1382
91387W        W34481  20.378  17.203  18.599  0.1558 -0.1835  0.3291
91388W        W34482  19.324  22.039  22.045  0.0611  0.2942 -0.2245
91389W        W34483  21.779  21.239  21.910 -0.2439 -0.1847 -0.0087
91390W        W34484  20.073  20.376  20.395 -0.0024 -0.0538 -0.3393
91391W        W34485  21.508  20.091  19.203 -0.4193  0.1272 -0.0763
91392W        W34486  18.820  21.016  21.621 -0.1440  0.2000  0.0702
91393W        W34487  19.955  21.556  20.240  0.0629  0.0235  0.0177
91394W        W34488  22.384  21.242  19.010 -0.2402  0.0898  0.1201
91395W        W34489  22.400  21.524  21.367 -0.0628  0.0436  0.0889
91396W        W34490  20.720  21.348  19.545 -0.0849 -0.0226  0.0739
91397W        W34491  19.044  20.056  20.801  0.1217  0.0324  0.2085
91398W        W34492  19.243  20.713  20.969  0.2979 -0.4461 -0.1502
91399W        W34493  18.190  19.983  21.054 -0.3333 -0.0355  0.0809
91400W        W34494  20.386  20.172  16.529 -0.0698  0.2049 -0.2918
91401W        W34495  22.840  19.136  22.439 -0.1670  0.1931 -0.1052
91402W        W34496  19.453  22.250  22.546 -0.0777  0.1788 -0.0598
91403W        W34497  23.219  20.007  20.315  0.0964 -0.1776 -0.0979
91404W        W34498  20.823  21.881  21.044 -0.0207 -0.2958 -0.3622
91405W        W34499  21.616  21.091  20.882  0.0451 -0.1856 -0.3604
91406W        W34500  22.045  21.530  19.148 -0.2725  0.1646 -0.0124
91407W        W34501  21.379  18.920  19.102  0.1720 -0.1017 -0.0520
91408W        W34502  17.623  21.488  19.832  0.0085 -0.2158 -0.2504
91409W        W34503  19.990  20.123  19.572 -0.0592  0.1668  0.0264
91410W        W34504  23.139  20.053  22.433 -0.0892  0.1839 -0.0881
91411W        W34505  21.528  20.945  19.501 -0.2608  0.2898  0.0794
91412W        W34506  17.841  20.749  20.481 -0.1655 -0.2975 -0.1454
91413W        W34507  21.455  20.277  21.322 -0.1601 -0.0874 -0.0539
91414W        W34508  22.119  20.270  22.905  0.3653 -0.2095 -0.0726
91415W        W34509  18.095  21.759  19.909 -0.1424 -0.1214 -0.3402
91416W        W34510  18.623  20.627  19.873 -0.2472 -0.2602 -0.0812
91417W        W34511  16.960  20.395  19.887  0.2663 -0.2525  0.1547
91418W        W34512  18.687  20.319  20.256  0.0260  0.2238  0.0118
91419W        W34513  20.559  21.444  21.116 -0.3619 -0.0296  0.1029
91420W        W34514  18.664  19.563  20.880 -0.0198  0.3320 -0.0947
91421W        W34515  17.985  21.163  19.640 -0.0588 -0.1062 -0.0086
91422W        W34516  22.561  22.875  20.902  0.0722 -0.0239 -0.1046
91423W        W34517  23.523  18.946  18.961  0.1724  0.2380 -0.0047
91424W        W34518  20.606  22.534  17.919 -0.0058 -0.0906 -0.0773
91425W        W34519  19.664  20.655  20.441  0.0691 -0.0142  0.2458
91426W        W34520  18.437  20.543  18.903 -0.0409  0.0212 -0.1033
91427W        W34521  19.161  20.101  22.126  0.1712  0.2516 -0.0247
91428W        W34522  18.109  19.327  19.595  0.2525  0.0569 -0.1640
91429W        W34523  21.864  19.796  20.613  0.2775 -0.0177 -0.1970
91430W        W34524  20.890  20.795  19.460  0.3516 -0.1192 -0.0921
91431W        W34525  20.570  21.145  18.462 -0.2108  0.0039  0.1320
91432W        W34526  18.494  20.668  18.398  0.1649 -0.3129  0.1995
91433W        W34527  20.831  19.724  20.603 -0.0140 -0.0532  0.0031
91434W        W34528  20.087  22.858  19.985 -0.2698 -0.0593  0.2614
91435W        W34529  21.831  21.742  23.234  0.5849 -0.0566  0.0926
91436W        W34530  21.153  21.002  21.665 -0.0401 -0.1151  0.1865
91437W        W34531  18.501  19.488  19.192  0.0686 -0.0460  0.2262
91438W        W34532  18.515  22.658  20.158  0.0824  0.3144 -0.0114
91439W        W34533  19.317  22.751  22.699 -0.1491 -0.0043 -0.0718
91440W        W34534  20.884  22.394  22.410 -0.2468 -0.1521 -0.1000
91441W        W34535  20.885  20.073  20.109 -0.0188  0.1706  0.2379
91442W        W34536  18.330  21.098  20.543 -0.1558  0.2804  0.1423
91443W        W34537  21.813  20.583  21.013 -0.0371  0.3894 -0.0488
91444W        W34538  20.834  21.062  20.269  0.0608 -0.3725 -0.2393
91445W        W34539  18.964  19.694  18.030  0.2065  0.1630 -0.1739
91446W        W34540  22.606  21.304  20.965 -0.0637 -0.1303 -0.0094
91447W        W34541  16.628  21.611  18.944 -0.1645  0.1049  0.0005
91448W        W34542  17.945  20.319  20.688  0.1310  0.0356  0.3662
91449W        W34543  19.335  22.307  21.575 -0.2070 -0.3131  0.3445
91450W        W34544  21.367  20.049  20.177  0.1466  0.1722 -0.1058
91451W        W34545  18.710  20.091  21.142  0.0167 -0.2653 -0.0584
91452W        W34546  20.892  19.628  21.068  0.0318 -0.2837 -0.1942
91453W        W34547  17.417  20.535  19.857  0.0299  0.1112  0.1558
91454W        W34548  20.226  20.721  21.948 -0.2675  0.0574 -0.0229
91455W        W34549  22.167  20.954  17.221 -0.3032  0.2804 -0.0396
91456W        W34550  20.536  21.052  19.891 -0.0075 -0.0249 -0.1912
91457W        W34551  22.267  20.345  19.856  0.0104  0.0324  0.1767
91458W        W34552  21.011  20.143  18.321  0.0071 -0.0828 -0.1075
91459W        W34553  19.849  20.814  21.679  0.1839  0.1553 -0.5318
91460W        W34554  20.153  20.829  20.582  0.1075  0.0657 -0.1710
91461W        W34555  21.064  22.516  21.120  0.5265  0.0200 -0.1097
91462W        W34556  20.502  19.264  17.443  0.0880  0.0866 -0.0239
91463W        W34557  21.806  21.779  20.680  0.2419 -0.1022  0.1155
91464W        W34558  19.124  21.179  21.197  0.0006  0.1405 -0.1462
91465W        W34559  22.016  20.281  21.566  0.1279 -0.0060 -0.1928
91466W        W34560  21.708  21.345  20.415  0.0711 -0.3623 -0.0669
91467W        W34561  19.952  19.932  20.135  0.3506 -0.0811  0.1171
91468W        W34562  19.680  19.965  18.641  0.0963 -0.3402 -0.0226
91469W        W34563  19.861  20.891  19.109 -0.2313 -0.2702  0.3245
91470W        W34564  22.381  19.118  19.657  0.0780 -0.0436  0.2455
91471W        W34565  20.925  18.987  20.743 -0.2961  0.0636  0.2937
91472W        W34566  21.140  20.572  20.209 -0.5221 -0.1810  0.0558
91473W        W34567  21.845  19.970  17.885  0.5045 -0.0730 -0.1167
91474W        W34568  21.570  19.817  21.027  0.0927  0.0358  0.0507
91475W        W34569  17.213  20.583  19.394  0.1914 -0.1348 -0.1394
91476W        W34570  20.501  19.759  20.213  0.0916 -0.1323 -0.1451
91477W        W34571  18.309  20.456  21.102  0.2878  0.0089  0.2299
91478W        W34572  18.934  23.275  22.640 -0.2225 -0.1722 -0.1448
91479W        W34573  20.513  21.355  21.832 -0.3826  0.3470  0.1133
91480W        W34574  21.766  20.487  19.387 -0.1222  0.4837  0.1721
91481W        W34575  19.826  19.631  21.237 -0.1013 -0.1592  0.0162
91482W        W34576  21.376  19.266  18.653 -0.2577  0.0767  0.0219
91483W        W34577  18.685  21.432  18.955  0.1009 -0.0388 -0.0746
91484W        W34578  19.110  22.444  19.191 -0.0661  0.0599  0.2871
91485W        W34579  19.843  19.155  19.043 -0.0391 -0.2349  0.1530
91486W        W34580  20.007  22.785  21.650  0.1098 -0.0242 -0.1251
91487W        W34581  18.207  20.440  18.032 -0.0850  0.1465 -0.1453
91488W        W34582  22.609  19.368  20.762 -0.0108  0.1751  0.0971
91489W        W34583  20.069  20.437  19.136 -0.2057 -0.1252  0.0309
91490W        W34584  18.932  21.309  20.338 -0.1849  0.0931 -0.0436
91491W        W34585  20.365  19.973  18.097  0.3315 -0.2340 -0.0498
91492W        W34586  15.864  21.553  20.377 -0.1069  0.0559  0.2140
91493W        W34587  22.559  21.558  19.866  0.3305 -0.2486  0.3044
91494W        W34588  18.130  21.383  21.632  0.2353 -0.1914 -0.1493
91495W        W34589  20.933  20.572  21.375 -0.2666 -0.1905 -0.0425
91496W        W34590  21.290  19.955  17.931 -0.3668 -0.2082 -0.4759
91497W        W34591  22.239  21.256  20.094  0.1856  0.0106 -0.0793
91498W        W34592  21.861  20.718  26.094 -0.0840  0.1394  0.0311
91499W        W34593  18.405  18.879  17.237 -0.3000 -0.0138 -0.1368
91500W        W34594  22.929  18.796  21.440 -0.0936  0.0574 -0.5451
91501W        W34595  18.726  20.023  19.103  0.0050 -0.0362 -0.2984
91502W        W34596  19.014  22.014  21.284  0.0780 -0.0644 -0.1854
91503W        W34597  21.495  21.334  22.421 -0.1219  0.0143 -0.0264
91504W        W34598  18.699  20.518  19.382  0.2389  0.1551  0.1680
91505W        W34599  19.301  20.968  20.228 -0.0411  0.3185  0.3685
91506W        W34600  20.611  19.584  21.563  0.0803  0.0054  0.2199
91507W        W34601  22.572  21.210  22.708 -0.1796  0.3261 -0.1468
91508W        W34602  20.509  20.183  19.436  0.3894 -0.0302  0.4990
91509W        W34603  20.003  19.004  18.571 -0.0022 -0.0681  0.1306
91510W        W34604  20.763  20.637  19.911  0.2435 -0.0900  0.1903
91511W        W34605  21.115  21.181  19.290 -0.1483 -0.4519 -0.1655
91512W        W34606  21.105  20.186  20.561 -0.2643 -0.2694  0.5497
91513W        W34607  19.645  20.458  21.370  0.3652 -0.1053 -0.0057
91514W        W34608  20.181  18.768  19.159 -0.1036 -0.1990  0.0911
91515W        W34609  21.270  21.558  19.644  0.1277  0.0201 -0.0293
91516W        W34610  22.183  19.246  21.604 -0.1362 -0.3358 -0.1030
91517W        W34611  19.124  20.574  19.984  0.2721 -0.0777  0.0663
91518W        W34612  18.239  19.962  18.960 -0.0420  0.0550  0.1773
91519W        W34613  20.751  21.513  20.047 -0.0233  0.0819  0.0605
91520W        W34614  20.210  19.683  19.784  0.2705 -0.0432 -0.1808
91521W        W34615  18.696  22.044  20.885  0.1547 -0.2071 -0.0180
91522W        W34616  17.967  20.650  19.654  0.1841  0.1143  0.1106
91523W        W34617  17.914  21.627  20.935  0.1463 -0.1183 -0.0471
91524W        W34618  23.184  18.302  18.165  0.3071 -0.0096  0.2242
91525W        W34619  22.403  21.103  19.594 -0.0819 -0.2061 -0.1038
91526W        W34620  22.562  19.098  21.237  0.1583  0.2572 -0.1468
91527W        W34621  22.347  20.802  18.188  0.1169 -0.3616 -0.0000
91528W        W34622  23.213  21.243  20.822  0.0349 -0.2283 -0.2064
91529W        W34623  18.845  19.166  19.972  0.1682  0.1252 -0.3181
91530W        W34624  20.453  21.914  24.690  0.2260  0.0430  0.1956
91531W        W34625  18.704  20.809  20.321 -0.1931 -0.0016 -0.2455
91532W        W34626  20.214  21.006  21.074  0.2069 -0.1177  0.1088
91533W        W34627  22.272  21.513  20.609 -0.1198 -0.0408 -0.2712
91534W        W34628  20.278  21.891  21.311  0.0804  0.0269  0.2038
91535W        W34629  22.823  19.544  19.073  0.1035  0.2071 -0.1641
91536W        W34630  20.159  21.172  21.559 -0.1813  0.0168  0.1400
91537W        W34631  22.016  20.988  19.306 -0.1843 -0.2845 -0.1263
91538W        W34632  19.824  19.935  19.131  0.2056 -0.0533 -0.0359
91539W        W34633  19.955  21.467  21.181 -0.1607  0.0009 -0.0315
91540W        W34634  20.198  19.358  20.395 -0.2279 -0.0451 -0.2817
91541W        W34635  22.154  20.531  19.025 -0.2027  0.1846  0.0779
91542W        W34636  21.087  19.620  20.187 -0.1996 -0.0942 -0.0031
91543W        W34637  22.239  20.561  21.301  0.2271  0.0556  0.3644
91544W        W34638  19.145  19.699  21.853  0.0233 -0.0559 -0.0437
91545W        W34639  18.403  19.183  20.667 -0.2382  0.0531 -0.0566
91546W        W34640  21.063  21.944  22.241  0.1591 -0.1815  0.2537
91547W        W34641  23.112  19.599  18.091  0.0202 -0.0468 -0.0395
91548W        W34642  22.510  20.700  20.697 -0.3388 -0.1088 -0.1722
91549W        W34643  20.706  20.436  19.063  0.0347  0.1318 -0.2150
91550W        W34644  18.625  19.807  20.156  0.0799 -0.0063 -0.1088
91551W        W34645  20.850  19.446  21.973 -0.2223  0.1040 -0.0090
91552W        W34646  19.429  20.063  17.401  0.1880  0.3971 -0.1875
91553W        W34647  21.232  19.181  21.055  0.0692  0.0676 -0.3563
91554W        W34648  20.367  20.928  19.254 -0.0852  0.3364  0.0086
91555W        W34649  21.760  21.319  19.900  0.2076 -0.2292  0.3078
91556W        W34650  17.964  21.189  20.163 -0.0954  0.1448  0.0578
91557W        W34651  20.416  21.349  22.768 -0.0969  0.0118 -0.0197
91558W        W34652  19.181  20.068  18.712 -0.1123  0.1557 -0.1491
91559W        W34653  17.421  21.466  19.341  0.0877  0.2318  0.0783
91560W        W34654  19.529  21.355  22.267 -0.1806 -0.3046  0.0046
91561W        W34655  22.506  19.640  21.218  0.1439 -0.1873  0.0378
91562W        W34656  22.568  21.174  20.433  0.0567  0.0592 -0.0449
91563W        W34657  19.757  20.545  19.508 -0.0951  0.0687 -0.1926
91564W        W34658  21.378  18.378  19.147  0.1903 -0.3609 -0.0120
91565W        W34659  20.552  21.599  23.275 -0.2792  0.0263 -0.0021
91566W        W34660  18.486  21.392  21.220  0.0714 -0.0693  0.3872
91567W        W34661  19.166  21.546  19.481 -0.3841 -0.2025  0.1515
91568W        W34662  22.392  20.197  20.326  0.0921 -0.0366  0.0441
91569W        W34663  20.799  21.716  20.567  0.4068  0.1063 -0.0104
91570W        W34664  22.296  18.961  20.831 -0.0025 -0.1617 -0.0745
91571W        W34665  21.046  21.339  21.972  0.0560  0.0313 -0.5811
91572W        W34666  20.053  20.974  22.431 -0.1165  0.3464 -0.1100
91573W        W34667  19.940  20.359  21.762  0.1202 -0.2341 -0.0652
91574W        W34668  22.001  21.494  21.046 -0.1657  0.0959  0.0437
91575W        W34669  18.172  20.642  20.097  0.0742  0.3519  0.1884
91576W        W34670  18.958  19.212  21.203 -0.2008 -0.0856  0.0127
91577W        W34671  20.808  20.114  22.479 -0.1533  0.1781 -0.2980
91578W        W34672  20.586  21.117  20.743 -0.0086 -0.1551 -0.1500
91579W        W34673  18.607  21.438  19.470  0.1507  0.2261 -0.0765
91580W        W34674  20.280  19.914  23.085 -0.6068  0.1464 -0.0660
91581W        W34675  19.269  20.813  21.510  0.0941  0.0786 -0.1156
91582W        W34676  19.650  22.372  19.950  0.1576  0.1151  0.0579
91583W        W34677  22.323  20.870  18.704  0.3422 -0.4010  0.1668
91584W        W34678  21.243  21.443  20.263 -0.0777  0.1700  0.1959
91585W        W34679  21.944  22.637  23.661 -0.1793  0.0005 -0.1490
91586W        W34680  21.082  18.187  17.005  0.0516  0.2532 -0.0670
91587W        W34681  19.382  21.579  21.180 -0.2842 -0.0883  0.6322
91588W        W34682  17.292  21.586  18.877  0.0931 -0.0626 -0.1827
91589W        W34683  20.911  20.955  18.865 -0.1204 -0.1980  0.3013
91590W        W34684  19.738  21.199  20.661  0.0082 -0.1184  0.0350
91591W        W34685  21.956  20.748  21.712 -0.1806  0.0871 -0.1122
91592W        W34686  23.352  18.934  21.259  0.1459 -0.0202  0.0055
91593W        W34687  23.248  19.901  19.021  0.2349 -0.0581 -0.0127
91594W        W34688  21.311  22.044  23.094  0.1513  0.2223 -0.0499
91595W        W34689  20.200  21.523  20.736 -0.1040 -0.3166 -0.0295
91596W        W34690  20.831  20.043  17.423  0.3168  0.0005  0.1297
91597W        W34691  19.223  19.676  20.512 -0.1062 -0.0655 -0.2763
91598W        W34692  24.433  18.919  21.226  0.2502 -0.1530 -0.0352
91599W        W34693  19.886  21.388  22.820  0.0710  0.0269 -0.2589
91600W        W34694  20.536  21.936  19.194 -0.0288  0.0732 -0.0418
91601W        W34695  18.828  20.149  19.775  0.2261  0.0644  0.0303
91602W        W34696  19.169  20.023  20.196 -0.1808  0.2874  0.3627
91603W        W34697  18.917  21.084  19.311 -0.2039 -0.2649  0.0861
91604W        W34698  20.363  21.805  20.203 -0.0230  0.0881  0.0612
91605W        W34699  19.788  23.148  22.078  0.1764  0.1358  0.1010
91606W        W34700  19.011  22.399  22.668  0.0934  0.0428 -0.1137
91607W        W34701  18.707  19.060  18.105  0.1008  0.3003  0.2594
91608W        W34702  22.552  19.456  18.305 -0.0537  0.0179 -0.2377
91609W        W34703  19.769  20.694  20.926  0.0818 -0.0431 -0.3632
91610W        W34704  22.507  17.118  21.916  0.1250  0.2351 -0.1608
91611W        W34705  20.945  20.153  21.025  0.0188  0.2566  0.0185
91612W        W34706  21.437  20.899  22.057 -0.2015 -0.0576  0.1405
91613W        W34707  20.494  20.110  20.586 -0.1457  0.0685 -0.0488
91614W        W34708  19.908  19.516  18.152  0.1942 -0.0272  0.0997
91615W        W34709  21.503  20.301  23.733  0.1187  0.3174 -0.2554
91616W        W34710  20.988  20.757  17.965 -0.1735  0.1326 -0.0800
91617W        W34711  20.497  22.705  22.571  0.1714  0.1625  0.3633
91618W        W34712  18.940  19.550  18.931  0.0965  0.4621  0.1016
91619W        W34713  21.887  21.157  18.775  0.0405 -0.1450  0.0784
91620W        W34714  18.408  21.114  20.020  0.0989 -0.1191  0.2184
91621W        W34715  20.981  21.292  20.930 -0.3477 -0.1776 -0.2236
91622W        W34716  21.332  20.356  22.401  0.1419 -0.2270  0.0016
91623W        W34717  19.551  19.079  18.304  0.0434 -0.1583  0.2905
91624W        W34718  22.740  21.000  19.985  0.3347  0.0184  0.1286
91625W        W34719  21.821  20.030  19.967  0.1468  0.0684  0.2831
91626W        W34720  18.897  21.625  19.907  0.0424 -0.2740 -0.3299
91627W        W34721  22.932  21.237  21.432  0.2282  0.0946 -0.1756
91628W        W34722  20.794  22.172  21.452  0.0225 -0.3260 -0.0158
91629W        W34723  18.803  19.411  20.389  0.0038 -0.0842  0.1478
91630W        W34724  22.868  19.688  21.588 -0.2147 -0.0632 -0.0363
91631W        W34725  21.597  20.204  20.616 -0.1361 -0.0310  0.0365
91632W        W34726  20.475  17.785  18.641  0.1357 -0.2640 -0.0158
91633W        W34727  19.512  20.087  19.541  0.1203 -0.1207 -0.0886
91634W        W34728  18.593  22.074  20.015  0.0510 -0.0308  0.2279
91635W        W34729  22.352  20.752  20.137 -0.2071  0.1490 -0.0419
91636W        W34730  20.667  21.352  19.036 -0.3097  0.2956  0.0102
91637W        W34731  19.811  20.627  22.189  0.1917  0.1878 -0.1736
91638W        W34732  20.308  21.832  22.811  0.0561  0.1207  0.2921
91639W        W34733  17.787  19.960  18.713 -0.1066 -0.0234 -0.0779
91640W        W34734  20.850  20.697  20.863  0.2015 -0.0227 -0.1437
91641W        W34735  19.887  21.032  20.132  0.0980  0.3326  0.0889
91642W        W34736  20.192  23.178  21.428  0.2823  0.0093  0.2215
91643W        W34737  22.978  20.487  22.208 -0.0551 -0.0984  0.1039
91644W        W34738  20.529  21.874  19.739 -0.1384  0.0146  0.1931
91645W        W34739  22.359  20.466  21.882 -0.3565 -0.2255  0.2775
91646W        W34740  20.258  20.645  21.452  0.0060 -0.1862 -0.0787
91647W        W34741  21.304  19.818  18.604  0.0539  0.2446 -0.1121
91648W        W34742  20.653  20.801  21.728 -0.0529  0.1092  0.1135
91649W        W34743  17.961  20.365  18.899 -0.0490 -0.0879  0.0946
91650W        W34744  17.995  20.669  18.527  0.1393  0.2255  0.0688
91651W        W34745  19.249  21.181  20.725 -0.3595  0.0526 -0.0552
91652W        W34746  18.489  20.031  20.623  0.0814  0.2433 -0.1041
91653W        W34747  18.355  20.216  19.833  0.2293 -0.1243 -0.3038
91654W        W34748  22.270  21.372  18.487  0.3072  0.0783  0.0286
91655W        W34749  18.616  19.564  19.706 -0.1591 -0.0900  0.1755
91656W        W34750  17.918  19.514  19.122 -0.1899 -0.3665 -0.0439
91657W        W34751  21.463  20.479  19.793 -0.1223 -0.3476 -0.0998
91658W        W34752  23.515  21.255  21.343  0.0665  0.0219 -0.0840
91659W        W34753  21.707  20.245  23.234  0.4025  0.1070 -0.2399
91660W        W34754  17.134  23.621  18.544 -0.0177  0.0184 -0.2567
91661W        W34755  21.308  20.604  20.991 -0.3263 -0.1984 -0.1227
91662W        W34756  19.617  19.670  20.809 -0.0906  0.0080 -0.2212
91663W        W34757  18.382  19.079  17.692  0.2050  0.1045 -0.2236
91664W        W34758  20.396  20.225  19.990  0.0762  0.1139  0.3025
91665W        W34759  21.390  21.549  20.909 -0.2088  0.1312  0.2531
91666W        W34760  21.352  22.287  18.987  0.0807  0.4150  0.0017
91667W        W34761  19.899  21.802  21.625 -0.2491  0.1343  0.0783
91668W        W34762  20.064  22.185  22.419  0.0180  0.1621 -0.1408
91669W        W34763  18.178  18.865  19.825  0.0405  0.4217  0.2686
91670W        W34764  21.267  20.559  19.244 -0.2627  0.1496  0.2652
91671W        W34765  20.217  21.863  22.033  0.0170  0.2415 -0.0107
91672W        W34766  23.529  20.002  19.868 -0.3787  0.1124  0.1049
91673W        W34767  22.768  18.343  22.400 -0.1102  0.1317 -0.3328
91674W        W34768  21.032  20.113  19.312  0.1275 -0.0240  0.1289
91675W        W34769  18.746  20.701  21.255  0.1776  0.2669 -0.0487
91676W        W34770  21.516  20.786  21.409 -0.0604  0.1972  0.1833
91677W        W34771  21.268  21.829  21.335  0.2198  0.2486 -0.1499
91678W        W34772  19.752  20.417  19.975  0.0166  0.0681 -0.0033
91679W        W34773  21.911  20.488  18.073 -0.2149  0.4613 -0.0703
91680W        W34774  21.739  20.413  22.084 -0.0346 -0.4103  0.2705
91681W        W34775  22.012  20.929  20.615  0.0047 -0.0926 -0.1465
91682W        W34776  22.942  20.893  21.786  0.4630  0.0525 -0.1573
91683W        W34777  19.038  19.797  19.433 -0.0848 -0.1209 -0.0102
91684W        W34778  22.084  20.364  18.514 -0.0096 -0.1921 -0.0781
91685W        W34779  21.754  20.212  22.605 -0.1190 -0.1519 -0.0599
91686W        W34780  21.285  21.711  22.680 -0.1663  0.1410 -0.2356
91687W        W34781  18.796  22.445  21.449 -0.0018 -0.0145 -0.0611
91688W        W34782  21.938  20.826  19.860 -0.1747  0.2155 -0.0354
91689W        W34783  19.162  18.838  19.675 -0.2678 -0.1699  0.5058
91690W        W34784  18.859  21.111  19.790 -0.0728  0.1555 -0.1780
91691W        W34785  20.275  20.709  20.092 -0.1923  0.1695 -0.3018
91692W        W34786  21.374  19.714  20.567 -0.1960 -0.3484  0.0691
91693W        W34787  19.602  19.697  19.832 -0.2070 -0.1769 -0.0677
91694W        W34788  21.386  19.066  17.960  0.2284  0.0981 -0.1144
91695W        W34789  20.693  21.102  23.200  0.2199 -0.1018  0.0982
91696W        W34790  22.993  20.810  20.502 -0.1014  0.1523 -0.0712
91697W        W34791  19.711  20.595  26.446 -0.2271  0.1278  0.0635
91698W        W34792  20.617  19.078  22.753  0.1773  0.3376 -0.1223
91699W        W34793  21.885  18.845  21.277  0.0706  0.1625  0.2493
91700W        W34794  21.997  20.339  23.719 -0.0317  0.3361  0.0488
91701W        W34795  18.550  19.427  22.434  0.4619  0.0611 -0.2065
91702W        W34796  21.279  22.298  22.681 -0.1096 -0.2405  0.1286
91703W        W34797  19.803  18.759  24.563  0.0743  0.3800 -0.0930
91704W        W34798  21.145  19.982  23.998 -0.3300  0.0620  0.2552
91705W        W34799  21.853  20.129  26.625  0.3177 -0.3938 -0.2374
91706W        W34800  20.980  20.832  22.167 -0.2569  0.0526 -0.0868
91707W        W34801  20.149  19.994  24.190 -0.1594 -0.0752 -0.2608
91708W        W34802  20.209  20.756  25.746  0.4288  0.2647  0.1048
91709W        W34803  19.970  18.460  22.041  0.0684  0.1994  0.3680
91710W        W34804  19.329  17.575  23.385  0.2054 -0.0882  0.1328
91711W        W34805  20.523  20.903  24.878  0.2650 -0.0070 -0.1771
91712W        W34806  19.884  19.892  22.619 -0.5556  0.2041 -0.0470
91713W        W34807  18.969  19.206  24.035  0.1741 -0.0027  0.3700
91714W        W34808  21.325  18.748  23.134 -0.1940  0.0978 -0.3172
91715W        W34809  20.969  22.296  26.075 -0.1824 -0.0286 -0.1142
91716W        W34810  19.519  18.502  25.341 -0.3112  0.1675  0.1523
91717W        W34811  21.520  18.581  25.762 -0.0358  0.0408  0.2956
91718W        W34812  20.398  20.807  22.810 -0.0178 -0.3018  0.1368
91719W        W34813  18.932  19.105  23.159  0.0439 -0.1902  0.0659
91720W        W34814  19.914  19.453  23.367 -0.1351  0.0125 -0.3306
91721W        W34815  18.360  20.528  24.432 -0.0323  0.0485  0.0580
91722W        W34816  20.314  19.146  25.542 -0.0603 -0.2487 -0.2687
91723W        W34817  22.696  19.501  23.753  0.3249 -0.0209  0.0523
91724W        W34818  20.755  21.609  24.940 -0.1937  0.0550  0.1941
91725W        W34819  21.505  19.864  24.388  0.3357  0.2248 -0.0964
91726W        W34820  19.725  19.324  25.677 -0.0350 -0.2711 -0.0051
91727W        W34821  19.743  19.809  23.830 -0.1686 -0.0460 -0.1972
91728W        W34822  19.690  22.924  26.231 -0.0213  0.0168 -0.2151
91729W        W34823  21.046  20.914  23.546 -0.0054  0.1479 -0.0578
91730W        W34824  22.483  19.910  22.864  0.0583  0.0011  0.1706
91731W        W34825  21.525  19.983  26.090 -0.0602 -0.0099  0.1785
91732W        W34826  20.009  22.829  26.622 -0.1827  0.0298  0.2104
91733W        W34827  18.977  21.207  22.708 -0.1495  0.0818  0.0457
91734W        W34828  19.956  21.937  27.708  0.2077 -0.0145  0.2367
91735W        W34829  19.290  21.096  25.140 -0.0324  0.2142  0.3662
91736W        W34830  19.897  20.401  25.989  0.1062 -0.2794 -0.1485
91737W        W34831  21.107  21.021  24.043  0.1419 -0.2673  0.1114
91738W        W34832  18.358  19.682  22.771  0.1943  0.0812 -0.1023
91739W        W34833  19.954  20.685  23.566  0.2844 -0.1067 -0.3556
91740W        W34834  18.328  21.124  25.179  0.0394  0.4023 -0.1344
91741W        W34835  19.716  21.132  25.477  0.1637  0.0604 -0.0599
91742W        W34836  22.690  19.006  26.304 -0.1480  0.0645  0.0725
91743W        W34837  20.668  20.111  23.547 -0.2289 -0.2362  0.0700
91744W        W34838  21.694  19.332  20.691  0.0315 -0.1297  0.0233
91745W        W34839  20.044  19.819  20.611 -0.2804  0.2731 -0.2389
91746W        W34840  21.196  17.694  22.123 -0.3578 -0.1687 -0.0070
91747W        W34841  21.860  18.624  23.949  0.0606 -0.1229 -0.0344
91748W        W34842  19.507  23.203  24.380 -0.1333 -0.1242 -0.1480
91749W        W34843  20.682  19.055  25.226 -0.1761  0.4433  0.3183
91750W        W34844  22.177  20.525  26.493  0.0190  0.0973 -0.0616
91751W        W34845  20.870  20.501  23.165  0.1285 -0.0499  0.2522
91752W        W34846  21.063  19.158  23.807  0.3197 -0.0404  0.1535
91753W        W34847  18.169  22.345  25.520  0.1002  0.0892 -0.2084
91754W        W34848  19.687  19.053  21.496  0.2774 -0.0827 -0.1735
91755W        W34849  22.665  20.211  22.491 -0.1805  0.0659 -0.0467
91756W        W34850  21.775  20.849  24.490  0.0688 -0.0158 -0.0245
91757W        W34851  21.504  20.808  22.606 -0.0158  0.3427  0.0315
91758W        W34852  19.665  19.318  21.894  0.2572  0.2727  0.0733
91759W        W34853  18.886  19.887  24.628  0.0111  0.0045 -0.0222
91760W        W34854  19.595  21.807  25.034 -0.2007  0.2384 -0.1374
91761W        W34855  20.861  20.785  26.905 -0.1887 -0.0501 -0.3371
91762W        W34856  19.022  22.916  27.415  0.0037 -0.2984 -0.1924
91763W        W34857  22.188  17.126  25.083 -0.1555  0.0734  0.3357
91764W        W34858  19.680  20.834  24.997 -0.0679 -0.3055  0.3317
91765W        W34859  21.518  22.255  24.898 -0.0569 -0.0589 -0.1588
91766W        W34860  21.294  20.502  21.786 -0.3671  0.2687 -0.0814
91767W        W34861  20.857  18.025  24.284 -0.0063 -0.1470  0.1373
91768W        W34862  21.229  18.367  25.172  0.0891  0.1043  0.0265
91769W        W34863  20.334  22.079  23.244 -0.4176 -0.0417 -0.0508
91770W        W34864  20.470  20.555  22.373 -0.0080  0.0637  0.1136
91771W        W34865  22.360  21.446  24.603  0.2639  0.1250  0.1191
91772W        W34866  22.052  19.687  21.444 -0.0531  0.1283  0.1964
91773W        W34867  20.010  22.110  24.670  0.1013 -0.0814 -0.2338
91774W        W34868  19.897  19.857  25.912  0.3588 -0.2577  0.1914
91775W        W34869  20.622  21.657  26.372 -0.0594 -0.0590  0.0912
91776W        W34870  19.313  22.087  23.589 -0.0576 -0.1621 -0.1385
91777W        W34871  19.023  21.172  24.475 -0.4001 -0.1045  0.2370
91778W        W34872  19.540  20.536  23.351 -0.0091  0.1057  0.2313
91779W        W34873  19.632  18.136  23.877  0.0966  0.1660  0.0037
91780W        W34874  19.120  20.786  24.725  0.1625  0.2050  0.1691
91781W        W34875  21.921  17.741  23.637 -0.2392  0.1549 -0.0800
91782W        W34876  19.321  19.702  23.216 -0.1434  0.0910  0.0243
91783W        W34877  21.684  18.341  25.351  0.0719 -0.1654 -0.2451
91784W        W34878  20.171  19.900  21.697 -0.0981  0.1612  0.0300
91785W        W34879  23.000  20.976  24.812  0.3739 -0.0324 -0.0407
91786W        W34880  21.571  18.571  23.538 -0.2322 -0.0198  0.0926
91787W        W34881  21.661  19.873  22.232  0.0821  0.3953  0.1778
91788W        W34882  18.057  19.439  23.508 -0.2595 -0.0820 -0.0291
91789W        W34883  20.644  19.545  23.230  0.3856 -0.0551 -0.0455
91790W        W34884  18.912  19.438  25.696  0.0376  0.1589  0.0733
91791W        W34885  21.210  19.605  23.432 -0.0048 -0.0678  0.2062
91792W        W34886  21.336  20.255  26.637 -0.2529 -0.2105 -0.2324
91793W        W34887  19.159  18.886  21.586  0.2928  0.4977 -0.2190
91794W        W34888  21.285  19.660  24.763  0.1475 -0.1817  0.0533
91795W        W34889  20.799  19.600  23.783 -0.0307 -0.2836 -0.1238
91796W        W34890  18.960  20.577  23.321  0.2185 -0.0823  0.3751
91797W        W34891  20.797  20.078  25.529  0.2348 -0.0508  0.0237
91798W        W34892  21.213  21.783  25.031  0.1006  0.0949 -0.3443
91799W        W34893  21.900  20.745  25.614 -0.3911 -0.0802 -0.1714
91800W        W34894  22.199  19.693  22.441  0.0669 -0.2209 -0.1220
91801W        W34895  19.684  19.466  22.847 -0.1962 -0.1758  0.0688
91802W        W34896  19.402  19.452  21.488 -0.0130 -0.1954  0.0107
91803W        W34897  19.649  22.757  25.481  0.0348  0.0014  0.2211
91804W        W34898  20.995  20.457  23.769 -0.0931  0.1342 -0.1529
91805W        W34899  19.426  19.188  20.921 -0.0303  0.2403  0.1123
91806W        W34900  22.525  21.494  25.410 -0.0243 -0.1372 -0.3521
91807W        W34901  20.497  20.326  22.798  0.2130  0.0471 -0.0393
91808W        W34902  19.870  20.410  25.475  0.0091  0.0564  0.0822
91809W        W34903  21.158  18.872  25.328 -0.2037 -0.0457  0.3517
91810W        W34904  22.052  20.598  24.936 -0.0742 -0.0436 -0.1192
91811W        W34905  19.486  19.328  23.882  0.2379  0.1355 -0.0333
91812W        W34906  18.734  18.371  20.908 -0.1046 -0.3361  0.1043
91813W        W34907  21.544  21.826  25.398  0.0672  0.0346 -0.3241
91814W        W34908  19.192  19.430  22.867 -0.1325  0.1315 -0.0841
91815W        W34909  19.928  20.217  23.606 -0.3606 -0.0657  0.3189
91816W        W34910  21.423  19.538  23.896 -0.3336  0.0610  0.0802
91817W        W34911  22.369  19.705  24.793  0.1300 -0.1331  0.0032
91818W        W34912  18.218  19.494  25.448 -0.1129  0.3417  0.1148
91819W        W34913  20.410  19.342  26.079  0.0771 -0.1389 -0.2118
91820W        W34914  19.312  19.117  22.426  0.4155 -0.0760  0.2921
91821W        W34915  19.541  20.657  25.764  0.0372  0.0773  0.0420
91822W        W34916  21.737  17.599  22.041 -0.0360 -0.1617 -0.0158
91823W        W34917  22.027  18.927  21.935  0.0555 -0.0445  0.1956
91824W        W34918  21.062  21.978  27.384  0.0407 -0.1174 -0.1466
91825W        W34919  22.508  20.307  24.131  0.0902  0.2674  0.2074
91826W        W34920  21.434  18.802  21.355 -0.1627 -0.0616  0.1132
91827W        W34921  20.967  19.006  22.223 -0.2866  0.0980  0.4474
91828W        W34922  18.180  21.061  27.037 -0.0806  0.2016  0.0721
91829W        W34923  20.597  19.757  24.217  0.0464  0.4911  0.0050
91830W        W34924  20.747  19.613  22.547  0.2514  0.1794  0.2240
91831W        W34925  20.324  19.139  21.185  0.0361 -0.1687 -0.0036
91832W        W34926  21.882  19.526  24.130  0.1780  0.1733  0.2929
91833W        W34927  19.759  20.369  24.364  0.1815 -0.0494  0.3053
91834W        W34928  21.868  20.673  28.100 -0.2738 -0.1127 -0.3876
91835W        W34929  21.821  20.299  24.263  0.2318  0.1837  0.0811
91836W        W34930  20.034  19.395  24.028  0.2001  0.1390 -0.1368
91837W        W34931  19.459  19.961  21.350 -0.1979  0.0420 -0.0867
91838W        W34932  22.223  19.522  23.495  0.0515  0.2074  0.1121
91839W        W34933  20.172  20.428  23.111 -0.0382 -0.1049  0.2875
91840W        W34934  22.067  19.517  25.232  0.0503  0.0932 -0.2098
91841W        W34935  21.482  18.275  24.246 -0.4654  0.0767  0.2929
91842W        W34936  21.322  17.122  24.824 -0.1692  0.1954 -0.1684
91843W        W34937  21.564  19.739  26.710 -0.0285  0.0321 -0.1451
91844W        W34938  21.170  19.129  21.802  0.0628  0.0426  0.1172
91845W        W34939  20.749  19.644  24.834  0.2974  0.0172  0.1553
91846W        W34940  18.752  20.460  20.775 -0.0894  0.2989  0.0230
91847W        W34941  21.330  17.865  25.132  0.2756  0.0824  0.1009
91848W        W34942  18.609  20.692  25.139  0.2035  0.0677  0.1072
91849W        W34943  19.024  20.621  25.688  0.2780 -0.4226 -0.2109
91850W        W34944  20.363  19.390  26.669  0.0233  0.4928  0.0618
91851W        W34945  21.335  20.358  22.906  0.0977 -0.0040  0.2848
91852W        W34946  20.261  19.499  24.451 -0.1188  0.3596 -0.1647
91853W        W34947  19.918  18.792  21.062 -0.0280 -0.0569 -0.0258
91854W        W34948  19.894  21.140  23.690 -0.0718  0.0512  0.0282
91855W        W34949  21.696  21.289  22.894 -0.0833  0.2250  0.0329
91856W        W34950  19.887  17.800  24.198  0.2625 -0.0072  0.2176
91857W        W34951  20.947  20.614  25.040 -0.0310 -0.1759 -0.0334
91858W        W34952  19.649  21.065  21.250  0.3218 -0.0076  0.4307
91859W        W34953  20.834  20.124  25.012  0.4056 -0.2783  0.1198
91860W        W34954  19.516  20.374  22.768 -0.0327  0.0358 -0.1646
91861W        W34955  21.243  18.825  24.866  0.3198  0.0723 -0.0663
91862W        W34956  19.111  21.090  23.382  0.0468 -0.2546  0.2713
91863W        W34957  19.260  19.133  20.447  0.0145  0.2071  0.0089
91864W        W34958  18.280  19.036  22.655 -0.0387 -0.1830 -0.1739
91865W        W34959  21.940  19.101  23.529  0.1553 -0.1639  0.1166
91866W        W34960  23.142  18.968  20.687  0.0078  0.1828  0.1793
91867W        W34961  19.224  19.567  24.343 -0.0736  0.1019  0.3270
91868W        W34962  20.253  18.134  24.093 -0.0290  0.1917  0.1879
91869W        W34963  18.853  21.888  25.401 -0.0688 -0.2572  0.2822
91870W        W34964  20.715  20.574  24.531 -0.1984 -0.0644 -0.1012
91871W        W34965  22.477  18.096  21.636  0.2123  0.1792 -0.3398
91872W        W34966  21.579  21.899  26.384 -0.1091 -0.1900  0.1365
91873W        W34967  19.801  19.275  24.675  0.1555 -0.0574 -0.1890
91874W        W34968  19.623  20.154  22.268 -0.0517 -0.0718  0.2473
91875W        W34969  20.652  19.556  25.308 -0.0820  0.1074 -0.2242
91876W        W34970  20.317  18.559  23.413 -0.0216 -0.0084 -0.0621
91877W        W34971  19.752  20.809  24.120 -0.3132 -0.0263 -0.0448
91878W        W34972  19.606  21.110  23.273  0.0080  0.1298 -0.1089
91879W        W34973  19.417  20.420  21.839 -0.1965  0.1598  0.1502
91880W        W34974  20.197  20.906  24.103 -0.0464 -0.0364 -0.1104
91881W        W34975  19.390  18.824  24.879 -0.0809 -0.3038 -0.0572
91882W        W34976  20.806  20.212  26.728  0.2883  0.2322 -0.3707
91883W        W34977  20.276  19.492  22.771  0.1523 -0.0050  0.0949
91884W        W34978  20.431  19.273  22.251 -0.1737  0.1556  0.0782
91885W        W34979  20.314  19.346  23.640  0.0279  0.0515 -0.4308
91886W        W34980  21.475  20.659  24.049 -0.0543 -0.1150 -0.0854
91887W        W34981  19.949  19.721  25.404 -0.3200  0.3121 -0.2198
91888W        W34982  20.693  22.344  27.261 -0.0968  0.0491 -0.0602
91889W        W34983  20.393  18.251  22.442  0.1512 -0.0022  0.1625
91890W        W34984  22.661  19.961  22.092  0.0692 -0.0401  0.1794
91891W        W34985  19.057  19.456  26.348 -0.0816 -0.0914 -0.1077
91892W        W34986  21.165  19.329  22.536 -0.1057  0.4102 -0.0199
91893W        W34987  19.516  21.137  24.602 -0.1213  0.3151  0.1043
91894W        W34988  20.682  21.563  22.309 -0.0166 -0.4529 -0.2216
91895W        W34989  20.080  18.144  23.540 -0.2248  0.0115  0.0971
91896W        W34990  20.296  19.954  24.725  0.2200 -0.2703 -0.2021
91897W        W34991  18.644  19.893  22.094 -0.0181 -0.0513 -0.0426
91898W        W34992  19.166  22.211  24.061 -0.3206  0.0355  0.0595
91899W        W34993  21.866  18.613  22.384 -0.0854  0.2568  0.1028
91900W        W34994  21.253  21.582  24.135 -0.1336  0.1158  0.3619
91901W        W34995  20.655  19.215  24.083 -0.1133 -0.0078  0.3635
91902W        W34996  23.186  19.015  26.861 -0.1855  0.0754  0.0252
91903W        W34997  21.694  19.272  21.709 -0.0395  0.2818 -0.0610
91904W        W34998  20.849  18.878  27.227 -0.0443  0.0918  0.1737
91905W        W34999  18.573  19.442  23.156  0.1005  0.0347 -0.1615
91906W        W35000  21.868  19.680  24.678 -0.1007  0.1518  0.0002
91907W        W35001  18.950  19.506  23.531 -0.1271  0.1609  0.3347
91908W        W35002  17.829  21.136  28.221 -0.1060  0.2407 -0.0891
91909W        W35003  19.213  19.908  26.534 -0.1831 -0.1988 -0.1109
91910W        W35004  20.730  18.662  22.506  0.2013  0.0811  0.0139
91911W        W35005  19.831  18.363  21.291  0.1305  0.2648 -0.1384
91912W        W35006  20.403  20.001  25.199  0.2444 -0.0702  0.0053
91913W        W35007  22.142  20.313  25.554 -0.0315  0.1753  0.0595
91914W        W35008  18.494  20.414  21.586 -0.0977  0.1238 -0.0858
91915W        W35009  20.875  20.044  22.949  0.0036  0.0624  0.0794
91916W        W35010  19.369  22.207  25.481 -0.0632  0.0803  0.0933
91917W        W35011  22.015  19.253  23.028  0.0946 -0.1646  0.1263
91918W        W35012  21.971  19.523  22.044 -0.3432 -0.2386 -0.2209
91919W        W35013  20.278  19.814  23.720  0.0843  0.1017 -0.2803
91920W        W35014  19.758  19.026  25.230  0.0000  0.1855 -0.0236
91921W        W35015  20.873  21.425  23.698 -0.1009  0.1254  0.1771
91922W        W35016  21.138  18.267  23.845  0.0157  0.1592 -0.2050
91923W        W35017  21.011  18.623  23.513  0.0666  0.1834  0.2237
91924W        W35018  20.253  18.658  25.466 -0.2413  0.0945  0.3409
91925W        W35019  20.052  21.302  27.462  0.1408 -0.3173  0.2351
91926W        W35020  18.488  19.269  23.705  0.2940  0.1433 -0.1497
91927W        W35021  20.138  22.585  24.993 -0.1035 -0.3905 -0.1542
91928W        W35022  21.533  18.717  21.806  0.1853 -0.3273  0.4903
91929W        W35023  21.955  18.933  25.827 -0.1406  0.2775  0.1331
91930W        W35024  21.458  18.959  22.691 -0.0741 -0.0298 -0.0874
91931W        W35025  21.797  18.800  23.182  0.1189  0.0943  0.3368
91932W        W35026  18.836  19.962  23.353 -0.1076 -0.2235  0.3124
91933W        W35027  20.558  19.886  26.338  0.1648 -0.1158  0.1901
91934W        W35028  19.968  19.300  20.853 -0.0701  0.0715  0.2797
91935W        W35029  20.581  18.886  23.687 -0.0416 -0.1622 -0.0042
91936W        W35030  20.918  21.157  22.708  0.0884  0.1461  0.0384
91937W        W35031  22.700  21.525  23.748 -0.1744  0.0960  0.0863
91938W        W35032  21.640  19.533  22.584 -0.0604 -0.1862 -0.0353
91939W        W35033  19.909  18.993  23.644  0.4320 -0.2205  0.2006
91940W        W35034  19.559  19.100  26.536 -0.2741 -0.0906 -0.2552
91941W        W35035  19.791  20.057  23.116 -0.0539 -0.6676 -0.4628
91942W        W35036  20.520  22.048  22.350  0.0242  0.1862  0.1054
91943W        W35037  21.053  20.280  25.959 -0.1022 -0.0151 -0.0678
91944W        W35038  20.791  20.519  26.323  0.2066  0.0909  0.3296
91945W        W35039  20.259  18.684  21.554  0.2754  0.3787  0.0117
91946W        W35040  21.038  18.972  24.343  0.2335 -0.1339 -0.0841
91947W        W35041  18.755  20.395  22.246 -0.0109 -0.0845 -0.2829
91948W        W35042  20.764  18.223  22.910  0.1052 -0.1881  0.1189
91949W        W35043  19.091  22.024  24.998  0.0025 -0.1507  0.0179
91950W        W35044  17.475  19.941  23.681 -0.3486 -0.1510  0.0169
91951W        W35045  19.541  21.674  25.534 -0.0899  0.0094 -0.0423
91952W        W35046  19.350  18.942  22.879  0.1773  0.0145  0.0595
91953W        W35047  21.510  19.310  24.435 -0.0421  0.0269  0.1223
91954W        W35048  21.007  19.235  24.833 -0.1874 -0.2218 -0.3807
91955W        W35049  20.353  19.768  25.679  0.1990 -0.2235  0.0417
91956W        W35050  19.385  20.413  26.815  0.5105  0.1014  0.0463
91957W        W35051  21.023  19.536  22.931 -0.0500  0.1736  0.3324
91958W        W35052  20.656  20.824  25.922 -0.1333  0.2323  0.0297
91959W        W35053  22.170  19.940  24.397  0.0140  0.0288  0.1059
91960W        W35054  19.320  20.113  24.290  0.1995  0.1490  0.1690
91961W        W35055  17.853  19.843  24.200  0.1734  0.4883  0.2122
91962W        W35056  19.661  21.432  26.825  0.1515  0.0118  0.0302
91963W        W35057  21.089  19.720  25.221 -0.2395 -0.5915 -0.0137
91964W        W35058  19.214  18.551  23.227 -0.0682 -0.1980 -0.1711
91965W        W35059  20.514  21.110  22.265  0.0997  0.0207 -0.1181
91966W        W35060  19.088  21.073  27.467 -0.0720  0.1565 -0.2278
91967W        W35061  18.268  19.549  24.493 -0.0867 -0.0651 -0.0138
91968W        W35062  19.515  21.210  24.096  0.1759 -0.0086  0.4499
91969W        W35063  22.159  20.036  21.964  0.0515 -0.2155 -0.0561
91970W        W35064  22.325  19.226  23.897  0.0157 -0.1070  0.0586
91971W        W35065  19.931  21.925  24.192 -0.2429 -0.2384  0.0282
91972W        W35066  19.686  19.855  21.875 -0.2617  0.0476  0.0425
91973W        W35067  20.127  19.358  21.662 -0.0019  0.0738  0.3166
91974W        W35068  18.741  21.871  22.861  0.1629 -0.0155  0.6672
91975W        W35069  21.471  20.652  23.382  0.1784  0.1518 -0.1625
91976W        W35070  19.150  21.576  25.177  0.1919  0.0557 -0.1930
91977W        W35071  22.216  21.708  28.114 -0.1208 -0.0486 -0.2528
91978W        W35072  22.124  17.838  22.572 -0.0519 -0.1452 -0.0057
91979W        W35073  21.698  19.110  23.968 -0.1261 -0.0600 -0.1524
91980W        W35074  22.018  17.943  21.576  0.0739  0.0640 -0.1517
91981W        W35075  20.805  21.500  28.128 -0.1392 -0.4162 -0.1891
91982W        W35076  20.214  18.993  24.991 -0.0381  0.0116  0.1589
91983W        W35077  19.410  18.771  21.180  0.0202  0.0672 -0.3059
91984W        W35078  19.044  18.927  24.496  0.0876  0.0462  0.0165
91985W        W35079  23.365  17.541  27.990 -0.1819 -0.4699  0.0719
91986W        W35080  19.700  20.866  26.829 -0.1979  0.0227 -0.1306
91987W        W35081  22.548  20.292  23.590 -0.2767  0.0020  0.0915
91988W        W35082  19.574  18.273  22.281  0.0465  0.1014 -0.1738
91989W        W35083  18.762  19.651  24.062 -0.0002 -0.0366  0.0902
91990W        W35084  22.933  18.621  25.565  0.1190 -0.1485  0.0826
91991W        W35085  22.187  20.330  22.388 -0.1033 -0.2550  0.4497
91992W        W35086  18.809  20.202  24.049  0.2929 -0.0473  0.2617
91993W        W35087  20.686  20.237  24.094  0.0076 -0.2500 -0.0450
91994W        W35088  19.333  20.536  25.352  0.0398  0.1144 -0.1338
91995W        W35089  20.706  21.151  24.285 -0.3546 -0.1519 -0.1105
91996W        W35090  18.779  18.987  22.153  0.1222  0.1386  0.0811
91997W        W35091  21.215  18.494  22.707  0.0024 -0.0127  0.1413
91998W        W35092  19.928  20.306  24.876  0.0983  0.1680 -0.1674
91999W        W35093  23.117  19.486  26.749  0.1652  0.0136  0.2206
92000W        W35094  19.540  18.569  21.686 -0.0865  0.1673 -0.1588
92001W        W35095  21.478  18.752  24.466 -0.5847 -0.0176 -0.0626
92002W        W35096  19.708  20.069  26.381 -0.1909 -0.3936 -0.2656
92003W        W35097  21.024  21.063  25.590 -0.3165 -0.3040  0.0772
92004W        W35098  21.451  19.342  23.035  0.2236  0.1283  0.1509
92005W        W35099  22.148  19.417  26.577 -0.1281 -0.2513  0.0852
92006W        W35100  22.405  19.226  22.728  0.2414 -0.1542  0.1262
92007W        W35101  20.904  21.666  27.065 -0.1983 -0.2307  0.0785
92008W        W35102  19.444  18.370  22.810  0.1263  0.2209 -0.0877
92009W        W35103  21.594  19.900  21.756  0.1148 -0.0653 -0.0806
92010W        W35104  20.152  20.176  22.176  0.1555  0.0433  0.0866
92011W        W35105  18.924  20.110  25.688 -0.0921 -0.1915  0.2862
92012W        W35106  21.742  21.110  26.861 -0.1643 -0.0780  0.2409
92013W        W35107  19.076  18.451  21.941 -0.3462 -0.4214  0.0492
92014W        W35108  21.836  20.709  23.058  0.0231 -0.0142  0.0248
92015W        W35109  21.779  19.102  24.814  0.4998 -0.1419 -0.2149
92016W        W35110  20.396  21.696  23.912 -0.0892  0.2717 -0.1982
92017W        W35111  22.453  19.626  21.861 -0.1853 -0.0171 -0.2412
92018W        W35112  20.237  20.464  24.399 -0.0836  0.0675  0.2936
92019W        W35113  19.509  18.803  22.098 -0.1834  0.2688 -0.3228
92020W        W35114  20.254  21.285  25.784 -0.1866  0.0535  0.0327
92021W        W35115  22.827  21.335  25.877 -0.4142 -0.2074 -0.2414
92022W        W35116  21.388  18.567  22.247 -0.0866  0.3048 -0.2853
92023W        W35117  19.465  19.206  23.273 -0.1033 -0.0493  0.1454
92024W        W35118  20.284  20.448  23.872  0.2004 -0.1034  0.1598
92025W        W35119  21.899  19.927  25.647 -0.1446  0.0909 -0.0075
92026W        W35120  20.598  19.131  24.628  0.0926 -0.1380 -0.1536
92027W        W35121  20.167  21.547  22.389 -0.0343  0.0254  0.0607
92028W        W35122  21.869  17.812  25.334 -0.1459  0.3168 -0.0255
92029W        W35123  20.719  21.360  25.980  0.1293 -0.1754 -0.1302
92030W        W35124  20.422  21.546  27.224 -0.1484  0.1194 -0.1679
92031W        W35125  18.831  19.677  21.406  0.0653 -0.1135  0.6889
92032W        W35126  21.056  20.538  28.447  0.0090 -0.0071 -0.0970
92033W        W35127  20.048  19.074  22.869  0.2638 -0.2012  0.0049
92034W        W35128  21.051  21.536  23.116 -0.1514 -0.0354  0.2334
92035W        W35129  21.007  20.977  26.221 -0.0019 -0.3074  0.0975
92036W        W35130  21.469  19.825  23.001 -0.0400  0.3759  0.0999
92037W        W35131  21.967  20.849  23.802 -0.3372  0.0390  0.2362
92038W        W35132  20.832  18.743  23.034  0.0058  0.2172 -0.1335
92039W        W35133  21.595  18.074  23.709  0.1576 -0.0065  0.3491
92040W        W35134  21.579  18.012  22.406  0.2418 -0.3031 -0.4099
92041W        W35135  19.886  19.592  26.478 -0.2757  0.1921 -0.1261
92042W        W35136  17.288  19.190  21.827 -0.0847  0.1881  0.1558
92043W        W35137  18.166  20.909  20.913 -0.0254  0.2133 -0.0170
92044W        W35138  20.260  19.493  25.028  0.0830 -0.0540  0.0723
92045W        W35139  19.147  18.115  24.166 -0.2821 -0.1981 -0.0855
92046W        W35140  20.041  19.740  27.151  0.0906  0.2248  0.0106
92047W        W35141  18.312  20.051  24.073 -0.0495  0.2260 -0.1504
92048W        W35142  19.141  19.214  21.953  0.4919 -0.1688 -0.3239
92049W        W35143  22.139  21.018  22.753  0.2131  0.0572  0.3182
92050W        W35144  19.568  18.190  23.318  0.0517 -0.1799  0.1299
92051W        W35145  20.686  18.350  23.727  0.2577  0.3063  0.1285
92052W        W35146  21.234  19.869  22.534 -0.3103 -0.1589  0.2199
92053W        W35147  21.969  19.761  22.897  0.2021 -0.0193  0.0815
92054W        W35148  19.855  19.221  22.433  0.0931  0.0112  0.1423
92055W        W35149  21.413  22.146  28.328  0.0337 -0.1019  0.0274
92056W        W35150  18.679  20.310  23.058  0.0774  0.1939  0.2754
92057W        W35151  19.535  20.954  27.666 -0.1147  0.4714 -0.1040
92058W        W35152  20.762  18.716  24.806  0.0953 -0.0197  0.0218
92059W        W35153  17.967  19.044  20.402 -0.0057  0.1678 -0.1684
92060W        W35154  19.693  19.727  24.371 -0.0156 -0.0980  0.2521
92061W        W35155  21.793  21.156  25.137  0.2399 -0.1299 -0.1112
92062W        W35156  22.698  20.334  23.078 -0.1774  0.2509  0.0524
92063W        W35157  20.940  19.999  24.492 -0.2455  0.1151  0.1470
92064W        W35158  21.002  21.163  27.199 -0.2363 -0.0011 -0.2019
92065W        W35159  18.414  19.815  23.607  0.1649  0.2930 -0.1733
92066W        W35160  21.336  19.539  22.124  0.0312 -0.1544  0.1098
92067W        W35161  20.087  20.749  27.381  0.1957  0.1164  0.0672
92068W        W35162  22.762  18.413  23.311 -0.1162  0.0309  0.0430
92069W        W35163  22.284  17.517  24.667  0.0460  0.3863 -0.1357
92070W        W35164  20.533  20.660  23.456  0.1494  0.1540 -0.0349
92071W        W35165  19.433  18.536  24.228  0.2577  0.1605  0.0242
92072W        W35166  17.559  20.326  27.986 -0.0840  0.0793  0.1851
92073W        W35167  20.863  19.725  25.900 -0.0545 -0.2731  0.1498
92074W        W35168  20.522  17.541  21.960  0.0969 -0.0884 -0.0083
92075W        W35169  21.458  19.084  23.498 -0.2317  0.1878  0.0138
92076W        W35170  21.693  19.522  23.479  0.0327 -0.1621  0.1353
92077W        W35171  18.407  20.706  23.909 -0.2036  0.0628  0.2215
92078W        W35172  20.044  18.975  21.964 -0.1621 -0.0284  0.0515
92079W        W35173  20.515  21.029  26.406  0.0776  0.2360 -0.2385
92080W        W35174  20.820  22.446  25.576  0.0708 -0.2225 -0.1618
92081W        W35175  20.734  19.707  26.795  0.0822  0.2829  0.2011
92082W        W35176  20.469  19.766  22.068 -0.1706 -0.0480 -0.1020
92083W        W35177  22.967  20.528  23.789  0.0576  0.0239 -0.0449
92084W        W35178  21.243  22.059  25.743 -0.0227  0.2893 -0.1324
92085W        W35179  21.994  21.597  28.513 -0.0634  0.1324 -0.0505
92086W        W35180  20.003  21.901  26.328 -0.3312  0.0943 -0.1554
92087W        W35181  21.696  20.362  25.265  0.3541 -0.1223  0.1876
92088W        W35182  19.190  17.964  22.220 -0.3845  0.1107 -0.3014
92089W        W35183  21.021  19.979  22.001 -0.1770  0.0312 -0.3404
92090W        W35184  20.277  19.046  23.278 -0.1372 -0.1821 -0.2322
92091W        W35185  20.328  20.661  26.795 -0.1275  0.0881  0.0547
92092W        W35186  19.535  20.050  25.234  0.2046 -0.0055  0.1810
92093W        W35187  21.291  19.581  21.426 -0.0706  0.2329 -0.3199
92094W        W35188  20.477  22.148  26.301  0.3973 -0.1844 -0.0744
92095W        W35189  21.053  19.522  24.240  0.0662  0.0174 -0.0046
92096W        W35190  19.836  20.821  29.041  0.1398  0.1896  0.1122
92097W        W35191  20.196  20.134  28.399  0.0660 -0.2356  0.4157
92098W        W35192  20.347  19.732  27.610 -0.0540  0.4974  0.2052
92099W        W35193  22.314  19.941  26.610 -0.1671  0.1933 -0.0172
92100W        W35194  19.458  18.914  28.119 -0.1924 -0.0995 -0.0273
92101W        W35195  22.589  21.442  28.388  0.3103  0.0023  0.1305
92102W        W35196  19.070  17.960  28.334 -0.1749 -0.0040 -0.0401
92103W        W35197  20.540  20.742  28.623  0.2389 -0.0204  0.1834
92104W        W35198  22.593  21.143  29.932 -0.1368 -0.0965  0.1218
92105W        W35199  20.948  20.530  27.901 -0.1288  0.0452 -0.0491
92106W        W35200  20.570  19.715  28.595 -0.1193  0.1569 -0.0170
92107W        W35201  20.434  19.264  29.616 -0.0372 -0.2628 -0.0192
92108W        W35202  19.500  20.050  27.848 -0.1342  0.0657  0.1319
92109W        W35203  19.246  18.796  26.264 -0.1432 -0.1261  0.1439
92110W        W35204  19.335  20.411  28.770  0.2634  0.1940 -0.3876
92111W        W35205  18.784  19.459  27.580 -0.1233 -0.1875  0.1299
92112W        W35206  19.497  18.803  28.856  0.2182  0.2732  0.1180
92113W        W35207  19.496  19.820  28.858  0.0589  0.0416 -0.3677
92114W        W35208  18.030  22.287  29.782 -0.0134  0.1498 -0.0791
92115W        W35209  19.807  18.417  28.700  0.2454  0.1218  0.1363
92116W        W35210  20.279  19.398  30.536 -0.0936 -0.0701  0.0684
92117W        W35211  19.932  22.038  29.736  0.2747 -0.2627 -0.4749
92118W        W35212  18.937  20.388  24.515  0.1241  0.1760 -0.0785
92119W        W35213  17.612  20.452  28.559 -0.2241 -0.3290  0.1901
92120W        W35214  19.792  20.215  28.925 -0.0812 -0.2788 -0.1819
92121W        W35215  20.331  19.370  27.199 -0.0462 -0.0420  0.0242
92122W        W35216  21.242  19.342  27.821 -0.2132 -0.0116  0.2326
92123W        W35217  20.842  21.727  29.655 -0.2123 -0.2464  0.2330
92124W        W35218  21.475  22.031  29.653  0.2244 -0.0994  0.0498
92125W        W35219  21.099  18.816  31.038 -0.0438 -0.3089  0.0960
92126W        W35220  18.700  20.473  27.434 -0.1166  0.2208  0.2579
92127W        W35221  17.998  20.766  30.646  0.0368 -0.4354  0.0285
92128W        W35222  20.380  21.194  29.407 -0.2589 -0.2006 -0.2550
92129W        W35223  22.576  19.803  28.356 -0.0221  0.0323  0.1579
92130W        W35224  21.834  21.114  30.539 -0.0575  0.0543  0.1002
92131W        W35225  18.420  19.744  30.981 -0.1845  0.1700 -0.0181
92132W        W35226  18.692  20.867  27.732  0.1709 -0.1910 -0.1974
92133W        W35227  20.538  19.878   0.277 -0.2490  0.2662 -0.1581
92134W        W35228  19.648  20.193  28.365 -0.0365  0.1031 -0.1067
92135W        W35229  19.568  19.479  29.264 -0.2355  0.1648  0.1781
92136W        W35230  21.756  20.267  28.911 -0.3411 -0.3194 -0.1902
92137W        W35231  18.981  22.390  28.358  0.0862 -0.3740  0.3349
92138W        W35232  19.909  19.867  28.066  0.0404  0.0825 -0.1763
92139W        W35233  19.576  21.034  29.552  0.5651 -0.0826  0.1826
92140W        W35234  17.395  21.276  28.434  0.0605  0.0868 -0.1438
92141W        W35235  21.357  17.256  29.678 -0.0455 -0.0663 -0.0720
92142W        W35236  19.595  21.117  27.257  0.0132 -0.0731  0.2394
92143W        W35237  21.012  18.985  26.737  0.1764 -0.0585 -0.0959
92144W        W35238  19.477  20.147  25.766  0.0229  0.0440 -0.2599
92145W        W35239  20.584  19.001  26.436 -0.0646 -0.0930  0.0759
92146W        W35240  20.165  18.981  27.550 -0.1098  0.2379 -0.1908
92147W        W35241  18.991  21.519  28.321 -0.1837 -0.0297  0.0844
92148W        W35242  20.363  19.058  28.139  0.0535  0.2917  0.3138
92149W        W35243  21.035  20.569  29.630  0.1242  0.5014 -0.0054
92150W        W35244  19.778  19.318  27.348 -0.1848  0.1407  0.3207
92151W        W35245  21.051  20.032  29.630 -0.1400  0.0748  0.1211
92152W        W35246  18.834  21.104  30.287 -0.0854  0.2408  0.2814
92153W        W35247  19.599  18.821  27.551 -0.1130 -0.4398 -0.0615
92154W        W35248  21.370  21.274  28.100 -0.2152 -0.2810  0.2458
92155W        W35249  21.602  22.650  29.743  0.4113  0.0946 -0.1901
92156W        W35250  20.860  20.781  27.454 -0.0021  0.1208  0.0843
92157W        W35251  17.894  21.400  27.736 -0.2331  0.0142  0.1354
92158W        W35252  19.647  19.596  29.861  0.2329 -0.0719  0.3258
92159W        W35253  19.602  19.253  31.184 -0.0602  0.1442 -0.1855
92160W        W35254  19.239  19.746  23.882 -0.2285 -0.3324 -0.0062
92161W        W35255  22.145  21.894  31.572 -0.1254  0.0541 -0.3019
92162W        W35256  17.747  21.426  29.908 -0.0914 -0.1464 -0.3120
92163W        W35257  21.177  19.003  29.438 -0.0870  0.3287  0.1635
92164W        W35258  19.054  20.756  29.030 -0.0192  0.1618 -0.0683
92165W        W35259  21.089  21.104  28.532 -0.1257 -0.2718 -0.1026
92166W        W35260  22.314  21.229  27.434 -0.1210 -0.0484 -0.1734
92167W        W35261  20.748  19.226  28.514  0.1230  0.1464 -0.1614
92168W        W35262  20.089  19.744  29.666  0.0978 -0.1472 -0.2900
92169W        W35263  19.624  20.620  27.235 -0.4209 -0.2836 -0.0491
92170W        W35264  20.453  21.955  28.506  0.2115  0.2457 -0.2270
92171W        W35265  21.757  20.065  31.558  0.2883  0.1987  0.2448
92172W        W35266  19.285  19.503  26.841 -0.0241  0.1722 -0.0011
92173W        W35267  18.850  20.605  30.050  0.1385 -0.0635 -0.0273
92174W        W35268  19.903  19.239  29.559  0.0013  0.0897  0.0039
92175W        W35269  20.052  19.058  31.001 -0.1189 -0.1086  0.0024
92176W        W35270  19.114  21.314  26.676  0.1386  0.1711  0.2225
92177W        W35271  17.810  19.596  28.766 -0.2239 -0.0612  0.1152
92178W        W35272  18.765  19.725  26.732  0.2844  0.0315 -0.2668
92179W        W35273  18.441  18.503  27.848 -0.1868 -0.0006 -0.1324
92180W        W35274  18.045  20.994  29.534 -0.0985  0.1419  0.0856
92181W        W35275  21.323  19.103  25.870 -0.0836 -0.0283  0.0925
92182W        W35276  17.910  18.473  30.362 -0.2263  0.1947 -0.0406
92183W        W35277  20.211  17.921  27.272 -0.0242 -0.2727  0.0318
92184W        W35278  18.868  20.133  29.034 -0.0986  0.2247  0.1713
92185W        W35279  20.882  22.254  28.386 -0.1137 -0.0652  0.0902
92186W        W35280  22.190  20.148  28.590  0.1347  0.1353 -0.2146
92187W        W35281  20.494  20.433  27.185 -0.4072  0.0594  0.1978
92188W        W35282  17.817  19.857  30.268  0.2342 -0.0990 -0.0430
92189W        W35283  19.722  18.164  27.023 -0.1402  0.1425 -0.0404
92190W        W35284  18.296  19.081  30.278 -0.4478 -0.0361 -0.1827
92191W        W35285  18.916  17.911  26.559  0.1819 -0.2505 -0.1635
92192W        W35286  21.356  19.495  30.513  0.1432 -0.2080  0.0330
92193W        W35287  19.683  18.267  25.835  0.1415 -0.0860 -0.0207
92194W        W35288  20.616  19.007  27.651 -0.0396 -0.0621  0.1389
92195W        W35289  19.180  20.137  28.217 -0.2325 -0.3335  0.0865
92196W        W35290  17.696  21.396  26.815  0.2040 -0.1963 -0.2412
92197W        W35291  20.969  18.434  30.198  0.0096 -0.3824 -0.0115
92198W        W35292  20.840  21.973  28.816  0.0209 -0.3523  0.1416
92199W        W35293  20.364  21.052  31.067 -0.0059 -0.0002  0.1364
92200W        W35294  21.291  21.817  30.100  0.2008 -0.0169  0.3407
92201W        W35295  19.382  19.054  29.495 -0.2076  0.0338  0.0821
92202W        W35296  18.165  19.532  23.978  0.0705 -0.1894 -0.0134
92203W        W35297  17.402  21.243  28.956 -0.1541  0.0080 -0.1983
92204W        W35298  20.153  20.996  28.404  0.2142 -0.0411  0.1012
92205W        W35299  19.486  19.689  26.133 -0.1423 -0.2045  0.1864
92206W        W35300  21.275  20.911  29.364  0.1318  0.1755  0.2081
92207W        W35301  19.226  21.976  28.395  0.0788 -0.3596 -0.1704
92208W        W35302  18.779  19.675  29.963 -0.0592 -0.0913  0.3290
92209W        W35303  20.194  17.739  30.947  0.3556 -0.2680  0.0627
92210W        W35304  22.334  19.970  29.564 -0.0928 -0.1340  0.1298
92211W        W35305  19.778  18.173  29.892  0.1252 -0.0717 -0.0213
92212W        W35306  18.816  18.820  25.158 -0.1238 -0.0488 -0.2756
92213W        W35307  19.888  21.368  28.780 -0.2085  0.1148 -0.1862
92214W        W35308  20.189  21.689  26.759  0.3787  0.2941 -0.1697
92215W        W35309  19.435  19.110  27.070  0.4122 -0.0705 -0.0431
92216W        W35310  19.981  21.773  27.220  0.0017  0.3159  0.1342
92217W        W35311  21.721  18.922  27.559 -0.0742 -0.1525  0.4940
92218W        W35312  17.457  19.439  30.484  0.0215 -0.2448 -0.1174
92219W        W35313  20.700  18.933  29.361 -0.2769 -0.4181  0.1111
92220W        W35314  19.622  18.469  27.882 -0.3336  0.0173 -0.1171
92221W        W35315  18.710  20.151  30.169  0.0790  0.2354 -0.1351
92222W        W35316  19.758  18.616  26.171 -0.1992  0.0149 -0.4223
92223W        W35317  22.086  18.506  25.640 -0.4494  0.1107  0.2133
92224W        W35318  19.037  19.892  30.530  0.1479 -0.0807 -0.1782
92225W        W35319  22.279  20.941  28.305  0.0902 -0.0374 -0.0495
92226W        W35320  20.211  19.987  26.761 -0.1723 -0.3229  0.0827
92227W        W35321  20.349  18.238  25.087  0.2015  0.1187 -0.1203
92228W        W35322  17.111  19.616  30.123  0.0375 -0.0483 -0.4237
92229W        W35323  19.384  20.510  29.730 -0.0381  0.3556  0.1087
92230W        W35324  19.732  20.580  30.773 -0.1049  0.0169  0.1037
92231W        W35325  18.996  18.696  27.203  0.1019  0.5893 -0.2064
92232W        W35326  21.671  21.119  27.747  0.2792  0.0559  0.1033
92233W        W35327  18.888  20.510  27.945  0.0807 -0.2366  0.1018
92234W        W35328  19.396  19.871  30.182  0.1567 -0.0221 -0.0351
92235W        W35329  21.583  20.951  28.462 -0.0186 -0.0954  0.2144
92236W        W35330  19.787  17.460  27.680  0.1737 -0.1653  0.0749
92237W        W35331  19.297  19.590  27.411  0.0331  0.2123 -0.2324
92238W        W35332  19.705  17.781  28.021  0.0337 -0.0441  0.2561
92239W        W35333  18.521  22.403  28.036  0.0178 -0.1012 -0.0509
92240W        W35334  20.660  20.211  29.931 -0.0219 -0.2276  0.1484
92241W        W35335  20.504  18.155  27.683  0.0202  0.2090  0.0293
92242W        W35336  18.600  18.521  28.961  0.0808  0.1186 -0.0403
92243W        W35337  22.499  19.160  30.043  0.1103  0.1010  0.1804
92244W        W35338  21.101  19.555  28.286 -0.1030 -0.0129 -0.0320
92245W        W35339  19.685  20.012  29.377 -0.2680 -0.1928  0.1198
92246W        W35340  19.331  19.695  25.622  0.0287  0.1375 -0.0089
92247W        W35341  20.282  20.186  29.099  0.0725 -0.1204  0.3970
92248W        W35342  17.814  19.201  31.013  0.3878 -0.2008  0.0481
92249W        W35343  18.756  21.119  29.281 -0.0357  0.1345 -0.1704
92250W        W35344  21.282  20.342  29.258 -0.1488 -0.4755  0.2066
92251W        W35345  21.547  20.437  28.501 -0.0108 -0.0360  0.1284
92252W        W35346  19.460  19.697  31.213 -0.0976 -0.1324 -0.1260
92253W        W35347  19.432  19.532  25.177 -0.0198  0.2926  0.2246
92254W        W35348  19.190  22.049  28.944 -0.1116  0.2315  0.3263
92255W        W35349  19.779  21.431  27.879  0.0533 -0.0860  0.0703
92256W        W35350  18.571  19.025  28.168 -0.0240  0.0078  0.1037
92257W        W35351  19.010  21.768  29.815  0.0035 -0.0487 -0.2460
92258W        W35352  19.423  20.427  24.789  0.1499 -0.2657 -0.1213
92259W        W35353  20.118  20.379  30.469  0.0055 -0.1053 -0.0525
92260W        W35354  18.326  20.504  27.915 -0.0438 -0.0187  0.0884
92261W        W35355  21.478  18.581  30.099  0.1049  0.0413 -0.1056
92262W        W35356  16.951  21.300  28.681  0.2885  0.0280 -0.1131
92263W        W35357  19.522  20.156  27.261  0.3141 -0.0104 -0.4409
92264W        W35358  18.773  19.367  25.157  0.0787 -0.2525  0.0560
92265W        W35359  21.550  19.374  29.306  0.0714  0.2091 -0.0956
92266W        W35360  21.984  20.798  27.363  0.2949 -0.0534 -0.0087
92267W        W35361  19.092  19.319  28.053  0.1385  0.0646  0.1509
92268W        W35362  19.491  18.602  27.088 -0.1653 -0.0118  0.0958
92269W        W35363  17.963  21.454  29.269  0.1586 -0.4987  0.2586
92270W        W35364  22.029  19.973  30.157  0.4466 -0.1607 -0.0112
92271W        W35365  20.264  18.793  26.054  0.0661 -0.1011 -0.0540
92272W        W35366  20.728  20.828  29.425 -0.0345  0.0626  0.2517
92273W        W35367  19.807  20.535  29.427  0.2977  0.0601  0.1483
92274W        W35368  18.992  18.720  24.074 -0.1794 -0.1513  0.0801
92275W        W35369  20.841  18.475  29.341 -0.2880  0.1179  0.0230
92276W        W35370  19.713  19.341  28.787 -0.2089 -0.1878  0.1960
92277W        W35371  17.773  21.003  28.734  0.0653 -0.0889 -0.0716
92278W        W35372  20.360  21.262  29.923 -0.1515  0.2056  0.2530
92279W        W35373  19.288  18.652  25.763 -0.4592 -0.1708  0.3240
92280W        W35374  18.240  21.096  29.002 -0.3501 -0.0831 -0.2791
92281W        W35375  18.215  19.463  28.531 -0.3037 -0.1849  0.1849
92282W        W35376  20.886  19.679  30.310  0.2488 -0.0443  0.1230
92283W        W35377  20.234  19.560  28.252 -0.2483  0.0643 -0.0182
92284W        W35378  19.263  18.994  25.355  0.3144  0.0319  0.2481
92285W        W35379  19.777  20.473  27.687  0.2648 -0.0093 -0.0089
92286W        W35380  21.025  20.425  30.267 -0.2835 -0.2138  0.1563
92287W        W35381  20.601  20.220  28.691  0.0221 -0.2103  0.0116
92288W        W35382  19.785  21.161  30.172 -0.1111 -0.0966 -0.3388
92289W        W35383  19.780  18.030  27.595  0.0370  0.1608 -0.0789
92290W        W35384  21.856  21.313  28.167  0.0127  0.1497  0.3558
92291W        W35385  20.553  19.846  29.479  0.0852 -0.2073 -0.0768
92292W        W35386  18.255  20.765  27.463  0.0491  0.4337 -0.0842
92293W        W35387  17.947  19.551  27.725 -0.0425 -0.1011  0.0389
92294W        W35388  18.984  19.666  28.898 -0.1424  0.2328  0.0932
92295W        W35389  19.759  18.770  29.238 -0.1454 -0.1711 -0.2335
92296W        W35390  18.911  21.301  28.800  0.3085  0.1571  0.1176
92297W        W35391  18.547  20.655  29.109  0.1813 -0.0171 -0.1808
92298W        W35392  16.567  21.385  26.864  0.0897  0.1478 -0.0081
92299W        W35393  20.525  18.152  25.546 -0.3261 -0.1863 -0.1277
92300W        W35394  18.511  19.603  27.122 -0.1676 -0.3345 -0.3762
92301W        W35395  20.613  19.215  30.099 -0.0864 -0.2187 -0.1460
92302W        W35396  21.140  19.842  30.764  0.0047 -0.1216  0.0016
92303W        W35397  21.780  21.446  27.297 -0.0142 -0.0384 -0.1800
92304W        W35398  20.860  18.080  30.687  0.1436  0.2520 -0.2434
92305W        W35399  18.821  18.216  28.020  0.3164  0.1602  0.0177
92306W        W35400  22.378  21.100  28.730 -0.1053 -0.2650  0.0136
92307W        W35401  19.900  18.887  28.543  0.0205  0.0722 -0.1431
92308W        W35402  19.613  21.393   0.059 -0.1969 -0.0211 -0.1374
92309W        W35403  18.629  19.315  31.149  0.0591 -0.1876 -0.0270
92310W        W35404  18.889  19.708  28.344 -0.0706 -0.1430 -0.1079
92311W        W35405  19.036  18.377  25.013  0.1193  0.4105  0.0698
92312W        W35406  19.779  20.748  29.886 -0.1295  0.2414  0.4156
92313W        W35407  20.528  20.420  28.174 -0.0708 -0.1180  0.0623
92314W        W35408  19.769  21.957  28.206  0.0264  0.2563  0.0055
92315W        W35409  20.975  19.871  27.823  0.0313  0.0707 -0.1206
92316W        W35410  19.640  19.148  30.124 -0.2035 -0.0841 -0.0517
92317W        W35411  21.734  20.736  29.251 -0.0750 -0.0027 -0.0863
92318W        W35412  20.157  20.703  26.274 -0.1578  0.0014  0.2070
92319W        W35413  19.563  19.368  27.813 -0.0927  0.3754 -0.2025
92320W        W35414  19.756  18.759  29.763  0.0156 -0.1928 -0.2242
92321W        W35415  20.935  20.549  28.993 -0.0792 -0.1257  0.0517
92322W        W35416  20.913  18.967  28.048  0.1339  0.0529  0.1597
92323W        W35417  19.464  17.992  29.489 -0.2125  0.1391  0.0575
92324W        W35418  19.904  19.539  30.933  0.3539  0.0277  0.1441
92325W        W35419  19.435  19.656  28.270 -0.5625  0.2096 -0.0855
92326W        W35420  18.739  18.486  28.405 -0.0300  0.2576  0.1532
92327W        W35421  20.028  21.020  30.670  0.0888  0.0757  0.0020
92328W        W35422  21.840  19.671  26.281  0.1675  0.3263  0.1094
92329W        W35423  22.486  19.653  30.066  0.0736  0.0592 -0.4105
92330W        W35424  21.528  19.464  27.385  0.0138 -0.1664 -0.0312
92331W        W35425  20.840  19.483  27.518  0.2996  0.0882  0.1278
92332W        W35426  19.064  18.610  27.941  0.1066 -0.1024 -0.3119
92333W        W35427  20.756  19.814  31.246 -0.1212 -0.0525  0.0842
92334W        W35428  19.295  19.153  25.868  0.1654  0.2069 -0.0986
92335W        W35429  21.626  19.151  29.865  0.2375  0.0159  0.0240
92336W        W35430  20.889  21.056  28.971  0.3645  0.0450  0.3390
92337W        W35431  19.944  20.543  28.175 -0.2971 -0.0034  0.1497
92338W        W35432  20.506  19.916  28.021 -0.3370  0.0984  0.0673
92339W        W35433  18.133  19.820  27.321  0.0917  0.0072 -0.2733
92340W        W35434  20.147  23.516  31.091 -0.0018  0.1496 -0.1899
92341W        W35435  19.550  18.572  23.628  0.5811 -0.0596  0.0683
92342W        W35436  18.938  19.313  27.113  0.2203  0.2249  0.2044
92343W        W35437  19.955  21.507  29.236 -0.0895  0.4895  0.0482
92344W        W35438  21.670  19.629   0.023 -0.0807 -0.3995 -0.0331
92345W        W35439  19.450  17.678  24.652 -0.3878  0.2491  0.4541
92346W        W35440  21.702  17.638  30.395 -0.2655 -0.2848 -0.0635
92347W        W35441  18.315  20.461  28.656  0.2224 -0.0175  0.2166
92348W        W35442  20.675  18.394  26.968 -0.1437 -0.2296 -0.0482
92349W        W35443  18.399  20.519  29.730  0.0672  0.0831  0.0051
92350W        W35444  19.168  19.805  29.351 -0.0007 -0.1976  0.2303
92351W        W35445  18.667  20.078  27.989 -0.2342  0.1299 -0.0891
92352W        W35446  20.423  17.948  29.502 -0.4614 -0.0260 -0.2065
92353W        W35447  20.980  19.405  29.844 -0.1895 -0.1091 -0.0482
92354W        W35448  20.999  20.060  28.296 -0.1165  0.0268  0.0047
92355W        W35449  20.684  20.842  29.932 -0.1557  0.0554 -0.0252
92356W        W35450  22.315  18.997  30.520 -0.0870  0.0191 -0.3961
92357W        W35451  19.198  19.123  27.535 -0.0298  0.1000 -0.1512
92358W        W35452  21.335  21.464  29.734 -0.1092  0.2055 -0.2336
92359W        W35453  20.702  19.416  28.021  0.0913  0.2258 -0.1938
92360W        W35454  17.969  20.612  28.271 -0.0654 -0.0176  0.1795
92361W        W35455  18.186  19.420  30.716 -0.0732 -0.1621 -0.0371
92362W        W35456  19.997  19.698  29.066  0.1904 -0.2839  0.1425
92363W        W35457  20.466  20.689  27.754 -0.4916  0.0461  0.2247
92364W        W35458  19.201  18.220  26.950  0.2115  0.0921 -0.0549
92365W        W35459  19.693  20.999  28.193  0.1877 -0.5672  0.3564
92366W        W35460  18.422  20.187  31.699 -0.1968 -0.1225 -0.1952
92367W        W35461  18.709  20.230  30.666 -0.1991  0.0098 -0.0335
92368W        W35462  19.421  22.392  28.174  0.2877  0.0507  0.1699
92369W        W35463  21.727  20.400  27.429  0.3139 -0.0257  0.0746
92370W        W35464  20.091  20.516  28.684  0.1993 -0.2627 -0.3479
92371W        W35465  19.455  20.900  30.565  0.2280  0.0268 -0.4124
92372W        W35466  21.334  20.014  27.492  0.1969  0.5139  0.3101
92373W        W35467  18.194  20.995  28.500 -0.0624 -0.0103 -0.3530
92374W        W35468  18.135  22.211  27.352 -0.2456  0.1676 -0.2126
92375W        W35469  21.400  20.250  28.006  0.0359 -0.1355  0.0723
92376W        W35470  19.443  22.824  27.824 -0.0307  0.2715 -0.0037
92377W        W35471  23.769  22.219  31.037  0.0229 -0.1993 -0.0004
92378W        W35472  22.385  18.724  26.581 -0.3357  0.1798 -0.5236
92379W        W35473  22.843  21.284  28.883 -0.0297  0.1471 -0.0661
92380W        W35474  21.164  19.460  26.919  0.2505 -0.1537  0.1625
92381W        W35475  22.047  21.384  31.429  0.1743 -0.1187  0.3055
92382W        W35476  19.907  19.782  28.582  0.0410 -0.3570  0.0220
92383W        W35477  21.236  18.789  26.235  0.3277 -0.2867 -0.0619
92384W        W35478  18.541  19.238  29.682 -0.1809 -0.1048  0.0357
92385W        W35479  21.473  16.849  28.924  0.1992  0.0193  0.1247
92386W        W35480  18.506  20.979  29.865 -0.2932 -0.1434 -0.0876
92387W        W35481  20.030  22.341  28.017 -0.0111  0.2001 -0.2703
92388W        W35482  18.760  18.300  23.947  0.1304  0.1027 -0.0512
92389W        W35483  19.224  18.828  29.969 -0.2568 -0.1170  0.1373
92390W        W35484  21.129  18.950  30.071 -0.0363  0.1054  0.1082
92391W        W35485  19.085  20.003  27.014 -0.0995  0.1934 -0.0400
92392W        W35486  20.155  20.243  27.804 -0.1594 -0.1634  0.2055
92393W        W35487  20.375  21.724  29.574 -0.1282  0.0117  0.0338
92394W        W35488  18.638  20.904  28.722  0.0657  0.1611  0.0561
92395W        W35489  18.780  21.867  30.362  0.3719 -0.1184  0.4774
92396W        W35490  18.518  19.135  25.934  0.1714  0.3116  0.3201
92397W        W35491  21.409  19.853  29.310 -0.1737 -0.0464 -0.3771
92398W        W35492  19.280  18.570  28.435 -0.3745  0.0623  0.2596
92399W        W35493  20.672  19.662  30.739 -0.0917  0.0385 -0.3129
92400W        W35494  19.817  19.795  27.555  0.1106  0.0818  0.0627
92401W        W35495  21.213  18.844  27.688 -0.1091  0.0441 -0.0704
92402W        W35496  20.192  20.229  29.737 -0.0898 -0.0734 -0.0976
92403W        W35497  18.152  20.285  27.469 -0.1482 -0.0339 -0.0049
92404W        W35498  19.273  17.993  27.869  0.1417 -0.0332  0.2797
92405W        W35499  22.227  19.819  30.583 -0.2271 -0.1749  0.0629
92406W        W35500  20.044  19.113  26.352  0.1458 -0.0016 -0.1237
92407W        W35501  20.886  21.959  30.907  0.2403  0.3801 -0.1002
92408W        W35502  17.584  20.363  27.437 -0.0777 -0.1132  0.4654
92409W        W35503  19.811  18.777  25.698  0.2364 -0.1864  0.0169
92410W        W35504  19.036  19.781  27.848 -0.5472  0.0768  0.0250
92411W        W35505  19.701  20.135  29.907  0.1017 -0.0355 -0.4329
92412W        W35506  20.334  20.253  31.093 -0.4026  0.0429 -0.0953
92413W        W35507  19.451  18.505  26.609  0.1243  0.6464 -0.0332
92414W        W35508  21.444  19.776  27.908  0.0004  0.1997 -0.1276
92415W        W35509  20.622  18.290  28.149  0.3736 -0.1935 -0.1091
92416W        W35510  18.600  20.863  28.241 -0.4893  0.1875 -0.1828
92417W        W35511  20.234  21.525  28.463  0.1412 -0.2308  0.5071
92418W        W35512  20.321  20.730  29.122  0.2029  0.0722  0.1318
92419W        W35513  19.682  20.014  30.656 -0.2652  0.0845  0.1809
92420W        W35514  20.250  21.959  31.060 -0.0346 -0.2545 -0.1343
92421W        W35515  20.344  21.199  28.864 -0.1167  0.0103  0.0815
92422W        W35516  19.167  18.304  23.655 -0.0877  0.0453  0.0777
92423W        W35517  19.395  20.618  28.097 -0.2868  0.3799 -0.0066
92424W        W35518  20.218  22.286  27.186 -0.0229  0.0469  0.3127
92425W        W35519  21.544  18.879  28.051 -0.3205 -0.0525  0.1340
92426W        W35520  21.380  19.145  28.900  0.1762  0.1615  0.1210
92427W        W35521  20.396  22.047  28.001  0.0567 -0.1577 -0.0519
92428W        W35522  20.107  19.431  30.064 -0.1469  0.0575  0.2630
92429W        W35523  19.035  20.795  29.530  0.1833  0.0048 -0.0967
92430W        W35524  17.858  21.728  31.126  0.0837 -0.1068 -0.1806
92431W        W35525  19.934  18.733  26.677 -0.1513 -0.3599 -0.0407
92432W        W35526  21.962  19.456  30.726  0.3484 -0.0615  0.2766
92433W        W35527  19.212  21.041  28.094 -0.0691 -0.1965  0.1923
92434W        W35528  19.466  21.149  28.699  0.4187 -0.1156  0.0768
92435W        W35529  22.112  20.368  29.280 -0.0848  0.5017  0.3531
92436W        W35530  20.557  19.918  27.178 -0.1908  0.0809  0.3766
92437W        W35531  21.374  20.734  28.884 -0.2618 -0.2489 -0.2883
92438W        W35532  20.260  19.244  28.657  0.0255 -0.2332  0.1781
92439W        W35533  21.703  19.334  26.925  0.0903  0.0326  0.1920
92440W        W35534  21.138  18.506  26.761 -0.0305 -0.0573  0.0132
92441W        W35535  19.319  20.328  29.254  0.0464 -0.0787 -0.3795
92442W        W35536  19.286  20.323  26.269 -0.0787 -0.2112  0.0465
92443W        W35537  18.861  20.414  28.562  0.1487  0.0495  0.0443
92444W        W35538  18.603  19.979  27.499 -0.0537  0.0795 -0.0452
92445W        W35539  20.255  18.801  29.434  0.0417  0.3158 -0.1054
92446W        W35540  18.486  18.524  30.974 -0.1699 -0.2399 -0.0642
92447W        W35541  17.446  19.824  27.987  0.0623 -0.0000 -0.0375
92448W        W35542  18.716  19.371  24.596 -0.3059 -0.0876  0.3224
92449W        W35543  23.070  20.230  28.991  0.2749 -0.0160  0.1088
92450W        W35544  18.173  18.140  26.835 -0.1179  0.1242 -0.0917
92451W        W35545  21.126  21.775  28.458 -0.0861  0.0674 -0.1938
92452W        W35546  21.391  20.522  27.053  0.2556  0.0608  0.0621
92453W        W35547  18.906  18.417  26.525  0.2911 -0.1216  0.2304
92454W        W35548  19.946  19.996  31.211 -0.4611 -0.0111  0.0433
92455W        W35549  18.583  20.161  27.012  0.4256 -0.0549  0.1166
92456W        W35550  19.284  21.024  30.028 -0.0591 -0.1606  0.1305
92457W        W35551  19.328  18.806  31.019  0.0695 -0.0972 -0.0202
92458W        W35552  19.494  18.194  24.635  0.1292 -0.1007  0.0346
92459W        W35553  20.286  20.720  29.698 -0.2793  0.0507  0.0515
92460W        W35554  20.573  21.256  30.623 -0.6594 -0.1552  0.1667
92461W        W35555  22.137  22.340  27.882 -0.2283  0.1188  0.1836
92462W        W35556  20.763  20.159  30.886  0.3468 -0.0885 -0.1760
92463W        W35557  18.998  20.608  30.566  0.0567  0.1411 -0.0294
92464W        W35558  18.982  18.847  28.711  0.0623  0.1439 -0.1083
92465W        W35559  22.436  20.562  28.622 -0.1209  0.0297  0.0808
92466W        W35560  19.073  20.083  29.789  0.2712  0.3357 -0.3354
92467W        W35561  21.503  20.971  27.305 -0.2368 -0.2262  0.0437
92468W        W35562  20.182  19.234  29.152  0.1814  0.0752 -0.0545
92469W        W35563  20.605  20.202  27.602 -0.0102  0.1238 -0.2907
92470W        W35564  18.189  18.739  28.231  0.1968 -0.2455  0.2736
92471W        W35565  18.391  20.590  30.810  0.0490  0.3364  0.0421
92472W        W35566  20.715  21.429  28.641  0.1432  0.1184  0.0501
92473W        W35567  18.324  19.242  27.665 -0.0880 -0.3320  0.3273
92474W        W35568  21.834  18.513  26.164  0.2280 -0.0138 -0.2174
92475W        W35569  20.355  20.290  26.440 -0.0247  0.0919  0.1092
92476W        W35570  18.358  20.053  29.876  0.0069 -0.0391 -0.0041
92477W        W35571  21.820  19.949  27.685 -0.0158  0.1471  0.1225
92478W        W35572  20.617  20.375  29.427  0.2517  0.1392  0.1210
92479W        W35573  20.059  20.982  27.848  0.0680 -0.1097  0.0267
92480W        W35574  22.140  20.435  30.648 -0.3022 -0.2279 -0.2946
92481W        W35575  19.778  19.306  28.236 -0.2217  0.0749 -0.0325
92482W        W35576  22.012  19.745  27.091 -0.0736  0.4591  0.2897
92483W        W35577  20.160  20.843  30.224  0.0671  0.2433 -0.0422
92484W        W35578  21.375  20.959  31.802 -0.0035  0.1858 -0.2558
92485W        W35579  19.294  21.616  28.777 -0.0892 -0.0701 -0.1901
92486W        W35580  23.028  20.565  29.379 -0.0123  0.1953 -0.0557
92487W        W35581  18.707  18.934  27.698  0.4632 -0.3116  0.2310
92488W        W35582  20.640  21.383  26.807  0.1195 -0.1268  0.2658
92489W        W35583  19.081  20.854  28.530  0.0535 -0.4410 -0.3106
92490W        W35584  21.244  18.681  30.554  0.1002 -0.2509 -0.0137
92491W        W35585  20.074  19.361  27.843  0.0073 -0.1415  0.0923
92492W        W35586  19.947  19.223  26.872 -0.4217 -0.1289  0.0720
92493W        W35587  19.522  21.775  29.252  0.0217  0.2471  0.1755
92494W        W35588  21.241  21.776  29.360 -0.1955 -0.0896  0.0425
92495W        W35589  22.032  18.587  29.390 -0.0849 -0.0501 -0.1986
92496W        W35590  21.303  19.211  31.438  0.1739 -0.1176  0.0440
92497W        W35591  16.857  19.236  31.080 -0.2036  0.1143  0.1516
92498W        W35592  17.148  20.699  29.719 -0.1762  0.2228 -0.2506
92499W        W35593  18.921  20.560  31.090 -0.2173  0.1357  0.0156
92500W        W35594  18.188  21.389  31.434 -0.1386 -0.0316  0.0784
92501W        W35595  20.041  19.128  31.475  0.4670 -0.4557 -0.0150
92502W        W35596  19.083  19.382   0.158  0.1188  0.0510  0.0691
92503W        W35597  19.637  19.101  30.700  0.2600  0.3621 -0.1403
92504W        W35598  21.241  20.965  29.848 -0.1230  0.0964 -0.2292
92505W        W35599  20.072  20.673  31.121 -0.5112 -0.0442 -0.1344
92506W        W35600  19.765  19.559  30.394 -0.2192 -0.0243 -0.0153
92507W        W35601  21.310  19.220  31.920 -0.0456 -0.6192  0.0499
92508W        W35602  18.174  19.437  31.300 -0.0133  0.2809 -0.0802
92509W        W35603  21.508  19.636  31.479 -0.0390 -0.2608  0.2858
92510W        W35604  17.482  21.012  31.299 -0.1264 -0.3177 -0.2356
92511W        W35605  18.800  18.584  30.243 -0.0123  0.0708  0.2143
92512W        W35606  21.548  19.709  30.960  0.4323 -0.0130 -0.0333
92513W        W35607  20.095  19.929  30.157  0.2641  0.0790 -0.3209
92514W        W35608  18.664  18.975  29.168  0.0995 -0.1397  0.1129
92515W        W35609  19.285  18.948  31.520 -0.1953 -0.1955  0.0405
92516W        W35610  17.797  20.023   0.492  0.0532  0.2204  0.0102
92517W        W35611  22.622  18.274  30.952 -0.2170  0.2000  0.3103
92518W        W35612  20.144  18.494  29.951  0.2149  0.3278  0.1079
92519W        W35613  20.140  18.936  30.188  0.0477 -0.3233 -0.2104
92520W        W35614  18.911  18.680  31.326  0.1862 -0.1042 -0.1772
92521W        W35615  18.860  19.211  31.679  0.5343 -0.0381  0.2111
92522W        W35616  17.474  20.259   0.036  0.0207 -0.1178 -0.1939
92523W        W35617  19.295  20.307  30.848 -0.0624  0.0489 -0.0092
92524W        W35618  18.238  20.297  30.347  0.0304 -0.2867 -0.2271
92525W        W35619  19.604  20.337  31.250 -0.1457 -0.1387 -0.2049
92526W        W35620  20.852  19.693   0.579  0.0245 -0.3353  0.2856
92527W        W35621  21.367  20.001  30.294 -0.0229  0.3399 -0.1724
92528W        W35622  20.019  18.308  30.419 -0.1941  0.0229 -0.0096
92529W        W35623  20.061  19.498   0.095 -0.0007  0.2617  0.0882
92530W        W35624  19.639  19.029   0.394 -0.1132  0.1395  0.0742
92531W        W35625  17.655  19.627  31.288  0.2498 -0.0716 -0.3278
92532W        W35626  20.223  20.845  31.691  0.2429  0.0728 -0.4046
92533W        W35627  19.385  19.604  30.760 -0.1584 -0.0831  0.0320
92534W        W35628  18.332  19.838  30.500 -0.2327  0.0799  0.3069
92535W        W35629  22.222  19.743  31.275  0.0441 -0.0476 -0.1920
92536W        W35630  20.794  19.321   0.234  0.1927  0.0342  0.1335
92537W        W35631  18.841  19.404  29.263  0.0158 -0.1082  0.1845
92538W        W35632  20.075  20.390  31.524 -0.0127  0.0678 -0.0985
92539W        W35633  18.417  18.058  30.615 -0.0849 -0.0062  0.3501
92540W        W35634  20.309  19.970  31.572  0.1036 -0.0066 -0.2264
92541W        W35635  18.848  18.455   0.320  0.1886  0.1216  0.0251
92542W        W35636  19.307  20.459  30.213  0.1438  0.0529  0.0621
92543W        W35637  20.506  19.665  29.941 -0.0029  0.0993  0.0245
92544W        W35638  18.751  19.474  30.568  0.0212 -0.0148  0.2045
92545W        W35639  20.591  20.644  31.317 -0.0639 -0.1987 -0.1310
92546W        W35640  22.139  17.892  30.886 -0.1817 -0.0028 -0.1067
92547W        W35641  18.608  18.985  30.718 -0.1796 -0.1534  0.2663
92548W        W35642  19.606  20.711  28.554 -0.0194  0.2538  0.2163
92549W        W35643  19.083  19.240  30.928  0.1456 -0.0685  0.1752
92550W        W35644  21.733  18.812  30.682  0.2508  0.3311 -0.1465
92551W        W35645  20.606  20.168  30.406  0.0090 -0.0049 -0.1290
92552W        W35646  19.273  21.251  31.052  0.6823  0.2545  0.0460
92553W        W35647  18.783  22.262  31.352 -0.0071  0.1908 -0.0036
92554W        W35648  17.280  19.063  30.797  0.1189 -0.3763 -0.0618
92555W        W35649  17.224  19.346   0.274 -0.0658 -0.0321  0.1792
92556W        W35650  17.699  19.688   0.148 -0.1475  0.0546 -0.0224
92557W        W35651  17.402  20.228  29.576 -0.0523 -0.1077 -0.1513
92558W        W35652  17.932  18.740  29.956  0.0585  0.0396  0.2550
92559W        W35653  19.436  21.130  31.529 -0.1682  0.0534  0.0897
92560W        W35654  21.367  20.478  29.948  0.1671 -0.1694 -0.1259
92561W        W35655  22.355  17.919  31.756 -0.0829 -0.2002 -0.0331
92562W        W35656  19.620  25.084  18.575 -0.0721  0.0379  0.0949
92563W        W35657  18.349  22.848  17.677  0.2452 -0.1569  0.3458
92564W        W35658  21.711  23.144  16.223  0.0746  0.2326  0.1747
92565W        W35659  21.915  24.980  17.392  0.1744  0.3009  0.2274
92566W        W35660  17.737  23.303  16.974 -0.1226  0.1948 -0.1015
92567W        W35661  20.992  25.879  18.690  0.1042  0.3586 -0.0497
92568W        W35662  18.726  22.473  18.689  0.2428  0.0007 -0.5535
92569W        W35663  19.174  25.205  16.954  0.2654 -0.1436 -0.0456
92570W        W35664  20.777  26.729  17.439  0.1738 -0.2218  0.0948
92571W        W35665  20.614  23.376  16.351 -0.0638  0.2262 -0.0360
92572W        W35666  19.090  23.139  18.569  0.1198 -0.2393 -0.2919
92573W        W35667  19.928  25.585  19.661  0.0092 -0.3609  0.0370
92574W        W35668  19.187  22.625  17.665  0.1932  0.1436 -0.0106
92575W        W35669  17.999  22.543  16.543  0.0652 -0.2644  0.3211
92576W        W35670  20.405  23.953  18.364  0.1687 -0.1459 -0.2119
92577W        W35671  17.853  23.948  16.283  0.0081  0.0228 -0.0730
92578W        W35672  17.360  22.944  17.934 -0.0066  0.0447  0.2054
92579W        W35673  18.513  22.859  16.468  0.1482 -0.1802  0.1261
92580W        W35674  20.121  25.296  17.312  0.2790 -0.1717  0.3329
92581W        W35675  19.379  21.986  19.145 -0.0309  0.2168 -0.0932
92582W        W35676  21.232  23.392  17.934 -0.2899  0.1647 -0.2887
92583W        W35677  20.679  23.929  15.855 -0.0469  0.0547 -0.1446
92584W        W35678  17.986  23.810  15.288  0.0441  0.0647  0.1659
92585W        W35679  17.659  24.374  17.857  0.2186  0.1143 -0.1240
92586W        W35680  19.025  23.341  16.404 -0.2575 -0.0200  0.0661
92587W        W35681  19.639  22.939  17.634 -0.0596  0.2433 -0.2123
92588W        W35682  22.195  23.713  18.351  0.2367  0.2645 -0.2702
92589W        W35683  21.144  25.509  18.411 -0.0400 -0.0453 -0.2361
92590W        W35684  20.114  26.705  19.285 -0.1068 -0.2813 -0.4885
92591W        W35685  22.067  22.048  19.708  0.0191  0.0805  0.1139
92592W        W35686  17.759  25.453  16.328  0.1451  0.0083 -0.3524
92593W        W35687  17.359  27.030  17.296  0.2081 -0.0302 -0.0550
92594W        W35688  19.398  24.815  16.348  0.0768  0.0936  0.1281
92595W        W35689  21.593  26.166  16.186 -0.0203  0.3043 -0.0059
92596W        W35690  20.827  25.372  18.882 -0.1468  0.1653 -0.2580
92597W        W35691  20.156  24.749  21.023 -0.1468 -0.2187  0.0791
92598W        W35692  18.290  24.224  15.559  0.0028 -0.1444  0.2868
92599W        W35693  19.545  26.694  19.103  0.0968  0.0109 -0.1660
92600W        W35694  18.521  24.800  19.299  0.0686 -0.1963 -0.0837
92601W        W35695  21.675  25.373  18.269 -0.0773 -0.1346  0.0628
92602W        W35696  19.133  25.704  16.725 -0.3348  0.1780 -0.2431
92603W        W35697  18.945  24.649  15.647  0.2929  0.0833 -0.0130
92604W        W35698  20.614  24.957  17.121 -0.0222 -0.1104  0.2610
92605W        W35699  19.357  22.801  19.581 -0.0253  0.0773  0.3478
92606W        W35700  18.597  24.609  16.677 -0.3386  0.1164  0.0905
92607W        W35701  24.093  22.447  19.474 -0.2782 -0.0661  0.1642
92608W        W35702  17.652  24.630  16.839  0.0172 -0.2838  0.0788
92609W        W35703  22.820  22.713  16.993 -0.0876  0.1560 -0.3945
92610W        W35704  18.755  23.150  16.871  0.1509 -0.0413  0.0169
92611W        W35705  21.119  25.207  16.310 -0.0576  0.2052  0.0931
92612W        W35706  20.324  22.524  17.489 -0.1555 -0.1236  0.2110
92613W        W35707  18.978  25.578  17.192 -0.0081 -0.3352 -0.0353
92614W        W35708  19.166  23.178  17.447 -0.3241  0.1019  0.0090
92615W        W35709  20.401  23.629  17.945 -0.1649  0.0615  0.3152
92616W        W35710  20.284  24.162  17.317 -0.1034 -0.0372 -0.1007
92617W        W35711  20.697  23.492  19.758 -0.0790 -0.1337 -0.1571
92618W        W35712  19.620  25.486  19.189  0.1986  0.0694 -0.0194
92619W        W35713  17.832  24.229  17.218  0.0196 -0.0588  0.1320
92620W        W35714  21.450  24.349  15.952 -0.0680 -0.0559  0.2239
92621W        W35715  22.010  26.146  17.319  0.2540 -0.0400  0.1524
92622W        W35716  20.279  24.639  16.080 -0.0901 -0.1467 -0.0863
92623W        W35717  17.813  24.539  16.312  0.1136  0.0184 -0.1520
92624W        W35718  19.816  24.889  20.653  0.3127 -0.1228  0.0976
92625W        W35719  19.308  24.351  19.347 -0.0325  0.1183  0.0140
92626W        W35720  19.592  21.519  15.737  0.0823  0.1416 -0.0226
92627W        W35721  21.628  24.617  18.941 -0.2292  0.0047  0.2955
92628W        W35722  18.697  25.823  19.216  0.2714  0.0631  0.2629
92629W        W35723  21.352  24.659  16.395  0.0101 -0.0204 -0.1668
92630W        W35724  19.539  24.087  16.177  0.2898 -0.2766 -0.0870
92631W        W35725  21.551  25.898  18.433  0.0442 -0.1877 -0.0828
92632W        W35726  21.875  24.921  16.555  0.0050  0.0346  0.1440
92633W        W35727  19.776  21.604  17.536  0.2443  0.0671 -0.1374
92634W        W35728  21.215  23.215  18.494  0.2058  0.2124 -0.4175
92635W        W35729  20.979  24.427  18.013 -0.1801  0.2069 -0.2034
92636W        W35730  19.881  23.866  16.548 -0.1980 -0.0463 -0.1057
92637W        W35731  22.194  25.410  19.228  0.3324 -0.2655 -0.0110
92638W        W35732  20.009  23.183  15.556  0.0860 -0.2484  0.0850
92639W        W35733  17.856  26.973  18.339 -0.0183 -0.0452  0.0611
92640W        W35734  19.646  22.837  19.137  0.0111 -0.0386 -0.1404
92641W        W35735  20.794  25.408  19.821  0.1336  0.2108 -0.3600
92642W        W35736  17.905  26.575  16.297 -0.0773 -0.3481  0.0638
92643W        W35737  17.464  23.774  17.134 -0.0338 -0.0009 -0.3923
92644W        W35738  19.025  22.850  16.311 -0.1263 -0.0474  0.0247
92645W        W35739  19.368  22.188  18.225  0.2080 -0.0293 -0.1190
92646W        W35740  19.627  24.291  17.480  0.1845  0.2676 -0.2127
92647W        W35741  21.055  22.740  16.448 -0.1573  0.1240  0.3765
92648W        W35742  19.485  23.803  19.134 -0.0184  0.3344  0.0860
92649W        W35743  20.931  21.448  18.550 -0.1815  0.1336  0.3180
92650W        W35744  18.733  24.459  17.256  0.0717  0.1807  0.0043
92651W        W35745  20.799  26.306  16.686 -0.0340 -0.3705  0.1623
92652W        W35746  22.432  23.415  17.951 -0.0808 -0.1196  0.0765
92653W        W35747  22.172  24.958  16.183  0.1602 -0.0308  0.2671
92654W        W35748  18.698  24.889  17.648 -0.1120 -0.1122  0.3174
92655W        W35749  18.851  24.830  18.155  0.3164 -0.0619 -0.0556
92656W        W35750  19.793  23.022  19.596  0.0168 -0.1166 -0.0626
92657W        W35751  18.409  23.674  17.044  0.0113  0.0222  0.1447
92658W        W35752  21.897  23.874  19.255  0.1505 -0.3289 -0.1427
92659W        W35753  19.373  22.060  16.881  0.0079  0.2092 -0.0253
92660W        W35754  20.631  23.851  16.588  0.1153 -0.0699 -0.1996
92661W        W35755  19.764  23.167  16.243  0.1265  0.2317 -0.4055
92662W        W35756  18.385  24.802  17.288 -0.0675 -0.3162 -0.0567
92663W        W35757  22.589  21.901  20.570 -0.4807  0.0994  0.2417
92664W        W35758  20.043  25.641  16.973  0.0376  0.3466 -0.2511
92665W        W35759  21.484  24.653  18.010 -0.2696  0.0559 -0.1088
92666W        W35760  21.129  26.858  18.546 -0.1964  0.3305  0.1439
92667W        W35761  18.699  22.516  19.662 -0.1718  0.1001 -0.1562
92668W        W35762  18.490  22.453  16.836  0.1543 -0.1063  0.1698
92669W        W35763  17.714  24.891  17.989 -0.3745  0.1176 -0.1359
92670W        W35764  19.677  24.705  16.838 -0.0462  0.1292  0.2958
92671W        W35765  17.743  22.598  16.016 -0.0252  0.1168 -0.0074
92672W        W35766  21.066  26.578  17.047  0.1840  0.2141 -0.0078
92673W        W35767  20.924  25.006  16.709  0.0579 -0.1540 -0.1831
92674W        W35768  20.760  24.372  18.814  0.0225  0.0310  0.5368
92675W        W35769  20.047  22.854  17.884  0.3067 -0.0758 -0.0247
92676W        W35770  21.494  23.604  19.961  0.0807  0.3530  0.0169
92677W        W35771  21.428  22.797  18.982  0.2963  0.0618  0.3035
92678W        W35772  19.072  21.652  15.916 -0.0293  0.0658  0.1008
92679W        W35773  19.941  25.737  17.480 -0.1823  0.2969  0.2966
92680W        W35774  19.158  25.179  17.468  0.0450 -0.0221 -0.0881
92681W        W35775  17.516  23.841  17.676  0.0497 -0.2741 -0.3476
92682W        W35776  19.598  25.789  17.915  0.1267 -0.5458 -0.0356
92683W        W35777  21.601  23.239  18.826 -0.1060 -0.0061  0.0712
92684W        W35778  19.018  23.292  20.830  0.2893 -0.1836 -0.3039
92685W        W35779  21.502  22.198  19.691 -0.0897 -0.3727 -0.0260
92686W        W35780  18.783  24.094  16.057 -0.0070  0.0047  0.0320
92687W        W35781  20.245  24.794  19.259  0.1184  0.2718 -0.0155
92688W        W35782  20.691  21.927  18.491  0.2475  0.0890  0.1357
92689W        W35783  21.012  21.918  16.839 -0.3726  0.0280 -0.1658
92690W        W35784  20.150  24.305  20.060  0.0259 -0.0453  0.4103
92691W        W35785  21.673  23.853  15.614 -0.0000 -0.3402  0.1720
92692W        W35786  20.112  23.019  16.559  0.2152 -0.1429  0.1442
92693W        W35787  21.329  21.902  15.876  0.2622 -0.0877 -0.1351
92694W        W35788  19.952  24.894  18.862  0.1813 -0.1286  0.1101
92695W        W35789  19.642  25.147  17.197 -0.0638  0.1686  0.1184
92696W        W35790  19.084  25.455  17.893  0.0486 -0.2181  0.0792
92697W        W35791  19.514  24.059  15.291  0.0263 -0.2626 -0.0380
92698W        W35792  20.360  24.549  16.920 -0.0779  0.0013 -0.0834
92699W        W35793  18.810  24.915  18.742  0.0773 -0.0394 -0.0341
92700W        W35794  21.948  23.457  17.690 -0.1580  0.1619  0.1087
92701W        W35795  21.639  25.127  17.795 -0.1519  0.1778  0.3801
92702W        W35796  21.184  22.869  18.086  0.0078 -0.0446  0.2527
92703W        W35797  18.800  21.597  17.282  0.2266 -0.1077 -0.0947
92704W        W35798  18.928  23.658  17.713 -0.1025  0.0516  0.5929
92705W        W35799  17.361  25.906  15.673 -0.2065  0.2831 -0.2587
92706W        W35800  20.132  22.001  17.574  0.0549  0.3157 -0.0741
92707W        W35801  19.843  22.489  17.590  0.1328  0.0422  0.1171
92708W        W35802  19.606  22.002  19.635 -0.1950 -0.0038  0.0103
92709W        W35803  22.087  24.153  19.778  0.0205  0.0399  0.1486
92710W        W35804  21.116  25.341  17.609  0.1302 -0.0583 -0.2042
92711W        W35805  22.101  24.720  19.054  0.1982  0.1882  0.3600
92712W        W35806  17.960  23.410  16.228 -0.0057 -0.0563 -0.2129
92713W        W35807  21.236  23.208  19.112  0.0131 -0.2216  0.1645
92714W        W35808  19.595  22.422  20.788 -0.1749  0.1511 -0.1197
92715W        W35809  19.907  24.412  19.177  0.0104 -0.0171  0.2024
92716W        W35810  20.422  25.723  19.671 -0.1834 -0.1008  0.4041
92717W        W35811  21.097  26.358  18.535  0.0304  0.0521  0.0043
92718W        W35812  20.518  21.982  17.940 -0.5150 -0.4749  0.4451
92719W        W35813  19.682  22.604  16.275 -0.2331  0.1350  0.3976
92720W        W35814  20.127  24.969  16.844  0.0727  0.0025 -0.2326
92721W        W35815  18.320  23.351  16.592  0.1405 -0.1415 -0.1373
92722W        W35816  19.714  23.038  18.253 -0.0414  0.0755  0.1711
92723W        W35817  18.750  25.873  17.916  0.3209  0.1541  0.0847
92724W        W35818  18.730  23.627  16.688  0.3521  0.2644 -0.0813
92725W        W35819  21.755  24.990  19.314 -0.0033  0.1682  0.2750
92726W        W35820  19.815  26.079  16.971  0.0291 -0.0053  0.1499
92727W        W35821  21.368  22.626  17.566  0.2412 -0.2384  0.0336
92728W        W35822  18.778  25.644  18.345  0.1367 -0.0135  0.2083
92729W        W35823  18.276  22.223  15.629  0.0208 -0.0436  0.0549
92730W        W35824  16.984  25.565  16.580 -0.5305  0.0211 -0.3743
92731W        W35825  20.565  21.454  16.848 -0.2180  0.0647  0.0320
92732W        W35826  20.310  23.743  16.242  0.2756  0.0359  0.3001
92733W        W35827  18.583  24.299  17.823  0.3197 -0.1645  0.0244
92734W        W35828  20.433  23.018  18.772  0.0181  0.0118  0.2215
92735W        W35829  18.277  25.187  17.612 -0.0757  0.2014  0.1161
92736W        W35830  21.607  24.544  17.393  0.0007  0.1706  0.2776
92737W        W35831  21.425  21.968  15.408 -0.1137 -0.2576 -0.2236
92738W        W35832  21.428  24.772  19.616 -0.2462  0.4387  0.0187
92739W        W35833  18.978  23.950  19.118 -0.2452 -0.2143 -0.0607
92740W        W35834  19.182  22.307  15.187 -0.1775  0.1402 -0.0612
92741W        W35835  20.761  23.867  18.796  0.0748  0.0650 -0.0144
92742W        W35836  19.454  24.011  17.862  0.0052  0.0494  0.1298
92743W        W35837  18.381  25.072  16.841  0.3322  0.0219  0.1983
92744W        W35838  19.588  24.867  17.684 -0.3238  0.0794 -0.0798
92745W        W35839  19.718  23.474  16.723  0.1988  0.1978 -0.0868
92746W        W35840  18.860  25.009  16.538  0.0797  0.0360  0.4850
92747W        W35841  19.478  22.684  18.586  0.1975 -0.1632 -0.3009
92748W        W35842  20.457  23.525  19.132  0.1312  0.0288  0.0333
92749W        W35843  19.952  23.224  17.017 -0.5419 -0.1027 -0.1750
92750W        W35844  19.652  23.399  17.382 -0.1500 -0.0084  0.1682
92751W        W35845  21.755  23.671  18.566  0.1088  0.1291  0.1513
92752W        W35846  21.420  23.694  18.246 -0.1543 -0.1980  0.1107
92753W        W35847  19.134  24.622  17.831  0.1373  0.1940  0.1786
92754W        W35848  18.960  24.593  19.744 -0.1445  0.0879 -0.0527
92755W        W35849  21.140  21.616  19.018 -0.2208 -0.0358  0.0162
92756W        W35850  22.037  26.298  15.939 -0.0111  0.3072 -0.0655
92757W        W35851  22.243  23.862  18.902 -0.0503 -0.3280 -0.2062
92758W        W35852  19.144  24.181  17.071 -0.1467 -0.1520  0.0532
92759W        W35853  19.046  24.219  17.574  0.0194  0.3411  0.0282
92760W        W35854  19.409  22.824  17.168  0.1679 -0.0760 -0.1196
92761W        W35855  18.791  23.934  18.457 -0.0378 -0.0550  0.1764
92762W        W35856  18.754  25.080  17.164  0.0763 -0.1071  0.1752
92763W        W35857  19.351  24.375  16.591  0.0853  0.1549  0.2526
92764W        W35858  17.306  25.188  17.752  0.2154 -0.1192  0.0944
92765W        W35859  21.093  22.716  15.922  0.3324  0.3099  0.0667
92766W        W35860  20.406  25.344  16.902 -0.1544 -0.2264 -0.7030
92767W        W35861  19.848  23.667  16.053  0.0944 -0.2780  0.0275
92768W        W35862  22.815  22.509  19.701 -0.0822  0.2395 -0.1029
92769W        W35863  21.500  25.213  16.717 -0.0040 -0.0189  0.0037
92770W        W35864  20.917  23.631  19.263 -0.1295  0.0245  0.0419
92771W        W35865  19.525  23.394  18.783 -0.3084 -0.2680  0.0798
92772W        W35866  20.584  25.252  17.531  0.2511  0.2691  0.2455
92773W        W35867  19.854  24.573  18.445 -0.0437  0.2539 -0.1166
92774W        W35868  22.054  25.881  19.022  0.1341 -0.3691  0.0790
92775W        W35869  19.130  22.220  18.702 -0.3409 -0.1863 -0.1460
92776W        W35870  20.886  24.765  16.264  0.0550  0.2011  0.1266
92777W        W35871  20.658  22.453  16.142 -0.0408  0.0612  0.1221
92778W        W35872  20.273  24.636  18.178 -0.0192  0.1019  0.3350
92779W        W35873  21.894  24.600  18.456 -0.3410  0.0329  0.0989
92780W        W35874  19.986  24.369  16.494  0.0773 -0.1237  0.2288
92781W        W35875  22.036  24.361  17.131 -0.3742 -0.2287  0.0491
92782W        W35876  20.812  25.084  18.364  0.1592  0.1058 -0.0027
92783W        W35877  20.716  23.568  17.079  0.2208 -0.2901 -0.1343
92784W        W35878  21.490  22.654  16.196 -0.2725 -0.1927 -0.1708
92785W        W35879  18.727  24.125  16.690 -0.2724  0.2898 -0.0945
92786W        W35880  19.528  23.572  18.252 -0.0616 -0.4817 -0.3419
92787W        W35881  22.215  24.049  17.686 -0.1095  0.0883  0.0432
92788W        W35882  19.536  24.477  18.013  0.0268 -0.0374  0.1555
92789W        W35883  18.990  22.106  19.664  0.0201  0.3088  0.0979
92790W        W35884  21.358  24.318  19.351 -0.1344 -0.1801  0.2586
92791W        W35885  19.876  25.529  18.764  0.0645 -0.0829 -0.2170
92792W        W35886  19.924  23.330  20.039 -0.4149 -0.2176  0.2903
92793W        W35887  21.644  25.890  17.596  0.1532  0.0182 -0.0829
92794W        W35888  21.388  23.543  16.479 -0.2400 -0.0330 -0.1095
92795W        W35889  21.826  23.868  17.976  0.0047  0.0921 -0.0350
92796W        W35890  22.955  24.725  17.831 -0.1653  0.4076  0.0483
92797W        W35891  20.199  23.195  16.055  0.0037  0.1874 -0.0898
92798W        W35892  18.113  23.144  17.237 -0.0246  0.1427  0.0603
92799W        W35893  20.790  22.684  18.399 -0.1532 -0.1691 -0.0170
92800W        W35894  18.673  22.781  15.988  0.3821 -0.0842  0.2338
92801W        W35895  19.958  24.009  18.087 -0.3728 -0.0871  0.3256
92802W        W35896  17.901  25.079  16.584  0.0796  0.3488  0.2495
92803W        W35897  21.891  25.112  18.769 -0.0021  0.1950  0.1861
92804W        W35898  20.826  24.394  16.637 -0.1579  0.0019 -0.0602
92805W        W35899  16.835  23.081  17.270 -0.1064  0.2322  0.0871
92806W        W35900  19.469  24.646  19.704 -0.4868 -0.2793 -0.2739
92807W        W35901  19.429  21.706  15.121 -0.1471 -0.3149 -0.0863
92808W        W35902  19.572  23.288  15.778 -0.0061 -0.1448  0.0432
92809W        W35903  19.993  24.629  17.300 -0.0221  0.0041  0.0526
92810W        W35904  22.231  24.983  19.514  0.0151 -0.0405  0.2573
92811W        W35905  19.982  22.536  16.641 -0.1932 -0.0149  0.1581
92812W        W35906  22.061  22.052  19.184 -0.0263 -0.4231 -0.0162
92813W        W35907  18.301  23.867  16.536 -0.1133 -0.1685  0.1957
92814W        W35908  19.100  21.247  18.723  0.1302  0.0157 -0.3145
92815W        W35909  17.818  26.647  17.252 -0.1910  0.1146  0.0069
92816W        W35910  18.896  25.532  18.837  0.1946 -0.2560  0.1383
92817W        W35911  20.179  25.179  18.389  0.0347 -0.1725 -0.0095
92818W        W35912  19.578  22.608  18.061 -0.2739 -0.1206  0.1282
92819W        W35913  22.610  22.553  18.411  0.1636  0.0520  0.0699
92820W        W35914  20.107  23.317  18.276 -0.2175  0.0136  0.1886
92821W        W35915  23.254  22.551  19.308  0.0947 -0.1422 -0.2315
92822W        W35916  20.327  25.324  18.892 -0.0205  0.2139  0.0727
92823W        W35917  17.934  23.779  16.951  0.0129 -0.2091 -0.3046
92824W        W35918  19.571  25.495  18.304 -0.0846 -0.1086  0.1810
92825W        W35919  22.987  24.178  16.985  0.0954  0.2442 -0.2630
92826W        W35920  19.514  25.559  17.001  0.3550 -0.2490 -0.3360
92827W        W35921  18.270  23.228  20.144 -0.1037  0.1906 -0.2671
92828W        W35922  20.117  23.139  19.222  0.0804 -0.2290  0.0408
92829W        W35923  21.641  23.028  17.812 -0.2839  0.2643 -0.0125
92830W        W35924  19.592  22.389  15.788 -0.1769  0.0846  0.2690
92831W        W35925  21.726  25.189  16.084 -0.0480 -0.0774 -0.1137
92832W        W35926  19.426  25.089  19.369 -0.1200  0.1027 -0.0565
92833W        W35927  18.288  24.364  18.684 -0.0908  0.0279  0.3778
92834W        W35928  18.711  25.446  16.717  0.3729  0.2255 -0.0756
92835W        W35929  22.687  23.036  15.873 -0.2126 -0.1008  0.0862
92836W        W35930  21.201  25.577  16.735 -0.1445  0.3968 -0.3358
92837W        W35931  19.314  25.054  18.023 -0.4449  0.1462 -0.2108
92838W        W35932  18.740  22.448  16.339 -0.2333  0.0082 -0.1116
92839W        W35933  18.164  26.176  17.944 -0.1778  0.2474  0.2818
92840W        W35934  17.811  25.473  15.816 -0.1082 -0.2357  0.1135
92841W        W35935  20.114  24.936  17.704  0.1348  0.3010 -0.1779
92842W        W35936  18.694  25.930  16.925 -0.1102  0.1290  0.1789
92843W        W35937  21.136  24.655  18.422 -0.1180  0.2438  0.0811
92844W        W35938  20.854  20.914  16.038  0.1794  0.1618  0.1103
92845W        W35939  23.379  23.795  19.644 -0.2000 -0.0173 -0.1771
92846W        W35940  20.966  24.300  17.509  0.0819  0.2311 -0.0405
92847W        W35941  19.043  25.200  20.495  0.0294 -0.1146  0.0353
92848W        W35942  19.898  23.762  17.070  0.0556  0.2281 -0.0120
92849W        W35943  19.499  21.956  15.496  0.3062  0.3855  0.2053
92850W        W35944  19.270  24.676  18.401  0.1499 -0.1219 -0.0672
92851W        W35945  21.851  22.474  18.675 -0.0591  0.1738  0.0362
92852W        W35946  18.081  24.663  19.536  0.0227  0.1536 -0.0865
92853W        W35947  22.050  25.761  16.104 -0.1457  0.3064 -0.2143
92854W        W35948  17.437  22.980  16.085 -0.3228 -0.2013  0.2243
92855W        W35949  20.436  25.711  17.262  0.1143 -0.2461  0.3485
92856W        W35950  21.324  21.834  18.553  0.0307  0.2464 -0.2817
92857W        W35951  21.197  24.189  17.051 -0.0998 -0.0265  0.3335
92858W        W35952  19.956  23.402  17.815 -0.0375 -0.0426 -0.1863
92859W        W35953  20.342  26.183  18.168  0.0752 -0.0087 -0.1205
92860W        W35954  19.404  25.665  18.790  0.0639 -0.1325  0.1652
92861W        W35955  19.071  25.254  18.394 -0.1213 -0.2333  0.1124
92862W        W35956  19.690  21.752  17.070  0.1090  0.0317  0.1934
92863W        W35957  23.786  24.382  19.224  0.1855  0.0366 -0.3942
92864W        W35958  18.552  23.213  17.943  0.0322 -0.0586 -0.0215
92865W        W35959  20.866  22.514  17.450 -0.1692  0.2251 -0.0418
92866W        W35960  18.155  22.926  16.822  0.4398  0.1328  0.1274
92867W        W35961  20.198  22.994  17.428  0.1755 -0.0361 -0.2147
92868W        W35962  20.726  24.145  17.076  0.3910 -0.1790 -0.2042
92869W        W35963  19.810  25.335  17.710 -0.0991  0.0587 -0.3436
92870W        W35964  19.846  23.665  15.441 -0.0871 -0.1143 -0.3060
92871W        W35965  21.792  24.480  19.436 -0.0877 -0.2048  0.1376
92872W        W35966  19.953  22.159  16.959 -0.1261 -0.1611  0.3956
92873W        W35967  19.560  25.981  19.406 -0.2012 -0.2430 -0.2210
92874W        W35968  19.484  23.912  16.794 -0.2450  0.1330 -0.0382
92875W        W35969  20.961  23.723  16.232  0.3353 -0.2527 -0.1109
92876W        W35970  17.596  25.343  18.336  0.1881  0.0853  0.0181
92877W        W35971  19.224  23.046  17.976  0.0642 -0.3149 -0.0221
92878W        W35972  23.457  24.723  19.458  0.0167 -0.0553 -0.3777
92879W        W35973  18.042  22.625  17.190 -0.0526  0.1314 -0.2798
92880W        W35974  21.289  24.118  16.417  0.0834  0.0283  0.1986
92881W        W35975  20.392  24.114  19.069 -0.1691  0.4646  0.1636
92882W        W35976  19.151  23.934  16.416  0.0699 -0.0784  0.0847
92883W        W35977  22.437  23.077  18.310  0.2196  0.0064 -0.1533
92884W        W35978  21.959  24.531  17.819 -0.1047  0.3214 -0.0649
92885W        W35979  18.266  24.342  17.434  0.1935 -0.2159 -0.0871
92886W        W35980  19.653  26.869  18.372 -0.1575  0.4759 -0.1262
92887W        W35981  21.608  24.174  18.338  0.0978  0.3036  0.0498
92888W        W35982  20.198  22.669  16.172 -0.0051  0.1178  0.3721
92889W        W35983  19.218  24.264  18.812 -0.1457 -0.0699  0.0200
92890W        W35984  18.277  24.318  16.278 -0.2776  0.2474  0.0586
92891W        W35985  21.035  23.840  17.879 -0.1428 -0.0797 -0.2789
92892W        W35986  20.596  23.817  17.565  0.3183 -0.0153  0.2824
92893W        W35987  20.238  23.554  16.725 -0.1044  0.1846  0.1927
92894W        W35988  21.722  22.438  19.241 -0.1355  0.0854 -0.2772
92895W        W35989  20.684  24.540  19.315  0.0734 -0.0520 -0.1950
92896W        W35990  19.327  25.592  20.633 -0.1303  0.0927  0.1485
92897W        W35991  17.920  24.194  16.673 -0.1426  0.1645  0.2062
92898W        W35992  20.494  24.158  17.870 -0.2599  0.0751  0.0690
92899W        W35993  19.433  23.574  16.271 -0.0856 -0.1471  0.0654
92900W        W35994  19.427  25.614  17.451  0.0432  0.1342 -0.2084
92901W        W35995  21.876  25.525  17.379  0.0975  0.1431 -0.0332
92902W        W35996  20.242  24.053  16.840 -0.2652 -0.1105 -0.0850
92903W        W35997  20.936  24.314  16.125 -0.1204  0.0147 -0.2150
92904W        W35998  18.269  22.767  18.211 -0.0080 -0.0556 -0.0945
92905W        W35999  21.434  23.042  16.606 -0.0588 -0.0056  0.0872
92906W        W36000  19.849  21.714  16.143  0.0016  0.0081  0.1104
92907W        W36001  21.154  25.711  20.143  0.1421 -0.2814  0.2355
92908W        W36002  17.854  23.672  15.742  0.0385 -0.1808  0.0013
92909W        W36003  18.575  23.512  16.182 -0.3864 -0.0866 -0.1874
92910W        W36004  19.400  24.151  18.347  0.2637 -0.0168  0.1332
92911W        W36005  20.802  23.534  18.243 -0.2633  0.1561  0.0014
92912W        W36006  19.856  23.034  20.449 -0.0422 -0.0162  0.1925
92913W        W36007  18.106  24.677  16.738  0.2546  0.1057  0.2287
92914W        W36008  19.119  24.701  16.879 -0.1993  0.0975  0.2125
92915W        W36009  20.083  24.397  17.731 -0.0040 -0.2490 -0.0893
92916W        W36010  19.389  23.538  17.722 -0.2155  0.2788  0.5233
92917W        W36011  18.620  23.972  17.445  0.0170  0.0935  0.1384
92918W        W36012  21.022  25.956  17.066 -0.0294  0.2069 -0.0098
92919W        W36013  20.942  24.109  19.221  0.1893 -0.1144  0.1283
92920W        W36014  18.479  22.444  17.352  0.0939  0.1492 -0.0000
92921W        W36015  21.272  25.186  19.145 -0.2314 -0.0948 -0.0420
92922W        W36016  17.020  24.012  17.149 -0.0240  0.2184 -0.0601
92923W        W36017  20.027  23.657  19.592  0.1421 -0.1461  0.5266
92924W        W36018  20.172  22.124  19.461 -0.1186 -0.0844 -0.0510
92925W        W36019  17.854  21.791  14.929  0.0322 -0.2907  0.1234
92926W        W36020  19.913  23.670  18.599 -0.0496  0.1468 -0.2068
92927W        W36021  18.600  25.263  18.006  0.1457  0.1230 -0.0303
92928W        W36022  21.341  24.860  15.932  0.0097  0.1821  0.2268
92929W        W36023  17.802  25.371  17.729 -0.0650 -0.0165 -0.2195
92930W        W36024  21.229  25.128  18.081  0.1925 -0.1782  0.1587
92931W        W36025  18.417  21.786  19.092 -0.1620  0.2483  0.0686
92932W        W36026  21.356  25.579  17.918  0.0786 -0.1357  0.2932
92933W        W36027  19.850  24.230  17.022  0.1531  0.1653 -0.0895
92934W        W36028  22.709  25.804  16.018 -0.1155  0.0388  0.3202
92935W        W36029  19.818  24.991  18.128 -0.0926 -0.2250  0.3041
92936W        W36030  21.105  24.770  17.624 -0.0898  0.0633 -0.0671
92937W        W36031  18.840  22.968  19.450  0.1217 -0.0266 -0.1867
92938W        W36032  20.398  23.511  18.605 -0.3031 -0.0464 -0.1616
92939W        W36033  21.399  25.070  18.667  0.1612 -0.0975 -0.0361
92940W        W36034  19.099  22.606  18.232  0.0223 -0.0624 -0.1697
92941W        W36035  20.517  24.558  17.503  0.1272 -0.2659  0.3022
92942W        W36036  20.602  25.999  16.263  0.1305  0.0702 -0.0726
92943W        W36037  19.251  24.636  17.363  0.0669 -0.1736 -0.2302
92944W        W36038  18.953  23.684  17.144 -0.0308  0.2245  0.4545
92945W        W36039  20.105  22.637  18.835 -0.2252  0.2204 -0.0045
92946W        W36040  20.884  25.925  18.146  0.2870 -0.0625  0.0933
92947W        W36041  21.638  26.067  20.316  0.4010 -0.0442  0.2597
92948W        W36042  20.250  23.715  15.726 -0.0311  0.0673 -0.0844
92949W        W36043  20.471  24.267  16.331  0.4537  0.1846  0.0769
92950W        W36044  20.382  26.437  19.885 -0.1644 -0.0708  0.1891
92951W        W36045  20.935  25.138  20.833 -0.2533  0.0831  0.1167
92952W        W36046  21.263  25.678  19.070  0.0809  0.0390 -0.1370
92953W        W36047  20.451  23.096  17.989 -0.0713  0.2556  0.3260
92954W        W36048  18.348  24.245  16.963 -0.1654  0.1282 -0.0962
92955W        W36049  18.788  24.494  18.511  0.0340 -0.0716 -0.1363
92956W        W36050  19.892  22.690  17.125  0.0495  0.1587  0.0875
92957W        W36051  22.114  23.317  18.694 -0.2111 -0.2686  0.0038
92958W        W36052  18.841  22.867  17.273 -0.0719  0.0131  0.5243
92959W        W36053  20.372  22.286  15.621 -0.1558 -0.0982  0.1920
92960W        W36054  17.411  25.363  18.787 -0.3180  0.1290  0.0434
92961W        W36055  20.704  24.907  17.864 -0.1373  0.1678  0.0514
92962W        W36056  19.535  23.637  22.610 -0.3115 -0.2643 -0.3145
92963W        W36057  20.254  23.984  20.487 -0.3368  0.1694 -0.0498
92964W        W36058  20.952  22.766  18.865  0.0703  0.2794 -0.1907
92965W        W36059  22.362  23.184  21.675  0.2001 -0.3663  0.0509
92966W        W36060  18.050  23.876  19.109  0.1769 -0.2942  0.1142
92967W        W36061  21.195  24.717  20.831  0.0161  0.1384  0.1245
92968W        W36062  19.659  23.131  22.597  0.3464 -0.1723 -0.2589
92969W        W36063  20.961  25.119  22.816  0.0466  0.1117  0.0538
92970W        W36064  22.824  25.958  23.468  0.0064 -0.2817 -0.0420
92971W        W36065  20.973  24.363  19.710 -0.2657 -0.1630 -0.2771
92972W        W36066  19.514  22.427  23.193  0.3999  0.0894 -0.1426
92973W        W36067  20.678  24.380  23.159  0.1667 -0.2313 -0.1678
92974W        W36068  18.788  22.116  19.060  0.2429 -0.2280  0.1280
92975W        W36069  20.285  22.680  23.664 -0.0704  0.0513  0.1900
92976W        W36070  19.851  23.587  22.970 -0.0880 -0.0583  0.2114
92977W        W36071  18.043  22.464  19.466 -0.0971 -0.1158  0.1382
92978W        W36072  19.318  23.402  21.277 -0.6045  0.2582 -0.0153
92979W        W36073  19.514  22.074  21.177  0.3337  0.2270 -0.0447
92980W        W36074  18.562  25.213  20.603  0.3460  0.0652  0.0905
92981W        W36075  20.334  22.572  22.091  0.1791  0.0560  0.2421
92982W        W36076  21.130  22.099  23.682 -0.3579  0.0259  0.1248
92983W        W36077  20.356  24.606  18.729  0.0602  0.2491  0.1616
92984W        W36078  19.035  23.813  21.163 -0.1615  0.0385  0.0578
92985W        W36079  18.115  23.750  22.202  0.1675  0.3021 -0.1052
92986W        W36080  19.241  23.021  22.232  0.2924 -0.0928  0.0921
92987W        W36081  21.815  23.088  22.250 -0.0946  0.3202 -0.2808
92988W        W36082  21.529  23.459  22.037 -0.1350  0.0886  0.0232
92989W        W36083  19.340  24.148  21.602  0.0963  0.1502 -0.0255
92990W        W36084  19.934  24.959  22.451 -0.1137 -0.2431 -0.0562
92991W        W36085  21.860  23.259  22.929 -0.1206  0.0128  0.0643
92992W        W36086  19.732  24.594  20.142 -0.1080  0.1178  0.3851
92993W        W36087  17.818  25.095  21.671  0.1759 -0.0615  0.0432
92994W        W36088  20.344  25.092  19.691 -0.1565  0.0503 -0.3401
92995W        W36089  21.978  25.306  20.795 -0.1068 -0.0658  0.2657
92996W        W36090  21.468  25.434  23.023  0.0388  0.0047 -0.0222
92997W        W36091  20.284  25.559  22.248  0.1395  0.0108 -0.1230
92998W        W36092  20.317  26.297  19.017  0.1322  0.0225 -0.0623
92999W        W36093  21.529  25.992  22.772 -0.0356  0.0452 -0.0167
93000W        W36094  20.245  23.263  23.910 -0.1259 -0.0439 -0.0103
93001W        W36095  19.063  23.526  23.572  0.2520 -0.3273 -0.0146
93002W        W36096  20.320  23.484  20.992 -0.1194  0.0682 -0.3145
93003W        W36097  19.717  24.337  20.972 -0.0936 -0.1806  0.3742
93004W        W36098  21.421  24.019  21.951  0.2138  0.3424  0.2703
93005W        W36099  19.568  23.349  23.355  0.1692  0.0103 -0.2857
93006W        W36100  19.021  23.911  23.882 -0.0724  0.1230 -0.0236
93007W        W36101  21.743  22.114  24.495 -0.2307 -0.4939 -0.3406
93008W        W36102  18.302  24.897  20.264  0.4343 -0.0063 -0.1305
93009W        W36103  22.555  22.626  20.400  0.0442 -0.0634 -0.1749
93010W        W36104  20.841  23.349  18.809 -0.0978  0.1113  0.0336
93011W        W36105  21.659  23.104  19.964 -0.1375  0.0311 -0.3995
93012W        W36106  20.676  21.806  21.844 -0.3279  0.0505 -0.0776
93013W        W36107  20.792  23.442  21.265  0.0807  0.1952 -0.6136
93014W        W36108  20.327  22.227  21.709 -0.3004  0.5197  0.0233
93015W        W36109  21.113  24.537  24.832  0.0414 -0.2985  0.2802
93016W        W36110  20.309  23.713  19.984  0.2598 -0.2093  0.1036
93017W        W36111  22.097  22.252  21.859 -0.0006 -0.3208  0.4028
93018W        W36112  19.291  24.615  22.705 -0.1088  0.1400  0.1290
93019W        W36113  18.615  23.890  22.291 -0.4599  0.1650 -0.1664
93020W        W36114  21.412  26.160  18.039 -0.1745 -0.0878 -0.0803
93021W        W36115  21.432  24.386  19.973 -0.0775 -0.1136 -0.0722
93022W        W36116  21.879  25.525  20.272  0.0068  0.1923  0.3814
93023W        W36117  18.066  23.203  20.663  0.3228 -0.3923 -0.3344
93024W        W36118  18.992  23.848  21.732  0.4946  0.0410  0.0550
93025W        W36119  18.624  23.872  22.836  0.0363  0.2042  0.0764
93026W        W36120  20.201  21.945  18.398  0.3784  0.0799 -0.1228
93027W        W36121  22.184  24.380  23.489 -0.1864 -0.0683 -0.2422
93028W        W36122  19.214  24.126  22.480 -0.0977 -0.2448  0.0540
93029W        W36123  21.854  22.216  20.157 -0.1627 -0.0527 -0.1513
93030W        W36124  21.231  23.694  21.185  0.1410 -0.1890 -0.0143
93031W        W36125  20.773  23.764  21.705  0.1016 -0.1073  0.1627
93032W        W36126  20.552  23.874  19.486 -0.1440  0.1551 -0.2256
93033W        W36127  21.005  23.503  22.145  0.2403 -0.0370 -0.4982
93034W        W36128  22.637  20.829  22.172 -0.0979  0.1069 -0.0552
93035W        W36129  20.695  24.899  18.978  0.0095  0.1706 -0.0178
93036W        W36130  20.372  23.655  21.461  0.0104  0.0775 -0.3883
93037W        W36131  21.073  24.640  24.202 -0.4265  0.2869 -0.1487
93038W        W36132  22.001  22.691  20.672 -0.1443 -0.1668 -0.1489
93039W        W36133  19.434  23.464  22.085 -0.1689  0.0861  0.0986
93040W        W36134  19.650  22.291  23.881 -0.0716  0.2111  0.2614
93041W        W36135  19.491  25.090  22.758 -0.1909 -0.2043 -0.1754
93042W        W36136  19.989  26.292  20.571 -0.1396 -0.1850 -0.1096
93043W        W36137  19.473  23.668  21.644 -0.1015 -0.2676  0.4174
93044W        W36138  17.713  23.177  20.335 -0.1163  0.2726 -0.2139
93045W        W36139  16.777  22.334  21.746  0.1449  0.0386 -0.0011
93046W        W36140  19.254  24.640  21.605 -0.1747  0.1539 -0.1707
93047W        W36141  23.015  21.408  20.276  0.3257  0.1146 -0.0195
93048W        W36142  19.730  21.820  22.416 -0.1126 -0.4218  0.3871
93049W        W36143  21.280  22.738  20.693 -0.0899  0.2044  0.1134
93050W        W36144  18.287  24.096  20.249 -0.2692  0.0406 -0.3716
93051W        W36145  21.762  26.934  21.862 -0.0201 -0.0577 -0.0695
93052W        W36146  21.640  22.951  19.472  0.2470 -0.3055 -0.1180
93053W        W36147  21.616  26.578  20.321  0.0442 -0.2846  0.3463
93054W        W36148  17.997  22.528  22.490  0.3452 -0.3316  0.6104
93055W        W36149  19.013  22.393  20.126  0.3971  0.0951  0.0940
93056W        W36150  20.901  22.374  24.222  0.0573  0.2458  0.0834
93057W        W36151  19.653  22.705  21.247  0.2205  0.1690 -0.3322
93058W        W36152  20.324  23.172  24.947 -0.1489 -0.0982 -0.0051
93059W        W36153  19.248  21.670  20.587 -0.0959  0.1785  0.0039
93060W        W36154  19.154  22.167  20.698  0.2660  0.0735  0.0002
93061W        W36155  18.730  23.438  20.407 -0.1292  0.1175  0.0101
93062W        W36156  17.164  23.271  20.639  0.1401  0.2715  0.0277
93063W        W36157  22.141  21.914  23.724 -0.0648 -0.1120 -0.0994
93064W        W36158  21.855  26.192  20.724 -0.0558 -0.1564  0.0958
93065W        W36159  22.740  24.579  21.949 -0.0545  0.1854 -0.1059
93066W        W36160  21.136  25.646  20.683 -0.0410  0.0502 -0.2084
93067W        W36161  18.997  23.455  24.065  0.1910  0.0313  0.2230
93068W        W36162  19.439  23.184  19.999  0.3917  0.1487 -0.2042
93069W        W36163  19.177  24.573  20.201  0.0114  0.0862  0.0906
93070W        W36164  20.740  23.860  20.979 -0.0963  0.0024  0.0184
93071W        W36165  21.351  21.881  20.493 -0.1899  0.0961  0.0062
93072W        W36166  23.438  26.394  22.975 -0.1878  0.2019  0.1733
93073W        W36167  20.578  22.677  20.773 -0.0514  0.0273 -0.2579
93074W        W36168  19.645  22.703  22.236 -0.0446  0.0512  0.1696
93075W        W36169  21.160  22.034  21.756  0.0824  0.0115 -0.0337
93076W        W36170  22.533  24.578  22.444  0.0542 -0.2516  0.2776
93077W        W36171  21.187  23.370  21.680  0.0520 -0.0343  0.1122
93078W        W36172  21.784  22.245  20.658 -0.1236 -0.2230 -0.4657
93079W        W36173  19.461  24.927  22.195  0.0405 -0.0399  0.1423
93080W        W36174  20.037  25.258  19.282  0.0660 -0.1747 -0.1287
93081W        W36175  16.992  23.673  20.984  0.0136  0.0401  0.2727
93082W        W36176  19.793  24.675  21.421 -0.0186  0.3071 -0.2247
93083W        W36177  22.314  22.022  21.414 -0.1474  0.2184 -0.0378
93084W        W36178  18.533  24.826  23.369  0.0803  0.3502  0.0982
93085W        W36179  20.580  22.215  22.778 -0.0923  0.1853  0.0699
93086W        W36180  19.775  24.179  18.818  0.0542 -0.2187 -0.2700
93087W        W36181  19.232  24.014  25.169 -0.1437 -0.0369  0.0345
93088W        W36182  19.363  22.790  21.793 -0.0540  0.0619  0.0275
93089W        W36183  20.449  22.161  20.609 -0.1048  0.0339  0.2041
93090W        W36184  20.979  25.128  23.803 -0.0327  0.1326  0.2819
93091W        W36185  21.637  24.438  22.167 -0.0679 -0.0590 -0.1934
93092W        W36186  20.971  22.323  19.666 -0.0808  0.3832 -0.1382
93093W        W36187  20.979  21.930  19.923 -0.5355  0.0804  0.1546
93094W        W36188  18.070  24.690  23.289 -0.1755  0.2081  0.0984
93095W        W36189  20.917  24.953  19.585  0.2001  0.1766  0.3056
93096W        W36190  18.622  23.570  21.897 -0.1142 -0.1312 -0.1095
93097W        W36191  21.082  22.219  18.354 -0.1298  0.1550  0.1661
93098W        W36192  22.651  25.751  20.004  0.1386  0.0485 -0.1908
93099W        W36193  18.517  23.772  19.927  0.1130  0.1068 -0.0880
93100W        W36194  20.280  24.699  24.961  0.1344  0.3378  0.0082
93101W        W36195  21.761  26.446  22.800 -0.1575 -0.1779  0.1484
93102W        W36196  20.974  21.422  21.484  0.2690 -0.2147 -0.0564
93103W        W36197  20.244  24.242  19.582 -0.1255  0.0422  0.2638
93104W        W36198  18.227  22.026  21.036  0.1182 -0.3075  0.0303
93105W        W36199  19.587  26.086  17.431  0.0125  0.0202  0.1636
93106W        W36200  22.157  21.409  22.424 -0.0602  0.1176  0.0081
93107W        W36201  21.585  23.337  21.155  0.2027  0.0099 -0.1070
93108W        W36202  21.321  22.093  24.165 -0.0677 -0.2757  0.2206
93109W        W36203  21.739  21.762  24.105  0.3912  0.1179 -0.0904
93110W        W36204  21.786  23.907  22.246 -0.0996 -0.2080 -0.3235
93111W        W36205  20.080  22.967  22.449  0.0638  0.1605 -0.0005
93112W        W36206  18.977  22.889  19.921  0.1840  0.0132 -0.2940
93113W        W36207  21.386  22.706  22.442  0.0561  0.2624 -0.0987
93114W        W36208  19.726  24.887  25.274  0.0128 -0.0562 -0.1195
93115W        W36209  19.352  24.445  22.071 -0.0299  0.0132 -0.1470
93116W        W36210  21.171  24.069  24.910  0.2899 -0.0614 -0.0659
93117W        W36211  21.767  23.978  20.147  0.3341 -0.2146 -0.2099
93118W        W36212  20.642  22.251  23.663  0.0186  0.2419 -0.0708
93119W        W36213  20.601  23.021  21.169  0.2004 -0.1143 -0.0438
93120W        W36214  18.122  25.417  21.384 -0.3296 -0.1459 -0.1150
93121W        W36215  20.161  24.903  20.190  0.2998 -0.0468  0.1519
93122W        W36216  20.427  23.014  22.999 -0.1721 -0.1703 -0.0571
93123W        W36217  19.738  24.670  23.609  0.0401 -0.0462  0.0357
93124W        W36218  20.887  25.353  20.305 -0.1564  0.2481 -0.2980
93125W        W36219  22.226  23.316  23.629 -0.1233  0.1773 -0.1475
93126W        W36220  18.134  24.181  21.370 -0.2400 -0.2860  0.0740
93127W        W36221  21.503  20.952  20.094 -0.0927  0.1481 -0.0413
93128W        W36222  19.558  24.077  20.501 -0.1314  0.1465  0.2467
93129W        W36223  18.167  22.622  20.546  0.2712  0.0845 -0.4728
93130W        W36224  20.129  22.711  21.073  0.0245 -0.1431 -0.0579
93131W        W36225  21.915  23.964  21.781 -0.0421  0.0805  0.0519
93132W        W36226  20.770  23.995  20.431  0.4844  0.3031 -0.1333
93133W        W36227  18.669  22.770  22.454 -0.3484  0.0190 -0.3372
93134W        W36228  19.970  23.169  20.902  0.0258 -0.1640  0.1183
93135W        W36229  18.857  24.908  21.059 -0.0764  0.0674  0.0056
93136W        W36230  20.738  22.800  22.119 -0.0536 -0.0542  0.0976
93137W        W36231  21.496  22.923  21.366  0.0632  0.1214  0.6051
93138W        W36232  20.216  24.591  22.618  0.0057 -0.0562 -0.2154
93139W        W36233  20.691  23.462  24.158 -0.1352 -0.3052  0.1798
93140W        W36234  20.121  22.499  20.538 -0.2073  0.1359 -0.1186
93141W        W36235  22.120  23.452  22.058  0.0495 -0.0326 -0.1356
93142W        W36236  20.524  22.563  19.735 -0.2264 -0.2875  0.1497
93143W        W36237  18.038  25.339  20.853 -0.1144 -0.1399 -0.0275
93144W        W36238  20.417  23.618  22.033 -0.3538  0.0714  0.1197
93145W        W36239  20.668  22.262  20.137  0.2217  0.3472  0.0892
93146W        W36240  18.739  23.942  20.450 -0.1261  0.2150  0.1740
93147W        W36241  20.274  23.560  23.246  0.0519  0.1745  0.2283
93148W        W36242  21.189  23.778  23.004 -0.0306  0.5891  0.0542
93149W        W36243  19.672  23.119  21.510 -0.2518 -0.4235  0.1374
93150W        W36244  20.146  22.678  19.470  0.0903 -0.0220 -0.0562
93151W        W36245  20.008  22.061  20.955 -0.1046 -0.1255  0.0885
93152W        W36246  21.064  25.838  23.544 -0.0113  0.0637 -0.2576
93153W        W36247  19.234  22.480  21.127 -0.1149 -0.0574  0.1011
93154W        W36248  20.400  23.790  24.482 -0.1494 -0.1274 -0.0239
93155W        W36249  20.774  22.331  21.921 -0.1607 -0.0084 -0.1561
93156W        W36250  20.520  25.918  21.713 -0.0743  0.0699 -0.1125
93157W        W36251  20.141  24.064  24.764  0.2276  0.1221 -0.0573
93158W        W36252  20.410  23.254  20.113  0.0045  0.1028 -0.0484
93159W        W36253  17.823  23.450  21.901  0.2187 -0.0860 -0.4468
93160W        W36254  19.527  23.913  21.169  0.2389  0.0066 -0.1815
93161W        W36255  20.822  22.052  23.201  0.2377 -0.0049 -0.1301
93162W        W36256  20.139  25.458  21.737 -0.2093 -0.0428  0.1449
93163W        W36257  19.287  25.087  21.393  0.0445 -0.0066 -0.3573
93164W        W36258  18.962  24.999  22.518 -0.3657  0.1906  0.3462
93165W        W36259  21.329  22.135  20.904  0.2071  0.0474  0.1694
93166W        W36260  21.940  25.338  19.805  0.2797 -0.3775 -0.0051
93167W        W36261  21.245  22.549  21.973 -0.1028 -0.1236  0.0371
93168W        W36262  22.732  21.337  23.237 -0.1350 -0.0231 -0.0228
93169W        W36263  21.049  23.841  19.672  0.0966  0.1189  0.2474
93170W        W36264  21.653  22.347  23.316 -0.1215 -0.3263 -0.1808
93171W        W36265  20.057  20.439  22.608 -0.2680  0.2066 -0.0364
93172W        W36266  20.285  23.096  21.887 -0.0064  0.1092 -0.1728
93173W        W36267  19.527  24.178  22.930  0.2992  0.0450  0.1432
93174W        W36268  19.247  25.381  23.690  0.4670 -0.2232 -0.1933
93175W        W36269  20.247  23.834  23.980 -0.0201 -0.0704 -0.1503
93176W        W36270  19.784  22.279  21.890 -0.2136  0.0500  0.1816
93177W        W36271  20.012  21.894  19.886 -0.2052  0.2349 -0.0122
93178W        W36272  21.713  23.103  20.627 -0.1069  0.1912  0.2211
93179W        W36273  22.115  24.254  22.548 -0.1468  0.1813  0.0347
93180W        W36274  19.744  25.056  19.834  0.4735 -0.0298  0.0511
93181W        W36275  22.718  23.787  22.270  0.2218  0.0725 -0.0185
93182W        W36276  19.774  24.439  21.850  0.2730 -0.3733 -0.2771
93183W        W36277  21.656  21.974  21.710  0.0199 -0.0822  0.2593
93184W        W36278  20.502  24.517  20.327  0.1534 -0.0200 -0.2522
93185W        W36279  19.131  23.311  21.741  0.0159 -0.1116 -0.3258
93186W        W36280  19.693  22.751  23.567  0.0756  0.2238 -0.2862
93187W        W36281  23.039  23.693  21.894 -0.2584  0.1403  0.0138
93188W        W36282  20.286  23.253  19.634 -0.0138  0.2538  0.1930
93189W        W36283  21.017  23.590  23.473  0.2291 -0.1591 -0.0083
93190W        W36284  21.378  22.814  23.041  0.2250 -0.1192  0.1728
93191W        W36285  20.342  23.383  22.721 -0.0114  0.0083 -0.1542
93192W        W36286  19.347  21.469  22.847  0.3846 -0.0077  0.3782
93193W        W36287  22.302  25.124  22.524 -0.2050 -0.3401 -0.3314
93194W        W36288  21.858  23.508  20.238 -0.1087 -0.1048 -0.0204
93195W        W36289  21.496  21.032  23.763 -0.3232  0.1488 -0.0043
93196W        W36290  21.845  22.587  21.525  0.2098 -0.1881  0.3099
93197W        W36291  21.240  23.014  22.023 -0.0797  0.0673 -0.0261
93198W        W36292  19.233  22.920  21.373  0.0471 -0.2649  0.0406
93199W        W36293  21.711  24.398  23.503 -0.3530  0.3923  0.0859
93200W        W36294  19.556  23.718  19.696 -0.1816  0.3109  0.1046
93201W        W36295  21.413  21.659  22.037  0.0032  0.0953  0.3244
93202W        W36296  19.162  24.271  20.727 -0.2433 -0.1926  0.2356
93203W        W36297  21.776  25.649  21.189 -0.2515  0.1813  0.0915
93204W        W36298  20.460  22.744  21.546  0.0717  0.1336 -0.3384
93205W        W36299  17.995  22.787  20.126 -0.0506  0.1083 -0.1699
93206W        W36300  18.990  24.724  20.641 -0.1293 -0.2097  0.1453
93207W        W36301  19.574  23.523  20.307  0.0953  0.0939  0.0347
93208W        W36302  21.337  22.697  19.813  0.1796 -0.2748  0.0250
93209W        W36303  19.873  23.576  21.262  0.1827  0.0096 -0.1054
93210W        W36304  22.154  21.129  24.242  0.2853  0.0648 -0.1323
93211W        W36305  20.864  23.041  20.538 -0.0279  0.1681 -0.0313
93212W        W36306  22.143  22.406  20.966 -0.1977  0.1435  0.0949
93213W        W36307  19.485  25.056  20.285 -0.0930 -0.1270 -0.4983
93214W        W36308  21.946  21.786  22.130 -0.1329  0.1961  0.0934
93215W        W36309  19.997  24.427  20.506  0.0964  0.0362 -0.2151
93216W        W36310  18.434  25.283  22.632  0.2745 -0.2752 -0.1486
93217W        W36311  19.065  23.726  22.227 -0.0712  0.0509 -0.3332
93218W        W36312  19.925  23.998  22.696 -0.0193  0.1499  0.0893
93219W        W36313  22.167  23.611  21.356 -0.1386 -0.3672 -0.0953
93220W        W36314  19.838  24.136  23.325  0.0283  0.5160 -0.0769
93221W        W36315  22.185  23.869  24.451 -0.3237  0.1357 -0.1610
93222W        W36316  20.289  24.150  22.991 -0.2494  0.1026 -0.1880
93223W        W36317  18.696  23.655  20.860  0.2040  0.2497  0.1665
93224W        W36318  19.909  24.507  22.995  0.0021  0.1126 -0.2150
93225W        W36319  21.809  24.535  21.666 -0.5785  0.2473  0.0001
93226W        W36320  18.886  25.440  22.663 -0.0721 -0.0905  0.5558
93227W        W36321  18.257  23.285  22.115  0.0998 -0.0944 -0.1338
93228W        W36322  21.174  24.051  23.966  0.1872  0.0948  0.2219
93229W        W36323  20.691  24.176  21.368 -0.2451  0.2542 -0.2941
93230W        W36324  18.501  21.891  21.422  0.0897 -0.0178  0.1506
93231W        W36325  21.029  24.714  20.029 -0.3135 -0.0939 -0.0612
93232W        W36326  18.554  24.221  24.517  0.3125  0.1738  0.1659
93233W        W36327  18.953  24.353  22.938  0.0092 -0.1240 -0.1070
93234W        W36328  19.786  25.350  20.699 -0.1097 -0.1089 -0.0561
93235W        W36329  21.476  25.276  20.034  0.0173 -0.2069 -0.3898
93236W        W36330  21.724  22.599  21.973  0.3536 -0.0663  0.0937
93237W        W36331  21.261  25.360  22.435  0.1661  0.1224  0.3464
93238W        W36332  20.641  23.507  20.542 -0.3557 -0.0596  0.0390
93239W        W36333  19.317  24.681  21.081 -0.0264  0.4105 -0.1596
93240W        W36334  18.453  24.591  19.917  0.3466 -0.2457  0.1128
93241W        W36335  20.483  25.618  20.198 -0.1958 -0.1205 -0.0303
93242W        W36336  18.560  25.287  21.194 -0.2332  0.1937 -0.0584
93243W        W36337  20.799  24.106  22.731 -0.0287  0.0160  0.0338
93244W        W36338  21.638  22.667  20.292 -0.3089  0.2862 -0.1197
93245W        W36339  23.077  23.387  20.074 -0.0237  0.1696  0.0045
93246W        W36340  22.265  21.920  20.930  0.1184  0.0114  0.0297
93247W        W36341  20.192  25.527  23.009  0.0408 -0.0572  0.2796
93248W        W36342  18.837  22.820  22.963 -0.1242  0.2706  0.2577
93249W        W36343  21.072  23.027  21.081 -0.0695 -0.0640  0.4161
93250W        W36344  17.805  22.442  23.096  0.0471  0.1293 -0.0666
93251W        W36345  21.235  20.856  23.009 -0.1761 -0.1116  0.2947
93252W        W36346  19.052  24.997  23.026  0.0873 -0.5678  0.1639
93253W        W36347  19.862  23.872  20.084  0.2124 -0.0790  0.1036
93254W        W36348  20.936  22.269  20.588  0.1751 -0.0468 -0.0777
93255W        W36349  19.204  23.720  20.567 -0.1601  0.0555  0.0967
93256W        W36350  21.907  20.890  22.304  0.4381 -0.0856 -0.2037
93257W        W36351  21.652  23.652  21.553 -0.1125  0.0546  0.0716
93258W        W36352  21.965  22.951  21.169  0.0886  0.0074 -0.1473
93259W        W36353  19.513  25.517  21.145  0.5617 -0.0319 -0.2318
93260W        W36354  19.932  25.413  22.620  0.0908 -0.0129 -0.3161
93261W        W36355  20.224  24.407  21.451 -0.2634 -0.3197  0.0714
93262W        W36356  19.436  22.599  20.320 -0.1618 -0.1141  0.1162
93263W        W36357  21.727  21.963  21.161 -0.2852  0.1482  0.0162
93264W        W36358  18.455  23.156  22.958 -0.1984  0.1317 -0.0321
93265W        W36359  21.567  22.075  22.310  0.0914  0.0850 -0.0837
93266W        W36360  18.495  23.227  20.981  0.0419  0.1859  0.1359
93267W        W36361  19.946  23.565  21.770 -0.2732  0.1280  0.1353
93268W        W36362  19.650  22.915  23.089 -0.0028  0.1377  0.1318
93269W        W36363  18.821  24.377  21.549  0.3197  0.0935 -0.2277
93270W        W36364  21.027  24.080  18.377  0.0585  0.0419  0.0163
93271W        W36365  22.214  25.049  23.085  0.2281  0.0446 -0.2063
93272W        W36366  22.372  23.260  21.137 -0.0261 -0.1683  0.0832
93273W        W36367  22.252  26.426  22.958 -0.1438  0.1151 -0.0079
93274W        W36368  18.607  22.348  20.474 -0.0220 -0.2489  0.2318
93275W        W36369  19.743  22.461  19.429  0.0865 -0.2540  0.0706
93276W        W36370  19.042  22.710  20.616  0.3777  0.2518  0.0985
93277W        W36371  20.012  24.028  22.117  0.0801 -0.0501 -0.3464
93278W        W36372  21.880  25.322  23.338 -0.1349  0.1093  0.2896
93279W        W36373  18.132  22.319  19.912 -0.1485  0.5069 -0.0898
93280W        W36374  22.545  25.746  19.414  0.0739 -0.1772 -0.1561
93281W        W36375  20.799  24.695  22.027  0.2293 -0.1793 -0.1417
93282W        W36376  20.049  25.426  20.229  0.1880 -0.0203  0.0840
93283W        W36377  21.646  22.533  21.050 -0.0581  0.3600  0.1147
93284W        W36378  20.921  24.268  21.834 -0.0181 -0.0095  0.1147
93285W        W36379  18.297  22.773  19.734  0.2865  0.3720  0.1333
93286W        W36380  19.005  27.133  23.893  0.0457 -0.0370 -0.0544
93287W        W36381  22.579  23.454  22.725 -0.0511  0.2464  0.1015
93288W        W36382  21.828  23.206  21.742 -0.4279  0.3347  0.0852
93289W        W36383  19.721  21.694  20.797 -0.0095  0.0785  0.0532
93290W        W36384  18.433  24.610  21.284 -0.2594 -0.1092 -0.1572
93291W        W36385  21.457  21.456  21.574 -0.1716  0.4776 -0.1571
93292W        W36386  21.806  21.727  22.662  0.1105  0.0052 -0.1312
93293W        W36387  20.043  26.230  19.434 -0.2289  0.2538 -0.1546
93294W        W36388  20.931  22.576  22.927 -0.3189  0.1001 -0.0042
93295W        W36389  20.335  23.847  22.457 -0.0893 -0.1831 -0.1501
93296W        W36390  18.565  23.695  23.917  0.3140  0.4820  0.3240
93297W        W36391  19.974  23.703  19.090 -0.1104 -0.1620  0.0579
93298W        W36392  19.118  24.601  23.991  0.0262 -0.1159 -0.0585
93299W        W36393  20.729  24.737  20.977  0.0525  0.1869 -0.0567
93300W        W36394  20.411  24.112  21.846 -0.2808 -0.0978 -0.2928
93301W        W36395  20.680  24.668  21.538  0.1830 -0.0263  0.2266
93302W        W36396  20.305  21.233  20.312 -0.0991 -0.0429  0.3402
93303W        W36397  21.240  23.811  22.490  0.2082 -0.1797 -0.1363
93304W        W36398  20.705  21.000  21.281  0.0022 -0.2569  0.0455
93305W        W36399  23.158  21.709  20.653  0.0328  0.0242 -0.0134
93306W        W36400  21.053  22.749  21.574  0.0181 -0.3297  0.1567
93307W        W36401  18.839  24.351  21.062  0.1827  0.2520  0.1886
93308W        W36402  19.589  23.340  19.266  0.3512 -0.0132 -0.3035
93309W        W36403  20.135  23.511  20.440 -0.0025 -0.2493  0.0999
93310W        W36404  18.366  24.801  20.824 -0.2126 -0.1302  0.4249
93311W        W36405  20.765  21.851  25.865 -0.3362  0.1805 -0.0422
93312W        W36406  18.462  23.730  23.347  0.0416  0.2163  0.2267
93313W        W36407  17.596  23.658  23.041  0.0617 -0.0561 -0.0558
93314W        W36408  20.387  22.327  21.236 -0.0851  0.1747  0.0684
93315W        W36409  21.497  24.725  21.244  0.4576 -0.0841 -0.0231
93316W        W36410  17.823  22.047  23.457  0.2306  0.1009  0.1773
93317W        W36411  18.322  22.266  21.871 -0.1853  0.0179 -0.0499
93318W        W36412  19.851  23.786  20.778 -0.2342 -0.0174 -0.0464
93319W        W36413  21.112  24.320  22.327  0.0502 -0.1909 -0.1416
93320W        W36414  19.268  21.901  20.076  0.0261 -0.1855 -0.0644
93321W        W36415  20.953  24.788  23.361 -0.3559 -0.2575  0.1848
93322W        W36416  17.952  25.092  19.424 -0.2760  0.2327  0.3560
93323W        W36417  21.737  23.062  23.428 -0.0428 -0.1271 -0.0489
93324W        W36418  20.174  22.128  23.762 -0.2657  0.2806  0.0053
93325W        W36419  17.939  23.190  19.598  0.1081 -0.0028  0.2206
93326W        W36420  20.775  23.622  22.647 -0.5611 -0.1978 -0.1366
93327W        W36421  20.761  23.182  21.769 -0.2441  0.2025  0.2772
93328W        W36422  20.179  23.958  21.087  0.1586 -0.0152  0.2054
93329W        W36423  19.688  24.427  22.461  0.2733 -0.3255 -0.3616
93330W        W36424  20.745  24.693  22.510  0.2029  0.1642  0.2521
93331W        W36425  19.191  22.969  23.348  0.1437 -0.1300 -0.0905
93332W        W36426  21.303  23.101  20.292  0.1211  0.1046  0.0318
93333W        W36427  20.563  23.619  23.639 -0.0339 -0.1765 -0.1674
93334W        W36428  21.836  24.873  19.845  0.0645  0.2927 -0.0288
93335W        W36429  22.111  19.963  23.367 -0.1002 -0.0333 -0.0851
93336W        W36430  21.081  23.422  20.805 -0.0075 -0.3921 -0.0423
93337W        W36431  19.204  22.520  22.204 -0.2560  0.0363  0.4361
93338W        W36432  20.197  24.404  23.924  0.0814 -0.0719 -0.0576
93339W        W36433  21.541  23.430  22.561  0.0716 -0.1120 -0.2414
93340W        W36434  17.610  22.485  20.340 -0.0689 -0.0729  0.0967
93341W        W36435  19.972  24.664  19.681  0.0259  0.2013 -0.3758
93342W        W36436  20.825  24.860  20.440  0.0420  0.0123  0.1085
93343W        W36437  19.264  23.126  20.434 -0.1286  0.3895  0.0284
93344W        W36438  20.386  23.106  20.635 -0.1953  0.0068 -0.1907
93345W        W36439  20.686  23.792  23.117 -0.1015  0.2548 -0.0225
93346W        W36440  20.367  25.161  22.684  0.2258  0.0472 -0.0511
93347W        W36441  21.726  23.825  22.918  0.3018  0.1668  0.1852
93348W        W36442  20.550  24.656  19.812  0.1374 -0.3847  0.1248
93349W        W36443  21.182  23.943  20.711  0.1095 -0.4168  0.0132
93350W        W36444  21.861  25.633  21.737  0.2552  0.0946 -0.2173
93351W        W36445  22.067  25.047  21.738  0.2911 -0.1506  0.0912
93352W        W36446  20.601  25.428  21.846 -0.1722  0.0233 -0.5966
93353W        W36447  19.918  23.584  22.282  0.0664 -0.1458  0.0497
93354W        W36448  18.909  22.031  21.776  0.0373 -0.3104 -0.1144
93355W        W36449  19.524  23.461  20.820 -0.1831 -0.5280 -0.0618
93356W        W36450  19.899  24.051  21.517 -0.2206  0.2396  0.3090
93357W        W36451  21.051  23.090  22.617 -0.2488  0.0597  0.4136
93358W        W36452  19.405  22.969  20.929 -0.0370 -0.1523 -0.0632
93359W        W36453  20.254  20.561  19.637  0.0140 -0.1165 -0.0442
93360W        W36454  19.541  25.834  22.763  0.0887 -0.1447  0.0946
93361W        W36455  22.289  24.535  21.791  0.0242 -0.1546 -0.1528
93362W        W36456  19.926  25.644  26.466  0.1356  0.2900  0.1011
93363W        W36457  19.317  21.917  25.931 -0.2174 -0.0887  0.0823
93364W        W36458  21.353  22.562  23.995  0.1130  0.0676 -0.1956
93365W        W36459  22.084  24.262  24.046  0.2639 -0.0767 -0.0833
93366W        W36460  18.824  21.786  26.059  0.0188 -0.3630  0.0128
93367W        W36461  21.958  25.958  23.071 -0.2004  0.2396  0.0408
93368W        W36462  18.777  21.133  25.432  0.0232 -0.0890 -0.0153
93369W        W36463  21.028  24.330  26.039 -0.2964  0.0349  0.0838
93370W        W36464  20.991  25.147  26.951  0.1660  0.1940  0.1084
93371W        W36465  22.084  24.872  24.813 -0.2381 -0.1615  0.2044
93372W        W36466  20.334  24.384  26.623 -0.3079  0.0982  0.0227
93373W        W36467  19.793  23.630  24.632 -0.1832 -0.0749 -0.0066
93374W        W36468  19.169  21.375  26.132  0.0288  0.1360 -0.0353
93375W        W36469  18.869  22.968  26.169 -0.0484 -0.0392 -0.0936
93376W        W36470  20.706  22.510  24.645  0.1749 -0.0655  0.2489
93377W        W36471  18.553  22.055  25.037 -0.2773 -0.2526 -0.1126
93378W        W36472  19.315  22.944  24.771 -0.2966  0.3502 -0.1216
93379W        W36473  21.680  22.992  24.433  0.0249 -0.0049  0.0574
93380W        W36474  20.343  26.678  25.089 -0.0972  0.0280 -0.4180
93381W        W36475  20.952  20.575  25.586 -0.3234 -0.1899 -0.0223
93382W        W36476  21.955  21.790  27.693 -0.1091 -0.1044 -0.0817
93383W        W36477  21.141  24.216  25.421 -0.0900 -0.0725 -0.0882
93384W        W36478  19.383  26.372  22.492 -0.3474  0.1872 -0.2158
93385W        W36479  19.178  22.623  25.290 -0.0025  0.2202 -0.0646
93386W        W36480  19.086  23.764  26.631 -0.1465  0.1472 -0.1181
93387W        W36481  21.103  21.319  25.071  0.0709 -0.1286 -0.2457
93388W        W36482  23.634  24.345  25.200 -0.0124  0.0152  0.0912
93389W        W36483  19.487  24.481  25.094  0.4656  0.1917  0.1514
93390W        W36484  21.164  24.869  25.220  0.1081 -0.0983  0.3850
93391W        W36485  20.324  23.792  27.301  0.1213 -0.0093 -0.0418
93392W        W36486  18.135  24.192  25.947  0.0533 -0.2258 -0.1593
93393W        W36487  18.291  26.511  25.492  0.2009 -0.2234 -0.2464
93394W        W36488  19.585  26.030  24.063  0.2564  0.0664  0.2002
93395W        W36489  21.830  26.243  23.503 -0.1309  0.1598 -0.0472
93396W        W36490  21.232  25.354  24.840  0.1071 -0.3510 -0.2080
93397W        W36491  19.700  24.653  28.058 -0.1903 -0.1620 -0.2978
93398W        W36492  17.198  25.838  23.934  0.0097 -0.0364 -0.3804
93399W        W36493  20.760  24.754  26.444 -0.0895 -0.0306  0.0834
93400W        W36494  18.776  24.148  26.658 -0.3877  0.0539 -0.0007
93401W        W36495  21.311  23.183  25.881  0.2325 -0.0935 -0.0701
93402W        W36496  20.720  24.230  24.063 -0.1192  0.4139  0.0514
93403W        W36497  18.368  25.132  24.568 -0.0048 -0.2769  0.0914
93404W        W36498  19.501  24.123  24.751 -0.1277 -0.0961 -0.1757
93405W        W36499  19.366  23.417  27.002 -0.2856 -0.1725  0.0776
93406W        W36500  18.963  25.603  24.962 -0.0606 -0.2986  0.3941
93407W        W36501  21.892  23.169  27.669 -0.1949 -0.3683  0.0911
93408W        W36502  18.821  24.904  25.770 -0.0600  0.1293 -0.0071
93409W        W36503  21.987  21.345  23.783  0.1609  0.2647 -0.2617
93410W        W36504  19.540  22.123  24.533  0.2966  0.0771  0.0223
93411W        W36505  21.005  22.080  24.670  0.2907  0.3023  0.0339
93412W        W36506  20.320  21.318  25.035  0.1941 -0.0208  0.1693
93413W        W36507  19.547  25.838  26.746 -0.1412 -0.0161 -0.1934
93414W        W36508  18.784  23.739  25.809  0.1619  0.4529  0.1841
93415W        W36509  21.671  24.237  26.734 -0.1059  0.2657  0.0794
93416W        W36510  19.751  23.116  25.000  0.0751 -0.2832 -0.2482
93417W        W36511  21.300  22.513  25.415  0.1575  0.2341 -0.1505
93418W        W36512  19.024  26.365  25.560  0.0178  0.2693  0.0532
93419W        W36513  19.876  23.492  24.124 -0.0836 -0.1360 -0.0560
93420W        W36514  22.479  25.454  25.065  0.0077 -0.0239 -0.3432
93421W        W36515  22.202  24.835  25.324 -0.1049  0.0728  0.0616
93422W        W36516  21.446  24.931  22.806  0.5278 -0.1988 -0.0814
93423W        W36517  19.925  23.679  23.605  0.0581  0.3349  0.1334
93424W        W36518  19.086  25.691  26.769  0.1373 -0.0289  0.0005
93425W        W36519  17.353  22.529  26.001 -0.2182 -0.2207  0.1953
93426W        W36520  18.794  23.302  23.244 -0.4153  0.3052 -0.1523
93427W        W36521  21.472  23.179  27.928  0.1613  0.0363  0.2433
93428W        W36522  19.513  24.238  25.983 -0.2251 -0.0292  0.1771
93429W        W36523  21.975  21.393  25.499 -0.1233 -0.0540  0.0851
93430W        W36524  19.241  24.161  24.328 -0.1399  0.2107  0.0155
93431W        W36525  20.440  26.397  25.956  0.0881  0.0393 -0.0186
93432W        W36526  19.899  25.613  24.659  0.1458  0.0093 -0.0101
93433W        W36527  21.751  21.192  25.920 -0.2477 -0.0151  0.1703
93434W        W36528  19.751  21.523  25.973 -0.0521 -0.1945  0.3070
93435W        W36529  21.184  23.076  23.422 -0.0155  0.1916  0.3097
93436W        W36530  20.891  23.226  23.080  0.0002  0.2783 -0.0073
93437W        W36531  21.627  25.245  26.375  0.1301 -0.1299  0.2705
93438W        W36532  20.490  24.059  25.218  0.1894  0.0235 -0.0075
93439W        W36533  18.425  25.795  25.859  0.1982  0.0845  0.1334
93440W        W36534  19.252  21.843  26.890 -0.2767 -0.2027 -0.1058
93441W        W36535  19.763  26.221  26.413  0.1003  0.3419  0.0164
93442W        W36536  19.791  24.588  24.159 -0.1778 -0.1993  0.1170
93443W        W36537  19.194  24.360  26.442 -0.2251  0.0691 -0.0502
93444W        W36538  17.936  24.847  24.494  0.0895 -0.0172 -0.0457
93445W        W36539  19.735  21.941  26.748 -0.3049  0.4539  0.1955
93446W        W36540  19.008  24.891  25.117  0.1133 -0.3481 -0.2476
93447W        W36541  21.167  22.608  24.591 -0.0145  0.3770 -0.1626
93448W        W36542  19.148  21.470  27.183  0.0567 -0.0619  0.2776
93449W        W36543  22.261  20.986  25.295  0.1664  0.5254  0.1548
93450W        W36544  18.610  25.228  25.011 -0.2032  0.0231 -0.3178
93451W        W36545  21.796  25.192  25.540  0.2807  0.2186 -0.5700
93452W        W36546  21.422  21.304  24.674 -0.0234  0.0002 -0.0374
93453W        W36547  21.203  24.848  22.378  0.4730  0.2532 -0.0607
93454W        W36548  17.838  22.650  26.140 -0.1030  0.1100 -0.0656
93455W        W36549  19.535  23.152  23.852  0.2541  0.0950 -0.0147
93456W        W36550  19.597  23.114  26.699  0.4002  0.0903 -0.2526
93457W        W36551  19.910  22.778  24.647 -0.0656  0.0037  0.2376
93458W        W36552  22.072  22.571  24.808  0.0538 -0.2220  0.1218
93459W        W36553  19.991  21.408  24.117 -0.0917 -0.2606  0.1637
93460W        W36554  21.021  22.382  25.047 -0.2939 -0.3241  0.0358
93461W        W36555  19.645  22.463  25.958  0.3520  0.0773 -0.2030
93462W        W36556  17.169  24.713  23.334  0.2654  0.1403 -0.1349
93463W        W36557  21.465  22.908  26.382  0.0523  0.1376  0.2650
93464W        W36558  18.877  25.264  25.398 -0.0330  0.2159 -0.1418
93465W        W36559  20.372  25.385  26.629 -0.0538  0.0251 -0.1543
93466W        W36560  20.698  25.027  24.981  0.0373 -0.0308  0.0189
93467W        W36561  20.465  22.542  25.966 -0.0942 -0.1203 -0.0744
93468W        W36562  20.012  23.196  23.465 -0.1152 -0.1062 -0.1551
93469W        W36563  19.939  26.636  25.933 -0.2028 -0.1920  0.0089
93470W        W36564  19.381  25.333  25.104  0.0283 -0.3038 -0.2349
93471W        W36565  19.801  21.356  25.027  0.1323 -0.0838 -0.1607
93472W        W36566  21.525  24.520  26.043 -0.1304  0.0614  0.2785
93473W        W36567  21.263  24.187  23.224  0.0902  0.1858  0.0186
93474W        W36568  18.975  24.438  25.323 -0.1836  0.1103  0.0595
93475W        W36569  20.476  21.972  27.532 -0.0823  0.0259 -0.0601
93476W        W36570  21.541  23.337  24.952  0.1160  0.0546 -0.2073
93477W        W36571  21.081  24.993  24.570  0.0473  0.0291 -0.0769
93478W        W36572  20.046  21.476  23.342 -0.1729 -0.3481  0.2112
93479W        W36573  21.674  25.455  24.629 -0.0003 -0.0583 -0.1938
93480W        W36574  19.764  24.506  25.672  0.2308 -0.0302 -0.1872
93481W        W36575  18.053  23.390  24.077  0.0889  0.4599 -0.0451
93482W        W36576  22.270  24.753  23.956  0.1864  0.0865 -0.0041
93483W        W36577  21.249  21.329  26.002  0.2520  0.2145 -0.2157
93484W        W36578  18.315  24.542  26.286 -0.1364 -0.4038 -0.1482
93485W        W36579  20.851  22.210  26.549  0.1258 -0.3860 -0.0456
93486W        W36580  18.805  22.518  23.764 -0.3946 -0.2924  0.0398
93487W        W36581  18.341  24.620  25.773 -0.2580  0.0390 -0.2338
93488W        W36582  20.470  23.554  26.328  0.0623 -0.2135 -0.1153
93489W        W36583  22.600  22.546  23.983 -0.2999  0.1303 -0.0435
93490W        W36584  21.292  22.467  26.498  0.1812  0.0123  0.1128
93491W        W36585  22.195  21.956  24.670  0.1481  0.4199 -0.0617
93492W        W36586  20.912  20.611  22.633  0.1154 -0.1404  0.1069
93493W        W36587  21.450  21.221  23.320  0.1526  0.2375  0.1248
93494W        W36588  18.132  25.140  26.154  0.0137  0.0394 -0.0065
93495W        W36589  19.164  23.840  22.895 -0.1039 -0.0591  0.2231
93496W        W36590  20.783  26.360  26.318 -0.0843  0.1758 -0.1801
93497W        W36591  20.869  21.894  24.067  0.1039 -0.0685  0.0604
93498W        W36592  23.310  25.108  25.474  0.1243 -0.3954 -0.1091
93499W        W36593  19.972  24.314  25.213 -0.2849 -0.0701  0.1252
93500W        W36594  19.960  23.364  26.310  0.1207  0.1953 -0.2265
93501W        W36595  19.880  25.494  25.276 -0.0166 -0.0353  0.3785
93502W        W36596  19.864  22.082  25.820 -0.1513  0.1891 -0.2575
93503W        W36597  21.221  23.237  23.883  0.0627  0.0226  0.0029
93504W        W36598  20.488  21.602  25.441 -0.0358 -0.0627  0.1102
93505W        W36599  18.708  25.132  24.204  0.2211 -0.2353  0.0225
93506W        W36600  22.092  21.573  26.604 -0.1565  0.1125 -0.0314
93507W        W36601  19.917  20.383  26.884  0.0835 -0.3445 -0.1879
93508W        W36602  20.388  20.260  25.843  0.0561 -0.3261 -0.0611
93509W        W36603  21.452  23.004  27.426 -0.4251  0.0110 -0.1526
93510W        W36604  21.380  23.776  25.390 -0.1761  0.1717  0.0572
93511W        W36605  20.473  23.436  25.327 -0.4174 -0.2140  0.0550
93512W        W36606  18.862  24.477  23.474 -0.0399  0.0818  0.0882
93513W        W36607  21.183  22.501  27.468 -0.0830 -0.1323 -0.0381
93514W        W36608  17.806  24.263  26.353 -0.0051 -0.2656  0.0322
93515W        W36609  18.568  25.984  25.359 -0.1957  0.0542  0.0459
93516W        W36610  20.452  23.116  26.103 -0.0593 -0.1529  0.3235
93517W        W36611  20.459  22.658  24.177  0.0966  0.2695  0.2893
93518W        W36612  20.377  20.437  24.908 -0.2106  0.0296  0.0116
93519W        W36613  20.903  22.840  23.949 -0.2195  0.1899  0.2675
93520W        W36614  18.447  24.665  24.769 -0.0027 -0.1142 -0.2465
93521W        W36615  20.724  22.762  23.345 -0.3338 -0.2598  0.1026
93522W        W36616  20.435  20.522  25.398 -0.2672  0.0217 -0.2330
93523W        W36617  20.392  26.162  25.085  0.0928  0.2518 -0.0663
93524W        W36618  19.932  22.890  23.985  0.0534 -0.1958 -0.1191
93525W        W36619  20.440  24.210  27.058  0.3666 -0.1570  0.1155
93526W        W36620  18.560  24.751  25.335 -0.0829  0.0559 -0.1163
93527W        W36621  21.300  20.125  25.446 -0.0904  0.0569 -0.0455
93528W        W36622  17.876  24.068  25.041 -0.1166  0.2388  0.0918
93529W        W36623  19.353  24.207  23.692 -0.0243  0.0825  0.0649
93530W        W36624  18.353  23.310  23.615  0.2286  0.2608  0.1005
93531W        W36625  20.621  22.739  25.141  0.3577  0.3025  0.1814
93532W        W36626  22.498  24.796  23.460  0.0698 -0.1547  0.1259
93533W        W36627  19.523  22.681  24.297 -0.1265 -0.0254  0.2602
93534W        W36628  20.808  21.942  25.299 -0.1039 -0.1605  0.1144
93535W        W36629  17.277  23.632  25.455  0.1450 -0.0247 -0.0807
93536W        W36630  22.964  24.815  25.716  0.2475  0.2165 -0.6083
93537W        W36631  20.993  21.522  24.532 -0.0709  0.0964  0.2235
93538W        W36632  21.654  23.561  25.749  0.2589  0.1493  0.0501
93539W        W36633  19.493  24.980  27.445 -0.0787  0.0917 -0.1060
93540W        W36634  17.732  22.359  21.597 -0.3093  0.1288 -0.0908
93541W        W36635  21.749  22.589  25.213 -0.1995 -0.0235  0.1754
93542W        W36636  20.168  23.362  25.733 -0.1198  0.0746 -0.2827
93543W        W36637  19.246  23.792  26.133 -0.1494  0.0786  0.4010
93544W        W36638  20.302  24.590  25.488 -0.0691 -0.0336  0.0792
93545W        W36639  20.426  22.139  25.627 -0.2257  0.3731  0.4119
93546W        W36640  18.889  24.605  24.409 -0.1499  0.1730 -0.0412
93547W        W36641  21.458  23.300  26.919  0.0966  0.2693 -0.2862
93548W        W36642  22.289  23.173  27.317 -0.1878 -0.1473  0.1828
93549W        W36643  19.317  23.688  25.618  0.1275  0.1618  0.0804
93550W        W36644  19.009  22.458  23.281  0.2212 -0.1801 -0.1602
93551W        W36645  20.684  24.347  25.673  0.1413  0.1867 -0.0571
93552W        W36646  22.266  23.389  25.840 -0.0137  0.2257  0.1496
93553W        W36647  20.157  22.294  26.659  0.2451 -0.1191  0.0172
93554W        W36648  19.135  25.158  25.975 -0.1463  0.0508  0.0166
93555W        W36649  20.049  20.944  24.665 -0.0180  0.1895  0.1850
93556W        W36650  22.106  27.061  24.074 -0.3959 -0.0535  0.1124
93557W        W36651  20.545  23.284  27.218 -0.0492  0.0509 -0.0761
93558W        W36652  19.047  22.942  24.336 -0.1530 -0.2476 -0.0870
93559W        W36653  18.565  23.553  24.956 -0.3224 -0.1260  0.3762
93560W        W36654  19.648  25.016  24.435  0.1928  0.0759  0.0582
93561W        W36655  20.960  22.863  26.641  0.0164  0.2000 -0.0924
93562W        W36656  18.868  26.173  26.788 -0.0388  0.1798  0.1659
93563W        W36657  19.506  24.608  23.184 -0.0723  0.0027 -0.1766
93564W        W36658  19.425  23.707  24.312 -0.0264  0.0654  0.2631
93565W        W36659  21.150  20.082  23.338 -0.0657 -0.1917 -0.0144
93566W        W36660  20.599  24.895  24.038  0.1345  0.2602  0.0443
93567W        W36661  21.086  21.795  26.272 -0.1036 -0.2525 -0.0780
93568W        W36662  21.404  20.772  25.365 -0.4458 -0.0840  0.2823
93569W        W36663  20.893  24.033  23.557  0.1931  0.1268  0.0703
93570W        W36664  22.224  22.109  28.806 -0.1214 -0.0275  0.0173
93571W        W36665  20.786  23.341  25.774 -0.0354  0.1693  0.1459
93572W        W36666  23.670  24.768  25.614  0.0188 -0.1246  0.0311
93573W        W36667  18.849  23.349  26.449  0.1006  0.1797 -0.0494
93574W        W36668  20.121  23.342  26.856 -0.2984  0.1180 -0.0869
93575W        W36669  17.925  23.680  26.312  0.1034  0.3945  0.1944
93576W        W36670  20.720  24.509  25.116 -0.2309 -0.1726  0.1490
93577W        W36671  20.421  22.129  24.243  0.3356  0.1990 -0.0622
93578W        W36672  20.014  24.946  25.767 -0.0480 -0.1618  0.1910
93579W        W36673  20.873  25.054  25.921  0.0741 -0.0484 -0.1583
93580W        W36674  21.196  24.442  23.666 -0.3546 -0.2562  0.0879
93581W        W36675  20.512  21.057  25.432  0.0166  0.1980  0.0786
93582W        W36676  20.137  23.641  24.992  0.0222 -0.2635 -0.0642
93583W        W36677  20.331  24.259  24.362 -0.1648 -0.0284  0.0111
93584W        W36678  20.626  23.571  24.876  0.2003  0.1501 -0.0145
93585W        W36679  19.475  23.674  23.841  0.0233 -0.0623  0.1499
93586W        W36680  19.254  22.781  26.472 -0.0827 -0.0936  0.0658
93587W        W36681  20.478  23.700  26.852  0.4591 -0.0898 -0.1241
93588W        W36682  21.171  23.751  25.858  0.0904  0.2785  0.0960
93589W        W36683  21.388  21.462  26.963  0.2320 -0.0328 -0.5060
93590W        W36684  20.533  23.118  28.423 -0.0318  0.4531 -0.0266
93591W        W36685  21.057  22.908  27.764  0.0773  0.0384 -0.0364
93592W        W36686  18.807  22.522  27.134 -0.0515 -0.2041  0.2766
93593W        W36687  21.235  25.863  25.656 -0.1959 -0.3272 -0.0855
93594W        W36688  21.933  23.358  24.215 -0.3566 -0.0629  0.0542
93595W        W36689  21.877  23.128  26.579  0.1657  0.0536  0.0311
93596W        W36690  22.697  23.849  25.656 -0.0763 -0.4339  0.1932
93597W        W36691  22.247  20.582  23.343 -0.1354  0.0737  0.0191
93598W        W36692  18.663  22.723  26.679  0.1964 -0.2647 -0.0349
93599W        W36693  20.809  22.215  27.724 -0.1588  0.1555 -0.1990
93600W        W36694  18.638  22.551  24.247 -0.3535  0.2470 -0.1403
93601W        W36695  21.394  22.799  26.943  0.0419  0.2044 -0.4247
93602W        W36696  19.188  24.973  24.277  0.0908 -0.1077 -0.0147
93603W        W36697  21.378  25.614  21.608 -0.0446 -0.1088 -0.1644
93604W        W36698  22.312  23.093  22.551  0.0572  0.1660 -0.0996
93605W        W36699  18.653  23.696  24.429  0.1191  0.1198 -0.0277
93606W        W36700  17.103  24.200  27.285 -0.0932 -0.4141 -0.0521
93607W        W36701  17.954  23.472  22.642 -0.0213 -0.2356 -0.1372
93608W        W36702  20.240  24.580  23.369 -0.2513 -0.0555 -0.0188
93609W        W36703  21.518  24.161  25.733 -0.1204 -0.0616  0.1064
93610W        W36704  20.756  24.073  26.712  0.3917 -0.1120 -0.1719
93611W        W36705  20.469  22.208  25.091  0.1772  0.0573 -0.0155
93612W        W36706  20.358  23.444  28.096 -0.0479  0.1113  0.3250
93613W        W36707  18.559  22.903  24.583 -0.1441  0.1848  0.1825
93614W        W36708  21.581  20.349  25.814  0.1300 -0.3678 -0.1841
93615W        W36709  20.305  24.658  26.017  0.2881 -0.0129  0.2333
93616W        W36710  17.942  24.232  26.941  0.0199 -0.1450 -0.0105
93617W        W36711  20.373  24.035  23.466 -0.1862 -0.1285 -0.0561
93618W        W36712  21.064  22.359  26.964  0.1511  0.2259  0.0263
93619W        W36713  22.193  23.797  25.625  0.0522  0.0078 -0.0825
93620W        W36714  21.162  24.408  26.574 -0.1974 -0.0170  0.1785
93621W        W36715  21.959  22.079  28.365  0.0742 -0.2231  0.0683
93622W        W36716  20.483  25.876  27.560  0.0228  0.0697  0.1283
93623W        W36717  18.776  23.919  25.282  0.0180 -0.1020  0.2369
93624W        W36718  19.803  23.788  25.903 -0.0961 -0.1643 -0.1600
93625W        W36719  22.958  23.360  25.392 -0.1955  0.1513 -0.1459
93626W        W36720  19.657  24.046  25.551  0.0843 -0.1306  0.2075
93627W        W36721  18.073  23.649  26.818 -0.0572  0.1225 -0.1825
93628W        W36722  19.400  23.329  27.580  0.1880  0.1671 -0.0946
93629W        W36723  21.995  24.398  25.787  0.2737  0.0323 -0.0395
93630W        W36724  19.873  21.603  24.630 -0.2375 -0.0006  0.0840
93631W        W36725  19.991  25.108  24.898 -0.2159  0.2809  0.0024
93632W        W36726  18.417  24.246  27.748 -0.1213  0.1317  0.1121
93633W        W36727  18.355  26.233  26.339  0.1779  0.1346  0.2006
93634W        W36728  19.329  24.643  24.651 -0.2786  0.1244  0.0371
93635W        W36729  22.669  23.830  24.659  0.0807  0.1643 -0.0624
93636W        W36730  21.481  24.319  24.480 -0.3225 -0.0692  0.1431
93637W        W36731  19.984  25.939  25.414 -0.0157  0.1245  0.0723
93638W        W36732  21.376  22.862  24.977 -0.0153 -0.0942  0.0291
93639W        W36733  19.231  24.745  25.615 -0.1341  0.0680 -0.1141
93640W        W36734  17.349  26.168  24.745  0.2985  0.0981  0.1339
93641W        W36735  20.139  26.472  23.177 -0.1891 -0.0088 -0.2824
93642W        W36736  20.465  25.381  25.698  0.0304  0.1859  0.1290
93643W        W36737  21.871  23.905  26.038 -0.4681 -0.1285  0.3835
93644W        W36738  21.024  20.998  24.661  0.1348  0.3054  0.0777
93645W        W36739  22.135  25.008  26.465 -0.2636 -0.0696 -0.1841
93646W        W36740  21.477  21.305  25.522 -0.0204  0.1089 -0.0498
93647W        W36741  19.307  24.198  26.878  0.2386 -0.3332 -0.2545
93648W        W36742  20.699  24.644  24.550 -0.1299 -0.0268 -0.0224
93649W        W36743  19.887  22.221  25.253  0.2015 -0.1176 -0.1680
93650W        W36744  19.081  23.334  25.858  0.0426 -0.0417 -0.4914
93651W        W36745  22.154  24.052  27.015  0.0159  0.0208  0.3836
93652W        W36746  17.091  24.947  26.109  0.0709 -0.0747  0.3800
93653W        W36747  20.098  24.922  23.815 -0.0338 -0.0064 -0.0999
93654W        W36748  19.990  22.418  24.209  0.2322  0.0765  0.2789
93655W        W36749  20.497  22.965  25.665  0.0926 -0.2685  0.1436
93656W        W36750  22.278  21.721  27.305  0.2801 -0.0507  0.3033
93657W        W36751  20.071  25.250  23.461  0.3685  0.3457 -0.1091
93658W        W36752  20.174  24.864  24.470 -0.3528  0.1750 -0.1164
93659W        W36753  19.060  25.754  25.445  0.0457  0.1862 -0.0641
93660W        W36754  19.613  25.830  26.157 -0.0114 -0.1749  0.0328
93661W        W36755  20.936  23.341  26.800  0.0565 -0.2194  0.1729
93662W        W36756  17.455  22.347  23.716 -0.0419  0.1613 -0.0476
93663W        W36757  21.757  22.309  26.015 -0.4529 -0.0511 -0.1632
93664W        W36758  21.021  21.577  25.604 -0.0240 -0.0766  0.1200
93665W        W36759  22.088  21.091  24.772 -0.1064  0.1294 -0.2212
93666W        W36760  21.190  23.143  24.401 -0.0431 -0.2519  0.0925
93667W        W36761  20.112  20.816  25.199  0.1504 -0.0453 -0.0305
93668W        W36762  21.394  23.820  27.165  0.0234 -0.0590  0.4481
93669W        W36763  19.353  21.747  26.438  0.1124 -0.2060  0.0705
93670W        W36764  22.233  23.787  23.963  0.2647 -0.2241 -0.2560
93671W        W36765  21.547  23.981  27.888  0.1729  0.0919 -0.0489
93672W        W36766  22.157  22.956  23.968 -0.3513  0.3229  0.1926
93673W        W36767  20.959  24.897  27.363 -0.1024  0.2401 -0.1502
93674W        W36768  19.822  22.121  23.438  0.0654  0.1180 -0.0228
93675W        W36769  20.411  21.142  23.603  0.0887  0.1069  0.1599
93676W        W36770  18.277  23.882  24.221  0.1526  0.1773 -0.0665
93677W        W36771  21.723  21.825  24.959  0.0363  0.4706  0.1118
93678W        W36772  21.096  25.116  27.768  0.0792 -0.2038 -0.1452
93679W        W36773  19.581  22.580  24.944  0.0216 -0.0661  0.1396
93680W        W36774  22.135  25.696  24.616 -0.1550  0.1514  0.1337
93681W        W36775  22.095  23.089  25.456  0.1130  0.2345 -0.1239
93682W        W36776  19.343  26.351  24.340  0.3849  0.0748 -0.2544
93683W        W36777  21.437  21.751  24.541  0.0204 -0.1841 -0.3005
93684W        W36778  20.357  26.683  26.366  0.1090  0.0785 -0.0149
93685W        W36779  18.385  23.161  26.621  0.1813  0.1170 -0.1047
93686W        W36780  20.762  25.786  26.518  0.1101  0.1190 -0.1898
93687W        W36781  22.774  25.133  26.712 -0.0882 -0.0868 -0.1237
93688W        W36782  20.171  23.114  24.344  0.0956 -0.2175 -0.0293
93689W        W36783  19.392  23.587  24.953 -0.5410  0.0895  0.0391
93690W        W36784  19.060  25.959  25.897 -0.0388  0.1810 -0.0427
93691W        W36785  21.830  23.061  26.079  0.4216 -0.1837  0.1360
93692W        W36786  21.188  21.819  27.856  0.1969  0.1661  0.2100
93693W        W36787  19.588  25.115  23.394 -0.3345 -0.1389 -0.0398
93694W        W36788  20.014  21.507  25.459 -0.3444  0.1283 -0.0177
93695W        W36789  19.809  24.117  24.374  0.0273 -0.0203  0.1699
93696W        W36790  19.207  25.761  28.112 -0.0086 -0.0503 -0.3363
93697W        W36791  18.917  24.002  23.301 -0.1508 -0.1659 -0.1374
93698W        W36792  19.613  23.307  25.901 -0.0836 -0.0935  0.2576
93699W        W36793  19.897  24.555  24.658 -0.0462  0.0999 -0.0620
93700W        W36794  18.670  24.795  23.844  0.2498  0.2193 -0.2522
93701W        W36795  20.049  25.339  24.251  0.1966  0.0684 -0.0437
93702W        W36796  20.956  23.113  25.044 -0.1563 -0.0343  0.0331
93703W        W36797  22.270  25.265  25.517  0.0611  0.1843  0.0272
93704W        W36798  20.628  23.037  24.540 -0.2907  0.1655 -0.3485
93705W        W36799  21.873  21.543  24.593  0.0678  0.2314 -0.1961
93706W        W36800  21.184  22.592  23.523 -0.1086 -0.2030 -0.1967
93707W        W36801  19.971  25.062  27.262  0.1461 -0.0084  0.1859
93708W        W36802  18.350  24.318  23.439 -0.3411 -0.4374  0.0535
93709W        W36803  17.581  24.545  24.022  0.0078  0.2159 -0.0661
93710W        W36804  19.424  25.225  25.570 -0.0797 -0.3178 -0.2959
93711W        W36805  20.493  20.987  27.229 -0.0916 -0.0268  0.0264
93712W        W36806  19.632  22.465  26.501  0.3771 -0.0543  0.4386
93713W        W36807  17.793  23.645  24.635  0.3208  0.1649 -0.0210
93714W        W36808  20.697  23.161  23.637 -0.2780 -0.3387 -0.0201
93715W        W36809  21.584  26.121  24.305  0.0700  0.2854 -0.2179
93716W        W36810  20.177  22.578  25.532  0.3082 -0.0401 -0.0559
93717W        W36811  20.082  23.034  25.367 -0.2572 -0.1701  0.0009
93718W        W36812  21.297  25.599  24.160  0.2363  0.0963 -0.0511
93719W        W36813  21.522  24.407  25.087 -0.1019 -0.0564 -0.0968
93720W        W36814  20.121  21.801  25.083  0.0562  0.0145  0.2106
93721W        W36815  21.149  23.804  26.685  0.0842  0.1266 -0.2391
93722W        W36816  16.818  24.883  23.749  0.0676 -0.0456  0.2746
93723W        W36817  20.020  22.904  25.892 -0.0807 -0.2162 -0.1462
93724W        W36818  19.634  19.844  26.848 -0.1798 -0.0267  0.0107
93725W        W36819  18.544  21.663  23.998  0.0014  0.4248 -0.1439
93726W        W36820  22.235  22.599  25.307 -0.2972  0.3087  0.1798
93727W        W36821  20.421  26.469  24.665 -0.5590 -0.0044  0.0682
93728W        W36822  21.276  26.041  25.224 -0.1106 -0.0055  0.0401
93729W        W36823  20.152  23.828  25.515 -0.0366  0.0302  0.2485
93730W        W36824  18.707  25.523  27.668 -0.1665 -0.1276 -0.0201
93731W        W36825  19.104  20.834  26.151 -0.0783  0.1036 -0.0849
93732W        W36826  21.694  23.940  24.873  0.0830  0.0096  0.1323
93733W        W36827  17.611  23.851  26.818 -0.3229  0.0319  0.2609
93734W        W36828  22.716  25.094  25.413 -0.2210  0.3129 -0.1361
93735W        W36829  22.740  22.278  25.793 -0.0743 -0.1594  0.2727
93736W        W36830  19.288  22.619  23.853 -0.2713 -0.0497  0.1883
93737W        W36831  18.060  22.689  26.644  0.0703 -0.0939  0.1735
93738W        W36832  19.095  25.496  27.376  0.0634 -0.1852 -0.1187
93739W        W36833  20.641  23.861  25.810  0.0493  0.1606 -0.0374
93740W        W36834  19.309  21.580  24.632 -0.1275  0.2069  0.0924
93741W        W36835  21.534  23.557  24.480  0.0412 -0.1176  0.2771
93742W        W36836  19.336  26.326  23.750 -0.2026 -0.1424 -0.1093
93743W        W36837  18.773  24.444  27.199  0.0359  0.0068 -0.3273
93744W        W36838  20.923  23.900  24.391 -0.3221 -0.1455  0.0599
93745W        W36839  20.993  23.324  26.278  0.0857  0.0398 -0.0389
93746W        W36840  19.722  23.864  25.092  0.0992 -0.4741 -0.1173
93747W        W36841  20.885  22.855  26.078 -0.2124  0.3332  0.0048
93748W        W36842  19.805  24.131  23.828 -0.0024 -0.3315  0.2215
93749W        W36843  21.701  23.903  24.126  0.0589 -0.1288  0.0315
93750W        W36844  20.420  25.660  26.140 -0.1160  0.0102 -0.2370
93751W        W36845  21.526  25.117  27.338  0.0314 -0.1151  0.1843
93752W        W36846  20.419  25.975  25.677  0.1661 -0.0237  0.1310
93753W        W36847  20.142  23.952  26.355  0.0053  0.2209 -0.2091
93754W        W36848  20.062  22.503  26.219  0.0725  0.1429 -0.2020
93755W        W36849  18.871  22.626  24.826 -0.0377  0.1121  0.1139
93756W        W36850  18.565  24.193  23.893 -0.0708 -0.1687  0.0858
93757W        W36851  21.295  22.663  25.973  0.0493  0.0212  0.1413
93758W        W36852  19.416  23.220  25.366 -0.1021 -0.1275  0.0130
93759W        W36853  20.668  20.776  23.899 -0.1289 -0.0481  0.1949
93760W        W36854  19.194  26.031  26.409  0.3544  0.1535  0.2060
93761W        W36855  20.284  25.179  26.124 -0.1059 -0.1538  0.0805
93762W        W36856  20.907  25.883  30.288  0.1139  0.0316  0.0353
93763W        W36857  19.576  22.850  27.259 -0.2308 -0.0554 -0.0512
93764W        W36858  20.735  22.642  28.135  0.3262 -0.4653 -0.0089
93765W        W36859  20.061  24.578  27.151 -0.1906 -0.1179 -0.0597
93766W        W36860  17.933  23.182  27.646 -0.0877 -0.1558 -0.0115
93767W        W36861  21.142  25.433  27.270 -0.2135 -0.1740 -0.1222
93768W        W36862  17.619  20.093  31.025  0.1256  0.2593 -0.1243
93769W        W36863  21.518  25.471  28.008 -0.2113  0.2581  0.2436
93770W        W36864  21.234  24.240  29.725  0.1395  0.0665 -0.0294
93771W        W36865  19.647  24.030  26.425  0.3164 -0.1474  0.2968
93772W        W36866  18.644  23.191  29.979 -0.0589 -0.0732  0.0103
93773W        W36867  19.554  24.242  28.336  0.1374  0.5418  0.0523
93774W        W36868  18.919  23.473  28.738 -0.3002  0.2590  0.0022
93775W        W36869  18.760  21.786  28.706  0.0583 -0.3727  0.1021
93776W        W36870  21.104  23.846  27.692  0.1272  0.0700 -0.1725
93777W        W36871  18.803  24.651  26.600  0.1126  0.0813 -0.0225
93778W        W36872  18.818  22.357  28.912 -0.1321 -0.0421 -0.0719
93779W        W36873  19.250  25.145  27.836 -0.1958  0.1651 -0.1062
93780W        W36874  20.821  25.970  28.957 -0.1585 -0.1109 -0.1578
93781W        W36875  19.205  21.450  30.368  0.0695 -0.1478 -0.0992
93782W        W36876  18.807  21.027  30.797  0.0528 -0.0933  0.0928
93783W        W36877  18.394  24.605  28.461  0.1649  0.3944 -0.0903
93784W        W36878  18.234  24.091  26.524 -0.1518 -0.3822  0.3411
93785W        W36879  19.043  24.330  30.274  0.1247 -0.1764  0.0534
93786W        W36880  19.583  23.780  29.803 -0.1106  0.0273  0.0747
93787W        W36881  19.691  23.460  30.974  0.0499 -0.1364 -0.0412
93788W        W36882  21.312  23.504  29.277  0.1712  0.1247  0.0269
93789W        W36883  18.832  24.414  28.315  0.1925 -0.1472 -0.3586
93790W        W36884  19.003  25.270  29.440  0.0557  0.0640  0.0271
93791W        W36885  20.593  23.734  31.434 -0.3344  0.1532 -0.3121
93792W        W36886  17.001  23.897  28.827  0.1102 -0.4079  0.2068
93793W        W36887  17.798  26.296  29.543  0.0148  0.2511  0.1319
93794W        W36888  19.951  25.077  28.279  0.2861 -0.1326  0.1659
93795W        W36889  21.493  24.854  29.559 -0.2491  0.2507  0.2292
93796W        W36890  21.551  25.217  29.933 -0.1722  0.2322  0.0707
93797W        W36891  20.545  26.682  30.121  0.2772  0.0301 -0.2387
93798W        W36892  17.245  23.625  25.946 -0.0363 -0.2266 -0.1627
93799W        W36893  21.031  26.801  29.992  0.0196 -0.0471 -0.0076
93800W        W36894  19.184  25.301  30.428  0.0625  0.2517 -0.1301
93801W        W36895  19.568  23.688  28.440  0.2326  0.0269 -0.1546
93802W        W36896  19.399  23.695  27.916  0.0450 -0.3653 -0.1065
93803W        W36897  18.717  25.209  29.036 -0.0399  0.3597 -0.1186
93804W        W36898  20.800  23.986  29.569 -0.2301  0.2956 -0.0121
93805W        W36899  18.575  23.897  30.438  0.1620  0.1166 -0.4366
93806W        W36900  18.670  23.658  29.654  0.1155  0.2746 -0.2608
93807W        W36901  20.449  22.832  31.254  0.1370  0.2949 -0.1216
93808W        W36902  18.714  26.105  29.462  0.1154  0.0394 -0.2939
93809W        W36903  20.538  22.966  29.035 -0.1090 -0.0467  0.2438
93810W        W36904  19.566  23.833  27.173  0.0232  0.3313 -0.1295
93811W        W36905  20.376  22.429  28.413 -0.0403 -0.0197 -0.1564
93812W        W36906  19.238  21.813  31.201 -0.1632 -0.0880  0.0226
93813W        W36907  20.216  26.337  30.459 -0.0172  0.2018 -0.2891
93814W        W36908  18.980  21.298  29.672  0.1022 -0.1031 -0.2908
93815W        W36909  21.532  24.560  30.124 -0.3116  0.0981 -0.0843
93816W        W36910  19.682  24.233  27.823  0.1558  0.0461  0.0313
93817W        W36911  19.642  23.480  29.395  0.0609 -0.1315  0.2248
93818W        W36912  19.984  25.481  29.804 -0.3218 -0.2379 -0.1008
93819W        W36913  17.894  23.605  28.773  0.0163 -0.2555  0.0955
93820W        W36914  20.704  24.483  27.910 -0.3969 -0.0989  0.1990
93821W        W36915  22.581  25.752  29.208  0.0239 -0.0104 -0.0343
93822W        W36916  21.420  23.997  26.255 -0.1054  0.1247  0.1800
93823W        W36917  20.101  22.863  27.342 -0.0547 -0.0900 -0.0487
93824W        W36918  19.155  23.541  30.951 -0.1756  0.1261 -0.0114
93825W        W36919  19.403  24.463  29.249 -0.1061  0.1793 -0.4808
93826W        W36920  19.513  21.067  26.387 -0.1105 -0.3139  0.0694
93827W        W36921  20.878  22.676  29.765 -0.4677  0.1787  0.0303
93828W        W36922  17.089  23.458  31.725 -0.4235 -0.1545  0.0666
93829W        W36923  21.461  23.123  28.437 -0.0531  0.0508 -0.2035
93830W        W36924  19.063  25.002  28.759  0.1878 -0.1908  0.1050
93831W        W36925  20.442  24.065  29.254 -0.1661 -0.1391  0.0191
93832W        W36926  21.245  24.658  28.682  0.1174 -0.0322  0.0018
93833W        W36927  21.004  22.206  29.290  0.2214 -0.2872 -0.1723
93834W        W36928  19.733  21.574  31.150  0.0680 -0.0164 -0.1100
93835W        W36929  18.604  23.827  27.528 -0.0177  0.2392  0.0936
93836W        W36930  19.515  25.414  27.088  0.1756 -0.1336 -0.0186
93837W        W36931  19.778  22.984  30.727 -0.2082  0.0389 -0.4416
93838W        W36932  20.633  22.786  27.500  0.1721  0.1634 -0.1771
93839W        W36933  19.170  26.254  29.601 -0.0042  0.0827  0.0309
93840W        W36934  19.878  21.950  30.672 -0.1402 -0.0585 -0.0453
93841W        W36935  19.862  25.246  31.003 -0.0968  0.2698  0.1649
93842W        W36936  16.479  24.444  28.098 -0.1940 -0.3164  0.3895
93843W        W36937  18.237  24.110  28.561 -0.3439 -0.0911 -0.1319
93844W        W36938  18.428  25.822  26.817 -0.2262  0.1531  0.1584
93845W        W36939  17.778  21.219  30.819  0.2117  0.0551 -0.1668
93846W        W36940  19.455  24.940  30.819 -0.0510  0.0529  0.0851
93847W        W36941  20.693  22.434  28.885  0.3983 -0.0636 -0.1493
93848W        W36942  18.311  21.690  30.948  0.1628 -0.2438  0.0536
93849W        W36943  22.269  22.091  29.300  0.3091  0.2745 -0.0237
93850W        W36944  17.132  23.438  27.310  0.4099  0.2278 -0.0609
93851W        W36945  21.594  26.164  28.668  0.2015 -0.2124  0.2005
93852W        W36946  20.370  23.063  27.806 -0.1818 -0.0912 -0.2638
93853W        W36947  20.645  24.058  27.605  0.2017  0.1220 -0.0113
93854W        W36948  18.159  23.293  29.161 -0.0547  0.1795 -0.0923
93855W        W36949  18.584  23.088  27.349  0.1996  0.0953 -0.0663
93856W        W36950  19.847  22.574  29.446  0.0921 -0.1513  0.1026
93857W        W36951  16.986  21.272  29.316  0.1958  0.2984  0.0097
93858W        W36952  19.496  23.329  29.935  0.1824 -0.2579  0.2322
93859W        W36953  18.617  22.704  28.472  0.2315  0.0253  0.0605
93860W        W36954  21.311  21.249  30.711  0.2774 -0.3856  0.1046
93861W        W36955  18.394  23.945  27.028  0.0070  0.1596 -0.2742
93862W        W36956  17.417  23.183  27.742 -0.1373  0.3454 -0.0757
93863W        W36957  21.596  22.318  30.966 -0.2076  0.1248  0.1035
93864W        W36958  19.097  24.205  27.494  0.1409  0.1966 -0.0083
93865W        W36959  20.875  24.351  30.213  0.0712  0.0325  0.2719
93866W        W36960  21.619  24.994  27.910  0.1505  0.3211 -0.0445
93867W        W36961  19.305  24.798  28.278  0.0919  0.0764 -0.0477
93868W        W36962  19.830  22.547  26.976  0.0521 -0.0520  0.2285
93869W        W36963  17.347  26.015  29.600 -0.4901  0.0973 -0.0051
93870W        W36964  20.737  25.612  31.016  0.1130 -0.0516 -0.2407
93871W        W36965  19.702  23.643  26.713  0.2708  0.0961  0.0752
93872W        W36966  22.913  26.063  29.595  0.2432  0.2179 -0.2569
93873W        W36967  19.701  24.467  26.723 -0.1150 -0.2016  0.2630
93874W        W36968  17.900  25.364  30.839  0.1411  0.0245 -0.0686
93875W        W36969  21.369  21.891  30.807 -0.1075 -0.5267  0.0732
93876W        W36970  22.154  23.119  30.901 -0.2303  0.1370  0.1600
93877W        W36971  20.041  24.164  27.419  0.0531  0.1974  0.0223
93878W        W36972  19.208  21.975  27.351 -0.3118 -0.2213  0.1384
93879W        W36973  19.998  25.489  29.300  0.2326 -0.2294 -0.0587
93880W        W36974  18.032  24.545  27.990 -0.0411  0.0720  0.1295
93881W        W36975  16.795  22.874  28.241  0.0787 -0.2598  0.0747
93882W        W36976  19.940  25.303  27.802  0.0898  0.0970 -0.1949
93883W        W36977  20.419  21.699  28.935  0.0982  0.0414 -0.0894
93884W        W36978  19.822  22.897  29.819 -0.0564 -0.3741 -0.3960
93885W        W36979  20.762  22.879  30.460 -0.0406 -0.1461  0.3042
93886W        W36980  19.345  22.470  26.942 -0.0495  0.0387 -0.2738
93887W        W36981  19.844  24.856  29.072 -0.0399  0.3314 -0.1651
93888W        W36982  19.674  21.988  28.718  0.1095  0.1908  0.0784
93889W        W36983  20.156  22.816  28.640 -0.3804 -0.0204  0.1614
93890W        W36984  20.629  24.810  30.154 -0.0311  0.1780  0.0917
93891W        W36985  21.558  24.263  28.891  0.0172  0.4707  0.1973
93892W        W36986  18.752  21.727  27.468  0.1133  0.2372 -0.2680
93893W        W36987  20.547  22.790  27.000  0.0973  0.0440  0.2323
93894W        W36988  19.134  24.910  31.765  0.1830  0.0071 -0.1451
93895W        W36989  21.470  23.810  29.639 -0.2237 -0.0726 -0.2344
93896W        W36990  20.465  24.271  28.670 -0.2942  0.0952  0.1683
93897W        W36991  20.081  21.139  26.919  0.2374 -0.1423  0.0243
93898W        W36992  20.694  25.657  28.582 -0.3147 -0.1231 -0.2167
93899W        W36993  18.974  24.380  30.762  0.1997  0.1581  0.1279
93900W        W36994  20.201  24.738  30.458 -0.2064  0.0612  0.1286
93901W        W36995  20.667  25.328  27.428  0.1448  0.1195 -0.1177
93902W        W36996  18.515  21.958  29.839 -0.0133  0.0834  0.0547
93903W        W36997  18.670  23.382  26.924  0.0057 -0.1775 -0.1163
93904W        W36998  19.417  23.257  28.143  0.2147  0.0856 -0.2503
93905W        W36999  17.369  23.962  26.338 -0.0729 -0.2348 -0.2447
93906W        W37000  21.059  22.206  29.843 -0.0672  0.5593  0.0502
93907W        W37001  20.788  23.187  30.020 -0.3085 -0.2578  0.0073
93908W        W37002  20.231  22.208  30.481  0.0161 -0.0829 -0.0168
93909W        W37003  20.621  23.968  30.098  0.2591  0.0584 -0.1394
93910W        W37004  20.032  23.031  29.340  0.1227  0.1454 -0.3565
93911W        W37005  19.776  21.698  30.152  0.5321  0.2181  0.1046
93912W        W37006  18.127  23.216  26.105 -0.3015  0.2632 -0.1903
93913W        W37007  19.473  22.120  29.928  0.1774  0.0611  0.0530
93914W        W37008  18.954  24.200  29.491 -0.2131 -0.1191  0.1072
93915W        W37009  16.957  23.738  29.294 -0.2287 -0.0906 -0.0058
93916W        W37010  20.542  26.506  30.832 -0.3566  0.0449 -0.0295
93917W        W37011  20.803  24.595  28.891 -0.1014  0.2242 -0.1215
93918W        W37012  20.357  22.601   0.248  0.2987 -0.2474 -0.0036
93919W        W37013  20.553  21.973  26.920 -0.0579 -0.0892  0.0174
93920W        W37014  19.055  25.486  28.560 -0.3525  0.2195  0.0121
93921W        W37015  18.957  23.926  27.108 -0.0348 -0.1223 -0.1228
93922W        W37016  19.551  22.332  29.098 -0.2252 -0.0578  0.1725
93923W        W37017  19.744  24.751  29.570 -0.0075 -0.2252  0.1858
93924W        W37018  19.077  25.144  26.930  0.0376  0.1133  0.0510
93925W        W37019  19.807  24.263  29.713  0.2111 -0.3674  0.1322
93926W        W37020  19.208  25.730  29.509 -0.1199  0.0875  0.4211
93927W        W37021  21.689  21.129  29.546  0.1297 -0.1604  0.1817
93928W        W37022  17.152  24.453  28.737  0.0561  0.2410  0.0925
93929W        W37023  19.317  23.366  26.391 -0.1947  0.2114  0.2620
93930W        W37024  19.299  24.846  26.495  0.2113  0.2540  0.2498
93931W        W37025  21.428  22.703  28.724  0.1760  0.2347 -0.0542
93932W        W37026  20.255  23.472  29.321  0.2688  0.1537  0.0217
93933W        W37027  19.256  22.736  29.084  0.2922 -0.0058  0.0914
93934W        W37028  19.085  23.601  28.267  0.0187 -0.1388 -0.1104
93935W        W37029  19.270  24.766  30.362 -0.0933 -0.2412  0.2424
93936W        W37030  21.677  22.535  30.489 -0.1188  0.1312  0.2637
93937W        W37031  20.324  22.501  27.688 -0.0728 -0.0197  0.0933
93938W        W37032  18.835  23.331  31.305  0.2747  0.3172  0.1504
93939W        W37033  19.850  24.674  30.945  0.0597  0.2160  0.1852
93940W        W37034  18.770  21.128  26.997 -0.1097 -0.3057  0.2076
93941W        W37035  19.473  23.032  29.416  0.0161 -0.2038 -0.0929
93942W        W37036  18.985  23.426  27.273 -0.1039 -0.0357  0.2970
93943W        W37037  19.325  25.432  29.066  0.0538 -0.3130 -0.1726
93944W        W37038  21.932  26.248  29.618 -0.0008  0.2747  0.1671
93945W        W37039  20.573  23.572  27.665 -0.2569 -0.0528 -0.0352
93946W        W37040  18.893  25.663  29.129 -0.1932 -0.4052 -0.1200
93947W        W37041  18.761  24.055  29.915 -0.0023 -0.4095  0.4113
93948W        W37042  19.992  24.311  29.281 -0.2568 -0.5423 -0.3416
93949W        W37043  18.774  23.911  28.549 -0.0697  0.2544  0.0732
93950W        W37044  18.905  22.688  27.887  0.1358  0.1722 -0.1039
93951W        W37045  20.493  22.301  29.869  0.2002 -0.0995 -0.0251
93952W        W37046  21.538  23.003  30.104 -0.0687 -0.0298 -0.0434
93953W        W37047  20.374  22.776  30.089  0.2313 -0.3700  0.1871
93954W        W37048  19.033  25.755  30.219  0.2327 -0.0825  0.1984
93955W        W37049  20.679  22.377  30.374 -0.0444 -0.1330  0.0661
93956W        W37050  22.656  25.640  28.524 -0.2845  0.0651 -0.1816
93957W        W37051  19.679  23.631  28.912  0.5132 -0.0561 -0.2758
93958W        W37052  17.805  23.571  27.280  0.1785  0.2434 -0.2296
93959W        W37053  18.135  24.686  30.698 -0.2168 -0.3417  0.2445
93960W        W37054  19.534  25.058  28.706 -0.3497  0.1224 -0.1897
93961W        W37055  19.466  22.787  30.280  0.1770 -0.2078  0.2430
93962W        W37056  17.461  23.663  29.793 -0.2186 -0.3578 -0.1391
93963W        W37057  20.185  24.834  26.709  0.1011  0.1148 -0.2104
93964W        W37058  18.227  24.787  29.888 -0.0336  0.0588 -0.1139
93965W        W37059  19.506  22.118  27.750  0.3075 -0.0289  0.2308
93966W        W37060  19.878  24.662  27.584  0.1556  0.1619 -0.0518
93967W        W37061  20.483  22.063  29.225  0.0873 -0.0373  0.0531
93968W        W37062  22.118  23.116  31.453  0.4284  0.0113  0.0256
93969W        W37063  19.540  24.817  26.014 -0.2041  0.0900 -0.0767
93970W        W37064  21.329  22.438  31.956  0.1815  0.4586  0.1309
93971W        W37065  19.217  22.196  29.444  0.0420 -0.1027  0.0502
93972W        W37066  21.717  25.869  28.218  0.1766  0.0468  0.3584
93973W        W37067  18.294  21.178  30.819  0.1893  0.4514  0.0365
93974W        W37068  20.068  25.355  31.471  0.0993 -0.0060  0.0500
93975W        W37069  18.978  22.934  28.727  0.2408  0.3303 -0.0376
93976W        W37070  19.780  23.376  27.237  0.1033 -0.2616  0.1499
93977W        W37071  20.314  21.708  25.959  0.0229 -0.2749 -0.2525
93978W        W37072  18.879  24.803  30.058 -0.2707  0.0284  0.0347
93979W        W37073  21.764  24.742  29.153  0.2705 -0.0958 -0.3802
93980W        W37074  20.454  24.490  27.483  0.1806  0.1501  0.0675
93981W        W37075  19.267  23.806  28.856  0.2000 -0.1764 -0.2012
93982W        W37076  17.528  23.987  28.658  0.0020  0.1313  0.2513
93983W        W37077  20.977  23.267  28.113 -0.1343 -0.2045  0.1830
93984W        W37078  19.544  24.471  27.285 -0.0641  0.0561  0.2258
93985W        W37079  17.957  24.077  28.980 -0.1382  0.0236  0.1486
93986W        W37080  18.661  21.482  30.022 -0.0336 -0.2140 -0.0292
93987W        W37081  19.906  24.631  28.584  0.3257 -0.1680 -0.0678
93988W        W37082  19.671  22.779  28.247 -0.1926 -0.1753 -0.0295
93989W        W37083  21.110  22.101  30.424  0.0601 -0.2870  0.1236
93990W        W37084  21.498  23.499  30.031 -0.0227  0.0496  0.1162
93991W        W37085  20.529  23.037   0.109 -0.3592  0.1217 -0.0307
93992W        W37086  20.061  22.809  31.682 -0.0129 -0.2282 -0.4682
93993W        W37087  23.330  26.719  31.312  0.1746 -0.1501 -0.2502
93994W        W37088  21.200  22.242  28.825  0.1823 -0.2091  0.0383
93995W        W37089  20.960  22.842  28.514  0.0029  0.0629 -0.0971
93996W        W37090  21.834  23.480  28.556 -0.3636 -0.1573  0.2770
93997W        W37091  19.867  23.264  28.324 -0.1587  0.3076 -0.2999
93998W        W37092  18.700  23.971  28.037 -0.4168 -0.0100  0.1998
93999W        W37093  20.529  23.840  30.978 -0.1746  0.1767 -0.3329
94000W        W37094  19.268  22.506  27.458  0.1577  0.0612  0.1089
94001W        W37095  20.406  23.187  30.749 -0.1240 -0.0315 -0.4645
94002W        W37096  17.681  25.320  29.530  0.1521 -0.1135  0.2230
94003W        W37097  22.844  24.703  29.000 -0.0307  0.2411 -0.2273
94004W        W37098  20.172  23.795  28.979  0.2427  0.3695 -0.1296
94005W        W37099  17.652  21.765  29.034 -0.2609  0.0474 -0.1085
94006W        W37100  18.933  24.468  31.358 -0.1974  0.2501 -0.0707
94007W        W37101  19.022  22.969  26.910  0.0668 -0.3187  0.0220
94008W        W37102  20.066  23.516  27.600 -0.0894 -0.0768 -0.2729
94009W        W37103  21.050  23.742  29.907 -0.1515 -0.0959 -0.2148
94010W        W37104  22.413  24.367  30.381  0.2597 -0.0462  0.4905
94011W        W37105  19.956  21.991  29.124 -0.0483 -0.3008  0.0901
94012W        W37106  21.243  21.922  31.359  0.3724 -0.0865  0.0336
94013W        W37107  19.169  24.896  29.710  0.2641 -0.0168  0.2659
94014W        W37108  19.275  21.177  29.187 -0.0642 -0.0980 -0.2778
94015W        W37109  18.882  25.439  30.848  0.0052 -0.0587 -0.1176
94016W        W37110  18.200  23.755  30.762 -0.0989 -0.0989  0.2446
94017W        W37111  18.559  24.312  28.863 -0.0637 -0.0308 -0.1534
94018W        W37112  20.137  21.450  30.418 -0.1423  0.0233 -0.2829
94019W        W37113  21.295  23.050  29.628 -0.1073  0.2995  0.0118
94020W        W37114  19.769  24.137  28.809  0.0014  0.1796 -0.0401
94021W        W37115  22.014  25.938  31.209  0.1656 -0.0152  0.1630
94022W        W37116  19.566  24.175  30.144 -0.3221 -0.0718  0.0854
94023W        W37117  18.837  23.482  30.579 -0.1914 -0.1628  0.0798
94024W        W37118  21.688  25.348  29.398  0.1808 -0.1285  0.2179
94025W        W37119  21.645  24.259  29.417 -0.2752 -0.0407  0.1734
94026W        W37120  20.449  24.665  28.359  0.1233 -0.0157 -0.2333
94027W        W37121  18.679  22.958  30.494 -0.1238 -0.1736 -0.3838
94028W        W37122  18.913  23.503  31.871  0.2124  0.0368 -0.3096
94029W        W37123  20.002  23.254  28.863 -0.2367  0.1718 -0.0758
94030W        W37124  18.902  23.093  28.219  0.0595  0.2796  0.2616
94031W        W37125  19.411  25.359  26.483 -0.2399 -0.0315  0.0616
94032W        W37126  19.187  24.882   0.540  0.1708  0.1786  0.0700
94033W        W37127  18.629  25.489  30.372  0.1267 -0.2296 -0.2670
94034W        W37128  19.580  25.573  30.148  0.1435 -0.0878 -0.2812
94035W        W37129  20.431  23.664  29.730 -0.1084  0.3168  0.0544
94036W        W37130  19.921  24.437  26.238 -0.1179 -0.2074 -0.2400
94037W        W37131  20.988  25.592  29.234 -0.2974 -0.2616  0.2040
94038W        W37132  19.939  24.040  26.934  0.0134 -0.1552  0.0383
94039W        W37133  20.688  24.452  29.459 -0.0682 -0.2678  0.0233
94040W        W37134  18.696  25.434  27.122  0.1143  0.0744 -0.1842
94041W        W37135  21.522  23.459  26.272 -0.0300  0.2099 -0.1675
94042W        W37136  18.591  26.056  28.907 -0.5509 -0.1129  0.0691
94043W        W37137  22.249  24.241  29.851 -0.0871  0.0268  0.1470
94044W        W37138  21.373  20.741  28.033 -0.2752  0.3256 -0.0194
94045W        W37139  22.693  24.626  28.122 -0.2215  0.2376  0.1994
94046W        W37140  21.031  23.351  27.550  0.0569 -0.2214 -0.0915
94047W        W37141  20.596  25.544  30.131 -0.1880 -0.0347 -0.1067
94048W        W37142  18.919  23.076  29.425 -0.1761 -0.0972  0.2054
94049W        W37143  18.603  21.520  25.169  0.1660 -0.0449 -0.1939
94050W        W37144  18.978  23.010  30.880 -0.2272  0.0220  0.1836
94051W        W37145  21.353  22.878  30.644 -0.1777 -0.1427  0.2796
94052W        W37146  18.399  24.990  30.365  0.0429  0.1698 -0.1520
94053W        W37147  21.359  25.730  28.536 -0.1043 -0.4256  0.0166
94054W        W37148  18.351  23.705  28.843 -0.2029  0.3213  0.3565
94055W        W37149  18.473  25.520  29.332  0.0350  0.1528  0.1088
94056W        W37150  22.316  21.564  30.092  0.1367  0.2530  0.1189
94057W        W37151  19.806  23.528  25.423  0.1864 -0.1597 -0.1413
94058W        W37152  20.882  23.370  29.512  0.2495 -0.1286 -0.2147
94059W        W37153  19.097  25.315  29.948  0.0747 -0.1117 -0.0156
94060W        W37154  19.949  24.271  30.478  0.0288  0.2321  0.0606
94061W        W37155  19.345  24.446  29.812  0.0012 -0.2714  0.5766
94062W        W37156  17.693  22.745  27.727 -0.1260  0.1063  0.3112
94063W        W37157  21.559  22.251  30.103 -0.0256  0.0131  0.0779
94064W        W37158  19.894  22.482  30.904  0.3021  0.0007  0.1790
94065W        W37159  21.008  20.431  31.223  0.3204 -0.4048  0.1258
94066W        W37160  18.919  24.683  29.100  0.2039  0.0186 -0.0812
94067W        W37161  19.866  22.402  28.525  0.0812 -0.0851 -0.1812
94068W        W37162  20.286  24.151  29.709  0.1287  0.0613 -0.0589
94069W        W37163  19.356  22.513  28.664 -0.2871  0.1667  0.1395
94070W        W37164  20.815  21.585  27.613 -0.0067 -0.2216 -0.2095
94071W        W37165  22.284  24.641  29.483 -0.3019 -0.0747  0.2256
94072W        W37166  20.493  23.151  26.591 -0.1664  0.0548 -0.1543
94073W        W37167  21.287  25.394  30.645 -0.2464  0.0256  0.1528
94074W        W37168  18.302  23.451  27.307  0.1000 -0.2354  0.3026
94075W        W37169  19.806  22.540  27.662 -0.2297 -0.1395 -0.2467
94076W        W37170  18.111  23.920  27.471  0.0075  0.0794  0.0789
94077W        W37171  19.995  24.127  28.299  0.0305  0.1782 -0.1572
94078W        W37172  22.147  25.583  29.831  0.3132 -0.1646  0.2169
94079W        W37173  19.452  21.476  28.281  0.0951 -0.1826  0.0543
94080W        W37174  20.984  23.789  28.307  0.0149 -0.2317  0.1210
94081W        W37175  22.022  22.930  30.446  0.0885 -0.2220  0.2255
94082W        W37176  18.241  25.116  28.576  0.1115 -0.0410  0.1970
94083W        W37177  20.143  23.681  28.491  0.3044  0.0411 -0.2466
94084W        W37178  20.608  26.240  29.307 -0.0956 -0.1438 -0.0547
94085W        W37179  18.622  23.421  29.162 -0.3463  0.1513 -0.1909
94086W        W37180  20.679  25.139  29.766 -0.0154  0.0153  0.2068
94087W        W37181  23.214  24.901  28.595 -0.2078 -0.0105 -0.4661
94088W        W37182  19.844  23.062  27.797 -0.2972 -0.0387  0.0471
94089W        W37183  19.994  23.821  30.086 -0.2980  0.0232 -0.0077
94090W        W37184  17.489  24.798  28.494  0.0194 -0.1586 -0.0820
94091W        W37185  20.028  23.401  29.783 -0.0562  0.0189  0.2026
94092W        W37186  20.794  23.455  30.559  0.1109  0.1772  0.0607
94093W        W37187  20.144  24.210  25.818  0.1034 -0.0677 -0.1375
94094W        W37188  21.319  23.372  31.406 -0.0989  0.0184 -0.0054
94095W        W37189  19.044  24.299  28.731 -0.0823  0.0934  0.0463
94096W        W37190  20.274  25.286  30.640 -0.2274 -0.2088  0.1095
94097W        W37191  17.393  22.871  26.377 -0.0895 -0.1254  0.0780
94098W        W37192  20.466  23.793  31.926  0.0343  0.0812  0.0147
94099W        W37193  18.878  25.120  28.201  0.0430  0.2899 -0.3718
94100W        W37194  19.665  26.385  28.890  0.1391 -0.1447 -0.0892
94101W        W37195  21.896  24.554  29.759 -0.0577 -0.0770  0.1669
94102W        W37196  18.842  23.358  27.775  0.1066 -0.1934 -0.2268
94103W        W37197  21.890  25.296  28.347  0.0967 -0.0150 -0.0413
94104W        W37198  19.206  24.136  28.021 -0.0178  0.1400  0.1919
94105W        W37199  21.232  22.552  28.078  0.3344 -0.0228  0.1163
94106W        W37200  20.324  21.805  30.074 -0.0769  0.1136  0.0746
94107W        W37201  19.154  23.195  30.354  0.3728 -0.4284  0.0315
94108W        W37202  17.078  23.843  26.913  0.4204 -0.0704 -0.0983
94109W        W37203  19.034  25.584  26.227  0.2214 -0.0193 -0.1077
94110W        W37204  18.474  24.345  29.391 -0.2057  0.1614  0.0939
94111W        W37205  18.935  21.676  29.169  0.1048  0.2796 -0.3158
94112W        W37206  19.034  22.839  29.916 -0.0516  0.1237 -0.0503
94113W        W37207  18.716  22.407  30.274  0.3265 -0.0706 -0.1307
94114W        W37208  17.753  23.559  27.826 -0.1197  0.0192 -0.1480
94115W        W37209  22.039  25.245  27.851 -0.0555 -0.0739  0.0215
94116W        W37210  18.194  22.413  29.362 -0.0832 -0.0958 -0.0385
94117W        W37211  18.095  23.392  28.189  0.2199 -0.0954 -0.0039
94118W        W37212  20.481  23.453  28.750  0.0290 -0.0157  0.0777
94119W        W37213  19.265  24.573  27.736 -0.2432  0.1256 -0.0378
94120W        W37214  20.222  22.376  28.902 -0.1039  0.0314 -0.1378
94121W        W37215  20.729  24.540  31.970  0.2091 -0.0448  0.0231
94122W        W37216  17.637  22.843  26.850 -0.2373  0.0051  0.3105
94123W        W37217  20.977  23.006  31.541 -0.0232 -0.3384  0.2660
94124W        W37218  19.826  23.329  31.469  0.0180  0.1991 -0.4139
94125W        W37219  18.117  21.843  26.768  0.0863 -0.0912  0.0667
94126W        W37220  19.741  22.799  28.946  0.0991  0.1985  0.0643
94127W        W37221  20.584  24.410  30.721  0.1418  0.1185  0.0760
94128W        W37222  21.242  24.722  28.065 -0.2880 -0.0059  0.3327
94129W        W37223  20.334  24.333  31.158  0.0997  0.2434 -0.1949
94130W        W37224  21.057  24.731  29.788  0.4542 -0.1516 -0.1009
94131W        W37225  17.949  20.968  31.192  0.0848 -0.0015  0.1237
94132W        W37226  20.899  24.437  28.402 -0.0963 -0.2623 -0.1568
94133W        W37227  20.345  24.409  30.155 -0.0646  0.0433 -0.0596
94134W        W37228  22.202  24.864  28.385  0.1532  0.1092  0.1335
94135W        W37229  21.476  22.512  29.263  0.2877  0.0864 -0.1740
94136W        W37230  19.485  23.128  28.653 -0.1952  0.0011  0.0688
94137W        W37231  17.516  20.717  31.724 -0.0031  0.3688  0.0988
94138W        W37232  21.281  24.659  30.588  0.1063  0.0050  0.0261
94139W        W37233  20.512  22.475  30.853  0.0955 -0.1077 -0.1368
94140W        W37234  20.185  22.838  28.170  0.1094  0.0875  0.1349
94141W        W37235  20.905  21.326  30.031 -0.3478  0.5487  0.2046
94142W        W37236  20.512  24.230  26.166 -0.2280 -0.1414 -0.0618
94143W        W37237  18.342  22.143  28.992  0.1345 -0.0291 -0.1040
94144W        W37238  18.758  24.711  27.847 -0.2089  0.1186  0.1692
94145W        W37239  19.050  23.621  30.033  0.0440  0.0995 -0.0581
94146W        W37240  21.169  25.295  29.597 -0.1931  0.0958 -0.0039
94147W        W37241  21.094  24.791  31.615 -0.1752 -0.3865  0.0963
94148W        W37242  19.614  24.936  26.921 -0.0863 -0.2294  0.0347
94149W        W37243  22.551  24.392  27.680  0.0444  0.0174 -0.1265
94150W        W37244  20.192  26.481  29.458  0.2282  0.1223 -0.0700
94151W        W37245  21.469  25.825   0.163 -0.0634 -0.0043 -0.2159
94152W        W37246  20.261  24.658  29.702 -0.3577  0.0128  0.1053
94153W        W37247  20.825  23.725  29.060  0.1897 -0.0599 -0.1956
94154W        W37248  18.883  21.601  30.815 -0.1794 -0.0044  0.0981
94155W        W37249  18.545  23.567  28.214 -0.1071 -0.1294  0.0001
94156W        W37250  18.381  23.000  29.521  0.1119 -0.0019  0.0992
94157W        W37251  21.176  23.204  30.325  0.2709  0.3187  0.2875
94158W        W37252  18.273  23.552  27.763  0.0949  0.4780  0.0944
94159W        W37253  19.148  21.472  27.799 -0.2505 -0.0069  0.2165
94160W        W37254  19.002  25.886  30.766  0.1335 -0.0988 -0.0555
94161W        W37255  18.668  24.901  29.502  0.2916  0.2907  0.0752
94162W        W37256  20.488  21.777  30.648  0.2967 -0.0490  0.2433
94163W        W37257  20.264  23.289  31.747  0.0668  0.2354  0.1942
94164W        W37258  18.299  23.735  31.403  0.2826 -0.0938  0.0553
94165W        W37259  19.484  24.412  30.595 -0.1159  0.1469  0.0197
94166W        W37260  20.151  25.644  31.035  0.0469  0.0208  0.1539
94167W        W37261  19.521  23.929  30.861  0.2127  0.2741  0.0051
94168W        W37262  19.485  22.786  31.486  0.1456 -0.1970 -0.2726
94169W        W37263  18.669  21.896  31.735 -0.3594  0.1241  0.1585
94170W        W37264  21.358  22.931  31.178  0.0373 -0.2629 -0.1216
94171W        W37265  21.221  26.039  31.253  0.3240 -0.0205  0.0194
94172W        W37266  20.561  24.881  30.764  0.2763 -0.1663  0.3254
94173W        W37267  19.098  22.593  30.526  0.0353 -0.1827 -0.1655
94174W        W37268  20.094  23.783  31.584 -0.3304 -0.2951 -0.1896
94175W        W37269  19.079  23.921  30.641  0.2825 -0.0042  0.2004
94176W        W37270  19.835  24.065  31.886 -0.1374  0.2356 -0.2420
94177W        W37271  19.351  27.272  30.527 -0.0837 -0.0199 -0.1345
94178W        W37272  17.002  24.021   0.396  0.0669  0.3745  0.0313
94179W        W37273  22.036  24.829  31.150 -0.1772 -0.0452 -0.2211
94180W        W37274  18.432  20.894  31.701 -0.1889 -0.2146 -0.0132
94181W        W37275  19.514  21.795  31.668 -0.0840 -0.0238 -0.4781
94182W        W37276  20.151  22.727  30.548 -0.4720 -0.3448  0.1004
94183W        W37277  18.625  26.112  30.559  0.3080 -0.1627  0.1975
94184W        W37278  19.873  22.882  31.225 -0.3249  0.3333  0.1610
94185W        W37279  20.336  23.454  30.188  0.0066 -0.1303 -0.1369
94186W        W37280  19.460  21.592  29.763 -0.1498  0.0692  0.0660
94187W        W37281  19.572  22.344  30.479 -0.1744 -0.1281  0.0601
94188W        W37282  19.231  23.663   0.644 -0.1810  0.2766  0.2024
94189W        W37283  18.124  24.924   0.775 -0.2762  0.1441 -0.1303
94190W        W37284  18.683  23.808  30.968 -0.0279  0.0961 -0.1114
94191W        W37285  17.672  24.808   0.461 -0.1961  0.1338 -0.1786
94192W        W37286  20.322  23.977  30.514 -0.0277  0.1032  0.0676
94193W        W37287  19.885  23.589   0.040  0.0216 -0.0944  0.0360
94194W        W37288  20.037  23.072   0.136  0.3094 -0.3067 -0.1996
94195W        W37289  21.164  21.765  31.903  0.1219 -0.1356  0.1913
94196W        W37290  18.979  22.268  29.860  0.1147  0.5046 -0.0985
94197W        W37291  18.747  23.320   0.351  0.0956  0.0163 -0.0256
94198W        W37292  19.281  23.900  31.783  0.1037 -0.2083  0.2648
94199W        W37293  20.204  22.984   0.615 -0.0751  0.0162  0.1786
94200W        W37294  19.936  22.501   0.565  0.2766 -0.0256  0.0552
94201W        W37295  20.165  21.242   1.155  0.0456  0.0555  0.0436
94202W        W37296  21.077  23.828  31.618 -0.1899  0.2724 -0.0924
94203W        W37297  20.662  23.759   0.577 -0.2686  0.2643 -0.0942
94204W        W37298  18.722  22.523  30.844 -0.1411  0.1436  0.1213
94205W        W37299  18.687  23.640   0.730  0.2458  0.1173  0.3476
94206W        W37300  19.767  21.084  31.109  0.2461  0.0843  0.1085
94207W        W37301  21.087  23.814  31.011  0.1988  0.0848 -0.4651
94208W        W37302  20.406  19.467  31.157 -0.1772  0.0925 -0.0611
94209W        W37303  21.014  24.334  30.902  0.0732  0.1495 -0.0269
94210W        W37304  20.100  24.538   0.038 -0.2150 -0.0915 -0.0296
94211W        W37305  18.324  24.223  30.791  0.0462  0.2207 -0.2219
94212W        W37306  20.072  25.032  30.060 -0.0849 -0.0487  0.0313
94213W        W37307  21.123  20.921  31.303 -0.1836 -0.0096  0.1887
94214W        W37308  20.178  21.478  30.912 -0.2336 -0.0001  0.3573
94215W        W37309  20.330  24.283  31.698  0.0627  0.0618  0.0758
94216W        W37310  19.250  22.560  31.840 -0.0557 -0.0495 -0.0058
94217W        W37311  19.896  23.202  30.267 -0.2186 -0.3375 -0.0370
94218W        W37312  22.956  25.991  31.840  0.1572  0.3046  0.0224
94219W        W37313  19.724  25.721  31.266 -0.0521  0.2051  0.4670
94220W        W37314  19.158  24.015  31.200 -0.0523  0.0247 -0.2032
94221W        W37315  19.519  23.966  29.223  0.0109  0.1244 -0.1790
94222W        W37316  17.505  23.964   0.466  0.0175 -0.2295  0.2715
94223W        W37317  19.039  22.111  30.891 -0.2940 -0.0637 -0.2228
94224W        W37318  17.732  24.471  31.574  0.0817 -0.1214 -0.2450
94225W        W37319  17.846  22.708  31.453  0.0051  0.2226  0.1535
94226W        W37320  20.393  25.008  31.934  0.1360  0.2313  0.1042
94227W        W37321  21.647  24.185  31.047  0.1508 -0.3365  0.0448
94228W        W37322  22.015  24.638  31.820 -0.0872 -0.0961  0.0732
94229W        W37323  18.588  28.076  16.963  0.1737 -0.1252  0.0526
94230W        W37324  19.109  25.956  17.520  0.0253 -0.0858  0.0277
94231W        W37325  21.275  26.324  16.661  0.0458 -0.0837  0.0175
94232W        W37326  21.162  27.876  16.737 -0.0715  0.1386  0.2882
94233W        W37327  16.257  27.147  18.747  0.0880 -0.0563  0.1428
94234W        W37328  20.964  28.500  17.364  0.0343 -0.3135  0.3740
94235W        W37329  18.137  26.065  18.495  0.0443  0.3195  0.0589
94236W        W37330  21.576  28.875  17.691 -0.3119 -0.3911 -0.0317
94237W        W37331  20.173  28.436  20.003  0.1755 -0.1329 -0.3192
94238W        W37332  20.550  27.367  15.778  0.4185  0.0655  0.3705
94239W        W37333  19.471  27.370  19.523  0.0506 -0.1476  0.1936
94240W        W37334  19.157  29.847  19.041 -0.1856 -0.0490  0.1481
94241W        W37335  19.592  25.200  16.641 -0.0457  0.1521 -0.4296
94242W        W37336  17.641  25.933  19.236  0.1565 -0.3782  0.2576
94243W        W37337  21.244  27.578  19.058  0.0021  0.1612  0.1798
94244W        W37338  17.002  28.908  17.041  0.0329 -0.2713  0.0199
94245W        W37339  19.252  26.805  18.153  0.2456 -0.2882 -0.2410
94246W        W37340  20.664  25.315  16.449 -0.1157 -0.1463 -0.2184
94247W        W37341  18.996  29.219  18.731  0.2757 -0.1929 -0.0831
94248W        W37342  18.514  25.853  18.696  0.1014 -0.1257  0.0864
94249W        W37343  21.661  25.737  19.910  0.1330 -0.0707 -0.0904
94250W        W37344  21.066  27.964  15.913  0.2039 -0.4252  0.2331
94251W        W37345  17.622  27.859  16.849 -0.0106 -0.1485  0.1145
94252W        W37346  16.526  26.925  18.369 -0.1419  0.1551  0.2498
94253W        W37347  17.473  27.245  18.417  0.2132 -0.0463  0.0395
94254W        W37348  20.892  27.177  18.993  0.0181  0.0999 -0.0069
94255W        W37349  21.713  28.821  16.847 -0.3426  0.1177 -0.5443
94256W        W37350  19.082  28.325  16.905  0.0067 -0.1451  0.0387
94257W        W37351  21.382  28.126  18.260 -0.4352  0.2848  0.0101
94258W        W37352  21.036  26.465  19.505 -0.1945  0.0445  0.1061
94259W        W37353  19.961  27.911  16.927 -0.1333 -0.0932 -0.2460
94260W        W37354  17.503  28.285  18.587  0.2663  0.0953  0.1088
94261W        W37355  19.848  27.141  17.567 -0.1153 -0.1552  0.1404
94262W        W37356  22.725  28.070  17.412  0.0175  0.1866  0.0087
94263W        W37357  22.004  28.198  19.453  0.2696  0.1435  0.4818
94264W        W37358  20.487  29.874  20.131  0.0514  0.0761 -0.2183
94265W        W37359  18.128  27.132  17.916  0.1835  0.0256  0.0092
94266W        W37360  21.236  29.336  19.697 -0.1148  0.0291  0.1206
94267W        W37361  19.362  29.158  18.421 -0.0590  0.1054 -0.3768
94268W        W37362  18.250  26.628  17.561 -0.2121  0.1669 -0.0529
94269W        W37363  19.570  26.982  19.926 -0.3064  0.0552  0.1221
94270W        W37364  17.361  27.856  17.830 -0.0896 -0.0132 -0.2331
94271W        W37365  20.313  27.254  17.347  0.2512  0.1827  0.3017
94272W        W37366  20.248  27.457  20.220  0.3474  0.0254 -0.2430
94273W        W37367  17.818  27.455  18.702  0.0536 -0.1540  0.0957
94274W        W37368  22.635  25.310  19.694  0.3341  0.1901  0.1670
94275W        W37369  18.717  28.559  16.503 -0.2534 -0.0647 -0.2336
94276W        W37370  20.789  27.038  16.189 -0.1187 -0.2211 -0.0937
94277W        W37371  19.584  25.150  15.984 -0.0859  0.1425  0.2612
94278W        W37372  20.872  26.827  15.747  0.0315 -0.0928 -0.0996
94279W        W37373  18.826  26.575  18.930 -0.0125  0.1313 -0.0791
94280W        W37374  19.508  28.666  18.256 -0.1038  0.2899  0.1992
94281W        W37375  19.009  27.327  18.478  0.0839 -0.2515 -0.3074
94282W        W37376  20.584  28.687  19.698  0.0970 -0.0687 -0.0200
94283W        W37377  20.312  26.791  17.392  0.3774  0.0359  0.1985
94284W        W37378  19.403  26.499  19.574 -0.0371 -0.0582  0.1630
94285W        W37379  19.539  28.054  17.428  0.3252  0.0555 -0.0833
94286W        W37380  19.931  27.764  17.721 -0.1217 -0.0511 -0.0918
94287W        W37381  21.098  29.082  17.586  0.2632  0.0588  0.3036
94288W        W37382  20.559  29.904  17.637  0.1110 -0.2579  0.2681
94289W        W37383  20.252  28.822  17.067 -0.1179  0.0556 -0.1831
94290W        W37384  18.975  28.003  17.346  0.0738  0.0686  0.0022
94291W        W37385  18.977  28.152  20.489  0.1123 -0.0182  0.0940
94292W        W37386  19.265  27.248  19.051  0.2814 -0.0443 -0.1257
94293W        W37387  18.889  26.432  17.031  0.0640 -0.3179  0.0202
94294W        W37388  21.123  28.074  19.343  0.4310 -0.0498 -0.1555
94295W        W37389  19.159  28.225  19.688 -0.0658 -0.0396  0.0448
94296W        W37390  21.515  26.201  17.112 -0.0374  0.3901 -0.0771
94297W        W37391  18.428  28.058  18.691  0.0391  0.2879 -0.2393
94298W        W37392  22.056  27.923  19.001 -0.1833  0.0271  0.1439
94299W        W37393  22.419  27.928  16.617 -0.0396 -0.1105  0.4133
94300W        W37394  20.877  25.444  17.141  0.1472  0.0654  0.0462
94301W        W37395  19.214  25.826  18.208  0.1183 -0.0201  0.1029
94302W        W37396  19.787  26.592  17.195  0.1779 -0.2197  0.0966
94303W        W37397  20.042  27.137  16.326 -0.2730  0.0011  0.1790
94304W        W37398  20.353  27.738  19.361  0.0393  0.1013  0.2074
94305W        W37399  22.329  28.289  16.205  0.5158 -0.0600  0.5012
94306W        W37400  18.352  30.143  19.400  0.2817  0.0183  0.3090
94307W        W37401  18.644  27.138  19.556 -0.0436  0.0731 -0.2588
94308W        W37402  19.519  30.052  19.367  0.0716  0.0634  0.0592
94309W        W37403  19.556  29.208  16.543  0.0012 -0.2828 -0.1404
94310W        W37404  18.695  27.716  18.228 -0.0470 -0.3138  0.1097
94311W        W37405  17.891  28.694  17.325  0.0836 -0.2444  0.1840
94312W        W37406  16.009  26.942  19.164 -0.0851 -0.2259 -0.1992
94313W        W37407  18.961  27.803  18.711 -0.1153 -0.1959  0.0657
94314W        W37408  20.912  27.351  16.588 -0.2928 -0.2553  0.3314
94315W        W37409  19.157  25.655  19.236 -0.0645  0.1589 -0.1656
94316W        W37410  20.294  26.526  17.789 -0.1452  0.1846  0.1038
94317W        W37411  18.080  28.932  16.949  0.0628 -0.1269 -0.2321
94318W        W37412  21.208  28.954  18.093 -0.0683  0.3419  0.0811
94319W        W37413  23.556  27.192  16.100 -0.0257  0.0197 -0.1509
94320W        W37414  21.223  29.165  16.839  0.2284  0.1461  0.1099
94321W        W37415  17.277  27.004  19.422 -0.0586 -0.2444  0.2337
94322W        W37416  18.544  27.536  17.155 -0.1376 -0.3838  0.3408
94323W        W37417  19.060  26.544  20.602  0.0442  0.2374 -0.0765
94324W        W37418  19.115  26.302  18.288  0.0739  0.1477  0.3011
94325W        W37419  20.633  27.153  21.012 -0.1258 -0.3302 -0.0242
94326W        W37420  18.209  25.700  17.565  0.0523  0.0374 -0.1373
94327W        W37421  21.597  26.445  18.494 -0.2418 -0.3839 -0.2581
94328W        W37422  18.834  27.236  16.878 -0.5350 -0.1555  0.1621
94329W        W37423  18.266  27.684  17.945 -0.1645 -0.1679  0.0208
94330W        W37424  21.098  27.706  19.692  0.0799 -0.0365 -0.0701
94331W        W37425  20.376  28.201  16.274 -0.2041  0.1380  0.1723
94332W        W37426  22.626  28.777  19.174 -0.1399  0.0823 -0.1315
94333W        W37427  21.005  30.378  18.842  0.0074  0.1454 -0.1439
94334W        W37428  17.901  26.324  19.255  0.1192  0.2814 -0.2171
94335W        W37429  18.262  25.405  16.488 -0.0466 -0.2882 -0.4287
94336W        W37430  18.607  28.842  18.899 -0.3101 -0.1280  0.1986
94337W        W37431  20.511  27.011  17.814 -0.0253  0.0772  0.4339
94338W        W37432  19.831  25.547  16.252 -0.0640  0.1203  0.0781
94339W        W37433  21.678  29.579  19.062 -0.0410  0.0099  0.1479
94340W        W37434  20.795  28.331  16.653 -0.1022  0.1089 -0.2897
94341W        W37435  18.098  28.468  20.090 -0.0419 -0.0371  0.0493
94342W        W37436  20.612  26.210  18.595 -0.0285  0.3050  0.1114
94343W        W37437  21.147  27.908  18.674  0.2362 -0.1853  0.1766
94344W        W37438  20.349  27.601  18.549  0.0512  0.0629 -0.0445
94345W        W37439  17.463  26.783  16.892  0.0420 -0.0744 -0.0030
94346W        W37440  21.502  28.036  18.981  0.0218  0.0057  0.1216
94347W        W37441  18.722  29.747  16.717 -0.1511  0.2450 -0.0102
94348W        W37442  17.027  27.987  18.186 -0.4464  0.3119  0.3355
94349W        W37443  20.627  28.954  17.459 -0.0121  0.2628 -0.0868
94350W        W37444  20.771  26.620  18.134  0.2294 -0.0641  0.1363
94351W        W37445  18.449  28.090  19.203 -0.0751  0.1476 -0.0921
94352W        W37446  20.104  25.770  20.558  0.2971 -0.0582  0.0684
94353W        W37447  18.543  27.612  16.695  0.0927 -0.3913 -0.0555
94354W        W37448  18.721  29.012  20.870 -0.0588  0.0716  0.2975
94355W        W37449  18.622  26.352  17.816 -0.1541  0.0465  0.2157
94356W        W37450  22.502  26.497  16.100  0.1115  0.1569  0.0683
94357W        W37451  21.030  27.423  20.983 -0.4606  0.4052  0.0557
94358W        W37452  22.183  27.933  17.304  0.3367 -0.0636 -0.1813
94359W        W37453  20.346  26.368  16.466 -0.1796 -0.3000  0.1213
94360W        W37454  21.504  26.694  16.346 -0.2157  0.2901  0.3146
94361W        W37455  18.696  28.474  19.507 -0.1482  0.0820  0.3816
94362W        W37456  20.389  27.839  17.174 -0.1421  0.0799 -0.5986
94363W        W37457  19.754  28.269  18.844  0.3383  0.1298  0.0111
94364W        W37458  20.177  25.318  16.481  0.1234 -0.1658 -0.0867
94365W        W37459  23.289  29.440  16.989 -0.1836  0.0738  0.2618
94366W        W37460  18.461  29.588  20.261 -0.0867  0.5789  0.0376
94367W        W37461  20.473  26.083  20.355 -0.0950 -0.1414  0.0295
94368W        W37462  21.144  29.513  17.410  0.1798 -0.1632  0.0615
94369W        W37463  19.696  27.816  18.709 -0.1780  0.1544 -0.1057
94370W        W37464  18.054  28.127  17.169  0.0245  0.1791 -0.1468
94371W        W37465  20.368  26.070  16.904  0.0119 -0.2627 -0.0031
94372W        W37466  17.862  29.642  15.875 -0.3203  0.1186  0.0941
94373W        W37467  21.444  26.729  19.527  0.0615  0.3115 -0.2463
94374W        W37468  19.229  26.832  18.676  0.3811 -0.1239 -0.0291
94375W        W37469  19.342  25.630  19.670 -0.2201  0.0685 -0.1478
94376W        W37470  19.694  26.869  20.767  0.1876  0.4091 -0.1740
94377W        W37471  20.158  25.882  16.467 -0.3421 -0.2259  0.1828
94378W        W37472  20.133  25.943  18.635  0.1921  0.0161 -0.0537
94379W        W37473  18.320  26.278  16.843 -0.3214 -0.1071 -0.1466
94380W        W37474  19.251  27.706  18.202  0.3404 -0.3016  0.0215
94381W        W37475  19.076  26.713  19.919 -0.1639  0.0143  0.0782
94382W        W37476  18.263  28.510  18.996  0.0084 -0.0381 -0.0577
94383W        W37477  20.754  27.672  18.908 -0.0438 -0.0511  0.0613
94384W        W37478  20.915  28.005  17.259  0.1556 -0.2633 -0.2286
94385W        W37479  20.064  25.792  19.118  0.1203 -0.1034 -0.0616
94386W        W37480  20.403  25.608  16.071 -0.1327  0.0304 -0.1115
94387W        W37481  18.862  28.877  16.983 -0.1325 -0.3343 -0.3385
94388W        W37482  19.297  28.756  16.636 -0.0493  0.0751  0.0960
94389W        W37483  19.777  27.294  18.994 -0.2756  0.0763  0.4189
94390W        W37484  21.698  28.374  18.656  0.1224  0.2724 -0.2662
94391W        W37485  18.982  29.065  16.300 -0.1192  0.2681 -0.2980
94392W        W37486  20.231  27.927  18.893 -0.1711 -0.0761  0.4659
94393W        W37487  19.591  27.212  18.013 -0.1733 -0.0330 -0.0762
94394W        W37488  20.567  25.590  18.514  0.1078  0.0872 -0.0744
94395W        W37489  16.838  27.569  17.688 -0.1514  0.1616 -0.1537
94396W        W37490  18.050  25.144  16.081 -0.0729 -0.0059  0.0169
94397W        W37491  17.273  27.564  17.434  0.0057  0.1563  0.2222
94398W        W37492  20.493  27.634  17.623 -0.0080 -0.1212 -0.0029
94399W        W37493  21.544  27.941  16.097 -0.0463 -0.0410  0.0251
94400W        W37494  17.738  25.453  19.255  0.0165 -0.0482  0.1381
94401W        W37495  19.747  26.439  18.154 -0.0757  0.1876  0.3809
94402W        W37496  19.256  29.050  17.804  0.1442 -0.1716  0.0821
94403W        W37497  19.901  27.118  20.322 -0.3705 -0.0964 -0.0742
94404W        W37498  21.571  26.609  18.948  0.1831  0.1707 -0.0825
94405W        W37499  20.631  28.142  17.653 -0.0501  0.0472 -0.2487
94406W        W37500  19.164  28.763  20.113  0.1953  0.1239  0.0855
94407W        W37501  17.661  26.120  16.025 -0.1059 -0.1186  0.0007
94408W        W37502  22.047  27.507  17.918 -0.1798  0.2130 -0.1191
94409W        W37503  18.048  26.718  16.782 -0.1979 -0.2089  0.0957
94410W        W37504  18.398  27.855  17.506 -0.3567 -0.1050 -0.3316
94411W        W37505  19.822  28.195  19.317  0.1122 -0.0235 -0.1205
94412W        W37506  18.623  26.849  16.551 -0.0965  0.3288  0.3061
94413W        W37507  17.825  28.011  17.858 -0.0135 -0.1541 -0.1720
94414W        W37508  20.000  26.845  18.833  0.0505  0.0548  0.1734
94415W        W37509  21.758  26.942  17.985  0.1004  0.1510 -0.0258
94416W        W37510  18.389  26.176  19.113  0.4101  0.2435 -0.0759
94417W        W37511  18.579  27.345  17.736  0.0683  0.1935  0.2139
94418W        W37512  21.531  27.104  19.176  0.1289  0.2273 -0.0309
94419W        W37513  21.261  28.448  17.838 -0.1078 -0.0136  0.1123
94420W        W37514  20.326  28.231  19.406  0.0413 -0.1192  0.0069
94421W        W37515  19.309  28.284  20.135  0.3167  0.3993  0.2237
94422W        W37516  21.111  26.776  19.089  0.0585 -0.1571 -0.2919
94423W        W37517  21.935  29.242  16.761  0.0418 -0.3240 -0.0789
94424W        W37518  20.079  27.430  19.674  0.1060 -0.2139 -0.0535
94425W        W37519  19.295  27.352  16.790  0.2368 -0.3154 -0.2922
94426W        W37520  18.553  27.181  18.259  0.0401 -0.0878  0.1335
94427W        W37521  19.492  27.347  18.535 -0.1381  0.0895  0.0305
94428W        W37522  20.482  26.742  18.877  0.1755 -0.1220 -0.2730
94429W        W37523  19.001  28.542  17.952 -0.1603  0.3665 -0.1749
94430W        W37524  19.314  26.989  17.643  0.0389 -0.0394  0.3408
94431W        W37525  16.980  27.515  18.565  0.1898 -0.0412  0.0311
94432W        W37526  21.966  26.803  16.116 -0.1287  0.1614  0.1635
94433W        W37527  21.607  28.398  16.386 -0.1516 -0.0023 -0.2071
94434W        W37528  18.992  27.758  16.903 -0.1372  0.1086 -0.0503
94435W        W37529  21.530  26.084  18.957 -0.4570 -0.2112  0.1429
94436W        W37530  19.525  27.070  17.156 -0.0566 -0.0675  0.2730
94437W        W37531  21.355  26.044  19.477 -0.1988  0.0231 -0.0033
94438W        W37532  19.454  26.387  18.693  0.0125 -0.0356  0.0247
94439W        W37533  20.292  27.421  16.778 -0.3044  0.2094 -0.0329
94440W        W37534  18.291  27.264  19.184 -0.0753 -0.4692 -0.2604
94441W        W37535  20.611  29.632  21.386 -0.3007 -0.4748 -0.2417
94442W        W37536  17.561  28.634  20.139 -0.2957  0.0955  0.0737
94443W        W37537  20.680  25.993  15.778 -0.0778 -0.1608  0.0126
94444W        W37538  19.652  25.841  16.588 -0.2872  0.0684  0.1893
94445W        W37539  19.392  29.051  18.926 -0.1537  0.0115 -0.1934
94446W        W37540  20.603  28.035  18.506  0.2632 -0.1973  0.0885
94447W        W37541  20.784  27.832  16.375 -0.0204 -0.1421 -0.2895
94448W        W37542  20.095  25.674  18.099 -0.2834  0.2705  0.0498
94449W        W37543  18.074  27.120  19.653 -0.0839 -0.0372  0.1816
94450W        W37544  22.391  27.260  16.792  0.4096 -0.0322 -0.2438
94451W        W37545  20.182  26.227  17.333 -0.2503  0.2268  0.1086
94452W        W37546  18.994  27.423  17.334  0.0712 -0.0289 -0.5643
94453W        W37547  19.181  25.172  19.890 -0.0676  0.1059  0.1141
94454W        W37548  20.282  28.627  17.619  0.1549  0.2381  0.3159
94455W        W37549  21.586  25.434  19.479  0.1567  0.0718  0.2054
94456W        W37550  19.862  27.008  19.539  0.2417 -0.0746  0.1358
94457W        W37551  21.022  27.323  20.016  0.2021 -0.2104 -0.0871
94458W        W37552  18.550  25.995  19.651  0.1014 -0.2620  0.0925
94459W        W37553  18.749  27.063  18.954  0.1264 -0.2766 -0.1728
94460W        W37554  19.600  30.587  19.126 -0.0612 -0.2076 -0.2183
94461W        W37555  22.940  26.288  15.929 -0.2673 -0.2621 -0.1780
94462W        W37556  20.627  26.181  19.487 -0.0768 -0.0372  0.2791
94463W        W37557  21.673  27.444  18.247 -0.1384 -0.1915 -0.1058
94464W        W37558  20.395  26.585  16.954  0.1525 -0.0563  0.0663
94465W        W37559  18.809  26.726  18.389 -0.2002  0.0108  0.0262
94466W        W37560  20.323  27.110  20.642 -0.0972 -0.2980  0.0159
94467W        W37561  19.619  26.994  16.667 -0.0176  0.0765  0.2417
94468W        W37562  20.811  25.433  18.007  0.2217  0.1044  0.0348
94469W        W37563  21.194  28.700  16.719  0.1288 -0.0347  0.3883
94470W        W37564  20.472  27.082  19.609 -0.0528  0.0907  0.2137
94471W        W37565  19.949  26.178  17.753  0.0237 -0.2551  0.0940
94472W        W37566  16.959  26.798  17.099  0.0047 -0.1862  0.0045
94473W        W37567  18.162  29.057  18.982 -0.0850 -0.0742 -0.0781
94474W        W37568  18.927  26.901  17.257  0.3173 -0.5263  0.2598
94475W        W37569  20.259  26.216  15.965 -0.0869 -0.0403 -0.0188
94476W        W37570  20.194  28.329  16.774 -0.2985  0.5362 -0.4002
94477W        W37571  20.544  27.529  19.848 -0.0802  0.0590 -0.0551
94478W        W37572  20.491  24.837  16.538 -0.1948  0.3891  0.0502
94479W        W37573  21.633  26.339  19.849  0.5793 -0.1637  0.1751
94480W        W37574  18.269  28.570  16.390  0.2654 -0.0621 -0.0757
94481W        W37575  19.360  26.282  17.823  0.0767 -0.1689 -0.0685
94482W        W37576  17.965  29.014  18.237 -0.0263 -0.0323  0.1355
94483W        W37577  17.762  26.832  19.452  0.1228 -0.2473  0.0946
94484W        W37578  18.623  28.363  17.347  0.1040 -0.2954 -0.1850
94485W        W37579  20.049  26.409  18.512 -0.0879 -0.0020  0.2187
94486W        W37580  21.259  27.666  18.242  0.1731 -0.1456 -0.0055
94487W        W37581  19.454  28.250  17.887 -0.3406 -0.1661 -0.1131
94488W        W37582  21.293  26.634  18.068 -0.1303 -0.2454 -0.0675
94489W        W37583  20.575  28.578  18.638 -0.0601  0.3954 -0.4702
94490W        W37584  20.082  28.057  18.373 -0.3095  0.0157 -0.0976
94491W        W37585  19.339  27.781  19.110  0.1063 -0.1358  0.0409
94492W        W37586  22.594  27.699  17.029 -0.0425  0.1717  0.1344
94493W        W37587  19.802  27.622  18.217  0.2923  0.1473  0.3551
94494W        W37588  18.522  26.316  18.358  0.0208  0.1616 -0.0299
94495W        W37589  19.544  26.135  19.869 -0.3664  0.0396 -0.1751
94496W        W37590  20.059  26.964  16.946 -0.1406 -0.1232 -0.2845
94497W        W37591  18.370  28.522  16.863  0.0271  0.1150  0.0737
94498W        W37592  20.433  26.861  16.479  0.0741 -0.1692 -0.1399
94499W        W37593  19.351  28.316  19.209  0.1366 -0.1711  0.0024
94500W        W37594  18.718  26.408  19.972 -0.3576 -0.0619 -0.1783
94501W        W37595  19.715  29.838  16.870  0.1564  0.0525  0.0811
94502W        W37596  20.499  27.433  16.291  0.3659 -0.1246 -0.2366
94503W        W37597  19.859  28.813  16.717 -0.3244  0.0631 -0.0218
94504W        W37598  21.377  27.313  18.614  0.1760 -0.0935  0.1729
94505W        W37599  17.798  26.238  17.026  0.0250 -0.0301  0.1051
94506W        W37600  19.720  29.237  18.063 -0.2550  0.2465  0.0628
94507W        W37601  17.063  27.932  16.049 -0.1579  0.1426 -0.0245
94508W        W37602  20.290  28.699  16.395  0.3365  0.3305  0.0190
94509W        W37603  18.836  29.658  17.283 -0.4675  0.1634  0.1362
94510W        W37604  21.925  27.994  18.284 -0.0501 -0.2199  0.1783
94511W        W37605  21.441  25.585  16.305 -0.0842  0.2336  0.0951
94512W        W37606  21.689  27.074  17.486  0.2512  0.0055 -0.1547
94513W        W37607  20.447  28.339  17.201  0.1662 -0.0057 -0.0183
94514W        W37608  20.188  28.526  20.456  0.1312  0.0968 -0.0602
94515W        W37609  20.007  26.954  17.975  0.0215  0.1628 -0.0339
94516W        W37610  19.892  24.895  16.394 -0.0347 -0.2216 -0.0124
94517W        W37611  19.303  26.960  20.400  0.0947  0.2220  0.1808
94518W        W37612  20.412  25.800  17.710 -0.2458  0.2651  0.0258
94519W        W37613  19.731  28.024  20.209  0.1022 -0.1674  0.1830
94520W        W37614  21.418  28.311  16.883 -0.3156  0.0120 -0.3054
94521W        W37615  17.993  28.288  18.625  0.0942 -0.0412  0.4203
94522W        W37616  18.850  28.234  18.992 -0.1905  0.1535  0.1518
94523W        W37617  21.839  26.611  17.331 -0.2456  0.3319 -0.1835
94524W        W37618  19.693  26.732  15.840  0.2440  0.1691  0.1426
94525W        W37619  19.280  26.062  17.083  0.2041  0.2156 -0.0806
94526W        W37620  18.916  28.166  18.274  0.3182  0.0133 -0.1289
94527W        W37621  20.145  28.550  19.015 -0.2042 -0.1451 -0.0771
94528W        W37622  19.295  29.560  18.080 -0.0927 -0.3673 -0.1297
94529W        W37623  18.135  26.160  17.397  0.2092 -0.1705  0.0452
94530W        W37624  20.277  27.418  18.037  0.1142 -0.0043  0.2491
94531W        W37625  17.523  26.657  19.039  0.4189  0.0259  0.1565
94532W        W37626  20.780  25.997  19.953  0.2205  0.1542 -0.0317
94533W        W37627  18.313  27.163  16.771  0.2194  0.1785  0.0460
94534W        W37628  19.880  27.423  17.150 -0.2145 -0.0004  0.3026
94535W        W37629  19.885  27.698  19.259 -0.4293  0.3450 -0.1007
94536W        W37630  19.165  27.290  19.900 -0.1389  0.2780  0.1499
94537W        W37631  19.286  26.716  16.882  0.0547  0.1094 -0.0634
94538W        W37632  22.012  26.835  19.336  0.2798  0.0009 -0.1206
94539W        W37633  19.731  25.997  15.869  0.0353 -0.1414 -0.0316
94540W        W37634  20.423  29.882  19.183  0.1258 -0.0655 -0.2763
94541W        W37635  17.562  26.433  17.614  0.1210  0.1225 -0.0981
94542W        W37636  19.712  26.663  17.654 -0.1323 -0.2445 -0.1088
94543W        W37637  16.593  26.873  17.415  0.2525  0.0191 -0.0490
94544W        W37638  20.336  25.285  17.961  0.1908 -0.2448 -0.1062
94545W        W37639  20.910  29.142  19.302 -0.0757  0.0318  0.0587
94546W        W37640  18.091  25.228  18.082  0.1806  0.2541  0.4335
94547W        W37641  20.446  27.835  15.993  0.1638  0.4175  0.1367
94548W        W37642  20.920  28.057  18.127 -0.1015  0.1474  0.1164
94549W        W37643  19.341  28.361  16.352 -0.2582  0.1844  0.2924
94550W        W37644  20.017  27.882  16.439 -0.0005 -0.0147  0.2156
94551W        W37645  21.402  29.329  18.769  0.0514  0.2490 -0.1080
94552W        W37646  16.846  26.478  18.307  0.1436 -0.0212  0.4386
94553W        W37647  19.416  28.689  19.619  0.0602  0.1996 -0.0304
94554W        W37648  21.162  28.136  20.111  0.0197 -0.0173  0.0811
94555W        W37649  20.679  26.255  17.303 -0.1120 -0.0070 -0.2837
94556W        W37650  20.060  27.935  19.680 -0.0212  0.2311 -0.1038
94557W        W37651  18.013  27.473  17.530 -0.2559  0.1127  0.0704
94558W        W37652  21.008  27.051  19.572 -0.0199 -0.2019 -0.0853
94559W        W37653  22.638  26.132  19.744 -0.3131 -0.2225 -0.0341
94560W        W37654  19.532  28.391  15.887 -0.2041  0.2551 -0.1133
94561W        W37655  20.716  26.254  17.817 -0.5428 -0.1315 -0.0309
94562W        W37656  18.619  28.279  17.806  0.0538 -0.0724  0.3017
94563W        W37657  18.440  27.795  20.749 -0.1690  0.0064 -0.0360
94564W        W37658  19.138  26.993  16.500 -0.0857 -0.2500  0.1509
94565W        W37659  19.682  27.529  19.992  0.1688 -0.0221 -0.0000
94566W        W37660  18.988  28.061  16.525  0.0787 -0.2143 -0.0075
94567W        W37661  19.504  27.750  17.027 -0.1167  0.1407  0.0839
94568W        W37662  23.911  28.392  18.272  0.3452 -0.1179 -0.4723
94569W        W37663  19.275  26.478  17.366 -0.3110 -0.1164  0.4368
94570W        W37664  21.182  28.411  18.808  0.0002 -0.1930 -0.0596
94571W        W37665  18.335  25.707  18.149 -0.1225 -0.3165 -0.1098
94572W        W37666  22.397  26.269  17.036 -0.0492  0.1304  0.2193
94573W        W37667  20.674  25.744  16.719  0.3550  0.1557 -0.1783
94574W        W37668  19.132  28.693  18.636 -0.0584  0.0469  0.1867
94575W        W37669  18.633  25.979  17.442  0.1744  0.1453  0.3966
94576W        W37670  17.679  27.835  17.411 -0.0404 -0.0761 -0.0893
94577W        W37671  18.127  27.374  18.357  0.1486  0.0968 -0.1020
94578W        W37672  20.625  25.862  19.060 -0.1110  0.0920  0.0128
94579W        W37673  16.242  28.244  19.209 -0.0076  0.3278  0.0203
94580W        W37674  17.906  26.725  19.913 -0.4052 -0.0627  0.4145
94581W        W37675  19.007  27.273  17.981 -0.0008 -0.5505 -0.3799
94582W        W37676  22.606  30.085  17.976 -0.0918  0.1469  0.1719
94583W        W37677  18.746  25.227  19.215  0.1045 -0.4362 -0.1754
94584W        W37678  18.008  25.918  18.931 -0.0613  0.1179  0.0947
94585W        W37679  21.306  27.610  17.276 -0.3313  0.3817  0.1556
94586W        W37680  21.954  28.932  17.305  0.1266  0.1225  0.1074
94587W        W37681  19.884  26.518  16.719 -0.1647  0.1676 -0.1921
94588W        W37682  20.925  28.595  19.200  0.1970 -0.4349  0.1925
94589W        W37683  17.698  27.401  16.152 -0.3217  0.0642 -0.0146
94590W        W37684  19.615  27.404  20.645 -0.0617  0.1889 -0.2323
94591W        W37685  19.612  26.022  18.394 -0.0110 -0.2097 -0.0342
94592W        W37686  19.076  24.958  16.048 -0.3064  0.0784 -0.2973
94593W        W37687  20.935  29.389  18.508  0.3385 -0.0199 -0.1441
94594W        W37688  19.805  27.475  16.677  0.4039  0.1414 -0.3349
94595W        W37689  21.167  28.194  16.340 -0.0484 -0.2887 -0.2976
94596W        W37690  19.122  29.216  19.371 -0.2240 -0.2953 -0.1611
94597W        W37691  19.428  29.517  20.331 -0.0862 -0.3046 -0.0823
94598W        W37692  19.014  25.997  18.658 -0.1380 -0.2772 -0.2134
94599W        W37693  20.643  27.054  17.027  0.1425 -0.0026  0.0714
94600W        W37694  20.793  28.617  17.842  0.2062 -0.0515  0.1745
94601W        W37695  22.043  28.659  17.730  0.0631  0.3187 -0.1864
94602W        W37696  21.147  26.216  17.538  0.1419  0.0008  0.1107
94603W        W37697  20.793  27.545  17.109 -0.2054  0.1627  0.2062
94604W        W37698  17.621  24.741  19.496 -0.3444  0.1938  0.2415
94605W        W37699  19.212  27.820  20.041 -0.0123 -0.0259 -0.0944
94606W        W37700  22.152  26.847  18.598 -0.2270  0.0164 -0.0412
94607W        W37701  18.517  27.506  18.617  0.0533  0.0159  0.1024
94608W        W37702  20.629  27.129  18.570  0.1607  0.0557  0.1535
94609W        W37703  19.661  28.673  19.199 -0.0313  0.2587  0.1909
94610W        W37704  19.426  27.599  17.627  0.1335  0.0922  0.0498
94611W        W37705  21.015  26.742  16.543  0.0350 -0.4757 -0.3061
94612W        W37706  20.818  27.474  18.015 -0.0945 -0.2780  0.3522
94613W        W37707  21.373  28.875  19.128  0.0847  0.2791 -0.3359
94614W        W37708  20.301  27.344  19.078 -0.3456  0.2488  0.1169
94615W        W37709  19.497  26.608  16.341  0.1830 -0.0992  0.1102
94616W        W37710  22.529  27.509  17.563  0.0905 -0.0921  0.4104
94617W        W37711  20.703  29.673  19.614 -0.1269 -0.0301  0.1900
94618W        W37712  20.751  28.031  19.745 -0.3103  0.0002  0.0470
94619W        W37713  19.845  29.160  19.594  0.0392 -0.0019  0.3066
94620W        W37714  20.444  27.892  18.059  0.0334 -0.0887 -0.2003
94621W        W37715  19.212  25.146  18.918  0.0578 -0.4454 -0.0375
94622W        W37716  17.853  26.712  17.816  0.2583 -0.1259 -0.1123
94623W        W37717  19.409  27.862  16.553 -0.4382  0.2143  0.1575
94624W        W37718  20.207  26.661  20.325  0.1439  0.0133  0.0246
94625W        W37719  18.114  27.668  17.018 -0.0188  0.0264  0.2663
94626W        W37720  20.330  26.831  18.334 -0.2982  0.1279  0.0254
94627W        W37721  18.680  29.398  19.659 -0.0723  0.4369  0.0235
94628W        W37722  21.389  28.098  17.418  0.0330 -0.1594  0.1076
94629W        W37723  19.900  28.370  22.696 -0.1589 -0.3494 -0.2160
94630W        W37724  18.177  28.181  20.863  0.0659  0.0961 -0.2310
94631W        W37725  20.603  25.599  20.727 -0.0196  0.0577  0.3045
94632W        W37726  20.614  26.660  19.341 -0.0262  0.0796  0.0256
94633W        W37727  19.106  26.052  19.590  0.4560 -0.0139  0.4620
94634W        W37728  20.714  29.294  22.585  0.2070 -0.0220 -0.0793
94635W        W37729  20.053  26.024  22.529  0.2019  0.3035  0.3601
94636W        W37730  20.210  27.775  23.842 -0.0227 -0.3376 -0.2489
94637W        W37731  21.754  29.056  22.258  0.0214  0.1816 -0.1315
94638W        W37732  18.598  27.329  20.571  0.0164  0.2921  0.2274
94639W        W37733  20.282  26.592  22.064  0.0754  0.1670 -0.1907
94640W        W37734  20.066  28.758  23.905 -0.0484  0.3675  0.0234
94641W        W37735  20.110  26.998  21.140 -0.7988  0.1810  0.0470
94642W        W37736  18.186  25.530  21.845 -0.1202 -0.0820 -0.3184
94643W        W37737  21.509  26.525  21.869 -0.1710 -0.1706 -0.0446
94644W        W37738  21.062  26.025  21.524 -0.1945  0.0513  0.1010
94645W        W37739  20.374  26.717  24.051 -0.0535 -0.2353  0.3799
94646W        W37740  19.406  26.699  21.961 -0.0526  0.0335  0.0308
94647W        W37741  19.970  29.593  22.075 -0.0081  0.1121  0.0526
94648W        W37742  20.987  25.708  21.881 -0.2715 -0.2919  0.0447
94649W        W37743  20.617  25.222  24.374 -0.0987  0.2134  0.0441
94650W        W37744  19.618  30.726  20.684  0.2956 -0.2891  0.3445
94651W        W37745  18.766  26.890  20.308  0.1515 -0.0760 -0.1584
94652W        W37746  18.510  27.504  21.085 -0.2941  0.2343 -0.1784
94653W        W37747  20.341  27.247  22.000  0.1410 -0.2374 -0.3258
94654W        W37748  21.971  27.027  22.758  0.1899  0.0066 -0.3492
94655W        W37749  21.770  26.993  20.579 -0.1121  0.3520  0.0786
94656W        W37750  20.885  28.715  22.347 -0.0325  0.1392 -0.5361
94657W        W37751  20.102  27.576  21.054  0.0769  0.1195  0.2003
94658W        W37752  22.665  27.170  22.121  0.1531  0.1235 -0.0233
94659W        W37753  18.708  27.831  21.972  0.1042  0.1706 -0.0733
94660W        W37754  19.032  28.681  21.150 -0.1957 -0.5862  0.1564
94661W        W37755  19.312  28.514  20.612 -0.5970 -0.0881 -0.5046
94662W        W37756  20.779  27.439  19.421  0.1737  0.0334  0.0242
94663W        W37757  23.056  28.975  22.209  0.1378 -0.1261 -0.2263
94664W        W37758  19.830  28.864  23.433  0.1820  0.1222  0.1824
94665W        W37759  18.366  28.599  21.192 -0.0730 -0.0266 -0.0371
94666W        W37760  21.693  29.036  22.761 -0.0031 -0.1778 -0.1796
94667W        W37761  20.160  25.724  23.539  0.0313  0.0367  0.4184
94668W        W37762  20.977  26.215  22.886  0.0838 -0.4012  0.0739
94669W        W37763  20.937  25.406  21.455  0.1478  0.2576 -0.1817
94670W        W37764  19.827  28.702  22.325 -0.0974  0.2713 -0.2070
94671W        W37765  20.148  26.964  22.422 -0.3392  0.1436  0.1438
94672W        W37766  19.093  29.283  22.677 -0.1335 -0.2357 -0.0577
94673W        W37767  18.926  28.761  21.885 -0.3115  0.0947  0.1304
94674W        W37768  22.093  26.584  22.383  0.1841  0.0762 -0.0929
94675W        W37769  18.279  28.375  19.666  0.1622 -0.0261 -0.3117
94676W        W37770  21.682  27.089  21.387  0.0438  0.1070  0.0163
94677W        W37771  19.198  26.206  19.109 -0.1775  0.2570  0.2228
94678W        W37772  21.189  26.260  20.098  0.1990  0.2070  0.3075
94679W        W37773  20.732  25.151  22.313  0.2896 -0.0653  0.0533
94680W        W37774  19.000  30.311  21.451 -0.1216  0.2892 -0.0787
94681W        W37775  19.830  27.324  22.452  0.1115  0.0023 -0.0418
94682W        W37776  22.839  27.414  23.525  0.1923 -0.1535  0.1970
94683W        W37777  20.304  28.039  21.302 -0.1727  0.2489 -0.0094
94684W        W37778  22.901  26.779  21.873  0.0227 -0.0900 -0.5124
94685W        W37779  19.108  29.395  22.168 -0.2105  0.0206 -0.3287
94686W        W37780  19.091  26.043  20.325  0.2568 -0.3105 -0.3528
94687W        W37781  20.166  28.936  19.970 -0.1626 -0.3009  0.1762
94688W        W37782  20.103  29.376  21.491 -0.3735 -0.0483 -0.1448
94689W        W37783  20.780  27.761  20.208 -0.2373  0.0861 -0.4157
94690W        W37784  19.957  27.347  21.611  0.1178 -0.0784 -0.0950
94691W        W37785  18.523  28.392  23.239  0.2501  0.2614 -0.0852
94692W        W37786  19.138  26.779  22.473 -0.2119 -0.0227 -0.4393
94693W        W37787  19.594  25.514  20.048  0.2472  0.0295 -0.2382
94694W        W37788  22.720  27.347  22.990  0.0798 -0.0178 -0.3025
94695W        W37789  18.540  27.764  23.220 -0.1971  0.3825  0.3032
94696W        W37790  21.601  25.163  21.569  0.1100  0.1665  0.0858
94697W        W37791  20.684  26.941  21.802 -0.0600 -0.1953 -0.1435
94698W        W37792  23.137  27.282  22.016  0.2620 -0.1146  0.4492
94699W        W37793  20.095  28.521  20.975 -0.0106 -0.1491 -0.1542
94700W        W37794  23.243  25.213  19.659 -0.0442  0.1669 -0.2905
94701W        W37795  21.679  25.167  22.463  0.0885 -0.2367 -0.1453
94702W        W37796  18.843  26.510  19.448 -0.4086  0.0557  0.1626
94703W        W37797  19.391  27.141  21.630 -0.0977 -0.1448  0.2104
94704W        W37798  20.974  27.670  23.994 -0.4073 -0.0648 -0.0588
94705W        W37799  21.429  27.382  20.353  0.2230  0.0544  0.0906
94706W        W37800  18.738  28.281  20.886  0.2810 -0.2704 -0.1743
94707W        W37801  20.973  26.329  23.610  0.0242  0.3387  0.0466
94708W        W37802  21.174  29.704  24.615 -0.1128  0.4367 -0.1898
94709W        W37803  19.471  29.164  19.924  0.2929  0.0961 -0.1047
94710W        W37804  19.418  28.584  22.784  0.1589  0.1368 -0.1238
94711W        W37805  17.877  27.506  19.372 -0.2894  0.1176 -0.1366
94712W        W37806  19.147  25.138  21.887  0.0001 -0.1734 -0.0951
94713W        W37807  19.560  29.462  21.334  0.1108  0.1610  0.1736
94714W        W37808  22.684  25.798  21.460  0.2916  0.3406 -0.1756
94715W        W37809  19.482  25.793  25.083  0.2935  0.0128 -0.1906
94716W        W37810  22.444  24.874  21.470 -0.2656 -0.3121 -0.3581
94717W        W37811  18.997  28.137  21.582 -0.0512  0.1163  0.0375
94718W        W37812  22.511  28.383  21.364 -0.0181 -0.1965  0.0143
94719W        W37813  22.846  26.236  20.315 -0.2428  0.3064 -0.1339
94720W        W37814  20.902  27.240  21.403 -0.0094 -0.0722 -0.1183
94721W        W37815  18.929  27.546  23.521 -0.0787 -0.1240  0.3071
94722W        W37816  19.024  26.693  21.594  0.2103 -0.0725 -0.1115
94723W        W37817  18.369  25.809  24.398 -0.1547 -0.0498 -0.4015
94724W        W37818  18.727  25.186  22.114  0.1738  0.0567 -0.0583
94725W        W37819  20.808  28.278  22.617 -0.1478 -0.1368 -0.0333
94726W        W37820  18.957  26.545  21.080  0.1575 -0.0868 -0.1452
94727W        W37821  22.757  27.072  21.517 -0.0257 -0.1002  0.0238
94728W        W37822  19.854  28.036  21.087 -0.2966  0.1029  0.0993
94729W        W37823  17.914  26.863  21.392 -0.1373 -0.1498 -0.1327
94730W        W37824  20.610  26.176  24.189  0.2177  0.0598  0.1063
94731W        W37825  20.151  30.284  21.517 -0.1889  0.1111 -0.0618
94732W        W37826  23.104  27.980  22.694 -0.1676  0.3313  0.0576
94733W        W37827  20.454  27.576  21.680 -0.3279  0.0347  0.3343
94734W        W37828  19.171  25.907  22.374 -0.2283  0.3004  0.4108
94735W        W37829  18.789  26.141  20.793 -0.3576  0.1948 -0.0916
94736W        W37830  19.072  29.356  23.379 -0.3903  0.2372  0.0923
94737W        W37831  19.419  28.719  22.035  0.1781  0.0225 -0.0835
94738W        W37832  19.372  25.123  20.872  0.3630  0.1660 -0.1109
94739W        W37833  22.924  28.881  21.266 -0.0022 -0.0799 -0.0465
94740W        W37834  19.454  28.238  22.337  0.1293  0.0659 -0.1459
94741W        W37835  18.296  28.890  23.352 -0.0972 -0.0965 -0.0141
94742W        W37836  21.769  25.673  22.424 -0.0339 -0.0081 -0.1906
94743W        W37837  22.754  27.605  21.745  0.2314  0.1444  0.1333
94744W        W37838  21.714  24.821  20.766  0.3951  0.0605 -0.1792
94745W        W37839  19.543  26.455  20.297  0.3030 -0.1305 -0.1516
94746W        W37840  20.870  28.590  21.795  0.0852  0.1060 -0.2883
94747W        W37841  18.383  28.102  20.370 -0.0584 -0.0088  0.0842
94748W        W37842  18.817  25.663  20.587  0.0821  0.1265  0.0780
94749W        W37843  19.855  29.342  20.240 -0.1149  0.2035  0.2395
94750W        W37844  21.231  27.101  22.533 -0.3466 -0.0340 -0.1486
94751W        W37845  18.542  26.633  22.437 -0.0009  0.0620 -0.0285
94752W        W37846  21.318  27.806  22.432  0.1849 -0.2350  0.2014
94753W        W37847  18.880  27.656  19.637 -0.2545  0.1427  0.1857
94754W        W37848  20.104  28.184  24.194 -0.1495  0.2411 -0.0317
94755W        W37849  19.910  25.153  21.279 -0.0996  0.1474  0.2231
94756W        W37850  20.915  25.777  21.107  0.0884 -0.0345  0.0095
94757W        W37851  20.438  28.429  23.913  0.0789 -0.0185  0.0447
94758W        W37852  20.416  27.180  21.443 -0.1253 -0.2050  0.0025
94759W        W37853  21.847  27.545  20.516 -0.2020 -0.1944 -0.2634
94760W        W37854  21.432  24.807  20.317 -0.1456 -0.0384  0.0729
94761W        W37855  19.634  28.536  24.893  0.1537 -0.0964  0.2629
94762W        W37856  19.483  28.996  21.084  0.0142 -0.0477  0.0893
94763W        W37857  20.315  28.730  23.427  0.0092 -0.0626  0.0061
94764W        W37858  20.051  26.049  20.004 -0.2586  0.1035  0.0518
94765W        W37859  21.597  28.419  20.211  0.2967  0.2183  0.0296
94766W        W37860  19.366  28.261  24.047  0.1947  0.0949  0.1906
94767W        W37861  20.327  27.622  23.287  0.3429  0.0495 -0.0160
94768W        W37862  19.959  27.865  21.611  0.1907 -0.3355  0.0778
94769W        W37863  20.043  25.882  21.956 -0.2046  0.2195 -0.0485
94770W        W37864  20.197  27.009  19.972  0.1058 -0.3116 -0.4028
94771W        W37865  20.236  24.636  21.987  0.1369  0.0263  0.0435
94772W        W37866  18.523  29.271  18.569 -0.0293 -0.2051  0.2505
94773W        W37867  21.619  27.367  23.228  0.0571 -0.1387  0.0543
94774W        W37868  20.469  25.126  21.161  0.0547  0.2348 -0.4005
94775W        W37869  19.163  25.567  21.511 -0.1014  0.2174 -0.0040
94776W        W37870  22.564  27.020  23.897  0.0155  0.0750  0.2922
94777W        W37871  21.161  24.257  21.169 -0.1668 -0.1272 -0.1918
94778W        W37872  20.734  26.745  21.309  0.0333 -0.0303 -0.0602
94779W        W37873  19.408  26.780  21.233 -0.0685  0.4041 -0.0272
94780W        W37874  20.764  26.970  23.602  0.0039  0.0859  0.1725
94781W        W37875  19.338  28.903  23.113 -0.1405 -0.1477  0.2002
94782W        W37876  18.730  29.096  22.425 -0.0759  0.0267 -0.2557
94783W        W37877  21.720  28.110  22.503  0.3531 -0.0723  0.0527
94784W        W37878  20.927  27.490  22.485 -0.0232 -0.1224  0.0700
94785W        W37879  20.566  25.459  23.403 -0.1279  0.0953  0.2352
94786W        W37880  20.315  25.997  20.905 -0.1597 -0.2181  0.0353
94787W        W37881  19.522  28.095  21.529 -0.1639  0.3558  0.0063
94788W        W37882  19.237  28.185  21.001  0.1476  0.1479 -0.1760
94789W        W37883  20.554  25.897  23.217 -0.1427  0.1230 -0.0967
94790W        W37884  20.628  29.085  21.472 -0.1213 -0.2091  0.1032
94791W        W37885  18.918  28.890  19.643  0.0878 -0.0136 -0.2805
94792W        W37886  21.903  27.709  23.490 -0.0195  0.1301  0.2474
94793W        W37887  18.749  28.714  20.436  0.0502 -0.0498  0.0679
94794W        W37888  22.437  26.204  20.760  0.1056 -0.0433  0.0442
94795W        W37889  18.764  27.768  20.305  0.3219 -0.1609  0.2277
94796W        W37890  19.129  27.459  20.394 -0.2103  0.2974  0.3267
94797W        W37891  18.629  27.173  21.732  0.0704  0.0424 -0.2646
94798W        W37892  20.588  24.141  19.933  0.1482 -0.1440 -0.0794
94799W        W37893  22.910  27.554  20.057  0.2121  0.0274 -0.2856
94800W        W37894  19.913  26.880  23.074 -0.2088 -0.0067 -0.0600
94801W        W37895  20.708  27.047  22.338  0.0978 -0.2497 -0.3596
94802W        W37896  18.830  29.051  23.000 -0.1951 -0.1881 -0.3560
94803W        W37897  21.281  27.003  21.106  0.0942  0.0887 -0.0097
94804W        W37898  21.085  24.987  21.300 -0.0007 -0.0582  0.2728
94805W        W37899  21.672  27.523  22.685 -0.2443 -0.2042  0.1637
94806W        W37900  21.505  26.907  22.918 -0.3737 -0.0584 -0.0005
94807W        W37901  17.317  26.710  20.444  0.1356  0.1395 -0.4871
94808W        W37902  21.857  26.621  21.388 -0.0969  0.0744 -0.1955
94809W        W37903  20.303  26.655  21.488 -0.1306  0.0558  0.2963
94810W        W37904  19.760  30.206  20.415  0.5582  0.3377 -0.0599
94811W        W37905  20.851  27.871  22.121 -0.1648 -0.1703  0.0428
94812W        W37906  18.982  28.071  22.501 -0.0706  0.2891  0.0604
94813W        W37907  18.922  29.732  20.126 -0.1239  0.0620  0.1386
94814W        W37908  20.541  24.976  23.532  0.1512  0.2690 -0.0923
94815W        W37909  22.031  27.965  22.881 -0.0648 -0.3898  0.3214
94816W        W37910  21.468  26.074  21.019  0.1249 -0.1132 -0.3640
94817W        W37911  20.309  25.121  22.059 -0.1926 -0.0132 -0.0289
94818W        W37912  20.443  28.609  21.505 -0.4736 -0.0242  0.0302
94819W        W37913  22.261  25.985  21.581 -0.0490 -0.3434  0.2118
94820W        W37914  21.255  26.554  22.670 -0.0960 -0.1327  0.2931
94821W        W37915  19.701  27.835  23.933  0.0389 -0.1995 -0.0834
94822W        W37916  20.622  24.486  23.639  0.2228  0.0799  0.2978
94823W        W37917  21.149  27.966  21.186 -0.0191 -0.0751 -0.0510
94824W        W37918  21.189  28.259  22.226  0.2801  0.3538 -0.1637
94825W        W37919  18.495  28.805  19.966 -0.3545 -0.1831 -0.1542
94826W        W37920  20.530  26.592  22.872  0.1746  0.1037  0.0328
94827W        W37921  19.776  27.545  22.941 -0.0330  0.0877 -0.2687
94828W        W37922  21.602  26.667  20.898 -0.1811 -0.0530 -0.2189
94829W        W37923  18.892  28.281  22.042  0.3007 -0.3094 -0.1236
94830W        W37924  17.559  28.945  20.529 -0.2094 -0.1080  0.1387
94831W        W37925  18.484  28.094  22.833  0.2587 -0.1911 -0.0507
94832W        W37926  20.946  25.678  19.461 -0.3253 -0.0225  0.0746
94833W        W37927  19.443  27.726  21.230 -0.0998 -0.1248  0.0529
94834W        W37928  22.111  24.493  20.690  0.0822 -0.0496  0.1360
94835W        W37929  21.078  25.260  23.256 -0.1012  0.2229 -0.4966
94836W        W37930  20.729  26.500  20.357  0.1189  0.1209  0.2587
94837W        W37931  21.386  25.437  23.581  0.2502 -0.5179 -0.0332
94838W        W37932  19.643  27.003  23.640  0.1398 -0.1342  0.0332
94839W        W37933  22.097  28.617  21.029 -0.5665  0.3488 -0.4353
94840W        W37934  18.775  25.803  21.222 -0.1236 -0.4010 -0.0065
94841W        W37935  21.307  28.210  23.309  0.0822  0.1959  0.0039
94842W        W37936  19.691  26.547  23.393 -0.2213 -0.1876  0.1321
94843W        W37937  21.150  25.126  21.825  0.0156 -0.0488  0.0702
94844W        W37938  20.387  26.620  20.795 -0.1567  0.1469 -0.1729
94845W        W37939  19.835  27.954  23.244  0.1671 -0.2863  0.0216
94846W        W37940  20.700  26.374  21.821 -0.0696 -0.1722  0.1908
94847W        W37941  19.442  27.890  20.586  0.2760  0.0338 -0.0450
94848W        W37942  22.503  26.642  22.050  0.1362  0.1981 -0.1387
94849W        W37943  19.460  27.157  23.134 -0.0692  0.1623 -0.2442
94850W        W37944  21.462  27.373  22.167  0.5642  0.0775 -0.1900
94851W        W37945  20.942  26.673  19.934 -0.2386 -0.3765  0.0676
94852W        W37946  19.166  29.247  21.685 -0.2029  0.1223 -0.1246
94853W        W37947  18.958  26.416  22.178  0.2444  0.0298  0.1666
94854W        W37948  21.192  26.827  21.579  0.0475 -0.2025  0.1602
94855W        W37949  19.859  24.979  21.904 -0.0838 -0.3115  0.1142
94856W        W37950  22.048  25.446  22.835  0.1182  0.1271 -0.1573
94857W        W37951  20.163  27.277  22.879 -0.0266  0.2315  0.1326
94858W        W37952  20.545  27.911  22.501  0.1317 -0.1026  0.2239
94859W        W37953  17.490  27.502  23.502 -0.0232  0.1279  0.2634
94860W        W37954  21.287  28.104  22.816 -0.0211 -0.0725 -0.1197
94861W        W37955  21.099  26.818  20.371  0.1135 -0.0409  0.1743
94862W        W37956  22.425  26.495  21.603  0.2883 -0.0875 -0.1427
94863W        W37957  21.120  26.449  21.215  0.1889 -0.0560 -0.1885
94864W        W37958  21.475  26.384  23.160 -0.0448  0.2765  0.1997
94865W        W37959  18.726  25.701  22.245 -0.1108 -0.1104 -0.0633
94866W        W37960  21.520  28.921  23.584 -0.2204 -0.1227 -0.5002
94867W        W37961  17.675  26.986  20.287  0.0458 -0.1656 -0.0101
94868W        W37962  20.837  27.501  24.681 -0.0989  0.0665 -0.1623
94869W        W37963  19.628  29.316  20.757 -0.0252  0.0425  0.2449
94870W        W37964  20.071  28.909  21.433  0.3836  0.2152 -0.2083
94871W        W37965  19.231  25.917  21.041 -0.0298 -0.6643  0.0522
94872W        W37966  18.402  26.807  21.459 -0.0984  0.0150  0.0887
94873W        W37967  19.272  29.757  24.528  0.0209 -0.0378  0.1261
94874W        W37968  19.001  24.825  19.313  0.0581  0.0422 -0.1611
94875W        W37969  19.197  27.180  20.887 -0.2059  0.0432  0.3120
94876W        W37970  19.432  27.262  24.124 -0.2146 -0.0838 -0.2274
94877W        W37971  22.196  27.449  24.427  0.0714 -0.4295  0.1433
94878W        W37972  20.904  27.268  20.519  0.1969 -0.1621  0.0335
94879W        W37973  22.347  25.509  21.760  0.5092  0.0933  0.0245
94880W        W37974  19.575  27.605  21.750  0.1503 -0.0181  0.0444
94881W        W37975  21.020  25.755  23.034 -0.2793 -0.2579 -0.0240
94882W        W37976  20.362  28.424  22.674 -0.0824  0.2621  0.2173
94883W        W37977  18.809  27.347  22.353 -0.2081 -0.0895 -0.1834
94884W        W37978  19.930  29.858  21.433 -0.6003  0.2064 -0.2072
94885W        W37979  22.416  24.939  20.864 -0.0761  0.1583 -0.0775
94886W        W37980  21.520  25.951  21.988 -0.2122 -0.0406  0.0278
94887W        W37981  22.237  26.993  21.756 -0.3826 -0.0624  0.1520
94888W        W37982  22.840  25.970  22.424 -0.1063  0.0270 -0.0560
94889W        W37983  22.263  28.010  22.431  0.0204 -0.4026  0.1581
94890W        W37984  19.822  26.290  21.766 -0.0388 -0.0158 -0.0332
94891W        W37985  20.696  29.083  23.284 -0.0690 -0.1381  0.2516
94892W        W37986  21.986  26.436  21.857  0.3300  0.2059 -0.2430
94893W        W37987  19.248  27.913  21.932  0.3028 -0.1358 -0.0486
94894W        W37988  18.002  26.525  22.930 -0.0818 -0.0629 -0.0575
94895W        W37989  20.167  26.774  23.555 -0.0269  0.2558 -0.3723
94896W        W37990  20.141  28.596  21.965 -0.1405  0.3025  0.1275
94897W        W37991  19.600  25.355  21.641  0.2151  0.0392  0.3552
94898W        W37992  20.324  28.009  20.202  0.2036  0.1992  0.3624
94899W        W37993  18.772  26.831  22.926  0.0946 -0.0576  0.0587
94900W        W37994  18.427  26.404  24.502  0.0129 -0.2236  0.3022
94901W        W37995  18.734  29.984  20.616  0.1135  0.3894  0.3665
94902W        W37996  19.750  28.198  21.936 -0.0051  0.1051  0.2590
94903W        W37997  20.009  26.455  21.056  0.0521 -0.2004 -0.2335
94904W        W37998  20.560  28.379  22.244  0.0957  0.0574  0.0511
94905W        W37999  20.770  26.185  20.814 -0.0207 -0.1522 -0.0237
94906W        W38000  18.066  28.071  22.575 -0.0656  0.0931  0.0107
94907W        W38001  17.778  28.099  22.125  0.4101  0.1875 -0.0129
94908W        W38002  18.807  29.152  20.108  0.3990 -0.0669 -0.0721
94909W        W38003  19.544  28.802  21.578  0.1016 -0.0677 -0.0096
94910W        W38004  23.144  27.593  23.046  0.0502  0.0237  0.0501
94911W        W38005  22.009  24.947  18.116 -0.0016  0.0125 -0.1582
94912W        W38006  22.359  25.785  21.013 -0.0833  0.3400  0.1523
94913W        W38007  21.614  25.668  20.675 -0.1198  0.0422  0.2135
94914W        W38008  21.141  28.858  25.108  0.4922  0.0929 -0.4176
94915W        W38009  20.458  28.069  23.505 -0.2110  0.0337 -0.2381
94916W        W38010  20.284  25.190  20.677  0.0824 -0.1562 -0.0411
94917W        W38011  20.838  25.596  24.039 -0.2020 -0.3402  0.3308
94918W        W38012  22.087  24.819  22.195  0.1932 -0.3958  0.2036
94919W        W38013  19.070  29.210  23.988 -0.0537 -0.1708 -0.0511
94920W        W38014  21.057  29.591  20.522 -0.2945  0.0747 -0.0924
94921W        W38015  17.731  27.485  20.129  0.1828  0.0383  0.2922
94922W        W38016  19.345  26.177  21.892 -0.1071  0.0237  0.1069
94923W        W38017  21.988  24.871  21.286 -0.2655  0.1097 -0.0614
94924W        W38018  19.968  27.748  20.537  0.2281  0.3544  0.0989
94925W        W38019  20.022  29.084  21.960  0.2393 -0.1947  0.1211
94926W        W38020  19.552  29.045  22.628 -0.2140 -0.2585 -0.0861
94927W        W38021  20.304  27.489  22.428 -0.0004 -0.0084  0.0343
94928W        W38022  20.330  30.530  23.165  0.1964  0.0078  0.1154
94929W        W38023  17.859  26.845  20.854 -0.0547  0.2341 -0.1122
94930W        W38024  23.011  26.133  20.899  0.0841 -0.0903 -0.3383
94931W        W38025  20.635  25.574  22.716  0.0171  0.2401 -0.0905
94932W        W38026  22.038  25.356  22.141 -0.2627  0.4656 -0.2314
94933W        W38027  22.151  25.352  21.315 -0.0555 -0.2030 -0.0676
94934W        W38028  20.282  24.949  21.584 -0.0305 -0.2212  0.1259
94935W        W38029  19.966  28.413  21.515 -0.0415 -0.1795 -0.0594
94936W        W38030  18.455  26.317  22.880  0.2603  0.0177  0.2014
94937W        W38031  19.784  26.800  21.549 -0.0815  0.0783  0.0460
94938W        W38032  22.808  26.920  23.302  0.3311  0.0237  0.4518
94939W        W38033  20.922  25.971  20.426  0.1923  0.0273  0.0506
94940W        W38034  22.258  28.801  23.874  0.2206  0.1923  0.0994
94941W        W38035  19.785  25.397  22.130  0.2905  0.1501  0.4977
94942W        W38036  20.553  25.228  19.301  0.1032 -0.1504 -0.1196
94943W        W38037  19.326  27.331  22.671 -0.1043 -0.1979 -0.0746
94944W        W38038  18.863  26.026  21.876  0.0208  0.0037 -0.1528
94945W        W38039  21.505  28.712  23.100  0.1426  0.3155  0.1013
94946W        W38040  19.674  25.854  21.544  0.0249  0.0764  0.2545
94947W        W38041  21.163  27.675  20.574  0.0668  0.0690  0.0056
94948W        W38042  21.516  26.267  22.388 -0.2108 -0.1375  0.3317
94949W        W38043  19.725  28.657  20.125  0.0232 -0.1074 -0.0026
94950W        W38044  21.210  26.324  20.638 -0.2256 -0.1064  0.1691
94951W        W38045  22.025  29.212  21.529  0.1244 -0.0033  0.1288
94952W        W38046  19.346  26.169  23.165  0.1416 -0.2010  0.1866
94953W        W38047  20.089  28.216  22.277 -0.1697 -0.2272 -0.2266
94954W        W38048  20.698  26.536  22.420 -0.0769 -0.0503  0.3302
94955W        W38049  21.521  25.435  22.009 -0.3201  0.0445 -0.1758
94956W        W38050  19.573  26.323  21.328 -0.0303  0.1405  0.0735
94957W        W38051  20.042  27.650  22.064 -0.1302 -0.0741  0.1648
94958W        W38052  22.768  24.970  22.659  0.1292  0.0231 -0.1130
94959W        W38053  21.772  28.289  23.336 -0.0681 -0.0609 -0.1306
94960W        W38054  20.352  29.926  21.014 -0.2009  0.0725 -0.1407
94961W        W38055  22.033  25.672  23.704  0.0711  0.0224  0.0591
94962W        W38056  20.782  28.882  23.794  0.0625  0.0103 -0.1539
94963W        W38057  20.170  28.310  23.135 -0.3356 -0.0731  0.3077
94964W        W38058  18.655  25.925  20.101 -0.0597  0.0240 -0.5382
94965W        W38059  20.886  27.888  23.294 -0.0173  0.1518  0.1548
94966W        W38060  19.365  27.154  22.215 -0.0362  0.1874  0.0345
94967W        W38061  20.437  29.359  22.074  0.1565 -0.0976  0.0140
94968W        W38062  22.253  28.478  20.514  0.2025 -0.1440  0.0095
94969W        W38063  19.885  27.024  22.005  0.2138  0.4002  0.1489
94970W        W38064  21.150  26.244  22.023 -0.2014 -0.0723 -0.0051
94971W        W38065  20.672  25.816  22.282 -0.1127 -0.2971  0.0893
94972W        W38066  22.193  25.867  20.465  0.3440  0.2546  0.0401
94973W        W38067  22.393  24.183  22.106  0.3444 -0.5634  0.1340
94974W        W38068  18.996  27.453  24.260  0.1422  0.0302 -0.2403
94975W        W38069  17.368  27.773  19.838 -0.2561 -0.2161  0.2871
94976W        W38070  18.616  27.356  20.013  0.1055  0.1342 -0.3034
94977W        W38071  19.011  27.251  23.144  0.3097  0.1108  0.0774
94978W        W38072  21.180  25.910  22.387  0.1890 -0.2088 -0.0311
94979W        W38073  17.729  27.553  22.026 -0.2581 -0.0626 -0.1830
94980W        W38074  20.499  26.302  21.213 -0.6087 -0.0469  0.2074
94981W        W38075  19.868  26.413  22.286  0.2403 -0.2498  0.1664
94982W        W38076  20.482  27.589  20.661 -0.0661 -0.1279 -0.0753
94983W        W38077  18.029  27.511  22.506  0.1564  0.0024 -0.1563
94984W        W38078  17.768  25.060  21.175 -0.0303  0.0294 -0.0334
94985W        W38079  21.016  27.684  21.624  0.2679 -0.4733  0.0004
94986W        W38080  21.628  26.840  22.394  0.0423  0.1873  0.2785
94987W        W38081  18.518  26.384  20.441  0.2370 -0.0430 -0.4134
94988W        W38082  22.042  27.495  23.015  0.0656  0.3317 -0.0411
94989W        W38083  17.940  27.782  20.604 -0.0677 -0.1256 -0.0179
94990W        W38084  19.947  27.154  24.799 -0.1987  0.2050 -0.2403
94991W        W38085  19.505  23.940  22.084  0.1654  0.0840  0.3545
94992W        W38086  18.659  25.363  20.186 -0.1403 -0.1886 -0.0458
94993W        W38087  21.707  26.095  21.491  0.4323  0.0280 -0.0281
94994W        W38088  20.535  28.882  21.930 -0.1037  0.2691 -0.2700
94995W        W38089  20.292  28.108  20.733 -0.1641  0.3088 -0.1991
94996W        W38090  21.131  26.812  22.091 -0.3031 -0.0908 -0.0171
94997W        W38091  22.832  28.288  23.714  0.1097  0.0180 -0.0681
94998W        W38092  18.495  24.792  22.321 -0.1624 -0.2873  0.2523
94999W        W38093  19.619  27.294  21.205 -0.1878  0.1155  0.2435
95000W        W38094  19.846  27.416  23.451 -0.1281 -0.1362 -0.2075
95001W        W38095  21.731  27.854  20.836 -0.3265 -0.2233 -0.0310
95002W        W38096  22.527  25.016  22.066 -0.2179 -0.1802 -0.2605
95003W        W38097  21.371  25.321  21.053  0.1031  0.0555  0.1356
95004W        W38098  19.049  25.447  24.116 -0.2776  0.2133 -0.0616
95005W        W38099  19.377  27.961  23.566 -0.4058 -0.4117  0.0810
95006W        W38100  22.335  27.696  21.992 -0.0574  0.1231  0.1030
95007W        W38101  19.694  25.998  20.895  0.1603  0.1026  0.1509
95008W        W38102  20.436  25.638  21.266  0.0570 -0.2874  0.0260
95009W        W38103  19.732  27.827  22.399  0.1942  0.0635 -0.3548
95010W        W38104  19.322  25.648  21.944  0.0922 -0.0202 -0.2290
95011W        W38105  19.624  28.536  21.042  0.2751  0.0269  0.1847
95012W        W38106  20.458  27.045  23.228 -0.0957 -0.2641 -0.3653
95013W        W38107  21.218  28.199  21.703 -0.1608  0.2024 -0.0763
95014W        W38108  22.333  27.036  23.061  0.1867 -0.1874 -0.1978
95015W        W38109  19.632  25.906  20.375  0.3134  0.1448  0.0951
95016W        W38110  22.309  27.443  21.504 -0.0209  0.4549  0.1011
95017W        W38111  21.246  29.108  23.071  0.1031  0.1569 -0.1419
95018W        W38112  23.231  29.220  23.497 -0.2144  0.2693  0.1756
95019W        W38113  19.574  28.585  23.783 -0.1554 -0.1251 -0.3168
95020W        W38114  21.310  27.273  21.712 -0.1055  0.3171  0.0128
95021W        W38115  18.474  25.593  23.967 -0.0053 -0.0253 -0.0136
95022W        W38116  18.906  27.628  21.370  0.0788  0.0505 -0.1254
95023W        W38117  20.888  26.726  20.851  0.0308 -0.0355 -0.1648
95024W        W38118  22.637  28.100  21.857 -0.0738  0.2211 -0.1757
95025W        W38119  19.227  26.734  23.408  0.0012 -0.0405 -0.2168
95026W        W38120  20.053  25.571  21.061  0.2060 -0.3167  0.2614
95027W        W38121  19.935  27.616  25.417  0.4297 -0.2928  0.0063
95028W        W38122  20.572  28.025  23.015  0.0195  0.4015 -0.1599
95029W        W38123  18.684  27.166  26.985 -0.1105  0.2940 -0.2022
95030W        W38124  19.798  26.729  25.377 -0.0373 -0.0127 -0.0039
95031W        W38125  21.531  26.982  23.977  0.1869  0.1091  0.1263
95032W        W38126  20.284  25.940  24.561 -0.0492  0.0378  0.0401
95033W        W38127  18.059  26.761  24.489  0.0107  0.1508 -0.0053
95034W        W38128  21.056  30.217  24.817  0.2520 -0.0352  0.2092
95035W        W38129  18.355  25.101  25.714 -0.0073 -0.0475  0.2385
95036W        W38130  20.242  27.877  25.166  0.0080 -0.0088 -0.0113
95037W        W38131  22.096  30.281  25.588 -0.0291  0.1437 -0.1956
95038W        W38132  21.132  26.048  23.979 -0.0214 -0.1959 -0.2112
95039W        W38133  19.315  26.439  26.772  0.0529 -0.0815  0.1870
95040W        W38134  19.219  28.910  26.664 -0.3984 -0.3006  0.0911
95041W        W38135  21.859  25.615  24.201  0.4112  0.0026  0.1275
95042W        W38136  17.935  25.832  27.057  0.0733 -0.3237 -0.2491
95043W        W38137  20.260  26.989  28.073  0.3801  0.1521  0.1152
95044W        W38138  17.632  26.533  24.404  0.1366 -0.2474  0.0782
95045W        W38139  18.663  27.561  25.473  0.1691 -0.3477  0.4792
95046W        W38140  18.682  26.413  25.056  0.1358  0.1299  0.1805
95047W        W38141  20.456  29.069  24.183 -0.0379  0.0788 -0.0341
95048W        W38142  21.273  26.444  26.606  0.2664  0.1353 -0.0524
95049W        W38143  20.773  24.579  26.911  0.1460  0.3402 -0.4064
95050W        W38144  20.863  26.668  24.367  0.0589 -0.1894 -0.1822
95051W        W38145  18.739  25.272  23.715  0.0428  0.3018  0.0956
95052W        W38146  17.938  26.376  24.765  0.2403  0.0251  0.2039
95053W        W38147  20.559  27.691  25.962 -0.3833 -0.0611  0.1794
95054W        W38148  21.101  27.517  26.020  0.1154  0.6011 -0.1939
95055W        W38149  20.116  27.144  25.393 -0.0810 -0.0745 -0.0248
95056W        W38150  20.050  27.490  26.738  0.1017  0.0946 -0.2731
95057W        W38151  20.282  28.003  25.692 -0.0255  0.2868 -0.3093
95058W        W38152  21.414  26.702  27.417  0.1396  0.0107  0.1923
95059W        W38153  18.458  27.388  24.446 -0.0212  0.1700 -0.2235
95060W        W38154  17.341  28.364  24.336  0.0768 -0.1037 -0.2132
95061W        W38155  19.473  29.000  25.371  0.0806  0.2019  0.1415
95062W        W38156  20.715  27.962  24.953 -0.1570 -0.1358 -0.2111
95063W        W38157  20.796  30.537  26.562  0.1921 -0.2169  0.3323
95064W        W38158  20.241  28.689  27.883  0.1420 -0.2614  0.1607
95065W        W38159  18.748  27.003  23.530  0.0122 -0.0791  0.1180
95066W        W38160  20.473  27.907  27.624  0.0891 -0.0715 -0.3992
95067W        W38161  18.451  27.946  26.870  0.3026 -0.1922 -0.1414
95068W        W38162  21.148  27.598  27.411  0.0814  0.1507  0.1153
95069W        W38163  21.138  27.830  25.203  0.1809 -0.0977  0.1676
95070W        W38164  19.825  29.243  24.971  0.2165  0.2569 -0.0713
95071W        W38165  20.835  26.975  22.842 -0.0989 -0.0119 -0.1857
95072W        W38166  20.146  26.105  27.338  0.0576  0.4589  0.1023
95073W        W38167  18.861  27.952  25.896 -0.1139 -0.1049 -0.3459
95074W        W38168  20.977  26.620  27.554 -0.0505 -0.0077 -0.0513
95075W        W38169  18.719  28.125  24.700  0.0807  0.0119  0.0179
95076W        W38170  21.475  25.593  25.940 -0.1056 -0.2703 -0.1809
95077W        W38171  19.725  25.551  23.255  0.2194  0.1317 -0.2752
95078W        W38172  20.423  25.389  23.875 -0.0157  0.3364  0.1788
95079W        W38173  20.001  25.651  25.838  0.2088  0.1357 -0.1377
95080W        W38174  20.618  28.896  26.782 -0.1547  0.1699 -0.0909
95081W        W38175  18.843  26.370  26.287  0.2813 -0.1772 -0.3675
95082W        W38176  20.974  28.343  25.867  0.0198  0.0759  0.0636
95083W        W38177  21.011  26.209  24.415 -0.1444 -0.1897  0.0181
95084W        W38178  19.514  27.556  27.532 -0.3489  0.0031  0.3466
95085W        W38179  18.924  28.752  26.105  0.1604  0.1879  0.0215
95086W        W38180  18.616  27.824  24.304 -0.0965 -0.0145 -0.0759
95087W        W38181  23.171  27.838  23.936 -0.3775 -0.0734  0.2135
95088W        W38182  22.054  29.804  25.595 -0.0291 -0.1848  0.0302
95089W        W38183  21.385  28.593  24.320  0.0913 -0.0062  0.0759
95090W        W38184  17.950  27.161  24.758 -0.0204  0.2426  0.1504
95091W        W38185  19.390  26.553  27.395  0.2662 -0.0096 -0.0281
95092W        W38186  16.986  26.535  27.268  0.1745 -0.0002 -0.1949
95093W        W38187  18.571  24.823  22.827 -0.3577 -0.0445 -0.2434
95094W        W38188  21.427  29.110  28.922 -0.2569 -0.0044  0.0328
95095W        W38189  17.372  30.395  25.744 -0.2659 -0.2678 -0.0424
95096W        W38190  21.290  26.908  24.712  0.4257  0.1862 -0.1128
95097W        W38191  19.702  28.101  25.142 -0.0875 -0.0742 -0.1241
95098W        W38192  20.476  28.655  26.310 -0.4325 -0.3675  0.4740
95099W        W38193  21.634  24.659  25.472 -0.0148 -0.0854 -0.1670
95100W        W38194  19.841  25.076  26.369  0.0037 -0.1686  0.3668
95101W        W38195  21.637  26.675  26.252  0.1102  0.0550 -0.1044
95102W        W38196  20.671  27.454  22.969  0.0334  0.0538  0.0952
95103W        W38197  20.359  25.425  24.795 -0.2220 -0.0916 -0.2071
95104W        W38198  21.285  27.376  27.871  0.0605  0.0873  0.1218
95105W        W38199  23.769  27.629  24.182  0.0864 -0.0508  0.1626
95106W        W38200  18.612  28.329  26.116  0.1170  0.0032 -0.0725
95107W        W38201  20.306  26.151  26.488 -0.2472  0.1300  0.1931
95108W        W38202  20.803  27.020  27.826  0.0086 -0.3212 -0.0505
95109W        W38203  18.389  29.764  25.089 -0.2993  0.0393  0.0645
95110W        W38204  16.968  27.249  25.107 -0.2495  0.0173  0.1314
95111W        W38205  19.825  26.628  23.938  0.5142 -0.0585  0.1845
95112W        W38206  17.388  25.797  27.966 -0.1023 -0.2477  0.2231
95113W        W38207  19.100  28.318  26.198 -0.0761  0.3992  0.0188
95114W        W38208  22.352  24.448  24.978 -0.0284 -0.3325  0.2005
95115W        W38209  19.431  26.451  27.935  0.0753  0.3449  0.0418
95116W        W38210  20.696  24.912  25.457 -0.0778  0.1455 -0.0422
95117W        W38211  19.388  27.459  23.674 -0.0486  0.0560  0.1677
95118W        W38212  23.058  29.422  23.995  0.1577 -0.1729  0.1787
95119W        W38213  21.956  27.584  26.246 -0.0222 -0.1082  0.1652
95120W        W38214  20.159  29.401  23.949 -0.1007  0.1377  0.1326
95121W        W38215  17.649  27.234  25.711 -0.2434  0.2579  0.0787
95122W        W38216  18.210  27.176  26.221 -0.3788  0.0202 -0.1555
95123W        W38217  17.240  25.117  28.154  0.0441 -0.1506  0.2771
95124W        W38218  18.735  25.885  26.399 -0.3099  0.1621 -0.0033
95125W        W38219  20.987  27.414  26.521  0.0005 -0.1922  0.0929
95126W        W38220  18.673  25.069  26.279 -0.1430 -0.0131  0.1933
95127W        W38221  20.761  27.233  24.049  0.1239  0.1822 -0.1709
95128W        W38222  19.561  27.176  25.411  0.2696  0.0398  0.0563
95129W        W38223  18.343  27.340  25.011  0.0757 -0.1739 -0.2118
95130W        W38224  21.422  25.090  25.913  0.0144  0.2061 -0.1176
95131W        W38225  20.570  28.223  24.493 -0.0179 -0.1511  0.2268
95132W        W38226  21.089  28.426  27.473  0.1071 -0.1907 -0.3118
95133W        W38227  21.619  27.881  23.074  0.1070 -0.4477 -0.0463
95134W        W38228  18.984  27.872  26.875 -0.2331  0.2535 -0.2092
95135W        W38229  18.905  26.045  23.710  0.3049  0.3469  0.1027
95136W        W38230  19.162  29.720  25.930  0.1774  0.1154 -0.0787
95137W        W38231  20.313  28.148  26.262 -0.1621  0.1751  0.1334
95138W        W38232  18.029  27.496  23.559  0.2185 -0.3273 -0.1504
95139W        W38233  21.406  28.165  26.083 -0.1972  0.0318  0.0378
95140W        W38234  18.264  28.199  24.128 -0.0649 -0.3930 -0.2292
95141W        W38235  18.272  28.462  25.525 -0.0984 -0.2257 -0.2137
95142W        W38236  20.818  26.195  26.855 -0.1498  0.3661 -0.2537
95143W        W38237  21.816  28.097  26.915 -0.1630  0.1476  0.1730
95144W        W38238  20.049  27.106  26.231  0.1842 -0.2003  0.0633
95145W        W38239  18.662  25.942  24.748 -0.1479  0.2019  0.2838
95146W        W38240  20.662  28.870  24.706 -0.1760 -0.1521 -0.0516
95147W        W38241  17.259  27.600  24.841 -0.3557 -0.0864  0.0462
95148W        W38242  17.793  27.077  23.506 -0.1891  0.3599 -0.1742
95149W        W38243  19.229  27.516  24.740 -0.1302  0.0747  0.0808
95150W        W38244  21.937  25.318  25.020 -0.2815  0.2677 -0.1229
95151W        W38245  16.875  27.378  26.697  0.1396  0.0117  0.0458
95152W        W38246  21.391  27.027  26.507 -0.1089  0.0839  0.0932
95153W        W38247  17.999  25.717  23.584 -0.1220 -0.2008  0.2052
95154W        W38248  17.664  30.096  27.603  0.0084  0.1559  0.0806
95155W        W38249  19.095  26.710  25.160 -0.2008 -0.2656  0.1546
95156W        W38250  22.321  27.537  22.509 -0.1863  0.3943 -0.0980
95157W        W38251  18.090  27.108  27.447  0.0649 -0.3241  0.1016
95158W        W38252  21.075  28.254  24.096 -0.2972 -0.0320  0.1779
95159W        W38253  22.116  26.122  23.900 -0.2768 -0.2150 -0.1497
95160W        W38254  19.353  27.027  24.854 -0.0867  0.1950  0.2006
95161W        W38255  18.090  28.527  27.766  0.0480  0.0346 -0.3269
95162W        W38256  20.676  28.778  25.494 -0.1442  0.1438 -0.0031
95163W        W38257  20.066  27.744  26.129  0.4000 -0.0206 -0.1380
95164W        W38258  20.607  25.888  23.738  0.2122 -0.1198  0.0312
95165W        W38259  23.643  27.177  24.960  0.1909 -0.0294 -0.0804
95166W        W38260  18.583  27.505  26.630 -0.3797 -0.0240  0.1798
95167W        W38261  19.650  28.313  28.978  0.3066 -0.1921  0.0265
95168W        W38262  21.489  29.011  25.470  0.4013  0.0850 -0.0965
95169W        W38263  19.630  25.311  25.989 -0.1072  0.2920 -0.3518
95170W        W38264  20.920  27.386  21.971 -0.2037  0.0019  0.0594
95171W        W38265  19.849  26.162  24.474  0.1790  0.1577 -0.1442
95172W        W38266  18.791  28.346  25.631 -0.1103  0.0154  0.2440
95173W        W38267  21.883  26.246  25.295  0.0727  0.2746  0.1770
95174W        W38268  20.660  27.574  25.278 -0.0984  0.1500 -0.0012
95175W        W38269  20.502  24.903  27.170 -0.1661  0.0569  0.0335
95176W        W38270  19.419  27.086  29.401  0.2999 -0.2409  0.0666
95177W        W38271  20.407  25.652  25.295 -0.0403 -0.0463 -0.1912
95178W        W38272  21.601  26.534  25.643 -0.0609 -0.2237 -0.0963
95179W        W38273  19.574  25.546  24.299  0.3307 -0.2486 -0.0603
95180W        W38274  19.954  25.416  26.894  0.5387  0.3862  0.3462
95181W        W38275  19.290  28.044  26.516  0.0374  0.0436 -0.2039
95182W        W38276  17.367  28.057  27.684  0.1759 -0.0366  0.0735
95183W        W38277  21.640  27.377  28.287  0.1690  0.0966  0.2632
95184W        W38278  20.596  26.406  23.295  0.2868 -0.1837 -0.1380
95185W        W38279  19.885  26.668  28.016 -0.0325 -0.0510 -0.1230
95186W        W38280  19.875  26.634  24.882  0.3406  0.0130 -0.1270
95187W        W38281  19.027  29.152  24.498  0.2670 -0.0557 -0.0397
95188W        W38282  20.284  26.289  23.767  0.0626 -0.0392 -0.2005
95189W        W38283  20.675  26.526  25.477  0.1984 -0.2347 -0.1217
95190W        W38284  20.692  28.150  26.713 -0.0014 -0.3297  0.0429
95191W        W38285  20.133  29.244  24.552  0.1654 -0.1283 -0.4229
95192W        W38286  21.525  27.730  26.792 -0.2993  0.0883 -0.2864
95193W        W38287  18.134  29.084  24.648  0.1646  0.1489  0.0499
95194W        W38288  20.352  26.839  25.707  0.0710  0.1177 -0.2674
95195W        W38289  19.162  27.522  25.903  0.0012 -0.0954  0.1394
95196W        W38290  19.847  26.142  23.639 -0.1786  0.3300 -0.1871
95197W        W38291  18.877  26.374  22.689  0.1033  0.2791 -0.2489
95198W        W38292  21.534  25.853  23.328  0.2720  0.0224  0.2655
95199W        W38293  22.056  27.189  23.470 -0.1591 -0.2322 -0.2200
95200W        W38294  19.778  25.800  27.264 -0.2670 -0.3891  0.1328
95201W        W38295  20.244  26.436  26.904  0.0920 -0.4093 -0.0512
95202W        W38296  18.253  27.093  26.702  0.4180 -0.2251  0.3639
95203W        W38297  21.121  27.416  25.490  0.0297 -0.0764 -0.2796
95204W        W38298  22.019  25.073  24.347 -0.2157 -0.0934 -0.3580
95205W        W38299  21.749  29.007  26.815  0.4219  0.1500  0.2677
95206W        W38300  20.627  27.193  26.790 -0.3544  0.0076  0.3599
95207W        W38301  18.741  25.941  23.240 -0.1753  0.1857  0.2239
95208W        W38302  20.210  26.843  27.199 -0.1450  0.2270  0.4140
95209W        W38303  18.023  26.921  25.853  0.0350  0.3616  0.1374
95210W        W38304  17.838  28.462  24.537  0.1642  0.2713 -0.0001
95211W        W38305  19.603  27.579  26.234  0.2291  0.1614  0.0325
95212W        W38306  18.927  26.399  24.584  0.5469 -0.2536 -0.0335
95213W        W38307  19.165  27.974  24.460 -0.1173 -0.5164 -0.2558
95214W        W38308  19.306  25.964  27.213  0.2694  0.2923  0.1983
95215W        W38309  21.587  28.559  27.443 -0.0000  0.2917 -0.0913
95216W        W38310  18.835  27.177  25.072 -0.1154  0.0756  0.2873
95217W        W38311  19.530  26.207  25.857 -0.0673  0.1972  0.2236
95218W        W38312  20.516  27.687  26.484 -0.1732 -0.1647  0.3574
95219W        W38313  21.343  28.118  25.600  0.3609  0.0289  0.2461
95220W        W38314  20.901  26.846  26.372 -0.0733 -0.1227  0.0847
95221W        W38315  19.337  28.472  27.361  0.1685  0.0472  0.4587
95222W        W38316  20.958  25.627  26.036 -0.3024 -0.2190  0.3102
95223W        W38317  21.907  29.717  23.532  0.0927 -0.0148  0.2570
95224W        W38318  22.177  27.643  26.723 -0.0137  0.2969  0.0109
95225W        W38319  19.753  29.440  26.048  0.3188  0.1152  0.2274
95226W        W38320  18.669  27.618  27.159 -0.0434 -0.0017  0.0085
95227W        W38321  19.873  28.301  25.820 -0.1125 -0.1012 -0.1296
95228W        W38322  19.038  26.054  25.064 -0.2574  0.0391 -0.1420
95229W        W38323  19.018  29.271  27.640  0.2050  0.0958 -0.0726
95230W        W38324  20.321  27.205  23.750 -0.0076 -0.2103 -0.1491
95231W        W38325  18.007  28.963  26.100  0.0102 -0.0790 -0.2331
95232W        W38326  20.893  25.547  24.538  0.1686 -0.2729 -0.3088
95233W        W38327  21.160  29.344  24.224 -0.2237 -0.2088 -0.0863
95234W        W38328  20.142  26.397  25.527 -0.0534  0.0769 -0.0745
95235W        W38329  22.563  26.195  27.133 -0.0177 -0.3880  0.0768
95236W        W38330  21.098  27.221  23.240 -0.0828  0.1578 -0.0933
95237W        W38331  22.079  26.176  26.470 -0.2502 -0.4055  0.1350
95238W        W38332  17.803  25.831  27.636  0.0017  0.1654  0.2387
95239W        W38333  19.628  28.567  25.440  0.0337  0.1531  0.2369
95240W        W38334  17.325  26.190  26.089 -0.4525 -0.2551  0.1927
95241W        W38335  20.349  29.144  27.906  0.1686 -0.1214 -0.1676
95242W        W38336  18.350  27.554  27.616  0.2133  0.1242  0.0797
95243W        W38337  19.600  27.183  26.581  0.1713 -0.3310 -0.4218
95244W        W38338  19.518  25.063  23.910 -0.0825 -0.1768  0.2073
95245W        W38339  19.507  27.697  26.753  0.1249 -0.0650  0.2431
95246W        W38340  20.950  27.876  25.674 -0.1983 -0.2182 -0.0882
95247W        W38341  19.929  27.129  24.025  0.1531  0.2018 -0.0250
95248W        W38342  20.618  26.940  24.744 -0.0457 -0.2263  0.0630
95249W        W38343  18.386  27.999  25.698  0.0368 -0.4180 -0.0677
95250W        W38344  19.703  27.728  25.792  0.0090  0.0704 -0.1824
95251W        W38345  20.930  25.652  25.139  0.1833  0.0214 -0.2420
95252W        W38346  19.665  27.989  24.519  0.0836  0.0183  0.0212
95253W        W38347  19.672  25.918  28.075 -0.2544 -0.1860 -0.1968
95254W        W38348  22.023  28.252  24.333 -0.3505 -0.1397  0.0723
95255W        W38349  18.923  26.681  25.924  0.1298  0.0035 -0.1998
95256W        W38350  21.133  26.292  27.194 -0.0700 -0.3615 -0.1385
95257W        W38351  21.652  25.566  27.113 -0.1099 -0.0074  0.1612
95258W        W38352  18.431  26.425  28.103 -0.1516  0.1793 -0.2088
95259W        W38353  17.891  25.379  27.421  0.0057  0.0282  0.6231
95260W        W38354  21.364  29.581  25.537  0.1712 -0.0498  0.1591
95261W        W38355  24.089  27.004  24.553 -0.0761  0.0136 -0.0666
95262W        W38356  22.150  27.196  24.844 -0.0032  0.0771 -0.1387
95263W        W38357  20.376  27.433  24.900 -0.1354  0.1611 -0.1536
95264W        W38358  21.455  25.173  24.261 -0.3216  0.2060  0.3707
95265W        W38359  18.584  27.106  25.794  0.1180 -0.0148 -0.1211
95266W        W38360  19.999  27.699  27.596  0.0224  0.0829 -0.0528
95267W        W38361  18.733  25.502  24.518  0.2856 -0.0440  0.1552
95268W        W38362  21.164  26.033  26.384 -0.0531  0.0141  0.1640
95269W        W38363  18.705  27.722  24.973  0.0075 -0.3078  0.1233
95270W        W38364  21.847  27.800  24.517  0.0446 -0.4111  0.0191
95271W        W38365  21.373  26.835  23.474 -0.3548  0.1512 -0.1386
95272W        W38366  17.987  25.468  25.759  0.1765  0.2619  0.3522
95273W        W38367  18.039  28.111  28.245 -0.3868  0.1989 -0.0937
95274W        W38368  21.027  26.639  23.162 -0.1008  0.2044 -0.1535
95275W        W38369  20.145  28.204  24.753 -0.1200  0.1461 -0.4121
95276W        W38370  20.329  29.092  25.773 -0.0136  0.0739  0.1197
95277W        W38371  21.420  27.942  27.731  0.0842  0.0300 -0.0908
95278W        W38372  19.810  25.458  23.832 -0.3140  0.1143 -0.3204
95279W        W38373  20.940  27.321  28.843 -0.2808  0.2990 -0.0013
95280W        W38374  18.113  27.843  25.291 -0.0032 -0.1102 -0.0619
95281W        W38375  20.771  26.781  25.893  0.3949  0.1905 -0.0306
95282W        W38376  18.630  28.619  25.161 -0.1485 -0.1876  0.1173
95283W        W38377  18.429  28.586  27.380  0.1021  0.0919 -0.3673
95284W        W38378  19.066  29.316  25.357  0.0440 -0.2611 -0.2520
95285W        W38379  21.600  26.194  26.151 -0.1974  0.1211 -0.0434
95286W        W38380  20.790  28.095  27.243 -0.1138 -0.1763  0.1672
95287W        W38381  18.763  27.879  26.344 -0.0875 -0.4233  0.0360
95288W        W38382  22.411  26.599  27.455  0.1820 -0.0977  0.1879
95289W        W38383  20.372  27.382  27.738 -0.1523  0.0148  0.0386
95290W        W38384  19.124  26.953  24.425 -0.0208 -0.0143 -0.0064
95291W        W38385  21.276  29.376  25.000  0.0601 -0.2014 -0.3659
95292W        W38386  21.494  27.662  25.797 -0.1894 -0.3047  0.0661
95293W        W38387  19.331  29.233  25.821 -0.0110 -0.0534  0.0340
95294W        W38388  17.808  26.413  26.397  0.1272  0.1195 -0.0690
95295W        W38389  20.653  26.666  26.792  0.1037  0.0247 -0.1879
95296W        W38390  19.776  27.183  25.845  0.2269  0.2242 -0.0274
95297W        W38391  19.271  25.909  24.591  0.1434 -0.0543 -0.2967
95298W        W38392  20.690  27.454  23.517 -0.4672  0.1035 -0.0076
95299W        W38393  17.645  28.663  26.954  0.1394  0.2692  0.0411
95300W        W38394  17.363  27.076  26.063  0.1024  0.3162  0.0354
95301W        W38395  17.357  29.007  25.217  0.1107  0.1388  0.0357
95302W        W38396  21.170  27.255  23.762 -0.3545  0.1174 -0.0847
95303W        W38397  21.449  27.785  23.678  0.0136  0.0386 -0.5491
95304W        W38398  21.174  28.965  24.604  0.0487  0.2858 -0.1261
95305W        W38399  20.242  25.102  25.308 -0.1743  0.2680 -0.0129
95306W        W38400  18.630  26.835  25.388 -0.2080 -0.1004  0.0093
95307W        W38401  18.262  26.992  23.668  0.0075  0.1323 -0.0946
95308W        W38402  22.319  28.702  24.383  0.1021  0.2607  0.0230
95309W        W38403  18.565  27.412  23.889  0.4246 -0.0208 -0.4061
95310W        W38404  22.228  28.635  27.387 -0.2384  0.1251 -0.0293
95311W        W38405  22.189  26.156  24.463 -0.0592  0.4727 -0.0575
95312W        W38406  20.791  28.844  25.946 -0.0974  0.1837 -0.1120
95313W        W38407  21.245  25.869  24.710 -0.2065  0.1870 -0.0240
95314W        W38408  19.759  28.048  28.516 -0.0460 -0.1112 -0.1993
95315W        W38409  21.171  26.522  26.050 -0.0721  0.0055 -0.2139
95316W        W38410  19.987  25.038  23.019  0.0102 -0.2844  0.0051
95317W        W38411  19.141  26.110  27.728  0.3859  0.1596 -0.2813
95318W        W38412  20.199  25.562  27.294  0.2615 -0.0032 -0.0472
95319W        W38413  18.159  27.486  27.047 -0.2067 -0.1490 -0.0367
95320W        W38414  22.380  28.308  23.914 -0.0523  0.2505 -0.7428
95321W        W38415  18.586  26.897  24.667 -0.3204  0.1117  0.3619
95322W        W38416  19.315  28.209  25.752 -0.0283 -0.1804  0.1242
95323W        W38417  21.874  25.088  26.965  0.0104  0.1070 -0.2052
95324W        W38418  19.408  27.596  25.254  0.1743 -0.2313 -0.2816
95325W        W38419  21.541  25.975  26.648 -0.4107 -0.0361 -0.2289
95326W        W38420  19.308  29.647  23.962 -0.1222  0.1746  0.3026
95327W        W38421  19.511  28.621  25.888  0.0548  0.0389 -0.0422
95328W        W38422  20.116  28.931  26.783  0.1684  0.0123 -0.2742
95329W        W38423  17.635  27.122  24.360 -0.0206  0.0842  0.0114
95330W        W38424  21.142  26.407  25.576 -0.0295 -0.3473 -0.0710
95331W        W38425  17.310  26.735  25.485 -0.2774 -0.2604  0.2689
95332W        W38426  21.672  26.710  26.794  0.1261 -0.0669 -0.0634
95333W        W38427  20.636  28.001  24.030  0.4942  0.2156 -0.1921
95334W        W38428  21.592  25.864  23.796 -0.0253 -0.3018 -0.1511
95335W        W38429  20.961  28.460  26.365  0.0902  0.2279  0.1063
95336W        W38430  17.791  26.890  26.312 -0.1375 -0.1719  0.0374
95337W        W38431  20.046  25.874  24.116  0.0216 -0.2940  0.1722
95338W        W38432  21.278  27.036  25.987  0.0150  0.1897  0.5065
95339W        W38433  21.452  26.431  23.820  0.3837  0.0627  0.1634
95340W        W38434  21.259  28.768  26.137  0.2627 -0.2102  0.2258
95341W        W38435  17.810  26.628  25.461  0.1418 -0.2117  0.1431
95342W        W38436  21.865  25.227  23.864 -0.0578 -0.0995  0.1247
95343W        W38437  17.763  27.640  24.897  0.0437  0.0065 -0.1299
95344W        W38438  19.102  27.044  26.716  0.1463 -0.2715 -0.0397
95345W        W38439  20.787  28.291  28.476  0.1465 -0.3464  0.0513
95346W        W38440  18.246  26.118  24.999 -0.2068 -0.2390  0.0871
95347W        W38441  23.222  29.443  25.179  0.1935 -0.4784  0.0340
95348W        W38442  22.438  27.767  26.335  0.1745 -0.0164 -0.3629
95349W        W38443  19.228  28.022  24.945  0.0974  0.2492  0.1938
95350W        W38444  20.975  27.157  25.022  0.3957 -0.2219 -0.0281
95351W        W38445  22.752  28.626  24.076  0.0682 -0.2613  0.3641
95352W        W38446  19.907  26.652  26.631  0.0949  0.3242  0.0520
95353W        W38447  20.910  27.759  26.912  0.0641 -0.1369  0.3681
95354W        W38448  21.612  27.595  27.270  0.2737 -0.1921  0.2778
95355W        W38449  20.686  24.180  24.740 -0.2224  0.1390  0.0466
95356W        W38450  18.167  26.859  25.115 -0.0075  0.0687 -0.2993
95357W        W38451  17.956  29.424  26.426 -0.0243  0.0913  0.2223
95358W        W38452  21.675  23.702  26.764  0.2147  0.0754 -0.2058
95359W        W38453  21.723  27.147  26.181 -0.1676  0.0742  0.1405
95360W        W38454  20.237  27.773  24.507 -0.0973  0.0934 -0.0777
95361W        W38455  21.977  24.583  27.000 -0.1194 -0.2978 -0.1837
95362W        W38456  20.323  30.347  27.177  0.0349 -0.1563  0.1037
95363W        W38457  18.767  28.343  26.576 -0.2950  0.0998 -0.1076
95364W        W38458  20.094  26.802  24.435  0.0366  0.2312 -0.0413
95365W        W38459  20.470  28.473  25.785  0.1811 -0.2079 -0.1003
95366W        W38460  20.192  27.384  25.806 -0.2467 -0.1220 -0.1200
95367W        W38461  19.743  29.832  24.731  0.1268  0.1520  0.2278
95368W        W38462  21.013  29.599  25.932 -0.0849 -0.0664  0.0805
95369W        W38463  19.155  27.479  26.482 -0.0772  0.1584 -0.3990
95370W        W38464  22.591  28.327  24.635  0.1820 -0.1931  0.0190
95371W        W38465  19.468  26.267  25.323 -0.0549 -0.0033  0.1583
95372W        W38466  22.265  27.112  25.568  0.2360  0.4944 -0.1288
95373W        W38467  20.813  26.066  25.391 -0.0369  0.1402  0.1255
95374W        W38468  20.172  27.393  27.273  0.2465  0.3334 -0.1842
95375W        W38469  19.340  26.754  23.997 -0.3407 -0.1410  0.4917
95376W        W38470  19.868  26.412  22.776  0.2025 -0.3421 -0.3059
95377W        W38471  19.191  28.479  25.254  0.0386  0.1060  0.2334
95378W        W38472  20.666  25.554  27.011 -0.4296  0.0024  0.0791
95379W        W38473  18.347  26.294  27.046 -0.1652 -0.0959  0.1367
95380W        W38474  17.963  28.276  25.058  0.0142  0.2284 -0.1097
95381W        W38475  19.581  25.761  25.621 -0.1564  0.1713  0.1189
95382W        W38476  21.091  28.630  22.906 -0.2613 -0.2217 -0.0792
95383W        W38477  19.427  26.642  25.685 -0.3144 -0.1896 -0.0060
95384W        W38478  18.686  26.674  26.739 -0.4047  0.2204  0.0471
95385W        W38479  21.605  28.462  24.791 -0.3358  0.1226 -0.1684
95386W        W38480  21.542  27.958  24.888  0.1044  0.0644  0.1920
95387W        W38481  19.365  26.388  24.836 -0.1516 -0.2003 -0.2668
95388W        W38482  22.204  29.655  28.629 -0.1108 -0.0310  0.2715
95389W        W38483  18.064  26.274  23.699 -0.0688  0.3955  0.0124
95390W        W38484  21.376  26.317  27.719 -0.1667 -0.1765 -0.0327
95391W        W38485  20.680  27.024  27.257 -0.1267 -0.0355  0.0861
95392W        W38486  18.904  25.020  24.682  0.0303  0.0687  0.0406
95393W        W38487  21.173  27.161  24.302 -0.1705  0.2242 -0.1840
95394W        W38488  21.726  27.411  23.886  0.0929  0.3048 -0.2287
95395W        W38489  20.228  28.631  24.438  0.1870 -0.1824 -0.0611
95396W        W38490  20.022  29.592  26.420 -0.1731  0.4478 -0.4658
95397W        W38491  20.917  27.914  26.290  0.2531  0.2143  0.1055
95398W        W38492  18.672  25.411  26.615  0.2870  0.1295 -0.0382
95399W        W38493  22.390  27.951  24.313 -0.2510  0.1082  0.1920
95400W        W38494  20.301  28.110  28.601 -0.0873  0.1789 -0.1074
95401W        W38495  21.700  28.983  24.498 -0.0363 -0.0982 -0.2155
95402W        W38496  22.422  24.834  25.793  0.2321 -0.0757  0.1007
95403W        W38497  19.918  27.640  24.932  0.1163  0.0321 -0.1385
95404W        W38498  18.417  25.014  27.501  0.0126  0.0462  0.0081
95405W        W38499  17.271  26.810  28.025 -0.0396 -0.2706 -0.0534
95406W        W38500  21.595  27.116  27.154 -0.0623 -0.3418  0.2001
95407W        W38501  20.018  26.127  26.006 -0.1627 -0.1758  0.1326
95408W        W38502  19.810  26.162  24.952 -0.0665  0.0946  0.0881
95409W        W38503  20.933  28.248  23.623  0.1566 -0.2529  0.1988
95410W        W38504  18.532  26.758  26.233 -0.3744  0.4192  0.1802
95411W        W38505  20.879  26.646  25.010 -0.0302 -0.0576 -0.0181
95412W        W38506  20.535  27.260  26.175 -0.1662 -0.0624 -0.3135
95413W        W38507  20.364  27.261  24.398 -0.2155 -0.2301 -0.0196
95414W        W38508  22.025  28.564  26.902 -0.0276 -0.1049  0.0597
95415W        W38509  19.597  26.761  24.460  0.0962 -0.1958  0.2228
95416W        W38510  22.240  27.482  23.819  0.0567 -0.0198 -0.1885
95417W        W38511  20.931  29.155  27.072 -0.0063 -0.1933 -0.1192
95418W        W38512  21.050  29.476  28.556  0.2282 -0.1834  0.0440
95419W        W38513  19.795  28.990  25.781  0.3350  0.2408  0.2891
95420W        W38514  20.114  28.346  25.219  0.0300 -0.4005 -0.2122
95421W        W38515  17.993  24.274  25.492  0.1492 -0.0391  0.1073
95422W        W38516  18.994  27.941  25.373  0.1428  0.1349 -0.1217
95423W        W38517  20.709  27.105  25.497  0.2158 -0.1334 -0.1289
95424W        W38518  21.498  27.141  25.142  0.1065  0.0655 -0.3570
95425W        W38519  19.257  27.113  26.138  0.1545  0.0181 -0.0752
95426W        W38520  20.508  24.866  23.063 -0.0850 -0.0271  0.0789
95427W        W38521  20.094  29.078  26.256 -0.1232 -0.1037  0.0622
95428W        W38522  21.134  27.922  24.650 -0.0562  0.2064  0.1303
95429W        W38523  19.647  25.947  29.698 -0.0167  0.0137 -0.2230
95430W        W38524  17.654  26.507  27.768 -0.0164  0.0286  0.1614
95431W        W38525  19.049  26.955  27.380 -0.0115 -0.2201 -0.1378
95432W        W38526  20.354  27.771  29.073  0.1172  0.1953 -0.2889
95433W        W38527  18.485  26.745  27.249 -0.0289  0.0327  0.2131
95434W        W38528  20.838  27.575  27.802  0.2342 -0.1652 -0.0209
95435W        W38529  19.807  25.094  30.499  0.0582  0.0822 -0.0503
95436W        W38530  18.751  27.472  28.645  0.1500 -0.1202 -0.4869
95437W        W38531  21.420  27.116  28.714 -0.4859  0.0437 -0.0665
95438W        W38532  21.205  26.628  28.544  0.2474  0.0542 -0.0428
95439W        W38533  18.501  27.596  30.350  0.0328  0.1531 -0.0351
95440W        W38534  19.664  27.969  30.619 -0.0569 -0.3138  0.0479
95441W        W38535  18.807  26.848  28.195 -0.1336  0.0793 -0.1613
95442W        W38536  18.637  26.551  29.047  0.1750  0.2188 -0.0390
95443W        W38537  21.488  26.693  30.843  0.1994 -0.0965  0.0461
95444W        W38538  18.261  25.949  28.526 -0.0469 -0.2582 -0.0568
95445W        W38539  19.497  26.041  31.036  0.0288 -0.0456  0.2442
95446W        W38540  20.348  24.681  29.201  0.3531  0.0598 -0.1967
95447W        W38541  20.051  28.940  30.538  0.3079 -0.2470  0.0209
95448W        W38542  18.939  27.357  30.248  0.1910 -0.0598 -0.1583
95449W        W38543  21.112  26.763  31.733 -0.0593 -0.0963 -0.0524
95450W        W38544  19.140  27.654  28.180 -0.4023 -0.1179  0.2334
95451W        W38545  17.375  26.692  26.935  0.0578  0.2280  0.0541
95452W        W38546  18.751  26.977  29.327  0.0060  0.4360  0.0205
95453W        W38547  20.319  26.600  31.748  0.0488  0.2020 -0.0597
95454W        W38548  21.286  27.168  29.707 -0.0849 -0.2628 -0.1229
95455W        W38549  19.274  28.346  29.431  0.1163 -0.1167 -0.1910
95456W        W38550  19.791  28.777  28.685 -0.1167  0.1513  0.0530
95457W        W38551  20.168  28.244  29.087  0.1504  0.1478  0.1682
95458W        W38552  21.393  25.907  30.395  0.2199  0.1856 -0.4869
95459W        W38553  17.605  28.114  29.134 -0.0134  0.0124 -0.2748
95460W        W38554  18.700  29.298  28.694 -0.0168 -0.1535  0.2115
95461W        W38555  18.455  28.908  28.390  0.4253  0.1814 -0.1554
95462W        W38556  20.421  28.856  29.689  0.2278  0.4069  0.0973
95463W        W38557  20.743  28.310  30.923 -0.1429  0.3269 -0.0385
95464W        W38558  20.402  29.718  30.423  0.0758  0.3852 -0.1369
95465W        W38559  17.823  27.521  27.624  0.1672 -0.1108 -0.0492
95466W        W38560  19.533  30.655  31.233 -0.1573  0.2967 -0.1707
95467W        W38561  18.419  28.258  30.632  0.0132  0.1088  0.0421
95468W        W38562  20.393  26.893  30.550  0.1854 -0.3805 -0.2747
95469W        W38563  17.637  26.234  29.039 -0.0872 -0.1699 -0.0496
95470W        W38564  18.936  28.625  28.274 -0.1909  0.0743 -0.1064
95471W        W38565  18.241  27.036  28.024  0.3657  0.1108  0.3442
95472W        W38566  19.290  28.089  29.891  0.0341  0.2679  0.0073
95473W        W38567  18.443  28.228  29.663  0.0498  0.3613  0.2752
95474W        W38568  20.498  25.648  31.438 -0.0641 -0.1636  0.0178
95475W        W38569  18.260  27.958  27.306 -0.0988  0.2047  0.0693
95476W        W38570  20.207  27.024  26.681 -0.1036 -0.0154 -0.0699
95477W        W38571  18.904  26.461  27.192 -0.1184  0.2233 -0.0144
95478W        W38572  21.290  24.693  27.043 -0.3449  0.1180  0.1478
95479W        W38573  21.038  24.061  28.731 -0.0547  0.3288 -0.0125
95480W        W38574  18.848  29.999  30.735  0.0219  0.2104  0.1547
95481W        W38575  20.196  25.132  29.541 -0.1920  0.2122  0.1016
95482W        W38576  21.444  28.646  30.651 -0.2472 -0.0099 -0.0017
95483W        W38577  20.399  24.915  27.827 -0.2503 -0.0441  0.1761
95484W        W38578  19.754  27.509  29.443 -0.0958 -0.0777 -0.0231
95485W        W38579  18.993  28.209  28.904 -0.0356  0.0853  0.2809
95486W        W38580  17.354  26.439  28.585  0.1796  0.1741 -0.1448
95487W        W38581  20.619  29.293  28.450 -0.0967 -0.0809  0.2539
95488W        W38582  21.099  27.637  28.280  0.0712  0.0258  0.0492
95489W        W38583  19.708  28.520  28.211 -0.0760 -0.1963  0.1679
95490W        W38584  18.815  25.964  28.470  0.1493  0.2632 -0.1736
95491W        W38585  18.499  27.151  31.054  0.0235 -0.0309 -0.0272
95492W        W38586  18.495  25.100   1.083 -0.0935 -0.1813 -0.1304
95493W        W38587  18.814  25.998  27.245 -0.3572  0.0264 -0.0378
95494W        W38588  22.033  27.287  31.917 -0.0681  0.0274 -0.2382
95495W        W38589  18.537  28.485  31.389  0.2267  0.0609 -0.3674
95496W        W38590  22.149  26.728  29.752  0.1072  0.2673  0.1292
95497W        W38591  19.464  27.555  29.836 -0.0798  0.0153 -0.0980
95498W        W38592  19.471  29.355  31.957 -0.0640 -0.1837  0.0977
95499W        W38593  21.233  28.087  26.615 -0.1122  0.1511 -0.2798
95500W        W38594  20.303  25.963  28.647  0.0260  0.1619 -0.1128
95501W        W38595  20.428  25.832  30.606  0.2687 -0.3899 -0.2453
95502W        W38596  18.900  28.106  28.407  0.0689  0.1844  0.0807
95503W        W38597  20.091  26.164  29.047  0.1171 -0.0691  0.3672
95504W        W38598  20.693  28.277  31.546 -0.0895  0.0469  0.0612
95505W        W38599  20.667  27.488  27.357  0.2794  0.0793  0.1558
95506W        W38600  19.356  28.419  28.556 -0.0806  0.0249  0.1090
95507W        W38601  20.175  26.768   0.721 -0.2696 -0.1010 -0.0313
95508W        W38602  20.534  28.762  30.781  0.1451 -0.0985  0.2439
95509W        W38603  18.606  28.844  27.893 -0.0724 -0.0589 -0.1121
95510W        W38604  18.032  27.344  29.491  0.1938  0.2013 -0.1283
95511W        W38605  17.754  27.867  27.299  0.0250 -0.1628  0.1077
95512W        W38606  18.033  25.346  30.365 -0.1962 -0.0144 -0.1529
95513W        W38607  18.939  27.426  29.308  0.2108 -0.2114  0.0452
95514W        W38608  21.653  26.274  29.164 -0.3318  0.1096 -0.1606
95515W        W38609  18.739  25.313   0.671 -0.0213 -0.2925 -0.2759
95516W        W38610  19.744  26.239  27.052 -0.0405 -0.2699 -0.2023
95517W        W38611  18.023  28.106  28.740 -0.1190 -0.2316  0.0332
95518W        W38612  20.578  28.554  28.803  0.0075  0.3033 -0.1115
95519W        W38613  19.643  26.792  27.054 -0.0423  0.3454  0.1802
95520W        W38614  19.516  28.533  26.449  0.0093  0.3933 -0.2375
95521W        W38615  19.219  27.062  31.848  0.0260 -0.0528 -0.1642
95522W        W38616  19.537  25.278  29.584  0.1333  0.1685  0.0274
95523W        W38617  19.137  25.702  31.320  0.2357  0.0159 -0.0575
95524W        W38618  18.608  25.794  31.128  0.1143  0.1804  0.0167
95525W        W38619  21.263  26.409  30.356 -0.2434  0.3082 -0.0837
95526W        W38620  18.760  25.921  27.936 -0.0354  0.2111 -0.0556
95527W        W38621  20.069  27.654  28.090 -0.0328  0.1789  0.3137
95528W        W38622  18.532  26.453  28.572 -0.0385 -0.0472  0.0296
95529W        W38623  17.649  27.118  28.607  0.3372  0.0339 -0.0212
95530W        W38624  19.969  26.036  30.789  0.0760 -0.3112  0.1889
95531W        W38625  19.364  28.137  28.146  0.0493 -0.2048 -0.1391
95532W        W38626  19.958  30.822  30.881  0.2620 -0.1437 -0.3928
95533W        W38627  20.307  29.303  29.124 -0.2172  0.0348  0.0815
95534W        W38628  20.578  25.233  29.162  0.1897 -0.0985  0.0847
95535W        W38629  18.272  24.783  29.110  0.0247 -0.2771  0.2278
95536W        W38630  18.938  29.687  30.322 -0.0998  0.0932  0.1308
95537W        W38631  19.605  27.573  28.361 -0.1518 -0.2388 -0.0473
95538W        W38632  20.134  26.234  27.877 -0.1760  0.4734 -0.2205
95539W        W38633  21.282  27.782  29.088 -0.1333 -0.0976 -0.3905
95540W        W38634  18.180  26.638  27.637  0.1500 -0.2576 -0.1082
95541W        W38635  18.899  26.838  31.056  0.1466 -0.0605  0.0296
95542W        W38636  21.197  25.531  30.101 -0.4626  0.0078 -0.0808
95543W        W38637  21.031  27.427  31.710 -0.3278 -0.0039  0.0293
95544W        W38638  20.461  25.608  29.647 -0.1025  0.0843  0.0570
95545W        W38639  18.518  25.598  28.248 -0.0547  0.0729  0.4624
95546W        W38640  20.143  27.869  29.506  0.0110 -0.0297 -0.3791
95547W        W38641  17.987  29.187  28.230 -0.1589 -0.1975 -0.0436
95548W        W38642  18.195  27.199  28.564 -0.1950  0.0105 -0.2005
95549W        W38643  18.935  28.768  28.763  0.0739 -0.2707  0.0418
95550W        W38644  22.489  26.118  28.642  0.0491 -0.5462  0.2568
95551W        W38645  17.290  27.084  31.644 -0.1069 -0.4651 -0.0512
95552W        W38646  20.273  28.328  30.747 -0.0962 -0.0660  0.3770
95553W        W38647  18.185  25.485  27.887  0.1057 -0.0439  0.2229
95554W        W38648  19.281  27.775  30.309 -0.0467  0.1423  0.1658
95555W        W38649  22.165  24.761  27.887 -0.0677  0.0185  0.2612
95556W        W38650  20.902  25.855  27.313 -0.1521 -0.0326 -0.0963
95557W        W38651  20.537  27.021  30.985  0.2624 -0.4892  0.1908
95558W        W38652  21.124  29.070  29.395 -0.0500  0.0049  0.0409
95559W        W38653  20.904  24.969  28.339 -0.1619  0.0614  0.3560
95560W        W38654  20.579  26.324  27.335 -0.1216 -0.0176 -0.1489
95561W        W38655  19.448  28.338  30.374  0.0638  0.2427  0.4282
95562W        W38656  17.214  26.833  27.542  0.2282 -0.0460  0.0552
95563W        W38657  19.006  27.226  29.769 -0.2068 -0.0812 -0.1549
95564W        W38658  21.152  24.262  27.899 -0.0593 -0.0146  0.2920
95565W        W38659  22.027  27.722  29.740 -0.4264 -0.2605 -0.0426
95566W        W38660  19.647  26.424  29.443  0.2711  0.2435 -0.2740
95567W        W38661  20.385  28.262   0.352  0.2880 -0.1895 -0.2494
95568W        W38662  20.542  28.421  29.396  0.2876  0.1831  0.2028
95569W        W38663  20.920  25.213  28.790 -0.2098  0.0711  0.0990
95570W        W38664  19.116  27.438  27.052 -0.1324  0.0274  0.0206
95571W        W38665  22.176  26.706  29.169 -0.2284  0.3385 -0.1965
95572W        W38666  16.885  29.508  27.540  0.3251  0.0300 -0.1567
95573W        W38667  22.145  25.719  28.813 -0.0946  0.0511 -0.0267
95574W        W38668  21.244  26.147  29.943  0.1198 -0.1420  0.1125
95575W        W38669  19.566  24.912  31.366 -0.0139 -0.0073  0.1917
95576W        W38670  22.255  26.799  31.767 -0.1285 -0.0290  0.2110
95577W        W38671  21.002  26.441  28.112 -0.0574 -0.1506 -0.0376
95578W        W38672  18.685  27.358  28.133  0.1094 -0.0535  0.0449
95579W        W38673  18.773  27.901  27.510  0.3404  0.0169  0.2713
95580W        W38674  20.043  27.089  29.456 -0.2341  0.0526 -0.1704
95581W        W38675  18.281  28.213  30.156 -0.0569 -0.0157 -0.1857
95582W        W38676  18.108  28.575  29.828 -0.1233 -0.1595  0.1415
95583W        W38677  21.193  29.382  30.867 -0.0297  0.1167  0.0085
95584W        W38678  21.356  28.450  28.450  0.1113 -0.2044  0.3182
95585W        W38679  22.150  27.672  31.247  0.3551  0.0196  0.0862
95586W        W38680  20.450  25.442  27.901  0.1913 -0.0396  0.0431
95587W        W38681  18.820  28.393  27.680 -0.1107  0.0497 -0.1879
95588W        W38682  19.403  27.957  27.197  0.1411 -0.0858 -0.0281
95589W        W38683  19.508  25.089  30.072 -0.1536  0.0390  0.0272
95590W        W38684  19.696  28.063  29.620  0.1456  0.0564  0.3767
95591W        W38685  19.969  27.998  26.605 -0.2966 -0.1298 -0.0592
95592W        W38686  20.624  27.071  31.522 -0.0121 -0.2807 -0.2974
95593W        W38687  18.575  28.369  28.653  0.0182 -0.2387  0.2597
95594W        W38688  20.950  24.909  29.318 -0.1778  0.0945 -0.3510
95595W        W38689  20.076  28.740  29.100 -0.2375 -0.2697  0.0076
95596W        W38690  17.796  24.885  29.187 -0.1923  0.1920  0.0303
95597W        W38691  17.467  26.228  28.162 -0.0306 -0.2013  0.2621
95598W        W38692  19.671  25.635  28.638  0.1541  0.3553  0.0122
95599W        W38693  22.613  27.645  29.741 -0.0342  0.0516 -0.1576
95600W        W38694  19.845  26.799  31.565  0.3860  0.0204  0.0075
95601W        W38695  20.979  26.010  28.474 -0.0355 -0.4097 -0.1460
95602W        W38696  17.115  29.042  30.295 -0.0421 -0.1042 -0.0839
95603W        W38697  21.938  27.005  30.117 -0.1680  0.2836 -0.0961
95604W        W38698  20.428  26.417  28.225  0.0370 -0.1101 -0.3238
95605W        W38699  21.672  27.404  30.037 -0.3211  0.0084  0.1418
95606W        W38700  20.257  27.360  30.381 -0.1957  0.2353  0.0552
95607W        W38701  17.704  25.973  28.558  0.0786 -0.2045  0.2288
95608W        W38702  22.508  25.401  29.550  0.1512  0.0692  0.1956
95609W        W38703  19.072  26.490  28.716  0.0521  0.0414  0.0600
95610W        W38704  18.844  28.670  29.228 -0.0885  0.2529 -0.0485
95611W        W38705  19.246  27.747  28.681  0.2500  0.0600  0.0747
95612W        W38706  18.522  26.276  27.549  0.0217  0.5195 -0.1321
95613W        W38707  17.794  26.767  28.127  0.1907 -0.3739 -0.1079
95614W        W38708  19.903  25.613  30.569  0.1389 -0.1259  0.1767
95615W        W38709  20.447  27.498  29.545  0.0613  0.6359 -0.0899
95616W        W38710  20.678  26.342  28.680  0.3708 -0.2690  0.2483
95617W        W38711  20.274  24.908  28.813 -0.2729  0.2770  0.2376
95618W        W38712  19.184  26.913  27.890 -0.2990  0.1237 -0.2020
95619W        W38713  20.765  27.156  29.758 -0.1982  0.1358  0.0293
95620W        W38714  20.449  26.868  29.542  0.1252 -0.0227 -0.1894
95621W        W38715  20.373  26.382   0.422 -0.0590  0.1065 -0.2093
95622W        W38716  20.188  26.732  28.594 -0.1272  0.2470  0.5665
95623W        W38717  22.629  28.203  30.014  0.0561 -0.1927  0.2958
95624W        W38718  19.450  26.652  30.147 -0.1100 -0.2070  0.0962
95625W        W38719  17.957  26.220  27.354  0.0850 -0.3486 -0.0143
95626W        W38720  18.433  27.773  29.437 -0.1022 -0.0253 -0.0788
95627W        W38721  19.226  27.939  27.673 -0.0251 -0.3126  0.0469
95628W        W38722  21.175  27.435  31.260 -0.1446  0.2760  0.1178
95629W        W38723  19.329  27.701  29.317 -0.3719  0.4138  0.2875
95630W        W38724  18.495  28.423  28.098  0.3053 -0.0703 -0.2282
95631W        W38725  18.791  27.732  29.786 -0.0996  0.4630 -0.1492
95632W        W38726  20.944  24.394  27.451  0.1067  0.1960 -0.3912
95633W        W38727  20.657  28.405  27.909  0.2076  0.2580  0.2051
95634W        W38728  19.605  27.134  28.127  0.1010 -0.0249  0.1051
95635W        W38729  21.672  26.549  30.043  0.2007  0.4553  0.1376
95636W        W38730  20.347  27.890  26.999  0.1279 -0.0475 -0.2376
95637W        W38731  20.751  26.273  29.883  0.1547  0.0952  0.0887
95638W        W38732  21.029  27.547  29.904  0.1919 -0.2825 -0.3293
95639W        W38733  21.442  26.793  29.105  0.2700 -0.0988  0.0741
95640W        W38734  19.651  25.846  29.166  0.1347  0.2209  0.3490
95641W        W38735  19.219  29.848  31.056  0.1082  0.2062  0.2076
95642W        W38736  18.505  27.270  29.601 -0.0749  0.1084  0.0579
95643W        W38737  21.457  25.714  29.725  0.0231  0.3533 -0.1704
95644W        W38738  18.921  25.033  27.476  0.0160 -0.0913 -0.3146
95645W        W38739  20.098  26.036   0.150  0.0903 -0.1944  0.1318
95646W        W38740  20.006  28.113  31.534 -0.2587  0.1823 -0.0084
95647W        W38741  19.624  27.814  27.940 -0.2848 -0.1266  0.0549
95648W        W38742  20.441  25.711  29.171 -0.1885  0.0038  0.2009
95649W        W38743  18.572  26.602  29.620  0.1472  0.4335 -0.2973
95650W        W38744  19.844  27.828  29.035 -0.5636 -0.1123  0.2589
95651W        W38745  19.663  27.352  27.124  0.0812 -0.1228 -0.2743
95652W        W38746  18.382  28.372  29.113 -0.2380 -0.1849  0.2376
95653W        W38747  20.747  26.379  30.417  0.1464 -0.1799  0.0833
95654W        W38748  21.028  28.043  28.000  0.2483 -0.1625 -0.1860
95655W        W38749  19.907  27.144  28.567  0.0186  0.1902 -0.0083
95656W        W38750  22.652  25.702  29.935 -0.0136 -0.0333 -0.0637
95657W        W38751  21.807  27.029  30.721  0.1456  0.0956  0.0569
95658W        W38752  20.687  26.014   0.119  0.1756  0.2799 -0.3172
95659W        W38753  17.700  24.895  30.589 -0.5307 -0.2343  0.2248
95660W        W38754  20.778  28.665  31.298 -0.3505 -0.1518  0.0073
95661W        W38755  21.001  25.496  28.230  0.2463 -0.0603 -0.3199
95662W        W38756  21.799  27.917  30.124 -0.2424  0.1734  0.3033
95663W        W38757  19.518  26.853  28.918  0.0418  0.0361  0.2233
95664W        W38758  19.922  27.167  27.730  0.0163  0.2216 -0.0074
95665W        W38759  19.354  26.191  30.066  0.0927  0.1058  0.0614
95666W        W38760  22.017  26.595  30.826  0.2030 -0.1653 -0.1008
95667W        W38761  20.371  26.652  27.727 -0.2003 -0.0371 -0.1015
95668W        W38762  19.708  26.244  31.769  0.1608 -0.2947  0.0263
95669W        W38763  19.406  29.015  27.408  0.2863 -0.1231 -0.2272
95670W        W38764  20.010  26.794  29.041 -0.0060 -0.1835 -0.0355
95671W        W38765  20.645  26.841  28.389  0.2599  0.2352 -0.0480
95672W        W38766  17.991  25.549  28.583 -0.1909 -0.0004  0.0935
95673W        W38767  18.040  27.717  30.354  0.0404 -0.1175 -0.0367
95674W        W38768  19.493  25.287  28.260 -0.0722 -0.1439 -0.2105
95675W        W38769  19.740  28.291  27.054 -0.1291 -0.4040  0.0678
95676W        W38770  19.721  26.836  29.749  0.0358 -0.0734 -0.2992
95677W        W38771  22.594  27.372  30.695 -0.0539 -0.5891  0.0369
95678W        W38772  19.498  25.611  27.676  0.0197 -0.2107  0.1886
95679W        W38773  22.120  26.471   0.193 -0.2142 -0.2147 -0.1360
95680W        W38774  18.803  28.342  27.128 -0.4054 -0.1571  0.4669
95681W        W38775  20.908  26.662  29.510  0.3861  0.0500 -0.1784
95682W        W38776  19.392  29.793  30.166 -0.0969  0.2582  0.1028
95683W        W38777  18.551  28.692  30.037 -0.0953  0.0562  0.1350
95684W        W38778  19.370  28.696  29.027  0.0839  0.0576 -0.0872
95685W        W38779  21.767  26.986  29.563 -0.0617  0.1280  0.1473
95686W        W38780  20.926  26.446  31.389 -0.1329  0.0014 -0.2807
95687W        W38781  19.429  27.112  30.038  0.0295  0.1546 -0.3251
95688W        W38782  22.269  26.931  30.563 -0.0941  0.4034  0.0605
95689W        W38783  21.587  28.126  30.731 -0.2615  0.0027 -0.0997
95690W        W38784  18.664  26.944  28.689 -0.0414  0.1477 -0.4137
95691W        W38785  20.407  27.997  31.163  0.2331  0.0972 -0.2316
95692W        W38786  19.753  28.036  30.102  0.2614  0.2901 -0.1177
95693W        W38787  18.423  27.302  29.110 -0.0619 -0.3457  0.0110
95694W        W38788  18.135  26.268  29.923 -0.0723 -0.0431  0.0559
95695W        W38789  21.169  27.760  30.890  0.2119 -0.0887  0.1353
95696W        W38790  19.106  28.864  30.046  0.2341 -0.1894 -0.0395
95697W        W38791  19.189  26.160  29.070  0.0981  0.2665 -0.0364
95698W        W38792  20.358  28.448  26.934 -0.0251 -0.1285  0.1633
95699W        W38793  18.077  28.154  31.284  0.2365  0.1330 -0.1232
95700W        W38794  18.914  27.422  30.758  0.0398 -0.1551  0.0460
95701W        W38795  17.959  29.817  28.241  0.0462 -0.1386 -0.2572
95702W        W38796  21.585  28.366  27.943 -0.0452 -0.0832  0.2322
95703W        W38797  19.510  27.045  27.466  0.1197  0.2999  0.0605
95704W        W38798  21.372  28.306  30.280  0.2319 -0.2880  0.1523
95705W        W38799  20.373  25.940  26.923  0.3493 -0.2319  0.0536
95706W        W38800  20.153  28.622  28.389 -0.0666 -0.0497 -0.0233
95707W        W38801  16.508  28.166  27.984 -0.1445  0.0603 -0.1068
95708W        W38802  20.357  29.080  27.333  0.2282 -0.0666  0.1769
95709W        W38803  17.622  28.428  29.626 -0.0053 -0.2182 -0.0012
95710W        W38804  19.558  31.173  30.799  0.1350  0.1988  0.0713
95711W        W38805  20.225  23.997  27.858 -0.2056  0.0341  0.1217
95712W        W38806  22.284  27.254  29.840 -0.2530 -0.2490 -0.4418
95713W        W38807  20.114  27.628  28.597  0.1829  0.2911 -0.0401
95714W        W38808  21.425  28.852  31.763  0.2986  0.3497 -0.0799
95715W        W38809  18.852  26.184  29.964  0.0352 -0.1524  0.0384
95716W        W38810  20.539  25.886  28.146  0.1604 -0.3276  0.1586
95717W        W38811  19.607  26.527  31.242 -0.2399  0.1954 -0.0832
95718W        W38812  21.694  25.098  30.422 -0.2214 -0.0590  0.0136
95719W        W38813  17.508  27.927  30.500 -0.2504  0.1043 -0.1830
95720W        W38814  21.979  28.726  27.914  0.1242 -0.0259 -0.1263
95721W        W38815  19.723  26.160  27.605  0.1563  0.0341  0.0215
95722W        W38816  19.412  26.224  28.504 -0.1759 -0.1535 -0.0712
95723W        W38817  21.582  25.683  31.014 -0.0041 -0.1060 -0.2797
95724W        W38818  18.744  27.870  28.006 -0.2203  0.1907 -0.0736
95725W        W38819  19.958  26.304  29.882  0.0781 -0.0507  0.1361
95726W        W38820  19.384  28.907  28.313  0.0246  0.4076 -0.1223
95727W        W38821  19.224  28.970  29.505  0.2576  0.1218  0.3558
95728W        W38822  20.009  28.486  29.564  0.2910  0.1039 -0.1533
95729W        W38823  18.526  25.169  29.921 -0.2191  0.0340  0.1204
95730W        W38824  22.198  26.137  29.066 -0.2520  0.0399  0.2136
95731W        W38825  19.065  26.330  30.475 -0.1858 -0.1663  0.1823
95732W        W38826  22.629  25.366  30.512 -0.1035  0.1701  0.0478
95733W        W38827  18.068  26.282  28.790  0.1822  0.0416 -0.3357
95734W        W38828  21.429  25.812  27.487 -0.1447 -0.1792 -0.2757
95735W        W38829  19.787  27.517  30.389  0.1815  0.1573 -0.0704
95736W        W38830  18.275  25.926  29.554 -0.1045  0.1562 -0.2554
95737W        W38831  19.479  26.740  28.386  0.1620  0.1421  0.3288
95738W        W38832  22.304  26.764  31.243  0.1945  0.0154  0.2047
95739W        W38833  20.535  27.192  29.133 -0.0342 -0.0574  0.0266
95740W        W38834  19.943  29.495  30.720 -0.1579 -0.3404  0.2647
95741W        W38835  19.440  25.964  30.530  0.0745 -0.1802  0.0723
95742W        W38836  19.977  25.760  27.719 -0.1132 -0.0789  0.1209
95743W        W38837  18.869  26.514  27.774  0.0013 -0.0145 -0.1911
95744W        W38838  20.778  27.340  30.726 -0.0848 -0.1237  0.3059
95745W        W38839  19.970  29.301  31.776 -0.0056  0.2358  0.0304
95746W        W38840  19.370  24.940  29.214  0.0572 -0.2095 -0.0990
95747W        W38841  20.988  28.608  29.347 -0.1256 -0.3721 -0.1685
95748W        W38842  21.353  27.754  30.305  0.0945  0.3427 -0.0896
95749W        W38843  19.716  28.162  27.536 -0.0625 -0.0480  0.2356
95750W        W38844  19.052  27.048  28.918  0.5684 -0.2317  0.2329
95751W        W38845  20.120  29.967  30.838  0.3890 -0.0993 -0.1885
95752W        W38846  18.548  26.546  30.203 -0.1724  0.0457  0.1851
95753W        W38847  21.474  26.870  30.356 -0.0378 -0.0407  0.0027
95754W        W38848  22.039  27.694  30.773  0.0425  0.0402  0.1531
95755W        W38849  20.550  24.042  28.232 -0.0761 -0.0030  0.0334
95756W        W38850  20.340  25.973  30.028 -0.2016  0.4452 -0.1261
95757W        W38851  17.892  28.237  30.385 -0.0034 -0.1247  0.2068
95758W        W38852  21.161  26.358  29.004  0.0899  0.0240  0.5796
95759W        W38853  20.041  26.564  30.924  0.0478  0.0663 -0.0696
95760W        W38854  19.647  28.830  26.882 -0.1173  0.0796  0.1955
95761W        W38855  21.490  26.039  31.658  0.1036  0.0837 -0.2234
95762W        W38856  19.662  26.437  30.557  0.0047 -0.0944  0.1715
95763W        W38857  18.973  28.157   0.613 -0.1685 -0.2097 -0.4071
95764W        W38858  18.184  26.597  26.713 -0.0105 -0.2559  0.1329
95765W        W38859  19.524  28.520  29.838 -0.0863 -0.1266 -0.2861
95766W        W38860  18.388  27.771  28.471  0.4436  0.1498 -0.0772
95767W        W38861  20.929  29.362  29.048 -0.0057 -0.3175  0.3127
95768W        W38862  19.590  27.351  28.971 -0.0550  0.2537 -0.1318
95769W        W38863  21.308  26.843  27.941  0.2330 -0.1254 -0.1329
95770W        W38864  21.186  28.823  31.046 -0.2360  0.0110  0.0546
95771W        W38865  20.108  25.642  28.222  0.1607 -0.0497 -0.3900
95772W        W38866  21.373  25.226  28.417  0.2863 -0.3077  0.0059
95773W        W38867  20.887  26.116  27.731  0.3838 -0.2242 -0.1252
95774W        W38868  20.725  27.151  30.289  0.2135 -0.1740 -0.0074
95775W        W38869  17.098  27.087  27.095 -0.0258 -0.1963  0.3447
95776W        W38870  18.185  27.691  28.036 -0.0206  0.1750 -0.2876
95777W        W38871  18.104  27.652  29.002  0.0184 -0.0301  0.0128
95778W        W38872  20.552  26.089  31.185  0.0807  0.0139  0.1629
95779W        W38873  18.533  24.227  31.271  0.4045 -0.1915  0.1250
95780W        W38874  17.745  26.773  29.495 -0.0955 -0.0619 -0.1002
95781W        W38875  17.426  27.208  29.427 -0.0080 -0.0307  0.1754
95782W        W38876  21.562  27.892  28.288  0.1032  0.0985  0.1481
95783W        W38877  19.780  24.621  30.145 -0.1122 -0.0901 -0.3501
95784W        W38878  18.197  25.153  29.522 -0.1003 -0.1773 -0.1313
95785W        W38879  20.572  28.901  29.166  0.0551 -0.3562 -0.1441
95786W        W38880  20.586  29.363  29.630  0.0663  0.1370 -0.0666
95787W        W38881  20.107  25.423  28.750 -0.1656  0.0481 -0.1808
95788W        W38882  21.559  27.908  31.398  0.1710 -0.1221  0.0070
95789W        W38883  18.763  27.192  26.316 -0.0759 -0.5188 -0.1590
95790W        W38884  20.275  27.483  30.852 -0.2358  0.1318  0.1109
95791W        W38885  20.402  25.206  31.107  0.2179 -0.2368  0.1243
95792W        W38886  18.495  25.586  28.770 -0.0958 -0.2478  0.0351
95793W        W38887  20.904  25.803  29.771  0.0732 -0.1817  0.0834
95794W        W38888  18.155  26.698  28.495  0.0280  0.3124  0.2194
95795W        W38889  21.096  28.524  28.889 -0.0380  0.1971  0.1779
95796W        W38890  18.902  28.493  29.734 -0.0280 -0.0946  0.0372
95797W        W38891  19.941  28.495  30.282  0.1737 -0.0064  0.1005
95798W        W38892  18.408  25.145  30.882 -0.0431  0.1842 -0.1407
95799W        W38893  20.437  27.264  28.652 -0.0824  0.0399 -0.2083
95800W        W38894  21.958  27.834  31.700  0.1769 -0.1413  0.0340
95801W        W38895  22.197  28.454  29.471  0.0221  0.2312 -0.0043
95802W        W38896  22.125  26.531  30.232  0.1796 -0.1406  0.0846
95803W        W38897  18.998  26.712  29.886 -0.3684  0.1114 -0.1615
95804W        W38898  18.065  25.552  29.835  0.1461  0.0083 -0.0516
95805W        W38899  21.032  27.062  29.281 -0.0509  0.1863 -0.2981
95806W        W38900  20.019  27.705  31.232 -0.1076 -0.0567 -0.1181
95807W        W38901  19.471  24.584  28.783  0.1031 -0.0103  0.2111
95808W        W38902  20.477  25.225  28.373 -0.2004 -0.0297 -0.0209
95809W        W38903  21.519  28.593  26.956  0.2322  0.3908 -0.0335
95810W        W38904  19.988  26.753  30.247  0.0880 -0.1311  0.0817
95811W        W38905  19.157  24.649  26.968 -0.1524 -0.1678  0.0396
95812W        W38906  19.660  26.310   0.535  0.2464 -0.2500 -0.0277
95813W        W38907  18.994  27.416  27.728 -0.0916  0.3773 -0.3278
95814W        W38908  21.529  27.011  31.268  0.2341 -0.1145 -0.2299
95815W        W38909  19.918  26.575  27.477 -0.1126  0.3467 -0.2159
95816W        W38910  22.131  28.071  29.046 -0.1230  0.5809 -0.0991
95817W        W38911  20.743  29.937  30.797  0.3372  0.1714 -0.0199
95818W        W38912  20.447  29.514  31.627 -0.0036  0.0275 -0.0871
95819W        W38913  19.969  27.548  29.900 -0.0968 -0.2980  0.2111
95820W        W38914  20.405  27.730  30.021  0.4894 -0.0468  0.3428
95821W        W38915  16.037  25.048  30.455  0.0972 -0.0756 -0.0402
95822W        W38916  17.907  26.710  27.191  0.0287  0.0472 -0.1910
95823W        W38917  19.915  26.264  28.401 -0.1196 -0.1698  0.0372
95824W        W38918  21.853  27.631  29.240 -0.0678  0.0380  0.0449
95825W        W38919  20.139  25.981  29.568 -0.1368 -0.0006 -0.4915
95826W        W38920  20.202  24.462  27.940 -0.1144 -0.0377 -0.0014
95827W        W38921  19.382  28.298  30.898  0.2216  0.0388  0.1138
95828W        W38922  20.820  27.670  30.351 -0.0029  0.0176  0.0293
95829W        W38923  21.775  26.375  30.501  0.0560 -0.0753  0.0213
95830W        W38924  19.621  27.530  31.565  0.4597 -0.0000 -0.1339
95831W        W38925  20.012  27.008  30.820 -0.1387  0.1040 -0.0145
95832W        W38926  18.626  27.916  31.595  0.3465 -0.3722 -0.2042
95833W        W38927  19.929  29.890  30.405  0.0131  0.1264 -0.0509
95834W        W38928  17.785  29.257   0.843  0.0567 -0.2338  0.0795
95835W        W38929  20.986  26.824  30.558 -0.1270  0.2332 -0.3168
95836W        W38930  19.951  24.855  31.662  0.0435  0.1625  0.0844
95837W        W38931  20.783  25.401  30.581 -0.1374 -0.3966 -0.1540
95838W        W38932  20.300  29.010   0.069  0.4384 -0.0070  0.1006
95839W        W38933  19.269  30.400  31.979  0.2587  0.0629  0.1028
95840W        W38934  19.004  26.461   0.546  0.1142 -0.3814  0.0878
95841W        W38935  20.523  27.599  31.701 -0.0559  0.1065 -0.2030
95842W        W38936  18.147  26.770   0.478 -0.0476 -0.0621 -0.1499
95843W        W38937  21.571  27.425  31.625  0.0944 -0.0709  0.1622
95844W        W38938  18.255  28.951   0.598  0.2559 -0.1369 -0.1923
95845W        W38939  19.026  25.410  31.717  0.1420  0.0477 -0.2876
95846W        W38940  20.402  27.770   0.256  0.2174  0.1446 -0.0523
95847W        W38941  18.375  25.537  31.717 -0.2979  0.3782  0.0756
95848W        W38942  19.409  26.647  31.939  0.1111  0.1468 -0.1077
95849W        W38943  18.821  24.827   0.201  0.1516 -0.1289  0.0230
95850W        W38944  19.092  28.504   0.138 -0.1041 -0.0340 -0.0222
95851W        W38945  21.740  25.802   0.723 -0.1020  0.0526  0.3139
95852W        W38946  20.671  27.569  31.179 -0.1162  0.0382  0.0552
95853W        W38947  21.788  25.613  30.163 -0.0911  0.0903 -0.3428
95854W        W38948  19.987  26.146  31.257 -0.1532 -0.2144  0.1534
95855W        W38949  19.353  25.825  31.766 -0.1764  0.2148  0.0092
95856W        W38950  18.385  28.986  31.262 -0.4011  0.0404  0.1078
95857W        W38951  18.731  26.333  31.201  0.0185 -0.0445 -0.1824
95858W        W38952  20.564  28.714   0.334  0.2322 -0.2683  0.1296
95859W        W38953  19.680  27.576  30.884  0.0408  0.3002  0.1768
95860W        W38954  20.481  26.014   1.018  0.3092  0.0814 -0.1048
95861W        W38955  21.197  26.215   0.443  0.0021  0.0994  0.0658
95862W        W38956  21.056  25.867  30.749 -0.3910 -0.2426 -0.1600
95863W        W38957  17.794  25.780  31.136  0.0489 -0.2269 -0.0231
95864W        W38958  19.131  27.811  31.679 -0.0348  0.0488  0.2520
95865W        W38959  19.360  28.401  31.683  0.0855  0.1634  0.3684
95866W        W38960  21.116  28.365   0.791 -0.1041  0.0259  0.2119
95867W        W38961  20.677  27.302   0.106  0.1033 -0.1866  0.0003
95868W        W38962  19.881  27.745   0.400 -0.1582 -0.1610 -0.1784
95869W        W38963  21.396  27.172  31.977  0.0679 -0.0730 -0.1381
95870W        W38964  18.937  27.341   0.176  0.0949  0.1392  0.0649
95871W        W38965  19.864  25.278   0.700 -0.1190 -0.2071  0.0794
95872W        W38966  19.523  28.379   0.342 -0.0322  0.2680 -0.0827
95873W        W38967  18.275  25.812  30.228  0.0459 -0.1013 -0.0080
95874W        W38968  18.434  27.653   0.125 -0.2622 -0.0050 -0.0515
95875W        W38969  20.303  25.563  31.897  0.1886 -0.1061  0.0004
95876W        W38970  19.939  28.182  31.024 -0.0266 -0.0188  0.2572
95877W        W38971  21.889  28.866  31.486 -0.1665 -0.1247 -0.2934
95878W        W38972  17.445  29.039  31.238  0.1641 -0.1067  0.1362
95879W        W38973  21.107  29.670   0.205  0.0101 -0.3027  0.1958
95880W        W38974  21.530  24.788  31.915  0.2690  0.4369 -0.1283
95881W        W38975  19.078  25.905   0.601 -0.3365 -0.0690 -0.0358
95882W        W38976  19.082  26.847  30.404 -0.0357  0.2505 -0.1997
95883W        W38977  20.992  26.926  31.299 -0.0364 -0.0715 -0.0439
95884W        W38978  20.832  26.554   0.130 -0.0256  0.0035  0.2936
95885W        W38979  22.739  27.212   0.516  0.0321  0.1119 -0.1344
95886W        W38980  18.876  28.002   0.103 -0.2469  0.0240 -0.2650
95887W        W38981  20.150  27.089  29.924 -0.1413 -0.0144  0.0668
95888W        W38982  18.714  27.544   0.589 -0.0429 -0.0738  0.0986
95889W        W38983  18.887  28.501  30.414  0.2227 -0.1278 -0.1131
95890W        W38984  19.196  26.676  31.451 -0.2976 -0.0340 -0.1464
95891W        W38985  18.376  26.625  31.018 -0.1381 -0.1179  0.2866
95892W        W38986  19.425  24.936   1.018  0.3687 -0.3902 -0.2868
95893W        W38987  19.061  27.947  30.739  0.2355  0.0929  0.0385
95894W        W38988  22.142  27.878   0.322 -0.1516  0.0579  0.0841
95895W        W38989  20.468  27.353   0.655  0.1518 -0.2480 -0.2478
95896W        W38990  19.145  31.518  19.020 -0.2057 -0.1994  0.2033
95897W        W38991  17.888  29.623  17.021 -0.1896  0.4403  0.0917
95898W        W38992  19.063  29.258  16.788  0.0901  0.4050 -0.0120
95899W        W38993  21.830  30.784  17.363 -0.0771 -0.4384  0.1170
95900W        W38994  17.406  28.308  18.058 -0.2985 -0.3782  0.1304
95901W        W38995  20.482  31.496  16.836 -0.0233 -0.2785  0.0632
95902W        W38996  17.097  30.280  20.160 -0.0530  0.0585  0.0656
95903W        W38997  20.197  32.248  18.355  0.0289 -0.2745  0.2385
95904W        W38998  19.936  31.650  17.615 -0.4256 -0.1762 -0.0555
95905W        W38999  20.997  31.795  16.592  0.2777  0.5433  0.0958
95906W        W39000  19.716  30.736  18.166  0.0615  0.0393 -0.1095
95907W        W39001  19.006  31.959  17.936  0.0696  0.2758 -0.2851
95908W        W39002  19.942  30.024  16.329 -0.0501  0.1015  0.3628
95909W        W39003  18.596  28.427  18.458  0.1261 -0.2974  0.4365
95910W        W39004  20.316  30.250  18.883  0.1135 -0.2246  0.2596
95911W        W39005  17.717  30.617  17.617 -0.1630 -0.0608 -0.1824
95912W        W39006  19.623  30.131  19.881 -0.0598  0.2190  0.0762
95913W        W39007  19.473  30.060  17.280  0.0804 -0.1438  0.0656
95914W        W39008  19.625  31.760  16.854 -0.1411 -0.3103  0.0722
95915W        W39009  20.097  28.671  19.544  0.1393 -0.0358  0.0354
95916W        W39010  20.469  28.900  19.206  0.1644  0.0383  0.1424
95917W        W39011  19.716  31.279  16.693 -0.0804 -0.0141  0.4096
95918W        W39012  18.550  30.064  16.280 -0.0878  0.3083  0.1061
95919W        W39013  17.689  29.180  18.673 -0.1428 -0.2093  0.1942
95920W        W39014  18.971  31.238  17.778 -0.0773  0.0937 -0.1162
95921W        W39015  20.451  29.138  18.777 -0.2436  0.0606  0.2593
95922W        W39016  20.986  30.246  17.440 -0.0186 -0.0243 -0.0652
95923W        W39017  20.195  32.959  18.236 -0.3339 -0.1530  0.1324
95924W        W39018  19.909  31.830  18.101 -0.1361 -0.1299 -0.0105
95925W        W39019  20.944  29.635  20.056 -0.4172  0.3524 -0.0419
95926W        W39020  17.557  30.488  19.199 -0.0875  0.3340 -0.1520
95927W        W39021  18.572  32.017  16.972 -0.0806  0.0763 -0.3476
95928W        W39022  18.982  32.338  16.813  0.2835  0.0194  0.0698
95929W        W39023  20.142  31.989  17.167 -0.2651 -0.0574 -0.0548
95930W        W39024  20.951  31.937  18.512  0.0848 -0.0532 -0.0574
95931W        W39025  20.123  31.172  18.331  0.1341 -0.0297 -0.0271
95932W        W39026  19.662  32.179  16.288 -0.3547  0.0885  0.0435
95933W        W39027  18.033  32.686  17.946  0.2443 -0.0106 -0.1369
95934W        W39028  19.530  33.456  19.168  0.4169  0.0327 -0.1183
95935W        W39029  19.794  30.950  18.661 -0.0384  0.0106  0.1363
95936W        W39030  19.124  30.643  17.411 -0.0675 -0.1213  0.1069
95937W        W39031  18.783  31.914  16.117 -0.0316  0.3431  0.0424
95938W        W39032  19.689  30.782  17.700  0.2182  0.1728  0.0958
95939W        W39033  20.726  32.098  20.415 -0.2221  0.1667 -0.1751
95940W        W39034  18.668  30.972  17.418  0.1668  0.2849 -0.0298
95941W        W39035  21.093  30.031  20.293 -0.2536  0.4633 -0.0945
95942W        W39036  18.580  32.434  16.145 -0.0706  0.2596 -0.0148
95943W        W39037  20.744  29.714  17.020 -0.1580  0.0308 -0.1305
95944W        W39038  21.240  28.677  16.146  0.1918  0.1443  0.5334
95945W        W39039  21.593  30.085  16.722 -0.0900  0.2299  0.0298
95946W        W39040  20.114  29.633  18.853 -0.1790  0.2791 -0.1954
95947W        W39041  19.040  31.690  17.524 -0.0075  0.2154 -0.1244
95948W        W39042  20.026  29.181  19.043  0.1363  0.2869 -0.1924
95949W        W39043  20.389  30.802  18.723 -0.1258 -0.1878  0.0808
95950W        W39044  20.496  30.698  16.985  0.0285 -0.0490  0.0403
95951W        W39045  21.559  28.694  19.603 -0.2487  0.0254  0.1634
95952W        W39046  17.884  31.561  18.314 -0.0238  0.2242 -0.3842
95953W        W39047  17.935  29.483  17.979  0.2970  0.0748 -0.1681
95954W        W39048  21.339  31.912  15.782 -0.3232  0.0882  0.0605
95955W        W39049  21.714  32.155  16.938  0.0013  0.0632  0.4372
95956W        W39050  20.937  31.075  16.076 -0.3214 -0.1144 -0.1798
95957W        W39051  19.149  31.891  16.529  0.0328 -0.0337 -0.1268
95958W        W39052  17.809  30.949  19.157 -0.1300 -0.3177 -0.0308
95959W        W39053  18.455  30.537  18.773  0.1379 -0.2899 -0.2212
95960W        W39054  18.591  27.728  16.181 -0.2307  0.1831  0.0718
95961W        W39055  20.648  31.279  19.633 -0.1123 -0.1131 -0.0284
95962W        W39056  18.002  31.393  19.145  0.0198 -0.3136  0.0257
95963W        W39057  21.868  30.212  17.278 -0.2792 -0.0545  0.3335
95964W        W39058  19.618  31.047  17.138  0.1643 -0.0604  0.0809
95965W        W39059  20.548  30.962  18.165 -0.0200 -0.2843 -0.2389
95966W        W39060  21.691  30.761  16.458  0.0989  0.1494  0.0250
95967W        W39061  21.176  29.797  18.768  0.2275  0.0030 -0.2275
95968W        W39062  20.729  29.539  18.983 -0.0596  0.2531  0.1330
95969W        W39063  18.949  30.305  15.987  0.0601  0.2487  0.3120
95970W        W39064  18.736  31.032  16.540  0.2290  0.2510 -0.2516
95971W        W39065  21.415  31.147  18.787 -0.2377  0.1420  0.0470
95972W        W39066  21.239  29.929  17.188  0.2305  0.1277  0.1349
95973W        W39067  19.522  31.514  17.321 -0.0199 -0.5353 -0.1108
95974W        W39068  21.152  29.827  19.663  0.0993 -0.2837 -0.2884
95975W        W39069  19.368  31.810  18.522 -0.0887 -0.2673  0.0635
95976W        W39070  17.285  32.339  15.235 -0.3729  0.1155  0.0434
95977W        W39071  19.113  31.919  17.056 -0.1885  0.3019 -0.3133
95978W        W39072  18.248  32.054  16.016 -0.0035  0.1346 -0.2868
95979W        W39073  18.101  29.515  18.484  0.0946 -0.0441  0.2600
95980W        W39074  19.497  32.130  18.093  0.2034  0.2130 -0.0602
95981W        W39075  21.427  28.795  18.616 -0.0233  0.2283 -0.0197
95982W        W39076  18.213  29.523  19.447  0.1013 -0.2895  0.1319
95983W        W39077  20.738  30.369  20.390 -0.0961  0.1316 -0.2167
95984W        W39078  18.099  30.231  17.353  0.1590  0.0336  0.1634
95985W        W39079  19.792  33.255  17.535 -0.0711 -0.3594 -0.0332
95986W        W39080  19.728  30.619  15.695 -0.0854 -0.2243  0.1309
95987W        W39081  21.725  32.375  15.947  0.0757 -0.1007  0.1301
95988W        W39082  18.745  31.212  19.303  0.0612  0.3597  0.2484
95989W        W39083  16.661  28.860  17.438  0.3235  0.2412 -0.2586
95990W        W39084  19.040  28.727  19.197  0.2233  0.1474  0.0243
95991W        W39085  18.817  29.573  18.314 -0.2564  0.0228 -0.0889
95992W        W39086  21.643  29.705  19.667 -0.2871  0.0671 -0.0572
95993W        W39087  19.078  28.659  16.056 -0.1016 -0.0938 -0.1636
95994W        W39088  21.820  29.615  18.096  0.0295 -0.3059  0.1088
95995W        W39089  19.496  30.333  17.829  0.3358  0.0771  0.4981
95996W        W39090  17.807  30.601  16.635  0.0384  0.3102  0.0604
95997W        W39091  22.384  28.552  21.925 -0.3139 -0.1240  0.0440
95998W        W39092  19.904  32.772  17.494 -0.1691  0.0020 -0.2437
95999W        W39093  21.066  31.751  19.486 -0.1578  0.1909 -0.1452
96000W        W39094  20.054  31.589  16.559 -0.2087  0.1938  0.0499
96001W        W39095  18.413  29.234  18.081  0.1450 -0.2033  0.1045
96002W        W39096  19.520  29.398  17.029 -0.0612 -0.0277  0.0536
96003W        W39097  18.761  32.181  17.439  0.0396  0.0438 -0.0178
96004W        W39098  19.429  32.266  16.689 -0.0510 -0.0057 -0.0894
96005W        W39099  19.978  28.269  17.922 -0.4179  0.0749  0.4300
96006W        W39100  22.461  32.100  16.633  0.1367  0.1347  0.1712
96007W        W39101  19.653  30.713  16.605  0.0836  0.0454 -0.2230
96008W        W39102  18.862  30.096  18.553 -0.1217  0.0649  0.1213
96009W        W39103  20.748  29.216  19.826 -0.1266 -0.0918  0.1789
96010W        W39104  20.904  31.538  18.266 -0.2737  0.3786  0.1701
96011W        W39105  20.028  30.200  15.811 -0.2751 -0.1108  0.0275
96012W        W39106  19.020  29.193  15.785 -0.1778 -0.1027  0.0488
96013W        W39107  20.581  32.450  16.866 -0.1048  0.0504 -0.1072
96014W        W39108  17.630  31.554  16.562 -0.0862  0.0353 -0.2455
96015W        W39109  18.097  30.158  17.837 -0.0037 -0.2138  0.0226
96016W        W39110  20.741  32.109  17.589  0.0437  0.2031 -0.0005
96017W        W39111  20.660  28.957  18.312 -0.1868  0.0922  0.1149
96018W        W39112  17.245  30.592  18.258  0.0625 -0.0855  0.0139
96019W        W39113  19.360  30.736  18.528 -0.0421 -0.0974  0.0200
96020W        W39114  17.620  28.773  17.902 -0.1879 -0.0185 -0.4215
96021W        W39115  19.325  31.515  19.659 -0.0036 -0.2337 -0.2712
96022W        W39116  21.595  29.227  18.309  0.4414  0.2278 -0.0382
96023W        W39117  21.156  29.762  16.669 -0.2392 -0.0979 -0.4531
96024W        W39118  21.822  29.163  19.937  0.0251 -0.0065 -0.2008
96025W        W39119  21.469  31.778  16.553 -0.0003 -0.3024 -0.1216
96026W        W39120  18.571  30.593  16.205 -0.1528 -0.1447 -0.6334
96027W        W39121  21.725  28.560  18.140 -0.2410 -0.0015  0.0933
96028W        W39122  17.931  31.792  19.975 -0.1554 -0.2396 -0.2105
96029W        W39123  19.819  28.615  17.226  0.2881 -0.0795  0.2388
96030W        W39124  21.327  33.083  18.377  0.2901 -0.1564 -0.3466
96031W        W39125  20.618  30.580  16.471  0.2391 -0.1006  0.0953
96032W        W39126  21.325  31.327  17.292 -0.1084 -0.1029  0.0514
96033W        W39127  18.433  30.905  18.437  0.0416 -0.1610  0.1221
96034W        W39128  19.033  30.733  19.037 -0.1092  0.0797 -0.1884
96035W        W39129  20.661  31.944  16.993 -0.0813 -0.0419 -0.0284
96036W        W39130  20.072  28.176  17.455  0.1507  0.0412  0.0735
96037W        W39131  19.675  29.821  15.822 -0.0120  0.0877 -0.2556
96038W        W39132  20.266  28.980  17.986  0.0348 -0.0116 -0.0483
96039W        W39133  17.836  31.979  16.443  0.3929 -0.1101 -0.1896
96040W        W39134  20.947  28.932  18.795 -0.0397 -0.0645  0.0192
96041W        W39135  20.044  29.183  18.421  0.3174  0.1378 -0.2436
96042W        W39136  20.966  29.133  20.784  0.1102 -0.2687  0.0164
96043W        W39137  20.979  32.036  19.004 -0.0016 -0.0854  0.0910
96044W        W39138  20.705  31.028  16.646 -0.1794  0.4787 -0.2113
96045W        W39139  20.137  29.684  17.890 -0.2329 -0.0281 -0.2750
96046W        W39140  17.700  29.406  16.572  0.5026  0.0511 -0.0731
96047W        W39141  19.656  29.526  19.246 -0.0080  0.0609  0.2186
96048W        W39142  18.571  30.633  19.290 -0.2188  0.3664 -0.0117
96049W        W39143  18.823  32.810  17.528  0.1915  0.3233 -0.0345
96050W        W39144  20.378  30.635  19.593 -0.2249 -0.2333 -0.0407
96051W        W39145  20.633  31.145  17.230  0.0470 -0.1640 -0.1864
96052W        W39146  21.740  30.256  20.796  0.0271 -0.1688 -0.0603
96053W        W39147  19.101  30.597  16.420 -0.0451  0.0099  0.0196
96054W        W39148  19.705  33.134  16.623 -0.0951 -0.2038  0.2877
96055W        W39149  18.044  32.153  17.305  0.0301 -0.0072  0.2324
96056W        W39150  18.667  29.336  19.143 -0.0050  0.0278 -0.0820
96057W        W39151  20.432  31.854  18.311 -0.1651  0.1489  0.0564
96058W        W39152  21.011  31.381  16.918  0.1160 -0.2625  0.4510
96059W        W39153  20.608  29.886  18.616  0.0562  0.2551 -0.3212
96060W        W39154  17.792  31.111  16.434  0.1134  0.0351  0.1271
96061W        W39155  20.003  30.147  19.249  0.1342  0.1235  0.0032
96062W        W39156  16.346  30.789  18.544 -0.0551  0.0925 -0.2865
96063W        W39157  19.048  30.134  16.483  0.2252 -0.2248  0.2488
96064W        W39158  17.525  30.190  17.469  0.2545 -0.1993 -0.0882
96065W        W39159  21.202  29.539  19.207 -0.0770  0.0621 -0.1972
96066W        W39160  20.780  32.835  17.271 -0.2307  0.3415  0.1082
96067W        W39161  19.882  29.635  18.318 -0.1069 -0.0987 -0.2246
96068W        W39162  19.713  29.913  17.850 -0.0768  0.2294 -0.0605
96069W        W39163  17.214  31.242  18.281 -0.0006 -0.1354 -0.1360
96070W        W39164  21.233  31.503  19.911 -0.1840 -0.0523 -0.2243
96071W        W39165  21.163  29.177  16.320  0.0150 -0.0218 -0.1233
96072W        W39166  20.880  30.983  18.787  0.0269  0.0913 -0.0874
96073W        W39167  19.425  30.590  19.679  0.1710  0.3812  0.4725
96074W        W39168  19.428  29.670  16.515  0.0859 -0.2530 -0.1350
96075W        W39169  21.802  28.979  21.184  0.0829  0.2548  0.1192
96076W        W39170  19.609  28.295  16.841 -0.0671 -0.0907  0.0448
96077W        W39171  18.289  31.289  16.592  0.0916  0.1365 -0.0616
96078W        W39172  20.626  31.599  19.225 -0.1095  0.0916 -0.0383
96079W        W39173  18.527  29.239  17.095  0.0378  0.1387  0.1278
96080W        W39174  17.695  32.299  17.693  0.1455 -0.1713  0.0408
96081W        W39175  17.787  29.258  19.531  0.4043  0.0821  0.2227
96082W        W39176  21.160  31.280  19.361 -0.2987 -0.0131  0.0058
96083W        W39177  18.518  30.492  17.609 -0.1817 -0.2133 -0.0821
96084W        W39178  18.839  28.914  18.227 -0.0283  0.2048 -0.1245
96085W        W39179  20.970  30.720  18.329  0.0371 -0.2990 -0.0444
96086W        W39180  21.696  29.733  17.113 -0.2418 -0.0082 -0.0429
96087W        W39181  20.414  29.522  18.306  0.1816  0.1753  0.3079
96088W        W39182  20.123  30.661  19.106  0.2317 -0.0795  0.3108
96089W        W39183  19.749  29.990  18.871 -0.1707  0.0664 -0.1604
96090W        W39184  21.272  33.105  17.229  0.1439 -0.0920 -0.1573
96091W        W39185  20.244  31.037  19.883 -0.0621 -0.0570 -0.0182
96092W        W39186  18.075  29.264  17.327  0.0323 -0.0287  0.0392
96093W        W39187  16.908  30.163  17.507  0.1771  0.1895 -0.0953
96094W        W39188  18.721  31.573  16.622 -0.2021 -0.0462 -0.1102
96095W        W39189  18.929  31.198  19.790 -0.0998  0.4908  0.1802
96096W        W39190  19.387  31.623  17.998 -0.0642  0.1825 -0.1278
96097W        W39191  18.429  30.950  16.939 -0.1177 -0.0859  0.0067
96098W        W39192  16.888  33.004  18.471 -0.3552 -0.1912 -0.1645
96099W        W39193  20.852  29.354  17.934  0.0599  0.2764 -0.0527
96100W        W39194  21.493  32.902  15.883  0.0974 -0.0073  0.0232
96101W        W39195  18.649  30.496  16.724 -0.0954 -0.1284  0.0126
96102W        W39196  22.363  29.387  19.767  0.5936 -0.1080  0.0727
96103W        W39197  20.718  30.528  15.863 -0.1433 -0.0816 -0.2176
96104W        W39198  21.785  28.357  20.737  0.3448 -0.1272  0.2545
96105W        W39199  18.444  29.892  19.817  0.1777  0.0497  0.1050
96106W        W39200  21.622  31.461  16.880  0.0101  0.1432 -0.2345
96107W        W39201  18.126  29.034  17.723 -0.1149 -0.1418  0.2177
96108W        W39202  20.811  31.619  20.307  0.2389  0.0042  0.2206
96109W        W39203  19.531  31.212  20.579  0.0156  0.0231  0.2674
96110W        W39204  20.039  29.103  17.500 -0.0041  0.2229 -0.2191
96111W        W39205  19.864  28.346  16.388  0.1082  0.1894 -0.3398
96112W        W39206  20.190  30.053  18.471 -0.3055 -0.2453 -0.1816
96113W        W39207  20.898  32.568  17.795  0.2826 -0.2513 -0.1126
96114W        W39208  20.444  30.351  17.417  0.1947 -0.0997 -0.0069
96115W        W39209  21.086  30.409  17.912  0.1950  0.0352  0.1463
96116W        W39210  18.854  30.594  18.409  0.4313 -0.2047 -0.1472
96117W        W39211  20.475  30.129  16.894 -0.0052  0.1991  0.1899
96118W        W39212  20.143  30.732  17.448  0.3418  0.1697  0.0043
96119W        W39213  19.248  30.308  18.271  0.0476  0.2470 -0.0169
96120W        W39214  18.025  28.890  20.349 -0.0704 -0.1150 -0.1287
96121W        W39215  20.458  30.102  16.013 -0.2674 -0.1379 -0.2145
96122W        W39216  20.694  30.069  18.115 -0.2333 -0.1259 -0.2528
96123W        W39217  20.244  29.936  19.702  0.1172 -0.0867  0.0706
96124W        W39218  19.238  29.969  20.415  0.1077  0.2548  0.1208
96125W        W39219  18.044  30.410  18.955  0.2249 -0.0337 -0.4620
96126W        W39220  18.648  30.429  19.757 -0.1247  0.0326  0.1136
96127W        W39221  21.680  31.869  17.365  0.2745 -0.3494  0.1533
96128W        W39222  19.889  29.535  16.449 -0.2556  0.3341  0.0707
96129W        W39223  21.786  30.861  18.277  0.1358 -0.0886 -0.0020
96130W        W39224  21.297  30.060  16.303  0.2673 -0.1846  0.0352
96131W        W39225  20.782  30.088  16.412  0.0157 -0.0204 -0.0469
96132W        W39226  18.621  30.116  17.077  0.1549 -0.1397  0.0683
96133W        W39227  21.596  29.970  20.165  0.5790 -0.3338 -0.1709
96134W        W39228  19.004  30.189  17.386  0.0894 -0.0188 -0.2982
96135W        W39229  19.124  30.274  19.980  0.0727  0.0177  0.2118
96136W        W39230  19.976  32.133  16.711  0.1676  0.0556 -0.1690
96137W        W39231  20.402  31.579  17.464  0.1642 -0.3236 -0.2669
96138W        W39232  20.168  31.111  16.546  0.0076  0.2097  0.0713
96139W        W39233  19.710  28.776  17.817  0.0789 -0.0883 -0.1292
96140W        W39234  19.590  32.539  19.210  0.0443 -0.0771 -0.1485
96141W        W39235  19.291  30.663  15.859 -0.1825 -0.0718 -0.0955
96142W        W39236  19.738  29.331  16.032  0.1077  0.0013  0.0092
96143W        W39237  20.209  30.135  17.954 -0.2020 -0.0785  0.5628
96144W        W39238  21.948  30.289  19.447  0.2604 -0.3165  0.1961
96145W        W39239  20.474  28.369  18.141 -0.2022 -0.0209 -0.1812
96146W        W39240  20.901  30.760  19.629  0.0558 -0.0140  0.0083
96147W        W39241  18.375  33.191  16.691  0.0567  0.3029  0.1449
96148W        W39242  20.120  28.633  18.408  0.2566  0.0116 -0.0767
96149W        W39243  18.040  31.616  17.901 -0.1129 -0.1563  0.1697
96150W        W39244  17.535  30.893  18.024  0.2583  0.3525  0.1152
96151W        W39245  19.376  33.450  16.995 -0.2923  0.2441  0.0241
96152W        W39246  20.384  29.369  19.330  0.0800 -0.0673  0.0038
96153W        W39247  20.652  30.581  19.123 -0.1730 -0.2286 -0.2872
96154W        W39248  20.260  31.444  17.962 -0.0281  0.0278  0.0893
96155W        W39249  23.007  31.087  19.397 -0.0242  0.1339 -0.1870
96156W        W39250  19.685  31.232  17.963 -0.1477 -0.3285  0.3973
96157W        W39251  18.522  31.883  17.978  0.1855 -0.2381 -0.1785
96158W        W39252  20.707  32.465  19.028  0.1498  0.2384  0.4411
96159W        W39253  21.986  30.043  17.826  0.0236  0.1265 -0.0058
96160W        W39254  19.335  32.948  17.385  0.0878 -0.0525  0.2204
96161W        W39255  19.042  30.263  19.412  0.0130 -0.2875  0.2840
96162W        W39256  19.377  31.097  17.591  0.0179  0.3149  0.1313
96163W        W39257  19.595  30.528  17.217 -0.4222  0.0382  0.0017
96164W        W39258  20.017  29.310  17.004 -0.3039 -0.1134  0.5350
96165W        W39259  19.582  32.664  16.197 -0.2219  0.4038  0.1348
96166W        W39260  18.050  31.843  19.377 -0.0616  0.0442  0.1713
96167W        W39261  18.975  31.073  18.387  0.1087 -0.0480  0.1193
96168W        W39262  19.273  34.020  15.810 -0.1042 -0.2633  0.1301
96169W        W39263  20.422  32.053  16.563 -0.1208 -0.1031 -0.1725
96170W        W39264  19.956  30.296  16.980 -0.2598  0.1505  0.1735
96171W        W39265  20.289  32.547  17.927  0.1602  0.0927 -0.3058
96172W        W39266  18.733  28.250  16.119 -0.3872  0.0315 -0.1456
96173W        W39267  18.980  32.746  16.475  0.3276  0.0354  0.0074
96174W        W39268  18.189  30.428  16.869  0.1087 -0.0786 -0.0120
96175W        W39269  21.208  32.465  15.847 -0.0164 -0.0991  0.0154
96176W        W39270  18.914  32.931  16.979  0.0581  0.3583  0.0844
96177W        W39271  21.709  32.802  19.020  0.2130  0.2376 -0.1309
96178W        W39272  20.221  29.822  17.217  0.1085  0.1612 -0.3359
96179W        W39273  21.082  29.916  17.812 -0.0605  0.1899  0.2312
96180W        W39274  21.350  28.776  17.167 -0.2787  0.0066  0.1544
96181W        W39275  19.279  30.933  18.067  0.2066 -0.2353 -0.2386
96182W        W39276  18.628  30.828  17.927  0.0348 -0.0398 -0.2205
96183W        W39277  19.294  29.673  17.529 -0.0046  0.2092 -0.2152
96184W        W39278  18.408  31.294  17.679 -0.1424 -0.3863 -0.2662
96185W        W39279  22.252  28.380  18.961  0.0021  0.1058 -0.1884
96186W        W39280  19.378  32.066  17.624  0.0173  0.0288  0.0808
96187W        W39281  20.780  32.447  16.428 -0.1058  0.3021  0.1313
96188W        W39282  16.933  30.487  16.354 -0.0343  0.1786 -0.4535
96189W        W39283  19.109  31.267  17.190 -0.1671 -0.2489 -0.0392
96190W        W39284  22.333  28.881  18.822 -0.0060  0.1296 -0.0113
96191W        W39285  21.204  31.139  16.476  0.2314  0.2041 -0.0841
96192W        W39286  19.395  28.870  17.132 -0.3423 -0.1801  0.3268
96193W        W39287  18.134  32.009  18.227 -0.0587 -0.0492  0.1375
96194W        W39288  19.043  32.456  17.785 -0.0418 -0.0251  0.1938
96195W        W39289  18.948  30.459  17.818 -0.1388 -0.3335 -0.2249
96196W        W39290  18.424  29.401  17.627  0.3869 -0.0307  0.5254
96197W        W39291  23.685  29.819  18.525 -0.5531  0.2413  0.1738
96198W        W39292  19.730  30.128  18.259 -0.1674 -0.0255 -0.1731
96199W        W39293  21.517  30.068  18.066 -0.0538 -0.2953  0.1404
96200W        W39294  18.197  30.762  17.309 -0.2936  0.1361 -0.3240
96201W        W39295  21.555  29.279  17.255  0.1349  0.1013  0.1341
96202W        W39296  21.223  30.768  19.129 -0.1681  0.0207 -0.1462
96203W        W39297  19.002  29.936  17.967 -0.1315 -0.1479  0.1949
96204W        W39298  20.131  30.594  16.595 -0.2642 -0.3175  0.0726
96205W        W39299  21.015  32.248  19.556  0.0987 -0.1389 -0.1262
96206W        W39300  20.232  30.655  15.987 -0.1328 -0.0444  0.0570
96207W        W39301  21.799  31.782  19.151  0.0483  0.1231 -0.0785
96208W        W39302  17.071  28.439  17.658 -0.0752  0.0542  0.0179
96209W        W39303  19.184  29.810  16.938 -0.2170  0.1613 -0.1321
96210W        W39304  19.192  30.939  16.841  0.0196  0.5594  0.1497
96211W        W39305  18.732  29.727  18.820 -0.2002 -0.2521  0.0346
96212W        W39306  20.215  30.563  18.305 -0.0538 -0.2431 -0.1296
96213W        W39307  18.247  29.457  16.724  0.0206  0.0965 -0.2877
96214W        W39308  20.438  32.865  16.571 -0.2529 -0.0316  0.1937
96215W        W39309  19.901  30.542  19.634 -0.0851 -0.1703  0.1548
96216W        W39310  19.099  32.709  15.976 -0.0724  0.3728 -0.2940
96217W        W39311  21.253  32.065  17.493  0.1122 -0.0417 -0.0282
96218W        W39312  21.490  32.080  18.884  0.2309 -0.1074 -0.0069
96219W        W39313  18.402  28.698  18.031  0.1663 -0.2310  0.0194
96220W        W39314  21.084  33.104  17.714  0.2777 -0.0362  0.2906
96221W        W39315  22.974  31.884  17.603 -0.2816 -0.3643 -0.1310
96222W        W39316  20.521  29.422  17.515 -0.1296 -0.2604  0.0802
96223W        W39317  18.388  29.734  18.007  0.0732  0.0543 -0.0345
96224W        W39318  18.068  33.167  17.536 -0.0450  0.0441  0.2745
96225W        W39319  21.181  30.343  19.416  0.1567  0.0794  0.2435
96226W        W39320  21.358  28.795  20.838 -0.2434  0.1136 -0.0682
96227W        W39321  20.260  33.871  15.956  0.2416  0.0027 -0.0058
96228W        W39322  22.214  29.282  19.252 -0.0860  0.2464  0.0260
96229W        W39323  19.739  32.200  18.575 -0.0692 -0.1546 -0.0041
96230W        W39324  18.993  32.739  20.336 -0.2180 -0.4338 -0.0216
96231W        W39325  19.568  30.227  16.578  0.1911 -0.0200  0.0961
96232W        W39326  20.499  31.401  18.624 -0.0438  0.1591 -0.0670
96233W        W39327  19.626  31.706  16.394 -0.1246  0.0922 -0.1732
96234W        W39328  19.233  31.408  16.661 -0.1881 -0.0701 -0.4784
96235W        W39329  20.334  31.975  17.830  0.3117 -0.0174  0.1257
96236W        W39330  20.014  30.150  17.506  0.4022 -0.2121 -0.0193
96237W        W39331  20.929  31.646  17.323 -0.0932  0.1305 -0.0930
96238W        W39332  18.368  28.779  17.317  0.1927  0.0390  0.2268
96239W        W39333  22.545  29.600  17.495 -0.3735 -0.1963 -0.3247
96240W        W39334  20.755  28.806  16.958 -0.0616  0.0533 -0.1888
96241W        W39335  20.131  31.296  18.884  0.2390 -0.1092 -0.4888
96242W        W39336  18.236  30.789  16.534 -0.0596  0.2182  0.2326
96243W        W39337  19.396  31.068  16.374  0.4258  0.0795 -0.2565
96244W        W39338  17.673  30.659  18.579  0.0590 -0.0295 -0.1270
96245W        W39339  21.034  29.174  20.266  0.2018 -0.3209 -0.0308
96246W        W39340  19.259  30.319  18.793 -0.2025  0.1764  0.0908
96247W        W39341  19.210  30.478  16.851  0.0566  0.0952 -0.1004
96248W        W39342  18.363  29.720  17.226  0.3100 -0.2217  0.1449
96249W        W39343  22.030  31.062  16.732  0.1520  0.1152 -0.0031
96250W        W39344  19.554  29.189  17.493 -0.3167  0.1764 -0.3378
96251W        W39345  17.030  28.764  19.508  0.0803 -0.1853  0.2453
96252W        W39346  21.434  30.425  17.078  0.1063  0.1152  0.2080
96253W        W39347  19.604  32.118  17.163  0.3738 -0.1902  0.0550
96254W        W39348  19.122  28.524  17.338  0.0556 -0.3873  0.0223
96255W        W39349  21.530  32.510  19.738 -0.1189  0.1597  0.1063
96256W        W39350  17.642  32.418  16.559  0.0981  0.0616  0.0940
96257W        W39351  20.120  31.377  21.537  0.0404 -0.1132 -0.0506
96258W        W39352  20.655  28.560  20.649  0.3567 -0.0984 -0.1460
96259W        W39353  19.074  29.188  17.307  0.1860 -0.1542  0.1318
96260W        W39354  20.582  31.143  17.721 -0.0872  0.3389 -0.0725
96261W        W39355  19.825  32.176  17.681 -0.0123  0.6255 -0.3432
96262W        W39356  20.022  32.965  16.318 -0.1251  0.0629  0.1314
96263W        W39357  19.830  29.606  17.429  0.5051  0.0028 -0.0013
96264W        W39358  20.281  31.558  19.861 -0.0550  0.0856 -0.1162
96265W        W39359  18.821  28.424  20.005 -0.2136 -0.0532  0.0271
96266W        W39360  20.852  30.743  17.498 -0.0660  0.0319  0.0345
96267W        W39361  19.383  31.069  18.908  0.0270 -0.0235  0.3125
96268W        W39362  21.012  30.811  17.062  0.1614 -0.0046  0.0610
96269W        W39363  21.644  29.746  18.561 -0.1481 -0.1559  0.0375
96270W        W39364  20.953  30.319  16.932 -0.2257 -0.2437  0.0789
96271W        W39365  18.801  30.464  21.874 -0.2158  0.0140 -0.2197
96272W        W39366  19.077  32.417  20.670 -0.0612  0.1390 -0.1841
96273W        W39367  23.529  30.654  18.726  0.0120 -0.0467 -0.1203
96274W        W39368  18.126  28.367  17.685 -0.0654  0.1243  0.0296
96275W        W39369  20.288  29.732  16.709 -0.0075  0.1007  0.1951
96276W        W39370  20.141  30.918  17.881  0.0641 -0.3076  0.2378
96277W        W39371  17.986  29.984  18.284  0.0895 -0.0136  0.2173
96278W        W39372  20.079  30.981  17.030  0.0056  0.2134  0.2239
96279W        W39373  20.954  31.113  20.063  0.2758 -0.1975 -0.2121
96280W        W39374  20.086  31.194  17.481 -0.0328 -0.1939  0.1330
96281W        W39375  21.522  32.081  19.434  0.0480  0.0176 -0.0891
96282W        W39376  20.451  31.110  16.134  0.1102 -0.1296  0.2363
96283W        W39377  21.900  30.548  16.913  0.0981  0.3013 -0.1166
96284W        W39378  21.311  32.461  19.210 -0.0174 -0.2085  0.0045
96285W        W39379  22.084  31.413  19.370 -0.1835  0.0447  0.0891
96286W        W39380  19.707  33.063  17.966 -0.1334 -0.1788  0.1420
96287W        W39381  20.647  30.377  18.518  0.0136  0.3845 -0.0834
96288W        W39382  18.235  28.757  18.578  0.2797 -0.0011  0.0756
96289W        W39383  17.702  30.377  18.093 -0.0823 -0.1970  0.2826
96290W        W39384  19.965  31.494  17.057  0.2067  0.2419 -0.1964
96291W        W39385  21.153  30.238  18.419  0.0505  0.2707  0.0696
96292W        W39386  18.728  29.799  19.366  0.0339  0.1421  0.0324
96293W        W39387  20.973  28.504  18.346 -0.1437  0.0710 -0.1946
96294W        W39388  19.470  32.533  17.639 -0.1098  0.0276  0.1785
96295W        W39389  19.510  31.286  18.434  0.2009 -0.2083  0.1874
96296W        W39390  19.002  31.609  23.671 -0.2744  0.0254  0.2869
96297W        W39391  19.980  29.826  20.150 -0.2382 -0.0558  0.2510
96298W        W39392  21.485  29.500  20.085 -0.0616 -0.0347 -0.0785
96299W        W39393  22.528  31.693  19.587  0.0814 -0.0725 -0.1766
96300W        W39394  18.772  29.028  21.482  0.1652  0.0801  0.0607
96301W        W39395  20.377  33.061  19.701 -0.3674 -0.2845  0.0837
96302W        W39396  18.746  28.708  24.588  0.1608 -0.0121  0.2105
96303W        W39397  19.545  31.636  22.305 -0.0158 -0.1181 -0.1524
96304W        W39398  22.389  31.305  22.141  0.2073 -0.4790 -0.1227
96305W        W39399  19.570  31.547  21.000  0.0667 -0.1518  0.1651
96306W        W39400  19.907  30.035  22.374  0.2581 -0.1916 -0.3231
96307W        W39401  20.314  31.643  23.274  0.0016  0.2332 -0.1416
96308W        W39402  19.317  30.554  21.002 -0.3283 -0.0507 -0.0798
96309W        W39403  17.294  29.940  20.877 -0.0975 -0.4048 -0.1495
96310W        W39404  21.407  31.444  22.247  0.0078  0.1751 -0.0902
96311W        W39405  19.880  30.412  18.667 -0.0846 -0.3124 -0.1563
96312W        W39406  19.887  29.260  23.012  0.2806 -0.0249 -0.2870
96313W        W39407  17.864  31.106  21.307 -0.0339  0.3006  0.2654
96314W        W39408  19.588  32.042  20.901 -0.3466  0.1210 -0.2880
96315W        W39409  20.336  29.725  22.519 -0.2107 -0.1267  0.0714
96316W        W39410  21.671  29.259  23.260 -0.0129 -0.2321 -0.0775
96317W        W39411  20.882  31.768  21.238  0.0172  0.3212  0.0108
96318W        W39412  19.685  29.433  18.748  0.2987 -0.0202 -0.0438
96319W        W39413  19.151  30.663  22.199 -0.3272  0.2986  0.2862
96320W        W39414  19.553  29.678  23.483 -0.3221  0.0367 -0.1520
96321W        W39415  20.766  30.980  21.965 -0.2477  0.0989 -0.1792
96322W        W39416  20.488  31.369  21.176  0.3395  0.1709 -0.0592
96323W        W39417  19.640  30.431  22.294 -0.1355 -0.0302  0.1317
96324W        W39418  19.665  31.497  21.508 -0.0025  0.3132 -0.0320
96325W        W39419  21.456  31.408  21.407 -0.3572 -0.0703  0.0308
96326W        W39420  17.317  31.149  21.269  0.3623 -0.0261  0.0032
96327W        W39421  18.702  32.305  19.761  0.3200  0.0090 -0.0542
96328W        W39422  19.809  31.552  19.660 -0.2318 -0.0768 -0.0930
96329W        W39423  23.255  31.167  20.064 -0.0189 -0.0685 -0.1080
96330W        W39424  23.166  31.700  22.351  0.1108 -0.1394 -0.1647
96331W        W39425  20.127  30.684  24.386 -0.2141  0.0918  0.1763
96332W        W39426  19.243  31.510  20.121  0.1570 -0.1771 -0.5039
96333W        W39427  20.504  31.961  22.887  0.3640  0.0350  0.0860
96334W        W39428  20.441  31.843  23.723 -0.2872 -0.2492 -0.2531
96335W        W39429  20.200  31.637  22.016 -0.3196  0.2564  0.2799
96336W        W39430  20.476  30.897  21.356  0.2693  0.1546  0.2217
96337W        W39431  19.931  32.406  20.251  0.0618 -0.2029  0.1497
96338W        W39432  20.167  31.438  20.734 -0.0457 -0.0797 -0.0841
96339W        W39433  20.546  32.661  23.297  0.0592 -0.1131 -0.1505
96340W        W39434  17.839  29.983  23.218  0.1215 -0.2057  0.2459
96341W        W39435  21.436  30.256  21.971  0.0868  0.1437 -0.1495
96342W        W39436  19.244  31.611  20.631 -0.2984 -0.2866 -0.1756
96343W        W39437  20.257  30.283  20.012 -0.0905 -0.1165  0.1874
96344W        W39438  19.502  30.569  20.217  0.2361  0.3061 -0.0345
96345W        W39439  22.064  28.413  21.522 -0.1190 -0.0091 -0.0538
96346W        W39440  19.797  30.028  21.896 -0.2573 -0.0600  0.0233
96347W        W39441  18.966  33.179  21.462  0.1725  0.1752  0.0098
96348W        W39442  19.690  30.480  21.621  0.1161  0.1155  0.3827
96349W        W39443  21.612  31.659  21.829 -0.3050 -0.1602 -0.1594
96350W        W39444  18.332  31.737  22.946 -0.2009  0.3402  0.1116
96351W        W39445  20.112  30.379  22.003 -0.1415  0.0942 -0.0115
96352W        W39446  19.010  32.496  23.165  0.1066  0.0320 -0.2868
96353W        W39447  19.405  29.821  22.227  0.0441  0.1388  0.1826
96354W        W39448  21.066  31.967  19.973  0.2633 -0.3745  0.0672
96355W        W39449  20.701  31.480  20.759 -0.0100 -0.1263  0.1943
96356W        W39450  20.483  31.100  19.147 -0.2099 -0.1177  0.1601
96357W        W39451  18.204  30.808  19.576 -0.0513  0.0562 -0.2714
96358W        W39452  19.949  30.808  22.142  0.2007  0.0490  0.1562
96359W        W39453  18.250  29.656  23.114  0.0717 -0.1691 -0.2452
96360W        W39454  19.536  27.859  19.649 -0.2952  0.4747 -0.1526
96361W        W39455  23.047  32.912  22.644 -0.0652  0.0796  0.1384
96362W        W39456  19.195  30.084  24.962  0.1137 -0.2148 -0.0798
96363W        W39457  21.416  30.444  21.104  0.0933  0.3656 -0.2019
96364W        W39458  19.179  31.236  21.525 -0.1075  0.0787 -0.2215
96365W        W39459  21.945  31.772  20.695 -0.2498  0.0516  0.0700
96366W        W39460  21.904  30.398  21.893  0.1073 -0.2536  0.2088
96367W        W39461  22.624  29.054  20.542  0.1097  0.3044  0.1381
96368W        W39462  20.521  30.124  22.138 -0.2456 -0.0462  0.0787
96369W        W39463  19.299  31.082  21.027  0.1310  0.1586 -0.1817
96370W        W39464  19.774  31.236  21.890 -0.1168 -0.0719 -0.0328
96371W        W39465  22.174  32.486  23.174  0.0237  0.0433  0.0067
96372W        W39466  23.045  29.644  19.606 -0.2287  0.1659  0.0171
96373W        W39467  20.068  33.814  22.015  0.2627  0.0295  0.1763
96374W        W39468  20.256  30.361  22.603 -0.0933  0.1048  0.0345
96375W        W39469  20.423  30.057  22.968  0.0658 -0.0515  0.0435
96376W        W39470  19.698  32.003  19.377 -0.4431  0.0261  0.0179
96377W        W39471  18.397  31.383  21.461  0.5812 -0.1299  0.1592
96378W        W39472  19.800  31.059  19.196  0.0316  0.1061  0.3734
96379W        W39473  18.945  29.788  21.915  0.1580  0.2841 -0.3321
96380W        W39474  17.661  31.483  22.277  0.0446 -0.1869 -0.5121
96381W        W39475  21.078  29.063  21.288  0.1087 -0.2277  0.2590
96382W        W39476  19.463  28.933  24.622  0.3731 -0.1381 -0.1625
96383W        W39477  21.205  29.158  22.493 -0.3158  0.1931 -0.1164
96384W        W39478  19.318  33.056  21.964  0.1670  0.0185 -0.3656
96385W        W39479  22.830  32.274  19.936 -0.2406 -0.0717 -0.2307
96386W        W39480  22.606  29.872  20.939  0.1108 -0.1181  0.3542
96387W        W39481  19.934  31.869  20.087  0.0022 -0.1441 -0.3696
96388W        W39482  18.668  29.549  21.013  0.2460  0.0868 -0.2311
96389W        W39483  18.225  30.092  20.241 -0.1051 -0.3206 -0.0844
96390W        W39484  17.885  28.624  24.068 -0.0039  0.0513  0.0918
96391W        W39485  16.985  31.570  22.603 -0.1984 -0.0540 -0.3258
96392W        W39486  22.472  30.282  20.576  0.1614 -0.3034 -0.0026
96393W        W39487  18.500  30.053  21.728 -0.0025  0.1667 -0.0970
96394W        W39488  21.667  28.350  21.220 -0.2768 -0.0322 -0.1031
96395W        W39489  17.884  29.773  20.349  0.0397  0.1478  0.3845
96396W        W39490  19.261  31.790  21.303  0.0648 -0.0021 -0.1925
96397W        W39491  21.088  28.668  23.403  0.0572  0.0809 -0.3212
96398W        W39492  21.142  33.190  19.382  0.1748 -0.1978 -0.3096
96399W        W39493  21.428  34.490  22.143 -0.3462 -0.0484 -0.1559
96400W        W39494  20.646  32.954  20.367  0.3857  0.1010  0.0722
96401W        W39495  18.988  29.805  22.660 -0.0676 -0.1869  0.0124
96402W        W39496  20.098  30.598  20.561 -0.2028  0.0647 -0.2629
96403W        W39497  18.581  31.162  22.779  0.3492  0.4723  0.2229
96404W        W39498  18.321  31.250  21.920 -0.2735  0.0407  0.0057
96405W        W39499  19.128  30.121  20.962  0.0179  0.3598 -0.1731
96406W        W39500  20.121  34.247  19.950 -0.0420 -0.1729 -0.0804
96407W        W39501  20.355  30.979  20.790  0.0012 -0.1500 -0.0875
96408W        W39502  19.689  29.560  22.564  0.1059  0.1460 -0.1403
96409W        W39503  21.139  29.532  21.128 -0.1256  0.3595  0.1268
96410W        W39504  21.986  30.796  20.620 -0.0093 -0.0246 -0.1365
96411W        W39505  21.046  31.918  20.741  0.3255 -0.1513 -0.0847
96412W        W39506  19.760  28.836  18.721 -0.3659 -0.0249 -0.0058
96413W        W39507  19.771  34.355  20.908  0.0838 -0.1113 -0.1035
96414W        W39508  17.873  31.176  20.739  0.1620 -0.1367 -0.1221
96415W        W39509  16.625  30.337  18.840 -0.1938 -0.1339  0.1794
96416W        W39510  20.560  32.543  21.422 -0.0176  0.0766 -0.0694
96417W        W39511  20.866  29.159  22.151 -0.0201  0.1777 -0.2223
96418W        W39512  18.084  30.508  23.300 -0.3670  0.1189  0.0072
96419W        W39513  20.588  30.519  23.583  0.1105 -0.2504  0.2262
96420W        W39514  19.300  31.041  19.414  0.1801  0.1640  0.0033
96421W        W39515  19.242  31.459  22.721  0.0807  0.0425  0.0191
96422W        W39516  19.776  28.253  20.615  0.1577  0.0447 -0.2427
96423W        W39517  21.453  31.805  20.469 -0.1819 -0.0451 -0.4575
96424W        W39518  21.117  30.555  23.632  0.1843 -0.0552 -0.2214
96425W        W39519  22.185  30.882  20.162  0.0132 -0.0316  0.0879
96426W        W39520  21.447  29.404  20.741  0.3839  0.2578  0.0751
96427W        W39521  20.008  31.069  20.405 -0.1062 -0.0344 -0.2080
96428W        W39522  19.071  30.408  24.586 -0.1546  0.0985 -0.0650
96429W        W39523  19.055  31.645  22.155 -0.1601  0.0920  0.0372
96430W        W39524  17.576  32.029  21.485  0.1277  0.1270  0.2497
96431W        W39525  20.594  29.396  20.395 -0.2139 -0.0781 -0.2785
96432W        W39526  21.240  31.372  20.537 -0.1625  0.3000 -0.2025
96433W        W39527  18.725  30.602  23.044 -0.3006 -0.0819 -0.1460
96434W        W39528  20.711  32.319  23.666  0.1124 -0.2473  0.1412
96435W        W39529  20.000  31.827  21.149  0.2620  0.2698 -0.2757
96436W        W39530  20.341  29.345  23.016  0.2948  0.3449  0.0473
96437W        W39531  20.331  31.168  21.940  0.1100  0.1508  0.0052
96438W        W39532  21.393  28.738  21.538  0.0467 -0.1764 -0.1707
96439W        W39533  17.924  32.805  20.693  0.1638  0.3185 -0.0996
96440W        W39534  21.385  30.415  20.425  0.1719  0.2453  0.1181
96441W        W39535  19.199  30.295  22.597 -0.0710 -0.2205  0.1615
96442W        W39536  20.064  29.235  22.468  0.0036 -0.0417 -0.2489
96443W        W39537  20.875  30.207  23.202 -0.2429 -0.1458  0.1307
96444W        W39538  21.611  30.970  20.407 -0.0215  0.1295  0.0506
96445W        W39539  20.867  32.220  22.609  0.2169  0.0828 -0.1203
96446W        W39540  18.376  30.952  21.184  0.0289  0.1039  0.0812
96447W        W39541  19.425  29.443  23.030 -0.0619  0.1254 -0.0256
96448W        W39542  19.932  30.991  23.119  0.1697 -0.1905 -0.1493
96449W        W39543  19.274  32.048  22.278 -0.1313  0.0519 -0.3551
96450W        W39544  21.791  33.577  22.065 -0.0670  0.0994 -0.0126
96451W        W39545  21.588  31.127  20.940  0.1352 -0.0324 -0.0643
96452W        W39546  20.022  29.751  22.867 -0.2211 -0.0166 -0.0814
96453W        W39547  19.282  28.219  18.650  0.0867 -0.1082  0.1447
96454W        W39548  20.167  32.772  20.558  0.0742 -0.1783 -0.1486
96455W        W39549  20.002  31.735  18.590 -0.1246 -0.2781  0.1462
96456W        W39550  19.032  28.620  22.425  0.0477  0.2316 -0.0824
96457W        W39551  19.658  32.552  20.709  0.2340  0.0298 -0.2182
96458W        W39552  21.377  31.627  19.050 -0.1466  0.1512  0.4711
96459W        W39553  21.027  31.817  23.027  0.0120  0.4294 -0.0099
96460W        W39554  18.267  32.096  22.534  0.1273 -0.1493  0.3844
96461W        W39555  20.786  29.714  22.063  0.0090  0.0836  0.0010
96462W        W39556  17.643  32.273  21.048  0.0346 -0.1250 -0.0827
96463W        W39557  18.924  30.847  21.268 -0.1577  0.0581  0.1087
96464W        W39558  19.345  30.990  20.052 -0.0226  0.1587 -0.2344
96465W        W39559  21.325  29.302  22.031 -0.1057  0.2816  0.0018
96466W        W39560  21.712  31.432  20.005 -0.0226 -0.0988  0.1110
96467W        W39561  19.551  29.186  22.079 -0.1131 -0.1545  0.0755
96468W        W39562  18.391  29.822  23.611 -0.0785  0.1935 -0.1948
96469W        W39563  18.329  32.772  21.040  0.0663  0.0164 -0.1143
96470W        W39564  21.152  31.006  22.290 -0.2026 -0.1343  0.3405
96471W        W39565  21.738  30.115  21.290 -0.2947 -0.0371 -0.1604
96472W        W39566  20.705  32.642  22.411 -0.2154 -0.0716  0.1122
96473W        W39567  18.818  30.125  23.568 -0.1896 -0.0915 -0.1250
96474W        W39568  18.734  30.201  19.026 -0.1809  0.3739 -0.2191
96475W        W39569  21.515  32.351  22.403  0.0199  0.2278  0.0359
96476W        W39570  20.224  30.111  20.560  0.1409  0.0006 -0.2434
96477W        W39571  18.149  32.218  21.294 -0.1730 -0.0757 -0.3274
96478W        W39572  21.365  31.949  22.150 -0.0223 -0.1259  0.0394
96479W        W39573  17.623  31.818  20.873  0.1066 -0.3842 -0.3180
96480W        W39574  19.315  32.431  21.130 -0.2617  0.1763 -0.0398
96481W        W39575  20.483  29.381  20.892 -0.0084  0.0416  0.0453
96482W        W39576  20.870  32.096  22.108 -0.1160 -0.1390  0.2797
96483W        W39577  18.273  31.429  21.005 -0.1752 -0.0487  0.2082
96484W        W39578  19.014  29.332  21.209 -0.3654 -0.1108  0.0749
96485W        W39579  19.317  30.219  21.831  0.0613  0.0296  0.2173
96486W        W39580  19.603  32.174  21.436  0.1119 -0.0252  0.0231
96487W        W39581  21.003  30.265  20.783 -0.0577 -0.1984 -0.0645
96488W        W39582  19.987  31.280  22.382 -0.0429 -0.0937 -0.0556
96489W        W39583  21.316  28.692  22.022 -0.3826 -0.1798  0.1879
96490W        W39584  22.596  31.986  21.050 -0.0846 -0.4067  0.3807
96491W        W39585  21.753  31.995  21.320 -0.0027  0.0405 -0.3464
96492W        W39586  19.717  31.031  19.726 -0.0185 -0.2617  0.0414
96493W        W39587  17.374  30.931  23.768 -0.1076 -0.0225 -0.1854
96494W        W39588  18.824  31.598  21.618 -0.1028 -0.2313  0.1738
96495W        W39589  21.098  30.070  21.297 -0.2315 -0.0439  0.0557
96496W        W39590  18.387  32.592  22.662  0.0669 -0.1118  0.0455
96497W        W39591  19.431  31.944  19.875 -0.1971 -0.1644  0.0610
96498W        W39592  17.590  31.031  21.993  0.2439  0.1043  0.0235
96499W        W39593  21.679  28.277  21.982  0.1167  0.0848  0.2353
96500W        W39594  20.460  31.248  20.287  0.0274  0.1679  0.0899
96501W        W39595  20.062  29.624  20.715  0.3452 -0.0740 -0.1437
96502W        W39596  21.690  29.913  23.132  0.0295 -0.0190  0.0339
96503W        W39597  21.842  29.326  20.428  0.1769 -0.2368 -0.2031
96504W        W39598  21.532  29.808  24.150 -0.1061 -0.1669  0.0509
96505W        W39599  18.759  28.317  24.225 -0.2994  0.0038 -0.0960
96506W        W39600  22.478  31.621  21.327  0.2232 -0.0881 -0.1177
96507W        W39601  18.179  29.084  22.380 -0.2004 -0.0985  0.2373
96508W        W39602  21.939  33.164  21.929  0.0716 -0.1597  0.4765
96509W        W39603  20.523  31.833  22.379  0.0993  0.0708 -0.2999
96510W        W39604  21.821  30.751  21.168 -0.2905 -0.0511  0.0269
96511W        W39605  19.609  29.886  20.754 -0.1912  0.3372 -0.1638
96512W        W39606  18.904  32.422  22.108 -0.0160 -0.1373 -0.0693
96513W        W39607  21.355  31.030  19.827  0.1941 -0.1601 -0.2001
96514W        W39608  19.744  31.365  20.141 -0.0729 -0.3801  0.1160
96515W        W39609  21.488  29.775  21.611 -0.0007  0.0636 -0.1953
96516W        W39610  17.731  30.227  24.277  0.0950 -0.0244 -0.1506
96517W        W39611  21.907  31.503  21.171  0.1613 -0.2627 -0.2344
96518W        W39612  19.008  32.019  20.975 -0.1536 -0.1168  0.0317
96519W        W39613  17.763  30.572  22.160  0.2620 -0.1772  0.0144
96520W        W39614  20.198  29.207  23.503  0.2713  0.1711  0.1253
96521W        W39615  20.025  32.093  20.673  0.5339  0.0507 -0.0285
96522W        W39616  19.189  29.616  20.844  0.1977  0.3120 -0.2622
96523W        W39617  19.388  30.115  23.593 -0.1320  0.1474  0.0617
96524W        W39618  20.203  30.837  22.742  0.1870 -0.2181  0.1019
96525W        W39619  20.167  30.759  23.619 -0.0508  0.0187  0.0654
96526W        W39620  20.140  29.679  23.379  0.1076  0.0170 -0.0091
96527W        W39621  20.362  33.193  20.757 -0.0423 -0.2159 -0.0353
96528W        W39622  22.131  29.751  19.420  0.1348 -0.0412 -0.1276
96529W        W39623  20.371  28.855  22.414  0.0211 -0.1303  0.0525
96530W        W39624  21.703  30.661  20.035  0.1231 -0.1061  0.2326
96531W        W39625  20.770  30.228  19.853 -0.2871  0.3369  0.0265
96532W        W39626  19.510  29.979  22.717  0.3663  0.2341  0.0179
96533W        W39627  21.252  32.372  21.840  0.2757 -0.2974 -0.0193
96534W        W39628  17.679  29.256  20.016  0.1941  0.1311 -0.2057
96535W        W39629  20.708  28.400  23.227 -0.3155 -0.0859 -0.2632
96536W        W39630  20.843  33.022  19.855 -0.1580 -0.2545  0.0322
96537W        W39631  19.303  31.194  22.042  0.0806 -0.2515 -0.1039
96538W        W39632  19.093  30.423  20.499 -0.0994  0.0095  0.1585
96539W        W39633  17.957  30.137  21.446  0.0222 -0.0768  0.1211
96540W        W39634  18.832  31.865  22.567 -0.2239  0.0121  0.4116
96541W        W39635  18.520  31.037  19.944  0.1351  0.1157  0.2211
96542W        W39636  20.455  32.109  19.242 -0.2087  0.1845  0.0833
96543W        W39637  18.505  30.255  22.708 -0.4287 -0.0088 -0.0613
96544W        W39638  21.849  30.468  22.956 -0.2861 -0.0599  0.2352
96545W        W39639  19.715  28.840  20.599 -0.2834 -0.0717  0.0870
96546W        W39640  21.454  30.101  22.514 -0.0965 -0.3061 -0.0046
96547W        W39641  18.851  31.946  18.923 -0.2302 -0.2909  0.2415
96548W        W39642  20.495  28.836  21.023 -0.0323 -0.2515  0.2927
96549W        W39643  19.799  32.751  23.254  0.0214 -0.0597  0.0869
96550W        W39644  18.621  31.989  24.193  0.1842  0.2655  0.1446
96551W        W39645  17.942  31.681  21.267 -0.2946  0.0802 -0.1404
96552W        W39646  20.010  29.153  21.015 -0.0357  0.1659  0.0122
96553W        W39647  21.774  31.024  21.524 -0.2549 -0.3518 -0.2109
96554W        W39648  20.869  31.249  21.510  0.2115 -0.0273 -0.1935
96555W        W39649  21.814  31.274  22.049 -0.0216  0.2952  0.0200
96556W        W39650  21.174  33.034  21.811  0.2966  0.0386 -0.0045
96557W        W39651  18.697  30.632  22.428 -0.0848 -0.0694 -0.2754
96558W        W39652  22.165  31.927  21.597  0.1063 -0.1082  0.1838
96559W        W39653  20.072  30.812  21.658  0.1555  0.1609 -0.0620
96560W        W39654  17.290  31.087  22.716  0.2663 -0.0838 -0.0935
96561W        W39655  20.090  28.765  22.888 -0.0130  0.0873  0.2211
96562W        W39656  21.402  30.327  22.984 -0.2624  0.1124 -0.0394
96563W        W39657  20.675  32.755  20.972  0.0954  0.1631  0.0348
96564W        W39658  19.964  30.221  20.996 -0.0135 -0.2794 -0.1491
96565W        W39659  20.382  32.124  20.106 -0.0438  0.0355 -0.1064
96566W        W39660  17.664  32.997  23.560 -0.0849  0.2151 -0.1412
96567W        W39661  19.222  32.116  22.925 -0.2053 -0.3684 -0.0243
96568W        W39662  19.098  33.988  21.542  0.1725 -0.0899  0.2714
96569W        W39663  22.486  30.474  19.613  0.0940  0.0161 -0.3358
96570W        W39664  20.257  29.444  19.939 -0.2100 -0.0105 -0.0576
96571W        W39665  20.838  32.186  21.597  0.0947 -0.1149  0.0679
96572W        W39666  19.226  30.717  21.673  0.0399 -0.4068 -0.1644
96573W        W39667  19.119  32.304  20.065 -0.2296  0.0202  0.0570
96574W        W39668  18.034  32.187  21.999  0.1394  0.3260  0.1564
96575W        W39669  21.267  32.771  20.119  0.4681 -0.0189  0.0922
96576W        W39670  19.647  33.903  20.638 -0.4766  0.3286 -0.0510
96577W        W39671  21.929  32.378  22.708 -0.2084  0.1349 -0.1009
96578W        W39672  22.170  27.692  19.470 -0.2696 -0.3463 -0.0325
96579W        W39673  20.972  30.179  21.819  0.1466 -0.2853 -0.2586
96580W        W39674  20.648  30.683  20.059 -0.0432 -0.1554  0.0578
96581W        W39675  20.604  31.682  21.636  0.2300  0.1000  0.0937
96582W        W39676  20.033  30.645  21.199 -0.1294  0.0330  0.0383
96583W        W39677  19.793  29.658  19.713  0.0043 -0.0106  0.0407
96584W        W39678  18.395  30.147  23.194 -0.1966 -0.1185 -0.2236
96585W        W39679  21.373  29.581  22.891 -0.0301 -0.0008  0.0260
96586W        W39680  18.183  32.992  23.670 -0.3357 -0.2422  0.1178
96587W        W39681  20.138  33.659  20.577  0.3351 -0.0206 -0.0522
96588W        W39682  16.870  30.118  20.666 -0.0419  0.0742 -0.0614
96589W        W39683  19.392  30.819  22.907  0.1171 -0.0099 -0.2170
96590W        W39684  21.451  28.649  22.484  0.1976  0.1237  0.0407
96591W        W39685  18.481  31.903  18.559 -0.1877  0.0265 -0.0854
96592W        W39686  21.270  31.206  21.818  0.4340  0.1035 -0.0938
96593W        W39687  18.631  32.366  20.304  0.5033  0.0970 -0.0345
96594W        W39688  18.478  32.310  21.715 -0.0976 -0.2754 -0.0454
96595W        W39689  19.502  30.996  22.488 -0.0269  0.0843  0.2634
96596W        W39690  18.645  31.632  20.728  0.0207 -0.0036 -0.1977
96597W        W39691  23.337  30.152  21.225 -0.1149 -0.2602  0.1274
96598W        W39692  20.237  30.142  23.529  0.0935 -0.1603  0.1319
96599W        W39693  20.349  29.843  21.772  0.1466  0.1573 -0.0807
96600W        W39694  18.792  31.195  22.210 -0.1651 -0.1684 -0.0456
96601W        W39695  18.839  31.305  21.040 -0.1274 -0.2776 -0.0494
96602W        W39696  21.742  32.102  21.843  0.0366 -0.1688  0.0168
96603W        W39697  20.912  28.596  21.284  0.0967  0.0770  0.1694
96604W        W39698  19.061  31.155  20.492 -0.3647 -0.0616  0.0928
96605W        W39699  20.565  30.559  21.796  0.1474 -0.0723  0.1147
96606W        W39700  19.943  30.695  20.076 -0.2530 -0.1880 -0.2663
96607W        W39701  22.054  32.252  21.007  0.1281  0.1495  0.3255
96608W        W39702  18.446  30.776  22.006  0.0233 -0.1862 -0.2255
96609W        W39703  20.238  29.057  20.538 -0.1849 -0.0097 -0.1244
96610W        W39704  18.335  31.969  20.332  0.3018 -0.2732  0.2439
96611W        W39705  19.979  31.868  22.496  0.0247 -0.0850 -0.0981
96612W        W39706  23.317  33.420  22.769  0.0408  0.0714  0.4139
96613W        W39707  18.952  29.383  20.507  0.1900  0.0942 -0.0048
96614W        W39708  21.559  31.930  19.941 -0.1809 -0.1511  0.0224
96615W        W39709  22.068  31.434  21.661 -0.4736 -0.1634  0.0314
96616W        W39710  21.120  32.733  19.537  0.0014 -0.1696 -0.0047
96617W        W39711  21.472  31.691  20.992 -0.0251  0.3076  0.0182
96618W        W39712  20.203  32.821  21.071 -0.3717 -0.0883 -0.1717
96619W        W39713  18.475  29.492  22.556  0.1324  0.0017  0.0354
96620W        W39714  20.325  33.473  21.569 -0.0797 -0.0067  0.0389
96621W        W39715  22.027  31.350  22.489 -0.0909 -0.1100  0.3964
96622W        W39716  20.007  31.193  21.115 -0.0724  0.1044 -0.1762
96623W        W39717  19.093  29.818  21.331  0.2793  0.1842  0.1025
96624W        W39718  18.551  33.893  21.408  0.0688  0.0026 -0.1640
96625W        W39719  22.111  29.416  22.361  0.0651 -0.1132  0.1991
96626W        W39720  20.591  28.872  22.862 -0.2618 -0.2013  0.0024
96627W        W39721  21.161  32.454  18.714  0.3083 -0.0606  0.0164
96628W        W39722  21.602  29.522  22.416 -0.3457  0.1387  0.0091
96629W        W39723  19.866  32.177  22.048  0.0209 -0.0375 -0.0678
96630W        W39724  18.990  32.048  23.403 -0.1551  0.1317 -0.0367
96631W        W39725  19.379  29.818  18.474  0.0290  0.0900 -0.0051
96632W        W39726  19.757  30.450  22.869  0.0835  0.1308 -0.2374
96633W        W39727  18.973  32.190  21.627  0.0054 -0.1193  0.0016
96634W        W39728  19.240  33.111  20.151 -0.2717  0.1925 -0.1220
96635W        W39729  20.507  31.918  20.856 -0.4094 -0.0751  0.0276
96636W        W39730  21.890  29.437  21.005  0.0605 -0.1377 -0.0071
96637W        W39731  21.154  31.796  21.694  0.4265 -0.0990  0.2967
96638W        W39732  19.521  30.132  21.380 -0.0261 -0.1383  0.1727
96639W        W39733  22.309  28.122  21.027  0.0020 -0.0000 -0.2439
96640W        W39734  20.590  28.856  20.286  0.1783  0.0121  0.0076
96641W        W39735  18.741  28.795  24.091  0.0988 -0.3588 -0.0279
96642W        W39736  18.932  30.745  20.143  0.0489  0.2860  0.1296
96643W        W39737  20.468  31.886  18.797 -0.2275 -0.2593 -0.1051
96644W        W39738  17.600  32.543  20.336  0.0519 -0.0279 -0.2777
96645W        W39739  20.104  27.906  22.811 -0.1769 -0.2295  0.2125
96646W        W39740  18.756  29.947  24.631  0.1751 -0.1875 -0.4000
96647W        W39741  16.785  31.111  21.383  0.2125  0.0625  0.0268
96648W        W39742  18.284  29.650  18.933  0.2197  0.0855  0.2170
96649W        W39743  21.965  31.868  20.203  0.0681  0.1923 -0.0660
96650W        W39744  18.372  29.130  22.883 -0.1054 -0.0673 -0.0427
96651W        W39745  18.281  28.101  22.096 -0.0096 -0.1605  0.0578
96652W        W39746  20.775  31.459  22.030  0.0082 -0.2033 -0.0872
96653W        W39747  21.340  32.308  20.239  0.1518 -0.3641  0.0803
96654W        W39748  19.418  29.652  21.774 -0.0660  0.0424 -0.1004
96655W        W39749  21.319  32.424  22.909 -0.0537 -0.1140 -0.2572
96656W        W39750  19.067  31.867  19.385  0.1573  0.1862 -0.1481
96657W        W39751  21.131  30.680  21.800 -0.3025  0.0336 -0.0127
96658W        W39752  20.500  31.231  22.444  0.0780 -0.4259 -0.2816
96659W        W39753  17.931  29.883  19.280 -0.1231  0.1556  0.0480
96660W        W39754  20.800  30.419  22.769 -0.3987  0.0300 -0.2858
96661W        W39755  21.366  32.933  21.058  0.1099  0.2980  0.3127
96662W        W39756  20.885  32.536  20.554  0.1308 -0.1796  0.2637
96663W        W39757  21.295  31.310  22.736 -0.0624  0.3076 -0.0444
96664W        W39758  21.071  32.695  21.440  0.0283  0.0493 -0.1385
96665W        W39759  19.198  28.747  24.191  0.0346  0.0856  0.0406
96666W        W39760  20.854  30.849  20.474  0.0745 -0.4877 -0.0420
96667W        W39761  20.968  31.914  23.501  0.0272  0.2540 -0.1434
96668W        W39762  23.058  30.565  19.356  0.2405 -0.1760 -0.2853
96669W        W39763  22.436  28.726  22.990 -0.0604 -0.1902 -0.2678
96670W        W39764  20.851  30.549  21.337 -0.2661  0.1131 -0.0837
96671W        W39765  18.878  29.660  23.696 -0.1480 -0.3361 -0.0386
96672W        W39766  20.142  30.215  24.081 -0.1663 -0.1776 -0.2142
96673W        W39767  22.306  31.941  22.589  0.0081 -0.0827  0.0635
96674W        W39768  18.262  29.162  21.344 -0.1391  0.1045 -0.1520
96675W        W39769  20.817  30.942  20.996  0.2337  0.0378 -0.2190
96676W        W39770  20.833  32.215  21.051  0.2006  0.1975  0.5967
96677W        W39771  18.452  31.580  22.408  0.1810 -0.0542  0.1511
96678W        W39772  20.631  30.110  21.425 -0.1528  0.1266 -0.2945
96679W        W39773  21.245  30.870  21.258  0.0158  0.0695 -0.0810
96680W        W39774  20.021  32.337  21.135  0.2291  0.1123 -0.0578
96681W        W39775  21.919  31.329  24.440  0.0892  0.1373  0.0567
96682W        W39776  19.742  31.714  20.570  0.1368 -0.0586 -0.2532
96683W        W39777  21.949  29.864  20.530  0.0303  0.1054 -0.2069
96684W        W39778  20.058  33.909  21.155  0.3096  0.0858 -0.0149
96685W        W39779  22.631  32.347  23.416 -0.1338 -0.1088 -0.1844
96686W        W39780  20.431  32.070  21.320 -0.3384 -0.1250  0.1592
96687W        W39781  19.631  30.938  21.448 -0.1582  0.1273  0.0686
96688W        W39782  19.345  28.986  23.624 -0.1659 -0.0012  0.3556
96689W        W39783  18.387  31.768  21.748  0.3775  0.1700 -0.0106
96690W        W39784  19.938  31.885  21.651  0.0176  0.0337 -0.0055
96691W        W39785  21.818  28.804  21.737  0.3395  0.0376 -0.3072
96692W        W39786  20.480  30.697  22.296 -0.0034 -0.1026  0.1679
96693W        W39787  19.180  29.755  19.589  0.0250 -0.1900 -0.1644
96694W        W39788  18.276  30.776  22.795  0.0149  0.0660 -0.0917
96695W        W39789  21.081  31.368  21.031  0.2329  0.0853 -0.3588
96696W        W39790  19.207  31.353  26.999  0.0261 -0.2260  0.1360
96697W        W39791  20.155  29.800  24.364  0.1758  0.0473 -0.0012
96698W        W39792  22.093  28.683  23.366  0.0005  0.0660 -0.1096
96699W        W39793  21.177  31.499  24.069 -0.1799 -0.1546 -0.4435
96700W        W39794  18.734  29.678  26.214 -0.3885 -0.0399  0.0924
96701W        W39795  20.886  31.939  24.005 -0.3638  0.0393  0.1035
96702W        W39796  18.743  29.359  27.136  0.1669  0.2209  0.2672
96703W        W39797  20.484  32.323  26.277 -0.1289 -0.1072  0.0498
96704W        W39798  20.837  33.429  26.085  0.0899  0.1060 -0.0431
96705W        W39799  19.262  30.430  25.897 -0.2668  0.0861  0.1398
96706W        W39800  21.351  30.742  25.078 -0.3528  0.0705  0.1237
96707W        W39801  18.343  33.025  26.570  0.1013  0.1681 -0.1664
96708W        W39802  19.421  29.582  25.072 -0.1014  0.0000 -0.3763
96709W        W39803  17.601  28.623  26.042 -0.3218  0.3488 -0.1146
96710W        W39804  20.688  32.189  25.680  0.2600  0.1590  0.1707
96711W        W39805  19.262  30.356  23.127 -0.0480  0.5425 -0.1591
96712W        W39806  20.259  30.036  26.344 -0.1432 -0.2836  0.2353
96713W        W39807  20.138  30.411  26.662 -0.1504  0.1785 -0.0855
96714W        W39808  19.806  31.798  24.879  0.0036  0.4717  0.0905
96715W        W39809  18.898  28.859  27.228 -0.0038  0.0863 -0.1875
96716W        W39810  20.936  29.628  28.018  0.1687  0.0459 -0.0197
96717W        W39811  21.009  32.164  24.646 -0.2319  0.1849  0.0506
96718W        W39812  19.602  29.400  24.462 -0.1043  0.1063  0.0478
96719W        W39813  18.249  31.682  24.918 -0.1303  0.0155  0.0045
96720W        W39814  20.974  30.130  27.234 -0.0294 -0.1032 -0.0374
96721W        W39815  20.868  31.136  24.336  0.0602  0.0735 -0.4533
96722W        W39816  21.399  32.344  24.912  0.3338  0.0506  0.1380
96723W        W39817  20.532  31.854  26.458  0.2068  0.0188  0.2205
96724W        W39818  19.914  30.743  24.915  0.1372 -0.0326  0.0677
96725W        W39819  20.901  30.480  25.905  0.0052 -0.0212 -0.1607
96726W        W39820  18.529  31.046  25.893  0.1654  0.1542  0.0091
96727W        W39821  18.373  30.827  26.640  0.1492 -0.1710  0.0944
96728W        W39822  19.468  31.407  25.125 -0.3530  0.2665  0.0242
96729W        W39823  21.706  32.297  23.195 -0.0131  0.2689 -0.0889
96730W        W39824  22.378  31.598  24.909 -0.3883  0.3414  0.1575
96731W        W39825  20.694  32.717  27.523  0.1840 -0.0922 -0.0890
96732W        W39826  20.486  31.045  23.297  0.0403 -0.0505 -0.1379
96733W        W39827  19.345  33.621  26.377 -0.1195  0.0793  0.0019
96734W        W39828  18.185  32.500  26.389  0.1423 -0.0357 -0.1906
96735W        W39829  19.067  31.845  25.489  0.1384 -0.1091 -0.2561
96736W        W39830  19.695  30.410  24.285  0.3427  0.0858 -0.0558
96737W        W39831  19.832  31.428  23.373  0.1664  0.2882  0.2745
96738W        W39832  20.928  32.228  25.106  0.1966  0.0141 -0.2609
96739W        W39833  19.198  31.195  27.450 -0.1390 -0.4291 -0.0118
96740W        W39834  18.008  32.477  24.957 -0.2031  0.2509 -0.1878
96741W        W39835  22.123  30.028  26.833  0.0827  0.1032  0.0055
96742W        W39836  19.531  30.878  25.226 -0.2389 -0.4003  0.1861
96743W        W39837  21.611  30.773  22.031  0.3142  0.2888 -0.1357
96744W        W39838  19.546  30.686  23.393  0.0637  0.0367  0.0992
96745W        W39839  21.968  29.171  23.725  0.0216 -0.0855  0.0509
96746W        W39840  19.177  28.431  24.602  0.1566 -0.0560 -0.3525
96747W        W39841  19.004  32.191  25.933 -0.0096 -0.1598 -0.2209
96748W        W39842  20.452  29.905  27.508  0.0380  0.1395 -0.3710
96749W        W39843  22.043  32.395  25.122 -0.1617 -0.1028 -0.2386
96750W        W39844  20.583  30.514  25.493  0.1528 -0.0168 -0.1905
96751W        W39845  20.420  31.881  25.977  0.1073 -0.1522 -0.0823
96752W        W39846  17.807  33.099  25.708  0.2386  0.1056  0.1935
96753W        W39847  20.115  30.887  25.491  0.1909  0.1322 -0.0644
96754W        W39848  22.562  32.073  23.934  0.1270 -0.1635 -0.0777
96755W        W39849  22.355  31.891  23.485  0.1164  0.0840  0.0907
96756W        W39850  19.777  30.047  23.285 -0.0286  0.4865 -0.0697
96757W        W39851  17.910  30.300  25.707 -0.0313  0.3076  0.1289
96758W        W39852  19.622  30.643  26.619  0.0853  0.1004  0.0912
96759W        W39853  20.155  30.844  27.012 -0.1344 -0.3429  0.1981
96760W        W39854  20.836  28.751  24.253  0.2914 -0.0426 -0.1717
96761W        W39855  21.796  31.098  26.656  0.3229  0.0238 -0.0504
96762W        W39856  18.561  32.033  26.683 -0.0345  0.2533 -0.2827
96763W        W39857  21.269  30.091  23.611  0.3311  0.3702 -0.3603
96764W        W39858  19.511  30.523  24.858  0.2326  0.1339  0.0395
96765W        W39859  21.474  31.711  25.770 -0.2247  0.2777  0.2451
96766W        W39860  22.216  32.269  24.230  0.1903 -0.0513  0.2981
96767W        W39861  21.129  28.330  25.181  0.0640 -0.2269 -0.0662
96768W        W39862  21.322  28.063  27.202 -0.1630 -0.1726 -0.0895
96769W        W39863  19.640  30.116  25.147  0.3197 -0.2704 -0.1077
96770W        W39864  20.063  31.032  26.010 -0.1890  0.1707 -0.0822
96771W        W39865  23.060  31.961  26.691  0.1685  0.0365 -0.0616
96772W        W39866  20.684  30.932  22.771  0.0141 -0.1164  0.0329
96773W        W39867  17.880  32.897  26.306  0.0470 -0.2408  0.0474
96774W        W39868  20.663  30.030  26.699 -0.4171  0.0269  0.0695
96775W        W39869  19.126  30.712  26.317  0.1632 -0.0618  0.0384
96776W        W39870  19.801  32.990  24.411  0.1210 -0.0107  0.0005
96777W        W39871  18.591  30.581  25.729 -0.1431 -0.2079 -0.0653
96778W        W39872  18.475  30.490  23.699 -0.1428 -0.3078 -0.0988
96779W        W39873  18.684  29.812  26.935 -0.1292  0.2620 -0.0876
96780W        W39874  19.028  30.897  25.773 -0.0212 -0.0384  0.1684
96781W        W39875  21.560  29.450  23.747  0.3636 -0.1909  0.3086
96782W        W39876  18.905  30.090  26.552  0.1910 -0.1837  0.2966
96783W        W39877  22.100  28.215  24.848  0.0525 -0.1769 -0.0393
96784W        W39878  19.509  31.561  23.776 -0.1466 -0.0065  0.1695
96785W        W39879  20.936  32.782  24.908 -0.0704  0.0843 -0.2400
96786W        W39880  23.267  28.049  23.521 -0.1681  0.0080  0.0230
96787W        W39881  22.065  32.839  24.084 -0.1416 -0.1856  0.3290
96788W        W39882  18.742  30.262  27.206 -0.1220  0.1233 -0.2259
96789W        W39883  18.452  28.871  25.722 -0.3507  0.3488  0.2352
96790W        W39884  19.169  28.450  26.883 -0.0023  0.3027 -0.2148
96791W        W39885  18.957  29.534  26.629 -0.3867  0.1148 -0.0922
96792W        W39886  20.962  31.863  26.025 -0.1778 -0.2223 -0.1218
96793W        W39887  19.744  29.284  23.672  0.0831  0.0370  0.0775
96794W        W39888  22.188  31.073  26.037 -0.0978 -0.3090 -0.0686
96795W        W39889  19.489  31.892  25.277 -0.2751  0.0119 -0.2498
96796W        W39890  20.324  31.335  23.714 -0.1602 -0.2284  0.0267
96797W        W39891  21.819  28.987  27.371  0.1541 -0.2767 -0.1121
96798W        W39892  20.701  31.463  22.827  0.1242  0.0677 -0.2749
96799W        W39893  21.518  32.607  26.292  0.1546  0.3232  0.1648
96800W        W39894  21.082  31.923  25.482  0.0779 -0.5056  0.2198
96801W        W39895  19.465  30.740  27.238 -0.1424  0.2031 -0.0431
96802W        W39896  18.796  31.117  24.442  0.0038  0.1047 -0.3303
96803W        W39897  18.696  31.004  25.424  0.2332 -0.0637 -0.0822
96804W        W39898  20.081  32.842  26.162 -0.1395 -0.0171  0.1528
96805W        W39899  20.257  30.096  25.700  0.0602  0.1969  0.0739
96806W        W39900  21.638  33.673  26.565  0.1749 -0.0327 -0.2594
96807W        W39901  21.532  30.335  24.748  0.2706  0.1001  0.3351
96808W        W39902  18.779  31.083  26.432 -0.1817 -0.2299 -0.0839
96809W        W39903  21.218  28.917  26.685 -0.3799  0.1491  0.1803
96810W        W39904  21.798  30.474  25.143 -0.1544  0.3626 -0.1635
96811W        W39905  20.174  29.659  25.864  0.2544 -0.3115  0.0697
96812W        W39906  19.138  30.088  24.153  0.1828 -0.4002  0.3836
96813W        W39907  19.378  33.492  25.922  0.0781  0.2766  0.0954
96814W        W39908  18.583  30.586  24.371 -0.1846  0.2425  0.0880
96815W        W39909  17.852  30.727  25.035 -0.0752 -0.4456 -0.0233
96816W        W39910  20.438  31.786  24.204 -0.0804 -0.2906 -0.2466
96817W        W39911  21.025  29.171  25.597  0.0625  0.0711 -0.2100
96818W        W39912  18.774  30.499  26.766 -0.2528  0.0197  0.0191
96819W        W39913  20.141  31.552  26.186  0.1037 -0.0086 -0.3781
96820W        W39914  18.758  30.747  24.899  0.1520  0.1596 -0.4040
96821W        W39915  19.842  32.384  27.116 -0.0745  0.7630 -0.1747
96822W        W39916  20.216  28.789  24.901  0.0481  0.1241  0.1457
96823W        W39917  22.300  30.053  23.663 -0.1987 -0.1811 -0.0588
96824W        W39918  20.093  31.475  27.019 -0.2051  0.0490 -0.2190
96825W        W39919  23.102  29.995  23.756 -0.0147  0.1143 -0.1598
96826W        W39920  21.439  28.444  23.754  0.1549 -0.0659  0.3217
96827W        W39921  20.062  30.279  24.689 -0.2143 -0.0081  0.0725
96828W        W39922  17.864  32.632  25.850  0.1245 -0.2250  0.0126
96829W        W39923  20.358  31.178  24.610 -0.0251  0.4357  0.3079
96830W        W39924  21.511  31.574  24.455  0.3103  0.3165 -0.1451
96831W        W39925  21.317  30.253  24.110 -0.1738 -0.0101 -0.0085
96832W        W39926  22.149  31.757  23.909  0.3779 -0.2525 -0.0805
96833W        W39927  19.237  31.768  25.970  0.0376 -0.2514  0.0953
96834W        W39928  20.478  31.258  27.284 -0.4443 -0.1161  0.1111
96835W        W39929  21.088  30.684  24.116 -0.1587 -0.1622  0.1849
96836W        W39930  20.005  28.571  26.176  0.3531  0.1367 -0.0588
96837W        W39931  18.931  30.480  23.952  0.2215 -0.0784 -0.2868
96838W        W39932  19.789  27.553  24.377 -0.0046 -0.2222  0.0054
96839W        W39933  18.536  33.217  23.218  0.1762 -0.0220  0.0045
96840W        W39934  20.655  29.567  24.325 -0.2577  0.0007  0.0367
96841W        W39935  20.573  28.458  24.956  0.1990 -0.3403  0.0956
96842W        W39936  19.812  30.027  26.637  0.0453 -0.0355 -0.0453
96843W        W39937  20.798  31.072  26.916 -0.1579  0.2894  0.2722
96844W        W39938  21.692  31.613  24.006  0.1175  0.0606  0.1136
96845W        W39939  22.275  31.714  24.394 -0.1615 -0.2243  0.0427
96846W        W39940  18.719  30.952  23.959  0.1627 -0.1502 -0.0800
96847W        W39941  20.557  29.585  26.459  0.0385 -0.0368  0.0335
96848W        W39942  19.271  31.708  27.657  0.0144  0.3307 -0.3714
96849W        W39943  20.210  33.127  27.681  0.0972  0.4411  0.2998
96850W        W39944  20.955  31.517  26.610  0.2448  0.0180  0.1957
96851W        W39945  20.727  30.747  24.590  0.1168  0.2177  0.2674
96852W        W39946  18.973  28.837  25.599 -0.0057 -0.2408 -0.1124
96853W        W39947  20.630  29.414  23.782  0.0053  0.1332 -0.0638
96854W        W39948  18.955  33.230  25.736 -0.5799  0.0470  0.0509
96855W        W39949  19.846  30.451  23.752  0.0685 -0.1177 -0.1428
96856W        W39950  18.523  29.211  25.368 -0.0048 -0.0673 -0.0214
96857W        W39951  20.587  32.443  24.802 -0.2669  0.1110 -0.1150
96858W        W39952  19.836  31.779  23.064  0.2455  0.0090 -0.3078
96859W        W39953  19.958  31.863  25.368  0.1741 -0.0946  0.1448
96860W        W39954  19.370  31.696  23.345  0.0667 -0.0487  0.0157
96861W        W39955  22.145  27.687  27.276 -0.0244  0.1583  0.3679
96862W        W39956  18.193  32.054  25.697  0.0306  0.0404  0.0120
96863W        W39957  20.558  29.810  24.795  0.0137  0.1387 -0.0212
96864W        W39958  17.579  30.282  25.250 -0.0101 -0.1010 -0.0210
96865W        W39959  19.642  31.420  24.261 -0.0442 -0.0881 -0.3102
96866W        W39960  21.818  31.684  23.474  0.2502  0.1819 -0.0937
96867W        W39961  18.462  29.336  27.608 -0.0199  0.1681  0.0247
96868W        W39962  20.063  29.767  25.085 -0.2085 -0.1510 -0.0548
96869W        W39963  17.628  33.272  25.262  0.2126 -0.0445  0.0988
96870W        W39964  20.924  31.223  24.841 -0.2948 -0.0161 -0.0567
96871W        W39965  22.310  30.320  24.364 -0.2324 -0.0187  0.0691
96872W        W39966  20.450  31.779  25.473 -0.1088 -0.0450 -0.2163
96873W        W39967  20.157  29.917  28.488  0.3241 -0.3018  0.1676
96874W        W39968  18.892  31.685  24.931 -0.0868 -0.0577  0.3830
96875W        W39969  20.518  29.486  25.486 -0.0129 -0.1747  0.2502
96876W        W39970  19.918  30.395  26.157  0.2586 -0.0668 -0.0947
96877W        W39971  18.566  32.418  23.402 -0.1677  0.1546 -0.0911
96878W        W39972  19.716  31.109  25.633  0.0233  0.3905  0.0674
96879W        W39973  18.780  30.176  25.241 -0.1466  0.1920  0.2076
96880W        W39974  20.535  30.971  25.781  0.0578  0.1991  0.1258
96881W        W39975  19.666  29.986  28.322 -0.0727 -0.3460 -0.0279
96882W        W39976  20.423  32.162  25.156 -0.0839  0.0234 -0.0319
96883W        W39977  19.383  30.268  26.440  0.0728  0.2287  0.2385
96884W        W39978  17.989  30.546  24.607  0.2682  0.1803 -0.0885
96885W        W39979  19.229  30.082  25.516  0.1051  0.0267 -0.0163
96886W        W39980  20.392  31.266  26.621  0.0101  0.0973  0.1131
96887W        W39981  21.145  29.542  26.432 -0.2858 -0.3546 -0.0173
96888W        W39982  19.359  34.135  27.218 -0.1014  0.1653 -0.2295
96889W        W39983  18.208  29.828  27.207  0.3686 -0.0116  0.1482
96890W        W39984  22.983  33.246  23.694  0.0532  0.0297 -0.2066
96891W        W39985  21.209  30.700  24.587 -0.0613  0.0870  0.0103
96892W        W39986  21.007  31.672  22.413 -0.1572 -0.0896 -0.0589
96893W        W39987  19.108  31.274  26.079 -0.1803 -0.0698 -0.2582
96894W        W39988  19.397  31.169  23.246  0.0098 -0.2010 -0.0655
96895W        W39989  20.136  28.776  25.444  0.1581  0.0228  0.2209
96896W        W39990  18.500  32.305  26.049 -0.0114 -0.0521  0.1038
96897W        W39991  19.125  30.800  24.280  0.1358  0.0600  0.3003
96898W        W39992  19.299  31.304  25.557 -0.0343 -0.0630  0.0026
96899W        W39993  22.703  28.983  24.734 -0.3411  0.1892 -0.3525
96900W        W39994  21.730  32.640  23.538 -0.2012  0.0070  0.2284
96901W        W39995  20.000  29.339  25.465 -0.0545 -0.1195 -0.1791
96902W        W39996  22.243  29.446  25.312  0.5362 -0.2956  0.0596
96903W        W39997  22.439  31.220  22.708 -0.0219 -0.0661 -0.0146
96904W        W39998  20.232  28.268  27.422 -0.2125  0.2302 -0.1134
96905W        W39999  19.937  28.478  26.670 -0.3082 -0.0085  0.2105
96906W        W40000  20.099  31.607  24.494 -0.0988  0.1639  0.1128
96907W        W40001  18.580  30.588  27.607  0.1245  0.0356 -0.2230
96908W        W40002  20.492  31.743  27.525 -0.0474  0.3329 -0.4208
96909W        W40003  18.372  30.179  26.921  0.2808 -0.1616  0.0823
96910W        W40004  20.860  30.188  23.903  0.1478  0.3132 -0.0612
96911W        W40005  18.503  28.140  25.171 -0.0769  0.2847  0.1021
96912W        W40006  18.324  30.198  25.963 -0.1016 -0.0392  0.0102
96913W        W40007  20.823  31.515  25.673  0.1400 -0.0928 -0.0271
96914W        W40008  20.785  31.496  23.382 -0.1950 -0.0780 -0.1131
96915W        W40009  20.622  30.357  24.933  0.0112  0.0777  0.0382
96916W        W40010  19.273  29.852  26.853 -0.0145  0.1603 -0.0006
96917W        W40011  20.891  31.664  24.466  0.0107  0.1547  0.1320
96918W        W40012  20.838  31.037  23.704 -0.1086  0.0865  0.0724
96919W        W40013  18.992  32.035  24.603  0.0249  0.0361 -0.0040
96920W        W40014  18.300  28.159  26.465  0.0705  0.4714  0.1714
96921W        W40015  21.400  31.142  24.741 -0.3134 -0.3953 -0.0196
96922W        W40016  21.230  30.516  25.530 -0.0674 -0.2272 -0.1379
96923W        W40017  21.145  30.065  25.728  0.0196 -0.1456  0.1030
96924W        W40018  21.483  31.010  26.250 -0.2548  0.0680 -0.0678
96925W        W40019  21.081  31.454  27.117  0.0349  0.3455  0.1211
96926W        W40020  19.625  31.138  27.038 -0.0259 -0.0708 -0.0872
96927W        W40021  21.660  32.711  25.194 -0.2122  0.2969  0.0018
96928W        W40022  21.791  30.462  22.456 -0.0144 -0.1319 -0.2366
96929W        W40023  21.720  30.954  25.368 -0.1530  0.0591 -0.2279
96930W        W40024  23.024  31.124  23.052 -0.2035 -0.0749 -0.0281
96931W        W40025  21.837  30.376  23.420  0.3147  0.0593 -0.1203
96932W        W40026  18.586  29.088  26.094 -0.1907  0.1091 -0.1966
96933W        W40027  22.970  31.084  26.606  0.3810 -0.1163 -0.0504
96934W        W40028  20.014  28.299  23.607 -0.3027  0.1667  0.0476
96935W        W40029  19.865  29.305  27.130 -0.0304 -0.1870  0.1743
96936W        W40030  19.753  30.978  23.738 -0.1688  0.1477 -0.0692
96937W        W40031  22.671  31.667  25.348  0.1811  0.0837 -0.3366
96938W        W40032  20.002  31.640  23.968  0.0491 -0.0325  0.2190
96939W        W40033  19.336  29.748  26.384  0.0824  0.0507 -0.1922
96940W        W40034  20.010  31.592  28.299 -0.3147 -0.1457 -0.2703
96941W        W40035  18.489  30.335  24.833  0.0570  0.1297  0.1154
96942W        W40036  18.026  30.176  23.872 -0.0023 -0.0133 -0.1480
96943W        W40037  20.591  32.675  25.936  0.2053  0.2531 -0.3906
96944W        W40038  22.696  31.332  26.207  0.1683  0.1515 -0.3252
96945W        W40039  18.909  29.525  24.896 -0.0286 -0.0095 -0.1383
96946W        W40040  20.656  28.741  27.486 -0.2036 -0.0941  0.2129
96947W        W40041  18.961  32.704  24.053 -0.2329 -0.0135  0.0777
96948W        W40042  19.809  30.338  27.006  0.3743 -0.1252  0.1423
96949W        W40043  18.874  32.478  24.871 -0.2518 -0.1410 -0.1688
96950W        W40044  18.709  31.074  26.926  0.1196 -0.0057 -0.0976
96951W        W40045  19.385  31.562  24.666 -0.0191  0.0523  0.1011
96952W        W40046  20.228  29.904  26.884 -0.0755  0.0475  0.0247
96953W        W40047  21.945  31.186  24.919 -0.1461 -0.1211  0.0819
96954W        W40048  19.620  31.634  25.681 -0.3178  0.1217  0.0009
96955W        W40049  22.400  30.815  24.221 -0.0408  0.1158  0.1710
96956W        W40050  21.385  31.865  26.269  0.2216 -0.2524 -0.0585
96957W        W40051  17.503  30.689  24.652  0.1437  0.2594  0.3976
96958W        W40052  20.293  32.379  27.414 -0.0359 -0.0378  0.1535
96959W        W40053  22.862  31.052  23.533 -0.2375  0.1248 -0.0017
96960W        W40054  18.521  31.538  24.549 -0.0186 -0.3910 -0.1356
96961W        W40055  20.380  29.655  28.096  0.1638 -0.2678  0.0194
96962W        W40056  19.603  31.407  26.124  0.1081 -0.0296  0.0571
96963W        W40057  20.445  30.513  25.978  0.0853 -0.2380  0.0714
96964W        W40058  19.501  29.607  25.521  0.0386  0.0498 -0.0615
96965W        W40059  19.650  31.970  24.154  0.3406 -0.0086 -0.0493
96966W        W40060  19.765  31.647  26.524 -0.0787  0.2335 -0.2552
96967W        W40061  18.774  31.017  27.871 -0.1212  0.3113  0.0584
96968W        W40062  18.258  32.523  24.494  0.1697 -0.2614  0.0643
96969W        W40063  23.234  30.497  23.618  0.0480  0.0461  0.2622
96970W        W40064  20.688  29.950  25.858 -0.0980  0.2457 -0.0293
96971W        W40065  19.708  32.619  25.530  0.1525  0.0867  0.1349
96972W        W40066  21.273  29.629  23.423  0.2596  0.0505 -0.3227
96973W        W40067  19.395  32.645  22.339  0.5043 -0.1024  0.1270
96974W        W40068  19.045  30.652  23.504  0.0002 -0.0285 -0.2311
96975W        W40069  21.393  31.936  22.683  0.1922 -0.2085  0.1638
96976W        W40070  18.505  31.724  25.388 -0.0524  0.1351 -0.0104
96977W        W40071  21.485  31.448  26.739  0.0065  0.3256  0.1568
96978W        W40072  22.457  29.583  23.829 -0.1812 -0.1539  0.0974
96979W        W40073  22.316  31.310  24.146 -0.0342  0.0875  0.0024
96980W        W40074  21.716  29.811  24.655  0.1893 -0.0001 -0.0696
96981W        W40075  20.032  31.856  27.363 -0.1317  0.0307 -0.0134
96982W        W40076  18.792  30.098  25.859  0.1721  0.0928  0.1053
96983W        W40077  21.007  28.436  24.603  0.1269 -0.1444 -0.0721
96984W        W40078  21.482  30.227  27.097  0.0399  0.2587  0.1347
96985W        W40079  21.889  29.313  27.839 -0.0366 -0.0107  0.0561
96986W        W40080  18.324  34.643  26.758 -0.1553 -0.1727  0.1379
96987W        W40081  20.495  31.968  24.673 -0.0910 -0.0140  0.0799
96988W        W40082  17.357  30.009  26.838  0.1199  0.0620 -0.0760
96989W        W40083  20.379  30.772  25.058 -0.1826  0.1980 -0.1682
96990W        W40084  21.995  29.964  25.147 -0.0283 -0.0244 -0.0544
96991W        W40085  19.728  30.416  25.660 -0.2915 -0.3484  0.1241
96992W        W40086  19.872  29.904  25.510  0.1387  0.0568 -0.0001
96993W        W40087  17.550  32.718  24.354 -0.2162 -0.3661 -0.0917
96994W        W40088  19.806  31.250  24.712  0.0414  0.1439 -0.1057
96995W        W40089  19.417  32.172  25.664  0.2285 -0.1545 -0.2109
96996W        W40090  19.665  28.497  24.388 -0.0493  0.3864  0.4145
96997W        W40091  21.878  30.875  23.505 -0.0201  0.2594 -0.0521
96998W        W40092  18.696  30.421  26.255 -0.0693  0.0980  0.1460
96999W        W40093  21.299  30.500  26.205  0.1806  0.2591 -0.1308
97000W        W40094  18.167  32.146  23.828 -0.3141 -0.0233 -0.2338
97001W        W40095  20.825  29.314  24.817  0.1029 -0.0131  0.1833
97002W        W40096  18.944  31.749  26.805  0.1655 -0.0950  0.4305
97003W        W40097  18.176  31.183  25.532 -0.0345  0.1270  0.3490
97004W        W40098  20.788  29.791  23.487 -0.1594  0.2240 -0.1678
97005W        W40099  22.530  29.893  25.342 -0.0227 -0.1088  0.0314
97006W        W40100  20.949  30.791  23.212  0.1340  0.2500  0.1201
97007W        W40101  21.149  32.544  27.054  0.0534  0.1815  0.2211
97008W        W40102  18.853  29.293  25.781  0.1082 -0.0483 -0.3542
97009W        W40103  20.839  29.501  23.059 -0.0797  0.0950 -0.2588
97010W        W40104  18.434  32.121  24.739  0.1964 -0.2187  0.2542
97011W        W40105  21.120  30.913  25.858 -0.1961 -0.3666 -0.3044
97012W        W40106  22.238  32.029  26.645 -0.0182  0.0388 -0.0699
97013W        W40107  18.317  30.106  25.437 -0.0788 -0.1348  0.3733
97014W        W40108  22.025  31.956  23.088 -0.1018 -0.0835 -0.0603
97015W        W40109  19.087  31.121  25.075 -0.3608 -0.1229 -0.1268
97016W        W40110  20.844  32.336  23.104  0.2924  0.1226 -0.1054
97017W        W40111  21.404  32.199  25.823 -0.0375 -0.0139  0.2705
97018W        W40112  21.306  33.254  25.914  0.1422 -0.0893  0.1700
97019W        W40113  17.927  29.144  27.760  0.2014 -0.1559 -0.2780
97020W        W40114  21.230  32.542  25.468 -0.2818 -0.3103  0.0617
97021W        W40115  22.710  32.439  24.780 -0.1024 -0.2792  0.0137
97022W        W40116  20.484  29.977  25.290  0.2019 -0.2202  0.2931
97023W        W40117  20.688  30.079  27.922  0.0148 -0.0606  0.1539
97024W        W40118  19.814  32.519  24.230  0.0706  0.2654  0.0449
97025W        W40119  21.746  30.816  24.500 -0.0455  0.1283  0.0102
97026W        W40120  21.727  31.541  26.339  0.1438  0.0621  0.2297
97027W        W40121  21.403  31.978  23.767  0.0658  0.2706 -0.1317
97028W        W40122  20.946  30.032  26.273  0.0056  0.2319  0.0559
97029W        W40123  19.798  33.364  27.443  0.0006  0.4570 -0.2996
97030W        W40124  19.909  32.651  27.994  0.0174 -0.0074  0.0421
97031W        W40125  18.212  30.085  24.410 -0.1265 -0.1140  0.1706
97032W        W40126  20.128  31.457  25.694 -0.3635 -0.2806 -0.0160
97033W        W40127  19.666  29.863  24.230 -0.1548 -0.0802 -0.1676
97034W        W40128  19.186  31.850  24.164 -0.1785 -0.2207 -0.0853
97035W        W40129  21.113  31.375  25.323 -0.1214 -0.2188  0.0361
97036W        W40130  20.075  30.371  25.298 -0.2006 -0.1256 -0.3710
97037W        W40131  22.608  32.597  24.199 -0.2604  0.0370 -0.2287
97038W        W40132  19.678  29.969  26.124 -0.0698 -0.1456  0.2238
97039W        W40133  21.073  29.734  23.945  0.0006  0.1732  0.2404
97040W        W40134  20.911  29.712  25.129  0.0490 -0.0755  0.2308
97041W        W40135  19.539  32.096  26.375 -0.4298 -0.1160  0.1990
97042W        W40136  16.554  30.923  24.427  0.0124  0.1337 -0.2916
97043W        W40137  18.826  29.755  25.465 -0.2899 -0.0490  0.3198
97044W        W40138  18.456  32.653  25.101  0.1632  0.2768  0.1532
97045W        W40139  20.034  28.198  27.993  0.0447  0.3015 -0.4153
97046W        W40140  20.083  29.543  27.541 -0.0966  0.2786  0.2514
97047W        W40141  19.174  30.331  26.985 -0.0162 -0.0737 -0.0227
97048W        W40142  19.559  29.008  26.224 -0.1182 -0.3702  0.1263
97049W        W40143  21.634  32.422  24.100  0.0494  0.1996 -0.1778
97050W        W40144  19.599  29.046  24.118 -0.0898 -0.0096 -0.0470
97051W        W40145  17.811  28.260  25.551  0.1140  0.0396  0.1339
97052W        W40146  20.548  31.248  25.361  0.0547 -0.0693 -0.0906
97053W        W40147  20.738  31.491  23.921  0.1464 -0.0997 -0.0460
97054W        W40148  20.600  31.310  26.186 -0.4542  0.2036 -0.3012
97055W        W40149  21.188  32.014  27.037 -0.6317 -0.1022  0.0367
97056W        W40150  18.133  30.821  23.847  0.2033  0.0182 -0.1039
97057W        W40151  19.932  30.731  27.466 -0.2457  0.0311 -0.2343
97058W        W40152  18.842  29.655  27.876 -0.0729 -0.0353 -0.1135
97059W        W40153  18.078  29.356  25.097 -0.0362  0.0600 -0.1806
97060W        W40154  21.628  30.698  25.855 -0.0375 -0.0983  0.1817
97061W        W40155  20.157  32.644  24.962  0.0012  0.2928  0.0566
97062W        W40156  19.747  32.275  25.094 -0.2366  0.1021  0.1342
97063W        W40157  19.168  30.551  25.350  0.0895 -0.3051  0.1160
97064W        W40158  20.579  30.752  29.123 -0.0053  0.1051  0.2711
97065W        W40159  18.044  29.366  27.357  0.1118  0.0705 -0.0854
97066W        W40160  20.096  31.191  24.184 -0.1285  0.1150  0.1699
97067W        W40161  19.783  29.799  27.240 -0.1899 -0.4423  0.0652
97068W        W40162  21.420  31.850  23.255  0.0139 -0.1622  0.2312
97069W        W40163  21.008  31.021  26.422 -0.1475 -0.1173 -0.1450
97070W        W40164  20.450  30.823  24.016 -0.2376 -0.0996  0.4098
97071W        W40165  19.909  29.067  27.622 -0.0330  0.1982  0.1509
97072W        W40166  18.965  32.202  26.951  0.0172 -0.2077 -0.0056
97073W        W40167  22.171  30.741  24.749  0.2292  0.1254  0.0242
97074W        W40168  19.663  28.115  26.215 -0.4236  0.5032  0.4231
97075W        W40169  20.312  29.291  25.007  0.0106  0.2252  0.0759
97076W        W40170  20.870  30.713  25.174 -0.0085 -0.0580  0.2731
97077W        W40171  19.950  30.239  27.479 -0.2659 -0.0481  0.3934
97078W        W40172  19.885  29.884  23.786 -0.1156  0.0684 -0.3128
97079W        W40173  19.469  31.093  26.508 -0.3821 -0.0194  0.2342
97080W        W40174  21.247  31.696  24.863 -0.0171  0.1711  0.1774
97081W        W40175  21.333  31.018  26.915 -0.0602  0.1430 -0.0952
97082W        W40176  17.974  31.642  25.385  0.1843 -0.5347 -0.0497
97083W        W40177  21.027  30.488  22.301  0.0748  0.3405  0.0917
97084W        W40178  19.671  32.904  26.982  0.0479 -0.0375  0.0958
97085W        W40179  21.859  32.332  25.581 -0.2002  0.2991  0.2531
97086W        W40180  20.131  32.070  26.810 -0.3087  0.2896 -0.2805
97087W        W40181  21.041  32.050  26.549  0.2150 -0.3788  0.2908
97088W        W40182  18.115  27.999  24.581  0.2739  0.0981  0.0944
97089W        W40183  18.561  31.281  25.037  0.0716  0.1391  0.1478
97090W        W40184  19.544  30.850  26.070  0.1099 -0.0137 -0.2808
97091W        W40185  19.990  31.213  25.172  0.1093  0.3289  0.0839
97092W        W40186  17.465  29.601  26.354 -0.1423 -0.0877 -0.0600
97093W        W40187  20.462  29.929  23.862  0.0985 -0.1347 -0.1289
97094W        W40188  18.762  32.350  25.475 -0.2983  0.0816 -0.0010
97095W        W40189  19.033  32.150  26.401  0.1531  0.1472 -0.0221
97096W        W40190  19.799  30.675  29.670 -0.1022  0.3099 -0.0318
97097W        W40191  19.148  30.193  28.974  0.0052  0.1679 -0.0778
97098W        W40192  21.406  30.511  28.667 -0.1215  0.0472 -0.2228
97099W        W40193  20.704  30.276  28.781  0.3532  0.3378  0.2081
97100W        W40194  18.559  31.114  27.413 -0.0907  0.0224 -0.4101
97101W        W40195  20.221  32.663  29.564 -0.1045 -0.0688 -0.3336
97102W        W40196  19.041  28.096  31.310 -0.0865  0.0725 -0.0905
97103W        W40197  21.473  32.169  28.842  0.2744  0.0034  0.0442
97104W        W40198  20.936  33.178  31.815  0.0599 -0.1632  0.1900
97105W        W40199  19.947  31.097  26.485 -0.0096 -0.0173 -0.2065
97106W        W40200  20.014  29.392  29.583  0.0813 -0.1357  0.1979
97107W        W40201  20.777  32.725  28.372 -0.3934 -0.0228  0.0059
97108W        W40202  19.766  28.600  27.747 -0.0817 -0.1268  0.1939
97109W        W40203  18.794  28.073  30.185  0.0908 -0.3234  0.1247
97110W        W40204  22.558  30.438  29.184 -0.4082  0.0677  0.4043
97111W        W40205  19.083  29.657  27.315  0.0590 -0.0072 -0.0776
97112W        W40206  18.622  30.164  30.204 -0.0633  0.1987 -0.0492
97113W        W40207  20.258  28.198  29.908  0.0154 -0.0392  0.2123
97114W        W40208  20.873  33.157  29.641  0.1332  0.2055 -0.2775
97115W        W40209  18.620  30.911  29.610  0.1400 -0.0413  0.0015
97116W        W40210  19.429  31.080  30.275  0.3087  0.0532  0.1254
97117W        W40211  20.336  31.931  28.379  0.3373 -0.0267  0.0407
97118W        W40212  19.112  29.236  26.263 -0.1381  0.1835  0.0069
97119W        W40213  18.184  29.713  29.768  0.2311 -0.2414 -0.0115
97120W        W40214  19.655  29.122  30.729  0.3059  0.0265 -0.0262
97121W        W40215  21.325  28.459  29.751 -0.0674 -0.2990  0.1923
97122W        W40216  22.646  31.319  27.690 -0.0243 -0.1258 -0.3640
97123W        W40217  19.789  33.271  30.055 -0.0039  0.2342  0.1240
97124W        W40218  20.288  33.231  29.020 -0.0756 -0.1152 -0.1371
97125W        W40219  20.750  31.571  31.122  0.2843  0.2150 -0.2104
97126W        W40220  20.806  30.831  30.262  0.3111 -0.3730 -0.1936
97127W        W40221  18.942  34.256  28.987 -0.1636  0.1340  0.0977
97128W        W40222  19.869  32.157  28.298 -0.1017 -0.0501 -0.0998
97129W        W40223  22.037  31.957  27.308 -0.0111  0.2262 -0.0218
97130W        W40224  21.649  31.842   0.091  0.1005 -0.1896  0.5268
97131W        W40225  19.735  32.563  31.103  0.2803  0.2090  0.1727
97132W        W40226  19.247  32.513  27.286  0.1253  0.2524 -0.2612
97133W        W40227  21.309  32.290  31.078  0.1107 -0.0561 -0.4328
97134W        W40228  19.619  31.543  30.187  0.0496  0.0157  0.0033
97135W        W40229  20.610  31.186  29.346 -0.1381 -0.0721  0.0813
97136W        W40230  21.050  30.846  29.418 -0.3307  0.1175  0.0586
97137W        W40231  20.362  31.331  28.034  0.0287 -0.0890 -0.1639
97138W        W40232  19.455  32.603  27.854 -0.1920 -0.1019  0.0922
97139W        W40233  19.029  30.743  30.387 -0.0719  0.0812 -0.3064
97140W        W40234  18.896  30.190  29.620  0.1098  0.1590  0.2130
97141W        W40235  21.521  30.672  30.878  0.0555  0.0594 -0.0195
97142W        W40236  18.908  31.861  27.921  0.4721 -0.2280 -0.1107
97143W        W40237  21.453  29.809  27.905 -0.1287  0.0440 -0.0832
97144W        W40238  20.192  31.047  28.960  0.1373  0.0170  0.1080
97145W        W40239  21.032  30.800  28.843  0.2560 -0.0388 -0.3828
97146W        W40240  18.151  28.598  28.708  0.1405 -0.0037  0.3478
97147W        W40241  17.911  31.536  30.460  0.1867  0.3337  0.1955
97148W        W40242  19.218  29.231  30.379  0.3950 -0.0706  0.1510
97149W        W40243  21.105  30.455  30.026 -0.0401  0.0858 -0.0318
97150W        W40244  20.728  31.531  28.465  0.1105 -0.1027  0.1131
97151W        W40245  19.214  29.324  28.554 -0.1053  0.1755  0.0807
97152W        W40246  19.476  30.662  29.071  0.0310  0.1018  0.3420
97153W        W40247  18.869  31.208  28.837  0.0164 -0.0783  0.2809
97154W        W40248  21.801  30.683  27.192  0.2327  0.4469 -0.4487
97155W        W40249  21.694  33.335  26.900  0.3060 -0.1844 -0.0148
97156W        W40250  21.563  31.705  27.230  0.1989  0.2255  0.2045
97157W        W40251  20.874  31.399  28.965 -0.1286  0.0920 -0.0281
97158W        W40252  18.437  30.464  29.503  0.1981 -0.2558  0.0169
97159W        W40253  19.304  29.923  29.641 -0.3662  0.3430  0.1014
97160W        W40254  20.903  28.562  26.986  0.0573  0.3045  0.0674
97161W        W40255  21.492  31.063  31.399 -0.2157  0.1535 -0.0402
97162W        W40256  17.698  31.049  31.100  0.4603 -0.3429  0.1059
97163W        W40257  20.724  28.450  29.901 -0.0727 -0.0173  0.1158
97164W        W40258  19.740  33.467  29.495  0.1020  0.0254  0.0971
97165W        W40259  19.845  31.137  29.947  0.0776 -0.2040 -0.0518
97166W        W40260  21.709  31.219  27.182  0.3107  0.2463  0.2018
97167W        W40261  20.825  27.647  29.236 -0.0309 -0.3485  0.1395
97168W        W40262  20.479  30.235  30.565  0.3215 -0.0000 -0.0113
97169W        W40263  20.409  30.810  26.380  0.3778  0.0530 -0.0370
97170W        W40264  19.678  30.385  27.889 -0.2774 -0.0879 -0.2249
97171W        W40265  21.181  32.211  30.624  0.0641 -0.0572  0.2465
97172W        W40266  21.032  30.624  27.037 -0.0188  0.4842  0.0223
97173W        W40267  19.005  32.328  29.622 -0.3388 -0.1489 -0.0863
97174W        W40268  21.625  31.031  29.541  0.2475 -0.0240 -0.1604
97175W        W40269  19.477  32.171  30.723 -0.1260 -0.0705 -0.0854
97176W        W40270  19.223  33.494  27.955  0.0574 -0.2196 -0.1649
97177W        W40271  19.784  31.102  28.150 -0.0318 -0.0183  0.0069
97178W        W40272  20.218  30.437  28.751  0.1427 -0.0165  0.2635
97179W        W40273  18.837  30.007  31.290  0.2110  0.1468 -0.1641
97180W        W40274  18.563  32.071  29.773 -0.2747 -0.0167  0.1318
97181W        W40275  21.092  28.574  28.043  0.1154 -0.2290  0.3523
97182W        W40276  18.243  30.089  30.597  0.0103 -0.3139 -0.0775
97183W        W40277  21.061  27.985  29.961  0.0702 -0.1205 -0.0883
97184W        W40278  19.602  32.289  28.771 -0.0596 -0.2303 -0.2440
97185W        W40279  21.201  32.943  28.347 -0.0620 -0.2990  0.0722
97186W        W40280  21.172  30.045  29.629 -0.0003  0.3467 -0.2667
97187W        W40281  20.748  31.678  25.017 -0.0483  0.0514 -0.1402
97188W        W40282  17.779  29.944  30.084 -0.0117 -0.1236 -0.0190
97189W        W40283  18.821  30.178  28.511  0.1408  0.3227  0.1898
97190W        W40284  19.061  31.020  30.796  0.1120 -0.1365  0.3654
97191W        W40285  17.957  30.455  29.036 -0.1059  0.0282 -0.2570
97192W        W40286  20.834  30.996  31.259  0.1418  0.1987 -0.2797
97193W        W40287  20.136  29.456  28.634  0.1028  0.1147  0.0530
97194W        W40288  20.895  28.908  29.993 -0.1453  0.1855  0.0221
97195W        W40289  19.084  30.839  29.331 -0.0563  0.2721 -0.1421
97196W        W40290  17.612  30.409  29.950  0.1322 -0.2616 -0.2750
97197W        W40291  20.400  30.768  30.548 -0.1799 -0.1391  0.1651
97198W        W40292  21.030  32.798  27.899  0.0783  0.1224 -0.0420
97199W        W40293  21.981  32.618  29.479 -0.1604  0.1757  0.1319
97200W        W40294  20.667  33.468  28.736  0.4087 -0.0588  0.0738
97201W        W40295  19.585  27.117  31.214 -0.0674 -0.1613  0.0066
97202W        W40296  20.661  30.805  28.118 -0.1173  0.0094  0.2955
97203W        W40297  18.171  31.947  30.698  0.0386 -0.0860 -0.1263
97204W        W40298  19.404  29.771  29.134  0.0514 -0.3355  0.1102
97205W        W40299  19.777  29.340  30.292  0.2119  0.4875 -0.1834
97206W        W40300  21.226  32.172  29.298 -0.1100 -0.2244 -0.3134
97207W        W40301  20.679  30.666  29.731  0.0934 -0.2829 -0.0948
97208W        W40302  18.909  31.971  30.991  0.1160  0.2166 -0.1621
97209W        W40303  19.871  30.346  30.629 -0.1099 -0.0545  0.0845
97210W        W40304  22.330  31.222  30.223 -0.0504 -0.1533 -0.0121
97211W        W40305  19.769  30.466  28.391 -0.0062 -0.2589  0.1321
97212W        W40306  20.291  29.022  28.738  0.2581 -0.0565  0.0484
97213W        W40307  20.522  32.868  29.226 -0.0941  0.3701 -0.2821
97214W        W40308  19.465  31.817  28.434  0.1638  0.0484  0.1634
97215W        W40309  19.111  30.561  27.643  0.2095 -0.0052 -0.1729
97216W        W40310  20.461  34.010  28.687 -0.3682  0.0724  0.2098
97217W        W40311  22.162  28.905  29.111  0.0754 -0.1471  0.2070
97218W        W40312  20.188  30.600  31.545  0.1296  0.0464  0.0113
97219W        W40313  20.232  31.387  29.664 -0.2328 -0.0302  0.0879
97220W        W40314  19.888  27.801  27.134 -0.3929 -0.1937 -0.0527
97221W        W40315  19.183  31.486  29.923 -0.0006 -0.1297  0.1198
97222W        W40316  20.379  28.757  30.173  0.1686  0.2561 -0.1022
97223W        W40317  21.029  29.678  27.426  0.1784 -0.0550  0.3067
97224W        W40318  20.529  31.157  30.837  0.1715  0.1036  0.1358
97225W        W40319  21.036  31.826  27.511  0.1558  0.0520  0.0820
97226W        W40320  21.365  30.016  28.492  0.1087  0.0999  0.1286
97227W        W40321  20.985  30.489  28.418 -0.0488  0.1095  0.0231
97228W        W40322  17.728  31.522  31.363 -0.4163  0.0219  0.0227
97229W        W40323  21.538  31.364  28.170  0.1835  0.3660 -0.0178
97230W        W40324  20.311  31.514  28.733  0.0229  0.0914  0.0618
97231W        W40325  20.583  29.458  27.662  0.3439  0.0125 -0.1979
97232W        W40326  20.175  31.502  29.194 -0.1133 -0.1542 -0.0956
97233W        W40327  18.000  30.595  30.315  0.0089 -0.1662  0.3366
97234W        W40328  19.831  31.397  31.743 -0.3094  0.1706 -0.1481
97235W        W40329  20.719  32.252  28.443  0.1218 -0.1137 -0.2506
97236W        W40330  19.263  28.808  30.599  0.0099  0.0008  0.1920
97237W        W40331  20.043  30.088  27.956  0.2091  0.0855 -0.1276
97238W        W40332  19.182  29.493  29.866  0.1397  0.1831  0.2492
97239W        W40333  18.531  32.342  27.839 -0.0181  0.0997  0.1427
97240W        W40334  21.254  29.513  30.280 -0.3995 -0.2801 -0.1175
97241W        W40335  20.594  30.408  30.156  0.2771  0.0224  0.0305
97242W        W40336  21.016  28.063  30.524  0.1828  0.0280  0.0237
97243W        W40337  23.166  31.816   0.199  0.0150  0.1206  0.1226
97244W        W40338  19.865  31.756  28.789  0.0459  0.0444 -0.2318
97245W        W40339  21.317  31.133  29.093  0.4825  0.0316 -0.3807
97246W        W40340  19.564  29.295  26.592 -0.1759  0.1347 -0.0945
97247W        W40341  18.957  29.471  30.823 -0.1845  0.1309  0.2013
97248W        W40342  17.680  30.264  30.567 -0.4241 -0.1848  0.2162
97249W        W40343  18.411  31.550  30.277  0.1810  0.1921  0.1425
97250W        W40344  21.125  32.685  30.788 -0.0667  0.1251 -0.3412
97251W        W40345  20.816  29.793  29.335 -0.1093 -0.0063  0.0010
97252W        W40346  20.344  32.603  30.250 -0.1529  0.2867 -0.0945
97253W        W40347  20.643  29.939  28.398  0.3855  0.4305  0.0604
97254W        W40348  20.542  33.270  28.160 -0.1063  0.3935  0.1273
97255W        W40349  20.622  31.747  27.991  0.1112  0.3122  0.0311
97256W        W40350  20.288  29.214  30.004 -0.2438 -0.1995  0.0216
97257W        W40351  20.761  33.317  29.208  0.0476  0.1315  0.0478
97258W        W40352  20.973  31.286  28.111 -0.0079 -0.2031  0.1042
97259W        W40353  21.277  30.520   0.278  0.0207 -0.2539 -0.0207
97260W        W40354  19.306  33.067  28.232 -0.0037 -0.1322 -0.1430
97261W        W40355  21.012  29.117  30.512  0.0196 -0.2921  0.1821
97262W        W40356  16.559  31.844  29.850 -0.0860 -0.0366  0.1357
97263W        W40357  19.703  28.817  29.435 -0.0230  0.1553  0.1604
97264W        W40358  18.629  30.775  29.087 -0.1012  0.1042  0.0299
97265W        W40359  22.050  30.232  29.065  0.2192 -0.2882  0.2936
97266W        W40360  21.397  30.694  27.534 -0.1929  0.0362 -0.0311
97267W        W40361  18.414  29.863  31.031 -0.4335  0.1302  0.0309
97268W        W40362  20.873  28.585  30.452  0.1723 -0.1094  0.1086
97269W        W40363  18.800  31.714  29.044 -0.0105 -0.1760 -0.1681
97270W        W40364  20.912  32.077  29.702  0.0488 -0.0100 -0.0725
97271W        W40365  20.184  30.238  29.655  0.0471 -0.0577 -0.0935
97272W        W40366  20.814  32.471  30.380 -0.1841 -0.1563 -0.2559
97273W        W40367  18.592  30.313  30.948  0.1389  0.0973 -0.1194
97274W        W40368  19.270  29.796  28.651 -0.1941  0.0909 -0.2268
97275W        W40369  21.369  31.647  30.537 -0.2681  0.0229 -0.1593
97276W        W40370  19.827  30.111  28.810  0.0212  0.4175  0.3228
97277W        W40371  19.033  31.485  31.530 -0.2276 -0.3188  0.0717
97278W        W40372  21.635  31.544  30.069  0.0189  0.1266  0.0007
97279W        W40373  19.773  29.483  28.001 -0.0486  0.0624  0.2200
97280W        W40374  19.142  30.939  29.881 -0.1379 -0.0724  0.1128
97281W        W40375  19.702  30.227  31.695 -0.1332 -0.0341 -0.0855
97282W        W40376  20.794  31.741  29.314 -0.0615  0.0638  0.1799
97283W        W40377  18.398  29.900  29.369 -0.3737 -0.0842  0.0686
97284W        W40378  19.508  30.232  29.326 -0.0589 -0.1086  0.2174
97285W        W40379  19.359  31.194  29.021 -0.0253  0.0605  0.1749
97286W        W40380  23.204  31.201  28.781  0.0105 -0.0395 -0.3577
97287W        W40381  20.231  29.504  31.123  0.2904 -0.0543  0.0554
97288W        W40382  19.161  32.375   0.167 -0.1803 -0.0408  0.1080
97289W        W40383  20.254  28.516  31.271  0.0723  0.0748  0.1719
97290W        W40384  22.833  34.615  27.318  0.2153  0.1140 -0.0997
97291W        W40385  20.092  30.311  30.152  0.0264  0.0517  0.1274
97292W        W40386  20.586  30.761  27.292  0.1115 -0.2196  0.0003
97293W        W40387  17.790  30.930  29.939 -0.0512  0.3477 -0.2134
97294W        W40388  20.776  31.312  27.669  0.1979 -0.1008 -0.3225
97295W        W40389  21.659  29.459  29.734 -0.1806 -0.2248 -0.0266
97296W        W40390  19.421  31.824  29.712 -0.0856 -0.2839 -0.0115
97297W        W40391  20.103  31.384  27.551 -0.1632 -0.0272 -0.1062
97298W        W40392  18.406  31.701  29.393  0.2265  0.3002 -0.0922
97299W        W40393  21.882  30.727  26.335  0.1356  0.1326 -0.2433
97300W        W40394  21.194  31.371  26.073  0.2114 -0.4411  0.3462
97301W        W40395  20.364  30.121  29.170 -0.2651 -0.0126  0.1578
97302W        W40396  20.677  29.220  30.986 -0.0104  0.1299  0.1764
97303W        W40397  23.244  31.479  27.847  0.0483 -0.1145 -0.1306
97304W        W40398  19.772  28.587  30.773  0.0381 -0.2027 -0.1360
97305W        W40399  19.863  26.007  30.290  0.1647  0.1495 -0.0501
97306W        W40400  22.378  32.284  27.600 -0.2650  0.3690  0.0344
97307W        W40401  17.879  29.904  30.950 -0.2943 -0.1274 -0.0282
97308W        W40402  20.552  32.251   0.523  0.2357 -0.0494  0.0881
97309W        W40403  18.117  30.696  30.811 -0.1678 -0.0653 -0.0773
97310W        W40404  19.762  29.208  29.139  0.0785  0.1107 -0.0724
97311W        W40405  18.631  29.841  27.453  0.0612  0.1008 -0.1429
97312W        W40406  20.104  32.209  28.747 -0.0354 -0.1614  0.1155
97313W        W40407  20.436  33.394  29.551  0.1658 -0.1379  0.0134
97314W        W40408  19.669  31.530  29.344  0.1565 -0.2458  0.0063
97315W        W40409  21.599  31.739  28.523  0.2658  0.1487 -0.0576
97316W        W40410  19.984  31.238  30.482  0.0256 -0.1567 -0.0871
97317W        W40411  20.888  30.546  27.735 -0.2473 -0.0353 -0.1557
97318W        W40412  21.517  29.760  27.396  0.1854  0.0699  0.1708
97319W        W40413  20.053  33.096  29.595 -0.1475 -0.0295 -0.2198
97320W        W40414  20.665  27.858  30.777  0.0109  0.2298 -0.1670
97321W        W40415  21.699  31.816  27.918 -0.0674  0.1390 -0.0542
97322W        W40416  20.748  30.646  30.901 -0.2420  0.0305  0.2238
97323W        W40417  20.572  32.099  30.170  0.3680 -0.0997 -0.0749
97324W        W40418  20.405  31.188  30.256 -0.0287 -0.1388  0.0879
97325W        W40419  19.031  31.378  30.494  0.1108  0.2823  0.1821
97326W        W40420  18.865  28.439  30.949 -0.1981  0.1204  0.1525
97327W        W40421  21.136  33.686   0.052 -0.1332  0.1497  0.0878
97328W        W40422  21.105  29.456  29.745  0.0499 -0.4296 -0.1769
97329W        W40423  21.938  28.112  31.147 -0.1236 -0.0360  0.1345
97330W        W40424  22.003  31.335  28.042 -0.2029 -0.2237  0.2583
97331W        W40425  21.083  29.917  28.886  0.1226  0.2845 -0.3348
97332W        W40426  18.677  29.721  29.776 -0.3334  0.1769 -0.0518
97333W        W40427  21.240  31.390  31.022  0.0318  0.0884  0.0739
97334W        W40428  20.442  30.415  28.330  0.4188 -0.0501 -0.0069
97335W        W40429  21.444  31.012  31.962 -0.1435 -0.0859 -0.0260
97336W        W40430  20.566  31.694  26.969  0.2187 -0.1261 -0.0759
97337W        W40431  21.218  30.908  28.384  0.4743  0.2694 -0.0047
97338W        W40432  21.042  31.915  28.652  0.2072  0.0425  0.2138
97339W        W40433  17.615  29.802  29.644 -0.0066  0.0489  0.0352
97340W        W40434  19.063  32.762  30.413 -0.3149 -0.0107  0.0789
97341W        W40435  19.283  29.610  28.135 -0.2529  0.2846 -0.1370
97342W        W40436  20.372  30.959  27.704 -0.2951  0.3694  0.0956
97343W        W40437  21.659  32.427  30.105 -0.0534 -0.1920 -0.0924
97344W        W40438  21.562  30.323  31.425  0.0713  0.1488 -0.0444
97345W        W40439  19.870  28.969  28.156 -0.3068 -0.1720  0.0562
97346W        W40440  20.400  31.554  30.621  0.0143 -0.1656 -0.2632
97347W        W40441  18.255  33.057  29.799  0.1109 -0.1398  0.0467
97348W        W40442  19.947  28.869  29.885 -0.0676 -0.4451  0.1498
97349W        W40443  19.481  33.656  29.123  0.2953  0.2130  0.2136
97350W        W40444  20.074  31.461  30.987  0.2589 -0.1101 -0.0455
97351W        W40445  19.323  31.674  28.911  0.2106  0.1284 -0.0442
97352W        W40446  20.761  29.394  30.162  0.1102 -0.1568  0.1491
97353W        W40447  21.656  31.045  28.630 -0.0825  0.0985  0.0503
97354W        W40448  19.740  31.992  29.161  0.2966  0.0835  0.0899
97355W        W40449  21.150  30.889  30.642  0.2059  0.0665  0.1371
97356W        W40450  22.137  31.037  28.884  0.1961  0.2019 -0.2730
97357W        W40451  19.835  30.736  28.765  0.1653  0.0458 -0.2310
97358W        W40452  21.155  31.862  31.298  0.3344  0.2158 -0.1996
97359W        W40453  22.476  30.764  26.378 -0.1167  0.1898  0.1538
97360W        W40454  19.665  32.686  28.444 -0.0955  0.1644  0.3142
97361W        W40455  18.151  29.435  31.127 -0.0141 -0.1021 -0.1095
97362W        W40456  20.897  31.318  30.589  0.0427  0.0448 -0.0391
97363W        W40457  20.492  29.228  30.538 -0.3176  0.2761 -0.1332
97364W        W40458  20.578  28.774  28.296  0.0348 -0.1458 -0.1158
97365W        W40459  20.835  32.215  27.887  0.1379  0.0110 -0.0343
97366W        W40460  18.140  30.288  31.115 -0.1327 -0.0519 -0.2635
97367W        W40461  19.329  30.209  30.534  0.1289  0.0039  0.0433
97368W        W40462  20.015  33.049  28.330  0.2324  0.1052 -0.4115
97369W        W40463  22.568  31.873  28.283  0.2899  0.1098  0.1200
97370W        W40464  21.224  31.390  28.622  0.1531  0.2848 -0.0792
97371W        W40465  21.495  32.476  29.618 -0.1676  0.1119  0.2633
97372W        W40466  19.472  29.448  29.463  0.1628  0.1824  0.3947
97373W        W40467  18.297  32.098  30.209 -0.0559  0.0821  0.3971
97374W        W40468  19.560  32.886  26.419  0.0149 -0.1330 -0.1971
97375W        W40469  21.215  31.843  28.131  0.7090 -0.2507  0.0960
97376W        W40470  19.051  32.170  28.779 -0.0338 -0.0324  0.0025
97377W        W40471  20.142  32.591  30.784  0.1155 -0.1591  0.0399
97378W        W40472  21.027  29.024  28.205 -0.0341 -0.2150  0.0657
97379W        W40473  21.794  29.932  28.717  0.0294 -0.0894  0.2458
97380W        W40474  22.642  30.421  27.924  0.0901 -0.1740 -0.0987
97381W        W40475  20.034  31.871  30.512 -0.2303  0.0933 -0.1152
97382W        W40476  19.631  30.166  29.954 -0.1289 -0.0567  0.1644
97383W        W40477  21.106  29.802  26.933  0.3467 -0.3564  0.0941
97384W        W40478  19.081  30.151  30.078 -0.2111 -0.2254  0.1537
97385W        W40479  20.298  31.061  31.253 -0.3618  0.2414  0.2738
97386W        W40480  18.188  31.783  31.637  0.0418  0.0385 -0.0419
97387W        W40481  21.331  33.208  27.954  0.0694  0.1886 -0.0907
97388W        W40482  20.115  30.579  28.032 -0.1815 -0.0509 -0.1974
97389W        W40483  19.254  32.127  29.246 -0.0994  0.1285 -0.1837
97390W        W40484  21.082  27.900  31.453  0.4632 -0.0826 -0.0293
97391W        W40485  19.189  30.870  26.833  0.0259 -0.1394  0.0077
97392W        W40486  20.231  30.838  29.455 -0.1132  0.2151 -0.0084
97393W        W40487  19.823  33.016  29.153 -0.4180 -0.1565  0.1000
97394W        W40488  20.159  33.625  29.228  0.0236  0.2908 -0.0527
97395W        W40489  19.145  32.705  28.606  0.2085  0.0007 -0.3803
97396W        W40490  17.873  30.000  26.485 -0.3233  0.1037  0.0564
97397W        W40491  21.916  30.473  28.619  0.1657  0.0369 -0.1310
97398W        W40492  19.388  32.162  31.229  0.0497  0.1440 -0.0809
97399W        W40493  22.017  28.726  30.550 -0.2181 -0.1442  0.1468
97400W        W40494  19.922  30.482  29.225 -0.3497 -0.2445  0.0200
97401W        W40495  21.946  31.024  27.587 -0.1111 -0.0690 -0.1597
97402W        W40496  20.295  30.803  29.997 -0.1012 -0.0195 -0.1526
97403W        W40497  19.404  29.504  31.393 -0.0287 -0.1504 -0.0492
97404W        W40498  19.436  29.143  27.890 -0.0465 -0.1879 -0.1957
97405W        W40499  21.085  31.350  29.513 -0.1163 -0.0397 -0.2700
97406W        W40500  22.215  30.251  26.372 -0.3930  0.0640  0.2720
97407W        W40501  21.250  32.000  31.762 -0.1092 -0.0178  0.0091
97408W        W40502  19.162  30.109  28.131  0.2856  0.0438  0.0494
97409W        W40503  20.919  28.974  28.749  0.0232  0.4147 -0.0632
97410W        W40504  19.377  30.895  28.497  0.0217 -0.1053 -0.2945
97411W        W40505  19.440  31.118  29.563 -0.1443 -0.2403  0.1093
97412W        W40506  19.542  31.621  30.696  0.0524  0.0246 -0.3014
97413W        W40507  18.938  30.538  28.123 -0.1275  0.1050  0.0548
97414W        W40508  22.561  32.089  27.100 -0.0989 -0.1598  0.0804
97415W        W40509  20.678  31.105  28.655  0.0821 -0.0974  0.0648
97416W        W40510  20.490  32.588  28.806 -0.1774  0.2813  0.0798
97417W        W40511  21.604  30.631  26.776 -0.0309  0.3771 -0.1400
97418W        W40512  21.122  32.513  30.000  0.0132  0.1604 -0.1125
97419W        W40513  18.160  30.247  29.945  0.2237 -0.1395 -0.2048
97420W        W40514  22.106  31.570  29.751 -0.5004  0.2715  0.0131
97421W        W40515  22.063  30.928  28.363  0.3026  0.1865 -0.2635
97422W        W40516  19.649  29.494  28.726  0.0559 -0.0544  0.2463
97423W        W40517  19.001  30.629  28.786  0.0343  0.1463  0.0793
97424W        W40518  19.794  31.185  28.646  0.0931 -0.1233 -0.2427
97425W        W40519  20.673  30.130  29.689 -0.2101  0.2482 -0.1992
97426W        W40520  21.915  31.873  28.903 -0.1217  0.0191 -0.1426
97427W        W40521  20.937  32.611  26.546 -0.0962  0.0863 -0.3791
97428W        W40522  20.424  30.330  31.164  0.1124 -0.0712  0.0243
97429W        W40523  20.482  32.194  30.670  0.1452  0.1010 -0.0053
97430W        W40524  18.680  32.085  30.481 -0.2203  0.0337 -0.2440
97431W        W40525  20.435  30.443  27.647 -0.0891  0.2515 -0.0626
97432W        W40526  20.175  32.210  29.893  0.0364 -0.2144 -0.0048
97433W        W40527  20.099  31.811  27.873  0.2069 -0.0795 -0.0639
97434W        W40528  21.224  33.377  28.681 -0.0690 -0.1606  0.0285
97435W        W40529  21.409  32.960  29.811 -0.2078 -0.1697  0.2106
97436W        W40530  19.841  29.852  29.491  0.0699 -0.1492 -0.0162
97437W        W40531  23.536  31.626  29.942  0.2367 -0.0248 -0.1302
97438W        W40532  19.876  29.716  29.971 -0.2956  0.0720 -0.0399
97439W        W40533  22.531  27.228  28.392 -0.0022 -0.1465 -0.2965
97440W        W40534  22.427  28.661  29.985 -0.1511 -0.0531 -0.1737
97441W        W40535  18.237  31.710  29.857  0.3327  0.0236 -0.0170
97442W        W40536  18.989  29.655  29.408 -0.0363 -0.4278  0.1574
97443W        W40537  20.227  30.937  28.462  0.0568  0.1426  0.1641
97444W        W40538  19.023  31.309  29.483  0.1008 -0.2121  0.0186
97445W        W40539  19.883  30.762  30.345 -0.3156  0.0016  0.0897
97446W        W40540  19.877  30.332  31.152  0.2534  0.0323 -0.1810
97447W        W40541  18.902  31.765  28.511  0.2277 -0.0744  0.0238
97448W        W40542  18.456  29.316  29.542 -0.0190 -0.2212  0.0503
97449W        W40543  20.649  32.242  26.847  0.0263 -0.0144  0.0156
97450W        W40544  18.383  27.651  30.848  0.1157 -0.1235 -0.0926
97451W        W40545  17.486  28.190  30.055  0.1043  0.0608 -0.0381
97452W        W40546  21.709  31.389  28.956  0.1361 -0.0861 -0.1188
97453W        W40547  22.774  31.786  27.783 -0.1919  0.1504  0.0132
97454W        W40548  20.072  29.741  29.059  0.1548  0.3060  0.1178
97455W        W40549  19.891  33.992  31.031 -0.1099 -0.0854 -0.0663
97456W        W40550  18.100  32.176  27.647 -0.0278  0.1930  0.0026
97457W        W40551  19.298  31.492   0.005  0.0641 -0.0318  0.0163
97458W        W40552  20.177  28.981  31.110  0.4935 -0.1927 -0.0221
97459W        W40553  18.340  29.010  27.121  0.1401  0.3147 -0.1071
97460W        W40554  21.370  31.770  29.663 -0.0416 -0.1509 -0.3208
97461W        W40555  21.678  32.555  29.077  0.1002  0.4355 -0.0658
97462W        W40556  21.991  32.513  26.070  0.1574 -0.3941 -0.4657
97463W        W40557  20.251  32.259  31.351  0.1196 -0.0436  0.1599
97464W        W40558  19.311  32.340  30.243 -0.1896 -0.0599  0.3534
97465W        W40559  19.538  29.113  29.838 -0.0322  0.3079 -0.1826
97466W        W40560  20.544  29.690  28.895 -0.0360 -0.3750 -0.0341
97467W        W40561  20.239  32.037  29.195  0.1489 -0.6144 -0.0806
97468W        W40562  22.290  31.765  27.791  0.0981 -0.0124  0.1084
97469W        W40563  20.196  27.842  30.524 -0.3366 -0.0561  0.1736
97470W        W40564  21.348  31.716  29.021 -0.1456 -0.0288 -0.2931
97471W        W40565  19.541  27.949  31.323 -0.2765 -0.0601  0.0573
97472W        W40566  17.988  30.741  31.385  0.0133  0.0085 -0.0972
97473W        W40567  21.193  31.938  30.185 -0.1081 -0.3147  0.1511
97474W        W40568  19.265  29.179  29.030  0.0822  0.0238 -0.0556
97475W        W40569  20.344  29.769  29.812 -0.0711 -0.0260  0.3309
97476W        W40570  22.094  31.399  28.622 -0.0235 -0.1390  0.1960
97477W        W40571  18.646  31.459  29.741 -0.4322 -0.1472 -0.3515
97478W        W40572  19.308  30.399  28.530  0.0160  0.1343  0.3234
97479W        W40573  18.667  31.096  30.071 -0.4297 -0.0106 -0.1217
97480W        W40574  20.478  31.878  29.725  0.0682 -0.3151 -0.4074
97481W        W40575  22.036  31.853  31.769  0.1501  0.1768  0.0927
97482W        W40576  20.578  31.937  28.832  0.0878  0.1611 -0.1445
97483W        W40577  22.268  31.198  26.532  0.2770  0.5207  0.1678
97484W        W40578  18.803  32.507  31.790  0.1538  0.1922 -0.1440
97485W        W40579  23.150  32.246   0.440  0.1705  0.0021 -0.0710
97486W        W40580  20.211  31.643  30.091  0.0917 -0.0679  0.0111
97487W        W40581  21.152  31.321  30.146  0.1365  0.2637  0.0813
97488W        W40582  18.523  29.552  30.608  0.0543 -0.1664  0.1099
97489W        W40583  19.937  31.793  29.669  0.2977 -0.1709  0.0398
97490W        W40584  20.221  32.540  28.335  0.0388 -0.0653 -0.2100
97491W        W40585  21.794  29.025  30.180  0.2360  0.0774 -0.2308
97492W        W40586  18.950  29.133  28.093 -0.0284  0.1276  0.0932
97493W        W40587  19.924  28.667  27.288  0.0779 -0.1938  0.0615
97494W        W40588  19.195  32.707  29.921 -0.0667  0.0900  0.2966
97495W        W40589  20.720  31.558  30.168 -0.2110 -0.1584 -0.1335
97496W        W40590  20.951  30.388  30.519  0.2701  0.0922  0.3173
97497W        W40591  19.477  30.554  30.194 -0.5039  0.1863 -0.0397
97498W        W40592  19.800  31.001  29.245 -0.0280  0.4273 -0.0183
97499W        W40593  19.572  32.532   0.807  0.0315  0.1092  0.0500
97500W        W40594  19.100  31.493  30.983 -0.1189 -0.3561 -0.2550
97501W        W40595  18.473  32.165  31.033  0.0971  0.4059  0.0239
97502W        W40596  20.508  30.314  31.975 -0.1212  0.0914  0.2853
97503W        W40597  19.271  30.472  29.727  0.0789  0.1362  0.0522
97504W        W40598  21.651  29.032  30.995 -0.0332 -0.0235 -0.1339
97505W        W40599  20.291  33.411  30.367  0.2547 -0.2650  0.0988
97506W        W40600  20.288  31.649  31.883 -0.0718  0.2156 -0.1951
97507W        W40601  19.284  29.176  31.052  0.1904 -0.2336 -0.0850
97508W        W40602  20.315  31.917  31.010  0.0842  0.2204 -0.2846
97509W        W40603  19.303  31.111  31.279 -0.1944 -0.0448 -0.2812
97510W        W40604  20.746  30.529  31.520 -0.1645 -0.1172  0.1943
97511W        W40605  18.950  31.766  29.582  0.0995 -0.2223 -0.3692
97512W        W40606  19.813  31.078  31.338  0.1048 -0.1918  0.1823
97513W        W40607  22.029  31.222   0.758 -0.3611 -0.1952 -0.1108
97514W        W40608  19.072  28.628   0.813 -0.1784 -0.0526 -0.1067
97515W        W40609  19.520  27.890  31.958 -0.1812  0.1907  0.0054
97516W        W40610  19.423  27.465   0.189  0.1194 -0.1299 -0.4379
97517W        W40611  18.122  31.755   0.225  0.0120  0.0214  0.0515
97518W        W40612  19.619  29.537   0.627  0.0658 -0.2061  0.0165
97519W        W40613  20.174  29.967  31.381  0.1617 -0.1404 -0.2127
97520W        W40614  19.776  29.271  31.197 -0.2212  0.0990 -0.5423
97521W        W40615  19.701  29.823  31.055 -0.3205 -0.0661 -0.4269
97522W        W40616  19.528  31.605  31.223  0.1076  0.1126 -0.0392
97523W        W40617  19.390  32.460  31.658 -0.2504 -0.2974  0.3214
97524W        W40618  19.092  30.494  31.024  0.1861  0.0651 -0.0090
97525W        W40619  19.816  31.934  30.995 -0.0037 -0.1418  0.0601
97526W        W40620  19.519  32.916  30.234  0.0065  0.0505 -0.2716
97527W        W40621  19.861  31.114   0.235  0.1675  0.0555  0.0718
97528W        W40622  21.761  31.478  31.387  0.0994 -0.1322 -0.1656
97529W        W40623  19.708  29.872   0.180  0.4904  0.2285  0.0210
97530W        W40624  18.988  29.184  31.885  0.0812  0.0709 -0.0498
97531W        W40625  18.478  30.856   1.597  0.2307  0.1358  0.2296
97532W        W40626  19.588  34.454   0.736 -0.1002  0.0956  0.0009
97533W        W40627  20.834  31.843  30.675 -0.0016  0.4286 -0.3080
97534W        W40628  21.051  30.532   0.906  0.1395  0.2386 -0.0589
97535W        W40629  21.187  30.311  30.970 -0.0253  0.2516 -0.1299
97536W        W40630  20.130  31.186   0.780  0.0927  0.0498  0.2220
97537W        W40631  18.385  30.976  31.648  0.0506 -0.1662  0.1988
97538W        W40632  18.762  28.887   0.386 -0.1722  0.2649 -0.1465
97539W        W40633  19.808  32.274  31.517 -0.1968 -0.3282  0.0948
97540W        W40634  19.457  29.564  30.653  0.0953  0.0772 -0.0674
97541W        W40635  18.552  29.822   0.029  0.2883 -0.1027 -0.1417
97542W        W40636  19.224  30.017   0.335  0.1303 -0.2015  0.1236
97543W        W40637  19.886  32.583  29.998 -0.0998  0.3215 -0.1064
97544W        W40638  21.594  31.363   0.330 -0.3778  0.1613  0.1137
97545W        W40639  18.523  30.566   0.468 -0.1371 -0.1394  0.0907
97546W        W40640  19.988  31.739  31.452 -0.0601 -0.0113 -0.1890
97547W        W40641  21.872  29.408  31.218  0.0227  0.0032  0.2138
97548W        W40642  19.431  30.685  30.672  0.1509  0.4170  0.1158
97549W        W40643  18.925  31.860  31.861  0.1213 -0.3161 -0.0255
97550W        W40644  19.433  31.911  31.665 -0.0351  0.0394  0.1494
97551W        W40645  20.751  29.678  31.247  0.0070  0.1260 -0.0978
97552W        W40646  22.065  32.374  31.546 -0.0808 -0.2385  0.2597
97553W        W40647  19.059  32.847  31.578 -0.0469 -0.1809  0.0772
97554W        W40648  19.202  31.869   0.312 -0.2338 -0.2095 -0.0411
97555W        W40649  18.914  29.601  31.571  0.0752 -0.0799  0.1351
97556W        W40650  18.717  29.815   0.515  0.0822 -0.1498 -0.0382
97557W        W40651  19.884  32.102   0.056  0.1062  0.3841 -0.1483
97558W        W40652  16.634  30.893  31.441  0.1472 -0.1674  0.2170
97559W        W40653  19.228  27.617  31.105 -0.1407 -0.1520  0.2346
97560W        W40654  20.826  30.925  31.799  0.1106 -0.1203  0.2538
97561W        W40655  19.208  32.607  31.184  0.1402 -0.2234 -0.0472
97562W        W40656  22.687  30.698  30.917  0.1606 -0.0540 -0.4034
97563W        W40657  18.519  33.820  16.045  0.1039  0.1996  0.0175
97564W        W40658  21.085  32.870  15.591  0.1885 -0.1154  0.1955
97565W        W40659  20.388  32.917  17.608 -0.0709 -0.2792  0.1309
97566W        W40660  18.954  33.361  17.400 -0.1095  0.0484  0.2454
97567W        W40661  17.247  31.468  17.268  0.2141 -0.1262  0.0366
97568W        W40662  20.824  34.052  16.237 -0.0379 -0.1673  0.1357
97569W        W40663  18.561  34.624  16.882 -0.1500 -0.4163  0.2018
97570W        W40664  20.372  32.429  17.404 -0.2767 -0.1724  0.3287
97571W        W40665  18.127  32.869  16.340 -0.1053  0.1352  0.0186
97572W        W40666  21.431  32.851  17.973 -0.0124 -0.1894  0.1473
97573W        W40667  18.823   0.265  17.405  0.0834  0.1879  0.0122
97574W        W40668  17.154  33.518  18.719 -0.4644  0.0169  0.1904
97575W        W40669  20.452  33.770  17.074 -0.1340  0.3068 -0.0624
97576W        W40670  19.911  33.270  18.814 -0.2465  0.0009  0.3152
97577W        W40671  19.977  32.213  19.013 -0.0434 -0.0070  0.2029
97578W        W40672  17.946  33.976  15.729  0.1699  0.2971  0.3378
97579W        W40673  18.244  34.079  18.515 -0.3880  0.0185  0.1097
97580W        W40674  19.126  33.852  18.906 -0.1961 -0.1326  0.2821
97581W        W40675  20.137  33.355  17.868  0.0252 -0.2453 -0.2051
97582W        W40676  21.429  33.970  17.893 -0.0956 -0.0259  0.2777
97583W        W40677  19.990  33.445  19.659 -0.0002  0.1571  0.0253
97584W        W40678  20.725  32.962  19.113 -0.2597  0.0836 -0.1316
97585W        W40679  20.446  34.324  18.206  0.2198 -0.0552 -0.0513
97586W        W40680  22.822  33.191  19.148 -0.1097  0.0968  0.1864
97587W        W40681  21.326  34.133  16.742 -0.2764 -0.0908  0.0243
97588W        W40682  18.493  33.116  17.212 -0.1040 -0.3645  0.0939
97589W        W40683  19.284  33.587  16.204  0.2983  0.0021 -0.1424
97590W        W40684  18.252  33.221  18.051 -0.0568  0.0251  0.1865
97591W        W40685  20.154  32.033  19.633  0.0988 -0.3336  0.1924
97592W        W40686  20.630  34.280  15.848 -0.2299  0.1323  0.1702
97593W        W40687  21.891  32.716  17.817 -0.1804 -0.0307 -0.3668
97594W        W40688  17.647   0.162  18.259  0.3579  0.0953 -0.1084
97595W        W40689  18.184  33.683  17.809  0.1567 -0.0411  0.0296
97596W        W40690  19.028  34.687  19.362  0.0643  0.1048 -0.1700
97597W        W40691  18.284  34.131  19.042  0.0498 -0.1460  0.0203
97598W        W40692  18.105  31.779  16.858 -0.1640 -0.1289 -0.1107
97599W        W40693  22.247  32.620  17.413  0.2447  0.0636 -0.2033
97600W        W40694  21.225  32.663  17.453 -0.1289 -0.2199 -0.1608
97601W        W40695  20.979  32.308  17.183  0.3738  0.2599  0.1753
97602W        W40696  21.010   0.490  16.280  0.0405 -0.0580 -0.1547
97603W        W40697  19.190  32.851  19.339 -0.3125 -0.1781 -0.1262
97604W        W40698  16.484  32.637  18.449 -0.0231  0.1109 -0.0228
97605W        W40699  20.049  32.596  16.995  0.2051  0.1895 -0.0230
97606W        W40700  18.093  31.760  18.826 -0.1242 -0.2852 -0.1089
97607W        W40701  21.283  31.225  18.218 -0.1626  0.0284 -0.2906
97608W        W40702  21.316  32.771  16.359 -0.0180 -0.2969  0.1865
97609W        W40703  17.593  34.642  19.284 -0.0662 -0.2035  0.2311
97610W        W40704  19.120  33.768  16.683 -0.0022  0.3831 -0.1244
97611W        W40705  18.236  32.240  18.960  0.0216 -0.2855 -0.2039
97612W        W40706  18.134  33.532  18.464 -0.0392  0.2413  0.2888
97613W        W40707  20.318  33.864  19.608 -0.3768 -0.0943  0.0897
97614W        W40708  17.682  32.535  17.100  0.0243  0.0772 -0.2653
97615W        W40709  19.544  32.974  18.512 -0.0201  0.0681  0.1197
97616W        W40710  19.692  33.697  16.662  0.0840  0.0131  0.3482
97617W        W40711  21.434  31.694  18.513 -0.1684  0.0091  0.1654
97618W        W40712  20.164  31.256  19.455  0.1813 -0.0317 -0.0782
97619W        W40713  18.511  33.695  16.592 -0.0120 -0.0080  0.3043
97620W        W40714  18.631  32.947  16.201  0.0860  0.1439 -0.4061
97621W        W40715  22.011  34.137  18.357  0.2024 -0.0285 -0.0561
97622W        W40716  20.643  32.894  18.106 -0.3891  0.1416 -0.0330
97623W        W40717  18.490  32.616  16.637  0.0525 -0.1610  0.1853
97624W        W40718  18.331  33.976  17.051 -0.2289 -0.3453  0.2099
97625W        W40719  22.037  31.531  17.805 -0.1493  0.2159 -0.0596
97626W        W40720  17.622  34.534  20.103  0.3040  0.1241  0.1540
97627W        W40721  20.293  32.694  18.973 -0.1212 -0.0164  0.1343
97628W        W40722  18.149  33.520  15.737  0.0023 -0.0963 -0.4000
97629W        W40723  20.367  33.019  17.063 -0.2103 -0.3802 -0.1976
97630W        W40724  20.883  32.866  16.177  0.1192 -0.1032  0.0968
97631W        W40725  20.153  32.438  16.387 -0.0811  0.1658  0.1612
97632W        W40726  21.750  33.739  16.138  0.0939 -0.0742 -0.0869
97633W        W40727  19.581  33.584  15.810  0.2685 -0.0157 -0.1954
97634W        W40728  19.663  31.510  19.039  0.1420  0.1287  0.0830
97635W        W40729  18.624  32.540  17.112 -0.0762  0.0834 -0.2092
97636W        W40730  19.299  33.331  18.218 -0.0373  0.2446  0.1311
97637W        W40731  21.650  31.848  18.107 -0.1262 -0.2544 -0.1271
97638W        W40732  18.059  32.959  18.399 -0.0960  0.1176  0.2196
97639W        W40733  20.689  32.342  18.163  0.1158  0.0370 -0.1552
97640W        W40734  21.118  33.279  20.236 -0.1644 -0.1398 -0.0710
97641W        W40735  21.659  33.634  16.944 -0.3403 -0.4955  0.4436
97642W        W40736  20.598  34.084  18.594  0.1490 -0.0885  0.1379
97643W        W40737  19.145  34.404  16.157 -0.1180  0.0828 -0.2858
97644W        W40738  21.074  33.556  19.668 -0.1090 -0.2315 -0.1507
97645W        W40739  20.282  31.748  20.382 -0.0097  0.0498  0.1020
97646W        W40740  20.700  33.590  16.031 -0.2830 -0.2882 -0.0006
97647W        W40741  18.513  31.540  19.020  0.0670  0.0468  0.4249
97648W        W40742  21.717  32.441  17.394  0.1045  0.2110  0.2573
97649W        W40743  18.407  34.191  16.483 -0.2934 -0.0028 -0.1159
97650W        W40744  17.882  34.472  17.331 -0.1091 -0.0217  0.1510
97651W        W40745  19.751  32.594  16.640 -0.0568 -0.1001 -0.3055
97652W        W40746  18.421  33.621  18.872 -0.0015  0.0924  0.2137
97653W        W40747  19.389  33.467  18.691 -0.0840 -0.0846  0.1892
97654W        W40748  21.177   0.723  19.304 -0.3222  0.0661  0.2537
97655W        W40749  20.420  32.698  16.112  0.0528  0.0340  0.3099
97656W        W40750  19.907   0.056  19.963  0.3537  0.0933  0.3509
97657W        W40751  17.831  33.438  16.568  0.1753 -0.5302  0.0278
97658W        W40752  21.951  32.057  17.741 -0.2150 -0.3551 -0.0209
97659W        W40753  20.249  33.647  18.505  0.0058  0.0448  0.0296
97660W        W40754  18.617  33.276  15.803 -0.2615  0.0287  0.1109
97661W        W40755  19.037  33.071  18.536  0.2138 -0.0850 -0.2329
97662W        W40756  18.991  33.827  17.205  0.0237 -0.1104 -0.1202
97663W        W40757  18.604  32.152  16.535 -0.0673  0.1005  0.2642
97664W        W40758  19.077  34.251  17.487 -0.0554  0.2351 -0.1381
97665W        W40759  18.826  33.277  18.134  0.3283  0.0645 -0.1304
97666W        W40760  19.265  32.619  18.184 -0.0022 -0.0431  0.0029
97667W        W40761  19.042  33.325  19.016  0.2267 -0.1719 -0.0202
97668W        W40762  18.988  32.381  19.175  0.0572  0.1401 -0.2382
97669W        W40763  21.231  32.156  16.242 -0.1052 -0.2073  0.2096
97670W        W40764  19.759  33.035  17.090 -0.0591 -0.0585 -0.0043
97671W        W40765  22.818  33.276  17.604 -0.3408  0.0253  0.0095
97672W        W40766  20.878  34.681  16.068 -0.0108 -0.4129 -0.2859
97673W        W40767  21.242  32.938  18.963  0.0500  0.0312 -0.3040
97674W        W40768  19.372  32.568  18.710 -0.1940  0.3007 -0.1608
97675W        W40769  19.547  32.718  20.245  0.0690  0.2438  0.0139
97676W        W40770  18.490  33.309  19.717  0.0777  0.0661 -0.0039
97677W        W40771  19.325  32.735  16.841 -0.2928 -0.4245  0.1835
97678W        W40772  18.503  32.523  17.726 -0.0182 -0.0017 -0.0565
97679W        W40773  20.642  34.383  19.497  0.0537  0.1355 -0.1532
97680W        W40774  21.546  33.358  17.968  0.0138  0.3774  0.1394
97681W        W40775  18.735  32.739  18.167 -0.0775  0.0255  0.1960
97682W        W40776  20.890  33.817  16.706  0.2380 -0.2785 -0.0145
97683W        W40777  17.787  33.350  18.138  0.1056  0.0850 -0.0517
97684W        W40778  21.485  32.359  17.877 -0.2509  0.0713 -0.0506
97685W        W40779  19.479  33.018  18.994  0.0030  0.3513 -0.0200
97686W        W40780  20.180  32.521  19.422  0.1614  0.2272  0.0259
97687W        W40781  18.979  34.496  18.786  0.4066 -0.1043  0.1904
97688W        W40782  17.989  33.185  18.912 -0.0859 -0.0504 -0.1766
97689W        W40783  21.434  34.098  16.205 -0.0624 -0.2819 -0.1379
97690W        W40784  22.068  34.210  19.401 -0.0819 -0.2614 -0.0009
97691W        W40785  21.902  33.192  17.585  0.1925 -0.3415  0.0448
97692W        W40786  19.751  34.033  16.046 -0.2062  0.0784  0.0981
97693W        W40787  18.766  34.164  16.867  0.1307 -0.0847  0.0663
97694W        W40788  21.310  33.682  19.108  0.0375  0.7239 -0.2064
97695W        W40789  18.827  33.450  16.318  0.2075 -0.0119  0.0624
97696W        W40790  21.700  32.761  18.420  0.5067 -0.1708 -0.0259
97697W        W40791  22.460  32.932  17.737 -0.2126  0.4030  0.0787
97698W        W40792  16.872  33.358  18.018  0.1078  0.0772  0.1827
97699W        W40793  17.616  33.609  15.930 -0.4099 -0.1821 -0.0900
97700W        W40794  19.539  34.544  15.846  0.1068 -0.0236  0.3148
97701W        W40795  20.107  34.073  16.478  0.2479 -0.2086 -0.0106
97702W        W40796  21.847   0.286  19.166 -0.0127 -0.1737 -0.0263
97703W        W40797  19.149  32.977  17.905 -0.2589 -0.1103  0.2045
97704W        W40798  19.351  34.079  16.974  0.0889  0.3655 -0.2839
97705W        W40799  22.798  33.824  18.182 -0.0453  0.1519 -0.0942
97706W        W40800  20.601  33.663  18.867  0.0786  0.2294 -0.0102
97707W        W40801  21.407   0.398  18.956  0.0033  0.1834 -0.0316
97708W        W40802  18.053  34.589  19.044 -0.0264  0.2334 -0.4938
97709W        W40803  17.836  32.545  18.723 -0.1771  0.1530 -0.2314
97710W        W40804  17.394  30.980  17.173 -0.3349  0.0480 -0.0620
97711W        W40805  18.809  33.434  16.890 -0.0126 -0.2137  0.2646
97712W        W40806  21.569  32.987  15.328 -0.0877 -0.1133 -0.0421
97713W        W40807  20.492  33.156  18.679  0.0403 -0.1276 -0.1239
97714W        W40808  21.518  33.546  17.421 -0.3051 -0.0015  0.0346
97715W        W40809  19.823   0.271  18.687  0.2056  0.2158 -0.1992
97716W        W40810  20.046  33.839  17.491 -0.2255 -0.3300 -0.4176
97717W        W40811  19.706  33.322  20.153  0.3353  0.0597 -0.2325
97718W        W40812  22.057  33.756  19.181 -0.1552 -0.0794 -0.0016
97719W        W40813  18.616  34.303  17.318  0.1751 -0.0875  0.4739
97720W        W40814  19.563  34.135  17.685 -0.3880 -0.3434 -0.2792
97721W        W40815  21.049  32.059  18.038  0.0218  0.1836 -0.2217
97722W        W40816  20.275  34.191  17.760 -0.1613  0.0229  0.0654
97723W        W40817  17.277  32.496  17.452  0.0950 -0.2149 -0.1600
97724W        W40818  22.349  33.409  17.709 -0.0486  0.0484  0.0367
97725W        W40819  19.416  33.599  17.799 -0.0592 -0.3424 -0.1055
97726W        W40820  21.811  31.449  18.318  0.1137 -0.0303 -0.2895
97727W        W40821  18.991  34.533  17.108  0.0208 -0.0412 -0.0688
97728W        W40822  20.427  33.233  16.213  0.0354 -0.3398 -0.1141
97729W        W40823  18.152  32.175  17.760  0.1152 -0.0556 -0.1050
97730W        W40824  19.570  33.742  17.359 -0.2083 -0.1619 -0.2796
97731W        W40825  21.773  33.758  18.779 -0.1254 -0.0453 -0.0145
97732W        W40826  19.954  33.839  15.565  0.0331 -0.0657  0.4076
97733W        W40827  19.078  32.159  18.410  0.2665  0.0092 -0.0408
97734W        W40828  19.980  33.548  17.103 -0.0513  0.0162  0.0599
97735W        W40829  18.606  34.562  17.753 -0.2097  0.0791 -0.0810
97736W        W40830  19.397  32.132  19.015 -0.0667 -0.1677  0.0649
97737W        W40831  19.009  33.802  18.047 -0.1210  0.0376  0.0494
97738W        W40832  21.727  34.526  19.241 -0.0236 -0.0997 -0.1104
97739W        W40833  20.982   0.289  18.631 -0.1136  0.3927  0.1357
97740W        W40834  17.612  32.960  18.616 -0.1796  0.3054  0.0658
97741W        W40835  19.218  33.217  16.554 -0.3657 -0.0241 -0.0430
97742W        W40836  18.558  33.240  17.698 -0.1511  0.3096  0.3627
97743W        W40837  22.183  32.756  18.538  0.1114 -0.2094  0.2551
97744W        W40838  20.106  31.705  19.174 -0.0708  0.2293  0.1738
97745W        W40839  20.974  31.531  18.790  0.2085  0.3573  0.1899
97746W        W40840  22.197  33.940  16.929 -0.0604  0.2819  0.1414
97747W        W40841  19.130  34.433  16.618  0.2000  0.3918  0.0528
97748W        W40842  20.964  32.848  16.816 -0.3250  0.2660  0.0653
97749W        W40843  20.836  33.393  17.288  0.1900  0.2130 -0.0409
97750W        W40844  18.866  33.562  18.578  0.1801  0.0209  0.0523
97751W        W40845  17.426  33.766  16.314  0.1226  0.0363  0.0848
97752W        W40846  19.927  32.624  18.687 -0.0197 -0.0796 -0.1702
97753W        W40847  18.535  33.200  19.118 -0.0208 -0.0713  0.2943
97754W        W40848  18.393   1.356  18.937 -0.1842  0.1620 -0.0554
97755W        W40849  17.701  33.949  17.281 -0.0971  0.1097  0.1247
97756W        W40850  17.357  32.530  18.510 -0.0176 -0.2257 -0.0020
97757W        W40851  19.174  32.502  17.259  0.0751 -0.0157  0.2089
97758W        W40852  20.677  33.304  16.849 -0.0977 -0.1221 -0.0756
97759W        W40853  19.239  34.145  19.716 -0.0231  0.0566 -0.1313
97760W        W40854  19.802  32.584  18.186 -0.4289 -0.1067 -0.0176
97761W        W40855  18.135  32.848  16.954 -0.0950  0.0120 -0.0103
97762W        W40856  20.833  34.360  18.981  0.1424 -0.2612 -0.0378
97763W        W40857  17.681  31.368  19.531  0.2222 -0.1611  0.2990
97764W        W40858  22.110  32.159  17.235  0.2583 -0.1938  0.2085
97765W        W40859  22.344  33.164  17.279 -0.0202  0.0346 -0.2337
97766W        W40860  17.491  30.175  18.502  0.0957  0.4098  0.0870
97767W        W40861  21.030  34.356  17.465  0.0821 -0.1469 -0.2518
97768W        W40862  20.203  33.338  16.698 -0.1194 -0.2105  0.3473
97769W        W40863  18.203  32.498  18.360  0.0446  0.1565 -0.0587
97770W        W40864  21.478  33.266  16.257 -0.1539  0.0460  0.2834
97771W        W40865  20.690  33.445  19.298 -0.0009  0.0889  0.0568
97772W        W40866  18.252  33.333  16.245  0.0904 -0.1067  0.0308
97773W        W40867  21.511   0.287  16.318 -0.0778 -0.1315  0.1687
97774W        W40868  18.615  31.360  18.237 -0.0835  0.1262 -0.2811
97775W        W40869  18.272  34.314  16.002  0.3742 -0.3180 -0.1678
97776W        W40870  20.975  33.303  16.373  0.1291  0.0867 -0.4059
97777W        W40871  21.063  33.383  18.746  0.0008  0.0441  0.4783
97778W        W40872  18.508  33.594  17.360  0.0619 -0.0246 -0.1489
97779W        W40873  19.937  33.572  16.182 -0.0135 -0.0542 -0.0374
97780W        W40874  18.276  34.081  20.959  0.0190 -0.1335 -0.0519
97781W        W40875  19.472  33.450  19.721  0.0862 -0.1839  0.0162
97782W        W40876  20.588   1.234  20.784 -0.0875  0.1635 -0.2133
97783W        W40877  17.015  33.442  21.135 -0.0924  0.1645 -0.4354
97784W        W40878  20.522  32.741  23.955 -0.0341  0.2562  0.0143
97785W        W40879  19.943  34.062  19.313  0.0770 -0.1197 -0.1124
97786W        W40880  21.199  34.306  20.934 -0.2143 -0.3721  0.2345
97787W        W40881  19.747  32.463  19.720  0.0296  0.1960  0.0939
97788W        W40882  18.403  33.558  22.052  0.1061 -0.0888 -0.0393
97789W        W40883  22.689  33.897  21.217  0.0936  0.0697 -0.0146
97790W        W40884  18.602  32.100  19.320  0.0854  0.1889  0.3033
97791W        W40885  19.880  33.321  22.602  0.3076  0.1879  0.2388
97792W        W40886  18.919  34.514  20.191 -0.0896  0.1939  0.1771
97793W        W40887  19.859  32.742  22.650  0.2769  0.0612  0.0507
97794W        W40888  20.778  32.568  21.896 -0.0972  0.0036 -0.0051
97795W        W40889  18.737  34.368  19.730 -0.0290 -0.1060 -0.2890
97796W        W40890  17.617  33.720  21.170  0.3245 -0.0618  0.3426
97797W        W40891  20.561  34.108  22.372  0.0258 -0.2954  0.1761
97798W        W40892  19.752  33.784  21.581  0.1711 -0.0502  0.1798
97799W        W40893  20.648   0.896  21.131  0.2049  0.0565 -0.2649
97800W        W40894  21.702  33.644  22.914  0.0206 -0.2094  0.2797
97801W        W40895  21.337   0.456  21.962 -0.0266  0.4199 -0.1448
97802W        W40896  19.686   0.008  21.222  0.0299  0.1611  0.0182
97803W        W40897  21.277  33.576  24.472  0.1469  0.2382  0.1550
97804W        W40898  21.546  34.608  20.651  0.0882  0.0199  0.1333
97805W        W40899  18.672  33.864  19.693 -0.0271 -0.0345 -0.0518
97806W        W40900  20.167  33.762  20.095  0.1463  0.0365  0.3989
97807W        W40901  19.711  32.741  21.139  0.3947 -0.1534 -0.0929
97808W        W40902  20.141  33.028  21.552  0.2567 -0.0607 -0.2051
97809W        W40903  18.365  34.403  21.318  0.0840 -0.1974 -0.1294
97810W        W40904  19.628  34.216  20.204 -0.0248 -0.2276 -0.2346
97811W        W40905  19.042  34.413  22.892 -0.1903 -0.0270  0.0294
97812W        W40906  18.150  34.369  21.816  0.0606 -0.0345 -0.2304
97813W        W40907  19.619  33.868  23.474 -0.3145 -0.0635  0.1935
97814W        W40908  19.300  33.060  22.609  0.0730 -0.0079 -0.1743
97815W        W40909  19.225  32.306  19.575  0.0289 -0.2749 -0.1800
97816W        W40910  20.676  34.464  20.625  0.0064  0.2060 -0.0998
97817W        W40911  19.435  33.752  20.158  0.2249  0.1544  0.1124
97818W        W40912  21.325  33.003  22.702  0.0348  0.1460 -0.0343
97819W        W40913  21.540  34.078  20.643  0.2794 -0.1638 -0.1464
97820W        W40914  19.878  33.625  23.023 -0.0930  0.1321 -0.0933
97821W        W40915  18.331  33.602  23.417 -0.0583 -0.0823  0.0991
97822W        W40916  21.888  33.608  20.548 -0.0574 -0.1377  0.1169
97823W        W40917  18.286  32.732  23.135 -0.1464  0.0740  0.0442
97824W        W40918  21.117  32.942  20.612  0.1284 -0.2889 -0.0673
97825W        W40919  20.915  33.923  19.286 -0.3611  0.1416  0.1726
97826W        W40920  18.580  32.851  21.580  0.0212  0.2797 -0.0593
97827W        W40921  17.589  32.836  22.062  0.3902  0.0078  0.0836
97828W        W40922  19.881  33.359  23.533  0.1391 -0.3364 -0.1704
97829W        W40923  19.411  33.079  21.197  0.0320  0.0294 -0.0751
97830W        W40924  22.570  32.883  23.382 -0.3338 -0.0448 -0.2423
97831W        W40925  18.234  33.139  20.140 -0.3568  0.0883  0.1312
97832W        W40926  20.439  33.974  21.516  0.2953 -0.0838  0.1920
97833W        W40927  19.863  34.271  22.736 -0.3053 -0.0729 -0.1235
97834W        W40928  21.310  34.395  22.683  0.2837  0.1432  0.2107
97835W        W40929  19.608  33.161  23.045 -0.0019  0.2153 -0.1227
97836W        W40930  18.525  33.148  18.610  0.0033  0.2876 -0.4784
97837W        W40931  18.941  33.235  19.524 -0.0482  0.4264  0.0708
97838W        W40932  20.452  33.690  20.919 -0.0616  0.4095  0.2984
97839W        W40933  21.037   0.450  21.086  0.0301  0.1177  0.0204
97840W        W40934  18.664  32.418  18.736  0.0600  0.3146 -0.1389
97841W        W40935  17.210  33.799  21.477  0.0475  0.1280  0.1158
97842W        W40936  20.673  33.447  20.482  0.4202 -0.1305  0.0967
97843W        W40937  18.533   0.588  24.552 -0.2817 -0.0816  0.0477
97844W        W40938  19.978  34.363  23.268 -0.2020 -0.0122 -0.1580
97845W        W40939  18.742  34.054  20.563 -0.0723 -0.3601 -0.0997
97846W        W40940  20.383   0.556  21.993 -0.3167  0.0505  0.2069
97847W        W40941  23.578  34.327  20.532 -0.0844 -0.1045 -0.1104
97848W        W40942  20.902  32.905  18.515  0.0817  0.0849 -0.2078
97849W        W40943  21.933  32.297  18.714 -0.0544  0.0854  0.0220
97850W        W40944  19.152  33.918  20.833 -0.0470  0.3138 -0.3221
97851W        W40945  19.029  33.274  23.691 -0.0321 -0.1677  0.0761
97852W        W40946  20.043  34.102  18.435  0.0365  0.0867  0.1728
97853W        W40947  19.281  34.314  20.516 -0.0834  0.2369 -0.1726
97854W        W40948  20.728   0.221  20.271  0.1694  0.0179  0.0630
97855W        W40949  19.767  34.246  21.833  0.1136 -0.0864  0.0947
97856W        W40950  20.151  32.422  22.381 -0.0923 -0.1041 -0.1366
97857W        W40951  21.999   0.008  24.947  0.1881  0.1901  0.0559
97858W        W40952  20.249  34.650  20.366  0.1044 -0.2951 -0.1082
97859W        W40953  20.759  34.552  21.163 -0.0649 -0.1456 -0.1267
97860W        W40954  20.147  33.627  19.114  0.1669 -0.1546 -0.1681
97861W        W40955  20.105  32.161  24.024 -0.1594  0.1523 -0.2826
97862W        W40956  20.193  33.288  22.068  0.3097  0.1891 -0.3059
97863W        W40957  19.337  33.488  21.609  0.0221 -0.0109  0.2300
97864W        W40958  20.611  32.973  21.721  0.0419  0.2727 -0.1441
97865W        W40959  19.285  32.937  20.706 -0.1445 -0.2685 -0.2779
97866W        W40960  18.972  33.584  20.517 -0.0746 -0.0077 -0.2221
97867W        W40961  18.512  33.217  21.091 -0.1319 -0.0960  0.0872
97868W        W40962  20.536   0.297  20.720  0.2017 -0.1145 -0.0591
97869W        W40963  17.992  30.897  21.767  0.2984 -0.0543 -0.1125
97870W        W40964  20.028  33.411  21.093 -0.0547 -0.1300 -0.1473
97871W        W40965  21.237   0.055  21.746  0.4720  0.1493  0.2128
97872W        W40966  20.631  31.983  19.698  0.0581  0.3483 -0.0504
97873W        W40967  20.835  33.205  22.638 -0.0396 -0.0956  0.3291
97874W        W40968  19.481  32.935  19.782 -0.3371  0.1015  0.0487
97875W        W40969  21.071  34.105  22.337  0.0532  0.1521 -0.1094
97876W        W40970  19.031  30.999  22.583  0.3970 -0.1075 -0.2754
97877W        W40971  17.733   0.930  19.548 -0.0366 -0.1114 -0.1077
97878W        W40972  19.208  32.866  24.551  0.3578  0.1830 -0.1063
97879W        W40973  19.533  33.480  22.224  0.0939 -0.0824  0.1510
97880W        W40974  18.454  33.390  21.541  0.2125  0.1993  0.1112
97881W        W40975  19.726  33.275  21.771  0.0505 -0.0005 -0.6674
97882W        W40976  20.837  34.216  22.775  0.2800  0.4530 -0.0657
97883W        W40977  20.237  32.453  23.676 -0.1699  0.2075 -0.0473
97884W        W40978  21.412  33.485  21.754 -0.1494  0.0986  0.0252
97885W        W40979  20.818  33.605  21.247  0.3101 -0.0518  0.0053
97886W        W40980  21.949  32.315  19.866 -0.0074 -0.0579  0.2049
97887W        W40981  19.822  33.072  20.782  0.1585  0.0002 -0.2879
97888W        W40982  21.468  33.198  22.261  0.1182  0.1375  0.0640
97889W        W40983  20.651  34.466  20.083  0.1164  0.1452  0.0122
97890W        W40984  21.914  32.157  23.726 -0.2482  0.0649 -0.0045
97891W        W40985  20.386  32.533  22.789  0.0998  0.2540  0.1016
97892W        W40986  19.430  34.441  22.544 -0.1284 -0.3745 -0.4430
97893W        W40987  18.570  33.190  23.898 -0.2672 -0.1326 -0.1011
97894W        W40988  19.799  33.920  19.807  0.1980 -0.3315  0.2159
97895W        W40989  18.777  33.678  19.206 -0.2376 -0.0494 -0.1092
97896W        W40990  19.508   0.201  22.318 -0.1139  0.2333  0.2953
97897W        W40991  21.606  33.120  20.382 -0.1132 -0.0670 -0.2279
97898W        W40992  21.015  33.896  21.654  0.0526  0.0462  0.1825
97899W        W40993  19.747   0.101  21.814  0.4441 -0.1338 -0.0465
97900W        W40994  20.312  32.764  22.051  0.2689  0.1793 -0.0841
97901W        W40995  18.909   0.228  21.881  0.1568  0.2094  0.0874
97902W        W40996  20.968  32.750  23.642  0.1600 -0.2089  0.0020
97903W        W40997  20.725  33.672  23.063  0.0359 -0.0841 -0.0344
97904W        W40998  21.448   1.068  22.608 -0.1500 -0.2546  0.3349
97905W        W40999  17.270  34.570  23.346  0.2112  0.2109  0.0234
97906W        W41000  21.752  33.319  18.518 -0.2496  0.0326 -0.1141
97907W        W41001  20.404  32.098  21.916 -0.1912 -0.0983 -0.3063
97908W        W41002  21.494   0.697  21.090  0.0448  0.1844  0.0396
97909W        W41003  21.506  34.418  19.693  0.3775 -0.3976  0.0950
97910W        W41004  18.610  32.395  21.215 -0.2062 -0.3274 -0.0146
97911W        W41005  22.104   1.355  23.851  0.0405 -0.1717  0.1064
97912W        W41006  17.756  32.356  18.227  0.0376  0.2699 -0.0269
97913W        W41007  21.365  34.011  21.967 -0.0043 -0.1108 -0.0935
97914W        W41008  21.023  33.763  20.175 -0.0006 -0.0689 -0.1334
97915W        W41009  18.182  33.290  20.655 -0.0335  0.5636 -0.1627
97916W        W41010  18.631  33.718  20.916 -0.0335  0.1540  0.0870
97917W        W41011  19.369  34.582  19.912 -0.1095 -0.0852  0.1142
97918W        W41012  19.794  33.010  19.376  0.2237  0.2176 -0.1939
97919W        W41013  20.801  33.665  22.434  0.0022  0.1473 -0.2390
97920W        W41014  20.398  32.610  19.981 -0.0594  0.1511  0.1062
97921W        W41015  19.626  32.229  22.599  0.0522 -0.1330 -0.3489
97922W        W41016  21.449   0.858  20.572  0.0044 -0.1081 -0.1515
97923W        W41017  20.089   0.122  20.884  0.0722 -0.1450  0.3614
97924W        W41018  21.622  34.151  22.435 -0.1185  0.3537  0.0098
97925W        W41019  18.996   0.830  21.889  0.0625  0.1111  0.3120
97926W        W41020  18.514  33.957  24.436 -0.1955  0.1319  0.0569
97927W        W41021  18.125  33.604  21.110  0.3272  0.0126 -0.0991
97928W        W41022  17.762  34.250  20.811 -0.4226  0.2039 -0.1808
97929W        W41023  20.564  33.511  19.867 -0.2506 -0.1667  0.3821
97930W        W41024  21.697  34.235  21.130 -0.1259 -0.2977  0.1084
97931W        W41025  22.212  33.692  20.178  0.0151 -0.2456 -0.1440
97932W        W41026  20.273  34.296  21.912  0.2619  0.4205  0.0587
97933W        W41027  19.508  34.112  19.102 -0.1162  0.4419 -0.0223
97934W        W41028  20.586   0.206  22.822 -0.1258  0.4614 -0.0547
97935W        W41029  21.922  33.223  20.841  0.1796 -0.0184 -0.2235
97936W        W41030  19.090  33.389  20.998 -0.1529 -0.3032  0.0530
97937W        W41031  19.019  32.773  19.831 -0.0957  0.2017  0.0202
97938W        W41032  22.784  32.059  21.615  0.0692 -0.0363  0.0053
97939W        W41033  20.069  34.099  20.433 -0.2954 -0.2728 -0.0046
97940W        W41034  18.264  32.751  18.962 -0.0784  0.0656 -0.1808
97941W        W41035  22.198  33.784  19.666 -0.3721 -0.0325  0.0678
97942W        W41036  20.209  33.906  23.243 -0.1681 -0.2221  0.1635
97943W        W41037  20.275  32.997  23.035 -0.1380  0.0356 -0.0033
97944W        W41038  18.953  34.653  22.332  0.0428 -0.0512 -0.1063
97945W        W41039  21.468  33.608  20.069  0.2607  0.0473  0.4086
97946W        W41040  18.771  32.822  22.865 -0.1803 -0.0808 -0.1636
97947W        W41041  19.001   0.304  21.008  0.2279  0.0276 -0.0239
97948W        W41042  21.791  34.192  22.909  0.0820 -0.0900  0.3008
97949W        W41043  19.594  34.504  19.440 -0.3237 -0.0383 -0.2894
97950W        W41044  19.431  32.335  21.869  0.3512  0.1736  0.1700
97951W        W41045  19.455  32.127  20.408  0.0966 -0.0082 -0.4833
97952W        W41046  19.533   0.383  20.929 -0.0395 -0.0595  0.3058
97953W        W41047  20.888  34.479  21.895  0.0646  0.2818  0.0716
97954W        W41048  18.660  33.187  20.551 -0.1562 -0.2737 -0.0103
97955W        W41049  21.551  33.419  21.192 -0.2677  0.0606 -0.0736
97956W        W41050  21.714   1.260  20.427 -0.0911 -0.0459 -0.0627
97957W        W41051  19.958  32.253  22.976 -0.0880  0.0043 -0.2540
97958W        W41052  19.571  33.575  21.095 -0.0306  0.2138  0.0462
97959W        W41053  19.272  33.553  23.296  0.1786 -0.3049 -0.1461
97960W        W41054  20.406  32.373  20.749 -0.1428 -0.1783 -0.1614
97961W        W41055  22.496  33.244  22.610  0.0695 -0.2556  0.2902
97962W        W41056  21.842  31.854  22.475 -0.1861  0.0780 -0.2505
97963W        W41057  19.461  33.440  20.588  0.0194 -0.2323  0.0941
97964W        W41058  18.859  32.828  21.066 -0.0422 -0.2218 -0.1264
97965W        W41059  21.778  32.704  20.207  0.1018  0.0225  0.0235
97966W        W41060  20.272  33.263  20.189  0.3421  0.0537  0.4692
97967W        W41061  20.269  33.932  22.766  0.1858  0.1495 -0.3889
97968W        W41062  18.528  33.564  20.187  0.1803 -0.0438 -0.3306
97969W        W41063  21.030  32.431  24.012 -0.1156 -0.0253 -0.4166
97970W        W41064  18.786  33.597  23.362 -0.0927 -0.0872 -0.2929
97971W        W41065  17.545   0.026  21.075 -0.1627  0.4085  0.0884
97972W        W41066  17.874  31.392  21.703 -0.0546 -0.1239  0.1536
97973W        W41067  19.241  34.557  21.956 -0.1465 -0.0731  0.2357
97974W        W41068  17.082  32.776  22.655 -0.0394 -0.2713 -0.0856
97975W        W41069  19.215  33.865  22.358 -0.1147 -0.1218 -0.1612
97976W        W41070  20.040  32.953  23.976 -0.3559  0.0118  0.0012
97977W        W41071  20.094  32.258  24.647 -0.0337  0.1444 -0.0841
97978W        W41072  17.750  32.052  18.619 -0.0488  0.0102  0.0540
97979W        W41073  19.396  32.607  22.848 -0.1143 -0.1046 -0.1378
97980W        W41074  20.195  31.396  22.864 -0.2765 -0.1089 -0.2488
97981W        W41075  20.797  34.081  21.093  0.2312  0.2209 -0.3376
97982W        W41076  19.423   0.744  21.295  0.3076  0.2148  0.0236
97983W        W41077  19.501  32.127  24.665 -0.2239  0.0664 -0.1922
97984W        W41078  19.442  33.897  21.942  0.0402  0.2518  0.0227
97985W        W41079  20.026  34.358  21.448  0.1849 -0.0283  0.2134
97986W        W41080  17.784  33.378  22.760  0.2394  0.0990 -0.1248
97987W        W41081  18.830  34.179  21.162  0.3633 -0.1914  0.5263
97988W        W41082  20.315  34.241  20.883  0.2728  0.0768  0.2892
97989W        W41083  17.977  34.172  20.249  0.2381  0.0200  0.0987
97990W        W41084  21.209   0.425  19.946  0.0918  0.2621 -0.2076
97991W        W41085  16.891  32.654  23.603  0.1534 -0.0249  0.2520
97992W        W41086  16.981  34.195  20.664  0.0042  0.2703 -0.0001
97993W        W41087  18.696  34.322  21.665  0.1097  0.2281  0.0364
97994W        W41088  21.098  33.206  21.360  0.3850  0.0953  0.1543
97995W        W41089  18.415  34.639  22.162 -0.1184 -0.0398 -0.2842
97996W        W41090  19.947  32.828  19.974 -0.0455  0.0156  0.0129
97997W        W41091  20.316   1.094  22.900  0.1089 -0.0522  0.2423
97998W        W41092  21.940  33.241  23.061  0.0047  0.0715 -0.1433
97999W        W41093  21.546  34.503  24.776  0.2348 -0.0309  0.2684
98000W        W41094  17.590  33.864  23.442 -0.0774  0.0315 -0.1229
98001W        W41095  19.986  32.533  26.624  0.1292  0.2098  0.0501
98002W        W41096  20.647   0.836  23.202  0.2796  0.2239  0.0568
98003W        W41097  19.314  33.787  26.897 -0.1290 -0.0068  0.2398
98004W        W41098  19.841  31.920  23.565  0.1086  0.1241 -0.0430
98005W        W41099  18.388  33.529  26.562 -0.0869 -0.0725 -0.2608
98006W        W41100  20.436  34.183  25.843  0.2625  0.4010  0.1341
98007W        W41101  17.801  34.458  25.724 -0.0244  0.1624 -0.0211
98008W        W41102  17.827  34.571  26.192  0.1149  0.0327  0.3123
98009W        W41103  19.991  33.248  24.796  0.0865 -0.0944 -0.0514
98010W        W41104  18.686  33.789  25.667 -0.1147 -0.1394 -0.1833
98011W        W41105  21.685  32.798  25.828  0.0003  0.2008  0.0772
98012W        W41106  19.541  34.657  22.997 -0.3304  0.2108  0.0919
98013W        W41107  20.246  33.560  27.191 -0.0107  0.0465 -0.2727
98014W        W41108  19.482   0.158  25.936  0.1900 -0.0315  0.0722
98015W        W41109  21.309  33.039  25.342  0.1043  0.0168 -0.0427
98016W        W41110  20.351  33.321  25.757 -0.4611  0.2241 -0.3388
98017W        W41111  22.472   0.147  27.613 -0.1201  0.1732  0.1825
98018W        W41112  19.414  34.324  26.080  0.1417  0.0432 -0.0093
98019W        W41113  20.820   0.397  25.282 -0.0935  0.1611 -0.0777
98020W        W41114  21.702  34.048  26.182  0.1217  0.4768 -0.0799
98021W        W41115  21.131  33.731  23.449  0.0879 -0.0565  0.1480
98022W        W41116  20.333  32.977  22.495 -0.1856  0.0916  0.2514
98023W        W41117  20.853  33.302  25.085  0.0822  0.0377 -0.0594
98024W        W41118  18.963  32.963  25.300 -0.1525  0.1105  0.1888
98025W        W41119  21.005  32.891  26.144 -0.0964  0.0413  0.2137
98026W        W41120  21.264  33.861  24.025 -0.1546  0.1010  0.0093
98027W        W41121  21.032  33.163  26.945  0.0648 -0.2600  0.1283
98028W        W41122  20.349  33.693  25.431 -0.2487  0.0133  0.0211
98029W        W41123  17.709   0.012  23.687  0.0543 -0.0236  0.2899
98030W        W41124  18.915  34.614  26.838 -0.2424 -0.1264  0.0863
98031W        W41125  18.548   0.141  27.205  0.2181 -0.1784  0.0211
98032W        W41126  20.575  32.288  24.238  0.4254  0.2003 -0.0112
98033W        W41127  21.773  33.554  24.596 -0.0758  0.1136  0.1584
98034W        W41128  20.307  33.183  25.208  0.0481  0.1577 -0.1935
98035W        W41129  19.128  34.150  25.601  0.0160  0.1462 -0.0862
98036W        W41130  21.971   0.777  23.524  0.1284 -0.1644 -0.1234
98037W        W41131  20.530  33.225  26.766  0.0719 -0.0408 -0.2586
98038W        W41132  17.071  34.350  26.407 -0.0907  0.1623 -0.1004
98039W        W41133  21.316  31.997  24.210 -0.1602  0.0293 -0.0582
98040W        W41134  20.446  33.107  26.225 -0.2378  0.0241 -0.0396
98041W        W41135  21.214  32.350  23.442 -0.1701 -0.1369 -0.1846
98042W        W41136  20.515  33.229  23.703 -0.0250  0.2018 -0.0035
98043W        W41137  18.891  34.369  26.058  0.0218  0.1533  0.3349
98044W        W41138  18.708   0.448  25.585 -0.1666 -0.2366  0.4373
98045W        W41139  18.572  33.506  27.521  0.1135 -0.0394 -0.1164
98046W        W41140  19.412  33.202  25.510 -0.0310 -0.4297  0.1810
98047W        W41141  21.484  34.504  27.485  0.1175 -0.0959  0.0721
98048W        W41142  19.319  32.378  24.184 -0.0293 -0.2726 -0.1476
98049W        W41143  20.686  33.757  25.755  0.0556  0.2489 -0.4031
98050W        W41144  20.405  33.620  24.077 -0.0936 -0.2636  0.2348
98051W        W41145  21.637  34.122  26.722  0.1303  0.0230 -0.1089
98052W        W41146  20.618   0.277  27.864 -0.0716 -0.4239  0.1696
98053W        W41147  18.647  33.462  24.343  0.1079 -0.1120 -0.0975
98054W        W41148  20.262  32.736  24.432 -0.1910  0.0175 -0.3165
98055W        W41149  21.169  34.036  26.600 -0.0888  0.1264  0.3531
98056W        W41150  20.900  34.339  24.819  0.1680 -0.0875  0.2674
98057W        W41151  19.480  33.511  23.785  0.4037 -0.1669  0.0497
98058W        W41152  18.488  33.638  24.789  0.0555  0.1019 -0.0433
98059W        W41153  21.906  33.081  24.908  0.3288 -0.0574 -0.4022
98060W        W41154  17.779   0.249  27.836  0.0449 -0.2005  0.1122
98061W        W41155  18.678  33.260  26.180  0.2150 -0.4801  0.0414
98062W        W41156  18.572  34.594  23.874  0.1112 -0.0979 -0.3937
98063W        W41157  20.413  32.139  23.327 -0.0341  0.0260 -0.2164
98064W        W41158  21.252  33.046  24.381 -0.2106  0.2440 -0.1663
98065W        W41159  20.788  33.482  21.890  0.1811  0.1453 -0.0056
98066W        W41160  21.231  32.793  23.242  0.0789 -0.1259 -0.1423
98067W        W41161  20.913  33.109  24.003 -0.1388  0.0304  0.0591
98068W        W41162  19.967  31.988  25.854  0.1366 -0.0129 -0.0023
98069W        W41163  19.468  32.824  24.070  0.2674  0.0617  0.1124
98070W        W41164  19.386  30.974  24.708 -0.1994  0.0354  0.0154
98071W        W41165  20.786  33.970  26.195 -0.4868 -0.0990 -0.3156
98072W        W41166  19.052  33.857  26.000 -0.0763 -0.0959  0.2735
98073W        W41167  20.225  32.362  25.701  0.0374 -0.2054  0.0462
98074W        W41168  21.793   0.446  29.136 -0.1248 -0.0490  0.0978
98075W        W41169  21.776  32.813  22.465  0.0542  0.4276  0.0475
98076W        W41170  21.609  33.967  24.819 -0.0092 -0.1428  0.2848
98077W        W41171  19.391  33.512  22.749 -0.2560 -0.0311  0.0092
98078W        W41172  19.456  34.094  25.220 -0.2302  0.2336 -0.2136
98079W        W41173  19.662  33.412  26.980  0.3697 -0.2478  0.1687
98080W        W41174  19.429  32.964  25.067  0.0853  0.0058  0.4932
98081W        W41175  19.181  33.333  24.158 -0.2281  0.1166 -0.1640
98082W        W41176  22.085  32.830  25.388 -0.0577  0.4593 -0.3437
98083W        W41177  19.232  32.564  23.646  0.1921 -0.2649  0.1612
98084W        W41178  18.947  34.269  24.651 -0.1043 -0.3398  0.1973
98085W        W41179  20.827  33.821  24.580 -0.1458  0.1425  0.0409
98086W        W41180  19.259  34.056  26.469 -0.4010  0.0567  0.0747
98087W        W41181  21.356  33.166  24.862 -0.2980  0.1908 -0.1375
98088W        W41182  22.067  34.540  25.822  0.0212 -0.1023 -0.1860
98089W        W41183  22.293  32.140  24.749 -0.0927 -0.0572 -0.1762
98090W        W41184  19.204   2.248  26.834  0.0730  0.1247  0.0208
98091W        W41185  18.163  33.058  24.234  0.0836 -0.0844 -0.1328
98092W        W41186  20.750  34.477  26.192 -0.1110 -0.1942  0.0831
98093W        W41187  19.129  33.871  24.198 -0.1224 -0.2757 -0.0765
98094W        W41188  19.875  33.012  25.308  0.2736  0.0622  0.2223
98095W        W41189  18.413  34.142  27.060 -0.0758 -0.0385 -0.1734
98096W        W41190  20.426  32.785  26.552 -0.1160 -0.0269 -0.2006
98097W        W41191  19.962  33.348  26.081  0.0051  0.2961  0.1859
98098W        W41192  19.613  34.023  25.708  0.1377 -0.1505  0.1677
98099W        W41193  18.965  33.967  25.142 -0.5081  0.2183  0.2906
98100W        W41194  18.629  31.824  25.905 -0.2312  0.1907  0.0686
98101W        W41195  19.878  33.583  26.545  0.0819 -0.1142  0.0358
98102W        W41196  18.905  33.654  26.495  0.0783 -0.3608 -0.2844
98103W        W41197  22.173  32.842  22.736 -0.0760  0.2693  0.1422
98104W        W41198  20.610  32.604  25.322  0.1078 -0.2327  0.2038
98105W        W41199  22.920   0.279  27.849 -0.2525 -0.2814 -0.2834
98106W        W41200  20.465  33.164  24.276 -0.1076  0.1116  0.0208
98107W        W41201  19.636  34.361  26.568 -0.0654  0.2993  0.1946
98108W        W41202  18.470  33.137  25.038  0.3313 -0.3806 -0.2571
98109W        W41203  17.817  34.007  25.968 -0.0511 -0.0852 -0.1315
98110W        W41204  18.808  34.374  27.285 -0.3432  0.0897 -0.0315
98111W        W41205  20.835  33.328  24.588  0.1754 -0.0152  0.1464
98112W        W41206  19.148  32.984  23.163 -0.1998 -0.0241 -0.2559
98113W        W41207  20.226  32.857  25.608 -0.3295 -0.1064  0.1860
98114W        W41208  21.268  32.588  24.482 -0.2815 -0.1136  0.1367
98115W        W41209  18.986   0.341  26.045  0.0788  0.0745  0.1182
98116W        W41210  20.561  34.674  25.598  0.0727 -0.0783  0.0261
98117W        W41211  19.397  31.912  26.841  0.1416  0.2669  0.1286
98118W        W41212  19.271  33.240  26.733  0.1193 -0.0082  0.3432
98119W        W41213  20.221  34.104  26.313 -0.3158 -0.0974 -0.0070
98120W        W41214  21.931   0.456  26.730  0.1262 -0.1063 -0.1224
98121W        W41215  20.664  34.207  26.749 -0.0965 -0.1515  0.2193
98122W        W41216  18.587   0.027  26.348  0.2788 -0.1364 -0.2013
98123W        W41217  21.786  33.996  24.304  0.0333 -0.2380 -0.0616
98124W        W41218  21.790  33.326  27.722  0.1097  0.0498 -0.1807
98125W        W41219  21.695  33.228  25.593 -0.2209 -0.1897 -0.1927
98126W        W41220  23.688  32.720  23.504 -0.2927  0.3136 -0.1436
98127W        W41221  19.794  33.630  25.347  0.1058  0.2569 -0.1263
98128W        W41222  21.572   0.350  27.409  0.1672  0.0446 -0.1891
98129W        W41223  19.753  32.437  23.739 -0.1146  0.0530 -0.5532
98130W        W41224  21.600  34.529  26.155  0.0217 -0.0820 -0.2012
98131W        W41225  21.695  32.955  24.501  0.1273 -0.0816  0.0239
98132W        W41226  18.407  33.830  25.248 -0.0314  0.3447 -0.0169
98133W        W41227  19.481  34.058  22.968  0.0073 -0.3746 -0.0446
98134W        W41228  21.200  33.251  23.066  0.0345  0.0077  0.1067
98135W        W41229  19.650  30.917  24.247  0.3136  0.0707  0.0221
98136W        W41230  21.238  34.531  26.476 -0.0504  0.0621 -0.0699
98137W        W41231  20.526  32.983  24.820 -0.0657  0.0710 -0.1623
98138W        W41232  20.863  32.941  25.581  0.1535  0.0404  0.1769
98139W        W41233  21.398  33.348  24.020  0.0134 -0.1539  0.1236
98140W        W41234  20.095  34.207  25.452 -0.1126 -0.2081 -0.0921
98141W        W41235  22.336   0.892  27.214  0.0760 -0.3232 -0.0491
98142W        W41236  19.567  33.509  24.453  0.5716  0.4311 -0.2431
98143W        W41237  18.113  34.312  26.505 -0.1340  0.2310  0.2468
98144W        W41238  19.263  32.517  25.238  0.0962  0.2044  0.3668
98145W        W41239  20.400  33.451  22.776 -0.3878 -0.2644  0.0806
98146W        W41240  21.648  32.751  21.982 -0.2640  0.0638  0.3202
98147W        W41241  21.533   0.011  25.592  0.0241 -0.1415  0.2112
98148W        W41242  21.178  33.710  25.068  0.2488  0.2033  0.0783
98149W        W41243  19.033   0.028  25.680  0.1295  0.0580  0.2605
98150W        W41244  20.917  32.748  22.871  0.1130 -0.1826  0.2041
98151W        W41245  19.397   0.326  26.693  0.0231  0.3054 -0.2430
98152W        W41246  22.215  33.580  26.860  0.0608 -0.1176 -0.0348
98153W        W41247  19.049  33.656  24.662  0.0362  0.4077 -0.0368
98154W        W41248  20.645  33.765  25.067 -0.0608 -0.1998  0.0842
98155W        W41249  21.786  33.213  26.386 -0.1908  0.0764 -0.1342
98156W        W41250  20.058  33.869  25.876  0.1165  0.0978 -0.5188
98157W        W41251  17.622  31.375  23.094 -0.0930 -0.4088 -0.2133
98158W        W41252  23.896  33.957  24.689 -0.1191  0.0474  0.0936
98159W        W41253  19.107  33.043  26.211 -0.0204 -0.0707 -0.2680
98160W        W41254  21.292  34.394  26.998 -0.0097  0.0120 -0.1380
98161W        W41255  19.740  33.859  24.041  0.0193  0.0101  0.1502
98162W        W41256  20.150  32.915  23.540 -0.0283 -0.1019  0.0253
98163W        W41257  18.022   0.447  26.964  0.0718  0.1702 -0.2387
98164W        W41258  21.147  34.677  24.460 -0.1244 -0.1810  0.0897
98165W        W41259  21.510   0.325  26.463  0.1315  0.1174 -0.2796
98166W        W41260  21.749  34.636  22.547 -0.1628 -0.2594  0.1103
98167W        W41261  18.118  32.961  24.724  0.1755  0.2650  0.1477
98168W        W41262  20.248  31.614  24.997 -0.0314 -0.5144 -0.4188
98169W        W41263  19.290  34.338  23.383 -0.1122  0.1039  0.4670
98170W        W41264  18.287  33.363  25.465 -0.2851 -0.2529  0.1669
98171W        W41265  18.936  33.160  24.832  0.3009  0.3771  0.2049
98172W        W41266  21.954  34.043  25.690  0.0600  0.0319 -0.3261
98173W        W41267  21.248   0.774  26.090  0.1744 -0.0908 -0.1998
98174W        W41268  19.645  32.974  25.909  0.1785  0.0724 -0.0937
98175W        W41269  20.798  32.806  24.428  0.0401  0.0634 -0.2347
98176W        W41270  19.486  33.530  24.964 -0.1275 -0.2203  0.1405
98177W        W41271  22.846  33.452  26.396  0.3449  0.1539 -0.0233
98178W        W41272  21.248  33.637  26.964  0.1468 -0.2147  0.3476
98179W        W41273  20.068  32.023  26.313 -0.1218  0.0311 -0.1492
98180W        W41274  20.232  34.631  24.748 -0.3749  0.2323  0.2795
98181W        W41275  20.737  33.120  23.142  0.0193  0.0477 -0.0273
98182W        W41276  22.137  33.733  24.061  0.1702 -0.4586 -0.0975
98183W        W41277  21.556  31.505  25.247 -0.1029 -0.0344  0.3333
98184W        W41278  20.022  33.141  26.710 -0.0820 -0.0395 -0.2003
98185W        W41279  17.405  34.183  22.476 -0.3907  0.2061  0.0185
98186W        W41280  20.657  33.279  27.262  0.0602 -0.0858  0.3507
98187W        W41281  19.712  33.137  27.897 -0.1361 -0.0097 -0.3881
98188W        W41282  19.930  33.418  24.120  0.0098  0.1285 -0.0131
98189W        W41283  19.663  32.586  24.757  0.0590  0.0775 -0.2033
98190W        W41284  19.179  33.662  25.498 -0.2310 -0.1397 -0.0360
98191W        W41285  18.580  31.924  23.659 -0.1653 -0.1513 -0.2182
98192W        W41286  21.473  33.805  25.472  0.1248 -0.2800 -0.0849
98193W        W41287  20.153  33.967  27.678 -0.2195 -0.1481  0.1623
98194W        W41288  18.827  32.682  26.060  0.3041  0.2897  0.1101
98195W        W41289  19.368  32.077  23.731 -0.1706 -0.1707 -0.2532
98196W        W41290  18.041  32.987  25.261 -0.0892  0.0898  0.0164
98197W        W41291  18.128  33.911  27.439  0.1778  0.3128  0.0069
98198W        W41292  21.006  34.066  25.534  0.1006 -0.0172  0.2967
98199W        W41293  21.151  33.835  22.821  0.2787 -0.2683 -0.0017
98200W        W41294  19.896  34.435  28.866  0.0371 -0.0580 -0.1055
98201W        W41295  18.312  32.841  25.978 -0.2564 -0.0060  0.0210
98202W        W41296  21.546  32.880  23.956 -0.2856 -0.0313 -0.1823
98203W        W41297  18.362  34.301  26.001 -0.2559 -0.0800  0.2007
98204W        W41298  20.317  33.438  23.280 -0.2080  0.0546  0.3053
98205W        W41299  20.800  33.883  27.586  0.1296  0.0174 -0.3633
98206W        W41300  19.511  33.033  23.628  0.0991  0.1006  0.1164
98207W        W41301  22.201  33.374  25.314 -0.2521 -0.0444  0.2822
98208W        W41302  18.797  33.177  26.721 -0.0206  0.1690  0.2506
98209W        W41303  19.616   0.032  23.458 -0.1017 -0.2910  0.0872
98210W        W41304  20.614  34.568  24.430  0.0868  0.0002 -0.1953
98211W        W41305  21.733  33.781  27.095 -0.0302 -0.0289 -0.0219
98212W        W41306  18.014  33.200  23.168  0.0808  0.0830  0.0951
98213W        W41307  21.197  32.727  22.223  0.1533 -0.0947 -0.1849
98214W        W41308  19.852  33.960  28.219  0.0565 -0.2948 -0.0836
98215W        W41309  21.211  33.612  27.666  0.2098 -0.0045  0.1909
98216W        W41310  21.150   0.400  28.211  0.1955  0.0680 -0.1396
98217W        W41311  18.960  32.738  28.039  0.0314  0.1402 -0.0005
98218W        W41312  18.697  32.110  29.292  0.0524  0.1279  0.0909
98219W        W41313  19.845   1.446  27.454 -0.0910  0.1200  0.3704
98220W        W41314  20.746   0.382  30.188  0.1335  0.1393  0.2880
98221W        W41315  19.782  32.738  27.491  0.1362 -0.3908 -0.1290
98222W        W41316  19.304  32.640  29.081 -0.2660  0.2508  0.0719
98223W        W41317  20.566   0.038  29.394 -0.0648  0.1282 -0.2419
98224W        W41318  19.546  34.296  28.447  0.0945  0.0810 -0.0814
98225W        W41319  20.926  33.936  30.205 -0.0755 -0.1920 -0.0192
98226W        W41320  19.306  33.907  28.159  0.4485 -0.1291 -0.0412
98227W        W41321  20.548  34.334  30.047 -0.0462 -0.0162  0.1139
98228W        W41322  20.914  32.619   0.427 -0.0024 -0.1010 -0.2750
98229W        W41323  19.785  33.995  26.879 -0.0789  0.0774  0.1571
98230W        W41324  18.458  34.122  28.186 -0.0054  0.1955  0.0892
98231W        W41325  19.490   0.578  29.070  0.0189  0.3801  0.3109
98232W        W41326  19.192  33.983  29.371  0.0295 -0.0468  0.1793
98233W        W41327  21.286   0.013  30.390 -0.1728  0.1290 -0.2058
98234W        W41328  21.746   1.416   1.553  0.1049  0.3482 -0.4799
98235W        W41329  21.082  34.439  29.959  0.1700 -0.3908 -0.1451
98236W        W41330  21.243   1.039  29.513  0.2741  0.2341 -0.0400
98237W        W41331  21.982  33.715  31.213  0.0918  0.0998 -0.0455
98238W        W41332  21.051  34.620  28.053  0.1783  0.0131 -0.3662
98239W        W41333  20.832  33.243  27.741 -0.1880 -0.0892  0.1384
98240W        W41334  21.949  34.653  27.591  0.3044  0.1389  0.1126
98241W        W41335  20.829   0.679  29.455  0.0273 -0.2228 -0.3168
98242W        W41336  18.555  33.948  30.702  0.2273  0.0543  0.0184
98243W        W41337  20.456  34.662  28.886 -0.3269  0.4613  0.1067
98244W        W41338  21.000  33.615  31.546  0.0305 -0.0335 -0.0048
98245W        W41339  19.501   0.355  28.549 -0.0203  0.1650  0.4982
98246W        W41340  18.806  33.188  27.870  0.0279 -0.0455 -0.3095
98247W        W41341  18.855  34.521  31.953 -0.2143  0.1818  0.1769
98248W        W41342  19.435  33.740  30.924 -0.2329 -0.1384  0.0679
98249W        W41343  20.810  34.147  28.176 -0.0670  0.1997 -0.4020
98250W        W41344  21.382  32.906  30.360 -0.2057 -0.1476 -0.3266
98251W        W41345  20.692  33.234  31.117  0.2209  0.1476 -0.1148
98252W        W41346  21.500  33.485  31.749 -0.0257  0.2918 -0.0090
98253W        W41347  20.275   0.964  29.485 -0.5482  0.6096  0.1295
98254W        W41348  20.135  32.865  31.345 -0.2106  0.0421  0.2863
98255W        W41349  18.263  32.858  30.304 -0.0931  0.1641 -0.1977
98256W        W41350  21.456  32.636  27.423  0.1898  0.0886 -0.2548
98257W        W41351  19.473  34.211  29.032  0.2205  0.1364 -0.0499
98258W        W41352  21.730  32.197  28.314  0.2741  0.2934  0.2075
98259W        W41353  21.530   0.097  27.895  0.2253 -0.0929 -0.0500
98260W        W41354  18.740  34.693  28.993  0.2131 -0.0553 -0.2621
98261W        W41355  19.050  33.903  27.625 -0.1909  0.2561  0.0868
98262W        W41356  18.132  31.241  30.778  0.3953 -0.0924 -0.2092
98263W        W41357  19.354  33.198  29.312  0.1421 -0.1536  0.0748
98264W        W41358  20.494   0.225  31.882  0.1601  0.2643 -0.2482
98265W        W41359  19.659  33.826  27.661 -0.0112  0.1135 -0.0698
98266W        W41360  21.893  33.748  28.169 -0.3606 -0.0726  0.1789
98267W        W41361  19.968   0.627  28.507  0.0288 -0.1873 -0.2083
98268W        W41362  20.879  33.711  29.588 -0.1483  0.3379 -0.0161
98269W        W41363  20.616  33.517  29.994  0.3374 -0.1844 -0.3065
98270W        W41364  19.917  33.905  28.740 -0.0590 -0.0794 -0.2684
98271W        W41365  20.431  32.776  27.938 -0.2918  0.1553 -0.0559
98272W        W41366  21.623  32.478  30.647  0.1717 -0.2933 -0.0601
98273W        W41367  21.518   0.144  31.035 -0.0741 -0.1142 -0.1076
98274W        W41368  18.767  32.261  28.264  0.0854  0.1866  0.2966
98275W        W41369  18.295   0.086  28.790  0.1904 -0.2212 -0.0469
98276W        W41370  21.031  32.659  29.532  0.1289 -0.2340  0.1050
98277W        W41371  18.648  33.559   0.043  0.1531  0.1146  0.0652
98278W        W41372  20.330  33.275  31.504 -0.0339  0.2029  0.1952
98279W        W41373  19.349   0.307  29.479  0.0240 -0.0502 -0.0995
98280W        W41374  20.342  32.243  27.921  0.1135 -0.0941 -0.0746
98281W        W41375  21.591  33.622  29.469  0.3698  0.0232 -0.3768
98282W        W41376  21.160  34.197  27.792 -0.1456  0.2882 -0.2551
98283W        W41377  20.678  32.823  27.043  0.1675  0.3104  0.1198
98284W        W41378  20.071  33.515  27.977 -0.0183 -0.1118 -0.0824
98285W        W41379  19.697  32.023  30.098 -0.2405  0.0085 -0.0809
98286W        W41380  20.988  34.476  27.396 -0.0163  0.1963 -0.1216
98287W        W41381  21.207  32.321  28.370  0.0697 -0.2001  0.2388
98288W        W41382  21.960  32.852  28.367 -0.0127  0.0644  0.2213
98289W        W41383  18.792  32.568  29.043  0.2535  0.0572 -0.4603
98290W        W41384  20.651  33.056  30.605 -0.1654  0.1335 -0.0354
98291W        W41385  19.459  33.267  31.470 -0.1688  0.1639 -0.0520
98292W        W41386  20.896   0.448  26.972 -0.0568  0.2004 -0.0211
98293W        W41387  19.837   1.087  28.825  0.0740  0.0874 -0.1357
98294W        W41388  19.733   1.049  28.221 -0.1724  0.3185  0.3292
98295W        W41389  20.210  34.239  31.889 -0.2030 -0.2893  0.2085
98296W        W41390  20.939  33.671  31.048 -0.2971  0.2282 -0.1882
98297W        W41391  21.003  32.943  28.809 -0.1848  0.1643 -0.0401
98298W        W41392  18.988  33.560  30.747 -0.0038  0.3236 -0.1329
98299W        W41393  20.649  32.309  29.311  0.2764 -0.1541  0.0731
98300W        W41394  20.713   0.690  27.392 -0.3935  0.1937 -0.1796
98301W        W41395  17.526  34.432  27.762  0.4766  0.1241 -0.4685
98302W        W41396  22.021  32.348  28.696 -0.1470  0.0725  0.1346
98303W        W41397  18.010  33.796  26.392 -0.0217 -0.0277  0.1442
98304W        W41398  20.859  33.041  30.153 -0.0864 -0.4184 -0.0057
98305W        W41399  19.922  34.134  31.506 -0.0379  0.0140  0.0412
98306W        W41400  22.082  33.029  26.986 -0.1204  0.0314 -0.2802
98307W        W41401  19.167  34.593   0.446 -0.0647 -0.2594 -0.2696
98308W        W41402  18.636  34.098  27.684 -0.0793  0.1194 -0.2971
98309W        W41403  21.446  32.960  31.558 -0.1521 -0.0716 -0.1448
98310W        W41404  21.093   0.800  28.607 -0.0416  0.3244 -0.0519
98311W        W41405  20.314  34.255  29.172  0.0025 -0.2899  0.0541
98312W        W41406  19.073  33.426  31.230 -0.1848  0.0066  0.2022
98313W        W41407  20.285   0.485  29.490 -0.0919 -0.0751 -0.0570
98314W        W41408  20.201  33.513  28.604 -0.0003 -0.3145 -0.1030
98315W        W41409  20.697  33.604  30.616  0.1002 -0.0030  0.4739
98316W        W41410  20.144  33.406   0.285  0.1047 -0.1629 -0.1432
98317W        W41411  19.981  33.691  29.851 -0.0709 -0.1711 -0.0089
98318W        W41412  20.309  33.710  30.970  0.1521 -0.2095  0.1587
98319W        W41413  20.274  33.116  30.936  0.3728 -0.1773  0.2012
98320W        W41414  21.683  32.861  27.874 -0.2553  0.2503 -0.2299
98321W        W41415  19.990   0.089  29.271 -0.1381  0.0584 -0.2442
98322W        W41416  22.596  32.810  31.034  0.1389 -0.1632 -0.1186
98323W        W41417  20.150   1.217  28.452  0.1425  0.1142  0.1910
98324W        W41418  21.962  33.355  31.569  0.2290  0.0795 -0.3924
98325W        W41419  18.313  32.681  31.388  0.3151  0.1720  0.1611
98326W        W41420  19.117  33.239  30.258  0.2895  0.2342 -0.1738
98327W        W41421  18.075  34.416  31.979  0.1303  0.1273  0.1475
98328W        W41422  20.384  33.049  29.998 -0.0797 -0.2172  0.2497
98329W        W41423  20.600  34.418  27.822  0.0739  0.4004  0.0542
98330W        W41424  19.634  34.681  30.778 -0.0966 -0.1479 -0.0738
98331W        W41425  20.525  33.829  31.458  0.0567  0.0746  0.1484
98332W        W41426  19.079   0.182  30.020 -0.2358  0.2555 -0.3132
98333W        W41427  21.816  34.368  28.440  0.1048  0.1777  0.2562
98334W        W41428  18.689  32.966  30.586  0.1583 -0.2781 -0.0934
98335W        W41429  21.155  33.486  30.113  0.0120 -0.2345  0.1497
98336W        W41430  21.909  33.080   0.023  0.0103 -0.1309 -0.0047
98337W        W41431  21.235  33.659  30.638  0.0650  0.0057 -0.3122
98338W        W41432  19.496  33.259  30.639 -0.2436 -0.2016 -0.0471
98339W        W41433  18.250  33.891   0.196  0.0059  0.0901 -0.2579
98340W        W41434  21.023   0.327  27.484 -0.1083 -0.0723 -0.1868
98341W        W41435  22.266  32.472  29.068 -0.0190 -0.1876  0.1429
98342W        W41436  21.732  32.128  29.316  0.0133 -0.0262  0.0535
98343W        W41437  20.022   0.678  29.070  0.1502 -0.2630 -0.2873
98344W        W41438  18.811  33.789  28.125  0.1734  0.3072  0.4774
98345W        W41439  21.178  34.267   0.145  0.1175  0.1283  0.1793
98346W        W41440  20.197  34.281  28.248  0.2257 -0.1014 -0.0210
98347W        W41441  21.889  33.802  31.760  0.3070 -0.2650  0.2787
98348W        W41442  20.833  34.645  26.974  0.0142  0.5278  0.3054
98349W        W41443  19.089  34.500  30.691 -0.1985  0.1445  0.2041
98350W        W41444  18.330  34.051  29.589 -0.1007  0.2476 -0.2258
98351W        W41445  19.251   1.213  28.208 -0.1582 -0.0976 -0.0723
98352W        W41446  20.424  33.829  28.178  0.1336  0.3232 -0.1970
98353W        W41447  21.048  33.065   0.533  0.1184  0.0016  0.1803
98354W        W41448  22.090  31.839  28.426  0.1359  0.3504  0.0576
98355W        W41449  19.810  33.873  30.329 -0.0800 -0.0850 -0.1389
98356W        W41450  22.354  32.007  29.979  0.2656 -0.0154  0.2456
98357W        W41451  20.808  34.062  30.805  0.1877  0.0705  0.0353
98358W        W41452  21.042   0.755  30.101 -0.2251  0.3624 -0.5131
98359W        W41453  19.796   0.586  29.565  0.0123  0.1395  0.1702
98360W        W41454  18.584  33.009  31.760 -0.0806  0.0847 -0.1320
98361W        W41455  20.062  32.743  28.765  0.0298  0.3404 -0.0088
98362W        W41456  20.938  33.587  28.219  0.1607  0.2192 -0.1201
98363W        W41457  21.019  32.352  26.060  0.2614  0.3761 -0.0971
98364W        W41458  21.483  34.051  30.908  0.0023 -0.0831 -0.0341
98365W        W41459  21.407  34.420  28.753  0.1347 -0.1411 -0.2226
98366W        W41460  20.616  34.643  28.291  0.1883  0.3101 -0.3577
98367W        W41461  19.637  34.149  30.664 -0.2014 -0.0587  0.0842
98368W        W41462  19.106  32.997  30.873  0.0415  0.1460  0.2499
98369W        W41463  22.121  32.750  30.912 -0.0045 -0.2773  0.0188
98370W        W41464  19.809  34.290  27.449 -0.1362 -0.2777  0.1084
98371W        W41465  19.771   1.020  29.333  0.2987  0.0729 -0.3165
98372W        W41466  21.561  31.907  30.903 -0.2027  0.0490  0.4072
98373W        W41467  21.520  34.624  29.879  0.2239 -0.1693 -0.1042
98374W        W41468  18.648  32.577  28.585  0.0657  0.4081  0.3032
98375W        W41469  21.284   0.818  27.435 -0.0868 -0.2865 -0.2655
98376W        W41470  19.847  34.225  29.898 -0.1284 -0.4043  0.1918
98377W        W41471  22.367  33.006   0.159 -0.0864  0.1785  0.3476
98378W        W41472  20.844  34.309  28.655 -0.0567  0.1153 -0.0072
98379W        W41473  20.733  33.876  29.147  0.1060  0.4036  0.2174
98380W        W41474  20.186  34.489  29.631  0.0297 -0.0041  0.0306
98381W        W41475  21.759  33.842  27.587 -0.2927 -0.1657  0.2590
98382W        W41476  22.227   0.032   0.712 -0.3817 -0.0067 -0.1021
98383W        W41477  20.425  34.157  27.282 -0.0669  0.1116 -0.0453
98384W        W41478  18.257  32.411  29.095  0.1492  0.1846 -0.1919
98385W        W41479  19.483  33.723  29.858  0.1002 -0.0281 -0.0514
98386W        W41480  18.725   1.268  27.989 -0.1305 -0.4005  0.2435
98387W        W41481  19.670  34.455  29.472  0.1048  0.2174 -0.1612
98388W        W41482  18.668  32.720  27.075  0.1030 -0.1808 -0.1143
98389W        W41483  22.086  33.374  28.567 -0.2588  0.1884  0.0489
98390W        W41484  21.765   0.853  28.312  0.2497 -0.1716  0.0535
98391W        W41485  18.637  33.230  29.376 -0.1178 -0.2085  0.0466
98392W        W41486  20.996  32.432  28.885  0.0175 -0.0755 -0.1933
98393W        W41487  18.964  33.904  30.031 -0.2770 -0.0222 -0.2654
98394W        W41488  21.924  33.866  30.717  0.2249 -0.0629  0.0088
98395W        W41489  22.226  32.014  29.504  0.0227 -0.0113  0.1386
98396W        W41490  20.911  32.260   0.059 -0.4668  0.1229 -0.3220
98397W        W41491  20.977   0.323  29.056  0.2636  0.0680  0.0286
98398W        W41492  19.452  33.842  28.627  0.0839 -0.0794 -0.3184
98399W        W41493  21.175  33.526  29.171 -0.1223  0.1825  0.0665
98400W        W41494  22.207  32.238  28.112 -0.1126 -0.4368  0.0310
98401W        W41495  19.391   0.622  31.244 -0.1845 -0.3244 -0.0036
98402W        W41496  18.631  34.438  28.573  0.0133  0.1318  0.0973
98403W        W41497  21.098  32.691  31.904  0.0543 -0.0875 -0.0799
98404W        W41498  19.565  33.670  31.867 -0.3676  0.1557 -0.1719
98405W        W41499  19.794   0.152  29.842 -0.2971  0.1162 -0.3613
98406W        W41500  20.450  33.030  28.573  0.0096 -0.0175 -0.1998
98407W        W41501  19.089  33.520  28.451 -0.1192 -0.1630 -0.1579
98408W        W41502  17.797  33.986  28.841 -0.2168 -0.1352 -0.1062
98409W        W41503  19.260  32.286  28.371  0.1948 -0.2893  0.1811
98410W        W41504  21.372  33.100   0.069 -0.0927  0.0222 -0.3491
98411W        W41505  20.625  31.907  31.497  0.0726  0.2834  0.1236
98412W        W41506  18.529  33.782  26.116 -0.0868  0.0828  0.3689
98413W        W41507  21.336   0.645  29.284  0.0243 -0.2055 -0.1329
98414W        W41508  17.653  31.982  31.129  0.0772  0.1402  0.2957
98415W        W41509  20.590  32.751  31.049  0.1904  0.0538  0.0113
98416W        W41510  21.405  34.274  28.215  0.0072  0.0293 -0.1155
98417W        W41511  18.131  33.631  31.490 -0.1347  0.0427  0.0385
98418W        W41512  19.629  33.418  28.322 -0.0021  0.1016  0.1143
98419W        W41513  21.139  32.991  27.369 -0.0640  0.0842  0.1168
98420W        W41514  19.761  33.965  29.394  0.0661 -0.0142  0.3141
98421W        W41515  20.357  33.958  29.529 -0.0986  0.0493 -0.1943
98422W        W41516  19.692   0.472  30.829  0.2340  0.1135 -0.1947
98423W        W41517  19.704   0.176  27.718 -0.0142 -0.4159  0.2373
98424W        W41518  22.753   0.454  27.337  0.2036 -0.1131 -0.0440
98425W        W41519  19.872  32.472  29.129 -0.3458  0.3321 -0.0083
98426W        W41520  19.308  34.546  27.541  0.2207  0.1709 -0.2865
98427W        W41521  19.982   0.286  28.844 -0.0708  0.0298  0.0665
98428W        W41522  22.191  33.189  30.750  0.1257 -0.0515 -0.1160
98429W        W41523  19.710  34.348  27.952 -0.2554 -0.1702 -0.0671
98430W        W41524  20.964   0.106  28.596 -0.0637 -0.0793  0.2297
98431W        W41525  20.013  32.456   0.488 -0.0185  0.0369 -0.0768
98432W        W41526  20.106   1.321  31.025  0.1436  0.1993  0.0730
98433W        W41527  18.556  31.619  30.792 -0.0908 -0.0047 -0.2147
98434W        W41528  21.661  33.225   0.511 -0.1450  0.0624  0.2952
98435W        W41529  21.535  32.502  31.467  0.1268 -0.0829 -0.1130
98436W        W41530  21.822  33.885   0.847 -0.1108  0.1322 -0.0903
98437W        W41531  19.862  32.348  30.456 -0.1546  0.3846  0.1159
98438W        W41532  21.360  33.988  31.693  0.1670 -0.0753 -0.2557
98439W        W41533  19.863  32.224  27.724 -0.1187 -0.3484 -0.0468
98440W        W41534  20.041  34.172   0.544 -0.0136 -0.1445  0.2086
98441W        W41535  20.098  32.964  30.463 -0.0456 -0.0648  0.1099
98442W        W41536  22.233  34.157  31.126  0.0523  0.0479  0.0654
98443W        W41537  22.266  32.477   0.042 -0.1167  0.0234  0.0392
98444W        W41538  21.021  32.277   0.864  0.1729 -0.0731 -0.4302
98445W        W41539  21.044  32.699  31.317  0.1152 -0.0254  0.2661
98446W        W41540  19.652  33.048  31.058  0.1438  0.2855  0.0768
98447W        W41541  18.002  34.310   0.505 -0.1260  0.0436  0.0016
98448W        W41542  18.625  33.512  31.491  0.2399 -0.0346 -0.0738
98449W        W41543  21.456  32.773   0.447 -0.0464 -0.2050  0.1483
98450W        W41544  19.618  32.839  29.552  0.2940 -0.3680 -0.2124
98451W        W41545  20.000   0.262   0.020  0.1083  0.0009  0.0713
98452W        W41546  19.833   0.336  31.308 -0.0275  0.4359  0.1227
98453W        W41547  20.663   1.264   0.919 -0.2510 -0.1010 -0.0036
98454W        W41548  19.008  33.311  31.782  0.1654 -0.2361  0.0192
98455W        W41549  19.422  33.996  31.456  0.0682  0.0106  0.0838
98456W        W41550  19.645  32.829  31.513  0.1927 -0.0319 -0.1492
98457W        W41551  21.421  33.253   0.998  0.0548 -0.1671 -0.0705
98458W        W41552  21.364  31.520  31.765 -0.0266  0.1014  0.0280
98459W        W41553  22.565  32.395  31.468  0.0474 -0.0374 -0.3868
98460W        W41554  20.291  33.909  30.206  0.0665  0.2084 -0.3184
98461W        W41555  20.792  33.518   0.406  0.0499  0.1386 -0.2764
98462W        W41556  19.096   0.074   0.964  0.0822 -0.1894 -0.1764
98463W        W41557  18.047  32.404  30.954  0.1718  0.0920 -0.0523
98464W        W41558  22.082   0.044  31.837  0.1447 -0.1040  0.0826
98465W        W41559  22.698   2.694  17.941  0.0262 -0.0814  0.3422
98466W        W41560  21.825   2.480  17.390  0.0728 -0.1588  0.0437
98467W        W41561  24.581   0.073  16.952 -0.0119 -0.0847  0.0042
98468W        W41562  24.731   0.899  17.014 -0.1266 -0.0413 -0.0699
98469W        W41563  21.927  34.650  17.685  0.0341 -0.1589  0.0246
98470W        W41564  24.590   1.400  17.404 -0.2035 -0.2124  0.3205
98471W        W41565  22.162   0.483  19.683  0.1995 -0.0495  0.1614
98472W        W41566  24.568   2.337  17.188 -0.0422  0.0978 -0.1677
98473W        W41567  23.624   3.321  18.664  0.0844 -0.1093  0.0242
98474W        W41568  23.168   2.630  15.461 -0.2465 -0.0034 -0.1140
98475W        W41569  23.511   1.740  18.600  0.2011 -0.2975 -0.1339
98476W        W41570  22.667   2.800  19.621  0.0571 -0.1816  0.3010
98477W        W41571  23.009  34.322  15.537 -0.0847 -0.1673  0.0708
98478W        W41572  20.459  33.812  18.045  0.0431  0.1369  0.1353
98479W        W41573  24.846   2.136  18.769 -0.0555  0.6123  0.0584
98480W        W41574  22.049   0.818  16.628 -0.0564  0.2809 -0.0181
98481W        W41575  22.837   0.995  16.551  0.0556  0.1866  0.0429
98482W        W41576  22.483   0.587  16.672 -0.1667 -0.1114  0.0471
98483W        W41577  22.372   3.051  16.369  0.1379 -0.2694  0.0645
98484W        W41578  22.625   0.603  18.265 -0.4103  0.0772 -0.0922
98485W        W41579  24.134  32.736  19.948 -0.2604 -0.1432 -0.1891
98486W        W41580  23.837   2.915  17.318 -0.2126 -0.0998 -0.1587
98487W        W41581  23.264   1.781  16.100  0.2735  0.2421 -0.0372
98488W        W41582  22.232   0.729  18.621 -0.3564  0.1028 -0.0254
98489W        W41583  21.930   2.039  17.111  0.1789 -0.0650  0.0511
98490W        W41584  24.412   1.604  18.778 -0.3285 -0.2121 -0.3688
98491W        W41585  24.027   1.109  16.575  0.2743 -0.4205 -0.1541
98492W        W41586  24.065   3.327  17.150 -0.0700  0.2101 -0.2043
98493W        W41587  25.026   3.883  17.463  0.2276  0.1308  0.1564
98494W        W41588  24.953   2.308  20.086 -0.0621  0.1552  0.2165
98495W        W41589  22.831   1.973  17.008 -0.1075  0.0667 -0.0985
98496W        W41590  20.874   3.416  17.689  0.1183 -0.2071  0.3822
98497W        W41591  24.026   2.469  17.414  0.3448 -0.0742  0.2827
98498W        W41592  25.435   1.050  18.047 -0.0362 -0.1823  0.1494
98499W        W41593  24.523   3.144  18.678 -0.1298  0.2492  0.1039
98500W        W41594  22.951   2.330  19.703 -0.0633  0.1094 -0.0621
98501W        W41595  20.628   4.594  15.844 -0.0315  0.1243 -0.0904
98502W        W41596  23.150   3.100  18.820 -0.0156  0.1964 -0.0773
98503W        W41597  23.158   3.021  19.844  0.3520 -0.3242  0.1821
98504W        W41598  24.730   2.438  19.176 -0.5327  0.2622  0.2977
98505W        W41599  22.350   1.121  16.920  0.0740  0.1784 -0.0861
98506W        W41600  22.714   1.847  15.945 -0.4085  0.0055  0.1933
98507W        W41601  23.232   1.729  16.737 -0.0253  0.1709 -0.3334
98508W        W41602  21.850   1.649  18.509  0.1124 -0.1492  0.0172
98509W        W41603  22.005   1.342  18.007 -0.0090 -0.1241 -0.1436
98510W        W41604  23.213   0.051  19.824  0.0686  0.3591  0.0424
98511W        W41605  22.471   2.315  16.885  0.0471 -0.2114  0.0708
98512W        W41606  24.290   0.990  17.471  0.2793 -0.0226  0.0470
98513W        W41607  22.779   0.626  16.091  0.1513 -0.1175 -0.1157
98514W        W41608  24.077   1.692  16.927 -0.0809  0.0925  0.0025
98515W        W41609  23.405  34.533  18.141  0.0654 -0.0999  0.3211
98516W        W41610  22.284   2.541  17.321 -0.0952 -0.0865 -0.2694
98517W        W41611  23.559  33.562  18.050  0.2108 -0.1575 -0.0371
98518W        W41612  25.203   2.239  17.865  0.1688 -0.2398 -0.0903
98519W        W41613  23.049   0.551  16.489 -0.0090  0.6542 -0.1410
98520W        W41614  24.480   2.560  18.678  0.0187  0.5441  0.1855
98521W        W41615  23.718   3.534  19.184  0.2885 -0.4552  0.2193
98522W        W41616  21.160   2.336  17.429  0.0466 -0.1195  0.0900
98523W        W41617  25.066   2.577  16.491  0.1235 -0.0179  0.2081
98524W        W41618  25.060   3.249  17.024  0.2689 -0.1393  0.1750
98525W        W41619  24.248   2.988  15.926  0.0688  0.0907  0.0058
98526W        W41620  21.822   1.048  17.067 -0.0857 -0.1852 -0.4317
98527W        W41621  20.201   2.067  20.432  0.0531  0.2335 -0.2196
98528W        W41622  20.817   1.170  19.396 -0.0317  0.0613  0.1795
98529W        W41623  22.317   0.246  17.008  0.0666  0.0044 -0.0698
98530W        W41624  24.354   2.312  18.262 -0.0220 -0.1487  0.2817
98531W        W41625  19.812   2.097  18.694 -0.2079  0.0437  0.2225
98532W        W41626  24.858  32.849  17.413  0.3132 -0.2586 -0.0964
98533W        W41627  22.378   2.010  17.412 -0.0533 -0.0458  0.2389
98534W        W41628  24.678   2.953  17.236 -0.2324 -0.3886 -0.2388
98535W        W41629  24.073   2.237  16.185 -0.0829  0.2462  0.0864
98536W        W41630  24.252  33.395  16.969 -0.1046 -0.1246  0.0654
98537W        W41631  24.052   0.687  19.573 -0.0074 -0.1154  0.1082
98538W        W41632  21.465   2.811  16.309  0.0410 -0.1184 -0.1809
98539W        W41633  22.940   1.443  15.786  0.2668  0.0831 -0.0783
98540W        W41634  25.345   3.019  18.319 -0.0431 -0.0281  0.4065
98541W        W41635  25.782   0.952  15.577 -0.2004  0.1415  0.1132
98542W        W41636  22.718   2.374  17.526  0.0797 -0.1241  0.0907
98543W        W41637  22.525   0.314  18.695  0.0304  0.0545 -0.1867
98544W        W41638  23.792   2.866  20.430  0.0161  0.0869  0.1999
98545W        W41639  22.403   3.262  15.609 -0.1976  0.2465 -0.0801
98546W        W41640  20.663   2.106  18.394 -0.0293  0.2657 -0.1414
98547W        W41641  21.210   0.976  16.230 -0.1387 -0.0050 -0.1725
98548W        W41642  20.879   0.161  19.106 -0.2144 -0.0456 -0.0522
98549W        W41643  22.680   0.892  17.747 -0.0977 -0.0598  0.2012
98550W        W41644  24.369   0.038  16.385 -0.0774 -0.4600 -0.2950
98551W        W41645  21.247   1.222  19.083 -0.1962  0.0949 -0.1418
98552W        W41646  25.245   0.121  17.840  0.1418 -0.1068 -0.0576
98553W        W41647  21.177   1.982  16.670  0.0272  0.1661  0.4259
98554W        W41648  24.617   4.597  15.967  0.2157  0.1130 -0.2468
98555W        W41649  26.440   1.068  16.333  0.1525 -0.1165 -0.0922
98556W        W41650  23.725   1.829  16.329  0.1512 -0.0495  0.3446
98557W        W41651  21.881   0.919  19.325  0.1002  0.2529 -0.0611
98558W        W41652  21.401  34.582  15.978 -0.0088  0.0830 -0.3143
98559W        W41653  22.261   1.411  18.791 -0.1821  0.2474 -0.1677
98560W        W41654  20.560   0.137  18.200 -0.4087 -0.1104 -0.5827
98561W        W41655  23.962   1.398  19.798  0.1955 -0.0441  0.1319
98562W        W41656  22.458  33.712  16.438 -0.0489 -0.0553 -0.1677
98563W        W41657  24.544  34.005  18.735  0.3676 -0.2876  0.0779
98564W        W41658  23.519   1.377  17.672 -0.0530 -0.1063 -0.0786
98565W        W41659  20.166   2.666  15.806  0.1762 -0.0704  0.2059
98566W        W41660  24.984   0.628  18.606 -0.0508 -0.1973  0.2493
98567W        W41661  22.779   2.585  16.536  0.0688 -0.2747  0.0708
98568W        W41662  26.790   3.807  19.740  0.0296  0.1471  0.0457
98569W        W41663  24.204   2.693  16.352 -0.1092 -0.0264  0.2408
98570W        W41664  21.543   1.113  18.523 -0.0265 -0.1642 -0.1682
98571W        W41665  22.338   0.710  16.198  0.1662  0.1075  0.2567
98572W        W41666  22.950   3.031  16.451  0.1310  0.0548 -0.0290
98573W        W41667  23.870   2.249  18.419 -0.0560  0.0696 -0.1459
98574W        W41668  22.409   1.896  15.529 -0.0307  0.1818 -0.0392
98575W        W41669  25.296   2.062  17.432 -0.2056  0.0046 -0.2709
98576W        W41670  22.239   2.051  16.091  0.2000 -0.0778  0.1138
98577W        W41671  20.758   0.614  18.341  0.0850 -0.0610 -0.0592
98578W        W41672  24.033  34.328  18.731 -0.2579 -0.0371 -0.1254
98579W        W41673  24.188   1.194  18.361 -0.2279 -0.0495  0.0019
98580W        W41674  23.673   0.303  18.121  0.1171  0.1589  0.1294
98581W        W41675  22.314  34.415  15.703  0.2849  0.1150 -0.0228
98582W        W41676  25.269   4.050  17.068  0.2406 -0.1073  0.1055
98583W        W41677  20.417   3.924  16.041 -0.3147  0.1036 -0.0201
98584W        W41678  21.510   2.938  17.422  0.1933  0.0239 -0.2035
98585W        W41679  22.893   2.472  17.101 -0.0226  0.1731  0.2830
98586W        W41680  24.998   0.750  18.088 -0.2422  0.1064  0.3942
98587W        W41681  22.237   2.748  19.235 -0.0489 -0.1774 -0.0227
98588W        W41682  23.572   1.122  19.722 -0.1837  0.3771 -0.0463
98589W        W41683  21.446   0.254  17.468 -0.3896  0.0219 -0.0175
98590W        W41684  21.827   2.304  19.644 -0.2550  0.1205 -0.0771
98591W        W41685  25.733   0.218  16.948  0.0434 -0.0354  0.4067
98592W        W41686  24.404  34.557  15.809 -0.1151  0.2550 -0.0111
98593W        W41687  24.946   4.023  19.509  0.2186 -0.2197  0.1363
98594W        W41688  24.761   1.075  18.381 -0.0434 -0.0065  0.1787
98595W        W41689  23.641   0.626  15.521  0.0805  0.2196 -0.1521
98596W        W41690  23.506   0.126  15.831  0.1060  0.2084  0.4329
98597W        W41691  20.391   1.553  19.468  0.1780  0.0260  0.0873
98598W        W41692  23.294   1.100  17.315 -0.0884 -0.4672 -0.1561
98599W        W41693  23.612   2.616  18.099 -0.2489 -0.0559 -0.2295
98600W        W41694  23.401   1.050  15.676  0.0497 -0.1237  0.0674
98601W        W41695  24.492   3.418  16.828 -0.3023 -0.0146 -0.4184
98602W        W41696  21.108   0.797  18.679 -0.0446 -0.1317  0.1531
98603W        W41697  23.313   3.044  20.334  0.3695  0.2103 -0.3155
98604W        W41698  22.750   1.419  16.846 -0.6498  0.1399  0.0109
98605W        W41699  22.427   1.196  18.189 -0.1835  0.0375 -0.2758
98606W        W41700  21.629   1.617  16.888 -0.2672  0.1443 -0.0887
98607W        W41701  23.807  34.132  18.275 -0.0402  0.0534 -0.1642
98608W        W41702  21.717   4.096  16.887 -0.0817 -0.2455  0.2002
98609W        W41703  23.751   1.402  19.286  0.1740  0.1958  0.1100
98610W        W41704  23.548  33.902  19.890 -0.0493 -0.1529  0.0726
98611W        W41705  22.303   0.981  19.073  0.3097  0.1141 -0.1011
98612W        W41706  24.256   0.697  20.336 -0.5006  0.0707  0.2751
98613W        W41707  24.293   0.523  16.484  0.0293  0.2037  0.2235
98614W        W41708  24.244   1.671  19.222  0.0261  0.0730 -0.0543
98615W        W41709  23.025   0.205  15.966 -0.2240  0.2071  0.1835
98616W        W41710  23.352  33.450  19.738  0.0218 -0.2294  0.0722
98617W        W41711  21.792   1.987  18.122 -0.2748  0.2069  0.3518
98618W        W41712  22.379   3.078  19.915  0.3071 -0.1516  0.1280
98619W        W41713  23.795   1.924  20.106  0.1283 -0.0536  0.2665
98620W        W41714  23.104   0.768  16.969 -0.0642  0.0052  0.0825
98621W        W41715  22.691   0.143  19.124 -0.1099  0.2425 -0.1586
98622W        W41716  22.749   1.112  17.199  0.0090  0.0287  0.1035
98623W        W41717  21.958   3.075  18.252  0.2133  0.1224 -0.2365
98624W        W41718  22.418   1.444  15.784 -0.0993 -0.0761 -0.1624
98625W        W41719  21.785  34.604  18.148  0.0315  0.2074 -0.1743
98626W        W41720  23.677   3.140  18.197  0.0227  0.3200 -0.0318
98627W        W41721  22.136   2.335  15.149  0.3542 -0.1155 -0.0357
98628W        W41722  23.368   3.016  17.222  0.0218 -0.2953 -0.1899
98629W        W41723  23.547   2.306  17.628  0.2956  0.1365 -0.3071
98630W        W41724  25.623   0.970  18.558 -0.1709  0.0578  0.0199
98631W        W41725  22.475   3.094  18.206 -0.0378 -0.3298  0.4158
98632W        W41726  23.799   1.907  17.352  0.2709 -0.0178  0.0325
98633W        W41727  21.648   1.123  16.442 -0.1077 -0.2711  0.1190
98634W        W41728  23.396  34.220  17.775 -0.1315 -0.3411 -0.3632
98635W        W41729  24.352   0.936  16.130 -0.1588 -0.0769  0.0213
98636W        W41730  22.239   0.349  17.479 -0.0980 -0.0023 -0.1882
98637W        W41731  23.672   0.953  18.773  0.0454  0.1073  0.1786
98638W        W41732  22.785   3.426  17.994 -0.0291  0.1412 -0.1283
98639W        W41733  23.933   2.246  17.898  0.0057 -0.1910 -0.0689
98640W        W41734  23.532  34.469  15.490  0.2579 -0.3946 -0.1113
98641W        W41735  24.075   3.814  16.621 -0.1382  0.1189 -0.3567
98642W        W41736  22.286   1.917  18.729 -0.0355  0.0522 -0.3845
98643W        W41737  22.616  33.530  16.007  0.2413  0.2507 -0.0137
98644W        W41738  24.827   1.415  19.259  0.1205 -0.0287  0.3605
98645W        W41739  22.168   0.834  17.934  0.0325  0.3584 -0.3355
98646W        W41740  21.997   3.731  16.647  0.3428 -0.1304 -0.0314
98647W        W41741  24.044   3.059  18.843  0.2087 -0.0851  0.1340
98648W        W41742  23.110   1.598  17.239 -0.1216 -0.1704 -0.0087
98649W        W41743  22.063   1.736  17.712  0.3723 -0.1341  0.1156
98650W        W41744  22.286   0.475  19.165  0.3655  0.0909  0.1135
98651W        W41745  25.279   2.163  19.686 -0.0238  0.0320  0.2614
98652W        W41746  22.718   0.332  17.725 -0.0528 -0.0186 -0.4259
98653W        W41747  22.839   0.304  16.891 -0.2997  0.2278  0.1742
98654W        W41748  23.929   0.075  16.563 -0.1563  0.1926  0.0284
98655W        W41749  24.622   1.447  16.865  0.0431 -0.2588  0.3789
98656W        W41750  22.753   1.697  18.105 -0.2320 -0.1334 -0.0239
98657W        W41751  22.510   2.044  17.930 -0.0521 -0.1366  0.0531
98658W        W41752  22.973   1.731  18.911 -0.1964 -0.0341  0.3497
98659W        W41753  24.845   3.327  16.208 -0.4259  0.1284  0.1776
98660W        W41754  24.022   1.340  18.805  0.3055  0.0703 -0.0009
98661W        W41755  23.044   2.870  16.885 -0.0168 -0.2170  0.4557
98662W        W41756  22.040   1.133  18.459  0.0985 -0.1823 -0.1093
98663W        W41757  22.481   1.343  16.435  0.0954  0.2596  0.3406
98664W        W41758  23.430   0.988  17.975 -0.0294  0.0151 -0.2910
98665W        W41759  23.323   2.066  17.241 -0.4262  0.1681 -0.1337
98666W        W41760  22.021   2.212  15.633 -0.1400 -0.0818  0.0868
98667W        W41761  22.388   1.339  17.689 -0.2630  0.1816  0.0905
98668W        W41762  25.410   0.622  18.321  0.3076 -0.1076  0.0713
98669W        W41763  22.973   3.053  17.736  0.1303  0.0114 -0.2188
98670W        W41764  21.942   0.323  16.619 -0.0870  0.2759 -0.0648
98671W        W41765  26.268   1.499  19.243  0.0447  0.3847  0.2822
98672W        W41766  24.670   0.796  15.663  0.0525  0.2577 -0.4601
98673W        W41767  23.941   0.109  19.778 -0.1506 -0.0193 -0.0495
98674W        W41768  22.259   0.144  18.040 -0.0074  0.1537  0.1091
98675W        W41769  24.572   1.026  16.539  0.0467 -0.0300  0.3086
98676W        W41770  21.014   1.044  18.259  0.0616 -0.1202  0.1199
98677W        W41771  25.727   3.284  19.743 -0.0312 -0.1513  0.0984
98678W        W41772  22.754   2.336  18.240 -0.0786  0.2288 -0.3027
98679W        W41773  24.883  34.551  18.069 -0.1559 -0.2206 -0.1896
98680W        W41774  21.090  33.834  17.219  0.0440  0.2322 -0.0014
98681W        W41775  22.795   2.183  18.775 -0.2883  0.1593  0.1142
98682W        W41776  24.152   0.313  18.282 -0.3265 -0.0671  0.0883
98683W        W41777  23.491   2.098  15.466 -0.1356 -0.1604  0.1145
98684W        W41778  23.958  33.715  17.300 -0.0198  0.1556  0.0981
98685W        W41779  23.313   1.834  17.678 -0.1452  0.1495 -0.0797
98686W        W41780  24.007   0.575  17.333 -0.2715  0.4309 -0.0038
98687W        W41781  22.960   2.198  16.232 -0.1019  0.0995  0.0864
98688W        W41782  22.058   1.408  16.644 -0.3025  0.0734 -0.0149
98689W        W41783  21.457   1.106  19.521 -0.0454 -0.0988  0.0939
98690W        W41784  24.329  34.456  18.342 -0.2770 -0.2580 -0.0284
98691W        W41785  23.271   0.107  18.579  0.3778  0.0763 -0.0321
98692W        W41786  24.113   0.764  18.978 -0.2194 -0.0872  0.2468
98693W        W41787  25.811   2.257  18.312  0.0165 -0.2146 -0.1757
98694W        W41788  23.465   1.362  18.894 -0.2034  0.0943  0.1410
98695W        W41789  21.633  34.376  20.162  0.2849 -0.0561 -0.1765
98696W        W41790  25.152   3.134  19.345  0.1985 -0.0707  0.0152
98697W        W41791  25.188   0.811  16.848 -0.0642  0.0293 -0.1547
98698W        W41792  24.236   1.172  19.321 -0.1068 -0.1174  0.1315
98699W        W41793  24.648   0.464  17.275  0.2734  0.0678  0.1552
98700W        W41794  24.148   0.765  15.651 -0.2036 -0.0794 -0.1786
98701W        W41795  21.882   0.552  17.113 -0.1434  0.2090 -0.1187
98702W        W41796  25.421   1.972  20.152  0.2148  0.0447  0.2013
98703W        W41797  23.782   0.594  16.599 -0.0810  0.1371 -0.0264
98704W        W41798  24.783   0.954  20.406  0.2802 -0.0649 -0.0668
98705W        W41799  22.253   3.546  16.225 -0.0467 -0.2454 -0.0488
98706W        W41800  24.030   2.753  17.902  0.0839 -0.0231  0.0571
98707W        W41801  23.086   1.039  16.059  0.1487 -0.0320  0.0251
98708W        W41802  20.867   0.414  19.540  0.0319 -0.1397 -0.1033
98709W        W41803  23.068   2.642  18.919  0.1563  0.0181 -0.2149
98710W        W41804  22.994   1.450  16.382  0.1807  0.2509 -0.0082
98711W        W41805  24.159   2.394  16.907 -0.1380  0.1502  0.0697
98712W        W41806  23.380   3.361  17.860 -0.3396  0.0256 -0.2048
98713W        W41807  25.710   1.717  19.726 -0.2095 -0.2273  0.0524
98714W        W41808  23.858  34.591  17.002 -0.2555  0.0240 -0.0734
98715W        W41809  24.526   1.450  19.621  0.0146  0.0926  0.1614
98716W        W41810  21.933   2.871  16.382  0.0517  0.0697  0.2368
98717W        W41811  23.445  34.445  16.687 -0.0289  0.4764 -0.0416
98718W        W41812  22.718   5.111  17.344  0.2641 -0.1046  0.2374
98719W        W41813  21.633   2.227  19.040 -0.2250 -0.1034  0.0550
98720W        W41814  23.667   3.380  17.471  0.0040  0.0062  0.0905
98721W        W41815  23.994  34.224  19.662 -0.0461  0.2972  0.0473
98722W        W41816  24.725  33.600  18.452 -0.4192 -0.0780 -0.1001
98723W        W41817  23.498   2.034  18.128  0.1931  0.3240  0.3733
98724W        W41818  25.588   1.960  19.276  0.0377  0.1742 -0.1811
98725W        W41819  24.153   3.712  17.538  0.0620  0.1795  0.1104
98726W        W41820  22.669   2.908  17.339 -0.1855  0.1300 -0.2457
98727W        W41821  24.691   4.113  18.084 -0.3202  0.1224 -0.2091
98728W        W41822  24.403   1.844  17.262 -0.1266 -0.1731  0.0051
98729W        W41823  23.723   0.173  17.423  0.0197  0.1821  0.4412
98730W        W41824  21.765   0.401  20.538 -0.1436 -0.0041  0.3397
98731W        W41825  23.817   1.811  19.510 -0.1695 -0.0071  0.0888
98732W        W41826  24.107   1.484  17.525  0.0897 -0.4791  0.2042
98733W        W41827  22.536  34.110  18.604  0.0305 -0.2860 -0.1221
98734W        W41828  23.293   3.117  15.902  0.0217 -0.1243  0.1244
98735W        W41829  21.477   2.584  20.708 -0.0382 -0.1105  0.0480
98736W        W41830  21.663   0.974  18.073 -0.1949 -0.2126  0.3459
98737W        W41831  21.075   3.843  17.634 -0.4267  0.3811 -0.1562
98738W        W41832  25.307   1.025  15.404  0.1326  0.1633 -0.2797
98739W        W41833  23.697   1.444  16.603  0.2471 -0.0176  0.1424
98740W        W41834  23.660   3.770  18.315  0.1824  0.3055  0.5301
98741W        W41835  21.790   0.712  16.228  0.2314 -0.0603 -0.0871
98742W        W41836  20.772   2.590  18.589  0.1380 -0.1784  0.0317
98743W        W41837  20.313   3.413  17.582 -0.1300  0.2996  0.1349
98744W        W41838  23.896   3.353  16.640 -0.4216  0.4452  0.0739
98745W        W41839  22.084   1.446  17.270 -0.0447 -0.0378  0.1581
98746W        W41840  25.136   2.164  19.231  0.0453 -0.1428  0.2538
98747W        W41841  24.403   0.367  16.023 -0.1260  0.0097  0.2149
98748W        W41842  24.088   1.747  18.468  0.2868 -0.4963 -0.0998
98749W        W41843  24.474  34.352  17.354 -0.6211  0.0644  0.2296
98750W        W41844  25.355   3.066  18.862 -0.2676 -0.0638 -0.1776
98751W        W41845  22.944   1.340  17.635 -0.1949 -0.0704  0.1127
98752W        W41846  23.215  34.438  16.045  0.0218  0.0486 -0.1638
98753W        W41847  22.636   1.564  18.552  0.4395 -0.1208  0.1961
98754W        W41848  25.396   0.224  19.789 -0.2986  0.3793 -0.1182
98755W        W41849  22.256   2.883  18.591  0.0943 -0.1646  0.0097
98756W        W41850  23.351   2.662  16.469  0.2524 -0.1940  0.0929
98757W        W41851  21.334   2.380  16.172 -0.2906 -0.0528 -0.0527
98758W        W41852  23.872   1.687  18.002 -0.1913 -0.1331  0.2873
98759W        W41853  25.796   0.167  17.421 -0.0927 -0.0311  0.0576
98760W        W41854  23.509   1.365  16.086  0.1008  0.3810  0.1621
98761W        W41855  23.878   1.170  17.282  0.2441 -0.0025 -0.0900
98762W        W41856  23.066   3.682  17.601 -0.2943 -0.1302  0.1912
98763W        W41857  22.484   2.791  16.827  0.2529 -0.0474 -0.1893
98764W        W41858  23.591   2.424  17.047  0.2464 -0.0920  0.1518
98765W        W41859  22.108  34.538  16.783  0.0947 -0.2264  0.1089
98766W        W41860  25.047   1.216  17.148 -0.0757 -0.4381 -0.0184
98767W        W41861  20.538   2.282  20.045 -0.1777  0.1919 -0.1985
98768W        W41862  25.000  34.461  18.605 -0.0223 -0.1565 -0.1704
98769W        W41863  21.619   1.565  17.773 -0.0573 -0.0329  0.2608
98770W        W41864  23.822   0.921  16.058 -0.1863  0.2327 -0.1723
98771W        W41865  23.521   2.204  18.844  0.2543  0.1102  0.1255
98772W        W41866  21.394   0.031  18.466 -0.2181  0.1255  0.1330
98773W        W41867  23.627   1.183  15.223  0.0404  0.3058  0.3217
98774W        W41868  23.509   2.207  19.778 -0.0868 -0.1682 -0.4007
98775W        W41869  24.749   1.438  15.450 -0.0850 -0.3179 -0.0991
98776W        W41870  26.298   3.542  19.793  0.1757 -0.1542  0.1942
98777W        W41871  22.604  34.548  16.814  0.2165  0.1894 -0.1162
98778W        W41872  23.521   0.979  16.447 -0.3639 -0.4598  0.0722
98779W        W41873  23.134   0.695  17.570 -0.1530  0.1034  0.3022
98780W        W41874  23.206   2.602  17.418  0.0143 -0.3402  0.0738
98781W        W41875  25.436   3.609  19.147  0.0997 -0.1738 -0.1375
98782W        W41876  21.802  33.716  18.278 -0.0529 -0.0595  0.0077
98783W        W41877  24.632   1.463  16.004  0.2581  0.0863 -0.1893
98784W        W41878  23.974   1.036  17.846  0.3659  0.4869 -0.0214
98785W        W41879  23.031   3.406  16.785  0.0028 -0.1741  0.1157
98786W        W41880  23.549   1.500  17.085 -0.2691  0.1637  0.0013
98787W        W41881  24.281   3.760  18.111  0.1121 -0.4751 -0.1412
98788W        W41882  21.484   0.242  17.988  0.0006  0.1821  0.0239
98789W        W41883  24.943   3.880  15.938  0.0005  0.1862  0.0311
98790W        W41884  25.009   1.896  18.263 -0.0848  0.0626  0.0333
98791W        W41885  22.573   0.244  16.336 -0.0459  0.2428  0.2234
98792W        W41886  22.924   1.130  18.140  0.0440 -0.0878 -0.1038
98793W        W41887  22.034   2.509  16.842  0.2231 -0.0773 -0.1304
98794W        W41888  24.660  33.706  17.962  0.2996 -0.2952 -0.0051
98795W        W41889  25.361   1.534  19.463  0.0537 -0.0569  0.2014
98796W        W41890  22.974   2.715  16.041  0.1176  0.1087  0.3866
98797W        W41891  24.806   0.403  19.487 -0.1580  0.3001 -0.0053
98798W        W41892  24.241   3.480  19.050  0.0567 -0.1357 -0.0984
98799W        W41893  24.107   3.205  19.438  0.1615  0.0880  0.2745
98800W        W41894  22.303   2.475  16.331 -0.2091 -0.1509 -0.1235
98801W        W41895  22.146   2.228  19.152 -0.1228 -0.1200 -0.0199
98802W        W41896  23.661   1.975  16.796 -0.1069  0.1278 -0.0097
98803W        W41897  23.202   3.436  16.249  0.3445  0.1791 -0.0281
98804W        W41898  24.368   1.489  16.450 -0.2615  0.1096  0.0225
98805W        W41899  23.919  34.283  17.380 -0.0353 -0.3024  0.0337
98806W        W41900  24.277   1.923  17.785 -0.0348  0.1511 -0.0343
98807W        W41901  22.671   0.600  17.276  0.0867 -0.0774 -0.1015
98808W        W41902  25.631   1.457  17.744 -0.1589  0.3800 -0.1595
98809W        W41903  25.483  33.945  16.916 -0.3068 -0.4120 -0.0478
98810W        W41904  21.866   1.071  17.601  0.1624 -0.0907 -0.2420
98811W        W41905  20.945   1.380  16.044 -0.0107  0.0501 -0.0606
98812W        W41906  21.676   1.953  15.961 -0.1976 -0.0591  0.2366
98813W        W41907  22.582   1.586  17.262 -0.1590 -0.4122 -0.0894
98814W        W41908  24.422  34.689  19.847  0.0660  0.1660 -0.0971
98815W        W41909  23.486   0.524  19.687 -0.2545 -0.1081 -0.1516
98816W        W41910  21.235   1.064  17.772 -0.3273 -0.0900  0.1163
98817W        W41911  21.281   0.772  17.082 -0.0229 -0.1594 -0.3686
98818W        W41912  24.171   1.972  16.542 -0.3274  0.2007 -0.1414
98819W        W41913  22.353  34.584  18.474 -0.0969 -0.0413 -0.2406
98820W        W41914  20.932  34.072  17.939  0.0414  0.1385 -0.2126
98821W        W41915  23.058   1.940  18.387  0.0378 -0.0080 -0.0146
98822W        W41916  24.863   1.667  16.418  0.0033 -0.3633 -0.3262
98823W        W41917  23.137   0.221  17.292 -0.1358  0.2698  0.3356
98824W        W41918  27.157   2.779  18.481 -0.0612 -0.0836  0.2279
98825W        W41919  21.495   2.361  17.045 -0.0560 -0.1101  0.0844
98826W        W41920  23.088   1.391  18.579  0.1112 -0.0898  0.2140
98827W        W41921  24.084   0.218  20.255  0.1498  0.2240  0.0772
98828W        W41922  21.833   0.034  15.825  0.0057  0.2802 -0.0551
98829W        W41923  22.241   0.851  17.395 -0.0607 -0.1146  0.0355
98830W        W41924  23.704   2.849  16.800 -0.0227 -0.3214  0.1685
98831W        W41925  23.744   3.757  16.267  0.1419  0.2849  0.1600
98832W        W41926  23.760   2.251  19.302  0.0921  0.0591  0.1099
98833W        W41927  23.181   3.504  19.346 -0.2059  0.2624  0.0113
98834W        W41928  20.740  33.505  18.395  0.3560 -0.1164 -0.0560
98835W        W41929  24.334   1.227  15.651 -0.1205  0.2951  0.1962
98836W        W41930  23.984   2.457  18.854  0.0908 -0.1336  0.1116
98837W        W41931  25.271   1.496  15.486  0.1614 -0.3283 -0.0780
98838W        W41932  25.092  33.698  18.190  0.0198 -0.0863 -0.2053
98839W        W41933  23.232   1.251  16.826 -0.0063  0.1166  0.1261
98840W        W41934  22.378  34.662  19.552 -0.0583 -0.2121 -0.1631
98841W        W41935  23.352   2.652  19.522 -0.0292  0.3828 -0.2677
98842W        W41936  22.845   1.869  17.617  0.1027 -0.1254  0.0643
98843W        W41937  24.701  34.138  18.284 -0.2173 -0.0660 -0.1207
98844W        W41938  24.255  34.073  17.061  0.1063  0.0195 -0.0337
98845W        W41939  22.600   1.858  16.421 -0.2528  0.0597 -0.0055
98846W        W41940  21.777   0.576  17.672 -0.1256 -0.5414  0.0865
98847W        W41941  23.410   0.628  16.097 -0.1603  0.5262  0.1684
98848W        W41942  23.689   1.277  18.394 -0.1859  0.3146  0.1792
98849W        W41943  23.341   1.538  18.113 -0.0776  0.1205  0.0108
98850W        W41944  24.074   2.737  18.381 -0.1358  0.1451  0.0458
98851W        W41945  22.338   1.736  16.869  0.4288  0.1807 -0.0049
98852W        W41946  25.554   1.880  16.952 -0.2298 -0.2009  0.2123
98853W        W41947  23.437   4.254  18.056  0.0312 -0.0314 -0.1032
98854W        W41948  24.290   3.767  18.614 -0.0312 -0.0625 -0.2119
98855W        W41949  23.770   4.084  19.292 -0.1497  0.4207  0.1297
98856W        W41950  24.232   0.085  17.389 -0.0355 -0.0174 -0.2058
98857W        W41951  23.792  34.663  18.408  0.1913  0.1227 -0.0164
98858W        W41952  22.479  34.512  17.690 -0.3915 -0.0575 -0.1134
98859W        W41953  22.099   1.150  16.150  0.0814 -0.0268 -0.1584
98860W        W41954  23.690   0.461  18.691 -0.3111 -0.0220  0.0659
98861W        W41955  21.778   0.767  18.808 -0.0362  0.1051  0.0959
98862W        W41956  23.210  32.846  15.700 -0.0802 -0.0497  0.0647
98863W        W41957  23.584   2.854  18.571 -0.3734 -0.0670 -0.0047
98864W        W41958  24.428   1.327  17.872  0.2787 -0.2459 -0.1843
98865W        W41959  23.224   2.114  22.910 -0.2650  0.0429 -0.2412
98866W        W41960  21.887   1.413  19.479  0.0081 -0.0222  0.0289
98867W        W41961  24.450   0.558  19.847  0.1117  0.2920  0.1918
98868W        W41962  25.353   1.477  19.944 -0.1736  0.1286 -0.0485
98869W        W41963  21.594   1.439  21.396  0.1040  0.2041  0.2721
98870W        W41964  22.818   3.242  20.123 -0.2514 -0.0755  0.0359
98871W        W41965  22.830   0.464  21.921  0.1600  0.0528 -0.0221
98872W        W41966  24.245   1.307  21.573 -0.4788  0.1051 -0.2495
98873W        W41967  25.184   3.599  22.369 -0.0914 -0.1701 -0.1843
98874W        W41968  24.355   3.020  20.073 -0.0678 -0.1723 -0.0049
98875W        W41969  23.433   3.214  20.859 -0.1554  0.2318 -0.0153
98876W        W41970  22.964   3.156  21.122  0.0622  0.2082  0.3882
98877W        W41971  23.054   0.357  19.467 -0.1073 -0.2142  0.1349
98878W        W41972  21.818  34.189  21.891  0.1329  0.0072 -0.4970
98879W        W41973  24.786   0.749  22.290  0.0253 -0.0519 -0.2350
98880W        W41974  22.054   2.459  20.863  0.2959  0.0572  0.0630
98881W        W41975  23.853   1.355  22.445  0.1955  0.0101  0.0813
98882W        W41976  22.624   1.240  22.508  0.0243 -0.0077 -0.1717
98883W        W41977  22.995   2.935  19.308  0.0440  0.2312  0.1707
98884W        W41978  23.552   1.406  23.507  0.0464 -0.0353  0.4154
98885W        W41979  24.755  33.873  22.491  0.0997 -0.0367  0.1456
98886W        W41980  24.426   2.918  20.862  0.1501  0.0124  0.1759
98887W        W41981  22.392   2.435  18.775 -0.3290  0.1084 -0.2081
98888W        W41982  21.558   0.593  22.770 -0.3821 -0.1235  0.1143
98889W        W41983  23.372   1.540  22.596 -0.1366  0.3604 -0.0219
98890W        W41984  24.836  33.791  21.417 -0.1217 -0.0151  0.1135
98891W        W41985  24.211   1.379  22.829 -0.1102 -0.3247 -0.1387
98892W        W41986  24.094   2.878  21.847 -0.0157  0.0804  0.2203
98893W        W41987  23.988   3.985  20.896  0.0294  0.2490 -0.0862
98894W        W41988  24.722   1.367  23.511  0.0286  0.2913  0.0753
98895W        W41989  22.520   2.220  21.866 -0.0234  0.0437  0.0743
98896W        W41990  22.460   2.912  22.116  0.2189 -0.2747  0.0616
98897W        W41991  22.323   3.599  19.702 -0.2500 -0.1129 -0.0817
98898W        W41992  24.953   1.665  19.716  0.0515 -0.2704 -0.0517
98899W        W41993  25.286   3.184  22.679 -0.1148  0.0172  0.0667
98900W        W41994  23.403   3.434  22.910 -0.2557 -0.2256  0.1629
98901W        W41995  22.275   3.680  20.641  0.0459 -0.1326  0.0442
98902W        W41996  23.479   4.200  23.398  0.0640  0.0981  0.2117
98903W        W41997  23.619   2.303  23.614 -0.1273 -0.3067 -0.0346
98904W        W41998  23.869   1.528  24.148  0.4055  0.1223  0.0936
98905W        W41999  23.479   2.087  21.243  0.0207 -0.0551  0.1493
98906W        W42000  23.993   2.206  21.243  0.4602  0.0524  0.1455
98907W        W42001  24.227   2.740  21.308 -0.3106  0.0861 -0.2810
98908W        W42002  23.563   1.887  23.921 -0.0350 -0.2156 -0.0361
98909W        W42003  22.005   0.319  22.740  0.3128 -0.2564 -0.0646
98910W        W42004  26.220  34.454  23.100  0.1759 -0.0920  0.0245
98911W        W42005  23.190   3.613  18.860 -0.1736  0.1183 -0.2292
98912W        W42006  23.993   2.441  19.941 -0.0802 -0.0293 -0.1695
98913W        W42007  22.571  34.329  19.086  0.1725 -0.2325  0.2103
98914W        W42008  25.083   1.323  20.633  0.0450  0.0117 -0.0207
98915W        W42009  22.656  33.699  21.774  0.1603  0.1353  0.0194
98916W        W42010  21.631   5.100  23.377 -0.0649  0.1771  0.0796
98917W        W42011  23.956   0.175  23.298 -0.1619  0.1173  0.1184
98918W        W42012  24.860   3.122  20.846 -0.1312  0.0502 -0.1403
98919W        W42013  22.361   2.205  21.193  0.1308 -0.4748  0.4106
98920W        W42014  24.052   1.100  22.037  0.2182 -0.1446 -0.0471
98921W        W42015  22.830   3.701  22.122 -0.0561  0.2773  0.2480
98922W        W42016  23.082   0.930  20.098  0.1438 -0.1816  0.0291
98923W        W42017  24.902   3.359  18.949  0.0414 -0.0783  0.1654
98924W        W42018  26.931   2.024  21.908  0.0868  0.1218 -0.0126
98925W        W42019  23.914   3.318  19.946 -0.3463  0.2543 -0.1874
98926W        W42020  21.499   1.706  20.368  0.4091 -0.2715  0.1445
98927W        W42021  21.525   1.718  24.406  0.3012  0.0351 -0.2107
98928W        W42022  22.422  34.644  24.607 -0.3780 -0.1164 -0.3147
98929W        W42023  23.254   0.836  18.488 -0.0110  0.0042  0.2047
98930W        W42024  24.714   3.468  23.927  0.1745 -0.0036 -0.0016
98931W        W42025  21.202   3.327  22.052  0.0131  0.0885  0.0806
98932W        W42026  25.392   0.908  21.378  0.2213  0.2785  0.1216
98933W        W42027  22.218   1.784  21.748  0.2719 -0.1382  0.0273
98934W        W42028  24.533   2.681  23.140 -0.2394 -0.1728 -0.0033
98935W        W42029  24.676   2.180  19.654 -0.3574 -0.0636 -0.1305
98936W        W42030  25.134   0.703  21.802  0.3147 -0.2851 -0.3799
98937W        W42031  24.309  34.259  22.351 -0.2090 -0.0271 -0.0741
98938W        W42032  23.074   2.634  20.126 -0.1711  0.0033 -0.1156
98939W        W42033  22.178   1.156  20.386  0.0273  0.0311 -0.1400
98940W        W42034  24.890   3.068  22.362  0.3044 -0.2390  0.0541
98941W        W42035  24.910   1.377  20.146 -0.0887  0.1379 -0.1018
98942W        W42036  22.984   3.084  22.128  0.0383 -0.2569  0.4472
98943W        W42037  21.730  34.499  23.473 -0.0059  0.0693 -0.1879
98944W        W42038  22.740   2.228  22.790 -0.0527 -0.1065 -0.1657
98945W        W42039  22.098   3.227  18.979  0.1973 -0.0111  0.2261
98946W        W42040  22.158   1.202  22.623 -0.1277  0.2150  0.0362
98947W        W42041  23.143   2.759  20.702 -0.2637 -0.0522  0.1699
98948W        W42042  23.574   0.321  22.464  0.1483  0.1968  0.0838
98949W        W42043  21.794   1.971  21.570  0.0059  0.2507 -0.2661
98950W        W42044  25.530   0.213  20.418 -0.0957 -0.2660  0.1059
98951W        W42045  22.247  33.557  24.803 -0.0675 -0.3096  0.2820
98952W        W42046  25.878   1.060  21.277 -0.0116 -0.3586 -0.4832
98953W        W42047  21.510   2.760  21.269 -0.2409 -0.3000  0.1413
98954W        W42048  25.826   3.392  20.663  0.1781  0.2753 -0.1556
98955W        W42049  24.173   1.829  21.757  0.0982 -0.0572  0.0351
98956W        W42050  24.565   3.144  19.297 -0.3121 -0.2604  0.0270
98957W        W42051  21.272   1.445  23.184 -0.1287  0.1443  0.1725
98958W        W42052  22.208   1.452  19.886 -0.1150  0.0043 -0.1177
98959W        W42053  22.195   0.743  22.908 -0.1484  0.0639 -0.0311
98960W        W42054  20.984   0.514  22.825 -0.1386 -0.0920 -0.1141
98961W        W42055  24.680   2.110  22.584 -0.2585 -0.1040 -0.3687
98962W        W42056  23.305   0.503  20.170 -0.0427  0.0002 -0.0159
98963W        W42057  23.560   2.424  20.249  0.1355  0.2270 -0.2308
98964W        W42058  23.126   1.961  22.433  0.2812 -0.2706 -0.2871
98965W        W42059  21.319   2.177  22.471 -0.0332  0.0343  0.3130
98966W        W42060  23.598   0.138  22.917 -0.0789  0.1592 -0.1299
98967W        W42061  24.653   3.775  20.574  0.0245 -0.1512 -0.3084
98968W        W42062  24.936   2.975  23.388 -0.0905 -0.1983 -0.0618
98969W        W42063  24.845   3.064  19.724  0.3104 -0.0008  0.0060
98970W        W42064  22.056  34.099  23.640 -0.1796 -0.1044 -0.1384
98971W        W42065  23.105   0.924  19.554 -0.0473 -0.0074  0.0668
98972W        W42066  23.546   3.087  21.959 -0.0388 -0.5579 -0.3557
98973W        W42067  24.265   1.864  19.734  0.1554 -0.0933  0.5193
98974W        W42068  21.748   0.237  20.052 -0.1649  0.0484 -0.0588
98975W        W42069  22.939   4.137  21.159 -0.3122 -0.0962  0.2857
98976W        W42070  25.864   2.229  19.746  0.2733 -0.1244 -0.2758
98977W        W42071  21.977   0.264  23.646 -0.1390  0.2711 -0.0451
98978W        W42072  25.388   0.371  22.082  0.0995  0.0605  0.3503
98979W        W42073  25.421   2.364  21.044  0.0423  0.1047 -0.0918
98980W        W42074  23.767   1.537  21.820 -0.1326  0.0559 -0.1767
98981W        W42075  22.504   0.058  20.599 -0.0962 -0.1024 -0.0832
98982W        W42076  23.224   2.233  19.332  0.1529  0.0153 -0.1489
98983W        W42077  23.153   3.452  22.460  0.0346  0.0998  0.3917
98984W        W42078  21.252   0.006  21.230  0.4057  0.0537  0.0660
98985W        W42079  23.068   2.299  20.530  0.1403 -0.2432  0.0683
98986W        W42080  24.802   1.627  21.911 -0.1342  0.1520 -0.3067
98987W        W42081  22.896   2.719  23.064  0.1072  0.1254  0.3570
98988W        W42082  23.348   0.999  23.290  0.2870  0.0029 -0.1334
98989W        W42083  22.032   1.630  20.357  0.0104  0.0463  0.1412
98990W        W42084  23.849   2.625  23.196 -0.3500 -0.1933 -0.2249
98991W        W42085  23.220   0.241  21.549 -0.0024  0.1372 -0.1290
98992W        W42086  27.091   0.740  20.629 -0.0122 -0.1326  0.3392
98993W        W42087  23.692   0.830  22.235  0.0869 -0.1409 -0.2484
98994W        W42088  24.903   1.849  20.524 -0.0002 -0.1662  0.0620
98995W        W42089  23.442   1.811  19.161  0.0011  0.2429  0.0017
98996W        W42090  23.607   0.813  19.301  0.2497 -0.0207 -0.1280
98997W        W42091  22.512   1.440  23.541 -0.2234  0.0956 -0.3680
98998W        W42092  22.048   1.866  19.624 -0.1104  0.0838 -0.0101
98999W        W42093  23.238   1.947  21.605 -0.2979 -0.4204 -0.3625
99000W        W42094  23.548   0.918  20.354  0.6310  0.2956  0.1009
99001W        W42095  26.626   3.925  20.582  0.2957 -0.0823  0.0011
99002W        W42096  21.451   2.790  24.047  0.0786  0.0932  0.0407
99003W        W42097  24.895   0.090  21.646 -0.1740 -0.3029 -0.1545
99004W        W42098  24.111   3.261  20.479 -0.0536  0.0001  0.0478
99005W        W42099  23.297  34.159  23.479  0.0781  0.0070  0.0335
99006W        W42100  23.163   1.355  20.504 -0.1150 -0.3614 -0.2386
99007W        W42101  22.726  34.099  22.106 -0.2754 -0.5354  0.1656
99008W        W42102  21.762   4.827  20.195  0.1283 -0.1230 -0.0773
99009W        W42103  25.619  34.421  22.405 -0.0367 -0.0887 -0.0398
99010W        W42104  24.458  34.571  21.522  0.1165  0.0880  0.2880
99011W        W42105  22.647   0.373  22.923  0.0951  0.1186  0.0009
99012W        W42106  25.773   1.595  22.999 -0.1064 -0.1101  0.4963
99013W        W42107  24.165   1.584  20.250  0.0068  0.2426 -0.3553
99014W        W42108  24.346   3.228  22.561  0.1406  0.1478 -0.4180
99015W        W42109  23.815   0.755  18.226  0.2430  0.0549  0.2681
99016W        W42110  22.998   2.129  20.999  0.0947  0.5178 -0.1866
99017W        W42111  21.614   1.863  23.428  0.0981 -0.2089  0.2464
99018W        W42112  22.978   2.211  23.333  0.2948 -0.0288  0.1107
99019W        W42113  23.986   1.926  23.612 -0.1431 -0.0160 -0.3695
99020W        W42114  24.726   3.301  20.295  0.0106  0.0134  0.2158
99021W        W42115  23.693  34.571  22.141 -0.1345  0.0056 -0.0234
99022W        W42116  22.938   1.250  21.701  0.2880 -0.2066 -0.0757
99023W        W42117  23.338   2.522  21.573 -0.1413 -0.2718 -0.0718
99024W        W42118  21.725   2.974  18.862  0.1038  0.2946 -0.0055
99025W        W42119  22.884  34.157  21.628 -0.0392  0.0399 -0.2309
99026W        W42120  23.729   2.049  21.850  0.0849  0.2700  0.0591
99027W        W42121  21.935   1.752  19.040  0.1665  0.0803  0.0247
99028W        W42122  22.945   0.716  24.021 -0.0670 -0.1244 -0.0558
99029W        W42123  22.602   2.808  20.419 -0.0955  0.1160 -0.0283
99030W        W42124  23.888   0.024  20.685 -0.2671 -0.0884 -0.1413
99031W        W42125  21.227   3.425  22.595  0.1072 -0.0966  0.3166
99032W        W42126  21.182   1.587  19.394  0.1933  0.0910  0.0835
99033W        W42127  20.209   1.300  21.160  0.1671 -0.0235 -0.1161
99034W        W42128  22.776  34.599  21.833 -0.0200  0.1547  0.0392
99035W        W42129  25.767   3.416  18.786  0.3647  0.0084 -0.1017
99036W        W42130  23.538   1.899  23.332 -0.0336 -0.0770 -0.1889
99037W        W42131  23.544   0.623  22.844 -0.1277 -0.2670 -0.1931
99038W        W42132  21.495   2.400  21.691 -0.0074  0.0483 -0.1963
99039W        W42133  24.063   0.478  22.808 -0.1675 -0.2104  0.1131
99040W        W42134  23.862   0.536  20.565 -0.0408 -0.0382  0.1453
99041W        W42135  24.561   3.124  23.627 -0.0885  0.0012 -0.1141
99042W        W42136  23.732   1.853  22.341  0.0223  0.2245  0.1798
99043W        W42137  24.321   1.365  20.996  0.0600 -0.1339 -0.1154
99044W        W42138  26.004   0.608  22.883  0.1055  0.0413 -0.2537
99045W        W42139  23.497   2.347  20.811 -0.2466 -0.1335  0.0226
99046W        W42140  21.364   3.036  20.264 -0.1699  0.1011  0.3307
99047W        W42141  24.428   0.795  21.268  0.2541  0.0744  0.2256
99048W        W42142  22.721   1.319  19.023 -0.0902  0.2094 -0.1212
99049W        W42143  22.416   2.699  21.550  0.0135 -0.2085 -0.1442
99050W        W42144  21.737  33.736  23.794  0.2075 -0.1124 -0.0050
99051W        W42145  25.208   2.628  23.601  0.1919 -0.0604  0.1898
99052W        W42146  22.661   1.927  22.275  0.0448  0.1901 -0.3783
99053W        W42147  22.194   0.359  22.280 -0.0740 -0.0773 -0.1451
99054W        W42148  22.813   0.976  22.077  0.0489  0.2977  0.0582
99055W        W42149  24.185   3.490  23.393  0.2638  0.3227  0.0907
99056W        W42150  22.224  34.257  24.229  0.2336  0.1281 -0.0099
99057W        W42151  23.139   0.280  22.821 -0.0139 -0.0160 -0.0357
99058W        W42152  22.324  34.576  22.191  0.1161 -0.3333  0.0467
99059W        W42153  25.157   3.641  20.531 -0.1657 -0.3830 -0.2667
99060W        W42154  24.157   1.939  22.734 -0.0675 -0.1486 -0.0884
99061W        W42155  22.560   1.799  19.779  0.1457 -0.1430  0.0896
99062W        W42156  21.768   1.524  22.901  0.1329 -0.1959 -0.1157
99063W        W42157  23.370   1.843  20.392  0.2527  0.1075 -0.2261
99064W        W42158  24.225  34.600  21.991  0.0733 -0.2541 -0.0665
99065W        W42159  21.581   2.534  22.713  0.1070 -0.1680 -0.1049
99066W        W42160  22.298   3.184  19.413 -0.0106  0.4020  0.0715
99067W        W42161  22.133   2.864  22.502  0.1031 -0.0810 -0.0905
99068W        W42162  23.948   0.994  21.318 -0.1546  0.0698 -0.0127
99069W        W42163  25.905   3.596  19.395  0.1528  0.1274  0.0847
99070W        W42164  24.172   0.685  22.319 -0.1893  0.0547  0.1546
99071W        W42165  26.005   1.438  23.737 -0.0431 -0.2239  0.3108
99072W        W42166  24.476   2.688  19.540  0.1164 -0.1247  0.1354
99073W        W42167  24.157   0.446  24.081 -0.0896 -0.2140 -0.2622
99074W        W42168  23.123   1.087  23.705 -0.2456 -0.0956  0.2273
99075W        W42169  25.080   2.455  21.441 -0.1995  0.1256 -0.1467
99076W        W42170  21.833   0.302  21.079  0.1173  0.0317 -0.2123
99077W        W42171  24.966   5.872  21.932  0.0964  0.3032  0.1206
99078W        W42172  22.702   2.794  22.590  0.1429 -0.1727 -0.0548
99079W        W42173  23.181   0.835  21.467  0.0608 -0.0141 -0.2536
99080W        W42174  22.894   1.722  20.648  0.3561 -0.1663  0.0828
99081W        W42175  24.456   1.125  22.316 -0.0660 -0.0096 -0.3487
99082W        W42176  24.814   2.142  23.836 -0.1879  0.2997  0.4116
99083W        W42177  22.646   1.331  20.206 -0.0506 -0.1860  0.0940
99084W        W42178  24.381   1.750  21.282 -0.2260  0.0553  0.0845
99085W        W42179  22.266   2.012  22.676  0.2954  0.1562 -0.0812
99086W        W42180  24.134   2.364  21.723 -0.2790 -0.1543 -0.1968
99087W        W42181  23.426   1.726  19.833  0.1273 -0.1954  0.3631
99088W        W42182  22.632   2.745  21.085  0.0677 -0.2240  0.0478
99089W        W42183  22.236   0.619  23.904  0.0517 -0.1576  0.1511
99090W        W42184  23.382   1.740  22.014  0.3921 -0.0200  0.2639
99091W        W42185  24.787  34.314  20.658  0.1060  0.1619 -0.2313
99092W        W42186  25.604  33.949  22.196 -0.1007 -0.0279 -0.0345
99093W        W42187  24.719   1.313  21.335  0.2363 -0.0982 -0.1718
99094W        W42188  23.404   1.308  24.563 -0.2130  0.0690 -0.1008
99095W        W42189  21.482   0.091  24.110 -0.3089  0.2396 -0.0125
99096W        W42190  24.614   3.804  22.985  0.1532  0.0353 -0.1927
99097W        W42191  24.151   0.868  20.803 -0.0561  0.0858  0.1083
99098W        W42192  26.592   0.733  21.390  0.0910  0.3642  0.4608
99099W        W42193  25.212   0.574  22.549  0.1610 -0.1961  0.1075
99100W        W42194  23.219   2.544  18.466 -0.1513  0.1922  0.0443
99101W        W42195  21.789   0.997  22.939 -0.0167 -0.0723 -0.2112
99102W        W42196  24.956   2.299  23.378 -0.0535  0.2558  0.1354
99103W        W42197  23.124   0.565  18.087  0.1454 -0.1045 -0.1782
99104W        W42198  24.871   0.240  22.143  0.0521 -0.0981 -0.3062
99105W        W42199  23.373   3.444  19.950  0.2596  0.0821 -0.1810
99106W        W42200  25.999   2.701  19.295  0.1517 -0.2735  0.2294
99107W        W42201  24.243   2.251  19.271  0.0177  0.3239  0.1100
99108W        W42202  21.444   1.235  20.946  0.2995  0.0917 -0.0383
99109W        W42203  22.200   3.504  23.439  0.1837  0.4592  0.1325
99110W        W42204  23.065   0.966  19.054  0.0702 -0.0845 -0.0024
99111W        W42205  22.992   1.255  20.965 -0.0305 -0.0563  0.1994
99112W        W42206  24.044   3.285  22.145 -0.1802  0.0710  0.0807
99113W        W42207  25.261   2.211  24.550  0.0086  0.1330  0.1478
99114W        W42208  22.687  34.576  19.967  0.2625  0.0279  0.1970
99115W        W42209  26.703   0.052  22.067 -0.3665 -0.2124 -0.1473
99116W        W42210  22.432   2.377  19.660  0.0080  0.1222 -0.0829
99117W        W42211  24.038  34.101  21.336  0.2313 -0.2647 -0.0156
99118W        W42212  23.242   1.580  23.072 -0.1011  0.2222  0.3228
99119W        W42213  22.279   3.034  23.809  0.1900 -0.0400 -0.1940
99120W        W42214  24.257   2.700  20.448  0.1155 -0.0621 -0.1150
99121W        W42215  23.225  33.740  21.942  0.2010 -0.0007 -0.0210
99122W        W42216  24.069   2.301  22.279 -0.0596 -0.0516 -0.0227
99123W        W42217  24.547   2.184  23.139  0.5544  0.1072  0.2866
99124W        W42218  25.593   2.043  21.991 -0.2048  0.0580  0.0280
99125W        W42219  24.218   2.845  23.921 -0.2289  0.1298  0.0005
99126W        W42220  22.362   2.229  23.238  0.0824  0.3082  0.0567
99127W        W42221  24.252   3.323  24.026  0.0725 -0.1260  0.1816
99128W        W42222  24.735   2.977  21.333  0.0189  0.3082  0.3561
99129W        W42223  23.993   2.567  20.882  0.0952 -0.0237  0.1886
99130W        W42224  20.352   0.333  24.492 -0.0226 -0.0107 -0.1322
99131W        W42225  22.580   1.974  24.186 -0.1921 -0.2249 -0.3057
99132W        W42226  23.593   3.549  21.269 -0.1390 -0.1780  0.0405
99133W        W42227  22.770   0.529  21.431 -0.3357  0.3427 -0.3249
99134W        W42228  23.615   3.186  19.579 -0.1209 -0.0494 -0.1047
99135W        W42229  22.781   2.973  23.739  0.2648  0.0558 -0.0882
99136W        W42230  21.856   2.204  23.781  0.4098 -0.1374 -0.1344
99137W        W42231  22.433   4.488  21.126  0.0388 -0.0610  0.2173
99138W        W42232  24.032   1.117  20.333 -0.2030  0.0188 -0.2390
99139W        W42233  23.917   2.687  19.506  0.3315  0.3478  0.0787
99140W        W42234  24.074   3.718  21.855 -0.2955 -0.0798  0.0424
99141W        W42235  23.156   1.386  19.279 -0.1690  0.0577 -0.1821
99142W        W42236  22.042   3.742  21.626  0.2621  0.2498 -0.1368
99143W        W42237  21.279   4.658  20.047 -0.0333  0.0533 -0.0089
99144W        W42238  24.732   2.789  20.401 -0.1968  0.3110 -0.2296
99145W        W42239  21.876   2.393  21.333 -0.3541  0.0700  0.1182
99146W        W42240  25.656   3.713  23.557 -0.0815  0.0209  0.2354
99147W        W42241  25.073   0.648  20.667 -0.0296  0.1189 -0.1230
99148W        W42242  25.012   1.256  22.188  0.0532 -0.0215  0.1034
99149W        W42243  26.951   2.291  19.889 -0.1290 -0.1769 -0.0427
99150W        W42244  23.436   3.249  24.214 -0.1407  0.0459  0.1682
99151W        W42245  24.673   1.667  23.066  0.0997 -0.2742 -0.1918
99152W        W42246  22.981  33.869  19.639 -0.0013  0.0145 -0.1946
99153W        W42247  22.586   0.452  24.267 -0.4012  0.1120  0.1499
99154W        W42248  25.901  34.136  23.288  0.0408 -0.0574 -0.2877
99155W        W42249  23.104   3.112  23.303 -0.0751  0.0583 -0.2162
99156W        W42250  26.392   3.065  20.173  0.2427 -0.0957  0.0213
99157W        W42251  22.172   0.683  21.264 -0.0667 -0.0552 -0.2575
99158W        W42252  23.474   2.265  22.218 -0.2476  0.0462  0.0126
99159W        W42253  25.143  34.420  21.979  0.0876  0.0977 -0.2581
99160W        W42254  23.008   1.982  20.079  0.0267 -0.0105 -0.1364
99161W        W42255  23.634   1.008  21.698  0.1195  0.0227  0.1971
99162W        W42256  22.549   1.890  20.369 -0.0013  0.1700  0.5308
99163W        W42257  23.128   2.516  22.572  0.0647  0.0073 -0.0248
99164W        W42258  23.333   4.277  22.647 -0.2024 -0.2079 -0.0584
99165W        W42259  21.702  33.912  21.516 -0.1247  0.0460  0.0224
99166W        W42260  24.399   0.129  20.592  0.1293  0.1350 -0.0982
99167W        W42261  24.052   0.980  24.182 -0.0079  0.0720 -0.1203
99168W        W42262  25.897   0.644  22.186  0.0720  0.0342 -0.1187
99169W        W42263  22.955   1.478  22.184 -0.1731  0.1200  0.0944
99170W        W42264  24.222   1.599  22.223  0.0753 -0.1742 -0.0837
99171W        W42265  23.656   3.409  20.394 -0.2624  0.1781  0.0466
99172W        W42266  22.848   0.920  22.777 -0.3046 -0.0206  0.1207
99173W        W42267  22.620   2.004  19.243 -0.0095  0.0525  0.0929
99174W        W42268  25.111   1.833  22.304 -0.3119  0.0793 -0.0623
99175W        W42269  24.587   1.719  18.217  0.1273  0.1087  0.2142
99176W        W42270  24.777   4.762  23.173 -0.0518  0.0471 -0.1328
99177W        W42271  22.447   0.935  20.916  0.2322 -0.1560  0.1565
99178W        W42272  23.879   1.689  21.311  0.0313  0.2689  0.1179
99179W        W42273  21.325   1.807  21.588  0.3039 -0.3289 -0.1039
99180W        W42274  22.924   1.250  23.263  0.0496  0.2537 -0.1325
99181W        W42275  23.424   2.919  22.867 -0.0747  0.1869 -0.2715
99182W        W42276  21.227   0.028  20.252  0.1300 -0.0650 -0.1874
99183W        W42277  24.595   2.696  18.075 -0.2025 -0.1697 -0.0945
99184W        W42278  25.756   1.590  21.993  0.3242 -0.0932  0.2052
99185W        W42279  23.192   3.633  20.507  0.1147 -0.1946  0.1289
99186W        W42280  23.340   1.805  20.884 -0.1717 -0.2705 -0.0851
99187W        W42281  24.143   3.746  22.437  0.2233 -0.2858  0.1617
99188W        W42282  21.135   1.419  24.247  0.1621 -0.1117 -0.1190
99189W        W42283  24.634   2.642  22.626  0.1902  0.1712 -0.2321
99190W        W42284  25.213   2.786  20.255  0.3082 -0.0271 -0.2454
99191W        W42285  23.347   0.680  21.904  0.1208 -0.0332  0.1960
99192W        W42286  22.684   1.005  21.324 -0.1371 -0.1289 -0.3780
99193W        W42287  22.886   3.190  20.632  0.1827  0.0717  0.0226
99194W        W42288  25.270  33.803  20.783  0.1950 -0.3305 -0.0818
99195W        W42289  24.929   0.785  21.189 -0.2206  0.2897  0.0522
99196W        W42290  24.202   4.356  19.474 -0.0435  0.3163 -0.1099
99197W        W42291  24.057   0.171  22.352  0.2978 -0.3349 -0.1902
99198W        W42292  23.128   2.674  21.162  0.0462  0.0902 -0.1294
99199W        W42293  22.607   3.140  23.297  0.0580 -0.0542  0.0471
99200W        W42294  22.597   2.391  20.141 -0.1845  0.0192  0.1931
99201W        W42295  22.967   0.670  23.282  0.3489  0.0411 -0.1532
99202W        W42296  24.017   1.788  20.885  0.0467 -0.1027  0.0616
99203W        W42297  23.853   4.467  20.774  0.0328  0.2893 -0.0304
99204W        W42298  24.574   2.081  22.010  0.1972 -0.0983 -0.0808
99205W        W42299  24.676  34.484  21.995  0.0894 -0.1619 -0.0765
99206W        W42300  25.287   1.861  20.868 -0.1113  0.1720 -0.0133
99207W        W42301  21.135   0.496  21.534  0.2054  0.3149 -0.1407
99208W        W42302  24.058   0.406  21.050  0.3466  0.1031  0.2121
99209W        W42303  22.974   0.085  21.144 -0.0976  0.1079  0.1831
99210W        W42304  23.692   1.013  23.794  0.2516 -0.0690 -0.2223
99211W        W42305  21.837   1.211  18.944  0.0921  0.0145 -0.0517
99212W        W42306  20.648   3.945  19.785 -0.0486 -0.2371  0.0656
99213W        W42307  23.692   2.593  21.288 -0.0931 -0.3941  0.1761
99214W        W42308  24.252  34.644  22.830  0.0750  0.1840 -0.3365
99215W        W42309  22.299   1.162  24.599 -0.1095  0.1828  0.0250
99216W        W42310  22.604   0.546  22.445  0.0037 -0.0570  0.0370
99217W        W42311  22.378   0.784  21.730 -0.3410 -0.3658  0.0407
99218W        W42312  26.898   4.489  20.178 -0.0866  0.0581 -0.0206
99219W        W42313  21.207   0.166  22.468 -0.0949 -0.1503  0.1046
99220W        W42314  22.583  34.455  21.367 -0.0145 -0.2338  0.1436
99221W        W42315  25.868   3.905  20.847 -0.1088  0.1338 -0.1400
99222W        W42316  25.944   2.731  19.797 -0.1241 -0.0523 -0.1583
99223W        W42317  22.825   1.775  21.283 -0.1068  0.0269 -0.2967
99224W        W42318  25.104   4.570  24.435  0.0568 -0.0163  0.0300
99225W        W42319  22.527   1.436  20.961 -0.2647 -0.1542 -0.4547
99226W        W42320  22.764  34.267  23.523 -0.1233 -0.1808 -0.2316
99227W        W42321  23.206  34.269  21.962 -0.3236  0.1897 -0.0643
99228W        W42322  21.658   1.374  19.912 -0.0405  0.0062  0.1888
99229W        W42323  23.389   1.057  22.612 -0.2305  0.1743  0.1018
99230W        W42324  24.777   2.575  20.937  0.0575 -0.0887 -0.1105
99231W        W42325  23.958   2.168  20.520 -0.1387  0.2746  0.2309
99232W        W42326  24.772   3.474  22.630  0.2658  0.2718  0.0784
99233W        W42327  24.577   3.032  21.889  0.0471  0.3062 -0.1566
99234W        W42328  22.794   0.093  22.327 -0.2642 -0.0180  0.3193
99235W        W42329  23.840   3.019  21.014 -0.0321  0.1830 -0.0178
99236W        W42330  24.172   2.892  23.381  0.1446  0.3901 -0.2510
99237W        W42331  26.219   1.466  21.738  0.1151  0.3920 -0.1527
99238W        W42332  25.476   0.021  21.717 -0.0721  0.2685 -0.1895
99239W        W42333  24.637   1.081  21.815  0.3142  0.4383  0.3926
99240W        W42334  23.631  32.896  22.970 -0.0179  0.1785 -0.3275
99241W        W42335  24.500   3.131  24.617  0.0973 -0.1548  0.0590
99242W        W42336  24.645   1.554  22.532 -0.0336  0.2874  0.2171
99243W        W42337  21.899   0.035  21.981  0.0599 -0.3021  0.0183
99244W        W42338  23.326   0.532  20.989 -0.2693 -0.2556 -0.3907
99245W        W42339  24.356   3.598  20.108  0.0154 -0.0571  0.2007
99246W        W42340  22.492   1.208  23.007 -0.3866 -0.0556 -0.1069
99247W        W42341  22.578   2.327  20.666  0.1416  0.1646 -0.0919
99248W        W42342  23.832   0.370  21.926  0.0782 -0.0979 -0.2903
99249W        W42343  25.877   3.897  19.837 -0.1156  0.2949 -0.1611
99250W        W42344  27.113   1.539  23.204 -0.2845 -0.0099 -0.1095
99251W        W42345  22.754   1.738  21.788 -0.2451 -0.2419 -0.1302
99252W        W42346  26.386   0.313  20.085  0.1296 -0.3156  0.3311
99253W        W42347  24.479   2.222  20.995  0.1705  0.0343 -0.1637
99254W        W42348  25.942   5.159  22.462 -0.0177  0.0093  0.3946
99255W        W42349  24.082   2.954  22.901  0.2076  0.3522 -0.0715
99256W        W42350  24.843   2.642  22.061  0.1942 -0.2570 -0.1668
99257W        W42351  21.273   0.947  23.031  0.0203  0.2604 -0.0544
99258W        W42352  23.741   1.439  20.655  0.3833  0.1726  0.0053
99259W        W42353  23.479   1.417  21.213 -0.1368  0.0899  0.2528
99260W        W42354  25.421   0.901  22.194  0.1184 -0.2391  0.0657
99261W        W42355  22.044   0.001  23.097 -0.2229  0.1148 -0.2770
99262W        W42356  24.790   1.638  20.940 -0.3213  0.1992 -0.4767
99263W        W42357  23.382   2.496  23.184 -0.2053 -0.1064  0.2239
99264W        W42358  25.370   2.892  19.705  0.2861  0.2960  0.2874
99265W        W42359  22.918   4.319  27.346 -0.1463 -0.0521 -0.1092
99266W        W42360  22.046   1.523  25.192 -0.2321 -0.2516 -0.3525
99267W        W42361  25.923   1.649  24.241 -0.4128 -0.2658  0.3196
99268W        W42362  25.393   2.709  24.753 -0.1134 -0.0271 -0.1701
99269W        W42363  21.784   0.543  25.464  0.2469  0.3827  0.1020
99270W        W42364  23.384   4.498  25.125 -0.5499  0.0626  0.1415
99271W        W42365  21.485  34.188  25.760  0.0834 -0.0809 -0.1333
99272W        W42366  23.499   2.061  24.915  0.1995  0.1122  0.0572
99273W        W42367  24.496   3.088  26.127  0.0538  0.2885 -0.3164
99274W        W42368  23.605   0.135  24.103 -0.0583  0.2683 -0.1645
99275W        W42369  24.287   2.071  25.945  0.4016  0.2440  0.0301
99276W        W42370  23.278   3.379  26.544  0.2180  0.2719 -0.2001
99277W        W42371  22.627  33.932  24.064 -0.1313 -0.1634 -0.2700
99278W        W42372  21.870  34.400  25.350  0.0203 -0.1408  0.0880
99279W        W42373  24.886   1.938  25.175  0.0424 -0.0074 -0.0458
99280W        W42374  21.971   1.742  24.608  0.0396  0.3312 -0.1151
99281W        W42375  21.809   0.849  25.825 -0.0757  0.0256  0.1367
99282W        W42376  22.160   0.853  25.364  0.0796  0.0360  0.2622
99283W        W42377  22.790   2.836  24.752  0.0408 -0.0214  0.1784
99284W        W42378  23.386   0.275  26.678  0.0552  0.0177  0.0140
99285W        W42379  24.398  34.564  29.025  0.0194  0.1949 -0.0592
99286W        W42380  23.037   3.995  23.634  0.1238 -0.1606  0.1005
99287W        W42381  21.717   1.785  23.949 -0.2272  0.1086  0.2949
99288W        W42382  22.490   1.067  23.878 -0.1884  0.1472  0.0495
99289W        W42383  22.604   1.714  26.633 -0.0553  0.1681 -0.2461
99290W        W42384  25.935   0.894  25.439  0.2993  0.0910 -0.2281
99291W        W42385  24.401   1.360  24.257  0.2419 -0.0643  0.0830
99292W        W42386  23.720   4.816  25.447 -0.1860  0.1184  0.2893
99293W        W42387  22.616   2.327  25.103  0.1679 -0.1505 -0.1128
99294W        W42388  24.063   0.912  26.768  0.3995 -0.0528  0.0855
99295W        W42389  22.082   3.932  24.570  0.1038  0.0825 -0.1996
99296W        W42390  21.450   3.545  24.311  0.0351 -0.0836  0.0777
99297W        W42391  22.923   3.210  24.422  0.1314  0.0797  0.4033
99298W        W42392  25.300   3.380  25.550  0.1446  0.0201  0.2046
99299W        W42393  24.070   2.896  25.725  0.1907 -0.2598 -0.0086
99300W        W42394  23.599   2.964  26.574 -0.1865  0.1749  0.3808
99301W        W42395  22.020   2.580  24.070  0.3461 -0.0823 -0.0424
99302W        W42396  23.117   2.856  27.274 -0.2668  0.0763 -0.0847
99303W        W42397  23.370   4.147  27.481  0.0316  0.5369 -0.0440
99304W        W42398  24.233   1.898  24.023 -0.1335  0.1463 -0.0842
99305W        W42399  23.256   1.647  24.930 -0.1748 -0.1678  0.1273
99306W        W42400  23.632   3.974  22.971 -0.1268  0.1122  0.2998
99307W        W42401  23.559   2.918  25.036  0.3552 -0.0197  0.1068
99308W        W42402  23.365   2.935  28.780 -0.1500  0.0011  0.0740
99309W        W42403  21.885   2.878  25.397 -0.1370 -0.1662 -0.1062
99310W        W42404  26.308   0.726  28.290  0.1986  0.3420 -0.1309
99311W        W42405  23.993   2.954  24.756 -0.0767  0.1299  0.1083
99312W        W42406  24.732   2.107  24.366  0.3551 -0.3745  0.0305
99313W        W42407  21.289   0.448  23.315 -0.1350  0.1899  0.2175
99314W        W42408  24.270  34.394  23.265  0.2155 -0.3999 -0.3724
99315W        W42409  23.512   0.148  24.746 -0.0144  0.5267 -0.0411
99316W        W42410  22.359   5.347  25.972 -0.4642 -0.0157  0.1018
99317W        W42411  23.082   0.610  25.568  0.0962  0.0451 -0.0802
99318W        W42412  25.571   2.577  26.448  0.1079  0.1629 -0.3182
99319W        W42413  22.450   0.855  23.388 -0.1884 -0.1926 -0.1162
99320W        W42414  22.784   1.979  27.157  0.6028  0.0689 -0.4202
99321W        W42415  24.002   3.964  26.796 -0.3015  0.2270 -0.0208
99322W        W42416  23.296   0.394  26.093  0.0152  0.0343  0.0593
99323W        W42417  24.622   4.616  24.583  0.2148  0.2104  0.0634
99324W        W42418  24.209   2.164  26.437 -0.0668 -0.0845  0.0403
99325W        W42419  25.447   3.417  24.026  0.1146 -0.3712 -0.1755
99326W        W42420  22.713   0.935  25.342 -0.1558  0.1524  0.3482
99327W        W42421  22.995   3.351  27.424  0.0648 -0.1002 -0.4652
99328W        W42422  21.837   2.309  26.474 -0.1555 -0.0941  0.2584
99329W        W42423  22.917  34.023  23.059 -0.0240 -0.1203  0.0647
99330W        W42424  24.979   1.777  27.429 -0.0516  0.3060 -0.0046
99331W        W42425  22.684   3.127  26.019 -0.0524  0.0451  0.1336
99332W        W42426  27.295   0.256  25.521 -0.4930 -0.2159  0.0711
99333W        W42427  23.123   2.137  25.263 -0.2244  0.1436  0.2459
99334W        W42428  24.307   1.695  26.540  0.1058 -0.0211 -0.2641
99335W        W42429  23.115   1.983  24.023 -0.0800 -0.0792  0.1647
99336W        W42430  23.862   0.816  24.878 -0.3604 -0.2686  0.0656
99337W        W42431  24.497  34.131  27.038 -0.2642 -0.2453  0.0150
99338W        W42432  22.916   1.490  24.485 -0.1562 -0.1101 -0.2810
99339W        W42433  22.874   1.973  24.737  0.0894 -0.2396  0.0886
99340W        W42434  23.995   2.906  26.930  0.0978 -0.0555  0.5559
99341W        W42435  25.184   1.613  22.752  0.1394 -0.1529 -0.1175
99342W        W42436  23.201   3.102  26.124  0.0829  0.1352 -0.3817
99343W        W42437  21.835   0.742  27.166  0.0871  0.0900 -0.1081
99344W        W42438  24.454   2.355  28.079 -0.1952 -0.1511  0.0390
99345W        W42439  23.360   5.147  24.154 -0.0499 -0.2539  0.1837
99346W        W42440  21.360   2.822  25.333 -0.0423  0.1182  0.2061
99347W        W42441  21.717   1.095  25.370 -0.1118 -0.1109  0.0142
99348W        W42442  22.672   0.759  26.875 -0.0249  0.1242 -0.1463
99349W        W42443  22.891   2.592  25.455 -0.0925 -0.1630 -0.1645
99350W        W42444  25.255   0.611  25.033  0.0821  0.1652  0.0786
99351W        W42445  22.978   1.543  27.336 -0.2660 -0.0502  0.0665
99352W        W42446  25.673   0.802  24.864  0.1039  0.0651  0.2213
99353W        W42447  22.053   2.070  24.241  0.1106 -0.0106  0.2894
99354W        W42448  24.287   4.389  23.857  0.1671 -0.1409  0.1798
99355W        W42449  25.127   2.475  24.127 -0.1987 -0.3285  0.0835
99356W        W42450  24.714   2.919  24.092 -0.2442  0.0022 -0.1762
99357W        W42451  23.031   3.769  26.728 -0.0037 -0.1882 -0.0783
99358W        W42452  22.649   0.278  25.561  0.1087 -0.0976 -0.3137
99359W        W42453  21.856   2.104  28.347  0.0770 -0.1370 -0.0331
99360W        W42454  22.616   2.921  26.483  0.1028  0.1664 -0.1640
99361W        W42455  26.287   1.208  27.597 -0.2856  0.1403 -0.0490
99362W        W42456  23.463   0.514  23.387  0.1356 -0.1533 -0.0053
99363W        W42457  23.482  34.616  25.256  0.0729  0.0520 -0.0703
99364W        W42458  22.897   1.470  23.972  0.2570 -0.1789 -0.1606
99365W        W42459  23.484   0.543  25.088  0.1225 -0.0534  0.1150
99366W        W42460  25.148   1.455  27.078 -0.1032 -0.1208 -0.0620
99367W        W42461  24.387   4.447  22.798 -0.0468  0.3993  0.0822
99368W        W42462  25.296   2.604  28.147  0.2672 -0.3853 -0.0258
99369W        W42463  23.342   4.645  23.992 -0.2764  0.1104  0.0627
99370W        W42464  23.922   1.705  26.936  0.2252 -0.1352 -0.1438
99371W        W42465  22.975   0.599  24.853  0.1673  0.3136 -0.0766
99372W        W42466  21.229   4.233  24.882 -0.1843  0.1340 -0.6337
99373W        W42467  22.575   4.145  25.163  0.0574  0.0776  0.0628
99374W        W42468  22.258   0.103  24.077  0.0493 -0.1467  0.1382
99375W        W42469  25.171   3.401  24.818  0.0223  0.0157 -0.1414
99376W        W42470  23.482   2.763  24.510 -0.1945 -0.0327 -0.1127
99377W        W42471  21.510   3.429  27.091 -0.2452 -0.0955 -0.0474
99378W        W42472  24.533   0.885  26.612  0.0941 -0.1596 -0.0858
99379W        W42473  25.902   2.368  26.106 -0.0640 -0.1686 -0.1557
99380W        W42474  24.475   1.919  23.544 -0.1395 -0.0120 -0.4220
99381W        W42475  21.848   0.459  24.189 -0.1098 -0.1406 -0.0051
99382W        W42476  24.381   2.492  25.617 -0.3181  0.0029  0.1408
99383W        W42477  22.648   2.542  23.471 -0.1576 -0.0351  0.2259
99384W        W42478  20.950   2.223  24.821  0.1180  0.1299  0.1449
99385W        W42479  23.088   3.687  24.719 -0.0745 -0.0975  0.0868
99386W        W42480  25.069   1.115  25.760  0.3186  0.1881  0.0488
99387W        W42481  21.538   1.541  25.689 -0.0175  0.1071  0.5089
99388W        W42482  24.952   1.394  26.196  0.2737 -0.1227 -0.0379
99389W        W42483  22.718   1.968  23.672  0.2629 -0.2204  0.2225
99390W        W42484  23.193   4.102  27.026  0.2745  0.2324  0.1157
99391W        W42485  24.258   0.724  24.519  0.1740  0.0884 -0.1372
99392W        W42486  24.251   1.442  23.687 -0.3930  0.0057 -0.2597
99393W        W42487  23.577   1.261  25.689 -0.0744  0.0181 -0.6165
99394W        W42488  23.790   2.937  24.126  0.1641 -0.3423  0.2752
99395W        W42489  23.861   0.489  23.670 -0.2121 -0.2161  0.0064
99396W        W42490  24.388   0.369  23.673 -0.0565  0.1153 -0.4352
99397W        W42491  21.544   3.842  27.654  0.0077 -0.3119 -0.0224
99398W        W42492  25.548   3.193  24.692 -0.1818 -0.0882 -0.1221
99399W        W42493  24.081   3.643  25.392 -0.0446 -0.0963  0.0682
99400W        W42494  21.125  34.633  23.437  0.0346 -0.0593  0.0882
99401W        W42495  26.368   3.149  23.541 -0.4172 -0.0689 -0.0557
99402W        W42496  21.092   1.825  25.398  0.0422  0.0319 -0.3200
99403W        W42497  24.946   0.933  28.418 -0.0242  0.0197  0.0882
99404W        W42498  23.604   2.223  24.427  0.0427  0.1585 -0.2020
99405W        W42499  23.295   1.156  27.194 -0.0915  0.1120  0.0402
99406W        W42500  22.398   1.485  24.216  0.2387  0.1096 -0.0345
99407W        W42501  24.102   1.482  25.871  0.0115  0.0213 -0.2375
99408W        W42502  22.560   4.278  23.599 -0.1462 -0.1945 -0.2334
99409W        W42503  24.506   1.676  24.661 -0.0606 -0.0807 -0.0027
99410W        W42504  24.447   0.136  25.398 -0.1968  0.4140  0.0318
99411W        W42505  22.770   0.009  28.453  0.1558 -0.3755 -0.0620
99412W        W42506  25.978   2.769  27.744  0.0064  0.1725 -0.0003
99413W        W42507  25.140   1.458  23.838  0.2055 -0.2330 -0.0938
99414W        W42508  24.896   2.276  25.621  0.0659  0.2781  0.0120
99415W        W42509  21.774   1.164  24.890  0.0280 -0.0931  0.1179
99416W        W42510  21.416   2.290  26.725  0.1400  0.5054 -0.2355
99417W        W42511  23.058   2.366  27.136 -0.1291 -0.2428 -0.1235
99418W        W42512  22.228   3.571  24.899  0.1404 -0.0391 -0.2466
99419W        W42513  25.973   2.304  26.610 -0.2025 -0.3504 -0.2497
99420W        W42514  24.319   2.775  24.388 -0.1557  0.0198  0.1619
99421W        W42515  23.667   1.330  25.035  0.1261  0.0372  0.1553
99422W        W42516  24.881   1.064  22.629 -0.1845 -0.1171 -0.3464
99423W        W42517  23.257   3.648  23.331 -0.0691  0.0402 -0.4864
99424W        W42518  22.202   2.721  23.400  0.0242  0.2781 -0.0462
99425W        W42519  22.620   1.492  25.655  0.3131 -0.1651  0.1544
99426W        W42520  24.055   2.720  26.364  0.0096 -0.0304 -0.1378
99427W        W42521  23.061   2.224  21.964 -0.2438 -0.1247  0.3425
99428W        W42522  23.780   2.459  26.665 -0.1075  0.2653  0.2465
99429W        W42523  22.449   2.553  24.345 -0.1915  0.1618 -0.1062
99430W        W42524  25.301   0.229  25.347 -0.2035 -0.3746 -0.1907
99431W        W42525  22.043   2.420  26.036 -0.3251 -0.1744  0.2002
99432W        W42526  22.943   0.162  24.652  0.2265 -0.1523  0.1602
99433W        W42527  20.862   0.874  25.730 -0.0823 -0.0435 -0.0555
99434W        W42528  24.638   0.791  23.624  0.1589  0.2269 -0.0173
99435W        W42529  24.868   3.320  24.392 -0.1960  0.1183 -0.2393
99436W        W42530  21.387   1.063  25.692 -0.0555 -0.1478  0.0125
99437W        W42531  24.403  34.507  25.785  0.1760 -0.0318 -0.4596
99438W        W42532  20.859   3.117  24.832  0.0838  0.0203  0.0196
99439W        W42533  25.455   0.728  25.572 -0.2082  0.2057 -0.0385
99440W        W42534  24.430   0.534  23.146  0.2159  0.2459 -0.0239
99441W        W42535  24.773   2.700  26.536 -0.0357 -0.3780 -0.0912
99442W        W42536  23.129   1.993  27.466  0.2178 -0.1993  0.2962
99443W        W42537  21.852   1.350  24.310 -0.0417  0.0459  0.0470
99444W        W42538  26.011   1.827  26.372 -0.2943 -0.1217 -0.0449
99445W        W42539  23.598  34.379  24.841  0.1413 -0.2286  0.1983
99446W        W42540  22.315   4.341  24.777 -0.0592 -0.2504 -0.3422
99447W        W42541  24.564   1.685  26.099 -0.4610 -0.0283 -0.0481
99448W        W42542  22.590   1.294  27.012 -0.1597 -0.3111  0.0967
99449W        W42543  22.433   1.027  25.812 -0.0293  0.1443  0.2615
99450W        W42544  23.335   1.660  26.214  0.0489 -0.1635  0.1393
99451W        W42545  24.573   0.893  25.468 -0.2695 -0.1024  0.0158
99452W        W42546  23.477   0.780  25.824 -0.0598  0.0879 -0.2646
99453W        W42547  21.972   0.490  24.985 -0.0916  0.0327  0.2734
99454W        W42548  24.686   1.313  25.151 -0.0238 -0.0255 -0.1674
99455W        W42549  24.936   1.779  25.676 -0.1504 -0.0913 -0.0763
99456W        W42550  23.963   1.768  25.365  0.1052  0.1750 -0.1824
99457W        W42551  23.353   3.238  27.020 -0.2772  0.0736 -0.1590
99458W        W42552  23.854   1.743  24.688 -0.1791  0.5262 -0.1793
99459W        W42553  24.730   3.664  24.782  0.1200 -0.0436 -0.1441
99460W        W42554  25.167   1.167  26.634 -0.2975  0.2005  0.1107
99461W        W42555  23.118   2.330  24.513 -0.2235  0.0087 -0.1648
99462W        W42556  22.028   2.820  27.626  0.1801 -0.3931 -0.1101
99463W        W42557  22.478   1.594  24.776 -0.1359 -0.0817 -0.0321
99464W        W42558  23.395  34.418  25.800  0.0595 -0.2029 -0.1936
99465W        W42559  21.329   2.855  26.870  0.0319 -0.0615  0.2650
99466W        W42560  22.554   2.924  25.201 -0.1758  0.1237 -0.1585
99467W        W42561  21.958   3.438  25.356  0.1547  0.0045  0.0334
99468W        W42562  24.916   0.465  22.907  0.0532  0.1606  0.1866
99469W        W42563  24.025   1.578  23.258  0.0910 -0.2242  0.0656
99470W        W42564  22.341   2.154  24.648 -0.1194 -0.2615  0.3902
99471W        W42565  26.240  34.283  27.314 -0.2584 -0.4117  0.2281
99472W        W42566  25.950   0.094  22.171 -0.1209 -0.1044 -0.3425
99473W        W42567  24.676   0.330  26.540 -0.1984 -0.1304 -0.1437
99474W        W42568  24.280   1.333  27.008  0.0537  0.0120 -0.4313
99475W        W42569  24.006   2.264  25.002  0.4687  0.1033 -0.0946
99476W        W42570  21.455   2.412  26.125  0.2059  0.1525 -0.0633
99477W        W42571  24.733   4.036  27.007 -0.0779  0.0709  0.4131
99478W        W42572  22.263   3.672  26.265 -0.0700  0.0234 -0.0881
99479W        W42573  25.239   1.104  24.779 -0.4816 -0.2452 -0.1535
99480W        W42574  20.993  34.569  25.313 -0.1795 -0.3327  0.0803
99481W        W42575  24.476   2.525  26.181 -0.4736 -0.0454 -0.2622
99482W        W42576  24.882   3.414  26.105  0.0508  0.1024 -0.0693
99483W        W42577  23.723   3.726  23.463  0.2154 -0.0889 -0.1587
99484W        W42578  26.328   0.554  25.568 -0.0119 -0.0228 -0.1021
99485W        W42579  24.426   2.643  27.026  0.0109  0.1586 -0.0219
99486W        W42580  23.388   1.801  24.425 -0.1396 -0.2949  0.0953
99487W        W42581  23.980   2.154  23.143 -0.3082  0.0378  0.0965
99488W        W42582  22.923   1.100  25.788  0.0962  0.1337 -0.0203
99489W        W42583  23.235   0.984  26.163 -0.2321  0.0229  0.1016
99490W        W42584  24.714   1.709  23.926 -0.2482  0.4147 -0.1169
99491W        W42585  23.898   0.319  25.149  0.1106  0.0373  0.0641
99492W        W42586  23.972   0.318  28.098  0.0882  0.1587 -0.2747
99493W        W42587  25.299   0.207  27.085 -0.1343 -0.0538 -0.0370
99494W        W42588  23.089   1.093  26.719  0.2089 -0.0505 -0.1882
99495W        W42589  22.201   2.797  27.160  0.2082  0.2679  0.0497
99496W        W42590  25.587   2.991  27.507  0.0041 -0.0353  0.1811
99497W        W42591  23.917   0.836  23.290  0.0119  0.2010 -0.0220
99498W        W42592  25.356   0.985  26.140  0.1173 -0.1674  0.0676
99499W        W42593  24.353   0.967  24.993  0.2841  0.2360 -0.0061
99500W        W42594  23.395   1.228  22.130  0.1545  0.0826 -0.1587
99501W        W42595  22.754   0.618  26.017  0.1935  0.2895 -0.1267
99502W        W42596  25.090   2.326  26.419  0.1949  0.0950  0.0636
99503W        W42597  22.452   0.765  24.740  0.2072  0.0065 -0.3614
99504W        W42598  23.799   1.095  27.133 -0.3129  0.1778  0.2176
99505W        W42599  24.172   3.802  23.796  0.1497 -0.0489 -0.2899
99506W        W42600  23.781   4.199  24.610 -0.0005 -0.1793  0.0798
99507W        W42601  23.543  34.663  23.592  0.0778  0.1575 -0.3241
99508W        W42602  20.397  34.138  24.677 -0.2482  0.0759 -0.1334
99509W        W42603  20.933   4.899  25.828  0.0783  0.0559  0.1743
99510W        W42604  22.879   1.185  24.871  0.1839 -0.0887  0.1828
99511W        W42605  24.141   2.264  24.528  0.0822  0.2146  0.1534
99512W        W42606  22.574   2.521  26.030 -0.2414  0.0651  0.2620
99513W        W42607  26.444   3.016  27.754 -0.0761 -0.2211 -0.0658
99514W        W42608  23.074   1.624  23.547  0.1709 -0.4189 -0.0619
99515W        W42609  26.276   1.190  28.181  0.1604  0.0254  0.2564
99516W        W42610  22.529   3.357  24.001  0.0618 -0.2109 -0.0253
99517W        W42611  23.405   0.839  24.699  0.0191 -0.3845 -0.0108
99518W        W42612  21.985   4.571  25.065  0.0028 -0.0098 -0.3095
99519W        W42613  20.338   2.435  25.641 -0.3576 -0.1322  0.2142
99520W        W42614  21.693   2.374  25.166  0.0867  0.1123 -0.2906
99521W        W42615  23.567   0.828  26.645 -0.0147  0.2149  0.0492
99522W        W42616  25.526   2.067  26.504  0.0803  0.0670  0.5690
99523W        W42617  22.793   2.403  26.588  0.4360 -0.1715  0.0693
99524W        W42618  25.159   2.022  26.953 -0.0530 -0.3242 -0.0511
99525W        W42619  23.594   2.208  25.358 -0.1232  0.0767 -0.1058
99526W        W42620  23.815   2.423  25.763 -0.2320  0.3279  0.1578
99527W        W42621  23.300   2.495  26.393  0.0226 -0.2218 -0.0483
99528W        W42622  25.842   2.078  25.124  0.0991  0.0435  0.2199
99529W        W42623  24.496   1.572  25.567  0.1633  0.1374  0.1856
99530W        W42624  21.853  34.265  27.246 -0.1794 -0.3254  0.3487
99531W        W42625  23.654   2.018  26.551 -0.1399  0.1570  0.1463
99532W        W42626  23.031   1.366  25.333  0.0655  0.1378 -0.0621
99533W        W42627  23.458   0.616  23.928  0.0279 -0.0306 -0.3006
99534W        W42628  25.083   3.753  24.360 -0.2115 -0.0441 -0.1257
99535W        W42629  21.639   4.064  27.114 -0.0705 -0.0601 -0.0502
99536W        W42630  22.098   1.763  26.260 -0.2977  0.0482  0.0279
99537W        W42631  22.888   3.268  22.866 -0.0578  0.0729 -0.2405
99538W        W42632  25.161   3.507  23.010 -0.2194 -0.2920 -0.1565
99539W        W42633  23.449   2.556  24.075  0.1658  0.1450  0.2838
99540W        W42634  22.167   1.821  25.769  0.3227  0.1809 -0.1580
99541W        W42635  22.619   0.395  23.656  0.1003 -0.0263 -0.2026
99542W        W42636  22.728   3.395  24.903 -0.2226  0.1819 -0.4381
99543W        W42637  22.180   2.541  22.916 -0.0226 -0.0285  0.0412
99544W        W42638  24.796   4.033  24.015  0.1479 -0.1204 -0.2674
99545W        W42639  23.039   2.997  25.111  0.0213  0.1726  0.1130
99546W        W42640  24.167   3.691  27.803 -0.0254 -0.0447 -0.1757
99547W        W42641  24.875   0.059  23.982 -0.0097 -0.0973  0.2597
99548W        W42642  25.607   2.527  25.147 -0.0305  0.0366 -0.0671
99549W        W42643  26.293   2.060  24.433 -0.1211 -0.2867  0.0056
99550W        W42644  24.490   2.586  27.652  0.1518  0.3188  0.2433
99551W        W42645  23.471   0.968  25.318  0.1886 -0.0757  0.0189
99552W        W42646  22.558  33.459  23.638 -0.1403  0.1541 -0.0008
99553W        W42647  23.488   2.170  26.070 -0.0491 -0.4087 -0.1684
99554W        W42648  25.956   1.551  27.324  0.1502 -0.1443 -0.0203
99555W        W42649  20.933   4.165  25.983  0.0452 -0.3696 -0.0321
99556W        W42650  24.327   3.917  24.807 -0.0193  0.0769 -0.5010
99557W        W42651  21.142   0.591  24.791  0.2655  0.1368 -0.0101
99558W        W42652  22.433   1.243  25.110 -0.1094  0.2518 -0.0166
99559W        W42653  24.650   0.910  26.074 -0.1602 -0.1727  0.2944
99560W        W42654  23.789   3.419  23.857 -0.2242  0.4820  0.3239
99561W        W42655  23.387   1.425  24.041 -0.2618  0.2589 -0.2119
99562W        W42656  22.727   1.819  25.182  0.2347 -0.1016  0.0075
99563W        W42657  23.372   2.763  25.453  0.2670  0.0024 -0.2522
99564W        W42658  22.880   4.429  24.922 -0.0228 -0.0844 -0.0158
99565W        W42659  21.873  34.589  24.434  0.1174 -0.0602  0.1637
99566W        W42660  24.989   2.634  26.056 -0.3134 -0.1292 -0.0778
99567W        W42661  23.795   0.970  26.213 -0.2529 -0.1741 -0.2044
99568W        W42662  26.095  34.653  27.033 -0.0395 -0.1382  0.1810
99569W        W42663  23.271   0.488  24.362  0.1379 -0.1212  0.3828
99570W        W42664  25.529   1.541  24.868  0.1486  0.1345 -0.0610
99571W        W42665  22.562   1.809  26.071  0.1538  0.2267  0.2369
99572W        W42666  22.894   1.363  26.301  0.2010  0.0091 -0.1503
99573W        W42667  23.635   1.248  23.001  0.2528 -0.5007 -0.1761
99574W        W42668  24.736   2.261  27.287 -0.0660  0.1393 -0.0797
99575W        W42669  24.513   0.329  22.555  0.1381  0.3747  0.0683
99576W        W42670  23.410   3.921  26.479 -0.0865  0.0962  0.0025
99577W        W42671  22.561   0.918  26.341  0.5049  0.2760 -0.0188
99578W        W42672  25.157   1.283  23.359 -0.2784  0.1295 -0.2451
99579W        W42673  23.362   3.252  25.606  0.1843  0.1926  0.2469
99580W        W42674  25.155   2.439  25.231 -0.0301 -0.3729  0.0050
99581W        W42675  25.572   3.046  28.089 -0.1023  0.2088 -0.1189
99582W        W42676  22.492   0.430  26.561 -0.2283 -0.1347  0.2885
99583W        W42677  25.512   2.737  22.779 -0.1475  0.4061  0.0943
99584W        W42678  26.058   1.218  24.815  0.0402  0.1233  0.0253
99585W        W42679  24.497   4.757  25.029  0.2386 -0.0238 -0.1655
99586W        W42680  24.764   2.614  24.526  0.1525 -0.0076  0.1521
99587W        W42681  23.030   2.423  25.946 -0.0507  0.0925  0.1362
99588W        W42682  21.830   2.488  27.014  0.2208 -0.0463 -0.0317
99589W        W42683  25.692   0.591  26.013  0.0475  0.0319  0.0158
99590W        W42684  25.223   2.740  25.592 -0.2927  0.0168 -0.0766
99591W        W42685  22.783   0.959  24.431 -0.1641  0.1543 -0.2227
99592W        W42686  24.212   0.933  25.859 -0.0941 -0.1976  0.2187
99593W        W42687  21.300   2.835  25.999  0.0156 -0.3099  0.4510
99594W        W42688  26.522   2.979  25.051  0.1840 -0.1760  0.0275
99595W        W42689  25.696   1.172  27.128 -0.0211 -0.1878 -0.1774
99596W        W42690  24.162   4.042  22.993  0.1317 -0.0507  0.1513
99597W        W42691  23.855   0.531  26.941 -0.2323 -0.0170  0.0946
99598W        W42692  23.451   2.676  27.006 -0.2276  0.3964 -0.2740
99599W        W42693  22.519   3.651  26.841  0.2126 -0.0650  0.1768
99600W        W42694  22.210   1.851  23.670  0.1873  0.4276  0.0088
99601W        W42695  24.876   3.072  28.347  0.0990  0.4060  0.0885
99602W        W42696  22.580   4.029  24.223 -0.1401  0.0809 -0.1523
99603W        W42697  23.359   3.144  23.716 -0.0637  0.0689 -0.0642
99604W        W42698  25.618   2.779  24.298 -0.2003  0.2698  0.0228
99605W        W42699  24.324   1.126  23.267 -0.0558 -0.0369 -0.0617
99606W        W42700  26.108   2.514  25.258  0.1142  0.0601  0.1032
99607W        W42701  23.065   0.090  25.740 -0.4924  0.1187  0.1352
99608W        W42702  26.710   0.724  25.249 -0.0186 -0.1822  0.0627
99609W        W42703  26.240   1.268  25.334 -0.2144  0.0441 -0.0374
99610W        W42704  22.362   2.178  26.441 -0.1073 -0.0772  0.3192
99611W        W42705  22.374   2.288  23.876 -0.1287 -0.2892 -0.0568
99612W        W42706  21.758   2.398  23.285 -0.1762  0.3234  0.1721
99613W        W42707  22.210   0.455  25.746  0.0508 -0.0504  0.0939
99614W        W42708  23.373   0.683  27.419 -0.0643 -0.1538 -0.1104
99615W        W42709  22.310   1.781  27.147 -0.1585 -0.0847 -0.2862
99616W        W42710  23.037   3.678  24.096  0.2463  0.1885 -0.2687
99617W        W42711  23.159  34.489  24.899  0.0107 -0.1614 -0.1640
99618W        W42712  24.404   2.764  24.946 -0.1957 -0.0256 -0.2087
99619W        W42713  22.195   1.255  26.289 -0.2456 -0.0538  0.1220
99620W        W42714  20.662   0.618  26.110 -0.0164 -0.1648 -0.0146
99621W        W42715  24.018   3.298  24.420 -0.0314 -0.0360 -0.1058
99622W        W42716  24.589   2.260  24.890  0.0262  0.2455 -0.2843
99623W        W42717  21.946   1.385  25.896 -0.0213  0.0295 -0.0556
99624W        W42718  23.889   3.390  27.470 -0.2942  0.4117  0.3469
99625W        W42719  22.139   2.704  24.679 -0.0353  0.2524  0.1508
99626W        W42720  23.047   1.809  25.766 -0.0438 -0.0483  0.0128
99627W        W42721  22.862   0.973  27.361  0.2466 -0.1086 -0.0586
99628W        W42722  21.331   0.615  24.341  0.2325  0.2755  0.1776
99629W        W42723  23.446   1.665  25.408 -0.0414  0.2144 -0.1385
99630W        W42724  22.815   2.405  24.022  0.0584  0.0402  0.0881
99631W        W42725  25.926   3.070  22.861 -0.3917 -0.2270 -0.1666
99632W        W42726  23.552   3.740  24.560 -0.0733  0.1336 -0.1298
99633W        W42727  23.139   2.075  26.765  0.0045  0.2988  0.2941
99634W        W42728  21.749   2.007  26.001  0.0138  0.0480  0.1281
99635W        W42729  23.930   2.368  24.054  0.0511 -0.1010  0.2056
99636W        W42730  23.803   3.895  27.406  0.0389 -0.0602  0.3687
99637W        W42731  25.452   2.967  25.998 -0.1575  0.2508 -0.2462
99638W        W42732  25.862   0.165  26.258  0.1073 -0.2711  0.1026
99639W        W42733  24.660   2.634  23.672  0.0462 -0.0477  0.0097
99640W        W42734  22.154   1.518  26.711  0.1665 -0.0115  0.0598
99641W        W42735  22.707   3.475  26.448  0.0190  0.0088 -0.0542
99642W        W42736  25.663   1.844  26.017  0.0944  0.0087 -0.1564
99643W        W42737  21.873   0.927  24.042 -0.1538 -0.1101 -0.4641
99644W        W42738  25.637   1.127  24.491 -0.0166 -0.0972 -0.1428
99645W        W42739  24.989   2.914  24.916  0.5111 -0.2008 -0.0839
99646W        W42740  22.305   2.663  25.577  0.0659 -0.0048 -0.0462
99647W        W42741  23.924   1.242  24.636  0.0016  0.2845 -0.2608
99648W        W42742  23.814   1.627  26.243  0.2692  0.2365  0.2004
99649W        W42743  23.409   4.390  25.742 -0.2357  0.2835  0.1119
99650W        W42744  25.215   1.970  26.088  0.0311  0.0983  0.0973
99651W        W42745  23.254   1.010  24.232  0.1123  0.1406  0.0149
99652W        W42746  25.189   1.918  24.128 -0.0145  0.2604 -0.2386
99653W        W42747  24.343   3.049  26.600  0.1702  0.1189  0.0652
99654W        W42748  24.205   2.585  28.567 -0.0128  0.0004 -0.0946
99655W        W42749  22.505   2.134  25.595 -0.2408  0.0658  0.1694
99656W        W42750  25.349   0.763  26.967 -0.0980 -0.0368 -0.0857
99657W        W42751  21.700  34.590  26.596 -0.1742 -0.0380  0.1164
99658W        W42752  22.258   1.965  25.132 -0.2631 -0.1199  0.0873
99659W        W42753  25.024   1.562  24.783 -0.4371 -0.1722  0.0178
99660W        W42754  23.563   0.324  25.586  0.3197 -0.2819  0.0481
99661W        W42755  21.565   1.942  25.396 -0.2689 -0.1813  0.1692
99662W        W42756  25.135   0.982  23.739  0.2769 -0.2526 -0.0194
99663W        W42757  23.435   3.488  25.173 -0.1294  0.1988  0.1566
99664W        W42758  23.686   1.808  25.763 -0.1698  0.2920  0.1923
99665W        W42759  21.788   4.083  31.332  0.0727 -0.6008  0.0558
99666W        W42760  23.748   1.114  28.677  0.0731  0.0000 -0.1130
99667W        W42761  24.512   2.082  27.661  0.0890 -0.1227 -0.0561
99668W        W42762  25.496   1.992  28.277  0.3563 -0.2342  0.1422
99669W        W42763  22.764  34.667  28.950 -0.1571  0.1651  0.0198
99670W        W42764  24.217   3.061  27.643  0.3273 -0.1593 -0.1030
99671W        W42765  22.888   0.424  30.141  0.0973  0.0818  0.4286
99672W        W42766  23.390   2.503  29.823  0.1177 -0.0027  0.1436
99673W        W42767  25.971   2.020  31.181  0.1095 -0.2295  0.2202
99674W        W42768  24.035   2.341  27.616 -0.4274 -0.4415  0.0205
99675W        W42769  24.663   0.239  30.510 -0.0122  0.0377 -0.0048
99676W        W42770  22.902   2.508  30.855  0.0107 -0.0774  0.0518
99677W        W42771  23.573  34.295  28.489 -0.0050 -0.0094  0.1292
99678W        W42772  21.754   0.887  29.466 -0.2327 -0.0868 -0.0191
99679W        W42773  25.166   1.364  28.702 -0.1450  0.1328  0.0854
99680W        W42774  22.646   1.744  28.220 -0.2389 -0.0241  0.0118
99681W        W42775  23.029   0.577  29.671  0.0200  0.0087 -0.1701
99682W        W42776  23.694   1.663  28.567 -0.0679  0.1184  0.0942
99683W        W42777  23.685   4.424  29.938 -0.1548  0.3103 -0.0997
99684W        W42778  24.837   1.338  29.426  0.0526 -0.0155  0.1087
99685W        W42779  23.270   1.547  31.017 -0.0371  0.1566  0.3405
99686W        W42780  22.837   2.876  28.834 -0.2353  0.1035 -0.2151
99687W        W42781  22.347   2.322  26.975 -0.3011  0.0033 -0.2106
99688W        W42782  22.842   1.381  29.040 -0.2074  0.0955  0.0956
99689W        W42783  22.589   0.876  29.019  0.3141  0.1150  0.0646
99690W        W42784  24.464   1.551  29.123 -0.4369  0.1311  0.1167
99691W        W42785  25.789   2.731  28.538  0.0252  0.1242  0.1068
99692W        W42786  23.036   1.808  29.207  0.2791 -0.0646 -0.1711
99693W        W42787  23.559   3.482  28.750 -0.0259 -0.0025  0.2444
99694W        W42788  24.698   1.831  30.897 -0.0203 -0.3318  0.0903
99695W        W42789  24.059   2.732  28.015 -0.2200  0.0731 -0.1686
99696W        W42790  21.228   3.121  27.843  0.0244 -0.1172 -0.0222
99697W        W42791  21.707   2.961  27.953 -0.3051  0.3837  0.1738
99698W        W42792  24.550   2.882  28.037  0.1653  0.0233 -0.0330
99699W        W42793  22.965   2.779  30.124 -0.0502  0.2435  0.1327
99700W        W42794  23.450   4.027  30.928  0.0085 -0.1597  0.2205
99701W        W42795  21.516   3.835  26.654 -0.0478  0.0971  0.1101
99702W        W42796  22.136   3.587  29.691  0.2858 -0.1346  0.3385
99703W        W42797  22.748   3.516  30.993 -0.2082  0.1963  0.0841
99704W        W42798  22.398   1.412  29.676  0.2259 -0.3255 -0.1687
99705W        W42799  24.068   1.948  27.939  0.0730  0.0789  0.2526
99706W        W42800  22.446   3.494  27.276  0.2652 -0.0099  0.0719
99707W        W42801  24.360   0.738  28.305 -0.2126 -0.1991  0.3047
99708W        W42802  22.311   4.569  28.189 -0.0170  0.1270  0.1161
99709W        W42803  22.734   4.459  27.975 -0.1094 -0.1484  0.5614
99710W        W42804  26.051   1.573  30.849 -0.3235 -0.1552 -0.1692
99711W        W42805  23.982   3.378  26.738  0.1103 -0.0239 -0.2680
99712W        W42806  24.880   1.025  26.986 -0.0631 -0.2528 -0.1959
99713W        W42807  24.896   0.539  26.936 -0.1664  0.0380  0.1099
99714W        W42808  24.697   0.857  27.444 -0.1256 -0.1692  0.0582
99715W        W42809  23.718   1.078  28.115  0.0056 -0.0092 -0.0557
99716W        W42810  21.957   3.100  29.165 -0.1923  0.3264 -0.0343
99717W        W42811  23.075   1.155  30.728 -0.0965 -0.0858 -0.0244
99718W        W42812  24.817   2.714  29.805 -0.0902  0.1480 -0.2272
99719W        W42813  24.257   1.080  27.523  0.0992 -0.0260  0.1301
99720W        W42814  23.710   1.685  29.978 -0.1751 -0.4213 -0.0761
99721W        W42815  22.282   3.105  29.629 -0.4893 -0.0421  0.1700
99722W        W42816  22.048   0.017  28.135 -0.0993  0.0259 -0.1693
99723W        W42817  26.322   2.265  27.700  0.2215  0.1564  0.0765
99724W        W42818  25.437   3.112  29.348 -0.1322 -0.0021  0.0814
99725W        W42819  22.568   3.339  28.208 -0.1860 -0.4419  0.3381
99726W        W42820  22.931   1.698  27.845  0.0451  0.0774 -0.0890
99727W        W42821  21.775   3.166  29.632  0.1082 -0.0642 -0.1675
99728W        W42822  22.265   1.379  30.902  0.0816  0.2441 -0.4185
99729W        W42823  24.153  33.317  27.386 -0.2356 -0.6628 -0.0993
99730W        W42824  24.531   0.677  31.616 -0.2025  0.1130 -0.1475
99731W        W42825  22.380   4.136   0.205 -0.2068  0.2840  0.1867
99732W        W42826  25.628   1.509  29.716  0.0497  0.0114  0.2178
99733W        W42827  23.144   1.781  28.337  0.1530  0.0508  0.0688
99734W        W42828  24.258   3.869  29.462 -0.0610  0.2301  0.1158
99735W        W42829  25.560   2.498  27.664  0.2477 -0.4010 -0.0322
99736W        W42830  25.169   0.015  29.701 -0.2102  0.2432  0.1329
99737W        W42831  24.289   1.059  30.766 -0.0553  0.0934  0.1122
99738W        W42832  21.885   2.923  25.932  0.1745 -0.1525  0.1693
99739W        W42833  23.531   1.414  26.673  0.0063 -0.0094 -0.2706
99740W        W42834  24.284   3.192  30.671  0.1645  0.0334  0.0858
99741W        W42835  24.210   2.189  26.936 -0.5343 -0.0681  0.1507
99742W        W42836  21.275   3.757  31.063  0.3759 -0.0480  0.0509
99743W        W42837  23.691   0.269  30.378 -0.1724  0.0612 -0.2335
99744W        W42838  23.283   3.029  30.938  0.0447 -0.1964  0.0710
99745W        W42839  22.272   5.410  28.009 -0.1420  0.1288 -0.1429
99746W        W42840  22.311   1.951  28.736 -0.1351  0.2617 -0.0904
99747W        W42841  23.065   2.893  26.696  0.4568 -0.2134  0.1346
99748W        W42842  21.860   1.101  30.322  0.2618 -0.0150  0.0340
99749W        W42843  22.467   2.100  30.240  0.0282  0.0869  0.2474
99750W        W42844  25.157   0.974  29.050  0.2369 -0.1059  0.0172
99751W        W42845  23.621   0.084  30.803 -0.0706 -0.0626  0.3683
99752W        W42846  25.452   1.371  29.224  0.3633 -0.2883  0.3372
99753W        W42847  22.843   3.809  27.228  0.1220 -0.3439  0.2237
99754W        W42848  24.625   2.915  28.738 -0.1943  0.2045  0.0843
99755W        W42849  25.644   1.484  28.378 -0.0856 -0.4759 -0.5412
99756W        W42850  23.643   2.841  26.017 -0.1191 -0.2947 -0.2784
99757W        W42851  21.500   1.999  30.828  0.0331 -0.2902 -0.0686
99758W        W42852  23.238   1.290  28.334 -0.2704  0.0405  0.2495
99759W        W42853  21.999   0.562  29.914 -0.2280  0.0380 -0.0859
99760W        W42854  22.512  33.432  30.373 -0.0158  0.1201  0.1735
99761W        W42855  25.135   1.803  31.135  0.1386  0.0360  0.2718
99762W        W42856  22.163   0.542  27.535 -0.2237 -0.0504  0.2264
99763W        W42857  24.498   1.836  28.168 -0.1697 -0.1475  0.2458
99764W        W42858  23.636   1.209  29.286  0.0537 -0.2953  0.1726
99765W        W42859  21.886   2.056  27.390  0.1029 -0.0368 -0.3199
99766W        W42860  25.760   1.362  30.511 -0.0462 -0.2197  0.2265
99767W        W42861  23.686   4.378  27.190  0.2488  0.4384 -0.0783
99768W        W42862  26.300   3.169  30.573  0.0362 -0.0551  0.0759
99769W        W42863  24.142   2.488  30.072 -0.0962 -0.1471 -0.1656
99770W        W42864  22.797   1.101  29.544  0.4237 -0.1748 -0.1022
99771W        W42865  23.341   3.669  27.416 -0.0231 -0.1698  0.0810
99772W        W42866  23.193   4.180  29.293  0.2450 -0.1647  0.3499
99773W        W42867  23.721   2.404  28.818 -0.2178  0.0913 -0.1969
99774W        W42868  23.310   1.429  27.690  0.0964  0.2994  0.2719
99775W        W42869  25.003   5.251  30.447 -0.0906 -0.1919 -0.1341
99776W        W42870  24.314   1.565  27.645  0.2097  0.0318 -0.2457
99777W        W42871  21.897   2.459  31.050 -0.3707  0.0545  0.0037
99778W        W42872  25.933   0.734  30.912 -0.1423  0.0081 -0.1754
99779W        W42873  25.470   1.990  29.855  0.0804  0.0710  0.0861
99780W        W42874  25.380   1.049  28.031  0.1640 -0.0357 -0.1163
99781W        W42875  20.652   1.288  27.347 -0.2222  0.2865  0.1651
99782W        W42876  24.722   3.043  27.538 -0.2359  0.0145  0.0947
99783W        W42877  23.077   4.282  26.601 -0.1158  0.2929 -0.2843
99784W        W42878  21.342   1.224  28.424 -0.2251 -0.1011 -0.2882
99785W        W42879  23.910   3.136  28.761 -0.2595  0.3429 -0.3957
99786W        W42880  24.629   1.791  29.521  0.1948  0.2018 -0.1475
99787W        W42881  21.198   0.685   0.356 -0.1437  0.4088 -0.0916
99788W        W42882  22.498   3.305  30.600  0.1152  0.2290 -0.1494
99789W        W42883  21.917   2.906  28.622  0.1007  0.0992 -0.2186
99790W        W42884  21.852   2.684  29.517  0.1531  0.1530  0.0522
99791W        W42885  24.464   1.129  27.955 -0.1529  0.3004 -0.1832
99792W        W42886  25.453   0.551  29.117  0.0777  0.1763  0.2119
99793W        W42887  24.592   2.725  30.841  0.1127 -0.1377  0.0613
99794W        W42888  25.649   1.712  28.850 -0.2880  0.0959  0.3160
99795W        W42889  23.047   1.614  26.828  0.2090 -0.0220 -0.1736
99796W        W42890  25.230   1.228  27.510 -0.2507 -0.2389  0.1341
99797W        W42891  22.452   2.209  31.803  0.0534  0.0495 -0.2642
99798W        W42892  24.189   3.062  28.384 -0.1148  0.1040 -0.0646
99799W        W42893  23.727   1.700  29.161 -0.0983 -0.0513 -0.2773
99800W        W42894  22.486   1.991  27.593  0.0914 -0.0825  0.2757
99801W        W42895  24.860   3.325  28.827 -0.1026 -0.0854 -0.3043
99802W        W42896  21.811   2.824  30.030  0.1093  0.0005 -0.0076
99803W        W42897  23.593   1.210  30.716 -0.0821  0.2377 -0.2396
99804W        W42898  23.774   2.171  29.801 -0.0005  0.0478  0.1870
99805W        W42899  24.550   0.881  29.232  0.0480  0.0239 -0.2461
99806W        W42900  23.688   2.707  28.408  0.0868  0.4472  0.2196
99807W        W42901  24.418  33.279  28.511  0.4388 -0.1460 -0.1729
99808W        W42902  21.846   4.155  25.851 -0.0183 -0.0829 -0.1047
99809W        W42903  25.497   0.506  30.013  0.2226 -0.4357  0.2203
99810W        W42904  24.234   1.203  28.516  0.0604  0.0734  0.0070
99811W        W42905  24.896   0.404  29.818  0.1097 -0.0722  0.0435
99812W        W42906  25.689   1.400  31.835 -0.1883 -0.0080  0.1163
99813W        W42907  24.145   1.907  27.361  0.1578 -0.0624  0.2180
99814W        W42908  23.665   2.393  30.231  0.0775 -0.0563  0.0070
99815W        W42909  22.579   2.357  28.603  0.1220 -0.1974  0.1249
99816W        W42910  23.345   1.359  30.199  0.1951 -0.1783  0.1185
99817W        W42911  22.955   1.080  28.664 -0.1750  0.1917 -0.0278
99818W        W42912  21.577   3.418   0.044  0.2857  0.0216 -0.1580
99819W        W42913  24.367   3.439   0.148  0.0655  0.1981  0.0485
99820W        W42914  23.751   2.380  28.032  0.1535 -0.1383  0.0330
99821W        W42915  23.102   0.772  31.019  0.0775  0.1001  0.1606
99822W        W42916  24.220   0.214  27.639  0.0249 -0.0810  0.0396
99823W        W42917  22.999   5.114  28.419 -0.2623  0.2178  0.2027
99824W        W42918  23.269   2.635  27.982  0.3582  0.2200  0.0547
99825W        W42919  23.725   0.094  28.499  0.2306 -0.1696  0.5075
99826W        W42920  24.479   3.474  28.173 -0.1983 -0.0021  0.1381
99827W        W42921  22.009   3.415  25.867 -0.1977  0.1004  0.5948
99828W        W42922  23.442   2.208  31.240 -0.0333 -0.3348 -0.0618
99829W        W42923  22.316   3.755  28.468 -0.1266 -0.0215 -0.2982
99830W        W42924  24.361   1.477  30.499  0.0554  0.1725  0.0429
99831W        W42925  19.919   4.869  29.781 -0.0515  0.0933 -0.0490
99832W        W42926  22.439   2.483  27.517 -0.0178 -0.0976  0.2141
99833W        W42927  23.171   0.889  29.237 -0.2912  0.0864 -0.2128
99834W        W42928  25.397   1.560  27.846 -0.0062 -0.2000  0.2080
99835W        W42929  23.820   2.460  27.208 -0.1959 -0.0838  0.2330
99836W        W42930  22.127   0.701  31.199 -0.1158 -0.1647 -0.3307
99837W        W42931  24.746   0.094  28.802  0.0938 -0.1096 -0.1529
99838W        W42932  21.546   3.378  30.806  0.1783 -0.1735  0.2213
99839W        W42933  23.620   0.928  30.243  0.0772 -0.1218 -0.0846
99840W        W42934  23.591  34.045  27.583 -0.1103 -0.0020 -0.2058
99841W        W42935  24.009   2.374  31.344  0.2163 -0.0448  0.0020
99842W        W42936  22.685   0.857  30.547  0.1414 -0.2511 -0.1405
99843W        W42937  21.420   2.583  27.358 -0.0548 -0.2096 -0.0062
99844W        W42938  25.937   1.907  29.688 -0.2972  0.2916  0.0866
99845W        W42939  23.169   1.430  29.441  0.1473  0.0425 -0.1057
99846W        W42940  21.573   3.639  29.685  0.4890 -0.0565  0.0095
99847W        W42941  23.619   3.209  30.531  0.0570 -0.2266  0.0693
99848W        W42942  22.629   3.313  28.777 -0.0051  0.5377  0.4316
99849W        W42943  23.460   3.162  28.364  0.0138 -0.1434 -0.0984
99850W        W42944  23.610   0.686  29.619  0.1319  0.0279  0.2563
99851W        W42945  24.213   1.634  30.068 -0.0067 -0.0283 -0.0269
99852W        W42946  24.240   0.720  28.872  0.2549  0.0014 -0.1626
99853W        W42947  24.082   1.510  28.162  0.1748  0.1081 -0.1252
99854W        W42948  23.839   0.610  28.522  0.1981 -0.3604  0.2322
99855W        W42949  24.531   0.621  30.130  0.0548  0.1973 -0.4158
99856W        W42950  23.744   2.289  30.663 -0.0216 -0.2045  0.1674
99857W        W42951  22.791   2.746  31.612  0.1701  0.0629 -0.1009
99858W        W42952  24.689  34.655  29.985  0.3305 -0.2372 -0.2387
99859W        W42953  27.312   3.852  28.022 -0.1372  0.0691 -0.3844
99860W        W42954  24.580   0.925  31.193 -0.1400  0.2896  0.2127
99861W        W42955  22.593   3.658  27.727  0.0269 -0.3205  0.1998
99862W        W42956  21.685   1.848  29.734 -0.1571 -0.0779 -0.6107
99863W        W42957  23.700   1.985  27.531 -0.3807  0.1271 -0.1765
99864W        W42958  24.074   0.855  29.516  0.0505 -0.0081  0.1163
99865W        W42959  22.048   3.241  30.068  0.0188  0.0438  0.0858
99866W        W42960  21.994   3.961  27.612  0.3333  0.2229 -0.1123
99867W        W42961  22.601   3.156  30.071 -0.2358  0.0389 -0.2003
99868W        W42962  25.555  34.181  27.782  0.1458  0.1385  0.0275
99869W        W42963  23.430   3.148  27.720 -0.3089  0.2530  0.1328
99870W        W42964  22.453   0.414  28.158  0.0662  0.2252  0.0631
99871W        W42965  26.996   0.724  30.067 -0.1342 -0.0396  0.1174
99872W        W42966  24.722   1.442  26.711  0.0591  0.2865 -0.0142
99873W        W42967  22.809  34.399  29.936 -0.0481  0.0296  0.3097
99874W        W42968  22.518   0.566  29.761 -0.0009  0.2215 -0.0987
99875W        W42969  24.479   3.300  29.677 -0.0316  0.1744  0.1831
99876W        W42970  21.204   1.198  28.935 -0.0398  0.0819  0.0036
99877W        W42971  24.852   4.053  30.095 -0.0467 -0.3239  0.1087
99878W        W42972  21.509   2.125  30.272  0.1036 -0.2132 -0.1057
99879W        W42973  25.061   0.188  29.261  0.1672  0.1887 -0.2876
99880W        W42974  21.034   1.212  27.628 -0.1248  0.1060 -0.2969
99881W        W42975  23.335   1.952  28.804  0.1496  0.0128 -0.2905
99882W        W42976  25.086   2.891  28.946 -0.0115  0.3201  0.0536
99883W        W42977  22.644   2.348  29.811  0.1074  0.1190  0.0173
99884W        W42978  26.638   1.231  28.582 -0.0772  0.0910 -0.1879
99885W        W42979  23.720   0.762  29.136 -0.1434  0.2088  0.0602
99886W        W42980  24.617   0.933  29.756  0.1074 -0.1369 -0.0813
99887W        W42981  24.729   1.344  27.307  0.0097 -0.1218  0.0776
99888W        W42982  23.887   3.231  27.964  0.3514  0.0782 -0.2376
99889W        W42983  22.997   1.425   0.335 -0.0755 -0.0419  0.0972
99890W        W42984  23.982   1.441  30.819 -0.1320  0.0249  0.3203
99891W        W42985  24.311   0.219  28.579  0.3240 -0.2635  0.0638
99892W        W42986  24.420   0.437  29.707  0.0937  0.1437 -0.1111
99893W        W42987  24.882   1.573  30.371 -0.1024  0.1919 -0.1572
99894W        W42988  22.976   2.931  29.671 -0.0210  0.1376 -0.0182
99895W        W42989  22.663   0.026  31.780 -0.1024 -0.2132 -0.2579
99896W        W42990  23.654   3.765  30.487  0.1698  0.0061  0.1336
99897W        W42991  24.852   1.445  27.823 -0.1017 -0.1760  0.4257
99898W        W42992  25.321   2.190  31.902 -0.3198 -0.0616  0.2878
99899W        W42993  25.136   1.644  28.312  0.1859  0.0764 -0.2772
99900W        W42994  24.592   1.776  27.060 -0.0668  0.1015 -0.0201
99901W        W42995  22.379   0.489  30.275 -0.2757  0.1468 -0.1428
99902W        W42996  24.667   1.808  31.431  0.2664  0.0598 -0.1801
99903W        W42997  22.664   2.218  28.047  0.0053 -0.0969 -0.0765
99904W        W42998  24.883   1.747  31.885 -0.0017 -0.2497 -0.1952
99905W        W42999  23.070   3.501  28.445 -0.2419  0.2044  0.1997
99906W        W43000  23.863   2.801  29.131  0.1375  0.4212 -0.0007
99907W        W43001  25.846   1.876  27.921 -0.0990  0.1809  0.0348
99908W        W43002  22.458   0.683  28.562  0.0426  0.0948 -0.0718
99909W        W43003  21.854   3.706  30.189  0.2491 -0.1567  0.2471
99910W        W43004  21.431   2.265  28.133  0.2676 -0.2868 -0.1539
99911W        W43005  24.584   2.176  28.610  0.2052  0.2523 -0.1282
99912W        W43006  24.874   0.603  28.963  0.0910 -0.0564  0.0676
99913W        W43007  25.729   3.986  31.028  0.1581 -0.2903  0.1626
99914W        W43008  24.348   0.617  27.061 -0.1618 -0.1111  0.1520
99915W        W43009  25.910   0.799  30.422  0.1377 -0.1139  0.1537
99916W        W43010  22.778   3.890  28.220 -0.2471 -0.1659  0.0554
99917W        W43011  22.875  34.369  29.389 -0.2398  0.2183 -0.0475
99918W        W43012  22.357   2.794  28.944 -0.1590  0.3861  0.1665
99919W        W43013  21.468   4.422  29.745 -0.2238 -0.1164  0.1369
99920W        W43014  22.434   4.066  27.417  0.1326 -0.1790  0.0886
99921W        W43015  25.005   0.779  29.492  0.2002 -0.2089 -0.1408
99922W        W43016  25.465   0.865  29.572 -0.2624  0.1887  0.0367
99923W        W43017  23.768   1.210  29.814 -0.0371 -0.1067 -0.0812
99924W        W43018  27.446   2.386  30.765 -0.0688  0.2245 -0.2713
99925W        W43019  22.471   1.767  30.627 -0.2078  0.2086  0.0436
99926W        W43020  24.245   1.714  28.624 -0.2000  0.0828  0.0505
99927W        W43021  24.314   2.108  29.858  0.2538  0.1281  0.1383
99928W        W43022  24.091   1.199  29.128 -0.0666 -0.0371 -0.2238
99929W        W43023  23.264   2.791  29.239  0.2161 -0.1762  0.0308
99930W        W43024  21.303   0.873  31.891  0.0628 -0.1691  0.2562
99931W        W43025  23.967   1.977  30.323 -0.1827 -0.0171  0.0223
99932W        W43026  26.409   2.199  29.059 -0.0943 -0.2075 -0.0021
99933W        W43027  22.983   0.340  29.242 -0.0277 -0.0004  0.3468
99934W        W43028  23.076   2.858  28.405  0.0385  0.1425  0.1882
99935W        W43029  23.585   3.015  31.427 -0.0614  0.2434  0.0395
99936W        W43030  22.711   2.331  29.104  0.1102 -0.2581 -0.2464
99937W        W43031  22.085   4.564  27.707 -0.2962 -0.1190  0.2113
99938W        W43032  25.964   1.859  28.446  0.2618  0.0282 -0.2362
99939W        W43033  24.728   2.935  29.293  0.4537 -0.0989 -0.0226
99940W        W43034  24.273   3.079  29.089  0.1678 -0.0369  0.0916
99941W        W43035  22.929   3.006  27.951 -0.5867 -0.1177  0.0984
99942W        W43036  23.129   3.521  27.954 -0.2861 -0.1072  0.1649
99943W        W43037  22.049   3.970  26.640 -0.2263 -0.0064 -0.0714
99944W        W43038  25.586   2.202  26.990  0.0682  0.0646  0.0601
99945W        W43039  21.893   3.771  29.210 -0.0194  0.1341  0.0179
99946W        W43040  24.208   1.911  30.757  0.1571  0.2023 -0.2274
99947W        W43041  25.539   0.608  26.484  0.4312  0.1432 -0.2537
99948W        W43042  25.489   2.776  29.742  0.2120 -0.2159  0.1187
99949W        W43043  25.229   0.327  28.661  0.1580  0.1227 -0.1130
99950W        W43044  25.492   0.932  31.819  0.4041 -0.0600 -0.2047
99951W        W43045  23.412   0.511  30.040  0.0231 -0.1923 -0.3453
99952W        W43046  23.588   1.636  28.033  0.0432 -0.0454 -0.0986
99953W        W43047  23.050   1.351  31.386 -0.1381 -0.0485 -0.0756
99954W        W43048  27.060  33.906  30.554  0.0157  0.0233  0.0649
99955W        W43049  21.641   4.215  30.137 -0.1334 -0.1017 -0.1257
99956W        W43050  25.040   2.126  28.395  0.3327 -0.2443 -0.1284
99957W        W43051  23.030   2.343  28.387  0.1480 -0.1765 -0.2486
99958W        W43052  22.894   0.642  28.321  0.2471  0.1796 -0.0226
99959W        W43053  25.895   1.633  30.104 -0.0352  0.1054 -0.0145
99960W        W43054  23.414   2.481  27.447 -0.2474 -0.0944 -0.0389
99961W        W43055  24.043   2.134  29.040 -0.1046  0.1062 -0.2734
99962W        W43056  24.174   4.194  29.850  0.1189  0.0659  0.0724
99963W        W43057  22.295   3.465  29.175  0.0051 -0.2120 -0.1782
99964W        W43058  22.470   3.952  29.022  0.4071 -0.0535  0.0239
99965W        W43059  22.775   1.209  27.972 -0.0333 -0.0501 -0.0158
99966W        W43060  26.709   1.694  28.413 -0.0678 -0.0666  0.1615
99967W        W43061  22.563   0.973  31.045  0.1615 -0.1378 -0.1108
99968W        W43062  25.597   1.008  30.076 -0.0421 -0.2340 -0.0294
99969W        W43063  22.814   1.836  28.684 -0.1532 -0.0900 -0.0696
99970W        W43064  25.430  34.484  28.629  0.0411 -0.1743 -0.2336
99971W        W43065  23.564   2.184  29.257  0.1137  0.1338  0.1841
99972W        W43066  22.911   1.383  30.031  0.1211 -0.0208 -0.1455
99973W        W43067  25.121   2.515  26.909 -0.3215 -0.0656 -0.2698
99974W        W43068  25.297   1.699  31.585  0.0765 -0.1285 -0.2633
99975W        W43069  23.484   1.621  27.168  0.0880  0.0939 -0.0522
99976W        W43070  25.350   3.209  30.501  0.1345 -0.0464 -0.0544
99977W        W43071  22.110   1.670  28.381 -0.1435  0.3982 -0.0800
99978W        W43072  25.171   0.687  27.475 -0.2742 -0.0586 -0.3312
99979W        W43073  22.321   3.220  27.812 -0.1893 -0.2731 -0.1375
99980W        W43074  24.678   1.391  28.340 -0.2395 -0.2719  0.0857
99981W        W43075  24.778   3.483  31.375  0.0481  0.0534 -0.3189
99982W        W43076  22.108   0.294  29.484  0.2944 -0.0442  0.0933
99983W        W43077  24.382   3.180  27.176  0.0897  0.2733 -0.0718
99984W        W43078  25.721   2.337  29.592 -0.2039  0.0113 -0.2021
99985W        W43079  22.315   4.427  26.528  0.0625 -0.4412  0.3391
99986W        W43080  26.314   1.632  27.864 -0.0206  0.1308  0.0790
99987W        W43081  25.188   2.482  28.715  0.0220 -0.1374 -0.1106
99988W        W43082  20.780   0.685  31.026  0.0761  0.0113 -0.0571
99989W        W43083  24.763   3.730  29.660 -0.1865 -0.1955 -0.1843
99990W        W43084  24.489   4.334  30.374  0.0738 -0.0638  0.1051
99991W        W43085  24.938   0.904  27.885  0.0338 -0.3808  0.1688
99992W        W43086  22.820   0.479  28.776 -0.3628 -0.3501 -0.2650
99993W        W43087  21.002   3.242  28.261 -0.0597 -0.0047 -0.0392
99994W        W43088  26.310   0.951  29.398 -0.6286  0.4682  0.1831
99995W        W43089  25.843   1.068  31.448 -0.2945 -0.1215  0.1107
99996W        W43090  23.946   3.713  28.572  0.2389 -0.0383  0.0100
99997W        W43091  25.844  34.543  30.854 -0.5263 -0.0655  0.1066
99998W        W43092  23.470   2.861  30.148 -0.4201  0.3212 -0.4154
99999W        W43093  24.077   2.626  30.959 -0.1115 -0.0172  0.0519
    0W        W43094  22.840   3.207  26.990  0.1278 -0.1930 -0.0067
    1W        W43095  23.373   2.028  30.287  0.0501  0.1601  0.0284
    2W        W43096  24.214   4.008  28.939 -0.1893 -0.2604 -0.2087
    3W        W43097  24.840   2.444  29.062  0.1087  0.0235  0.0826
    4W        W43098  24.644   2.334  29.496  0.0379  0.0216  0.0102
    5W        W43099  24.071   0.788  27.856  0.0506 -0.2805 -0.0230
    6W        W43100  26.093   3.587  28.383  0.0416 -0.1503  0.0376
    7W        W43101  24.012  34.483  28.732 -0.2606  0.2403  0.0955
    8W        W43102  25.928   0.297  29.235  0.1035 -0.0003  0.0681
    9W        W43103  24.786  34.463  27.564  0.3037 -0.0006  0.2422
   10W        W43104  22.929   1.921  30.058 -0.3284 -0.1230 -0.0082
   11W        W43105  21.267   2.657  27.857  0.3169  0.2313  0.0804
   12W        W43106  23.519   2.089  27.032 -0.2010  0.0115 -0.1569
   13W        W43107  23.083   2.313  29.416  0.1280  0.0134 -0.0712
   14W        W43108  23.995   0.433  30.854 -0.1830  0.2501 -0.3011
   15W        W43109  22.221   1.285  29.216 -0.1500  0.0730  0.0625
   16W        W43110  22.669   1.866  29.621  0.1059  0.0534  0.0106
   17W        W43111  21.839   1.482  28.773 -0.0489  0.4167  0.0465
   18W        W43112  24.762   1.750  28.680  0.1983 -0.1317 -0.2018
   19W        W43113  23.567   0.306  29.271  0.0848 -0.0082  0.2603
   20W        W43114  21.861  34.521  29.435 -0.0785 -0.1209 -0.0216
   21W        W43115  25.284   1.994  28.949  0.0135 -0.0737 -0.0331
   22W        W43116  25.380   3.328  28.902  0.0019  0.0466  0.1920
   23W        W43117  23.417   0.382  28.237  0.3393  0.0778  0.0696
   24W        W43118  24.743   3.777  31.001  0.1360  0.0279 -0.0116
   25W        W43119  21.007   2.622  26.422  0.2747  0.1711  0.2190
   26W        W43120  23.766   1.474  31.255 -0.0685  0.5601  0.0231
   27W        W43121  22.922   0.449  30.680  0.1002  0.2522 -0.0117
   28W        W43122  22.401   0.362  29.010  0.0152 -0.2001  0.1368
   29W        W43123  22.469   1.637  30.153  0.1163  0.1446 -0.2740
   30W        W43124  24.112   3.011  29.993  0.2260 -0.3523  0.0391
   31W        W43125  23.961   4.980  27.803 -0.0550  0.0218  0.2608
   32W        W43126  23.503   3.070  29.651 -0.3435 -0.2002  0.0704
   33W        W43127  23.677   4.123  29.523  0.0870  0.0897  0.2414
   34W        W43128  23.979   0.678  27.359 -0.2195  0.5117 -0.0459
   35W        W43129  24.711   1.163  28.805 -0.0066  0.1766 -0.0662
   36W        W43130  23.105   3.327  29.996 -0.1940  0.0431 -0.0141
   37W        W43131  25.243   2.273  27.380 -0.1867  0.2979  0.4875
   38W        W43132  25.157   1.273  29.915  0.1726  0.0883  0.0133
   39W        W43133  23.810   1.470  27.458 -0.0449 -0.1547  0.0517
   40W        W43134  23.371  34.088  29.439  0.0968  0.1944  0.3873
   41W        W43135  23.059   1.672  30.515  0.1229 -0.1544  0.2364
   42W        W43136  25.311   2.691  31.096  0.1044 -0.0567  0.1822
   43W        W43137  22.213   0.946  27.899 -0.0814  0.1593 -0.1537
   44W        W43138  24.919   2.453  27.813  0.0175 -0.1502 -0.1555
   45W        W43139  22.914   2.537  27.619 -0.1043 -0.0378  0.0835
   46W        W43140  22.207   0.991  29.662 -0.0804  0.0885 -0.1168
   47W        W43141  23.284   2.092  27.935 -0.3037  0.1879 -0.0455
   48W        W43142  23.860   1.355  30.323 -0.0697  0.1368 -0.2937
   49W        W43143  23.512   2.158  28.391  0.0596  0.0248 -0.0119
   50W        W43144  23.591   1.732  30.591  0.1463  0.3937 -0.1802
   51W        W43145  22.643   3.000  27.420 -0.2113 -0.0481 -0.1664
   52W        W43146  26.428   3.496  27.871  0.2073 -0.2390  0.0787
   53W        W43147  23.992   3.509  29.118  0.1099  0.2439 -0.2412
   54W        W43148  26.707   3.922  31.389  0.2050  0.1449 -0.1625
   55W        W43149  21.524   4.957  29.122 -0.1366  0.0689  0.0568
   56W        W43150  24.049   1.753  29.567 -0.2841  0.0106 -0.0903
   57W        W43151  22.802  34.204  28.851  0.1197  0.2682 -0.0414
   58W        W43152  24.364   2.548  29.049 -0.1976  0.1794 -0.3451
   59W        W43153  24.072   2.129  28.413  0.0430  0.1193 -0.0884
   60W        W43154  24.500   1.951  30.307 -0.0280 -0.1687 -0.1337
   61W        W43155  23.338   0.737  28.629  0.1964  0.0533 -0.1361
   62W        W43156  23.573  34.548  28.029 -0.1009 -0.1114  0.0899
   63W        W43157  22.326   4.036  29.876  0.3240  0.1642  0.2042
   64W        W43158  24.178   0.995  30.125  0.3579  0.0312 -0.0827
   65W        W43159  25.486   0.256  31.040  0.0289  0.0074 -0.2287
   66W        W43160  24.478   2.238  31.077 -0.1784  0.2552 -0.0059
   67W        W43161  21.887   1.655  31.399  0.1008 -0.0198  0.1439
   68W        W43162  21.951   3.032  31.423  0.1496 -0.0099  0.1630
   69W        W43163  24.531   2.772  31.680 -0.1212  0.0186  0.0598
   70W        W43164  22.037   4.316   0.548 -0.0364  0.3669  0.1452
   71W        W43165  24.570   1.279  31.753 -0.4521 -0.0035 -0.1930
   72W        W43166  22.744   0.400  31.231 -0.0706  0.0264 -0.1194
   73W        W43167  24.969   0.025  31.169 -0.2096 -0.1452  0.0174
   74W        W43168  23.131   2.620  31.251 -0.1636 -0.0403  0.1785
   75W        W43169  25.162   3.649  31.584  0.0576 -0.0903 -0.1387
   76W        W43170  23.485   0.599  30.712  0.3423  0.1715  0.1045
   77W        W43171  25.195   2.379  29.840  0.0498 -0.2598 -0.1658
   78W        W43172  23.257   3.381   0.180  0.0093  0.4246 -0.2931
   79W        W43173  25.054   2.008  30.152 -0.1005  0.0470  0.0992
   80W        W43174  22.587   4.254  30.412 -0.0041  0.2221 -0.2581
   81W        W43175  22.729   1.718  31.591  0.3498  0.1406 -0.2779
   82W        W43176  26.085   4.476   0.004 -0.0661 -0.0164  0.2578
   83W        W43177  23.339  33.303   1.043 -0.0893  0.3946  0.0336
   84W        W43178  22.822   0.684   1.060 -0.1302 -0.3731  0.2718
   85W        W43179  22.707  34.240  30.818 -0.1462 -0.4468  0.0744
   86W        W43180  23.063   3.843  31.359  0.2483 -0.3990  0.3456
   87W        W43181  25.296  34.646  30.691  0.0677  0.3263 -0.3418
   88W        W43182  24.748   1.257  30.751 -0.2340 -0.1062  0.1151
   89W        W43183  23.462   1.072  31.409 -0.0784 -0.1305 -0.0208
   90W        W43184  24.069   1.457   0.120 -0.1039 -0.2214  0.1528
   91W        W43185  21.993   1.899  30.220  0.1577  0.1317  0.0141
   92W        W43186  21.422   3.824  31.570  0.1903  0.2552  0.0988
   93W        W43187  22.821   0.900  30.011  0.1833  0.5224  0.1284
   94W        W43188  22.317   2.667  30.134  0.0281  0.1489 -0.0512
   95W        W43189  23.137   3.122  30.470  0.0625  0.1128 -0.0852
   96W        W43190  22.606   0.789   0.004 -0.1710  0.0049 -0.0366
   97W        W43191  24.473   2.294  31.578 -0.0425  0.4132  0.2781
   98W        W43192  23.747  34.499  30.108  0.3116  0.1286  0.1143
   99W        W43193  21.962   1.156  31.205  0.0699 -0.0501 -0.0507
  100W        W43194  23.610   2.709  31.053 -0.1239 -0.2750  0.1313
  101W        W43195  23.414   3.473  31.155 -0.4481 -0.4461 -0.0408
  102W        W43196  23.168   3.662  30.762  0.2180 -0.0291  0.1672
  103W        W43197  24.343   1.430  31.195 -0.0828  0.3314 -0.1836
  104W        W43198  22.999   2.187  31.600 -0.1162 -0.5190  0.2489
  105W        W43199  26.746   1.148  31.228  0.0443  0.0284  0.0220
  106W        W43200  23.856   3.106  30.957  0.2972  0.0942 -0.1652
  107W        W43201  22.351   1.034  30.190  0.0757  0.1357 -0.0038
  108W        W43202  23.612   3.375  30.101 -0.1413  0.1307 -0.1644
  109W        W43203  22.643   1.328  30.494  0.1081 -0.0206  0.0731
  110W        W43204  23.610   3.897  31.444 -0.0050  0.0041  0.0340
  111W        W43205  25.280   0.583   0.816 -0.0994  0.3723  0.1988
  112W        W43206  23.861   2.769  30.507  0.1217 -0.0676 -0.0421
  113W        W43207  24.872   2.589  31.333  0.1526  0.0720  0.0672
  114W        W43208  21.810   2.924  30.942  0.3688 -0.1492 -0.0180
  115W        W43209  24.076   4.665  31.145  0.2685  0.0147 -0.0291
  116W        W43210  25.056   0.949  31.001  0.2308 -0.1413  0.2440
  117W        W43211  22.419   0.018  30.915 -0.0835 -0.0062 -0.2442
  118W        W43212  22.657   3.482  29.672 -0.1273 -0.1059 -0.1530
  119W        W43213  24.167   0.956   0.056 -0.5028 -0.1029 -0.1089
  120W        W43214  23.602   0.585  31.206 -0.0153  0.0960  0.0779
  121W        W43215  25.559   2.762  30.610  0.2678  0.4540  0.0858
  122W        W43216  24.225   2.974   0.005 -0.0772 -0.1117  0.2060
  123W        W43217  24.725   3.530  31.882 -0.0943 -0.4928 -0.3271
  124W        W43218  22.790   1.432  30.970  0.1047  0.0087 -0.0882
  125W        W43219  21.404   1.157  31.149  0.0358 -0.0258 -0.1022
  126W        W43220  21.666   0.656  31.584 -0.0612 -0.0278 -0.0375
  127W        W43221  22.170   3.001  30.521  0.2312  0.0497  0.2181
  128W        W43222  21.707   0.423   0.252  0.1050 -0.1489 -0.0397
  129W        W43223  24.684   2.358  30.133 -0.0240  0.1933 -0.0935
  130W        W43224  25.267   2.794   0.189 -0.0697 -0.1796 -0.3258
  131W        W43225  25.629   0.339  30.481 -0.1250 -0.2771 -0.3400
  132W        W43226  22.476   4.856  18.545  0.4427  0.0079 -0.3923
  133W        W43227  22.523   3.453  16.670 -0.1729 -0.1743  0.0230
  134W        W43228  24.205   4.213  15.794 -0.0655  0.0002  0.3979
  135W        W43229  25.185   4.600  17.328  0.1502  0.1083  0.0147
  136W        W43230  21.856   3.742  17.163 -0.1615  0.2296 -0.1277
  137W        W43231  24.033   6.550  17.371 -0.1056 -0.3812 -0.2472
  138W        W43232  21.161   3.183  19.359 -0.0992  0.1809  0.1176
  139W        W43233  23.348   5.857  18.470  0.0136  0.1443 -0.0629
  140W        W43234  24.996   7.546  18.018 -0.1357 -0.2395 -0.3059
  141W        W43235  25.251   4.838  15.991  0.1041 -0.1087 -0.0753
  142W        W43236  22.895   3.705  19.848 -0.0379  0.2531  0.0287
  143W        W43237  23.635   4.438  18.509  0.2480  0.0956 -0.3511
  144W        W43238  20.679   4.279  17.359 -0.1215  0.0217  0.0653
  145W        W43239  20.601   3.092  17.313  0.2871 -0.1131 -0.1672
  146W        W43240  25.016   4.510  18.745 -0.4154 -0.1317  0.1404
  147W        W43241  22.093   4.924  16.575  0.0252  0.0343  0.1557
  148W        W43242  24.687   3.558  18.404  0.1259 -0.0621  0.0693
  149W        W43243  23.124   3.846  18.064 -0.0120 -0.1461 -0.0320
  150W        W43244  23.602   6.657  17.168  0.0282  0.1652  0.2507
  151W        W43245  22.640   3.064  18.971 -0.2456  0.1811  0.3756
  152W        W43246  23.681   3.751  19.647  0.0636  0.1165  0.0228
  153W        W43247  23.071   4.975  18.615 -0.3203  0.1209  0.1001
  154W        W43248  21.635   4.016  15.603  0.0177 -0.2171  0.0120
  155W        W43249  21.630   4.444  18.906 -0.1404 -0.1884  0.1671
  156W        W43250  22.064   4.386  19.141  0.1069 -0.1466 -0.0854
  157W        W43251  23.875   3.505  17.932  0.0365  0.1509 -0.0582
  158W        W43252  24.677   5.417  17.687  0.0619 -0.1721 -0.0340
  159W        W43253  22.667   7.465  17.006  0.3878  0.0080  0.2547
  160W        W43254  22.114   7.838  19.154 -0.0301 -0.0537  0.0830
  161W        W43255  25.565   3.701  20.195 -0.1950  0.1540 -0.1207
  162W        W43256  22.789   6.039  17.646 -0.0269 -0.3698  0.2712
  163W        W43257  22.585   5.820  18.503  0.2835  0.0253 -0.3008
  164W        W43258  23.261   6.093  16.424 -0.2220 -0.1516 -0.0585
  165W        W43259  24.640   5.479  17.054  0.0482 -0.2371 -0.0948
  166W        W43260  25.324   6.199  20.116 -0.3326  0.1329 -0.2282
  167W        W43261  23.544   6.640  21.504  0.0546 -0.1643 -0.0247
  168W        W43262  21.593   6.198  17.815 -0.1349 -0.0997  0.1361
  169W        W43263  22.733   6.029  19.150 -0.3328 -0.2112 -0.0867
  170W        W43264  23.466   5.325  18.442  0.1421 -0.0032  0.1363
  171W        W43265  22.823   5.848  17.155 -0.0745 -0.1169 -0.0454
  172W        W43266  24.867   5.301  18.095  0.2642 -0.4208  0.1631
  173W        W43267  22.039   7.524  16.877  0.0104 -0.1157  0.0186
  174W        W43268  24.070   5.332  18.267  0.0164  0.0511  0.2516
  175W        W43269  22.820   5.737  19.782  0.0404  0.0147  0.2048
  176W        W43270  23.035   5.378  17.056  0.2836 -0.2075 -0.3036
  177W        W43271  25.350   3.715  19.720  0.0276 -0.1114 -0.0532
  178W        W43272  22.732   6.941  16.230 -0.1024  0.1824 -0.1336
  179W        W43273  24.428   6.875  16.831 -0.1457 -0.1237 -0.0396
  180W        W43274  23.245   4.114  15.672 -0.2731 -0.0079  0.2734
  181W        W43275  23.297   3.982  18.560 -0.0144  0.1219 -0.1773
  182W        W43276  23.564   2.915  17.709 -0.2758 -0.1747  0.2172
  183W        W43277  22.287   7.039  16.964 -0.0036  0.0540 -0.1803
  184W        W43278  23.829   4.613  18.112 -0.2215  0.0765 -0.1276
  185W        W43279  25.419   5.796  19.376  0.1412 -0.0635  0.1784
  186W        W43280  22.685   5.278  16.622  0.0225  0.0057  0.0106
  187W        W43281  23.997   4.370  18.913  0.0610 -0.1284  0.2388
  188W        W43282  22.141   6.699  18.599 -0.1217 -0.2170  0.0331
  189W        W43283  22.438   5.533  17.027 -0.3305  0.0102  0.0068
  190W        W43284  25.758   6.161  16.210  0.0637  0.0982 -0.0160
  191W        W43285  26.980   6.287  18.239 -0.1918  0.2573  0.1136
  192W        W43286  24.348   6.364  16.024 -0.0983  0.0528 -0.3198
  193W        W43287  23.202   5.129  17.439 -0.0001  0.0666  0.3519
  194W        W43288  21.687   4.852  18.266  0.2416 -0.1979  0.1156
  195W        W43289  22.819   4.788  18.123 -0.2132  0.0747  0.3723
  196W        W43290  22.810   3.981  16.790  0.0413  0.3359 -0.0308
  197W        W43291  26.191   6.758  19.631  0.0639 -0.0990  0.0616
  198W        W43292  21.634   6.577  19.338  0.0920  0.1707  0.2874
  199W        W43293  25.802   4.013  17.218 -0.4707 -0.0518 -0.0841
  200W        W43294  21.696   6.316  18.848 -0.1702 -0.2290  0.0922
  201W        W43295  24.870   6.557  18.495  0.1251  0.1089 -0.0455
  202W        W43296  24.133   4.769  17.602 -0.1842  0.0529  0.0355
  203W        W43297  24.716   4.213  16.733 -0.2825  0.1292  0.2903
  204W        W43298  24.748   3.775  18.821  0.0761  0.0634 -0.0297
  205W        W43299  22.626   6.086  18.107 -0.2516 -0.0093 -0.0881
  206W        W43300  24.358   4.458  16.974 -0.2174  0.0834 -0.2036
  207W        W43301  24.986   6.788  19.573 -0.0971 -0.3842 -0.1262
  208W        W43302  24.638   5.976  17.033 -0.1674 -0.0247 -0.3145
  209W        W43303  23.502   7.169  17.791 -0.0899 -0.1100  0.1418
  210W        W43304  22.564   3.292  21.341 -0.2348 -0.0444 -0.1797
  211W        W43305  24.393   5.328  19.063  0.1332  0.0564 -0.1635
  212W        W43306  22.880   7.920  16.021  0.0700  0.0654  0.1638
  213W        W43307  21.114   6.010  18.156  0.3076  0.2197  0.1746
  214W        W43308  22.077   5.042  15.962 -0.3103 -0.0237  0.0466
  215W        W43309  22.752   4.139  17.271 -0.1565 -0.1032 -0.0284
  216W        W43310  22.120   5.775  18.234  0.1211  0.2052  0.0653
  217W        W43311  24.863   4.281  17.182 -0.0454  0.0797 -0.2813
  218W        W43312  22.055   4.030  18.779 -0.1525 -0.1787 -0.3134
  219W        W43313  23.412   3.141  16.584  0.0714 -0.1710  0.2699
  220W        W43314  21.202   4.811  18.046 -0.4608 -0.2455  0.0488
  221W        W43315  25.790   8.724  16.992 -0.0988  0.3200  0.0412
  222W        W43316  25.627   4.190  16.724  0.2054  0.1381  0.1605
  223W        W43317  21.895   5.411  16.600 -0.2812 -0.0287  0.1027
  224W        W43318  22.343   5.289  18.201  0.2677  0.3853  0.7161
  225W        W43319  23.055   4.470  18.621 -0.1013  0.1378  0.3295
  226W        W43320  22.817   4.704  19.859 -0.0983  0.2808  0.0209
  227W        W43321  22.266   4.600  18.050 -0.1827  0.3773 -0.0793
  228W        W43322  24.432   6.722  20.056 -0.1049  0.0810 -0.0271
  229W        W43323  20.853   3.644  15.958 -0.0769  0.3108  0.1237
  230W        W43324  23.494   4.327  16.458  0.3478  0.1247 -0.2322
  231W        W43325  23.200   2.953  18.219 -0.3138 -0.1014  0.3374
  232W        W43326  22.008   6.705  17.880  0.1829  0.0360 -0.1703
  233W        W43327  26.859   3.739  19.082 -0.2660  0.1664  0.0679
  234W        W43328  22.953   5.505  17.544 -0.0199  0.0526 -0.2507
  235W        W43329  26.080   7.114  18.795 -0.0360 -0.0630 -0.1475
  236W        W43330  26.101   6.262  17.697  0.0023 -0.1992  0.0269
  237W        W43331  23.185   4.533  20.334  0.2659  0.2051  0.2430
  238W        W43332  21.749   5.028  16.292 -0.1025  0.0891  0.0355
  239W        W43333  22.879   7.166  17.699  0.0618  0.1758  0.1098
  240W        W43334  23.509   6.888  19.011 -0.2297  0.2431 -0.1921
  241W        W43335  22.414   4.022  16.484 -0.0445 -0.0312 -0.3963
  242W        W43336  24.509   6.349  18.072  0.2241 -0.0477 -0.0066
  243W        W43337  24.977   6.867  18.082  0.0219  0.0890  0.2960
  244W        W43338  22.439   4.818  17.647  0.2747 -0.2641 -0.1562
  245W        W43339  22.777   3.298  19.579  0.2300  0.2973  0.1616
  246W        W43340  24.360   5.131  17.894  0.3028 -0.0694 -0.1106
  247W        W43341  24.795   6.562  17.695 -0.0818  0.0866 -0.2946
  248W        W43342  23.041   4.357  16.585  0.1347 -0.0431  0.0861
  249W        W43343  24.693   8.169  17.504 -0.0651  0.0833  0.2699
  250W        W43344  21.436   7.750  17.106  0.2277  0.1364  0.0892
  251W        W43345  22.764   5.204  17.892  0.1017  0.1092  0.0760
  252W        W43346  22.623   6.692  16.853 -0.2910  0.1321  0.1224
  253W        W43347  24.980   2.451  17.450  0.0787  0.2026  0.0734
  254W        W43348  21.989   5.747  20.455 -0.1549  0.0020  0.2617
  255W        W43349  24.495   4.201  18.547 -0.1666 -0.0683 -0.1504
  256W        W43350  21.969   5.937  16.296  0.0403  0.2362 -0.1593
  257W        W43351  21.821   5.337  18.361 -0.2468  0.0896  0.2222
  258W        W43352  23.118   2.254  16.700 -0.2547 -0.0467  0.1322
  259W        W43353  24.656   4.165  16.192  0.3100 -0.0767 -0.0695
  260W        W43354  23.535   4.817  18.864 -0.0087 -0.2616  0.0180
  261W        W43355  25.293   6.667  17.716  0.0032  0.2279 -0.4293
  262W        W43356  25.385   4.009  15.694 -0.1338  0.3037 -0.1214
  263W        W43357  23.594   5.243  15.874  0.2641  0.0999 -0.1051
  264W        W43358  21.770   4.868  20.775  0.0229 -0.1608 -0.1214
  265W        W43359  23.237   5.274  17.981 -0.1073  0.2690 -0.0183
  266W        W43360  23.449   5.332  18.964  0.1748  0.0263  0.0230
  267W        W43361  22.721   3.260  16.102 -0.0439 -0.3947  0.0857
  268W        W43362  26.052   5.704  17.439 -0.1242  0.2257  0.0472
  269W        W43363  22.202   5.279  18.667 -0.0603 -0.0520  0.4115
  270W        W43364  25.218   6.202  19.012  0.0063  0.2218 -0.2448
  271W        W43365  24.237   5.137  17.170  0.1646  0.2410  0.0124
  272W        W43366  21.827   4.901  18.723 -0.3668 -0.3689 -0.2805
  273W        W43367  22.915   4.788  16.322 -0.3228 -0.3429 -0.0323
  274W        W43368  23.844   4.258  16.838 -0.1574 -0.3272  0.2017
  275W        W43369  22.471   7.294  16.479 -0.0341 -0.0111  0.3215
  276W        W43370  25.155   3.013  17.448  0.1179  0.0688  0.2922
  277W        W43371  25.803   5.476  18.469 -0.0191 -0.0623  0.0091
  278W        W43372  23.646   2.848  19.916  0.1303  0.1137 -0.0383
  279W        W43373  24.215   4.942  19.493  0.2326  0.1277 -0.1386
  280W        W43374  25.010   5.256  16.281 -0.1076  0.0645  0.0716
  281W        W43375  25.120   5.764  18.214 -0.2148  0.0542 -0.1414
  282W        W43376  21.400   4.679  17.580 -0.1577  0.0719 -0.1523
  283W        W43377  23.733   4.545  19.363  0.0143 -0.2622 -0.2341
  284W        W43378  21.382   4.451  18.450  0.0503  0.4602  0.0608
  285W        W43379  23.799   6.115  18.482 -0.1134  0.1284 -0.0371
  286W        W43380  26.910   5.727  18.525  0.1987 -0.0376  0.0443
  287W        W43381  22.706   6.389  17.234 -0.1592  0.2743  0.1210
  288W        W43382  22.883   5.235  19.842 -0.4026  0.2080  0.1828
  289W        W43383  22.974   3.316  17.265  0.3472 -0.1750 -0.2317
  290W        W43384  23.372   6.972  17.392  0.0776 -0.3693 -0.1043
  291W        W43385  24.073   4.928  19.010  0.1725 -0.1513  0.2236
  292W        W43386  22.753   3.409  18.511  0.2819  0.0258  0.2378
  293W        W43387  22.095   4.521  18.575  0.3898 -0.2387 -0.1906
  294W        W43388  23.949   6.679  15.808  0.3149 -0.2212 -0.0827
  295W        W43389  25.497   5.796  18.845 -0.0764  0.1030 -0.1594
  296W        W43390  21.512   6.892  17.384 -0.0725 -0.0361  0.2302
  297W        W43391  23.939   4.129  17.865  0.0889 -0.0567  0.1646
  298W        W43392  22.933   6.575  18.949  0.1404  0.0036 -0.0130
  299W        W43393  22.381   5.048  16.976  0.0262  0.3361 -0.3631
  300W        W43394  22.244   4.082  16.056  0.0291 -0.0827  0.3100
  301W        W43395  24.718   3.710  16.451  0.1480 -0.0487  0.0264
  302W        W43396  24.955   6.819  17.332 -0.0685 -0.1153 -0.2957
  303W        W43397  22.531   3.405  17.575  0.2322 -0.4063  0.0435
  304W        W43398  25.462   5.364  18.066 -0.2795 -0.1097 -0.2889
  305W        W43399  21.185   6.687  18.402  0.0411 -0.1724 -0.1594
  306W        W43400  23.938   5.377  18.806 -0.0340  0.0105  0.2334
  307W        W43401  23.517   3.414  16.983 -0.1918 -0.0119  0.2704
  308W        W43402  24.315   6.796  17.669 -0.2473  0.1623  0.0668
  309W        W43403  22.690   4.898  19.429 -0.0756 -0.1269  0.2600
  310W        W43404  21.449   5.006  16.702 -0.1533  0.1295  0.3642
  311W        W43405  25.171   3.994  19.071 -0.1314 -0.0311  0.1634
  312W        W43406  24.215   5.724  17.948 -0.2253  0.0650  0.1460
  313W        W43407  22.423   5.671  17.757  0.0926  0.0745  0.0383
  314W        W43408  23.845   5.033  17.852  0.2651 -0.2317 -0.2104
  315W        W43409  22.191   5.861  16.738 -0.1124  0.1337 -0.0718
  316W        W43410  21.663   7.265  17.125  0.2517 -0.1218  0.0437
  317W        W43411  22.398   5.097  19.842  0.0980 -0.5706  0.2451
  318W        W43412  24.293   5.464  19.672 -0.3258  0.0797  0.0832
  319W        W43413  24.664   6.245  18.915 -0.1168  0.1806 -0.0123
  320W        W43414  23.126   4.167  17.616  0.2009 -0.1496  0.0188
  321W        W43415  23.258   5.914  17.670 -0.0627  0.1092  0.2722
  322W        W43416  25.612   5.857  18.322 -0.4364 -0.2376  0.4470
  323W        W43417  24.705   4.212  19.075 -0.0262 -0.0648 -0.2724
  324W        W43418  23.124   6.758  19.465  0.1017 -0.0829 -0.1819
  325W        W43419  24.280   3.813  19.507  0.1038  0.2013  0.3034
  326W        W43420  24.959   7.655  16.921  0.0469 -0.2603 -0.1052
  327W        W43421  24.559   6.447  17.217 -0.0351  0.3052 -0.0335
  328W        W43422  22.919   4.652  17.581  0.1183  0.0963 -0.0033
  329W        W43423  22.568   4.508  18.914 -0.0165  0.0997  0.0665
  330W        W43424  21.900   6.417  17.412  0.1551 -0.2799  0.0767
  331W        W43425  25.227   3.974  17.975 -0.0236  0.0381  0.4305
  332W        W43426  20.890   5.161  19.024  0.0685  0.0607  0.0739
  333W        W43427  22.662   6.143  16.787 -0.3181 -0.0163 -0.3442
  334W        W43428  21.239   6.549  18.921  0.0889 -0.1304 -0.0701
  335W        W43429  24.295   3.367  16.324 -0.0318  0.0190  0.0125
  336W        W43430  24.363   7.029  17.258  0.5173 -0.4547 -0.2446
  337W        W43431  24.528   4.001  17.586  0.1530 -0.2259  0.0895
  338W        W43432  25.435   4.966  19.759 -0.0997 -0.2176 -0.0824
  339W        W43433  24.028   5.589  16.307  0.1428 -0.2391  0.1274
  340W        W43434  24.623   4.217  19.792 -0.2078  0.3651  0.1692
  341W        W43435  22.539   3.527  19.061  0.1762 -0.0516 -0.1147
  342W        W43436  24.893   8.425  17.890  0.0235 -0.3816  0.0345
  343W        W43437  22.114   4.086  17.904 -0.3933  0.0436 -0.3008
  344W        W43438  24.832   7.221  18.396 -0.0848 -0.0412  0.2133
  345W        W43439  23.032   6.584  19.926  0.0232 -0.2346 -0.0040
  346W        W43440  23.203   3.998  16.189  0.2248  0.1198 -0.0673
  347W        W43441  21.258   3.619  16.279  0.2674  0.1204  0.3657
  348W        W43442  23.951   4.741  16.927 -0.1157 -0.0670 -0.2465
  349W        W43443  25.579   5.016  17.224 -0.3470  0.1720  0.1905
  350W        W43444  24.439   5.381  16.554  0.1094 -0.1093  0.2846
  351W        W43445  25.395   4.869  18.786 -0.2470 -0.2383 -0.0422
  352W        W43446  21.829   5.356  18.953 -0.0538 -0.3991 -0.0815
  353W        W43447  24.866   3.742  16.966 -0.1366 -0.1403  0.0564
  354W        W43448  23.369   4.730  17.743  0.2116  0.2508  0.0221
  355W        W43449  23.104   6.234  18.021 -0.2350  0.0266 -0.1382
  356W        W43450  22.668   2.518  19.220 -0.0479  0.3071 -0.2424
  357W        W43451  24.811   5.113  16.721 -0.1346  0.2120 -0.1830
  358W        W43452  23.568   3.847  17.655  0.0184  0.1981  0.1132
  359W        W43453  23.636   4.335  17.468 -0.1288 -0.2458 -0.0853
  360W        W43454  25.214   4.952  18.229 -0.1798 -0.3958 -0.0241
  361W        W43455  23.739   3.859  20.123  0.0404  0.1415  0.0201
  362W        W43456  22.446   4.132  20.755  0.3886  0.1379 -0.1658
  363W        W43457  24.028   6.713  18.386 -0.0225 -0.1213 -0.0113
  364W        W43458  24.137   4.653  16.061  0.1279  0.2912  0.1335
  365W        W43459  26.329   3.730  18.959  0.0939  0.0543  0.3633
  366W        W43460  24.687   4.842  18.324  0.2427  0.0402 -0.1181
  367W        W43461  24.396   5.918  16.356  0.0823 -0.1437 -0.0102
  368W        W43462  22.813   3.734  16.322  0.1758  0.0383 -0.2701
  369W        W43463  24.909   2.753  18.482 -0.2306  0.1638 -0.2749
  370W        W43464  22.132   4.541  16.900 -0.0911 -0.0794 -0.1033
  371W        W43465  24.880   4.124  20.293 -0.1896 -0.0613 -0.0907
  372W        W43466  22.936   7.101  16.689 -0.0076 -0.1116  0.0038
  373W        W43467  23.835   4.957  18.511 -0.1793 -0.0087 -0.2325
  374W        W43468  24.289   5.754  17.441 -0.2508  0.3767  0.2189
  375W        W43469  22.591   4.347  18.450  0.1773 -0.1896 -0.0315
  376W        W43470  21.715   6.989  19.534 -0.0086  0.3150 -0.2106
  377W        W43471  22.929   5.745  16.667  0.0495  0.0241  0.1716
  378W        W43472  23.699   6.461  16.217 -0.0706  0.3336  0.4926
  379W        W43473  23.849   5.903  17.644  0.0286 -0.2359  0.1241
  380W        W43474  25.219   5.368  19.123 -0.1707 -0.2607  0.0988
  381W        W43475  22.082   3.205  16.765 -0.2059  0.2532  0.3324
  382W        W43476  25.529   4.045  19.424  0.0439 -0.1523  0.1024
  383W        W43477  20.944   4.934  16.825 -0.1198  0.0124  0.0544
  384W        W43478  24.808   4.828  17.800  0.0677  0.0980  0.1074
  385W        W43479  23.179   5.133  19.320 -0.0954 -0.2256  0.3256
  386W        W43480  22.103   5.879  19.287  0.0161  0.0748  0.0191
  387W        W43481  23.102   7.318  17.141 -0.2048 -0.2888 -0.1888
  388W        W43482  23.771   3.957  18.804 -0.0123  0.1393  0.0808
  389W        W43483  24.848   5.144  18.709 -0.0992 -0.0976  0.0023
  390W        W43484  22.260   3.030  17.779 -0.1831 -0.3799  0.0126
  391W        W43485  25.707   5.233  18.944  0.0808 -0.0631 -0.0729
  392W        W43486  24.130   5.670  20.081  0.2826  0.2324  0.1021
  393W        W43487  21.868   4.456  17.739 -0.1355 -0.2111  0.1300
  394W        W43488  25.236   6.691  19.156 -0.2848 -0.0135  0.2829
  395W        W43489  26.026   3.332  18.037  0.0120 -0.1618  0.1659
  396W        W43490  22.491   6.358  18.789  0.1078  0.2373  0.1117
  397W        W43491  22.475   5.629  19.004  0.0514  0.0330 -0.0027
  398W        W43492  24.230   4.581  18.513  0.0343 -0.1420 -0.0517
  399W        W43493  22.933   4.301  18.143  0.1851  0.1681 -0.1359
  400W        W43494  22.197   4.332  17.411  0.1761  0.0029  0.1131
  401W        W43495  23.510   5.724  16.637 -0.2794  0.1171 -0.0043
  402W        W43496  22.285   5.919  22.522  0.0964 -0.2733  0.0441
  403W        W43497  21.775   4.260  18.301  0.0695 -0.1360 -0.0562
  404W        W43498  22.350   6.031  17.243  0.4454 -0.3208  0.2608
  405W        W43499  24.798   6.099  17.482  0.0228 -0.0903  0.1000
  406W        W43500  25.206   5.954  17.672  0.0187 -0.0170  0.0543
  407W        W43501  24.417   7.700  17.633 -0.1059 -0.0541 -0.0653
  408W        W43502  23.368   3.846  16.643  0.2037 -0.3827 -0.1264
  409W        W43503  22.153   6.338  18.186 -0.0443  0.3989  0.2946
  410W        W43504  22.501   7.363  15.987 -0.2696 -0.0455  0.1991
  411W        W43505  25.670   6.310  17.482  0.0465 -0.1803 -0.0865
  412W        W43506  22.443   7.821  16.704 -0.0188 -0.0129  0.1947
  413W        W43507  26.496   7.258  18.470 -0.3471  0.1541  0.1402
  414W        W43508  24.222   4.286  16.453 -0.0361  0.3628  0.0261
  415W        W43509  26.036   4.834  17.123  0.0546  0.0988 -0.0558
  416W        W43510  25.591   4.444  18.985 -0.1831  0.2452  0.0841
  417W        W43511  24.416   5.834  18.868 -0.0702  0.1347  0.0146
  418W        W43512  23.324   4.706  18.243 -0.0936 -0.1048  0.2573
  419W        W43513  22.145   2.058  16.599 -0.0925 -0.0435 -0.1681
  420W        W43514  22.557   3.993  18.872  0.3708 -0.2070 -0.1251
  421W        W43515  25.550   4.501  19.747  0.3440  0.3647 -0.0682
  422W        W43516  22.846   6.373  20.387  0.2233 -0.1687 -0.1789
  423W        W43517  24.753   7.326  17.245  0.0860  0.0535  0.1281
  424W        W43518  21.316   5.007  17.169  0.1340 -0.1914  0.3952
  425W        W43519  22.752   5.311  18.413 -0.1418 -0.1550  0.0521
  426W        W43520  25.532   3.982  18.720 -0.1558  0.0958  0.0811
  427W        W43521  23.361   5.756  17.157  0.3244 -0.3230 -0.3590
  428W        W43522  24.316   3.155  18.136 -0.1111  0.1311 -0.1565
  429W        W43523  22.173   6.160  17.743  0.0968  0.2268  0.1484
  430W        W43524  23.567   6.863  18.494 -0.0867 -0.2350  0.0859
  431W        W43525  23.268   6.020  18.973  0.0325 -0.1417 -0.2253
  432W        W43526  21.376   4.196  16.432 -0.3075 -0.2138 -0.0463
  433W        W43527  25.851   3.350  17.474  0.1548  0.2681  0.0748
  434W        W43528  22.633   5.400  19.413  0.0099  0.0771 -0.1410
  435W        W43529  26.256   3.239  18.620 -0.1708  0.1613  0.0454
  436W        W43530  22.884   4.871  16.853 -0.1278 -0.3750 -0.0497
  437W        W43531  24.259   3.902  16.199  0.0949 -0.3918 -0.1334
  438W        W43532  22.248   4.656  19.469  0.1830  0.1690 -0.1014
  439W        W43533  23.226   4.739  17.152  0.2838  0.0662 -0.0446
  440W        W43534  23.499   5.238  16.974 -0.1329 -0.2192  0.0890
  441W        W43535  26.790   4.729  17.755 -0.0293 -0.0203 -0.3865
  442W        W43536  24.428   5.557  16.034 -0.1098 -0.3150  0.0879
  443W        W43537  24.594   5.598  18.353  0.2551 -0.0090  0.1344
  444W        W43538  22.184   3.584  17.990 -0.1307 -0.1302 -0.2699
  445W        W43539  24.261   5.727  16.873 -0.0667  0.5784  0.0725
  446W        W43540  22.615   4.296  17.726  0.2548 -0.2800 -0.0811
  447W        W43541  23.238   3.445  18.392 -0.2371  0.2715  0.0764
  448W        W43542  24.407   5.688  21.971 -0.0711 -0.2920 -0.0469
  449W        W43543  21.596   2.798  16.792 -0.2325  0.0661 -0.0754
  450W        W43544  25.247   5.423  17.572  0.0334  0.0287  0.2377
  451W        W43545  25.001   5.794  18.824  0.3483 -0.0489  0.0162
  452W        W43546  23.708   7.382  17.040 -0.0890 -0.2429  0.0026
  453W        W43547  23.861   5.683  17.174  0.2571 -0.2932  0.0022
  454W        W43548  23.899   7.625  17.540  0.0434  0.2234 -0.1723
  455W        W43549  22.817   3.904  18.443  0.0277 -0.0968 -0.2545
  456W        W43550  24.156   5.790  18.463  0.2846 -0.2332  0.5458
  457W        W43551  26.832   5.615  17.574 -0.1145 -0.0193  0.4625
  458W        W43552  21.868   2.468  16.026 -0.1191 -0.1111  0.0353
  459W        W43553  23.998   4.127  18.363  0.3360 -0.2377 -0.1595
  460W        W43554  21.923   8.029  16.965 -0.3058  0.0487 -0.3433
  461W        W43555  24.900   3.120  18.160  0.2750 -0.1275 -0.2868
  462W        W43556  24.950   5.123  19.948 -0.3763  0.2810 -0.0610
  463W        W43557  24.576   5.064  16.152 -0.0956  0.0450  0.1150
  464W        W43558  24.258   2.787  19.122 -0.1898  0.2292  0.1790
  465W        W43559  25.348   6.639  18.295 -0.5730 -0.2433  0.2053
  466W        W43560  20.998   5.721  19.214 -0.1611 -0.3471 -0.2588
  467W        W43561  21.623   4.412  16.015 -0.4740 -0.1750  0.1394
  468W        W43562  22.735   5.134  18.966 -0.0280  0.0247  0.1495
  469W        W43563  24.013   5.362  17.547 -0.0147  0.1923  0.2657
  470W        W43564  23.144   6.209  16.952 -0.0365  0.0352 -0.1867
  471W        W43565  25.082   3.984  18.470 -0.0588 -0.1089  0.2226
  472W        W43566  23.909   6.131  16.523 -0.0580 -0.0648 -0.1046
  473W        W43567  25.194   6.274  17.238  0.1384  0.3079 -0.0164
  474W        W43568  24.378   5.178  18.606 -0.0174  0.1454  0.2657
  475W        W43569  24.672   2.828  16.247  0.1933  0.1051 -0.5627
  476W        W43570  24.309   1.815  16.000  0.4960  0.2240 -0.0617
  477W        W43571  23.269   4.683  19.575 -0.1200 -0.0393  0.1955
  478W        W43572  23.558   4.906  16.210 -0.0334  0.3059  0.0614
  479W        W43573  22.540   5.935  16.320  0.2215  0.1935 -0.1321
  480W        W43574  22.746   6.620  17.768 -0.1200  0.2410  0.2438
  481W        W43575  22.772   4.194  19.883  0.0463 -0.1661 -0.3890
  482W        W43576  21.474   3.147  19.779 -0.1466 -0.1439 -0.1091
  483W        W43577  23.692   4.915  17.369 -0.1365  0.3279 -0.1950
  484W        W43578  23.919   5.359  16.753  0.0321 -0.1819  0.1724
  485W        W43579  25.496   6.534  16.555  0.0759 -0.0844  0.2380
  486W        W43580  22.582   3.890  17.992 -0.1111 -0.1474 -0.1206
  487W        W43581  21.211   4.486  16.805 -0.0243 -0.0057  0.1031
  488W        W43582  24.080   7.266  16.554 -0.1259  0.2131 -0.5584
  489W        W43583  26.447   5.939  17.637  0.2056 -0.0554 -0.3547
  490W        W43584  23.198   3.779  17.148 -0.1791 -0.0431 -0.1807
  491W        W43585  25.182   6.932  18.666 -0.1076 -0.0613  0.2739
  492W        W43586  21.188   6.033  16.784 -0.3025 -0.0643  0.4895
  493W        W43587  23.644   4.770  20.424  0.0308  0.0905  0.0731
  494W        W43588  22.294   4.098  20.015 -0.0382  0.3279 -0.1143
  495W        W43589  21.821   5.504  16.095  0.2099  0.2109  0.0058
  496W        W43590  24.876   4.981  20.394  0.2079  0.1545 -0.0094
  497W        W43591  26.675   5.885  18.086  0.0562  0.3917  0.0443
  498W        W43592  23.473   7.086  16.749 -0.2891 -0.0216 -0.5399
  499W        W43593  22.301   4.934  19.017  0.0079  0.2068 -0.0776
  500W        W43594  22.981   5.512  18.771 -0.2312 -0.2205  0.4871
  501W        W43595  20.930   2.862  19.753  0.1819  0.2209  0.3078
  502W        W43596  23.145   6.457  17.440  0.3468  0.1278 -0.0112
  503W        W43597  23.047   4.741  19.052 -0.0700 -0.3458 -0.1908
  504W        W43598  25.968   6.742  16.847 -0.0135 -0.2858 -0.0630
  505W        W43599  26.972   2.827  18.959 -0.0843  0.2482 -0.3370
  506W        W43600  23.499   5.494  17.534 -0.2140 -0.1338  0.0876
  507W        W43601  21.935   4.469  19.809 -0.1334 -0.0519  0.0238
  508W        W43602  21.860   4.864  19.252 -0.0701 -0.1880 -0.0793
  509W        W43603  25.887   6.092  18.660 -0.0801 -0.1962  0.1970
  510W        W43604  24.172   2.854  16.976  0.1565 -0.2843 -0.0743
  511W        W43605  23.243   4.284  17.035  0.1745  0.0160 -0.2105
  512W        W43606  23.518   6.475  16.683  0.1922  0.1718  0.0435
  513W        W43607  21.395   3.415  17.571  0.0264 -0.2016 -0.0091
  514W        W43608  24.111   4.268  17.350 -0.1492  0.1998  0.1002
  515W        W43609  25.023   4.481  18.211 -0.0691  0.3074 -0.2186
  516W        W43610  23.586   6.335  17.597 -0.0215  0.2573 -0.1040
  517W        W43611  22.771   5.087  20.949  0.1434  0.0610 -0.1176
  518W        W43612  24.461   4.744  16.567 -0.0792 -0.2233  0.1309
  519W        W43613  26.517   3.681  18.503 -0.1337 -0.2558  0.1633
  520W        W43614  24.262   7.156  20.737  0.1854  0.1340 -0.0882
  521W        W43615  24.318   6.468  19.168  0.2985  0.0077 -0.1123
  522W        W43616  23.802   6.751  17.831  0.3054 -0.2540  0.3621
  523W        W43617  25.981   5.826  19.459 -0.1545 -0.1911  0.0357
  524W        W43618  21.943   2.889  17.150  0.3272  0.1253  0.0792
  525W        W43619  22.219   6.444  16.999  0.3603  0.0455  0.3066
  526W        W43620  23.368   4.782  16.691  0.0329  0.1838  0.3746
  527W        W43621  25.757   6.266  19.702  0.1186  0.2482  0.0249
  528W        W43622  22.813   4.374  19.431 -0.1394 -0.0550  0.2234
  529W        W43623  21.137   3.227  17.197 -0.2311 -0.0108  0.1317
  530W        W43624  23.331   7.290  18.817 -0.1987 -0.1230  0.0464
  531W        W43625  25.992   5.464  18.021  0.0015  0.0834  0.2087
  532W        W43626  23.416   6.502  22.507 -0.4107 -0.0912 -0.0786
  533W        W43627  23.100   5.688  23.245 -0.1564 -0.0422  0.2458
  534W        W43628  23.684   4.280  19.824 -0.0308  0.0234  0.4528
  535W        W43629  24.563   4.615  20.685  0.0405  0.0521 -0.0647
  536W        W43630  21.559   4.278  21.408 -0.2181  0.2007 -0.0123
  537W        W43631  23.304   5.873  19.920 -0.1993  0.0739 -0.1145
  538W        W43632  22.798   3.746  22.690  0.3376 -0.0279  0.0350
  539W        W43633  25.083   8.111  20.790 -0.1530  0.1965  0.0229
  540W        W43634  24.081   6.852  23.177  0.1128 -0.0458 -0.3201
  541W        W43635  24.679   5.223  19.458  0.1750  0.3852 -0.3001
  542W        W43636  22.185   4.885  23.530 -0.0790  0.1415 -0.1583
  543W        W43637  22.361   5.469  22.259  0.1314 -0.1843 -0.0840
  544W        W43638  22.785   4.568  20.697 -0.1538  0.2149 -0.1523
  545W        W43639  24.064   3.733  21.358  0.2840  0.2439 -0.3107
  546W        W43640  25.867   6.727  22.366 -0.3288 -0.2758 -0.1389
  547W        W43641  20.709   6.161  19.450  0.1564 -0.0253  0.2546
  548W        W43642  22.748   4.731  22.387  0.0618 -0.1172 -0.4232
  549W        W43643  22.980   5.342  21.470 -0.1405  0.0932 -0.1163
  550W        W43644  24.783   7.103  19.953 -0.0408  0.4353  0.0423
  551W        W43645  21.877   4.155  22.972  0.0048  0.3224  0.1194
  552W        W43646  23.528   3.659  21.984 -0.1293 -0.0184 -0.1331
  553W        W43647  23.777   5.898  21.066 -0.2026  0.2744 -0.6201
  554W        W43648  21.333   5.006  20.482 -0.1373  0.0501  0.0160
  555W        W43649  20.994   3.829  21.905  0.3204  0.1063  0.1471
  556W        W43650  22.511   6.017  23.478  0.1456  0.0215 -0.1820
  557W        W43651  24.139   4.697  20.418  0.0025  0.0860  0.0932
  558W        W43652  24.675   5.714  20.904 -0.3489 -0.2456  0.2270
  559W        W43653  22.084   7.174  21.915 -0.1725  0.2388  0.3369
  560W        W43654  24.495   5.716  20.415  0.0445  0.1422 -0.3056
  561W        W43655  24.190   4.868  22.934 -0.2196  0.4642 -0.1271
  562W        W43656  22.806   6.040  22.028  0.0603 -0.0883 -0.1556
  563W        W43657  22.833   7.693  22.089  0.1243 -0.2964  0.1288
  564W        W43658  23.382   6.335  20.183  0.0324  0.0662 -0.2548
  565W        W43659  24.901   4.303  21.758  0.2064  0.1723  0.1086
  566W        W43660  23.291   7.018  23.339  0.1278 -0.2576 -0.1730
  567W        W43661  23.218   9.341  23.348 -0.0263  0.0964 -0.1866
  568W        W43662  21.478   6.495  20.466 -0.1496 -0.1728 -0.1281
  569W        W43663  24.368   7.231  24.014 -0.1773  0.2925  0.0362
  570W        W43664  23.841   7.740  23.405 -0.1787  0.1903  0.1622
  571W        W43665  22.674   6.874  24.080  0.0855 -0.1693  0.0811
  572W        W43666  23.238   6.484  21.816  0.0744  0.1263  0.1170
  573W        W43667  22.789   5.823  21.266  0.1089 -0.2745  0.0756
  574W        W43668  21.880   7.658  21.937 -0.0517 -0.1493  0.0858
  575W        W43669  23.191   6.879  23.837 -0.2035  0.0892 -0.1006
  576W        W43670  22.832   6.465  22.996 -0.1453  0.0780 -0.0015
  577W        W43671  25.490   5.416  22.787  0.0628  0.4096 -0.0872
  578W        W43672  23.413   7.944  19.468 -0.1290  0.1645  0.0454
  579W        W43673  23.836   4.278  20.306  0.1241  0.3339 -0.0488
  580W        W43674  22.166   6.022  20.071 -0.0791  0.2341 -0.4595
  581W        W43675  24.293   4.427  21.073 -0.0386  0.1460  0.2220
  582W        W43676  23.186   3.682  20.996  0.1461 -0.0640 -0.0136
  583W        W43677  21.875   7.855  22.409 -0.2499  0.0668 -0.2644
  584W        W43678  21.859   5.300  22.081  0.0853 -0.2310 -0.0334
  585W        W43679  24.022   5.085  22.429  0.0206  0.0349  0.0389
  586W        W43680  24.340   5.923  21.161 -0.2883 -0.0714  0.0258
  587W        W43681  23.894   4.256  21.357 -0.2524 -0.1467  0.0890
  588W        W43682  22.999   6.209  22.530 -0.2377  0.1858  0.0206
  589W        W43683  21.709   3.818  21.190  0.0291  0.1077  0.6230
  590W        W43684  25.683   6.664  19.347 -0.0881  0.1020  0.0066
  591W        W43685  25.627   6.853  20.284 -0.0452 -0.0278 -0.2435
  592W        W43686  23.546   6.218  19.693  0.1669  0.1458  0.2050
  593W        W43687  22.759   4.758  21.867  0.1248  0.0947  0.3821
  594W        W43688  20.803   5.698  23.075  0.3865  0.1551  0.1106
  595W        W43689  21.507   3.823  22.831  0.2829  0.1375 -0.0400
  596W        W43690  21.939   3.298  19.718  0.0785 -0.4701 -0.0810
  597W        W43691  25.678   6.833  23.188 -0.1811 -0.3321  0.1618
  598W        W43692  21.536   6.859  23.367  0.0453 -0.1379  0.3196
  599W        W43693  25.571   3.755  22.681  0.2448  0.2540 -0.2464
  600W        W43694  22.183   5.776  21.863 -0.1393  0.5179  0.0397
  601W        W43695  24.269   5.317  21.054  0.1134  0.1346  0.1237
  602W        W43696  24.514   6.207  22.180 -0.3606  0.1425  0.3155
  603W        W43697  24.482   3.969  21.016  0.0357 -0.1563 -0.0387
  604W        W43698  23.991   5.197  20.403  0.1900  0.1852  0.0332
  605W        W43699  21.727   5.429  19.457  0.1201 -0.2842  0.1335
  606W        W43700  24.148   5.713  20.764  0.1001  0.1863  0.1054
  607W        W43701  23.517   5.549  22.472  0.2090 -0.1250  0.1657
  608W        W43702  25.331   5.117  20.270  0.0563  0.1413 -0.1676
  609W        W43703  21.190   7.118  21.702 -0.0890 -0.2413 -0.2459
  610W        W43704  22.348   5.589  24.301  0.0961 -0.0877  0.3678
  611W        W43705  23.456   6.129  23.248 -0.0999 -0.1648 -0.1899
  612W        W43706  23.417   6.453  19.221 -0.1712  0.0138 -0.1313
  613W        W43707  22.251   7.012  22.420  0.0017 -0.0538 -0.0670
  614W        W43708  20.485   5.655  20.785 -0.0043  0.0304 -0.0871
  615W        W43709  22.148   4.490  23.192 -0.1289 -0.0554 -0.1432
  616W        W43710  22.837   5.372  22.939 -0.1027 -0.0788 -0.0019
  617W        W43711  25.696   2.946  20.161  0.0167 -0.2727  0.1426
  618W        W43712  21.873   5.366  23.970 -0.1171 -0.1649 -0.3231
  619W        W43713  24.617   2.312  20.461  0.3700  0.0053 -0.0483
  620W        W43714  22.611   4.369  20.329  0.1010  0.4933 -0.1372
  621W        W43715  25.903   7.847  21.751  0.1108 -0.0956 -0.0833
  622W        W43716  24.005   5.994  19.688 -0.1068 -0.0010  0.1721
  623W        W43717  25.399   6.767  21.568  0.2397 -0.2455 -0.1372
  624W        W43718  21.146   4.000  22.499 -0.2629 -0.0922 -0.1836
  625W        W43719  23.128   3.679  21.491  0.2426 -0.4619  0.2879
  626W        W43720  22.553   5.309  24.759  0.1156  0.0967 -0.2374
  627W        W43721  22.613   4.668  23.284  0.0042 -0.1054  0.0941
  628W        W43722  23.043   5.176  22.475  0.2107  0.1215  0.3438
  629W        W43723  22.008   4.361  20.449 -0.0222  0.1671 -0.0669
  630W        W43724  24.296   2.113  20.168  0.0647  0.0794 -0.2554
  631W        W43725  23.500   5.462  20.187 -0.1424  0.0540 -0.0034
  632W        W43726  22.282   5.791  21.358  0.0972 -0.5749 -0.1089
  633W        W43727  24.724   6.359  23.564  0.0440 -0.3083  0.0730
  634W        W43728  22.494   5.465  20.159 -0.2647  0.0216  0.0093
  635W        W43729  25.863   6.982  22.759  0.0976  0.0941  0.1053
  636W        W43730  24.069   6.930  19.155 -0.2310 -0.0357 -0.0853
  637W        W43731  22.721   5.625  22.552  0.1746 -0.0484  0.1985
  638W        W43732  22.388   4.147  19.529  0.1071 -0.2338  0.0947
  639W        W43733  22.700   7.799  23.012  0.0993  0.0446 -0.1416
  640W        W43734  22.270   6.312  22.080 -0.1548  0.0095 -0.0883
  641W        W43735  23.228   4.982  20.069  0.0684  0.1450  0.5286
  642W        W43736  24.666   6.692  22.332 -0.0446  0.2331  0.0208
  643W        W43737  23.672   4.782  19.883 -0.1112 -0.0567  0.0323
  644W        W43738  21.205   6.726  22.915  0.2084  0.1697 -0.0840
  645W        W43739  24.206   4.124  20.035  0.1551  0.1248 -0.0868
  646W        W43740  24.342   5.135  22.048  0.0081 -0.0056 -0.0925
  647W        W43741  22.830   4.417  22.768 -0.0635  0.1141 -0.0335
  648W        W43742  22.722   4.942  20.279  0.1508 -0.0183 -0.1329
  649W        W43743  23.787   6.049  20.133 -0.0984  0.3221  0.0830
  650W        W43744  21.763   6.137  20.376 -0.0715 -0.1656 -0.2145
  651W        W43745  20.980   5.343  21.260  0.0232  0.0039  0.2313
  652W        W43746  22.455   6.239  21.583 -0.1129 -0.1937  0.2528
  653W        W43747  23.916   3.482  20.831  0.0022 -0.2470  0.0742
  654W        W43748  22.048   4.360  23.803 -0.3960 -0.0214 -0.0866
  655W        W43749  23.953   5.729  23.618  0.0805  0.0558 -0.3402
  656W        W43750  20.866   6.003  19.943 -0.1791 -0.1925  0.0962
  657W        W43751  20.938   7.585  24.356  0.0033  0.0024  0.1880
  658W        W43752  24.510   2.557  20.042 -0.1639  0.2440  0.1272
  659W        W43753  25.039   4.537  20.507 -0.1249 -0.1797 -0.0339
  660W        W43754  24.009   5.648  24.136 -0.2856  0.1298  0.2973
  661W        W43755  24.964   6.433  19.896 -0.1149 -0.1109 -0.1101
  662W        W43756  23.263   4.034  19.443  0.3450  0.2828 -0.0408
  663W        W43757  22.770   3.837  19.398 -0.3336 -0.1701  0.1749
  664W        W43758  22.503   6.045  24.015 -0.0405 -0.2543  0.1420
  665W        W43759  24.407   5.816  19.376 -0.0885 -0.3336  0.1500
  666W        W43760  23.639   5.704  21.999  0.1461  0.0218 -0.1806
  667W        W43761  23.333   5.377  20.692 -0.2375  0.0995 -0.1309
  668W        W43762  24.743   6.409  20.361  0.1148  0.1234 -0.1145
  669W        W43763  21.435   4.261  22.053 -0.1829 -0.0654  0.3440
  670W        W43764  21.783   6.027  23.254 -0.1279 -0.0955  0.1100
  671W        W43765  23.940   5.539  19.317  0.2495 -0.2232 -0.0335
  672W        W43766  21.904   3.461  22.788  0.0853  0.1804  0.1574
  673W        W43767  24.439   4.502  17.999  0.1413 -0.3801  0.2192
  674W        W43768  24.689   4.409  22.272  0.0871  0.3420 -0.0518
  675W        W43769  23.829   7.247  18.659 -0.0766 -0.0998  0.1812
  676W        W43770  23.868   4.410  21.811 -0.0457 -0.3736  0.2387
  677W        W43771  23.402   4.445  21.537  0.0801 -0.3143 -0.1892
  678W        W43772  24.494   3.485  22.114  0.1071 -0.1516 -0.3354
  679W        W43773  24.836   6.382  24.047 -0.2131 -0.0884 -0.0183
  680W        W43774  25.272   5.065  20.768  0.2286 -0.1962 -0.0049
  681W        W43775  23.852   6.245  20.652 -0.0145  0.1595 -0.1585
  682W        W43776  22.349   4.692  20.043 -0.0814 -0.1455 -0.0309
  683W        W43777  23.677   1.844  22.877  0.1314 -0.0259 -0.2837
  684W        W43778  23.317   5.151  23.496 -0.2837 -0.0625  0.0727
  685W        W43779  21.863   5.740  22.286 -0.1481  0.1163 -0.3743
  686W        W43780  24.457   7.056  26.216  0.0394  0.2353 -0.1426
  687W        W43781  25.106   4.006  21.275 -0.1382 -0.1680  0.2064
  688W        W43782  24.477   5.360  24.343  0.2598 -0.0088 -0.0227
  689W        W43783  22.412   3.518  20.169  0.1434 -0.0500 -0.0934
  690W        W43784  22.327   5.807  20.843 -0.2241 -0.1127  0.3195
  691W        W43785  22.444   5.297  20.661  0.1489 -0.0283 -0.1322
  692W        W43786  23.796   4.486  23.103  0.0508  0.3190  0.0324
  693W        W43787  22.697   7.853  22.532  0.1613 -0.0770 -0.1777
  694W        W43788  23.859   5.259  19.851 -0.3886 -0.1952  0.2107
  695W        W43789  23.160   5.758  22.749 -0.3263  0.1112 -0.5049
  696W        W43790  23.253   6.101  21.384 -0.3227 -0.3747  0.1081
  697W        W43791  24.440   3.398  20.862 -0.3004  0.2488 -0.1654
  698W        W43792  23.095   5.633  22.217 -0.1635  0.0259 -0.2334
  699W        W43793  22.985   5.419  20.302 -0.1363 -0.0897 -0.1780
  700W        W43794  23.644   6.025  21.673 -0.0046  0.2444  0.2080
  701W        W43795  23.890   3.330  21.667 -0.1038 -0.2818  0.1726
  702W        W43796  26.207   5.898  19.923  0.1657 -0.0857 -0.0011
  703W        W43797  23.541   5.067  22.277  0.0127 -0.2213  0.0486
  704W        W43798  23.251   3.934  22.295  0.1171  0.0632  0.0774
  705W        W43799  20.597   6.708  22.763  0.1250  0.0970 -0.1219
  706W        W43800  23.607   5.560  23.247 -0.0176  0.2855 -0.3700
  707W        W43801  24.925   3.746  19.956 -0.2552  0.0821 -0.1222
  708W        W43802  23.813   4.649  22.251 -0.3409  0.0177 -0.2104
  709W        W43803  23.165   6.385  24.049  0.2261 -0.1470 -0.2271
  710W        W43804  21.501   3.779  21.755  0.2092  0.2202  0.0275
  711W        W43805  24.194   4.262  22.171 -0.1011  0.0608 -0.1608
  712W        W43806  23.016   4.699  21.199 -0.0753  0.1956  0.1639
  713W        W43807  22.464   7.032  21.584 -0.3453 -0.1432  0.1229
  714W        W43808  23.063   6.864  21.496  0.3917 -0.1454  0.3455
  715W        W43809  21.583   4.247  20.167  0.2041  0.1490 -0.0198
  716W        W43810  22.843   7.182  21.893  0.0397 -0.0957  0.0981
  717W        W43811  22.753   5.522  24.016  0.0738 -0.3449 -0.2651
  718W        W43812  25.015   4.636  20.977  0.1771  0.1691 -0.2635
  719W        W43813  23.693   4.856  21.761 -0.2296  0.3898 -0.0937
  720W        W43814  22.515   4.066  22.365 -0.3535  0.1005  0.1032
  721W        W43815  23.626   3.978  21.658 -0.0514  0.0077 -0.1470
  722W        W43816  24.905   6.811  21.323 -0.2371  0.1762 -0.2586
  723W        W43817  23.999   5.380  22.826 -0.1503 -0.1546  0.0839
  724W        W43818  22.543   6.383  22.500  0.4193 -0.0254 -0.1057
  725W        W43819  24.302   3.214  21.350  0.0834 -0.4968 -0.2536
  726W        W43820  26.482   7.387  20.230  0.0223  0.1797 -0.0787
  727W        W43821  25.080   6.785  23.453  0.3915  0.3393 -0.2814
  728W        W43822  23.721   5.734  20.525 -0.2260  0.3492 -0.0532
  729W        W43823  21.208   6.633  21.954  0.2119  0.0157  0.3923
  730W        W43824  23.354   5.875  20.910 -0.0849  0.5197 -0.2823
  731W        W43825  23.002   4.629  23.605  0.0962 -0.3311  0.3273
  732W        W43826  22.819   7.304  23.836  0.1453 -0.0055 -0.3254
  733W        W43827  22.294   5.573  19.722  0.0600 -0.0485 -0.1096
  734W        W43828  21.659   5.777  21.745  0.0442  0.0086  0.1284
  735W        W43829  25.434   4.067  20.602  0.0957 -0.0592  0.0656
  736W        W43830  25.033   6.583  20.726 -0.1756  0.1631 -0.1072
  737W        W43831  24.918   5.458  22.264 -0.2966 -0.1458 -0.0334
  738W        W43832  23.895   5.319  21.866  0.1374  0.2010  0.0501
  739W        W43833  24.547   4.617  20.171 -0.0836 -0.0941  0.2234
  740W        W43834  24.027   3.812  24.251  0.0205  0.0930  0.0681
  741W        W43835  22.904   4.297  23.975  0.3314  0.2733  0.0759
  742W        W43836  24.301   4.218  20.611  0.0836  0.0595  0.0753
  743W        W43837  22.025   5.404  22.685 -0.0140 -0.1583  0.0692
  744W        W43838  24.025   8.056  24.757  0.3798 -0.0287  0.2034
  745W        W43839  21.165   5.771  23.467  0.0673  0.0070 -0.0193
  746W        W43840  23.440   4.058  21.193 -0.0469  0.1022  0.1265
  747W        W43841  22.001   2.849  21.137  0.0218 -0.0546  0.2814
  748W        W43842  22.688   5.664  21.716 -0.1369 -0.0584 -0.0013
  749W        W43843  25.158   5.588  20.939  0.0822 -0.2659  0.3607
  750W        W43844  21.512   5.684  20.703  0.0278  0.0045  0.1589
  751W        W43845  24.329   5.157  21.554 -0.0326  0.0273  0.1301
  752W        W43846  20.752   7.581  22.967  0.1532  0.1617  0.0659
  753W        W43847  24.617   4.856  21.161 -0.1208 -0.1192  0.3255
  754W        W43848  24.644   4.708  19.155  0.1162 -0.1039  0.3893
  755W        W43849  22.601   4.857  21.425 -0.1796  0.0091  0.0232
  756W        W43850  23.635   2.406  22.724  0.0398 -0.3312  0.0067
  757W        W43851  25.246   7.328  21.761  0.0539  0.1690 -0.0456
  758W        W43852  22.582   5.940  20.384  0.0083 -0.1783 -0.4614
  759W        W43853  23.967   3.488  22.911  0.2060 -0.2391 -0.4404
  760W        W43854  23.185   4.037  21.834  0.3482 -0.1313  0.0553
  761W        W43855  22.254   5.644  23.780 -0.2860  0.0575  0.3702
  762W        W43856  23.187   4.781  25.531  0.2345  0.1526  0.0551
  763W        W43857  24.445   9.228  22.131 -0.1552  0.0948 -0.0598
  764W        W43858  24.777   3.591  19.450  0.1128  0.2362  0.3057
  765W        W43859  24.810   4.991  22.725  0.1886  0.4248 -0.0335
  766W        W43860  24.973   5.486  20.476 -0.0476  0.1442  0.2856
  767W        W43861  23.504   5.611  21.378 -0.0151 -0.4545 -0.0824
  768W        W43862  22.712   3.826  20.404 -0.0111 -0.2291 -0.2685
  769W        W43863  23.930   6.285  23.457  0.0338  0.2358  0.1010
  770W        W43864  23.411   5.317  21.818  0.2143  0.4346 -0.0003
  771W        W43865  23.401   4.400  22.124 -0.2351 -0.1557  0.0142
  772W        W43866  23.086   5.649  19.246  0.0361  0.1265 -0.1035
  773W        W43867  25.085   5.098  21.271 -0.1154  0.3173 -0.0453
  774W        W43868  24.456   5.132  19.941 -0.0569  0.0355 -0.0688
  775W        W43869  21.894   4.575  21.222  0.0817 -0.3600 -0.0558
  776W        W43870  22.617   6.907  24.579 -0.0384 -0.1517 -0.0459
  777W        W43871  21.187   3.922  20.095  0.0583 -0.2283 -0.0204
  778W        W43872  24.473   5.201  20.499 -0.1048  0.0445  0.0702
  779W        W43873  23.435   6.903  21.937  0.1582  0.1865  0.1422
  780W        W43874  24.042   5.827  23.122 -0.1240 -0.0881 -0.1499
  781W        W43875  22.743   3.581  20.951  0.2371 -0.0706 -0.0760
  782W        W43876  23.678   4.850  22.746  0.1340  0.3112 -0.5023
  783W        W43877  22.333   7.906  20.101 -0.0227  0.2091 -0.1914
  784W        W43878  24.116   3.793  20.476 -0.3482 -0.3895 -0.0086
  785W        W43879  21.275   7.807  23.498  0.2296  0.0205  0.1410
  786W        W43880  21.629   5.598  23.058  0.1068 -0.0039  0.2369
  787W        W43881  23.219   4.915  21.647  0.1825  0.2072  0.0857
  788W        W43882  22.347   3.710  22.042  0.1774  0.0411 -0.3105
  789W        W43883  23.812   5.196  21.400 -0.1568  0.2039  0.2110
  790W        W43884  23.294   4.519  23.078 -0.1107 -0.3174  0.2427
  791W        W43885  25.093   6.150  22.753 -0.2459 -0.1549 -0.1113
  792W        W43886  23.208   5.824  24.201 -0.0303  0.2701 -0.2442
  793W        W43887  21.714   6.552  22.931  0.0007  0.3961  0.1976
  794W        W43888  23.589   7.945  22.892 -0.5866 -0.0530  0.1763
  795W        W43889  25.152   4.614  22.042 -0.2341  0.2101 -0.2866
  796W        W43890  22.874   4.278  22.125 -0.1927  0.0419 -0.1766
  797W        W43891  20.816   4.076  22.976 -0.1996 -0.3740  0.1825
  798W        W43892  23.400   6.649  24.790 -0.2063 -0.1444  0.1824
  799W        W43893  22.192   5.091  21.154  0.1138 -0.2137  0.1447
  800W        W43894  23.342   5.195  21.197 -0.2228 -0.1120 -0.1723
  801W        W43895  23.743   5.095  19.388 -0.1155 -0.1704 -0.1604
  802W        W43896  22.407   7.824  23.477  0.0709  0.1804 -0.1019
  803W        W43897  21.307   4.686  22.518 -0.4425 -0.2068  0.2273
  804W        W43898  22.638   6.212  20.913  0.1300 -0.2192 -0.1126
  805W        W43899  24.116   4.631  19.936  0.0545  0.1313 -0.0794
  806W        W43900  23.967   6.494  19.961 -0.2752 -0.2204  0.1210
  807W        W43901  24.425   8.315  23.622 -0.0258  0.2132  0.2385
  808W        W43902  21.941   4.001  20.803 -0.1797  0.4911  0.0758
  809W        W43903  21.705   6.251  22.106 -0.0886  0.2419  0.0329
  810W        W43904  21.236   5.950  18.811  0.0072  0.2134  0.6478
  811W        W43905  23.938   6.895  21.625  0.0504 -0.0734  0.1334
  812W        W43906  22.322   7.531  22.182 -0.4226  0.0066  0.4673
  813W        W43907  23.607   6.601  23.229  0.0066 -0.0546  0.3419
  814W        W43908  26.503   2.827  19.124  0.1930 -0.0636  0.0898
  815W        W43909  24.075   7.661  23.001 -0.1589 -0.0732 -0.1355
  816W        W43910  26.080   4.123  21.194 -0.1808  0.1369  0.2470
  817W        W43911  22.752   7.337  22.410 -0.3200 -0.2729 -0.1126
  818W        W43912  22.106   4.157  21.334  0.0449 -0.0580  0.2523
  819W        W43913  21.939   3.177  20.230  0.0878 -0.3457 -0.0452
  820W        W43914  22.443   4.658  23.898  0.0126  0.0718 -0.0582
  821W        W43915  25.374   4.429  23.014  0.1423 -0.2303  0.1498
  822W        W43916  21.557   6.102  23.731 -0.0241 -0.3711 -0.1750
  823W        W43917  25.771   7.232  20.828  0.0733  0.0260 -0.1482
  824W        W43918  21.536   3.479  20.455  0.3715 -0.1177  0.1174
  825W        W43919  23.810   6.490  21.949  0.2072  0.0889  0.3036
  826W        W43920  24.841   3.353  21.603  0.2021  0.3369  0.0551
  827W        W43921  23.031   4.078  18.982  0.0564 -0.4424 -0.0432
  828W        W43922  24.365   4.631  21.864  0.1735 -0.0496  0.0883
  829W        W43923  22.783   6.549  21.730  0.0611 -0.1919  0.0912
  830W        W43924  22.923   5.219  21.964 -0.0029 -0.3506  0.3347
  831W        W43925  21.750   6.040  22.653 -0.1622  0.0383 -0.0188
  832W        W43926  22.006   3.887  22.558  0.1041 -0.0669  0.2409
  833W        W43927  25.305   4.171  20.004 -0.4350  0.0861  0.0994
  834W        W43928  21.358   3.992  23.315 -0.0729 -0.1152  0.2618
  835W        W43929  24.552   3.754  21.515  0.0439  0.1724  0.1523
  836W        W43930  20.775   4.926  22.492 -0.1676  0.0088  0.1561
  837W        W43931  24.760   4.395  21.278  0.0718 -0.0886 -0.3112
  838W        W43932  22.208   6.727  23.784 -0.1957 -0.0143 -0.0627
  839W        W43933  22.250   5.703  23.096  0.3880  0.1445 -0.0098
  840W        W43934  22.308   3.970  18.373  0.2540  0.0606 -0.3918
  841W        W43935  22.204   6.245  23.040 -0.0739  0.3604  0.2441
  842W        W43936  25.074   4.644  20.001  0.0935 -0.4872  0.1688
  843W        W43937  24.349   7.238  23.031 -0.1794 -0.2094 -0.1384
  844W        W43938  23.671   3.693  22.521 -0.0823  0.1847  0.0921
  845W        W43939  23.571   3.880  20.645  0.1196  0.3102  0.0026
  846W        W43940  22.538   5.402  21.274  0.2271 -0.0221  0.0270
  847W        W43941  22.612   5.552  23.459  0.0267 -0.1516 -0.2934
  848W        W43942  24.538   6.323  22.693  0.1036 -0.2417  0.1900
  849W        W43943  22.250   3.324  21.788  0.2607  0.0632  0.0382
  850W        W43944  24.769   6.053  18.436 -0.2166 -0.1587  0.0277
  851W        W43945  25.163   7.250  23.104  0.1148  0.2582  0.0331
  852W        W43946  24.614   6.723  20.963  0.1658 -0.1198  0.0467
  853W        W43947  25.034   3.792  21.760 -0.1426 -0.0308 -0.0399
  854W        W43948  24.965   6.940  22.718 -0.2174 -0.3082 -0.1202
  855W        W43949  22.355   3.585  22.866  0.0009  0.1880  0.0401
  856W        W43950  22.949   6.770  22.299 -0.0809  0.0348  0.1135
  857W        W43951  24.629   6.380  21.368  0.0886 -0.3813 -0.0278
  858W        W43952  22.893   4.330  21.596  0.3388 -0.1067 -0.0003
  859W        W43953  22.409   4.224  21.787  0.0879 -0.0130 -0.0743
  860W        W43954  22.870   6.117  20.009 -0.0139 -0.2296  0.1204
  861W        W43955  25.108   4.610  22.640 -0.0082 -0.1512  0.0788
  862W        W43956  23.755   4.044  22.159  0.0941  0.0729  0.1556
  863W        W43957  24.760   4.871  21.651  0.2692  0.0954 -0.0189
  864W        W43958  24.445   5.323  22.553  0.1094  0.1840  0.2397
  865W        W43959  23.736   6.013  22.358 -0.0204  0.1438  0.3357
  866W        W43960  22.234   6.657  24.273 -0.0322  0.0209  0.1216
  867W        W43961  21.249   5.740  19.698  0.4417  0.3509 -0.0388
  868W        W43962  22.730   5.905  24.450 -0.0653 -0.1660  0.1875
  869W        W43963  23.725   5.421  20.957 -0.0024  0.3833 -0.2096
  870W        W43964  23.158   6.367  20.758  0.3192 -0.0622  0.1522
  871W        W43965  25.378   5.546  21.996 -0.3038 -0.1266  0.0706
  872W        W43966  23.142   5.955  20.427 -0.0835  0.0486 -0.0585
  873W        W43967  26.660   5.774  21.933 -0.1428  0.0006  0.2825
  874W        W43968  22.607   3.766  21.554 -0.0392 -0.1497 -0.2472
  875W        W43969  24.329   4.198  21.554  0.3088  0.0787 -0.2712
  876W        W43970  25.921   3.384  20.175 -0.1314 -0.2459 -0.1678
  877W        W43971  21.917   6.524  23.400 -0.0254 -0.1407  0.0915
  878W        W43972  22.192   5.122  20.303 -0.3023  0.3154 -0.1490
  879W        W43973  23.210   3.949  20.146 -0.1387 -0.4897  0.2754
  880W        W43974  21.974   5.337  21.590 -0.0237  0.2209  0.1102
  881W        W43975  23.640   2.749  22.400 -0.0555 -0.1199  0.0357
  882W        W43976  23.234   4.725  22.465  0.1895  0.2499 -0.1730
  883W        W43977  21.877   4.406  21.802 -0.3443  0.2474  0.0517
  884W        W43978  21.858   3.408  20.874  0.3801 -0.0526  0.2922
  885W        W43979  26.122   6.029  20.593  0.1050 -0.2786  0.0107
  886W        W43980  22.860   2.311  21.406  0.1127 -0.0387 -0.0339
  887W        W43981  21.629   3.709  22.286  0.0339  0.0788 -0.4091
  888W        W43982  24.568   5.543  21.406 -0.0529  0.0411  0.0533
  889W        W43983  24.999   6.068  20.746  0.0884  0.1074 -0.2725
  890W        W43984  22.763   3.371  21.813  0.0532 -0.0084  0.0199
  891W        W43985  24.903   7.171  22.240  0.1246  0.2055  0.1526
  892W        W43986  21.580   6.603  19.907 -0.1043  0.0627 -0.1019
  893W        W43987  22.164   4.903  22.430 -0.0161 -0.0358  0.1429
  894W        W43988  23.664   3.211  22.509 -0.0466 -0.2299 -0.0024
  895W        W43989  21.913   2.913  20.663 -0.0023  0.2063  0.0602
  896W        W43990  24.149   4.721  21.427 -0.0164  0.0383 -0.4333
  897W        W43991  24.065   6.259  21.410 -0.0573  0.2042  0.1136
  898W        W43992  24.188   6.635  20.702 -0.2198  0.1116 -0.1533
  899W        W43993  23.301   6.113  22.179  0.0369  0.0642  0.0571
  900W        W43994  23.977   9.242  23.413  0.0304 -0.1545 -0.0947
  901W        W43995  23.887   4.179  22.623 -0.0386 -0.1074  0.1582
  902W        W43996  25.505   6.439  20.598 -0.1279 -0.2175 -0.0734
  903W        W43997  22.009   6.453  22.531 -0.0330 -0.0350  0.2438
  904W        W43998  25.195   5.394  19.648  0.1644  0.0936 -0.2139
  905W        W43999  25.607   4.366  22.105  0.4354 -0.3145  0.1622
  906W        W44000  23.468   4.372  18.985 -0.0929 -0.0740 -0.2143
  907W        W44001  23.738   2.793  23.664  0.1858 -0.1102 -0.1859
  908W        W44002  21.909   6.504  24.655 -0.1828  0.1422  0.0312
  909W        W44003  23.596   6.575  23.720 -0.1084  0.3709 -0.1021
  910W        W44004  22.560   3.332  22.373 -0.0281  0.2093 -0.0570
  911W        W44005  23.590   4.792  21.237  0.2486 -0.2537  0.0521
  912W        W44006  24.690   5.566  19.987  0.0314  0.0357 -0.0414
  913W        W44007  21.815   4.599  22.251  0.1453  0.1011  0.4788
  914W        W44008  23.337   4.522  20.837 -0.1660 -0.2363 -0.1135
  915W        W44009  22.572   5.160  22.638  0.2251  0.2244  0.0315
  916W        W44010  24.989   6.903  21.849 -0.0170  0.0040 -0.0813
  917W        W44011  22.995   4.874  22.914  0.1128 -0.0989 -0.5068
  918W        W44012  23.336   5.404  19.712 -0.1298 -0.1660 -0.0985
  919W        W44013  24.419   6.823  18.694 -0.3908 -0.3079  0.1846
  920W        W44014  23.659   9.218  23.819 -0.0740 -0.1387  0.0007
  921W        W44015  22.907   5.935  23.753  0.1528 -0.0081  0.1802
  922W        W44016  23.465   8.265  23.288  0.0620 -0.2101  0.1107
  923W        W44017  23.136   4.937  20.603  0.0232  0.6538  0.0435
  924W        W44018  21.716   2.739  23.644  0.0541  0.0218  0.0612
  925W        W44019  22.790   5.616  20.797 -0.2221 -0.0038  0.0376
  926W        W44020  23.159   5.778  21.756  0.0968 -0.3029  0.0847
  927W        W44021  24.442   3.960  23.457 -0.0400 -0.0929  0.3228
  928W        W44022  22.078   5.383  23.410  0.2917 -0.2411  0.4794
  929W        W44023  23.053   4.100  20.615  0.2994 -0.1016 -0.1146
  930W        W44024  23.205   7.297  22.944 -0.0410  0.1941 -0.0146
  931W        W44025  23.920   6.336  22.915 -0.0984 -0.0521 -0.2352
  932W        W44026  23.138   5.872  26.422  0.4243 -0.0448  0.2378
  933W        W44027  22.294   5.554  25.530  0.0291 -0.0245  0.1048
  934W        W44028  23.716   5.050  23.196  0.1033  0.2151 -0.1993
  935W        W44029  24.718   5.136  23.588  0.0327 -0.0747  0.2372
  936W        W44030  22.039   3.651  23.874 -0.2463 -0.0894  0.2824
  937W        W44031  24.686   5.171  24.784 -0.1788 -0.0524  0.0848
  938W        W44032  21.740   3.863  25.486 -0.2131 -0.0478  0.0199
  939W        W44033  24.172   7.410  25.304  0.0776 -0.1917 -0.3187
  940W        W44034  25.642   6.952  25.321 -0.1870  0.1203  0.1247
  941W        W44035  24.520   5.926  23.021  0.0538 -0.0596  0.0970
  942W        W44036  23.633   3.971  25.959  0.0844 -0.0172 -0.1804
  943W        W44037  23.290   7.748  26.382 -0.0215  0.3609  0.0955
  944W        W44038  24.846   4.246  23.134  0.0625 -0.3402  0.1886
  945W        W44039  20.577   1.336  24.350  0.5473 -0.2974 -0.1354
  946W        W44040  23.620   4.772  26.048 -0.4285 -0.0717  0.4821
  947W        W44041  21.819   6.362  24.192  0.0114 -0.0692  0.0333
  948W        W44042  22.158   5.810  26.079 -0.0062 -0.0640  0.1689
  949W        W44043  22.639   3.994  24.700  0.1023  0.0779 -0.0271
  950W        W44044  24.253   6.037  25.641  0.0248 -0.2096  0.1777
  951W        W44045  22.672   3.960  26.300  0.1521  0.0640  0.3110
  952W        W44046  23.477   5.434  26.593 -0.0379 -0.0133 -0.0289
  953W        W44047  24.737   7.476  24.201 -0.1241  0.1334 -0.1242
  954W        W44048  21.608   4.418  24.153 -0.3378  0.1261 -0.2256
  955W        W44049  23.423   5.808  25.965  0.0565  0.0927  0.0122
  956W        W44050  24.054   5.366  26.539  0.3098 -0.0886  0.3092
  957W        W44051  23.862   3.867  24.987 -0.1519  0.0229  0.0738
  958W        W44052  25.035   5.780  25.761  0.3357 -0.1246 -0.1553
  959W        W44053  23.451   7.585  25.875 -0.1574  0.1284 -0.4517
  960W        W44054  22.891   8.298  24.992  0.3826 -0.2358  0.4686
  961W        W44055  24.473   4.688  27.025  0.1788  0.2274 -0.1469
  962W        W44056  23.061   6.814  25.307 -0.0840 -0.1622 -0.2104
  963W        W44057  23.378   8.150  24.780 -0.5408 -0.2966  0.1210
  964W        W44058  23.665   6.646  24.316 -0.3360  0.3586  0.0995
  965W        W44059  24.208   7.589  24.845  0.2658 -0.3608 -0.1703
  966W        W44060  24.564   6.335  27.487 -0.1021  0.2910  0.1973
  967W        W44061  23.130   6.803  27.864  0.1407 -0.0684 -0.3948
  968W        W44062  21.738   7.573  22.836  0.0333  0.0167 -0.0163
  969W        W44063  23.785   6.883  28.667 -0.2259 -0.0846  0.1455
  970W        W44064  23.552   8.807  26.984 -0.2085 -0.0503 -0.0572
  971W        W44065  23.945   4.443  25.780 -0.0536 -0.0789 -0.0608
  972W        W44066  24.525   4.911  25.839 -0.3283 -0.2374 -0.1657
  973W        W44067  23.810   7.756  25.176 -0.0787 -0.1025  0.1614
  974W        W44068  23.495   6.892  25.782 -0.4040 -0.0800 -0.1442
  975W        W44069  22.058   5.792  27.290 -0.0525 -0.1453  0.4277
  976W        W44070  23.813   6.185  26.115  0.0205  0.1828  0.2052
  977W        W44071  25.656   4.405  27.995  0.0707  0.1443  0.0583
  978W        W44072  23.651   8.110  24.397 -0.0633  0.1412 -0.0014
  979W        W44073  24.134   5.377  23.310  0.3041  0.1154  0.2845
  980W        W44074  24.279   5.285  23.864 -0.0207 -0.2305 -0.2484
  981W        W44075  25.368   4.797  25.218 -0.1735  0.0915 -0.1142
  982W        W44076  21.831   2.269  24.692  0.1349 -0.0588 -0.0455
  983W        W44077  21.923   7.445  25.322 -0.2822 -0.2791 -0.1841
  984W        W44078  22.440   3.645  25.355  0.1970 -0.2438 -0.1475
  985W        W44079  23.754   6.716  27.320 -0.2157 -0.3087 -0.1354
  986W        W44080  24.148   4.398  24.874  0.5325 -0.0798 -0.2082
  987W        W44081  24.971   4.504  27.134  0.0420 -0.0219  0.0907
  988W        W44082  24.414   6.769  26.743  0.0316 -0.0340  0.1772
  989W        W44083  23.491   5.223  25.703 -0.1687 -0.2283 -0.1006
  990W        W44084  24.837   6.574  23.045 -0.1081 -0.0732  0.0031
  991W        W44085  25.595   6.496  24.412 -0.2397 -0.3196  0.0725
  992W        W44086  24.704   6.269  24.902 -0.0586 -0.0792  0.0139
  993W        W44087  21.948   6.043  25.042 -0.2906  0.0781  0.0348
  994W        W44088  22.035   6.333  25.848 -0.1322  0.3204 -0.0394
  995W        W44089  22.286   4.822  26.219 -0.0587  0.3533 -0.1796
  996W        W44090  23.140   4.721  24.516  0.1747  0.1448  0.0108
  997W        W44091  25.420   7.541  27.169 -0.0811  0.2506 -0.0984
  998W        W44092  22.744   7.493  26.294 -0.0850 -0.0598 -0.0462
  999W        W44093  25.985   3.934  25.531  0.1105  0.0563 -0.1819
 1000W        W44094  23.303   5.854  24.692 -0.1191 -0.3009 -0.2371
 1001W        W44095  24.377   7.363  25.789 -0.0968 -0.2562  0.0718
 1002W        W44096  25.271   5.709  24.251  0.0363  0.0446  0.6380
 1003W        W44097  25.132   3.702  25.213  0.1462 -0.1420  0.2597
 1004W        W44098  24.056   3.246  26.188 -0.1108 -0.4213  0.0079
 1005W        W44099  23.469   6.036  23.805 -0.2085 -0.0551  0.0398
 1006W        W44100  24.200   4.862  24.636 -0.0257  0.2358  0.1880
 1007W        W44101  24.045   5.029  25.795 -0.1371  0.1683  0.2716
 1008W        W44102  26.039   5.545  23.057 -0.1787 -0.2064 -0.2218
 1009W        W44103  23.884   8.481  26.224  0.0797  0.2072  0.0358
 1010W        W44104  24.099   4.455  26.728 -0.3491  0.1960 -0.0170
 1011W        W44105  23.139   6.947  28.738 -0.0897 -0.0678  0.0580
 1012W        W44106  22.111   6.218  23.749 -0.2733  0.1564 -0.0988
 1013W        W44107  20.261   6.152  26.913  0.0525  0.3034 -0.1262
 1014W        W44108  21.689   6.991  24.381 -0.0838 -0.1963  0.2697
 1015W        W44109  22.026   3.107  24.943 -0.1726 -0.3789 -0.3032
 1016W        W44110  24.045   5.712  25.249  0.2871 -0.0585 -0.1826
 1017W        W44111  25.047   5.260  23.168  0.2845 -0.6007 -0.1571
 1018W        W44112  22.148   4.953  25.480  0.0473 -0.1927  0.0162
 1019W        W44113  24.694   3.932  26.016 -0.0850  0.2514  0.0085
 1020W        W44114  23.104   6.809  24.350  0.3258 -0.1477  0.2312
 1021W        W44115  24.368   6.661  25.014  0.2134  0.0781  0.2639
 1022W        W44116  24.712   5.996  25.377 -0.0783  0.1959 -0.0538
 1023W        W44117  25.205   6.736  22.279 -0.0631 -0.2217  0.0954
 1024W        W44118  21.699   5.026  25.317  0.0220 -0.2215 -0.0775
 1025W        W44119  22.362   4.251  26.030 -0.0989  0.1332  0.0520
 1026W        W44120  22.447   5.045  26.698 -0.2408 -0.2451  0.2115
 1027W        W44121  21.575   4.318  25.221  0.2505  0.0300 -0.2116
 1028W        W44122  25.337   5.869  27.123  0.1063  0.0118 -0.2027
 1029W        W44123  22.909   4.892  24.024 -0.0111 -0.1797 -0.0393
 1030W        W44124  24.780   3.324  25.188  0.0995 -0.0384  0.0963
 1031W        W44125  21.694   5.260  24.824  0.2001  0.2186  0.0277
 1032W        W44126  21.674   6.695  23.830  0.5747  0.0950 -0.1503
 1033W        W44127  23.214   3.662  26.151 -0.3652  0.1579  0.0007
 1034W        W44128  25.284   6.192  24.238  0.4002 -0.3018 -0.0193
 1035W        W44129  24.765   8.066  27.446 -0.1770  0.1821  0.3285
 1036W        W44130  24.123   6.831  24.253 -0.3505 -0.0201  0.1281
 1037W        W44131  22.824   4.706  26.885  0.1363 -0.1322  0.0358
 1038W        W44132  22.450   3.822  23.728  0.2381 -0.1561 -0.2219
 1039W        W44133  20.873   7.662  26.311  0.0732  0.1239 -0.3156
 1040W        W44134  24.042   7.132  26.478 -0.3331  0.4668  0.0847
 1041W        W44135  22.932   4.991  24.856 -0.2294 -0.2840 -0.0637
 1042W        W44136  24.480   5.071  26.378  0.0755  0.0510  0.2015
 1043W        W44137  22.641   5.156  25.198 -0.0082 -0.1352  0.0028
 1044W        W44138  21.952   7.313  26.894 -0.2332  0.0708  0.1711
 1045W        W44139  24.194   4.293  27.267 -0.1047 -0.0435 -0.1801
 1046W        W44140  24.137   6.196  27.151  0.0426 -0.1059  0.0739
 1047W        W44141  24.051   5.307  24.800 -0.2356 -0.1585 -0.0610
 1048W        W44142  21.551   3.816  24.895 -0.2813  0.1359 -0.0428
 1049W        W44143  23.904   6.729  24.823  0.2235  0.1439  0.0447
 1050W        W44144  23.735   6.079  24.945  0.0219  0.1028  0.0803
 1051W        W44145  23.026   5.273  25.509  0.1619  0.3047 -0.1665
 1052W        W44146  24.636   5.491  25.793  0.2727 -0.2760 -0.3234
 1053W        W44147  23.806   3.406  24.851 -0.0884  0.3561 -0.1944
 1054W        W44148  20.853   5.610  27.640  0.2939 -0.1954 -0.1280
 1055W        W44149  24.444   3.598  26.277 -0.1567  0.4856 -0.2662
 1056W        W44150  21.753   4.757  23.723 -0.1158 -0.0417  0.0606
 1057W        W44151  23.153   8.174  26.664 -0.0094 -0.0290  0.1306
 1058W        W44152  24.474   3.634  24.392  0.2106 -0.2966 -0.2013
 1059W        W44153  25.440   5.145  24.151  0.0150 -0.3813  0.2606
 1060W        W44154  24.302   5.198  27.043  0.2288 -0.2943 -0.3296
 1061W        W44155  24.273   6.032  24.983 -0.0936 -0.3000 -0.1394
 1062W        W44156  24.257   6.691  23.783 -0.1837  0.0762 -0.0740
 1063W        W44157  24.699   4.506  24.112 -0.3348 -0.4975 -0.0804
 1064W        W44158  20.224   6.837  28.531 -0.1325  0.0647 -0.2358
 1065W        W44159  23.274   7.758  23.210  0.0039 -0.1265  0.0172
 1066W        W44160  24.343   5.958  26.794 -0.0671 -0.0841  0.2517
 1067W        W44161  23.787   4.281  23.977 -0.3094  0.0981  0.2198
 1068W        W44162  24.236   7.792  24.327  0.0262 -0.0471 -0.0224
 1069W        W44163  21.045   6.399  25.393  0.1565 -0.0663 -0.0887
 1070W        W44164  21.955   5.776  26.712  0.1152  0.0063  0.0892
 1071W        W44165  24.801   6.728  25.986  0.0824 -0.0168  0.0687
 1072W        W44166  23.783   4.839  24.857  0.0571  0.3194  0.2843
 1073W        W44167  23.589   7.121  24.555  0.2328 -0.2146  0.0522
 1074W        W44168  23.376   3.264  24.702 -0.1340 -0.1920 -0.0742
 1075W        W44169  22.338   8.790  24.413  0.0315 -0.1376  0.2234
 1076W        W44170  24.433   3.603  26.803  0.1771  0.0712  0.1200
 1077W        W44171  22.843   3.326  25.418 -0.0429  0.0359 -0.0441
 1078W        W44172  24.225   4.245  27.810  0.0215  0.3037  0.1568
 1079W        W44173  25.328   6.483  28.028 -0.1643  0.2366 -0.0016
 1080W        W44174  23.651   5.846  22.854 -0.1706  0.0959 -0.2599
 1081W        W44175  23.634   3.693  26.919 -0.1752 -0.0434 -0.0133
 1082W        W44176  21.330   4.439  23.709 -0.1678 -0.1440  0.0807
 1083W        W44177  22.997   4.188  26.006 -0.1035 -0.0715 -0.0237
 1084W        W44178  23.417   6.396  26.374  0.2407  0.4283 -0.0647
 1085W        W44179  21.160   7.578  25.856  0.1173  0.2517  0.1338
 1086W        W44180  25.067   6.293  27.327  0.1747 -0.3300  0.3372
 1087W        W44181  22.896   6.467  24.964  0.0565  0.3147  0.2202
 1088W        W44182  23.783   4.516  27.625 -0.0800  0.3104 -0.0597
 1089W        W44183  22.488   4.967  24.423 -0.0700 -0.2863 -0.0198
 1090W        W44184  22.392   8.650  21.967  0.0124 -0.1648  0.0867
 1091W        W44185  24.414   5.998  24.314 -0.1002  0.0122  0.3272
 1092W        W44186  24.521   3.814  25.307  0.3475  0.1147  0.1201
 1093W        W44187  22.039   5.298  27.488  0.0317  0.5316  0.1448
 1094W        W44188  22.637   6.433  23.772  0.1943  0.0450 -0.1514
 1095W        W44189  25.049   4.160  25.657  0.0309 -0.1324 -0.0695
 1096W        W44190  23.363   7.390  25.105 -0.0008  0.0368 -0.0644
 1097W        W44191  25.213   2.913  26.466 -0.2581  0.3195  0.2548
 1098W        W44192  22.324   7.183  25.493 -0.1937 -0.0531  0.2023
 1099W        W44193  22.616   6.018  22.995  0.1488  0.0907  0.1817
 1100W        W44194  21.634   5.604  23.555 -0.1888 -0.1475 -0.2193
 1101W        W44195  25.100   4.198  25.170 -0.3185  0.1636  0.1874
 1102W        W44196  24.615   4.282  25.107  0.2249  0.1741  0.2989
 1103W        W44197  21.866   5.524  25.204  0.0455  0.2323  0.1723
 1104W        W44198  24.166   4.234  25.324 -0.2415 -0.0108 -0.1118
 1105W        W44199  21.523   7.201  27.163 -0.1330 -0.1261 -0.0526
 1106W        W44200  22.981   5.726  26.888  0.2638  0.3186 -0.2035
 1107W        W44201  24.541   5.185  23.143  0.2543  0.0139  0.2370
 1108W        W44202  24.907   5.362  26.219 -0.0103 -0.2552  0.1222
 1109W        W44203  23.136   4.667  26.065  0.0727  0.2729  0.1487
 1110W        W44204  23.925   4.774  23.851  0.1554 -0.3367  0.1154
 1111W        W44205  24.412   4.094  26.529  0.2883 -0.0237 -0.1723
 1112W        W44206  21.513   5.802  25.965  0.2970  0.1802  0.2522
 1113W        W44207  24.678   7.565  25.367 -0.1459 -0.0838  0.0133
 1114W        W44208  22.427   8.667  24.936 -0.3816 -0.0548 -0.0547
 1115W        W44209  21.375   5.749  24.058 -0.2230 -0.2050  0.0028
 1116W        W44210  22.960   6.663  26.072  0.0388  0.2145  0.0430
 1117W        W44211  22.110   4.751  26.789 -0.1308 -0.0546 -0.1077
 1118W        W44212  24.335   5.976  26.126  0.0962 -0.2633 -0.3114
 1119W        W44213  22.742   4.550  26.333 -0.2000 -0.1769  0.0970
 1120W        W44214  20.893   4.726  24.892 -0.3938 -0.0749  0.0377
 1121W        W44215  23.685   4.777  24.344 -0.2399 -0.1036 -0.2073
 1122W        W44216  23.825   5.586  25.709  0.0214 -0.0976 -0.1904
 1123W        W44217  24.186   4.714  25.455  0.1832 -0.0328  0.2764
 1124W        W44218  21.994   7.121  27.407 -0.2219  0.4306  0.2266
 1125W        W44219  22.401   3.167  25.561  0.0259 -0.0301 -0.0940
 1126W        W44220  25.078   7.180  25.335 -0.1225 -0.1587  0.1565
 1127W        W44221  23.680   5.506  27.882 -0.0304  0.1693  0.2555
 1128W        W44222  23.173   6.450  23.492 -0.1339  0.1634 -0.0307
 1129W        W44223  22.367   6.446  24.843 -0.3651  0.0187 -0.1596
 1130W        W44224  25.325   6.168  24.836  0.1621 -0.0867 -0.0872
 1131W        W44225  23.427   4.301  26.225  0.0727  0.0967  0.2315
 1132W        W44226  23.359   6.326  25.785 -0.2613 -0.0055 -0.1133
 1133W        W44227  22.716   8.591  24.102  0.1735 -0.0487  0.0301
 1134W        W44228  22.069   6.707  26.220  0.2929 -0.4578  0.0227
 1135W        W44229  23.820   3.236  25.348  0.0578 -0.3042  0.1543
 1136W        W44230  23.675   7.106  24.065  0.1940  0.0849  0.4290
 1137W        W44231  22.421   5.826  24.896  0.2383 -0.3758  0.1022
 1138W        W44232  25.182   2.959  27.797 -0.3971  0.2080  0.2668
 1139W        W44233  25.205   6.188  23.657 -0.3367  0.0212 -0.2647
 1140W        W44234  22.721   3.588  25.890 -0.2086 -0.1988  0.0847
 1141W        W44235  22.207   4.407  25.472 -0.0989 -0.0499 -0.1355
 1142W        W44236  23.326   5.308  22.895 -0.0053  0.1002  0.4171
 1143W        W44237  21.439   4.996  25.778 -0.1520  0.1028 -0.0168
 1144W        W44238  24.849   6.908  28.768  0.1557 -0.1776 -0.3584
 1145W        W44239  22.845   5.426  26.526  0.0888  0.1967 -0.3924
 1146W        W44240  23.009   4.202  24.444  0.0564  0.1512 -0.0121
 1147W        W44241  23.026   3.850  25.181  0.0530  0.1022 -0.0502
 1148W        W44242  24.343   5.657  27.224 -0.0788  0.2199 -0.3091
 1149W        W44243  24.865   6.753  25.143 -0.1048 -0.1610 -0.1029
 1150W        W44244  23.807   7.190  25.020  0.2402 -0.0190 -0.3222
 1151W        W44245  24.654   4.625  26.578 -0.0340  0.3946 -0.1825
 1152W        W44246  23.703   5.255  26.154  0.2944 -0.4950 -0.0162
 1153W        W44247  23.162   3.772  25.652  0.0020  0.1067 -0.2358
 1154W        W44248  23.029   5.382  24.440 -0.1759  0.1006  0.2132
 1155W        W44249  23.568   6.780  25.309  0.1803  0.0636 -0.1849
 1156W        W44250  22.891   4.945  27.906 -0.0962  0.1287 -0.1862
 1157W        W44251  24.891   5.877  26.231  0.2105  0.0061 -0.2745
 1158W        W44252  25.243   4.127  26.547 -0.2779 -0.1692 -0.0889
 1159W        W44253  22.660   4.670  25.317  0.1224 -0.0369  0.2230
 1160W        W44254  23.657   4.067  25.395 -0.3750  0.0083  0.1361
 1161W        W44255  21.991   5.212  26.463 -0.1322 -0.0843 -0.4923
 1162W        W44256  21.771   6.713  27.687 -0.2321  0.0501 -0.0918
 1163W        W44257  24.350   7.195  27.131 -0.0846  0.1571 -0.1177
 1164W        W44258  24.335   4.890  24.122 -0.0411  0.3256 -0.0662
 1165W        W44259  25.655   4.034  26.810 -0.2829 -0.0144 -0.0560
 1166W        W44260  24.893   5.012  25.192  0.2535  0.1173 -0.2295
 1167W        W44261  24.024   5.792  24.643  0.2352 -0.2549 -0.1019
 1168W        W44262  22.546   5.978  26.452  0.4285 -0.1718  0.2559
 1169W        W44263  23.882   5.349  28.887  0.1321 -0.3091  0.1678
 1170W        W44264  23.683   3.124  23.303 -0.3018 -0.1021 -0.3163
 1171W        W44265  23.480   4.976  28.118 -0.0890 -0.0981 -0.0299
 1172W        W44266  23.178   7.273  24.199 -0.2383 -0.0121  0.3517
 1173W        W44267  24.603   7.034  25.529 -0.3432 -0.0134 -0.1941
 1174W        W44268  24.838   5.383  24.025 -0.0241 -0.1595 -0.0534
 1175W        W44269  21.496   4.728  24.922 -0.0863  0.2086  0.1307
 1176W        W44270  23.968   7.667  25.715  0.2585  0.0703  0.1676
 1177W        W44271  22.817   5.121  23.617 -0.0798  0.0606  0.0632
 1178W        W44272  23.077   6.294  24.540 -0.0185  0.1580 -0.1490
 1179W        W44273  24.700   6.186  25.848  0.0802  0.0912 -0.1623
 1180W        W44274  25.625   5.498  27.792 -0.2598  0.0723  0.1020
 1181W        W44275  23.268   2.521  24.985 -0.2557  0.0431  0.0944
 1182W        W44276  23.762   5.045  26.937  0.4398  0.2075 -0.0235
 1183W        W44277  22.425   7.757  25.276 -0.1104 -0.0174  0.0274
 1184W        W44278  23.964   3.739  26.308  0.1158  0.1869 -0.0605
 1185W        W44279  23.487   8.190  27.034  0.0974 -0.0207 -0.1588
 1186W        W44280  21.623   7.498  26.568 -0.0279  0.1747 -0.0672
 1187W        W44281  23.037   7.182  24.698  0.1696  0.1627 -0.0148
 1188W        W44282  22.144   3.172  26.370 -0.1409 -0.0972  0.5952
 1189W        W44283  24.307   3.448  24.967 -0.0706  0.1445 -0.2216
 1190W        W44284  23.901   5.687  26.960 -0.0505 -0.0264 -0.1514
 1191W        W44285  25.634   3.814  26.324  0.2398  0.0001 -0.1733
 1192W        W44286  23.324   6.050  27.013 -0.1280  0.3645 -0.0192
 1193W        W44287  22.652   5.269  27.120 -0.3669  0.1502 -0.1563
 1194W        W44288  24.260   6.704  27.203 -0.1996 -0.0298 -0.0113
 1195W        W44289  24.167   4.920  23.455 -0.2502  0.2357 -0.0614
 1196W        W44290  22.940   6.149  26.034  0.0433 -0.0857 -0.4283
 1197W        W44291  21.262   5.519  28.060 -0.0240 -0.0694 -0.0751
 1198W        W44292  22.471   4.711  27.299 -0.0722 -0.0708  0.1429
 1199W        W44293  24.670   6.442  26.398 -0.1113 -0.0922 -0.0226
 1200W        W44294  23.089   2.836  24.179 -0.0599  0.0537  0.3327
 1201W        W44295  23.574   5.543  24.425  0.0409 -0.3420 -0.1086
 1202W        W44296  21.656   8.010  27.890  0.0739  0.3369 -0.0964
 1203W        W44297  22.139   6.464  27.260  0.1025  0.0529 -0.0264
 1204W        W44298  23.920   6.406  25.221 -0.0923 -0.0850  0.2779
 1205W        W44299  23.648   6.090  24.427  0.0374 -0.2190 -0.0599
 1206W        W44300  24.492   6.489  24.483  0.0597  0.1912  0.0887
 1207W        W44301  23.920   7.137  27.502 -0.0736  0.4692 -0.2923
 1208W        W44302  23.111   4.049  23.044  0.0243 -0.0772 -0.0566
 1209W        W44303  22.040   7.454  25.785 -0.1770 -0.0534  0.1406
 1210W        W44304  22.220   7.151  24.033  0.1152 -0.1079  0.0555
 1211W        W44305  25.279   7.549  23.430 -0.0734 -0.1228  0.0594
 1212W        W44306  24.212   7.632  26.233 -0.1801  0.0336 -0.1070
 1213W        W44307  25.005   6.830  26.469 -0.1626  0.0424 -0.1262
 1214W        W44308  24.501   3.290  23.087  0.0216  0.1559  0.2401
 1215W        W44309  24.862   5.984  24.429  0.1749 -0.0614  0.2977
 1216W        W44310  25.228   4.626  23.440 -0.1290  0.0918 -0.3916
 1217W        W44311  24.552   5.472  26.590 -0.0443 -0.0542 -0.1135
 1218W        W44312  22.735   5.078  26.216 -0.0773  0.0314 -0.1658
 1219W        W44313  22.005   4.979  23.053 -0.1226 -0.0460  0.0286
 1220W        W44314  21.448   4.969  26.278 -0.1044  0.0540  0.0286
 1221W        W44315  25.546   2.791  26.920 -0.0937 -0.1138  0.0165
 1222W        W44316  21.325   8.554  27.412  0.1490  0.0574 -0.1470
 1223W        W44317  23.797   7.282  23.178  0.4016 -0.0647  0.0211
 1224W        W44318  22.752   5.687  25.333 -0.0474  0.1551  0.3054
 1225W        W44319  24.222   5.455  26.055 -0.1664 -0.1722 -0.1274
 1226W        W44320  25.533   3.798  25.600  0.1608  0.0028  0.1575
 1227W        W44321  23.284   5.595  23.757 -0.0377  0.2020  0.1984
 1228W        W44322  24.354   3.078  25.383  0.0134 -0.0066 -0.1839
 1229W        W44323  23.344   6.272  25.207  0.1414 -0.1727 -0.2095
 1230W        W44324  25.410   5.915  26.192  0.1314  0.1710  0.1710
 1231W        W44325  23.693   7.662  26.879  0.0765  0.0405 -0.0677
 1232W        W44326  23.393   5.178  25.196  0.0280  0.0850  0.3310
 1233W        W44327  26.176   5.246  23.827  0.3139 -0.2398  0.0749
 1234W        W44328  22.351   6.122  26.904 -0.1718  0.2442 -0.1865
 1235W        W44329  26.161   4.564  27.183 -0.2476 -0.1864 -0.2057
 1236W        W44330  20.914   5.349  25.487 -0.3097 -0.0825  0.4108
 1237W        W44331  25.543   4.243  23.612 -0.0660  0.4084  0.1334
 1238W        W44332  24.803   5.387  27.055  0.0193 -0.0758  0.0641
 1239W        W44333  23.067   5.500  24.992 -0.1064  0.3302 -0.2012
 1240W        W44334  23.987   4.171  23.510 -0.2004  0.3138  0.1468
 1241W        W44335  24.890   5.080  26.679  0.0860  0.1592  0.3740
 1242W        W44336  25.332   6.768  24.959 -0.0326  0.1351 -0.2848
 1243W        W44337  24.709   6.757  27.228 -0.3714 -0.0440 -0.1031
 1244W        W44338  23.595   4.869  26.523  0.0562 -0.1508  0.2181
 1245W        W44339  23.965   5.200  24.290 -0.2588  0.0079  0.0176
 1246W        W44340  23.727   6.031  25.515 -0.0955  0.3014 -0.2100
 1247W        W44341  24.647   5.502  27.699  0.1208 -0.2311 -0.2103
 1248W        W44342  23.129   6.647  27.355 -0.0095  0.3057 -0.1989
 1249W        W44343  23.391   5.142  24.722  0.0885  0.1827  0.0242
 1250W        W44344  24.369   6.034  23.684 -0.2059 -0.1301 -0.1831
 1251W        W44345  24.956   5.852  24.943  0.0358  0.1517 -0.0848
 1252W        W44346  24.591   8.373  24.628 -0.2314  0.1337  0.0688
 1253W        W44347  24.917   5.521  24.525  0.1727 -0.0058 -0.3898
 1254W        W44348  24.769   7.501  26.184  0.2343 -0.2568 -0.1002
 1255W        W44349  21.932   4.740  24.622  0.1001  0.1110 -0.1272
 1256W        W44350  23.611   5.996  26.574  0.1089  0.0536 -0.2141
 1257W        W44351  25.438   5.688  24.756  0.4304 -0.3292  0.2195
 1258W        W44352  22.430   3.509  24.481 -0.0450 -0.0654 -0.3461
 1259W        W44353  22.699   4.042  25.640  0.0948 -0.0586 -0.2550
 1260W        W44354  22.043   5.208  24.417 -0.5135 -0.4632 -0.3088
 1261W        W44355  25.279   5.255  27.014 -0.3213 -0.1131  0.1831
 1262W        W44356  25.454   3.454  27.806  0.1068 -0.0883  0.1409
 1263W        W44357  23.079   9.082  22.993  0.0544 -0.3090  0.1917
 1264W        W44358  25.967   3.288  27.759  0.3525  0.1435 -0.1496
 1265W        W44359  22.553   5.805  27.280 -0.1788  0.1388 -0.1877
 1266W        W44360  22.744   6.969  26.449 -0.0470 -0.0541  0.0947
 1267W        W44361  22.468   5.140  23.178 -0.0736 -0.0662 -0.0790
 1268W        W44362  24.404   4.438  26.127  0.1886  0.1160 -0.1321
 1269W        W44363  23.837   6.519  25.687 -0.2794 -0.0553 -0.1781
 1270W        W44364  23.161   7.271  25.557  0.0433  0.0018 -0.1465
 1271W        W44365  24.325   6.467  25.999 -0.1132  0.0470 -0.1124
 1272W        W44366  24.998   4.650  24.887 -0.1379 -0.3086  0.2915
 1273W        W44367  25.158   6.724  25.572  0.0243 -0.1560 -0.2501
 1274W        W44368  23.395   4.058  24.894 -0.0602  0.0377  0.0704
 1275W        W44369  24.851   3.721  23.471  0.0623 -0.0534 -0.2522
 1276W        W44370  24.689   4.679  23.649  0.0028  0.1132  0.0497
 1277W        W44371  21.617   7.310  26.039 -0.2043 -0.4619 -0.1240
 1278W        W44372  21.228   4.782  24.046 -0.0634  0.2182  0.1192
 1279W        W44373  22.063   7.545  24.834  0.1091 -0.0485 -0.2160
 1280W        W44374  23.201   5.233  26.162 -0.0245 -0.0471 -0.1038
 1281W        W44375  24.829   4.968  27.813  0.0780  0.0209  0.0085
 1282W        W44376  21.557   6.265  26.029 -0.0586 -0.0957  0.0023
 1283W        W44377  22.577   6.817  25.212  0.2805  0.1936  0.2737
 1284W        W44378  22.648   4.737  25.849 -0.1121 -0.1265 -0.2662
 1285W        W44379  24.632   6.947  23.372  0.2486  0.1766 -0.2828
 1286W        W44380  22.202   4.352  24.234 -0.1229 -0.0231 -0.0708
 1287W        W44381  21.319   4.560  26.053  0.1305 -0.0941 -0.0423
 1288W        W44382  24.514   6.545  25.557 -0.2702  0.2380  0.1168
 1289W        W44383  23.763   8.269  25.175  0.2450  0.4493 -0.0131
 1290W        W44384  23.006   4.332  25.401 -0.0283  0.0750 -0.1069
 1291W        W44385  25.002   7.146  25.868  0.3192  0.1573  0.2846
 1292W        W44386  20.591   5.739  23.555 -0.2029  0.0663 -0.1413
 1293W        W44387  22.893   4.025  27.757 -0.0438  0.0142  0.0297
 1294W        W44388  24.205   3.984  25.809 -0.0393 -0.0120  0.2367
 1295W        W44389  21.709   3.976  23.705  0.0336 -0.0781 -0.1611
 1296W        W44390  23.578   4.317  26.700 -0.1749 -0.1105 -0.1267
 1297W        W44391  24.775   5.847  23.913 -0.0230  0.0201  0.0314
 1298W        W44392  23.531   9.189  25.094  0.1061  0.1087 -0.0734
 1299W        W44393  23.856   5.725  26.254 -0.2922 -0.1986 -0.1127
 1300W        W44394  23.949   8.049  27.222 -0.0343 -0.1606 -0.1971
 1301W        W44395  22.083   3.996  25.094  0.1276  0.0921 -0.1099
 1302W        W44396  24.900   5.020  24.397 -0.1642 -0.0970  0.2029
 1303W        W44397  23.005   6.047  28.320 -0.3252  0.1279 -0.0314
 1304W        W44398  24.981   7.773  25.769 -0.1303 -0.1260  0.0579
 1305W        W44399  24.970   4.362  26.172  0.1458  0.2190 -0.0651
 1306W        W44400  24.071   6.265  24.558 -0.2069  0.1169 -0.1658
 1307W        W44401  21.906   6.231  26.919  0.2040  0.5524  0.0117
 1308W        W44402  21.536   6.701  27.293 -0.1143 -0.1556 -0.1571
 1309W        W44403  25.333   5.471  26.021  0.0797 -0.1289 -0.0085
 1310W        W44404  22.477   4.781  24.862  0.0423  0.1759 -0.2131
 1311W        W44405  24.148   4.461  24.351 -0.2918  0.0683 -0.2367
 1312W        W44406  23.545   8.002  23.759  0.1109 -0.1157  0.1416
 1313W        W44407  21.221   6.567  25.829 -0.0243  0.0413  0.1181
 1314W        W44408  23.653   5.535  24.944 -0.3173  0.0894  0.0883
 1315W        W44409  23.955   5.315  27.408  0.2407  0.1155 -0.2692
 1316W        W44410  22.933   5.955  24.986  0.0383 -0.1754  0.0441
 1317W        W44411  25.743   6.174  27.919  0.2010  0.3505  0.0097
 1318W        W44412  23.508   3.872  23.993  0.2149  0.1468  0.0468
 1319W        W44413  26.276   5.874  23.861  0.1355  0.0147 -0.2610
 1320W        W44414  24.322   8.408  27.422 -0.1317  0.2857  0.2520
 1321W        W44415  23.449   7.055  27.581 -0.1496 -0.0419 -0.2132
 1322W        W44416  25.008   7.171  27.078 -0.1937  0.0231  0.1624
 1323W        W44417  24.413   5.242  25.291 -0.1062  0.0826 -0.1001
 1324W        W44418  22.193   3.822  25.729 -0.1005  0.0613 -0.0937
 1325W        W44419  22.411   5.162  23.929  0.1566  0.0804 -0.3618
 1326W        W44420  23.934   5.242  25.357  0.2210  0.0888 -0.1497
 1327W        W44421  23.769   3.501  25.791  0.1510  0.1702 -0.0660
 1328W        W44422  24.048   4.757  26.352 -0.0383 -0.4521  0.2273
 1329W        W44423  23.812   5.247  23.739  0.1376  0.2074 -0.0146
 1330W        W44424  23.850   6.694  26.217 -0.2555  0.1920 -0.0950
 1331W        W44425  23.899   4.246  26.299  0.0054 -0.0930  0.2822
 1332W        W44426  22.535   6.251  29.088  0.0622 -0.2625  0.1345
 1333W        W44427  22.700   4.852  28.760  0.0442  0.0022  0.1684
 1334W        W44428  24.403   4.772  28.010 -0.0589  0.3035 -0.3846
 1335W        W44429  24.765   5.247  29.157  0.0332  0.3700 -0.1982
 1336W        W44430  22.423   5.467  29.613  0.0983  0.0194 -0.1578
 1337W        W44431  25.820   6.425  29.332  0.1799  0.0710  0.1790
 1338W        W44432  23.088   5.533  30.901  0.1206 -0.1543 -0.1881
 1339W        W44433  24.650   5.406  29.613  0.1629 -0.0932 -0.0973
 1340W        W44434  24.669   6.845  29.373  0.0629  0.1370 -0.1554
 1341W        W44435  23.050   5.538  27.341  0.0474  0.0091  0.2977
 1342W        W44436  22.420   4.917  30.201  0.0227 -0.0172 -0.0173
 1343W        W44437  22.971   7.070  30.110  0.0891 -0.0092 -0.1338
 1344W        W44438  24.698   4.324  29.730 -0.1190  0.0635 -0.0242
 1345W        W44439  21.437   4.021  29.388 -0.1179 -0.0114  0.3308
 1346W        W44440  25.086   5.027  29.997  0.0738 -0.1329 -0.0156
 1347W        W44441  21.529   5.451  28.464 -0.2741  0.3775  0.1864
 1348W        W44442  23.097   3.755  29.636  0.2223  0.0196  0.1419
 1349W        W44443  24.747   3.837  29.002  0.2555  0.1908  0.1926
 1350W        W44444  22.907   7.654  28.373 -0.0925 -0.0111  0.0605
 1351W        W44445  22.761   3.879  29.982 -0.0453 -0.1237  0.2234
 1352W        W44446  24.087   4.011  30.350  0.1082  0.0844 -0.0016
 1353W        W44447  24.460   7.260  29.115 -0.0483 -0.1477  0.1060
 1354W        W44448  22.837   5.593  28.196 -0.1723 -0.1170  0.2119
 1355W        W44449  22.443   5.802  30.600 -0.2793 -0.1598  0.1403
 1356W        W44450  22.622   5.921  29.455  0.0629 -0.0903  0.0026
 1357W        W44451  24.826   4.721  29.254  0.0162 -0.3893 -0.0968
 1358W        W44452  26.885   4.842  27.829 -0.2225 -0.0218 -0.1227
 1359W        W44453  22.309   6.570  28.184  0.1012  0.2434  0.0549
 1360W        W44454  25.138   7.462  31.283 -0.1587  0.0143  0.0590
 1361W        W44455  23.276   5.426  30.323 -0.0167 -0.0909  0.0226
 1362W        W44456  22.256   6.202  30.294  0.0823  0.2270 -0.0115
 1363W        W44457  21.402   8.142  29.769  0.2155  0.0867  0.4220
 1364W        W44458  22.094   7.732  27.739  0.0897 -0.0320 -0.1563
 1365W        W44459  23.998   5.670  28.308 -0.0336  0.1480  0.1020
 1366W        W44460  24.727   6.219  28.283 -0.0709  0.1034  0.0486
 1367W        W44461  22.375   7.597  30.799 -0.0802  0.0115  0.0994
 1368W        W44462  21.077   6.490  27.995 -0.2918 -0.2630 -0.0016
 1369W        W44463  22.083   7.255  31.174 -0.0527 -0.1088 -0.0396
 1370W        W44464  22.100   7.915  31.248 -0.4770  0.3854  0.1215
 1371W        W44465  24.002   5.684  30.928  0.1672  0.0750 -0.1175
 1372W        W44466  24.382   4.646  29.957 -0.2330  0.1665  0.0219
 1373W        W44467  22.823   6.798  29.068  0.0223  0.1276 -0.1100
 1374W        W44468  25.203   5.735  30.397 -0.1236 -0.2964  0.1324
 1375W        W44469  23.648   5.965  31.627 -0.0381 -0.1683 -0.0047
 1376W        W44470  22.370   6.895  30.081  0.1484 -0.2300  0.0500
 1377W        W44471  23.885   4.336  30.827  0.3725  0.2644 -0.0717
 1378W        W44472  21.961   6.241  28.087  0.0217  0.0953  0.0649
 1379W        W44473  23.514   5.689  27.310 -0.0574 -0.1075  0.2596
 1380W        W44474  23.695   4.768  28.643 -0.3396 -0.0780  0.4345
 1381W        W44475  24.833   4.279  28.464 -0.1088  0.0398 -0.2519
 1382W        W44476  23.678   4.973  29.200  0.1729  0.0918  0.1950
 1383W        W44477  23.907   6.599  29.807  0.3689  0.1021 -0.0445
 1384W        W44478  23.603   4.945  29.710 -0.0927  0.0512 -0.1550
 1385W        W44479  25.702   5.824  30.989 -0.1149 -0.0738 -0.0911
 1386W        W44480  23.956   6.363  28.847  0.1128 -0.0560  0.0873
 1387W        W44481  23.879   4.297  28.533  0.0976  0.1155  0.0162
 1388W        W44482  22.297   8.557  30.139 -0.2874  0.1119  0.1675
 1389W        W44483  22.707   5.960  28.678 -0.3092 -0.2751  0.0640
 1390W        W44484  25.351   5.959  27.618 -0.1753 -0.2786  0.0312
 1391W        W44485  24.545   5.721  28.266 -0.0396  0.0945 -0.2703
 1392W        W44486  22.832   6.414  26.608 -0.2232 -0.0697 -0.4334
 1393W        W44487  23.239   7.384  27.819 -0.0668  0.2846  0.0215
 1394W        W44488  21.520   7.358  31.178  0.1913  0.2744  0.3680
 1395W        W44489  22.155   4.901  29.727  0.0115 -0.0490 -0.1016
 1396W        W44490  23.860   4.040  28.126  0.0979  0.1795 -0.3034
 1397W        W44491  26.120   5.502  31.142  0.0471  0.1123 -0.3586
 1398W        W44492  22.694   6.247  30.566 -0.0752  0.1688  0.1427
 1399W        W44493  24.702   5.630  28.729 -0.1285 -0.1360 -0.2727
 1400W        W44494  22.996   6.431  28.720  0.0310  0.0323 -0.1275
 1401W        W44495  24.983   6.692  29.978 -0.0223  0.1592 -0.0587
 1402W        W44496  24.812   5.873  27.325 -0.2490 -0.1856  0.0771
 1403W        W44497  23.571   3.650  29.607 -0.1770  0.0962 -0.2369
 1404W        W44498  24.023   3.118  29.531  0.2694  0.2977  0.1390
 1405W        W44499  22.845   7.071  27.467  0.2475 -0.0680  0.0705
 1406W        W44500  23.277   6.492  26.871  0.1438  0.0631  0.4061
 1407W        W44501  25.636   5.957  28.801 -0.1094 -0.2492 -0.1499
 1408W        W44502  25.964   5.493  25.996  0.1289 -0.1585  0.1647
 1409W        W44503  22.168   6.856  29.533  0.2359 -0.3306 -0.0388
 1410W        W44504  22.748   5.066  31.640  0.2059 -0.1612  0.1394
 1411W        W44505  23.923   6.962  31.378 -0.0529 -0.0852 -0.2249
 1412W        W44506  22.299   6.559  26.646 -0.0187 -0.3056  0.1575
 1413W        W44507  21.263   6.635  31.597 -0.1871 -0.1825 -0.1182
 1414W        W44508  23.600   7.730  29.765  0.2811  0.1024  0.2103
 1415W        W44509  22.122   4.105  30.317 -0.0914  0.0067  0.2108
 1416W        W44510  22.933   5.510  29.490 -0.3419 -0.3163  0.4820
 1417W        W44511  25.522   3.670  27.277  0.3602  0.0772 -0.0910
 1418W        W44512  20.704   4.472  30.750 -0.0649  0.1195 -0.1088
 1419W        W44513  25.544   4.364  28.510 -0.0104  0.0279  0.1681
 1420W        W44514  22.176   6.680  29.080 -0.0066  0.0598  0.1047
 1421W        W44515  24.638   5.847  29.233 -0.2480 -0.2925  0.1226
 1422W        W44516  24.820   5.840  26.785  0.1858 -0.0395 -0.1149
 1423W        W44517  24.455   5.066  27.543  0.2443  0.0654  0.1475
 1424W        W44518  21.396   5.379  29.311 -0.1474  0.0760 -0.1815
 1425W        W44519  23.101   4.606  28.301  0.2745 -0.3346  0.3391
 1426W        W44520  22.810   3.562  30.362  0.2170  0.0445 -0.0398
 1427W        W44521  21.646   3.944  28.304  0.1772 -0.2826  0.1639
 1428W        W44522  25.166   5.497  31.715  0.1915  0.1809 -0.0015
 1429W        W44523  22.045   5.859  27.791  0.2257 -0.3896  0.1979
 1430W        W44524  23.426   3.797  28.366 -0.3204 -0.1960  0.1361
 1431W        W44525  23.088   6.088  27.469 -0.2689  0.1883 -0.2291
 1432W        W44526  21.074   4.275  28.409  0.2734  0.1612  0.1051
 1433W        W44527  24.530   3.592  30.084  0.5353  0.1541 -0.1968
 1434W        W44528  23.958   5.855  27.507 -0.1313  0.1227  0.0462
 1435W        W44529  25.292   5.928  31.410 -0.2086  0.1658 -0.0225
 1436W        W44530  26.974   7.138  28.331  0.1004  0.2136  0.0295
 1437W        W44531  23.078   4.174   0.085 -0.0177 -0.2341  0.0048
 1438W        W44532  22.410   4.970  27.761 -0.1377  0.1838  0.1574
 1439W        W44533  22.993   8.580  29.819 -0.0439 -0.1820 -0.1645
 1440W        W44534  23.094   6.263  30.272  0.0020  0.0316 -0.1782
 1441W        W44535  24.274   3.807  27.268 -0.1000  0.0916  0.1242
 1442W        W44536  24.726   7.357  28.591 -0.0321  0.0074 -0.0134
 1443W        W44537  22.861   5.393  28.790  0.0658  0.2896  0.0413
 1444W        W44538  22.051   5.991  29.815  0.1030  0.1643 -0.0399
 1445W        W44539  24.569   3.684  30.570 -0.1548  0.1184 -0.2524
 1446W        W44540  26.236   4.733  30.070 -0.0256  0.0613 -0.0555
 1447W        W44541  24.346   4.419  29.341 -0.3652 -0.0339 -0.1042
 1448W        W44542  22.595   4.182  26.926 -0.0813 -0.0431  0.2678
 1449W        W44543  24.263   5.793  28.816  0.0388 -0.1144  0.0820
 1450W        W44544  22.349   7.067  27.087 -0.0858  0.0675  0.1822
 1451W        W44545  23.742   6.357  29.374  0.0546  0.0544  0.0172
 1452W        W44546  25.141   7.367  28.851 -0.2330  0.1514 -0.1454
 1453W        W44547  23.306   3.822  30.095 -0.0571  0.1773 -0.1942
 1454W        W44548  21.114   5.573  30.210 -0.2538 -0.2669  0.4551
 1455W        W44549  24.876   4.613  31.212 -0.0931 -0.1214  0.3570
 1456W        W44550  22.763   5.891  27.758  0.1475  0.1241  0.6611
 1457W        W44551  22.059   7.363  31.697  0.1604  0.0613  0.1229
 1458W        W44552  25.132   4.679  28.165  0.0329  0.2618  0.1328
 1459W        W44553  25.151   5.061  29.537  0.1501 -0.2239  0.2159
 1460W        W44554  24.333   5.845  30.619 -0.1581 -0.1241 -0.1104
 1461W        W44555  24.223   6.144  28.464 -0.1610 -0.0757 -0.1315
 1462W        W44556  24.596   3.942  28.020 -0.2491 -0.1861 -0.0972
 1463W        W44557  24.754   4.813  28.624  0.0429  0.0871 -0.1652
 1464W        W44558  21.575   7.308  30.571 -0.1034  0.0244  0.1628
 1465W        W44559  23.428   6.766  30.056  0.2174  0.1139 -0.1162
 1466W        W44560  23.382   6.434  29.667  0.2886 -0.3549  0.2689
 1467W        W44561  22.778   6.444  27.731 -0.0716 -0.1934  0.1558
 1468W        W44562  24.405   6.666  28.485 -0.1091 -0.1139  0.0176
 1469W        W44563  20.833   5.082  29.387 -0.1027 -0.1463 -0.1846
 1470W        W44564  24.034   6.125  31.870 -0.3081 -0.0280  0.1343
 1471W        W44565  23.473   7.191  29.044 -0.1714 -0.2959 -0.2172
 1472W        W44566  24.045   3.515  29.784  0.1440  0.1772  0.1779
 1473W        W44567  22.279   7.056  26.620  0.4704 -0.2907  0.1379
 1474W        W44568  22.633   5.376  30.113 -0.0330 -0.2459  0.0343
 1475W        W44569  22.294   8.276  26.562 -0.0208 -0.2996  0.1747
 1476W        W44570  25.115   3.651  30.637 -0.3192 -0.1876  0.4705
 1477W        W44571  23.479   4.570  29.385  0.0704 -0.0617 -0.1755
 1478W        W44572  24.286   3.495  31.093 -0.0217 -0.1076 -0.0903
 1479W        W44573  24.988   4.683  30.657 -0.0006 -0.0629  0.0610
 1480W        W44574  25.275   4.927  28.620 -0.1378  0.0283 -0.1638
 1481W        W44575  24.388   5.203  28.644  0.2818 -0.0566 -0.0746
 1482W        W44576  22.840   6.948  26.920  0.2104  0.1073 -0.3582
 1483W        W44577  24.698   5.030  30.837  0.2016  0.1684 -0.0044
 1484W        W44578  23.122   5.130  29.827 -0.0353  0.3808  0.1345
 1485W        W44579  22.012   8.543  29.070  0.1548  0.4559 -0.2999
 1486W        W44580  24.084   6.625  31.037 -0.2961 -0.0614 -0.2249
 1487W        W44581  23.800   5.656  29.415 -0.0244  0.1477  0.3461
 1488W        W44582  25.383   3.229   0.376 -0.0004  0.1521 -0.1058
 1489W        W44583  24.892   4.313  27.885  0.1893 -0.0021  0.0258
 1490W        W44584  22.365   7.613  29.023 -0.0915 -0.2100 -0.1774
 1491W        W44585  22.501   6.052  28.205 -0.2563  0.1139  0.0415
 1492W        W44586  23.084   3.342  28.900 -0.2048  0.0328 -0.3375
 1493W        W44587  23.704   6.852  30.896 -0.0590  0.1185  0.1176
 1494W        W44588  22.368   6.167  27.621  0.4042  0.1212  0.0271
 1495W        W44589  23.802   5.630  30.445  0.1751 -0.1117  0.1015
 1496W        W44590  22.669   7.592  29.463 -0.1893 -0.2679 -0.0544
 1497W        W44591  24.442   2.776  30.355  0.1450 -0.1387 -0.2430
 1498W        W44592  21.501   5.708  29.819  0.0232  0.0974 -0.0401
 1499W        W44593  22.451   5.612  28.501  0.2799 -0.0334  0.0876
 1500W        W44594  21.556   5.907  27.990  0.0801 -0.1185  0.2436
 1501W        W44595  24.621   6.195  28.782 -0.1235  0.0157 -0.0406
 1502W        W44596  25.871   6.686  28.055 -0.1519 -0.1286 -0.3158
 1503W        W44597  21.498   3.737  28.784  0.3688 -0.0239 -0.2214
 1504W        W44598  23.081   4.684  29.646  0.0594 -0.1109 -0.0209
 1505W        W44599  20.932   5.882  30.728  0.0154  0.3612  0.0054
 1506W        W44600  23.299   5.112  28.794 -0.0691 -0.2738 -0.0436
 1507W        W44601  24.061   4.783  27.303  0.2356  0.2161 -0.1251
 1508W        W44602  25.088   5.745  29.018 -0.0427 -0.3306 -0.4605
 1509W        W44603  22.325   6.194  31.958  0.1112  0.0793 -0.3317
 1510W        W44604  21.797   6.159  27.488  0.2354 -0.1077 -0.0603
 1511W        W44605  25.677   4.292  30.582 -0.2487  0.3544 -0.3268
 1512W        W44606  23.951   4.635  29.570 -0.1723 -0.0089 -0.0950
 1513W        W44607  22.170   7.192  28.754  0.2302  0.0088  0.0295
 1514W        W44608  23.448   8.277  31.517 -0.3206  0.2394  0.2934
 1515W        W44609  20.717   5.498  28.100  0.0079 -0.0150 -0.2298
 1516W        W44610  23.982   5.258  29.516 -0.1421  0.5219  0.0282
 1517W        W44611  22.752   5.365  30.577  0.0804  0.1257 -0.1546
 1518W        W44612  24.857   5.961  30.947  0.1308 -0.0951 -0.1253
 1519W        W44613  23.103   3.312  29.424  0.0826  0.3743 -0.2069
 1520W        W44614  23.362   4.116  28.019  0.0544  0.3696  0.0264
 1521W        W44615  22.563   5.864  30.068 -0.1334  0.5832 -0.0062
 1522W        W44616  24.621   5.748  30.111  0.2172 -0.1373 -0.0624
 1523W        W44617  23.631   4.429  31.263 -0.0667 -0.0518  0.1564
 1524W        W44618  23.538   6.844  31.673  0.0601 -0.1461 -0.2305
 1525W        W44619  22.944   2.337  30.315  0.1020 -0.0408 -0.2054
 1526W        W44620  26.248   6.255  28.920  0.4413  0.3336 -0.0759
 1527W        W44621  24.023   6.059  31.252  0.3788  0.1312 -0.0020
 1528W        W44622  22.674   7.147  29.699 -0.2182  0.0904  0.1673
 1529W        W44623  20.522   6.605  29.908  0.0831  0.0898 -0.0086
 1530W        W44624  23.852   6.083  29.779 -0.0072 -0.4715  0.0891
 1531W        W44625  22.676   4.982  29.728  0.0527 -0.0144 -0.0338
 1532W        W44626  22.096   7.607  30.358  0.2330  0.2072 -0.1577
 1533W        W44627  22.046   7.014  28.234  0.1026 -0.0711  0.0717
 1534W        W44628  20.992   6.855  29.863  0.0191  0.0867  0.1952
 1535W        W44629  25.613   2.877  28.979 -0.2784  0.1378 -0.3857
 1536W        W44630  23.704   6.294  26.978 -0.2294 -0.1017 -0.1831
 1537W        W44631  24.606   4.322  28.930 -0.0273  0.0452 -0.0699
 1538W        W44632  24.720   2.256  30.636  0.1995 -0.1470  0.1569
 1539W        W44633  24.194   5.442  27.842  0.5539  0.1295  0.0341
 1540W        W44634  23.931   4.900  30.615 -0.0218  0.3235  0.0609
 1541W        W44635  21.828   4.034  29.687  0.1756 -0.1228  0.3470
 1542W        W44636  26.060   6.073  28.295 -0.3962 -0.0093 -0.1722
 1543W        W44637  22.559   4.482  29.767 -0.0702 -0.0447 -0.1333
 1544W        W44638  25.016   6.920  31.355 -0.0249  0.1199 -0.0442
 1545W        W44639  21.108   5.030  30.369 -0.2130 -0.1665 -0.0951
 1546W        W44640  24.345   4.250  28.328  0.0839  0.0275  0.1527
 1547W        W44641  23.256   5.138  29.306  0.0462  0.2622  0.0659
 1548W        W44642  23.329   5.903  29.572  0.0157 -0.0805 -0.2359
 1549W        W44643  24.323   5.431  29.182  0.1390  0.0899  0.2248
 1550W        W44644  23.085   7.326  26.663  0.0623 -0.2638  0.2413
 1551W        W44645  26.613   4.908  28.657  0.0894 -0.2306  0.5686
 1552W        W44646  23.454   6.076  29.114 -0.0048  0.0529 -0.4405
 1553W        W44647  25.060   5.532  29.968 -0.0682  0.1794  0.1586
 1554W        W44648  23.601   6.281  27.481 -0.2452  0.0263  0.0389
 1555W        W44649  22.019   5.848  28.853 -0.4788 -0.0466  0.1345
 1556W        W44650  23.880   3.729  30.939 -0.4263  0.0618 -0.1229
 1557W        W44651  24.954   5.295  28.509  0.0307  0.1184 -0.1181
 1558W        W44652  24.837   4.642  30.204 -0.1556  0.1193  0.1483
 1559W        W44653  23.409   6.661  30.555  0.0258 -0.1285 -0.0349
 1560W        W44654  25.266   3.624  29.708 -0.2325  0.0325 -0.0414
 1561W        W44655  24.238   5.458   0.022 -0.3040 -0.1690 -0.1656
 1562W        W44656  22.587   6.319   0.410  0.1637  0.1955 -0.2865
 1563W        W44657  24.121   7.662  29.286 -0.0707 -0.0509  0.1270
 1564W        W44658  25.710   4.506  26.821  0.0772  0.4795 -0.1543
 1565W        W44659  25.038   3.501  30.127  0.0332 -0.0531  0.3111
 1566W        W44660  24.404   6.626  28.981  0.0009  0.1492 -0.2404
 1567W        W44661  23.209   5.185  27.044 -0.1566 -0.1834 -0.2333
 1568W        W44662  23.439   5.594  29.099  0.1233 -0.1229 -0.0641
 1569W        W44663  25.995   5.885  31.894  0.0581  0.0035  0.1898
 1570W        W44664  22.035   4.387  27.133  0.2117  0.1672  0.0467
 1571W        W44665  25.322   4.748  31.302 -0.3363 -0.0335  0.2816
 1572W        W44666  23.779   6.691  26.707 -0.0245  0.0104 -0.2506
 1573W        W44667  23.605   6.304  30.212 -0.3866  0.1372  0.0496
 1574W        W44668  23.392   5.391  28.306  0.3443 -0.0136  0.0107
 1575W        W44669  21.946   5.730  28.273 -0.2878 -0.0783 -0.0015
 1576W        W44670  23.057   7.084  30.639  0.1816  0.0856 -0.0322
 1577W        W44671  21.289   6.001  28.397 -0.1994  0.2874 -0.1400
 1578W        W44672  22.276   6.309  28.651  0.0409 -0.1396 -0.2028
 1579W        W44673  25.495   5.309  29.822 -0.1651 -0.1386 -0.1745
 1580W        W44674  25.908   6.838  31.658  0.0606 -0.0810 -0.0410
 1581W        W44675  23.223   4.652  27.743  0.2187  0.2553  0.0147
 1582W        W44676  23.561   5.375  30.841  0.0739  0.2807 -0.2162
 1583W        W44677  22.231   5.003  28.793  0.0889  0.1770  0.0211
 1584W        W44678  24.369   3.413  28.712  0.0626  0.0554  0.0399
 1585W        W44679  22.841   8.367  30.807  0.1792 -0.1927  0.0388
 1586W        W44680  21.257   7.319  29.813 -0.0055  0.2292 -0.0268
 1587W        W44681  24.003   6.760  29.325 -0.0780 -0.1114 -0.0073
 1588W        W44682  23.526   3.210  29.183 -0.2632  0.1496  0.1582
 1589W        W44683  24.645   3.119  30.092  0.0227 -0.1482  0.1436
 1590W        W44684  23.737   5.234  30.205 -0.0372  0.1205  0.3145
 1591W        W44685  24.314   4.005  30.886  0.1851 -0.2122 -0.0081
 1592W        W44686  24.840   6.080  30.485  0.0333 -0.2115  0.2072
 1593W        W44687  23.463   6.638  29.080  0.1136 -0.3269 -0.1173
 1594W        W44688  22.789   6.566  30.104 -0.3389  0.3039 -0.0072
 1595W        W44689  26.409   5.332  28.862  0.0678  0.1185  0.2675
 1596W        W44690  22.479   7.113  30.916  0.1651  0.0004 -0.0063
 1597W        W44691  23.135   5.115  31.922 -0.0859 -0.2304  0.1703
 1598W        W44692  24.604   5.488  31.688  0.0657  0.2630  0.3545
 1599W        W44693  23.385   4.288  28.655 -0.0789  0.2028  0.2083
 1600W        W44694  23.806   4.589  28.095  0.1053  0.0225  0.1113
 1601W        W44695  22.961   7.134  28.281  0.0918 -0.2332 -0.4429
 1602W        W44696  22.102   6.758  31.106  0.0011 -0.1148 -0.1427
 1603W        W44697  21.442   6.817  31.101 -0.1185 -0.4261 -0.2392
 1604W        W44698  22.458   7.142  29.231  0.0665 -0.2048 -0.2414
 1605W        W44699  25.309   5.537  29.409 -0.1348  0.0835 -0.3076
 1606W        W44700  23.257   5.255  27.738  0.0606 -0.2476  0.3941
 1607W        W44701  23.946   7.051  29.992 -0.1766 -0.4610 -0.1577
 1608W        W44702  23.002   5.904  29.092  0.1921 -0.1939 -0.1848
 1609W        W44703  21.692   8.084  28.927 -0.2261 -0.2517 -0.1382
 1610W        W44704  21.772   6.094  28.513 -0.1242 -0.2234 -0.0533
 1611W        W44705  23.215   5.763  27.859  0.0739  0.1646 -0.0987
 1612W        W44706  21.704   6.938  29.164  0.1403 -0.3541  0.0456
 1613W        W44707  24.349   5.929  29.697  0.0258  0.0983 -0.1702
 1614W        W44708  25.040   3.750  27.797 -0.3192 -0.0009 -0.1688
 1615W        W44709  25.538   4.339  29.622 -0.1189 -0.1324  0.3055
 1616W        W44710  25.000   5.544  28.041 -0.0269  0.2314  0.0972
 1617W        W44711  25.172   6.905  30.455  0.2168 -0.1169 -0.1221
 1618W        W44712  24.028   5.609  29.900 -0.2724  0.1852 -0.1334
 1619W        W44713  24.827   3.720  28.501 -0.1608 -0.0981 -0.2268
 1620W        W44714  22.139   5.615  30.171 -0.0359 -0.1256 -0.0529
 1621W        W44715  27.222   3.257  29.276 -0.0201  0.0085  0.0688
 1622W        W44716  21.686   7.000  31.517  0.2315 -0.2700  0.4893
 1623W        W44717  24.402   6.048  27.922  0.1492  0.2105 -0.1947
 1624W        W44718  21.657   4.320  27.550  0.2100  0.0258  0.0838
 1625W        W44719  22.258   4.251  29.431  0.1142 -0.0202 -0.3391
 1626W        W44720  25.064   4.094  29.469 -0.0962  0.0118 -0.3533
 1627W        W44721  22.803   6.333  27.112 -0.4064  0.4158 -0.0573
 1628W        W44722  25.162   4.589  29.761  0.0584 -0.1876  0.1777
 1629W        W44723  22.767   7.951  29.062 -0.0419  0.1887  0.2824
 1630W        W44724  22.760   7.351  28.746  0.0520 -0.0105  0.0475
 1631W        W44725  23.490   6.248  28.656  0.3979  0.2120 -0.2767
 1632W        W44726  21.641   4.933  29.591  0.0340 -0.0662 -0.1787
 1633W        W44727  24.398   4.962  29.497 -0.1297 -0.1518  0.0159
 1634W        W44728  22.932   5.788  30.390  0.0110 -0.0568  0.0229
 1635W        W44729  24.801   2.574  28.348  0.0807 -0.1191 -0.1104
 1636W        W44730  23.895   4.472  29.017  0.2713  0.2021 -0.1034
 1637W        W44731  25.131   3.571  29.264  0.0626 -0.2773 -0.0631
 1638W        W44732  23.667   4.009  28.960 -0.2298 -0.0475 -0.1972
 1639W        W44733  21.256   4.066  30.389  0.2058 -0.1283 -0.1562
 1640W        W44734  23.528   4.883  27.430 -0.0063 -0.3086 -0.2284
 1641W        W44735  25.645   5.351  30.801 -0.0897 -0.2517  0.1731
 1642W        W44736  24.177   4.714  28.498  0.0204 -0.0166  0.0500
 1643W        W44737  24.542   5.996  31.636 -0.0173 -0.1015  0.1017
 1644W        W44738  22.514   5.062  28.326  0.0820  0.0731  0.2310
 1645W        W44739  24.650   4.013  27.538  0.2436  0.2268 -0.2280
 1646W        W44740  21.957   6.675  28.599 -0.3553  0.0280 -0.1928
 1647W        W44741  24.125   5.070  29.952  0.0792  0.0148  0.1898
 1648W        W44742  23.885   7.365  30.915  0.1981 -0.0692  0.2650
 1649W        W44743  21.889   4.451  29.133 -0.0874  0.6616  0.3818
 1650W        W44744  25.901   6.670  27.191  0.1880 -0.1101 -0.2010
 1651W        W44745  25.555   4.123  29.097  0.1352  0.0010 -0.2574
 1652W        W44746  21.866   6.771  26.916 -0.2262 -0.1211 -0.0807
 1653W        W44747  25.878   5.418  29.541  0.0991  0.1434  0.0480
 1654W        W44748  24.913   6.451  29.165  0.1241  0.1354 -0.1394
 1655W        W44749  22.810   4.536  29.257 -0.0500  0.0042 -0.0720
 1656W        W44750  25.564   7.285  29.152 -0.1273  0.1683  0.2186
 1657W        W44751  25.398   6.417  28.956  0.1495 -0.1327 -0.0313
 1658W        W44752  23.364   4.710  26.961  0.0995  0.3111 -0.3011
 1659W        W44753  23.114   6.859  29.685 -0.2061  0.1123  0.0226
 1660W        W44754  22.372   7.538  26.687  0.2531 -0.0764  0.3734
 1661W        W44755  26.516   3.461  29.892  0.7026  0.1180 -0.0031
 1662W        W44756  23.589   4.254  30.424  0.0610 -0.1560 -0.0291
 1663W        W44757  22.486   6.409  26.145  0.2861  0.0904 -0.0292
 1664W        W44758  25.158   3.168  31.029  0.0169 -0.0907  0.6367
 1665W        W44759  21.624   8.840  31.594  0.0736  0.0784  0.0336
 1666W        W44760  21.809   7.644  30.903  0.0242 -0.2748  0.0856
 1667W        W44761  23.241   5.725  28.681 -0.0987  0.0463 -0.1373
 1668W        W44762  23.052   6.392  29.267  0.6509  0.1464  0.4514
 1669W        W44763  23.507   5.847  28.260 -0.2474 -0.1444  0.2749
 1670W        W44764  22.813   6.589  28.235 -0.3430 -0.1103 -0.0443
 1671W        W44765  23.896   6.717  30.409 -0.0103  0.0465  0.0795
 1672W        W44766  23.545   5.839  30.096 -0.0324 -0.0282 -0.4058
 1673W        W44767  27.171   5.227  29.333 -0.2641 -0.0123  0.0705
 1674W        W44768  23.284   3.719  29.126 -0.0291  0.0336 -0.2399
 1675W        W44769  26.049   5.694  30.072  0.0007  0.0310 -0.0722
 1676W        W44770  26.292   3.967  27.998  0.0938 -0.0939 -0.0593
 1677W        W44771  22.598   5.445  31.036 -0.1115  0.0732  0.0898
 1678W        W44772  21.074   5.370  27.296  0.2385 -0.2829 -0.2097
 1679W        W44773  21.806   6.277  28.997 -0.0295 -0.1854  0.3549
 1680W        W44774  22.190   7.258  29.815 -0.3444 -0.0823 -0.0143
 1681W        W44775  24.707   4.064  31.454  0.0796 -0.1864 -0.2660
 1682W        W44776  21.492   4.993  28.291 -0.4220 -0.3545  0.0127
 1683W        W44777  21.046   5.655  29.593 -0.1105  0.0575  0.0041
 1684W        W44778  23.204   4.692  29.034 -0.1392 -0.1642  0.1812
 1685W        W44779  23.822   6.057  27.981  0.0545  0.3263 -0.1127
 1686W        W44780  22.778   3.652  29.204  0.0962 -0.0603 -0.1835
 1687W        W44781  21.723   5.293  27.963 -0.2239 -0.0888  0.1718
 1688W        W44782  25.373   5.555  28.598  0.0064  0.1123  0.1571
 1689W        W44783  23.962   5.142  28.308 -0.2711  0.1346  0.3665
 1690W        W44784  22.902   3.865  28.761  0.5432 -0.0083  0.2523
 1691W        W44785  26.204   5.506  30.576  0.2762 -0.2558 -0.1390
 1692W        W44786  21.090   5.960  27.278  0.0844 -0.0292  0.0141
 1693W        W44787  23.684   3.127  31.900  0.3327  0.2486  0.2665
 1694W        W44788  24.397   3.271  31.592 -0.1778  0.3035 -0.2474
 1695W        W44789  22.106   3.810  27.142  0.0979 -0.0229  0.3428
 1696W        W44790  22.025   4.104  30.810 -0.2717 -0.1395 -0.0538
 1697W        W44791  24.480   7.389  30.053  0.0868 -0.0882  0.0803
 1698W        W44792  23.918   6.497  28.308 -0.3323 -0.0276  0.3685
 1699W        W44793  23.219   4.223  29.769  0.0675 -0.2360 -0.1936
 1700W        W44794  23.549   5.384  29.797  0.0330 -0.1951 -0.0935
 1701W        W44795  22.349   3.602  30.199 -0.0503  0.2048  0.0884
 1702W        W44796  24.585   5.247  30.127  0.2211  0.1070  0.0666
 1703W        W44797  24.158   6.020  30.147  0.0712 -0.0065  0.2031
 1704W        W44798  24.842   6.611  27.795 -0.3053  0.0056  0.4281
 1705W        W44799  24.871   3.311  27.936  0.2259  0.2638  0.0605
 1706W        W44800  23.316   6.635  28.341  0.2351  0.1594  0.0979
 1707W        W44801  22.340   4.752  29.298  0.2609 -0.1209  0.1609
 1708W        W44802  23.459   7.230  31.154 -0.1322 -0.1324 -0.0243
 1709W        W44803  24.031   4.493  30.281  0.0086  0.0953 -0.0530
 1710W        W44804  21.942   4.863  27.258 -0.0896  0.1477 -0.3914
 1711W        W44805  24.588   3.419  29.216 -0.3587  0.2254  0.4735
 1712W        W44806  25.649   6.353  28.400 -0.0330 -0.4124 -0.0137
 1713W        W44807  22.357   4.854  31.273 -0.0191  0.1234  0.2292
 1714W        W44808  23.790   2.809  27.557  0.1018  0.0986 -0.2368
 1715W        W44809  23.230   5.028  30.702 -0.2812  0.1048 -0.2135
 1716W        W44810  22.928   4.995  30.326  0.1476  0.1590  0.1078
 1717W        W44811  24.316   6.432  30.461 -0.1961 -0.0669 -0.0068
 1718W        W44812  22.988   4.820  27.340 -0.0851  0.0190  0.1415
 1719W        W44813  25.328   4.693  27.679 -0.3022 -0.0214  0.0222
 1720W        W44814  24.421   6.240  31.061 -0.1698  0.1641  0.1561
 1721W        W44815  25.681   8.533  31.441 -0.1500 -0.0548  0.1014
 1722W        W44816  22.904   7.152  31.176 -0.0999 -0.2925  0.1853
 1723W        W44817  26.083   4.872  29.594  0.1935 -0.4255 -0.0358
 1724W        W44818  22.393   4.442  28.892  0.4642 -0.0628 -0.2611
 1725W        W44819  23.755   5.826  28.791  0.2395  0.0728 -0.1048
 1726W        W44820  23.967   7.157  29.023 -0.1843 -0.2094  0.0306
 1727W        W44821  23.769   3.913  29.989 -0.0555 -0.0814  0.3701
 1728W        W44822  22.347   4.133  27.960  0.1175 -0.2381 -0.0456
 1729W        W44823  23.562   3.680  27.866  0.1407  0.0774 -0.0093
 1730W        W44824  22.376   7.239   0.035  0.1140  0.1884 -0.1075
 1731W        W44825  23.641   4.944  31.111  0.0562  0.0889 -0.0907
 1732W        W44826  23.804   2.695  29.707 -0.0952 -0.0397 -0.1350
 1733W        W44827  24.218   5.348  30.462  0.1180  0.2465 -0.3269
 1734W        W44828  22.589   4.874  30.768 -0.3602 -0.1205 -0.1580
 1735W        W44829  23.283   6.173  31.202 -0.4067 -0.1308  0.0902
 1736W        W44830  24.007   7.881  31.713 -0.1986  0.2475  0.1802
 1737W        W44831  22.208   9.426  29.777  0.3390 -0.0301  0.0586
 1738W        W44832  25.858   4.931  31.330 -0.2319 -0.0051 -0.2280
 1739W        W44833  22.903   6.139  29.828 -0.1303  0.2093 -0.1773
 1740W        W44834  22.985   4.516  30.138 -0.1576 -0.0040 -0.3235
 1741W        W44835  25.488   7.047  31.380 -0.2489  0.1621  0.0582
 1742W        W44836  24.308   6.395  31.514 -0.0271 -0.0068 -0.1655
 1743W        W44837  22.997   3.289  31.395  0.1764  0.0742 -0.4722
 1744W        W44838  23.810   5.590  31.944  0.0953 -0.0391  0.0802
 1745W        W44839  23.047   5.640  29.917  0.0023 -0.0590 -0.0445
 1746W        W44840  25.726   4.946   0.314 -0.0734 -0.1500 -0.0378
 1747W        W44841  20.168   8.266  31.700  0.1118 -0.3556  0.0107
 1748W        W44842  22.944   8.325  31.355  0.2373 -0.0017  0.3021
 1749W        W44843  24.349   5.893   0.841  0.1009 -0.0947  0.0520
 1750W        W44844  22.434   3.828  30.642 -0.0663  0.0697  0.2291
 1751W        W44845  23.051   5.913  31.798  0.1827  0.3075  0.1631
 1752W        W44846  24.165   5.438   1.018  0.3691  0.0324  0.1838
 1753W        W44847  24.453   7.417   1.240  0.2565  0.1696 -0.0689
 1754W        W44848  26.065   3.554  31.294 -0.1276 -0.0055 -0.2709
 1755W        W44849  26.630   3.536  30.850 -0.2652 -0.0154 -0.0973
 1756W        W44850  23.840   4.291  31.745  0.2357 -0.0579 -0.1326
 1757W        W44851  23.844   5.106  31.922 -0.1827 -0.2901  0.0771
 1758W        W44852  22.567   7.462  31.285 -0.0502 -0.1421 -0.2619
 1759W        W44853  22.726   8.111   1.607  0.0204 -0.2720  0.1222
 1760W        W44854  22.394   4.442  30.900  0.2111  0.0264 -0.3999
 1761W        W44855  23.350   6.053  30.662 -0.0275 -0.0815 -0.0502
 1762W        W44856  24.134   6.781  31.826  0.2071  0.0589 -0.2039
 1763W        W44857  23.290   5.200  31.366 -0.0561  0.2829 -0.0095
 1764W        W44858  24.897   6.333  31.326  0.2295  0.0135  0.0782
 1765W        W44859  24.487   4.541  30.909 -0.0946 -0.2296 -0.3126
 1766W        W44860  21.372   5.735  31.836 -0.1608  0.0237  0.1759
 1767W        W44861  23.024   6.455  30.855 -0.0582  0.2529 -0.0574
 1768W        W44862  25.189   5.983   0.392  0.0954  0.2412 -0.1790
 1769W        W44863  25.218   5.634  30.873 -0.2227  0.0981  0.0829
 1770W        W44864  24.932   3.015  31.545  0.1066 -0.0161  0.1057
 1771W        W44865  23.394   4.823  30.232  0.2479  0.2588  0.0073
 1772W        W44866  25.780   1.874  31.647  0.3220 -0.1023 -0.0512
 1773W        W44867  24.685   5.537  30.739 -0.0280  0.0890 -0.1429
 1774W        W44868  22.518   3.700   0.090 -0.0654  0.2393 -0.2563
 1775W        W44869  24.481   6.904  31.514 -0.1453  0.3892 -0.2689
 1776W        W44870  21.921   5.036  30.209  0.1753 -0.0340 -0.2299
 1777W        W44871  22.267   5.246  30.559  0.2903 -0.0099  0.0858
 1778W        W44872  24.056   3.485  30.300 -0.3203 -0.1116 -0.0349
 1779W        W44873  23.610   8.390   0.647 -0.1451 -0.0603 -0.1682
 1780W        W44874  25.692   6.094   0.334 -0.0019  0.1010  0.0119
 1781W        W44875  23.517   6.034   0.128  0.0062 -0.1266  0.2427
 1782W        W44876  24.997   6.569   0.791  0.0588 -0.4041 -0.2050
 1783W        W44877  24.875   4.249  30.856 -0.2997  0.3496 -0.2503
 1784W        W44878  23.922   3.573  31.927  0.0988 -0.2277 -0.1581
 1785W        W44879  22.817   7.255  31.788 -0.2306  0.1201  0.0543
 1786W        W44880  23.272   6.877   0.121  0.0276 -0.0118  0.3197
 1787W        W44881  24.145   5.680  31.566  0.0145 -0.2167 -0.1011
 1788W        W44882  23.641   6.380  30.960 -0.1051  0.3833  0.1940
 1789W        W44883  23.807   7.486  31.430 -0.2068 -0.0385 -0.1352
 1790W        W44884  23.645   8.804  31.359 -0.1981  0.3160 -0.4575
 1791W        W44885  24.055   5.191  31.460  0.0713 -0.0078 -0.3200
 1792W        W44886  22.349   6.732  31.861 -0.1022 -0.1948  0.2003
 1793W        W44887  23.765   6.456  31.455  0.1060  0.0407 -0.1236
 1794W        W44888  22.440   7.048  31.491 -0.1396  0.2922 -0.0058
 1795W        W44889  22.936   4.848  31.191  0.1578 -0.2620  0.1831
 1796W        W44890  23.308   6.341  31.670  0.1282 -0.1698 -0.1051
 1797W        W44891  25.927   6.366   1.162  0.2802 -0.1322  0.1065
 1798W        W44892  26.592   5.238   0.019  0.0639 -0.0275  0.0193
 1799W        W44893  22.876   8.330  20.586 -0.0410 -0.0880 -0.0027
 1800W        W44894  21.606   8.701  18.878 -0.1457  0.2314 -0.0358
 1801W        W44895  24.233   6.878  16.232 -0.0773  0.1455 -0.5135
 1802W        W44896  24.660   9.529  17.645  0.0003 -0.1449  0.1212
 1803W        W44897  22.962   6.681  18.244  0.1455  0.0076 -0.0576
 1804W        W44898  24.654   9.581  16.722 -0.2386 -0.1901  0.0267
 1805W        W44899  22.056   6.351  19.220  0.0563  0.0362 -0.0318
 1806W        W44900  24.405   9.835  19.405 -0.1169  0.3029 -0.3952
 1807W        W44901  25.133  11.209  19.487  0.0037  0.0643  0.1340
 1808W        W44902  23.894   9.661  16.048 -0.1113  0.0154 -0.0031
 1809W        W44903  24.514   7.692  19.270  0.0253  0.3619  0.0918
 1810W        W44904  23.250   8.960  19.558  0.0551 -0.0058  0.0534
 1811W        W44905  23.274   6.740  17.853 -0.1700 -0.0713 -0.0778
 1812W        W44906  21.581   6.839  18.703 -0.0253 -0.1063 -0.1052
 1813W        W44907  25.893   9.356  18.713 -0.3116 -0.1589 -0.0862
 1814W        W44908  22.298   8.090  17.713  0.2021  0.1328  0.1141
 1815W        W44909  24.281   7.375  18.880 -0.2400 -0.1324  0.0775
 1816W        W44910  23.172   7.547  19.714  0.3649 -0.0373  0.3035
 1817W        W44911  24.319  10.214  18.626  0.4537  0.2212 -0.1640
 1818W        W44912  23.737   5.821  18.838 -0.2228  0.1797  0.0858
 1819W        W44913  23.917   6.071  19.192  0.1879  0.0063 -0.0353
 1820W        W44914  23.042   9.256  17.694 -0.0830 -0.2342 -0.1500
 1821W        W44915  22.532   8.392  16.057  0.1398  0.0292  0.1050
 1822W        W44916  21.846   7.797  19.641  0.0419  0.1051 -0.3070
 1823W        W44917  23.519   6.664  20.566 -0.2566  0.1856  0.1303
 1824W        W44918  23.357   8.305  17.971 -0.1361 -0.1365  0.0482
 1825W        W44919  24.604   9.485  18.143  0.1839  0.3727 -0.1157
 1826W        W44920  22.151  10.172  16.872  0.3313 -0.0904  0.1778
 1827W        W44921  24.175  10.706  18.491 -0.0531  0.2348  0.1656
 1828W        W44922  26.000   7.592  20.024  0.0839  0.1606  0.1043
 1829W        W44923  23.552   8.718  18.332 -0.1895 -0.1166  0.3083
 1830W        W44924  21.780  11.202  18.404  0.0882 -0.1068  0.3037
 1831W        W44925  22.966   9.298  17.184  0.2133  0.3585 -0.1769
 1832W        W44926  27.364   9.340  17.351  0.1682  0.0442  0.0998
 1833W        W44927  23.878   9.605  19.929 -0.1220  0.0334  0.2287
 1834W        W44928  23.950  11.481  18.611 -0.0613  0.2334  0.1687
 1835W        W44929  21.630   9.713  16.797  0.1264  0.2188  0.0073
 1836W        W44930  23.405  11.102  20.214 -0.0222  0.0542  0.0253
 1837W        W44931  23.318  11.611  20.140 -0.0585  0.0962  0.1083
 1838W        W44932  22.820   8.709  19.429  0.1412  0.1691  0.0361
 1839W        W44933  24.554   8.142  17.968  0.2958 -0.1267  0.2522
 1840W        W44934  23.396  11.309  15.780  0.2085  0.0012  0.2550
 1841W        W44935  24.030   9.087  17.207 -0.2662 -0.1696 -0.4527
 1842W        W44936  21.543   8.733  19.934  0.1404  0.3633 -0.0692
 1843W        W44937  22.529   8.782  19.913 -0.1425 -0.3004  0.2876
 1844W        W44938  25.238   7.185  19.810  0.2944  0.0987 -0.0796
 1845W        W44939  22.869   9.912  16.458 -0.2175  0.1178 -0.5081
 1846W        W44940  24.762   9.437  16.202 -0.0744  0.1277 -0.0120
 1847W        W44941  23.017   8.582  15.791 -0.2077  0.0162 -0.0857
 1848W        W44942  23.765   9.259  16.518 -0.0262  0.1742  0.2258
 1849W        W44943  23.474   6.467  18.215 -0.1079 -0.0629  0.2645
 1850W        W44944  23.268  10.552  17.709 -0.0031 -0.0977  0.1817
 1851W        W44945  24.503   7.078  19.521 -0.1937 -0.2231  0.2550
 1852W        W44946  24.715  10.384  18.890  0.1772 -0.0320 -0.2872
 1853W        W44947  21.902  10.217  17.496  0.1893  0.0549 -0.0732
 1854W        W44948  24.663   8.995  18.987 -0.2398  0.2268  0.0178
 1855W        W44949  23.199   9.828  16.811 -0.0311 -0.1576  0.0237
 1856W        W44950  21.893   7.113  17.589  0.3349 -0.1727 -0.0042
 1857W        W44951  25.025  10.490  16.426 -0.0549 -0.0149 -0.0135
 1858W        W44952  26.397  10.731  17.831 -0.3393 -0.1539 -0.1404
 1859W        W44953  23.777  11.078  16.018  0.3679 -0.0386 -0.2634
 1860W        W44954  22.010   8.384  17.424  0.0369  0.0871  0.1505
 1861W        W44955  22.085   9.331  19.339 -0.0276 -0.1423  0.0801
 1862W        W44956  22.419   8.346  20.338  0.1630  0.0269  0.2364
 1863W        W44957  23.910   7.893  17.034 -0.0122  0.2527 -0.1973
 1864W        W44958  24.803   8.748  19.991 -0.2306  0.3288  0.2426
 1865W        W44959  23.010  10.010  18.909  0.0888  0.1594 -0.2598
 1866W        W44960  25.423   9.126  18.024 -0.1749  0.3624 -0.1181
 1867W        W44961  23.587   8.471  19.446  0.0486 -0.0073  0.1786
 1868W        W44962  23.779   9.683  19.392  0.0662 -0.4511 -0.0736
 1869W        W44963  23.671  10.047  16.797  0.0502 -0.0643 -0.2785
 1870W        W44964  23.632   7.883  17.966 -0.4704  0.2080 -0.2106
 1871W        W44965  23.522   5.806  19.386  0.2873 -0.0610 -0.0695
 1872W        W44966  22.381   8.390  15.245  0.2427 -0.0262  0.1644
 1873W        W44967  21.746   9.072  16.871 -0.0130  0.0928  0.1629
 1874W        W44968  25.296   9.773  19.291 -0.0537  0.1806 -0.2407
 1875W        W44969  24.410   9.800  16.274  0.1101 -0.1388  0.0010
 1876W        W44970  21.570   9.786  18.804 -0.2740  0.2930 -0.2735
 1877W        W44971  24.372   8.227  19.198  0.0982  0.1209 -0.0683
 1878W        W44972  23.279  10.259  19.614  0.1155  0.1660 -0.1928
 1879W        W44973  23.193  10.963  15.476  0.1343 -0.0656  0.0743
 1880W        W44974  21.221   9.060  17.102 -0.3145  0.0539 -0.3175
 1881W        W44975  22.003   8.724  16.586 -0.1170  0.0233  0.2295
 1882W        W44976  22.304   6.796  19.506 -0.0131  0.2205  0.2549
 1883W        W44977  23.385   8.845  19.129 -0.2751  0.0634  0.1156
 1884W        W44978  25.060   7.991  17.837 -0.1510  0.1287  0.0792
 1885W        W44979  21.699   7.944  20.194 -0.2309  0.0368 -0.0323
 1886W        W44980  24.268   6.184  17.593 -0.0164 -0.3075  0.0267
 1887W        W44981  21.579   9.424  17.249 -0.2588 -0.2296 -0.1557
 1888W        W44982  25.010  10.976  16.716 -0.4585  0.1756 -0.2636
 1889W        W44983  25.444   9.267  16.950 -0.0335  0.1164  0.1333
 1890W        W44984  22.636   9.413  16.743  0.1400 -0.1473 -0.0956
 1891W        W44985  23.123   8.651  18.614  0.0721 -0.0129 -0.2318
 1892W        W44986  22.133   7.644  17.861 -0.0911  0.1904  0.3291
 1893W        W44987  23.551   6.385  21.077  0.1518 -0.0736  0.0267
 1894W        W44988  22.843   7.189  18.167 -0.1736 -0.1859 -0.0003
 1895W        W44989  24.588   7.754  18.215  0.2828  0.5575  0.0462
 1896W        W44990  20.844   8.125  17.274  0.2426 -0.1888 -0.0740
 1897W        W44991  24.331   9.089  17.631 -0.0907 -0.2525  0.1854
 1898W        W44992  22.199   8.505  17.986  0.1003 -0.0645 -0.0799
 1899W        W44993  23.902   8.806  17.618 -0.1858 -0.2056 -0.2787
 1900W        W44994  26.651   7.562  19.666 -0.1597 -0.0321  0.0023
 1901W        W44995  23.707   9.186  18.432  0.2372  0.1997  0.3203
 1902W        W44996  25.964  11.077  17.798 -0.1482 -0.1520  0.0047
 1903W        W44997  25.045  11.476  18.405  0.2127  0.2777  0.0138
 1904W        W44998  22.640   7.309  19.449 -0.0822 -0.1026  0.0129
 1905W        W44999  21.699   8.540  16.920 -0.0173  0.2780  0.2646
 1906W        W45000  22.907  10.941  19.448 -0.2246  0.0760  0.3523
 1907W        W45001  23.870   8.359  17.935 -0.2386 -0.1475  0.1816
 1908W        W45002  23.586   5.991  18.044  0.0498 -0.0559 -0.0433
 1909W        W45003  25.031  10.851  19.032 -0.1299 -0.3019 -0.0139
 1910W        W45004  23.198   8.240  17.448  0.0197 -0.0570 -0.0508
 1911W        W45005  22.977   8.853  18.198  0.0585  0.0382 -0.0491
 1912W        W45006  24.913   5.948  20.287 -0.2739 -0.1190 -0.2503
 1913W        W45007  24.731   9.420  18.707  0.2658 -0.0882 -0.1839
 1914W        W45008  23.619   9.697  17.889  0.3520 -0.0478  0.1890
 1915W        W45009  23.284   7.547  16.712 -0.1101  0.1483  0.0215
 1916W        W45010  25.156  10.662  17.083 -0.1592  0.3354 -0.1251
 1917W        W45011  22.408   9.638  16.300 -0.1423  0.0122  0.0502
 1918W        W45012  22.729   8.207  17.439 -0.0742  0.1785  0.1457
 1919W        W45013  24.612  10.421  18.196 -0.1149  0.3313 -0.0270
 1920W        W45014  24.114   7.830  17.951 -0.0175  0.1851 -0.1922
 1921W        W45015  22.396   9.422  20.631  0.0236 -0.0192 -0.1522
 1922W        W45016  25.456   7.226  19.225 -0.4156 -0.1738 -0.2623
 1923W        W45017  21.615   8.458  16.416 -0.2880 -0.0675 -0.1850
 1924W        W45018  23.729   9.461  20.442 -0.0256  0.0920 -0.0269
 1925W        W45019  25.055   7.747  17.415 -0.0581 -0.3009  0.2727
 1926W        W45020  25.329   8.838  16.716 -0.1324 -0.0005  0.2994
 1927W        W45021  23.492   8.199  19.982 -0.2225  0.0240 -0.1669
 1928W        W45022  25.006  10.188  17.114  0.2346  0.0828  0.0208
 1929W        W45023  24.435   8.126  16.216 -0.2940 -0.2067  0.1204
 1930W        W45024  24.127   8.346  16.606  0.0275 -0.0064 -0.1937
 1931W        W45025  22.847   7.947  19.436 -0.1173  0.1336 -0.0135
 1932W        W45026  23.721   9.531  16.964  0.2864 -0.2480 -0.1122
 1933W        W45027  23.813   9.235  19.126 -0.2044 -0.1313  0.0358
 1934W        W45028  23.962   7.608  16.120 -0.0764  0.1484  0.1099
 1935W        W45029  24.702  10.604  16.806  0.0267  0.0123  0.0617
 1936W        W45030  22.322  10.269  18.782 -0.0615 -0.1539 -0.1013
 1937W        W45031  23.003  10.306  20.125  0.0766 -0.1050  0.2388
 1938W        W45032  23.723  10.174  17.657 -0.0143  0.0221 -0.1787
 1939W        W45033  23.866   6.517  19.460  0.1167  0.0862 -0.1595
 1940W        W45034  22.596   8.952  17.052 -0.0921 -0.1440 -0.0924
 1941W        W45035  24.482   8.352  17.019  0.2360 -0.1314  0.0488
 1942W        W45036  21.978  10.377  15.744 -0.0882 -0.0869  0.0356
 1943W        W45037  25.467   8.378  17.932 -0.0650 -0.1075  0.2494
 1944W        W45038  24.499   6.839  18.165  0.3361 -0.1538  0.2140
 1945W        W45039  23.405   6.429  18.705  0.1917 -0.2793 -0.0629
 1946W        W45040  24.548   8.889  18.005  0.6156 -0.1889 -0.0422
 1947W        W45041  24.571   9.966  17.393  0.2489  0.2133 -0.0552
 1948W        W45042  26.147   8.454  17.743  0.1129 -0.2681 -0.0227
 1949W        W45043  22.744   8.227  16.591 -0.1551  0.0774  0.0138
 1950W        W45044  23.286   7.297  18.310 -0.0347  0.1022 -0.0390
 1951W        W45045  22.278   8.290  18.767 -0.0756  0.2270  0.1853
 1952W        W45046  21.165  10.246  18.736 -0.0225 -0.1285 -0.0680
 1953W        W45047  24.824   9.630  19.506 -0.3378  0.1129 -0.0213
 1954W        W45048  24.424   9.389  17.213 -0.2086 -0.2317  0.3506
 1955W        W45049  24.021   6.333  17.993 -0.1543 -0.0406  0.0037
 1956W        W45050  24.987   8.173  17.059  0.3398 -0.2851  0.1412
 1957W        W45051  22.398  10.621  16.682 -0.1923  0.2390  0.0936
 1958W        W45052  21.663  10.054  16.042  0.2789 -0.2462 -0.0659
 1959W        W45053  22.950   8.786  17.401 -0.1196 -0.1596  0.0549
 1960W        W45054  22.822  10.349  18.590  0.0808 -0.2144  0.4993
 1961W        W45055  22.646   9.942  16.924 -0.1659 -0.0323 -0.2263
 1962W        W45056  24.235  10.325  19.604 -0.3302  0.0159 -0.2814
 1963W        W45057  20.900  10.171  16.137  0.0028  0.1015 -0.0773
 1964W        W45058  24.638   7.219  17.849 -0.0297  0.4125  0.1573
 1965W        W45059  21.493   9.130  19.085  0.0912  0.2728 -0.1662
 1966W        W45060  22.937   8.494  17.820  0.0912  0.2986 -0.0842
 1967W        W45061  23.020   7.940  17.938 -0.0079 -0.0058 -0.2168
 1968W        W45062  25.206   8.289  17.512  0.2585 -0.3196 -0.1997
 1969W        W45063  24.199   9.331  16.297  0.1685  0.0207  0.1400
 1970W        W45064  23.030   6.162  19.549  0.2051 -0.0175 -0.1043
 1971W        W45065  24.098   7.690  18.458 -0.0682  0.1816 -0.0701
 1972W        W45066  20.960   9.772  18.965  0.1014  0.1617 -0.1034
 1973W        W45067  23.478   8.469  20.420  0.0618  0.0827 -0.0887
 1974W        W45068  24.524   7.386  16.820  0.1744 -0.0247  0.1750
 1975W        W45069  25.346   8.588  18.728  0.2420  0.1965 -0.3016
 1976W        W45070  24.614   8.575  19.537  0.1085  0.4283 -0.1095
 1977W        W45071  21.562   7.480  16.614  0.0791  0.2375  0.3317
 1978W        W45072  27.106   9.355  20.065 -0.0168  0.1847 -0.0574
 1979W        W45073  22.326   9.485  18.500 -0.0120 -0.0057 -0.0276
 1980W        W45074  21.440   9.616  17.936  0.3595  0.2360  0.0849
 1981W        W45075  24.118   9.752  18.152 -0.1026 -0.0784  0.1045
 1982W        W45076  22.299   8.824  16.163 -0.5406  0.1415  0.0669
 1983W        W45077  22.138   9.205  17.221 -0.0777  0.2580 -0.0817
 1984W        W45078  23.530   6.698  19.797  0.2850 -0.0163 -0.1610
 1985W        W45079  24.451   9.437  19.129  0.2892 -0.1214  0.3132
 1986W        W45080  23.377   8.760  17.773 -0.3981  0.2869 -0.2781
 1987W        W45081  22.859   7.647  16.504 -0.0621  0.2749  0.0168
 1988W        W45082  23.002   7.501  19.202  0.1181 -0.3098  0.1780
 1989W        W45083  26.732   9.564  18.296 -0.1766  0.3040 -0.0205
 1990W        W45084  23.552   8.689  19.891 -0.1452 -0.0775 -0.1318
 1991W        W45085  21.574  10.131  19.938 -0.1650  0.1904 -0.0270
 1992W        W45086  24.218   8.122  17.389 -0.1474  0.3424 -0.0476
 1993W        W45087  25.385  10.256  16.749 -0.0933 -0.0602  0.1670
 1994W        W45088  23.119   7.089  20.702 -0.1594  0.4318 -0.0010
 1995W        W45089  22.948  10.794  16.693 -0.0543  0.3118  0.0903
 1996W        W45090  22.836   7.410  18.713 -0.0234  0.1576 -0.1803
 1997W        W45091  24.050   9.668  18.954  0.1337  0.0038  0.0412
 1998W        W45092  23.625   7.703  18.604 -0.1323 -0.1155  0.0376
 1999W        W45093  21.707   9.470  18.352  0.1783 -0.2983  0.1169
 2000W        W45094  21.184   9.648  17.074  0.0402 -0.1443  0.1763
 2001W        W45095  23.502   9.687  18.860 -0.0442 -0.0993  0.3168
 2002W        W45096  25.442   7.840  17.115  0.1424  0.2280  0.0801
 2003W        W45097  22.976   9.476  18.155  0.3058  0.0905  0.3340
 2004W        W45098  23.386   7.796  17.236  0.0550 -0.2161 -0.0700
 2005W        W45099  25.896   7.712  19.050 -0.1976  0.0972  0.1293
 2006W        W45100  24.405   9.481  15.860  0.1511 -0.2554 -0.2716
 2007W        W45101  24.968   8.267  19.850 -0.2490 -0.0973 -0.2518
 2008W        W45102  24.350   7.285  18.341  0.1332 -0.2682 -0.1023
 2009W        W45103  24.921   9.166  17.828 -0.3382 -0.1480 -0.2236
 2010W        W45104  23.143   8.321  19.646 -0.0212  0.1645  0.0450
 2011W        W45105  23.481  11.058  20.810 -0.1646 -0.0224  0.1357
 2012W        W45106  22.047  10.090  19.757 -0.1434  0.1778 -0.1329
 2013W        W45107  23.425   9.221  18.061  0.3590 -0.0587  0.0757
 2014W        W45108  23.358   8.065  16.742  0.1280  0.1373  0.1765
 2015W        W45109  23.648   7.611  19.141 -0.1916  0.0127 -0.4604
 2016W        W45110  25.165  10.080  18.905  0.0444 -0.0204  0.4169
 2017W        W45111  23.325   8.582  16.806  0.3361  0.2246  0.0607
 2018W        W45112  25.752   8.507  17.476 -0.0910  0.5143  0.0950
 2019W        W45113  22.103   7.355  19.466  0.0715 -0.0725  0.0835
 2020W        W45114  23.925   9.950  17.187 -0.2139 -0.2569 -0.0778
 2021W        W45115  23.884  10.588  15.881  0.1836  0.2281 -0.0565
 2022W        W45116  22.996   8.292  18.314  0.3624 -0.1114  0.2496
 2023W        W45117  23.613   7.154  19.479 -0.1346 -0.0265 -0.1273
 2024W        W45118  25.080  10.134  17.992 -0.2380 -0.0349 -0.1509
 2025W        W45119  23.172   7.772  18.341 -0.0741  0.2672  0.2592
 2026W        W45120  24.151   7.950  19.958  0.2542  0.1575  0.3453
 2027W        W45121  25.094   7.176  17.641 -0.5208 -0.3028  0.1376
 2028W        W45122  24.268   8.900  19.323  0.1958 -0.1794  0.4234
 2029W        W45123  22.139   7.563  20.605 -0.3211  0.0649  0.0692
 2030W        W45124  25.373  10.373  19.203 -0.1431  0.1389  0.2541
 2031W        W45125  25.585   7.162  16.834  0.2515  0.3969  0.1659
 2032W        W45126  25.846   8.444  18.802 -0.0784 -0.2061  0.3573
 2033W        W45127  26.293   8.804  18.291  0.0918  0.0350 -0.0003
 2034W        W45128  24.125   7.205  17.878  0.2859 -0.1356  0.1191
 2035W        W45129  22.880   7.669  17.462 -0.1118  0.0935  0.0175
 2036W        W45130  24.078   7.867  18.970 -0.1743 -0.0555 -0.1194
 2037W        W45131  22.405   8.307  17.010  0.2217 -0.2589 -0.2643
 2038W        W45132  24.664   7.692  18.779  0.0850  0.0228  0.0254
 2039W        W45133  23.268  10.243  16.487  0.0433  0.3631  0.0359
 2040W        W45134  23.221   9.363  16.594  0.1858  0.1887  0.0140
 2041W        W45135  24.435   7.679  15.829  0.0920 -0.0251  0.4770
 2042W        W45136  21.924   7.609  17.409 -0.2358 -0.1757  0.3606
 2043W        W45137  22.546   8.870  17.923  0.2614  0.1355 -0.4683
 2044W        W45138  22.505   8.066  15.706 -0.1070  0.1014 -0.0209
 2045W        W45139  21.709   8.007  16.467 -0.0654  0.0512 -0.1737
 2046W        W45140  24.590  10.592  19.399  0.1572  0.2058  0.1130
 2047W        W45141  25.366   8.215  18.399  0.1904 -0.0484  0.0110
 2048W        W45142  24.455   6.317  16.732 -0.0706 -0.2656  0.2065
 2049W        W45143  24.429   8.120  18.650 -0.0793 -0.1633 -0.0400
 2050W        W45144  21.586   9.716  15.525 -0.0690  0.1625  0.1123
 2051W        W45145  24.321   8.495  17.683  0.0045 -0.0583 -0.0902
 2052W        W45146  22.508   9.873  18.142  0.1758 -0.2671  0.0768
 2053W        W45147  21.895   9.634  19.936  0.0012 -0.0493  0.1565
 2054W        W45148  21.551   9.871  17.541 -0.2948 -0.2144 -0.0133
 2055W        W45149  23.753   7.451  18.120  0.2604 -0.1566 -0.1234
 2056W        W45150  24.828   8.533  19.085  0.1423 -0.1495 -0.1822
 2057W        W45151  26.948   9.854  17.958 -0.0103  0.1621  0.3859
 2058W        W45152  24.973   7.393  19.377 -0.0312  0.1319 -0.1201
 2059W        W45153  23.775   8.952  19.515  0.0870  0.2999  0.0141
 2060W        W45154  22.422   7.796  19.603  0.1134  0.0920  0.2268
 2061W        W45155  22.454  10.847  19.177 -0.2390  0.0397  0.0824
 2062W        W45156  26.604  10.294  17.902  0.0263  0.1732 -0.1516
 2063W        W45157  22.370  10.082  17.683 -0.2868 -0.1125 -0.2008
 2064W        W45158  20.846   8.411  20.474  0.0826 -0.3198  0.1814
 2065W        W45159  23.819   8.526  18.666 -0.2729 -0.2426 -0.0887
 2066W        W45160  24.300   8.610  18.760  0.0730 -0.0745  0.1821
 2067W        W45161  21.987   7.903  18.284  0.2411 -0.0844  0.1118
 2068W        W45162  23.029   8.553  16.314 -0.0434 -0.0810  0.0701
 2069W        W45163  22.777   9.806  20.734 -0.0004  0.0843 -0.2018
 2070W        W45164  22.512   8.472  18.340 -0.1882 -0.1680  0.0223
 2071W        W45165  21.482  10.245  16.476 -0.0282  0.1613  0.2405
 2072W        W45166  23.381  10.747  15.887 -0.0379 -0.3891 -0.1161
 2073W        W45167  23.909   9.289  17.879  0.1132 -0.0973  0.0541
 2074W        W45168  23.220   9.874  19.344  0.2308  0.0097  0.4089
 2075W        W45169  22.966   8.958  16.751  0.4002  0.0882 -0.1398
 2076W        W45170  23.239  10.063  17.844  0.3368  0.1983 -0.0345
 2077W        W45171  22.300   9.733  15.633 -0.0537 -0.1974 -0.3395
 2078W        W45172  24.812  10.022  16.658 -0.2424 -0.1404  0.3921
 2079W        W45173  22.565  11.091  16.631  0.1369 -0.0502  0.2052
 2080W        W45174  24.275  10.236  19.087 -0.0681  0.0483  0.0637
 2081W        W45175  24.544   7.856  17.076  0.1187 -0.2889 -0.0413
 2082W        W45176  24.002   9.706  16.577  0.0154 -0.1328 -0.0696
 2083W        W45177  24.236   9.249  16.779 -0.0192 -0.1907  0.1128
 2084W        W45178  23.736  11.033  19.394  0.2184 -0.0370 -0.1257
 2085W        W45179  23.240   7.841  18.889 -0.0768 -0.0850 -0.0123
 2086W        W45180  21.192   8.539  17.170  0.1143 -0.2309  0.1590
 2087W        W45181  23.422   8.160  18.572  0.2844 -0.0794  0.0713
 2088W        W45182  25.423   7.933  19.423 -0.1410  0.0044 -0.0915
 2089W        W45183  20.772  10.796  21.118 -0.1649  0.0390  0.3347
 2090W        W45184  24.969   8.798  16.356 -0.2728  0.3625  0.0154
 2091W        W45185  21.304   9.147  17.623  0.0269 -0.1701 -0.1226
 2092W        W45186  22.493   8.627  17.482 -0.3132  0.1235 -0.2452
 2093W        W45187  26.250   5.650  18.539 -0.1478  0.0707  0.2225
 2094W        W45188  23.341   8.929  16.430  0.1214 -0.1322  0.0584
 2095W        W45189  23.316   7.587  17.713  0.1111 -0.0018 -0.2240
 2096W        W45190  21.939  10.020  16.483 -0.0475  0.3775  0.2513
 2097W        W45191  21.923   8.341  19.343 -0.0488  0.1330  0.0258
 2098W        W45192  23.232   7.981  20.360  0.5102  0.0897 -0.2169
 2099W        W45193  22.530   7.039  18.564  0.0927  0.2158  0.0467
 2100W        W45194  26.117   8.870  17.432  0.0674 -0.1325  0.0114
 2101W        W45195  23.816   7.987  20.366  0.0692 -0.0801 -0.0127
 2102W        W45196  25.010   6.303  18.112 -0.3182 -0.0262 -0.1150
 2103W        W45197  23.023   8.367  19.131  0.1042  0.0587  0.1173
 2104W        W45198  25.317  10.383  17.624  0.0377  0.0540  0.1782
 2105W        W45199  23.028   9.569  18.678 -0.0478 -0.2283 -0.1643
 2106W        W45200  22.352   7.420  18.325 -0.1515 -0.2363  0.2224
 2107W        W45201  24.059   8.585  17.203 -0.0393 -0.2511  0.2842
 2108W        W45202  25.147   8.887  19.126 -0.1129 -0.4594  0.1885
 2109W        W45203  24.200   7.767  16.599  0.1929 -0.0650  0.0419
 2110W        W45204  23.423  12.019  20.564 -0.0243  0.0872  0.3023
 2111W        W45205  22.308   7.178  17.897  0.1903 -0.2907 -0.0637
 2112W        W45206  24.028   6.623  16.584 -0.2460  0.3332  0.0256
 2113W        W45207  23.631   8.119  19.021  0.2387 -0.2176 -0.0384
 2114W        W45208  24.763   8.511  18.541 -0.0479 -0.0310 -0.2128
 2115W        W45209  24.186   9.236  18.262  0.2258  0.0066 -0.0724
 2116W        W45210  22.422   6.757  18.171  0.2171 -0.1956  0.2247
 2117W        W45211  23.370  10.238  17.286 -0.2709 -0.0927 -0.1571
 2118W        W45212  24.243   6.310  18.624 -0.1526  0.2552  0.0810
 2119W        W45213  24.143  11.830  17.169 -0.0815  0.1990  0.0421
 2120W        W45214  25.176   9.614  18.697  0.1209 -0.1968 -0.1932
 2121W        W45215  24.496  10.018  17.943 -0.1328 -0.0980  0.0605
 2122W        W45216  22.869   8.504  16.974  0.0256 -0.3405  0.4342
 2123W        W45217  24.878  10.893  18.580  0.1010  0.0590 -0.2795
 2124W        W45218  25.807   8.855  17.899  0.1543  0.1866  0.1718
 2125W        W45219  23.933   6.997  16.948 -0.0527  0.2999  0.0742
 2126W        W45220  22.832  10.266  17.990  0.2439  0.1275 -0.1399
 2127W        W45221  21.053   9.976  16.633 -0.0141 -0.1245  0.1535
 2128W        W45222  25.558   6.988  17.343  0.1620 -0.0480 -0.2155
 2129W        W45223  25.548   8.071  18.919  0.2206 -0.0558  0.1801
 2130W        W45224  23.839  11.296  16.533 -0.0621 -0.0254  0.1397
 2131W        W45225  24.502   6.240  20.774  0.2443 -0.0668  0.0023
 2132W        W45226  25.191   8.702  18.281  0.1719  0.0925  0.0409
 2133W        W45227  23.447  10.515  20.918  0.0615 -0.1719 -0.1419
 2134W        W45228  21.471   9.282  15.293  0.2776  0.2780  0.1684
 2135W        W45229  23.894   8.120  19.521  0.0261 -0.2366  0.0171
 2136W        W45230  23.732  10.593  17.925 -0.0083 -0.0301  0.0850
 2137W        W45231  22.520   9.544  17.247  0.3116 -0.0086  0.0925
 2138W        W45232  25.072  10.400  18.527 -0.4508 -0.1495  0.0170
 2139W        W45233  24.340   8.477  18.252  0.0986  0.2379 -0.1374
 2140W        W45234  26.918  10.124  18.361  0.0379 -0.2536  0.0240
 2141W        W45235  22.629   7.632  17.920 -0.2754 -0.2907 -0.1860
 2142W        W45236  24.896   8.601  16.818 -0.2002 -0.2119 -0.2041
 2143W        W45237  23.083   6.756  17.009 -0.2879 -0.2594  0.0771
 2144W        W45238  22.661   8.631  18.780  0.0765 -0.2413 -0.1767
 2145W        W45239  21.790   8.972  16.115  0.0008  0.0184  0.1515
 2146W        W45240  23.746   9.097  16.015  0.1495 -0.3780 -0.2438
 2147W        W45241  24.029   8.609  19.715 -0.1280  0.2770  0.1747
 2148W        W45242  23.878   6.492  18.859 -0.1397  0.0331  0.0612
 2149W        W45243  21.787   7.367  20.967  0.0351  0.0133 -0.1647
 2150W        W45244  22.354   9.671  19.638  0.0177  0.1516  0.1467
 2151W        W45245  22.187   8.244  16.560  0.2124 -0.0812 -0.1812
 2152W        W45246  24.941   9.179  16.813  0.0386 -0.4845  0.0328
 2153W        W45247  23.735   5.519  17.953 -0.0151  0.0466  0.0242
 2154W        W45248  21.862   7.245  18.083  0.2231  0.3933 -0.1276
 2155W        W45249  24.858   9.967  18.411  0.1359 -0.1031  0.1588
 2156W        W45250  25.841   9.694  17.188  0.2867  0.1314 -0.1753
 2157W        W45251  23.739   8.243  17.477  0.1075 -0.0352 -0.2601
 2158W        W45252  25.064   9.369  19.087  0.0426 -0.1058  0.2006
 2159W        W45253  22.162   8.757  17.102  0.1161 -0.0044  0.0252
 2160W        W45254  24.815   7.192  18.975 -0.0503 -0.0032 -0.2362
 2161W        W45255  23.718   7.738  19.783  0.1370 -0.2008  0.0731
 2162W        W45256  21.997   8.438  16.154  0.0721 -0.2009  0.4217
 2163W        W45257  24.004   8.791  18.145  0.2153  0.1724  0.1390
 2164W        W45258  23.547   9.104  17.399 -0.0774 -0.1508  0.0208
 2165W        W45259  25.014  10.675  18.091 -0.2505  0.1528 -0.0272
 2166W        W45260  23.207   9.148  18.549  0.0549  0.1732 -0.0153
 2167W        W45261  22.931   8.995  18.944  0.0952  0.0176  0.1521
 2168W        W45262  22.684   6.954  19.817  0.1027  0.1710 -0.1073
 2169W        W45263  23.883  10.480  16.991  0.0122  0.2081 -0.1665
 2170W        W45264  22.938   8.485  20.104 -0.3594  0.0325  0.1596
 2171W        W45265  25.036   9.958  16.230 -0.1425 -0.1319 -0.0710
 2172W        W45266  25.370   7.146  18.254  0.0432 -0.0883  0.2116
 2173W        W45267  22.901   7.937  17.043  0.0245 -0.2024  0.3020
 2174W        W45268  22.432   6.810  20.318 -0.3763 -0.3285  0.1287
 2175W        W45269  22.160   7.416  19.933 -0.2249 -0.0951  0.0063
 2176W        W45270  25.061   9.278  18.290  0.0744  0.1717  0.1665
 2177W        W45271  22.710   6.977  17.240  0.2305 -0.2511 -0.0080
 2178W        W45272  23.492   8.616  17.302  0.3701 -0.0900 -0.0701
 2179W        W45273  23.950   9.505  17.416  0.2031  0.2092  0.1433
 2180W        W45274  21.775   8.064  18.869  0.0766  0.4111 -0.4305
 2181W        W45275  22.591   8.727  16.533 -0.5363 -0.1649  0.0494
 2182W        W45276  24.272   7.469  19.816 -0.3295  0.1334 -0.1762
 2183W        W45277  22.955   9.863  17.289  0.0500  0.0985  0.2479
 2184W        W45278  22.606   7.861  18.811 -0.1911 -0.0381 -0.1758
 2185W        W45279  23.727   8.316  16.941  0.4648 -0.0702 -0.0738
 2186W        W45280  26.706   8.844  16.844 -0.3370 -0.0104 -0.2685
 2187W        W45281  24.148  11.259  19.508  0.1677 -0.3004 -0.0864
 2188W        W45282  23.708  11.466  19.174  0.0739 -0.1059 -0.3608
 2189W        W45283  24.251   9.105  18.770  0.2981 -0.0607 -0.1733
 2190W        W45284  25.910   9.241  18.217 -0.3509 -0.0162  0.3234
 2191W        W45285  22.909   7.941  20.001 -0.1328 -0.0251  0.1183
 2192W        W45286  22.257   9.128  16.553  0.1176 -0.0275 -0.1942
 2193W        W45287  23.471   9.040  16.926 -0.4233  0.1176 -0.3088
 2194W        W45288  23.925   8.151  18.368  0.0697  0.0488  0.3742
 2195W        W45289  22.348   7.325  17.413 -0.2820 -0.1106  0.2368
 2196W        W45290  23.659   6.115  17.011  0.2158  0.1075 -0.0124
 2197W        W45291  22.772  10.731  18.209 -0.0512 -0.0353 -0.0092
 2198W        W45292  24.708   8.980  18.472 -0.0688 -0.0918 -0.4101
 2199W        W45293  21.093  10.066  23.819  0.0683  0.0973 -0.2489
 2200W        W45294  24.571   7.813  20.157 -0.3402  0.1228  0.3386
 2201W        W45295  24.832   6.291  19.414 -0.1919 -0.0565 -0.0938
 2202W        W45296  26.012   8.869  22.001 -0.1947 -0.0570  0.2928
 2203W        W45297  21.531   9.103  21.553 -0.0560 -0.2022  0.2877
 2204W        W45298  24.127   9.614  21.564 -0.1235 -0.4486  0.2395
 2205W        W45299  22.589   7.364  24.301  0.0585  0.0061  0.1575
 2206W        W45300  24.659  10.396  20.823  0.3339  0.0009  0.1758
 2207W        W45301  24.064   9.555  22.071 -0.0846  0.2037  0.0526
 2208W        W45302  25.312   8.807  19.773  0.0712  0.0514  0.0441
 2209W        W45303  22.075   9.753  21.850 -0.0122 -0.0881  0.1328
 2210W        W45304  22.123  10.825  23.537  0.0954  0.4285  0.0843
 2211W        W45305  22.294   7.158  20.914 -0.0378 -0.1491 -0.1059
 2212W        W45306  19.115   7.292  21.546  0.1020 -0.0238 -0.0619
 2213W        W45307  22.739   7.520  20.779 -0.2199  0.0774  0.0773
 2214W        W45308  21.748   8.469  20.257  0.2183 -0.1250  0.5045
 2215W        W45309  22.593   9.294  22.545 -0.0164  0.0170  0.1264
 2216W        W45310  23.923   6.863  20.347 -0.0164 -0.1439  0.1020
 2217W        W45311  22.598  10.507  21.210 -0.3570 -0.1813  0.1747
 2218W        W45312  24.232   7.430  21.621  0.0213  0.1786 -0.3286
 2219W        W45313  24.826   9.325  24.608 -0.3187 -0.0273  0.1078
 2220W        W45314  23.131   8.754  20.651  0.0208 -0.1168  0.0663
 2221W        W45315  21.073   7.444  20.261 -0.0995  0.0535  0.1612
 2222W        W45316  20.941   9.238  23.133  0.0708  0.0378 -0.1570
 2223W        W45317  21.600   8.189  21.620  0.3164 -0.1762 -0.1770
 2224W        W45318  23.212   9.849  22.078  0.3519 -0.0243 -0.1005
 2225W        W45319  24.211   8.642  21.157  0.1354  0.0703 -0.0452
 2226W        W45320  23.665   9.800  21.373  0.1092 -0.1102  0.0716
 2227W        W45321  25.158  10.885  21.560 -0.0925 -0.0399  0.0192
 2228W        W45322  24.169  10.179  24.466 -0.0941 -0.1507  0.1562
 2229W        W45323  20.408   9.253  22.961 -0.0049  0.0743  0.4540
 2230W        W45324  21.315  10.707  21.039 -0.0084 -0.0955  0.1090
 2231W        W45325  24.044   8.565  21.635 -0.0335  0.1166  0.3493
 2232W        W45326  26.268  11.129  21.042 -0.0749  0.0622  0.2307
 2233W        W45327  24.944  10.652  21.917  0.1682 -0.0996  0.1841
 2234W        W45328  23.643  11.355  23.099  0.1703 -0.2694  0.2013
 2235W        W45329  22.538  10.164  20.422 -0.0845  0.2522  0.1113
 2236W        W45330  23.963  10.536  21.013 -0.1565 -0.0082  0.2497
 2237W        W45331  23.237  10.232  21.708 -0.0949  0.1533 -0.0447
 2238W        W45332  21.789   9.522  22.618 -0.0722  0.0515  0.0956
 2239W        W45333  22.436   9.471  21.587 -0.0847  0.1447 -0.1273
 2240W        W45334  22.823   9.984  19.596  0.2779  0.0336  0.0861
 2241W        W45335  23.290   9.399  21.213 -0.0720 -0.0503 -0.2336
 2242W        W45336  22.839  10.205  22.141 -0.1675 -0.0772  0.2310
 2243W        W45337  21.845  10.270  20.823  0.2262  0.0450  0.0216
 2244W        W45338  25.021   8.686  23.780  0.0825  0.0440 -0.2371
 2245W        W45339  24.063  11.962  19.960 -0.2158 -0.2402 -0.0963
 2246W        W45340  24.032   7.373  19.366  0.2483  0.1206  0.1959
 2247W        W45341  24.353   8.075  20.504 -0.0919 -0.2606 -0.3483
 2248W        W45342  24.786   7.611  19.777  0.2809  0.0024 -0.0235
 2249W        W45343  22.990   8.066  21.811 -0.0153 -0.0867  0.3841
 2250W        W45344  22.735  10.324  21.706 -0.0311 -0.0659  0.1193
 2251W        W45345  22.220   8.583  22.476 -0.0856  0.1208 -0.3371
 2252W        W45346  24.442   9.313  21.260 -0.0100 -0.1136  0.4128
 2253W        W45347  23.201   9.350  19.179 -0.0699 -0.0102 -0.2848
 2254W        W45348  24.449   8.913  23.333 -0.2381 -0.0188  0.0959
 2255W        W45349  22.471   9.986  21.487 -0.3703 -0.1584  0.0275
 2256W        W45350  19.994   8.761  21.675  0.0849  0.0998  0.1548
 2257W        W45351  24.934  10.132  19.431 -0.0763  0.0363  0.2372
 2258W        W45352  24.851  11.358  21.562 -0.2790 -0.0704 -0.2007
 2259W        W45353  24.064  11.360  20.026  0.3789 -0.0099  0.0440
 2260W        W45354  22.163   9.647  23.372  0.1626 -0.2287  0.0946
 2261W        W45355  21.002  10.746  22.062  0.0427  0.1249 -0.2712
 2262W        W45356  20.729   9.666  23.103 -0.1194  0.0439 -0.3901
 2263W        W45357  23.074   6.908  18.616  0.2857  0.1166 -0.0325
 2264W        W45358  24.919   9.832  24.863 -0.5465 -0.0424  0.1187
 2265W        W45359  23.098  11.120  22.291 -0.2459 -0.1132 -0.0873
 2266W        W45360  24.836   8.076  19.295 -0.0610 -0.0749 -0.1476
 2267W        W45361  21.896   8.375  21.963 -0.5649  0.1053 -0.2644
 2268W        W45362  23.574   9.464  22.383  0.1444 -0.0401 -0.1272
 2269W        W45363  23.352   9.820  19.930  0.1430  0.0938 -0.2657
 2270W        W45364  24.158   7.614  21.003 -0.2385 -0.1340  0.1629
 2271W        W45365  23.936   8.491  23.783  0.0706 -0.5568 -0.5299
 2272W        W45366  22.681   7.878  20.435  0.2546  0.2035 -0.0110
 2273W        W45367  23.288   8.556  22.571 -0.0394  0.2377  0.0569
 2274W        W45368  25.419   9.847  21.468 -0.1879 -0.1752  0.0433
 2275W        W45369  24.562   8.084  19.704 -0.0590 -0.0413 -0.1943
 2276W        W45370  21.213   9.487  22.466 -0.2177  0.2350 -0.2590
 2277W        W45371  23.916   8.684  23.319  0.0378  0.0136  0.0756
 2278W        W45372  22.864  11.131  24.847  0.0416 -0.1449 -0.1354
 2279W        W45373  22.467  11.086  20.239  0.2444  0.0061 -0.2976
 2280W        W45374  21.169   9.440  21.744  0.1413  0.0049  0.3329
 2281W        W45375  22.902   9.251  20.794 -0.2712 -0.0075 -0.1436
 2282W        W45376  21.533   8.037  22.122 -0.2577  0.2892 -0.2004
 2283W        W45377  21.715   9.818  23.069  0.3493  0.0356  0.0078
 2284W        W45378  24.835   8.735  22.235 -0.0683 -0.0884 -0.0953
 2285W        W45379  21.709   7.225  24.867  0.2677 -0.0728  0.1751
 2286W        W45380  25.827   6.729  20.753  0.0241  0.1509  0.0905
 2287W        W45381  22.886   9.097  19.846  0.1064 -0.1690 -0.1635
 2288W        W45382  24.249  12.701  19.997 -0.0328 -0.2506 -0.3396
 2289W        W45383  24.796   8.291  20.328  0.1671  0.1297 -0.3079
 2290W        W45384  24.194   9.376  20.342  0.0791  0.3724  0.0183
 2291W        W45385  20.839   8.468  23.657 -0.1176  0.0322 -0.0842
 2292W        W45386  21.556   8.299  20.641  0.0463 -0.2680 -0.0151
 2293W        W45387  22.573   7.163  22.974  0.1758 -0.0904  0.2818
 2294W        W45388  22.036   8.088  20.542 -0.1994  0.0186  0.0171
 2295W        W45389  25.469   8.182  21.832 -0.0533 -0.0147 -0.1409
 2296W        W45390  22.729   6.758  20.702 -0.3108 -0.0244 -0.1289
 2297W        W45391  25.041   7.829  21.783  0.1083  0.0008  0.0925
 2298W        W45392  22.868   8.390  21.111  0.1452  0.0367  0.3308
 2299W        W45393  21.667   9.778  20.453  0.0738  0.0947  0.0448
 2300W        W45394  23.655   9.100  24.571  0.4094 -0.2148  0.0946
 2301W        W45395  24.052  10.330  20.553 -0.1728 -0.3312 -0.2352
 2302W        W45396  24.430  11.202  22.663  0.1007  0.1047 -0.2433
 2303W        W45397  23.797  10.034  20.853 -0.2646 -0.2598  0.3129
 2304W        W45398  22.580   8.950  21.591 -0.1295 -0.0318  0.0098
 2305W        W45399  21.727   7.764  21.330  0.0559  0.0487 -0.0426
 2306W        W45400  23.011  10.775  21.031  0.1921  0.1615  0.0565
 2307W        W45401  21.689   9.417  21.892  0.1162  0.0205 -0.1209
 2308W        W45402  22.107   8.562  20.868  0.0243  0.0846  0.1971
 2309W        W45403  26.563  12.107  21.571 -0.1045  0.4788 -0.2238
 2310W        W45404  23.058   8.982  21.194 -0.1759  0.0088  0.0560
 2311W        W45405  22.853   8.206  23.287 -0.1133  0.0766  0.2355
 2312W        W45406  24.337   8.484  23.067  0.4385  0.1915  0.1679
 2313W        W45407  25.095  10.383  20.412  0.3680  0.1456  0.2592
 2314W        W45408  23.710  10.077  21.773 -0.0661 -0.0819 -0.2403
 2315W        W45409  21.991   8.157  21.089 -0.2806 -0.0425  0.1365
 2316W        W45410  24.520  11.792  20.165  0.4536 -0.4454 -0.1511
 2317W        W45411  22.507  10.064  19.963  0.0918 -0.0912 -0.1139
 2318W        W45412  21.578   7.998  23.143 -0.3549 -0.0169  0.0598
 2319W        W45413  23.795  11.726  20.335  0.3378  0.0685 -0.0079
 2320W        W45414  24.500   7.817  23.870  0.0823  0.1429 -0.0617
 2321W        W45415  20.137   8.891  22.801  0.1208 -0.0694 -0.1395
 2322W        W45416  24.022   9.026  22.299 -0.0930  0.1233  0.0120
 2323W        W45417  23.000   7.930  20.876 -0.0105 -0.3817  0.1616
 2324W        W45418  21.389  10.411  22.052 -0.0990 -0.1329  0.0301
 2325W        W45419  24.005   7.145  21.228 -0.2198 -0.1862 -0.0033
 2326W        W45420  24.551   8.319  21.558  0.0324 -0.0389  0.0873
 2327W        W45421  23.308  10.241  23.854  0.1260  0.3393 -0.1436
 2328W        W45422  24.755   9.563  20.279  0.2897  0.1910  0.0684
 2329W        W45423  25.112   6.789  20.192  0.1291  0.0323 -0.3499
 2330W        W45424  23.842   7.346  22.047  0.0676  0.1127  0.0169
 2331W        W45425  21.546  10.091  23.524  0.0358 -0.3019  0.0181
 2332W        W45426  23.612   8.963  20.421 -0.1518 -0.0001 -0.2392
 2333W        W45427  21.662   8.519  21.150 -0.5253  0.3207 -0.0902
 2334W        W45428  24.734   9.001  20.983  0.1192  0.2371 -0.2239
 2335W        W45429  25.425  11.379  21.375 -0.3511 -0.4728 -0.2976
 2336W        W45430  22.497  11.298  22.572 -0.0631  0.0263  0.1157
 2337W        W45431  24.200  10.491  23.762  0.0921 -0.1124  0.0402
 2338W        W45432  24.284  10.938  22.101  0.0480 -0.1931  0.0696
 2339W        W45433  22.810   8.692  22.711 -0.3109  0.0547 -0.0565
 2340W        W45434  22.923   7.021  19.108 -0.1238 -0.3881  0.2358
 2341W        W45435  22.942   7.481  21.550  0.1608  0.0283  0.0890
 2342W        W45436  23.341  10.188  20.503 -0.0890 -0.0876  0.1711
 2343W        W45437  24.218   6.688  21.225  0.0049 -0.1705  0.0547
 2344W        W45438  23.002   6.874  22.772 -0.1353 -0.1341 -0.3095
 2345W        W45439  24.257   7.436  23.498 -0.0454  0.0136 -0.3678
 2346W        W45440  25.732  10.367  23.682 -0.0999 -0.2057 -0.2433
 2347W        W45441  25.230   9.825  20.408 -0.1301  0.3323  0.0379
 2348W        W45442  22.411   8.439  21.338  0.0623 -0.0231 -0.1622
 2349W        W45443  21.987   6.934  21.226  0.0341 -0.0467 -0.0822
 2350W        W45444  24.752   7.610  23.229 -0.1270  0.1686 -0.3209
 2351W        W45445  21.017   9.134  24.199  0.1328 -0.4513 -0.2787
 2352W        W45446  22.096  10.495  23.080 -0.0070 -0.0692  0.2018
 2353W        W45447  22.540  10.054  23.341 -0.0266  0.1052 -0.1493
 2354W        W45448  24.103   9.372  19.541  0.3305 -0.1027  0.1762
 2355W        W45449  23.954   8.167  23.276 -0.1186  0.1001 -0.1687
 2356W        W45450  23.176   7.119  19.847  0.2253 -0.0401  0.2432
 2357W        W45451  24.215  11.574  21.154  0.1514 -0.0816 -0.1001
 2358W        W45452  23.721   7.194  19.972  0.0637  0.1066  0.2794
 2359W        W45453  21.680   7.336  21.571  0.0900  0.1729 -0.3203
 2360W        W45454  23.773   9.906  22.256 -0.1227 -0.2571 -0.1006
 2361W        W45455  22.064   8.248  19.794 -0.1171  0.0568 -0.0285
 2362W        W45456  24.732  10.108  22.207  0.0160 -0.0597  0.2786
 2363W        W45457  22.852   9.521  19.508  0.0308 -0.0134 -0.0788
 2364W        W45458  24.116   6.853  22.356  0.0539  0.0444 -0.0629
 2365W        W45459  21.689  10.612  22.417 -0.0955 -0.3473  0.1145
 2366W        W45460  23.519   7.805  20.763  0.0754  0.3636 -0.1427
 2367W        W45461  21.303   9.658  20.801 -0.3589  0.2648 -0.0618
 2368W        W45462  24.742   7.437  21.692 -0.0911  0.1861  0.3124
 2369W        W45463  24.389   8.477  20.147  0.0361  0.0449  0.3349
 2370W        W45464  22.915   8.848  23.569  0.1108  0.2033 -0.5453
 2371W        W45465  23.431   7.298  22.491  0.2566 -0.1366 -0.1770
 2372W        W45466  22.268  11.053  22.972  0.1418 -0.1444 -0.0259
 2373W        W45467  23.339   9.100  21.624  0.2249  0.2567  0.4403
 2374W        W45468  25.034   7.385  21.259 -0.0394 -0.1478 -0.0110
 2375W        W45469  24.274  10.196  20.961 -0.4405  0.0380 -0.3088
 2376W        W45470  22.696   8.300  22.284  0.2268 -0.1343 -0.1377
 2377W        W45471  22.652   7.467  19.970 -0.0698  0.0535  0.0431
 2378W        W45472  23.135   7.727  22.700 -0.1770  0.0889  0.1729
 2379W        W45473  22.373   7.584  21.647  0.2643 -0.0513  0.1941
 2380W        W45474  21.773  10.509  21.499  0.0721  0.3601  0.0342
 2381W        W45475  23.595  10.279  21.336 -0.1519  0.3004 -0.0882
 2382W        W45476  22.835   9.310  20.312 -0.0838 -0.0554  0.0671
 2383W        W45477  22.043  10.281  22.517 -0.2288  0.0394 -0.0620
 2384W        W45478  23.377   8.721  23.608 -0.0881 -0.2062 -0.3472
 2385W        W45479  23.107   9.558  22.903 -0.1800 -0.0762  0.0568
 2386W        W45480  23.762   8.647  22.105  0.0816 -0.2020  0.1124
 2387W        W45481  21.663   7.797  20.761  0.0755  0.0769 -0.1706
 2388W        W45482  22.926   9.289  21.571  0.1222  0.0143 -0.0623
 2389W        W45483  23.768   8.338  21.222  0.1196 -0.0347  0.3099
 2390W        W45484  22.602   9.771  22.892  0.3745 -0.4766  0.0219
 2391W        W45485  22.534  10.321  22.878 -0.0781  0.1102  0.2645
 2392W        W45486  21.337   7.541  22.475  0.2025 -0.0833 -0.1486
 2393W        W45487  24.775  10.771  20.426 -0.1976 -0.0820  0.2394
 2394W        W45488  22.638   9.338  23.109 -0.2722 -0.0179 -0.0158
 2395W        W45489  21.905   9.383  20.829 -0.1528 -0.0031 -0.0062
 2396W        W45490  20.473   8.780  22.480  0.2471 -0.1479  0.0122
 2397W        W45491  21.967   9.061  19.774 -0.0032 -0.4682  0.0263
 2398W        W45492  22.066   8.033  21.614  0.0039 -0.1828 -0.1635
 2399W        W45493  21.510   7.963  22.668  0.1762 -0.0052  0.0062
 2400W        W45494  22.728   8.837  20.380  0.2303 -0.2331 -0.2566
 2401W        W45495  21.053   8.768  23.303  0.0968  0.1753 -0.1802
 2402W        W45496  24.253   6.177  20.328  0.1204 -0.1161 -0.0675
 2403W        W45497  23.387   9.362  20.094 -0.2854 -0.1508 -0.2971
 2404W        W45498  21.830   8.901  22.091  0.2250  0.1104 -0.0235
 2405W        W45499  24.167   9.060  23.873 -0.3657 -0.0571  0.4107
 2406W        W45500  24.107   8.827  20.426  0.1166  0.2244 -0.0336
 2407W        W45501  25.347   9.175  22.823 -0.1544  0.0217  0.0408
 2408W        W45502  23.271   8.522  22.007 -0.0153  0.1259 -0.1943
 2409W        W45503  24.642   9.583  20.766  0.0889  0.2145  0.0737
 2410W        W45504  21.602   7.397  23.327  0.0860 -0.0827  0.0665
 2411W        W45505  23.615  10.732  22.376 -0.0655 -0.0872 -0.1946
 2412W        W45506  23.195   8.029  22.308  0.0153 -0.2553  0.0574
 2413W        W45507  21.262   7.656  21.231 -0.1802  0.2329 -0.1420
 2414W        W45508  23.021   6.922  20.259 -0.1549  0.0406 -0.1768
 2415W        W45509  24.418   9.268  22.894 -0.4222  0.2555 -0.2217
 2416W        W45510  24.239   9.149  21.712  0.1444 -0.2655  0.3239
 2417W        W45511  23.898   8.441  20.205 -0.3612  0.1326 -0.0233
 2418W        W45512  24.891   8.480  21.167 -0.0313 -0.0341  0.0312
 2419W        W45513  22.101   9.129  21.736 -0.3621 -0.0779 -0.1128
 2420W        W45514  23.252   8.019  21.269  0.0938  0.1661 -0.0666
 2421W        W45515  25.522   8.356  19.812 -0.4997 -0.1798 -0.2212
 2422W        W45516  21.964  10.106  21.370 -0.3815 -0.0320 -0.0209
 2423W        W45517  21.872   7.358  22.442 -0.0933  0.1260  0.0738
 2424W        W45518  23.459   9.908  22.646 -0.3605 -0.0677 -0.1571
 2425W        W45519  24.120   8.229  22.171  0.0747 -0.1003  0.0102
 2426W        W45520  22.856   8.525  21.588 -0.2554 -0.1359 -0.1688
 2427W        W45521  23.220   6.769  21.029 -0.0694  0.2048 -0.0908
 2428W        W45522  22.376   9.785  23.776  0.0233  0.1818  0.0221
 2429W        W45523  22.035   7.537  24.284 -0.3859  0.0080 -0.0966
 2430W        W45524  24.042  10.443  22.677  0.0232  0.0191  0.0160
 2431W        W45525  25.685   8.935  20.134 -0.0509  0.2028 -0.1378
 2432W        W45526  24.948   9.197  21.437  0.0635 -0.0917  0.5074
 2433W        W45527  25.123   9.145  20.379 -0.1533 -0.2073 -0.2470
 2434W        W45528  24.482   6.961  21.588  0.2560 -0.2116 -0.3308
 2435W        W45529  22.585   8.808  20.843 -0.0296  0.0803  0.2513
 2436W        W45530  25.237   8.791  22.524 -0.3813 -0.0191 -0.3024
 2437W        W45531  21.313   8.124  21.120 -0.3241 -0.4781 -0.0295
 2438W        W45532  25.394   9.021  22.043 -0.4376 -0.0344  0.2927
 2439W        W45533  23.492  10.493  20.071 -0.2100  0.5535  0.3968
 2440W        W45534  25.088  10.325  19.877  0.1105  0.1546 -0.1209
 2441W        W45535  24.556   8.817  21.492  0.2348  0.0418 -0.4805
 2442W        W45536  21.527   9.389  21.118 -0.1255  0.0992 -0.0115
 2443W        W45537  22.955  11.253  22.827 -0.1897 -0.2733  0.1873
 2444W        W45538  23.465   7.212  20.377  0.4274 -0.1580  0.2446
 2445W        W45539  24.690   7.697  20.649  0.1242  0.2231  0.0466
 2446W        W45540  23.015  10.163  22.645 -0.1385  0.1393 -0.2800
 2447W        W45541  24.503   8.372  22.564  0.0508 -0.5736  0.1892
 2448W        W45542  24.455   7.182  22.029  0.3009  0.0700 -0.0044
 2449W        W45543  24.902   9.332  25.080 -0.2229  0.1305 -0.0397
 2450W        W45544  20.969  10.343  21.172  0.3338  0.0900 -0.2572
 2451W        W45545  22.581   9.253  22.055  0.1155 -0.1054 -0.1484
 2452W        W45546  23.742  10.919  21.237 -0.0339 -0.5197 -0.0988
 2453W        W45547  21.870   9.224  23.268  0.3585  0.0348  0.2470
 2454W        W45548  22.902  10.316  20.755 -0.2564  0.1347 -0.1034
 2455W        W45549  23.714   7.676  21.205 -0.2708  0.0157 -0.0071
 2456W        W45550  23.293   8.563  21.343  0.0489  0.0018 -0.0558
 2457W        W45551  22.792   9.731  22.375  0.0127 -0.3842 -0.0683
 2458W        W45552  25.026   7.898  21.274  0.0035 -0.0090 -0.1910
 2459W        W45553  25.528   9.979  22.015  0.1250 -0.2040 -0.0798
 2460W        W45554  22.126   9.278  22.378 -0.0397  0.1123 -0.0039
 2461W        W45555  23.080   9.190  22.503  0.0832 -0.1970 -0.0583
 2462W        W45556  23.307  10.264  22.288  0.1212  0.1240  0.0629
 2463W        W45557  23.204   8.887  20.161  0.2335 -0.0401  0.2175
 2464W        W45558  20.559   9.317  23.537 -0.2178  0.1631 -0.0000
 2465W        W45559  23.427   8.975  22.170  0.0737 -0.1948  0.0430
 2466W        W45560  23.342   9.860  20.965 -0.0498  0.1754  0.2576
 2467W        W45561  23.055   7.456  20.290  0.4378 -0.0440  0.0477
 2468W        W45562  21.084   8.004  19.608 -0.1760  0.2848  0.0608
 2469W        W45563  24.270  11.691  24.045 -0.2039  0.0987 -0.5999
 2470W        W45564  21.289   8.433  23.942 -0.1383  0.0810 -0.0614
 2471W        W45565  21.825   8.995  21.166 -0.0635 -0.1774  0.0324
 2472W        W45566  23.912   9.063  20.022 -0.1865 -0.4120  0.0279
 2473W        W45567  23.906   8.664  19.125 -0.2025 -0.3238  0.1403
 2474W        W45568  23.814  11.576  20.895  0.0202  0.1271 -0.0192
 2475W        W45569  23.677   7.906  22.052 -0.6025  0.2927 -0.0369
 2476W        W45570  24.062  10.099  21.425  0.1757 -0.2472 -0.2973
 2477W        W45571  22.361  10.156  20.926  0.0735 -0.0892  0.1961
 2478W        W45572  25.605  10.665  20.180 -0.2920 -0.2167  0.3478
 2479W        W45573  24.122   9.846  20.550 -0.1917  0.0386  0.0574
 2480W        W45574  24.478  10.154  22.978 -0.1830 -0.0755  0.2656
 2481W        W45575  24.726   6.736  19.166 -0.0166  0.3827 -0.1135
 2482W        W45576  25.054  10.110  20.873 -0.1015  0.0404  0.0966
 2483W        W45577  25.628   7.508  19.591 -0.1680 -0.6248 -0.1155
 2484W        W45578  23.793  10.079  23.564 -0.1756 -0.0338  0.0638
 2485W        W45579  23.871   7.745  22.486  0.2189 -0.0902  0.2833
 2486W        W45580  24.050   6.912  19.723 -0.1607 -0.1896 -0.0118
 2487W        W45581  20.886   8.507  21.890  0.2613  0.4436 -0.0184
 2488W        W45582  23.205   8.379  24.338 -0.0225 -0.0366  0.1135
 2489W        W45583  21.842  10.600  23.878 -0.0550 -0.0088  0.0770
 2490W        W45584  24.948   9.207  19.893 -0.2290  0.0743  0.0640
 2491W        W45585  24.149   9.157  20.813  0.2935 -0.3778  0.0578
 2492W        W45586  22.110   9.829  20.650  0.0685 -0.1495 -0.0447
 2493W        W45587  24.349   7.888  23.337 -0.0435  0.0994  0.2557
 2494W        W45588  22.549   7.315  20.387  0.0559 -0.0334 -0.0418
 2495W        W45589  22.782   7.081  21.111  0.0110  0.1209 -0.0952
 2496W        W45590  24.317  12.271  20.302 -0.1594  0.2415  0.3451
 2497W        W45591  21.868   9.549  21.446  0.2633  0.0713 -0.3230
 2498W        W45592  23.005  10.124  21.274 -0.1791  0.0663 -0.1380
 2499W        W45593  21.882   5.911  20.935  0.2573  0.1522 -0.2392
 2500W        W45594  26.681   8.430  19.706 -0.1133  0.2261 -0.0780
 2501W        W45595  23.687   8.192  21.651 -0.1427  0.5722 -0.1317
 2502W        W45596  25.035   7.635  22.726 -0.2296 -0.0222 -0.0461
 2503W        W45597  20.615   8.305  22.353  0.1105  0.0676  0.3663
 2504W        W45598  24.517   7.290  21.160 -0.1562 -0.0474 -0.4576
 2505W        W45599  22.227   9.793  22.443  0.0527 -0.2663  0.1596
 2506W        W45600  22.557   8.177  23.757 -0.1703  0.2518  0.0654
 2507W        W45601  23.302   8.300  20.859 -0.1680 -0.3364 -0.2477
 2508W        W45602  25.228   8.345  22.842 -0.2037  0.0057 -0.0622
 2509W        W45603  24.017   8.092  20.862  0.3538  0.0700  0.1055
 2510W        W45604  23.624  10.892  23.212  0.0040  0.1918 -0.0226
 2511W        W45605  20.450   9.251  22.501  0.0782  0.0709  0.2331
 2512W        W45606  22.228   7.690  21.143  0.0293 -0.0799  0.2413
 2513W        W45607  23.230   7.504  21.030  0.2850 -0.2453 -0.4429
 2514W        W45608  22.656   7.924  21.327 -0.3533  0.0610 -0.0186
 2515W        W45609  24.271  10.028  22.419 -0.3135  0.0901 -0.0025
 2516W        W45610  21.604   6.957  22.540 -0.1642  0.1364  0.0747
 2517W        W45611  26.832   9.641  20.688 -0.3049  0.1050 -0.1846
 2518W        W45612  23.765   9.062  21.845  0.3541  0.2700 -0.0450
 2519W        W45613  22.987  11.231  20.530 -0.0848  0.3854 -0.0923
 2520W        W45614  23.022   9.399  22.041 -0.3471  0.0841  0.1276
 2521W        W45615  24.610   9.893  21.329  0.0896  0.0094 -0.0564
 2522W        W45616  20.328   7.936  23.622 -0.3607 -0.1321 -0.0201
 2523W        W45617  23.894  10.391  22.153  0.1572  0.1208 -0.1044
 2524W        W45618  25.363  11.037  21.078  0.0822 -0.0200 -0.1783
 2525W        W45619  24.675   6.889  20.498 -0.2726 -0.1919 -0.0779
 2526W        W45620  21.021   9.355  21.275  0.0809 -0.1634  0.0497
 2527W        W45621  22.118  10.572  21.109  0.0788 -0.1454  0.1124
 2528W        W45622  25.861   8.582  20.779  0.1043  0.1561  0.0271
 2529W        W45623  25.504   7.694  24.796  0.4541 -0.0772 -0.1380
 2530W        W45624  22.443   8.107  20.853  0.1928  0.2647  0.1381
 2531W        W45625  23.797   7.039  23.592 -0.0945 -0.3597 -0.1141
 2532W        W45626  22.379   9.038  23.391  0.0546 -0.0194  0.0364
 2533W        W45627  23.039  10.548  23.017  0.1374  0.0926  0.0268
 2534W        W45628  22.130   8.788  20.268 -0.0059 -0.2889 -0.0180
 2535W        W45629  23.781  10.029  23.001  0.1153 -0.0193 -0.0460
 2536W        W45630  24.599   8.076  20.991 -0.0645  0.1488 -0.4709
 2537W        W45631  22.166   9.423  22.891 -0.1159  0.3018 -0.4691
 2538W        W45632  24.729   9.554  21.696 -0.4279 -0.2860  0.0439
 2539W        W45633  23.501   9.050  20.963  0.3537 -0.2151  0.0112
 2540W        W45634  24.242   9.966  20.063  0.1060  0.1133 -0.1497
 2541W        W45635  22.384   8.938  22.850 -0.1307 -0.2886  0.1947
 2542W        W45636  24.235   7.710  22.126 -0.2958  0.1594  0.2897
 2543W        W45637  22.915   6.449  21.238 -0.1569 -0.1483  0.0588
 2544W        W45638  21.078   8.232  23.296 -0.1346  0.1536  0.3382
 2545W        W45639  20.892   8.944  20.480 -0.2770 -0.1544 -0.2410
 2546W        W45640  22.885   9.761  20.098 -0.0440 -0.1078 -0.1897
 2547W        W45641  21.260   9.140  23.493 -0.1016  0.0057 -0.1748
 2548W        W45642  22.129   9.290  23.829 -0.0449 -0.4008  0.0919
 2549W        W45643  24.422   8.631  21.987  0.3518  0.3218 -0.1370
 2550W        W45644  22.504   8.059  21.777 -0.1804  0.0626 -0.0456
 2551W        W45645  20.463   6.850  22.092  0.0340  0.0919 -0.0245
 2552W        W45646  25.170   9.700  19.850  0.1059 -0.1346 -0.2788
 2553W        W45647  23.154   8.191  22.873 -0.2113  0.1477 -0.1001
 2554W        W45648  21.475   8.623  21.866  0.5077  0.2361  0.0962
 2555W        W45649  24.694  10.789  21.127  0.0119  0.0195 -0.2285
 2556W        W45650  23.768   8.613  20.818  0.4171 -0.1987  0.0149
 2557W        W45651  21.075   8.130  21.598  0.3035  0.3677 -0.0458
 2558W        W45652  24.691  10.726  23.745  0.0317  0.0261  0.0236
 2559W        W45653  20.967  10.466  20.584 -0.1763  0.2632 -0.2849
 2560W        W45654  23.822   8.781  24.250 -0.1514 -0.0717 -0.0090
 2561W        W45655  23.873   8.798  25.235 -0.1090  0.0874  0.0748
 2562W        W45656  21.749   6.365  20.833  0.4770  0.2245  0.0394
 2563W        W45657  23.669   8.218  22.428 -0.2956  0.1990  0.0664
 2564W        W45658  25.436   9.362  20.065  0.1553  0.1047 -0.0504
 2565W        W45659  25.210  10.634  20.818 -0.2221 -0.0519  0.0853
 2566W        W45660  22.744   9.784  21.853 -0.0033  0.0331 -0.1472
 2567W        W45661  23.716   9.546  20.925 -0.0998 -0.1097 -0.0674
 2568W        W45662  22.267   8.110  22.219  0.3835 -0.3280  0.0673
 2569W        W45663  24.644   9.075  20.473 -0.0127 -0.1018 -0.0230
 2570W        W45664  24.027  10.453  23.187  0.1797 -0.1794 -0.1680
 2571W        W45665  25.107   9.457  20.779 -0.1153  0.3148  0.5938
 2572W        W45666  23.753   7.689  24.070  0.2420  0.1688 -0.0308
 2573W        W45667  24.465   7.749  22.684 -0.0373  0.0009 -0.1105
 2574W        W45668  22.321   7.481  22.733  0.0025 -0.0856  0.4670
 2575W        W45669  21.877  11.772  24.070 -0.0256  0.1191  0.3171
 2576W        W45670  24.801   9.966  22.647  0.1477 -0.1489 -0.1655
 2577W        W45671  21.133   8.127  22.403 -0.0753  0.0144  0.0733
 2578W        W45672  23.842   7.527  20.434  0.0132  0.0639 -0.0589
 2579W        W45673  24.153   9.726  21.050 -0.0706  0.0328 -0.1014
 2580W        W45674  21.673   8.489  22.454 -0.1345  0.1052 -0.1043
 2581W        W45675  24.380   6.467  21.822  0.5311  0.0397  0.4502
 2582W        W45676  24.046   8.590  22.551  0.0415 -0.0738  0.0647
 2583W        W45677  24.632  12.057  19.754  0.0787 -0.0626  0.1732
 2584W        W45678  24.063   9.607  22.615  0.0083  0.2337  0.0380
 2585W        W45679  23.468   7.254  21.549 -0.5102 -0.0073 -0.1167
 2586W        W45680  25.581   9.400  20.562  0.0216 -0.0770 -0.2034
 2587W        W45681  24.633  10.871  21.598 -0.1989  0.0894  0.0473
 2588W        W45682  25.972  10.783  22.735  0.1442  0.2831 -0.0272
 2589W        W45683  23.550   8.945  23.191 -0.1257  0.1173 -0.0486
 2590W        W45684  24.459   7.355  20.296 -0.0603  0.0913 -0.3646
 2591W        W45685  22.135   7.625  23.162  0.1540 -0.1251  0.0869
 2592W        W45686  22.023   8.670  21.541  0.1973 -0.2389  0.2719
 2593W        W45687  24.364   8.972  19.835 -0.0705 -0.0300 -0.1875
 2594W        W45688  25.018   9.944  21.814  0.1051 -0.0793 -0.1332
 2595W        W45689  21.249   7.652  22.978  0.2167 -0.1838  0.0914
 2596W        W45690  23.752   7.162  20.806  0.0736 -0.0497 -0.0394
 2597W        W45691  24.208  10.901  21.262  0.1563 -0.3475  0.2427
 2598W        W45692  23.743   9.286  21.407 -0.2200 -0.1402 -0.1465
 2599W        W45693  22.339   9.579  28.125 -0.0685  0.1074  0.2025
 2600W        W45694  22.162   9.278  25.086  0.3542  0.0333 -0.0216
 2601W        W45695  23.985   9.140  24.889 -0.2169  0.2296  0.0429
 2602W        W45696  25.228   9.194  25.878  0.0936  0.0561 -0.3326
 2603W        W45697  22.766   6.998  25.699  0.0696  0.1688  0.0601
 2604W        W45698  23.632  10.994  24.744  0.0372 -0.3099 -0.1709
 2605W        W45699  22.314   8.788  26.957  0.1369  0.3614  0.1797
 2606W        W45700  24.133  11.227  25.677 -0.1730  0.2118  0.4439
 2607W        W45701  26.104  10.661  26.225 -0.0711  0.0868 -0.0537
 2608W        W45702  23.598   9.047  22.643  0.1376  0.1179 -0.4096
 2609W        W45703  22.706   8.504  26.702 -0.2236 -0.0426  0.3148
 2610W        W45704  22.694  10.960  27.054  0.1901 -0.1180  0.1705
 2611W        W45705  23.308   7.784  24.250  0.1439  0.3665 -0.1365
 2612W        W45706  22.987   7.817  26.004  0.0512  0.0544  0.0705
 2613W        W45707  24.830   9.018  27.119 -0.4241 -0.1989 -0.1390
 2614W        W45708  22.129   8.029  23.977  0.4441 -0.2127 -0.1754
 2615W        W45709  23.183   9.565  27.038 -0.0071  0.0117 -0.1797
 2616W        W45710  22.139   8.322  25.191  0.0645  0.2448  0.1250
 2617W        W45711  23.548  10.943  25.501  0.3010  0.0696  0.2307
 2618W        W45712  23.163   8.367  27.992 -0.2127  0.0523 -0.3880
 2619W        W45713  24.858   6.025  27.785  0.0859 -0.1489  0.1023
 2620W        W45714  24.186   9.928  25.010 -0.1491  0.0397  0.0716
 2621W        W45715  21.961   8.291  23.515  0.1776 -0.0969  0.0250
 2622W        W45716  23.038   8.272  25.616  0.1976  0.0893 -0.1080
 2623W        W45717  23.069   8.460  27.142 -0.1306  0.3118  0.2330
 2624W        W45718  25.483   8.656  26.105  0.4720  0.1004 -0.0257
 2625W        W45719  23.571   9.701  26.500 -0.2011  0.1507 -0.1903
 2626W        W45720  23.682  10.533  25.858  0.2213  0.0043 -0.0582
 2627W        W45721  24.203  10.805  25.981  0.0493  0.0234 -0.1798
 2628W        W45722  23.641   8.316  28.249  0.0011  0.0448 -0.0901
 2629W        W45723  20.239  10.721  23.690  0.0641 -0.1547 -0.0311
 2630W        W45724  21.761  10.949  25.856 -0.0914  0.2163  0.3248
 2631W        W45725  23.544  10.054  26.164 -0.0328 -0.1133  0.0851
 2632W        W45726  23.784  11.634  24.518  0.2310  0.0559  0.0162
 2633W        W45727  24.527   9.477  27.320  0.5884  0.1061 -0.0351
 2634W        W45728  23.380  10.358  27.739 -0.3281 -0.1359  0.1158
 2635W        W45729  22.590  11.048  23.541  0.4301 -0.1847  0.1661
 2636W        W45730  22.660  10.187  26.704  0.1059 -0.0168  0.0360
 2637W        W45731  22.632  10.503  27.275 -0.2073  0.2004  0.1555
 2638W        W45732  24.234  10.267  25.843  0.3837 -0.0890 -0.0863
 2639W        W45733  25.106   9.603  25.534  0.1912  0.1674 -0.0239
 2640W        W45734  22.692   9.360  25.243  0.1540  0.0039  0.2075
 2641W        W45735  23.293  10.372  25.493  0.1569  0.2210 -0.0571
 2642W        W45736  22.912  10.142  28.760 -0.0569  0.1084  0.1586
 2643W        W45737  22.391   9.739  26.629  0.1576 -0.2944  0.0971
 2644W        W45738  24.832   8.456  27.748  0.0162  0.0800 -0.0720
 2645W        W45739  23.351  11.437  24.186  0.0717  0.1931  0.1041
 2646W        W45740  23.600   9.468  25.702  0.0973 -0.2040 -0.3127
 2647W        W45741  22.787   9.018  24.320 -0.1871  0.0786 -0.1854
 2648W        W45742  24.073   8.807  26.642 -0.2126  0.0404  0.2275
 2649W        W45743  23.548   7.644  24.683 -0.0782 -0.0840 -0.2487
 2650W        W45744  22.996  10.701  25.212 -0.0210  0.1267  0.1472
 2651W        W45745  23.559   8.480  25.561 -0.0153  0.1322 -0.2917
 2652W        W45746  26.137   8.926  27.609 -0.1043  0.2176  0.0029
 2653W        W45747  22.919   9.463  24.503  0.1191  0.0373  0.0459
 2654W        W45748  24.549   8.361  26.486  0.1340 -0.4009  0.0363
 2655W        W45749  24.035  11.300  28.049 -0.0417 -0.1253 -0.2278
 2656W        W45750  21.683   9.915  24.419  0.2461  0.0207 -0.4386
 2657W        W45751  23.613  10.643  21.854 -0.1419  0.0702  0.0716
 2658W        W45752  25.475  11.545  24.612  0.0134  0.0039  0.1434
 2659W        W45753  24.744  11.517  22.842 -0.1727 -0.2208  0.1737
 2660W        W45754  21.658   9.526  23.602  0.0145 -0.0164  0.1179
 2661W        W45755  21.511  10.269  26.957  0.1073 -0.3194  0.0609
 2662W        W45756  22.728   8.796  28.385  0.0931 -0.1634 -0.0814
 2663W        W45757  22.475   7.288  23.483  0.0077 -0.0119 -0.0928
 2664W        W45758  24.659  10.222  26.286  0.0748 -0.0588 -0.0542
 2665W        W45759  23.439  11.211  26.459 -0.0124 -0.0751 -0.0703
 2666W        W45760  25.386   9.662  25.911  0.2646  0.1445 -0.2678
 2667W        W45761  22.364  11.227  26.780 -0.0321 -0.3984  0.0301
 2668W        W45762  24.193   9.860  25.533  0.1632  0.0584 -0.1558
 2669W        W45763  23.789  10.265  24.053  0.0796 -0.1201 -0.0464
 2670W        W45764  24.940   8.840  26.609 -0.0906  0.0330  0.1914
 2671W        W45765  25.855   8.332  26.058  0.0526  0.0647  0.1299
 2672W        W45766  20.930  11.466  23.658 -0.2272  0.1946 -0.0191
 2673W        W45767  21.418   9.772  23.980  0.0865  0.2249  0.0145
 2674W        W45768  25.108   9.330  27.428  0.0330 -0.0942 -0.0981
 2675W        W45769  23.975   9.668  24.643 -0.3856 -0.1961 -0.0815
 2676W        W45770  22.794   9.973  26.211  0.1157 -0.2883  0.0801
 2677W        W45771  22.479   8.596  26.209 -0.0648  0.2245 -0.0357
 2678W        W45772  22.925  10.136  27.651  0.1349  0.1148 -0.1418
 2679W        W45773  21.162   9.761  23.422  0.0352  0.0248 -0.1139
 2680W        W45774  21.587   9.205  24.995  0.0125 -0.2414 -0.0275
 2681W        W45775  21.560   8.966  24.511  0.3135  0.0548 -0.1123
 2682W        W45776  22.015   8.259  26.159  0.1533  0.1573  0.0437
 2683W        W45777  23.050   9.746  26.591 -0.0158  0.3582 -0.0678
 2684W        W45778  25.713   7.550  24.330 -0.3427  0.0552  0.2160
 2685W        W45779  22.870   8.292  26.144  0.0213  0.0515 -0.1949
 2686W        W45780  24.020   7.355  24.361 -0.2412  0.0158 -0.5378
 2687W        W45781  22.873   8.744  25.830  0.3226  0.3804 -0.3165
 2688W        W45782  25.168  11.325  24.951 -0.0468 -0.3480 -0.0182
 2689W        W45783  25.205   9.059  24.440 -0.1444  0.1317  0.0249
 2690W        W45784  24.103  10.801  24.144  0.1734  0.0478  0.0584
 2691W        W45785  20.985   9.755  25.675  0.2840  0.1666  0.0053
 2692W        W45786  21.927   9.024  24.187 -0.1052 -0.2124  0.1576
 2693W        W45787  22.395   9.112  27.343 -0.2246  0.0173  0.0740
 2694W        W45788  23.517   9.002  25.562 -0.3522  0.0013 -0.0544
 2695W        W45789  24.515   7.491  27.512  0.0587  0.2206  0.1038
 2696W        W45790  22.651   7.482  25.807  0.0640  0.0054 -0.3415
 2697W        W45791  24.850   9.062  25.485 -0.0908 -0.3750 -0.0294
 2698W        W45792  24.933  10.073  25.714  0.1005  0.0982 -0.0975
 2699W        W45793  21.621   7.979  24.046 -0.0266 -0.2028  0.3024
 2700W        W45794  24.166   7.577  26.715 -0.3355 -0.1038  0.2663
 2701W        W45795  25.134  11.695  23.504  0.1725  0.2019  0.1444
 2702W        W45796  25.975  10.954  25.827  0.1719 -0.0780 -0.0665
 2703W        W45797  23.676  10.654  25.070  0.0066  0.0023 -0.0064
 2704W        W45798  20.909   6.502  27.236 -0.0690 -0.0394 -0.0733
 2705W        W45799  22.966   7.377  23.390 -0.1466 -0.2235  0.0855
 2706W        W45800  22.281  10.728  25.771  0.0083 -0.1577  0.0591
 2707W        W45801  22.696  10.653  24.826  0.0169 -0.1043 -0.2290
 2708W        W45802  24.186   8.674  24.803  0.2818  0.0462  0.0232
 2709W        W45803  25.066  11.572  25.797 -0.0909  0.1748 -0.2514
 2710W        W45804  23.060   9.945  24.222  0.0915  0.0815  0.0227
 2711W        W45805  23.141   9.120  26.753 -0.1490  0.3191  0.1978
 2712W        W45806  25.112   6.649  26.905  0.0959  0.0689  0.2702
 2713W        W45807  26.167   9.376  26.337  0.0525  0.0322  0.3441
 2714W        W45808  25.714   8.668  26.520 -0.4049  0.3644 -0.1864
 2715W        W45809  23.077   8.311  23.731 -0.2631 -0.1166  0.3460
 2716W        W45810  23.233  10.570  24.763 -0.1181 -0.0214  0.1082
 2717W        W45811  21.657  10.077  25.212  0.3239  0.1014  0.0844
 2718W        W45812  21.771   9.266  26.391  0.0682  0.2901  0.3100
 2719W        W45813  22.477  10.603  24.319  0.0146  0.0204 -0.0521
 2720W        W45814  24.856   8.200  25.583 -0.0568  0.1726 -0.1579
 2721W        W45815  20.630  10.071  27.867 -0.2054  0.1629  0.0149
 2722W        W45816  24.425   8.685  27.000  0.1843  0.2083 -0.0313
 2723W        W45817  23.171   8.828  24.592  0.0470  0.0952 -0.0802
 2724W        W45818  23.675  10.192  29.088 -0.1049 -0.0081  0.1492
 2725W        W45819  25.214   8.220  25.913  0.0224 -0.2767  0.3526
 2726W        W45820  25.863   9.074  24.534 -0.3531 -0.2092  0.0189
 2727W        W45821  24.159  10.242  26.834 -0.1633  0.4358  0.0040
 2728W        W45822  24.641   9.664  23.824  0.2407 -0.1126  0.1694
 2729W        W45823  24.019   9.650  23.766 -0.0081 -0.1694  0.0643
 2730W        W45824  24.018   8.998  22.843 -0.0641  0.0934  0.2171
 2731W        W45825  21.143  10.352  27.392 -0.0017 -0.1631 -0.0447
 2732W        W45826  22.508   9.010  23.923  0.0065  0.1597 -0.1464
 2733W        W45827  22.368   9.863  24.348 -0.3241 -0.0093  0.1012
 2734W        W45828  24.315   9.197  24.502  0.0951 -0.1465  0.3198
 2735W        W45829  25.640  11.121  24.894  0.2906 -0.2698 -0.0455
 2736W        W45830  22.245   9.801  25.818 -0.0396  0.0505 -0.1517
 2737W        W45831  24.308  10.325  27.323  0.2807 -0.1202 -0.0633
 2738W        W45832  24.326  11.671  26.405  0.2054 -0.0003  0.3038
 2739W        W45833  23.545   7.327  26.536  0.0493  0.0861  0.0634
 2740W        W45834  23.679   8.565  22.894  0.2856 -0.1105  0.1634
 2741W        W45835  22.816   8.977  24.859 -0.2875 -0.0136 -0.0226
 2742W        W45836  21.370  11.448  24.261  0.0137  0.1084 -0.0356
 2743W        W45837  25.328   8.247  24.805 -0.1159  0.1289 -0.2718
 2744W        W45838  23.836   7.210  26.922 -0.0869 -0.0533  0.2666
 2745W        W45839  24.049   8.202  26.639 -0.0953 -0.1197 -0.0416
 2746W        W45840  24.953   9.087  28.431 -0.0793 -0.1822 -0.3357
 2747W        W45841  24.211   9.424  26.162 -0.1090 -0.0951  0.1402
 2748W        W45842  22.239   9.403  26.215 -0.0567 -0.3047 -0.0460
 2749W        W45843  21.028   8.359  24.344 -0.1420  0.0790 -0.0136
 2750W        W45844  22.765   8.165  27.594  0.0410 -0.2325 -0.2282
 2751W        W45845  21.300   8.384  27.896 -0.0614  0.1401 -0.1247
 2752W        W45846  23.012  11.170  26.085  0.0714 -0.1004  0.1297
 2753W        W45847  24.600  10.213  24.835  0.1010 -0.1662 -0.0020
 2754W        W45848  23.202   8.935  24.083  0.1432 -0.0978 -0.0397
 2755W        W45849  23.645   9.069  27.515  0.2409  0.1625  0.1003
 2756W        W45850  23.512   8.438  23.989 -0.3247  0.0126  0.0182
 2757W        W45851  24.660  11.497  23.406  0.3299 -0.0680  0.2221
 2758W        W45852  23.522   9.982  25.703 -0.1695  0.2633  0.0435
 2759W        W45853  22.008   7.853  26.510  0.0163  0.1077  0.2758
 2760W        W45854  22.950  10.225  25.109  0.0811  0.1208 -0.1669
 2761W        W45855  23.057  10.051  23.093 -0.2539 -0.1446  0.3302
 2762W        W45856  24.636   9.817  25.238  0.2552  0.2210  0.0002
 2763W        W45857  21.331  10.207  24.653  0.1245  0.0051 -0.2250
 2764W        W45858  24.478   7.840  25.859 -0.1503  0.1819  0.4121
 2765W        W45859  21.899  10.195  24.792  0.1368  0.0935 -0.0437
 2766W        W45860  24.157   8.280  24.256 -0.1683 -0.1103  0.1807
 2767W        W45861  21.268   9.589  22.935 -0.0524  0.0991  0.3086
 2768W        W45862  24.278   7.897  25.369  0.1423  0.2083  0.3435
 2769W        W45863  25.290   8.583  24.260  0.3221  0.0915  0.2866
 2770W        W45864  22.348  10.086  27.062 -0.1083 -0.0900  0.2187
 2771W        W45865  23.629   7.666  27.482 -0.0221  0.3536 -0.0819
 2772W        W45866  22.487  11.106  26.035  0.0362 -0.3426 -0.0985
 2773W        W45867  25.388   8.986  26.479 -0.2091 -0.1443  0.1176
 2774W        W45868  24.784   8.577  25.233 -0.3099 -0.1924 -0.3209
 2775W        W45869  25.084   9.919  26.219 -0.0169  0.1658  0.1426
 2776W        W45870  23.696  10.179  26.609 -0.1231 -0.4058 -0.2563
 2777W        W45871  22.431   8.234  24.353  0.2857  0.3383  0.1384
 2778W        W45872  23.959   9.348  26.622 -0.3143 -0.0102 -0.2063
 2779W        W45873  22.462   8.940  25.551 -0.0659  0.1451 -0.0626
 2780W        W45874  22.945  10.621  26.795  0.2349  0.1480 -0.0669
 2781W        W45875  24.021  12.134  26.241  0.2206  0.0295  0.1575
 2782W        W45876  21.954   8.952  22.693  0.2943 -0.0043  0.0957
 2783W        W45877  23.257  11.854  24.439  0.0163 -0.5455  0.1734
 2784W        W45878  23.450   9.258  28.380 -0.1725 -0.1790 -0.2038
 2785W        W45879  26.611   9.374  26.562  0.0142  0.1454 -0.5368
 2786W        W45880  23.273   8.663  25.112  0.1101  0.1748  0.3375
 2787W        W45881  24.079   6.915  25.301  0.0170 -0.3668 -0.3776
 2788W        W45882  21.861   9.613  24.767  0.0645 -0.0776  0.1192
 2789W        W45883  25.027  11.391  24.344 -0.2966 -0.0908  0.2896
 2790W        W45884  23.930   8.525  27.033 -0.1412  0.0454  0.2210
 2791W        W45885  23.538   9.575  27.935 -0.0484 -0.1923  0.2613
 2792W        W45886  23.906   7.252  25.988  0.3494  0.0724  0.0108
 2793W        W45887  26.438  12.366  24.068 -0.0883 -0.2448 -0.0124
 2794W        W45888  23.262   8.690  27.529 -0.0986 -0.2534 -0.0422
 2795W        W45889  22.581  10.631  23.296 -0.0338  0.2430 -0.0146
 2796W        W45890  21.415   9.427  24.337 -0.2442  0.3022 -0.2806
 2797W        W45891  22.967  10.624  24.314 -0.1051  0.2038  0.1459
 2798W        W45892  25.533   7.916  28.059 -0.0250 -0.0394  0.2547
 2799W        W45893  22.675   9.397  26.796 -0.1747  0.0894  0.2227
 2800W        W45894  22.951  11.601  25.163 -0.1908  0.0633 -0.2258
 2801W        W45895  23.215   9.091  27.236  0.3954 -0.4626 -0.2808
 2802W        W45896  24.816   6.918  24.697  0.0191  0.1491  0.1589
 2803W        W45897  23.146   9.930  24.691 -0.0448  0.0627 -0.1283
 2804W        W45898  24.424   8.190  26.996 -0.0992 -0.1277  0.2427
 2805W        W45899  25.550   6.489  27.562  0.1361  0.0704 -0.0464
 2806W        W45900  24.257   8.113  26.170 -0.1341 -0.2544 -0.2021
 2807W        W45901  24.810   7.135  27.689 -0.4101 -0.2523  0.1523
 2808W        W45902  23.403   8.655  25.987  0.2096  0.5369 -0.1854
 2809W        W45903  25.414  10.148  25.780  0.0504  0.1171  0.2880
 2810W        W45904  21.355   8.487  26.186 -0.3244  0.0877 -0.0382
 2811W        W45905  24.366  11.457  27.718  0.1555  0.0801 -0.1197
 2812W        W45906  23.846   9.194  28.089  0.0314 -0.1929  0.1122
 2813W        W45907  22.729   9.727  24.880 -0.0333 -0.0771  0.1973
 2814W        W45908  22.951   7.852  23.617  0.0873  0.3928 -0.0531
 2815W        W45909  23.002   8.824  26.398  0.1818 -0.3890  0.1708
 2816W        W45910  25.038  10.561  25.537 -0.1214  0.2852  0.0098
 2817W        W45911  22.778  10.633  23.794  0.1663  0.0063 -0.0262
 2818W        W45912  25.228   8.786  25.128 -0.1143  0.4572  0.0946
 2819W        W45913  22.518   8.978  26.526 -0.1111 -0.1084 -0.1095
 2820W        W45914  24.589   7.833  26.535 -0.1394  0.1402  0.0432
 2821W        W45915  22.116  10.257  24.244 -0.2618  0.0859 -0.0261
 2822W        W45916  21.270  10.445  25.151  0.1381 -0.0217 -0.1384
 2823W        W45917  24.518   9.130  26.414  0.4084 -0.0819  0.0115
 2824W        W45918  24.214  10.713  25.416  0.0630 -0.2978 -0.0372
 2825W        W45919  23.000   9.023  25.338  0.0047 -0.1625  0.0663
 2826W        W45920  23.482   7.082  28.268 -0.0324 -0.0544  0.0060
 2827W        W45921  23.498   8.964  26.466  0.1846  0.1433 -0.0816
 2828W        W45922  23.213   9.189  25.940 -0.0426 -0.2130 -0.0534
 2829W        W45923  21.751   7.202  27.822 -0.4663 -0.2818 -0.0608
 2830W        W45924  24.572  10.712  27.005 -0.3262  0.0008 -0.1486
 2831W        W45925  25.133   7.771  25.200 -0.1527 -0.0981  0.1879
 2832W        W45926  25.961   8.060  25.578  0.1789 -0.1021 -0.2021
 2833W        W45927  25.475   9.226  24.981  0.0650  0.0798 -0.0624
 2834W        W45928  23.919   9.450  24.211  0.0259 -0.1660  0.0679
 2835W        W45929  24.698   8.093  24.221 -0.2626 -0.1750  0.1853
 2836W        W45930  24.721   9.327  27.746  0.0530 -0.0269 -0.2502
 2837W        W45931  22.431   8.099  24.876 -0.1083 -0.0460 -0.1214
 2838W        W45932  23.825   7.409  27.945  0.1479  0.1061 -0.0002
 2839W        W45933  22.679  11.126  25.555 -0.0193 -0.0516 -0.3538
 2840W        W45934  24.679  11.021  25.655 -0.3521 -0.3343  0.0793
 2841W        W45935  23.998   9.415  25.354 -0.2138  0.2540  0.1841
 2842W        W45936  21.701   8.616  24.925  0.0968  0.1383  0.0747
 2843W        W45937  21.846  10.816  26.784  0.1141  0.4147  0.0015
 2844W        W45938  21.745   7.359  23.854  0.1197  0.0370 -0.1892
 2845W        W45939  23.632  10.061  24.625 -0.1925 -0.2324 -0.3465
 2846W        W45940  22.776   9.360  26.278  0.2265  0.0579 -0.0535
 2847W        W45941  23.862   9.917  27.101 -0.0520  0.1740  0.1932
 2848W        W45942  22.790   6.882  23.530  0.2906 -0.0611  0.0781
 2849W        W45943  24.098   8.850  27.703  0.1163 -0.1924  0.1617
 2850W        W45944  24.306  10.052  23.956  0.0603 -0.3477 -0.1170
 2851W        W45945  25.936   8.518  27.754 -0.0188  0.0054 -0.1993
 2852W        W45946  22.330  11.126  27.407  0.1158  0.1155 -0.0210
 2853W        W45947  21.892   9.760  26.484 -0.0627 -0.0100 -0.1460
 2854W        W45948  23.189   9.499  25.469  0.2551 -0.3075  0.3643
 2855W        W45949  24.448   8.963  27.409  0.2232  0.1022  0.2578
 2856W        W45950  26.110  10.303  26.612 -0.3689  0.0593 -0.1690
 2857W        W45951  24.724  11.297  27.199  0.3369  0.4431  0.1275
 2858W        W45952  25.369   8.413  27.691  0.0553  0.0670  0.0563
 2859W        W45953  24.494   9.817  26.001 -0.1077 -0.0211 -0.0198
 2860W        W45954  23.558   9.684  25.229  0.1284  0.4643  0.1665
 2861W        W45955  23.419  10.735  26.678 -0.0300  0.0131 -0.0286
 2862W        W45956  24.841   9.328  26.705 -0.0340  0.2955 -0.0110
 2863W        W45957  22.246   9.839  24.956  0.1025  0.1611  0.0657
 2864W        W45958  21.869   9.419  28.293 -0.2257  0.0623 -0.0053
 2865W        W45959  23.540   8.422  26.618 -0.0171  0.0827  0.3046
 2866W        W45960  23.877  10.293  25.435  0.2526  0.0130  0.1196
 2867W        W45961  22.927   7.828  24.686 -0.1919 -0.0319  0.2187
 2868W        W45962  22.992  11.131  23.927  0.1799  0.1976 -0.1078
 2869W        W45963  23.025  12.134  27.099  0.3848 -0.0517  0.0176
 2870W        W45964  21.487   8.936  25.958 -0.3073  0.0203 -0.0888
 2871W        W45965  21.692  12.389  26.114  0.0959  0.0071 -0.3115
 2872W        W45966  24.278  10.063  23.475  0.2309 -0.1465  0.2980
 2873W        W45967  24.060  11.231  24.674 -0.3160  0.4689 -0.0351
 2874W        W45968  24.150  11.061  26.828 -0.1872  0.1133 -0.0653
 2875W        W45969  22.936   8.910  22.049 -0.0155 -0.0483  0.0208
 2876W        W45970  22.779  10.199  24.582 -0.0076  0.0953 -0.1092
 2877W        W45971  21.893   9.521  24.182  0.3161  0.1940  0.0314
 2878W        W45972  24.267  10.862  23.438  0.0935 -0.1261 -0.0785
 2879W        W45973  22.587  10.255  25.801  0.3034  0.0015 -0.0940
 2880W        W45974  25.555   9.754  26.388 -0.1454  0.2122  0.0677
 2881W        W45975  24.775   7.294  23.677  0.1026 -0.1227 -0.4879
 2882W        W45976  24.032   8.818  25.716  0.0376  0.0928  0.2549
 2883W        W45977  25.076   7.918  26.318  0.0021 -0.0107  0.0135
 2884W        W45978  24.654  11.093  28.023 -0.1223 -0.0662 -0.1193
 2885W        W45979  23.943   9.813  25.976  0.0877  0.0566  0.0714
 2886W        W45980  24.357   9.445  24.999  0.3102  0.0053  0.0861
 2887W        W45981  24.089   9.471  27.080  0.0627  0.0058 -0.2732
 2888W        W45982  25.438   8.121  29.098 -0.0224  0.0572 -0.0020
 2889W        W45983  22.390  10.596  26.785  0.1596  0.0044  0.1672
 2890W        W45984  23.774  11.471  25.013 -0.1671 -0.2785  0.1797
 2891W        W45985  21.763   8.059  24.924 -0.2505  0.1105  0.0500
 2892W        W45986  22.271   8.553  23.188 -0.0967 -0.3611 -0.1797
 2893W        W45987  25.382   7.847  26.760 -0.0966 -0.1430 -0.1333
 2894W        W45988  22.128   9.947  22.887 -0.0548  0.0505  0.0950
 2895W        W45989  22.281   9.380  25.604 -0.1552 -0.0978 -0.0393
 2896W        W45990  23.220  11.036  24.454  0.0641 -0.1498 -0.0284
 2897W        W45991  23.483   9.597  24.431 -0.0684 -0.1508  0.3119
 2898W        W45992  22.992  11.944  25.487  0.2503  0.3116  0.0957
 2899W        W45993  22.269   8.078  22.982  0.1231  0.2355 -0.4214
 2900W        W45994  25.744   9.028  23.478 -0.5241  0.1158  0.0621
 2901W        W45995  23.772   7.796  26.262 -0.0165 -0.1726 -0.1010
 2902W        W45996  25.162   6.830  27.525  0.1727  0.0781  0.0690
 2903W        W45997  23.084   8.620  23.160 -0.1613 -0.0005 -0.1357
 2904W        W45998  24.014   8.205  25.718 -0.3770  0.2778 -0.4107
 2905W        W45999  24.092  10.357  26.278  0.0978 -0.0476 -0.1311
 2906W        W46000  21.864   9.014  26.802  0.1251  0.1720  0.2104
 2907W        W46001  24.572   9.501  25.588 -0.0964 -0.0265 -0.0471
 2908W        W46002  24.036  10.702  27.171  0.0257 -0.4208 -0.0753
 2909W        W46003  24.687   8.828  24.810 -0.0865  0.0112  0.0827
 2910W        W46004  24.594  10.291  25.374 -0.1936 -0.2866 -0.1819
 2911W        W46005  22.351   6.697  25.750 -0.2577 -0.1851  0.1654
 2912W        W46006  23.655   9.336  26.194 -0.0734 -0.1544 -0.0328
 2913W        W46007  21.960   9.710  25.383 -0.0432 -0.0259  0.2129
 2914W        W46008  22.400   9.624  27.166 -0.0605 -0.1311 -0.1901
 2915W        W46009  24.806   9.416  26.007 -0.0848  0.3910  0.1170
 2916W        W46010  24.032   8.022  23.851  0.1310  0.0531 -0.0542
 2917W        W46011  24.436   9.412  23.471  0.4515  0.1464  0.0292
 2918W        W46012  25.960   9.606  25.884 -0.0580  0.0279  0.1564
 2919W        W46013  22.258  10.391  23.804 -0.2193 -0.0286 -0.1139
 2920W        W46014  24.869   8.808  26.079 -0.2287  0.0588 -0.2290
 2921W        W46015  24.172  11.177  26.336 -0.2042 -0.0951  0.2034
 2922W        W46016  22.149   8.547  25.744 -0.1150 -0.0211  0.0506
 2923W        W46017  23.648  11.186  26.919  0.1507 -0.1849  0.0553
 2924W        W46018  23.963  11.609  25.984  0.1185 -0.0095  0.0338
 2925W        W46019  24.623   7.852  24.658 -0.1062  0.2500 -0.0589
 2926W        W46020  23.134   7.267  26.073 -0.0279  0.1011  0.1473
 2927W        W46021  21.246  10.730  25.578 -0.0667  0.1425 -0.0808
 2928W        W46022  25.081   8.636  25.661  0.1467  0.1051 -0.3467
 2929W        W46023  24.089   7.568  27.280 -0.3189  0.1924  0.0967
 2930W        W46024  24.559  10.577  22.406 -0.3160  0.3143  0.0774
 2931W        W46025  25.284   6.475  26.287 -0.1167 -0.4167 -0.2385
 2932W        W46026  24.910  10.646  26.539  0.1803  0.3002  0.3234
 2933W        W46027  21.616  10.212  27.468  0.1360 -0.2066  0.1564
 2934W        W46028  23.179   9.472  23.957 -0.2655  0.1536 -0.0537
 2935W        W46029  23.637   9.540  27.446  0.2943  0.1852 -0.0103
 2936W        W46030  22.157  10.203  25.509  0.2482 -0.1054  0.1854
 2937W        W46031  24.377  11.756  24.563  0.0361  0.1446  0.2295
 2938W        W46032  25.623  12.126  24.511  0.0281  0.2201 -0.0937
 2939W        W46033  24.339   8.966  25.218 -0.1810 -0.2571  0.0123
 2940W        W46034  26.477  11.594  24.593 -0.2294 -0.1282 -0.2264
 2941W        W46035  22.747   8.559  24.568 -0.5238  0.1146 -0.0739
 2942W        W46036  25.131   7.333  24.872  0.5747  0.0287  0.1027
 2943W        W46037  24.242   8.440  25.329 -0.0757 -0.1780  0.0186
 2944W        W46038  22.648   9.897  25.342 -0.2476  0.1768 -0.2082
 2945W        W46039  22.729   9.364  23.605 -0.0511 -0.2177  0.1776
 2946W        W46040  19.912   8.718  23.349  0.0325 -0.3524  0.3296
 2947W        W46041  22.409  10.264  25.002  0.0772  0.2710 -0.1424
 2948W        W46042  22.037   8.726  26.375  0.1379  0.0464 -0.0517
 2949W        W46043  22.274   8.759  27.710 -0.1225 -0.0689 -0.0188
 2950W        W46044  21.357   9.305  25.668 -0.0276  0.0226  0.1398
 2951W        W46045  23.431   7.515  23.706 -0.2090 -0.3971  0.0246
 2952W        W46046  24.581  10.436  24.347 -0.0798  0.3059  0.0038
 2953W        W46047  23.060   5.941  25.569 -0.0984  0.0127 -0.0927
 2954W        W46048  23.035   7.795  25.253 -0.0583  0.2187 -0.0418
 2955W        W46049  23.515  10.161  25.087  0.1449  0.1777  0.2631
 2956W        W46050  24.881  10.015  24.320  0.0723  0.2721 -0.0730
 2957W        W46051  23.546   7.978  25.566  0.0095  0.0735  0.0907
 2958W        W46052  25.182  10.652  26.105 -0.3849 -0.1652  0.1450
 2959W        W46053  20.855  11.121  24.598  0.1067 -0.0272 -0.0071
 2960W        W46054  22.802   8.912  27.031  0.1060  0.2843 -0.2638
 2961W        W46055  22.569   8.467  25.441  0.1154  0.2339  0.0577
 2962W        W46056  20.521   7.381  23.321 -0.3310 -0.2955 -0.2943
 2963W        W46057  24.549   7.289  26.636  0.0739  0.3455 -0.1404
 2964W        W46058  23.355  10.394  24.331 -0.0582 -0.1775  0.1767
 2965W        W46059  23.074   9.808  23.564  0.0057  0.1949  0.2317
 2966W        W46060  23.176  10.282  26.473 -0.1245  0.1227  0.2644
 2967W        W46061  25.739  11.003  27.657 -0.0303 -0.0279 -0.1692
 2968W        W46062  22.017   7.385  26.309  0.2246  0.1158  0.0677
 2969W        W46063  24.302  10.801  24.600 -0.0727  0.0304 -0.2770
 2970W        W46064  23.806  10.958  28.468  0.2406  0.0714  0.2145
 2971W        W46065  23.828  10.592  24.472  0.2037 -0.0514 -0.1979
 2972W        W46066  26.312   9.004  25.790 -0.1693 -0.0285  0.0627
 2973W        W46067  22.680   9.481  24.056 -0.1754 -0.0621 -0.0738
 2974W        W46068  21.303   6.189  28.866 -0.1609 -0.1077 -0.0751
 2975W        W46069  22.467   9.053  26.022 -0.1683 -0.0638  0.1021
 2976W        W46070  25.477   9.694  26.937 -0.2426  0.0083  0.0657
 2977W        W46071  22.856   8.014  24.147  0.0690 -0.0156  0.0437
 2978W        W46072  24.720   8.063  25.134 -0.4090  0.1236  0.1800
 2979W        W46073  25.019  10.474  22.584 -0.3041 -0.1738  0.0204
 2980W        W46074  21.251  10.596  24.229  0.2708 -0.1417  0.1635
 2981W        W46075  23.196   9.480  24.926  0.1405  0.1471 -0.2299
 2982W        W46076  23.471   8.130  26.030 -0.0426 -0.2804  0.1011
 2983W        W46077  23.291  11.124  25.078  0.0125  0.0304  0.2920
 2984W        W46078  24.544   8.873  27.966 -0.0858  0.0455  0.0053
 2985W        W46079  21.918   9.936  23.861 -0.0498  0.0056  0.1317
 2986W        W46080  25.564   9.530  23.279  0.0514  0.3496 -0.1626
 2987W        W46081  25.360  11.400  27.568  0.1509 -0.0111  0.0738
 2988W        W46082  24.998   9.764  27.714 -0.2142 -0.0762  0.2719
 2989W        W46083  22.972  11.444  26.528  0.4397  0.2059 -0.1664
 2990W        W46084  25.751   9.375  26.670 -0.1623 -0.0851  0.0991
 2991W        W46085  21.316   7.759  26.314  0.0364  0.4440  0.1982
 2992W        W46086  21.543   8.589  23.417  0.2138 -0.2839 -0.0127
 2993W        W46087  22.291   8.545  23.859 -0.0804 -0.4395  0.1280
 2994W        W46088  24.002   8.992  26.237 -0.1189  0.1068 -0.1702
 2995W        W46089  24.876   8.073  26.844  0.0901  0.0727 -0.0140
 2996W        W46090  24.349   8.701  26.223  0.1701  0.0850  0.1776
 2997W        W46091  22.356  10.943  25.088  0.0874 -0.0727  0.0060
 2998W        W46092  24.496   9.091  25.793 -0.1421 -0.2706  0.0991
 2999W        W46093  23.209   9.884  31.083  0.0947 -0.0180 -0.2318
 3000W        W46094  22.249   7.259  27.813  0.1755  0.2221 -0.0038
 3001W        W46095  25.864   7.681  28.403  0.0227 -0.1737  0.2236
 3002W        W46096  25.972   8.918  28.129 -0.1237 -0.3238  0.1216
 3003W        W46097  21.328   9.372  28.516  0.1113  0.3870  0.1967
 3004W        W46098  23.389  10.914  27.205  0.0514 -0.0248 -0.3277
 3005W        W46099  23.114   7.608  31.280 -0.3464  0.1039 -0.3381
 3006W        W46100  25.489  10.564  30.425 -0.0944 -0.1730  0.0667
 3007W        W46101  25.120   9.901  28.629  0.0549  0.1131  0.3727
 3008W        W46102  22.821   9.440  27.377  0.1654  0.2327 -0.1126
 3009W        W46103  21.653   9.027  30.626 -0.1459  0.0047  0.2145
 3010W        W46104  23.582   9.705  29.909 -0.2446  0.0757 -0.0583
 3011W        W46105  23.229   7.328  27.192 -0.1774  0.1655  0.1987
 3012W        W46106  21.066   8.857  29.281  0.0513  0.2424 -0.2222
 3013W        W46107  24.928   7.714  29.974  0.2539  0.3267  0.1023
 3014W        W46108  22.381   9.034  28.140  0.3529  0.1142 -0.2795
 3015W        W46109  22.008   9.021  28.995 -0.2975  0.3456 -0.0731
 3016W        W46110  23.632   6.726  27.877 -0.0266  0.0644  0.1670
 3017W        W46111  22.879  10.458  29.157  0.0746  0.3284 -0.0277
 3018W        W46112  22.274   9.446  29.060 -0.1525 -0.0589  0.1137
 3019W        W46113  24.370   7.522  31.431 -0.2799 -0.2514  0.2822
 3020W        W46114  23.811  10.247  29.575  0.4537 -0.0255 -0.0446
 3021W        W46115  23.111   8.875  28.007  0.0970 -0.1191  0.0015
 3022W        W46116  22.766  10.449  30.603 -0.2629  0.0482 -0.2322
 3023W        W46117  22.859  10.176  29.595  0.4786  0.2672  0.0355
 3024W        W46118  25.944   6.967  28.500  0.1784 -0.1819  0.1754
 3025W        W46119  24.043   8.546  29.545  0.1093 -0.2280 -0.1505
 3026W        W46120  21.715   8.526  28.692  0.0482 -0.0801  0.0304
 3027W        W46121  26.021   9.451  29.896  0.1177 -0.0220 -0.0627
 3028W        W46122  24.222   9.019  30.277  0.0341  0.2046  0.1744
 3029W        W46123  23.070   9.696  28.383 -0.0819  0.0144 -0.1034
 3030W        W46124  21.075  10.202  29.046  0.0683 -0.0290  0.0532
 3031W        W46125  23.320  10.366  28.790 -0.0706 -0.2700 -0.0949
 3032W        W46126  25.476   9.792  27.530  0.3241  0.1262 -0.2838
 3033W        W46127  26.003  10.926  29.253 -0.2319 -0.1416 -0.0639
 3034W        W46128  25.370   9.639  30.975  0.0102 -0.4503 -0.3459
 3035W        W46129  21.537  10.699  27.263 -0.0138  0.1952  0.0433
 3036W        W46130  25.387  10.625  30.931  0.2008 -0.0235  0.2939
 3037W        W46131  23.355  11.220   0.303 -0.2511 -0.1015 -0.1300
 3038W        W46132  23.523   8.671  29.671 -0.3651 -0.0494 -0.2242
 3039W        W46133  22.552   7.895  28.014  0.2361  0.0915  0.0159
 3040W        W46134  22.430  10.708  28.941 -0.0331  0.1946 -0.2784
 3041W        W46135  23.556   9.893  28.401 -0.0101  0.3912 -0.1356
 3042W        W46136  24.277  10.359   0.946 -0.4477 -0.2415  0.0947
 3043W        W46137  21.833   9.471  28.806  0.1617 -0.2197  0.0612
 3044W        W46138  25.371   7.574  30.431 -0.0242 -0.1929 -0.2103
 3045W        W46139  23.117  10.142  28.172  0.0789  0.2713  0.1912
 3046W        W46140  24.466   9.737  27.888  0.0395  0.2457  0.2512
 3047W        W46141  23.367   8.119  27.548  0.0843  0.0536  0.0408
 3048W        W46142  23.184   8.588  28.398 -0.1082 -0.0820 -0.0752
 3049W        W46143  22.739   7.890  30.438 -0.2528  0.1222 -0.0800
 3050W        W46144  22.197  11.294  30.104 -0.3822 -0.1999  0.0370
 3051W        W46145  22.489   7.638  30.063  0.0987  0.0472 -0.0046
 3052W        W46146  24.013  10.082  28.699 -0.2134 -0.1143 -0.2372
 3053W        W46147  24.205   9.799  27.472 -0.0239 -0.1269 -0.1770
 3054W        W46148  23.742   9.179  29.254  0.0872  0.1793  0.6099
 3055W        W46149  21.921  10.666  30.957 -0.0999  0.2612 -0.3780
 3056W        W46150  22.972   9.732  29.080 -0.0722 -0.3739 -0.1144
 3057W        W46151  25.257   9.924  28.124 -0.2190 -0.0481  0.1570
 3058W        W46152  26.201   9.367  29.434  0.1564  0.2355 -0.0672
 3059W        W46153  23.721  10.755  29.154  0.0351  0.3290  0.2300
 3060W        W46154  22.703   8.532  29.270  0.5045 -0.1744  0.2318
 3061W        W46155  22.398   9.007  30.330 -0.2357 -0.2879  0.0505
 3062W        W46156  20.833   9.532  31.835 -0.2168 -0.2289  0.0475
 3063W        W46157  20.716   9.545  27.163  0.1918  0.0273  0.2400
 3064W        W46158  26.249   9.330  30.690  0.0238  0.1851 -0.0838
 3065W        W46159  21.541  10.496   0.760  0.0252 -0.2010  0.4384
 3066W        W46160  25.148   8.328  28.591  0.0440 -0.0550 -0.2552
 3067W        W46161  23.211   8.340  29.381 -0.0395  0.0875 -0.0480
 3068W        W46162  25.006   9.511  28.191 -0.3216  0.1814 -0.1960
 3069W        W46163  24.072   9.846  26.511 -0.2150  0.0928 -0.1180
 3070W        W46164  23.302   6.288  27.928 -0.0236 -0.1382  0.3039
 3071W        W46165  24.297   9.781  30.506 -0.1931 -0.0594  0.0572
 3072W        W46166  22.509   8.425  28.773 -0.3296 -0.1005  0.1478
 3073W        W46167  22.431   7.829  28.535  0.2226 -0.1837 -0.1819
 3074W        W46168  25.298   8.701  29.638 -0.0683  0.0279  0.4986
 3075W        W46169  23.619   8.821  28.374  0.0316  0.1649 -0.1462
 3076W        W46170  22.240  12.279  30.654 -0.3219 -0.0047 -0.2113
 3077W        W46171  22.904   9.298  31.603  0.3231  0.1062 -0.0673
 3078W        W46172  25.059  10.038  31.216  0.0049 -0.1720 -0.2995
 3079W        W46173  21.704  10.284  28.043  0.0232  0.1275 -0.0749
 3080W        W46174  21.493   9.086  29.669 -0.5688 -0.1496 -0.1835
 3081W        W46175  22.064   9.460  26.886  0.1141  0.0675 -0.0512
 3082W        W46176  21.900   8.186  29.396 -0.1128 -0.2196  0.0536
 3083W        W46177  25.022   9.724  30.087 -0.1158 -0.2524 -0.1486
 3084W        W46178  25.331   7.255  29.615  0.0725  0.3319  0.2962
 3085W        W46179  22.788   8.077  29.988  0.3698 -0.0981  0.0279
 3086W        W46180  24.095   7.624  29.834 -0.1056 -0.4233  0.1513
 3087W        W46181  22.282   9.234  28.604  0.0440  0.0639 -0.0298
 3088W        W46182  25.472   8.967  28.326  0.2139 -0.3669 -0.0979
 3089W        W46183  24.448   9.183  28.806 -0.3111 -0.2208 -0.0931
 3090W        W46184  23.703  10.006  27.568 -0.0008 -0.0184  0.0545
 3091W        W46185  22.099   8.855  30.787 -0.0785 -0.2898  0.0552
 3092W        W46186  22.096   8.045  28.134  0.1886  0.1827 -0.0540
 3093W        W46187  22.419   8.289  31.161 -0.0390 -0.0088  0.1273
 3094W        W46188  22.527   8.876  29.793  0.1374  0.2380  0.1618
 3095W        W46189  24.346   8.147  30.867 -0.1467 -0.0250  0.0302
 3096W        W46190  21.588   7.592  29.479  0.0891 -0.0569  0.2256
 3097W        W46191  23.759   8.652  29.154 -0.1972  0.2952  0.3363
 3098W        W46192  22.389   8.471  28.234  0.1505 -0.3001  0.1906
 3099W        W46193  20.925  11.075  27.817 -0.1715  0.1256  0.1715
 3100W        W46194  24.133   7.208  29.552  0.1353 -0.4043  0.1716
 3101W        W46195  23.171   9.285  27.707  0.0687 -0.0347  0.3238
 3102W        W46196  25.641   9.816  28.570 -0.1340 -0.0228  0.3177
 3103W        W46197  25.220  11.174  28.488 -0.2286 -0.0485 -0.3286
 3104W        W46198  22.702   9.064  29.319  0.2307 -0.3618  0.0553
 3105W        W46199  21.121   9.259  27.244  0.1143  0.0162 -0.0931
 3106W        W46200  21.553  10.605  29.132  0.0327 -0.1337 -0.1019
 3107W        W46201  23.308   9.437  28.811  0.0535  0.0084 -0.2412
 3108W        W46202  23.712   7.928  28.547 -0.1763 -0.2686  0.0905
 3109W        W46203  24.634  10.607  28.258 -0.2493  0.3128 -0.1897
 3110W        W46204  22.538   7.663  27.522 -0.0420  0.2035 -0.1008
 3111W        W46205  22.203   9.431  31.830  0.0376 -0.0603 -0.0382
 3112W        W46206  24.273   8.537  30.005  0.2144 -0.2012 -0.2194
 3113W        W46207  24.149   9.495  29.235  0.2934 -0.3927  0.1858
 3114W        W46208  23.239   9.374  29.341 -0.2514 -0.4739 -0.0745
 3115W        W46209  23.145   7.790  27.011 -0.1828 -0.0617 -0.2940
 3116W        W46210  24.677   9.833  28.443  0.0185  0.1578 -0.3797
 3117W        W46211  22.388  10.200  28.714 -0.0198 -0.0833  0.2293
 3118W        W46212  20.919   8.531  28.925 -0.0608  0.5120  0.1836
 3119W        W46213  23.331  10.550  30.292  0.1724  0.0950  0.3696
 3120W        W46214  25.115   9.564  29.574 -0.1909  0.1616 -0.1263
 3121W        W46215  20.739   8.988  31.769 -0.1537  0.0530 -0.2326
 3122W        W46216  23.557   6.931  29.456  0.3336  0.4301 -0.3548
 3123W        W46217  22.773   9.028  27.667  0.0397 -0.1589  0.0576
 3124W        W46218  21.177  10.328   0.305 -0.1306  0.1877  0.1264
 3125W        W46219  24.189   7.706  28.793 -0.0676  0.0683 -0.1651
 3126W        W46220  25.411   8.200  27.165 -0.1800  0.1067  0.2938
 3127W        W46221  23.707   9.156  30.306 -0.3353 -0.2013  0.1254
 3128W        W46222  24.216   9.332  27.765 -0.2358  0.2988  0.3100
 3129W        W46223  23.044   7.720  27.482  0.2904  0.2327 -0.0473
 3130W        W46224  24.063   6.481  27.609 -0.2494 -0.1736  0.2186
 3131W        W46225  22.351   9.900  29.767 -0.2425 -0.3783 -0.4111
 3132W        W46226  24.072   9.642  28.208  0.2873 -0.0517  0.0034
 3133W        W46227  23.333  10.262  29.813 -0.1430  0.1272  0.3118
 3134W        W46228  24.597   7.829  27.869  0.3691 -0.0081 -0.4309
 3135W        W46229  25.870   9.899  27.212  0.1360  0.0780  0.2214
 3136W        W46230  22.502   9.687  28.601 -0.1266 -0.0459 -0.2989
 3137W        W46231  24.872   8.903  31.314 -0.2150  0.0765  0.0204
 3138W        W46232  23.787  10.546  28.729  0.0838 -0.0487  0.0654
 3139W        W46233  23.346   6.690  31.212 -0.0265 -0.1245 -0.0123
 3140W        W46234  23.213   8.109  28.517 -0.0158  0.1029 -0.0005
 3141W        W46235  24.609   7.808  29.084 -0.1448  0.2966  0.1204
 3142W        W46236  22.463  10.037  27.549  0.1273  0.0652  0.3816
 3143W        W46237  24.967   7.478  29.407 -0.0142  0.0605  0.1010
 3144W        W46238  23.432   7.282  29.906 -0.0750  0.0009 -0.3765
 3145W        W46239  24.591   7.872  30.416 -0.1886  0.1693 -0.0982
 3146W        W46240  24.135   7.641  30.371  0.0404  0.1004  0.0560
 3147W        W46241  26.611   8.223  29.637  0.0604 -0.2253 -0.0418
 3148W        W46242  23.578   7.626  30.279  0.1727 -0.3145 -0.1740
 3149W        W46243  22.404   7.044  26.095 -0.0787 -0.2015  0.0420
 3150W        W46244  23.701   7.387  29.462  0.0991  0.1035 -0.1377
 3151W        W46245  22.727  10.174  31.025  0.0261 -0.2625 -0.0905
 3152W        W46246  22.178  11.494  30.713  0.1914 -0.1390  0.0633
 3153W        W46247  23.588   9.629  30.440 -0.0125 -0.1712 -0.0114
 3154W        W46248  23.854  10.138  28.033 -0.0174 -0.0131 -0.2425
 3155W        W46249  23.921   8.885  29.893 -0.0454  0.0991 -0.0478
 3156W        W46250  23.678   7.948  27.924  0.0132 -0.1147  0.0194
 3157W        W46251  22.199  11.687  28.969 -0.1157  0.0145  0.3278
 3158W        W46252  23.035  10.738  27.667  0.2693 -0.0690 -0.0138
 3159W        W46253  22.101   7.131  30.559  0.3020  0.0963  0.2541
 3160W        W46254  23.059  10.510  31.225 -0.2335  0.0624 -0.0147
 3161W        W46255  24.423  10.485  27.804  0.2292 -0.0314  0.0578
 3162W        W46256  23.759   8.174  29.419 -0.0147  0.2470 -0.3123
 3163W        W46257  23.134  11.171  26.872 -0.0553  0.0126 -0.4047
 3164W        W46258  24.110   5.994  29.244  0.2225 -0.0418  0.2414
 3165W        W46259  21.452  10.727  31.248  0.0374 -0.2375  0.2514
 3166W        W46260  23.109   7.857  27.969  0.0966  0.0813 -0.1294
 3167W        W46261  21.499   8.785  30.173  0.1744  0.1746  0.3714
 3168W        W46262  25.067   7.923  28.909  0.1720 -0.3087  0.0116
 3169W        W46263  24.033   8.961  27.171 -0.2663  0.1733 -0.0167
 3170W        W46264  22.977   9.166  29.738 -0.0198  0.0588  0.2466
 3171W        W46265  24.189   8.095  29.745 -0.2014 -0.3210 -0.4975
 3172W        W46266  20.944   9.791  29.447  0.1858 -0.1009 -0.1370
 3173W        W46267  26.116   8.795  30.470  0.1823  0.0349 -0.0757
 3174W        W46268  26.253   8.344  28.307  0.0669  0.0555 -0.1159
 3175W        W46269  25.822   9.473  29.077 -0.2679 -0.0234 -0.1494
 3176W        W46270  23.819   7.795  30.760 -0.1988  0.3680 -0.1821
 3177W        W46271  21.975   8.774  27.284  0.3530  0.0139  0.0553
 3178W        W46272  24.854   7.683  30.873  0.3327 -0.2465  0.0830
 3179W        W46273  23.292   7.534  28.799 -0.2251 -0.3177 -0.1788
 3180W        W46274  21.991   9.925  28.499 -0.1606  0.1416 -0.3822
 3181W        W46275  24.305  10.746  30.142  0.1772 -0.3253  0.3226
 3182W        W46276  22.276   9.569  27.625  0.0317 -0.0835  0.3187
 3183W        W46277  23.705   9.739  28.936  0.1257 -0.2343  0.1984
 3184W        W46278  22.326   8.074  30.218  0.0668 -0.2318 -0.0471
 3185W        W46279  24.425   8.995  29.825  0.0439  0.1431  0.1177
 3186W        W46280  23.982   8.635  30.491  0.1748 -0.0521 -0.1518
 3187W        W46281  22.742   8.081  29.536  0.1373  0.0992  0.4464
 3188W        W46282  21.891   9.216  27.781  0.1387  0.0475 -0.0502
 3189W        W46283  24.018   9.351  29.711  0.2001 -0.0858  0.1629
 3190W        W46284  24.513   8.580  28.958 -0.0305  0.0942  0.1851
 3191W        W46285  22.427  11.474   0.004  0.1047  0.1441  0.3075
 3192W        W46286  22.616   6.690  29.540  0.0713  0.0514  0.1337
 3193W        W46287  26.554  11.688  28.818  0.0610 -0.2173  0.3391
 3194W        W46288  24.448   9.474  31.431  0.2346  0.1251 -0.2562
 3195W        W46289  21.847   9.790  27.832 -0.0697 -0.0263  0.0648
 3196W        W46290  21.286   9.785  30.157  0.2424 -0.3381  0.1651
 3197W        W46291  23.910  10.439  30.022  0.3372 -0.2243  0.2826
 3198W        W46292  24.078   9.482  30.175  0.0783  0.0550  0.0478
 3199W        W46293  21.483  10.236  30.010 -0.0630 -0.2632  0.5063
 3200W        W46294  22.829   9.283  28.165 -0.0762 -0.1733 -0.1346
 3201W        W46295  21.743  11.029   0.061 -0.1278  0.0116  0.0192
 3202W        W46296  23.877   7.427  28.551 -0.1172 -0.0344 -0.2427
 3203W        W46297  23.381  10.032  26.984  0.1533  0.3725  0.1586
 3204W        W46298  22.755   7.432  27.888 -0.2113  0.3865 -0.1318
 3205W        W46299  25.360   7.345  31.747 -0.0071  0.1206  0.0617
 3206W        W46300  23.189   9.695  25.950 -0.3051 -0.1798 -0.4457
 3207W        W46301  26.487   6.834  31.079 -0.0838  0.3103 -0.1393
 3208W        W46302  22.461   7.751  31.660  0.2234  0.0214  0.4144
 3209W        W46303  25.348   9.334  28.616  0.1555 -0.0868  0.0983
 3210W        W46304  23.196   9.429  30.132  0.1508  0.1175  0.2417
 3211W        W46305  23.716  10.208  31.081 -0.2144  0.0674 -0.1922
 3212W        W46306  23.625   9.782  31.306  0.0406  0.2534 -0.0332
 3213W        W46307  24.654   8.154  28.638  0.0731 -0.0982 -0.3580
 3214W        W46308  22.495   6.796  28.569  0.2231 -0.0942  0.3357
 3215W        W46309  22.787   9.781  30.215  0.0730 -0.3256 -0.0023
 3216W        W46310  23.873  10.545  27.700  0.0022  0.1286  0.3991
 3217W        W46311  23.498   8.424  28.769 -0.1395 -0.2917 -0.1760
 3218W        W46312  24.466   9.902  29.493  0.0171 -0.2409 -0.0277
 3219W        W46313  21.833   8.431  29.965 -0.0743 -0.2627 -0.0111
 3220W        W46314  23.144   8.819  29.239 -0.2575 -0.0879 -0.2157
 3221W        W46315  24.113   8.339  27.926  0.0011 -0.2899  0.1688
 3222W        W46316  22.506   8.887  28.923 -0.2238  0.2890  0.1116
 3223W        W46317  21.228   9.047  31.859 -0.1098 -0.0252 -0.2462
 3224W        W46318  25.975   8.804  29.998 -0.0364  0.0218  0.1300
 3225W        W46319  25.120   7.158  28.396  0.0864  0.2303  0.0583
 3226W        W46320  24.341   7.608  30.825  0.2708 -0.1298 -0.2298
 3227W        W46321  23.757   8.070  30.097 -0.0390 -0.2720  0.0066
 3228W        W46322  23.296   9.983  30.238  0.0366  0.0612  0.3441
 3229W        W46323  21.705   7.681  31.556 -0.0223  0.0528 -0.1315
 3230W        W46324  24.834  10.275  30.096  0.0888  0.0116  0.1120
 3231W        W46325  25.060   8.047  28.047 -0.1705  0.0755 -0.1026
 3232W        W46326  25.139   6.818  29.491 -0.1389  0.1325 -0.0170
 3233W        W46327  24.409   9.235  26.879 -0.2328  0.0328  0.0291
 3234W        W46328  22.322   8.151  29.169 -0.0057  0.0098 -0.0776
 3235W        W46329  21.980   8.033  30.551  0.0095 -0.0966  0.5812
 3236W        W46330  22.876   9.953  30.650  0.2454  0.2322  0.2610
 3237W        W46331  22.680   7.965  26.484  0.0137  0.0351 -0.3002
 3238W        W46332  23.648   8.220  30.553 -0.1271  0.3952 -0.2527
 3239W        W46333  23.115  10.418  27.279 -0.0707 -0.1374 -0.4978
 3240W        W46334  24.270   9.594  28.672 -0.0198 -0.0013  0.1039
 3241W        W46335  24.102   6.969  28.251  0.2136 -0.3046  0.5076
 3242W        W46336  21.425   8.487  29.230  0.2675  0.2022  0.0141
 3243W        W46337  24.239  12.161  31.281  0.2633 -0.1517  0.2537
 3244W        W46338  21.896   8.875  28.120 -0.0838  0.3152 -0.1240
 3245W        W46339  23.585   9.329  26.970  0.0759 -0.0992 -0.1399
 3246W        W46340  26.326  10.253  29.431  0.2165  0.0094 -0.2509
 3247W        W46341  25.389   8.886  31.214  0.2044 -0.0760 -0.1918
 3248W        W46342  23.316   6.935  26.335  0.2525 -0.1163 -0.0307
 3249W        W46343  25.069   8.073  30.409  0.0685  0.0047  0.1120
 3250W        W46344  22.604   9.558  29.414  0.2171  0.2550 -0.0361
 3251W        W46345  23.196   8.142  30.336 -0.0434 -0.0248 -0.0604
 3252W        W46346  22.610  11.216  30.612 -0.1928 -0.4857  0.2821
 3253W        W46347  22.932   9.246  31.041 -0.0518 -0.2834  0.1166
 3254W        W46348  21.124   9.814  28.642  0.0952 -0.1628 -0.0332
 3255W        W46349  23.746   7.651  28.973  0.0449  0.3333  0.0524
 3256W        W46350  24.423   8.200  29.275  0.0394 -0.0687 -0.1007
 3257W        W46351  22.826   9.692  27.876  0.1368  0.0104 -0.1344
 3258W        W46352  25.662   9.837  31.410 -0.2640  0.0309  0.2628
 3259W        W46353  24.387   9.087  31.187 -0.0213 -0.0837  0.0818
 3260W        W46354  23.566   8.690  27.920 -0.1157 -0.0734 -0.0380
 3261W        W46355  24.667  10.435  31.717  0.2437 -0.4643  0.1603
 3262W        W46356  23.907   9.218  28.705  0.2227 -0.1683 -0.1295
 3263W        W46357  23.205  11.819  30.919 -0.0003 -0.2465  0.1343
 3264W        W46358  21.393   8.172   0.571  0.0014 -0.1885 -0.1086
 3265W        W46359  23.432   9.818   0.261 -0.1662  0.2546  0.0147
 3266W        W46360  24.486   9.856  30.037  0.0754  0.1987  0.1159
 3267W        W46361  23.004   7.238  29.295  0.1072  0.0909  0.2974
 3268W        W46362  23.285  10.820  28.812  0.1248  0.3847  0.0133
 3269W        W46363  23.362  10.479  29.341  0.0747  0.2088 -0.0314
 3270W        W46364  21.517  10.085  30.472  0.1483  0.1718 -0.0570
 3271W        W46365  21.998  10.400  28.492 -0.1034  0.2537  0.0117
 3272W        W46366  24.560   8.754  28.491  0.4786 -0.0732 -0.0795
 3273W        W46367  23.579  10.454  27.137  0.1922  0.0283  0.0306
 3274W        W46368  24.184  10.104  30.900 -0.1692  0.0109  0.0480
 3275W        W46369  23.405   6.938  26.907  0.0850  0.0891  0.1850
 3276W        W46370  22.963  11.283  30.999  0.0161 -0.0625 -0.0129
 3277W        W46371  21.889  11.015  27.723  0.2898 -0.1866 -0.1843
 3278W        W46372  24.870   8.970  29.078 -0.0654  0.1119  0.2889
 3279W        W46373  22.080  10.519  27.659 -0.2094  0.0380 -0.2190
 3280W        W46374  26.201  10.767  31.540 -0.3030  0.1473 -0.1385
 3281W        W46375  24.128   8.843  28.232 -0.0639  0.0491  0.0569
 3282W        W46376  26.877   9.387  28.034  0.1290 -0.0032 -0.3425
 3283W        W46377  26.452   8.753  27.984 -0.1033  0.1670 -0.1831
 3284W        W46378  24.465  11.048  31.133  0.1334 -0.0450 -0.4475
 3285W        W46379  24.177   9.858  31.334 -0.1902  0.0048 -0.2386
 3286W        W46380  21.762   7.848  26.942 -0.0316 -0.2670  0.2809
 3287W        W46381  23.324   8.914  30.086 -0.1490  0.1275 -0.2720
 3288W        W46382  24.788   7.147  30.864 -0.3960 -0.0745  0.1047
 3289W        W46383  23.929  10.763  30.426 -0.0430 -0.1047  0.1244
 3290W        W46384  25.202  11.450  28.984  0.0228 -0.0190 -0.0266
 3291W        W46385  21.066  10.248  28.168  0.1153  0.1526 -0.0212
 3292W        W46386  23.496   8.964  28.841 -0.1579 -0.1557  0.3939
 3293W        W46387  25.265   6.468  30.337 -0.2900 -0.3929 -0.0247
 3294W        W46388  23.228   9.788  27.570 -0.3773  0.2514 -0.1496
 3295W        W46389  24.198   8.135  30.300  0.1674  0.1774 -0.3724
 3296W        W46390  22.680  10.009  28.291  0.0923  0.2802  0.1264
 3297W        W46391  24.461  10.558  30.668  0.1137  0.0028 -0.0333
 3298W        W46392  24.402   9.975  28.992  0.1235  0.1259 -0.1898
 3299W        W46393  22.061   8.172  28.636  0.0471 -0.2325  0.0995
 3300W        W46394  25.295   6.907  29.027 -0.0262 -0.0672 -0.0274
 3301W        W46395  22.428  11.225  31.095  0.1600 -0.1002 -0.2062
 3302W        W46396  24.366   7.165  31.124 -0.0577 -0.3045  0.1632
 3303W        W46397  21.721   9.020  28.611 -0.0769  0.1352  0.1868
 3304W        W46398  25.253   8.559  28.104  0.0985 -0.2872 -0.0436
 3305W        W46399  23.714   9.681  29.459  0.1649 -0.1475 -0.2743
 3306W        W46400  23.561   8.513  30.170  0.0571 -0.0253 -0.0098
 3307W        W46401  22.780   8.248  28.324 -0.1051 -0.2431 -0.1771
 3308W        W46402  24.845   8.599  29.825 -0.0916 -0.1969  0.4005
 3309W        W46403  24.628   7.702  27.074  0.1375  0.0599 -0.1249
 3310W        W46404  24.999  10.458  30.532  0.3864 -0.3995 -0.1187
 3311W        W46405  21.928   7.635  28.744 -0.1521 -0.1978 -0.0191
 3312W        W46406  24.073   7.831  28.161 -0.0483  0.1963 -0.2121
 3313W        W46407  21.330   9.996  27.814  0.1397 -0.0956  0.0242
 3314W        W46408  23.016   9.702  29.710  0.4614  0.0343 -0.2229
 3315W        W46409  25.809  11.246  31.093  0.2218  0.0633  0.1173
 3316W        W46410  22.721   8.066  27.108  0.2877 -0.0314 -0.0149
 3317W        W46411  23.786   8.426  27.514 -0.0905 -0.2329  0.0225
 3318W        W46412  24.021   8.185  28.869  0.0975 -0.4108 -0.2317
 3319W        W46413  23.551  10.693  29.742 -0.3625 -0.0062  0.2081
 3320W        W46414  24.929   8.384  29.269 -0.4088 -0.1541 -0.2914
 3321W        W46415  25.333   9.936  30.529 -0.1348 -0.1641 -0.1064
 3322W        W46416  22.210  10.307  30.802 -0.0432  0.0599  0.0736
 3323W        W46417  25.765  10.218  29.635  0.0575 -0.1643  0.1260
 3324W        W46418  26.916   9.601  29.408  0.1502 -0.2465  0.1266
 3325W        W46419  23.457   7.598  28.247 -0.0549  0.0984 -0.0141
 3326W        W46420  24.180   8.950  29.265 -0.1575  0.1982 -0.2126
 3327W        W46421  21.972  10.286  29.045 -0.1517  0.0782  0.0532
 3328W        W46422  25.858   8.239  29.991 -0.0147 -0.0241  0.0802
 3329W        W46423  24.739   8.875  30.242  0.1052  0.1905  0.3273
 3330W        W46424  24.461  10.990  27.459 -0.1014  0.0551  0.0453
 3331W        W46425  24.755   6.574  31.784  0.4555 -0.0090 -0.1763
 3332W        W46426  24.617  10.023  31.448  0.2589  0.3034  0.0377
 3333W        W46427  23.392  10.234  31.490  0.0737  0.0695  0.3607
 3334W        W46428  20.946   9.551  26.689 -0.2321  0.2789  0.0587
 3335W        W46429  23.439  10.333  31.966 -0.0344  0.0236 -0.1257
 3336W        W46430  22.807   9.343  28.705  0.0425 -0.2087 -0.0384
 3337W        W46431  23.675  11.562  28.133 -0.0577  0.1109 -0.0847
 3338W        W46432  26.398  11.273  28.457  0.2830  0.0306  0.3059
 3339W        W46433  25.054   9.280  30.035  0.2706  0.0065  0.0707
 3340W        W46434  25.839   9.167  28.580 -0.0952  0.0165  0.3501
 3341W        W46435  23.294   8.612  30.570  0.0506  0.2452  0.1832
 3342W        W46436  24.435   6.524  28.015 -0.1220  0.0227 -0.1461
 3343W        W46437  25.650   6.947  27.674 -0.1266 -0.2008 -0.3072
 3344W        W46438  22.929  10.063  31.524 -0.0095  0.0775 -0.0601
 3345W        W46439  21.756   8.711  29.484 -0.0746 -0.0509 -0.1418
 3346W        W46440  22.591   8.559  27.317  0.1361 -0.0698  0.2638
 3347W        W46441  22.834   9.070  30.213 -0.0644 -0.2559 -0.3426
 3348W        W46442  23.380   7.476  30.771 -0.4072 -0.1124  0.0005
 3349W        W46443  21.003   8.518  30.973  0.0600  0.0144 -0.1046
 3350W        W46444  21.873  10.184  29.570  0.4312 -0.4577  0.1261
 3351W        W46445  23.064   7.520  30.357  0.2841  0.0234 -0.1370
 3352W        W46446  25.321  10.740  27.573 -0.2055  0.3656  0.2760
 3353W        W46447  23.389   8.324  30.999 -0.0793 -0.0724  0.0424
 3354W        W46448  21.454   7.822  30.634 -0.0391 -0.0439 -0.0287
 3355W        W46449  25.367  10.050  29.377  0.1301  0.3027 -0.0829
 3356W        W46450  25.880   9.046  29.511  0.0573  0.0289 -0.2103
 3357W        W46451  23.359   8.007  29.012  0.2215 -0.2443  0.2486
 3358W        W46452  26.246  11.410   0.104 -0.0025 -0.1481 -0.0872
 3359W        W46453  21.979   9.799  27.343  0.0187 -0.1984 -0.1404
 3360W        W46454  25.367   9.396  30.525 -0.1744 -0.1452 -0.0483
 3361W        W46455  22.733   7.895  31.085 -0.2456 -0.0135 -0.0822
 3362W        W46456  21.599   7.921  28.418 -0.2175 -0.1232 -0.1358
 3363W        W46457  23.536   9.232  29.733 -0.1288 -0.0196 -0.2346
 3364W        W46458  24.331  10.277  29.797 -0.1402 -0.1323 -0.1591
 3365W        W46459  24.066  10.670  28.185  0.0237 -0.0714 -0.3735
 3366W        W46460  23.053  10.673  31.919 -0.0843  0.2884 -0.1431
 3367W        W46461  24.083  10.992  31.600 -0.0600 -0.2397  0.1867
 3368W        W46462  21.863   7.075   0.070  0.0510 -0.1037  0.0983
 3369W        W46463  22.993   8.913  28.785  0.1644  0.0641 -0.0501
 3370W        W46464  22.337  10.707  30.469 -0.2228 -0.1903  0.2006
 3371W        W46465  25.576   9.062  27.784  0.0171  0.1000  0.0875
 3372W        W46466  23.992   8.723  28.673  0.0448  0.1660 -0.3594
 3373W        W46467  22.968   8.401  28.918  0.3536  0.0847  0.1662
 3374W        W46468  21.714   6.850  30.708 -0.1548  0.0891 -0.2808
 3375W        W46469  23.924   9.706  30.850  0.1215 -0.2796 -0.0950
 3376W        W46470  24.884   9.869  29.224 -0.0719  0.0763 -0.3752
 3377W        W46471  23.196   7.829  29.434 -0.0202  0.2184 -0.0790
 3378W        W46472  24.294   7.094  28.694  0.2541  0.1419  0.0686
 3379W        W46473  23.899   9.947  30.275  0.2723 -0.0029  0.3604
 3380W        W46474  21.935   9.841  30.587  0.3874 -0.0443  0.1453
 3381W        W46475  24.143   7.863  27.662 -0.0177 -0.0596  0.4185
 3382W        W46476  22.403  10.126  31.367 -0.1838  0.1876  0.1119
 3383W        W46477  22.391   8.430  29.674 -0.0980 -0.0400  0.0932
 3384W        W46478  24.879   9.582  30.713  0.0375 -0.0046 -0.1445
 3385W        W46479  22.734   8.578  27.886  0.1032  0.0393 -0.1524
 3386W        W46480  26.068   9.875  28.785 -0.0159  0.0544 -0.1918
 3387W        W46481  25.679  11.510  29.952  0.2759  0.0964  0.2104
 3388W        W46482  25.842   9.689  30.711  0.0380 -0.0156 -0.1435
 3389W        W46483  26.175   9.683  30.352  0.1156  0.0129 -0.0661
 3390W        W46484  25.510   9.555  30.057  0.1541 -0.0698 -0.1185
 3391W        W46485  22.064   9.362  30.571  0.0844 -0.1268  0.1335
 3392W        W46486  22.139   8.766  28.587  0.0373 -0.0543  0.0273
 3393W        W46487  21.880   9.270  29.419 -0.1159 -0.0767  0.2601
 3394W        W46488  24.353   7.397  28.008 -0.0364 -0.2249 -0.2049
 3395W        W46489  23.336   8.184  29.834  0.0965 -0.0325  0.4086
 3396W        W46490  24.139   8.264  28.415  0.1356 -0.3251  0.0519
 3397W        W46491  23.529  10.736  30.856 -0.1926 -0.0259 -0.0980
 3398W        W46492  24.929   9.996  29.673  0.1223 -0.0191 -0.0777
 3399W        W46493  24.872   7.426  30.471  0.0448 -0.1313 -0.1286
 3400W        W46494  22.761   9.437  30.623  0.1706 -0.0349  0.2442
 3401W        W46495  21.909   8.521  30.520 -0.1187  0.1816 -0.1050
 3402W        W46496  22.685  10.392   0.291  0.1437  0.1791  0.1150
 3403W        W46497  24.722  10.901  31.560 -0.2508  0.0387  0.0786
 3404W        W46498  23.706  10.666  31.351 -0.1691  0.0175  0.3080
 3405W        W46499  23.139   7.912  30.799  0.0521 -0.1579  0.1767
 3406W        W46500  23.352   7.933   0.287  0.0406 -0.4725  0.2005
 3407W        W46501  22.369   7.399   0.918  0.0003  0.4611 -0.2617
 3408W        W46502  24.783  12.481   0.515  0.0427 -0.1082  0.2205
 3409W        W46503  25.301  11.688  31.147  0.1486  0.0188 -0.1562
 3410W        W46504  22.067   7.172   0.563  0.0166  0.0253 -0.0026
 3411W        W46505  25.974  10.381   0.276  0.1519 -0.3263  0.4240
 3412W        W46506  22.375   9.225  30.915  0.1067 -0.1373  0.0491
 3413W        W46507  25.342   8.341  31.759  0.2209  0.0105 -0.0214
 3414W        W46508  22.339  12.529   0.606  0.0827 -0.2913 -0.2476
 3415W        W46509  22.002  10.343  31.845 -0.2514  0.0404  0.3466
 3416W        W46510  24.060   9.214  30.720 -0.0658  0.3218  0.1390
 3417W        W46511  22.364   9.017   0.160 -0.0954 -0.0335 -0.1291
 3418W        W46512  22.353   8.529   0.199 -0.1108  0.3232  0.1139
 3419W        W46513  22.972   9.876   0.010 -0.1736 -0.1100 -0.0111
 3420W        W46514  23.566  11.676   0.401 -0.2892  0.0304 -0.1266
 3421W        W46515  23.014   9.550   0.389  0.1018 -0.2934  0.3254
 3422W        W46516  25.291   7.251  30.813 -0.3711 -0.0460 -0.1270
 3423W        W46517  24.593   6.707  31.076  0.2160  0.1004  0.2056
 3424W        W46518  23.628   7.162  30.415  0.0067 -0.0469 -0.1389
 3425W        W46519  22.881   8.341   0.287 -0.0514  0.1353 -0.1862
 3426W        W46520  20.458  11.054  31.797  0.1717 -0.2391 -0.0596
 3427W        W46521  21.320   9.310  31.362 -0.0189 -0.0521 -0.0320
 3428W        W46522  24.250  10.446  31.464  0.0350  0.0537 -0.2902
 3429W        W46523  23.208   9.142  30.584 -0.1781 -0.0901 -0.0882
 3430W        W46524  23.197   8.684  31.598 -0.0859 -0.1785 -0.0818
 3431W        W46525  26.800   9.734   0.087  0.2036 -0.3175 -0.0193
 3432W        W46526  24.486   8.503  30.499  0.0979 -0.1167  0.0264
 3433W        W46527  22.664   6.533   1.593 -0.1073 -0.1979 -0.1108
 3434W        W46528  24.110   8.843  31.560  0.0345  0.0056 -0.3344
 3435W        W46529  24.990   9.407  31.256  0.2022 -0.2949 -0.0957
 3436W        W46530  24.858  11.321  31.164  0.0554 -0.0411 -0.1871
 3437W        W46531  23.628   8.950  30.853 -0.0988 -0.3614  0.4535
 3438W        W46532  24.764  10.097   0.079 -0.1481 -0.0481 -0.0003
 3439W        W46533  24.888   7.859  31.414 -0.3161 -0.0919 -0.3295
 3440W        W46534  24.900   9.200  31.716  0.3404  0.0095  0.0525
 3441W        W46535  22.757   8.580  30.291  0.2323 -0.1191  0.4131
 3442W        W46536  23.450   9.470  30.985  0.1649 -0.2617  0.1091
 3443W        W46537  22.579   8.769  31.131 -0.0819  0.2524 -0.0768
 3444W        W46538  24.076   8.736  31.014  0.2453  0.2589 -0.0131
 3445W        W46539  25.001   8.454  31.336  0.0890  0.0768 -0.0349
 3446W        W46540  25.217  10.101  31.713 -0.1934 -0.0713  0.1118
 3447W        W46541  26.888   9.080  31.968 -0.2049  0.0180  0.4443
 3448W        W46542  22.206  11.060   0.203 -0.2816  0.0071 -0.1557
 3449W        W46543  25.835  11.773  31.881  0.1678  0.0574  0.3168
 3450W        W46544  24.520   6.919   0.167  0.1073  0.0528  0.2584
 3451W        W46545  23.541   7.780  31.149 -0.0420  0.1870  0.2367
 3452W        W46546  24.430   9.510  30.933  0.5170  0.0117 -0.1612
 3453W        W46547  22.438   9.295  31.415  0.2890  0.0182  0.2469
 3454W        W46548  23.600   9.496   0.622  0.2398 -0.3454  0.1390
 3455W        W46549  26.098  10.697  29.701 -0.2012 -0.1710  0.0794
 3456W        W46550  22.690  11.946  31.318 -0.3058  0.1766 -0.2219
 3457W        W46551  25.218  10.570  31.467  0.2628 -0.0120 -0.0142
 3458W        W46552  21.061   8.833  31.372 -0.0742 -0.1840  0.1853
 3459W        W46553  20.361   9.087   0.090 -0.0888  0.1402  0.1116
 3460W        W46554  22.819   8.883  30.702 -0.0554  0.0162  0.0355
 3461W        W46555  22.574  10.254  31.820  0.4445  0.2453 -0.1374
 3462W        W46556  21.911   8.406  31.395 -0.0036 -0.1110 -0.1652
 3463W        W46557  25.197  12.045  30.580 -0.3054  0.0786  0.1729
 3464W        W46558  26.235   9.977  30.855 -0.1560 -0.0552  0.1404
 3465W        W46559  24.250   9.225   0.433 -0.1913  0.1060  0.0404
 3466W        W46560  24.203  12.740  17.544  0.0784 -0.2054 -0.0530
 3467W        W46561  21.885  11.943  16.178 -0.2602  0.0794 -0.0696
 3468W        W46562  25.241  11.581  16.306  0.1037  0.0075  0.1276
 3469W        W46563  25.029  12.872  16.361  0.2053  0.0701 -0.2062
 3470W        W46564  22.845  10.353  17.501 -0.2488 -0.0651 -0.4243
 3471W        W46565  26.793  15.553  17.180  0.0603  0.0609 -0.0973
 3472W        W46566  23.349  11.740  18.047 -0.1022  0.2028 -0.2461
 3473W        W46567  26.085  13.764  18.195 -0.1674 -0.0482  0.4015
 3474W        W46568  25.198  12.863  17.886  0.1817 -0.0621  0.2468
 3475W        W46569  22.641  12.514  16.302 -0.1455  0.1204  0.1691
 3476W        W46570  23.705  11.920  17.697  0.2838 -0.1134 -0.1736
 3477W        W46571  24.346  14.850  17.930  0.0171  0.1039  0.0554
 3478W        W46572  24.374  12.202  16.876 -0.1624  0.2309 -0.0430
 3479W        W46573  22.134  11.612  18.151 -0.1847  0.2877  0.3600
 3480W        W46574  25.235  12.647  18.328  0.2081  0.2090  0.0751
 3481W        W46575  22.050  11.652  15.816 -0.0250 -0.2403 -0.3457
 3482W        W46576  23.697  10.129  19.169 -0.1078  0.0570  0.0037
 3483W        W46577  24.117  12.367  16.546 -0.1688 -0.3998  0.1903
 3484W        W46578  24.349  15.915  17.589 -0.4716 -0.0299 -0.2363
 3485W        W46579  23.546  10.789  18.469 -0.0410 -0.0908  0.3662
 3486W        W46580  24.163  11.916  20.701  0.0704 -0.2973 -0.2444
 3487W        W46581  23.668  14.008  15.061  0.0313 -0.0632  0.0808
 3488W        W46582  21.179  12.578  16.410  0.1523 -0.0526  0.0509
 3489W        W46583  22.142  12.506  17.800  0.1254 -0.0971 -0.0413
 3490W        W46584  22.912  12.183  19.316 -0.2971 -0.1975  0.1259
 3491W        W46585  24.798  12.475  17.155  0.1774  0.0715  0.2536
 3492W        W46586  23.423  12.669  16.798  0.1743 -0.1243  0.0497
 3493W        W46587  24.133  15.416  16.357 -0.0405 -0.1495 -0.0831
 3494W        W46588  25.591  13.308  17.666 -0.1078  0.1428  0.0144
 3495W        W46589  24.389  12.729  18.502 -0.2158  0.0325 -0.0024
 3496W        W46590  22.385  12.613  16.739  0.1580  0.1673 -0.1232
 3497W        W46591  23.333  14.418  15.965  0.2280  0.0451  0.3580
 3498W        W46592  24.868  14.449  18.029 -0.1419 -0.2318 -0.0763
 3499W        W46593  24.595  13.435  15.639  0.1685  0.0038  0.2743
 3500W        W46594  25.384  14.004  17.420  0.0549  0.4790 -0.0036
 3501W        W46595  22.430  13.459  18.680  0.0718 -0.2082 -0.0060
 3502W        W46596  24.433  14.316  17.210  0.1960 -0.0568 -0.1237
 3503W        W46597  25.018  13.670  19.264  0.0408 -0.0958 -0.1513
 3504W        W46598  24.223  14.014  18.191  0.0006  0.0482  0.0116
 3505W        W46599  23.820  12.378  19.133 -0.1195  0.1880 -0.2513
 3506W        W46600  23.750  12.047  17.052 -0.0892 -0.0480  0.1112
 3507W        W46601  23.637  14.097  15.722  0.2022 -0.1534 -0.0319
 3508W        W46602  23.439  13.123  17.190  0.0137  0.0544  0.2467
 3509W        W46603  23.994  12.402  20.748  0.0953 -0.1918  0.3855
 3510W        W46604  24.159  13.504  17.227  0.1515 -0.1182  0.2622
 3511W        W46605  25.422  12.025  19.366 -0.1459 -0.1382  0.3977
 3512W        W46606  22.863  13.499  15.714 -0.0528  0.2057 -0.0058
 3513W        W46607  24.191  13.229  15.878  0.2357 -0.0007 -0.1853
 3514W        W46608  24.477  11.770  15.939  0.1763 -0.3850 -0.2337
 3515W        W46609  24.769  13.546  16.600  0.3148  0.1244 -0.1093
 3516W        W46610  24.367  10.575  17.750  0.1054 -0.0349 -0.0965
 3517W        W46611  23.146  13.790  17.268 -0.1991 -0.0268 -0.1110
 3518W        W46612  21.908   9.703  17.904 -0.0832  0.0988  0.1918
 3519W        W46613  25.216  14.156  19.894  0.1393 -0.0643 -0.0777
 3520W        W46614  24.123  12.162  17.969 -0.0687  0.1130 -0.0528
 3521W        W46615  25.067  12.167  18.393 -0.1717 -0.2512 -0.2336
 3522W        W46616  22.544  13.541  16.847 -0.2107  0.0767 -0.1732
 3523W        W46617  22.752  11.399  16.313 -0.2092 -0.2425 -0.3258
 3524W        W46618  24.791  14.027  15.649 -0.2864 -0.1805  0.3133
 3525W        W46619  25.908  15.608  18.487 -0.1130 -0.3455 -0.1746
 3526W        W46620  24.775  14.705  16.941  0.2526 -0.0173  0.1774
 3527W        W46621  22.035  10.466  16.214  0.2505  0.1558  0.1039
 3528W        W46622  22.035  11.963  19.836  0.0128  0.1307  0.2083
 3529W        W46623  22.719  13.055  17.492 -0.1361  0.1625  0.0348
 3530W        W46624  22.496  10.788  16.223 -0.2235  0.5143 -0.0434
 3531W        W46625  25.080  14.824  20.217 -0.0237  0.1359  0.0506
 3532W        W46626  22.372  13.411  17.301 -0.1085 -0.1771  0.1803
 3533W        W46627  25.972  12.202  16.001  0.1204  0.1362  0.0687
 3534W        W46628  24.427  13.845  16.945 -0.0848 -0.3128 -0.1701
 3535W        W46629  25.495  13.809  19.011 -0.1108  0.3287  0.2223
 3536W        W46630  22.351  13.389  15.923  0.0264  0.1058 -0.0804
 3537W        W46631  26.241  12.323  19.405 -0.2687 -0.0469  0.1137
 3538W        W46632  24.837  11.331  18.920  0.0666  0.4080 -0.1387
 3539W        W46633  23.231  12.324  15.439  0.4524  0.0774  0.1516
 3540W        W46634  24.436  13.117  17.253 -0.1162 -0.1163  0.1298
 3541W        W46635  24.694  14.553  19.373 -0.0355  0.1389 -0.1388
 3542W        W46636  26.056  13.048  17.535 -0.0260  0.0788  0.0297
 3543W        W46637  22.756  13.474  17.885 -0.0577  0.3894  0.0588
 3544W        W46638  23.778  10.566  19.592  0.1848 -0.2767  0.0877
 3545W        W46639  24.522  13.693  17.503 -0.1987 -0.0757  0.2557
 3546W        W46640  22.578  14.317  15.051  0.1169  0.1832 -0.1543
 3547W        W46641  21.057  12.909  16.837 -0.1678  0.6956 -0.0159
 3548W        W46642  23.194  11.865  16.569  0.0320  0.3340 -0.0911
 3549W        W46643  21.822  11.021  19.785 -0.0533  0.0179  0.3742
 3550W        W46644  23.695  14.002  16.206  0.1862  0.2711 -0.0060
 3551W        W46645  24.963  11.132  17.245  0.0033  0.2349 -0.4452
 3552W        W46646  23.881  10.033  18.658  0.0104  0.0251  0.1122
 3553W        W46647  24.046  11.180  18.998  0.0900 -0.1160  0.0387
 3554W        W46648  23.663  12.206  16.558  0.3362 -0.0293 -0.1093
 3555W        W46649  25.212  14.551  15.921 -0.1957 -0.1858 -0.0636
 3556W        W46650  24.299  12.477  15.689  0.0120 -0.0282  0.3078
 3557W        W46651  24.326  14.336  15.681 -0.1084  0.1350 -0.0069
 3558W        W46652  23.276  11.744  19.394  0.0460  0.1085  0.2144
 3559W        W46653  21.682  12.582  16.369  0.1437  0.6213  0.1997
 3560W        W46654  23.185  12.169  18.257 -0.3218  0.3386  0.4108
 3561W        W46655  22.472  11.624  18.552 -0.0975 -0.0844  0.0420
 3562W        W46656  24.698  12.985  18.934  0.0846 -0.1177  0.2205
 3563W        W46657  23.123  10.764  17.282 -0.2972 -0.0421 -0.2045
 3564W        W46658  25.498  10.880  19.215  0.2707 -0.0687  0.0195
 3565W        W46659  24.734  11.969  18.005  0.0172 -0.1227 -0.2014
 3566W        W46660  23.574  11.596  16.786  0.0008  0.1236  0.0628
 3567W        W46661  23.639  11.433  19.682 -0.1166 -0.0383 -0.1153
 3568W        W46662  24.432  15.088  17.495  0.1471 -0.1789 -0.1477
 3569W        W46663  27.373  13.699  19.052 -0.0926  0.1531  0.2279
 3570W        W46664  25.663  14.017  18.547 -0.0009 -0.0147  0.1544
 3571W        W46665  23.760  10.753  20.467  0.0607 -0.1271  0.1691
 3572W        W46666  22.272  11.019  17.062 -0.2061 -0.0474  0.0312
 3573W        W46667  23.384  14.398  17.107 -0.2278 -0.0844  0.3713
 3574W        W46668  23.067  12.786  17.127  0.0962 -0.3358 -0.0134
 3575W        W46669  23.641  11.807  16.092 -0.1261 -0.3693 -0.0967
 3576W        W46670  26.222  12.478  18.493 -0.0089 -0.0332 -0.0821
 3577W        W46671  24.761  12.438  16.586 -0.0230 -0.2622  0.3752
 3578W        W46672  22.435  13.854  17.960 -0.0418  0.2280 -0.0219
 3579W        W46673  23.730  10.005  20.210  0.0433 -0.0897  0.1282
 3580W        W46674  25.221  12.607  17.339  0.0657  0.1013  0.0472
 3581W        W46675  24.458  11.908  16.469  0.2090 -0.1210  0.2016
 3582W        W46676  22.766   9.461  15.993 -0.0783  0.0775  0.1093
 3583W        W46677  25.241  14.086  15.832 -0.4063 -0.0212 -0.0293
 3584W        W46678  23.413  15.434  15.475  0.0764 -0.2992 -0.0242
 3585W        W46679  21.624  12.893  17.286 -0.0332  0.1699 -0.2829
 3586W        W46680  24.224  14.154  16.605 -0.0320 -0.1709 -0.2232
 3587W        W46681  24.804  10.399  17.590 -0.1002  0.3301  0.1332
 3588W        W46682  20.248  10.916  19.482 -0.2571 -0.2215  0.0644
 3589W        W46683  25.581  12.228  18.393  0.0253 -0.2777 -0.1186
 3590W        W46684  21.278  11.898  15.693  0.0585 -0.1083 -0.2981
 3591W        W46685  22.891  13.359  17.145 -0.2030 -0.2698 -0.1914
 3592W        W46686  24.395   9.893  16.932  0.2176 -0.3105  0.0572
 3593W        W46687  24.812  12.319  15.663  0.2621 -0.0827 -0.0235
 3594W        W46688  23.410  12.638  18.126  0.1429  0.3704  0.1566
 3595W        W46689  26.023  13.553  16.666 -0.0810  0.1426  0.0531
 3596W        W46690  24.241  10.859  15.579  0.2898  0.0089 -0.0648
 3597W        W46691  23.797  10.586  16.532  0.4187 -0.0912 -0.1091
 3598W        W46692  23.315  13.078  18.451 -0.2094 -0.0033  0.0296
 3599W        W46693  25.354  12.167  17.092 -0.0113 -0.0812  0.2389
 3600W        W46694  23.966  12.512  18.403 -0.0882  0.1952  0.0093
 3601W        W46695  25.092  11.620  17.207  0.1946 -0.0390  0.1239
 3602W        W46696  25.825  13.969  16.461  0.2692  0.0202  0.0122
 3603W        W46697  23.226  12.735  17.707  0.1077  0.1931 -0.1932
 3604W        W46698  24.462  13.658  18.002 -0.2160 -0.2394  0.3815
 3605W        W46699  26.004  14.765  17.469  0.1179 -0.2002  0.1301
 3606W        W46700  22.696   9.141  18.510  0.2192 -0.1954  0.2443
 3607W        W46701  22.383  11.693  16.299 -0.0403  0.3262 -0.1042
 3608W        W46702  23.250  11.233  17.457 -0.2873  0.2817 -0.3162
 3609W        W46703  21.213  14.537  15.745 -0.1085 -0.0212  0.3475
 3610W        W46704  23.791  10.555  18.811 -0.2453 -0.1215 -0.0005
 3611W        W46705  23.991  11.966  18.487 -0.0072  0.1626  0.0313
 3612W        W46706  24.663   9.910  18.963 -0.1421 -0.0454  0.1591
 3613W        W46707  26.445  12.810  18.953 -0.2361  0.1791  0.0045
 3614W        W46708  24.192  12.861  16.718  0.2615 -0.0545 -0.0536
 3615W        W46709  24.683  11.888  17.311  0.3261 -0.2166  0.1516
 3616W        W46710  22.830  10.720  15.744  0.0242 -0.0551 -0.0072
 3617W        W46711  24.103  10.734  19.234 -0.2577 -0.0995  0.0131
 3618W        W46712  22.840  10.436  19.233  0.2117 -0.1164 -0.1470
 3619W        W46713  22.736  15.110  16.730  0.0762 -0.4330  0.0172
 3620W        W46714  24.245  13.716  18.592 -0.3825  0.0513 -0.0770
 3621W        W46715  24.997  13.255  17.681  0.2082 -0.0120  0.0850
 3622W        W46716  24.476  11.744  18.626  0.0292  0.0805 -0.0307
 3623W        W46717  24.685  12.911  16.814 -0.2596 -0.1857 -0.0874
 3624W        W46718  24.359  14.611  16.712  0.4594 -0.3026  0.1890
 3625W        W46719  23.025  13.550  16.675 -0.0184  0.1252  0.1821
 3626W        W46720  22.373  10.542  17.849  0.3666  0.0770 -0.0605
 3627W        W46721  25.146  15.423  18.008 -0.0392 -0.1461  0.0546
 3628W        W46722  23.471  13.586  16.374  0.2753 -0.0445  0.2056
 3629W        W46723  23.768  12.537  17.762  0.3518  0.0376 -0.0360
 3630W        W46724  23.904  12.263  16.124 -0.2081 -0.0756 -0.1761
 3631W        W46725  23.422   9.598  17.437 -0.0596 -0.1840 -0.0589
 3632W        W46726  22.015  13.447  16.879  0.1238  0.4966 -0.0068
 3633W        W46727  23.400  11.874  15.601 -0.0054 -0.1542 -0.3802
 3634W        W46728  21.208  12.483  15.527 -0.0116 -0.2917  0.0675
 3635W        W46729  24.365  11.300  16.478  0.2801  0.1286  0.1544
 3636W        W46730  24.936  11.931  16.792  0.0514  0.2199 -0.2491
 3637W        W46731  24.137  10.249  18.127 -0.0334 -0.1973 -0.0470
 3638W        W46732  23.619  10.136  18.190  0.1403 -0.1900  0.2152
 3639W        W46733  22.107  13.452  17.822 -0.0481  0.0509  0.0893
 3640W        W46734  23.667  12.176  18.161 -0.0571 -0.0356 -0.2583
 3641W        W46735  24.958  12.144  16.209 -0.0415 -0.2230  0.0494
 3642W        W46736  25.377  13.933  19.479  0.2241  0.1000 -0.4652
 3643W        W46737  22.265  12.535  18.986 -0.0061 -0.0029  0.0358
 3644W        W46738  21.848  11.808  16.675 -0.0338 -0.2750 -0.0972
 3645W        W46739  25.675  13.063  18.979  0.1119 -0.4317  0.2192
 3646W        W46740  23.611  11.416  17.771  0.1230  0.3849  0.2605
 3647W        W46741  22.252  12.875  16.168 -0.0165  0.1284 -0.2161
 3648W        W46742  25.656  14.448  17.258  0.0705  0.0658  0.0809
 3649W        W46743  21.137  11.102  15.516 -0.3502 -0.0851  0.0589
 3650W        W46744  23.628  12.664  16.336 -0.1405 -0.1660 -0.1004
 3651W        W46745  23.183  10.604  18.774  0.1002  0.1433  0.0486
 3652W        W46746  26.126  13.227  19.142 -0.2446  0.2268  0.0287
 3653W        W46747  24.409  11.267  18.550  0.0451 -0.2998  0.4772
 3654W        W46748  22.628  11.158  18.499  0.3041 -0.0826  0.2663
 3655W        W46749  24.148  10.927  16.637  0.1870 -0.1783 -0.1266
 3656W        W46750  24.853  12.428  17.985 -0.2214 -0.1691 -0.2642
 3657W        W46751  25.235  12.339  18.859 -0.1263  0.0384  0.1973
 3658W        W46752  22.486  12.809  18.070  0.0202 -0.0759  0.1354
 3659W        W46753  23.764  10.064  19.681  0.1795  0.0019 -0.1166
 3660W        W46754  25.791  15.843  15.547  0.2508 -0.1950 -0.0605
 3661W        W46755  24.035  11.132  18.174  0.1718  0.2814 -0.3017
 3662W        W46756  23.426  11.424  16.275  0.0870  0.1181 -0.2057
 3663W        W46757  22.581  13.052  16.927  0.2151 -0.0156  0.1153
 3664W        W46758  24.034  11.355  16.967  0.0664  0.0006  0.1217
 3665W        W46759  24.395   9.740  18.562 -0.0024 -0.1199  0.0638
 3666W        W46760  24.041  12.891  19.612 -0.2844 -0.3208  0.1838
 3667W        W46761  24.166  15.010  17.029 -0.0849  0.0474  0.1370
 3668W        W46762  22.659  13.846  16.441 -0.2046 -0.2082  0.0964
 3669W        W46763  24.308  10.329  17.140  0.1856  0.3855 -0.3151
 3670W        W46764  23.728  13.130  15.459 -0.1743 -0.0784 -0.1516
 3671W        W46765  24.710  11.057  17.706  0.0461  0.1383  0.4491
 3672W        W46766  26.281  10.889  19.349  0.0375  0.0672 -0.0027
 3673W        W46767  22.859  12.449  16.828 -0.1983  0.0821 -0.0499
 3674W        W46768  25.110  11.950  20.009 -0.2313  0.0681 -0.2868
 3675W        W46769  22.729   9.721  17.709  0.1804 -0.2361 -0.2382
 3676W        W46770  25.154  13.819  16.828  0.1926 -0.0075 -0.1023
 3677W        W46771  22.979  11.155  18.885 -0.0292  0.3554  0.0454
 3678W        W46772  25.081  15.659  19.907 -0.0325  0.0935 -0.0129
 3679W        W46773  22.509  11.878  19.180 -0.3981 -0.2735  0.1971
 3680W        W46774  24.168  10.881  17.206 -0.3816 -0.1360 -0.2224
 3681W        W46775  22.107  10.970  16.436 -0.0926 -0.2530  0.2045
 3682W        W46776  23.282  12.199  16.967 -0.3615 -0.0602  0.0958
 3683W        W46777  24.761  13.475  17.100  0.2571 -0.4186 -0.0110
 3684W        W46778  22.708  12.880  15.854  0.2048 -0.3527 -0.1586
 3685W        W46779  24.232  10.486  16.258 -0.3327  0.3145 -0.2439
 3686W        W46780  23.108  11.349  19.754  0.0942 -0.2244 -0.0258
 3687W        W46781  24.142  12.724  16.227  0.2663  0.0291 -0.1762
 3688W        W46782  23.637  13.072  16.079  0.1141 -0.5287 -0.0435
 3689W        W46783  23.163  12.453  16.413  0.2641  0.0884 -0.0071
 3690W        W46784  23.802  10.916  19.937  0.0973 -0.0915 -0.0365
 3691W        W46785  24.814  14.014  17.736  0.0211 -0.3372  0.0729
 3692W        W46786  25.730  10.247  17.369 -0.0861  0.3212 -0.0404
 3693W        W46787  23.564  10.979  18.947 -0.2080 -0.0088  0.3127
 3694W        W46788  24.002  11.044  17.664 -0.0490  0.0114 -0.0278
 3695W        W46789  24.346  12.703  18.018  0.1283 -0.0608 -0.2740
 3696W        W46790  22.275  10.327  19.330  0.0808  0.2023 -0.1255
 3697W        W46791  25.305  14.199  18.220  0.1375 -0.0969  0.3947
 3698W        W46792  25.366  12.503  16.197  0.0149 -0.1563 -0.1256
 3699W        W46793  24.649  11.134  19.390  0.0188 -0.2166  0.5476
 3700W        W46794  25.284  11.805  18.673 -0.1762  0.3004 -0.0223
 3701W        W46795  24.082  12.013  15.741  0.1540 -0.2461  0.4221
 3702W        W46796  22.831  10.861  17.624 -0.4080  0.1569 -0.0271
 3703W        W46797  24.999  13.685  19.756 -0.0107 -0.1835  0.2230
 3704W        W46798  23.101  11.272  16.642 -0.1951  0.3902  0.1248
 3705W        W46799  23.422   9.451  19.621  0.0698 -0.1024 -0.0492
 3706W        W46800  24.865  14.033  17.222 -0.1276 -0.3788  0.1005
 3707W        W46801  24.944  13.041  17.236  0.0977  0.3815  0.0159
 3708W        W46802  24.476  10.919  18.149  0.0424 -0.0444 -0.1573
 3709W        W46803  23.148  11.549  17.098 -0.0740  0.3457 -0.1016
 3710W        W46804  23.138  14.723  17.872  0.2518  0.4484  0.1996
 3711W        W46805  21.886  12.180  15.753  0.0333  0.2764  0.1893
 3712W        W46806  23.807  11.591  15.663  0.2321  0.1853  0.0331
 3713W        W46807  25.113  13.713  18.494 -0.0563  0.1221  0.0160
 3714W        W46808  25.821  14.356  20.528 -0.1089  0.1002  0.2751
 3715W        W46809  22.758  11.186  17.052  0.4149 -0.0341  0.0811
 3716W        W46810  25.288  12.383  19.788  0.2155 -0.0441 -0.2893
 3717W        W46811  23.445  14.431  15.416  0.3253 -0.2299 -0.1379
 3718W        W46812  24.143   9.919  17.613  0.1746  0.0708 -0.0406
 3719W        W46813  23.523  12.495  17.255 -0.1059 -0.0504 -0.0760
 3720W        W46814  22.512  14.418  18.715 -0.0108 -0.2816  0.4026
 3721W        W46815  24.417  14.493  18.357  0.0810 -0.2158 -0.3007
 3722W        W46816  22.736  10.465  19.725  0.2133  0.2788 -0.1899
 3723W        W46817  25.521  11.702  17.502  0.4033  0.1863  0.1328
 3724W        W46818  25.686  12.518  17.079  0.3411  0.1738  0.2400
 3725W        W46819  25.143  13.281  18.156 -0.0181  0.0125 -0.0698
 3726W        W46820  23.856  14.914  18.166  0.1318 -0.3053  0.0112
 3727W        W46821  23.849  11.661  18.126  0.0839 -0.2664  0.1468
 3728W        W46822  23.255  13.498  18.120 -0.0318 -0.0819  0.3087
 3729W        W46823  27.287  14.239  19.852 -0.0939 -0.0811 -0.1840
 3730W        W46824  24.735  13.651  16.100 -0.2062  0.0566  0.2018
 3731W        W46825  21.727  11.927  19.003 -0.2466  0.4419 -0.2867
 3732W        W46826  24.280  12.236  18.803  0.0319 -0.1293 -0.0032
 3733W        W46827  25.452  12.993  17.055 -0.0394  0.0686  0.0082
 3734W        W46828  22.167   9.981  16.022 -0.2617 -0.3286 -0.0355
 3735W        W46829  25.199  14.435  17.602  0.1515 -0.1127  0.0004
 3736W        W46830  23.544  13.893  17.789  0.0975 -0.1774  0.1264
 3737W        W46831  23.496  11.838  18.506  0.1052  0.1209  0.0966
 3738W        W46832  21.736  14.342  15.885  0.1811  0.0455 -0.1623
 3739W        W46833  23.413  10.960  16.519 -0.4204 -0.3066 -0.1284
 3740W        W46834  23.912  13.096  17.345  0.2046 -0.0569 -0.0866
 3741W        W46835  24.202  15.192  18.972 -0.1569  0.1104  0.0162
 3742W        W46836  24.602  12.726  16.030 -0.0042 -0.1503  0.1728
 3743W        W46837  23.517  13.173  16.572 -0.0884 -0.3308 -0.1955
 3744W        W46838  21.699  13.171  15.400 -0.1684 -0.1082  0.2140
 3745W        W46839  23.916  13.060  15.013 -0.0358  0.1566 -0.1543
 3746W        W46840  23.795  13.578  15.976 -0.0332  0.0576  0.0173
 3747W        W46841  24.897  13.948  18.822 -0.3012  0.2763  0.0990
 3748W        W46842  23.418  10.684  16.897 -0.0780  0.3042 -0.0627
 3749W        W46843  25.582  12.719  17.565  0.1548 -0.1461 -0.0279
 3750W        W46844  25.539  12.036  16.211 -0.1334 -0.1588  0.1511
 3751W        W46845  24.480  14.289  20.509  0.2379  0.1810  0.0397
 3752W        W46846  24.006  12.279  17.421  0.2287 -0.1964  0.3224
 3753W        W46847  24.055  11.747  16.640 -0.0553 -0.1095 -0.2966
 3754W        W46848  21.783  10.867  20.232 -0.0872  0.0145 -0.0937
 3755W        W46849  25.073  10.683  19.483 -0.5628 -0.1187 -0.0582
 3756W        W46850  21.903  14.666  17.042 -0.1425  0.0663  0.3672
 3757W        W46851  25.293  14.329  16.925 -0.0571  0.1081 -0.0209
 3758W        W46852  21.932  11.460  16.321 -0.0575  0.0308 -0.0280
 3759W        W46853  22.738  12.780  19.017 -0.0467  0.0132  0.2719
 3760W        W46854  25.404  10.681  18.789  0.0390  0.0747 -0.0014
 3761W        W46855  23.130  12.951  16.156 -0.2345  0.0018  0.1286
 3762W        W46856  24.588  11.463  18.031 -0.1695  0.0978 -0.2574
 3763W        W46857  22.149  14.432  16.361  0.0204  0.2289  0.3937
 3764W        W46858  23.736  14.300  17.433 -0.5260 -0.0155  0.3140
 3765W        W46859  24.761  14.930  18.362  0.0154  0.1180  0.0033
 3766W        W46860  20.950  10.530  17.424  0.1559 -0.1019  0.0524
 3767W        W46861  25.952  12.948  17.034 -0.1053 -0.0171 -0.0192
 3768W        W46862  23.637  11.925  18.974  0.2772 -0.2374  0.0739
 3769W        W46863  24.811  12.002  18.872 -0.3184  0.0474  0.0560
 3770W        W46864  22.327  11.535  17.239 -0.3384 -0.1377  0.1308
 3771W        W46865  25.522  13.503  16.620  0.0863 -0.1176  0.2171
 3772W        W46866  25.315  13.516  17.251 -0.0584 -0.1097 -0.0040
 3773W        W46867  22.751  12.294  18.901 -0.3768 -0.3503 -0.2985
 3774W        W46868  23.635  12.328  15.731  0.0644 -0.1088 -0.0096
 3775W        W46869  25.935  11.496  19.771 -0.0387 -0.0985 -0.2134
 3776W        W46870  22.910  11.986  15.582 -0.0705  0.2468  0.0680
 3777W        W46871  24.442  14.189  18.779 -0.0966  0.0723 -0.0567
 3778W        W46872  22.995  11.254  17.952 -0.0970  0.2264 -0.0365
 3779W        W46873  24.048  11.519  16.107 -0.4380  0.1716 -0.0770
 3780W        W46874  23.070  13.036  16.670  0.1967 -0.0122  0.0729
 3781W        W46875  24.483  12.250  17.633 -0.4204 -0.0445 -0.0097
 3782W        W46876  25.188  13.692  17.820 -0.3165 -0.1130  0.0177
 3783W        W46877  22.988  10.332  16.975 -0.0458  0.1451 -0.0844
 3784W        W46878  24.292  13.709  16.360  0.0210 -0.2018 -0.0386
 3785W        W46879  24.988  12.727  19.279  0.0828 -0.0674  0.1739
 3786W        W46880  23.304  13.315  15.658 -0.0198  0.1209 -0.4003
 3787W        W46881  24.683  14.582  17.551  0.3254 -0.2039 -0.1381
 3788W        W46882  26.638  13.751  16.923  0.2449  0.1336  0.0312
 3789W        W46883  23.313  11.457  18.806  0.0412  0.1836  0.1726
 3790W        W46884  25.682  14.046  17.895  0.1564  0.2349  0.0314
 3791W        W46885  25.322  13.841  16.329  0.1907  0.1870  0.0457
 3792W        W46886  23.610  11.131  17.029  0.1396 -0.0099  0.1769
 3793W        W46887  23.703  10.687  17.437  0.0195 -0.0576  0.1791
 3794W        W46888  21.371  13.362  16.061 -0.1843  0.2127 -0.1301
 3795W        W46889  24.844  11.497  17.602  0.2472 -0.0187  0.2048
 3796W        W46890  24.114  11.792  18.979  0.2053  0.2751  0.1714
 3797W        W46891  22.527  14.725  15.429  0.1434  0.0359 -0.1361
 3798W        W46892  25.657  11.910  19.904  0.1421 -0.0298 -0.0843
 3799W        W46893  23.448  13.584  16.898 -0.0073 -0.1906  0.0377
 3800W        W46894  22.737  13.621  18.353 -0.1278 -0.1516 -0.0856
 3801W        W46895  23.855  13.274  16.872 -0.0458  0.1983  0.0329
 3802W        W46896  24.772  12.955  18.185  0.1999 -0.2606 -0.0333
 3803W        W46897  23.445  13.214  15.077  0.1520  0.2317  0.0985
 3804W        W46898  24.732  14.145  16.143  0.0255  0.3457  0.2226
 3805W        W46899  26.159  13.570  16.099  0.4236 -0.0571  0.1977
 3806W        W46900  25.230  11.853  18.019 -0.2322  0.2562 -0.0818
 3807W        W46901  25.833  12.616  18.194 -0.0701 -0.2281 -0.0454
 3808W        W46902  24.456  11.318  17.359  0.2534 -0.2720 -0.2613
 3809W        W46903  24.578  11.080  16.901 -0.1003  0.1415 -0.0639
 3810W        W46904  23.745  11.002  15.520 -0.0092  0.1117  0.0958
 3811W        W46905  23.296  13.128  20.608  0.3566  0.1223 -0.0247
 3812W        W46906  20.214  11.886  16.094 -0.0545  0.1580 -0.0938
 3813W        W46907  24.176  13.723  15.737 -0.0661 -0.2581 -0.3633
 3814W        W46908  23.774  13.090  17.790 -0.2230 -0.0431 -0.3358
 3815W        W46909  22.686  10.687  20.532  0.3294 -0.1256  0.4086
 3816W        W46910  22.830  11.711  20.723 -0.2537 -0.0575 -0.0593
 3817W        W46911  22.550  13.222  16.422 -0.0524  0.0699  0.0348
 3818W        W46912  23.311  12.124  16.042  0.0896  0.0504  0.0873
 3819W        W46913  25.112  13.375  16.224 -0.1633 -0.1761  0.1878
 3820W        W46914  23.672  11.565  17.301 -0.4098  0.2231 -0.1217
 3821W        W46915  21.675  11.059  18.893  0.1119  0.2505 -0.0932
 3822W        W46916  25.103  13.235  16.738  0.0187  0.0923  0.1131
 3823W        W46917  25.742  13.268  16.193 -0.0613  0.2309  0.1994
 3824W        W46918  24.688  10.748  17.279  0.0718  0.1474 -0.1035
 3825W        W46919  26.059  14.757  20.976  0.0370  0.0710 -0.2843
 3826W        W46920  22.408  12.112  16.561  0.0367  0.0430  0.0088
 3827W        W46921  24.842  12.578  18.623 -0.0074 -0.0713  0.0514
 3828W        W46922  24.648  10.359  20.093  0.0299  0.0217  0.2744
 3829W        W46923  21.134  10.195  17.122  0.1379  0.0556 -0.0908
 3830W        W46924  23.550  11.294  18.301 -0.0070  0.1543 -0.4086
 3831W        W46925  23.876  12.808  15.770  0.0012 -0.1754 -0.0700
 3832W        W46926  24.762  14.795  15.595  0.1463 -0.2070  0.1800
 3833W        W46927  24.372  14.275  17.802  0.1430  0.0558  0.0947
 3834W        W46928  24.637  15.426  19.204  0.2960  0.0467 -0.0190
 3835W        W46929  22.143  10.999  18.766  0.2246  0.1622 -0.1673
 3836W        W46930  23.694  13.519  17.486 -0.1388  0.0091 -0.1002
 3837W        W46931  22.391  13.243  18.237 -0.0815  0.1905  0.3443
 3838W        W46932  25.684  13.743  15.982  0.4384  0.0379  0.0409
 3839W        W46933  25.325  11.029  18.401  0.1526 -0.1251 -0.1918
 3840W        W46934  23.369  12.808  15.703 -0.0430 -0.0757  0.1761
 3841W        W46935  21.460  10.747  18.372  0.0382  0.1990 -0.1068
 3842W        W46936  23.204  12.565  19.128  0.1504 -0.2692  0.1523
 3843W        W46937  24.821  14.534  18.759  0.0696  0.0859  0.2210
 3844W        W46938  21.765   9.273  17.669  0.0824  0.1157  0.1085
 3845W        W46939  25.461  11.839  16.670 -0.0349  0.3425 -0.1861
 3846W        W46940  24.341  13.389  16.753  0.1637 -0.1394  0.2538
 3847W        W46941  22.937  11.814  18.820 -0.0220 -0.1277 -0.0499
 3848W        W46942  24.520  11.644  16.878 -0.1901 -0.0695 -0.1420
 3849W        W46943  23.642  13.783  19.391 -0.0864 -0.2442 -0.2937
 3850W        W46944  24.282  11.772  17.663 -0.1324 -0.3312  0.1598
 3851W        W46945  24.848  13.465  18.875  0.1026 -0.0402 -0.1098
 3852W        W46946  23.956  12.640  17.087 -0.5613 -0.0470  0.0766
 3853W        W46947  25.844  12.056  16.940  0.0518  0.0352  0.0271
 3854W        W46948  23.939  13.597  17.978 -0.2418 -0.3398  0.2870
 3855W        W46949  24.802  14.170  18.413  0.0823 -0.1282 -0.0187
 3856W        W46950  23.007  14.043  16.760 -0.0903  0.1930 -0.2232
 3857W        W46951  24.737  12.783  17.673  0.4109 -0.0026 -0.1650
 3858W        W46952  23.391  10.995  17.914  0.2208  0.2557 -0.1971
 3859W        W46953  22.913  12.458  15.907 -0.0903  0.1162  0.2791
 3860W        W46954  23.007  12.350  17.339  0.0205 -0.0600  0.2441
 3861W        W46955  24.647  12.405  19.086  0.0079 -0.0866 -0.2900
 3862W        W46956  22.228  10.866  18.294 -0.2946 -0.0562  0.0560
 3863W        W46957  22.587   9.170  17.555 -0.5154  0.1391  0.1448
 3864W        W46958  24.641  15.212  17.013 -0.0387 -0.0706  0.1511
 3865W        W46959  25.129  12.715  16.831 -0.2185  0.0329 -0.0198
 3866W        W46960  22.682  12.674  22.845 -0.0172  0.0162 -0.0709
 3867W        W46961  22.862  12.869  21.369 -0.2761 -0.2694  0.1418
 3868W        W46962  23.829  11.861  19.443 -0.1207 -0.0496 -0.0585
 3869W        W46963  24.895  13.525  20.698 -0.2599 -0.2152 -0.4701
 3870W        W46964  21.208  10.841  20.310  0.0008  0.0198 -0.0081
 3871W        W46965  23.859  15.308  20.209  0.4281  0.2118  0.2184
 3872W        W46966  22.011  12.611  21.651 -0.2788 -0.1718 -0.2345
 3873W        W46967  26.850  14.836  23.106  0.0125  0.4589  0.1477
 3874W        W46968  25.244  13.796  23.758  0.0360  0.2210 -0.1184
 3875W        W46969  24.195  13.233  18.210  0.0120 -0.1771  0.5342
 3876W        W46970  23.754  12.397  22.288  0.2094  0.0084  0.0963
 3877W        W46971  23.096  15.014  19.669  0.1272  0.1134  0.1795
 3878W        W46972  22.420  11.812  20.232 -0.0447 -0.0646  0.1868
 3879W        W46973  21.774   9.884  22.214  0.0631 -0.2610 -0.3497
 3880W        W46974  25.129  12.863  22.729 -0.0316 -0.0917  0.0962
 3881W        W46975  22.999  12.879  20.875 -0.1211 -0.0158  0.3049
 3882W        W46976  23.660  11.606  21.844 -0.2403  0.0238 -0.3891
 3883W        W46977  24.224  12.721  19.099 -0.2489  0.3036 -0.0774
 3884W        W46978  24.497  13.639  21.000 -0.0147 -0.1395  0.0164
 3885W        W46979  22.526  10.482  22.422 -0.0910 -0.3297 -0.1383
 3886W        W46980  24.342  10.814  20.756 -0.1152 -0.1370 -0.0556
 3887W        W46981  24.373  14.651  20.901  0.0354  0.0923  0.1530
 3888W        W46982  22.889  10.908  20.069 -0.0561 -0.0758 -0.1027
 3889W        W46983  21.602  12.952  21.582 -0.2593  0.0997 -0.0189
 3890W        W46984  23.228  12.577  22.603  0.0268  0.0262  0.1595
 3891W        W46985  25.016  12.942  21.327 -0.1107 -0.0721  0.0783
 3892W        W46986  23.726  12.659  21.792 -0.1058 -0.0463 -0.0143
 3893W        W46987  24.361  14.161  21.014 -0.0493  0.0254 -0.1971
 3894W        W46988  24.129  14.802  22.599 -0.1192  0.2618 -0.1479
 3895W        W46989  24.766  11.865  21.817  0.1157  0.0847 -0.2181
 3896W        W46990  23.284  13.181  20.026 -0.1372  0.2741  0.0368
 3897W        W46991  22.406  13.937  21.007  0.1756 -0.0165  0.2011
 3898W        W46992  23.940  14.405  20.791 -0.1299  0.0701 -0.1160
 3899W        W46993  26.378  14.154  20.855 -0.1176 -0.4118  0.2392
 3900W        W46994  24.996  13.726  22.153  0.5359  0.1243  0.1338
 3901W        W46995  23.649  13.702  23.206 -0.1940 -0.1710 -0.0860
 3902W        W46996  22.711  13.512  19.773 -0.3849  0.1760  0.0581
 3903W        W46997  22.065  15.736  21.786 -0.2862 -0.0687  0.0159
 3904W        W46998  23.723  13.965  23.690  0.1683 -0.0921  0.0181
 3905W        W46999  23.462  11.979  22.181 -0.1752  0.0027 -0.0194
 3906W        W47000  24.892  12.667  21.745 -0.2099  0.2203  0.2748
 3907W        W47001  23.802  13.447  18.492 -0.1022  0.0827 -0.1762
 3908W        W47002  23.959  13.403  21.277  0.0163 -0.1973 -0.0643
 3909W        W47003  23.265  12.113  23.381  0.1280  0.0449  0.1050
 3910W        W47004  23.583  12.569  18.712  0.0585 -0.1675  0.5951
 3911W        W47005  25.490  10.610  22.749  0.0891 -0.0059 -0.1454
 3912W        W47006  23.974  13.705  19.969 -0.0686 -0.0543 -0.1480
 3913W        W47007  25.597  11.620  19.045 -0.0315 -0.0325 -0.0708
 3914W        W47008  24.380  13.686  20.415 -0.0086  0.1131 -0.0683
 3915W        W47009  24.316  11.409  20.532 -0.0626  0.0161 -0.1539
 3916W        W47010  23.665  12.097  20.966  0.0396  0.1618  0.0709
 3917W        W47011  23.218  15.236  21.266  0.3034 -0.0517  0.3408
 3918W        W47012  25.269  10.879  22.344 -0.3465  0.1756  0.4009
 3919W        W47013  24.820  13.730  22.759  0.5649  0.1027  0.0317
 3920W        W47014  24.800  12.204  21.001 -0.2008  0.0815  0.4289
 3921W        W47015  25.269  12.234  21.784 -0.0281 -0.2696  0.0839
 3922W        W47016  23.054  13.151  23.126 -0.1716  0.2134 -0.0173
 3923W        W47017  23.208  11.947  21.021  0.0572 -0.1795 -0.0434
 3924W        W47018  25.171  14.135  20.430  0.0960  0.2441  0.0157
 3925W        W47019  26.275  14.764  23.059  0.1518  0.1802  0.1689
 3926W        W47020  23.781  14.849  19.278  0.0084  0.1685 -0.0810
 3927W        W47021  23.154  14.625  19.991 -0.2130  0.1128  0.1344
 3928W        W47022  23.335  11.066  21.773 -0.1043  0.1970 -0.0837
 3929W        W47023  23.422  12.437  23.072 -0.2854  0.1621 -0.1337
 3930W        W47024  23.231  10.514  18.236 -0.0152  0.1110 -0.3807
 3931W        W47025  24.716  13.437  23.735 -0.0935  0.0563 -0.0323
 3932W        W47026  21.974  14.211  23.209  0.0970  0.0441 -0.0890
 3933W        W47027  25.288  11.936  22.316 -0.0799 -0.3418  0.0106
 3934W        W47028  24.009  12.914  20.997 -0.1295  0.4967  0.0140
 3935W        W47029  25.614  13.902  21.822  0.1903  0.0931  0.0181
 3936W        W47030  25.991  14.429  20.042  0.5948  0.2709  0.0275
 3937W        W47031  24.734  11.301  20.310  0.0330 -0.1738 -0.2699
 3938W        W47032  25.078  11.193  21.978 -0.1864  0.1810 -0.0670
 3939W        W47033  24.389  13.463  19.067 -0.0157  0.1562 -0.3077
 3940W        W47034  24.735  12.897  20.195  0.0473 -0.3371 -0.0334
 3941W        W47035  24.914  12.450  22.965  0.2603 -0.0143 -0.3031
 3942W        W47036  25.256  13.243  19.186 -0.2175 -0.3147 -0.2064
 3943W        W47037  23.126  13.744  23.025 -0.1555 -0.1221 -0.0197
 3944W        W47038  23.705  12.261  23.645 -0.0563 -0.0259  0.1494
 3945W        W47039  23.669  13.879  24.607 -0.0830  0.0063 -0.1215
 3946W        W47040  24.089  13.477  19.545  0.2132 -0.2140 -0.0780
 3947W        W47041  22.562  13.097  21.800  0.3752  0.2790  0.0243
 3948W        W47042  23.494  13.431  21.521  0.2453 -0.0855  0.2661
 3949W        W47043  21.142  11.849  23.845  0.1410 -0.2046 -0.0584
 3950W        W47044  24.333  11.708  22.574 -0.0637 -0.0872  0.1168
 3951W        W47045  24.752   9.973  19.860 -0.2611 -0.0936  0.2056
 3952W        W47046  21.609  11.579  22.492 -0.0428 -0.1344 -0.1786
 3953W        W47047  24.340  11.365  21.569 -0.2583  0.0178 -0.1947
 3954W        W47048  23.812  14.216  20.227  0.2743  0.1484  0.0602
 3955W        W47049  24.840  15.076  22.628  0.0974 -0.1469 -0.0528
 3956W        W47050  25.525  13.491  19.840 -0.1860  0.1254  0.1625
 3957W        W47051  24.789  14.545  21.203  0.1263  0.1262 -0.1505
 3958W        W47052  20.975  13.767  22.070 -0.0758  0.0200 -0.2455
 3959W        W47053  23.588  11.963  19.898  0.0829  0.0088  0.0780
 3960W        W47054  22.846  12.149  21.548 -0.0640 -0.3702 -0.0407
 3961W        W47055  22.646  11.183  22.051 -0.2573  0.0552  0.1244
 3962W        W47056  25.737  10.309  22.453  0.0791 -0.1543 -0.0217
 3963W        W47057  22.576   9.932  19.114 -0.0566  0.0171  0.0547
 3964W        W47058  25.136  11.674  20.530 -0.0965  0.1547  0.1876
 3965W        W47059  23.485  14.151  19.773 -0.1342  0.0498 -0.1443
 3966W        W47060  22.044  13.941  17.622 -0.1870  0.3428 -0.0414
 3967W        W47061  25.150  11.430  23.019 -0.0507 -0.2387  0.0293
 3968W        W47062  24.384  14.772  19.921  0.0894 -0.0467  0.0093
 3969W        W47063  24.658  14.854  24.046  0.0208 -0.1847  0.0440
 3970W        W47064  24.661  13.131  20.979  0.1325 -0.3395 -0.2205
 3971W        W47065  24.195  11.831  21.666  0.0292  0.2372  0.0206
 3972W        W47066  22.253  10.723  19.639 -0.1872  0.1521  0.1453
 3973W        W47067  23.651  14.373  19.338 -0.0315  0.1612 -0.0983
 3974W        W47068  22.805  14.238  22.342  0.0315 -0.0001 -0.1592
 3975W        W47069  23.393  12.667  19.788  0.2075  0.3918  0.1466
 3976W        W47070  24.736  15.984  23.042  0.0686 -0.0411 -0.2722
 3977W        W47071  24.508  13.636  19.802  0.1451  0.4078  0.1127
 3978W        W47072  23.302  15.634  20.212  0.1087 -0.1395 -0.0188
 3979W        W47073  22.933  10.299  23.477  0.0425 -0.0921  0.1763
 3980W        W47074  25.463  13.469  22.011  0.0765 -0.2794 -0.0662
 3981W        W47075  23.786  11.405  21.413  0.3516 -0.0676 -0.2143
 3982W        W47076  21.789  11.372  20.206  0.1467  0.3669  0.0051
 3983W        W47077  26.135  14.802  21.526  0.1478 -0.2192 -0.2033
 3984W        W47078  22.691  14.218  19.183  0.1560  0.0803 -0.0255
 3985W        W47079  22.249  12.342  20.283 -0.2019 -0.0114 -0.0963
 3986W        W47080  24.064  13.911  22.143  0.1916  0.0843 -0.4129
 3987W        W47081  26.804  11.989  21.102  0.2259 -0.2022  0.2699
 3988W        W47082  21.290  12.858  22.711 -0.0057  0.0810  0.0302
 3989W        W47083  25.085  11.889  22.865 -0.0365 -0.0992  0.1568
 3990W        W47084  22.691  12.651  20.543  0.0972 -0.1661  0.1890
 3991W        W47085  22.279  14.081  21.870 -0.1048 -0.1820 -0.0213
 3992W        W47086  24.315  10.921  20.232  0.4145 -0.1562  0.0829
 3993W        W47087  24.680  11.688  20.741 -0.2419  0.0869  0.0723
 3994W        W47088  23.056  13.617  24.182 -0.2855 -0.0578 -0.1880
 3995W        W47089  26.666  13.944  21.680 -0.3149  0.0576 -0.0551
 3996W        W47090  24.473  12.544  19.578 -0.5112  0.1231  0.0716
 3997W        W47091  23.772  12.866  20.051  0.0711  0.0930 -0.2638
 3998W        W47092  22.419  13.444  24.488 -0.0630  0.0695  0.0113
 3999W        W47093  24.445  13.346  21.408  0.2421 -0.0514  0.0052
 4000W        W47094  24.694  13.057  22.088 -0.0492  0.0688 -0.0279
 4001W        W47095  24.800  13.241  19.359 -0.0146  0.0367  0.0017
 4002W        W47096  26.704  13.779  21.185 -0.2667 -0.2391 -0.1596
 4003W        W47097  23.315  14.171  20.239  0.3662  0.1154  0.2433
 4004W        W47098  25.622  13.367  25.162 -0.4281  0.3824  0.0971
 4005W        W47099  25.594  12.852  21.056 -0.3691 -0.3314 -0.1877
 4006W        W47100  24.020  10.989  22.539  0.1641  0.1032 -0.3895
 4007W        W47101  24.736  12.680  20.664  0.0074  0.2316 -0.0742
 4008W        W47102  23.362  11.527  20.633  0.0513 -0.0651 -0.3441
 4009W        W47103  22.790  13.948  18.763 -0.0634  0.1602 -0.0574
 4010W        W47104  24.656  11.704  21.258  0.4992 -0.0604 -0.0114
 4011W        W47105  24.376  12.435  23.013  0.3839  0.0386  0.2430
 4012W        W47106  24.065  10.558  21.589  0.0658  0.0143  0.1027
 4013W        W47107  25.138  11.964  24.698  0.2620 -0.0841 -0.3058
 4014W        W47108  25.079  11.466  21.052 -0.0399  0.2603  0.1336
 4015W        W47109  24.880  12.237  22.151  0.2400  0.2918 -0.1984
 4016W        W47110  22.818  11.449  19.329 -0.2021 -0.0629  0.0687
 4017W        W47111  23.647  11.141  22.119  0.1086  0.0900 -0.0788
 4018W        W47112  23.622  12.105  22.671 -0.0012 -0.4559 -0.0187
 4019W        W47113  23.063  15.120  22.321 -0.2946 -0.0516  0.2546
 4020W        W47114  24.177  15.597  23.714 -0.2329 -0.3451  0.2898
 4021W        W47115  24.789  13.422  20.161  0.0986 -0.0048 -0.1446
 4022W        W47116  22.539  11.611  25.713 -0.0663 -0.0434  0.2035
 4023W        W47117  24.149  12.809  20.464  0.0031 -0.4093 -0.2926
 4024W        W47118  23.813  15.023  18.660  0.1150  0.6615 -0.1812
 4025W        W47119  23.650  13.052  18.783 -0.0415 -0.1063 -0.0332
 4026W        W47120  22.894  11.229  21.074 -0.1729 -0.0304 -0.0948
 4027W        W47121  25.026  14.682  22.196  0.4200  0.0581  0.0098
 4028W        W47122  23.219  13.329  17.603  0.0854 -0.1488  0.2017
 4029W        W47123  23.716  12.995  21.383 -0.1016  0.1754  0.3431
 4030W        W47124  22.546  14.383  21.252  0.2557 -0.0025 -0.1817
 4031W        W47125  25.950  11.135  21.490 -0.1776 -0.1895 -0.1106
 4032W        W47126  23.268  14.965  20.844 -0.2346 -0.1061 -0.2502
 4033W        W47127  22.880  12.079  17.799 -0.0416 -0.4302  0.0946
 4034W        W47128  21.633  12.020  19.514  0.0285  0.1534  0.0011
 4035W        W47129  25.686  11.577  21.836  0.0921 -0.1059  0.1949
 4036W        W47130  26.135  14.005  20.429  0.1189 -0.0867 -0.2430
 4037W        W47131  23.220  12.417  21.259  0.1461 -0.3315  0.0910
 4038W        W47132  23.209  12.461  20.712  0.3298  0.3053 -0.3900
 4039W        W47133  22.953  15.509  20.934 -0.2750  0.0077  0.1307
 4040W        W47134  23.851  12.969  23.469 -0.1213 -0.0783 -0.1859
 4041W        W47135  24.242  10.789  19.708 -0.1559  0.1485  0.0443
 4042W        W47136  23.930  12.855  22.157 -0.0628 -0.3073  0.0647
 4043W        W47137  23.072  12.779  24.208  0.2131 -0.1571  0.0980
 4044W        W47138  22.091   9.787  18.778 -0.1684  0.1001 -0.2906
 4045W        W47139  25.987  11.299  22.966 -0.3180 -0.2185 -0.0383
 4046W        W47140  25.097  13.008  20.746 -0.0192 -0.3935 -0.0989
 4047W        W47141  22.612  13.042  22.388 -0.0548 -0.0617  0.0360
 4048W        W47142  23.275  15.340  23.620  0.2090  0.1075 -0.0361
 4049W        W47143  22.469  11.356  18.996  0.2260  0.2997 -0.1087
 4050W        W47144  23.602  13.480  20.253  0.1260  0.0447 -0.1201
 4051W        W47145  23.428  10.964  22.782 -0.3273 -0.1044  0.0997
 4052W        W47146  23.875  13.653  22.747  0.0147 -0.0662  0.3282
 4053W        W47147  23.734  12.451  21.265 -0.1265 -0.0172  0.2897
 4054W        W47148  23.234  13.378  22.182  0.1265 -0.1000 -0.0906
 4055W        W47149  23.345  12.282  21.784 -0.1759  0.0034 -0.1280
 4056W        W47150  24.572  13.701  21.787 -0.1490 -0.2530  0.0535
 4057W        W47151  25.448  11.422  22.324  0.1536  0.0258  0.1903
 4058W        W47152  22.411  13.537  23.895  0.1646  0.0685  0.3494
 4059W        W47153  22.793   9.625  21.244 -0.0926  0.0418 -0.0581
 4060W        W47154  24.712  14.202  22.886 -0.2549  0.2846  0.3200
 4061W        W47155  23.025  12.601  23.265  0.1151 -0.0907  0.3307
 4062W        W47156  23.602  13.121  19.648  0.0079  0.1492  0.0742
 4063W        W47157  23.532  12.983  22.416 -0.1482  0.1755  0.2405
 4064W        W47158  23.484  14.476  20.612  0.3406 -0.0089  0.0162
 4065W        W47159  24.148  12.323  22.536  0.2315 -0.0572  0.3018
 4066W        W47160  22.128  13.687  20.498 -0.0347 -0.2395  0.0511
 4067W        W47161  23.106  12.607  18.511  0.0836 -0.0701  0.0388
 4068W        W47162  22.358  13.075  22.843  0.1363 -0.0079  0.1289
 4069W        W47163  24.576  11.336  19.825 -0.1745  0.0704 -0.3046
 4070W        W47164  24.311  11.729  19.631  0.0418 -0.1047  0.0031
 4071W        W47165  23.325  12.821  21.582 -0.0363 -0.0745 -0.0296
 4072W        W47166  25.806  10.931  22.286  0.2422 -0.0652  0.0859
 4073W        W47167  24.764  12.409  20.050 -0.2930  0.0324 -0.0469
 4074W        W47168  22.926  12.843  23.667  0.2124 -0.0449 -0.1535
 4075W        W47169  22.388  10.130  22.011  0.1246 -0.0721  0.0675
 4076W        W47170  25.140  13.201  22.302  0.0603  0.1670 -0.1470
 4077W        W47171  23.315  12.642  22.125 -0.1241 -0.0879  0.2378
 4078W        W47172  25.216  14.336  23.642 -0.0686  0.1107 -0.0423
 4079W        W47173  22.892  12.567  21.777  0.0941  0.0654  0.0691
 4080W        W47174  23.976  11.113  20.824 -0.0460  0.0501 -0.2603
 4081W        W47175  23.191   9.758  21.563  0.4107  0.4201 -0.2843
 4082W        W47176  23.047  14.316  21.429 -0.0080 -0.0644 -0.0572
 4083W        W47177  24.831  13.733  23.244 -0.3230 -0.1289 -0.0825
 4084W        W47178  24.468  13.205  20.509 -0.1185  0.0767 -0.0709
 4085W        W47179  24.563  11.260  20.953 -0.0727 -0.1437  0.0789
 4086W        W47180  23.145  13.311  21.179  0.0655  0.0543  0.1968
 4087W        W47181  24.928  12.149  20.427 -0.3168  0.0535  0.2190
 4088W        W47182  24.313  14.265  20.003  0.1192 -0.2463  0.0232
 4089W        W47183  22.836  12.437  21.023 -0.0855  0.0880  0.1384
 4090W        W47184  23.182  11.496  21.976  0.2209 -0.0898  0.1442
 4091W        W47185  25.873  12.596  23.210 -0.1315  0.1550  0.2341
 4092W        W47186  23.526  12.718  20.438  0.1344 -0.0089 -0.0530
 4093W        W47187  24.664  12.090  22.573  0.0257 -0.0234 -0.1568
 4094W        W47188  23.782  13.470  22.204 -0.0773  0.2677 -0.0154
 4095W        W47189  24.416  11.973  22.146 -0.0223 -0.3534 -0.2371
 4096W        W47190  22.904  11.509  23.702  0.3816 -0.2867 -0.0432
 4097W        W47191  24.929  14.157  22.470  0.0753  0.2296  0.0603
 4098W        W47192  25.272  12.583  20.806 -0.1291  0.0562  0.0365
 4099W        W47193  25.087  10.428  23.586  0.3305  0.0144 -0.0178
 4100W        W47194  25.445  11.606  19.545 -0.2017  0.0035  0.2287
 4101W        W47195  25.262  13.709  20.187 -0.1657  0.1678  0.1280
 4102W        W47196  23.903  13.190  22.649  0.1139  0.3390 -0.0393
 4103W        W47197  24.248  12.693  23.499  0.3464  0.0257  0.0625
 4104W        W47198  22.942  12.745  19.673  0.0554  0.1154  0.1714
 4105W        W47199  23.942  11.070  21.711  0.1668 -0.2602 -0.0797
 4106W        W47200  23.797  12.969  18.298  0.2692 -0.1389 -0.0158
 4107W        W47201  22.765  13.420  22.694 -0.0560  0.1649  0.0924
 4108W        W47202  25.189  12.611  20.334 -0.1596  0.1952 -0.0199
 4109W        W47203  22.272  12.060  21.631 -0.1498 -0.0290  0.2094
 4110W        W47204  21.474  14.950  23.319  0.1599 -0.2302 -0.3967
 4111W        W47205  22.771  11.481  20.150 -0.0312  0.1237  0.1300
 4112W        W47206  23.266  12.189  18.759 -0.2496 -0.1053  0.1287
 4113W        W47207  24.287  14.108  23.866  0.2655  0.0186 -0.0580
 4114W        W47208  24.910  11.772  25.198 -0.3844  0.0927  0.1056
 4115W        W47209  22.494  11.741  19.673 -0.3107 -0.0853  0.1056
 4116W        W47210  25.522  12.409  23.544 -0.0268 -0.3522 -0.2929
 4117W        W47211  23.491  12.806  20.962  0.1711 -0.1144 -0.1732
 4118W        W47212  23.310   9.693  20.498 -0.0313  0.1005  0.2026
 4119W        W47213  23.464  13.852  20.631  0.1333  0.2376  0.0196
 4120W        W47214  21.540  12.879  22.162  0.0347 -0.1315 -0.0575
 4121W        W47215  23.705  13.949  21.748 -0.0739 -0.0979  0.0121
 4122W        W47216  24.082  11.373  22.213  0.0307 -0.0747 -0.1044
 4123W        W47217  25.206  12.434  21.278 -0.0737 -0.1244 -0.1050
 4124W        W47218  23.812  13.857  21.106 -0.2122  0.0555 -0.3207
 4125W        W47219  25.675  12.945  23.528 -0.0513 -0.0649  0.0682
 4126W        W47220  24.302  12.882  22.514 -0.2080  0.0515 -0.1040
 4127W        W47221  23.131  14.134  20.896  0.2382  0.0362 -0.1890
 4128W        W47222  25.090  13.329  22.916 -0.0086 -0.0756  0.2063
 4129W        W47223  26.178  14.371  21.273  0.3152  0.2188  0.0095
 4130W        W47224  22.002  13.661  21.275 -0.0352 -0.0373  0.0810
 4131W        W47225  21.250  11.166  22.269  0.2549 -0.2483  0.3169
 4132W        W47226  22.856  13.151  24.474  0.0056  0.2643 -0.2464
 4133W        W47227  25.649  12.890  20.559  0.2580  0.0305  0.0228
 4134W        W47228  23.352  10.817  19.723  0.0669  0.0210  0.1963
 4135W        W47229  24.635  14.118  21.445  0.0460  0.0543 -0.5275
 4136W        W47230  21.578  13.391  22.092  0.1142  0.0452  0.0129
 4137W        W47231  22.505  12.879  21.037 -0.3245  0.0620 -0.0729
 4138W        W47232  23.486  13.346  19.213  0.1212  0.1327  0.0985
 4139W        W47233  24.169  13.220  20.045 -0.0777  0.3332 -0.1565
 4140W        W47234  25.046  13.920  21.734  0.0756  0.1155  0.1137
 4141W        W47235  22.909  15.149  20.510 -0.0105  0.1972  0.0067
 4142W        W47236  24.845  10.954  19.784 -0.0665  0.1269 -0.0950
 4143W        W47237  23.769  14.760  21.138  0.0995 -0.4451  0.0323
 4144W        W47238  23.039  13.196  18.944 -0.1623 -0.0663 -0.1926
 4145W        W47239  24.057  14.072  19.573  0.1354  0.1165 -0.1745
 4146W        W47240  23.828  14.510  19.835 -0.3005  0.1969  0.1439
 4147W        W47241  25.687  13.817  25.688 -0.0068  0.2207 -0.2951
 4148W        W47242  24.940  12.166  19.408 -0.2279  0.3414  0.2250
 4149W        W47243  26.722  12.923  23.331  0.2599  0.3274 -0.0704
 4150W        W47244  24.973  12.735  19.770 -0.1153  0.3357 -0.0099
 4151W        W47245  23.082  13.042  22.569 -0.0528 -0.1402 -0.1483
 4152W        W47246  23.567  13.402  20.942  0.0384  0.0571  0.1955
 4153W        W47247  23.351  12.306  20.159  0.2822  0.2468  0.2600
 4154W        W47248  23.847  12.660  23.945  0.1062  0.1506 -0.1791
 4155W        W47249  25.040  10.633  23.078  0.2372 -0.1547  0.0678
 4156W        W47250  21.184  13.345  22.491  0.0840 -0.0546 -0.0140
 4157W        W47251  24.057  14.660  20.350 -0.2718  0.5471 -0.0836
 4158W        W47252  21.750  10.767  20.769  0.0129 -0.2964 -0.0748
 4159W        W47253  23.927  14.242  21.438  0.0749  0.1792  0.0624
 4160W        W47254  26.668  11.209  22.049  0.1606  0.3689 -0.1791
 4161W        W47255  24.259  13.258  17.718 -0.0300  0.0320 -0.0181
 4162W        W47256  24.567  12.686  21.173  0.0479 -0.5171 -0.0379
 4163W        W47257  22.810  15.051  21.018 -0.0870 -0.1010  0.1256
 4164W        W47258  23.387  13.924  21.377  0.1991 -0.2745  0.0103
 4165W        W47259  23.086  15.675  22.045  0.2569 -0.1091  0.2879
 4166W        W47260  22.027  10.143  20.253 -0.1785  0.4063  0.2551
 4167W        W47261  25.586  12.952  22.016  0.0101  0.0695 -0.1567
 4168W        W47262  24.157  12.649  21.491  0.0933  0.3085 -0.1303
 4169W        W47263  23.930  12.232  21.874 -0.4118 -0.1734  0.0594
 4170W        W47264  22.412  12.080  22.115  0.2038  0.2148  0.2430
 4171W        W47265  25.781  12.098  21.773  0.0990  0.1360  0.1361
 4172W        W47266  24.220  13.049  21.775 -0.0750  0.2249 -0.0035
 4173W        W47267  22.198  11.476  21.623 -0.1957  0.1629 -0.0647
 4174W        W47268  24.452  12.280  18.311 -0.2572 -0.2376 -0.0483
 4175W        W47269  24.707  11.965  23.207 -0.0734 -0.0741  0.1166
 4176W        W47270  24.117  12.124  21.299 -0.0521 -0.0511  0.2110
 4177W        W47271  23.810  14.810  24.841 -0.1812 -0.1003  0.2591
 4178W        W47272  22.235  11.584  20.719  0.0574  0.1870  0.2671
 4179W        W47273  25.308  12.047  20.958 -0.0031  0.0068  0.3124
 4180W        W47274  22.804  12.369  19.964  0.0233  0.3441  0.0115
 4181W        W47275  25.195  12.358  22.583  0.1344  0.3309 -0.0354
 4182W        W47276  25.848  12.971  24.016 -0.0693  0.0810  0.3349
 4183W        W47277  23.186  10.664  20.468 -0.0054  0.0879  0.0102
 4184W        W47278  26.062  13.604  19.888  0.0153 -0.1050 -0.0564
 4185W        W47279  25.573  13.254  22.483 -0.0351  0.0697  0.1730
 4186W        W47280  24.561  13.867  19.255  0.0484  0.2762  0.1584
 4187W        W47281  24.745  12.635  22.451 -0.2380 -0.0184  0.1081
 4188W        W47282  24.172  15.283  22.875  0.2581  0.1699 -0.1503
 4189W        W47283  22.179  12.190  22.913  0.0452 -0.4642 -0.0960
 4190W        W47284  23.089  13.807  22.456  0.0643 -0.0415 -0.2528
 4191W        W47285  24.417  13.475  22.915  0.1865 -0.1636  0.2640
 4192W        W47286  24.941  10.359  21.278  0.1012 -0.0106 -0.2128
 4193W        W47287  22.322  12.492  20.839 -0.2647 -0.2578 -0.0725
 4194W        W47288  22.234  13.484  21.829 -0.0701  0.0390  0.0570
 4195W        W47289  25.689  12.188  22.715  0.1063  0.0361  0.1332
 4196W        W47290  25.686  12.381  21.148  0.0861 -0.0533 -0.1729
 4197W        W47291  23.887  13.725  16.634 -0.0569  0.1398 -0.0941
 4198W        W47292  23.485  11.188  23.740 -0.0507  0.2020  0.3424
 4199W        W47293  23.960  14.177  22.557 -0.2452 -0.2218  0.1229
 4200W        W47294  22.978  14.279  24.100  0.0651 -0.0910  0.0912
 4201W        W47295  22.939  13.034  18.063 -0.0421 -0.4124  0.0468
 4202W        W47296  23.660  11.853  21.420 -0.0355  0.1154  0.1355
 4203W        W47297  23.513  14.368  21.100 -0.3725  0.2320 -0.0040
 4204W        W47298  24.362  12.112  19.346  0.3682 -0.2607  0.1219
 4205W        W47299  25.709  14.127  21.387  0.1282  0.0174 -0.0203
 4206W        W47300  23.062  12.730  20.150 -0.0150 -0.1596  0.1671
 4207W        W47301  26.436  13.285  22.484 -0.0255 -0.1141 -0.0530
 4208W        W47302  23.317  10.634  21.397 -0.1333  0.0908 -0.0248
 4209W        W47303  25.661  12.467  20.136 -0.0483 -0.0683  0.0857
 4210W        W47304  24.456  10.388  21.372  0.3723  0.1624 -0.1438
 4211W        W47305  24.163  11.928  23.029  0.3648 -0.0827 -0.0557
 4212W        W47306  21.257  12.582  20.263  0.1496  0.0094 -0.1044
 4213W        W47307  23.842  12.356  20.189  0.1398  0.2208 -0.0143
 4214W        W47308  23.755  13.110  20.619 -0.1465  0.0675 -0.2850
 4215W        W47309  24.718  11.025  22.246  0.0302  0.2449  0.2204
 4216W        W47310  23.959  11.885  22.228 -0.0645  0.0482  0.3106
 4217W        W47311  23.525  14.481  21.631  0.1055 -0.0670  0.1297
 4218W        W47312  22.934  12.039  20.301 -0.0961  0.1604  0.0458
 4219W        W47313  26.242  13.746  21.304 -0.0331  0.0077 -0.0643
 4220W        W47314  22.380  10.985  21.431 -0.1567 -0.1889 -0.0708
 4221W        W47315  21.692  11.321  21.876 -0.1611 -0.1008  0.0739
 4222W        W47316  25.157  14.173  21.341 -0.1582 -0.2156 -0.2787
 4223W        W47317  25.015  13.275  21.811  0.1091  0.3554  0.0752
 4224W        W47318  21.936  10.757  19.140  0.2270  0.2973 -0.2945
 4225W        W47319  26.443  16.393  25.471 -0.1674  0.2470 -0.1764
 4226W        W47320  23.438  13.634  19.806 -0.5076  0.2140 -0.1148
 4227W        W47321  25.116  12.195  23.357  0.2611  0.1842  0.0927
 4228W        W47322  23.320  11.300  21.272  0.0534 -0.1735 -0.1904
 4229W        W47323  22.599   9.883  18.608 -0.0755  0.3461 -0.0845
 4230W        W47324  23.575  13.096  21.920 -0.3318 -0.0746 -0.2537
 4231W        W47325  23.372  15.439  20.658  0.0362 -0.2207 -0.1336
 4232W        W47326  23.959  13.920  20.594 -0.0013  0.2147 -0.0827
 4233W        W47327  23.261  14.633  22.415 -0.2326 -0.0966  0.5051
 4234W        W47328  23.721  14.768  22.219 -0.0549 -0.2197 -0.2576
 4235W        W47329  22.634  11.362  23.189 -0.1487  0.2291  0.0052
 4236W        W47330  24.588  13.128  19.763  0.1258  0.3038 -0.0638
 4237W        W47331  23.607  13.888  22.350  0.1103  0.2496 -0.0093
 4238W        W47332  24.766  13.928  20.122 -0.0650  0.0571 -0.1707
 4239W        W47333  25.289  10.324  22.233 -0.0163  0.0562  0.1400
 4240W        W47334  24.459  12.516  21.950  0.0141  0.2523 -0.1168
 4241W        W47335  23.130  10.792  23.492  0.3382  0.1535 -0.0782
 4242W        W47336  23.784  12.578  22.734  0.0710 -0.2533  0.1112
 4243W        W47337  25.292  13.314  23.451  0.0524 -0.0126  0.3939
 4244W        W47338  21.053  12.056  21.816  0.1776 -0.4331 -0.0464
 4245W        W47339  23.995  10.420  20.055 -0.2982 -0.1652  0.0300
 4246W        W47340  24.251  13.154  18.693 -0.1799  0.2804 -0.2029
 4247W        W47341  23.214  13.814  21.871  0.0293 -0.3360  0.3415
 4248W        W47342  23.402  12.249  19.555  0.1378  0.2317 -0.0892
 4249W        W47343  24.223  11.432  23.099  0.1496  0.1059 -0.0740
 4250W        W47344  24.107  13.468  20.780 -0.3194  0.3139 -0.3638
 4251W        W47345  25.011  13.463  24.697  0.2564  0.1816  0.1586
 4252W        W47346  22.500  10.976  20.884 -0.0786 -0.0423  0.0246
 4253W        W47347  25.358  13.367  20.537 -0.1028  0.0802  0.0151
 4254W        W47348  23.339  13.429  22.688  0.0633  0.2894 -0.0280
 4255W        W47349  24.352  15.174  24.272 -0.0457 -0.0111 -0.4852
 4256W        W47350  22.797  15.963  21.194  0.0934 -0.0918 -0.0830
 4257W        W47351  25.200  12.638  22.139  0.4492  0.0600 -0.0293
 4258W        W47352  22.850  10.794  21.551  0.0395 -0.0571 -0.0200
 4259W        W47353  23.916  12.350  19.649 -0.1927  0.0520 -0.2910
 4260W        W47354  24.056  14.193  19.027  0.0512 -0.2863 -0.0852
 4261W        W47355  26.228  12.364  22.991  0.1661  0.1807 -0.1952
 4262W        W47356  22.904  11.349  21.572 -0.0074 -0.1170  0.1474
 4263W        W47357  24.529  11.605  19.191  0.0393  0.0914  0.3160
 4264W        W47358  24.571  14.924  23.039 -0.0263 -0.3981  0.0881
 4265W        W47359  24.278  13.435  22.394  0.2887  0.2072  0.1400
 4266W        W47360  22.834  13.067  25.497  0.1710  0.2971  0.2596
 4267W        W47361  22.607  11.974  25.121 -0.2782  0.1822 -0.0994
 4268W        W47362  24.708  11.019  23.172  0.0080 -0.0420 -0.0256
 4269W        W47363  25.019  14.189  25.180  0.2900 -0.0774 -0.3350
 4270W        W47364  22.615  12.699  24.440 -0.3213  0.1837 -0.2118
 4271W        W47365  24.630  15.367  23.761  0.3066 -0.0769 -0.0549
 4272W        W47366  22.477  11.569  27.547  0.1534 -0.2680  0.0110
 4273W        W47367  22.882  12.454  25.374  0.0676 -0.1198  0.2681
 4274W        W47368  25.586  13.824  27.042  0.1367 -0.0458  0.3128
 4275W        W47369  22.736  13.447  22.171  0.1139  0.0717  0.0382
 4276W        W47370  23.808  11.115  26.027 -0.1961  0.2715  0.1227
 4277W        W47371  23.822  13.866  25.752 -0.3065 -0.3449  0.0785
 4278W        W47372  23.367  10.795  26.152 -0.0680 -0.2464  0.0905
 4279W        W47373  21.712  13.116  25.378  0.0201 -0.1220 -0.4736
 4280W        W47374  23.580  13.483  26.268 -0.2055 -0.0533  0.0592
 4281W        W47375  22.281  12.450  24.712  0.2590  0.2300 -0.0393
 4282W        W47376  23.741  12.772  25.725  0.4282 -0.1412 -0.2415
 4283W        W47377  24.554  11.392  22.000  0.2213 -0.2671 -0.0543
 4284W        W47378  23.826  14.337  25.813 -0.0366  0.2007  0.2239
 4285W        W47379  23.687  12.796  26.739 -0.2464 -0.0205  0.1233
 4286W        W47380  23.311  12.922  26.353 -0.0457  0.2252 -0.1898
 4287W        W47381  24.208  14.510  24.341  0.4389  0.0879  0.1845
 4288W        W47382  22.503  12.412  23.418 -0.4212  0.0647 -0.0491
 4289W        W47383  21.780  13.371  24.467 -0.0174  0.3237  0.3554
 4290W        W47384  23.370  12.466  25.025 -0.4689  0.3880  0.0421
 4291W        W47385  24.922  12.436  25.403 -0.0330  0.2809  0.1130
 4292W        W47386  24.683  13.353  25.562  0.0198 -0.1141 -0.0169
 4293W        W47387  23.240  14.247  24.594 -0.0706 -0.1498 -0.1478
 4294W        W47388  23.601  15.732  24.464 -0.1192  0.1790 -0.0215
 4295W        W47389  24.943  12.866  28.252  0.1662  0.2179  0.2767
 4296W        W47390  21.992  13.583  25.406 -0.2293  0.2112 -0.2237
 4297W        W47391  21.527  14.889  26.040  0.1598  0.0486  0.2169
 4298W        W47392  22.100  13.186  24.038 -0.1456 -0.1678 -0.0987
 4299W        W47393  24.767  13.833  24.173 -0.0968 -0.1514  0.0659
 4300W        W47394  25.468  12.606  26.677 -0.1013 -0.0583  0.2279
 4301W        W47395  23.102  15.464  27.553 -0.0058 -0.0106  0.0819
 4302W        W47396  21.477  14.337  22.803 -0.2243  0.4096  0.1152
 4303W        W47397  22.043  14.930  26.114  0.2599  0.3748  0.0411
 4304W        W47398  22.682  14.512  27.571 -0.0672  0.0383  0.2177
 4305W        W47399  24.046  12.111  24.471 -0.4922  0.0062  0.4540
 4306W        W47400  24.278  12.952  24.772 -0.5092 -0.1572  0.0602
 4307W        W47401  23.413  14.446  23.837  0.2063 -0.0321  0.2673
 4308W        W47402  23.421  14.025  24.166  0.1181 -0.3975 -0.0684
 4309W        W47403  22.900  14.396  27.108 -0.0294  0.0387  0.3417
 4310W        W47404  21.179  13.216  25.064  0.1237  0.1532  0.1447
 4311W        W47405  25.174  11.169  27.110 -0.0147 -0.1339  0.0858
 4312W        W47406  22.846  15.582  23.009 -0.0806  0.0049 -0.1636
 4313W        W47407  24.994  11.046  22.742 -0.1581 -0.0352 -0.0095
 4314W        W47408  23.196  11.733  21.568  0.1660 -0.1283 -0.1784
 4315W        W47409  24.800  11.657  22.360  0.1238  0.1962 -0.2743
 4316W        W47410  23.138  10.348  25.980 -0.1887 -0.0158 -0.2940
 4317W        W47411  23.097  15.569  24.489 -0.2156 -0.4097 -0.0222
 4318W        W47412  23.127  12.644  25.785 -0.2141  0.0614 -0.0323
 4319W        W47413  24.056  13.856  26.759 -0.2935 -0.1532 -0.3010
 4320W        W47414  24.311  12.233  23.465 -0.3541 -0.0274 -0.2383
 4321W        W47415  24.228  11.564  26.953 -0.1078  0.0823 -0.1365
 4322W        W47416  22.163  15.806  25.932  0.1896 -0.0813  0.0899
 4323W        W47417  22.559  12.701  25.634 -0.2520  0.2176 -0.3719
 4324W        W47418  25.723  13.930  23.970  0.2866 -0.2658 -0.1946
 4325W        W47419  24.397  15.077  25.401 -0.2784  0.0739  0.1762
 4326W        W47420  23.535  12.958  22.951  0.1299 -0.0676 -0.0268
 4327W        W47421  22.453  12.882  24.958 -0.1024  0.0024  0.2556
 4328W        W47422  22.533  13.781  26.254 -0.2612 -0.1862 -0.1266
 4329W        W47423  22.734  13.986  26.869 -0.1737  0.1447 -0.1123
 4330W        W47424  21.483  11.077  24.593 -0.1176 -0.0880  0.0021
 4331W        W47425  24.352  11.810  28.615  0.3076  0.0962  0.1431
 4332W        W47426  21.997  12.633  26.394  0.3621  0.0873 -0.0938
 4333W        W47427  24.669  12.091  24.811 -0.1928  0.0007  0.3698
 4334W        W47428  23.772  13.378  25.793 -0.2919  0.0910  0.0904
 4335W        W47429  25.025  13.973  26.754  0.3122 -0.1028  0.0036
 4336W        W47430  24.700  13.844  25.437  0.4537 -0.2149  0.1200
 4337W        W47431  24.583  11.220  26.690 -0.2225  0.3046  0.0566
 4338W        W47432  24.679  10.584  25.925 -0.2279  0.1211  0.2453
 4339W        W47433  21.508  13.374  23.044 -0.0859 -0.1693 -0.1217
 4340W        W47434  23.152  13.193  23.862  0.0404  0.2691  0.0189
 4341W        W47435  25.924  12.765  26.547 -0.0543  0.2695 -0.1749
 4342W        W47436  24.122  12.853  22.967  0.0379 -0.1422 -0.0635
 4343W        W47437  22.137  12.983  25.648 -0.0605 -0.0573  0.0320
 4344W        W47438  24.058  11.817  27.934  0.0117 -0.3293  0.1531
 4345W        W47439  23.108  13.575  26.873  0.1346  0.2494 -0.0635
 4346W        W47440  20.548  13.894  22.330 -0.1846 -0.3704 -0.0062
 4347W        W47441  21.717  12.985  26.070  0.3582  0.0818  0.1621
 4348W        W47442  21.218  15.861  24.065  0.0746 -0.2808 -0.1288
 4349W        W47443  21.633  11.353  26.668 -0.0529  0.0831 -0.0132
 4350W        W47444  24.168  13.669  25.345 -0.3143  0.1070  0.0090
 4351W        W47445  25.659  11.544  23.367 -0.1228  0.0956  0.0574
 4352W        W47446  23.198  12.803  26.859 -0.2783  0.0790  0.5825
 4353W        W47447  25.502  11.691  25.569  0.1651  0.0015  0.0976
 4354W        W47448  21.835  12.993  23.225 -0.1543 -0.1420 -0.0653
 4355W        W47449  25.162  16.092  26.134 -0.1420  0.0603 -0.1431
 4356W        W47450  25.166  11.895  23.972 -0.3881 -0.2171  0.0254
 4357W        W47451  22.249  13.261  23.526 -0.3396 -0.2057  0.0067
 4358W        W47452  21.829  12.600  27.402  0.2255 -0.2192  0.1182
 4359W        W47453  22.153  11.325  25.654  0.0751 -0.0019  0.1274
 4360W        W47454  21.944  11.708  27.282  0.0521 -0.0085 -0.3743
 4361W        W47455  21.256  12.265  25.866 -0.0731  0.1956  0.4655
 4362W        W47456  24.833  13.042  27.243 -0.0513  0.2696  0.2133
 4363W        W47457  22.817  12.167  22.994 -0.1050 -0.1462 -0.5708
 4364W        W47458  24.592  12.538  24.649 -0.3920 -0.0457  0.0171
 4365W        W47459  22.537  12.551  23.973 -0.0172  0.0373  0.0941
 4366W        W47460  20.615  13.138  24.665 -0.0511 -0.0386 -0.1902
 4367W        W47461  24.711  10.050  27.417  0.0732 -0.0304 -0.1280
 4368W        W47462  22.565  14.715  24.787  0.2092  0.0645  0.0552
 4369W        W47463  24.819  15.144  26.226 -0.0353  0.0348  0.1343
 4370W        W47464  23.698  15.426  25.932 -0.1170  0.0240  0.1657
 4371W        W47465  22.397  13.221  26.301 -0.1838  0.1767  0.0012
 4372W        W47466  23.454  11.629  26.149 -0.0351 -0.1397 -0.1552
 4373W        W47467  21.578  14.776  25.560 -0.2090  0.3574  0.0789
 4374W        W47468  22.134  12.192  26.056 -0.4631  0.0875  0.2301
 4375W        W47469  22.382  11.050  24.580 -0.1427  0.0982  0.1153
 4376W        W47470  26.469  13.522  26.284  0.1675 -0.5084  0.4314
 4377W        W47471  23.675  13.879  25.088  0.0657  0.0770  0.0249
 4378W        W47472  22.474  14.207  25.961  0.0366  0.1239 -0.3677
 4379W        W47473  24.623  11.089  26.189 -0.0036 -0.0789 -0.0210
 4380W        W47474  25.390  12.193  26.357  0.2349 -0.1577  0.0379
 4381W        W47475  23.817  11.505  26.546 -0.0930 -0.1753  0.0559
 4382W        W47476  23.154  11.439  25.634 -0.0993  0.1481 -0.2162
 4383W        W47477  23.298  13.649  23.661 -0.2450  0.1153  0.1529
 4384W        W47478  22.436  15.410  23.390 -0.0517  0.1269  0.1203
 4385W        W47479  22.554  12.921  23.287 -0.1511  0.2164  0.0371
 4386W        W47480  22.560  13.850  24.247 -0.1281 -0.1953 -0.0042
 4387W        W47481  24.306  11.432  25.060  0.0403  0.0688 -0.0107
 4388W        W47482  22.734  12.553  26.869  0.1328  0.2192 -0.3278
 4389W        W47483  24.245  14.422  28.823  0.0392 -0.3092 -0.1523
 4390W        W47484  24.140  12.209  23.879 -0.0803  0.1591 -0.3303
 4391W        W47485  24.271  13.696  25.854  0.0013 -0.0911  0.0346
 4392W        W47486  23.711  11.457  25.558 -0.0445  0.0314  0.0159
 4393W        W47487  23.415  10.353  23.286 -0.0749  0.1847  0.0570
 4394W        W47488  23.917  13.131  26.975 -0.1342  0.2025 -0.0940
 4395W        W47489  26.368  13.225  24.686  0.0855 -0.1775 -0.0784
 4396W        W47490  23.829  11.590  22.737  0.1542  0.0904  0.1015
 4397W        W47491  22.732  10.250  24.050  0.2372  0.0549  0.0990
 4398W        W47492  22.474  14.701  26.206 -0.1457 -0.2289  0.0655
 4399W        W47493  21.637  13.916  25.477  0.1229 -0.1147 -0.1354
 4400W        W47494  24.156  13.584  24.818  0.0531  0.0045 -0.0754
 4401W        W47495  23.805  12.498  24.715  0.0418 -0.2819  0.0703
 4402W        W47496  24.323  14.881  24.679 -0.0062  0.2377  0.3387
 4403W        W47497  21.752  13.405  23.509  0.1678 -0.0221  0.2683
 4404W        W47498  26.228  12.900  26.893  0.2277  0.4314 -0.0447
 4405W        W47499  23.687  13.600  24.153 -0.2588  0.0004 -0.2064
 4406W        W47500  23.283  11.723  26.823 -0.1191 -0.0546 -0.0242
 4407W        W47501  22.460  11.426  25.158 -0.2355  0.0977  0.3874
 4408W        W47502  23.072  10.802  25.722  0.0878 -0.1079 -0.2556
 4409W        W47503  21.324  15.352  23.790 -0.1312  0.1477  0.1454
 4410W        W47504  25.082  11.149  25.961  0.0626  0.2452 -0.2358
 4411W        W47505  24.740  11.714  26.802 -0.4403 -0.0341  0.0359
 4412W        W47506  22.705  11.700  26.958 -0.1176 -0.0459  0.3446
 4413W        W47507  25.229  13.402  27.131 -0.1602  0.2453  0.0814
 4414W        W47508  25.272  13.309  25.623  0.0741  0.3262  0.0488
 4415W        W47509  22.875  12.584  24.856  0.2775 -0.1207  0.1728
 4416W        W47510  23.032  12.380  23.708  0.0254 -0.0603  0.1765
 4417W        W47511  24.815  10.580  27.447  0.1182  0.0412  0.2704
 4418W        W47512  21.484  13.393  26.264  0.2170  0.0257 -0.0141
 4419W        W47513  20.809  14.539  25.880 -0.0370 -0.0488  0.0124
 4420W        W47514  24.556  14.042  26.708  0.1125 -0.1645  0.0675
 4421W        W47515  23.797  13.218  24.848  0.0657 -0.2180 -0.0830
 4422W        W47516  23.536  12.297  27.472 -0.0891  0.2097  0.0940
 4423W        W47517  22.748  11.275  24.343  0.0868  0.0088 -0.1894
 4424W        W47518  24.025  13.328  23.203  0.0091 -0.2416  0.2416
 4425W        W47519  24.007  14.237  25.289 -0.3503 -0.1551 -0.0247
 4426W        W47520  22.702  12.220  26.054  0.0064  0.3223  0.1670
 4427W        W47521  24.307  14.663  25.767 -0.2625  0.1661  0.2260
 4428W        W47522  23.147  12.103  22.557 -0.0724  0.0931  0.1106
 4429W        W47523  24.041  11.962  26.741  0.1337 -0.0664  0.0622
 4430W        W47524  22.468  13.301  25.276  0.0236 -0.1358 -0.2601
 4431W        W47525  24.464   9.834  26.988 -0.0444 -0.1766 -0.4407
 4432W        W47526  21.049  13.726  26.061 -0.3337 -0.0660  0.1627
 4433W        W47527  22.588  13.080  24.009  0.0767  0.1077 -0.2028
 4434W        W47528  21.548  11.958  22.049 -0.3620 -0.0399  0.0173
 4435W        W47529  23.951  11.859  25.452  0.0489  0.0767  0.0346
 4436W        W47530  25.057  12.934  23.204 -0.0616 -0.3229  0.0051
 4437W        W47531  22.619  13.436  25.831  0.3186 -0.1439 -0.2231
 4438W        W47532  23.905  11.040  25.138  0.1025 -0.1535 -0.0362
 4439W        W47533  22.122  14.587  26.605 -0.0934 -0.2095  0.0976
 4440W        W47534  24.957  13.151  26.726 -0.2215  0.2337 -0.0921
 4441W        W47535  24.115  11.927  24.974 -0.2686 -0.1454 -0.1716
 4442W        W47536  24.010  13.915  26.260 -0.3636  0.0863  0.4972
 4443W        W47537  22.361  14.389  27.933 -0.0910  0.0810 -0.1432
 4444W        W47538  22.766  12.585  22.291  0.0451 -0.1913 -0.1517
 4445W        W47539  25.047  12.653  26.934 -0.0010 -0.0189 -0.0222
 4446W        W47540  23.070  12.020  24.919 -0.0572  0.0689 -0.1651
 4447W        W47541  22.773  14.328  24.543  0.0724 -0.2179 -0.0122
 4448W        W47542  24.559  13.895  27.420  0.0978 -0.0575  0.2900
 4449W        W47543  23.394  12.392  24.047  0.3586 -0.4164  0.1079
 4450W        W47544  21.973  12.734  25.204 -0.1412 -0.2754  0.2061
 4451W        W47545  24.422  12.241  26.914 -0.0183  0.1643 -0.0933
 4452W        W47546  23.131  13.375  26.343  0.1785 -0.0701 -0.2369
 4453W        W47547  24.203  13.114  25.242 -0.0501 -0.1594 -0.0930
 4454W        W47548  22.508  12.132  25.614  0.1660  0.0414 -0.2674
 4455W        W47549  23.612  12.003  24.844  0.1911  0.0169 -0.1133
 4456W        W47550  23.320  12.834  25.319  0.1229  0.3514  0.5136
 4457W        W47551  24.324  14.162  25.694 -0.0712 -0.1321  0.1963
 4458W        W47552  21.756  14.520  26.301  0.1829  0.1210  0.0607
 4459W        W47553  23.869  10.765  26.441 -0.0470 -0.1292 -0.2238
 4460W        W47554  24.737  15.446  25.163 -0.0247 -0.0607  0.1605
 4461W        W47555  25.031  13.992  27.836 -0.0904 -0.0298  0.2255
 4462W        W47556  24.200  13.115  23.900 -0.0962 -0.0834  0.1869
 4463W        W47557  21.702  12.002  25.600 -0.1694  0.1424  0.0080
 4464W        W47558  22.055  12.902  24.473 -0.3394  0.1843 -0.0858
 4465W        W47559  24.965  11.742  27.774 -0.3403  0.0686 -0.1280
 4466W        W47560  22.177  11.871  24.761  0.1497  0.1249 -0.1099
 4467W        W47561  22.888  14.331  23.603 -0.4120  0.0228  0.1998
 4468W        W47562  23.041  14.440  25.004 -0.0959 -0.2788 -0.0429
 4469W        W47563  24.436  11.203  23.773 -0.2423  0.0388 -0.0120
 4470W        W47564  25.052  12.533  24.902  0.3834  0.0027 -0.4870
 4471W        W47565  23.521  11.919  25.706 -0.0737 -0.2265  0.2522
 4472W        W47566  24.883  12.335  26.590  0.2376 -0.1544 -0.0655
 4473W        W47567  23.628  12.816  24.384 -0.0993  0.0107  0.0186
 4474W        W47568  22.930  11.942  26.437  0.3789  0.0670 -0.1744
 4475W        W47569  23.199  12.151  25.974 -0.1436  0.1952 -0.3600
 4476W        W47570  25.968  13.076  26.136 -0.0797 -0.0623 -0.3363
 4477W        W47571  23.251  11.530  27.803 -0.1995 -0.0685  0.1979
 4478W        W47572  25.378  14.935  27.499 -0.0728  0.1926 -0.0665
 4479W        W47573  23.069  12.710  27.349 -0.0455 -0.0408 -0.1702
 4480W        W47574  23.964  11.198  23.557  0.0426 -0.0953  0.0577
 4481W        W47575  23.197  11.489  24.773  0.1301  0.1394 -0.0665
 4482W        W47576  24.011  13.414  26.472 -0.1859  0.2099 -0.1669
 4483W        W47577  24.464  14.124  25.053  0.1406  0.3513  0.3276
 4484W        W47578  23.490  13.258  23.347 -0.0383 -0.1163 -0.4227
 4485W        W47579  23.937  12.307  25.798 -0.1173  0.3443  0.1058
 4486W        W47580  22.025  13.616  26.369  0.0762  0.0793 -0.1729
 4487W        W47581  24.513  13.040  24.344 -0.1542  0.0020  0.2316
 4488W        W47582  24.178  12.602  24.319  0.0053  0.2943 -0.0650
 4489W        W47583  22.834  13.845  24.660 -0.0796 -0.0787 -0.0904
 4490W        W47584  23.505  10.971  27.773  0.2284 -0.2522  0.3732
 4491W        W47585  24.816  13.600  26.480 -0.2201  0.2234 -0.1286
 4492W        W47586  24.552  11.561  25.490  0.0489 -0.0719  0.1289
 4493W        W47587  24.600  12.492  27.364 -0.2216  0.0845  0.1331
 4494W        W47588  23.569  12.474  26.149  0.2706 -0.1017 -0.1211
 4495W        W47589  24.086  13.688  27.231  0.0925  0.0288  0.0954
 4496W        W47590  23.346  11.409  27.248 -0.0121  0.1868  0.0685
 4497W        W47591  24.572  13.963  26.224 -0.0913  0.0354  0.1519
 4498W        W47592  25.740  12.452  24.896  0.2488 -0.3795 -0.0227
 4499W        W47593  24.550  12.583  26.338  0.5211  0.2752 -0.0441
 4500W        W47594  25.019  12.949  25.409 -0.1976 -0.2316 -0.0043
 4501W        W47595  24.793  11.870  24.314 -0.1454 -0.1015 -0.0376
 4502W        W47596  22.572  11.581  26.259  0.2798 -0.1410 -0.2883
 4503W        W47597  24.979  11.836  29.342 -0.0645 -0.1519 -0.2128
 4504W        W47598  22.032  10.128  23.427  0.2739 -0.1892 -0.0128
 4505W        W47599  24.987  12.085  28.307 -0.1228  0.0035  0.1382
 4506W        W47600  24.241  13.644  24.107  0.0319  0.1393 -0.2964
 4507W        W47601  24.673  14.525  25.377  0.1849 -0.0190 -0.3066
 4508W        W47602  24.523  10.631  22.881  0.4720  0.1006  0.3323
 4509W        W47603  20.314  12.586  25.565 -0.1999 -0.0088 -0.1753
 4510W        W47604  22.872  14.215  25.458 -0.0944 -0.0483  0.0393
 4511W        W47605  22.950  11.757  23.289 -0.1586 -0.1080 -0.0946
 4512W        W47606  25.016  13.013  23.758  0.1444 -0.2086  0.0020
 4513W        W47607  24.326  14.473  26.645  0.0834  0.0935  0.2966
 4514W        W47608  26.044  13.911  27.244 -0.2480 -0.1134  0.6155
 4515W        W47609  23.752  10.636  23.628  0.0876  0.0222 -0.2461
 4516W        W47610  24.565  11.582  26.014 -0.1940 -0.0496  0.0715
 4517W        W47611  21.677  12.977  23.696  0.0408 -0.0165  0.1549
 4518W        W47612  23.962  11.408  27.361 -0.2689 -0.3392  0.0632
 4519W        W47613  22.434  15.040  25.124 -0.0711 -0.0411 -0.0702
 4520W        W47614  21.774  14.945  26.639 -0.1306 -0.0153  0.1072
 4521W        W47615  23.386  12.973  24.833 -0.0077 -0.0546 -0.1810
 4522W        W47616  24.928  11.052  27.567 -0.1451  0.0875  0.1810
 4523W        W47617  24.593  12.423  25.744  0.3510 -0.0631  0.2098
 4524W        W47618  21.843  13.534  25.849 -0.1728 -0.0504 -0.4473
 4525W        W47619  24.156  12.680  25.981  0.1087 -0.0079 -0.0218
 4526W        W47620  23.817  12.990  26.229  0.2832 -0.1651 -0.0488
 4527W        W47621  23.702  11.831  23.966  0.1178 -0.0792  0.0040
 4528W        W47622  24.168  14.241  27.129 -0.2796  0.1174  0.0343
 4529W        W47623  24.359  14.010  24.494 -0.0296  0.1761  0.2878
 4530W        W47624  23.081  13.871  25.113  0.0790 -0.0067 -0.0561
 4531W        W47625  20.912  14.391  27.277  0.2340  0.2928  0.1331
 4532W        W47626  23.657  13.540  27.018 -0.2626  0.1954 -0.0930
 4533W        W47627  24.816  13.017  24.871 -0.0532  0.1537  0.1844
 4534W        W47628  23.887  11.340  24.054  0.3241  0.0018 -0.0975
 4535W        W47629  23.684  13.138  23.974  0.2565  0.1885 -0.1072
 4536W        W47630  23.968  12.376  27.128 -0.1844 -0.1127 -0.1205
 4537W        W47631  22.561  13.778  25.332 -0.1863 -0.2874  0.2679
 4538W        W47632  23.674  14.525  24.394  0.0386  0.2897 -0.2496
 4539W        W47633  24.561  13.500  24.538  0.0135 -0.1819 -0.2857
 4540W        W47634  24.771  14.146  23.524  0.2654 -0.1904 -0.1391
 4541W        W47635  22.912  13.984  25.910  0.3927  0.2052 -0.0165
 4542W        W47636  23.482  11.642  23.518  0.0260 -0.2138  0.1797
 4543W        W47637  21.634  13.436  24.972 -0.1721  0.1524  0.1595
 4544W        W47638  21.409  13.032  24.207 -0.2876  0.1669  0.0022
 4545W        W47639  24.981  14.796  24.461 -0.1698 -0.0817 -0.0838
 4546W        W47640  22.978  13.574  25.542  0.1077  0.0070  0.1084
 4547W        W47641  25.775  13.597  27.532  0.1933  0.0542  0.1469
 4548W        W47642  24.484  11.345  24.372 -0.0494 -0.1257  0.4711
 4549W        W47643  25.803  12.067  27.338 -0.2675 -0.1990  0.1485
 4550W        W47644  25.540  10.506  23.212  0.1313 -0.2546  0.1444
 4551W        W47645  24.960  14.823  28.348 -0.1547  0.0324 -0.2449
 4552W        W47646  23.421  11.777  25.261  0.1046  0.3025  0.1210
 4553W        W47647  24.553  12.648  23.980 -0.2671 -0.3644 -0.1377
 4554W        W47648  22.708  13.958  27.903 -0.0777 -0.1500 -0.1234
 4555W        W47649  26.387  10.689  27.384  0.1710 -0.2704  0.0622
 4556W        W47650  21.996  14.502  25.866  0.1764 -0.0493 -0.0516
 4557W        W47651  24.409  14.856  26.251  0.0240 -0.0325 -0.3740
 4558W        W47652  22.052  10.590  25.179  0.2377  0.0677  0.0993
 4559W        W47653  21.941  12.258  25.126  0.0857  0.0685 -0.0494
 4560W        W47654  25.501  11.289  26.368 -0.2905  0.0758  0.2398
 4561W        W47655  23.358  11.563  22.475  0.0849 -0.2636 -0.0722
 4562W        W47656  25.057  12.291  24.309 -0.4115  0.0244  0.2668
 4563W        W47657  22.124  13.921  25.814 -0.1706  0.0253 -0.4723
 4564W        W47658  21.801  15.275  26.321  0.1432  0.3047  0.0661
 4565W        W47659  22.084  15.717  25.382  0.0959  0.0277 -0.0911
 4566W        W47660  23.112  10.660  22.488  0.1442 -0.0563  0.2615
 4567W        W47661  23.833  12.297  25.282  0.0862 -0.2218  0.1611
 4568W        W47662  24.170  12.852  26.562  0.3551  0.0945  0.2473
 4569W        W47663  25.211  11.130  27.969 -0.1630 -0.2809 -0.1303
 4570W        W47664  24.068  11.714  23.575  0.1658  0.0271  0.1214
 4571W        W47665  25.389  11.394  23.810 -0.0643 -0.0440 -0.0112
 4572W        W47666  23.918  12.438  26.597 -0.0102 -0.0723 -0.0886
 4573W        W47667  22.746  11.489  27.993  0.1191 -0.2249 -0.0121
 4574W        W47668  23.295  14.247  22.073 -0.0411  0.0323 -0.1122
 4575W        W47669  24.418  13.242  26.884 -0.0792 -0.0663 -0.0013
 4576W        W47670  24.990  12.797  24.361 -0.1281 -0.1512 -0.2243
 4577W        W47671  25.053  13.887  27.297 -0.1245  0.0723  0.0871
 4578W        W47672  22.707  10.631  26.112 -0.0919  0.3173 -0.2657
 4579W        W47673  23.715  12.028  23.200  0.0295 -0.0526 -0.1850
 4580W        W47674  23.303  12.370  24.490 -0.0691  0.0804 -0.2639
 4581W        W47675  22.386  12.884  26.711 -0.0020 -0.0513 -0.2237
 4582W        W47676  24.139  14.215  27.669 -0.0007 -0.0762 -0.0680
 4583W        W47677  22.679  10.989  26.484 -0.2507  0.0448 -0.0200
 4584W        W47678  24.944  13.281  24.202  0.1022 -0.4666  0.1677
 4585W        W47679  23.805  12.818  25.198 -0.0080  0.0392  0.1328
 4586W        W47680  23.611  14.962  23.491 -0.0426 -0.1608 -0.0337
 4587W        W47681  25.040  14.353  24.591  0.2610 -0.0675 -0.4033
 4588W        W47682  23.316  15.150  24.286 -0.2710 -0.1124 -0.1392
 4589W        W47683  21.403  12.971  26.644  0.0253 -0.1552 -0.3770
 4590W        W47684  23.610  14.913  27.460 -0.0544 -0.1292  0.0856
 4591W        W47685  25.134  13.444  25.174  0.2268 -0.1352 -0.0704
 4592W        W47686  22.563  10.539  25.385  0.5534  0.1587 -0.3494
 4593W        W47687  24.303  13.184  25.888  0.6045  0.0573 -0.1223
 4594W        W47688  23.276  14.789  22.906  0.2474 -0.0207 -0.3390
 4595W        W47689  25.430  12.179  25.852 -0.3400  0.3728 -0.0069
 4596W        W47690  25.128  11.742  27.264 -0.2080 -0.1176 -0.0324
 4597W        W47691  23.564  15.162  22.602 -0.0603  0.2128  0.1253
 4598W        W47692  25.479   9.447  28.120  0.1351 -0.2814  0.0907
 4599W        W47693  24.217  14.647  25.112 -0.2712  0.1851 -0.0394
 4600W        W47694  23.142  15.034  28.471  0.0699 -0.2392 -0.4420
 4601W        W47695  22.443  14.139  23.722  0.2002  0.0071  0.3342
 4602W        W47696  22.565  14.229  26.485 -0.0873  0.0643  0.0620
 4603W        W47697  23.324  13.493  24.858 -0.5029 -0.0819  0.1457
 4604W        W47698  22.996  15.111  24.643  0.2881 -0.1013 -0.2353
 4605W        W47699  23.951  14.680  27.962 -0.2939  0.2642  0.3479
 4606W        W47700  24.096  10.954  23.018 -0.1938 -0.1471  0.3074
 4607W        W47701  25.273  14.274  25.964  0.1923  0.0096  0.2498
 4608W        W47702  24.538  12.249  24.285  0.1772  0.0714 -0.3183
 4609W        W47703  24.876  11.474  23.870  0.0170  0.0247 -0.0498
 4610W        W47704  24.734  11.172  25.208  0.1947 -0.0375  0.0364
 4611W        W47705  21.957  13.495  26.834  0.1104 -0.0632  0.3456
 4612W        W47706  23.039  10.683  21.956  0.1679  0.1829 -0.2339
 4613W        W47707  23.904  12.482  23.239 -0.1803 -0.2713  0.1573
 4614W        W47708  22.500  12.650  26.297  0.1328 -0.1881 -0.2431
 4615W        W47709  24.618  11.741  27.288 -0.0288  0.0748  0.0631
 4616W        W47710  21.771  13.465  27.439 -0.0408  0.1601  0.0058
 4617W        W47711  22.157  13.695  24.944  0.1158 -0.0171 -0.0640
 4618W        W47712  22.175  12.767  23.697 -0.0788  0.0091 -0.1324
 4619W        W47713  25.151  14.170  23.168 -0.0019 -0.0430  0.1494
 4620W        W47714  22.968  11.728  25.972 -0.0040  0.1916 -0.0379
 4621W        W47715  21.265  11.827  25.311 -0.5410 -0.4361  0.0566
 4622W        W47716  23.354  13.265  24.383  0.0519 -0.3116 -0.3510
 4623W        W47717  23.785  15.778  24.984  0.1023  0.4828  0.0116
 4624W        W47718  22.684  12.204  24.580 -0.0250  0.1422 -0.0757
 4625W        W47719  26.357  14.833  27.449  0.0770  0.1981 -0.0387
 4626W        W47720  21.839  12.707  24.074 -0.2184 -0.0548  0.1034
 4627W        W47721  24.135  11.016  28.964 -0.0906 -0.0949 -0.0173
 4628W        W47722  22.413  12.025  26.437 -0.5038  0.2077 -0.0046
 4629W        W47723  22.260  12.587  22.542 -0.1211 -0.2083 -0.1153
 4630W        W47724  25.112  12.679  26.289 -0.2328 -0.0361 -0.1318
 4631W        W47725  23.550  14.338  24.948 -0.1671 -0.1353  0.0736
 4632W        W47726  23.989  14.268  24.772  0.0276 -0.0758  0.0539
 4633W        W47727  23.479  13.370  25.332 -0.0307  0.0760  0.2782
 4634W        W47728  22.432  15.339  27.858 -0.0964  0.0610 -0.4575
 4635W        W47729  21.290  11.143  27.006 -0.2543  0.2801 -0.1787
 4636W        W47730  24.483  14.554  23.739  0.2937  0.1601 -0.2576
 4637W        W47731  22.329  14.248  25.468 -0.0485 -0.0884  0.1592
 4638W        W47732  25.163  12.632  25.772 -0.1713  0.2295  0.1487
 4639W        W47733  24.526  12.095  25.306 -0.0185  0.2267 -0.1784
 4640W        W47734  23.879  13.501  23.719  0.1001  0.4257  0.2736
 4641W        W47735  22.464  12.039  27.270  0.0151  0.0652  0.0541
 4642W        W47736  23.318  13.166  25.877  0.0832 -0.0124 -0.0559
 4643W        W47737  23.860  14.392  26.622  0.0394 -0.0109 -0.0175
 4644W        W47738  22.885  13.017  26.088  0.1500 -0.2596  0.2312
 4645W        W47739  25.430  12.615  24.496  0.2318  0.0918 -0.0072
 4646W        W47740  23.613  14.674  25.333 -0.1040 -0.1805 -0.3695
 4647W        W47741  21.961  11.122  26.326 -0.3811 -0.2837 -0.0382
 4648W        W47742  24.644  11.973  23.723  0.2282 -0.1883 -0.0900
 4649W        W47743  23.721  14.291  27.391  0.2150 -0.1708 -0.1539
 4650W        W47744  24.203  12.624  25.478  0.0734  0.1477  0.0575
 4651W        W47745  24.547  12.730  26.878  0.0223 -0.0973  0.3258
 4652W        W47746  22.930  13.102  24.998 -0.1305  0.2399  0.5826
 4653W        W47747  25.461  12.617  25.307 -0.1000  0.3073  0.0944
 4654W        W47748  23.546  13.992  26.344 -0.0102  0.1344 -0.3696
 4655W        W47749  25.620  14.345  28.129  0.1021  0.0191 -0.1592
 4656W        W47750  22.846  15.380  25.134 -0.0409  0.0975 -0.2469
 4657W        W47751  25.592  12.629  26.136 -0.1035  0.1354  0.1107
 4658W        W47752  21.711  11.496  27.641 -0.1764 -0.2161  0.2280
 4659W        W47753  21.718  11.821  25.132  0.2226  0.1293  0.1419
 4660W        W47754  22.648  14.153  25.002 -0.2726 -0.1305  0.0089
 4661W        W47755  24.856  12.094  27.084 -0.0220  0.0267  0.0721
 4662W        W47756  23.357  14.241  25.917  0.1139 -0.0963  0.0543
 4663W        W47757  25.583  11.907  23.701  0.1830 -0.0748 -0.0175
 4664W        W47758  23.646  15.739  25.522  0.0030 -0.2176  0.1044
 4665W        W47759  23.418  12.359  25.525 -0.2823  0.1419 -0.0384
 4666W        W47760  22.293  13.437  31.466 -0.1474  0.1556 -0.3267
 4667W        W47761  24.181  12.207  29.902  0.0512  0.2302  0.1411
 4668W        W47762  24.989  10.687  27.941  0.3434  0.1511 -0.0363
 4669W        W47763  24.916  13.112  27.789  0.0525  0.2287 -0.0756
 4670W        W47764  23.008  10.634  29.712  0.3858  0.0812  0.1923
 4671W        W47765  24.153  14.953  28.861  0.1620  0.0108 -0.1367
 4672W        W47766  22.319  11.173  31.578  0.2840  0.1492 -0.1364
 4673W        W47767  23.638  12.863  29.785 -0.2293  0.0281 -0.0502
 4674W        W47768  24.628  13.313  30.018 -0.1890  0.1562 -0.0705
 4675W        W47769  24.814  13.529  25.990  0.1234 -0.0510  0.1355
 4676W        W47770  23.645  12.746  31.570  0.4469  0.3275  0.0442
 4677W        W47771  23.676  14.841  29.576 -0.0542 -0.1057  0.1545
 4678W        W47772  24.318  10.502  28.614 -0.2709  0.1384 -0.0624
 4679W        W47773  21.561  10.255  30.964  0.0611  0.0784 -0.3231
 4680W        W47774  23.589  12.696  29.253  0.0988 -0.1749  0.0647
 4681W        W47775  24.360  11.077  29.428 -0.0677  0.1189 -0.0988
 4682W        W47776  21.902  11.482  31.708 -0.0118  0.0673 -0.0542
 4683W        W47777  22.909  11.705  27.419  0.1446 -0.0867 -0.2422
 4684W        W47778  23.849  13.683  28.333 -0.2014  0.3004  0.2022
 4685W        W47779  23.094  11.438  30.576  0.0016 -0.2799  0.1457
 4686W        W47780  23.290   9.962  29.397  0.0790 -0.1256  0.0683
 4687W        W47781  22.983  14.163  28.710  0.3406  0.1821 -0.2389
 4688W        W47782  21.292  13.829  27.402 -0.0292 -0.4585  0.0054
 4689W        W47783  23.873  11.896  28.455  0.1568  0.1061 -0.2114
 4690W        W47784  23.223  11.820  29.709  0.0444 -0.0491  0.0979
 4691W        W47785  24.206  12.232  28.947  0.1208 -0.0938 -0.1405
 4692W        W47786  24.190  12.862  29.403 -0.0228  0.0274 -0.2115
 4693W        W47787  21.570  15.041  29.357 -0.2316  0.2407  0.1301
 4694W        W47788  23.500  15.505  28.890  0.2689 -0.0487  0.1755
 4695W        W47789  22.612  14.005  31.746  0.0007 -0.0880  0.0972
 4696W        W47790  22.474  13.543  28.016  0.0753  0.1163  0.0346
 4697W        W47791  21.166  14.204  28.586  0.1232  0.0098 -0.1054
 4698W        W47792  23.609  15.000  28.740  0.1911  0.0083 -0.3227
 4699W        W47793  24.999  13.928  29.315 -0.2704 -0.6008 -0.2176
 4700W        W47794  24.334  14.789  30.205  0.3351 -0.1910 -0.0960
 4701W        W47795  22.026  14.928  29.746 -0.1510 -0.1608  0.0347
 4702W        W47796  23.179  14.289  26.722 -0.1968 -0.0260  0.2699
 4703W        W47797  23.443  14.596  31.874 -0.1367  0.2932 -0.1572
 4704W        W47798  22.318  13.963  30.683 -0.0525 -0.2021 -0.1052
 4705W        W47799  24.490  11.232  30.028 -0.0831 -0.2162 -0.1716
 4706W        W47800  23.303  13.083  29.050  0.0831  0.1414  0.0213
 4707W        W47801  22.584  14.228  29.322 -0.3041 -0.1462  0.1162
 4708W        W47802  24.063  13.428  29.514 -0.3802  0.1429  0.0423
 4709W        W47803  21.097  12.517   0.164  0.0964 -0.0378 -0.2507
 4710W        W47804  23.030  13.337  29.867 -0.4052  0.0691  0.3628
 4711W        W47805  25.093  11.634  31.623 -0.1455 -0.0169  0.5558
 4712W        W47806  23.571  14.858  28.217 -0.1624  0.1307 -0.1967
 4713W        W47807  23.163  12.546  29.117 -0.0367 -0.1560 -0.0641
 4714W        W47808  25.885  12.878  27.382 -0.2483 -0.2045 -0.0430
 4715W        W47809  25.041  10.344  29.126 -0.0954 -0.1231 -0.2391
 4716W        W47810  22.849  10.285  30.101 -0.0411 -0.0989  0.3585
 4717W        W47811  22.669  14.508  30.278  0.1029  0.0717  0.0973
 4718W        W47812  23.646  12.077  29.806  0.1702 -0.2235 -0.0352
 4719W        W47813  25.908  13.842  30.312  0.1653  0.1162  0.0785
 4720W        W47814  23.816  15.207  29.135 -0.0616  0.0357  0.0047
 4721W        W47815  22.829  12.607  30.482  0.2005  0.4109 -0.3356
 4722W        W47816  23.223  13.328  28.399  0.0928  0.2745 -0.3449
 4723W        W47817  24.187  13.600  27.827  0.1449  0.2129 -0.0577
 4724W        W47818  25.444  12.861  27.149 -0.0917 -0.0472  0.2663
 4725W        W47819  24.916  15.525  29.129  0.0718  0.1109  0.2659
 4726W        W47820  24.797  13.549  26.970 -0.0333  0.0698 -0.2396
 4727W        W47821  23.859  12.462  28.533 -0.3390  0.1375 -0.0512
 4728W        W47822  20.931  13.198  30.806  0.1036 -0.1724 -0.2776
 4729W        W47823  22.653  12.150  30.848 -0.0691 -0.2178  0.1572
 4730W        W47824  23.294  11.670  29.106  0.1645  0.3828 -0.0740
 4731W        W47825  25.013  13.500  30.354  0.0399  0.1726  0.2163
 4732W        W47826  21.844  13.961  30.709 -0.2379  0.3307  0.3479
 4733W        W47827  23.915  11.975  30.250 -0.0989 -0.2235  0.0607
 4734W        W47828  22.555  13.219  29.716 -0.3771 -0.1585 -0.1203
 4735W        W47829  24.143  14.912  29.400  0.0525 -0.1526 -0.1127
 4736W        W47830  23.715  14.282  29.458  0.2333 -0.0677 -0.2652
 4737W        W47831  24.729  10.779  29.119 -0.2465  0.4096 -0.0607
 4738W        W47832  24.837  11.348  29.276  0.0332  0.1259 -0.3563
 4739W        W47833  23.851  12.810  27.645 -0.0926  0.0904 -0.1823
 4740W        W47834  23.599  14.017  26.845  0.0213 -0.3126  0.0604
 4741W        W47835  27.108  13.197  30.831 -0.1662 -0.2463  0.1580
 4742W        W47836  23.542  12.062  26.417 -0.0519 -0.1887 -0.1796
 4743W        W47837  22.296  14.550  29.894 -0.1813  0.2343  0.1838
 4744W        W47838  23.843  13.101  31.935  0.0009 -0.3658 -0.0007
 4745W        W47839  22.514  15.248   0.107 -0.0205 -0.1993  0.0779
 4746W        W47840  22.743  13.250  28.368  0.2768  0.3305  0.1838
 4747W        W47841  23.131  12.817  28.221 -0.0362 -0.0147 -0.0963
 4748W        W47842  23.780  14.101  28.678  0.2843 -0.0836  0.0965
 4749W        W47843  23.237  11.743  31.437  0.0935  0.0710 -0.0937
 4750W        W47844  22.784  14.306  29.768 -0.4686 -0.0244  0.0773
 4751W        W47845  25.123  10.387  28.419  0.0839 -0.0213  0.0275
 4752W        W47846  22.578  12.232  30.199  0.0136  0.1099  0.1269
 4753W        W47847  25.184  12.150  28.941  0.0567 -0.2054  0.2724
 4754W        W47848  23.467  12.752  28.740 -0.0209 -0.0568 -0.0272
 4755W        W47849  25.952  14.709  28.936 -0.1575  0.1925  0.5504
 4756W        W47850  25.641  11.434  28.084 -0.4444 -0.0554 -0.0630
 4757W        W47851  24.942  13.815  28.296  0.0792  0.1830  0.1417
 4758W        W47852  22.695  12.602  29.373 -0.1390  0.0163 -0.3149
 4759W        W47853  22.184  11.857  27.980  0.0693 -0.0981 -0.1199
 4760W        W47854  22.626  13.200  31.029 -0.1588  0.1524  0.3326
 4761W        W47855  22.634  10.584  28.435  0.0359  0.3640  0.0706
 4762W        W47856  24.356  11.786  30.123  0.1365  0.0611 -0.1541
 4763W        W47857  22.868  11.196  27.475 -0.2475 -0.0091 -0.1965
 4764W        W47858  22.385  10.313  29.358  0.0539 -0.2613  0.1539
 4765W        W47859  23.536  12.068  29.279  0.1170 -0.0803 -0.0541
 4766W        W47860  21.825  12.603  26.872 -0.1996 -0.3610  0.0369
 4767W        W47861  25.697  10.338  31.467 -0.0496  0.1642 -0.1749
 4768W        W47862  24.397  13.741  29.289 -0.0053 -0.0728  0.0941
 4769W        W47863  25.446  14.521  30.164  0.1541 -0.0569  0.0530
 4770W        W47864  22.693  15.678  29.613  0.0095  0.2588 -0.1449
 4771W        W47865  21.834  12.350  31.006  0.1715 -0.3460  0.2785
 4772W        W47866  21.879  12.020  29.307  0.1317  0.2746  0.0876
 4773W        W47867  23.329  13.859  28.524  0.0858  0.0123  0.3702
 4774W        W47868  23.880  13.904  29.171 -0.1528  0.2104 -0.3588
 4775W        W47869  24.506  11.424  28.862  0.2335  0.1496  0.0969
 4776W        W47870  25.336  13.555  28.588  0.1014 -0.2474  0.1474
 4777W        W47871  24.329  12.841  27.736 -0.1211 -0.0657 -0.0028
 4778W        W47872  22.683  12.257  29.726  0.1292 -0.1132  0.1713
 4779W        W47873  24.086  11.533  29.761 -0.1489  0.3343  0.2530
 4780W        W47874  26.147  11.593  30.820  0.0482 -0.2368 -0.0063
 4781W        W47875  23.767  13.154  28.482 -0.2786 -0.1559 -0.0557
 4782W        W47876  22.408  11.203  28.846 -0.0216  0.0049 -0.1347
 4783W        W47877  24.717  14.604  27.950  0.0344  0.3078  0.2415
 4784W        W47878  22.617  14.885  28.021 -0.2314 -0.1826  0.1041
 4785W        W47879  22.879  12.954  27.757  0.3128 -0.0945 -0.0026
 4786W        W47880  24.238  14.418  29.366 -0.2321  0.1248  0.0554
 4787W        W47881  25.704  11.055  29.669  0.0207 -0.0362  0.0033
 4788W        W47882  21.207  13.133  29.014 -0.0333 -0.3011 -0.1189
 4789W        W47883  24.662  11.929  31.370  0.0169 -0.0821 -0.0901
 4790W        W47884  22.588  12.721  28.395  0.1880  0.1477  0.0262
 4791W        W47885  22.913  14.036  30.657  0.1421 -0.0148 -0.0185
 4792W        W47886  25.312  10.105  29.957  0.1065  0.1042  0.1504
 4793W        W47887  26.243  11.002  27.974 -0.1639 -0.0863  0.1818
 4794W        W47888  22.599  14.429  30.846  0.0538 -0.0373  0.3591
 4795W        W47889  24.489  13.379  27.484 -0.0648  0.2775 -0.1842
 4796W        W47890  24.261  12.243  28.221 -0.0970  0.0740 -0.0886
 4797W        W47891  25.900  11.134  28.414  0.0710  0.0279 -0.1742
 4798W        W47892  21.928  12.817   0.162  0.0564  0.3519  0.1473
 4799W        W47893  24.887  14.495  30.128 -0.3298  0.2233 -0.0052
 4800W        W47894  23.036  12.986  29.472  0.0504  0.0850  0.4802
 4801W        W47895  24.710  12.470  28.490 -0.0109  0.0497  0.0265
 4802W        W47896  26.043  14.528  28.415 -0.1998 -0.1357  0.1427
 4803W        W47897  22.045  13.886  29.199  0.0237 -0.0807  0.0396
 4804W        W47898  24.719  12.577  30.585  0.0598 -0.2445  0.0731
 4805W        W47899  24.700  13.641  27.908 -0.3782  0.1150  0.1097
 4806W        W47900  23.448  12.076  30.322 -0.1975 -0.2048  0.1062
 4807W        W47901  23.073  13.168  27.139  0.4001 -0.1338 -0.0524
 4808W        W47902  24.011  11.463  30.253 -0.2108  0.0466  0.0549
 4809W        W47903  21.977  14.698  27.984 -0.2624 -0.2711 -0.0140
 4810W        W47904  26.013  11.441  29.498 -0.1718  0.2658  0.0401
 4811W        W47905  23.282  11.012  31.239  0.2329 -0.4059  0.1402
 4812W        W47906  23.310  12.286  30.744 -0.1549  0.0357 -0.0343
 4813W        W47907  25.628  13.064  31.259  0.0257 -0.2253  0.0345
 4814W        W47908  23.923  11.766  28.954 -0.1371  0.0382 -0.0377
 4815W        W47909  23.827  12.885  30.362 -0.4970 -0.0001 -0.1996
 4816W        W47910  23.584  12.812  27.238 -0.0974  0.1312 -0.4494
 4817W        W47911  24.004  11.576  30.789 -0.1968  0.1572  0.0560
 4818W        W47912  23.481  13.189  30.213  0.0033  0.0275 -0.1176
 4819W        W47913  22.784  15.126  29.629 -0.0439 -0.0958 -0.2309
 4820W        W47914  23.820  13.672  30.020 -0.0212  0.3468  0.2513
 4821W        W47915  23.537  13.460  28.838  0.1248 -0.2050 -0.1828
 4822W        W47916  23.959  11.088  31.063  0.3844 -0.0972 -0.2168
 4823W        W47917  23.564  10.492  28.267  0.3278 -0.1365  0.2945
 4824W        W47918  22.311  16.069  28.889 -0.0531 -0.1127 -0.0941
 4825W        W47919  23.342  13.676  25.909 -0.3002  0.0286 -0.2558
 4826W        W47920  23.052  10.886  30.610  0.2420 -0.1180  0.3116
 4827W        W47921  22.748  13.547  31.702  0.0733  0.1665 -0.0434
 4828W        W47922  22.864  14.286  28.257  0.0388  0.0206 -0.1352
 4829W        W47923  24.611  12.303  30.179  0.2299  0.0277  0.1928
 4830W        W47924  23.392  13.973  28.985 -0.2002  0.1747  0.1094
 4831W        W47925  26.813  10.559  29.399  0.2210 -0.0798 -0.1182
 4832W        W47926  22.961  13.973  29.175  0.1517 -0.0119 -0.1764
 4833W        W47927  23.217  12.070  27.793 -0.0510 -0.4353 -0.1294
 4834W        W47928  21.971  12.761  28.124  0.1371 -0.1705  0.0068
 4835W        W47929  23.837  11.045  29.950 -0.0508 -0.0198  0.4836
 4836W        W47930  24.941  12.761  28.763  0.2044 -0.1401  0.1943
 4837W        W47931  23.598  11.712  30.585  0.0034  0.0367 -0.2144
 4838W        W47932  23.818  10.314  30.603 -0.2155  0.0754  0.0981
 4839W        W47933  22.187  14.360  29.051 -0.1186  0.0344  0.0294
 4840W        W47934  24.544  11.515  30.498  0.0442  0.0785  0.0711
 4841W        W47935  24.123  12.756  28.204 -0.0098  0.4048  0.3465
 4842W        W47936  23.831  12.526  30.071 -0.0318 -0.0090 -0.0012
 4843W        W47937  22.480  12.574  31.257 -0.0392  0.2064  0.2877
 4844W        W47938  21.405  12.360  27.158 -0.2547 -0.2224 -0.1480
 4845W        W47939  25.305  13.054  30.510 -0.0128  0.1629  0.0435
 4846W        W47940  22.485   9.905  29.098  0.1712 -0.2358  0.1049
 4847W        W47941  21.732  14.818  28.417 -0.1087  0.0918 -0.0007
 4848W        W47942  24.028  14.099  29.846  0.1011 -0.2688 -0.2137
 4849W        W47943  21.742  14.025  27.436  0.0233  0.0190  0.2387
 4850W        W47944  23.042  13.679  27.508 -0.0882 -0.3007 -0.3524
 4851W        W47945  22.247  12.613  30.263 -0.1388  0.6461 -0.1957
 4852W        W47946  25.976  12.141  31.136  0.3173  0.1878 -0.2597
 4853W        W47947  24.734  10.536  31.221 -0.2808  0.3823 -0.2687
 4854W        W47948  22.687  11.542  29.107  0.1642 -0.2857  0.0122
 4855W        W47949  23.526  11.333  30.912  0.2619  0.0840  0.0372
 4856W        W47950  24.903  11.874  30.149  0.1103 -0.1318  0.0389
 4857W        W47951  23.347  12.685   0.070 -0.0722  0.2729 -0.0057
 4858W        W47952  22.581  13.991  30.273 -0.2782 -0.0553  0.2942
 4859W        W47953  23.329  10.284  30.709  0.1442 -0.4447  0.0677
 4860W        W47954  26.309  15.783  28.879 -0.2657  0.2202 -0.0980
 4861W        W47955  25.436  12.179  31.051  0.0714  0.2041  0.2258
 4862W        W47956  23.493  11.026  30.418 -0.2825  0.2573  0.1729
 4863W        W47957  24.134  10.432  29.163  0.2279 -0.2225  0.1983
 4864W        W47958  23.695  14.038  27.918  0.0752 -0.2538 -0.0054
 4865W        W47959  24.725  10.115  30.820  0.3761 -0.1670  0.0391
 4866W        W47960  22.676  13.169  29.128 -0.0386 -0.0438 -0.0569
 4867W        W47961  23.217  13.945  28.025 -0.1942 -0.2373 -0.0479
 4868W        W47962  21.882  13.668  28.328  0.1572 -0.0954  0.0283
 4869W        W47963  24.906   9.456  28.744 -0.2537 -0.2542 -0.2181
 4870W        W47964  26.006  13.222  27.772  0.5400 -0.0117  0.1156
 4871W        W47965  24.269  11.083  30.670  0.1970  0.0472  0.0908
 4872W        W47966  25.048  10.907  31.087  0.1516 -0.0359 -0.0709
 4873W        W47967  25.602  12.524  27.573  0.1515 -0.1658 -0.1435
 4874W        W47968  23.576  12.561  31.039 -0.1857  0.0134 -0.0633
 4875W        W47969  22.592  11.641  30.930  0.2258 -0.2313 -0.0430
 4876W        W47970  25.634  13.810  28.197  0.1103  0.1502  0.0079
 4877W        W47971  22.137  13.168  30.859  0.2220 -0.0877 -0.0238
 4878W        W47972  22.873  14.831   1.301 -0.0664  0.3000  0.0623
 4879W        W47973  22.168  13.257  29.982 -0.0529  0.2967  0.1544
 4880W        W47974  24.704  10.244  28.779 -0.1847 -0.0660  0.2115
 4881W        W47975  23.058  11.113  27.951 -0.1669 -0.2741  0.0818
 4882W        W47976  23.411  11.267  29.750  0.0233 -0.0209 -0.4779
 4883W        W47977  25.079  14.332  28.325  0.0181 -0.1849 -0.0434
 4884W        W47978  23.524  12.073  28.754 -0.0393 -0.0804 -0.3092
 4885W        W47979  26.242  12.748  30.821 -0.1451  0.2058  0.1547
 4886W        W47980  22.461  12.760  30.793  0.3189  0.4531 -0.0703
 4887W        W47981  25.045  10.474  29.612 -0.3132  0.1621 -0.1293
 4888W        W47982  23.202  14.008  27.177 -0.2052 -0.3379 -0.0776
 4889W        W47983  22.359  13.038  28.764  0.2752 -0.2083  0.1631
 4890W        W47984  22.438  11.808  30.468 -0.2726  0.1278 -0.2207
 4891W        W47985  23.351  12.560  30.287  0.1179 -0.0217  0.1809
 4892W        W47986  23.353  11.129  28.366 -0.2364  0.0063 -0.2350
 4893W        W47987  25.482  11.836  29.389 -0.3060  0.0189  0.3355
 4894W        W47988  25.274  12.674  29.749  0.0326  0.0423 -0.2543
 4895W        W47989  23.457  13.346  31.706 -0.2438 -0.2098 -0.3207
 4896W        W47990  21.360  12.465  30.843  0.2403  0.2990  0.1099
 4897W        W47991  25.126  14.568  30.607 -0.0146  0.0056 -0.0514
 4898W        W47992  23.704  11.767  27.111  0.0256 -0.2126  0.3734
 4899W        W47993  26.611  10.633  31.258  0.1297  0.1938  0.1397
 4900W        W47994  24.515  12.683  29.048  0.3302 -0.1421  0.0579
 4901W        W47995  23.582  13.835  27.483 -0.1598  0.0158 -0.1475
 4902W        W47996  23.100  11.020  30.104 -0.0556  0.2131  0.1495
 4903W        W47997  25.471  13.427  30.997  0.1622  0.0589  0.0005
 4904W        W47998  21.431  12.687  28.158  0.0354  0.1395  0.0305
 4905W        W47999  23.882  13.411  30.446  0.1099 -0.0810 -0.0682
 4906W        W48000  23.780  15.814  29.240 -0.1324 -0.2449  0.1445
 4907W        W48001  25.188  13.361  28.106 -0.0609  0.3031  0.0037
 4908W        W48002  24.051  11.416  28.557  0.2751  0.2470 -0.2503
 4909W        W48003  22.771  11.600  29.632  0.2237  0.1773  0.2028
 4910W        W48004  20.958  14.939  30.261  0.3776  0.1277  0.0072
 4911W        W48005  22.187  11.954  28.480  0.0616 -0.0390  0.2294
 4912W        W48006  23.467  13.337  27.434 -0.1265 -0.2254 -0.0518
 4913W        W48007  25.139  13.440  29.368 -0.1978 -0.2289  0.0865
 4914W        W48008  24.099  13.023  30.825 -0.3538  0.1719  0.1462
 4915W        W48009  24.506  11.598  28.182 -0.3075 -0.1802 -0.2959
 4916W        W48010  24.007  11.627  31.270 -0.1139  0.0876  0.0084
 4917W        W48011  22.546  14.934  27.177  0.1715  0.1909  0.1113
 4918W        W48012  24.675   9.454  29.802 -0.4102 -0.1522 -0.1541
 4919W        W48013  23.938  14.892  30.524 -0.0682 -0.0833  0.0774
 4920W        W48014  21.659  13.378  30.022 -0.2721 -0.1062  0.3023
 4921W        W48015  22.939  14.670  29.510  0.1490  0.1148  0.0772
 4922W        W48016  24.055  10.559  30.977 -0.2038 -0.0823 -0.0994
 4923W        W48017  24.130  11.469  29.270  0.0203  0.0277 -0.0390
 4924W        W48018  23.350  12.470  29.668  0.2374 -0.1612 -0.3164
 4925W        W48019  24.749  10.814  30.312 -0.0546  0.1393 -0.1418
 4926W        W48020  24.072  14.411  30.487 -0.3481 -0.0424  0.0604
 4927W        W48021  23.313  12.078  28.281  0.1004  0.0229 -0.2189
 4928W        W48022  24.981  11.626  30.767 -0.0557  0.0265 -0.2365
 4929W        W48023  25.003  12.902  29.316 -0.1448 -0.1310  0.1630
 4930W        W48024  22.939  12.940  28.734  0.0571  0.0865 -0.5232
 4931W        W48025  21.983  12.498  31.716  0.0540  0.2231  0.0466
 4932W        W48026  22.593  14.418  31.322 -0.2644 -0.2010 -0.1442
 4933W        W48027  25.252  12.489  28.419 -0.2895 -0.0926 -0.0121
 4934W        W48028  21.749  10.886  28.655  0.2199  0.0595  0.2669
 4935W        W48029  23.342  13.037  27.817  0.3367 -0.3954 -0.0883
 4936W        W48030  19.700  13.153   0.412  0.2391 -0.0623  0.2439
 4937W        W48031  23.303  13.685  30.073  0.0082 -0.0643 -0.0604
 4938W        W48032  21.888  14.041  29.985  0.0668 -0.0548  0.2464
 4939W        W48033  24.282  13.947  28.833 -0.0209 -0.0644  0.1823
 4940W        W48034  23.911  13.167  27.999 -0.1075  0.1112  0.0173
 4941W        W48035  24.392  13.699  28.313  0.0945 -0.1316  0.0523
 4942W        W48036  22.806  12.495  28.017  0.0285 -0.0119  0.0670
 4943W        W48037  23.788  14.628  29.061 -0.0054  0.2621  0.0009
 4944W        W48038  23.806  14.991  26.378 -0.0008 -0.0713 -0.0735
 4945W        W48039  25.229  14.523  27.815 -0.0654  0.0347 -0.0052
 4946W        W48040  21.385  14.125  29.848 -0.0214 -0.1603  0.1574
 4947W        W48041  26.056  12.885  31.332  0.1728 -0.5084  0.0260
 4948W        W48042  24.759  10.147  28.041 -0.0739  0.1326  0.0537
 4949W        W48043  25.960  12.003  29.647  0.0295  0.0655 -0.0173
 4950W        W48044  23.458  13.506  27.910 -0.0846  0.4736 -0.1667
 4951W        W48045  23.452  13.626  30.560 -0.3997  0.1896  0.2169
 4952W        W48046  23.073  13.309  30.831  0.0035  0.1133  0.1456
 4953W        W48047  24.442  12.958  28.613  0.2846  0.1619 -0.0114
 4954W        W48048  23.801  13.612   0.115 -0.3548  0.0183  0.2478
 4955W        W48049  26.013  11.742  31.393  0.0209  0.2204  0.0986
 4956W        W48050  21.566  14.195  30.363 -0.1639 -0.0117  0.0203
 4957W        W48051  25.273  13.473  27.652  0.0349 -0.1786 -0.2894
 4958W        W48052  23.651  11.819  27.647  0.3841 -0.1016  0.1538
 4959W        W48053  23.349  12.845  30.663 -0.0368 -0.1165  0.1464
 4960W        W48054  26.424  11.852  31.180 -0.1991  0.0150  0.1754
 4961W        W48055  23.956  13.280  27.454  0.1723  0.4664 -0.1002
 4962W        W48056  23.962  12.656  28.958 -0.1103  0.1608 -0.1827
 4963W        W48057  22.573  15.400  29.218 -0.1535 -0.0784  0.0718
 4964W        W48058  23.202  13.528  29.346  0.1082  0.2255  0.2289
 4965W        W48059  22.999  13.030  30.422  0.3709 -0.3164  0.0995
 4966W        W48060  22.597  10.952  29.965 -0.1025  0.3887 -0.1236
 4967W        W48061  25.686  12.349  28.027  0.2769  0.0200 -0.1975
 4968W        W48062  24.316  12.717  29.888  0.1591  0.0002 -0.1829
 4969W        W48063  25.152  10.721  30.060 -0.0450 -0.4228  0.0527
 4970W        W48064  23.094  12.206  30.016 -0.0323 -0.2166  0.1895
 4971W        W48065  25.023  11.541  28.247  0.0269 -0.0730  0.1497
 4972W        W48066  24.569  12.076  29.569 -0.0992 -0.0836  0.3258
 4973W        W48067  22.968  11.972  30.482 -0.1465  0.2609 -0.2992
 4974W        W48068  23.454  11.572  28.672  0.0541  0.3839 -0.4296
 4975W        W48069  24.676  12.438  31.382  0.0355  0.0056  0.5054
 4976W        W48070  24.697  12.493  27.905 -0.1709  0.1376  0.2839
 4977W        W48071  24.374  14.277  30.099 -0.0401  0.0914  0.0017
 4978W        W48072  23.325  11.104  29.223  0.1521  0.1082  0.0338
 4979W        W48073  24.155  11.945  27.374 -0.1535 -0.0219  0.0943
 4980W        W48074  23.037  12.484  28.596  0.0156  0.4960 -0.0116
 4981W        W48075  23.629  13.226  30.792  0.1412 -0.0064 -0.1413
 4982W        W48076  23.079  14.785  30.192  0.2445  0.0894 -0.2563
 4983W        W48077  22.024  10.706  29.996 -0.5133  0.0023 -0.1701
 4984W        W48078  25.893  11.971  27.844  0.1123 -0.1956  0.0131
 4985W        W48079  25.196  12.363  29.369 -0.0709 -0.0431  0.0650
 4986W        W48080  23.329  14.578  28.628 -0.0910 -0.1119  0.1157
 4987W        W48081  23.659  11.623  29.404 -0.1446  0.0529 -0.0081
 4988W        W48082  25.040  14.079  30.310  0.1500  0.1755  0.0313
 4989W        W48083  22.939  11.582  30.109 -0.2390  0.1180 -0.0328
 4990W        W48084  23.330  14.904  29.106 -0.0402  0.0231  0.1712
 4991W        W48085  25.171  13.710  29.835  0.0790 -0.0105 -0.1283
 4992W        W48086  24.049   9.820  29.794  0.2087 -0.1207  0.2344
 4993W        W48087  23.839  11.122  29.466 -0.0603  0.0009 -0.2667
 4994W        W48088  22.588  13.839  28.823 -0.0312 -0.1607 -0.0741
 4995W        W48089  24.640  10.793  29.745  0.0880 -0.0494  0.0823
 4996W        W48090  25.199  12.582  30.348  0.1671 -0.0787 -0.0494
 4997W        W48091  24.332  14.705  28.313  0.0910 -0.0963  0.1899
 4998W        W48092  24.574  12.028  30.573  0.0053  0.2369  0.0291
 4999W        W48093  22.537  15.234  30.978 -0.1785 -0.2320  0.0303
 5000W        W48094  23.990  15.000  31.895  0.1006  0.0448  0.2184
 5001W        W48095  22.854  13.093  26.667 -0.0044 -0.1186 -0.0975
 5002W        W48096  23.069  12.770  31.532 -0.0357 -0.0182 -0.3640
 5003W        W48097  23.885  13.160  29.007 -0.2583 -0.0201  0.2634
 5004W        W48098  23.787  15.950  27.629 -0.0650  0.1544 -0.1853
 5005W        W48099  24.566  13.095  29.582 -0.0479 -0.2507  0.0229
 5006W        W48100  24.332  11.024  28.425 -0.0668 -0.2049 -0.1568
 5007W        W48101  25.733  13.469  28.828 -0.1625 -0.0680 -0.2173
 5008W        W48102  23.008  11.376  28.779 -0.0448 -0.0647  0.2220
 5009W        W48103  25.681  10.268  26.853 -0.3447  0.2646  0.0885
 5010W        W48104  24.318  10.177  28.254 -0.1397  0.2450  0.0208
 5011W        W48105  23.664  12.023  31.001  0.0694  0.3217  0.0607
 5012W        W48106  23.744  12.251  28.107  0.0051  0.0097  0.2305
 5013W        W48107  22.169  13.864  27.243  0.0776 -0.2294 -0.3388
 5014W        W48108  23.557  11.636  30.074 -0.1001 -0.0791 -0.1457
 5015W        W48109  24.384  10.760  31.933 -0.1332  0.0754  0.2747
 5016W        W48110  22.074  11.986   0.022 -0.2434 -0.1442 -0.1075
 5017W        W48111  22.954  13.458  28.793 -0.1501  0.0541 -0.1386
 5018W        W48112  22.712  11.108  28.340 -0.4439  0.0762  0.1522
 5019W        W48113  24.458  13.176  28.060  0.1401  0.0343  0.1331
 5020W        W48114  22.364  10.104  30.270 -0.1985  0.1852  0.0010
 5021W        W48115  21.752  11.646  28.124 -0.1509 -0.0292 -0.0400
 5022W        W48116  26.208  13.774  28.909 -0.1750  0.1324  0.1199
 5023W        W48117  23.497  14.530  27.865  0.0508 -0.0832  0.1059
 5024W        W48118  23.890  12.480  29.531 -0.3092  0.0850 -0.0736
 5025W        W48119  24.542  14.684  29.750  0.1620  0.2256 -0.0988
 5026W        W48120  22.396  14.304  27.072 -0.0595  0.0738 -0.0889
 5027W        W48121  22.470  12.692  31.776  0.2370  0.0275 -0.0395
 5028W        W48122  22.616  11.931  31.904  0.2396 -0.0723 -0.3720
 5029W        W48123  23.056  10.713  28.190  0.3300  0.0110  0.3136
 5030W        W48124  24.086  11.994  29.364  0.1465  0.0883  0.0623
 5031W        W48125  24.507  14.697  29.143 -0.1249  0.1800  0.2293
 5032W        W48126  25.587  15.179  28.751  0.2418 -0.0304  0.0196
 5033W        W48127  22.987  13.397  31.316  0.0151 -0.2191 -0.5872
 5034W        W48128  22.118  13.621  31.011 -0.3960  0.3188  0.0916
 5035W        W48129  21.852  11.062  30.673 -0.1722 -0.3673 -0.0518
 5036W        W48130  24.187  13.509  28.691  0.0378  0.0748  0.2651
 5037W        W48131  22.968  13.572  30.388  0.3929  0.1258 -0.5985
 5038W        W48132  25.632  12.207  28.702 -0.2366  0.2661 -0.0075
 5039W        W48133  23.697  11.325  29.035 -0.1952 -0.1860  0.3241
 5040W        W48134  23.580  13.233  29.456  0.1234  0.0312  0.1134
 5041W        W48135  23.773  12.139  31.494  0.0417 -0.0640 -0.2335
 5042W        W48136  21.157  13.574  28.744 -0.1689  0.0581  0.1519
 5043W        W48137  25.952  13.303  30.327  0.0567  0.1033  0.1010
 5044W        W48138  24.610  11.550  29.682  0.2132 -0.0156  0.1420
 5045W        W48139  24.348  10.270  30.280  0.1149  0.1302 -0.0220
 5046W        W48140  25.397  12.976  27.770 -0.2194 -0.0596  0.0067
 5047W        W48141  22.926  12.671  29.921 -0.2183 -0.0008  0.0216
 5048W        W48142  23.499  12.251  26.907  0.0195  0.2389  0.4816
 5049W        W48143  23.626  14.108  30.082 -0.1980  0.0620 -0.0820
 5050W        W48144  24.476  13.178  29.127  0.0633  0.1141  0.1127
 5051W        W48145  24.011  13.125  29.975 -0.0077 -0.3346  0.1332
 5052W        W48146  22.801  12.059  28.271  0.0197  0.1838  0.0015
 5053W        W48147  25.176  12.277  27.842  0.0352  0.2314  0.4094
 5054W        W48148  24.589  15.239  30.845 -0.2591  0.1436  0.0110
 5055W        W48149  24.354  14.561  31.783 -0.1528 -0.2810  0.1734
 5056W        W48150  23.586  14.528  30.329  0.0618 -0.0459  0.0194
 5057W        W48151  25.422  12.651  28.970 -0.3531  0.1582 -0.3229
 5058W        W48152  21.772  11.154  29.846 -0.0343 -0.1525  0.0621
 5059W        W48153  22.978  13.385  27.944  0.4952  0.0176 -0.0915
 5060W        W48154  23.639  12.744  28.124  0.0571 -0.0377  0.1064
 5061W        W48155  26.030  11.292  31.626  0.2941 -0.2491 -0.1318
 5062W        W48156  22.095  12.049  30.213 -0.1562  0.0511 -0.0985
 5063W        W48157  24.581  10.361  29.325  0.0562 -0.2447 -0.0120
 5064W        W48158  23.202  13.818  30.968 -0.0908  0.1860  0.1545
 5065W        W48159  25.762  12.363  30.689 -0.0520 -0.3207 -0.0520
 5066W        W48160  25.207  10.948  30.558  0.0950 -0.0183  0.4311
 5067W        W48161  23.526  13.499  31.225 -0.0079  0.2054  0.2040
 5068W        W48162  22.988  13.906  31.393 -0.1791 -0.0657  0.0740
 5069W        W48163  20.667  14.362   0.656  0.1433 -0.2386 -0.0770
 5070W        W48164  22.100  15.108   1.132  0.1104  0.3397  0.2919
 5071W        W48165  21.906  13.763  31.483 -0.1647 -0.2761 -0.1400
 5072W        W48166  24.465  11.592  30.976  0.1005 -0.1516 -0.3384
 5073W        W48167  24.198  11.838  31.757  0.2649  0.3066  0.2503
 5074W        W48168  26.273  10.802   0.240 -0.2532  0.0918  0.0912
 5075W        W48169  24.686  14.173  29.663 -0.0987  0.0508  0.4060
 5076W        W48170  24.099  13.902  30.383  0.1685 -0.1140 -0.1582
 5077W        W48171  22.763  10.902  31.532 -0.0186  0.0338 -0.0581
 5078W        W48172  24.315  13.381  31.432 -0.1089 -0.1996  0.1545
 5079W        W48173  23.352  12.357  31.614  0.3132  0.0456 -0.3869
 5080W        W48174  24.871  13.097   1.008  0.0762 -0.1183 -0.0511
 5081W        W48175  22.485  14.535  31.830 -0.3482  0.4038  0.1092
 5082W        W48176  21.293  13.787  30.700  0.1031  0.2641 -0.0259
 5083W        W48177  25.419  12.664  30.829 -0.0219  0.2534  0.0092
 5084W        W48178  21.479  11.187   0.842 -0.0754 -0.1184 -0.0308
 5085W        W48179  22.291  11.699  31.416  0.0061  0.0928  0.2623
 5086W        W48180  23.734  12.075   0.125 -0.2666  0.1946 -0.0617
 5087W        W48181  21.223  12.534  30.325  0.0959  0.3634  0.1467
 5088W        W48182  25.452  11.338  30.754  0.3002  0.3232  0.0910
 5089W        W48183  24.114  12.436  31.732  0.5323  0.1106 -0.0106
 5090W        W48184  24.676  11.739  31.879 -0.2414  0.2892  0.3081
 5091W        W48185  25.350  12.441  31.752  0.0490  0.0701 -0.0672
 5092W        W48186  21.097  14.433   0.464  0.2697 -0.0363  0.2364
 5093W        W48187  21.762  14.544  29.998  0.1356  0.0710 -0.0051
 5094W        W48188  22.221  12.060  31.099 -0.3744  0.1708  0.0246
 5095W        W48189  22.269  12.970   0.493 -0.0089 -0.0392  0.0911
 5096W        W48190  23.761  12.338  30.603  0.3148 -0.0102  0.1087
 5097W        W48191  21.382  11.452   0.070  0.4125 -0.1855  0.1133
 5098W        W48192  25.153  12.507  31.261 -0.0907 -0.2670  0.3235
 5099W        W48193  25.361  10.107   0.852 -0.1334  0.1138  0.1569
 5100W        W48194  22.213  12.012   0.540 -0.2153  0.0836 -0.0240
 5101W        W48195  21.284  13.314   0.456 -0.1443 -0.1123  0.1311
 5102W        W48196  21.264  15.113   0.036  0.1414  0.0057 -0.0349
 5103W        W48197  23.033  14.832  31.050 -0.0080  0.0124  0.0321
 5104W        W48198  25.029  12.128   0.938  0.1278 -0.2398  0.1989
 5105W        W48199  23.054  14.005   0.978  0.0059 -0.0383  0.3817
 5106W        W48200  25.773  12.301  31.923 -0.2048  0.0400  0.1258
 5107W        W48201  26.439  13.888   0.880  0.0337 -0.0501  0.1218
 5108W        W48202  23.052  12.286  31.136 -0.3625 -0.1200  0.0973
 5109W        W48203  24.131  13.467  30.963 -0.0037 -0.3150 -0.0131
 5110W        W48204  22.825  11.385  31.518  0.0199  0.0898 -0.1126
 5111W        W48205  23.003  12.782  30.993 -0.0817 -0.1405  0.0877
 5112W        W48206  24.155  12.050  30.758  0.1241  0.3170 -0.0342
 5113W        W48207  22.357  13.986  31.264 -0.2957  0.2711 -0.1549
 5114W        W48208  23.002  14.323  31.099  0.1246 -0.3184  0.2740
 5115W        W48209  20.961  13.060   0.016  0.0800 -0.1488  0.0494
 5116W        W48210  23.421  14.158  30.601 -0.3718  0.2760 -0.1839
 5117W        W48211  26.201  11.185  29.958  0.0178 -0.0467 -0.5171
 5118W        W48212  24.420  11.443  31.507 -0.3095  0.1374  0.2077
 5119W        W48213  22.671  13.720  31.006  0.5245 -0.0271 -0.0507
 5120W        W48214  23.657  11.259  31.432  0.1728 -0.3475 -0.3635
 5121W        W48215  22.641  14.927  31.397  0.1041 -0.0971 -0.0342
 5122W        W48216  24.448  12.482  30.938 -0.0022  0.1947  0.1634
 5123W        W48217  23.048  15.359  31.192 -0.2167 -0.0181 -0.1048
 5124W        W48218  23.527  13.987  31.485  0.1986  0.2279  0.0888
 5125W        W48219  20.881  12.920   0.525  0.1292 -0.1145  0.2538
 5126W        W48220  21.768  13.298   0.005  0.2420 -0.0427 -0.2231
 5127W        W48221  22.370  13.609   0.009  0.1396 -0.3511 -0.3278
 5128W        W48222  20.648  13.642  31.083 -0.1921  0.0838  0.0309
 5129W        W48223  21.390  10.628  31.855 -0.0487  0.1414  0.2989
 5130W        W48224  24.565  15.096  31.831  0.0400  0.0273  0.2254
 5131W        W48225  25.496  14.007  31.017  0.0407 -0.0944  0.1702
 5132W        W48226  26.192  12.213  30.522 -0.4622  0.1669 -0.0092
 5133W        W48227  26.073  16.540  18.924  0.0145 -0.0851  0.2835
 5134W        W48228  21.716  16.297  15.125 -0.0110 -0.1005  0.0391
 5135W        W48229  24.011  13.261  16.390 -0.2309  0.1283 -0.1009
 5136W        W48230  24.832  16.263  16.858  0.2947  0.0079  0.1522
 5137W        W48231  22.808  15.566  15.767  0.0268  0.0778 -0.5150
 5138W        W48232  24.742  18.248  15.752  0.1735  0.3281  0.3556
 5139W        W48233  23.979  13.930  17.607 -0.1797 -0.0250 -0.2023
 5140W        W48234  23.290  16.470  16.085  0.0383 -0.0071  0.1571
 5141W        W48235  26.189  18.126  17.426 -0.0042 -0.3721 -0.0112
 5142W        W48236  24.626  15.500  17.400  0.2446 -0.1023 -0.1407
 5143W        W48237  23.888  15.390  18.098 -0.0223 -0.0285  0.3355
 5144W        W48238  23.262  16.749  17.180  0.1319  0.0783  0.2295
 5145W        W48239  23.938  16.003  17.262  0.0048 -0.0030  0.0369
 5146W        W48240  22.734  15.602  15.151 -0.1050  0.2271 -0.3704
 5147W        W48241  25.471  15.586  19.076  0.1911  0.2372 -0.0164
 5148W        W48242  22.886  16.749  16.291  0.1833  0.0142 -0.3025
 5149W        W48243  24.317  15.174  18.328 -0.0943  0.2094  0.0906
 5150W        W48244  24.524  15.017  16.492 -0.0172  0.2239  0.1611
 5151W        W48245  25.260  16.408  16.047 -0.1297 -0.1533 -0.0846
 5152W        W48246  25.086  15.694  19.349 -0.0517  0.0630 -0.1081
 5153W        W48247  24.653  14.113  19.652 -0.3995  0.0407  0.0288
 5154W        W48248  25.552  17.089  17.810  0.1808 -0.1935  0.1479
 5155W        W48249  21.561  16.842  15.204  0.2362 -0.2559  0.0311
 5156W        W48250  22.618  16.593  17.385 -0.0716  0.1734  0.2466
 5157W        W48251  23.322  16.043  16.430  0.0976 -0.1605  0.4606
 5158W        W48252  24.712  15.212  17.923  0.2682  0.1402 -0.1523
 5159W        W48253  24.413  17.040  16.598 -0.0956  0.1703 -0.0075
 5160W        W48254  25.145  17.313  17.346  0.2011  0.2969  0.0072
 5161W        W48255  24.639  15.839  16.563  0.0163  0.4123 -0.1947
 5162W        W48256  24.660  15.393  20.363 -0.3153  0.2320  0.0616
 5163W        W48257  22.909  17.302  16.229 -0.0136  0.0302  0.1602
 5164W        W48258  23.557  17.242  17.097  0.1850  0.0225  0.0409
 5165W        W48259  24.224  17.866  16.447  0.0437 -0.0663  0.0174
 5166W        W48260  27.182  19.305  16.247  0.0717 -0.3002 -0.0235
 5167W        W48261  25.771  17.758  19.318 -0.0628 -0.0641  0.4278
 5168W        W48262  24.400  17.538  18.119  0.3629 -0.1063  0.0819
 5169W        W48263  21.570  17.044  14.753 -0.0967 -0.0246 -0.0490
 5170W        W48264  24.669  18.761  18.158  0.0069 -0.1524 -0.2252
 5171W        W48265  23.922  18.186  17.973 -0.1616 -0.4846  0.3476
 5172W        W48266  24.383  16.998  18.249 -0.0214  0.0790  0.1700
 5173W        W48267  24.784  16.901  17.295 -0.1341 -0.0458 -0.1239
 5174W        W48268  22.550  17.144  15.387 -0.0659 -0.1034  0.0132
 5175W        W48269  24.406  16.425  16.063  0.1095 -0.0498  0.1145
 5176W        W48270  23.886  16.543  18.828  0.2653  0.2184 -0.1516
 5177W        W48271  22.413  16.617  16.631 -0.0767  0.0371 -0.0046
 5178W        W48272  24.805  14.421  20.127  0.0312  0.0235 -0.0532
 5179W        W48273  22.571  18.434  15.157  0.0455  0.0840 -0.0597
 5180W        W48274  23.999  15.711  15.390  0.2340  0.1811  0.2891
 5181W        W48275  22.140  14.989  15.553 -0.5882 -0.4665 -0.0749
 5182W        W48276  25.761  15.028  17.051 -0.2342  0.0253 -0.0234
 5183W        W48277  24.425  16.438  17.801  0.4152  0.2134 -0.0322
 5184W        W48278  22.148  18.600  16.188 -0.0036  0.0775 -0.0449
 5185W        W48279  24.164  14.642  17.442 -0.1197  0.1739  0.3185
 5186W        W48280  26.581  16.609  18.730  0.1338  0.0500 -0.3601
 5187W        W48281  23.664  15.414  15.919  0.3771  0.2015 -0.0393
 5188W        W48282  25.369  15.356  20.122  0.1365  0.0966  0.1775
 5189W        W48283  23.791  16.961  17.431 -0.0309  0.0516  0.0797
 5190W        W48284  20.180  16.974  15.115 -0.0126  0.3699  0.2805
 5191W        W48285  24.319  16.575  15.097  0.0787 -0.0846 -0.2530
 5192W        W48286  27.842  17.940  18.078 -0.1408  0.1747  0.1222
 5193W        W48287  24.219  18.471  15.677  0.0161  0.1657 -0.1050
 5194W        W48288  23.562  15.762  15.084 -0.2565 -0.0234 -0.3031
 5195W        W48289  22.840  17.121  18.200 -0.0413  0.4552 -0.1703
 5196W        W48290  23.860  15.652  17.699  0.1894 -0.1325 -0.0134
 5197W        W48291  22.429  13.657  14.999  0.0247 -0.0563  0.1535
 5198W        W48292  26.685  17.226  18.603 -0.4925 -0.4108  0.0672
 5199W        W48293  23.415  18.416  16.988 -0.2889  0.0786 -0.2724
 5200W        W48294  26.029  15.112  18.440 -0.0823 -0.0077  0.0535
 5201W        W48295  23.388  14.803  16.207 -0.0618  0.1407  0.2200
 5202W        W48296  25.383  17.786  18.951  0.2581  0.1834 -0.2513
 5203W        W48297  24.857  16.276  15.740 -0.2315 -0.0688 -0.2921
 5204W        W48298  25.246  14.304  16.404  0.0402  0.1271  0.1961
 5205W        W48299  26.039  15.239  17.589  0.0862  0.3310 -0.0212
 5206W        W48300  22.972  16.970  14.414 -0.0495  0.0502  0.2074
 5207W        W48301  23.142  15.955  15.930  0.3804 -0.2303  0.0194
 5208W        W48302  26.527  16.892  19.391 -0.0284 -0.0044  0.2782
 5209W        W48303  25.163  16.574  15.488 -0.1699 -0.4856  0.1915
 5210W        W48304  22.965  17.170  17.212 -0.1202 -0.0842  0.0433
 5211W        W48305  23.959  16.206  19.313  0.0623  0.1600  0.0831
 5212W        W48306  24.534  16.383  20.011  0.2701 -0.1966  0.0611
 5213W        W48307  21.736  18.366  15.216  0.2167  0.0746 -0.2846
 5214W        W48308  23.388  17.640  16.374 -0.0221 -0.1191  0.0510
 5215W        W48309  22.507  16.001  15.899 -0.0907  0.0218 -0.1712
 5216W        W48310  23.623  15.504  18.845 -0.2275  0.2169 -0.2174
 5217W        W48311  24.129  17.958  15.722  0.0580  0.0195  0.3601
 5218W        W48312  25.462  14.981  17.558 -0.2239 -0.1138 -0.0893
 5219W        W48313  22.941  14.936  18.532 -0.1920 -0.0129  0.1391
 5220W        W48314  26.025  14.087  16.018 -0.4109 -0.1988 -0.0338
 5221W        W48315  23.018  18.229  15.132  0.0749  0.1646  0.1299
 5222W        W48316  26.039  18.099  16.595  0.1420 -0.0451 -0.0717
 5223W        W48317  25.622  16.784  18.197  0.0940  0.1239 -0.1421
 5224W        W48318  24.243  16.899  15.608  0.1759  0.1936  0.0812
 5225W        W48319  22.963  15.846  18.010  0.0928 -0.2580  0.0786
 5226W        W48320  23.767  15.262  16.975 -0.1680 -0.1737  0.0268
 5227W        W48321  24.135  15.513  17.318 -0.2492  0.1135  0.3050
 5228W        W48322  23.725  14.464  16.429  0.0382  0.1457  0.0373
 5229W        W48323  23.984  16.690  19.275  0.1825  0.1335 -0.2956
 5230W        W48324  22.067  15.320  15.192 -0.0139 -0.1171  0.2947
 5231W        W48325  25.186  15.711  16.587  0.2902 -0.0370 -0.0797
 5232W        W48326  22.628  16.074  14.923  0.3166  0.3729  0.2571
 5233W        W48327  22.213  16.994  15.823  0.0732 -0.2744 -0.0572
 5234W        W48328  23.467  14.729  19.599  0.0745 -0.1794 -0.0876
 5235W        W48329  24.337  17.545  15.976 -0.1889  0.4087  0.0638
 5236W        W48330  25.249  19.063  18.845  0.1140 -0.2632  0.2147
 5237W        W48331  25.225  17.802  17.234  0.3164 -0.0884 -0.1115
 5238W        W48332  23.414  15.579  17.964  0.2476  0.2475 -0.1781
 5239W        W48333  23.129  15.159  15.815  0.1760 -0.1307  0.2104
 5240W        W48334  22.627  19.519  16.028  0.1500  0.1586  0.2121
 5241W        W48335  23.702  16.595  16.408 -0.1527  0.0394 -0.1332
 5242W        W48336  24.139  15.481  15.853  0.3396  0.2581  0.2030
 5243W        W48337  25.795  17.919  17.130  0.1200  0.2146  0.1899
 5244W        W48338  23.287  16.773  15.219  0.0728 -0.0826  0.2319
 5245W        W48339  22.425  16.622  16.134  0.0578  0.2344 -0.2292
 5246W        W48340  25.482  14.827  18.800  0.0577 -0.1093  0.0362
 5247W        W48341  26.562  15.680  19.116  0.0209  0.1390 -0.0940
 5248W        W48342  25.879  16.074  18.787  0.0957  0.5282 -0.0047
 5249W        W48343  23.274  15.983  17.115 -0.0825 -0.1396 -0.2794
 5250W        W48344  23.888  17.071  18.902  0.2980 -0.3159  0.0678
 5251W        W48345  22.168  18.198  14.978 -0.0167 -0.0245 -0.3897
 5252W        W48346  22.119  16.158  15.421 -0.1098  0.0802  0.1084
 5253W        W48347  24.351  18.187  17.522  0.0466  0.6416  0.1894
 5254W        W48348  24.908  15.874  18.317  0.1537 -0.0365 -0.0196
 5255W        W48349  22.971  15.163  17.681 -0.0052 -0.0850  0.1060
 5256W        W48350  24.413  14.977  19.458  0.2440  0.0704  0.1225
 5257W        W48351  23.335  16.308  15.586  0.3236  0.1356 -0.0606
 5258W        W48352  24.945  16.333  18.642 -0.0255 -0.1390  0.1962
 5259W        W48353  26.252  13.556  17.606  0.0375  0.1654  0.1263
 5260W        W48354  24.453  15.062  15.923  0.0361 -0.2510 -0.1302
 5261W        W48355  26.160  16.572  19.396 -0.0485 -0.0729  0.0129
 5262W        W48356  24.944  18.070  17.756 -0.2125  0.0529  0.1277
 5263W        W48357  25.238  15.010  15.622 -0.1551  0.0373 -0.0179
 5264W        W48358  23.015  14.573  15.193 -0.2438  0.1842 -0.2612
 5265W        W48359  23.522  16.882  19.187 -0.0368 -0.1138 -0.1501
 5266W        W48360  25.798  17.645  16.286  0.1442  0.1098  0.0878
 5267W        W48361  24.112  16.288  18.222  0.1799 -0.0193  0.1621
 5268W        W48362  23.014  16.342  15.165  0.4590 -0.2087 -0.1686
 5269W        W48363  24.629  17.457  16.446  0.1001 -0.0474 -0.0175
 5270W        W48364  22.816  16.250  16.397  0.2804  0.0015 -0.1144
 5271W        W48365  24.894  15.775  18.866  0.0652 -0.0021  0.0706
 5272W        W48366  24.799  17.272  16.900  0.0398 -0.1168  0.0885
 5273W        W48367  23.602  14.554  18.875  0.0934 -0.1698  0.0310
 5274W        W48368  24.060  15.977  15.818  0.0619 -0.1440 -0.1558
 5275W        W48369  24.847  15.687  16.983  0.0543  0.3652 -0.1580
 5276W        W48370  21.084  19.326  15.548 -0.2086  0.0491  0.2157
 5277W        W48371  25.181  15.698  20.440  0.0556  0.1270  0.2568
 5278W        W48372  25.815  13.736  17.502  0.0684 -0.1134  0.0567
 5279W        W48373  24.781  15.159  19.947 -0.2495 -0.3442  0.0588
 5280W        W48374  26.338  15.952  18.609  0.3029  0.1924 -0.0499
 5281W        W48375  24.972  15.796  15.890  0.1485 -0.3693  0.0931
 5282W        W48376  25.855  16.942  18.633  0.4882  0.0608  0.1732
 5283W        W48377  21.892  16.921  14.409 -0.1954 -0.0787 -0.0182
 5284W        W48378  25.743  14.625  18.340  0.0622  0.0259 -0.5612
 5285W        W48379  23.465  15.995  17.646  0.1030  0.1270  0.0980
 5286W        W48380  23.047  18.491  16.618 -0.3484 -0.1606 -0.0440
 5287W        W48381  26.058  17.772  18.320 -0.0682 -0.4306  0.0425
 5288W        W48382  23.708  16.271  16.767 -0.2805  0.1363  0.2330
 5289W        W48383  23.210  15.938  20.645 -0.0033 -0.4510 -0.2278
 5290W        W48384  24.513  14.501  14.782  0.1034  0.0438  0.0204
 5291W        W48385  22.707  17.548  15.160  0.4291 -0.2202  0.3654
 5292W        W48386  21.766  16.829  15.948 -0.0430 -0.0084 -0.2036
 5293W        W48387  23.676  14.724  17.711 -0.0544 -0.1321 -0.1218
 5294W        W48388  22.865  16.345  15.825  0.1566  0.0953  0.1345
 5295W        W48389  22.936  18.154  15.690  0.4388 -0.4130 -0.2013
 5296W        W48390  24.370  17.025  19.029  0.1623  0.1375 -0.1360
 5297W        W48391  23.958  17.245  15.859  0.1041 -0.3688 -0.1194
 5298W        W48392  25.614  16.545  17.748  0.0646 -0.1961  0.3980
 5299W        W48393  23.807  17.660  16.099  0.0539  0.1182  0.3033
 5300W        W48394  22.870  16.744  15.515 -0.3101 -0.2856 -0.4413
 5301W        W48395  21.868  17.675  15.458  0.1121  0.0416 -0.0391
 5302W        W48396  25.658  13.864  16.950 -0.3027 -0.0035 -0.4061
 5303W        W48397  25.442  15.808  17.039 -0.1847 -0.2537  0.0787
 5304W        W48398  23.719  14.830  17.217  0.1943 -0.2232  0.0718
 5305W        W48399  25.268  14.772  17.152 -0.0603  0.2683  0.0928
 5306W        W48400  21.612  18.214  15.884 -0.0320  0.0015  0.1528
 5307W        W48401  24.377  15.877  19.135  0.1452 -0.1599 -0.1128
 5308W        W48402  24.148  14.823  15.589  0.0745 -0.4901  0.2144
 5309W        W48403  25.104  16.528  17.550  0.0998  0.4270  0.2401
 5310W        W48404  23.040  15.646  17.517 -0.0801  0.4511  0.0636
 5311W        W48405  22.655  15.321  14.683  0.0332  0.0742  0.0318
 5312W        W48406  26.678  16.651  20.485  0.1388 -0.0614 -0.0338
 5313W        W48407  23.876  14.405  16.918 -0.0542  0.1341  0.1413
 5314W        W48408  22.866  17.764  16.287 -0.1024  0.0904 -0.0032
 5315W        W48409  24.740  16.675  18.235  0.1699  0.2681 -0.1475
 5316W        W48410  22.306  15.785  15.161  0.4452  0.0884 -0.2395
 5317W        W48411  22.428  16.499  15.660  0.1553  0.3222  0.1233
 5318W        W48412  23.736  15.735  19.337 -0.2403 -0.0374 -0.0816
 5319W        W48413  26.536  16.321  18.363 -0.2208  0.0471 -0.1559
 5320W        W48414  24.272  15.474  17.849  0.1492  0.1292 -0.1494
 5321W        W48415  25.208  14.718  18.390 -0.1126 -0.1468  0.3512
 5322W        W48416  26.179  16.086  19.190  0.2446  0.1399 -0.0804
 5323W        W48417  26.179  15.974  18.173 -0.1636 -0.4692 -0.0110
 5324W        W48418  25.630  14.794  19.371 -0.2067 -0.2045 -0.1370
 5325W        W48419  24.610  18.438  19.553  0.2566 -0.0347 -0.1743
 5326W        W48420  25.229  15.582  18.598  0.1721  0.0912  0.1655
 5327W        W48421  25.775  17.830  15.825 -0.1340  0.0359 -0.0180
 5328W        W48422  24.911  16.272  19.139 -0.1924 -0.3831 -0.0508
 5329W        W48423  24.370  16.502  16.590 -0.1727 -0.2990  0.1350
 5330W        W48424  22.682  15.965  17.464  0.2639  0.1051  0.3338
 5331W        W48425  22.873  15.825  16.887 -0.5467 -0.0581 -0.1454
 5332W        W48426  24.246  14.687  18.913 -0.2139  0.1618  0.1834
 5333W        W48427  23.630  17.201  16.274  0.2205 -0.0036  0.1577
 5334W        W48428  23.445  18.179  15.552 -0.1296  0.1223  0.4748
 5335W        W48429  23.891  17.987  17.505  0.0335 -0.0551 -0.1772
 5336W        W48430  25.300  15.390  15.085  0.1406  0.1922  0.2261
 5337W        W48431  24.498  17.011  16.096 -0.0863 -0.0274  0.2802
 5338W        W48432  25.222  15.345  17.089  0.0304  0.0869 -0.2245
 5339W        W48433  24.758  15.518  20.851  0.1120 -0.1589 -0.1220
 5340W        W48434  25.511  16.185  16.569 -0.1182  0.1713  0.1488
 5341W        W48435  25.120  14.740  19.140 -0.4216  0.3780 -0.0882
 5342W        W48436  23.955  15.144  17.654 -0.0630 -0.2411 -0.3360
 5343W        W48437  25.529  17.104  16.512  0.3718 -0.0906 -0.1033
 5344W        W48438  23.980  16.195  17.696 -0.1315  0.3597  0.0323
 5345W        W48439  25.101  18.100  18.652  0.0436 -0.2735 -0.3783
 5346W        W48440  23.590  16.241  18.074  0.2208 -0.3239 -0.1131
 5347W        W48441  25.016  15.171  16.671  0.0103 -0.1464 -0.1985
 5348W        W48442  23.053  14.113  15.543 -0.2311 -0.0060  0.1059
 5349W        W48443  24.675  15.400  18.596  0.2383  0.0668 -0.0573
 5350W        W48444  24.999  17.060  16.437 -0.1420  0.0307 -0.2163
 5351W        W48445  23.756  17.629  15.551 -0.2002 -0.3398 -0.2509
 5352W        W48446  25.732  15.525  17.293  0.4890  0.0725  0.0596
 5353W        W48447  24.177  16.460  17.164  0.2645 -0.1640 -0.0274
 5354W        W48448  24.883  15.311  15.734 -0.2016 -0.2633  0.0574
 5355W        W48449  24.619  16.411  17.361 -0.1680  0.0164 -0.0791
 5356W        W48450  25.184  16.971  16.902  0.2830 -0.3168  0.3460
 5357W        W48451  23.680  13.927  18.322 -0.2963 -0.1197  0.1754
 5358W        W48452  24.078  16.115  16.476  0.2725  0.3318  0.0059
 5359W        W48453  24.420  16.033  17.027  0.0678 -0.2454  0.0471
 5360W        W48454  25.738  15.282  18.843 -0.2094  0.1492  0.0162
 5361W        W48455  25.126  16.681  19.529 -0.0201 -0.0976 -0.0463
 5362W        W48456  24.588  16.078  19.552  0.2241  0.0847  0.0600
 5363W        W48457  22.722  12.008  18.389  0.3326  0.2839  0.0320
 5364W        W48458  25.578  19.231  18.452  0.1441 -0.0488 -0.0942
 5365W        W48459  25.307  14.907  15.073  0.0131 -0.3960  0.0828
 5366W        W48460  26.831  16.006  19.404 -0.1032  0.0082 -0.0771
 5367W        W48461  25.150  16.819  17.924  0.0627  0.0817  0.0170
 5368W        W48462  23.443  17.382  15.106  0.0032  0.0519  0.0394
 5369W        W48463  23.608  15.836  15.681 -0.2926 -0.2410 -0.4554
 5370W        W48464  24.878  16.030  20.977  0.0698 -0.0761  0.3484
 5371W        W48465  22.691  15.851  14.497  0.1871  0.0085 -0.0058
 5372W        W48466  24.240  15.111  20.404 -0.0489  0.1740 -0.0827
 5373W        W48467  24.757  17.893  16.179  0.4905 -0.4225 -0.2586
 5374W        W48468  24.849  17.427  16.018  0.1948  0.1526 -0.2041
 5375W        W48469  25.254  14.757  16.650 -0.1432 -0.0841  0.1034
 5376W        W48470  23.241  14.454  16.494 -0.1420  0.2070 -0.0074
 5377W        W48471  23.956  18.601  19.193 -0.1981  0.1014  0.0861
 5378W        W48472  22.298  16.583  14.539 -0.1528  0.0178  0.1722
 5379W        W48473  21.902  16.538  14.088 -0.2887  0.1286  0.2064
 5380W        W48474  25.175  15.203  18.975  0.2570  0.0688  0.4609
 5381W        W48475  25.627  15.753  19.978  0.0315  0.0208  0.0676
 5382W        W48476  23.169  14.063  14.973 -0.0420  0.3066 -0.0700
 5383W        W48477  25.377  15.604  20.926  0.0173  0.1118 -0.0095
 5384W        W48478  22.813  17.595  15.785  0.1874 -0.1254 -0.0156
 5385W        W48479  24.972  15.094  17.488 -0.0021  0.2338 -0.0444
 5386W        W48480  24.461  17.284  17.384  0.2886  0.0718  0.0091
 5387W        W48481  22.370  16.270  17.105  0.0802  0.0418 -0.1026
 5388W        W48482  23.752  16.261  16.032  0.2120 -0.4939 -0.1058
 5389W        W48483  26.132  14.325  18.093  0.0178  0.1249  0.1028
 5390W        W48484  25.286  16.402  18.234  0.3140  0.2001  0.2099
 5391W        W48485  24.384  15.909  16.148  0.4155  0.3771 -0.0410
 5392W        W48486  27.272  17.661  18.011 -0.0013  0.1272  0.1240
 5393W        W48487  25.302  16.626  19.065  0.0635  0.0061 -0.0571
 5394W        W48488  22.344  15.436  16.720  0.0023  0.1333  0.1423
 5395W        W48489  24.873  17.818  18.971 -0.3091  0.1012 -0.1808
 5396W        W48490  25.581  17.253  15.123  0.1181  0.2566  0.1658
 5397W        W48491  23.250  16.502  16.676  0.0145  0.1564 -0.1391
 5398W        W48492  23.334  15.650  16.710  0.1075  0.1187  0.2944
 5399W        W48493  25.589  15.792  19.490  0.1228  0.2782  0.1485
 5400W        W48494  25.709  16.559  16.798  0.1840 -0.2454  0.2616
 5401W        W48495  23.831  14.496  15.903 -0.1703 -0.0007  0.0178
 5402W        W48496  23.964  18.215  15.340 -0.0120 -0.2366 -0.3016
 5403W        W48497  23.864  17.711  17.926  0.3283 -0.0786 -0.3579
 5404W        W48498  22.966  16.858  17.723  0.0677  0.1397  0.0037
 5405W        W48499  23.288  19.312  15.189 -0.1611  0.1219 -0.2022
 5406W        W48500  25.742  17.105  16.991 -0.1894 -0.3861 -0.0704
 5407W        W48501  25.243  17.529  16.352 -0.2089  0.3148 -0.2746
 5408W        W48502  24.873  17.731  18.134  0.0136  0.1737  0.1263
 5409W        W48503  23.741  15.309  14.994 -0.0286  0.1477  0.0102
 5410W        W48504  24.812  17.210  18.401 -0.0659  0.0889 -0.0596
 5411W        W48505  21.841  17.801  14.104  0.2413 -0.4438  0.0576
 5412W        W48506  25.488  15.848  16.066  0.1395 -0.1209  0.0284
 5413W        W48507  23.207  17.786  15.458  0.0355  0.2497 -0.0964
 5414W        W48508  26.544  17.012  18.146  0.1326  0.0790 -0.1637
 5415W        W48509  23.487  14.053  16.661  0.3155 -0.1270  0.2469
 5416W        W48510  26.127  18.274  18.372 -0.3395  0.2172  0.1037
 5417W        W48511  25.594  14.545  17.849 -0.2059 -0.1102  0.1611
 5418W        W48512  25.279  17.701  20.076  0.1105 -0.2695  0.1049
 5419W        W48513  24.288  15.832  18.157  0.2579  0.7631 -0.0752
 5420W        W48514  22.842  13.840  15.219 -0.4465 -0.4731  0.3752
 5421W        W48515  24.869  16.270  17.945  0.0253 -0.0107 -0.4560
 5422W        W48516  25.922  15.229  19.336 -0.0378  0.0379 -0.0980
 5423W        W48517  22.733  16.428  17.868 -0.0848 -0.1762 -0.1253
 5424W        W48518  25.417  18.235  15.778 -0.3264 -0.0254  0.0835
 5425W        W48519  22.305  15.644  15.660 -0.2483  0.1510  0.1815
 5426W        W48520  23.645  15.186  16.393 -0.0651  0.1924  0.0656
 5427W        W48521  26.357  15.295  19.905 -0.3416  0.0619 -0.1052
 5428W        W48522  23.814  17.157  15.362  0.3483 -0.0723  0.1290
 5429W        W48523  24.496  16.061  18.570  0.0088  0.0960  0.1098
 5430W        W48524  23.047  17.313  15.475  0.1189 -0.3361  0.0299
 5431W        W48525  24.812  16.151  16.255 -0.1102  0.1840  0.1501
 5432W        W48526  25.670  17.453  18.464  0.0438  0.1398 -0.1673
 5433W        W48527  21.999  16.421  15.883  0.2105  0.0320  0.1642
 5434W        W48528  26.483  15.676  17.737 -0.0664  0.1070 -0.2651
 5435W        W48529  23.145  14.945  17.200  0.2085  0.1581 -0.0120
 5436W        W48530  25.370  15.364  19.615  0.0443  0.1683 -0.1287
 5437W        W48531  24.686  17.034  17.810  0.1106 -0.1566 -0.0211
 5438W        W48532  25.987  14.862  18.938  0.2678 -0.1035  0.0373
 5439W        W48533  24.358  16.401  19.005  0.1433  0.0523 -0.1251
 5440W        W48534  22.851  16.325  17.032  0.0908 -0.0335 -0.0733
 5441W        W48535  24.199  17.492  15.498 -0.1297  0.0229 -0.1094
 5442W        W48536  26.525  18.271  19.328  0.0104  0.0936 -0.0495
 5443W        W48537  24.654  17.249  15.565 -0.2705 -0.4472 -0.1069
 5444W        W48538  25.986  18.202  19.337 -0.0370  0.4931  0.0089
 5445W        W48539  23.291  15.520  16.226  0.0146  0.1504  0.2641
 5446W        W48540  25.281  15.610  17.488 -0.0511 -0.1981 -0.1113
 5447W        W48541  23.340  17.417  15.882 -0.2395  0.1646 -0.0576
 5448W        W48542  24.940  16.041  17.431  0.3533  0.1999  0.4933
 5449W        W48543  24.788  17.285  18.927  0.1795  0.1813  0.0015
 5450W        W48544  22.710  13.905  15.963 -0.0229 -0.1231 -0.0482
 5451W        W48545  25.599  16.354  15.348 -0.1074  0.0787 -0.0164
 5452W        W48546  26.052  15.459  18.056 -0.1928  0.4851 -0.0350
 5453W        W48547  22.719  17.364  14.625  0.0172 -0.1525 -0.0696
 5454W        W48548  26.123  17.255  18.296 -0.0901 -0.2810 -0.3498
 5455W        W48549  26.934  18.633  16.734 -0.0499  0.0714 -0.2617
 5456W        W48550  21.022  13.689  16.154  0.2022  0.1715  0.3659
 5457W        W48551  25.599  16.492  18.678  0.3684  0.1882 -0.1610
 5458W        W48552  26.345  17.392  16.178 -0.5185  0.3175  0.2083
 5459W        W48553  24.320  14.571  16.209  0.1608  0.0545  0.2154
 5460W        W48554  23.759  16.721  17.013 -0.0813 -0.0797 -0.1670
 5461W        W48555  22.173  18.614  15.344  0.2183  0.1574 -0.0220
 5462W        W48556  25.940  16.030  19.739  0.1510  0.0468 -0.0779
 5463W        W48557  25.199  15.200  20.626  0.1169  0.0129 -0.2902
 5464W        W48558  23.539  18.408  15.094  0.3161 -0.1448  0.0516
 5465W        W48559  25.017  15.069  19.442 -0.0243 -0.2182 -0.1272
 5466W        W48560  25.201  17.331  18.120  0.1131  0.0555  0.1868
 5467W        W48561  25.363  16.066  18.574  0.1831  0.0374  0.2107
 5468W        W48562  22.064  16.873  14.931  0.0144 -0.3504  0.0122
 5469W        W48563  23.476  16.395  20.550  0.1441  0.1597  0.2650
 5470W        W48564  24.621  17.751  15.641 -0.0383  0.0353  0.2016
 5471W        W48565  23.920  18.674  16.102  0.0148 -0.0086  0.3756
 5472W        W48566  26.350  18.012  17.975  0.2123 -0.2107 -0.1760
 5473W        W48567  24.819  14.544  16.375 -0.0055 -0.2492 -0.0148
 5474W        W48568  25.808  17.119  16.046  0.0928  0.0298  0.2566
 5475W        W48569  23.606  15.618  17.272 -0.1423  0.3287 -0.0517
 5476W        W48570  25.697  14.785  15.677  0.2788 -0.0341 -0.1836
 5477W        W48571  24.876  14.965  16.138 -0.3150 -0.2376 -0.1246
 5478W        W48572  23.667  16.379  17.380 -0.1275 -0.1478 -0.0111
 5479W        W48573  22.439  16.715  15.201 -0.0559  0.0996  0.2007
 5480W        W48574  22.991  17.160  15.015 -0.0798 -0.2777  0.1686
 5481W        W48575  23.300  17.018  16.595  0.0445 -0.0830  0.3102
 5482W        W48576  24.001  14.376  18.575 -0.0409 -0.0839  0.3811
 5483W        W48577  23.413  13.573  18.767  0.3442 -0.1076 -0.0910
 5484W        W48578  23.236  16.921  15.842  0.3348 -0.2124  0.1622
 5485W        W48579  23.966  14.979  16.026 -0.1721 -0.3930  0.0885
 5486W        W48580  25.064  18.865  15.787 -0.1306 -0.4548  0.1152
 5487W        W48581  24.021  14.883  16.542 -0.4284  0.0406  0.2554
 5488W        W48582  22.890  14.770  16.258  0.1374  0.0219  0.0014
 5489W        W48583  24.907  16.784  15.859  0.0339 -0.0602  0.2169
 5490W        W48584  25.312  17.452  16.884 -0.3459 -0.1827 -0.1125
 5491W        W48585  23.044  14.712  15.692  0.3582 -0.0481 -0.3789
 5492W        W48586  25.443  17.321  19.358  0.0883  0.3633  0.1589
 5493W        W48587  21.306  16.770  15.708  0.0145  0.1005  0.1147
 5494W        W48588  23.664  15.276  21.065  0.1859 -0.0421 -0.0132
 5495W        W48589  25.459  14.489  20.166  0.2711  0.0524 -0.1471
 5496W        W48590  21.437  16.563  14.792 -0.1418 -0.1431 -0.2944
 5497W        W48591  25.027  16.304  19.768 -0.2670  0.2000 -0.0523
 5498W        W48592  24.738  16.681  16.294  0.0874  0.2222  0.1175
 5499W        W48593  24.351  17.908  15.212 -0.1928  0.1024  0.1282
 5500W        W48594  25.365  16.073  19.054  0.1921 -0.0282  0.0486
 5501W        W48595  23.893  17.041  16.656  0.0755 -0.2386  0.2503
 5502W        W48596  22.942  15.300  18.191  0.3350  0.3663 -0.1233
 5503W        W48597  25.201  16.607  16.544  0.4097  0.1789 -0.0407
 5504W        W48598  24.347  17.767  18.900 -0.0080 -0.0328 -0.0071
 5505W        W48599  27.542  18.362  17.326 -0.0794 -0.1423 -0.2389
 5506W        W48600  25.479  15.165  18.346 -0.1152  0.3214  0.3180
 5507W        W48601  24.804  15.722  17.798  0.0533  0.5042 -0.0132
 5508W        W48602  22.777  13.078  18.545  0.1026 -0.3804 -0.0624
 5509W        W48603  23.981  16.750  17.858  0.0544  0.2459 -0.0921
 5510W        W48604  26.038  16.748  17.925  0.0612 -0.3842  0.2936
 5511W        W48605  24.303  15.588  16.837 -0.2079 -0.1072 -0.1664
 5512W        W48606  25.166  14.902  17.945  0.0041 -0.1641 -0.2998
 5513W        W48607  25.327  17.743  17.772 -0.0303 -0.1040 -0.0544
 5514W        W48608  23.325  17.156  17.521 -0.4276  0.2584  0.1408
 5515W        W48609  23.899  15.247  15.450 -0.0092 -0.0305 -0.2948
 5516W        W48610  24.119  16.192  20.343  0.2653 -0.0681 -0.0256
 5517W        W48611  23.969  17.284  18.357 -0.0244 -0.0080 -0.0463
 5518W        W48612  24.619  16.579  19.395  0.3254 -0.1886 -0.0895
 5519W        W48613  22.654  16.075  15.416  0.0444  0.2633  0.3596
 5520W        W48614  26.278  15.852  15.787  0.3258 -0.1338  0.3460
 5521W        W48615  24.824  19.280  19.144  0.1333  0.2158 -0.1128
 5522W        W48616  25.268  17.131  19.881  0.1982 -0.1566 -0.2633
 5523W        W48617  25.248  16.860  18.547  0.1539 -0.2179  0.1212
 5524W        W48618  27.003  16.204  18.212 -0.1591 -0.2431  0.7038
 5525W        W48619  23.267  14.306  17.707  0.1752 -0.1300 -0.1850
 5526W        W48620  23.831  15.757  16.757  0.0783 -0.1230  0.0940
 5527W        W48621  24.672  15.443  16.197 -0.0800  0.2076 -0.0251
 5528W        W48622  25.048  16.182  20.222 -0.1540 -0.1643  0.0597
 5529W        W48623  23.412  15.091  17.976 -0.2996  0.5578  0.2780
 5530W        W48624  24.995  15.636  15.388 -0.4742  0.0354  0.2157
 5531W        W48625  25.008  18.576  18.474  0.2197  0.3871 -0.2277
 5532W        W48626  24.668  15.887  20.054 -0.1587  0.1827 -0.1128
 5533W        W48627  23.530  16.937  20.591 -0.2201  0.1612  0.2098
 5534W        W48628  23.306  15.702  21.201 -0.0747 -0.1063  0.3680
 5535W        W48629  24.687  15.574  19.644  0.3403 -0.0072  0.1816
 5536W        W48630  25.735  16.995  20.103 -0.1574  0.0818  0.2250
 5537W        W48631  22.342  14.874  18.682 -0.1590 -0.0874 -0.1356
 5538W        W48632  24.991  16.662  20.212  0.0049  0.0257 -0.0196
 5539W        W48633  22.639  15.062  21.935  0.1898 -0.2417 -0.0345
 5540W        W48634  25.586  16.953  21.670  0.2623 -0.2745  0.3141
 5541W        W48635  25.633  18.275  22.811 -0.5259  0.1354 -0.0396
 5542W        W48636  24.201  15.687  20.281 -0.2156  0.1528  0.1883
 5543W        W48637  22.284  15.724  22.297 -0.0772 -0.1409 -0.2730
 5544W        W48638  23.320  17.180  20.204  0.1107  0.1513 -0.0914
 5545W        W48639  24.200  14.513  19.407 -0.0910 -0.3303  0.1723
 5546W        W48640  22.717  14.682  22.806 -0.1133  0.1125  0.0771
 5547W        W48641  22.574  15.994  23.723 -0.2536  0.0466 -0.1435
 5548W        W48642  24.256  16.639  18.578 -0.1540 -0.1875 -0.3242
 5549W        W48643  22.760  15.291  20.030  0.4259  0.0998  0.1900
 5550W        W48644  24.524  16.146  21.398 -0.0689  0.1823 -0.1657
 5551W        W48645  24.353  18.027  21.243 -0.1177  0.4257 -0.0468
 5552W        W48646  22.369  15.725  20.701  0.0658  0.2170  0.1052
 5553W        W48647  24.441  13.092  23.389 -0.1645  0.0959  0.1262
 5554W        W48648  25.902  16.423  20.420 -0.3379 -0.0875  0.3334
 5555W        W48649  22.642  14.826  18.145 -0.1807 -0.0960 -0.1956
 5556W        W48650  23.941  16.656  20.415  0.2247 -0.1447 -0.1012
 5557W        W48651  24.723  17.752  20.243 -0.0148 -0.2798  0.1905
 5558W        W48652  23.232  15.508  22.616  0.0277 -0.0473  0.3377
 5559W        W48653  25.671  17.300  24.073 -0.5007 -0.0118 -0.2229
 5560W        W48654  24.111  17.730  19.980  0.1702  0.2373  0.2507
 5561W        W48655  24.241  17.391  22.554 -0.1515  0.2264 -0.0326
 5562W        W48656  25.349  15.948  23.591  0.0297  0.0948  0.0903
 5563W        W48657  24.487  18.097  19.947 -0.0027  0.3337 -0.0335
 5564W        W48658  25.573  16.521  21.420  0.0045 -0.0992 -0.1601
 5565W        W48659  25.043  18.341  22.698  0.0291 -0.2087 -0.1958
 5566W        W48660  23.440  18.107  22.347  0.0148 -0.1086  0.3253
 5567W        W48661  23.178  16.720  18.201  0.0766  0.3330 -0.0206
 5568W        W48662  22.882  18.339  21.787  0.2865  0.0432  0.1448
 5569W        W48663  23.875  16.945  21.949  0.4961 -0.1292  0.3240
 5570W        W48664  23.264  17.164  20.982 -0.1160  0.2869  0.0075
 5571W        W48665  25.325  17.654  20.668 -0.0065  0.0778  0.0222
 5572W        W48666  24.329  17.724  17.577  0.0295 -0.0942  0.1889
 5573W        W48667  25.848  17.809  21.642  0.0107 -0.0470 -0.6093
 5574W        W48668  22.496  17.985  22.135  0.0898 -0.1401  0.3608
 5575W        W48669  24.982  16.112  24.688  0.1947 -0.0626 -0.1967
 5576W        W48670  23.822  19.309  18.750 -0.0145  0.2025 -0.1095
 5577W        W48671  26.409  15.129  18.883  0.1159  0.1661 -0.2236
 5578W        W48672  23.371  15.268  18.472  0.2258 -0.1100 -0.1322
 5579W        W48673  24.815  15.054  21.448 -0.0802 -0.0625 -0.1173
 5580W        W48674  23.019  14.611  20.459 -0.0178 -0.1829  0.0924
 5581W        W48675  23.734  18.744  20.265  0.0268  0.1778  0.1691
 5582W        W48676  23.589  14.515  23.292 -0.3003 -0.4342  0.0867
 5583W        W48677  25.450  18.187  23.261  0.0663  0.1607  0.0350
 5584W        W48678  23.062  16.475  20.296 -0.0066  0.1872 -0.2919
 5585W        W48679  23.848  16.000  21.539  0.0618 -0.1690 -0.3735
 5586W        W48680  23.486  18.213  20.304 -0.1064 -0.6343  0.1135
 5587W        W48681  25.432  18.721  18.479 -0.3948 -0.2045  0.1309
 5588W        W48682  25.144  17.892  21.086 -0.2280  0.1649 -0.0523
 5589W        W48683  24.878  17.506  19.660  0.1043  0.0429 -0.0496
 5590W        W48684  23.437  16.082  20.148  0.1956 -0.0809  0.2352
 5591W        W48685  23.829  16.204  22.729 -0.1216  0.0825  0.1251
 5592W        W48686  22.378  15.648  22.753 -0.1280 -0.0581 -0.1380
 5593W        W48687  23.163  13.856  18.459 -0.2909  0.1309 -0.0703
 5594W        W48688  26.947  16.888  23.272 -0.1512  0.4109  0.0552
 5595W        W48689  21.509  19.022  22.185 -0.3304  0.0826  0.0121
 5596W        W48690  25.468  15.064  21.611  0.1041 -0.2467 -0.4761
 5597W        W48691  24.693  16.135  22.543 -0.0559 -0.0629  0.1279
 5598W        W48692  25.239  17.615  23.746  0.3445  0.0298  0.2027
 5599W        W48693  26.798  18.265  19.718  0.0671  0.3604 -0.1163
 5600W        W48694  23.840  16.464  23.204  0.1451  0.0701  0.0794
 5601W        W48695  23.920  15.432  22.408  0.5026  0.0482  0.3129
 5602W        W48696  23.555  16.362  19.155  0.0898  0.2619 -0.1122
 5603W        W48697  24.823  16.898  19.846  0.3023  0.1480 -0.0911
 5604W        W48698  25.890  17.224  22.970  0.0363  0.1209  0.1772
 5605W        W48699  24.646  16.384  20.494  0.0349  0.2594 -0.0953
 5606W        W48700  23.362  18.485  22.048 -0.1030 -0.1423  0.1489
 5607W        W48701  21.946  15.927  21.227  0.1501  0.0788  0.3406
 5608W        W48702  23.349  17.038  22.099  0.0196  0.2855 -0.1864
 5609W        W48703  23.248  18.739  18.012  0.0758  0.2041 -0.1098
 5610W        W48704  22.728  14.705  21.549 -0.2707 -0.3693  0.1033
 5611W        W48705  23.674  18.049  19.839 -0.1274 -0.0153 -0.0819
 5612W        W48706  24.510  15.286  21.768 -0.1402 -0.2849 -0.0486
 5613W        W48707  23.805  14.309  22.065  0.1898 -0.0134 -0.0406
 5614W        W48708  24.160  15.110  20.980  0.2045  0.1635  0.2043
 5615W        W48709  23.549  17.702  20.173 -0.0663 -0.1583  0.3764
 5616W        W48710  23.911  19.142  20.050 -0.0952 -0.3002  0.0065
 5617W        W48711  25.655  15.566  20.462 -0.2564  0.0684  0.2409
 5618W        W48712  23.684  16.784  18.362  0.0739 -0.0532  0.2395
 5619W        W48713  22.090  15.194  21.944 -0.1360  0.1969 -0.4512
 5620W        W48714  22.733  16.548  21.859 -0.3127  0.0200 -0.1257
 5621W        W48715  21.936  14.259  22.680 -0.1181 -0.3679  0.1263
 5622W        W48716  22.292  15.247  20.942 -0.1150 -0.0750  0.0105
 5623W        W48717  24.751  18.878  23.909  0.3025  0.0165  0.1945
 5624W        W48718  23.023  13.907  17.850  0.1864 -0.3547  0.0219
 5625W        W48719  26.235  15.826  22.704 -0.1293  0.0128 -0.0897
 5626W        W48720  24.557  17.659  22.207 -0.5390  0.2760  0.2688
 5627W        W48721  22.908  15.115  23.197 -0.1079  0.0621  0.0943
 5628W        W48722  25.336  17.789  19.583 -0.0071 -0.0229  0.1053
 5629W        W48723  25.277  18.355  23.816  0.2593  0.2090  0.0753
 5630W        W48724  25.803  16.996  20.667 -0.0112  0.1003 -0.1573
 5631W        W48725  22.177  14.675  22.344 -0.3435  0.1188 -0.0753
 5632W        W48726  22.476  14.731  19.160  0.2414  0.0582 -0.2255
 5633W        W48727  24.446  19.194  19.976 -0.0907  0.3521  0.0841
 5634W        W48728  24.709  16.597  21.625 -0.0842  0.1574 -0.0749
 5635W        W48729  23.582  14.741  20.186  0.0258 -0.0831 -0.1548
 5636W        W48730  24.557  16.722  22.552  0.0134 -0.2022 -0.3080
 5637W        W48731  25.486  16.623  20.333 -0.1934 -0.3338 -0.0643
 5638W        W48732  23.928  17.806  20.531  0.1780 -0.0476  0.2690
 5639W        W48733  25.155  14.666  23.950 -0.1554 -0.2478 -0.0663
 5640W        W48734  23.928  16.885  23.549  0.0492 -0.0590 -0.4357
 5641W        W48735  24.692  15.823  23.531 -0.0160  0.2100 -0.0355
 5642W        W48736  23.274  15.775  18.417 -0.1683  0.1455  0.0442
 5643W        W48737  24.846  18.102  21.455 -0.1208  0.0423  0.0937
 5644W        W48738  24.381  17.333  18.637  0.1154  0.1563 -0.2491
 5645W        W48739  24.831  17.626  21.790  0.1144 -0.2553  0.1405
 5646W        W48740  26.012  15.067  23.426  0.2003 -0.0175 -0.0554
 5647W        W48741  21.743  14.755  22.112 -0.2633  0.1426  0.1146
 5648W        W48742  23.909  14.098  24.192  0.0703 -0.0911 -0.2834
 5649W        W48743  23.444  16.675  17.799 -0.1419  0.1724  0.0396
 5650W        W48744  22.967  17.403  21.429 -0.1264  0.2955  0.2591
 5651W        W48745  24.017  13.509  21.746 -0.0713 -0.0290  0.0633
 5652W        W48746  25.499  14.800  20.831 -0.0813  0.1838 -0.2723
 5653W        W48747  24.536  17.087  22.162  0.0668 -0.1387 -0.0723
 5654W        W48748  24.669  16.949  20.567 -0.0947 -0.2499 -0.0092
 5655W        W48749  22.891  15.954  20.028 -0.0678  0.1057  0.1706
 5656W        W48750  24.161  15.969  19.786 -0.1382 -0.2942 -0.0328
 5657W        W48751  22.883  16.935  21.580 -0.0026 -0.0972 -0.1424
 5658W        W48752  24.584  16.556  20.973 -0.3969 -0.0191  0.2944
 5659W        W48753  24.300  16.886  21.738 -0.1784 -0.0638  0.0512
 5660W        W48754  24.015  14.998  19.741 -0.0653 -0.0310  0.1114
 5661W        W48755  25.335  18.360  19.825  0.2503 -0.2030  0.1366
 5662W        W48756  22.951  17.512  20.035 -0.2024  0.0772  0.1398
 5663W        W48757  24.038  17.344  24.934 -0.1276 -0.3575  0.0392
 5664W        W48758  25.945  15.238  21.812 -0.3831 -0.1130  0.1262
 5665W        W48759  22.702  14.816  20.160 -0.0051 -0.0963 -0.0357
 5666W        W48760  23.721  15.839  20.524  0.1786  0.0370 -0.0248
 5667W        W48761  23.244  15.712  19.672 -0.0443  0.2188  0.2425
 5668W        W48762  23.881  17.557  18.823  0.0240 -0.1632  0.2699
 5669W        W48763  23.906  16.444  21.776 -0.0399  0.2476  0.1434
 5670W        W48764  23.664  15.119  21.635  0.0231  0.0142 -0.2463
 5671W        W48765  23.700  15.912  20.985 -0.1386 -0.3321  0.1175
 5672W        W48766  26.703  17.128  23.642  0.0024  0.2556  0.1068
 5673W        W48767  25.914  16.007  20.717  0.1106  0.1055 -0.5231
 5674W        W48768  22.332  15.660  21.249  0.1105  0.0109 -0.0826
 5675W        W48769  23.814  14.334  17.970  0.0910  0.0500  0.0132
 5676W        W48770  22.750  15.431  21.396  0.2285  0.0469  0.1338
 5677W        W48771  22.915  16.563  20.821 -0.1852  0.0321  0.1620
 5678W        W48772  22.969  17.903  21.560  0.0408  0.1821  0.0688
 5679W        W48773  24.412  17.751  24.148  0.0046  0.0379  0.0741
 5680W        W48774  24.048  16.109  22.126  0.0045  0.1282 -0.2038
 5681W        W48775  22.752  15.149  23.663 -0.1371  0.3640  0.2490
 5682W        W48776  23.108  14.638  19.268 -0.3254 -0.0204 -0.0061
 5683W        W48777  24.404  19.577  18.929  0.0663 -0.1856  0.1625
 5684W        W48778  23.073  16.641  19.388 -0.4373  0.3057 -0.2224
 5685W        W48779  23.782  14.987  20.665  0.0511  0.1520 -0.1077
 5686W        W48780  24.694  17.136  21.636 -0.5167 -0.0679 -0.2129
 5687W        W48781  23.561  16.090  19.651 -0.0791  0.2151 -0.0078
 5688W        W48782  23.760  16.589  22.315  0.1568 -0.2267  0.0008
 5689W        W48783  23.860  17.178  19.407 -0.3321 -0.4285 -0.0071
 5690W        W48784  25.998  14.611  22.098 -0.0635 -0.1209  0.0315
 5691W        W48785  22.094  18.041  21.076 -0.1490  0.0971  0.0300
 5692W        W48786  23.769  16.398  19.982 -0.1706  0.0376 -0.0377
 5693W        W48787  22.965  16.358  18.615  0.2323  0.1363  0.0419
 5694W        W48788  24.543  13.878  22.374  0.4642 -0.0313 -0.2232
 5695W        W48789  26.195  16.830  20.356 -0.0076  0.0788  0.0996
 5696W        W48790  22.797  15.638  20.379 -0.1389 -0.0973 -0.2013
 5697W        W48791  22.868  14.614  22.018 -0.0525  0.4875  0.1420
 5698W        W48792  23.121  18.300  20.910  0.4111  0.2469 -0.1581
 5699W        W48793  24.045  15.129  22.031 -0.0968  0.2374 -0.0911
 5700W        W48794  22.496  15.003  22.409  0.0057 -0.2413  0.2268
 5701W        W48795  23.411  17.358  22.852  0.1717  0.3511 -0.0139
 5702W        W48796  22.370  16.910  22.520  0.0564  0.1058 -0.1635
 5703W        W48797  23.069  14.451  18.636  0.0275 -0.3757 -0.1994
 5704W        W48798  24.839  16.651  22.219 -0.0490  0.1792 -0.2101
 5705W        W48799  22.695  17.005  21.067 -0.0440  0.0864 -0.0789
 5706W        W48800  23.674  17.427  19.788 -0.5265 -0.2036 -0.2821
 5707W        W48801  25.687  17.763  23.516  0.0140  0.2969 -0.2741
 5708W        W48802  23.022  16.917  19.938  0.0350 -0.3881  0.2207
 5709W        W48803  23.603  17.610  18.317 -0.0434  0.0436 -0.1523
 5710W        W48804  23.433  16.030  23.571 -0.0122 -0.2412 -0.2442
 5711W        W48805  25.068  17.964  24.082 -0.2491 -0.1523 -0.0975
 5712W        W48806  22.594  15.562  21.857  0.0178 -0.0492  0.2398
 5713W        W48807  23.318  15.165  20.194  0.0526 -0.1046  0.2433
 5714W        W48808  24.523  14.743  21.849 -0.1997  0.3942  0.0851
 5715W        W48809  24.917  17.244  23.466  0.0964 -0.1221 -0.0470
 5716W        W48810  23.496  15.622  21.630 -0.1606 -0.0120  0.2177
 5717W        W48811  23.022  17.400  20.568 -0.0915  0.2565 -0.3204
 5718W        W48812  24.277  14.433  22.963  0.0460 -0.2493 -0.2867
 5719W        W48813  26.078  17.759  21.201  0.2088  0.1067  0.1169
 5720W        W48814  23.999  15.934  24.231  0.2101  0.1638 -0.1016
 5721W        W48815  24.801  16.761  18.910  0.0257 -0.0501 -0.2972
 5722W        W48816  22.421  17.236  20.231 -0.1111  0.0581  0.2665
 5723W        W48817  23.471  16.162  22.007  0.1606 -0.1507 -0.1591
 5724W        W48818  22.782  16.875  20.426 -0.3607  0.1351 -0.2259
 5725W        W48819  23.595  16.579  19.577 -0.3030 -0.0108 -0.0774
 5726W        W48820  22.604  17.645  20.379  0.1783 -0.0210 -0.0777
 5727W        W48821  24.481  15.006  22.314  0.1703 -0.1098  0.0191
 5728W        W48822  25.330  17.285  18.903 -0.0926  0.1050  0.2789
 5729W        W48823  22.312  14.628  21.863  0.2051 -0.0334  0.1624
 5730W        W48824  25.960  15.424  23.899  0.1246  0.2336  0.0180
 5731W        W48825  26.106  15.439  20.279 -0.1463 -0.1860 -0.0482
 5732W        W48826  22.804  13.331  23.516 -0.1665 -0.2320  0.1179
 5733W        W48827  23.243  14.734  21.282  0.4260  0.0507 -0.0598
 5734W        W48828  25.286  16.870  22.428  0.1890 -0.0465 -0.0933
 5735W        W48829  21.659  15.338  22.047 -0.1376  0.1283 -0.0250
 5736W        W48830  24.319  18.154  23.139 -0.0359  0.1445  0.1385
 5737W        W48831  23.159  14.816  23.513 -0.0037  0.1822  0.2474
 5738W        W48832  24.715  14.227  21.985 -0.0903 -0.2067  0.0890
 5739W        W48833  25.078  14.602  19.689 -0.1286  0.3187 -0.0653
 5740W        W48834  24.020  18.251  20.156  0.0218 -0.1826 -0.0030
 5741W        W48835  24.371  15.516  22.247 -0.2583  0.0748  0.1676
 5742W        W48836  25.435  16.111  20.583  0.0160 -0.2632  0.0015
 5743W        W48837  26.386  15.768  23.143 -0.0317  0.0894  0.1844
 5744W        W48838  21.715  16.120  21.916 -0.2102  0.1385 -0.3124
 5745W        W48839  24.919  15.203  22.102  0.1192 -0.0499 -0.0852
 5746W        W48840  24.209  15.760  21.022  0.0923 -0.0788  0.0609
 5747W        W48841  24.881  17.107  19.369  0.7691  0.1409 -0.0604
 5748W        W48842  22.705  13.913  22.798 -0.0541  0.0055 -0.1109
 5749W        W48843  24.804  15.753  22.033 -0.1663  0.2963  0.0842
 5750W        W48844  24.275  14.166  21.797 -0.0709 -0.1689 -0.3188
 5751W        W48845  24.216  15.887  22.712 -0.1979 -0.2351 -0.1383
 5752W        W48846  24.294  15.698  23.258 -0.4076 -0.1674  0.0504
 5753W        W48847  24.718  16.467  23.002  0.1898 -0.0715 -0.2024
 5754W        W48848  22.099  15.285  22.537 -0.0556 -0.2661 -0.0042
 5755W        W48849  25.076  19.274  23.826  0.0553  0.0356 -0.0791
 5756W        W48850  25.501  16.088  21.091  0.1453  0.0704 -0.2190
 5757W        W48851  24.796  13.924  24.732 -0.0954  0.1793  0.0265
 5758W        W48852  25.215  15.191  21.172  0.1413 -0.0626 -0.0679
 5759W        W48853  24.366  15.798  21.733 -0.1311  0.0028  0.1358
 5760W        W48854  25.196  17.015  24.244 -0.0914  0.1167  0.0996
 5761W        W48855  24.172  15.604  18.624  0.1481 -0.0521 -0.2323
 5762W        W48856  24.248  14.237  23.394 -0.0676  0.0265 -0.1728
 5763W        W48857  24.775  19.249  18.146 -0.0218 -0.0063 -0.0508
 5764W        W48858  24.999  17.203  22.050 -0.0086 -0.0470 -0.2007
 5765W        W48859  23.959  15.488  21.338 -0.1401 -0.2606 -0.0394
 5766W        W48860  22.645  18.076  20.780 -0.0357 -0.0252  0.0882
 5767W        W48861  23.812  15.812  18.347 -0.0089 -0.1977  0.2021
 5768W        W48862  24.171  15.456  19.395  0.0918  0.2462  0.2030
 5769W        W48863  24.318  17.570  21.669 -0.2312  0.4647 -0.4700
 5770W        W48864  25.421  18.175  24.422 -0.1896  0.0916  0.1211
 5771W        W48865  24.174  15.075  21.482  0.0526  0.3359 -0.1404
 5772W        W48866  25.315  16.577  23.571 -0.1599  0.1070  0.1377
 5773W        W48867  24.200  13.790  21.392 -0.2317 -0.1648  0.0374
 5774W        W48868  23.586  18.061  20.861 -0.0979  0.0111 -0.0840
 5775W        W48869  22.387  16.771  21.593 -0.0452 -0.0540 -0.0390
 5776W        W48870  24.984  18.151  20.139 -0.0983  0.0841  0.3321
 5777W        W48871  23.106  16.179  21.659 -0.3897 -0.2906 -0.1069
 5778W        W48872  24.219  14.962  23.849 -0.1162  0.2471 -0.0640
 5779W        W48873  24.856  17.067  21.025 -0.1253  0.3811 -0.2014
 5780W        W48874  23.883  15.006  24.381  0.2488 -0.0028  0.1849
 5781W        W48875  24.946  16.802  23.835 -0.0171 -0.1516 -0.0838
 5782W        W48876  24.489  17.465  19.313 -0.1627 -0.1131 -0.1304
 5783W        W48877  25.485  17.340  23.325 -0.3082  0.2330  0.0595
 5784W        W48878  23.893  16.941  21.473  0.1206  0.1693  0.1189
 5785W        W48879  23.979  17.697  19.496 -0.3011  0.0008  0.0101
 5786W        W48880  22.343  15.187  22.953 -0.2998 -0.2141  0.2266
 5787W        W48881  23.485  16.857  23.297 -0.1191 -0.2422 -0.0422
 5788W        W48882  23.733  15.491  23.489 -0.2825  0.2649  0.1770
 5789W        W48883  23.359  15.003  18.895  0.3014 -0.1600  0.4604
 5790W        W48884  23.959  18.101  18.942  0.4136  0.0072  0.0354
 5791W        W48885  22.306  17.475  22.201  0.1051 -0.2866  0.2136
 5792W        W48886  22.993  17.322  21.888  0.1672  0.2408  0.1462
 5793W        W48887  24.176  19.054  19.017 -0.2049  0.1506  0.4157
 5794W        W48888  25.449  18.235  19.332  0.1748  0.1808 -0.1836
 5795W        W48889  23.995  16.329  20.834 -0.0213 -0.0110  0.0367
 5796W        W48890  25.432  18.225  21.582 -0.0444  0.0199 -0.1056
 5797W        W48891  22.933  14.301  19.640 -0.2946 -0.2434 -0.0527
 5798W        W48892  24.832  18.727  19.886  0.0673 -0.0651  0.2599
 5799W        W48893  23.155  17.471  17.901 -0.0374  0.0136  0.1307
 5800W        W48894  25.194  17.387  21.061 -0.1167  0.0362 -0.3643
 5801W        W48895  23.567  18.436  18.882  0.1381  0.0172  0.2107
 5802W        W48896  25.619  17.693  22.533  0.1190 -0.0234 -0.1303
 5803W        W48897  24.639  14.978  18.948 -0.0582  0.1645 -0.0218
 5804W        W48898  25.741  16.792  22.159 -0.0671  0.3729 -0.2958
 5805W        W48899  25.246  14.688  21.338 -0.1841  0.5705 -0.2223
 5806W        W48900  24.233  17.865  22.721 -0.2057 -0.2100  0.1894
 5807W        W48901  23.645  16.440  21.260  0.2709  0.2144 -0.1545
 5808W        W48902  23.865  13.599  18.989  0.3486 -0.2460  0.0451
 5809W        W48903  23.857  15.896  23.211 -0.4809 -0.0270  0.4713
 5810W        W48904  25.470  14.885  24.473 -0.1185  0.3251  0.0032
 5811W        W48905  22.602  17.562  21.794 -0.1851  0.0681 -0.1147
 5812W        W48906  25.469  18.149  20.257 -0.2306  0.2972 -0.0481
 5813W        W48907  25.760  17.455  20.901 -0.1099  0.1473 -0.1083
 5814W        W48908  24.325  13.729  23.392 -0.0485 -0.4136  0.2940
 5815W        W48909  25.114  16.259  21.549 -0.0564  0.0645  0.9114
 5816W        W48910  23.338  14.884  21.903 -0.0856  0.1823 -0.1985
 5817W        W48911  24.440  17.320  20.824 -0.1522  0.2673  0.1202
 5818W        W48912  23.835  17.316  20.263 -0.1038  0.0523  0.3816
 5819W        W48913  25.229  16.676  21.910 -0.1174  0.2665  0.0260
 5820W        W48914  22.257  13.599  19.417 -0.2269  0.1921 -0.0820
 5821W        W48915  25.779  15.596  22.441 -0.1203  0.2039  0.2410
 5822W        W48916  22.293  16.213  21.047 -0.2050  0.0238 -0.1448
 5823W        W48917  25.255  14.249  22.081 -0.0156  0.2562  0.0266
 5824W        W48918  23.241  16.214  21.052 -0.1183  0.1092 -0.1600
 5825W        W48919  25.034  15.080  23.049 -0.1825  0.2337 -0.2050
 5826W        W48920  23.421  17.579  21.607 -0.3205  0.0094 -0.0383
 5827W        W48921  22.777  16.473  21.353 -0.0971 -0.0817  0.0590
 5828W        W48922  24.272  15.391  19.888  0.1181  0.1183  0.1231
 5829W        W48923  25.036  16.268  23.983 -0.1748  0.1704  0.1820
 5830W        W48924  24.513  15.911  20.622  0.1847  0.4429 -0.2394
 5831W        W48925  24.194  17.586  23.210 -0.2404  0.0471 -0.1807
 5832W        W48926  23.551  15.318  19.524 -0.1507  0.0863  0.1482
 5833W        W48927  25.099  15.417  21.693 -0.0988  0.1397 -0.0790
 5834W        W48928  23.701  15.649  22.800  0.2764 -0.0685 -0.1082
 5835W        W48929  24.208  16.852  24.174  0.3711 -0.1895 -0.0195
 5836W        W48930  22.831  15.065  19.065  0.2537  0.2120 -0.0317
 5837W        W48931  25.569  17.376  20.332 -0.2127 -0.3534 -0.1779
 5838W        W48932  26.323  16.372  22.671  0.0603 -0.1099 -0.3336
 5839W        W48933  24.568  17.943  18.453 -0.0581  0.0876  0.0998
 5840W        W48934  23.910  15.664  21.922 -0.1137 -0.1559 -0.1254
 5841W        W48935  25.137  16.838  21.389 -0.0288  0.1586  0.0874
 5842W        W48936  22.536  14.807  20.646  0.1602  0.0833 -0.2210
 5843W        W48937  24.864  18.099  23.067 -0.4310  0.1382  0.2960
 5844W        W48938  25.623  17.871  24.008  0.1570  0.1321 -0.1030
 5845W        W48939  24.298  14.462  22.255 -0.1001  0.1229  0.0883
 5846W        W48940  23.772  16.858  21.008  0.0027 -0.1547  0.2196
 5847W        W48941  26.134  14.704  23.830 -0.3921  0.0526 -0.1278
 5848W        W48942  25.770  16.173  23.378  0.1295  0.0173  0.2952
 5849W        W48943  24.136  17.237  17.826 -0.1207  0.1295 -0.3523
 5850W        W48944  25.226  13.704  24.255  0.0414 -0.0173 -0.1014
 5851W        W48945  24.422  17.394  20.335  0.1269  0.2569 -0.2676
 5852W        W48946  23.275  17.863  23.116 -0.0449 -0.2698 -0.3714
 5853W        W48947  23.287  16.729  18.723 -0.4822 -0.3011 -0.1069
 5854W        W48948  23.611  16.818  22.730 -0.0038  0.0565  0.4426
 5855W        W48949  23.964  19.460  19.230  0.1076  0.0485  0.4140
 5856W        W48950  24.310  18.036  19.351  0.0817  0.1708  0.0852
 5857W        W48951  25.189  17.278  21.598 -0.3638  0.0721  0.5131
 5858W        W48952  25.243  15.884  21.800 -0.0288  0.0545 -0.0600
 5859W        W48953  24.617  17.631  23.625  0.1170 -0.0013  0.1361
 5860W        W48954  22.755  16.046  20.730 -0.0745 -0.0465  0.3767
 5861W        W48955  24.636  14.617  22.616 -0.2811 -0.0719  0.1961
 5862W        W48956  24.843  14.098  20.932  0.0563 -0.1151  0.3282
 5863W        W48957  23.226  16.748  21.237 -0.0523  0.0442 -0.2274
 5864W        W48958  23.000  15.453  18.692  0.0481  0.0001  0.0476
 5865W        W48959  23.513  16.281  18.589  0.2171 -0.0051 -0.1951
 5866W        W48960  22.369  16.715  20.147 -0.0273  0.0367 -0.1964
 5867W        W48961  25.332  12.952  24.922 -0.1844  0.1215  0.3639
 5868W        W48962  22.441  16.063  23.247 -0.1937 -0.0286 -0.1418
 5869W        W48963  24.407  17.337  19.809 -0.0269  0.0578 -0.4279
 5870W        W48964  22.523  15.331  18.532  0.1972  0.0678  0.1315
 5871W        W48965  25.460  16.968  21.063  0.0481  0.1524 -0.0408
 5872W        W48966  22.747  14.289  20.185  0.0589  0.2244 -0.1438
 5873W        W48967  22.077  13.300  20.824  0.2912  0.0852 -0.1729
 5874W        W48968  24.905  17.262  20.170  0.0499 -0.3623  0.0852
 5875W        W48969  25.240  17.030  20.472  0.1691 -0.0348  0.1238
 5876W        W48970  24.308  14.565  21.398  0.0890 -0.1724 -0.0861
 5877W        W48971  24.870  19.064  23.400 -0.2134  0.0714  0.2170
 5878W        W48972  22.486  16.374  18.408 -0.2789 -0.1944 -0.0782
 5879W        W48973  23.061  16.644  23.615  0.0525  0.1036 -0.0479
 5880W        W48974  23.418  12.732  23.578 -0.0655 -0.2262 -0.2238
 5881W        W48975  23.145  14.090  19.029 -0.1575 -0.3381 -0.2671
 5882W        W48976  22.489  16.117  22.019 -0.0856 -0.3720  0.0068
 5883W        W48977  24.330  16.954  19.517  0.0060 -0.1116 -0.0070
 5884W        W48978  26.278  17.560  21.652 -0.1884 -0.2374 -0.1715
 5885W        W48979  24.832  17.434  20.623 -0.2226  0.2754  0.0685
 5886W        W48980  23.033  17.771  20.960  0.0999 -0.1742  0.1962
 5887W        W48981  22.546  14.263  23.141  0.0224  0.0501  0.1940
 5888W        W48982  23.926  17.243  20.789  0.0054  0.0298 -0.1325
 5889W        W48983  23.480  17.442  24.201  0.1129 -0.2370 -0.1377
 5890W        W48984  26.333  17.666  20.733 -0.0631 -0.1464  0.2000
 5891W        W48985  25.611  14.442  21.804 -0.1547  0.0118  0.0148
 5892W        W48986  25.215  15.609  22.269 -0.0698 -0.4349  0.0737
 5893W        W48987  22.722  14.694  23.283 -0.0920  0.0835  0.0531
 5894W        W48988  22.581  17.795  21.260 -0.1271  0.1802  0.0687
 5895W        W48989  25.112  16.206  22.180  0.0310 -0.0487 -0.0173
 5896W        W48990  23.931  15.443  20.709  0.0937  0.0402  0.0359
 5897W        W48991  25.288  14.816  23.373 -0.0745  0.0585  0.1200
 5898W        W48992  25.733  16.028  21.563  0.1175  0.0609 -0.0180
 5899W        W48993  23.445  16.705  20.131 -0.0351 -0.0754 -0.1366
 5900W        W48994  24.035  14.634  21.787  0.3438  0.2776  0.0854
 5901W        W48995  25.152  17.614  22.333  0.0830  0.3577  0.2271
 5902W        W48996  23.432  16.642  21.729  0.2183  0.1851 -0.0537
 5903W        W48997  24.501  16.927  23.708  0.1502  0.2216  0.3228
 5904W        W48998  24.251  16.866  20.800 -0.0924  0.0884 -0.1947
 5905W        W48999  26.677  15.310  22.135 -0.1593 -0.1610  0.1975
 5906W        W49000  24.687  18.294  23.942 -0.2350 -0.2905  0.1055
 5907W        W49001  23.493  19.436  23.695 -0.0714  0.0151 -0.2309
 5908W        W49002  25.456  17.846  21.960 -0.1026 -0.0481  0.0653
 5909W        W49003  24.362  17.322  23.966  0.0733  0.0487 -0.2061
 5910W        W49004  22.810  14.102  21.836  0.1540  0.4096  0.1270
 5911W        W49005  23.924  15.980  18.851  0.1371 -0.3379 -0.0447
 5912W        W49006  24.164  18.276  18.436 -0.0436 -0.0127 -0.0069
 5913W        W49007  24.644  15.421  23.052 -0.1378 -0.3238 -0.0118
 5914W        W49008  23.883  16.919  19.868  0.0211  0.1042  0.1869
 5915W        W49009  23.079  15.263  21.733  0.3469  0.0566 -0.1285
 5916W        W49010  24.113  17.447  22.077  0.1194  0.1065  0.1196
 5917W        W49011  24.760  17.384  22.543 -0.1960  0.0322  0.3421
 5918W        W49012  21.146  16.787  26.119  0.0324  0.3379 -0.1173
 5919W        W49013  21.493  15.526  23.252  0.1677 -0.0237 -0.0241
 5920W        W49014  24.626  15.696  24.693 -0.0790  0.4148  0.1146
 5921W        W49015  25.247  16.352  25.733 -0.1379  0.0385 -0.1662
 5922W        W49016  21.723  15.442  24.250 -0.1907 -0.0199  0.0901
 5923W        W49017  24.393  18.754  25.545  0.2607  0.0765  0.0179
 5924W        W49018  22.992  13.908  26.435 -0.2925 -0.0600  0.0206
 5925W        W49019  25.082  17.906  26.600 -0.0310  0.1881 -0.1395
 5926W        W49020  24.716  18.307  27.498  0.1249 -0.0143 -0.0580
 5927W        W49021  25.008  16.792  23.250  0.6070 -0.0363  0.0575
 5928W        W49022  24.097  15.818  26.047 -0.3411  0.1316  0.0706
 5929W        W49023  22.847  18.441  26.101  0.2247 -0.0190 -0.4256
 5930W        W49024  23.584  15.287  24.693  0.1459  0.0649  0.2458
 5931W        W49025  21.296  14.422  25.810 -0.1499 -0.1534  0.2702
 5932W        W49026  24.873  17.153  27.025  0.0843 -0.0038 -0.1055
 5933W        W49027  22.728  17.663  23.667 -0.2033 -0.0735  0.1596
 5934W        W49028  23.923  16.338  26.321  0.1866 -0.1301 -0.1032
 5935W        W49029  21.899  15.216  23.409 -0.0425  0.3441 -0.0388
 5936W        W49030  24.827  19.858  25.290 -0.1333  0.0164 -0.0233
 5937W        W49031  22.223  14.349  24.968 -0.2934 -0.1806  0.2528
 5938W        W49032  24.349  15.600  26.792 -0.2078  0.1357 -0.0240
 5939W        W49033  22.755  17.716  24.890 -0.1012  0.0674 -0.3118
 5940W        W49034  23.388  15.260  23.079 -0.0520  0.1467  0.0943
 5941W        W49035  22.475  16.111  25.599  0.3649 -0.2014 -0.0225
 5942W        W49036  23.262  16.092  25.710 -0.1081  0.1464  0.0309
 5943W        W49037  24.331  17.003  25.358  0.0228  0.1982  0.4832
 5944W        W49038  25.264  17.744  25.338 -0.0016  0.2114  0.1458
 5945W        W49039  23.808  18.181  25.475  0.0289 -0.1139  0.3398
 5946W        W49040  24.860  18.949  25.646  0.0825 -0.1079  0.0627
 5947W        W49041  23.373  16.752  27.466  0.1668  0.1848  0.0163
 5948W        W49042  22.618  17.158  24.741  0.0532  0.0020 -0.0722
 5949W        W49043  22.236  16.147  22.754  0.0641  0.0844 -0.1033
 5950W        W49044  23.097  16.907  22.733 -0.0737 -0.3296 -0.0793
 5951W        W49045  25.324  17.310  27.232  0.4422 -0.1022  0.0343
 5952W        W49046  25.113  17.520  25.738 -0.0921  0.0250 -0.0389
 5953W        W49047  23.284  17.660  26.525  0.1255  0.4337 -0.1477
 5954W        W49048  23.022  18.025  23.536  0.1679 -0.1590  0.0807
 5955W        W49049  25.132  18.049  28.402  0.1521 -0.0987 -0.1654
 5956W        W49050  21.871  17.534  25.892 -0.1311 -0.1852 -0.2523
 5957W        W49051  23.868  16.209  25.586  0.1913  0.0052  0.1040
 5958W        W49052  23.777  16.191  24.617 -0.1984 -0.1649 -0.0964
 5959W        W49053  24.120  16.975  22.403  0.0083 -0.4017  0.4990
 5960W        W49054  24.126  18.469  25.838  0.3081 -0.0590  0.0830
 5961W        W49055  22.598  17.346  26.885 -0.0524  0.0826 -0.0420
 5962W        W49056  22.209  16.216  25.169  0.2197  0.1383  0.0455
 5963W        W49057  24.752  15.521  27.556  0.2121 -0.1158 -0.0894
 5964W        W49058  22.980  16.151  22.135 -0.1013  0.4524  0.0627
 5965W        W49059  24.355  16.169  23.351  0.3406 -0.1509 -0.1525
 5966W        W49060  23.994  14.787  23.141  0.2123  0.1486 -0.0247
 5967W        W49061  25.295  16.754  24.783  0.0092 -0.1727 -0.2269
 5968W        W49062  21.942  14.533  24.616  0.3903  0.0538  0.3092
 5969W        W49063  24.321  18.175  25.377  0.1598  0.2801  0.1865
 5970W        W49064  21.624  15.858  25.704 -0.0715  0.1165 -0.2464
 5971W        W49065  22.927  16.907  27.005 -0.0797 -0.0376  0.2769
 5972W        W49066  23.263  15.740  23.156  0.1243  0.1826  0.0594
 5973W        W49067  23.425  15.865  26.856  0.4061  0.1315  0.2165
 5974W        W49068  23.649  16.055  26.023 -0.1905  0.0698  0.3013
 5975W        W49069  21.595  16.318  24.715 -0.1128 -0.0204  0.0219
 5976W        W49070  24.009  17.824  24.469 -0.0483  0.1256 -0.0212
 5977W        W49071  25.422  17.685  24.889 -0.0220 -0.0848  0.0644
 5978W        W49072  24.410  18.076  23.619  0.0257  0.0300 -0.2638
 5979W        W49073  21.086  16.022  24.965  0.3084 -0.2365  0.0137
 5980W        W49074  20.828  16.730  26.517 -0.0652  0.0268 -0.1818
 5981W        W49075  21.006  15.756  26.919  0.0704  0.0714  0.0287
 5982W        W49076  23.076  14.339  23.026  0.0147  0.1029 -0.1850
 5983W        W49077  24.013  17.094  27.019 -0.1360 -0.0192 -0.2771
 5984W        W49078  21.100  17.689  26.313 -0.0882  0.1634 -0.0940
 5985W        W49079  24.225  15.292  25.860  0.0741 -0.0632  0.3155
 5986W        W49080  23.067  16.596  24.159  0.0181 -0.2690  0.0402
 5987W        W49081  23.975  16.635  25.455  0.2637 -0.1564  0.2393
 5988W        W49082  23.562  18.344  25.030 -0.1109 -0.2006  0.0935
 5989W        W49083  23.481  16.525  25.427  0.0337  0.0614  0.0833
 5990W        W49084  24.004  14.708  27.134 -0.1733 -0.2960  0.2018
 5991W        W49085  21.800  15.658  22.389 -0.3305  0.2448 -0.0085
 5992W        W49086  22.902  16.409  25.889 -0.0273 -0.3649  0.2175
 5993W        W49087  25.769  18.741  27.528 -0.1114 -0.1924 -0.1555
 5994W        W49088  25.818  16.788  24.575  0.0370 -0.1162  0.3351
 5995W        W49089  24.665  17.606  26.103  0.1471  0.3400  0.1655
 5996W        W49090  23.074  16.657  26.549 -0.0466 -0.0079  0.0517
 5997W        W49091  22.804  15.041  27.593  0.0211  0.1546  0.1575
 5998W        W49092  23.071  17.894  22.130 -0.0256 -0.0552  0.3847
 5999W        W49093  21.539  16.828  22.851 -0.1620 -0.2001  0.3636
 6000W        W49094  22.107  16.315  21.635  0.1613  0.0854  0.0247
 6001W        W49095  20.834  16.014  25.872 -0.0308 -0.1300 -0.3958
 6002W        W49096  22.627  15.721  24.745 -0.1008  0.0411  0.1289
 6003W        W49097  25.454  15.912  24.726  0.1693 -0.1149  0.0658
 6004W        W49098  22.077  15.644  26.478  0.0194 -0.1358 -0.2527
 6005W        W49099  24.787  14.939  25.732 -0.0453 -0.0828  0.0425
 6006W        W49100  23.715  16.805  24.168 -0.0044 -0.1346  0.0976
 6007W        W49101  24.266  17.384  24.498  0.1764  0.2662  0.2684
 6008W        W49102  25.100  16.678  26.133  0.4516  0.0967 -0.0429
 6009W        W49103  25.313  19.000  24.178  0.2109 -0.0231 -0.0659
 6010W        W49104  21.627  14.786  25.055  0.0730  0.2718  0.4557
 6011W        W49105  22.047  14.939  24.831  0.2267  0.1337  0.1272
 6012W        W49106  22.470  14.950  25.779 -0.0001  0.1604  0.0945
 6013W        W49107  21.796  15.144  22.931 -0.1069  0.0289  0.0316
 6014W        W49108  24.726  16.776  28.099 -0.0580  0.1112 -0.2079
 6015W        W49109  22.870  15.581  24.059 -0.2491 -0.0164  0.2593
 6016W        W49110  24.904  17.583  24.967 -0.1675  0.3466 -0.4307
 6017W        W49111  24.408  16.205  24.823 -0.2548 -0.5265 -0.2495
 6018W        W49112  22.470  16.642  22.956  0.1650 -0.1117  0.2534
 6019W        W49113  24.618  14.820  26.970 -0.2679  0.0513  0.2302
 6020W        W49114  23.900  17.914  25.894 -0.1773 -0.3187  0.3908
 6021W        W49115  24.478  16.693  27.229 -0.1637 -0.2047 -0.0442
 6022W        W49116  25.589  19.377  24.360  0.1012  0.2062  0.2136
 6023W        W49117  22.993  14.412  26.304  0.2152 -0.1346  0.3901
 6024W        W49118  23.604  16.880  25.897 -0.2201  0.1213  0.0219
 6025W        W49119  23.821  18.824  25.648 -0.0038  0.4125 -0.0416
 6026W        W49120  23.329  17.293  25.654 -0.0958  0.1850 -0.3681
 6027W        W49121  22.898  15.644  23.489  0.0369  0.1700  0.1820
 6028W        W49122  25.811  19.071  26.276  0.0298 -0.0090  0.0658
 6029W        W49123  23.070  16.833  24.688  0.2402 -0.0490 -0.0027
 6030W        W49124  22.263  16.258  26.150 -0.3964 -0.1217  0.2253
 6031W        W49125  24.431  14.570  27.446  0.1473 -0.2682 -0.1675
 6032W        W49126  24.426  16.954  26.763 -0.1931 -0.0409 -0.1203
 6033W        W49127  23.068  16.871  26.129 -0.0188 -0.1891  0.0647
 6034W        W49128  21.923  15.393  21.368 -0.0469  0.1876 -0.0027
 6035W        W49129  25.775  18.604  26.674  0.0001  0.0475  0.2132
 6036W        W49130  23.229  17.440  22.375  0.0087  0.0019  0.1768
 6037W        W49131  22.042  16.089  23.570  0.2166  0.1001  0.0154
 6038W        W49132  23.613  18.121  24.615  0.0681 -0.0108  0.2662
 6039W        W49133  25.814  16.258  26.729  0.2095  0.3187  0.1922
 6040W        W49134  21.657  15.757  26.228 -0.0268  0.0137  0.2596
 6041W        W49135  24.522  15.269  28.892 -0.1922 -0.1051 -0.0326
 6042W        W49136  21.812  16.548  23.729 -0.2974  0.0381 -0.1389
 6043W        W49137  21.451  16.534  27.981  0.3448  0.1884  0.1980
 6044W        W49138  23.104  15.664  25.444 -0.0284  0.1225  0.0344
 6045W        W49139  26.185  17.559  23.930 -0.0661 -0.1376 -0.1471
 6046W        W49140  22.689  16.070  27.130  0.1805 -0.1337 -0.0337
 6047W        W49141  24.025  16.818  24.693  0.0100  0.0735 -0.1384
 6048W        W49142  25.389  13.690  23.054 -0.0704  0.0191 -0.0809
 6049W        W49143  23.835  14.123  23.070  0.0354 -0.1799 -0.3230
 6050W        W49144  20.082  17.131  25.047  0.0506 -0.0938  0.0080
 6051W        W49145  24.323  17.973  26.217  0.1211  0.0300  0.0136
 6052W        W49146  25.007  17.222  24.690  0.0342 -0.0964 -0.0436
 6053W        W49147  24.385  15.652  24.177  0.3605  0.0439  0.1247
 6054W        W49148  25.349  16.572  25.316  0.0073 -0.0580  0.3279
 6055W        W49149  22.633  16.063  24.332 -0.2845  0.2400  0.0499
 6056W        W49150  23.610  17.147  27.342 -0.0442 -0.1931  0.0333
 6057W        W49151  24.760  17.535  24.414  0.0641  0.0761 -0.3623
 6058W        W49152  23.482  14.609  26.324  0.0743 -0.1260  0.2004
 6059W        W49153  22.940  16.161  25.351 -0.2104 -0.1988  0.0263
 6060W        W49154  23.141  14.905  25.120 -0.0037 -0.0377  0.2481
 6061W        W49155  23.872  19.065  21.303  0.1058 -0.2128 -0.2264
 6062W        W49156  24.385  15.804  25.581  0.0163  0.0894  0.2307
 6063W        W49157  24.822  14.378  26.454 -0.1004 -0.0706  0.0702
 6064W        W49158  23.467  14.524  27.053  0.0346 -0.1637  0.0376
 6065W        W49159  25.312  15.848  28.301 -0.1694 -0.0554 -0.0677
 6066W        W49160  24.988  16.599  24.405  0.0649  0.0291  0.0514
 6067W        W49161  25.455  16.941  26.318  0.2887 -0.3875 -0.3022
 6068W        W49162  22.198  16.619  22.101 -0.1041  0.0399  0.1156
 6069W        W49163  24.419  16.282  26.921  0.2817 -0.0597 -0.2243
 6070W        W49164  22.721  16.430  26.349 -0.0608  0.1236 -0.0198
 6071W        W49165  22.774  17.791  26.665  0.0948 -0.0956  0.5396
 6072W        W49166  23.276  16.864  25.151 -0.2814 -0.0711  0.0126
 6073W        W49167  23.242  18.170  25.457 -0.0093 -0.1476  0.0797
 6074W        W49168  23.885  15.442  26.687 -0.0643 -0.2644 -0.2467
 6075W        W49169  23.977  14.535  23.789  0.0007  0.1033  0.0496
 6076W        W49170  23.115  17.823  22.657  0.2993 -0.2892 -0.1110
 6077W        W49171  22.340  17.399  23.152 -0.0706  0.3243  0.1497
 6078W        W49172  21.683  16.251  26.548 -0.0206  0.0478 -0.1707
 6079W        W49173  22.955  16.143  23.461 -0.0290  0.1419 -0.0806
 6080W        W49174  22.871  16.934  23.242 -0.1206 -0.1247  0.2186
 6081W        W49175  22.557  15.878  26.297  0.1247 -0.1550  0.2700
 6082W        W49176  22.753  15.920  22.595 -0.0427 -0.1708 -0.2135
 6083W        W49177  25.114  15.154  24.026 -0.0810 -0.0105 -0.4450
 6084W        W49178  22.252  17.389  22.672  0.0876 -0.2616 -0.0221
 6085W        W49179  23.034  14.795  24.069  0.2261 -0.1863  0.0111
 6086W        W49180  20.847  15.420  25.948  0.1197  0.0398  0.0333
 6087W        W49181  24.233  15.294  24.963  0.0687 -0.0446 -0.0669
 6088W        W49182  24.769  16.383  23.565 -0.0495  0.1884  0.1549
 6089W        W49183  21.042  15.058  25.682 -0.1759  0.3617 -0.2838
 6090W        W49184  22.832  14.561  25.837 -0.2048 -0.1157 -0.0529
 6091W        W49185  22.607  18.261  25.712 -0.0121  0.2206  0.0112
 6092W        W49186  24.444  16.539  26.486  0.3031  0.0964  0.2547
 6093W        W49187  24.691  15.163  24.655 -0.0636  0.2836  0.1584
 6094W        W49188  25.298  18.383  26.569  0.1448 -0.1800  0.3114
 6095W        W49189  23.118  16.403  27.181  0.3684  0.0109  0.1294
 6096W        W49190  23.536  16.194  24.186 -0.0796  0.0271  0.0661
 6097W        W49191  23.873  15.819  27.108  0.2828  0.1357  0.0385
 6098W        W49192  22.135  15.152  23.936  0.0935 -0.0036 -0.1994
 6099W        W49193  22.096  17.350  24.180 -0.2449 -0.1995  0.0247
 6100W        W49194  24.064  17.658  25.446  0.1616  0.1281 -0.0391
 6101W        W49195  22.553  16.513  23.439 -0.3102  0.0994 -0.0895
 6102W        W49196  22.541  17.154  24.127  0.2397 -0.0598 -0.1445
 6103W        W49197  23.069  16.061  26.293 -0.2251  0.1568 -0.4112
 6104W        W49198  24.633  17.640  27.085  0.1508  0.1350  0.2564
 6105W        W49199  22.235  14.757  24.323 -0.0183 -0.0886 -0.0315
 6106W        W49200  22.121  15.637  23.730  0.2822  0.3911  0.2660
 6107W        W49201  22.759  15.773  25.847 -0.2783  0.3153 -0.0844
 6108W        W49202  25.803  17.003  27.207  0.1699  0.0451  0.1625
 6109W        W49203  25.153  15.509  26.013  0.0048 -0.4833  0.0913
 6110W        W49204  22.326  15.420  27.367  0.1597  0.0514 -0.0270
 6111W        W49205  23.396  15.481  25.099  0.0736  0.2600  0.2314
 6112W        W49206  24.499  20.085  24.893  0.3920  0.4107  0.4030
 6113W        W49207  25.285  16.132  26.996  0.1673  0.0665  0.1736
 6114W        W49208  23.058  16.083  23.962 -0.2506 -0.2575 -0.1295
 6115W        W49209  22.268  16.913  23.375  0.0121  0.3834  0.1278
 6116W        W49210  23.864  18.013  23.349  0.2010 -0.1703  0.2587
 6117W        W49211  22.494  15.398  25.542  0.0115 -0.1202 -0.2165
 6118W        W49212  23.137  17.323  24.727 -0.0422 -0.0036 -0.0848
 6119W        W49213  23.543  15.318  22.081  0.0218  0.5576 -0.0069
 6120W        W49214  22.560  18.601  24.798 -0.1203  0.1718 -0.1033
 6121W        W49215  24.779  15.621  26.400  0.4308  0.0198 -0.1835
 6122W        W49216  23.836  17.184  24.381  0.0924 -0.0910  0.3138
 6123W        W49217  23.660  16.601  24.955 -0.0506 -0.0581  0.0668
 6124W        W49218  26.212  16.527  26.935 -0.0154  0.1722  0.2608
 6125W        W49219  23.567  16.521  23.765 -0.0738 -0.2203 -0.1751
 6126W        W49220  24.427  15.825  27.239 -0.0012  0.0866  0.1931
 6127W        W49221  21.685  16.728  26.201 -0.0894 -0.0707 -0.2436
 6128W        W49222  25.260  18.624  24.614  0.0043 -0.0907 -0.5957
 6129W        W49223  20.152  14.600  25.165 -0.2871  0.2112  0.1165
 6130W        W49224  23.798  17.939  27.557  0.2342  0.1775 -0.1007
 6131W        W49225  22.062  16.426  27.101 -0.0118  0.0935 -0.0043
 6132W        W49226  23.477  16.099  25.236  0.0886 -0.3321  0.0829
 6133W        W49227  23.315  14.072  23.380  0.0270  0.6214 -0.0842
 6134W        W49228  22.775  16.834  25.136 -0.1410 -0.1314 -0.0505
 6135W        W49229  24.584  17.991  25.766 -0.3082  0.2144 -0.0128
 6136W        W49230  23.364  17.649  23.661 -0.2063 -0.0258  0.1476
 6137W        W49231  25.077  17.021  25.742  0.1823  0.0976 -0.2050
 6138W        W49232  22.740  14.678  25.333 -0.1146 -0.2897  0.1315
 6139W        W49233  25.778  16.747  25.167  0.1412 -0.2180  0.0529
 6140W        W49234  23.914  16.020  23.736 -0.0342 -0.0567 -0.2135
 6141W        W49235  23.229  17.808  24.493 -0.1652 -0.0629  0.1331
 6142W        W49236  21.983  15.322  25.765  0.4415  0.1227 -0.0675
 6143W        W49237  25.078  18.057  25.658 -0.4191  0.1567 -0.3185
 6144W        W49238  24.340  16.000  26.448 -0.0224 -0.6794  0.0742
 6145W        W49239  23.416  15.717  26.354 -0.0327 -0.0372 -0.2029
 6146W        W49240  24.549  17.127  26.264 -0.1230  0.3262 -0.1346
 6147W        W49241  22.550  16.521  26.899 -0.1084 -0.1641 -0.0769
 6148W        W49242  22.617  14.652  26.722  0.4621  0.1446  0.1547
 6149W        W49243  25.856  18.251  26.325  0.3640  0.2645  0.0639
 6150W        W49244  24.874  16.443  25.095  0.2473 -0.1082 -0.0015
 6151W        W49245  25.758  13.332  27.098  0.0026 -0.0854  0.3975
 6152W        W49246  26.165  15.599  26.278 -0.0642  0.1207 -0.1292
 6153W        W49247  24.612  16.102  24.305  0.1110  0.1595 -0.2763
 6154W        W49248  21.273  16.274  26.150  0.0408 -0.1061 -0.0945
 6155W        W49249  24.821  16.893  27.510 -0.0627 -0.0960  0.0608
 6156W        W49250  23.107  15.868  24.903 -0.2869 -0.0169 -0.1358
 6157W        W49251  23.531  15.384  27.083 -0.0857  0.1074  0.1330
 6158W        W49252  22.865  17.480  22.994  0.0467  0.2137  0.2060
 6159W        W49253  24.769  18.036  25.166  0.0195  0.2448  0.0578
 6160W        W49254  24.684  16.367  26.048 -0.2328  0.3119 -0.4454
 6161W        W49255  22.646  16.223  24.860 -0.0008 -0.2291 -0.1681
 6162W        W49256  21.494  17.523  25.547  0.1638  0.0110  0.2902
 6163W        W49257  23.751  15.353  24.000 -0.3065  0.1543 -0.1577
 6164W        W49258  23.339  17.023  23.795  0.0189  0.0479  0.2191
 6165W        W49259  22.772  15.140  26.765 -0.0035 -0.0939  0.1207
 6166W        W49260  25.840  16.210  28.269 -0.3190 -0.1500 -0.1380
 6167W        W49261  24.806  14.858  23.502 -0.3137  0.1613 -0.0426
 6168W        W49262  23.543  16.781  26.389  0.1413 -0.1630  0.0228
 6169W        W49263  23.770  17.701  22.362  0.3346  0.3024  0.1238
 6170W        W49264  24.044  13.224  24.377 -0.2366  0.2769 -0.3643
 6171W        W49265  23.655  17.573  24.680 -0.0001 -0.0378 -0.0528
 6172W        W49266  22.410  17.586  25.246 -0.1054 -0.1756  0.1209
 6173W        W49267  22.751  17.541  24.351  0.3096  0.2925 -0.0318
 6174W        W49268  23.277  15.162  26.206  0.0695 -0.0563  0.4250
 6175W        W49269  25.690  14.015  26.185 -0.1837 -0.1499 -0.0182
 6176W        W49270  24.318  16.647  25.064 -0.1197 -0.2662 -0.1477
 6177W        W49271  24.869  14.841  27.449  0.1225 -0.2216 -0.1395
 6178W        W49272  23.385  16.474  26.063  0.1408  0.0629  0.0189
 6179W        W49273  21.665  15.830  23.764  0.1696  0.0615  0.1470
 6180W        W49274  25.095  17.720  27.013 -0.3208 -0.0735 -0.0113
 6181W        W49275  25.643  17.906  25.609 -0.1309  0.0868 -0.2208
 6182W        W49276  22.331  16.662  24.948 -0.0968 -0.1304  0.0045
 6183W        W49277  23.141  15.022  27.083  0.0007 -0.0563  0.2996
 6184W        W49278  22.997  16.587  27.902  0.2397 -0.2410 -0.1842
 6185W        W49279  26.071  16.881  25.537  0.0069  0.2442 -0.0450
 6186W        W49280  22.273  14.820  23.422 -0.2138 -0.1215  0.0591
 6187W        W49281  22.646  16.430  22.448 -0.2279 -0.1752 -0.0792
 6188W        W49282  21.411  18.001  25.850 -0.1178  0.1156 -0.0399
 6189W        W49283  22.672  16.955  23.698 -0.2403  0.2366 -0.1062
 6190W        W49284  22.812  17.296  22.506  0.1089 -0.6220  0.2611
 6191W        W49285  26.129  18.643  23.903 -0.1346  0.0030  0.1145
 6192W        W49286  24.644  18.524  24.874 -0.0654  0.2716  0.2368
 6193W        W49287  25.381  19.206  25.144 -0.1378  0.1498  0.0512
 6194W        W49288  23.400  16.311  23.141  0.1036  0.1951 -0.2057
 6195W        W49289  23.056  18.582  25.029  0.4494 -0.0324  0.2865
 6196W        W49290  22.476  17.233  21.434 -0.0599  0.0579 -0.2028
 6197W        W49291  23.919  17.187  22.927 -0.1481  0.1007 -0.2935
 6198W        W49292  22.305  17.760  24.027  0.1658  0.0227 -0.1419
 6199W        W49293  23.630  16.290  27.270 -0.1605 -0.3450  0.3585
 6200W        W49294  25.070  15.879  25.620  0.1176  0.1673  0.0046
 6201W        W49295  24.873  18.497  25.433  0.0035 -0.1433 -0.1767
 6202W        W49296  25.901  16.732  26.506 -0.1631 -0.0100  0.1104
 6203W        W49297  24.348  17.872  27.777 -0.5555 -0.3452  0.1066
 6204W        W49298  24.600  17.236  25.752  0.0290 -0.0507  0.1290
 6205W        W49299  22.800  15.156  22.756 -0.0317 -0.1459  0.0613
 6206W        W49300  22.073  16.630  25.854 -0.1911 -0.2394  0.1694
 6207W        W49301  26.141  14.393  27.368 -0.0320 -0.0146  0.0376
 6208W        W49302  21.719  17.078  25.810  0.2916 -0.0327  0.2332
 6209W        W49303  23.805  17.289  23.839 -0.1232 -0.2506  0.2355
 6210W        W49304  21.979  16.529  23.140 -0.1071 -0.2254 -0.0471
 6211W        W49305  23.328  17.339  26.168  0.1779  0.3053 -0.2603
 6212W        W49306  23.663  14.902  25.857 -0.1769  0.0521 -0.0275
 6213W        W49307  22.919  16.413  22.925  0.1019 -0.1705  0.2187
 6214W        W49308  23.213  14.577  25.517 -0.0517 -0.2003 -0.1182
 6215W        W49309  22.544  18.864  23.682 -0.2546 -0.1225  0.0081
 6216W        W49310  22.894  17.806  25.453  0.2071  0.1575 -0.1864
 6217W        W49311  24.304  18.479  26.299 -0.1874 -0.3107  0.0963
 6218W        W49312  21.949  14.678  23.038 -0.0513  0.0873  0.0706
 6219W        W49313  25.759  15.868  26.402  0.1477 -0.0059 -0.3171
 6220W        W49314  21.744  16.239  26.054 -0.2243 -0.0001 -0.0800
 6221W        W49315  25.014  14.861  26.611 -0.1423 -0.0650  0.2766
 6222W        W49316  22.585  17.126  25.493 -0.2104 -0.0659  0.2924
 6223W        W49317  24.447  16.204  25.359 -0.2429  0.2818  0.3947
 6224W        W49318  22.394  17.369  26.219 -0.1245 -0.1576 -0.0272
 6225W        W49319  20.862  16.850  25.212  0.0822  0.3299 -0.2044
 6226W        W49320  23.073  18.211  24.080  0.0979 -0.2054 -0.1930
 6227W        W49321  27.053  15.922  26.792 -0.0174 -0.0257  0.0973
 6228W        W49322  24.217  16.546  22.121  0.1396 -0.2982  0.0286
 6229W        W49323  24.065  17.059  26.294 -0.0274 -0.1712 -0.0243
 6230W        W49324  22.638  15.060  24.219  0.0579 -0.1064 -0.0042
 6231W        W49325  24.543  16.625  24.608  0.0925 -0.1129  0.1032
 6232W        W49326  21.623  16.108  25.223  0.1657  0.1799 -0.0451
 6233W        W49327  22.702  16.931  26.482 -0.1565 -0.0357  0.0530
 6234W        W49328  24.400  19.220  27.533  0.1058  0.0721  0.0396
 6235W        W49329  23.648  14.863  23.990  0.1030 -0.2703 -0.1145
 6236W        W49330  26.077  18.693  24.927 -0.0107 -0.0309  0.1184
 6237W        W49331  24.725  16.697  25.602 -0.0980  0.1017 -0.0732
 6238W        W49332  23.377  17.108  21.529  0.0988 -0.0856  0.1063
 6239W        W49333  25.509  17.193  24.582  0.0782  0.0449 -0.0884
 6240W        W49334  25.150  18.354  25.038 -0.0025  0.1104  0.5110
 6241W        W49335  21.896  15.175  25.272  0.0501  0.0662 -0.3082
 6242W        W49336  23.726  18.153  26.312 -0.3134 -0.1171 -0.1340
 6243W        W49337  27.080  17.983  26.588  0.1330  0.0555  0.0011
 6244W        W49338  24.613  14.474  24.803 -0.0333  0.1227 -0.2865
 6245W        W49339  22.598  15.799  25.257 -0.0533 -0.3949  0.1571
 6246W        W49340  23.278  16.507  22.376  0.1704 -0.0019  0.0867
 6247W        W49341  23.967  16.745  26.672  0.0184  0.1850 -0.0609
 6248W        W49342  24.362  16.790  25.910  0.1614 -0.0406 -0.0499
 6249W        W49343  24.134  16.630  22.768 -0.3821  0.2076 -0.1788
 6250W        W49344  23.536  14.290  28.292  0.0189 -0.4351  0.3873
 6251W        W49345  24.471  18.459  26.865 -0.2542 -0.4022  0.2626
 6252W        W49346  22.781  18.725  27.531  0.3019 -0.0492 -0.1290
 6253W        W49347  23.151  17.085  24.237  0.0545  0.0357  0.0836
 6254W        W49348  22.210  17.108  25.802 -0.0731 -0.4190 -0.0300
 6255W        W49349  23.124  16.179  24.511 -0.1380 -0.2305 -0.1099
 6256W        W49350  23.975  17.802  23.810 -0.2047 -0.2203  0.0691
 6257W        W49351  25.478  18.030  26.888  0.0137 -0.2044 -0.3640
 6258W        W49352  24.605  16.554  24.104 -0.3513  0.0514 -0.0373
 6259W        W49353  25.181  18.124  27.529  0.0612  0.0012 -0.2193
 6260W        W49354  24.629  15.880  26.005 -0.0641 -0.3304 -0.2871
 6261W        W49355  25.577  15.548  25.604 -0.2390 -0.1458 -0.1912
 6262W        W49356  23.995  16.213  25.131 -0.0819  0.2418  0.2484
 6263W        W49357  22.994  16.823  25.630 -0.0940 -0.1350  0.3096
 6264W        W49358  22.771  18.006  23.043 -0.1069  0.1409 -0.0563
 6265W        W49359  22.526  16.030  21.541  0.1603  0.2215  0.2174
 6266W        W49360  22.388  15.656  24.137  0.2019 -0.0002 -0.1265
 6267W        W49361  23.113  14.783  28.051  0.1609 -0.1370  0.0346
 6268W        W49362  21.955  16.221  25.626 -0.2242  0.0192  0.2124
 6269W        W49363  22.128  16.191  24.104  0.0554 -0.2176  0.0049
 6270W        W49364  21.019  16.552  24.867  0.2827  0.0731 -0.1631
 6271W        W49365  26.124  19.278  24.544  0.1959 -0.2257  0.0931
 6272W        W49366  21.499  15.347  25.726  0.3416 -0.0413  0.3907
 6273W        W49367  21.769  14.061  24.739  0.1720  0.2915 -0.0675
 6274W        W49368  24.527  17.499  25.305  0.3888 -0.2003  0.2958
 6275W        W49369  24.634  18.136  24.484  0.0901 -0.1538  0.1650
 6276W        W49370  23.377  14.033  25.502 -0.1471  0.1391  0.1565
 6277W        W49371  24.224  18.017  28.930  0.3105 -0.0699  0.1487
 6278W        W49372  21.894  17.062  22.495 -0.2697 -0.0857 -0.0744
 6279W        W49373  23.470  16.297  26.615 -0.1004 -0.1358 -0.0866
 6280W        W49374  22.822  15.013  26.219 -0.1777  0.3318 -0.3018
 6281W        W49375  22.752  15.471  22.383  0.0664 -0.3278 -0.2254
 6282W        W49376  22.226  15.475  24.978 -0.0799 -0.0742 -0.0289
 6283W        W49377  25.068  18.527  24.201 -0.1954 -0.1024 -0.1457
 6284W        W49378  23.379  18.601  24.454  0.2976  0.1392  0.4970
 6285W        W49379  22.501  16.619  25.459 -0.0286 -0.1551 -0.2198
 6286W        W49380  23.867  18.249  27.195 -0.2579  0.2030 -0.1152
 6287W        W49381  21.246  14.249  26.255  0.3463 -0.1454 -0.0806
 6288W        W49382  24.524  17.186  24.922  0.0028  0.3901  0.1138
 6289W        W49383  23.206  18.165  26.165 -0.1718  0.2015 -0.2827
 6290W        W49384  26.129  18.126  24.098  0.0330 -0.0083  0.2293
 6291W        W49385  25.651  15.749  26.962  0.6284  0.2695  0.1496
 6292W        W49386  23.445  16.555  24.536  0.1936  0.3310 -0.0030
 6293W        W49387  22.922  15.489  26.351  0.1545  0.2603 -0.1125
 6294W        W49388  22.876  16.759  27.494  0.2048 -0.3112 -0.1766
 6295W        W49389  23.610  17.098  24.831 -0.2235 -0.0262 -0.0715
 6296W        W49390  23.360  15.220  25.502 -0.1844  0.0226  0.0077
 6297W        W49391  24.119  15.558  24.551 -0.0750 -0.0017 -0.3921
 6298W        W49392  23.678  17.239  22.468 -0.0851 -0.2375 -0.2553
 6299W        W49393  21.892  16.544  24.402 -0.4979 -0.0082 -0.1525
 6300W        W49394  23.450  15.750  24.001  0.0063  0.2591  0.0590
 6301W        W49395  22.156  17.368  27.164 -0.0525  0.1570  0.0641
 6302W        W49396  23.006  17.299  25.238  0.0526 -0.3181 -0.2292
 6303W        W49397  23.504  16.754  26.948  0.1380  0.3204  0.3292
 6304W        W49398  22.183  16.107  24.633 -0.2525  0.1803  0.1636
 6305W        W49399  25.800  17.613  25.222  0.0369 -0.2592  0.3105
 6306W        W49400  23.876  17.195  25.388  0.2203 -0.0822  0.0600
 6307W        W49401  24.405  18.675  27.356  0.1275 -0.4295  0.0945
 6308W        W49402  24.552  17.949  26.701  0.1544  0.0330  0.2199
 6309W        W49403  24.451  17.200  27.260  0.1886  0.4280 -0.2499
 6310W        W49404  21.413  14.516  26.693 -0.3507 -0.3081 -0.0044
 6311W        W49405  21.063  16.635  23.354  0.2839  0.1350 -0.1026
 6312W        W49406  24.152  16.526  23.798  0.1754 -0.1291 -0.0822
 6313W        W49407  24.212  14.362  26.143 -0.1306  0.1240  0.1290
 6314W        W49408  21.834  15.808  24.854 -0.0432 -0.0803 -0.1642
 6315W        W49409  23.300  14.735  24.654  0.2346  0.0399 -0.0277
 6316W        W49410  22.766  17.396  25.872 -0.0144  0.3174 -0.0974
 6317W        W49411  25.123  17.327  26.284 -0.1074 -0.1451  0.2378
 6318W        W49412  22.497  15.996  30.558 -0.1754  0.1698 -0.0094
 6319W        W49413  23.357  15.151  27.821 -0.0554  0.0302 -0.0570
 6320W        W49414  24.250  15.484  27.703 -0.0310  0.1455  0.4950
 6321W        W49415  24.456  17.226  27.821  0.1585  0.2707  0.1571
 6322W        W49416  22.271  14.858  28.413 -0.2375 -0.0577 -0.0890
 6323W        W49417  25.390  18.874  27.749  0.0889  0.2451 -0.3317
 6324W        W49418  23.252  14.124  29.609  0.0944  0.1088  0.0264
 6325W        W49419  23.119  18.262  30.934  0.0282 -0.0960 -0.2388
 6326W        W49420  24.900  16.971  29.557  0.0807  0.3465  0.2205
 6327W        W49421  23.913  16.683  27.259  0.2624 -0.0129  0.0676
 6328W        W49422  22.838  16.667  31.422 -0.3557 -0.5073 -0.1081
 6329W        W49423  23.316  16.764  30.899  0.1452  0.1643 -0.2380
 6330W        W49424  24.067  14.170  28.287 -0.1141 -0.2879  0.0380
 6331W        W49425  20.886  15.286  29.868  0.0525 -0.1132  0.0864
 6332W        W49426  23.135  17.183  28.812 -0.0679 -0.2128 -0.0305
 6333W        W49427  21.625  16.668  27.090  0.3488 -0.1500  0.4003
 6334W        W49428  23.388  15.535  30.312  0.2785  0.2658 -0.3342
 6335W        W49429  22.876  15.375  28.758  0.3399 -0.1430 -0.3309
 6336W        W49430  22.797  18.260  28.394  0.0983  0.2307 -0.2765
 6337W        W49431  22.860  16.323  30.483  0.1154 -0.2597  0.3135
 6338W        W49432  22.782  14.893  30.616 -0.1544  0.3406  0.5495
 6339W        W49433  23.537  17.985  26.788 -0.2001 -0.0216 -0.0335
 6340W        W49434  22.398  15.374  26.064  0.1305  0.2759 -0.0884
 6341W        W49435  20.854  15.104  28.638 -0.1343 -0.0572  0.3386
 6342W        W49436  22.170  15.696  29.269  0.1323  0.1175  0.2654
 6343W        W49437  24.922  15.653  30.066  0.2327 -0.0162  0.0487
 6344W        W49438  23.334  17.624  29.021  0.0884  0.1092 -0.0493
 6345W        W49439  22.020  19.021  28.079  0.2107 -0.1353  0.0896
 6346W        W49440  21.086  18.034  28.170 -0.2718  0.1699 -0.2459
 6347W        W49441  23.776  15.323  30.615 -0.1723 -0.3572 -0.3991
 6348W        W49442  20.977  16.527  28.369 -0.0679  0.0293  0.0533
 6349W        W49443  22.108  17.809  29.824 -0.0808  0.1045 -0.1315
 6350W        W49444  22.104  17.407  27.706  0.1574  0.0949  0.1946
 6351W        W49445  24.509  17.337  29.596 -0.1610 -0.1349 -0.2150
 6352W        W49446  24.551  17.513  28.781  0.1259 -0.0384  0.1386
 6353W        W49447  23.534  17.087  30.481 -0.2975 -0.0105  0.0273
 6354W        W49448  21.518  17.200  28.071 -0.0748 -0.1271  0.0920
 6355W        W49449  22.989  18.731  29.615 -0.0478 -0.1580  0.0719
 6356W        W49450  24.451  16.703  30.618 -0.2261  0.1258 -0.0531
 6357W        W49451  23.369  15.599  30.831  0.0693  0.2574 -0.1404
 6358W        W49452  24.393  15.868  28.556  0.2436  0.2250  0.0319
 6359W        W49453  22.529  18.875  27.985 -0.2181  0.2091 -0.3677
 6360W        W49454  21.432  17.271  29.182 -0.0603  0.0637 -0.0063
 6361W        W49455  22.975  16.836  30.417  0.2216  0.5476 -0.1986
 6362W        W49456  21.666  15.743  28.304  0.0384 -0.1375 -0.0754
 6363W        W49457  25.657  16.432  30.949 -0.0823  0.0789 -0.0110
 6364W        W49458  21.746  18.024  27.640 -0.3085  0.1178 -0.0413
 6365W        W49459  23.995  15.082  28.411 -0.1057 -0.2086 -0.0532
 6366W        W49460  23.195  15.548  25.916 -0.0222  0.0420 -0.0487
 6367W        W49461  25.164  16.157  28.696  0.0897  0.0375  0.1172
 6368W        W49462  22.387  13.835  29.734 -0.0755  0.1181 -0.1190
 6369W        W49463  21.504  16.800  29.772 -0.1976 -0.3426  0.0984
 6370W        W49464  22.046  15.771  29.826 -0.1051 -0.3344 -0.0120
 6371W        W49465  23.690  18.143  29.560 -0.0841 -0.1603  0.0174
 6372W        W49466  22.418  16.840  27.762  0.0358 -0.0496 -0.0883
 6373W        W49467  24.128  16.327  29.679  0.0034  0.1857  0.1082
 6374W        W49468  21.520  16.847  30.748  0.1194 -0.0035 -0.0424
 6375W        W49469  21.320  16.565  27.504 -0.1753  0.0564 -0.1685
 6376W        W49470  24.912  17.860  27.846 -0.1116 -0.0743 -0.2783
 6377W        W49471  25.022  17.753  28.773  0.0296 -0.0062 -0.1039
 6378W        W49472  23.957  17.529  27.781  0.1448  0.1371  0.1297
 6379W        W49473  22.073  16.859  27.385  0.1181  0.1391 -0.0508
 6380W        W49474  21.858  15.574  31.208  0.0777 -0.0360  0.0701
 6381W        W49475  20.785  17.433  30.650  0.2580  0.0366  0.0539
 6382W        W49476  22.810  14.565  29.032  0.2375  0.1845 -0.0571
 6383W        W49477  24.870  16.912  30.364 -0.1250 -0.0433  0.2110
 6384W        W49478  21.873  16.732  29.240  0.2985 -0.0100  0.3176
 6385W        W49479  26.261  16.174  28.592  0.0558  0.3006  0.0565
 6386W        W49480  21.655  17.722  28.998 -0.1786 -0.2389 -0.0032
 6387W        W49481  23.877  17.245  29.273 -0.3398  0.0917  0.0960
 6388W        W49482  24.082  16.761  28.197  0.0143 -0.0384  0.2752
 6389W        W49483  24.354  15.207  29.790  0.1054  0.0784 -0.2314
 6390W        W49484  24.348  14.818  30.792  0.1507  0.0018  0.1323
 6391W        W49485  22.455  17.737  25.737  0.0301 -0.4203 -0.0126
 6392W        W49486  23.324  16.248  27.673 -0.0484  0.0157  0.0048
 6393W        W49487  24.883  16.659  29.024  0.0080 -0.0962 -0.2548
 6394W        W49488  23.846  16.499  27.724  0.1601 -0.1606  0.0366
 6395W        W49489  20.961  17.585  28.484  0.1523 -0.1100 -0.2977
 6396W        W49490  24.290  15.475  31.723  0.0633  0.0942  0.0048
 6397W        W49491  24.276  17.188  31.008 -0.1441  0.4733  0.0420
 6398W        W49492  22.159  18.400  26.912 -0.1930 -0.2181  0.0093
 6399W        W49493  20.749  15.749  29.978  0.0914  0.0541  0.3150
 6400W        W49494  22.851  16.195  27.679  0.2472  0.3263  0.1206
 6401W        W49495  21.702  14.857  28.931 -0.0334 -0.2357  0.0293
 6402W        W49496  21.756  15.450  29.025 -0.2236 -0.2789  0.0930
 6403W        W49497  25.610  14.479  29.269 -0.6324  0.4353  0.2353
 6404W        W49498  22.557  13.519  30.108 -0.0266  0.5083  0.0625
 6405W        W49499  25.512  13.996  30.141  0.1388 -0.2176  0.0547
 6406W        W49500  21.921  17.726  28.050 -0.1525  0.2037  0.0511
 6407W        W49501  23.602  17.304  28.728  0.4665 -0.1128  0.3277
 6408W        W49502  25.004  15.844  27.805  0.0837 -0.1078 -0.0577
 6409W        W49503  25.613  18.127  28.128 -0.0445  0.1472  0.0278
 6410W        W49504  22.344  17.199  30.639 -0.2492 -0.0574 -0.0507
 6411W        W49505  20.686  16.833  28.010  0.1370 -0.1101  0.2503
 6412W        W49506  22.120  15.293  30.132 -0.1624  0.2138 -0.1413
 6413W        W49507  21.976  15.305  28.580 -0.1790  0.2895 -0.0806
 6414W        W49508  24.555  16.147  31.263 -0.1337 -0.0552  0.3470
 6415W        W49509  21.921  15.590  27.840  0.0849  0.1228 -0.0097
 6416W        W49510  24.576  16.555  29.560 -0.2502 -0.1657  0.1297
 6417W        W49511  22.305  17.195  29.194 -0.0353  0.2502 -0.1353
 6418W        W49512  21.301  17.116  27.059  0.2288  0.1661 -0.3896
 6419W        W49513  23.635  16.083  30.967  0.0136 -0.0727  0.2832
 6420W        W49514  23.861  18.891  29.294  0.4653 -0.1605  0.0902
 6421W        W49515  24.387  16.679  28.657 -0.0265 -0.2528 -0.1105
 6422W        W49516  23.988  17.709  29.617 -0.2365  0.1896 -0.1562
 6423W        W49517  21.810  13.698  29.627  0.0176  0.0839 -0.4657
 6424W        W49518  22.031  16.064  28.024 -0.1388  0.1562 -0.0764
 6425W        W49519  22.463  19.142  27.587  0.0362  0.0330  0.3023
 6426W        W49520  22.003  16.513  28.685  0.3726 -0.1492  0.0614
 6427W        W49521  21.304  15.442  29.632 -0.0552  0.0242  0.1711
 6428W        W49522  26.487  17.865  29.841 -0.1145  0.0180  0.0101
 6429W        W49523  23.573  15.374  28.388  0.0900 -0.2045 -0.1286
 6430W        W49524  21.149  16.952  27.778  0.2858 -0.0826  0.2957
 6431W        W49525  23.576  14.725  30.815  0.0589  0.0981  0.0152
 6432W        W49526  24.546  16.075  30.714  0.2055  0.2208  0.2042
 6433W        W49527  23.371  16.203  30.549 -0.1121 -0.1335  0.1242
 6434W        W49528  22.208  15.835  27.058 -0.0468  0.1784 -0.3519
 6435W        W49529  25.111  18.289  28.846 -0.1238 -0.0469  0.1865
 6436W        W49530  21.452  18.574  28.640  0.0036 -0.0381 -0.2067
 6437W        W49531  21.736  15.163  27.712 -0.1295  0.2868 -0.2278
 6438W        W49532  21.977  18.572  28.416 -0.1504  0.1908 -0.1264
 6439W        W49533  24.033  16.055  28.881 -0.1031  0.3401 -0.1134
 6440W        W49534  22.186  14.390  30.427 -0.1168 -0.0211  0.1101
 6441W        W49535  23.600  16.121  29.650  0.0530  0.1502  0.1505
 6442W        W49536  22.967  15.756  26.787  0.5057 -0.0804  0.1424
 6443W        W49537  21.857  17.238  28.969  0.1922 -0.3158  0.0578
 6444W        W49538  22.097  15.114  29.286 -0.3545  0.0133 -0.4104
 6445W        W49539  25.304  15.429  27.579  0.0770 -0.2654  0.0480
 6446W        W49540  23.294  16.448  29.762  0.0137  0.2779 -0.0280
 6447W        W49541  25.322  17.507  28.313  0.1432 -0.0915  0.1461
 6448W        W49542  23.060  15.867  27.948 -0.0482  0.2757 -0.1111
 6449W        W49543  23.739  15.486  27.503  0.1115  0.2843 -0.1071
 6450W        W49544  22.054  15.837  30.351  0.0237  0.1025 -0.1120
 6451W        W49545  21.697  16.269  28.367  0.0550  0.0657  0.0182
 6452W        W49546  22.255  17.177  28.217  0.1820  0.3494  0.1803
 6453W        W49547  22.321  16.061  26.661  0.0692  0.0601  0.2773
 6454W        W49548  25.894  18.015  29.625 -0.0876 -0.2915  0.1842
 6455W        W49549  21.999  16.961  30.301 -0.0120  0.1552 -0.1599
 6456W        W49550  24.441  17.190  30.503 -0.0797  0.1139 -0.0291
 6457W        W49551  22.434  17.622  29.386  0.4661 -0.2507  0.1910
 6458W        W49552  24.658  15.581  29.530 -0.0191  0.0708 -0.1145
 6459W        W49553  22.951  16.246  26.748 -0.2865  0.1361  0.0695
 6460W        W49554  25.561  14.607  28.644  0.0899 -0.1300  0.5150
 6461W        W49555  22.686  17.996  26.224 -0.1231 -0.1931 -0.1429
 6462W        W49556  23.857  16.340  29.230  0.2538  0.1022  0.0865
 6463W        W49557  23.549  15.201  31.052 -0.3273  0.3860 -0.1240
 6464W        W49558  24.656  15.166  31.337 -0.0023  0.3185  0.0846
 6465W        W49559  25.646  15.732  31.124  0.2472  0.0319 -0.1502
 6466W        W49560  22.467  16.408  27.957  0.1396  0.0822 -0.4475
 6467W        W49561  23.643  15.873  28.550 -0.0672 -0.0583 -0.0700
 6468W        W49562  22.607  15.870  28.071  0.2232 -0.1612 -0.2612
 6469W        W49563  22.920  15.276  30.254  0.1632 -0.1009 -0.1243
 6470W        W49564  23.093  17.310  30.374 -0.5252 -0.0550  0.0649
 6471W        W49565  21.898  17.510  29.456 -0.0882  0.1674  0.1549
 6472W        W49566  24.040  16.822  30.406 -0.0961  0.3386 -0.0787
 6473W        W49567  23.051  16.752  28.542 -0.0444  0.3704  0.3263
 6474W        W49568  24.814  14.722  31.084  0.2900  0.0520  0.0489
 6475W        W49569  24.349  15.403  26.313 -0.3306  0.2308 -0.0339
 6476W        W49570  22.226  18.178  25.276 -0.0465 -0.1747 -0.0867
 6477W        W49571  22.515  17.751  27.905  0.0257  0.2611  0.1606
 6478W        W49572  23.080  15.443  29.289  0.0047  0.0551 -0.0319
 6479W        W49573  22.296  18.399  28.958 -0.2248  0.0143  0.1395
 6480W        W49574  24.187  17.581  26.557 -0.0118  0.1744 -0.0254
 6481W        W49575  23.565  17.610  30.556 -0.2706  0.0285  0.0677
 6482W        W49576  22.319  18.490  26.149  0.0375  0.2763  0.0948
 6483W        W49577  25.254  16.137  31.017 -0.1383  0.0918 -0.2053
 6484W        W49578  20.283  18.102  29.058  0.3081  0.2506  0.1062
 6485W        W49579  22.923  15.135  25.737 -0.2369 -0.0085 -0.0263
 6486W        W49580  21.652  16.169  27.379 -0.0086 -0.1418  0.0305
 6487W        W49581  25.107  15.845  29.612  0.0302 -0.2635 -0.1877
 6488W        W49582  24.722  17.682  28.332  0.0513  0.1728  0.2421
 6489W        W49583  20.577  15.430  27.909  0.3273 -0.1549  0.0000
 6490W        W49584  22.495  15.784  30.087 -0.2229 -0.2397 -0.0458
 6491W        W49585  22.182  18.344  29.807  0.2323  0.0157 -0.4075
 6492W        W49586  24.523  16.738  31.219 -0.0169 -0.1949  0.0002
 6493W        W49587  24.626  15.717  28.087  0.2320  0.1388 -0.2672
 6494W        W49588  23.946  16.793  29.020 -0.0782  0.0334  0.3249
 6495W        W49589  22.265  15.833  31.061 -0.2216 -0.0973 -0.0801
 6496W        W49590  20.413  15.813  28.281  0.1070 -0.2292 -0.0490
 6497W        W49591  24.762  15.198  30.096  0.1720  0.0528 -0.2039
 6498W        W49592  22.382  16.552  29.091  0.1137 -0.0516  0.1851
 6499W        W49593  21.390  17.251  28.620  0.0523 -0.1546  0.0204
 6500W        W49594  23.063  17.784  30.122  0.2861  0.2691 -0.2918
 6501W        W49595  22.873  16.286  28.266  0.4483  0.0394 -0.0779
 6502W        W49596  22.687  16.850  28.172 -0.4185 -0.0188  0.0651
 6503W        W49597  22.616  15.548  31.360 -0.2549  0.2952 -0.0107
 6504W        W49598  23.759  15.896  30.441  0.1386 -0.2900 -0.0340
 6505W        W49599  23.274  15.023  29.789  0.0310  0.3265 -0.2995
 6506W        W49600  21.579  15.888  29.213 -0.0634 -0.3535 -0.1084
 6507W        W49601  20.898  16.170  29.092  0.0449 -0.2147 -0.0391
 6508W        W49602  23.422  18.147  29.154 -0.1055 -0.0113 -0.0860
 6509W        W49603  24.649  14.389  30.678  0.1686  0.1613  0.0279
 6510W        W49604  22.069  17.381  31.072 -0.3405  0.2564 -0.1085
 6511W        W49605  23.639  13.767  29.542 -0.3007 -0.0262 -0.1695
 6512W        W49606  25.414  17.466  28.837 -0.1945 -0.4259  0.1078
 6513W        W49607  23.550  15.030  30.300  0.2549 -0.2536 -0.2535
 6514W        W49608  22.766  15.428  27.147 -0.1013  0.0707  0.3210
 6515W        W49609  21.338  14.376  29.037  0.3502  0.2850 -0.0316
 6516W        W49610  22.667  17.740  27.388 -0.3532  0.2880 -0.0829
 6517W        W49611  24.136  15.214  30.996  0.1425  0.0458  0.0973
 6518W        W49612  21.755  18.409  29.057  0.0731  0.2083 -0.1103
 6519W        W49613  22.614  17.305  27.638  0.0020 -0.2380 -0.1318
 6520W        W49614  21.804  17.252  30.640 -0.3527  0.0510 -0.0784
 6521W        W49615  25.032  15.218  27.225  0.2211  0.2090  0.0631
 6522W        W49616  23.334  17.095  28.306 -0.3424  0.0887 -0.0557
 6523W        W49617  23.328  15.967  30.040  0.2720 -0.0317  0.1715
 6524W        W49618  24.363  15.284  30.390  0.1609 -0.0217  0.0409
 6525W        W49619  23.587  17.603  27.196 -0.3512  0.4130  0.2098
 6526W        W49620  25.158  14.964  30.872 -0.0910  0.1261 -0.3382
 6527W        W49621  23.110  15.479  29.821 -0.0839  0.3436  0.1241
 6528W        W49622  23.866  17.860  28.120  0.1687  0.1867  0.1540
 6529W        W49623  21.678  15.481  30.128  0.2731  0.1433  0.3539
 6530W        W49624  23.765  18.819  30.825 -0.0225 -0.0152 -0.0380
 6531W        W49625  22.719  17.447  30.868  0.0571  0.0738  0.1502
 6532W        W49626  25.218  14.248  29.751 -0.0817  0.0917  0.0730
 6533W        W49627  22.958  15.374  28.058 -0.0334  0.1780  0.1118
 6534W        W49628  22.907  17.277  29.349  0.2144  0.2604 -0.3093
 6535W        W49629  24.115  17.251  28.789  0.0941 -0.2646 -0.1734
 6536W        W49630  21.871  16.873  27.904  0.0551  0.0956 -0.1914
 6537W        W49631  24.349  16.483  29.118  0.1424  0.0005  0.0701
 6538W        W49632  22.318  17.651  28.348  0.2115 -0.0296 -0.0566
 6539W        W49633  24.979  15.132  28.745  0.1081  0.0915  0.1737
 6540W        W49634  24.188  15.031  26.711 -0.0071  0.1827 -0.2126
 6541W        W49635  22.782  17.783  29.702 -0.0738  0.0277 -0.6194
 6542W        W49636  23.147  14.559  30.646 -0.2902  0.5663  0.0269
 6543W        W49637  22.922  18.373  29.331  0.0334  0.0037 -0.0246
 6544W        W49638  23.570  15.431  29.557 -0.1716 -0.0352 -0.2693
 6545W        W49639  24.117  13.965  31.332 -0.1166  0.0867  0.1804
 6546W        W49640  23.995  15.825  29.683  0.1117 -0.2590  0.1616
 6547W        W49641  23.240  15.949  28.952 -0.0116 -0.3256  0.0728
 6548W        W49642  21.400  14.561  29.587 -0.3497  0.1559  0.1718
 6549W        W49643  25.018  17.439  30.897  0.4286 -0.1433 -0.1232
 6550W        W49644  25.552  15.893  27.503 -0.3344  0.3742 -0.5142
 6551W        W49645  24.966  14.559  29.255  0.0572  0.1847  0.1060
 6552W        W49646  24.092  15.538  28.213 -0.1339 -0.0008 -0.0458
 6553W        W49647  24.453  15.020  27.896 -0.0442  0.0894  0.2166
 6554W        W49648  20.324  16.515  28.439 -0.2152 -0.2992 -0.1367
 6555W        W49649  23.890  17.223   0.182 -0.0088  0.0356  0.4431
 6556W        W49650  23.074  14.214  27.599 -0.0118  0.1979 -0.0513
 6557W        W49651  26.037  15.416  31.040  0.1376  0.0169 -0.0961
 6558W        W49652  23.731  17.404  26.710  0.0492 -0.3120  0.1924
 6559W        W49653  22.786  16.833  29.001 -0.1935 -0.2044 -0.0703
 6560W        W49654  23.363  16.301  29.237  0.3627 -0.1738  0.0776
 6561W        W49655  21.701  15.040  30.336 -0.1509 -0.2793  0.0161
 6562W        W49656  22.185  16.242  29.643 -0.3064 -0.0435  0.0096
 6563W        W49657  23.644  14.934  26.835  0.0517 -0.0543 -0.0592
 6564W        W49658  23.318  15.358  26.639  0.0365  0.0873  0.2036
 6565W        W49659  22.857  16.371  29.390 -0.0830 -0.0588  0.1202
 6566W        W49660  24.637  17.342  31.834  0.3380  0.1753  0.1605
 6567W        W49661  23.848  15.209  27.937  0.1800  0.0300  0.0689
 6568W        W49662  25.746  15.909  30.680 -0.1554  0.0070 -0.0366
 6569W        W49663  23.084  17.272  27.347 -0.2445  0.0036  0.0532
 6570W        W49664  22.343  15.556  28.801 -0.5211  0.4410 -0.2347
 6571W        W49665  22.454  18.121  29.498  0.0352  0.2609  0.1422
 6572W        W49666  21.147  17.654  28.932 -0.0188  0.2336 -0.0190
 6573W        W49667  20.687  18.004  28.619  0.1660 -0.0331 -0.1267
 6574W        W49668  24.037  14.606  29.803 -0.3838  0.0397  0.0132
 6575W        W49669  23.630  16.719  29.531  0.0435 -0.1035 -0.0103
 6576W        W49670  22.351  16.173  28.416  0.5352  0.1857  0.3855
 6577W        W49671  23.334  16.272  28.452 -0.1939 -0.2442  0.1101
 6578W        W49672  23.853  16.217  28.178 -0.1543 -0.1255  0.0082
 6579W        W49673  22.265  18.118  28.210 -0.0383  0.0921 -0.1395
 6580W        W49674  24.281  16.531  30.102 -0.1431  0.1715 -0.1125
 6581W        W49675  24.449  17.193  28.418  0.1422 -0.1671 -0.1613
 6582W        W49676  21.482  16.662  28.465  0.0374  0.0647 -0.1515
 6583W        W49677  21.153  16.021  30.864 -0.0429  0.3092  0.2293
 6584W        W49678  22.959  17.804  31.125 -0.0259  0.0129  0.0829
 6585W        W49679  22.255  17.671  28.910 -0.1500  0.3171  0.2366
 6586W        W49680  23.183  15.662  28.466 -0.1721 -0.1202 -0.1873
 6587W        W49681  23.434  18.556  29.465  0.0483 -0.1628 -0.0030
 6588W        W49682  22.741  18.189  29.985  0.1577  0.2839 -0.0319
 6589W        W49683  21.338  16.620  29.336  0.0769  0.3936  0.3169
 6590W        W49684  23.904  18.923  28.258 -0.2711  0.1553 -0.0283
 6591W        W49685  23.009  17.604  28.506 -0.3017  0.0153  0.0833
 6592W        W49686  22.992  16.364  28.841  0.0832 -0.0781  0.2052
 6593W        W49687  23.677  18.425  30.035  0.0270  0.0625 -0.3098
 6594W        W49688  23.134  15.882  27.337 -0.2048 -0.2052  0.1213
 6595W        W49689  21.839  18.137  30.067  0.1815  0.0113  0.3073
 6596W        W49690  21.361  18.011  26.741  0.0178 -0.0132 -0.0520
 6597W        W49691  24.108  17.601  27.217 -0.0930  0.1643 -0.2005
 6598W        W49692  23.102  17.717  27.015  0.1927  0.4456  0.0466
 6599W        W49693  24.711  15.629  30.554 -0.2838  0.0995  0.0357
 6600W        W49694  24.517  14.140  27.956  0.0186  0.2515 -0.1678
 6601W        W49695  25.874  17.536  28.256 -0.1067  0.0276  0.1078
 6602W        W49696  23.854  14.582  28.486  0.2055 -0.3445  0.1616
 6603W        W49697  24.574  17.682  30.729 -0.1084  0.0513 -0.1205
 6604W        W49698  21.243  15.425  29.064 -0.1170 -0.1530 -0.0058
 6605W        W49699  22.789  14.692  28.574  0.1515  0.4411  0.1695
 6606W        W49700  23.477  17.226  31.930  0.1462  0.2432  0.0964
 6607W        W49701  24.864  15.885   0.483  0.1455 -0.0141 -0.3734
 6608W        W49702  22.090  18.039  29.180  0.4452 -0.1388  0.2505
 6609W        W49703  25.666  19.019  29.363 -0.1674  0.0551  0.1797
 6610W        W49704  21.395  15.611  27.842 -0.0685 -0.0509  0.1307
 6611W        W49705  21.847  17.044  28.464 -0.1913 -0.5343 -0.4086
 6612W        W49706  26.427  13.724  30.884 -0.0252 -0.2707  0.1798
 6613W        W49707  22.358  17.918  26.974 -0.4493  0.0777 -0.0249
 6614W        W49708  23.676  16.264  30.146  0.1155 -0.2934 -0.2225
 6615W        W49709  22.004  18.154  28.642  0.0067 -0.1636  0.2259
 6616W        W49710  21.375  18.043  28.660 -0.1793  0.2472  0.0387
 6617W        W49711  22.930  17.828  29.249  0.1110  0.2686 -0.0387
 6618W        W49712  22.862  13.788  28.389  0.2713  0.0525 -0.0940
 6619W        W49713  24.879  16.098  28.274 -0.2138 -0.2490  0.0452
 6620W        W49714  22.265  14.886  30.455 -0.0916 -0.1285  0.1550
 6621W        W49715  25.603  12.973  29.923 -0.1245 -0.0659 -0.3159
 6622W        W49716  21.920  16.224  29.135 -0.0170  0.0537  0.1553
 6623W        W49717  24.022  17.029  27.656  0.0629 -0.0095 -0.1611
 6624W        W49718  22.840  15.045  29.125  0.0610  0.1217 -0.0931
 6625W        W49719  21.528  15.850  29.713  0.1340 -0.3398  0.2175
 6626W        W49720  24.918  16.407  27.349 -0.2032  0.2594 -0.3547
 6627W        W49721  25.338  15.420  29.789 -0.3049 -0.3235  0.2825
 6628W        W49722  23.038  17.144  27.857 -0.0831  0.0295 -0.0957
 6629W        W49723  25.197  16.701  31.225  0.0903 -0.4075  0.4161
 6630W        W49724  22.345  14.855  28.889 -0.1271  0.1504 -0.0221
 6631W        W49725  21.654  16.135  30.087 -0.3112 -0.0095 -0.0497
 6632W        W49726  21.551  15.270  28.133  0.3414  0.1637  0.1520
 6633W        W49727  22.863  16.151  29.862  0.1726  0.0947  0.0407
 6634W        W49728  23.589  18.262  30.909 -0.0696 -0.3215  0.2811
 6635W        W49729  22.077  15.195  28.117 -0.1801  0.1181 -0.0486
 6636W        W49730  24.030  17.684  28.654 -0.2080 -0.1647  0.1295
 6637W        W49731  24.261  15.961  27.894 -0.0566  0.2261  0.1284
 6638W        W49732  23.600  17.071  27.900 -0.1458 -0.1865  0.2016
 6639W        W49733  23.717  16.899  28.534  0.2088  0.1873  0.2583
 6640W        W49734  25.255  18.756  29.207  0.0675 -0.2324  0.4312
 6641W        W49735  21.717  16.324  29.636 -0.2759  0.0543  0.2080
 6642W        W49736  25.135  18.035  30.087 -0.1315 -0.1530  0.1207
 6643W        W49737  24.790  16.514  30.047  0.2916 -0.2718  0.2550
 6644W        W49738  24.584  14.162  28.523  0.2123 -0.1734 -0.1159
 6645W        W49739  23.263  15.132  30.655  0.4242  0.0976  0.1355
 6646W        W49740  21.110  19.929  27.027 -0.2388  0.1964 -0.1869
 6647W        W49741  24.354  16.061  29.341  0.0747 -0.2270 -0.2640
 6648W        W49742  25.607  15.232  30.804 -0.2892  0.0151 -0.1539
 6649W        W49743  22.211  17.002  28.774 -0.2655  0.0332 -0.3300
 6650W        W49744  24.274  13.932  30.889 -0.1535  0.2701  0.1277
 6651W        W49745  23.428  16.710  28.875  0.1953  0.0681 -0.0655
 6652W        W49746  24.030  17.489  30.041 -0.1084  0.3441  0.2130
 6653W        W49747  22.164  15.995  27.556 -0.0811  0.1373  0.0968
 6654W        W49748  23.950  17.342  30.596 -0.1215 -0.0285 -0.2039
 6655W        W49749  22.038  18.401  27.851  0.0717  0.2092 -0.1060
 6656W        W49750  23.437  18.172  27.931  0.3233  0.2429  0.1774
 6657W        W49751  25.159  15.059  29.210  0.1459 -0.0828  0.1554
 6658W        W49752  23.284  14.386  29.182  0.0181 -0.0580 -0.0319
 6659W        W49753  24.057  15.458  28.746 -0.1056  0.2124 -0.4263
 6660W        W49754  22.543  16.607  28.625 -0.2643  0.3079 -0.0739
 6661W        W49755  25.450  14.825  28.120 -0.0196 -0.2038 -0.0309
 6662W        W49756  25.409  14.079  28.542  0.3449  0.0279  0.2684
 6663W        W49757  21.241  15.678  30.080  0.1006  0.0600 -0.2531
 6664W        W49758  20.980  16.343  27.869 -0.0207 -0.4197  0.1241
 6665W        W49759  19.710  17.255  25.819 -0.0588 -0.3096  0.0610
 6666W        W49760  21.986  16.434  27.723  0.0474  0.2116  0.2252
 6667W        W49761  22.071  14.332  30.982 -0.4410  0.0202 -0.0578
 6668W        W49762  21.377  15.066  29.940 -0.1706 -0.2300  0.2714
 6669W        W49763  21.397  15.803  28.709  0.0524  0.0034  0.0404
 6670W        W49764  22.561  15.300  28.335 -0.0224 -0.2436 -0.0469
 6671W        W49765  24.787  17.345  29.171  0.0526 -0.2569 -0.1147
 6672W        W49766  20.773  14.504  28.502  0.3344 -0.0248 -0.1341
 6673W        W49767  20.696  14.472  29.815  0.0276  0.0393 -0.2554
 6674W        W49768  23.762  17.816  29.163  0.1206  0.1011 -0.1850
 6675W        W49769  23.451  16.644  28.133  0.1365 -0.1612 -0.0094
 6676W        W49770  23.180  14.675  27.438 -0.0072 -0.3492 -0.0422
 6677W        W49771  25.836  17.381  31.232  0.1237 -0.0627  0.0609
 6678W        W49772  20.145  15.681  25.247  0.3497 -0.2513 -0.0559
 6679W        W49773  24.363  15.642  31.217 -0.2629 -0.0124  0.2284
 6680W        W49774  23.434  14.930  31.399  0.0897 -0.0867  0.1870
 6681W        W49775  23.169  15.918  29.544 -0.0306 -0.1685  0.0171
 6682W        W49776  22.752  16.008  29.082 -0.1488  0.3425 -0.3352
 6683W        W49777  22.985  17.911  28.085  0.2097  0.1733 -0.0537
 6684W        W49778  25.684  18.189  27.598  0.1848 -0.0279  0.2425
 6685W        W49779  22.599  16.824  29.454 -0.1474  0.1739  0.2385
 6686W        W49780  22.833  17.305  29.946 -0.1866 -0.2181 -0.0792
 6687W        W49781  21.297  13.434  29.649  0.1198  0.0819  0.1785
 6688W        W49782  25.018  15.101  27.888  0.2766 -0.5564  0.1901
 6689W        W49783  23.392  17.201  29.286  0.2149  0.0958 -0.2314
 6690W        W49784  25.658  16.606  27.912 -0.2291  0.2777  0.1058
 6691W        W49785  24.461  15.752  28.997 -0.3575  0.1599 -0.1449
 6692W        W49786  22.356  15.328  29.640  0.0184  0.0089 -0.0744
 6693W        W49787  20.916  15.697  30.479  0.0506  0.1189 -0.1066
 6694W        W49788  22.446  16.308  30.104  0.1128 -0.4204 -0.0219
 6695W        W49789  26.272  16.478  29.667 -0.0079 -0.1032  0.1103
 6696W        W49790  23.419  14.512  29.871  0.3308  0.1377  0.1905
 6697W        W49791  23.885  15.074  29.905  0.1593  0.0143 -0.3329
 6698W        W49792  23.103  18.030  28.773 -0.0949  0.0507 -0.3877
 6699W        W49793  21.886  14.634  29.365  0.2422  0.0583  0.0823
 6700W        W49794  22.673  15.673  27.587 -0.4146  0.0850 -0.2841
 6701W        W49795  24.834  15.810  30.997  0.1018  0.0865  0.0609
 6702W        W49796  24.485  17.030  28.987  0.1870 -0.2777  0.0337
 6703W        W49797  24.867  16.405  30.961  0.3733  0.3636 -0.0270
 6704W        W49798  23.621  15.718  28.038 -0.2292 -0.0876 -0.3069
 6705W        W49799  25.975  16.148  27.711 -0.1086 -0.1288 -0.2136
 6706W        W49800  24.057  18.727  29.768 -0.0580  0.1836  0.2215
 6707W        W49801  25.588  17.510  29.716  0.0262  0.2952 -0.0715
 6708W        W49802  22.346  17.212  29.654 -0.1280  0.1868 -0.1374
 6709W        W49803  24.121  16.044  30.121 -0.1851  0.0851 -0.2226
 6710W        W49804  22.098  14.202  29.583  0.0286 -0.0416  0.2704
 6711W        W49805  22.153  16.659  28.252 -0.0561  0.1694  0.5465
 6712W        W49806  22.880  19.214  29.338 -0.3789  0.1417  0.4414
 6713W        W49807  22.607  16.113  31.260  0.1482  0.2697 -0.3162
 6714W        W49808  21.847  15.399  29.645  0.0434  0.3542  0.1330
 6715W        W49809  24.606  14.222  29.121 -0.1958  0.1843  0.0746
 6716W        W49810  23.181  16.749  29.314  0.0821  0.1641 -0.0757
 6717W        W49811  22.872  16.607  29.980  0.0875  0.0041  0.1514
 6718W        W49812  25.173  14.901  31.543  0.0863 -0.2369  0.1091
 6719W        W49813  22.953  14.797  31.899  0.0298  0.2204 -0.0790
 6720W        W49814  22.084  14.900  31.569  0.0550  0.2138  0.2801
 6721W        W49815  22.122  17.438  30.199 -0.0353 -0.0517  0.3538
 6722W        W49816  23.495  18.883  31.690 -0.1311 -0.0587  0.0547
 6723W        W49817  22.361  18.030  30.241  0.1025 -0.0410  0.3385
 6724W        W49818  25.114  15.394  31.199 -0.0471  0.0010  0.0620
 6725W        W49819  21.608  13.971  31.142  0.1303 -0.3734 -0.0462
 6726W        W49820  23.010  15.744  31.960  0.4411 -0.2098  0.0098
 6727W        W49821  26.014  18.726  31.612  0.1257  0.2361 -0.0792
 6728W        W49822  23.700  16.558  30.630  0.0606 -0.0584  0.1502
 6729W        W49823  21.316  13.744  30.117 -0.0374 -0.3332  0.1202
 6730W        W49824  25.699  16.858  30.482 -0.0970 -0.2301  0.0106
 6731W        W49825  24.088  16.077  31.129  0.1390  0.1641  0.2654
 6732W        W49826  23.968  16.936  31.347 -0.2010 -0.1484  0.1020
 6733W        W49827  22.441  17.021  30.112  0.1646  0.0417  0.0013
 6734W        W49828  22.504  16.874  31.734 -0.0794  0.0163 -0.1120
 6735W        W49829  23.105  17.703  30.669 -0.0137  0.1263  0.0841
 6736W        W49830  22.107  12.870  31.271  0.0133  0.0790  0.0395
 6737W        W49831  21.860  15.419  30.630  0.0085  0.0948  0.0215
 6738W        W49832  21.098  13.943  31.169  0.2579  0.0955  0.0584
 6739W        W49833  21.287  16.639  30.273 -0.2269 -0.3079  0.1349
 6740W        W49834  24.913  14.989   0.346 -0.0265 -0.3516  0.0038
 6741W        W49835  23.838  15.614  31.054  0.1379  0.3260 -0.0486
 6742W        W49836  23.958  15.966   0.102 -0.0891  0.2213  0.0864
 6743W        W49837  23.944  15.273  31.459 -0.1020  0.3415  0.0208
 6744W        W49838  24.299  15.999  31.679  0.0009  0.0498  0.0235
 6745W        W49839  22.469  17.813  31.240 -0.0515 -0.0380  0.5418
 6746W        W49840  22.054  16.691  29.843  0.3159  0.1989  0.0499
 6747W        W49841  23.457  17.694  31.928 -0.3307 -0.3706 -0.1777
 6748W        W49842  25.283  16.728  30.719 -0.2054  0.2502  0.0929
 6749W        W49843  20.960  13.862  31.632  0.1118  0.1544 -0.0934
 6750W        W49844  24.779  17.172  31.346 -0.4343  0.0204 -0.1041
 6751W        W49845  25.974  15.169  31.536 -0.0066  0.2158 -0.0745
 6752W        W49846  20.352  15.989  31.507  0.3442 -0.2440 -0.1732
 6753W        W49847  21.899  17.559   0.605 -0.3181 -0.2885 -0.0433
 6754W        W49848  23.836  15.520  31.913 -0.1580 -0.4548  0.0555
 6755W        W49849  23.485  17.818  31.015  0.0967  0.3663  0.0495
 6756W        W49850  23.352  17.490  31.462  0.1264 -0.1405  0.0534
 6757W        W49851  23.045  15.949   1.290 -0.2372 -0.2224 -0.3135
 6758W        W49852  24.626  16.048  30.221  0.0560 -0.1233 -0.1067
 6759W        W49853  25.281  15.496   0.471 -0.3556 -0.1848  0.0158
 6760W        W49854  23.084  14.176  30.196 -0.3286  0.0634  0.2712
 6761W        W49855  23.676  16.565  31.239 -0.1030  0.0068  0.0534
 6762W        W49856  22.569  14.945  30.034  0.1755  0.3345 -0.0447
 6763W        W49857  22.881  14.411   0.684  0.0777 -0.1342  0.1416
 6764W        W49858  24.752  13.779   0.422  0.2317 -0.4261 -0.3076
 6765W        W49859  23.792  17.907   0.321  0.1238 -0.0575  0.1349
 6766W        W49860  23.539  17.395  30.099  0.2098  0.1615  0.1228
 6767W        W49861  20.106  17.380  30.440 -0.2051  0.4121 -0.1278
 6768W        W49862  23.923  17.863  31.765  0.0324 -0.1659  0.0981
 6769W        W49863  24.306  14.844  31.381  0.2856  0.0310  0.2315
 6770W        W49864  21.835  14.868  30.772 -0.2051 -0.1393 -0.0246
 6771W        W49865  24.256  16.569  31.607  0.0943 -0.0665  0.2586
 6772W        W49866  22.405  16.692  30.494 -0.0425 -0.0959 -0.0015
 6773W        W49867  24.749  15.596  31.582  0.3095 -0.1165 -0.2118
 6774W        W49868  26.066  16.573  31.206  0.0548  0.1070  0.1512
 6775W        W49869  23.967  17.932  30.778  0.1777  0.2166  0.1404
 6776W        W49870  25.342  17.800  30.539  0.2716  0.0666  0.0764
 6777W        W49871  21.878  17.163  29.847 -0.0038 -0.0712 -0.1222
 6778W        W49872  20.931  15.151  30.738 -0.0198 -0.3574  0.1198
 6779W        W49873  23.815  16.940  29.980 -0.2638  0.3264  0.2508
 6780W        W49874  22.733  17.403  28.149 -0.0815  0.1922  0.0153
 6781W        W49875  21.089  14.196  30.404 -0.1070  0.2166  0.0748
 6782W        W49876  24.324  18.712  31.919  0.1284  0.2578  0.0383
 6783W        W49877  26.373  17.176  31.777 -0.2269 -0.1617 -0.2062
 6784W        W49878  25.316  15.814  31.492 -0.1639 -0.0061  0.0214
 6785W        W49879  24.343  20.035  18.930  0.1209 -0.1836  0.0246
 6786W        W49880  23.615  20.879  16.787  0.0085 -0.1797 -0.0346
 6787W        W49881  24.649  18.716  15.562  0.0584 -0.0748 -0.0301
 6788W        W49882  25.223  20.921  16.257  0.2690  0.0800  0.2400
 6789W        W49883  22.937  19.647  16.455  0.0339  0.1702 -0.1342
 6790W        W49884  23.366  23.417  16.029  0.1146  0.3542 -0.3001
 6791W        W49885  23.419  17.954  17.929  0.0377  0.3925 -0.0441
 6792W        W49886  25.002  21.655  17.586  0.1820  0.2093 -0.3245
 6793W        W49887  24.867  22.078  17.304 -0.1423  0.4633  0.1411
 6794W        W49888  24.773  20.221  15.431 -0.0122  0.3146  0.0537
 6795W        W49889  23.782  17.580  16.745  0.0929 -0.0707  0.0580
 6796W        W49890  22.036  22.727  18.218  0.0692  0.1779 -0.0546
 6797W        W49891  23.349  18.544  15.878  0.1308  0.0283  0.0499
 6798W        W49892  23.545  19.653  17.903 -0.1804  0.1720 -0.0713
 6799W        W49893  23.352  18.877  16.762  0.1880 -0.1742  0.2374
 6800W        W49894  22.997  21.775  15.767  0.0109 -0.1171  0.0427
 6801W        W49895  23.969  18.887  18.497 -0.1045 -0.3356  0.0343
 6802W        W49896  24.162  19.007  15.638  0.1201 -0.1825  0.4866
 6803W        W49897  22.870  23.147  16.676  0.1547 -0.2677 -0.0747
 6804W        W49898  24.569  18.977  17.349  0.1588  0.1206  0.0633
 6805W        W49899  24.074  17.768  18.415  0.1210 -0.0392  0.1234
 6806W        W49900  23.182  22.565  17.952  0.0057  0.1731 -0.2908
 6807W        W49901  23.104  17.718  14.907 -0.1659  0.1530  0.0624
 6808W        W49902  22.550  20.463  18.482  0.2227  0.1448 -0.1020
 6809W        W49903  23.755  20.755  18.319  0.1948  0.2115  0.1304
 6810W        W49904  26.292  19.282  16.562 -0.0884  0.0578 -0.4016
 6811W        W49905  23.854  18.833  17.892  0.1660  0.0114 -0.1248
 6812W        W49906  23.607  22.259  18.052  0.1444 -0.2417 -0.1152
 6813W        W49907  23.245  21.412  16.069 -0.3116  0.1807 -0.1665
 6814W        W49908  25.484  19.934  19.485  0.1927 -0.1273  0.0181
 6815W        W49909  23.656  21.117  18.671 -0.0998 -0.3665 -0.1257
 6816W        W49910  20.276  23.479  17.405  0.0243  0.0744 -0.1257
 6817W        W49911  22.172  19.562  15.821  0.3190  0.4284  0.2325
 6818W        W49912  26.183  21.231  16.114  0.0036 -0.1450 -0.0207
 6819W        W49913  24.417  22.712  18.903  0.0302  0.0463  0.2416
 6820W        W49914  23.198  21.008  18.359  0.2222  0.1851  0.2936
 6821W        W49915  21.122  21.357  15.908  0.0426  0.0134  0.1412
 6822W        W49916  23.680  22.355  19.193  0.0001  0.1181 -0.1986
 6823W        W49917  23.961  21.938  19.476  0.0606 -0.1640 -0.0764
 6824W        W49918  23.708  19.338  17.564 -0.3566  0.1219  0.0529
 6825W        W49919  24.273  20.549  16.357 -0.2031  0.5207  0.0136
 6826W        W49920  23.478  21.892  15.874 -0.0982 -0.0185  0.1426
 6827W        W49921  23.949  20.893  16.319  0.1949  0.3460 -0.1540
 6828W        W49922  24.487  20.390  19.292 -0.0704 -0.0842  0.1935
 6829W        W49923  22.475  21.963  17.809  0.0484  0.0678 -0.0253
 6830W        W49924  25.694  19.163  18.966  0.1930  0.0430  0.1717
 6831W        W49925  23.158  21.806  16.322 -0.0485 -0.3117  0.3445
 6832W        W49926  25.693  19.556  15.997 -0.1024  0.1421 -0.0673
 6833W        W49927  23.926  18.748  15.131 -0.1063 -0.2046  0.3229
 6834W        W49928  24.283  18.836  16.889  0.0337  0.1053 -0.0333
 6835W        W49929  24.705  16.749  16.841  0.2994 -0.1567  0.0637
 6836W        W49930  22.648  22.830  17.960 -0.0480  0.1103 -0.0148
 6837W        W49931  24.463  19.063  16.433 -0.0712 -0.3878  0.1797
 6838W        W49932  26.649  20.666  20.387 -0.0243 -0.6660 -0.4584
 6839W        W49933  23.605  18.968  14.852 -0.1394 -0.2678 -0.0976
 6840W        W49934  25.653  20.216  17.482 -0.2189 -0.0321 -0.1340
 6841W        W49935  23.588  22.834  17.989 -0.2592 -0.1586 -0.1327
 6842W        W49936  24.160  19.863  16.387 -0.2471 -0.0869 -0.0116
 6843W        W49937  24.166  21.347  16.148  0.0035  0.1552 -0.2299
 6844W        W49938  24.447  20.957  16.174 -0.0158 -0.1349  0.1136
 6845W        W49939  24.197  21.342  17.115 -0.0510  0.0489 -0.0634
 6846W        W49940  22.864  21.414  17.399  0.3360 -0.0521  0.3892
 6847W        W49941  22.688  21.803  18.373 -0.0914  0.1340  0.0140
 6848W        W49942  23.017  20.914  17.617  0.1251  0.2516 -0.3247
 6849W        W49943  23.299  17.885  15.915 -0.2236 -0.2576  0.0212
 6850W        W49944  26.026  19.783  20.114  0.1921 -0.0258  0.2944
 6851W        W49945  21.108  22.386  17.901 -0.0255  0.2244  0.1688
 6852W        W49946  24.896  20.545  16.272  0.0863 -0.1483 -0.0882
 6853W        W49947  24.048  19.754  17.725  0.1539  0.0937 -0.3648
 6854W        W49948  24.692  20.837  18.153  0.0283  0.0522  0.2934
 6855W        W49949  23.942  21.775  15.774  0.0459 -0.0934 -0.2639
 6856W        W49950  26.245  17.782  19.235 -0.0052  0.4098 -0.0363
 6857W        W49951  25.859  17.886  18.838 -0.1678 -0.3087  0.2814
 6858W        W49952  22.010  20.722  15.493 -0.1815  0.0397  0.1814
 6859W        W49953  23.502  19.564  15.684 -0.0749 -0.3502 -0.0441
 6860W        W49954  25.342  21.878  18.374 -0.1491 -0.2250  0.0452
 6861W        W49955  24.583  19.311  15.435  0.0941  0.2100 -0.2808
 6862W        W49956  22.082  21.934  18.708 -0.3676  0.2029  0.1493
 6863W        W49957  24.090  19.152  17.319 -0.2517 -0.1288 -0.0801
 6864W        W49958  24.021  21.356  18.979  0.2012  0.0228  0.0421
 6865W        W49959  21.720  21.743  14.968 -0.2356  0.2104 -0.0900
 6866W        W49960  23.795  21.761  18.048 -0.1043 -0.0824 -0.1204
 6867W        W49961  21.630  21.282  14.814  0.1954 -0.0694  0.1229
 6868W        W49962  22.985  20.500  16.330 -0.2196  0.2445 -0.2797
 6869W        W49963  24.207  21.562  17.889 -0.0733  0.2974  0.1208
 6870W        W49964  25.509  18.378  16.621 -0.2093  0.1015 -0.3528
 6871W        W49965  23.792  18.707  16.888  0.0021 -0.1152  0.0703
 6872W        W49966  26.413  19.112  19.004  0.0317  0.0619  0.2776
 6873W        W49967  22.753  21.504  16.298 -0.0036  0.2200 -0.3221
 6874W        W49968  23.677  22.668  17.024 -0.0366  0.1016  0.0066
 6875W        W49969  24.965  19.031  15.374 -0.0211  0.1646  0.0897
 6876W        W49970  24.550  22.434  16.151  0.1118  0.0278 -0.1033
 6877W        W49971  23.110  20.441  17.546  0.1809 -0.0493  0.0581
 6878W        W49972  22.471  20.751  15.263 -0.1661 -0.1607 -0.0906
 6879W        W49973  23.990  18.179  17.049  0.2804  0.3852  0.3437
 6880W        W49974  21.781  19.467  16.136 -0.0207 -0.1402 -0.2105
 6881W        W49975  25.510  19.829  20.159 -0.0698  0.0115 -0.0075
 6882W        W49976  22.889  19.079  15.236 -0.2192  0.4162 -0.0735
 6883W        W49977  26.194  20.340  16.597  0.2581  0.3226  0.1108
 6884W        W49978  22.809  20.098  16.007  0.2117  0.0904  0.0206
 6885W        W49979  21.572  20.646  15.274  0.0798  0.1241 -0.1683
 6886W        W49980  25.648  18.268  18.405  0.4609  0.1423  0.1070
 6887W        W49981  23.103  23.099  17.124 -0.2563 -0.0035 -0.4663
 6888W        W49982  24.358  21.648  19.156  0.4921 -0.2119  0.1393
 6889W        W49983  24.179  20.229  15.986  0.2199 -0.1100 -0.2491
 6890W        W49984  23.758  19.223  16.949  0.1213  0.0367 -0.2589
 6891W        W49985  22.955  18.652  15.502  0.2509 -0.0157 -0.3401
 6892W        W49986  20.710  22.932  17.297 -0.0512 -0.1628 -0.0417
 6893W        W49987  24.637  20.549  16.762 -0.1991 -0.0197 -0.0955
 6894W        W49988  25.018  18.448  16.146 -0.1689 -0.2277  0.0724
 6895W        W49989  24.051  22.904  18.631 -0.0279  0.0638  0.0199
 6896W        W49990  24.409  19.810  15.896  0.1297 -0.1581  0.3204
 6897W        W49991  24.773  20.877  17.527 -0.1841 -0.1988  0.0689
 6898W        W49992  26.050  19.110  18.399 -0.2869 -0.0262  0.0270
 6899W        W49993  25.827  20.600  20.319 -0.1675 -0.1565  0.2620
 6900W        W49994  25.342  19.131  17.637  0.6964  0.1195  0.0903
 6901W        W49995  21.534  19.064  15.305  0.0952 -0.0612 -0.0367
 6902W        W49996  24.662  22.913  16.216 -0.2548  0.3169  0.1401
 6903W        W49997  22.353  22.692  16.662 -0.1244 -0.0639 -0.0873
 6904W        W49998  22.507  22.333  17.078  0.0466 -0.1477  0.0660
 6905W        W49999  20.917  22.414  16.943 -0.1751  0.1523 -0.0482
 6906W        W50000  25.942  18.446  17.794  0.4548 -0.0811 -0.0460
 6907W        W50001  22.519  20.859  17.679 -0.2799 -0.2689 -0.2349
 6908W        W50002  24.533  19.516  19.568 -0.2995  0.1837 -0.0034
 6909W        W50003  22.413  21.036  16.266  0.0147 -0.2188 -0.3790
 6910W        W50004  23.245  22.232  19.772  0.0832 -0.5138 -0.2960
 6911W        W50005  25.380  18.764  16.960 -0.1350 -0.0479 -0.3400
 6912W        W50006  25.423  17.902  16.731 -0.1594  0.3296  0.4877
 6913W        W50007  25.177  19.932  18.602 -0.2711  0.2117 -0.2067
 6914W        W50008  24.743  19.877  17.413  0.0407 -0.2375 -0.1483
 6915W        W50009  23.753  19.270  16.025  0.0295 -0.0056 -0.0507
 6916W        W50010  24.498  18.710  16.045 -0.2952  0.2538  0.0072
 6917W        W50011  23.204  20.946  18.857 -0.0658 -0.3239 -0.4360
 6918W        W50012  23.356  21.364  17.656  0.1841 -0.0858 -0.2966
 6919W        W50013  24.048  20.275  17.469 -0.2549 -0.2629 -0.0478
 6920W        W50014  23.570  17.896  15.073 -0.0949  0.3023 -0.2149
 6921W        W50015  24.557  21.913  16.956 -0.1519  0.1682  0.0605
 6922W        W50016  22.526  21.657  19.356  0.0372 -0.1814 -0.4416
 6923W        W50017  24.730  20.823  19.173  0.0861  0.0942  0.2623
 6924W        W50018  23.910  22.379  18.747  0.3419  0.0875 -0.1598
 6925W        W50019  24.858  17.539  17.711 -0.0606 -0.1934 -0.1488
 6926W        W50020  23.747  19.691  15.286 -0.1417 -0.0668 -0.0974
 6927W        W50021  24.511  18.478  17.170  0.0962  0.0904  0.0311
 6928W        W50022  22.027  22.595  15.812 -0.3572 -0.1057 -0.0897
 6929W        W50023  26.567  19.707  18.509 -0.0652 -0.2701  0.0116
 6930W        W50024  25.809  19.466  19.472 -0.2099 -0.0493 -0.0168
 6931W        W50025  25.215  19.015  18.208  0.1754 -0.0437  0.2320
 6932W        W50026  25.175  19.561  20.368  0.1056 -0.0852 -0.0283
 6933W        W50027  24.278  21.049  16.686 -0.0781 -0.1029  0.0754
 6934W        W50028  23.967  20.667  17.844 -0.3003 -0.0412 -0.0780
 6935W        W50029  22.487  20.396  15.625 -0.1513 -0.2698 -0.1024
 6936W        W50030  25.489  20.109  18.974 -0.2227 -0.1446 -0.1535
 6937W        W50031  22.192  19.725  19.664  0.0133  0.1185  0.1615
 6938W        W50032  22.299  22.986  17.104 -0.0537 -0.0367  0.0235
 6939W        W50033  25.465  21.212  19.194 -0.3380  0.2547 -0.2460
 6940W        W50034  23.688  21.133  15.913  0.1150  0.0523 -0.2970
 6941W        W50035  23.514  19.079  18.363 -0.1869  0.2232  0.4906
 6942W        W50036  24.448  18.069  16.817 -0.1144 -0.0829  0.0936
 6943W        W50037  22.810  22.232  17.968  0.2207  0.1233  0.0607
 6944W        W50038  23.616  21.589  16.360  0.2076 -0.1258  0.1295
 6945W        W50039  24.276  18.526  17.863 -0.2135 -0.0455  0.1074
 6946W        W50040  24.448  20.593  17.807  0.1815  0.3152  0.1441
 6947W        W50041  21.544  20.756  15.747  0.0323  0.0803 -0.0459
 6948W        W50042  27.141  20.090  19.652  0.1996  0.2800  0.4658
 6949W        W50043  21.742  21.200  15.349  0.0300  0.0477 -0.1473
 6950W        W50044  25.440  17.855  18.292 -0.0489 -0.0234 -0.1379
 6951W        W50045  21.871  22.581  17.540  0.0539  0.0946  0.2969
 6952W        W50046  21.950  18.607  14.845  0.1181 -0.3502  0.0919
 6953W        W50047  22.272  21.421  17.302  0.1834 -0.2442  0.2652
 6954W        W50048  25.889  17.502  17.925 -0.2282  0.0177  0.4025
 6955W        W50049  25.532  20.281  15.745  0.1422  0.2242  0.0557
 6956W        W50050  23.366  20.431  16.648  0.1557 -0.0438 -0.0443
 6957W        W50051  24.839  18.792  16.972 -0.1028 -0.1097 -0.0829
 6958W        W50052  21.192  21.810  16.369  0.1383  0.1103 -0.0726
 6959W        W50053  25.453  18.318  17.178  0.0897  0.1164 -0.1559
 6960W        W50054  24.662  21.433  16.895  0.0062  0.1356 -0.1192
 6961W        W50055  25.059  21.138  18.971  0.0532  0.2103  0.0528
 6962W        W50056  23.509  19.588  18.475 -0.0715  0.1384  0.1888
 6963W        W50057  22.424  20.494  16.113 -0.0887 -0.0497  0.2151
 6964W        W50058  26.474  20.254  18.972 -0.0569  0.0175 -0.2060
 6965W        W50059  24.292  20.169  16.783 -0.2914  0.1401 -0.0131
 6966W        W50060  20.829  22.091  16.467  0.5346 -0.1701  0.3309
 6967W        W50061  22.400  20.296  18.015 -0.0742 -0.2832 -0.0458
 6968W        W50062  22.187  20.007  16.037 -0.0040 -0.1491 -0.0308
 6969W        W50063  22.018  21.744  17.574 -0.2271  0.1492  0.1471
 6970W        W50064  23.619  19.830  19.369  0.0757 -0.1113 -0.1600
 6971W        W50065  24.736  19.935  19.408 -0.4484 -0.1661  0.0034
 6972W        W50066  22.818  19.605  17.074 -0.2253  0.1096 -0.0812
 6973W        W50067  22.476  19.829  16.498  0.0831 -0.0920  0.2281
 6974W        W50068  24.894  19.016  17.748 -0.2491 -0.3115 -0.0788
 6975W        W50069  25.257  19.602  18.021 -0.2322  0.1748 -0.3320
 6976W        W50070  23.673  20.093  18.354  0.0257 -0.4593  0.2247
 6977W        W50071  24.249  20.285  20.821  0.1755 -0.2166 -0.0981
 6978W        W50072  23.682  16.826  15.827 -0.4410  0.1852 -0.1127
 6979W        W50073  26.253  22.935  16.531 -0.0979 -0.0009  0.1194
 6980W        W50074  26.212  20.244  20.277  0.4451  0.2370 -0.2880
 6981W        W50075  22.075  21.357  16.373 -0.2838  0.1904  0.1788
 6982W        W50076  23.413  20.592  17.175  0.2440 -0.1652  0.1266
 6983W        W50077  22.981  22.003  16.893 -0.0764  0.3244 -0.0327
 6984W        W50078  24.771  18.284  18.125  0.0731  0.2790  0.0217
 6985W        W50079  20.963  21.251  18.077  0.2036 -0.0115  0.3309
 6986W        W50080  21.711  19.403  15.646  0.2816  0.3400 -0.0792
 6987W        W50081  22.754  21.074  18.749 -0.1379  0.1345 -0.0013
 6988W        W50082  25.859  19.173  16.348  0.3120  0.0345  0.1121
 6989W        W50083  22.997  20.516  15.749  0.1321 -0.1239  0.0115
 6990W        W50084  23.788  18.696  15.630 -0.0160 -0.3178  0.2758
 6991W        W50085  26.265  18.150  19.804 -0.0236 -0.3069 -0.0771
 6992W        W50086  23.854  20.471  16.617  0.2089  0.1270  0.3626
 6993W        W50087  24.956  18.269  19.163 -0.1316  0.1157 -0.0124
 6994W        W50088  23.577  20.425  17.672 -0.0808 -0.2162 -0.1993
 6995W        W50089  24.179  20.564  17.009 -0.0082  0.1843  0.1928
 6996W        W50090  22.909  20.449  17.009  0.0743 -0.2162  0.1669
 6997W        W50091  24.074  23.189  19.824 -0.1008  0.0516 -0.2594
 6998W        W50092  23.876  19.333  18.107  0.2726  0.0622  0.7402
 6999W        W50093  23.991  19.066  16.501  0.0032  0.0129 -0.2444
 7000W        W50094  23.820  18.537  14.649 -0.0412 -0.2808 -0.1322
 7001W        W50095  23.721  20.970  17.415  0.0177 -0.0824 -0.2095
 7002W        W50096  26.269  20.551  17.924 -0.2474  0.1411  0.3252
 7003W        W50097  24.492  20.419  17.317  0.0296  0.0796  0.2957
 7004W        W50098  25.504  19.311  17.152 -0.1232 -0.0048 -0.3206
 7005W        W50099  24.058  20.329  18.620  0.3990 -0.0539 -0.1375
 7006W        W50100  24.663  19.929  16.919 -0.1138 -0.0771 -0.0837
 7007W        W50101  22.941  21.009  16.219  0.1384 -0.1161  0.2332
 7008W        W50102  23.014  20.014  16.729 -0.1063 -0.0475  0.0855
 7009W        W50103  24.380  17.995  18.005  0.3015  0.0020  0.2675
 7010W        W50104  25.167  20.586  16.681  0.0424 -0.3036  0.0653
 7011W        W50105  24.103  18.469  16.590  0.1221  0.2136 -0.0332
 7012W        W50106  25.201  18.527  18.047  0.2969  0.2478 -0.2517
 7013W        W50107  25.691  20.411  19.493  0.1255  0.3201 -0.3600
 7014W        W50108  23.171  20.100  18.541 -0.3249 -0.0569  0.1937
 7015W        W50109  23.627  18.533  18.297 -0.0830 -0.0427  0.3909
 7016W        W50110  24.052  22.015  18.377  0.0605 -0.2632 -0.1782
 7017W        W50111  24.783  19.768  15.560 -0.0487 -0.1486  0.3291
 7018W        W50112  25.852  19.738  17.276 -0.0053  0.4790  0.2631
 7019W        W50113  25.033  20.315  17.068  0.0215  0.0369 -0.0631
 7020W        W50114  23.803  19.513  16.444 -0.2062  0.1917  0.0850
 7021W        W50115  23.789  20.222  17.040 -0.0968 -0.2337  0.2356
 7022W        W50116  24.315  20.383  20.301 -0.0101 -0.3322 -0.4131
 7023W        W50117  22.823  19.134  15.784 -0.1487 -0.0892 -0.4314
 7024W        W50118  24.886  19.705  18.896 -0.0176 -0.1599 -0.3538
 7025W        W50119  23.876  22.052  16.432  0.1801  0.0589 -0.0328
 7026W        W50120  24.479  21.983  17.605  0.0795  0.0722 -0.2464
 7027W        W50121  25.018  19.189  16.710 -0.1435  0.1459  0.0811
 7028W        W50122  22.386  20.287  16.598 -0.1933  0.0246  0.0681
 7029W        W50123  22.981  22.421  20.191  0.0017  0.3583 -0.0523
 7030W        W50124  22.964  19.644  15.632 -0.3341  0.0848 -0.1582
 7031W        W50125  24.441  19.351  14.927 -0.1194  0.3829  0.2914
 7032W        W50126  25.188  20.893  17.883 -0.2070 -0.2311  0.1452
 7033W        W50127  27.268  20.735  22.018 -0.4458  0.3788 -0.2267
 7034W        W50128  23.746  18.067  16.481 -0.1815  0.0214 -0.0527
 7035W        W50129  25.513  19.557  17.618 -0.0980 -0.2782 -0.2176
 7036W        W50130  21.037  21.410  16.790 -0.1474  0.0400  0.0686
 7037W        W50131  25.434  18.262  17.678  0.0413  0.2056 -0.2855
 7038W        W50132  22.472  23.658  17.451 -0.0562  0.0071  0.2022
 7039W        W50133  22.739  20.989  17.167  0.0565 -0.0015  0.0175
 7040W        W50134  21.221  21.530  17.693 -0.0833 -0.0935  0.1237
 7041W        W50135  25.914  18.683  18.621  0.0782 -0.5076  0.0535
 7042W        W50136  24.944  19.512  17.674  0.5723 -0.1769 -0.1021
 7043W        W50137  24.268  19.862  17.205  0.3964  0.0220 -0.0328
 7044W        W50138  26.690  20.138  20.351  0.1663  0.3955  0.1084
 7045W        W50139  24.207  20.830  19.244 -0.2496  0.1807 -0.0574
 7046W        W50140  22.690  21.153  18.258  0.1872  0.2326 -0.3287
 7047W        W50141  24.312  20.085  18.304  0.2064 -0.0537 -0.2172
 7048W        W50142  25.031  21.257  17.302 -0.0402 -0.4175  0.1254
 7049W        W50143  24.229  21.030  18.535 -0.0282 -0.4434 -0.0223
 7050W        W50144  23.552  18.467  17.723 -0.4082 -0.2208  0.1026
 7051W        W50145  22.637  19.985  19.878 -0.1811  0.4110 -0.0397
 7052W        W50146  24.446  19.442  17.572  0.0597 -0.2732 -0.0324
 7053W        W50147  22.938  17.425  16.698 -0.1043 -0.1541  0.2974
 7054W        W50148  23.378  21.197  15.402  0.5017  0.0941  0.1637
 7055W        W50149  22.835  20.631  19.522 -0.1614  0.3034  0.0266
 7056W        W50150  23.632  19.979  17.536 -0.2199 -0.2303 -0.0499
 7057W        W50151  21.242  23.123  17.512 -0.0592 -0.1893  0.2695
 7058W        W50152  24.220  21.004  17.553  0.1777 -0.2592 -0.1526
 7059W        W50153  23.251  20.918  15.808 -0.1421  0.1178  0.1887
 7060W        W50154  24.232  22.634  16.895  0.1505  0.1870 -0.1149
 7061W        W50155  24.901  17.769  16.738  0.1146 -0.0943  0.0562
 7062W        W50156  23.549  23.136  18.442 -0.2155 -0.1163  0.1777
 7063W        W50157  22.135  21.603  15.290  0.2512 -0.2042 -0.1744
 7064W        W50158  25.271  19.942  15.463  0.0763 -0.1719  0.0610
 7065W        W50159  24.212  22.394  17.411 -0.0617 -0.0523  0.0295
 7066W        W50160  27.519  20.059  20.659 -0.1373  0.0009  0.0121
 7067W        W50161  24.507  17.388  15.102 -0.3733 -0.0735  0.1376
 7068W        W50162  25.922  20.695  17.405  0.1562  0.1245  0.2572
 7069W        W50163  25.045  19.714  16.716  0.0234  0.0747  0.3684
 7070W        W50164  24.294  20.569  18.268  0.1049  0.0831  0.0187
 7071W        W50165  23.653  19.948  16.637  0.1368  0.0058  0.1585
 7072W        W50166  22.620  16.936  14.814 -0.2146 -0.1653  0.2915
 7073W        W50167  23.212  18.742  18.548 -0.1016 -0.0512 -0.0933
 7074W        W50168  26.583  17.840  17.543 -0.1364  0.0012 -0.3436
 7075W        W50169  22.912  21.749  17.764 -0.3864 -0.0560  0.1292
 7076W        W50170  25.289  21.960  16.357 -0.2623  0.1447 -0.0638
 7077W        W50171  22.594  21.823  17.302 -0.0559 -0.2124  0.1451
 7078W        W50172  24.161  19.454  16.757 -0.1569  0.0113 -0.2092
 7079W        W50173  25.881  19.549  18.703 -0.1138  0.0949 -0.0084
 7080W        W50174  23.273  20.080  15.782  0.0888  0.2843  0.1634
 7081W        W50175  24.411  18.684  18.642  0.0146 -0.2260 -0.0788
 7082W        W50176  24.096  23.258  17.656  0.3316 -0.2119 -0.0966
 7083W        W50177  23.791  21.237  18.021 -0.1613  0.3325 -0.3466
 7084W        W50178  22.154  22.202  17.445 -0.0290 -0.1048 -0.0494
 7085W        W50179  22.742  18.021  16.703 -0.1789  0.0558  0.1972
 7086W        W50180  26.375  19.357  17.064  0.0994 -0.0281  0.1948
 7087W        W50181  25.361  20.637  18.964  0.1860 -0.2704 -0.4036
 7088W        W50182  26.141  18.711  19.159 -0.1141 -0.0240 -0.1136
 7089W        W50183  23.657  20.436  16.163  0.0597  0.1097  0.0489
 7090W        W50184  24.553  20.127  16.281 -0.4219  0.3361  0.0315
 7091W        W50185  23.953  20.187  17.954  0.3219 -0.2684 -0.3833
 7092W        W50186  23.483  20.480  18.683 -0.1469  0.1527  0.1854
 7093W        W50187  22.854  18.376  14.585  0.3476 -0.2730  0.0962
 7094W        W50188  25.430  19.608  18.962  0.3527 -0.0405  0.2100
 7095W        W50189  23.771  20.039  15.685  0.3519 -0.2364  0.1943
 7096W        W50190  24.938  22.189  17.851 -0.0028 -0.1816 -0.4532
 7097W        W50191  23.743  19.867  16.106  0.2259 -0.0778 -0.0626
 7098W        W50192  25.021  19.195  17.251 -0.0007  0.1009  0.0899
 7099W        W50193  23.267  20.079  16.294 -0.0204  0.0846 -0.0198
 7100W        W50194  23.543  18.884  17.263 -0.1390 -0.0415  0.0798
 7101W        W50195  25.015  21.220  19.583  0.2632 -0.2030  0.2467
 7102W        W50196  24.294  18.271  16.135  0.5127  0.1313  0.0842
 7103W        W50197  24.417  20.731  15.494 -0.1484 -0.1658 -0.5496
 7104W        W50198  26.454  19.972  17.968  0.0154 -0.0814 -0.0123
 7105W        W50199  22.107  22.848  16.215  0.3870 -0.1935  0.1241
 7106W        W50200  24.609  19.430  17.069 -0.1342 -0.0900 -0.1039
 7107W        W50201  24.203  22.783  17.771 -0.0521  0.0752  0.2149
 7108W        W50202  23.081  18.998  16.183  0.0868 -0.1389 -0.0261
 7109W        W50203  24.139  21.527  18.393  0.0006  0.2755 -0.1278
 7110W        W50204  24.962  21.682  18.152  0.0584  0.1502 -0.0128
 7111W        W50205  24.722  17.767  17.254 -0.1132  0.3073 -0.2242
 7112W        W50206  24.507  20.955  17.084  0.1099  0.2721 -0.0822
 7113W        W50207  21.299  22.195  17.183 -0.0600 -0.1505  0.3425
 7114W        W50208  25.162  18.673  17.412  0.0757 -0.0880 -0.0624
 7115W        W50209  24.391  19.633  18.086  0.1384 -0.2173  0.3866
 7116W        W50210  21.696  21.630  16.188 -0.0669  0.1331  0.0486
 7117W        W50211  25.714  16.927  19.107 -0.0633 -0.1067 -0.1082
 7118W        W50212  23.588  20.952  19.220  0.2310  0.3464  0.0623
 7119W        W50213  23.077  20.383  19.024  0.0285 -0.2204  0.2366
 7120W        W50214  22.009  20.487  15.907  0.2357  0.1601  0.0561
 7121W        W50215  24.388  20.610  18.826 -0.0873  0.0993  0.0064
 7122W        W50216  23.267  21.358  16.633 -0.0263 -0.1619 -0.2798
 7123W        W50217  23.598  21.523  17.229  0.0746 -0.1441 -0.2842
 7124W        W50218  24.046  22.251  17.842  0.0011  0.0041 -0.0151
 7125W        W50219  23.322  19.122  15.773 -0.1342  0.0573 -0.1500
 7126W        W50220  24.500  22.970  17.085  0.0203 -0.0502 -0.1618
 7127W        W50221  23.817  19.693  17.201 -0.0315 -0.0950  0.0320
 7128W        W50222  26.231  19.795  16.688 -0.0860 -0.1469  0.0737
 7129W        W50223  27.053  18.140  17.474 -0.0266  0.1110 -0.3268
 7130W        W50224  22.955  19.670  18.599  0.0956 -0.2015 -0.0029
 7131W        W50225  21.555  20.256  15.611 -0.0768  0.0359  0.2453
 7132W        W50226  22.050  21.503  15.870 -0.0914  0.1593 -0.0162
 7133W        W50227  23.292  22.097  17.737 -0.3025  0.2113 -0.0178
 7134W        W50228  23.927  18.501  17.418  0.1578 -0.2346  0.1732
 7135W        W50229  23.364  20.401  18.161  0.2290  0.6991  0.0180
 7136W        W50230  23.052  21.404  18.044  0.3849 -0.2396  0.1767
 7137W        W50231  23.334  19.357  16.465  0.1529  0.1231 -0.2596
 7138W        W50232  25.346  20.608  17.473 -0.0291 -0.1499 -0.0300
 7139W        W50233  23.238  17.990  16.700  0.0961 -0.1572 -0.0737
 7140W        W50234  23.554  18.565  16.448  0.0085 -0.1185  0.0597
 7141W        W50235  24.217  21.641  16.643  0.1468 -0.0969  0.1009
 7142W        W50236  25.881  21.892  17.118  0.1366 -0.0031 -0.0076
 7143W        W50237  23.739  18.193  15.984  0.2391  0.2348  0.1045
 7144W        W50238  27.254  21.647  19.195  0.2657  0.3264 -0.0132
 7145W        W50239  20.602  21.379  16.014 -0.1716 -0.1195 -0.0622
 7146W        W50240  24.330  19.262  18.508 -0.0170 -0.1007  0.1764
 7147W        W50241  24.798  19.114  18.664 -0.0613  0.2513  0.1922
 7148W        W50242  23.132  19.488  16.053  0.1095 -0.3620  0.0907
 7149W        W50243  24.709  18.534  17.643  0.2927  0.1188  0.2168
 7150W        W50244  24.748  21.997  16.370  0.3105  0.1871 -0.1611
 7151W        W50245  23.761  22.610  16.468  0.4105  0.0090 -0.2664
 7152W        W50246  24.907  20.385  17.554  0.2019  0.0866  0.2231
 7153W        W50247  25.105  20.425  18.088 -0.0788 -0.1366  0.0315
 7154W        W50248  22.554  17.102  16.612  0.0912  0.2080 -0.1066
 7155W        W50249  24.611  21.485  16.266 -0.0837  0.0442 -0.0493
 7156W        W50250  23.768  19.919  18.884  0.2309  0.1903  0.2384
 7157W        W50251  24.547  20.503  15.894  0.0856 -0.1960 -0.2496
 7158W        W50252  26.155  20.214  17.511 -0.0810 -0.3269 -0.0761
 7159W        W50253  25.037  20.798  17.102 -0.3132  0.0802 -0.2994
 7160W        W50254  23.339  19.194  17.850  0.0007  0.0129  0.0269
 7161W        W50255  24.054  20.029  20.006 -0.2745 -0.0246  0.3757
 7162W        W50256  26.197  21.024  18.210 -0.2635 -0.0246  0.1018
 7163W        W50257  24.323  17.575  16.926  0.2711 -0.1319  0.1689
 7164W        W50258  24.941  18.232  17.201 -0.0950 -0.0955 -0.1398
 7165W        W50259  22.942  22.421  16.213 -0.0362  0.0556  0.0986
 7166W        W50260  24.434  20.083  17.770  0.1009 -0.0500 -0.2351
 7167W        W50261  23.293  18.241  16.267 -0.1056  0.0717 -0.1292
 7168W        W50262  25.333  21.110  16.734 -0.1940 -0.0140  0.2243
 7169W        W50263  23.200  21.079  17.188 -0.0790 -0.0059  0.1055
 7170W        W50264  24.567  21.180  18.914  0.4803  0.0075  0.1405
 7171W        W50265  24.027  19.556  15.695  0.0824 -0.1196 -0.0292
 7172W        W50266  25.213  19.674  15.857  0.2301 -0.3077 -0.1269
 7173W        W50267  24.368  23.431  18.469  0.1607  0.3374 -0.0542
 7174W        W50268  25.793  20.912  19.803  0.5247 -0.1241  0.2027
 7175W        W50269  23.447  20.907  17.875 -0.1176  0.1500  0.1551
 7176W        W50270  25.541  20.261  18.442  0.0509 -0.0696 -0.3306
 7177W        W50271  24.221  16.956  17.030 -0.0822  0.2903 -0.1449
 7178W        W50272  23.620  21.589  15.514  0.3092  0.0714  0.2595
 7179W        W50273  23.433  20.909  16.353  0.3344  0.0144 -0.2607
 7180W        W50274  25.166  19.971  17.637  0.0152 -0.0353  0.1855
 7181W        W50275  23.558  17.934  17.124 -0.0471 -0.1866 -0.0513
 7182W        W50276  24.121  17.333  16.353  0.0105 -0.3325  0.1769
 7183W        W50277  24.608  21.337  18.335 -0.0548  0.1903  0.3240
 7184W        W50278  25.677  20.625  17.820  0.0510  0.1227 -0.0667
 7185W        W50279  24.030  20.264  23.759 -0.1352 -0.0908  0.0531
 7186W        W50280  23.832  20.344  19.604  0.0243  0.2433  0.2016
 7187W        W50281  23.633  17.168  17.994  0.1644 -0.0045  0.3916
 7188W        W50282  27.731  18.628  20.456  0.1612  0.1500  0.1813
 7189W        W50283  24.446  19.048  19.501 -0.1742 -0.1805 -0.0347
 7190W        W50284  25.473  20.702  21.632 -0.0630  0.1587  0.1850
 7191W        W50285  23.513  17.450  20.610  0.1400 -0.1824  0.1620
 7192W        W50286  25.343  19.656  22.965  0.1914 -0.0368 -0.1539
 7193W        W50287  26.127  21.151  22.807  0.3816 -0.5015 -0.2957
 7194W        W50288  25.345  20.819  19.522  0.2146 -0.2118 -0.0826
 7195W        W50289  24.518  19.001  22.084 -0.0690  0.3094 -0.1678
 7196W        W50290  24.670  21.590  23.605  0.3179  0.0022  0.2201
 7197W        W50291  24.749  18.241  20.968  0.2084 -0.0235 -0.1168
 7198W        W50292  25.503  20.165  21.738  0.2064 -0.2817  0.1968
 7199W        W50293  23.370  20.924  20.099  0.2803  0.1367 -0.0329
 7200W        W50294  23.689  18.586  21.122 -0.1426  0.2783 -0.0518
 7201W        W50295  24.309  19.177  20.729 -0.0432  0.1463 -0.1101
 7202W        W50296  25.656  21.774  21.647 -0.2392 -0.1746  0.0529
 7203W        W50297  23.462  18.093  21.765  0.3846 -0.0037 -0.1209
 7204W        W50298  25.199  19.139  24.633 -0.2195 -0.1961 -0.2855
 7205W        W50299  25.310  20.539  20.420  0.2836  0.3370  0.1652
 7206W        W50300  22.287  20.019  17.656 -0.0077  0.1391 -0.0737
 7207W        W50301  23.519  19.753  21.170 -0.0646 -0.0952  0.0309
 7208W        W50302  23.539  19.313  20.940  0.1539 -0.0870  0.1326
 7209W        W50303  25.383  18.129  22.407  0.0992  0.4242 -0.2393
 7210W        W50304  25.328  19.947  21.278 -0.1730 -0.0910 -0.0667
 7211W        W50305  22.904  21.609  22.837  0.0888  0.1913 -0.0574
 7212W        W50306  24.854  21.145  21.350 -0.1237 -0.1584  0.2005
 7213W        W50307  24.505  19.044  22.657  0.0629  0.2212 -0.1894
 7214W        W50308  22.136  20.112  19.277 -0.2386  0.1711 -0.3645
 7215W        W50309  23.366  21.163  22.092  0.1782 -0.1751  0.2743
 7216W        W50310  24.065  21.239  20.560  0.2838 -0.2247 -0.1012
 7217W        W50311  25.931  21.277  21.421 -0.0112 -0.1823 -0.1706
 7218W        W50312  24.667  20.399  23.872 -0.3787  0.1723  0.1148
 7219W        W50313  22.414  21.763  23.312 -0.2645 -0.0150  0.1614
 7220W        W50314  23.207  20.345  19.583 -0.1745 -0.4086 -0.0218
 7221W        W50315  23.684  21.673  22.080 -0.2240 -0.3624 -0.0583
 7222W        W50316  23.555  20.826  22.819  0.0224 -0.2460 -0.1186
 7223W        W50317  25.420  19.147  21.545  0.0606 -0.1877  0.0359
 7224W        W50318  23.003  20.480  20.935 -0.3262 -0.0711  0.5119
 7225W        W50319  22.937  21.917  20.217 -0.2962 -0.1867 -0.1686
 7226W        W50320  25.571  20.564  22.418  0.5028  0.0035  0.1979
 7227W        W50321  23.335  20.960  23.742 -0.2473 -0.0324 -0.0704
 7228W        W50322  23.889  18.881  22.016  0.2925 -0.2724 -0.1941
 7229W        W50323  26.463  19.204  24.085 -0.0373  0.1605  0.0511
 7230W        W50324  24.337  20.989  19.786  0.2398  0.2012  0.0071
 7231W        W50325  24.886  19.959  18.062 -0.1323 -0.2446  0.0860
 7232W        W50326  24.650  19.761  18.495  0.0352 -0.0023  0.1131
 7233W        W50327  25.812  20.233  19.935  0.1548  0.0195  0.0350
 7234W        W50328  23.500  17.643  21.095 -0.0673 -0.1116  0.2365
 7235W        W50329  23.266  22.523  22.500  0.0433 -0.0387  0.0350
 7236W        W50330  24.043  18.414  21.439  0.4149 -0.0748 -0.1287
 7237W        W50331  25.381  19.192  23.376  0.1527 -0.1546  0.2345
 7238W        W50332  26.535  20.003  19.897 -0.2114 -0.1230  0.0883
 7239W        W50333  25.108  19.707  22.527  0.1438 -0.1077  0.3278
 7240W        W50334  23.417  20.425  23.527 -0.0049 -0.0590 -0.0437
 7241W        W50335  22.768  19.764  20.352 -0.1834  0.0911 -0.0379
 7242W        W50336  24.987  20.205  18.996  0.0565  0.1755  0.4044
 7243W        W50337  26.421  22.122  21.932  0.1850 -0.0863  0.0919
 7244W        W50338  25.471  22.819  19.805 -0.1619 -0.0344 -0.1154
 7245W        W50339  22.107  20.427  20.644 -0.1238  0.0417 -0.0308
 7246W        W50340  22.431  18.827  21.657  0.0548 -0.1025 -0.1911
 7247W        W50341  22.409  18.518  21.993 -0.1575 -0.1581 -0.0520
 7248W        W50342  24.080  18.306  19.699 -0.1097  0.0194  0.1663
 7249W        W50343  24.966  21.958  23.266  0.2854 -0.4313 -0.2104
 7250W        W50344  23.103  20.744  23.334  0.1382 -0.0173 -0.0091
 7251W        W50345  25.465  18.949  22.048  0.0906 -0.1847  0.1084
 7252W        W50346  23.437  20.336  21.254  0.0753 -0.2268 -0.1220
 7253W        W50347  25.527  21.137  22.948 -0.1267  0.1803  0.0284
 7254W        W50348  24.768  21.309  19.987 -0.2411 -0.1751 -0.1427
 7255W        W50349  24.451  17.172  22.973  0.0202  0.0789  0.0914
 7256W        W50350  23.887  18.555  23.205 -0.0591  0.0431 -0.0926
 7257W        W50351  23.873  20.718  18.839  0.2135  0.3902  0.3431
 7258W        W50352  24.353  20.821  20.719  0.0786 -0.0141 -0.0884
 7259W        W50353  25.371  20.620  23.308  0.0668  0.2990  0.2109
 7260W        W50354  27.635  19.395  19.584 -0.1617 -0.1043 -0.0483
 7261W        W50355  22.718  20.810  21.157  0.4061  0.1199  0.4799
 7262W        W50356  23.975  18.368  21.925  0.0443  0.2454 -0.0852
 7263W        W50357  23.968  20.243  22.034  0.1042 -0.2854  0.0178
 7264W        W50358  23.169  19.749  19.639  0.1069 -0.0089 -0.0222
 7265W        W50359  22.307  21.328  21.944  0.2300  0.1168 -0.1173
 7266W        W50360  22.850  22.598  18.865  0.0050 -0.2280  0.0952
 7267W        W50361  23.195  19.271  21.644  0.1251 -0.3085  0.1419
 7268W        W50362  23.662  18.993  22.495 -0.3132 -0.2031  0.1295
 7269W        W50363  25.834  17.835  20.647 -0.0856  0.1970  0.0396
 7270W        W50364  23.422  18.369  23.278  0.3017  0.0190 -0.0584
 7271W        W50365  25.910  18.241  21.404 -0.0893 -0.3384 -0.1664
 7272W        W50366  22.976  19.752  22.900  0.0838  0.1032  0.0505
 7273W        W50367  26.134  20.497  20.698 -0.1392  0.0555 -0.1243
 7274W        W50368  26.169  18.162  20.859  0.0661  0.0949 -0.2509
 7275W        W50369  25.127  21.067  20.430  0.1281  0.1196  0.0881
 7276W        W50370  22.475  20.092  21.541 -0.0468 -0.3770  0.4454
 7277W        W50371  23.697  19.666  20.201  0.0827 -0.0827  0.2429
 7278W        W50372  23.619  18.213  22.839  0.3122 -0.1160 -0.1089
 7279W        W50373  24.675  18.765  20.829 -0.1441 -0.0422  0.3736
 7280W        W50374  26.367  20.235  22.065 -0.0136  0.2326 -0.0011
 7281W        W50375  23.115  18.257  18.650 -0.3891  0.1910  0.2013
 7282W        W50376  25.556  18.717  20.533  0.1031 -0.1580  0.0373
 7283W        W50377  23.831  19.357  20.544 -0.2435 -0.2364  0.1800
 7284W        W50378  24.038  21.267  19.490  0.1821 -0.3053  0.1619
 7285W        W50379  26.046  19.383  22.752 -0.1139 -0.0519 -0.0499
 7286W        W50380  24.060  21.558  21.196 -0.0633 -0.0554  0.0265
 7287W        W50381  27.025  21.521  22.468  0.3012 -0.0846  0.3660
 7288W        W50382  23.644  21.759  21.448 -0.0273  0.1845  0.1714
 7289W        W50383  23.719  19.421  22.080  0.3136  0.1961 -0.2254
 7290W        W50384  22.838  20.040  19.383  0.1681 -0.2474  0.0792
 7291W        W50385  23.181  20.687  21.419  0.1067 -0.0819 -0.1826
 7292W        W50386  24.365  20.125  21.321  0.2666  0.0522 -0.0698
 7293W        W50387  23.582  18.548  19.795  0.1438 -0.1206 -0.3198
 7294W        W50388  25.305  21.668  22.945 -0.1079 -0.3635 -0.0539
 7295W        W50389  24.814  19.952  21.518 -0.1827 -0.3176  0.0128
 7296W        W50390  22.710  19.325  23.236  0.0013 -0.1900  0.1599
 7297W        W50391  26.126  17.434  22.463  0.1963  0.2131 -0.1949
 7298W        W50392  26.543  19.959  23.458  0.1677  0.1567  0.1246
 7299W        W50393  24.477  19.428  21.338 -0.2180  0.1397 -0.0584
 7300W        W50394  22.973  18.937  17.603  0.1575 -0.0130  0.0817
 7301W        W50395  24.881  20.271  22.566  0.1695  0.1000  0.0267
 7302W        W50396  22.933  21.340  19.663 -0.1712 -0.1466 -0.4695
 7303W        W50397  23.484  20.054  20.761  0.3103  0.0543  0.2922
 7304W        W50398  23.646  21.033  20.542  0.2239  0.3364 -0.0764
 7305W        W50399  25.484  17.324  22.047 -0.3898 -0.1913  0.2665
 7306W        W50400  20.473  19.405  20.817  0.0688  0.0516  0.2808
 7307W        W50401  24.198  19.483  24.745 -0.1756 -0.0104  0.2238
 7308W        W50402  24.818  19.582  20.020  0.2580 -0.2207  0.1194
 7309W        W50403  23.476  20.484  23.990  0.1054  0.1080  0.0535
 7310W        W50404  24.966  17.952  20.588 -0.1348 -0.4595 -0.0006
 7311W        W50405  25.886  19.032  19.696  0.0974  0.4275 -0.2881
 7312W        W50406  23.793  17.768  22.890  0.1233  0.1638 -0.0048
 7313W        W50407  27.042  19.716  21.309 -0.2302 -0.0255 -0.2160
 7314W        W50408  24.335  19.567  20.300 -0.4114 -0.0524 -0.0055
 7315W        W50409  24.583  18.232  18.876 -0.0054 -0.1124  0.0899
 7316W        W50410  23.127  19.264  25.053  0.0725  0.0008  0.2515
 7317W        W50411  22.228  20.965  21.056  0.2627 -0.3829  0.3134
 7318W        W50412  24.873  21.248  22.704 -0.0494 -0.0780 -0.0383
 7319W        W50413  25.886  20.442  18.931  0.1129  0.3116  0.1020
 7320W        W50414  25.803  20.021  20.534  0.0452  0.0927  0.3540
 7321W        W50415  22.908  20.497  20.020  0.0366  0.0664 -0.1222
 7322W        W50416  25.089  20.812  22.734  0.0290 -0.0587  0.2454
 7323W        W50417  25.442  20.072  22.286 -0.1686  0.2431  0.0110
 7324W        W50418  23.852  17.891  21.913 -0.1056  0.1932  0.1023
 7325W        W50419  24.645  20.057  20.533  0.0285  0.1250  0.0076
 7326W        W50420  25.068  18.609  21.745  0.3079 -0.1542 -0.3537
 7327W        W50421  23.477  21.273  19.760 -0.2140 -0.0987 -0.3026
 7328W        W50422  25.356  18.714  23.101  0.0462  0.1471 -0.0808
 7329W        W50423  24.942  18.054  23.577  0.1939 -0.1340 -0.1364
 7330W        W50424  25.009  18.509  23.380 -0.0935 -0.0933  0.1192
 7331W        W50425  25.476  20.186  24.516 -0.1108  0.1099 -0.2249
 7332W        W50426  26.052  19.355  20.509  0.0468  0.2265 -0.1903
 7333W        W50427  25.431  18.463  22.026 -0.1139 -0.0566 -0.2685
 7334W        W50428  23.959  18.929  19.621 -0.0208 -0.0563  0.0697
 7335W        W50429  24.462  18.357  22.682 -0.0821 -0.0149  0.3751
 7336W        W50430  22.648  21.274  24.170 -0.1491  0.0227 -0.1715
 7337W        W50431  23.689  21.472  23.302 -0.2231 -0.2464 -0.0178
 7338W        W50432  24.134  19.541  22.899  0.3503 -0.2552  0.0290
 7339W        W50433  25.799  20.448  21.340 -0.1275  0.0879 -0.0956
 7340W        W50434  23.981  19.213  23.914 -0.0101 -0.3973  0.1285
 7341W        W50435  25.652  18.688  19.383 -0.0896 -0.1187 -0.2891
 7342W        W50436  23.430  22.033  21.038 -0.0020 -0.0767  0.1093
 7343W        W50437  22.610  21.665  18.832 -0.2728  0.0594  0.0602
 7344W        W50438  24.299  17.160  21.331  0.1358  0.3605  0.2803
 7345W        W50439  24.329  21.406  23.047  0.0442 -0.2018  0.3299
 7346W        W50440  24.859  20.698  18.636  0.1117  0.1202  0.1081
 7347W        W50441  24.134  19.235  22.372  0.1936  0.1212 -0.2877
 7348W        W50442  23.971  21.303  20.020 -0.1152 -0.0597  0.0114
 7349W        W50443  24.787  17.928  22.579 -0.1241 -0.0433 -0.1133
 7350W        W50444  21.895  21.161  21.409  0.1467 -0.1341  0.0624
 7351W        W50445  22.699  19.778  17.906 -0.1049 -0.1734  0.0842
 7352W        W50446  22.836  21.107  19.260 -0.3063  0.2212 -0.0753
 7353W        W50447  24.210  18.787  21.676 -0.0452  0.2337 -0.1261
 7354W        W50448  25.136  19.134  20.596 -0.2202  0.0156 -0.0596
 7355W        W50449  21.996  18.494  21.723  0.1700  0.1069  0.0654
 7356W        W50450  24.527  18.501  21.366  0.1873  0.1150 -0.0473
 7357W        W50451  24.025  20.426  22.799 -0.3328 -0.0459  0.0105
 7358W        W50452  25.100  19.847  21.918 -0.6107 -0.0481 -0.2735
 7359W        W50453  25.072  19.141  20.105  0.0045  0.0446  0.1137
 7360W        W50454  24.731  19.609  22.797 -0.0394  0.2527 -0.1916
 7361W        W50455  23.031  20.307  24.214  0.1905 -0.1088 -0.0429
 7362W        W50456  22.631  19.110  17.194 -0.0384  0.1434 -0.1976
 7363W        W50457  25.777  19.162  22.351 -0.1181 -0.1724 -0.0188
 7364W        W50458  25.031  19.548  21.500 -0.1503  0.1818  0.0480
 7365W        W50459  23.731  22.276  19.792 -0.1031  0.1321 -0.1094
 7366W        W50460  25.861  20.451  22.026  0.2234 -0.0899 -0.0189
 7367W        W50461  25.106  19.604  19.440 -0.1961  0.3865  0.0443
 7368W        W50462  23.875  20.438  23.327 -0.0510 -0.0849 -0.0213
 7369W        W50463  23.404  18.731  22.922  0.0884  0.1604 -0.4050
 7370W        W50464  24.455  19.198  23.197  0.0318  0.1420  0.0091
 7371W        W50465  24.436  19.745  20.938  0.1500  0.1867 -0.4293
 7372W        W50466  22.617  18.682  18.938  0.4585 -0.3481  0.0030
 7373W        W50467  24.471  20.194  22.878 -0.2264  0.0121 -0.3057
 7374W        W50468  25.558  18.696  21.370 -0.1592  0.0225 -0.2426
 7375W        W50469  24.913  19.693  21.002  0.2760  0.2479  0.3523
 7376W        W50470  24.182  20.840  22.401  0.4831 -0.1984  0.1512
 7377W        W50471  24.621  18.436  21.993  0.1753  0.0413 -0.2126
 7378W        W50472  26.508  20.815  20.925  0.4091  0.3787  0.3564
 7379W        W50473  24.018  19.062  22.946 -0.0282  0.2052 -0.0710
 7380W        W50474  22.878  20.238  18.096  0.1904  0.0157  0.1511
 7381W        W50475  22.753  18.685  20.922  0.0751  0.2783 -0.0236
 7382W        W50476  23.884  20.278  21.523  0.0058  0.0713  0.1032
 7383W        W50477  25.417  19.447  21.128  0.1362 -0.1792  0.0726
 7384W        W50478  23.007  19.464  21.094  0.0902 -0.0139 -0.1377
 7385W        W50479  22.376  19.470  20.016 -0.2393  0.0231 -0.1329
 7386W        W50480  24.039  19.969  22.648  0.1790 -0.2369 -0.3127
 7387W        W50481  25.154  18.629  20.285 -0.0569 -0.2480  0.1584
 7388W        W50482  25.366  20.424  19.913  0.1945 -0.0857 -0.0122
 7389W        W50483  23.947  18.367  20.618  0.1407 -0.0821 -0.0196
 7390W        W50484  25.802  18.591  22.434  0.0609  0.2177  0.1880
 7391W        W50485  23.968  20.790  20.210  0.2198  0.1350  0.1738
 7392W        W50486  25.050  19.166  22.839  0.1029  0.1699 -0.0354
 7393W        W50487  23.850  17.440  21.496 -0.1967  0.0606  0.1366
 7394W        W50488  26.898  20.629  22.379  0.1193  0.2246  0.3275
 7395W        W50489  22.325  18.851  22.349 -0.0891  0.2038  0.3217
 7396W        W50490  24.044  21.135  23.329 -0.1912  0.2721 -0.2246
 7397W        W50491  22.399  19.286  22.193  0.2120  0.0360 -0.2522
 7398W        W50492  24.755  17.538  21.283 -0.2295 -0.2208 -0.2851
 7399W        W50493  24.358  19.071  17.907  0.1645 -0.2064  0.4446
 7400W        W50494  23.449  19.167  20.300 -0.3803  0.0088 -0.0397
 7401W        W50495  25.836  21.000  22.006  0.2137  0.1393 -0.0425
 7402W        W50496  24.785  19.186  21.015  0.0389 -0.1281 -0.0093
 7403W        W50497  27.295  18.996  20.491 -0.1452 -0.0401  0.1692
 7404W        W50498  23.640  19.431  21.580  0.0480  0.0208  0.0321
 7405W        W50499  25.342  19.462  19.858  0.0778 -0.1125 -0.2703
 7406W        W50500  24.288  18.724  20.510 -0.1025  0.3421  0.0102
 7407W        W50501  24.042  19.842  20.531 -0.2891 -0.0594 -0.1523
 7408W        W50502  23.131  18.346  22.830 -0.0544  0.2527  0.1619
 7409W        W50503  25.903  21.348  20.860  0.1044 -0.0474  0.0969
 7410W        W50504  23.881  18.903  20.771  0.1594  0.3814  0.2827
 7411W        W50505  24.516  18.529  23.491  0.2725 -0.2678  0.1861
 7412W        W50506  27.077  19.259  23.671 -0.3369 -0.2395  0.0084
 7413W        W50507  23.119  20.071  23.490 -0.1264  0.0063 -0.1281
 7414W        W50508  23.007  18.865  23.283  0.0596  0.5388 -0.0238
 7415W        W50509  25.840  21.906  22.184  0.2455 -0.0575 -0.4338
 7416W        W50510  25.090  18.692  19.427 -0.1225  0.3042  0.0047
 7417W        W50511  26.088  19.559  21.033 -0.0688  0.2072 -0.1146
 7418W        W50512  25.244  18.352  20.768 -0.2639 -0.1021  0.1563
 7419W        W50513  26.583  19.637  20.331  0.0677 -0.0282 -0.1691
 7420W        W50514  23.578  19.420  19.743 -0.0395 -0.0232  0.0714
 7421W        W50515  23.681  19.415  23.119  0.1167  0.3579 -0.1080
 7422W        W50516  24.095  19.715  18.524  0.1667  0.0777  0.1224
 7423W        W50517  23.887  18.401  23.721 -0.0105 -0.1940 -0.0641
 7424W        W50518  24.333  21.528  19.781 -0.3138  0.2036  0.2658
 7425W        W50519  24.370  19.929  21.805 -0.0817 -0.1495 -0.2114
 7426W        W50520  25.440  18.890  19.856  0.1085  0.0218  0.2737
 7427W        W50521  23.225  19.263  18.716  0.3776  0.2305  0.1552
 7428W        W50522  22.510  20.634  22.726 -0.2681  0.0010 -0.4378
 7429W        W50523  24.623  18.479  16.567 -0.1470 -0.0384 -0.3205
 7430W        W50524  24.796  20.811  19.671 -0.1044  0.0653  0.2919
 7431W        W50525  25.147  20.873  23.739  0.0851 -0.3778  0.2191
 7432W        W50526  25.904  20.201  22.518 -0.3055  0.2897  0.0911
 7433W        W50527  25.148  19.480  18.506  0.0996  0.3402  0.5334
 7434W        W50528  25.648  19.630  23.413 -0.2191  0.1249 -0.0048
 7435W        W50529  22.993  20.087  21.298 -0.1332  0.1379 -0.0639
 7436W        W50530  25.899  17.702  22.114  0.4961 -0.1313  0.2931
 7437W        W50531  24.473  19.722  23.338 -0.0607 -0.0388 -0.1250
 7438W        W50532  22.849  20.323  20.493 -0.2873 -0.0353  0.0786
 7439W        W50533  24.650  21.178  20.515  0.2682 -0.1058 -0.2550
 7440W        W50534  25.061  18.154  22.053 -0.3537 -0.1250  0.1594
 7441W        W50535  24.721  18.960  20.339 -0.1256 -0.1158 -0.0447
 7442W        W50536  22.542  20.248  21.078  0.0583  0.1706  0.1748
 7443W        W50537  26.056  18.703  21.224  0.0177 -0.1150 -0.0267
 7444W        W50538  24.849  21.814  22.832  0.0594  0.1885 -0.0358
 7445W        W50539  22.719  19.200  21.825  0.0863  0.3403 -0.0880
 7446W        W50540  24.408  20.360  22.341  0.1094 -0.0809 -0.1038
 7447W        W50541  26.428  21.088  21.344  0.0608  0.2959  0.2952
 7448W        W50542  24.464  20.415  21.750  0.1610  0.0002  0.1465
 7449W        W50543  21.880  19.136  22.442  0.3869 -0.1158 -0.0497
 7450W        W50544  23.552  17.985  24.086  0.0045 -0.2998 -0.0358
 7451W        W50545  24.541  19.811  22.452 -0.3306  0.2089  0.0359
 7452W        W50546  23.581  18.075  18.519 -0.1690  0.0954 -0.2747
 7453W        W50547  25.053  20.355  19.442 -0.0774 -0.0682 -0.3411
 7454W        W50548  23.094  20.472  22.759  0.0453 -0.0727 -0.0249
 7455W        W50549  22.824  20.436  21.606  0.1250 -0.0188 -0.1332
 7456W        W50550  24.345  21.142  21.042 -0.0008  0.0543  0.2142
 7457W        W50551  24.633  20.832  20.152 -0.2430 -0.0401  0.0491
 7458W        W50552  23.841  20.867  19.696  0.0468  0.1983  0.0630
 7459W        W50553  23.824  21.179  22.364  0.3912 -0.0993 -0.2393
 7460W        W50554  24.296  18.726  19.995 -0.1439  0.0250 -0.1351
 7461W        W50555  23.214  21.644  22.395  0.4157 -0.1171 -0.1120
 7462W        W50556  22.180  21.740  20.161  0.2473  0.1677 -0.0854
 7463W        W50557  24.908  19.189  19.641  0.0646 -0.2122  0.2897
 7464W        W50558  23.480  20.467  20.004 -0.2465  0.1422 -0.0191
 7465W        W50559  25.719  20.467  22.932  0.0396 -0.1246 -0.1227
 7466W        W50560  24.786  18.726  19.057  0.0034  0.1388  0.0272
 7467W        W50561  24.887  18.720  22.346  0.0413  0.0136 -0.1935
 7468W        W50562  27.157  18.532  20.598 -0.1507 -0.1896  0.2090
 7469W        W50563  24.803  20.602  23.380  0.1670  0.0575  0.1860
 7470W        W50564  24.041  19.669  21.500 -0.0273 -0.1475  0.0844
 7471W        W50565  24.763  20.215  18.466  0.2058  0.1280 -0.3273
 7472W        W50566  22.732  19.664  22.491 -0.2095  0.1951 -0.2197
 7473W        W50567  26.155  19.153  23.677 -0.0314  0.4458  0.1181
 7474W        W50568  22.759  21.439  21.858 -0.1944  0.0670 -0.2613
 7475W        W50569  27.082  21.383  20.206  0.1635  0.2566  0.1943
 7476W        W50570  22.722  19.508  19.589  0.0135 -0.0039 -0.0651
 7477W        W50571  25.318  19.942  20.726  0.0159 -0.0237 -0.0398
 7478W        W50572  26.428  17.805  22.720 -0.0635 -0.3417 -0.1629
 7479W        W50573  25.983  20.828  21.570  0.1449 -0.2100  0.0395
 7480W        W50574  25.010  18.556  21.243  0.1728  0.2276  0.0758
 7481W        W50575  23.717  21.812  19.969  0.1554  0.1138 -0.2462
 7482W        W50576  23.406  20.428  20.520  0.1350 -0.2469  0.1009
 7483W        W50577  23.507  21.157  24.746  0.0177  0.1793  0.1653
 7484W        W50578  22.733  19.159  18.710 -0.1099  0.2250 -0.0654
 7485W        W50579  24.198  18.503  20.996 -0.1059  0.1814  0.0443
 7486W        W50580  23.466  18.545  20.669 -0.1652  0.2102  0.2527
 7487W        W50581  27.689  17.681  22.487 -0.2238 -0.0841 -0.2391
 7488W        W50582  24.019  19.465  21.032 -0.1597  0.0616 -0.2218
 7489W        W50583  26.003  18.289  20.278  0.5417  0.3614  0.0746
 7490W        W50584  24.734  21.111  23.589  0.1259 -0.1144 -0.0028
 7491W        W50585  23.537  20.328  22.570 -0.3023 -0.0244  0.1665
 7492W        W50586  24.227  19.860  19.359 -0.0095 -0.2657 -0.1360
 7493W        W50587  25.091  19.206  21.916  0.0464  0.1764  0.1400
 7494W        W50588  26.580  21.351  19.339 -0.1863  0.2910  0.0062
 7495W        W50589  25.915  22.372  23.677  0.0534  0.2169  0.1317
 7496W        W50590  23.078  19.397  20.052  0.0501  0.0064  0.1120
 7497W        W50591  25.358  19.184  19.409 -0.0766  0.0168 -0.0046
 7498W        W50592  23.929  19.966  21.024 -0.1966 -0.2726 -0.0347
 7499W        W50593  23.601  19.852  22.327 -0.0617 -0.1629 -0.0899
 7500W        W50594  26.331  19.949  22.898  0.2622 -0.4417 -0.0288
 7501W        W50595  23.453  19.390  19.159 -0.2008  0.1801  0.0691
 7502W        W50596  24.976  20.894  20.928 -0.4411  0.2980  0.1218
 7503W        W50597  25.769  19.728  22.488 -0.1600 -0.2311 -0.0237
 7504W        W50598  23.928  22.308  20.357  0.0017 -0.1765 -0.5231
 7505W        W50599  24.525  19.955  19.916  0.1213  0.2644 -0.0460
 7506W        W50600  24.577  20.726  22.644  0.2044  0.0827  0.1240
 7507W        W50601  23.295  19.177  22.151  0.2330 -0.1929  0.0356
 7508W        W50602  25.405  20.119  22.787 -0.0526  0.0084  0.2564
 7509W        W50603  25.545  19.657  21.984 -0.4327 -0.0255 -0.0491
 7510W        W50604  24.391  18.068  20.448 -0.0843 -0.1778 -0.2501
 7511W        W50605  23.415  20.232  22.059 -0.1533  0.3025 -0.2254
 7512W        W50606  24.432  22.321  22.157  0.0105 -0.2763 -0.0680
 7513W        W50607  26.343  18.628  21.666 -0.3156  0.3064  0.1991
 7514W        W50608  26.197  18.929  22.591  0.1185  0.3399 -0.0583
 7515W        W50609  23.687  21.518  19.290  0.0180  0.0566  0.2373
 7516W        W50610  24.071  18.109  22.326  0.2735 -0.0056  0.2652
 7517W        W50611  24.281  21.419  22.519  0.0471  0.2800 -0.0660
 7518W        W50612  24.167  21.864  25.062 -0.1790 -0.0120 -0.0945
 7519W        W50613  24.008  20.351  19.136 -0.4432 -0.0125  0.1574
 7520W        W50614  23.477  20.247  23.060 -0.0607  0.1541  0.2596
 7521W        W50615  24.389  20.465  19.772 -0.2736  0.0910  0.2273
 7522W        W50616  24.679  21.841  20.025 -0.0331  0.0377  0.0109
 7523W        W50617  26.397  20.522  21.388  0.0421 -0.4624  0.0767
 7524W        W50618  25.066  20.019  19.804  0.0555 -0.3111  0.2441
 7525W        W50619  25.395  21.232  21.684 -0.0100 -0.1204 -0.2662
 7526W        W50620  23.185  18.569  19.467 -0.1709  0.1281  0.2412
 7527W        W50621  25.872  18.203  22.031  0.0699  0.1216 -0.1258
 7528W        W50622  24.363  18.069  21.789 -0.3846  0.0613 -0.2144
 7529W        W50623  23.258  19.516  22.524 -0.0084 -0.2908  0.0815
 7530W        W50624  23.046  19.129  18.276 -0.1063  0.0549 -0.0346
 7531W        W50625  24.106  19.565  19.811 -0.0189  0.0022  0.0785
 7532W        W50626  24.121  19.755  22.167  0.1839  0.0849  0.3160
 7533W        W50627  24.414  18.581  24.356 -0.1239 -0.0105  0.1480
 7534W        W50628  22.885  18.731  22.055 -0.1763 -0.2259 -0.2342
 7535W        W50629  23.884  20.631  20.798  0.0015 -0.0433 -0.0528
 7536W        W50630  23.508  18.968  19.462 -0.1281  0.1200 -0.0128
 7537W        W50631  24.613  20.716  21.406  0.0264  0.0936  0.1121
 7538W        W50632  24.066  17.642  21.050  0.2831 -0.0508 -0.0481
 7539W        W50633  23.783  20.779  21.355  0.2625  0.1706  0.1593
 7540W        W50634  25.197  21.066  22.264  0.2353 -0.0043 -0.0135
 7541W        W50635  24.752  18.404  20.500  0.0027 -0.1813  0.0354
 7542W        W50636  25.275  21.549  23.450  0.1771 -0.1329 -0.0783
 7543W        W50637  22.514  22.170  20.079  0.1822 -0.1747  0.1388
 7544W        W50638  24.616  19.386  21.797 -0.0261  0.1124  0.0858
 7545W        W50639  23.722  17.332  23.338 -0.3955  0.0396 -0.2707
 7546W        W50640  23.144  19.464  20.572 -0.0764 -0.5092 -0.0019
 7547W        W50641  24.560  17.778  20.845 -0.1495  0.0282  0.0799
 7548W        W50642  24.497  21.296  21.671 -0.1639 -0.0487  0.3349
 7549W        W50643  23.865  21.918  18.971 -0.2937  0.2184  0.0836
 7550W        W50644  23.499  19.862  21.679  0.0136  0.0623  0.1242
 7551W        W50645  22.621  20.862  23.181 -0.2430  0.1373  0.0617
 7552W        W50646  23.364  18.275  21.309  0.2857 -0.0775 -0.2057
 7553W        W50647  27.035  18.558  20.110  0.1195 -0.1867 -0.0433
 7554W        W50648  23.819  21.274  24.414  0.0035  0.1002 -0.1080
 7555W        W50649  25.681  20.440  20.810  0.1129  0.0401  0.4693
 7556W        W50650  25.988  18.068  22.499  0.3235 -0.0966  0.1575
 7557W        W50651  26.748  21.132  20.564  0.3118 -0.0423 -0.0046
 7558W        W50652  23.547  18.653  21.652 -0.0256 -0.1007 -0.0438
 7559W        W50653  23.503  18.983  23.331  0.2136  0.2392  0.0149
 7560W        W50654  24.829  18.733  22.969  0.0367  0.2095 -0.0378
 7561W        W50655  23.826  17.974  21.413 -0.0918  0.1445 -0.1899
 7562W        W50656  24.823  19.006  21.540  0.1823  0.1550 -0.0377
 7563W        W50657  25.395  22.154  20.665 -0.2320  0.1401 -0.2282
 7564W        W50658  23.122  19.699  22.032 -0.0673  0.2702 -0.0421
 7565W        W50659  23.522  20.318  19.185  0.1074  0.2706  0.0315
 7566W        W50660  24.309  18.695  23.033  0.1799  0.3144 -0.1754
 7567W        W50661  25.781  21.519  22.705  0.0900  0.0760  0.4536
 7568W        W50662  25.174  21.410  23.911 -0.0317 -0.4599  0.1079
 7569W        W50663  25.277  18.955  21.051  0.0697  0.0543 -0.2000
 7570W        W50664  25.464  21.444  22.138  0.1561  0.2318  0.1154
 7571W        W50665  24.335  22.550  22.569  0.0838 -0.1379 -0.2112
 7572W        W50666  24.959  22.765  24.837 -0.2459 -0.3263 -0.1264
 7573W        W50667  24.863  21.995  21.546 -0.0500 -0.0706  0.0133
 7574W        W50668  25.599  19.206  22.910  0.1887  0.0454 -0.2751
 7575W        W50669  22.875  18.516  20.486  0.0859  0.0108 -0.1698
 7576W        W50670  23.830  20.246  20.405 -0.0697  0.2935 -0.1908
 7577W        W50671  24.710  19.503  20.602  0.0069  0.4014 -0.3135
 7578W        W50672  26.620  18.272  22.716  0.1212  0.0907  0.1430
 7579W        W50673  22.404  19.825  20.747  0.3082  0.0621  0.0202
 7580W        W50674  24.934  18.064  19.677  0.2184  0.0320 -0.1811
 7581W        W50675  24.167  20.982  22.836 -0.0201  0.0303  0.0494
 7582W        W50676  24.592  20.988  23.099 -0.1913 -0.2314  0.2957
 7583W        W50677  21.658  20.651  26.632 -0.2985  0.1095 -0.0624
 7584W        W50678  22.747  18.949  25.180 -0.1076 -0.0914 -0.1066
 7585W        W50679  25.533  19.861  24.101 -0.2550 -0.0198  0.2500
 7586W        W50680  24.247  18.667  22.351 -0.0257  0.2458  0.1854
 7587W        W50681  22.207  18.994  25.282  0.0116  0.2626  0.4218
 7588W        W50682  24.739  20.979  24.099 -0.3726  0.0269  0.2148
 7589W        W50683  23.287  18.161  27.242  0.1002  0.0184 -0.0394
 7590W        W50684  24.638  21.954  27.780  0.0611  0.1252 -0.0259
 7591W        W50685  25.325  22.170  26.545 -0.0777  0.1786  0.2699
 7592W        W50686  23.523  19.122  25.413 -0.1401  0.2121  0.1679
 7593W        W50687  23.435  20.309  26.765  0.1093  0.0485 -0.2663
 7594W        W50688  23.533  21.498  25.606 -0.1309 -0.2031  0.3646
 7595W        W50689  25.014  18.879  25.030 -0.1602 -0.0266 -0.2372
 7596W        W50690  21.131  17.582  23.153 -0.0233 -0.0327  0.1234
 7597W        W50691  24.241  20.920  27.082  0.2423 -0.5039 -0.4359
 7598W        W50692  22.954  19.819  24.965  0.0328 -0.4170  0.0990
 7599W        W50693  22.364  20.222  24.760 -0.0493  0.2476 -0.0563
 7600W        W50694  24.088  18.159  24.821 -0.0098 -0.0387  0.0907
 7601W        W50695  23.458  21.903  25.270  0.0625 -0.3505 -0.1103
 7602W        W50696  23.620  21.058  28.198  0.1447  0.0267 -0.0217
 7603W        W50697  23.824  20.622  26.866  0.0019 -0.1100  0.0638
 7604W        W50698  24.268  21.203  23.817 -0.1039  0.1663  0.0190
 7605W        W50699  23.167  18.691  22.461  0.5192  0.0610  0.1803
 7606W        W50700  21.055  18.468  24.430 -0.1667 -0.2088  0.1769
 7607W        W50701  23.070  20.006  26.067 -0.3450  0.0516 -0.1869
 7608W        W50702  25.370  19.672  25.366  0.3273 -0.4460 -0.2745
 7609W        W50703  23.973  20.127  25.455  0.0315 -0.1027 -0.3025
 7610W        W50704  22.651  20.654  25.029 -0.2111 -0.1161  0.2694
 7611W        W50705  24.860  21.274  25.816  0.1500 -0.0889  0.1847
 7612W        W50706  24.494  19.803  28.350  0.4788  0.1995 -0.1079
 7613W        W50707  22.729  18.796  22.787  0.0867  0.0136 -0.3635
 7614W        W50708  23.504  21.858  24.173 -0.3584  0.0308  0.0857
 7615W        W50709  22.795  19.985  23.897 -0.0403  0.1711  0.2659
 7616W        W50710  24.457  21.635  24.099  0.2645  0.1240 -0.2301
 7617W        W50711  23.874  21.885  27.319  0.1565  0.0131  0.3466
 7618W        W50712  22.692  23.160  26.852 -0.0684  0.0457  0.0242
 7619W        W50713  23.618  19.856  23.399 -0.0075 -0.1740 -0.0899
 7620W        W50714  24.122  22.461  26.948  0.3795  0.3129 -0.0997
 7621W        W50715  23.363  20.708  27.157  0.1009  0.2643  0.2155
 7622W        W50716  23.491  19.995  26.323  0.0959 -0.0890 -0.0407
 7623W        W50717  25.199  20.162  25.535  0.3425 -0.3085 -0.1178
 7624W        W50718  23.258  21.471  23.818 -0.2478  0.2463  0.2822
 7625W        W50719  23.833  21.477  25.190  0.1361 -0.2250  0.0376
 7626W        W50720  24.685  21.065  27.285  0.1515  0.1370  0.2660
 7627W        W50721  21.334  20.369  24.464  0.1214 -0.0243 -0.0691
 7628W        W50722  26.071  20.101  27.234 -0.3603 -0.3803  0.0620
 7629W        W50723  23.280  20.688  24.482  0.0239 -0.1286 -0.2928
 7630W        W50724  24.845  19.996  23.536  0.0675  0.0178  0.1388
 7631W        W50725  23.136  18.518  23.648 -0.1481 -0.0517 -0.0725
 7632W        W50726  23.741  19.476  22.593 -0.1995 -0.0645  0.1347
 7633W        W50727  23.143  16.411  24.977 -0.0726 -0.4050 -0.1188
 7634W        W50728  23.100  21.952  24.611 -0.2859  0.0560  0.2562
 7635W        W50729  23.532  18.409  25.862  0.2294 -0.2590 -0.1608
 7636W        W50730  25.333  21.162  25.265 -0.0276 -0.1714  0.2808
 7637W        W50731  24.605  19.898  24.434 -0.2240 -0.3253 -0.0309
 7638W        W50732  23.043  19.999  26.698  0.0978 -0.2192  0.1533
 7639W        W50733  22.879  21.186  25.359 -0.0256  0.1131  0.0937
 7640W        W50734  22.091  18.589  24.994 -0.1100 -0.0849  0.3353
 7641W        W50735  25.424  22.796  25.052  0.0285  0.1799  0.1133
 7642W        W50736  25.612  21.553  25.391 -0.1345 -0.0766 -0.2063
 7643W        W50737  24.896  21.404  24.328  0.1126 -0.0987 -0.0709
 7644W        W50738  22.023  18.231  24.387  0.0328 -0.0551 -0.1302
 7645W        W50739  22.941  19.257  25.556 -0.0109 -0.1009 -0.0255
 7646W        W50740  22.876  20.548  26.763  0.0063 -0.0434 -0.3026
 7647W        W50741  23.669  17.404  21.956 -0.1675 -0.5218  0.2087
 7648W        W50742  25.732  20.218  28.065  0.3580 -0.0867  0.1269
 7649W        W50743  21.638  20.056  27.112  0.3585  0.1857  0.1979
 7650W        W50744  24.784  19.932  25.826 -0.0271 -0.0158 -0.1942
 7651W        W50745  23.799  21.082  25.610 -0.2724 -0.1556  0.4198
 7652W        W50746  25.116  21.665  25.775  0.1659  0.4131 -0.1029
 7653W        W50747  24.387  20.205  23.421 -0.0430  0.0209  0.1364
 7654W        W50748  24.447  18.868  26.544 -0.2151  0.2328 -0.2289
 7655W        W50749  24.873  18.193  27.034 -0.3526 -0.0537  0.2462
 7656W        W50750  22.844  21.052  23.704  0.2274 -0.0581  0.1464
 7657W        W50751  22.800  19.389  24.664 -0.0445  0.2876  0.0663
 7658W        W50752  25.952  21.954  28.899 -0.0639 -0.0285  0.4039
 7659W        W50753  25.277  19.715  23.705 -0.1273  0.0919  0.2908
 7660W        W50754  23.549  20.202  25.159 -0.3651  0.0171  0.2668
 7661W        W50755  22.610  19.476  25.159 -0.2210 -0.0716  0.1133
 7662W        W50756  24.376  22.156  27.248  0.1882  0.2786 -0.0841
 7663W        W50757  23.066  21.014  22.871 -0.2504 -0.0765  0.0465
 7664W        W50758  23.784  20.384  24.738 -0.1378 -0.3350 -0.1126
 7665W        W50759  22.415  18.951  23.207  0.0830  0.0831 -0.0550
 7666W        W50760  21.778  17.967  24.852  0.0620  0.0543 -0.2014
 7667W        W50761  24.363  20.386  25.919  0.1056 -0.3575  0.2474
 7668W        W50762  25.588  18.620  25.004 -0.0543  0.0448  0.1124
 7669W        W50763  21.431  19.320  25.186 -0.1123 -0.0499  0.0266
 7670W        W50764  25.025  17.935  24.652 -0.2088  0.2441 -0.2336
 7671W        W50765  22.860  19.866  24.441 -0.0109  0.0724 -0.2705
 7672W        W50766  24.765  22.946  24.373 -0.1413  0.0046  0.2175
 7673W        W50767  24.930  20.907  25.029  0.0169  0.2421  0.0208
 7674W        W50768  25.426  21.439  24.434  0.0593 -0.0990 -0.2386
 7675W        W50769  21.399  19.680  25.713  0.2951 -0.0542 -0.0849
 7676W        W50770  21.689  19.798  25.158  0.0816 -0.1598  0.0440
 7677W        W50771  23.629  19.893  27.694 -0.2574 -0.0462 -0.0924
 7678W        W50772  23.358  19.476  25.905  0.2246  0.2584  0.1170
 7679W        W50773  25.849  20.034  28.503  0.0554  0.1311 -0.1639
 7680W        W50774  22.573  18.078  24.295  0.2397  0.3360 -0.0332
 7681W        W50775  24.634  19.362  26.631 -0.1101  0.0573  0.3214
 7682W        W50776  24.036  19.932  24.892  0.0388 -0.3306  0.0377
 7683W        W50777  23.036  19.169  23.730  0.1068  0.0953 -0.5156
 7684W        W50778  24.264  18.416  27.769 -0.1447  0.1759  0.2552
 7685W        W50779  25.108  20.988  23.188 -0.0194  0.0276  0.0244
 7686W        W50780  25.592  22.603  27.475 -0.0858 -0.3856 -0.0521
 7687W        W50781  24.689  21.883  25.980  0.0871  0.0835 -0.3055
 7688W        W50782  22.635  19.844  27.009  0.0572  0.2139  0.0461
 7689W        W50783  22.476  19.571  24.241 -0.1362  0.1238 -0.0466
 7690W        W50784  22.721  22.502  25.258 -0.2348  0.0650  0.0601
 7691W        W50785  23.428  20.660  24.999 -0.3032 -0.1789  0.1653
 7692W        W50786  23.450  19.808  24.863 -0.0043  0.1182  0.0566
 7693W        W50787  23.514  21.908  26.383  0.3921 -0.0030 -0.0893
 7694W        W50788  23.489  20.107  24.399 -0.0313 -0.1785  0.2362
 7695W        W50789  21.338  20.611  26.237  0.0081 -0.1591  0.0317
 7696W        W50790  23.851  19.725  27.193  0.1115  0.0242  0.1388
 7697W        W50791  24.885  19.618  26.203  0.3115 -0.1027  0.1356
 7698W        W50792  24.871  20.320  25.169  0.1714  0.0997 -0.0369
 7699W        W50793  22.645  17.740  22.587  0.1108 -0.0425  0.0589
 7700W        W50794  24.503  22.389  24.829  0.1774  0.4871 -0.1210
 7701W        W50795  22.990  21.721  24.164 -0.0048  0.1289 -0.1372
 7702W        W50796  21.304  20.132  24.933  0.0793  0.2958  0.0594
 7703W        W50797  23.863  20.866  23.741  0.0056  0.0358  0.0459
 7704W        W50798  24.677  18.503  25.917 -0.0369 -0.4034  0.0014
 7705W        W50799  22.535  18.785  27.108  0.2812 -0.3952 -0.4950
 7706W        W50800  24.007  19.864  26.212  0.1371  0.1575  0.1642
 7707W        W50801  21.916  18.189  23.312  0.0846  0.0558 -0.2252
 7708W        W50802  21.653  22.566  27.366  0.3143 -0.2478 -0.0418
 7709W        W50803  24.439  20.246  25.471  0.1143  0.2283  0.1035
 7710W        W50804  24.732  19.260  24.240 -0.1873  0.0573  0.0059
 7711W        W50805  24.122  21.371  27.007 -0.0874 -0.1018 -0.0105
 7712W        W50806  24.374  20.721  23.604 -0.0053  0.0256 -0.0974
 7713W        W50807  23.995  18.913  23.497  0.0528  0.0193 -0.0133
 7714W        W50808  24.055  18.689  24.666 -0.1757 -0.0626 -0.0196
 7715W        W50809  20.981  20.305  27.307  0.1198 -0.0291  0.0050
 7716W        W50810  24.567  21.596  25.612 -0.1154 -0.1477  0.0836
 7717W        W50811  24.338  21.168  24.386  0.2216  0.0177 -0.0608
 7718W        W50812  23.790  18.518  22.368 -0.1499 -0.0873 -0.2257
 7719W        W50813  26.091  21.387  25.728 -0.2062  0.4194 -0.0973
 7720W        W50814  22.335  19.786  26.090  0.1279  0.1630  0.0054
 7721W        W50815  25.251  21.646  27.300 -0.1024  0.0181 -0.0205
 7722W        W50816  24.040  20.783  26.029  0.1603  0.3109  0.1565
 7723W        W50817  21.630  17.238  26.286  0.1663  0.0282  0.2292
 7724W        W50818  23.065  20.253  24.721  0.2546  0.1208 -0.2295
 7725W        W50819  23.286  17.880  25.000  0.1699  0.1249 -0.0271
 7726W        W50820  22.267  19.869  23.846 -0.2103 -0.1293  0.0379
 7727W        W50821  24.565  19.484  27.178  0.1969 -0.1161  0.1038
 7728W        W50822  24.796  18.513  26.412 -0.2755 -0.2132 -0.0888
 7729W        W50823  23.936  18.775  27.222 -0.0511 -0.0168 -0.0954
 7730W        W50824  25.742  19.781  27.521  0.0481 -0.3380 -0.1381
 7731W        W50825  23.993  19.067  25.046 -0.1224 -0.3504  0.0458
 7732W        W50826  24.736  21.785  26.559  0.2341  0.1314  0.0265
 7733W        W50827  23.734  19.415  24.665 -0.0220 -0.1569 -0.0619
 7734W        W50828  23.997  18.631  26.691  0.0216 -0.1745  0.0087
 7735W        W50829  22.650  20.202  27.668  0.1076  0.3320  0.1775
 7736W        W50830  21.058  21.392  26.530 -0.0916  0.1636 -0.1084
 7737W        W50831  25.168  20.689  27.145 -0.3448  0.0129  0.1549
 7738W        W50832  23.995  19.889  24.267  0.1619  0.2973 -0.0575
 7739W        W50833  25.541  19.945  26.607  0.1761 -0.1379 -0.1519
 7740W        W50834  22.518  19.023  24.314 -0.2879 -0.0443  0.1037
 7741W        W50835  23.876  21.886  23.049 -0.1358 -0.1304 -0.2549
 7742W        W50836  23.133  19.217  22.956  0.3423 -0.0157 -0.2031
 7743W        W50837  24.334  18.958  26.035  0.0182  0.2908  0.1386
 7744W        W50838  23.782  21.234  26.591  0.0272  0.1017 -0.1418
 7745W        W50839  24.031  19.964  23.153  0.3409 -0.0032 -0.2506
 7746W        W50840  23.431  20.527  25.937  0.0275  0.2380 -0.0807
 7747W        W50841  23.224  21.284  24.316  0.0068 -0.0815  0.0481
 7748W        W50842  25.301  18.432  25.916 -0.1104 -0.4624 -0.2503
 7749W        W50843  21.640  21.282  24.239 -0.0165 -0.2355 -0.2384
 7750W        W50844  21.962  18.855  24.413  0.0246 -0.0863  0.1630
 7751W        W50845  22.112  18.748  22.808 -0.1922 -0.1070  0.3431
 7752W        W50846  25.903  18.608  25.425  0.0220  0.2290 -0.0175
 7753W        W50847  23.923  20.399  24.221 -0.0123 -0.0123 -0.0089
 7754W        W50848  23.573  17.725  25.517 -0.0058 -0.2271 -0.0670
 7755W        W50849  24.095  19.890  26.691  0.1602  0.1061 -0.1030
 7756W        W50850  22.485  20.948  24.531 -0.4230  0.1487  0.3183
 7757W        W50851  22.928  19.164  27.234  0.0107  0.0011  0.0297
 7758W        W50852  25.133  19.611  24.341 -0.3169 -0.0299  0.3188
 7759W        W50853  25.062  21.200  26.959  0.3164  0.0988  0.1658
 7760W        W50854  23.186  19.145  26.307  0.1073 -0.4713  0.0333
 7761W        W50855  22.496  18.580  25.340 -0.1826 -0.1458  0.1426
 7762W        W50856  26.370  19.162  26.168 -0.0070 -0.2947 -0.2190
 7763W        W50857  23.910  18.623  25.208 -0.0760  0.3947 -0.2928
 7764W        W50858  22.110  19.285  24.523  0.0483 -0.1686  0.3761
 7765W        W50859  22.832  22.262  26.883  0.0575  0.0785  0.3075
 7766W        W50860  23.160  19.118  24.227 -0.1625  0.1696  0.0353
 7767W        W50861  24.288  19.506  24.142 -0.1601  0.1732 -0.1413
 7768W        W50862  24.185  17.434  25.972  0.0040 -0.3305  0.4382
 7769W        W50863  26.002  21.444  26.594 -0.0490 -0.4400  0.1454
 7770W        W50864  23.680  20.476  26.360 -0.0076  0.1589 -0.0077
 7771W        W50865  22.629  18.375  23.858  0.1555 -0.1961 -0.1676
 7772W        W50866  22.739  20.539  24.516 -0.3623 -0.0205 -0.1953
 7773W        W50867  24.276  20.777  24.095 -0.1729  0.0454 -0.0971
 7774W        W50868  23.060  19.601  27.277 -0.0402 -0.0526  0.1654
 7775W        W50869  22.691  21.716  26.839  0.1767 -0.2143 -0.0638
 7776W        W50870  22.868  17.416  26.381 -0.0008  0.2700 -0.0386
 7777W        W50871  24.422  21.832  24.557 -0.2690  0.0326  0.0758
 7778W        W50872  24.675  20.301  26.907 -0.1988 -0.1232  0.1258
 7779W        W50873  22.561  21.182  24.953 -0.1980 -0.1432  0.3273
 7780W        W50874  21.744  18.334  22.822 -0.0008  0.1717 -0.0206
 7781W        W50875  24.158  22.302  25.704  0.0698 -0.0743 -0.2524
 7782W        W50876  24.221  19.187  26.887  0.0876 -0.1460 -0.1774
 7783W        W50877  22.826  21.844  27.268  0.1482  0.2248 -0.2480
 7784W        W50878  23.962  20.976  25.114  0.2763 -0.1251 -0.0504
 7785W        W50879  22.051  20.179  26.111 -0.1991 -0.2079  0.1089
 7786W        W50880  25.720  18.924  24.561  0.2893  0.2337  0.0975
 7787W        W50881  24.042  20.813  24.588 -0.1326 -0.1593  0.2921
 7788W        W50882  23.568  19.493  26.404 -0.0903  0.0027  0.1375
 7789W        W50883  25.967  19.518  26.527 -0.0945 -0.0333 -0.0001
 7790W        W50884  25.722  20.418  24.016 -0.1415  0.2175  0.0613
 7791W        W50885  25.044  19.457  27.386  0.2354  0.2697  0.0056
 7792W        W50886  23.172  20.439  26.339 -0.3724  0.1947 -0.0549
 7793W        W50887  25.247  20.289  23.751 -0.3171  0.0107 -0.0112
 7794W        W50888  21.313  18.748  23.965 -0.0841 -0.5309  0.2162
 7795W        W50889  25.087  21.375  28.541 -0.0041 -0.0197 -0.0317
 7796W        W50890  23.612  20.982  26.121  0.1026 -0.2814  0.0711
 7797W        W50891  24.289  19.867  25.784  0.0088 -0.0129  0.1091
 7798W        W50892  23.041  18.888  24.679  0.2434  0.2400 -0.0537
 7799W        W50893  23.688  20.566  25.468  0.1548  0.1062 -0.0148
 7800W        W50894  25.715  20.314  24.960  0.1235  0.0421  0.0356
 7801W        W50895  24.208  19.202  25.476 -0.0128  0.0392  0.0185
 7802W        W50896  25.694  20.061  25.510 -0.2430  0.0991  0.1883
 7803W        W50897  22.367  20.557  25.995 -0.1147  0.1256  0.1834
 7804W        W50898  25.075  20.871  25.540 -0.1100  0.1028  0.0387
 7805W        W50899  25.511  20.608  25.688 -0.1471  0.0501  0.1130
 7806W        W50900  22.670  20.238  26.330 -0.1403  0.0386  0.2250
 7807W        W50901  23.459  17.463  25.145  0.0107  0.2098 -0.2671
 7808W        W50902  25.093  20.134  26.645 -0.0949 -0.1888  0.2721
 7809W        W50903  24.883  19.054  26.374  0.3505 -0.3089 -0.1030
 7810W        W50904  25.675  20.434  26.518  0.0523 -0.1856  0.0148
 7811W        W50905  24.589  19.371  25.901 -0.0010  0.2128 -0.0214
 7812W        W50906  23.466  19.449  27.543  0.2253  0.0422  0.3332
 7813W        W50907  21.606  17.828  26.273  0.2414  0.2454  0.3094
 7814W        W50908  25.886  22.392  25.667  0.2622 -0.1303  0.0443
 7815W        W50909  24.803  19.400  24.749 -0.2762  0.0885  0.3325
 7816W        W50910  25.461  19.097  27.309 -0.1070  0.2297 -0.2474
 7817W        W50911  24.037  21.698  25.575  0.2177 -0.0217 -0.0726
 7818W        W50912  23.624  18.817  23.893 -0.0618 -0.1817  0.3617
 7819W        W50913  22.818  19.512  25.998  0.0555 -0.1672 -0.1620
 7820W        W50914  25.754  20.301  26.003 -0.1163 -0.0760  0.0072
 7821W        W50915  22.287  18.294  22.913 -0.2270 -0.0410 -0.0766
 7822W        W50916  24.733  20.580  28.271  0.1051  0.0910 -0.0040
 7823W        W50917  24.307  20.595  23.141 -0.0216 -0.0460  0.3373
 7824W        W50918  24.467  20.785  24.911 -0.2077  0.2629 -0.3494
 7825W        W50919  24.722  19.024  27.015  0.0827  0.2034  0.2822
 7826W        W50920  22.732  18.174  25.095  0.3493 -0.1606 -0.0463
 7827W        W50921  22.790  20.834  27.194 -0.1278 -0.0522  0.1702
 7828W        W50922  23.622  19.527  24.150  0.0236  0.0706 -0.2076
 7829W        W50923  23.347  19.632  25.387  0.1694 -0.0604  0.0909
 7830W        W50924  24.470  22.186  25.339 -0.3244  0.1405  0.2595
 7831W        W50925  24.405  20.370  28.611 -0.2568  0.1585 -0.1491
 7832W        W50926  23.224  17.344  23.313 -0.0859 -0.0266  0.0110
 7833W        W50927  26.038  19.934  26.773 -0.0863 -0.1214  0.0156
 7834W        W50928  23.197  19.545  23.293  0.3329 -0.1644  0.1221
 7835W        W50929  23.998  18.055  26.755  0.1966 -0.0626  0.0732
 7836W        W50930  23.281  21.105  25.778 -0.2767 -0.0093  0.1116
 7837W        W50931  21.811  20.164  24.755  0.2274 -0.1278 -0.0112
 7838W        W50932  23.663  21.913  23.734  0.0063  0.1890 -0.0189
 7839W        W50933  22.286  16.906  26.817 -0.4307 -0.0680  0.4046
 7840W        W50934  24.448  19.750  26.328  0.2363 -0.1439  0.2551
 7841W        W50935  24.463  20.676  26.305 -0.0164  0.0764  0.0424
 7842W        W50936  25.875  19.684  28.137  0.2217 -0.0822  0.0305
 7843W        W50937  24.186  20.381  26.631  0.3038 -0.1030  0.0054
 7844W        W50938  23.246  20.114  25.582  0.0903 -0.0766 -0.1616
 7845W        W50939  24.744  20.843  26.728 -0.0974  0.0125 -0.3370
 7846W        W50940  24.305  21.258  25.339  0.0957 -0.1526  0.5064
 7847W        W50941  22.928  20.896  24.139 -0.4413 -0.0582 -0.2956
 7848W        W50942  22.831  19.743  25.557  0.0516 -0.0690  0.0488
 7849W        W50943  23.100  20.965  26.209 -0.4061  0.0200 -0.1752
 7850W        W50944  24.165  20.670  25.557 -0.1525  0.2452 -0.0572
 7851W        W50945  23.488  18.874  24.817 -0.0264  0.1887  0.3806
 7852W        W50946  23.425  19.977  23.851  0.0553 -0.2515 -0.4277
 7853W        W50947  23.341  21.904  27.284 -0.4667 -0.0480  0.0843
 7854W        W50948  22.043  21.076  26.448 -0.5277  0.2640 -0.2726
 7855W        W50949  23.158  21.965  23.768 -0.3478 -0.0374  0.0040
 7856W        W50950  24.089  19.434  23.435  0.0139  0.2194 -0.0379
 7857W        W50951  24.165  21.898  26.017 -0.0372  0.5319  0.1973
 7858W        W50952  22.966  22.151  26.437  0.2921 -0.0413  0.0248
 7859W        W50953  23.264  19.475  24.598  0.2938 -0.0289 -0.2071
 7860W        W50954  22.586  20.581  25.507  0.1376 -0.0556  0.2598
 7861W        W50955  22.687  19.823  23.342 -0.1145 -0.2526 -0.0461
 7862W        W50956  24.769  22.285  24.390  0.0979 -0.2765 -0.0637
 7863W        W50957  24.770  21.571  27.128 -0.1697  0.4134 -0.0733
 7864W        W50958  24.354  22.016  28.186 -0.0079 -0.2523  0.2529
 7865W        W50959  25.292  19.604  24.873 -0.0268 -0.0710 -0.0590
 7866W        W50960  24.832  20.914  24.569  0.1118 -0.1217  0.1707
 7867W        W50961  25.971  20.054  24.163 -0.2259 -0.4193  0.0193
 7868W        W50962  24.851  22.075  27.231 -0.2267  0.0438  0.0401
 7869W        W50963  24.121  20.421  25.080 -0.2235  0.1458  0.2905
 7870W        W50964  24.219  18.752  23.931 -0.3546 -0.0904 -0.1233
 7871W        W50965  21.119  19.834  26.520  0.0376  0.0016 -0.2079
 7872W        W50966  28.029  18.522  27.419  0.0132  0.4382  0.4332
 7873W        W50967  21.560  21.219  26.403  0.1528 -0.0766  0.2710
 7874W        W50968  25.840  21.136  24.320 -0.0882 -0.1702  0.3789
 7875W        W50969  21.545  18.247  21.906  0.0597 -0.0196  0.0910
 7876W        W50970  23.967  19.461  25.854 -0.0919  0.0972 -0.2506
 7877W        W50971  24.775  18.091  26.191  0.3725 -0.2940 -0.2647
 7878W        W50972  22.978  18.240  24.677  0.0837  0.0031  0.0084
 7879W        W50973  23.894  20.302  25.968 -0.1111  0.1682  0.2376
 7880W        W50974  22.487  22.258  24.931 -0.3208  0.2121 -0.3238
 7881W        W50975  22.474  21.359  26.310  0.3379  0.1176 -0.0838
 7882W        W50976  24.205  21.137  26.350 -0.1768 -0.0056 -0.1336
 7883W        W50977  21.713  18.939  25.355 -0.1958  0.0222  0.0880
 7884W        W50978  26.544  21.129  25.046  0.1904  0.1314  0.1616
 7885W        W50979  23.250  18.970  25.863  0.1322  0.1537 -0.1856
 7886W        W50980  26.464  19.032  28.003  0.0031 -0.0200  0.1616
 7887W        W50981  22.183  20.570  24.418 -0.0469  0.2523 -0.0273
 7888W        W50982  26.599  20.649  25.129  0.0547  0.1784 -0.1269
 7889W        W50983  24.586  21.089  27.752 -0.0464 -0.1754  0.2191
 7890W        W50984  21.853  19.442  25.722 -0.0135  0.2550  0.1322
 7891W        W50985  23.878  19.584  25.229  0.1065 -0.1100  0.0450
 7892W        W50986  24.062  20.185  27.625 -0.1603 -0.0631  0.0685
 7893W        W50987  24.311  19.075  24.426  0.1386  0.0744 -0.2040
 7894W        W50988  23.327  22.161  26.842  0.2265  0.3148  0.0219
 7895W        W50989  23.397  18.675  25.401  0.1854  0.0327  0.3247
 7896W        W50990  23.864  17.806  25.040  0.0532 -0.0078  0.1259
 7897W        W50991  22.270  18.506  23.530 -0.0447 -0.2004 -0.0249
 7898W        W50992  23.712  21.103  27.082  0.0969  0.2065  0.2596
 7899W        W50993  25.676  21.163  27.929 -0.0893  0.0418 -0.1710
 7900W        W50994  21.608  17.763  23.259  0.1930  0.3521 -0.1284
 7901W        W50995  25.142  21.927  24.560 -0.4356 -0.4168  0.1179
 7902W        W50996  25.121  20.925  26.083 -0.3258  0.1067  0.0186
 7903W        W50997  23.207  21.318  23.346 -0.0750  0.3481  0.0216
 7904W        W50998  24.361  19.682  25.316 -0.0171 -0.0916 -0.0445
 7905W        W50999  25.675  22.124  27.437 -0.0929 -0.0627 -0.1006
 7906W        W51000  22.308  19.247  26.099 -0.2404 -0.1619  0.4333
 7907W        W51001  25.044  22.484  27.429  0.1753  0.0421 -0.0616
 7908W        W51002  24.881  20.449  25.804  0.0736 -0.0755  0.0218
 7909W        W51003  23.291  18.640  26.337  0.3400 -0.1651 -0.3424
 7910W        W51004  22.635  20.118  25.799  0.3236 -0.4939 -0.1788
 7911W        W51005  23.593  20.929  24.170 -0.0041  0.0043  0.1400
 7912W        W51006  23.753  18.650  26.237  0.0586 -0.0466  0.2055
 7913W        W51007  24.119  18.873  27.745  0.0459  0.1756 -0.0409
 7914W        W51008  23.996  21.762  24.189  0.0557 -0.1383  0.3246
 7915W        W51009  24.849  19.902  27.244  0.0344  0.0996  0.2588
 7916W        W51010  25.377  22.048  26.999  0.1435  0.0084 -0.1467
 7917W        W51011  22.572  20.795  26.463  0.0369 -0.0454  0.3308
 7918W        W51012  23.122  19.607  24.095  0.3339 -0.3814 -0.2525
 7919W        W51013  22.904  21.069  27.664  0.0426 -0.3263  0.0592
 7920W        W51014  23.367  21.058  25.279  0.2810  0.3130  0.2053
 7921W        W51015  23.597  20.866  23.278 -0.2132 -0.2550 -0.2076
 7922W        W51016  24.894  22.063  25.485  0.0228 -0.1054 -0.0247
 7923W        W51017  23.630  19.042  24.368  0.1897 -0.4223  0.2611
 7924W        W51018  25.016  20.061  24.110  0.2539 -0.0986 -0.0359
 7925W        W51019  22.423  19.359  25.611  0.3109  0.0128 -0.1351
 7926W        W51020  25.774  19.328  24.834  0.1614  0.0140  0.1466
 7927W        W51021  25.215  18.806  23.692  0.1849 -0.1264  0.2060
 7928W        W51022  22.484  20.326  26.880  0.1696 -0.1854  0.0639
 7929W        W51023  20.984  18.527  21.924 -0.0263  0.1937 -0.2178
 7930W        W51024  22.883  21.417  24.632  0.1287  0.2493  0.2885
 7931W        W51025  22.288  21.048  25.903 -0.1568  0.2349  0.1055
 7932W        W51026  22.619  17.222  28.670 -0.0395  0.1229  0.4773
 7933W        W51027  22.692  19.127  26.777  0.3700  0.1461  0.2913
 7934W        W51028  21.458  20.653  24.860  0.3253 -0.2939 -0.0026
 7935W        W51029  22.079  18.198  23.879  0.0061 -0.0459  0.4994
 7936W        W51030  25.054  22.344  25.054  0.1407  0.1791 -0.0917
 7937W        W51031  22.900  18.729  24.164 -0.2990  0.0785 -0.1661
 7938W        W51032  21.527  18.384  24.790 -0.0237 -0.1625  0.1295
 7939W        W51033  24.028  21.642  26.506  0.0125 -0.0953 -0.1232
 7940W        W51034  24.585  21.294  24.846 -0.1160 -0.1178 -0.0097
 7941W        W51035  23.140  17.720  25.928  0.1589  0.0566  0.1053
 7942W        W51036  24.319  23.780  28.836  0.0279 -0.0278 -0.0530
 7943W        W51037  22.111  19.473  20.972  0.1012 -0.0443 -0.2050
 7944W        W51038  23.905  18.401  29.152 -0.1130 -0.1994  0.0267
 7945W        W51039  22.625  19.719  27.507 -0.0404  0.2858 -0.1369
 7946W        W51040  22.271  18.366  22.466 -0.0564 -0.0488  0.3527
 7947W        W51041  24.527  18.983  24.908 -0.2005  0.0546 -0.1627
 7948W        W51042  24.621  20.714  25.417 -0.1326 -0.2458 -0.1597
 7949W        W51043  25.600  21.902  23.351 -0.2307  0.2089 -0.0118
 7950W        W51044  24.560  22.621  27.062 -0.1966  0.1422 -0.0755
 7951W        W51045  22.207  23.590  27.580  0.0165 -0.3164  0.0322
 7952W        W51046  21.740  17.421  24.955 -0.1916 -0.2240 -0.3460
 7953W        W51047  24.981  20.028  23.000  0.1545 -0.1576  0.0375
 7954W        W51048  23.317  21.383  26.480  0.0136  0.0418  0.0089
 7955W        W51049  24.890  21.362  25.290  0.2666 -0.0015  0.1331
 7956W        W51050  25.183  19.144  25.944 -0.0582  0.1906  0.0597
 7957W        W51051  25.020  19.515  23.325  0.1775 -0.0911 -0.0534
 7958W        W51052  22.145  16.956  26.278 -0.0347  0.0381  0.0196
 7959W        W51053  22.442  20.515  27.347 -0.1290 -0.0714 -0.1952
 7960W        W51054  26.182  20.623  26.224  0.1271  0.1451 -0.0435
 7961W        W51055  24.416  17.708  24.849 -0.1424 -0.0375 -0.1041
 7962W        W51056  26.067  19.691  25.413  0.1029 -0.0280  0.0896
 7963W        W51057  24.133  21.454  24.821  0.2968 -0.2981  0.0488
 7964W        W51058  22.418  19.886  25.281 -0.2358 -0.1224  0.0515
 7965W        W51059  23.654  19.880  25.872 -0.1813  0.0682 -0.0503
 7966W        W51060  23.727  19.105  26.129  0.2355  0.1613  0.1074
 7967W        W51061  23.564  21.961  25.791  0.0873 -0.1434  0.0663
 7968W        W51062  24.628  20.123  27.610  0.2707  0.2406 -0.1974
 7969W        W51063  23.095  20.682  25.441  0.1370 -0.1052 -0.1274
 7970W        W51064  25.845  20.559  23.526  0.0245 -0.0939 -0.2480
 7971W        W51065  24.111  23.859  26.813 -0.1815 -0.0181 -0.1836
 7972W        W51066  25.520  22.382  27.949  0.0843  0.1319  0.2524
 7973W        W51067  23.775  21.473  26.078  0.2179  0.1638 -0.0374
 7974W        W51068  25.078  20.323  27.526 -0.0750  0.1212 -0.0644
 7975W        W51069  23.613  19.836  26.749  0.0394  0.1357 -0.0363
 7976W        W51070  22.915  20.627  25.910 -0.1671  0.1411 -0.2755
 7977W        W51071  24.297  20.376  24.504 -0.0413  0.0800 -0.1711
 7978W        W51072  25.939  20.497  25.376  0.4690 -0.0462  0.0272
 7979W        W51073  22.411  19.088  24.830  0.0283  0.0798 -0.2820
 7980W        W51074  24.809  18.813  24.496  0.1449 -0.0076 -0.0873
 7981W        W51075  23.790  22.291  26.199  0.1827  0.0032  0.0274
 7982W        W51076  24.559  20.203  26.433 -0.1061 -0.0390  0.0428
 7983W        W51077  22.736  21.373  30.855 -0.0055  0.2781  0.1154
 7984W        W51078  22.143  20.349  27.827 -0.3258 -0.1567 -0.0077
 7985W        W51079  25.489  18.737  26.271  0.1323  0.3145 -0.1671
 7986W        W51080  25.358  20.050  28.698 -0.1314  0.0793 -0.0450
 7987W        W51081  22.516  18.737  28.484  0.0429 -0.2643 -0.4792
 7988W        W51082  24.075  22.188  29.202  0.1575  0.0056  0.1043
 7989W        W51083  23.417  16.694  30.201  0.2279 -0.1400 -0.1352
 7990W        W51084  24.009  21.252  30.244 -0.2269 -0.1802  0.1206
 7991W        W51085  25.792  21.808  30.217 -0.0058  0.0566  0.1005
 7992W        W51086  24.340  20.494  27.245 -0.1403  0.1307  0.1028
 7993W        W51087  21.980  19.522  29.705 -0.1264  0.1415  0.0629
 7994W        W51088  23.116  21.968  31.144  0.1226 -0.1882 -0.1705
 7995W        W51089  23.444  19.012  27.273 -0.2500 -0.3268 -0.0867
 7996W        W51090  20.384  18.588  27.870 -0.1259 -0.1021 -0.0946
 7997W        W51091  23.079  20.006  28.383 -0.1733  0.2294 -0.1582
 7998W        W51092  21.967  19.493  27.854 -0.2968  0.0641  0.2440
 7999W        W51093  23.396  19.058  29.180 -0.1622  0.0634  0.1286
 8000W        W51094  22.420  21.314  26.970  0.3086  0.3909  0.0899
 8001W        W51095  22.606  22.646  27.302 -0.1250 -0.0112 -0.0233
 8002W        W51096  22.870  18.248  30.494 -0.2288 -0.0232  0.0037
 8003W        W51097  23.303  17.020  29.795  0.2228  0.1472 -0.1974
 8004W        W51098  24.037  20.898  27.877 -0.0651  0.3254 -0.2286
 8005W        W51099  21.005  19.357  25.603  0.1034 -0.1368  0.0624
 8006W        W51100  20.619  18.796  29.860  0.1770  0.5755  0.0221
 8007W        W51101  21.485  19.089  30.376 -0.1213 -0.1814  0.2664
 8008W        W51102  24.179  18.709  30.296  0.0294  0.1765 -0.1067
 8009W        W51103  24.848  19.605  29.188  0.1970  0.2432 -0.3579
 8010W        W51104  22.513  22.476  29.089  0.0243 -0.1371 -0.2391
 8011W        W51105  23.892  21.721  29.079 -0.5017 -0.2718  0.2978
 8012W        W51106  24.752  19.463  30.753 -0.2849  0.1122  0.2934
 8013W        W51107  21.469  19.847  28.441 -0.1531 -0.2504  0.3006
 8014W        W51108  21.371  21.800  28.883 -0.2526  0.3187 -0.2376
 8015W        W51109  22.669  20.744  28.079  0.1095  0.1190 -0.1335
 8016W        W51110  25.373  21.058  29.583  0.3081  0.3742  0.0360
 8017W        W51111  25.293  21.300  30.792  0.0875 -0.0766  0.1953
 8018W        W51112  22.035  22.094  31.021  0.0395  0.0027 -0.0992
 8019W        W51113  22.455  22.192  27.316  0.0333  0.0450 -0.1420
 8020W        W51114  23.059  21.942  31.790 -0.1065  0.2457  0.1617
 8021W        W51115  23.150  21.622  30.669 -0.0967 -0.1461 -0.0213
 8022W        W51116  23.671  19.540  29.074 -0.1476  0.5431 -0.0096
 8023W        W51117  23.715  20.827  30.548 -0.0655 -0.0087 -0.0273
 8024W        W51118  24.158  21.826  27.785  0.0910  0.4387 -0.0221
 8025W        W51119  23.014  20.577  27.524 -0.2312  0.2667 -0.1728
 8026W        W51120  23.527  20.307  30.057 -0.3410  0.0362 -0.1410
 8027W        W51121  22.134  20.345  29.806 -0.2128 -0.3159  0.1675
 8028W        W51122  26.608  18.188  30.488 -0.1292 -0.2290 -0.3205
 8029W        W51123  21.061  21.062  27.794  0.2334 -0.1320  0.1704
 8030W        W51124  24.654  18.108  28.652  0.1096 -0.1918  0.0622
 8031W        W51125  24.003  19.481  27.858  0.2576 -0.2132  0.1222
 8032W        W51126  23.406  18.896  28.288 -0.1965 -0.0721  0.0288
 8033W        W51127  21.751  19.014  28.543 -0.1199  0.0990  0.0466
 8034W        W51128  22.990  21.419  29.393  0.2582  0.0549  0.2090
 8035W        W51129  21.985  18.939  28.972  0.3562 -0.2451 -0.1792
 8036W        W51130  23.775  20.334  30.767  0.0049  0.1274 -0.1338
 8037W        W51131  24.746  21.144  28.275 -0.1839  0.1940 -0.0883
 8038W        W51132  24.521  17.496  30.098  0.3127 -0.0422  0.3188
 8039W        W51133  22.503  21.359  29.176 -0.0828  0.1283 -0.3366
 8040W        W51134  22.488  19.267  28.513 -0.2827  0.1031  0.0245
 8041W        W51135  24.590  23.283  27.680  0.0077  0.1004  0.1480
 8042W        W51136  25.419  20.583  28.899  0.1913  0.1344 -0.0542
 8043W        W51137  24.817  21.525  27.590 -0.1363  0.0563  0.2629
 8044W        W51138  23.243  18.779  27.791 -0.1877 -0.1134 -0.1720
 8045W        W51139  22.729  19.959  30.531  0.1216 -0.1892 -0.0270
 8046W        W51140  22.020  19.418  30.219  0.1200 -0.0386 -0.1716
 8047W        W51141  23.232  17.724  27.561 -0.0609 -0.0813 -0.0673
 8048W        W51142  25.700  19.855  31.789  0.1284  0.1635 -0.1963
 8049W        W51143  20.926  21.258  29.473 -0.2812  0.0565 -0.0848
 8050W        W51144  24.952  18.870  29.589  0.0853  0.0402 -0.2058
 8051W        W51145  23.499  19.979  29.027  0.4805  0.0831  0.1007
 8052W        W51146  25.601  21.601  29.750  0.2181 -0.1266 -0.0831
 8053W        W51147  25.047  18.798  26.745  0.0084 -0.0250 -0.2266
 8054W        W51148  24.368  18.184  29.325 -0.0681 -0.0498 -0.2503
 8055W        W51149  24.420  19.427  30.360 -0.2769 -0.2643 -0.1283
 8056W        W51150  23.534  20.132  27.227 -0.1086  0.0750 -0.4020
 8057W        W51151  23.861  19.413  28.371 -0.3210  0.3111  0.1904
 8058W        W51152  24.373  21.039  29.702  0.1749 -0.2218  0.2022
 8059W        W51153  26.403  20.478  28.542 -0.0899 -0.3028  0.0593
 8060W        W51154  21.861  21.209  28.874  0.0291  0.2507 -0.2918
 8061W        W51155  23.523  20.526  29.153 -0.2347 -0.2835  0.3654
 8062W        W51156  23.457  21.459  29.616  0.2467  0.0830 -0.2280
 8063W        W51157  22.616  22.390  27.770 -0.2435  0.3006 -0.1484
 8064W        W51158  22.198  19.376  28.932  0.3679  0.0170 -0.0006
 8065W        W51159  22.449  19.393  27.131  0.2085 -0.1903  0.0731
 8066W        W51160  20.513  18.323  30.365  0.1568 -0.0451 -0.0837
 8067W        W51161  22.755  20.768  28.938  0.1619  0.2286  0.0193
 8068W        W51162  24.683  19.433  28.732  0.2565  0.1226 -0.3965
 8069W        W51163  22.492  18.855  29.032 -0.3579 -0.0685 -0.2103
 8070W        W51164  25.709  18.515  29.470  0.0562  0.0428 -0.2693
 8071W        W51165  23.137  21.546  27.635 -0.0403 -0.2350  0.0358
 8072W        W51166  24.577  22.682  28.966  0.0961 -0.3870 -0.1355
 8073W        W51167  25.089  19.380  29.606 -0.0219 -0.4593 -0.2895
 8074W        W51168  24.456  21.485  28.010 -0.0775  0.0927 -0.0358
 8075W        W51169  21.897  19.357  31.270 -0.0327 -0.3341  0.1935
 8076W        W51170  22.955  19.253  27.707  0.0048 -0.1655  0.0750
 8077W        W51171  23.150  19.176  31.094 -0.0630 -0.1668  0.0651
 8078W        W51172  21.634  19.349  28.205  0.0749  0.3604  0.0052
 8079W        W51173  25.650  20.193  30.026  0.1469  0.4264  0.0195
 8080W        W51174  22.558  18.254  26.630  0.1009 -0.2538 -0.4898
 8081W        W51175  24.800  17.907  29.191  0.1662  0.2316 -0.7148
 8082W        W51176  24.373  19.237  29.109 -0.0627  0.2514 -0.0980
 8083W        W51177  23.437  20.498  28.203  0.3457 -0.0168 -0.1018
 8084W        W51178  25.092  19.457  30.232 -0.1411  0.1164  0.0822
 8085W        W51179  24.124  21.895  28.654 -0.1457  0.0970  0.0342
 8086W        W51180  25.312  22.853  31.593 -0.0234 -0.2656  0.1694
 8087W        W51181  23.587  22.121  29.081 -0.1102 -0.1051 -0.0627
 8088W        W51182  22.620  18.649  29.923 -0.2224  0.0606 -0.2987
 8089W        W51183  21.988  19.286  27.354  0.1435  0.3650 -0.2127
 8090W        W51184  21.316  21.237  28.907 -0.1098  0.0800  0.0023
 8091W        W51185  23.254  20.963  29.075 -0.0048  0.0986 -0.1151
 8092W        W51186  22.827  18.147  27.051  0.1455 -0.0086 -0.2378
 8093W        W51187  25.670  21.918  29.321 -0.0072  0.0166 -0.1383
 8094W        W51188  23.825  21.482  27.885  0.0140  0.2491 -0.1130
 8095W        W51189  23.771  19.760  29.861  0.3284  0.1303 -0.1205
 8096W        W51190  24.045  19.237  29.979 -0.0660 -0.0117  0.1131
 8097W        W51191  25.935  20.527  29.409 -0.1604  0.1436 -0.2258
 8098W        W51192  23.628  19.994  28.197 -0.1867  0.2838 -0.2945
 8099W        W51193  23.545  18.514  26.812  0.0606  0.1050 -0.0073
 8100W        W51194  23.511  22.011  30.710  0.4243  0.0645 -0.3839
 8101W        W51195  22.956  20.496  28.575 -0.0773 -0.0316 -0.0795
 8102W        W51196  24.136  19.330  26.375  0.1422 -0.0165 -0.0780
 8103W        W51197  23.346  22.097  28.311 -0.0250  0.1228 -0.1548
 8104W        W51198  25.104  18.317  29.412  0.2370 -0.1347 -0.0411
 8105W        W51199  20.928  18.774  31.477  0.0777  0.2037  0.1576
 8106W        W51200  23.993  20.231  30.254  0.2249  0.3501 -0.0371
 8107W        W51201  22.153  18.746  27.381 -0.0616  0.1863  0.2399
 8108W        W51202  21.849  20.080  31.083  0.1330 -0.2036  0.1740
 8109W        W51203  23.686  18.695  28.656  0.0783  0.1631 -0.0789
 8110W        W51204  25.375  19.803  28.125  0.0033  0.1419  0.0429
 8111W        W51205  22.925  19.025  31.518  0.1131  0.0673 -0.0001
 8112W        W51206  24.887  22.123  28.570  0.2431  0.1073 -0.3198
 8113W        W51207  24.330  20.010  27.179 -0.3122 -0.0410  0.0627
 8114W        W51208  24.842  18.547  28.454 -0.0930 -0.3947  0.0597
 8115W        W51209  21.675  20.293  29.591  0.1588  0.1315 -0.0107
 8116W        W51210  22.423  21.924  27.706 -0.2533 -0.0379  0.2034
 8117W        W51211  21.710  20.821  29.938  0.1324 -0.1475 -0.1521
 8118W        W51212  24.106  19.934  28.072 -0.1672 -0.0677  0.1138
 8119W        W51213  25.330  22.118  28.905  0.1517 -0.1999 -0.0558
 8120W        W51214  22.136  20.849  29.664  0.1080  0.0177 -0.0493
 8121W        W51215  23.054  21.487  31.202  0.1294  0.0329 -0.0868
 8122W        W51216  23.641  21.019  29.770 -0.0258  0.0329 -0.1258
 8123W        W51217  23.282  19.763  29.888  0.1330  0.0514  0.0593
 8124W        W51218  21.638  18.169  28.258 -0.4035  0.2700 -0.0260
 8125W        W51219  23.474  17.764  28.463  0.0160 -0.0886  0.1028
 8126W        W51220  23.424  23.270  27.982 -0.2372  0.2201  0.0839
 8127W        W51221  24.393  18.337  30.636 -0.0412  0.1213 -0.3731
 8128W        W51222  24.084  18.206  29.837  0.0298  0.2105 -0.0622
 8129W        W51223  23.153  18.101  29.722  0.1334 -0.1039 -0.2161
 8130W        W51224  25.759  20.376  31.249  0.0160 -0.0380 -0.1075
 8131W        W51225  24.569  20.486  29.065 -0.4364  0.2690  0.3744
 8132W        W51226  24.490  18.954  29.977 -0.0929 -0.1335  0.0407
 8133W        W51227  21.981  20.462  26.950 -0.2887  0.0184  0.3098
 8134W        W51228  23.811  19.281  31.030 -0.0045  0.4453 -0.0430
 8135W        W51229  21.411  20.771  30.349 -0.1573  0.0528  0.0342
 8136W        W51230  21.710  21.600  30.607 -0.3271  0.0075 -0.1012
 8137W        W51231  23.376  21.438  29.018  0.1075  0.1427 -0.4265
 8138W        W51232  23.919  19.295  29.510 -0.1772  0.1135 -0.2380
 8139W        W51233  24.640  20.117  30.217 -0.2309 -0.0432  0.1029
 8140W        W51234  23.905  19.220  27.393  0.0492 -0.0909  0.1968
 8141W        W51235  23.164  21.219  27.181  0.0014  0.1183  0.4363
 8142W        W51236  22.888  20.279  27.179 -0.1044 -0.0022 -0.0851
 8143W        W51237  21.348  18.688  29.086  0.3240  0.0833 -0.0203
 8144W        W51238  23.077  21.478  30.029  0.0532  0.2965  0.0587
 8145W        W51239  23.124  21.515  28.581 -0.1271 -0.3316 -0.0455
 8146W        W51240  24.833  21.327  30.183  0.1255  0.1586  0.2031
 8147W        W51241  21.314  20.597  27.567 -0.0572 -0.2391 -0.3253
 8148W        W51242  24.200  16.889  29.560 -0.1041 -0.1405 -0.0201
 8149W        W51243  22.333  19.862  27.903  0.0095 -0.0313  0.1416
 8150W        W51244  22.890  18.651  26.648  0.1820  0.1755  0.2848
 8151W        W51245  22.098  19.045  26.916  0.1526  0.3036 -0.1226
 8152W        W51246  24.577  18.796  27.901  0.0216  0.0292 -0.0910
 8153W        W51247  24.466  21.006  29.143 -0.1771 -0.1169  0.0180
 8154W        W51248  22.269  18.298  30.622 -0.0823 -0.0722 -0.3807
 8155W        W51249  23.430  19.812  30.398 -0.1103 -0.1490  0.0223
 8156W        W51250  21.791  20.400  30.319 -0.0541  0.4694  0.2107
 8157W        W51251  22.140  20.681  30.176  0.0818 -0.4292  0.0455
 8158W        W51252  24.871  19.067  29.113  0.1370 -0.1096 -0.1577
 8159W        W51253  22.934  22.473  28.364  0.3614  0.0472  0.0703
 8160W        W51254  23.178  20.223  30.778  0.0664  0.2470 -0.0724
 8161W        W51255  21.890  19.041  26.387  0.1782  0.3288 -0.3140
 8162W        W51256  26.588  19.724  30.980 -0.2326 -0.0359 -0.0483
 8163W        W51257  23.118  20.545  29.881 -0.1294  0.1416  0.1448
 8164W        W51258  21.955  19.992  28.152 -0.1180 -0.0789  0.2663
 8165W        W51259  25.010  22.188  29.950 -0.3325  0.3371  0.0921
 8166W        W51260  22.236  20.098  27.347  0.0367  0.0100  0.0491
 8167W        W51261  22.454  22.197  28.278  0.1570  0.3920  0.1344
 8168W        W51262  22.590  20.641  29.848 -0.3107 -0.0292 -0.0234
 8169W        W51263  24.172  21.351  29.257  0.3236 -0.2916 -0.1952
 8170W        W51264  22.602  20.330  29.215 -0.0350 -0.2093 -0.1765
 8171W        W51265  23.416  19.478  28.059  0.1864  0.2715  0.0179
 8172W        W51266  22.504  18.990  29.581 -0.1368 -0.0591  0.0235
 8173W        W51267  22.912  21.154  30.439 -0.2257  0.1375 -0.1355
 8174W        W51268  24.441  18.846  29.470 -0.1007 -0.3810 -0.4609
 8175W        W51269  23.163  19.478  31.716 -0.2279  0.1343 -0.3002
 8176W        W51270  23.325  18.348  28.398  0.3280  0.0247  0.4054
 8177W        W51271  24.420  22.225  28.735 -0.2014 -0.2742  0.2237
 8178W        W51272  24.994  18.961  30.076  0.0701  0.0927  0.1908
 8179W        W51273  21.914  19.741  29.250 -0.1015 -0.0233  0.0381
 8180W        W51274  21.196  20.099  28.766 -0.1848  0.1367  0.0056
 8181W        W51275  24.016  20.549  28.252  0.0651  0.1394  0.0437
 8182W        W51276  23.614  18.837  30.309  0.1901 -0.0722  0.1830
 8183W        W51277  22.163  21.313  29.486 -0.2035  0.0777 -0.0029
 8184W        W51278  22.498  20.272  28.191 -0.0528 -0.2841  0.0715
 8185W        W51279  22.903  20.986  28.496 -0.4494  0.2523 -0.0133
 8186W        W51280  23.802  17.933  30.133 -0.0236  0.0834 -0.0221
 8187W        W51281  24.616  20.890  28.685  0.0175 -0.1242  0.6043
 8188W        W51282  22.923  19.698  27.982  0.1320 -0.1003  0.1598
 8189W        W51283  26.192  19.556  31.359  0.1161  0.3815  0.0964
 8190W        W51284  24.833  20.098  28.188 -0.3849  0.1065  0.1895
 8191W        W51285  25.914  19.288  30.253  0.1073 -0.1054  0.0900
 8192W        W51286  20.901  19.056  28.929  0.2840 -0.0949  0.0504
 8193W        W51287  25.937  20.645  28.818  0.0737  0.1053 -0.0718
 8194W        W51288  22.400  19.458  29.435 -0.0896 -0.0314  0.0733
 8195W        W51289  25.478  21.903  31.254 -0.2070 -0.0621  0.1659
 8196W        W51290  23.283  20.609  30.415  0.0345 -0.0857 -0.2098
 8197W        W51291  23.791  18.117  28.630  0.0215 -0.3584 -0.0124
 8198W        W51292  23.763  17.582  26.253 -0.2611 -0.0222 -0.4403
 8199W        W51293  23.906  19.605  30.337  0.0119  0.2358 -0.1082
 8200W        W51294  25.264  20.614  29.408  0.0935  0.1579 -0.2297
 8201W        W51295  24.172  19.586  28.761  0.3219  0.1647 -0.2225
 8202W        W51296  25.015  19.753  28.568  0.0958 -0.4240  0.0438
 8203W        W51297  23.567  20.541  29.615 -0.1818 -0.1504 -0.1899
 8204W        W51298  24.574  20.008  28.908  0.1701  0.0475  0.4533
 8205W        W51299  25.147  21.209  27.568  0.1081 -0.2344 -0.0951
 8206W        W51300  22.201  20.818  29.128 -0.0102  0.1262  0.2784
 8207W        W51301  21.575  18.679  29.614  0.0784  0.0388  0.1431
 8208W        W51302  23.330  21.037  30.200  0.1283 -0.0174  0.0388
 8209W        W51303  23.870  19.885  29.376 -0.0216 -0.1792  0.1810
 8210W        W51304  23.967  20.783  30.097  0.1123  0.0270  0.0128
 8211W        W51305  24.812  19.903  29.707 -0.1017 -0.1705  0.0914
 8212W        W51306  23.108  19.064  31.978 -0.0360  0.1083  0.1544
 8213W        W51307  22.340  17.351  31.549 -0.0059 -0.4191 -0.3943
 8214W        W51308  24.100  20.652  30.929  0.1837 -0.1690  0.1972
 8215W        W51309  25.290  19.914  27.654  0.4087 -0.0152 -0.0810
 8216W        W51310  24.879  18.052  31.047  0.0091  0.2383 -0.2749
 8217W        W51311  25.222  20.326  29.836  0.0231  0.0239 -0.1682
 8218W        W51312  25.086  20.870  28.555 -0.0846  0.0788  0.0390
 8219W        W51313  22.013  19.102  29.442 -0.1212 -0.1376 -0.1068
 8220W        W51314  24.563  20.305  31.135  0.1892 -0.1571  0.1370
 8221W        W51315  22.439  18.290  27.296  0.1460 -0.0658 -0.1019
 8222W        W51316  23.459  18.849  29.859  0.0857 -0.1567 -0.1724
 8223W        W51317  24.294  20.938  28.314 -0.0142 -0.1262 -0.0226
 8224W        W51318  23.121  20.033  27.567 -0.3810  0.0419 -0.0626
 8225W        W51319  23.979  19.088  28.780  0.1104 -0.1277 -0.0011
 8226W        W51320  21.248  18.211  29.162 -0.0833 -0.1950  0.2945
 8227W        W51321  23.888  21.172  30.870  0.0175  0.0896  0.3934
 8228W        W51322  22.470  18.856  25.764 -0.0664  0.2714  0.0805
 8229W        W51323  23.455  20.418  27.652 -0.2525  0.0414  0.5292
 8230W        W51324  22.313  21.667  31.071  0.3687  0.0430 -0.3518
 8231W        W51325  23.600  19.352  31.485 -0.0816  0.2567 -0.0883
 8232W        W51326  23.651  19.019  26.644  0.0422  0.0490 -0.0469
 8233W        W51327  24.968  17.585  30.311 -0.0714  0.0762 -0.1749
 8234W        W51328  22.506  22.112  26.259 -0.0764  0.1253 -0.1760
 8235W        W51329  22.644  17.954  28.748  0.0453 -0.2218  0.1126
 8236W        W51330  22.867  21.887  29.889  0.0748  0.0071 -0.2618
 8237W        W51331  21.730  19.953  30.583  0.0154 -0.0779 -0.1576
 8238W        W51332  23.482  21.848  27.796 -0.1495  0.0094  0.1076
 8239W        W51333  23.326  17.609  29.648  0.1527 -0.1332  0.0897
 8240W        W51334  24.357  19.744  29.962 -0.2078 -0.0926 -0.1741
 8241W        W51335  22.831  19.673  29.726  0.0790 -0.1483 -0.0730
 8242W        W51336  24.636  19.004  30.572  0.2425 -0.2422 -0.0828
 8243W        W51337  23.905  21.889  30.133  0.2838 -0.0301 -0.1247
 8244W        W51338  23.722  21.025  29.173 -0.1873 -0.1295  0.1519
 8245W        W51339  23.165  21.919  29.488 -0.1271 -0.0260  0.2784
 8246W        W51340  25.712  21.410  29.257  0.2439 -0.1379 -0.0692
 8247W        W51341  22.676  22.202  28.704 -0.3190  0.1262  0.2002
 8248W        W51342  21.021  20.143   0.264 -0.2426  0.2052  0.2562
 8249W        W51343  23.603  19.918  31.618  0.1494  0.1415  0.1306
 8250W        W51344  24.428  19.811  31.257 -0.0217 -0.0574 -0.0783
 8251W        W51345  22.570  18.378  27.917  0.1432 -0.0238  0.0470
 8252W        W51346  22.505  22.936  27.701  0.1356 -0.1826  0.1594
 8253W        W51347  21.869  22.076  30.537 -0.1817 -0.1140 -0.0592
 8254W        W51348  22.612  20.885  29.419  0.3551  0.1525  0.0618
 8255W        W51349  22.988  20.311  28.020 -0.0238  0.0583 -0.1057
 8256W        W51350  23.351  20.840  28.613  0.1974  0.3436  0.2516
 8257W        W51351  25.216  20.935  28.085 -0.2836 -0.0317 -0.1571
 8258W        W51352  24.867  23.149  31.448 -0.2378 -0.0841 -0.0393
 8259W        W51353  22.979  19.201  28.213 -0.0155 -0.1696  0.0045
 8260W        W51354  21.646  22.205  27.925  0.0143  0.1007 -0.2166
 8261W        W51355  20.580  21.182  27.744  0.0583  0.2716 -0.1771
 8262W        W51356  23.813  23.074  28.253  0.0426  0.1893  0.1991
 8263W        W51357  22.549  21.412  27.894  0.1173  0.2011 -0.2127
 8264W        W51358  24.347  21.724  30.264 -0.1384 -0.0299 -0.2012
 8265W        W51359  25.228  18.883  28.249 -0.1206  0.1564 -0.2230
 8266W        W51360  23.152  22.043  28.807  0.5797  0.0605 -0.1580
 8267W        W51361  26.074  18.260  29.170  0.0347  0.0583 -0.0443
 8268W        W51362  25.991  21.898  31.177  0.0323 -0.1602  0.2969
 8269W        W51363  24.609  18.452  29.725  0.0806 -0.3120  0.0136
 8270W        W51364  23.515  19.416  27.018 -0.0379 -0.0712  0.1342
 8271W        W51365  23.462  19.245  28.595 -0.0345 -0.2859  0.0642
 8272W        W51366  26.367  19.170  30.969 -0.1588  0.1164 -0.0204
 8273W        W51367  22.189  22.578  30.823  0.2406 -0.0611  0.2263
 8274W        W51368  24.895  23.531  27.264  0.0250  0.1495 -0.0069
 8275W        W51369  23.901  18.365  28.136  0.0283  0.1048  0.0439
 8276W        W51370  23.429  21.013  27.568  0.0744 -0.2098 -0.0747
 8277W        W51371  24.456  17.873  29.706 -0.1661  0.0578 -0.0414
 8278W        W51372  24.045  21.212  27.493  0.1347 -0.2336  0.3624
 8279W        W51373  23.142  19.442  28.974 -0.2424 -0.0656 -0.0269
 8280W        W51374  22.699  23.399  27.805  0.1555 -0.1598 -0.0726
 8281W        W51375  23.100  21.229  28.091  0.0185 -0.2127  0.0550
 8282W        W51376  20.994  21.576  30.457 -0.1975  0.1172  0.0182
 8283W        W51377  20.398  18.910  26.979  0.0277  0.0249 -0.2188
 8284W        W51378  25.981  19.962  29.659 -0.0861 -0.1674  0.0663
 8285W        W51379  23.036  20.138  30.174 -0.1468  0.1093  0.1628
 8286W        W51380  25.734  17.023  29.989 -0.0994 -0.2810  0.0859
 8287W        W51381  22.353  19.893  29.009 -0.2312  0.2232 -0.0312
 8288W        W51382  24.929  20.240  29.314 -0.0649  0.0221 -0.0013
 8289W        W51383  23.551  21.803  28.643 -0.3906 -0.1536 -0.0695
 8290W        W51384  20.168  19.947  30.731  0.1303  0.0151  0.0829
 8291W        W51385  22.334  20.830  26.917  0.0912  0.1986 -0.0953
 8292W        W51386  24.946  20.432  30.795 -0.0102 -0.0004 -0.0137
 8293W        W51387  24.263  21.295  28.796  0.4137 -0.1569  0.0513
 8294W        W51388  25.047  22.426   0.251  0.0098  0.1112 -0.0086
 8295W        W51389  23.720  18.551  27.610 -0.1986 -0.0397  0.0501
 8296W        W51390  24.710  18.441  29.072  0.2592 -0.2209  0.2647
 8297W        W51391  22.485  19.418  28.028  0.0509  0.1337 -0.0149
 8298W        W51392  22.456  20.827  30.857 -0.1276  0.2015  0.2600
 8299W        W51393  24.947  20.615   0.400 -0.2394  0.6120 -0.0090
 8300W        W51394  21.132  18.468  29.748 -0.3104 -0.1267  0.1759
 8301W        W51395  25.567  21.508  28.297  0.0965  0.1293  0.2912
 8302W        W51396  24.313  20.522  29.829  0.3371  0.2249  0.0122
 8303W        W51397  24.380  21.605  27.401 -0.0884 -0.3384  0.0020
 8304W        W51398  24.341  19.698  29.313  0.0766  0.0065  0.0300
 8305W        W51399  23.721  23.544  28.300 -0.1480 -0.2099 -0.2984
 8306W        W51400  20.359  18.195  30.781  0.0439 -0.1365 -0.0670
 8307W        W51401  24.128  22.629  30.855 -0.3898  0.1556 -0.1855
 8308W        W51402  24.908  19.937  30.714  0.2465  0.2381 -0.3549
 8309W        W51403  22.943  18.693  28.167  0.1832  0.1201 -0.0423
 8310W        W51404  22.696  20.128  28.721 -0.3254  0.1197 -0.1384
 8311W        W51405  20.785  20.898  28.198 -0.4905 -0.0680 -0.2044
 8312W        W51406  25.501  19.302  29.938 -0.2973  0.1340  0.0002
 8313W        W51407  23.892  18.360  30.477 -0.1640 -0.0537  0.0069
 8314W        W51408  23.659  22.509  27.053  0.3163  0.0492 -0.2718
 8315W        W51409  25.396  16.912  29.594 -0.0168 -0.0809  0.1878
 8316W        W51410  21.760  21.640  31.145  0.0857 -0.0130  0.1359
 8317W        W51411  23.090  22.406  30.854  0.0991 -0.0688 -0.3354
 8318W        W51412  22.687  19.619  26.501  0.2615  0.2754  0.1455
 8319W        W51413  22.693  20.642  30.362  0.5350  0.0427  0.0569
 8320W        W51414  22.786  23.108  28.181  0.3018  0.2621 -0.0403
 8321W        W51415  22.928  21.961  27.708 -0.1012  0.0643 -0.0415
 8322W        W51416  24.605  22.743  31.268  0.2014 -0.2895 -0.2904
 8323W        W51417  23.967  20.280  29.081 -0.1595  0.0764 -0.3513
 8324W        W51418  24.271  22.626  29.371 -0.1668 -0.1098 -0.0200
 8325W        W51419  22.799  18.513  28.832  0.1877 -0.0774 -0.1547
 8326W        W51420  24.981  17.270  27.941  0.2374  0.0969 -0.2866
 8327W        W51421  25.012  18.664  30.694  0.0491  0.0901  0.0062
 8328W        W51422  22.308  20.259  31.152 -0.2980  0.0862  0.0761
 8329W        W51423  21.369  19.201  26.529  0.1427  0.2658  0.2930
 8330W        W51424  23.299  20.795  26.640  0.0008 -0.1718  0.0432
 8331W        W51425  21.624  19.609  28.895  0.2384  0.0666 -0.3350
 8332W        W51426  24.705  18.564  30.219 -0.2490  0.0772  0.0890
 8333W        W51427  21.991  18.555  30.249  0.1180  0.3387 -0.0046
 8334W        W51428  22.032  19.573  28.505 -0.1857 -0.0623 -0.2941
 8335W        W51429  23.007  18.277  27.704  0.0774  0.1214  0.0303
 8336W        W51430  25.732  22.396  28.645  0.1640 -0.2042  0.1533
 8337W        W51431  21.705  18.100  29.513  0.1844 -0.0263  0.0795
 8338W        W51432  22.936  19.562  28.583  0.1645 -0.2306  0.0857
 8339W        W51433  24.175  20.788  28.824  0.0437  0.2194  0.1168
 8340W        W51434  25.298  21.190  29.028  0.3604  0.2369 -0.0122
 8341W        W51435  23.069  18.603  27.142 -0.0102  0.4392  0.0318
 8342W        W51436  26.377  21.905  30.281  0.2290 -0.1107 -0.2227
 8343W        W51437  22.231  20.907  27.798 -0.0121  0.0687  0.1894
 8344W        W51438  23.309  17.985  31.494 -0.1339  0.0279  0.0971
 8345W        W51439  23.468  19.292  30.668 -0.0523  0.0290 -0.0890
 8346W        W51440  21.312  19.546  26.164 -0.2629  0.1304  0.2689
 8347W        W51441  24.157  20.636  29.348  0.3078  0.0936 -0.0025
 8348W        W51442  22.941  21.835  28.234  0.0110 -0.2267 -0.1207
 8349W        W51443  23.466  21.561  28.226  0.0068 -0.0510 -0.2360
 8350W        W51444  23.291  22.276  30.353 -0.1223  0.1200  0.3172
 8351W        W51445  22.671  21.887  30.833  0.0572 -0.0963 -0.0683
 8352W        W51446  21.602  17.657  29.893  0.1876  0.1110  0.0947
 8353W        W51447  24.692  20.619  29.553 -0.0971 -0.1565  0.2165
 8354W        W51448  22.697  21.623  30.383 -0.1555  0.0429  0.1718
 8355W        W51449  25.010  20.796  29.041  0.3330 -0.0960  0.2497
 8356W        W51450  25.363  19.295  29.107  0.1093  0.2501  0.0951
 8357W        W51451  23.931  20.702  27.451  0.1468  0.1588 -0.0065
 8358W        W51452  23.144  19.073  30.390 -0.0425 -0.1143  0.1350
 8359W        W51453  23.771  19.843  30.777  0.2117 -0.0938 -0.3415
 8360W        W51454  25.672  21.109  30.033  0.1065 -0.2114 -0.0786
 8361W        W51455  23.659  19.068  27.782  0.0940  0.3110 -0.1416
 8362W        W51456  23.333  19.426  29.478 -0.2055  0.0211 -0.0015
 8363W        W51457  24.439  20.574  27.825  0.1543  0.0111 -0.0715
 8364W        W51458  21.352  20.318  30.692  0.1374 -0.0021 -0.0881
 8365W        W51459  24.271  18.066  28.338  0.1868  0.0536 -0.0854
 8366W        W51460  24.830  20.533  30.164 -0.0001  0.1926  0.4519
 8367W        W51461  24.024  20.068  28.621  0.2502  0.1712 -0.1809
 8368W        W51462  24.046  18.398  31.063  0.1178  0.1770 -0.1522
 8369W        W51463  24.353  19.719  27.586 -0.0184  0.1197  0.1958
 8370W        W51464  26.575  20.882  29.070  0.0682 -0.3215 -0.2228
 8371W        W51465  24.301  23.071  31.067 -0.0974 -0.0677  0.1059
 8372W        W51466  24.987  23.383  30.594  0.1602  0.3358  0.1404
 8373W        W51467  23.093  21.044  29.694  0.0655  0.1186 -0.1625
 8374W        W51468  24.399  20.167  29.399  0.1136  0.0199 -0.2565
 8375W        W51469  23.358  18.108  30.457  0.3233  0.1033 -0.2760
 8376W        W51470  22.943  19.833  29.237  0.2264  0.1783  0.1234
 8377W        W51471  23.484  19.729  28.617  0.0875  0.1958 -0.0406
 8378W        W51472  24.143  18.435  28.694  0.0240  0.2693  0.2199
 8379W        W51473  23.053  18.934  28.659  0.0514 -0.2025 -0.1210
 8380W        W51474  23.263  18.553  28.945  0.0460  0.1687  0.1325
 8381W        W51475  23.156  22.336  29.771 -0.0833 -0.5066 -0.1520
 8382W        W51476  23.511  20.282  28.633 -0.0489  0.1759 -0.1058
 8383W        W51477  25.314  17.295  31.317  0.1186 -0.0952 -0.2959
 8384W        W51478  24.051  20.418   0.099 -0.1685  0.2252 -0.0316
 8385W        W51479  23.277  20.113  29.479 -0.1187  0.0971  0.0908
 8386W        W51480  22.036  21.265  30.957  0.1370 -0.0344 -0.0066
 8387W        W51481  23.278  21.135  30.849 -0.1340  0.0118 -0.1380
 8388W        W51482  22.782  23.404  31.873 -0.1163 -0.0207  0.1724
 8389W        W51483  22.963  20.711  30.862  0.0922  0.0205 -0.0243
 8390W        W51484  23.324  18.804  30.724 -0.0157  0.0287 -0.1118
 8391W        W51485  24.004  18.941   0.410  0.3016 -0.1306  0.0397
 8392W        W51486  24.981  20.964  30.491 -0.0711  0.0817  0.2789
 8393W        W51487  25.872  21.720   0.298 -0.1454  0.3526  0.2736
 8394W        W51488  22.485  20.227  30.103  0.0699  0.0926  0.1472
 8395W        W51489  24.827  21.516   0.561 -0.3220  0.1256 -0.3757
 8396W        W51490  23.075  19.653  30.759  0.2118 -0.4873 -0.3835
 8397W        W51491  23.923  19.708  31.220  0.3123 -0.1344  0.0117
 8398W        W51492  22.676  21.910  31.368  0.0629 -0.0704 -0.1983
 8399W        W51493  21.505  20.141   0.327  0.0598 -0.1231 -0.0841
 8400W        W51494  24.978  21.732  31.525  0.2615  0.0959 -0.2776
 8401W        W51495  23.878  17.918  31.245 -0.2252  0.3815 -0.2426
 8402W        W51496  23.118  20.035  31.503  0.3107  0.0636  0.0722
 8403W        W51497  22.690  19.073  31.084 -0.0703  0.2703 -0.0045
 8404W        W51498  22.789  21.018   0.216  0.0548  0.0635  0.1144
 8405W        W51499  23.367  18.214   0.474  0.1173 -0.1220 -0.0405
 8406W        W51500  24.410  20.437  30.545 -0.1881 -0.0977  0.0903
 8407W        W51501  24.185  19.508  30.797 -0.1439 -0.0719  0.0716
 8408W        W51502  23.963  18.806  31.426 -0.0083  0.0504  0.1646
 8409W        W51503  23.944  20.233  29.737 -0.0880 -0.1756  0.0024
 8410W        W51504  20.949  22.603  31.249  0.2297  0.0190 -0.3494
 8411W        W51505  21.609  19.664  30.012 -0.0445  0.2942 -0.1563
 8412W        W51506  22.576  19.404  30.485  0.2266 -0.0728 -0.2269
 8413W        W51507  21.952  20.766  31.052 -0.2700 -0.0518 -0.3656
 8414W        W51508  22.141  19.680   0.703 -0.0240  0.2678  0.1306
 8415W        W51509  24.991  21.963  31.077  0.1978  0.1187 -0.1356
 8416W        W51510  25.907  17.702  31.722  0.1265 -0.1883 -0.2343
 8417W        W51511  22.793  20.213  29.707  0.0251  0.2070 -0.1834
 8418W        W51512  21.614  19.566   0.612  0.1508  0.1043 -0.2866
 8419W        W51513  22.315  20.939  31.374 -0.1277  0.1139 -0.1091
 8420W        W51514  23.397  21.662  31.500 -0.3667 -0.0526 -0.1849
 8421W        W51515  24.780  19.519  31.342 -0.2113 -0.0472 -0.0442
 8422W        W51516  24.308  20.532  31.669 -0.2729  0.1229  0.0308
 8423W        W51517  24.756  20.407  31.915  0.1116 -0.0991 -0.0028
 8424W        W51518  23.989  19.577  31.766  0.0782  0.0012 -0.0419
 8425W        W51519  23.568  18.206  31.962  0.2101  0.0642 -0.0919
 8426W        W51520  24.314  22.153  31.094 -0.0008 -0.1251 -0.2177
 8427W        W51521  23.550  19.292  30.166  0.3428 -0.0741  0.2219
 8428W        W51522  23.347  20.805   0.162  0.0110  0.3006 -0.0355
 8429W        W51523  24.730  18.132   1.650 -0.2437  0.2823  0.0114
 8430W        W51524  23.555  21.055  31.298  0.0852  0.0413  0.1316
 8431W        W51525  23.240  20.354  31.955 -0.0331  0.2317 -0.0845
 8432W        W51526  21.592  21.061  31.341  0.2357 -0.0663 -0.0937
 8433W        W51527  24.865  21.252  31.109 -0.1294  0.3623 -0.0289
 8434W        W51528  24.267  17.834  30.356  0.2084  0.2563 -0.1460
 8435W        W51529  22.629  17.536  30.298 -0.1154 -0.1817  0.1655
 8436W        W51530  23.535  19.382   0.073  0.1976  0.0625  0.2892
 8437W        W51531  23.182  18.468  31.616 -0.4314  0.0604  0.2370
 8438W        W51532  24.278  20.003  30.750 -0.3678 -0.0041 -0.2791
 8439W        W51533  24.291  19.997  31.766  0.1153  0.2275 -0.1422
 8440W        W51534  23.494  23.074  31.042 -0.2208 -0.1546  0.0850
 8441W        W51535  22.979  22.305  31.468 -0.1313  0.0167 -0.0100
 8442W        W51536  22.978  18.659  31.123  0.1755  0.0963  0.1144
 8443W        W51537  22.095  19.449   0.174 -0.0307 -0.2123 -0.1417
 8444W        W51538  22.766  19.524  31.402 -0.0261 -0.2366 -0.0748
 8445W        W51539  21.494  20.794  30.941  0.0684 -0.0063  0.2475
 8446W        W51540  21.976  16.423  30.310  0.0994 -0.0656  0.0355
 8447W        W51541  24.007  21.719  31.105  0.1289  0.0074 -0.0915
 8448W        W51542  25.656  21.863   0.786 -0.5626  0.2906  0.1268
 8449W        W51543  25.424  19.013  30.399  0.1116  0.0746  0.2289
 8450W        W51544  24.568  23.973  18.673  0.0441 -0.0725 -0.0133
 8451W        W51545  22.207  22.272  18.358  0.0796 -0.0341 -0.4279
 8452W        W51546  24.833  23.375  15.553  0.3690  0.2020 -0.1725
 8453W        W51547  24.619  24.462  17.728  0.2237 -0.0174 -0.0261
 8454W        W51548  21.083  23.792  16.795 -0.0454  0.1614  0.3597
 8455W        W51549  23.724  23.798  16.185 -0.0842 -0.0906  0.0299
 8456W        W51550  23.548  21.548  18.379  0.0079 -0.1844  0.2417
 8457W        W51551  24.503  24.836  16.720 -0.0267 -0.0785  0.2394
 8458W        W51552  25.326  25.146  17.639  0.2567 -0.0387  0.1119
 8459W        W51553  23.317  24.520  15.720 -0.0500  0.0110 -0.2704
 8460W        W51554  23.051  21.462  18.605 -0.0095 -0.0041  0.1304
 8461W        W51555  22.765  24.857  16.994  0.0336 -0.0779  0.1592
 8462W        W51556  23.261  23.537  16.931  0.0045 -0.3309 -0.0117
 8463W        W51557  21.107  23.805  17.329  0.1109 -0.2160 -0.1518
 8464W        W51558  25.154  24.053  18.485 -0.0450  0.2466 -0.1373
 8465W        W51559  22.873  23.677  16.682 -0.4992  0.0137 -0.3321
 8466W        W51560  23.399  24.116  20.117 -0.0193  0.2588 -0.2843
 8467W        W51561  22.066  22.543  17.061 -0.2216 -0.1367  0.0391
 8468W        W51562  24.241  24.776  16.127  0.2335 -0.0236 -0.2487
 8469W        W51563  22.717  23.372  19.196 -0.1615 -0.0747  0.2668
 8470W        W51564  23.104  21.559  19.181  0.2162  0.3483  0.1308
 8471W        W51565  24.884  25.398  15.982  0.0807  0.0247  0.2080
 8472W        W51566  22.548  22.581  15.807  0.3420  0.1753 -0.1850
 8473W        W51567  22.865  23.695  17.229 -0.0058 -0.1439  0.1429
 8474W        W51568  22.592  22.808  19.232  0.2760 -0.3561 -0.1609
 8475W        W51569  23.134  23.323  18.696 -0.0141 -0.0049  0.1709
 8476W        W51570  24.512  24.019  17.252 -0.0022  0.2517  0.3125
 8477W        W51571  23.350  24.946  18.162 -0.3237  0.0051 -0.1509
 8478W        W51572  24.812  24.770  19.017  0.1881 -0.2445  0.2031
 8479W        W51573  24.855  22.235  20.310  0.1157  0.0688 -0.0372
 8480W        W51574  22.108  26.901  17.034 -0.0462 -0.2795  0.1511
 8481W        W51575  20.005  27.224  18.435  0.0014 -0.1318 -0.0759
 8482W        W51576  23.319  24.511  17.513  0.0187 -0.0773 -0.1275
 8483W        W51577  24.971  23.995  17.544  0.2250  0.2426 -0.0333
 8484W        W51578  25.692  25.836  18.320  0.1133 -0.0446 -0.1413
 8485W        W51579  24.366  25.734  18.982  0.1016 -0.0588  0.0987
 8486W        W51580  23.089  25.247  16.210 -0.3034  0.3235  0.0288
 8487W        W51581  25.154  25.617  18.318 -0.1598 -0.2548  0.0260
 8488W        W51582  23.304  25.639  19.219 -0.1249  0.0258 -0.4337
 8489W        W51583  24.923  23.661  19.854 -0.0180 -0.1665  0.0663
 8490W        W51584  23.234  23.470  17.415  0.1581 -0.0762 -0.1298
 8491W        W51585  23.984  26.741  16.732  0.2046  0.1089 -0.3164
 8492W        W51586  23.769  24.081  18.255  0.1840  0.1215  0.0067
 8493W        W51587  23.917  23.243  20.280  0.1960  0.2551 -0.1796
 8494W        W51588  22.243  24.262  18.165  0.0488  0.3860  0.1378
 8495W        W51589  24.892  21.650  20.424 -0.0166  0.0728 -0.2639
 8496W        W51590  21.847  24.705  15.904 -0.0221 -0.0527  0.0577
 8497W        W51591  25.804  23.909  17.924  0.2395  0.1521  0.0067
 8498W        W51592  23.196  24.092  15.537  0.1798 -0.2019  0.1698
 8499W        W51593  24.421  23.508  17.943 -0.3205 -0.2873  0.0386
 8500W        W51594  22.236  22.769  18.648  0.2130  0.0267  0.0752
 8501W        W51595  22.675  26.303  18.352 -0.1670 -0.3124 -0.2142
 8502W        W51596  23.543  23.677  18.586 -0.0736 -0.1429 -0.2135
 8503W        W51597  25.129  23.262  19.562  0.0224  0.1874 -0.0287
 8504W        W51598  23.477  24.470  16.565 -0.1467 -0.0762 -0.3507
 8505W        W51599  23.838  23.634  19.792  0.4531  0.2818  0.0849
 8506W        W51600  23.526  24.627  18.499  0.0660  0.1923 -0.2149
 8507W        W51601  22.605  23.527  18.747 -0.1518  0.2688 -0.0977
 8508W        W51602  25.882  25.429  16.028  0.1397 -0.2119  0.1558
 8509W        W51603  24.646  24.905  17.483 -0.1021  0.0134 -0.1863
 8510W        W51604  23.960  25.111  15.871 -0.3120  0.0367 -0.0641
 8511W        W51605  22.772  23.455  18.290 -0.1747 -0.1346  0.1309
 8512W        W51606  22.716  24.214  19.016  0.2484 -0.2400  0.0525
 8513W        W51607  22.490  24.637  20.394  0.0898  0.1463 -0.0980
 8514W        W51608  22.466  21.405  17.774  0.0621 -0.0791  0.1380
 8515W        W51609  25.679  26.045  19.103  0.0887 -0.1783  0.4064
 8516W        W51610  24.219  25.499  19.467  0.2798  0.1882  0.0178
 8517W        W51611  24.801  23.554  18.770 -0.3855  0.1172 -0.3510
 8518W        W51612  23.258  22.856  18.783 -0.1801 -0.0949 -0.0094
 8519W        W51613  24.451  24.522  21.055  0.1683  0.2916  0.3513
 8520W        W51614  23.831  24.114  16.600 -0.0592  0.0061  0.1015
 8521W        W51615  21.898  22.993  16.777 -0.1006  0.0004 -0.1708
 8522W        W51616  24.067  22.546  18.256  0.3268 -0.2092  0.0845
 8523W        W51617  24.037  23.447  17.085 -0.2363  0.0738 -0.0095
 8524W        W51618  22.078  24.018  16.301 -0.0713  0.0947  0.1181
 8525W        W51619  25.194  25.624  17.779  0.2721  0.2934  0.0300
 8526W        W51620  26.134  23.820  16.772 -0.1267 -0.3774  0.3808
 8527W        W51621  21.728  25.547  19.031 -0.0780  0.1465 -0.0209
 8528W        W51622  23.462  21.556  18.854  0.1737 -0.1344 -0.0655
 8529W        W51623  25.927  24.353  18.124  0.0346  0.0238  0.1608
 8530W        W51624  21.444  25.430  15.727  0.1710 -0.2076 -0.0720
 8531W        W51625  22.737  24.409  18.120 -0.0430  0.1552  0.5742
 8532W        W51626  22.389  24.447  16.099  0.1384 -0.0859 -0.2698
 8533W        W51627  22.244  22.473  19.031 -0.1144  0.0950  0.0766
 8534W        W51628  24.006  23.688  18.090  0.4159 -0.3489  0.0635
 8535W        W51629  25.545  21.484  16.380 -0.2999 -0.0147 -0.2717
 8536W        W51630  23.560  22.048  18.513 -0.3386 -0.0277 -0.0325
 8537W        W51631  23.150  21.802  17.329  0.0771 -0.1901 -0.0800
 8538W        W51632  21.422  24.197  17.780  0.2215  0.0940 -0.0121
 8539W        W51633  24.535  27.308  17.121  0.0934  0.0896  0.1029
 8540W        W51634  25.023  22.202  16.764 -0.0938 -0.0007  0.2815
 8541W        W51635  25.518  25.043  16.139 -0.2450 -0.1977  0.0808
 8542W        W51636  21.995  23.308  18.197 -0.1541 -0.1525  0.1250
 8543W        W51637  21.554  22.638  16.942 -0.4418 -0.0698 -0.1544
 8544W        W51638  22.760  22.989  20.090  0.2134 -0.3742 -0.1766
 8545W        W51639  23.262  22.799  19.959 -0.0209  0.2975  0.0358
 8546W        W51640  24.501  23.678  20.668  0.0066 -0.4414 -0.0450
 8547W        W51641  22.235  22.980  17.753 -0.2672  0.1186  0.0510
 8548W        W51642  24.225  21.838  16.171 -0.0321 -0.2513 -0.3156
 8549W        W51643  23.164  25.042  17.246 -0.4328  0.0378 -0.1284
 8550W        W51644  22.646  25.757  16.529 -0.1319 -0.0677 -0.1350
 8551W        W51645  25.572  23.056  19.278  0.0022 -0.0980 -0.1583
 8552W        W51646  23.970  24.597  16.543  0.1341  0.0759  0.1636
 8553W        W51647  25.111  26.830  18.272 -0.0434 -0.0449 -0.0928
 8554W        W51648  24.774  24.434  17.218  0.3036  0.1768  0.0494
 8555W        W51649  23.027  22.805  20.507 -0.2414 -0.1800  0.3184
 8556W        W51650  22.171  22.228  16.692  0.3207  0.0236  0.3451
 8557W        W51651  22.880  25.323  16.684 -0.1030 -0.0035  0.0250
 8558W        W51652  23.271  24.761  16.178  0.1721 -0.4715 -0.0564
 8559W        W51653  24.064  24.292  17.905  0.0493 -0.5059  0.3049
 8560W        W51654  24.946  24.619  16.789  0.1544 -0.1745 -0.3635
 8561W        W51655  24.072  24.315  16.099  0.1878 -0.1695  0.2250
 8562W        W51656  21.266  23.694  18.733  0.0375  0.0216  0.4054
 8563W        W51657  25.674  21.075  18.055  0.1305  0.1649 -0.0624
 8564W        W51658  26.763  23.980  19.262  0.0743 -0.0116 -0.2162
 8565W        W51659  24.989  23.259  16.528 -0.0403 -0.1907 -0.1054
 8566W        W51660  23.313  23.834  16.474 -0.3194 -0.0258  0.1884
 8567W        W51661  24.162  25.350  16.307 -0.4805  0.0432  0.1568
 8568W        W51662  22.150  25.883  15.579 -0.1684  0.3135  0.3363
 8569W        W51663  22.144  22.943  19.470 -0.0642 -0.1181 -0.1043
 8570W        W51664  23.706  24.668  15.991 -0.1367 -0.0569  0.0635
 8571W        W51665  24.319  22.227  16.614 -0.0751 -0.0351 -0.2104
 8572W        W51666  21.991  23.588  19.739  0.0665 -0.3687 -0.1453
 8573W        W51667  24.251  24.351  18.862 -0.1463 -0.1753 -0.3584
 8574W        W51668  22.453  23.447  16.891  0.0608 -0.0110  0.0697
 8575W        W51669  22.248  25.855  17.682  0.2874  0.0843  0.1137
 8576W        W51670  23.706  23.670  16.772 -0.1034  0.0505 -0.1079
 8577W        W51671  25.434  23.438  16.232 -0.3991 -0.1343 -0.1172
 8578W        W51672  24.422  24.661  20.057 -0.1607  0.4021  0.1986
 8579W        W51673  25.659  23.634  16.625  0.5235  0.1269  0.0248
 8580W        W51674  22.988  24.442  16.563 -0.0173  0.0307 -0.1780
 8581W        W51675  23.153  22.198  15.637  0.0738 -0.0638  0.2803
 8582W        W51676  23.480  24.356  17.966  0.2082  0.1232  0.1429
 8583W        W51677  23.269  24.624  17.007 -0.2468  0.0792 -0.0125
 8584W        W51678  24.573  25.743  17.397 -0.0951  0.0091  0.0553
 8585W        W51679  24.235  23.782  16.115  0.0229  0.2468  0.1428
 8586W        W51680  25.522  24.883  16.607 -0.3747  0.0878 -0.1122
 8587W        W51681  21.814  23.996  17.349  0.2411  0.1061  0.0184
 8588W        W51682  24.308  24.818  19.145  0.0935  0.1931  0.3142
 8589W        W51683  25.674  26.947  20.593  0.1001 -0.2262 -0.0662
 8590W        W51684  24.544  22.377  18.064 -0.2204 -0.1062 -0.1602
 8591W        W51685  21.532  23.569  17.004 -0.1933 -0.0643  0.2390
 8592W        W51686  23.508  22.626  18.414  0.1323 -0.0687 -0.0259
 8593W        W51687  21.769  25.860  16.559  0.1680  0.0575  0.1221
 8594W        W51688  23.232  24.068  20.736  0.0491 -0.0644  0.1529
 8595W        W51689  24.703  24.185  19.151 -0.1582 -0.0680 -0.1911
 8596W        W51690  22.396  22.672  19.906  0.1100  0.0969  0.0786
 8597W        W51691  24.070  24.608  19.657 -0.0412 -0.0274 -0.0889
 8598W        W51692  24.552  23.972  17.800 -0.1957 -0.0724 -0.0388
 8599W        W51693  24.139  23.098  18.145 -0.0269 -0.0912  0.1128
 8600W        W51694  21.836  22.563  16.533 -0.0199  0.1681 -0.0613
 8601W        W51695  24.175  23.501  19.398 -0.3079 -0.1335  0.1089
 8602W        W51696  24.502  23.702  20.114 -0.1932  0.0082  0.2019
 8603W        W51697  24.269  24.232  19.425  0.2511 -0.1654  0.2673
 8604W        W51698  25.605  24.895  18.044 -0.0360  0.2842  0.1213
 8605W        W51699  25.318  24.367  17.381 -0.4974  0.1365  0.1287
 8606W        W51700  25.059  23.239  19.065 -0.0539  0.0853  0.1049
 8607W        W51701  23.094  22.728  15.703 -0.1752 -0.2152  0.1130
 8608W        W51702  23.648  25.544  16.331  0.0401 -0.0040  0.0384
 8609W        W51703  22.332  23.981  16.897 -0.2001  0.3817 -0.1494
 8610W        W51704  21.648  22.980  18.360 -0.1590  0.0612  0.0390
 8611W        W51705  22.820  25.636  17.675 -0.1869 -0.0973 -0.0555
 8612W        W51706  24.526  23.192  16.605  0.0239 -0.0747 -0.1146
 8613W        W51707  24.049  23.789  18.630 -0.2108 -0.4725  0.0627
 8614W        W51708  23.186  25.842  16.051  0.3218 -0.2326  0.2575
 8615W        W51709  24.461  24.754  18.655 -0.3072  0.1822  0.0359
 8616W        W51710  23.088  25.995  16.948 -0.0183 -0.5384  0.3859
 8617W        W51711  22.734  22.054  16.042 -0.2951 -0.0383  0.1685
 8618W        W51712  21.588  24.675  16.887 -0.0136 -0.0037 -0.2986
 8619W        W51713  24.792  23.725  18.222  0.1669 -0.3445 -0.2190
 8620W        W51714  25.247  24.035  16.969 -0.0635  0.0111  0.0647
 8621W        W51715  22.600  20.141  18.921  0.3661  0.1610  0.2593
 8622W        W51716  22.181  23.413  19.281  0.0387 -0.0002  0.4470
 8623W        W51717  21.868  26.251  17.822 -0.2892  0.2446 -0.2275
 8624W        W51718  24.097  24.089  19.915 -0.0826 -0.2012  0.1067
 8625W        W51719  23.050  22.761  17.503  0.2440 -0.0613  0.3203
 8626W        W51720  26.193  24.252  18.519 -0.1638 -0.0426  0.1048
 8627W        W51721  22.487  23.223  19.664 -0.0852 -0.1504  0.2156
 8628W        W51722  21.088  22.991  16.997 -0.1284  0.0530  0.0302
 8629W        W51723  24.336  23.825  19.043 -0.0638  0.1940  0.2659
 8630W        W51724  20.737  23.356  17.696  0.2052  0.1143 -0.1310
 8631W        W51725  22.453  25.199  16.742  0.1079  0.2525 -0.1452
 8632W        W51726  24.521  25.757  15.897 -0.2413  0.3381 -0.0051
 8633W        W51727  21.138  23.160  16.219 -0.1251  0.1168  0.0908
 8634W        W51728  21.751  24.111  16.791  0.0745 -0.4895  0.2216
 8635W        W51729  25.222  21.929  19.784 -0.0192 -0.1470 -0.0766
 8636W        W51730  25.549  24.132  19.321 -0.1535  0.0711  0.1510
 8637W        W51731  23.243  23.649  18.177 -0.4685  0.1775  0.1728
 8638W        W51732  22.695  24.148  17.576 -0.1731  0.2282  0.0814
 8639W        W51733  23.496  21.785  16.825  0.0180 -0.0072  0.2010
 8640W        W51734  24.760  22.339  19.833 -0.0032  0.0694  0.1956
 8641W        W51735  22.889  22.252  19.171  0.2526  0.2980  0.0473
 8642W        W51736  22.943  23.839  19.236  0.1139 -0.1932 -0.5138
 8643W        W51737  22.711  23.247  17.416 -0.0729  0.0493  0.0127
 8644W        W51738  25.815  25.795  16.885 -0.0869 -0.1242  0.2191
 8645W        W51739  23.217  23.539  20.635 -0.3846  0.2570  0.0438
 8646W        W51740  22.445  23.681  16.395  0.1828  0.0766 -0.4935
 8647W        W51741  22.979  23.817  18.671  0.2483 -0.0355  0.2370
 8648W        W51742  23.226  23.988  17.429  0.0222 -0.0668 -0.1061
 8649W        W51743  22.683  24.201  19.580  0.3606 -0.0261 -0.2437
 8650W        W51744  22.357  24.706  17.348  0.2865 -0.1362  0.2860
 8651W        W51745  21.783  24.399  16.386 -0.1277  0.0835 -0.0408
 8652W        W51746  23.556  23.871  17.816 -0.0904 -0.2617 -0.0267
 8653W        W51747  25.350  22.419  15.937 -0.2687 -0.0595  0.0382
 8654W        W51748  24.375  24.112  15.758  0.0277 -0.2640 -0.2972
 8655W        W51749  22.620  24.091  18.519 -0.2088 -0.0900 -0.0731
 8656W        W51750  24.857  22.063  18.494 -0.1201  0.2386  0.1658
 8657W        W51751  24.255  23.259  16.199  0.0202  0.2468 -0.1874
 8658W        W51752  24.986  21.624  18.857  0.0480 -0.0726 -0.0245
 8659W        W51753  24.552  23.080  17.606  0.0864 -0.0559 -0.0626
 8660W        W51754  24.009  26.049  18.654  0.2975  0.3974 -0.0240
 8661W        W51755  23.033  21.907  18.754  0.2336 -0.0800 -0.2449
 8662W        W51756  25.212  25.562  20.470  0.1834 -0.0168 -0.1047
 8663W        W51757  22.423  24.813  18.368 -0.1416 -0.1899 -0.0228
 8664W        W51758  23.860  22.217  16.919  0.0492 -0.1433 -0.0675
 8665W        W51759  21.657  21.143  16.087  0.0654 -0.0041 -0.1647
 8666W        W51760  23.674  23.691  17.342  0.2231 -0.1088 -0.1602
 8667W        W51761  25.297  24.509  19.644 -0.2743 -0.0148  0.0166
 8668W        W51762  24.545  24.489  16.373  0.0241 -0.0796  0.3839
 8669W        W51763  24.959  22.699  17.896  0.2310  0.1002  0.1771
 8670W        W51764  23.142  24.288  19.675 -0.3732 -0.1609  0.2057
 8671W        W51765  23.396  23.290  16.534 -0.1916  0.2603 -0.1421
 8672W        W51766  23.395  25.155  15.870  0.1732  0.0536 -0.1295
 8673W        W51767  22.119  24.845  16.943 -0.0713  0.2218 -0.0134
 8674W        W51768  23.300  22.335  18.861  0.0168 -0.2667 -0.0999
 8675W        W51769  23.177  25.684  16.523  0.1303 -0.0901 -0.1038
 8676W        W51770  24.043  23.057  16.719 -0.0343 -0.4022  0.0425
 8677W        W51771  24.431  23.272  18.932  0.2709  0.2022  0.3760
 8678W        W51772  24.423  22.784  19.808 -0.4057 -0.0835 -0.0902
 8679W        W51773  23.725  22.806  19.035  0.0549  0.3452 -0.2022
 8680W        W51774  23.322  21.719  19.683 -0.0679 -0.3249  0.3915
 8681W        W51775  25.187  26.031  18.639 -0.2812 -0.1819  0.1824
 8682W        W51776  25.846  23.155  16.227 -0.0273 -0.0086 -0.0459
 8683W        W51777  24.692  22.062  19.026 -0.2069  0.1075 -0.0318
 8684W        W51778  26.984  23.708  16.505 -0.3602 -0.0538  0.3240
 8685W        W51779  23.865  23.376  15.816  0.1627 -0.2871 -0.0781
 8686W        W51780  23.025  22.963  18.339 -0.2591 -0.2819  0.1031
 8687W        W51781  23.257  22.769  21.057  0.2843  0.0875 -0.0932
 8688W        W51782  22.689  22.325  16.639 -0.0124 -0.0726  0.0930
 8689W        W51783  23.860  22.786  20.013 -0.0704  0.1589 -0.0231
 8690W        W51784  25.568  25.808  15.986 -0.0536 -0.3691 -0.1097
 8691W        W51785  24.312  24.064  16.520  0.0953  0.1305  0.2789
 8692W        W51786  23.259  22.368  17.168 -0.2135 -0.2230  0.1141
 8693W        W51787  21.412  25.036  17.287  0.0339 -0.1959  0.0317
 8694W        W51788  23.186  25.078  19.137 -0.0341  0.0818 -0.2061
 8695W        W51789  22.375  22.352  16.227 -0.0108  0.0837  0.2473
 8696W        W51790  23.450  24.138  16.943  0.5747 -0.1637 -0.0528
 8697W        W51791  24.627  24.543  19.600  0.2268 -0.2710 -0.0522
 8698W        W51792  24.874  25.156  19.934  0.0528  0.5099  0.1527
 8699W        W51793  23.166  23.118  17.863 -0.1820 -0.0925 -0.0653
 8700W        W51794  24.442  21.986  20.471  0.3682 -0.1623  0.2112
 8701W        W51795  21.948  25.307  16.903 -0.0979  0.1619 -0.1383
 8702W        W51796  23.187  21.948  18.212 -0.0231  0.1482  0.4378
 8703W        W51797  23.514  25.705  18.699 -0.0393 -0.0408  0.1853
 8704W        W51798  21.973  24.482  20.184 -0.1647  0.1503  0.0973
 8705W        W51799  22.238  26.080  16.543 -0.2847  0.1778  0.1408
 8706W        W51800  22.630  23.045  18.775 -0.0891  0.3142  0.0964
 8707W        W51801  25.035  23.033  17.488 -0.2539 -0.0063  0.0047
 8708W        W51802  24.164  23.634  16.542 -0.0473 -0.0186  0.0116
 8709W        W51803  26.338  24.710  19.329 -0.0828 -0.2247  0.3041
 8710W        W51804  23.848  23.861  19.291  0.0395 -0.0930 -0.0443
 8711W        W51805  24.138  23.788  17.640 -0.2505  0.1582  0.0960
 8712W        W51806  25.289  26.547  18.720 -0.0211 -0.3614 -0.2497
 8713W        W51807  25.435  24.269  17.842  0.0604  0.2308  0.0367
 8714W        W51808  23.735  24.085  18.784  0.3635  0.0492 -0.0993
 8715W        W51809  21.928  22.898  19.045  0.1204  0.1401  0.2708
 8716W        W51810  22.943  24.355  20.305  0.0167 -0.0546 -0.1396
 8717W        W51811  24.289  24.084  18.278 -0.0542 -0.4953 -0.0105
 8718W        W51812  21.354  22.230  16.662 -0.2074  0.2585 -0.1365
 8719W        W51813  24.413  25.257  15.854  0.1518 -0.0880 -0.5112
 8720W        W51814  22.229  24.249  19.280  0.0604 -0.2050  0.2033
 8721W        W51815  21.360  24.233  18.737  0.0231  0.1231  0.0414
 8722W        W51816  23.428  26.299  16.173  0.1942 -0.1155  0.0743
 8723W        W51817  24.068  24.584  15.543  0.0508 -0.0830 -0.0224
 8724W        W51818  24.424  23.594  15.719 -0.1473  0.0216  0.0491
 8725W        W51819  23.440  25.527  16.969  0.0861 -0.0359 -0.1868
 8726W        W51820  23.428  22.293  16.111 -0.0989 -0.1234  0.2010
 8727W        W51821  22.808  25.183  17.947 -0.1021  0.1474  0.2797
 8728W        W51822  22.964  25.485  15.753 -0.1803  0.0550 -0.1932
 8729W        W51823  25.492  24.477  16.881 -0.0300  0.0021  0.1532
 8730W        W51824  22.309  24.575  16.608 -0.1788  0.0002  0.0245
 8731W        W51825  26.718  27.086  19.954  0.0295 -0.3385  0.1539
 8732W        W51826  24.961  22.503  15.529  0.2610 -0.1829 -0.0508
 8733W        W51827  25.123  23.869  18.975  0.1340 -0.1191  0.0447
 8734W        W51828  24.699  23.484  16.117 -0.2760 -0.1567  0.2284
 8735W        W51829  25.942  26.597  19.851  0.0254 -0.0750 -0.1358
 8736W        W51830  23.612  24.770  18.994  0.0967 -0.0744 -0.2181
 8737W        W51831  23.306  22.762  16.692  0.1114  0.2341  0.0150
 8738W        W51832  22.724  23.887  20.481 -0.1434 -0.0077 -0.2162
 8739W        W51833  25.524  20.074  17.945  0.1429  0.1836 -0.3730
 8740W        W51834  21.178  24.702  19.056  0.1888  0.1123  0.0131
 8741W        W51835  25.123  24.426  16.041  0.4164 -0.0623 -0.3035
 8742W        W51836  23.595  23.195  16.983  0.0196 -0.0698  0.0053
 8743W        W51837  22.265  25.343  17.715 -0.2441  0.3000 -0.0869
 8744W        W51838  25.724  22.620  19.004  0.0610  0.0769 -0.1250
 8745W        W51839  23.594  24.907  15.515 -0.0458 -0.1668 -0.0268
 8746W        W51840  24.049  22.966  17.240  0.0849  0.0418 -0.0421
 8747W        W51841  22.238  25.788  16.927  0.1043  0.1850 -0.3288
 8748W        W51842  23.075  24.089  17.949 -0.1800  0.0698  0.0893
 8749W        W51843  23.680  25.225  18.460  0.2338  0.2869  0.3886
 8750W        W51844  21.923  21.647  16.722  0.3407  0.3551  0.1660
 8751W        W51845  25.151  21.547  16.006 -0.3357  0.0549  0.2224
 8752W        W51846  24.597  22.519  19.366 -0.3333  0.0217  0.1507
 8753W        W51847  25.790  21.519  18.288 -0.3644  0.0835  0.1265
 8754W        W51848  21.701  23.039  17.308 -0.1612 -0.0289 -0.1484
 8755W        W51849  25.649  22.964  16.666 -0.2203 -0.0093  0.0877
 8756W        W51850  24.918  24.932  21.119  0.3366  0.1133 -0.2046
 8757W        W51851  22.457  22.666  17.473  0.2312  0.2433  0.0316
 8758W        W51852  22.892  24.270  16.074  0.0427  0.2769 -0.1438
 8759W        W51853  24.766  23.186  20.699  0.0674 -0.1708 -0.3194
 8760W        W51854  25.663  24.143  16.601 -0.0394 -0.2783  0.2211
 8761W        W51855  26.425  26.664  19.801  0.1324  0.1747  0.0006
 8762W        W51856  20.503  23.144  16.811 -0.3116  0.2504  0.1542
 8763W        W51857  25.022  22.082  15.927 -0.4943  0.0828  0.1374
 8764W        W51858  23.266  24.123  18.419 -0.0182  0.2273  0.0511
 8765W        W51859  23.381  23.107  20.386 -0.1617  0.3320 -0.0753
 8766W        W51860  24.727  25.478  19.244  0.1188 -0.0159 -0.1516
 8767W        W51861  20.430  22.617  17.031 -0.1890 -0.0981  0.0198
 8768W        W51862  23.357  22.252  16.613 -0.0758 -0.0358  0.4456
 8769W        W51863  24.145  22.916  19.268 -0.1444  0.0300  0.0131
 8770W        W51864  24.389  25.328  16.777  0.2642  0.0138 -0.2203
 8771W        W51865  23.798  23.297  16.273  0.1885 -0.1685  0.2442
 8772W        W51866  24.302  25.259  17.523 -0.3460 -0.0350  0.4180
 8773W        W51867  21.469  23.619  17.566 -0.3631  0.0456  0.2180
 8774W        W51868  24.943  25.363  17.413  0.1190  0.3569 -0.1446
 8775W        W51869  24.908  23.689  17.169  0.0268  0.3183  0.0622
 8776W        W51870  22.889  23.576  17.788  0.1101 -0.1690  0.1642
 8777W        W51871  22.846  24.574  17.380  0.0917  0.1004 -0.1361
 8778W        W51872  22.793  26.386  16.789 -0.0906  0.1830  0.0916
 8779W        W51873  25.465  24.278  18.819 -0.3936  0.3333  0.6324
 8780W        W51874  25.931  23.694  19.538 -0.0706 -0.0319  0.1252
 8781W        W51875  22.134  25.412  16.431  0.0451  0.1583 -0.1173
 8782W        W51876  26.156  20.958  20.523 -0.0879 -0.2214 -0.2071
 8783W        W51877  23.727  26.270  19.009 -0.2692 -0.0811 -0.1726
 8784W        W51878  23.033  24.563  19.205 -0.1584  0.2003  0.0139
 8785W        W51879  20.984  23.342  16.683  0.3330  0.3573  0.1901
 8786W        W51880  25.140  25.163  18.114 -0.1545 -0.1858 -0.0901
 8787W        W51881  21.620  23.878  16.144 -0.1066 -0.3590 -0.0867
 8788W        W51882  24.213  24.453  17.399 -0.0985 -0.1748  0.1878
 8789W        W51883  23.734  24.183  17.451  0.1200 -0.1169 -0.1400
 8790W        W51884  23.715  22.150  17.395 -0.1798  0.3399  0.1830
 8791W        W51885  24.261  25.052  19.837  0.0410 -0.0122 -0.2039
 8792W        W51886  22.272  22.142  15.760  0.0812  0.2048  0.3216
 8793W        W51887  23.717  22.579  17.568  0.1096 -0.2414  0.0343
 8794W        W51888  24.529  22.606  15.694 -0.3518  0.2131 -0.0791
 8795W        W51889  22.415  23.793  19.419 -0.0723  0.0112 -0.0214
 8796W        W51890  22.349  23.193  16.485 -0.3631  0.0041 -0.1240
 8797W        W51891  21.886  23.592  16.548  0.1019 -0.0595  0.4132
 8798W        W51892  21.925  25.796  18.077  0.0720  0.1077 -0.0803
 8799W        W51893  24.457  21.893  18.147  0.1220  0.2428  0.2093
 8800W        W51894  22.429  22.294  19.500 -0.1137 -0.2270  0.0523
 8801W        W51895  21.860  24.202  18.838  0.0602  0.1210  0.2254
 8802W        W51896  21.222  22.288  16.208 -0.0690  0.0199 -0.0133
 8803W        W51897  26.543  24.311  16.119 -0.1805 -0.0962  0.0359
 8804W        W51898  24.459  22.328  18.589  0.1896 -0.1611  0.1040
 8805W        W51899  20.470  22.059  16.835 -0.0675 -0.1676 -0.1229
 8806W        W51900  23.694  24.280  19.700 -0.0675 -0.3160 -0.0280
 8807W        W51901  25.513  23.899  17.489 -0.0274 -0.0627  0.0317
 8808W        W51902  23.158  22.990  16.220  0.0033  0.3288 -0.0519
 8809W        W51903  27.397  27.338  19.751 -0.0346 -0.3820 -0.1267
 8810W        W51904  20.876  25.126  15.805  0.4786 -0.1629 -0.1363
 8811W        W51905  23.600  22.800  19.606 -0.0101  0.0662  0.0052
 8812W        W51906  24.249  22.444  20.718 -0.0189  0.1307 -0.2239
 8813W        W51907  21.803  22.061  16.433 -0.0318 -0.0507 -0.0092
 8814W        W51908  23.447  23.644  19.115 -0.1003 -0.3514  0.1884
 8815W        W51909  24.096  23.953  16.955  0.1777 -0.1676  0.3593
 8816W        W51910  23.805  24.508  17.064 -0.1969 -0.0208 -0.1840
 8817W        W51911  24.810  25.075  18.482 -0.1919  0.1191  0.1771
 8818W        W51912  22.979  24.502  18.625 -0.0971 -0.3549  0.0893
 8819W        W51913  21.737  22.075  18.370 -0.0429 -0.2918  0.0721
 8820W        W51914  25.800  23.938  16.123  0.2034  0.4166  0.0968
 8821W        W51915  23.294  24.148  19.016 -0.0477 -0.0105 -0.0551
 8822W        W51916  25.878  25.046  16.988  0.0467  0.3497  0.2842
 8823W        W51917  24.637  22.606  17.567 -0.0057 -0.0089 -0.1307
 8824W        W51918  24.774  23.965  16.325 -0.1116 -0.1598 -0.0018
 8825W        W51919  24.191  22.031  20.017  0.0076 -0.1759 -0.2936
 8826W        W51920  22.921  24.945  18.430  0.1556 -0.2590  0.0543
 8827W        W51921  24.601  25.066  19.449 -0.1761 -0.2667 -0.1712
 8828W        W51922  21.405  22.564  18.514  0.3212 -0.0445 -0.1108
 8829W        W51923  25.070  22.758  16.814 -0.0844 -0.0795  0.1403
 8830W        W51924  24.312  25.790  16.410 -0.2231  0.4203 -0.1211
 8831W        W51925  22.591  23.917  18.035  0.0330  0.0705  0.2158
 8832W        W51926  25.539  24.183  15.802  0.2212  0.1196 -0.0349
 8833W        W51927  24.123  23.823  20.405  0.1669  0.1729  0.2538
 8834W        W51928  24.002  24.507  18.485 -0.1050  0.3775  0.1456
 8835W        W51929  23.509  24.442  20.467  0.0403 -0.1394  0.3145
 8836W        W51930  22.546  23.488  15.764 -0.1848 -0.1887 -0.0044
 8837W        W51931  26.084  24.679  17.236 -0.1799  0.0666  0.2083
 8838W        W51932  23.319  25.622  18.187  0.0451 -0.2384 -0.0655
 8839W        W51933  25.521  26.416  21.344  0.1419 -0.1043  0.1094
 8840W        W51934  23.192  27.111  20.070 -0.0763 -0.1621 -0.0287
 8841W        W51935  24.695  23.639  16.770 -0.1203 -0.0408 -0.2373
 8842W        W51936  20.858  21.668  17.255 -0.0509  0.0466 -0.2863
 8843W        W51937  23.693  23.362  18.008  0.0265  0.2348 -0.0166
 8844W        W51938  23.548  23.084  17.494  0.1145 -0.1184 -0.0476
 8845W        W51939  23.767  23.299  19.305 -0.0366 -0.2195 -0.3505
 8846W        W51940  19.443  23.846  17.292  0.2247  0.0609 -0.0315
 8847W        W51941  22.705  22.807  16.339  0.1134  0.1129 -0.1869
 8848W        W51942  24.020  25.551  18.672 -0.1192  0.0918  0.1130
 8849W        W51943  25.129  24.903  19.338  0.3743 -0.0541  0.1186
 8850W        W51944  21.484  24.775  23.289 -0.0350  0.0503  0.1720
 8851W        W51945  24.084  21.657  21.700  0.1382 -0.0893  0.0444
 8852W        W51946  25.382  22.847  18.759  0.0426 -0.0187 -0.3519
 8853W        W51947  25.553  24.226  21.958  0.1126  0.5049 -0.1789
 8854W        W51948  22.652  22.302  20.854 -0.2511  0.1518  0.4808
 8855W        W51949  25.060  26.524  21.091 -0.0731 -0.1037 -0.0055
 8856W        W51950  23.373  21.388  22.794  0.3211  0.0928  0.1604
 8857W        W51951  23.343  23.475  21.578 -0.1086 -0.1792 -0.1510
 8858W        W51952  26.846  26.253  22.759 -0.1123  0.0190 -0.0041
 8859W        W51953  24.606  24.189  20.073 -0.0705 -0.1467 -0.1007
 8860W        W51954  22.824  22.330  21.582  0.1486 -0.1107  0.0690
 8861W        W51955  23.592  24.061  22.682  0.1525 -0.0722 -0.0259
 8862W        W51956  25.208  20.867  20.006  0.3074 -0.0842  0.2925
 8863W        W51957  24.130  19.239  21.820 -0.0098  0.2374 -0.1863
 8864W        W51958  25.704  23.127  20.673 -0.0177 -0.2323  0.3389
 8865W        W51959  20.833  22.992  19.876  0.1555 -0.1330  0.2003
 8866W        W51960  21.989  22.392  22.301 -0.3167  0.3654 -0.0586
 8867W        W51961  24.055  22.543  21.739 -0.0938  0.2344  0.0828
 8868W        W51962  23.911  26.007  22.420 -0.2395  0.2793  0.0167
 8869W        W51963  23.295  22.751  24.387  0.2819 -0.1132 -0.0421
 8870W        W51964  24.325  22.006  22.621  0.0632 -0.1118  0.2851
 8871W        W51965  22.585  24.288  20.730 -0.3552  0.3317 -0.0089
 8872W        W51966  23.472  23.260  19.787  0.0241 -0.0205 -0.1535
 8873W        W51967  22.520  22.398  22.167  0.0837 -0.0174  0.0842
 8874W        W51968  22.487  23.681  21.804  0.0281  0.0220  0.2096
 8875W        W51969  25.134  21.586  21.376  0.2951  0.0094 -0.0399
 8876W        W51970  23.826  22.869  20.963 -0.1394 -0.0635 -0.2870
 8877W        W51971  23.037  25.297  20.738 -0.0833  0.0563  0.0768
 8878W        W51972  24.356  26.754  22.214  0.2380 -0.2325  0.0019
 8879W        W51973  25.461  23.735  22.683 -0.0805 -0.0396 -0.2611
 8880W        W51974  23.252  24.073  21.463  0.2234  0.2526  0.0480
 8881W        W51975  21.441  23.592  20.503  0.1850  0.0731 -0.4146
 8882W        W51976  24.248  25.092  22.033  0.0780 -0.1303 -0.0900
 8883W        W51977  25.013  24.481  21.973  0.0753  0.2586  0.0760
 8884W        W51978  25.432  24.621  23.196 -0.0093 -0.3640  0.3534
 8885W        W51979  22.830  25.113  24.561 -0.0595 -0.0746  0.1072
 8886W        W51980  22.394  24.698  19.843 -0.0982  0.0143 -0.2996
 8887W        W51981  24.641  26.141  24.300  0.0392  0.1350 -0.1547
 8888W        W51982  22.851  24.920  23.149  0.1481  0.0673 -0.0907
 8889W        W51983  23.575  22.581  23.190 -0.0078 -0.1884  0.0165
 8890W        W51984  23.195  22.875  21.628  0.3209 -0.3251 -0.0821
 8891W        W51985  24.471  25.897  21.730  0.1961  0.5598  0.4485
 8892W        W51986  23.496  24.473  22.399  0.0564 -0.0138 -0.1324
 8893W        W51987  24.624  24.570  23.499  0.0111 -0.2317  0.2974
 8894W        W51988  21.516  24.445  22.807  0.1482 -0.2174  0.0951
 8895W        W51989  25.367  23.262  22.833 -0.3168 -0.2602  0.2290
 8896W        W51990  22.678  25.203  19.235 -0.3465 -0.2153  0.1432
 8897W        W51991  23.204  24.339  22.019  0.3252 -0.3015 -0.2271
 8898W        W51992  23.702  22.432  20.807  0.1217 -0.0459 -0.3006
 8899W        W51993  25.373  21.593  20.632  0.2851 -0.1171 -0.0656
 8900W        W51994  23.897  21.749  22.525 -0.1581  0.0274  0.1474
 8901W        W51995  23.263  25.061  21.209 -0.0559 -0.0749  0.1845
 8902W        W51996  24.035  20.741  21.804  0.0823 -0.2250  0.1400
 8903W        W51997  26.421  24.246  23.897 -0.0672 -0.0599 -0.0220
 8904W        W51998  22.889  24.080  21.104  0.0206  0.0244 -0.0224
 8905W        W51999  25.291  23.158  22.288 -0.2882 -0.2789  0.1732
 8906W        W52000  22.183  24.088  23.010  0.3016  0.2909  0.0677
 8907W        W52001  24.354  22.534  20.207 -0.1071 -0.0112  0.1188
 8908W        W52002  25.794  25.066  20.134  0.1776 -0.2213  0.0202
 8909W        W52003  26.149  23.647  22.908  0.0196  0.3003 -0.0395
 8910W        W52004  25.246  26.380  19.362 -0.1527  0.1932 -0.1989
 8911W        W52005  22.714  22.801  21.820 -0.1969  0.2600  0.0457
 8912W        W52006  22.677  23.538  23.790  0.1682  0.2243 -0.1292
 8913W        W52007  22.488  23.482  25.391 -0.2292 -0.0439  0.2106
 8914W        W52008  24.371  21.539  20.287 -0.1428 -0.0995  0.5195
 8915W        W52009  26.399  23.511  24.503 -0.0449 -0.2238  0.1763
 8916W        W52010  23.331  23.507  23.359 -0.1010  0.0174 -0.1455
 8917W        W52011  24.850  21.476  20.886  0.2185  0.0677  0.0342
 8918W        W52012  23.090  22.325  21.198  0.1441  0.6439 -0.0158
 8919W        W52013  25.486  25.024  22.729  0.0350  0.1581  0.1659
 8920W        W52014  25.090  24.094  20.175 -0.0659  0.2030  0.0898
 8921W        W52015  23.555  22.578  21.956 -0.1673 -0.0380  0.1574
 8922W        W52016  25.815  21.398  23.245  0.2179  0.1609  0.0948
 8923W        W52017  21.836  23.926  20.624  0.4094 -0.0755 -0.0820
 8924W        W52018  23.649  25.393  19.480  0.1221 -0.0182 -0.2003
 8925W        W52019  24.869  25.433  20.894 -0.2515 -0.1183 -0.0386
 8926W        W52020  24.999  24.008  21.872  0.1365  0.0236 -0.1491
 8927W        W52021  24.156  25.520  21.733 -0.3783  0.2618  0.0396
 8928W        W52022  24.800  22.699  22.346  0.2318 -0.3740  0.1298
 8929W        W52023  23.489  24.731  23.890 -0.0582 -0.0103 -0.0308
 8930W        W52024  23.468  26.218  20.304 -0.0910  0.4030  0.0062
 8931W        W52025  22.371  24.082  21.457 -0.1526  0.2084 -0.1007
 8932W        W52026  21.578  23.990  19.632 -0.1001 -0.0657 -0.1018
 8933W        W52027  22.184  21.504  22.975 -0.0261  0.0146 -0.0586
 8934W        W52028  24.275  25.185  22.889  0.1781  0.1238  0.4734
 8935W        W52029  24.198  20.572  21.202 -0.2622  0.0370 -0.0153
 8936W        W52030  22.897  22.255  23.460  0.1125 -0.1933  0.1443
 8937W        W52031  25.384  22.479  21.133 -0.0272 -0.1101 -0.3991
 8938W        W52032  21.223  23.988  20.105 -0.1918 -0.0033  0.3058
 8939W        W52033  25.788  26.372  20.369  0.1828 -0.4068 -0.0065
 8940W        W52034  25.329  22.136  21.627 -0.3512 -0.0811 -0.0431
 8941W        W52035  24.314  24.618  20.550 -0.0181  0.0642 -0.2081
 8942W        W52036  21.551  24.305  20.460  0.0928 -0.3385 -0.0330
 8943W        W52037  24.352  21.670  20.833 -0.1191  0.1318 -0.0235
 8944W        W52038  22.848  22.731  23.132 -0.0330 -0.2124 -0.0428
 8945W        W52039  22.415  23.651  23.220  0.2676  0.2405 -0.1669
 8946W        W52040  24.732  23.144  22.056  0.3589  0.1367  0.4065
 8947W        W52041  24.557  21.210  19.441 -0.1192 -0.1888  0.2447
 8948W        W52042  24.339  22.881  20.952 -0.1346 -0.0028  0.0743
 8949W        W52043  23.973  24.367  20.298 -0.0609  0.0213  0.2886
 8950W        W52044  21.515  24.177  21.457 -0.2345  0.0315 -0.0426
 8951W        W52045  24.155  22.286  24.009  0.0117  0.1350 -0.0075
 8952W        W52046  23.403  25.204  20.376  0.0752 -0.1584  0.1005
 8953W        W52047  25.647  24.390  24.053  0.0309 -0.3634 -0.0236
 8954W        W52048  24.616  24.182  22.191  0.0902  0.1692  0.3440
 8955W        W52049  23.038  22.247  22.997 -0.2315 -0.0847 -0.4682
 8956W        W52050  21.383  23.830  19.167  0.2861  0.0051 -0.1783
 8957W        W52051  23.277  24.883  22.763 -0.0354 -0.0602  0.0747
 8958W        W52052  22.852  22.857  21.295 -0.0145 -0.0751 -0.0635
 8959W        W52053  22.636  23.673  20.925 -0.0680 -0.2207 -0.0857
 8960W        W52054  25.014  25.011  22.758  0.0449  0.0827 -0.0541
 8961W        W52055  23.402  24.823  20.784 -0.3866  0.2081  0.0011
 8962W        W52056  20.785  23.966  22.172  0.1689  0.0046  0.0973
 8963W        W52057  26.066  22.617  23.270  0.2542  0.1472  0.1034
 8964W        W52058  25.283  22.587  22.576  0.0853 -0.3368  0.2647
 8965W        W52059  23.961  23.371  21.160 -0.0972  0.1435 -0.1110
 8966W        W52060  23.479  22.534  20.351 -0.1811 -0.1052 -0.0066
 8967W        W52061  23.217  25.847  21.885 -0.1699  0.2542 -0.1302
 8968W        W52062  20.995  24.426  20.467  0.3596 -0.0026  0.1203
 8969W        W52063  22.461  24.839  17.833  0.0749 -0.1835 -0.0934
 8970W        W52064  23.101  24.917  21.671 -0.0332 -0.0340 -0.2400
 8971W        W52065  24.273  22.994  21.520  0.1712 -0.0453 -0.2719
 8972W        W52066  22.163  22.128  24.225  0.0659 -0.0151 -0.1617
 8973W        W52067  23.643  23.430  23.843  0.3814 -0.2584 -0.1781
 8974W        W52068  21.038  23.501  20.142  0.3216 -0.0185  0.0296
 8975W        W52069  22.614  23.942  22.855 -0.0629  0.3058  0.3095
 8976W        W52070  25.651  21.041  20.540 -0.1143 -0.2363 -0.0646
 8977W        W52071  26.213  21.170  22.334  0.2888  0.0771 -0.0367
 8978W        W52072  24.468  24.695  23.965  0.4389  0.0929  0.1853
 8979W        W52073  26.125  25.819  20.242  0.0443 -0.1138 -0.3367
 8980W        W52074  24.845  22.414  20.962 -0.3447 -0.4659  0.1516
 8981W        W52075  24.426  22.081  21.149 -0.0475 -0.3305  0.0534
 8982W        W52076  21.948  24.822  22.676  0.2909 -0.1354 -0.0085
 8983W        W52077  25.181  25.649  21.951  0.1310  0.0215  0.1118
 8984W        W52078  24.268  23.576  21.507  0.1284  0.3242 -0.1315
 8985W        W52079  23.517  23.636  20.200  0.0330  0.0273 -0.1456
 8986W        W52080  24.251  25.621  20.248  0.0454  0.0421  0.1483
 8987W        W52081  23.045  24.510  20.797  0.0902  0.1651 -0.0864
 8988W        W52082  25.082  24.339  23.669  0.0147 -0.2115 -0.0948
 8989W        W52083  24.631  24.797  22.247 -0.0636  0.1268  0.0696
 8990W        W52084  24.663  22.603  24.016 -0.0653  0.0937  0.1084
 8991W        W52085  23.102  22.252  20.650 -0.0742  0.2906  0.1616
 8992W        W52086  24.515  22.614  21.318  0.0361  0.0382 -0.1227
 8993W        W52087  22.623  24.857  18.857 -0.1604 -0.0500  0.2680
 8994W        W52088  25.022  20.899  21.799 -0.3575  0.2300 -0.1577
 8995W        W52089  23.435  20.746  20.946  0.2246 -0.0549  0.2202
 8996W        W52090  24.581  22.030  23.730  0.3912 -0.1123 -0.0790
 8997W        W52091  25.742  22.883  23.502  0.0723  0.0235  0.1768
 8998W        W52092  25.386  23.612  22.132  0.0188 -0.0326  0.0607
 8999W        W52093  23.577  23.872  21.884 -0.1827  0.1706  0.0998
 9000W        W52094  23.292  22.020  19.269  0.2072  0.2548  0.0102
 9001W        W52095  23.854  21.400  22.832 -0.2446  0.0452  0.1832
 9002W        W52096  24.188  23.467  22.827  0.3048  0.0934  0.0400
 9003W        W52097  21.267  24.668  21.702 -0.0137  0.3521  0.0618
 9004W        W52098  24.576  25.274  22.466  0.1019  0.0749 -0.2440
 9005W        W52099  24.704  26.636  21.456  0.0923  0.1391  0.1992
 9006W        W52100  23.372  21.853  22.808  0.1856  0.1244  0.0336
 9007W        W52101  24.987  23.126  20.056 -0.2009  0.0695 -0.0353
 9008W        W52102  23.903  25.756  21.078  0.0532  0.0609 -0.2552
 9009W        W52103  22.511  23.956  19.940  0.3879  0.2080 -0.1151
 9010W        W52104  24.730  21.815  22.259  0.2152  0.1325  0.2357
 9011W        W52105  23.266  25.106  23.312  0.2094 -0.2549  0.0691
 9012W        W52106  22.792  25.173  17.461  0.1086 -0.2995  0.2090
 9013W        W52107  24.484  23.731  22.487  0.0875  0.5191 -0.1432
 9014W        W52108  22.432  25.362  20.517 -0.1238 -0.1883  0.0248
 9015W        W52109  24.496  20.903  21.988 -0.1047 -0.0814  0.0274
 9016W        W52110  21.699  24.317  20.998 -0.2045  0.1852 -0.1497
 9017W        W52111  24.168  23.274  20.708 -0.1885 -0.3022  0.0732
 9018W        W52112  21.913  22.526  19.701 -0.1307 -0.1430  0.0437
 9019W        W52113  23.933  21.983  20.896  0.2268 -0.1021  0.0274
 9020W        W52114  24.519  24.726  21.554  0.0320 -0.0164  0.4816
 9021W        W52115  23.747  22.992  22.065  0.1331 -0.1398  0.2344
 9022W        W52116  23.228  21.562  21.740  0.0021 -0.0148 -0.0332
 9023W        W52117  22.914  24.869  20.525 -0.0177 -0.0157  0.0198
 9024W        W52118  23.562  23.434  22.142  0.0156  0.0149 -0.0541
 9025W        W52119  25.527  21.404  19.647  0.2363 -0.0854 -0.2917
 9026W        W52120  25.235  22.845  24.238 -0.0282 -0.2058 -0.0678
 9027W        W52121  22.916  22.715  23.664 -0.1199  0.1124 -0.0054
 9028W        W52122  22.912  23.542  19.603 -0.1704  0.1820 -0.0089
 9029W        W52123  26.299  22.972  22.426  0.0589 -0.2791 -0.1501
 9030W        W52124  23.734  22.855  21.585 -0.0657  0.1800  0.0290
 9031W        W52125  23.201  25.277  22.080 -0.0811  0.1993 -0.2891
 9032W        W52126  23.807  24.214  22.168 -0.0005 -0.0951  0.0640
 9033W        W52127  23.509  22.433  21.357  0.1461 -0.1191  0.1123
 9034W        W52128  21.966  23.467  20.889 -0.1070  0.0621 -0.0335
 9035W        W52129  22.010  22.151  22.962 -0.0575 -0.1881  0.3655
 9036W        W52130  23.838  23.384  21.714 -0.3420 -0.0402  0.1475
 9037W        W52131  23.717  20.648  22.242 -0.3051  0.2089 -0.3808
 9038W        W52132  24.666  23.339  21.597 -0.0873  0.1148 -0.0281
 9039W        W52133  22.930  23.220  20.986 -0.1225  0.0047 -0.0415
 9040W        W52134  25.132  23.566  23.101  0.1614  0.2096  0.1442
 9041W        W52135  23.960  23.286  24.221 -0.1849  0.0527  0.3829
 9042W        W52136  24.318  24.208  22.622 -0.1256  0.0821 -0.0859
 9043W        W52137  24.171  21.839  22.132  0.1991  0.0219 -0.3344
 9044W        W52138  24.618  25.575  19.750  0.1278 -0.3620  0.1659
 9045W        W52139  23.519  23.130  21.270  0.0517 -0.2722 -0.1634
 9046W        W52140  23.191  24.759  20.051  0.1171  0.2009 -0.4457
 9047W        W52141  22.723  24.434  21.431  0.0593  0.2243  0.0864
 9048W        W52142  22.688  25.785  20.581 -0.1605  0.1662 -0.0086
 9049W        W52143  24.201  22.981  23.432  0.1914  0.1424  0.1655
 9050W        W52144  22.864  24.343  23.343  0.0111 -0.1918 -0.1650
 9051W        W52145  22.213  23.993  20.909 -0.2875 -0.1137  0.1264
 9052W        W52146  20.508  24.326  22.324 -0.2306  0.2439  0.2011
 9053W        W52147  24.808  21.664  19.565 -0.2002  0.3156  0.0616
 9054W        W52148  23.914  24.341  20.770  0.1674 -0.1286 -0.2761
 9055W        W52149  23.539  20.604  21.755  0.1273  0.1592  0.2868
 9056W        W52150  23.844  22.714  22.486  0.0826  0.0013  0.0668
 9057W        W52151  23.168  24.541  21.293  0.3509 -0.2488 -0.0809
 9058W        W52152  24.878  22.398  23.579  0.4071  0.2617  0.0408
 9059W        W52153  23.023  19.892  20.842  0.3204  0.0264 -0.3023
 9060W        W52154  24.735  23.804  21.428  0.0411 -0.0856 -0.3373
 9061W        W52155  22.283  22.015  22.568  0.1147  0.0354 -0.2003
 9062W        W52156  24.675  25.761  23.347  0.0574 -0.1239  0.0364
 9063W        W52157  23.059  23.816  23.781 -0.1339 -0.0235  0.1040
 9064W        W52158  25.552  22.821  20.285 -0.0917 -0.0194 -0.1632
 9065W        W52159  23.630  21.570  20.898 -0.1008 -0.0823 -0.0231
 9066W        W52160  23.394  22.089  22.268 -0.0313 -0.0735  0.0282
 9067W        W52161  24.053  25.293  22.430 -0.3707  0.1425  0.0825
 9068W        W52162  22.760  25.266  21.577  0.1415  0.1684 -0.0564
 9069W        W52163  25.077  22.841  21.860  0.2093  0.2570  0.1516
 9070W        W52164  23.726  22.233  22.752  0.1360 -0.0585 -0.0455
 9071W        W52165  23.095  23.445  22.376  0.1311  0.2792  0.3021
 9072W        W52166  25.551  24.777  19.060 -0.3287 -0.0857 -0.1750
 9073W        W52167  22.611  23.470  20.019 -0.0755 -0.0240 -0.2488
 9074W        W52168  22.653  22.838  22.310 -0.0091 -0.0551 -0.2274
 9075W        W52169  23.587  23.477  22.737  0.0786 -0.1480 -0.0870
 9076W        W52170  23.829  21.103  20.990  0.0890  0.0721 -0.0537
 9077W        W52171  24.917  21.898  24.112 -0.0520 -0.2156  0.1450
 9078W        W52172  22.909  23.040  22.734 -0.2443  0.0694 -0.0953
 9079W        W52173  22.721  23.270  23.366  0.2120 -0.0405  0.4036
 9080W        W52174  23.398  22.048  23.308  0.1263 -0.3044  0.2010
 9081W        W52175  23.989  25.979  21.840 -0.1338  0.0408 -0.1432
 9082W        W52176  25.015  24.150  19.573 -0.2342 -0.0486 -0.0037
 9083W        W52177  26.813  22.188  23.371 -0.0289  0.3691  0.0582
 9084W        W52178  25.243  23.330  20.720  0.1490 -0.2685  0.1171
 9085W        W52179  23.911  22.762  20.478  0.1274 -0.4922 -0.0990
 9086W        W52180  22.666  23.301  22.178 -0.0099  0.0647  0.2164
 9087W        W52181  25.614  23.754  23.596 -0.0173 -0.4175  0.2157
 9088W        W52182  24.419  23.175  20.221  0.0157 -0.3069  0.0376
 9089W        W52183  23.887  22.270  22.221  0.0117  0.1647  0.0066
 9090W        W52184  22.316  26.249  19.267 -0.1421  0.3583 -0.1127
 9091W        W52185  24.979  24.466  23.103  0.1851  0.0298  0.1438
 9092W        W52186  24.536  23.380  21.111 -0.1622 -0.1069  0.3813
 9093W        W52187  21.999  21.609  21.620 -0.2103  0.2270 -0.1572
 9094W        W52188  22.482  23.994  23.553 -0.0536  0.0263 -0.2587
 9095W        W52189  21.603  23.455  19.362 -0.2615 -0.2270  0.1951
 9096W        W52190  22.278  24.461  21.146 -0.1052 -0.1237  0.0538
 9097W        W52191  24.436  24.245  23.139 -0.0325  0.0697  0.0530
 9098W        W52192  25.651  23.594  23.086 -0.3961  0.1427  0.0724
 9099W        W52193  24.433  22.061  19.564  0.1474  0.1308  0.3080
 9100W        W52194  24.390  23.003  22.979  0.2144 -0.0665 -0.1794
 9101W        W52195  23.204  25.466  21.527 -0.1795  0.0597  0.1707
 9102W        W52196  22.426  20.992  21.594 -0.1402  0.1295 -0.0849
 9103W        W52197  22.763  24.084  21.852  0.1480  0.0662  0.3512
 9104W        W52198  21.652  23.012  23.929  0.1163  0.0496 -0.1179
 9105W        W52199  22.906  23.664  21.394 -0.1164 -0.1056  0.0709
 9106W        W52200  24.844  20.720  22.267 -0.0828  0.0035 -0.0517
 9107W        W52201  24.879  22.899  21.076 -0.0510 -0.1204 -0.3709
 9108W        W52202  23.709  21.283  21.784 -0.0781 -0.2861 -0.0028
 9109W        W52203  25.843  23.792  24.087  0.0171 -0.1271 -0.1973
 9110W        W52204  24.288  25.287  23.799  0.2659  0.1264 -0.3036
 9111W        W52205  22.298  24.143  20.375  0.3036 -0.1405  0.1962
 9112W        W52206  25.123  25.348  22.399 -0.2615 -0.0198 -0.1505
 9113W        W52207  23.742  23.868  20.777 -0.0369 -0.0241  0.0541
 9114W        W52208  23.805  23.837  21.357  0.2693 -0.2269  0.0250
 9115W        W52209  21.491  21.647  23.669  0.1742  0.1876  0.0666
 9116W        W52210  24.897  23.967  24.608  0.0666 -0.0931  0.0565
 9117W        W52211  23.962  23.199  22.523  0.1182 -0.0415 -0.0818
 9118W        W52212  23.248  22.132  21.695 -0.0817 -0.4285 -0.2337
 9119W        W52213  23.811  24.908  20.421  0.3082  0.1465  0.1032
 9120W        W52214  21.971  24.505  23.063 -0.1355  0.1714 -0.3045
 9121W        W52215  21.597  24.374  23.985  0.0852  0.0835  0.3060
 9122W        W52216  21.899  24.981  20.316 -0.1552  0.0294  0.0205
 9123W        W52217  24.239  23.906  21.109  0.0109  0.3627  0.4491
 9124W        W52218  23.656  24.795  21.378  0.0274  0.2352 -0.1913
 9125W        W52219  24.838  24.371  22.575 -0.0960 -0.5329  0.3512
 9126W        W52220  23.987  21.791  20.429 -0.1437 -0.0246 -0.1948
 9127W        W52221  22.844  24.897  21.078 -0.0843  0.1778  0.4289
 9128W        W52222  20.571  24.293  20.790  0.2019 -0.0092 -0.3122
 9129W        W52223  24.066  24.887  21.628  0.2528  0.1016 -0.0184
 9130W        W52224  23.083  25.966  22.947  0.2830  0.1610 -0.1697
 9131W        W52225  26.250  23.988  23.342 -0.0138  0.4540  0.2379
 9132W        W52226  25.454  21.433  18.707 -0.1562 -0.1562  0.2595
 9133W        W52227  25.946  23.355  22.566  0.0185 -0.3798  0.2397
 9134W        W52228  24.573  21.624  21.281  0.3257  0.0575  0.1088
 9135W        W52229  25.305  24.764  23.661  0.3018  0.1795 -0.1849
 9136W        W52230  24.283  22.825  22.140  0.0167  0.2176 -0.1034
 9137W        W52231  22.943  22.989  19.599  0.0140 -0.0169  0.0652
 9138W        W52232  22.006  23.769  23.489  0.0961 -0.2495 -0.1707
 9139W        W52233  25.144  21.645  22.461  0.1738 -0.2677  0.1238
 9140W        W52234  21.458  24.877  23.791 -0.2017  0.0691 -0.0084
 9141W        W52235  26.104  26.032  20.707  0.0070  0.3448 -0.0865
 9142W        W52236  23.260  23.223  19.307  0.0649  0.1414  0.0314
 9143W        W52237  22.270  23.666  20.536 -0.0676  0.1079 -0.1096
 9144W        W52238  25.229  22.174  22.877 -0.1052 -0.0967 -0.0510
 9145W        W52239  23.881  24.990  19.363 -0.1053 -0.1068  0.0744
 9146W        W52240  24.039  22.430  21.188  0.0120  0.2348  0.3177
 9147W        W52241  23.957  26.110  20.108 -0.2249  0.1080  0.1678
 9148W        W52242  23.118  23.480  22.903  0.0433 -0.1400 -0.0833
 9149W        W52243  23.289  23.934  22.350  0.0893 -0.2422 -0.3401
 9150W        W52244  23.516  22.022  20.459 -0.0028  0.1234 -0.2446
 9151W        W52245  25.167  22.786  23.739 -0.0686  0.0252  0.1119
 9152W        W52246  22.072  23.574  22.641 -0.1921  0.0866 -0.0769
 9153W        W52247  24.861  22.955  22.756  0.1139 -0.0410 -0.1481
 9154W        W52248  21.350  22.344  21.436 -0.0258  0.0459 -0.0145
 9155W        W52249  24.668  22.685  20.578 -0.0699 -0.0934 -0.0256
 9156W        W52250  23.394  23.061  22.556 -0.2044  0.0083  0.1145
 9157W        W52251  22.890  21.917  22.028  0.1581 -0.1515 -0.0427
 9158W        W52252  23.815  25.333  20.712  0.1000 -0.1866  0.0399
 9159W        W52253  25.902  23.128  23.079 -0.0944  0.0933 -0.1292
 9160W        W52254  24.353  25.535  21.193  0.1771  0.1145 -0.4132
 9161W        W52255  25.274  25.456  22.852 -0.1678  0.1965  0.0629
 9162W        W52256  22.944  21.181  22.302  0.0434  0.1216 -0.1549
 9163W        W52257  25.091  22.670  20.322 -0.0879 -0.0873 -0.0000
 9164W        W52258  21.785  23.859  21.138  0.0397  0.3694  0.3416
 9165W        W52259  23.329  24.049  23.459 -0.5014  0.1418  0.0025
 9166W        W52260  25.306  24.539  22.469  0.2833  0.3149  0.1538
 9167W        W52261  23.204  21.614  21.163  0.0282 -0.0350 -0.0737
 9168W        W52262  24.266  24.525  22.016  0.3184  0.1248 -0.0710
 9169W        W52263  24.866  21.407  23.199  0.0105  0.0394 -0.0818
 9170W        W52264  24.744  25.858  20.369  0.1118 -0.1889 -0.2837
 9171W        W52265  23.614  23.325  20.832 -0.1072 -0.1410 -0.3851
 9172W        W52266  24.758  25.714  22.318 -0.2753 -0.2348 -0.1954
 9173W        W52267  22.835  23.276  21.680  0.0452  0.0789  0.1719
 9174W        W52268  24.153  26.045  23.379 -0.1119  0.0327  0.0022
 9175W        W52269  25.069  23.536  23.591  0.1763 -0.2287  0.0733
 9176W        W52270  25.266  21.399  20.074  0.1678 -0.1823 -0.0397
 9177W        W52271  23.050  22.457  22.058 -0.3371 -0.1765  0.0046
 9178W        W52272  23.219  25.336  18.623  0.0215 -0.3140 -0.3074
 9179W        W52273  25.698  22.162  21.304 -0.3060 -0.0204 -0.1148
 9180W        W52274  24.380  22.099  21.693  0.0178 -0.1265 -0.1056
 9181W        W52275  22.665  23.275  20.513 -0.1201  0.0700 -0.2164
 9182W        W52276  23.768  21.368  23.929 -0.1254 -0.0527 -0.0871
 9183W        W52277  24.327  24.774  24.423  0.1275  0.0169  0.0024
 9184W        W52278  23.235  23.671  24.570 -0.0278 -0.0305  0.2050
 9185W        W52279  22.993  23.876  19.992  0.3611 -0.0942  0.0770
 9186W        W52280  23.177  24.300  23.883  0.0988  0.2586 -0.0417
 9187W        W52281  23.307  23.719  21.109  0.4642  0.1118  0.2820
 9188W        W52282  23.657  24.941  19.927  0.1585 -0.1017 -0.2171
 9189W        W52283  24.081  23.899  21.868 -0.1229  0.1101  0.2394
 9190W        W52284  23.538  24.255  21.097 -0.1185 -0.0111  0.1412
 9191W        W52285  25.322  24.030  23.278  0.0742 -0.1938 -0.1435
 9192W        W52286  24.103  21.126  21.454  0.1975  0.2984 -0.1084
 9193W        W52287  26.396  21.358  20.865  0.1554 -0.2902  0.2462
 9194W        W52288  25.319  20.425  21.142 -0.1202 -0.1294  0.2312
 9195W        W52289  23.889  22.974  22.954 -0.1897  0.0162  0.1914
 9196W        W52290  22.188  23.110  20.033  0.0146 -0.0874 -0.1722
 9197W        W52291  22.328  24.436  18.740 -0.0081 -0.1315  0.3832
 9198W        W52292  21.026  24.605  22.889  0.0020  0.3296 -0.2470
 9199W        W52293  23.915  22.734  23.814  0.1205 -0.0092 -0.1034
 9200W        W52294  21.594  23.518  23.339 -0.4293 -0.2019 -0.0573
 9201W        W52295  22.195  22.830  21.980  0.1457 -0.0905 -0.1318
 9202W        W52296  22.216  22.211  20.456  0.0999 -0.0040 -0.0770
 9203W        W52297  25.483  24.808  21.833  0.0270 -0.0238 -0.0517
 9204W        W52298  22.459  22.645  22.829 -0.1425  0.0536 -0.0131
 9205W        W52299  22.676  21.594  22.318 -0.0525 -0.1875 -0.0250
 9206W        W52300  24.681  25.920  20.843  0.0913 -0.0959 -0.0777
 9207W        W52301  24.915  25.090  20.494 -0.1165 -0.1454  0.0850
 9208W        W52302  23.111  23.015  22.122  0.3685  0.0514  0.1610
 9209W        W52303  24.531  23.778  24.293  0.3924 -0.0671  0.0186
 9210W        W52304  22.281  25.146  20.065  0.2510  0.0141  0.2125
 9211W        W52305  22.650  22.011  24.471 -0.0923  0.4340  0.1158
 9212W        W52306  23.962  22.225  23.574  0.1527  0.0952  0.0461
 9213W        W52307  22.817  21.819  20.998  0.2544  0.2665  0.1567
 9214W        W52308  25.152  23.010  21.432  0.0000  0.0642  0.3436
 9215W        W52309  25.171  24.087  22.330  0.0405 -0.0747  0.3678
 9216W        W52310  23.913  25.212  21.249  0.3151  0.0648 -0.0676
 9217W        W52311  24.746  23.424  22.820  0.1016 -0.1587 -0.1675
 9218W        W52312  23.845  24.264  23.203  0.1066 -0.1267 -0.0967
 9219W        W52313  23.251  20.783  22.442  0.3217  0.0892  0.2891
 9220W        W52314  24.582  25.207  21.460  0.0842  0.1106  0.0701
 9221W        W52315  23.654  24.998  22.454 -0.1063  0.2495 -0.1567
 9222W        W52316  24.768  25.319  22.014 -0.2353 -0.2123 -0.2204
 9223W        W52317  25.055  22.366  21.976  0.2819 -0.1539  0.3337
 9224W        W52318  22.295  22.734  21.453 -0.0632 -0.1587 -0.1444
 9225W        W52319  22.546  22.171  23.030 -0.3402  0.0286 -0.1044
 9226W        W52320  21.928  22.797  22.656 -0.5189  0.1921 -0.1714
 9227W        W52321  24.697  25.212  23.172 -0.1014  0.1395  0.3575
 9228W        W52322  23.561  21.549  20.330 -0.1432 -0.0948  0.0948
 9229W        W52323  24.791  20.315  21.039 -0.0456 -0.1456 -0.0745
 9230W        W52324  24.406  25.079  20.390  0.2500 -0.1540 -0.1861
 9231W        W52325  22.378  21.828  21.943  0.1182 -0.0461  0.1429
 9232W        W52326  24.914  23.904  20.744 -0.0733 -0.3383 -0.0608
 9233W        W52327  24.938  23.115  23.210  0.0471  0.1586  0.1471
 9234W        W52328  23.139  23.948  22.867 -0.2220 -0.1987 -0.0943
 9235W        W52329  23.773  23.400  23.227 -0.3541  0.0326  0.1009
 9236W        W52330  22.191  23.128  20.553 -0.1422 -0.0145  0.1774
 9237W        W52331  24.975  23.572  20.352 -0.1496 -0.3290  0.4647
 9238W        W52332  25.241  26.285  22.197  0.0877  0.2066 -0.2442
 9239W        W52333  25.040  25.999  23.066 -0.1284 -0.0630 -0.0653
 9240W        W52334  23.956  25.357  23.325  0.0568  0.0715 -0.1462
 9241W        W52335  24.615  22.627  21.769 -0.1505 -0.1242 -0.2692
 9242W        W52336  22.817  21.724  21.480  0.0229 -0.3340 -0.3283
 9243W        W52337  24.515  24.191  20.639 -0.1030  0.1110  0.1557
 9244W        W52338  23.218  23.048  23.215 -0.0902  0.0363 -0.1172
 9245W        W52339  24.766  21.302  22.196 -0.0150  0.1397  0.1615
 9246W        W52340  23.771  22.113  21.773 -0.2337  0.0609 -0.1331
 9247W        W52341  24.784  20.183  22.088 -0.2674 -0.0439 -0.1377
 9248W        W52342  24.927  23.922  22.764 -0.0122  0.1693 -0.2135
 9249W        W52343  24.243  23.349  22.020  0.0146 -0.1746 -0.0209
 9250W        W52344  24.055  24.244  25.566  0.2213  0.2493  0.1318
 9251W        W52345  21.669  21.732  25.838 -0.3247 -0.1244  0.0475
 9252W        W52346  23.195  22.204  25.595  0.1465 -0.3549  0.0217
 9253W        W52347  26.032  24.602  23.789 -0.0254 -0.0864  0.2133
 9254W        W52348  22.146  21.550  25.050 -0.0495  0.0231  0.2330
 9255W        W52349  23.082  25.800  25.007 -0.3580 -0.1050 -0.0631
 9256W        W52350  22.131  22.567  26.269 -0.0178  0.0872 -0.2852
 9257W        W52351  25.669  27.059  27.030 -0.1864 -0.0989  0.0092
 9258W        W52352  25.424  25.261  27.189  0.0536  0.0053 -0.0757
 9259W        W52353  24.402  23.410  23.255 -0.1616 -0.0936  0.5332
 9260W        W52354  23.533  23.639  26.854  0.4949  0.3722  0.0916
 9261W        W52355  23.556  24.611  26.700  0.4453 -0.3525  0.0497
 9262W        W52356  23.004  22.262  24.172  0.0364 -0.0894 -0.2234
 9263W        W52357  21.725  21.808  26.847 -0.3658 -0.0869 -0.1890
 9264W        W52358  24.034  23.874  24.965  0.2541 -0.1629 -0.1715
 9265W        W52359  23.293  24.572  23.405  0.0087  0.1185  0.0015
 9266W        W52360  22.237  22.300  25.810  0.0757 -0.2571 -0.0706
 9267W        W52361  22.013  22.160  25.140 -0.2381  0.0267 -0.0153
 9268W        W52362  23.081  26.725  25.460 -0.0283 -0.1795 -0.0652
 9269W        W52363  22.971  23.159  26.286  0.4876 -0.0727 -0.1800
 9270W        W52364  23.692  21.682  26.869 -0.1514  0.1441  0.2438
 9271W        W52365  22.634  24.409  23.879 -0.0917 -0.0791 -0.1322
 9272W        W52366  21.894  22.554  24.221  0.0739 -0.1232 -0.1924
 9273W        W52367  23.357  23.330  25.059  0.2224  0.0746  0.0157
 9274W        W52368  22.365  24.610  26.253  0.0944  0.0654 -0.2277
 9275W        W52369  24.223  22.631  26.093 -0.1039  0.0160 -0.0146
 9276W        W52370  25.182  25.715  25.980  0.3222  0.2869  0.2597
 9277W        W52371  23.110  25.993  24.499  0.0313  0.1795  0.4523
 9278W        W52372  24.255  23.222  25.668  0.0856 -0.1113  0.2231
 9279W        W52373  24.578  24.074  27.697 -0.2484  0.3397 -0.0389
 9280W        W52374  21.117  23.386  25.438  0.4251 -0.1777  0.2290
 9281W        W52375  21.961  25.363  26.012  0.1338 -0.1523  0.3777
 9282W        W52376  23.301  24.990  24.739 -0.1377  0.1266 -0.3875
 9283W        W52377  25.005  25.756  24.972 -0.1410 -0.0791 -0.0694
 9284W        W52378  25.042  22.430  26.843  0.0654  0.1751  0.0527
 9285W        W52379  24.346  26.147  27.560 -0.2432  0.1303  0.1792
 9286W        W52380  22.336  25.670  22.417 -0.0434  0.0668  0.0699
 9287W        W52381  24.709  24.363  27.006  0.3207  0.1034  0.0043
 9288W        W52382  22.138  24.013  26.547  0.1580  0.2853 -0.0670
 9289W        W52383  24.091  24.699  25.321  0.0599 -0.1347  0.1127
 9290W        W52384  24.071  24.749  26.636 -0.0414 -0.0318 -0.3752
 9291W        W52385  22.466  24.597  22.985  0.0032 -0.5060  0.1061
 9292W        W52386  25.118  24.946  25.516  0.0457  0.2904 -0.2637
 9293W        W52387  23.383  25.379  26.884  0.0147 -0.1721  0.3478
 9294W        W52388  23.034  24.141  27.908 -0.1385 -0.0421 -0.0245
 9295W        W52389  25.666  23.021  27.225  0.1436 -0.4035  0.1064
 9296W        W52390  23.036  26.484  25.030  0.0190 -0.2423 -0.2853
 9297W        W52391  24.955  23.590  22.310 -0.1727  0.0757 -0.0848
 9298W        W52392  22.811  22.058  22.501  0.1813  0.0927  0.1189
 9299W        W52393  24.025  22.567  24.837  0.0324 -0.4334  0.0865
 9300W        W52394  23.181  21.482  25.044  0.2309 -0.0459 -0.1851
 9301W        W52395  23.772  25.685  25.517 -0.2760 -0.0795  0.1529
 9302W        W52396  23.507  23.245  24.367  0.0079 -0.0647  0.3157
 9303W        W52397  26.049  24.171  28.653 -0.0443  0.0155  0.0393
 9304W        W52398  25.561  24.356  23.571  0.0737 -0.1452  0.1597
 9305W        W52399  24.688  22.733  26.174 -0.0165  0.1047 -0.1248
 9306W        W52400  24.119  24.839  25.862  0.0781 -0.0081 -0.1962
 9307W        W52401  22.547  22.773  24.874  0.2647 -0.0727 -0.0483
 9308W        W52402  24.658  25.121  24.250  0.1892 -0.0080 -0.1062
 9309W        W52403  24.748  25.409  25.317  0.2791 -0.0536  0.2904
 9310W        W52404  23.510  26.233  24.357 -0.1102 -0.3583  0.0613
 9311W        W52405  22.247  23.973  24.957  0.2269  0.2716 -0.2212
 9312W        W52406  21.751  24.558  28.493  0.1386  0.0187 -0.2108
 9313W        W52407  21.859  23.588  27.983 -0.2356 -0.0473 -0.3848
 9314W        W52408  22.403  22.234  23.496 -0.3884  0.0207 -0.0961
 9315W        W52409  27.062  25.071  27.953 -0.0013  0.1459  0.2753
 9316W        W52410  22.678  23.601  26.540 -0.0734  0.1764 -0.0223
 9317W        W52411  25.201  21.753  25.163 -0.0912 -0.2829 -0.0494
 9318W        W52412  23.747  23.877  25.591  0.3299 -0.1534 -0.0017
 9319W        W52413  25.355  25.893  27.583  0.2034 -0.0046 -0.1285
 9320W        W52414  24.851  23.460  24.500  0.2504 -0.0126 -0.0065
 9321W        W52415  24.783  22.219  26.304 -0.1656 -0.1768  0.0563
 9322W        W52416  24.525  22.757  27.539 -0.2085 -0.0693 -0.0242
 9323W        W52417  23.749  23.766  23.514  0.1133 -0.2351 -0.2299
 9324W        W52418  23.759  24.275  23.681 -0.0513  0.0507 -0.2494
 9325W        W52419  25.125  24.270  26.677  0.6059 -0.0598 -0.1281
 9326W        W52420  26.776  22.554  23.669  0.0967 -0.3572  0.0555
 9327W        W52421  21.549  24.341  27.190  0.2335  0.1119 -0.0505
 9328W        W52422  22.284  23.553  26.912  0.0034 -0.0687  0.1577
 9329W        W52423  24.226  26.232  26.250 -0.5227  0.1644 -0.2718
 9330W        W52424  23.412  25.682  24.113 -0.2645  0.2658  0.0182
 9331W        W52425  22.470  25.301  25.988  0.0625 -0.2313  0.0953
 9332W        W52426  20.869  23.783  25.325 -0.0749 -0.0226 -0.0182
 9333W        W52427  23.442  24.338  25.774 -0.1893  0.1215 -0.1829
 9334W        W52428  22.877  24.647  24.794  0.0413  0.1447 -0.2798
 9335W        W52429  24.288  22.643  24.330  0.2305  0.3875 -0.2819
 9336W        W52430  22.029  22.091  26.504 -0.1918  0.0331 -0.4358
 9337W        W52431  23.287  22.356  26.048  0.0316 -0.2457  0.0158
 9338W        W52432  21.894  24.397  24.738 -0.1693 -0.0259  0.1854
 9339W        W52433  23.840  25.939  25.155  0.0354  0.0651  0.0399
 9340W        W52434  26.436  25.554  24.272 -0.2544 -0.2047 -0.1064
 9341W        W52435  25.009  24.779  24.037  0.3065  0.1904 -0.5176
 9342W        W52436  22.388  24.015  27.438  0.3897 -0.0328  0.4963
 9343W        W52437  21.888  23.028  24.980 -0.0677  0.3763  0.3520
 9344W        W52438  22.800  24.350  26.023 -0.0340  0.1267 -0.0160
 9345W        W52439  21.384  20.878  25.864  0.1980 -0.0668  0.1456
 9346W        W52440  24.043  23.537  26.443  0.0451  0.0550  0.0489
 9347W        W52441  21.787  19.916  23.799  0.2165  0.2932  0.0962
 9348W        W52442  23.741  23.363  25.887  0.1450  0.1775  0.4066
 9349W        W52443  23.991  23.094  24.683 -0.3081 -0.2012 -0.0781
 9350W        W52444  22.397  23.102  26.293  0.2337 -0.2541 -0.2057
 9351W        W52445  24.930  23.643  27.745 -0.1157 -0.1798  0.2136
 9352W        W52446  22.500  26.667  25.694 -0.2715  0.0907 -0.1713
 9353W        W52447  25.466  26.758  28.189 -0.4428 -0.0767  0.1074
 9354W        W52448  23.656  26.156  25.990 -0.2041 -0.2590  0.3295
 9355W        W52449  21.549  22.250  26.990 -0.1397  0.1111  0.0142
 9356W        W52450  22.097  22.608  23.121  0.4027 -0.2946  0.0519
 9357W        W52451  21.139  25.799  26.883  0.0867  0.1428 -0.0775
 9358W        W52452  23.577  24.415  24.268 -0.1673 -0.0794 -0.1884
 9359W        W52453  22.422  22.481  24.486 -0.0889  0.0929  0.0609
 9360W        W52454  25.817  25.524  24.934 -0.0544 -0.4716 -0.2082
 9361W        W52455  23.979  23.713  22.345  0.0040  0.1145 -0.1418
 9362W        W52456  22.066  24.411  27.521  0.3050  0.3025 -0.1411
 9363W        W52457  25.577  21.336  26.894  0.0363 -0.0325  0.3108
 9364W        W52458  24.631  23.118  27.060 -0.0560  0.0169  0.0475
 9365W        W52459  23.945  24.126  26.012  0.0160  0.1537  0.0304
 9366W        W52460  22.680  22.034  23.889 -0.0602 -0.1410 -0.1084
 9367W        W52461  23.755  27.134  23.987 -0.0835 -0.0107 -0.1510
 9368W        W52462  22.542  24.965  24.971  0.2950  0.2147  0.0791
 9369W        W52463  21.843  24.101  25.362 -0.2305 -0.1982  0.5131
 9370W        W52464  24.572  24.943  25.117 -0.1395  0.1089 -0.3273
 9371W        W52465  24.278  21.880  26.809 -0.0656 -0.1504  0.0224
 9372W        W52466  21.420  23.773  28.696  0.0137 -0.1058  0.0966
 9373W        W52467  23.357  24.068  26.502  0.1682  0.1165  0.0591
 9374W        W52468  21.692  23.521  23.833 -0.2377  0.3178  0.2492
 9375W        W52469  22.363  25.387  26.978  0.0041  0.4702  0.2366
 9376W        W52470  23.455  22.874  23.968 -0.3892 -0.1191 -0.2405
 9377W        W52471  23.647  22.350  24.065  0.0666  0.1123 -0.0006
 9378W        W52472  22.624  23.988  26.886 -0.3276 -0.0584 -0.1363
 9379W        W52473  24.721  25.298  24.799  0.0054  0.0175  0.0473
 9380W        W52474  25.038  24.282  24.217  0.0698 -0.0502 -0.0350
 9381W        W52475  23.800  22.771  24.397 -0.0336  0.0519 -0.0855
 9382W        W52476  21.374  24.578  27.594  0.0575  0.0747 -0.2959
 9383W        W52477  23.802  25.234  24.798  0.2632  0.0512 -0.2836
 9384W        W52478  24.493  23.577  26.635  0.2958 -0.1906 -0.1635
 9385W        W52479  23.453  22.258  24.553  0.3077  0.1992 -0.0974
 9386W        W52480  24.869  24.578  25.236 -0.0318  0.1808  0.1602
 9387W        W52481  22.982  23.487  24.184 -0.2344 -0.2522  0.1239
 9388W        W52482  25.289  25.394  27.664  0.0391  0.2195 -0.0873
 9389W        W52483  23.535  26.331  24.904 -0.3065 -0.0205 -0.1521
 9390W        W52484  23.265  21.579  26.022 -0.2441  0.3522 -0.4228
 9391W        W52485  22.914  21.784  23.336  0.1584  0.1678  0.0246
 9392W        W52486  23.579  22.909  24.835 -0.0700 -0.1531  0.3058
 9393W        W52487  21.569  24.795  24.729  0.1038  0.1677 -0.1498
 9394W        W52488  23.817  22.115  26.724 -0.0119  0.0320  0.0177
 9395W        W52489  25.091  22.205  25.905  0.1084  0.1303  0.2269
 9396W        W52490  22.628  23.561  27.329 -0.2294 -0.1332 -0.1293
 9397W        W52491  24.334  23.905  26.308  0.2574 -0.1951 -0.2309
 9398W        W52492  24.693  22.477  25.726 -0.3016  0.1610 -0.0313
 9399W        W52493  24.923  25.308  25.793 -0.1626  0.4100 -0.1403
 9400W        W52494  22.887  23.323  24.760  0.2158  0.1102 -0.1599
 9401W        W52495  23.604  23.749  26.220 -0.3296  0.3572 -0.1070
 9402W        W52496  23.600  24.018  24.603  0.3882  0.1725 -0.0397
 9403W        W52497  22.456  24.999  27.496 -0.0898 -0.2881  0.0719
 9404W        W52498  25.046  24.416  27.709 -0.3949 -0.0639  0.4026
 9405W        W52499  23.172  24.746  25.197 -0.2948  0.0934 -0.2836
 9406W        W52500  25.213  23.797  28.513 -0.1091  0.0737 -0.3291
 9407W        W52501  23.984  22.132  24.504 -0.2116  0.1526 -0.1695
 9408W        W52502  22.816  26.850  24.795 -0.5518  0.1823  0.0335
 9409W        W52503  24.242  23.888  23.430 -0.0275 -0.1916  0.0949
 9410W        W52504  22.329  22.841  25.857 -0.3106 -0.0802  0.1567
 9411W        W52505  24.615  24.843  25.646 -0.0507  0.2183  0.2785
 9412W        W52506  22.901  24.211  22.409  0.0280  0.0260 -0.0196
 9413W        W52507  24.820  25.303  26.322 -0.0954  0.0228  0.1016
 9414W        W52508  20.793  25.308  26.346  0.3062  0.1263 -0.0435
 9415W        W52509  25.137  21.649  26.740  0.2946  0.0112 -0.1658
 9416W        W52510  21.945  26.875  25.326  0.2016  0.0663  0.2758
 9417W        W52511  22.595  22.998  25.396 -0.1742 -0.1216 -0.1632
 9418W        W52512  22.034  23.429  24.670 -0.0790 -0.0346  0.1423
 9419W        W52513  23.946  24.375  24.803  0.1127 -0.0594 -0.0104
 9420W        W52514  25.959  24.113  23.751  0.1886  0.1214 -0.4118
 9421W        W52515  21.226  21.900  26.740 -0.0602  0.2473 -0.3285
 9422W        W52516  22.982  22.432  24.670 -0.0048  0.0233  0.0694
 9423W        W52517  20.903  23.867  26.285  0.2051 -0.3590  0.0095
 9424W        W52518  24.112  24.915  27.192 -0.1233  0.2584  0.0112
 9425W        W52519  24.742  22.426  23.101  0.1687 -0.5771 -0.1161
 9426W        W52520  24.459  25.064  26.798 -0.2817 -0.2311  0.1730
 9427W        W52521  22.860  25.124  27.737 -0.0952 -0.1085 -0.1030
 9428W        W52522  22.429  22.828  23.490 -0.1886  0.0080 -0.0540
 9429W        W52523  24.129  23.186  26.137 -0.1536  0.0449 -0.0443
 9430W        W52524  23.393  23.151  25.555  0.3381 -0.1743  0.1726
 9431W        W52525  21.863  24.346  26.314 -0.1301  0.1431  0.1359
 9432W        W52526  24.966  25.838  26.522 -0.1985  0.3421 -0.2092
 9433W        W52527  24.092  23.888  24.455 -0.2369  0.0128  0.1573
 9434W        W52528  23.510  25.479  25.143 -0.2738  0.1764  0.1887
 9435W        W52529  23.108  23.977  25.991  0.0861  0.1545  0.1656
 9436W        W52530  25.022  25.577  27.304  0.1686  0.2077  0.1044
 9437W        W52531  23.243  22.970  26.661 -0.0317  0.1085  0.0321
 9438W        W52532  23.128  24.176  24.471 -0.2518  0.2207  0.0566
 9439W        W52533  22.772  23.144  25.821 -0.0167  0.1386  0.0398
 9440W        W52534  24.477  24.192  25.875 -0.2830  0.0146  0.0819
 9441W        W52535  22.996  24.278  25.546  0.0111  0.3459 -0.0069
 9442W        W52536  21.730  25.975  25.735  0.0320 -0.1282 -0.2095
 9443W        W52537  24.181  23.170  27.293  0.2198 -0.2157  0.0168
 9444W        W52538  24.739  25.057  23.620 -0.0516 -0.1175  0.1066
 9445W        W52539  24.219  25.373  26.403 -0.3789 -0.2284 -0.1157
 9446W        W52540  22.859  23.784  23.293 -0.2424 -0.0055 -0.1109
 9447W        W52541  20.959  22.900  25.513 -0.0069  0.1806  0.2729
 9448W        W52542  22.184  26.667  24.959 -0.0710  0.0224 -0.2405
 9449W        W52543  23.397  22.554  26.520 -0.0616 -0.2046  0.1568
 9450W        W52544  23.275  22.881  25.996  0.0725  0.1713  0.1023
 9451W        W52545  24.427  23.409  24.846  0.2210 -0.1509  0.0746
 9452W        W52546  21.867  23.497  27.229 -0.1109  0.3420 -0.2146
 9453W        W52547  25.388  22.343  23.604  0.0632  0.1456  0.0506
 9454W        W52548  24.279  25.660  22.187 -0.1607  0.1486 -0.1927
 9455W        W52549  24.952  23.257  24.932 -0.0698 -0.2080 -0.2754
 9456W        W52550  26.016  23.492  26.788 -0.0910 -0.1180  0.1847
 9457W        W52551  24.345  22.981  23.948  0.2296 -0.1729 -0.0403
 9458W        W52552  24.334  24.065  27.176  0.1326  0.1768 -0.0981
 9459W        W52553  22.832  22.609  26.547 -0.0429 -0.1653  0.1828
 9460W        W52554  24.258  25.287  24.558  0.2457 -0.2788  0.2584
 9461W        W52555  21.987  23.557  25.177 -0.0253 -0.1440 -0.0191
 9462W        W52556  23.596  25.873  28.134  0.0710  0.0479 -0.1903
 9463W        W52557  21.709  23.886  29.132  0.1232  0.0161  0.3292
 9464W        W52558  24.817  23.922  25.608  0.0337 -0.0017 -0.3144
 9465W        W52559  22.271  21.664  24.149  0.1546  0.0699 -0.0083
 9466W        W52560  22.393  24.052  26.106  0.1615  0.1631 -0.5844
 9467W        W52561  25.653  24.624  25.295 -0.2155 -0.1176 -0.0129
 9468W        W52562  24.380  23.217  24.394 -0.1932 -0.1756  0.0666
 9469W        W52563  24.443  22.886  24.769 -0.0389 -0.1132 -0.0758
 9470W        W52564  22.218  25.796  25.885  0.1283 -0.2063  0.1561
 9471W        W52565  24.560  23.923  25.009  0.2587 -0.1718  0.3679
 9472W        W52566  23.742  23.543  24.695 -0.0887  0.0098  0.0939
 9473W        W52567  22.743  23.912  24.197 -0.1246  0.1256 -0.0677
 9474W        W52568  21.815  22.707  25.715  0.3628 -0.0749  0.1688
 9475W        W52569  25.302  23.414  24.228 -0.2776  0.0355  0.1543
 9476W        W52570  23.678  22.393  25.492 -0.0515 -0.0887 -0.4059
 9477W        W52571  24.426  22.625  26.550 -0.2710 -0.1556  0.4085
 9478W        W52572  25.711  23.061  26.693 -0.1833  0.1647 -0.0946
 9479W        W52573  24.442  23.608  27.151 -0.1749  0.2143  0.1010
 9480W        W52574  21.305  21.403  27.503  0.1686 -0.1193 -0.0499
 9481W        W52575  24.623  26.315  25.716  0.1178  0.1148  0.0903
 9482W        W52576  25.244  23.910  23.916 -0.1535  0.0316  0.1880
 9483W        W52577  25.876  22.207  26.724  0.0970 -0.1746  0.2888
 9484W        W52578  25.310  23.613  24.715  0.1654  0.2917  0.0685
 9485W        W52579  24.540  23.603  23.828 -0.1808  0.1104 -0.2875
 9486W        W52580  21.844  23.936  27.474  0.0320  0.0349 -0.1205
 9487W        W52581  25.515  24.877  26.730 -0.1034  0.1933 -0.1490
 9488W        W52582  23.632  23.020  23.479  0.1214 -0.2265 -0.1687
 9489W        W52583  22.909  23.967  27.464 -0.0362  0.3971  0.0296
 9490W        W52584  23.051  25.309  25.005 -0.1442 -0.0402 -0.2344
 9491W        W52585  23.391  24.496  24.703  0.1624 -0.1122 -0.1194
 9492W        W52586  24.610  23.611  25.935  0.1217  0.5127 -0.0673
 9493W        W52587  22.603  21.810  25.857 -0.0794  0.2149  0.0570
 9494W        W52588  22.617  25.657  27.330  0.0805 -0.0584  0.0292
 9495W        W52589  22.393  23.076  23.023  0.0270  0.1863 -0.0622
 9496W        W52590  23.055  22.935  25.147  0.1987  0.1189  0.0472
 9497W        W52591  24.293  25.440  25.572 -0.0495  0.1231  0.0949
 9498W        W52592  24.321  26.092  28.646 -0.3252  0.2505  0.0266
 9499W        W52593  24.121  21.746  23.509  0.1722 -0.0397 -0.3036
 9500W        W52594  24.224  23.088  26.682 -0.1940 -0.1364  0.0622
 9501W        W52595  22.334  25.294  24.658 -0.2112  0.0061  0.0138
 9502W        W52596  24.608  22.223  26.775 -0.0206  0.0421 -0.1480
 9503W        W52597  23.223  25.601  26.437  0.1893 -0.2201  0.2580
 9504W        W52598  21.883  24.860  26.005  0.2079 -0.1637 -0.0141
 9505W        W52599  22.641  25.622  25.535 -0.0650  0.1448 -0.1296
 9506W        W52600  22.781  22.719  26.061  0.3770  0.1124 -0.3819
 9507W        W52601  24.826  22.927  26.668  0.0971  0.0045 -0.2653
 9508W        W52602  24.114  23.654  25.900 -0.1961  0.1606 -0.1903
 9509W        W52603  24.668  23.207  26.279 -0.5498 -0.2851 -0.0599
 9510W        W52604  22.993  25.289  28.318  0.0888 -0.0703  0.2208
 9511W        W52605  24.228  24.344  23.609  0.1503  0.1790  0.1350
 9512W        W52606  24.562  25.678  26.173 -0.0156 -0.0803 -0.3939
 9513W        W52607  24.499  24.418  24.925 -0.0659 -0.0481 -0.0457
 9514W        W52608  22.886  26.097  25.478  0.1368  0.0659  0.1087
 9515W        W52609  20.820  23.760  27.256  0.0458 -0.2560  0.0461
 9516W        W52610  24.738  24.791  27.344  0.3688  0.1427  0.0874
 9517W        W52611  24.525  24.307  25.421  0.1752  0.0240  0.0808
 9518W        W52612  23.363  22.465  23.609  0.0931  0.1918 -0.0071
 9519W        W52613  24.699  23.755  23.221 -0.1459 -0.0810 -0.0074
 9520W        W52614  22.068  25.451  27.409 -0.1305 -0.1379  0.0268
 9521W        W52615  23.116  24.184  26.978  0.0053  0.1245 -0.0677
 9522W        W52616  22.407  26.959  24.450 -0.1232 -0.1632  0.6825
 9523W        W52617  24.443  23.205  22.469  0.0334  0.1510  0.0300
 9524W        W52618  24.067  24.356  24.187  0.1767  0.1995  0.0588
 9525W        W52619  23.399  25.993  25.597  0.0448  0.2204  0.3803
 9526W        W52620  23.834  23.452  25.382  0.4073 -0.1228 -0.1762
 9527W        W52621  22.442  24.252  25.634  0.0171  0.1842 -0.3415
 9528W        W52622  21.983  24.841  23.491  0.3308 -0.2701 -0.2433
 9529W        W52623  24.933  24.663  24.540  0.1586 -0.0293 -0.2403
 9530W        W52624  22.785  24.867  26.184  0.0248  0.0635  0.0920
 9531W        W52625  24.431  25.643  27.656  0.3058 -0.5650 -0.0773
 9532W        W52626  24.422  21.949  23.098  0.0122  0.4128  0.2901
 9533W        W52627  25.859  23.690  25.083 -0.1278 -0.0947  0.1276
 9534W        W52628  25.515  23.956  24.965  0.2824 -0.2336  0.2922
 9535W        W52629  24.897  25.674  27.877 -0.2237  0.0243  0.0062
 9536W        W52630  23.323  22.508  25.119 -0.0263  0.0702  0.1026
 9537W        W52631  22.532  23.408  24.440 -0.1991  0.2282 -0.1409
 9538W        W52632  23.027  23.596  26.995 -0.2087 -0.1478  0.0600
 9539W        W52633  25.169  21.843  28.243  0.0490 -0.0681 -0.0242
 9540W        W52634  21.650  24.764  26.614  0.2715  0.3984  0.0900
 9541W        W52635  23.915  26.824  25.471 -0.2345  0.1232 -0.2692
 9542W        W52636  21.104  23.523  24.794  0.0273  0.0875 -0.0786
 9543W        W52637  23.220  23.839  25.537  0.0435 -0.3653 -0.0915
 9544W        W52638  25.787  23.539  25.527  0.1959 -0.3528 -0.2180
 9545W        W52639  23.565  23.826  23.068 -0.2430 -0.4129 -0.1663
 9546W        W52640  25.111  22.834  25.837 -0.1509  0.2131  0.0426
 9547W        W52641  21.504  26.631  25.183  0.0547  0.0647  0.0824
 9548W        W52642  23.535  23.812  25.105 -0.2650  0.0360 -0.0927
 9549W        W52643  23.821  25.941  26.457  0.2042 -0.0419  0.1578
 9550W        W52644  22.165  21.075  23.262  0.0134  0.2330  0.3096
 9551W        W52645  25.897  24.131  24.543  0.2434 -0.0867 -0.2710
 9552W        W52646  23.396  23.331  27.180 -0.1053 -0.0576 -0.0067
 9553W        W52647  25.536  22.609  26.748 -0.0841  0.2297  0.1029
 9554W        W52648  24.912  24.371  26.196 -0.0979  0.1735 -0.1438
 9555W        W52649  24.171  23.100  25.145  0.4694  0.0475 -0.0245
 9556W        W52650  24.507  24.873  26.325  0.0213  0.0057  0.1552
 9557W        W52651  21.808  22.578  26.651  0.0496 -0.1100 -0.0047
 9558W        W52652  24.701  22.919  23.582 -0.0143  0.1255 -0.1978
 9559W        W52653  25.454  24.502  25.758  0.2855 -0.0059 -0.0218
 9560W        W52654  24.162  22.523  23.048 -0.2055  0.1417  0.0197
 9561W        W52655  25.927  25.505  25.435  0.3331 -0.0999 -0.0835
 9562W        W52656  22.162  22.970  24.516 -0.2466 -0.2144 -0.0677
 9563W        W52657  24.197  22.209  26.435 -0.2282 -0.1358  0.4050
 9564W        W52658  22.665  24.581  25.330  0.1685 -0.2501  0.2984
 9565W        W52659  23.029  22.711  27.034 -0.0177  0.2123  0.1248
 9566W        W52660  25.289  25.190  26.325 -0.1455 -0.0754 -0.3330
 9567W        W52661  22.483  20.763  23.864 -0.1259 -0.0044  0.0362
 9568W        W52662  24.651  24.139  23.854  0.0410 -0.0410  0.0401
 9569W        W52663  23.801  22.737  25.895  0.2808  0.0543  0.1560
 9570W        W52664  23.246  25.465  24.552 -0.3071  0.0169 -0.2042
 9571W        W52665  24.274  23.798  25.449 -0.1417 -0.2521  0.1733
 9572W        W52666  25.103  26.100  25.442  0.0604  0.2008 -0.0639
 9573W        W52667  21.562  21.997  27.493  0.0522  0.1747 -0.1171
 9574W        W52668  24.714  26.195  26.242 -0.0159 -0.0469 -0.0944
 9575W        W52669  24.701  25.785  25.702 -0.1893  0.0484  0.1007
 9576W        W52670  23.005  22.137  25.115  0.0441  0.0330  0.2382
 9577W        W52671  23.161  24.223  25.043  0.1954 -0.0943  0.2611
 9578W        W52672  23.134  25.572  25.502  0.0022  0.0524 -0.1110
 9579W        W52673  25.706  23.463  26.426 -0.0670  0.1859 -0.3481
 9580W        W52674  25.217  21.981  27.698  0.0135  0.1268  0.1473
 9581W        W52675  23.450  25.080  24.259  0.1455 -0.0194  0.3294
 9582W        W52676  25.212  22.955  27.015  0.0276  0.2999  0.3554
 9583W        W52677  24.697  26.127  25.158 -0.1295 -0.2216  0.1162
 9584W        W52678  22.632  25.182  29.056 -0.3038  0.0032  0.2267
 9585W        W52679  23.662  23.859  24.159 -0.0419 -0.0439 -0.1223
 9586W        W52680  22.486  24.441  27.176  0.0751 -0.0517  0.0666
 9587W        W52681  22.995  24.812  23.691  0.0745 -0.1053 -0.0055
 9588W        W52682  23.732  24.735  23.370 -0.0625  0.0793  0.0983
 9589W        W52683  23.891  25.330  25.880 -0.0949 -0.0834 -0.0913
 9590W        W52684  23.710  22.847  25.368 -0.1703  0.1782 -0.1708
 9591W        W52685  24.475  24.308  24.477 -0.0501  0.1702 -0.1903
 9592W        W52686  23.003  21.719  25.445 -0.1933  0.0706 -0.1643
 9593W        W52687  25.513  22.188  25.138 -0.0249  0.2250 -0.0464
 9594W        W52688  23.630  23.196  26.375 -0.1795 -0.2910  0.2081
 9595W        W52689  23.191  25.123  26.363 -0.2071 -0.0908 -0.1080
 9596W        W52690  22.157  21.887  25.620 -0.0582 -0.2551 -0.1529
 9597W        W52691  22.368  24.317  24.417  0.0354  0.0142  0.0831
 9598W        W52692  21.503  25.609  25.356 -0.3918  0.1492  0.0267
 9599W        W52693  23.670  22.276  27.544  0.0837 -0.0226 -0.0986
 9600W        W52694  22.094  23.565  26.388 -0.0533  0.1762 -0.0638
 9601W        W52695  23.007  25.306  25.880  0.0587 -0.0537  0.0718
 9602W        W52696  22.872  22.883  24.512  0.0136 -0.1154  0.2888
 9603W        W52697  24.022  24.849  23.886  0.0320 -0.0038  0.3191
 9604W        W52698  22.909  21.148  26.732  0.2669 -0.0411  0.0610
 9605W        W52699  22.144  21.799  26.116 -0.2964 -0.1449 -0.0596
 9606W        W52700  23.870  25.172  25.397  0.0010 -0.0124  0.2911
 9607W        W52701  23.688  24.850  25.054  0.2007 -0.0200 -0.0119
 9608W        W52702  23.004  23.753  25.049 -0.0450 -0.1061 -0.0917
 9609W        W52703  24.532  24.260  28.207  0.0132  0.2167  0.1043
 9610W        W52704  21.439  23.902  23.584  0.1526  0.3042  0.1004
 9611W        W52705  24.471  24.358  26.550 -0.3703 -0.2244  0.0015
 9612W        W52706  23.891  22.653  26.540  0.1410 -0.4634 -0.1000
 9613W        W52707  21.740  22.212  23.902  0.2206 -0.1610 -0.0276
 9614W        W52708  22.658  21.769  24.927 -0.1704 -0.1006  0.1831
 9615W        W52709  23.097  24.714  24.309 -0.0691 -0.0592  0.4108
 9616W        W52710  23.743  26.029  23.017 -0.2704  0.2254 -0.2003
 9617W        W52711  23.889  24.205  26.502 -0.2287 -0.4626  0.2618
 9618W        W52712  23.478  25.081  26.000 -0.1380  0.2675 -0.1576
 9619W        W52713  21.692  22.243  25.559 -0.2870 -0.2155 -0.3302
 9620W        W52714  25.323  24.097  25.459  0.1710 -0.1345 -0.1583
 9621W        W52715  23.326  24.597  27.675  0.1121 -0.2836 -0.1201
 9622W        W52716  25.691  25.375  24.395  0.0116 -0.1216  0.0267
 9623W        W52717  24.680  23.009  25.675 -0.0874  0.1725  0.0453
 9624W        W52718  25.251  23.649  25.640  0.3028 -0.0225 -0.4933
 9625W        W52719  23.154  23.576  26.436 -0.2980  0.5235 -0.0615
 9626W        W52720  24.010  26.054  27.176  0.0594  0.0722 -0.1322
 9627W        W52721  26.687  24.376  26.065  0.1189  0.2214 -0.3285
 9628W        W52722  22.540  22.052  25.377 -0.1859  0.4147 -0.3230
 9629W        W52723  24.359  22.538  23.574 -0.1143 -0.2010 -0.0562
 9630W        W52724  24.052  23.921  22.921 -0.0712 -0.0375  0.0875
 9631W        W52725  22.676  23.600  26.087  0.1497 -0.0363  0.4613
 9632W        W52726  24.103  23.384  23.693 -0.1419 -0.1588  0.0563
 9633W        W52727  22.704  22.789  28.622 -0.1750 -0.3873  0.2568
 9634W        W52728  23.452  25.628  25.945 -0.3293  0.0155  0.2059
 9635W        W52729  25.322  24.473  27.271 -0.1996  0.2268 -0.1028
 9636W        W52730  22.395  23.256  24.993 -0.1989  0.3931  0.3440
 9637W        W52731  26.867  24.148  24.975  0.2904  0.2718  0.1339
 9638W        W52732  23.056  26.462  27.380  0.5067 -0.1320 -0.0794
 9639W        W52733  25.306  26.632  28.685 -0.0633  0.1545  0.0371
 9640W        W52734  23.884  25.006  26.274 -0.2371 -0.1799 -0.0762
 9641W        W52735  25.204  22.568  26.302 -0.1512  0.1080 -0.1802
 9642W        W52736  22.861  20.262  25.307 -0.0979  0.2115  0.4188
 9643W        W52737  22.674  25.063  24.067  0.0268  0.1911  0.1292
 9644W        W52738  23.194  23.246  23.773 -0.2008 -0.2317 -0.2944
 9645W        W52739  24.936  22.379  27.906  0.3820  0.1956 -0.0666
 9646W        W52740  22.995  22.678  25.605 -0.1610 -0.0272 -0.0292
 9647W        W52741  23.602  21.803  24.683 -0.2478  0.0204 -0.3033
 9648W        W52742  24.209  24.512  26.181  0.0824  0.1311  0.3414
 9649W        W52743  25.220  23.998  26.007 -0.1099  0.0787  0.0191
 9650W        W52744  22.334  24.776  28.893 -0.0372  0.1302 -0.0465
 9651W        W52745  21.872  22.923  28.741 -0.2240  0.0308 -0.1425
 9652W        W52746  24.656  23.856  28.449 -0.0580 -0.2144  0.3976
 9653W        W52747  26.486  23.470  29.497 -0.2444 -0.1331  0.2623
 9654W        W52748  21.696  22.251  28.735  0.1047 -0.1287  0.0568
 9655W        W52749  25.042  25.174  28.121  0.1314  0.0893  0.2735
 9656W        W52750  23.540  22.607  31.239 -0.0474 -0.2243  0.0854
 9657W        W52751  24.538  24.201  30.265 -0.3551 -0.1206  0.3829
 9658W        W52752  25.079  26.792  30.263  0.0147  0.0914  0.1234
 9659W        W52753  23.674  24.562  26.210  0.0460  0.1772  0.1061
 9660W        W52754  23.516  22.671  29.704 -0.2155 -0.0164  0.0267
 9661W        W52755  25.386  25.655  30.179  0.2220  0.5831 -0.6623
 9662W        W52756  21.952  22.140  27.228  0.0299 -0.1018 -0.1835
 9663W        W52757  22.750  21.833  29.235  0.1224 -0.0798 -0.0680
 9664W        W52758  23.650  24.390  29.263  0.0390 -0.0194  0.0640
 9665W        W52759  21.800  23.381  29.509 -0.2024 -0.2249  0.2379
 9666W        W52760  23.554  23.466  30.328  0.0376  0.0314  0.0290
 9667W        W52761  22.876  23.088  27.380  0.1916 -0.1191 -0.0927
 9668W        W52762  23.796  24.462  30.366 -0.2062 -0.0387  0.0405
 9669W        W52763  22.937  22.690  30.262  0.0255  0.1129 -0.1489
 9670W        W52764  24.012  23.327  30.189 -0.1638  0.0673 -0.0020
 9671W        W52765  23.121  25.002  29.331  0.1433  0.0847 -0.0245
 9672W        W52766  20.508  22.664  26.493  0.0622  0.1978 -0.1638
 9673W        W52767  21.204  23.371  30.841 -0.1443  0.0812  0.1200
 9674W        W52768  23.360  24.690  29.020  0.2176  0.3232 -0.2308
 9675W        W52769  23.582  22.599  28.822  0.0174  0.0715 -0.0993
 9676W        W52770  23.736  24.816  28.657  0.1659  0.1983  0.4755
 9677W        W52771  23.848  25.886  31.267  0.1802 -0.3886  0.2268
 9678W        W52772  24.215  25.084  29.246 -0.2759 -0.1987  0.5642
 9679W        W52773  23.773  23.888  30.141  0.1366  0.4807 -0.0692
 9680W        W52774  21.443  23.594  28.220  0.1613  0.1778  0.0491
 9681W        W52775  22.366  26.050  29.614  0.1152 -0.5958 -0.2017
 9682W        W52776  22.976  25.999  27.260  0.0879  0.1976 -0.1841
 9683W        W52777  25.602  25.213  29.432  0.0697 -0.2963 -0.0812
 9684W        W52778  25.841  24.345  30.640  0.3571 -0.1395  0.2109
 9685W        W52779  21.856  25.056  31.586  0.2283 -0.0713 -0.1798
 9686W        W52780  23.085  23.746  28.853  0.1122  0.0147 -0.0771
 9687W        W52781  24.138  25.834  31.793 -0.0393 -0.1178  0.2785
 9688W        W52782  24.056  24.521  29.515 -0.0207 -0.3125  0.1416
 9689W        W52783  23.792  23.471  31.225  0.2050  0.2743 -0.0746
 9690W        W52784  23.130  23.473  27.569 -0.2485 -0.0426 -0.1099
 9691W        W52785  24.287  24.263  28.619  0.1837  0.2844 -0.3129
 9692W        W52786  24.121  25.169  28.762  0.0147  0.1697 -0.1913
 9693W        W52787  22.082  24.737  30.320  0.1400 -0.1879  0.2043
 9694W        W52788  23.581  24.657  28.188  0.2576  0.1482 -0.1182
 9695W        W52789  24.443  21.326  30.609 -0.0422  0.2424  0.0354
 9696W        W52790  22.625  24.423  28.683 -0.2539 -0.0528  0.0041
 9697W        W52791  24.069  24.396  26.982  0.0576  0.0103  0.3360
 9698W        W52792  22.298  22.306  26.883 -0.1110  0.1445  0.0162
 9699W        W52793  24.316  23.735  29.312 -0.1506 -0.1521 -0.1704
 9700W        W52794  23.685  21.218  28.699  0.4220 -0.0905  0.0780
 9701W        W52795  22.643  25.204  30.006 -0.1000 -0.2340  0.0782
 9702W        W52796  20.985  20.945  30.349 -0.0474 -0.3797 -0.3360
 9703W        W52797  25.250  24.653  30.555  0.0550 -0.0804  0.1364
 9704W        W52798  24.736  24.068  29.001  0.0918 -0.1207  0.2094
 9705W        W52799  23.623  24.321  28.609  0.0335 -0.1977 -0.1883
 9706W        W52800  21.922  25.725  29.274  0.0797 -0.2930 -0.0538
 9707W        W52801  19.200  23.237  29.082 -0.1270  0.1777 -0.0076
 9708W        W52802  24.840  25.594  28.431 -0.0449  0.1491 -0.0770
 9709W        W52803  26.098  25.034  27.918  0.0721  0.0867 -0.0260
 9710W        W52804  23.704  26.991  27.809 -0.1183  0.0647 -0.1086
 9711W        W52805  22.026  23.753  29.755 -0.0932 -0.1913  0.1381
 9712W        W52806  21.672  25.178  30.900  0.1149  0.3406 -0.0407
 9713W        W52807  22.522  22.828  29.964  0.1940 -0.1910 -0.3194
 9714W        W52808  22.884  21.612  26.331  0.0904 -0.0211  0.1043
 9715W        W52809  26.106  23.643  30.949 -0.3032 -0.2937  0.0339
 9716W        W52810  21.976  24.250  30.460 -0.1889  0.1487 -0.3145
 9717W        W52811  24.578  22.374  29.745  0.2029 -0.0419  0.2329
 9718W        W52812  23.056  24.563  29.969  0.2149  0.3187  0.2106
 9719W        W52813  23.449  25.164  30.439  0.3246 -0.3378  0.0362
 9720W        W52814  25.320  25.673  28.102 -0.2599  0.0016  0.1547
 9721W        W52815  23.369  22.791  28.328  0.1831  0.0972 -0.0395
 9722W        W52816  24.142  22.528  31.322  0.1098 -0.0504 -0.1573
 9723W        W52817  22.134  24.087  27.896  0.2770  0.0398  0.0357
 9724W        W52818  22.016  22.878  29.919  0.2318  0.0742 -0.0283
 9725W        W52819  26.379  25.191  30.795  0.0166  0.0865 -0.1759
 9726W        W52820  25.789  24.778  27.282  0.1663  0.2420 -0.2679
 9727W        W52821  21.224  26.078  29.429 -0.0466  0.0324  0.1640
 9728W        W52822  23.072  23.410  30.626 -0.2355  0.1216 -0.1433
 9729W        W52823  24.154  26.389  31.478  0.0543 -0.0010  0.0856
 9730W        W52824  23.178  26.833  27.862 -0.1052 -0.0618 -0.1022
 9731W        W52825  22.228  25.621  28.276  0.0774 -0.0257 -0.0932
 9732W        W52826  23.997  24.491  28.339 -0.1759 -0.1962  0.2193
 9733W        W52827  21.005  20.739  30.775  0.2317 -0.1114 -0.4538
 9734W        W52828  22.672  24.999  28.563  0.0621 -0.0876 -0.0469
 9735W        W52829  24.171  23.117  29.465 -0.1357 -0.2839  0.1738
 9736W        W52830  22.135  22.437  31.359  0.0124  0.0680 -0.1613
 9737W        W52831  23.974  21.496  29.761 -0.0696  0.1594  0.0148
 9738W        W52832  22.513  24.302  29.181 -0.0083  0.1255  0.0443
 9739W        W52833  25.608  26.302  28.029 -0.2660 -0.2137  0.1628
 9740W        W52834  24.135  24.187  27.885  0.2400  0.1853  0.1322
 9741W        W52835  24.833  23.879  26.369  0.0843 -0.1198 -0.2004
 9742W        W52836  22.068  22.390  30.157  0.1062  0.0562 -0.0906
 9743W        W52837  23.996  22.697  27.380  0.2691 -0.1207  0.0650
 9744W        W52838  22.028  21.184  30.087 -0.0125  0.2498 -0.4148
 9745W        W52839  22.081  21.639  29.040  0.1018  0.2233 -0.1241
 9746W        W52840  24.217  24.613  28.983 -0.1482  0.2844 -0.0062
 9747W        W52841  21.986  22.448  29.115  0.0809 -0.2726  0.1488
 9748W        W52842  23.909  23.117  28.793  0.0336  0.0678 -0.0612
 9749W        W52843  22.779  23.227  29.493 -0.0514 -0.2623  0.0682
 9750W        W52844  22.104  24.029  29.347  0.4504 -0.0738 -0.0840
 9751W        W52845  25.419  22.322  30.930  0.1785 -0.0636 -0.2004
 9752W        W52846  22.998  25.379  28.844  0.0912 -0.0335  0.0666
 9753W        W52847  25.179  26.748  31.741  0.0897  0.2579  0.0034
 9754W        W52848  26.129  25.612  28.675  0.1826 -0.1473  0.2440
 9755W        W52849  21.824  21.796  30.077  0.0011 -0.3117  0.3133
 9756W        W52850  22.272  24.358  28.284 -0.0948  0.1283  0.1450
 9757W        W52851  23.032  26.510  29.325  0.0683  0.0322 -0.0385
 9758W        W52852  22.210  25.800  27.766 -0.0307  0.0294  0.2190
 9759W        W52853  23.900  24.144  27.419 -0.0111 -0.2074 -0.1717
 9760W        W52854  24.653  25.258  29.065 -0.0545 -0.2083  0.1169
 9761W        W52855  22.760  23.557  28.460  0.0008  0.0611  0.4053
 9762W        W52856  21.968  23.989  31.352  0.1700 -0.0738 -0.0482
 9763W        W52857  24.565  22.922   0.206  0.2484 -0.3255  0.1421
 9764W        W52858  25.261  23.103  30.925  0.1554  0.2139 -0.0238
 9765W        W52859  24.600  25.252  27.250 -0.0375 -0.0304  0.1839
 9766W        W52860  21.518  23.067  25.441  0.2014 -0.0059 -0.0973
 9767W        W52861  23.954  25.834  29.928  0.1424  0.0400 -0.0355
 9768W        W52862  22.687  25.586  27.823  0.3509  0.2180  0.1238
 9769W        W52863  22.444  23.606  29.426  0.3894 -0.1827  0.0554
 9770W        W52864  22.898  24.638  27.364 -0.0337  0.2227  0.1061
 9771W        W52865  23.825  21.923  28.169 -0.4371  0.0224  0.0396
 9772W        W52866  23.407  23.389  31.911 -0.0342 -0.1067 -0.0658
 9773W        W52867  22.908  23.181  30.161  0.0898 -0.1309  0.2553
 9774W        W52868  22.323  22.656  28.205  0.1146 -0.0269  0.3934
 9775W        W52869  21.634  25.592  31.511 -0.1085 -0.3227 -0.2646
 9776W        W52870  24.759  21.445  28.955 -0.0436  0.1264  0.0514
 9777W        W52871  24.736  23.937  26.839  0.0557  0.0861 -0.3488
 9778W        W52872  23.331  24.348  30.278 -0.1690  0.0379  0.0520
 9779W        W52873  25.359  25.157  29.894  0.0330  0.3301 -0.1535
 9780W        W52874  24.343  23.737  28.073  0.3370 -0.0085  0.1586
 9781W        W52875  23.844  23.606  27.310  0.1823 -0.1075 -0.3711
 9782W        W52876  22.837  24.800   0.365  0.1422  0.0140 -0.1078
 9783W        W52877  23.160  23.672  28.085 -0.1174  0.0529  0.1109
 9784W        W52878  23.915  24.146  28.946 -0.0613  0.1691  0.1346
 9785W        W52879  23.747  23.050  26.901 -0.1567 -0.2200 -0.1351
 9786W        W52880  23.804  25.578  28.577  0.0016 -0.1585  0.0794
 9787W        W52881  22.104  23.567  31.129 -0.2187 -0.0967  0.0024
 9788W        W52882  23.533  23.714  29.708  0.1799 -0.1954 -0.0464
 9789W        W52883  25.146  25.469  28.931 -0.2932  0.1024  0.3896
 9790W        W52884  21.631  21.539  29.247  0.0524 -0.0162  0.0712
 9791W        W52885  22.597  23.857  28.002  0.2419 -0.1026 -0.2581
 9792W        W52886  21.973  21.755  29.556 -0.1478  0.2895 -0.1798
 9793W        W52887  21.057  24.147  27.036 -0.2914 -0.2900 -0.0420
 9794W        W52888  22.641  22.318  29.976 -0.1069  0.0615  0.0367
 9795W        W52889  23.394  21.888  30.001  0.2212  0.1837  0.0981
 9796W        W52890  23.398  22.900  30.142  0.2661  0.0159  0.4078
 9797W        W52891  25.402  21.793  30.735 -0.1149  0.3205  0.1023
 9798W        W52892  23.622  24.164  27.007  0.0018  0.1911 -0.0362
 9799W        W52893  24.362  24.737  28.503 -0.1973  0.1775 -0.0077
 9800W        W52894  21.922  22.939  27.064  0.1666  0.0885 -0.0087
 9801W        W52895  23.934  22.325  29.685  0.0005 -0.0518  0.1181
 9802W        W52896  21.162  24.451  29.260 -0.1428 -0.0476  0.1039
 9803W        W52897  23.126  25.217  31.228  0.0561  0.2009  0.1961
 9804W        W52898  25.000  25.298  29.437 -0.0061  0.0294 -0.1234
 9805W        W52899  25.121  24.379  29.251 -0.0104 -0.2809  0.3325
 9806W        W52900  23.912  22.852  30.243  0.0313 -0.0359  0.0548
 9807W        W52901  23.224  23.448  25.967  0.0429  0.0150 -0.4700
 9808W        W52902  21.799  26.613  27.849  0.0754  0.0910 -0.2521
 9809W        W52903  23.618  24.987  27.116  0.0208  0.3112 -0.0676
 9810W        W52904  22.530  21.588  29.653  0.0410 -0.2166 -0.1370
 9811W        W52905  22.683  24.944  29.509  0.1338 -0.0201  0.1451
 9812W        W52906  23.746  26.295  26.774  0.0149  0.3253  0.2744
 9813W        W52907  24.090  23.572  29.763 -0.0983  0.3360  0.0854
 9814W        W52908  21.793  24.976  28.716 -0.2229 -0.3384 -0.1846
 9815W        W52909  24.503  21.545  29.778  0.1541 -0.1344  0.3198
 9816W        W52910  21.357  24.204  28.332 -0.1983 -0.1999  0.0685
 9817W        W52911  22.142  22.677  27.474 -0.0683 -0.0685  0.0058
 9818W        W52912  21.020  22.949  27.233  0.1436  0.1207  0.1177
 9819W        W52913  23.786  22.779  29.252  0.3301 -0.1134 -0.1677
 9820W        W52914  25.850  24.632  27.797 -0.4447 -0.1373  0.2110
 9821W        W52915  20.542  20.665  30.516 -0.1232  0.0809 -0.1624
 9822W        W52916  22.258  22.954  29.077 -0.1808  0.0522  0.1954
 9823W        W52917  22.592  24.654  31.130 -0.1541  0.3948  0.1032
 9824W        W52918  24.277  22.289  30.098 -0.0565 -0.3633 -0.1323
 9825W        W52919  24.539  23.307  29.136 -0.0878  0.1704 -0.0779
 9826W        W52920  25.323  23.534  30.219  0.2489  0.0842 -0.0062
 9827W        W52921  23.851  23.992  31.001  0.2807 -0.1229 -0.0660
 9828W        W52922  21.544  23.538  27.602  0.1081 -0.0745  0.2249
 9829W        W52923  25.464  24.138  30.341  0.1332  0.1028 -0.2957
 9830W        W52924  21.792  22.576  28.304 -0.2505 -0.0267  0.0693
 9831W        W52925  23.502  23.943  29.157  0.1540  0.0422 -0.0418
 9832W        W52926  23.967  25.071  29.695  0.1567  0.3040 -0.1376
 9833W        W52927  21.452  23.234  28.889  0.1540 -0.2508 -0.2004
 9834W        W52928  21.740  25.476  28.902  0.4347 -0.1216 -0.0467
 9835W        W52929  22.227  21.565  30.584 -0.0625 -0.1915 -0.2532
 9836W        W52930  23.306  23.444  29.351 -0.2414  0.0170 -0.0414
 9837W        W52931  21.639  23.327  30.528 -0.0558  0.1994 -0.0532
 9838W        W52932  22.531  21.707  28.836 -0.2177  0.0378  0.1423
 9839W        W52933  23.757  23.183  29.793  0.2122 -0.4615  0.2086
 9840W        W52934  24.855  24.334  30.658 -0.2919 -0.1765 -0.0957
 9841W        W52935  22.387  22.019  30.440 -0.2169  0.2763  0.0379
 9842W        W52936  23.106  24.452  29.380 -0.2417  0.1172 -0.1357
 9843W        W52937  22.851  22.119  30.403 -0.0369 -0.1516  0.0351
 9844W        W52938  26.580  27.122  28.303  0.1361  0.4666  0.0053
 9845W        W52939  23.864  23.506  29.305  0.3665  0.0671  0.1165
 9846W        W52940  21.651  22.687  27.847 -0.0481  0.1053 -0.2840
 9847W        W52941  22.230  23.177  29.568  0.2579  0.3905  0.0275
 9848W        W52942  23.389  23.947  27.386 -0.3387 -0.1407 -0.1461
 9849W        W52943  22.253  22.575  28.702  0.0423 -0.3240 -0.1499
 9850W        W52944  22.559  25.973  28.130 -0.1755  0.1485 -0.0927
 9851W        W52945  22.514  25.161  28.130  0.0860 -0.1137  0.0733
 9852W        W52946  22.551  24.687  29.964  0.0339 -0.2838 -0.0975
 9853W        W52947  24.635  22.248  29.260 -0.2301 -0.0093 -0.1039
 9854W        W52948  24.334  25.539  26.838  0.1671 -0.2480  0.2060
 9855W        W52949  22.845  22.668  29.599 -0.0913  0.1289  0.0966
 9856W        W52950  25.623  22.246  31.865 -0.0767 -0.0136 -0.1897
 9857W        W52951  23.393  24.548  27.211 -0.1030  0.3004  0.0071
 9858W        W52952  24.231  23.575  30.940 -0.2264  0.1616 -0.1674
 9859W        W52953  23.288  22.742   0.649 -0.1851 -0.3015 -0.2402
 9860W        W52954  23.905  25.910  29.199 -0.4166  0.0055 -0.0736
 9861W        W52955  21.494  24.176  30.603  0.0046  0.0581  0.1354
 9862W        W52956  23.783  26.252  31.870 -0.2517  0.0916 -0.0791
 9863W        W52957  23.062  23.269  31.097  0.5128  0.0828 -0.0271
 9864W        W52958  23.229  22.444  28.008 -0.1076  0.1446  0.0925
 9865W        W52959  21.916  23.098  28.180 -0.1428 -0.2387 -0.0957
 9866W        W52960  22.052  25.042  29.738 -0.2558  0.2498  0.1401
 9867W        W52961  24.943  26.344  29.218  0.2580  0.0280 -0.1205
 9868W        W52962  24.551  25.256  28.067  0.0293 -0.1392  0.1382
 9869W        W52963  24.140  22.849  27.845 -0.1121  0.1176 -0.0835
 9870W        W52964  21.787  23.801  30.400 -0.2758 -0.0122 -0.3615
 9871W        W52965  25.405  24.042  28.906  0.1773 -0.0796 -0.3081
 9872W        W52966  23.812  24.618  27.565 -0.2616  0.3047  0.1878
 9873W        W52967  23.290  25.379  27.905 -0.1425 -0.2763  0.2177
 9874W        W52968  23.511  21.472  30.374 -0.0861 -0.0284 -0.0260
 9875W        W52969  25.405  24.718  28.038 -0.2632 -0.1395 -0.1139
 9876W        W52970  23.735  23.800  27.873  0.1134 -0.1509 -0.0070
 9877W        W52971  23.333  22.518  29.311  0.2055 -0.1869 -0.2188
 9878W        W52972  24.889  24.896  29.794 -0.2484 -0.0005 -0.0211
 9879W        W52973  24.319  23.748  30.232  0.2136 -0.0356 -0.0474
 9880W        W52974  21.305  23.449  31.876  0.0912  0.0784  0.1782
 9881W        W52975  24.517  26.372  29.669 -0.1239  0.0056 -0.0832
 9882W        W52976  26.138  23.171  26.290  0.0332 -0.0484  0.1698
 9883W        W52977  24.710  22.881  30.800 -0.0804 -0.1275  0.0212
 9884W        W52978  25.726  22.846  28.878 -0.0979  0.2275  0.0083
 9885W        W52979  22.319  23.157  28.506 -0.0013  0.0664  0.0639
 9886W        W52980  21.272  23.737  30.457 -0.0798  0.1184  0.0073
 9887W        W52981  24.553  23.879  30.670  0.3692 -0.2094 -0.1659
 9888W        W52982  21.631  21.752  28.061 -0.2297  0.3824  0.0108
 9889W        W52983  24.754  22.483  30.269  0.0199  0.0543  0.1057
 9890W        W52984  23.630  25.413  27.473  0.2880  0.4012  0.1424
 9891W        W52985  23.393  25.634  29.052  0.1114 -0.1440 -0.1830
 9892W        W52986  25.053  23.633  29.807  0.0188 -0.1999  0.2301
 9893W        W52987  20.452  23.072  29.594  0.2986  0.3631 -0.1200
 9894W        W52988  22.982  24.925  30.321 -0.2002  0.0089 -0.0911
 9895W        W52989  20.366  22.636  29.332  0.2254 -0.1029  0.1988
 9896W        W52990  23.281  25.046  27.497  0.0459 -0.0708 -0.0834
 9897W        W52991  22.303  23.846  30.227 -0.3472 -0.0851 -0.2410
 9898W        W52992  24.237  24.746  29.945  0.1215 -0.0898 -0.2126
 9899W        W52993  24.238  22.370  27.764  0.0344  0.1265 -0.0923
 9900W        W52994  26.405  23.547   0.189 -0.1148  0.0020 -0.2519
 9901W        W52995  22.223  23.909  28.609  0.1031  0.0604 -0.1382
 9902W        W52996  23.367  22.871  27.348 -0.1587  0.0157  0.1288
 9903W        W52997  21.394  25.056  28.955  0.3765  0.0444 -0.1804
 9904W        W52998  22.083  23.892  30.806 -0.3029  0.1428  0.2170
 9905W        W52999  24.086  24.211  29.978  0.0566  0.1110 -0.1542
 9906W        W53000  23.040  22.823  27.769 -0.2773  0.2093  0.0707
 9907W        W53001  23.591  22.794  27.835  0.1067 -0.0994 -0.1992
 9908W        W53002  23.216  23.013  28.889  0.1138  0.0647 -0.3697
 9909W        W53003  26.319  23.691  30.539 -0.2163 -0.1629  0.2060
 9910W        W53004  23.332  24.399  31.062  0.0684  0.2654 -0.2103
 9911W        W53005  22.819  22.841  29.116 -0.1277  0.1432 -0.2814
 9912W        W53006  24.525  25.064  30.123 -0.0596 -0.1745 -0.1211
 9913W        W53007  26.274  21.528  29.046  0.0537  0.0942  0.1497
 9914W        W53008  23.407  25.154  28.965 -0.2407 -0.1506 -0.1520
 9915W        W53009  22.400  23.426  29.971 -0.0795 -0.1935  0.1097
 9916W        W53010  23.900  23.171  30.683  0.2649  0.0792  0.0333
 9917W        W53011  24.622  24.459  29.752  0.3494 -0.2477  0.1097
 9918W        W53012  21.502  21.460  28.522 -0.3553  0.5244  0.2704
 9919W        W53013  24.838  25.236  27.657 -0.2367 -0.0730  0.1471
 9920W        W53014  22.280  24.403  30.832  0.0733  0.0741  0.0943
 9921W        W53015  22.197  23.465  30.540 -0.0335 -0.0742 -0.0982
 9922W        W53016  23.275  25.743  28.546 -0.2543 -0.1139 -0.1154
 9923W        W53017  24.740  24.797  27.904 -0.0460  0.0507 -0.0707
 9924W        W53018  24.828  25.471  26.853  0.3079  0.1425  0.2244
 9925W        W53019  24.975  26.422  29.814  0.1422 -0.2992 -0.1618
 9926W        W53020  22.316  22.860  26.723 -0.0880  0.0099  0.0781
 9927W        W53021  22.127  25.201  29.124  0.0568  0.2108  0.0560
 9928W        W53022  19.892  23.700  28.023  0.2655  0.2099 -0.0733
 9929W        W53023  24.890  26.013  27.524 -0.1035 -0.0371  0.2313
 9930W        W53024  22.292  25.312  28.637 -0.1357  0.0841 -0.1269
 9931W        W53025  24.904  25.430  29.913  0.0450 -0.5494  0.0235
 9932W        W53026  25.296  22.301  28.388  0.2782 -0.0111 -0.1318
 9933W        W53027  25.169  23.133  29.888 -0.1311  0.2877 -0.0766
 9934W        W53028  25.013  23.039  27.489  0.0065  0.1360 -0.2989
 9935W        W53029  25.097  26.280  30.243  0.0336  0.2798 -0.0562
 9936W        W53030  22.851  23.636  29.850  0.0354 -0.1860  0.2409
 9937W        W53031  22.313  23.434  28.094  0.0521  0.0848 -0.1820
 9938W        W53032  23.229  22.991  29.482 -0.0833 -0.1720  0.3419
 9939W        W53033  24.079  21.448  31.482 -0.0589 -0.3102  0.0476
 9940W        W53034  21.959  23.351  30.128  0.3416 -0.0256  0.1904
 9941W        W53035  23.714  25.014  27.848 -0.1545 -0.1689  0.1686
 9942W        W53036  21.751  24.452  27.980 -0.1043  0.2325  0.2172
 9943W        W53037  22.787  23.343  28.973  0.0727 -0.0213 -0.0753
 9944W        W53038  23.710  21.860  29.546 -0.2719  0.1043 -0.0876
 9945W        W53039  24.258  24.692  27.899 -0.1475 -0.1153 -0.3407
 9946W        W53040  23.563  24.251  27.947  0.3495 -0.0443 -0.0600
 9947W        W53041  22.083  26.167  28.413 -0.0210 -0.3321  0.1074
 9948W        W53042  22.460  25.854  30.914 -0.0546  0.1942  0.0751
 9949W        W53043  24.367  25.263  30.578 -0.1267 -0.0419  0.0794
 9950W        W53044  21.273  20.972  26.672 -0.1280  0.1610  0.1996
 9951W        W53045  25.484  23.964  28.027  0.1480  0.1101 -0.0193
 9952W        W53046  21.915  22.269  29.608  0.0940 -0.1431 -0.1909
 9953W        W53047  23.979  21.674  30.593  0.0061  0.1277  0.3587
 9954W        W53048  21.014  23.433  28.644 -0.0679  0.0439  0.0625
 9955W        W53049  25.879  24.687  28.310 -0.2956  0.2993  0.0460
 9956W        W53050  25.024  23.911  30.853 -0.0269  0.4719 -0.0296
 9957W        W53051  22.558  23.450  30.848  0.0989  0.0384 -0.0701
 9958W        W53052  23.828  23.290  27.707 -0.1293  0.2316  0.2035
 9959W        W53053  26.167  22.740  30.502 -0.0336 -0.0248  0.0617
 9960W        W53054  23.156  24.522  26.274  0.1634  0.0434 -0.2238
 9961W        W53055  24.106  25.538  30.976  0.2918 -0.2383 -0.1350
 9962W        W53056  21.039  22.722  29.235  0.4324  0.0322  0.0677
 9963W        W53057  23.196  23.352  28.525  0.2763 -0.2203 -0.0287
 9964W        W53058  21.002  23.189  29.074 -0.0467  0.0031  0.0034
 9965W        W53059  23.278  23.373  29.894  0.1037  0.1654  0.2490
 9966W        W53060  25.360  25.990  31.106  0.0333 -0.0333 -0.0036
 9967W        W53061  21.928  20.720  28.712  0.2553 -0.0686  0.0157
 9968W        W53062  27.337  24.682  28.150 -0.0208 -0.1194 -0.1070
 9969W        W53063  24.153  22.751  29.838 -0.0046 -0.0461  0.1713
 9970W        W53064  22.837  25.218  27.215  0.0691 -0.3339  0.2473
 9971W        W53065  24.639  23.424  29.682 -0.4294  0.2086  0.2259
 9972W        W53066  23.813  25.414  29.079  0.1154  0.0673  0.0764
 9973W        W53067  22.510  23.100  30.394  0.0853  0.0772 -0.2344
 9974W        W53068  24.794  25.838  28.840  0.2370  0.2952  0.2164
 9975W        W53069  25.526  24.958  28.486  0.0734  0.2651 -0.2082
 9976W        W53070  22.734  22.210  29.524  0.4443  0.1498  0.0221
 9977W        W53071  21.849  22.893  29.418  0.2987  0.4081 -0.0584
 9978W        W53072  21.797  26.628  28.788 -0.0948  0.0958  0.1187
 9979W        W53073  24.727  22.388  30.911  0.0061 -0.0083  0.2757
 9980W        W53074  24.738  23.462  30.146  0.0184 -0.0046 -0.0667
 9981W        W53075  23.106  25.569  27.524 -0.2432  0.1956  0.3070
 9982W        W53076  24.675  22.229  31.387  0.2242  0.2857  0.2319
 9983W        W53077  23.475  27.134   0.126 -0.2150 -0.0819 -0.1875
 9984W        W53078  22.827  24.161  30.203  0.1701  0.2060  0.0979
 9985W        W53079  21.250  23.966  29.191  0.0470 -0.1551  0.2166
 9986W        W53080  23.769  23.657  28.807 -0.0455 -0.2576 -0.1127
 9987W        W53081  23.426  23.926  28.410  0.1160 -0.2134  0.0477
 9988W        W53082  22.864  24.054  28.442  0.1195 -0.0057 -0.2609
 9989W        W53083  25.062  24.443  30.073 -0.3494  0.0857  0.1246
 9990W        W53084  22.279  22.601  29.492 -0.1822 -0.1447 -0.0006
 9991W        W53085  25.178  22.917  27.983 -0.2046  0.1281 -0.0924
 9992W        W53086  23.090  22.304  27.390 -0.0215  0.1719  0.1409
 9993W        W53087  24.684  22.937  28.029 -0.3973 -0.1984 -0.2183
 9994W        W53088  24.014  21.459  28.313  0.0330 -0.0274 -0.0633
 9995W        W53089  23.274  23.827  30.165  0.1298 -0.0011 -0.0546
 9996W        W53090  21.825  24.072  28.386  0.1289  0.0382  0.0126
 9997W        W53091  22.914  26.308  27.922  0.0429  0.2101 -0.0712
 9998W        W53092  23.135  24.065  29.696  0.0561  0.1776  0.2064
 9999W        W53093  22.463  20.749  31.857 -0.2431 -0.0300 -0.1754
10000W        W53094  22.606  22.529  30.602 -0.0437  0.2720 -0.1381
10001W        W53095  23.110  24.228  28.930 -0.2197 -0.2305  0.4676
10002W        W53096  22.574  23.838  28.927 -0.1298 -0.0602 -0.1929
10003W        W53097  24.322  25.670  28.988  0.0679  0.0023 -0.1936
10004W        W53098  20.928  21.540  29.087 -0.1258  0.2221 -0.2501
10005W        W53099  21.144  22.614  30.206  0.2974  0.2711 -0.0189
10006W        W53100  23.558  25.186  28.347 -0.0254 -0.0689 -0.2919
10007W        W53101  22.953  27.013  28.793 -0.0273 -0.2288 -0.0702
10008W        W53102  23.532  21.469  27.391 -0.1654  0.1441 -0.1996
10009W        W53103  24.809  27.094  31.789  0.0421 -0.0475  0.2962
10010W        W53104  21.450  25.223  26.833  0.2257 -0.1214  0.0296
10011W        W53105  23.334  22.632  31.718  0.0540 -0.4314  0.3709
10012W        W53106  24.451  21.825  31.574 -0.1506  0.0516 -0.1328
10013W        W53107  20.293  21.566  27.852  0.1803  0.2843  0.0427
10014W        W53108  22.322  22.005  29.838 -0.0409  0.1293  0.2557
10015W        W53109  23.801  24.847  29.171 -0.0755 -0.0356 -0.1829
10016W        W53110  24.425  26.122  29.142 -0.0112  0.4538  0.0871
10017W        W53111  24.401  24.233  29.365  0.0641 -0.2938 -0.1961
10018W        W53112  22.850  24.235  31.522  0.0450  0.0820  0.2864
10019W        W53113  22.396  21.112  30.407  0.0975  0.0020  0.2253
10020W        W53114  24.046  26.327  29.456  0.0755 -0.4028  0.0950
10021W        W53115  25.539  26.105  29.938 -0.3661 -0.1093 -0.0297
10022W        W53116  25.263  24.874  27.599 -0.1302 -0.3830  0.0399
10023W        W53117  23.775  22.239  28.545 -0.0539  0.2989  0.3488
10024W        W53118  24.250  23.257  28.073  0.0894 -0.4060  0.0957
10025W        W53119  21.450  21.312  30.253 -0.1148  0.0499  0.0346
10026W        W53120  22.885  23.653  31.389 -0.2894  0.1024  0.1308
10027W        W53121  25.558  23.821  29.814 -0.1408  0.1980 -0.0593
10028W        W53122  20.797  21.921  30.119  0.0703 -0.1115  0.1195
10029W        W53123  24.212  23.643  27.625 -0.0147 -0.0574 -0.0706
10030W        W53124  24.311  25.139  27.682  0.0746  0.1654  0.0532
10031W        W53125  21.734  24.121  29.968 -0.1299  0.1264 -0.3768
10032W        W53126  23.075  22.537  28.852 -0.0961  0.1202  0.5185
10033W        W53127  23.937  23.960  28.421  0.2277  0.0090  0.2106
10034W        W53128  22.934  24.352  30.640  0.3954  0.0598  0.0869
10035W        W53129  23.491  23.653  30.905 -0.1043  0.0464  0.2283
10036W        W53130  22.090  23.418  28.976 -0.0814  0.0721 -0.1059
10037W        W53131  24.976  24.212  28.555  0.0636 -0.1087  0.2508
10038W        W53132  24.691  25.123  28.562 -0.0090 -0.3606  0.1041
10039W        W53133  26.097  25.644   0.326 -0.1196  0.0134 -0.1618
10040W        W53134  24.060  25.534  29.571  0.0640 -0.0348 -0.3268
10041W        W53135  24.961  24.694  28.392 -0.0589 -0.2471 -0.0562
10042W        W53136  20.896  22.983  30.935  0.0584 -0.0519  0.5107
10043W        W53137  22.054  24.285  28.869  0.2419  0.1379  0.2736
10044W        W53138  23.028  25.487  29.348 -0.0416  0.1254  0.2184
10045W        W53139  24.085  22.612  28.835  0.1515 -0.1653  0.1024
10046W        W53140  21.741  22.018  29.178  0.2373  0.0336  0.2540
10047W        W53141  24.847  23.530  28.760  0.4279 -0.1375  0.2490
10048W        W53142  24.223  26.876  30.264  0.3053  0.0979  0.1286
10049W        W53143  22.839  23.916  29.337 -0.0225 -0.2052  0.1777
10050W        W53144  24.610  23.827  31.217 -0.2505 -0.0536  0.2018
10051W        W53145  24.351  25.965  31.154  0.2244 -0.1566 -0.1546
10052W        W53146  22.688  23.563  30.348  0.2284 -0.1911 -0.3527
10053W        W53147  21.543  23.946  31.556  0.1569 -0.1595  0.0747
10054W        W53148  23.024  24.706  31.393  0.1496  0.2255  0.0372
10055W        W53149  22.923  25.171  31.854 -0.0988  0.1582 -0.0400
10056W        W53150  25.311  23.475  31.370 -0.2847 -0.1873  0.0065
10057W        W53151  21.615  21.957  31.956 -0.2711  0.2498 -0.2494
10058W        W53152  25.555  22.751  31.172 -0.2462 -0.2508  0.0486
10059W        W53153  23.681  25.272  31.965 -0.2881  0.1611 -0.1604
10060W        W53154  25.577  26.132  30.466  0.2202 -0.1533 -0.1800
10061W        W53155  23.865  22.549  31.725  0.1572 -0.1761 -0.1414
10062W        W53156  22.960  23.817  30.886 -0.0014 -0.0611  0.0649
10063W        W53157  23.567  24.286  29.824 -0.2841  0.2341 -0.1038
10064W        W53158  25.994  24.434  31.095 -0.0461 -0.1542 -0.0018
10065W        W53159  21.178  25.473  31.892  0.0853  0.2262 -0.1176
10066W        W53160  20.676  23.291  31.272 -0.3170 -0.0087 -0.3460
10067W        W53161  23.794  25.325   0.439  0.2413  0.2736 -0.0523
10068W        W53162  22.619  23.237  31.328 -0.0543  0.2706 -0.1522
10069W        W53163  23.045  23.083  31.603 -0.0007  0.0553  0.2093
10070W        W53164  21.734  23.268  31.172  0.3832 -0.0406  0.0136
10071W        W53165  23.447  23.849   0.240  0.1370 -0.1766 -0.1818
10072W        W53166  27.278  21.485  31.064  0.3014  0.2546  0.1181
10073W        W53167  24.444  22.818  31.702 -0.0411  0.0858  0.1513
10074W        W53168  24.387  24.235  30.967  0.0947  0.1549 -0.1656
10075W        W53169  23.995  22.214  30.586 -0.2684  0.1620  0.0584
10076W        W53170  23.786  24.300  31.367  0.0198  0.2903 -0.0420
10077W        W53171  20.780  25.147  31.469 -0.0894  0.0350  0.3421
10078W        W53172  22.691  22.935  30.888 -0.0145  0.4107 -0.2142
10079W        W53173  22.440  23.656  31.547 -0.0918  0.1861  0.0619
10080W        W53174  24.161  25.429  30.097 -0.1012 -0.3585 -0.0107
10081W        W53175  22.576  22.302  31.078  0.1966 -0.2263 -0.1310
10082W        W53176  23.712  24.504  31.968  0.1761 -0.1838 -0.2093
10083W        W53177  25.336  21.386  31.296 -0.0436  0.0196  0.2123
10084W        W53178  21.575  23.715  30.888 -0.0013 -0.2297 -0.0744
10085W        W53179  23.342  23.973  31.294  0.1940 -0.0381  0.3746
10086W        W53180  22.484  23.960  31.167  0.3830  0.1384 -0.0119
10087W        W53181  24.805  24.956  30.754 -0.1475 -0.2655  0.2815
10088W        W53182  25.144  24.994  31.666 -0.2638 -0.4260 -0.0293
10089W        W53183  24.413  23.104  30.003 -0.1179 -0.3055 -0.1261
10090W        W53184  25.782  23.344  30.040  0.0781 -0.3696 -0.0791
10091W        W53185  22.700  24.441   0.820  0.1606 -0.0315  0.1139
10092W        W53186  23.982  21.996  31.522  0.0628  0.3345 -0.0423
10093W        W53187  24.222  25.581   0.494  0.2483  0.2259  0.2061
10094W        W53188  23.235  22.853  30.636 -0.3144  0.0616 -0.1628
10095W        W53189  24.146  25.366   0.094  0.1138 -0.0025 -0.4588
10096W        W53190  23.478  22.194  31.554 -0.0802  0.3401  0.1245
10097W        W53191  24.353  22.815  30.469  0.1033  0.0160  0.0317
10098W        W53192  24.490  23.922  29.830  0.0780  0.3110  0.3284
10099W        W53193  20.755  24.182  31.440  0.0968 -0.0722  0.1250
10100W        W53194  24.194  25.403  31.562  0.0396 -0.0633  0.5983
10101W        W53195  24.529  22.114  30.537  0.2308 -0.2543 -0.1053
10102W        W53196  23.062  22.690  31.248  0.1178 -0.3612 -0.1397
10103W        W53197  23.925  24.009  29.567 -0.1294 -0.2201 -0.3389
10104W        W53198  23.168  23.851  31.768 -0.1488 -0.1812  0.3966
10105W        W53199  23.919  23.657  30.594 -0.0702  0.0774 -0.0296
10106W        W53200  23.860  24.995  30.197  0.0624 -0.2640 -0.1078
10107W        W53201  22.472  26.085   0.159 -0.1931  0.1113  0.1543
10108W        W53202  23.569  25.776  31.756 -0.0148 -0.0669 -0.2978
10109W        W53203  22.585  23.800   0.127  0.1541 -0.3770 -0.1481
10110W        W53204  20.796  23.930  30.546  0.0394  0.1382 -0.0295
10111W        W53205  22.708  24.372  29.636  0.1559 -0.1943  0.1281
10112W        W53206  22.543  23.994  30.653 -0.1443 -0.0160 -0.2042
10113W        W53207  21.703  22.024  31.463 -0.0232 -0.2234 -0.0668
10114W        W53208  24.504  26.432  31.134  0.1787 -0.1647  0.0831
10115W        W53209  25.760  25.284  30.396  0.1721 -0.0852 -0.0551
10116W        W53210  24.977  25.656   0.175 -0.2759 -0.1472 -0.1543
10117W        W53211  22.477  28.389  19.529 -0.0887 -0.0895 -0.4212
10118W        W53212  22.738  26.980  15.424 -0.0373 -0.0604  0.2595
10119W        W53213  24.743  25.506  16.520 -0.0820 -0.1897  0.0175
10120W        W53214  26.880  29.003  17.870  0.3468  0.3618  0.1594
10121W        W53215  23.186  26.528  17.133  0.0175 -0.3505 -0.0486
10122W        W53216  24.495  28.226  17.654 -0.1208 -0.2205  0.0276
10123W        W53217  23.643  25.270  18.975  0.5855 -0.0514 -0.0038
10124W        W53218  24.828  28.302  18.432  0.0153 -0.3223  0.1812
10125W        W53219  26.129  29.416  17.533 -0.1473  0.1887  0.0985
10126W        W53220  25.008  28.345  16.450  0.0824  0.3407  0.0693
10127W        W53221  24.236  27.843  19.043 -0.0201 -0.0460  0.1488
10128W        W53222  22.678  28.070  18.661 -0.1073 -0.2640  0.3268
10129W        W53223  23.615  25.019  17.027 -0.0905  0.2344 -0.0278
10130W        W53224  23.681  25.900  17.299  0.0916  0.2912  0.0787
10131W        W53225  24.427  26.089  17.717  0.5821 -0.0182  0.2045
10132W        W53226  24.152  26.061  17.305 -0.1732 -0.2602 -0.0278
10133W        W53227  21.688  27.331  17.003  0.0349 -0.0279 -0.2482
10134W        W53228  24.746  26.936  16.317  0.2446 -0.4281  0.3062
10135W        W53229  23.137  28.531  16.699 -0.1085 -0.0971 -0.0364
10136W        W53230  23.297  26.361  19.451  0.0177 -0.2353  0.0639
10137W        W53231  24.629  26.037  18.655  0.0975 -0.0934  0.0466
10138W        W53232  24.428  27.372  16.172 -0.1004 -0.2308  0.0082
10139W        W53233  22.046  27.637  16.736  0.1658  0.3560  0.0135
10140W        W53234  21.745  26.382  19.346 -0.0849 -0.3774 -0.1310
10141W        W53235  22.802  26.150  17.330  0.1078 -0.2579 -0.0647
10142W        W53236  24.837  25.955  18.165 -0.0151  0.3679  0.0762
10143W        W53237  24.531  28.922  16.902  0.1704 -0.0740  0.2834
10144W        W53238  24.781  27.882  18.184  0.0512 -0.1024 -0.1051
10145W        W53239  24.404  29.731  17.428  0.0701  0.0815 -0.1301
10146W        W53240  25.331  27.230  19.767  0.1314  0.1534  0.2032
10147W        W53241  22.230  28.604  17.073 -0.3406  0.0504 -0.1199
10148W        W53242  21.447  29.396  17.897  0.2388 -0.1192  0.4503
10149W        W53243  22.633  28.700  17.785  0.2118 -0.0567 -0.0529
10150W        W53244  25.360  28.581  16.104  0.6607 -0.0625 -0.1981
10151W        W53245  26.287  28.656  20.033 -0.2339 -0.0221  0.1163
10152W        W53246  24.749  28.897  17.903  0.0182  0.2150  0.0726
10153W        W53247  23.008  29.384  16.483  0.0812  0.2295 -0.0062
10154W        W53248  24.882  27.371  18.972  0.0154 -0.0436  0.0613
10155W        W53249  23.989  27.490  18.654 -0.0033 -0.2149 -0.0021
10156W        W53250  24.505  25.872  16.896  0.2001 -0.0419 -0.0374
10157W        W53251  23.290  27.058  16.506 -0.1145 -0.0379  0.0189
10158W        W53252  23.581  29.719  16.612 -0.0803  0.1043  0.3270
10159W        W53253  24.297  26.454  18.526 -0.0487  0.0531  0.0505
10160W        W53254  23.390  27.618  20.402  0.2029 -0.1240  0.0641
10161W        W53255  21.171  28.398  19.718 -0.2291 -0.0445  0.0396
10162W        W53256  26.043  27.245  20.383 -0.1285 -0.3240 -0.2505
10163W        W53257  20.254  29.206  16.537 -0.2116 -0.3980 -0.0207
10164W        W53258  26.144  27.313  16.521  0.0643 -0.2553 -0.2473
10165W        W53259  23.803  25.971  16.196  0.1252  0.3252 -0.1316
10166W        W53260  25.585  27.690  16.037 -0.1459  0.0082 -0.1137
10167W        W53261  23.820  24.794  18.097 -0.1342 -0.1202  0.3187
10168W        W53262  23.372  28.881  19.693 -0.3691  0.0750  0.0147
10169W        W53263  22.546  26.474  18.813  0.2205 -0.2324 -0.0747
10170W        W53264  26.541  28.247  18.271 -0.1463 -0.2771 -0.0641
10171W        W53265  22.016  27.896  16.314  0.0932 -0.1977  0.4589
10172W        W53266  23.825  26.267  17.653  0.1375  0.0599  0.0789
10173W        W53267  23.979  27.770  20.210 -0.1214  0.2568 -0.1841
10174W        W53268  22.269  27.090  17.566 -0.1232 -0.1384  0.2011
10175W        W53269  23.738  29.787  15.614  0.0435  0.0270  0.1443
10176W        W53270  24.803  29.269  16.679 -0.1351 -0.2144  0.2486
10177W        W53271  22.428  29.278  16.582 -0.1293  0.3134  0.0871
10178W        W53272  24.016  25.991  16.836  0.2357 -0.3707  0.1731
10179W        W53273  21.847  26.771  19.864 -0.2738  0.0854  0.0521
10180W        W53274  22.400  26.977  19.760  0.1667  0.0132 -0.0971
10181W        W53275  23.315  26.193  15.119  0.0759 -0.0703 -0.0453
10182W        W53276  24.612  27.602  19.483 -0.0431 -0.1241 -0.3252
10183W        W53277  21.988  28.631  19.958  0.1836  0.0398  0.3976
10184W        W53278  25.284  25.512  16.223  0.1843  0.2059 -0.2476
10185W        W53279  21.748  27.894  17.045  0.1171  0.1117  0.0738
10186W        W53280  24.304  27.358  18.253 -0.0134  0.1502  0.1399
10187W        W53281  23.522  27.639  15.890 -0.0487  0.2377  0.0991
10188W        W53282  25.220  26.740  17.454  0.3133 -0.1416 -0.0126
10189W        W53283  24.607  25.088  18.005  0.3922  0.0890  0.5927
10190W        W53284  23.645  26.759  16.294 -0.2116  0.1667 -0.2216
10191W        W53285  23.672  28.092  17.934  0.1424 -0.0964  0.4039
10192W        W53286  26.316  27.750  18.885  0.0247 -0.1215 -0.0589
10193W        W53287  24.994  28.107  17.502  0.1535  0.1823 -0.1075
10194W        W53288  22.070  29.368  18.736 -0.3218 -0.3199  0.0729
10195W        W53289  22.882  25.372  20.208 -0.3580 -0.1828 -0.0667
10196W        W53290  23.599  27.379  19.205  0.1215  0.0886 -0.0766
10197W        W53291  21.236  28.397  15.710 -0.2211 -0.1721  0.3172
10198W        W53292  22.347  26.787  18.035  0.0612  0.1572  0.2553
10199W        W53293  23.362  28.097  16.637  0.0864 -0.2043  0.0066
10200W        W53294  22.741  25.852  18.971 -0.3508  0.0693  0.0647
10201W        W53295  23.637  28.737  19.349  0.0227  0.0212  0.3188
10202W        W53296  24.385  26.579  16.390  0.2008 -0.0080 -0.1283
10203W        W53297  23.456  25.829  19.668 -0.3824  0.2289 -0.0401
10204W        W53298  25.356  25.307  17.119  0.1182 -0.0014 -0.1135
10205W        W53299  23.672  26.342  17.039  0.0728 -0.2787 -0.0224
10206W        W53300  24.928  28.588  16.845 -0.3102  0.1645 -0.4733
10207W        W53301  24.932  27.472  16.564 -0.0003 -0.1236  0.0760
10208W        W53302  24.709  28.394  16.038  0.0442 -0.0624 -0.0817
10209W        W53303  21.319  26.742  17.545  0.1082 -0.0590  0.1941
10210W        W53304  23.870  25.371  16.745  0.1177  0.0459  0.0525
10211W        W53305  23.053  26.079  17.967 -0.0271 -0.3303 -0.0250
10212W        W53306  20.907  27.258  17.541  0.0117 -0.2572  0.0888
10213W        W53307  23.770  27.907  18.394 -0.2304  0.2212  0.1782
10214W        W53308  20.467  27.930  16.755  0.0784 -0.0469 -0.0987
10215W        W53309  24.028  25.715  17.645  0.1419  0.1712  0.1952
10216W        W53310  24.757  26.171  15.721  0.1714 -0.2512 -0.1024
10217W        W53311  21.377  27.117  16.566 -0.0801 -0.0904  0.2222
10218W        W53312  24.459  26.896  16.825  0.2278 -0.0010  0.1381
10219W        W53313  23.151  29.994  16.795 -0.1243 -0.0376 -0.1249
10220W        W53314  26.298  30.460  17.903 -0.0263 -0.2393 -0.0854
10221W        W53315  24.301  27.928  18.286 -0.1802  0.1365  0.0694
10222W        W53316  23.621  26.818  20.059  0.2833 -0.2441  0.3502
10223W        W53317  23.546  26.745  15.199 -0.1923 -0.0742 -0.2058
10224W        W53318  22.836  29.186  17.909 -0.1224 -0.0036 -0.1160
10225W        W53319  22.769  29.316  18.996  0.2455  0.0233  0.0125
10226W        W53320  23.380  26.494  16.636  0.0072  0.4043  0.1079
10227W        W53321  25.231  28.166  18.249 -0.1538 -0.1313  0.0423
10228W        W53322  23.969  27.491  16.126  0.2900  0.0654  0.0166
10229W        W53323  21.810  25.851  19.458 -0.0795 -0.1117 -0.0727
10230W        W53324  24.248  25.022  18.326 -0.0761 -0.0189  0.1046
10231W        W53325  25.744  26.403  18.458 -0.0765 -0.0749  0.2275
10232W        W53326  21.768  28.208  17.700  0.1073 -0.1252 -0.0302
10233W        W53327  22.994  26.188  16.407 -0.0871  0.2146 -0.2146
10234W        W53328  25.648  28.416  18.244 -0.1082  0.0586 -0.0187
10235W        W53329  22.862  28.896  16.346 -0.1249  0.2939 -0.1998
10236W        W53330  21.895  27.042  16.618  0.0468  0.0939 -0.1106
10237W        W53331  24.856  27.359  18.298  0.2922  0.1861 -0.1457
10238W        W53332  24.167  25.589  17.157  0.0566  0.2765 -0.3374
10239W        W53333  21.558  27.940  20.337 -0.1393 -0.3757  0.1126
10240W        W53334  24.761  26.312  17.172  0.3374 -0.0388 -0.2590
10241W        W53335  21.582  27.592  16.525 -0.1514 -0.1684 -0.0345
10242W        W53336  23.503  28.585  20.533  0.1797 -0.0345 -0.0548
10243W        W53337  25.174  26.679  15.806  0.0853 -0.1792  0.0634
10244W        W53338  25.404  25.366  15.757 -0.3837 -0.0473  0.1146
10245W        W53339  24.520  26.787  19.000  0.1757 -0.3464  0.0183
10246W        W53340  24.471  28.262  16.601  0.2352  0.1826 -0.2234
10247W        W53341  26.092  28.129  17.070 -0.2231 -0.2658  0.0449
10248W        W53342  22.852  26.897  15.888  0.0283  0.3122  0.1886
10249W        W53343  22.656  28.053  19.886 -0.1692 -0.1228  0.0795
10250W        W53344  23.032  27.345  16.893 -0.2902 -0.0669  0.0874
10251W        W53345  23.802  27.105  17.658 -0.2433 -0.2615  0.0082
10252W        W53346  25.098  28.031  16.023  0.3276 -0.0262  0.4088
10253W        W53347  25.202  29.046  16.289 -0.0750  0.3675  0.0293
10254W        W53348  20.671  28.154  19.025  0.2941 -0.0912  0.1194
10255W        W53349  24.581  28.079  18.761  0.1924 -0.0480 -0.1434
10256W        W53350  24.323  28.955  18.286 -0.0898 -0.2512 -0.2555
10257W        W53351  24.472  25.204  18.868 -0.0743 -0.1092  0.2541
10258W        W53352  21.521  26.494  15.849  0.3070 -0.0842 -0.0017
10259W        W53353  22.592  25.297  16.223  0.1648  0.1447 -0.0838
10260W        W53354  20.930  28.812  15.795  0.1653 -0.2605  0.1009
10261W        W53355  23.865  24.893  17.493  0.1072  0.0555  0.0554
10262W        W53356  23.722  25.372  17.399 -0.2421 -0.0924  0.1500
10263W        W53357  23.072  26.626  20.165  0.2808  0.0976  0.0758
10264W        W53358  25.555  27.646  19.431  0.0129 -0.3344 -0.1047
10265W        W53359  24.430  27.606  16.723 -0.1022  0.2201  0.4821
10266W        W53360  24.347  26.398  16.891  0.0175 -0.1068  0.1499
10267W        W53361  23.204  27.861  16.163  0.0226 -0.0600 -0.0856
10268W        W53362  23.254  26.125  18.964 -0.2198  0.1888  0.1867
10269W        W53363  21.762  27.489  19.041 -0.2891  0.1179 -0.2316
10270W        W53364  22.501  27.667  18.350  0.2205 -0.1487  0.1114
10271W        W53365  25.936  29.324  18.828 -0.2370  0.1139  0.2332
10272W        W53366  23.998  28.489  17.710 -0.0733 -0.2580  0.1239
10273W        W53367  24.411  25.510  20.684  0.1703 -0.1465 -0.1440
10274W        W53368  23.005  26.657  16.365 -0.1364 -0.0119  0.0256
10275W        W53369  22.762  29.002  16.857  0.0796  0.1198 -0.0112
10276W        W53370  22.842  28.296  16.332  0.0920 -0.1030  0.2809
10277W        W53371  25.179  25.317  19.452  0.1453  0.3218  0.4142
10278W        W53372  22.808  28.281  18.087  0.2374 -0.3321  0.1620
10279W        W53373  23.319  28.415  16.219  0.0799  0.3255  0.2208
10280W        W53374  24.591  26.941  18.029 -0.3014 -0.1231 -0.1859
10281W        W53375  21.802  28.437  17.249 -0.3988  0.1664  0.0417
10282W        W53376  24.225  24.829  17.840  0.1334 -0.0120 -0.1926
10283W        W53377  21.594  27.811  17.920  0.1407  0.1625 -0.1721
10284W        W53378  21.982  26.612  15.514  0.0544  0.0183  0.0633
10285W        W53379  23.388  28.208  17.298 -0.2418 -0.2167  0.1269
10286W        W53380  24.707  23.557  19.282 -0.2674 -0.0401  0.3258
10287W        W53381  25.506  28.523  16.588  0.2873 -0.1834  0.0419
10288W        W53382  22.416  25.258  18.782 -0.2863 -0.1233  0.0704
10289W        W53383  24.376  26.496  17.378 -0.2068 -0.3063 -0.0087
10290W        W53384  22.342  28.906  18.140  0.0387 -0.3023 -0.1350
10291W        W53385  24.522  27.610  18.606 -0.1594  0.3670  0.0876
10292W        W53386  22.679  26.741  17.258 -0.2456  0.1901 -0.6537
10293W        W53387  25.462  28.213  17.652 -0.0045 -0.1351 -0.1834
10294W        W53388  22.850  28.371  19.045  0.2257  0.2676  0.0742
10295W        W53389  23.970  26.423  16.051 -0.0971  0.1709 -0.0522
10296W        W53390  23.619  26.580  18.513 -0.2135  0.1686 -0.0238
10297W        W53391  22.340  25.325  17.229 -0.1765 -0.3577 -0.3536
10298W        W53392  21.011  27.818  17.726 -0.0901 -0.0235  0.4049
10299W        W53393  25.722  28.364  18.761  0.0413 -0.0918 -0.0853
10300W        W53394  22.311  27.000  16.354 -0.0184  0.0547 -0.0946
10301W        W53395  21.918  28.886  18.519  0.0855  0.3092 -0.1263
10302W        W53396  24.489  27.006  18.573 -0.0203  0.0197 -0.1078
10303W        W53397  23.269  27.139  17.996 -0.0304  0.0587  0.2718
10304W        W53398  22.498  26.759  16.761 -0.0128  0.0245 -0.1601
10305W        W53399  23.061  27.364  16.105 -0.2079 -0.0761 -0.0227
10306W        W53400  22.433  27.519  16.373  0.1840  0.0237  0.1150
10307W        W53401  24.358  28.467  18.130 -0.2581 -0.2468  0.4557
10308W        W53402  23.988  24.995  18.762  0.2198 -0.2321  0.1851
10309W        W53403  22.116  28.102  21.934 -0.0972 -0.4469  0.0457
10310W        W53404  24.223  25.414  17.993  0.1761 -0.1788 -0.1680
10311W        W53405  24.454  29.825  16.274 -0.1849 -0.1229  0.1517
10312W        W53406  23.017  26.631  19.093 -0.0286  0.0500  0.0803
10313W        W53407  23.269  27.237  15.641  0.1035  0.0648 -0.1522
10314W        W53408  21.293  27.370  17.762 -0.4432 -0.0076 -0.0256
10315W        W53409  24.759  29.245  16.133  0.1142  0.2366 -0.2676
10316W        W53410  23.353  25.093  17.695  0.2982 -0.0327  0.0866
10317W        W53411  22.447  27.168  18.374 -0.0998 -0.0222 -0.3604
10318W        W53412  22.317  29.134  17.613 -0.1109 -0.3846  0.0403
10319W        W53413  22.076  27.662  19.961 -0.1645 -0.2521 -0.1849
10320W        W53414  25.320  26.143  16.459  0.1260 -0.0512 -0.0430
10321W        W53415  24.217  28.677  16.460  0.0318 -0.0450 -0.1020
10322W        W53416  23.592  25.841  17.804 -0.1166  0.1275 -0.1300
10323W        W53417  26.632  27.372  18.709  0.1566  0.3245 -0.1269
10324W        W53418  25.214  27.600  15.706  0.0594  0.0031 -0.0380
10325W        W53419  23.863  25.697  19.146 -0.0739  0.1557  0.1780
10326W        W53420  22.606  26.682  20.482  0.0829  0.0045 -0.0802
10327W        W53421  24.167  27.105  15.737 -0.1918  0.0276 -0.1017
10328W        W53422  22.070  25.594  18.544  0.0586  0.2909  0.1115
10329W        W53423  23.789  27.793  19.714 -0.1012 -0.1242  0.0008
10330W        W53424  22.746  26.787  18.387 -0.2478  0.0124  0.1031
10331W        W53425  24.152  24.985  17.102  0.0808 -0.0181  0.0905
10332W        W53426  22.052  26.556  16.511 -0.1632 -0.1045  0.2886
10333W        W53427  22.740  27.089  17.809 -0.0922  0.0292 -0.2835
10334W        W53428  25.613  29.919  18.433  0.2354 -0.0861  0.6024
10335W        W53429  23.994  28.195  16.675  0.2473  0.0614  0.1016
10336W        W53430  26.015  25.081  17.547  0.0451 -0.1092 -0.0359
10337W        W53431  23.509  26.615  17.500  0.1742 -0.2112 -0.1941
10338W        W53432  24.131  26.973  16.210 -0.1250 -0.0736 -0.5615
10339W        W53433  23.897  29.115  16.321  0.0337 -0.1882  0.0667
10340W        W53434  23.059  27.421  17.622 -0.1733 -0.0055  0.1602
10341W        W53435  22.952  25.874  18.516  0.0069  0.1573 -0.1660
10342W        W53436  23.787  26.754  15.764  0.0783  0.2832  0.0982
10343W        W53437  24.943  27.702  17.089  0.0735 -0.0157 -0.0328
10344W        W53438  24.484  23.831  19.623 -0.0734 -0.0287 -0.1607
10345W        W53439  23.542  26.208  18.206  0.0415  0.2141 -0.1172
10346W        W53440  23.028  27.376  19.181 -0.0191  0.2523 -0.4950
10347W        W53441  22.036  26.449  18.873  0.1100 -0.1019  0.2008
10348W        W53442  25.454  29.476  18.690 -0.0193 -0.2337  0.0241
10349W        W53443  25.479  25.442  15.270 -0.0115 -0.0707  0.2048
10350W        W53444  25.476  25.865  19.602 -0.1889  0.2703  0.1064
10351W        W53445  24.126  27.904  17.818 -0.2783  0.0076 -0.0888
10352W        W53446  25.914  26.858  16.007 -0.0076 -0.0485  0.1393
10353W        W53447  22.861  27.353  18.237 -0.1466  0.0741  0.1757
10354W        W53448  25.814  26.321  19.491  0.2871  0.1111  0.0448
10355W        W53449  22.613  25.856  15.431 -0.1974  0.3917 -0.0933
10356W        W53450  24.326  25.956  18.214 -0.3759  0.2196 -0.0592
10357W        W53451  22.877  29.705  15.816  0.3771 -0.1459 -0.2511
10358W        W53452  23.920  26.719  17.295  0.0169  0.0295  0.1208
10359W        W53453  23.571  26.908  16.913 -0.1074  0.1045  0.0288
10360W        W53454  20.914  25.782  17.589  0.2088 -0.3089 -0.3409
10361W        W53455  22.113  28.165  20.079  0.1563  0.0070  0.0459
10362W        W53456  21.947  27.420  16.229 -0.0851  0.1085 -0.0513
10363W        W53457  22.776  27.167  16.473  0.1870 -0.3686 -0.1060
10364W        W53458  23.768  28.605  20.075 -0.0071 -0.0277  0.4404
10365W        W53459  24.947  26.887  19.257 -0.0563 -0.0939 -0.0450
10366W        W53460  24.884  25.905  16.170 -0.0376  0.3640  0.0093
10367W        W53461  25.234  27.676  18.151 -0.1246  0.1105 -0.2291
10368W        W53462  21.762  27.548  17.483 -0.2134 -0.0026 -0.0365
10369W        W53463  22.540  24.143  16.445  0.1952 -0.0084 -0.0399
10370W        W53464  22.971  28.939  18.695 -0.1802  0.1315  0.1062
10371W        W53465  21.004  27.029  18.002 -0.2023 -0.1804 -0.1425
10372W        W53466  22.751  28.631  17.217  0.1785  0.0761 -0.0335
10373W        W53467  24.425  26.200  16.071 -0.0591  0.0108  0.1221
10374W        W53468  25.085  27.118  17.850 -0.0341  0.1905 -0.1418
10375W        W53469  22.412  25.996  18.645 -0.2281  0.0403 -0.0213
10376W        W53470  25.233  27.406  18.581  0.2570 -0.3158 -0.0471
10377W        W53471  23.726  27.360  20.056 -0.0475 -0.0511  0.2443
10378W        W53472  24.066  27.162  17.081 -0.2873  0.3237 -0.0381
10379W        W53473  25.351  28.635  18.595 -0.1091  0.3078  0.0463
10380W        W53474  26.559  29.974  17.959 -0.2301 -0.0563 -0.0350
10381W        W53475  23.174  27.988  18.537 -0.0971 -0.3215  0.2065
10382W        W53476  20.672  27.028  20.147  0.1201  0.0006 -0.0579
10383W        W53477  22.786  26.223  19.244 -0.0500  0.1085  0.3126
10384W        W53478  23.911  27.719  16.559 -0.0590 -0.1128 -0.3970
10385W        W53479  22.829  24.459  15.664  0.2388  0.1094 -0.2638
10386W        W53480  23.974  28.955  16.902 -0.0419 -0.2029 -0.0729
10387W        W53481  21.003  28.767  19.983  0.1355  0.0214  0.0333
10388W        W53482  21.502  29.970  19.265  0.1152 -0.0191 -0.1990
10389W        W53483  22.032  29.278  16.213 -0.3277 -0.2467 -0.0359
10390W        W53484  25.880  28.744  16.880 -0.0666  0.1544  0.0663
10391W        W53485  23.775  27.217  16.552 -0.0748 -0.1705  0.0840
10392W        W53486  25.247  28.661  17.782  0.0411  0.0028  0.1631
10393W        W53487  23.893  26.346  16.539  0.1158 -0.0006 -0.1541
10394W        W53488  22.616  28.602  18.480 -0.2576  0.0714 -0.3114
10395W        W53489  22.320  27.585  15.927 -0.1222 -0.0919 -0.1282
10396W        W53490  23.739  28.626  16.404  0.1949  0.1134  0.0776
10397W        W53491  21.656  28.464  19.153 -0.0527  0.1174 -0.3061
10398W        W53492  23.761  29.269  19.347 -0.1986  0.1374  0.0834
10399W        W53493  25.638  25.368  16.612 -0.1092 -0.0882  0.1362
10400W        W53494  26.125  29.293  18.029 -0.1190 -0.4070  0.1453
10401W        W53495  25.314  27.089  16.696  0.1740  0.2070 -0.1651
10402W        W53496  25.073  28.729  19.555 -0.0234 -0.2329 -0.3622
10403W        W53497  23.696  27.109  18.602 -0.2891 -0.0006 -0.1343
10404W        W53498  24.782  25.157  17.009  0.2800  0.0675  0.2828
10405W        W53499  24.164  27.458  19.521  0.3767  0.0887  0.2662
10406W        W53500  26.247  27.339  19.184 -0.2233  0.2190  0.3120
10407W        W53501  21.129  28.574  20.454  0.3313  0.0189  0.1739
10408W        W53502  24.974  29.697  15.509  0.2314 -0.3138 -0.1090
10409W        W53503  21.585  26.747  16.910 -0.0184  0.0138  0.3971
10410W        W53504  22.517  27.570  18.926 -0.1523 -0.2071  0.1986
10411W        W53505  25.549  25.504  18.720 -0.1186 -0.2920 -0.3812
10412W        W53506  23.954  27.533  15.639 -0.2000 -0.0888  0.3295
10413W        W53507  23.250  25.553  17.451  0.1582  0.0158 -0.0522
10414W        W53508  22.837  28.154  16.928 -0.2096 -0.1657  0.0058
10415W        W53509  22.265  28.371  18.204 -0.2026  0.0195  0.0844
10416W        W53510  22.109  27.431  18.555  0.1001  0.0232  0.0793
10417W        W53511  21.932  26.272  16.852 -0.3485 -0.0053 -0.1657
10418W        W53512  23.756  27.833  16.987  0.0010 -0.0513 -0.1661
10419W        W53513  23.139  26.513  18.505 -0.1036 -0.1594 -0.2750
10420W        W53514  24.889  25.558  18.811  0.0122 -0.3248  0.0162
10421W        W53515  23.277  27.042  17.263 -0.2686 -0.2205 -0.3496
10422W        W53516  24.574  27.790  17.396 -0.0975 -0.1152  0.0047
10423W        W53517  23.751  27.411  18.168 -0.0352 -0.4077 -0.0828
10424W        W53518  21.957  26.565  18.223  0.3443 -0.0785 -0.0022
10425W        W53519  22.916  27.776  16.573 -0.0234  0.0308  0.1382
10426W        W53520  23.004  27.872  19.022 -0.0191 -0.2814 -0.0005
10427W        W53521  25.619  26.722  15.642  0.0345  0.2431  0.1247
10428W        W53522  25.315  27.172  19.110 -0.3118 -0.4448  0.0480
10429W        W53523  21.451  25.525  17.160  0.1344  0.0388 -0.0827
10430W        W53524  23.581  25.975  16.643 -0.3108  0.0636  0.1496
10431W        W53525  22.638  28.559  16.705 -0.1018  0.3007  0.0836
10432W        W53526  23.693  26.686  17.947 -0.1170  0.2241  0.2990
10433W        W53527  26.077  27.850  20.324  0.1490  0.3603  0.3750
10434W        W53528  22.539  24.407  17.005 -0.0049  0.4289  0.1523
10435W        W53529  25.064  28.112  16.868 -0.0652  0.1184  0.0923
10436W        W53530  24.522  26.438  18.061 -0.1828 -0.1272 -0.0784
10437W        W53531  22.806  28.668  15.959  0.0691 -0.0436 -0.1584
10438W        W53532  25.264  28.425  17.200 -0.0218  0.1524  0.2914
10439W        W53533  26.176  28.946  17.670 -0.0414  0.2787 -0.4538
10440W        W53534  22.353  26.255  17.961  0.1227 -0.3909 -0.3296
10441W        W53535  23.131  27.802  17.199 -0.0351  0.0873 -0.0460
10442W        W53536  26.481  28.707  18.772  0.1754 -0.2410  0.0089
10443W        W53537  23.743  25.057  16.306 -0.1284  0.0694  0.2702
10444W        W53538  22.170  27.403  17.198  0.0948 -0.0666 -0.0602
10445W        W53539  22.400  29.147  17.137 -0.1886 -0.0758 -0.0389
10446W        W53540  24.714  26.793  17.540  0.4539  0.1832 -0.1462
10447W        W53541  22.469  26.744  19.217 -0.0248 -0.2048  0.0414
10448W        W53542  23.376  27.563  16.529 -0.0066  0.0846 -0.0627
10449W        W53543  23.855  25.757  18.229  0.1649 -0.0451  0.1503
10450W        W53544  21.920  29.152  17.949 -0.1233 -0.1931  0.0226
10451W        W53545  23.103  28.819  20.159 -0.0620 -0.0951 -0.2549
10452W        W53546  22.607  27.895  16.106 -0.0802 -0.1976 -0.0892
10453W        W53547  22.666  27.062  18.836 -0.2704  0.0320 -0.2322
10454W        W53548  23.589  27.374  16.982  0.1585 -0.2322 -0.1000
10455W        W53549  23.085  30.355  16.472 -0.1119 -0.1502 -0.2472
10456W        W53550  23.244  27.635  18.176  0.0772  0.0941  0.1269
10457W        W53551  24.868  26.468  16.203  0.0087 -0.0038  0.1055
10458W        W53552  26.182  28.730  16.473 -0.3567  0.2596  0.0025
10459W        W53553  23.181  26.972  18.732 -0.2059  0.4174  0.2154
10460W        W53554  25.676  26.853  17.273 -0.1726 -0.3926  0.2597
10461W        W53555  23.720  25.362  17.982  0.1987 -0.1811 -0.0729
10462W        W53556  23.513  26.908  19.103 -0.1566 -0.1581 -0.0109
10463W        W53557  20.329  28.197  15.686 -0.1947 -0.0326 -0.4293
10464W        W53558  21.874  28.298  15.462 -0.1473  0.0278 -0.2901
10465W        W53559  23.451  27.514  18.659 -0.2209  0.0506 -0.3004
10466W        W53560  23.883  26.119  19.508 -0.1254  0.0533  0.0482
10467W        W53561  22.818  26.521  17.838  0.0826 -0.1983 -0.2052
10468W        W53562  21.672  29.201  19.440  0.0465  0.0708 -0.0598
10469W        W53563  22.788  24.783  16.193  0.3608  0.0653 -0.0329
10470W        W53564  25.406  28.878  17.367  0.1109 -0.3931  0.1069
10471W        W53565  22.357  26.522  17.546 -0.0748 -0.0416 -0.1995
10472W        W53566  23.300  26.167  17.471  0.1321 -0.2187  0.1118
10473W        W53567  24.081  27.604  17.409 -0.1050 -0.1827  0.0813
10474W        W53568  25.622  28.103  16.914  0.1099 -0.1404 -0.0336
10475W        W53569  23.308  24.975  16.594  0.1061 -0.2342 -0.0507
10476W        W53570  27.027  28.925  18.731  0.1514 -0.1188 -0.0917
10477W        W53571  21.194  27.073  17.096 -0.2252  0.0281  0.2428
10478W        W53572  25.216  27.100  20.235 -0.0685 -0.1832  0.0718
10479W        W53573  23.025  25.661  19.645 -0.0273 -0.2897  0.0489
10480W        W53574  22.728  25.739  17.083  0.3347  0.0429  0.2735
10481W        W53575  24.630  27.552  17.866  0.0480  0.0598  0.0698
10482W        W53576  23.491  28.575  17.606 -0.0564 -0.2402  0.2337
10483W        W53577  24.164  28.530  17.016 -0.1260  0.0604  0.0869
10484W        W53578  22.236  27.921  17.804 -0.0116 -0.1163 -0.0486
10485W        W53579  22.383  29.588  17.955 -0.3428 -0.1460  0.3002
10486W        W53580  22.444  25.804  18.147 -0.2693 -0.2389 -0.1008
10487W        W53581  24.606  26.427  15.282  0.1419 -0.2001  0.0669
10488W        W53582  24.209  29.096  17.771  0.0315  0.2535  0.1118
10489W        W53583  24.745  27.918  16.377  0.1491 -0.0408 -0.2499
10490W        W53584  25.404  26.125  17.694 -0.0174 -0.0081 -0.0874
10491W        W53585  25.563  27.216  15.818  0.1157 -0.1648 -0.1551
10492W        W53586  22.548  24.647  19.329  0.0008 -0.2028 -0.2393
10493W        W53587  22.472  27.509  19.787 -0.1160 -0.0782  0.2480
10494W        W53588  25.598  26.763  19.131  0.0392 -0.2653  0.1480
10495W        W53589  21.997  23.387  17.140  0.0315  0.1863 -0.0955
10496W        W53590  25.216  26.135  16.980 -0.0621 -0.1007 -0.0241
10497W        W53591  23.908  28.900  17.424 -0.1695  0.0030  0.0939
10498W        W53592  22.002  26.143  18.445  0.1063  0.3121  0.1777
10499W        W53593  22.642  27.182  17.194  0.3080  0.0973 -0.0640
10500W        W53594  24.010  26.325  18.134 -0.1312 -0.0962  0.1250
10501W        W53595  25.240  28.995  18.144 -0.2585 -0.1558  0.1406
10502W        W53596  24.130  26.864  18.274 -0.3634 -0.1959  0.1521
10503W        W53597  23.725  27.178  15.372 -0.0824  0.0892  0.6421
10504W        W53598  27.598  30.224  18.837  0.0655  0.1640 -0.1698
10505W        W53599  25.291  29.337  17.209  0.1130  0.0148 -0.1009
10506W        W53600  25.843  28.316  19.721 -0.1671 -0.0836 -0.2492
10507W        W53601  23.412  27.815  19.329 -0.1473  0.3449  0.1587
10508W        W53602  23.600  27.725  17.499 -0.3733  0.0425  0.1742
10509W        W53603  21.033  26.267  19.019  0.2221  0.2299 -0.0289
10510W        W53604  23.679  28.440  16.956 -0.1304 -0.0769  0.2300
10511W        W53605  24.327  27.233  17.653 -0.2157 -0.1842  0.2016
10512W        W53606  24.897  26.415  18.412 -0.0394  0.1124 -0.4449
10513W        W53607  22.941  26.868  16.860  0.0902  0.2166 -0.1736
10514W        W53608  25.268  26.243  15.979 -0.0006 -0.1227  0.0594
10515W        W53609  23.383  28.349  19.088  0.2512 -0.0962 -0.0041
10516W        W53610  24.404  28.568  18.656  0.0384  0.3072  0.0064
10517W        W53611  24.920  27.753  22.418 -0.0047 -0.1061  0.0436
10518W        W53612  23.251  25.766  20.547  0.0495 -0.0555  0.0875
10519W        W53613  24.390  26.336  20.432  0.1503  0.0493 -0.0791
10520W        W53614  25.138  28.333  20.901 -0.0675  0.1306 -0.4677
10521W        W53615  22.080  26.620  20.728 -0.1657 -0.1064  0.0329
10522W        W53616  25.096  28.645  21.300 -0.0947  0.1355 -0.0474
10523W        W53617  23.201  25.674  23.653 -0.2506 -0.2480  0.2337
10524W        W53618  25.161  29.082  21.730 -0.1626  0.2123 -0.2377
10525W        W53619  25.793  29.238  21.874 -0.1687  0.0808  0.0529
10526W        W53620  24.150  26.675  17.770 -0.1285 -0.0688 -0.0990
10527W        W53621  25.794  27.422  23.456 -0.4177  0.1710 -0.1132
10528W        W53622  23.811  28.394  22.314 -0.0484  0.0856 -0.1665
10529W        W53623  23.447  25.509  21.088 -0.0656  0.2902 -0.0114
10530W        W53624  24.463  26.159  22.317 -0.0668 -0.1494  0.2893
10531W        W53625  25.307  27.596  22.102 -0.1608 -0.2538 -0.0040
10532W        W53626  21.383  26.993  19.947 -0.2760  0.1371 -0.2683
10533W        W53627  23.982  26.369  22.764 -0.2261  0.1779 -0.1240
10534W        W53628  23.140  26.065  21.362  0.0849 -0.0863  0.1485
10535W        W53629  23.556  29.626  21.257  0.3221  0.1030  0.0342
10536W        W53630  23.820  26.853  22.960 -0.1130  0.1006 -0.0454
10537W        W53631  24.765  25.567  22.833 -0.1143  0.3603 -0.0454
10538W        W53632  24.093  29.149  20.640  0.0667 -0.1689 -0.0179
10539W        W53633  23.118  26.137  19.876 -0.1437 -0.1259  0.0274
10540W        W53634  22.509  27.669  21.115  0.0496  0.1887 -0.2291
10541W        W53635  23.887  27.511  22.580  0.1433 -0.0860 -0.2836
10542W        W53636  24.980  27.087  21.462 -0.0605 -0.0538 -0.1913
10543W        W53637  24.776  27.188  20.536 -0.0489 -0.2703  0.0750
10544W        W53638  24.755  27.388  23.175  0.0861 -0.2683  0.2415
10545W        W53639  23.409  29.340  22.144  0.1250 -0.1330 -0.0437
10546W        W53640  25.185  27.509  23.447 -0.1688  0.0440  0.1728
10547W        W53641  21.437  27.589  21.338 -0.0108  0.0059  0.1257
10548W        W53642  21.804  29.432  21.915 -0.2611 -0.1029  0.2659
10549W        W53643  23.033  27.089  20.519  0.2818 -0.3568  0.0400
10550W        W53644  24.681  28.565  21.994 -0.1762 -0.0083  0.1515
10551W        W53645  24.690  29.792  23.283 -0.0832  0.0602 -0.0839
10552W        W53646  24.193  27.121  22.729 -0.1708  0.1155 -0.3169
10553W        W53647  22.442  27.650  20.353  0.0937 -0.2373 -0.1356
10554W        W53648  24.216  27.241  22.244 -0.2849 -0.0867 -0.0774
10555W        W53649  23.288  26.802  22.718 -0.0506  0.1869  0.0112
10556W        W53650  25.186  27.210  22.543 -0.0659 -0.1496  0.1737
10557W        W53651  23.969  27.197  21.557 -0.0409 -0.1934  0.1546
10558W        W53652  21.668  28.095  19.872  0.4599  0.2063 -0.2158
10559W        W53653  23.929  28.178  21.234  0.0545 -0.0882 -0.2675
10560W        W53654  24.168  27.973  24.320  0.1486  0.0943  0.0665
10561W        W53655  23.169  28.643  22.613  0.2404  0.0840  0.1457
10562W        W53656  25.528  25.327  23.742 -0.1572 -0.3524  0.2694
10563W        W53657  20.889  28.109  20.520  0.0608 -0.1329 -0.0445
10564W        W53658  22.896  27.682  19.500  0.0202  0.0992  0.3374
10565W        W53659  23.464  26.477  21.047  0.1312  0.0840 -0.2106
10566W        W53660  24.410  26.061  19.955 -0.0612  0.2492 -0.0894
10567W        W53661  24.359  25.763  22.628 -0.0385  0.1377 -0.2467
10568W        W53662  23.730  29.510  23.344 -0.2559 -0.0226  0.0311
10569W        W53663  24.895  27.276  22.202 -0.1320  0.0452  0.4105
10570W        W53664  25.026  28.614  22.757  0.0390 -0.0111  0.0857
10571W        W53665  22.601  26.590  20.006 -0.3300  0.0099 -0.1812
10572W        W53666  25.112  27.670  22.842  0.1679 -0.1004  0.0041
10573W        W53667  22.979  26.811  22.368 -0.3067  0.1663 -0.1919
10574W        W53668  22.761  25.665  22.027 -0.2228 -0.0649  0.0610
10575W        W53669  22.739  29.655  20.005  0.1090 -0.2839 -0.0093
10576W        W53670  23.965  29.521  21.594 -0.3582  0.2907  0.2636
10577W        W53671  23.244  27.871  19.841  0.0886 -0.2305 -0.0150
10578W        W53672  20.598  27.654  21.158 -0.1109  0.2026 -0.4935
10579W        W53673  22.825  26.392  23.120 -0.0315 -0.1441  0.1777
10580W        W53674  24.353  26.557  24.302 -0.2505 -0.2666 -0.0094
10581W        W53675  22.114  26.331  19.752 -0.0409 -0.0940  0.3328
10582W        W53676  25.621  28.944  25.285  0.0417  0.0425 -0.5001
10583W        W53677  23.617  28.648  22.747 -0.2001 -0.0035 -0.3718
10584W        W53678  25.454  26.852  21.548 -0.3566 -0.0670  0.1842
10585W        W53679  23.687  27.278  22.139 -0.0834 -0.4703  0.0300
10586W        W53680  25.534  28.635  23.074 -0.3953  0.2482  0.6768
10587W        W53681  24.037  26.897  20.302 -0.0650 -0.2852 -0.0844
10588W        W53682  25.118  26.460  21.701  0.0851 -0.3114  0.1628
10589W        W53683  25.468  24.620  21.060 -0.3503  0.0200 -0.0327
10590W        W53684  23.183  26.534  20.635  0.1385 -0.0075  0.3609
10591W        W53685  23.907  26.860  21.916  0.0888  0.0199 -0.1452
10592W        W53686  26.994  29.210  22.808 -0.1304  0.1679 -0.3420
10593W        W53687  25.072  27.528  19.464  0.0792 -0.1767  0.2708
10594W        W53688  22.881  28.488  22.136  0.1769  0.3685  0.2429
10595W        W53689  23.593  25.396  23.694  0.0478  0.1154 -0.1511
10596W        W53690  24.336  27.988  23.335 -0.1373  0.0473  0.4897
10597W        W53691  22.139  27.189  19.023 -0.0197 -0.0131 -0.2325
10598W        W53692  21.891  27.692  22.178 -0.2682  0.2893  0.0676
10599W        W53693  22.615  27.155  20.194 -0.0902 -0.1212  0.2564
10600W        W53694  23.011  24.475  22.841  0.0233  0.0427 -0.0851
10601W        W53695  24.726  28.323  21.333 -0.1919  0.0627  0.1163
10602W        W53696  25.259  26.002  20.216 -0.1687  0.0238 -0.1352
10603W        W53697  23.232  26.647  23.348 -0.0217  0.1216 -0.0580
10604W        W53698  25.340  24.363  21.499 -0.1030 -0.1418 -0.0125
10605W        W53699  22.355  26.890  21.258  0.1346  0.0799 -0.1949
10606W        W53700  25.107  26.924  20.777 -0.0087  0.0694  0.3017
10607W        W53701  25.400  26.289  19.859  0.1313  0.0224  0.3235
10608W        W53702  24.896  28.857  18.518 -0.1805 -0.2571  0.1432
10609W        W53703  22.662  28.962  21.825 -0.1669 -0.2786  0.2125
10610W        W53704  23.073  26.607  21.378 -0.0596 -0.0237 -0.1616
10611W        W53705  22.023  25.934  22.079 -0.1594 -0.1269 -0.0329
10612W        W53706  23.291  26.103  23.356  0.3010  0.1712 -0.0489
10613W        W53707  25.219  28.877  24.032 -0.1083  0.2418 -0.0546
10614W        W53708  24.355  25.977  19.471  0.0588 -0.1925 -0.3811
10615W        W53709  23.216  27.896  21.872  0.1562 -0.1040 -0.0731
10616W        W53710  23.748  25.613  22.161 -0.1141  0.1909 -0.1754
10617W        W53711  22.719  26.682  20.970  0.0230  0.2548 -0.2495
10618W        W53712  25.939  25.000  22.963  0.0910  0.1868 -0.0475
10619W        W53713  25.329  29.524  21.492  0.1095 -0.0858 -0.1081
10620W        W53714  25.697  30.895  23.772 -0.1673 -0.1225 -0.1552
10621W        W53715  25.494  28.722  21.732 -0.0177  0.0607 -0.0802
10622W        W53716  23.899  26.815  22.475 -0.1485  0.1250 -0.1107
10623W        W53717  22.927  25.713  21.049 -0.2288  0.1544 -0.1837
10624W        W53718  22.687  28.220  22.550  0.1343  0.1703 -0.2869
10625W        W53719  24.271  27.497  21.771 -0.2113 -0.4882 -0.1207
10626W        W53720  23.857  25.544  22.816 -0.0370  0.1482 -0.2231
10627W        W53721  24.979  29.595  21.880  0.1164  0.2106 -0.1692
10628W        W53722  23.993  26.670  18.889 -0.0408 -0.1306  0.1428
10629W        W53723  23.113  26.307  22.145 -0.0758  0.0405  0.0744
10630W        W53724  25.948  27.321  22.919  0.0352  0.0390 -0.0160
10631W        W53725  24.659  29.059  21.897  0.1313  0.0591  0.0997
10632W        W53726  25.447  28.001  20.889 -0.0073 -0.0115 -0.0244
10633W        W53727  23.296  25.605  20.064  0.1845 -0.0627 -0.3103
10634W        W53728  25.478  30.003  22.401  0.0679  0.2267 -0.1350
10635W        W53729  23.838  27.445  20.585  0.2775  0.2538 -0.0322
10636W        W53730  22.746  27.240  21.008  0.2708  0.0955 -0.0290
10637W        W53731  24.808  28.876  20.982  0.0707 -0.0204 -0.3398
10638W        W53732  24.529  27.865  21.562  0.3622 -0.1187  0.3923
10639W        W53733  23.356  27.412  24.102  0.5314 -0.2254  0.0588
10640W        W53734  24.650  26.619  23.592 -0.3793  0.0129  0.1666
10641W        W53735  21.635  27.766  19.430 -0.2273 -0.1666  0.0601
10642W        W53736  22.810  27.719  22.339 -0.0666  0.2404  0.2585
10643W        W53737  23.938  25.271  20.097  0.3139  0.0227 -0.0325
10644W        W53738  26.152  26.621  19.336 -0.0146  0.2365  0.2830
10645W        W53739  25.018  27.948  24.459 -0.3258  0.1766 -0.1260
10646W        W53740  23.723  26.603  19.430  0.1661 -0.0454  0.0042
10647W        W53741  24.869  26.479  18.898  0.1532  0.1555  0.1912
10648W        W53742  24.648  26.397  19.613 -0.0186 -0.1472  0.0096
10649W        W53743  24.263  28.291  23.892 -0.0895 -0.1065  0.1402
10650W        W53744  24.593  27.831  20.407  0.1803  0.2199  0.0508
10651W        W53745  24.663  26.938  21.056 -0.1547 -0.0508 -0.0256
10652W        W53746  22.085  26.262  21.157  0.1794 -0.1654  0.1876
10653W        W53747  25.864  28.083  21.176 -0.3184  0.2382  0.0545
10654W        W53748  21.840  28.484  22.899  0.1207 -0.2099  0.1161
10655W        W53749  25.089  27.069  24.435 -0.3476 -0.0979 -0.1195
10656W        W53750  23.542  29.127  20.731  0.0285 -0.2325 -0.2514
10657W        W53751  26.110  25.699  22.960  0.1465  0.0781 -0.1788
10658W        W53752  22.516  27.305  19.314  0.2601  0.1184 -0.2206
10659W        W53753  25.015  24.801  21.582  0.3673 -0.1450 -0.3050
10660W        W53754  22.225  28.981  20.245 -0.0969  0.2478 -0.1157
10661W        W53755  25.284  26.758  22.249 -0.1588 -0.2640 -0.0301
10662W        W53756  24.928  26.178  22.569  0.4382 -0.1611 -0.1837
10663W        W53757  23.736  25.034  23.007 -0.1137  0.1074  0.1374
10664W        W53758  25.419  27.082  23.548 -0.0162  0.1068 -0.0321
10665W        W53759  24.399  27.384  18.991  0.2145  0.5036 -0.1938
10666W        W53760  25.635  26.427  21.852  0.0956  0.4396 -0.1856
10667W        W53761  21.421  27.314  19.586 -0.0881  0.3091  0.2573
10668W        W53762  24.654  27.626  23.655 -0.0089  0.0094  0.1060
10669W        W53763  21.888  26.719  23.700 -0.0090  0.1234 -0.1651
10670W        W53764  24.096  28.718  22.633  0.1176 -0.3952 -0.0400
10671W        W53765  25.476  29.001  22.780  0.0084  0.1959 -0.2573
10672W        W53766  24.048  27.983  21.737  0.0260  0.2596  0.1104
10673W        W53767  24.395  26.209  23.776 -0.1812 -0.1883 -0.1785
10674W        W53768  22.619  25.341  21.093 -0.2210 -0.2610  0.1984
10675W        W53769  23.294  29.302  21.506 -0.2274  0.1066  0.1085
10676W        W53770  23.055  28.323  20.076  0.2257 -0.0794  0.0050
10677W        W53771  23.432  24.775  21.965 -0.3343 -0.4834 -0.1818
10678W        W53772  24.466  29.567  21.894  0.3031 -0.0040  0.1533
10679W        W53773  24.161  28.273  20.390 -0.2715  0.3962  0.0651
10680W        W53774  25.967  28.953  22.601  0.0003  0.0534 -0.0081
10681W        W53775  22.359  28.838  21.504  0.4570  0.0397 -0.2644
10682W        W53776  25.166  25.268  21.645 -0.3266  0.2098 -0.2410
10683W        W53777  21.422  27.782  21.937 -0.0127 -0.2239  0.0507
10684W        W53778  23.551  26.078  20.775  0.3076  0.0547 -0.1205
10685W        W53779  21.700  26.967  18.471  0.2612 -0.2092  0.1261
10686W        W53780  23.739  26.566  20.576  0.0285  0.0723 -0.2904
10687W        W53781  25.020  28.095  20.394 -0.0109  0.1825 -0.1053
10688W        W53782  23.476  24.462  22.962 -0.0731 -0.0649 -0.0704
10689W        W53783  23.474  26.569  21.735 -0.1559 -0.2641 -0.1864
10690W        W53784  21.752  27.459  21.752  0.1595 -0.1110  0.1235
10691W        W53785  24.264  27.419  23.166  0.0860 -0.0566 -0.0042
10692W        W53786  24.399  26.303  19.059 -0.0001 -0.0371 -0.0751
10693W        W53787  25.528  30.385  23.686 -0.0961  0.1879  0.0396
10694W        W53788  23.350  26.349  23.806  0.0576 -0.4570 -0.0016
10695W        W53789  22.971  24.810  19.626 -0.1037 -0.3214 -0.3215
10696W        W53790  24.838  26.821  21.902 -0.1107 -0.1313 -0.1325
10697W        W53791  24.145  26.568  21.628 -0.2234  0.0225 -0.0428
10698W        W53792  22.168  26.930  20.301  0.1455 -0.1198  0.2918
10699W        W53793  24.548  28.877  23.111 -0.0782 -0.0456  0.0409
10700W        W53794  23.092  27.390  21.362  0.1094 -0.1073 -0.3106
10701W        W53795  22.375  29.435  21.814 -0.1004 -0.3086 -0.5837
10702W        W53796  24.554  27.762  24.509  0.2198  0.0921 -0.0939
10703W        W53797  25.520  29.044  23.383 -0.1293 -0.1284  0.5799
10704W        W53798  24.793  26.824  22.414 -0.1706  0.0354  0.1594
10705W        W53799  22.526  25.401  22.872  0.0142 -0.1633  0.2192
10706W        W53800  24.546  26.428  21.881  0.0155  0.2064 -0.0154
10707W        W53801  24.585  28.058  22.122  0.1264  0.0342  0.3845
10708W        W53802  23.721  26.007  23.814 -0.2437 -0.1284  0.1696
10709W        W53803  24.526  28.290  24.486  0.0444 -0.0618 -0.0845
10710W        W53804  25.173  24.969  22.102  0.1001 -0.2229  0.1441
10711W        W53805  25.586  28.757  19.495 -0.0843  0.0330 -0.0585
10712W        W53806  25.653  26.184  24.464 -0.1599  0.0652  0.0933
10713W        W53807  22.297  27.301  20.675 -0.1441 -0.0535  0.0572
10714W        W53808  22.043  28.450  22.372 -0.0982  0.2553 -0.3177
10715W        W53809  22.703  28.085  20.546  0.1599 -0.2941  0.0701
10716W        W53810  24.610  27.357  22.611 -0.3003 -0.1948  0.1573
10717W        W53811  23.033  25.465  23.006 -0.2653  0.0763  0.0328
10718W        W53812  21.542  27.619  19.945  0.1497 -0.3287 -0.1965
10719W        W53813  23.104  27.270  22.563  0.1685 -0.0655 -0.2099
10720W        W53814  24.849  26.368  20.096  0.1892  0.0445 -0.2764
10721W        W53815  24.027  27.079  19.151 -0.0864 -0.0228 -0.1759
10722W        W53816  23.353  26.870  19.649  0.2057  0.1098 -0.2452
10723W        W53817  24.881  26.507  22.993  0.1412  0.1079  0.1191
10724W        W53818  22.496  28.033  19.194  0.1822  0.1029  0.1457
10725W        W53819  23.879  25.421  24.140 -0.0404 -0.0092  0.1346
10726W        W53820  22.512  26.076  22.003  0.0003 -0.0018 -0.3023
10727W        W53821  23.694  27.007  20.941  0.0244  0.1301 -0.0102
10728W        W53822  22.106  27.245  22.208 -0.0086  0.1237 -0.3915
10729W        W53823  25.602  29.840  23.745  0.0544 -0.1486 -0.2013
10730W        W53824  23.967  26.990  23.422 -0.0673 -0.2421  0.0469
10731W        W53825  24.204  25.947  20.741  0.1476 -0.2055  0.0691
10732W        W53826  21.986  27.495  21.124  0.4755  0.1696 -0.0174
10733W        W53827  24.504  27.329  21.306 -0.0497  0.2398 -0.1217
10734W        W53828  23.947  28.650  21.925  0.2282  0.1054  0.1202
10735W        W53829  23.663  27.403  21.217  0.0866  0.1043 -0.0255
10736W        W53830  24.121  27.244  20.951 -0.1806  0.1555  0.0927
10737W        W53831  23.490  25.579  23.188 -0.2473 -0.1932 -0.2085
10738W        W53832  24.086  28.734  21.385 -0.1636 -0.1317 -0.0041
10739W        W53833  23.589  26.336  19.841  0.1960 -0.2564  0.3154
10740W        W53834  23.620  27.821  20.925 -0.0444  0.0471  0.3418
10741W        W53835  25.155  26.724  23.998 -0.1013  0.0041  0.1344
10742W        W53836  25.339  28.225  21.394  0.0298 -0.0444 -0.2437
10743W        W53837  24.795  26.153  21.338 -0.1010  0.2402  0.2599
10744W        W53838  22.330  25.271  23.672 -0.0436  0.1429  0.0068
10745W        W53839  24.668  26.956  22.928  0.0176 -0.0795  0.2908
10746W        W53840  24.997  26.972  23.313 -0.0728 -0.0742 -0.1961
10747W        W53841  22.104  26.076  22.580 -0.2781 -0.1435 -0.0593
10748W        W53842  26.653  30.674  23.778  0.2051 -0.1599 -0.1875
10749W        W53843  23.784  27.083  19.650 -0.3525 -0.3064 -0.1406
10750W        W53844  25.069  27.795  23.909 -0.0100 -0.2205 -0.3306
10751W        W53845  25.657  26.921  20.055 -0.2648 -0.0332 -0.2916
10752W        W53846  23.929  25.710  19.864  0.1446 -0.0443 -0.1273
10753W        W53847  22.880  25.421  22.478  0.0067  0.0617 -0.0548
10754W        W53848  25.812  27.992  25.155  0.0079  0.2497 -0.0301
10755W        W53849  21.474  25.247  20.559 -0.2597 -0.2465  0.3080
10756W        W53850  25.291  25.804  22.465 -0.0638  0.0576 -0.1705
10757W        W53851  25.521  27.844  20.395 -0.1480 -0.2450  0.2146
10758W        W53852  24.310  29.000  21.043  0.2853 -0.2126 -0.0864
10759W        W53853  24.329  27.372  20.321  0.0942  0.0269 -0.3591
10760W        W53854  23.791  26.529  23.296  0.0244 -0.1937  0.2111
10761W        W53855  24.598  28.611  24.067  0.1295 -0.0398  0.0981
10762W        W53856  21.929  27.261  19.517  0.2878  0.1831 -0.1310
10763W        W53857  24.115  28.437  19.745  0.1863  0.0113 -0.0109
10764W        W53858  24.374  29.122  22.717  0.2572  0.3272 -0.0668
10765W        W53859  26.006  28.729  23.181 -0.0482  0.0300  0.1208
10766W        W53860  22.863  27.565  20.592 -0.2464  0.0477 -0.0864
10767W        W53861  24.236  24.814  23.303 -0.0999 -0.4518 -0.0708
10768W        W53862  21.972  27.028  20.990  0.3220 -0.3922 -0.2673
10769W        W53863  24.180  26.137  21.373 -0.1778  0.0052  0.0762
10770W        W53864  22.867  29.701  22.901  0.0911  0.0835 -0.2134
10771W        W53865  22.541  26.445  22.564  0.1024 -0.2458 -0.0066
10772W        W53866  24.068  28.735  20.476  0.1325  0.2095 -0.1109
10773W        W53867  23.366  25.386  22.639 -0.1183 -0.0123  0.1546
10774W        W53868  24.775  27.421  21.740  0.0486 -0.0245  0.0494
10775W        W53869  24.342  26.547  23.189  0.1327  0.0225 -0.0251
10776W        W53870  25.204  28.582  23.625  0.0385 -0.0313  0.0666
10777W        W53871  25.162  29.592  22.550 -0.4918  0.2764  0.1055
10778W        W53872  23.312  27.405  20.821  0.0229 -0.0148 -0.2517
10779W        W53873  25.797  29.956  22.775 -0.0330 -0.1119  0.1115
10780W        W53874  25.263  27.102  21.916  0.1849  0.0404  0.0519
10781W        W53875  22.488  26.980  22.516 -0.0135 -0.0562 -0.1405
10782W        W53876  22.812  25.328  23.433  0.2471  0.0044 -0.1077
10783W        W53877  25.077  28.385  24.100  0.1829 -0.0385  0.2631
10784W        W53878  24.257  29.589  21.075  0.1161  0.1040 -0.0645
10785W        W53879  23.691  25.646  21.560 -0.0344  0.0452  0.1640
10786W        W53880  23.051  28.169  19.508  0.1209  0.3141 -0.0297
10787W        W53881  23.819  27.873  22.134  0.0521  0.1317 -0.0261
10788W        W53882  21.260  27.561  22.912 -0.1886  0.3062 -0.2052
10789W        W53883  23.988  31.428  19.376  0.0330  0.0434  0.0097
10790W        W53884  24.840  27.864  19.101 -0.3175  0.0778 -0.0763
10791W        W53885  23.379  27.426  19.676  0.1047 -0.0616  0.1390
10792W        W53886  25.685  30.979  22.798  0.0155  0.1291 -0.2853
10793W        W53887  23.175  26.919  21.013 -0.2334 -0.0748 -0.1825
10794W        W53888  22.833  28.334  20.975  0.2930 -0.0941  0.0971
10795W        W53889  20.661  28.381  20.145 -0.0952  0.0873  0.1274
10796W        W53890  25.866  27.744  20.782 -0.3117  0.0679  0.4232
10797W        W53891  23.407  29.734  21.712 -0.2412 -0.0825  0.0460
10798W        W53892  25.414  29.503  22.085 -0.0338 -0.0190 -0.0166
10799W        W53893  24.916  25.999  19.784  0.1691 -0.1750  0.1063
10800W        W53894  25.283  26.477  22.661  0.0551 -0.2322  0.1167
10801W        W53895  25.291  26.569  20.343 -0.2336  0.3001  0.4250
10802W        W53896  25.192  29.637  23.335 -0.3474 -0.0722  0.1972
10803W        W53897  23.665  26.145  21.435  0.0106  0.0889 -0.1264
10804W        W53898  23.973  26.403  20.996 -0.1932 -0.2684 -0.1668
10805W        W53899  23.217  28.353  23.965 -0.0226 -0.2384 -0.1808
10806W        W53900  26.089  25.743  22.316 -0.1782 -0.0090  0.1324
10807W        W53901  22.371  27.574  23.359 -0.1096  0.1361 -0.2993
10808W        W53902  24.861  29.037  19.941  0.0427 -0.2219 -0.1985
10809W        W53903  22.897  26.621  19.554 -0.2309  0.0734 -0.2945
10810W        W53904  23.337  28.390  21.029 -0.0145 -0.1904  0.0883
10811W        W53905  26.855  27.193  23.270  0.1124 -0.0648  0.1739
10812W        W53906  22.982  27.554  18.693 -0.0835  0.2543  0.0250
10813W        W53907  24.910  26.055  21.909  0.2189 -0.2021 -0.1450
10814W        W53908  23.484  28.747  22.179 -0.1349  0.0718  0.1951
10815W        W53909  23.034  27.824  20.996 -0.1437 -0.4043  0.0494
10816W        W53910  23.797  28.546  23.811 -0.4410 -0.0440 -0.0760
10817W        W53911  22.914  26.221  21.741  0.2098 -0.2632 -0.1142
10818W        W53912  26.023  26.311  21.223 -0.2058 -0.0238 -0.0214
10819W        W53913  23.735  28.032  22.605  0.1531  0.2691 -0.1232
10820W        W53914  24.558  26.082  22.931  0.0885  0.2150 -0.0425
10821W        W53915  22.210  28.990  22.080 -0.0255  0.2928  0.3469
10822W        W53916  25.014  27.769  20.751 -0.0169 -0.0321 -0.2739
10823W        W53917  25.653  28.348  23.870  0.0373 -0.3204  0.2039
10824W        W53918  24.220  26.949  23.836  0.1473 -0.3181  0.1559
10825W        W53919  24.483  26.478  20.984  0.2164 -0.0202  0.2444
10826W        W53920  25.953  29.320  24.503  0.0732 -0.1517 -0.3551
10827W        W53921  22.763  27.755  17.931  0.0922  0.3779  0.1174
10828W        W53922  25.543  30.093  24.319  0.0361  0.0777  0.0374
10829W        W53923  24.273  25.637  23.095  0.2289  0.0452 -0.1572
10830W        W53924  24.195  26.822  21.225 -0.2217 -0.2687 -0.2686
10831W        W53925  23.071  28.349  21.515 -0.0166 -0.0518  0.1113
10832W        W53926  23.444  27.075  21.613  0.0757 -0.4579 -0.1561
10833W        W53927  26.371  30.060  22.953 -0.1252 -0.0145  0.1795
10834W        W53928  23.729  25.725  20.317 -0.3905 -0.1046 -0.0931
10835W        W53929  25.858  28.373  20.207  0.1003 -0.1990  0.4463
10836W        W53930  24.908  27.890  23.286 -0.3572 -0.0767  0.2760
10837W        W53931  23.437  27.946  21.382 -0.0679 -0.1850 -0.1230
10838W        W53932  24.292  28.448  21.051  0.2330 -0.1354 -0.1105
10839W        W53933  23.359  29.081  22.645 -0.1215 -0.1834 -0.3627
10840W        W53934  22.525  25.953  22.913  0.1061  0.0310 -0.1747
10841W        W53935  27.181  30.552  22.693 -0.0445  0.1592  0.5538
10842W        W53936  25.832  28.185  23.423  0.1169 -0.1329  0.0791
10843W        W53937  24.964  26.804  19.868  0.1893 -0.1779 -0.0617
10844W        W53938  23.393  27.074  23.141 -0.2559 -0.1148  0.0711
10845W        W53939  22.901  27.179  19.669  0.0332 -0.2767  0.1830
10846W        W53940  23.575  26.134  22.012  0.1071 -0.1245  0.2402
10847W        W53941  26.554  25.744  23.337  0.2765 -0.2033  0.0172
10848W        W53942  23.941  30.374  20.565  0.2514  0.0239 -0.1124
10849W        W53943  25.411  24.875  24.409  0.0835  0.5240 -0.0244
10850W        W53944  24.799  28.165  22.603  0.1001 -0.0268 -0.1298
10851W        W53945  22.376  29.185  23.490  0.1071 -0.1419  0.1430
10852W        W53946  21.524  27.372  20.876  0.1819 -0.0725 -0.3018
10853W        W53947  23.386  25.924  22.532 -0.2545  0.2535  0.2926
10854W        W53948  23.862  28.738  20.931 -0.0613  0.0452 -0.0749
10855W        W53949  23.225  28.822  21.736  0.0439  0.1526  0.0574
10856W        W53950  26.300  29.424  21.768  0.1977 -0.0483  0.0127
10857W        W53951  24.315  28.355  21.615 -0.3278 -0.0735  0.0171
10858W        W53952  25.728  28.821  22.162  0.1779  0.1569  0.0301
10859W        W53953  24.450  26.998  21.640 -0.0485  0.2451 -0.0448
10860W        W53954  24.331  26.822  20.675 -0.1317 -0.2384  0.0138
10861W        W53955  23.986  26.372  22.132  0.0019  0.1683  0.1093
10862W        W53956  23.085  26.959  23.776 -0.0785  0.0646 -0.2870
10863W        W53957  22.147  25.813  19.876  0.0130  0.0738 -0.0551
10864W        W53958  23.513  27.095  20.448 -0.2207 -0.1355 -0.2545
10865W        W53959  22.098  27.974  20.546  0.0773 -0.0348 -0.0799
10866W        W53960  23.521  25.864  24.725  0.2164  0.3246 -0.0582
10867W        W53961  24.705  26.970  24.135  0.2506  0.1161  0.2366
10868W        W53962  23.438  26.827  22.150  0.1818  0.1708 -0.0596
10869W        W53963  21.703  27.922  21.591 -0.0002 -0.1786 -0.1690
10870W        W53964  25.338  28.394  19.850  0.0218 -0.3707  0.2240
10871W        W53965  23.040  26.373  22.660 -0.0684 -0.0540  0.1588
10872W        W53966  23.085  24.708  22.326  0.0690  0.0139  0.2242
10873W        W53967  24.520  26.860  20.168 -0.3830  0.0667 -0.0522
10874W        W53968  26.407  27.749  21.127 -0.0145  0.2040 -0.2145
10875W        W53969  24.786  26.615  20.555 -0.0933  0.0862  0.0671
10876W        W53970  26.287  29.369  25.758  0.0031  0.0444  0.1278
10877W        W53971  21.856  28.869  20.563 -0.0508  0.5401  0.2563
10878W        W53972  24.385  26.597  22.699 -0.1526  0.0275  0.0068
10879W        W53973  23.899  24.548  22.728 -0.1928 -0.0871 -0.0023
10880W        W53974  22.744  25.447  18.471  0.2500  0.0235 -0.2229
10881W        W53975  25.635  25.461  22.499  0.0346  0.1930  0.0394
10882W        W53976  24.740  30.037  21.804 -0.0080 -0.4002 -0.0956
10883W        W53977  24.313  27.179  19.888  0.0269 -0.0999  0.3370
10884W        W53978  24.198  27.779  23.829 -0.0489 -0.0538  0.1050
10885W        W53979  25.322  29.957  21.839 -0.0645  0.0401 -0.0408
10886W        W53980  21.624  24.965  22.012  0.0013  0.2234  0.1255
10887W        W53981  24.918  27.875  19.924  0.0856  0.3002 -0.3283
10888W        W53982  24.832  27.481  24.241  0.0967  0.3501  0.0822
10889W        W53983  24.965  28.065  21.747 -0.0189 -0.1309 -0.2173
10890W        W53984  25.784  26.033  22.546 -0.0032  0.0108  0.0384
10891W        W53985  23.541  27.544  21.753  0.0014  0.1306  0.4170
10892W        W53986  22.646  23.083  24.090 -0.0387 -0.3090  0.2255
10893W        W53987  23.716  28.066  23.906 -0.0991  0.1244 -0.1857
10894W        W53988  26.014  27.287  22.421  0.1975 -0.0333 -0.2602
10895W        W53989  23.648  25.182  21.767 -0.0205  0.2619  0.0443
10896W        W53990  24.509  27.556  20.805 -0.0041 -0.0315 -0.3319
10897W        W53991  24.635  28.401  20.587  0.0930 -0.0688 -0.1458
10898W        W53992  24.107  27.825  22.883  0.1280 -0.1943 -0.3005
10899W        W53993  23.532  26.399  22.447  0.0112  0.0484 -0.1031
10900W        W53994  24.821  28.514  23.238 -0.0753  0.1228 -0.3562
10901W        W53995  25.886  28.234  22.932 -0.2079 -0.0933 -0.0325
10902W        W53996  25.425  28.055  22.650  0.2630  0.3127 -0.0535
10903W        W53997  22.212  26.390  20.318  0.2160  0.1344  0.1339
10904W        W53998  25.026  27.575  20.304 -0.2460 -0.1298 -0.3282
10905W        W53999  25.790  30.440  24.676 -0.0773  0.2045  0.3452
10906W        W54000  27.023  28.941  25.728  0.0007  0.1854  0.0550
10907W        W54001  25.311  29.037  22.281 -0.1944 -0.1936 -0.1877
10908W        W54002  23.773  28.278  20.776 -0.0319  0.1477  0.2089
10909W        W54003  22.627  26.249  21.205 -0.1746 -0.0251 -0.0557
10910W        W54004  24.123  27.675  21.259  0.2054  0.1303 -0.2899
10911W        W54005  23.462  28.045  23.060 -0.0501  0.1295  0.0449
10912W        W54006  26.774  25.518  22.097  0.0216 -0.1901 -0.2285
10913W        W54007  23.734  26.754  21.372 -0.1593  0.0621  0.0612
10914W        W54008  24.237  26.709  19.456  0.0319  0.3860 -0.1708
10915W        W54009  23.843  29.404  23.883  0.1775 -0.1163 -0.1968
10916W        W54010  24.217  28.214  22.482 -0.0859  0.2486  0.2913
10917W        W54011  22.818  29.314  25.948 -0.2288 -0.2453  0.2257
10918W        W54012  23.358  26.781  24.198 -0.3422  0.1970 -0.0805
10919W        W54013  24.906  25.697  24.432 -0.1107 -0.0146 -0.3242
10920W        W54014  24.742  27.707  25.739 -0.1788 -0.0228 -0.0223
10921W        W54015  22.060  25.721  25.383  0.1497  0.0657  0.3089
10922W        W54016  26.568  29.972  24.571  0.2875 -0.1951 -0.0803
10923W        W54017  23.165  24.444  28.296 -0.0585  0.1630  0.2313
10924W        W54018  25.606  28.501  25.743 -0.0997 -0.1834  0.1431
10925W        W54019  25.109  29.154  26.350 -0.4587  0.1333  0.0175
10926W        W54020  25.123  29.139  23.651 -0.3727  0.3690  0.0835
10927W        W54021  23.296  26.250  26.420 -0.1179 -0.0598 -0.1015
10928W        W54022  22.541  28.041  25.171 -0.1450 -0.4626 -0.1574
10929W        W54023  22.240  26.707  26.257  0.0454 -0.1200  0.0386
10930W        W54024  22.656  24.534  26.712  0.2712  0.3690  0.1771
10931W        W54025  24.364  27.326  26.869 -0.1078  0.1311 -0.1382
10932W        W54026  21.902  28.260  23.794  0.1860  0.2789 -0.2908
10933W        W54027  21.135  26.787  26.979 -0.2208 -0.0112  0.1281
10934W        W54028  23.825  27.155  25.833 -0.2943 -0.0876  0.0985
10935W        W54029  23.242  29.567  25.701  0.1798 -0.2236  0.0570
10936W        W54030  22.201  28.504  25.920 -0.1658  0.0807 -0.1982
10937W        W54031  24.064  25.817  26.002 -0.3255 -0.1241  0.1286
10938W        W54032  24.712  28.797  24.534 -0.3902 -0.0878 -0.2880
10939W        W54033  23.665  27.671  24.813 -0.0897  0.0062  0.3196
10940W        W54034  21.208  26.890  25.508 -0.0521  0.0924  0.1144
10941W        W54035  22.503  27.009  27.180  0.2070  0.1435 -0.0022
10942W        W54036  25.036  26.846  24.845  0.1945  0.0230  0.1531
10943W        W54037  25.414  26.803  25.272 -0.0013  0.3195  0.0014
10944W        W54038  21.584  28.547  26.461 -0.0090 -0.0676  0.1606
10945W        W54039  24.231  27.995  24.815  0.5241 -0.0440  0.0018
10946W        W54040  24.204  27.095  27.633 -0.0555  0.0397 -0.1141
10947W        W54041  22.434  28.191  27.326 -0.0574 -0.2392  0.0397
10948W        W54042  21.106  29.202  23.614  0.1637  0.2738 -0.0027
10949W        W54043  24.720  28.230  23.668  0.2231 -0.2561 -0.1767
10950W        W54044  25.915  27.970  24.658 -0.0896 -0.0143  0.1243
10951W        W54045  22.801  29.829  25.810  0.0160 -0.1083  0.0396
10952W        W54046  22.635  30.884  27.008 -0.0330  0.0486  0.3739
10953W        W54047  23.091  28.854  24.554 -0.2161  0.4614 -0.0981
10954W        W54048  21.988  27.108  28.033 -0.0392 -0.2433 -0.0187
10955W        W54049  21.822  28.085  25.765  0.0626 -0.0833  0.0957
10956W        W54050  23.229  28.461  28.422  0.1000  0.0130  0.0998
10957W        W54051  21.638  28.492  25.347  0.1051  0.1231  0.0937
10958W        W54052  25.622  28.953  24.787 -0.1728 -0.1563  0.0845
10959W        W54053  22.689  27.355  24.694 -0.2110 -0.2347 -0.0212
10960W        W54054  23.456  27.231  27.103  0.1072 -0.3258 -0.0514
10961W        W54055  22.582  28.483  25.584 -0.2952 -0.3558 -0.0015
10962W        W54056  25.222  25.855  28.620  0.1886 -0.1449 -0.1684
10963W        W54057  23.657  29.741  24.185 -0.1800 -0.1357  0.2187
10964W        W54058  25.597  25.783  24.154  0.3338  0.0016  0.0170
10965W        W54059  24.626  25.654  23.814  0.1657  0.0519 -0.1385
10966W        W54060  25.188  25.826  23.829  0.1686 -0.3161 -0.0703
10967W        W54061  22.219  26.039  25.011 -0.3168  0.0091 -0.0073
10968W        W54062  20.788  29.154  26.374 -0.0061  0.0924  0.0673
10969W        W54063  23.459  27.147  26.255  0.0218 -0.0614  0.2034
10970W        W54064  23.895  29.200  26.859  0.0924 -0.2972 -0.3042
10971W        W54065  24.661  28.858  23.599 -0.1857 -0.0324  0.1286
10972W        W54066  22.914  27.153  26.937 -0.2181  0.0606  0.1319
10973W        W54067  23.668  28.806  27.401 -0.1867 -0.0721 -0.0378
10974W        W54068  21.859  26.531  24.183 -0.0435  0.0136 -0.2182
10975W        W54069  26.703  30.011  22.592 -0.0161 -0.0057  0.0528
10976W        W54070  24.232  27.507  25.869  0.2419  0.0924 -0.1303
10977W        W54071  24.674  29.534  22.819  0.2902  0.2373 -0.3407
10978W        W54072  20.894  26.128  24.916  0.0227 -0.2103 -0.1706
10979W        W54073  21.174  27.281  26.985 -0.1561 -0.0326 -0.0415
10980W        W54074  23.012  28.037  28.623  0.1584 -0.0150  0.0930
10981W        W54075  23.100  25.255  23.819  0.2489 -0.0477 -0.1716
10982W        W54076  24.577  28.560  27.345 -0.3161 -0.1583 -0.0214
10983W        W54077  21.795  29.430  27.053 -0.1299  0.2888  0.1510
10984W        W54078  24.507  27.306  25.459 -0.1247  0.2954  0.0704
10985W        W54079  23.645  29.360  25.987 -0.0896 -0.0460 -0.2277
10986W        W54080  25.322  29.030  25.926 -0.4356 -0.1689  0.1559
10987W        W54081  26.454  29.255  23.751  0.2305  0.1907  0.0097
10988W        W54082  24.651  27.274  25.957  0.0652 -0.2203  0.1069
10989W        W54083  22.725  27.034  26.038 -0.0812 -0.0970 -0.2248
10990W        W54084  24.769  29.073  24.133  0.0889  0.2409  0.0312
10991W        W54085  23.555  28.549  24.302 -0.0918  0.0027  0.2662
10992W        W54086  24.954  29.651  27.036 -0.0014  0.2621 -0.0871
10993W        W54087  26.100  28.910  24.922  0.0833  0.0771  0.0108
10994W        W54088  21.375  29.391  26.852 -0.4076  0.0808 -0.0306
10995W        W54089  22.227  28.133  26.699  0.2326  0.2618 -0.3290
10996W        W54090  23.258  28.041  26.671  0.2269  0.3716 -0.0036
10997W        W54091  23.000  29.819  24.381  0.3015 -0.0078  0.0825
10998W        W54092  21.619  28.521  25.854 -0.1551  0.0927  0.0782
10999W        W54093  21.456  27.584  24.246  0.0174 -0.1907  0.2610
11000W        W54094  20.920  26.095  25.924 -0.3094 -0.1255 -0.0355
11001W        W54095  22.261  29.019  25.809 -0.0302 -0.0704 -0.0441
11002W        W54096  24.105  26.807  26.041  0.0721 -0.2926 -0.1478
11003W        W54097  21.252  25.563  26.473 -0.0009 -0.2510  0.0629
11004W        W54098  24.287  25.985  25.487  0.0314  0.3712  0.1902
11005W        W54099  22.390  27.530  25.341 -0.0201  0.0542 -0.2198
11006W        W54100  24.798  28.996  25.977 -0.0811 -0.1074  0.0216
11007W        W54101  25.673  27.013  24.776 -0.0845 -0.3722 -0.1826
11008W        W54102  24.422  29.917  21.411  0.0875  0.0098 -0.0461
11009W        W54103  22.541  26.205  26.092  0.0426 -0.3387  0.0258
11010W        W54104  23.069  27.139  25.142 -0.2330 -0.2153  0.0801
11011W        W54105  23.029  28.179  29.163  0.1255 -0.0818  0.2393
11012W        W54106  22.522  27.491  25.903 -0.0078 -0.1095  0.2509
11013W        W54107  25.453  25.836  26.360 -0.0924  0.1853 -0.0517
11014W        W54108  22.348  25.467  24.161  0.2505 -0.3507  0.1149
11015W        W54109  24.559  27.034  24.611 -0.0095 -0.2206 -0.0861
11016W        W54110  23.816  28.187  24.702 -0.0821 -0.2016  0.2012
11017W        W54111  21.855  26.793  24.605  0.1798 -0.1069  0.1731
11018W        W54112  24.338  26.659  27.394 -0.0426  0.0569  0.0722
11019W        W54113  24.390  29.379  25.463  0.1309 -0.2582 -0.1089
11020W        W54114  25.214  30.490  26.786  0.3315 -0.1572 -0.3818
11021W        W54115  26.491  28.742  24.649  0.0334  0.1572 -0.0670
11022W        W54116  23.224  27.313  28.472 -0.2492  0.0508 -0.1686
11023W        W54117  21.297  26.428  24.781 -0.1301  0.1973 -0.2708
11024W        W54118  23.410  29.298  24.338  0.1337  0.0195  0.0973
11025W        W54119  23.026  28.563  25.824  0.0221  0.1188 -0.2795
11026W        W54120  23.879  25.896  24.266  0.0547 -0.0592  0.0301
11027W        W54121  25.894  27.584  25.472 -0.1437 -0.1226  0.0484
11028W        W54122  23.744  28.382  25.434 -0.0816  0.2984 -0.1017
11029W        W54123  22.337  27.982  25.734  0.1302  0.0141  0.0385
11030W        W54124  24.394  26.333  27.006  0.0243  0.1665  0.0737
11031W        W54125  26.198  27.108  25.603 -0.2246 -0.2692 -0.0872
11032W        W54126  24.534  28.224  25.846  0.1189  0.0520 -0.4321
11033W        W54127  23.361  27.337  23.539 -0.1836  0.1893 -0.2250
11034W        W54128  23.551  28.412  26.460 -0.0027 -0.0250 -0.0770
11035W        W54129  23.433  29.144  24.790 -0.2430  0.1386  0.0416
11036W        W54130  20.659  28.207  25.445 -0.0660  0.0525 -0.0228
11037W        W54131  25.506  28.159  24.728  0.1936  0.3009  0.3051
11038W        W54132  25.070  27.053  25.807  0.3208  0.1602  0.1386
11039W        W54133  23.036  28.669  26.765 -0.1266  0.0890  0.1338
11040W        W54134  23.905  25.864  27.628 -0.1061 -0.1823  0.1379
11041W        W54135  23.020  26.019  23.931  0.1117 -0.1276 -0.3409
11042W        W54136  21.288  28.894  27.284 -0.3232  0.0441 -0.2240
11043W        W54137  22.574  26.497  25.232 -0.0319 -0.0570  0.1419
11044W        W54138  25.616  25.825  23.058 -0.1004  0.1559 -0.0546
11045W        W54139  23.709  27.570  27.455  0.2319 -0.3156 -0.1476
11046W        W54140  25.209  27.526  25.579 -0.1819 -0.1584 -0.0316
11047W        W54141  24.146  27.468  24.572 -0.0498  0.0721 -0.1845
11048W        W54142  24.139  25.765  23.813 -0.0026 -0.0014  0.0508
11049W        W54143  22.371  28.554  26.446  0.0668  0.3020  0.2651
11050W        W54144  24.362  28.915  25.383 -0.1350 -0.0706 -0.2645
11051W        W54145  23.522  28.630  25.853  0.0753  0.1637  0.2296
11052W        W54146  23.365  27.549  25.220 -0.2284 -0.0837  0.0163
11053W        W54147  25.500  28.513  24.342  0.1432 -0.0325  0.1493
11054W        W54148  22.890  28.049  25.676 -0.2383  0.0577  0.0018
11055W        W54149  24.069  28.743  28.982  0.1870  0.3481  0.0518
11056W        W54150  25.293  29.252  25.165 -0.1292  0.4393  0.0141
11057W        W54151  24.113  25.474  27.319  0.0028 -0.1699  0.1635
11058W        W54152  23.679  27.277  24.496  0.0024 -0.0038 -0.0823
11059W        W54153  22.877  26.572  26.211  0.0509  0.1111 -0.0520
11060W        W54154  22.456  28.199  22.983  0.1830  0.0061 -0.1755
11061W        W54155  24.478  26.404  24.759  0.0094 -0.0705 -0.1350
11062W        W54156  23.142  26.846  26.539 -0.5750 -0.1399  0.1104
11063W        W54157  23.167  25.891  27.926  0.0361  0.2572 -0.0311
11064W        W54158  24.285  27.802  26.849  0.2011  0.1511 -0.0122
11065W        W54159  26.080  27.543  24.976 -0.0110  0.0513  0.2267
11066W        W54160  23.633  26.687  26.371 -0.1104 -0.1685  0.4714
11067W        W54161  22.704  27.442  24.198  0.0302  0.1217  0.0289
11068W        W54162  22.474  25.862  26.763  0.2318  0.3260 -0.1677
11069W        W54163  22.936  27.867  26.265  0.0797  0.0303  0.0645
11070W        W54164  21.500  29.781  25.971 -0.1364 -0.0237 -0.2113
11071W        W54165  24.556  30.924  27.325 -0.1131 -0.0543 -0.3825
11072W        W54166  25.022  27.504  24.753  0.1096 -0.2289  0.1237
11073W        W54167  23.279  26.323  28.840 -0.2984 -0.1371  0.1656
11074W        W54168  22.890  25.582  24.192 -0.2873  0.0980  0.0596
11075W        W54169  23.511  28.902  25.382  0.1523 -0.1871  0.0563
11076W        W54170  24.428  28.319  22.926 -0.0412 -0.4135 -0.0735
11077W        W54171  22.293  25.560  26.399 -0.0981 -0.1074  0.1822
11078W        W54172  22.393  29.513  25.840  0.1929 -0.2132  0.0073
11079W        W54173  24.227  28.511  23.435 -0.1600  0.1766 -0.2345
11080W        W54174  24.332  28.314  28.176 -0.1608  0.1265 -0.3106
11081W        W54175  24.098  28.611  25.736 -0.0277  0.1703 -0.0717
11082W        W54176  25.733  25.513  26.125 -0.5514 -0.0085  0.0328
11083W        W54177  21.162  28.662  25.600 -0.3258 -0.0844 -0.0156
11084W        W54178  22.884  26.548  24.114 -0.0480 -0.3333 -0.0194
11085W        W54179  22.529  27.359  26.677  0.2782  0.2418  0.0912
11086W        W54180  23.468  27.991  25.585  0.1653  0.0130  0.1995
11087W        W54181  26.409  29.898  23.658 -0.0874  0.1172 -0.4738
11088W        W54182  22.071  26.305  25.937 -0.1839 -0.2197  0.0504
11089W        W54183  22.928  25.604  26.880  0.0810 -0.0819  0.1788
11090W        W54184  21.024  29.130  27.692 -0.1716 -0.2233  0.0194
11091W        W54185  23.995  27.945  27.383 -0.4961  0.0203  0.1460
11092W        W54186  25.418  26.604  24.563 -0.0368  0.0137 -0.0281
11093W        W54187  24.316  28.337  26.932 -0.1293 -0.0827  0.2883
11094W        W54188  21.951  26.774  27.331  0.0784 -0.0841  0.0615
11095W        W54189  22.387  26.767  23.491 -0.1718  0.1181 -0.1378
11096W        W54190  23.347  27.492  26.637  0.1259  0.2798 -0.0377
11097W        W54191  23.089  27.552  25.783  0.1054  0.4131 -0.1516
11098W        W54192  22.887  28.080  24.258  0.1891 -0.0548  0.0692
11099W        W54193  23.773  28.677  26.911 -0.1380  0.0479 -0.2834
11100W        W54194  23.713  27.499  23.039  0.1218 -0.2715  0.0893
11101W        W54195  22.249  28.064  23.464  0.0973  0.4866 -0.2054
11102W        W54196  23.526  26.263  27.206 -0.0800  0.0609 -0.0686
11103W        W54197  24.741  27.869  26.822  0.0996  0.0098  0.2369
11104W        W54198  22.500  26.386  26.589  0.2623 -0.0293 -0.3239
11105W        W54199  22.426  26.164  25.547 -0.1145  0.0885  0.1355
11106W        W54200  24.182  27.945  26.239  0.0746 -0.0074 -0.1762
11107W        W54201  24.223  28.830  26.591 -0.0563 -0.0442  0.3383
11108W        W54202  23.176  26.400  25.883 -0.1927  0.1897  0.0344
11109W        W54203  23.044  29.359  28.655  0.0693 -0.0690  0.2200
11110W        W54204  23.363  25.910  26.867  0.1045  0.0365 -0.0464
11111W        W54205  24.839  29.787  25.416 -0.0645  0.0158  0.3714
11112W        W54206  25.619  26.893  27.661  0.0222 -0.1467 -0.4415
11113W        W54207  23.378  27.915  24.426 -0.2500 -0.0992  0.0952
11114W        W54208  21.795  27.240  26.686  0.0052  0.6528 -0.2204
11115W        W54209  23.000  28.963  25.558 -0.1237  0.2035  0.1463
11116W        W54210  22.800  25.446  26.305  0.2997  0.1194 -0.1051
11117W        W54211  21.795  28.975  26.054 -0.1885 -0.0198 -0.2464
11118W        W54212  23.812  28.846  24.639 -0.0050  0.1773 -0.0429
11119W        W54213  22.212  27.156  26.126  0.2050 -0.1699  0.0736
11120W        W54214  25.204  26.098  24.268 -0.1412 -0.2773 -0.1997
11121W        W54215  25.445  29.499  22.935 -0.0385 -0.1215  0.1412
11122W        W54216  22.994  27.094  24.277 -0.2212  0.0443 -0.1242
11123W        W54217  23.876  26.402  27.662 -0.0781 -0.0465  0.3935
11124W        W54218  24.093  28.035  25.689  0.0012  0.1155  0.0375
11125W        W54219  24.439  26.671  28.396 -0.1387  0.0988  0.0995
11126W        W54220  22.831  26.016  26.470 -0.1644 -0.2282  0.3129
11127W        W54221  25.314  28.045  25.875 -0.0550 -0.1606 -0.0344
11128W        W54222  21.333  27.527  24.880  0.2059  0.2640 -0.3728
11129W        W54223  24.344  30.285  27.003  0.0955  0.0361 -0.0012
11130W        W54224  23.295  27.920  27.574 -0.0228 -0.0813 -0.2625
11131W        W54225  22.636  25.714  24.606  0.1295  0.1041  0.0527
11132W        W54226  23.109  26.493  24.534  0.0378 -0.2618  0.0903
11133W        W54227  22.985  27.379  26.246  0.0877  0.2673 -0.1760
11134W        W54228  24.886  28.158  25.504 -0.2963 -0.2523 -0.3112
11135W        W54229  23.620  26.748  23.696  0.0849 -0.0593  0.0738
11136W        W54230  26.497  26.764  25.357 -0.0168 -0.1475 -0.0731
11137W        W54231  22.043  27.926  25.246 -0.2390 -0.0114 -0.2907
11138W        W54232  26.065  26.569  25.547 -0.2494  0.3653  0.3259
11139W        W54233  23.913  27.436  23.520  0.0488 -0.1811  0.3204
11140W        W54234  23.093  28.360  24.629 -0.2501  0.1545  0.0395
11141W        W54235  23.092  24.846  26.982 -0.5459  0.2223 -0.1234
11142W        W54236  24.458  27.109  26.417 -0.0027 -0.0394  0.0281
11143W        W54237  26.346  29.620  23.257  0.1016  0.0468  0.1976
11144W        W54238  23.332  26.270  28.338  0.1051  0.0850 -0.0901
11145W        W54239  22.697  26.919  26.518  0.0727  0.0070 -0.1799
11146W        W54240  22.602  28.211  26.064 -0.0084 -0.2292 -0.2474
11147W        W54241  22.047  27.621  28.355 -0.1608 -0.0675 -0.1207
11148W        W54242  24.130  28.872  27.640  0.0507  0.1029 -0.2804
11149W        W54243  25.155  25.597  23.395 -0.2244 -0.1154 -0.0018
11150W        W54244  23.135  26.350  26.875  0.2255 -0.0442  0.0679
11151W        W54245  24.782  26.620  25.223 -0.0799 -0.0025  0.1164
11152W        W54246  25.808  28.007  25.721  0.1142 -0.1809  0.1527
11153W        W54247  21.021  25.316  25.546 -0.0643 -0.0474  0.1994
11154W        W54248  24.985  27.678  28.042  0.0416 -0.1795  0.1542
11155W        W54249  22.335  26.035  23.440  0.2529  0.1688  0.2083
11156W        W54250  24.546  25.835  27.179  0.0301  0.1096  0.0494
11157W        W54251  24.299  28.475  24.845  0.0726  0.0487  0.0387
11158W        W54252  23.779  27.605  25.579  0.0602  0.1804 -0.2853
11159W        W54253  25.406  27.365  25.079 -0.1936  0.1118 -0.0711
11160W        W54254  22.144  28.948  26.508  0.2279  0.0149  0.1900
11161W        W54255  20.358  29.361  26.928  0.1761  0.0647  0.2358
11162W        W54256  22.546  25.757  23.836  0.1921 -0.3726 -0.1837
11163W        W54257  24.358  27.384  24.138  0.1899  0.1982 -0.1318
11164W        W54258  23.923  28.750  26.216 -0.2382  0.2734 -0.0049
11165W        W54259  23.981  29.205  27.973 -0.0666  0.1978  0.0366
11166W        W54260  24.906  26.280  23.868 -0.2100 -0.0953  0.2403
11167W        W54261  23.895  27.078  27.249  0.1128  0.1865  0.1207
11168W        W54262  22.747  29.121  24.267  0.0247 -0.0923 -0.0179
11169W        W54263  24.461  26.836  25.667 -0.2372 -0.0031 -0.2488
11170W        W54264  23.495  29.814  26.780 -0.1783  0.4590  0.1310
11171W        W54265  21.623  28.974  25.008  0.1053  0.0218  0.1094
11172W        W54266  22.799  27.861  24.718  0.0657  0.0214 -0.0523
11173W        W54267  25.422  25.251  25.851  0.2111 -0.2285  0.1833
11174W        W54268  24.256  27.475  27.314  0.0594 -0.1978  0.1038
11175W        W54269  23.647  26.367  25.433  0.2110 -0.3861 -0.2242
11176W        W54270  26.127  27.338  26.896  0.1070  0.2079  0.3243
11177W        W54271  23.987  29.711  26.219 -0.1897 -0.0544 -0.3122
11178W        W54272  23.956  26.689  24.969  0.1748 -0.0434 -0.2512
11179W        W54273  24.877  27.945  26.130 -0.0020 -0.2822 -0.4496
11180W        W54274  25.368  27.902  25.322  0.1278 -0.0874 -0.0404
11181W        W54275  21.983  27.505  25.700 -0.0163  0.0223  0.1485
11182W        W54276  20.597  27.878  28.121 -0.1616 -0.0243 -0.2122
11183W        W54277  22.757  27.865  28.116 -0.1157 -0.2839 -0.2298
11184W        W54278  24.414  27.751  25.314  0.2608 -0.1993 -0.1296
11185W        W54279  21.763  25.861  24.956  0.0791  0.1292  0.2159
11186W        W54280  24.653  29.618  24.097  0.1541 -0.1319 -0.0885
11187W        W54281  21.445  28.857  27.847 -0.2065  0.0857  0.0191
11188W        W54282  22.531  28.579  26.904 -0.1272 -0.1101  0.1208
11189W        W54283  22.103  29.827  24.119 -0.1828  0.3388  0.0679
11190W        W54284  24.985  29.146  25.519 -0.1561  0.0259 -0.1351
11191W        W54285  25.551  27.534  24.650  0.0515 -0.1672  0.0320
11192W        W54286  24.040  28.370  26.539  0.1843  0.1420  0.0568
11193W        W54287  22.526  27.013  25.128 -0.2363  0.0478  0.2217
11194W        W54288  22.245  29.201  24.621 -0.0326 -0.5576 -0.1552
11195W        W54289  22.597  28.645  23.502  0.0613  0.0366  0.1116
11196W        W54290  24.723  28.601  25.070 -0.2471 -0.3147 -0.1189
11197W        W54291  21.952  27.818  24.028  0.0649 -0.3539  0.3031
11198W        W54292  23.551  29.201  28.617  0.3361 -0.1619 -0.0105
11199W        W54293  23.965  26.336  24.020  0.2994 -0.2074  0.0510
11200W        W54294  25.001  28.478  25.911  0.0799 -0.1775 -0.0197
11201W        W54295  26.132  26.296  24.515 -0.2097 -0.0619 -0.4084
11202W        W54296  24.563  28.740  28.577 -0.0857  0.0225  0.0366
11203W        W54297  23.057  28.396  25.346  0.1988 -0.0209 -0.1109
11204W        W54298  23.802  26.676  24.380 -0.2382  0.1885  0.0073
11205W        W54299  22.622  26.046  27.644 -0.0021  0.1464  0.2361
11206W        W54300  25.685  25.962  28.482  0.3487  0.0732 -0.1252
11207W        W54301  22.239  28.017  27.793  0.1458 -0.2255  0.3588
11208W        W54302  26.544  28.159  25.862 -0.2683  0.0022  0.1287
11209W        W54303  21.898  26.751  23.243 -0.0487 -0.2681  0.4014
11210W        W54304  22.845  27.622  25.200 -0.1376 -0.4049 -0.2024
11211W        W54305  25.756  24.961  26.112  0.1617  0.2858 -0.0781
11212W        W54306  23.848  27.951  23.416 -0.1093  0.1419  0.0465
11213W        W54307  24.563  28.020  27.260  0.1252  0.0603  0.1081
11214W        W54308  21.765  29.392  25.769  0.2811 -0.1147 -0.0048
11215W        W54309  22.981  28.424  26.295  0.1065 -0.0660 -0.3154
11216W        W54310  22.835  27.700  26.793  0.0463  0.0668  0.2087
11217W        W54311  21.821  26.337  24.779 -0.0310 -0.1103  0.1545
11218W        W54312  24.008  27.445  26.415 -0.0239  0.1026  0.2613
11219W        W54313  22.060  27.223  27.122  0.1894  0.1951  0.0585
11220W        W54314  24.989  26.011  26.990 -0.1383 -0.0657  0.2641
11221W        W54315  23.481  28.638  24.949 -0.2066 -0.2946 -0.2670
11222W        W54316  24.045  27.340  25.259 -0.1895  0.2669  0.1547
11223W        W54317  23.345  28.137  26.065  0.1143  0.0988  0.0050
11224W        W54318  21.599  27.198  25.646  0.0557 -0.0687  0.1084
11225W        W54319  24.931  26.155  24.729 -0.1594  0.0671 -0.0397
11226W        W54320  25.171  28.730  25.523 -0.1728  0.1760  0.0954
11227W        W54321  24.874  26.586  24.440 -0.1154  0.0986  0.3300
11228W        W54322  23.074  29.734  27.309 -0.0485 -0.0220  0.0650
11229W        W54323  21.939  27.401  25.258 -0.1845 -0.2834  0.0015
11230W        W54324  25.310  26.534  23.574  0.3493  0.0985  0.4959
11231W        W54325  21.388  26.574  24.318 -0.0691  0.1924  0.1669
11232W        W54326  22.858  27.980  27.197 -0.1323 -0.3384 -0.1869
11233W        W54327  24.885  28.596  28.218  0.0059  0.0270  0.1216
11234W        W54328  22.505  24.763  24.388  0.1054  0.2674 -0.0933
11235W        W54329  25.819  28.770  23.652  0.1045  0.1761 -0.0591
11236W        W54330  23.477  27.863  27.108 -0.1649  0.0604  0.2063
11237W        W54331  24.213  28.817  23.858  0.1578 -0.1381  0.0542
11238W        W54332  25.985  28.463  25.340 -0.0282 -0.2716  0.0838
11239W        W54333  25.045  30.026  26.747  0.0436  0.2833 -0.0354
11240W        W54334  21.956  26.810  25.843  0.1188 -0.1362 -0.0755
11241W        W54335  24.051  29.728  27.045 -0.3051  0.2653 -0.0494
11242W        W54336  26.669  28.511  25.576 -0.2108  0.0497 -0.2005
11243W        W54337  22.650  26.060  24.277  0.0054  0.3101  0.0432
11244W        W54338  22.785  27.215  25.592 -0.1979  0.1323  0.0157
11245W        W54339  22.737  27.902  23.351  0.0661 -0.0152  0.4005
11246W        W54340  25.155  26.161  28.006 -0.0531  0.0845  0.0237
11247W        W54341  23.919  26.583  27.153  0.2942  0.0794  0.1023
11248W        W54342  24.182  29.975  22.662  0.0647 -0.0479 -0.1935
11249W        W54343  25.044  25.012  27.039 -0.1301  0.0659  0.1568
11250W        W54344  23.467  29.448  27.069  0.0641 -0.1535  0.1358
11251W        W54345  21.811  30.150  29.495 -0.3428 -0.2070  0.1448
11252W        W54346  21.708  27.271  24.601 -0.5461 -0.1774  0.1172
11253W        W54347  23.875  27.532  26.952  0.0548 -0.1393 -0.0527
11254W        W54348  23.383  28.090  25.021  0.1061  0.2481  0.0975
11255W        W54349  23.920  29.177  25.128 -0.1782 -0.1415  0.2890
11256W        W54350  24.363  28.259  25.293  0.0949 -0.3419 -0.2074
11257W        W54351  24.575  27.387  24.932  0.2219 -0.1823 -0.2446
11258W        W54352  26.333  28.884  25.640  0.1379 -0.0773 -0.2223
11259W        W54353  23.019  25.879  26.012 -0.3408  0.3927  0.0368
11260W        W54354  26.669  26.749  23.495 -0.0726 -0.4110 -0.3204
11261W        W54355  22.391  26.585  24.095 -0.0338  0.0121 -0.1878
11262W        W54356  23.178  26.878  25.951  0.1321 -0.0714 -0.0176
11263W        W54357  24.102  28.558  24.310 -0.0703  0.0383  0.1140
11264W        W54358  21.560  28.134  24.196  0.0147 -0.0029 -0.0571
11265W        W54359  22.273  27.743  24.835 -0.0225 -0.1601  0.3303
11266W        W54360  24.077  26.076  28.108 -0.0172  0.0861 -0.0469
11267W        W54361  21.994  25.715  26.750 -0.2845  0.1835 -0.1141
11268W        W54362  21.100  26.790  23.936  0.3990 -0.1300 -0.2791
11269W        W54363  22.655  26.347  24.719 -0.0773 -0.1540  0.0812
11270W        W54364  26.050  29.007  24.031  0.0238  0.1278 -0.2677
11271W        W54365  22.829  24.066  26.409 -0.1847 -0.2397  0.1994
11272W        W54366  21.118  24.700  25.705  0.2432  0.0858 -0.0188
11273W        W54367  24.642  29.288  23.250  0.0463 -0.1320 -0.0484
11274W        W54368  25.116  29.132  24.646  0.0944  0.1186  0.2988
11275W        W54369  23.468  26.727  25.175 -0.1983 -0.0640  0.1952
11276W        W54370  23.913  30.054  26.648 -0.0201  0.0850  0.0329
11277W        W54371  22.610  26.330  23.732 -0.0923  0.1946  0.1063
11278W        W54372  23.322  27.302  27.694 -0.2017  0.4039  0.1966
11279W        W54373  23.299  27.642  28.885  0.1738 -0.3108 -0.0713
11280W        W54374  22.309  25.602  23.266 -0.2462  0.1090 -0.0289
11281W        W54375  23.422  26.363  27.793  0.4006 -0.0101  0.2006
11282W        W54376  24.269  28.972  24.822 -0.2668 -0.2843 -0.2853
11283W        W54377  25.722  29.392  25.053  0.0184  0.0915  0.2208
11284W        W54378  23.842  28.279  26.012 -0.2004  0.0207  0.1272
11285W        W54379  22.646  28.788  26.076  0.1000  0.2489 -0.0210
11286W        W54380  21.242  24.901  26.360 -0.0294 -0.1098 -0.2892
11287W        W54381  25.002  27.220  23.859  0.0825  0.1947  0.0061
11288W        W54382  23.376  28.413  27.037 -0.0002  0.1399  0.0990
11289W        W54383  25.127  29.404  24.163 -0.2688  0.0017  0.3632
11290W        W54384  25.179  26.283  26.488  0.2857 -0.0653 -0.1508
11291W        W54385  22.609  27.835  23.841  0.0212  0.5120  0.0263
11292W        W54386  21.835  25.730  26.311  0.0716  0.1719 -0.1414
11293W        W54387  21.144  27.091  27.451  0.2202 -0.0674  0.0411
11294W        W54388  26.462  27.102  25.042  0.0494 -0.1508  0.0161
11295W        W54389  23.311  26.950  24.645 -0.2026  0.0652  0.2169
11296W        W54390  24.686  27.558  26.403 -0.0656  0.0758 -0.0331
11297W        W54391  25.238  28.726  25.028  0.1581  0.0574 -0.1580
11298W        W54392  21.767  27.246  27.590 -0.2526  0.2004 -0.1320
11299W        W54393  24.644  27.935  24.079 -0.0368  0.0551 -0.1851
11300W        W54394  23.040  27.534  27.247 -0.0401  0.0542 -0.0301
11301W        W54395  22.103  28.382  25.422  0.0810 -0.2085  0.1044
11302W        W54396  25.623  27.390  27.468  0.0971  0.0150 -0.2182
11303W        W54397  24.540  27.084  23.464  0.4279 -0.1799  0.2848
11304W        W54398  25.547  27.476  23.907 -0.0923 -0.1651 -0.0969
11305W        W54399  23.135  29.247  27.433  0.0696 -0.0305  0.0734
11306W        W54400  24.771  27.540  27.210 -0.0681  0.2516 -0.0984
11307W        W54401  22.220  29.664  24.764 -0.0477  0.2168 -0.3831
11308W        W54402  24.792  28.110  25.023 -0.1393  0.1307  0.0639
11309W        W54403  22.154  27.552  28.834  0.1823  0.0067 -0.0388
11310W        W54404  23.171  27.486  24.645  0.2256 -0.2381 -0.1613
11311W        W54405  21.597  27.727  25.320 -0.1446 -0.1269  0.0445
11312W        W54406  23.758  26.556  28.136  0.0508 -0.0393  0.0699
11313W        W54407  24.082  26.377  25.769 -0.0103 -0.0197 -0.3210
11314W        W54408  23.604  26.636  25.868  0.2526  0.0906 -0.1323
11315W        W54409  22.590  29.004  26.681 -0.2114 -0.0934 -0.0662
11316W        W54410  24.221  28.891  27.110  0.1573 -0.1111 -0.2370
11317W        W54411  22.889  27.373  31.745 -0.2378 -0.2126  0.0311
11318W        W54412  22.664  26.804  29.154  0.1089  0.2211 -0.1275
11319W        W54413  24.418  25.194  25.987 -0.2392 -0.0942  0.1700
11320W        W54414  25.670  27.387  29.524  0.1197 -0.1386  0.0340
11321W        W54415  21.429  25.851  29.021 -0.0444  0.0403 -0.1580
11322W        W54416  23.416  29.657  27.768  0.0404  0.1166 -0.0849
11323W        W54417  24.359  24.788  30.924 -0.1855  0.0518 -0.2040
11324W        W54418  24.516  29.577  29.619  0.0249 -0.2880  0.0883
11325W        W54419  26.025  27.733  29.930 -0.0799 -0.0147 -0.1832
11326W        W54420  24.062  28.544  28.507 -0.0856  0.3348 -0.0297
11327W        W54421  23.593  27.464  30.900  0.1702  0.2536 -0.0779
11328W        W54422  23.441  27.521  31.796  0.1012  0.0152 -0.1047
11329W        W54423  24.614  26.056  28.049 -0.0927 -0.1623 -0.4909
11330W        W54424  23.168  24.881  28.044  0.2557  0.0671  0.4711
11331W        W54425  24.825  27.284  29.622 -0.1733  0.0748  0.1129
11332W        W54426  22.153  29.011  29.767  0.0794 -0.1744 -0.1119
11333W        W54427  23.256  26.934  29.128  0.0408  0.1172 -0.0790
11334W        W54428  22.379  26.572  28.758 -0.0491  0.1362  0.5386
11335W        W54429  22.712  29.865  28.359 -0.1003  0.2105  0.2131
11336W        W54430  23.350  26.113  31.480  0.0341 -0.2136  0.0179
11337W        W54431  22.572  26.408  31.685 -0.1923 -0.1860 -0.1155
11338W        W54432  25.156  29.313  29.728  0.1734 -0.2600 -0.0987
11339W        W54433  22.736  27.264  27.580 -0.2440 -0.0951 -0.5913
11340W        W54434  21.422  26.560  29.563  0.2729 -0.1447  0.0022
11341W        W54435  22.127  28.229  30.006 -0.1305 -0.2934  0.2274
11342W        W54436  25.592  27.598  28.890  0.3291  0.1225  0.2194
11343W        W54437  24.123  27.766  29.119  0.1270  0.0665  0.1970
11344W        W54438  23.499  28.454  29.077 -0.0691 -0.0567  0.0524
11345W        W54439  24.373  29.996  28.763 -0.1897  0.1896 -0.0259
11346W        W54440  23.600  26.646  29.905 -0.1220  0.1218 -0.2206
11347W        W54441  21.064  27.108  28.308 -0.2192 -0.0125  0.0001
11348W        W54442  20.656  27.728  28.651 -0.0955 -0.1640 -0.3761
11349W        W54443  22.847  27.580  28.755 -0.0063  0.1522  0.1804
11350W        W54444  25.788  28.917  28.367 -0.2139  0.1771 -0.2425
11351W        W54445  25.762  29.326  30.971 -0.1226 -0.3535  0.1314
11352W        W54446  22.395  30.195  31.086 -0.1203  0.1756 -0.1059
11353W        W54447  22.953  29.128  29.793  0.0406  0.2603  0.2380
11354W        W54448  24.749  29.805  30.040 -0.0159  0.2253  0.0498
11355W        W54449  22.152  29.174   0.148 -0.5587  0.4984  0.0752
11356W        W54450  25.623  28.582  30.307  0.0077 -0.2034 -0.0157
11357W        W54451  25.686  27.924  29.538 -0.0638 -0.0117  0.0674
11358W        W54452  22.420  27.533  27.980  0.1625  0.2128 -0.0459
11359W        W54453  24.868  28.327  29.482  0.0231  0.3618 -0.0854
11360W        W54454  22.381  27.084   1.000 -0.3976  0.1228 -0.0204
11361W        W54455  21.974  28.261  30.460 -0.0457 -0.0393 -0.2222
11362W        W54456  25.297  26.988  30.807 -0.1968  0.0062 -0.1457
11363W        W54457  21.474  29.316  27.549  0.1521 -0.2483  0.0538
11364W        W54458  25.043  28.142  28.327  0.0943  0.1135  0.0483
11365W        W54459  23.336  26.788  28.507  0.1433 -0.0721  0.0545
11366W        W54460  23.501  26.713  27.436 -0.1482 -0.0458  0.1440
11367W        W54461  23.449  24.785  30.033 -0.0360  0.1785 -0.4355
11368W        W54462  24.130  29.398  30.068  0.0332 -0.0356 -0.2470
11369W        W54463  22.662  26.261  29.105  0.0569  0.0182 -0.1860
11370W        W54464  24.418  29.335  30.944  0.0028  0.1768  0.1305
11371W        W54465  22.252  28.525  28.791 -0.1782  0.0244 -0.0527
11372W        W54466  24.644  26.152  30.698  0.1379  0.3042 -0.1055
11373W        W54467  23.034  27.742  30.876  0.2316  0.0201  0.0707
11374W        W54468  23.025  27.865  29.987  0.4114  0.2103  0.1891
11375W        W54469  25.402  28.365  26.910 -0.0247  0.2850  0.2085
11376W        W54470  24.813  30.323  29.994 -0.0099  0.1566 -0.0351
11377W        W54471  23.243  29.936  29.294  0.0866 -0.1510 -0.0442
11378W        W54472  22.928  27.263  28.050  0.2213  0.0293 -0.1714
11379W        W54473  23.090  27.385  30.429 -0.1361 -0.2728  0.0679
11380W        W54474  21.647  27.472  30.533 -0.2332  0.1587  0.0103
11381W        W54475  22.776  26.655  26.966  0.4291  0.1817  0.1006
11382W        W54476  25.582  28.246  31.307 -0.0602 -0.3026 -0.0884
11383W        W54477  22.731  27.639  31.337  0.2193  0.0104  0.0175
11384W        W54478  25.356  26.586  29.431  0.1411 -0.0349  0.2917
11385W        W54479  23.449  27.967  29.723 -0.1800 -0.0634  0.2771
11386W        W54480  23.283  28.787  30.294  0.1974  0.1715  0.0898
11387W        W54481  25.257  27.376  27.167 -0.0899 -0.3365 -0.1219
11388W        W54482  25.548  26.680  30.440 -0.1159  0.2119  0.0664
11389W        W54483  24.380  27.370  30.372  0.1044 -0.1148  0.3863
11390W        W54484  23.676  28.247  28.355 -0.0866  0.2725  0.1593
11391W        W54485  22.451  27.924  28.605 -0.1213  0.1666 -0.2855
11392W        W54486  25.818  29.805  30.375 -0.1985 -0.1069 -0.1876
11393W        W54487  24.470  26.865  26.942 -0.0920 -0.0006  0.0414
11394W        W54488  23.075  29.181  30.541  0.1710  0.1771  0.3242
11395W        W54489  23.066  26.491  31.825  0.2224 -0.0884  0.0760
11396W        W54490  22.495  28.882  30.714  0.0079  0.0020 -0.0920
11397W        W54491  22.352  29.048  28.022  0.1555  0.0756  0.0877
11398W        W54492  21.316  27.246  30.788 -0.2404  0.1696  0.1432
11399W        W54493  21.560  28.141  28.792  0.0202 -0.2762  0.0021
11400W        W54494  20.060  27.348  29.024  0.0260  0.1561 -0.0962
11401W        W54495  21.725  28.214  29.559  0.1124 -0.2804 -0.2645
11402W        W54496  24.331  25.608  28.435 -0.1396 -0.1914  0.1276
11403W        W54497  23.901  26.297  30.104 -0.5551  0.0915 -0.2463
11404W        W54498  24.943  26.665  28.219 -0.0740 -0.2538  0.2606
11405W        W54499  22.942  28.507  28.048  0.0229  0.0871 -0.0434
11406W        W54500  25.912  27.887  28.560 -0.1267  0.0662  0.4633
11407W        W54501  26.178  26.157  28.591 -0.4291 -0.1524  0.1184
11408W        W54502  26.277  28.018  28.906 -0.3812  0.1690  0.2476
11409W        W54503  22.556  26.522  29.621 -0.1025  0.0628  0.2549
11410W        W54504  22.964  25.883  28.926 -0.1710  0.0213 -0.2323
11411W        W54505  23.102  25.171  29.770  0.0790  0.0507 -0.0770
11412W        W54506  22.180  25.232  30.208  0.3916  0.0449  0.1348
11413W        W54507  25.137  28.667  30.547 -0.0407  0.2462  0.2279
11414W        W54508  22.488  24.881  27.006  0.1550 -0.0411 -0.0670
11415W        W54509  24.521  27.591  29.368 -0.1625 -0.3350  0.2636
11416W        W54510  23.090  27.023  27.374  0.0727  0.0135  0.0637
11417W        W54511  20.563  28.129  30.339  0.2165  0.2734 -0.0069
11418W        W54512  24.965  25.200  31.258  0.2750 -0.0122 -0.0833
11419W        W54513  24.736  28.259  27.824 -0.1203 -0.1481  0.1480
11420W        W54514  25.009  30.327  30.461  0.0311 -0.1581 -0.0125
11421W        W54515  24.791  28.776  30.170  0.1656  0.1523  0.2230
11422W        W54516  23.199  25.698  29.760 -0.0588  0.3152  0.0799
11423W        W54517  22.595  26.887  27.916  0.1096 -0.3420  0.5800
11424W        W54518  21.445  29.063  28.446 -0.2849  0.1805  0.1166
11425W        W54519  24.680  29.217  29.921 -0.2654  0.0864 -0.2079
11426W        W54520  23.756  26.705  30.620 -0.5446 -0.0979  0.1825
11427W        W54521  25.318  29.059  29.244  0.1089  0.1842 -0.1038
11428W        W54522  23.580  27.642  28.478 -0.1223  0.2493  0.0207
11429W        W54523  22.542  28.894  31.506 -0.4406  0.1279 -0.0178
11430W        W54524  23.434  28.417  29.556 -0.1783 -0.0236  0.0226
11431W        W54525  23.715  26.930  29.378 -0.0942 -0.2650  0.0427
11432W        W54526  25.316  28.138  30.487 -0.1390  0.1452  0.2566
11433W        W54527  21.628  26.105  27.132 -0.0920  0.2161 -0.3346
11434W        W54528  23.835  29.628  28.149 -0.1372 -0.1601  0.0724
11435W        W54529  23.389  28.903  28.206  0.4385 -0.6037  0.1741
11436W        W54530  20.633  27.339  28.161 -0.2408  0.1258  0.0717
11437W        W54531  23.146  28.867  29.416 -0.1420 -0.1027 -0.0679
11438W        W54532  25.565  27.029  29.158  0.1871 -0.1003  0.1481
11439W        W54533  21.385  27.929  31.887 -0.0984 -0.0347 -0.0767
11440W        W54534  24.226  27.612  31.716 -0.0142  0.0207 -0.0716
11441W        W54535  21.576  26.341  28.171  0.0319  0.1975  0.0112
11442W        W54536  21.347  28.530   0.177 -0.1875  0.3748 -0.0558
11443W        W54537  24.008  27.350  28.501  0.2063  0.0229  0.1099
11444W        W54538  25.010  27.754  29.345  0.2957 -0.1519 -0.1888
11445W        W54539  24.425  26.955  30.772  0.0381  0.0952 -0.0843
11446W        W54540  25.467  29.645  27.975  0.2662  0.2616  0.1066
11447W        W54541  24.103  27.885  28.409 -0.0285  0.0520  0.1318
11448W        W54542  24.889  26.594  27.240  0.0486  0.0448 -0.2057
11449W        W54543  22.438  28.429  30.443  0.1989  0.0836 -0.1409
11450W        W54544  25.180  28.435  30.092 -0.0812  0.0565 -0.0721
11451W        W54545  24.822  28.972  30.734  0.2776 -0.0672 -0.0633
11452W        W54546  24.570  27.454  27.685  0.0106 -0.1848 -0.4517
11453W        W54547  27.084  28.848  28.759  0.2559 -0.0133 -0.0423
11454W        W54548  24.099  27.266  29.161  0.2703 -0.2216 -0.1919
11455W        W54549  25.244  30.359  29.663 -0.2424 -0.0851  0.0331
11456W        W54550  24.316  28.841  28.117 -0.1215  0.0112 -0.1038
11457W        W54551  22.690  27.060  31.112 -0.0153 -0.1827 -0.0140
11458W        W54552  22.920  26.869  28.272  0.4225 -0.1159 -0.1383
11459W        W54553  23.643  27.234  28.847 -0.2498  0.2478 -0.2124
11460W        W54554  21.899  29.282  28.803  0.0917  0.1299 -0.0552
11461W        W54555  25.415  26.564  29.940  0.1086  0.2195  0.0565
11462W        W54556  23.542  25.807  30.293 -0.2365 -0.0499 -0.1055
11463W        W54557  24.356  26.136  30.109  0.1729 -0.5039 -0.1314
11464W        W54558  25.778  28.206   0.540 -0.0076  0.2780  0.2650
11465W        W54559  24.908  28.939  28.893  0.3035 -0.1265 -0.0843
11466W        W54560  23.658  27.161  31.299  0.1648 -0.2035  0.1074
11467W        W54561  21.445  27.346  29.215  0.0782 -0.0565 -0.2073
11468W        W54562  22.876  26.534  31.263 -0.0753  0.1662  0.0116
11469W        W54563  21.679  27.517  31.062 -0.2724  0.0709  0.0486
11470W        W54564  21.431  29.009  29.791  0.0881  0.0518 -0.0774
11471W        W54565  24.582  28.319  29.937 -0.0582  0.2993 -0.1231
11472W        W54566  24.835  28.291  30.401 -0.2161 -0.0256 -0.1855
11473W        W54567  23.836  27.212  31.787 -0.2473  0.0583  0.0101
11474W        W54568  23.600  25.672  29.529 -0.0365  0.4891 -0.0557
11475W        W54569  23.206  28.828  28.872 -0.4080 -0.0654  0.2342
11476W        W54570  22.770  28.206  26.727 -0.0730  0.0827  0.2684
11477W        W54571  23.855  25.450  30.559  0.1521 -0.1319 -0.3752
11478W        W54572  23.603  27.825  29.272 -0.0252 -0.2757 -0.0200
11479W        W54573  22.412  29.294  26.305  0.2373 -0.1391 -0.0419
11480W        W54574  23.241  27.096  31.590 -0.0316 -0.2349  0.0064
11481W        W54575  23.708  28.805  29.367 -0.1784  0.0892  0.1354
11482W        W54576  24.167  26.712  29.817 -0.1850 -0.2520  0.2933
11483W        W54577  21.714  28.574  30.008  0.0369  0.0919  0.1633
11484W        W54578  21.952  28.132  28.432 -0.1345 -0.0564 -0.0650
11485W        W54579  21.956  27.115  28.595 -0.0688  0.1415 -0.2262
11486W        W54580  24.077  26.974  28.113 -0.0596 -0.1321  0.1810
11487W        W54581  24.934  28.443  28.764  0.0592 -0.4097 -0.1700
11488W        W54582  23.393  27.854  30.534  0.2736  0.0316  0.2040
11489W        W54583  23.592  25.400  29.985 -0.2611  0.1702  0.0745
11490W        W54584  22.193  28.441  30.888 -0.2061 -0.2741 -0.1725
11491W        W54585  23.495  25.097  30.931 -0.3075  0.1385 -0.2413
11492W        W54586  24.078  26.518  28.690  0.0614 -0.0234 -0.0328
11493W        W54587  23.715  28.114  30.207 -0.0248  0.0705  0.0866
11494W        W54588  23.031  29.224   0.314 -0.2217 -0.1246  0.0563
11495W        W54589  22.050  26.436  26.980 -0.2320  0.0489  0.0683
11496W        W54590  24.520  27.932   0.131 -0.0011  0.1584  0.0175
11497W        W54591  22.724  27.136  29.658 -0.1190  0.2821  0.0769
11498W        W54592  21.224  28.248  31.097 -0.2107 -0.0393 -0.1095
11499W        W54593  23.490  28.950  30.747  0.2742  0.3511 -0.4612
11500W        W54594  22.589  27.477  27.159 -0.1742 -0.2222 -0.0862
11501W        W54595  22.387  28.981  28.616  0.3771 -0.1415  0.0032
11502W        W54596  23.552  24.778  31.268  0.1021  0.3994  0.0677
11503W        W54597  24.049  27.613  30.724  0.3063  0.3381  0.0069
11504W        W54598  23.481  26.473  29.451  0.2025  0.2603  0.0611
11505W        W54599  22.874  27.318  29.193  0.0478  0.0253  0.1758
11506W        W54600  24.641  27.994  29.092  0.0939 -0.0646 -0.1349
11507W        W54601  23.967  27.653  30.201 -0.4329 -0.0598 -0.1914
11508W        W54602  23.942  27.102  30.847 -0.1593 -0.0881  0.0418
11509W        W54603  22.226  29.251  31.580  0.0805 -0.2381  0.0341
11510W        W54604  24.393  25.877  29.577 -0.0454 -0.1252  0.1858
11511W        W54605  26.649  29.476  27.865  0.0338  0.2739  0.0949
11512W        W54606  24.417  28.083  29.560  0.2962 -0.1912 -0.2061
11513W        W54607  21.670  27.640  28.766 -0.0254  0.1837  0.0205
11514W        W54608  20.521  26.657  29.077 -0.0107  0.0739  0.2761
11515W        W54609  23.122  28.757  27.601  0.0789 -0.1994  0.4223
11516W        W54610  23.556  25.147  29.450 -0.0880  0.0257 -0.0341
11517W        W54611  22.653  27.877  29.084  0.0176 -0.3919  0.0192
11518W        W54612  23.828  28.743  28.068  0.1179  0.2625 -0.1683
11519W        W54613  20.904  28.317   0.317 -0.3289  0.1582  0.0079
11520W        W54614  25.834  25.903  27.577  0.0612  0.0093  0.0231
11521W        W54615  24.126  28.403  27.470  0.0957  0.0970  0.0940
11522W        W54616  22.457  27.147  28.898  0.1517 -0.0039  0.2479
11523W        W54617  25.023  26.466  31.219  0.0623  0.0342 -0.0460
11524W        W54618  23.487  26.750  26.918 -0.1074 -0.0434 -0.3946
11525W        W54619  24.793  26.440   0.527 -0.1373  0.0754 -0.2533
11526W        W54620  23.650  25.450  31.396  0.0634 -0.0840 -0.0438
11527W        W54621  25.055  29.247  30.311 -0.0689 -0.2277  0.0434
11528W        W54622  22.814  26.448  30.427  0.0818 -0.1403 -0.0411
11529W        W54623  23.566  28.119  31.584  0.0690  0.2485  0.1378
11530W        W54624  22.159  27.174  31.044  0.3302 -0.2209 -0.1731
11531W        W54625  23.287  28.067  28.088 -0.0652 -0.1111 -0.0709
11532W        W54626  23.732  25.470  26.331  0.2830  0.1248  0.3087
11533W        W54627  23.871  28.201  29.466  0.0429 -0.0077 -0.0085
11534W        W54628  25.425  29.596  30.676  0.0143  0.1530  0.1757
11535W        W54629  22.713  27.746  27.593  0.2390  0.6365  0.0661
11536W        W54630  24.786  26.764  29.503  0.0777  0.0943 -0.0694
11537W        W54631  21.811  28.728  29.541  0.0039 -0.0825 -0.0170
11538W        W54632  23.815  28.146  28.804 -0.0125  0.1119  0.0893
11539W        W54633  22.263  26.909  26.721  0.2140  0.0609  0.0628
11540W        W54634  22.398  27.458  29.317 -0.0329  0.1751  0.3603
11541W        W54635  23.939  24.998  30.758  0.4347  0.1393 -0.1200
11542W        W54636  24.259  29.881  30.076 -0.0775 -0.0284  0.2154
11543W        W54637  24.638  27.128  29.100 -0.2183  0.2956  0.1416
11544W        W54638  23.916  27.974  31.952 -0.1383  0.1058  0.2719
11545W        W54639  24.691  25.629  30.849  0.1742  0.0114  0.1688
11546W        W54640  23.849  27.198  30.378 -0.1353  0.0208 -0.0002
11547W        W54641  23.449  26.281  30.530  0.2438  0.0306 -0.2493
11548W        W54642  24.040  30.158  29.706 -0.1013  0.0991 -0.0604
11549W        W54643  25.803  27.940  27.370 -0.0917  0.1205  0.0630
11550W        W54644  24.717  26.952  29.965 -0.0873  0.1675 -0.2488
11551W        W54645  26.601  26.640  28.132 -0.1365  0.1605  0.1391
11552W        W54646  23.574  27.678  27.956  0.0879 -0.1757  0.4446
11553W        W54647  23.141  26.066  30.179  0.0787 -0.3259  0.2525
11554W        W54648  24.453  27.051   0.502  0.0118 -0.1247 -0.0186
11555W        W54649  23.819  25.670  26.930  0.0140  0.0864 -0.5564
11556W        W54650  24.484  27.409  30.873  0.2218 -0.0815  0.1657
11557W        W54651  22.870  28.472  27.295 -0.2620  0.1297  0.0389
11558W        W54652  25.295  29.149  28.282  0.0750 -0.0149  0.0498
11559W        W54653  24.244  28.260  29.115 -0.0324  0.2191 -0.0714
11560W        W54654  23.241  26.588  30.869  0.1238 -0.2647 -0.2542
11561W        W54655  21.407  29.278  31.355  0.0120 -0.0603 -0.0741
11562W        W54656  21.844  27.718  27.836 -0.4062 -0.1809  0.2082
11563W        W54657  22.100  26.712  28.335 -0.2643  0.3379  0.1222
11564W        W54658  24.581  28.792  29.668 -0.3417 -0.1788 -0.0606
11565W        W54659  24.946  29.232   0.077 -0.1848  0.3100 -0.0256
11566W        W54660  23.758  26.062  28.706  0.0977 -0.1494  0.1674
11567W        W54661  25.049  27.420  30.992 -0.0023 -0.1584  0.1316
11568W        W54662  21.478  29.571  28.801  0.1367 -0.2131  0.0896
11569W        W54663  23.217  26.952  29.595 -0.1034  0.0304  0.0782
11570W        W54664  22.210  28.737  31.808 -0.0327 -0.1220  0.2138
11571W        W54665  22.623  27.291  30.216 -0.1284 -0.5581  0.0258
11572W        W54666  22.798  29.041  29.076 -0.0133  0.0722  0.1983
11573W        W54667  24.263  25.861  30.519  0.0557  0.1103  0.2596
11574W        W54668  25.103  28.788  29.662  0.1571  0.0233 -0.1920
11575W        W54669  24.500  28.567  30.628  0.0397  0.1756  0.2207
11576W        W54670  25.477  28.410  30.812  0.4080 -0.1893  0.0185
11577W        W54671  24.647  30.198  30.932 -0.1032  0.0669  0.1701
11578W        W54672  23.314  26.052  29.288 -0.3162  0.0511 -0.1501
11579W        W54673  24.152  28.660  31.508  0.3884  0.0814  0.2194
11580W        W54674  26.902  29.121  28.300  0.1701 -0.0244 -0.4167
11581W        W54675  23.514  27.951  31.079 -0.4844 -0.0292  0.0205
11582W        W54676  21.581  26.243  30.949 -0.5521 -0.0288  0.2005
11583W        W54677  24.745  27.836  31.222  0.0563  0.2174 -0.2915
11584W        W54678  24.162  28.026  29.951 -0.0400 -0.1130  0.3520
11585W        W54679  21.805  26.111  27.613 -0.3484  0.0181  0.0023
11586W        W54680  25.676  29.119  29.644 -0.0624  0.0550  0.0086
11587W        W54681  20.927  29.129  31.428  0.4066  0.0525  0.0544
11588W        W54682  21.241  27.246  30.269 -0.0873  0.3732  0.5906
11589W        W54683  22.883  28.896  28.461 -0.0939  0.0564 -0.3131
11590W        W54684  25.578  27.925  28.175  0.0444 -0.2500  0.1957
11591W        W54685  25.019  27.134  28.124 -0.2528 -0.0820  0.0233
11592W        W54686  23.420  28.936  29.813  0.3732 -0.2609  0.0963
11593W        W54687  22.256  27.187  27.677 -0.2665 -0.2228  0.1615
11594W        W54688  22.749  28.852  30.300 -0.2657 -0.1721  0.1195
11595W        W54689  21.801  28.063  26.391 -0.0471  0.2655  0.2192
11596W        W54690  23.642  28.256  27.399  0.1956  0.0786  0.1162
11597W        W54691  22.952  28.665  29.855 -0.1202 -0.0542  0.0872
11598W        W54692  25.698  29.275  31.517  0.1320  0.0045  0.3197
11599W        W54693  24.725  26.462  27.743 -0.0023  0.0875 -0.0298
11600W        W54694  25.442  28.071  28.612  0.1807  0.3206 -0.0393
11601W        W54695  24.827  26.905  28.619 -0.0129  0.2705 -0.2656
11602W        W54696  25.051  29.893  30.988 -0.1879  0.3206  0.0202
11603W        W54697  24.002  27.672  29.578  0.3410 -0.2946 -0.1363
11604W        W54698  23.974  25.478  27.938  0.0139  0.1719  0.0346
11605W        W54699  22.716  28.379  31.564  0.2348  0.2125 -0.0367
11606W        W54700  24.513  25.194  31.134 -0.0146 -0.2044 -0.1163
11607W        W54701  22.338  29.147  30.221  0.2607 -0.1771 -0.0433
11608W        W54702  25.359  28.361  29.566 -0.2563  0.0442  0.0906
11609W        W54703  20.928  26.850  28.870 -0.1391  0.0928  0.1065
11610W        W54704  22.905  26.210  30.841  0.1413 -0.0171  0.2457
11611W        W54705  25.077  26.788  29.080  0.0228  0.0843  0.1141
11612W        W54706  23.893  28.165  27.874  0.3341  0.0632  0.1888
11613W        W54707  23.514  27.436  29.606 -0.0824  0.0564 -0.1786
11614W        W54708  23.908  30.246  27.265  0.1819 -0.0334 -0.3298
11615W        W54709  23.460  27.107  30.076 -0.2584 -0.2100 -0.0531
11616W        W54710  24.982  29.767  30.515  0.3874  0.0188  0.0796
11617W        W54711  21.980  24.929  27.420 -0.0417  0.1128  0.3011
11618W        W54712  25.148  27.246  29.215  0.1562  0.1480  0.0999
11619W        W54713  22.793  27.781  30.398 -0.0620  0.0604 -0.0853
11620W        W54714  24.836  25.750  29.337 -0.2237 -0.2764  0.3961
11621W        W54715  22.947  26.058  28.397  0.3571  0.0844 -0.1828
11622W        W54716  24.965  27.373  30.109 -0.1542 -0.0649 -0.2490
11623W        W54717  24.403  28.000  30.593  0.3892  0.1197 -0.2244
11624W        W54718  23.153  25.817  30.652 -0.1222  0.1136 -0.0705
11625W        W54719  22.214  26.367  27.940  0.0722 -0.1344 -0.2445
11626W        W54720  25.596  28.082  30.118 -0.1319 -0.1114  0.1785
11627W        W54721  23.915  26.974  26.634 -0.0423 -0.0354 -0.1825
11628W        W54722  23.719  29.078  30.333 -0.0133 -0.1790 -0.2685
11629W        W54723  22.871  26.528  28.714  0.0267 -0.2672 -0.0038
11630W        W54724  24.636  27.811  28.415  0.0814  0.2979 -0.1484
11631W        W54725  22.486  26.232  30.119 -0.1641  0.0324  0.0044
11632W        W54726  22.912  28.259  30.503 -0.1389  0.1792 -0.1964
11633W        W54727  27.558  29.890  30.430  0.1451  0.0912  0.2949
11634W        W54728  22.554  26.478  28.295  0.0387  0.4407  0.0081
11635W        W54729  25.197  29.365  28.789 -0.0801  0.0052 -0.3967
11636W        W54730  23.863  27.134  29.836  0.0442 -0.1604  0.0033
11637W        W54731  22.991  30.024  27.868 -0.4036  0.2053 -0.0941
11638W        W54732  25.962  28.275  29.773  0.0720 -0.2487 -0.1405
11639W        W54733  24.548  28.640  29.148  0.1122  0.1615 -0.1977
11640W        W54734  22.139  25.320  30.670 -0.0406 -0.0116 -0.2035
11641W        W54735  25.013  29.495  29.272 -0.0528 -0.0654  0.0687
11642W        W54736  26.050  27.651  29.380 -0.0858 -0.2620  0.0249
11643W        W54737  23.810  26.878  28.534  0.0071  0.0618 -0.3551
11644W        W54738  24.127  27.352  31.253 -0.0432 -0.1903  0.1608
11645W        W54739  21.382  27.730  29.570  0.1612  0.4191 -0.3161
11646W        W54740  24.907  27.237  30.584  0.3328 -0.1073  0.0095
11647W        W54741  24.178  28.556  29.531  0.1204  0.1189  0.3097
11648W        W54742  22.769  28.227  27.720 -0.1065 -0.0094 -0.2990
11649W        W54743  24.710  25.879  30.315 -0.2873  0.0751 -0.1355
11650W        W54744  23.754  28.597  29.946 -0.4065  0.1649  0.0400
11651W        W54745  23.001  29.170  31.492  0.1078  0.1377 -0.4260
11652W        W54746  22.424  28.020  29.517 -0.2864  0.1286 -0.1228
11653W        W54747  23.983  28.249  31.273 -0.0143  0.3153 -0.0430
11654W        W54748  24.628  29.169  29.255 -0.0825 -0.0638 -0.0402
11655W        W54749  24.677  30.414  27.938  0.1986 -0.0964 -0.0148
11656W        W54750  24.532  30.071  29.650 -0.2332 -0.0999 -0.0036
11657W        W54751  24.185  26.789  29.310  0.0351 -0.3385 -0.1907
11658W        W54752  25.350  28.070  29.115  0.3992 -0.0492  0.3328
11659W        W54753  23.428  25.884  27.521  0.0898 -0.1694 -0.2191
11660W        W54754  24.068  27.498  27.876  0.0264 -0.1279 -0.0940
11661W        W54755  23.659  27.256  28.187  0.0824  0.1668 -0.2436
11662W        W54756  24.186  29.004  30.488 -0.1039  0.0748 -0.0855
11663W        W54757  22.551  28.964  29.482  0.1505  0.2048  0.0847
11664W        W54758  21.968  29.951  27.753  0.1407 -0.0161  0.0607
11665W        W54759  22.309  27.779  30.171  0.3022 -0.1218 -0.2022
11666W        W54760  24.476  24.999  31.594  0.1012  0.1221  0.0009
11667W        W54761  23.248  26.684  30.298  0.1245  0.2096 -0.4280
11668W        W54762  21.888  27.158  29.097  0.2823  0.2073 -0.0625
11669W        W54763  21.619  26.864  28.290 -0.3125  0.0411 -0.0479
11670W        W54764  25.264  28.418  27.937 -0.2326  0.1068 -0.1034
11671W        W54765  23.644  26.672  28.945  0.0030 -0.2136 -0.0734
11672W        W54766  20.868  25.599  27.748 -0.3872  0.1437  0.0922
11673W        W54767  24.288  29.179  28.879  0.1004  0.0983  0.0156
11674W        W54768  25.551  28.490  28.931 -0.0132 -0.0549  0.1861
11675W        W54769  24.012  25.045  28.241 -0.1331 -0.1114 -0.2488
11676W        W54770  25.919  28.503  31.065 -0.4005  0.0205 -0.2691
11677W        W54771  22.862  29.036  27.950  0.0239  0.1054  0.1120
11678W        W54772  24.412  28.344  31.042 -0.3567  0.3921 -0.1187
11679W        W54773  22.170  26.051   0.575  0.0161 -0.0338  0.1102
11680W        W54774  21.253  25.907  28.019 -0.0373 -0.0818  0.0223
11681W        W54775  23.832  26.024  30.728  0.1718 -0.1828 -0.0454
11682W        W54776  22.523  28.441  28.361  0.0607 -0.0440 -0.1388
11683W        W54777  24.253  29.422  28.356  0.1301 -0.1889 -0.2794
11684W        W54778  22.467  28.013  30.776 -0.4508 -0.0095  0.2482
11685W        W54779  23.120  28.728  31.305 -0.1075 -0.0890 -0.0615
11686W        W54780  22.238  25.744  30.312  0.1150  0.1654  0.1365
11687W        W54781  25.331  27.181  28.713  0.2960 -0.1838 -0.1086
11688W        W54782  24.053  29.475  30.544  0.3542  0.0567 -0.1660
11689W        W54783  25.504  29.170  26.847 -0.1344 -0.0850 -0.0456
11690W        W54784  24.682  27.822  30.019  0.0296 -0.1367  0.2604
11691W        W54785  25.556  29.012  28.821  0.1761 -0.1655  0.0279
11692W        W54786  22.619  25.197  31.031 -0.1886 -0.2851 -0.0260
11693W        W54787  22.552  26.574  30.794 -0.1270 -0.1359 -0.2925
11694W        W54788  24.191  29.027  29.417  0.0731 -0.0722 -0.2533
11695W        W54789  23.072  25.560  30.218 -0.1261  0.1194 -0.0539
11696W        W54790  24.926  27.853  27.573  0.2097  0.1680  0.2922
11697W        W54791  22.518  29.437  28.924 -0.0773 -0.1451 -0.1273
11698W        W54792  23.486  27.619  30.081  0.2208  0.0002  0.1164
11699W        W54793  22.843  28.514  28.810  0.0832  0.0863  0.0676
11700W        W54794  23.051  27.364  29.856 -0.0956 -0.3318 -0.0916
11701W        W54795  23.796  29.491  29.142  0.1406  0.3100 -0.2334
11702W        W54796  24.637  28.482  31.459  0.1455 -0.2032  0.3509
11703W        W54797  22.121  25.971  27.219 -0.1813  0.0728 -0.0838
11704W        W54798  24.388  27.883  27.721  0.0303 -0.1925  0.0959
11705W        W54799  23.636  30.339  29.417  0.3539  0.3536  0.0998
11706W        W54800  26.573  27.345  30.965 -0.2244  0.0316 -0.3244
11707W        W54801  23.553  28.497  31.051 -0.0304 -0.2188 -0.0501
11708W        W54802  25.792  28.409  28.272 -0.2713  0.0208  0.1615
11709W        W54803  22.715  25.948  30.473 -0.3979 -0.1467 -0.0203
11710W        W54804  22.657  28.501  29.275  0.0878 -0.0129 -0.1253
11711W        W54805  24.456  28.220  28.644  0.1055  0.1275 -0.2637
11712W        W54806  24.338  27.142  29.600 -0.0281 -0.2007 -0.0229
11713W        W54807  22.426  24.847  30.643  0.0372  0.1309  0.0238
11714W        W54808  24.576  26.579  28.932  0.2407 -0.0562  0.2121
11715W        W54809  21.443  28.717  29.217  0.0726  0.0398  0.1636
11716W        W54810  21.809  28.670  28.504 -0.2266  0.0995 -0.0421
11717W        W54811  25.151  25.562  31.048 -0.4230 -0.0182  0.2500
11718W        W54812  23.533  27.443   0.501  0.0947 -0.2493 -0.1600
11719W        W54813  22.972  26.535  29.888 -0.0354 -0.0479 -0.0326
11720W        W54814  21.590  29.929   0.559  0.2367  0.1330  0.1558
11721W        W54815  23.712  28.874   0.195 -0.4377  0.0319  0.1973
11722W        W54816  22.169  28.981  31.107 -0.1401  0.0443  0.0094
11723W        W54817  23.684  26.729  31.625 -0.2910  0.1568  0.0779
11724W        W54818  22.879  25.629  31.077  0.2150  0.0726  0.0945
11725W        W54819  25.202  27.625  31.479  0.2868  0.1357 -0.2326
11726W        W54820  24.935  29.574  31.480 -0.0802  0.1574 -0.1253
11727W        W54821  24.215  27.876  31.067  0.1628  0.2345  0.1482
11728W        W54822  21.220  24.459   0.321 -0.0446  0.0721  0.1564
11729W        W54823  24.379  27.501  29.875 -0.0452  0.1148 -0.1100
11730W        W54824  23.429  27.027  30.620  0.3152 -0.2148 -0.3262
11731W        W54825  26.133  27.551  31.952  0.0298 -0.2759 -0.1036
11732W        W54826  23.097  29.941  31.575  0.0711  0.0618  0.1939
11733W        W54827  23.319  28.894  31.840  0.1878 -0.2115 -0.0935
11734W        W54828  26.502  29.549  31.678 -0.0950 -0.0149  0.0119
11735W        W54829  21.788  24.609  30.748  0.0158  0.0543 -0.2514
11736W        W54830  22.260  26.201  30.567 -0.0808 -0.1386  0.0568
11737W        W54831  22.347  25.936  31.644 -0.1755 -0.2943  0.2444
11738W        W54832  21.739  29.262  31.756 -0.4196  0.2262  0.2519
11739W        W54833  26.713  25.223  31.174 -0.1311 -0.0786 -0.1222
11740W        W54834  24.233  26.405  30.622  0.1101 -0.1110  0.0839
11741W        W54835  24.612  26.084  31.599 -0.0905 -0.2545  0.1771
11742W        W54836  22.740  26.909  31.675  0.0274 -0.2651 -0.0525
11743W        W54837  22.408  26.309  31.204  0.1183 -0.1135 -0.0434
11744W        W54838  20.641  30.035  31.546  0.1646  0.0416 -0.0678
11745W        W54839  22.883  26.956  30.631 -0.3591  0.2795  0.2033
11746W        W54840  24.561  28.009   0.851  0.2667  0.1135 -0.0054
11747W        W54841  24.130  29.157  31.399  0.0000 -0.1416 -0.1355
11748W        W54842  22.336  27.213  31.478 -0.0748  0.1518  0.0783
11749W        W54843  23.965  28.605  30.706 -0.0286 -0.0856  0.0762
11750W        W54844  24.356  26.288   0.022 -0.0660  0.1627 -0.0633
11751W        W54845  20.853  25.842  31.698 -0.1768  0.1133  0.1230
11752W        W54846  23.462  28.409  30.599  0.0053 -0.2689  0.0331
11753W        W54847  23.786  27.669  31.455  0.1242  0.1666  0.1599
11754W        W54848  23.166  28.418  31.775  0.4160  0.1514  0.5368
11755W        W54849  24.591  27.368  31.383  0.2342 -0.1122 -0.0135
11756W        W54850  24.380  28.057  31.515  0.0141  0.0247 -0.0623
11757W        W54851  25.348  27.173   1.206 -0.0871  0.1000 -0.0212
11758W        W54852  23.966  26.735   0.783 -0.0998  0.0976  0.0370
11759W        W54853  22.901  25.845   0.380  0.0125 -0.0521 -0.1141
11760W        W54854  24.164  29.004  31.916 -0.0864 -0.1671 -0.0156
11761W        W54855  23.081  25.302  30.727 -0.0255 -0.1556  0.3252
11762W        W54856  22.525  27.304   0.083 -0.2234 -0.2120 -0.3803
11763W        W54857  22.578  25.518  31.487  0.1851 -0.1856 -0.1039
11764W        W54858  23.999  29.609  31.079 -0.0622  0.2749  0.0857
11765W        W54859  23.604  28.522   0.557 -0.0397 -0.1823 -0.0011
11766W        W54860  21.668  28.497  31.222  0.0738  0.1003 -0.1884
11767W        W54861  24.232  28.438   0.948 -0.0567  0.3225 -0.3717
11768W        W54862  25.138  25.760  30.587  0.0305  0.2518  0.0061
11769W        W54863  23.423  26.655   0.171 -0.0533  0.2872  0.1422
11770W        W54864  23.068  28.239   0.245 -0.3152  0.0662 -0.0630
11771W        W54865  23.864  28.071  30.731  0.1107  0.0898  0.1288
11772W        W54866  24.213  26.930  31.469  0.0478  0.1386 -0.2811
11773W        W54867  26.220  28.250   0.146 -0.0180 -0.0387  0.0725
11774W        W54868  22.668  29.412  30.633 -0.2319  0.1254  0.1107
11775W        W54869  23.694  28.664  31.674 -0.3103 -0.0651 -0.0129
11776W        W54870  22.176  28.457  31.399 -0.0827  0.1827 -0.0870
11777W        W54871  21.701  26.429   1.826 -0.5275  0.1445 -0.0459
11778W        W54872  22.638  27.752   0.555  0.0904  0.0824 -0.0865
11779W        W54873  22.625  28.524  31.078 -0.1040 -0.3319 -0.1278
11780W        W54874  22.582  26.810  30.129 -0.2380 -0.0879 -0.1590
11781W        W54875  24.826  30.613  31.744  0.0639 -0.3337  0.0306
11782W        W54876  25.353  29.060   0.345  0.0161  0.0671 -0.0483
11783W        W54877  24.451  28.844  31.055 -0.0598  0.2670 -0.2229
11784W        W54878  23.043  31.972  18.840  0.2066  0.3061  0.0832
11785W        W54879  22.807  30.786  16.507  0.2332  0.0661  0.1060
11786W        W54880  24.644  29.381  17.632  0.0344 -0.0613 -0.1056
11787W        W54881  24.504  31.026  16.663  0.2592  0.0494  0.1313
11788W        W54882  23.331  28.878  16.361 -0.0109  0.0381 -0.0446
11789W        W54883  24.345  31.658  16.498  0.1222 -0.1838 -0.0625
11790W        W54884  22.212  30.503  18.777 -0.3249 -0.5889 -0.0134
11791W        W54885  24.267  32.522  18.868  0.1343  0.0495  0.1102
11792W        W54886  24.831  33.235  17.891 -0.3872 -0.3097  0.0718
11793W        W54887  25.837  31.103  16.636  0.1584  0.0461  0.0359
11794W        W54888  23.050  29.691  19.122  0.3669  0.1421 -0.2526
11795W        W54889  23.321  31.593  18.603  0.0099  0.2526  0.2383
11796W        W54890  22.228  28.815  16.492 -0.3757 -0.1990  0.1549
11797W        W54891  21.799  29.062  18.990 -0.2782  0.1213  0.1204
11798W        W54892  23.784  30.918  18.185 -0.0524 -0.0945 -0.2657
11799W        W54893  23.360  30.693  16.239  0.4034 -0.2389  0.4634
11800W        W54894  23.293  30.235  18.581 -0.1290  0.1418  0.0357
11801W        W54895  22.577  30.305  16.353 -0.0146  0.0489  0.0668
11802W        W54896  25.107  31.613  17.051  0.1393 -0.0560  0.3947
11803W        W54897  23.820  30.163  19.366  0.0289 -0.1240 -0.0350
11804W        W54898  24.255  28.002  19.500  0.0409 -0.0673  0.1104
11805W        W54899  24.154  31.853  16.963  0.1722 -0.6034  0.0271
11806W        W54900  21.457  30.979  16.026  0.2438  0.0617  0.0118
11807W        W54901  21.397  30.629  18.625 -0.0438  0.1147  0.1601
11808W        W54902  22.762  30.121  18.875 -0.3049 -0.0940  0.1775
11809W        W54903  23.328  28.987  17.850  0.0858  0.0673 -0.0041
11810W        W54904  24.276  32.053  19.121  0.1298  0.0068 -0.0663
11811W        W54905  24.330  31.220  18.159 -0.0885  0.0154  0.1037
11812W        W54906  23.769  31.497  17.383  0.0032  0.0918  0.0072
11813W        W54907  23.836  30.172  18.862  0.2745 -0.0672  0.0919
11814W        W54908  22.480  31.057  17.021  0.2075 -0.0921 -0.1417
11815W        W54909  22.397  32.898  16.856 -0.1673  0.2689 -0.7907
11816W        W54910  22.031  32.266  16.338 -0.4256 -0.2770  0.0124
11817W        W54911  24.817  32.404  17.095  0.0559 -0.0266 -0.1406
11818W        W54912  25.339  31.668  18.320  0.1003 -0.1996  0.1025
11819W        W54913  23.816  32.367  19.086  0.0228  0.0575  0.2114
11820W        W54914  22.624  32.505  15.717 -0.0460  0.0242  0.0455
11821W        W54915  24.723  33.833  19.920  0.0324 -0.0328 -0.0822
11822W        W54916  23.779  31.845  19.182  0.2572  0.0001  0.2923
11823W        W54917  24.185  30.780  18.485  0.3057 -0.0406  0.1513
11824W        W54918  24.286  30.275  17.244 -0.2091 -0.0277  0.2480
11825W        W54919  22.072  32.467  16.861  0.0106  0.1607 -0.2335
11826W        W54920  24.305  31.221  18.723 -0.2339 -0.0319 -0.1084
11827W        W54921  24.685  32.732  17.851  0.1184 -0.0695  0.1594
11828W        W54922  21.083  31.046  17.802  0.0874 -0.0183 -0.1457
11829W        W54923  25.358  30.194  18.731 -0.2728  0.2082 -0.0560
11830W        W54924  22.509  31.784  17.763 -0.0612 -0.0716  0.2663
11831W        W54925  24.553  30.647  16.334  0.0748  0.1964 -0.0016
11832W        W54926  22.800  31.192  16.102  0.0874 -0.0187 -0.1134
11833W        W54927  26.655  30.043  17.109  0.2425  0.4481 -0.1548
11834W        W54928  22.901  29.088  17.389 -0.2247  0.0839  0.0083
11835W        W54929  22.676  32.326  17.513  0.3766 -0.0941 -0.0734
11836W        W54930  23.560  29.343  19.807 -0.1235  0.2249 -0.0497
11837W        W54931  24.177  30.778  17.940  0.1122 -0.1599 -0.1768
11838W        W54932  23.276  31.352  17.637  0.2163 -0.1722  0.0535
11839W        W54933  23.807  30.416  18.264 -0.3049 -0.0054 -0.0794
11840W        W54934  23.721  31.288  18.901  0.1760  0.3283  0.1052
11841W        W54935  22.215  29.727  18.435 -0.0405 -0.1429 -0.1732
11842W        W54936  23.728  32.079  16.359  0.1027 -0.0322 -0.2118
11843W        W54937  23.267  32.121  18.385  0.1955 -0.0614 -0.1277
11844W        W54938  24.003  32.372  15.947  0.2117 -0.0416 -0.1301
11845W        W54939  21.363  30.775  17.446 -0.0938 -0.0237 -0.2058
11846W        W54940  23.808  30.507  19.772  0.1253 -0.2012  0.0900
11847W        W54941  20.479  30.502  20.935 -0.1710  0.0791  0.0366
11848W        W54942  22.457  28.984  16.078  0.1446 -0.0320  0.2015
11849W        W54943  25.468  30.791  17.423  0.1157 -0.2598  0.1270
11850W        W54944  22.798  31.039  18.674  0.0513 -0.0426 -0.0313
11851W        W54945  25.301  31.060  17.845  0.5921  0.1646 -0.1420
11852W        W54946  23.179  29.273  18.350 -0.2147 -0.1484 -0.0672
11853W        W54947  24.527  31.424  19.317  0.1894  0.4239 -0.2220
11854W        W54948  24.054  31.502  16.131  0.2124  0.0793 -0.0114
11855W        W54949  24.927  29.389  18.087  0.2111 -0.4329  0.1269
11856W        W54950  26.646  29.460  18.358 -0.4058  0.0533  0.0636
11857W        W54951  21.659  31.335  16.368 -0.3138  0.1673 -0.1426
11858W        W54952  22.554  32.347  17.014  0.0602  0.1707  0.1615
11859W        W54953  24.775  31.362  18.364 -0.3424  0.1070 -0.0016
11860W        W54954  25.318  31.024  15.728 -0.1130 -0.0466 -0.1125
11861W        W54955  21.300  31.614  17.748  0.4248 -0.0290 -0.1399
11862W        W54956  23.503  28.375  19.765 -0.1595  0.0102  0.1314
11863W        W54957  24.959  33.058  19.642  0.0966 -0.1149 -0.0213
11864W        W54958  22.432  32.510  16.419  0.1364 -0.3262 -0.0335
11865W        W54959  21.411  30.729  17.988  0.0461 -0.3417  0.2697
11866W        W54960  22.008  31.837  16.687  0.2084 -0.3995  0.1869
11867W        W54961  21.526  30.195  19.726 -0.2906 -0.0143 -0.1025
11868W        W54962  23.067  29.306  20.471  0.1035  0.2144 -0.3847
11869W        W54963  24.818  31.461  17.434  0.1451  0.1573 -0.0706
11870W        W54964  23.309  30.307  19.754  0.1345  0.1153 -0.1147
11871W        W54965  23.607  29.395  18.061 -0.3083 -0.1797  0.3551
11872W        W54966  20.780  29.479  16.573 -0.3370  0.2309  0.1866
11873W        W54967  25.189  32.494  15.757  0.1356 -0.1218  0.1601
11874W        W54968  23.552  31.558  16.189 -0.2000  0.3774 -0.1106
11875W        W54969  23.785  31.682  16.638 -0.0836 -0.0398  0.0382
11876W        W54970  21.956  30.071  19.930  0.1041 -0.0044  0.3181
11877W        W54971  21.265  29.699  18.245 -0.2870  0.0193  0.2296
11878W        W54972  23.096  29.239  19.861 -0.3668 -0.2112  0.1763
11879W        W54973  21.586  29.823  17.588  0.0404  0.0927  0.1688
11880W        W54974  26.201  29.550  19.267  0.1318 -0.2840 -0.1328
11881W        W54975  23.319  30.851  16.757 -0.0677  0.0614 -0.2429
11882W        W54976  24.250  30.247  17.761  0.0492  0.3295  0.0673
11883W        W54977  22.418  30.660  16.720 -0.1403  0.0110 -0.0918
11884W        W54978  22.201  30.492  18.210 -0.0913  0.0412  0.4038
11885W        W54979  24.738  29.496  19.936 -0.2974  0.0262 -0.2208
11886W        W54980  23.349  32.391  16.491 -0.0249  0.2315  0.1528
11887W        W54981  25.204  31.756  19.579 -0.0433 -0.0042  0.0542
11888W        W54982  24.123  33.430  19.263 -0.2345 -0.2080  0.0658
11889W        W54983  22.037  29.582  20.067 -0.0666  0.0038  0.1882
11890W        W54984  24.393  31.114  17.352  0.1688  0.1766  0.4973
11891W        W54985  23.107  33.067  18.108  0.0505 -0.0161  0.0264
11892W        W54986  22.859  31.343  17.312 -0.0504 -0.0587  0.0949
11893W        W54987  21.763  29.805  16.188 -0.3499  0.1067 -0.0758
11894W        W54988  24.136  32.945  19.078 -0.2298 -0.4200 -0.2355
11895W        W54989  22.286  31.639  17.250  0.0609  0.1731  0.1209
11896W        W54990  21.621  30.437  19.049  0.1840 -0.1025  0.2560
11897W        W54991  25.351  29.178  19.655  0.0871  0.3264  0.1371
11898W        W54992  24.158  30.555  19.417  0.3185  0.0537  0.2550
11899W        W54993  24.081  29.224  18.914 -0.2718 -0.2071 -0.1234
11900W        W54994  21.658  28.977  16.344  0.0337 -0.5201  0.0889
11901W        W54995  23.407  32.769  17.736  0.1706  0.0838  0.0417
11902W        W54996  23.942  32.651  15.510  0.2629  0.3210  0.1864
11903W        W54997  20.485  29.276  16.968 -0.1779 -0.3874 -0.0136
11904W        W54998  23.896  31.545  18.506 -0.3111  0.0978 -0.1301
11905W        W54999  24.295  29.328  16.895 -0.0986 -0.2811 -0.1417
11906W        W55000  21.536  30.660  19.504 -0.2157  0.0177 -0.4403
11907W        W55001  24.261  30.080  19.144  0.1378 -0.0051 -0.0468
11908W        W55002  22.518  29.778  16.567  0.1608  0.0511  0.1199
11909W        W55003  22.276  31.061  18.981  0.0111  0.0023  0.1528
11910W        W55004  23.000  29.866  17.319  0.0613  0.2524  0.3194
11911W        W55005  25.795  29.801  17.394  0.1216 -0.1750  0.2321
11912W        W55006  25.096  30.220  20.615 -0.0512  0.2444  0.0732
11913W        W55007  24.642  32.660  16.615 -0.3364 -0.1709  0.0550
11914W        W55008  23.357  30.104  15.647 -0.0022 -0.1524 -0.1897
11915W        W55009  24.279  29.079  15.654 -0.1831  0.0337 -0.0290
11916W        W55010  21.570  31.575  19.525 -0.2262 -0.1470 -0.0008
11917W        W55011  23.998  30.799  17.399  0.0703  0.0047  0.1208
11918W        W55012  22.399  30.589  17.725 -0.1055  0.0198 -0.2658
11919W        W55013  23.819  29.733  16.159 -0.0526 -0.0857 -0.1392
11920W        W55014  24.780  32.769  15.917 -0.1259 -0.0075 -0.0904
11921W        W55015  22.354  30.557  17.204  0.2375 -0.2081  0.2525
11922W        W55016  24.201  31.643  18.964 -0.0905 -0.0680  0.0380
11923W        W55017  25.747  32.437  16.922 -0.2678  0.2032 -0.2892
11924W        W55018  22.498  29.183  18.493 -0.1181 -0.3022  0.1377
11925W        W55019  22.890  30.155  19.505 -0.0777  0.2261  0.5074
11926W        W55020  23.931  29.378  17.486 -0.0410 -0.0827 -0.0318
11927W        W55021  22.306  33.954  17.513  0.2410 -0.1742  0.3846
11928W        W55022  23.138  28.734  19.246  0.0068  0.2289 -0.1531
11929W        W55023  25.941  28.796  19.041  0.0126 -0.0803  0.1452
11930W        W55024  23.848  28.162  19.254  0.1631  0.0195  0.0489
11931W        W55025  23.755  29.257  18.548 -0.3799  0.1129  0.1888
11932W        W55026  23.666  29.984  17.994 -0.3192  0.1893 -0.0584
11933W        W55027  25.088  29.062  18.988  0.0287 -0.1453 -0.0491
11934W        W55028  22.060  30.415  16.445 -0.2076 -0.2543  0.2632
11935W        W55029  23.946  28.790  18.610 -0.2461  0.0520  0.0742
11936W        W55030  22.467  30.154  18.418 -0.3929  0.1525  0.0122
11937W        W55031  22.930  29.760  17.783  0.0095 -0.0180 -0.2111
11938W        W55032  24.256  31.256  19.766  0.0121  0.0571  0.0506
11939W        W55033  24.219  32.967  16.663 -0.0554 -0.0271 -0.0186
11940W        W55034  24.536  29.768  19.494 -0.2483 -0.0802 -0.0584
11941W        W55035  22.189  29.568  17.025 -0.0212 -0.2431  0.2564
11942W        W55036  24.075  31.634  18.020 -0.0600  0.0431 -0.1058
11943W        W55037  21.597  32.403  16.491 -0.1197  0.4482 -0.1322
11944W        W55038  23.527  28.841  18.866  0.3903  0.2886 -0.1595
11945W        W55039  23.643  31.026  17.685  0.2592 -0.2455 -0.2707
11946W        W55040  22.786  31.667  16.510  0.2932 -0.0859  0.0364
11947W        W55041  24.423  31.780  20.154  0.1790 -0.2049  0.6571
11948W        W55042  21.910  32.994  17.140  0.0315 -0.1986 -0.4030
11949W        W55043  23.270  28.706  17.161 -0.2798  0.2149 -0.0216
11950W        W55044  21.494  30.936  16.963  0.2164 -0.2670 -0.1623
11951W        W55045  23.781  30.385  17.258  0.1829 -0.0982 -0.1411
11952W        W55046  21.546  29.429  16.530 -0.3434  0.1529  0.2630
11953W        W55047  22.993  28.770  18.156  0.0947  0.0203  0.2461
11954W        W55048  24.818  31.950  16.264  0.2284  0.2626  0.0191
11955W        W55049  21.847  30.884  18.773  0.0529 -0.0873  0.1813
11956W        W55050  23.276  30.669  17.474  0.0482  0.0749  0.0530
11957W        W55051  21.969  31.840  18.696 -0.1225 -0.0296  0.1622
11958W        W55052  22.992  30.661  18.367 -0.1411 -0.0724 -0.0091
11959W        W55053  24.848  29.746  15.965 -0.0265  0.0909 -0.0266
11960W        W55054  24.706  31.586  18.833 -0.1727 -0.2275 -0.2644
11961W        W55055  22.080  30.747  19.324  0.1239 -0.1336  0.1152
11962W        W55056  23.336  29.531  16.067 -0.1367 -0.1779  0.1455
11963W        W55057  23.601  28.376  18.636 -0.2207  0.0232  0.0924
11964W        W55058  22.757  29.469  16.934  0.1348  0.2822  0.2753
11965W        W55059  22.803  31.833  18.409 -0.0686  0.0721 -0.0898
11966W        W55060  24.256  31.656  17.449  0.0410  0.0627  0.0850
11967W        W55061  23.226  31.200  16.351  0.1712  0.0553  0.0897
11968W        W55062  21.609  31.144  17.806  0.0471  0.1534  0.0197
11969W        W55063  22.752  31.328  20.018  0.2931  0.0056  0.1863
11970W        W55064  25.119  30.976  19.705  0.0383 -0.1160 -0.0594
11971W        W55065  23.371  29.291  18.835 -0.0920  0.0283 -0.0560
11972W        W55066  23.170  27.918  17.705  0.0615  0.0792  0.1147
11973W        W55067  23.474  29.101  17.353 -0.0357  0.1614  0.0862
11974W        W55068  23.569  31.376  18.082  0.2644  0.0946  0.3999
11975W        W55069  24.157  28.852  19.285 -0.1960  0.0153 -0.1206
11976W        W55070  22.570  34.184  19.578 -0.2563  0.1458  0.2582
11977W        W55071  23.465  28.847  18.365 -0.1464 -0.0841  0.0654
11978W        W55072  25.519  33.425  16.752 -0.2190  0.0669  0.0231
11979W        W55073  24.323  29.790  20.029 -0.0101  0.3352 -0.0330
11980W        W55074  21.961  29.723  16.590  0.0311 -0.3085 -0.0162
11981W        W55075  20.596  30.458  17.894 -0.1610  0.1176  0.0910
11982W        W55076  21.694  31.528  15.858 -0.0721  0.0100 -0.3403
11983W        W55077  25.840  28.374  19.212 -0.2318  0.0923 -0.1072
11984W        W55078  21.879  30.554  17.806 -0.0808  0.1147 -0.2836
11985W        W55079  21.199  32.229  16.733 -0.4192 -0.1310  0.2400
11986W        W55080  21.137  32.574  18.258  0.1616  0.0916 -0.0060
11987W        W55081  24.226  29.469  15.950  0.0873 -0.1079 -0.0638
11988W        W55082  23.739  31.050  16.171 -0.2316 -0.1868  0.0243
11989W        W55083  22.905  30.538  17.872 -0.0559  0.3090 -0.0284
11990W        W55084  25.156  30.129  19.354  0.0100  0.3579  0.4304
11991W        W55085  23.940  30.025  16.940 -0.0138  0.0159  0.2823
11992W        W55086  24.370  28.391  19.145 -0.2785  0.1423  0.3166
11993W        W55087  22.863  30.530  20.808  0.3378  0.0981 -0.0631
11994W        W55088  25.321  32.669  17.171  0.1971  0.1449 -0.1655
11995W        W55089  21.712  27.751  18.632  0.0102  0.0561  0.3095
11996W        W55090  23.708  32.583  20.296 -0.1789 -0.0276  0.2550
11997W        W55091  21.708  31.113  19.250 -0.1582 -0.1167  0.3048
11998W        W55092  22.673  30.202  16.998  0.1842  0.2280 -0.2071
11999W        W55093  22.028  28.298  16.712  0.2043  0.1810 -0.3541
12000W        W55094  23.446  29.618  17.587  0.0819  0.2126  0.0265
12001W        W55095  24.844  31.899  18.369  0.0129  0.0766 -0.0163
12002W        W55096  24.051  30.664  16.298 -0.0550 -0.2924 -0.1100
12003W        W55097  25.982  30.261  17.561  0.0734 -0.5003  0.1894
12004W        W55098  22.828  31.423  17.841  0.0126  0.2144  0.0084
12005W        W55099  24.516  30.271  16.704  0.0463  0.0971  0.0305
12006W        W55100  24.021  31.245  16.539  0.1956  0.1002  0.2911
12007W        W55101  23.315  33.241  16.813 -0.0170  0.0907  0.1420
12008W        W55102  22.639  29.697  19.360 -0.0684 -0.0402 -0.1554
12009W        W55103  24.725  30.900  18.382 -0.1168 -0.0158 -0.0523
12010W        W55104  23.629  27.909  18.883  0.2173 -0.1002 -0.0111
12011W        W55105  25.674  28.933  17.937 -0.1939 -0.0601  0.0378
12012W        W55106  23.649  29.669  18.984  0.1096 -0.0437 -0.0269
12013W        W55107  23.837  30.070  21.259 -0.0539  0.2911  0.0472
12014W        W55108  22.389  30.307  21.343  0.0438  0.0032 -0.2400
12015W        W55109  24.813  32.952  18.297  0.1027  0.0512  0.0816
12016W        W55110  24.963  30.529  16.662  0.5918  0.3412 -0.2482
12017W        W55111  26.396  30.513  19.444  0.0192 -0.2195  0.2194
12018W        W55112  24.837  31.419  16.532  0.0528 -0.0704  0.3566
12019W        W55113  24.013  30.143  16.426  0.1550  0.3222  0.1438
12020W        W55114  22.737  29.172  19.474 -0.0465  0.0905 -0.1288
12021W        W55115  23.889  30.935  19.554  0.2014 -0.0678  0.1126
12022W        W55116  21.999  29.094  15.757  0.1396  0.0917 -0.0961
12023W        W55117  24.033  28.241  18.781  0.0059  0.1087  0.0112
12024W        W55118  23.057  32.535  16.099  0.2149  0.3497 -0.1731
12025W        W55119  24.478  30.619  17.577  0.2509  0.2206 -0.0281
12026W        W55120  24.772  29.470  17.200 -0.1381 -0.0595  0.4693
12027W        W55121  22.878  28.734  19.674  0.0611  0.2017  0.3757
12028W        W55122  22.277  31.869  19.171  0.1208  0.0263 -0.2689
12029W        W55123  21.904  30.776  15.755  0.2336  0.1948  0.2203
12030W        W55124  22.902  31.204  16.748  0.0797 -0.0243  0.2513
12031W        W55125  23.190  30.922  17.965 -0.1484  0.0062  0.2848
12032W        W55126  24.717  31.095  18.994  0.2047 -0.1067  0.0327
12033W        W55127  22.391  29.483  15.735  0.0288 -0.2487 -0.3575
12034W        W55128  25.277  29.369  20.154 -0.0193  0.0462 -0.0787
12035W        W55129  23.321  32.968  16.400 -0.1960  0.2275 -0.0480
12036W        W55130  23.363  28.376  18.174  0.1652 -0.1831 -0.0853
12037W        W55131  22.742  32.764  17.252 -0.0059 -0.0530  0.3533
12038W        W55132  21.386  32.182  18.367  0.1656  0.1557 -0.0603
12039W        W55133  22.929  32.159  16.663  0.1606 -0.1537 -0.0085
12040W        W55134  24.384  29.239  19.543  0.1057  0.2099  0.1103
12041W        W55135  23.609  30.901  17.169  0.1073  0.0084  0.0147
12042W        W55136  22.824  30.351  17.436 -0.2940 -0.0586 -0.1898
12043W        W55137  24.634  30.442  20.842 -0.2220 -0.0696 -0.0289
12044W        W55138  23.540  30.592  19.228  0.1983  0.1724  0.3161
12045W        W55139  22.310  30.046  17.435 -0.1490 -0.4384  0.1690
12046W        W55140  24.637  33.477  19.567 -0.1508 -0.2979 -0.0296
12047W        W55141  24.194  32.040  17.750 -0.3457  0.1020 -0.0230
12048W        W55142  23.738  31.896  17.783  0.0099  0.2461 -0.0669
12049W        W55143  22.364  29.902  20.250  0.3470  0.0497 -0.1344
12050W        W55144  23.010  31.313  18.275 -0.1382 -0.2788 -0.2082
12051W        W55145  24.093  30.561  16.879 -0.1902 -0.1272 -0.0576
12052W        W55146  22.370  29.668  18.936 -0.2090  0.0319  0.1519
12053W        W55147  22.405  31.124  16.422  0.0115  0.4320  0.2100
12054W        W55148  21.587  33.575  19.556  0.0386 -0.0997  0.1933
12055W        W55149  22.385  31.275  17.612  0.1264 -0.0005  0.0257
12056W        W55150  22.005  33.466  16.584  0.0358 -0.1511 -0.0089
12057W        W55151  23.599  31.231  16.803  0.1782  0.4281 -0.0047
12058W        W55152  24.353  31.960  16.032 -0.0018 -0.1094  0.3546
12059W        W55153  24.184   0.171  18.795  0.2924 -0.1885  0.1339
12060W        W55154  23.008  29.175  15.862 -0.1946 -0.3808 -0.2834
12061W        W55155  22.723  31.843  17.070  0.0233 -0.1474  0.0555
12062W        W55156  21.431  32.627  16.950 -0.1236 -0.3096  0.0132
12063W        W55157  23.765  32.969  18.033 -0.1093 -0.2624  0.2059
12064W        W55158  23.720  31.961  18.276  0.1136 -0.2078 -0.2916
12065W        W55159  24.643  31.011  19.521  0.0201  0.3558  0.0701
12066W        W55160  23.474  29.711  15.159  0.1297  0.1952 -0.0215
12067W        W55161  24.900  30.940  17.415  0.1420  0.0762  0.2244
12068W        W55162  24.868  31.161  16.931 -0.2517 -0.0803 -0.0528
12069W        W55163  24.658  32.952  19.242 -0.1714  0.0419  0.2422
12070W        W55164  24.059  31.262  17.681 -0.1855 -0.1473 -0.0821
12071W        W55165  22.944  29.846  16.302 -0.0041  0.2803  0.0026
12072W        W55166  22.749  29.740  18.507  0.0365  0.2846 -0.0807
12073W        W55167  25.491  29.391  18.204  0.4010 -0.1426 -0.0648
12074W        W55168  21.576  33.286  19.103 -0.0980 -0.1880 -0.2105
12075W        W55169  23.811  32.706  16.498 -0.2530 -0.1755 -0.1916
12076W        W55170  22.026  29.574  17.588 -0.3271 -0.0456  0.1692
12077W        W55171  23.150  31.756  18.054 -0.1091 -0.2058 -0.1379
12078W        W55172  25.648  29.869  19.394  0.2383  0.1376  0.0891
12079W        W55173  21.782  31.874  16.196  0.3009  0.2454 -0.1261
12080W        W55174  23.730  30.518  17.766  0.1959 -0.1040 -0.2240
12081W        W55175  23.467  33.798  17.427  0.0310  0.2176 -0.3967
12082W        W55176  22.682  30.960  18.108  0.1488 -0.0085  0.2241
12083W        W55177  23.368  32.644  18.367  0.0006  0.0264 -0.0726
12084W        W55178  20.731  28.950  16.506 -0.0484  0.1338 -0.1319
12085W        W55179  26.283  30.070  18.408 -0.0603  0.0964 -0.1923
12086W        W55180  23.806  29.869  19.936 -0.1372  0.1941  0.0067
12087W        W55181  23.888  29.002  18.131 -0.0443  0.1925  0.0445
12088W        W55182  23.206  29.714  18.633 -0.0751  0.2778  0.1240
12089W        W55183  24.578  30.646  17.035 -0.2827 -0.2617 -0.6384
12090W        W55184  24.517  30.547  18.939  0.1289  0.0923  0.1272
12091W        W55185  22.488  30.395  20.084 -0.1522  0.1374 -0.0184
12092W        W55186  22.778  30.943  15.585  0.2748  0.1314  0.2385
12093W        W55187  25.604  30.635  18.395 -0.3268  0.2629  0.3859
12094W        W55188  23.621  30.391  16.648  0.0067 -0.0450  0.1528
12095W        W55189  25.179  32.236  20.213  0.1740  0.3769 -0.0147
12096W        W55190  23.042  28.429  17.589 -0.2096 -0.2992 -0.0969
12097W        W55191  24.544  31.562  16.948  0.1542  0.2197 -0.0592
12098W        W55192  23.320  31.615  17.195  0.0594  0.0099  0.6114
12099W        W55193  23.376  30.840  19.666 -0.1141 -0.0633  0.2891
12100W        W55194  24.992  30.639  19.161 -0.0022  0.0452  0.0032
12101W        W55195  21.965  30.046  18.881 -0.3565 -0.0682 -0.1659
12102W        W55196  25.222  31.971  15.894 -0.3251 -0.2779  0.2038
12103W        W55197  24.158  29.941  18.228 -0.1022 -0.0668  0.3182
12104W        W55198  22.037  32.810  16.486 -0.0662 -0.1352  0.2341
12105W        W55199  24.773  31.114  17.877  0.0689 -0.1782 -0.0264
12106W        W55200  24.680  32.137  17.924 -0.2727  0.1206 -0.0289
12107W        W55201  21.181  30.590  20.029  0.2393  0.0301  0.2536
12108W        W55202  22.885  31.502  18.832 -0.0386 -0.0005 -0.0427
12109W        W55203  25.169  32.252  18.585  0.0316  0.2182 -0.4105
12110W        W55204  22.637  29.425  16.186 -0.1799 -0.0203  0.1081
12111W        W55205  23.261  30.364  17.088 -0.0435  0.4358 -0.1417
12112W        W55206  22.813  33.175  17.024 -0.2395  0.1073  0.0729
12113W        W55207  24.666  30.274  19.420 -0.2833 -0.3287 -0.0985
12114W        W55208  26.206  29.133  20.271  0.0026 -0.3228 -0.0531
12115W        W55209  23.356  32.078  16.970  0.0470  0.2062 -0.1060
12116W        W55210  25.096  29.158  17.643  0.0723 -0.0528  0.1452
12117W        W55211  24.247  33.117  19.616 -0.0935 -0.0033  0.0915
12118W        W55212  23.594  32.864  18.955  0.1220 -0.0010  0.0313
12119W        W55213  22.322  30.704  16.121 -0.2932  0.2144 -0.1773
12120W        W55214  22.410  29.998  19.773 -0.2937 -0.2419  0.1637
12121W        W55215  23.344  30.352  18.096 -0.2873 -0.1628 -0.0645
12122W        W55216  22.884  30.747  17.146 -0.1741  0.1154 -0.3303
12123W        W55217  25.598  32.002  18.743  0.3313  0.2219 -0.1508
12124W        W55218  22.210  30.065  16.811 -0.0246 -0.1484 -0.1367
12125W        W55219  26.339  31.692  17.916  0.0048 -0.1896  0.1718
12126W        W55220  24.586  29.703  18.446  0.0095  0.3199  0.1343
12127W        W55221  24.404  29.857  16.936 -0.0566 -0.1852  0.1052
12128W        W55222  24.861  28.621  17.412 -0.2768 -0.0729  0.0289
12129W        W55223  21.257  31.846  17.027  0.0465  0.2215  0.0494
12130W        W55224  21.011  30.158  15.878 -0.1887 -0.1029  0.0132
12131W        W55225  22.379  31.501  16.774 -0.0491 -0.3046 -0.0012
12132W        W55226  22.745  32.226  18.052 -0.1512  0.0063 -0.0187
12133W        W55227  25.434  27.737  19.896  0.0406 -0.0834  0.1716
12134W        W55228  23.519  30.715  20.219  0.2453  0.2494  0.2188
12135W        W55229  22.238  31.023  18.439  0.0670  0.0959 -0.0394
12136W        W55230  23.455  29.045  16.791 -0.2026  0.0917 -0.0520
12137W        W55231  24.353  33.014  17.322 -0.0227 -0.0173 -0.0198
12138W        W55232  23.038  30.569  18.906  0.2593  0.1416 -0.0299
12139W        W55233  21.466  30.321  17.614  0.3829  0.1387  0.3390
12140W        W55234  24.068  31.276  17.022 -0.0179 -0.0297  0.0476
12141W        W55235  26.185  32.155  16.933  0.0382 -0.1466 -0.1491
12142W        W55236  24.382  29.199  16.436  0.1004 -0.3448 -0.2354
12143W        W55237  25.803  31.778  18.346 -0.1981 -0.2517 -0.1059
12144W        W55238  22.358  31.127  15.798  0.3202 -0.0593 -0.2751
12145W        W55239  23.807  29.602  20.777  0.0099 -0.1820  0.4616
12146W        W55240  22.779  29.310  20.961 -0.1691  0.1547  0.1779
12147W        W55241  21.492  30.005  15.776 -0.0464  0.0625 -0.1303
12148W        W55242  23.508  29.949  17.174  0.1612 -0.0896 -0.1203
12149W        W55243  23.281  31.582  16.666  0.0828  0.0049  0.3224
12150W        W55244  23.466  32.489  15.866 -0.0586  0.0693  0.0489
12151W        W55245  22.861  30.973  17.652 -0.1431 -0.2001 -0.1408
12152W        W55246  23.016  32.443  19.501  0.3098  0.1361  0.1668
12153W        W55247  20.903  29.948  19.186 -0.2039 -0.1929 -0.5868
12154W        W55248  24.277  31.038  16.061  0.0289  0.2342  0.2860
12155W        W55249  24.068  32.072  18.649 -0.3472 -0.1367 -0.1142
12156W        W55250  25.114  32.425  16.683 -0.0519 -0.0286  0.0124
12157W        W55251  26.315  29.126  16.730  0.0073 -0.0878  0.0891
12158W        W55252  23.807  29.446  16.947 -0.0166  0.0030  0.1958
12159W        W55253  23.050  28.849  20.780  0.1804 -0.0746 -0.1917
12160W        W55254  22.862  31.873  19.283 -0.3080  0.1804 -0.1756
12161W        W55255  25.178  32.859  17.874 -0.1779  0.0416 -0.1782
12162W        W55256  23.068  28.453  18.596 -0.1015 -0.3329  0.0860
12163W        W55257  24.736  28.772  16.389  0.2555  0.0278 -0.2458
12164W        W55258  24.568  31.471  16.072  0.0523  0.0544  0.1514
12165W        W55259  21.889  30.174  18.393 -0.1645  0.0788  0.2694
12166W        W55260  23.279  30.119  17.660 -0.2021  0.0546  0.1016
12167W        W55261  22.938  30.161  20.046 -0.1279 -0.0729  0.2423
12168W        W55262  23.269  31.609  19.151  0.0330 -0.0668 -0.0239
12169W        W55263  24.728  31.875  19.391 -0.0383  0.1387  0.2100
12170W        W55264  23.407  30.066  16.150 -0.1488  0.0143  0.2606
12171W        W55265  25.559  31.437  15.660 -0.0396 -0.1054  0.1240
12172W        W55266  25.197  31.271  18.887 -0.0042  0.0250 -0.2846
12173W        W55267  25.722  32.040  19.320 -0.1875  0.1696  0.3889
12174W        W55268  25.138  32.184  19.321  0.0338 -0.0092 -0.2780
12175W        W55269  24.128  29.452  18.235  0.1825  0.1542  0.2469
12176W        W55270  22.385  30.197  19.208 -0.1239 -0.0866 -0.3336
12177W        W55271  20.750  31.622  17.770 -0.0265  0.0804 -0.0663
12178W        W55272  23.574  32.546  17.327  0.1389 -0.0043 -0.2085
12179W        W55273  24.871  28.472  19.128 -0.2569  0.0325 -0.2824
12180W        W55274  23.244  29.270  19.368 -0.0419  0.2113 -0.4063
12181W        W55275  24.075  29.614  16.563 -0.1995 -0.2147  0.0444
12182W        W55276  21.872  32.320  18.201  0.0847 -0.1242  0.1591
12183W        W55277  23.283  29.726  18.140 -0.2371 -0.1855 -0.0860
12184W        W55278  23.362  32.221  22.125  0.6146 -0.0693 -0.0617
12185W        W55279  23.959  29.446  20.207  0.0111 -0.2157 -0.1015
12186W        W55280  23.755  31.259  19.914 -0.2608 -0.1210 -0.1541
12187W        W55281  23.649  31.898  21.159 -0.2793 -0.1689 -0.1457
12188W        W55282  22.352  29.520  20.719 -0.3085 -0.5310 -0.1495
12189W        W55283  24.505  32.297  19.713  0.1200  0.3094  0.1320
12190W        W55284  23.318  28.205  22.321 -0.1689 -0.1439  0.1051
12191W        W55285  23.604  33.197  21.999 -0.0281  0.1442  0.3012
12192W        W55286  24.856  32.386  21.242  0.0334 -0.3522 -0.2751
12193W        W55287  24.189  31.855  22.309 -0.0404 -0.0488  0.1918
12194W        W55288  23.802  29.994  22.348 -0.1226  0.2139  0.1221
12195W        W55289  23.841  32.919  21.667 -0.0290 -0.2077  0.0055
12196W        W55290  23.843  30.594  21.204  0.1073  0.0592  0.2033
12197W        W55291  22.085  29.099  23.076 -0.0956  0.1821  0.3351
12198W        W55292  25.833  31.227  20.720  0.3152  0.1808 -0.1560
12199W        W55293  22.568  28.722  20.992 -0.1057  0.1660  0.0858
12200W        W55294  23.270  29.878  22.208  0.0374  0.0465  0.3988
12201W        W55295  24.929  29.881  21.344  0.1727  0.0649  0.0607
12202W        W55296  23.251  32.890  21.561 -0.0889 -0.2926 -0.3981
12203W        W55297  23.906  29.436  22.098 -0.0092 -0.2968  0.2033
12204W        W55298  25.699  29.508  22.463  0.1064 -0.2520  0.0820
12205W        W55299  24.296  31.850  19.635  0.1682  0.2590 -0.3444
12206W        W55300  22.028  28.747  19.376  0.0118 -0.1471  0.1025
12207W        W55301  22.150  30.678  21.541  0.1937 -0.0272 -0.2039
12208W        W55302  24.431  29.862  24.565  0.2639  0.5757  0.0888
12209W        W55303  24.660  30.074  22.696 -0.0257  0.0220 -0.0181
12210W        W55304  25.359  31.269  22.357  0.1883  0.0137 -0.0366
12211W        W55305  24.067  33.314  21.863  0.3355 -0.3666 -0.0460
12212W        W55306  23.632  32.098  20.117 -0.0728 -0.3829  0.3531
12213W        W55307  26.190  30.371  23.736 -0.0033  0.3960 -0.1119
12214W        W55308  21.795  32.230  20.453  0.0764 -0.0893  0.2076
12215W        W55309  21.810  32.691  21.072  0.0066  0.1049 -0.0447
12216W        W55310  23.424  31.472  21.479 -0.0634 -0.0056  0.0184
12217W        W55311  26.577  30.601  20.572  0.1582 -0.1648  0.2355
12218W        W55312  23.971  32.266  20.964  0.1579  0.1591  0.3075
12219W        W55313  22.904  32.555  22.167  0.0671  0.2239 -0.0007
12220W        W55314  22.514  31.032  19.568  0.2957  0.0512 -0.2118
12221W        W55315  22.854  32.729  23.752 -0.0563  0.1639 -0.1795
12222W        W55316  23.877  33.220  23.601  0.2431  0.1030 -0.1138
12223W        W55317  22.379  30.617  20.926  0.0818 -0.2044 -0.1656
12224W        W55318  24.236  29.620  23.503 -0.2570 -0.5013  0.0485
12225W        W55319  23.535  32.462  19.803 -0.0807 -0.0148 -0.2098
12226W        W55320  23.558  31.015  21.403 -0.1652 -0.1742 -0.5288
12227W        W55321  24.449  31.046  23.604  0.0636 -0.1393  0.0735
12228W        W55322  21.972  32.407  22.215  0.1717  0.0002  0.1791
12229W        W55323  26.497  29.649  24.143  0.0571  0.1862 -0.0593
12230W        W55324  23.269  32.934  19.362  0.1387 -0.0087  0.0647
12231W        W55325  24.106  30.309  20.080  0.1924 -0.5854  0.2122
12232W        W55326  23.295  29.753  20.003 -0.0366 -0.0752  0.0501
12233W        W55327  24.530  30.856  21.952 -0.2125 -0.0004 -0.1673
12234W        W55328  24.217  30.341  21.553  0.0322  0.1211 -0.1630
12235W        W55329  23.084  32.445  21.671 -0.2431  0.0228 -0.1335
12236W        W55330  23.356  29.410  22.991  0.1368  0.5267 -0.0763
12237W        W55331  24.951  30.986  23.669  0.2042 -0.0766  0.0137
12238W        W55332  24.605  30.258  20.065 -0.2555  0.0972 -0.3930
12239W        W55333  24.589  30.537  23.658  0.1330 -0.2100  0.0623
12240W        W55334  23.010  32.672  21.182 -0.0849  0.1309 -0.1863
12241W        W55335  22.398  31.482  20.857 -0.1043  0.3095  0.2632
12242W        W55336  24.730  32.412  19.264  0.1118  0.0437 -0.3535
12243W        W55337  25.424  31.338  19.833 -0.0701  0.0967 -0.1224
12244W        W55338  22.979  32.887  19.735  0.0837 -0.2725 -0.0779
12245W        W55339  22.128  29.919  21.014  0.1384 -0.2313  0.1751
12246W        W55340  21.172  30.794  22.737  0.0589  0.1159 -0.0827
12247W        W55341  21.545  30.490  21.557 -0.2340 -0.0686  0.0489
12248W        W55342  23.516  29.080  20.215  0.4730 -0.2743 -0.1676
12249W        W55343  24.605  32.121  24.146 -0.1152  0.0646 -0.2830
12250W        W55344  22.107  32.695  21.580  0.2779 -0.2435  0.1176
12251W        W55345  25.495  30.376  22.754 -0.0587 -0.0798 -0.0173
12252W        W55346  23.673  30.461  22.635  0.0478  0.0745 -0.0744
12253W        W55347  25.230  32.621  23.256 -0.1603 -0.3537  0.1480
12254W        W55348  24.708  31.506  19.832 -0.0605 -0.0279  0.2180
12255W        W55349  24.603  30.408  22.195  0.2552 -0.3451  0.0452
12256W        W55350  25.742  29.637  24.193 -0.1041  0.1152  0.2126
12257W        W55351  23.243  31.120  18.977  0.1362 -0.0767 -0.0928
12258W        W55352  22.866  31.407  21.485  0.2266 -0.0645  0.1622
12259W        W55353  24.831  34.020  23.814  0.1523 -0.1343 -0.0995
12260W        W55354  24.317  30.673  21.163  0.1510  0.3456  0.1094
12261W        W55355  22.252  34.018  22.192 -0.5614 -0.0960 -0.0126
12262W        W55356  23.052  29.504  22.481  0.1721 -0.0685  0.1869
12263W        W55357  23.509  31.523  24.114  0.3220 -0.1544  0.0286
12264W        W55358  22.554  32.863  19.385  0.1384 -0.0423  0.2285
12265W        W55359  22.095  31.738  22.091  0.1083 -0.2171  0.1697
12266W        W55360  22.479  32.033  18.762  0.1693 -0.4311  0.1335
12267W        W55361  20.892  29.950  22.763  0.3075 -0.2863 -0.1547
12268W        W55362  24.296  32.872  22.078 -0.0323  0.0580  0.3388
12269W        W55363  25.647  30.244  20.732 -0.0023  0.0918 -0.0726
12270W        W55364  22.637  27.810  22.799  0.3098 -0.1337 -0.0213
12271W        W55365  25.335  28.827  20.767  0.1813  0.1145  0.1510
12272W        W55366  22.692  32.268  20.431 -0.0005 -0.0097  0.1114
12273W        W55367  24.564  32.781  20.476  0.1253  0.4724  0.0312
12274W        W55368  25.667  29.773  20.791  0.1182  0.2719 -0.2765
12275W        W55369  23.916  32.245  19.553  0.2833  0.1756  0.1165
12276W        W55370  22.714  30.402  22.117 -0.1763 -0.1404 -0.2178
12277W        W55371  22.297  29.828  22.121 -0.0413 -0.2578 -0.1779
12278W        W55372  24.751  29.375  22.327 -0.0425  0.0068  0.0899
12279W        W55373  23.690  29.106  21.790  0.0818  0.0765  0.0936
12280W        W55374  25.157  31.833  24.513  0.1218 -0.0489 -0.1608
12281W        W55375  22.829  28.548  20.480 -0.1714 -0.1353 -0.1690
12282W        W55376  24.346  31.297  21.079 -0.3768  0.1090  0.2127
12283W        W55377  23.920  30.738  21.697  0.2730 -0.1159 -0.2713
12284W        W55378  22.045  30.390  20.346 -0.1169  0.1363  0.1203
12285W        W55379  27.005  30.188  24.426 -0.2608 -0.0800  0.1519
12286W        W55380  24.383  32.237  21.196 -0.0510  0.1820 -0.4111
12287W        W55381  24.900  33.481  22.805 -0.3202  0.0047 -0.1577
12288W        W55382  24.925  31.209  20.454 -0.1390  0.0982 -0.0960
12289W        W55383  21.401  29.784  22.082  0.1483  0.1487 -0.0242
12290W        W55384  23.598  28.128  20.294 -0.1132 -0.1235  0.0704
12291W        W55385  22.425  32.261  21.913  0.1673  0.1642 -0.0792
12292W        W55386  22.921  31.426  21.992  0.0140  0.3595  0.1161
12293W        W55387  24.551  30.005  20.480 -0.1408  0.1048  0.0824
12294W        W55388  25.059  33.290  22.065  0.0955 -0.1617  0.2924
12295W        W55389  23.829  30.115  21.788  0.2868  0.2528  0.2864
12296W        W55390  23.743  31.701  22.500 -0.1041 -0.0129 -0.0613
12297W        W55391  26.097  29.248  25.299 -0.2148  0.4508 -0.1520
12298W        W55392  26.093  31.498  22.824 -0.2736  0.2021  0.1063
12299W        W55393  22.768  30.702  21.608  0.0531  0.1675 -0.1785
12300W        W55394  22.377  28.865  19.752 -0.0085 -0.0161 -0.1256
12301W        W55395  24.062  32.039  22.801 -0.1734 -0.2913  0.0228
12302W        W55396  21.509  32.649  20.591  0.0600 -0.3025 -0.1240
12303W        W55397  22.089  30.887  22.272 -0.1421 -0.4298  0.1256
12304W        W55398  24.041  31.966  20.563 -0.0204 -0.0708 -0.1355
12305W        W55399  25.283  31.144  23.297 -0.1781 -0.0460 -0.0463
12306W        W55400  22.195  31.321  23.595 -0.1143  0.3974  0.2161
12307W        W55401  24.513  31.028  21.475  0.2079  0.1533  0.3249
12308W        W55402  22.351  31.537  20.270  0.1703  0.1411  0.0509
12309W        W55403  21.641  32.991  21.524  0.0250 -0.0842  0.0103
12310W        W55404  24.824  29.623  20.426 -0.1912  0.2949  0.1234
12311W        W55405  24.356  29.219  20.138  0.1512 -0.0506  0.0675
12312W        W55406  24.196  31.351  23.929 -0.0463 -0.1053 -0.2203
12313W        W55407  24.021  31.098  21.366  0.1888  0.3493  0.2400
12314W        W55408  23.569  30.211  20.233  0.0985 -0.0557 -0.0293
12315W        W55409  24.500  29.234  18.617 -0.1630  0.2922 -0.1359
12316W        W55410  22.206  30.161  23.067 -0.1451  0.0391 -0.2013
12317W        W55411  24.249  31.008  19.154  0.5084 -0.0347 -0.2546
12318W        W55412  24.207  31.308  23.233  0.0856  0.0299 -0.1927
12319W        W55413  24.593  28.958  19.104 -0.1843  0.3731 -0.2290
12320W        W55414  25.353  31.041  19.269  0.3607 -0.2410  0.2892
12321W        W55415  21.810  33.082  19.494 -0.4798 -0.2042  0.5578
12322W        W55416  25.192  32.614  24.673  0.2182  0.1511  0.3189
12323W        W55417  23.803  33.704  21.886 -0.2199  0.1060 -0.0882
12324W        W55418  25.152  29.258  21.091  0.2411 -0.2455  0.0409
12325W        W55419  23.563  29.739  19.467  0.0864  0.0728  0.0596
12326W        W55420  25.080  29.974  20.126  0.0642 -0.1704  0.0157
12327W        W55421  21.722  33.979  19.790  0.0468  0.1646  0.1490
12328W        W55422  25.350  31.841  23.836 -0.2073  0.0974  0.1875
12329W        W55423  23.849  30.848  22.434 -0.2953 -0.0547  0.0113
12330W        W55424  25.021  29.115  22.672  0.0112  0.1075 -0.1571
12331W        W55425  24.877  31.336  24.623  0.0879  0.1991  0.1541
12332W        W55426  24.344  28.988  22.247  0.1490  0.1696  0.0139
12333W        W55427  25.790  30.841  22.052 -0.1729 -0.1134 -0.0727
12334W        W55428  21.446  28.905  20.193 -0.1613 -0.1714  0.3653
12335W        W55429  24.989  30.643  23.286  0.1781 -0.0074  0.1780
12336W        W55430  22.623  31.692  22.332  0.1672  0.0552 -0.1895
12337W        W55431  22.883  32.041  22.099  0.0910  0.0708  0.0753
12338W        W55432  24.511  32.249  23.115  0.0914 -0.2047  0.2623
12339W        W55433  25.185  30.329  21.498 -0.0827 -0.0668  0.4039
12340W        W55434  22.887  29.037  22.648  0.0334  0.0951  0.1669
12341W        W55435  26.237  30.101  22.488  0.1428  0.2001  0.2358
12342W        W55436  23.536  33.577  20.234 -0.1178 -0.0967  0.1094
12343W        W55437  21.846  30.952  19.699 -0.3054 -0.0181 -0.0773
12344W        W55438  23.834  29.074  22.445 -0.0241  0.0885 -0.0091
12345W        W55439  23.591  33.111  22.486 -0.2053 -0.0820  0.1143
12346W        W55440  23.384  31.663  20.146 -0.3765 -0.1969  0.0718
12347W        W55441  24.220  30.155  23.387  0.1592 -0.0267 -0.1667
12348W        W55442  21.222  32.132  21.295 -0.0252  0.1679  0.1459
12349W        W55443  25.212  30.845  22.843 -0.4187  0.1457  0.2795
12350W        W55444  22.442  31.135  21.630 -0.0486  0.1488  0.0393
12351W        W55445  22.957  29.851  20.466  0.0316 -0.0984  0.1463
12352W        W55446  24.040  30.969  20.882  0.2108  0.1132  0.0737
12353W        W55447  25.753  29.597  23.361 -0.0771 -0.4258  0.0204
12354W        W55448  24.401  31.175  20.229  0.1672  0.0477 -0.0678
12355W        W55449  21.048  29.503  21.665  0.0680  0.1182 -0.1232
12356W        W55450  24.410  28.155  19.980  0.1780  0.1645 -0.2722
12357W        W55451  21.672  32.814  23.017 -0.0504  0.0397  0.3035
12358W        W55452  24.259  32.497  22.757  0.3022  0.0375 -0.0878
12359W        W55453  24.860  28.450  19.979  0.1092 -0.2061 -0.0456
12360W        W55454  25.228  31.966  22.140  0.2282 -0.3486  0.0344
12361W        W55455  23.603  30.130  23.484 -0.3890  0.1937 -0.1502
12362W        W55456  20.742  28.145  21.583  0.3910  0.3369  0.0144
12363W        W55457  24.845  32.004  23.524 -0.0394 -0.3036 -0.1752
12364W        W55458  22.746  29.296  21.478  0.1071 -0.0711 -0.0344
12365W        W55459  21.265  30.810  20.737  0.1032  0.0071 -0.1145
12366W        W55460  24.534  31.744  21.368  0.0669  0.0600 -0.0331
12367W        W55461  23.412  30.500  21.607  0.5288 -0.1295 -0.1746
12368W        W55462  22.200  31.317  19.846 -0.1933  0.0196  0.2269
12369W        W55463  21.797  30.421  24.262  0.2280  0.1888  0.1424
12370W        W55464  27.481  30.533  22.185  0.0642  0.3708 -0.1459
12371W        W55465  22.956  29.556  21.992  0.1246 -0.2562  0.1295
12372W        W55466  23.497  29.566  20.396 -0.0749 -0.5400 -0.3715
12373W        W55467  23.245  29.537  20.880  0.1781 -0.0912 -0.1359
12374W        W55468  24.376  30.793  22.461  0.1294  0.1517  0.0633
12375W        W55469  22.282  30.583  23.436  0.1367  0.0998  0.1851
12376W        W55470  23.086  32.463  20.701 -0.2312 -0.2232 -0.1033
12377W        W55471  23.933  29.240  21.168 -0.1111 -0.5531 -0.2052
12378W        W55472  23.571  33.407  21.507  0.0154  0.0946  0.1358
12379W        W55473  24.264  29.996  22.139  0.3098 -0.2000  0.2325
12380W        W55474  23.193  32.030  19.738  0.2303 -0.2317  0.3558
12381W        W55475  23.588  30.012  20.798  0.1216 -0.0259  0.1524
12382W        W55476  23.933  31.679  20.006  0.1991  0.2776 -0.3656
12383W        W55477  23.638  31.071  23.051  0.0102  0.1480 -0.2025
12384W        W55478  23.308  31.984  21.649 -0.0580  0.1101 -0.1186
12385W        W55479  22.015  31.784  19.682 -0.0168 -0.0380  0.2929
12386W        W55480  23.200  32.066  21.137 -0.0681 -0.3418  0.0035
12387W        W55481  26.547  29.489  21.245  0.1748 -0.0142  0.0216
12388W        W55482  24.240  33.766  19.650  0.3634 -0.1298  0.1388
12389W        W55483  23.049  29.778  21.364 -0.0246 -0.3196 -0.2185
12390W        W55484  25.221  30.309  25.381  0.0745 -0.2308 -0.0208
12391W        W55485  24.015  30.872  20.084  0.0434  0.2039  0.1121
12392W        W55486  25.700  30.526  24.176  0.2350 -0.1968  0.4118
12393W        W55487  23.530  28.388  21.754  0.2754 -0.0256 -0.1447
12394W        W55488  23.677  31.384  21.021 -0.0760  0.2575  0.0449
12395W        W55489  21.974  29.533  22.881  0.0458  0.2034  0.0123
12396W        W55490  25.858  32.662  23.258  0.0540  0.0021  0.1967
12397W        W55491  23.653  29.552  22.559  0.1632  0.3043  0.0837
12398W        W55492  24.654  29.369  21.430 -0.2036  0.0874  0.0986
12399W        W55493  23.233  28.088  20.620  0.0162  0.1673 -0.0480
12400W        W55494  23.596  30.535  22.133  0.0921 -0.2232 -0.0284
12401W        W55495  25.278  32.107  21.238  0.1390  0.0987 -0.4572
12402W        W55496  22.763  30.804  19.959  0.3907 -0.3461  0.1259
12403W        W55497  25.837  29.699  21.599 -0.1540  0.1007 -0.2246
12404W        W55498  22.300  30.405  22.414  0.0403  0.2659  0.2558
12405W        W55499  24.618  31.620  21.878  0.2109 -0.2690  0.1331
12406W        W55500  20.901  32.419  19.976 -0.3032  0.1673 -0.2657
12407W        W55501  22.748  30.983  21.118 -0.2452 -0.1067 -0.1570
12408W        W55502  23.367  27.692  22.344  0.5829 -0.1699  0.0359
12409W        W55503  24.743  29.852  22.270 -0.0459  0.0623  0.3391
12410W        W55504  24.438  31.655  22.796  0.2080  0.2452  0.1500
12411W        W55505  24.087  31.341  22.542 -0.1028 -0.1108  0.3191
12412W        W55506  25.537  30.168  23.173  0.0523 -0.1352  0.0711
12413W        W55507  23.139  30.178  23.127  0.0989  0.3106 -0.2546
12414W        W55508  22.347  29.660  23.225 -0.2865  0.0806 -0.1140
12415W        W55509  23.934  32.765  22.415 -0.2586 -0.2416 -0.1803
12416W        W55510  25.908  30.953  21.631 -0.2619 -0.0861  0.1965
12417W        W55511  26.636  30.748  22.816  0.1654 -0.0312  0.3740
12418W        W55512  24.956  30.894  21.617  0.0873  0.1758 -0.1995
12419W        W55513  24.397  28.707  20.120  0.2023  0.1431 -0.3321
12420W        W55514  22.856  30.238  21.345  0.0441  0.0576 -0.2511
12421W        W55515  26.018  30.019  24.073  0.0019  0.0305  0.0667
12422W        W55516  23.435  28.894  21.185  0.1029  0.2787 -0.0649
12423W        W55517  25.535  29.120  24.315 -0.1755  0.4355 -0.0596
12424W        W55518  23.798  32.768  19.408 -0.1742  0.1893 -0.3726
12425W        W55519  23.995  31.571  21.534 -0.0113  0.2686 -0.0060
12426W        W55520  24.392  30.620  20.384  0.3991 -0.1322 -0.0390
12427W        W55521  22.290  29.083  21.007  0.1192 -0.3004  0.1386
12428W        W55522  23.115  33.988  22.459 -0.0808 -0.3172 -0.0797
12429W        W55523  22.468  28.498  20.070  0.2145 -0.2229 -0.0690
12430W        W55524  22.550  30.707  19.151  0.1286 -0.0412  0.2429
12431W        W55525  23.783  31.581  23.006  0.1719  0.0716  0.1954
12432W        W55526  25.628  32.688  22.795  0.2869  0.1216  0.0168
12433W        W55527  23.987  29.042  19.834  0.3991  0.0711  0.1244
12434W        W55528  25.017  32.227  23.094 -0.3022 -0.2710  0.1047
12435W        W55529  21.992  31.289  20.482  0.0086 -0.1053  0.0993
12436W        W55530  24.333  27.727  22.389  0.0977  0.0173 -0.1338
12437W        W55531  22.525  31.680  21.825 -0.2050 -0.1184 -0.3685
12438W        W55532  22.746  30.807  22.563 -0.2778  0.0994  0.0694
12439W        W55533  22.250  31.100  21.180  0.2109  0.3412 -0.2292
12440W        W55534  24.321  29.556  22.393 -0.0147  0.0582  0.0526
12441W        W55535  25.079  30.361  22.371 -0.0194  0.1566 -0.5550
12442W        W55536  23.268  31.181  20.988  0.3059  0.3459 -0.2169
12443W        W55537  26.218  31.025  23.009  0.0921  0.1466 -0.1712
12444W        W55538  24.142  32.449  21.816  0.1057 -0.0672 -0.0390
12445W        W55539  24.145  30.507  22.064 -0.1681  0.0755  0.2460
12446W        W55540  24.101  30.853  22.895 -0.2216  0.0138 -0.1507
12447W        W55541  23.373  31.387  22.665 -0.2116  0.2362  0.0383
12448W        W55542  23.601  31.977  23.247  0.0825  0.3739 -0.1763
12449W        W55543  21.783  31.541  22.918  0.1091 -0.2431  0.3778
12450W        W55544  23.706  28.981  23.534 -0.1776 -0.2541 -0.1291
12451W        W55545  23.630  31.086  21.995  0.1306  0.2049  0.0011
12452W        W55546  24.190  29.089  21.686 -0.1070  0.0277 -0.1892
12453W        W55547  24.481  31.496  20.573  0.1873  0.1871 -0.3308
12454W        W55548  21.983  31.015  22.938 -0.2693 -0.0609  0.0094
12455W        W55549  23.258  30.811  22.715 -0.0250  0.0887  0.0686
12456W        W55550  22.844  33.350  19.733  0.1472  0.2999  0.0284
12457W        W55551  25.817  31.223  21.257 -0.1152 -0.1838 -0.3114
12458W        W55552  23.510  31.271  20.527 -0.1922  0.2906  0.0392
12459W        W55553  22.695  32.992  21.311  0.1893 -0.3786 -0.2367
12460W        W55554  24.159  30.012  20.849  0.0117 -0.2143  0.3942
12461W        W55555  22.928  31.896  20.656 -0.1007  0.0170  0.3234
12462W        W55556  21.387  33.114  19.810  0.1703  0.0377 -0.0241
12463W        W55557  24.907  32.793  20.949  0.0578 -0.2819 -0.0695
12464W        W55558  22.501  33.062  19.950  0.1191  0.1079  0.0331
12465W        W55559  25.379  31.891  23.257  0.0596  0.1698 -0.2562
12466W        W55560  26.109  28.549  18.473 -0.2393  0.1170  0.0668
12467W        W55561  25.803  30.158  21.913 -0.2647 -0.0109 -0.1550
12468W        W55562  25.556  31.712  21.029 -0.0862  0.4147 -0.1068
12469W        W55563  24.611  31.128  22.857  0.0048  0.3409  0.0283
12470W        W55564  24.510  30.740  23.182 -0.3218 -0.3912 -0.1370
12471W        W55565  22.652  29.133  20.081 -0.1045  0.0112 -0.2854
12472W        W55566  23.149  30.989  22.227 -0.0265  0.0207  0.0776
12473W        W55567  25.290  30.598  24.468  0.2179 -0.2718  0.0608
12474W        W55568  22.631  33.330  23.085 -0.1309  0.0790 -0.0988
12475W        W55569  25.669  33.466  20.135 -0.0925 -0.2544  0.1671
12476W        W55570  20.659  29.856  20.606  0.0489 -0.0730 -0.0953
12477W        W55571  21.821  29.974  22.245  0.0334  0.4255  0.0155
12478W        W55572  26.836  30.162  20.837 -0.2638  0.1091  0.4156
12479W        W55573  23.326  30.134  19.073  0.2735 -0.0562  0.0860
12480W        W55574  24.720  30.327  21.323 -0.0604  0.1510  0.0424
12481W        W55575  23.621  31.733  19.606 -0.0065  0.0194 -0.0620
12482W        W55576  23.535  32.217  20.627  0.1186  0.2352  0.0748
12483W        W55577  23.373  32.834  20.695 -0.0229  0.1452 -0.2603
12484W        W55578  22.207  27.924  21.486  0.0440  0.3647  0.1360
12485W        W55579  25.275  30.527  21.006 -0.2455 -0.3485  0.0804
12486W        W55580  21.452  29.868  20.595  0.1453 -0.2513 -0.0368
12487W        W55581  25.138  30.297  24.102 -0.0679  0.3165 -0.0071
12488W        W55582  23.129  30.682  21.264  0.1649  0.3879  0.1370
12489W        W55583  25.526  29.270  20.693 -0.0905  0.1497 -0.2828
12490W        W55584  23.118  30.346  22.574  0.2283  0.2415  0.0927
12491W        W55585  22.762  29.945  22.400  0.3083 -0.2011  0.1774
12492W        W55586  25.339  28.872  20.024  0.0238  0.0022 -0.1349
12493W        W55587  26.281  30.878  24.590 -0.2141 -0.0082 -0.0112
12494W        W55588  24.407  30.705  19.834  0.0031 -0.1535  0.0992
12495W        W55589  24.457  33.000  22.683  0.2794  0.0349  0.2354
12496W        W55590  22.168  29.903  22.577 -0.2814 -0.1433 -0.0786
12497W        W55591  24.345  29.581  20.592 -0.2333 -0.1116 -0.4122
12498W        W55592  23.120  31.536  19.644  0.2840  0.0394  0.0927
12499W        W55593  22.849  31.297  22.515 -0.3708 -0.1532 -0.1906
12500W        W55594  25.514  32.732  23.647  0.0775 -0.2977  0.0402
12501W        W55595  21.829  27.230  20.119 -0.1554  0.1344  0.0222
12502W        W55596  25.499  30.417  19.139  0.2323  0.0463 -0.1949
12503W        W55597  25.904  31.287  22.383  0.2380 -0.0577 -0.0483
12504W        W55598  24.279  32.622  19.404 -0.0959  0.1626 -0.1164
12505W        W55599  24.547  31.369  22.422 -0.4345  0.5473  0.0124
12506W        W55600  24.428  32.676  20.925  0.0867  0.1875 -0.4133
12507W        W55601  22.335  30.223  21.827 -0.0485  0.0604 -0.0675
12508W        W55602  23.782  33.646  21.141  0.4137 -0.0686 -0.0967
12509W        W55603  25.002  33.008  22.621  0.0357 -0.2543  0.0337
12510W        W55604  24.530  28.923  20.557 -0.3167 -0.0362  0.0351
12511W        W55605  22.533  28.734  22.359 -0.0853  0.1105 -0.1071
12512W        W55606  22.995  31.424  20.435 -0.1622 -0.0381  0.0544
12513W        W55607  25.880  31.932  23.161  0.1093  0.1437 -0.0621
12514W        W55608  24.770  30.665  24.119 -0.3309  0.0864  0.3443
12515W        W55609  24.891  31.882  20.446 -0.0804  0.0816  0.3159
12516W        W55610  26.107  30.495  22.901 -0.2876  0.1161 -0.1904
12517W        W55611  23.628  32.949  21.201 -0.2094 -0.2015 -0.0051
12518W        W55612  22.635  32.689  21.740  0.0626  0.1661  0.2849
12519W        W55613  23.538  31.233  19.395  0.2112 -0.1881 -0.1403
12520W        W55614  24.331  30.390  22.886 -0.1904 -0.0616 -0.1883
12521W        W55615  23.976  31.304  20.423  0.3365 -0.0395  0.1673
12522W        W55616  22.850  31.810  20.066 -0.0212 -0.2271  0.0667
12523W        W55617  25.185  32.500  22.045  0.2089 -0.0569  0.0832
12524W        W55618  23.564  30.809  20.812 -0.2168 -0.1515 -0.1235
12525W        W55619  24.671  32.534  21.828  0.3258  0.1494 -0.4746
12526W        W55620  26.132  30.829  22.512  0.0597  0.0615 -0.1878
12527W        W55621  25.938  28.208  21.620 -0.1189 -0.3613 -0.0641
12528W        W55622  25.055  29.205  20.582 -0.0178 -0.0189 -0.1408
12529W        W55623  23.490  32.004  23.805  0.0512 -0.2975  0.1957
12530W        W55624  22.936  30.072  21.795 -0.1849  0.1744 -0.2403
12531W        W55625  21.877  31.360  18.782 -0.0785  0.0978 -0.4727
12532W        W55626  22.569  32.524  20.836  0.2623 -0.2585  0.2445
12533W        W55627  25.205  29.980  22.872 -0.0719 -0.0882  0.3026
12534W        W55628  22.955  28.272  23.091  0.2029  0.1217  0.2514
12535W        W55629  22.907  31.524  20.993  0.2129  0.0343 -0.3005
12536W        W55630  22.037  29.794  21.539 -0.1776 -0.0088  0.0750
12537W        W55631  25.975  32.527  19.932 -0.1883 -0.1272 -0.0913
12538W        W55632  21.117  29.642  22.452  0.1241  0.3833 -0.1190
12539W        W55633  22.850  27.921  21.418 -0.4477 -0.0729 -0.2811
12540W        W55634  23.395  31.730  20.687 -0.3599  0.3684 -0.3060
12541W        W55635  25.181  31.579  21.850 -0.1546 -0.4802 -0.3245
12542W        W55636  25.956  30.208  21.435 -0.1851  0.0248  0.1968
12543W        W55637  26.876  33.846  22.653  0.3909  0.2548  0.2866
12544W        W55638  22.502  30.990  20.624  0.1252  0.0272  0.0436
12545W        W55639  22.765  30.672  23.212  0.2303 -0.1156 -0.2318
12546W        W55640  23.234  28.923  23.900 -0.1708 -0.1692  0.2615
12547W        W55641  21.507  29.270  21.528 -0.0973 -0.1645 -0.1260
12548W        W55642  24.920  30.946  22.462 -0.1575 -0.0894  0.1399
12549W        W55643  23.130  30.850  20.514 -0.1659 -0.1324  0.2364
12550W        W55644  24.097  32.185  20.059 -0.0739 -0.1324 -0.1525
12551W        W55645  23.502  31.570  22.035  0.2475 -0.0665 -0.1436
12552W        W55646  24.037  32.343  23.230  0.2894 -0.1959 -0.0144
12553W        W55647  22.834  29.040  23.217  0.0977 -0.0293 -0.2334
12554W        W55648  26.318  30.808  21.045  0.3105 -0.0118 -0.1331
12555W        W55649  21.668  31.030  22.462  0.0215  0.0236  0.0545
12556W        W55650  24.877  31.992  19.934  0.0577 -0.2798  0.2436
12557W        W55651  26.085  29.798  22.111  0.2870  0.0228  0.2700
12558W        W55652  24.266  30.150  19.629  0.1763 -0.0228  0.1865
12559W        W55653  23.914  28.274  23.033 -0.1997 -0.1864  0.1280
12560W        W55654  24.797  30.238  23.134  0.3657  0.4235 -0.1361
12561W        W55655  25.876  30.405  22.318  0.0603  0.2966 -0.1332
12562W        W55656  22.581  29.321  22.253  0.1353  0.1347 -0.3758
12563W        W55657  24.670  29.330  20.938  0.3045 -0.0138  0.0718
12564W        W55658  24.539  32.089  20.739 -0.2003 -0.0835  0.1199
12565W        W55659  23.351  31.974  22.725  0.2011  0.2642 -0.0656
12566W        W55660  23.913  29.944  20.428  0.1228  0.3587  0.0514
12567W        W55661  23.931  28.791  23.120 -0.0899 -0.1596 -0.2076
12568W        W55662  24.762  32.157  22.126 -0.3112 -0.1292  0.2984
12569W        W55663  25.078  32.379  22.528  0.0092 -0.1997 -0.2235
12570W        W55664  22.361  29.488  21.243 -0.1415 -0.3563  0.0655
12571W        W55665  23.984  33.504  20.530  0.3841  0.0118  0.3462
12572W        W55666  23.800  32.238  22.375 -0.1816 -0.2343  0.0042
12573W        W55667  24.743  33.028  23.660  0.2867  0.3322  0.1593
12574W        W55668  25.416  33.559  23.005  0.1592  0.2697  0.1408
12575W        W55669  25.479  30.718  23.238  0.1957  0.0409 -0.0694
12576W        W55670  20.734  28.171  21.007 -0.1411 -0.0925 -0.0698
12577W        W55671  23.335  30.379  20.659 -0.0728 -0.4782  0.0623
12578W        W55672  22.563  29.848  21.597 -0.0013 -0.1594 -0.1991
12579W        W55673  26.763  30.633  21.897  0.1696 -0.1061  0.0207
12580W        W55674  22.326  30.656  22.889  0.1762 -0.0408  0.3014
12581W        W55675  24.574  28.628  19.600  0.1916 -0.0277  0.1865
12582W        W55676  23.547  32.732  22.033  0.0697  0.0320  0.1108
12583W        W55677  24.616  32.186  22.613 -0.0531  0.0536  0.1299
12584W        W55678  22.292  33.071  27.577  0.0736  0.2540 -0.0663
12585W        W55679  21.372  30.961  23.513  0.2817  0.1382 -0.0726
12586W        W55680  24.715  31.143  24.164 -0.1026  0.1117 -0.0530
12587W        W55681  25.930  32.361  24.630 -0.0334 -0.1342 -0.1679
12588W        W55682  21.638  30.197  25.593 -0.0319 -0.0679 -0.1522
12589W        W55683  25.350  33.488  25.233 -0.2501 -0.0280  0.1486
12590W        W55684  21.892  28.126  27.448 -0.0783  0.2358 -0.1928
12591W        W55685  22.977  31.025  24.586  0.2433 -0.2316 -0.0785
12592W        W55686  23.221  32.395  24.996  0.0094  0.4665 -0.2218
12593W        W55687  24.836  29.568  23.664  0.2280 -0.1243  0.1332
12594W        W55688  21.568  29.812  26.684  0.0662  0.1672 -0.1669
12595W        W55689  22.850  32.431  26.204  0.0374 -0.1587  0.0456
12596W        W55690  22.014  28.687  24.850 -0.1835 -0.1802  0.0708
12597W        W55691  21.380  29.872  25.089  0.0070  0.0277  0.1926
12598W        W55692  25.117  30.917  26.632 -0.3206  0.2037  0.0699
12599W        W55693  22.737  31.558  23.310  0.2232  0.1433  0.1855
12600W        W55694  22.025  29.670  26.112  0.3096  0.3062 -0.1306
12601W        W55695  23.668  31.126  25.268  0.4512 -0.1889 -0.1192
12602W        W55696  23.918  30.838  24.895  0.2199 -0.2101 -0.0826
12603W        W55697  23.538  30.250  26.969 -0.2092  0.1718 -0.3310
12604W        W55698  22.960  30.563  25.763 -0.0461 -0.3033  0.0103
12605W        W55699  25.358  30.340  24.941  0.0596 -0.3466  0.0631
12606W        W55700  22.455  31.066  23.229  0.0840 -0.2604  0.2010
12607W        W55701  22.405  31.182  24.605 -0.3788 -0.0023 -0.4668
12608W        W55702  23.770  31.844  27.247  0.1022  0.2474 -0.2346
12609W        W55703  24.402  29.508  26.062  0.1153  0.3909 -0.1833
12610W        W55704  24.027  32.068  25.459 -0.1918 -0.1031 -0.1239
12611W        W55705  23.191  31.665  24.533 -0.0995 -0.1012  0.2207
12612W        W55706  22.952  32.885  24.981 -0.0177 -0.2738  0.0152
12613W        W55707  24.009  30.628  26.157  0.2923 -0.0617  0.2072
12614W        W55708  21.798  32.425  24.617 -0.1108 -0.3780  0.1440
12615W        W55709  22.102  32.483  27.145  0.1596  0.1096  0.1448
12616W        W55710  22.703  31.927  24.433  0.0666 -0.0311 -0.2578
12617W        W55711  24.251  33.131  25.486 -0.0216 -0.0698 -0.3158
12618W        W55712  25.136  32.444  27.558 -0.3173 -0.1797  0.0097
12619W        W55713  24.754  33.223  28.074 -0.1265 -0.0208  0.2121
12620W        W55714  23.087  32.491  22.902  0.1036  0.2626  0.0367
12621W        W55715  24.271  31.846  25.917 -0.3218  0.0413 -0.1941
12622W        W55716  23.176  34.207  27.195 -0.0735  0.0991 -0.1923
12623W        W55717  23.986  29.943  24.721 -0.0845  0.2016  0.1485
12624W        W55718  25.003  31.871  25.836  0.3586  0.1424  0.1861
12625W        W55719  23.106  31.038  21.708 -0.0119  0.0163 -0.5344
12626W        W55720  23.812  29.209  22.910 -0.0327 -0.3186  0.0414
12627W        W55721  23.280  30.850  25.600 -0.0497  0.1771 -0.1742
12628W        W55722  22.482  33.538  24.369  0.0771 -0.0129  0.1351
12629W        W55723  26.251  30.277  27.272 -0.1884 -0.3057 -0.3528
12630W        W55724  23.455  32.584  22.492  0.1798  0.1057  0.0835
12631W        W55725  24.981  30.828  24.727 -0.1877  0.1445  0.0208
12632W        W55726  22.683  30.051  23.315  0.2029 -0.0248  0.2380
12633W        W55727  24.284  31.827  23.904  0.0714  0.0823 -0.0472
12634W        W55728  23.543  30.469  25.970  0.1682 -0.0549  0.0205
12635W        W55729  23.082  32.679  24.398  0.1789  0.1811  0.1561
12636W        W55730  23.795  30.694  25.580 -0.1703  0.1022  0.0277
12637W        W55731  22.408  32.837  26.168 -0.2455  0.4726  0.1101
12638W        W55732  23.371  31.562  26.874 -0.2102 -0.3156  0.0297
12639W        W55733  25.039  30.485  26.311  0.1350  0.1565  0.0260
12640W        W55734  22.063  33.424  27.317  0.0599 -0.2954 -0.0755
12641W        W55735  22.569  30.040  24.670  0.1475 -0.1703 -0.1335
12642W        W55736  26.088  34.214  24.139 -0.0594 -0.4429 -0.0627
12643W        W55737  26.584  32.557  24.905  0.2664 -0.5198 -0.0226
12644W        W55738  24.857  32.547  23.861  0.0524  0.0339  0.2118
12645W        W55739  23.135  31.518  23.649 -0.1764 -0.1246 -0.0086
12646W        W55740  21.533  30.654  23.858  0.0449 -0.0331 -0.0903
12647W        W55741  22.209  30.893  25.488  0.4088  0.2818 -0.1136
12648W        W55742  23.890  27.982  25.221 -0.2750  0.1555 -0.0319
12649W        W55743  24.169  31.663  26.381  0.0771  0.0136  0.0297
12650W        W55744  21.089  34.495  25.815  0.2472 -0.1862  0.0038
12651W        W55745  25.633  30.052  25.601  0.1902  0.0527 -0.0985
12652W        W55746  22.797  31.934  26.212  0.0463 -0.1423 -0.1699
12653W        W55747  23.553  32.746  25.169 -0.1106  0.3262 -0.0247
12654W        W55748  24.802  31.764  22.472 -0.1354 -0.1201  0.0440
12655W        W55749  24.307  29.038  25.890  0.0483  0.1859 -0.0517
12656W        W55750  24.052  29.207  26.251  0.2183  0.2122  0.0589
12657W        W55751  22.965  31.647  22.843  0.2534 -0.2467 -0.1361
12658W        W55752  23.763  30.510  23.855  0.0974 -0.1606  0.1373
12659W        W55753  25.314  33.242  25.814  0.0185 -0.4813  0.1549
12660W        W55754  26.464  33.495  24.711  0.0063  0.2649 -0.1114
12661W        W55755  22.044  31.620  26.901 -0.2259  0.1030  0.2199
12662W        W55756  24.333  31.379  27.054  0.0113  0.4682 -0.0216
12663W        W55757  23.498  30.903  26.439 -0.2525  0.1691  0.1655
12664W        W55758  22.106  33.046  23.489 -0.2220 -0.0078  0.0824
12665W        W55759  21.481  31.102  24.170 -0.0743  0.0778 -0.1828
12666W        W55760  20.664  30.215  24.394  0.2580 -0.3666  0.0432
12667W        W55761  20.955  30.139  25.297  0.1273  0.3845 -0.1731
12668W        W55762  23.211  31.085  26.021  0.1101  0.3546  0.2153
12669W        W55763  25.522  31.404  24.003  0.0593  0.0762 -0.2427
12670W        W55764  23.060  29.961  25.439  0.2812 -0.1321 -0.2213
12671W        W55765  23.334  29.001  26.932 -0.1226  0.1275 -0.2046
12672W        W55766  23.127  31.969  23.186  0.1479 -0.2423  0.1539
12673W        W55767  26.487  33.603  23.669  0.2444  0.1935  0.3071
12674W        W55768  24.752  29.684  24.934 -0.0740 -0.0622  0.2836
12675W        W55769  24.307  32.321  22.278  0.2182  0.0423  0.5867
12676W        W55770  22.647  30.720  25.347  0.0029  0.0444 -0.0339
12677W        W55771  22.407  29.012  25.148  0.2712 -0.0430  0.0677
12678W        W55772  21.688  30.209  26.367 -0.3336 -0.1385  0.0921
12679W        W55773  22.232  29.225  24.140 -0.2051 -0.0924  0.1589
12680W        W55774  25.290  31.470  25.896 -0.3223  0.3342  0.2963
12681W        W55775  23.410  28.922  23.141 -0.2575 -0.2934 -0.0124
12682W        W55776  23.883  29.394  24.548 -0.2515 -0.1031 -0.0623
12683W        W55777  22.617  31.576  23.803 -0.3181 -0.3169 -0.2505
12684W        W55778  22.150  31.888  25.251  0.0624 -0.1317 -0.3636
12685W        W55779  24.388  29.836  26.595  0.0811 -0.1003  0.1521
12686W        W55780  24.547  33.560  24.011  0.3241  0.0498  0.1298
12687W        W55781  25.145  31.289  25.069 -0.1088 -0.0781 -0.0897
12688W        W55782  25.412  32.980  25.394  0.2315 -0.0555 -0.1905
12689W        W55783  21.651  29.350  26.395  0.0379  0.1691 -0.1674
12690W        W55784  24.395  29.265  23.793  0.2642  0.3894 -0.1021
12691W        W55785  22.845  32.935  25.875  0.1285 -0.0835 -0.3694
12692W        W55786  21.633  31.938  26.728  0.1098  0.2745 -0.1520
12693W        W55787  24.210  29.603  24.222  0.3020  0.6007 -0.1503
12694W        W55788  25.631  32.717  24.822 -0.1727  0.0296  0.0796
12695W        W55789  23.529  32.001  24.938 -0.2268 -0.0375 -0.1459
12696W        W55790  23.186  30.546  24.654  0.0083 -0.1146  0.3489
12697W        W55791  22.693  30.392  26.158  0.2436 -0.2568 -0.3024
12698W        W55792  24.954  31.625  25.357 -0.0432  0.3222 -0.2229
12699W        W55793  22.983  29.821  24.900 -0.1539 -0.0930 -0.1021
12700W        W55794  24.170  29.552  22.953  0.2131 -0.1531  0.1979
12701W        W55795  25.782  33.427  25.872  0.1425 -0.1967  0.0490
12702W        W55796  24.178  32.759  23.634 -0.0639  0.0204 -0.0547
12703W        W55797  21.821  31.991  24.294  0.1157 -0.1482  0.1412
12704W        W55798  23.857  33.002  24.860 -0.2960 -0.1750 -0.3543
12705W        W55799  26.333  30.243  26.221  0.0021 -0.3459  0.3101
12706W        W55800  22.214  30.415  27.635  0.0935  0.0986  0.1957
12707W        W55801  24.613  30.408  25.471 -0.0435 -0.0519  0.1148
12708W        W55802  22.254  31.520  23.119 -0.1142  0.1567  0.1650
12709W        W55803  22.729  33.102  27.277  0.0738  0.3672 -0.0634
12710W        W55804  23.136  30.148  25.965  0.1689  0.1388  0.0476
12711W        W55805  25.535  30.461  26.412 -0.0859  0.1134 -0.1103
12712W        W55806  24.712  32.554  26.791 -0.0910  0.0966 -0.1439
12713W        W55807  24.781  32.615  22.851  0.0899 -0.0102  0.0777
12714W        W55808  24.868  31.717  23.077  0.0184 -0.0810 -0.2638
12715W        W55809  25.093  30.119  23.564  0.0108  0.1938 -0.1996
12716W        W55810  22.219  32.691  27.884  0.1710  0.2648 -0.6617
12717W        W55811  23.842  32.469  24.844 -0.0443  0.2498  0.3654
12718W        W55812  22.825  32.881  26.408 -0.0671 -0.0857  0.1763
12719W        W55813  25.041  29.866  23.990 -0.0645  0.1112 -0.2041
12720W        W55814  25.749  32.303  23.873  0.3295 -0.0538  0.0325
12721W        W55815  22.020  31.404  25.389  0.3775  0.0132 -0.3684
12722W        W55816  23.141  30.622  26.274 -0.0643 -0.0484  0.1325
12723W        W55817  25.906  32.992  24.493  0.0381 -0.0507  0.1846
12724W        W55818  23.461  28.450  27.816 -0.0180 -0.4361  0.0410
12725W        W55819  23.325  31.476  23.202  0.0676 -0.0881  0.1101
12726W        W55820  23.970  28.673  25.132  0.1858  0.0328 -0.0572
12727W        W55821  23.832  31.609  23.662  0.0875  0.1000  0.2657
12728W        W55822  24.833  29.587  26.511 -0.0644  0.1673  0.0934
12729W        W55823  23.697  31.060  25.934 -0.1126  0.0209  0.1260
12730W        W55824  23.879  29.736  27.610  0.0190  0.5599 -0.0285
12731W        W55825  27.016  29.609  27.035  0.1237 -0.0797  0.2019
12732W        W55826  24.592  30.042  23.716  0.0204  0.0544 -0.1301
12733W        W55827  24.090  29.974  23.932  0.0808  0.3560  0.1529
12734W        W55828  22.136  28.914  22.575 -0.1010  0.0896 -0.0992
12735W        W55829  23.763  30.547  26.587  0.0483 -0.1416 -0.0841
12736W        W55830  21.918  31.724  24.779  0.1415  0.2385  0.0079
12737W        W55831  21.779  33.619  25.884  0.1882 -0.2412 -0.1792
12738W        W55832  24.207  32.218  26.316  0.1484 -0.2698 -0.1082
12739W        W55833  24.828  30.214  24.483 -0.0485 -0.3346 -0.1813
12740W        W55834  22.998  30.009  26.637 -0.0546 -0.3180 -0.0384
12741W        W55835  24.180  29.199  23.287 -0.0363 -0.4941 -0.0249
12742W        W55836  24.007  30.690  24.409  0.4799 -0.0720 -0.2025
12743W        W55837  23.621  32.343  22.904 -0.1664  0.1873 -0.0090
12744W        W55838  23.504  29.627  24.727  0.1610 -0.0592  0.3158
12745W        W55839  24.230  31.751  25.053 -0.1011 -0.1888 -0.1570
12746W        W55840  22.595  31.904  23.046 -0.1678 -0.0437 -0.1113
12747W        W55841  23.902  31.542  26.869  0.0279 -0.0283 -0.1220
12748W        W55842  22.219  32.663  24.638  0.0119  0.1403 -0.1980
12749W        W55843  25.806  29.880  26.327 -0.2523 -0.0240 -0.0315
12750W        W55844  22.054  33.120  25.922  0.0585  0.0206 -0.1592
12751W        W55845  23.446  30.625  23.107  0.0126 -0.2572 -0.1770
12752W        W55846  21.146  31.228  23.213 -0.2949 -0.1643 -0.1789
12753W        W55847  24.804  29.975  26.230  0.0834  0.0789 -0.2865
12754W        W55848  24.300  30.825  24.029  0.0273 -0.0491  0.5990
12755W        W55849  23.061  29.249  26.472  0.0159  0.2646  0.2055
12756W        W55850  22.753  28.981  27.128 -0.2396 -0.1086 -0.0446
12757W        W55851  22.314  31.759  26.252 -0.2151 -0.2535  0.1340
12758W        W55852  23.239  31.536  25.145  0.0053  0.0186  0.1111
12759W        W55853  25.431  31.101  24.696  0.2750  0.3038  0.4123
12760W        W55854  23.970  31.994  24.721 -0.1458 -0.1415 -0.0307
12761W        W55855  23.675  30.714  27.143 -0.2528 -0.2678  0.3485
12762W        W55856  21.802  30.132  23.849 -0.0027 -0.1709 -0.0005
12763W        W55857  24.295  30.861  25.466 -0.0045 -0.0122 -0.2362
12764W        W55858  22.833  30.383  24.317 -0.2906 -0.1070  0.2304
12765W        W55859  22.582  33.776  25.240 -0.4290  0.1065 -0.4698
12766W        W55860  23.465  32.317  25.429  0.0603 -0.0162  0.0031
12767W        W55861  22.433  30.945  23.761  0.1098  0.1158  0.1160
12768W        W55862  22.920  31.982  23.601 -0.0373 -0.0304 -0.0220
12769W        W55863  23.359  30.366  25.493 -0.0979  0.2839  0.0744
12770W        W55864  23.377  31.412  25.680 -0.1124  0.1044  0.0292
12771W        W55865  22.607  30.011  24.024 -0.0983 -0.2113  0.0018
12772W        W55866  23.295  30.120  24.652  0.0610  0.3349 -0.1914
12773W        W55867  23.413  29.612  23.770 -0.1859  0.2283  0.2094
12774W        W55868  25.247  29.819  25.055  0.0435 -0.0576  0.1108
12775W        W55869  24.349  29.882  25.278  0.3528  0.0635 -0.2466
12776W        W55870  22.242  33.629  27.714  0.0093 -0.0770 -0.0423
12777W        W55871  23.838  28.097  26.922  0.2104  0.0195  0.2163
12778W        W55872  25.788   0.402  24.250 -0.3563 -0.1502  0.2196
12779W        W55873  23.332  31.950  25.924  0.0255 -0.1568  0.0702
12780W        W55874  22.899  32.146  22.606  0.0097 -0.0613  0.5129
12781W        W55875  23.562  31.914  26.436 -0.1728  0.2101 -0.0396
12782W        W55876  22.976  32.285  24.066 -0.1253 -0.1273 -0.1185
12783W        W55877  23.888  30.124  25.595  0.2357  0.0567  0.2132
12784W        W55878  22.406  32.569  25.738  0.0730  0.0666 -0.0866
12785W        W55879  23.976  30.611  23.339 -0.2126  0.0199  0.1756
12786W        W55880  22.360  33.295  26.301 -0.0652  0.0663  0.1736
12787W        W55881  25.351  29.961  26.198 -0.1827 -0.0323  0.0983
12788W        W55882  24.392  32.216  25.073  0.1051 -0.0955 -0.1858
12789W        W55883  22.864  30.301  25.094 -0.1683  0.1001  0.1403
12790W        W55884  24.684  30.957  26.884 -0.0742 -0.0608 -0.0464
12791W        W55885  25.214  31.864  24.981  0.2108  0.1933  0.0364
12792W        W55886  22.733  29.681  26.287 -0.2291 -0.0865  0.3598
12793W        W55887  21.219  30.205  26.627 -0.3680 -0.1084 -0.0615
12794W        W55888  24.062  31.180  24.495  0.1240 -0.1813 -0.2139
12795W        W55889  22.649  30.925  25.873 -0.0391 -0.1917  0.1687
12796W        W55890  25.045  32.954  26.790  0.1001  0.5326 -0.1160
12797W        W55891  22.179  30.632  26.831 -0.1518 -0.1024  0.0006
12798W        W55892  24.715  31.631  24.189 -0.1387 -0.0532  0.0470
12799W        W55893  23.697  29.001  24.120 -0.4463  0.1516  0.0419
12800W        W55894  23.307  30.331  24.091 -0.1646 -0.0651 -0.0763
12801W        W55895  26.107  33.606  25.122 -0.0055 -0.2122 -0.1389
12802W        W55896  23.984  32.216  24.238  0.2396 -0.0229  0.0044
12803W        W55897  26.403  30.327  26.729 -0.1305 -0.1340  0.1503
12804W        W55898  22.843  31.349  24.939 -0.0473 -0.1614 -0.0103
12805W        W55899  24.261  30.471  25.784  0.1157 -0.1068  0.1494
12806W        W55900  24.452  30.881  24.568  0.0862  0.3298  0.0544
12807W        W55901  22.674  30.414  23.700 -0.0608  0.1827 -0.2721
12808W        W55902  23.917  29.157  25.636 -0.1519 -0.0144 -0.3487
12809W        W55903  24.560  30.981  25.872 -0.0352 -0.2834 -0.1083
12810W        W55904  24.954  30.560  27.175 -0.2177  0.0939 -0.4955
12811W        W55905  24.445  29.988  25.773 -0.2376  0.2027  0.1488
12812W        W55906  25.657  31.803  26.394 -0.0585 -0.0449  0.0058
12813W        W55907  22.881  31.863  24.921 -0.0725 -0.1363 -0.0499
12814W        W55908  22.455  31.098  25.124 -0.0229 -0.2739 -0.0581
12815W        W55909  24.354  32.905  27.043 -0.0312 -0.0944  0.0220
12816W        W55910  25.150  32.279  24.206  0.1598  0.0935  0.1833
12817W        W55911  24.718  30.049  27.305 -0.1892 -0.0731  0.5008
12818W        W55912  23.777  30.199  24.275  0.1179 -0.4386  0.0583
12819W        W55913  24.635  29.373  24.567 -0.3128  0.1613 -0.0295
12820W        W55914  22.632  30.565  24.745  0.1470  0.1003 -0.1318
12821W        W55915  25.322  32.067  27.201  0.1607  0.0624 -0.0545
12822W        W55916  22.665  30.260  22.826  0.0151  0.2083  0.0643
12823W        W55917  24.317  30.290  26.481  0.1566 -0.3871  0.3121
12824W        W55918  23.330  32.641  23.887 -0.3142 -0.1350 -0.0112
12825W        W55919  24.882  32.191  25.364 -0.0242  0.1387 -0.2492
12826W        W55920  25.019  29.756  24.514  0.0200  0.1190  0.0625
12827W        W55921  22.545  29.595  24.314 -0.0425 -0.0532 -0.2793
12828W        W55922  22.601  33.140  26.790 -0.0317 -0.1492 -0.2466
12829W        W55923  22.141  30.486  23.894  0.1060  0.1553  0.3903
12830W        W55924  23.422  31.078  23.617  0.2547  0.1859  0.0060
12831W        W55925  23.061  33.170  25.445 -0.3368 -0.3757 -0.0999
12832W        W55926  24.012  31.313  25.660  0.1401  0.1563 -0.0941
12833W        W55927  22.828  29.521  23.410  0.0251  0.1272  0.0264
12834W        W55928  25.904  30.452  25.800 -0.0505  0.2163  0.2992
12835W        W55929  21.267  31.475  23.598  0.0599 -0.0568  0.2799
12836W        W55930  23.553  29.014  26.472  0.1566 -0.1103 -0.4343
12837W        W55931  22.722  32.251  26.645  0.1856 -0.1790  0.1050
12838W        W55932  22.037  31.511  25.904 -0.2645  0.1488 -0.0435
12839W        W55933  23.423  32.846  26.586  0.0617 -0.0634  0.0309
12840W        W55934  23.223  29.025  26.013  0.3648 -0.0074 -0.0975
12841W        W55935  24.987  29.536  26.032 -0.2245 -0.1168 -0.3367
12842W        W55936  22.241  31.962  25.805 -0.1940 -0.0692  0.1121
12843W        W55937  25.437  30.940  26.101 -0.0162  0.1794  0.1579
12844W        W55938  25.141  32.474  26.488 -0.1484  0.1180 -0.2632
12845W        W55939  23.468  30.669  25.140 -0.0803  0.2120 -0.1341
12846W        W55940  23.589  31.477  24.798  0.0411  0.3654  0.2066
12847W        W55941  25.417  31.076  25.583 -0.0279 -0.2394  0.3775
12848W        W55942  21.648  32.031  25.178 -0.2849  0.1983 -0.2272
12849W        W55943  21.170  30.130  27.693 -0.0608 -0.1142  0.5061
12850W        W55944  23.645  29.476  26.497  0.1117  0.1531  0.2617
12851W        W55945  23.718  32.206  25.871  0.1195  0.0495 -0.0268
12852W        W55946  23.001  29.391  24.671  0.0369  0.4516  0.0115
12853W        W55947  22.765  31.424  24.298  0.2254  0.0897 -0.1144
12854W        W55948  22.398  34.364  27.748  0.0492 -0.0870 -0.2265
12855W        W55949  22.044  30.253  24.739  0.3801  0.1314  0.0934
12856W        W55950  23.026  32.937  23.158  0.0556 -0.0960  0.0569
12857W        W55951  24.323  32.299  24.597 -0.3442 -0.0663  0.2621
12858W        W55952  24.783  32.467  24.903 -0.1280 -0.0411 -0.1026
12859W        W55953  23.782   0.390  26.367  0.1593 -0.2751 -0.1768
12860W        W55954  24.770  29.123  25.018 -0.0480  0.1263 -0.3355
12861W        W55955  23.581  32.961  24.325 -0.0024 -0.3400 -0.1003
12862W        W55956  21.534  32.514  21.429  0.2363 -0.0056  0.1716
12863W        W55957  26.224  32.942  24.934  0.1577 -0.1479 -0.0888
12864W        W55958  24.069  32.748  24.433 -0.0764 -0.2350 -0.0323
12865W        W55959  26.596  31.037  27.660 -0.0791 -0.2136  0.1652
12866W        W55960  26.098  29.737  25.387  0.1470  0.0243  0.2751
12867W        W55961  24.500  31.867  25.448 -0.1902  0.4042  0.0233
12868W        W55962  25.199  31.088  24.214  0.1167  0.0315 -0.1248
12869W        W55963  24.308  32.036  27.183 -0.0519  0.3622 -0.2491
12870W        W55964  23.479  30.104  25.097  0.0174 -0.1455  0.0016
12871W        W55965  24.585  28.599  22.521 -0.1778 -0.1118 -0.2266
12872W        W55966  23.035  28.953  25.074 -0.0528 -0.1757  0.2533
12873W        W55967  26.398  28.771  26.553  0.2528  0.0363  0.0040
12874W        W55968  22.319  32.550  26.551  0.2026 -0.1028 -0.2960
12875W        W55969  25.342  33.730  25.678  0.2991 -0.2371 -0.1428
12876W        W55970  22.483  29.373  22.729 -0.0944  0.1961 -0.1423
12877W        W55971  23.139  31.941  25.404 -0.1598 -0.0127 -0.3240
12878W        W55972  26.113  29.455  26.224 -0.1350  0.1132  0.4309
12879W        W55973  23.952  31.073  23.638  0.3064  0.2429 -0.1355
12880W        W55974  23.821  29.734  25.186  0.1635 -0.0224 -0.0647
12881W        W55975  24.838  33.100  23.141  0.1814  0.1232  0.3974
12882W        W55976  22.734  32.035  25.687 -0.1922  0.3901  0.2918
12883W        W55977  22.459  31.336  25.647 -0.0581  0.0185 -0.1867
12884W        W55978  22.800  29.056  23.772 -0.1118 -0.2280  0.2231
12885W        W55979  26.818  30.467  24.838 -0.0847 -0.2091  0.1803
12886W        W55980  22.618  30.288  25.613  0.2661 -0.0020 -0.1910
12887W        W55981  25.511  30.107  27.284 -0.1096  0.1265  0.1931
12888W        W55982  22.357  30.408  25.117 -0.2607 -0.1922 -0.2202
12889W        W55983  24.001  29.618  25.694 -0.0082  0.1249 -0.0617
12890W        W55984  23.236  30.610  26.792  0.0604  0.2470  0.1444
12891W        W55985  22.196  30.573  25.973 -0.0313 -0.0406 -0.1818
12892W        W55986  24.372  30.272  24.834 -0.4393 -0.2615 -0.2862
12893W        W55987  24.089  30.403  25.258 -0.1407 -0.1814  0.0194
12894W        W55988  25.634  31.349  21.933 -0.0512  0.2616  0.0550
12895W        W55989  23.872  33.231  25.910  0.3276 -0.0648  0.0535
12896W        W55990  21.801  28.729  24.053  0.3432 -0.3492 -0.2340
12897W        W55991  24.949  30.636  25.781  0.2186 -0.0648  0.0225
12898W        W55992  21.612  31.213  25.809  0.2036 -0.3629 -0.0828
12899W        W55993  24.233  29.545  24.915  0.0229  0.4055  0.0006
12900W        W55994  24.222  33.349  26.331 -0.1176  0.0206 -0.1934
12901W        W55995  22.532  28.560  25.069  0.1203 -0.2825 -0.2799
12902W        W55996  25.073  31.444  23.690 -0.0165  0.0340  0.4192
12903W        W55997  24.918  31.188  25.609 -0.0990  0.0414 -0.0762
12904W        W55998  23.225  34.470  22.991  0.0136  0.0227 -0.0608
12905W        W55999  26.111  32.235  23.479  0.2846  0.0111  0.0475
12906W        W56000  25.066  32.927  25.067 -0.1410 -0.2417  0.0566
12907W        W56001  23.026  30.841  25.103  0.1141  0.0810 -0.0273
12908W        W56002  24.730  33.582  26.274 -0.0694 -0.0917 -0.1664
12909W        W56003  25.333  32.104  25.503  0.2036  0.0552 -0.0624
12910W        W56004  23.324  29.891  22.808 -0.0441  0.2395 -0.3019
12911W        W56005  22.549  29.677  26.757 -0.3353  0.2112 -0.0527
12912W        W56006  23.014  33.591  24.036 -0.1150 -0.0757  0.0088
12913W        W56007  24.577  31.469  25.846 -0.1805 -0.0911  0.2593
12914W        W56008  23.246  29.664  26.221  0.0583 -0.0559 -0.3339
12915W        W56009  24.777  32.552  24.400 -0.1023 -0.1759 -0.2747
12916W        W56010  24.471  29.414  26.912  0.1593 -0.1540  0.3528
12917W        W56011  24.159  32.448  25.918 -0.0802 -0.2172 -0.1315
12918W        W56012  22.767  32.717  27.734  0.0700  0.1045  0.1348
12919W        W56013  21.982  30.919  24.069  0.2028 -0.1833 -0.3819
12920W        W56014  23.473  32.082  26.939 -0.0116 -0.0540 -0.0654
12921W        W56015  23.585  31.977  24.433  0.0548 -0.1663 -0.0906
12922W        W56016  23.600  32.484  24.356  0.4864 -0.0714 -0.2751
12923W        W56017  24.899  32.734  25.937 -0.2324  0.1550 -0.0206
12924W        W56018  24.484  30.741  25.037 -0.2371 -0.2794 -0.1321
12925W        W56019  25.568  33.053  24.073  0.0996 -0.3786  0.3726
12926W        W56020  22.641  29.513  24.983 -0.1464 -0.1806  0.1643
12927W        W56021  24.853  28.744  26.401  0.1612 -0.0705 -0.0455
12928W        W56022  24.438  28.623  26.176 -0.2806  0.2165 -0.2171
12929W        W56023  24.452  31.833  26.787 -0.2280  0.1540  0.0925
12930W        W56024  22.667  30.868  22.070  0.1817 -0.0845  0.2448
12931W        W56025  23.982  31.463  22.044  0.2151 -0.0585 -0.0638
12932W        W56026  22.991  30.772  23.960  0.2874 -0.0405 -0.1244
12933W        W56027  22.657  28.821  27.590  0.1349  0.0228  0.1521
12934W        W56028  23.503  30.111  26.362  0.0359  0.2576 -0.3424
12935W        W56029  23.033  31.804  24.078  0.0351 -0.2407  0.0544
12936W        W56030  24.226  29.080  24.331 -0.0602 -0.0396 -0.0254
12937W        W56031  24.229  31.811  23.260 -0.1520  0.0291 -0.0622
12938W        W56032  21.362  29.242  25.995  0.2003 -0.0919  0.2107
12939W        W56033  21.787  29.460  25.140 -0.0035  0.1405 -0.0002
12940W        W56034  23.801  31.045  24.119 -0.0197 -0.3310 -0.0657
12941W        W56035  25.564  32.600  24.272  0.0311 -0.2519  0.0058
12942W        W56036  23.256  29.730  23.299 -0.1391 -0.1650  0.2963
12943W        W56037  25.226  32.309  25.937 -0.0225  0.6906  0.1304
12944W        W56038  21.632  31.254  23.233  0.1184 -0.1132  0.0315
12945W        W56039  22.902  31.736  27.226 -0.2866  0.0811  0.0280
12946W        W56040  22.339  29.993  25.943  0.3927 -0.1893 -0.0774
12947W        W56041  23.274  28.610  23.522  0.1042 -0.0010 -0.1949
12948W        W56042  24.106  31.303  24.998  0.2087 -0.0778 -0.2071
12949W        W56043  23.175  32.178  24.576  0.1650  0.1685  0.0710
12950W        W56044  24.897  33.963  25.285  0.2774  0.1819  0.0319
12951W        W56045  22.968  32.495  25.496 -0.1867 -0.0715  0.2479
12952W        W56046  23.030  32.337  27.094 -0.1853 -0.4008  0.2305
12953W        W56047  22.725  29.369  25.477 -0.0468 -0.1404 -0.1439
12954W        W56048  25.608  31.566  24.519 -0.0746 -0.2271  0.0116
12955W        W56049  24.162  31.624  27.492  0.2307  0.0677 -0.3516
12956W        W56050  25.581  32.036  24.293  0.0539  0.0695 -0.3942
12957W        W56051  26.340  29.821  26.496  0.0509 -0.1414  0.1475
12958W        W56052  25.307  29.661  25.593 -0.0361 -0.1588  0.0590
12959W        W56053  20.762  28.124  29.022 -0.3210  0.3160 -0.0000
12960W        W56054  22.905  31.229  25.533 -0.0788  0.0559  0.0884
12961W        W56055  26.088  30.974  25.910 -0.0632  0.0493  0.4664
12962W        W56056  21.776  29.407  24.235  0.1315 -0.0082  0.0025
12963W        W56057  24.344  30.277  24.324  0.0248 -0.1403  0.1574
12964W        W56058  24.340  34.286  25.329 -0.2108 -0.1605 -0.2652
12965W        W56059  22.969  31.646  25.808 -0.1500 -0.1358 -0.2371
12966W        W56060  25.386  30.369  25.905 -0.4058 -0.1313  0.2660
12967W        W56061  23.711  30.458  24.756  0.0700  0.0314  0.3448
12968W        W56062  23.237  32.458  25.924  0.2114  0.0645  0.4442
12969W        W56063  24.281  31.218  27.787 -0.1721  0.0723  0.3694
12970W        W56064  23.377  30.849  24.276  0.1128  0.1863 -0.1465
12971W        W56065  24.573  31.564  23.537  0.2713 -0.1841  0.2296
12972W        W56066  25.342  33.330  26.744  0.1972 -0.0009 -0.0264
12973W        W56067  23.780  31.677  25.920  0.2423 -0.3270 -0.1740
12974W        W56068  24.785  32.267  26.248  0.0561 -0.0135 -0.1090
12975W        W56069  24.687  31.972  24.727 -0.1711 -0.2639 -0.1101
12976W        W56070  22.108  29.526  26.583 -0.2550  0.0064  0.0449
12977W        W56071  23.796  30.175  23.029  0.0895  0.0099  0.0672
12978W        W56072  23.463  30.997  24.756 -0.0128  0.3002  0.3978
12979W        W56073  23.572  29.904  25.888 -0.0630  0.2694 -0.0577
12980W        W56074  22.950  29.412  26.946  0.1217 -0.4337  0.1394
12981W        W56075  24.904  30.139  25.060 -0.0543 -0.3100 -0.2017
12982W        W56076  25.352  32.751  26.177 -0.0859  0.1304  0.0395
12983W        W56077  23.730  31.696  25.415 -0.0883 -0.0539  0.1431
12984W        W56078  22.055  30.135  29.952 -0.1778  0.1370  0.3195
12985W        W56079  21.978  30.207  27.246  0.3178  0.2427 -0.0922
12986W        W56080  25.961  29.923  26.958  0.1918 -0.2068 -0.0167
12987W        W56081  23.640  34.264  29.018  0.1513  0.1004 -0.0159
12988W        W56082  23.353  29.671  28.260  0.3416  0.2751  0.1880
12989W        W56083  23.341  33.460  28.779 -0.0471  0.3138 -0.2355
12990W        W56084  22.253  29.664  31.930  0.1167  0.2692 -0.1170
12991W        W56085  23.804  32.432  29.489 -0.2460  0.3039  0.3672
12992W        W56086  26.261  32.706  30.006  0.1102  0.0621 -0.2456
12993W        W56087  24.750  31.374  27.575 -0.1895 -0.1798 -0.1004
12994W        W56088  22.085  29.228  30.681  0.1093 -0.1988 -0.0344
12995W        W56089  22.537  32.415  29.537 -0.1032 -0.0595 -0.0159
12996W        W56090  22.237  29.184  27.512  0.2051  0.2172  0.3460
12997W        W56091  21.143  28.006  28.607  0.1261 -0.0314 -0.0925
12998W        W56092  24.742  32.044  30.558  0.1157 -0.0893  0.2411
12999W        W56093  23.635  33.010  28.522  0.2289  0.3821  0.1523
13000W        W56094  21.377  30.851  30.119 -0.1472 -0.0346 -0.0229
13001W        W56095  23.897  29.045  29.825  0.0557  0.2027  0.0155
13002W        W56096  22.932  33.542  28.496 -0.2541  0.0911 -0.1715
13003W        W56097  22.112  29.672  29.712 -0.2361 -0.3045 -0.2108
13004W        W56098  24.716  29.940  29.213 -0.2207 -0.0484 -0.1597
13005W        W56099  23.802  31.513  27.856 -0.1048 -0.1810  0.0839
13006W        W56100  23.013  31.427  28.367 -0.1582 -0.0876 -0.0995
13007W        W56101  21.778  29.504  30.289 -0.0988  0.4485 -0.1443
13008W        W56102  23.136  30.824  31.240 -0.0518  0.2836  0.0935
13009W        W56103  23.392  30.307  28.974 -0.1947 -0.0830 -0.0675
13010W        W56104  25.498  32.373  30.652 -0.2662  0.0593 -0.3071
13011W        W56105  21.857  33.096  29.488  0.0980 -0.2603 -0.0882
13012W        W56106  24.380  32.918  29.722 -0.3507  0.0642  0.0594
13013W        W56107  24.884  29.725   0.080 -0.0889 -0.0901 -0.0432
13014W        W56108  23.256  31.752  29.418 -0.0875 -0.0552 -0.1497
13015W        W56109  21.685  33.287  28.331  0.3430  0.2394  0.1272
13016W        W56110  23.413  32.999  29.314 -0.1395 -0.0604  0.0187
13017W        W56111  24.311  32.539  28.773  0.1037 -0.1980 -0.3096
13018W        W56112  24.362  33.564  30.916  0.1069 -0.1536 -0.1180
13019W        W56113  23.445  33.204  30.022  0.1273  0.0040 -0.0520
13020W        W56114  23.338  32.313  28.805 -0.1803 -0.1718 -0.0088
13021W        W56115  23.368  33.828  30.443 -0.1292  0.0976  0.1799
13022W        W56116  22.568  31.304  29.777 -0.2509  0.1057  0.1753
13023W        W56117  23.423  31.128  28.259  0.1786 -0.0131  0.1783
13024W        W56118  23.968  31.237  28.354  0.0817  0.1446  0.0203
13025W        W56119  24.234  32.466  26.878  0.1285 -0.2263  0.0251
13026W        W56120  24.269  31.575  29.325  0.0870 -0.1031 -0.0427
13027W        W56121  22.639  33.521  29.775  0.0895  0.0109 -0.0506
13028W        W56122  21.138  30.922  27.865  0.1251 -0.2989  0.1250
13029W        W56123  25.193  29.928  31.673  0.2828 -0.3258  0.0376
13030W        W56124  22.482  32.935  28.218  0.3570  0.0226 -0.1122
13031W        W56125  24.740  31.832  27.231  0.0614  0.0328 -0.0033
13032W        W56126  23.142  31.573  26.315 -0.0716  0.2555  0.0488
13033W        W56127  25.169  28.589  29.163  0.1275  0.2572  0.1583
13034W        W56128  23.692  29.846  29.443 -0.1215 -0.0469 -0.1317
13035W        W56129  22.363  32.033  28.823 -0.0944  0.2224 -0.0749
13036W        W56130  22.484  29.385  29.832  0.1475  0.0929  0.0007
13037W        W56131  26.447  31.069  30.151 -0.2019 -0.2595  0.1699
13038W        W56132  22.499  29.906  27.683  0.2359 -0.0805 -0.3640
13039W        W56133  23.562  29.359  29.569 -0.1838 -0.1748 -0.0595
13040W        W56134  24.119  32.170  30.269 -0.0121 -0.1749  0.3777
13041W        W56135  21.804  31.646  29.348 -0.5325  0.0875 -0.1111
13042W        W56136  23.855  32.304  27.132  0.3400 -0.2246 -0.0380
13043W        W56137  23.439  32.175  28.330 -0.0995 -0.3919  0.1825
13044W        W56138  25.656  32.571  27.513  0.2529  0.1300  0.0442
13045W        W56139  23.291  30.700  28.631 -0.0480 -0.0934  0.2284
13046W        W56140  20.677  31.128  29.843 -0.1330 -0.1266  0.0704
13047W        W56141  21.405  30.564  29.610  0.2598  0.0957  0.0427
13048W        W56142  23.253  30.864  27.396  0.3067 -0.0671 -0.0356
13049W        W56143  26.758  32.692  30.421 -0.0255 -0.1438 -0.0398
13050W        W56144  22.259  31.559  29.128  0.2214 -0.2324  0.0393
13051W        W56145  24.993  30.559  28.635  0.0603  0.1098 -0.1883
13052W        W56146  23.683  30.146  27.865  0.0644  0.0809 -0.1005
13053W        W56147  26.101  32.797  30.487  0.0075 -0.1687  0.1986
13054W        W56148  24.698  31.342  28.860  0.2479 -0.1693  0.0379
13055W        W56149  23.851  30.118  28.871 -0.3950 -0.0149 -0.0212
13056W        W56150  24.580  29.359  30.435 -0.1783  0.3786 -0.0128
13057W        W56151  24.003  32.009  26.754  0.0340 -0.0224 -0.1294
13058W        W56152  24.865  31.525  28.104  0.0915 -0.2141  0.1213
13059W        W56153  26.086  31.905  30.387  0.2607 -0.3260  0.1780
13060W        W56154  24.482  32.659  26.315  0.0489 -0.1560  0.1273
13061W        W56155  22.923  31.515  29.158 -0.1618  0.0734  0.0579
13062W        W56156  22.837  30.407  30.300  0.0134  0.3046  0.1344
13063W        W56157  23.347  32.192  31.328  0.1349  0.2352  0.0420
13064W        W56158  22.643  33.367  28.006 -0.1434  0.0309  0.2175
13065W        W56159  20.971  30.391  29.172 -0.4901  0.0017  0.1142
13066W        W56160  22.672  31.630  26.712  0.0940 -0.1509  0.0513
13067W        W56161  22.491  29.416  31.149 -0.0949 -0.0524 -0.0069
13068W        W56162  24.399  32.603  30.328 -0.0050  0.1822  0.0774
13069W        W56163  24.573  30.312  28.413 -0.1966  0.1771 -0.1758
13070W        W56164  21.651  29.745  31.647 -0.0303  0.1800  0.1805
13071W        W56165  24.064  30.601  27.864  0.1563 -0.1056 -0.3068
13072W        W56166  22.923  32.262  28.437 -0.2538 -0.1537 -0.0609
13073W        W56167  25.077  33.125  28.428 -0.3597 -0.0327  0.0160
13074W        W56168  25.284  31.773  28.247 -0.0682 -0.0615 -0.1076
13075W        W56169  23.737  32.425  28.018  0.2071 -0.1151  0.1588
13076W        W56170  20.681  27.950  29.637 -0.3174  0.0524  0.2700
13077W        W56171  22.808  30.756  28.279 -0.0830 -0.3449  0.1440
13078W        W56172  21.966  30.174  31.699  0.1373 -0.1213  0.1172
13079W        W56173  21.797  28.408  29.128 -0.2321 -0.4771  0.1766
13080W        W56174  25.177  30.394  31.414  0.1310  0.0209 -0.0704
13081W        W56175  22.427  30.495  28.390  0.4341  0.3317  0.2353
13082W        W56176  23.647  31.006  27.803 -0.3732  0.0958  0.2472
13083W        W56177  22.917  30.417  28.687  0.1262  0.0361  0.1559
13084W        W56178  21.289  31.416  27.656  0.3035  0.4447  0.0230
13085W        W56179  23.631  29.767  30.832 -0.2529  0.1089  0.2382
13086W        W56180  23.732  32.417  26.544 -0.0343 -0.0502  0.2316
13087W        W56181  26.566  32.507  30.835 -0.0542  0.3186 -0.2195
13088W        W56182  25.208  32.694  30.325  0.2734  0.1250  0.0419
13089W        W56183  23.318  28.368  30.067  0.0573  0.2432 -0.0083
13090W        W56184  22.246  29.095  27.035  0.3275  0.0028  0.0503
13091W        W56185  21.639  33.553  28.997 -0.0072 -0.1114  0.0408
13092W        W56186  22.462  32.524  28.579  0.3177 -0.4040  0.0026
13093W        W56187  22.650  29.413  27.415  0.1157 -0.0272  0.1905
13094W        W56188  25.186  33.557  30.810  0.0205  0.0664 -0.0928
13095W        W56189  23.617  30.811  30.785 -0.0617 -0.4654  0.4918
13096W        W56190  22.075  31.194  29.388 -0.0368  0.1981  0.0649
13097W        W56191  23.765  29.679  29.898  0.2913  0.2710 -0.2386
13098W        W56192  24.523  31.101  29.287  0.2904 -0.0176  0.0024
13099W        W56193  23.643  30.600  28.247  0.1999  0.2446 -0.2221
13100W        W56194  21.418  29.361  28.023  0.2458  0.1397 -0.1225
13101W        W56195  25.171  34.486  30.198  0.1184 -0.0833 -0.0208
13102W        W56196  21.882  32.064  26.272  0.0095 -0.1370 -0.1174
13103W        W56197  21.524  30.166  29.046  0.0032 -0.2105  0.1815
13104W        W56198  22.086  33.372  29.115 -0.1905  0.0666 -0.0328
13105W        W56199  24.217  30.856  31.100 -0.4351  0.0272 -0.1704
13106W        W56200  22.154  31.078  31.199  0.1517  0.2907 -0.1981
13107W        W56201  24.685  30.694  31.022  0.0649  0.0660 -0.2377
13108W        W56202  21.946  30.479  28.145 -0.1189 -0.2042 -0.1507
13109W        W56203  21.869  31.010  30.044 -0.1076  0.1309  0.1446
13110W        W56204  23.013  30.352  27.234  0.0071  0.0194 -0.1305
13111W        W56205  24.728  30.472  26.699  0.1650  0.0027  0.0375
13112W        W56206  23.784  30.816  31.293 -0.2782 -0.0517 -0.2589
13113W        W56207  25.138  32.655  28.777 -0.0372  0.1716  0.2889
13114W        W56208  24.107  31.163  26.115 -0.0609  0.2072  0.1054
13115W        W56209  22.013  29.153  28.318  0.2237 -0.1668 -0.2194
13116W        W56210  21.158  33.211  31.250  0.0763 -0.1377  0.0697
13117W        W56211  24.090  32.096  28.951  0.1977  0.0487 -0.2138
13118W        W56212  23.847  31.085  29.328  0.0457 -0.1100  0.1758
13119W        W56213  22.340  30.893  27.944 -0.3084  0.1739 -0.0562
13120W        W56214  24.214  33.464  28.037  0.0214  0.2001  0.1325
13121W        W56215  22.122  31.065  30.668  0.1484  0.2664 -0.1408
13122W        W56216  24.515  31.108  30.638  0.0698 -0.0660 -0.2058
13123W        W56217  24.185  32.909  30.679 -0.0288 -0.1915 -0.1647
13124W        W56218  22.953  28.217  29.615  0.2678 -0.1456 -0.3729
13125W        W56219  22.677  30.377  26.731  0.2161  0.0452 -0.1641
13126W        W56220  24.289  28.824  30.020  0.1894  0.0929 -0.2379
13127W        W56221  21.826  32.907  27.394  0.0139  0.2430 -0.1394
13128W        W56222  24.147  30.472  28.735  0.3945 -0.0933 -0.1326
13129W        W56223  23.673  31.298  31.276  0.0804  0.1092 -0.0545
13130W        W56224  22.773  29.956  29.438  0.1611 -0.1353 -0.1048
13131W        W56225  23.912  32.541  30.497  0.3381 -0.0511 -0.0217
13132W        W56226  24.178  30.722  28.323 -0.1231 -0.3313 -0.0943
13133W        W56227  23.684  31.292  28.813 -0.2788 -0.1389 -0.3098
13134W        W56228  23.275  31.855  27.502  0.0158  0.0091  0.0949
13135W        W56229  24.325  29.606  29.130 -0.1004 -0.1674  0.0563
13136W        W56230  22.457  30.080  28.759  0.0145 -0.3638  0.1095
13137W        W56231  23.036  31.887  28.123 -0.2993 -0.0495 -0.0041
13138W        W56232  23.816  33.855  30.791  0.0555  0.0530  0.0705
13139W        W56233  24.880  32.293  30.161 -0.1630 -0.1709 -0.0701
13140W        W56234  21.245  29.956  30.632 -0.0022 -0.0030  0.3376
13141W        W56235  24.871  31.531  26.827 -0.1102  0.3725 -0.4248
13142W        W56236  22.864  33.026  28.555  0.3965  0.0947  0.3444
13143W        W56237  24.515  31.305  26.444  0.2474  0.1998 -0.1380
13144W        W56238  24.187  28.421  30.302 -0.2576 -0.1239  0.0267
13145W        W56239  23.711  32.694  28.957 -0.2683  0.2084  0.0510
13146W        W56240  22.412  31.601  27.284 -0.1601 -0.2429  0.0807
13147W        W56241  25.562  33.001  30.504 -0.1674 -0.2505  0.0752
13148W        W56242  23.605  31.408  27.381  0.0203 -0.2092  0.0315
13149W        W56243  24.193  30.100  27.713  0.0591 -0.3192 -0.1252
13150W        W56244  22.684  32.288  28.000 -0.0022 -0.0004 -0.2142
13151W        W56245  23.500  30.047  27.428 -0.1074 -0.0810  0.1812
13152W        W56246  22.945  31.259  27.256  0.1545  0.2490  0.1064
13153W        W56247  25.319  31.606  29.088  0.2351 -0.0087  0.0088
13154W        W56248  24.476  31.242  28.271  0.1459 -0.1681 -0.4134
13155W        W56249  21.668  30.317  27.648  0.1511 -0.0677  0.1701
13156W        W56250  23.324  29.264  29.142  0.0111  0.0345  0.2309
13157W        W56251  21.863  31.986  29.832 -0.1574  0.1083 -0.2260
13158W        W56252  22.865  29.853  28.900 -0.0223  0.0115 -0.4150
13159W        W56253  25.034  31.057  27.291  0.0100  0.1073 -0.0834
13160W        W56254  25.013  33.089  30.631  0.2319  0.0609 -0.1563
13161W        W56255  22.870  30.882  30.034 -0.1743  0.1818  0.1090
13162W        W56256  21.604  30.875  28.067  0.1418 -0.1835  0.2931
13163W        W56257  23.535  30.254  30.584 -0.0076  0.1273  0.0121
13164W        W56258  22.590  29.341  28.352 -0.3537  0.1173 -0.2085
13165W        W56259  22.501  33.224  28.831  0.0688 -0.0025 -0.2404
13166W        W56260  24.380  33.448  30.011  0.1909 -0.0393 -0.0170
13167W        W56261  23.111  30.438  27.716 -0.0431 -0.0116  0.1167
13168W        W56262  24.095  32.541  29.947 -0.5671 -0.0789  0.4949
13169W        W56263  22.902  29.510  30.155  0.0264 -0.3099 -0.2907
13170W        W56264  24.496  30.911  31.496 -0.1232 -0.0555  0.0299
13171W        W56265  23.217  30.651  29.771  0.0714  0.0715  0.0835
13172W        W56266  22.544  30.006  27.188  0.0828  0.0624  0.0102
13173W        W56267  23.082  30.418  29.378  0.1192  0.2941  0.3116
13174W        W56268  26.496  30.533  30.639  0.0081 -0.2856 -0.0843
13175W        W56269  22.660  30.649  29.611  0.3042 -0.0450  0.1193
13176W        W56270  22.070  31.937  31.255  0.1606  0.0084 -0.2247
13177W        W56271  24.227  30.089  29.256  0.2605  0.3826 -0.1452
13178W        W56272  25.469  31.550  27.741 -0.1191 -0.0037  0.0274
13179W        W56273  24.646  31.738  30.954 -0.0986 -0.0758  0.0693
13180W        W56274  23.673  31.883  28.720  0.2158 -0.2411  0.0878
13181W        W56275  22.524  30.972  29.247  0.0357 -0.0926 -0.0941
13182W        W56276  22.998  31.086  29.498  0.0324  0.1919 -0.0404
13183W        W56277  21.502  29.149  30.559  0.0645 -0.0915  0.1941
13184W        W56278  22.824  31.820  29.713 -0.1727  0.2583  0.0812
13185W        W56279  21.657  32.206  27.123 -0.0006 -0.0838 -0.1962
13186W        W56280  21.543  32.632  28.582 -0.0627  0.0129 -0.2494
13187W        W56281  26.224  28.259  27.223 -0.0979  0.0079  0.1450
13188W        W56282  24.190  31.183  28.970 -0.0954 -0.0815 -0.0541
13189W        W56283  23.137  30.365  28.238  0.1097  0.2215  0.0474
13190W        W56284  25.628  30.310  30.114  0.2008 -0.1372 -0.0525
13191W        W56285  24.509  32.038  27.652  0.1088 -0.1234 -0.2246
13192W        W56286  25.122  30.429  30.939 -0.1193 -0.0882 -0.3504
13193W        W56287  23.073  27.759  29.355 -0.1506 -0.0365  0.0119
13194W        W56288  25.223  31.084  29.706  0.0022  0.0846 -0.2454
13195W        W56289  20.843  29.980  30.125 -0.0942  0.0874 -0.2943
13196W        W56290  24.313  33.533  31.416 -0.2828 -0.2852 -0.0578
13197W        W56291  22.581  31.226  30.865  0.0737 -0.0266 -0.0042
13198W        W56292  24.206  30.760  26.948 -0.0567  0.0857 -0.0917
13199W        W56293  21.716  29.547  28.351 -0.0204 -0.0995 -0.2237
13200W        W56294  23.544  31.121  29.717 -0.0818  0.0581  0.1799
13201W        W56295  26.079  30.930  29.773  0.0845 -0.1402  0.1360
13202W        W56296  24.922  31.011  28.436 -0.2240  0.1095 -0.4166
13203W        W56297  24.473  30.527  29.561  0.1128  0.0319  0.1089
13204W        W56298  22.759  32.136  30.330  0.1938  0.4401  0.0932
13205W        W56299  25.280  30.717  28.166 -0.2662  0.1721  0.5204
13206W        W56300  23.849  31.054  26.807  0.0992  0.0899  0.3496
13207W        W56301  22.596  31.643  30.137 -0.0218  0.0099 -0.3692
13208W        W56302  22.474  28.058  31.315  0.2118  0.1762  0.5863
13209W        W56303  25.409  31.614  29.882  0.3345  0.3305 -0.1843
13210W        W56304  24.951  31.330  29.295 -0.2006 -0.0372  0.1052
13211W        W56305  23.393  31.216  29.252  0.2529 -0.3761 -0.2108
13212W        W56306  24.241  31.860  30.721 -0.0324 -0.2082  0.4715
13213W        W56307  23.445  30.569  30.232  0.3450 -0.1918  0.1492
13214W        W56308  22.827  29.110  31.065 -0.2055 -0.1967  0.1751
13215W        W56309  22.474  33.225  29.394 -0.0404 -0.5163 -0.0452
13216W        W56310  25.460  32.036  30.210  0.4396  0.1545 -0.4457
13217W        W56311  25.834  30.817  30.201  0.0876  0.3240  0.0312
13218W        W56312  24.959  30.909  29.002  0.0668  0.0184 -0.1403
13219W        W56313  23.998  30.086  28.367 -0.1074 -0.0993 -0.1637
13220W        W56314  22.246  30.097  28.136 -0.0185  0.2970 -0.3170
13221W        W56315  23.436  30.097  29.806  0.0440 -0.0512 -0.0866
13222W        W56316  20.657  29.730  27.106 -0.1675  0.1022 -0.0833
13223W        W56317  23.367  29.358  30.083 -0.0704  0.0229  0.3207
13224W        W56318  23.546  31.929  27.920  0.1809  0.3044  0.0315
13225W        W56319  25.178  32.032  29.791  0.1015  0.1973  0.2544
13226W        W56320  24.503  30.490  27.474  0.2333 -0.0015 -0.1819
13227W        W56321  22.582  31.002  28.652  0.0116  0.0497  0.0712
13228W        W56322  23.509  32.413  30.869 -0.2990 -0.1942  0.3106
13229W        W56323  24.240  31.758  27.974 -0.0739 -0.1793  0.3272
13230W        W56324  23.721  31.441  26.417  0.0457  0.0410 -0.1643
13231W        W56325  24.660  31.719  29.560  0.2397 -0.3707 -0.4844
13232W        W56326  24.497  32.695  31.762 -0.0780 -0.3098 -0.1154
13233W        W56327  24.342  29.581  27.868 -0.0461 -0.2505  0.0763
13234W        W56328  27.114  30.552  29.714  0.3188  0.2654 -0.1219
13235W        W56329  20.818  32.252  27.309  0.1513  0.4099  0.2252
13236W        W56330  24.041  29.510  29.551  0.5517  0.0204  0.0926
13237W        W56331  22.386  33.049  30.025 -0.0229  0.0632 -0.0769
13238W        W56332  21.761  31.407  30.835 -0.2247  0.2423  0.3456
13239W        W56333  22.674  31.582  28.744 -0.1081  0.2243 -0.0807
13240W        W56334  23.152  29.682  29.708  0.0776 -0.1826  0.0134
13241W        W56335  23.934  30.634  29.757 -0.0917 -0.3407  0.1541
13242W        W56336  22.156  29.692  27.353 -0.0113  0.0579  0.2704
13243W        W56337  25.500  31.684  31.164  0.1036  0.1790 -0.0114
13244W        W56338  25.192  31.293  31.034  0.1592 -0.0676  0.1243
13245W        W56339  23.411  30.429  31.011  0.0753 -0.2531  0.0153
13246W        W56340  24.441  31.422  29.931  0.1105 -0.0963 -0.3299
13247W        W56341  25.100  32.941  29.385  0.0829 -0.0550  0.0566
13248W        W56342  23.794  31.678  29.201  0.2787  0.2773 -0.1898
13249W        W56343  22.824  30.068   0.993 -0.1978  0.0981  0.3241
13250W        W56344  21.324  28.827  30.202  0.2649 -0.2129  0.1952
13251W        W56345  23.934  31.386  29.717 -0.1297  0.0254  0.3367
13252W        W56346  22.129  27.397  30.374  0.1039 -0.3881  0.0031
13253W        W56347  23.977  32.043  27.671 -0.0002  0.1731  0.0435
13254W        W56348  22.458  33.468  31.811 -0.0198  0.0314  0.0241
13255W        W56349  22.121  30.672  29.312 -0.0210  0.2649  0.1753
13256W        W56350  21.416  33.696  28.230  0.3119  0.0260 -0.0220
13257W        W56351  24.112  32.796  29.276 -0.3624 -0.2509 -0.0716
13258W        W56352  24.126  31.640  28.668 -0.1189  0.1583 -0.0238
13259W        W56353  22.681  31.980  29.286  0.1096 -0.2508 -0.0160
13260W        W56354  22.802  30.755  27.478  0.0613  0.3363 -0.0620
13261W        W56355  21.664  33.059  28.779 -0.0086 -0.2069 -0.2232
13262W        W56356  21.828  32.389  26.626  0.1446 -0.1471 -0.0450
13263W        W56357  23.783  32.429  28.536 -0.0650  0.0179 -0.0623
13264W        W56358  22.103  32.897  28.907 -0.2397 -0.1086 -0.0308
13265W        W56359  24.766  33.921  30.760  0.0273  0.1156  0.3027
13266W        W56360  24.689  29.548  28.783 -0.1619  0.0064 -0.1274
13267W        W56361  25.393  30.897  28.697 -0.0019  0.0622  0.1156
13268W        W56362  24.546  29.820  28.326 -0.2295 -0.0080  0.1105
13269W        W56363  24.715  33.052  31.964 -0.2692 -0.3024 -0.1556
13270W        W56364  24.059  30.627  29.232 -0.0104  0.4394 -0.0368
13271W        W56365  22.873  29.519  27.939  0.1326  0.1833  0.2031
13272W        W56366  23.415  29.380  31.026 -0.0908  0.0717 -0.1427
13273W        W56367  25.179  30.639  30.077 -0.1330 -0.2163 -0.0823
13274W        W56368  22.203  31.617  30.936  0.0341 -0.0849  0.2695
13275W        W56369  23.267  32.648  28.379  0.1218  0.0880 -0.0420
13276W        W56370  23.585  31.599  28.294 -0.0081  0.2698  0.1354
13277W        W56371  24.543  30.785  28.756  0.0214 -0.4361 -0.2298
13278W        W56372  23.996  29.663  28.701  0.2349  0.1842  0.0078
13279W        W56373  23.331  31.062  26.926  0.3470 -0.4568 -0.0623
13280W        W56374  24.034  31.223  30.623 -0.4454 -0.3680 -0.2282
13281W        W56375  22.388  33.673  28.325  0.1823  0.0380  0.1982
13282W        W56376  22.105  30.679  30.313  0.1275  0.0230  0.0785
13283W        W56377  22.970  30.800  29.023  0.2178 -0.2755  0.1251
13284W        W56378  21.350  29.501  29.314  0.1383  0.4248  0.0354
13285W        W56379  24.901  30.018  28.686  0.2512 -0.0223  0.0356
13286W        W56380  21.899  30.107  30.497 -0.0834 -0.4517  0.3226
13287W        W56381  24.307  31.010  30.180 -0.2755  0.0869 -0.1304
13288W        W56382  21.459  30.394  28.108  0.1322 -0.4332 -0.0747
13289W        W56383  25.203  33.302  28.858  0.0524  0.1525 -0.0038
13290W        W56384  25.017  31.775  30.231 -0.0719  0.3623  0.0526
13291W        W56385  22.272  30.899  29.746  0.3311 -0.0889 -0.1318
13292W        W56386  24.010  31.138  27.332 -0.1395 -0.0557 -0.0898
13293W        W56387  24.919  31.430  30.616 -0.2548 -0.1090  0.1416
13294W        W56388  23.995  30.180  26.086 -0.2556  0.3567 -0.2733
13295W        W56389  23.396  34.467  31.363  0.1897  0.2681 -0.3111
13296W        W56390  21.844  29.733  29.208 -0.3215  0.1816 -0.4146
13297W        W56391  25.016  31.429  26.329  0.1811 -0.0274  0.3374
13298W        W56392  23.047  31.382  29.957  0.0499 -0.0107 -0.1664
13299W        W56393  24.429  30.565  30.670  0.4189  0.0560  0.1610
13300W        W56394  22.979  33.456  30.112  0.0865 -0.1718 -0.0682
13301W        W56395  22.417  28.491  27.889 -0.1651 -0.3367  0.3051
13302W        W56396  25.249  32.544  27.005 -0.0992 -0.1316  0.2826
13303W        W56397  24.752  30.769  30.348 -0.1153 -0.0082  0.0009
13304W        W56398  24.671  32.575  27.677  0.0377 -0.0086 -0.3428
13305W        W56399  24.925  32.653  29.809  0.3350  0.0059 -0.0097
13306W        W56400  25.145  33.868  29.455 -0.1496  0.1287  0.2358
13307W        W56401  21.514  30.245  29.980 -0.0744  0.1335  0.3008
13308W        W56402  23.768  32.983  29.721 -0.0336 -0.2244  0.0756
13309W        W56403  24.055  32.987  30.192 -0.0920  0.1001 -0.1382
13310W        W56404  23.504  30.096  28.456  0.0287  0.0054 -0.2647
13311W        W56405  22.293  29.398  29.348  0.3170  0.2789 -0.1451
13312W        W56406  21.416  32.104  27.546 -0.1815  0.2877 -0.2364
13313W        W56407  25.417  30.943  29.224 -0.2869  0.0897 -0.0101
13314W        W56408  24.533  31.603  30.392 -0.0980 -0.2494  0.0650
13315W        W56409  23.552  32.286  27.559  0.1437 -0.0013 -0.0465
13316W        W56410  23.973  29.007  28.515 -0.2319  0.2713  0.1021
13317W        W56411  24.521  32.389  29.804  0.2172  0.3171  0.2876
13318W        W56412  21.829  33.280  31.137  0.1479  0.0032 -0.1229
13319W        W56413  23.609  30.531  27.571 -0.4074 -0.0085  0.0153
13320W        W56414  21.927  30.583  29.799 -0.2472 -0.0608  0.0753
13321W        W56415  23.092  31.833  28.746  0.1243 -0.0236  0.2714
13322W        W56416  23.768  33.374  29.117 -0.2623 -0.1650 -0.2595
13323W        W56417  25.184  33.170  29.947  0.2685 -0.0398  0.0054
13324W        W56418  25.464  31.209  28.177 -0.1437 -0.0866 -0.1787
13325W        W56419  24.696  34.111  30.139  0.0679  0.0295  0.3678
13326W        W56420  22.332  29.849  29.278  0.0783 -0.1552  0.0572
13327W        W56421  25.254  27.856  27.079  0.1421  0.2270 -0.0489
13328W        W56422  25.153  29.121  27.787  0.1211  0.0940  0.0366
13329W        W56423  22.897  31.290  30.423 -0.0647  0.2014  0.1625
13330W        W56424  21.050  31.037  27.381 -0.1035 -0.1828 -0.1637
13331W        W56425  22.863  32.223  27.554  0.0714  0.1630 -0.0576
13332W        W56426  22.987  30.220  30.794  0.0952  0.0269  0.1598
13333W        W56427  23.578  29.770  30.329  0.0835 -0.0214 -0.2620
13334W        W56428  23.905  32.136  31.141 -0.2614  0.1193 -0.1334
13335W        W56429  22.913  30.215  29.863  0.2559  0.1928 -0.1439
13336W        W56430  22.526  31.326  28.189 -0.1519  0.1748 -0.1449
13337W        W56431  23.053  33.624  27.390 -0.2121 -0.0573  0.4416
13338W        W56432  21.664  30.728  29.085 -0.1762  0.1130  0.1095
13339W        W56433  22.838  29.470  29.307  0.2248  0.3649 -0.3192
13340W        W56434  24.684  33.066  30.131  0.0327 -0.1660  0.2601
13341W        W56435  23.802  32.685  27.568  0.0386 -0.2733  0.0913
13342W        W56436  23.379  29.739  28.869  0.0482  0.1064 -0.1875
13343W        W56437  26.051  33.248  31.769  0.0786 -0.1922 -0.0958
13344W        W56438  21.980  31.485  27.473 -0.0983  0.2048  0.4528
13345W        W56439  23.912  29.141  30.930  0.1339  0.1678  0.0305
13346W        W56440  22.575  29.862  29.897 -0.0784 -0.0524 -0.3244
13347W        W56441  22.198  31.165  27.076  0.1623  0.2928  0.2025
13348W        W56442  23.483  30.773  29.233  0.3339  0.2817 -0.1761
13349W        W56443  23.174  32.376  27.945  0.0165 -0.1668  0.3241
13350W        W56444  24.581  33.082  26.612  0.1665 -0.2446 -0.2813
13351W        W56445  24.912  31.443  29.898  0.2709  0.4327 -0.0497
13352W        W56446  23.519  31.367  30.518 -0.3453 -0.2646 -0.1737
13353W        W56447  21.608  29.600   0.186  0.3650 -0.2331  0.3696
13354W        W56448  23.697  32.061  30.533 -0.0764 -0.0513 -0.0315
13355W        W56449  23.337  31.038  30.193  0.1909 -0.1884  0.0463
13356W        W56450  24.425  33.321  30.518  0.0726 -0.2293 -0.3064
13357W        W56451  24.654  30.459  29.110  0.0245 -0.0588 -0.4527
13358W        W56452  24.084  31.937  29.690  0.0535  0.1051  0.1844
13359W        W56453  21.137  28.100  29.446  0.1962 -0.1717  0.1170
13360W        W56454  21.588  31.135  30.498 -0.0768  0.2515  0.0892
13361W        W56455  26.780  30.612  30.183  0.1844 -0.1132 -0.1002
13362W        W56456  22.352  30.230  29.562  0.1807  0.1046 -0.0286
13363W        W56457  23.496  29.139  27.768  0.0533  0.3213  0.2282
13364W        W56458  23.571  32.089  29.711 -0.1343  0.0272  0.2675
13365W        W56459  22.413  30.280  30.512 -0.1568 -0.0865 -0.2853
13366W        W56460  24.752  30.911  27.944  0.1648 -0.0683 -0.2160
13367W        W56461  24.021  30.020  30.567 -0.0457 -0.0085  0.0045
13368W        W56462  24.008  31.584  30.224 -0.2400  0.0511 -0.2065
13369W        W56463  23.610  32.751  30.186 -0.2147  0.0497  0.1018
13370W        W56464  23.052  31.010  27.846  0.1640  0.1602 -0.1348
13371W        W56465  24.506  31.824  28.987  0.0394 -0.0647 -0.0114
13372W        W56466  23.876  34.245  29.594  0.0606  0.0784 -0.2916
13373W        W56467  25.411  33.180  31.191 -0.3124 -0.1224  0.0756
13374W        W56468  23.706  32.989  30.597  0.0177 -0.2803  0.3786
13375W        W56469  25.282  31.852  30.718 -0.1896 -0.1032 -0.0728
13376W        W56470  21.819  29.185  29.326 -0.1646 -0.0742  0.1095
13377W        W56471  23.768  30.764  28.801  0.0795 -0.1896  0.1708
13378W        W56472  23.193  32.790  28.888 -0.3242  0.1142 -0.2672
13379W        W56473  23.819  31.141  30.120 -0.0383  0.2762 -0.1988
13380W        W56474  23.621  28.693  28.600  0.0640 -0.0395  0.2311
13381W        W56475  23.772  29.304  27.427 -0.0370 -0.2794  0.1368
13382W        W56476  22.284  32.064  30.524 -0.0871 -0.0947 -0.4488
13383W        W56477  24.289  30.424  31.515 -0.1433 -0.0867 -0.1674
13384W        W56478  24.628  28.893  31.744  0.0263  0.0239  0.1452
13385W        W56479  24.773  31.295   0.335 -0.1747  0.2466  0.1327
13386W        W56480  23.519  29.629  31.442 -0.0188  0.1263 -0.0851
13387W        W56481  21.792  32.255   0.311 -0.0162  0.0537 -0.0765
13388W        W56482  22.962  31.956  31.484 -0.4008 -0.0741  0.4179
13389W        W56483  23.534  32.607  31.628 -0.0221  0.2891 -0.1201
13390W        W56484  23.110  29.920  30.231  0.2953 -0.0070  0.0036
13391W        W56485  22.402  30.640  31.475 -0.2473  0.3416  0.1811
13392W        W56486  25.259  29.633   0.493  0.1971  0.1113  0.1309
13393W        W56487  25.746  32.837  30.960  0.1787  0.2102  0.1202
13394W        W56488  24.431  33.841  30.428  0.0584  0.0924 -0.1630
13395W        W56489  21.801  29.974  31.153  0.1162 -0.1161 -0.2649
13396W        W56490  24.991  31.774  31.371 -0.0533 -0.3598  0.0021
13397W        W56491  23.480  32.913  31.230 -0.1838  0.1849 -0.2075
13398W        W56492  24.116  31.225  31.472 -0.0616  0.2593  0.0681
13399W        W56493  23.167  32.198  30.592 -0.0647 -0.4629 -0.0415
13400W        W56494  23.375  30.769   0.047  0.3446 -0.0062 -0.2758
13401W        W56495  26.075  33.275  30.927 -0.1474 -0.1339 -0.1389
13402W        W56496  21.833  30.706  31.351  0.3106  0.0577  0.0033
13403W        W56497  22.537  30.225   0.130 -0.2673 -0.1366 -0.4584
13404W        W56498  22.181  30.635  30.919  0.1195  0.1525 -0.0627
13405W        W56499  22.419  33.699  30.774  0.3873 -0.2828 -0.0807
13406W        W56500  25.789  29.301  30.457  0.0004 -0.0600 -0.2983
13407W        W56501  24.412  29.774  30.785 -0.1548  0.3717  0.0897
13408W        W56502  23.039  28.704  30.732  0.0303 -0.2646  0.0524
13409W        W56503  23.845  30.259  30.148  0.2325 -0.2139  0.1033
13410W        W56504  23.245  31.508  31.247 -0.0705  0.0242  0.1184
13411W        W56505  21.625  32.034  31.433 -0.0036 -0.0073  0.0840
13412W        W56506  22.406  30.479  30.012 -0.0246  0.0539 -0.2504
13413W        W56507  23.971  30.433  30.892  0.4038 -0.0964 -0.1727
13414W        W56508  22.054  31.630  30.337 -0.0100  0.0524  0.0474
13415W        W56509  23.808  32.170  31.679  0.1770 -0.1664 -0.1129
13416W        W56510  23.833  31.796   0.044  0.3803 -0.1440  0.2347
13417W        W56511  26.035  29.222  31.896 -0.2265 -0.1225  0.0563
13418W        W56512  21.704  30.547  31.885  0.0722 -0.3786 -0.0803
13419W        W56513  23.103  30.763  30.559 -0.0781 -0.2962 -0.1306
13420W        W56514  23.040  32.959  30.894  0.0388  0.0726 -0.0024
13421W        W56515  22.662  29.886  30.411 -0.1556  0.2388 -0.1346
13422W        W56516  24.282  30.960  31.940  0.2020 -0.1018  0.1685
13423W        W56517  23.846  30.210  31.731  0.2565 -0.0471 -0.3027
13424W        W56518  23.741  30.052  31.289 -0.2355  0.2601 -0.2589
13425W        W56519  24.777  30.893   0.674 -0.0291  0.0968 -0.1258
13426W        W56520  22.526  31.176   0.522 -0.1706 -0.5024 -0.0067
13427W        W56521  23.400  33.512  29.404  0.2663  0.1184 -0.0521
13428W        W56522  20.399  30.062   0.433  0.2009 -0.2893 -0.0615
13429W        W56523  24.045  32.750  31.536  0.3088 -0.0389 -0.3818
13430W        W56524  23.563  28.394   0.096 -0.4296 -0.1751  0.0707
13431W        W56525  24.270  32.298  31.470 -0.1128  0.1461  0.1486
13432W        W56526  24.301  32.419  30.850 -0.1967  0.2057  0.0766
13433W        W56527  20.622  32.657  29.836 -0.2527 -0.1117 -0.0621
13434W        W56528  23.788  33.479  29.791  0.4447 -0.0260 -0.1342
13435W        W56529  25.629  29.782  31.611 -0.0898  0.1561  0.0605
13436W        W56530  22.185  29.772  30.311 -0.0578 -0.1234  0.0981
13437W        W56531  24.257  30.983  29.688 -0.0146 -0.3397  0.1923
13438W        W56532  22.690  31.102  31.366  0.1705  0.0927 -0.3756
13439W        W56533  23.964  29.233   0.512  0.0040  0.1663  0.4177
13440W        W56534  25.679  32.878  30.050 -0.1239  0.2604  0.1615
13441W        W56535  23.637  32.948   0.296  0.3948 -0.0954  0.0481
13442W        W56536  23.407  33.489  30.835 -0.1195  0.2665 -0.3522
13443W        W56537  22.703  32.497  30.647  0.2712  0.2046  0.0674
13444W        W56538  22.055  30.958  31.735  0.2457 -0.0230  0.0089
13445W        W56539  22.330  32.260  30.994  0.0229 -0.0265  0.0756
13446W        W56540  22.566  30.836  30.441  0.1139 -0.1409 -0.2767
13447W        W56541  21.327  29.769  31.140  0.1396  0.1572  0.0799
13448W        W56542  23.903  33.226  31.564 -0.4485 -0.1195 -0.1145
13449W        W56543  24.477  33.439   0.088  0.1605 -0.2121  0.0139
13450W        W56544  26.027  31.947  31.562  0.0114  0.0203  0.1010
13451W        W56545  23.484   0.213  16.333  0.1640  0.1438  0.1571
13452W        W56546  24.892  32.752  15.416  0.4084 -0.0913 -0.2665
13453W        W56547  25.263   0.583  17.666  0.2262  0.2122 -0.1894
13454W        W56548  21.639  33.057  16.721  0.4023 -0.0462  0.3083
13455W        W56549  22.889  32.454  18.538  0.0349  0.1071  0.0726
13456W        W56550  24.095   1.369  16.103  0.0870 -0.2939  0.0984
13457W        W56551  24.320  33.906  17.558  0.1563 -0.1911  0.1228
13458W        W56552  23.167  32.974  17.290 -0.2420 -0.0484  0.2460
13459W        W56553  22.306  32.408  17.883  0.1108  0.1860 -0.0645
13460W        W56554  25.213  34.118  17.911 -0.0335 -0.1089  0.0385
13461W        W56555  22.374   0.234  15.938  0.2952 -0.4869 -0.0742
13462W        W56556  22.175  33.137  18.091 -0.2244  0.1246 -0.2988
13463W        W56557  24.189  33.378  16.479  0.0969  0.0405 -0.2367
13464W        W56558  23.157  33.572  19.294 -0.1254  0.1315 -0.2311
13465W        W56559  24.931  33.247  18.880 -0.2306 -0.0371  0.3141
13466W        W56560  20.804  33.901  15.580 -0.1043  0.3863  0.0225
13467W        W56561  21.560   0.588  19.624  0.0223 -0.2073 -0.0672
13468W        W56562  22.958   0.549  18.743  0.1036  0.1682  0.0386
13469W        W56563  25.822  33.056  18.179 -0.0312 -0.1079 -0.1349
13470W        W56564  25.032  34.408  17.007 -0.0031 -0.2651  0.1251
13471W        W56565  25.187   0.663  19.609  0.2936 -0.1239  0.0479
13472W        W56566  24.933  34.305  19.064  0.1331 -0.2961 -0.0678
13473W        W56567  23.004  34.488  17.744 -0.0699 -0.3784 -0.1349
13474W        W56568  26.350   0.532  19.646  0.0207 -0.1987 -0.1925
13475W        W56569  23.935  33.641  15.665 -0.1773 -0.2607  0.0109
13476W        W56570  23.077  34.692  16.511  0.0765  0.0003  0.2331
13477W        W56571  24.810  34.199  15.498  0.0518 -0.1950 -0.1077
13478W        W56572  23.469  32.088  17.440 -0.0333  0.1639 -0.1561
13479W        W56573  23.081  32.426  17.337  0.2156  0.3929 -0.1539
13480W        W56574  24.003  34.568  17.828 -0.1305  0.0278 -0.3575
13481W        W56575  23.971  33.816  18.845 -0.1116 -0.0746 -0.2208
13482W        W56576  23.062  34.495  16.981  0.1740 -0.2364 -0.2258
13483W        W56577  22.716  33.711  17.356 -0.1694 -0.0382  0.0469
13484W        W56578  22.634   0.336  19.765 -0.2039  0.0816  0.0134
13485W        W56579  21.144  34.233  19.969 -0.2021 -0.0433 -0.0072
13486W        W56580  23.160  33.482  17.187 -0.2078 -0.2000 -0.2349
13487W        W56581  25.707  33.992  17.411  0.1731  0.0265  0.0097
13488W        W56582  23.757  33.180  16.591 -0.3172  0.0519 -0.1734
13489W        W56583  25.616  34.056  18.245  0.2971 -0.2395  0.3227
13490W        W56584  23.962  34.223  16.623 -0.1343 -0.0488 -0.0874
13491W        W56585  23.223  33.452  20.594 -0.0730  0.0539  0.0105
13492W        W56586  23.000  32.691  19.050 -0.3502  0.0913  0.0266
13493W        W56587  26.122  33.483  17.827 -0.0180  0.1849 -0.0567
13494W        W56588  22.406  31.453  18.197 -0.0718  0.1408  0.3675
13495W        W56589  24.174  32.293  16.474  0.0039 -0.2796 -0.1923
13496W        W56590  24.814  33.870  16.220 -0.1013 -0.2216  0.4633
13497W        W56591  23.057  33.995  18.621  0.1715  0.1065  0.1711
13498W        W56592  22.116  34.373  17.270 -0.0195  0.2256  0.0546
13499W        W56593  22.567  33.715  19.286  0.2478 -0.1088  0.3040
13500W        W56594  23.555  33.107  18.468 -0.3474  0.1886 -0.1453
13501W        W56595  25.848   0.373  19.549  0.1889  0.1410  0.0533
13502W        W56596  22.723  32.848  16.278 -0.1643  0.1228 -0.1115
13503W        W56597  23.465   0.566  17.245 -0.0319  0.0235 -0.0513
13504W        W56598  22.752  34.031  15.987 -0.0478 -0.0026  0.1231
13505W        W56599  24.850  34.311  19.832 -0.0774  0.1551 -0.3270
13506W        W56600  23.872  32.530  18.501  0.1166  0.0201 -0.0291
13507W        W56601  23.236  31.938  16.285 -0.0239 -0.3243  0.0191
13508W        W56602  23.818  33.126  15.559  0.0119 -0.1194 -0.0946
13509W        W56603  26.274  33.417  19.063  0.4894 -0.0409 -0.4304
13510W        W56604  24.754  34.153  17.740  0.0193 -0.5348  0.1403
13511W        W56605  24.646  33.068  16.310 -0.2135 -0.2227  0.2393
13512W        W56606  22.682  33.369  18.060  0.0041 -0.0625  0.0405
13513W        W56607  25.030  32.400  17.536  0.0135 -0.2591 -0.0120
13514W        W56608  21.960  34.159  17.887  0.1195 -0.5370  0.0634
13515W        W56609  22.798  33.806  16.812 -0.1590  0.1378 -0.1431
13516W        W56610  22.221  33.950  16.042  0.1106 -0.0345  0.0384
13517W        W56611  23.734  32.865  16.022 -0.2189  0.0972 -0.2077
13518W        W56612  25.571  34.392  16.705  0.0357 -0.1909 -0.1939
13519W        W56613  23.010  33.265  16.074 -0.0741 -0.3141  0.0302
13520W        W56614  23.707  33.305  17.082  0.0307 -0.3550  0.1204
13521W        W56615  23.040  33.674  15.731 -0.0515  0.1019 -0.0924
13522W        W56616  24.272  33.657  20.107 -0.0433  0.0938 -0.0551
13523W        W56617  24.108   0.390  17.779 -0.1760 -0.0180 -0.1352
13524W        W56618  24.346  32.412  16.969 -0.1494 -0.1895 -0.0108
13525W        W56619  25.281  33.403  18.610 -0.0073  0.1916 -0.0542
13526W        W56620  24.513  32.958  18.723 -0.0788  0.3772 -0.0220
13527W        W56621  24.338  33.132  20.142  0.3289 -0.0345  0.0456
13528W        W56622  24.555  34.515  18.826  0.1033  0.2787 -0.3861
13529W        W56623  23.200   0.226  15.447 -0.2886 -0.0331  0.4066
13530W        W56624  23.630   0.619  17.692 -0.0722  0.0131  0.1305
13531W        W56625  23.485  33.315  15.894 -0.1452 -0.0246  0.1185
13532W        W56626  25.150  34.014  19.504  0.1614  0.1032 -0.0093
13533W        W56627  25.258  33.887  19.982  0.0269  0.2312 -0.0515
13534W        W56628  25.311  32.949  16.643  0.1524 -0.2019 -0.1094
13535W        W56629  22.434  32.299  19.488 -0.1427  0.1731  0.0254
13536W        W56630  25.297  33.464  19.638 -0.0389 -0.0506 -0.1851
13537W        W56631  21.345  33.688  16.463  0.2100 -0.2082 -0.0148
13538W        W56632  21.065  33.593  17.960 -0.3222 -0.2547 -0.2772
13539W        W56633  24.531  32.410  17.475  0.2135  0.1064  0.3611
13540W        W56634  22.093  31.034  17.957  0.0506 -0.1067  0.0789
13541W        W56635  25.202  34.155  17.398 -0.2362  0.1151  0.1021
13542W        W56636  24.281  34.129  17.995 -0.0555  0.0514  0.2021
13543W        W56637  23.893  33.067  17.474 -0.3002  0.0597  0.0689
13544W        W56638  23.591   1.398  20.161 -0.0574  0.1241 -0.1901
13545W        W56639  22.003  33.344  15.421 -0.5105 -0.1594 -0.2898
13546W        W56640  25.556  33.993  18.751  0.2967 -0.2515 -0.4464
13547W        W56641  23.618  34.042  16.986 -0.0955  0.1299  0.0888
13548W        W56642  23.001  34.167  16.456 -0.0061  0.1092  0.3458
13549W        W56643  24.017  34.595  19.303 -0.2446  0.0522 -0.1809
13550W        W56644  23.081  33.658  17.802 -0.0496 -0.2049  0.0366
13551W        W56645  22.503  34.183  16.428 -0.3508 -0.0648 -0.0901
13552W        W56646  23.312  33.838  16.658 -0.0022 -0.1017 -0.4282
13553W        W56647  23.140  33.454  18.493  0.4255  0.1588 -0.0792
13554W        W56648  23.804  33.288  18.856 -0.0310  0.0386  0.1862
13555W        W56649  23.816   0.609  20.016  0.0295  0.4084 -0.0045
13556W        W56650  24.205  32.657  18.138  0.0211 -0.0264  0.1610
13557W        W56651  25.511  33.254  16.253  0.3174 -0.0565 -0.4453
13558W        W56652  23.996  33.501  17.789  0.2084 -0.0886 -0.1734
13559W        W56653  25.353  32.818  18.378  0.6154 -0.0597 -0.1341
13560W        W56654  23.840   1.276  15.692  0.0777 -0.1423  0.0074
13561W        W56655  25.475  32.644  19.895  0.0216  0.0693  0.3235
13562W        W56656  23.357  32.454  18.811 -0.1251  0.1071 -0.0769
13563W        W56657  23.322  32.159  19.227 -0.0125 -0.1551  0.0115
13564W        W56658  22.757   1.260  19.588 -0.0560 -0.1184 -0.0676
13565W        W56659  23.638   0.922  16.936 -0.0305 -0.2098  0.0034
13566W        W56660  23.437  32.729  16.851  0.0175 -0.2684 -0.1121
13567W        W56661  22.891   0.097  18.174 -0.0379 -0.0397  0.2141
13568W        W56662  25.262  34.623  16.237  0.1123 -0.2512  0.0039
13569W        W56663  22.645   1.041  18.592  0.1572 -0.0272  0.1158
13570W        W56664  24.458  33.406  17.625 -0.1073 -0.3464  0.2826
13571W        W56665  24.531  32.532  18.450  0.1907 -0.0378  0.1899
13572W        W56666  24.703  33.427  17.210 -0.1788  0.1237 -0.0991
13573W        W56667  26.212  33.563  19.913 -0.0422 -0.2406  0.0057
13574W        W56668  24.285  33.434  18.765  0.1553  0.1363 -0.0759
13575W        W56669  23.840  33.983  17.759 -0.0502 -0.1492 -0.1066
13576W        W56670  22.275   0.046  20.128 -0.0372 -0.0642 -0.0915
13577W        W56671  26.155  34.643  16.884  0.1953 -0.2375  0.2982
13578W        W56672  25.392  34.611  17.234 -0.0027  0.0672  0.1436
13579W        W56673  25.601  32.447  16.431 -0.3943 -0.3493  0.1485
13580W        W56674  23.983  33.345  16.066  0.1821  0.3071  0.2722
13581W        W56675  21.486  34.170  18.417  0.0599  0.0116  0.1733
13582W        W56676  24.489   0.473  21.927  0.1585  0.1862  0.3291
13583W        W56677  22.963  32.769  16.720 -0.2007 -0.0062 -0.1939
13584W        W56678  25.809  32.710  18.524  0.3698 -0.1001 -0.0673
13585W        W56679  23.532  33.506  16.354 -0.2005 -0.1891 -0.1747
13586W        W56680  22.594  32.854  18.819  0.1052 -0.1873  0.0449
13587W        W56681  21.881  34.279  15.949 -0.0419 -0.0237  0.1398
13588W        W56682  22.188  34.556  16.275 -0.0320 -0.1069 -0.1598
13589W        W56683  23.280  32.243  17.857  0.1411  0.0440  0.0906
13590W        W56684  24.931   0.112  19.018 -0.1074 -0.0810  0.0159
13591W        W56685  24.688  31.918  17.320  0.1018  0.1259 -0.2331
13592W        W56686  24.198  34.130  19.193 -0.2066 -0.0787  0.0966
13593W        W56687  24.720  33.092  16.852 -0.0980 -0.0952 -0.0987
13594W        W56688  23.447  34.445  17.288 -0.1267 -0.0391 -0.0693
13595W        W56689  24.649  33.972  19.454  0.0004  0.3482  0.0621
13596W        W56690  23.066  32.965  18.631 -0.3124 -0.1317  0.2313
13597W        W56691  22.117  34.166  18.881  0.0030 -0.0466 -0.3047
13598W        W56692  22.387  32.309  18.379  0.1400 -0.2165 -0.2819
13599W        W56693  22.932  32.722  17.770 -0.0265  0.1911  0.2280
13600W        W56694  24.027  33.804  16.200 -0.2197  0.2695 -0.1869
13601W        W56695  25.739  34.435  17.741 -0.1124 -0.0250  0.0973
13602W        W56696  24.859  33.653  16.743  0.0854  0.2871 -0.3637
13603W        W56697  23.301  33.915  18.206 -0.1070  0.2038  0.1695
13604W        W56698  22.347  33.210  16.370 -0.0956  0.0575  0.2174
13605W        W56699  20.988  34.671  19.708  0.1298  0.0421  0.3657
13606W        W56700  26.027  31.688  18.857 -0.3373 -0.3051 -0.1017
13607W        W56701  22.424  34.228  18.119 -0.2867  0.0603 -0.1128
13608W        W56702  22.623  32.786  18.160  0.1095  0.0446  0.2775
13609W        W56703  25.003  32.490  18.179  0.2904  0.0688  0.0387
13610W        W56704  23.769  32.371  17.952  0.2259 -0.1628  0.0475
13611W        W56705  21.534  33.395  15.693  0.4229  0.1971  0.3554
13612W        W56706  25.955  34.450  16.347  0.1298 -0.1963 -0.1144
13613W        W56707  21.821  34.502  18.668  0.1929  0.0275 -0.1475
13614W        W56708  25.795  33.257  18.655 -0.0090 -0.0208 -0.2599
13615W        W56709  22.592  34.204  17.194  0.3831 -0.1292 -0.0030
13616W        W56710  24.949  33.689  17.581 -0.0311 -0.0417 -0.1798
13617W        W56711  22.762  33.625  18.801 -0.0643 -0.1347 -0.1109
13618W        W56712  23.699  34.405  16.261 -0.0164 -0.0351  0.0743
13619W        W56713  24.609   1.734  20.096  0.0779 -0.0009 -0.3946
13620W        W56714  24.983   0.467  15.460  0.2006 -0.2423  0.1229
13621W        W56715  21.403  34.386  17.191 -0.3315  0.0729 -0.2552
13622W        W56716  23.489  33.328  17.561 -0.1101  0.0079 -0.0949
13623W        W56717  23.323  33.270  18.941  0.1553 -0.0449  0.0976
13624W        W56718  23.461  34.262  18.616  0.1954  0.0814 -0.1025
13625W        W56719  22.437  33.425  16.868 -0.1016 -0.0310  0.2621
13626W        W56720  24.264  33.754  18.313 -0.1111  0.1558  0.4005
13627W        W56721  25.327  33.714  16.345 -0.2060 -0.1165  0.0392
13628W        W56722  22.192  33.141  18.989 -0.3227  0.2515  0.0391
13629W        W56723  24.421  33.248  18.280 -0.1674 -0.1165  0.0505
13630W        W56724  22.966  34.288  18.214 -0.3434 -0.1228 -0.1997
13631W        W56725  24.261  33.069  17.849  0.0899  0.1668 -0.1461
13632W        W56726  25.817  33.242  19.461  0.0307  0.0063  0.0778
13633W        W56727  25.369  33.274  18.112  0.2654 -0.3975  0.0535
13634W        W56728  23.083  34.072  17.358  0.1227 -0.1842 -0.0916
13635W        W56729  23.770  32.338  16.834  0.3079 -0.0421 -0.0126
13636W        W56730  25.824  32.116  17.306  0.1693  0.0775  0.5410
13637W        W56731  24.482  32.412  16.147 -0.2663 -0.3802 -0.1341
13638W        W56732  22.301  33.697  18.740  0.0776  0.1576  0.0461
13639W        W56733  22.423  33.148  15.732  0.0013 -0.2326  0.1586
13640W        W56734  23.548  32.937  19.892  0.0049 -0.2330 -0.2579
13641W        W56735  23.939  33.367  18.371  0.2675 -0.0411 -0.0352
13642W        W56736  22.653  34.690  17.308  0.1559  0.0877 -0.0547
13643W        W56737  22.899  33.372  16.562  0.0728  0.0375  0.0723
13644W        W56738  22.650  32.355  19.050  0.1184  0.1940 -0.1403
13645W        W56739  21.988  33.580  17.284 -0.1388 -0.0514 -0.0630
13646W        W56740  23.970  32.205  17.317 -0.1790  0.2179 -0.2365
13647W        W56741  25.711  33.736  19.590  0.2798 -0.2398 -0.0677
13648W        W56742  23.671  33.230  19.422  0.0881  0.2026 -0.0105
13649W        W56743  21.199  33.735  15.973 -0.0806  0.0972 -0.3493
13650W        W56744  22.404  33.267  18.525 -0.1224 -0.1269 -0.0330
13651W        W56745  22.168  31.859  18.237  0.1474 -0.1942 -0.2343
13652W        W56746  24.095  32.622  17.600  0.0551  0.1297 -0.1871
13653W        W56747  24.749   0.375  17.790 -0.0051  0.1409 -0.2148
13654W        W56748  22.243  32.622  19.018  0.2968 -0.1610  0.2945
13655W        W56749  24.062  32.959  18.552  0.1321  0.0213  0.0780
13656W        W56750  23.869  33.714  16.697  0.0309  0.3509 -0.0404
13657W        W56751  21.017   1.771  18.189 -0.0290  0.0779  0.0003
13658W        W56752  23.046  33.724  16.241  0.2098  0.1936 -0.1327
13659W        W56753  24.862  33.713  19.039 -0.0159 -0.1596 -0.0877
13660W        W56754  22.881  34.514  18.685  0.0311 -0.0891  0.1529
13661W        W56755  24.486  34.267  16.670  0.2095 -0.3016  0.0283
13662W        W56756  21.862  31.402  17.318 -0.1230 -0.0658  0.1101
13663W        W56757  23.401   0.295  16.827  0.0734 -0.1108 -0.0289
13664W        W56758  23.307   0.211  17.792 -0.0112 -0.1938 -0.1700
13665W        W56759  23.691  34.215  19.108  0.1808  0.1220 -0.3838
13666W        W56760  22.385  31.520  18.752 -0.2311 -0.3150  0.0141
13667W        W56761  24.333  33.819  16.575  0.2223 -0.0173 -0.1652
13668W        W56762  24.443  33.994  20.554  0.1174 -0.1490 -0.3533
13669W        W56763  26.012  34.180  19.742 -0.2265  0.2471  0.2928
13670W        W56764  24.775   0.387  20.334  0.2840  0.3009  0.2180
13671W        W56765  21.430  32.180  20.861  0.0665  0.0973  0.1155
13672W        W56766  22.449  33.449  21.229  0.0906 -0.0129 -0.5352
13673W        W56767  23.483  33.833  18.954  0.0036 -0.1612 -0.0688
13674W        W56768  22.237  32.429  20.269 -0.1192  0.1324 -0.4694
13675W        W56769  21.914   0.010  19.670  0.0882  0.1252 -0.2997
13676W        W56770  22.220  32.832  22.205  0.1835  0.2570 -0.0738
13677W        W56771  24.788  34.026  22.041 -0.2042 -0.3647  0.3439
13678W        W56772  21.215  34.408  19.336  0.0396  0.2801 -0.2014
13679W        W56773  22.647  33.965  20.042 -0.1494  0.3581  0.0789
13680W        W56774  24.574  34.492  19.374  0.0408  0.2734  0.0283
13681W        W56775  23.173  32.422  23.400 -0.1144 -0.2961 -0.0565
13682W        W56776  23.896  32.319  23.751 -0.0991 -0.3079 -0.0502
13683W        W56777  21.349  34.462  18.876 -0.2059 -0.1418  0.4168
13684W        W56778  19.380  31.815  21.823 -0.4311 -0.0088  0.3358
13685W        W56779  22.349   0.260  21.799  0.1236  0.2718  0.2093
13686W        W56780  24.263   0.320  21.523 -0.1595 -0.1732 -0.0837
13687W        W56781  23.611  34.408  19.898  0.0531  0.0870  0.0628
13688W        W56782  26.070  33.897  22.862 -0.0719  0.2376 -0.0321
13689W        W56783  24.379  34.006  21.724 -0.0957 -0.0166  0.4450
13690W        W56784  23.262  34.694  20.715 -0.0553 -0.4261 -0.0509
13691W        W56785  26.311  34.531  23.619  0.0680 -0.0796  0.0258
13692W        W56786  23.545   0.046  19.395  0.1297  0.1641  0.1417
13693W        W56787  23.117  32.604  20.193 -0.3535 -0.3034 -0.0622
13694W        W56788  25.146  34.167  21.128 -0.1861 -0.0113 -0.0141
13695W        W56789  24.144  32.440  20.468 -0.1743 -0.1811  0.2680
13696W        W56790  22.374  33.145  21.710 -0.2690 -0.4580  0.1206
13697W        W56791  23.598   0.097  20.289 -0.0976  0.2431 -0.2551
13698W        W56792  24.638  33.339  22.315  0.2817 -0.3408 -0.3005
13699W        W56793  22.123  32.754  20.700 -0.2640  0.0111 -0.2177
13700W        W56794  21.092  34.214  20.480  0.0878  0.0121  0.1463
13701W        W56795  22.020   1.374  23.392 -0.0597  0.0492  0.0862
13702W        W56796  21.301  33.636  22.370  0.0524 -0.5420 -0.2103
13703W        W56797  23.584  31.976  18.774 -0.0286  0.1251 -0.0846
13704W        W56798  25.305  32.922  21.821  0.2309 -0.0428 -0.0695
13705W        W56799  24.591  33.195  20.889 -0.1945 -0.1441 -0.1480
13706W        W56800  23.863  33.428  19.879  0.0878  0.1616 -0.3296
13707W        W56801  25.239   0.384  21.420  0.1288  0.2751  0.0669
13708W        W56802  22.806  33.705  22.697  0.2838 -0.0869 -0.0253
13709W        W56803  22.120  33.762  21.748 -0.0675  0.1751  0.0878
13710W        W56804  24.579  32.296  20.237  0.2249 -0.1828  0.1910
13711W        W56805  21.993  33.399  22.532  0.0567  0.3744  0.0233
13712W        W56806  24.029  32.573  21.364 -0.0991 -0.2003  0.0526
13713W        W56807  24.392  33.653  20.963 -0.3119 -0.0101 -0.4239
13714W        W56808  22.394  33.142  20.783 -0.1357  0.1799 -0.1554
13715W        W56809  23.039  34.201  20.874  0.1653 -0.2634 -0.1812
13716W        W56810  22.647  34.538  23.074 -0.0456 -0.0030 -0.3888
13717W        W56811  20.104  32.386  21.658  0.1415 -0.2430 -0.0215
13718W        W56812  25.030  33.339  21.560 -0.1804  0.3344 -0.3312
13719W        W56813  21.957  32.280  19.238 -0.0691  0.1504  0.0563
13720W        W56814  25.053  33.927  22.919  0.0874  0.1880 -0.0689
13721W        W56815  22.661   0.766  19.359  0.0223  0.1159 -0.0003
13722W        W56816  26.669  33.124  23.478 -0.1221 -0.0113  0.0391
13723W        W56817  21.256  34.273  21.483  0.0654  0.1563 -0.1064
13724W        W56818  23.034  33.658  20.077  0.1423 -0.0466 -0.2254
13725W        W56819  24.929   0.126  19.872 -0.1369 -0.2517  0.0446
13726W        W56820  24.362  32.972  23.235 -0.1162 -0.0409 -0.2050
13727W        W56821  23.263  34.403  21.376  0.3925 -0.1542  0.1052
13728W        W56822  23.012  34.015  19.163 -0.0931 -0.0402 -0.4635
13729W        W56823  20.569  33.965  20.358 -0.0244 -0.0559 -0.2313
13730W        W56824  25.816  33.512  22.694 -0.0265  0.0778  0.0560
13731W        W56825  21.689  33.471  25.099  0.0488 -0.0927 -0.0112
13732W        W56826  23.593  34.015  22.194 -0.1018 -0.2785  0.3284
13733W        W56827  22.502   0.890  19.976  0.1948  0.2585 -0.1761
13734W        W56828  23.168  32.152  20.304 -0.0336  0.0543 -0.0871
13735W        W56829  25.455  34.062  20.381 -0.3088 -0.1373  0.0032
13736W        W56830  23.765  33.132  20.278 -0.0386  0.0718 -0.4107
13737W        W56831  25.420  32.968  18.861  0.3345  0.0398 -0.0058
13738W        W56832  23.345   0.484  19.036 -0.0232 -0.0528 -0.2021
13739W        W56833  23.529  33.972  21.541  0.0883 -0.1246  0.1952
13740W        W56834  23.610  33.661  18.505 -0.2452  0.0751  0.4921
13741W        W56835  23.166  33.275  21.137 -0.0815  0.0445  0.4368
13742W        W56836  24.547  33.496  20.495 -0.1407 -0.0037  0.3472
13743W        W56837  23.862  33.959  22.590  0.0136  0.1963 -0.3639
13744W        W56838  25.360  33.095  23.350  0.2303  0.1930  0.1668
13745W        W56839  24.828  33.803  20.900 -0.1628  0.0261 -0.0456
13746W        W56840  23.381  34.179  19.480 -0.0466 -0.2215 -0.1814
13747W        W56841  23.975  34.181  21.879  0.0796  0.3747 -0.2699
13748W        W56842  22.168  34.292  19.908 -0.0175  0.1416 -0.2698
13749W        W56843  24.830  34.216  23.272  0.2665  0.0836  0.3418
13750W        W56844  23.021  33.436  22.331  0.0274  0.1437  0.1076
13751W        W56845  23.561   0.124  21.164 -0.2212 -0.2034  0.2168
13752W        W56846  23.827  31.904  21.869  0.2776 -0.0286  0.1537
13753W        W56847  23.653  33.241  20.796 -0.0477  0.3757  0.0017
13754W        W56848  23.234  34.013  20.366  0.3554 -0.1687 -0.1368
13755W        W56849  21.637  34.038  19.171  0.1141 -0.0942 -0.0605
13756W        W56850  24.185  33.623  21.434 -0.1390  0.1291  0.3681
13757W        W56851  22.909  33.025  20.807  0.1023 -0.0890 -0.3204
13758W        W56852  23.805  33.957  24.194 -0.2151  0.1410  0.1394
13759W        W56853  25.991   0.123  22.789 -0.0906  0.0844  0.4505
13760W        W56854  23.897  33.933  20.251 -0.0623  0.0484  0.2777
13761W        W56855  22.186  34.235  22.611 -0.2067  0.2679 -0.1880
13762W        W56856  24.047  34.413  20.242 -0.0057  0.0234 -0.2869
13763W        W56857  25.213  33.614  22.451  0.3457  0.0143 -0.1382
13764W        W56858  23.826  34.542  21.559  0.0426 -0.0840 -0.2783
13765W        W56859  22.603   0.668  20.469  0.0269 -0.2032  0.1342
13766W        W56860  24.458  34.076  22.832  0.3373 -0.2829  0.1027
13767W        W56861  22.361  34.210  21.742  0.0402 -0.0611  0.1212
13768W        W56862  23.099  33.056  22.083  0.2031 -0.0451 -0.2318
13769W        W56863  22.570  34.200  20.854 -0.4100 -0.2207  0.0679
13770W        W56864  23.529  33.572  22.330  0.2343  0.0389  0.1089
13771W        W56865  23.600  32.429  21.668  0.1256  0.4615 -0.4317
13772W        W56866  23.257  34.557  22.410 -0.2560 -0.1551 -0.0042
13773W        W56867  22.370  31.980  20.582 -0.3332  0.0456 -0.4092
13774W        W56868  25.023  32.517  19.736 -0.0775  0.0049  0.1649
13775W        W56869  24.032  33.958  23.074 -0.1174  0.0709 -0.0444
13776W        W56870  25.814  33.168  23.100  0.1663 -0.1444 -0.0763
13777W        W56871  23.086   1.424  20.001 -0.1285 -0.3280 -0.0350
13778W        W56872  25.412  33.972  23.333 -0.0498 -0.0060 -0.1883
13779W        W56873  22.626  33.081  22.135  0.1379 -0.0914 -0.1854
13780W        W56874  21.874  33.758  21.071  0.2293 -0.1683 -0.0859
13781W        W56875  22.809  34.135  24.996 -0.1565  0.3493 -0.2015
13782W        W56876  24.715  34.623  20.247 -0.1340  0.1224 -0.2065
13783W        W56877  22.266  33.307  19.502  0.0775  0.3822 -0.0372
13784W        W56878  22.299   0.940  22.232 -0.1689 -0.3142 -0.2935
13785W        W56879  25.383   0.302  20.891  0.1192  0.0102 -0.1427
13786W        W56880  22.298   0.416  23.280 -0.1118  0.2101  0.2892
13787W        W56881  23.315  33.885  21.088 -0.5029 -0.0779 -0.1212
13788W        W56882  21.554   0.055  22.991 -0.0983 -0.0335 -0.0836
13789W        W56883  23.832  34.449  22.595  0.2354 -0.5811 -0.2703
13790W        W56884  25.596  34.449  22.887  0.1980  0.0031 -0.0729
13791W        W56885  24.008  32.057  21.449 -0.1780 -0.1059 -0.0524
13792W        W56886  22.550  33.788  23.300  0.1758  0.3771 -0.0310
13793W        W56887  22.794  33.545  20.857 -0.1402  0.2113 -0.1091
13794W        W56888  25.573   1.130  19.696 -0.0311  0.2212  0.0351
13795W        W56889  25.552  33.961  22.773 -0.0829 -0.2885 -0.1379
13796W        W56890  24.312  34.612  21.077  0.0739 -0.0930 -0.1421
13797W        W56891  24.081  33.215  21.144  0.3840 -0.0252 -0.1653
13798W        W56892  23.169  33.156  20.127  0.0698  0.0370 -0.3011
13799W        W56893  25.611  34.541  23.355 -0.1057  0.0156 -0.0212
13800W        W56894  23.767  33.757  19.390  0.2586  0.2622  0.3307
13801W        W56895  24.709  33.053  21.916  0.1480 -0.0662 -0.3706
13802W        W56896  24.499  34.116  21.143 -0.1165  0.1998  0.0054
13803W        W56897  20.659  32.577  19.541  0.2602  0.0707  0.2070
13804W        W56898  22.587  31.401  19.231 -0.0384  0.0771 -0.2838
13805W        W56899  22.894   0.275  20.300 -0.1730  0.2282  0.1004
13806W        W56900  24.096  34.170  20.812 -0.0637 -0.2225  0.2685
13807W        W56901  25.201  33.735  21.914 -0.0434 -0.2593 -0.1600
13808W        W56902  24.193  33.074  20.619  0.1755 -0.1329  0.2834
13809W        W56903  23.475  33.189  23.882  0.0373  0.0302 -0.0036
13810W        W56904  24.849  34.239  21.538  0.1380  0.0412  0.1128
13811W        W56905  23.133   0.589  22.357  0.0784  0.2235  0.3426
13812W        W56906  26.324  34.576  21.768  0.2282  0.0593  0.1046
13813W        W56907  22.403   0.262  21.189 -0.0453 -0.1744 -0.0859
13814W        W56908  20.751   0.360  23.317 -0.1688 -0.1020  0.2560
13815W        W56909  22.404  31.974  19.994  0.2849  0.0889  0.0739
13816W        W56910  22.862  34.424  20.413 -0.0351 -0.0420 -0.1971
13817W        W56911  25.643  32.551  19.403 -0.1718 -0.1895  0.1286
13818W        W56912  25.695  34.634  20.806  0.0982  0.1099  0.3101
13819W        W56913  25.320  33.020  21.196 -0.1885 -0.1751  0.0024
13820W        W56914  22.253  32.927  21.197  0.3493 -0.2723  0.3182
13821W        W56915  24.588  32.803  19.815 -0.0891  0.1502  0.1016
13822W        W56916  21.785  34.412  23.972  0.1874  0.1261  0.0622
13823W        W56917  24.376  32.614  24.068  0.0901  0.1429 -0.0062
13824W        W56918  22.946  34.509  19.486  0.0486 -0.3693 -0.2062
13825W        W56919  23.045  33.341  21.668  0.0248 -0.2154  0.0993
13826W        W56920  25.594  33.359  22.224  0.4715  0.0801 -0.0743
13827W        W56921  24.954  32.775  20.158 -0.0902 -0.1483 -0.1412
13828W        W56922  21.855  33.305  19.931 -0.3140  0.0709  0.3192
13829W        W56923  26.682  33.833  20.805  0.2478  0.0742  0.0145
13830W        W56924  21.398   0.173  25.135 -0.0666 -0.1557 -0.1498
13831W        W56925  26.681  34.235  22.457 -0.2708  0.2820  0.2726
13832W        W56926  23.605   0.956  20.860  0.2400 -0.3221 -0.0121
13833W        W56927  25.859  34.170  20.685 -0.1276 -0.1370 -0.2244
13834W        W56928  21.246  33.790  21.172  0.0756 -0.1989 -0.1170
13835W        W56929  25.362  34.453  18.197 -0.1443  0.2532  0.1166
13836W        W56930  25.509   0.691  22.994 -0.2889 -0.0631 -0.0287
13837W        W56931  25.252  34.566  20.184 -0.0901 -0.0034  0.1255
13838W        W56932  22.453  32.384  21.332 -0.1350 -0.3834 -0.0777
13839W        W56933  25.760  32.789  20.354 -0.3191  0.3091  0.2889
13840W        W56934  23.121  34.234  19.965 -0.0438  0.1590  0.3525
13841W        W56935  22.211  34.180  23.206  0.6047 -0.1285  0.1254
13842W        W56936  21.384  33.448  20.679 -0.0753 -0.1175  0.0743
13843W        W56937  25.217  34.141  22.448 -0.1785  0.3235  0.3542
13844W        W56938  25.670   0.694  21.058 -0.2920  0.1507  0.1652
13845W        W56939  20.539  33.155  21.221  0.1468  0.0170 -0.1769
13846W        W56940  25.163  32.702  19.244  0.1757  0.1492 -0.1508
13847W        W56941  24.283  33.740  22.196  0.0256  0.0064  0.0083
13848W        W56942  24.572  33.337  21.363  0.1196  0.0220  0.1095
13849W        W56943  25.446  33.142  22.673  0.0552 -0.1753  0.1653
13850W        W56944  26.429  34.029  23.425  0.2039 -0.0321 -0.2988
13851W        W56945  23.233   0.160  22.043 -0.0638  0.2180 -0.0507
13852W        W56946  24.417  34.205  19.994 -0.1897  0.0567 -0.0866
13853W        W56947  25.913  32.599  20.746 -0.0110  0.2187 -0.1293
13854W        W56948  24.885  33.379  20.079 -0.0677 -0.1349  0.0540
13855W        W56949  21.886  33.295  23.905 -0.2297  0.1148  0.0695
13856W        W56950  22.302  33.673  20.811  0.0906  0.0768 -0.1333
13857W        W56951  23.419  33.157  23.356 -0.2292 -0.1236 -0.0813
13858W        W56952  21.326  34.262  23.179 -0.2376 -0.0242 -0.1286
13859W        W56953  22.233   0.438  20.764 -0.1288  0.0407 -0.0929
13860W        W56954  22.676  33.413  20.345 -0.1231  0.0829 -0.0648
13861W        W56955  24.100  33.234  22.379 -0.2434  0.1146  0.2578
13862W        W56956  22.397  34.258  20.367  0.1713 -0.0582 -0.0701
13863W        W56957  22.011  34.610  20.553  0.0987  0.3156  0.1070
13864W        W56958  24.771  34.430  22.482  0.0792 -0.0944 -0.0110
13865W        W56959  24.139  31.795  21.003 -0.0840 -0.0130 -0.0782
13866W        W56960  22.172  33.075  20.313 -0.1037 -0.0579 -0.2151
13867W        W56961  25.058  33.500  23.429 -0.4082  0.1475 -0.2175
13868W        W56962  22.006  34.076  20.649  0.0344 -0.1735 -0.0491
13869W        W56963  27.759  33.510  23.080 -0.2691 -0.3954  0.0256
13870W        W56964  23.003   1.736  19.583 -0.0303 -0.2836 -0.0883
13871W        W56965  22.559  32.196  25.275 -0.0136 -0.2623  0.0774
13872W        W56966  22.775  33.897  20.541  0.1071  0.0389 -0.1130
13873W        W56967  24.946  33.994  20.376 -0.0385 -0.3523 -0.0478
13874W        W56968  20.898  33.261  20.887 -0.0022 -0.0465  0.2529
13875W        W56969  23.213  34.521  19.050  0.3246 -0.0846 -0.0674
13876W        W56970  25.041  34.469  22.897  0.0674 -0.0807 -0.0799
13877W        W56971  22.181  34.676  18.981 -0.0328  0.4348  0.1649
13878W        W56972  26.019   0.467  20.339  0.0483  0.2529  0.2376
13879W        W56973  22.493  32.422  22.420 -0.0577  0.1816  0.1287
13880W        W56974  22.436   0.055  22.693 -0.2364 -0.0068  0.4664
13881W        W56975  23.551  33.833  20.681 -0.0434  0.0101  0.0758
13882W        W56976  24.135  33.398  23.165  0.0833  0.3710 -0.0700
13883W        W56977  22.691  32.860  20.406 -0.5295  0.0584  0.2498
13884W        W56978  23.840  32.741  20.803  0.2456 -0.0359 -0.0407
13885W        W56979  23.961  33.361  24.264  0.3523  0.0221 -0.4634
13886W        W56980  24.719  33.589  21.869  0.2672  0.0894  0.1113
13887W        W56981  24.766   1.013  24.426 -0.0277 -0.0068 -0.1232
13888W        W56982  22.497  32.776  25.062  0.1319  0.0368  0.1910
13889W        W56983  23.313  33.661  26.506  0.1163  0.1388  0.1244
13890W        W56984  23.857  34.122  23.575 -0.0907 -0.1329  0.2819
13891W        W56985  23.710  33.317  26.478 -0.0157 -0.0864  0.0588
13892W        W56986  22.317  33.456  22.135  0.2433 -0.3476  0.1106
13893W        W56987  23.385  32.936  24.759  0.0282  0.1064  0.4317
13894W        W56988  26.584  34.282  25.422  0.1469 -0.1013  0.1171
13895W        W56989  20.842   0.173  24.821  0.2314  0.1228 -0.0986
13896W        W56990  22.995  34.136  25.897 -0.0416 -0.0914  0.3090
13897W        W56991  22.158  34.021  24.710  0.1735  0.2437 -0.0797
13898W        W56992  23.809  33.691  26.079  0.1562  0.2424  0.0631
13899W        W56993  25.790  34.375  26.535  0.0904 -0.0073  0.0600
13900W        W56994  21.008   0.024  22.897  0.0757  0.1693  0.2141
13901W        W56995  21.351  34.003  27.326  0.0705 -0.0300  0.1373
13902W        W56996  23.208  34.522  26.799 -0.0996  0.0864 -0.0143
13903W        W56997  23.897  34.224  25.880  0.1329  0.2078 -0.0417
13904W        W56998  24.687   1.166  23.935 -0.1337 -0.3294 -0.0295
13905W        W56999  24.887  34.574  25.211 -0.0265  0.2159 -0.3216
13906W        W57000  23.826  33.758  26.603  0.2220 -0.0619  0.2053
13907W        W57001  24.549  34.666  24.872  0.1179  0.0458 -0.1459
13908W        W57002  25.239  33.379  27.979 -0.1716  0.0127 -0.2009
13909W        W57003  25.164  34.362  24.033 -0.0503 -0.1509  0.0333
13910W        W57004  22.700  34.359  22.530  0.0072 -0.0866 -0.1212
13911W        W57005  24.850  34.560  24.420  0.0146 -0.1231 -0.1322
13912W        W57006  23.476  33.555  24.220  0.3833  0.3532 -0.0891
13913W        W57007  24.248  33.810  24.398  0.2667 -0.1471 -0.2566
13914W        W57008  24.092   0.243  24.579 -0.0690  0.1320  0.2543
13915W        W57009  24.159   1.168  25.435 -0.2678 -0.0878  0.1623
13916W        W57010  22.757  34.378  24.325  0.0079  0.2286  0.1272
13917W        W57011  22.168   0.953  26.707  0.4069 -0.1273  0.0254
13918W        W57012  21.198   1.571  26.986 -0.2727 -0.0040  0.0210
13919W        W57013  22.866   0.222  26.860  0.1237  0.1923 -0.2079
13920W        W57014  22.634  32.685  22.910 -0.1959 -0.0068  0.2515
13921W        W57015  24.091  33.404  25.071  0.1241 -0.2677 -0.1088
13922W        W57016  23.970   0.001  25.560  0.3869  0.2281 -0.1077
13923W        W57017  25.197   0.163  26.563  0.0141  0.1073 -0.0299
13924W        W57018  24.667   0.043  23.160 -0.3403  0.2255  0.0833
13925W        W57019  23.667   0.239  27.549  0.0940 -0.0023 -0.0342
13926W        W57020  21.505  32.889  26.732  0.1058  0.2919 -0.0390
13927W        W57021  24.045  34.531  24.973  0.0300 -0.2746 -0.0729
13928W        W57022  22.145  33.825  26.338  0.2367 -0.0851  0.1702
13929W        W57023  24.841  33.689  25.730  0.2451 -0.1713  0.2618
13930W        W57024  24.596  33.197  25.089 -0.0638  0.0036 -0.2357
13931W        W57025  22.555  34.313  26.352 -0.2309  0.0868 -0.1747
13932W        W57026  22.714  33.910  24.607  0.1905  0.2660 -0.0037
13933W        W57027  23.255  34.559  27.622  0.0332 -0.1162 -0.0007
13934W        W57028  23.430  32.881  25.675 -0.2563 -0.2331 -0.2182
13935W        W57029  24.687   2.123  26.658 -0.2495  0.0351  0.3738
13936W        W57030  22.945  33.809  23.604  0.1418  0.1186  0.3568
13937W        W57031  25.289  34.461  25.591  0.2285 -0.1568 -0.1716
13938W        W57032  24.368   0.488  25.018  0.0620  0.1450  0.1100
13939W        W57033  25.549  32.935  27.188  0.0876  0.0967  0.3842
13940W        W57034  22.544  33.942  25.692 -0.0922 -0.0395 -0.2001
13941W        W57035  23.106  33.154  24.190  0.1317  0.2082 -0.0160
13942W        W57036  23.828  32.759  23.969 -0.1913 -0.0482 -0.1531
13943W        W57037  24.730   0.344  27.361 -0.3617  0.0464 -0.1592
13944W        W57038  24.191   0.862  23.742  0.3233  0.0249  0.4252
13945W        W57039  22.670  33.058  24.573  0.0883 -0.0840 -0.2899
13946W        W57040  22.007  33.816  25.209  0.0535 -0.0686  0.0280
13947W        W57041  24.879  33.240  25.549 -0.1882 -0.3099 -0.0813
13948W        W57042  20.874   2.119  28.674  0.1685 -0.2880 -0.1175
13949W        W57043  25.313  34.504  26.183  0.0831 -0.1107  0.2403
13950W        W57044  23.395  33.648  23.666 -0.0806  0.0926 -0.1013
13951W        W57045  24.309  32.746  24.927  0.1753  0.0583  0.0603
13952W        W57046  26.270  33.286  24.003 -0.0278 -0.0734  0.1590
13953W        W57047  24.701  32.692  22.367  0.1291  0.0744 -0.0180
13954W        W57048  24.292  33.151  23.898  0.2556 -0.0877  0.3795
13955W        W57049  24.326  33.608  22.737 -0.1081 -0.2542 -0.1799
13956W        W57050  23.897  32.588  25.503  0.1137 -0.1716 -0.1232
13957W        W57051  24.357  33.976  23.510 -0.2333 -0.2125  0.0640
13958W        W57052  23.726  33.826  25.158 -0.1689  0.1321  0.1067
13959W        W57053  23.227  32.406  26.599  0.0518  0.0148  0.1487
13960W        W57054  24.366  34.680  26.281  0.2008  0.1933 -0.0552
13961W        W57055  23.006  32.830  26.932  0.4568 -0.1220  0.1450
13962W        W57056  26.727  33.920  26.672 -0.1050 -0.0685 -0.0208
13963W        W57057  24.608   0.368  24.486  0.1392  0.0010  0.4158
13964W        W57058  24.886  34.052  26.714 -0.0864  0.0657 -0.2216
13965W        W57059  24.424   0.021  24.136 -0.0944  0.0428  0.0129
13966W        W57060  23.785   0.621  24.417 -0.1470 -0.1747 -0.3322
13967W        W57061  23.933  34.230  27.082  0.1939  0.0408 -0.0085
13968W        W57062  23.431  33.963  22.983  0.6600  0.0667  0.1452
13969W        W57063  23.690  32.700  26.143  0.2952  0.0985  0.1596
13970W        W57064  25.735  33.341  24.867  0.2740 -0.0873  0.1872
13971W        W57065  23.751  34.436  24.360  0.0196  0.0014  0.2063
13972W        W57066  20.988   0.246  25.693  0.1345  0.0802  0.3680
13973W        W57067  24.545  33.202  25.939  0.0410  0.0147 -0.0384
13974W        W57068  21.351  34.267  25.184 -0.4104  0.0807 -0.0209
13975W        W57069  23.434  33.404  25.711 -0.2943  0.1315 -0.1639
13976W        W57070  24.493   0.457  25.791  0.0235 -0.1495  0.0928
13977W        W57071  24.488  33.625  25.323  0.0729 -0.3361  0.2753
13978W        W57072  25.053   0.703  26.387 -0.0590 -0.2795 -0.1920
13979W        W57073  23.101  33.531  23.209  0.1351  0.1749  0.0254
13980W        W57074  24.867  34.263  25.688 -0.2048 -0.3410  0.2147
13981W        W57075  22.661  34.574  23.899  0.1230 -0.2316  0.0343
13982W        W57076  22.175   0.363  24.550 -0.1654  0.3894 -0.0391
13983W        W57077  22.702  33.884  26.688 -0.0106  0.2181  0.0517
13984W        W57078  23.805  34.304  26.417 -0.1365 -0.1729  0.1257
13985W        W57079  24.464   0.793  22.770 -0.3396  0.0144  0.2460
13986W        W57080  23.471  34.058  26.147 -0.0562  0.0624 -0.0698
13987W        W57081  23.643  33.543  27.317 -0.0689  0.2143 -0.3726
13988W        W57082  24.590  34.159  26.307  0.1493 -0.1643 -0.0982
13989W        W57083  24.294   1.273  26.278 -0.0416 -0.3432  0.0786
13990W        W57084  24.048  34.604  23.764 -0.1726 -0.0203  0.3003
13991W        W57085  25.258  32.296  23.634 -0.4470 -0.1892 -0.1074
13992W        W57086  22.535  34.429  25.782 -0.1470  0.1866 -0.1021
13993W        W57087  25.674   0.141  26.729  0.1012 -0.0082 -0.0542
13994W        W57088  25.529   0.945  23.471  0.0300  0.2244  0.1178
13995W        W57089  25.215  34.262  27.283 -0.0167 -0.1084  0.2835
13996W        W57090  23.544  33.918  25.643 -0.1989  0.0561  0.1133
13997W        W57091  22.143  34.166  26.791 -0.1461 -0.2944 -0.1302
13998W        W57092  22.497   1.254  27.531 -0.1169 -0.1682  0.3108
13999W        W57093  24.477  33.456  23.513 -0.0136  0.1498  0.1461
14000W        W57094  23.596  33.269  25.206 -0.1274  0.0847  0.2587
14001W        W57095  23.315  34.581  26.276 -0.0917 -0.2416  0.2116
14002W        W57096  25.396   0.149  23.841  0.2975  0.0993  0.0293
14003W        W57097  22.889  34.442  25.393 -0.0173  0.0213 -0.0210
14004W        W57098  25.513   0.729  23.999 -0.3454 -0.1258  0.0138
14005W        W57099  24.077  32.917  26.530 -0.0221  0.1406 -0.1368
14006W        W57100  23.715  34.389  23.083  0.2310 -0.0695  0.0884
14007W        W57101  25.729  33.625  26.429  0.3183  0.9654 -0.1431
14008W        W57102  27.021  34.547  25.447  0.0690  0.0288  0.1753
14009W        W57103  22.887  34.437  27.928  0.0481  0.0795 -0.0118
14010W        W57104  22.240  33.957  27.277 -0.4582 -0.1463  0.0785
14011W        W57105  24.626  33.010  24.204  0.0613 -0.1440  0.1635
14012W        W57106  25.580  33.149  26.366  0.2705  0.1526  0.0552
14013W        W57107  26.074  33.860  23.774 -0.1540  0.0155 -0.1496
14014W        W57108  23.094  34.175  24.018  0.3655 -0.1617  0.2845
14015W        W57109  22.504  33.039  25.518 -0.0438  0.1478 -0.0621
14016W        W57110  25.581   0.417  27.376 -0.0225  0.3372 -0.1592
14017W        W57111  21.974  33.370  21.393 -0.3800 -0.0664  0.0273
14018W        W57112  23.978   0.426  25.903 -0.3373 -0.0990  0.1445
14019W        W57113  24.027   0.661  25.478 -0.1283  0.1109 -0.0602
14020W        W57114  21.020  33.425  25.542  0.0233 -0.0906  0.1221
14021W        W57115  23.094  33.470  24.663 -0.3146 -0.1991  0.0651
14022W        W57116  23.813  33.413  22.789  0.2471  0.3660  0.1249
14023W        W57117  23.631  33.433  24.740  0.1044  0.0079  0.0146
14024W        W57118  25.941  34.362  26.085 -0.2378  0.1222 -0.2366
14025W        W57119  22.680  33.348  25.002  0.2065  0.2698 -0.0728
14026W        W57120  22.719  34.360  26.856  0.2352  0.0656 -0.0654
14027W        W57121  25.044  33.130  26.257 -0.0480 -0.0629 -0.1981
14028W        W57122  24.667  33.756  23.178 -0.0925  0.1289 -0.1862
14029W        W57123  25.052  34.049  26.089 -0.2823 -0.0932  0.0257
14030W        W57124  21.236  34.195  24.382 -0.0812  0.2605  0.1053
14031W        W57125  22.338  34.426  27.190  0.2245 -0.2153  0.0068
14032W        W57126  24.731  34.102  24.346 -0.2356 -0.1866  0.0767
14033W        W57127  24.289  34.323  24.533  0.0055 -0.2582  0.1522
14034W        W57128  24.767  33.013  24.692 -0.0753 -0.3059 -0.1282
14035W        W57129  24.824   0.493  25.256  0.0804  0.1164 -0.2785
14036W        W57130  24.773  34.510  26.602 -0.2291  0.0107  0.3845
14037W        W57131  24.306   0.591  26.294 -0.2138  0.0938  0.1557
14038W        W57132  22.305  34.544  23.491 -0.2355 -0.0468 -0.1615
14039W        W57133  23.191   0.953  27.848 -0.0055 -0.0454  0.1059
14040W        W57134  26.733  32.954  27.721  0.0372  0.1157 -0.1176
14041W        W57135  23.357  34.049  24.463 -0.2978  0.1275  0.1107
14042W        W57136  23.090   0.230  25.233 -0.2642  0.0374 -0.0215
14043W        W57137  25.622  32.692  26.601  0.0110  0.2094  0.0936
14044W        W57138  24.913   0.150  25.665 -0.1077 -0.1651  0.0710
14045W        W57139  21.595  33.380  23.413  0.0942  0.0032  0.4136
14046W        W57140  23.979  33.623  25.562  0.2358  0.1583  0.2769
14047W        W57141  22.240   0.047  25.403  0.0502  0.0702 -0.0185
14048W        W57142  25.007  33.816  27.096 -0.1204  0.0161 -0.0439
14049W        W57143  23.111  33.580  25.144 -0.0512  0.2377 -0.0360
14050W        W57144  24.828   0.707  24.824 -0.0249  0.2433 -0.0427
14051W        W57145  21.857   1.103  27.653  0.1687  0.1383  0.2022
14052W        W57146  24.865  33.427  24.339  0.1818  0.1178  0.0178
14053W        W57147  26.213   0.487  26.554 -0.2590 -0.1943  0.0286
14054W        W57148  25.271  32.543  21.520 -0.1261 -0.0248 -0.3034
14055W        W57149  24.292  34.024  24.941  0.0541  0.2313 -0.1356
14056W        W57150  23.699  33.639  23.310 -0.1435 -0.0486 -0.1522
14057W        W57151  22.204  33.139  24.446  0.0542  0.0048 -0.0792
14058W        W57152  24.170  33.954  26.264 -0.1788  0.1386  0.0356
14059W        W57153  22.574  33.116  24.000 -0.2459 -0.3072 -0.0761
14060W        W57154  25.061   0.988  25.299 -0.2531 -0.2147 -0.0961
14061W        W57155  26.745   0.940  24.307 -0.1566 -0.2461 -0.1616
14062W        W57156  22.647  33.768  26.139  0.0639  0.1084 -0.1819
14063W        W57157  23.106  31.212  24.019 -0.1922 -0.0726 -0.3170
14064W        W57158  23.536  34.114  26.830 -0.1192  0.1397  0.0246
14065W        W57159  24.423  33.968  25.807 -0.1475 -0.0955 -0.1504
14066W        W57160  25.227   0.002  27.571  0.0054 -0.1065 -0.1541
14067W        W57161  25.861  31.884  27.760 -0.3008 -0.2083  0.3029
14068W        W57162  24.575   0.712  24.089 -0.0229 -0.0319 -0.1678
14069W        W57163  23.243  34.565  24.289 -0.1882 -0.0966 -0.1083
14070W        W57164  25.226  33.988  24.407  0.0218  0.0613 -0.1246
14071W        W57165  24.649  33.701  24.694 -0.0736  0.0142  0.2606
14072W        W57166  23.215   0.662  26.954 -0.0920 -0.0169  0.1296
14073W        W57167  22.433   0.157  26.148 -0.0476  0.4113 -0.2199
14074W        W57168  23.402  32.770  27.831 -0.0595 -0.1756 -0.0731
14075W        W57169  22.056  34.409  26.289 -0.2701  0.0596  0.0479
14076W        W57170  23.083  34.119  26.401 -0.1733 -0.1024 -0.0299
14077W        W57171  22.236  32.534  23.706 -0.0269  0.0723  0.1415
14078W        W57172  22.429  32.258  26.145  0.0081 -0.0077 -0.1025
14079W        W57173  22.055  33.611  23.408  0.2639 -0.2337 -0.1357
14080W        W57174  24.253  34.207  24.062 -0.2738 -0.0131 -0.1141
14081W        W57175  24.854  33.526  26.730  0.0784 -0.2844  0.3630
14082W        W57176  23.852   0.053  26.740  0.1251 -0.1082 -0.1454
14083W        W57177  22.254  33.721  22.827  0.1257  0.1123  0.0602
14084W        W57178  23.861  34.258  25.358 -0.1225  0.0612 -0.0337
14085W        W57179  22.224  34.139  28.168 -0.1998  0.1948 -0.0651
14086W        W57180  24.373  32.533  25.439 -0.1466 -0.1377  0.1226
14087W        W57181  25.212   0.156  24.293 -0.0198 -0.1603  0.2304
14088W        W57182  21.176  33.750  25.918  0.0487 -0.1436  0.0212
14089W        W57183  22.924  33.460  25.853 -0.1290 -0.0180  0.2171
14090W        W57184  24.311  33.305  24.597 -0.0359  0.1617 -0.0430
14091W        W57185  22.376  33.483  25.777  0.0655  0.0655 -0.3633
14092W        W57186  24.058  33.659  23.763  0.0265 -0.4287  0.1721
14093W        W57187  24.322  33.770  26.691 -0.1142  0.1507  0.1676
14094W        W57188  22.342  34.253  25.343  0.0530 -0.1663 -0.1320
14095W        W57189  24.848   0.448  23.387 -0.0771  0.1063 -0.1082
14096W        W57190  22.602  32.600  27.212  0.0039  0.3480  0.5875
14097W        W57191  23.528  34.347  23.933 -0.1077  0.1985 -0.3831
14098W        W57192  23.334  34.116  25.126  0.1383  0.2437  0.0449
14099W        W57193  24.788  32.742  25.419  0.1929 -0.0161  0.0808
14100W        W57194  23.324  33.151  26.189 -0.0807 -0.1038  0.1442
14101W        W57195  25.415  33.505  24.362 -0.2747  0.4790 -0.0873
14102W        W57196  23.224  33.960  28.657  0.1029  0.0292 -0.1007
14103W        W57197  24.856   0.069  26.136  0.1820 -0.3960 -0.4261
14104W        W57198  24.235  33.942  27.851 -0.0677  0.1729  0.1872
14105W        W57199  22.161  33.261  28.057  0.0983  0.1778  0.1391
14106W        W57200  23.378  32.674  29.679 -0.2197 -0.0614 -0.4117
14107W        W57201  23.822  34.691  26.083 -0.3079  0.2266 -0.1315
14108W        W57202  22.221   0.063  30.404  0.2166  0.0695 -0.4792
14109W        W57203  22.843  32.333  28.896  0.2027  0.0032  0.2793
14110W        W57204  21.678  31.991  30.367 -0.1595 -0.0339 -0.0097
14111W        W57205  26.322   0.701  29.969 -0.2139 -0.0693 -0.0565
14112W        W57206  21.913   0.526  28.666  0.0752 -0.1162 -0.2044
14113W        W57207  24.249  33.564  28.959  0.2263  0.5395  0.0506
14114W        W57208  24.521  33.479  27.089  0.1385  0.1784 -0.3503
14115W        W57209  23.199  31.857  30.241 -0.0342 -0.0584  0.1099
14116W        W57210  25.056  32.821  31.022  0.1936  0.2064  0.0362
14117W        W57211  22.101   1.261  27.088 -0.0462  0.0468 -0.3337
14118W        W57212  20.979  33.851  28.682  0.2563  0.1033 -0.1182
14119W        W57213  21.314  34.453  31.334  0.0158 -0.0389 -0.0716
14120W        W57214  24.159  34.652  29.747 -0.0618  0.0472 -0.1505
14121W        W57215  25.119   0.351  30.283  0.2062 -0.0805  0.0986
14122W        W57216  25.716   0.071  29.989 -0.2537 -0.3599  0.1956
14123W        W57217  25.177  34.001  30.398 -0.0342  0.2734  0.0227
14124W        W57218  25.642  33.909  30.028 -0.1537  0.2344 -0.4408
14125W        W57219  24.754  33.845  31.259  0.0712  0.2797 -0.1723
14126W        W57220  24.288  33.774  28.375  0.0929 -0.2444 -0.0856
14127W        W57221  22.550  33.591  27.266 -0.3078  0.0797  0.0168
14128W        W57222  24.746  34.263  28.023 -0.0542 -0.2829  0.1116
14129W        W57223  21.660  33.399  30.623 -0.2704 -0.0764  0.3458
14130W        W57224  21.410  32.482  27.997  0.1369 -0.1471 -0.1876
14131W        W57225  24.515   0.553  27.854 -0.0516 -0.1921  0.0881
14132W        W57226  24.214   0.226  30.138  0.1981  0.0355  0.2539
14133W        W57227  22.041  33.863  29.270  0.2560 -0.4186  0.4025
14134W        W57228  21.808   0.045  28.821  0.0587  0.1256  0.3218
14135W        W57229  20.671   0.683  31.696 -0.0812 -0.2200 -0.2570
14136W        W57230  22.701  32.962  30.393  0.1349 -0.0773 -0.1001
14137W        W57231  23.355  33.096  27.213  0.0435  0.5671 -0.2030
14138W        W57232  25.529  32.849  28.505 -0.0186 -0.0773 -0.2198
14139W        W57233  24.866  33.556  30.272 -0.0878  0.1959 -0.2235
14140W        W57234  22.908  33.746  30.662  0.0361  0.1394  0.1953
14141W        W57235  24.470   0.358  29.178 -0.1391 -0.0826 -0.1077
14142W        W57236  21.802  34.253  30.237  0.2848 -0.0473  0.0251
14143W        W57237  22.556   0.094  29.987 -0.2986  0.1570 -0.0173
14144W        W57238  25.498  32.977  29.067  0.1480 -0.1778 -0.1127
14145W        W57239  21.843  32.919  30.541  0.0755  0.0101 -0.2029
14146W        W57240  24.171  33.312  29.482 -0.0470  0.0857  0.0815
14147W        W57241  24.156  34.099  29.093 -0.0747  0.0723  0.0141
14148W        W57242  21.750   0.015  30.462 -0.1157  0.0376 -0.0428
14149W        W57243  22.044  33.546  29.616 -0.4200  0.2218  0.3943
14150W        W57244  22.855  32.041  30.980  0.4004  0.2730 -0.1142
14151W        W57245  22.029  33.350  30.271 -0.4760 -0.1656 -0.0148
14152W        W57246  26.043   0.141  30.427  0.1155  0.2229 -0.1969
14153W        W57247  22.283  34.292  28.698  0.1910  0.1391  0.1149
14154W        W57248  24.694  33.756  29.776  0.1040  0.1862 -0.1579
14155W        W57249  24.033  34.364  28.222 -0.1732  0.1422 -0.0225
14156W        W57250  24.637  32.548  31.177 -0.1159 -0.2578  0.1910
14157W        W57251  21.569   0.436  29.641 -0.2679  0.0911 -0.0334
14158W        W57252  21.940   0.481  27.980  0.1008 -0.0835  0.1530
14159W        W57253  22.736  34.116  27.331 -0.1345 -0.1094  0.3132
14160W        W57254  23.464  33.779  29.946 -0.1708 -0.1127 -0.0202
14161W        W57255  25.104  34.456  29.042  0.0519  0.0611  0.0790
14162W        W57256  21.787  34.282  27.904 -0.2015 -0.0887  0.0671
14163W        W57257  20.997  34.475  29.095  0.0339  0.3421 -0.0374
14164W        W57258  24.719  33.295  29.633  0.0248 -0.0106  0.0309
14165W        W57259  20.705   0.414   0.491 -0.3847 -0.1309 -0.0485
14166W        W57260  27.077   0.857  30.921  0.1743 -0.1410  0.2230
14167W        W57261  22.264   0.090  28.590 -0.2366 -0.0655 -0.1726
14168W        W57262  24.814  32.823  27.205 -0.2678  0.2376 -0.0656
14169W        W57263  25.416  33.648  27.627 -0.1457  0.2077  0.2811
14170W        W57264  23.848  32.942  27.063 -0.1447  0.1483  0.0580
14171W        W57265  24.103  33.795  27.198  0.2520  0.0085 -0.1620
14172W        W57266  24.366   0.102  26.906  0.3161 -0.0753  0.0626
14173W        W57267  23.041  33.278  29.651 -0.2210 -0.0723  0.0429
14174W        W57268  23.228   0.222  27.210 -0.5154  0.3213 -0.5714
14175W        W57269  24.377  34.285  29.608  0.0952  0.0835  0.1347
14176W        W57270  24.237  33.903  29.958  0.1648  0.1066 -0.2500
14177W        W57271  24.889  34.246  29.691 -0.2882  0.1313  0.1376
14178W        W57272  22.730  34.623  30.448 -0.0759 -0.2050 -0.1073
14179W        W57273  26.381   0.576  30.470  0.0199 -0.1037  0.0747
14180W        W57274  25.117  33.993  28.900 -0.2342 -0.1484 -0.3149
14181W        W57275  25.181   1.104  30.439 -0.3085  0.1793 -0.2150
14182W        W57276  21.798   1.677  27.125  0.3077 -0.0953 -0.0759
14183W        W57277  22.703  33.922  30.216  0.0921 -0.0848  0.0702
14184W        W57278  24.759  33.500  31.606 -0.1381 -0.1878 -0.4346
14185W        W57279  23.315  33.350  28.243  0.2082  0.1115  0.1176
14186W        W57280  21.825  34.265  28.981  0.0562  0.2589  0.1538
14187W        W57281  24.578  32.287  28.484  0.1010 -0.0858 -0.0069
14188W        W57282  23.040  33.650  27.952 -0.0650  0.2399 -0.0012
14189W        W57283  20.978   0.189  29.726 -0.1491  0.4663  0.1040
14190W        W57284  25.293  34.139  30.900  0.3823  0.0428  0.1741
14191W        W57285  23.126  32.378  29.343 -0.2476  0.2420 -0.0389
14192W        W57286  23.950  34.571  29.222  0.1046  0.2901 -0.3335
14193W        W57287  25.041   0.457  30.818  0.0996  0.0764 -0.1447
14194W        W57288  25.310  34.446  26.825 -0.3022 -0.2244 -0.1247
14195W        W57289  22.460  34.537   0.198  0.0008 -0.0067  0.1453
14196W        W57290  22.048  33.886  28.764 -0.1572  0.2814  0.0113
14197W        W57291  26.132  33.661  30.125 -0.0595  0.1219  0.0039
14198W        W57292  24.514  33.996  28.770  0.3675 -0.0650  0.0234
14199W        W57293  23.507  33.515  27.807  0.1399 -0.2848  0.1724
14200W        W57294  23.007  34.223  30.416  0.1476 -0.0180  0.0135
14201W        W57295  23.768  33.845  29.298 -0.1220  0.1257  0.2926
14202W        W57296  22.350  34.331  30.127 -0.1630  0.1218  0.0304
14203W        W57297  23.499  34.538  29.477  0.1914 -0.1749  0.0001
14204W        W57298  23.667   0.188  29.815 -0.2008 -0.0381 -0.0416
14205W        W57299  21.227  34.043  29.098  0.0036 -0.0735 -0.3861
14206W        W57300  25.823  33.913  30.504  0.1315 -0.1328  0.3536
14207W        W57301  23.035  33.803  29.671  0.1472 -0.0597 -0.2314
14208W        W57302  24.410  32.886  27.950 -0.0610  0.0851  0.2090
14209W        W57303  22.997  33.218  29.151  0.1533  0.0851  0.2447
14210W        W57304  26.888  33.162  30.337  0.3078  0.2885  0.1166
14211W        W57305  23.529  34.510  27.211  0.2168  0.0767  0.1973
14212W        W57306  23.955  33.783  31.736  0.1221  0.2603 -0.0381
14213W        W57307  22.599  32.555  30.092  0.1693 -0.3229 -0.2056
14214W        W57308  21.623  33.372  29.927  0.1165 -0.0742  0.0242
14215W        W57309  23.850  34.406  31.018  0.3493  0.1276 -0.0346
14216W        W57310  23.880  33.954  28.588 -0.1396 -0.0716  0.2405
14217W        W57311  23.448  32.564  27.037 -0.0826 -0.2207 -0.3453
14218W        W57312  24.032   0.332  29.437 -0.2143 -0.0226  0.2066
14219W        W57313  23.779  33.889  28.027  0.0031  0.2831 -0.0305
14220W        W57314  20.303   0.630   0.229 -0.1080 -0.0729 -0.0614
14221W        W57315  23.242  34.606  29.079  0.0504 -0.4537  0.0368
14222W        W57316  23.746  33.450  30.379  0.1024  0.2176 -0.1469
14223W        W57317  24.728  34.168  29.224  0.1842  0.3492  0.0867
14224W        W57318  25.657  34.388  30.364  0.0002 -0.1578 -0.0725
14225W        W57319  24.821  34.474  30.611  0.1035  0.1694 -0.2211
14226W        W57320  23.041   0.082  29.773  0.0510 -0.0391  0.3584
14227W        W57321  22.135  32.494  29.921 -0.3125 -0.1109  0.1011
14228W        W57322  25.630   0.451  27.843 -0.1351 -0.0755  0.1372
14229W        W57323  26.451  34.578  30.724 -0.3194 -0.2595  0.0546
14230W        W57324  24.642   0.072  28.021  0.0160 -0.2430 -0.2145
14231W        W57325  24.254  34.292  26.663 -0.0979  0.1452 -0.0112
14232W        W57326  21.381  34.042  29.946  0.1046 -0.0050  0.0115
14233W        W57327  24.206   0.544   1.702 -0.0494  0.1189 -0.3431
14234W        W57328  23.158  32.658  27.428 -0.0864  0.1849 -0.0543
14235W        W57329  25.273  33.704  31.273  0.0152 -0.0861 -0.0446
14236W        W57330  24.727  33.747  27.982  0.2817  0.4201 -0.0149
14237W        W57331  22.571  33.783  28.798 -0.0835  0.2661 -0.3057
14238W        W57332  23.089  34.040  27.652 -0.2042  0.3741 -0.2056
14239W        W57333  24.319  34.465  27.345  0.0001  0.3639  0.2032
14240W        W57334  22.977  33.401  26.933 -0.1720  0.0367 -0.0324
14241W        W57335  26.293   1.114  30.766 -0.0155  0.2881 -0.0281
14242W        W57336  23.416  32.286  30.187 -0.0467  0.1762 -0.2008
14243W        W57337  22.561  33.715  29.286  0.1994 -0.0523  0.1940
14244W        W57338  24.630   0.030  29.509 -0.0211 -0.1074  0.1972
14245W        W57339  23.413   0.295  28.820  0.1021  0.0690 -0.1474
14246W        W57340  28.171  33.799  31.207 -0.0298  0.0802 -0.1819
14247W        W57341  24.319   1.389  29.561 -0.1431  0.0108  0.0170
14248W        W57342  21.999  32.829  31.380 -0.1272 -0.1158  0.1342
14249W        W57343  21.857  32.284  27.776  0.1301  0.1241 -0.0126
14250W        W57344  24.129  32.816  28.315 -0.0804 -0.1118 -0.0533
14251W        W57345  25.938  32.602  27.012  0.0462 -0.0672 -0.0477
14252W        W57346  25.258  34.387  28.053 -0.1148 -0.1906 -0.2642
14253W        W57347  25.681  33.315  28.666  0.2925 -0.5987 -0.1591
14254W        W57348  21.876  34.114  29.724  0.1339  0.2670  0.0981
14255W        W57349  23.846  34.439  27.646 -0.0307  0.2855 -0.0458
14256W        W57350  23.238   0.309  31.068  0.1896 -0.2148  0.1760
14257W        W57351  25.879  33.355  30.394 -0.1204 -0.0326 -0.1209
14258W        W57352  22.683   0.723  27.791  0.1380 -0.0875  0.1992
14259W        W57353  21.599  33.763  30.288 -0.0737 -0.0268  0.3543
14260W        W57354  26.148  31.000  31.119 -0.2014  0.2706 -0.1866
14261W        W57355  22.321  34.458  29.638 -0.0119 -0.2911 -0.1487
14262W        W57356  21.539   0.101  28.397  0.1544  0.0190  0.2553
14263W        W57357  26.264  33.612  30.599  0.2219 -0.2372 -0.2361
14264W        W57358  22.137  34.216  31.926  0.0940 -0.0960  0.0026
14265W        W57359  25.707  33.404  29.912 -0.2088 -0.0417  0.0832
14266W        W57360  21.898  32.906  30.014  0.1385 -0.1221  0.2232
14267W        W57361  24.486  34.427  28.433  0.1587 -0.1869  0.1319
14268W        W57362  21.364  34.317  29.486 -0.1568  0.1328  0.1712
14269W        W57363  21.398   0.397  28.830 -0.0326 -0.1148 -0.0733
14270W        W57364  26.897  34.646  30.572  0.3627 -0.3193 -0.2517
14271W        W57365  24.795  34.637  27.074 -0.0209  0.2162  0.0620
14272W        W57366  22.256  34.323  30.608 -0.1428 -0.0274 -0.0407
14273W        W57367  25.449  32.673  28.011  0.2196  0.0938  0.2328
14274W        W57368  22.054   0.069  29.919  0.0092 -0.1065 -0.0446
14275W        W57369  22.629   0.134  29.452 -0.0352 -0.0268  0.1814
14276W        W57370  22.718  34.146  28.345 -0.3212 -0.2300  0.0721
14277W        W57371  25.029   0.835  30.090  0.1063 -0.0308  0.2761
14278W        W57372  25.377   0.849  28.648 -0.1316 -0.0397 -0.1107
14279W        W57373  22.628  32.783  29.015 -0.0677  0.0935  0.1410
14280W        W57374  24.056  33.370  26.857  0.1561 -0.0586  0.0318
14281W        W57375  22.513  33.980  29.781 -0.2021  0.2096 -0.1234
14282W        W57376  25.679  33.834  29.532  0.0266  0.0667  0.1691
14283W        W57377  24.499  33.875  31.740 -0.0264  0.2354  0.3145
14284W        W57378  26.353  33.654  31.654 -0.1312 -0.0543  0.2277
14285W        W57379  23.821  33.458  28.576  0.4201  0.3272 -0.0046
14286W        W57380  23.038  33.805  29.143  0.1580 -0.0404  0.1591
14287W        W57381  23.572  32.132  29.180  0.0038  0.1576  0.0054
14288W        W57382  24.343  33.812  29.436 -0.0280  0.1334 -0.0566
14289W        W57383  24.020  34.610  30.587  0.0374  0.2082  0.1485
14290W        W57384  20.987   0.791  27.860 -0.1714 -0.0741 -0.1015
14291W        W57385  23.902  33.970  30.268  0.1566 -0.3887 -0.0110
14292W        W57386  22.360   0.346  31.534 -0.2291  0.0437 -0.0425
14293W        W57387  23.272   1.056  29.804 -0.0416 -0.2240  0.1480
14294W        W57388  21.493  33.941  28.657 -0.1805 -0.1159 -0.2993
14295W        W57389  22.899  32.817  29.437 -0.0995  0.1651  0.1039
14296W        W57390  21.327  34.194  30.419 -0.3104  0.0011 -0.0302
14297W        W57391  22.987  32.941  28.095 -0.2463 -0.0995 -0.0482
14298W        W57392  23.517  33.523  31.911  0.3042  0.0943 -0.0430
14299W        W57393  24.258  34.368  30.241  0.3014 -0.0026 -0.0464
14300W        W57394  21.487  33.319  27.323 -0.0936 -0.1511 -0.2934
14301W        W57395  24.227  34.171  30.717  0.1489  0.2214  0.0904
14302W        W57396  21.839  32.364  31.097 -0.4071 -0.2944 -0.0608
14303W        W57397  25.162  33.644  29.862  0.0030 -0.2281 -0.0191
14304W        W57398  24.691  33.179  27.575  0.1216 -0.1496  0.2735
14305W        W57399  21.134  33.175  30.690  0.1051 -0.0290 -0.0677
14306W        W57400  21.425  33.071  29.194 -0.0543  0.1896 -0.1260
14307W        W57401  23.000  33.213  27.681  0.0952 -0.0975  0.2990
14308W        W57402  24.422  34.639  30.880 -0.1293  0.1603  0.0048
14309W        W57403  22.662  33.871  27.840  0.1550 -0.2635 -0.2621
14310W        W57404  24.665   1.089  30.280 -0.1494  0.0907 -0.1634
14311W        W57405  23.811  33.068  27.973  0.3364  0.1690 -0.3157
14312W        W57406  24.791   0.452  28.309  0.1859 -0.0605  0.0364
14313W        W57407  21.664  32.682  31.917 -0.2802 -0.2519 -0.3031
14314W        W57408  23.234  34.587  28.548  0.0952  0.1794  0.0580
14315W        W57409  23.930   0.292  28.914 -0.0777 -0.2040  0.1306
14316W        W57410  24.211  34.002  31.237 -0.0272  0.1124 -0.1660
14317W        W57411  23.294  34.067  28.112 -0.0154  0.0370 -0.1334
14318W        W57412  25.109  32.933  27.600 -0.0793 -0.0437  0.0757
14319W        W57413  26.867  34.187  31.033 -0.1730 -0.2145 -0.0510
14320W        W57414  24.226  34.577  31.388  0.0470 -0.0026  0.3873
14321W        W57415  22.174  32.529  30.449  0.0939  0.1819 -0.2790
14322W        W57416  25.687  33.615  30.882  0.1661 -0.1809 -0.0796
14323W        W57417  24.666  34.319  31.226  0.3741 -0.0009 -0.1993
14324W        W57418  24.443  34.122   0.747 -0.2772  0.0496  0.0104
14325W        W57419  20.412  31.476  31.440 -0.2690  0.2153 -0.2708
14326W        W57420  25.658  34.484  31.399 -0.1431  0.0572  0.2618
14327W        W57421  22.105  33.826  30.118  0.1269  0.4628 -0.0122
14328W        W57422  22.386  34.151  29.180 -0.0705 -0.1205 -0.0144
14329W        W57423  23.286  34.246  29.996  0.2315  0.1186 -0.0579
14330W        W57424  25.016  33.898  31.747 -0.0612 -0.0030 -0.0618
14331W        W57425  26.063  34.063  31.551  0.1339 -0.1501  0.0618
14332W        W57426  24.573  33.042  30.929  0.1076 -0.0730 -0.1369
14333W        W57427  24.341   0.753   1.122 -0.0500 -0.1223  0.1428
14334W        W57428  20.827  34.185  31.260 -0.0309  0.0695 -0.3833
14335W        W57429  23.013  34.113  31.372 -0.1822 -0.0348 -0.1308
14336W        W57430  23.285  34.134  30.948  0.0399  0.1025  0.0282
14337W        W57431  23.608  34.257  30.537 -0.2603  0.1447 -0.0298
14338W        W57432  22.137  34.620  31.335  0.3820  0.0291  0.0160
14339W        W57433  26.156   0.267  30.918  0.0890 -0.0259 -0.1325
14340W        W57434  26.585  33.439  29.815 -0.0243  0.0309 -0.4862
14341W        W57435  26.430  33.240  31.285  0.0656 -0.0313  0.0631
14342W        W57436  23.003  32.279  29.906 -0.0548 -0.0168 -0.0339
14343W        W57437  21.985   0.252  30.873  0.2019  0.1721  0.2221
14344W        W57438  24.104   0.642  30.428 -0.1224  0.3355  0.0388
14345W        W57439  23.364  33.059  31.830  0.2576 -0.0843 -0.2802
14346W        W57440  25.192  34.215   0.228 -0.0026 -0.0974 -0.0772
14347W        W57441  23.429  34.238   0.957 -0.0852 -0.1058 -0.0164
14348W        W57442  23.627   0.266  31.844 -0.1041 -0.1190 -0.3024
14349W        W57443  23.888   0.591  30.014 -0.1799 -0.0745  0.0331
14350W        W57444  22.619  34.509   1.519 -0.2303  0.0484 -0.2080
14351W        W57445  21.280  32.272   0.419  0.0043  0.2545  0.2610
14352W        W57446  24.858   1.346  31.246 -0.2433  0.1761 -0.0482
14353W        W57447  25.869   2.016  18.766  0.1457 -0.0290  0.2748
14354W        W57448  25.805   1.138  17.357  0.1936 -0.2509  0.2467
14355W        W57449  26.823   1.393  16.381 -0.0015  0.1239 -0.2943
14356W        W57450  29.583   2.095  17.560  0.2111  0.0019 -0.0270
14357W        W57451  25.093   2.250  16.917  0.0764 -0.1126 -0.1223
14358W        W57452  28.000   3.736  17.310  0.0658  0.1689 -0.4967
14359W        W57453  25.413  32.983  19.540  0.0850  0.2743  0.1621
14360W        W57454  28.174   2.047  18.346 -0.2733  0.2622  0.1849
14361W        W57455  29.099   3.604  17.327 -0.1845 -0.0285 -0.0246
14362W        W57456  27.017   2.195  16.274 -0.3633  0.1400  0.1205
14363W        W57457  27.686  34.371  18.205  0.0477  0.0878  0.3888
14364W        W57458  26.871   2.543  20.386  0.4556  0.0430  0.0612
14365W        W57459  27.194   0.996  16.397 -0.0729 -0.0230 -0.1514
14366W        W57460  26.683  33.034  18.402  0.0346  0.4240  0.0834
14367W        W57461  27.778   0.959  18.384  0.2992  0.2625  0.1195
14368W        W57462  26.124   2.714  16.708 -0.4929 -0.1195 -0.1395
14369W        W57463  26.129   0.568  19.154  0.3241 -0.1309 -0.1049
14370W        W57464  26.451   1.648  17.246 -0.0919  0.4301  0.1687
14371W        W57465  27.888   4.166  16.970  0.0513  0.0704 -0.2639
14372W        W57466  27.031   0.534  19.026  0.3283  0.0639  0.0272
14373W        W57467  27.182   0.895  20.068  0.0442  0.0081 -0.0368
14374W        W57468  26.884   3.091  16.037  0.0095  0.0725  0.0574
14375W        W57469  24.812   0.676  16.182  0.0033 -0.2268 -0.1384
14376W        W57470  24.417   0.707  18.424 -0.3013  0.0219  0.0364
14377W        W57471  25.653   1.495  18.862 -0.0867  0.1184  0.0979
14378W        W57472  27.990   0.156  18.113 -0.1830  0.0578 -0.0975
14379W        W57473  27.947   2.788  17.939 -0.0280  0.1595  0.0271
14380W        W57474  26.055   2.920  17.746  0.0849  0.0483 -0.0558
14381W        W57475  26.343   2.681  17.332 -0.0678 -0.2942 -0.2033
14382W        W57476  28.556   1.166  19.594  0.1336  0.0167  0.2165
14383W        W57477  25.194   1.413  18.262 -0.2233  0.0630  0.0893
14384W        W57478  25.578   2.342  17.095 -0.1682  0.3960 -0.1407
14385W        W57479  25.031   2.108  16.373 -0.2515 -0.0173  0.1568
14386W        W57480  29.814   2.370  18.706  0.2375 -0.1024 -0.1175
14387W        W57481  28.176   2.199  19.308  0.1400  0.1659 -0.2093
14388W        W57482  27.488   2.801  18.913 -0.0794 -0.2029 -0.1570
14389W        W57483  24.860   3.016  16.628 -0.0337  0.0108 -0.0267
14390W        W57484  28.143   2.899  19.935  0.2504  0.1050  0.0461
14391W        W57485  26.347   2.180  20.016  0.0829  0.1956  0.3750
14392W        W57486  27.230   1.393  19.141  0.2572  0.0828 -0.3547
14393W        W57487  27.693   1.726  18.492  0.1093  0.2139  0.0339
14394W        W57488  24.994   1.134  16.313 -0.3496 -0.1166 -0.1254
14395W        W57489  27.154   2.164  17.673  0.1169  0.1708 -0.0799
14396W        W57490  26.996   2.560  21.173  0.1350  0.1885  0.0520
14397W        W57491  25.882   2.926  18.278 -0.1067  0.2880  0.3075
14398W        W57492  29.198   1.285  19.121 -0.1205 -0.1553 -0.0053
14399W        W57493  25.613   2.660  16.697  0.0146  0.1261  0.1403
14400W        W57494  28.074   1.343  16.613 -0.0854 -0.0410 -0.0313
14401W        W57495  26.742   0.632  16.471  0.0832  0.1312  0.0248
14402W        W57496  27.209   1.333  16.762  0.2600  0.0596  0.0887
14403W        W57497  28.104   0.656  17.991  0.1019 -0.0540  0.2709
14404W        W57498  25.227   1.711  19.030  0.4207  0.0032 -0.0644
14405W        W57499  26.971   0.372  18.105  0.4457 -0.4163 -0.0646
14406W        W57500  28.586   2.011  19.568  0.2572  0.2284  0.1425
14407W        W57501  27.767   1.943  18.053 -0.0733  0.2754 -0.0024
14408W        W57502  26.469   0.801  18.751 -0.1114 -0.1198  0.1830
14409W        W57503  24.760   3.061  17.701  0.1320  0.0071 -0.1885
14410W        W57504  25.254   1.749  17.864  0.1990 -0.1826 -0.0506
14411W        W57505  28.572   2.740  18.687 -0.1608  0.4333 -0.2128
14412W        W57506  29.537   3.461  18.296 -0.1548  0.1668 -0.0948
14413W        W57507  27.198   2.694  16.283  0.3996 -0.2244  0.2674
14414W        W57508  25.242   0.784  15.979 -0.1375  0.0091 -0.0376
14415W        W57509  25.660   0.778  19.215 -0.0981 -0.2937  0.0441
14416W        W57510  27.277   1.193  17.786  0.0603  0.2663  0.2144
14417W        W57511  27.027   0.064  15.984 -0.3614 -0.2611 -0.3291
14418W        W57512  28.481   2.564  19.182  0.0988  0.0228 -0.1015
14419W        W57513  26.097   2.188  19.308  0.0014  0.0060  0.2916
14420W        W57514  29.045   2.683  17.788  0.0464  0.0238  0.2261
14421W        W57515  26.102   0.970  18.441  0.1700 -0.0433  0.0002
14422W        W57516  27.450   2.371  19.906 -0.0594  0.1499  0.1235
14423W        W57517  28.148   3.010  16.055 -0.1515  0.1159  0.2131
14424W        W57518  28.550   1.254  18.332 -0.1651 -0.0853 -0.0756
14425W        W57519  28.627   0.179  16.879 -0.0803  0.0231 -0.0366
14426W        W57520  25.737   2.054  16.162 -0.1096  0.0475  0.1430
14427W        W57521  26.084   2.314  15.910  0.0346  0.1546  0.0298
14428W        W57522  29.875   4.690  19.241 -0.0972  0.0562  0.5990
14429W        W57523  28.061   1.867  16.606  0.1026  0.0765  0.1184
14430W        W57524  26.605   3.064  17.728 -0.1256 -0.1656 -0.0313
14431W        W57525  27.280   1.222  20.507  0.0542 -0.2156  0.0897
14432W        W57526  26.428   1.885  18.945  0.2528  0.0596 -0.0012
14433W        W57527  25.811   2.595  16.256  0.0550 -0.1311  0.0362
14434W        W57528  24.276   3.166  17.626 -0.1039  0.2392 -0.1097
14435W        W57529  26.353   2.279  16.357  0.1855  0.3940 -0.0425
14436W        W57530  25.592  34.135  19.216 -0.3065 -0.0455 -0.0887
14437W        W57531  26.165   1.793  18.220  0.2272 -0.0430 -0.1428
14438W        W57532  29.043   0.512  16.531  0.0053 -0.2797  0.0531
14439W        W57533  27.251  34.458  17.403  0.0357 -0.3083  0.1436
14440W        W57534  28.501   0.357  17.763 -0.2214 -0.1195 -0.0787
14441W        W57535  24.916   1.715  17.181  0.0981  0.1102  0.0347
14442W        W57536  28.656   2.319  17.608  0.1464  0.3264 -0.3998
14443W        W57537  29.699   1.488  17.849  0.1874  0.1254  0.1097
14444W        W57538  27.789   3.581  16.864  0.5219 -0.1467  0.0665
14445W        W57539  24.313   0.284  19.364  0.0723  0.0193  0.1457
14446W        W57540  25.192   1.101  18.789  0.0184 -0.1588  0.1271
14447W        W57541  26.989  34.122  19.308 -0.0774  0.1674 -0.2462
14448W        W57542  25.947   0.117  20.001  0.0306 -0.1265 -0.0527
14449W        W57543  29.152  34.513  18.449 -0.0707  0.1323  0.0615
14450W        W57544  26.681   0.399  16.049 -0.4119  0.0232  0.0631
14451W        W57545  29.099   2.118  17.949  0.1020 -0.0210  0.1358
14452W        W57546  26.108   1.349  17.061  0.3520 -0.2111  0.1399
14453W        W57547  25.145   1.411  16.715  0.1504  0.0305  0.1218
14454W        W57548  28.230   0.852  18.425 -0.2354  0.0235 -0.7190
14455W        W57549  27.033   2.967  16.690 -0.3159  0.2603  0.0556
14456W        W57550  29.120   4.361  19.924 -0.1095 -0.1845 -0.2641
14457W        W57551  28.260   3.430  16.983  0.0796  0.3477 -0.4638
14458W        W57552  25.349   1.043  17.545  0.3525  0.1610 -0.0394
14459W        W57553  24.196   0.917  16.953 -0.0769  0.2290 -0.1125
14460W        W57554  25.186   2.724  17.051  0.4335 -0.0904  0.1950
14461W        W57555  26.909   2.546  19.431  0.2359  0.0265  0.1690
14462W        W57556  26.435   0.943  16.798 -0.3075 -0.1046 -0.4092
14463W        W57557  29.145   3.129  17.285  0.1162  0.2240  0.1119
14464W        W57558  26.638   1.939  16.503 -0.0913 -0.1325 -0.2395
14465W        W57559  25.636   3.094  19.284 -0.0317 -0.1544  0.1991
14466W        W57560  27.313  32.782  19.354 -0.0494 -0.1041 -0.0307
14467W        W57561  29.181   3.225  17.778  0.0090  0.1683  0.1046
14468W        W57562  27.328   2.446  18.102  0.0370  0.3228 -0.2348
14469W        W57563  25.085  34.112  16.590  0.0323 -0.1307 -0.3131
14470W        W57564  27.861   2.641  17.066  0.0036 -0.0435  0.1351
14471W        W57565  24.616   3.460  17.327  0.0129 -0.0876 -0.0957
14472W        W57566  24.465   0.798  17.907  0.2281  0.1544  0.2109
14473W        W57567  27.036   3.678  17.859 -0.1196 -0.0620 -0.0030
14474W        W57568  27.468   0.322  18.166  0.1883 -0.3107 -0.0900
14475W        W57569  25.773   1.363  19.286  0.3443  0.2453 -0.2709
14476W        W57570  26.284   1.303  18.084  0.0763  0.0260  0.2104
14477W        W57571  26.611   0.629  17.238  0.0133 -0.0861  0.0851
14478W        W57572  25.203   2.651  19.148  0.2774  0.3145 -0.2585
14479W        W57573  27.908   0.925  18.864  0.0967 -0.2925 -0.1735
14480W        W57574  28.845   0.838  17.614 -0.1507 -0.2982  0.0451
14481W        W57575  26.776   1.286  18.339 -0.0123 -0.0110  0.1504
14482W        W57576  28.713   1.980  17.111 -0.2465  0.0856  0.1575
14483W        W57577  27.970   0.598  16.985  0.0869 -0.2703 -0.1874
14484W        W57578  26.984   1.323  15.875 -0.2300 -0.0989 -0.0926
14485W        W57579  26.654   2.338  19.010  0.0471  0.0814 -0.1232
14486W        W57580  25.570   2.610  18.051 -0.0178  0.2195  0.0357
14487W        W57581  25.904   2.925  18.772 -0.0711 -0.1213  0.0671
14488W        W57582  27.397  34.485  16.123 -0.2298 -0.3473 -0.1464
14489W        W57583  28.467   2.390  16.808 -0.5131 -0.0382  0.1301
14490W        W57584  25.467   2.615  18.674  0.2873  0.1373  0.0228
14491W        W57585  28.921   1.219  19.981  0.2492  0.0760 -0.0701
14492W        W57586  27.833   3.149  17.179  0.1611  0.2177  0.2104
14493W        W57587  26.893  34.680  19.008 -0.0168 -0.0759 -0.2844
14494W        W57588  26.129   0.654  16.456 -0.2911 -0.3260 -0.0211
14495W        W57589  28.379  34.570  17.930 -0.3256  0.1719 -0.2593
14496W        W57590  25.989   2.896  15.921  0.2354 -0.2394  0.0957
14497W        W57591  29.455   0.217  18.274 -0.1052  0.0158  0.0902
14498W        W57592  27.922   0.478  18.535  0.1469  0.2840  0.1222
14499W        W57593  26.785  33.796  20.311  0.0844  0.0591  0.0624
14500W        W57594  30.049   2.646  19.983 -0.1342  0.0170  0.0446
14501W        W57595  28.559   1.533  16.227  0.2476 -0.1917 -0.0342
14502W        W57596  28.429   0.708  18.909  0.1947 -0.2356 -0.1074
14503W        W57597  25.879   1.567  16.710 -0.0350  0.0292  0.1710
14504W        W57598  27.703   0.039  17.215  0.2488  0.1646  0.1731
14505W        W57599  24.879   1.572  18.627  0.0064 -0.1742  0.2854
14506W        W57600  24.710   2.230  17.900  0.1552 -0.2288 -0.0076
14507W        W57601  27.609   1.377  18.117  0.1657 -0.1011  0.1092
14508W        W57602  28.304   1.797  17.382  0.1846 -0.1088 -0.0967
14509W        W57603  27.295   0.903  19.502 -0.2822  0.1725 -0.0875
14510W        W57604  26.806   1.433  17.003 -0.3053  0.1835  0.0212
14511W        W57605  26.766   3.017  15.492 -0.0173  0.0426 -0.1922
14512W        W57606  26.524   2.795  16.905 -0.1947 -0.3600 -0.3266
14513W        W57607  25.792   0.513  18.734 -0.0324 -0.0629 -0.0990
14514W        W57608  27.236   2.078  19.516 -0.1719  0.1208  0.0437
14515W        W57609  26.138   1.855  16.321  0.2518  0.2807 -0.3676
14516W        W57610  28.949   2.508  18.252 -0.0452  0.2793  0.1862
14517W        W57611  25.638   0.678  16.608  0.3256 -0.2174 -0.0722
14518W        W57612  28.904   0.235  18.154 -0.0830  0.3983 -0.1450
14519W        W57613  23.847   2.422  16.570 -0.1853  0.2361  0.0363
14520W        W57614  26.346   0.170  17.328  0.3344  0.0919  0.1056
14521W        W57615  24.198   0.372  16.918  0.1578 -0.3045 -0.2592
14522W        W57616  28.717   0.707  18.066  0.0516 -0.0709 -0.0188
14523W        W57617  27.645   2.056  16.839 -0.1128  0.1273  0.0839
14524W        W57618  26.587  34.264  19.575  0.2441  0.1652 -0.1712
14525W        W57619  27.723   0.414  17.737  0.0603  0.2479 -0.2077
14526W        W57620  23.930   1.892  18.909 -0.1217  0.0871 -0.1488
14527W        W57621  28.459   1.650  18.648  0.0851  0.1287  0.1474
14528W        W57622  29.052   1.018  17.152  0.0189 -0.2698 -0.1097
14529W        W57623  25.849   1.762  17.399  0.0419  0.0150  0.6324
14530W        W57624  26.585   0.280  18.720 -0.1809 -0.6628  0.1561
14531W        W57625  24.315  34.217  16.231  0.2366  0.1812 -0.0888
14532W        W57626  29.878   1.126  19.094  0.0861  0.1088 -0.1478
14533W        W57627  25.544   1.161  16.918  0.0739 -0.0416  0.3249
14534W        W57628  24.544   2.230  16.258  0.0373  0.1044 -0.1258
14535W        W57629  28.484   2.463  18.249 -0.0689 -0.1587  0.0935
14536W        W57630  25.963   2.237  16.657  0.1971  0.2353  0.2540
14537W        W57631  25.677   2.103  17.830  0.2820  0.0854  0.0073
14538W        W57632  26.544   0.022  18.262 -0.0905  0.2277 -0.1783
14539W        W57633  29.274   2.294  19.676  0.4473  0.3682 -0.1721
14540W        W57634  28.354   1.865  17.887  0.1182  0.4961 -0.0732
14541W        W57635  25.987   1.118  16.465  0.1273  0.0335  0.1024
14542W        W57636  26.664   1.997  17.574 -0.0002  0.0308 -0.1907
14543W        W57637  27.505   3.652  18.013  0.3640 -0.0131 -0.1709
14544W        W57638  26.119   0.234  18.514 -0.0421  0.1968 -0.0561
14545W        W57639  26.603   2.018  20.421  0.2646 -0.0476  0.2474
14546W        W57640  27.537   0.807  17.479  0.2454  0.1177 -0.0164
14547W        W57641  28.926   2.942  16.785 -0.0083  0.2128  0.1831
14548W        W57642  27.411   0.613  18.576 -0.1867  0.0524  0.0037
14549W        W57643  25.416   1.756  16.420  0.1497 -0.1111  0.2095
14550W        W57644  25.153   0.229  18.350  0.0695 -0.0842 -0.3245
14551W        W57645  24.644   2.033  16.764 -0.2718 -0.1624 -0.3243
14552W        W57646  27.885   1.039  17.815  0.2443  0.0017 -0.1877
14553W        W57647  25.309   3.518  18.641  0.1718 -0.0756 -0.0781
14554W        W57648  24.992   1.324  17.799  0.2486 -0.1615  0.2676
14555W        W57649  25.540   3.087  17.862  0.0013 -0.0248  0.2648
14556W        W57650  28.151   0.870  16.511 -0.0916  0.1720  0.6551
14557W        W57651  28.613   2.876  16.376  0.1093 -0.0510  0.1041
14558W        W57652  27.219   0.453  16.755  0.2965 -0.0565 -0.2302
14559W        W57653  29.845   1.123  20.395  0.3413 -0.1059  0.2839
14560W        W57654  27.390   2.531  16.725  0.1286  0.2695  0.0349
14561W        W57655  28.490   0.428  20.307 -0.2563 -0.4144  0.0292
14562W        W57656  26.954  34.301  20.976  0.0720  0.3798  0.2060
14563W        W57657  28.416   2.723  17.825  0.0924 -0.1718  0.1233
14564W        W57658  25.155  34.545  19.510  0.2612 -0.0489 -0.1900
14565W        W57659  27.111   4.142  19.271  0.0984 -0.0064 -0.1802
14566W        W57660  26.014   0.907  19.544  0.0930  0.0493  0.1449
14567W        W57661  27.898   1.136  17.069  0.1684 -0.0152  0.2153
14568W        W57662  26.714  34.431  16.750  0.3802  0.0033 -0.1347
14569W        W57663  25.754   0.772  17.671  0.1193 -0.0366  0.2043
14570W        W57664  29.461   2.334  19.202 -0.0678  0.1964 -0.1953
14571W        W57665  26.392   3.037  16.432  0.3835 -0.1675  0.0512
14572W        W57666  28.989   1.563  18.095  0.3119  0.1557  0.2885
14573W        W57667  24.460  34.648  17.836  0.0615 -0.0858 -0.0861
14574W        W57668  27.947   2.343  16.588 -0.1602 -0.1714 -0.1814
14575W        W57669  26.422   2.329  16.860 -0.3246  0.2650 -0.0028
14576W        W57670  25.503   1.215  16.387 -0.1086  0.1446 -0.0241
14577W        W57671  27.728   0.926  19.951  0.1123 -0.1639 -0.1648
14578W        W57672  26.996   2.977  18.047  0.4309 -0.0242 -0.1424
14579W        W57673  28.618  34.648  18.420  0.4711 -0.2470  0.0500
14580W        W57674  28.412   0.400  18.321 -0.0221  0.3618 -0.2955
14581W        W57675  28.011   1.204  19.590  0.2633  0.1207 -0.1923
14582W        W57676  26.812   0.816  18.065 -0.1143 -0.2926 -0.0669
14583W        W57677  26.146  34.682  19.575 -0.3669  0.1958 -0.0851
14584W        W57678  29.751   2.752  18.397  0.1698  0.2006  0.0870
14585W        W57679  28.236   1.308  17.447 -0.1811  0.0673 -0.2229
14586W        W57680  28.876  34.581  18.832  0.1287  0.1019  0.0653
14587W        W57681  29.238   1.802  18.392 -0.0249 -0.3211 -0.3608
14588W        W57682  26.532   1.151  17.320 -0.1011  0.0590  0.0605
14589W        W57683  25.430  34.541  18.930 -0.1113  0.1713 -0.1084
14590W        W57684  27.473   1.337  20.051 -0.0032  0.1772 -0.0398
14591W        W57685  26.796   1.920  16.988 -0.0081  0.3496  0.0954
14592W        W57686  26.718   1.234  20.116  0.0593 -0.0926  0.0185
14593W        W57687  27.691   2.850  16.220 -0.2242 -0.1610  0.1206
14594W        W57688  27.333   2.325  17.218 -0.1277  0.0455  0.1522
14595W        W57689  27.425   1.735  17.714 -0.1348 -0.1683 -0.1378
14596W        W57690  24.608   0.519  19.006  0.2794  0.3134 -0.0361
14597W        W57691  26.368   2.533  20.363 -0.2070  0.0096 -0.1608
14598W        W57692  24.752  33.956  17.186 -0.0319 -0.0526  0.0928
14599W        W57693  26.955   1.613  17.473  0.0330  0.1261 -0.0858
14600W        W57694  26.418   2.189  18.466  0.0193  0.0126  0.2319
14601W        W57695  28.367   0.152  18.799  0.1431  0.2467  0.0939
14602W        W57696  28.864  34.491  17.798 -0.1884  0.0495 -0.0194
14603W        W57697  28.845   1.574  19.501 -0.1560  0.2444  0.2949
14604W        W57698  23.529   2.264  16.169 -0.0110  0.1531 -0.2199
14605W        W57699  27.093   1.608  18.661 -0.2543 -0.4149 -0.0802
14606W        W57700  26.647   1.769  18.494  0.1590  0.4514  0.3437
14607W        W57701  25.204   2.331  18.371  0.1374 -0.0146  0.0497
14608W        W57702  24.587   2.624  16.760 -0.1177  0.2286  0.0393
14609W        W57703  27.701   0.242  16.787 -0.2060  0.0197  0.2669
14610W        W57704  26.141   2.439  18.868 -0.5781 -0.0035  0.1807
14611W        W57705  26.602   1.695  17.939 -0.1350  0.1634  0.3644
14612W        W57706  28.659   0.333  19.200  0.0198  0.0743  0.2563
14613W        W57707  28.054   2.005  18.833  0.0685 -0.1111  0.0571
14614W        W57708  24.359   2.103  18.799  0.1471 -0.2154 -0.0665
14615W        W57709  27.915   2.507  19.657 -0.0381  0.3074 -0.1675
14616W        W57710  28.138   2.119  17.047  0.2777  0.2165  0.1405
14617W        W57711  27.301   3.298  18.339  0.0740 -0.2505  0.0425
14618W        W57712  26.065   1.450  20.407  0.2014  0.1068  0.1653
14619W        W57713  26.402   1.670  20.130 -0.1474 -0.2209  0.0329
14620W        W57714  26.317   3.223  17.385  0.0715 -0.1035 -0.1386
14621W        W57715  25.518   0.609  17.247  0.1886 -0.2350  0.3932
14622W        W57716  27.604   1.548  15.769 -0.0254 -0.1140  0.0520
14623W        W57717  26.330   3.025  19.636 -0.0999  0.3726  0.0178
14624W        W57718  25.584   2.456  19.361 -0.1520  0.0739 -0.1500
14625W        W57719  25.531   2.632  17.531  0.1773  0.3512 -0.0261
14626W        W57720  26.160   2.151  17.265 -0.1543 -0.0527  0.1854
14627W        W57721  26.679   2.610  16.453 -0.1054  0.1764  0.2064
14628W        W57722  27.837   1.951  17.524  0.0740 -0.0676  0.1261
14629W        W57723  28.110   2.280  17.862  0.1979  0.4032 -0.2118
14630W        W57724  26.229   1.872  16.859  0.1834  0.0888 -0.2189
14631W        W57725  25.460   2.235  16.571 -0.1181  0.0896 -0.0508
14632W        W57726  27.607   4.344  16.248  0.1587  0.0471 -0.0200
14633W        W57727  26.066   3.620  17.153 -0.0123  0.1770 -0.4106
14634W        W57728  28.184   2.084  19.814 -0.1740  0.0703 -0.1161
14635W        W57729  29.387  34.445  16.550  0.0076  0.0645 -0.0859
14636W        W57730  28.378   2.515  19.683 -0.1299 -0.0388 -0.2080
14637W        W57731  28.772   1.457  16.672  0.0313 -0.4524 -0.2495
14638W        W57732  27.581   3.646  20.417 -0.0177 -0.2695 -0.0811
14639W        W57733  26.789   1.263  17.804 -0.1671 -0.0170  0.2594
14640W        W57734  26.716   0.908  15.952 -0.0639  0.0315 -0.1347
14641W        W57735  25.853   1.413  18.336 -0.2924 -0.0046  0.0579
14642W        W57736  30.471   0.959  19.488  0.3498 -0.0702  0.0553
14643W        W57737  26.697   3.308  18.896  0.3240  0.1583  0.1234
14644W        W57738  28.565   3.787  17.147 -0.1999 -0.0618  0.2143
14645W        W57739  26.201  34.306  17.558  0.1705 -0.2725  0.3793
14646W        W57740  26.697   0.270  16.853 -0.1386 -0.2131 -0.1141
14647W        W57741  27.750  34.227  19.283 -0.0667  0.0569 -0.0990
14648W        W57742  25.367   2.490  16.063  0.0527  0.0052 -0.1108
14649W        W57743  29.147   2.077  17.330 -0.1429  0.0172  0.0122
14650W        W57744  27.520   4.409  18.405  0.1250  0.3541 -0.0253
14651W        W57745  27.612   2.890  17.541  0.2138 -0.2254  0.0929
14652W        W57746  27.840   3.301  17.700 -0.3409  0.0459  0.0133
14653W        W57747  24.838  34.583  16.474 -0.0375 -0.2686 -0.3383
14654W        W57748  28.917   1.705  18.761 -0.2080  0.2010  0.2669
14655W        W57749  26.007  33.769  18.650 -0.0093  0.2300  0.0151
14656W        W57750  28.840   0.349  18.662  0.3412 -0.0372  0.0229
14657W        W57751  25.980   2.448  17.600  0.0437  0.0922  0.2689
14658W        W57752  27.340   1.824  17.209 -0.2396 -0.0037 -0.0975
14659W        W57753  26.586   2.071  19.406 -0.2574  0.0287 -0.1569
14660W        W57754  24.668   0.868  19.424 -0.0135 -0.2288 -0.0360
14661W        W57755  25.646   2.303  15.731 -0.2740  0.0871  0.1350
14662W        W57756  29.407   1.644  19.351 -0.1354  0.0083  0.1516
14663W        W57757  27.904   2.458  16.075 -0.0310 -0.0275  0.0329
14664W        W57758  28.910   4.005  19.339  0.0346 -0.0151 -0.0059
14665W        W57759  25.654   0.043  18.561  0.0132 -0.1209 -0.0886
14666W        W57760  28.374   1.546  16.960 -0.0453  0.0293 -0.1143
14667W        W57761  26.190   1.389  17.605  0.0440 -0.1468 -0.2074
14668W        W57762  26.061   0.574  17.351 -0.3041  0.0146 -0.0556
14669W        W57763  28.591   4.326  19.853  0.2055  0.2481 -0.1923
14670W        W57764  24.639   1.094  18.875  0.2435 -0.0179 -0.0909
14671W        W57765  28.668   3.221  17.140  0.2517 -0.0829  0.1468
14672W        W57766  28.083   0.359  19.122 -0.2209 -0.0954  0.1555
14673W        W57767  26.077   3.116  16.936  0.3277  0.2180  0.0774
14674W        W57768  28.083   2.866  16.494 -0.0314  0.1373 -0.0530
14675W        W57769  28.936   3.432  18.213 -0.2182 -0.1881  0.0549
14676W        W57770  24.639   0.236  18.494 -0.0612 -0.0654 -0.0292
14677W        W57771  28.381   3.447  18.477 -0.2517 -0.1857  0.5057
14678W        W57772  29.233   3.503  18.786  0.0212  0.1127  0.0191
14679W        W57773  26.927   0.871  16.886  0.1131 -0.1136  0.2061
14680W        W57774  25.912   0.556  18.141  0.1535 -0.4763 -0.0428
14681W        W57775  25.565   3.045  17.073 -0.2653 -0.0988  0.0701
14682W        W57776  28.740   1.135  19.048  0.1239  0.2926  0.0120
14683W        W57777  26.741   0.831  19.740  0.0018  0.0519  0.1289
14684W        W57778  27.724   3.936  16.528  0.0492 -0.0025 -0.1444
14685W        W57779  28.955   1.129  18.109  0.2824  0.3077 -0.0555
14686W        W57780  27.516   1.273  18.691 -0.1573  0.0472 -0.0432
14687W        W57781  27.250   3.237  20.043  0.2407  0.0817 -0.1785
14688W        W57782  25.957   0.868  16.929  0.0660  0.3230 -0.0870
14689W        W57783  26.614   0.080  19.632 -0.4161  0.2275  0.0033
14690W        W57784  25.413   1.565  17.307 -0.0222 -0.3972 -0.0853
14691W        W57785  26.803   3.377  16.449  0.1633 -0.0645  0.1708
14692W        W57786  27.133   3.188  17.558  0.3137  0.0854 -0.1790
14693W        W57787  27.330   1.917  18.287 -0.0209 -0.1433 -0.0468
14694W        W57788  29.684   3.461  19.088  0.2284  0.2972 -0.1437
14695W        W57789  28.035   1.520  17.824  0.2833 -0.3464  0.0410
14696W        W57790  29.690  33.496  17.531  0.0701  0.1356  0.1953
14697W        W57791  28.547  34.049  18.079 -0.1594  0.0994  0.1892
14698W        W57792  26.973   1.954  19.056  0.2472  0.0508 -0.2042
14699W        W57793  24.760   0.449  16.641  0.1726  0.1769  0.1106
14700W        W57794  26.064   1.823  15.822  0.1754  0.1375  0.1265
14701W        W57795  25.540   1.825  18.314 -0.0915  0.0976 -0.0488
14702W        W57796  27.610  34.617  17.680  0.1516  0.1047  0.1643
14703W        W57797  25.910   0.074  19.071 -0.1524 -0.0057 -0.2270
14704W        W57798  24.780   1.754  17.665  0.0086  0.4263  0.0014
14705W        W57799  25.742   0.162  17.949 -0.0415  0.0570 -0.0556
14706W        W57800  28.714   3.075  17.692 -0.0686 -0.0288 -0.0703
14707W        W57801  25.919  34.301  18.693 -0.0110 -0.0565 -0.1287
14708W        W57802  24.894  34.622  17.543 -0.4066  0.3053 -0.0154
14709W        W57803  26.789   2.422  17.252 -0.0017  0.1702  0.1042
14710W        W57804  28.154   3.848  18.311 -0.1307  0.0551 -0.2774
14711W        W57805  27.709   1.430  17.478 -0.1147  0.0407  0.0871
14712W        W57806  28.724   3.993  18.482 -0.1102  0.1307  0.1637
14713W        W57807  24.985   1.170  15.793  0.3032 -0.1574 -0.0860
14714W        W57808  26.302   0.880  17.736 -0.1339  0.2851  0.1133
14715W        W57809  27.211  34.545  20.504 -0.2478 -0.3943  0.1126
14716W        W57810  25.091   0.402  17.135  0.1284 -0.0074  0.1344
14717W        W57811  26.878   0.619  18.528 -0.0602 -0.3114  0.2443
14718W        W57812  27.320   2.839  17.169  0.0777 -0.2310  0.0461
14719W        W57813  27.449   2.388  15.905  0.1745  0.0253  0.1677
14720W        W57814  26.001   1.090  18.941  0.1129 -0.2624  0.3788
14721W        W57815  27.416   0.893  18.987  0.0164 -0.1059 -0.0648
14722W        W57816  23.890   0.384  19.149  0.4131  0.0107  0.3857
14723W        W57817  28.335   2.833  17.039  0.0724 -0.1436  0.2899
14724W        W57818  27.770   2.114  20.200  0.0657  0.2994 -0.1553
14725W        W57819  28.560   1.901  16.655 -0.3287 -0.1076  0.2028
14726W        W57820  28.382  33.509  18.116  0.3379 -0.0327 -0.0199
14727W        W57821  27.624   1.597  16.607  0.0185 -0.2874 -0.1392
14728W        W57822  25.339   0.369  18.853  0.1402 -0.1481  0.0412
14729W        W57823  27.092   1.530  18.061  0.1918  0.0066  0.5682
14730W        W57824  29.073   1.273  18.564 -0.1539  0.1295  0.0619
14731W        W57825  27.360   0.395  17.207 -0.2601 -0.1323  0.3962
14732W        W57826  27.886   1.696  17.086  0.0342  0.0193  0.4051
14733W        W57827  26.559   3.365  16.921  0.0395 -0.0192 -0.3741
14734W        W57828  23.678  34.653  18.876 -0.0760  0.0823 -0.1192
14735W        W57829  26.858   2.082  18.108 -0.4005 -0.0530  0.0239
14736W        W57830  25.641   0.607  19.962 -0.0193  0.1816 -0.0607
14737W        W57831  26.950   2.337  16.793 -0.0683  0.1737  0.2461
14738W        W57832  27.231   1.059  18.303 -0.0100  0.1942  0.0101
14739W        W57833  27.186   1.844  16.597 -0.1047 -0.0027  0.4088
14740W        W57834  28.602   1.447  17.795 -0.2107 -0.1927 -0.2175
14741W        W57835  28.576   3.033  19.695 -0.0695  0.0020 -0.1689
14742W        W57836  29.905   3.934  19.064 -0.2709  0.1145 -0.2687
14743W        W57837  27.390   3.808  19.903 -0.1735  0.1895 -0.2072
14744W        W57838  29.567   2.945  17.492 -0.0695  0.0876  0.1075
14745W        W57839  26.406   0.564  18.208  0.4475 -0.0101 -0.0241
14746W        W57840  24.788   0.936  17.584 -0.0033  0.1177  0.1257
14747W        W57841  26.277   2.127  17.824 -0.1338 -0.2482 -0.2941
14748W        W57842  28.518   1.867  19.082 -0.0771  0.1504 -0.3497
14749W        W57843  27.471   0.779  18.000 -0.0100 -0.2705 -0.0244
14750W        W57844  28.350   0.886  17.113  0.1533  0.1439 -0.2699
14751W        W57845  26.748   3.205  19.809 -0.0622 -0.2656 -0.0037
14752W        W57846  27.541   3.571  17.406 -0.4824  0.0102 -0.0476
14753W        W57847  25.315   2.571  22.048 -0.1245  0.0145  0.1987
14754W        W57848  26.300  34.176  21.442 -0.2271  0.2185 -0.2065
14755W        W57849  27.734   1.215  19.214  0.1283  0.0100  0.2656
14756W        W57850  28.672   1.084  20.397  0.0863  0.0137  0.1416
14757W        W57851  25.281  34.601  21.274 -0.0370 -0.1284  0.1982
14758W        W57852  27.286   1.830  21.019  0.1184 -0.2729 -0.1688
14759W        W57853  26.995  34.468  22.822  0.0899  0.3081 -0.2146
14760W        W57854  28.922   3.505  20.498 -0.4137 -0.0641  0.1891
14761W        W57855  29.168   4.054  21.963  0.1748 -0.4368 -0.1822
14762W        W57856  27.541   1.533  19.558  0.0066  0.1754 -0.1918
14763W        W57857  27.561  34.449  23.450  0.1742 -0.0369 -0.0386
14764W        W57858  26.888   4.159  21.659  0.0838 -0.0458 -0.0535
14765W        W57859  27.314  34.524  21.377 -0.2547  0.0555  0.1741
14766W        W57860  25.691   0.657  21.629 -0.1576 -0.4082  0.4677
14767W        W57861  28.265   1.399  21.748  0.3106 -0.2697 -0.1148
14768W        W57862  24.985   0.119  20.713  0.1129 -0.0938  0.3045
14769W        W57863  24.123   0.730  21.726 -0.0156 -0.0969 -0.0691
14770W        W57864  27.926   1.094  20.844  0.2835  0.0921  0.0870
14771W        W57865  27.263   3.618  21.221  0.0243  0.3197  0.3072
14772W        W57866  26.581   2.202  23.507 -0.1974  0.0044  0.2416
14773W        W57867  28.348   0.991  23.280  0.0491  0.0295  0.0845
14774W        W57868  28.491   2.204  20.282 -0.0897 -0.0246  0.3877
14775W        W57869  25.061   0.696  19.113  0.0708  0.3415 -0.1378
14776W        W57870  24.989   1.728  21.397 -0.0245 -0.1011  0.1411
14777W        W57871  25.034   2.700  23.026  0.2943  0.1880 -0.2349
14778W        W57872  28.355  33.695  20.869 -0.0536 -0.1604  0.1027
14779W        W57873  27.823   2.748  21.946 -0.1724 -0.0644  0.4061
14780W        W57874  27.151   4.249  19.734 -0.0112 -0.1134  0.4280
14781W        W57875  27.502   2.458  22.184 -0.0466 -0.0614  0.0740
14782W        W57876  27.497   2.293  23.582 -0.0975 -0.0904  0.1742
14783W        W57877  25.511   1.101  20.873  0.2199  0.1791 -0.2463
14784W        W57878  25.793   4.558  21.625 -0.2310  0.0586 -0.1520
14785W        W57879  26.179   1.879  20.656  0.2828 -0.0344  0.1120
14786W        W57880  28.669   3.632  21.424  0.0178  0.0458  0.2342
14787W        W57881  27.548   1.907  21.476 -0.0504 -0.0419  0.0070
14788W        W57882  25.722   3.499  23.078  0.2846  0.0381 -0.0560
14789W        W57883  27.161   2.118  20.402 -0.0878  0.0226 -0.0380
14790W        W57884  27.971   3.311  23.209 -0.0052 -0.2004 -0.2252
14791W        W57885  26.018   4.136  23.574 -0.0398  0.1539  0.0566
14792W        W57886  25.136   2.594  22.483  0.2394 -0.1369  0.1057
14793W        W57887  25.842   2.123  21.099  0.0750  0.2008 -0.4183
14794W        W57888  26.614   1.536  21.091 -0.1428 -0.1171 -0.1845
14795W        W57889  26.370   2.794  21.796 -0.0164 -0.0149 -0.1400
14796W        W57890  25.240   3.964  23.262 -0.1752 -0.0101 -0.0141
14797W        W57891  25.809   2.755  21.850 -0.1720  0.0271 -0.1954
14798W        W57892  30.079   2.227  23.769 -0.1649  0.0065 -0.3387
14799W        W57893  28.081   2.505  20.205 -0.2467  0.1328 -0.2549
14800W        W57894  29.458   2.394  20.567  0.5399  0.1729 -0.0853
14801W        W57895  26.410   1.018  20.450 -0.2646  0.0195 -0.2316
14802W        W57896  28.510  34.634  19.804  0.0295 -0.2055  0.1512
14803W        W57897  28.528  34.424  21.797  0.1470 -0.0727 -0.4253
14804W        W57898  25.972   2.952  21.416 -0.1623 -0.0970 -0.1315
14805W        W57899  27.678   0.722  21.897 -0.1823  0.1939 -0.0103
14806W        W57900  28.193   3.366  21.479 -0.3589 -0.1169 -0.1694
14807W        W57901  26.899   1.641  21.551 -0.1007 -0.0609  0.1888
14808W        W57902  28.015   2.399  22.279  0.0129 -0.2343 -0.3331
14809W        W57903  25.393   3.134  20.573 -0.2663 -0.1693 -0.0212
14810W        W57904  28.457   0.472  21.245 -0.0646  0.0785 -0.0622
14811W        W57905  27.496   1.775  18.948 -0.2807  0.1455 -0.0221
14812W        W57906  28.421   3.466  20.505 -0.3621  0.0131  0.2063
14813W        W57907  27.081   5.116  20.762 -0.1888 -0.4190  0.1123
14814W        W57908  26.517   0.203  21.206 -0.0147 -0.0338 -0.2447
14815W        W57909  26.261   1.751  22.806 -0.3174 -0.3090  0.0924
14816W        W57910  26.664   1.994  22.445 -0.1560  0.4222 -0.1591
14817W        W57911  25.742  34.421  20.183 -0.1630  0.2113 -0.0305
14818W        W57912  28.868   3.510  22.235 -0.1690 -0.1504 -0.0061
14819W        W57913  25.727   3.359  21.735  0.2626  0.5060 -0.0685
14820W        W57914  29.080   1.547  20.369  0.1652 -0.3605  0.0664
14821W        W57915  25.227   2.799  20.986 -0.2102 -0.4261  0.1951
14822W        W57916  28.541   1.424  23.565 -0.1204  0.0438  0.0816
14823W        W57917  27.364   3.323  20.784 -0.0353  0.2394 -0.2029
14824W        W57918  29.132   1.508  21.641  0.1352 -0.1629 -0.4313
14825W        W57919  28.760   2.210  22.202  0.0917  0.0405  0.0048
14826W        W57920  26.264   1.464  18.603  0.1451  0.1116  0.1224
14827W        W57921  26.216   1.849  22.181  0.1077 -0.0191  0.2056
14828W        W57922  27.593   2.172  22.554 -0.0188  0.0377  0.0351
14829W        W57923  30.140   2.877  19.542 -0.1559 -0.2674  0.1324
14830W        W57924  26.742   3.429  21.327  0.1684 -0.0640  0.1175
14831W        W57925  27.163   2.105  22.345  0.0611  0.1003  0.0087
14832W        W57926  27.061   2.193  24.576 -0.1203 -0.0399  0.1942
14833W        W57927  26.324   3.315  20.575 -0.1204  0.0042  0.2600
14834W        W57928  25.572   1.426  20.503 -0.3067 -0.0609  0.3420
14835W        W57929  26.415   2.515  19.566 -0.0874  0.1025  0.0939
14836W        W57930  26.724   0.213  23.702  0.0393  0.1248  0.1444
14837W        W57931  25.964   2.794  23.665  0.1343 -0.2934  0.1192
14838W        W57932  30.124   1.747  21.799  0.0906  0.2284  0.1069
14839W        W57933  26.282   0.849  20.993  0.3003  0.1116  0.1154
14840W        W57934  29.855   2.636  22.003 -0.0069 -0.0238  0.4277
14841W        W57935  25.243   3.340  20.160  0.0537 -0.3939  0.0791
14842W        W57936  29.819   3.691  19.493  0.0457 -0.3119 -0.0521
14843W        W57937  29.055   1.082  20.708  0.1012  0.0904  0.1040
14844W        W57938  28.065   3.388  20.152 -0.3521 -0.0423 -0.0587
14845W        W57939  25.674   2.322  22.435  0.1479 -0.2294  0.1247
14846W        W57940  27.231   0.296  21.903  0.0996 -0.0679  0.2548
14847W        W57941  26.676   1.869  24.636 -0.2733  0.1862  0.2969
14848W        W57942  25.290   1.151  22.911 -0.0832 -0.0012 -0.0365
14849W        W57943  29.956   1.105  23.589 -0.0297 -0.3167  0.1572
14850W        W57944  25.503  34.246  19.791 -0.1228  0.2217 -0.0660
14851W        W57945  28.729   1.321  23.113  0.5398 -0.2578 -0.0899
14852W        W57946  25.023   1.187  19.682  0.0313 -0.1207 -0.2924
14853W        W57947  24.677   1.092  20.886 -0.0535  0.0814 -0.0606
14854W        W57948  28.799   0.497  23.254 -0.2706 -0.2194 -0.1508
14855W        W57949  27.788   4.410  20.949  0.0887  0.0583  0.0002
14856W        W57950  29.770   3.457  22.178 -0.0147  0.1978  0.0818
14857W        W57951  28.350   3.648  23.105 -0.1236  0.2332  0.1156
14858W        W57952  25.635   1.751  23.831 -0.0236 -0.0468  0.0207
14859W        W57953  26.681   1.493  20.553  0.3118 -0.0537  0.2508
14860W        W57954  25.610   2.630  20.647  0.1511 -0.3364 -0.4959
14861W        W57955  27.694   3.922  22.532 -0.2661 -0.2598 -0.0570
14862W        W57956  26.207   1.358  20.868 -0.0113 -0.0091 -0.1265
14863W        W57957  28.090   2.960  20.927 -0.1959 -0.0614  0.1794
14864W        W57958  27.120   2.822  20.724  0.0890  0.0932  0.1561
14865W        W57959  25.294   1.653  21.856  0.0455 -0.0417 -0.1831
14866W        W57960  27.663   1.821  23.407 -0.2385 -0.1833 -0.1671
14867W        W57961  28.338   1.587  22.761  0.0650  0.0987  0.0941
14868W        W57962  26.409   1.159  21.345 -0.2403  0.1853 -0.0774
14869W        W57963  26.688  33.488  19.888 -0.3589  0.1925 -0.0185
14870W        W57964  28.225   3.819  21.283 -0.2213 -0.1070 -0.1151
14871W        W57965  26.886   3.085  20.335  0.0664  0.0255  0.4074
14872W        W57966  25.748   1.081  21.860  0.0504 -0.4420  0.0271
14873W        W57967  27.064   3.141  21.122 -0.0238  0.2504  0.3017
14874W        W57968  28.573   1.747  22.230  0.1221 -0.4340  0.3375
14875W        W57969  25.611   1.440  23.416  0.0255 -0.3448 -0.2362
14876W        W57970  27.260   0.059  23.173  0.1921 -0.0123 -0.0734
14877W        W57971  26.534   1.335  19.683 -0.0013  0.3450 -0.1666
14878W        W57972  27.305   1.684  21.855 -0.0661 -0.0969  0.4191
14879W        W57973  28.541   0.647  21.768 -0.1127 -0.0719  0.2234
14880W        W57974  28.682   0.591  19.594  0.1394 -0.1492 -0.1525
14881W        W57975  27.104   2.298  22.834 -0.2398 -0.1196 -0.4686
14882W        W57976  29.252   1.777  19.969 -0.0437 -0.1225 -0.2442
14883W        W57977  27.366   1.846  19.995 -0.0606  0.0696 -0.0060
14884W        W57978  27.976   0.451  19.997 -0.0537  0.0701  0.1628
14885W        W57979  24.677   2.057  21.569 -0.1590  0.3895 -0.0377
14886W        W57980  29.067   2.062  20.386 -0.3613  0.2874  0.0543
14887W        W57981  27.466   1.858  22.866 -0.1782 -0.0283 -0.0050
14888W        W57982  25.751   1.110  20.185  0.3005  0.1032 -0.0931
14889W        W57983  30.236   3.630  19.993  0.1738  0.2976  0.2026
14890W        W57984  24.943   2.100  21.127  0.2113  0.0608  0.0351
14891W        W57985  28.410   2.758  22.665  0.0454 -0.0266  0.0663
14892W        W57986  28.802   2.243  19.911  0.2509 -0.1130 -0.0659
14893W        W57987  27.787   1.407  22.588 -0.0648  0.0731 -0.1346
14894W        W57988  26.403   0.987  19.275  0.2680  0.0794 -0.0347
14895W        W57989  28.133   1.425  23.156  0.0105  0.0887  0.2642
14896W        W57990  26.457   2.759  18.582 -0.2252  0.1305 -0.0369
14897W        W57991  29.440   0.770  21.452 -0.0068  0.0159  0.5140
14898W        W57992  29.057   1.522  23.601  0.0325 -0.1031  0.0987
14899W        W57993  27.817   1.618  21.801  0.1841  0.0225  0.1296
14900W        W57994  29.694   2.277  23.027 -0.1303  0.1782 -0.4973
14901W        W57995  29.984   2.153  20.087 -0.0328  0.0642  0.1734
14902W        W57996  27.485   1.771  20.448 -0.3250  0.0616 -0.0425
14903W        W57997  25.927   1.914  20.178 -0.0389 -0.0662 -0.1446
14904W        W57998  27.415   2.703  23.318  0.1863  0.0215 -0.1062
14905W        W57999  26.918   2.476  23.291  0.2137 -0.0377  0.0594
14906W        W58000  25.499   3.711  21.510  0.1100  0.5556  0.0142
14907W        W58001  27.906   3.771  24.280 -0.0199  0.0836 -0.0573
14908W        W58002  26.532   2.850  21.232 -0.0202 -0.0440  0.0133
14909W        W58003  27.932   1.878  22.944  0.1690 -0.0129 -0.0351
14910W        W58004  28.969   0.636  22.109  0.0993  0.2658  0.0035
14911W        W58005  26.652   4.289  19.752  0.2229  0.0970 -0.1598
14912W        W58006  27.162   2.755  19.871 -0.3040 -0.1173  0.1700
14913W        W58007  27.435  34.195  21.012 -0.0300 -0.1358 -0.0857
14914W        W58008  27.582   2.848  20.811 -0.0442  0.2558  0.1101
14915W        W58009  27.918   1.706  19.281 -0.2405  0.1471 -0.0028
14916W        W58010  29.298   1.926  22.850  0.0993 -0.0799  0.4439
14917W        W58011  25.920   2.455  20.255  0.1221  0.3430  0.1766
14918W        W58012  29.424   1.580  23.210 -0.1102 -0.0232  0.0115
14919W        W58013  25.253   2.203  22.745  0.3541 -0.0189  0.0995
14920W        W58014  26.928   1.119  21.384  0.0611  0.0323 -0.1611
14921W        W58015  24.851   0.802  19.950  0.2931  0.0983 -0.2873
14922W        W58016  28.977   3.217  21.228  0.1304  0.3608 -0.0708
14923W        W58017  28.352   1.630  19.678 -0.1031 -0.0161 -0.0789
14924W        W58018  25.941   1.463  22.482  0.1570  0.0549 -0.1795
14925W        W58019  28.775   0.192  21.625 -0.3866  0.1486  0.0761
14926W        W58020  25.438   2.797  21.481  0.0265 -0.1294  0.2124
14927W        W58021  28.120   3.159  22.159  0.0340  0.2722  0.1021
14928W        W58022  27.708   0.533  19.458 -0.1318 -0.1481  0.1600
14929W        W58023  28.877   2.206  22.868 -0.1424  0.1122 -0.2292
14930W        W58024  24.405   2.358  23.998 -0.1779 -0.0037 -0.1802
14931W        W58025  25.298   1.074  19.291  0.2640  0.0540  0.2164
14932W        W58026  28.516   1.940  23.139  0.0699  0.0081  0.0570
14933W        W58027  27.607   1.475  20.852  0.3114  0.2128  0.2588
14934W        W58028  24.983   2.581  19.601 -0.1556 -0.0194 -0.1801
14935W        W58029  28.380   3.296  22.563 -0.0383 -0.0011  0.1626
14936W        W58030  26.069   0.516  21.306 -0.1415 -0.1379  0.0043
14937W        W58031  26.042   2.607  21.055  0.0047 -0.3004  0.1231
14938W        W58032  26.366   0.302  25.100  0.1502  0.1382 -0.2489
14939W        W58033  28.872   2.402  23.353 -0.0057  0.1866 -0.2357
14940W        W58034  28.128   0.516  22.050 -0.0501  0.0525 -0.0865
14941W        W58035  26.191   0.922  20.023 -0.0708  0.0935  0.3049
14942W        W58036  25.935   1.927  21.655  0.0052  0.0670  0.0472
14943W        W58037  27.697   1.174  22.109  0.2676 -0.0424  0.3620
14944W        W58038  27.958   1.834  22.263 -0.0809  0.0382  0.2727
14945W        W58039  25.265   3.870  23.859 -0.2071 -0.0343  0.1741
14946W        W58040  27.500  34.434  22.855 -0.3762  0.4143 -0.4655
14947W        W58041  29.438   3.656  20.522  0.1403 -0.4552 -0.1573
14948W        W58042  27.552   3.105  23.019 -0.2342 -0.2349  0.0005
14949W        W58043  24.416   1.157  20.009 -0.3393 -0.1227  0.0650
14950W        W58044  24.382   1.895  20.616  0.2404 -0.2945  0.2035
14951W        W58045  25.506   0.725  20.497 -0.2534 -0.0579 -0.3237
14952W        W58046  28.254   1.397  22.306  0.0248 -0.2047 -0.0483
14953W        W58047  25.832   3.794  24.036  0.0289 -0.1746  0.2182
14954W        W58048  25.129   2.332  20.550  0.3445 -0.3326  0.0065
14955W        W58049  25.507   2.982  22.268  0.1813  0.0134 -0.1961
14956W        W58050  28.706   0.679  20.735 -0.0349 -0.2354  0.1363
14957W        W58051  27.740   3.943  21.133  0.0157  0.0954 -0.0769
14958W        W58052  27.635   1.047  21.521  0.1081 -0.1552  0.0352
14959W        W58053  30.177   1.495  23.360  0.1287  0.0896 -0.3369
14960W        W58054  29.529   2.684  20.950  0.1755 -0.2322  0.1404
14961W        W58055  28.694   1.566  24.102  0.1788  0.2888  0.1202
14962W        W58056  26.999   0.650  21.111 -0.2011  0.0474  0.0277
14963W        W58057  27.904   2.104  20.695  0.3026 -0.0671 -0.1427
14964W        W58058  26.235   0.941  22.545 -0.0765 -0.1575  0.0158
14965W        W58059  27.556   3.413  22.102 -0.0896 -0.3355  0.1377
14966W        W58060  25.732   1.604  20.944  0.2050 -0.1106 -0.0505
14967W        W58061  28.013   0.591  21.558 -0.3007 -0.0933  0.1033
14968W        W58062  26.488  34.546  20.832  0.1621  0.1802 -0.0911
14969W        W58063  27.499   1.730  22.332 -0.0913 -0.0247 -0.2781
14970W        W58064  28.791   2.330  20.768  0.0875  0.1069  0.0147
14971W        W58065  27.880   1.813  21.084 -0.1695 -0.1904 -0.2433
14972W        W58066  28.609   1.601  20.534  0.0088 -0.2160  0.0634
14973W        W58067  27.679   3.019  22.358 -0.1511  0.0191 -0.3106
14974W        W58068  26.942   0.162  20.876  0.1082 -0.3575  0.3559
14975W        W58069  26.607   0.452  19.216 -0.0760 -0.0711 -0.2201
14976W        W58070  25.642   1.425  21.487 -0.0897  0.1091 -0.0254
14977W        W58071  26.727   0.750  23.754 -0.1615  0.0472  0.1973
14978W        W58072  27.363   1.459  21.345 -0.2900  0.0421  0.0732
14979W        W58073  28.038   0.465  22.859 -0.0756  0.2557 -0.0669
14980W        W58074  29.314   2.059  23.462 -0.1261  0.1490 -0.2512
14981W        W58075  29.532   1.627  21.959  0.4796  0.0701 -0.1354
14982W        W58076  26.855   2.836  23.614 -0.0680  0.1768  0.0310
14983W        W58077  24.573   0.606  20.732 -0.2911 -0.1772  0.5361
14984W        W58078  28.502   4.261  23.656  0.2626 -0.1252 -0.0232
14985W        W58079  29.392   1.366  19.786 -0.1997  0.0210 -0.0969
14986W        W58080  27.614   0.878  22.669 -0.0784  0.1881  0.1259
14987W        W58081  28.249   1.790  20.244  0.0621  0.2481  0.0560
14988W        W58082  28.661   1.263  21.968 -0.0303  0.3862  0.2179
14989W        W58083  26.977   0.276  21.411 -0.2316  0.1235  0.2946
14990W        W58084  27.392   0.278  24.097  0.0509 -0.0419 -0.3676
14991W        W58085  26.236   1.852  19.692  0.1778  0.1273 -0.1387
14992W        W58086  27.206   2.960  22.417  0.0558  0.1947  0.2770
14993W        W58087  25.674   2.138  20.557 -0.1254  0.2799 -0.0402
14994W        W58088  28.380   2.006  20.807  0.0469  0.4854  0.5160
14995W        W58089  28.241   0.678  20.825 -0.0880  0.0258  0.0551
14996W        W58090  25.106   1.263  21.641  0.1076 -0.1395  0.0047
14997W        W58091  26.102   3.698  23.268 -0.4874  0.1364 -0.5250
14998W        W58092  26.969  34.366  20.001  0.0808  0.0159 -0.0098
14999W        W58093  26.796   1.840  19.875 -0.0691 -0.2728  0.0180
15000W        W58094  28.570   2.367  21.751  0.1508 -0.1392 -0.3483
15001W        W58095  29.856   1.250  23.041  0.0463 -0.2321  0.0908
15002W        W58096  27.464   0.397  20.000  0.1562  0.3759 -0.0401
15003W        W58097  29.124   1.873  24.022  0.1259 -0.0135 -0.0378
15004W        W58098  26.158   0.901  21.704 -0.0836  0.0037 -0.1957
15005W        W58099  28.426  34.684  21.257 -0.0782 -0.1714 -0.3098
15006W        W58100  26.737   5.497  20.469 -0.2679  0.1073 -0.0014
15007W        W58101  25.065   2.923  21.750 -0.1292 -0.1357  0.0102
15008W        W58102  26.374   2.328  20.832  0.3059 -0.2724  0.1350
15009W        W58103  29.231   1.377  22.688 -0.0823 -0.0579  0.1589
15010W        W58104  28.970   1.537  20.927 -0.0430 -0.0389  0.0763
15011W        W58105  26.677   1.188  21.850 -0.0790  0.0622 -0.0671
15012W        W58106  30.673   3.161  21.865  0.0186  0.1137 -0.0267
15013W        W58107  25.707   3.420  22.326 -0.3378  0.0360 -0.4634
15014W        W58108  25.605   1.841  22.503 -0.2174  0.0522  0.1974
15015W        W58109  28.436   3.732  22.356  0.0769 -0.1400 -0.0897
15016W        W58110  29.185   2.799  20.656  0.3377  0.4018 -0.1663
15017W        W58111  26.931   2.896  21.586 -0.1216  0.0650 -0.1058
15018W        W58112  23.954   0.985  22.690 -0.1731  0.4382  0.0667
15019W        W58113  25.907   2.797  22.415 -0.2299 -0.2742  0.2330
15020W        W58114  26.902   2.499  22.012  0.4169 -0.0605  0.0640
15021W        W58115  25.372  34.202  21.588 -0.0032  0.3979 -0.2756
15022W        W58116  26.808   1.973  20.984 -0.0114 -0.1546  0.2258
15023W        W58117  25.417   2.409  23.242  0.2646  0.0586 -0.2020
15024W        W58118  24.176   2.477  22.757  0.2537  0.2523 -0.0445
15025W        W58119  25.504   2.480  19.970  0.2309  0.0797  0.0484
15026W        W58120  28.585   2.664  20.119  0.3256 -0.2357  0.1366
15027W        W58121  27.832   1.349  20.429 -0.1595  0.1783 -0.1648
15028W        W58122  27.941   2.798  21.449  0.0955  0.0473 -0.0469
15029W        W58123  27.968   0.399  20.557  0.2246  0.0139  0.0756
15030W        W58124  25.205   3.236  21.285  0.3799  0.0105 -0.1173
15031W        W58125  26.072   1.369  19.788  0.2981  0.1671  0.2961
15032W        W58126  28.871   3.052  20.262  0.2750 -0.4570 -0.2249
15033W        W58127  26.203   3.212  21.048 -0.3247 -0.5134 -0.1057
15034W        W58128  28.341   4.155  23.164  0.0025 -0.2161 -0.0058
15035W        W58129  28.713  34.507  20.844  0.0529 -0.0384  0.1717
15036W        W58130  28.376   2.573  20.598 -0.1715 -0.1338  0.1195
15037W        W58131  28.874   0.224  21.095 -0.0173  0.2539  0.5768
15038W        W58132  26.728   2.924  22.179 -0.0786  0.2162 -0.0112
15039W        W58133  26.214   0.420  22.534 -0.0766 -0.0159  0.0021
15040W        W58134  27.069   1.601  20.245  0.0302 -0.2030  0.2627
15041W        W58135  26.251   2.651  22.786  0.1841  0.0367 -0.0002
15042W        W58136  30.161   1.438  24.970 -0.1807 -0.1856 -0.1362
15043W        W58137  26.719   3.956  22.078 -0.0569 -0.1725 -0.1884
15044W        W58138  28.454   3.879  19.642 -0.1029 -0.2696  0.2520
15045W        W58139  26.701  34.446  21.401 -0.0548 -0.0153  0.0664
15046W        W58140  26.691   1.047  20.928  0.1158  0.0837 -0.3204
15047W        W58141  30.266  34.641  24.146 -0.2520  0.0419  0.0546
15048W        W58142  25.250   1.019  20.140  0.2225 -0.3262 -0.3491
15049W        W58143  27.236   1.146  21.815 -0.1887  0.1949  0.1323
15050W        W58144  27.756   3.366  21.241 -0.1454 -0.0345  0.0426
15051W        W58145  26.164   2.420  21.481 -0.2112  0.1960 -0.2507
15052W        W58146  28.038   2.388  22.796  0.3437 -0.0506  0.0032
15053W        W58147  26.511   0.472  20.590 -0.0853  0.2118  0.0193
15054W        W58148  29.063   1.053  21.204  0.1600 -0.0780 -0.1117
15055W        W58149  27.151   2.042  23.399  0.2279  0.0827  0.2051
15056W        W58150  29.123   0.865  22.570  0.4020 -0.0221 -0.1027
15057W        W58151  26.091   1.612  21.240  0.0321  0.0145  0.0062
15058W        W58152  28.086   0.883  20.354 -0.0742  0.1982 -0.0051
15059W        W58153  26.816   1.078  22.417 -0.1334  0.2023  0.0868
15060W        W58154  26.256   1.240  22.938 -0.2518  0.1569  0.1709
15061W        W58155  26.691   1.448  18.875 -0.0237 -0.0154 -0.3022
15062W        W58156  30.110   0.893  24.133 -0.1471  0.1775 -0.2993
15063W        W58157  27.111   1.418  19.720 -0.1916 -0.0729 -0.3032
15064W        W58158  27.275   2.925  21.926 -0.1542 -0.0443 -0.1086
15065W        W58159  26.479   0.786  22.092 -0.1854  0.1038 -0.1390
15066W        W58160  27.591   0.799  20.629 -0.2905  0.0765  0.2822
15067W        W58161  26.553   2.884  20.759  0.2009  0.0412  0.0014
15068W        W58162  27.240   0.873  22.235 -0.0936  0.0859  0.1263
15069W        W58163  28.657   4.411  21.916 -0.2322 -0.2869 -0.1692
15070W        W58164  25.224   0.507  20.164  0.0457  0.0574  0.0699
15071W        W58165  29.499   2.277  20.096  0.1225  0.4176 -0.0509
15072W        W58166  29.037   1.030  21.751 -0.1043  0.0388 -0.0299
15073W        W58167  27.472   2.515  20.405 -0.2775  0.0305  0.0906
15074W        W58168  28.274   0.982  21.306 -0.2100 -0.2049  0.1726
15075W        W58169  27.095   2.137  21.439 -0.0533  0.2028 -0.3167
15076W        W58170  26.363   0.238  23.120 -0.1628  0.3059  0.0422
15077W        W58171  27.894   4.292  21.450 -0.0942  0.0797 -0.3041
15078W        W58172  29.062   3.917  21.454  0.6373  0.1830 -0.1204
15079W        W58173  27.716  34.226  20.596  0.0051 -0.0411  0.0122
15080W        W58174  25.679   0.215  21.258 -0.0960  0.1184 -0.0258
15081W        W58175  26.439   2.113  21.849 -0.1411  0.2064 -0.0921
15082W        W58176  30.012   0.748  23.021  0.3511 -0.1762 -0.0706
15083W        W58177  28.108   0.945  21.865  0.2939  0.0689 -0.4815
15084W        W58178  26.739   3.566  20.194 -0.4556 -0.0060  0.2883
15085W        W58179  29.601   0.669  23.259  0.0422  0.1413  0.1363
15086W        W58180  26.737   1.228  22.877  0.1478  0.1984 -0.0256
15087W        W58181  26.793   3.915  24.186  0.0607  0.2329  0.2280
15088W        W58182  25.223   1.398  21.123 -0.3257 -0.0699  0.2400
15089W        W58183  26.102   2.185  22.569  0.0772  0.0114 -0.1438
15090W        W58184  26.859   1.535  22.181 -0.0351  0.0343  0.0660
15091W        W58185  27.318   2.457  21.725  0.1217  0.1997  0.2936
15092W        W58186  27.762   2.947  20.261  0.2125  0.1063  0.3208
15093W        W58187  27.988   1.406  21.321  0.1459  0.0191 -0.1641
15094W        W58188  29.022   2.617  21.890 -0.3847 -0.1259  0.1168
15095W        W58189  28.806   1.757  22.696 -0.1118 -0.1084 -0.3873
15096W        W58190  29.298   2.466  22.709 -0.0131  0.1633  0.0436
15097W        W58191  27.702   0.715  21.136  0.0356  0.2198 -0.0244
15098W        W58192  26.137   1.210  22.132  0.0844 -0.3102  0.0853
15099W        W58193  24.487   1.353  20.537  0.3005  0.1855  0.2004
15100W        W58194  24.763   2.852  18.946 -0.2204  0.2320 -0.2306
15101W        W58195  26.681   2.443  21.557 -0.2054 -0.1104  0.0162
15102W        W58196  28.280   0.174  22.557  0.1516  0.0453 -0.0199
15103W        W58197  25.684   0.406  22.546  0.3010 -0.0138 -0.1487
15104W        W58198  25.470   1.884  21.372 -0.1819 -0.0597  0.3547
15105W        W58199  25.662  34.196  21.131 -0.0585  0.1479 -0.1315
15106W        W58200  28.365   3.036  20.381 -0.2620  0.2186 -0.2122
15107W        W58201  26.499   0.377  21.728  0.0270 -0.0004 -0.0117
15108W        W58202  24.631   0.355  21.199  0.0875  0.0841  0.2927
15109W        W58203  28.461   3.064  21.260 -0.1834  0.1008 -0.1240
15110W        W58204  27.548   2.424  21.305 -0.1046  0.0818  0.1291
15111W        W58205  27.973   0.324  21.088 -0.2000  0.0460  0.0328
15112W        W58206  27.717   4.176  22.944 -0.0409 -0.1095  0.0452
15113W        W58207  27.191   2.356  19.025  0.0054 -0.0876  0.2055
15114W        W58208  26.780   1.981  23.066  0.0458  0.1167 -0.1454
15115W        W58209  27.134   0.835  22.751  0.1391  0.0508  0.0038
15116W        W58210  24.696   1.935  19.183 -0.0451 -0.0180 -0.0883
15117W        W58211  28.718   1.687  20.033 -0.3324 -0.1320 -0.0080
15118W        W58212  27.288   2.315  20.829  0.1250 -0.0197 -0.2101
15119W        W58213  28.576   3.489  19.981 -0.2107  0.1731  0.3103
15120W        W58214  26.439   2.613  23.370  0.2930  0.1531 -0.1376
15121W        W58215  27.486   2.662  22.759  0.0109 -0.1772 -0.0201
15122W        W58216  26.909   0.487  22.352  0.3314  0.1297  0.0277
15123W        W58217  28.324   1.414  19.224  0.1802 -0.0003  0.1638
15124W        W58218  27.741   2.100  21.912  0.0119 -0.2561 -0.1462
15125W        W58219  29.880   2.123  20.614  0.2230  0.0980  0.2471
15126W        W58220  29.176   1.030  23.118 -0.0655  0.0204 -0.0476
15127W        W58221  28.221   0.813  19.359 -0.0313  0.1051  0.0636
15128W        W58222  27.796   0.094  22.578  0.3081  0.1256 -0.0043
15129W        W58223  26.527   0.883  23.192 -0.2587 -0.0486 -0.2452
15130W        W58224  29.618   2.980  22.326  0.2032 -0.0346 -0.0813
15131W        W58225  26.919   0.682  21.779 -0.4332  0.1761 -0.1705
15132W        W58226  28.590   1.210  20.902  0.0359 -0.2075 -0.4623
15133W        W58227  29.610   3.214  19.569  0.3525 -0.1914 -0.0032
15134W        W58228  25.523   3.814  22.020  0.0793 -0.3107  0.1543
15135W        W58229  27.035   1.420  20.893  0.2829 -0.1365  0.1859
15136W        W58230  28.969   1.780  23.180 -0.1484 -0.0540 -0.1539
15137W        W58231  27.007   1.744  22.689 -0.0176 -0.1580 -0.0263
15138W        W58232  26.934   3.625  22.859 -0.3177 -0.0902 -0.0898
15139W        W58233  27.336   1.018  20.994 -0.4879 -0.0764 -0.1955
15140W        W58234  29.575   2.799  19.924 -0.1748  0.0171  0.0025
15141W        W58235  28.325   1.781  21.294  0.2444  0.2845  0.0724
15142W        W58236  28.630   3.704  23.522  0.0263 -0.2421  0.0276
15143W        W58237  26.741   3.218  22.635  0.0869 -0.0822  0.2831
15144W        W58238  28.496   2.613  22.204 -0.0607  0.0440  0.5468
15145W        W58239  25.030  33.400  21.026 -0.0088  0.4778  0.1829
15146W        W58240  25.963   0.907  20.597 -0.2438 -0.0395 -0.0807
15147W        W58241  26.441   2.036  21.320  0.4615  0.1396 -0.2112
15148W        W58242  28.215   1.911  21.838  0.0416 -0.0135 -0.0994
15149W        W58243  27.294   1.293  22.467  0.1925  0.1791  0.0230
15150W        W58244  27.501  33.660  19.709 -0.3189 -0.2793  0.2288
15151W        W58245  25.946   3.895  22.256  0.1548 -0.2635  0.2008
15152W        W58246  27.656   2.285  23.090 -0.0581 -0.1591  0.0705
15153W        W58247  25.352   1.507  25.797 -0.0105  0.1301 -0.0654
15154W        W58248  25.218   1.063  24.238 -0.1578  0.1443  0.1613
15155W        W58249  29.312   1.090  24.441 -0.1022  0.1555 -0.1104
15156W        W58250  28.370   3.035  23.088 -0.1826 -0.0550  0.1905
15157W        W58251  24.871   1.511  24.328 -0.1240  0.0854 -0.1958
15158W        W58252  27.010   3.487  24.215 -0.1291 -0.1436  0.1580
15159W        W58253  26.673   0.280  26.190  0.0054 -0.0757 -0.1049
15160W        W58254  28.482   2.685  26.151  0.3378  0.3139 -0.1243
15161W        W58255  29.302   2.683  25.346 -0.0549 -0.3435 -0.0445
15162W        W58256  28.308   1.880  24.081  0.0104 -0.0513 -0.3653
15163W        W58257  28.148   2.126  25.144  0.1416  0.0814  0.3577
15164W        W58258  26.757   3.238  25.353 -0.2585  0.2428  0.3576
15165W        W58259  26.942  34.362  24.763  0.0926  0.0277 -0.2705
15166W        W58260  24.843  34.269  24.829 -0.3083  0.2247 -0.0543
15167W        W58261  29.318   1.313  25.976  0.0808  0.1980 -0.2955
15168W        W58262  25.805   2.246  23.523 -0.1384  0.1013  0.1772
15169W        W58263  27.998   0.702  26.732  0.0681 -0.0233  0.1123
15170W        W58264  28.207   1.357  23.970 -0.1052 -0.0016  0.1446
15171W        W58265  27.465   3.094  25.004 -0.0836 -0.0986 -0.0748
15172W        W58266  26.500   1.559  26.691 -0.0532  0.2517  0.0370
15173W        W58267  26.747  33.330  26.003  0.1206 -0.1140 -0.0553
15174W        W58268  26.901   2.584  24.293  0.3308 -0.2274 -0.0551
15175W        W58269  24.852   0.919  23.159  0.0828 -0.4224  0.0491
15176W        W58270  25.271   0.332  26.108  0.0801 -0.0309 -0.0500
15177W        W58271  26.564   1.589  25.692 -0.0518  0.2113 -0.1207
15178W        W58272  28.962   0.740  26.865 -0.1547  0.1671 -0.1524
15179W        W58273  27.418   3.093  25.872  0.0377  0.2866  0.1716
15180W        W58274  27.917   3.916  25.468  0.2035 -0.1366 -0.0283
15181W        W58275  28.673   4.418  25.506 -0.0936  0.1268 -0.1425
15182W        W58276  28.426   0.233  27.464  0.1194 -0.3499  0.2115
15183W        W58277  26.901   2.496  26.027 -0.4119 -0.1101 -0.2531
15184W        W58278  25.517   4.088  24.347 -0.0009 -0.0173 -0.0657
15185W        W58279  26.012   2.908  24.604 -0.0106  0.0746 -0.1380
15186W        W58280  28.701   2.702  23.903  0.2000  0.3783 -0.2676
15187W        W58281  28.137   2.578  25.722 -0.2813 -0.0591  0.1867
15188W        W58282  26.219   3.564  26.913 -0.0273 -0.0640 -0.1898
15189W        W58283  25.317   2.118  23.696 -0.1196 -0.0924 -0.2046
15190W        W58284  26.616   3.606  26.541 -0.0980 -0.0119  0.1251
15191W        W58285  27.037   2.976  26.202 -0.2033  0.0844 -0.0877
15192W        W58286  27.303   1.352  25.535 -0.1746  0.3742 -0.0119
15193W        W58287  27.571   0.925  24.896  0.1370  0.3112  0.0242
15194W        W58288  26.454   3.003  23.056  0.1780 -0.1228  0.0413
15195W        W58289  27.911   2.111  25.779  0.1896 -0.2439  0.0322
15196W        W58290  27.158   2.389  26.461 -0.1662 -0.1059 -0.0693
15197W        W58291  23.970   2.646  25.305 -0.2002 -0.0177 -0.1044
15198W        W58292  28.848   1.262  28.905 -0.0457  0.3959  0.0465
15199W        W58293  25.959   4.233  24.611 -0.0614 -0.1904 -0.1984
15200W        W58294  28.824   0.896  24.263  0.0014 -0.1333  0.0306
15201W        W58295  26.832   0.531  23.333 -0.4395 -0.2228 -0.1320
15202W        W58296  29.135   0.630  24.521  0.0300  0.0633 -0.1914
15203W        W58297  27.984  34.238  25.311  0.1347  0.3839  0.1002
15204W        W58298  24.818   3.087  25.678  0.0406 -0.0023  0.2320
15205W        W58299  26.656   0.701  26.725 -0.1411  0.0371 -0.1540
15206W        W58300  29.204   3.002  26.726  0.3092  0.5817  0.0889
15207W        W58301  27.430   0.449  24.997 -0.2968  0.1416 -0.0250
15208W        W58302  28.094   1.793  26.963 -0.3055 -0.2778 -0.1745
15209W        W58303  26.506   2.848  26.071 -0.0308  0.2932 -0.2080
15210W        W58304  26.213   1.684  24.810  0.0831  0.2030 -0.1695
15211W        W58305  28.065   3.744  23.579  0.0109  0.4342 -0.4547
15212W        W58306  29.135   2.821  25.841  0.3280  0.0753 -0.1436
15213W        W58307  28.590   4.222  22.742 -0.1066  0.0276 -0.4312
15214W        W58308  25.748   1.100  25.842  0.1123  0.2380  0.0289
15215W        W58309  25.219   2.752  27.343 -0.2178 -0.1237 -0.1164
15216W        W58310  26.720   3.133  26.922  0.0798  0.0847  0.0559
15217W        W58311  27.407   1.959  23.884  0.0564 -0.0198 -0.0107
15218W        W58312  30.394   2.251  27.860 -0.0130 -0.1033 -0.3040
15219W        W58313  27.212   3.502  26.063  0.0929 -0.2205  0.0852
15220W        W58314  28.695  33.851  25.925  0.1658  0.1936  0.1061
15221W        W58315  27.389   2.095  25.008  0.0555  0.0202  0.2627
15222W        W58316  28.606   3.121  25.953 -0.0783  0.1274 -0.1538
15223W        W58317  28.121   2.593  24.064  0.0063 -0.0244 -0.0425
15224W        W58318  28.425  33.079  25.946  0.0009 -0.0015  0.0953
15225W        W58319  29.017   0.168  26.862 -0.1355  0.1479 -0.2770
15226W        W58320  26.548   2.564  23.882  0.0845  0.0407  0.1525
15227W        W58321  26.366   1.702  23.961 -0.1452 -0.0408 -0.0734
15228W        W58322  28.849   3.954  26.418 -0.0167  0.0757  0.0173
15229W        W58323  27.833   1.087  23.772 -0.0223  0.0816  0.1657
15230W        W58324  26.209   2.875  27.006 -0.0465  0.1717  0.0084
15231W        W58325  27.062   0.518  27.132 -0.0525 -0.1248  0.2246
15232W        W58326  28.558   2.447  26.566 -0.0801 -0.0532  0.0868
15233W        W58327  24.601   3.929  22.484  0.0240  0.2662 -0.2678
15234W        W58328  25.054   1.783  26.518 -0.0107  0.1832 -0.0298
15235W        W58329  26.476   1.436  22.449 -0.1776  0.0078 -0.1718
15236W        W58330  25.683   1.035  26.646  0.1254  0.0597  0.2389
15237W        W58331  27.867   2.585  25.211  0.1409 -0.1682 -0.1813
15238W        W58332  30.067   1.760  24.590  0.0849 -0.1628 -0.2348
15239W        W58333  25.960   1.207  26.285 -0.1361  0.4714  0.0093
15240W        W58334  28.042   0.084  25.711  0.0589 -0.3365 -0.3478
15241W        W58335  26.193   1.767  25.340  0.1520 -0.0254 -0.0595
15242W        W58336  28.862   3.941  25.522  0.0273 -0.3075  0.2474
15243W        W58337  29.691   2.391  23.531  0.1514  0.2851  0.2696
15244W        W58338  27.564   3.698  23.686  0.2387 -0.3103  0.2055
15245W        W58339  26.262   0.712  26.130 -0.1731 -0.1678  0.4311
15246W        W58340  27.008   1.100  26.248  0.0375 -0.0565  0.1336
15247W        W58341  26.871   2.013  26.474 -0.0729 -0.1686  0.1233
15248W        W58342  26.102   1.456  25.772 -0.0537  0.1736 -0.2969
15249W        W58343  28.912   0.345  27.340 -0.1973 -0.1284  0.1056
15250W        W58344  26.172  33.962  24.660  0.0731  0.1135  0.1778
15251W        W58345  27.752   1.587  23.879 -0.1303  0.1496 -0.0302
15252W        W58346  27.180   0.287  26.032  0.0117  0.3243 -0.0250
15253W        W58347  26.229   2.197  23.114  0.0515 -0.1695 -0.2175
15254W        W58348  27.661   0.229  27.323  0.0187 -0.0659 -0.1750
15255W        W58349  28.143   3.468  25.169  0.1372 -0.3516  0.3057
15256W        W58350  29.014   3.214  26.230  0.1997  0.1113  0.0148
15257W        W58351  29.335   3.117  25.103  0.1830  0.0780  0.2324
15258W        W58352  27.319   0.988  26.596  0.1060 -0.1120  0.0551
15259W        W58353  25.617   1.211  23.936  0.1832  0.1194 -0.1613
15260W        W58354  25.343   3.927  24.779  0.1664  0.0316  0.2791
15261W        W58355  25.672   3.513  25.213 -0.1828 -0.2825 -0.1618
15262W        W58356  26.614   1.533  25.053 -0.2468 -0.2515  0.1504
15263W        W58357  29.588   3.511  25.141 -0.1199  0.1002  0.0049
15264W        W58358  27.100   1.293  25.068  0.1388 -0.0697 -0.0622
15265W        W58359  25.889   2.578  27.271  0.3740  0.1924  0.0916
15266W        W58360  28.208  33.613  28.560 -0.0234  0.2532  0.0420
15267W        W58361  29.291   0.709  27.424  0.0185 -0.0160  0.1449
15268W        W58362  28.148   1.364  25.211 -0.1774  0.2375 -0.0971
15269W        W58363  25.326   0.178  23.027  0.1002 -0.2320  0.3155
15270W        W58364  28.156   2.977  25.100  0.1185 -0.0368 -0.3371
15271W        W58365  25.259   3.425  23.520  0.0754  0.0600  0.0525
15272W        W58366  26.149   2.568  24.232  0.1158  0.3162 -0.0435
15273W        W58367  25.461   3.020  25.151 -0.2054 -0.1074 -0.4029
15274W        W58368  29.758   0.057  25.494  0.1047  0.1893  0.1862
15275W        W58369  25.866   2.142  27.453  0.0203  0.1844 -0.1245
15276W        W58370  27.369   2.534  27.683 -0.1446  0.0652  0.0179
15277W        W58371  25.599   2.507  23.888  0.0564 -0.0198 -0.0645
15278W        W58372  26.224   2.247  27.092  0.0581  0.0443  0.0440
15279W        W58373  28.791   0.128  25.143 -0.1880  0.2263 -0.2074
15280W        W58374  28.011   0.636  23.931  0.2542 -0.0528 -0.0567
15281W        W58375  28.121   2.612  26.624 -0.0674 -0.1485  0.0919
15282W        W58376  27.896   2.063  24.283 -0.0284  0.3025 -0.0280
15283W        W58377  27.919   2.714  23.184 -0.2232 -0.1550  0.0205
15284W        W58378  28.480   2.311  23.656  0.0940  0.2224 -0.0459
15285W        W58379  26.944   2.808  27.438 -0.0894  0.1745 -0.1581
15286W        W58380  25.758   2.130  22.947 -0.1721  0.2002  0.1753
15287W        W58381  26.623   2.129  24.029  0.1743 -0.1130  0.0166
15288W        W58382  27.286   0.865  24.350  0.1439  0.2024  0.1743
15289W        W58383  29.198   3.604  22.962 -0.1988 -0.1336 -0.0276
15290W        W58384  26.210   1.960  25.826  0.2048 -0.1811  0.0043
15291W        W58385  28.368   3.300  26.883  0.1592  0.2856 -0.0193
15292W        W58386  30.147   3.435  26.404 -0.2228  0.3215 -0.0309
15293W        W58387  28.019  33.251  25.649 -0.1627  0.1806  0.1108
15294W        W58388  24.972   1.810  23.426 -0.2213  0.1835  0.2064
15295W        W58389  28.555   0.854  25.942 -0.0765  0.2453 -0.0125
15296W        W58390  26.272   3.377  24.212 -0.1868 -0.0816 -0.1066
15297W        W58391  29.253   0.676  25.452  0.2556 -0.1167  0.0482
15298W        W58392  28.222   0.523  25.685 -0.1725 -0.0479  0.2351
15299W        W58393  26.970  34.351  26.777  0.3615 -0.1095  0.0071
15300W        W58394  29.344   2.293  26.374  0.3160 -0.1319 -0.0675
15301W        W58395  28.134   0.302  24.863 -0.0004  0.2073 -0.1597
15302W        W58396  28.355   1.855  24.733 -0.3631 -0.0566 -0.2064
15303W        W58397  25.469   1.353  22.377  0.0741  0.0071  0.0331
15304W        W58398  28.092  34.670  27.706 -0.1243 -0.3509 -0.0121
15305W        W58399  27.618   2.608  25.646 -0.1275 -0.0031  0.0144
15306W        W58400  24.774   2.984  26.968  0.1060  0.3487 -0.0004
15307W        W58401  28.509   3.180  27.458  0.0749  0.3132 -0.0550
15308W        W58402  25.959   3.033  25.092 -0.0560 -0.2505 -0.0441
15309W        W58403  27.242   0.712  28.077  0.1538 -0.1422  0.3881
15310W        W58404  28.029   0.781  25.256 -0.2598 -0.0203  0.1834
15311W        W58405  26.496   3.007  24.454  0.2090  0.2302  0.3517
15312W        W58406  26.517   1.624  23.249  0.2307 -0.1776 -0.0437
15313W        W58407  27.554   0.244  26.427  0.3088  0.0592 -0.1533
15314W        W58408  27.834   3.985  26.536  0.0441 -0.3316  0.0282
15315W        W58409  25.401   3.061  23.129 -0.2295 -0.2087 -0.2676
15316W        W58410  28.104   1.556  27.431 -0.0584  0.3786  0.1517
15317W        W58411  25.839   3.259  23.477  0.0376  0.2260 -0.0283
15318W        W58412  29.820  34.645  24.985 -0.1815  0.4162 -0.0015
15319W        W58413  25.205   3.011  24.263 -0.1455  0.0270  0.0192
15320W        W58414  25.818   1.957  24.651 -0.1682  0.1513  0.0964
15321W        W58415  25.410   1.585  24.423 -0.0584  0.2116  0.2679
15322W        W58416  29.284  33.071  25.703 -0.2321 -0.2978  0.0150
15323W        W58417  27.957   2.133  23.787 -0.0319 -0.2376 -0.2487
15324W        W58418  27.877   0.124  26.799 -0.3731  0.1480 -0.0223
15325W        W58419  27.141   1.726  24.836  0.3096 -0.1011 -0.1699
15326W        W58420  24.781   2.754  25.325 -0.4348  0.0550  0.2383
15327W        W58421  28.993   1.698  27.549  0.0634 -0.1274  0.2260
15328W        W58422  29.211   0.829  24.032  0.3631  0.0501 -0.0770
15329W        W58423  27.826   3.436  26.134 -0.1299 -0.0376 -0.1122
15330W        W58424  27.176   2.870  26.752  0.0669 -0.1285  0.2860
15331W        W58425  25.213   0.002  22.499  0.2295  0.0140  0.0502
15332W        W58426  29.772   1.899  26.311  0.0689  0.0581 -0.0813
15333W        W58427  26.719   2.019  25.124  0.0662  0.0868 -0.2679
15334W        W58428  25.073   3.099  23.829  0.0884  0.1928  0.0659
15335W        W58429  27.471   3.602  25.671  0.2264  0.3338  0.1159
15336W        W58430  25.840   2.243  25.610  0.0362  0.0773  0.1668
15337W        W58431  25.418   2.407  25.930  0.2010  0.2289 -0.2474
15338W        W58432  27.352   1.491  26.928 -0.0593  0.0683  0.2044
15339W        W58433  27.802   2.720  27.413  0.0081 -0.0746 -0.0393
15340W        W58434  27.979   0.701  26.186  0.0429  0.2711  0.1633
15341W        W58435  25.384   2.058  25.461  0.0468 -0.1245 -0.0380
15342W        W58436  27.736   1.677  26.634  0.0871  0.0099 -0.1004
15343W        W58437  27.663   2.186  27.308 -0.3133  0.1813  0.1104
15344W        W58438  28.117  34.651  27.196 -0.4350 -0.1764  0.0391
15345W        W58439  24.576   3.507  27.606  0.1376  0.1292  0.0295
15346W        W58440  27.792  32.360  27.001 -0.0572  0.0831  0.0457
15347W        W58441  29.322   3.668  24.122  0.0309  0.1670 -0.1671
15348W        W58442  28.602   1.077  28.248  0.1701 -0.0527 -0.0842
15349W        W58443  26.439   1.224  23.544  0.1295 -0.0109 -0.2075
15350W        W58444  26.769   1.171  26.833 -0.0015  0.1855 -0.2439
15351W        W58445  26.334   2.384  24.846  0.2426 -0.1430 -0.1363
15352W        W58446  28.396   0.713  26.424 -0.1476 -0.0547 -0.2468
15353W        W58447  25.743   2.769  25.621 -0.0912 -0.3113  0.1935
15354W        W58448  25.383   1.872  23.145 -0.1734 -0.1781 -0.1763
15355W        W58449  26.403   2.322  26.171 -0.0178 -0.0129 -0.1456
15356W        W58450  28.208   1.017  25.606 -0.1648  0.0616  0.0841
15357W        W58451  28.124   2.184  23.317  0.1672  0.0337  0.0437
15358W        W58452  28.883   2.734  24.966  0.0107  0.0682  0.1222
15359W        W58453  29.280   1.120  26.777  0.0922  0.0267 -0.2322
15360W        W58454  28.942   1.051  23.613  0.0317  0.3604 -0.1293
15361W        W58455  27.668   1.724  27.251 -0.1744  0.0957  0.0060
15362W        W58456  27.747   0.886  27.218 -0.2327 -0.0382  0.1713
15363W        W58457  28.316   3.360  24.681  0.2022 -0.2078  0.0768
15364W        W58458  25.996   1.399  26.760 -0.0104  0.3069 -0.0208
15365W        W58459  27.062   4.085  27.205 -0.2727  0.0351 -0.1019
15366W        W58460  27.219   1.915  27.260 -0.2824  0.2093 -0.0313
15367W        W58461  27.285   0.796  25.297  0.2266 -0.1460  0.2784
15368W        W58462  25.344   0.433  23.439  0.2975 -0.2333 -0.2398
15369W        W58463  27.946   2.404  26.201 -0.0390  0.2411  0.1201
15370W        W58464  29.375   2.235  25.585  0.1727  0.2397  0.1840
15371W        W58465  27.273   2.839  23.937 -0.1306 -0.0682 -0.0338
15372W        W58466  28.909   0.735  26.343 -0.0444  0.0521  0.0323
15373W        W58467  26.710   2.580  26.566  0.1951 -0.1516  0.2097
15374W        W58468  28.596   1.933  25.249 -0.0330  0.2309 -0.1982
15375W        W58469  26.995   2.411  23.841  0.0515 -0.4750  0.0709
15376W        W58470  26.100   0.804  27.369  0.4573 -0.0242 -0.0776
15377W        W58471  26.794  33.600  27.134 -0.1259 -0.3060 -0.1240
15378W        W58472  28.077   1.313  24.656  0.1026  0.3336 -0.5154
15379W        W58473  28.069   0.204  26.356  0.1874  0.0454  0.0946
15380W        W58474  28.196   0.952  27.299  0.0278  0.3399  0.0940
15381W        W58475  29.687   1.477  26.789 -0.0748  0.0775 -0.2328
15382W        W58476  28.240   1.247  26.095  0.0906  0.0283 -0.1998
15383W        W58477  26.842   1.601  27.061  0.1707 -0.2567  0.3057
15384W        W58478  28.883   2.525  26.915 -0.0562  0.2684  0.0773
15385W        W58479  30.168   0.450  23.928 -0.4205  0.0583  0.0338
15386W        W58480  29.094   0.095  28.141  0.1347 -0.0985  0.0191
15387W        W58481  28.818   1.318  25.929  0.0308  0.0617 -0.0495
15388W        W58482  27.332  34.101  25.587 -0.2216  0.1909 -0.0431
15389W        W58483  25.005   0.195  24.788 -0.0681  0.0140 -0.1380
15390W        W58484  28.033   2.377  28.347  0.3314  0.0785  0.2702
15391W        W58485  26.621   0.693  22.717  0.1257  0.0805 -0.1145
15392W        W58486  27.804   0.844  28.043  0.0511  0.1583  0.2670
15393W        W58487  26.811   2.480  22.464  0.1286 -0.2611 -0.2302
15394W        W58488  28.803   3.272  24.825  0.1601  0.2256 -0.2104
15395W        W58489  27.721   1.172  25.294  0.3669  0.4274 -0.1452
15396W        W58490  25.502   1.470  26.326  0.0882 -0.0246  0.0787
15397W        W58491  26.939   3.579  27.876  0.0103 -0.0605  0.0590
15398W        W58492  25.808   1.096  23.000  0.2596  0.1933 -0.3528
15399W        W58493  26.970   1.712  25.455  0.0833 -0.0882  0.0310
15400W        W58494  28.438   2.201  25.626 -0.1281  0.3233  0.4903
15401W        W58495  29.217   2.610  28.352  0.1974 -0.1197  0.2549
15402W        W58496  28.339   0.204  23.209 -0.2739  0.0791 -0.0515
15403W        W58497  29.868   0.348  27.107  0.0125 -0.0775  0.3431
15404W        W58498  25.511   3.011  23.732  0.1000  0.0274  0.2603
15405W        W58499  28.752  33.518  24.991 -0.1947  0.2406  0.2914
15406W        W58500  26.042   3.077  26.022 -0.0451  0.1781  0.0801
15407W        W58501  26.467   2.609  27.370 -0.2150  0.3679 -0.1134
15408W        W58502  26.890   2.932  25.743  0.0483 -0.1361  0.2889
15409W        W58503  27.165  34.418  27.371 -0.0183 -0.1069  0.0462
15410W        W58504  28.628   1.215  26.378 -0.2168 -0.0383  0.1755
15411W        W58505  27.009   1.489  25.962 -0.2927  0.0769  0.1097
15412W        W58506  29.733   0.933  26.490  0.5410  0.2005 -0.2134
15413W        W58507  28.294   3.076  25.594  0.1377 -0.0353 -0.2002
15414W        W58508  27.196   2.108  26.058  0.0439  0.0919  0.0815
15415W        W58509  27.771   1.313  27.025 -0.2047 -0.1828 -0.0338
15416W        W58510  28.546   1.402  24.535 -0.1192 -0.0712  0.1186
15417W        W58511  25.483   3.458  25.981  0.2880 -0.1178 -0.1829
15418W        W58512  25.621   0.945  27.632  0.1603  0.1118  0.2732
15419W        W58513  27.457   2.543  26.118 -0.0358  0.0721 -0.0655
15420W        W58514  27.839   1.778  24.758 -0.0593 -0.3375 -0.2086
15421W        W58515  26.575   1.072  24.893  0.2436 -0.1463 -0.1786
15422W        W58516  26.038   3.123  22.037 -0.0048 -0.0422 -0.1469
15423W        W58517  26.186   2.351  28.577 -0.2354  0.1611  0.0704
15424W        W58518  26.326   1.231  27.105  0.0082 -0.0579  0.3149
15425W        W58519  25.854   4.333  23.983 -0.1633  0.2559  0.0039
15426W        W58520  27.712   1.499  24.345  0.1174  0.0322 -0.3229
15427W        W58521  27.332   1.316  24.636 -0.1680  0.0309 -0.0255
15428W        W58522  29.233   4.391  24.681 -0.5758 -0.2612 -0.2419
15429W        W58523  26.733   1.218  25.434 -0.0244 -0.1771 -0.0942
15430W        W58524  25.459   4.236  26.015  0.1637  0.1368 -0.1294
15431W        W58525  25.075   2.114  21.899  0.2162  0.0190  0.0978
15432W        W58526  28.121   2.958  24.398 -0.1621  0.3330  0.1476
15433W        W58527  25.870   3.210  23.995 -0.1043  0.3064  0.0807
15434W        W58528  29.554   2.669  26.660 -0.1925 -0.1188 -0.2000
15435W        W58529  29.671   1.290  24.725  0.0755  0.0357  0.3711
15436W        W58530  28.382   2.660  24.730 -0.3022 -0.0479  0.1145
15437W        W58531  29.355   0.382  25.901 -0.1166  0.3130  0.0275
15438W        W58532  28.710   4.091  25.963 -0.1875  0.1786  0.0317
15439W        W58533  27.247   1.967  26.797  0.0254  0.2447  0.0690
15440W        W58534  27.157   0.301  24.548 -0.2083  0.2058 -0.1635
15441W        W58535  25.830   0.589  26.952  0.3486 -0.0231 -0.0893
15442W        W58536  28.802  34.075  27.735  0.1763  0.0128  0.0969
15443W        W58537  25.364   3.269  26.951  0.1301  0.0983 -0.0366
15444W        W58538  30.129   2.144  24.297 -0.1675  0.1925 -0.2472
15445W        W58539  26.273   1.265  24.241 -0.0282 -0.0971 -0.5561
15446W        W58540  28.393   1.558  25.702 -0.1168  0.1652  0.1414
15447W        W58541  28.427  34.401  27.469  0.0556 -0.0189 -0.0532
15448W        W58542  27.620   3.139  23.530 -0.0476 -0.4588 -0.1951
15449W        W58543  28.756  34.200  24.410  0.0081  0.2043 -0.0796
15450W        W58544  26.578   3.622  25.027 -0.1215 -0.0170 -0.3793
15451W        W58545  26.599   2.495  25.222  0.0503  0.0693 -0.1098
15452W        W58546  27.237   3.213  25.411  0.0473 -0.1464  0.0620
15453W        W58547  25.155  34.690  23.435 -0.1978 -0.2254  0.2802
15454W        W58548  29.189   1.738  24.978 -0.4846 -0.1813 -0.1421
15455W        W58549  25.992   1.885  26.958  0.1363 -0.3150 -0.1729
15456W        W58550  29.489  34.247  27.210  0.1571 -0.1435 -0.2771
15457W        W58551  25.388   0.662  24.476 -0.0006  0.1302  0.0311
15458W        W58552  27.844   1.318  25.740  0.0980  0.0372  0.2770
15459W        W58553  27.924   3.465  26.711 -0.1691  0.0878 -0.1200
15460W        W58554  26.443  34.365  26.776  0.0484  0.1090  0.1973
15461W        W58555  26.013   2.124  23.982 -0.2879  0.1025 -0.2667
15462W        W58556  28.998   3.096  25.454  0.1758  0.2483  0.0075
15463W        W58557  29.133   1.507  24.528  0.2423 -0.0299  0.1032
15464W        W58558  27.954   4.376  26.167 -0.2129 -0.0413 -0.0295
15465W        W58559  26.724   0.274  25.562 -0.0493  0.1730 -0.2547
15466W        W58560  27.767   0.407  24.380  0.0420 -0.0470  0.2482
15467W        W58561  25.615   2.164  24.253  0.0143  0.2476 -0.0369
15468W        W58562  27.518   1.216  26.104  0.0031 -0.3109 -0.1119
15469W        W58563  28.050   3.698  27.182 -0.1251 -0.2338  0.1985
15470W        W58564  27.094   0.989  23.207 -0.1010  0.0725  0.3131
15471W        W58565  27.496   3.524  24.113 -0.0271  0.0792  0.3813
15472W        W58566  29.110   2.181  27.428  0.1616  0.3997  0.1416
15473W        W58567  26.312   3.052  22.526  0.0913  0.1890  0.2306
15474W        W58568  29.074   1.312  24.057 -0.3881 -0.1047 -0.0106
15475W        W58569  29.765   4.169  25.566  0.0624  0.1351  0.3351
15476W        W58570  24.212   1.478  25.028 -0.0831  0.0319 -0.2706
15477W        W58571  27.463   3.721  26.451 -0.1218 -0.2115 -0.3135
15478W        W58572  28.680   2.704  25.659  0.0446  0.2089  0.2004
15479W        W58573  27.822  34.092  25.754  0.1112  0.3555  0.0519
15480W        W58574  27.479   2.043  25.526  0.2891 -0.1722  0.1458
15481W        W58575  25.693   3.649  24.544  0.1127 -0.2364 -0.3218
15482W        W58576  28.033  34.403  26.564  0.1493  0.2298 -0.0875
15483W        W58577  28.795  34.582  26.431 -0.0143  0.2317  0.0203
15484W        W58578  25.996   2.302  22.001  0.2561  0.0116  0.1439
15485W        W58579  28.163  33.431  27.974 -0.1921  0.0913 -0.1356
15486W        W58580  26.441   1.052  25.825  0.3032  0.1772 -0.1234
15487W        W58581  26.866   2.258  27.489 -0.4946  0.0402  0.1632
15488W        W58582  26.001   1.810  23.353 -0.2738  0.0416  0.1082
15489W        W58583  26.957   3.536  25.665 -0.0556  0.1602 -0.2151
15490W        W58584  25.349   1.973  24.968 -0.0119  0.0298 -0.1561
15491W        W58585  26.174   3.921  24.969 -0.3521  0.0299 -0.0145
15492W        W58586  29.814   3.067  25.464  0.0730 -0.1136 -0.1073
15493W        W58587  27.453   1.900  24.482  0.0734 -0.2195 -0.2440
15494W        W58588  29.190   2.856  23.680  0.2361 -0.1542 -0.0386
15495W        W58589  27.755   0.413  25.394  0.3563  0.0771  0.4021
15496W        W58590  29.407   0.374  24.142 -0.1706  0.1221 -0.1244
15497W        W58591  28.869   1.054  24.727  0.2540  0.1356 -0.0384
15498W        W58592  27.513   1.707  25.870 -0.3140 -0.0285  0.1651
15499W        W58593  24.210   2.413  23.549  0.0737  0.0316 -0.1113
15500W        W58594  26.362   2.520  22.267 -0.0794  0.1346  0.1442
15501W        W58595  25.730   1.722  25.493 -0.1129 -0.1399 -0.0927
15502W        W58596  27.212  33.976  27.108  0.0491  0.2557  0.2092
15503W        W58597  26.066   0.116  27.535 -0.5307  0.1470  0.2215
15504W        W58598  24.771   2.124  26.079 -0.0127 -0.1574 -0.0835
15505W        W58599  26.526   0.542  24.713  0.1947 -0.1765  0.0455
15506W        W58600  28.794   2.568  24.510  0.0812 -0.0741  0.0359
15507W        W58601  27.147   0.478  26.576 -0.0427 -0.0177 -0.0127
15508W        W58602  25.163   1.498  25.307 -0.0340 -0.1650 -0.1780
15509W        W58603  29.340   2.205  24.898  0.1194 -0.1736  0.1760
15510W        W58604  28.377   2.246  24.364 -0.3671 -0.2548 -0.1097
15511W        W58605  27.763  34.550  26.135  0.1420 -0.0656  0.1570
15512W        W58606  28.852   3.127  27.120 -0.1381 -0.0682 -0.1022
15513W        W58607  24.608   2.552  21.598 -0.0547 -0.3212  0.0882
15514W        W58608  28.165   1.459  26.541 -0.0832  0.0256 -0.0592
15515W        W58609  27.317  34.467  28.220 -0.1868  0.2940 -0.2469
15516W        W58610  25.042   0.511  23.884  0.1487  0.2235  0.3549
15517W        W58611  27.547   1.629  25.101  0.1065 -0.3881 -0.0185
15518W        W58612  26.729   2.664  24.743 -0.2570 -0.0212 -0.1401
15519W        W58613  27.908   3.928  24.954 -0.1240 -0.1077  0.1245
15520W        W58614  27.648   2.730  26.766 -0.0536 -0.0043 -0.1734
15521W        W58615  26.474   3.146  26.500 -0.0956  0.0085 -0.0194
15522W        W58616  27.538  34.410  26.610 -0.2157  0.1001  0.0586
15523W        W58617  28.149   1.727  23.553  0.0778 -0.1882 -0.0229
15524W        W58618  27.088   2.436  25.548  0.2612  0.3245 -0.1201
15525W        W58619  29.727   3.118  23.580 -0.0291 -0.0380  0.2931
15526W        W58620  29.495  34.640  26.872  0.2642 -0.1870 -0.0967
15527W        W58621  27.154   0.951  25.817 -0.1539  0.1337 -0.0548
15528W        W58622  26.679  34.284  26.362  0.0635 -0.1227  0.0927
15529W        W58623  26.428   2.060  26.608  0.2783  0.0204  0.4186
15530W        W58624  29.449   3.276  25.696 -0.2047 -0.1895  0.0113
15531W        W58625  27.856   1.122  26.457 -0.0745 -0.3715 -0.1291
15532W        W58626  28.007  34.646  24.507 -0.2428 -0.1892  0.3194
15533W        W58627  26.998   2.845  22.826 -0.0433 -0.5758 -0.1947
15534W        W58628  26.490   1.706  26.197 -0.1897  0.2454  0.1856
15535W        W58629  27.225   1.400  24.105  0.2214  0.0078  0.2267
15536W        W58630  27.537   0.530  26.886 -0.2127 -0.0417 -0.0366
15537W        W58631  27.084   2.775  25.201  0.5415 -0.0597  0.2393
15538W        W58632  29.184   2.328  27.952 -0.0776  0.0611 -0.2464
15539W        W58633  25.825   2.677  23.163 -0.2759  0.2140  0.1024
15540W        W58634  28.785   1.915  24.476  0.1604 -0.1876  0.1687
15541W        W58635  27.142   4.678  27.214  0.0311 -0.0033  0.3755
15542W        W58636  28.785   4.816  26.856  0.2889 -0.0533 -0.2385
15543W        W58637  28.407   3.687  25.854 -0.0557  0.0717  0.0393
15544W        W58638  27.945   1.636  26.119 -0.0512 -0.0278 -0.0272
15545W        W58639  27.111  34.651  26.392  0.0198 -0.0750  0.3802
15546W        W58640  26.721   1.387  24.018 -0.1254 -0.1474  0.4527
15547W        W58641  25.882   2.412  24.681  0.2657 -0.2297 -0.3007
15548W        W58642  29.484   0.675  26.896 -0.2664 -0.4286  0.0355
15549W        W58643  26.710   2.064  25.872 -0.1191  0.2072  0.1143
15550W        W58644  27.047   1.169  23.704  0.0619 -0.1051 -0.2702
15551W        W58645  26.934   5.072  26.947  0.0282 -0.3560 -0.0781
15552W        W58646  27.425   2.409  24.201 -0.0174  0.0978  0.1595
15553W        W58647  27.177   1.293  31.532  0.1641  0.2167 -0.0327
15554W        W58648  25.526   1.629  26.805 -0.2196  0.2038 -0.1809
15555W        W58649  27.974  34.226  27.564  0.1744 -0.1379  0.2136
15556W        W58650  29.317   1.626  28.680  0.0193  0.4820  0.1474
15557W        W58651  25.905  34.281  29.796  0.0057  0.2926  0.2716
15558W        W58652  28.889   3.563  27.377 -0.1006 -0.3213 -0.2395
15559W        W58653  27.554  34.449  29.079 -0.0887  0.0590  0.2275
15560W        W58654  28.365   2.793  28.271 -0.2069 -0.1137 -0.0317
15561W        W58655  28.679   2.631  30.107  0.3057 -0.0073  0.1358
15562W        W58656  28.062   2.360  27.062 -0.0896  0.3602 -0.1586
15563W        W58657  26.595   0.128  29.136 -0.4022 -0.3318  0.0302
15564W        W58658  27.622   3.297  30.187  0.1053 -0.1744  0.0633
15565W        W58659  26.710  33.990  28.064 -0.2228 -0.2359  0.3006
15566W        W58660  26.215  34.619  29.569  0.2267 -0.6578  0.3002
15567W        W58661  28.080   3.505  29.059  0.0786 -0.0340  0.0253
15568W        W58662  25.868   2.341  28.169  0.2059  0.1372 -0.0770
15569W        W58663  27.162   1.440  30.930  0.2976  0.0800  0.0836
15570W        W58664  27.229   2.825  28.443 -0.4232 -0.0038  0.1795
15571W        W58665  28.878   4.510  28.759  0.2120  0.1081 -0.1036
15572W        W58666  27.282   1.067  30.406 -0.1491  0.1625 -0.1699
15573W        W58667  26.370  34.631  28.486  0.0372 -0.1378  0.3556
15574W        W58668  27.659   2.180  26.631 -0.0503  0.0376  0.3775
15575W        W58669  28.273   2.649  27.499 -0.2952 -0.2240  0.0684
15576W        W58670  25.534   1.864  29.378 -0.0698 -0.1861  0.1870
15577W        W58671  25.857   3.876  29.765  0.1621  0.1154  0.2032
15578W        W58672  29.072   1.650  29.643 -0.0649 -0.3675  0.1492
15579W        W58673  29.523   2.330  28.717  0.1259 -0.2532 -0.1753
15580W        W58674  28.154   4.521  28.126 -0.1203 -0.0325  0.0103
15581W        W58675  28.110   2.027  27.471  0.2902  0.2192 -0.3097
15582W        W58676  27.780   1.177  31.090  0.5172 -0.0806 -0.2513
15583W        W58677  25.075   2.092  29.381  0.1603  0.0854  0.1268
15584W        W58678  26.753   4.502  28.271  0.0703 -0.1809  0.2415
15585W        W58679  27.553   3.286  28.492 -0.2866  0.4167 -0.2253
15586W        W58680  30.055   2.614  27.574  0.4756  0.2441  0.1108
15587W        W58681  28.311   2.287  30.451 -0.3814 -0.1822 -0.1091
15588W        W58682  28.385   3.754   0.331  0.1831 -0.0288  0.1520
15589W        W58683  26.712   1.349  27.968  0.1465  0.2514 -0.2472
15590W        W58684  27.517   3.545  31.066  0.0454  0.0675 -0.2469
15591W        W58685  26.081   3.125  29.053  0.2301  0.1203 -0.0429
15592W        W58686  26.778   2.316  29.447 -0.4385  0.2074  0.0307
15593W        W58687  28.109   1.943  28.154  0.1428  0.2865 -0.1231
15594W        W58688  27.720   3.373  27.311  0.2932 -0.0597  0.0801
15595W        W58689  28.172   1.625  28.529 -0.3683 -0.0213  0.1709
15596W        W58690  27.575   3.118  31.914 -0.0676  0.0797 -0.3827
15597W        W58691  25.844   3.224  28.525 -0.0610 -0.0057  0.1293
15598W        W58692  28.603   1.734  29.798  0.1078 -0.2363  0.3785
15599W        W58693  26.687   3.808  27.498  0.1477  0.1835  0.1391
15600W        W58694  27.762   1.562  27.752  0.1202 -0.0082 -0.4027
15601W        W58695  27.191   1.704  28.092  0.0042  0.1889 -0.1656
15602W        W58696  27.558   1.157  28.575 -0.1531 -0.1066  0.3246
15603W        W58697  26.759   0.909  28.194  0.1374 -0.0406 -0.1627
15604W        W58698  25.992   2.889  29.486  0.1660  0.1320 -0.3861
15605W        W58699  27.284   0.844  29.533 -0.4429 -0.1008 -0.2711
15606W        W58700  27.377   2.776  28.923  0.1256 -0.2105 -0.0278
15607W        W58701  26.875   3.561  29.009 -0.2731  0.1036 -0.2939
15608W        W58702  28.688   1.570  29.337  0.0024 -0.0424 -0.1757
15609W        W58703  27.272   2.664  31.187 -0.0243 -0.2014 -0.0382
15610W        W58704  26.946   2.758  29.235  0.1262  0.0683 -0.1525
15611W        W58705  29.256   3.236  27.523  0.1170 -0.0801  0.1215
15612W        W58706  28.514   3.437  28.209  0.4399 -0.0484  0.0311
15613W        W58707  28.195   3.104  26.300  0.1597  0.2887 -0.2075
15614W        W58708  26.571   3.600  28.346  0.0777  0.0030 -0.4572
15615W        W58709  25.219   2.894  30.127 -0.2673 -0.0119 -0.1977
15616W        W58710  25.036   2.282  30.982  0.3404  0.0753 -0.0137
15617W        W58711  27.731  34.259  28.008 -0.2404 -0.0542  0.2244
15618W        W58712  29.058   1.423  30.658  0.2025  0.0953 -0.2479
15619W        W58713  25.143   1.957  30.620  0.0190 -0.0782 -0.0349
15620W        W58714  28.324   0.102  28.764 -0.0337  0.1811 -0.0870
15621W        W58715  28.312   2.199  29.896  0.1463 -0.0161 -0.2656
15622W        W58716  28.605   3.247  30.239 -0.1279  0.2639  0.2404
15623W        W58717  28.576   1.732  27.239  0.1926 -0.0596 -0.1403
15624W        W58718  28.530  34.303  28.867  0.1049 -0.2587  0.0871
15625W        W58719  28.566   0.451  28.354 -0.1028 -0.3243  0.3147
15626W        W58720  28.225   3.634  27.736 -0.2995  0.1857 -0.1190
15627W        W58721  27.650   4.319  28.353 -0.2990  0.1830 -0.3376
15628W        W58722  29.619   2.474  30.026 -0.0682  0.1184  0.0139
15629W        W58723  28.584   1.725  26.681  0.2006  0.0848  0.0203
15630W        W58724  26.239   4.094  30.725  0.0237  0.1180 -0.2239
15631W        W58725  27.019   0.426  29.587  0.0409  0.1542  0.1138
15632W        W58726  27.885   2.090  30.639 -0.2515 -0.3368  0.0553
15633W        W58727  26.272   4.370  26.700 -0.2257 -0.0708 -0.0816
15634W        W58728  25.866   3.619  28.838  0.2204  0.0811  0.0120
15635W        W58729  24.938   1.980  27.910  0.2993  0.2598 -0.3006
15636W        W58730  26.499   0.433  29.575  0.3496 -0.1005 -0.1084
15637W        W58731  27.498   1.952  28.924 -0.0077  0.1382 -0.4310
15638W        W58732  28.528  33.863  28.172  0.2240  0.0990 -0.0078
15639W        W58733  26.678   0.366  30.106 -0.0342  0.0593 -0.3356
15640W        W58734  30.108   1.420  28.778  0.0207 -0.0908  0.0828
15641W        W58735  26.420   3.261  27.303  0.0752 -0.2082 -0.2739
15642W        W58736  29.428   3.499  29.855  0.2212 -0.3616 -0.1524
15643W        W58737  29.870   2.153  27.927  0.0944  0.1851 -0.1838
15644W        W58738  29.709   2.971  27.537 -0.0871 -0.0098  0.0721
15645W        W58739  26.239   2.822  28.712 -0.0363 -0.0864 -0.0912
15646W        W58740  25.917   2.031  29.117  0.1461 -0.0126  0.0311
15647W        W58741  25.240   1.725   0.632  0.0829  0.2141  0.1028
15648W        W58742  25.519   0.309  29.550 -0.2200 -0.0029  0.2689
15649W        W58743  27.973   1.793  29.820  0.0362  0.2325  0.0744
15650W        W58744  24.856  32.261  28.023 -0.1516  0.1343 -0.2692
15651W        W58745  28.546   0.148  29.740  0.0609  0.2927 -0.0050
15652W        W58746  26.821   2.382  28.308  0.1328  0.0111 -0.3613
15653W        W58747  24.530   2.012  29.102  0.1932  0.2352  0.2639
15654W        W58748  28.614   1.077  30.371  0.0265  0.0201  0.2393
15655W        W58749  27.505   4.301  27.351  0.0906 -0.0102 -0.4575
15656W        W58750  31.828   4.508  29.300 -0.0033 -0.3440 -0.0449
15657W        W58751  28.476   2.968  29.803  0.0466 -0.3124 -0.1025
15658W        W58752  26.601   1.553  30.947 -0.1700  0.4001  0.1033
15659W        W58753  27.364   0.863  28.979  0.0711 -0.0368 -0.3043
15660W        W58754  26.541   5.058  29.791  0.0053 -0.0004  0.1280
15661W        W58755  27.767   2.661  29.584 -0.1709  0.0376  0.3670
15662W        W58756  27.297   2.458  27.124 -0.1175 -0.0338 -0.0514
15663W        W58757  29.086   3.101  29.249  0.1570  0.1420 -0.1078
15664W        W58758  27.904   2.647  29.058 -0.0076 -0.0167  0.2726
15665W        W58759  25.925   4.342  29.957 -0.2465 -0.0578  0.0502
15666W        W58760  27.482   1.563  30.328  0.2425 -0.0654 -0.2987
15667W        W58761  28.137   0.918  29.764  0.3650  0.1998 -0.3215
15668W        W58762  27.568   1.839  29.410 -0.0338 -0.2516  0.1883
15669W        W58763  26.611   0.147  27.552  0.0217 -0.0146  0.0124
15670W        W58764  27.132   3.249  27.550 -0.2092 -0.0796 -0.1097
15671W        W58765  25.334   2.927  28.517 -0.0082  0.1811  0.1508
15672W        W58766  25.982   3.942  30.271  0.1309  0.1881  0.0171
15673W        W58767  27.653   3.795  28.448 -0.0136 -0.0231 -0.2352
15674W        W58768  29.510   0.617  29.624 -0.1446  0.1506 -0.2842
15675W        W58769  26.537   2.057  30.414 -0.0229  0.0043  0.2648
15676W        W58770  27.676   1.029  31.719 -0.0497  0.0557 -0.3993
15677W        W58771  25.668   2.216  28.689 -0.0186 -0.2324 -0.2982
15678W        W58772  25.625   2.013  30.381  0.3772 -0.2633  0.0563
15679W        W58773  28.311   1.267  28.878 -0.0336 -0.0005 -0.3238
15680W        W58774  28.690   0.759  27.385 -0.0292 -0.0491 -0.4174
15681W        W58775  28.730   1.047  31.520  0.1450 -0.0985 -0.0307
15682W        W58776  28.591   2.214  27.437  0.1581 -0.3688  0.0119
15683W        W58777  28.220   1.428  27.994  0.1444 -0.4403 -0.0881
15684W        W58778  26.757   2.005  27.928 -0.1345  0.3558  0.1870
15685W        W58779  24.687   3.243  30.929  0.0587 -0.0592 -0.1135
15686W        W58780  27.762   4.375  27.844 -0.2661 -0.1257 -0.0226
15687W        W58781  26.948   1.908  30.724  0.0684  0.2809  0.2256
15688W        W58782  26.533   3.253  28.696 -0.1078  0.0769 -0.0882
15689W        W58783  29.370   2.339  26.985 -0.1114  0.1011  0.1981
15690W        W58784  25.988   4.100  28.809 -0.5043  0.1002  0.1418
15691W        W58785  28.433   1.904  30.812  0.0493  0.0910  0.0195
15692W        W58786  28.631   2.830  29.172  0.1148 -0.1009 -0.5051
15693W        W58787  25.888   0.796  29.181  0.0133 -0.2457  0.1210
15694W        W58788  27.265   0.121  26.861  0.1455  0.2687  0.1676
15695W        W58789  26.227   0.343  28.654  0.0596 -0.0484 -0.1886
15696W        W58790  25.172   3.350  27.418  0.0556 -0.1870 -0.0938
15697W        W58791  27.911   0.762  30.322 -0.0132 -0.0076  0.0484
15698W        W58792  26.709  34.490  28.828 -0.4004  0.0807 -0.0212
15699W        W58793  26.904  34.235  30.039  0.0969 -0.0528  0.0584
15700W        W58794  29.925   1.598  30.712  0.0364 -0.0092 -0.2425
15701W        W58795  28.536   1.751  27.816  0.0129 -0.1026 -0.1246
15702W        W58796  28.352   2.262  29.152  0.1833 -0.4795 -0.1013
15703W        W58797  26.181   0.946  26.680  0.1309  0.4459 -0.0413
15704W        W58798  27.236   1.050   0.039  0.0942 -0.0974 -0.0796
15705W        W58799  24.342   2.732  29.575 -0.0375  0.2173  0.0563
15706W        W58800  24.988   3.194  29.645 -0.1039  0.2156 -0.1132
15707W        W58801  28.162   3.303   0.212 -0.2880  0.5146  0.6007
15708W        W58802  28.733   2.841  28.656 -0.2816 -0.2704 -0.3808
15709W        W58803  27.614  34.646  30.196  0.1522 -0.0859  0.3311
15710W        W58804  27.223   2.201  28.044  0.0050  0.2041  0.3039
15711W        W58805  26.856   4.081  28.000  0.1302 -0.1359  0.0182
15712W        W58806  28.345   2.358  27.933  0.4394  0.0697 -0.0554
15713W        W58807  26.412   0.553  29.062 -0.2831  0.1646 -0.2307
15714W        W58808  28.513   4.141  28.840 -0.0200  0.1373 -0.2755
15715W        W58809  27.084   2.872  27.970 -0.1334 -0.1598 -0.1579
15716W        W58810  29.247   2.530  31.180 -0.1173  0.1137  0.1150
15717W        W58811  26.278   3.160  28.246 -0.3066  0.3589  0.0145
15718W        W58812  29.820   0.185  29.351  0.1156 -0.3227  0.1295
15719W        W58813  24.954   2.930  30.579  0.2466  0.1332  0.1476
15720W        W58814  26.393   1.831  27.237 -0.0773  0.0425  0.0331
15721W        W58815  26.374  34.550  27.990  0.1477 -0.3030 -0.2227
15722W        W58816  28.760  34.296  28.221 -0.0405 -0.1851  0.1257
15723W        W58817  28.829   2.699  27.413  0.1920 -0.1360 -0.1553
15724W        W58818  27.271   0.760  31.583  0.4749  0.0063  0.3278
15725W        W58819  26.792   0.915  29.656  0.0875 -0.2317  0.1768
15726W        W58820  24.032   2.339  29.456  0.3333 -0.3405 -0.1546
15727W        W58821  26.541   2.340  30.008 -0.4621  0.0031 -0.0679
15728W        W58822  28.758  34.583  27.175 -0.0969 -0.0388  0.0239
15729W        W58823  26.901   2.552  30.853 -0.0205 -0.1189  0.1151
15730W        W58824  28.718   2.430   0.165 -0.2190 -0.1142 -0.3074
15731W        W58825  25.497   1.736  27.330 -0.0327 -0.0367  0.0216
15732W        W58826  28.382   1.467  30.149  0.0438  0.3289 -0.0190
15733W        W58827  26.969   0.519  29.116 -0.3297  0.1814 -0.0913
15734W        W58828  25.612   3.715  28.272 -0.1844  0.0001 -0.1381
15735W        W58829  28.453   2.796  30.465  0.2722 -0.0367 -0.3016
15736W        W58830  27.954   3.034  26.911 -0.2354 -0.0107 -0.0102
15737W        W58831  26.803   4.051  28.567  0.5193  0.1764  0.2919
15738W        W58832  26.283   1.615  30.451 -0.2757  0.3077 -0.0470
15739W        W58833  29.064   1.152  30.191  0.3216  0.1607  0.4146
15740W        W58834  26.562   1.407  29.412  0.0239  0.1486  0.2218
15741W        W58835  26.620   0.735  28.627 -0.1758 -0.3089 -0.0155
15742W        W58836  27.766   2.820  28.578  0.1406  0.1463 -0.4044
15743W        W58837  27.903   2.318  31.571  0.0267 -0.0766  0.2779
15744W        W58838  26.797   1.453  30.476  0.2603 -0.2511  0.0544
15745W        W58839  25.970   3.031  31.462  0.1949  0.1228 -0.0013
15746W        W58840  27.329  34.374  29.642  0.0702  0.2386 -0.2021
15747W        W58841  30.118   3.957  27.641  0.4351  0.1303 -0.0593
15748W        W58842  26.059   2.097  30.629  0.2744 -0.0920 -0.0983
15749W        W58843  27.474   3.328  26.822  0.0559 -0.0908  0.0985
15750W        W58844  25.795   3.039  30.246 -0.0633 -0.2547  0.2457
15751W        W58845  27.090   2.275  29.015 -0.1228  0.0662  0.1870
15752W        W58846  27.791  34.681  29.482  0.2042  0.1900 -0.0516
15753W        W58847  25.661   3.710  30.586  0.1040  0.0500  0.3198
15754W        W58848  26.652   2.883  28.381  0.0943  0.4637  0.0766
15755W        W58849  25.469   2.426  29.116  0.0495  0.0624 -0.5686
15756W        W58850  29.110  34.598  27.537 -0.1504 -0.0779 -0.0101
15757W        W58851  27.214   4.426  28.140 -0.0020  0.2853  0.0330
15758W        W58852  27.377   1.884  27.700  0.1278 -0.0406  0.1777
15759W        W58853  29.555  33.698  31.900 -0.2343 -0.2327  0.2900
15760W        W58854  28.498   2.129  26.963  0.1460  0.0715 -0.1196
15761W        W58855  27.787   0.184  31.028  0.2455  0.1074  0.0375
15762W        W58856  26.443   0.314  31.624  0.3473 -0.0360  0.1775
15763W        W58857  30.265   3.708  28.263  0.0385 -0.0968  0.3078
15764W        W58858  27.073   0.743  28.574  0.1034  0.0854 -0.0409
15765W        W58859  28.908   3.583  30.554  0.0519 -0.0397 -0.1188
15766W        W58860  27.959   1.490  31.402  0.4115  0.2186 -0.0978
15767W        W58861  26.349   1.767  28.784 -0.0121  0.0392  0.1537
15768W        W58862  26.317  33.357  26.911 -0.0152  0.0733 -0.0787
15769W        W58863  27.733   3.448  30.624 -0.0248  0.0728 -0.1026
15770W        W58864  28.241   1.813  29.256  0.2142  0.0035 -0.1247
15771W        W58865  28.744   2.841  27.915 -0.1595  0.0500  0.2119
15772W        W58866  28.783   1.836  28.823 -0.0948 -0.0640  0.0820
15773W        W58867  27.093   1.837  29.285 -0.0216 -0.2540  0.2048
15774W        W58868  27.754   1.497  28.240  0.1165  0.2180 -0.1033
15775W        W58869  27.411   2.941  27.186 -0.2780 -0.5281 -0.1827
15776W        W58870  26.766   2.638  28.790  0.0538  0.0479  0.0846
15777W        W58871  27.413  34.211  30.988  0.0935 -0.3023 -0.1469
15778W        W58872  27.641   2.391  28.660  0.0402 -0.0554 -0.2169
15779W        W58873  26.775   1.528  28.978  0.2438  0.0562  0.4193
15780W        W58874  27.541  33.856  29.125 -0.2690 -0.0637 -0.0359
15781W        W58875  28.184  34.429  29.748 -0.0456 -0.0941 -0.0307
15782W        W58876  26.943   1.819  30.178 -0.0760 -0.1025 -0.1157
15783W        W58877  26.393   1.189  30.170 -0.0278  0.0007  0.2118
15784W        W58878  29.277   2.158  30.248 -0.2202 -0.1260 -0.2505
15785W        W58879  28.504   1.284  27.537  0.1047  0.0179 -0.2992
15786W        W58880  27.801   1.109  29.106  0.1872 -0.1295 -0.0180
15787W        W58881  28.727   1.644  28.329  0.0548 -0.1584 -0.0379
15788W        W58882  29.088   1.186  28.316 -0.1185 -0.2738 -0.0422
15789W        W58883  25.625   2.452  30.172  0.0363 -0.0759 -0.2298
15790W        W58884  27.724   0.483  31.612 -0.1853  0.1374  0.0007
15791W        W58885  26.368   2.031  28.246 -0.0114 -0.4232  0.1667
15792W        W58886  27.763   1.531  28.812 -0.2073  0.2031  0.0645
15793W        W58887  27.998   3.315  28.191 -0.3575 -0.2677 -0.4033
15794W        W58888  29.071   2.103  28.495 -0.1054  0.1894 -0.3824
15795W        W58889  27.602   1.988  28.272 -0.1161  0.2190 -0.1525
15796W        W58890  26.190   0.233  29.935  0.1891 -0.0717  0.0981
15797W        W58891  26.383   3.157  31.209 -0.2335  0.0411  0.1032
15798W        W58892  26.943   0.540  27.654 -0.2006 -0.1210  0.2036
15799W        W58893  28.844   1.388  27.921  0.1026  0.0611  0.1984
15800W        W58894  27.793   2.557  31.137 -0.0020 -0.0645 -0.4642
15801W        W58895  28.166   1.123  30.697  0.3045 -0.0443 -0.3656
15802W        W58896  27.060   1.015  27.671 -0.3854 -0.0697  0.0922
15803W        W58897  27.802  34.178   0.124 -0.0274 -0.1549 -0.0369
15804W        W58898  25.558   3.499  30.107 -0.2161  0.0284  0.2578
15805W        W58899  26.747   0.988  29.066 -0.1422  0.1705 -0.0961
15806W        W58900  26.793   3.020  30.729 -0.1777  0.1524  0.0675
15807W        W58901  25.737   3.275  29.704 -0.1457  0.0656  0.2114
15808W        W58902  26.550   3.189  29.185 -0.0235  0.3510  0.0536
15809W        W58903  27.316   0.335  28.823 -0.2876  0.2449 -0.1835
15810W        W58904  28.203  34.596  28.242  0.2538 -0.1037 -0.0452
15811W        W58905  27.510   0.357  29.258  0.0313  0.1006  0.1551
15812W        W58906  30.689   2.042  29.542 -0.0480  0.1079  0.2673
15813W        W58907  28.812   2.690  31.091  0.0294  0.2726  0.1364
15814W        W58908  26.993   2.907  30.170 -0.0475  0.0514  0.0207
15815W        W58909  27.718   2.861  30.154  0.0035  0.2074 -0.3068
15816W        W58910  27.818   2.199  30.076 -0.1544  0.3836  0.1574
15817W        W58911  27.776   3.112  28.997  0.0403 -0.1643  0.1610
15818W        W58912  25.771   1.168  30.960 -0.1198 -0.0455  0.2054
15819W        W58913  26.638   1.586   0.640 -0.1735 -0.0022  0.0683
15820W        W58914  27.836   0.696  28.886 -0.2919 -0.2153 -0.4425
15821W        W58915  25.671  34.578  27.278  0.0357 -0.0394 -0.2329
15822W        W58916  28.480   2.799  26.992  0.0814 -0.2302 -0.0994
15823W        W58917  27.507   2.641  31.631 -0.0522 -0.0688  0.0460
15824W        W58918  25.104   1.727  29.683  0.0027  0.2102  0.1075
15825W        W58919  26.557   4.262  29.135 -0.1898  0.1716 -0.1439
15826W        W58920  28.313   2.565  28.704  0.1206  0.3258  0.3733
15827W        W58921  27.802   2.296  27.881  0.0153 -0.3905  0.2236
15828W        W58922  28.169   3.060  29.339  0.0973  0.0840 -0.0837
15829W        W58923  26.781   2.103  26.973 -0.1043  0.0672  0.1002
15830W        W58924  26.172   4.149  27.568  0.2053  0.3872 -0.1675
15831W        W58925  25.143   2.672  29.430  0.0808 -0.2769  0.1433
15832W        W58926  28.599   4.513  27.382 -0.0531  0.0011  0.1830
15833W        W58927  26.424   4.401  28.680  0.1993 -0.2065 -0.1454
15834W        W58928  27.840   2.651  30.611  0.2186 -0.1699 -0.4108
15835W        W58929  29.290   0.080  26.396 -0.3226 -0.1023 -0.2552
15836W        W58930  28.475   2.055  28.488  0.1980  0.1127  0.0261
15837W        W58931  27.738  34.292  28.588  0.0716 -0.0518 -0.1085
15838W        W58932  28.393   3.283  30.704  0.0424 -0.2230 -0.3232
15839W        W58933  26.543  34.566  30.016 -0.0080 -0.2782 -0.2669
15840W        W58934  26.660   0.866  27.287  0.0791 -0.1458 -0.1228
15841W        W58935  26.308   0.814  31.368  0.0475 -0.2866  0.0281
15842W        W58936  28.675   1.173  29.777 -0.6480 -0.0050 -0.2421
15843W        W58937  26.036   2.698  30.562 -0.1137 -0.2315  0.1136
15844W        W58938  29.333   3.368  27.991 -0.0339  0.0069 -0.1217
15845W        W58939  25.671   1.212  28.822  0.0962  0.0009  0.0517
15846W        W58940  26.431   1.804  29.942 -0.0178  0.0301  0.2572
15847W        W58941  30.058  34.503  29.319  0.0516 -0.0462  0.0735
15848W        W58942  27.434   1.863  26.348 -0.0087  0.2155 -0.2043
15849W        W58943  27.038   1.293  29.405 -0.0429  0.0426  0.1267
15850W        W58944  26.407   4.478  27.907  0.1946  0.0165  0.1444
15851W        W58945  26.443   2.661  29.211  0.0962  0.0313  0.6044
15852W        W58946  27.699   4.256  29.976  0.0150 -0.1615  0.0859
15853W        W58947  26.170   0.871  28.752 -0.0126  0.3099 -0.3759
15854W        W58948  28.915   0.818  28.526 -0.0736  0.0342 -0.1901
15855W        W58949  26.787   1.437  29.904 -0.2264 -0.2182  0.5214
15856W        W58950  29.491  34.441  29.379 -0.0843 -0.0706  0.0918
15857W        W58951  25.961   1.545  29.286  0.0960 -0.0958  0.3947
15858W        W58952  28.711   0.216  29.126 -0.2864 -0.0726  0.0944
15859W        W58953  27.453   3.071  29.774 -0.1855  0.0266  0.0028
15860W        W58954  26.333   1.824  29.420 -0.0253  0.1085  0.2399
15861W        W58955  27.056   1.472  26.540 -0.1336  0.2432  0.1446
15862W        W58956  27.694   1.217  30.606 -0.0370  0.1567 -0.0181
15863W        W58957  27.234   2.138  28.537  0.1931 -0.0055 -0.1613
15864W        W58958  28.716   3.393  29.718  0.1837  0.1986  0.0534
15865W        W58959  25.762   1.016  28.324  0.3316  0.3045  0.2834
15866W        W58960  27.425   1.251  27.971  0.2172  0.0724  0.4209
15867W        W58961  26.722   2.109  28.694 -0.2665 -0.1099  0.5281
15868W        W58962  26.356   1.798  31.358 -0.1457 -0.2472  0.3127
15869W        W58963  28.558   1.505  30.622  0.1071  0.2073 -0.1270
15870W        W58964  25.889   0.007  28.649 -0.1826  0.1901 -0.0760
15871W        W58965  28.933   2.700  26.421  0.1370  0.2539 -0.0562
15872W        W58966  28.743   2.371  28.888  0.0264 -0.0081 -0.1522
15873W        W58967  27.070   3.940  26.680  0.1769  0.3440  0.2833
15874W        W58968  27.247   1.632  29.823 -0.0907 -0.0060  0.1067
15875W        W58969  29.308   2.384  30.696  0.1304 -0.1073 -0.0923
15876W        W58970  26.216   2.407  29.549 -0.3534  0.1230 -0.1206
15877W        W58971  28.603   3.316  29.191  0.5053  0.0606 -0.1027
15878W        W58972  29.169   2.451  29.090 -0.1728 -0.1687 -0.0249
15879W        W58973  28.067   0.478  28.428 -0.0367 -0.1824  0.1879
15880W        W58974  26.807   1.847  29.667  0.1297 -0.1355 -0.1684
15881W        W58975  25.663   4.825  28.299  0.0439 -0.0265  0.1376
15882W        W58976  29.307   0.326  29.198 -0.3169  0.1579  0.1228
15883W        W58977  28.045   0.419  29.873 -0.1011 -0.0669 -0.0627
15884W        W58978  26.593   3.874  26.943  0.0049  0.2300  0.1407
15885W        W58979  27.766   0.728  29.454  0.0115  0.0183 -0.0581
15886W        W58980  26.915   3.124  29.713 -0.2871  0.2553  0.0157
15887W        W58981  28.454   1.493   0.090  0.1206  0.1972 -0.1369
15888W        W58982  26.673   2.539  27.874  0.1000  0.0455 -0.0786
15889W        W58983  27.522   1.632  31.235 -0.0552 -0.0521  0.1676
15890W        W58984  26.184   3.367  29.556 -0.2162  0.3420  0.2164
15891W        W58985  27.295   3.733  27.484  0.1743  0.0464 -0.1939
15892W        W58986  28.003   3.056  29.797  0.2388 -0.3931  0.0098
15893W        W58987  27.608   0.835  29.935 -0.0254 -0.0197 -0.1920
15894W        W58988  29.800   3.663  28.895  0.0577 -0.0516 -0.0125
15895W        W58989  26.054   1.385  28.627 -0.1448 -0.3014 -0.0689
15896W        W58990  30.114   1.164  29.755  0.0311 -0.0676  0.2642
15897W        W58991  28.477   0.711  28.747  0.1020  0.1394  0.1922
15898W        W58992  26.062   2.695  29.947 -0.3637 -0.0746  0.1386
15899W        W58993  25.830   1.353  27.884 -0.4474 -0.2592 -0.1279
15900W        W58994  27.585   3.039  27.727 -0.2108  0.0661  0.0814
15901W        W58995  26.280   2.643  28.161  0.2440  0.0553 -0.0150
15902W        W58996  27.664  33.924  31.310  0.0677 -0.0088  0.1208
15903W        W58997  26.749   1.525  31.650 -0.2410 -0.3295  0.2229
15904W        W58998  27.528   2.579  28.191  0.0570  0.3302  0.0873
15905W        W58999  25.803  34.021  27.350  0.0744 -0.2304 -0.2099
15906W        W59000  29.648   4.053  28.549  0.0894 -0.1014  0.0981
15907W        W59001  27.207  34.182  28.962  0.1920  0.0504 -0.2854
15908W        W59002  25.842  33.313  29.244  0.3045 -0.2163 -0.1708
15909W        W59003  28.287   3.044  28.711  0.2610 -0.1744 -0.1240
15910W        W59004  28.984   3.102  28.246 -0.0827 -0.3771 -0.1896
15911W        W59005  25.294   0.589  28.170 -0.1375  0.1086 -0.0802
15912W        W59006  27.351   3.717  30.412 -0.1549  0.1883  0.0985
15913W        W59007  25.870   3.202  27.224  0.4160  0.1190 -0.0786
15914W        W59008  27.415   0.480  31.200 -0.0666  0.3222  0.1785
15915W        W59009  26.724   0.983  30.483 -0.0813  0.0205  0.1084
15916W        W59010  27.187   0.189  27.429  0.1473 -0.4330 -0.2796
15917W        W59011  26.555   2.623  30.489 -0.1328  0.1685  0.1432
15918W        W59012  28.105   4.229  28.560 -0.0402  0.1552  0.0213
15919W        W59013  28.097   4.171  27.035 -0.3477  0.1894  0.3276
15920W        W59014  27.194   2.148  29.858  0.4464 -0.3549 -0.0956
15921W        W59015  27.392   3.131  31.458  0.2732  0.0899  0.0663
15922W        W59016  26.173  34.171  30.288  0.3834  0.0904  0.0123
15923W        W59017  29.253   0.685  28.188  0.2379 -0.1040 -0.1450
15924W        W59018  26.944   2.343  30.351 -0.0586  0.1610  0.1573
15925W        W59019  29.291   2.842  27.220 -0.1723  0.1073 -0.3131
15926W        W59020  29.731   1.043  29.469  0.1253 -0.2510 -0.2808
15927W        W59021  28.006   2.041  28.811 -0.3332 -0.0760  0.2008
15928W        W59022  25.953  34.364   0.437 -0.1404 -0.3189 -0.1443
15929W        W59023  26.823   3.377  30.272 -0.1475 -0.1220  0.0885
15930W        W59024  28.855   2.614  29.605 -0.0616 -0.4298 -0.4551
15931W        W59025  25.532   0.047  29.056  0.1636  0.1547  0.0363
15932W        W59026  27.112   1.176  28.380  0.0235 -0.3284  0.0129
15933W        W59027  27.954   2.766  27.957 -0.1523 -0.1856 -0.1872
15934W        W59028  24.686   1.480  29.931  0.4023 -0.0025 -0.1650
15935W        W59029  27.291   1.472  28.988 -0.2343 -0.0247 -0.1117
15936W        W59030  27.449   1.803  30.747  0.0361 -0.2091 -0.1853
15937W        W59031  27.066   3.162  28.805 -0.3705  0.0963  0.1672
15938W        W59032  29.247   1.962  29.068  0.2061 -0.2020 -0.3151
15939W        W59033  26.326   1.268  29.015  0.3721  0.0027  0.0380
15940W        W59034  29.664   2.557  28.053 -0.1053 -0.3385 -0.1417
15941W        W59035  28.363   3.644  28.624  0.0237  0.3209 -0.1145
15942W        W59036  30.684   4.133  30.933 -0.0242 -0.3506  0.3308
15943W        W59037  27.724   3.938  31.246  0.3044 -0.1414 -0.4850
15944W        W59038  29.163   2.796  30.389  0.2335  0.0604 -0.0066
15945W        W59039  25.910   1.062  29.670 -0.3136  0.0401 -0.0791
15946W        W59040  26.524   2.767  29.676 -0.2002 -0.0694  0.2389
15947W        W59041  26.084   2.137  30.107 -0.0791 -0.1360 -0.2535
15948W        W59042  27.508   1.325  29.497 -0.1997  0.2164 -0.1082
15949W        W59043  26.158   1.443  29.757  0.0877  0.0120 -0.0170
15950W        W59044  28.083   1.089  28.401 -0.0745  0.0397  0.1360
15951W        W59045  26.063   3.871  29.256 -0.3013  0.0915 -0.0529
15952W        W59046  27.399   2.533  30.035  0.0827 -0.1450 -0.0928
15953W        W59047  28.251   1.266  29.391 -0.0290 -0.1855 -0.0567
15954W        W59048  27.995   1.347  31.980  0.0154 -0.0928  0.0205
15955W        W59049  26.138   0.632  31.831  0.0200 -0.1169 -0.3190
15956W        W59050  25.605   3.475  31.032 -0.0034  0.1143 -0.2506
15957W        W59051  27.869   2.727   0.056  0.1875 -0.1907 -0.2279
15958W        W59052  25.659   3.767  31.571 -0.2667  0.0868 -0.0777
15959W        W59053  27.934   2.129  29.416  0.0630  0.3097 -0.2781
15960W        W59054  25.725   1.478   0.617  0.1554 -0.1562 -0.3038
15961W        W59055  29.197   1.044  31.722 -0.0813  0.2291 -0.0987
15962W        W59056  28.821   3.028  30.740 -0.0179 -0.2986 -0.1987
15963W        W59057  28.090   4.163  31.609 -0.0561  0.2193  0.0443
15964W        W59058  26.803  34.646  31.594 -0.0512 -0.1189 -0.1136
15965W        W59059  29.232   3.109  31.619 -0.0483  0.0115  0.2117
15966W        W59060  25.401   1.578  30.254 -0.0009 -0.3460  0.1457
15967W        W59061  29.351  34.186  31.729  0.1717  0.0663  0.0073
15968W        W59062  26.086   3.426  30.144 -0.1561 -0.0273  0.2767
15969W        W59063  25.785   3.033  30.959 -0.1154 -0.1231  0.2056
15970W        W59064  27.278   2.113  31.133  0.0229  0.1422 -0.1860
15971W        W59065  27.028  33.759  31.261 -0.0909  0.1086  0.1430
15972W        W59066  25.942   1.066   0.154  0.0605 -0.1516 -0.1319
15973W        W59067  25.553  34.650   0.235 -0.0290 -0.0251  0.2880
15974W        W59068  26.431   3.447  31.641 -0.0032  0.0050 -0.0591
15975W        W59069  28.422   0.047   1.334 -0.1366 -0.0933  0.1958
15976W        W59070  27.883   0.270  30.492  0.0125 -0.1255 -0.2073
15977W        W59071  28.869  34.015   0.430 -0.1748  0.1326 -0.0240
15978W        W59072  26.084   0.255   0.590  0.1269  0.2274  0.0411
15979W        W59073  26.845   0.517  31.362 -0.0393 -0.4051  0.0472
15980W        W59074  25.681   2.311  30.831 -0.1688 -0.0636 -0.0595
15981W        W59075  24.989   1.678  29.105 -0.1841 -0.2189 -0.1433
15982W        W59076  26.272   1.307  31.270  0.0965  0.0969 -0.0467
15983W        W59077  28.795   1.900  31.473 -0.0612  0.3209 -0.2736
15984W        W59078  25.865   0.494  31.391  0.1154  0.0101 -0.1608
15985W        W59079  27.607   1.978   0.664  0.2461  0.1266  0.0119
15986W        W59080  27.490   0.676  30.675 -0.0453  0.0679 -0.0046
15987W        W59081  25.482   0.755  30.707 -0.1751 -0.4653  0.0177
15988W        W59082  26.125   1.862   0.858  0.3939  0.1433  0.2384
15989W        W59083  27.833   2.022  31.117  0.0007 -0.0071 -0.0089
15990W        W59084  28.325   2.950  31.947 -0.0671 -0.1731  0.1694
15991W        W59085  28.281   2.100  31.376 -0.2194  0.1717  0.0539
15992W        W59086  27.778   1.357  29.966 -0.0893 -0.1388  0.1075
15993W        W59087  30.095   0.681  31.251  0.0991 -0.2989  0.4478
15994W        W59088  27.836   0.482   0.463 -0.1469  0.0684 -0.3780
15995W        W59089  26.437  34.375  31.226 -0.0844  0.3036  0.3967
15996W        W59090  28.441   4.548  31.769  0.0405 -0.0001  0.2328
15997W        W59091  25.755  34.340  31.903 -0.2014 -0.3854 -0.1554
15998W        W59092  27.597   0.368  29.752  0.1806 -0.0951  0.0053
15999W        W59093  28.077  33.971  31.711  0.2916 -0.1284  0.1881
16000W        W59094  27.400   2.091  30.317 -0.0121  0.2738  0.5588
16001W        W59095  28.903   3.473  31.495 -0.1967  0.1427 -0.0260
16002W        W59096  27.146   3.543  29.953  0.0329  0.0855  0.1711
16003W        W59097  28.417   1.507  31.596  0.3593 -0.1472  0.2214
16004W        W59098  28.082   0.027  31.442 -0.0764 -0.4496  0.3077
16005W        W59099  27.264  33.443   0.296  0.1220  0.0212 -0.2728
16006W        W59100  27.188   1.158  29.908  0.1337 -0.1113  0.1018
16007W        W59101  26.792   0.902  31.775 -0.2149 -0.0384 -0.0735
16008W        W59102  28.374   0.260  30.409  0.0507 -0.0779  0.4001
16009W        W59103  27.633   3.023  30.999  0.1963 -0.1819  0.3074
16010W        W59104  27.020   3.531   0.389  0.2052 -0.0207  0.1842
16011W        W59105  27.978   4.693  31.358  0.3276  0.0357 -0.1809
16012W        W59106  26.418   2.420   0.094 -0.0492  0.4772 -0.0006
16013W        W59107  25.211   1.457  30.768 -0.1027  0.0071 -0.0071
16014W        W59108  27.478   1.503   0.490  0.3169 -0.1892 -0.0857
16015W        W59109  25.114   2.479  30.457  0.1605  0.1417 -0.3796
16016W        W59110  25.075   0.463  31.390  0.1252 -0.0623 -0.1457
16017W        W59111  29.097   3.842  30.095 -0.1543 -0.1785  0.0615
16018W        W59112  28.610   1.942  30.298 -0.1895 -0.1501 -0.1079
16019W        W59113  28.199   1.029  31.542 -0.0652 -0.1101  0.3564
16020W        W59114  26.393   4.564  19.413  0.2886 -0.4425 -0.0314
16021W        W59115  26.916   3.719  16.844  0.3399 -0.1893 -0.2845
16022W        W59116  28.441   5.471  16.585  0.0180  0.1213  0.2171
16023W        W59117  28.018   4.689  16.863 -0.0058  0.3779 -0.0866
16024W        W59118  25.547   3.612  17.033  0.0629  0.0682 -0.1286
16025W        W59119  27.508   8.299  18.306  0.0571  0.1770  0.1309
16026W        W59120  28.149   2.939  18.436 -0.0754  0.0885  0.0552
16027W        W59121  27.374   6.191  19.035  0.0134 -0.3037 -0.0760
16028W        W59122  28.329   7.153  18.699  0.0001 -0.0593 -0.1338
16029W        W59123  27.699   5.568  16.038  0.0259 -0.0608  0.3077
16030W        W59124  26.517   3.464  17.959  0.0951 -0.0837  0.0003
16031W        W59125  26.521   5.734  19.531  0.0147 -0.0965  0.1752
16032W        W59126  26.393   4.333  16.503 -0.0033  0.0623 -0.0622
16033W        W59127  25.190   3.588  16.653  0.1108 -0.3035 -0.3523
16034W        W59128  27.065   5.404  19.808 -0.0460 -0.1569  0.1374
16035W        W59129  26.232   5.297  17.187 -0.2263  0.0615  0.0042
16036W        W59130  25.317   3.492  17.496 -0.0041 -0.1152 -0.3415
16037W        W59131  27.343   3.362  16.992  0.1668 -0.0525 -0.1409
16038W        W59132  27.203   7.414  17.779  0.3452  0.1461 -0.1242
16039W        W59133  28.001   3.800  17.819  0.2388  0.0240 -0.2027
16040W        W59134  27.412   4.528  19.367  0.1492 -0.2376 -0.0222
16041W        W59135  28.010   6.119  17.026  0.0297 -0.2526 -0.0750
16042W        W59136  25.091   5.733  17.200  0.0592  0.0574 -0.3013
16043W        W59137  24.531   4.485  17.473 -0.0286  0.0177 -0.1924
16044W        W59138  25.419   4.189  17.531 -0.0632  0.1486 -0.1746
16045W        W59139  28.772   3.680  18.907  0.1049  0.1836  0.0640
16046W        W59140  27.185   4.625  17.482  0.1314 -0.0846  0.0357
16047W        W59141  26.423   7.426  17.314  0.0515  0.0279  0.2041
16048W        W59142  26.709   6.168  17.178 -0.0337  0.0631  0.1906
16049W        W59143  27.080   6.120  19.529  0.0958 -0.0541 -0.2489
16050W        W59144  25.481   5.483  17.015 -0.1329  0.0379  0.0962
16051W        W59145  24.186   7.509  17.168  0.1948 -0.0815  0.0143
16052W        W59146  26.898   6.607  17.171 -0.1937  0.0727 -0.0773
16053W        W59147  28.318   5.848  18.019  0.1714  0.0456  0.0455
16054W        W59148  28.296   6.815  19.044 -0.1567  0.0201  0.0202
16055W        W59149  25.943   7.228  20.373 -0.0134 -0.3079  0.0410
16056W        W59150  25.687   5.774  16.529  0.0561 -0.3394 -0.0578
16057W        W59151  27.410   6.593  19.322  0.0258 -0.2316  0.1852
16058W        W59152  25.527   7.728  18.177 -0.2095  0.2342 -0.2230
16059W        W59153  26.567   4.674  18.150  0.0255  0.0443  0.0808
16060W        W59154  27.097   5.001  17.181 -0.0769  0.1129  0.1680
16061W        W59155  27.743   6.221  17.442  0.0994 -0.0209  0.0258
16062W        W59156  28.535   4.747  17.122  0.0842  0.1665  0.2181
16063W        W59157  25.828   6.374  20.204  0.0791 -0.0491 -0.0094
16064W        W59158  26.011   7.183  17.130 -0.1996 -0.0556  0.0186
16065W        W59159  28.333   3.434  19.479 -0.0717  0.0238  0.1065
16066W        W59160  26.095   5.458  16.380  0.0507  0.0706 -0.0150
16067W        W59161  28.921   4.667  16.728  0.1128 -0.0264  0.1689
16068W        W59162  24.505   3.413  15.880  0.1488  0.0945  0.0060
16069W        W59163  28.037   5.211  16.702  0.0830 -0.2589  0.1967
16070W        W59164  27.462   2.936  18.005 -0.2906 -0.0306  0.0809
16071W        W59165  27.974   8.090  17.512  0.0039  0.0921  0.1344
16072W        W59166  27.039   3.650  18.663  0.1857 -0.3337  0.3669
16073W        W59167  27.960   5.537  18.745 -0.0892  0.2546 -0.0452
16074W        W59168  27.601   2.954  16.709 -0.1262  0.3063 -0.0198
16075W        W59169  27.727   4.098  18.090 -0.1442  0.0952  0.2296
16076W        W59170  25.598   7.159  17.789  0.1393  0.0160  0.1425
16077W        W59171  26.303   4.839  17.748 -0.2912  0.2019 -0.0522
16078W        W59172  28.356   7.206  16.698 -0.2363 -0.0913  0.1655
16079W        W59173  28.331   7.277  17.844 -0.4957  0.3479 -0.0514
16080W        W59174  27.291   6.375  17.361 -0.2480  0.0249  0.0073
16081W        W59175  26.260   4.888  16.651  0.2269  0.0740 -0.0472
16082W        W59176  26.726   4.578  18.888  0.2381 -0.0893  0.1863
16083W        W59177  26.186   5.194  18.802 -0.0749  0.2412  0.1356
16084W        W59178  25.521   2.859  15.757 -0.2467  0.1733 -0.0191
16085W        W59179  29.040   6.766  20.494  0.2353  0.0370 -0.1731
16086W        W59180  26.458   6.125  18.477  0.0972  0.1336 -0.1598
16087W        W59181  29.896   5.241  18.543  0.3652 -0.1939  0.1069
16088W        W59182  26.095   5.990  18.106  0.0960  0.3682 -0.1138
16089W        W59183  29.232   6.209  19.168  0.1113 -0.1187 -0.0633
16090W        W59184  27.453   5.437  16.894  0.1451 -0.2794  0.1079
16091W        W59185  27.838   2.459  18.271 -0.2551 -0.2974  0.0395
16092W        W59186  29.063   3.007  19.796  0.1152 -0.0883 -0.3065
16093W        W59187  25.645   5.953  17.131 -0.0731 -0.3303 -0.0790
16094W        W59188  27.572   5.257  16.414  0.0477 -0.0744 -0.1365
16095W        W59189  28.562   6.573  19.622 -0.1006  0.0532 -0.0867
16096W        W59190  28.947   5.199  15.894  0.0954 -0.0045  0.1215
16097W        W59191  27.215   6.988  18.475 -0.1937 -0.0249  0.0817
16098W        W59192  27.825   3.324  18.318 -0.1309 -0.0359 -0.1707
16099W        W59193  25.521   7.401  20.264  0.1424 -0.2972 -0.1257
16100W        W59194  26.795   6.682  16.503 -0.0519 -0.1599 -0.0183
16101W        W59195  25.430   4.533  18.466  0.4576 -0.1565  0.1700
16102W        W59196  26.024   4.979  16.225 -0.1157 -0.0120  0.1171
16103W        W59197  26.661   2.700  19.979  0.0931 -0.1121  0.3307
16104W        W59198  25.600   4.778  19.325 -0.1990 -0.0288 -0.0608
16105W        W59199  28.589   3.897  15.955 -0.1060 -0.0833 -0.1139
16106W        W59200  26.413   2.975  18.163  0.1422 -0.2351 -0.1452
16107W        W59201  28.283   3.209  18.034 -0.1474  0.2168  0.1067
16108W        W59202  25.905   5.254  16.787 -0.2938  0.0914 -0.0109
16109W        W59203  28.697   6.212  17.740  0.5003  0.0367  0.0475
16110W        W59204  28.742   4.614  15.628 -0.0060  0.2711  0.0335
16111W        W59205  28.762   6.416  16.438  0.1310  0.2342  0.0448
16112W        W59206  25.951   4.413  18.637  0.3934 -0.1998  0.0504
16113W        W59207  25.468   4.473  17.955 -0.2708 -0.0358 -0.0342
16114W        W59208  27.430   2.589  19.400  0.0596  0.2082 -0.0021
16115W        W59209  26.070   3.985  16.555 -0.0441  0.1541 -0.0760
16116W        W59210  27.529   5.316  18.522  0.1553 -0.1363 -0.2476
16117W        W59211  25.219   4.037  16.567  0.1064 -0.2208  0.2696
16118W        W59212  27.923   4.246  17.525  0.3580 -0.0951 -0.0289
16119W        W59213  27.234   4.486  18.908  0.3909 -0.0974 -0.0568
16120W        W59214  25.343   5.008  16.809  0.0138 -0.1185 -0.1901
16121W        W59215  27.988   3.835  19.359 -0.2269  0.1804  0.0368
16122W        W59216  27.762   7.964  16.664  0.0569  0.0241 -0.0478
16123W        W59217  28.869   7.104  18.362  0.5051 -0.2020 -0.1608
16124W        W59218  28.793   7.886  17.897  0.0123 -0.1909  0.1433
16125W        W59219  26.576   3.456  19.406  0.0948  0.0370  0.0474
16126W        W59220  25.632   3.980  16.196  0.0382  0.0189 -0.0404
16127W        W59221  25.814   7.567  17.431  0.2046  0.0925 -0.1276
16128W        W59222  27.428   5.755  16.458  0.2956 -0.2643 -0.0230
16129W        W59223  26.533   3.769  16.530 -0.1670 -0.1504  0.1082
16130W        W59224  29.430   6.362  17.600  0.0774  0.0929 -0.0559
16131W        W59225  26.928   6.116  17.696 -0.0298 -0.0649 -0.1562
16132W        W59226  26.313   6.873  18.023 -0.0285 -0.3512 -0.0468
16133W        W59227  27.425   3.610  19.296  0.0765 -0.1884  0.1068
16134W        W59228  28.851   5.081  19.478  0.0826  0.3945  0.2048
16135W        W59229  26.961   4.218  17.756 -0.1439  0.0472 -0.0121
16136W        W59230  25.896   3.039  16.446  0.1167 -0.5980 -0.2194
16137W        W59231  27.719   7.594  17.969 -0.1679 -0.0621  0.0625
16138W        W59232  25.907   6.670  16.364 -0.2388 -0.0056  0.0089
16139W        W59233  25.611   4.513  17.107 -0.2447  0.2158 -0.0840
16140W        W59234  27.339   6.908  17.970 -0.0539 -0.4113 -0.0723
16141W        W59235  28.704   2.697  17.311 -0.0136  0.3198  0.4204
16142W        W59236  26.003   4.815  19.022  0.0950  0.0241  0.4229
16143W        W59237  26.380   4.237  18.415 -0.2735 -0.0173  0.2969
16144W        W59238  25.113   4.541  16.850  0.0522 -0.0556  0.1930
16145W        W59239  25.571   6.491  18.791 -0.2063 -0.2118  0.1667
16146W        W59240  26.836   3.008  17.215 -0.3108  0.1391  0.0241
16147W        W59241  28.047   4.319  16.506  0.0758  0.1137 -0.0464
16148W        W59242  25.992   5.678  19.000  0.2750 -0.1105  0.3182
16149W        W59243  29.070   4.720  17.279  0.1019  0.2494  0.0826
16150W        W59244  27.017   4.978  16.117  0.0086  0.1237 -0.1644
16151W        W59245  26.986   4.254  17.189 -0.1452  0.0859  0.0165
16152W        W59246  27.136   5.389  18.888  0.2512  0.4296 -0.4952
16153W        W59247  28.420   6.639  17.649  0.1999  0.1057 -0.0865
16154W        W59248  27.461   6.571  18.391 -0.0877 -0.0021  0.2486
16155W        W59249  27.872   4.806  16.323 -0.3005 -0.0724  0.0663
16156W        W59250  30.661   6.637  17.715  0.0170 -0.2131 -0.2441
16157W        W59251  26.680   5.119  18.657  0.0136 -0.0822  0.0085
16158W        W59252  25.670   5.384  19.430 -0.0556  0.0917  0.3488
16159W        W59253  28.491   5.552  17.637 -0.0446  0.1787  0.0844
16160W        W59254  28.385   4.360  18.546  0.0307  0.2533 -0.1077
16161W        W59255  24.895   4.661  16.371 -0.3191  0.1228 -0.0266
16162W        W59256  26.657   3.566  17.500  0.1732 -0.4774 -0.0829
16163W        W59257  25.514   6.999  16.353 -0.1911 -0.3114 -0.0275
16164W        W59258  29.158   5.306  18.170  0.0425  0.1350  0.2593
16165W        W59259  27.628   2.870  18.457  0.0714 -0.4039 -0.4570
16166W        W59260  27.985   1.474  18.855  0.1323  0.1767 -0.0870
16167W        W59261  27.864   5.814  19.183  0.0690  0.0681 -0.0795
16168W        W59262  27.882   5.701  16.688 -0.1666  0.1182  0.2970
16169W        W59263  28.339   4.964  18.629 -0.2786 -0.0731 -0.0864
16170W        W59264  24.751   5.836  17.921  0.2075 -0.1231  0.1984
16171W        W59265  28.895   3.126  18.658  0.0521 -0.1834 -0.0702
16172W        W59266  26.293   4.744  18.604 -0.0918 -0.0953  0.1224
16173W        W59267  26.011   7.516  18.432 -0.2775  0.0173  0.1090
16174W        W59268  28.382   6.923  20.530  0.0593 -0.1617  0.4444
16175W        W59269  28.718   5.989  16.937 -0.3334  0.1574  0.1548
16176W        W59270  26.637   3.977  18.107 -0.2137  0.1248 -0.1199
16177W        W59271  27.335   3.608  16.534 -0.0978  0.0663  0.2913
16178W        W59272  27.513   6.302  16.464  0.0361  0.2253  0.0244
16179W        W59273  26.487   5.681  17.196 -0.2065 -0.4054 -0.0552
16180W        W59274  24.431   2.640  17.602  0.0251  0.1451 -0.2322
16181W        W59275  28.386   6.359  18.174 -0.0873 -0.2375 -0.2012
16182W        W59276  25.886   6.214  16.724 -0.2515 -0.0913  0.1806
16183W        W59277  28.328   5.805  19.043  0.0891  0.0002 -0.2293
16184W        W59278  26.026   6.671  17.318  0.1871  0.1759  0.0260
16185W        W59279  27.759   3.735  18.929  0.1536  0.0819  0.0721
16186W        W59280  25.892   6.489  18.266 -0.0178  0.2117  0.0224
16187W        W59281  25.390   3.131  16.635  0.0551  0.0552 -0.0973
16188W        W59282  26.059   4.603  18.148 -0.0542  0.0538 -0.1985
16189W        W59283  28.170   2.951  17.464 -0.0896  0.1453  0.3770
16190W        W59284  28.074   5.279  17.336  0.0859  0.0750  0.2686
16191W        W59285  26.790   3.246  18.394 -0.0158 -0.3572  0.2220
16192W        W59286  27.456   2.353  18.601 -0.0776 -0.1034 -0.0531
16193W        W59287  25.541   6.303  18.000  0.1822 -0.0593  0.4246
16194W        W59288  27.848   6.106  18.656  0.1675  0.0507  0.0499
16195W        W59289  28.391   4.523  17.570 -0.0661 -0.1130 -0.0808
16196W        W59290  25.273   7.733  19.844  0.1681 -0.4472  0.1151
16197W        W59291  26.901   4.613  19.380  0.2625  0.1294 -0.3106
16198W        W59292  24.394   3.899  17.028 -0.1811 -0.2248  0.2597
16199W        W59293  29.607   4.633  19.906 -0.0777 -0.0931  0.3231
16200W        W59294  25.694   3.587  18.270 -0.1167 -0.2010  0.0159
16201W        W59295  25.832   6.639  17.794 -0.2158 -0.1712 -0.1256
16202W        W59296  27.736   7.192  19.777 -0.0682 -0.1068  0.0258
16203W        W59297  26.247   3.914  16.067  0.1198 -0.0179 -0.0101
16204W        W59298  26.377   5.385  17.699 -0.2418  0.1352  0.0439
16205W        W59299  27.670   2.180  19.109  0.1357 -0.0780 -0.2645
16206W        W59300  28.787   6.124  18.245  0.2798  0.0951 -0.0851
16207W        W59301  26.394   4.330  17.785  0.2414 -0.0406  0.1079
16208W        W59302  26.585   4.022  17.405 -0.0206  0.0356 -0.2372
16209W        W59303  27.959   4.580  18.465 -0.0785 -0.1679 -0.2225
16210W        W59304  27.973   6.533  17.909  0.0695  0.4138  0.4484
16211W        W59305  27.145   4.051  18.271  0.2473 -0.0078  0.0475
16212W        W59306  25.331   7.057  20.637  0.4441 -0.0738 -0.3832
16213W        W59307  26.740   2.526  18.248 -0.0708 -0.0719  0.0103
16214W        W59308  29.472   7.485  17.339 -0.5643 -0.1688 -0.0691
16215W        W59309  27.073   6.592  19.660  0.0593  0.0599 -0.1834
16216W        W59310  26.906   5.393  16.969 -0.0824  0.1398 -0.3620
16217W        W59311  25.323   4.920  17.749 -0.0719 -0.1197 -0.2926
16218W        W59312  26.171   5.953  16.391 -0.0534 -0.0003  0.0290
16219W        W59313  27.874   4.578  17.903 -0.0900  0.1398 -0.2016
16220W        W59314  26.937   7.234  18.127 -0.0176  0.4597  0.0439
16221W        W59315  25.860   7.054  18.180 -0.3127 -0.0015 -0.0754
16222W        W59316  26.560   5.573  19.053 -0.0592 -0.1279  0.0718
16223W        W59317  28.797   3.599  17.689 -0.1769  0.2463  0.1687
16224W        W59318  28.335   5.982  16.607 -0.2588 -0.0656 -0.0384
16225W        W59319  28.908   5.032  18.521 -0.2162  0.1091 -0.0624
16226W        W59320  29.346   4.648  19.396 -0.1747  0.2096 -0.3010
16227W        W59321  27.792   5.724  17.337 -0.1903  0.6043  0.1889
16228W        W59322  28.591   4.942  19.083  0.0288  0.0645 -0.1875
16229W        W59323  28.085   4.337  19.590  0.2750 -0.0136 -0.1361
16230W        W59324  27.974   7.155  17.238 -0.0777  0.0864 -0.0375
16231W        W59325  26.269   4.320  19.005  0.0393  0.0564 -0.1364
16232W        W59326  27.761   6.868  20.268  0.1160  0.3094 -0.0035
16233W        W59327  25.061   4.880  19.343 -0.1197 -0.1135  0.0471
16234W        W59328  27.426   3.909  16.915 -0.2512 -0.1821  0.1520
16235W        W59329  26.037   2.602  15.519  0.0932 -0.3912  0.0346
16236W        W59330  27.468   5.852  17.685  0.0141 -0.1903  0.2628
16237W        W59331  27.128   5.835  17.179  0.2779  0.0163 -0.3054
16238W        W59332  27.094   5.194  17.621  0.2001  0.3349 -0.0675
16239W        W59333  28.577   3.782  18.076 -0.2941 -0.0761  0.0786
16240W        W59334  26.143   7.649  19.498 -0.3003 -0.1023 -0.4147
16241W        W59335  29.408   5.505  17.754  0.1779  0.2305 -0.1155
16242W        W59336  27.691   5.362  15.519  0.0267 -0.1604 -0.2774
16243W        W59337  26.248   5.066  18.193  0.3244  0.0798  0.3800
16244W        W59338  27.932   2.812  19.221 -0.1310  0.1108  0.2900
16245W        W59339  27.459   5.764  18.873 -0.0243  0.2383  0.2011
16246W        W59340  29.619   3.132  18.674  0.1651  0.1251 -0.0949
16247W        W59341  27.817   3.258  18.820 -0.1304  0.0935  0.2884
16248W        W59342  26.952   5.890  19.104 -0.3674 -0.1510  0.2818
16249W        W59343  26.071   4.903  19.641  0.1904  0.1754  0.0128
16250W        W59344  26.081   3.836  18.073 -0.1550  0.1489  0.1265
16251W        W59345  29.318   5.816  18.725 -0.0101 -0.0187 -0.0627
16252W        W59346  29.399   5.885  16.781 -0.2609  0.1690  0.1499
16253W        W59347  27.953   3.877  19.871 -0.0960  0.0259 -0.2997
16254W        W59348  28.981   5.603  16.748 -0.0015  0.0413 -0.1709
16255W        W59349  27.361   4.780  16.372 -0.1385  0.1231  0.3436
16256W        W59350  26.884   3.007  19.379 -0.1550  0.0144 -0.0892
16257W        W59351  27.624   6.171  19.479  0.0116 -0.1917 -0.0907
16258W        W59352  27.115   2.722  17.669 -0.1968 -0.3021 -0.0061
16259W        W59353  26.836   6.435  19.155  0.0815 -0.1300 -0.2310
16260W        W59354  26.800   7.133  17.511 -0.1800  0.0929  0.0012
16261W        W59355  27.993   6.574  17.262  0.1455  0.0940 -0.0207
16262W        W59356  28.227   4.255  18.023  0.1113 -0.0313  0.0254
16263W        W59357  24.740   3.527  17.894 -0.1301 -0.3357  0.1048
16264W        W59358  26.064   6.580  19.002  0.0968 -0.2554 -0.0840
16265W        W59359  24.707   4.745  17.054 -0.1063  0.4141 -0.1727
16266W        W59360  26.762   4.691  16.563  0.2089 -0.3992  0.1785
16267W        W59361  28.305   7.050  19.614  0.3492  0.0117  0.0854
16268W        W59362  28.000   5.896  19.703  0.0689  0.0261 -0.0357
16269W        W59363  26.759   4.003  16.158 -0.4062  0.0932 -0.1663
16270W        W59364  27.812   4.869  19.382 -0.0564 -0.1019  0.0412
16271W        W59365  25.096   5.523  16.716  0.0911  0.0325  0.0826
16272W        W59366  27.633   2.380  17.686 -0.0183  0.0129 -0.1827
16273W        W59367  27.619   7.837  17.135  0.2876  0.2105 -0.0475
16274W        W59368  25.293   6.186  18.508  0.1000 -0.0003  0.1949
16275W        W59369  27.093   5.562  18.047  0.1469  0.1971 -0.4164
16276W        W59370  27.651   3.765  18.443 -0.0964  0.1315  0.2007
16277W        W59371  28.005   4.743  17.380 -0.0498  0.0761 -0.1600
16278W        W59372  27.841   6.045  17.964 -0.1177  0.2524 -0.3854
16279W        W59373  28.864   5.800  19.069  0.2715 -0.2459 -0.0784
16280W        W59374  27.880   7.072  18.861  0.0559 -0.0194 -0.1977
16281W        W59375  25.047   5.096  17.210  0.1379  0.3694 -0.0790
16282W        W59376  27.200   6.666  18.843 -0.1001  0.1699 -0.3853
16283W        W59377  28.723   5.844  17.384 -0.0389 -0.1757  0.0053
16284W        W59378  26.569   4.581  17.321 -0.1750 -0.2302 -0.0914
16285W        W59379  26.509   5.120  19.665  0.1572 -0.1349 -0.1131
16286W        W59380  26.765   4.088  18.702 -0.1148 -0.3457 -0.2761
16287W        W59381  27.608   4.881  18.193 -0.0642  0.1761  0.2506
16288W        W59382  25.673   4.129  18.256 -0.0216 -0.0436 -0.1853
16289W        W59383  28.124   7.072  16.128 -0.0330 -0.0203  0.0820
16290W        W59384  26.488   7.173  19.259  0.2026 -0.2062 -0.0349
16291W        W59385  26.013   3.858  18.582 -0.0177 -0.2193  0.2111
16292W        W59386  25.301   6.796  16.953 -0.1016 -0.2152 -0.1095
16293W        W59387  27.456   5.990  15.964 -0.1868 -0.1125  0.2808
16294W        W59388  27.558   4.517  16.725 -0.1304 -0.2694  0.1262
16295W        W59389  28.596   6.627  18.565  0.2132 -0.1758 -0.1214
16296W        W59390  26.390   3.974  16.972  0.2851 -0.0166 -0.1309
16297W        W59391  25.988   7.223  19.317 -0.0890  0.1966 -0.1259
16298W        W59392  25.382   6.605  15.974 -0.2063 -0.0179 -0.1765
16299W        W59393  28.424   6.488  16.771 -0.1918 -0.0079 -0.0125
16300W        W59394  26.504   6.509  17.541  0.0592  0.2779 -0.1747
16301W        W59395  29.054   7.776  20.633 -0.1497  0.1383  0.2111
16302W        W59396  28.764   3.429  16.729  0.1748 -0.1282  0.5180
16303W        W59397  29.206   5.029  16.914 -0.0556 -0.0009  0.0520
16304W        W59398  28.746   4.773  16.215 -0.2418 -0.2701 -0.0431
16305W        W59399  27.283   6.716  20.533 -0.2505  0.0521  0.0681
16306W        W59400  25.267   3.445  18.119  0.1006 -0.1087  0.1940
16307W        W59401  26.398   3.198  15.982  0.1419  0.1317  0.1437
16308W        W59402  26.325   6.026  18.983 -0.0298  0.1699 -0.1317
16309W        W59403  28.388   4.016  20.114 -0.1799  0.4169 -0.0236
16310W        W59404  25.967   8.010  18.532  0.0028 -0.0117 -0.1490
16311W        W59405  28.065   7.403  18.251 -0.1011 -0.0233  0.4155
16312W        W59406  26.232   3.737  17.626  0.0312  0.0109  0.3161
16313W        W59407  25.939   5.132  17.576 -0.1342 -0.0571 -0.0360
16314W        W59408  30.114   4.626  19.708  0.3174  0.4604 -0.0698
16315W        W59409  27.069   6.068  16.299 -0.1859 -0.0693 -0.0200
16316W        W59410  28.302   3.426  17.549  0.3050  0.1826 -0.0602
16317W        W59411  27.143   7.137  16.972  0.0097 -0.0115 -0.1243
16318W        W59412  26.831   6.685  18.542  0.1000  0.1067 -0.1384
16319W        W59413  27.316   7.913  18.654 -0.2141  0.1004  0.0894
16320W        W59414  23.854   3.763  17.140  0.1378 -0.0679 -0.0028
16321W        W59415  28.786   5.151  16.621 -0.0859 -0.2313  0.1705
16322W        W59416  25.332   5.369  18.585  0.1891  0.0008  0.0901
16323W        W59417  29.549   3.573  17.727  0.3098  0.1915  0.0985
16324W        W59418  27.378   4.496  17.953 -0.3046 -0.0945 -0.0129
16325W        W59419  29.198   5.676  17.224  0.1664 -0.5229 -0.0070
16326W        W59420  26.393   5.663  20.915  0.3282  0.3353  0.0268
16327W        W59421  24.967   4.356  17.741 -0.0730  0.5165 -0.0204
16328W        W59422  26.024   5.722  16.950 -0.0873  0.3550 -0.0955
16329W        W59423  28.569   6.010  19.476  0.2773  0.1515  0.1665
16330W        W59424  27.848   6.405  16.051  0.0347 -0.0804  0.3233
16331W        W59425  28.748   7.108  17.715 -0.3163 -0.1510 -0.1304
16332W        W59426  26.599   4.976  16.964 -0.2162  0.0811 -0.0743
16333W        W59427  27.198   4.183  16.627  0.1267  0.1186 -0.3165
16334W        W59428  25.691   5.856  17.792  0.0123 -0.0944  0.1284
16335W        W59429  25.646   3.752  17.748  0.2200  0.1055  0.1848
16336W        W59430  27.777   5.647  18.243 -0.0289  0.0424 -0.2086
16337W        W59431  25.669   3.603  16.538  0.0423  0.2067 -0.1214
16338W        W59432  28.794   5.943  16.449  0.2050 -0.3229  0.0086
16339W        W59433  29.228   3.960  18.186 -0.1488 -0.1404  0.2268
16340W        W59434  27.108   6.379  16.807 -0.0614 -0.0641 -0.2069
16341W        W59435  27.564   4.971  16.916  0.3189 -0.1561 -0.1403
16342W        W59436  28.225   5.992  17.529  0.0136 -0.1437  0.0343
16343W        W59437  25.878   3.991  19.097  0.2045  0.3166 -0.0882
16344W        W59438  27.384   6.251  19.965  0.0706 -0.3985  0.1568
16345W        W59439  29.430   6.298  18.583  0.2026 -0.2301  0.0096
16346W        W59440  25.859   4.218  17.790  0.0002 -0.1653 -0.3145
16347W        W59441  25.798   4.907  18.488  0.4511 -0.0592  0.1197
16348W        W59442  26.454   6.530  16.931 -0.1250 -0.0225  0.1271
16349W        W59443  30.363   4.282  17.157  0.3719  0.0270 -0.0463
16350W        W59444  28.832   4.698  17.751  0.2883  0.0513  0.3443
16351W        W59445  28.066   5.399  17.826 -0.0816 -0.2603  0.2023
16352W        W59446  28.345   4.090  19.144  0.1508 -0.0215  0.5020
16353W        W59447  27.463   7.788  19.184 -0.0154  0.1341 -0.1060
16354W        W59448  24.348   6.420  19.649  0.0519 -0.0447  0.3003
16355W        W59449  25.760   4.768  16.688 -0.3086 -0.4711 -0.2195
16356W        W59450  26.932   6.200  18.720  0.1025  0.0452 -0.1701
16357W        W59451  27.502   4.906  17.709  0.2453  0.0258 -0.2022
16358W        W59452  27.487   6.028  16.951  0.1320 -0.0920  0.0145
16359W        W59453  27.521   7.096  19.224  0.0545  0.0986  0.1864
16360W        W59454  26.151   4.443  16.880  0.0625  0.1342 -0.2611
16361W        W59455  28.398   5.459  18.351  0.0283  0.0376  0.0782
16362W        W59456  27.753   2.017  19.648 -0.2571  0.2696 -0.0859
16363W        W59457  30.079   3.534  17.393 -0.0627 -0.0439 -0.0429
16364W        W59458  27.888   3.321  16.418 -0.2409  0.2917 -0.0574
16365W        W59459  26.475   6.273  19.459 -0.2218  0.0041 -0.3536
16366W        W59460  24.144   6.150  17.118 -0.1032  0.1897 -0.2445
16367W        W59461  26.440   5.424  16.729 -0.1529 -0.2270 -0.0473
16368W        W59462  26.069   7.094  17.609  0.2799 -0.0649  0.2828
16369W        W59463  27.628   4.123  19.621 -0.0038  0.2339  0.4029
16370W        W59464  27.819   4.313  19.142  0.2447  0.0362 -0.2109
16371W        W59465  25.758   4.961  17.990  0.0211 -0.0800 -0.0280
16372W        W59466  25.130   2.969  16.108  0.2149 -0.3289 -0.2209
16373W        W59467  27.965   6.312  16.583  0.0615  0.3105  0.5133
16374W        W59468  26.937   2.235  18.583  0.0187  0.1425 -0.2120
16375W        W59469  25.354   2.112  18.800 -0.2107 -0.0455  0.0170
16376W        W59470  27.606   5.243  17.362 -0.1567  0.0197  0.0258
16377W        W59471  27.429   6.492  17.803 -0.2494 -0.1407 -0.1504
16378W        W59472  27.097   4.629  16.883 -0.1459  0.1806  0.0633
16379W        W59473  29.678   8.131  18.876 -0.3861  0.4073  0.3310
16380W        W59474  24.955   6.395  16.792 -0.2520  0.1419 -0.3170
16381W        W59475  27.139   4.915  18.092  0.2563 -0.1443 -0.2645
16382W        W59476  28.062   2.511  18.787 -0.0934 -0.4410 -0.4137
16383W        W59477  25.018   3.415  15.739  0.0232 -0.1183 -0.0397
16384W        W59478  26.928   6.753  17.907  0.1711 -0.3334  0.1001
16385W        W59479  28.343   7.773  18.704 -0.0167  0.1268 -0.0236
16386W        W59480  28.004   7.567  17.463  0.0633 -0.0408 -0.1465
16387W        W59481  26.724   5.156  18.019  0.4049  0.0279 -0.0823
16388W        W59482  26.984   6.901  19.215  0.0533 -0.0860  0.0934
16389W        W59483  25.111   2.732  17.862 -0.2734  0.0101  0.1878
16390W        W59484  27.570   4.486  17.204  0.1493 -0.2186  0.3355
16391W        W59485  27.538   7.387  17.462  0.0246  0.1112 -0.2778
16392W        W59486  29.460   6.738  17.088  0.0114 -0.1543  0.2964
16393W        W59487  29.295   3.116  19.128 -0.1048  0.4431  0.2284
16394W        W59488  26.639   5.103  17.408 -0.0005 -0.2178  0.1276
16395W        W59489  27.881   1.654  19.964  0.4537 -0.4508  0.1611
16396W        W59490  24.880   5.793  19.307  0.1153 -0.2966 -0.3399
16397W        W59491  28.531   5.359  18.836 -0.0649  0.0776  0.0411
16398W        W59492  25.872   2.693  17.139  0.0389 -0.2331  0.1635
16399W        W59493  26.627   2.562  17.781 -0.1918  0.0616 -0.2044
16400W        W59494  28.742   6.385  15.910  0.0614 -0.2504  0.0152
16401W        W59495  25.696   4.684  17.556 -0.0099 -0.1098 -0.1369
16402W        W59496  26.744   4.197  16.811 -0.1891 -0.2116 -0.0725
16403W        W59497  27.724   4.626  20.400  0.0925  0.0927 -0.1414
16404W        W59498  27.782   7.003  18.367  0.0034 -0.0138 -0.1385
16405W        W59499  28.766   4.800  19.892  0.0305  0.1284  0.1601
16406W        W59500  27.454   4.159  17.587 -0.0402 -0.1510 -0.0185
16407W        W59501  28.921   6.635  16.922 -0.0258  0.2112  0.3103
16408W        W59502  28.129   6.348  19.495 -0.3518  0.1119 -0.0459
16409W        W59503  29.617   8.421  19.293 -0.1551 -0.1852  0.2633
16410W        W59504  26.307   7.247  19.745  0.2151 -0.0835 -0.1737
16411W        W59505  28.888   5.670  17.893 -0.1277  0.2007  0.2222
16412W        W59506  24.034   3.394  18.458  0.0510  0.0380  0.0370
16413W        W59507  27.169   3.850  17.325 -0.0647 -0.0717 -0.2152
16414W        W59508  27.550   5.369  17.848  0.1710  0.4979 -0.2087
16415W        W59509  28.019   5.171  18.320  0.0768 -0.0430 -0.1319
16416W        W59510  26.198   2.549  18.153  0.1054 -0.1759  0.0635
16417W        W59511  28.369   3.295  16.452 -0.1028  0.0351 -0.2400
16418W        W59512  25.735   6.180  19.169  0.0567 -0.0567  0.1978
16419W        W59513  26.124   5.310  19.268  0.1080 -0.1941 -0.1958
16420W        W59514  25.958   5.022  22.936 -0.2282  0.1010  0.0883
16421W        W59515  25.757   5.309  20.106 -0.0981 -0.1743  0.1720
16422W        W59516  27.751   4.913  18.884  0.4475 -0.2316  0.0240
16423W        W59517  28.200   4.770  21.207 -0.1695  0.1599  0.0111
16424W        W59518  24.968   4.121  20.794  0.1083  0.2366  0.2121
16425W        W59519  27.689   6.337  20.415  0.0154  0.1047  0.0974
16426W        W59520  24.429   4.413  23.330 -0.0128  0.0831  0.1733
16427W        W59521  27.193   7.371  21.955 -0.1187 -0.1065  0.2077
16428W        W59522  28.849   6.480  21.776  0.1241  0.0294  0.1651
16429W        W59523  26.968   4.506  18.406 -0.0310  0.2079 -0.1871
16430W        W59524  26.206   5.145  20.146 -0.0189 -0.1334 -0.1757
16431W        W59525  25.382   6.688  22.759  0.1599  0.5876 -0.1014
16432W        W59526  26.979   5.077  20.277  0.0420 -0.0587  0.0733
16433W        W59527  24.272   2.800  22.297  0.1160  0.0401 -0.1399
16434W        W59528  28.181   6.438  21.581 -0.1519  0.2505 -0.0599
16435W        W59529  27.190   5.564  20.232  0.0611  0.0163 -0.3978
16436W        W59530  27.049   4.709  22.250 -0.0279  0.0937  0.0239
16437W        W59531  26.893   6.039  20.925  0.3473 -0.0717  0.0408
16438W        W59532  28.233   7.628  21.072 -0.1303  0.2197 -0.3297
16439W        W59533  26.498   3.898  22.970 -0.2643  0.0153  0.0433
16440W        W59534  27.287   3.922  22.883 -0.2012  0.1616 -0.1832
16441W        W59535  25.869   5.666  22.395  0.2431  0.2200 -0.2326
16442W        W59536  25.962   4.472  20.776 -0.1921 -0.0925  0.0225
16443W        W59537  24.499   3.961  21.982  0.0950 -0.1062 -0.1410
16444W        W59538  26.851   5.326  21.589  0.0092  0.1094 -0.0471
16445W        W59539  27.549   4.523  21.859  0.0365 -0.1837  0.0767
16446W        W59540  27.719   4.689  22.795  0.2338 -0.1414  0.2275
16447W        W59541  27.070   5.488  23.425  0.2867  0.0694  0.1776
16448W        W59542  27.357   6.542  23.597 -0.1556 -0.3675  0.0237
16449W        W59543  27.957   5.400  22.338 -0.0568 -0.2843  0.2508
16450W        W59544  26.044   4.921  21.422  0.0219 -0.1713 -0.2691
16451W        W59545  25.862   7.639  21.077 -0.1063  0.1622  0.2917
16452W        W59546  27.873   6.745  21.355  0.0471  0.0126  0.1805
16453W        W59547  27.476   7.137  21.061  0.0681 -0.1621  0.1329
16454W        W59548  26.549   5.739  23.421  0.1373  0.2282 -0.4210
16455W        W59549  25.273   6.695  24.031  0.0055  0.0896 -0.1129
16456W        W59550  26.240   8.026  20.073  0.1032  0.0276  0.0513
16457W        W59551  26.150   6.138  22.725 -0.0443 -0.1337 -0.2369
16458W        W59552  26.170   4.688  22.465  0.2642  0.1619  0.1918
16459W        W59553  27.155   6.071  21.864  0.3372  0.0384 -0.1201
16460W        W59554  26.427   5.182  20.769 -0.1622 -0.2414  0.0009
16461W        W59555  26.820   7.631  20.564  0.0135  0.1421 -0.2448
16462W        W59556  25.915   5.706  20.870  0.0161  0.1915  0.0538
16463W        W59557  25.073   5.566  23.599 -0.0242  0.0053 -0.0973
16464W        W59558  24.972   6.411  21.771  0.1446  0.5018  0.0829
16465W        W59559  29.596   5.647  24.195 -0.1791  0.3133  0.1850
16466W        W59560  26.073   8.430  19.695  0.0527  0.0309  0.0077
16467W        W59561  28.779   4.881  20.622  0.2215  0.2383 -0.2008
16468W        W59562  27.613   4.235  20.111  0.3750  0.2796  0.0441
16469W        W59563  27.088   3.982  20.265 -0.3306 -0.1299  0.1953
16470W        W59564  25.732   4.034  23.077  0.0850 -0.1931  0.3785
16471W        W59565  27.621   7.110  23.030 -0.1517 -0.1378 -0.2476
16472W        W59566  25.130   4.005  22.744  0.0514 -0.1390 -0.0169
16473W        W59567  28.034   6.910  23.279 -0.2293 -0.2352  0.2412
16474W        W59568  26.409   6.397  20.133  0.2004 -0.2151 -0.0782
16475W        W59569  27.033   3.348  22.203  0.0247 -0.1094 -0.0524
16476W        W59570  25.378   7.046  23.675 -0.3114  0.0911  0.0882
16477W        W59571  24.840   3.574  21.122  0.1325  0.2935 -0.3161
16478W        W59572  28.469   8.003  20.691 -0.1683 -0.2397  0.0279
16479W        W59573  29.781   7.308  20.331 -0.2296 -0.1825  0.0055
16480W        W59574  27.864   5.624  20.748  0.1251  0.1516 -0.2590
16481W        W59575  25.299   5.650  20.168 -0.1039  0.1884  0.1923
16482W        W59576  26.057   7.434  22.751 -0.1423 -0.2227 -0.0814
16483W        W59577  24.075   5.561  22.283 -0.1557 -0.0524 -0.3642
16484W        W59578  27.274   3.292  18.894 -0.1061 -0.0580  0.0779
16485W        W59579  27.688   5.087  23.274 -0.2912  0.3916  0.0661
16486W        W59580  24.415   7.264  22.515 -0.2950 -0.0526  0.0493
16487W        W59581  27.948   3.652  22.186 -0.0767 -0.0246 -0.0162
16488W        W59582  26.778   5.611  22.480 -0.0874  0.0874 -0.2520
16489W        W59583  26.640   6.335  23.108  0.1539  0.5147 -0.0773
16490W        W59584  27.920   7.116  20.804  0.2995  0.1508  0.4467
16491W        W59585  27.776   3.780  23.139 -0.2394 -0.2311  0.2321
16492W        W59586  26.207   3.629  21.908 -0.1086  0.1175 -0.0582
16493W        W59587  25.545   5.468  20.608 -0.0964 -0.2372  0.1005
16494W        W59588  25.072   5.931  19.791 -0.0799  0.1327 -0.3208
16495W        W59589  28.843   6.171  21.080  0.0971 -0.1436 -0.1563
16496W        W59590  30.360   4.764  19.256  0.0058 -0.0005 -0.3708
16497W        W59591  24.651   8.212  22.086 -0.1124 -0.1603 -0.2188
16498W        W59592  25.309   5.073  22.394  0.6091 -0.0717 -0.0171
16499W        W59593  25.895   7.996  23.874 -0.1701  0.0994  0.0235
16500W        W59594  25.491   6.666  19.869 -0.1669 -0.0339  0.1529
16501W        W59595  26.024   7.182  21.323  0.0338  0.2209  0.1291
16502W        W59596  25.469   4.606  20.702 -0.1648 -0.0001 -0.0004
16503W        W59597  26.438   3.754  21.032 -0.3866 -0.3788  0.2320
16504W        W59598  25.904   5.226  21.932 -0.0193 -0.1974  0.1278
16505W        W59599  27.340   4.211  21.029 -0.2672 -0.1249 -0.1430
16506W        W59600  25.046   4.085  22.207 -0.4472  0.1864  0.0359
16507W        W59601  28.809   4.408  21.447  0.3431  0.0849 -0.0284
16508W        W59602  24.945   5.925  21.275 -0.0127 -0.1280  0.0754
16509W        W59603  29.002   7.049  21.563 -0.2021  0.0684  0.0651
16510W        W59604  27.533   5.294  20.578 -0.0073 -0.0483 -0.4725
16511W        W59605  28.233   5.448  20.153 -0.0435  0.1612 -0.0851
16512W        W59606  25.346   6.151  21.589 -0.2526 -0.1169  0.2982
16513W        W59607  25.914   4.382  19.382 -0.1240  0.0381  0.0607
16514W        W59608  26.077   4.741  23.735  0.1384  0.0880  0.3356
16515W        W59609  26.450   3.640  22.358  0.0045  0.1506 -0.0911
16516W        W59610  27.446   6.928  21.995  0.2514  0.0337  0.1465
16517W        W59611  26.627   4.148  19.227  0.0058 -0.3605  0.4300
16518W        W59612  28.435   5.060  22.091  0.0073 -0.0404 -0.1456
16519W        W59613  26.723   4.743  20.735  0.0282 -0.0425  0.1160
16520W        W59614  25.604   4.846  21.089 -0.1676  0.0204 -0.2209
16521W        W59615  28.590   4.604  23.114  0.1929  0.0520 -0.0820
16522W        W59616  26.503   7.138  21.387 -0.1126 -0.0970  0.0545
16523W        W59617  30.075   6.787  22.545 -0.1373 -0.1244 -0.0936
16524W        W59618  28.692   7.905  21.133  0.1596  0.1049 -0.0369
16525W        W59619  26.087   4.305  21.975  0.2012  0.2504 -0.4282
16526W        W59620  27.383   4.045  18.839  0.2163  0.1160  0.0559
16527W        W59621  26.740   6.795  22.893 -0.3069 -0.0039  0.3883
16528W        W59622  25.910   7.553  22.256 -0.1667 -0.1075  0.1522
16529W        W59623  26.911   4.332  20.644 -0.0579 -0.1682  0.0414
16530W        W59624  30.225   6.467  20.536  0.0375 -0.2415 -0.1011
16531W        W59625  27.319   7.662  21.369  0.0432  0.2062  0.2656
16532W        W59626  23.923   7.254  22.664 -0.0007  0.0631  0.2195
16533W        W59627  29.010   4.847  21.316 -0.2565  0.1950  0.2838
16534W        W59628  28.353   5.654  22.654 -0.1857 -0.2481 -0.1052
16535W        W59629  26.807   6.634  21.371 -0.0443 -0.0397 -0.2021
16536W        W59630  26.195   3.223  19.122  0.1594  0.1252  0.2692
16537W        W59631  26.951   7.111  21.601  0.1537 -0.2138  0.1664
16538W        W59632  25.990   8.084  20.756 -0.0601  0.2254 -0.6135
16539W        W59633  24.745   5.354  21.821  0.0780  0.0189 -0.1897
16540W        W59634  26.168   7.130  22.287  0.3096  0.0018  0.1393
16541W        W59635  29.441   3.136  20.319  0.1246  0.0188 -0.2754
16542W        W59636  25.620   6.518  23.609 -0.1689  0.0454  0.0804
16543W        W59637  27.334   3.445  22.716  0.1013 -0.1073  0.0383
16544W        W59638  26.561   5.479  19.977  0.2434  0.1637 -0.0281
16545W        W59639  23.411   7.775  21.679 -0.0862 -0.1468 -0.0936
16546W        W59640  26.692   3.505  21.860  0.1590 -0.3251 -0.1538
16547W        W59641  28.116   4.654  21.869 -0.3853 -0.0137 -0.3770
16548W        W59642  27.782   6.653  22.404 -0.1306  0.1610  0.2691
16549W        W59643  28.090   6.572  20.844 -0.1170 -0.1159  0.1997
16550W        W59644  28.119   5.157  19.114  0.0134 -0.1378 -0.0321
16551W        W59645  28.140   4.659  18.996  0.0745  0.0021  0.1679
16552W        W59646  26.373   5.368  22.681 -0.1814  0.1587  0.0275
16553W        W59647  26.367   6.207  20.974 -0.2707 -0.0564  0.2114
16554W        W59648  25.668   6.234  22.480 -0.0092  0.1693  0.1830
16555W        W59649  27.626   5.360  19.144 -0.1961 -0.3039  0.1053
16556W        W59650  28.365   7.012  21.051 -0.2501 -0.0606 -0.2678
16557W        W59651  25.207   6.349  21.143  0.2281  0.1145 -0.1581
16558W        W59652  26.948   6.715  23.915  0.4081 -0.1507 -0.2579
16559W        W59653  27.187   6.576  21.785  0.2711  0.1444  0.0808
16560W        W59654  26.320   3.240  21.595 -0.2166 -0.4869  0.0355
16561W        W59655  25.662   5.742  19.814  0.0435  0.3295  0.0403
16562W        W59656  27.932   4.769  19.949  0.1397  0.2762  0.1501
16563W        W59657  25.843   7.982  19.684 -0.3438 -0.0538  0.2214
16564W        W59658  29.498   5.290  22.555  0.0918 -0.1329  0.0332
16565W        W59659  26.289   3.480  22.828  0.1907 -0.2203  0.2213
16566W        W59660  27.648   5.157  22.722  0.3309  0.3073 -0.0649
16567W        W59661  27.968   5.475  22.984 -0.3964  0.1163  0.0542
16568W        W59662  28.083   5.981  20.265 -0.1564 -0.1802  0.2855
16569W        W59663  27.181   4.905  21.798 -0.2109  0.1322  0.1608
16570W        W59664  27.339   5.738  19.388  0.0104 -0.0394 -0.0555
16571W        W59665  26.073   3.907  22.715 -0.0831  0.0388 -0.0579
16572W        W59666  25.352   5.754  22.480 -0.3087  0.0159 -0.0335
16573W        W59667  25.917   8.949  23.989 -0.2327 -0.0343  0.2486
16574W        W59668  26.803   6.261  22.638  0.1834 -0.1275  0.1622
16575W        W59669  27.285   5.755  20.805 -0.3087  0.1486  0.2297
16576W        W59670  27.173   3.285  23.727 -0.1123  0.0999  0.1432
16577W        W59671  27.186   4.689  20.527  0.2541 -0.0900 -0.0478
16578W        W59672  25.493   7.230  21.343  0.3454  0.0454  0.3171
16579W        W59673  27.112   6.564  20.976 -0.2109  0.0661  0.1845
16580W        W59674  26.920   4.022  23.231 -0.0725  0.0070  0.2658
16581W        W59675  26.297   7.417  21.824  0.0749 -0.2458 -0.0923
16582W        W59676  26.411   8.082  19.524  0.1708  0.1122 -0.0786
16583W        W59677  27.442   5.391  22.300  0.0161 -0.0334  0.0301
16584W        W59678  27.281   8.007  19.959 -0.1751 -0.3720 -0.0374
16585W        W59679  27.756   3.170  21.693 -0.0957 -0.0377  0.0760
16586W        W59680  25.300   7.533  20.845 -0.0993 -0.0935  0.0035
16587W        W59681  24.613   4.696  19.705 -0.0991 -0.0176  0.2151
16588W        W59682  26.419   3.949  20.110 -0.0746  0.3542 -0.1860
16589W        W59683  27.984   3.377  20.669  0.0752  0.0850 -0.2742
16590W        W59684  27.336   7.000  20.075  0.3291 -0.1272 -0.3524
16591W        W59685  25.616   4.760  22.653 -0.0379 -0.0990 -0.2236
16592W        W59686  26.697   4.474  23.033  0.2184  0.1393  0.3272
16593W        W59687  25.904   6.685  21.298 -0.0798 -0.1297  0.0434
16594W        W59688  27.529   4.778  22.353  0.1324  0.1711 -0.0242
16595W        W59689  27.113   3.449  19.589 -0.2735  0.0160 -0.2905
16596W        W59690  28.047   6.558  22.911 -0.0840  0.1691  0.1336
16597W        W59691  26.280   5.522  22.193  0.1524 -0.0267  0.1361
16598W        W59692  26.125   3.761  20.452 -0.1011 -0.0521  0.0125
16599W        W59693  28.545   5.782  22.009  0.0188 -0.1497  0.2837
16600W        W59694  26.167   5.484  20.494  0.4373  0.1737 -0.1157
16601W        W59695  27.668   5.767  21.207 -0.3844  0.4205 -0.1685
16602W        W59696  27.412   6.214  24.496 -0.0945 -0.0370 -0.0013
16603W        W59697  25.986   5.131  20.995  0.3746 -0.0633 -0.0003
16604W        W59698  25.583   5.365  21.158  0.0478  0.1684 -0.0747
16605W        W59699  26.622   4.478  24.097  0.1463  0.0114  0.1551
16606W        W59700  28.465   5.623  21.554 -0.2401 -0.2689  0.0235
16607W        W59701  26.013   2.897  20.554 -0.2382 -0.0382  0.3216
16608W        W59702  25.746   5.801  20.287 -0.0901 -0.2318  0.0738
16609W        W59703  26.979   5.007  21.201 -0.2530 -0.0953  0.2031
16610W        W59704  28.027   6.068  23.042 -0.0372 -0.1603 -0.0633
16611W        W59705  27.930   4.378  22.298  0.1942  0.0049 -0.0367
16612W        W59706  25.504   7.474  25.220  0.2174  0.0590  0.3134
16613W        W59707  25.696   3.059  21.027 -0.2198  0.2895  0.2501
16614W        W59708  28.968   7.464  19.877  0.2028  0.0357 -0.0346
16615W        W59709  27.180   3.810  22.368 -0.1031 -0.1378 -0.0556
16616W        W59710  25.688   5.683  21.606 -0.1967 -0.2006 -0.0100
16617W        W59711  25.233   5.509  21.510  0.1523  0.1094 -0.1564
16618W        W59712  23.978   4.947  20.941 -0.1784  0.1808 -0.0544
16619W        W59713  26.502   3.905  21.530 -0.3139 -0.2297 -0.0191
16620W        W59714  24.115   6.367  22.406 -0.3035 -0.0182 -0.0374
16621W        W59715  25.453   5.866  21.208 -0.0901 -0.1614  0.0573
16622W        W59716  24.080   6.042  21.905  0.0552 -0.3533  0.0912
16623W        W59717  28.707   2.962  18.130 -0.0713  0.2863 -0.1767
16624W        W59718  26.194   6.494  20.554 -0.0232  0.2974  0.0893
16625W        W59719  26.214   4.814  20.498 -0.1091  0.1784 -0.1770
16626W        W59720  30.273   3.507  22.897  0.0890 -0.0659  0.3139
16627W        W59721  27.513   5.113  20.144  0.0090 -0.1465 -0.0929
16628W        W59722  28.786   4.674  23.808 -0.0698 -0.3215 -0.2949
16629W        W59723  26.689   4.324  23.624 -0.1047 -0.1992 -0.3302
16630W        W59724  27.386   5.338  21.158 -0.0716 -0.1212  0.3713
16631W        W59725  24.107   5.898  22.664  0.1165  0.0265  0.0057
16632W        W59726  26.760   6.251  23.601  0.2447  0.2370  0.1345
16633W        W59727  24.396   6.806  22.821 -0.0974 -0.1002  0.1512
16634W        W59728  25.907   3.964  21.676  0.1277  0.4900 -0.1522
16635W        W59729  27.436   3.108  19.342 -0.1686 -0.0780  0.4299
16636W        W59730  26.577   4.466  22.023 -0.0591  0.0591  0.2467
16637W        W59731  27.862   6.265  19.951  0.2580  0.0534  0.1081
16638W        W59732  26.062   5.438  19.730 -0.0423 -0.0344  0.2777
16639W        W59733  27.449   6.231  20.820 -0.0106 -0.0704  0.2444
16640W        W59734  24.525   6.048  21.670 -0.1479  0.1586  0.0346
16641W        W59735  28.503   6.553  21.251  0.0863  0.1769  0.0679
16642W        W59736  28.380   5.118  19.767 -0.2229 -0.5258 -0.0546
16643W        W59737  26.569   5.915  22.834  0.1718  0.1190  0.4591
16644W        W59738  25.773   4.314  22.561 -0.0130  0.1581  0.1032
16645W        W59739  26.735   7.178  22.098 -0.1153 -0.1859  0.1745
16646W        W59740  27.402   4.114  21.483  0.1010 -0.1149  0.1010
16647W        W59741  28.195   4.492  22.833 -0.0886  0.0723 -0.0515
16648W        W59742  28.043   5.931  21.555  0.4024 -0.0735  0.1521
16649W        W59743  26.830   5.108  22.612 -0.0315 -0.1122 -0.0103
16650W        W59744  26.745   5.436  22.989 -0.1377 -0.2233 -0.0016
16651W        W59745  27.780   7.407  22.044 -0.0616  0.1309 -0.0700
16652W        W59746  27.459   5.233  19.638 -0.0176 -0.1663  0.0329
16653W        W59747  29.324   4.780  22.720 -0.1517  0.3965  0.2787
16654W        W59748  28.497   6.162  20.639 -0.0895  0.0704  0.0866
16655W        W59749  27.219   4.954  18.598  0.0144  0.0602  0.1950
16656W        W59750  26.425   4.393  21.499  0.1182 -0.0810  0.0518
16657W        W59751  27.419   4.639  24.320  0.4322  0.2768 -0.0134
16658W        W59752  26.425   4.399  20.440  0.0607  0.0139  0.1998
16659W        W59753  28.955   4.610  24.328 -0.0083 -0.0986  0.1748
16660W        W59754  26.863   7.587  21.082 -0.3904  0.1451 -0.0740
16661W        W59755  27.589   6.702  20.897  0.0467  0.2910 -0.1027
16662W        W59756  27.399   4.195  20.553  0.0518 -0.4576 -0.2711
16663W        W59757  24.014   5.664  21.532 -0.0299  0.0244  0.0873
16664W        W59758  26.352   6.719  21.012  0.0729 -0.0561 -0.2835
16665W        W59759  26.949   5.426  19.349  0.1192 -0.0624  0.0532
16666W        W59760  26.548   5.955  20.367 -0.4466  0.0046  0.2190
16667W        W59761  27.524   7.273  21.560 -0.0520 -0.1536 -0.1574
16668W        W59762  28.042   5.783  23.484  0.0462  0.0657  0.4967
16669W        W59763  26.914   3.982  21.186 -0.2806 -0.1703  0.2547
16670W        W59764  27.895   4.608  24.059  0.2074  0.2413  0.0321
16671W        W59765  26.190   5.815  21.787 -0.1416 -0.4857 -0.1106
16672W        W59766  27.969   2.942  22.734 -0.3738 -0.0379 -0.0809
16673W        W59767  25.530   8.248  20.538 -0.0526  0.2554 -0.1344
16674W        W59768  24.327   4.714  22.405 -0.2553 -0.2225 -0.3532
16675W        W59769  25.375   7.914  22.514 -0.2165 -0.1019  0.2533
16676W        W59770  27.893   3.411  22.621  0.0000  0.1068 -0.0324
16677W        W59771  27.766   3.734  21.681 -0.1708  0.2042  0.1216
16678W        W59772  27.227   3.760  21.834  0.3139  0.1184  0.3899
16679W        W59773  28.477   6.241  22.119  0.1967  0.2961  0.0556
16680W        W59774  26.408   6.651  22.510  0.2403 -0.1631  0.1486
16681W        W59775  25.813   6.239  21.534  0.1940 -0.0847  0.1273
16682W        W59776  27.310   5.059  23.668  0.3350 -0.0776 -0.0309
16683W        W59777  27.786   6.277  21.295  0.0152 -0.3010 -0.2295
16684W        W59778  26.387   6.993  20.590  0.3283 -0.0835  0.1173
16685W        W59779  25.662   4.867  22.074 -0.2151 -0.2669 -0.0259
16686W        W59780  27.194   5.972  22.423 -0.1011 -0.0219 -0.0338
16687W        W59781  26.870   6.744  22.414  0.3948  0.1830 -0.0853
16688W        W59782  27.034   4.904  19.754  0.1426 -0.0204 -0.3257
16689W        W59783  26.541   6.778  18.918 -0.0322 -0.1862 -0.1318
16690W        W59784  24.329   6.383  23.217  0.1375 -0.2382  0.1587
16691W        W59785  25.151   5.088  21.809 -0.2320  0.1466 -0.2139
16692W        W59786  25.480   6.427  21.950 -0.0654  0.1030 -0.0683
16693W        W59787  26.925   5.944  20.005  0.1234  0.0377 -0.5256
16694W        W59788  26.675   6.900  20.222  0.1424 -0.2910  0.0430
16695W        W59789  27.446   6.369  22.192  0.1297  0.0895  0.0652
16696W        W59790  26.110   5.950  21.295  0.0865  0.2375  0.2307
16697W        W59791  26.429   5.299  21.794 -0.1796 -0.4910  0.0645
16698W        W59792  25.136   6.245  22.305 -0.3552  0.0524 -0.0248
16699W        W59793  27.652   7.176  22.515  0.2821  0.1725  0.2249
16700W        W59794  26.587   5.696  21.407 -0.0870 -0.0911 -0.2322
16701W        W59795  28.362   6.725  22.522 -0.1140 -0.0676 -0.2249
16702W        W59796  28.884   2.554  19.505  0.0792  0.1471 -0.3003
16703W        W59797  28.670   5.328  20.391  0.1908 -0.1038 -0.4295
16704W        W59798  29.134   3.995  20.281 -0.0188 -0.2114  0.3042
16705W        W59799  27.616   5.838  23.159 -0.1637  0.2585 -0.1848
16706W        W59800  26.053   5.484  21.359  0.1070  0.0268 -0.0226
16707W        W59801  27.247   4.963  19.156  0.1864  0.1258  0.1131
16708W        W59802  27.086   6.245  24.051 -0.0470 -0.1935 -0.3665
16709W        W59803  29.007   5.040  24.528  0.2978 -0.0860 -0.5903
16710W        W59804  23.677   9.634  23.463 -0.0044 -0.2650  0.0574
16711W        W59805  27.684   8.220  18.844 -0.0337  0.1074 -0.1565
16712W        W59806  25.196   4.394  19.378  0.2844  0.0514  0.0525
16713W        W59807  27.308   6.346  21.360 -0.1549 -0.2792  0.3296
16714W        W59808  28.418   5.278  23.155  0.2643  0.3079  0.0310
16715W        W59809  26.133   6.811  20.187 -0.0315 -0.1674 -0.1283
16716W        W59810  27.163   4.212  22.082  0.0956  0.1016 -0.2159
16717W        W59811  25.667   6.880  21.932 -0.0729  0.1078 -0.0081
16718W        W59812  24.103   8.141  22.735 -0.0536  0.1498  0.0252
16719W        W59813  25.460   6.773  21.075 -0.4300  0.1426 -0.0409
16720W        W59814  26.566   4.813  20.055  0.1849 -0.0999 -0.2605
16721W        W59815  28.670   5.868  20.183  0.3173  0.0753  0.2042
16722W        W59816  25.763   6.003  22.015  0.0238 -0.1852  0.2646
16723W        W59817  28.446   4.603  22.373 -0.0750  0.1363 -0.0873
16724W        W59818  27.354   6.843  21.388  0.0037  0.0959  0.0071
16725W        W59819  27.949   5.093  20.412  0.0156 -0.1357 -0.1580
16726W        W59820  27.622   4.024  22.001 -0.1236  0.1338  0.0534
16727W        W59821  25.441   4.169  21.669 -0.1228  0.0234  0.1337
16728W        W59822  27.515   5.727  19.892 -0.0646 -0.2725  0.0351
16729W        W59823  27.048   4.617  23.510 -0.2255 -0.0377 -0.0115
16730W        W59824  28.285   3.504  18.967  0.1450 -0.0195  0.0772
16731W        W59825  26.546   7.343  24.409  0.0958 -0.1006 -0.0167
16732W        W59826  26.009   3.629  21.349  0.0225  0.2960  0.2135
16733W        W59827  26.470   4.250  20.935 -0.1896  0.1647  0.4588
16734W        W59828  25.665   4.292  21.203 -0.0961 -0.2726 -0.1253
16735W        W59829  26.555   4.867  23.686  0.1990 -0.2148  0.1324
16736W        W59830  26.700   6.442  24.348 -0.0795 -0.0483 -0.2176
16737W        W59831  26.163   4.320  19.952  0.1353  0.2460  0.0813
16738W        W59832  28.150   8.251  20.341 -0.0061 -0.3937  0.1488
16739W        W59833  27.857   5.143  21.035  0.0352 -0.2444  0.0820
16740W        W59834  26.981   6.499  20.174  0.0318  0.0144  0.2167
16741W        W59835  27.193   5.778  21.416  0.0964  0.2392 -0.2048
16742W        W59836  28.989   6.650  21.285  0.0139  0.1159  0.1734
16743W        W59837  25.431   3.616  20.941 -0.3990 -0.2082  0.1465
16744W        W59838  29.272   7.230  20.575 -0.0841 -0.3951 -0.0451
16745W        W59839  29.390   6.850  20.951  0.0131 -0.3491 -0.0366
16746W        W59840  27.258   3.283  21.563 -0.0230 -0.0975 -0.0559
16747W        W59841  25.184   4.632  21.479  0.0348  0.1539 -0.1876
16748W        W59842  25.686   8.019  20.117 -0.2707 -0.0076  0.2241
16749W        W59843  27.743   5.413  21.533  0.1084  0.0252 -0.0048
16750W        W59844  28.995   5.140  23.663 -0.1131  0.3597 -0.0571
16751W        W59845  25.687   7.739  20.586 -0.0740 -0.2705 -0.1156
16752W        W59846  29.103   4.509  22.334 -0.2299  0.0454  0.1799
16753W        W59847  26.329   6.356  23.983  0.2839 -0.2745 -0.0836
16754W        W59848  26.227   7.395  23.299 -0.0499  0.0939  0.4253
16755W        W59849  25.334   6.304  19.531  0.2774 -0.0658  0.0881
16756W        W59850  27.942   6.988  21.753 -0.0004  0.1766 -0.0247
16757W        W59851  26.703   6.943  19.639 -0.0845 -0.0704  0.0481
16758W        W59852  26.232   7.651  21.426  0.1063  0.1145 -0.4357
16759W        W59853  28.301   6.154  21.176  0.0060  0.0539 -0.0392
16760W        W59854  26.446   5.203  21.263  0.0428  0.0272  0.0485
16761W        W59855  28.772   7.434  21.329  0.0222 -0.1438 -0.1082
16762W        W59856  26.773   3.383  20.796 -0.0073  0.0536 -0.0835
16763W        W59857  28.476   3.501  20.999 -0.2314 -0.2197 -0.1412
16764W        W59858  27.446   2.883  21.294  0.2494  0.0642  0.1557
16765W        W59859  27.197   6.094  20.462 -0.0106  0.0153  0.0984
16766W        W59860  25.497   4.573  20.208 -0.0411 -0.3225  0.1358
16767W        W59861  26.738   6.375  20.560  0.0179 -0.1494  0.3696
16768W        W59862  24.564   5.829  22.475  0.0266 -0.0580  0.2720
16769W        W59863  27.039   3.821  23.634 -0.3877  0.1465  0.1870
16770W        W59864  26.401   5.090  22.313 -0.1677  0.0181  0.1120
16771W        W59865  25.606   5.077  21.581 -0.0567  0.1337 -0.0003
16772W        W59866  25.794   4.150  20.267  0.1730  0.1026  0.4382
16773W        W59867  28.910   7.053  20.984  0.4735  0.0158  0.0750
16774W        W59868  27.497   4.630  19.849  0.2601 -0.5509 -0.2967
16775W        W59869  26.912   5.557  21.087 -0.0777  0.2083  0.0943
16776W        W59870  28.995   6.031  22.030 -0.0708  0.1842 -0.1069
16777W        W59871  27.685   7.607  20.993 -0.1557 -0.2282 -0.1515
16778W        W59872  28.823   3.529  19.565 -0.0546 -0.1613 -0.2062
16779W        W59873  28.827   6.802  23.811 -0.1960 -0.0599  0.0253
16780W        W59874  25.496   5.964  20.733 -0.0780  0.4207  0.0399
16781W        W59875  27.213   4.888  22.735 -0.0304  0.4055  0.3881
16782W        W59876  26.481   3.899  23.531 -0.2149  0.1176 -0.0604
16783W        W59877  26.247   3.939  19.500 -0.0182 -0.0108  0.1542
16784W        W59878  26.846   6.146  21.491 -0.0437  0.0356  0.2986
16785W        W59879  28.124   6.597  22.049 -0.1357 -0.0392 -0.2162
16786W        W59880  28.117   7.249  20.131  0.0335 -0.1918  0.3530
16787W        W59881  25.821   6.382  23.029 -0.0255  0.2724 -0.1326
16788W        W59882  25.485   4.974  23.144 -0.1330  0.0662  0.1067
16789W        W59883  25.640   2.342  21.558 -0.1045 -0.0564  0.1608
16790W        W59884  28.434   4.353  20.622  0.0480  0.4584  0.0294
16791W        W59885  25.849   5.177  23.480 -0.1334  0.0531  0.1919
16792W        W59886  28.170   4.503  20.221  0.0450  0.0984  0.0549
16793W        W59887  29.835   5.040  22.022  0.0842 -0.1882  0.0199
16794W        W59888  27.915   6.100  20.839 -0.0573  0.0400 -0.1779
16795W        W59889  24.763   4.880  22.189 -0.0549  0.3682  0.0320
16796W        W59890  26.169   4.800  21.934  0.0044 -0.0873  0.1427
16797W        W59891  28.283   6.465  23.337 -0.1521  0.1273  0.4426
16798W        W59892  27.118   3.803  20.700 -0.2828 -0.4993  0.4314
16799W        W59893  28.347   4.124  21.607 -0.1699 -0.0999 -0.1102
16800W        W59894  27.529   7.253  20.441 -0.0128 -0.2220 -0.0839
16801W        W59895  24.803   5.246  20.896 -0.0134  0.1319 -0.2536
16802W        W59896  25.700   6.288  21.055  0.0114 -0.0006 -0.1156
16803W        W59897  28.058   4.887  22.314  0.0064  0.0774 -0.0286
16804W        W59898  26.473   6.054  22.328  0.1805  0.1479 -0.0135
16805W        W59899  28.076   5.266  23.509  0.0148 -0.4589 -0.0756
16806W        W59900  27.445   4.768  20.956 -0.2687  0.0260  0.0365
16807W        W59901  29.889   6.486  19.778 -0.2783 -0.1595  0.2748
16808W        W59902  28.388   7.043  24.021  0.0312 -0.1250  0.0601
16809W        W59903  27.385   6.884  24.009  0.2091  0.2340 -0.1301
16810W        W59904  27.184   6.031  23.459 -0.1522  0.0800  0.0712
16811W        W59905  27.661   6.538  21.783  0.2152  0.0584  0.1279
16812W        W59906  26.416   4.207  22.480 -0.1326 -0.0384  0.0294
16813W        W59907  25.938   4.722  20.084  0.2590 -0.0542 -0.1220
16814W        W59908  25.733   4.990  20.527  0.1535  0.0395  0.2549
16815W        W59909  26.651   4.825  21.651 -0.0257  0.0220 -0.3629
16816W        W59910  26.335   4.749  21.002  0.2034 -0.1724 -0.0512
16817W        W59911  27.924   4.005  20.373 -0.3306  0.0206  0.0474
16818W        W59912  26.262   7.990  22.110 -0.0203  0.1536  0.0671
16819W        W59913  26.850   4.479  21.176 -0.1311  0.2524 -0.0663
16820W        W59914  26.382   5.937  26.805  0.0631 -0.2004  0.2755
16821W        W59915  26.601   5.415  23.811 -0.0580 -0.1756  0.2105
16822W        W59916  26.656   3.494  23.286  0.4106  0.4922 -0.3641
16823W        W59917  28.029   6.113  25.607 -0.1746 -0.1350 -0.1393
16824W        W59918  25.864   4.449  25.766 -0.0219  0.1231 -0.0904
16825W        W59919  27.999   5.424  24.533 -0.1282  0.0533 -0.2183
16826W        W59920  24.370   3.361  25.768  0.2128  0.0149  0.3056
16827W        W59921  28.672   5.151  25.110 -0.1495 -0.0299 -0.0294
16828W        W59922  29.799   6.463  25.826  0.0009 -0.0467 -0.0220
16829W        W59923  26.668   6.486  21.828  0.1643  0.1678 -0.2579
16830W        W59924  27.785   6.340  26.894  0.2774  0.1938 -0.2363
16831W        W59925  27.323   6.634  25.936  0.0465  0.3597 -0.2260
16832W        W59926  26.982   4.809  24.000 -0.0233 -0.1357 -0.0219
16833W        W59927  25.350   3.457  26.457  0.2393 -0.1584 -0.2061
16834W        W59928  27.471   5.289  25.721  0.1476 -0.2309 -0.1253
16835W        W59929  25.938   7.306  25.488  0.0100  0.0496 -0.1469
16836W        W59930  25.074   4.843  23.984  0.1110 -0.4498 -0.2287
16837W        W59931  26.880   4.471  26.211  0.2885 -0.0276  0.2528
16838W        W59932  27.678   6.619  24.335 -0.1227 -0.0531 -0.3190
16839W        W59933  26.306   3.971  26.053  0.0164  0.1733  0.1680
16840W        W59934  26.325   3.020  25.590  0.1685  0.0587  0.1557
16841W        W59935  27.074   5.891  22.891 -0.1898 -0.2007  0.1883
16842W        W59936  26.165   3.597  23.755 -0.1128 -0.0564 -0.1730
16843W        W59937  24.149   6.320  26.515  0.2514 -0.0788 -0.0331
16844W        W59938  26.243   5.508  25.238 -0.2952 -0.2044 -0.1457
16845W        W59939  27.630   6.002  26.518 -0.1076  0.0557  0.0563
16846W        W59940  27.208   6.201  25.240 -0.2482  0.3366 -0.0916
16847W        W59941  25.856   5.356  25.489  0.1639 -0.3003 -0.0455
16848W        W59942  26.161   7.156  25.074  0.0036 -0.1408 -0.0496
16849W        W59943  27.716   5.505  26.849  0.1137 -0.2353  0.1113
16850W        W59944  27.564   5.424  23.557 -0.1911 -0.0509 -0.0025
16851W        W59945  25.667   7.116  24.765  0.0664  0.0802  0.1364
16852W        W59946  26.493   7.575  24.868  0.3940 -0.0260 -0.0072
16853W        W59947  28.509   5.155  24.556  0.0499  0.1985  0.1328
16854W        W59948  28.701   6.535  25.683 -0.0146 -0.0523 -0.0702
16855W        W59949  26.067   6.407  27.613  0.0516  0.0215 -0.0510
16856W        W59950  24.426   7.197  24.541  0.2044 -0.2055 -0.1140
16857W        W59951  26.807   6.755  27.851  0.0276 -0.2044 -0.0630
16858W        W59952  25.827   7.571  26.663  0.1146  0.0946  0.0385
16859W        W59953  27.051   5.369  25.419 -0.0741  0.1349  0.2056
16860W        W59954  27.490   4.613  23.811 -0.3534 -0.1797 -0.3228
16861W        W59955  25.160   8.225  23.909  0.0460  0.0064 -0.0287
16862W        W59956  26.448   7.112  25.650  0.4735  0.1043 -0.4211
16863W        W59957  25.926   6.091  27.047 -0.0133  0.3167 -0.1468
16864W        W59958  26.587   5.528  24.753  0.3058 -0.1083 -0.0557
16865W        W59959  29.974   5.108  26.963  0.0056  0.1234  0.0187
16866W        W59960  24.549   5.623  23.431 -0.2991  0.2170  0.0328
16867W        W59961  27.840   3.255  24.785  0.2385 -0.0211 -0.1805
16868W        W59962  24.957   5.577  22.744  0.1352  0.2290  0.0794
16869W        W59963  27.661   4.162  24.011  0.0696  0.1773  0.1348
16870W        W59964  27.913   3.923  25.971  0.2578 -0.1329  0.1159
16871W        W59965  24.525   7.189  25.023  0.0423 -0.1625  0.1890
16872W        W59966  26.097   3.947  26.518 -0.0046  0.2236 -0.0144
16873W        W59967  27.957   6.388  26.422  0.2124 -0.0798 -0.1108
16874W        W59968  26.261   4.690  25.504 -0.1220  0.0779  0.1079
16875W        W59969  26.242   6.000  25.043 -0.2329  0.0628 -0.0478
16876W        W59970  25.177   4.602  26.684  0.2452 -0.0969 -0.1575
16877W        W59971  24.864   5.495  25.323  0.3343 -0.0829 -0.1109
16878W        W59972  28.924   5.978  23.370 -0.1587  0.1327  0.3267
16879W        W59973  29.466   7.604  23.598 -0.1208  0.2747 -0.1376
16880W        W59974  26.506   6.857  24.070  0.1327  0.1137  0.1068
16881W        W59975  26.150   5.035  25.160 -0.1390 -0.0151 -0.1260
16882W        W59976  25.818   5.956  27.471 -0.1052  0.1932 -0.0532
16883W        W59977  25.767   5.132  26.880  0.0171 -0.2505 -0.1492
16884W        W59978  27.424   4.344  22.497 -0.0698 -0.0162 -0.0090
16885W        W59979  29.570   5.563  25.664  0.1829  0.0762 -0.1563
16886W        W59980  25.586   7.892  26.258  0.1217 -0.1981  0.0550
16887W        W59981  29.190   5.348  24.142 -0.0697  0.2163 -0.0511
16888W        W59982  26.093   4.887  25.931 -0.0763 -0.2773  0.1211
16889W        W59983  27.681   6.149  25.143  0.0273  0.1475  0.1581
16890W        W59984  28.288   7.432  21.586  0.2194 -0.0698 -0.1368
16891W        W59985  27.992   2.332  24.698  0.0392 -0.0749 -0.1515
16892W        W59986  28.197   4.261  27.517  0.4887 -0.0841 -0.0085
16893W        W59987  27.336   5.460  22.954 -0.0290 -0.0011 -0.0572
16894W        W59988  25.734   5.368  24.510 -0.1273  0.0988  0.1320
16895W        W59989  28.439   6.938  27.076  0.1395  0.1483 -0.1342
16896W        W59990  27.226   4.372  23.035  0.0807  0.0548 -0.0176
16897W        W59991  25.252   6.201  25.759  0.0401 -0.1614  0.0985
16898W        W59992  27.819   2.848  26.039  0.0260 -0.0657 -0.0444
16899W        W59993  27.657   5.560  26.255  0.1675 -0.0279 -0.1098
16900W        W59994  25.611   6.028  23.443 -0.0986  0.0876  0.3220
16901W        W59995  26.209   6.304  25.525 -0.1646 -0.2035 -0.1695
16902W        W59996  24.492   5.603  24.827  0.0039 -0.2342  0.3364
16903W        W59997  24.950   4.564  25.448  0.2281 -0.4191  0.1316
16904W        W59998  26.634   5.807  25.527  0.0541  0.0697  0.0446
16905W        W59999  26.686   4.107  24.916  0.1503 -0.0048 -0.0631
16906W        W60000  25.393   5.095  26.546  0.1213 -0.3685 -0.1489
16907W        W60001  27.149   3.054  24.399 -0.0685  0.0178  0.1359
16908W        W60002  25.381   5.271  25.508  0.0368  0.0774  0.1152
16909W        W60003  29.162   7.632  24.812  0.2631 -0.0881  0.1991
16910W        W60004  28.209   5.013  24.125  0.0150 -0.0772  0.0011
16911W        W60005  28.437   4.986  23.645 -0.2936 -0.5995  0.1961
16912W        W60006  23.981   6.229  24.051  0.1466  0.2517  0.2720
16913W        W60007  24.759   4.143  24.513 -0.0604  0.0859  0.0800
16914W        W60008  26.105   3.496  26.380  0.2596 -0.0436  0.0910
16915W        W60009  26.157   2.748  26.477  0.1152 -0.1849 -0.1362
16916W        W60010  28.290   5.455  24.975 -0.2296 -0.1406  0.2388
16917W        W60011  26.315   3.998  23.993  0.1296 -0.0249 -0.1295
16918W        W60012  28.299   4.268  25.821  0.0525  0.0926  0.0112
16919W        W60013  26.708   3.074  24.024 -0.0252 -0.1460  0.2003
16920W        W60014  24.719   6.882  24.180 -0.0232  0.0540 -0.0675
16921W        W60015  28.925   3.522  25.808 -0.2463 -0.0652 -0.0499
16922W        W60016  27.781   5.026  23.834 -0.1554 -0.0417 -0.1062
16923W        W60017  29.346   8.461  26.334  0.0929  0.0178  0.3560
16924W        W60018  28.621   7.895  23.974 -0.4830 -0.1399 -0.0279
16925W        W60019  25.196   5.534  26.618  0.0363  0.0236 -0.1306
16926W        W60020  25.283   5.124  23.606  0.0007 -0.2530  0.0619
16927W        W60021  26.023   7.662  25.853 -0.0486  0.1863 -0.0452
16928W        W60022  26.158   6.777  25.366  0.1470 -0.0068  0.1053
16929W        W60023  26.142   3.811  24.443  0.1856  0.1430  0.2727
16930W        W60024  27.598   7.027  25.584 -0.3356  0.4381  0.0167
16931W        W60025  25.542   5.507  23.785 -0.3464  0.0963 -0.0649
16932W        W60026  25.003   5.142  25.786 -0.3527  0.0454  0.0446
16933W        W60027  29.078   3.581  25.175  0.0424 -0.0830  0.0303
16934W        W60028  26.629   5.091  25.072  0.3254  0.1891 -0.2304
16935W        W60029  27.157   4.770  26.541 -0.0962  0.0517 -0.0249
16936W        W60030  26.650   3.559  23.881 -0.0270  0.0087 -0.1330
16937W        W60031  28.150   6.860  24.871  0.1674  0.1699  0.1033
16938W        W60032  26.195   7.740  24.336  0.0125 -0.1411 -0.0096
16939W        W60033  25.038   6.455  24.573 -0.3602 -0.2514 -0.1852
16940W        W60034  27.606   6.549  23.176 -0.1168 -0.0131  0.2354
16941W        W60035  28.899   4.294  25.038  0.1310 -0.1984 -0.1330
16942W        W60036  26.671   6.517  26.623  0.0501 -0.0616 -0.0509
16943W        W60037  27.897   4.922  27.752  0.0756  0.1576  0.1969
16944W        W60038  26.530   4.426  25.753  0.4379  0.2530  0.2388
16945W        W60039  25.404   7.196  26.643 -0.0772 -0.1193 -0.3536
16946W        W60040  25.838   4.527  25.168 -0.0676  0.0758 -0.1264
16947W        W60041  29.155   4.447  23.472 -0.3021  0.2677  0.2979
16948W        W60042  28.028   5.860  26.218  0.2124 -0.1934 -0.2527
16949W        W60043  28.205   4.048  23.980 -0.0838 -0.2577 -0.1505
16950W        W60044  28.108   4.685  23.312 -0.1886 -0.2836  0.0692
16951W        W60045  27.139   3.149  23.240 -0.2916  0.4370  0.0572
16952W        W60046  25.640   5.770  25.730  0.0955  0.1670  0.2873
16953W        W60047  27.562   6.358  25.591 -0.0252 -0.1703 -0.0095
16954W        W60048  27.058   5.051  26.059  0.0337 -0.0417 -0.1145
16955W        W60049  27.105   4.342  24.037  0.1541  0.2252 -0.0031
16956W        W60050  28.814   6.509  23.364  0.1796  0.0610  0.1845
16957W        W60051  25.769   5.440  26.423  0.1885 -0.3046  0.0290
16958W        W60052  28.478   6.154  27.562  0.1408  0.0955  0.1022
16959W        W60053  27.131   5.739  24.276 -0.0121  0.2934 -0.0793
16960W        W60054  27.747   5.089  26.472 -0.0159 -0.0440 -0.0123
16961W        W60055  27.868   6.149  21.997 -0.2439  0.0824 -0.2616
16962W        W60056  27.670   3.543  25.179 -0.0718  0.0073 -0.0309
16963W        W60057  24.866   8.055  22.582  0.1015  0.0032  0.0343
16964W        W60058  27.037   3.682  25.170  0.2135  0.1091 -0.2044
16965W        W60059  28.046   4.788  25.846  0.1026 -0.0115  0.2726
16966W        W60060  26.928   3.927  26.108  0.0850  0.1949  0.1707
16967W        W60061  29.357   3.767  25.594  0.2643  0.0434 -0.2538
16968W        W60062  27.500   5.356  24.622  0.0405 -0.0808  0.1034
16969W        W60063  26.472   4.981  24.233 -0.0336 -0.0066 -0.2697
16970W        W60064  25.873   6.180  24.856  0.1919 -0.1215  0.2128
16971W        W60065  26.452   6.639  25.819 -0.1394 -0.1124 -0.0146
16972W        W60066  25.750   6.252  25.860 -0.3234  0.1378 -0.2292
16973W        W60067  25.248   7.492  26.149 -0.1139 -0.0297 -0.2052
16974W        W60068  27.703   6.295  26.042 -0.0796  0.1349  0.0695
16975W        W60069  27.185   5.834  25.617  0.1178 -0.2640  0.1396
16976W        W60070  27.383   4.371  26.877 -0.0175 -0.1699 -0.0718
16977W        W60071  26.597   3.552  24.533  0.1544  0.0002  0.0704
16978W        W60072  25.580   7.592  23.817  0.3237 -0.1216 -0.2136
16979W        W60073  26.344   5.957  24.511  0.0674  0.0321 -0.0428
16980W        W60074  26.951   3.197  24.862  0.1073 -0.1423 -0.0095
16981W        W60075  28.155   6.543  27.227 -0.1119 -0.1394 -0.2711
16982W        W60076  24.839   8.008  23.539  0.1766  0.0207  0.0414
16983W        W60077  28.310   6.361  25.947 -0.1031  0.0779  0.0118
16984W        W60078  25.331   8.311  26.421 -0.0047 -0.1770 -0.0860
16985W        W60079  28.829   3.503  26.770 -0.0310 -0.1622  0.1139
16986W        W60080  25.639   6.756  26.758 -0.0511  0.0993 -0.1855
16987W        W60081  25.763   4.539  23.328 -0.2441  0.2548  0.2421
16988W        W60082  25.178   3.840  26.089 -0.3101  0.1262 -0.0945
16989W        W60083  27.340   5.356  24.074 -0.1059 -0.1945 -0.0231
16990W        W60084  27.760   4.994  24.319  0.0443  0.2764  0.0305
16991W        W60085  24.817   3.575  27.144 -0.3689  0.1158 -0.0315
16992W        W60086  28.475   2.584  25.189 -0.0312 -0.0768 -0.0159
16993W        W60087  25.196   6.140  26.678  0.5550  0.1134 -0.3186
16994W        W60088  28.385   5.621  25.979  0.2987 -0.0220  0.1696
16995W        W60089  27.044   4.287  24.535 -0.0692 -0.0776  0.0682
16996W        W60090  26.928   6.079  24.626 -0.0422 -0.0512  0.0765
16997W        W60091  26.168   6.541  28.427 -0.1284 -0.0667 -0.2722
16998W        W60092  26.394   5.261  23.342 -0.1006 -0.0747  0.1359
16999W        W60093  29.385   4.391  26.381 -0.0898 -0.0315 -0.1626
17000W        W60094  25.463   4.344  25.479 -0.1411  0.0553 -0.4660
17001W        W60095  25.308   5.783  25.342 -0.0325  0.0135 -0.1732
17002W        W60096  27.101   7.170  25.467  0.0578  0.0802  0.3471
17003W        W60097  26.682   5.941  24.191  0.1987  0.0564  0.2184
17004W        W60098  25.878   6.663  23.996 -0.2473  0.0921 -0.0612
17005W        W60099  28.523   4.833  27.837 -0.0360 -0.1689  0.0994
17006W        W60100  28.071   5.942  26.735  0.0756 -0.1265  0.1463
17007W        W60101  26.555   3.784  25.589 -0.0698  0.0719 -0.0323
17008W        W60102  26.455   4.169  24.478 -0.1312  0.1054  0.0492
17009W        W60103  26.652   3.395  26.107  0.1402 -0.2138 -0.0520
17010W        W60104  28.055   5.678  25.435  0.1595  0.0196  0.2508
17011W        W60105  27.937   6.662  25.734 -0.0440 -0.0383  0.0956
17012W        W60106  24.706   6.314  26.937 -0.1468 -0.2553 -0.0447
17013W        W60107  27.767   2.764  24.671  0.2025  0.1615  0.1581
17014W        W60108  28.976   7.889  24.356  0.2220 -0.1700  0.0618
17015W        W60109  28.775   5.261  25.901 -0.0972  0.2575  0.1154
17016W        W60110  25.960   5.601  24.107 -0.2252  0.2346 -0.0204
17017W        W60111  24.837   3.302  26.623 -0.0090  0.0331  0.2390
17018W        W60112  25.085   5.881  23.200  0.2495  0.2078 -0.0342
17019W        W60113  27.323   4.280  26.384 -0.1731 -0.1790 -0.0307
17020W        W60114  25.738   5.269  25.011  0.2137 -0.3272  0.1688
17021W        W60115  25.848   7.794  23.408  0.0922 -0.0129  0.1281
17022W        W60116  25.742   6.902  25.791 -0.0951 -0.1972  0.1104
17023W        W60117  29.303   4.061  25.084 -0.0114  0.0096 -0.1975
17024W        W60118  27.489   5.798  23.839  0.2150 -0.1516 -0.1416
17025W        W60119  27.815   5.749  24.877  0.2366 -0.2342 -0.2528
17026W        W60120  28.625   3.528  26.326 -0.0199  0.3341  0.3132
17027W        W60121  27.325   3.599  23.232 -0.0602  0.1905  0.0773
17028W        W60122  27.041   3.340  26.537 -0.2618 -0.3029  0.1415
17029W        W60123  26.027   3.623  25.928 -0.1400  0.1565  0.0402
17030W        W60124  28.333   5.508  24.208  0.2568 -0.0317  0.0036
17031W        W60125  25.639   5.029  26.095 -0.1769  0.0065  0.1539
17032W        W60126  26.129   6.590  26.734 -0.0057 -0.1017  0.0516
17033W        W60127  26.120   7.009  26.054 -0.0934 -0.4813  0.0195
17034W        W60128  26.379   4.264  25.302  0.1324 -0.1328  0.1024
17035W        W60129  27.414   4.080  24.952  0.3450  0.0098 -0.2111
17036W        W60130  26.660   4.910  25.789  0.2169  0.1431  0.1473
17037W        W60131  26.310   6.835  24.599 -0.3729  0.0770 -0.2996
17038W        W60132  25.446   7.336  25.705 -0.1808 -0.0587 -0.3459
17039W        W60133  26.897   5.296  24.311  0.2428  0.1042  0.0164
17040W        W60134  25.779   5.758  25.154 -0.0385 -0.0744 -0.1784
17041W        W60135  28.720   5.088  24.095 -0.0405  0.2666  0.4496
17042W        W60136  26.901   7.242  24.107 -0.2813  0.0014 -0.2664
17043W        W60137  25.218   5.327  25.012 -0.3087  0.3893 -0.1238
17044W        W60138  28.201   5.186  26.133 -0.3248 -0.6256  0.2446
17045W        W60139  27.055   5.421  24.851 -0.2263 -0.1992  0.0718
17046W        W60140  27.452   3.476  24.595  0.1272 -0.2450  0.2844
17047W        W60141  28.380   4.053  25.245  0.0352  0.1845  0.2281
17048W        W60142  26.705   4.649  25.302  0.2749 -0.2002  0.0424
17049W        W60143  25.477   4.468  24.858 -0.0526 -0.2290  0.0232
17050W        W60144  27.227   5.730  26.513 -0.3111 -0.0034 -0.1967
17051W        W60145  27.600   8.812  26.858 -0.1436 -0.0795  0.0580
17052W        W60146  29.523   4.776  24.845 -0.2781 -0.1313 -0.0144
17053W        W60147  28.199   4.519  25.382  0.3992 -0.3711  0.1194
17054W        W60148  29.045   5.790  23.813  0.0458 -0.0082  0.2104
17055W        W60149  26.633   4.648  22.493  0.0518  0.0220 -0.1575
17056W        W60150  25.716   3.535  26.826  0.0784 -0.0987 -0.0302
17057W        W60151  27.477   6.524  26.462 -0.2850 -0.1257  0.0051
17058W        W60152  26.965   5.010  23.185 -0.0029 -0.0604  0.0920
17059W        W60153  27.447   4.801  27.597  0.1245 -0.1298 -0.0123
17060W        W60154  25.864   7.888  22.756  0.1367 -0.1753  0.2355
17061W        W60155  28.576   6.876  24.482  0.0476  0.0243 -0.0411
17062W        W60156  26.296   4.583  24.905  0.0669 -0.1612 -0.0115
17063W        W60157  25.240   4.382  23.982 -0.0253 -0.1088 -0.1103
17064W        W60158  26.179   8.414  26.579 -0.2612  0.1598 -0.1397
17065W        W60159  25.937   5.031  24.193  0.1858 -0.1195  0.1499
17066W        W60160  27.351   5.863  24.838 -0.2271  0.1945  0.0054
17067W        W60161  28.770   6.633  26.142 -0.3104 -0.2423  0.0607
17068W        W60162  27.463   6.739  26.956  0.2889  0.1052 -0.1762
17069W        W60163  27.652   3.033  24.169 -0.0078 -0.0548  0.0332
17070W        W60164  28.297   4.658  26.970  0.0255  0.0653  0.1175
17071W        W60165  25.841   4.836  24.763  0.1731 -0.0274 -0.0222
17072W        W60166  27.988   3.457  25.634 -0.3556 -0.0207 -0.0848
17073W        W60167  26.488   6.813  26.293 -0.0676 -0.4312  0.2301
17074W        W60168  26.860   7.187  26.266  0.1343 -0.0354 -0.0987
17075W        W60169  25.873   6.618  26.225  0.0667 -0.1212 -0.1244
17076W        W60170  27.683   4.326  25.768 -0.0478  0.1692 -0.1360
17077W        W60171  27.806   7.837  25.241 -0.1714 -0.3848  0.0440
17078W        W60172  26.273   5.122  24.659 -0.1667 -0.1650 -0.0168
17079W        W60173  28.173   5.014  25.282 -0.3280  0.1660  0.0348
17080W        W60174  26.852   6.987  27.324  0.2248  0.2461  0.2021
17081W        W60175  27.701   4.883  25.494  0.4192  0.3710  0.0166
17082W        W60176  27.555   5.650  25.309  0.2145  0.0407 -0.1257
17083W        W60177  28.652   5.924  24.090 -0.3676 -0.4596 -0.1681
17084W        W60178  25.666   6.485  25.379 -0.2387 -0.1178  0.0855
17085W        W60179  24.859   3.836  26.502 -0.0855 -0.1111  0.2583
17086W        W60180  27.258   5.250  26.497 -0.0432  0.2904 -0.0232
17087W        W60181  27.100   5.560  26.056  0.2661  0.2806  0.2709
17088W        W60182  27.029   3.804  24.703 -0.3966  0.1416 -0.1051
17089W        W60183  26.959   5.767  23.839  0.0211 -0.0651 -0.1713
17090W        W60184  25.944   5.130  28.640 -0.2656  0.2809  0.0439
17091W        W60185  25.105   4.869  26.183 -0.3824 -0.2190  0.2524
17092W        W60186  27.085   6.829  26.628  0.0086  0.0094 -0.0800
17093W        W60187  27.922   5.488  23.962 -0.0698 -0.1454 -0.0484
17094W        W60188  27.970   6.398  24.765 -0.1051  0.4490 -0.2643
17095W        W60189  27.509   6.557  24.854  0.1908  0.2589  0.0987
17096W        W60190  25.598   4.609  24.351 -0.1844  0.2341 -0.1740
17097W        W60191  26.018   7.488  24.776 -0.0055  0.1321 -0.2806
17098W        W60192  25.242   6.969  24.478 -0.1828 -0.1462  0.0162
17099W        W60193  28.465   6.457  24.708 -0.1093  0.1689  0.3113
17100W        W60194  26.756   7.754  26.186  0.1361  0.0741 -0.1199
17101W        W60195  28.472   6.137  26.356 -0.1792 -0.2322  0.0874
17102W        W60196  27.968   4.243  23.475 -0.0619  0.1991 -0.4474
17103W        W60197  27.133   4.860  25.573  0.1711 -0.2234 -0.1015
17104W        W60198  29.249   2.712  24.659  0.0825 -0.2597 -0.1178
17105W        W60199  27.425   7.351  28.165 -0.1304  0.0533 -0.2197
17106W        W60200  26.346   5.226  26.519  0.3584 -0.0266  0.1421
17107W        W60201  27.418   4.148  23.431  0.1095 -0.2430 -0.4133
17108W        W60202  26.356   4.582  26.204  0.1276 -0.0288  0.0437
17109W        W60203  28.503   5.218  26.815 -0.0773 -0.3036 -0.2165
17110W        W60204  25.291   7.924  27.532  0.5497 -0.0251 -0.0885
17111W        W60205  27.130   6.375  23.024 -0.3914 -0.1462  0.0162
17112W        W60206  24.957   4.241  23.589  0.2478  0.3118 -0.2316
17113W        W60207  25.950   4.302  26.230 -0.1727 -0.2853 -0.1117
17114W        W60208  29.542   3.161  26.355  0.2161 -0.2428  0.0697
17115W        W60209  26.190   6.354  21.934 -0.2395 -0.2297 -0.0501
17116W        W60210  27.399   4.676  26.035 -0.1478 -0.1343 -0.2366
17117W        W60211  26.850   7.423  25.832  0.4734 -0.1075 -0.1025
17118W        W60212  26.266   7.511  26.341 -0.0463 -0.0364 -0.1655
17119W        W60213  26.721   7.262  26.798  0.1728  0.2551 -0.1287
17120W        W60214  26.286   4.527  23.388 -0.3882 -0.3118 -0.0693
17121W        W60215  28.429   4.646  24.525  0.0289 -0.0352  0.0970
17122W        W60216  26.643   5.328  26.106  0.1269  0.0456  0.0328
17123W        W60217  29.830   4.139  26.106 -0.1693  0.0550 -0.3712
17124W        W60218  25.304   4.729  25.775  0.1174 -0.0207  0.1919
17125W        W60219  29.594   5.129  23.962 -0.0081  0.0222  0.0354
17126W        W60220  27.635   5.802  25.822 -0.1089 -0.0614  0.0912
17127W        W60221  24.554   4.533  27.534  0.1568  0.0223 -0.1076
17128W        W60222  25.792   6.008  23.917 -0.1718 -0.1283 -0.0193
17129W        W60223  29.329   5.449  26.116 -0.0303  0.3186 -0.3963
17130W        W60224  28.245   4.086  22.073 -0.0870 -0.0786  0.0886
17131W        W60225  27.759   7.213  27.016  0.0408 -0.0587  0.1473
17132W        W60226  25.947   4.851  26.456  0.0896 -0.0628  0.0173
17133W        W60227  27.144   4.969  24.600 -0.2723 -0.3624  0.0522
17134W        W60228  26.068   5.623  24.784  0.2528 -0.2537  0.4646
17135W        W60229  26.356   5.338  25.731  0.0930 -0.1575 -0.1412
17136W        W60230  28.936   7.132  25.629  0.1637 -0.1958 -0.3477
17137W        W60231  26.195   3.523  25.386 -0.3358  0.2819 -0.0789
17138W        W60232  28.484   6.048  23.623  0.1725  0.1116  0.3956
17139W        W60233  27.192   4.561  25.126  0.0280  0.2532 -0.2271
17140W        W60234  26.286   8.009  24.730  0.2967 -0.0088  0.1276
17141W        W60235  27.381   5.098  25.167  0.1299  0.0528  0.2090
17142W        W60236  28.504   8.066  26.330  0.1862 -0.1301 -0.1137
17143W        W60237  25.665   4.057  25.129 -0.0963 -0.0585  0.0130
17144W        W60238  27.527   7.171  26.538  0.0208 -0.1259  0.1911
17145W        W60239  27.989   5.266  25.665  0.0230 -0.3675 -0.0600
17146W        W60240  27.261   2.643  24.682 -0.0279  0.0301  0.0526
17147W        W60241  26.706   4.907  26.464  0.1318  0.0153  0.1040
17148W        W60242  24.507   8.529  25.725  0.0306 -0.2063  0.0838
17149W        W60243  28.284   3.937  26.268 -0.0483 -0.0106  0.3284
17150W        W60244  27.385   3.978  25.961 -0.0533 -0.0708 -0.1760
17151W        W60245  25.529   5.901  22.950 -0.1151  0.0938 -0.1511
17152W        W60246  28.537   3.915  27.310  0.0791  0.3641  0.1743
17153W        W60247  27.760   6.650  25.257  0.1615  0.0052 -0.1151
17154W        W60248  26.652   4.802  27.342 -0.0403  0.0245 -0.0014
17155W        W60249  26.141   4.437  22.905 -0.1853  0.1455 -0.1800
17156W        W60250  26.670   5.545  27.130 -0.2542 -0.4197 -0.0895
17157W        W60251  26.145   7.139  24.211  0.2728  0.1030  0.0289
17158W        W60252  26.198   6.724  23.632 -0.1705 -0.2549 -0.1703
17159W        W60253  28.217   6.033  24.971  0.0308  0.3246  0.0012
17160W        W60254  26.790   6.766  25.354  0.1266  0.1797  0.2849
17161W        W60255  29.132   5.969  24.290  0.0811 -0.0652 -0.0143
17162W        W60256  25.821   3.313  25.660 -0.0865 -0.0007  0.0584
17163W        W60257  27.564   4.675  24.842  0.4730 -0.2520  0.1405
17164W        W60258  28.640   3.540  25.353 -0.0759 -0.1496  0.2398
17165W        W60259  26.250   6.293  26.325 -0.2602 -0.0796 -0.0014
17166W        W60260  25.957   5.687  23.511 -0.2318  0.0598 -0.0873
17167W        W60261  25.276   6.403  23.203 -0.0943  0.2986 -0.1800
17168W        W60262  26.909   6.938  25.865  0.1829  0.4077  0.1100
17169W        W60263  26.560   4.117  26.429 -0.0260  0.2434 -0.2258
17170W        W60264  25.628   5.795  26.733  0.0324  0.3049 -0.1389
17171W        W60265  25.710   5.920  24.399 -0.0016 -0.0159 -0.1636
17172W        W60266  26.095   3.340  24.744  0.1296  0.1374  0.1963
17173W        W60267  29.294   5.362  23.137  0.0491  0.1167 -0.1779
17174W        W60268  26.416   2.514  25.742 -0.0528  0.0396 -0.0438
17175W        W60269  24.903   3.593  25.620  0.2842  0.1502 -0.0191
17176W        W60270  26.946   7.423  24.628  0.2167  0.0016  0.2202
17177W        W60271  28.256   6.492  25.212 -0.1606 -0.1523 -0.1313
17178W        W60272  27.103   4.356  25.788  0.0918  0.2774 -0.0711
17179W        W60273  28.614   7.608  26.680 -0.1277 -0.2611  0.0279
17180W        W60274  25.194   8.341  22.279 -0.1276 -0.0888 -0.0514
17181W        W60275  27.050   5.162  27.460 -0.1869 -0.4766 -0.2132
17182W        W60276  26.044   5.014  27.302 -0.3793 -0.1646  0.2410
17183W        W60277  25.250   3.345  21.957 -0.1383  0.3526  0.0396
17184W        W60278  26.792   5.469  26.653 -0.0176  0.0062  0.1199
17185W        W60279  26.651   7.097  25.003 -0.0621  0.1661 -0.4894
17186W        W60280  27.341   6.776  22.718 -0.1426 -0.0462  0.1476
17187W        W60281  26.492   6.064  25.972  0.2954  0.2755  0.1698
17188W        W60282  27.745   7.770  25.875  0.1851 -0.1975 -0.1944
17189W        W60283  25.207   3.771  26.877  0.2149 -0.1403  0.1148
17190W        W60284  26.727   4.702  24.748  0.0149 -0.3260 -0.3247
17191W        W60285  26.450   6.413  27.110 -0.0589 -0.0247  0.2707
17192W        W60286  28.592   5.501  23.773 -0.0605 -0.1743  0.0408
17193W        W60287  28.659   3.063  26.576  0.0203  0.0036  0.1664
17194W        W60288  25.469   5.526  23.335 -0.0825 -0.1858 -0.3238
17195W        W60289  26.043   3.683  27.370  0.1602 -0.1598  0.2147
17196W        W60290  26.125   5.825  25.660  0.3151 -0.0414  0.2341
17197W        W60291  28.548   5.655  26.591 -0.3532  0.2601 -0.2206
17198W        W60292  25.568   4.739  23.868 -0.1393  0.1765 -0.0473
17199W        W60293  28.642   3.771  24.898 -0.1982  0.1367  0.0195
17200W        W60294  26.816   6.926  24.520 -0.3092  0.0127 -0.3498
17201W        W60295  26.910   4.141  25.351 -0.0330 -0.1850  0.1814
17202W        W60296  26.145   4.557  24.289 -0.1186  0.4328 -0.4022
17203W        W60297  26.662   6.268  25.237 -0.1544  0.0416 -0.0586
17204W        W60298  28.727   6.891  25.030 -0.2631  0.3212 -0.0242
17205W        W60299  26.348   6.765  27.467 -0.0652 -0.3405 -0.0154
17206W        W60300  26.481   4.937  22.948  0.0703  0.1083 -0.1247
17207W        W60301  29.444   6.049  23.889 -0.2770 -0.1794  0.0657
17208W        W60302  27.104   8.836  26.494 -0.1919  0.0448 -0.2873
17209W        W60303  27.922   8.390  26.789  0.0752 -0.2208 -0.2361
17210W        W60304  28.718   7.370  24.712 -0.2765  0.2183 -0.1940
17211W        W60305  27.767   5.840  24.307 -0.0167 -0.0441 -0.1275
17212W        W60306  25.790   3.121  26.579 -0.0023 -0.0317  0.0814
17213W        W60307  25.338   4.971  24.680 -0.0515 -0.3050 -0.5800
17214W        W60308  25.765   4.881  25.532 -0.1654  0.0651 -0.0566
17215W        W60309  29.214   3.966  26.072 -0.1368 -0.0049  0.0677
17216W        W60310  25.518   4.617  26.334 -0.1662  0.0548  0.0741
17217W        W60311  27.377   3.937  24.321 -0.1215  0.1420  0.0800
17218W        W60312  26.724   8.664  27.382 -0.2739  0.3266 -0.0132
17219W        W60313  29.047   6.198  25.510  0.0176  0.0732 -0.3045
17220W        W60314  28.207   6.725  29.209 -0.1768  0.1176  0.0457
17221W        W60315  28.162   5.033  28.237 -0.0712  0.2486 -0.2186
17222W        W60316  28.283   4.327  26.599  0.1870  0.0243 -0.0231
17223W        W60317  29.227   6.083  27.933 -0.0021  0.1663 -0.1044
17224W        W60318  26.885   4.633  28.999 -0.1285  0.1911 -0.0956
17225W        W60319  28.380   7.660  28.344 -0.0132 -0.1285 -0.0007
17226W        W60320  27.243   4.161  30.713  0.0823 -0.1298  0.2117
17227W        W60321  27.850   5.890  28.979 -0.2220  0.2273 -0.2094
17228W        W60322  29.843   5.883  28.857  0.2231 -0.0604  0.1340
17229W        W60323  29.752   7.666  25.981 -0.2458 -0.1133  0.1738
17230W        W60324  27.295   3.778  29.353  0.0586 -0.0107 -0.3338
17231W        W60325  26.048   7.125  29.307  0.3271  0.0325 -0.1418
17232W        W60326  27.858   3.936  27.581 -0.0251  0.0889  0.2378
17233W        W60327  25.627   3.623  29.280 -0.5689  0.0126  0.2198
17234W        W60328  28.595   5.731  29.380  0.1787  0.2267  0.0655
17235W        W60329  25.953   4.990  29.134  0.2319 -0.1458 -0.2531
17236W        W60330  25.935   5.048  30.398 -0.3010 -0.2669 -0.1322
17237W        W60331  26.380   4.742  29.101  0.0153  0.1465 -0.0087
17238W        W60332  27.379   7.529  28.613 -0.0604  0.1033 -0.2979
17239W        W60333  26.933   4.019  30.334 -0.0948 -0.0433  0.0640
17240W        W60334  27.763   4.523  30.392  0.0070  0.1097 -0.0675
17241W        W60335  26.906   6.273  29.162 -0.1399 -0.1173  0.1602
17242W        W60336  26.568   5.059  28.120  0.2668  0.0719  0.0732
17243W        W60337  27.130   5.109  28.804  0.3458 -0.1159  0.2046
17244W        W60338  28.231   6.226  29.395  0.0863 -0.0016  0.0590
17245W        W60339  29.315   4.474  30.046  0.3532 -0.3152 -0.2613
17246W        W60340  29.309   5.629  28.773  0.2396 -0.0869  0.1867
17247W        W60341  26.279   6.354  30.470 -0.2485  0.0228  0.1826
17248W        W60342  27.284   7.156  29.080 -0.2548  0.0449 -0.1410
17249W        W60343  29.070   5.104  31.057  0.2635 -0.0543 -0.0067
17250W        W60344  25.475   5.784  29.822  0.3543 -0.1652  0.1625
17251W        W60345  25.613   7.669  29.559 -0.2121  0.0947 -0.1570
17252W        W60346  26.881   6.315  28.053 -0.3159 -0.1481  0.0531
17253W        W60347  27.850   6.804  26.682 -0.3197  0.0945  0.2371
17254W        W60348  28.168   5.701  30.122 -0.3571 -0.2216  0.1296
17255W        W60349  25.132   7.267  30.079  0.3063  0.0336 -0.1179
17256W        W60350  25.980   7.055  26.559 -0.0870 -0.3851  0.1261
17257W        W60351  26.700   8.700  29.696  0.2203  0.0052 -0.1596
17258W        W60352  26.801   7.016  29.769  0.0285  0.0370 -0.2095
17259W        W60353  27.946   5.489  28.712  0.3060 -0.3114  0.0068
17260W        W60354  28.698   4.692  29.276  0.0293 -0.0340  0.0279
17261W        W60355  26.127   5.810  27.872  0.0398  0.2524 -0.1027
17262W        W60356  29.160   5.396  28.374  0.0473 -0.1536  0.0892
17263W        W60357  27.051   6.155  30.839  0.1123  0.0006  0.0824
17264W        W60358  25.877   6.008  29.606  0.2642  0.2511 -0.1209
17265W        W60359  29.096   5.462  30.318 -0.2438 -0.1019  0.0903
17266W        W60360  25.544   7.308  28.574  0.1256 -0.0446 -0.1456
17267W        W60361  29.068   4.678  27.311 -0.2003 -0.1541 -0.1837
17268W        W60362  27.812   4.586  26.650 -0.0239 -0.0473 -0.1836
17269W        W60363  27.829   4.730  27.203 -0.2505  0.7216 -0.2709
17270W        W60364  28.101   3.981  29.760  0.0326 -0.0065  0.1470
17271W        W60365  26.520   7.099  29.037  0.0398 -0.3392  0.1851
17272W        W60366  27.916   3.999  29.004 -0.4142 -0.1154 -0.0012
17273W        W60367  28.617   7.296  29.366 -0.3567 -0.0919  0.2266
17274W        W60368  27.167   5.675  27.538 -0.2304 -0.3441 -0.0126
17275W        W60369  26.462   6.331  30.956 -0.2961 -0.1811 -0.1941
17276W        W60370  27.757   4.828  29.442  0.1809 -0.0567 -0.0400
17277W        W60371  27.039   4.033  29.005 -0.0926 -0.1319 -0.0061
17278W        W60372  28.526   7.500  26.195  0.1001 -0.1216  0.0978
17279W        W60373  29.328   7.110  28.733 -0.0934 -0.0733 -0.4730
17280W        W60374  27.211   6.116  26.121  0.1035  0.1467 -0.1201
17281W        W60375  26.165   4.774  28.199  0.4752  0.0523  0.1844
17282W        W60376  27.359   7.234  29.913  0.1232 -0.0477 -0.1685
17283W        W60377  25.188   5.068  30.896  0.2944 -0.0264 -0.2695
17284W        W60378  27.381   4.044  25.444 -0.2392 -0.0895 -0.2793
17285W        W60379  28.104   7.111  31.818  0.0724 -0.0290 -0.0211
17286W        W60380  26.671   7.573  30.818 -0.0960 -0.0302 -0.1657
17287W        W60381  29.534   4.533  28.163 -0.0152  0.0372 -0.0549
17288W        W60382  27.041   5.179  29.869 -0.3844 -0.1424 -0.1534
17289W        W60383  28.845   6.852  28.678 -0.0950  0.1041 -0.0134
17290W        W60384  28.823   5.601  27.014  0.0702 -0.0110 -0.2436
17291W        W60385  29.061   4.185  30.538 -0.1585 -0.1498 -0.1156
17292W        W60386  28.775   4.730  30.223 -0.0093 -0.0384 -0.1464
17293W        W60387  27.130   7.942  25.905  0.0802  0.0522 -0.0467
17294W        W60388  27.387   6.055  29.026 -0.2144  0.0458  0.0144
17295W        W60389  28.207   7.064  29.570 -0.1767 -0.3129 -0.0759
17296W        W60390  29.293   5.226  29.553  0.1228 -0.0922 -0.0163
17297W        W60391  24.761   6.368  29.613 -0.0015 -0.0130 -0.1323
17298W        W60392  28.632   3.859  29.799  0.2086  0.1818  0.0030
17299W        W60393  27.718   6.998  30.553 -0.1278 -0.0865 -0.0102
17300W        W60394  26.344   8.088  29.229 -0.1897  0.0615 -0.0968
17301W        W60395  25.139   6.003  28.535 -0.0739 -0.0916  0.0682
17302W        W60396  25.413   4.736  27.098 -0.2122 -0.0144 -0.1144
17303W        W60397  25.332   3.851  28.694 -0.2569  0.1180 -0.1164
17304W        W60398  27.891   6.801  30.997 -0.0650  0.1347 -0.0106
17305W        W60399  29.777   5.021  27.477  0.0232  0.1242 -0.0433
17306W        W60400  26.028   5.219  29.956 -0.0791  0.3414 -0.0570
17307W        W60401  28.552   4.597  28.388  0.0106 -0.1137  0.3382
17308W        W60402  25.986   5.699  28.559 -0.0645 -0.1133  0.4144
17309W        W60403  28.686   7.230  27.369 -0.0607 -0.0454  0.0650
17310W        W60404  29.771   6.294  28.268  0.0243 -0.1891  0.0906
17311W        W60405  27.071   6.279  26.638 -0.5278 -0.0250 -0.0516
17312W        W60406  26.362   4.435  29.620  0.2631  0.0394  0.1105
17313W        W60407  26.831   5.559  29.027  0.2041  0.0422 -0.0059
17314W        W60408  26.422   4.276  30.222  0.1570 -0.0502 -0.0616
17315W        W60409  26.565   3.830  29.349  0.2668 -0.0144 -0.0266
17316W        W60410  28.498   5.997  29.834  0.1216  0.2024 -0.0578
17317W        W60411  25.926   4.437  29.277 -0.0984 -0.2750 -0.2575
17318W        W60412  28.836   5.007  28.919 -0.3899 -0.4560  0.3110
17319W        W60413  25.341   5.119  29.067  0.0483 -0.0783 -0.0590
17320W        W60414  26.390   6.212  27.955 -0.1062 -0.2374  0.1824
17321W        W60415  27.258   4.731  29.825 -0.2599 -0.0422 -0.3486
17322W        W60416  27.283   6.186  28.347 -0.0666  0.0309  0.3241
17323W        W60417  28.162   6.982  30.195 -0.3359 -0.0852  0.1072
17324W        W60418  28.637   7.017  27.857 -0.2943 -0.0268  0.0514
17325W        W60419  27.009   4.954  30.318 -0.3943 -0.3697 -0.2515
17326W        W60420  26.036   5.513  27.487  0.0151  0.1716 -0.2972
17327W        W60421  26.406   8.402  30.033 -0.1252  0.4556  0.2153
17328W        W60422  27.801   6.802  29.420  0.1226  0.1522 -0.0872
17329W        W60423  25.522   5.123  27.449 -0.2556 -0.3795  0.1336
17330W        W60424  29.040   7.841  28.971 -0.0686 -0.0540  0.1448
17331W        W60425  27.596   6.247  27.404 -0.1641 -0.3196  0.0792
17332W        W60426  26.528   5.425  30.208  0.2132  0.2900 -0.1781
17333W        W60427  27.675   3.396  29.445 -0.0132 -0.4201 -0.4913
17334W        W60428  28.676   6.709  29.057  0.0943 -0.4099 -0.1844
17335W        W60429  29.006   4.597  29.704  0.2884  0.0526 -0.0145
17336W        W60430  25.685   3.910  27.768  0.2738 -0.0623 -0.1370
17337W        W60431  26.456   6.691  28.841 -0.0354 -0.0358  0.0424
17338W        W60432  25.097   5.491  27.499 -0.2814 -0.0039 -0.0076
17339W        W60433  24.270   4.823  29.067  0.0077 -0.1865 -0.0035
17340W        W60434  25.818   6.793  28.963 -0.1237  0.0124  0.0031
17341W        W60435  29.618   4.994  28.577 -0.0787  0.2211 -0.3025
17342W        W60436  25.374   4.013  30.048 -0.1205 -0.0595  0.1056
17343W        W60437  28.055   5.193  30.192 -0.0109  0.2306 -0.0554
17344W        W60438  25.181   4.035  28.185 -0.1934  0.1822  0.0123
17345W        W60439  25.473   5.954  29.278 -0.2018 -0.0610 -0.1454
17346W        W60440  28.990   4.786  27.841 -0.2825 -0.0162 -0.2154
17347W        W60441  29.204   4.372  26.855  0.0132  0.0823 -0.0348
17348W        W60442  28.096   7.197  31.307  0.4802  0.1484 -0.0207
17349W        W60443  28.490   5.971  26.986  0.2187  0.1718 -0.1762
17350W        W60444  27.473   4.928  26.902  0.2825 -0.1237 -0.0092
17351W        W60445  28.072   3.148  27.659 -0.1437  0.0207 -0.1150
17352W        W60446  24.608   6.261  30.054 -0.2233 -0.0223 -0.0747
17353W        W60447  28.484   5.670  27.396 -0.2420 -0.0013  0.2975
17354W        W60448  27.570   5.420  29.623 -0.0972 -0.0331  0.1757
17355W        W60449  26.968   3.593  27.060 -0.1617  0.0495 -0.0249
17356W        W60450  29.285   6.309  27.387 -0.2729 -0.0079  0.0056
17357W        W60451  25.488   6.832  30.867 -0.1664  0.2462  0.0609
17358W        W60452  28.873   6.542  30.616 -0.0425 -0.0593 -0.0158
17359W        W60453  27.768   6.712  28.250  0.0184 -0.0587 -0.0587
17360W        W60454  27.811   4.505  28.942 -0.2875 -0.1514  0.0813
17361W        W60455  26.300   5.721  26.364  0.0979 -0.0527 -0.2022
17362W        W60456  26.801   4.759  29.465 -0.0161  0.2876  0.1829
17363W        W60457  24.988   6.658  28.343 -0.2269  0.0138 -0.0474
17364W        W60458  28.142   4.301  30.138 -0.2298 -0.2593  0.2127
17365W        W60459  29.798   5.269  28.961 -0.1565  0.3377 -0.0208
17366W        W60460  28.110   4.488  29.675 -0.2082 -0.0361  0.0069
17367W        W60461  29.335   5.813   0.037 -0.3869 -0.0948 -0.1186
17368W        W60462  29.540   4.749  27.086  0.2339 -0.0658  0.0959
17369W        W60463  28.290   5.841  28.684 -0.0522 -0.1584  0.0494
17370W        W60464  25.660   5.518  27.210  0.0419 -0.3555  0.0237
17371W        W60465  27.842   4.791  29.937 -0.0277  0.1079  0.0568
17372W        W60466  26.570   5.303  30.891 -0.0316 -0.2242 -0.0369
17373W        W60467  26.589   6.542  29.708  0.0793 -0.2854 -0.3286
17374W        W60468  28.078   5.142  31.161 -0.0763  0.0187 -0.0444
17375W        W60469  29.460   5.984  29.523 -0.1176  0.2540 -0.0176
17376W        W60470  28.625   5.271  30.252 -0.1487  0.2223 -0.1794
17377W        W60471  28.025   6.219  27.650  0.0124  0.0393  0.0524
17378W        W60472  26.820   5.377  28.484  0.0090  0.1203 -0.1967
17379W        W60473  26.538   5.446  27.644 -0.0330  0.0741 -0.0909
17380W        W60474  27.558   3.549  28.956 -0.2012 -0.3121  0.1251
17381W        W60475  26.640   5.788  29.401 -0.0842 -0.4161 -0.3128
17382W        W60476  25.735   6.276  26.599 -0.1302  0.1382  0.2304
17383W        W60477  27.761   6.352  29.191  0.1102  0.2173 -0.0829
17384W        W60478  26.543   7.435  27.953 -0.1607 -0.1407  0.2947
17385W        W60479  28.503   4.313  29.583 -0.1238 -0.1910  0.0288
17386W        W60480  25.658   6.878  29.533  0.0252  0.2166  0.3502
17387W        W60481  28.227   5.139  27.445 -0.4068 -0.3717 -0.2950
17388W        W60482  25.003   4.988  27.313 -0.0558  0.0133  0.1700
17389W        W60483  29.316   5.576  27.912  0.2631 -0.4212  0.0883
17390W        W60484  29.668   7.441  26.864 -0.0251  0.1689 -0.1984
17391W        W60485  26.515   2.954  30.138 -0.1406 -0.1066  0.2202
17392W        W60486  28.107   3.138  30.328  0.0443 -0.3484  0.0264
17393W        W60487  25.311   6.390  29.637  0.4213  0.0704  0.2830
17394W        W60488  28.171   5.459  29.148 -0.0398 -0.1418  0.1826
17395W        W60489  29.036   4.396  28.133  0.0622 -0.4449 -0.1793
17396W        W60490  25.983   7.077  31.164  0.2584  0.3614 -0.2840
17397W        W60491  27.896   4.612  31.832 -0.0091 -0.1308  0.2006
17398W        W60492  27.554   4.808  28.176 -0.2321  0.4128  0.3930
17399W        W60493  29.267   5.189  29.016  0.0224 -0.0394  0.0473
17400W        W60494  26.228   5.367  28.256  0.2487 -0.0247 -0.0860
17401W        W60495  25.717   5.357  28.295 -0.1435 -0.0323  0.2766
17402W        W60496  28.108   7.435  29.907  0.1406 -0.2678  0.2535
17403W        W60497  25.618   4.883  29.477  0.0004 -0.1248 -0.0222
17404W        W60498  25.251   7.038  27.957  0.1806  0.0570 -0.0083
17405W        W60499  26.756   4.149  29.819  0.0019 -0.1590 -0.1440
17406W        W60500  27.434   5.975  29.959 -0.2152  0.3299  0.1009
17407W        W60501  28.377   4.862  29.910 -0.0314  0.4333  0.2406
17408W        W60502  26.863   5.699  29.933 -0.0632 -0.0982  0.2352
17409W        W60503  27.467   5.144  30.095  0.1183 -0.0681  0.3363
17410W        W60504  29.511   7.025  27.986  0.0215  0.1422  0.6340
17411W        W60505  27.820   4.955  30.613  0.1551  0.1317  0.3680
17412W        W60506  27.796   5.533  30.627 -0.0944  0.2941  0.1347
17413W        W60507  28.618   3.990  28.360  0.3774  0.2087 -0.1699
17414W        W60508  29.210   7.264  27.179 -0.1529 -0.0509 -0.1919
17415W        W60509  28.046   5.761  29.527  0.2971 -0.3226  0.1647
17416W        W60510  26.996   5.403  27.910 -0.1233 -0.1172  0.0981
17417W        W60511  24.411   4.861  30.463  0.1302  0.0667  0.2795
17418W        W60512  26.719   5.917  28.226 -0.1287  0.1611 -0.0399
17419W        W60513  28.026   5.003  28.998  0.0139 -0.1019  0.1235
17420W        W60514  25.018   5.877  29.620  0.0086 -0.0520  0.3801
17421W        W60515  27.225   5.484  27.024  0.0006 -0.2558  0.1467
17422W        W60516  26.209   5.914  30.740 -0.1862  0.0650 -0.1733
17423W        W60517  28.892   3.765  28.893 -0.0471 -0.1044 -0.1557
17424W        W60518  25.886   5.968  26.262 -0.0598 -0.0933  0.2740
17425W        W60519  28.634   5.069  28.365  0.0765 -0.0168 -0.3218
17426W        W60520  30.434   5.092  31.105  0.0519 -0.2477  0.1455
17427W        W60521  27.785   5.800  27.287  0.0574 -0.0994 -0.1488
17428W        W60522  29.832   3.352  30.522  0.1279 -0.0662  0.0274
17429W        W60523  26.964   3.243  28.313 -0.1013 -0.1246  0.0432
17430W        W60524  28.799   5.551  28.838  0.1803 -0.1093  0.0567
17431W        W60525  25.926   4.465  30.995 -0.1191  0.2993  0.0049
17432W        W60526  27.966   6.689  31.488  0.1743  0.0785 -0.0611
17433W        W60527  26.362   5.078  31.326 -0.0989 -0.1804  0.4569
17434W        W60528  27.951   5.484  27.658  0.0363 -0.0018  0.1032
17435W        W60529  26.336   4.973  27.696  0.0415 -0.2387  0.1502
17436W        W60530  26.795   6.775  29.256 -0.2594 -0.1451 -0.3000
17437W        W60531  28.977   6.413  29.274  0.0948 -0.0686 -0.0453
17438W        W60532  26.888   6.063  27.099 -0.1935  0.0020 -0.0642
17439W        W60533  30.057   5.799  28.407 -0.3512  0.0123 -0.0800
17440W        W60534  27.051   5.872  31.251  0.1982  0.1531 -0.1497
17441W        W60535  28.204   5.848  27.950 -0.0063 -0.1067 -0.0250
17442W        W60536  26.761   5.901  27.688  0.1929  0.1156 -0.2034
17443W        W60537  27.308   5.631  28.747  0.1451  0.1628 -0.1546
17444W        W60538  28.198   3.714  30.630 -0.0606  0.0088  0.4503
17445W        W60539  27.224   4.655  28.586  0.2625  0.0632 -0.2756
17446W        W60540  28.220   4.388  29.193  0.0079  0.0775  0.0395
17447W        W60541  29.681   5.462  28.347 -0.2488 -0.0560  0.3039
17448W        W60542  27.221   5.252  31.414 -0.1005 -0.0942 -0.0192
17449W        W60543  27.556   6.535  30.763  0.1987  0.0015  0.0808
17450W        W60544  27.775   4.509  30.934 -0.1265 -0.2306 -0.1386
17451W        W60545  29.016   6.414  28.285  0.1123  0.0750  0.2267
17452W        W60546  30.427   4.242  28.399 -0.0395 -0.0058  0.0524
17453W        W60547  28.217   5.758  30.619 -0.1565 -0.0501 -0.2088
17454W        W60548  28.977   5.931  28.520  0.1673 -0.1709  0.2414
17455W        W60549  27.923   5.073  26.928 -0.2701 -0.1987 -0.0255
17456W        W60550  26.334   5.533  29.731  0.0425  0.4227 -0.2447
17457W        W60551  28.587   5.511  29.857  0.1751 -0.1382  0.1299
17458W        W60552  26.590   4.288  27.270  0.0560 -0.0433  0.0060
17459W        W60553  27.419   5.247  30.558  0.0809 -0.3292  0.1365
17460W        W60554  29.055   7.011  28.204 -0.1941  0.0806  0.0648
17461W        W60555  28.350   5.335  27.892 -0.1683  0.2146 -0.1562
17462W        W60556  29.659   4.128  27.711  0.2297  0.3287  0.0214
17463W        W60557  27.641   4.304  29.366  0.2254 -0.0866 -0.1581
17464W        W60558  25.009   6.462  30.768 -0.2307 -0.0300  0.1818
17465W        W60559  26.807   4.417  26.790 -0.0311  0.0181 -0.0958
17466W        W60560  27.627   6.403  27.870 -0.3871 -0.1706 -0.0018
17467W        W60561  28.283   6.185  30.279 -0.0507  0.2393 -0.1617
17468W        W60562  29.089   6.470   0.422 -0.3525  0.1519 -0.2284
17469W        W60563  27.537   3.887  27.010 -0.0633  0.0571 -0.1544
17470W        W60564  29.586   5.422  29.899  0.1224 -0.0276  0.0102
17471W        W60565  25.523   5.798  28.235 -0.2093  0.2521  0.3797
17472W        W60566  27.716   3.533  27.861  0.0505 -0.2586  0.0878
17473W        W60567  26.345   6.215  29.422 -0.1504 -0.0572 -0.0799
17474W        W60568  25.118   6.115  30.045  0.1350  0.1369  0.1429
17475W        W60569  27.203   6.207  27.716  0.1792  0.1433  0.2287
17476W        W60570  28.398   5.242  28.769 -0.0645 -0.2254 -0.0597
17477W        W60571  28.131   4.237  30.652 -0.0490  0.0991 -0.2063
17478W        W60572  27.856   5.510  28.193  0.0734 -0.2018 -0.0822
17479W        W60573  29.474   5.765  30.576 -0.3550  0.1110 -0.0832
17480W        W60574  28.233   6.277  28.923  0.1777 -0.0938 -0.2238
17481W        W60575  26.727   6.141  30.315  0.0477  0.0802 -0.1041
17482W        W60576  28.350   6.513  31.174  0.0936  0.3598 -0.0662
17483W        W60577  29.925   6.827  28.258  0.1174 -0.1165  0.4836
17484W        W60578  26.628   6.360  28.465 -0.0280  0.0305  0.1053
17485W        W60579  25.254   4.397  30.298  0.1072 -0.2739 -0.2270
17486W        W60580  27.631   7.253  30.992 -0.2628 -0.0705 -0.0365
17487W        W60581  28.157   6.788  28.649  0.0041 -0.1005  0.1900
17488W        W60582  25.925   4.648  27.632 -0.2268  0.0064  0.2807
17489W        W60583  26.731   6.397  27.514  0.0931  0.3390 -0.0766
17490W        W60584  24.441   5.699  31.190 -0.1532 -0.3322 -0.2112
17491W        W60585  27.898   6.249  31.230  0.2030  0.1565 -0.0799
17492W        W60586  24.976   7.519  26.676  0.1589  0.2706  0.3926
17493W        W60587  28.691   6.406  27.109 -0.1524 -0.0467 -0.0032
17494W        W60588  29.472   4.642  27.657  0.0083  0.1189 -0.0541
17495W        W60589  28.197   8.258  30.179  0.0014  0.1006  0.0223
17496W        W60590  27.497   5.271  27.835 -0.0119 -0.4167 -0.2321
17497W        W60591  26.048   7.180  27.564 -0.0971  0.0428  0.1042
17498W        W60592  25.909   7.224  27.024 -0.3007  0.1309 -0.0038
17499W        W60593  27.228   6.650  28.199 -0.2897  0.2300 -0.0767
17500W        W60594  26.973   7.266  27.723 -0.3079  0.0915 -0.1274
17501W        W60595  27.932   6.126   0.793 -0.0329  0.0060 -0.1464
17502W        W60596  30.396   4.990  27.154  0.0783 -0.0961  0.1230
17503W        W60597  29.460   5.884  28.380  0.0517  0.2649  0.0716
17504W        W60598  29.359   4.014  28.082  0.2249  0.0563  0.2134
17505W        W60599  26.826   7.758  31.260 -0.3615 -0.3917 -0.0745
17506W        W60600  27.611   5.249  31.038  0.1669  0.1862  0.1882
17507W        W60601  26.181   4.050  27.070 -0.1451 -0.2327 -0.0713
17508W        W60602  26.428   5.824   0.093  0.2209 -0.1646  0.0549
17509W        W60603  28.541   3.980  30.317 -0.4032 -0.3300 -0.1567
17510W        W60604  26.084   6.588  31.196  0.1013 -0.0039 -0.3338
17511W        W60605  29.525   7.796  26.508 -0.1055 -0.1586 -0.1867
17512W        W60606  25.749   4.248  27.318  0.2012 -0.0101  0.1338
17513W        W60607  28.180   6.446  28.060 -0.0870 -0.4293  0.0674
17514W        W60608  29.425   3.346  28.987 -0.2232  0.3428 -0.1525
17515W        W60609  26.737   6.044  26.397  0.0911  0.1762  0.4224
17516W        W60610  27.354   4.764  29.153 -0.0327 -0.0402 -0.0580
17517W        W60611  26.038   7.001  30.232 -0.0865 -0.1626  0.3759
17518W        W60612  26.870   6.577  30.592 -0.0477  0.1343  0.1357
17519W        W60613  26.028   7.644  29.256  0.3259 -0.1554 -0.0377
17520W        W60614  25.999   4.241  28.353  0.1860  0.0719 -0.1760
17521W        W60615  29.187   4.630  29.181 -0.0447  0.0500  0.0913
17522W        W60616  26.063   5.075  30.870  0.0134 -0.0745  0.0805
17523W        W60617  28.463   3.844  29.286  0.0253 -0.1124 -0.0402
17524W        W60618  27.032   4.971  28.302  0.2812  0.1334 -0.3419
17525W        W60619  28.919   5.965  27.353 -0.1568  0.0738  0.1085
17526W        W60620  27.752   6.945  29.957  0.1312 -0.2592 -0.1983
17527W        W60621  26.962   5.436  30.402 -0.0022 -0.0565 -0.0446
17528W        W60622  26.055   5.576  26.943  0.2499  0.1688  0.1875
17529W        W60623  28.610   6.544   0.573  0.2227 -0.0250 -0.0031
17530W        W60624  27.732   6.821  26.183 -0.2902  0.0666 -0.0672
17531W        W60625  26.617   8.117  30.386  0.2052  0.0942 -0.0532
17532W        W60626  26.955   4.397  27.577  0.0846  0.2856 -0.1076
17533W        W60627  28.878   5.255  27.891 -0.1246  0.3837 -0.0341
17534W        W60628  25.351   5.153  28.091  0.2581 -0.2737  0.0824
17535W        W60629  26.058   4.538  30.452  0.1876  0.0279 -0.2785
17536W        W60630  27.470   8.238  29.854 -0.0257  0.2856 -0.1830
17537W        W60631  25.974   4.623  28.730  0.1816  0.2465 -0.2803
17538W        W60632  30.270   6.162  27.606  0.1214 -0.1026  0.0801
17539W        W60633  27.849   3.889  30.297 -0.1215 -0.1012 -0.0360
17540W        W60634  24.363   6.919  27.686  0.3487  0.0555  0.2310
17541W        W60635  28.183   5.514  27.014  0.2243  0.0121  0.0099
17542W        W60636  28.143   7.233  30.740  0.2271  0.1059 -0.0833
17543W        W60637  26.766   4.661  29.976  0.0913  0.0487  0.1608
17544W        W60638  28.639   7.083  29.779  0.5467 -0.3082 -0.2832
17545W        W60639  29.101   7.127  27.670 -0.1160  0.1480  0.4218
17546W        W60640  27.593   5.229  27.334  0.1202 -0.0172 -0.0033
17547W        W60641  25.603   4.869  29.963 -0.1208  0.2074 -0.0983
17548W        W60642  26.390   6.963  26.992  0.0533  0.0420 -0.0354
17549W        W60643  29.084   4.100  28.549 -0.1901  0.2285  0.0696
17550W        W60644  28.124   5.308  29.702 -0.0725  0.0642  0.0761
17551W        W60645  25.560   7.446  27.657 -0.1466  0.3216 -0.0993
17552W        W60646  28.289   4.729  30.448 -0.1932  0.3042  0.1109
17553W        W60647  25.958   6.550  29.770 -0.0228 -0.1085 -0.1317
17554W        W60648  27.155   7.200  31.167 -0.0144  0.1833 -0.1721
17555W        W60649  25.892   5.103  27.910  0.1210  0.0921 -0.0930
17556W        W60650  27.678   5.583  30.149  0.3363 -0.2935  0.3037
17557W        W60651  26.452   5.808  28.681 -0.0101 -0.2041  0.1647
17558W        W60652  27.236   6.489  28.759 -0.1278 -0.0889  0.2182
17559W        W60653  27.746   5.927  28.456 -0.2380  0.1947  0.0276
17560W        W60654  28.817   5.786  27.805 -0.1357  0.0858  0.3901
17561W        W60655  30.348   6.335  29.171  0.1655  0.1422 -0.1560
17562W        W60656  28.796   3.848  27.812  0.0337  0.2925  0.1372
17563W        W60657  28.154   3.997  28.102  0.1144  0.2112 -0.1346
17564W        W60658  27.348   2.393  29.390  0.0396  0.1077  0.2640
17565W        W60659  27.944   6.109  29.907 -0.0792 -0.0227  0.1292
17566W        W60660  24.520   5.253  28.180 -0.0690 -0.2205  0.1743
17567W        W60661  26.410   4.877  26.864 -0.1259  0.0078 -0.1317
17568W        W60662  27.577   5.881  27.881  0.1701 -0.0220 -0.2969
17569W        W60663  28.242   3.557  31.539  0.1047  0.0432  0.2053
17570W        W60664  25.526   4.658  28.933  0.0869  0.0422  0.2036
17571W        W60665  26.551   5.189  29.308  0.0283 -0.3087 -0.1703
17572W        W60666  25.240   3.363  28.350 -0.1382 -0.0537  0.1584
17573W        W60667  28.277   6.735  26.250 -0.0906  0.3473 -0.1900
17574W        W60668  28.181   2.679  30.082  0.0446  0.0576  0.2670
17575W        W60669  26.473   3.822  28.843  0.1833 -0.2232  0.2325
17576W        W60670  28.633   6.066  28.127 -0.2492 -0.2529 -0.2525
17577W        W60671  27.496   6.939  27.861 -0.0459  0.4258 -0.2884
17578W        W60672  27.180   3.750  28.563 -0.1671 -0.2859  0.3013
17579W        W60673  28.596   7.313  31.401 -0.0403 -0.3489  0.0050
17580W        W60674  26.299   5.966  27.420 -0.3069 -0.0645 -0.0786
17581W        W60675  27.382   4.822  31.139 -0.0965 -0.4148 -0.1310
17582W        W60676  27.231   4.017  29.825 -0.0680 -0.2444  0.1809
17583W        W60677  25.195   4.137  27.406 -0.0491 -0.0013 -0.1732
17584W        W60678  27.432   5.841  30.910  0.0998 -0.0439  0.1597
17585W        W60679  27.190   6.656  27.448 -0.1482  0.2839  0.2003
17586W        W60680  27.392   6.938  28.525 -0.0784  0.1162 -0.2023
17587W        W60681  27.399   6.674  30.280 -0.0906 -0.0560  0.1583
17588W        W60682  26.237   6.681  29.260 -0.0083 -0.1555  0.0606
17589W        W60683  26.431   3.725  30.379 -0.0758  0.2976 -0.0954
17590W        W60684  29.280   5.083  27.548  0.0642 -0.1808 -0.1907
17591W        W60685  28.161   6.606  29.809  0.2320 -0.0421 -0.1426
17592W        W60686  29.833   6.297  29.128 -0.0930  0.1391  0.0705
17593W        W60687  29.129   4.904  28.521 -0.0423  0.3098 -0.2317
17594W        W60688  28.701   5.202  27.340  0.3090  0.1110  0.2188
17595W        W60689  25.940   2.544  29.131  0.0530 -0.5188  0.1203
17596W        W60690  28.015   6.262  30.731  0.2957  0.0227 -0.2403
17597W        W60691  27.283   6.221  30.393 -0.2691  0.0282  0.4976
17598W        W60692  27.455   4.197  28.778  0.0766  0.1337 -0.1846
17599W        W60693  28.552   4.255  27.895  0.0985 -0.1078  0.0816
17600W        W60694  27.460   5.937  26.960  0.3214 -0.1021 -0.0193
17601W        W60695  27.607   5.289  29.042  0.0592 -0.0065 -0.0187
17602W        W60696  28.414   4.735  28.840  0.1072  0.0421  0.1860
17603W        W60697  27.815   5.377  31.545  0.3712 -0.0005  0.1541
17604W        W60698  27.249   5.704  28.217  0.2890 -0.1936 -0.0380
17605W        W60699  28.258   5.248  30.640  0.2552 -0.0824 -0.3603
17606W        W60700  25.717   5.472  28.995  0.0826  0.0230 -0.0790
17607W        W60701  29.802   5.995  27.889  0.0439  0.0103  0.0877
17608W        W60702  27.317   6.361  29.439  0.0286  0.1278 -0.2999
17609W        W60703  28.538   8.358  30.589  0.0768 -0.1348  0.2683
17610W        W60704  26.911   6.663  30.100  0.0352 -0.1318  0.1252
17611W        W60705  28.006   4.731  28.555 -0.0335  0.3117  0.2946
17612W        W60706  27.006   4.323  29.392 -0.0797 -0.1213 -0.2248
17613W        W60707  26.971   6.213  29.805 -0.0216  0.1674 -0.6529
17614W        W60708  27.607   5.068  28.607 -0.0878 -0.3000  0.2030
17615W        W60709  28.573   6.295  28.533 -0.3252 -0.0238 -0.0816
17616W        W60710  26.893   3.566  29.562  0.2088 -0.2001  0.0595
17617W        W60711  27.487   3.170  26.357  0.1605  0.3247  0.0136
17618W        W60712  27.138   5.743  29.510  0.1494 -0.0290  0.0940
17619W        W60713  28.696   5.611  28.285 -0.0789  0.0461  0.0160
17620W        W60714  29.962   4.855  31.180 -0.1869  0.4537  0.0578
17621W        W60715  28.241   6.696  30.650  0.2739 -0.2187 -0.0667
17622W        W60716  25.629   4.803  30.846 -0.2050 -0.2126  0.1841
17623W        W60717  26.557   5.836  31.119  0.0164 -0.1453 -0.1529
17624W        W60718  26.707   6.229  31.927  0.0115  0.2536  0.0703
17625W        W60719  27.466   6.779  31.278 -0.1486 -0.1522 -0.4154
17626W        W60720  29.196   5.000  30.406  0.0311  0.0936  0.0302
17627W        W60721  27.544   4.882  31.599 -0.0747 -0.0798  0.1801
17628W        W60722  28.801   5.729  31.297 -0.0558  0.4356 -0.0743
17629W        W60723  28.458   6.716  31.685 -0.0256 -0.1532 -0.2952
17630W        W60724  28.628   5.235  31.131  0.0122 -0.0016  0.1225
17631W        W60725  27.858   4.126   0.469 -0.1482  0.2462 -0.1366
17632W        W60726  28.807   6.687  31.320 -0.0686 -0.1944  0.1666
17633W        W60727  28.062   5.444   0.006 -0.0731  0.2026  0.1396
17634W        W60728  29.514   6.113  30.921 -0.1500  0.1599  0.2197
17635W        W60729  27.137   5.460  30.941  0.1310 -0.3641  0.2625
17636W        W60730  26.716   7.094  30.700 -0.0780 -0.1555  0.0218
17637W        W60731  27.210   6.835  30.794  0.0175 -0.1058  0.1740
17638W        W60732  26.312   3.980  29.823 -0.0577  0.0369 -0.1383
17639W        W60733  27.601   4.366  31.449 -0.4241  0.1060 -0.3296
17640W        W60734  29.162   3.927   0.375 -0.2275  0.0026 -0.0502
17641W        W60735  25.846   6.283  30.831 -0.4015  0.2104 -0.0844
17642W        W60736  27.760   6.006  30.400 -0.1673  0.0642  0.1682
17643W        W60737  27.809   5.261   0.470  0.0124  0.1261  0.0124
17644W        W60738  28.047   3.387  31.069  0.2033  0.1647  0.1159
17645W        W60739  27.206   4.374  30.246  0.0264 -0.4131 -0.0982
17646W        W60740  27.502   5.750  31.464 -0.2287  0.0689 -0.0391
17647W        W60741  26.061   7.562  31.078  0.0967  0.0357 -0.1751
17648W        W60742  27.869   4.691   0.329 -0.1120  0.2863 -0.1323
17649W        W60743  27.873   5.785  31.084  0.2027  0.0881  0.2030
17650W        W60744  26.461   7.330  31.222 -0.1694  0.2796 -0.2970
17651W        W60745  26.845   3.182  31.568  0.2987  0.3112 -0.0890
17652W        W60746  29.447   6.604  30.854 -0.0713 -0.2023 -0.1717
17653W        W60747  28.642   4.444  30.574  0.1030  0.0488 -0.1442
17654W        W60748  26.970   2.599  29.785 -0.2225  0.0997  0.0660
17655W        W60749  27.009   4.481  31.007  0.0945  0.0078  0.0286
17656W        W60750  27.177   6.112  31.694  0.1283  0.0163 -0.0600
17657W        W60751  27.515   7.799  31.735 -0.0798 -0.1409  0.1706
17658W        W60752  29.527   6.649   0.023  0.5125 -0.0460  0.0535
17659W        W60753  29.439   6.436  31.401 -0.2172 -0.0279  0.2669
17660W        W60754  28.725   6.499   0.068 -0.2181 -0.0024  0.2840
17661W        W60755  29.245   5.287  31.969  0.1779  0.1628  0.2635
17662W        W60756  27.356   2.815  30.551  0.1966 -0.1564 -0.1797
17663W        W60757  28.520   5.984  31.916  0.0379 -0.1880  0.1694
17664W        W60758  26.699   2.725  31.316 -0.0044 -0.0238  0.3827
17665W        W60759  26.985   6.419   0.384 -0.2914 -0.0373 -0.0401
17666W        W60760  27.080   3.711  30.891 -0.0827 -0.1902 -0.2273
17667W        W60761  27.603   7.340  31.464 -0.1321 -0.0813 -0.1581
17668W        W60762  28.608   7.592  30.745 -0.1803  0.5130 -0.0367
17669W        W60763  23.918   6.148  30.681 -0.0621  0.2876  0.0837
17670W        W60764  29.209   5.808   0.523  0.3786  0.3861  0.0212
17671W        W60765  28.558   3.523  31.089 -0.3572 -0.2751  0.0042
17672W        W60766  27.423   4.163   1.225  0.0885  0.2692 -0.0052
17673W        W60767  27.387   6.315  31.264 -0.0868 -0.1324 -0.0413
17674W        W60768  28.039   3.762  31.916  0.1612  0.2045 -0.1183
17675W        W60769  28.280   4.997  31.568 -0.1362  0.0420 -0.0166
17676W        W60770  29.387   6.802   1.277 -0.0555  0.1771 -0.2574
17677W        W60771  27.185   7.116  31.916  0.1977 -0.3784 -0.3846
17678W        W60772  26.388   6.966  31.580  0.1231  0.0930  0.2949
17679W        W60773  26.523   4.721  31.003 -0.0214 -0.0751 -0.1203
17680W        W60774  27.238   3.311  30.670 -0.1286  0.2472  0.0545
17681W        W60775  26.125   6.033  31.251 -0.0594  0.1222 -0.1089
17682W        W60776  25.062   6.181  31.771  0.2325 -0.0924  0.1463
17683W        W60777  26.705   4.438  31.398  0.0689 -0.1392  0.0661
17684W        W60778  28.515   7.376  30.243 -0.0468 -0.4044  0.0347
17685W        W60779  28.073   7.090   0.300 -0.0393  0.0320 -0.0176
17686W        W60780  28.947   7.132   0.678  0.0086 -0.3322 -0.3147
17687W        W60781  27.651  10.249  19.720 -0.2170  0.0020  0.1008
17688W        W60782  26.320   9.184  16.927  0.2846  0.0738  0.0075
17689W        W60783  30.580   7.556  16.754 -0.6440  0.0346  0.1060
17690W        W60784  28.307   8.257  17.789 -0.1318 -0.0800  0.5196
17691W        W60785  25.720   8.018  16.598  0.2008 -0.5743 -0.1283
17692W        W60786  27.411  10.360  16.947 -0.0338 -0.0500  0.1550
17693W        W60787  25.532   7.439  18.644  0.1149 -0.1360  0.1188
17694W        W60788  27.234   9.259  18.270 -0.1635 -0.0501 -0.0535
17695W        W60789  27.653  10.698  18.588  0.0073 -0.1606  0.2902
17696W        W60790  28.846   8.784  16.410 -0.1897 -0.6190 -0.0413
17697W        W60791  26.393   9.126  19.972 -0.0786  0.1493 -0.2457
17698W        W60792  28.286  10.194  19.936 -0.1428  0.2081  0.0581
17699W        W60793  27.405   6.925  17.441 -0.5359  0.2803 -0.1536
17700W        W60794  23.866   7.046  17.401  0.0637  0.1303  0.0804
17701W        W60795  27.570   9.574  19.962  0.3080  0.0047 -0.0676
17702W        W60796  24.863   9.606  17.206 -0.0009  0.1048  0.3285
17703W        W60797  26.928   8.757  19.420 -0.0296  0.0968  0.0448
17704W        W60798  26.212   8.120  16.756  0.0601  0.1524 -0.1843
17705W        W60799  27.552  10.324  17.580  0.2054  0.3245 -0.0912
17706W        W60800  26.566   7.671  19.192  0.2164 -0.0252 -0.1367
17707W        W60801  27.011   7.149  20.502 -0.3532  0.3831 -0.0377
17708W        W60802  27.608   8.693  18.749 -0.0284  0.0107 -0.0467
17709W        W60803  25.152   9.673  16.816 -0.0128 -0.1304  0.1516
17710W        W60804  26.364   9.378  17.536  0.2314 -0.1628  0.0710
17711W        W60805  25.942   9.347  20.235  0.0116  0.0659 -0.2965
17712W        W60806  26.841   7.181  18.804 -0.0714 -0.1922 -0.0271
17713W        W60807  28.477   8.819  19.198 -0.2077 -0.0654  0.1445
17714W        W60808  27.469   8.618  17.949  0.0326  0.1010  0.2471
17715W        W60809  28.183  11.509  18.049 -0.0077 -0.1505 -0.2183
17716W        W60810  26.925   7.297  20.012 -0.1729 -0.2379 -0.0879
17717W        W60811  26.660   9.554  20.068  0.3084  0.0153 -0.2513
17718W        W60812  26.028  11.792  18.851  0.3487  0.2478  0.1745
17719W        W60813  26.926   9.317  16.902 -0.0923 -0.0697 -0.0534
17720W        W60814  29.714   9.670  16.941 -0.1832  0.1997  0.3265
17721W        W60815  27.265  10.104  19.290  0.0257 -0.1458  0.2118
17722W        W60816  26.786  11.791  20.594 -0.0502 -0.2775 -0.2495
17723W        W60817  25.200  11.050  16.206  0.0879 -0.1535 -0.1509
17724W        W60818  27.567  11.713  20.528 -0.0748 -0.1137 -0.0287
17725W        W60819  26.562  10.064  19.876  0.1322  0.4115 -0.1269
17726W        W60820  28.047   9.941  19.553 -0.1683  0.3986 -0.0571
17727W        W60821  27.445   7.879  17.651 -0.0642 -0.0498 -0.2404
17728W        W60822  26.740  10.475  16.473  0.0165 -0.4581 -0.0664
17729W        W60823  27.166   8.535  17.206 -0.0610 -0.0113 -0.0840
17730W        W60824  26.858  10.216  20.781 -0.2000  0.0487  0.0468
17731W        W60825  27.356   9.787  18.819  0.2162 -0.2560  0.2791
17732W        W60826  28.624   7.805  21.636 -0.2903 -0.0046  0.0170
17733W        W60827  25.933  10.223  18.299 -0.0539 -0.1504 -0.0992
17734W        W60828  28.499   6.798  17.201 -0.0245 -0.0921 -0.0276
17735W        W60829  27.202   8.086  16.991 -0.0964  0.3691  0.1851
17736W        W60830  26.823   8.003  16.727 -0.2737 -0.1616  0.1546
17737W        W60831  26.871   7.643  18.459 -0.1106  0.0680  0.2697
17738W        W60832  26.478  10.597  19.998 -0.0002  0.2495 -0.0699
17739W        W60833  26.587   8.822  18.878 -0.4213 -0.2575  0.0048
17740W        W60834  28.053  10.551  19.624 -0.1043  0.0728 -0.0490
17741W        W60835  26.627   7.416  16.060 -0.2188  0.2664  0.2732
17742W        W60836  27.409   9.814  18.341  0.2285  0.0610 -0.1623
17743W        W60837  25.983  10.515  19.268 -0.3077  0.3314 -0.1110
17744W        W60838  25.893   8.461  18.262 -0.1840 -0.0424  0.0676
17745W        W60839  28.439   8.846  17.731  0.1270  0.1126 -0.0671
17746W        W60840  28.886  10.451  17.236 -0.0924 -0.0809 -0.2850
17747W        W60841  26.758   9.737  16.644 -0.0443 -0.1752 -0.0684
17748W        W60842  26.504   7.934  17.154 -0.0337 -0.0278 -0.1165
17749W        W60843  25.414   9.963  18.375 -0.1835 -0.3977  0.0169
17750W        W60844  27.308   8.581  19.204 -0.2328 -0.1470 -0.1690
17751W        W60845  27.362   6.781  16.660  0.0982  0.1663 -0.4015
17752W        W60846  28.820  11.667  18.734 -0.1561 -0.5543 -0.0106
17753W        W60847  26.205   9.767  19.985  0.0628 -0.0803  0.2193
17754W        W60848  27.876   6.835  19.416  0.0968 -0.1732 -0.0354
17755W        W60849  27.246   9.730  17.028  0.1456 -0.1455  0.3213
17756W        W60850  27.697   9.075  18.384 -0.0288 -0.0209 -0.0978
17757W        W60851  27.938   8.652  18.260 -0.0069 -0.0277 -0.0837
17758W        W60852  28.056   7.277  19.302 -0.1002  0.0670 -0.1885
17759W        W60853  27.755   8.904  19.188  0.2624  0.2369 -0.1058
17760W        W60854  26.168   9.918  16.600  0.0562  0.0143 -0.0934
17761W        W60855  25.768   8.477  16.491 -0.0608  0.1966 -0.2612
17762W        W60856  30.762   9.683  21.176  0.1088 -0.0017 -0.2447
17763W        W60857  28.900   7.570  17.513 -0.1286 -0.1911 -0.2739
17764W        W60858  26.223  10.624  18.304 -0.2386  0.2113 -0.1296
17765W        W60859  28.526   9.786  20.057  0.0071  0.1339  0.0754
17766W        W60860  26.936  10.978  19.009  0.0709  0.0076  0.1026
17767W        W60861  25.696  10.631  17.016 -0.0577 -0.0284 -0.1002
17768W        W60862  25.918   9.717  18.312  0.0782  0.1663  0.1418
17769W        W60863  25.281   9.435  17.456 -0.0673 -0.2179 -0.0725
17770W        W60864  24.830   8.102  18.328  0.5622 -0.0576 -0.1448
17771W        W60865  25.638  10.233  18.784  0.1784  0.1095  0.0234
17772W        W60866  28.218   8.160  18.389  0.3125 -0.0407  0.0899
17773W        W60867  27.175   8.349  18.726  0.3377  0.2049 -0.2438
17774W        W60868  29.538   6.772  18.477  0.0918 -0.1373  0.2296
17775W        W60869  25.123   9.915  17.554  0.1595 -0.0436  0.1423
17776W        W60870  28.048  11.674  17.168 -0.1163  0.0165  0.0154
17777W        W60871  28.612   7.504  18.233 -0.0589  0.2959  0.1664
17778W        W60872  28.587  10.674  16.334 -0.3436  0.0386  0.0080
17779W        W60873  25.922   8.011  18.052  0.1446 -0.3663  0.2018
17780W        W60874  26.379   7.782  18.136  0.0482  0.0910 -0.1406
17781W        W60875  26.787   8.097  18.641  0.0209  0.0669  0.1970
17782W        W60876  26.538   5.021  19.192 -0.0772  0.2383  0.1230
17783W        W60877  28.312   7.566  19.745 -0.0244  0.2338  0.1567
17784W        W60878  26.421   5.995  16.808 -0.1384 -0.2440 -0.3956
17785W        W60879  27.063   9.158  19.158 -0.1205  0.0453 -0.0048
17786W        W60880  26.207   7.831  17.644 -0.0991  0.4379 -0.0282
17787W        W60881  24.785   8.647  17.462  0.0264 -0.2793  0.2602
17788W        W60882  27.581   6.663  19.771  0.2591  0.0315 -0.1277
17789W        W60883  28.081   9.691  16.983  0.1035 -0.2312  0.1235
17790W        W60884  28.991   9.242  19.326  0.0476  0.3596  0.0718
17791W        W60885  29.029  10.102  18.234  0.3059 -0.0136  0.2794
17792W        W60886  25.933   8.415  20.242  0.1650 -0.0263  0.0276
17793W        W60887  25.902   8.673  16.016 -0.1609  0.1131  0.2837
17794W        W60888  25.988  11.838  19.383  0.2914 -0.0928 -0.1036
17795W        W60889  28.167  10.434  18.701  0.0006  0.1550  0.0318
17796W        W60890  26.275   8.815  16.352  0.0769 -0.0189  0.0329
17797W        W60891  29.116   9.817  18.636  0.0160 -0.2520  0.5090
17798W        W60892  26.894   9.279  17.893  0.5651  0.2207  0.2334
17799W        W60893  25.232   9.647  17.972  0.1314 -0.0107  0.3083
17800W        W60894  28.019   6.529  18.489 -0.0636  0.1881  0.0331
17801W        W60895  27.715  10.114  19.204  0.2060 -0.4139 -0.3871
17802W        W60896  26.872   7.814  17.929  0.2793 -0.0721  0.0087
17803W        W60897  26.772   7.243  16.660  0.3522  0.0223 -0.0760
17804W        W60898  28.013  10.223  17.264 -0.1342 -0.1367 -0.3219
17805W        W60899  25.678  10.360  15.692 -0.2725  0.1949 -0.1219
17806W        W60900  24.197  10.209  16.648 -0.1148 -0.1536  0.1907
17807W        W60901  27.011  10.535  17.824 -0.0913 -0.1410 -0.0895
17808W        W60902  27.468   7.420  18.334  0.1597  0.5028 -0.0295
17809W        W60903  24.762   9.045  19.469 -0.1613  0.1189 -0.0179
17810W        W60904  27.839   7.615  19.573  0.0373  0.2376 -0.1575
17811W        W60905  26.126   9.061  15.652  0.0103  0.2219 -0.0037
17812W        W60906  26.071  10.803  20.322 -0.0976  0.0449  0.0811
17813W        W60907  27.858   7.018  17.674  0.1541 -0.1086  0.0545
17814W        W60908  29.249   8.444  17.126 -0.3393  0.1489  0.2382
17815W        W60909  27.563  10.741  19.608  0.0130  0.2204 -0.1538
17816W        W60910  27.977   8.476  17.144 -0.3022 -0.2647  0.1658
17817W        W60911  28.244   8.088  17.089  0.1319 -0.3470 -0.3244
17818W        W60912  26.933   7.070  16.188 -0.1180 -0.2062  0.1757
17819W        W60913  25.995   8.983  19.723  0.0745  0.5335 -0.1615
17820W        W60914  27.665   9.357  16.944 -0.2465  0.2802  0.2139
17821W        W60915  27.314  10.189  18.024 -0.2463  0.1845 -0.0408
17822W        W60916  27.176   7.820  15.896 -0.3439  0.1599 -0.3498
17823W        W60917  28.619   9.136  16.689 -0.1009  0.2953  0.4166
17824W        W60918  26.373   9.384  18.049 -0.2219 -0.0783  0.2638
17825W        W60919  27.856  10.056  18.731 -0.1604  0.0638  0.1295
17826W        W60920  28.277   9.746  17.489  0.1820 -0.1447 -0.1612
17827W        W60921  26.323   6.661  18.498  0.2259  0.0997  0.3338
17828W        W60922  26.472   9.194  16.006 -0.0270  0.0154 -0.0058
17829W        W60923  27.794   7.819  18.393 -0.3002 -0.0147  0.1143
17830W        W60924  24.637  10.887  16.334 -0.0677  0.0307 -0.1382
17831W        W60925  28.847   7.631  19.452  0.0912 -0.1498 -0.0491
17832W        W60926  27.910   7.591  18.849  0.2333 -0.1274  0.2610
17833W        W60927  26.973   7.991  19.535  0.1048 -0.1548  0.1901
17834W        W60928  29.194   9.848  20.872  0.2191 -0.2223  0.0078
17835W        W60929  28.078   9.090  18.036  0.1497  0.0966  0.0841
17836W        W60930  27.003   9.683  19.192 -0.0746 -0.1226 -0.0451
17837W        W60931  27.005   7.410  15.697  0.2700 -0.0364 -0.4549
17838W        W60932  27.133   8.708  20.389  0.0701 -0.1304  0.0756
17839W        W60933  25.659   8.871  18.440 -0.3166  0.0430  0.2441
17840W        W60934  26.012  10.150  19.703  0.1190  0.0576 -0.1377
17841W        W60935  28.430  10.710  19.221  0.1469  0.0658  0.0373
17842W        W60936  28.309   8.788  16.932 -0.1018  0.0594  0.0385
17843W        W60937  26.037   8.170  21.296 -0.0967 -0.1732  0.2241
17844W        W60938  25.772   9.415  15.718 -0.2653  0.0924  0.3062
17845W        W60939  25.777  12.159  17.409 -0.1443  0.2060  0.0345
17846W        W60940  26.805  10.898  16.733 -0.1146  0.2031 -0.3746
17847W        W60941  26.369   7.759  18.720 -0.1400 -0.2070  0.0847
17848W        W60942  25.997  10.275  20.209  0.0932 -0.2066 -0.2097
17849W        W60943  26.494  10.078  16.240 -0.1754 -0.1014 -0.1507
17850W        W60944  29.015   9.336  20.684  0.1774  0.1402  0.0637
17851W        W60945  25.238   9.300  16.439  0.1121  0.0601 -0.0209
17852W        W60946  28.795   6.903  18.918 -0.2450 -0.0787 -0.0047
17853W        W60947  25.476  12.532  19.223 -0.1339 -0.1578  0.1544
17854W        W60948  27.343   7.666  16.789 -0.0429  0.3824 -0.0037
17855W        W60949  25.967   9.208  16.159 -0.1592 -0.0086 -0.2198
17856W        W60950  28.810   6.605  17.999 -0.1011  0.2299  0.2094
17857W        W60951  29.832   9.259  17.469 -0.2669 -0.0990 -0.0377
17858W        W60952  26.459   8.908  19.520  0.1198 -0.2292 -0.0559
17859W        W60953  26.906   7.582  17.054  0.2079  0.0285 -0.0973
17860W        W60954  24.465   9.480  19.882 -0.0429  0.2014  0.1891
17861W        W60955  27.523   8.986  20.653  0.1540 -0.1294  0.0928
17862W        W60956  28.539   8.400  16.554 -0.0005  0.1343 -0.1512
17863W        W60957  26.719  10.627  18.268 -0.0902 -0.1703  0.2149
17864W        W60958  26.637   8.703  20.630 -0.1969  0.0751 -0.1069
17865W        W60959  26.717   9.151  16.478 -0.1268 -0.3280 -0.0288
17866W        W60960  29.634   7.931  19.369  0.3694 -0.3574 -0.1093
17867W        W60961  26.730   8.360  17.078  0.0938  0.0402  0.3259
17868W        W60962  25.584   9.967  17.908 -0.3980  0.2236 -0.0804
17869W        W60963  27.827   9.485  18.144 -0.1246  0.0072  0.1977
17870W        W60964  26.607   8.421  16.596  0.0275  0.2541  0.1318
17871W        W60965  25.866  10.142  16.893  0.1073  0.0665 -0.2146
17872W        W60966  27.640   8.594  21.112 -0.1921 -0.0661 -0.0886
17873W        W60967  26.755   7.961  19.976 -0.0313 -0.1772  0.1178
17874W        W60968  28.181   8.940  19.795 -0.1822 -0.1656 -0.2161
17875W        W60969  26.776   8.115  16.225 -0.1917  0.4715  0.2963
17876W        W60970  26.358   9.411  18.667  0.1291  0.0029 -0.0541
17877W        W60971  28.231   9.353  18.468 -0.1845 -0.0872 -0.2511
17878W        W60972  26.670   9.916  19.443 -0.1430  0.0868  0.3456
17879W        W60973  26.193  10.705  21.299 -0.0857 -0.2486  0.0990
17880W        W60974  28.245   6.285  18.952  0.0734  0.1182 -0.0272
17881W        W60975  28.990  11.417  17.402 -0.1227 -0.2165 -0.0652
17882W        W60976  27.606   8.755  19.615  0.2972 -0.0260 -0.0468
17883W        W60977  25.535   9.802  16.529 -0.1404  0.3291 -0.0927
17884W        W60978  25.624   9.766  18.835 -0.1504 -0.1467  0.2651
17885W        W60979  24.957   9.095  17.318 -0.2470 -0.0075 -0.3216
17886W        W60980  27.000   7.799  19.022  0.1767  0.2901  0.0408
17887W        W60981  26.910   8.686  18.016 -0.3737  0.2002  0.0826
17888W        W60982  25.091   9.144  15.983  0.2030 -0.1971 -0.1213
17889W        W60983  25.695   9.503  17.759 -0.5085  0.1180  0.1510
17890W        W60984  25.904   7.527  17.898  0.0992 -0.0593 -0.0860
17891W        W60985  27.686   8.891  17.308  0.0426 -0.2181  0.2285
17892W        W60986  26.793   9.073  18.390 -0.1192 -0.1329 -0.2087
17893W        W60987  29.004   8.583  20.128  0.0864 -0.1746 -0.2692
17894W        W60988  29.281   8.201  16.588  0.0662  0.4494  0.0866
17895W        W60989  28.140   6.657  19.915 -0.0923  0.2485  0.2526
17896W        W60990  27.327   7.382  18.844  0.0488  0.2266  0.2812
17897W        W60991  28.474  10.067  17.121 -0.0746  0.0404  0.1527
17898W        W60992  25.339   7.363  17.172 -0.0598 -0.0896  0.0502
17899W        W60993  29.010  11.264  19.907  0.1932 -0.0062 -0.0189
17900W        W60994  25.303   9.135  18.712 -0.0171  0.0709 -0.0955
17901W        W60995  27.298   7.813  18.147 -0.2487  0.0794 -0.1399
17902W        W60996  26.362   7.659  16.812 -0.0795 -0.0898 -0.0955
17903W        W60997  27.576  10.046  20.161 -0.2186 -0.0792  0.0123
17904W        W60998  28.172  10.624  18.241 -0.0045 -0.2963 -0.0151
17905W        W60999  27.224   8.883  17.575 -0.2022  0.1468 -0.0863
17906W        W61000  29.137   8.045  19.332  0.1243 -0.0152  0.1256
17907W        W61001  27.044  10.261  19.717  0.0960 -0.2539 -0.2296
17908W        W61002  27.397   9.251  18.821 -0.1848 -0.1559 -0.0211
17909W        W61003  27.416   7.219  16.475 -0.0006 -0.2572  0.2000
17910W        W61004  25.883   9.190  17.132  0.0237 -0.1001 -0.0206
17911W        W61005  26.320   8.429  18.640  0.1804 -0.1167  0.0543
17912W        W61006  28.183   9.190  18.956 -0.0749  0.4050  0.0423
17913W        W61007  28.144   8.711  18.743 -0.1034 -0.2325  0.3481
17914W        W61008  28.791   7.963  18.979  0.1508  0.0290 -0.1140
17915W        W61009  27.562   8.211  19.477  0.0486 -0.2116  0.0839
17916W        W61010  26.026   9.121  19.200  0.1502  0.4115 -0.2071
17917W        W61011  27.212   8.474  19.790  0.1335  0.0398  0.0976
17918W        W61012  27.150  12.227  18.613 -0.0081 -0.0745  0.1281
17919W        W61013  28.774   7.475  16.550 -0.1306  0.1479 -0.2203
17920W        W61014  29.218   8.200  18.252  0.2765  0.1277  0.0498
17921W        W61015  29.064   9.023  16.861 -0.1403  0.1298  0.0243
17922W        W61016  27.600   8.606  16.427  0.2533  0.2065 -0.1069
17923W        W61017  25.130   7.755  18.415 -0.0902 -0.0257 -0.1044
17924W        W61018  27.703   9.416  20.442 -0.0406 -0.3729  0.0469
17925W        W61019  25.973   8.027  17.158  0.1149 -0.4319 -0.2398
17926W        W61020  27.292   7.649  19.639  0.2228  0.1580 -0.1224
17927W        W61021  26.805  10.879  17.327  0.2777  0.1544 -0.2482
17928W        W61022  27.845   8.126  18.023  0.1735  0.0772  0.4282
17929W        W61023  27.730   8.887  16.786 -0.0580 -0.0018  0.1198
17930W        W61024  25.380   7.622  17.707 -0.1794  0.3530 -0.1590
17931W        W61025  25.324  11.218  18.887 -0.0223  0.0246  0.0818
17932W        W61026  26.447   8.606  15.872  0.0535  0.0765  0.0230
17933W        W61027  26.961   7.935  17.432  0.1756 -0.2273 -0.0046
17934W        W61028  27.897   9.655  19.133 -0.2621 -0.1968 -0.1259
17935W        W61029  29.274   9.904  19.621  0.1300  0.0452 -0.0779
17936W        W61030  26.177   8.267  16.246 -0.1882  0.1904 -0.1983
17937W        W61031  28.031   8.535  19.533  0.2032 -0.3459  0.0148
17938W        W61032  25.448  11.051  16.984 -0.1074 -0.0084 -0.3694
17939W        W61033  26.524   6.344  17.974 -0.0013  0.1310  0.0183
17940W        W61034  26.482  11.269  19.010  0.1997  0.0627  0.1831
17941W        W61035  24.532   8.858  17.071  0.0088 -0.3041 -0.0718
17942W        W61036  26.783  11.494  18.746 -0.2541 -0.2176  0.0823
17943W        W61037  28.524   7.255  19.177 -0.0753  0.1826  0.0148
17944W        W61038  28.441   8.276  18.939  0.1028 -0.0764  0.1911
17945W        W61039  26.821   8.870  20.013 -0.1466  0.0041 -0.2017
17946W        W61040  28.289   9.534  19.736  0.2532 -0.3336 -0.2722
17947W        W61041  26.808  11.259  20.285  0.2538 -0.0060 -0.3123
17948W        W61042  26.634   9.388  19.113  0.1977  0.0480 -0.0880
17949W        W61043  27.390  10.486  19.006  0.0995  0.0454 -0.0754
17950W        W61044  27.822   9.492  17.505 -0.2647 -0.0405 -0.0740
17951W        W61045  25.934  10.533  17.872 -0.1989  0.1241  0.3319
17952W        W61046  26.338   9.407  20.494 -0.3116 -0.1268  0.0987
17953W        W61047  27.325   9.164  19.610 -0.1311  0.0031 -0.0557
17954W        W61048  28.017   7.556  16.972 -0.1540 -0.0333 -0.3375
17955W        W61049  26.545   6.982  17.018 -0.0619  0.0965 -0.1558
17956W        W61050  27.093   8.542  16.686 -0.0774 -0.3829  0.0138
17957W        W61051  26.785   8.414  20.263  0.0352  0.3144 -0.3645
17958W        W61052  25.645   8.900  18.932  0.1835 -0.1915 -0.0013
17959W        W61053  25.405   9.551  16.061  0.1423  0.4062  0.3118
17960W        W61054  27.599   9.893  17.347  0.0020  0.2154 -0.2261
17961W        W61055  28.298   8.810  16.459  0.2145  0.0162 -0.1013
17962W        W61056  26.803  11.020  18.524 -0.0519  0.2134  0.2874
17963W        W61057  27.563   7.651  16.327 -0.0075 -0.2026  0.3309
17964W        W61058  25.906  10.957  18.952  0.0294  0.1242  0.1908
17965W        W61059  25.084  11.467  16.749  0.0255  0.2822 -0.1003
17966W        W61060  28.501   9.300  17.548  0.1598 -0.4565  0.1096
17967W        W61061  25.511   8.963  17.370  0.2138 -0.3074  0.2941
17968W        W61062  27.113   9.701  19.708  0.0073  0.0483 -0.1832
17969W        W61063  28.410   8.545  17.355 -0.1909 -0.0968  0.0898
17970W        W61064  28.760   8.622  18.015  0.2548 -0.0805 -0.2122
17971W        W61065  29.162   7.107  17.294 -0.1872  0.1575  0.0500
17972W        W61066  28.664  10.979  20.791  0.0167  0.3133 -0.2040
17973W        W61067  28.296   7.671  19.168  0.0204  0.1861 -0.3318
17974W        W61068  28.015   8.329  16.128  0.1364 -0.2594 -0.1693
17975W        W61069  24.949   8.662  20.628 -0.2232 -0.1681  0.3735
17976W        W61070  28.797   7.765  20.196  0.0431 -0.3194 -0.2201
17977W        W61071  26.045   9.829  20.538  0.0936 -0.0995 -0.3023
17978W        W61072  27.986  10.742  17.589  0.2235 -0.2335 -0.0560
17979W        W61073  25.872   8.988  16.576  0.1838 -0.0816 -0.0265
17980W        W61074  25.519   9.466  18.385 -0.0573  0.0965 -0.0576
17981W        W61075  30.006   7.924  17.722 -0.2947 -0.0744  0.0497
17982W        W61076  27.225   8.951  16.438  0.0401  0.1642 -0.0348
17983W        W61077  27.081   8.883  18.723  0.1933  0.0124  0.0833
17984W        W61078  26.233  11.068  18.580 -0.3275  0.1494 -0.2097
17985W        W61079  26.848  10.328  19.156  0.4058 -0.0305  0.0571
17986W        W61080  26.883  10.443  16.973  0.3010  0.0040 -0.0165
17987W        W61081  26.262   8.722  16.843  0.0660  0.1870  0.0525
17988W        W61082  29.254   7.846  17.660 -0.3128 -0.0273 -0.1796
17989W        W61083  26.759   9.189  20.455  0.1442  0.0550 -0.2187
17990W        W61084  28.807   7.032  19.553 -0.1427  0.0174 -0.2146
17991W        W61085  26.043  10.524  18.741  0.2398  0.0856 -0.6769
17992W        W61086  30.134   9.572  18.808 -0.0394 -0.4780  0.1577
17993W        W61087  28.877  10.060  19.827  0.3362 -0.0304  0.2077
17994W        W61088  26.115   8.927  18.742 -0.0941 -0.1928 -0.1063
17995W        W61089  27.696   9.163  16.356 -0.0039 -0.0282  0.3156
17996W        W61090  28.099   9.284  20.143  0.3599 -0.1133  0.2078
17997W        W61091  27.071   8.900  15.793  0.2324  0.1728 -0.3650
17998W        W61092  27.386  10.581  19.999 -0.2001  0.0886 -0.0224
17999W        W61093  26.096   6.155  17.185  0.1761  0.0495 -0.1550
18000W        W61094  28.744   8.167  17.393 -0.1328 -0.1636 -0.2766
18001W        W61095  26.721   8.571  17.539 -0.2665  0.2468 -0.0302
18002W        W61096  26.542   9.947  20.437  0.1300 -0.1783 -0.0702
18003W        W61097  28.133  10.918  18.925  0.0827  0.2502 -0.0080
18004W        W61098  26.223   8.428  17.201 -0.2585  0.0609  0.0092
18005W        W61099  29.590   7.035  17.545 -0.0350 -0.2894  0.2343
18006W        W61100  29.792   8.959  19.430  0.0917 -0.0243  0.2196
18007W        W61101  25.947   9.465  16.691  0.2792  0.3885  0.0711
18008W        W61102  29.399   9.097  18.532 -0.1288  0.1791  0.0223
18009W        W61103  28.554  10.177  18.008  0.0241  0.1533 -0.2866
18010W        W61104  26.261   8.594  19.155 -0.2184  0.1309 -0.0131
18011W        W61105  28.178   9.905  18.271 -0.1528 -0.2298 -0.3540
18012W        W61106  28.629  10.316  18.945  0.3115 -0.0870  0.1200
18013W        W61107  27.044   7.576  16.340  0.0173 -0.2566  0.0519
18014W        W61108  26.470   7.396  17.813  0.0461 -0.1029  0.2434
18015W        W61109  25.095  10.525  15.894  0.0730  0.1100  0.2311
18016W        W61110  29.289   8.858  19.404 -0.1412  0.1719  0.0614
18017W        W61111  29.353   9.266  19.031 -0.1762  0.3117 -0.1283
18018W        W61112  27.934  10.509  16.890 -0.0812  0.2428  0.1140
18019W        W61113  27.624   5.839  20.374 -0.1994  0.0912 -0.1507
18020W        W61114  26.985  10.570  18.687  0.1076 -0.0197  0.0102
18021W        W61115  26.229   9.696  19.182 -0.1923  0.0310  0.3255
18022W        W61116  26.326   9.638  17.029  0.2443  0.3729 -0.0114
18023W        W61117  27.871   9.341  19.604  0.2597  0.2491  0.0759
18024W        W61118  27.367   9.559  17.863  0.1897  0.0215 -0.3915
18025W        W61119  26.802  11.043  17.830  0.0768 -0.0300 -0.4296
18026W        W61120  26.512  10.322  18.644  0.0201 -0.0646 -0.1915
18027W        W61121  26.466   8.278  18.136  0.1847 -0.0533  0.2300
18028W        W61122  29.504  10.132  17.639  0.2095 -0.0324  0.0501
18029W        W61123  26.839   9.301  19.600  0.0251  0.1524  0.2460
18030W        W61124  28.775   7.130  16.997  0.0076 -0.0349  0.0575
18031W        W61125  27.880   7.327  16.470 -0.1217 -0.2036 -0.2340
18032W        W61126  27.248  10.356  20.454 -0.1383 -0.2703 -0.1258
18033W        W61127  25.268   8.264  16.583 -0.0881  0.0922 -0.0188
18034W        W61128  25.432   9.970  17.121 -0.1325 -0.0845  0.0958
18035W        W61129  26.671   9.011  17.305 -0.0405  0.2015 -0.1562
18036W        W61130  27.190   7.628  20.228 -0.1277  0.0617  0.0602
18037W        W61131  26.420   9.952  18.287 -0.2666  0.3350  0.0473
18038W        W61132  25.469  10.067  19.725  0.0662  0.2428  0.0423
18039W        W61133  27.429   6.039  18.342  0.2552  0.2529 -0.0627
18040W        W61134  27.559   8.386  16.879  0.1318 -0.1412  0.1495
18041W        W61135  27.022   8.197  18.213 -0.2750  0.2063 -0.0982
18042W        W61136  25.496   8.352  17.066 -0.6239  0.1189 -0.0585
18043W        W61137  27.108  10.106  16.659  0.0231  0.1440 -0.1940
18044W        W61138  27.785   9.494  18.642 -0.1832 -0.1628  0.0449
18045W        W61139  28.449   7.788  17.495 -0.0621 -0.1852  0.1118
18046W        W61140  28.763  11.207  19.432 -0.2468 -0.0042 -0.0089
18047W        W61141  24.668   9.943  15.570  0.1465 -0.1957  0.0527
18048W        W61142  27.586   8.395  20.120  0.0308 -0.3123  0.0757
18049W        W61143  27.268   7.108  19.619 -0.1325 -0.3037 -0.2809
18050W        W61144  25.644   8.005  17.645 -0.1205 -0.0781 -0.0592
18051W        W61145  29.091   8.824  18.902  0.4410 -0.1980 -0.0520
18052W        W61146  27.795   9.873  17.803  0.1522 -0.0451  0.0754
18053W        W61147  28.192  11.318  16.812 -0.0733 -0.1602 -0.0648
18054W        W61148  26.908   8.090  21.097  0.1689  0.1595  0.2116
18055W        W61149  27.938  11.383  19.738  0.1195 -0.0747  0.0862
18056W        W61150  25.168   7.678  18.932 -0.2636  0.3350 -0.0541
18057W        W61151  29.118   8.362  17.750 -0.1281 -0.1266  0.1134
18058W        W61152  27.097  10.654  19.429 -0.1517  0.1833  0.3386
18059W        W61153  28.323   9.625  16.433 -0.0057  0.1003  0.0209
18060W        W61154  29.678   8.327  17.993  0.1813 -0.2005  0.1254
18061W        W61155  27.120   8.279  17.739 -0.2293  0.3495  0.1293
18062W        W61156  25.830   8.296  19.283 -0.3453  0.2687  0.0187
18063W        W61157  27.939  10.403  20.174 -0.1924 -0.3072 -0.0922
18064W        W61158  28.962   8.949  18.419 -0.0333 -0.1052  0.2948
18065W        W61159  27.675   6.501  16.920 -0.1605 -0.3696  0.0456
18066W        W61160  28.773   8.477  18.563  0.0496  0.1615  0.1447
18067W        W61161  27.308   9.424  16.566  0.0548 -0.2130  0.1392
18068W        W61162  26.768   8.580  18.491  0.1259  0.1277  0.0171
18069W        W61163  28.117   9.238  16.727  0.0329  0.0003  0.0370
18070W        W61164  26.989   7.376  19.298 -0.0341 -0.1228 -0.0840
18071W        W61165  27.433  10.250  18.598  0.1644 -0.1031  0.0396
18072W        W61166  28.612   9.125  19.568 -0.1536  0.1860 -0.0059
18073W        W61167  25.218   8.764  17.731  0.0894  0.0037  0.1397
18074W        W61168  29.869   8.856  17.923 -0.1057 -0.1143  0.1178
18075W        W61169  27.507  11.626  19.889 -0.1968 -0.0011  0.3161
18076W        W61170  27.289  11.196  19.474  0.0789  0.2085  0.1300
18077W        W61171  26.571  10.569  19.517 -0.0082  0.0268  0.0813
18078W        W61172  26.945   9.497  18.723 -0.1467  0.1442 -0.1665
18079W        W61173  26.436   8.942  17.826  0.2639 -0.2354  0.0669
18080W        W61174  26.583   9.890  17.563 -0.1265 -0.1237 -0.2435
18081W        W61175  26.548   8.124  17.646  0.1260  0.0685  0.0023
18082W        W61176  26.565   9.863  18.805 -0.1210  0.3803  0.0614
18083W        W61177  25.853   7.609  16.885 -0.2654 -0.3034 -0.0765
18084W        W61178  27.651   7.165  16.903  0.1856 -0.2302 -0.0029
18085W        W61179  26.935  10.856  20.006  0.1562  0.0607 -0.2896
18086W        W61180  28.707   9.603  18.286 -0.1031 -0.0500  0.0664
18087W        W61181  25.994  10.191  24.105  0.2187  0.0170  0.1061
18088W        W61182  25.503   8.897  20.590 -0.0521  0.0648 -0.0210
18089W        W61183  27.617   7.891  20.441  0.3667  0.1527 -0.0026
18090W        W61184  28.574   8.521  19.737  0.3279  0.3801  0.2047
18091W        W61185  25.774   7.289  21.739  0.2802  0.1632 -0.1518
18092W        W61186  28.508  11.387  20.578 -0.1706  0.2025  0.1268
18093W        W61187  26.840   5.254  22.095  0.1755  0.1966  0.0889
18094W        W61188  28.455  11.234  21.771 -0.2163 -0.0723 -0.0760
18095W        W61189  29.018  10.962  21.184  0.3504  0.2073  0.0333
18096W        W61190  28.178  10.573  20.842  0.2901 -0.1751 -0.1277
18097W        W61191  26.973   9.666  22.661 -0.0023  0.0795 -0.0894
18098W        W61192  26.558   8.902  22.112 -0.1132 -0.3366 -0.0718
18099W        W61193  26.972   8.875  21.822 -0.2894  0.0146  0.3260
18100W        W61194  24.568   6.063  19.925  0.1422  0.1179 -0.1043
18101W        W61195  28.654   9.280  24.130 -0.2951 -0.0030 -0.1407
18102W        W61196  25.791  10.213  21.628  0.3050  0.2445  0.1517
18103W        W61197  25.875   7.071  23.669 -0.0873  0.2893  0.0330
18104W        W61198  26.416   7.584  22.383 -0.1857 -0.3233  0.0193
18105W        W61199  27.220  11.702  20.866 -0.1377 -0.0597  0.1815
18106W        W61200  26.931   7.667  22.557 -0.0050  0.0055 -0.4186
18107W        W61201  28.191   7.916  23.121 -0.1483 -0.1089 -0.0759
18108W        W61202  27.690   9.675  21.138  0.0671 -0.2577 -0.2500
18109W        W61203  26.698   8.311  19.115 -0.1776 -0.3233  0.0365
18110W        W61204  24.921   8.525  21.805 -0.0425  0.1230  0.0602
18111W        W61205  25.767   9.390  21.942  0.4433  0.1199 -0.0110
18112W        W61206  28.293   8.075  21.363 -0.2078 -0.0854  0.3347
18113W        W61207  27.230   9.595  22.119 -0.4031  0.1140 -0.1596
18114W        W61208  26.997   9.818  21.705  0.0244 -0.0036  0.0464
18115W        W61209  26.226   9.735  22.921  0.0104 -0.1266 -0.1861
18116W        W61210  28.237   8.947  24.011  0.0388 -0.1990  0.0303
18117W        W61211  25.204   9.038  21.033 -0.0499 -0.0375  0.0234
18118W        W61212  26.774  11.318  20.783  0.0733 -0.1190 -0.0361
18119W        W61213  25.719   9.633  19.647 -0.0560 -0.0154  0.0519
18120W        W61214  28.783   9.617  21.684 -0.1164 -0.3243  0.1941
18121W        W61215  26.396  10.170  23.306  0.1475  0.0662  0.0062
18122W        W61216  25.234  10.852  23.894  0.0970 -0.0144 -0.0196
18123W        W61217  27.180   9.578  21.203 -0.0271 -0.1709 -0.1577
18124W        W61218  26.763  10.334  24.600  0.0799  0.0721 -0.1400
18125W        W61219  26.572  11.099  23.596 -0.1177 -0.1305 -0.0389
18126W        W61220  27.426   8.277  22.737 -0.1496 -0.2941  0.0756
18127W        W61221  27.765   9.844  20.613  0.3511  0.0265  0.3613
18128W        W61222  27.155  11.693  21.439  0.0983 -0.1699 -0.1444
18129W        W61223  25.570   9.770  20.978 -0.3335  0.0284 -0.3813
18130W        W61224  26.652  10.591  23.451 -0.1679  0.1039 -0.0244
18131W        W61225  25.048   9.645  21.217 -0.3977  0.1119  0.2539
18132W        W61226  28.196   8.768  22.547  0.0122 -0.1064 -0.2004
18133W        W61227  25.613  10.236  20.567 -0.0960 -0.1286  0.3148
18134W        W61228  27.825   8.003  19.861 -0.4647  0.0303  0.4257
18135W        W61229  26.433   8.098  21.622 -0.4401 -0.2790 -0.1067
18136W        W61230  29.194   7.923  21.146  0.0504  0.3712  0.1524
18137W        W61231  26.138   6.914  21.826 -0.1983 -0.0664 -0.3202
18138W        W61232  27.034  12.232  20.303 -0.4228  0.0333 -0.0612
18139W        W61233  27.865   8.441  23.105 -0.0335  0.0697  0.0778
18140W        W61234  28.452   8.399  23.052 -0.0645 -0.0416 -0.1973
18141W        W61235  26.803   7.784  22.056  0.1173 -0.2012  0.3514
18142W        W61236  27.394   7.613  22.358  0.0379  0.1018 -0.2320
18143W        W61237  25.261   9.487  21.738 -0.3112 -0.0869  0.4556
18144W        W61238  25.704   8.994  22.521  0.1356 -0.2122  0.3054
18145W        W61239  28.664  12.194  19.456  0.1359  0.0682  0.0280
18146W        W61240  28.634  10.169  21.531  0.1808  0.3202  0.4334
18147W        W61241  28.838  11.075  20.296  0.1784 -0.2523  0.1093
18148W        W61242  25.447  10.292  21.120 -0.2915 -0.2186 -0.0269
18149W        W61243  25.243   9.637  22.914 -0.1693 -0.2255  0.3433
18150W        W61244  25.354   7.853  23.039  0.0265  0.0316 -0.4053
18151W        W61245  27.361   9.161  21.713  0.2125  0.0623 -0.1327
18152W        W61246  27.885   7.921  24.696 -0.3187 -0.1329  0.0592
18153W        W61247  25.676  10.559  21.945  0.1003  0.2999  0.0830
18154W        W61248  29.522   7.675  20.787  0.2055  0.1131  0.1766
18155W        W61249  26.642   9.461  22.982  0.1913 -0.1103  0.0450
18156W        W61250  27.349  11.395  23.033 -0.1437  0.0948 -0.0554
18157W        W61251  28.645  10.553  20.500  0.2236 -0.3660  0.2559
18158W        W61252  29.152   7.569  21.613  0.2627  0.2306  0.2849
18159W        W61253  27.924   7.243  21.270  0.0893  0.1290 -0.1623
18160W        W61254  26.514   9.054  21.484  0.1296 -0.3331  0.0167
18161W        W61255  26.250   8.692  21.189  0.1357 -0.1727  0.0435
18162W        W61256  28.319  10.467  23.007 -0.1187  0.0539 -0.1161
18163W        W61257  29.696   9.851  20.016  0.0053  0.1599  0.0508
18164W        W61258  26.959  11.277  21.243  0.1232 -0.2373 -0.2474
18165W        W61259  26.509   8.375  24.525 -0.3234 -0.3995  0.2228
18166W        W61260  26.558  10.796  23.992 -0.3121  0.1401  0.1773
18167W        W61261  25.442  12.061  20.383  0.2374 -0.0703 -0.4181
18168W        W61262  23.536  10.456  22.803 -0.0994 -0.2398  0.0258
18169W        W61263  27.248   9.371  20.608  0.1754  0.1366 -0.0822
18170W        W61264  24.742   8.093  23.035  0.0551  0.3775 -0.1732
18171W        W61265  26.603   9.797  22.109 -0.0960 -0.3871 -0.2730
18172W        W61266  29.502   8.548  20.187  0.1516 -0.1224  0.0443
18173W        W61267  25.148   7.779  24.360 -0.0680 -0.1042  0.0331
18174W        W61268  28.635   8.283  20.270  0.0002  0.2763 -0.1960
18175W        W61269  25.867   9.029  21.551 -0.3189  0.2426  0.2092
18176W        W61270  29.151  12.529  20.919 -0.0059  0.5733  0.4669
18177W        W61271  27.764   8.792  21.616  0.0632  0.1854 -0.0674
18178W        W61272  28.559   9.899  19.467  0.0204  0.2733  0.0452
18179W        W61273  25.564   8.570  23.755  0.2730  0.2203  0.2495
18180W        W61274  26.460   9.101  20.907 -0.0151  0.1397 -0.1532
18181W        W61275  26.337   8.017  23.606 -0.2535  0.1918  0.1292
18182W        W61276  23.299   7.506  22.076 -0.0440  0.0553 -0.1201
18183W        W61277  28.991   9.574  23.255 -0.4832 -0.0690 -0.1536
18184W        W61278  26.278   7.355  20.931  0.1253 -0.0272 -0.0797
18185W        W61279  26.371   8.591  21.745  0.1011  0.2750  0.0232
18186W        W61280  27.002   8.627  22.235  0.0416  0.0463  0.1763
18187W        W61281  25.320   9.345  19.564 -0.1205 -0.4749  0.0718
18188W        W61282  29.103   9.082  23.921 -0.2328 -0.0366 -0.2720
18189W        W61283  28.079  11.638  20.591  0.1103  0.1592  0.2875
18190W        W61284  28.571   9.974  22.458 -0.0946  0.1220  0.0316
18191W        W61285  28.588  10.165  20.869  0.0846 -0.0515 -0.1258
18192W        W61286  27.253   8.153  22.245  0.1781  0.1909 -0.0474
18193W        W61287  26.738   7.565  21.593  0.3713  0.2339  0.3115
18194W        W61288  26.191  11.770  21.590  0.4020 -0.1380 -0.0177
18195W        W61289  27.085  10.444  22.629  0.3784 -0.2393  0.0870
18196W        W61290  26.566   8.027  20.498  0.2718 -0.2350  0.1847
18197W        W61291  29.154  12.044  22.055  0.2655  0.1347  0.0672
18198W        W61292  27.293   9.922  20.864  0.0790  0.4098 -0.1627
18199W        W61293  24.839   8.543  23.324 -0.1416 -0.3636  0.0001
18200W        W61294  27.052   7.266  23.591  0.0083  0.0367 -0.2840
18201W        W61295  29.372   8.966  21.959 -0.0136 -0.0501  0.1258
18202W        W61296  27.749  10.502  21.227 -0.0787  0.3651 -0.2576
18203W        W61297  27.679   7.572  20.079  0.1442 -0.1080 -0.1273
18204W        W61298  27.663  11.270  20.877  0.1232 -0.4087 -0.0184
18205W        W61299  25.621  11.084  19.652 -0.2417  0.1537  0.4330
18206W        W61300  25.728   9.029  21.001 -0.0263 -0.3372  0.2687
18207W        W61301  27.897  11.125  21.818 -0.1131  0.2812 -0.3280
18208W        W61302  28.764   7.712  22.178 -0.0215  0.3794  0.1106
18209W        W61303  24.119   9.673  23.147 -0.2009 -0.0566  0.1784
18210W        W61304  28.633   8.502  22.435 -0.1572  0.2383  0.1893
18211W        W61305  25.319   8.389  19.257 -0.3293 -0.1292 -0.0001
18212W        W61306  24.583   9.537  22.486 -0.0614  0.0345 -0.2249
18213W        W61307  28.640   7.478  20.810 -0.0604  0.2773 -0.0267
18214W        W61308  28.284   7.646  22.052 -0.1505 -0.2554  0.0806
18215W        W61309  27.852   9.360  24.171 -0.1235  0.2027  0.0437
18216W        W61310  27.912   9.294  21.641  0.1041 -0.2298 -0.2300
18217W        W61311  27.809   8.375  21.809 -0.0716  0.1349 -0.1705
18218W        W61312  26.753   8.740  21.107 -0.2021  0.1764  0.2000
18219W        W61313  25.590   8.580  22.036  0.2246  0.0217 -0.4505
18220W        W61314  27.358  10.545  21.469 -0.1175  0.2924  0.2696
18221W        W61315  26.634  10.735  21.562  0.0082  0.1145 -0.0567
18222W        W61316  26.847   8.390  21.668 -0.1571 -0.3026 -0.0573
18223W        W61317  29.788  10.540  21.180  0.1288 -0.1388  0.0127
18224W        W61318  24.951   9.590  22.185  0.2106  0.1187  0.2746
18225W        W61319  28.060  10.207  23.638  0.1538 -0.0019 -0.0299
18226W        W61320  28.190  10.622  22.129 -0.2098  0.0149  0.1261
18227W        W61321  27.788   8.037  22.388  0.1133 -0.0134 -0.3099
18228W        W61322  28.117   8.455  20.970  0.2756 -0.0451  0.0443
18229W        W61323  27.400   7.452  23.327 -0.1607 -0.1522 -0.2061
18230W        W61324  25.186  11.384  20.014 -0.1572 -0.1845  0.1299
18231W        W61325  27.747   7.892  22.860 -0.0360 -0.0270  0.3047
18232W        W61326  26.672   6.808  23.439  0.1008  0.2729  0.1927
18233W        W61327  26.104   6.213  23.450 -0.0213 -0.1653 -0.2292
18234W        W61328  27.486   8.763  22.973  0.1563 -0.0187 -0.1156
18235W        W61329  28.239   9.351  21.156 -0.3127 -0.0000 -0.1758
18236W        W61330  27.193   8.772  21.374 -0.0743  0.3359  0.0285
18237W        W61331  27.143   8.097  20.549 -0.1443 -0.1617  0.1294
18238W        W61332  27.125   7.659  24.231  0.2412  0.1188 -0.1544
18239W        W61333  25.472   8.045  23.589  0.1208  0.0952 -0.0989
18240W        W61334  24.493  10.464  21.921  0.2973  0.1646 -0.1624
18241W        W61335  27.182   9.280  23.002 -0.4503 -0.1718 -0.2499
18242W        W61336  28.224  10.315  21.294 -0.1173 -0.2302  0.0029
18243W        W61337  27.354   7.540  22.825 -0.2506  0.1093 -0.1324
18244W        W61338  28.164   7.117  22.186 -0.1561  0.4018 -0.2149
18245W        W61339  25.531  10.947  20.571 -0.0640  0.3799  0.0555
18246W        W61340  27.153   9.801  20.251  0.3239  0.0615  0.1011
18247W        W61341  25.472   7.697  21.444  0.0628 -0.2072 -0.2063
18248W        W61342  28.059  11.563  23.807 -0.2692  0.0507 -0.1279
18249W        W61343  27.721  11.286  20.336  0.1023  0.2252  0.1275
18250W        W61344  30.253   8.711  23.190 -0.2357 -0.0913  0.0191
18251W        W61345  26.277   9.968  21.405 -0.1693  0.0176  0.1809
18252W        W61346  27.950   7.291  23.596 -0.0619 -0.2290  0.1962
18253W        W61347  27.574  11.644  21.241  0.2435  0.1937  0.3169
18254W        W61348  27.102   8.499  20.875 -0.1628  0.0949 -0.0303
18255W        W61349  25.249   8.539  20.274 -0.0250  0.1646  0.2274
18256W        W61350  28.071   7.973  21.791  0.2699  0.0129  0.1154
18257W        W61351  29.017  10.176  20.530 -0.0019 -0.1330  0.0422
18258W        W61352  25.645   7.075  24.099  0.0638 -0.3134 -0.0312
18259W        W61353  27.109   7.967  23.000 -0.0645 -0.0241  0.1769
18260W        W61354  24.688  10.059  20.508  0.2058 -0.1103  0.2283
18261W        W61355  28.440   9.137  21.556 -0.3260  0.2731 -0.1083
18262W        W61356  27.631   7.867  21.965 -0.2015  0.0565 -0.0360
18263W        W61357  27.544   9.981  22.334  0.0739  0.3517  0.0171
18264W        W61358  24.498   8.608  24.005 -0.0378  0.2101 -0.0283
18265W        W61359  26.264   8.070  19.081  0.5905  0.0612 -0.1988
18266W        W61360  28.143   9.233  23.511  0.0704 -0.0386 -0.0245
18267W        W61361  26.324   8.119  22.616 -0.0774 -0.1357 -0.2507
18268W        W61362  23.595   9.557  21.869  0.0511 -0.2091  0.0585
18269W        W61363  27.618   9.166  21.172 -0.0632 -0.0547  0.5276
18270W        W61364  25.645   9.410  19.125  0.4405  0.3011 -0.0576
18271W        W61365  26.157  10.403  22.204  0.2454 -0.2444 -0.0061
18272W        W61366  26.702   7.873  24.461 -0.2464 -0.1671 -0.0649
18273W        W61367  28.034   9.420  23.061  0.3004  0.3173  0.0836
18274W        W61368  26.143   8.443  22.229  0.1369 -0.2701  0.0667
18275W        W61369  24.242   7.952  21.500 -0.3016 -0.1467  0.0926
18276W        W61370  27.119   7.966  21.753  0.1884  0.2386  0.0897
18277W        W61371  27.457   9.566  22.606 -0.1152 -0.0801 -0.2334
18278W        W61372  26.218   8.963  22.482 -0.0559 -0.3190 -0.1679
18279W        W61373  24.657   9.704  23.054  0.1558 -0.1827  0.0257
18280W        W61374  27.143   7.158  22.431 -0.2377 -0.0638  0.0805
18281W        W61375  29.526  12.598  21.832  0.0456 -0.1908  0.1531
18282W        W61376  28.670  10.039  23.266  0.0583  0.1232 -0.1335
18283W        W61377  26.107   9.951  21.879 -0.2315  0.0022  0.0780
18284W        W61378  26.494  10.066  22.576 -0.0457  0.0835 -0.2559
18285W        W61379  26.468  10.341  21.131 -0.2308 -0.0430  0.0538
18286W        W61380  26.552   8.605  22.644  0.4125  0.1033 -0.4213
18287W        W61381  26.445   9.587  21.682 -0.3188  0.1028 -0.4473
18288W        W61382  24.896   9.107  21.916 -0.0956 -0.0958  0.3428
18289W        W61383  26.481  11.193  21.495  0.3238  0.0826 -0.1863
18290W        W61384  28.591   8.809  20.219  0.0510 -0.1513  0.2645
18291W        W61385  28.328  10.788  21.669  0.0467  0.3685 -0.0456
18292W        W61386  27.305   8.242  21.342 -0.2226 -0.0510  0.0546
18293W        W61387  27.905   6.743  23.739  0.0132 -0.1125  0.0523
18294W        W61388  27.587   9.029  20.054 -0.1980  0.1127 -0.2140
18295W        W61389  27.351   7.182  24.412 -0.4036  0.1564  0.3554
18296W        W61390  24.436   8.638  20.739  0.1530  0.0531 -0.3083
18297W        W61391  27.691   9.046  22.519  0.0555  0.1340  0.0874
18298W        W61392  25.433   9.369  23.714 -0.0149  0.4491  0.0433
18299W        W61393  28.197  12.292  24.814  0.2699 -0.2766 -0.4366
18300W        W61394  25.000   9.357  24.106  0.0598  0.0863  0.0100
18301W        W61395  27.994   7.561  22.534  0.1576 -0.0768 -0.1390
18302W        W61396  25.197   7.780  20.410 -0.0624 -0.2182  0.0596
18303W        W61397  26.659   8.275  22.125 -0.0946  0.1936 -0.1448
18304W        W61398  27.845   9.992  23.206  0.0536  0.3190  0.1180
18305W        W61399  27.001  10.463  21.800 -0.3393  0.0147 -0.2672
18306W        W61400  28.685   7.234  22.365  0.0174  0.2066  0.0578
18307W        W61401  24.820   7.635  22.211  0.1196 -0.0312  0.1163
18308W        W61402  27.505   9.652  21.616 -0.3094 -0.1928  0.0486
18309W        W61403  28.195   9.588  20.582 -0.2074 -0.0715  0.1153
18310W        W61404  25.919  10.113  21.142 -0.0915 -0.1306  0.0952
18311W        W61405  26.061   7.496  23.879  0.1686  0.1168 -0.0839
18312W        W61406  27.569   9.578  23.136 -0.1326  0.1134  0.5394
18313W        W61407  28.057   7.027  22.733  0.0870 -0.0048 -0.2271
18314W        W61408  28.339   7.276  23.196  0.0468 -0.4307 -0.1228
18315W        W61409  29.065   8.163  22.380  0.2204 -0.0942  0.2929
18316W        W61410  26.871   7.709  23.361  0.0510 -0.1335  0.3947
18317W        W61411  25.570   8.685  24.697 -0.0381 -0.0668  0.1857
18318W        W61412  27.816   9.902  22.727  0.1725  0.1256  0.3441
18319W        W61413  29.523  10.350  20.620 -0.3656  0.3150  0.0860
18320W        W61414  28.516   8.231  23.508 -0.1751  0.2142 -0.2948
18321W        W61415  27.803  10.051  21.508 -0.3216 -0.2367  0.3587
18322W        W61416  27.989   9.516  22.539  0.0138  0.1550 -0.1146
18323W        W61417  26.452   7.869  20.986  0.1090 -0.1952  0.0977
18324W        W61418  28.444   9.879  24.302 -0.2118  0.1200 -0.2312
18325W        W61419  27.758   7.665  21.543 -0.2251 -0.0573 -0.0234
18326W        W61420  28.232   8.697  23.529  0.2155 -0.4180 -0.4013
18327W        W61421  26.972  12.398  21.336  0.1599 -0.2444  0.0042
18328W        W61422  28.554   9.265  20.741 -0.1777 -0.0692 -0.1162
18329W        W61423  26.457   7.145  22.661  0.1084 -0.1117  0.0859
18330W        W61424  25.311   8.397  21.391 -0.1785  0.0751 -0.2116
18331W        W61425  26.575  10.274  21.884 -0.0774 -0.1734 -0.0633
18332W        W61426  25.659   8.765  19.408  0.1783  0.1647 -0.0965
18333W        W61427  26.516   9.495  21.210  0.2171 -0.3145  0.0539
18334W        W61428  26.397   9.014  22.958  0.1089  0.0615 -0.1473
18335W        W61429  27.709   8.866  24.308  0.2814  0.2274 -0.2783
18336W        W61430  27.271   7.583  20.730  0.0719 -0.0732  0.0297
18337W        W61431  27.527  10.736  24.425 -0.2263 -0.0725 -0.1268
18338W        W61432  26.038   9.454  20.985 -0.0842 -0.0175  0.1188
18339W        W61433  28.589   6.834  22.023 -0.0887 -0.0717 -0.3905
18340W        W61434  27.583  11.015  21.404  0.3558  0.0284  0.0539
18341W        W61435  23.662   9.449  22.969 -0.3016  0.1715  0.4038
18342W        W61436  26.785   9.914  21.287  0.2725 -0.1626 -0.3609
18343W        W61437  28.040   7.570  23.994 -0.3183 -0.2487  0.2255
18344W        W61438  27.796   8.141  21.275 -0.0650  0.0250  0.1120
18345W        W61439  26.659   8.220  23.073 -0.0413  0.2409  0.1521
18346W        W61440  27.737   9.091  23.277  0.0459  0.0684  0.2714
18347W        W61441  26.413  10.025  24.841 -0.0482  0.2243  0.0175
18348W        W61442  26.263   9.326  22.026  0.1150  0.3064  0.1171
18349W        W61443  27.511  10.435  23.518  0.4209 -0.1530  0.1885
18350W        W61444  27.437  10.108  21.874  0.0410  0.2633 -0.0472
18351W        W61445  25.056   9.573  23.370 -0.3905 -0.3278  0.1873
18352W        W61446  24.796   8.911  24.239 -0.0496  0.2069  0.2420
18353W        W61447  26.847   8.616  23.556  0.0908  0.3197 -0.0868
18354W        W61448  26.878   9.323  21.544  0.1695 -0.1007 -0.1938
18355W        W61449  24.997   7.367  20.263 -0.2154  0.0531  0.2143
18356W        W61450  26.413  10.509  20.633  0.3100  0.4187 -0.1728
18357W        W61451  24.581  10.445  23.346  0.0751  0.4151 -0.0030
18358W        W61452  24.263  10.002  21.933 -0.0267 -0.0807  0.3283
18359W        W61453  25.304   8.886  21.555 -0.1360 -0.0657 -0.5397
18360W        W61454  28.752   9.990  21.958  0.0892  0.0427 -0.1455
18361W        W61455  28.183  11.023  20.379  0.1067 -0.1356  0.2891
18362W        W61456  28.073  10.834  21.267 -0.0739  0.1962 -0.0188
18363W        W61457  26.483   8.343  20.934  0.0816 -0.3534 -0.1869
18364W        W61458  25.851  11.560  21.113 -0.0339  0.1491  0.2189
18365W        W61459  26.348   9.434  19.616 -0.0339  0.2977 -0.0099
18366W        W61460  29.040  11.286  20.707 -0.2064 -0.1814  0.0960
18367W        W61461  27.339  12.081  21.153  0.5538 -0.1145 -0.1171
18368W        W61462  26.534  10.244  25.347  0.0759 -0.0723  0.0670
18369W        W61463  28.000   7.992  20.782 -0.0163 -0.2478  0.1427
18370W        W61464  27.333   9.926  22.965  0.0183 -0.1040 -0.2089
18371W        W61465  28.690   9.012  21.136  0.0545  0.1674  0.1771
18372W        W61466  27.721  12.089  23.636 -0.0332  0.0633  0.0208
18373W        W61467  26.868   8.197  22.587  0.3435  0.0105  0.4992
18374W        W61468  25.442   9.341  21.310 -0.0224  0.1179  0.2042
18375W        W61469  25.424   9.426  22.362  0.0408 -0.1669 -0.0648
18376W        W61470  28.490   5.763  23.116  0.0840  0.1066  0.1863
18377W        W61471  25.364   9.999  23.462  0.3951  0.1654 -0.1877
18378W        W61472  28.493  11.096  21.262 -0.1851  0.1781  0.3531
18379W        W61473  26.356   8.607  20.089  0.0541  0.0471  0.0927
18380W        W61474  25.673  10.675  21.343  0.1092 -0.1246  0.0392
18381W        W61475  28.939   7.570  22.645  0.0279  0.3125  0.1820
18382W        W61476  28.034   9.782  20.159 -0.2608 -0.1059  0.3405
18383W        W61477  27.021   8.571  22.825 -0.3145 -0.2236  0.1013
18384W        W61478  27.392  12.673  20.763  0.2654  0.0161 -0.2845
18385W        W61479  27.017  10.103  22.306  0.2970 -0.1150  0.2466
18386W        W61480  25.142  10.162  23.008 -0.1404  0.2139 -0.1568
18387W        W61481  26.148   7.678  20.516 -0.1068 -0.0976  0.0035
18388W        W61482  28.112   8.227  22.706  0.0418  0.2736 -0.0321
18389W        W61483  25.829   9.682  24.330  0.1614  0.0618 -0.0585
18390W        W61484  28.183   8.948  23.065 -0.1757  0.4058 -0.0467
18391W        W61485  25.947   9.543  21.535  0.3153  0.3278 -0.0515
18392W        W61486  28.750   8.678  21.621 -0.1800 -0.0305  0.0979
18393W        W61487  27.090   9.664  23.370 -0.1160  0.0855 -0.0542
18394W        W61488  25.815   8.081  22.250 -0.0943 -0.0671  0.4525
18395W        W61489  26.379   9.874  20.919  0.0774 -0.2524  0.0404
18396W        W61490  27.835   8.122  23.634 -0.2031  0.0041 -0.2731
18397W        W61491  28.363   8.769  20.729  0.0734 -0.0983  0.3061
18398W        W61492  27.781  11.161  22.694 -0.0035 -0.1937  0.1666
18399W        W61493  24.840   7.252  20.759  0.0011 -0.0117 -0.0119
18400W        W61494  27.412   8.047  20.908 -0.0152  0.0453 -0.3262
18401W        W61495  25.934   8.370  21.755  0.1513 -0.1758 -0.0425
18402W        W61496  26.037   8.626  22.892  0.3564 -0.0193 -0.0329
18403W        W61497  28.226  12.064  23.717  0.0675 -0.4037 -0.0173
18404W        W61498  25.567   8.045  21.056  0.0178  0.1946  0.1489
18405W        W61499  29.374  10.892  19.941 -0.2267  0.0856 -0.0811
18406W        W61500  27.684   9.358  22.087  0.1029  0.0629 -0.2194
18407W        W61501  25.152  10.912  20.140  0.1402 -0.3303 -0.1518
18408W        W61502  27.969   9.776  22.087 -0.2437  0.2186  0.0968
18409W        W61503  29.709  11.660  21.173 -0.4461  0.1612 -0.2916
18410W        W61504  24.871   8.715  22.854 -0.1583  0.2004  0.1531
18411W        W61505  29.243  10.836  21.810 -0.0833  0.3398 -0.0575
18412W        W61506  29.790   9.719  21.907  0.0742  0.0129 -0.1354
18413W        W61507  26.938   7.058  21.024  0.0182 -0.2326  0.3887
18414W        W61508  26.521   7.726  22.922 -0.0672 -0.4755 -0.2734
18415W        W61509  25.521  11.382  20.811 -0.3333  0.1646 -0.0782
18416W        W61510  27.551   8.589  22.245 -0.0657 -0.1349 -0.0603
18417W        W61511  28.438   7.512  22.727  0.3275 -0.2000  0.1025
18418W        W61512  26.457  11.134  19.941 -0.0405 -0.0821  0.1175
18419W        W61513  27.516   6.325  22.689 -0.1320 -0.0215  0.1267
18420W        W61514  27.865  11.809  24.733 -0.0357 -0.2333 -0.1896
18421W        W61515  24.811   9.993  23.447  0.0873 -0.1186 -0.0568
18422W        W61516  25.622   9.866  20.155 -0.2191 -0.1322  0.0765
18423W        W61517  26.772   9.971  23.064 -0.5134  0.3067 -0.0198
18424W        W61518  26.899  10.365  21.313  0.2063 -0.2070  0.2751
18425W        W61519  27.891  12.072  20.464 -0.3895  0.1595 -0.1497
18426W        W61520  27.810  10.443  22.649  0.0682  0.0884 -0.2429
18427W        W61521  28.098   8.884  21.272  0.1568 -0.0577 -0.0551
18428W        W61522  28.354   9.812  22.929 -0.1413  0.0872 -0.1780
18429W        W61523  26.365   6.363  21.422 -0.2957 -0.1467 -0.0103
18430W        W61524  29.715   7.891  20.393 -0.1113 -0.0005  0.1963
18431W        W61525  29.365   7.587  20.185 -0.2652  0.1006 -0.2103
18432W        W61526  24.840   9.166  23.667 -0.3106 -0.2826 -0.1968
18433W        W61527  25.364   8.540  20.938 -0.1375 -0.0507  0.0466
18434W        W61528  27.043   9.124  21.015  0.1636  0.0566  0.1816
18435W        W61529  26.097   8.872  20.481 -0.0918 -0.1257  0.0387
18436W        W61530  26.879   7.335  22.970 -0.0092  0.0132 -0.4368
18437W        W61531  25.691   7.338  23.218  0.0717 -0.5439 -0.0766
18438W        W61532  25.880   9.491  22.634 -0.3430 -0.1497  0.2726
18439W        W61533  25.042   8.142  18.746 -0.0727 -0.1199  0.0321
18440W        W61534  29.956  10.012  19.017  0.3683  0.0122  0.3734
18441W        W61535  27.929   7.509  20.515 -0.0964  0.0711  0.2046
18442W        W61536  25.519   7.692  22.007  0.1857  0.2268  0.0705
18443W        W61537  28.167  11.144  20.861  0.3164 -0.0887  0.3144
18444W        W61538  27.984   8.812  20.422 -0.3789 -0.3763  0.0105
18445W        W61539  27.300   8.480  21.788  0.0257 -0.0063 -0.0473
18446W        W61540  28.850  10.535  23.296 -0.3356 -0.1491  0.2079
18447W        W61541  26.021  11.260  20.612 -0.2445 -0.0508 -0.0023
18448W        W61542  27.272   8.930  23.398 -0.1255 -0.0861 -0.0688
18449W        W61543  26.258   6.777  23.009  0.1727 -0.0078  0.0405
18450W        W61544  25.794   7.159  19.911 -0.0697  0.1267 -0.1432
18451W        W61545  26.775   9.344  22.190 -0.1766 -0.0374 -0.2833
18452W        W61546  27.405  10.833  21.889  0.1439  0.0770  0.1877
18453W        W61547  28.795  10.887  21.635 -0.0696  0.0874 -0.2259
18454W        W61548  27.600  11.204  23.724 -0.1088  0.2975  0.0333
18455W        W61549  27.001  10.890  23.687 -0.1582 -0.0449  0.3587
18456W        W61550  25.242   9.073  23.355  0.0754  0.2038  0.1305
18457W        W61551  28.739   9.360  20.240  0.5239 -0.1091 -0.4208
18458W        W61552  26.392   8.578  23.288  0.0401 -0.0659  0.1822
18459W        W61553  29.235   9.847  22.075 -0.1474 -0.0256  0.2314
18460W        W61554  28.623   8.209  21.892  0.2643  0.0592 -0.0954
18461W        W61555  27.264   9.030  22.215  0.0598 -0.1043  0.0744
18462W        W61556  25.521   7.405  22.716 -0.0252  0.0875  0.1973
18463W        W61557  25.997   9.923  22.343  0.3545  0.1223 -0.0621
18464W        W61558  28.227  10.269  21.804  0.0843 -0.1390 -0.1047
18465W        W61559  25.518   7.229  22.253 -0.1586  0.2369 -0.0993
18466W        W61560  27.976   9.173  20.777  0.1603 -0.0363 -0.4294
18467W        W61561  28.205  10.144  20.540  0.1656  0.2249  0.1962
18468W        W61562  25.784   8.584  21.264  0.0531  0.3441 -0.0885
18469W        W61563  28.449   7.973  22.426 -0.0985 -0.2778 -0.2516
18470W        W61564  26.381   9.478  22.530 -0.3139  0.3048  0.1581
18471W        W61565  26.646  10.479  22.373  0.0270  0.4591 -0.1493
18472W        W61566  29.035   9.090  23.288 -0.0760  0.2431  0.2678
18473W        W61567  27.713   8.395  20.669  0.1606 -0.1011  0.0448
18474W        W61568  28.249   9.734  21.533  0.0152  0.3727 -0.1332
18475W        W61569  26.037  10.540  23.194  0.4788  0.1780  0.2225
18476W        W61570  28.214   9.739  23.431  0.1603  0.3710 -0.0077
18477W        W61571  27.713  10.937  22.293 -0.1605  0.1314 -0.0817
18478W        W61572  27.930   8.889  22.103 -0.0485  0.1920  0.0173
18479W        W61573  24.471   8.931  22.552 -0.3710  0.1140 -0.0824
18480W        W61574  27.716  10.320  20.667 -0.0467  0.2623 -0.0904
18481W        W61575  27.273  10.439  21.004  0.4012  0.1325  0.3956
18482W        W61576  27.756   9.554  23.724  0.0671  0.0488  0.2353
18483W        W61577  25.669   8.264  23.093  0.0253  0.0361  0.0262
18484W        W61578  29.547   8.202  20.747 -0.1409 -0.1752  0.0191
18485W        W61579  26.390  10.916  23.137 -0.0643  0.2092 -0.4476
18486W        W61580  27.069  10.310  23.259 -0.0728 -0.0450  0.0232
18487W        W61581  26.292  11.063  25.001  0.1638 -0.2338  0.1431
18488W        W61582  26.151   9.544  24.692 -0.1550  0.0973  0.2075
18489W        W61583  28.533  10.073  23.820 -0.0379 -0.0052  0.0631
18490W        W61584  28.084   9.657  24.559  0.1501 -0.0036 -0.1242
18491W        W61585  24.722   8.289  26.059 -0.0684 -0.0434 -0.0335
18492W        W61586  28.299  10.135  24.714 -0.0370 -0.1009 -0.0408
18493W        W61587  27.416   7.592  25.583  0.1839  0.4201 -0.2827
18494W        W61588  27.305  10.450  26.481  0.2194 -0.1383 -0.0252
18495W        W61589  29.085   9.684  26.764  0.0364 -0.0627  0.0030
18496W        W61590  26.281   9.348  24.255 -0.0698 -0.0666  0.1839
18497W        W61591  26.335   9.890  27.035  0.0249 -0.2837  0.0704
18498W        W61592  26.502  11.027  25.959  0.2531  0.1089 -0.1979
18499W        W61593  25.308   8.485  23.367 -0.0013 -0.2013 -0.1461
18500W        W61594  25.078   6.333  25.246 -0.1656 -0.2071  0.1400
18501W        W61595  27.933   9.503  26.157  0.1317  0.2628 -0.0115
18502W        W61596  26.353   8.121  25.258 -0.1881  0.3865  0.1201
18503W        W61597  27.104   9.060  25.970 -0.2355 -0.0045  0.1292
18504W        W61598  27.198   8.443  23.276  0.1674  0.3475  0.1199
18505W        W61599  28.457  12.972  26.293  0.0560 -0.0443 -0.0143
18506W        W61600  25.702   7.341  26.211  0.0379  0.1116  0.1682
18507W        W61601  26.905   6.503  26.181  0.2624 -0.2028 -0.1955
18508W        W61602  28.529  11.494  25.716 -0.0586 -0.2647 -0.3129
18509W        W61603  23.753   8.831  21.326 -0.2473  0.1302 -0.2140
18510W        W61604  26.122   8.810  26.193  0.1494  0.1729  0.0436
18511W        W61605  26.702   9.846  25.622  0.1056  0.1178  0.1045
18512W        W61606  27.477   8.093  25.563  0.1499 -0.1744 -0.0073
18513W        W61607  27.599   9.672  24.661 -0.1939  0.0628  0.0207
18514W        W61608  27.945  11.306  26.449 -0.0881 -0.1806  0.2022
18515W        W61609  28.640  11.010  25.661  0.2420  0.1456 -0.2002
18516W        W61610  28.362  10.495  26.428 -0.1882 -0.0504 -0.3116
18517W        W61611  25.321  12.210  27.242  0.0184  0.7184 -0.1857
18518W        W61612  25.552  11.731  26.085 -0.1823  0.3408  0.1609
18519W        W61613  27.110  10.322  25.324 -0.0208  0.2547  0.0051
18520W        W61614  27.916   9.805  25.054 -0.0288 -0.1933  0.1210
18521W        W61615  28.586   9.320  27.163 -0.1462 -0.2826 -0.0957
18522W        W61616  26.995  11.354  27.428  0.0594 -0.0802  0.0055
18523W        W61617  26.029  11.238  24.480 -0.2082 -0.3974  0.0087
18524W        W61618  27.475  10.922  26.555  0.1760  0.0938  0.2069
18525W        W61619  27.315  10.617  27.534  0.5135 -0.0434 -0.1106
18526W        W61620  25.388   6.952  26.209  0.0362  0.0400 -0.2446
18527W        W61621  25.899  10.099  24.660  0.1975  0.0425  0.2734
18528W        W61622  25.065  10.500  24.768  0.2456  0.2715 -0.1110
18529W        W61623  26.588   9.245  24.724 -0.0264  0.3293 -0.0565
18530W        W61624  27.162  10.213  25.807 -0.1497  0.2207  0.0899
18531W        W61625  26.907  11.545  24.393 -0.1681  0.1557  0.0233
18532W        W61626  30.534   7.354  25.959  0.2960 -0.2714 -0.1879
18533W        W61627  26.335   9.895  24.336 -0.1973 -0.1959 -0.2266
18534W        W61628  29.053   7.023  24.307  0.1898  0.4711 -0.0838
18535W        W61629  25.902   9.109  22.950  0.1177  0.1211  0.0682
18536W        W61630  27.508   7.365  23.897  0.1305 -0.1000  0.3870
18537W        W61631  27.502   7.412  24.972  0.0556  0.2279 -0.0884
18538W        W61632  26.407  11.842  24.192 -0.1391  0.0080  0.0113
18539W        W61633  26.444   7.917  25.824 -0.1075 -0.2182 -0.1154
18540W        W61634  30.203   8.916  26.995 -0.0247  0.4426 -0.1131
18541W        W61635  27.231   8.768  23.892 -0.2079 -0.1609 -0.0435
18542W        W61636  28.557   9.394  26.662  0.1109 -0.1492  0.3591
18543W        W61637  25.604  10.233  27.473 -0.1751 -0.0594  0.2227
18544W        W61638  25.576  10.532  24.750 -0.1842 -0.3499 -0.1348
18545W        W61639  27.486   9.862  24.226 -0.0608  0.1026  0.0911
18546W        W61640  27.355  10.807  25.903 -0.0896  0.0648 -0.2685
18547W        W61641  26.480  11.502  22.997 -0.0358  0.3882 -0.0422
18548W        W61642  25.502   9.138  25.429  0.2091  0.0499  0.0635
18549W        W61643  25.732   9.332  27.285 -0.0935  0.1106  0.0267
18550W        W61644  26.489   9.076  27.277 -0.1865  0.1180 -0.2979
18551W        W61645  26.400   8.145  24.040 -0.0027  0.0649 -0.0759
18552W        W61646  30.475  10.850  27.985  0.1576 -0.1569  0.1038
18553W        W61647  24.574   9.654  26.469  0.1531  0.1103 -0.0801
18554W        W61648  28.449   8.303  25.596  0.0181 -0.1690 -0.0716
18555W        W61649  24.549  12.084  26.283 -0.0959 -0.0196  0.1733
18556W        W61650  27.242   9.129  25.434  0.0423 -0.2873  0.0373
18557W        W61651  28.044  10.548  24.027  0.0114 -0.3619 -0.0943
18558W        W61652  28.834   7.480  25.192 -0.3373  0.1603  0.3303
18559W        W61653  28.419   6.554  23.811  0.0459  0.3366 -0.1423
18560W        W61654  26.168   8.062  23.140  0.0151  0.0069 -0.0275
18561W        W61655  26.826   8.908  23.129  0.2474  0.1904  0.0148
18562W        W61656  30.088   9.906  27.181  0.0025 -0.3023  0.0017
18563W        W61657  27.144   7.751  23.777 -0.0492  0.2051 -0.2122
18564W        W61658  25.606  10.860  26.188  0.1534  0.1164  0.0182
18565W        W61659  25.731   8.208  26.715 -0.1871  0.1732 -0.0474
18566W        W61660  27.528  10.089  25.493 -0.0315 -0.0822  0.0506
18567W        W61661  25.280  11.037  24.535  0.2665 -0.2624 -0.1322
18568W        W61662  26.023   9.994  26.203  0.2444 -0.3288  0.1088
18569W        W61663  25.053  10.579  24.265 -0.1706  0.0629 -0.1933
18570W        W61664  26.417   9.876  26.526  0.1527 -0.1536  0.0339
18571W        W61665  26.871  10.038  24.995 -0.2547  0.0606 -0.1934
18572W        W61666  28.038   7.481  25.595 -0.0113  0.2120 -0.0839
18573W        W61667  26.590   8.476  26.051 -0.1490  0.1240 -0.1286
18574W        W61668  27.729   6.996  24.700  0.1436 -0.3091  0.1599
18575W        W61669  25.688   9.836  23.845  0.2715 -0.2126 -0.4228
18576W        W61670  28.863  10.977  24.898 -0.1179 -0.0864  0.0689
18577W        W61671  28.195   8.374  25.211  0.2485 -0.2130 -0.0668
18578W        W61672  27.519   9.929  23.564  0.0586 -0.2424  0.0415
18579W        W61673  25.676   9.197  26.102 -0.0751  0.0553 -0.0261
18580W        W61674  26.529   9.657  23.959  0.4194  0.4641 -0.0516
18581W        W61675  27.182   8.378  28.216 -0.2487 -0.2117  0.2928
18582W        W61676  25.807   8.882  25.728  0.0603 -0.0760 -0.0371
18583W        W61677  28.582   9.912  26.923  0.0859 -0.1446  0.1765
18584W        W61678  25.539   8.786  23.059 -0.4355 -0.1388  0.0347
18585W        W61679  27.803   8.455  24.621  0.0211 -0.1792  0.1768
18586W        W61680  25.519  10.475  25.325  0.4085  0.0430 -0.2434
18587W        W61681  24.486   9.750  24.609  0.1248  0.2069  0.0937
18588W        W61682  27.937   7.501  26.452  0.2323  0.0231 -0.1931
18589W        W61683  27.842  11.043  24.101  0.1821  0.0547  0.1362
18590W        W61684  30.249   9.611  26.739 -0.1370 -0.0760 -0.0206
18591W        W61685  28.252  10.822  26.929 -0.1517  0.0225 -0.1031
18592W        W61686  26.768   8.864  25.679 -0.4100  0.1662 -0.0096
18593W        W61687  25.785   8.041  24.410  0.0020 -0.0784  0.0711
18594W        W61688  26.874  12.478  24.915 -0.2689  0.0458 -0.2141
18595W        W61689  26.439  10.968  24.461  0.2467  0.0346  0.1500
18596W        W61690  26.300   8.798  24.288 -0.0027  0.1171  0.0624
18597W        W61691  29.191   9.848  25.051 -0.1322 -0.1352 -0.0954
18598W        W61692  25.913   9.910  23.273 -0.1350 -0.4019  0.2202
18599W        W61693  25.262   8.874  27.324  0.1696 -0.5055 -0.2700
18600W        W61694  26.150   7.983  26.275  0.0070 -0.2849  0.1178
18601W        W61695  28.577   9.140  25.101 -0.1087  0.1836 -0.3696
18602W        W61696  27.468   8.872  25.085 -0.1877  0.0513  0.1890
18603W        W61697  25.621   9.633  25.503 -0.1546  0.1050  0.2872
18604W        W61698  27.863  10.905  25.982  0.1173  0.2768 -0.1513
18605W        W61699  26.367  12.089  25.318 -0.0942  0.0432  0.1899
18606W        W61700  25.937   9.850  26.682 -0.2856  0.1177 -0.2228
18607W        W61701  27.752  12.524  25.578 -0.0463 -0.1909  0.0803
18608W        W61702  27.169   8.129  26.839  0.1741  0.0025  0.0877
18609W        W61703  25.323   8.593  26.874 -0.0141 -0.0751 -0.0311
18610W        W61704  27.625   9.855  25.947 -0.2334 -0.0251 -0.4393
18611W        W61705  25.412  10.152  24.511  0.0495 -0.0103  0.0274
18612W        W61706  25.981   9.918  27.680  0.0392 -0.0108 -0.1477
18613W        W61707  26.519   9.010  25.291  0.2905 -0.1807 -0.3697
18614W        W61708  27.337   7.830  24.654 -0.1432  0.0752 -0.0270
18615W        W61709  28.263  10.887  27.563 -0.3218 -0.0741 -0.5321
18616W        W61710  28.567  10.275  25.678  0.0066  0.0381  0.0651
18617W        W61711  28.250   7.741  23.552  0.1684  0.1490 -0.1820
18618W        W61712  26.644   7.636  23.986  0.1280 -0.1455  0.1492
18619W        W61713  25.189  10.136  27.205 -0.2194 -0.0058  0.0246
18620W        W61714  25.692   9.639  24.798 -0.1005  0.4314  0.0722
18621W        W61715  27.494  11.250  26.118 -0.0373  0.2360 -0.0843
18622W        W61716  26.718   8.669  24.096 -0.2927  0.0714  0.0292
18623W        W61717  30.151  11.132  25.249 -0.2968 -0.3203 -0.1540
18624W        W61718  25.257   9.242  26.935 -0.2038  0.0459  0.0407
18625W        W61719  28.244  10.392  27.121  0.0365  0.0429 -0.0367
18626W        W61720  28.942  11.394  25.380  0.0728  0.0653 -0.2137
18627W        W61721  26.061   7.596  27.321  0.2805  0.0922 -0.1254
18628W        W61722  27.272   9.253  23.860  0.0099 -0.0947  0.3199
18629W        W61723  27.001   8.347  24.636 -0.1052 -0.0062 -0.1498
18630W        W61724  25.590  11.173  24.204 -0.0669 -0.0106 -0.1407
18631W        W61725  28.625   8.937  26.462  0.2040 -0.2937  0.1811
18632W        W61726  27.493   7.964  23.328  0.0631  0.0491 -0.0791
18633W        W61727  26.321   8.344  27.431  0.0347 -0.1134 -0.0840
18634W        W61728  29.770   8.957  27.213  0.1295 -0.1579 -0.1066
18635W        W61729  28.249   7.466  24.924  0.0464 -0.1201  0.0648
18636W        W61730  27.295   8.735  24.625  0.1171 -0.0544 -0.3765
18637W        W61731  23.554   9.818  23.936  0.0021  0.0145  0.0851
18638W        W61732  26.588   9.434  25.984 -0.0575 -0.0477  0.1217
18639W        W61733  26.880  10.567  26.123 -0.2536  0.0097 -0.1838
18640W        W61734  26.810   9.933  26.136 -0.2620 -0.1533  0.2451
18641W        W61735  28.656  10.715  27.958  0.2329  0.1585  0.0285
18642W        W61736  26.888   9.666  24.545  0.0428  0.2608 -0.2303
18643W        W61737  25.501   6.349  27.113 -0.0857  0.0571 -0.4243
18644W        W61738  26.669   8.551  25.192  0.1847 -0.1052  0.2600
18645W        W61739  26.966  10.969  24.601  0.0109  0.2116 -0.0550
18646W        W61740  26.074   9.405  23.315 -0.3053 -0.0984  0.3074
18647W        W61741  27.044   8.145  26.338 -0.2110  0.1470 -0.0103
18648W        W61742  26.565  11.691  25.068 -0.0656  0.2218 -0.1585
18649W        W61743  27.502  11.499  24.817  0.0803  0.1539 -0.2148
18650W        W61744  29.441   9.273  27.015  0.2794  0.0588  0.0081
18651W        W61745  25.986  10.750  24.643 -0.0223 -0.0184 -0.0595
18652W        W61746  27.645   6.305  23.969  0.2218 -0.0990 -0.0943
18653W        W61747  24.702  10.695  25.138 -0.0956  0.0759 -0.1403
18654W        W61748  26.229   8.989  23.527  0.3034  0.0468 -0.3109
18655W        W61749  25.217   9.695  24.398  0.1320 -0.1499  0.0821
18656W        W61750  27.262   6.688  25.388  0.0169  0.0436 -0.1947
18657W        W61751  28.874   9.741  23.938 -0.0533  0.5261 -0.0947
18658W        W61752  27.463   7.229  26.075  0.2063 -0.1580  0.0205
18659W        W61753  27.997   8.125  25.625  0.2875 -0.0608  0.0173
18660W        W61754  24.324  11.969  25.806 -0.0634  0.0992 -0.0588
18661W        W61755  29.052   9.558  27.232  0.0895  0.1109  0.0018
18662W        W61756  27.204   6.663  24.474 -0.1939  0.1613  0.1778
18663W        W61757  26.820   9.898  27.214 -0.0796  0.0889 -0.1305
18664W        W61758  27.937   8.658  26.373  0.2124  0.0806 -0.0109
18665W        W61759  26.026   9.792  25.153  0.0041 -0.0589 -0.0080
18666W        W61760  29.022   9.274  26.491  0.0582 -0.0783  0.0544
18667W        W61761  27.465   8.264  24.320  0.1792  0.2007 -0.2207
18668W        W61762  25.970  11.130  26.404  0.2047 -0.0957 -0.0383
18669W        W61763  27.684  10.513  26.821  0.1473  0.1004 -0.1797
18670W        W61764  24.620  10.937  24.209  0.1713  0.4823  0.0270
18671W        W61765  27.062  11.632  24.947 -0.2529 -0.0335 -0.0154
18672W        W61766  27.148   8.597  27.063  0.0190  0.1722 -0.2878
18673W        W61767  28.741   8.184  26.812  0.2838 -0.1191  0.2352
18674W        W61768  26.738   8.318  25.596  0.3808  0.0057 -0.2639
18675W        W61769  26.827   9.358  25.452 -0.1999 -0.4092 -0.1968
18676W        W61770  27.578   8.734  26.071 -0.1001 -0.0423  0.0043
18677W        W61771  28.361   8.493  26.617  0.0739  0.2460  0.3343
18678W        W61772  26.700   8.922  26.822 -0.0397  0.0479 -0.0774
18679W        W61773  28.219   9.449  27.576  0.1051 -0.0155  0.1475
18680W        W61774  27.888   7.833  26.818  0.1477 -0.3726  0.1313
18681W        W61775  28.370  10.989  24.925 -0.1376 -0.0591 -0.0518
18682W        W61776  27.632   8.337  27.221  0.0268 -0.1662  0.1541
18683W        W61777  24.861   9.210  23.073 -0.1931  0.3381 -0.1422
18684W        W61778  25.204   9.434  26.341  0.0387 -0.0120  0.1372
18685W        W61779  26.024  11.462  24.975 -0.0943  0.0963 -0.0326
18686W        W61780  27.073   7.607  26.529  0.0732  0.1072 -0.3319
18687W        W61781  26.457  11.152  26.500 -0.0261  0.1063 -0.2204
18688W        W61782  25.710   9.960  22.811 -0.1571  0.1769  0.2573
18689W        W61783  25.525  10.421  27.962 -0.2342 -0.0093 -0.0688
18690W        W61784  28.704   7.471  24.242  0.1820  0.0408  0.1054
18691W        W61785  27.656   8.577  23.558  0.3398  0.3537 -0.1216
18692W        W61786  26.995   8.939  25.050  0.1131 -0.1956 -0.3186
18693W        W61787  29.054   8.033  26.399  0.2104  0.1027 -0.0112
18694W        W61788  27.182   9.235  24.560 -0.1064 -0.0026 -0.1975
18695W        W61789  27.811   7.886  27.797 -0.1201 -0.4076  0.3323
18696W        W61790  26.508   7.291  27.402 -0.0210  0.1671 -0.0115
18697W        W61791  28.423  10.379  24.224 -0.2672 -0.1283 -0.2800
18698W        W61792  25.500   6.984  27.142  0.1793 -0.0857  0.0419
18699W        W61793  27.671  11.688  26.279  0.2597  0.2509  0.2548
18700W        W61794  26.210  10.158  28.137  0.0201 -0.0073  0.2612
18701W        W61795  25.975   8.460  24.126  0.2591 -0.0541  0.2382
18702W        W61796  25.077   7.669  23.846  0.2634 -0.2084 -0.1629
18703W        W61797  28.705  10.527  26.876  0.2970  0.0102 -0.1122
18704W        W61798  27.737   8.466  25.274 -0.1181 -0.0695  0.2877
18705W        W61799  26.023  10.770  24.023 -0.0351  0.0637  0.1092
18706W        W61800  27.720   7.501  24.446 -0.2827 -0.1092 -0.1112
18707W        W61801  26.879  10.616  25.599  0.2878  0.0173 -0.3486
18708W        W61802  28.186   8.584  24.380  0.2970  0.1716 -0.2019
18709W        W61803  25.990  10.334  25.246 -0.0410 -0.1481 -0.4753
18710W        W61804  25.208   9.771  23.863  0.0957 -0.1041  0.0197
18711W        W61805  26.116   8.050  27.039 -0.0614 -0.0706 -0.1901
18712W        W61806  27.822   8.457  23.992 -0.1044  0.1068 -0.2306
18713W        W61807  28.842   7.823  25.967 -0.0399 -0.1749  0.2245
18714W        W61808  28.251   7.845  25.966 -0.1956 -0.1863 -0.3568
18715W        W61809  27.260   9.304  26.759  0.2282  0.0850  0.1117
18716W        W61810  27.416  10.020  26.775 -0.0713  0.1314  0.0454
18717W        W61811  26.003   8.021  27.906 -0.0766  0.1287 -0.1336
18718W        W61812  28.814  10.118  24.817  0.2405 -0.0078 -0.0910
18719W        W61813  29.280   8.572  24.336  0.2729  0.0553  0.0105
18720W        W61814  27.155   7.028  24.974  0.1245  0.1098 -0.1208
18721W        W61815  28.003  10.025  24.093 -0.0159  0.2043 -0.2598
18722W        W61816  27.354   8.238  23.744  0.1529 -0.0082 -0.3723
18723W        W61817  26.461  10.332  26.154 -0.2248  0.2039  0.4378
18724W        W61818  27.335   8.267  27.702 -0.0660 -0.2183 -0.0155
18725W        W61819  26.342   8.595  23.801 -0.2686 -0.1643  0.0663
18726W        W61820  27.365   7.838  27.363 -0.2070 -0.2846 -0.0315
18727W        W61821  27.095  12.872  25.126 -0.0538 -0.0774 -0.1489
18728W        W61822  27.300  10.805  25.356  0.1473 -0.1227  0.2135
18729W        W61823  27.979   8.802  25.016  0.3217 -0.1270 -0.1913
18730W        W61824  24.150  10.482  24.976 -0.2427 -0.1082  0.1554
18731W        W61825  26.908  10.294  27.569  0.1628  0.0216  0.0927
18732W        W61826  27.023   8.224  24.140  0.0373  0.0819 -0.0929
18733W        W61827  26.528   9.587  23.451  0.0058 -0.1953 -0.0983
18734W        W61828  26.049  11.562  25.963  0.2063 -0.3272 -0.0519
18735W        W61829  29.089   8.598  27.230  0.1697  0.1589  0.2340
18736W        W61830  26.266   8.837  24.855 -0.0389 -0.3471 -0.1046
18737W        W61831  28.312   7.957  27.032  0.2950 -0.4433  0.0533
18738W        W61832  25.804  10.469  25.756  0.0375 -0.0667 -0.1292
18739W        W61833  27.898   7.204  25.177  0.4103 -0.3261  0.1294
18740W        W61834  26.794  10.786  25.144  0.0121  0.0298  0.1525
18741W        W61835  26.757  10.250  26.578 -0.0634  0.1828 -0.0358
18742W        W61836  27.432  11.635  25.639  0.0700  0.1106  0.1195
18743W        W61837  26.861   7.860  25.481  0.4084 -0.3923 -0.0957
18744W        W61838  28.658   9.185  24.619  0.1091 -0.2175  0.1148
18745W        W61839  26.138  10.025  25.591 -0.1166 -0.1028 -0.0650
18746W        W61840  29.687   8.441  27.127  0.1099  0.4076  0.0604
18747W        W61841  27.710   9.641  27.515  0.1259  0.0421  0.3750
18748W        W61842  27.001   9.459  25.018 -0.2248  0.1344  0.1588
18749W        W61843  29.169   9.716  25.681  0.0513 -0.0307  0.0566
18750W        W61844  27.684   9.151  24.718 -0.1432  0.0593  0.1443
18751W        W61845  26.355  10.633  25.627  0.1159 -0.0847  0.1340
18752W        W61846  26.198   8.761  27.098 -0.0991 -0.0123  0.1199
18753W        W61847  27.186  10.346  27.090  0.0313  0.2020  0.0693
18754W        W61848  27.122   9.805  25.360 -0.0009  0.3122  0.0653
18755W        W61849  27.620   8.264  25.991 -0.1572 -0.0124 -0.0579
18756W        W61850  26.759  10.077  23.625  0.3786 -0.2038  0.0125
18757W        W61851  24.737  10.221  26.935  0.1172 -0.1441  0.1645
18758W        W61852  25.748   8.588  27.301 -0.0966  0.2538  0.0081
18759W        W61853  27.308  11.825  24.489 -0.2873 -0.0388 -0.0385
18760W        W61854  26.814   9.004  22.539 -0.0354  0.0904 -0.2005
18761W        W61855  27.256  10.227  24.424 -0.1733  0.1707 -0.3488
18762W        W61856  28.339  10.684  25.395 -0.1048  0.4271 -0.0420
18763W        W61857  26.867   7.974  24.967  0.1275  0.2838 -0.2209
18764W        W61858  25.752  11.657  24.164  0.1309  0.1023 -0.1314
18765W        W61859  24.743  11.532  24.753 -0.1054  0.1660 -0.0878
18766W        W61860  27.892  11.087  24.685  0.0936 -0.1177  0.4630
18767W        W61861  25.733  12.120  25.371  0.0075 -0.2300 -0.1056
18768W        W61862  27.582   9.873  27.989  0.4193 -0.1264 -0.3275
18769W        W61863  28.061   8.077  24.218 -0.0210  0.0881 -0.1607
18770W        W61864  27.826   9.148  25.400 -0.0669  0.2816  0.1184
18771W        W61865  30.612   8.909  24.034  0.2808  0.0293  0.0813
18772W        W61866  27.772  10.864  27.731 -0.1110 -0.2356 -0.1612
18773W        W61867  26.335  10.585  25.029 -0.4353  0.2217 -0.0948
18774W        W61868  26.479   7.228  23.736 -0.0709  0.2805  0.2917
18775W        W61869  27.066   8.563  26.023 -0.1169  0.0428  0.1370
18776W        W61870  30.884   7.069  27.491  0.0239  0.0755  0.2871
18777W        W61871  25.107  10.252  27.737 -0.4899 -0.0427  0.0991
18778W        W61872  28.321  10.887  24.342  0.3400  0.0240  0.1237
18779W        W61873  26.420   7.578  25.432  0.1985 -0.1707  0.1736
18780W        W61874  24.761  10.257  23.879 -0.1285  0.0501  0.1314
18781W        W61875  29.637   7.341  27.447  0.0998 -0.3981  0.0704
18782W        W61876  26.177   9.895  23.708 -0.2225 -0.0815  0.0459
18783W        W61877  28.284   8.811  25.441  0.1016 -0.1210  0.0410
18784W        W61878  26.840  12.056  25.939 -0.0681  0.0366  0.0301
18785W        W61879  25.929  10.808  25.299  0.2032  0.0828  0.1193
18786W        W61880  25.641  10.817  27.180 -0.1848  0.1249 -0.2475
18787W        W61881  26.010   8.373  23.505  0.0211 -0.2985  0.2020
18788W        W61882  29.015   8.213  24.779  0.1088  0.0186 -0.2662
18789W        W61883  27.668   9.065  26.457 -0.2078  0.3518  0.2723
18790W        W61884  28.807   7.206  26.875 -0.2174  0.0091  0.1285
18791W        W61885  25.098  10.158  25.220 -0.2024 -0.0300 -0.0438
18792W        W61886  28.301   7.714  24.431 -0.4342 -0.4352  0.1524
18793W        W61887  27.377  10.805  27.099  0.1084 -0.0212 -0.0119
18794W        W61888  26.184   8.909  26.671  0.0420 -0.1064 -0.0338
18795W        W61889  26.848   9.159  23.603 -0.1518  0.1446 -0.2774
18796W        W61890  28.653  10.269  27.324 -0.1184 -0.0288  0.3083
18797W        W61891  26.792   8.150  23.672  0.2349 -0.1078 -0.2171
18798W        W61892  28.841  10.703  25.305  0.1362  0.2090 -0.0104
18799W        W61893  27.327   7.833  25.165  0.1739  0.1822  0.0637
18800W        W61894  26.955   6.603  24.920 -0.1963  0.0614  0.0557
18801W        W61895  25.187  10.851  25.091  0.1376 -0.0309 -0.0842
18802W        W61896  28.692  10.774  27.319 -0.1825 -0.0153  0.0876
18803W        W61897  29.567  10.492  27.544 -0.0307 -0.3037 -0.0765
18804W        W61898  26.062   6.351  24.398 -0.0677 -0.0076 -0.0049
18805W        W61899  27.526  11.651  23.448  0.2627  0.2520 -0.6019
18806W        W61900  27.705   9.608  25.564 -0.2175 -0.0918  0.2812
18807W        W61901  27.038  11.173  24.108  0.1717  0.2833  0.2593
18808W        W61902  27.380  10.063  24.930 -0.0256  0.0295  0.0231
18809W        W61903  29.659  10.246  27.030 -0.1069  0.2442  0.1400
18810W        W61904  26.303   8.536  25.607  0.1531  0.0908  0.2204
18811W        W61905  29.312   9.413  26.113 -0.2111  0.0368 -0.0722
18812W        W61906  28.136   9.024  25.957 -0.0153  0.0282  0.0386
18813W        W61907  27.027   6.330  25.667  0.1427 -0.0593 -0.0049
18814W        W61908  26.529   9.599  25.062 -0.0039 -0.0237 -0.3172
18815W        W61909  25.575  11.727  25.060 -0.0431  0.1544  0.5136
18816W        W61910  29.639   8.761  26.726 -0.1716  0.2966  0.4195
18817W        W61911  28.375   9.918  26.274 -0.2414  0.0640  0.0427
18818W        W61912  26.617  10.191  24.067 -0.1966  0.1252 -0.1337
18819W        W61913  28.476   6.978  25.791  0.0240 -0.2100 -0.1822
18820W        W61914  28.331  10.389  27.651  0.1295 -0.2369  0.1233
18821W        W61915  26.630  12.131  26.943  0.3813 -0.3207 -0.2131
18822W        W61916  25.695   8.510  22.529  0.1902 -0.1314 -0.0879
18823W        W61917  27.621  10.368  26.052  0.1901  0.0256  0.1079
18824W        W61918  27.655  11.071  25.597  0.1020  0.1215  0.0470
18825W        W61919  28.155  10.212  25.369  0.0943 -0.0965 -0.4234
18826W        W61920  28.338   9.325  25.519 -0.0835  0.5843  0.0399
18827W        W61921  26.019   8.440  24.665 -0.1678  0.1978 -0.2934
18828W        W61922  27.954  10.788  26.476  0.1125  0.1981  0.5262
18829W        W61923  27.101   8.276  25.292  0.1705  0.0270  0.2988
18830W        W61924  29.515   7.925  24.936 -0.0888 -0.1160 -0.1126
18831W        W61925  26.299   6.486  24.943  0.2821  0.0827  0.0098
18832W        W61926  27.256   9.615  27.190 -0.1506  0.2530  0.0493
18833W        W61927  24.941   9.178  22.475  0.3759  0.1906 -0.1692
18834W        W61928  25.316  10.233  23.974  0.0660  0.0818 -0.0454
18835W        W61929  27.292   9.952  26.300  0.0176 -0.2099  0.2434
18836W        W61930  26.261   7.341  28.308  0.1127 -0.0197  0.1129
18837W        W61931  26.919   8.503  27.843 -0.0157  0.2506 -0.1592
18838W        W61932  26.259  11.236  25.524  0.1924 -0.1517  0.0833
18839W        W61933  25.240   8.272  25.300  0.0181 -0.1529 -0.0188
18840W        W61934  28.254  11.462  24.748 -0.0678  0.2595  0.0518
18841W        W61935  25.878   6.689  24.947  0.1147  0.1173  0.2570
18842W        W61936  25.801   8.816  25.110 -0.2967  0.1763 -0.1404
18843W        W61937  25.407  10.794  25.689  0.2411 -0.0536  0.0979
18844W        W61938  28.710  11.672  24.426 -0.0740  0.0098  0.0680
18845W        W61939  25.576   9.294  24.202  0.2623 -0.0999 -0.0764
18846W        W61940  29.546   9.776  27.095 -0.1019 -0.0338 -0.2136
18847W        W61941  25.606  10.607  24.244 -0.0103  0.0257 -0.0334
18848W        W61942  26.650   8.937  26.229  0.1426  0.1137  0.1019
18849W        W61943  24.925   7.498  28.074 -0.0397  0.1126  0.0636
18850W        W61944  25.116   7.198  24.069  0.0514  0.1882  0.1059
18851W        W61945  26.024   7.754  25.191  0.1815  0.1078 -0.0942
18852W        W61946  27.447  10.979  24.869 -0.0169 -0.1955  0.1542
18853W        W61947  27.131  11.346  23.527 -0.0290 -0.1079  0.2385
18854W        W61948  27.876  10.735  27.216  0.2010 -0.0981  0.1688
18855W        W61949  26.503  10.667  26.605  0.0655  0.0612  0.1016
18856W        W61950  24.969   8.480  27.242 -0.0100 -0.0023  0.0437
18857W        W61951  26.773   9.190  24.212 -0.3874  0.1937 -0.1294
18858W        W61952  27.029  11.018  26.242  0.2046 -0.0096  0.1054
18859W        W61953  30.108   8.038  25.306  0.1332  0.1740  0.0956
18860W        W61954  28.697   7.051  26.334  0.2762  0.4929 -0.3383
18861W        W61955  27.807   9.011  23.807  0.4399 -0.2650  0.0760
18862W        W61956  25.806   8.009  27.453  0.2124  0.1435 -0.2591
18863W        W61957  26.345   9.479  25.508  0.2342 -0.3030  0.0796
18864W        W61958  28.970   9.750  26.189 -0.1013 -0.0569 -0.0116
18865W        W61959  25.565   8.439  25.613  0.2468 -0.1522 -0.1382
18866W        W61960  26.952   7.468  25.120 -0.0511 -0.0638  0.1483
18867W        W61961  25.591  10.067  25.060  0.1435 -0.0270  0.0655
18868W        W61962  26.602   8.015  26.574  0.0359  0.3454  0.0055
18869W        W61963  26.786   8.836  24.599  0.0257  0.1040  0.0678
18870W        W61964  27.042   9.052  27.230 -0.0928  0.0932  0.2684
18871W        W61965  27.216  12.137  24.856 -0.1068  0.2882  0.1266
18872W        W61966  27.855  10.069  26.365  0.0446  0.0061  0.1792
18873W        W61967  25.654   8.102  25.136  0.0846 -0.0645  0.0297
18874W        W61968  29.335   9.410  24.215  0.0355  0.2401 -0.0426
18875W        W61969  26.960  11.107  25.752 -0.0325 -0.1529  0.0504
18876W        W61970  29.080  10.204  26.029 -0.3266  0.1252 -0.0870
18877W        W61971  25.588  10.322  26.293 -0.2245  0.2833  0.3257
18878W        W61972  27.515   8.392  26.501 -0.1627  0.0669  0.2850
18879W        W61973  25.474   7.856  25.676  0.3630 -0.0130 -0.0433
18880W        W61974  25.911   9.315  25.176  0.1663 -0.0792 -0.3989
18881W        W61975  25.984   9.434  23.788  0.0656  0.2141  0.2319
18882W        W61976  27.925   8.607  25.747  0.1464  0.1611 -0.2532
18883W        W61977  27.393   8.678  25.589 -0.1120  0.1596  0.2133
18884W        W61978  26.461   5.529  24.254  0.0990  0.0735  0.4389
18885W        W61979  25.239  11.613  26.778  0.0210  0.1543  0.1476
18886W        W61980  27.586   9.185  25.877 -0.3531 -0.3232  0.1673
18887W        W61981  26.095   9.667  31.172  0.3017 -0.0103  0.3208
18888W        W61982  27.402   8.853  28.013  0.1890  0.0058 -0.2135
18889W        W61983  28.284   7.154  26.549  0.2463 -0.2442  0.1190
18890W        W61984  29.432   8.844  28.358  0.0464  0.0786  0.1385
18891W        W61985  26.201   8.569  29.588  0.1936 -0.1854 -0.2563
18892W        W61986  29.157  10.835  28.096 -0.1432  0.3792  0.1361
18893W        W61987  24.294   6.405  29.522  0.0745 -0.0755 -0.0892
18894W        W61988  28.356  11.162  29.604  0.0565 -0.3955  0.0381
18895W        W61989  28.975  10.970  29.672 -0.2601 -0.2640 -0.0414
18896W        W61990  27.739   9.701  27.044 -0.2231  0.0120  0.0928
18897W        W61991  27.360   7.684  30.230  0.3043 -0.1098  0.1485
18898W        W61992  26.291   9.234  31.354  0.1818  0.1046  0.2310
18899W        W61993  26.314   7.509  26.889  0.0954  0.4826  0.0105
18900W        W61994  26.419   6.015  29.912  0.0423  0.0372 -0.1292
18901W        W61995  28.447   7.875  29.852 -0.6259  0.0286  0.2172
18902W        W61996  27.644   8.386  28.089 -0.1539  0.0754 -0.1678
18903W        W61997  27.121   8.372  29.431  0.0554  0.1536  0.1199
18904W        W61998  27.942   8.591  28.499 -0.0723 -0.2411 -0.1618
18905W        W61999  27.976  10.527  29.089 -0.0210 -0.0779 -0.1752
18906W        W62000  26.167   8.274  30.455  0.0645 -0.3104 -0.0072
18907W        W62001  29.339   7.697  29.944 -0.0034 -0.2654 -0.0441
18908W        W62002  27.070  12.294  27.256 -0.1325  0.1513  0.3282
18909W        W62003  27.414   9.452  28.192 -0.1338  0.0751 -0.3719
18910W        W62004  26.283   8.984  29.009  0.1015  0.1743  0.0537
18911W        W62005  27.159   9.515  28.604 -0.0652  0.0776 -0.1404
18912W        W62006  27.627   7.570  29.139  0.0622  0.0572  0.5029
18913W        W62007  28.899   8.796  28.423  0.0358  0.3681 -0.1959
18914W        W62008  27.241  10.044  29.359 -0.0093 -0.1083 -0.0876
18915W        W62009  28.392  10.160  28.273 -0.4915 -0.1523  0.2487
18916W        W62010  27.803   8.636  30.744  0.0669  0.2992 -0.0096
18917W        W62011  25.920   9.387  27.858  0.0523 -0.1398 -0.3215
18918W        W62012  27.036  11.677  28.780 -0.0216  0.0125  0.1728
18919W        W62013  26.233  10.333  28.581  0.0053 -0.0206  0.0960
18920W        W62014  29.654   9.117  27.998  0.0963  0.1524  0.1818
18921W        W62015  27.788   9.562  30.373 -0.1200 -0.2183  0.1746
18922W        W62016  27.506  10.218  29.887 -0.0247  0.0544 -0.2345
18923W        W62017  26.792  11.680  28.344 -0.1102 -0.2075 -0.1193
18924W        W62018  26.032  10.726  30.362 -0.1145 -0.0632  0.3699
18925W        W62019  27.018  11.236  29.753  0.1365  0.3190  0.0410
18926W        W62020  28.154   8.687  29.362 -0.0431  0.0963 -0.1026
18927W        W62021  27.881   7.916  29.925 -0.0429  0.1175 -0.1194
18928W        W62022  27.025   9.822  27.774  0.2594 -0.1530 -0.1129
18929W        W62023  27.716   8.832  28.903  0.1040 -0.0741 -0.1384
18930W        W62024  24.945   8.643  30.710  0.1377  0.1321 -0.0763
18931W        W62025  26.740  10.159  28.120  0.2528  0.0785  0.1039
18932W        W62026  28.456   7.870  30.386 -0.0060  0.1781  0.1192
18933W        W62027  25.989  10.449  27.201 -0.1749 -0.3998 -0.0431
18934W        W62028  26.558   7.883  27.171  0.0826 -0.2261 -0.1071
18935W        W62029  26.227   9.406  26.923  0.0771 -0.0569  0.1305
18936W        W62030  28.229   9.627  27.091 -0.1056  0.1784  0.3697
18937W        W62031  27.181   8.050  28.685 -0.0690  0.0503 -0.2633
18938W        W62032  26.738  10.160  29.129  0.1859  0.2257  0.2889
18939W        W62033  26.113   6.783  30.727  0.1999 -0.1299 -0.0709
18940W        W62034  29.755  10.107  29.991 -0.0827 -0.1226  0.1252
18941W        W62035  27.280   9.398  27.688  0.0635 -0.2884 -0.1690
18942W        W62036  26.492   7.587  29.061  0.0809  0.1344  0.0375
18943W        W62037  26.754   9.544  29.884 -0.0253 -0.0319 -0.0652
18944W        W62038  25.491   8.608  29.179 -0.2432 -0.3673 -0.0526
18945W        W62039  27.754  11.112  26.878  0.0938 -0.2831  0.0622
18946W        W62040  28.121  11.131  28.055 -0.2553 -0.3069 -0.2059
18947W        W62041  29.453  11.176  26.986  0.0674  0.0199 -0.1560
18948W        W62042  26.029   7.902  29.685  0.0400  0.0422  0.0428
18949W        W62043  26.582  10.464  29.845  0.1519  0.0785  0.0849
18950W        W62044  24.547   8.643  29.453 -0.1852  0.1031 -0.0300
18951W        W62045  25.985   7.421  29.715 -0.3840 -0.1385  0.3458
18952W        W62046  28.466   9.918  31.790  0.2347 -0.2585  0.0873
18953W        W62047  26.445   9.316  31.903  0.0744 -0.1599  0.1115
18954W        W62048  30.731   7.792  28.537  0.2513 -0.0618 -0.1059
18955W        W62049  27.064  10.701  28.931  0.0212  0.1604  0.0931
18956W        W62050  28.131  11.122  29.071 -0.1269  0.4968 -0.3025
18957W        W62051  28.191   8.428  28.126  0.1613 -0.1669  0.1812
18958W        W62052  28.985   8.284  29.216 -0.0921  0.1544 -0.0057
18959W        W62053  30.082   8.503  30.087 -0.1522  0.0331 -0.0866
18960W        W62054  25.691   8.951  26.939 -0.1723  0.1217  0.0804
18961W        W62055  28.036   8.165  27.477 -0.3393 -0.3867  0.1086
18962W        W62056  29.489  10.995  29.724  0.1783  0.1261 -0.2145
18963W        W62057  29.939   8.109  27.363 -0.0892 -0.1349  0.0891
18964W        W62058  26.964  10.077  30.231  0.4290 -0.1708  0.1038
18965W        W62059  26.695   8.867  28.783  0.0786 -0.1906 -0.0885
18966W        W62060  26.793   9.053  31.357  0.2952 -0.2146  0.2481
18967W        W62061  26.049  11.383  26.961  0.0262 -0.1421  0.2193
18968W        W62062  25.380   9.134  29.393  0.2615 -0.0231  0.1016
18969W        W62063  25.068   8.908  27.800 -0.3676 -0.0131  0.0915
18970W        W62064  24.422   6.728  29.889 -0.1505  0.1393 -0.0676
18971W        W62065  27.398  10.632  29.405 -0.1687 -0.0619 -0.0147
18972W        W62066  28.077   7.255  26.041  0.2125  0.0820  0.1018
18973W        W62067  24.537   7.631  29.579 -0.0386  0.1071  0.2179
18974W        W62068  28.101   7.167  27.427 -0.1698  0.1200  0.1560
18975W        W62069  26.744   9.490  27.522  0.0131  0.2654 -0.0318
18976W        W62070  28.147   9.967  27.407 -0.1557  0.0102 -0.2921
18977W        W62071  27.842   9.272  26.860 -0.5008  0.1070  0.1449
18978W        W62072  28.875   9.647  28.690 -0.0161 -0.3606  0.1080
18979W        W62073  26.016   8.578  29.080 -0.0516  0.0751  0.0238
18980W        W62074  26.330   8.433  28.763 -0.3748 -0.0629  0.0271
18981W        W62075  24.683   6.762  30.494  0.1387  0.1328 -0.0832
18982W        W62076  26.096   5.754  29.144  0.0554  0.0159 -0.1804
18983W        W62077  28.068   9.180  30.632  0.0431  0.0261 -0.0315
18984W        W62078  26.374   7.850  27.705 -0.1325  0.2140 -0.0393
18985W        W62079  29.257   7.083  26.694  0.1619  0.3255  0.2316
18986W        W62080  27.802   9.121  28.340  0.1289 -0.0221 -0.0484
18987W        W62081  25.252   8.855  28.795 -0.0255 -0.0163 -0.0566
18988W        W62082  27.737   7.368  30.231  0.0915  0.2208  0.1290
18989W        W62083  29.017  10.535  27.603 -0.0905  0.1041  0.0548
18990W        W62084  30.298  10.068   0.087 -0.0406  0.2148  0.1294
18991W        W62085  29.306  11.724  28.145  0.3602  0.0286 -0.0816
18992W        W62086  26.290   6.955  29.736  0.1105 -0.0654 -0.0274
18993W        W62087  26.486   6.944  28.407 -0.1978 -0.0202  0.1933
18994W        W62088  24.479  11.796  29.144 -0.3959  0.1801  0.0417
18995W        W62089  27.832   9.725  29.233  0.1923 -0.1984 -0.0002
18996W        W62090  24.510   7.750  28.377 -0.2113  0.2647  0.1407
18997W        W62091  28.993  11.321  30.544 -0.2306 -0.1292  0.1206
18998W        W62092  28.865   9.379  28.283  0.2672 -0.0023 -0.1466
18999W        W62093  27.378   8.937  28.586  0.0609 -0.0798 -0.2647
19000W        W62094  28.029   7.682  30.494 -0.0435 -0.0624 -0.3928
19001W        W62095  28.531   9.312  29.998 -0.2308  0.1683 -0.1050
19002W        W62096  28.597   8.054  28.909 -0.1041  0.3066 -0.0450
19003W        W62097  25.833   8.712  28.646 -0.0392 -0.1115  0.1991
19004W        W62098  29.496  10.471  28.015 -0.1299 -0.1160  0.0331
19005W        W62099  26.527  10.523  27.821  0.1490 -0.0176 -0.0932
19006W        W62100  25.731   8.297  28.248  0.0722 -0.1164  0.1241
19007W        W62101  28.130   9.918  27.930  0.1177  0.4182 -0.0987
19008W        W62102  30.436   8.498  29.741 -0.4144  0.3758 -0.1770
19009W        W62103  25.838   9.227  30.339 -0.1962  0.0944 -0.0765
19010W        W62104  27.003   8.465  30.111  0.1048 -0.1302 -0.3318
19011W        W62105  26.186   7.839  28.772  0.0899 -0.0757 -0.0847
19012W        W62106  26.594   9.850  28.719  0.0194  0.0998 -0.0405
19013W        W62107  28.594   7.571  28.904  0.2352 -0.1707  0.1373
19014W        W62108  27.214   7.155  26.990  0.1895 -0.1632 -0.1749
19015W        W62109  28.874   9.124  30.482  0.0640  0.1326 -0.1497
19016W        W62110  29.163   9.976  27.465 -0.3427 -0.0167  0.0772
19017W        W62111  27.860   7.122  28.456 -0.0211 -0.0201 -0.2374
19018W        W62112  26.905   7.566  27.209 -0.0150  0.0415 -0.0351
19019W        W62113  26.037   8.845  31.523  0.0683 -0.2518  0.2705
19020W        W62114  29.625  10.403  28.710  0.0130  0.1032 -0.1679
19021W        W62115  27.874  10.038  28.848  0.0669 -0.0137 -0.0965
19022W        W62116  28.257   8.953  26.802  0.0979 -0.0902  0.4297
19023W        W62117  28.771  11.192  27.726 -0.0489 -0.1026  0.1245
19024W        W62118  26.469   9.162  29.867 -0.2683  0.0668  0.1050
19025W        W62119  27.239   9.342  29.705 -0.0834 -0.1685  0.1167
19026W        W62120  28.492   9.135  29.486  0.2301 -0.1110  0.3751
19027W        W62121  25.354   6.113  30.672 -0.0913  0.0054  0.2782
19028W        W62122  26.996   9.460  26.275 -0.0153  0.2295  0.1416
19029W        W62123  28.053   7.197  29.104  0.0734 -0.0774  0.5412
19030W        W62124  24.949   9.704  27.087  0.1868  0.0122 -0.0011
19031W        W62125  28.761   8.644  28.918  0.0153 -0.0904 -0.1304
19032W        W62126  28.898   7.956  30.183 -0.2451 -0.1090 -0.1263
19033W        W62127  26.956   7.153  30.233  0.3108  0.0549 -0.4117
19034W        W62128  29.510  10.127  31.179  0.2322  0.1239 -0.2086
19035W        W62129  27.811   8.691  27.570  0.0734 -0.0953  0.0786
19036W        W62130  28.177   8.133  28.508  0.2164  0.0914 -0.0907
19037W        W62131  26.379  10.182  27.514  0.3464 -0.3125  0.2777
19038W        W62132  26.378   7.365  30.218 -0.0621 -0.2343 -0.2722
19039W        W62133  26.672   9.145  29.377  0.3675  0.1301 -0.2694
19040W        W62134  25.571  10.120  31.007  0.0427 -0.2519 -0.2761
19041W        W62135  27.434   9.568  30.712 -0.1358 -0.1965  0.0737
19042W        W62136  29.067   8.330  28.631  0.4237 -0.2726 -0.1920
19043W        W62137  26.442   7.826  29.964  0.0799  0.1798  0.0095
19044W        W62138  27.462   7.932  28.168  0.2381  0.1234 -0.1729
19045W        W62139  27.234  10.287  27.947  0.1607 -0.2665 -0.0612
19046W        W62140  27.107   9.893  28.253  0.0488  0.0623  0.2078
19047W        W62141  26.910   6.894  28.764 -0.3680 -0.0624  0.0448
19048W        W62142  28.344   9.013  28.353  0.0858 -0.1324 -0.3242
19049W        W62143  26.867  10.694  27.250 -0.0508  0.2959  0.0049
19050W        W62144  26.552  10.917  29.679 -0.2921 -0.2976  0.0450
19051W        W62145  27.493  10.636  28.109 -0.1320  0.0229 -0.1953
19052W        W62146  29.940   8.231  29.000  0.1713  0.1174 -0.1678
19053W        W62147  24.863   9.015  29.577 -0.1105  0.3027  0.2212
19054W        W62148  26.976   7.696  28.281  0.1415  0.1791 -0.2120
19055W        W62149  25.224   7.730  28.447  0.2840  0.0064  0.2180
19056W        W62150  28.036   6.738  27.664  0.0725  0.0095 -0.0439
19057W        W62151  28.625   8.910  27.981 -0.0091 -0.0606  0.0268
19058W        W62152  24.643   6.951  28.129 -0.1341 -0.0258  0.3325
19059W        W62153  27.577   5.896  29.450 -0.2580  0.1768  0.4785
19060W        W62154  25.534  10.272  28.891  0.2610  0.1056 -0.0972
19061W        W62155  28.815   7.555  29.822  0.2744  0.1272  0.1306
19062W        W62156  29.157   7.597  26.788  0.1357  0.3685 -0.0766
19063W        W62157  28.025   9.182  30.080 -0.0116 -0.3404 -0.0747
19064W        W62158  27.507   9.060  30.616  0.4746  0.0074 -0.1224
19065W        W62159  26.715   8.509  26.546 -0.0343  0.2710 -0.2055
19066W        W62160  29.885   7.622  29.915 -0.0425  0.0574 -0.2752
19067W        W62161  27.844   7.644  28.389 -0.3056  0.1240  0.0268
19068W        W62162  25.514  10.590  29.371 -0.1015  0.0450  0.0752
19069W        W62163  29.188  10.329  29.034 -0.2892  0.3105  0.3651
19070W        W62164  28.031   8.382  28.924 -0.0718  0.0951 -0.1986
19071W        W62165  26.204  10.930  28.722  0.0334 -0.2472 -0.0357
19072W        W62166  24.832   8.157  30.955  0.0622 -0.2041  0.1367
19073W        W62167  27.584   9.208  29.305 -0.1024 -0.3084  0.1029
19074W        W62168  26.624   7.390  28.633  0.2807  0.1442 -0.0629
19075W        W62169  28.252   8.898  28.867 -0.0966  0.0819  0.1418
19076W        W62170  29.081   8.410  27.664  0.2274 -0.2660  0.1479
19077W        W62171  28.671   9.448  30.991 -0.2622  0.2821  0.1687
19078W        W62172  26.879   7.494  29.853  0.1124 -0.2541  0.0635
19079W        W62173  26.274   9.974   0.181 -0.0172 -0.0014 -0.0760
19080W        W62174  27.807   6.403  28.646  0.0016 -0.0339 -0.0157
19081W        W62175  30.141  12.082  27.283  0.2438  0.0039 -0.1169
19082W        W62176  27.269   8.943   0.302  0.3299  0.0538 -0.1357
19083W        W62177  27.172   9.616  25.799  0.1521  0.0710 -0.1165
19084W        W62178  24.662   9.418  29.251 -0.0837  0.0654 -0.0008
19085W        W62179  27.705  10.359  27.755 -0.1547  0.3120 -0.0178
19086W        W62180  27.338   7.986  29.202 -0.0318 -0.3011 -0.0193
19087W        W62181  27.397   8.732  29.864  0.0744  0.1799 -0.2535
19088W        W62182  26.575  11.373  27.760  0.0433 -0.0819 -0.0536
19089W        W62183  25.644  10.557  29.966 -0.0622  0.2376  0.1225
19090W        W62184  27.513   7.837  26.291  0.2480  0.5561 -0.3226
19091W        W62185  27.516   9.212  27.201  0.1269 -0.0013 -0.2901
19092W        W62186  26.691   8.180  28.173  0.2330 -0.1359  0.2910
19093W        W62187  30.219   8.914  30.774 -0.0816 -0.1000 -0.0084
19094W        W62188  28.731   7.767  27.166  0.0803 -0.3096 -0.2443
19095W        W62189  28.466   8.920  30.318  0.0603  0.2114  0.0034
19096W        W62190  24.556   8.331  28.188 -0.0729 -0.0407 -0.0081
19097W        W62191  28.409  10.125  29.872  0.1588 -0.2827 -0.1831
19098W        W62192  25.308   6.602  31.657  0.3619 -0.0894  0.3002
19099W        W62193  27.829  10.864   0.896  0.0141  0.3757  0.1195
19100W        W62194  25.339   8.908  30.371  0.0382  0.0314 -0.0902
19101W        W62195  26.530   8.377  26.993  0.0194 -0.1602  0.1303
19102W        W62196  27.528   6.484  29.834  0.2244  0.2390 -0.0397
19103W        W62197  25.505   9.048  29.946  0.0115 -0.0161 -0.0135
19104W        W62198  28.231  10.129  29.222 -0.1009 -0.1024 -0.1425
19105W        W62199  26.638   9.312  28.465  0.0573  0.0242  0.0835
19106W        W62200  29.809   7.228  28.622 -0.0477 -0.3343 -0.0423
19107W        W62201  27.173  10.418  28.500 -0.2136 -0.0572  0.1380
19108W        W62202  28.360   8.564  27.594  0.3586 -0.0715  0.0023
19109W        W62203  28.594   8.755  27.112 -0.2462 -0.0036 -0.1984
19110W        W62204  28.101   8.606  27.189 -0.1053  0.1428 -0.1638
19111W        W62205  25.415   6.794  28.564  0.0178 -0.2856 -0.0925
19112W        W62206  28.460  10.772  28.919  0.0024  0.3413 -0.4320
19113W        W62207  28.752   8.361  28.040 -0.0872  0.1460  0.2034
19114W        W62208  28.735   7.811  29.356 -0.1456 -0.1009 -0.2291
19115W        W62209  29.332   7.766  29.356  0.0685  0.2632  0.1366
19116W        W62210  26.792   8.617  31.137  0.1426 -0.3203  0.0706
19117W        W62211  25.800   6.531  30.378  0.3864  0.1177  0.2640
19118W        W62212  29.167  10.824  30.392 -0.0207  0.0929 -0.0202
19119W        W62213  27.603   9.591  26.501  0.0073  0.0502 -0.2257
19120W        W62214  29.975   8.888  29.811  0.3079  0.0847 -0.0552
19121W        W62215  28.655   8.230  27.452  0.1508  0.0240 -0.3108
19122W        W62216  29.221   8.440  28.157 -0.1320  0.0935  0.1455
19123W        W62217  25.092   8.002  29.488  0.0542 -0.0320  0.0633
19124W        W62218  28.309   8.691  31.371  0.1443  0.1879 -0.2528
19125W        W62219  27.359  10.060  27.526  0.3660 -0.0328 -0.0056
19126W        W62220  27.402   7.780  29.681 -0.3184 -0.2058 -0.0402
19127W        W62221  27.959   9.442  28.007 -0.0138 -0.2787 -0.1887
19128W        W62222  28.393   9.566  28.319 -0.0320  0.0824  0.2735
19129W        W62223  28.295   7.931  27.945  0.2512 -0.0198 -0.1134
19130W        W62224  25.713   8.326  29.476 -0.4007  0.2151  0.3666
19131W        W62225  25.847  10.174  30.564  0.1997  0.1215  0.6052
19132W        W62226  26.516   9.733  27.914 -0.1099 -0.0250  0.1258
19133W        W62227  26.336   9.246  28.006 -0.0474  0.0033 -0.1399
19134W        W62228  27.153   9.821  29.824  0.3194  0.0073 -0.0499
19135W        W62229  29.492  10.397  30.301 -0.0123 -0.0753  0.2354
19136W        W62230  26.948   5.987  28.700  0.2343  0.2143  0.3900
19137W        W62231  29.228   8.859  30.283  0.1956 -0.0469 -0.0158
19138W        W62232  26.504  10.725  28.313  0.5226 -0.2803  0.3265
19139W        W62233  27.772   7.326  29.545 -0.0373 -0.0093 -0.1340
19140W        W62234  26.384  10.685  30.731 -0.0785  0.1604 -0.0166
19141W        W62235  26.749  10.010  29.619  0.1533 -0.2521  0.0980
19142W        W62236  27.729  10.254  29.358  0.1739  0.2573 -0.0456
19143W        W62237  28.609   7.146  28.397  0.0230  0.1848  0.0708
19144W        W62238  28.930   7.490  28.587 -0.1052  0.0346  0.1014
19145W        W62239  28.052   7.722  28.873  0.1566 -0.2487 -0.3294
19146W        W62240  28.275   8.823  29.859 -0.1702  0.0955  0.1348
19147W        W62241  27.131   9.098  29.021 -0.1180  0.0631 -0.3660
19148W        W62242  27.490   9.860  28.604  0.2364 -0.0061 -0.0698
19149W        W62243  28.344  10.601  29.938  0.0273  0.2081 -0.1329
19150W        W62244  29.269   9.316  28.665 -0.1292 -0.1286  0.2374
19151W        W62245  27.976   9.920  29.649  0.0531  0.1388  0.1462
19152W        W62246  24.675   8.183  30.023  0.1512  0.2908 -0.1849
19153W        W62247  26.557   8.682  31.633  0.0131  0.1752  0.0053
19154W        W62248  29.102   8.036  27.349 -0.0828  0.0350  0.0653
19155W        W62249  25.985   7.515  27.910 -0.1410  0.1797 -0.0688
19156W        W62250  26.552  11.101  27.043  0.1964 -0.0421  0.0876
19157W        W62251  26.620   9.712  31.074 -0.1089  0.1481  0.0767
19158W        W62252  25.678   8.969  30.736 -0.0469  0.3363  0.1672
19159W        W62253  25.671  10.306  28.436  0.3064 -0.0696  0.1786
19160W        W62254  28.350   9.978  28.761  0.1903  0.2846  0.2204
19161W        W62255  27.704   9.171  27.678 -0.1239  0.2730 -0.0174
19162W        W62256  28.785  11.461  29.638 -0.1363  0.1529 -0.1660
19163W        W62257  27.000   8.146  27.326 -0.0341  0.0033 -0.0595
19164W        W62258  26.249   9.436  28.863 -0.2590 -0.2476 -0.1046
19165W        W62259  25.117  10.623  27.071  0.0062  0.3472 -0.0068
19166W        W62260  28.583  10.590  28.463 -0.0859 -0.3044 -0.0296
19167W        W62261  24.498   9.337  28.290 -0.0713 -0.0038 -0.2831
19168W        W62262  29.030  11.022  30.962  0.0577 -0.1712 -0.2613
19169W        W62263  28.485   9.308  26.168 -0.0842 -0.1768 -0.1442
19170W        W62264  28.317   8.186  29.367 -0.1510  0.1818 -0.1331
19171W        W62265  29.967   7.679  27.695  0.0269  0.0097  0.0025
19172W        W62266  28.512  10.561  30.949  0.2612  0.3123  0.0383
19173W        W62267  26.921   8.832  28.231 -0.1589 -0.2418  0.1459
19174W        W62268  26.807   9.038  27.744 -0.0777  0.1217 -0.1883
19175W        W62269  26.628   8.787  30.296  0.4572  0.0631  0.0705
19176W        W62270  29.034   7.442  30.990 -0.1311  0.0598 -0.1185
19177W        W62271  25.195  11.000  29.649 -0.2698  0.0957 -0.0454
19178W        W62272  28.810  10.167  26.468 -0.1149  0.1722 -0.1642
19179W        W62273  26.368   7.845  28.276  0.0018 -0.1659 -0.4296
19180W        W62274  27.362   9.614  29.139  0.1435  0.1393 -0.0782
19181W        W62275  29.607   8.177  29.970  0.0440  0.0032  0.1055
19182W        W62276  26.143   9.546  28.302 -0.2835 -0.0255 -0.2883
19183W        W62277  28.468   8.551  28.509  0.0439 -0.0043 -0.1896
19184W        W62278  27.283  11.332  26.875  0.2439 -0.1037 -0.1829
19185W        W62279  25.765   8.990  29.050  0.1761  0.2198  0.0939
19186W        W62280  27.298  11.165  29.298 -0.2976 -0.0575 -0.2505
19187W        W62281  25.610   7.268  30.064 -0.1405  0.1639  0.1000
19188W        W62282  28.136   9.372  28.718 -0.2860 -0.0702  0.0806
19189W        W62283  26.869   8.447  28.656 -0.0044  0.1299 -0.1973
19190W        W62284  27.891   6.522  30.272  0.0242 -0.1476  0.6051
19191W        W62285  26.305   8.908  28.504  0.0648  0.3482 -0.4106
19192W        W62286  29.573   7.817  27.229 -0.1602  0.2827  0.2161
19193W        W62287  27.655   9.443  28.763  0.1809  0.1834  0.3562
19194W        W62288  25.612   8.075  30.413  0.0691  0.0369 -0.2955
19195W        W62289  26.724   9.421  27.037  0.0123 -0.3978  0.0690
19196W        W62290  28.485   8.085  30.944  0.3371 -0.0809  0.0172
19197W        W62291  27.820   7.420  27.705  0.0383  0.1465  0.1982
19198W        W62292  27.811  10.980  29.413 -0.0126 -0.2076 -0.1146
19199W        W62293  26.634   8.649  29.194  0.0083 -0.0223 -0.0511
19200W        W62294  27.397   7.647  26.892 -0.4571 -0.0075  0.2107
19201W        W62295  27.944   9.793  28.403  0.0164  0.4137 -0.1136
19202W        W62296  26.623   9.301  30.304  0.1182  0.1404 -0.1325
19203W        W62297  28.846   9.866   1.153  0.0775  0.2983  0.0812
19204W        W62298  26.261   6.936  27.933  0.0394  0.0284 -0.2934
19205W        W62299  29.062  10.210  26.972  0.0091 -0.1201  0.1297
19206W        W62300  29.619   8.662  27.567 -0.0163  0.3292  0.1751
19207W        W62301  26.446  10.359  27.021 -0.5442  0.1907  0.0381
19208W        W62302  27.817   8.949  29.663 -0.2366 -0.0604 -0.1373
19209W        W62303  27.329  11.275  28.823  0.2383  0.1781  0.0305
19210W        W62304  25.634   7.738  28.866 -0.2085  0.0722 -0.0438
19211W        W62305  28.289  10.685  29.451  0.3821  0.0720 -0.0606
19212W        W62306  28.804  10.652  30.134 -0.1934 -0.2641  0.0462
19213W        W62307  28.839   7.812  27.683  0.2283  0.0214  0.2502
19214W        W62308  25.668   8.552  30.385 -0.1930 -0.1132  0.0565
19215W        W62309  25.284   9.587  29.014 -0.0380  0.0334  0.2976
19216W        W62310  30.625   6.467  28.802 -0.1635 -0.0076  0.1815
19217W        W62311  28.878   7.521  28.084 -0.0522  0.2016  0.0090
19218W        W62312  29.068  11.752  25.701  0.3073 -0.3200  0.0920
19219W        W62313  28.986   7.293  29.039  0.1244  0.3152 -0.1095
19220W        W62314  27.023  10.809  30.119  0.5450 -0.2341 -0.0924
19221W        W62315  26.538  11.117  31.812 -0.1750 -0.1412  0.1174
19222W        W62316  28.127   8.999  27.876 -0.1313 -0.1244  0.0157
19223W        W62317  26.818   8.160  29.092  0.1563  0.2097 -0.2117
19224W        W62318  28.694  10.428  29.227 -0.0387  0.3420 -0.1573
19225W        W62319  27.786  11.404  27.789  0.1303  0.4132  0.0454
19226W        W62320  28.977  10.748  29.011  0.1662  0.0439  0.0158
19227W        W62321  28.770   8.032  28.441  0.0467  0.0946  0.1263
19228W        W62322  28.528   9.488  30.465  0.0094  0.2156  0.0240
19229W        W62323  27.033   7.621  28.949  0.1217 -0.0510 -0.0028
19230W        W62324  29.950   7.025  27.707  0.2587 -0.1905  0.1443
19231W        W62325  28.186   7.183  28.065  0.5735  0.4651 -0.0568
19232W        W62326  26.585   9.013  30.854 -0.0312  0.0928  0.3008
19233W        W62327  25.050   7.521  27.569  0.1545 -0.0058  0.4528
19234W        W62328  26.007  10.652  28.258 -0.0323  0.1828 -0.4016
19235W        W62329  26.427   9.775  29.278 -0.0861  0.0714  0.1421
19236W        W62330  26.456   6.809  30.288  0.0870 -0.1812  0.1026
19237W        W62331  27.939   8.455  29.744 -0.0151 -0.0573  0.1759
19238W        W62332  25.854   8.220  28.786 -0.1317  0.2871  0.0411
19239W        W62333  26.614   8.018  28.669 -0.1152 -0.1969 -0.0586
19240W        W62334  28.784   8.900  29.894 -0.2008  0.1215  0.0970
19241W        W62335  25.246   8.358  30.066  0.2905  0.1869 -0.2259
19242W        W62336  26.054   7.350  28.831  0.1234 -0.1164  0.1929
19243W        W62337  29.635   9.987  29.027 -0.1129 -0.3808 -0.1906
19244W        W62338  28.843  10.202  28.616  0.3767 -0.1973  0.2185
19245W        W62339  25.493   6.803  29.997  0.1963  0.0970 -0.2090
19246W        W62340  28.891  10.638  31.364 -0.0369  0.0288 -0.1083
19247W        W62341  26.295   9.606  27.433  0.3061  0.0865 -0.1971
19248W        W62342  26.942   7.973  30.832  0.1182 -0.1513 -0.0923
19249W        W62343  26.774   7.805  29.418 -0.1196  0.3623  0.0538
19250W        W62344  25.704   7.199  28.114  0.0264  0.1428 -0.0787
19251W        W62345  29.488   8.794  29.341 -0.2810  0.2103  0.0087
19252W        W62346  28.055   9.163  29.192  0.3314  0.1759  0.0434
19253W        W62347  28.492  11.316  27.219  0.0042  0.2317  0.0864
19254W        W62348  27.061   9.920  28.868  0.0517  0.2492  0.2454
19255W        W62349  27.165   8.877  29.457  0.2739  0.0841 -0.1409
19256W        W62350  24.819   7.152  29.720 -0.0065 -0.2062 -0.2862
19257W        W62351  28.587   9.530  29.100 -0.2791 -0.0644 -0.1790
19258W        W62352  26.858  10.470  30.486 -0.1357  0.1123 -0.0650
19259W        W62353  29.747   9.436  27.648  0.4333 -0.0176  0.2093
19260W        W62354  29.189   8.359  30.179 -0.1557 -0.0200  0.1812
19261W        W62355  27.665   8.037  28.739 -0.1052 -0.0841  0.1046
19262W        W62356  25.342   6.461   0.206 -0.1929 -0.0426 -0.1187
19263W        W62357  26.745   9.419  28.983  0.0709  0.0147 -0.2986
19264W        W62358  30.167  11.416  29.463  0.1272  0.0683 -0.1120
19265W        W62359  26.459   7.432  29.556  0.2269  0.2295  0.2493
19266W        W62360  26.890   7.346  29.324  0.1314  0.0511 -0.0227
19267W        W62361  27.318   8.764  27.476  0.0388  0.1095  0.4367
19268W        W62362  25.644   6.195  30.060  0.4130 -0.1475  0.2380
19269W        W62363  27.272   6.921  29.511  0.1206  0.1457  0.1836
19270W        W62364  28.203   7.627  29.372 -0.0549 -0.1719  0.0761
19271W        W62365  27.480   9.220  30.128 -0.0202  0.0272 -0.2617
19272W        W62366  27.335  10.422  30.412 -0.0353  0.2337  0.0370
19273W        W62367  26.933   9.784  26.718 -0.1026 -0.0643  0.2397
19274W        W62368  29.977  10.541  27.969  0.0679  0.0142 -0.2872
19275W        W62369  27.053  10.367  29.810 -0.2041  0.0448 -0.0318
19276W        W62370  29.034  10.158  30.122 -0.0972 -0.0082 -0.0580
19277W        W62371  26.143   9.869  29.676 -0.1055 -0.2210 -0.0095
19278W        W62372  28.845   9.135  28.765 -0.1058 -0.2184 -0.0623
19279W        W62373  25.790   5.922  30.454 -0.2182  0.0227 -0.1248
19280W        W62374  29.287   9.887  28.570 -0.3620 -0.0819 -0.3012
19281W        W62375  28.028   9.097  27.263 -0.0792 -0.1206  0.1127
19282W        W62376  27.810   8.001  29.422  0.1151 -0.3873  0.0713
19283W        W62377  27.238   8.590  29.006  0.0988 -0.0577  0.0162
19284W        W62378  26.830   7.807  27.710 -0.1927  0.1236  0.1331
19285W        W62379  26.653  10.282   0.187  0.1857  0.0672  0.0129
19286W        W62380  27.617   8.588  29.351  0.0866  0.1292 -0.1304
19287W        W62381  29.054   8.082  29.725  0.0715 -0.1376  0.1580
19288W        W62382  27.608   8.164  31.244 -0.0125 -0.0323 -0.0055
19289W        W62383  25.945   9.945  31.810  0.3167 -0.4315  0.4410
19290W        W62384  25.753   9.244  31.129  0.1226  0.1350 -0.2211
19291W        W62385  25.877  10.047   0.807 -0.0024  0.2105 -0.1024
19292W        W62386  26.729  10.138  31.676  0.2661  0.0443 -0.0797
19293W        W62387  27.653   9.200  31.046  0.1191 -0.0420 -0.0852
19294W        W62388  26.449   8.441  30.808  0.0942  0.0974 -0.0334
19295W        W62389  27.664   8.140  30.356  0.2089 -0.0483  0.3756
19296W        W62390  28.010  10.629  31.196  0.0252  0.4740 -0.1325
19297W        W62391  27.161   9.931  31.661  0.0552  0.5264 -0.1880
19298W        W62392  26.205   7.324  30.684 -0.3369  0.0109  0.0132
19299W        W62393  27.123  10.078  30.732 -0.1487 -0.0688 -0.0847
19300W        W62394  27.133   9.309  30.999  0.2133  0.2868 -0.0485
19301W        W62395  27.973   8.089  30.912 -0.0359  0.2031  0.3599
19302W        W62396  25.834   9.922  30.138 -0.1985 -0.3720  0.1258
19303W        W62397  25.124   9.093  30.873 -0.2347 -0.0984  0.1405
19304W        W62398  28.139  10.253  31.611  0.1530 -0.3342 -0.1938
19305W        W62399  26.983   6.586  31.158 -0.1464  0.0516  0.0204
19306W        W62400  25.266   8.359  30.972 -0.0113 -0.3012  0.3160
19307W        W62401  26.275   7.760  30.519  0.0376  0.2144  0.1404
19308W        W62402  24.774  11.237  31.953 -0.0572  0.1963  0.1643
19309W        W62403  28.368   7.760  31.276 -0.0670  0.1765 -0.0958
19310W        W62404  27.164   7.453  30.718  0.2074 -0.0287  0.1056
19311W        W62405  26.869   6.691   0.826 -0.1638  0.1222  0.0108
19312W        W62406  27.384   8.318  30.804  0.0796  0.1203  0.0283
19313W        W62407  26.293   8.842   0.048  0.2245  0.0311 -0.0050
19314W        W62408  25.574  11.477  31.530 -0.1253  0.0704  0.2687
19315W        W62409  25.442   7.802  30.000 -0.2931 -0.0354  0.0859
19316W        W62410  26.234  10.327  31.776 -0.0048 -0.1096 -0.1182
19317W        W62411  26.910   9.527  31.570  0.1458 -0.0348 -0.0720
19318W        W62412  26.351  10.175  30.444 -0.2444  0.0475 -0.1363
19319W        W62413  27.637  10.327   0.177 -0.1159  0.3181  0.1508
19320W        W62414  27.145   8.094  30.408  0.2122  0.2593 -0.1244
19321W        W62415  25.603   7.460  31.155  0.0068  0.2274 -0.0807
19322W        W62416  28.092   8.553  31.808  0.3301 -0.2095  0.0104
19323W        W62417  26.093  10.302  29.982  0.2875  0.2871  0.0148
19324W        W62418  27.487  11.745   0.055  0.0476  0.2215  0.1421
19325W        W62419  27.691   9.626  31.377 -0.0579 -0.3621  0.0032
19326W        W62420  27.352   9.260  31.447 -0.0592  0.2138  0.1525
19327W        W62421  29.396   9.231  31.775 -0.1170 -0.0721  0.3783
19328W        W62422  27.437   8.652  30.366  0.0245 -0.1067  0.1642
19329W        W62423  25.896   7.731  30.181 -0.1892 -0.0036  0.1311
19330W        W62424  27.891  11.586  31.647  0.2175  0.1673  0.0607
19331W        W62425  26.998   9.044  30.030  0.2608  0.0823 -0.1568
19332W        W62426  27.843   9.048   0.161 -0.0095  0.3616 -0.0537
19333W        W62427  27.890   7.636  31.138 -0.3126 -0.2461 -0.2141
19334W        W62428  26.494  10.023  30.034 -0.2616 -0.0365 -0.0510
19335W        W62429  27.319   9.202   0.798 -0.0810  0.0397 -0.2352
19336W        W62430  26.239  11.005  31.089 -0.2593 -0.2747  0.0571
19337W        W62431  27.591  10.395  31.642  0.1740  0.0411 -0.1851
19338W        W62432  27.015   7.983  29.830  0.0648  0.1050  0.0405
19339W        W62433  25.384   7.879  31.560 -0.0223 -0.1001 -0.1940
19340W        W62434  27.906   8.707  30.201  0.2148 -0.1062 -0.3387
19341W        W62435  25.798   8.512  30.906  0.0497 -0.1685  0.3467
19342W        W62436  27.950   9.571  30.900  0.2206 -0.1963  0.0837
19343W        W62437  30.220   8.903   0.395  0.1336 -0.1853 -0.0945
19344W        W62438  26.313  10.293   0.590  0.2918  0.0588  0.3454
19345W        W62439  27.402  10.274  31.152  0.5593  0.2616  0.0674
19346W        W62440  25.695   9.574  29.533 -0.2724  0.1205 -0.1529
19347W        W62441  24.586   9.338  30.303  0.5404  0.4126 -0.2177
19348W        W62442  25.315   7.822  30.858  0.1981  0.0227  0.2258
19349W        W62443  26.370  10.159  31.335  0.1558 -0.1728  0.0911
19350W        W62444  25.702   7.165  30.543  0.0079 -0.2739 -0.1908
19351W        W62445  29.877   9.689   0.040  0.0585 -0.2246 -0.0120
19352W        W62446  27.654  10.051  30.731 -0.2812  0.1270 -0.1974
19353W        W62447  28.503  10.133  30.343 -0.0589 -0.2922  0.0055
19354W        W62448  26.231  13.679  19.432  0.2467 -0.1622  0.0783
19355W        W62449  26.140  10.272  15.973 -0.1430  0.2583  0.1477
19356W        W62450  26.884  11.382  16.538  0.1942  0.0284  0.3223
19357W        W62451  29.783  11.191  18.168  0.1506 -0.1069 -0.1884
19358W        W62452  26.349  11.437  16.175 -0.0060 -0.0825 -0.2280
19359W        W62453  27.913  14.145  17.086 -0.1642  0.0420  0.0264
19360W        W62454  25.691  11.369  18.559 -0.0492  0.2806 -0.1469
19361W        W62455  26.772  14.688  18.779  0.1147  0.0205  0.0211
19362W        W62456  28.918  12.763  17.715 -0.0213 -0.0392 -0.1636
19363W        W62457  27.716  12.857  16.721 -0.2063 -0.0293  0.1238
19364W        W62458  26.258  13.120  20.127 -0.1894  0.1376  0.2727
19365W        W62459  26.935  14.954  21.827 -0.2015 -0.1092  0.0455
19366W        W62460  26.949  11.268  17.047  0.3583 -0.0244  0.0930
19367W        W62461  26.160  12.605  19.878 -0.0279 -0.0939 -0.1038
19368W        W62462  25.026  14.212  19.292 -0.2786 -0.4717  0.0477
19369W        W62463  25.746  12.372  16.575  0.1165 -0.0497  0.0281
19370W        W62464  25.831  11.923  20.744  0.0876  0.0202 -0.0952
19371W        W62465  26.338  10.778  16.930  0.0508 -0.1481  0.0758
19372W        W62466  27.039  13.234  17.402 -0.1876  0.0129  0.0254
19373W        W62467  26.618  12.388  19.752 -0.0667  0.3368  0.0795
19374W        W62468  26.610  11.829  20.061  0.1336 -0.1502  0.0372
19375W        W62469  28.658  12.506  18.499 -0.0326  0.0744  0.2383
19376W        W62470  26.166  10.013  17.281 -0.0038 -0.2027 -0.0701
19377W        W62471  25.433  12.310  17.880 -0.1981  0.1182  0.0070
19378W        W62472  25.604  12.803  19.655  0.0963  0.3276  0.5229
19379W        W62473  28.291  11.220  17.635 -0.0734  0.0723 -0.1529
19380W        W62474  27.433  12.923  17.607 -0.1948  0.0435 -0.0993
19381W        W62475  27.091  14.508  18.309  0.0365  0.1555  0.1698
19382W        W62476  27.138  14.980  18.813 -0.0240 -0.2493 -0.2618
19383W        W62477  29.134  12.943  20.580  0.1574  0.1174 -0.1131
19384W        W62478  25.324  14.359  18.764  0.2246  0.2400 -0.0788
19385W        W62479  26.308  14.420  18.965  0.2262  0.3610  0.3091
19386W        W62480  26.508  13.297  16.536 -0.1413  0.0403 -0.1598
19387W        W62481  29.343  12.604  17.041 -0.0067  0.1584 -0.0415
19388W        W62482  27.824  13.103  19.281  0.1012 -0.0710  0.0809
19389W        W62483  26.749  15.694  20.823  0.0985 -0.0456  0.1830
19390W        W62484  26.595  13.901  17.841 -0.1416 -0.1622  0.0370
19391W        W62485  27.040  15.060  20.645 -0.1722  0.2510 -0.1863
19392W        W62486  25.997  14.948  20.161 -0.2235  0.3656 -0.2562
19393W        W62487  26.385  14.130  19.357  0.2891 -0.1295 -0.0112
19394W        W62488  27.558  13.694  16.914 -0.0854  0.2700  0.1859
19395W        W62489  26.378  13.342  15.623 -0.0081 -0.1817 -0.0776
19396W        W62490  26.279  12.708  17.903 -0.1965  0.1239  0.1702
19397W        W62491  27.437  16.397  21.565  0.0497  0.1283  0.1487
19398W        W62492  26.824  15.976  18.862  0.0798  0.1021 -0.2237
19399W        W62493  29.130  12.035  21.060  0.0098 -0.0710  0.1668
19400W        W62494  26.252  14.137  16.671  0.0286 -0.1707  0.2618
19401W        W62495  29.132  10.931  17.132  0.1572 -0.2846 -0.3481
19402W        W62496  27.301  11.645  16.468 -0.2385  0.3233  0.1588
19403W        W62497  27.215  12.084  16.105  0.0201  0.0220  0.0088
19404W        W62498  25.819  10.932  18.332 -0.1954 -0.0328 -0.0903
19405W        W62499  26.209  14.594  18.503  0.1580  0.0950  0.3992
19406W        W62500  26.420  11.624  17.927  0.1110  0.2140  0.1719
19407W        W62501  28.682  14.476  18.952  0.1185 -0.3575 -0.1537
19408W        W62502  28.390  13.691  18.392  0.0403 -0.1194 -0.4266
19409W        W62503  27.071  12.583  19.942 -0.0854 -0.1664  0.0216
19410W        W62504  27.742  15.057  19.800  0.3749 -0.0033  0.2060
19411W        W62505  26.160  12.578  16.785  0.0793 -0.1207  0.2440
19412W        W62506  27.277  14.680  15.687  0.1663 -0.0500 -0.3135
19413W        W62507  28.677  13.067  19.035  0.2199 -0.1235 -0.1775
19414W        W62508  28.083  14.273  15.951 -0.1256 -0.2387 -0.2521
19415W        W62509  26.267  12.227  18.914  0.1590 -0.0450  0.3478
19416W        W62510  25.463  13.370  18.678  0.5289 -0.0445  0.2806
19417W        W62511  26.263  13.554  20.765  0.1385  0.0554 -0.1832
19418W        W62512  27.842   9.616  16.495  0.0552  0.2719  0.2558
19419W        W62513  28.840  13.449  19.327  0.1123 -0.1989 -0.0040
19420W        W62514  25.095  14.555  20.711  0.0100  0.2889  0.3882
19421W        W62515  27.601  11.399  16.925 -0.2436 -0.1183  0.1006
19422W        W62516  25.978  14.021  19.110  0.1154 -0.1498  0.1080
19423W        W62517  28.509  13.032  18.477  0.4758  0.1303 -0.3233
19424W        W62518  28.461  13.112  16.611 -0.2203  0.1536 -0.1602
19425W        W62519  28.641   9.154  18.051 -0.1355  0.1649  0.0754
19426W        W62520  26.526  10.744  18.924  0.1245 -0.0121  0.1845
19427W        W62521  25.503  12.923  16.560 -0.1508  0.2305  0.1473
19428W        W62522  27.178  12.828  16.716 -0.1412  0.2245 -0.1813
19429W        W62523  29.387  14.653  19.600 -0.4149  0.0582  0.0011
19430W        W62524  28.869  12.362  16.903 -0.1866  0.0186 -0.0730
19431W        W62525  27.006  12.975  17.893 -0.1789 -0.0642  0.0992
19432W        W62526  26.988  14.986  20.104  0.2316  0.2300  0.0917
19433W        W62527  26.723  13.759  19.205 -0.0114 -0.1040 -0.0034
19434W        W62528  26.205  14.397  17.150 -0.1203 -0.1971  0.2859
19435W        W62529  24.748  14.087  16.633  0.0229 -0.0712  0.0447
19436W        W62530  25.641  12.502  15.700 -0.0588  0.0032  0.0687
19437W        W62531  26.907  12.775  19.191  0.3949  0.2911  0.1901
19438W        W62532  26.965  12.799  17.183 -0.1356 -0.1528 -0.3004
19439W        W62533  27.490  12.668  17.123 -0.0845 -0.0423  0.2018
19440W        W62534  26.651  13.134  20.507  0.0286  0.0727  0.4780
19441W        W62535  28.569   9.521  17.035 -0.2283 -0.1232 -0.4486
19442W        W62536  26.038  12.995  16.559  0.0103 -0.0685  0.0290
19443W        W62537  28.684  14.516  16.795 -0.1691  0.3849  0.1540
19444W        W62538  26.114  11.835  17.315  0.1412 -0.0498 -0.2241
19445W        W62539  27.669  12.891  16.222 -0.1699  0.1603 -0.0369
19446W        W62540  26.793  12.484  18.017  0.0843 -0.0458  0.0749
19447W        W62541  26.378  12.816  19.465 -0.1919 -0.2506 -0.3147
19448W        W62542  26.402  11.404  19.505 -0.2997  0.2896 -0.1722
19449W        W62543  25.679  10.741  17.516  0.0154 -0.0094  0.3154
19450W        W62544  26.862  12.919  19.663 -0.0940 -0.0827  0.0053
19451W        W62545  25.455  10.692  16.586  0.0875  0.1386  0.2546
19452W        W62546  26.871  12.224  17.189  0.0505  0.2531  0.1706
19453W        W62547  26.709  12.319  19.233  0.2749 -0.1949  0.1124
19454W        W62548  25.748  13.413  17.112  0.0696  0.4115  0.0543
19455W        W62549  26.480  12.113  18.130  0.0292  0.1095 -0.2165
19456W        W62550  27.990  14.908  18.393 -0.1556  0.1607 -0.1037
19457W        W62551  29.156  15.072  19.573 -0.1919 -0.1871  0.1714
19458W        W62552  28.666  13.167  17.126 -0.3282  0.1052  0.1478
19459W        W62553  27.309  11.061  18.532 -0.2045  0.3866  0.0327
19460W        W62554  26.566  10.040  15.731 -0.1069  0.0271  0.1418
19461W        W62555  26.307  14.716  16.812 -0.0745 -0.0405  0.2901
19462W        W62556  26.574  13.402  18.104 -0.1681  0.0353  0.0860
19463W        W62557  25.663  11.495  17.098  0.2545  0.0730 -0.4622
19464W        W62558  27.600  14.482  18.817  0.0080 -0.0415  0.0758
19465W        W62559  28.055  12.496  18.048 -0.1902  0.0878 -0.2084
19466W        W62560  24.624  14.848  20.462 -0.3782  0.1299 -0.3431
19467W        W62561  27.326  11.110  16.524 -0.3256  0.0731 -0.0706
19468W        W62562  29.197  12.504  19.043 -0.1388  0.2676  0.0567
19469W        W62563  28.171  12.653  18.683 -0.0208  0.0758 -0.0848
19470W        W62564  24.797  10.427  15.435 -0.1623  0.2454 -0.2601
19471W        W62565  28.140  14.436  16.643  0.0724  0.4399  0.1493
19472W        W62566  25.066  13.668  15.719 -0.0731 -0.0574 -0.0112
19473W        W62567  26.217  12.114  16.561 -0.4673 -0.0105 -0.3020
19474W        W62568  26.629  12.538  17.501  0.2696  0.0870  0.2208
19475W        W62569  28.566  10.172  18.477  0.0343 -0.3045 -0.1183
19476W        W62570  27.088  14.633  20.406  0.1909  0.2157  0.3067
19477W        W62571  27.188  12.478  19.461 -0.0183  0.1596  0.0829
19478W        W62572  25.527  11.244  16.530 -0.1567 -0.0752 -0.0246
19479W        W62573  25.973  15.610  21.217  0.0785  0.1014  0.0329
19480W        W62574  27.244  10.617  18.256 -0.0709 -0.2210 -0.4525
19481W        W62575  27.690  12.485  17.653 -0.1180  0.1012 -0.1083
19482W        W62576  27.170  14.122  20.319 -0.0241 -0.0207 -0.1578
19483W        W62577  28.294  14.733  17.908 -0.0073  0.0391  0.3866
19484W        W62578  26.057  10.769  15.765 -0.0447 -0.0976  0.0847
19485W        W62579  27.251  12.344  18.024 -0.1193  0.3534  0.0984
19486W        W62580  25.486  14.315  20.963 -0.0276  0.0612  0.2321
19487W        W62581  28.084  15.063  17.671  0.0904 -0.4667 -0.3809
19488W        W62582  27.584  14.087  18.385  0.1009  0.2342 -0.2067
19489W        W62583  27.878  11.778  16.683 -0.1468 -0.2461 -0.2959
19490W        W62584  29.217  14.558  16.929 -0.0932 -0.0351  0.0165
19491W        W62585  26.427  13.555  20.272  0.1249 -0.1886 -0.0119
19492W        W62586  28.198  13.379  20.354 -0.4121  0.1162  0.1362
19493W        W62587  26.565  13.885  18.347 -0.2045 -0.0009 -0.3290
19494W        W62588  26.184  10.521  17.313 -0.3453 -0.0086  0.1288
19495W        W62589  26.812  11.792  16.901  0.2989  0.2812  0.1731
19496W        W62590  26.933  12.077  17.718 -0.0843  0.1823 -0.0269
19497W        W62591  25.711  14.200  15.635  0.1025  0.0917  0.0492
19498W        W62592  27.086  10.125  17.457 -0.0712  0.0564  0.1176
19499W        W62593  27.693  12.187  18.173 -0.0084  0.0192 -0.2259
19500W        W62594  26.625  11.999  18.628 -0.0368  0.1153  0.1134
19501W        W62595  29.904  12.407  19.801 -0.2450 -0.1394 -0.0111
19502W        W62596  27.960  13.476  17.825 -0.1851  0.1631  0.0248
19503W        W62597  26.467  13.338  19.625  0.4723 -0.0325 -0.0350
19504W        W62598  25.222  12.383  15.304 -0.0702  0.0525 -0.3215
19505W        W62599  25.505  11.363  18.024  0.4129  0.0250  0.1216
19506W        W62600  25.602  14.403  19.668 -0.0178 -0.1291 -0.1982
19507W        W62601  26.458  14.488  19.712 -0.1108  0.0854  0.1095
19508W        W62602  27.995  15.467  21.422  0.0423  0.1259  0.0286
19509W        W62603  28.316  12.679  16.852  0.0588 -0.2943 -0.0129
19510W        W62604  27.797  11.210  18.358 -0.1572  0.1206  0.0419
19511W        W62605  26.933  10.866  16.150 -0.2950  0.0656  0.1497
19512W        W62606  26.603  15.163  17.485 -0.1773  0.0784  0.0063
19513W        W62607  26.770  13.229  16.996  0.1683  0.3850 -0.2832
19514W        W62608  26.093  10.018  18.744 -0.0751 -0.1303 -0.0399
19515W        W62609  27.140  14.642  17.053  0.2372 -0.0916 -0.0917
19516W        W62610  26.576  14.275  16.256 -0.2957 -0.0804 -0.0764
19517W        W62611  28.219  13.241  18.880 -0.2135 -0.0207  0.4234
19518W        W62612  26.431  12.833  17.113  0.0585  0.1821 -0.0188
19519W        W62613  29.533  10.122  18.666 -0.0641  0.0353 -0.1813
19520W        W62614  25.614  13.044  18.328 -0.2353 -0.1156 -0.1296
19521W        W62615  25.943  11.047  16.221  0.0541  0.0885  0.2243
19522W        W62616  25.235  12.267  16.603 -0.3426 -0.0582  0.2252
19523W        W62617  28.246  10.888  16.629 -0.0969 -0.2559 -0.0461
19524W        W62618  28.151  13.194  17.477  0.1171  0.0404  0.1250
19525W        W62619  26.997  11.535  17.822  0.1781  0.1589  0.1918
19526W        W62620  26.678  11.903  19.528  0.0705 -0.2453 -0.3839
19527W        W62621  25.530  14.372  19.179  0.3116  0.0591  0.0891
19528W        W62622  26.702  13.246  19.152 -0.0741 -0.1538 -0.1725
19529W        W62623  28.537  11.743  16.778  0.1611 -0.1348 -0.0692
19530W        W62624  25.873  13.383  20.412  0.1560  0.2027 -0.0528
19531W        W62625  25.908  13.584  18.683 -0.0443  0.1225  0.1066
19532W        W62626  24.811  11.347  15.495 -0.2041  0.0373  0.1395
19533W        W62627  27.829  12.914  20.106 -0.4142  0.0987  0.0734
19534W        W62628  26.433  11.462  17.031  0.3204  0.1734  0.0891
19535W        W62629  27.280  14.551  16.376  0.3621 -0.0764  0.2980
19536W        W62630  28.069  15.091  19.432  0.0316 -0.1716 -0.0503
19537W        W62631  26.383  12.003  16.162 -0.0590 -0.0119  0.2567
19538W        W62632  27.976  13.073  18.394  0.1573  0.0246 -0.0437
19539W        W62633  26.916  12.948  20.888 -0.0940  0.0659  0.0222
19540W        W62634  27.244  12.648  18.886  0.0633 -0.0715  0.0497
19541W        W62635  26.063  12.243  17.900 -0.0574  0.3331 -0.4440
19542W        W62636  25.980  11.538  17.644  0.0499  0.0410  0.0828
19543W        W62637  27.557  11.567  17.982  0.0221  0.2038 -0.1303
19544W        W62638  27.536  13.717  17.920 -0.1428  0.0213  0.0942
19545W        W62639  27.606  11.561  19.205  0.1445  0.0439  0.5360
19546W        W62640  26.517  15.129  21.652 -0.1035  0.0305 -0.2215
19547W        W62641  26.975   9.611  17.472 -0.2047  0.0132 -0.1568
19548W        W62642  29.644  14.140  18.690  0.1761 -0.1139  0.1587
19549W        W62643  28.925  12.104  20.199  0.2924  0.6784 -0.3034
19550W        W62644  26.718  12.523  16.840  0.0714  0.0771  0.2787
19551W        W62645  27.086  13.666  17.115 -0.3031 -0.0876  0.1716
19552W        W62646  26.076  13.181  18.210 -0.2431 -0.1950 -0.1408
19553W        W62647  26.350  11.608  18.466  0.0685 -0.0895  0.1687
19554W        W62648  26.384  13.936  19.850 -0.3009  0.1115  0.2136
19555W        W62649  26.274  13.359  17.100 -0.1917  0.1641 -0.3063
19556W        W62650  26.123  14.858  19.711  0.0054 -0.1320  0.2144
19557W        W62651  27.255  10.822  16.953  0.2784 -0.0872  0.1595
19558W        W62652  26.957  14.837  16.051  0.2737  0.3169 -0.0344
19559W        W62653  27.199  12.358  16.798 -0.0603 -0.0774  0.1426
19560W        W62654  27.662  11.888  18.739 -0.1803  0.0783 -0.1134
19561W        W62655  26.995  13.556  16.544 -0.1780  0.0237  0.2418
19562W        W62656  27.278  13.051  19.980  0.0564  0.2491 -0.2702
19563W        W62657  26.823  11.417  18.263 -0.5486 -0.0064  0.2163
19564W        W62658  28.204  13.720  18.903 -0.1290 -0.0770  0.0016
19565W        W62659  25.565  12.640  18.662  0.0264 -0.1073 -0.1274
19566W        W62660  28.916  14.875  20.531 -0.1947  0.0303  0.0871
19567W        W62661  26.260  14.586  20.525 -0.1218  0.1075 -0.1710
19568W        W62662  26.435  10.271  16.883  0.3253 -0.3208 -0.0010
19569W        W62663  26.176  10.506  16.371  0.0110  0.0826  0.1974
19570W        W62664  26.512  12.899  18.250 -0.5007  0.2041  0.0478
19571W        W62665  28.242  13.416  19.379  0.2060  0.0649  0.4424
19572W        W62666  28.546  14.301  17.614  0.4633  0.2627  0.0877
19573W        W62667  28.337  12.005  18.032 -0.1796  0.3510 -0.1840
19574W        W62668  25.145  12.995  18.662  0.1610 -0.3693  0.0924
19575W        W62669  26.802  13.527  18.720 -0.3916 -0.2287  0.1482
19576W        W62670  27.349  13.228  16.413 -0.1605 -0.3703 -0.1316
19577W        W62671  27.315  13.226  16.951 -0.0169  0.1188  0.2281
19578W        W62672  27.347  12.213  19.076  0.0410 -0.1603  0.0117
19579W        W62673  27.925  12.158  17.274  0.1028  0.3280  0.1642
19580W        W62674  27.601  11.589  17.457 -0.2838 -0.1999  0.0546
19581W        W62675  27.709  11.398  18.776 -0.1743  0.1814 -0.2046
19582W        W62676  28.830  11.125  18.014  0.1214 -0.0446 -0.2809
19583W        W62677  26.102  11.987  20.287 -0.0358 -0.0500 -0.2956
19584W        W62678  25.550  10.566  19.683  0.1973  0.2662 -0.1187
19585W        W62679  29.475  13.025  20.050 -0.2440 -0.2265 -0.0185
19586W        W62680  29.027  11.920  16.509 -0.0722 -0.0411 -0.3266
19587W        W62681  28.005  11.922  19.125  0.1289  0.3257  0.1148
19588W        W62682  28.019  11.829  17.714  0.4130 -0.2654 -0.0830
19589W        W62683  25.924  10.859  16.635  0.1606  0.0521  0.0388
19590W        W62684  26.341  10.203  19.100 -0.1709  0.1055 -0.0587
19591W        W62685  27.437  12.824  19.257  0.1910  0.0123 -0.2054
19592W        W62686  25.646  11.387  16.044 -0.0383 -0.0255  0.1919
19593W        W62687  26.878  11.501  19.317  0.0687  0.1259  0.0519
19594W        W62688  27.940  13.714  16.384 -0.0931 -0.0638 -0.2746
19595W        W62689  27.490  13.458  17.497  0.1378 -0.2215 -0.1301
19596W        W62690  27.142  12.519  17.555 -0.0195  0.2170  0.1899
19597W        W62691  25.139  10.830  17.615 -0.2694  0.0275 -0.3226
19598W        W62692  26.927  15.481  21.677  0.2292  0.1553  0.0921
19599W        W62693  26.914  12.065  16.502 -0.1955  0.0937 -0.0699
19600W        W62694  24.421  12.246  16.099 -0.1286  0.3171  0.1251
19601W        W62695  28.037  14.106  18.580  0.3744 -0.1014 -0.1526
19602W        W62696  26.911  13.053  18.701 -0.3326 -0.0531  0.1733
19603W        W62697  28.074  10.268  17.809 -0.1306 -0.1195 -0.5767
19604W        W62698  27.339  11.124  19.974 -0.1175  0.1615  0.1050
19605W        W62699  26.013  13.762  15.620 -0.1836 -0.0318  0.0038
19606W        W62700  27.291  11.091  18.007  0.0819  0.0424  0.1455
19607W        W62701  26.145  14.082  18.560  0.0308  0.2504  0.0660
19608W        W62702  24.649  13.385  18.355  0.1317  0.0731  0.1784
19609W        W62703  26.077  14.212  17.582 -0.0791  0.4031 -0.0471
19610W        W62704  26.981  11.875  19.005  0.2467 -0.0610 -0.0579
19611W        W62705  27.233  11.851  19.416 -0.1716 -0.0916 -0.0186
19612W        W62706  26.929  11.928  18.242 -0.0328 -0.3122 -0.1567
19613W        W62707  28.439  12.743  17.973 -0.1491  0.0892 -0.2418
19614W        W62708  27.856  13.664  18.370  0.0441 -0.1759 -0.2625
19615W        W62709  26.118  12.545  17.426 -0.2939  0.0553  0.0375
19616W        W62710  27.548  15.584  21.285 -0.0430 -0.1097  0.1425
19617W        W62711  29.781  12.603  17.332 -0.1057 -0.0492  0.1176
19618W        W62712  27.540  13.242  18.036 -0.0045  0.0903 -0.2093
19619W        W62713  24.896  11.652  19.623 -0.0342  0.0184 -0.2214
19620W        W62714  27.290  13.629  18.562 -0.2015 -0.1016  0.0919
19621W        W62715  27.212  14.139  18.760 -0.0233  0.2846 -0.1039
19622W        W62716  26.136   9.999  17.855  0.2394 -0.1415 -0.1562
19623W        W62717  26.829  14.657  16.577  0.1761 -0.0873 -0.4441
19624W        W62718  25.793  15.135  21.152 -0.0327 -0.0981  0.0076
19625W        W62719  25.758  13.493  19.308 -0.0819 -0.4015  0.1851
19626W        W62720  25.711  15.376  16.182  0.1368 -0.2113  0.5147
19627W        W62721  28.399  13.317  18.079 -0.3799 -0.0954 -0.1198
19628W        W62722  27.956  12.695  17.310  0.2568  0.5889  0.0227
19629W        W62723  26.320  13.773  18.936 -0.4134 -0.0469  0.0915
19630W        W62724  26.369  11.105  16.519 -0.3344 -0.0336 -0.4343
19631W        W62725  26.527  12.817  16.370 -0.0660  0.2822  0.0918
19632W        W62726  24.571  13.126  16.351  0.0754  0.1779 -0.0327
19633W        W62727  26.760  14.270  16.901  0.1860 -0.0062  0.0021
19634W        W62728  26.133  13.820  17.123 -0.1423  0.0418  0.3257
19635W        W62729  26.835  13.800  20.087  0.0919  0.1355 -0.1711
19636W        W62730  28.643  12.473  16.391  0.1592  0.1365 -0.1033
19637W        W62731  29.340  12.339  17.729 -0.2505  0.0075  0.1803
19638W        W62732  27.709  10.642  17.999 -0.2174  0.3781  0.0045
19639W        W62733  29.271  14.088  20.460  0.0460  0.0988  0.0670
19640W        W62734  25.977  11.473  18.133 -0.1414  0.2883 -0.1417
19641W        W62735  26.017  11.349  16.768 -0.0667 -0.1772  0.0148
19642W        W62736  25.583  13.557  18.175  0.2780  0.0373 -0.0308
19643W        W62737  28.560  10.739  18.699  0.1859  0.1035  0.0203
19644W        W62738  25.106  13.204  19.732  0.0972 -0.1452 -0.0776
19645W        W62739  28.926  14.217  17.969  0.2948 -0.0281 -0.2799
19646W        W62740  27.250   8.973  16.992  0.0345  0.3425  0.1491
19647W        W62741  26.406  12.146  17.010  0.3680  0.2620 -0.0297
19648W        W62742  29.087  11.301  18.995 -0.0256 -0.0539  0.1680
19649W        W62743  27.043  14.125  16.537 -0.0021 -0.4169 -0.0153
19650W        W62744  26.765  12.531  18.644 -0.0897 -0.2805 -0.0309
19651W        W62745  28.168  13.907  17.551 -0.4326  0.1253 -0.0021
19652W        W62746  27.960  14.948  18.945 -0.2149 -0.1761  0.1817
19653W        W62747  27.488  14.984  19.335  0.0636  0.2656  0.1580
19654W        W62748  25.487  11.226  17.479 -0.0137  0.0342  0.3940
19655W        W62749  28.589  11.619  17.815  0.1320  0.0854 -0.1860
19656W        W62750  26.581  14.268  20.288 -0.1998 -0.4632 -0.0133
19657W        W62751  27.041  12.056  19.850  0.1387 -0.4347 -0.0837
19658W        W62752  25.715  11.858  17.956  0.1284 -0.1306 -0.3104
19659W        W62753  27.853  11.124  17.883  0.4772  0.0316  0.1891
19660W        W62754  26.327  13.339  18.593  0.1132 -0.1205 -0.0149
19661W        W62755  26.000  13.126  19.692  0.1311 -0.0102  0.0637
19662W        W62756  27.416  11.830  16.929  0.0806 -0.3091 -0.0187
19663W        W62757  27.594  12.740  18.090 -0.2369  0.1062  0.0076
19664W        W62758  27.788  12.366  16.795  0.0168 -0.0603  0.3601
19665W        W62759  28.096  14.607  20.290 -0.2102 -0.3585 -0.4157
19666W        W62760  25.468  10.869  17.955 -0.1499 -0.3128 -0.4082
19667W        W62761  26.907  12.511  16.403 -0.1278 -0.0379 -0.0906
19668W        W62762  25.063  11.197  18.024  0.4945  0.1590 -0.4027
19669W        W62763  26.832  13.312  20.025 -0.0597 -0.0288 -0.2363
19670W        W62764  28.553  13.514  19.769  0.2251  0.0833  0.1474
19671W        W62765  25.493  10.478  18.321 -0.0094  0.1888 -0.0604
19672W        W62766  28.216  12.115  16.654  0.1330 -0.4198 -0.1852
19673W        W62767  28.706  12.946  19.519 -0.1425 -0.0467  0.0657
19674W        W62768  27.657  13.953  17.453 -0.3462 -0.0474  0.3141
19675W        W62769  25.951  11.135  17.269  0.0575 -0.1469 -0.0971
19676W        W62770  27.868  15.750  19.710 -0.4239  0.1897  0.3727
19677W        W62771  25.786  12.217  18.932  0.1015  0.0723  0.0299
19678W        W62772  28.156  14.711  19.763  0.0628 -0.4692 -0.2886
19679W        W62773  28.419  12.796  17.466  0.0529 -0.0731 -0.1935
19680W        W62774  27.763  10.948  16.784  0.1570  0.0300  0.1399
19681W        W62775  25.970  12.718  19.221  0.1353  0.1581  0.5041
19682W        W62776  26.676  13.593  17.373  0.3062 -0.1206  0.1827
19683W        W62777  27.492  12.034  17.722 -0.3126  0.2506 -0.1922
19684W        W62778  26.236  12.001  19.807  0.1831 -0.2204  0.1495
19685W        W62779  26.108  14.542  15.803 -0.3219 -0.0494 -0.0540
19686W        W62780  27.929  11.044  19.382 -0.1368  0.0043  0.6271
19687W        W62781  26.009  14.476  19.349 -0.1041 -0.1690 -0.0186
19688W        W62782  27.103  13.613  20.835  0.1488  0.1239  0.2112
19689W        W62783  24.717  11.405  16.148  0.0044 -0.0210  0.1191
19690W        W62784  25.898  13.999  19.652 -0.2162 -0.1283 -0.0624
19691W        W62785  29.152  12.099  18.068 -0.0933  0.1914  0.1460
19692W        W62786  28.435  14.359  18.157 -0.2521 -0.1992  0.0154
19693W        W62787  28.863  14.683  17.903  0.2713 -0.2648  0.0607
19694W        W62788  27.780  13.620  19.364  0.1473 -0.1412 -0.1365
19695W        W62789  29.099  12.779  18.612  0.0568 -0.2133  0.3088
19696W        W62790  26.696  11.652  17.459  0.0272 -0.0499  0.2539
19697W        W62791  27.755  11.349  16.326 -0.2763 -0.0123  0.1352
19698W        W62792  27.760  10.201  18.233  0.0937  0.0649  0.0941
19699W        W62793  26.392  14.788  19.287 -0.1379  0.1107 -0.0995
19700W        W62794  27.573  10.778  17.300  0.1783 -0.3929  0.1429
19701W        W62795  25.901  11.619  16.402  0.3659 -0.0148 -0.2847
19702W        W62796  27.130  12.767  18.350 -0.2125  0.4100 -0.0273
19703W        W62797  26.960  10.786  20.528 -0.1168 -0.0745  0.0541
19704W        W62798  26.478  11.763  19.109  0.0618  0.2661 -0.4466
19705W        W62799  26.546  13.136  17.498  0.1770  0.0859  0.1887
19706W        W62800  26.668  10.423  17.414 -0.5475  0.0667  0.0714
19707W        W62801  28.496  13.558  17.417  0.1584 -0.0258  0.1507
19708W        W62802  26.447  11.055  20.497 -0.2089 -0.1974 -0.3015
19709W        W62803  25.086  12.139  17.609 -0.1015  0.0244  0.0009
19710W        W62804  28.583  13.801  17.889  0.0662 -0.1669  0.2607
19711W        W62805  27.905  13.554  17.261 -0.0925  0.3058  0.1683
19712W        W62806  26.812   9.905  17.116 -0.0246 -0.1172 -0.1827
19713W        W62807  28.015  13.481  21.465 -0.0952  0.0208  0.3710
19714W        W62808  24.726  12.648  15.318  0.2377  0.2480  0.0336
19715W        W62809  27.601  12.166  19.599  0.2849 -0.1004 -0.0022
19716W        W62810  26.084  12.661  20.383 -0.1137  0.1949 -0.1407
19717W        W62811  24.486  11.913  15.461 -0.2433 -0.3987  0.2104
19718W        W62812  26.440  12.072  17.587  0.1461  0.2206 -0.0015
19719W        W62813  28.122  13.764  16.830 -0.2007 -0.0100  0.1824
19720W        W62814  28.486  14.079  16.640  0.0930 -0.2025  0.0735
19721W        W62815  26.912  14.331  17.707  0.2594  0.1752 -0.2650
19722W        W62816  26.714  14.062  18.804  0.0540  0.1688  0.0286
19723W        W62817  25.960  11.257  19.338  0.1812 -0.1688  0.0690
19724W        W62818  27.150  11.773  17.361 -0.1520 -0.2215  0.0357
19725W        W62819  26.026  12.891  18.667  0.0760 -0.2576 -0.5249
19726W        W62820  29.013  14.155  17.142 -0.2400 -0.1370 -0.1064
19727W        W62821  28.086  11.422  19.117  0.0750  0.0044 -0.2439
19728W        W62822  28.062  13.958  18.040 -0.2026  0.0487  0.3224
19729W        W62823  24.517  10.888  18.986 -0.2168 -0.1442 -0.0836
19730W        W62824  26.652  13.356  20.928 -0.2574  0.0918 -0.3087
19731W        W62825  28.150  14.241  19.064  0.1989 -0.0794 -0.0021
19732W        W62826  25.760  10.011  19.267  0.3405  0.0426 -0.3105
19733W        W62827  26.390  11.224  17.576  0.0303  0.1669  0.0604
19734W        W62828  27.018  13.789  16.088 -0.2561 -0.1476 -0.0058
19735W        W62829  26.016  11.993  18.340 -0.2641  0.2870  0.0379
19736W        W62830  27.421  12.210  17.245  0.1003  0.3508  0.0115
19737W        W62831  27.157  13.911  17.591  0.2139  0.0717  0.0619
19738W        W62832  28.826  13.894  18.384  0.0646  0.2941  0.2730
19739W        W62833  27.980  14.349  17.702 -0.0726  0.2931  0.0418
19740W        W62834  27.698  13.100  17.237 -0.1628  0.1594 -0.3388
19741W        W62835  28.393  12.262  17.088 -0.2917  0.0271  0.0865
19742W        W62836  28.206  15.245  19.890 -0.2697 -0.1985  0.1009
19743W        W62837  28.681  14.212  21.593 -0.1986 -0.0821 -0.1338
19744W        W62838  28.498  14.399  19.395  0.2277  0.1239 -0.2362
19745W        W62839  27.861  12.435  19.140 -0.0165  0.2642  0.0266
19746W        W62840  25.796  12.332  19.582  0.0102 -0.0437 -0.1480
19747W        W62841  26.408  11.670  16.610 -0.2408  0.2568  0.2031
19748W        W62842  26.572  14.069  17.345 -0.2032  0.0452  0.0494
19749W        W62843  28.281  12.303  17.640 -0.1289 -0.0103  0.0663
19750W        W62844  26.392  11.149  18.076  0.1485 -0.0090 -0.0007
19751W        W62845  27.648   9.941  16.813  0.2665  0.1915  0.0524
19752W        W62846  26.508  16.307  20.147  0.0442  0.0027 -0.0720
19753W        W62847  27.295  14.121  16.982  0.0585  0.1578 -0.4056
19754W        W62848  26.850  13.432  23.242 -0.0438  0.0048 -0.2914
19755W        W62849  26.530  12.634  20.631 -0.3286  0.0402  0.1983
19756W        W62850  28.378  11.430  20.115 -0.1327  0.2639 -0.3130
19757W        W62851  30.807  12.488  20.277  0.2200  0.2586 -0.1082
19758W        W62852  25.693  12.383  20.663  0.1763  0.2688 -0.0826
19759W        W62853  29.252  15.775  20.754  0.2642  0.1540 -0.1744
19760W        W62854  26.112  11.305  22.001  0.1553 -0.1616 -0.0994
19761W        W62855  27.756  11.992  22.314 -0.1841 -0.0183 -0.1293
19762W        W62856  28.020  13.177  22.786  0.1203 -0.2440 -0.2347
19763W        W62857  26.611  12.757  20.066  0.2710  0.2846  0.0166
19764W        W62858  27.843  12.144  22.822 -0.2283  0.3884 -0.1826
19765W        W62859  27.616  12.897  23.815  0.3036  0.2655 -0.1816
19766W        W62860  27.236  10.910  20.983 -0.0412  0.3357  0.1617
19767W        W62861  25.087  11.919  21.367  0.0448  0.1648 -0.2548
19768W        W62862  28.693  12.797  22.834 -0.0386 -0.0967 -0.0254
19769W        W62863  25.585  12.639  21.632 -0.0679 -0.0558  0.2163
19770W        W62864  25.885  11.365  22.487 -0.3233  0.0078  0.1391
19771W        W62865  28.740  12.871  21.622  0.0321 -0.1266  0.1576
19772W        W62866  27.529  13.378  21.971  0.1531 -0.1608 -0.2343
19773W        W62867  28.498  11.610  23.566  0.0600  0.3157 -0.3128
19774W        W62868  27.624  10.325  24.092  0.1150  0.0514 -0.2786
19775W        W62869  28.416  14.774  20.620 -0.0880  0.1477  0.0871
19776W        W62870  26.174  13.232  21.292 -0.2161 -0.1808  0.0386
19777W        W62871  27.085  13.025  21.619  0.4399 -0.1002 -0.1060
19778W        W62872  27.229  11.242  22.357 -0.1448  0.1494 -0.1439
19779W        W62873  28.250  12.667  20.954 -0.0024  0.1227 -0.1336
19780W        W62874  27.922  13.118  22.275  0.0187  0.0537  0.1847
19781W        W62875  27.574  14.585  21.163  0.0496  0.2051  0.0590
19782W        W62876  25.650  13.219  21.531  0.1437  0.1623 -0.0291
19783W        W62877  27.387  10.900  23.340  0.1912 -0.2958  0.4757
19784W        W62878  25.696  14.125  22.299  0.0568  0.1157  0.4190
19785W        W62879  25.547  14.688  22.309  0.0913  0.2466  0.0288
19786W        W62880  27.459  14.284  22.102 -0.3215 -0.1738 -0.0994
19787W        W62881  29.896  12.585  21.434 -0.3327  0.2522 -0.1861
19788W        W62882  27.253  13.826  22.528 -0.1769  0.1411 -0.0458
19789W        W62883  26.229  13.947  23.462  0.1533  0.0116  0.4912
19790W        W62884  25.612  13.875  20.547 -0.5072 -0.2373  0.0741
19791W        W62885  28.171  14.240  24.372  0.2946 -0.0219 -0.1799
19792W        W62886  27.808  14.653  24.377 -0.2727 -0.1851  0.0539
19793W        W62887  27.473  12.548  20.309 -0.0166 -0.1833 -0.2166
19794W        W62888  25.656  12.749  22.496  0.0432  0.0716 -0.1608
19795W        W62889  27.630  13.906  19.989 -0.3413  0.1652 -0.0200
19796W        W62890  28.408  13.114  22.513 -0.3276 -0.1214 -0.0512
19797W        W62891  27.715  14.816  23.443 -0.1644  0.2593 -0.2660
19798W        W62892  26.958  14.618  23.631 -0.2839  0.3484  0.1340
19799W        W62893  26.837  11.231  23.180  0.0648 -0.2893  0.0976
19800W        W62894  26.829  14.857  21.353  0.2983 -0.2906  0.0062
19801W        W62895  27.220  11.347  18.932 -0.1324 -0.2843 -0.0869
19802W        W62896  26.474  12.304  20.245 -0.3234  0.0593  0.1275
19803W        W62897  28.865  13.310  20.934 -0.2903  0.0551 -0.1616
19804W        W62898  27.290  10.073  21.428  0.1425 -0.0752  0.1900
19805W        W62899  26.137  12.296  22.480  0.0072 -0.0656  0.0048
19806W        W62900  25.293   9.905  22.488  0.1566 -0.0737 -0.0991
19807W        W62901  27.797  12.390  21.074 -0.0510 -0.0772 -0.0860
19808W        W62902  28.167  12.269  19.567 -0.0828 -0.1238 -0.0248
19809W        W62903  27.636  12.675  21.563  0.1053  0.1344  0.0558
19810W        W62904  25.862  13.783  22.844  0.1993 -0.2764 -0.3536
19811W        W62905  26.430  13.474  21.939  0.0878 -0.0856 -0.0718
19812W        W62906  28.387  12.957  20.293  0.0507 -0.0239  0.0900
19813W        W62907  29.736  14.042  21.412  0.0064  0.3090 -0.3621
19814W        W62908  28.502  14.954  20.141  0.0263  0.1706  0.2314
19815W        W62909  25.375  13.119  24.458  0.0107  0.2853 -0.0454
19816W        W62910  26.522  14.336  23.529  0.1293 -0.1091  0.0938
19817W        W62911  25.817  13.329  23.299 -0.0086 -0.2176 -0.1284
19818W        W62912  25.110  11.654  19.145 -0.3813  0.3669  0.2224
19819W        W62913  29.283  12.766  23.995  0.0784  0.0065 -0.1313
19820W        W62914  24.307  13.963  22.849 -0.1654  0.0684 -0.0907
19821W        W62915  28.781  12.112  20.673  0.2534  0.2144 -0.1105
19822W        W62916  25.442  12.756  23.958 -0.1537 -0.0985  0.3216
19823W        W62917  29.805  12.059  23.219  0.1070  0.0540 -0.0286
19824W        W62918  27.257  13.340  19.519  0.0770 -0.1233  0.0067
19825W        W62919  28.431  13.210  21.901 -0.1323  0.3442 -0.4330
19826W        W62920  27.427  10.769  23.958 -0.0167 -0.2141  0.0433
19827W        W62921  25.767  12.982  20.096 -0.1533 -0.1807 -0.2084
19828W        W62922  27.945  13.019  21.779 -0.1921  0.1000  0.3789
19829W        W62923  28.927  11.826  22.928 -0.0529 -0.1628  0.0493
19830W        W62924  28.826  13.312  20.338 -0.0811  0.1435 -0.3186
19831W        W62925  25.979  13.280  22.773 -0.1624  0.1201 -0.0378
19832W        W62926  27.482  11.428  21.725 -0.0740  0.1430  0.0135
19833W        W62927  25.781  13.980  24.465 -0.0376  0.0274  0.4063
19834W        W62928  28.194  14.212  19.755 -0.1489  0.1073 -0.1778
19835W        W62929  24.631  12.901  22.911 -0.2551  0.0953  0.3331
19836W        W62930  27.518  13.733  20.522 -0.1259 -0.1414  0.0573
19837W        W62931  25.496  11.152  22.770 -0.1570 -0.1143  0.0569
19838W        W62932  26.321  13.764  24.304  0.0947  0.1150  0.0184
19839W        W62933  30.071  12.188  20.818  0.1027  0.0212  0.0507
19840W        W62934  26.278  10.427  23.767  0.0267  0.0856 -0.1756
19841W        W62935  29.256  11.260  22.024  0.0012 -0.2132  0.0235
19842W        W62936  27.256  14.070  21.676 -0.4841 -0.0662  0.0308
19843W        W62937  29.822  13.307  21.873 -0.3041  0.1813 -0.0724
19844W        W62938  28.120  13.546  22.143 -0.0545  0.1860  0.2444
19845W        W62939  28.485  16.337  20.592 -0.3907 -0.1764  0.1389
19846W        W62940  26.455  11.882  22.560 -0.0145  0.0362  0.1214
19847W        W62941  26.006  12.776  21.403 -0.3346  0.1121  0.1016
19848W        W62942  26.064  11.881  22.907 -0.1017  0.0733 -0.1120
19849W        W62943  26.324  11.616  20.744  0.1673 -0.0526 -0.0539
19850W        W62944  28.901  11.933  23.448  0.1034 -0.1693 -0.2722
19851W        W62945  25.090  11.132  20.603 -0.0418  0.0765 -0.2326
19852W        W62946  27.874  12.394  22.078 -0.3767  0.2467  0.0504
19853W        W62947  27.740  12.172  21.525  0.0537 -0.0692  0.0422
19854W        W62948  25.721  13.397  20.875 -0.1285  0.0033  0.0269
19855W        W62949  29.996  11.587  23.453  0.1968  0.0460  0.2426
19856W        W62950  28.487  15.087  22.161 -0.3830 -0.1066  0.0352
19857W        W62951  29.034  15.187  24.079 -0.0132  0.3156 -0.1165
19858W        W62952  28.211  12.700  22.404  0.0046  0.2006 -0.3488
19859W        W62953  26.942  10.771  23.104  0.5783  0.2141  0.2324
19860W        W62954  27.010  12.779  20.407  0.2712  0.0117  0.2233
19861W        W62955  27.306  15.077  21.491 -0.4574  0.3714  0.0746
19862W        W62956  26.790  11.948  22.198 -0.0219  0.0774  0.0319
19863W        W62957  26.935  12.362  20.796 -0.2151  0.1777  0.4683
19864W        W62958  29.066  12.957  21.230 -0.1598  0.1199  0.0553
19865W        W62959  27.159  13.114  22.143 -0.0846  0.3995  0.2524
19866W        W62960  25.559  13.043  23.002 -0.1171  0.0301  0.0600
19867W        W62961  27.282  12.107  22.224  0.1535  0.1240 -0.0499
19868W        W62962  28.150  11.574  22.532 -0.0451  0.0598  0.1017
19869W        W62963  26.832  12.422  22.151  0.0385  0.1570  0.0361
19870W        W62964  25.784  11.174  20.152  0.0303 -0.0141  0.0680
19871W        W62965  29.398  14.573  21.821 -0.0411  0.0680 -0.2081
19872W        W62966  26.865  14.193  20.906 -0.0704  0.3470  0.0069
19873W        W62967  26.011  12.656  22.024 -0.3560 -0.3923  0.0896
19874W        W62968  28.429  13.888  22.037  0.2811 -0.2710 -0.1088
19875W        W62969  28.249  12.191  20.779  0.2360  0.1600  0.1438
19876W        W62970  24.245  12.409  24.984 -0.2046 -0.1141  0.4069
19877W        W62971  27.227  12.551  21.823  0.1131  0.3593  0.1110
19878W        W62972  25.201  13.339  21.079  0.0652  0.3612  0.1564
19879W        W62973  25.593  14.020  23.396 -0.3765  0.1656 -0.1934
19880W        W62974  28.617  11.402  22.629  0.1156 -0.0481 -0.0162
19881W        W62975  29.122  12.426  21.400  0.2060 -0.0449 -0.0629
19882W        W62976  26.033  13.077  22.256 -0.6621  0.2352 -0.1170
19883W        W62977  28.315  14.161  20.855  0.0418 -0.0290 -0.2115
19884W        W62978  28.318  13.001  21.416 -0.0208  0.1895  0.1181
19885W        W62979  28.179  12.524  21.482  0.0073 -0.2817 -0.1468
19886W        W62980  25.329  14.290  24.138 -0.0560 -0.4612  0.0488
19887W        W62981  28.590  13.522  23.026  0.0583 -0.0595  0.2235
19888W        W62982  29.311  13.454  22.164 -0.0864  0.1806 -0.0435
19889W        W62983  28.691  12.584  19.133 -0.2175 -0.3059 -0.5858
19890W        W62984  28.703  14.941  21.006 -0.0708  0.3557  0.0760
19891W        W62985  26.388  12.695  22.288 -0.2187  0.4333 -0.1925
19892W        W62986  26.844  13.473  24.796  0.2657  0.1333  0.0943
19893W        W62987  29.756  13.945  20.232  0.0996 -0.0387 -0.1279
19894W        W62988  26.701  12.016  22.981 -0.1070  0.0058  0.0209
19895W        W62989  27.296  13.547  20.065  0.1585  0.3369 -0.0016
19896W        W62990  26.281  12.224  21.993 -0.0431 -0.1709  0.1096
19897W        W62991  25.723  14.627  21.306  0.0100 -0.1621 -0.1032
19898W        W62992  27.922  10.802  23.572  0.0860  0.3564 -0.1097
19899W        W62993  28.373  11.884  22.860  0.1202  0.2338 -0.1229
19900W        W62994  27.507  11.600  22.566  0.1829  0.0212 -0.0792
19901W        W62995  29.005  14.862  23.008  0.2365  0.0878  0.1015
19902W        W62996  29.498  12.369  22.269  0.2734 -0.1407  0.3063
19903W        W62997  27.578  13.707  21.563  0.0605 -0.0033  0.0592
19904W        W62998  25.690  14.036  20.086  0.2872 -0.0072 -0.1492
19905W        W62999  28.589  10.568  22.459  0.1988  0.1680  0.0362
19906W        W63000  25.141  13.818  25.626 -0.1122  0.1691  0.1601
19907W        W63001  25.500  15.382  24.671 -0.1605 -0.1028 -0.1605
19908W        W63002  27.861  13.031  21.097  0.1551  0.2145  0.0474
19909W        W63003  28.602  13.755  20.651 -0.2105  0.1384 -0.1587
19910W        W63004  27.280  11.296  25.230  0.0241 -0.1611  0.0165
19911W        W63005  27.486  12.038  20.147  0.0113 -0.1320 -0.1531
19912W        W63006  26.692  15.936  21.837 -0.1626 -0.0055  0.1463
19913W        W63007  27.707  13.404  20.230 -0.3073 -0.0381 -0.0835
19914W        W63008  27.664  10.782  20.854  0.2779  0.1392 -0.0360
19915W        W63009  26.985  12.181  22.628 -0.1719  0.1738  0.0184
19916W        W63010  26.661  13.811  20.633  0.0593 -0.3048 -0.0934
19917W        W63011  27.008  14.052  24.471 -0.1275  0.0744  0.3079
19918W        W63012  27.691  13.575  22.504 -0.2195 -0.0362  0.2627
19919W        W63013  28.226  10.902  22.772  0.0378 -0.0704 -0.2108
19920W        W63014  25.410  14.296  22.650 -0.0567  0.0725 -0.5407
19921W        W63015  27.383  13.159  20.931 -0.0897  0.2891  0.0990
19922W        W63016  25.622  11.593  20.307  0.0669 -0.1571  0.0299
19923W        W63017  29.636  12.186  21.100 -0.0584 -0.1361 -0.2925
19924W        W63018  29.555  12.750  19.606 -0.0975 -0.0102 -0.1512
19925W        W63019  26.654  11.045  22.725  0.0232  0.0003  0.2717
19926W        W63020  27.112  11.649  22.037 -0.2351 -0.1522  0.1790
19927W        W63021  26.294  15.287  22.583  0.0567  0.0615  0.1625
19928W        W63022  27.845  11.646  22.941 -0.3340 -0.0362 -0.1953
19929W        W63023  27.852  12.352  19.972 -0.1892 -0.2804  0.1964
19930W        W63024  29.237  13.122  23.587  0.1963 -0.1667  0.1221
19931W        W63025  27.271  14.485  24.523  0.1215 -0.0390 -0.0950
19932W        W63026  25.625  11.901  21.366  0.2176 -0.1337  0.6079
19933W        W63027  27.684  13.419  23.303 -0.2151  0.0242 -0.0157
19934W        W63028  26.636  12.608  21.691 -0.0512 -0.0088 -0.1397
19935W        W63029  27.037  15.371  21.075 -0.1334  0.0256  0.0476
19936W        W63030  25.495  15.459  24.169 -0.2449  0.0739  0.0979
19937W        W63031  27.254  12.802  21.244  0.0790 -0.4545  0.1379
19938W        W63032  27.644  14.354  20.378  0.2647  0.0892 -0.0509
19939W        W63033  25.886  12.935  25.066 -0.1654  0.3296  0.1137
19940W        W63034  27.338  13.485  22.920  0.1540  0.1451  0.2934
19941W        W63035  26.461  11.340  24.149  0.1446 -0.1315 -0.1305
19942W        W63036  26.134  12.298  21.490  0.0602  0.1963  0.3593
19943W        W63037  28.464  13.765  21.563 -0.0035  0.0779  0.3263
19944W        W63038  27.200  13.934  21.216  0.0252 -0.0953  0.2531
19945W        W63039  27.578  11.888  21.868  0.0997  0.0744  0.1832
19946W        W63040  26.037  14.521  23.408  0.0507 -0.2405  0.1662
19947W        W63041  28.256  11.688  22.060 -0.0770 -0.1919 -0.0710
19948W        W63042  29.960  14.642  19.423  0.2199 -0.0451  0.1102
19949W        W63043  27.740  12.706  22.937  0.3529  0.0193 -0.0716
19950W        W63044  27.685  14.782  20.692  0.0818 -0.0807 -0.1645
19951W        W63045  25.577  11.036  21.825 -0.1574  0.0125 -0.1299
19952W        W63046  28.015  13.679  20.727  0.0090  0.2767 -0.2324
19953W        W63047  26.519  11.552  21.187  0.5229  0.1045  0.0357
19954W        W63048  26.337  13.488  23.344  0.0101 -0.2090  0.0001
19955W        W63049  26.507  14.643  21.877 -0.2766 -0.3349 -0.0448
19956W        W63050  24.693  13.263  22.534  0.0050 -0.1123  0.0794
19957W        W63051  29.366  12.224  19.830 -0.0905 -0.3152 -0.3240
19958W        W63052  28.047  14.984  21.972  0.0548  0.2479  0.4542
19959W        W63053  26.519  12.382  21.121  0.2401 -0.1727  0.2744
19960W        W63054  28.087  11.800  23.312  0.2291  0.1624  0.0761
19961W        W63055  26.215  11.478  20.209 -0.3508  0.2151 -0.5974
19962W        W63056  27.642  10.455  25.139 -0.3932 -0.4147 -0.0194
19963W        W63057  25.303  10.364  21.658 -0.1347 -0.1735 -0.0687
19964W        W63058  28.162  14.385  21.541  0.0805 -0.2561 -0.2183
19965W        W63059  26.163  10.286  22.763 -0.0831  0.1638 -0.0944
19966W        W63060  28.537  14.316  23.086  0.3539  0.0833 -0.0591
19967W        W63061  25.790  13.888  25.128 -0.0204  0.1037  0.0475
19968W        W63062  26.170  11.920  21.083 -0.0406  0.1165  0.1999
19969W        W63063  26.149  13.027  20.730  0.0363  0.0894  0.0520
19970W        W63064  27.274  13.981  23.057  0.0040 -0.1394  0.1785
19971W        W63065  28.637  13.918  21.128  0.0264 -0.0827  0.1503
19972W        W63066  29.566  13.482  20.584  0.0738 -0.1503 -0.1440
19973W        W63067  28.704  12.606  21.153  0.1871 -0.1786  0.0894
19974W        W63068  26.485  13.054  22.955 -0.1777  0.0002 -0.0352
19975W        W63069  28.765  12.936  22.136 -0.1668 -0.2726  0.0524
19976W        W63070  27.988  13.934  21.765  0.3057  0.0717 -0.1088
19977W        W63071  25.998  12.099  23.385 -0.2552 -0.3450  0.2204
19978W        W63072  26.002  12.535  23.790  0.1357  0.2378  0.1323
19979W        W63073  28.378  13.703  22.566  0.2878  0.0403  0.2986
19980W        W63074  27.383  12.177  20.670 -0.1090 -0.0668  0.1456
19981W        W63075  27.423  12.219  23.281  0.1028 -0.3688  0.0819
19982W        W63076  28.369  13.052  23.206 -0.2262  0.2085 -0.1494
19983W        W63077  26.005  13.438  23.754  0.0291  0.0723  0.0764
19984W        W63078  26.396  11.403  22.430 -0.0907  0.1182 -0.1036
19985W        W63079  28.300  14.561  23.945  0.2138  0.0570  0.2483
19986W        W63080  28.446  12.017  19.876 -0.0257  0.1472  0.0320
19987W        W63081  26.696  11.624  21.723 -0.0601  0.0001 -0.1067
19988W        W63082  28.378  13.445  21.092  0.1917  0.0754 -0.0442
19989W        W63083  27.990  12.731  19.584 -0.2043 -0.0415 -0.3158
19990W        W63084  25.202  11.678  21.878  0.0624  0.2495 -0.1772
19991W        W63085  29.702  12.007  25.531 -0.0179  0.1783 -0.0519
19992W        W63086  27.208  13.247  20.475  0.3234  0.2143  0.1559
19993W        W63087  28.428  10.577  23.638  0.0184 -0.0625 -0.0216
19994W        W63088  27.816  14.849  21.532 -0.3302 -0.2809  0.2591
19995W        W63089  29.391  14.126  22.330  0.1779  0.1123  0.1975
19996W        W63090  27.856  10.913  19.983  0.2638  0.0556 -0.0706
19997W        W63091  26.416  12.127  20.708  0.1726  0.3504  0.1881
19998W        W63092  26.097  12.781  22.726 -0.1011  0.2302  0.1731
19999W        W63093  26.944  11.482  19.807 -0.0933 -0.1414  0.5174
20000W        W63094  26.847  14.514  19.956 -0.1358  0.0250  0.0931
20001W        W63095  27.647  12.486  22.498  0.1922  0.0886  0.2490
20002W        W63096  29.797  13.285  24.663  0.1592 -0.0316 -0.1227
20003W        W63097  27.479  10.876  20.356  0.1017  0.4673 -0.0376
20004W        W63098  28.635  12.954  23.720 -0.1096  0.3147 -0.0187
20005W        W63099  26.417  15.206  21.126 -0.0110  0.4545  0.1694
20006W        W63100  28.172  12.079  21.296 -0.2852  0.1821  0.0414
20007W        W63101  26.401  15.466  23.554  0.0232 -0.0969  0.0414
20008W        W63102  26.936  15.512  24.334 -0.2206 -0.1707 -0.0692
20009W        W63103  26.355  13.631  22.889 -0.0929  0.0647  0.0244
20010W        W63104  27.441  10.431  22.999 -0.3747 -0.0211  0.2706
20011W        W63105  28.034  12.577  20.472 -0.0240 -0.2211  0.2274
20012W        W63106  27.567  13.226  21.425  0.1127  0.1150 -0.2568
20013W        W63107  28.462  12.123  23.269  0.0035  0.1862 -0.3804
20014W        W63108  27.045  13.746  23.991  0.1967  0.4059 -0.0254
20015W        W63109  26.531  11.634  23.461  0.0464  0.0165  0.1249
20016W        W63110  27.592  14.937  22.098  0.1340 -0.1145  0.0057
20017W        W63111  30.038  13.161  20.441  0.4775 -0.0936 -0.1313
20018W        W63112  27.043  13.005  22.968 -0.1438 -0.1139 -0.0381
20019W        W63113  25.693  10.963  23.717 -0.0283  0.3320  0.0918
20020W        W63114  27.011  14.117  23.634  0.0076  0.0433  0.3516
20021W        W63115  27.643  13.613  21.049  0.0098 -0.2374 -0.2846
20022W        W63116  26.756  10.815  21.095  0.1253  0.2201  0.1374
20023W        W63117  28.098  14.144  20.370 -0.2394 -0.1205 -0.4358
20024W        W63118  26.450  14.312  23.014  0.0769  0.1877  0.1235
20025W        W63119  25.398  13.320  23.972 -0.0009  0.0276  0.0928
20026W        W63120  25.338  13.870  20.973  0.0923 -0.0180  0.3206
20027W        W63121  29.808  12.662  20.346  0.2941  0.0863 -0.1847
20028W        W63122  28.694  14.229  20.476  0.0551 -0.1677  0.0347
20029W        W63123  28.903  13.998  22.299  0.0348 -0.2164 -0.0182
20030W        W63124  26.065  10.731  19.757  0.0629 -0.2836 -0.0865
20031W        W63125  27.161  14.320  22.569 -0.1071 -0.0447  0.0802
20032W        W63126  25.938  13.951  20.929  0.0519  0.1882  0.0568
20033W        W63127  28.552  14.494  21.086  0.2589  0.3362 -0.0067
20034W        W63128  26.086  14.064  21.742 -0.0719 -0.1347  0.1304
20035W        W63129  28.013  13.965  22.349 -0.3252 -0.0469 -0.0072
20036W        W63130  28.374  11.056  19.649  0.0387  0.0070 -0.0780
20037W        W63131  29.014  12.570  21.935  0.0334  0.1270  0.1228
20038W        W63132  28.381  11.588  19.596  0.0278 -0.3122 -0.1191
20039W        W63133  28.610  15.989  23.229  0.2933  0.0300 -0.1754
20040W        W63134  27.193  12.628  22.407 -0.0720  0.0883  0.0354
20041W        W63135  26.758  11.051  19.478  0.0855 -0.1134 -0.4447
20042W        W63136  26.807  13.266  23.680  0.3281 -0.3654  0.1816
20043W        W63137  27.794  11.213  23.215  0.0008  0.0248 -0.1661
20044W        W63138  24.006  15.394  25.393  0.0729  0.0625 -0.0892
20045W        W63139  28.923  15.124  21.411  0.0461 -0.0031 -0.0224
20046W        W63140  26.459  13.812  22.329  0.2302 -0.2039 -0.0564
20047W        W63141  27.168  13.239  24.108  0.3137 -0.0355 -0.1626
20048W        W63142  28.694  11.851  22.428 -0.2491  0.0517  0.1383
20049W        W63143  28.465  13.807  20.187 -0.2049  0.1728 -0.1558
20050W        W63144  28.150  12.118  21.791 -0.1335  0.1020  0.1624
20051W        W63145  26.966  14.345  23.191 -0.3682  0.0628  0.2125
20052W        W63146  26.928  14.431  21.717 -0.3008  0.1838  0.1637
20053W        W63147  26.770  15.080  22.625 -0.0376  0.1276 -0.0191
20054W        W63148  26.866  10.298  20.176  0.1290 -0.2147 -0.0711
20055W        W63149  29.454  12.332  20.626  0.2265  0.0162 -0.2601
20056W        W63150  26.970  11.606  22.771  0.0035  0.0395 -0.0763
20057W        W63151  27.861  10.756  23.052  0.1752  0.1872  0.0974
20058W        W63152  27.290  12.487  22.877  0.2214 -0.0284 -0.0056
20059W        W63153  27.915  11.784  20.069  0.0520 -0.3512  0.1301
20060W        W63154  26.873  12.444  23.860 -0.0493  0.3398  0.0522
20061W        W63155  27.119  12.001  23.674 -0.0385 -0.2340 -0.2489
20062W        W63156  27.764  13.407  18.838 -0.1116 -0.0550 -0.0578
20063W        W63157  28.863  13.942  22.783  0.0203 -0.3069 -0.3845
20064W        W63158  28.274  13.110  20.767  0.2212 -0.0620 -0.0394
20065W        W63159  28.710  14.460  23.522 -0.1448  0.0076  0.0809
20066W        W63160  26.190  10.790  21.856  0.0447 -0.1249 -0.0931
20067W        W63161  28.409  10.674  20.060  0.0193  0.0613  0.0772
20068W        W63162  25.971  13.565  22.328  0.2952  0.1673 -0.0960
20069W        W63163  26.678  12.538  22.912  0.0906  0.2067 -0.3092
20070W        W63164  29.496  12.993  23.002 -0.1504 -0.0427  0.3200
20071W        W63165  27.001  11.075  21.673  0.1812 -0.0832  0.0674
20072W        W63166  27.762  12.886  18.880 -0.0897 -0.2240 -0.0953
20073W        W63167  29.322  10.476  21.380  0.0485  0.0655  0.2640
20074W        W63168  26.279  15.604  21.661  0.1543  0.2866  0.0740
20075W        W63169  28.625  12.249  21.537 -0.1082 -0.0368 -0.0719
20076W        W63170  29.102  14.445  23.172  0.0150 -0.0069  0.0191
20077W        W63171  25.375  12.551  22.997 -0.2202  0.1851 -0.2205
20078W        W63172  26.214  13.031  21.772  0.0138 -0.0969 -0.0418
20079W        W63173  30.002  12.223  22.553 -0.3071  0.0846 -0.2786
20080W        W63174  27.549  12.694  19.770 -0.0306 -0.3711 -0.2643
20081W        W63175  26.633  13.299  21.493  0.1765 -0.2043  0.1227
20082W        W63176  24.934  14.532  21.695 -0.0112  0.1690 -0.0577
20083W        W63177  27.758  11.497  22.160  0.1827  0.2213 -0.2870
20084W        W63178  27.312  10.922  22.767  0.2520  0.2915 -0.0112
20085W        W63179  28.373  15.356  20.331  0.0739 -0.0703  0.0549
20086W        W63180  28.669  11.996  23.986  0.0083 -0.1782  0.0179
20087W        W63181  27.399  13.007  22.624 -0.1311 -0.4245 -0.1567
20088W        W63182  25.413  15.841  25.209 -0.0284  0.0275 -0.0477
20089W        W63183  27.075  13.299  21.247 -0.0501 -0.3386 -0.0221
20090W        W63184  26.162  14.204  23.991  0.4829  0.0577 -0.2386
20091W        W63185  27.788  14.247  20.820 -0.2390  0.1380  0.1382
20092W        W63186  28.114  16.293  21.859 -0.0249 -0.2440  0.0469
20093W        W63187  28.846  13.424  22.435 -0.3071  0.0721  0.1020
20094W        W63188  27.243  11.293  20.585 -0.0195  0.0152 -0.1077
20095W        W63189  28.620  11.940  21.137  0.3513  0.2580 -0.2236
20096W        W63190  25.772  11.851  22.243  0.1486  0.1010 -0.1296
20097W        W63191  28.654  10.510  21.963  0.1261  0.0980 -0.4120
20098W        W63192  28.866  11.427  21.394  0.2703 -0.0441  0.1889
20099W        W63193  26.625  13.728  23.672  0.0225  0.0841  0.2385
20100W        W63194  26.130  12.511  20.889 -0.1031 -0.1368  0.1252
20101W        W63195  27.717  14.482  19.827 -0.1625 -0.0118  0.1679
20102W        W63196  25.972  13.524  21.755 -0.0711  0.2195  0.0616
20103W        W63197  26.026  11.768  24.548 -0.1107 -0.2257  0.0841
20104W        W63198  26.180  12.971  23.408  0.1996 -0.0716 -0.1917
20105W        W63199  25.608  12.387  22.151  0.0396 -0.0411  0.1386
20106W        W63200  26.317  11.740  22.101 -0.0637 -0.3270  0.1618
20107W        W63201  29.117  12.609  22.574  0.0967 -0.3006  0.0098
20108W        W63202  27.041  10.848  22.170  0.1903 -0.0727 -0.0007
20109W        W63203  24.574  12.260  21.530 -0.1366 -0.2332  0.0443
20110W        W63204  29.907  12.371  21.974 -0.1139  0.3986  0.0104
20111W        W63205  27.970  16.314  21.381 -0.0210  0.0302  0.1819
20112W        W63206  28.667  12.040  21.963  0.0185 -0.0716  0.1474
20113W        W63207  30.225  14.321  22.119 -0.0497 -0.0569  0.1828
20114W        W63208  25.561  13.673  21.384 -0.0525  0.0253 -0.3268
20115W        W63209  26.787  12.890  22.576  0.1836 -0.0301  0.0111
20116W        W63210  28.083  12.892  24.168 -0.1866 -0.1408  0.2253
20117W        W63211  25.293  13.106  20.148  0.0307  0.1792  0.3315
20118W        W63212  27.121  12.066  21.722  0.4202 -0.1706  0.1830
20119W        W63213  28.070  14.651  20.988  0.0567  0.2660 -0.1527
20120W        W63214  28.304  15.334  20.839  0.2465  0.0293  0.1838
20121W        W63215  26.087  14.335  24.763  0.1467 -0.1229  0.2199
20122W        W63216  27.024  15.400  24.829 -0.0411 -0.5230  0.1152
20123W        W63217  26.287  10.471  24.341 -0.3214 -0.5518  0.2732
20124W        W63218  28.770  13.379  21.438 -0.1903  0.2782 -0.4221
20125W        W63219  27.436  12.669  23.393 -0.0107 -0.1447  0.0031
20126W        W63220  29.959  14.005  20.636 -0.2079 -0.0733  0.2096
20127W        W63221  28.100  10.186  22.354  0.0776 -0.0625  0.0297
20128W        W63222  27.714  13.008  20.597  0.4150  0.1548  0.0550
20129W        W63223  26.136  10.840  23.534  0.1353 -0.1473  0.2906
20130W        W63224  27.677  14.069  22.766  0.0406 -0.0375  0.0386
20131W        W63225  30.039  14.641  23.361 -0.0754 -0.1309  0.0891
20132W        W63226  25.824  10.974  20.994  0.1820  0.1264 -0.0434
20133W        W63227  28.209  11.572  21.141 -0.1303  0.0792  0.1952
20134W        W63228  28.084  13.674  19.793 -0.0826 -0.1388  0.0741
20135W        W63229  27.356  11.889  22.929  0.1987 -0.2589 -0.2299
20136W        W63230  27.134  11.649  20.266 -0.0504  0.0989 -0.0350
20137W        W63231  27.208  13.151  23.416  0.1835 -0.0822 -0.1804
20138W        W63232  28.047  13.965  21.194 -0.0217 -0.0029 -0.2448
20139W        W63233  27.680  13.952  23.473  0.0036 -0.1999 -0.1124
20140W        W63234  27.305  14.362  20.752  0.0991 -0.0513  0.0963
20141W        W63235  29.604  12.994  20.630  0.0231 -0.2146 -0.0086
20142W        W63236  27.233  13.644  23.504 -0.1328  0.0910 -0.1352
20143W        W63237  27.781  14.383  23.250 -0.0139  0.2346  0.3054
20144W        W63238  25.815  14.559  24.307  0.1019  0.0192  0.1224
20145W        W63239  28.263  12.145  22.400 -0.2591 -0.0586  0.1304
20146W        W63240  26.310  10.893  22.347 -0.0276 -0.2225 -0.0727
20147W        W63241  26.508  12.869  21.268 -0.1759  0.0999  0.0495
20148W        W63242  26.599  10.474  22.905  0.0644  0.3487  0.1430
20149W        W63243  26.654  13.039  21.972  0.2035 -0.0565 -0.1973
20150W        W63244  27.941  11.679  21.585  0.0615  0.1280 -0.0416
20151W        W63245  28.420  12.301  20.284  0.1214  0.3178 -0.1128
20152W        W63246  26.672  13.898  23.201 -0.0851  0.3042  0.1581
20153W        W63247  28.343  12.564  21.955 -0.1093 -0.2220  0.0372
20154W        W63248  26.603  14.078  27.593  0.1267  0.1504  0.2990
20155W        W63249  26.072  11.769  23.753  0.0667 -0.0541 -0.3221
20156W        W63250  27.728  12.077  24.284  0.0469 -0.1103  0.1070
20157W        W63251  28.860  13.332  25.976 -0.0465 -0.3867  0.1181
20158W        W63252  24.580  12.696  25.181 -0.0228 -0.1231 -0.0877
20159W        W63253  28.384  15.873  25.665  0.0265 -0.1195 -0.0231
20160W        W63254  26.167  11.184  27.458 -0.0557  0.2059 -0.0285
20161W        W63255  29.462  14.189  25.920 -0.1648  0.0780  0.0973
20162W        W63256  29.866  14.243  26.868 -0.1583 -0.0379  0.2163
20163W        W63257  27.694  13.279  24.292  0.4118 -0.1347 -0.3292
20164W        W63258  28.253  12.870  25.481  0.2315  0.0157  0.0532
20165W        W63259  27.052  14.703  26.839  0.1584  0.0330 -0.0145
20166W        W63260  25.527  12.016  23.170 -0.0961 -0.0350  0.0724
20167W        W63261  24.299  12.948  27.255 -0.0613  0.2159 -0.0654
20168W        W63262  27.258  13.082  25.977 -0.2349 -0.1782 -0.0488
20169W        W63263  26.067  14.056  25.502  0.2737  0.0629  0.0172
20170W        W63264  26.899  12.310  25.514  0.3197  0.0773  0.0720
20171W        W63265  27.378  12.469  25.201  0.1652 -0.0106 -0.1567
20172W        W63266  28.013  14.441  25.185 -0.1631  0.0231  0.2120
20173W        W63267  26.107  12.016  26.876  0.0942  0.0302  0.2067
20174W        W63268  27.754  12.021  25.672 -0.1913  0.4897 -0.0772
20175W        W63269  28.262  14.526  24.755  0.0644  0.2079  0.1262
20176W        W63270  25.565  11.654  22.764 -0.2098  0.1982 -0.0986
20177W        W63271  24.728  12.915  25.930 -0.0545 -0.2104  0.1251
20178W        W63272  26.058  12.456  26.143 -0.2033  0.2882 -0.1158
20179W        W63273  28.167  12.629  25.937  0.0219 -0.0218  0.1109
20180W        W63274  28.361  13.230  25.900 -0.2081  0.1949 -0.0375
20181W        W63275  28.329  14.920  26.356  0.0671  0.1970 -0.0185
20182W        W63276  28.282  15.274  24.877 -0.1308  0.1668 -0.3865
20183W        W63277  27.949  12.299  27.502 -0.1638 -0.1134  0.0748
20184W        W63278  26.728  13.960  26.250  0.2214 -0.0974  0.0456
20185W        W63279  26.508  15.174  25.697 -0.2054 -0.2224  0.0575
20186W        W63280  25.584  16.343  24.956  0.0972 -0.1036  0.0016
20187W        W63281  28.530  12.276  25.151  0.1398  0.1146 -0.0324
20188W        W63282  29.721  13.420  27.317  0.1268  0.4685  0.1949
20189W        W63283  26.719  14.467  27.149 -0.0065 -0.1754 -0.1614
20190W        W63284  26.453  14.470  25.094  0.1675  0.1441 -0.0260
20191W        W63285  28.763  13.888  28.183 -0.1044  0.0779  0.1422
20192W        W63286  26.414  14.088  28.086 -0.2229  0.1520  0.0260
20193W        W63287  27.014  13.045  26.465 -0.2646 -0.3145  0.4303
20194W        W63288  28.110  12.610  27.080  0.4072  0.1653 -0.0105
20195W        W63289  26.797  14.074  24.970  0.1708 -0.0764  0.4201
20196W        W63290  27.279  13.957  24.918  0.2037 -0.0607  0.1436
20197W        W63291  26.625  13.743  28.407  0.3211 -0.3224  0.0490
20198W        W63292  25.729  15.087  25.554  0.1170 -0.0344  0.1501
20199W        W63293  28.905  11.665  26.256  0.0336  0.2217 -0.2186
20200W        W63294  25.360  17.247  25.086 -0.3110 -0.0758 -0.0446
20201W        W63295  27.270  12.304  24.340 -0.0728 -0.1313 -0.1125
20202W        W63296  26.973  11.738  23.249  0.1184 -0.0033  0.1461
20203W        W63297  27.698  12.301  24.765  0.4041 -0.0847  0.0142
20204W        W63298  27.785  12.351  26.556 -0.2273  0.2009  0.0504
20205W        W63299  26.068  15.057  26.997  0.3430  0.0045 -0.2206
20206W        W63300  26.032  10.748  26.743 -0.2388 -0.0309  0.0871
20207W        W63301  29.028  13.132  28.148  0.0111  0.1370 -0.0851
20208W        W63302  26.839  12.946  24.697  0.3513 -0.3023  0.3600
20209W        W63303  27.071  13.684  26.804  0.1754 -0.0823  0.1368
20210W        W63304  25.878  14.714  26.592 -0.0611  0.0675  0.2351
20211W        W63305  27.002  14.233  25.876 -0.0598 -0.0104 -0.0526
20212W        W63306  27.869  15.025  23.849  0.0272 -0.1284 -0.2339
20213W        W63307  28.274  14.355  26.025 -0.2169 -0.3151  0.1766
20214W        W63308  28.693  14.311  24.368  0.0181  0.1592  0.1190
20215W        W63309  26.677  14.145  25.457 -0.0502  0.0747  0.0070
20216W        W63310  26.498  12.418  29.981 -0.2686 -0.1420 -0.0337
20217W        W63311  24.007  12.309  27.681 -0.1170  0.3573 -0.1626
20218W        W63312  26.813  11.576  23.909  0.2008  0.1799 -0.2475
20219W        W63313  28.398  12.246  27.137 -0.0867  0.2656 -0.1893
20220W        W63314  25.703  13.241  28.220 -0.0051 -0.2629 -0.2897
20221W        W63315  28.965  12.148  25.355 -0.1493  0.1733 -0.1299
20222W        W63316  27.261  12.774  25.598 -0.2342  0.0576  0.1138
20223W        W63317  30.135  12.784  26.302  0.2503  0.1476 -0.1914
20224W        W63318  28.694  12.524  23.353 -0.3624  0.0432 -0.2352
20225W        W63319  29.699  11.990  25.979  0.0892  0.3799 -0.1449
20226W        W63320  29.490  11.865  25.073  0.0567  0.1861 -0.3604
20227W        W63321  27.987  14.091  24.884 -0.1614 -0.1048 -0.1359
20228W        W63322  26.906  13.096  25.535 -0.0765  0.0346  0.1382
20229W        W63323  27.851  14.546  25.705 -0.1633  0.1217 -0.1998
20230W        W63324  27.864  12.955  23.337  0.0855 -0.0115  0.2415
20231W        W63325  25.483  14.654  26.255 -0.0673  0.1999  0.3169
20232W        W63326  27.523  12.879  28.210 -0.0263  0.0196 -0.1950
20233W        W63327  27.190  13.423  27.329 -0.2414  0.0193  0.0981
20234W        W63328  24.918  16.993  25.222  0.3623  0.3892  0.1470
20235W        W63329  26.178  13.876  26.474  0.0045 -0.2660 -0.2523
20236W        W63330  25.925  14.481  25.274  0.1429 -0.2512 -0.1813
20237W        W63331  24.409  10.690  26.511  0.0176 -0.2049  0.0437
20238W        W63332  27.466  14.351  26.797  0.0968 -0.1241 -0.0568
20239W        W63333  27.382  11.292  24.412  0.1827 -0.0487 -0.1821
20240W        W63334  26.801  13.120  26.929 -0.0201 -0.0333 -0.3144
20241W        W63335  28.502  10.482  24.978  0.0347  0.0371 -0.3015
20242W        W63336  26.536  14.424  25.900 -0.0373  0.0047  0.1167
20243W        W63337  29.100  15.886  24.924 -0.1603  0.4313 -0.2392
20244W        W63338  29.372  12.440  25.645 -0.0025  0.2277 -0.1380
20245W        W63339  27.960  14.024  23.972  0.0502  0.3252  0.0652
20246W        W63340  26.235  12.375  27.186  0.3009  0.0600 -0.1692
20247W        W63341  24.961  12.244  26.085  0.1481  0.1183 -0.0397
20248W        W63342  26.493  11.894  27.870  0.1277 -0.2936  0.3867
20249W        W63343  25.807  11.633  26.596  0.1515  0.2165 -0.0753
20250W        W63344  28.251  11.760  27.075 -0.0729  0.0175  0.3248
20251W        W63345  26.462  12.066  23.669  0.1499  0.3465  0.0502
20252W        W63346  28.750  11.437  24.895  0.0171  0.0897  0.0992
20253W        W63347  26.759  13.458  24.257  0.2062 -0.0388  0.0668
20254W        W63348  25.979  13.502  24.741 -0.1276 -0.1396 -0.2455
20255W        W63349  29.412  11.441  26.091  0.0443 -0.1238 -0.2381
20256W        W63350  28.519  13.746  25.573  0.1988 -0.2118  0.1832
20257W        W63351  29.511  13.783  27.654 -0.1891 -0.0697 -0.1132
20258W        W63352  28.045  13.684  25.160 -0.0708  0.0724  0.1171
20259W        W63353  26.507  11.724  25.692  0.4264  0.1782 -0.1068
20260W        W63354  27.055  12.793  24.268 -0.1933  0.2957  0.0476
20261W        W63355  25.073  14.614  25.027 -0.1628 -0.1913  0.0403
20262W        W63356  27.335  14.597  25.778  0.1487 -0.1888 -0.3279
20263W        W63357  27.376  11.765  24.017  0.1241 -0.0431  0.3825
20264W        W63358  29.865  12.600  26.778  0.0875 -0.0951  0.2161
20265W        W63359  27.277  12.639  24.697 -0.2445  0.1287  0.1193
20266W        W63360  26.890  14.165  26.759  0.3184 -0.0225  0.1414
20267W        W63361  27.928  12.074  25.169  0.1411  0.0684  0.0119
20268W        W63362  28.547  12.240  26.179 -0.1327 -0.2803  0.1417
20269W        W63363  27.688  12.427  26.043 -0.2303  0.6115  0.3834
20270W        W63364  26.113  11.315  23.464 -0.2111  0.0957  0.3027
20271W        W63365  28.933  12.936  26.852 -0.0526  0.2127 -0.2316
20272W        W63366  25.551  14.849  25.079 -0.2858 -0.1143 -0.0742
20273W        W63367  25.085  13.197  26.218 -0.0334  0.3311 -0.1911
20274W        W63368  26.454  14.336  26.502 -0.1532  0.0305  0.0173
20275W        W63369  29.818  10.448  26.006 -0.0949 -0.1871 -0.0959
20276W        W63370  23.065  12.406  26.375 -0.0510 -0.0178 -0.0907
20277W        W63371  28.084  12.992  28.673  0.3977 -0.5517 -0.0696
20278W        W63372  25.260  12.174  25.183  0.1251 -0.0074  0.2044
20279W        W63373  26.819  13.177  27.575 -0.1081 -0.3053  0.3526
20280W        W63374  27.799  11.426  25.276 -0.0700 -0.0086 -0.0157
20281W        W63375  28.968  13.949  24.129 -0.0407 -0.1059  0.2363
20282W        W63376  28.005  13.922  27.352  0.0194  0.1050  0.2651
20283W        W63377  28.440  13.902  24.720  0.1035  0.0065 -0.2960
20284W        W63378  27.943  12.376  23.288  0.2272 -0.1686  0.1695
20285W        W63379  27.912  12.470  23.939 -0.2034 -0.1894 -0.2014
20286W        W63380  26.285  13.252  27.252  0.0556 -0.1893 -0.1169
20287W        W63381  29.005  14.500  24.797 -0.1060  0.0108  0.1403
20288W        W63382  28.972  13.854  26.632 -0.4053 -0.2425  0.1780
20289W        W63383  28.245  12.484  22.919  0.1043 -0.1767 -0.3557
20290W        W63384  28.524  16.116  24.408 -0.0417  0.0592 -0.0768
20291W        W63385  26.056  14.230  26.794  0.0848 -0.2913 -0.2315
20292W        W63386  28.379  13.008  26.777 -0.0477  0.4978 -0.2187
20293W        W63387  27.906  14.950  24.940 -0.0069 -0.0692 -0.0869
20294W        W63388  26.101  12.471  25.234  0.0716  0.1086 -0.0809
20295W        W63389  25.710  13.508  24.290 -0.1196 -0.0478 -0.2784
20296W        W63390  28.443  11.313  25.270 -0.4787 -0.1488  0.6967
20297W        W63391  25.176  15.283  25.421  0.1953  0.0261 -0.2965
20298W        W63392  29.951  10.745  25.617 -0.1021 -0.2639 -0.1002
20299W        W63393  27.202  11.712  26.561 -0.1084 -0.0915  0.2351
20300W        W63394  28.315  11.682  26.173  0.1117 -0.2335  0.2602
20301W        W63395  29.256  11.252  28.469  0.1803  0.0240 -0.0422
20302W        W63396  28.748  12.627  24.150  0.0875 -0.1942 -0.0911
20303W        W63397  26.946  13.756  25.841  0.0992 -0.1185  0.0354
20304W        W63398  25.855  12.577  24.278 -0.0102  0.2561 -0.0316
20305W        W63399  26.970  10.711  28.104  0.3829 -0.2613 -0.2141
20306W        W63400  25.874  13.442  26.561 -0.2031  0.0236 -0.0039
20307W        W63401  27.278  13.183  26.875  0.1058  0.1739 -0.0561
20308W        W63402  28.965  14.666  27.240  0.0318 -0.2472  0.3059
20309W        W63403  27.292  13.410  25.583 -0.0510  0.0643 -0.1724
20310W        W63404  28.266  11.474  27.740 -0.0823  0.0245 -0.0004
20311W        W63405  26.765  12.008  24.669 -0.1275  0.0051 -0.2172
20312W        W63406  26.345  13.886  24.948 -0.4057 -0.1287  0.0062
20313W        W63407  28.006  12.709  24.607 -0.2654  0.0226 -0.1583
20314W        W63408  29.384  11.074  25.783  0.2914 -0.0040  0.0052
20315W        W63409  26.568  13.190  28.022 -0.0069 -0.1233  0.2875
20316W        W63410  25.072  15.481  24.385  0.0499 -0.2534 -0.1511
20317W        W63411  29.198  13.502  27.154 -0.0106 -0.0261  0.2313
20318W        W63412  27.785  13.107  25.886 -0.1841 -0.0015 -0.1734
20319W        W63413  28.062  10.190  25.864 -0.0620  0.3525  0.0741
20320W        W63414  24.749  14.364  27.052 -0.0286  0.0343 -0.0936
20321W        W63415  26.986  12.447  23.388 -0.0246 -0.1615  0.2381
20322W        W63416  26.452  12.825  24.321  0.0350 -0.3319  0.2974
20323W        W63417  27.390  12.121  26.912  0.2062 -0.0778 -0.0721
20324W        W63418  29.475  12.765  24.789 -0.2887  0.1264 -0.0844
20325W        W63419  26.681  12.679  26.707 -0.1532 -0.1151 -0.0977
20326W        W63420  28.674  11.760  25.263  0.1703 -0.1534  0.1805
20327W        W63421  25.005  14.687  26.102 -0.2875  0.2364  0.3668
20328W        W63422  27.723  12.906  26.782 -0.2944 -0.0032 -0.1318
20329W        W63423  28.428  11.892  24.880 -0.1086  0.1983 -0.2316
20330W        W63424  28.618  11.919  26.611  0.0372 -0.0984  0.6057
20331W        W63425  27.858  13.672  27.898  0.0574 -0.1543 -0.0981
20332W        W63426  25.229  11.033  23.398  0.1697 -0.0949  0.3955
20333W        W63427  28.776  12.273  26.848 -0.1640 -0.4148  0.0052
20334W        W63428  26.214  12.715  24.830 -0.3807  0.0077  0.2484
20335W        W63429  25.506  14.195  25.379 -0.1198  0.3929  0.1956
20336W        W63430  29.195  14.332  26.745 -0.4131  0.0233 -0.1420
20337W        W63431  26.307  13.006  25.290 -0.4317 -0.1089 -0.0277
20338W        W63432  26.497  15.018  24.790  0.0659 -0.3292  0.0216
20339W        W63433  26.658  13.552  27.259  0.1784 -0.0370  0.2453
20340W        W63434  30.156  12.997  26.965 -0.2584  0.2086  0.0802
20341W        W63435  26.974  11.823  25.462 -0.1909 -0.0878 -0.0190
20342W        W63436  25.714  11.249  25.372  0.1734 -0.3330  0.5416
20343W        W63437  26.571  12.591  25.293 -0.1014 -0.0556 -0.0432
20344W        W63438  29.231  12.145  26.028  0.1619 -0.2680 -0.2455
20345W        W63439  27.383  12.651  26.476  0.3156  0.2032 -0.0049
20346W        W63440  25.804  14.641  27.097 -0.3276 -0.0260  0.0818
20347W        W63441  26.946  10.839  26.799  0.3153 -0.0800  0.1191
20348W        W63442  30.942  11.772  24.258  0.0672  0.0174 -0.1694
20349W        W63443  27.950  13.205  28.263 -0.2130  0.1592  0.3278
20350W        W63444  25.505  12.267  24.046  0.2256  0.1583  0.3806
20351W        W63445  25.845  12.120  26.440 -0.1342 -0.0226 -0.1202
20352W        W63446  27.598  14.783  25.342  0.0287 -0.2056 -0.0017
20353W        W63447  26.273  12.422  26.621 -0.1260  0.3066  0.0213
20354W        W63448  25.726  15.400  26.628  0.0432  0.0409  0.2555
20355W        W63449  25.808  14.400  25.788  0.0049 -0.0372 -0.1336
20356W        W63450  26.281  14.652  26.938  0.1667  0.1086  0.3773
20357W        W63451  28.349  11.389  24.216  0.1997  0.0704 -0.0080
20358W        W63452  25.938  15.134  24.317 -0.1666 -0.0508 -0.2306
20359W        W63453  28.289  10.655  25.941 -0.1987  0.1302 -0.0135
20360W        W63454  28.444  12.920  25.012  0.2672 -0.1110 -0.1342
20361W        W63455  27.045  12.877  23.781  0.0170  0.1604  0.0279
20362W        W63456  29.294  11.451  26.599 -0.0123  0.3090  0.2366
20363W        W63457  25.566  11.247  25.865  0.3250  0.1809 -0.3177
20364W        W63458  27.258  13.329  25.054 -0.2038  0.0803 -0.1899
20365W        W63459  26.346  12.005  26.198  0.1412  0.0527 -0.1437
20366W        W63460  27.311  14.421  27.773 -0.2123  0.4131  0.0364
20367W        W63461  25.729  12.419  27.050  0.1917  0.0626  0.1399
20368W        W63462  27.610  12.665  24.313 -0.1741  0.3399  0.3364
20369W        W63463  25.733  10.990  23.228  0.0670 -0.0792  0.0360
20370W        W63464  26.280  12.798  25.742  0.0334 -0.1020 -0.4134
20371W        W63465  30.759  11.323  26.689  0.0040 -0.2635 -0.2626
20372W        W63466  26.219  13.451  25.164 -0.1233  0.0500 -0.0161
20373W        W63467  28.939  11.145  26.447 -0.0598  0.0725 -0.0034
20374W        W63468  26.386  12.298  25.767  0.1013 -0.2535  0.0429
20375W        W63469  28.480  12.776  24.551 -0.0154 -0.0911 -0.0928
20376W        W63470  28.694  12.168  24.519  0.0436 -0.3513  0.2158
20377W        W63471  26.125  14.539  26.181  0.1275  0.1081  0.1392
20378W        W63472  25.994  14.030  27.718  0.2286  0.0924 -0.0477
20379W        W63473  27.551  13.180  26.366  0.0197 -0.4121 -0.1991
20380W        W63474  29.461  10.219  25.692 -0.0083 -0.4557 -0.0853
20381W        W63475  27.564  13.063  25.357 -0.1266  0.0806 -0.0704
20382W        W63476  28.358  11.189  26.069 -0.1947 -0.0516  0.1056
20383W        W63477  27.708  12.969  27.370 -0.3020 -0.0396 -0.1325
20384W        W63478  25.593  11.170  26.835 -0.0894  0.1525  0.1855
20385W        W63479  28.106  16.167  26.463 -0.1178 -0.2420 -0.1963
20386W        W63480  29.322  12.097  23.236 -0.3179 -0.5117 -0.1817
20387W        W63481  28.615  12.762  27.178  0.0951 -0.0589 -0.2629
20388W        W63482  29.932  11.574  25.134 -0.2253 -0.0110 -0.3058
20389W        W63483  26.278  13.287  24.192 -0.1112  0.0631 -0.1247
20390W        W63484  25.943  11.997  25.832 -0.3886 -0.0938  0.3008
20391W        W63485  28.190  13.100  27.242 -0.0091 -0.1258 -0.4004
20392W        W63486  24.797  11.032  24.681 -0.0859 -0.0240 -0.2804
20393W        W63487  28.069  12.147  26.076  0.3643 -0.0059 -0.1389
20394W        W63488  27.426  13.674  24.350  0.2722 -0.1174  0.0322
20395W        W63489  29.193  12.265  26.542  0.1372  0.0667  0.0218
20396W        W63490  28.845  12.498  24.854  0.0291 -0.0170  0.0809
20397W        W63491  25.054  12.714  27.548 -0.1384  0.3742 -0.0109
20398W        W63492  27.692  13.731  26.397  0.0039  0.1166 -0.4295
20399W        W63493  25.086  12.409  23.804 -0.1235 -0.2856 -0.1174
20400W        W63494  25.840  13.008  24.560  0.2262  0.1170 -0.2126
20401W        W63495  29.497  13.927  26.726 -0.0685  0.0180 -0.1859
20402W        W63496  30.368  13.734  28.035  0.0078 -0.0759 -0.0044
20403W        W63497  27.706  10.114  24.590 -0.3366  0.0828 -0.0238
20404W        W63498  28.529  11.425  28.762 -0.1905 -0.0903 -0.0064
20405W        W63499  25.261  13.960  24.861 -0.0406 -0.2511 -0.0265
20406W        W63500  27.135  10.521  24.834 -0.1101 -0.0159  0.0023
20407W        W63501  26.878  14.790  25.914 -0.0697  0.1406 -0.0734
20408W        W63502  25.374  14.288  27.197 -0.0133  0.1372  0.0462
20409W        W63503  26.068  15.319  25.820 -0.1721  0.2114 -0.0064
20410W        W63504  26.320  11.620  26.597 -0.0880 -0.3491  0.3194
20411W        W63505  27.053  13.491  26.246 -0.0989 -0.0878 -0.0374
20412W        W63506  26.739  15.212  25.208 -0.1522 -0.2817 -0.2151
20413W        W63507  28.315  12.528  26.514 -0.1124  0.1006  0.0748
20414W        W63508  28.087  13.342  26.327 -0.5072 -0.1172 -0.2979
20415W        W63509  26.001  13.566  26.054 -0.0117  0.1902 -0.5035
20416W        W63510  28.485  13.386  28.006 -0.5016  0.0265  0.0753
20417W        W63511  29.373  13.446  26.568 -0.0786  0.1320 -0.2727
20418W        W63512  25.360  13.603  26.610  0.0663  0.0958 -0.0042
20419W        W63513  25.611  11.633  27.098  0.1857 -0.2717  0.1372
20420W        W63514  27.483  13.559  25.977  0.2491 -0.3542 -0.5492
20421W        W63515  28.618  12.836  25.842  0.1248 -0.2193 -0.0893
20422W        W63516  26.805  11.360  25.395 -0.1675  0.1421  0.0105
20423W        W63517  28.686  13.378  24.756  0.2093  0.2234 -0.3243
20424W        W63518  26.493  14.017  27.037  0.1856 -0.0482  0.4346
20425W        W63519  25.956  12.703  27.843  0.2142  0.2223 -0.3942
20426W        W63520  27.378  16.263  25.230 -0.2840  0.2730 -0.0173
20427W        W63521  27.950  12.629  25.119  0.2346 -0.1099  0.1468
20428W        W63522  27.649  13.514  24.788  0.2582  0.1872  0.1928
20429W        W63523  27.789  14.236  26.274  0.0281 -0.0790 -0.3665
20430W        W63524  26.665  13.680  25.265  0.1744  0.0736 -0.1131
20431W        W63525  24.725  14.940  25.082  0.0622 -0.1107  0.1844
20432W        W63526  25.501  14.475  24.745 -0.2481 -0.1892  0.3779
20433W        W63527  28.275  15.819  24.097 -0.0090 -0.1398 -0.0674
20434W        W63528  27.668  14.174  24.534  0.0175  0.2170 -0.3165
20435W        W63529  29.216  12.464  27.064 -0.0610 -0.3000  0.0660
20436W        W63530  29.092   9.271  22.791 -0.1418  0.0497  0.1987
20437W        W63531  29.908  11.479  26.091  0.1240 -0.0463  0.0692
20438W        W63532  28.984  11.875  24.790 -0.0387 -0.0780 -0.0704
20439W        W63533  28.638  13.390  27.084  0.4587 -0.1111  0.1013
20440W        W63534  26.744  12.667  27.252  0.0847 -0.3442  0.1963
20441W        W63535  27.907  10.882  25.178  0.1072  0.1038 -0.3049
20442W        W63536  27.170  12.704  26.971 -0.1264 -0.0943  0.1265
20443W        W63537  30.027  11.619  27.431 -0.0626  0.2841  0.0071
20444W        W63538  25.226  15.376  26.817 -0.1671 -0.1147  0.5115
20445W        W63539  28.764  15.443  25.023 -0.2213  0.2350  0.1011
20446W        W63540  26.110  13.325  25.661 -0.1976 -0.3488 -0.0449
20447W        W63541  26.551  13.210  25.852 -0.0357 -0.0742  0.0240
20448W        W63542  28.647   9.733  25.820 -0.0668 -0.0725  0.0201
20449W        W63543  28.144  13.504  24.066 -0.0821 -0.0273  0.0102
20450W        W63544  29.009  13.135  26.410 -0.1143 -0.0814 -0.0993
20451W        W63545  27.720  15.832  26.043 -0.0907  0.4426 -0.0759
20452W        W63546  27.691  13.522  26.864  0.0929 -0.0378 -0.0768
20453W        W63547  27.011  15.043  27.449  0.2756  0.2144 -0.0305
20454W        W63548  25.188  11.237  25.424 -0.3550  0.1400 -0.1992
20455W        W63549  29.796  11.026  26.176  0.0891  0.4892  0.1466
20456W        W63550  26.400  12.975  26.414  0.0947  0.0995  0.0276
20457W        W63551  29.420  10.613  25.429  0.3728  0.0936 -0.2609
20458W        W63552  25.509  13.081  26.017 -0.0228  0.1496  0.0968
20459W        W63553  29.245  10.983  25.184  0.2295  0.1871 -0.2851
20460W        W63554  28.128  14.475  26.594  0.2317  0.4314  0.2927
20461W        W63555  26.749  11.875  26.492 -0.0286  0.2389  0.0466
20462W        W63556  25.830  12.467  25.738  0.1050  0.1167 -0.0810
20463W        W63557  28.862  13.715  25.198  0.3398  0.1379 -0.1174
20464W        W63558  26.476  12.499  23.392 -0.0263 -0.3987 -0.0059
20465W        W63559  28.283  15.382  25.875  0.0004 -0.1581 -0.0035
20466W        W63560  26.043  11.674  25.451  0.0009 -0.3745 -0.1672
20467W        W63561  27.600  12.973  24.876 -0.0038 -0.0066 -0.0667
20468W        W63562  25.413  13.554  26.090  0.1024 -0.0710  0.0502
20469W        W63563  27.322  12.149  25.769  0.1966  0.0606 -0.0032
20470W        W63564  29.186  11.876  27.033 -0.0590  0.0688  0.1037
20471W        W63565  26.290  12.231  24.507  0.0547 -0.0061  0.0514
20472W        W63566  29.541  14.741  23.678 -0.0065 -0.0726 -0.0093
20473W        W63567  30.720  11.866  25.964  0.2354  0.0008 -0.4553
20474W        W63568  25.906  15.884  25.421  0.2225  0.0794  0.2526
20475W        W63569  30.027  11.643  25.625 -0.2550  0.3682 -0.3087
20476W        W63570  27.578  14.245  25.346 -0.0593 -0.0199  0.1518
20477W        W63571  27.094  12.533  26.079  0.0969  0.0913  0.0180
20478W        W63572  26.904  14.436  26.330 -0.1743  0.0269  0.0678
20479W        W63573  29.613  11.983  27.355  0.0673 -0.0061 -0.0446
20480W        W63574  28.993  12.905  24.567  0.2426 -0.1360 -0.2974
20481W        W63575  25.476  13.564  24.712  0.0598  0.1006  0.3962
20482W        W63576  25.459  14.406  26.735  0.2095 -0.0636 -0.1511
20483W        W63577  27.817  10.572  25.604 -0.1674 -0.0384  0.0771
20484W        W63578  27.615  12.526  27.198  0.2191  0.3129  0.2805
20485W        W63579  27.800  15.182  24.392  0.1011 -0.0495 -0.0632
20486W        W63580  28.774  10.627  26.191 -0.1482  0.0598  0.2360
20487W        W63581  27.521  13.976  27.230  0.1314  0.0848  0.0887
20488W        W63582  25.329  15.173  26.389 -0.1386  0.1006  0.2971
20489W        W63583  25.800  12.948  25.596  0.1358 -0.1156  0.1802
20490W        W63584  26.953  12.323  28.634  0.1514 -0.0223 -0.1089
20491W        W63585  27.100  13.855  25.402 -0.0740 -0.0016 -0.1733
20492W        W63586  27.163  14.969  25.452 -0.1384  0.0645 -0.2428
20493W        W63587  28.668  14.068  26.256  0.2189 -0.0656 -0.0263
20494W        W63588  28.447  13.378  25.246  0.1416 -0.0241  0.2018
20495W        W63589  28.501  15.841  26.646  0.0847 -0.1920 -0.2917
20496W        W63590  26.747  12.424  24.386  0.1257 -0.0855 -0.0338
20497W        W63591  29.113  11.999  24.242 -0.1354  0.0725  0.1898
20498W        W63592  27.015  10.608  24.157  0.0319  0.1223 -0.0522
20499W        W63593  26.786  12.763  25.834 -0.0268  0.0715 -0.1209
20500W        W63594  24.741  12.566  23.430  0.2625 -0.0508 -0.3690
20501W        W63595  25.918  14.805  24.718  0.1113 -0.1334  0.1738
20502W        W63596  26.478  13.786  25.752  0.1853  0.2924  0.0609
20503W        W63597  27.014  12.283  26.626  0.2916 -0.1394  0.2246
20504W        W63598  25.503  12.045  26.795 -0.2978 -0.0182 -0.0861
20505W        W63599  24.802  14.190  25.836  0.1438  0.0342  0.1502
20506W        W63600  25.984  11.289  23.952  0.3246 -0.3262 -0.1500
20507W        W63601  30.261  13.974  25.053  0.4395 -0.0309  0.1804
20508W        W63602  26.813  11.368  26.704 -0.0580 -0.2327 -0.0774
20509W        W63603  25.019  11.759  26.313  0.2986  0.1431 -0.0746
20510W        W63604  28.790  12.701  25.374 -0.0775 -0.1515  0.0227
20511W        W63605  28.825  13.195  25.493  0.0706  0.0767  0.0548
20512W        W63606  27.959  11.576  25.858 -0.1224  0.2531 -0.2948
20513W        W63607  28.114  14.662  28.343 -0.1660  0.0909  0.4780
20514W        W63608  24.638  13.544  25.041  0.0023  0.0059  0.2666
20515W        W63609  26.900  12.688  27.722  0.1169  0.2483  0.0097
20516W        W63610  26.349  12.911  27.572  0.2160 -0.1764 -0.0019
20517W        W63611  25.994  12.101  24.086 -0.2087  0.2980 -0.3450
20518W        W63612  28.619  11.984  25.745  0.1884  0.2496 -0.1895
20519W        W63613  27.289  13.203  24.575 -0.0502  0.1262  0.0016
20520W        W63614  28.549  13.710  24.227  0.1058  0.0718  0.1102
20521W        W63615  26.165  14.736  25.664 -0.1587  0.0934 -0.0654
20522W        W63616  27.380  13.605  28.672  0.0172  0.1100  0.1255
20523W        W63617  25.080  11.108  26.513  0.0416  0.0693 -0.1549
20524W        W63618  29.945  12.421  25.871 -0.1054  0.0732 -0.0380
20525W        W63619  28.213  13.594  27.045  0.3988  0.1976  0.0424
20526W        W63620  28.678  12.522  22.366 -0.1091 -0.0668  0.0110
20527W        W63621  30.351  11.314  26.349 -0.0586  0.0247 -0.0472
20528W        W63622  27.399  11.938  25.249  0.0366 -0.1857 -0.4714
20529W        W63623  26.132  11.512  28.013 -0.1533 -0.0094  0.0059
20530W        W63624  25.486  13.063  26.579  0.0850  0.2939  0.1443
20531W        W63625  30.223  13.078  28.679 -0.0387 -0.4641  0.0981
20532W        W63626  26.546  11.532  26.140 -0.0535 -0.3255 -0.1620
20533W        W63627  28.169  13.190  24.531 -0.3644 -0.0949 -0.0805
20534W        W63628  27.847  14.449  23.803  0.0635 -0.2122 -0.2366
20535W        W63629  26.629  12.498  26.261 -0.0685  0.3072  0.0358
20536W        W63630  26.500  12.907  23.831  0.4156 -0.0597  0.3637
20537W        W63631  27.729  13.509  27.372 -0.0475 -0.1195 -0.3539
20538W        W63632  28.390  14.058  25.190 -0.0203  0.0362 -0.1924
20539W        W63633  27.502  13.149  27.786 -0.2303  0.0027  0.1218
20540W        W63634  26.893  11.985  24.225  0.1016 -0.0195  0.1718
20541W        W63635  29.174  12.463  24.499  0.1649  0.3021 -0.0443
20542W        W63636  27.624  15.378  28.017 -0.1285  0.4668  0.0845
20543W        W63637  29.436  14.334  27.711  0.1225  0.2494 -0.1452
20544W        W63638  27.448  13.384  28.201  0.1099 -0.0963 -0.0903
20545W        W63639  28.882  12.431  25.842  0.1246 -0.0403 -0.1974
20546W        W63640  25.158  10.204  26.656 -0.1094  0.1939 -0.2716
20547W        W63641  26.155  14.034  25.998  0.3087  0.2141  0.0127
20548W        W63642  27.062  14.445  25.336  0.2982 -0.3913  0.2623
20549W        W63643  28.880  12.345  27.411 -0.2547  0.0672 -0.0695
20550W        W63644  26.042  10.464  27.705 -0.0372  0.2680 -0.0099
20551W        W63645  28.155  11.141  25.586  0.0489 -0.0768 -0.0504
20552W        W63646  28.527  13.931  26.931 -0.0269  0.2486  0.0080
20553W        W63647  27.993  13.384  25.572  0.2349 -0.2689 -0.0092
20554W        W63648  27.370  13.432  29.574  0.2218  0.0297  0.0949
20555W        W63649  27.663  11.144  28.223 -0.1037  0.0848 -0.1928
20556W        W63650  28.342  11.944  27.517  0.1858  0.1979 -0.2120
20557W        W63651  27.569  12.196  28.061  0.0286  0.2460  0.0493
20558W        W63652  25.765   9.902  28.093  0.0776  0.1176  0.1788
20559W        W63653  28.860  14.145  28.637  0.1443  0.0854  0.0803
20560W        W63654  26.139  12.016   0.224 -0.2389 -0.1469  0.0972
20561W        W63655  28.028  13.750  31.912 -0.1279  0.2455  0.5454
20562W        W63656  27.719  15.128  29.926  0.0917  0.0703 -0.0477
20563W        W63657  29.099  11.461  27.403 -0.2125  0.1097  0.2552
20564W        W63658  25.499  12.174  29.770 -0.0604 -0.0831 -0.2286
20565W        W63659  27.489  13.681  31.411 -0.0742  0.0918 -0.2917
20566W        W63660  28.113  11.941  26.575 -0.0381 -0.2020  0.1118
20567W        W63661  26.551  11.420  31.065 -0.0978  0.2264 -0.1412
20568W        W63662  28.640  12.563  29.426 -0.0487 -0.1710 -0.0014
20569W        W63663  26.494  11.374  29.512  0.0773 -0.3221  0.2900
20570W        W63664  27.052  11.451  30.981  0.0106 -0.1878 -0.1313
20571W        W63665  27.327  11.962  28.444  0.0617  0.4096  0.0193
20572W        W63666  28.417  15.759  29.826 -0.0909 -0.0583  0.1042
20573W        W63667  27.454  11.304  30.752 -0.0625 -0.1079 -0.0150
20574W        W63668  27.911  10.512  29.735  0.2264  0.1283  0.2719
20575W        W63669  28.223  13.681  28.285  0.1176  0.0458 -0.1003
20576W        W63670  24.488  12.063  27.698  0.1240 -0.0934  0.3170
20577W        W63671  24.760  12.264  29.128 -0.1198  0.3121 -0.0720
20578W        W63672  26.656  11.789  30.700 -0.4052 -0.0491 -0.0961
20579W        W63673  28.878  11.848  28.942  0.2485  0.1963 -0.0886
20580W        W63674  27.770  12.743  30.108  0.1096 -0.1492 -0.0018
20581W        W63675  27.755  13.569  30.478  0.2747  0.1329 -0.1355
20582W        W63676  26.393  14.830  29.156  0.0400 -0.0712  0.0816
20583W        W63677  29.803  11.434  29.867 -0.0734 -0.3250 -0.3203
20584W        W63678  26.611  13.431  28.999 -0.1190  0.2930 -0.1891
20585W        W63679  25.380  13.729  29.031 -0.2554  0.2298 -0.0667
20586W        W63680  28.356  13.280  29.740 -0.1427 -0.4594 -0.1296
20587W        W63681  30.237  12.783  29.878  0.1252  0.0050  0.2434
20588W        W63682  29.508  14.058  31.764 -0.0740  0.1330  0.1461
20589W        W63683  26.261  15.920  30.504  0.0427  0.1173  0.1569
20590W        W63684  26.666  14.258  28.590  0.0366  0.0820 -0.0328
20591W        W63685  27.291  14.883  31.195 -0.2784 -0.1072 -0.1580
20592W        W63686  26.798  13.244  31.220  0.1064  0.1420 -0.1799
20593W        W63687  28.004  13.504  29.512 -0.0247  0.4706  0.3163
20594W        W63688  26.917  14.110  29.333 -0.0769  0.2848  0.0158
20595W        W63689  27.524  15.345  26.556 -0.1749  0.4865  0.1584
20596W        W63690  26.675  13.889  28.926  0.0143 -0.0432  0.0556
20597W        W63691  26.883  14.220  30.793  0.1613  0.1631  0.3434
20598W        W63692  24.786  12.783  30.055 -0.2334  0.1524  0.1086
20599W        W63693  28.083  12.134  29.636 -0.0276  0.0042 -0.0480
20600W        W63694  26.272  15.131  30.194 -0.0947 -0.2000  0.0552
20601W        W63695  28.419  12.545  27.601 -0.2134 -0.2796  0.1486
20602W        W63696  26.893  13.637  27.717  0.1865  0.0668 -0.0690
20603W        W63697  28.546  11.395  28.249 -0.1977 -0.2187  0.0455
20604W        W63698  27.661  10.284  28.423  0.1041  0.0116 -0.0099
20605W        W63699  28.030  14.862  29.589  0.0008 -0.1157  0.1892
20606W        W63700  26.560  10.878  29.069  0.0575 -0.2574  0.0203
20607W        W63701  29.316  13.920  31.272 -0.0055 -0.0456  0.3211
20608W        W63702  27.607  13.165  28.652  0.0047 -0.0574  0.2835
20609W        W63703  27.612  11.693  28.802 -0.1607  0.1835 -0.2115
20610W        W63704  28.000  13.037  30.537  0.3916  0.0917 -0.1595
20611W        W63705  26.191  12.477  29.437  0.0279 -0.0114 -0.0747
20612W        W63706  29.781  13.698  28.637 -0.3261  0.0548  0.1667
20613W        W63707  28.459  13.840  28.690  0.3925 -0.1934  0.0660
20614W        W63708  27.116  13.227  28.871  0.2179 -0.1522  0.0689
20615W        W63709  25.427  11.961  28.139  0.0336  0.1045 -0.2181
20616W        W63710  26.711  13.813   0.003 -0.0514  0.0942  0.0895
20617W        W63711  27.444  10.931  30.439 -0.2153  0.0024  0.1392
20618W        W63712  26.610  11.617  27.075 -0.0838 -0.0816 -0.0267
20619W        W63713  27.998  12.572  31.264  0.0651  0.1624 -0.0903
20620W        W63714  23.966  14.384  30.997  0.1724  0.1718 -0.3586
20621W        W63715  28.074  11.706  29.007 -0.1247 -0.3242  0.1335
20622W        W63716  26.379  13.792  29.361  0.0784  0.0702 -0.0058
20623W        W63717  28.907  13.763  29.004 -0.1285  0.1097  0.2215
20624W        W63718  27.820  14.041  26.824  0.0979  0.0960 -0.0869
20625W        W63719  28.131  10.445  28.603 -0.0184 -0.0453 -0.0027
20626W        W63720  27.657   9.639  29.872  0.2703 -0.0134  0.1679
20627W        W63721  27.016  12.102  27.871 -0.1257 -0.0386 -0.1457
20628W        W63722  28.173  12.004  28.041 -0.0163 -0.0139 -0.0728
20629W        W63723  29.197  14.220  28.167 -0.3535 -0.1769  0.1894
20630W        W63724  29.076  12.594  28.325  0.2121 -0.0448 -0.0171
20631W        W63725  26.817  13.675  30.595 -0.0777  0.3203  0.0060
20632W        W63726  27.478  10.838  29.885  0.0889 -0.0076 -0.1110
20633W        W63727  26.550  14.489   0.286  0.1442 -0.0233 -0.1335
20634W        W63728  27.104  14.816  28.039 -0.0353 -0.1648  0.0425
20635W        W63729  25.573  13.339  29.581 -0.0810  0.0399 -0.1463
20636W        W63730  26.955  13.465  28.188 -0.3167 -0.0343 -0.1659
20637W        W63731  27.464   9.920  30.272  0.2357 -0.0679  0.0110
20638W        W63732  27.663  14.428  29.655  0.1178  0.0423 -0.2704
20639W        W63733  29.205  12.206  28.030  0.1588 -0.2235  0.2960
20640W        W63734  25.579  10.845  31.360 -0.0731  0.1222 -0.0483
20641W        W63735  28.830  10.346  29.726  0.1358 -0.2831 -0.0365
20642W        W63736  24.856  11.766  28.822 -0.0649 -0.1667 -0.0240
20643W        W63737  28.418  14.991  28.067 -0.1888 -0.0107 -0.0578
20644W        W63738  29.146  11.935  27.595  0.1432  0.1624 -0.1599
20645W        W63739  29.603  13.293  27.812  0.1330 -0.1533  0.0262
20646W        W63740  25.707  10.910  30.703 -0.3023  0.1811 -0.2670
20647W        W63741  25.767  10.706  28.728  0.1342  0.0085  0.2589
20648W        W63742  25.236  11.394   0.166 -0.1723 -0.2292  0.0909
20649W        W63743  25.314  10.783  28.931 -0.2681  0.1070  0.3837
20650W        W63744  28.392  12.372  31.717  0.1198  0.1501 -0.0252
20651W        W63745  25.878  11.559  28.636  0.0332  0.0687  0.0602
20652W        W63746  27.852  11.802  29.958  0.0820 -0.3582  0.4686
20653W        W63747  26.349  11.765  29.798 -0.3765 -0.0336 -0.1864
20654W        W63748  25.289  13.074  28.551 -0.1367  0.0348 -0.0692
20655W        W63749  27.502  10.839  31.296 -0.1734  0.0379  0.0513
20656W        W63750  28.333  15.248  29.501  0.0037 -0.0573  0.0677
20657W        W63751  29.081  14.751  30.080 -0.3030  0.2518  0.3394
20658W        W63752  28.530  14.442  27.942  0.0922  0.1028 -0.1968
20659W        W63753  28.232  11.234  30.429 -0.1258 -0.2002 -0.1078
20660W        W63754  25.332  11.790  28.596 -0.1653  0.0182  0.0079
20661W        W63755  27.130  13.862  29.849  0.0725 -0.2987  0.1272
20662W        W63756  24.868  13.888  28.840  0.2085 -0.0664 -0.0671
20663W        W63757  25.919  11.732  29.120 -0.4015 -0.0247  0.2239
20664W        W63758  27.660  13.945  28.879  0.0907  0.0329  0.0793
20665W        W63759  26.703  12.223  29.565 -0.0454 -0.0861 -0.2678
20666W        W63760  24.947  13.289  28.960 -0.0430 -0.0218 -0.1661
20667W        W63761  28.005  11.511  29.464 -0.2560  0.3449 -0.3078
20668W        W63762  28.624  13.702  31.797 -0.1584 -0.1926 -0.1268
20669W        W63763  27.073  12.584  29.133  0.1701 -0.0420 -0.0278
20670W        W63764  25.458  10.693  26.640  0.0352  0.3402  0.3537
20671W        W63765  26.733  15.795  29.823 -0.1372  0.1368  0.0346
20672W        W63766  26.334  13.590  27.682  0.1887  0.2656 -0.0104
20673W        W63767  24.733  13.317  28.447 -0.0157 -0.0073 -0.0854
20674W        W63768  27.060  13.040  29.388  0.0413 -0.1844  0.0764
20675W        W63769  28.506  11.692  29.307 -0.2620 -0.0071  0.0040
20676W        W63770  26.087  12.972   0.515  0.3091 -0.2387  0.1401
20677W        W63771  27.784  13.035  31.449  0.1269  0.0763 -0.1350
20678W        W63772  25.854  11.559  27.553  0.1620  0.2977 -0.0432
20679W        W63773  26.901  12.738  30.002  0.3827  0.1180  0.0764
20680W        W63774  27.511  11.954  30.303 -0.3357  0.0412  0.1351
20681W        W63775  28.825  11.628  27.914  0.2593 -0.1266  0.1432
20682W        W63776  27.926  11.792  31.138 -0.2786  0.1390  0.1127
20683W        W63777  28.536  13.317  28.600 -0.2008  0.0247 -0.3248
20684W        W63778  27.866  12.813  26.346  0.1119  0.4254 -0.0751
20685W        W63779  27.084  11.560  26.003  0.1995 -0.1660  0.2063
20686W        W63780  26.314  15.121  29.664  0.1302  0.1993 -0.1324
20687W        W63781  25.782  12.974  28.828 -0.0922 -0.1778  0.3458
20688W        W63782  26.953  14.118  30.324 -0.5505  0.0444 -0.0268
20689W        W63783  27.384  12.099  26.262  0.1524 -0.0392  0.0061
20690W        W63784  30.030  14.328  28.755  0.0587  0.0691  0.0300
20691W        W63785  25.674  12.699  30.331  0.0451  0.1791 -0.1209
20692W        W63786  28.963  14.075  31.791 -0.0732  0.0378  0.1114
20693W        W63787  27.168  14.402  29.683 -0.0274 -0.1113 -0.4153
20694W        W63788  27.161  11.294  30.219  0.1307  0.2601 -0.1394
20695W        W63789  27.402  12.593  27.830 -0.0915 -0.2869  0.1368
20696W        W63790  28.243  11.039  28.564  0.1033  0.0658  0.0755
20697W        W63791  24.085  15.018  27.581 -0.1861  0.1570  0.1439
20698W        W63792  29.223  11.345  29.430 -0.1306 -0.2515 -0.0501
20699W        W63793  27.261  11.430  28.350 -0.1081  0.0115  0.0095
20700W        W63794  27.056   9.543  30.305  0.2669  0.3292  0.0462
20701W        W63795  27.499  12.175  31.714 -0.1043  0.3221 -0.0354
20702W        W63796  28.339  11.987  28.670  0.0688 -0.3250  0.2276
20703W        W63797  27.196  12.158  29.469  0.0633 -0.0444 -0.2199
20704W        W63798  26.816  11.188  28.107 -0.3282 -0.1803  0.0262
20705W        W63799  27.822  10.790  28.535  0.1244 -0.1614  0.1218
20706W        W63800  24.773  13.093  30.567 -0.1480 -0.1195  0.1964
20707W        W63801  26.546  12.750  31.223  0.2145  0.1308 -0.0065
20708W        W63802  28.487  15.036   0.284 -0.0694 -0.0359 -0.7273
20709W        W63803  27.461  12.948  29.131 -0.1742  0.2280 -0.1378
20710W        W63804  27.874  10.047  31.180 -0.0114  0.1236  0.0311
20711W        W63805  28.032  10.052  26.880  0.0643  0.2087  0.3574
20712W        W63806  27.297  13.920  28.177  0.1201 -0.0318 -0.1781
20713W        W63807  26.773  14.515  28.974 -0.0078  0.2760  0.1312
20714W        W63808  26.365  11.893  29.285 -0.2342  0.0669  0.0117
20715W        W63809  28.017  14.024  29.638 -0.1457  0.2751 -0.0885
20716W        W63810  27.389  13.762  27.631 -0.0826  0.0376 -0.4938
20717W        W63811  28.241  13.714  30.090  0.2598 -0.1164 -0.4186
20718W        W63812  26.462  13.262  29.508 -0.0790 -0.0329  0.1206
20719W        W63813  27.812  10.622  30.222 -0.0004  0.1270  0.1352
20720W        W63814  24.519  13.805  30.126 -0.1344  0.0853 -0.0857
20721W        W63815  27.309  11.147  27.870 -0.3953  0.3088 -0.1201
20722W        W63816  24.694  12.555  29.600  0.0496  0.3359 -0.0985
20723W        W63817  30.029  12.853  29.036  0.0676 -0.0823 -0.2777
20724W        W63818  29.155  12.146  28.565  0.0352  0.1001 -0.1944
20725W        W63819  27.594  10.894  28.957 -0.3777 -0.1544  0.2388
20726W        W63820  27.905  12.216  28.948 -0.3813 -0.2265 -0.4008
20727W        W63821  27.513  13.107  30.441 -0.0919 -0.0559  0.2344
20728W        W63822  26.562  12.284  31.402 -0.1814 -0.2158  0.0184
20729W        W63823  28.066  11.572  28.293  0.0021  0.1314 -0.1280
20730W        W63824  27.784  13.386  31.023  0.1107  0.3951 -0.1036
20731W        W63825  26.996  12.416  31.671  0.0229 -0.1837 -0.2971
20732W        W63826  24.879  10.796  28.650  0.0027  0.0975 -0.1434
20733W        W63827  28.239  12.650  30.807 -0.1716 -0.0994 -0.1336
20734W        W63828  26.859  12.043  29.087 -0.2581  0.4812  0.2089
20735W        W63829  26.018  13.310  29.789  0.4278  0.0342  0.2922
20736W        W63830  28.152  13.955  30.517 -0.0297 -0.1560  0.1458
20737W        W63831  27.054  11.603  27.929  0.0322 -0.2366 -0.0486
20738W        W63832  25.728  12.705  28.378 -0.1589 -0.2911 -0.2938
20739W        W63833  26.717  10.666  31.812  0.0220  0.0073 -0.2782
20740W        W63834  27.266  13.583  30.263  0.1496  0.0583  0.0947
20741W        W63835  27.580  11.338  29.736  0.2434 -0.1195  0.3697
20742W        W63836  26.013  10.435  29.092  0.1320 -0.1133  0.1302
20743W        W63837  27.253  12.635  29.626 -0.0497 -0.2609 -0.1112
20744W        W63838  25.740  13.766  29.782  0.1205  0.0956  0.1828
20745W        W63839  26.874  12.266  30.551 -0.1483  0.0202 -0.1092
20746W        W63840  23.750  13.874  30.893  0.1589  0.0284 -0.1017
20747W        W63841  26.703  10.419  28.729  0.1437  0.2285  0.2209
20748W        W63842  29.735  14.662  29.168 -0.0696 -0.1235  0.4905
20749W        W63843  28.656  13.528  30.430 -0.0572 -0.0697  0.0906
20750W        W63844  26.137  13.618  28.145  0.0840  0.2128 -0.0743
20751W        W63845  26.845  12.788  30.857  0.2179  0.2309  0.3349
20752W        W63846  27.114  13.658  29.079 -0.2382 -0.3068  0.2312
20753W        W63847  27.707  11.917  29.487 -0.0200 -0.1699 -0.3350
20754W        W63848  25.638  11.166  28.853  0.0648 -0.2689  0.3180
20755W        W63849  26.347  12.928  29.154 -0.1435 -0.2528 -0.0813
20756W        W63850  25.093  13.182  29.864 -0.2151  0.0717 -0.0376
20757W        W63851  29.627  11.849  26.456 -0.0626 -0.0790 -0.0950
20758W        W63852  28.346  14.382  28.816 -0.4838 -0.1213 -0.0627
20759W        W63853  27.244  11.680  29.248  0.2881 -0.0232  0.1016
20760W        W63854  28.648  12.828  30.053  0.2891 -0.3811 -0.0813
20761W        W63855  29.203  13.677  28.076 -0.0410 -0.0691 -0.2418
20762W        W63856  27.200   9.808  31.189 -0.3134 -0.1555  0.1509
20763W        W63857  27.091  11.746  30.383  0.3092 -0.0699  0.0758
20764W        W63858  26.816  13.655  29.509 -0.3411  0.0158  0.0606
20765W        W63859  25.044  11.224  30.151  0.2085 -0.1806 -0.1425
20766W        W63860  27.747  15.380  31.872  0.0741  0.4364 -0.0312
20767W        W63861  26.646  11.146   0.372  0.1175 -0.1036  0.0728
20768W        W63862  27.576  11.714  28.097 -0.1065  0.0144  0.0795
20769W        W63863  26.868  11.806  27.516  0.1383  0.3380 -0.3303
20770W        W63864  26.897  13.267  29.771 -0.0825 -0.0246 -0.2303
20771W        W63865  28.158  13.896  29.109  0.1215  0.2326  0.1002
20772W        W63866  26.223  13.174  28.784 -0.0073 -0.0182 -0.0023
20773W        W63867  28.124  11.820  30.379 -0.1018  0.3357 -0.3804
20774W        W63868  25.636  11.804  30.790  0.1517  0.0001 -0.3063
20775W        W63869  28.496  13.544  29.235 -0.0695 -0.1689 -0.0591
20776W        W63870  28.294  14.031  27.807  0.0425 -0.1475 -0.3411
20777W        W63871  26.139  12.989  28.211 -0.1309  0.1244 -0.0936
20778W        W63872  26.832  10.972  30.688  0.1656  0.1650 -0.0195
20779W        W63873  26.085  12.530  28.817  0.0923 -0.0152 -0.2873
20780W        W63874  28.389  12.871  28.245 -0.2763 -0.0404  0.0316
20781W        W63875  26.572  12.466  29.075  0.2617  0.0375 -0.2955
20782W        W63876  27.972  12.573  31.837  0.2881 -0.0209 -0.2633
20783W        W63877  27.356  11.780  30.830  0.3273 -0.0300 -0.1393
20784W        W63878  26.943  12.081  31.195  0.0923  0.1366 -0.0378
20785W        W63879  28.695  13.111  29.413  0.2382  0.0563  0.0318
20786W        W63880  29.856  12.433  27.821  0.1651  0.0001 -0.0446
20787W        W63881  28.096  12.570  29.295  0.4487  0.0695 -0.1646
20788W        W63882  28.357  12.134  29.155  0.1237 -0.0307  0.0457
20789W        W63883  28.786  11.040  28.496 -0.4056  0.0576 -0.1041
20790W        W63884  26.993  12.074  30.004 -0.3879 -0.1734  0.0592
20791W        W63885  27.366  11.824  29.842 -0.0051  0.1679 -0.2633
20792W        W63886  27.887  12.063  26.968  0.3086 -0.2456 -0.0188
20793W        W63887  26.945  11.042  31.293  0.0844 -0.2827 -0.0242
20794W        W63888  27.762  13.791  28.393  0.0645 -0.2286 -0.1294
20795W        W63889  27.703  13.736  29.959  0.0280  0.0490 -0.2184
20796W        W63890  28.020  12.975  27.781 -0.0673 -0.0624 -0.2032
20797W        W63891  25.504  11.261  29.293  0.1260  0.0465  0.0131
20798W        W63892  26.672  14.564  30.463  0.2945 -0.1582  0.2128
20799W        W63893  26.629  12.164  28.265 -0.1994  0.1126 -0.2522
20800W        W63894  26.541  12.675  28.037  0.2770 -0.2257 -0.1233
20801W        W63895  27.755  12.889  29.618  0.0975  0.0578 -0.0263
20802W        W63896  28.451  12.890   0.080  0.0896 -0.0735  0.1397
20803W        W63897  27.722  10.239  27.238  0.1042 -0.1952  0.1064
20804W        W63898  28.600  11.652  30.418 -0.0494  0.1617 -0.0160
20805W        W63899  25.470  14.029  27.688 -0.0693 -0.1007  0.2169
20806W        W63900  27.280  10.901  28.495 -0.1963 -0.1998 -0.1302
20807W        W63901  27.994  15.694  30.730  0.0217  0.1249 -0.1261
20808W        W63902  26.966  13.186  30.296  0.1606  0.3105 -0.1411
20809W        W63903  26.610  12.279  27.606 -0.3375  0.0315 -0.1804
20810W        W63904  27.461  10.340  28.922  0.1505 -0.2229 -0.0422
20811W        W63905  27.632  12.462  29.311 -0.2207  0.0644  0.2988
20812W        W63906  25.923  13.053  29.350  0.1177 -0.2006 -0.2210
20813W        W63907  27.904  12.251  30.242 -0.1631  0.0287  0.2615
20814W        W63908  28.905  13.636  29.477 -0.1060  0.2558  0.2595
20815W        W63909  25.824  12.270  29.177 -0.4098  0.2979 -0.1811
20816W        W63910  27.194  15.331  29.021  0.0764 -0.0574 -0.0601
20817W        W63911  29.155  13.019  28.690 -0.1965 -0.0271  0.1627
20818W        W63912  26.591  12.670  28.518 -0.0599 -0.2251  0.0768
20819W        W63913  25.201  11.472  29.723  0.2072 -0.0816 -0.0637
20820W        W63914  26.477  12.881   0.166 -0.2810  0.1814 -0.0244
20821W        W63915  26.534  13.140  30.124  0.3409  0.0939  0.2346
20822W        W63916  27.101  11.785  27.043  0.1162  0.1320 -0.4116
20823W        W63917  27.725  14.249  27.599 -0.0974 -0.1003 -0.2324
20824W        W63918  26.731  14.776  30.982 -0.4582 -0.3273  0.0096
20825W        W63919  26.185  11.676  30.282 -0.4086 -0.3198  0.2512
20826W        W63920  25.659  14.457  27.552  0.0339  0.1040  0.2095
20827W        W63921  29.501  13.383  28.341 -0.1238  0.4176 -0.1330
20828W        W63922  27.902  14.321  29.207 -0.1115  0.0902  0.0552
20829W        W63923  26.041  14.655  29.479  0.2171  0.1453 -0.0182
20830W        W63924  28.315  14.174  28.313  0.0238 -0.0170 -0.0399
20831W        W63925  25.508  13.438  30.177  0.0958 -0.0951 -0.0376
20832W        W63926  26.423  14.739  28.678 -0.1143 -0.0389 -0.4006
20833W        W63927  29.093  12.847  27.352 -0.2030 -0.3154  0.2107
20834W        W63928  27.145  14.048  28.795  0.1252  0.1855 -0.3560
20835W        W63929  29.524  14.883  30.378 -0.3264 -0.1023 -0.0926
20836W        W63930  28.973  11.262  25.962 -0.3082  0.2402 -0.2120
20837W        W63931  28.270  12.565  28.681 -0.1552 -0.0483  0.2094
20838W        W63932  27.905  11.326  27.312 -0.2527  0.3015 -0.1349
20839W        W63933  28.335  13.224  30.207  0.0398 -0.1339  0.0508
20840W        W63934  26.742  12.901  28.902 -0.2172  0.2768 -0.1694
20841W        W63935  28.693  12.138  27.865 -0.0140 -0.2340 -0.2221
20842W        W63936  27.217  13.663   0.006 -0.2627 -0.2335 -0.2538
20843W        W63937  27.989  11.002  29.918 -0.2975  0.3614 -0.1821
20844W        W63938  26.213  14.963  30.671  0.1140 -0.0741 -0.0367
20845W        W63939  28.033  14.820  27.791  0.0324 -0.0012 -0.2517
20846W        W63940  26.630  12.661  30.434 -0.2371  0.1476  0.1666
20847W        W63941  26.133  12.795  30.319  0.2336  0.3924  0.1506
20848W        W63942  28.098  10.418  30.696 -0.2886 -0.3118  0.1714
20849W        W63943  26.240  11.804  27.397  0.1422 -0.0005 -0.3149
20850W        W63944  27.468  12.139  27.526  0.0132  0.1711 -0.0541
20851W        W63945  27.197  14.414  28.332  0.0536  0.1757  0.1105
20852W        W63946  26.670  12.740  29.503  0.0119  0.2645  0.2289
20853W        W63947  25.922  13.591  29.279 -0.0325 -0.3386 -0.1482
20854W        W63948  25.480  10.811  28.261 -0.1769  0.5401 -0.2976
20855W        W63949  28.624  12.319  30.086  0.0484  0.3120  0.0437
20856W        W63950  27.356  13.044  29.926  0.1090 -0.0982 -0.2700
20857W        W63951  28.315  11.496  30.004  0.1555 -0.0426 -0.1433
20858W        W63952  26.836  11.376  29.146 -0.1298 -0.1280 -0.1356
20859W        W63953  29.103  11.372  28.959 -0.0847 -0.0772 -0.0756
20860W        W63954  27.287  13.106  31.807  0.0744 -0.0133  0.1488
20861W        W63955  25.836  11.396  30.434 -0.0003 -0.1341  0.3048
20862W        W63956  27.226  12.888  27.468  0.0267  0.2661 -0.1284
20863W        W63957  27.681  11.461  30.270 -0.2879  0.3014  0.2867
20864W        W63958  27.043  12.501  28.178  0.0259 -0.0393  0.0433
20865W        W63959  28.593  15.631  30.517  0.0051 -0.1913 -0.2493
20866W        W63960  25.579  11.066  30.180 -0.5032 -0.2231 -0.1200
20867W        W63961  27.990  12.603  28.255  0.0943  0.0229 -0.0713
20868W        W63962  26.242  12.291  27.908 -0.0818  0.0973 -0.1966
20869W        W63963  27.183  12.799  30.509  0.0058  0.2123  0.0500
20870W        W63964  28.644  13.986  30.464 -0.0155 -0.0674  0.1682
20871W        W63965  26.526  10.886  30.226 -0.0093  0.0407 -0.1783
20872W        W63966  30.087  13.170  27.690  0.1106  0.0948 -0.1166
20873W        W63967  28.907  12.121  30.416  0.0483 -0.0449 -0.0898
20874W        W63968  26.350  13.552  26.817  0.2924 -0.0386  0.0527
20875W        W63969  29.092  12.590  30.202 -0.4057 -0.0065  0.1042
20876W        W63970  26.991  15.385  28.532 -0.1434 -0.0174  0.1562
20877W        W63971  26.874  11.779  29.532 -0.1188 -0.0838  0.1063
20878W        W63972  26.518  15.177  31.623 -0.0555  0.0071  0.2149
20879W        W63973  28.449  13.839  29.594  0.1367  0.1850 -0.3485
20880W        W63974  29.173  10.625  28.562  0.0109 -0.3344 -0.0933
20881W        W63975  25.706  12.558  29.537 -0.0193  0.1528 -0.0255
20882W        W63976  26.035  12.009  28.302 -0.1436 -0.1136  0.0350
20883W        W63977  29.754  11.354  28.646 -0.0770  0.1077  0.0182
20884W        W63978  27.691  11.371  29.149  0.1000  0.1841 -0.2954
20885W        W63979  27.845  14.256  28.110 -0.3081 -0.0730  0.0195
20886W        W63980  30.055  11.385  28.968  0.1401 -0.0035  0.1879
20887W        W63981  26.442  14.716  29.949  0.2615  0.0105  0.0537
20888W        W63982  25.635  13.633  31.456 -0.1800  0.0159 -0.1334
20889W        W63983  26.187  12.493  28.363 -0.0679  0.0413  0.0658
20890W        W63984  27.379  13.604  30.779  0.1992 -0.3018  0.3360
20891W        W63985  26.598  11.983  30.257  0.0296  0.0496 -0.1022
20892W        W63986  26.634  13.244  28.510 -0.2869  0.1957 -0.0048
20893W        W63987  28.757  11.804  28.421 -0.3268 -0.0214 -0.2641
20894W        W63988  27.387  11.641  27.538 -0.1911  0.3012 -0.0967
20895W        W63989  28.578  14.060  29.173  0.2669  0.1375  0.1108
20896W        W63990  27.308  12.429  30.176  0.0192 -0.1256  0.0110
20897W        W63991  30.916  11.534  27.850 -0.1428 -0.0264 -0.2449
20898W        W63992  27.838  11.274  28.667 -0.1439  0.0342  0.0635
20899W        W63993  26.353  13.536  30.405  0.2030 -0.0480 -0.0759
20900W        W63994  24.550  13.165  26.357  0.1779  0.0790 -0.2693
20901W        W63995  26.050  14.051  28.515  0.0096 -0.2704  0.3360
20902W        W63996  26.748  13.597  30.128 -0.0136  0.4172  0.0921
20903W        W63997  27.270   9.471  31.913  0.0988  0.2144  0.2011
20904W        W63998  26.217  11.561   0.591 -0.1440 -0.2026  0.0418
20905W        W63999  26.169  12.859  29.788 -0.1808 -0.1060 -0.1798
20906W        W64000  25.785  11.979  30.282  0.0793 -0.1069 -0.0731
20907W        W64001  27.933  13.507  28.838  0.0767 -0.1318  0.2273
20908W        W64002  26.846  11.113  28.672  0.1015  0.0667  0.3443
20909W        W64003  25.866   9.973  29.192 -0.1458 -0.3182  0.3689
20910W        W64004  29.248  14.474  28.609  0.1647  0.0640 -0.0938
20911W        W64005  28.198  12.733  29.814 -0.1338  0.1377 -0.1476
20912W        W64006  27.349  12.110  28.986  0.1280 -0.4356 -0.1053
20913W        W64007  27.496  12.921  31.024 -0.0520  0.2372  0.1009
20914W        W64008  27.095  13.018  28.077  0.1445 -0.1490  0.1071
20915W        W64009  27.642  12.370  29.804 -0.2351 -0.2261  0.0224
20916W        W64010  27.125  10.621  30.971  0.0358 -0.2730 -0.0909
20917W        W64011  25.433  11.892  27.620  0.3759 -0.1730  0.0737
20918W        W64012  26.804  11.615  30.019 -0.1205 -0.2932  0.2464
20919W        W64013  28.962  13.594  28.564 -0.0082  0.1614 -0.0002
20920W        W64014  27.883  14.316  28.635 -0.1638  0.2048 -0.1738
20921W        W64015  26.962  13.485  31.595 -0.1184  0.0920 -0.2270
20922W        W64016  27.183  15.385  31.901  0.1763  0.1438 -0.1677
20923W        W64017  26.122  12.220  31.599  0.1333  0.0415 -0.1986
20924W        W64018  28.233  13.484  27.605 -0.1514 -0.3825 -0.0802
20925W        W64019  29.002  13.611  31.483  0.0155 -0.1405  0.0972
20926W        W64020  29.326  12.799  27.898 -0.1495  0.3115 -0.1290
20927W        W64021  29.599  10.899  28.344  0.2407  0.0375  0.0624
20928W        W64022  27.671  12.659  28.653 -0.0904  0.0834  0.0090
20929W        W64023  25.724  12.488  31.430 -0.0239 -0.0135  0.0386
20930W        W64024  27.376  12.636  31.913  0.1861  0.1436 -0.1878
20931W        W64025  28.829  14.471  30.668 -0.0337  0.1624 -0.0839
20932W        W64026  26.205  11.326  29.038 -0.0490  0.1703 -0.2301
20933W        W64027  28.065  10.611  28.082  0.0338  0.0438  0.1592
20934W        W64028  27.356  14.394  29.123 -0.1665  0.2611  0.0815
20935W        W64029  25.969  12.402  29.985  0.1484  0.0631 -0.0042
20936W        W64030  28.750  12.777  28.630 -0.1871  0.2038 -0.0270
20937W        W64031  27.535  12.898   0.332 -0.0424  0.1406  0.1925
20938W        W64032  27.998  13.129  29.183 -0.1310 -0.2548  0.0368
20939W        W64033  28.387  12.217  31.151 -0.2720 -0.2288 -0.6108
20940W        W64034  26.799  10.940  27.656  0.0559 -0.1925  0.1152
20941W        W64035  28.661  12.322  28.320 -0.1268 -0.1486  0.3375
20942W        W64036  27.758  13.954  30.964  0.2613 -0.0409 -0.0224
20943W        W64037  28.711  14.600  29.695  0.1928  0.0964 -0.0458
20944W        W64038  26.469  14.394  29.432  0.0239 -0.2836  0.0335
20945W        W64039  28.742  13.782  30.005  0.0616  0.0109  0.4064
20946W        W64040  26.616   9.744  30.551  0.1451 -0.0539  0.1174
20947W        W64041  26.403  12.142  28.728 -0.1938 -0.1124 -0.1843
20948W        W64042  25.475  13.108  29.147 -0.0139 -0.4693 -0.2582
20949W        W64043  27.756  12.616  30.690 -0.0813  0.2766  0.3134
20950W        W64044  26.598  11.373  30.364 -0.1513 -0.0571  0.2253
20951W        W64045  28.427  11.334  26.675  0.2059  0.0521  0.2726
20952W        W64046  26.823  15.595  31.656 -0.5218 -0.1769  0.0758
20953W        W64047  27.208  12.466  30.941  0.2725 -0.1192 -0.3043
20954W        W64048  27.868  12.111  28.455  0.1411 -0.0642  0.2599
20955W        W64049  28.759  12.618  30.567 -0.0750  0.1663 -0.2487
20956W        W64050  26.564  12.357  30.904 -0.2045  0.0068 -0.0844
20957W        W64051  26.004  14.104  29.337 -0.2688  0.1286 -0.2086
20958W        W64052  28.274  13.410   0.248  0.0877  0.2968 -0.0592
20959W        W64053  24.741  13.888  30.605  0.0517  0.1061 -0.0437
20960W        W64054  28.341  11.719  31.419  0.1821  0.0787 -0.1064
20961W        W64055  26.609  11.513  31.525  0.2999  0.3141  0.1148
20962W        W64056  28.708  11.965   0.027 -0.3175  0.2633 -0.1199
20963W        W64057  28.335  13.893  31.014  0.0945  0.4168 -0.0973
20964W        W64058  30.708  13.594   0.604  0.2694 -0.3481 -0.1355
20965W        W64059  26.217  11.111  30.568 -0.3040  0.2603  0.3353
20966W        W64060  29.296  11.506  31.008 -0.2637  0.2827 -0.1277
20967W        W64061  26.613  12.295   0.037 -0.2121 -0.0848 -0.1652
20968W        W64062  27.614  11.430  31.219  0.3029  0.3895  0.1679
20969W        W64063  25.107  13.665  31.261 -0.0933  0.3013  0.0472
20970W        W64064  26.648  13.631   1.233 -0.2631  0.3252 -0.0586
20971W        W64065  27.935  14.273  30.125  0.3456  0.0405  0.0002
20972W        W64066  26.393   9.777  31.650  0.1231  0.0256 -0.1799
20973W        W64067  27.435  11.330  31.750 -0.2229  0.2950  0.0320
20974W        W64068  25.548  11.951  31.504  0.2879  0.3945  0.1353
20975W        W64069  24.598  13.891  31.428  0.1815  0.6486  0.0546
20976W        W64070  28.099  11.624   0.715  0.2929  0.1221 -0.1649
20977W        W64071  27.648  10.519  30.793  0.0377 -0.1326  0.0696
20978W        W64072  28.457   9.503   0.113 -0.1747 -0.2109  0.0122
20979W        W64073  28.286  11.644   0.045 -0.0663 -0.0357 -0.0804
20980W        W64074  25.257  11.513   1.086 -0.0868  0.3545  0.3112
20981W        W64075  25.067  15.297  30.501 -0.2058 -0.3910  0.0441
20982W        W64076  26.925  11.590  31.970 -0.0789  0.2044  0.0654
20983W        W64077  26.038  13.758  31.738 -0.1972 -0.0253 -0.0200
20984W        W64078  27.772  14.688  31.348 -0.2201 -0.1269 -0.3446
20985W        W64079  25.536  12.945  31.773  0.2958 -0.3063  0.0002
20986W        W64080  30.841  13.731   0.084 -0.1882 -0.0851  0.1414
20987W        W64081  26.758  13.273   0.101  0.2728  0.0685 -0.0229
20988W        W64082  24.700  12.217   2.385  0.2548  0.1346  0.0373
20989W        W64083  26.872  12.863  31.862  0.0372 -0.2429 -0.2124
20990W        W64084  25.010  12.239  29.849  0.1546  0.0120 -0.0940
20991W        W64085  27.582  13.466  29.134  0.1601 -0.3159 -0.1019
20992W        W64086  27.369  13.226  31.352 -0.1272  0.2145 -0.0710
20993W        W64087  26.328  12.349   0.548 -0.1175  0.1917 -0.1580
20994W        W64088  27.959  10.073  30.298  0.0373 -0.2898  0.1970
20995W        W64089  27.443  12.106  31.177 -0.0792 -0.1104 -0.1198
20996W        W64090  27.048  11.215   1.311  0.0772  0.2206 -0.1708
20997W        W64091  28.424  14.197  30.045 -0.1603  0.0040 -0.1437
20998W        W64092  24.759  11.154  30.708 -0.0075 -0.1685 -0.1324
20999W        W64093  28.308  12.865  31.595 -0.2621 -0.0111  0.0774
21000W        W64094  27.072  10.550  31.472  0.2195 -0.3133 -0.1749
21001W        W64095  27.766  14.206  31.526 -0.0173  0.0848  0.0487
21002W        W64096  29.860  13.672  31.327  0.0634 -0.1950  0.0687
21003W        W64097  24.376  12.987  30.325 -0.3932  0.0067  0.2910
21004W        W64098  28.108  13.763  31.391  0.2054  0.0591 -0.1090
21005W        W64099  28.757  11.196  31.366  0.1423  0.0236  0.0729
21006W        W64100  27.674   8.547   0.125 -0.1248  0.2445 -0.3022
21007W        W64101  28.671  14.602  31.753  0.0176  0.2526 -0.0616
21008W        W64102  28.140  12.167   0.099  0.1343  0.4701 -0.0614
21009W        W64103  27.473  12.577  31.395  0.1720  0.0797  0.1125
21010W        W64104  29.789  13.711   0.434  0.0681 -0.0680  0.1375
21011W        W64105  27.315  14.064  31.162  0.0277 -0.2114 -0.0709
21012W        W64106  26.061  13.812  31.256  0.2171 -0.1730  0.3243
21013W        W64107  27.120  10.395  31.966  0.2914 -0.0771  0.0460
21014W        W64108  27.887  13.221  29.957 -0.2254  0.0177 -0.2398
21015W        W64109  27.664  13.407   0.316  0.2175  0.3792 -0.1988
21016W        W64110  24.199  12.507  30.431  0.2673  0.0228  0.3055
21017W        W64111  27.066  10.924   0.717  0.2196 -0.1291  0.2953
21018W        W64112  27.897  16.031  31.705 -0.1362  0.0430 -0.0680
21019W        W64113  30.311  14.681  30.606  0.2373 -0.0823 -0.2318
21020W        W64114  28.271  11.230  31.704 -0.1401  0.0759  0.3300
21021W        W64115  28.153  17.522  18.240 -0.1766 -0.6097 -0.0198
21022W        W64116  25.452  14.956  16.135 -0.1413 -0.3472  0.1593
21023W        W64117  28.409  14.899  16.739 -0.0939 -0.3510 -0.0135
21024W        W64118  28.740  16.025  17.745 -0.0906  0.2986  0.0347
21025W        W64119  25.294  15.985  17.823 -0.1906  0.2629  0.0899
21026W        W64120  27.031  17.169  17.320  0.2022  0.3074  0.4134
21027W        W64121  26.812  15.452  18.765 -0.3718 -0.6071 -0.0721
21028W        W64122  28.135  18.473  18.727 -0.1972  0.0833 -0.1646
21029W        W64123  28.283  18.458  20.415 -0.1443  0.1931 -0.2063
21030W        W64124  27.602  16.346  16.428 -0.3130  0.2403 -0.2309
21031W        W64125  27.466  15.491  19.595 -0.0412  0.2656  0.1425
21032W        W64126  26.749  18.350  18.143 -0.0588 -0.1281 -0.1173
21033W        W64127  27.690  14.745  17.925  0.1014 -0.0924  0.0639
21034W        W64128  25.515  14.888  19.892 -0.1330 -0.1856 -0.3014
21035W        W64129  27.402  15.877  19.281 -0.3350 -0.0522 -0.1141
21036W        W64130  25.928  16.043  17.066  0.3049 -0.0744 -0.0321
21037W        W64131  27.728  16.333  19.999  0.3497  0.2844  0.0635
21038W        W64132  26.055  16.297  17.660 -0.2321  0.1052 -0.0447
21039W        W64133  27.474  19.597  18.170  0.1770 -0.2875 -0.1418
21040W        W64134  27.756  15.410  19.172 -0.0082  0.1542 -0.2770
21041W        W64135  27.122  17.491  19.991 -0.2015  0.1017 -0.0152
21042W        W64136  26.959  18.161  16.821 -0.1997 -0.1701 -0.0106
21043W        W64137  25.681  14.443  16.175  0.2055 -0.0432  0.4104
21044W        W64138  25.518  15.728  18.204  0.0770 -0.1160  0.1337
21045W        W64139  27.580  15.195  18.668 -0.1245  0.0134 -0.2266
21046W        W64140  29.006  15.393  19.194 -0.0234  0.1685  0.1771
21047W        W64141  27.662  16.903  18.172 -0.2458  0.1268 -0.0064
21048W        W64142  26.538  17.978  18.474  0.0595 -0.0720  0.1944
21049W        W64143  27.666  17.435  18.188 -0.2651  0.0475 -0.0498
21050W        W64144  27.696  16.452  20.490  0.1437 -0.2337  0.2833
21051W        W64145  26.304  15.589  17.280 -0.0399  0.0106 -0.0893
21052W        W64146  27.250  18.539  18.123  0.5407  0.1835 -0.1225
21053W        W64147  26.603  16.098  17.922  0.1669 -0.0201 -0.0116
21054W        W64148  28.841  16.803  18.716 -0.0711 -0.0771 -0.1706
21055W        W64149  27.876  17.331  19.860  0.0048 -0.0512 -0.2001
21056W        W64150  25.769  19.276  17.979 -0.1511  0.1503 -0.1339
21057W        W64151  26.630  18.313  17.180  0.1119  0.0531 -0.1233
21058W        W64152  27.831  18.032  21.139 -0.3246 -0.5680  0.1222
21059W        W64153  26.230  17.543  18.685 -0.0564 -0.2328  0.1966
21060W        W64154  28.340  15.991  19.483 -0.0188  0.0511 -0.1354
21061W        W64155  28.095  16.313  17.202 -0.1336 -0.1083  0.2412
21062W        W64156  27.254  17.438  16.060  0.0335  0.0508  0.0128
21063W        W64157  27.834  15.576  18.371  0.0779  0.0002 -0.2028
21064W        W64158  27.151  17.942  19.840 -0.1744  0.1845 -0.1706
21065W        W64159  26.306  17.908  16.976 -0.0536  0.0585 -0.0623
21066W        W64160  28.942  14.784  19.266 -0.1044 -0.0297 -0.1347
21067W        W64161  27.177  16.250  17.750  0.0747 -0.2481  0.3234
21068W        W64162  27.484  15.982  18.055  0.0681  0.0610 -0.2655
21069W        W64163  26.171  14.960  15.480 -0.0479 -0.0056 -0.0050
21070W        W64164  28.099  15.286  16.809 -0.1026 -0.0269 -0.0705
21071W        W64165  27.071  13.955  18.130 -0.3820  0.1509 -0.1442
21072W        W64166  26.796  19.245  16.582 -0.2418 -0.3318 -0.1379
21073W        W64167  27.522  14.763  18.403  0.0131 -0.0280  0.1647
21074W        W64168  28.212  16.645  20.156  0.0834 -0.2538  0.1377
21075W        W64169  26.448  14.503  17.748  0.0762  0.0886  0.0122
21076W        W64170  27.206  17.417  20.674 -0.2202  0.0560  0.2797
21077W        W64171  26.828  17.877  17.973 -0.0118  0.1958 -0.0545
21078W        W64172  25.581  16.128  17.447 -0.1700  0.0884 -0.0121
21079W        W64173  28.308  17.598  16.538  0.2046  0.0824 -0.3101
21080W        W64174  28.832  17.691  17.669  0.0560 -0.2798  0.2402
21081W        W64175  26.907  16.425  16.279 -0.1531 -0.3655 -0.1470
21082W        W64176  26.276  15.828  16.760  0.3110 -0.2670  0.2047
21083W        W64177  26.510  16.547  17.900 -0.2265 -0.2105 -0.0086
21084W        W64178  26.968  16.568  20.111  0.0947  0.0673  0.1811
21085W        W64179  25.858  13.972  15.212  0.1963  0.1498  0.0217
21086W        W64180  28.552  17.997  19.792 -0.0666  0.0238  0.0008
21087W        W64181  26.062  16.464  18.383 -0.2881 -0.1592  0.0044
21088W        W64182  29.650  16.127  16.707  0.0889  0.0011  0.3353
21089W        W64183  28.467  17.590  17.263  0.0718 -0.0055 -0.0193
21090W        W64184  27.018  19.605  17.274 -0.0379  0.1377  0.1938
21091W        W64185  27.834  16.667  16.129 -0.3463  0.2182  0.1577
21092W        W64186  28.557  15.783  18.774  0.1976  0.0361  0.0026
21093W        W64187  29.342  14.220  19.953 -0.3003 -0.1478  0.1458
21094W        W64188  25.855  16.214  16.071 -0.1739 -0.1565  0.3097
21095W        W64189  26.540  15.728  16.244 -0.2948 -0.3888  0.0749
21096W        W64190  29.904  18.190  20.593 -0.1496  0.0251 -0.1743
21097W        W64191  26.829  16.576  17.393 -0.1398  0.0167 -0.0413
21098W        W64192  25.604  17.467  17.454  0.1518  0.2777 -0.1043
21099W        W64193  26.960  16.939  19.828 -0.1986 -0.0861 -0.4296
21100W        W64194  27.725  17.459  21.236  0.0260  0.0996  0.1732
21101W        W64195  26.365  18.135  15.694  0.0413 -0.2671 -0.2978
21102W        W64196  25.393  16.920  17.358  0.0388 -0.3031 -0.0968
21103W        W64197  25.216  17.223  15.494 -0.3146  0.1667 -0.2340
21104W        W64198  25.750  14.994  17.989  0.1832 -0.2809  0.3417
21105W        W64199  27.414  18.079  18.285  0.0690  0.0919 -0.2637
21106W        W64200  28.681  15.466  17.146 -0.0671  0.0057 -0.0204
21107W        W64201  27.232  16.106  19.744  0.1317  0.2777  0.1582
21108W        W64202  28.889  12.887  16.728 -0.4653 -0.0564  0.0724
21109W        W64203  26.736  16.606  16.894 -0.0192  0.1107  0.2488
21110W        W64204  29.396  17.457  17.260 -0.0952 -0.2473 -0.1565
21111W        W64205  28.734  15.940  17.265 -0.1677 -0.1178  0.0779
21112W        W64206  29.057  16.993  17.006 -0.2747  0.3057 -0.2769
21113W        W64207  27.532  16.905  19.270  0.2643 -0.0110  0.2708
21114W        W64208  26.715  15.492  16.655 -0.2099  0.1064  0.0510
21115W        W64209  25.554  15.743  22.957 -0.0681  0.2646 -0.0611
21116W        W64210  26.443  15.065  20.678  0.0596  0.0052  0.1410
21117W        W64211  29.935  16.155  18.508  0.0627  0.1941 -0.2820
21118W        W64212  25.807  14.359  16.816 -0.0062  0.0722 -0.2999
21119W        W64213  26.997  16.886  19.075  0.3729  0.0384  0.1389
21120W        W64214  25.600  15.428  17.825 -0.2678  0.3392 -0.2727
21121W        W64215  25.085  17.186  15.019 -0.0261  0.1551 -0.1699
21122W        W64216  28.788  16.360  21.051  0.1565  0.2442  0.0050
21123W        W64217  25.909  18.335  15.769 -0.0172 -0.0819  0.1114
21124W        W64218  28.958  17.761  20.027  0.5168 -0.3465 -0.0825
21125W        W64219  29.128  17.280  18.271  0.2425 -0.0089 -0.1491
21126W        W64220  27.017  16.424  18.844  0.1989 -0.0262  0.2705
21127W        W64221  26.128  15.448  15.421 -0.2053 -0.1482  0.1234
21128W        W64222  26.917  18.357  19.022 -0.0171 -0.0033 -0.0688
21129W        W64223  27.500  17.358  17.338 -0.0791 -0.0466  0.2845
21130W        W64224  24.394  15.264  15.475 -0.1484  0.2220  0.1010
21131W        W64225  27.560  17.658  19.970 -0.0554 -0.1347 -0.0471
21132W        W64226  26.779  15.280  16.063  0.2513  0.1164 -0.0695
21133W        W64227  26.354  18.727  18.253 -0.2703  0.3008 -0.0926
21134W        W64228  28.655  16.125  19.123  0.0886  0.2670 -0.0513
21135W        W64229  28.444  16.554  19.336  0.2771 -0.1799  0.0946
21136W        W64230  28.241  15.866  18.393  0.0394 -0.0410  0.3922
21137W        W64231  27.224  15.214  15.846 -0.2600 -0.0432 -0.1788
21138W        W64232  28.079  16.676  16.720  0.2972  0.1220 -0.1167
21139W        W64233  26.303  18.354  16.162 -0.1449 -0.2755  0.0383
21140W        W64234  25.287  16.430  17.103 -0.2441 -0.1661  0.0925
21141W        W64235  26.368  16.745  17.345  0.1224 -0.1055  0.2049
21142W        W64236  28.600  15.565  17.597 -0.0094 -0.1842 -0.0014
21143W        W64237  25.724  18.389  18.962  0.0343  0.0196  0.0197
21144W        W64238  27.612  16.024  21.138 -0.1115  0.2215 -0.1329
21145W        W64239  26.029  15.431  16.896  0.0477  0.0334 -0.1233
21146W        W64240  26.669  17.831  18.957 -0.1074  0.0007  0.0017
21147W        W64241  27.909  14.413  18.220 -0.0997  0.0292  0.1150
21148W        W64242  28.359  15.116  16.225  0.2801 -0.2075 -0.0527
21149W        W64243  26.208  17.306  21.088  0.3605  0.3422  0.2543
21150W        W64244  28.983  16.617  16.501 -0.0171 -0.1756 -0.3661
21151W        W64245  28.311  15.857  17.046  0.1095 -0.2711  0.0504
21152W        W64246  27.109  15.069  16.545 -0.3054  0.0242  0.1920
21153W        W64247  26.442  18.472  17.654  0.3045  0.1907 -0.3642
21154W        W64248  28.011  17.416  17.240  0.0160 -0.2734  0.2670
21155W        W64249  28.176  18.427  17.838  0.0613  0.0842 -0.2819
21156W        W64250  26.958  15.974  16.903 -0.1189 -0.1312 -0.0011
21157W        W64251  29.693  17.720  17.724 -0.0639 -0.0424 -0.2635
21158W        W64252  26.489  16.975  16.388  0.3252 -0.4324 -0.0808
21159W        W64253  28.983  16.127  20.544  0.0362  0.0823  0.0067
21160W        W64254  27.744  18.776  18.906 -0.0021 -0.0464 -0.1207
21161W        W64255  27.229  14.592  19.123  0.3269  0.2487  0.0199
21162W        W64256  26.489  16.219  17.156 -0.1006  0.1955  0.2717
21163W        W64257  27.305  14.721  19.688 -0.2998 -0.2309  0.2728
21164W        W64258  24.190  17.026  14.998 -0.1524 -0.0042 -0.2430
21165W        W64259  28.168  16.159  18.789 -0.1132 -0.1049  0.3236
21166W        W64260  28.715  13.962  19.162 -0.2058 -0.1002  0.0773
21167W        W64261  26.684  15.378  20.396  0.1284 -0.2781  0.0866
21168W        W64262  28.651  16.330  21.894  0.1842 -0.1368 -0.1010
21169W        W64263  27.011  15.774  17.930 -0.0579 -0.3044 -0.1502
21170W        W64264  27.167  16.327  19.275 -0.1515  0.1364 -0.0750
21171W        W64265  27.282  15.842  17.271  0.0004 -0.2643  0.0788
21172W        W64266  27.399  15.261  20.081 -0.2875 -0.0982 -0.1046
21173W        W64267  27.937  16.629  19.209 -0.1334 -0.0050  0.1267
21174W        W64268  26.239  18.329  18.840  0.0152  0.2356 -0.2728
21175W        W64269  27.442  16.535  18.505 -0.0331  0.4002 -0.0293
21176W        W64270  28.168  16.873  17.373 -0.1852 -0.0059 -0.0983
21177W        W64271  27.082  15.185  19.551  0.2170  0.3530 -0.1881
21178W        W64272  26.127  14.500  16.335 -0.2598 -0.2467  0.1617
21179W        W64273  26.946  18.907  18.216  0.1946 -0.0877  0.2405
21180W        W64274  27.203  15.426  17.618 -0.1064 -0.0294 -0.0524
21181W        W64275  27.098  13.463  18.010 -0.1484 -0.1643 -0.2770
21182W        W64276  26.380  17.501  16.707 -0.0880  0.1012 -0.1713
21183W        W64277  27.326  16.727  16.206  0.1544  0.0297  0.1119
21184W        W64278  27.903  15.850  19.209 -0.0574 -0.2088 -0.1797
21185W        W64279  27.592  16.882  16.621  0.0022 -0.2181 -0.1093
21186W        W64280  28.262  15.320  18.366 -0.1533  0.1446 -0.2499
21187W        W64281  25.895  16.553  17.279  0.0099  0.3255 -0.2924
21188W        W64282  26.541  16.238  16.640  0.0890 -0.0593 -0.1997
21189W        W64283  25.916  17.063  17.466 -0.0912  0.0138  0.0269
21190W        W64284  28.719  13.557  18.786  0.1030 -0.0841 -0.0043
21191W        W64285  29.318  17.023  17.413  0.1597  0.3798 -0.0900
21192W        W64286  27.627  16.228  18.964  0.1933  0.2392 -0.2656
21193W        W64287  27.504  15.797  20.092  0.1247  0.1457 -0.3590
21194W        W64288  25.126  17.555  18.580  0.2532 -0.0682  0.2903
21195W        W64289  27.835  15.885  17.238  0.1701  0.3342 -0.1784
21196W        W64290  28.437  15.092  17.252  0.0018 -0.2101 -0.2879
21197W        W64291  28.000  17.618  19.081  0.1230 -0.0173  0.0009
21198W        W64292  27.372  17.144  18.550  0.0483 -0.3594 -0.0612
21199W        W64293  25.155  15.387  16.157 -0.1955  0.2055  0.0415
21200W        W64294  29.038  15.778  18.861 -0.3241  0.0759  0.1508
21201W        W64295  26.789  15.368  17.944  0.0312  0.1604 -0.1646
21202W        W64296  26.806  17.729  17.106 -0.0260  0.0479 -0.1581
21203W        W64297  27.532  18.721  20.023 -0.2276 -0.0190 -0.0252
21204W        W64298  25.347  16.903  15.964  0.2246 -0.2127  0.1826
21205W        W64299  27.061  16.927  16.567  0.0671  0.1150 -0.0026
21206W        W64300  25.968  15.106  20.651 -0.1022 -0.2688 -0.0139
21207W        W64301  27.681  16.480  17.012 -0.1937  0.1107 -0.0814
21208W        W64302  27.275  15.992  18.547 -0.0156 -0.2346 -0.0366
21209W        W64303  26.493  15.009  16.426  0.0434 -0.0759 -0.1861
21210W        W64304  27.478  14.633  17.455 -0.3038 -0.2762 -0.1994
21211W        W64305  27.517  16.455  17.986 -0.2525  0.4001 -0.1016
21212W        W64306  26.066  16.012  21.977  0.1079  0.0296  0.1769
21213W        W64307  26.712  17.849  19.477  0.2989 -0.1151 -0.1918
21214W        W64308  26.633  15.377  19.498  0.1907 -0.0817 -0.0190
21215W        W64309  28.734  18.116  17.896  0.1298  0.0139  0.0341
21216W        W64310  27.292  16.685  20.543 -0.1170 -0.3563 -0.1317
21217W        W64311  25.882  14.945  16.562 -0.0108 -0.0133  0.0927
21218W        W64312  25.740  16.178  18.103  0.0780 -0.1167 -0.1403
21219W        W64313  26.805  15.953  17.426 -0.0487 -0.4729  0.0817
21220W        W64314  27.037  16.687  17.946  0.3543 -0.0878 -0.1621
21221W        W64315  28.038  18.253  19.959  0.0061 -0.0193  0.0096
21222W        W64316  26.031  17.035  16.519  0.0102  0.2591 -0.1433
21223W        W64317  25.925  17.538  16.837  0.2308  0.2137  0.1301
21224W        W64318  28.745  13.676  16.837 -0.1334  0.3642 -0.1034
21225W        W64319  26.832  16.868  16.052 -0.1955  0.0677  0.1920
21226W        W64320  26.801  15.069  18.424 -0.0938  0.0137  0.0583
21227W        W64321  29.377  13.967  18.229 -0.2551  0.1456  0.0154
21228W        W64322  28.149  16.229  16.390 -0.1065 -0.0771 -0.0960
21229W        W64323  28.634  13.989  19.709  0.1361  0.0972  0.0866
21230W        W64324  26.768  14.490  19.282  0.2350 -0.2592 -0.0313
21231W        W64325  28.404  17.276  17.725 -0.1346 -0.2016 -0.2377
21232W        W64326  27.414  17.824  20.428 -0.0514  0.3099  0.2546
21233W        W64327  28.292  18.703  19.170  0.0308  0.0457 -0.3888
21234W        W64328  26.545  16.769  19.889 -0.1701 -0.1029 -0.0366
21235W        W64329  27.041  14.874  17.589 -0.3525  0.4737  0.2688
21236W        W64330  26.626  14.409  18.196  0.1117 -0.0459  0.0237
21237W        W64331  26.108  17.641  17.462 -0.1790  0.0092 -0.0004
21238W        W64332  29.273  18.976  18.746  0.1251 -0.2044 -0.3423
21239W        W64333  28.372  17.136  16.821 -0.3185 -0.0548 -0.0844
21240W        W64334  29.309  14.910  16.618 -0.0228 -0.2260  0.2142
21241W        W64335  27.795  16.121  18.499  0.0557  0.0920 -0.1395
21242W        W64336  27.978  16.544  18.345 -0.2615  0.2939 -0.1241
21243W        W64337  27.396  15.997  15.629 -0.0890 -0.4331 -0.0710
21244W        W64338  27.325  19.001  16.651 -0.1765  0.3071  0.1017
21245W        W64339  26.192  15.682  19.478  0.0176 -0.0308 -0.0953
21246W        W64340  26.707  17.189  16.887 -0.3551  0.2878 -0.3735
21247W        W64341  27.682  15.230  18.009  0.3054 -0.0428  0.0825
21248W        W64342  27.903  15.506  20.253  0.2165 -0.0807 -0.1573
21249W        W64343  29.128  15.470  20.289  0.2762  0.1081 -0.0217
21250W        W64344  26.729  17.337  19.645  0.0707 -0.0652 -0.1581
21251W        W64345  25.847  15.317  19.860 -0.1952  0.3555 -0.1218
21252W        W64346  28.805  17.268  18.834  0.0989  0.0487  0.0164
21253W        W64347  29.095  15.397  16.860  0.4880  0.0951  0.1199
21254W        W64348  29.611  15.479  20.578 -0.1625 -0.1034 -0.2038
21255W        W64349  28.258  14.507  17.127 -0.2941  0.0836 -0.0852
21256W        W64350  28.012  15.656  15.868  0.0523  0.0619 -0.2256
21257W        W64351  26.256  14.892  17.980  0.1369 -0.1698 -0.2298
21258W        W64352  28.703  16.240  20.170  0.0903 -0.3040  0.0123
21259W        W64353  27.162  15.468  16.782 -0.0233 -0.0186  0.0425
21260W        W64354  28.047  16.801  20.629  0.0055 -0.0992 -0.0095
21261W        W64355  27.440  17.491  16.488 -0.4981 -0.0075  0.2421
21262W        W64356  27.273  16.307  17.172  0.0587  0.0989  0.1746
21263W        W64357  27.953  16.000  16.782  0.2288 -0.1591  0.1978
21264W        W64358  26.491  15.785  19.884 -0.1349  0.1855  0.1516
21265W        W64359  28.091  18.662  17.302  0.3319 -0.0647  0.0977
21266W        W64360  24.881  15.162  15.241  0.2415  0.2229  0.1029
21267W        W64361  27.311  16.112  16.106 -0.1758 -0.2812 -0.2271
21268W        W64362  27.097  17.468  18.923  0.0145 -0.2092 -0.1068
21269W        W64363  27.894  17.301  20.390  0.1750  0.0563 -0.4278
21270W        W64364  26.501  13.800  16.371  0.1652  0.1898 -0.1047
21271W        W64365  28.103  16.176  20.264  0.0828  0.4795  0.2135
21272W        W64366  24.657  16.811  15.372  0.0522 -0.3286 -0.1152
21273W        W64367  28.156  15.400  18.841  0.0400 -0.2593 -0.0440
21274W        W64368  27.664  17.863  17.267  0.2691 -0.4275 -0.3902
21275W        W64369  26.306  17.064  18.912  0.1409  0.0227  0.1015
21276W        W64370  25.656  16.649  16.248 -0.1981  0.0006  0.0939
21277W        W64371  28.961  14.335  19.642 -0.0010 -0.0886 -0.1188
21278W        W64372  28.453  16.281  18.202  0.3273 -0.2550  0.0140
21279W        W64373  27.555  15.671  18.758  0.3512  0.1516 -0.0887
21280W        W64374  29.641  15.988  19.372  0.3147 -0.0263 -0.0428
21281W        W64375  28.370  17.333  20.146 -0.3847  0.0830 -0.3397
21282W        W64376  27.523  16.745  17.571 -0.2463  0.0497  0.1648
21283W        W64377  28.340  16.802  18.619 -0.1224  0.0557 -0.1946
21284W        W64378  29.235  15.863  17.014  0.4598  0.0102  0.1326
21285W        W64379  27.020  15.815  16.414 -0.1953 -0.0055 -0.0717
21286W        W64380  25.831  17.397  18.926  0.0126 -0.2124 -0.0656
21287W        W64381  26.216  15.512  20.779  0.2451  0.0787  0.3209
21288W        W64382  28.482  16.674  16.403 -0.0015  0.0996 -0.1940
21289W        W64383  25.987  14.925  16.075  0.1487  0.2606 -0.2845
21290W        W64384  26.147  16.702  16.134 -0.5009  0.3488 -0.3224
21291W        W64385  25.618  18.801  17.973 -0.1898 -0.1239  0.0625
21292W        W64386  26.949  16.028  20.123  0.0531  0.0849 -0.0945
21293W        W64387  27.662  18.559  17.881 -0.0510 -0.0820  0.1160
21294W        W64388  27.757  18.267  16.312  0.0050 -0.0285 -0.1963
21295W        W64389  27.590  17.465  15.655 -0.0930  0.0743  0.2672
21296W        W64390  27.367  19.086  17.984 -0.2592  0.1620 -0.0877
21297W        W64391  25.671  15.240  15.482 -0.3020 -0.0220 -0.2655
21298W        W64392  26.508  17.922  16.481 -0.0153  0.0960  0.0523
21299W        W64393  26.054  16.254  16.534  0.0240  0.1395  0.0361
21300W        W64394  27.168  17.869  15.753 -0.1697  0.4041 -0.2488
21301W        W64395  26.408  18.390  16.715 -0.0547 -0.1943 -0.2388
21302W        W64396  28.050  17.222  20.943  0.3474 -0.0317  0.2025
21303W        W64397  28.986  13.631  17.317 -0.3372 -0.0436  0.0860
21304W        W64398  28.866  14.564  18.439  0.0784  0.0043 -0.0105
21305W        W64399  28.817  15.767  16.762  0.2017  0.0059  0.1483
21306W        W64400  28.511  16.939  19.748 -0.3073  0.1735  0.0314
21307W        W64401  27.067  15.528  19.160  0.1075  0.2504 -0.0397
21308W        W64402  25.351  16.096  15.662 -0.0793  0.1048 -0.2242
21309W        W64403  26.117  15.623  18.948  0.0469  0.0582  0.0815
21310W        W64404  29.675  15.109  19.574 -0.1676 -0.2857  0.2741
21311W        W64405  26.550  17.410  19.182  0.0934  0.3702  0.0953
21312W        W64406  28.203  18.737  18.269 -0.0845 -0.2861 -0.0978
21313W        W64407  25.689  15.710  16.588 -0.0575 -0.2314  0.2441
21314W        W64408  25.981  15.823  17.613  0.1888 -0.1587 -0.0304
21315W        W64409  29.681  13.856  19.753 -0.2129  0.4451 -0.2228
21316W        W64410  27.315  16.958  15.751  0.1751  0.1354  0.0519
21317W        W64411  27.604  15.107  17.556  0.1301 -0.1860 -0.0105
21318W        W64412  27.209  17.270  16.842 -0.0211 -0.3354  0.0667
21319W        W64413  26.541  17.544  18.173  0.0689 -0.1830  0.3261
21320W        W64414  27.051  18.915  19.023 -0.1094 -0.0325 -0.0204
21321W        W64415  25.412  17.399  15.912  0.0472  0.0231  0.3553
21322W        W64416  29.174  16.993  19.092 -0.2664 -0.0497 -0.0184
21323W        W64417  27.447  17.082  19.773 -0.2032 -0.1437 -0.1136
21324W        W64418  29.836  14.510  18.391  0.1613 -0.2953 -0.0737
21325W        W64419  26.241  17.169  17.050 -0.2692 -0.1076 -0.0611
21326W        W64420  28.088  15.454  17.347 -0.1704 -0.0877 -0.0181
21327W        W64421  27.402  17.771  20.996  0.2936 -0.1131  0.0593
21328W        W64422  27.016  17.263  18.198  0.3129 -0.2581  0.2003
21329W        W64423  26.039  15.827  16.263 -0.0676  0.0193  0.3217
21330W        W64424  29.453  16.304  20.786 -0.1066  0.0055  0.0487
21331W        W64425  27.436  16.014  16.759  0.1300  0.2366  0.3625
21332W        W64426  27.792  17.663  20.721 -0.0290  0.1827 -0.0555
21333W        W64427  26.967  16.795  18.458 -0.1029  0.1743  0.0695
21334W        W64428  27.975  14.904  16.525 -0.3185  0.4572  0.2016
21335W        W64429  26.884  17.431  17.761 -0.0370 -0.0340  0.1848
21336W        W64430  27.154  17.232  19.346 -0.1644 -0.1751 -0.0356
21337W        W64431  28.672  17.815  20.849  0.1599 -0.1903 -0.0976
21338W        W64432  26.792  14.824  17.992  0.0612 -0.1710  0.0696
21339W        W64433  28.697  16.212  16.392  0.1505 -0.1546 -0.1711
21340W        W64434  29.058  16.356  18.138 -0.1977 -0.0780 -0.1055
21341W        W64435  27.266  18.395  16.517 -0.3579 -0.0417  0.0754
21342W        W64436  28.403  16.282  16.810  0.1225  0.1247 -0.0552
21343W        W64437  27.729  18.926  18.337 -0.2456 -0.3975 -0.3025
21344W        W64438  26.509  14.896  20.201  0.2938 -0.1052  0.2546
21345W        W64439  27.432  17.211  20.265  0.2380  0.2514 -0.1900
21346W        W64440  28.676  17.700  19.120  0.0030  0.0667 -0.1403
21347W        W64441  25.523  15.220  16.660  0.0723  0.3130 -0.3212
21348W        W64442  27.736  16.837  20.158  0.3295 -0.0323 -0.2043
21349W        W64443  26.829  17.322  16.262  0.1692 -0.0262 -0.1077
21350W        W64444  28.503  14.128  18.644 -0.0882 -0.0570  0.0098
21351W        W64445  28.736  15.332  19.980 -0.4470  0.3022 -0.3541
21352W        W64446  25.242  18.011  16.245  0.3215  0.1707  0.0825
21353W        W64447  27.214  13.804  19.647 -0.1944 -0.1628  0.1429
21354W        W64448  28.064  19.038  18.644  0.0154 -0.1281  0.0627
21355W        W64449  27.237  17.967  18.841 -0.0013  0.0054 -0.3142
21356W        W64450  26.588  15.483  15.614  0.2746 -0.1676 -0.1729
21357W        W64451  27.530  17.324  19.023  0.4559  0.3446  0.1586
21358W        W64452  27.309  17.755  16.916  0.0625  0.1486  0.3232
21359W        W64453  27.868  17.829  16.495 -0.4016  0.0195 -0.0327
21360W        W64454  26.546  17.387  17.359 -0.1254  0.3073  0.1872
21361W        W64455  27.673  14.522  16.847  0.1642 -0.1787 -0.3547
21362W        W64456  27.936  17.184  18.540 -0.1732  0.1872  0.1057
21363W        W64457  26.216  16.612  16.851  0.3117  0.2555  0.2173
21364W        W64458  29.643  14.599  17.398  0.1907  0.2203 -0.3633
21365W        W64459  28.423  14.572  16.253 -0.1896  0.0593  0.2001
21366W        W64460  27.634  16.267  19.520  0.1907 -0.2451  0.0744
21367W        W64461  27.022  16.478  15.677 -0.4577  0.1845  0.1951
21368W        W64462  26.212  15.370  15.956  0.2855  0.0844 -0.0590
21369W        W64463  26.666  16.988  17.648  0.5944 -0.0712 -0.2794
21370W        W64464  26.954  14.644  22.261  0.1636 -0.2061  0.1032
21371W        W64465  25.556  15.029  20.390  0.0922  0.0127 -0.0451
21372W        W64466  27.260  16.789  17.103 -0.0016 -0.0159  0.0280
21373W        W64467  26.106  15.394  16.436 -0.0074 -0.0141 -0.2855
21374W        W64468  28.117  17.040  16.406  0.1452 -0.0781  0.2126
21375W        W64469  26.447  15.453  18.417  0.2930 -0.0949  0.0402
21376W        W64470  25.812  14.441  18.770 -0.1730 -0.0218 -0.2053
21377W        W64471  28.538  18.622  17.561  0.0598 -0.2909 -0.2866
21378W        W64472  30.006  18.173  18.495  0.0678 -0.0582  0.1639
21379W        W64473  27.572  15.014  16.788 -0.3331 -0.0089  0.1239
21380W        W64474  28.069  16.200  20.833 -0.2860  0.2408 -0.0544
21381W        W64475  24.046  16.860  16.172 -0.3671 -0.1155  0.5505
21382W        W64476  26.604  14.646  20.922 -0.3205  0.4331  0.3538
21383W        W64477  27.083  15.646  20.445  0.0303  0.1124  0.2205
21384W        W64478  25.323  15.510  15.718  0.2186 -0.1514  0.2709
21385W        W64479  26.597  16.381  19.177  0.1352  0.0575 -0.0191
21386W        W64480  27.869  17.339  16.744 -0.1967 -0.0037  0.0358
21387W        W64481  28.499  18.040  16.770  0.3376 -0.0432 -0.0358
21388W        W64482  27.157  17.659  17.429 -0.2560 -0.0321  0.0149
21389W        W64483  27.614  17.534  19.479  0.0952  0.0991  0.0413
21390W        W64484  26.823  15.005  19.192  0.0022 -0.2644  0.2895
21391W        W64485  27.180  16.436  16.693  0.5318 -0.1412  0.2241
21392W        W64486  28.340  16.616  21.091  0.0834 -0.1825 -0.1008
21393W        W64487  29.853  16.575  16.743  0.3266 -0.0823  0.0070
21394W        W64488  28.301  14.631  18.685  0.0465 -0.0117 -0.3907
21395W        W64489  26.972  18.607  17.724  0.0481  0.4002  0.0237
21396W        W64490  26.289  15.026  22.143  0.1445 -0.3454 -0.0931
21397W        W64491  27.941  17.940  18.580  0.1409  0.0143  0.0055
21398W        W64492  28.603  15.699  18.053 -0.1869 -0.1102  0.0895
21399W        W64493  27.235  15.146  17.201 -0.0391  0.0976  0.0494
21400W        W64494  26.767  15.842  18.397 -0.3833  0.1843  0.0255
21401W        W64495  27.696  17.815  16.018 -0.2225  0.0931  0.3527
21402W        W64496  27.209  15.451  18.450 -0.0291  0.0779  0.0989
21403W        W64497  26.677  14.622  17.317  0.2714  0.1469 -0.2392
21404W        W64498  26.555  17.201  20.618  0.1866  0.1554 -0.0599
21405W        W64499  27.449  18.123  17.760  0.1949  0.1468 -0.0119
21406W        W64500  28.235  15.791  20.589  0.1691 -0.1678 -0.0099
21407W        W64501  26.746  15.039  16.972  0.4478 -0.0224 -0.1235
21408W        W64502  29.639  16.931  17.007  0.0510 -0.0468  0.0556
21409W        W64503  28.499  18.788  18.716 -0.0434 -0.1882 -0.0701
21410W        W64504  29.885  17.516  20.088  0.1103 -0.1742 -0.0810
21411W        W64505  26.547  19.237  18.351 -0.0314 -0.0201 -0.0028
21412W        W64506  27.818  16.753  19.669 -0.1296 -0.1286 -0.3670
21413W        W64507  26.796  14.139  19.647  0.0333  0.2380  0.2083
21414W        W64508  26.269  15.071  17.145  0.0697 -0.3713 -0.0344
21415W        W64509  27.667  15.457  17.127 -0.1978 -0.0917  0.1160
21416W        W64510  28.095  15.577  17.917  0.3343 -0.2026  0.3920
21417W        W64511  27.969  16.063  17.961 -0.0915  0.1994 -0.0559
21418W        W64512  27.948  14.570  19.300 -0.2176 -0.3250  0.2000
21419W        W64513  28.597  19.409  19.494  0.0730 -0.1753  0.1047
21420W        W64514  27.356  17.162  17.821 -0.2856  0.1469 -0.1783
21421W        W64515  25.940  16.787  22.758 -0.4353 -0.1540 -0.1732
21422W        W64516  27.566  15.495  21.828  0.1905 -0.2058  0.1572
21423W        W64517  28.765  15.652  19.558  0.1937  0.4813  0.0792
21424W        W64518  27.994  16.867  21.319  0.0878  0.2489 -0.2096
21425W        W64519  25.944  14.614  22.738 -0.0509 -0.1549  0.1717
21426W        W64520  27.638  17.175  21.751  0.1842 -0.3202  0.1724
21427W        W64521  26.565  14.532  24.005  0.3247  0.4174 -0.0911
21428W        W64522  28.131  17.748  22.014  0.0706  0.0151  0.1299
21429W        W64523  29.695  18.240  22.489 -0.2178  0.0165  0.0740
21430W        W64524  27.817  16.685  21.796 -0.0561  0.0144 -0.0771
21431W        W64525  26.564  16.703  22.981  0.3650  0.1785  0.2987
21432W        W64526  27.632  17.916  24.212 -0.1621 -0.2222  0.2248
21433W        W64527  27.694  14.643  22.572 -0.1124 -0.1621  0.2375
21434W        W64528  23.687  14.537  22.762  0.3233 -0.0997  0.1158
21435W        W64529  29.000  15.886  23.636  0.0393 -0.1764  0.4443
21436W        W64530  26.687  17.908  19.977  0.1452  0.1747 -0.0095
21437W        W64531  27.849  15.924  22.718  0.1094 -0.0727 -0.0507
21438W        W64532  27.969  15.811  22.181  0.2604  0.3976 -0.1177
21439W        W64533  29.255  17.541  22.748  0.0092 -0.1311 -0.2838
21440W        W64534  26.943  13.566  22.222 -0.1793  0.0220  0.2689
21441W        W64535  27.431  15.405  23.869 -0.1395 -0.3138 -0.0415
21442W        W64536  27.278  16.826  21.826 -0.0235  0.0573 -0.2459
21443W        W64537  26.063  16.569  19.895  0.0069  0.1009 -0.0042
21444W        W64538  25.995  15.430  22.921 -0.0629  0.1508 -0.0339
21445W        W64539  26.515  16.622  23.563  0.0046 -0.1508 -0.1399
21446W        W64540  28.482  15.593  22.174 -0.0232  0.0382 -0.0308
21447W        W64541  29.160  15.377  21.792 -0.0096 -0.0975 -0.3801
21448W        W64542  27.719  18.489  22.073  0.0318  0.0326 -0.0221
21449W        W64543  28.398  17.229  21.325  0.1363  0.0973 -0.0342
21450W        W64544  28.617  15.012  23.249 -0.0341 -0.3768 -0.0482
21451W        W64545  26.902  16.314  21.481 -0.1113  0.1512 -0.1459
21452W        W64546  24.598  16.214  21.942 -0.1361 -0.1100 -0.0558
21453W        W64547  26.774  16.620  21.844 -0.1207 -0.4609  0.0713
21454W        W64548  30.713  16.996  20.844 -0.0533 -0.1435  0.0648
21455W        W64549  28.893  18.334  23.183 -0.5007 -0.0116  0.1942
21456W        W64550  26.516  17.627  23.516  0.2107 -0.0907 -0.0056
21457W        W64551  25.569  16.325  19.923 -0.2993  0.0807  0.1282
21458W        W64552  28.472  16.993  23.927  0.4328 -0.0883  0.0744
21459W        W64553  27.624  16.459  24.452  0.0422 -0.2466  0.1681
21460W        W64554  27.621  15.819  23.633 -0.1867  0.1400 -0.2184
21461W        W64555  27.333  17.089  22.355  0.0930  0.0355  0.0238
21462W        W64556  26.074  17.329  20.371 -0.0915  0.2648 -0.0106
21463W        W64557  28.474  16.060  22.299 -0.0752  0.0410  0.1462
21464W        W64558  28.207  17.436  23.933  0.0768 -0.2664 -0.2040
21465W        W64559  24.195  16.506  21.352 -0.0024  0.0999 -0.0561
21466W        W64560  30.678  15.920  23.568  0.1391 -0.1195 -0.3922
21467W        W64561  26.967  17.934  20.784 -0.1534 -0.1836  0.0201
21468W        W64562  28.342  15.720  19.975 -0.0509  0.0478 -0.2837
21469W        W64563  26.975  15.540  19.929 -0.2057 -0.1429  0.1573
21470W        W64564  29.121  15.056  20.077 -0.0404  0.1189 -0.2456
21471W        W64565  26.462  14.713  22.604  0.0293  0.1192 -0.2104
21472W        W64566  27.417  18.104  22.199  0.2186  0.1826  0.0019
21473W        W64567  27.649  13.612  23.874  0.1930  0.1948 -0.3120
21474W        W64568  29.389  17.790  23.189 -0.2134  0.2304 -0.2373
21475W        W64569  26.105  16.513  23.151 -0.2099  0.3195 -0.3127
21476W        W64570  29.037  14.934  23.507  0.1145 -0.0928  0.0472
21477W        W64571  27.819  16.793  24.106  0.0968 -0.1468 -0.2859
21478W        W64572  24.739  14.351  24.146 -0.1969 -0.0605  0.1314
21479W        W64573  29.075  17.915  20.520  0.1314 -0.0904  0.2410
21480W        W64574  28.905  17.521  23.296 -0.2211  0.0346  0.0115
21481W        W64575  28.095  18.291  21.785 -0.2593  0.0104  0.0334
21482W        W64576  27.795  16.599  21.009 -0.2183  0.0459 -0.0235
21483W        W64577  25.612  14.987  23.961 -0.1314 -0.2093 -0.1955
21484W        W64578  24.983  14.598  23.066 -0.1182 -0.0447 -0.0718
21485W        W64579  27.363  16.617  19.754  0.3008  0.4041 -0.0887
21486W        W64580  29.270  18.533  24.201 -0.0017  0.0641  0.2914
21487W        W64581  24.875  17.291  23.965  0.3082 -0.1963  0.0270
21488W        W64582  28.070  14.359  22.853 -0.1006  0.3540  0.0388
21489W        W64583  28.271  16.770  22.609 -0.0197 -0.2624 -0.1503
21490W        W64584  29.809  18.823  23.266  0.1753  0.1503  0.1433
21491W        W64585  28.651  16.541  22.379  0.0361  0.4037 -0.0895
21492W        W64586  27.421  14.439  23.575  0.1279 -0.1504 -0.0831
21493W        W64587  27.375  14.585  23.024 -0.1195 -0.2222  0.1156
21494W        W64588  27.007  17.703  18.496  0.1543  0.3326  0.2231
21495W        W64589  25.659  15.651  21.944  0.1568  0.2660 -0.1845
21496W        W64590  28.825  17.047  23.405  0.4035 -0.2844 -0.0601
21497W        W64591  29.870  16.553  20.507  0.0496  0.0319 -0.0703
21498W        W64592  25.690  17.174  22.537 -0.1424  0.1755  0.0032
21499W        W64593  27.338  15.068  24.307  0.0151 -0.0941  0.1976
21500W        W64594  29.137  17.805  24.054 -0.0217  0.1595  0.1015
21501W        W64595  27.032  18.285  18.539  0.1832  0.3427  0.2616
21502W        W64596  26.218  16.997  23.325  0.1498  0.2893  0.3030
21503W        W64597  26.801  16.489  20.946 -0.0073  0.3272  0.3852
21504W        W64598  25.626  14.400  23.084  0.0653 -0.1369  0.3538
21505W        W64599  27.818  17.023  22.162 -0.0654  0.1016 -0.1911
21506W        W64600  28.780  15.378  20.664 -0.2151  0.1603  0.2331
21507W        W64601  26.775  13.982  22.642 -0.0084 -0.1494 -0.0805
21508W        W64602  28.957  14.358  21.950 -0.1089 -0.0599  0.1823
21509W        W64603  26.450  16.624  21.301 -0.1038 -0.0610  0.1672
21510W        W64604  29.237  17.600  22.179  0.2772  0.2077  0.0187
21511W        W64605  28.665  15.791  20.338 -0.1989 -0.1978  0.0112
21512W        W64606  27.597  17.023  20.816 -0.2213 -0.0385 -0.0429
21513W        W64607  25.730  16.819  23.305  0.0530  0.3374 -0.2778
21514W        W64608  27.053  15.688  22.148  0.2736 -0.0480  0.1685
21515W        W64609  28.071  15.453  23.766  0.2419 -0.0451 -0.0088
21516W        W64610  27.247  14.901  21.068 -0.1184 -0.0634  0.0848
21517W        W64611  27.830  18.392  23.840  0.4463 -0.1131  0.2414
21518W        W64612  27.056  15.996  21.076  0.0970 -0.2915  0.1796
21519W        W64613  28.867  15.792  22.660 -0.0379  0.1371  0.2855
21520W        W64614  28.490  14.534  22.055  0.0019  0.2463 -0.1579
21521W        W64615  26.324  17.636  19.697 -0.0093  0.0024 -0.0262
21522W        W64616  28.139  13.223  23.688  0.1761  0.0251 -0.2158
21523W        W64617  27.423  17.697  21.513  0.1427  0.0606  0.0847
21524W        W64618  28.368  17.844  22.532 -0.0741 -0.2702 -0.0044
21525W        W64619  28.658  17.073  22.426  0.2449  0.1792 -0.3221
21526W        W64620  26.309  14.848  24.348  0.0258  0.0278 -0.0382
21527W        W64621  26.299  16.327  20.679 -0.0218 -0.3932 -0.1271
21528W        W64622  27.253  17.581  23.661  0.0121  0.2309 -0.0252
21529W        W64623  27.397  17.473  22.794  0.2871 -0.0456 -0.0966
21530W        W64624  27.954  15.449  22.943 -0.1554 -0.0295 -0.2877
21531W        W64625  28.874  17.589  21.304  0.0616 -0.0826 -0.1613
21532W        W64626  26.543  17.260  22.993  0.0895 -0.0687  0.1122
21533W        W64627  26.363  16.919  21.988  0.1322 -0.1856  0.1327
21534W        W64628  26.755  15.797  23.546  0.2531 -0.1006 -0.0401
21535W        W64629  29.872  16.722  21.856 -0.3295  0.2414 -0.1134
21536W        W64630  28.165  14.726  22.434 -0.2263 -0.1266  0.0702
21537W        W64631  25.489  15.213  22.072 -0.3194 -0.0569 -0.0963
21538W        W64632  28.799  17.575  22.553  0.0755 -0.1435 -0.1227
21539W        W64633  26.404  18.023  22.247  0.0810 -0.3906 -0.0817
21540W        W64634  24.520  15.483  21.318 -0.0853  0.0115 -0.2355
21541W        W64635  28.233  16.706  22.093 -0.0870  0.0856  0.1639
21542W        W64636  28.273  15.349  24.221 -0.0383 -0.2400  0.2313
21543W        W64637  25.480  16.391  24.420 -0.0108 -0.2718  0.3418
21544W        W64638  26.191  15.486  25.327  0.2421 -0.1606  0.2371
21545W        W64639  26.884  16.522  19.602  0.0164  0.3946  0.2010
21546W        W64640  25.302  17.354  22.855  0.1424  0.0593 -0.2002
21547W        W64641  29.624  14.832  22.468 -0.0400  0.2399  0.1699
21548W        W64642  29.390  14.968  19.146 -0.0614  0.1398  0.0080
21549W        W64643  26.095  17.059  23.795 -0.0179 -0.1021 -0.0746
21550W        W64644  28.230  17.226  21.852  0.3661 -0.2477  0.0123
21551W        W64645  27.293  16.149  20.442  0.0778 -0.2528 -0.0444
21552W        W64646  28.546  14.498  20.050  0.1803  0.7336  0.1680
21553W        W64647  27.735  17.121  23.657  0.3907  0.1455  0.1396
21554W        W64648  26.254  16.104  21.512  0.0340  0.1514  0.2147
21555W        W64649  28.432  16.739  23.500 -0.2658  0.1434 -0.1573
21556W        W64650  27.765  15.959  21.693  0.1110 -0.2272 -0.0274
21557W        W64651  29.626  17.239  22.178  0.3026  0.0778 -0.3151
21558W        W64652  25.452  16.350  22.881 -0.0039 -0.1777  0.1877
21559W        W64653  26.054  17.314  24.440  0.4401  0.2350 -0.0044
21560W        W64654  26.723  17.760  21.857  0.1976 -0.0568  0.2221
21561W        W64655  26.907  15.670  23.055 -0.0431 -0.0803 -0.3251
21562W        W64656  26.024  15.938  20.233 -0.2237 -0.0246 -0.0189
21563W        W64657  25.696  15.088  22.542  0.0941  0.2426 -0.0439
21564W        W64658  26.150  19.800  19.654 -0.1529  0.1913 -0.1812
21565W        W64659  29.224  14.609  22.346 -0.2892  0.1596 -0.2734
21566W        W64660  28.519  16.166  21.353 -0.3007 -0.0535  0.0938
21567W        W64661  27.592  12.794  22.065 -0.3173  0.0508 -0.0393
21568W        W64662  29.816  15.306  23.943 -0.4789  0.2004  0.0770
21569W        W64663  29.053  15.707  21.442  0.3159 -0.0791 -0.3023
21570W        W64664  26.834  15.217  23.391 -0.1628  0.1538  0.2034
21571W        W64665  24.375  16.826  20.132  0.0065 -0.4658  0.2344
21572W        W64666  27.251  15.028  23.502 -0.0825  0.0055  0.3809
21573W        W64667  23.452  14.082  22.789 -0.0095 -0.0231  0.2969
21574W        W64668  26.845  16.214  25.664 -0.1264  0.0230  0.1567
21575W        W64669  29.462  18.338  23.277  0.2076  0.2580  0.2177
21576W        W64670  27.676  14.224  21.439 -0.1935  0.2558  0.1291
21577W        W64671  27.804  15.809  25.130 -0.1478  0.1884 -0.0886
21578W        W64672  27.951  14.474  21.970  0.2927 -0.2047  0.0771
21579W        W64673  26.956  17.684  21.398  0.2418  0.2367 -0.1843
21580W        W64674  25.920  16.301  22.309 -0.1077 -0.1312 -0.1944
21581W        W64675  26.224  16.091  23.623 -0.1493  0.0019  0.1266
21582W        W64676  27.973  18.121  22.337  0.0735  0.2681 -0.0127
21583W        W64677  28.112  17.729  20.104  0.3295 -0.5026 -0.1436
21584W        W64678  27.052  16.318  24.275  0.0617  0.2086  0.1539
21585W        W64679  25.604  16.532  20.896 -0.2641  0.2248  0.1683
21586W        W64680  28.268  14.645  23.403  0.0362 -0.1891  0.0188
21587W        W64681  26.715  17.838  23.093 -0.1500  0.0213 -0.1191
21588W        W64682  26.657  15.739  21.348 -0.1066  0.0083 -0.3326
21589W        W64683  24.777  14.958  20.933 -0.0689 -0.1914  0.0472
21590W        W64684  28.269  15.036  21.221  0.4197 -0.2666  0.5113
21591W        W64685  30.160  16.827  20.933 -0.0635 -0.0619 -0.0512
21592W        W64686  25.565  15.362  23.516  0.2744  0.3009 -0.0873
21593W        W64687  28.180  15.225  23.338  0.0769  0.1713  0.4138
21594W        W64688  26.270  18.481  22.159  0.0300 -0.1410 -0.1495
21595W        W64689  29.152  16.701  22.295 -0.0032  0.1389 -0.0628
21596W        W64690  27.774  15.939  20.500 -0.2352  0.2366  0.0550
21597W        W64691  28.657  17.637  23.720  0.2012  0.0841 -0.2598
21598W        W64692  24.865  15.948  25.148 -0.2506 -0.0274 -0.0332
21599W        W64693  23.763  15.674  19.885 -0.1523  0.0674  0.1293
21600W        W64694  30.129  17.049  24.415 -0.1443 -0.1558 -0.1252
21601W        W64695  27.203  15.751  22.648  0.1714  0.2264  0.0067
21602W        W64696  26.023  17.248  21.985  0.2994 -0.3085  0.0688
21603W        W64697  29.338  17.489  20.346 -0.4775  0.0216  0.0010
21604W        W64698  25.040  16.548  22.678 -0.2986 -0.1809  0.1278
21605W        W64699  25.725  17.756  23.007  0.2798 -0.1138 -0.0477
21606W        W64700  27.156  16.453  24.768 -0.1906 -0.2814  0.3081
21607W        W64701  28.971  16.496  22.719 -0.0301  0.3371 -0.1801
21608W        W64702  26.457  15.247  23.060 -0.1663 -0.2853 -0.3042
21609W        W64703  27.094  14.469  21.238  0.0731  0.0985 -0.0453
21610W        W64704  27.219  15.904  21.542  0.0115 -0.1658  0.3436
21611W        W64705  27.668  16.136  23.262  0.2344 -0.1184 -0.1962
21612W        W64706  26.814  15.407  23.855  0.1705 -0.1119  0.1372
21613W        W64707  27.558  17.967  25.550  0.0960 -0.1377  0.1657
21614W        W64708  25.355  13.732  22.516  0.1297  0.2895 -0.2693
21615W        W64709  29.179  18.825  20.330  0.0366 -0.1326 -0.4517
21616W        W64710  26.885  14.783  25.026 -0.0159 -0.1183  0.0399
21617W        W64711  26.955  17.136  20.308  0.0590  0.0467 -0.1459
21618W        W64712  25.130  15.912  22.685  0.1425 -0.1814 -0.0962
21619W        W64713  26.368  16.405  21.944  0.0241  0.4759 -0.0485
21620W        W64714  29.075  15.726  23.112  0.3428 -0.2869  0.1231
21621W        W64715  26.243  17.066  21.494 -0.0131 -0.0426  0.1943
21622W        W64716  26.000  17.814  20.157 -0.0170  0.2964  0.0425
21623W        W64717  27.168  17.061  23.783 -0.3002  0.0807  0.0311
21624W        W64718  29.195  15.181  20.933  0.0343  0.0867  0.1164
21625W        W64719  27.151  17.937  21.826 -0.1891  0.0230 -0.1778
21626W        W64720  27.723  15.313  23.450 -0.3819  0.0870 -0.0011
21627W        W64721  28.907  15.422  23.522 -0.3249 -0.1120 -0.0064
21628W        W64722  28.792  14.794  19.757 -0.1626 -0.2061  0.0013
21629W        W64723  29.253  14.112  24.958  0.0960 -0.0409 -0.1708
21630W        W64724  25.091  15.624  24.883 -0.1793  0.0597 -0.0403
21631W        W64725  29.014  16.188  22.288  0.3312 -0.0046  0.0524
21632W        W64726  26.489  16.218  23.232  0.1587 -0.2669  0.0428
21633W        W64727  27.511  19.334  24.709 -0.1216  0.1776 -0.0402
21634W        W64728  26.140  16.175  24.129 -0.0814 -0.1221 -0.0894
21635W        W64729  28.491  14.749  22.842  0.1957  0.0248  0.2130
21636W        W64730  27.150  15.155  22.221 -0.2254  0.0203  0.1642
21637W        W64731  28.547  15.556  23.075  0.1021  0.1706  0.1134
21638W        W64732  27.590  16.435  22.171 -0.1845 -0.1603 -0.2045
21639W        W64733  26.723  15.564  22.609 -0.1445 -0.2834 -0.2477
21640W        W64734  28.343  15.835  21.689 -0.0243  0.3264  0.1188
21641W        W64735  25.373  17.053  23.713 -0.2347 -0.2482  0.2211
21642W        W64736  29.239  16.132  21.211  0.2041  0.1642  0.1034
21643W        W64737  26.020  16.347  21.106  0.1089  0.0867  0.0926
21644W        W64738  26.180  17.092  19.897  0.2168  0.0473 -0.0516
21645W        W64739  25.710  14.396  23.764 -0.2133 -0.1612  0.1967
21646W        W64740  27.477  16.272  22.789  0.0642 -0.1400 -0.0790
21647W        W64741  27.202  14.865  22.624  0.0122  0.0730  0.1869
21648W        W64742  27.524  15.118  23.083 -0.0134  0.2147  0.0929
21649W        W64743  27.034  14.376  24.093  0.0015  0.0530  0.0708
21650W        W64744  26.360  15.912  24.498 -0.0872  0.0453  0.1800
21651W        W64745  24.305  15.768  25.081 -0.3013 -0.0322 -0.0588
21652W        W64746  29.645  17.205  22.673  0.0720  0.2650 -0.0492
21653W        W64747  29.674  16.909  20.814 -0.1363 -0.3386 -0.1625
21654W        W64748  27.997  16.918  23.185  0.2036  0.2627  0.1067
21655W        W64749  29.267  16.603  21.178  0.3575 -0.0884 -0.2980
21656W        W64750  28.045  15.312  22.354 -0.0754  0.4947 -0.2288
21657W        W64751  25.533  16.306  23.940  0.2022  0.1849 -0.0664
21658W        W64752  29.178  16.746  23.247 -0.0623 -0.2239 -0.2302
21659W        W64753  24.834  15.825  21.498  0.0043  0.0988 -0.0758
21660W        W64754  27.964  16.119  24.320 -0.4402  0.1349  0.0299
21661W        W64755  28.432  17.726  21.583 -0.4189 -0.2386 -0.1463
21662W        W64756  26.835  17.053  22.201  0.0554  0.0749  0.1124
21663W        W64757  29.744  14.447  22.166  0.2747 -0.3188  0.1374
21664W        W64758  26.208  15.533  22.162 -0.1805 -0.1726  0.2047
21665W        W64759  26.648  18.512  24.815 -0.0846 -0.2692 -0.0053
21666W        W64760  26.418  16.274  19.663  0.0834 -0.2943  0.0851
21667W        W64761  26.776  17.623  20.411  0.2059  0.4498  0.0146
21668W        W64762  28.233  17.759  22.986  0.1098 -0.1922 -0.1170
21669W        W64763  28.462  17.419  24.695 -0.1000  0.0580 -0.0361
21670W        W64764  28.461  14.199  22.491  0.3367 -0.3095  0.2118
21671W        W64765  29.036  15.650  24.466 -0.0655  0.0777  0.1987
21672W        W64766  25.725  17.427  19.733 -0.2073 -0.1471  0.0539
21673W        W64767  29.625  13.259  22.583 -0.1706  0.1913  0.0059
21674W        W64768  28.100  18.251  22.886 -0.1900 -0.0615 -0.0383
21675W        W64769  25.751  18.252  23.745  0.0312  0.0874 -0.0341
21676W        W64770  26.824  18.214  21.463  0.0751 -0.1499 -0.0333
21677W        W64771  27.972  14.905  23.025 -0.0446 -0.1447  0.0149
21678W        W64772  29.828  16.248  22.840  0.1761  0.0970  0.1949
21679W        W64773  27.815  15.521  20.841  0.0178 -0.2952 -0.1798
21680W        W64774  30.051  16.907  22.272  0.2085 -0.0995  0.0600
21681W        W64775  26.066  17.446  23.404  0.0918  0.0484  0.0271
21682W        W64776  26.413  16.912  22.502  0.1816  0.1455  0.2594
21683W        W64777  27.435  18.280  24.594  0.0276  0.2766  0.0878
21684W        W64778  30.079  16.211  21.786  0.1978 -0.1283  0.0179
21685W        W64779  27.419  18.377  23.024 -0.2734  0.0556 -0.1132
21686W        W64780  24.263  15.156  23.385  0.0079 -0.1244 -0.0306
21687W        W64781  25.976  16.318  24.628 -0.3594  0.1298  0.0586
21688W        W64782  26.671  16.483  22.369  0.1759 -0.0775 -0.1732
21689W        W64783  26.477  15.848  20.429 -0.1252  0.1830  0.0562
21690W        W64784  26.523  18.099  20.477 -0.0765 -0.2363  0.0996
21691W        W64785  26.457  17.587  24.384  0.0613 -0.1755 -0.0950
21692W        W64786  24.366  16.705  23.216  0.1308 -0.0861 -0.1597
21693W        W64787  26.295  16.816  20.833  0.2397  0.2136  0.3567
21694W        W64788  27.504  15.976  22.111 -0.2450 -0.0675  0.3487
21695W        W64789  26.931  16.968  20.780 -0.0412  0.0034  0.1273
21696W        W64790  29.433  18.055  22.109 -0.1833 -0.0584  0.2127
21697W        W64791  28.316  15.754  22.655  0.0849  0.1283 -0.2875
21698W        W64792  25.939  15.638  23.364 -0.0416 -0.2065  0.0102
21699W        W64793  25.091  16.473  20.757  0.0026 -0.0556  0.1515
21700W        W64794  27.514  16.855  21.379  0.2179 -0.1055  0.0444
21701W        W64795  26.313  18.093  21.711 -0.1960 -0.0027 -0.1477
21702W        W64796  29.361  17.666  24.944  0.0320 -0.1456  0.0627
21703W        W64797  28.856  14.992  18.723  0.1898 -0.2635  0.2503
21704W        W64798  28.927  15.734  22.061 -0.2841 -0.1535  0.1496
21705W        W64799  29.399  15.823  22.138  0.0725 -0.1210  0.1305
21706W        W64800  28.361  19.670  24.007 -0.0676 -0.2570  0.0294
21707W        W64801  26.423  15.104  23.883  0.0368 -0.0410 -0.1954
21708W        W64802  26.662  14.936  19.668  0.0381 -0.1479  0.0859
21709W        W64803  27.168  15.831  25.066  0.0993  0.0077 -0.1097
21710W        W64804  28.114  13.926  23.158  0.1576 -0.2155 -0.1956
21711W        W64805  25.653  18.553  24.130  0.0401  0.1013  0.1808
21712W        W64806  28.671  16.763  20.230  0.1621  0.2814 -0.1717
21713W        W64807  25.098  16.200  23.231  0.3948  0.1335 -0.0938
21714W        W64808  27.201  16.026  23.783 -0.1169  0.1058  0.2001
21715W        W64809  29.545  12.327  22.796  0.4567  0.3576 -0.1799
21716W        W64810  28.087  18.866  21.801  0.0008  0.2396 -0.1049
21717W        W64811  28.885  15.316  22.818  0.1359 -0.2365  0.1579
21718W        W64812  25.322  17.704  21.494 -0.0636 -0.1275  0.2838
21719W        W64813  27.027  17.066  22.748  0.1457  0.2469  0.3201
21720W        W64814  27.407  18.083  23.688 -0.1147  0.0945  0.2206
21721W        W64815  24.766  15.579  22.568  0.1725  0.1022 -0.0469
21722W        W64816  29.892  15.305  22.307  0.2907  0.0305 -0.1669
21723W        W64817  26.015  16.517  23.658 -0.3430  0.1963 -0.1235
21724W        W64818  30.129  14.802  22.342 -0.1388 -0.0985  0.2240
21725W        W64819  25.552  16.027  22.382  0.2845  0.3496  0.1310
21726W        W64820  27.787  15.087  21.072 -0.5355 -0.1447 -0.1832
21727W        W64821  28.449  16.318  22.773  0.1550 -0.1592  0.1489
21728W        W64822  25.082  15.664  23.936 -0.2314  0.1067 -0.0480
21729W        W64823  27.518  15.256  20.566  0.2222 -0.0684  0.0811
21730W        W64824  28.562  16.851  23.016  0.3282 -0.1402 -0.1856
21731W        W64825  26.800  16.173  20.579 -0.1755 -0.2882  0.1043
21732W        W64826  27.646  19.857  24.084  0.1612  0.3113  0.0558
21733W        W64827  26.477  14.803  23.489 -0.0756  0.0127 -0.0311
21734W        W64828  27.573  14.812  20.199  0.1789  0.0547  0.2815
21735W        W64829  26.383  15.959  21.013  0.0518 -0.0166  0.4904
21736W        W64830  25.382  15.959  24.258  0.0044 -0.2828  0.3293
21737W        W64831  29.314  18.865  23.355  0.0672 -0.0009 -0.0555
21738W        W64832  25.349  15.371  22.766 -0.0464 -0.0224 -0.0055
21739W        W64833  28.419  16.749  21.575  0.0418  0.1451  0.2353
21740W        W64834  28.168  15.779  21.091  0.3097 -0.1559 -0.1455
21741W        W64835  27.865  18.383  19.329 -0.1950 -0.0303 -0.0294
21742W        W64836  28.935  16.523  21.519 -0.0940  0.0835 -0.0909
21743W        W64837  29.242  18.508  22.585  0.0660 -0.1166 -0.1251
21744W        W64838  25.113  15.672  23.158  0.1221  0.1502  0.1996
21745W        W64839  29.096  18.868  23.844 -0.1348  0.1291 -0.3184
21746W        W64840  29.953  16.755  22.755  0.0738  0.0285 -0.3182
21747W        W64841  27.089  13.529  21.692 -0.1141  0.1488  0.1175
21748W        W64842  25.634  16.335  21.925 -0.1261  0.3099  0.0950
21749W        W64843  25.551  15.523  21.531  0.2081  0.1316  0.0640
21750W        W64844  28.190  16.317  23.303 -0.1920  0.1972 -0.2514
21751W        W64845  28.985  16.971  24.345 -0.2686 -0.1011  0.0021
21752W        W64846  26.476  19.634  19.005  0.3528 -0.1099  0.0446
21753W        W64847  27.537  15.660  23.067  0.2240 -0.1070 -0.2484
21754W        W64848  29.626  19.020  22.398  0.1155  0.1714  0.0933
21755W        W64849  27.187  17.569  22.329 -0.1258  0.3155 -0.5015
21756W        W64850  25.718  16.435  19.318 -0.3101  0.2800  0.0019
21757W        W64851  26.866  16.916  24.874 -0.0404  0.0166  0.2364
21758W        W64852  27.390  14.575  21.662  0.4008  0.0130 -0.0358
21759W        W64853  27.630  17.643  21.972  0.0065  0.2425  0.1543
21760W        W64854  27.207  16.609  22.399  0.2508  0.1490 -0.0994
21761W        W64855  28.607  15.357  21.745 -0.1947  0.0671 -0.3667
21762W        W64856  28.737  17.321  20.903 -0.0250  0.2661  0.1436
21763W        W64857  26.525  15.976  22.303 -0.1636  0.0017 -0.0781
21764W        W64858  29.456  13.916  21.839 -0.2633  0.1774  0.1990
21765W        W64859  29.006  14.369  20.893 -0.3086  0.2232  0.0667
21766W        W64860  26.773  16.098  22.733  0.0359 -0.1326 -0.0770
21767W        W64861  27.588  17.579  18.623  0.1390  0.1214  0.0432
21768W        W64862  26.000  16.595  21.618 -0.1047 -0.0936  0.0573
21769W        W64863  25.960  16.157  22.881  0.2450 -0.1497  0.2982
21770W        W64864  26.128  14.979  25.190 -0.0462 -0.1903  0.1285
21771W        W64865  25.141  15.090  24.872  0.0551 -0.0492  0.2184
21772W        W64866  27.338  15.678  20.862 -0.0493  0.1166  0.0854
21773W        W64867  26.637  14.328  21.316 -0.2226  0.1257 -0.2515
21774W        W64868  28.244  18.011  20.730  0.0715  0.1113  0.1042
21775W        W64869  26.158  14.155  22.495  0.3616  0.0234  0.1078
21776W        W64870  25.287  14.798  22.719  0.2205  0.1956 -0.2088
21777W        W64871  28.039  15.758  23.334 -0.1622  0.1451  0.0050
21778W        W64872  29.134  17.097  21.886  0.1234  0.2351 -0.1466
21779W        W64873  26.995  14.051  22.182  0.2504 -0.1693 -0.0123
21780W        W64874  28.642  18.801  25.508  0.0451 -0.1134 -0.0822
21781W        W64875  24.159  16.528  19.685 -0.0502 -0.1704  0.0598
21782W        W64876  27.188  15.335  22.840  0.1694  0.0272 -0.3602
21783W        W64877  26.933  13.369  22.694 -0.0315  0.0471 -0.2806
21784W        W64878  24.924  13.717  21.261  0.2366 -0.2086 -0.0038
21785W        W64879  28.044  16.035  23.740  0.0444  0.2001 -0.1875
21786W        W64880  27.121  16.264  21.931  0.3733 -0.0283  0.0957
21787W        W64881  27.264  18.732  21.413 -0.0613  0.3391  0.3142
21788W        W64882  28.928  16.841  23.865  0.4065 -0.0492 -0.2545
21789W        W64883  27.456  17.089  23.148  0.5428 -0.0564 -0.0643
21790W        W64884  25.449  16.840  22.919 -0.0188 -0.0231 -0.1009
21791W        W64885  27.024  16.755  21.332  0.2567 -0.0768  0.4768
21792W        W64886  27.910  17.377  22.821  0.0962  0.1507  0.1196
21793W        W64887  28.488  17.070  20.555 -0.0294 -0.3438  0.3031
21794W        W64888  29.501  14.471  22.828 -0.1215 -0.0266 -0.3068
21795W        W64889  27.953  16.470  22.873  0.1672  0.3175  0.0934
21796W        W64890  25.854  15.898  23.883  0.0390 -0.0343 -0.2051
21797W        W64891  27.014  16.486  22.906  0.3036  0.1798  0.1815
21798W        W64892  29.417  16.216  22.559 -0.0956 -0.0071  0.1029
21799W        W64893  27.608  15.124  22.572 -0.0118 -0.1501  0.0932
21800W        W64894  28.505  14.777  21.580 -0.2382  0.0725  0.0188
21801W        W64895  26.607  17.519  22.283 -0.0300 -0.3449  0.0413
21802W        W64896  25.659  14.978  23.002 -0.2066  0.0428 -0.1193
21803W        W64897  27.339  16.398  20.925 -0.0921 -0.4011  0.2281
21804W        W64898  26.914  14.920  24.036 -0.0486  0.1856  0.0216
21805W        W64899  27.077  17.391  23.186 -0.3019  0.2994  0.0408
21806W        W64900  27.795  17.669  23.336  0.1426 -0.1443 -0.2064
21807W        W64901  27.547  15.533  22.371  0.1226 -0.1711  0.2328
21808W        W64902  29.986  17.722  20.953 -0.0322 -0.0660  0.3926
21809W        W64903  28.278  18.519  24.018  0.0791  0.2047  0.0704
21810W        W64904  29.812  18.548  22.848  0.0588 -0.0920  0.0523
21811W        W64905  28.376  17.230  23.460 -0.0963 -0.2046 -0.3508
21812W        W64906  28.939  17.066  21.296 -0.1073 -0.0765 -0.1160
21813W        W64907  25.096  15.289  23.561 -0.0552 -0.2797  0.1698
21814W        W64908  28.062  16.333  22.376  0.1346  0.1029 -0.1553
21815W        W64909  27.490  16.801  22.759  0.0632  0.0235 -0.0408
21816W        W64910  29.290  15.242  23.131  0.2455  0.1707 -0.0088
21817W        W64911  26.547  14.309  22.238  0.0131  0.2015  0.0310
21818W        W64912  27.733  13.340  19.752 -0.4487  0.2785 -0.0071
21819W        W64913  28.086  17.920  23.651 -0.2155 -0.1746  0.0416
21820W        W64914  28.204  17.360  22.322  0.1475  0.1256  0.2177
21821W        W64915  28.811  16.220  27.585  0.0623  0.1012  0.1235
21822W        W64916  27.380  15.460  26.078  0.1468  0.3090  0.1865
21823W        W64917  28.685  14.786  24.271  0.3716  0.1181  0.2722
21824W        W64918  30.377  17.996  24.970  0.2997  0.4554 -0.3136
21825W        W64919  25.537  16.774  25.857  0.1875  0.0623 -0.0682
21826W        W64920  29.169  17.956  24.559  0.0001 -0.0711  0.2327
21827W        W64921  25.086  15.879  27.334 -0.0551  0.3270 -0.0121
21828W        W64922  28.145  17.611  26.676 -0.0595 -0.1138 -0.0436
21829W        W64923  28.500  19.203  27.858 -0.1129 -0.0983  0.2434
21830W        W64924  27.813  16.510  23.649  0.0165  0.0411  0.0011
21831W        W64925  27.062  15.052  26.508  0.0723  0.0395  0.0469
21832W        W64926  27.648  16.882  27.103  0.0701  0.0435 -0.0535
21833W        W64927  26.412  16.865  25.911  0.1400  0.2093 -0.1307
21834W        W64928  23.942  15.186  27.129  0.1059  0.3529 -0.1134
21835W        W64929  29.122  17.044  27.703 -0.0735  0.0101  0.0302
21836W        W64930  25.420  18.602  27.187  0.0697 -0.1546  0.0893
21837W        W64931  27.713  14.821  26.716 -0.0787  0.2785 -0.0504
21838W        W64932  27.612  16.682  25.438  0.0395 -0.0018  0.2479
21839W        W64933  27.112  17.180  25.282  0.0213  0.1338 -0.0605
21840W        W64934  27.248  14.477  27.274  0.1066 -0.0769 -0.1496
21841W        W64935  28.206  15.705  26.249  0.0657 -0.0533  0.0323
21842W        W64936  27.413  18.402  24.095 -0.0053 -0.0503  0.3954
21843W        W64937  24.412  16.074  23.862  0.1001  0.1567  0.2869
21844W        W64938  25.645  17.398  26.135 -0.3369  0.0316  0.0477
21845W        W64939  26.019  17.804  28.720  0.0018  0.0137 -0.0477
21846W        W64940  28.593  16.398  25.599  0.1880  0.2638 -0.0149
21847W        W64941  28.465  17.279  26.433  0.0593  0.2023  0.0390
21848W        W64942  27.172  17.429  26.646  0.0290  0.0871  0.1323
21849W        W64943  27.294  17.527  25.603 -0.0881 -0.0356  0.2685
21850W        W64944  29.441  14.214  27.196  0.1974 -0.0510  0.1001
21851W        W64945  25.631  15.204  27.899 -0.0416  0.2098  0.2657
21852W        W64946  26.632  17.734  24.822 -0.0098 -0.0663 -0.0420
21853W        W64947  26.447  18.165  24.424 -0.1352  0.0252 -0.0638
21854W        W64948  28.447  17.975  25.404 -0.1023 -0.1665 -0.3198
21855W        W64949  27.785  16.527  28.378  0.1267 -0.0020 -0.3593
21856W        W64950  26.878  18.095  27.613 -0.1778  0.0618  0.0950
21857W        W64951  26.401  17.308  24.799  0.2647  0.0393  0.0530
21858W        W64952  26.549  16.086  27.005  0.0876 -0.3293  0.3104
21859W        W64953  25.514  16.166  27.953  0.4662 -0.2592 -0.1502
21860W        W64954  28.612  16.294  26.442  0.0604  0.2224 -0.1370
21861W        W64955  26.003  16.582  26.006  0.0282 -0.2757 -0.0055
21862W        W64956  28.373  18.366  24.511  0.1389  0.0557  0.1730
21863W        W64957  26.205  17.239  25.217 -0.1689  0.2492 -0.0752
21864W        W64958  26.281  15.728  28.324  0.0505 -0.0584  0.0973
21865W        W64959  25.457  18.336  25.423 -0.0340  0.1587  0.7502
21866W        W64960  28.392  14.426  27.224  0.0345  0.2756 -0.1261
21867W        W64961  26.951  18.248  24.305 -0.1822  0.0622 -0.0845
21868W        W64962  29.262  15.649  23.972  0.0300 -0.0572 -0.0543
21869W        W64963  25.867  15.734  24.410 -0.2176 -0.1192  0.0159
21870W        W64964  29.357  17.412  24.285 -0.2930  0.0596  0.0686
21871W        W64965  27.785  14.627  27.314 -0.2111 -0.1640  0.0420
21872W        W64966  26.323  18.824  25.794 -0.1459 -0.3523 -0.1714
21873W        W64967  27.375  14.531  26.293  0.0603 -0.0292 -0.2083
21874W        W64968  27.952  16.296  27.883  0.1934 -0.0984  0.2228
21875W        W64969  26.417  16.277  24.866 -0.1439  0.0323 -0.0341
21876W        W64970  28.072  16.526  26.853 -0.0750  0.3335 -0.2311
21877W        W64971  26.078  16.636  27.649 -0.1077  0.0542  0.1828
21878W        W64972  26.972  17.128  26.265 -0.0423 -0.0679 -0.3589
21879W        W64973  29.948  18.484  24.540 -0.2352 -0.1503  0.1006
21880W        W64974  29.669  18.466  26.402  0.1731 -0.2606  0.1161
21881W        W64975  27.904  18.014  24.710 -0.0889 -0.0326  0.2551
21882W        W64976  27.291  17.067  25.823  0.1017  0.0467 -0.0983
21883W        W64977  24.364  18.080  27.146  0.1597 -0.0901 -0.0619
21884W        W64978  23.294  17.195  26.878  0.1142  0.0280  0.3321
21885W        W64979  24.958  17.002  22.792 -0.1620 -0.0407 -0.2812
21886W        W64980  28.567  15.844  27.312 -0.4157  0.1078  0.0798
21887W        W64981  26.011  18.374  27.149 -0.2750  0.0684  0.1543
21888W        W64982  29.404  17.161  24.800 -0.2595  0.0227  0.3287
21889W        W64983  27.743  16.113  25.563 -0.1020 -0.0377 -0.1971
21890W        W64984  28.613  19.127  26.806  0.2695 -0.2236 -0.1733
21891W        W64985  28.582  18.185  23.817  0.1907 -0.1650 -0.0104
21892W        W64986  29.158  15.942  25.896 -0.1084 -0.0895  0.1774
21893W        W64987  28.950  14.181  25.775 -0.3048 -0.0301 -0.2149
21894W        W64988  26.946  17.741  24.457 -0.4442 -0.0246  0.1416
21895W        W64989  27.880  16.853  24.750 -0.0612  0.1215 -0.0779
21896W        W64990  28.739  17.444  27.738 -0.2910  0.0655 -0.3787
21897W        W64991  30.004  15.577  23.355 -0.2841  0.1584 -0.1006
21898W        W64992  26.365  18.307  25.833 -0.1085  0.0139 -0.0240
21899W        W64993  26.827  16.296  27.549 -0.0356  0.3891  0.6263
21900W        W64994  25.886  17.844  26.037  0.0851 -0.1652 -0.0682
21901W        W64995  26.160  17.926  23.644  0.1283 -0.1478 -0.0399
21902W        W64996  24.821  16.609  26.893 -0.2159 -0.1165 -0.0830
21903W        W64997  26.873  16.707  25.814 -0.0185  0.3993  0.1004
21904W        W64998  24.842  15.804  26.864 -0.1426 -0.2179  0.2084
21905W        W64999  25.383  17.782  27.880 -0.2226 -0.4460 -0.1239
21906W        W65000  28.745  15.263  24.467 -0.0773 -0.1425  0.1701
21907W        W65001  26.618  14.999  27.095 -0.0067  0.3757  0.0085
21908W        W65002  28.479  14.328  25.579  0.0957  0.0121  0.0672
21909W        W65003  26.304  17.513  26.111  0.3670 -0.1124 -0.1608
21910W        W65004  28.751  17.859  24.945 -0.1430  0.3406 -0.1550
21911W        W65005  29.086  16.345  25.069 -0.2377 -0.0173  0.2291
21912W        W65006  27.412  17.761  24.660 -0.2411 -0.1357 -0.1960
21913W        W65007  24.684  15.437  25.735 -0.1844  0.1082  0.2568
21914W        W65008  24.752  15.297  26.767 -0.1912 -0.2171 -0.0890
21915W        W65009  25.795  15.736  27.977  0.1031 -0.1117  0.0386
21916W        W65010  25.563  15.980  25.862 -0.0757 -0.0921  0.1417
21917W        W65011  29.164  15.778  27.136  0.1851  0.2738  0.0039
21918W        W65012  25.782  16.372  25.570 -0.0640 -0.2461  0.4652
21919W        W65013  28.108  15.091  25.364  0.0341 -0.0872  0.0661
21920W        W65014  27.126  17.967  25.740 -0.1914 -0.3212 -0.0771
21921W        W65015  27.099  17.786  25.093 -0.1014 -0.0750 -0.2725
21922W        W65016  28.725  14.558  25.960 -0.1792 -0.0318 -0.1133
21923W        W65017  27.890  18.682  23.154  0.5606 -0.2497  0.1665
21924W        W65018  29.767  16.022  27.358 -0.3042  0.2573 -0.0101
21925W        W65019  29.805  18.304  25.065 -0.0105  0.3492 -0.1387
21926W        W65020  26.638  15.367  26.704 -0.1648  0.3329 -0.2964
21927W        W65021  26.443  16.761  24.550 -0.0615 -0.1164  0.1356
21928W        W65022  25.771  18.349  25.873 -0.4175  0.1623 -0.2631
21929W        W65023  26.676  16.577  27.127  0.2841  0.2374  0.0338
21930W        W65024  26.981  15.302  25.849 -0.0345 -0.0229  0.0067
21931W        W65025  29.353  20.034  25.628 -0.2106  0.2134 -0.2395
21932W        W65026  27.750  16.831  25.955 -0.3557  0.1841  0.1355
21933W        W65027  25.358  16.941  27.690 -0.0228  0.0232 -0.3985
21934W        W65028  28.930  16.232  28.191 -0.1823  0.0597  0.0986
21935W        W65029  29.602  15.141  26.883 -0.1229 -0.3609 -0.0283
21936W        W65030  28.643  16.856  25.515  0.3009  0.3142  0.3613
21937W        W65031  26.812  16.245  25.141 -0.3978 -0.0020 -0.1342
21938W        W65032  27.961  19.493  25.799 -0.2281  0.0790  0.0805
21939W        W65033  26.575  17.894  24.023 -0.1572  0.1706 -0.0483
21940W        W65034  24.982  16.941  26.552  0.2087  0.1736 -0.2451
21941W        W65035  25.839  17.230  26.532  0.2381 -0.1638  0.2267
21942W        W65036  29.215  14.389  24.314  0.1477  0.2965 -0.0644
21943W        W65037  25.325  16.405  28.296  0.1076  0.1342  0.2056
21944W        W65038  27.535  14.938  27.713 -0.0503  0.0855  0.2089
21945W        W65039  25.972  17.082  26.062 -0.0577  0.0510  0.1296
21946W        W65040  26.921  17.299  27.819  0.1109  0.1641 -0.2657
21947W        W65041  28.774  15.580  25.928  0.0682 -0.0776  0.0411
21948W        W65042  27.619  16.215  23.973  0.1334 -0.0202  0.2866
21949W        W65043  27.310  16.300  27.091  0.0811  0.2760 -0.1137
21950W        W65044  28.789  17.766  25.943  0.1149 -0.0331 -0.1737
21951W        W65045  27.338  14.968  24.793  0.0603  0.0691  0.1739
21952W        W65046  25.702  15.425  25.135 -0.2882 -0.1700 -0.1542
21953W        W65047  25.593  17.805  27.329  0.1754 -0.0608 -0.1770
21954W        W65048  27.528  16.052  24.738 -0.1996  0.1243 -0.0025
21955W        W65049  28.137  17.193  25.611 -0.0135  0.0184  0.1432
21956W        W65050  27.470  14.704  23.984 -0.0332 -0.2035 -0.2363
21957W        W65051  30.176  18.955  24.479  0.2319  0.1919 -0.0492
21958W        W65052  25.430  17.370  26.771 -0.4274  0.0463 -0.0886
21959W        W65053  27.345  17.190  27.399  0.2664 -0.0477  0.1092
21960W        W65054  28.351  18.206  24.964  0.0355 -0.1023  0.0879
21961W        W65055  27.039  13.961  27.212  0.0066 -0.1632 -0.0788
21962W        W65056  25.674  16.784  24.049  0.2295  0.0668  0.1288
21963W        W65057  26.378  15.963  25.251  0.0412 -0.0736  0.2020
21964W        W65058  26.287  18.251  24.968 -0.4160 -0.0923 -0.0228
21965W        W65059  27.878  15.313  26.084  0.0182 -0.1550  0.1039
21966W        W65060  27.529  16.240  26.650 -0.1599  0.3758  0.4720
21967W        W65061  27.251  14.018  26.287  0.2695  0.0177  0.1592
21968W        W65062  28.496  15.732  28.636  0.0930  0.2890  0.1710
21969W        W65063  27.818  16.411  25.031  0.0294 -0.2017 -0.1299
21970W        W65064  28.174  16.669  25.726  0.0603 -0.1702  0.3318
21971W        W65065  26.294  16.757  25.102 -0.0464 -0.1244  0.3669
21972W        W65066  28.141  14.919  26.964  0.2099  0.0287  0.0996
21973W        W65067  23.921  16.299  26.822  0.0946 -0.0195  0.0441
21974W        W65068  26.369  19.371  26.765  0.0447  0.2391  0.3601
21975W        W65069  26.699  17.484  26.844 -0.0965  0.0973  0.1926
21976W        W65070  28.216  17.512  26.062  0.0567  0.0242  0.0390
21977W        W65071  27.389  14.980  28.411  0.2806 -0.0614  0.2022
21978W        W65072  27.585  15.367  25.121  0.2210  0.0350  0.1958
21979W        W65073  26.994  19.600  24.130 -0.0898  0.3606  0.1221
21980W        W65074  28.987  17.418  25.125 -0.2524  0.1446 -0.0439
21981W        W65075  26.061  16.020  25.915 -0.0790 -0.2059  0.0048
21982W        W65076  27.681  17.486  25.930 -0.6309 -0.2763  0.1558
21983W        W65077  29.287  18.988  24.678  0.3306  0.1598 -0.1179
21984W        W65078  27.065  16.268  26.199 -0.0115  0.1510 -0.0316
21985W        W65079  26.463  18.576  25.371 -0.0581 -0.1929 -0.0377
21986W        W65080  28.225  13.873  26.453 -0.1718  0.2004  0.1210
21987W        W65081  25.300  17.864  26.075  0.3677  0.0417  0.1414
21988W        W65082  26.816  17.222  24.447 -0.0947  0.0178  0.2666
21989W        W65083  25.556  17.234  25.560  0.0065  0.1902 -0.0983
21990W        W65084  28.608  15.370  26.381  0.1860  0.0959  0.1631
21991W        W65085  27.739  17.551  23.866 -0.0248  0.1286 -0.3872
21992W        W65086  26.496  15.860  25.746 -0.1003  0.0291  0.0061
21993W        W65087  27.397  15.882  26.367  0.3123 -0.2253  0.0018
21994W        W65088  26.019  18.016  26.770 -0.0794 -0.0755  0.0562
21995W        W65089  29.289  16.086  27.584  0.1864  0.0019  0.1909
21996W        W65090  27.287  15.889  24.255 -0.1502 -0.1046  0.0404
21997W        W65091  28.212  17.167  27.070  0.1490  0.1445 -0.3446
21998W        W65092  26.714  16.201  28.865  0.1164  0.1475 -0.2966
21999W        W65093  24.707  17.027  24.361  0.2253 -0.0576 -0.1733
22000W        W65094  29.225  16.938  27.119  0.4392  0.0215  0.1218
22001W        W65095  26.616  14.849  26.620 -0.1490  0.5198 -0.0080
22002W        W65096  27.365  16.476  25.818  0.1235  0.2328  0.1167
22003W        W65097  27.937  17.224  25.074 -0.0206  0.0697  0.0095
22004W        W65098  26.041  17.470  25.632 -0.2975 -0.2019  0.0706
22005W        W65099  25.631  17.768  26.477  0.0890  0.0747  0.2586
22006W        W65100  26.433  15.362  27.452  0.1699  0.0377 -0.1803
22007W        W65101  28.763  16.243  28.825  0.0159 -0.0007 -0.0321
22008W        W65102  27.035  15.800  25.997 -0.1328  0.0684 -0.0118
22009W        W65103  25.878  17.160  24.901  0.0455 -0.1169  0.6582
22010W        W65104  26.655  15.344  26.206 -0.2775  0.1313  0.0145
22011W        W65105  28.174  16.694  27.351  0.2924  0.0483 -0.1191
22012W        W65106  28.946  16.531  26.808 -0.1062 -0.2240  0.0573
22013W        W65107  26.374  18.496  28.306 -0.2396 -0.1402  0.0612
22014W        W65108  27.500  14.088  25.818  0.1712  0.1323 -0.2355
22015W        W65109  28.569  19.787  24.950 -0.0603  0.1620 -0.0164
22016W        W65110  28.498  18.009  28.523 -0.2540 -0.1254 -0.1385
22017W        W65111  27.147  17.886  24.052 -0.3218  0.0877  0.2779
22018W        W65112  25.255  16.381  26.545 -0.0374  0.1414 -0.0765
22019W        W65113  28.112  17.674  24.408 -0.2583 -0.1348 -0.1386
22020W        W65114  27.577  14.498  24.928  0.3104 -0.0620  0.4418
22021W        W65115  24.822  17.444  26.661  0.2033  0.1239 -0.1326
22022W        W65116  27.661  17.191  25.499 -0.1786 -0.0669 -0.2021
22023W        W65117  24.876  17.490  27.467 -0.0304  0.0014  0.1380
22024W        W65118  28.692  15.578  24.007  0.0595 -0.1645 -0.1006
22025W        W65119  27.449  18.533  23.498 -0.1821 -0.1173 -0.0405
22026W        W65120  26.517  16.311  26.000 -0.1743 -0.0290 -0.0683
22027W        W65121  29.412  14.743  27.432  0.4880 -0.0051  0.1195
22028W        W65122  29.014  16.868  25.197 -0.3845  0.0383  0.2495
22029W        W65123  28.845  14.762  25.515 -0.2192 -0.0031 -0.0791
22030W        W65124  26.148  15.149  26.460  0.0748 -0.1875  0.0502
22031W        W65125  29.005  17.327  23.942  0.4208  0.1651  0.0851
22032W        W65126  24.897  14.337  27.530 -0.1339  0.3152  0.0282
22033W        W65127  28.530  18.620  27.180 -0.0518  0.4020 -0.1070
22034W        W65128  25.230  16.786  27.232  0.0800 -0.2964  0.1385
22035W        W65129  26.546  14.306  24.455 -0.1192 -0.1407 -0.2319
22036W        W65130  26.046  16.271  25.172 -0.0713  0.1243 -0.1107
22037W        W65131  26.698  16.653  26.289 -0.1500 -0.2121  0.0139
22038W        W65132  28.814  18.332  25.266 -0.1007 -0.0564 -0.1039
22039W        W65133  28.032  17.750  25.542 -0.0268 -0.2117  0.1879
22040W        W65134  27.977  15.639  24.620  0.0749 -0.1794 -0.1083
22041W        W65135  25.895  17.110  27.942  0.1373 -0.0907  0.2478
22042W        W65136  28.658  16.066  25.211  0.2189 -0.1395  0.2968
22043W        W65137  28.776  16.968  24.830 -0.0864  0.2660  0.0128
22044W        W65138  26.615  18.046  25.305 -0.2372 -0.1301 -0.1477
22045W        W65139  26.749  15.594  27.148 -0.2051 -0.0406 -0.0463
22046W        W65140  29.039  17.313  25.678  0.0392 -0.4057 -0.0085
22047W        W65141  27.462  16.977  25.010  0.2481 -0.2101  0.0139
22048W        W65142  28.154  16.179  25.981 -0.0187  0.5049  0.0018
22049W        W65143  28.931  14.147  27.193 -0.3986  0.0828  0.0713
22050W        W65144  27.695  16.489  27.399  0.0541  0.1602  0.1508
22051W        W65145  25.885  15.032  28.338 -0.1385  0.2220  0.1271
22052W        W65146  27.004  16.453  26.632  0.0546 -0.0793 -0.1005
22053W        W65147  27.311  16.618  23.838 -0.0723  0.0596  0.1046
22054W        W65148  28.971  15.738  26.368 -0.0718 -0.1238  0.0579
22055W        W65149  28.518  16.585  26.071  0.0839  0.0929 -0.1977
22056W        W65150  27.207  15.552  23.418  0.1508  0.1215 -0.0510
22057W        W65151  25.659  15.342  27.236  0.0841  0.1711 -0.1248
22058W        W65152  27.875  15.705  26.612  0.0381  0.2189  0.1603
22059W        W65153  26.885  16.823  24.149 -0.0046  0.0538 -0.0624
22060W        W65154  28.013  15.218  26.556 -0.1690  0.0257 -0.0428
22061W        W65155  27.342  17.364  24.184  0.0576  0.0591 -0.2243
22062W        W65156  27.882  18.167  25.250 -0.1456 -0.0285 -0.0702
22063W        W65157  27.434  16.577  23.301 -0.2083 -0.2984  0.3570
22064W        W65158  23.867  15.907  26.544  0.0964 -0.1289 -0.1920
22065W        W65159  25.985  17.810  27.818  0.0146 -0.0124 -0.1680
22066W        W65160  26.173  16.686  24.169  0.3139  0.0032 -0.1817
22067W        W65161  26.581  16.392  24.086  0.1275 -0.1611  0.1881
22068W        W65162  26.700  16.953  26.716 -0.0093  0.0301 -0.0170
22069W        W65163  27.579  14.684  28.109 -0.2327  0.0178  0.1218
22070W        W65164  26.657  14.040  24.066  0.2627  0.0396 -0.0842
22071W        W65165  29.071  13.991  27.706  0.2844  0.1838 -0.4303
22072W        W65166  27.089  16.650  25.279 -0.0838  0.1417 -0.0978
22073W        W65167  27.468  14.977  27.204 -0.1625 -0.0708 -0.0992
22074W        W65168  26.650  18.966  26.642  0.0968  0.0384 -0.1093
22075W        W65169  24.388  16.476  27.841  0.0727 -0.2114 -0.1890
22076W        W65170  25.748  18.120  25.110  0.0422 -0.1158  0.0481
22077W        W65171  28.611  16.927  26.837 -0.1152  0.1187  0.1786
22078W        W65172  27.670  16.372  26.206 -0.2902 -0.2322 -0.0438
22079W        W65173  27.918  15.604  25.607  0.0902 -0.1329  0.4355
22080W        W65174  30.039  16.443  27.651 -0.3338  0.1355 -0.0576
22081W        W65175  26.630  17.676  27.453 -0.1682  0.2347 -0.1350
22082W        W65176  26.855  17.169  27.187 -0.2543  0.3380  0.3708
22083W        W65177  27.703  18.532  25.408 -0.1808 -0.1255 -0.1191
22084W        W65178  30.397  16.228  24.008 -0.1922  0.1723 -0.2516
22085W        W65179  26.638  17.273  25.844  0.0864  0.0715  0.2168
22086W        W65180  24.636  15.228  28.357  0.1184  0.0793 -0.4713
22087W        W65181  26.069  17.104  28.438 -0.0475 -0.0707  0.1753
22088W        W65182  28.680  16.117  26.026  0.1960  0.0076 -0.1421
22089W        W65183  27.340  14.993  26.109  0.0120  0.1170  0.0888
22090W        W65184  27.755  18.964  25.031 -0.0703  0.2428 -0.0427
22091W        W65185  25.520  19.411  27.802 -0.3085 -0.1003  0.0640
22092W        W65186  24.278  17.556  28.151 -0.2771 -0.0749 -0.0052
22093W        W65187  26.133  17.960  25.585 -0.2836 -0.2007 -0.1557
22094W        W65188  28.596  17.920  24.453 -0.1564  0.1777 -0.0185
22095W        W65189  28.218  16.485  23.972  0.0256  0.2892 -0.1497
22096W        W65190  27.245  18.421  26.369 -0.0644 -0.1949 -0.2042
22097W        W65191  26.835  15.636  25.452 -0.1135  0.1439 -0.1305
22098W        W65192  25.830  18.344  24.645  0.0990  0.0647 -0.0195
22099W        W65193  23.950  18.295  24.239  0.1074  0.1870  0.0907
22100W        W65194  27.900  18.392  24.361 -0.1863  0.1777 -0.1772
22101W        W65195  26.835  18.477  26.685  0.1552  0.1289  0.1612
22102W        W65196  27.146  16.483  28.163 -0.1600  0.1955 -0.1391
22103W        W65197  28.993  13.430  24.296 -0.0356 -0.0984 -0.2385
22104W        W65198  29.777  15.533  27.164  0.1820  0.3504  0.3482
22105W        W65199  28.528  15.678  24.643 -0.3254  0.0050 -0.0713
22106W        W65200  27.977  15.129  28.310 -0.0816 -0.0137 -0.0127
22107W        W65201  26.334  16.290  27.391 -0.1329  0.2300 -0.1841
22108W        W65202  26.048  15.287  24.773 -0.1035 -0.0529 -0.2116
22109W        W65203  25.171  16.898  28.242  0.0244  0.0709  0.0056
22110W        W65204  29.279  15.412  24.888 -0.2145 -0.1166  0.2326
22111W        W65205  23.808  17.293  28.260 -0.0688  0.2087 -0.1627
22112W        W65206  28.284  20.489  25.429  0.0858 -0.0261 -0.5680
22113W        W65207  27.377  15.702  25.488  0.0255  0.1644 -0.1168
22114W        W65208  26.649  15.886  26.261 -0.1286 -0.0446 -0.0714
22115W        W65209  29.824  13.268  25.632 -0.0494 -0.1247 -0.0669
22116W        W65210  26.921  16.360  23.526  0.0761 -0.0729  0.2500
22117W        W65211  28.395  14.880  25.785 -0.0797  0.2738 -0.0080
22118W        W65212  26.942  18.817  25.047  0.1936  0.0152  0.1842
22119W        W65213  26.328  17.979  26.335 -0.1747 -0.1287  0.0857
22120W        W65214  27.607  17.587  25.168  0.0982  0.0961 -0.1797
22121W        W65215  26.883  15.977  24.618  0.5246 -0.2253  0.1128
22122W        W65216  29.519  16.621  26.079  0.1463 -0.0114  0.0489
22123W        W65217  27.728  15.384  26.974 -0.0769 -0.1502 -0.5326
22124W        W65218  29.081  14.372  26.285 -0.0791  0.0292  0.0699
22125W        W65219  25.140  14.584  25.568  0.0515  0.3405  0.3664
22126W        W65220  26.780  15.944  24.098 -0.1071  0.3993  0.1734
22127W        W65221  27.514  17.137  26.372  0.0996  0.2666  0.3150
22128W        W65222  26.541  15.863  27.522 -0.1493  0.1064  0.0340
22129W        W65223  26.399  15.330  24.359  0.1714 -0.1948  0.0143
22130W        W65224  29.282  17.138  26.105  0.2043 -0.3613 -0.0167
22131W        W65225  27.191  16.089  23.242 -0.2436 -0.0230 -0.0223
22132W        W65226  27.820  18.474  26.908  0.1238 -0.2637 -0.1716
22133W        W65227  24.792  16.137  26.500 -0.0173 -0.1786 -0.0799
22134W        W65228  26.497  15.552  24.868  0.3604 -0.0521 -0.4162
22135W        W65229  26.154  16.323  26.353 -0.1707 -0.1827 -0.3131
22136W        W65230  27.275  16.913  26.742  0.0998 -0.1408  0.0407
22137W        W65231  27.600  17.289  26.847 -0.3022  0.0523 -0.1797
22138W        W65232  25.633  15.469  26.133  0.0404  0.1227  0.2275
22139W        W65233  28.376  16.982  24.461  0.0415  0.4377  0.0448
22140W        W65234  28.957  16.785  25.890 -0.2539  0.5223 -0.1614
22141W        W65235  26.984  18.871  23.315  0.1633  0.2278 -0.2252
22142W        W65236  28.969  17.866  25.466 -0.2087  0.3589 -0.0800
22143W        W65237  27.962  17.190  26.543  0.0481 -0.2405 -0.0439
22144W        W65238  24.224  16.298  25.904 -0.1666 -0.5359  0.3723
22145W        W65239  28.241  18.409  26.569  0.2224  0.0247  0.1408
22146W        W65240  28.514  18.137  26.903 -0.2165  0.2054 -0.1801
22147W        W65241  25.941  15.790  24.906 -0.0144  0.0043  0.1664
22148W        W65242  27.048  15.565  26.414  0.0624  0.0237  0.1916
22149W        W65243  26.129  17.791  24.712 -0.2015 -0.0880  0.1535
22150W        W65244  29.217  15.422  25.875  0.1550 -0.2304 -0.0109
22151W        W65245  29.077  14.910  26.836  0.2685  0.2812  0.0011
22152W        W65246  26.948  18.312  23.210  0.0235 -0.3679 -0.1603
22153W        W65247  29.010  15.022  27.607  0.0331  0.3031  0.1242
22154W        W65248  26.768  18.091  26.077  0.1091  0.2874 -0.3170
22155W        W65249  26.282  18.514  26.673  0.0655  0.1506 -0.2130
22156W        W65250  26.432  17.112  24.165 -0.2760  0.0856 -0.0444
22157W        W65251  25.682  16.758  28.365 -0.1740  0.0349  0.0011
22158W        W65252  26.634  17.751  25.684  0.0220 -0.3153  0.1792
22159W        W65253  27.496  18.059  25.027  0.2772  0.0667  0.0151
22160W        W65254  27.666  17.584  26.438  0.0359 -0.1863 -0.1557
22161W        W65255  28.613  16.537  25.080  0.0927 -0.1812 -0.3923
22162W        W65256  29.236  18.649  25.602 -0.2092  0.0036 -0.0524
22163W        W65257  25.148  14.729  27.047 -0.1254 -0.1104  0.3295
22164W        W65258  28.838  14.260  25.317 -0.1594 -0.4240  0.0501
22165W        W65259  28.257  16.513  24.710 -0.1572  0.1840 -0.0319
22166W        W65260  28.247  16.841  26.395 -0.0317  0.4081  0.0292
22167W        W65261  26.639  16.862  25.422  0.1178 -0.1739  0.2122
22168W        W65262  25.244  17.528  24.239  0.0077 -0.1659  0.0368
22169W        W65263  26.194  17.035  26.822  0.0126 -0.0993 -0.0160
22170W        W65264  26.194  15.555  27.025 -0.0711 -0.1636  0.0094
22171W        W65265  25.521  16.842  26.830  0.1777  0.0081 -0.0957
22172W        W65266  26.630  17.404  25.283 -0.1792  0.4165  0.3351
22173W        W65267  25.618  16.342  26.230 -0.1542  0.0302  0.4670
22174W        W65268  29.467  18.489  24.675  0.0775 -0.1592 -0.2001
22175W        W65269  25.852  14.940  26.075  0.1052 -0.1343 -0.0241
22176W        W65270  25.299  15.035  25.872 -0.0674 -0.0001 -0.1682
22177W        W65271  27.244  18.829  25.460  0.1158 -0.1599 -0.2173
22178W        W65272  28.935  18.738  24.990  0.0685  0.2068 -0.1027
22179W        W65273  27.454  15.447  24.603  0.3150 -0.1216 -0.1824
22180W        W65274  28.335  17.231  27.544 -0.1401 -0.0853 -0.0234
22181W        W65275  26.629  18.712  24.231 -0.1075  0.0240  0.2012
22182W        W65276  28.296  14.828  29.167 -0.1818  0.1378 -0.0070
22183W        W65277  27.218  15.377  27.087  0.0438  0.3299  0.3266
22184W        W65278  26.337  15.724  23.962 -0.0574 -0.0248 -0.2182
22185W        W65279  27.809  14.829  26.111 -0.1168 -0.0789  0.0897
22186W        W65280  27.034  18.256  25.307  0.1132 -0.0017  0.0091
22187W        W65281  28.840  18.297  24.715  0.0057 -0.0301  0.2360
22188W        W65282  27.092  15.775  27.496 -0.0064 -0.1782 -0.1274
22189W        W65283  26.741  17.584  26.350 -0.2509 -0.2368  0.0898
22190W        W65284  25.972  16.015  27.221  0.0055 -0.1959  0.3733
22191W        W65285  28.173  17.708  25.009 -0.2381 -0.2110 -0.0927
22192W        W65286  26.434  18.254  27.340  0.3964 -0.2004  0.5399
22193W        W65287  29.757  17.887  24.699 -0.1535 -0.2787 -0.0247
22194W        W65288  28.860  15.093  25.951  0.0126  0.0192  0.0655
22195W        W65289  27.393  16.891  24.389  0.0936  0.3048 -0.0198
22196W        W65290  25.257  15.724  26.444 -0.0038 -0.0513  0.2490
22197W        W65291  26.361  17.067  26.384 -0.0926  0.0466 -0.3201
22198W        W65292  30.184  17.084  26.670 -0.0155 -0.1638  0.1375
22199W        W65293  26.620  14.718  25.472  0.3231  0.0600  0.0958
22200W        W65294  28.199  16.050  24.851 -0.0812  0.1319 -0.0444
22201W        W65295  26.286  17.717  25.183  0.1423  0.2526  0.2142
22202W        W65296  24.975  16.386  27.914  0.1704  0.1544 -0.1661
22203W        W65297  28.185  16.238  25.380  0.1603 -0.0076 -0.1106
22204W        W65298  27.523  15.231  25.624 -0.0483  0.1630  0.1346
22205W        W65299  28.255  18.450  25.403  0.0856  0.0038  0.2472
22206W        W65300  28.570  14.981  26.783 -0.2261 -0.1420  0.1130
22207W        W65301  28.081  16.744  25.221  0.2186  0.1779  0.2616
22208W        W65302  30.329  16.983  25.006  0.1480 -0.1603 -0.3962
22209W        W65303  27.734  18.476  26.295 -0.0115 -0.1201  0.1043
22210W        W65304  28.386  17.716  27.617 -0.0744 -0.1995 -0.2941
22211W        W65305  26.952  18.098  27.120 -0.0451 -0.3106  0.1982
22212W        W65306  28.571  17.507  25.542 -0.0908  0.0877  0.0359
22213W        W65307  25.470  16.397  27.525  0.3166  0.0274  0.0600
22214W        W65308  27.965  18.506  24.923  0.1439  0.0326 -0.0557
22215W        W65309  27.116  17.368  24.819 -0.1594  0.1018  0.4423
22216W        W65310  27.219  16.718  26.243 -0.1067  0.6232  0.0859
22217W        W65311  26.368  15.851  26.647 -0.0436  0.2839 -0.0086
22218W        W65312  27.587  13.678  25.287  0.3477 -0.3110  0.1435
22219W        W65313  25.807  17.490  27.032  0.4858  0.3597  0.0252
22220W        W65314  27.748  16.723  26.557  0.1583 -0.1504  0.0018
22221W        W65315  26.975  16.076  31.657  0.1148 -0.0759 -0.0509
22222W        W65316  25.947  15.612  29.420 -0.0357 -0.0871  0.2264
22223W        W65317  27.463  14.598  28.696  0.0696 -0.1424 -0.1476
22224W        W65318  29.474  17.056  29.701  0.2945 -0.0144 -0.0439
22225W        W65319  25.863  14.914  27.532  0.0567 -0.0123  0.1637
22226W        W65320  27.873  17.103  28.137 -0.1747  0.0361  0.1391
22227W        W65321  25.770  14.362  29.730  0.0484  0.1288 -0.0337
22228W        W65322  28.042  16.804  29.079 -0.0653  0.2218  0.3555
22229W        W65323  27.087  16.140  30.117 -0.2911  0.2305 -0.0842
22230W        W65324  26.460  17.113  27.929  0.0110  0.0672  0.2193
22231W        W65325  25.655  15.211  30.262  0.0032 -0.3193 -0.0515
22232W        W65326  26.003  16.465  30.567 -0.1181  0.2546  0.0727
22233W        W65327  27.640  15.884  27.161 -0.1307 -0.2181  0.0818
22234W        W65328  24.362  15.622  30.011  0.1302  0.3881 -0.2222
22235W        W65329  28.056  15.924  30.209 -0.1676 -0.2688 -0.0429
22236W        W65330  25.130  18.455  27.951 -0.0187 -0.0125 -0.0952
22237W        W65331  28.145  14.735  30.092 -0.1073  0.0388  0.0050
22238W        W65332  27.958  15.783  28.888 -0.0468 -0.1308 -0.1148
22239W        W65333  27.891  18.786  30.022  0.1359  0.0299 -0.1971
22240W        W65334  27.752  14.364  30.601  0.1061 -0.0286  0.0701
22241W        W65335  27.582  14.631  30.080  0.0608 -0.0549 -0.2956
22242W        W65336  25.994  18.836  27.083  0.0537 -0.2178  0.0918
22243W        W65337  25.203  15.367  28.358 -0.0934 -0.0300  0.4192
22244W        W65338  25.724  16.458  29.720 -0.0042  0.1880  0.0411
22245W        W65339  26.068  18.181  30.132  0.0997  0.0661  0.2483
22246W        W65340  29.462  15.503  28.356 -0.4250 -0.2588  0.2880
22247W        W65341  27.815  15.208  31.429  0.1775  0.0574  0.0478
22248W        W65342  27.505  17.828  28.821  0.0900  0.0546  0.3294
22249W        W65343  28.597  17.858  29.961  0.0989  0.4041  0.0845
22250W        W65344  27.672  17.196  31.751  0.0306  0.1393  0.2160
22251W        W65345  24.678  16.099  29.735 -0.0348  0.0439  0.2240
22252W        W65346  25.871  18.625  30.314  0.2861  0.1983 -0.0327
22253W        W65347  26.099  18.331  27.953 -0.0916 -0.1355 -0.0859
22254W        W65348  31.282  17.126  29.248 -0.2885  0.1321 -0.0137
22255W        W65349  26.873  17.638  30.583  0.0135 -0.4602 -0.0707
22256W        W65350  26.952  18.115   0.309 -0.0202  0.0159 -0.0325
22257W        W65351  25.983  15.616  27.488  0.0342 -0.0715  0.0276
22258W        W65352  28.156  18.318   0.074 -0.1855  0.0452 -0.0777
22259W        W65353  26.496  16.711  30.554  0.0354 -0.0566 -0.4340
22260W        W65354  26.201  17.012  29.715  0.1590 -0.2370 -0.1009
22261W        W65355  26.478  16.459  30.120 -0.0559  0.2059  0.0489
22262W        W65356  27.558  18.297  27.741  0.2551 -0.1011 -0.2029
22263W        W65357  26.899  17.253  28.662  0.1975 -0.2082 -0.0007
22264W        W65358  27.833  16.221  29.693  0.0151  0.0572 -0.1358
22265W        W65359  27.511  18.303  29.005 -0.3332 -0.0895 -0.1589
22266W        W65360  27.236  15.392  31.345  0.0705 -0.0383  0.1579
22267W        W65361  26.801  16.854  27.571  0.1550  0.4990 -0.0322
22268W        W65362  28.174  15.363  28.674 -0.1408  0.1008 -0.0389
22269W        W65363  28.154  16.162  27.404 -0.2011 -0.0678  0.1681
22270W        W65364  26.775  15.697  28.989 -0.0344 -0.3968  0.0811
22271W        W65365  26.188  14.644  27.869  0.1615 -0.1072 -0.0562
22272W        W65366  27.212  19.193  29.439 -0.1773 -0.3272  0.0440
22273W        W65367  27.198  14.848  29.100  0.1866  0.1612 -0.0645
22274W        W65368  26.255  16.046  29.950 -0.0448 -0.4273  0.0011
22275W        W65369  27.186  15.828  27.955  0.0449 -0.0843  0.2650
22276W        W65370  28.277  16.425  29.431  0.1809 -0.2856 -0.2899
22277W        W65371  27.075  17.351  31.159  0.0613  0.3091 -0.2898
22278W        W65372  25.222  14.245  28.964 -0.0714 -0.0895  0.1457
22279W        W65373  29.099  17.596  28.580 -0.1726 -0.0628 -0.1078
22280W        W65374  27.636  16.137  28.688 -0.0710  0.0215  0.2067
22281W        W65375  27.581  16.113  28.170 -0.2292  0.2608 -0.0782
22282W        W65376  24.917  17.173  28.580  0.1364  0.1764  0.0918
22283W        W65377  26.629  15.412   0.142 -0.2026 -0.0194  0.1037
22284W        W65378  27.570  15.952  30.821  0.2427  0.0708  0.2038
22285W        W65379  26.429  14.909  26.131  0.0754  0.3425 -0.0675
22286W        W65380  28.265  17.748  30.415  0.1451 -0.0251  0.0598
22287W        W65381  25.306  17.687  31.602 -0.3751 -0.1717  0.2142
22288W        W65382  29.030  14.800  28.082 -0.1789 -0.2277 -0.3487
22289W        W65383  27.840  16.370  30.690  0.1519  0.0808 -0.3093
22290W        W65384  29.080  18.291  30.081  0.0303  0.4618  0.0258
22291W        W65385  28.482  18.036  29.067  0.1586 -0.2363  0.1476
22292W        W65386  28.317  14.377  29.516 -0.2330 -0.0014  0.4152
22293W        W65387  27.445  14.150  30.147 -0.1577 -0.1126  0.1115
22294W        W65388  25.939  16.641  29.301  0.3754 -0.2872 -0.1215
22295W        W65389  26.512  15.576  27.929 -0.1539 -0.1125 -0.1886
22296W        W65390  28.879  16.563  30.435  0.0276 -0.1286  0.0387
22297W        W65391  27.438  15.647  28.511  0.1195 -0.1695  0.2094
22298W        W65392  26.810  18.029  29.050 -0.0439  0.1813  0.2564
22299W        W65393  27.351  16.153  29.591 -0.0194 -0.4155  0.3723
22300W        W65394  27.021  18.643  31.250 -0.1434  0.1627  0.0118
22301W        W65395  25.628  18.582  28.064  0.0696 -0.1890  0.0134
22302W        W65396  24.412  16.274  28.274 -0.1713 -0.1300 -0.2419
22303W        W65397  24.836  15.650  28.633  0.5518  0.0410  0.1186
22304W        W65398  26.651  14.118  31.207  0.3871 -0.0637  0.5126
22305W        W65399  27.992  16.930  30.370  0.2555 -0.1807  0.0027
22306W        W65400  28.407  15.385  27.521  0.0912  0.1014  0.0131
22307W        W65401  24.891  16.373  30.479 -0.1892  0.1369  0.1465
22308W        W65402  29.100  14.176  29.186 -0.0804 -0.2221 -0.3728
22309W        W65403  25.382  18.008  29.149  0.0673  0.0807  0.2400
22310W        W65404  27.513  17.369  28.000  0.2287  0.0742 -0.2673
22311W        W65405  28.624  16.045  29.420  0.2275  0.0796  0.0379
22312W        W65406  28.556  18.136  27.942  0.0104  0.1898  0.1727
22313W        W65407  25.155  16.184  29.982  0.1422  0.2476  0.0224
22314W        W65408  24.849  16.019  29.173  0.0731  0.1258 -0.1434
22315W        W65409  25.995  14.063  30.801 -0.0724 -0.1233  0.2769
22316W        W65410  26.477  14.081  30.509  0.1497  0.0651  0.3661
22317W        W65411  29.192  15.935  30.335  0.0226 -0.0628 -0.2056
22318W        W65412  27.290  14.928  29.717  0.0867  0.3098 -0.0254
22319W        W65413  27.653  15.271  28.784  0.2448 -0.3972 -0.0407
22320W        W65414  26.149  15.314  28.732 -0.1277  0.2275  0.2160
22321W        W65415  25.972  18.833  28.374  0.0608  0.2391  0.1437
22322W        W65416  28.696  15.464  31.444 -0.0591  0.2600 -0.0644
22323W        W65417  28.656  19.027  28.249 -0.1338  0.0281  0.0670
22324W        W65418  29.972  17.768  29.674  0.2271  0.2567 -0.0660
22325W        W65419  28.948  19.519  30.306 -0.3090 -0.2326 -0.2866
22326W        W65420  25.846  14.442  31.055 -0.0346  0.0067 -0.0316
22327W        W65421  26.133  16.706  28.180  0.3576 -0.3864  0.1016
22328W        W65422  26.366  18.195  28.742  0.4548  0.1220 -0.0535
22329W        W65423  27.097  18.076  28.663 -0.0391  0.0968  0.0096
22330W        W65424  26.287  15.327  29.188  0.3306  0.0336  0.1744
22331W        W65425  28.664  17.436  30.575 -0.1232  0.1417 -0.2130
22332W        W65426  27.318  16.228  27.634  0.0946 -0.0345 -0.2825
22333W        W65427  26.791  17.666  29.507  0.0958  0.0855  0.1560
22334W        W65428  28.486  15.972  31.460  0.1850  0.3185 -0.1223
22335W        W65429  27.737  15.401  30.404 -0.2127 -0.1353  0.1880
22336W        W65430  28.640  16.060  30.171 -0.0047  0.2155  0.0377
22337W        W65431  25.500  14.961  26.776 -0.1504 -0.1598 -0.1342
22338W        W65432  28.683  18.618  28.732 -0.0241 -0.0292 -0.1564
22339W        W65433  26.244  17.927  28.265 -0.0040  0.3153  0.0656
22340W        W65434  24.966  18.775  27.434 -0.1479 -0.2076 -0.4655
22341W        W65435  28.110  19.784  28.606  0.1515 -0.2434  0.2269
22342W        W65436  29.240  15.228  29.864  0.1253  0.2588 -0.3100
22343W        W65437  26.711  16.995  31.313 -0.0609  0.2576  0.0960
22344W        W65438  27.287  17.265  30.701  0.3859 -0.2006  0.1092
22345W        W65439  25.326  15.663  28.759 -0.2766 -0.0482  0.0307
22346W        W65440  26.710  17.067  29.341  0.4772 -0.0880 -0.1682
22347W        W65441  28.433  14.970  28.701 -0.1799  0.3852 -0.1374
22348W        W65442  28.340  15.488  26.909  0.3159 -0.1302  0.0728
22349W        W65443  27.162  17.817  31.490 -0.0579  0.0597 -0.0586
22350W        W65444  29.282  17.617  27.905 -0.0024 -0.1586  0.2375
22351W        W65445  28.143  16.303  28.931 -0.0317  0.0959 -0.2919
22352W        W65446  28.143  13.679  25.987 -0.0787 -0.1685 -0.1509
22353W        W65447  26.808  17.102  30.447 -0.1487 -0.2372  0.0107
22354W        W65448  26.637  17.635  28.110 -0.1743  0.0474 -0.1112
22355W        W65449  24.653  16.243  28.786  0.0129 -0.0762  0.0408
22356W        W65450  28.094  15.367  27.855  0.2007  0.1214  0.2366
22357W        W65451  28.635  17.549  28.734  0.0249  0.2738  0.0203
22358W        W65452  24.862  16.589  28.508 -0.2106 -0.1380  0.2965
22359W        W65453  27.635  17.560  31.375  0.1196 -0.4542 -0.0236
22360W        W65454  27.301  17.357  30.209 -0.2190  0.0133  0.2583
22361W        W65455  25.666  14.976  29.330  0.0329 -0.1711  0.3025
22362W        W65456  26.467  15.261  28.313  0.1737 -0.3169 -0.0127
22363W        W65457  26.279  16.389  29.049  0.1803 -0.1521 -0.1864
22364W        W65458  25.182  19.340  28.680 -0.0906  0.0680 -0.1400
22365W        W65459  28.909  15.819  29.047  0.1333 -0.2489 -0.0621
22366W        W65460  28.045  15.266  29.113 -0.3162 -0.2057 -0.1575
22367W        W65461  28.228  13.462  30.762 -0.1902 -0.2649 -0.2381
22368W        W65462  28.656  16.898  30.103 -0.1258 -0.0343 -0.2290
22369W        W65463  28.533  17.026  28.454  0.3439  0.1820 -0.0786
22370W        W65464  27.806  16.503  30.143 -0.0682  0.1186 -0.1568
22371W        W65465  26.295  16.184  28.086  0.1016 -0.0758  0.1803
22372W        W65466  27.051  15.136  30.777  0.2078  0.2077  0.1502
22373W        W65467  26.733  17.442  31.509 -0.0569  0.0169 -0.1901
22374W        W65468  26.337  17.782  29.079  0.0362  0.1375  0.2144
22375W        W65469  28.607  19.487  30.733  0.2411  0.1661  0.0549
22376W        W65470  28.338  16.542  30.333  0.2569 -0.2561 -0.2612
22377W        W65471  28.052  14.930  31.006 -0.1736  0.1093  0.0583
22378W        W65472  27.933  15.722  28.363 -0.3488 -0.2117  0.0323
22379W        W65473  26.829  20.151  28.531  0.3458  0.0057  0.0307
22380W        W65474  26.028  17.366  29.018  0.0268  0.1050 -0.0103
22381W        W65475  25.431  13.749  30.585  0.1939 -0.0103 -0.1780
22382W        W65476  26.674  18.272  30.018  0.1819  0.0056 -0.1010
22383W        W65477  25.760  16.464  27.145 -0.0707 -0.1587  0.1967
22384W        W65478  27.551  15.996  30.313 -0.0735  0.1077 -0.0359
22385W        W65479  26.565  18.546  27.819 -0.2343 -0.0863  0.3815
22386W        W65480  29.693  15.143  29.989 -0.1307 -0.0100  0.0080
22387W        W65481  24.758  19.012  28.341 -0.1030 -0.1585 -0.3089
22388W        W65482  24.395  15.303  27.238  0.0905  0.1281 -0.1106
22389W        W65483  25.937  18.342  28.530  0.1226 -0.1280  0.1491
22390W        W65484  28.395  15.548  28.201 -0.0036  0.2304  0.2025
22391W        W65485  28.076  17.493  27.881  0.3922  0.1787 -0.1674
22392W        W65486  27.347  14.122  30.641  0.0049 -0.0840  0.0869
22393W        W65487  27.413  15.747  29.930  0.1126  0.1731 -0.0618
22394W        W65488  27.062  18.367  29.234 -0.0396  0.2000  0.0491
22395W        W65489  27.616  16.981  29.207 -0.0412 -0.2991 -0.0163
22396W        W65490  28.960  14.877  28.729 -0.1975 -0.1563 -0.1315
22397W        W65491  29.193  16.851  30.098  0.0272  0.3444  0.2020
22398W        W65492  26.034  16.669  30.087 -0.0032 -0.0931 -0.2261
22399W        W65493  24.214  16.269  27.384 -0.1679  0.1861 -0.0882
22400W        W65494  28.963  14.920  29.433  0.1954 -0.2342 -0.1116
22401W        W65495  25.874  16.095  29.200 -0.1950  0.0309 -0.2876
22402W        W65496  25.261  17.448  29.362  0.4856 -0.2234  0.0871
22403W        W65497  27.950  18.020  28.989 -0.1240 -0.2707 -0.3667
22404W        W65498  26.745  16.438  29.686 -0.2552  0.0465  0.1333
22405W        W65499  25.738  17.698  29.275 -0.0984 -0.0721  0.0566
22406W        W65500  27.709  14.799  29.130 -0.0371  0.1254 -0.1900
22407W        W65501  28.334  17.262  30.248  0.2532  0.1078  0.0873
22408W        W65502  27.854  15.655  29.728 -0.0090 -0.0437 -0.0203
22409W        W65503  25.461  15.509  29.286 -0.0076  0.1390  0.0649
22410W        W65504  27.857  17.157  28.742  0.1076  0.0625 -0.0347
22411W        W65505  28.118  16.764  28.600 -0.0787 -0.0709 -0.2027
22412W        W65506  26.819  16.057  29.320  0.0070 -0.3926  0.0137
22413W        W65507  29.261  17.747   0.875  0.1586  0.2298  0.0170
22414W        W65508  26.310  14.297  28.950  0.0643 -0.1900 -0.0513
22415W        W65509  29.411  20.251  28.299  0.1029  0.0647  0.0385
22416W        W65510  28.602  16.965  30.617 -0.2135 -0.0880  0.0180
22417W        W65511  25.817  17.122  29.401  0.1180 -0.0590  0.1640
22418W        W65512  23.808  16.387  28.673  0.0192 -0.3236 -0.2482
22419W        W65513  25.611  19.256  28.311  0.3418  0.2466  0.3519
22420W        W65514  27.172  15.630  29.541 -0.1274 -0.3312 -0.1207
22421W        W65515  25.770  16.918  28.906  0.2740 -0.4054  0.1294
22422W        W65516  26.496  16.565  27.876  0.1188  0.1075 -0.3271
22423W        W65517  25.382  16.296  30.473 -0.2795 -0.0107 -0.5127
22424W        W65518  28.466  14.863  27.568 -0.2196 -0.1412  0.2723
22425W        W65519  27.708  15.931  27.656  0.2787 -0.1453 -0.5889
22426W        W65520  24.602  18.102  30.100 -0.1279 -0.2274  0.0567
22427W        W65521  28.817  16.466  31.512 -0.0515 -0.0017  0.3627
22428W        W65522  27.151  16.152  28.521  0.1105  0.1064 -0.1291
22429W        W65523  28.280  16.423  31.634  0.4481  0.1678  0.1034
22430W        W65524  26.603  13.174  30.697 -0.0272  0.4797  0.0890
22431W        W65525  28.844  18.042  29.424  0.2928  0.0096 -0.0618
22432W        W65526  26.924  16.289  30.830 -0.3431  0.1416 -0.2207
22433W        W65527  27.000  19.532  31.251  0.0955 -0.0155  0.2251
22434W        W65528  26.810  15.866  31.167  0.0404 -0.3243  0.0822
22435W        W65529  27.722  16.382  29.222  0.3108 -0.3573  0.0896
22436W        W65530  24.855  14.508  28.715  0.0467 -0.0757 -0.2357
22437W        W65531  28.555  17.325  29.743 -0.2124  0.0620  0.1987
22438W        W65532  27.300  16.571  29.963  0.0371 -0.0725 -0.0776
22439W        W65533  26.810  16.977  28.260  0.1274  0.2955  0.0158
22440W        W65534  26.867  16.576  29.173  0.0929  0.0554 -0.1874
22441W        W65535  25.506  15.366  31.510  0.2867  0.0840  0.4280
22442W        W65536  28.757  14.550  29.106  0.2186 -0.0008 -0.1601
22443W        W65537  27.830  17.066  27.625 -0.0597  0.0636  0.6389
22444W        W65538  27.716  17.572  28.386 -0.1815  0.4276  0.4950
22445W        W65539  26.462  16.214  31.380 -0.2178 -0.0829 -0.1003
22446W        W65540  28.187  16.800  29.922 -0.2218 -0.1470  0.0596
22447W        W65541  27.577  15.257  29.391  0.0443  0.0917 -0.3214
22448W        W65542  27.526  15.305  30.907 -0.0553  0.0257  0.1039
22449W        W65543  27.263  15.096  30.151 -0.1779  0.0257  0.4071
22450W        W65544  27.478  17.032  31.148  0.4457  0.3176 -0.1439
22451W        W65545  24.992  14.122  30.926  0.1696 -0.2389 -0.0304
22452W        W65546  27.748  17.803  30.208 -0.0724  0.0794  0.0719
22453W        W65547  28.769  15.298  28.461  0.1552  0.1876 -0.0040
22454W        W65548  28.551  14.991  31.325  0.1163  0.1502  0.0142
22455W        W65549  29.473  16.516  29.166 -0.0757 -0.2031 -0.0413
22456W        W65550  27.396  17.298  28.729 -0.2539  0.0651 -0.3073
22457W        W65551  26.872  14.769  29.451 -0.1153  0.2782 -0.1106
22458W        W65552  27.824  17.874  30.681 -0.1475  0.1383  0.0213
22459W        W65553  26.164  15.190  27.951 -0.1666  0.0773 -0.0950
22460W        W65554  28.156  15.184  30.581 -0.0337  0.0516 -0.0842
22461W        W65555  27.459  18.576  28.155 -0.0520 -0.0780 -0.0737
22462W        W65556  27.121  17.335  29.632  0.1298  0.0377  0.1250
22463W        W65557  27.090  16.719  28.706 -0.0349  0.0420 -0.0136
22464W        W65558  24.481  17.005  30.013 -0.0335 -0.2604  0.0116
22465W        W65559  25.822  19.256  31.650  0.1805  0.1900 -0.0267
22466W        W65560  26.702  15.843  28.530  0.0551 -0.1168 -0.1940
22467W        W65561  27.234  16.977  27.860  0.4574  0.0268  0.0456
22468W        W65562  27.118  16.798  29.582  0.0882  0.4527 -0.0906
22469W        W65563  28.842  16.115  30.661  0.2991 -0.1060  0.1082
22470W        W65564  27.138  12.746  28.635  0.0465  0.0658 -0.2199
22471W        W65565  26.862  15.304  29.918 -0.3075 -0.1963 -0.0401
22472W        W65566  25.324  16.660  28.730 -0.1106 -0.0592  0.0073
22473W        W65567  27.448  13.923  29.431  0.0114  0.1061  0.0382
22474W        W65568  27.580  18.755  29.577  0.1202 -0.0951  0.1369
22475W        W65569  24.209  15.764  30.519 -0.2101 -0.0546  0.1630
22476W        W65570  25.654  18.409  29.022  0.0886 -0.1414 -0.3850
22477W        W65571  26.663  14.094  29.816  0.4707  0.1060 -0.0927
22478W        W65572  29.468  15.969  29.246  0.0092 -0.1248 -0.2328
22479W        W65573  25.352  16.684  30.076 -0.5125  0.0723 -0.0596
22480W        W65574  29.179  17.581  30.688 -0.0538 -0.0686 -0.1161
22481W        W65575  27.486  17.769  29.781  0.1088 -0.1479 -0.1091
22482W        W65576  25.316  16.015  29.170  0.2727 -0.0237 -0.1059
22483W        W65577  28.054  20.021  29.206 -0.1200  0.2650 -0.1970
22484W        W65578  29.770  17.576  31.041  0.0365 -0.1342 -0.0791
22485W        W65579  25.281  17.036  29.118  0.0245  0.3184 -0.1211
22486W        W65580  24.759  14.900  30.540  0.1329 -0.1646  0.0789
22487W        W65581  27.311  17.148   0.165 -0.0137  0.0623 -0.0159
22488W        W65582  27.120  17.061  29.069  0.0946  0.2117 -0.0619
22489W        W65583  26.912  14.207  27.947 -0.1064 -0.1234 -0.1107
22490W        W65584  27.722  19.123  29.153 -0.0515 -0.0003 -0.1675
22491W        W65585  26.850  16.938  31.799  0.0244  0.0740  0.2619
22492W        W65586  25.574  17.296  30.798  0.1873 -0.2100  0.0127
22493W        W65587  26.430  17.998  27.797  0.0077 -0.0391 -0.1135
22494W        W65588  28.658  15.168  29.122  0.0130 -0.2246  0.2617
22495W        W65589  28.440  17.651  28.162  0.2129  0.0966 -0.0919
22496W        W65590  26.394  19.028  30.183 -0.1605 -0.1987  0.0668
22497W        W65591  27.003  15.367  28.047  0.1808  0.0135  0.0558
22498W        W65592  26.027  17.505  29.968 -0.1814 -0.1996  0.1780
22499W        W65593  25.646  20.283  27.572  0.3040  0.0428 -0.0612
22500W        W65594  27.612  16.681  27.937 -0.0212  0.0425 -0.1199
22501W        W65595  26.319  17.004  27.431 -0.1363 -0.4290 -0.1130
22502W        W65596  26.938  16.572  30.384  0.0373  0.0278  0.2260
22503W        W65597  27.582  15.430  27.497 -0.2714  0.2229 -0.0309
22504W        W65598  29.254  16.371  30.077  0.0844 -0.3448 -0.2337
22505W        W65599  28.454  15.691  29.176  0.1124  0.0141 -0.1026
22506W        W65600  27.516  17.156  29.803 -0.1301  0.4363 -0.1306
22507W        W65601  25.718  17.463  30.344 -0.0939  0.1653  0.0370
22508W        W65602  27.279  16.261  29.083  0.0357 -0.3110  0.1480
22509W        W65603  27.114  15.530  30.262 -0.1208  0.0538  0.0630
22510W        W65604  30.610  16.604  30.845 -0.1615 -0.1366  0.0102
22511W        W65605  24.926  17.742  29.761 -0.1022  0.5127 -0.1390
22512W        W65606  27.672  17.736  27.047  0.2527 -0.0459 -0.1851
22513W        W65607  25.070  16.450  29.487 -0.0825  0.2459 -0.0436
22514W        W65608  26.254  17.503  29.502  0.1764 -0.0093  0.0972
22515W        W65609  28.171  15.312  30.025  0.0167  0.1670  0.2108
22516W        W65610  27.200  16.697  27.330 -0.1564 -0.1984 -0.0302
22517W        W65611  27.909  14.870  28.709 -0.4408  0.0887  0.1996
22518W        W65612  25.626  17.374  27.599 -0.4125  0.0310  0.1459
22519W        W65613  27.252  17.855  29.282 -0.1681 -0.2540  0.0522
22520W        W65614  26.562  17.351  29.858 -0.1204  0.0412  0.3197
22521W        W65615  25.781  15.560  28.443  0.1321  0.1382  0.0049
22522W        W65616  28.936  15.643  29.566 -0.1630 -0.0219 -0.0789
22523W        W65617  25.799  15.260  29.746 -0.2079  0.2008 -0.2539
22524W        W65618  29.038  15.072  30.500 -0.1585 -0.1091  0.0803
22525W        W65619  25.640  15.924  29.666 -0.1345 -0.0114  0.0963
22526W        W65620  29.027  15.693  28.440 -0.1237  0.0188  0.2196
22527W        W65621  26.074  16.993  30.942 -0.0014  0.2126 -0.0641
22528W        W65622  25.477  15.834  30.196  0.1186 -0.1453  0.2486
22529W        W65623  26.139  16.661  28.677  0.2883  0.1300 -0.2675
22530W        W65624  29.274  16.748  30.952  0.2172 -0.0287 -0.0632
22531W        W65625  27.919  15.158  27.343 -0.1696  0.1767  0.1794
22532W        W65626  28.643  18.084  31.328 -0.0886  0.1435 -0.2506
22533W        W65627  26.640  15.073  27.891 -0.0233 -0.0643 -0.3966
22534W        W65628  26.647  15.243  28.833  0.2117  0.1055 -0.1594
22535W        W65629  25.533  17.996  28.676 -0.0550 -0.2329 -0.1548
22536W        W65630  26.529  16.622  31.041  0.1924 -0.0582  0.0244
22537W        W65631  27.494  19.501  31.414  0.0525  0.0543  0.0664
22538W        W65632  26.627  16.469  28.451 -0.1797  0.3608 -0.3217
22539W        W65633  28.926  17.430  26.332 -0.0090 -0.0174  0.4176
22540W        W65634  30.182  15.601  30.600  0.0814 -0.0672 -0.1849
22541W        W65635  27.466  18.258  29.504 -0.0305 -0.0449 -0.1963
22542W        W65636  28.147  17.576  29.126 -0.2202 -0.4550 -0.0032
22543W        W65637  28.655  19.077  30.438  0.3067 -0.1063  0.0973
22544W        W65638  23.901  15.472  30.121 -0.0228  0.3729 -0.0095
22545W        W65639  26.982  17.576  29.022 -0.1265  0.1204  0.0623
22546W        W65640  30.263  19.284  29.871  0.0685 -0.4613 -0.3951
22547W        W65641  26.728  15.330  29.399  0.1724 -0.0586 -0.0244
22548W        W65642  25.837  15.633  28.956  0.1073 -0.2349  0.3032
22549W        W65643  25.479  18.551  28.550 -0.1170  0.1184  0.0307
22550W        W65644  28.713  15.155  29.818  0.2250 -0.3316 -0.0544
22551W        W65645  29.082  15.610  30.750 -0.1442 -0.1733 -0.2164
22552W        W65646  27.119  17.624  28.388  0.0760 -0.1648 -0.3590
22553W        W65647  29.031  15.365  28.878 -0.0611  0.1912 -0.0472
22554W        W65648  27.384  18.245  30.042  0.0375  0.0044 -0.2761
22555W        W65649  26.447  16.818   0.189  0.0872 -0.1224 -0.3508
22556W        W65650  24.646  16.112  27.615 -0.1089  0.2665 -0.3956
22557W        W65651  26.787  15.906  30.430  0.2682  0.2208 -0.0857
22558W        W65652  26.746  18.156  28.290  0.0978  0.0755 -0.0460
22559W        W65653  29.001  19.050  28.716  0.1557 -0.1808 -0.1595
22560W        W65654  26.988  18.077  29.724  0.0611 -0.0498  0.1507
22561W        W65655  26.665  14.608  28.123  0.0304  0.0303  0.2671
22562W        W65656  28.333  18.275  30.255 -0.0138  0.1379  0.1703
22563W        W65657  26.456  15.721  29.421  0.2517 -0.0655  0.1381
22564W        W65658  28.656  13.753  27.467 -0.0177 -0.0128 -0.0488
22565W        W65659  28.607  14.683  30.156  0.1675  0.2350 -0.2547
22566W        W65660  26.165  18.460  29.738  0.0183 -0.0453  0.1426
22567W        W65661  25.751  16.376  28.771  0.0061  0.0355  0.2424
22568W        W65662  26.644  16.848  28.805 -0.0973 -0.0171 -0.1662
22569W        W65663  26.191  17.428  27.592 -0.2098 -0.0155  0.1837
22570W        W65664  27.012  14.994  31.591 -0.2730 -0.0919  0.0819
22571W        W65665  26.652  15.473  30.648 -0.2545  0.2537  0.0598
22572W        W65666  25.140  14.908  30.229 -0.0344  0.0460 -0.0613
22573W        W65667  26.869  14.626  27.638 -0.0583  0.2957  0.1486
22574W        W65668  28.008  15.634  27.318 -0.2131 -0.0205  0.1183
22575W        W65669  25.703  14.087  28.931  0.3119 -0.0850  0.0525
22576W        W65670  25.862  14.760  30.124  0.1334 -0.0954 -0.0134
22577W        W65671  28.542  17.636  29.366 -0.1545  0.0180 -0.0344
22578W        W65672  28.904  16.994  29.669 -0.0491 -0.2413 -0.1981
22579W        W65673  26.949  14.819  28.588  0.0629  0.1928  0.2900
22580W        W65674  27.767  17.370  30.375 -0.0645 -0.3691 -0.4968
22581W        W65675  24.652  18.219  28.061  0.1885 -0.1390 -0.0356
22582W        W65676  27.539  14.444  31.035  0.0031 -0.0064  0.1239
22583W        W65677  28.190  16.339  31.116 -0.1612  0.0068 -0.0913
22584W        W65678  26.794  16.191  28.044 -0.1523  0.2104  0.1983
22585W        W65679  28.530  15.812  30.971  0.1360  0.0607  0.0170
22586W        W65680  28.133  17.603  29.892  0.2026  0.2064  0.5372
22587W        W65681  28.761  16.688  27.317 -0.0735 -0.0861 -0.0652
22588W        W65682  26.916  17.660  30.079 -0.0086 -0.0738  0.0008
22589W        W65683  27.703  17.943  31.650  0.0190  0.2555 -0.1514
22590W        W65684  25.014  14.937  29.695  0.1905  0.0532 -0.0525
22591W        W65685  27.757  16.705  29.656  0.2567 -0.3732 -0.0768
22592W        W65686  28.402  19.723   0.543  0.0457  0.1624 -0.1350
22593W        W65687  29.017  17.056  28.547 -0.0479  0.3254 -0.1855
22594W        W65688  28.176  16.169  28.455 -0.1442  0.0253  0.1403
22595W        W65689  27.449  16.953  28.366  0.0425 -0.3513  0.0442
22596W        W65690  25.725  14.117  31.476 -0.4431 -0.1943  0.0269
22597W        W65691  26.628  17.342  30.922 -0.0065 -0.2172 -0.1659
22598W        W65692  28.073  17.229  29.434 -0.1702 -0.1257  0.0131
22599W        W65693  25.539  14.007  29.419 -0.4175 -0.1357 -0.1462
22600W        W65694  26.474  15.549  30.207  0.2893  0.0543  0.1338
22601W        W65695  28.199  17.458  28.537 -0.0539 -0.1105  0.0214
22602W        W65696  25.496  14.883  29.770  0.2380 -0.4794  0.2322
22603W        W65697  27.548  15.843  29.238 -0.2591 -0.0766  0.0271
22604W        W65698  27.094  15.675  30.774  0.0320 -0.0279  0.3109
22605W        W65699  27.570  16.623  28.822 -0.3630 -0.0908  0.1878
22606W        W65700  27.469  16.904  30.260 -0.0130  0.1263 -0.0186
22607W        W65701  25.474  16.520  29.194 -0.1393  0.1355 -0.0810
22608W        W65702  28.173  15.848  27.834 -0.1190 -0.4475 -0.0854
22609W        W65703  29.191  18.854  31.408 -0.0335  0.2878 -0.1540
22610W        W65704  30.075  18.111  31.349  0.1621  0.3488  0.0435
22611W        W65705  28.218  19.281  30.262  0.0288 -0.1816  0.1795
22612W        W65706  28.111  15.945  29.386  0.1956  0.2491  0.1035
22613W        W65707  26.304  13.709  29.851 -0.1680  0.0872 -0.1394
22614W        W65708  27.566  17.433  29.327 -0.1669  0.0374  0.1869
22615W        W65709  26.259  16.948  29.169  0.1877  0.1089 -0.0645
22616W        W65710  29.858  16.271  29.229 -0.0102 -0.2272 -0.4335
22617W        W65711  24.199  15.471  29.296  0.1307  0.1264  0.0234
22618W        W65712  29.482  15.167  28.930 -0.2480  0.1148 -0.0868
22619W        W65713  26.198  17.107  30.295 -0.4959  0.3219 -0.1761
22620W        W65714  27.851  17.832  29.468  0.0018  0.1898 -0.1444
22621W        W65715  28.052  14.355  31.107  0.0088  0.0197 -0.3322
22622W        W65716  28.471  16.502   0.652  0.0185  0.3952 -0.0430
22623W        W65717  25.854  16.160  30.185  0.1474  0.1843 -0.0162
22624W        W65718  26.140  17.452  30.676 -0.0210  0.3271 -0.0698
22625W        W65719  25.827  18.404  31.136  0.1704 -0.0858 -0.0317
22626W        W65720  26.847  19.210   0.432  0.1870 -0.0527  0.0279
22627W        W65721  29.320  16.275   0.417  0.2067  0.1927  0.1625
22628W        W65722  26.053  15.609  30.007 -0.4840 -0.1789  0.1829
22629W        W65723  29.293  17.362  31.173 -0.2534 -0.0867 -0.3356
22630W        W65724  29.732  18.772  31.648 -0.1462 -0.2005 -0.0839
22631W        W65725  28.759  18.379   0.759 -0.0434  0.1861  0.0540
22632W        W65726  25.322  14.480  31.088 -0.1759 -0.0566 -0.0106
22633W        W65727  29.513  17.728  31.571 -0.1767  0.2259 -0.0255
22634W        W65728  27.354  16.353  30.601  0.0592  0.0143 -0.1586
22635W        W65729  28.831  17.559  31.295  0.0004  0.1259  0.2813
22636W        W65730  25.786  17.749  30.776 -0.1069  0.0799  0.1133
22637W        W65731  26.182  14.213  30.043  0.0757 -0.1722 -0.1727
22638W        W65732  29.167  18.219  31.607  0.1900 -0.0377 -0.0417
22639W        W65733  25.966  13.485  30.818  0.3768 -0.1153  0.0918
22640W        W65734  26.431  16.652  31.601 -0.1110 -0.1518  0.0061
22641W        W65735  26.772  15.067  30.337 -0.0663 -0.0151 -0.1800
22642W        W65736  26.365  17.626  31.950 -0.0057 -0.2014  0.1906
22643W        W65737  28.013  16.816  31.688 -0.0386  0.1972  0.0803
22644W        W65738  25.290  17.191  30.370  0.1403  0.2708  0.0962
22645W        W65739  27.042  14.628  30.062  0.3648 -0.0215  0.0062
22646W        W65740  27.245  16.799  31.546  0.0527 -0.2264  0.0212
22647W        W65741  27.777  16.161  31.240  0.1833 -0.0628  0.0855
22648W        W65742  26.976  16.834  30.847  0.1581 -0.1336  0.0525
22649W        W65743  26.516  17.358  29.010  0.0304  0.0245 -0.1456
22650W        W65744  26.556  15.371   0.774 -0.2298  0.2719  0.1247
22651W        W65745  27.010  19.704   0.500  0.0522  0.2819  0.0095
22652W        W65746  26.051  14.476  30.472 -0.1027 -0.0515 -0.0279
22653W        W65747  28.006  17.145  31.311 -0.3848 -0.0581  0.1845
22654W        W65748  28.054  15.773   0.118 -0.1655 -0.0401  0.1167
22655W        W65749  26.195  14.278  31.387 -0.1880 -0.1480  0.0034
22656W        W65750  26.585  16.525   0.554 -0.0684  0.1735 -0.3250
22657W        W65751  26.931  16.850   0.320  0.1165 -0.4896  0.0751
22658W        W65752  27.976  17.700   0.192  0.1432  0.0538 -0.0966
22659W        W65753  26.982  16.675   0.843  0.1822 -0.0008  0.1098
22660W        W65754  27.876  16.677  31.180 -0.0806 -0.3413  0.0738
22661W        W65755  28.200  15.412  31.111 -0.1472  0.0345  0.0234
22662W        W65756  28.421  16.092  31.938  0.0372 -0.1181  0.0895
22663W        W65757  26.607  14.662  31.480  0.0366 -0.0111  0.0444
22664W        W65758  27.373  18.222  31.339  0.2052 -0.0677 -0.1708
22665W        W65759  26.206  18.522   0.124  0.3102 -0.0485 -0.1542
22666W        W65760  27.610  16.856  30.714 -0.0180  0.0452 -0.1100
22667W        W65761  27.850  16.283   0.237 -0.0329  0.2295  0.2182
22668W        W65762  26.547  17.876  31.479  0.2532 -0.0383  0.1784
22669W        W65763  28.841  17.948  30.385  0.4058 -0.2614  0.2445
22670W        W65764  26.480  15.932  31.884  0.0429 -0.2068  0.1177
22671W        W65765  28.146  17.181  30.769 -0.0552 -0.1492 -0.0373
22672W        W65766  28.327  15.048  31.787 -0.1685 -0.0254 -0.1562
22673W        W65767  26.280  15.137   0.291 -0.0331 -0.3585 -0.0848
22674W        W65768  26.891  16.450  31.364 -0.2231 -0.0733 -0.1972
22675W        W65769  28.387  16.730  31.283  0.0522  0.0048  0.0768
22676W        W65770  28.736  16.553  30.871 -0.0436 -0.1241 -0.2025
22677W        W65771  27.560  18.737  30.478  0.1025  0.2101  0.1825
22678W        W65772  26.401  18.226   0.466 -0.2538 -0.5230 -0.2197
22679W        W65773  27.692  19.314  30.334  0.1882  0.1016 -0.0761
22680W        W65774  26.016  16.207  31.584 -0.1050 -0.2637 -0.0542
22681W        W65775  26.254  15.632   0.422  0.2774 -0.0104  0.0955
22682W        W65776  26.576  17.776   0.386  0.1768  0.0820  0.0615
22683W        W65777  26.145  15.477  31.893  0.2021  0.0011 -0.1196
22684W        W65778  26.218  16.150   0.872 -0.1345 -0.2126 -0.1933
22685W        W65779  29.387  19.999  30.765 -0.1096 -0.0725 -0.1122
22686W        W65780  27.793  18.441  31.644 -0.2868 -0.2343 -0.1344
22687W        W65781  28.317  18.043  30.832 -0.1514 -0.0006 -0.1866
22688W        W65782  26.676  20.846  18.241 -0.0116 -0.0507  0.1245
22689W        W65783  27.355  21.652  16.232  0.0065  0.1347  0.3323
22690W        W65784  27.937  19.389  15.592  0.4114 -0.0646 -0.0811
22691W        W65785  28.872  19.793  17.749  0.1316 -0.1795  0.1191
22692W        W65786  25.131  19.675  17.216 -0.1566 -0.2808 -0.1859
22693W        W65787  28.727  22.858  17.201 -0.1666 -0.1946  0.1599
22694W        W65788  26.635  18.796  17.314 -0.1284 -0.2110  0.1298
22695W        W65789  26.447  21.102  16.989 -0.0009  0.0200  0.1622
22696W        W65790  27.030  23.415  18.290 -0.2817 -0.1126 -0.1979
22697W        W65791  26.824  21.562  16.142  0.2407 -0.1710  0.1747
22698W        W65792  28.466  20.727  17.672  0.3615 -0.1737  0.1093
22699W        W65793  25.602  22.543  17.315  0.0664 -0.0482 -0.1225
22700W        W65794  26.512  18.855  16.825  0.0293  0.0852  0.3703
22701W        W65795  26.270  17.247  17.734  0.1615  0.2194 -0.1478
22702W        W65796  29.001  20.618  19.826  0.1235  0.3117 -0.1245
22703W        W65797  25.100  20.142  16.457  0.3056  0.0850  0.0518
22704W        W65798  27.423  20.884  18.193 -0.4530  0.2005 -0.0837
22705W        W65799  28.005  20.412  17.515  0.0252  0.3227 -0.0058
22706W        W65800  28.284  22.641  19.061  0.0028  0.0190 -0.1946
22707W        W65801  26.593  18.660  18.700 -0.0775 -0.1667 -0.2724
22708W        W65802  29.293  18.822  18.121  0.1356 -0.2875 -0.4096
22709W        W65803  26.307  22.589  16.862  0.1508 -0.1211 -0.2086
22710W        W65804  25.378  19.096  16.060  0.0988 -0.3279  0.1189
22711W        W65805  25.964  20.201  18.113 -0.0626  0.1260 -0.0009
22712W        W65806  27.076  19.900  18.053  0.0278 -0.0648 -0.2625
22713W        W65807  28.189  19.035  17.665 -0.0817 -0.1987 -0.1785
22714W        W65808  28.046  20.754  19.501  0.2098  0.0293 -0.0442
22715W        W65809  27.612  22.441  17.309 -0.1803 -0.0216 -0.1882
22716W        W65810  25.938  21.298  17.206  0.0132  0.1727 -0.2628
22717W        W65811  28.656  18.807  19.593 -0.0132  0.1894 -0.2235
22718W        W65812  25.884  20.657  18.385 -0.2162  0.0403  0.1793
22719W        W65813  25.043  22.408  16.368 -0.0815 -0.0574  0.2298
22720W        W65814  25.913  21.716  16.178 -0.0294  0.1536 -0.2415
22721W        W65815  28.357  21.640  16.581  0.1203  0.0822  0.1263
22722W        W65816  28.016  21.690  19.691 -0.1759  0.1858 -0.2984
22723W        W65817  26.513  22.276  19.353 -0.0224 -0.0690  0.1715
22724W        W65818  26.628  22.266  16.487 -0.1628 -0.3785  0.1771
22725W        W65819  26.338  21.733  19.090 -0.2570  0.2161 -0.0826
22726W        W65820  26.846  22.651  20.240 -0.0182  0.0119 -0.1040
22727W        W65821  26.854  21.399  17.540  0.1301  0.1084  0.3890
22728W        W65822  27.466  19.389  17.198 -0.3461 -0.0411  0.1211
22729W        W65823  27.569  20.126  16.986  0.0076  0.0383  0.2805
22730W        W65824  26.659  21.810  17.786 -0.0567  0.2475 -0.1136
22731W        W65825  28.209  21.034  20.253 -0.4204  0.0671 -0.1293
22732W        W65826  25.055  21.550  16.564 -0.1309  0.2931 -0.1905
22733W        W65827  30.124  19.567  21.547 -0.1431 -0.0792 -0.1018
22734W        W65828  25.929  20.983  15.480 -0.0135 -0.1894 -0.0724
22735W        W65829  28.221  20.038  17.028 -0.2783 -0.0587  0.1895
22736W        W65830  27.346  18.330  15.500 -0.5056  0.1216  0.2162
22737W        W65831  28.174  19.133  16.392  0.4918 -0.0559 -0.2546
22738W        W65832  26.198  17.884  16.066  0.1707 -0.1460 -0.0960
22739W        W65833  27.116  23.577  17.302  0.1676  0.1768  0.0584
22740W        W65834  26.078  18.892  17.894  0.1207  0.1363  0.0510
22741W        W65835  28.031  19.133  19.175  0.1194  0.0596 -0.1524
22742W        W65836  27.156  20.089  17.346 -0.0226 -0.3238 -0.0901
22743W        W65837  26.806  20.129  18.464  0.1444 -0.0664  0.0633
22744W        W65838  24.897  23.457  17.796  0.1012 -0.2364  0.1945
22745W        W65839  26.546  19.572  16.246 -0.1035  0.2979 -0.0622
22746W        W65840  28.890  22.031  17.060  0.1023  0.1712 -0.0116
22747W        W65841  27.117  21.715  19.759 -0.2006 -0.1574  0.2966
22748W        W65842  27.482  21.528  15.671 -0.4414  0.0572 -0.1283
22749W        W65843  25.892  19.478  16.877  0.0526  0.0935  0.0660
22750W        W65844  26.261  20.711  18.697 -0.0733  0.1099 -0.0465
22751W        W65845  25.565  19.184  20.219  0.2979 -0.0771 -0.1929
22752W        W65846  26.410  19.319  15.388 -0.0405 -0.0897  0.0542
22753W        W65847  28.393  20.478  18.136 -0.0812 -0.2629  0.0558
22754W        W65848  25.531  22.118  19.185  0.0967 -0.2279 -0.1094
22755W        W65849  29.879  18.483  17.393  0.1516 -0.3258 -0.2905
22756W        W65850  26.985  20.546  17.197 -0.2844 -0.2433  0.2461
22757W        W65851  28.550  20.468  19.373 -0.1077  0.0312  0.0430
22758W        W65852  27.679  20.438  15.997 -0.2693 -0.0698  0.2579
22759W        W65853  27.587  18.914  17.481  0.2823 -0.0520  0.1319
22760W        W65854  27.788  18.405  18.341  0.1444  0.0855  0.3853
22761W        W65855  27.519  21.358  16.592 -0.0020  0.0801  0.0997
22762W        W65856  25.272  21.084  15.732  0.0073 -0.0478  0.0287
22763W        W65857  27.391  22.555  19.778 -0.1812  0.0924  0.0766
22764W        W65858  27.158  18.788  15.784 -0.0029  0.2497 -0.3261
22765W        W65859  24.881  22.499  18.910  0.4760 -0.1760  0.0428
22766W        W65860  26.331  19.697  17.454 -0.1173  0.1614  0.1604
22767W        W65861  26.239  21.757  19.609 -0.1538 -0.1128 -0.0812
22768W        W65862  26.803  22.700  15.661 -0.1029  0.0142 -0.2800
22769W        W65863  25.831  20.890  19.253  0.0294  0.0869  0.1263
22770W        W65864  25.916  21.499  15.701 -0.1460 -0.2476  0.1838
22771W        W65865  26.582  20.847  19.678 -0.0782  0.0442  0.1987
22772W        W65866  27.037  21.500  17.999 -0.3596  0.2549 -0.1519
22773W        W65867  27.985  20.564  16.353 -0.0968 -0.4321 -0.3281
22774W        W65868  26.322  18.690  19.634 -0.1010  0.0007  0.1260
22775W        W65869  27.319  18.721  18.539 -0.0641 -0.3784 -0.0133
22776W        W65870  24.886  20.959  15.328 -0.0349 -0.2707 -0.3755
22777W        W65871  28.238  22.758  17.230 -0.0911  0.2123  0.1544
22778W        W65872  28.930  18.887  16.652 -0.0942 -0.1979 -0.4117
22779W        W65873  26.636  21.025  16.090 -0.0219  0.3711 -0.4126
22780W        W65874  26.614  21.233  17.912  0.1728 -0.1074  0.0857
22781W        W65875  26.572  20.863  17.492  0.0620 -0.1523  0.1500
22782W        W65876  27.503  19.859  19.969  0.0457 -0.2304  0.3913
22783W        W65877  25.924  18.967  16.954 -0.2082  0.1162  0.1673
22784W        W65878  28.027  20.683  19.032 -0.1758 -0.0526  0.2198
22785W        W65879  25.913  18.440  16.953  0.1104 -0.0421  0.0174
22786W        W65880  28.611  19.594  16.333 -0.1890  0.2358 -0.0797
22787W        W65881  25.968  20.194  17.036 -0.2117 -0.1195  0.2799
22788W        W65882  23.742  21.369  16.781  0.2778 -0.1204 -0.0126
22789W        W65883  28.922  19.300  18.769 -0.0165  0.0241 -0.0399
22790W        W65884  27.874  22.644  16.881  0.3702  0.0453  0.0151
22791W        W65885  27.801  22.515  19.018 -0.0165 -0.2603 -0.2378
22792W        W65886  26.931  22.838  17.734 -0.1263 -0.1505  0.0122
22793W        W65887  26.710  20.330  19.452  0.1702  0.1495  0.2271
22794W        W65888  25.263  19.558  16.322 -0.2962 -0.1882 -0.2787
22795W        W65889  25.872  22.381  16.939  0.5822 -0.1097 -0.1158
22796W        W65890  25.991  20.717  16.917 -0.0703  0.2418  0.4579
22797W        W65891  25.967  19.239  17.504  0.2045  0.1035  0.1302
22798W        W65892  27.832  23.261  17.808  0.2275 -0.1413  0.0742
22799W        W65893  27.118  19.964  16.802 -0.2815 -0.1521  0.0675
22800W        W65894  26.591  22.648  17.456 -0.1574  0.2112  0.2376
22801W        W65895  29.341  17.300  18.735 -0.2496  0.1898  0.1996
22802W        W65896  28.413  19.711  18.264 -0.2763 -0.0716  0.0779
22803W        W65897  27.920  20.793  18.232  0.1779 -0.0208  0.1969
22804W        W65898  26.175  19.375  16.002  0.0574 -0.0236 -0.1939
22805W        W65899  26.247  21.495  18.618  0.1167 -0.1055 -0.1318
22806W        W65900  24.245  19.410  16.134  0.2718  0.0090 -0.1284
22807W        W65901  25.599  19.757  18.324 -0.1983 -0.1360  0.3748
22808W        W65902  26.759  22.272  17.799  0.2402  0.0446  0.2231
22809W        W65903  27.559  18.171  16.863 -0.3708  0.1952  0.1142
22810W        W65904  26.156  19.323  19.976 -0.3396  0.3997 -0.2846
22811W        W65905  29.350  20.091  19.199 -0.1492  0.0916  0.2590
22812W        W65906  26.125  21.575  16.862  0.1369  0.1913  0.3258
22813W        W65907  26.315  20.695  19.206  0.0066  0.0212  0.2337
22814W        W65908  28.536  18.938  17.204  0.1361 -0.1114 -0.1857
22815W        W65909  28.546  18.526  16.906 -0.0401  0.0207  0.1609
22816W        W65910  27.639  19.930  19.444 -0.1652  0.0456 -0.1749
22817W        W65911  28.554  22.335  17.251  0.1695  0.3056 -0.1418
22818W        W65912  28.623  19.725  16.826  0.0661 -0.0549  0.3593
22819W        W65913  28.118  18.839  16.853 -0.0886 -0.0431 -0.1898
22820W        W65914  26.088  22.163  19.150  0.0543  0.2191 -0.0145
22821W        W65915  25.372  22.152  17.579  0.0300  0.0331  0.2327
22822W        W65916  28.109  19.667  16.563 -0.2612 -0.0693 -0.2734
22823W        W65917  26.841  18.363  16.320 -0.0200  0.1467  0.0803
22824W        W65918  28.692  21.536  16.969 -0.0633 -0.2963 -0.1463
22825W        W65919  27.920  19.225  17.221 -0.2984 -0.0980 -0.3236
22826W        W65920  28.638  21.457  20.341 -0.2249  0.0480 -0.0745
22827W        W65921  27.788  22.888  17.378  0.1937  0.0378 -0.0730
22828W        W65922  27.357  19.158  20.021 -0.4993  0.2224  0.0857
22829W        W65923  27.260  19.626  15.796 -0.0760  0.0339 -0.1460
22830W        W65924  27.826  19.245  16.735  0.0360 -0.0958  0.0886
22831W        W65925  24.007  20.378  15.355 -0.1858  0.0798 -0.0000
22832W        W65926  29.067  19.280  20.227 -0.4277  0.1562  0.1025
22833W        W65927  27.415  18.543  19.174  0.2255  0.1594 -0.2352
22834W        W65928  27.037  19.487  18.356  0.0544  0.1245  0.1764
22835W        W65929  28.803  18.689  19.102 -0.1279  0.3041 -0.1890
22836W        W65930  29.577  18.639  17.742 -0.0771  0.1472 -0.0643
22837W        W65931  29.473  20.833  17.754 -0.2406  0.0580 -0.0516
22838W        W65932  24.737  19.544  16.345 -0.2657 -0.2211  0.1972
22839W        W65933  27.887  19.963  18.465 -0.3056  0.2078 -0.2690
22840W        W65934  26.724  21.791  19.434  0.0430  0.0648  0.1339
22841W        W65935  24.421  21.804  18.681 -0.2827 -0.1260  0.1134
22842W        W65936  27.640  19.635  18.843  0.0992 -0.3333  0.2832
22843W        W65937  27.602  20.646  16.733 -0.1491  0.3103 -0.3448
22844W        W65938  27.193  19.621  19.298  0.1131 -0.0191 -0.0718
22845W        W65939  26.507  19.683  15.773  0.0564 -0.2224 -0.0941
22846W        W65940  25.882  22.002  17.616  0.1094  0.3437  0.1045
22847W        W65941  25.938  20.397  15.486 -0.1176  0.0368  0.1255
22848W        W65942  27.575  18.296  18.769 -0.1638 -0.1658  0.1040
22849W        W65943  26.076  21.008  17.745  0.0084  0.1325  0.3649
22850W        W65944  26.313  22.431  15.801  0.0619  0.0911 -0.4055
22851W        W65945  27.897  20.186  16.637  0.1730  0.2576 -0.0606
22852W        W65946  25.823  21.977  16.612  0.1986  0.3052  0.1810
22853W        W65947  29.009  18.203  19.088 -0.2013 -0.0616  0.0138
22854W        W65948  25.499  22.470  16.578  0.1604  0.0184  0.0317
22855W        W65949  26.100  19.830  16.126 -0.0222 -0.2340 -0.1680
22856W        W65950  25.744  18.168  16.211 -0.2582 -0.2303  0.3879
22857W        W65951  30.003  18.633  18.251 -0.1117 -0.1493  0.2288
22858W        W65952  29.016  21.514  17.365 -0.1374 -0.1550 -0.3738
22859W        W65953  26.762  19.731  19.417 -0.0696 -0.0427 -0.0475
22860W        W65954  27.737  18.863  19.518  0.0731 -0.1136 -0.0902
22861W        W65955  25.458  21.718  17.356  0.1127 -0.5198 -0.0663
22862W        W65956  27.740  21.100  17.832 -0.0570 -0.1014 -0.0740
22863W        W65957  27.462  18.748  16.143  0.2475  0.4678  0.1252
22864W        W65958  28.187  21.218  19.781  0.1058 -0.2161 -0.1132
22865W        W65959  27.440  20.699  18.990 -0.0279  0.1932 -0.0154
22866W        W65960  25.035  18.236  16.661  0.2219  0.2628  0.2140
22867W        W65961  28.181  19.579  18.757 -0.0034  0.2262  0.0616
22868W        W65962  26.598  22.364  18.310  0.2912  0.0457  0.3066
22869W        W65963  25.651  20.710  16.542  0.0296 -0.4381  0.0273
22870W        W65964  26.765  21.767  16.668 -0.0686 -0.0223 -0.0684
22871W        W65965  25.405  20.499  16.215  0.0861  0.0697  0.0311
22872W        W65966  26.269  22.071  16.759 -0.0518 -0.1888 -0.0236
22873W        W65967  27.507  18.196  20.764 -0.1331 -0.0675 -0.1163
22874W        W65968  29.342  21.021  19.205  0.1838 -0.0364 -0.1157
22875W        W65969  27.588  18.649  16.935  0.1760  0.0050  0.0336
22876W        W65970  26.923  18.870  16.255 -0.2119 -0.4326 -0.1499
22877W        W65971  26.595  20.335  17.413  0.0539  0.1926  0.3196
22878W        W65972  28.052  20.878  17.422  0.1569 -0.0468 -0.1322
22879W        W65973  28.477  20.287  17.388  0.0660 -0.2218 -0.4280
22880W        W65974  27.797  20.859  19.961  0.1103 -0.1779 -0.0891
22881W        W65975  27.745  16.962  17.121 -0.0774 -0.0457  0.2031
22882W        W65976  29.955  21.679  17.835 -0.0572  0.2183  0.1215
22883W        W65977  26.830  19.310  18.762 -0.3901 -0.1292  0.2490
22884W        W65978  25.898  21.174  16.674  0.3530  0.1395  0.0920
22885W        W65979  25.589  21.097  17.548 -0.4447  0.0281  0.1373
22886W        W65980  24.835  19.330  15.830  0.0594  0.0714  0.1014
22887W        W65981  27.909  17.111  17.669 -0.1510 -0.0015 -0.1426
22888W        W65982  25.872  21.487  19.040 -0.1994 -0.0001 -0.0714
22889W        W65983  26.465  21.249  16.529  0.1638  0.0889  0.0336
22890W        W65984  24.638  22.646  16.610 -0.1886 -0.1821  0.3524
22891W        W65985  28.879  18.333  17.328  0.1402  0.1579  0.2134
22892W        W65986  28.116  21.002  16.086 -0.0709  0.0381 -0.2031
22893W        W65987  26.429  19.985  17.093  0.2128 -0.2502  0.1542
22894W        W65988  28.535  18.479  19.964 -0.2065  0.0027  0.1776
22895W        W65989  27.971  21.287  16.536 -0.2254  0.1579  0.1520
22896W        W65990  28.640  18.468  18.233 -0.0929  0.1433 -0.1502
22897W        W65991  27.359  18.450  19.633  0.1277  0.1001 -0.0027
22898W        W65992  28.274  21.259  16.948  0.1744 -0.3099 -0.1077
22899W        W65993  26.288  19.228  19.506  0.4491  0.1489 -0.2597
22900W        W65994  27.227  23.456  18.863  0.0761  0.1874  0.2316
22901W        W65995  26.788  20.565  21.769 -0.0371  0.0410  0.0421
22902W        W65996  28.257  19.480  17.022  0.0751  0.4811 -0.0943
22903W        W65997  26.661  17.897  15.987 -0.0643 -0.0081  0.3107
22904W        W65998  27.135  21.187  18.462  0.0513  0.1931 -0.0569
22905W        W65999  27.752  21.107  17.019  0.0414  0.2178  0.2186
22906W        W66000  27.043  22.013  16.330  0.1673 -0.0169 -0.0978
22907W        W66001  30.187  20.780  19.633  0.0049  0.0156  0.0154
22908W        W66002  27.349  21.150  17.456  0.0744  0.0832  0.2297
22909W        W66003  27.659  20.625  17.789 -0.1971 -0.0263  0.3480
22910W        W66004  27.166  21.135  16.039  0.2921 -0.0786  0.0352
22911W        W66005  25.682  20.221  16.592  0.0029 -0.1522 -0.0707
22912W        W66006  25.886  19.819  19.099  0.0587  0.0692  0.3141
22913W        W66007  27.113  21.828  17.604 -0.1435 -0.0252 -0.1964
22914W        W66008  27.851  19.459  18.411 -0.0160 -0.2868  0.0069
22915W        W66009  26.802  20.606  18.957 -0.1053  0.3590  0.0356
22916W        W66010  28.159  18.641  19.678 -0.0916 -0.0203 -0.1587
22917W        W66011  26.773  19.838  17.611 -0.0490 -0.2004  0.0104
22918W        W66012  26.937  19.268  20.178  0.2570  0.2961  0.3175
22919W        W66013  27.940  22.326  19.861  0.2329  0.0043  0.2095
22920W        W66014  28.563  19.184  16.727 -0.0214 -0.1575  0.3120
22921W        W66015  29.188  18.278  18.215  0.2690  0.0976  0.0855
22922W        W66016  28.137  19.365  18.026 -0.4209  0.0850 -0.1188
22923W        W66017  26.556  20.050  16.280 -0.1543  0.1921  0.0175
22924W        W66018  26.536  19.238  17.494  0.0616  0.0665  0.3620
22925W        W66019  27.647  21.038  18.617 -0.0231 -0.1675 -0.1836
22926W        W66020  25.632  19.539  15.290 -0.0101  0.1557  0.0133
22927W        W66021  28.075  18.861  20.130  0.0667  0.2261  0.2777
22928W        W66022  27.148  22.671  17.273  0.0149 -0.1552  0.1475
22929W        W66023  26.995  22.022  18.133  0.1640  0.4229 -0.1513
22930W        W66024  27.259  19.533  17.706 -0.2503  0.2617 -0.2846
22931W        W66025  26.162  18.667  17.329 -0.2228 -0.1436  0.0326
22932W        W66026  26.238  21.147  19.008 -0.0497  0.4882 -0.1476
22933W        W66027  24.821  21.098  15.858  0.2074 -0.2840 -0.1442
22934W        W66028  27.018  21.292  16.571 -0.1535  0.4546 -0.1184
22935W        W66029  27.013  21.081  19.035 -0.2430 -0.1604  0.3014
22936W        W66030  28.259  19.630  20.178 -0.2783  0.0868 -0.0381
22937W        W66031  27.456  19.163  15.833 -0.1535 -0.1780 -0.1299
22938W        W66032  29.380  18.815  19.538  0.0586  0.4134 -0.1904
22939W        W66033  24.407  22.123  15.726  0.2072 -0.0182  0.1886
22940W        W66034  26.815  19.419  17.892 -0.1436 -0.2372 -0.0851
22941W        W66035  25.771  21.889  18.735  0.0078  0.0768  0.1070
22942W        W66036  26.152  21.174  19.548 -0.0207 -0.1325 -0.1110
22943W        W66037  26.382  20.357  18.337 -0.1698 -0.1773  0.1163
22944W        W66038  27.561  20.145  18.913 -0.1236  0.0382 -0.3896
22945W        W66039  28.413  20.005  17.786  0.2983  0.1407 -0.1784
22946W        W66040  27.487  21.573  17.772  0.1329 -0.2048 -0.0368
22947W        W66041  29.554  19.647  19.387 -0.1766 -0.0350  0.4928
22948W        W66042  27.566  21.427  19.635 -0.3930  0.1000  0.1243
22949W        W66043  25.577  20.451  17.014 -0.2417  0.0480 -0.0304
22950W        W66044  26.462  23.167  17.809  0.0883 -0.0181 -0.1944
22951W        W66045  27.607  21.932  18.298  0.0374 -0.0771 -0.1894
22952W        W66046  25.144  22.587  17.357  0.1294 -0.4004  0.1250
22953W        W66047  27.633  17.943  19.128  0.1602 -0.1458  0.0642
22954W        W66048  26.263  20.475  19.776  0.2345  0.4643  0.3225
22955W        W66049  27.868  19.787  17.943 -0.1232  0.4502  0.1023
22956W        W66050  27.830  18.798  16.480 -0.1471 -0.0688  0.0298
22957W        W66051  26.396  21.744  16.386 -0.0570  0.0695  0.3097
22958W        W66052  25.865  22.080  20.394  0.0837  0.1919  0.2021
22959W        W66053  25.575  19.462  20.624 -0.1392  0.0029  0.1071
22960W        W66054  25.992  22.040  15.769  0.2090  0.1332 -0.1877
22961W        W66055  27.325  19.961  18.503  0.1208 -0.0461  0.1624
22962W        W66056  27.788  19.681  16.969 -0.0159 -0.2657  0.1213
22963W        W66057  28.002  21.410  17.417 -0.1823  0.0257 -0.0609
22964W        W66058  26.890  20.002  15.877  0.1314  0.2205 -0.0377
22965W        W66059  24.111  21.794  17.198  0.6257 -0.2716 -0.1220
22966W        W66060  25.444  21.157  15.248 -0.0535  0.2157 -0.0581
22967W        W66061  27.272  21.024  16.958 -0.1228 -0.3975 -0.1155
22968W        W66062  26.188  22.168  16.223  0.0362 -0.1041 -0.2617
22969W        W66063  27.052  23.065  19.193 -0.1542  0.1410  0.1404
22970W        W66064  28.907  17.381  17.260 -0.0803 -0.2342 -0.1683
22971W        W66065  28.964  20.763  17.515  0.4079 -0.1761 -0.0889
22972W        W66066  28.733  20.153  16.979 -0.1678 -0.1094  0.2170
22973W        W66067  28.060  21.976  18.892  0.3249  0.0116  0.0493
22974W        W66068  26.689  20.283  16.721  0.3098 -0.1235  0.0397
22975W        W66069  27.516  19.863  16.477  0.0488  0.0966 -0.1145
22976W        W66070  26.134  19.726  18.255 -0.2087  0.0209 -0.1830
22977W        W66071  29.228  17.723  19.074  0.0796  0.0225  0.0100
22978W        W66072  26.224  22.636  19.087 -0.0776 -0.1620 -0.1277
22979W        W66073  27.912  21.691  16.849  0.0511  0.1037  0.1941
22980W        W66074  25.224  18.779  16.480 -0.1312 -0.1390  0.1398
22981W        W66075  27.106  20.620  18.574 -0.2456  0.3228 -0.0052
22982W        W66076  28.550  18.298  19.382  0.1772  0.1519 -0.0156
22983W        W66077  26.622  20.561  16.230 -0.3575 -0.0873  0.0528
22984W        W66078  26.452  18.884  16.252 -0.1183  0.0942  0.0341
22985W        W66079  26.514  22.719  16.152  0.1027  0.3071 -0.0558
22986W        W66080  24.684  21.291  17.831 -0.3778 -0.1069 -0.0540
22987W        W66081  25.033  22.673  18.405 -0.1980 -0.1033 -0.0264
22988W        W66082  25.132  17.794  15.734  0.0803  0.0692 -0.0891
22989W        W66083  29.717  19.096  18.242  0.2970  0.0500 -0.0186
22990W        W66084  26.276  19.404  17.897 -0.0243 -0.2152  0.1541
22991W        W66085  28.462  19.234  18.406 -0.0880  0.0125 -0.1006
22992W        W66086  25.589  20.931  17.090 -0.0162 -0.4404 -0.0823
22993W        W66087  27.985  19.715  17.420 -0.1262 -0.1935 -0.2238
22994W        W66088  25.484  22.355  19.640 -0.1159  0.1863  0.2613
22995W        W66089  26.258  19.913  20.638 -0.1608  0.0523  0.0426
22996W        W66090  25.693  21.192  16.024 -0.0622  0.0670 -0.0227
22997W        W66091  29.089  19.089  19.242  0.2600  0.4786  0.2168
22998W        W66092  27.114  20.492  16.744 -0.0873  0.1574  0.0575
22999W        W66093  27.040  22.075  19.045 -0.3167  0.0619  0.1699
23000W        W66094  26.449  20.583  17.042  0.3095  0.0302  0.4427
23001W        W66095  27.360  20.251  17.826 -0.1992  0.1436 -0.2488
23002W        W66096  24.560  21.500  17.369  0.0617 -0.2638 -0.4974
23003W        W66097  26.084  22.323  18.661 -0.2169  0.1440  0.2115
23004W        W66098  27.592  21.952  19.738 -0.1066 -0.0557  0.4251
23005W        W66099  27.143  18.606  17.204  0.0726 -0.1816  0.0194
23006W        W66100  29.035  19.447  16.643 -0.0309 -0.1222  0.0159
23007W        W66101  28.902  18.964  18.429  0.1769 -0.0472  0.1568
23008W        W66102  26.422  21.314  15.626  0.1438  0.2770  0.0558
23009W        W66103  27.530  20.388  18.281 -0.0154 -0.1410 -0.0130
23010W        W66104  26.318  21.446  17.510 -0.0913 -0.1065  0.0398
23011W        W66105  25.507  19.833  16.973 -0.2476 -0.0258  0.0980
23012W        W66106  27.502  21.283  19.037 -0.0196  0.2624  0.0176
23013W        W66107  28.065  21.215  18.867  0.2631 -0.1911 -0.0440
23014W        W66108  27.645  19.274  16.303 -0.2688 -0.0344 -0.0315
23015W        W66109  26.194  20.164  19.378  0.0711 -0.2904 -0.1685
23016W        W66110  26.809  20.879  16.717  0.1804 -0.0721  0.1421
23017W        W66111  27.659  20.062  17.458 -0.1479 -0.1058  0.2515
23018W        W66112  28.807  18.081  18.464  0.0001 -0.0226  0.1746
23019W        W66113  26.832  23.162  15.909  0.1639 -0.0501  0.4432
23020W        W66114  29.968  18.383  19.441 -0.0818  0.0403  0.0107
23021W        W66115  27.591  21.899  17.365  0.1730  0.1581 -0.0171
23022W        W66116  25.433  22.397  20.139  0.1295  0.0295 -0.0764
23023W        W66117  25.678  20.722  15.914  0.2868 -0.1670  0.3796
23024W        W66118  27.237  21.638  18.629 -0.0528  0.2028  0.0402
23025W        W66119  26.492  21.743  17.152  0.0537  0.1921  0.2908
23026W        W66120  26.711  22.351  17.075 -0.2285 -0.4783  0.0797
23027W        W66121  26.731  21.479  18.390 -0.1000 -0.0905 -0.2987
23028W        W66122  26.756  19.654  16.828  0.1074  0.1263 -0.0401
23029W        W66123  28.876  21.695  17.874 -0.1006  0.0628  0.1797
23030W        W66124  27.024  19.166  17.033 -0.0158 -0.1488  0.1609
23031W        W66125  28.101  17.840  16.969 -0.0987  0.3392  0.1303
23032W        W66126  27.946  18.087  17.597 -0.2442 -0.1095  0.4381
23033W        W66127  27.130  19.501  19.757  0.1101 -0.0039  0.0718
23034W        W66128  25.562  18.642  16.053  0.0883  0.1033 -0.1164
23035W        W66129  25.968  20.322  16.164  0.1450  0.1144  0.0155
23036W        W66130  24.863  21.032  16.564 -0.1412  0.2807 -0.0989
23037W        W66131  27.022  19.824  20.122 -0.0509 -0.2924 -0.0188
23038W        W66132  26.227  20.948  20.070  0.1920  0.0549 -0.1326
23039W        W66133  26.891  20.391  17.989  0.1416  0.0929 -0.2751
23040W        W66134  26.182  20.848  16.441  0.1648 -0.1156 -0.1994
23041W        W66135  28.733  21.006  16.745  0.0641  0.0168 -0.0815
23042W        W66136  26.598  18.917  17.881 -0.0948  0.3093  0.2775
23043W        W66137  25.702  19.763  16.490 -0.4392  0.1256 -0.0982
23044W        W66138  27.462  21.508  17.053  0.1242 -0.1089  0.1688
23045W        W66139  28.367  21.859  17.024  0.2066 -0.1386 -0.2070
23046W        W66140  25.928  18.580  16.471 -0.1999 -0.0988  0.3199
23047W        W66141  27.654  20.502  20.437 -0.1862 -0.0793 -0.1022
23048W        W66142  24.950  20.048  15.953 -0.1902 -0.2619  0.0905
23049W        W66143  27.156  20.261  19.150  0.3664 -0.0190 -0.0485
23050W        W66144  26.734  18.723  19.324 -0.3993  0.1397  0.1079
23051W        W66145  25.776  19.093  15.719  0.0189 -0.2544  0.0550
23052W        W66146  27.172  18.908  19.602  0.1970 -0.1528 -0.3248
23053W        W66147  26.257  22.204  17.970 -0.3108  0.2251 -0.2352
23054W        W66148  27.358  22.816  16.643  0.0197  0.2644 -0.1007
23055W        W66149  26.920  19.874  18.904 -0.1716 -0.0497  0.2014
23056W        W66150  26.004  22.996  17.984  0.0211 -0.0129 -0.1250
23057W        W66151  26.062  17.289  19.363  0.0017  0.2345 -0.1967
23058W        W66152  27.156  20.775  16.354  0.1803  0.0161 -0.0600
23059W        W66153  25.358  20.803  18.411 -0.1910 -0.1149 -0.1094
23060W        W66154  28.212  20.871  16.679 -0.2922 -0.1701  0.1257
23061W        W66155  28.990  18.980  17.613 -0.3055 -0.3077 -0.1421
23062W        W66156  28.497  19.777  17.337 -0.4378  0.1134  0.0504
23063W        W66157  25.787  17.998  17.945 -0.1573 -0.4606  0.1818
23064W        W66158  25.924  19.812  17.825  0.1376 -0.1302 -0.1444
23065W        W66159  28.954  20.319  18.970  0.1175 -0.1895  0.2715
23066W        W66160  27.008  19.096  17.498 -0.1117  0.0601  0.0622
23067W        W66161  28.278  17.766  17.818  0.0127 -0.0814 -0.3195
23068W        W66162  27.648  22.140  16.858 -0.0011  0.1290 -0.1099
23069W        W66163  27.098  20.997  17.883 -0.0453  0.2164 -0.0622
23070W        W66164  26.171  20.747  15.933  0.0333 -0.0538  0.0069
23071W        W66165  29.330  20.342  17.999  0.1976 -0.1227  0.1758
23072W        W66166  26.795  21.500  18.871 -0.1317 -0.0822  0.1188
23073W        W66167  29.765  19.825  19.808 -0.0079 -0.1374 -0.1667
23074W        W66168  27.279  21.791  16.704  0.2470 -0.0652  0.2330
23075W        W66169  28.076  20.069  18.991 -0.2954  0.0652 -0.0412
23076W        W66170  27.180  22.541  19.082  0.0208 -0.1547  0.1084
23077W        W66171  28.639  22.451  20.226  0.0621  0.2956  0.1123
23078W        W66172  26.279  22.216  17.285 -0.0199  0.0840  0.1172
23079W        W66173  28.653  19.983  19.197  0.0523 -0.0685  0.1973
23080W        W66174  25.714  18.794  17.463  0.0376  0.0691 -0.0326
23081W        W66175  24.909  19.024  16.213  0.0758 -0.2878  0.3124
23082W        W66176  26.953  21.467  17.079  0.1882 -0.0913 -0.0610
23083W        W66177  26.999  19.774  16.325  0.0465 -0.0653 -0.0404
23084W        W66178  25.460  20.024  16.160 -0.3415 -0.0737  0.0964
23085W        W66179  27.266  19.508  16.720 -0.0802 -0.1445 -0.0881
23086W        W66180  25.111  21.233  18.376 -0.0342 -0.0131  0.0461
23087W        W66181  27.547  21.416  18.270  0.2255  0.4278  0.1904
23088W        W66182  26.875  21.328  23.176 -0.0002 -0.1324  0.0440
23089W        W66183  26.841  18.921  20.813 -0.0571  0.3592  0.0622
23090W        W66184  28.500  17.982  20.300 -0.0592 -0.0884  0.2286
23091W        W66185  27.976  19.778  19.778 -0.2584  0.0513 -0.1673
23092W        W66186  27.002  19.372  20.696  0.0889  0.1198 -0.0508
23093W        W66187  27.541  20.973  19.471  0.1459  0.1512  0.1352
23094W        W66188  26.168  17.854  23.141  0.1203 -0.0797  0.0009
23095W        W66189  28.981  21.578  21.878  0.1078  0.0438 -0.2417
23096W        W66190  27.807  22.120  22.588  0.1177  0.0850 -0.1947
23097W        W66191  28.283  19.255  20.487  0.0344 -0.0130 -0.0307
23098W        W66192  27.582  19.425  22.181 -0.0370 -0.2795  0.1944
23099W        W66193  26.101  20.710  24.115 -0.2655  0.3006  0.1767
23100W        W66194  27.880  18.077  20.423 -0.0195 -0.4188  0.3916
23101W        W66195  24.800  17.575  23.085 -0.0170 -0.1757 -0.3614
23102W        W66196  28.373  20.241  21.657  0.0988  0.2026 -0.0848
23103W        W66197  24.742  20.565  20.584  0.0339  0.1635  0.0077
23104W        W66198  28.536  17.984  23.364 -0.1327  0.0686  0.0195
23105W        W66199  27.531  18.687  20.871  0.3913  0.1193  0.0072
23106W        W66200  28.127  21.642  21.000  0.1856  0.2534  0.2178
23107W        W66201  27.458  19.399  24.142  0.2347 -0.0583  0.0590
23108W        W66202  28.633  17.373  24.229  0.2293 -0.0100  0.1282
23109W        W66203  27.245  21.331  20.664 -0.1173 -0.0636  0.1749
23110W        W66204  26.960  19.849  20.632 -0.0506 -0.1535  0.2229
23111W        W66205  26.372  18.556  20.661 -0.1469 -0.1961  0.0711
23112W        W66206  27.012  19.820  23.460 -0.1205  0.2124 -0.0099
23113W        W66207  28.795  19.581  21.382 -0.2334  0.1652  0.1507
23114W        W66208  28.184  20.600  22.680  0.2291 -0.2567  0.2165
23115W        W66209  26.699  21.587  22.029  0.0640 -0.3123  0.2413
23116W        W66210  26.748  22.152  20.583 -0.2428 -0.1131  0.0549
23117W        W66211  27.577  19.555  23.080  0.0340 -0.1909 -0.2019
23118W        W66212  25.197  22.025  21.152  0.0366  0.1949 -0.1681
23119W        W66213  26.469  22.351  22.635 -0.5187 -0.2313  0.0692
23120W        W66214  27.729  21.156  20.938  0.1678 -0.1970  0.0329
23121W        W66215  29.124  22.588  20.289  0.1908  0.1065 -0.0380
23122W        W66216  28.570  20.836  22.842  0.1351 -0.0066 -0.0087
23123W        W66217  27.497  21.602  22.373  0.1518  0.0370 -0.0107
23124W        W66218  24.809  20.397  20.019 -0.2948 -0.3910  0.1377
23125W        W66219  28.202  21.546  24.217 -0.1516 -0.1160  0.0145
23126W        W66220  25.399  20.074  23.327  0.0216 -0.0425 -0.3173
23127W        W66221  27.064  19.574  21.807  0.1628 -0.0881 -0.5697
23128W        W66222  27.718  21.338  21.916  0.1204 -0.0637 -0.2079
23129W        W66223  27.503  22.850  19.387 -0.0519  0.0730  0.1540
23130W        W66224  27.018  20.997  22.676 -0.4647 -0.0627 -0.3360
23131W        W66225  26.613  21.428  25.527  0.4822 -0.2422 -0.0996
23132W        W66226  25.676  21.091  22.464  0.0135  0.1111  0.1533
23133W        W66227  29.863  19.725  23.266  0.2702  0.3018  0.1717
23134W        W66228  27.086  22.501  18.103  0.2400  0.1378  0.1306
23135W        W66229  28.386  19.500  20.878 -0.0511  0.2113 -0.1735
23136W        W66230  27.457  19.166  19.143 -0.2559  0.0935 -0.2626
23137W        W66231  28.730  19.603  20.395 -0.2304 -0.1450  0.0782
23138W        W66232  28.466  19.111  21.331 -0.0672 -0.0388 -0.0722
23139W        W66233  26.336  22.232  23.853 -0.1827 -0.2460 -0.1274
23140W        W66234  27.509  19.038  23.281  0.1646 -0.2322  0.0140
23141W        W66235  28.132  20.624  23.280 -0.2151  0.0420 -0.1065
23142W        W66236  28.253  18.977  20.919 -0.5010 -0.2395  0.1208
23143W        W66237  29.062  19.854  21.086  0.1674  0.1256 -0.0109
23144W        W66238  27.213  23.921  23.680 -0.0666  0.0440 -0.1220
23145W        W66239  27.250  19.816  22.207 -0.2615 -0.2353  0.2461
23146W        W66240  27.148  20.332  20.410  0.1959  0.1863 -0.1248
23147W        W66241  28.662  21.081  21.577 -0.0678 -0.0229 -0.0298
23148W        W66242  28.545  20.600  21.298 -0.1772 -0.1099  0.1539
23149W        W66243  26.564  20.037  21.434  0.1999  0.3553  0.3139
23150W        W66244  26.163  19.788  23.661 -0.1510 -0.2607 -0.1743
23151W        W66245  25.353  18.773  22.565 -0.1762  0.0111  0.2542
23152W        W66246  28.175  18.092  19.029  0.1151  0.0297  0.2072
23153W        W66247  27.957  19.947  22.353 -0.0660  0.1945 -0.0832
23154W        W66248  26.228  19.638  21.636 -0.2487  0.0409  0.1016
23155W        W66249  29.677  17.734  21.750 -0.2940 -0.0467 -0.1757
23156W        W66250  27.500  19.803  21.746 -0.3211 -0.1694  0.0328
23157W        W66251  29.423  21.684  21.632  0.2664  0.0340  0.0730
23158W        W66252  28.483  19.241  19.000  0.3169  0.1381  0.0195
23159W        W66253  29.163  18.002  21.050 -0.1406  0.2859  0.0720
23160W        W66254  28.234  18.136  21.344  0.0486  0.1149  0.2298
23161W        W66255  27.892  20.039  21.452 -0.2159  0.3266 -0.2439
23162W        W66256  28.005  18.438  20.852  0.3283 -0.1421  0.0455
23163W        W66257  28.813  21.988  21.667 -0.0270 -0.0182 -0.0859
23164W        W66258  27.847  19.374  20.061 -0.1631 -0.0316 -0.2897
23165W        W66259  26.124  22.391  24.777  0.0492 -0.1185 -0.0716
23166W        W66260  28.131  20.139  23.914  0.0350 -0.0537  0.1110
23167W        W66261  27.876  21.287  24.778 -0.1853  0.0231 -0.1847
23168W        W66262  26.319  23.339  19.897 -0.3200 -0.0319  0.2421
23169W        W66263  26.758  21.069  21.757  0.1342  0.0734  0.0323
23170W        W66264  26.406  19.185  20.897 -0.0226  0.0455 -0.0848
23171W        W66265  26.516  18.353  23.754 -0.1060  0.1443  0.1104
23172W        W66266  26.600  21.357  22.752  0.2085 -0.2573 -0.1182
23173W        W66267  28.849  18.970  21.784 -0.2182  0.2583  0.0108
23174W        W66268  26.179  18.369  22.863 -0.0573  0.3121  0.0333
23175W        W66269  29.638  18.374  20.938 -0.3265  0.0711  0.0311
23176W        W66270  25.347  21.230  20.980  0.0812  0.1014  0.0801
23177W        W66271  26.739  21.496  21.173 -0.1293  0.2158 -0.2505
23178W        W66272  28.562  19.062  22.308 -0.0268 -0.0296  0.1509
23179W        W66273  26.848  23.165  19.980 -0.0590  0.1689  0.0553
23180W        W66274  25.360  19.370  22.311 -0.1848 -0.1805 -0.0528
23181W        W66275  27.243  19.108  21.025 -0.0542 -0.0435  0.0688
23182W        W66276  26.454  20.358  24.271 -0.0322 -0.2613 -0.0575
23183W        W66277  26.902  17.547  22.722 -0.2630  0.3764 -0.0986
23184W        W66278  28.095  19.328  22.120 -0.3655  0.2121  0.0953
23185W        W66279  27.012  18.084  20.310 -0.2164  0.3400  0.0665
23186W        W66280  27.949  17.766  21.528  0.0481  0.0607  0.3489
23187W        W66281  27.844  19.614  21.053 -0.0789 -0.0806  0.3563
23188W        W66282  25.973  20.815  21.079  0.1052 -0.2158  0.2427
23189W        W66283  28.870  20.180  23.108  0.1196  0.0691  0.1774
23190W        W66284  26.258  22.767  20.833 -0.2679 -0.0665  0.0970
23191W        W66285  29.589  22.233  23.546 -0.3133 -0.0221  0.0660
23192W        W66286  28.974  20.651  21.669  0.0024 -0.1142 -0.0450
23193W        W66287  25.965  18.325  23.300 -0.2131 -0.2213  0.0106
23194W        W66288  25.931  16.851  21.164 -0.4864 -0.1920 -0.4154
23195W        W66289  26.326  21.491  23.157 -0.2803 -0.1592 -0.1712
23196W        W66290  27.617  22.217  21.959  0.1243 -0.1970  0.0033
23197W        W66291  26.450  19.024  20.385  0.0270 -0.4234 -0.1906
23198W        W66292  28.880  22.097  20.884 -0.2080 -0.2545 -0.0851
23199W        W66293  27.577  20.422  21.524  0.0093  0.0143 -0.1105
23200W        W66294  26.734  21.943  22.440  0.2662  0.2731 -0.0242
23201W        W66295  28.258  18.408  23.461 -0.0708 -0.2101 -0.3306
23202W        W66296  27.297  20.999  23.263 -0.2053  0.0026  0.2827
23203W        W66297  26.975  19.216  21.481  0.1062  0.0523  0.0257
23204W        W66298  25.686  16.851  19.620 -0.1190 -0.0487 -0.0799
23205W        W66299  27.532  20.931  21.652  0.0527 -0.4232  0.2068
23206W        W66300  27.028  21.813  20.849 -0.0145  0.0173 -0.2392
23207W        W66301  27.008  20.741  20.829  0.1241 -0.4372  0.2588
23208W        W66302  27.841  22.995  22.239 -0.0261 -0.0622 -0.1149
23209W        W66303  27.658  18.086  21.766  0.1186 -0.1127  0.3644
23210W        W66304  23.559  19.816  22.850 -0.0131 -0.0236  0.1491
23211W        W66305  27.404  20.238  24.285  0.1960 -0.1968  0.0602
23212W        W66306  26.680  17.263  21.786 -0.1677 -0.0658 -0.1607
23213W        W66307  27.761  21.268  24.207 -0.3745 -0.0267 -0.3099
23214W        W66308  28.791  18.145  21.408  0.2168 -0.0636 -0.0028
23215W        W66309  28.729  18.708  21.325  0.1720  0.2053  0.0743
23216W        W66310  26.278  19.893  22.424 -0.0959 -0.0055  0.3409
23217W        W66311  28.270  21.766  20.513  0.0754  0.0751 -0.1577
23218W        W66312  28.689  18.842  20.385  0.1747  0.2765  0.1914
23219W        W66313  26.723  18.922  19.831 -0.1243 -0.1180 -0.1310
23220W        W66314  27.530  19.379  23.626  0.2060  0.1018 -0.1531
23221W        W66315  28.442  21.580  21.814 -0.0146  0.0917  0.1346
23222W        W66316  26.254  20.475  23.017  0.3939  0.0968 -0.0581
23223W        W66317  29.073  19.637  19.328  0.4591 -0.0058 -0.2449
23224W        W66318  29.070  21.699  19.596 -0.0043 -0.1608 -0.3851
23225W        W66319  26.658  18.818  22.387  0.0469  0.0891  0.0513
23226W        W66320  27.538  19.991  23.504  0.1127  0.1675 -0.0228
23227W        W66321  28.473  20.684  21.802 -0.0411  0.1575  0.0778
23228W        W66322  29.013  17.983  23.512  0.2319  0.1857  0.1682
23229W        W66323  26.556  19.303  21.983 -0.2782  0.0058  0.0746
23230W        W66324  26.513  17.297  20.135 -0.3975  0.0664 -0.1842
23231W        W66325  25.088  20.102  20.308 -0.1781  0.2318  0.1172
23232W        W66326  28.805  18.782  22.740  0.2008 -0.2622  0.0114
23233W        W66327  27.808  20.882  22.138  0.0572 -0.0261 -0.1886
23234W        W66328  28.437  19.995  23.541  0.4365 -0.0236  0.0429
23235W        W66329  27.487  20.218  22.169 -0.3508 -0.0000 -0.3514
23236W        W66330  27.749  19.168  20.738 -0.1352  0.0653 -0.2750
23237W        W66331  28.135  21.010  22.986 -0.1586  0.0456  0.0285
23238W        W66332  25.977  20.035  18.590  0.0376 -0.0876  0.3524
23239W        W66333  26.845  17.988  23.613 -0.1095 -0.0331  0.0341
23240W        W66334  25.825  19.868  22.955  0.0499 -0.1106 -0.1499
23241W        W66335  27.358  21.991  22.679  0.0975 -0.1057 -0.0218
23242W        W66336  27.126  19.695  22.811 -0.0373  0.0317 -0.1205
23243W        W66337  28.202  21.106  22.471  0.4190  0.1118  0.4218
23244W        W66338  26.729  20.228  23.827  0.1146  0.2382  0.1035
23245W        W66339  27.361  18.176  21.322  0.1801  0.0819 -0.1727
23246W        W66340  26.322  22.427  20.389  0.0850 -0.1266 -0.0845
23247W        W66341  26.633  21.929  18.552 -0.2464 -0.3693 -0.2714
23248W        W66342  27.790  18.187  23.365  0.0688 -0.1214  0.0829
23249W        W66343  27.166  21.349  21.641  0.0521  0.0149 -0.1279
23250W        W66344  27.403  23.112  20.171 -0.1449 -0.3964 -0.2796
23251W        W66345  27.195  21.868  23.410 -0.0006  0.0145  0.4050
23252W        W66346  26.415  21.720  23.981 -0.1699  0.0080 -0.0327
23253W        W66347  28.517  17.306  22.929  0.2938  0.1896  0.0043
23254W        W66348  25.839  19.220  21.822 -0.0824  0.0171  0.0128
23255W        W66349  27.877  19.582  20.537  0.0260 -0.1746 -0.2604
23256W        W66350  25.739  19.899  21.008 -0.1690 -0.5083 -0.0344
23257W        W66351  29.157  19.193  21.187  0.1665 -0.4667  0.0083
23258W        W66352  27.060  20.681  19.513 -0.0746  0.0648  0.1297
23259W        W66353  27.686  17.973  22.887  0.0490 -0.1193  0.3326
23260W        W66354  28.820  18.605  22.175 -0.0314  0.0896  0.1902
23261W        W66355  24.807  19.384  22.346 -0.0320 -0.2305  0.1984
23262W        W66356  27.843  20.015  22.948 -0.1328  0.0317 -0.0197
23263W        W66357  28.149  19.156  19.646  0.2245  0.3954 -0.2397
23264W        W66358  28.743  20.318  22.563 -0.0291  0.3951 -0.0735
23265W        W66359  26.901  20.564  24.371  0.0095 -0.3262 -0.1416
23266W        W66360  25.263  18.591  18.917 -0.1644 -0.3629  0.3994
23267W        W66361  29.184  19.346  21.660  0.0073  0.1391 -0.0159
23268W        W66362  26.264  19.087  21.569  0.1310 -0.2282 -0.0401
23269W        W66363  26.069  21.473  21.879  0.2296  0.0444  0.0559
23270W        W66364  26.554  21.915  21.068 -0.0527 -0.3155 -0.0052
23271W        W66365  27.877  19.321  21.652  0.0268  0.0457 -0.2407
23272W        W66366  26.100  20.168  21.631  0.2427  0.0641  0.1769
23273W        W66367  26.632  18.697  22.976  0.0732 -0.3500 -0.0293
23274W        W66368  29.502  20.930  22.788  0.0785  0.1981 -0.0166
23275W        W66369  27.622  18.380  22.594  0.2915 -0.1807  0.0848
23276W        W66370  27.658  18.050  19.674  0.1233 -0.1317  0.1395
23277W        W66371  28.272  19.622  21.452 -0.1701  0.0968 -0.1071
23278W        W66372  28.231  21.251  20.681 -0.3536 -0.3128  0.1700
23279W        W66373  28.302  19.457  22.648 -0.2760  0.0132  0.0915
23280W        W66374  25.269  20.498  24.193  0.3478  0.1489 -0.4270
23281W        W66375  28.756  16.791  21.939 -0.0035  0.0915  0.0622
23282W        W66376  29.520  23.451  20.907 -0.0331 -0.1275 -0.1876
23283W        W66377  27.837  19.296  22.694 -0.1301  0.0370 -0.1192
23284W        W66378  25.908  19.205  21.299  0.0656  0.0082  0.0217
23285W        W66379  25.711  19.678  21.461  0.2525  0.1054  0.0152
23286W        W66380  26.373  21.377  20.297  0.0761  0.2076  0.0441
23287W        W66381  26.706  19.634  23.072 -0.2455  0.0620 -0.0756
23288W        W66382  26.541  20.858  22.686  0.0523 -0.0808 -0.2540
23289W        W66383  26.622  21.472  19.865  0.0227 -0.0623  0.2527
23290W        W66384  26.731  20.243  23.013  0.1664  0.3063  0.1772
23291W        W66385  29.031  18.885  19.860  0.1333  0.1286 -0.0806
23292W        W66386  28.796  20.460  20.267 -0.0025 -0.0975  0.3027
23293W        W66387  26.696  17.092  21.183  0.1267  0.1247  0.1315
23294W        W66388  29.516  19.715  21.305  0.1435 -0.1191  0.1092
23295W        W66389  29.062  18.288  20.049 -0.0003 -0.3427  0.3097
23296W        W66390  28.391  19.027  23.781 -0.1290  0.0082 -0.0289
23297W        W66391  26.486  18.234  23.234 -0.0851  0.1040 -0.1283
23298W        W66392  29.393  22.145  21.980  0.1295  0.0490  0.0643
23299W        W66393  26.119  19.518  22.153  0.1376 -0.2877  0.0987
23300W        W66394  27.848  21.041  23.487  0.0364  0.0775 -0.1400
23301W        W66395  26.516  19.132  23.140  0.1695 -0.0582  0.0330
23302W        W66396  27.430  19.152  21.730 -0.0887  0.1809 -0.0257
23303W        W66397  26.381  18.367  21.206  0.2371 -0.0916  0.2576
23304W        W66398  27.113  18.732  22.853 -0.1283 -0.2127 -0.0079
23305W        W66399  28.361  22.134  21.633 -0.1041  0.0259 -0.0278
23306W        W66400  27.493  19.465  21.341  0.1594 -0.0392  0.1746
23307W        W66401  27.895  21.255  21.449 -0.1096  0.1520 -0.1335
23308W        W66402  26.900  20.201  22.147  0.1160 -0.1631 -0.1126
23309W        W66403  28.453  20.076  20.341 -0.0732 -0.2019  0.1607
23310W        W66404  27.524  21.588  20.184 -0.0041 -0.2864  0.0525
23311W        W66405  26.271  21.637  22.499 -0.0494 -0.0866  0.1096
23312W        W66406  27.788  18.897  23.631 -0.0612  0.1781 -0.1426
23313W        W66407  26.129  20.122  21.107 -0.0167  0.0642  0.0547
23314W        W66408  26.757  17.519  20.924 -0.0054  0.1159  0.1207
23315W        W66409  28.629  19.604  23.095 -0.1421 -0.1870 -0.2505
23316W        W66410  27.562  19.735  22.585  0.0564  0.1550  0.0612
23317W        W66411  26.494  19.440  22.525  0.1569 -0.1722 -0.2071
23318W        W66412  26.139  18.705  24.428 -0.1342  0.1921 -0.2778
23319W        W66413  28.623  21.189  22.110 -0.1882  0.0615  0.0657
23320W        W66414  28.107  20.232  19.554  0.2146  0.2800  0.0202
23321W        W66415  29.638  18.212  21.637 -0.0863  0.0659 -0.3033
23322W        W66416  29.396  20.883  19.680  0.0133 -0.0579 -0.0518
23323W        W66417  27.467  18.210  20.136 -0.0396  0.0751 -0.0743
23324W        W66418  28.549  18.306  22.629 -0.1224  0.0595 -0.1573
23325W        W66419  27.965  19.745  23.656 -0.0890  0.1864  0.0753
23326W        W66420  28.138  17.988  19.535  0.0313  0.1460 -0.1858
23327W        W66421  28.034  19.163  23.288 -0.0003  0.3547 -0.1787
23328W        W66422  27.972  20.784  20.702 -0.1422  0.3255  0.1553
23329W        W66423  28.314  20.384  22.231 -0.0262  0.0822  0.1671
23330W        W66424  28.794  18.348  20.433 -0.1835 -0.1848 -0.0632
23331W        W66425  26.652  19.598  20.984  0.0836  0.1137 -0.3049
23332W        W66426  26.383  20.766  21.990 -0.1685 -0.1240  0.0384
23333W        W66427  27.419  19.582  20.352  0.2041 -0.2244  0.0423
23334W        W66428  27.653  21.167  20.429 -0.1328  0.2733  0.0221
23335W        W66429  27.233  21.161  22.231 -0.1474 -0.1088 -0.0790
23336W        W66430  26.946  20.874  23.620 -0.1191  0.0902  0.1239
23337W        W66431  26.463  18.540  20.151  0.1709 -0.1282  0.3599
23338W        W66432  30.319  20.048  21.599 -0.1741 -0.0275 -0.0169
23339W        W66433  25.846  22.000  20.866  0.0466  0.0474  0.2750
23340W        W66434  27.094  16.136  22.374 -0.3780  0.0783  0.2772
23341W        W66435  25.698  22.262  22.515  0.2374 -0.2185  0.0800
23342W        W66436  25.881  18.772  22.918 -0.1510 -0.1714  0.0700
23343W        W66437  26.961  21.039  21.270  0.1780 -0.0742 -0.2295
23344W        W66438  27.725  18.978  22.266  0.1595 -0.0649 -0.0787
23345W        W66439  27.507  20.640  20.942  0.0391  0.1060  0.0032
23346W        W66440  28.878  19.350  22.753 -0.1794  0.2283  0.1604
23347W        W66441  28.377  19.682  22.228  0.0884  0.0089  0.3442
23348W        W66442  27.219  18.917  22.170 -0.1840 -0.0518 -0.2600
23349W        W66443  25.809  19.038  20.872  0.0848  0.2662  0.3119
23350W        W66444  29.173  22.042  23.416  0.1015 -0.0918  0.0829
23351W        W66445  28.982  20.793  20.802 -0.1414 -0.1378  0.0299
23352W        W66446  26.427  21.707  21.558  0.0003  0.1771 -0.1894
23353W        W66447  23.968  19.714  23.802 -0.0565  0.1176 -0.0662
23354W        W66448  25.940  19.952  22.080  0.3956 -0.3135  0.0906
23355W        W66449  26.715  21.090  22.293 -0.1589  0.0311  0.2593
23356W        W66450  26.756  18.366  21.997  0.0298 -0.0111  0.0579
23357W        W66451  27.072  22.137  19.544  0.1002  0.1421 -0.0055
23358W        W66452  26.313  22.086  24.365  0.0721 -0.2511 -0.0759
23359W        W66453  25.875  18.697  21.834 -0.0138 -0.0588  0.1102
23360W        W66454  26.377  22.516  21.634  0.3118 -0.0758  0.1398
23361W        W66455  28.948  20.156  19.521 -0.0853 -0.3805 -0.0564
23362W        W66456  28.040  20.787  21.527 -0.4226 -0.0531  0.0799
23363W        W66457  27.214  20.591  22.947 -0.0475 -0.0051 -0.1279
23364W        W66458  28.222  17.669  21.091  0.0752  0.0677  0.1997
23365W        W66459  25.526  21.080  23.452 -0.2153 -0.4203 -0.0729
23366W        W66460  26.848  20.965  20.084  0.3243 -0.1882  0.1912
23367W        W66461  28.535  20.907  20.578 -0.1764 -0.2069 -0.2376
23368W        W66462  27.992  21.656  22.723 -0.1044 -0.3645  0.3536
23369W        W66463  27.271  20.056  23.102 -0.2038  0.0546  0.1278
23370W        W66464  29.531  17.919  20.230 -0.1670  0.0555  0.0446
23371W        W66465  29.751  20.059  21.647  0.0235  0.0102  0.5213
23372W        W66466  29.123  19.484  20.751  0.0644  0.1313 -0.2694
23373W        W66467  27.474  20.501  24.715  0.0708  0.0196  0.0114
23374W        W66468  28.523  18.127  22.045  0.3150  0.2632  0.1573
23375W        W66469  26.577  17.921  21.147  0.0159  0.2103 -0.0131
23376W        W66470  26.200  21.190  23.999 -0.0040 -0.1844 -0.0248
23377W        W66471  29.242  19.437  23.701 -0.1401 -0.2857  0.4960
23378W        W66472  25.228  21.920  23.757 -0.0283 -0.1003  0.3910
23379W        W66473  29.455  20.869  21.189  0.0396 -0.1446  0.2262
23380W        W66474  26.631  18.896  21.288 -0.0305 -0.2123  0.3301
23381W        W66475  28.009  20.064  20.747  0.3202 -0.1921 -0.0208
23382W        W66476  29.009  18.028  22.396 -0.0318 -0.2148 -0.3065
23383W        W66477  25.844  21.127  18.645 -0.1939 -0.1529 -0.0592
23384W        W66478  27.830  19.038  21.241 -0.0417 -0.0657  0.1101
23385W        W66479  26.919  22.132  21.995 -0.0171  0.2370  0.0271
23386W        W66480  27.536  20.469  23.329  0.1185 -0.2708  0.2856
23387W        W66481  27.303  21.433  21.156  0.2055 -0.2360 -0.0296
23388W        W66482  27.141  17.811  19.330  0.0409 -0.1020  0.1488
23389W        W66483  27.881  20.397  21.924  0.2751 -0.3030  0.0706
23390W        W66484  26.610  18.912  23.711 -0.0612  0.3733  0.1523
23391W        W66485  29.429  18.922  22.842  0.0280  0.0331  0.2590
23392W        W66486  26.017  18.912  20.224 -0.0448  0.0440  0.1798
23393W        W66487  28.715  19.090  20.793  0.1280 -0.0863  0.2074
23394W        W66488  26.553  20.318  22.543 -0.1905 -0.0968  0.3763
23395W        W66489  27.094  18.480  22.408  0.1000  0.1510  0.0312
23396W        W66490  27.100  20.279  20.915 -0.0177  0.6241 -0.0315
23397W        W66491  27.954  20.202  23.410 -0.0592 -0.0479  0.0705
23398W        W66492  26.595  19.500  19.811 -0.4274 -0.0610  0.2337
23399W        W66493  28.975  19.264  23.345 -0.0938 -0.1602  0.1878
23400W        W66494  25.842  18.540  19.828  0.0243  0.2007 -0.0466
23401W        W66495  27.458  19.524  20.835 -0.1333 -0.1676  0.2570
23402W        W66496  27.183  20.622  21.372 -0.0765 -0.0429  0.1714
23403W        W66497  27.235  18.057  22.703  0.2088 -0.0847 -0.3740
23404W        W66498  26.821  20.769  23.130  0.2121 -0.1994 -0.0097
23405W        W66499  27.178  17.390  21.849  0.0894  0.0734  0.0288
23406W        W66500  28.443  20.320  19.902 -0.0982  0.0865 -0.4041
23407W        W66501  29.159  18.958  22.160 -0.2001  0.1073  0.0501
23408W        W66502  27.312  23.201  19.690  0.1275 -0.0834 -0.0366
23409W        W66503  28.987  21.016  22.631  0.1051  0.0493 -0.1498
23410W        W66504  28.486  21.928  21.175  0.1005 -0.3030 -0.1641
23411W        W66505  26.782  18.876  21.799 -0.1076  0.3283  0.0925
23412W        W66506  27.790  21.617  20.650 -0.1340 -0.0707  0.0882
23413W        W66507  31.123  21.193  20.941  0.0620 -0.4273  0.0931
23414W        W66508  28.515  18.548  21.780 -0.2327  0.1468  0.2517
23415W        W66509  27.620  18.825  22.794  0.2797 -0.1850 -0.1740
23416W        W66510  25.559  21.656  21.124  0.2448 -0.0075  0.0202
23417W        W66511  28.876  19.980  20.652  0.2098  0.0729 -0.2509
23418W        W66512  28.877  19.469  22.230 -0.0715  0.0545  0.1281
23419W        W66513  27.126  23.080  21.672  0.0942 -0.0175 -0.1906
23420W        W66514  28.684  18.772  23.436  0.1058  0.1753 -0.2018
23421W        W66515  27.818  21.382  23.082 -0.1091 -0.0051 -0.1040
23422W        W66516  26.953  21.749  22.919 -0.1476  0.2087  0.0975
23423W        W66517  27.398  20.005  21.194 -0.0031 -0.1625  0.0968
23424W        W66518  27.088  19.330  23.153 -0.2537 -0.0531 -0.0829
23425W        W66519  27.516  21.730  21.632  0.0315 -0.1730  0.0075
23426W        W66520  28.032  21.491  20.215 -0.2364 -0.3379  0.0101
23427W        W66521  28.254  20.957  21.146 -0.0354 -0.1216 -0.2230
23428W        W66522  26.611  19.847  21.950  0.0303  0.0206 -0.0359
23429W        W66523  29.375  22.286  19.995 -0.5688  0.0117  0.4634
23430W        W66524  25.637  17.945  21.098 -0.3729 -0.3338  0.0358
23431W        W66525  29.118  18.369  21.905 -0.1151 -0.0772  0.0401
23432W        W66526  27.772  18.470  21.320 -0.3500 -0.0318  0.1704
23433W        W66527  26.102  20.661  22.540 -0.0393  0.1766 -0.1099
23434W        W66528  26.844  19.260  19.284  0.0357 -0.2670  0.0173
23435W        W66529  27.561  22.321  19.388  0.2465 -0.1421 -0.1321
23436W        W66530  27.155  20.213  21.616 -0.0286  0.1373  0.2599
23437W        W66531  26.995  19.095  24.144  0.1676 -0.0292 -0.3643
23438W        W66532  26.883  17.996  22.386 -0.1599 -0.0429 -0.1512
23439W        W66533  25.232  20.437  22.060  0.2645 -0.2858  0.2410
23440W        W66534  25.727  18.443  20.915 -0.1913  0.1325  0.1641
23441W        W66535  28.526  22.166  19.116  0.1043 -0.1420 -0.3436
23442W        W66536  28.243  18.602  22.227  0.0544  0.2256  0.1031
23443W        W66537  25.838  17.361  21.483 -0.1227 -0.0492  0.0881
23444W        W66538  27.983  20.463  21.117 -0.2758 -0.0096  0.0212
23445W        W66539  28.079  22.143  19.382  0.1134  0.0555 -0.0985
23446W        W66540  26.825  18.395  20.981  0.0052 -0.1098  0.2509
23447W        W66541  28.944  22.408  24.078 -0.1761 -0.1308  0.0209
23448W        W66542  27.337  21.028  19.910  0.2627  0.3753 -0.0829
23449W        W66543  27.896  20.371  24.242 -0.1460  0.2043 -0.1553
23450W        W66544  26.555  20.530  23.468 -0.0208  0.4249  0.1934
23451W        W66545  25.754  18.055  19.774  0.0498 -0.1350 -0.1880
23452W        W66546  28.557  19.340  21.813 -0.0972 -0.3086 -0.3634
23453W        W66547  28.804  20.983  20.114  0.0615  0.0783  0.0475
23454W        W66548  27.261  22.626  20.671  0.1261  0.1368  0.2365
23455W        W66549  27.672  21.105  22.577 -0.0436 -0.1425  0.2693
23456W        W66550  27.647  21.916  23.108 -0.0838  0.1512  0.2774
23457W        W66551  25.850  19.033  24.065  0.0738  0.1568 -0.3426
23458W        W66552  28.871  19.999  20.004 -0.2656  0.4699  0.1817
23459W        W66553  27.072  20.187  22.592  0.2091  0.1206  0.1763
23460W        W66554  28.358  22.015  20.036 -0.1620  0.1601 -0.0450
23461W        W66555  29.606  16.739  22.295 -0.1011 -0.0678  0.1097
23462W        W66556  26.836  20.406  19.921  0.1800 -0.0950 -0.0098
23463W        W66557  26.700  19.332  25.005 -0.0803  0.0031 -0.2158
23464W        W66558  25.663  20.931  23.882  0.0709 -0.1472 -0.1559
23465W        W66559  30.082  19.953  22.029 -0.2152  0.1518 -0.0065
23466W        W66560  25.204  17.768  23.275 -0.2374  0.0364  0.4622
23467W        W66561  28.521  18.579  20.882 -0.1397 -0.1291 -0.1349
23468W        W66562  27.891  21.998  20.191  0.2074  0.3858 -0.0217
23469W        W66563  27.267  19.174  22.644  0.2427  0.0707  0.0617
23470W        W66564  26.197  18.999  22.084  0.4230  0.0895  0.2181
23471W        W66565  27.243  17.869  23.220 -0.3208  0.2313 -0.2690
23472W        W66566  27.004  21.855  21.352 -0.1783  0.2001  0.3530
23473W        W66567  28.092  19.893  21.843 -0.0451  0.1056  0.1288
23474W        W66568  28.231  18.686  21.362  0.1297  0.2784  0.2236
23475W        W66569  28.102  20.522  20.207  0.0316  0.1659 -0.1713
23476W        W66570  29.574  21.440  22.676  0.4192  0.2457  0.0524
23477W        W66571  27.752  20.687  22.939 -0.0305  0.4944  0.0691
23478W        W66572  27.499  22.052  21.184 -0.2251  0.2291  0.2599
23479W        W66573  29.519  21.500  22.126  0.1311  0.0121  0.0136
23480W        W66574  25.250  17.919  22.844  0.2275 -0.0372 -0.1525
23481W        W66575  26.607  20.325  20.959  0.2203 -0.3472 -0.0798
23482W        W66576  27.235  20.871  20.395  0.0780  0.2325 -0.4812
23483W        W66577  29.210  18.402  21.387  0.2467 -0.0243  0.1752
23484W        W66578  27.239  18.481  21.842 -0.2398  0.3229 -0.0503
23485W        W66579  27.154  17.291  21.170  0.0044  0.0960  0.0893
23486W        W66580  26.210  20.838  23.674  0.1617 -0.0830 -0.0452
23487W        W66581  28.327  21.475  23.086  0.0946 -0.0304 -0.1249
23488W        W66582  25.582  21.051  28.602  0.1643 -0.3760  0.0289
23489W        W66583  26.445  21.157  26.086 -0.1160 -0.1771  0.3135
23490W        W66584  28.394  18.648  23.030  0.0666  0.0342  0.1454
23491W        W66585  28.793  19.349  23.837 -0.1459  0.2643 -0.1337
23492W        W66586  25.722  19.854  26.170  0.0178  0.2871 -0.0943
23493W        W66587  27.631  22.047  26.340 -0.0212  0.2008  0.2729
23494W        W66588  24.597  19.362  27.989 -0.0794  0.1574  0.3510
23495W        W66589  27.865  21.610  26.044 -0.0379  0.1251  0.0890
23496W        W66590  28.579  21.321  27.734 -0.0258 -0.0640 -0.0522
23497W        W66591  26.929  19.299  22.302 -0.2334 -0.1678 -0.0667
23498W        W66592  28.372  19.959  27.134 -0.0996 -0.2275  0.0354
23499W        W66593  26.443  22.523  27.110  0.0390 -0.3310 -0.1749
23500W        W66594  26.821  20.010  24.359  0.1271 -0.0764  0.1175
23501W        W66595  25.559  19.434  25.787  0.3531  0.2870  0.2344
23502W        W66596  28.340  21.175  27.288 -0.1921  0.0516 -0.0222
23503W        W66597  25.590  21.600  24.913  0.0875 -0.3428  0.0277
23504W        W66598  26.537  19.711  27.299 -0.1866 -0.3587 -0.0310
23505W        W66599  26.972  18.159  24.817  0.1860  0.0605 -0.1363
23506W        W66600  27.595  21.860  24.491 -0.4322  0.1130  0.0847
23507W        W66601  26.053  19.290  27.340 -0.2329  0.1653  0.7646
23508W        W66602  27.486  17.988  26.150 -0.1744 -0.0669 -0.0657
23509W        W66603  26.842  21.454  24.012  0.2443 -0.0181 -0.1860
23510W        W66604  25.768  20.062  23.679 -0.0746  0.2478  0.1129
23511W        W66605  24.960  19.446  25.503  0.0786  0.1216  0.0827
23512W        W66606  27.415  18.618  27.343  0.0042 -0.2567 -0.0039
23513W        W66607  27.590  20.118  26.104  0.0378  0.0657 -0.1917
23514W        W66608  28.555  20.751  25.778  0.5936  0.2446 -0.0398
23515W        W66609  25.987  21.843  25.741  0.0408 -0.1458  0.0971
23516W        W66610  28.042  22.247  25.424  0.0210  0.0119 -0.0284
23517W        W66611  28.784  19.499  28.503  0.0697 -0.0005  0.2438
23518W        W66612  25.988  22.085  25.207  0.4225  0.1962 -0.6199
23519W        W66613  24.548  21.361  26.734  0.0890  0.0970  0.1046
23520W        W66614  27.918  21.759  25.550  0.1451  0.2626  0.1007
23521W        W66615  28.630  21.521  23.687 -0.0912  0.0811 -0.1814
23522W        W66616  27.653  21.619  28.225  0.1626  0.3127 -0.0212
23523W        W66617  26.201  22.933  26.764 -0.1104 -0.0038 -0.0513
23524W        W66618  24.408  19.956  23.871  0.0187  0.3248 -0.3752
23525W        W66619  27.099  22.323  26.649  0.0743 -0.1798 -0.1281
23526W        W66620  26.534  21.398  27.862 -0.1414 -0.2090 -0.0938
23527W        W66621  27.008  20.495  27.595  0.0121  0.0483  0.0900
23528W        W66622  28.204  19.935  26.235 -0.0484  0.1684 -0.0794
23529W        W66623  27.794  21.779  24.053  0.3524  0.1691  0.2034
23530W        W66624  26.922  21.415  25.948 -0.2937 -0.1189 -0.0297
23531W        W66625  26.638  19.789  26.794  0.2749  0.0467 -0.1911
23532W        W66626  25.002  21.239  26.417 -0.3266  0.0673  0.0297
23533W        W66627  28.278  20.949  27.848 -0.0371 -0.0773  0.1495
23534W        W66628  25.672  21.447  23.870  0.2804 -0.1379  0.1060
23535W        W66629  28.558  19.130  23.064  0.0597  0.3535 -0.2726
23536W        W66630  26.795  19.834  22.440 -0.0419 -0.2062  0.1529
23537W        W66631  27.554  19.827  25.556  0.0837  0.0270 -0.1728
23538W        W66632  28.034  18.039  26.843 -0.1431 -0.1641  0.0306
23539W        W66633  24.579  21.444  26.198  0.0072 -0.2508 -0.3625
23540W        W66634  26.788  19.002  25.476  0.1839  0.1039 -0.4490
23541W        W66635  27.653  22.191  28.155  0.3055  0.0745  0.3271
23542W        W66636  26.530  19.772  23.958  0.2588 -0.2070  0.0155
23543W        W66637  27.316  19.676  26.908  0.0993  0.1254 -0.3245
23544W        W66638  26.576  20.311  27.466 -0.0071  0.0873 -0.0033
23545W        W66639  25.302  20.075  25.072  0.0664 -0.2147  0.4514
23546W        W66640  28.963  21.912  23.850 -0.1887 -0.1635 -0.0961
23547W        W66641  30.534  22.108  24.009 -0.0947 -0.0585  0.0254
23548W        W66642  27.809  20.371  22.549  0.2625  0.0938  0.0336
23549W        W66643  25.453  20.681  25.167  0.4466 -0.1463 -0.0201
23550W        W66644  25.380  20.764  27.607  0.0050  0.0214 -0.0600
23551W        W66645  25.327  20.350  26.141  0.1774 -0.0317 -0.0599
23552W        W66646  26.497  18.998  24.684 -0.1451  0.2090 -0.0518
23553W        W66647  28.272  19.359  27.166  0.0814  0.0311 -0.0972
23554W        W66648  26.231  21.669  28.557  0.0978 -0.1490  0.1699
23555W        W66649  29.804  19.623  25.217 -0.2069  0.0721  0.1357
23556W        W66650  26.119  20.491  26.916  0.0067  0.0560 -0.4031
23557W        W66651  28.141  22.570  25.814  0.1283  0.0459 -0.0489
23558W        W66652  29.011  20.687  23.013  0.1322  0.2604 -0.3393
23559W        W66653  27.437  19.346  25.579 -0.2754  0.1958 -0.3799
23560W        W66654  27.778  19.380  26.857  0.2361 -0.0885 -0.1407
23561W        W66655  25.162  20.483  24.747 -0.0073 -0.4226  0.1926
23562W        W66656  26.239  20.101  25.167 -0.0844  0.1064 -0.1505
23563W        W66657  27.327  22.512  25.042 -0.2087 -0.0607  0.1941
23564W        W66658  28.581  21.108  25.342 -0.2960  0.1054 -0.1829
23565W        W66659  25.993  20.801  25.767  0.1220 -0.1371  0.0538
23566W        W66660  28.229  19.016  27.531 -0.1226 -0.0966  0.1739
23567W        W66661  27.406  20.977  27.410  0.1474 -0.2521 -0.0436
23568W        W66662  26.322  21.380  24.468 -0.2437  0.2254 -0.1897
23569W        W66663  25.632  21.137  25.797  0.0517 -0.0205  0.0634
23570W        W66664  27.797  20.690  25.178  0.1043 -0.2565  0.2312
23571W        W66665  26.882  18.604  27.319  0.0578 -0.0906  0.3657
23572W        W66666  27.357  19.027  27.578  0.1722  0.1374 -0.0567
23573W        W66667  28.902  20.679  25.307 -0.3192 -0.1278  0.3164
23574W        W66668  26.283  19.464  27.800  0.1296  0.1006 -0.2099
23575W        W66669  28.375  18.707  26.145  0.1702 -0.0200  0.0645
23576W        W66670  24.926  20.509  26.371 -0.1755 -0.0315  0.2307
23577W        W66671  28.880  22.043  25.568  0.0159 -0.1226  0.3353
23578W        W66672  28.138  19.655  23.162 -0.0431  0.0408  0.0216
23579W        W66673  27.164  21.059  24.143 -0.1837 -0.0633 -0.3019
23580W        W66674  25.083  19.554  26.772  0.1397  0.1711  0.0767
23581W        W66675  26.826  19.495  26.403 -0.1441  0.1497 -0.0751
23582W        W66676  25.690  19.524  27.021 -0.2697 -0.2421  0.2097
23583W        W66677  25.727  18.916  25.770 -0.0692 -0.3148  0.0296
23584W        W66678  27.842  21.002  28.295 -0.0840  0.2273 -0.2462
23585W        W66679  25.660  17.708  24.462 -0.2819  0.2862 -0.3497
23586W        W66680  28.502  19.526  26.013  0.3200  0.0079 -0.0010
23587W        W66681  27.201  19.809  26.406 -0.2580  0.0118 -0.0669
23588W        W66682  26.010  20.764  24.955  0.1130  0.1429  0.0675
23589W        W66683  28.887  18.351  28.387  0.1254  0.0065 -0.0011
23590W        W66684  27.147  21.335  23.626 -0.1758 -0.3357  0.3162
23591W        W66685  29.746  22.349  26.732 -0.0808 -0.2798  0.0322
23592W        W66686  27.894  23.052  26.052  0.0694  0.0513  0.0835
23593W        W66687  25.460  19.434  26.400 -0.3002 -0.1287  0.2001
23594W        W66688  25.846  19.211  25.399 -0.0086  0.0833  0.0105
23595W        W66689  26.162  22.283  27.583 -0.2099  0.5307 -0.0321
23596W        W66690  27.111  21.577  25.434  0.0577  0.1903 -0.2782
23597W        W66691  27.211  19.943  23.884  0.0237  0.0558  0.1946
23598W        W66692  27.611  21.243  25.271 -0.2650  0.0159 -0.2888
23599W        W66693  27.751  19.868  24.659  0.0836  0.0454 -0.4761
23600W        W66694  26.056  19.317  28.565  0.2328 -0.1134  0.1586
23601W        W66695  29.160  19.017  26.695 -0.1693 -0.3189 -0.1404
23602W        W66696  27.415  21.790  25.911  0.1306 -0.1646  0.0385
23603W        W66697  29.290  20.336  26.083  0.1402  0.0177  0.2141
23604W        W66698  26.041  19.520  24.112 -0.0099 -0.0171 -0.1750
23605W        W66699  27.275  23.692  26.139 -0.1081 -0.2206 -0.1303
23606W        W66700  25.710  22.101  24.623  0.1182 -0.0707 -0.0462
23607W        W66701  25.098  21.380  24.812  0.0009 -0.0357 -0.3694
23608W        W66702  27.541  20.375  25.578 -0.0390  0.3298 -0.1526
23609W        W66703  29.989  19.285  25.960 -0.0237  0.3151  0.1082
23610W        W66704  27.130  19.925  27.640 -0.3281  0.1906  0.0686
23611W        W66705  27.166  18.027  28.070  0.0732  0.3707 -0.1527
23612W        W66706  26.279  19.577  24.956  0.2177 -0.0386 -0.2971
23613W        W66707  25.984  20.693  27.567 -0.1671 -0.3092  0.1151
23614W        W66708  27.861  18.936  24.185 -0.2303  0.2843  0.2068
23615W        W66709  30.152  18.642  24.959 -0.0878 -0.0405 -0.3061
23616W        W66710  27.455  21.304  27.846  0.4242  0.0692 -0.0520
23617W        W66711  28.200  20.017  24.419 -0.0535 -0.0029 -0.0005
23618W        W66712  28.335  19.181  24.252 -0.0866  0.4514 -0.1599
23619W        W66713  27.254  19.787  24.510  0.0621  0.1174 -0.0126
23620W        W66714  25.517  21.326  26.360  0.0283 -0.0713 -0.0163
23621W        W66715  27.647  21.664  25.051  0.1082 -0.0771  0.0982
23622W        W66716  26.623  20.476  26.689  0.0356  0.0893 -0.1132
23623W        W66717  28.042  18.999  25.449 -0.1441  0.0722 -0.1368
23624W        W66718  28.217  21.275  26.257 -0.2763  0.1682 -0.0942
23625W        W66719  25.687  21.136  27.404  0.0030  0.1663  0.0002
23626W        W66720  27.337  21.053  28.296  0.1917 -0.0466  0.0359
23627W        W66721  27.541  21.306  25.800 -0.2601  0.0900 -0.3212
23628W        W66722  27.044  18.823  26.923 -0.0636  0.0986  0.1206
23629W        W66723  24.780  19.670  23.914  0.0387 -0.1401 -0.0538
23630W        W66724  27.990  17.979  26.293  0.1314 -0.0430 -0.0215
23631W        W66725  24.717  21.861  25.034 -0.1961 -0.0877  0.4315
23632W        W66726  29.503  19.440  26.133 -0.0662 -0.1783  0.1045
23633W        W66727  28.672  19.089  26.332  0.3280  0.2824  0.0862
23634W        W66728  26.806  18.926  25.953 -0.1620  0.4342  0.0507
23635W        W66729  29.389  19.406  28.842  0.0430  0.1878 -0.1570
23636W        W66730  28.214  19.374  25.109  0.2283  0.0411  0.2873
23637W        W66731  27.739  20.500  26.964  0.1476  0.2967 -0.0235
23638W        W66732  26.606  19.440  23.571  0.1248  0.2046 -0.1475
23639W        W66733  27.189  17.587  27.122  0.2623  0.0239 -0.2910
23640W        W66734  27.961  20.208  27.351 -0.0155 -0.1936 -0.1114
23641W        W66735  25.774  21.962  27.918 -0.1864  0.0455 -0.0885
23642W        W66736  27.187  21.459  28.877 -0.1167 -0.0070 -0.1009
23643W        W66737  27.201  21.818  26.821 -0.0431 -0.1242 -0.1071
23644W        W66738  28.863  19.468  27.150  0.1395  0.0358 -0.2001
23645W        W66739  27.026  18.472  23.799 -0.1929 -0.1819 -0.1370
23646W        W66740  25.300  21.002  24.267 -0.3786 -0.3800  0.1662
23647W        W66741  26.589  20.335  24.724  0.0722 -0.1802 -0.1484
23648W        W66742  26.458  18.681  27.088 -0.0651 -0.1309 -0.0417
23649W        W66743  27.434  21.997  25.439  0.0169 -0.1679  0.3835
23650W        W66744  26.389  20.880  24.552  0.1120 -0.0330  0.0595
23651W        W66745  27.029  22.781  27.465 -0.0324 -0.2096 -0.2282
23652W        W66746  26.893  21.934  25.884  0.1481  0.0910 -0.1090
23653W        W66747  27.218  17.573  26.140 -0.0368 -0.1713 -0.1156
23654W        W66748  25.513  22.076  25.616  0.1513  0.0239  0.1810
23655W        W66749  25.831  18.760  23.549 -0.2061 -0.2772 -0.0591
23656W        W66750  24.780  20.393  24.438 -0.1080 -0.0428 -0.0300
23657W        W66751  28.398  18.831  25.058 -0.0200 -0.0350  0.2385
23658W        W66752  29.705  19.943  24.799 -0.4227  0.1178 -0.2007
23659W        W66753  26.120  18.983  26.634  0.5373  0.1762  0.1317
23660W        W66754  27.032  19.584  25.441 -0.0058 -0.0068 -0.1189
23661W        W66755  26.034  22.798  27.534 -0.3650  0.1511 -0.2378
23662W        W66756  28.226  20.572  26.969  0.0794  0.0340  0.3958
23663W        W66757  26.249  18.705  23.332  0.1737 -0.0714 -0.0836
23664W        W66758  28.179  21.353  25.166 -0.2450 -0.1454 -0.0673
23665W        W66759  28.061  20.290  27.823  0.2030 -0.3317 -0.0572
23666W        W66760  24.525  19.318  23.698  0.1272  0.2269 -0.0616
23667W        W66761  27.842  21.049  27.702 -0.0364 -0.0904 -0.1221
23668W        W66762  26.663  19.884  25.848 -0.3436  0.0703  0.0073
23669W        W66763  25.962  21.142  26.183 -0.3518  0.0364 -0.0199
23670W        W66764  27.801  20.844  25.664 -0.2524 -0.0103  0.4145
23671W        W66765  26.226  20.311  23.791 -0.1712  0.0292 -0.0781
23672W        W66766  26.288  21.877  26.664  0.0545 -0.1120 -0.3797
23673W        W66767  26.887  19.440  27.781  0.1635  0.1255  0.1949
23674W        W66768  27.548  20.478  27.537 -0.1768 -0.0321  0.0814
23675W        W66769  26.558  18.563  26.209 -0.1377  0.0602  0.0023
23676W        W66770  27.154  19.875  25.923  0.1901 -0.2329  0.0085
23677W        W66771  27.863  19.152  26.391  0.1246  0.3652 -0.0223
23678W        W66772  27.312  20.918  25.640  0.1556 -0.0271 -0.5364
23679W        W66773  27.383  18.841  25.977 -0.3255  0.2672  0.1404
23680W        W66774  27.293  21.934  27.929  0.0425 -0.0786 -0.1183
23681W        W66775  28.609  17.451  26.868 -0.2861  0.0600  0.0069
23682W        W66776  27.816  22.204  24.857  0.0322 -0.1019 -0.1313
23683W        W66777  27.229  20.621  27.081 -0.1650 -0.2301 -0.0083
23684W        W66778  25.823  20.993  25.353 -0.1092 -0.1735  0.2390
23685W        W66779  26.161  19.935  25.861 -0.2837  0.2280 -0.0180
23686W        W66780  27.241  21.458  24.447 -0.3324 -0.0722 -0.1745
23687W        W66781  26.811  18.449  25.695 -0.0462  0.1570 -0.0515
23688W        W66782  24.909  20.674  27.819  0.1200  0.0582  0.0648
23689W        W66783  26.805  21.182  24.448 -0.0017  0.0872  0.1450
23690W        W66784  24.189  21.257  25.884  0.0213  0.0043  0.0218
23691W        W66785  28.545  19.571  24.452  0.2196  0.1821 -0.1991
23692W        W66786  28.133  19.993  24.907  0.0800 -0.3994 -0.0200
23693W        W66787  28.172  19.613  26.714  0.1762  0.1959 -0.0223
23694W        W66788  27.941  18.712  25.890  0.1175 -0.2486 -0.0547
23695W        W66789  27.102  20.443  25.725 -0.1005  0.1386 -0.0779
23696W        W66790  26.249  17.544  26.604  0.1952  0.2805  0.2002
23697W        W66791  26.329  17.458  27.122 -0.0351  0.0574 -0.5640
23698W        W66792  28.943  20.348  25.677  0.2486 -0.5168  0.4739
23699W        W66793  25.294  19.853  25.908  0.1191  0.1025  0.1149
23700W        W66794  26.747  22.687  26.762  0.0190  0.2917 -0.1621
23701W        W66795  26.942  20.962  27.976  0.5339 -0.3336  0.2338
23702W        W66796  27.192  20.074  25.343  0.0323  0.1081 -0.1634
23703W        W66797  26.716  19.884  24.947 -0.1816 -0.1378  0.0502
23704W        W66798  26.370  19.669  26.219  0.2760 -0.1793 -0.2397
23705W        W66799  27.530  20.967  26.757 -0.3512  0.5870 -0.2858
23706W        W66800  26.077  20.120  23.320 -0.2871 -0.2692 -0.0609
23707W        W66801  29.134  19.049  25.314 -0.1093 -0.2191 -0.0406
23708W        W66802  25.863  20.938  26.631  0.0666  0.1066 -0.0395
23709W        W66803  26.049  20.417  24.580 -0.0038 -0.1171  0.3136
23710W        W66804  26.601  20.817  24.060 -0.1011  0.0691 -0.0706
23711W        W66805  26.466  21.933  25.410 -0.2028  0.0402 -0.0762
23712W        W66806  28.481  18.146  27.427  0.0428  0.3249  0.0370
23713W        W66807  28.685  19.621  26.732  0.0392 -0.2648 -0.1320
23714W        W66808  27.782  19.701  26.462  0.1094  0.1444 -0.1172
23715W        W66809  27.353  19.351  26.502  0.0940  0.1877  0.1071
23716W        W66810  28.269  19.430  28.262 -0.1611 -0.1549 -0.2313
23717W        W66811  27.928  18.513  28.260  0.0496 -0.0506  0.1367
23718W        W66812  24.312  18.592  28.251  0.2853 -0.0407  0.1772
23719W        W66813  29.217  21.611  28.077 -0.1135 -0.0331 -0.0999
23720W        W66814  28.753  20.893  24.512  0.2468  0.0480 -0.0439
23721W        W66815  28.216  18.831  26.777 -0.0020 -0.2092  0.2565
23722W        W66816  28.978  19.621  25.263 -0.1268  0.0466 -0.3773
23723W        W66817  28.144  18.930  24.651  0.0197  0.3748 -0.3824
23724W        W66818  26.017  19.467  25.852  0.1639  0.4072 -0.2847
23725W        W66819  27.860  19.521  28.072  0.0159  0.0833 -0.0188
23726W        W66820  25.609  19.367  23.865 -0.1421  0.0320 -0.1243
23727W        W66821  28.078  19.731  27.471  0.0750 -0.0654  0.3137
23728W        W66822  27.114  21.930  24.229 -0.0133 -0.1263  0.0239
23729W        W66823  28.078  21.243  25.684 -0.0866  0.0533  0.1970
23730W        W66824  27.901  20.404  26.334 -0.2062  0.0713  0.0757
23731W        W66825  25.905  19.772  24.575  0.0764 -0.1112  0.3130
23732W        W66826  25.856  21.774  27.000  0.0425  0.1356 -0.2816
23733W        W66827  24.996  19.986  24.690 -0.0694  0.0192  0.1737
23734W        W66828  27.994  20.017  25.632 -0.2388 -0.1598 -0.2039
23735W        W66829  27.703  21.900  26.839  0.4091 -0.1632 -0.0195
23736W        W66830  29.498  19.840  27.361  0.1965 -0.1549 -0.2287
23737W        W66831  26.845  17.470  23.974  0.2705  0.0916 -0.2045
23738W        W66832  29.199  19.416  27.488  0.1521  0.0241 -0.3531
23739W        W66833  26.785  21.665  25.021  0.1123  0.0468 -0.1109
23740W        W66834  28.113  20.160  26.732 -0.2194  0.2221 -0.0135
23741W        W66835  26.847  22.338  27.375 -0.1847 -0.2712  0.2235
23742W        W66836  25.360  20.833  26.637 -0.0691 -0.1575  0.2877
23743W        W66837  27.218  20.556  25.206  0.2770  0.1958 -0.1486
23744W        W66838  27.982  18.227  25.768 -0.0785  0.0554  0.1919
23745W        W66839  28.894  18.730  25.946 -0.1382  0.0321  0.5108
23746W        W66840  28.113  20.825  26.081 -0.1286  0.2389 -0.1422
23747W        W66841  27.821  19.860  27.006 -0.0408  0.0596  0.0162
23748W        W66842  27.894  22.106  27.297 -0.2847  0.0442 -0.3876
23749W        W66843  26.350  20.389  25.672  0.1027 -0.1801 -0.2316
23750W        W66844  27.401  22.192  27.157 -0.1872 -0.0362  0.2935
23751W        W66845  27.502  21.457  26.579  0.2223  0.1251 -0.2534
23752W        W66846  27.141  21.941  26.364 -0.1228  0.1136 -0.0658
23753W        W66847  27.343  19.079  28.632  0.3248 -0.2016 -0.1530
23754W        W66848  27.240  22.759  26.940  0.5154  0.0177 -0.3032
23755W        W66849  28.589  20.086  26.707 -0.2290  0.1872 -0.0288
23756W        W66850  26.102  20.116  26.336 -0.1660  0.1861 -0.2448
23757W        W66851  27.256  21.363  24.959 -0.1148  0.0743 -0.3841
23758W        W66852  25.244  22.618  28.749 -0.1151  0.0808 -0.1073
23759W        W66853  25.724  20.681  27.954  0.1044  0.0528  0.1172
23760W        W66854  25.651  22.670  24.518 -0.3304 -0.1337  0.0923
23761W        W66855  27.171  20.568  23.928 -0.4569  0.3001  0.0666
23762W        W66856  28.394  21.614  25.561 -0.1075  0.0394  0.1592
23763W        W66857  26.471  22.165  25.824  0.1326 -0.3240  0.1453
23764W        W66858  26.369  19.916  24.569 -0.1531 -0.2442  0.0675
23765W        W66859  26.704  20.145  25.355 -0.0531 -0.0361 -0.2180
23766W        W66860  25.428  20.993  24.782 -0.1161  0.0125 -0.1194
23767W        W66861  28.344  20.620  24.307  0.3612 -0.1010  0.0357
23768W        W66862  27.601  22.552  25.453  0.0255  0.2803 -0.3560
23769W        W66863  28.601  20.932  26.520 -0.0467  0.2744 -0.1030
23770W        W66864  27.396  18.895  23.951 -0.1135  0.1842  0.0230
23771W        W66865  28.895  21.496  25.636  0.0874  0.0855  0.2379
23772W        W66866  28.708  20.062  24.542 -0.0013  0.2000  0.1986
23773W        W66867  27.372  21.772  27.419 -0.0709 -0.0684 -0.2898
23774W        W66868  26.932  19.342  26.867  0.0997 -0.1110  0.3803
23775W        W66869  27.058  18.690  24.494 -0.4981 -0.0523 -0.0200
23776W        W66870  26.079  18.639  26.245 -0.0660 -0.1793 -0.0213
23777W        W66871  29.634  16.541  27.401 -0.0507 -0.0074  0.1007
23778W        W66872  25.028  21.429  28.027 -0.1968  0.1196  0.2255
23779W        W66873  27.133  20.308  26.161  0.2975 -0.0436  0.0482
23780W        W66874  25.647  20.714  24.471  0.1647 -0.1847  0.2127
23781W        W66875  26.416  20.951  25.520  0.3905  0.0595  0.1613
23782W        W66876  29.111  18.537  26.393  0.0309 -0.3288  0.2814
23783W        W66877  26.988  20.351  23.415  0.0973 -0.0760  0.1250
23784W        W66878  28.279  20.339  25.914  0.1722 -0.3552  0.0326
23785W        W66879  26.985  20.800  24.827  0.1744  0.1516 -0.0829
23786W        W66880  26.697  22.051  26.964  0.0722  0.2091 -0.0092
23787W        W66881  26.999  23.357  25.780 -0.1868 -0.0213  0.2879
23788W        W66882  27.307  19.689  24.991  0.2152  0.0824  0.0258
23789W        W66883  30.820  20.361  25.847  0.4064  0.1301 -0.0788
23790W        W66884  27.317  18.402  26.892  0.0653  0.1766  0.1452
23791W        W66885  28.703  18.614  26.697  0.0218 -0.1085  0.1866
23792W        W66886  27.990  19.493  24.418 -0.0350 -0.0706 -0.0672
23793W        W66887  27.898  20.734  24.623 -0.4077  0.0147 -0.1545
23794W        W66888  27.580  20.147  26.656  0.1912  0.1813 -0.0297
23795W        W66889  25.344  18.815  25.463 -0.0565  0.0982 -0.3629
23796W        W66890  26.146  19.524  23.216 -0.2137  0.0211  0.0560
23797W        W66891  27.192  20.350  28.874 -0.0614  0.2875  0.0284
23798W        W66892  28.648  18.936  24.582  0.0951  0.1949 -0.1197
23799W        W66893  28.957  22.366  27.835 -0.2725  0.2745  0.1165
23800W        W66894  27.763  19.607  25.114 -0.1721  0.0013 -0.1708
23801W        W66895  27.376  18.515  25.028 -0.0751 -0.1885  0.0067
23802W        W66896  25.122  21.740  26.241 -0.0656  0.1813 -0.0922
23803W        W66897  27.030  20.145  26.748  0.0948 -0.1222 -0.1032
23804W        W66898  28.971  20.331  27.970 -0.0310 -0.1844 -0.0691
23805W        W66899  27.003  19.417  25.939  0.1662 -0.0364  0.1081
23806W        W66900  28.624  21.353  24.644 -0.1177  0.5346  0.1653
23807W        W66901  29.514  20.234  25.166  0.0807 -0.0352  0.2852
23808W        W66902  27.660  22.087  23.597  0.0564  0.5432 -0.0979
23809W        W66903  28.137  21.784  24.706  0.1524 -0.0045 -0.0608
23810W        W66904  27.721  21.111  26.256  0.1958 -0.0011 -0.2385
23811W        W66905  26.133  20.024  27.808  0.2516 -0.1936  0.0715
23812W        W66906  27.814  22.155  25.822 -0.0673 -0.3071  0.3993
23813W        W66907  28.636  20.554  24.860  0.0670  0.1311 -0.0732
23814W        W66908  27.340  18.383  25.779  0.0380 -0.0430  0.0535
23815W        W66909  27.054  18.934  26.355  0.0789  0.2259  0.0701
23816W        W66910  26.672  21.696  24.483  0.1093 -0.2440  0.0624
23817W        W66911  29.624  18.969  26.414 -0.0128  0.2084 -0.1979
23818W        W66912  27.290  20.233  27.982 -0.1837 -0.0717 -0.0600
23819W        W66913  26.427  21.012  23.202  0.1797 -0.0705  0.0468
23820W        W66914  27.589  18.074  26.644 -0.0928  0.2413  0.2493
23821W        W66915  26.363  21.333  27.394  0.0618 -0.2665 -0.0737
23822W        W66916  26.625  19.945  27.798 -0.2468  0.3984 -0.3361
23823W        W66917  25.915  21.210  24.898 -0.1037 -0.0672  0.0185
23824W        W66918  27.034  21.310  26.930 -0.0546  0.0846  0.3623
23825W        W66919  27.688  20.156  25.086  0.2826  0.0699  0.1265
23826W        W66920  26.589  21.204  23.628 -0.0053  0.0418 -0.4109
23827W        W66921  28.391  20.469  26.426  0.1207  0.1481  0.0029
23828W        W66922  28.542  19.929  25.513 -0.1650  0.0547  0.0259
23829W        W66923  27.918  21.348  26.826  0.1425  0.0870  0.0781
23830W        W66924  27.234  19.203  25.097  0.0713  0.2309  0.3251
23831W        W66925  28.890  19.202  25.695 -0.1370 -0.3448  0.2508
23832W        W66926  28.348  19.063  25.833 -0.0036  0.0256 -0.0211
23833W        W66927  26.832  18.990  27.642  0.1446 -0.0674 -0.2840
23834W        W66928  25.749  19.790  25.051 -0.1976  0.1410 -0.1812
23835W        W66929  26.125  21.609  25.248 -0.2196 -0.0631  0.1447
23836W        W66930  26.746  21.621  26.560  0.3114 -0.0624 -0.3068
23837W        W66931  26.566  19.133  27.202  0.0067 -0.0174 -0.0434
23838W        W66932  26.716  20.034  26.378  0.1446 -0.0710  0.1544
23839W        W66933  24.540  20.929  25.871 -0.1302 -0.2293  0.0220
23840W        W66934  26.986  19.202  24.645  0.2552 -0.0189  0.1877
23841W        W66935  28.793  20.379  23.536  0.2342 -0.1296 -0.0844
23842W        W66936  27.520  19.511  26.069  0.0403  0.1251  0.0014
23843W        W66937  26.344  19.186  25.275 -0.0668  0.3908  0.0864
23844W        W66938  27.563  20.788  24.236 -0.1388  0.2993 -0.0605
23845W        W66939  29.334  21.598  25.512  0.0704  0.0076 -0.0018
23846W        W66940  27.240  21.178  26.322 -0.1151  0.1937  0.0417
23847W        W66941  28.316  21.014  28.366 -0.4363 -0.2713  0.0447
23848W        W66942  25.909  21.703  24.311 -0.1236  0.1983 -0.0213
23849W        W66943  27.461  20.810  27.910  0.0052 -0.0674 -0.0799
23850W        W66944  27.495  18.840  26.559 -0.2273 -0.1026 -0.1883
23851W        W66945  26.590  19.694  25.426 -0.0428 -0.1097 -0.2457
23852W        W66946  26.787  21.144  26.477 -0.1403 -0.3064 -0.0652
23853W        W66947  28.182  21.096  24.406 -0.0594 -0.1226 -0.1523
23854W        W66948  28.557  21.192  24.099  0.1532  0.0433  0.4377
23855W        W66949  25.646  20.789  26.183  0.6541  0.3640 -0.1706
23856W        W66950  28.026  21.435  27.980  0.0087 -0.4913  0.0747
23857W        W66951  25.608  19.052  26.758  0.0121 -0.0210  0.0144
23858W        W66952  29.104  21.590  24.688 -0.0732  0.2118  0.1886
23859W        W66953  26.041  21.185  27.047 -0.1768 -0.2091  0.1047
23860W        W66954  28.453  21.981  25.254 -0.2102 -0.0880  0.2941
23861W        W66955  29.550  18.351  27.556  0.0104  0.1636 -0.0527
23862W        W66956  27.454  20.709  26.135 -0.1183  0.0868  0.0849
23863W        W66957  25.002  19.180  27.778  0.2130 -0.0732  0.3330
23864W        W66958  25.636  20.213  27.005  0.0656  0.0849  0.2627
23865W        W66959  28.516  22.397  25.574  0.0450 -0.0828  0.2619
23866W        W66960  26.525  19.353  25.763 -0.0418  0.0918 -0.0309
23867W        W66961  27.652  18.767  24.610  0.2396  0.3173 -0.2024
23868W        W66962  27.553  22.224  24.090 -0.2216  0.0374  0.2122
23869W        W66963  26.315  21.645  26.181  0.2700  0.2453 -0.0949
23870W        W66964  26.625  19.520  24.526 -0.0261  0.2524 -0.1058
23871W        W66965  27.822  19.271  27.585 -0.3192 -0.2356  0.2605
23872W        W66966  27.458  20.950  23.728  0.3607  0.0898  0.0719
23873W        W66967  27.881  21.003  27.156 -0.1095 -0.1554  0.2485
23874W        W66968  27.066  20.227  24.798  0.0669  0.0002  0.1312
23875W        W66969  29.041  21.372  24.041  0.0493 -0.0844  0.0380
23876W        W66970  27.718  22.460  26.751 -0.1656  0.1358 -0.1413
23877W        W66971  29.063  20.538  28.802  0.0029  0.3489  0.2931
23878W        W66972  27.234  22.958  25.992  0.1629  0.2465 -0.2299
23879W        W66973  26.649  20.460  26.044 -0.1755  0.3635 -0.3039
23880W        W66974  26.502  18.100  26.798  0.0194  0.2423  0.2564
23881W        W66975  27.126  20.620  26.593 -0.1038 -0.0335 -0.0216
23882W        W66976  26.905  21.022  25.354 -0.3977  0.1485  0.1680
23883W        W66977  29.308  19.496  26.783 -0.0294  0.0280 -0.2956
23884W        W66978  26.879  20.890  26.009  0.0859 -0.1613 -0.0668
23885W        W66979  29.308  19.670  24.454 -0.1625 -0.3164  0.1070
23886W        W66980  26.978  22.399  24.603  0.1236 -0.1363  0.1841
23887W        W66981  28.214  20.714  27.429  0.4753  0.0152 -0.1828
23888W        W66982  26.761  21.372  30.853 -0.4069  0.1380  0.0541
23889W        W66983  26.579  18.164  29.460 -0.0715  0.2827 -0.2797
23890W        W66984  28.371  18.648  27.774 -0.0121 -0.1261 -0.0796
23891W        W66985  28.625  20.752  28.065 -0.0472 -0.1213  0.1611
23892W        W66986  25.364  19.819  29.766 -0.0842 -0.1952  0.3487
23893W        W66987  27.819  22.343  29.547 -0.1225  0.2045 -0.0948
23894W        W66988  24.895  18.200  30.586  0.0466  0.0068  0.2450
23895W        W66989  27.565  20.766  30.139  0.3309 -0.2881  0.0955
23896W        W66990  27.671  20.751  29.622  0.2241  0.1435  0.1663
23897W        W66991  26.799  20.846  27.030  0.2763  0.1125 -0.0428
23898W        W66992  26.860  20.505  30.826 -0.0853  0.1188  0.0990
23899W        W66993  27.585  21.060  31.087 -0.2708  0.2646 -0.1250
23900W        W66994  26.882  19.339  28.331  0.0046  0.1373 -0.2592
23901W        W66995  26.310  17.814  30.321 -0.1815 -0.1559  0.0603
23902W        W66996  27.692  19.813  29.848 -0.0555  0.1679  0.1009
23903W        W66997  25.585  20.184  29.436 -0.0321 -0.3489 -0.1832
23904W        W66998  26.158  20.830  30.039 -0.0476  0.1593 -0.0661
23905W        W66999  25.670  19.534  28.782 -0.0341  0.2329  0.1884
23906W        W67000  27.847  21.929  28.610  0.1885  0.0184 -0.0751
23907W        W67001  26.714  18.253  30.994 -0.1073 -0.0215  0.0169
23908W        W67002  28.183  18.392  31.322 -0.0484 -0.3138 -0.3105
23909W        W67003  25.842  21.444  28.782  0.2697  0.0343  0.1976
23910W        W67004  24.854  19.713  27.778  0.0037 -0.3040  0.2184
23911W        W67005  24.511  18.879  28.749 -0.1767 -0.2929 -0.0646
23912W        W67006  27.018  20.060  30.207  0.1127  0.1500 -0.1132
23913W        W67007  28.247  18.825  29.166 -0.0428 -0.0700 -0.0366
23914W        W67008  29.932  21.539  28.810 -0.0771 -0.1800 -0.2642
23915W        W67009  26.603  22.859  27.702  0.2285  0.0506 -0.0413
23916W        W67010  28.008  21.140  28.836 -0.0229 -0.1229 -0.2245
23917W        W67011  28.673  20.382  30.902  0.0469 -0.1982 -0.0147
23918W        W67012  25.962  21.050  29.595  0.2146  0.1895  0.2814
23919W        W67013  25.061  22.544  29.216 -0.3526  0.1839  0.2156
23920W        W67014  26.247  21.101  28.649 -0.0916  0.0663  0.3534
23921W        W67015  29.466  21.084  29.054  0.0228 -0.2910 -0.0021
23922W        W67016  28.558  24.008  31.794  0.3250  0.3018  0.1102
23923W        W67017  26.834  21.337  29.311  0.1619  0.0005  0.0716
23924W        W67018  26.456  20.022  28.220  0.0786  0.0245 -0.1223
23925W        W67019  26.977  21.944  29.840 -0.1621  0.1336 -0.1134
23926W        W67020  26.274  21.407  31.043  0.1010 -0.2359  0.0525
23927W        W67021  28.021  20.978  29.925 -0.0283  0.1572 -0.1168
23928W        W67022  26.956  19.831  28.162  0.0423  0.0543 -0.1999
23929W        W67023  26.062  22.410  28.103  0.2912  0.0895  0.2633
23930W        W67024  26.633  20.512  30.084  0.0770  0.0787  0.0886
23931W        W67025  26.483  21.826  31.415  0.0959 -0.1329  0.0898
23932W        W67026  26.663  21.585  29.950  0.0453 -0.1099 -0.1075
23933W        W67027  28.456  19.515  31.319  0.0698  0.0428  0.1837
23934W        W67028  25.794  21.942  28.377  0.1004 -0.2216 -0.0097
23935W        W67029  29.544  19.341  27.868  0.2724  0.0832 -0.3678
23936W        W67030  26.551  18.556  29.111  0.3666 -0.1027  0.1979
23937W        W67031  29.517  18.030  29.802 -0.0538 -0.0552 -0.0168
23938W        W67032  28.239  19.442  29.030 -0.1550 -0.0128  0.0382
23939W        W67033  27.315  21.085  29.397  0.1457 -0.0583  0.0855
23940W        W67034  27.204  19.192  30.538  0.2947  0.0366  0.1316
23941W        W67035  28.510  20.304  30.156 -0.1579 -0.3065 -0.2133
23942W        W67036  26.856  20.965  28.566 -0.4404  0.0490  0.2151
23943W        W67037  27.957  19.680  30.836 -0.1894 -0.0925  0.2259
23944W        W67038  26.741  20.819  31.809  0.0725 -0.0350 -0.0189
23945W        W67039  25.675  19.707  30.180  0.4095 -0.1642  0.1776
23946W        W67040  28.373  21.835  30.149  0.0119 -0.0820 -0.0133
23947W        W67041  29.002  20.938  29.176 -0.0766 -0.0605 -0.1024
23948W        W67042  26.216  20.541  28.047  0.0721 -0.1720 -0.0715
23949W        W67043  26.840  21.689  27.219  0.1614  0.0569  0.1831
23950W        W67044  26.060  21.979  31.689 -0.1564  0.0145 -0.1199
23951W        W67045  26.847  20.207  29.675 -0.0186 -0.1035  0.0320
23952W        W67046  26.111  17.855  27.305 -0.1004  0.0923  0.0296
23953W        W67047  29.218  20.900   0.227  0.0396 -0.0933  0.0146
23954W        W67048  25.066  21.511  29.806  0.2042  0.1209  0.0651
23955W        W67049  30.128  20.190  28.978  0.0896  0.0138 -0.1515
23956W        W67050  26.066  21.948  29.865  0.2306 -0.3693 -0.3113
23957W        W67051  28.001  23.263  31.317  0.1073  0.2012 -0.1081
23958W        W67052  30.405  19.248  28.922  0.1042 -0.3185  0.0920
23959W        W67053  28.652  18.365  29.775  0.0816 -0.1302 -0.0108
23960W        W67054  27.294  17.865  30.372 -0.1199 -0.2667  0.1142
23961W        W67055  27.171  19.042  28.048  0.1453  0.0933 -0.2524
23962W        W67056  27.335  20.090  28.471  0.3665 -0.1012 -0.0961
23963W        W67057  29.417  20.815  28.614  0.1965  0.1121 -0.1300
23964W        W67058  28.600  19.660  27.536 -0.0473 -0.0249 -0.0161
23965W        W67059  24.894  21.123  29.496 -0.3115 -0.1428  0.1495
23966W        W67060  27.027  19.615  30.673  0.0344  0.0180 -0.1221
23967W        W67061  28.158  22.089  30.710  0.1934 -0.1516 -0.0771
23968W        W67062  26.214  23.259  27.170 -0.0926  0.2837 -0.0091
23969W        W67063  26.011  20.923  30.564  0.1831 -0.1482  0.2550
23970W        W67064  26.496  20.987  28.186 -0.1205  0.2646 -0.0491
23971W        W67065  25.437  18.824  29.812  0.2659 -0.1089  0.0525
23972W        W67066  27.674  21.415  30.595 -0.3862  0.0548 -0.1614
23973W        W67067  30.232  19.636  28.647  0.0176 -0.1637  0.2753
23974W        W67068  26.857  18.243  31.481  0.0263  0.3595 -0.0669
23975W        W67069  27.840  19.564  29.432 -0.2939  0.2531 -0.0305
23976W        W67070  27.019  21.465  28.160 -0.1697 -0.2902 -0.1214
23977W        W67071  29.052  20.668  28.274  0.2339 -0.1072  0.3233
23978W        W67072  29.110  18.581  28.995  0.0295  0.3287 -0.3038
23979W        W67073  27.203  21.808  28.511 -0.2120  0.0423  0.1135
23980W        W67074  26.384  21.364  30.480 -0.0175  0.0890  0.5324
23981W        W67075  26.369  18.596  30.351  0.0617  0.1241  0.2741
23982W        W67076  27.335  18.791  30.040  0.0827  0.0446 -0.0945
23983W        W67077  25.857  19.488  29.613  0.1754  0.0201  0.1594
23984W        W67078  28.981  19.848  31.075  0.0362  0.2620 -0.0765
23985W        W67079  26.040  18.721  28.925  0.0645 -0.0702  0.1559
23986W        W67080  28.389  20.119  29.572  0.0170 -0.0405 -0.1165
23987W        W67081  27.700  19.994  27.752  0.0172 -0.1336  0.1292
23988W        W67082  25.428  21.635  28.861 -0.3254  0.0315  0.0228
23989W        W67083  29.923  18.335  29.694  0.0523  0.1795 -0.2353
23990W        W67084  27.356  22.682  28.216 -0.1279 -0.1279  0.0645
23991W        W67085  27.754  22.607  31.486  0.2229 -0.0857  0.2563
23992W        W67086  28.571  22.418  29.286 -0.0190  0.0542  0.0164
23993W        W67087  27.724  19.036  31.575  0.1130 -0.1208 -0.0146
23994W        W67088  25.990  19.270  29.154 -0.0675 -0.3161  0.2717
23995W        W67089  26.945  21.472  30.358  0.0626 -0.0723  0.0874
23996W        W67090  28.452  21.222  29.730  0.1044  0.1430 -0.0488
23997W        W67091  27.547  18.127  28.418 -0.0301 -0.0081 -0.0208
23998W        W67092  29.397  20.681  29.719 -0.0824  0.0117  0.2395
23999W        W67093  27.290  19.863  29.120  0.1940 -0.1193  0.0419
24000W        W67094  26.617  21.078  30.034  0.0396  0.1098  0.1001
24001W        W67095  27.283  19.052  31.317 -0.1242  0.2591  0.4165
24002W        W67096  27.910  20.116  31.092  0.1932  0.2202 -0.0440
24003W        W67097  28.606  20.568  28.579 -0.4496  0.2117  0.0577
24004W        W67098  25.299  19.892  27.061 -0.3301  0.0278 -0.0935
24005W        W67099  28.227  22.067  29.347  0.2315 -0.0837  0.0973
24006W        W67100  24.863  22.599  28.376 -0.0853 -0.0797  0.2297
24007W        W67101  25.301  20.414  30.401  0.1596  0.2698  0.1310
24008W        W67102  26.975  21.545  27.676 -0.1751  0.1974 -0.0537
24009W        W67103  27.955  18.123  29.857 -0.1967  0.1499 -0.5471
24010W        W67104  26.403  20.502  30.600 -0.2065  0.1248 -0.2793
24011W        W67105  29.122  19.725   0.156 -0.2233 -0.0254  0.0537
24012W        W67106  26.571  19.502  28.716  0.2082  0.1783  0.0066
24013W        W67107  26.924  22.355  30.670  0.1041 -0.2202 -0.2506
24014W        W67108  29.542  18.319  28.096  0.0262 -0.0054 -0.4655
24015W        W67109  29.782  19.163  29.172  0.0861  0.3597  0.0143
24016W        W67110  28.639  19.839   0.101 -0.4705 -0.2786  0.2524
24017W        W67111  29.059  20.359  29.296  0.1219 -0.3195  0.0159
24018W        W67112  28.036  18.173  27.890  0.0323 -0.0102 -0.1216
24019W        W67113  27.798  18.678  28.797  0.0784  0.0408  0.0177
24020W        W67114  24.630  20.830  30.809 -0.1485  0.4048 -0.2580
24021W        W67115  28.346  21.861  28.762  0.0470 -0.0250  0.2050
24022W        W67116  26.171  20.375  29.929 -0.2824  0.3281  0.1235
24023W        W67117  27.799  18.749  27.828 -0.0370 -0.0205  0.0574
24024W        W67118  30.341  21.909  29.496  0.0609 -0.0772  0.0003
24025W        W67119  26.458  20.694  29.563  0.1661 -0.0341  0.1705
24026W        W67120  27.642  20.717  31.598  0.4188 -0.3121  0.2401
24027W        W67121  27.703  20.315  28.797 -0.0700 -0.0598  0.0651
24028W        W67122  27.244  19.447  30.124 -0.2902  0.0387  0.0858
24029W        W67123  27.396  19.178  27.049 -0.0344  0.4075  0.2344
24030W        W67124  29.435  20.604  29.137  0.0568 -0.3814 -0.4900
24031W        W67125  25.940  21.618  27.508 -0.1847  0.2533  0.0933
24032W        W67126  28.287  18.902  31.262  0.0308 -0.0879  0.0153
24033W        W67127  27.933  19.916  30.365  0.1129  0.1989  0.2991
24034W        W67128  26.692  19.183  30.584 -0.3915 -0.1289  0.1623
24035W        W67129  28.793  19.958  30.601  0.0242 -0.0295 -0.2294
24036W        W67130  28.919  18.749  27.952 -0.4410  0.0229 -0.1749
24037W        W67131  26.766  20.407  28.094  0.1109  0.0671 -0.0782
24038W        W67132  24.591  19.814  26.795  0.0579 -0.0257 -0.1833
24039W        W67133  28.326  20.131  30.612 -0.1007  0.0857 -0.1086
24040W        W67134  26.136  18.876  29.419 -0.0543  0.0727  0.3969
24041W        W67135  26.507  22.611  30.838 -0.3279  0.0756  0.1835
24042W        W67136  27.831  21.220  31.845  0.0029 -0.2546  0.0324
24043W        W67137  27.464  20.059  27.220 -0.0323  0.1315  0.0244
24044W        W67138  28.349  18.895   0.219  0.3587  0.0148 -0.1430
24045W        W67139  26.604  18.718  29.812  0.2424 -0.1979 -0.3375
24046W        W67140  25.459  21.555  27.745  0.0681 -0.0861 -0.0101
24047W        W67141  25.982  20.873  28.310 -0.0324  0.0783 -0.2860
24048W        W67142  26.571  17.736  28.653 -0.0232 -0.2282  0.0720
24049W        W67143  27.147  21.351  29.815  0.0371  0.0433  0.0456
24050W        W67144  25.687  20.712  27.124 -0.0914 -0.1899 -0.1238
24051W        W67145  27.478  21.734  29.871 -0.1864  0.0798 -0.1749
24052W        W67146  26.455  21.244  29.612 -0.1233 -0.1998 -0.3247
24053W        W67147  29.115  18.623  30.582 -0.0975 -0.2143  0.0142
24054W        W67148  25.211  20.843  30.028 -0.1391  0.0316 -0.1536
24055W        W67149  27.574  19.600  27.367 -0.2016  0.1183 -0.3316
24056W        W67150  25.097  19.405  28.180  0.5262  0.1887  0.0535
24057W        W67151  29.030  19.325  29.577  0.2103  0.0890 -0.1911
24058W        W67152  29.472  21.491  27.651 -0.1523  0.0508  0.2768
24059W        W67153  26.715  19.528  30.056 -0.1444 -0.0585 -0.3313
24060W        W67154  26.905  19.140  29.809  0.1027 -0.2154 -0.4218
24061W        W67155  28.174  21.622  30.691  0.2819  0.0234  0.2195
24062W        W67156  28.672  20.861  30.980 -0.0482  0.0978  0.1095
24063W        W67157  27.942  18.034  27.407  0.1189 -0.0416  0.0899
24064W        W67158  28.610  20.418  29.086  0.0499 -0.3486 -0.1406
24065W        W67159  26.542  20.971  30.982 -0.0826  0.3577  0.1131
24066W        W67160  25.873  20.188  29.013  0.3382  0.2128  0.0079
24067W        W67161  28.805  20.455  29.775 -0.2004  0.0589 -0.0780
24068W        W67162  26.866  19.540  29.501  0.0114 -0.0612  0.2668
24069W        W67163  24.610  21.708  28.589  0.1934 -0.1273  0.0976
24070W        W67164  26.470  21.827  29.444 -0.1933 -0.0876  0.2842
24071W        W67165  26.359  19.667  29.536  0.0023  0.0434  0.5065
24072W        W67166  26.603  21.443  28.376 -0.2284  0.2867 -0.4097
24073W        W67167  26.696  20.336  31.683 -0.2737  0.2230 -0.1882
24074W        W67168  27.831  20.380  30.614 -0.0958 -0.0095 -0.1109
24075W        W67169  26.878  18.898  28.865 -0.2427  0.4199  0.0717
24076W        W67170  25.944  19.074  27.940  0.1420 -0.2227  0.2799
24077W        W67171  26.367  20.152  29.334 -0.2836 -0.1694 -0.4181
24078W        W67172  28.373  20.014  31.621 -0.0091  0.2689  0.5922
24079W        W67173  27.584  20.221  29.317  0.0746 -0.3403  0.2557
24080W        W67174  26.421  22.336   0.436  0.2226 -0.1759 -0.5131
24081W        W67175  26.848  16.910  29.988 -0.3365 -0.0185 -0.6299
24082W        W67176  29.094  21.545  28.958 -0.2710  0.0441 -0.1669
24083W        W67177  27.878  20.331  29.793  0.1728 -0.1411 -0.5088
24084W        W67178  25.270  20.425  28.129  0.2003  0.1426 -0.0152
24085W        W67179  25.288  21.374  30.286 -0.2351 -0.0736  0.1537
24086W        W67180  27.686  20.819  29.125  0.1236 -0.0300  0.0943
24087W        W67181  26.946  20.035  31.146  0.3767  0.2314 -0.0512
24088W        W67182  25.959  20.467  30.379 -0.3489 -0.3012 -0.0341
24089W        W67183  27.469  21.827  28.930 -0.1812 -0.2460 -0.1166
24090W        W67184  26.107  21.392  30.053 -0.0588 -0.1612  0.1164
24091W        W67185  28.386  19.103  28.649 -0.0636 -0.0552 -0.0798
24092W        W67186  26.023  21.515  28.084 -0.3098  0.2303 -0.4209
24093W        W67187  26.964  19.369  29.031  0.1779 -0.2964 -0.0500
24094W        W67188  30.223  19.816  30.134  0.1667  0.0397  0.0309
24095W        W67189  29.222  19.930  28.967 -0.1150  0.0675  0.0785
24096W        W67190  30.393  18.086  31.731  0.2064 -0.0574  0.1463
24097W        W67191  27.272  18.227  31.928  0.1564 -0.0111  0.2308
24098W        W67192  28.637  22.965  29.020 -0.0758  0.1190 -0.0914
24099W        W67193  25.560  18.315  29.940  0.0022  0.0772  0.3849
24100W        W67194  27.493  20.848   0.107  0.0444 -0.0493  0.3514
24101W        W67195  25.577  20.582  30.796 -0.2756  0.4748  0.0370
24102W        W67196  27.899  19.276  28.595  0.0171  0.2257 -0.1316
24103W        W67197  26.825  19.919  29.016 -0.0940  0.3382  0.0535
24104W        W67198  26.931  20.609  29.347  0.2047  0.3063  0.2753
24105W        W67199  28.475  21.351  28.773 -0.0094  0.2828  0.1499
24106W        W67200  26.350  20.849  27.235 -0.0399  0.2726  0.0462
24107W        W67201  28.649  19.083  29.085  0.1477 -0.0919 -0.3201
24108W        W67202  26.582  20.787  27.695 -0.0269  0.1102 -0.1671
24109W        W67203  28.232  19.808  27.940 -0.1046 -0.1290 -0.2139
24110W        W67204  27.655  19.039  28.201 -0.0377  0.2326 -0.0478
24111W        W67205  26.394  19.203  29.702 -0.2983 -0.0278  0.2913
24112W        W67206  27.287  17.835  30.880 -0.3868  0.1376  0.3125
24113W        W67207  28.175  20.526  28.194  0.1647 -0.0148  0.0103
24114W        W67208  28.213  19.593  29.829  0.3172 -0.0368 -0.0310
24115W        W67209  28.198  19.198  30.841 -0.1302 -0.0714  0.0114
24116W        W67210  27.526  20.178  30.191  0.0962 -0.0941 -0.3045
24117W        W67211  26.649  19.941  30.504  0.1484  0.2445  0.0983
24118W        W67212  25.281  18.533  30.337  0.2391 -0.0412  0.0709
24119W        W67213  28.767  22.558  31.542 -0.0290  0.1555 -0.1434
24120W        W67214  29.405  19.256  28.371 -0.1920  0.0250 -0.0626
24121W        W67215  28.662  18.982  29.582  0.0294 -0.1904  0.1167
24122W        W67216  29.229  20.100  29.672 -0.1297 -0.1417 -0.1141
24123W        W67217  27.419  18.081  27.290 -0.1977 -0.0457  0.0480
24124W        W67218  26.042  19.769  29.155 -0.1062 -0.1603 -0.1889
24125W        W67219  29.273  19.235   0.437 -0.3798 -0.3566  0.1224
24126W        W67220  26.836  18.696  28.206 -0.1050  0.0220 -0.2771
24127W        W67221  27.733  18.699  31.127 -0.1170 -0.1112  0.1289
24128W        W67222  26.510  22.104  29.001 -0.2164 -0.1352 -0.3005
24129W        W67223  27.737  19.691  28.972  0.1479 -0.2578  0.0832
24130W        W67224  28.933  19.510  29.042 -0.3674  0.2930 -0.0112
24131W        W67225  24.550  19.334  29.587 -0.2199 -0.0286 -0.1144
24132W        W67226  27.005  21.002  31.165 -0.0241 -0.0117 -0.0589
24133W        W67227  26.290  18.903  27.543  0.1717 -0.0051 -0.2195
24134W        W67228  28.072  20.724  28.635 -0.1755  0.0971 -0.0547
24135W        W67229  28.973  20.022  28.461  0.0962 -0.0684  0.0763
24136W        W67230  28.913  22.208  31.938 -0.3507 -0.0549 -0.4045
24137W        W67231  27.106  18.564  27.768 -0.0521 -0.1279  0.1367
24138W        W67232  29.332  20.171  30.277 -0.2654  0.2069  0.2037
24139W        W67233  24.919  20.306  28.745  0.1833 -0.1468  0.2311
24140W        W67234  26.432  17.814  30.827  0.0746 -0.0131  0.4140
24141W        W67235  26.853  22.237  29.373  0.0923  0.1951  0.0736
24142W        W67236  25.297  19.660  31.591 -0.2547 -0.1720 -0.0598
24143W        W67237  28.094  23.164  28.682  0.2440  0.2806 -0.1397
24144W        W67238  27.046  18.648  29.641 -0.4687 -0.0518  0.2300
24145W        W67239  28.220  18.584  29.638 -0.0714 -0.2069 -0.0212
24146W        W67240  28.506  20.750  29.444 -0.0657 -0.1971  0.2210
24147W        W67241  29.707  19.685  30.306  0.1076  0.1868 -0.2622
24148W        W67242  27.157  20.525  31.354  0.3489  0.0199  0.1586
24149W        W67243  25.465  20.904  30.437  0.1360  0.1753 -0.1265
24150W        W67244  28.814  22.561  30.332 -0.0065  0.2443 -0.0478
24151W        W67245  28.891  21.020  28.630 -0.0873  0.1394 -0.1176
24152W        W67246  26.623  20.383  28.998  0.0504  0.1050 -0.0633
24153W        W67247  25.119  20.622  31.533  0.0200 -0.1609  0.2813
24154W        W67248  28.075  20.974  30.929 -0.2247 -0.0536  0.0645
24155W        W67249  26.981  20.811  29.792  0.0906  0.3078 -0.0369
24156W        W67250  26.726  18.523  28.653  0.2544 -0.2010 -0.1651
24157W        W67251  27.732  21.849  27.785 -0.0518  0.2188  0.1465
24158W        W67252  27.873  21.647  31.593  0.1156 -0.2373  0.1622
24159W        W67253  25.091  20.829  31.049 -0.0455 -0.1874 -0.0096
24160W        W67254  24.834  21.808  30.207 -0.0344  0.0472  0.1452
24161W        W67255  28.839  21.899  28.705  0.2422  0.1859  0.0294
24162W        W67256  27.999  21.489  29.596 -0.0423  0.4276  0.2658
24163W        W67257  28.326  22.225  29.808  0.1137 -0.0820 -0.0466
24164W        W67258  27.235  18.567  28.654  0.1797 -0.0288 -0.1338
24165W        W67259  25.312  21.853  30.116 -0.0130 -0.0691 -0.0762
24166W        W67260  25.290  23.511  28.053  0.3887 -0.1605  0.2608
24167W        W67261  28.503  21.683  28.240 -0.2959  0.0027 -0.2144
24168W        W67262  25.593  22.455  29.176 -0.1661 -0.4427  0.0380
24169W        W67263  29.449  21.931   0.441 -0.1413  0.0844  0.1550
24170W        W67264  29.111  18.109  27.789 -0.1084 -0.2404 -0.1558
24171W        W67265  28.475  19.718  30.270  0.2429 -0.1671 -0.3632
24172W        W67266  31.133  19.625  29.463 -0.1188 -0.2275 -0.0797
24173W        W67267  27.411  22.547   0.106 -0.2155  0.0377  0.2468
24174W        W67268  27.535  20.795  28.688  0.1071  0.0622  0.2392
24175W        W67269  27.832  18.942  27.101 -0.1437 -0.5196  0.2100
24176W        W67270  26.147  18.691  30.793 -0.1637  0.0641  0.0486
24177W        W67271  30.503  19.793  29.608  0.1786 -0.0855  0.0027
24178W        W67272  26.053  21.784  30.677  0.5713  0.0042 -0.1365
24179W        W67273  28.004  22.254  28.921  0.2997  0.5257 -0.0869
24180W        W67274  27.037  19.331  27.349 -0.0278 -0.3258  0.2878
24181W        W67275  26.431  19.065  28.990 -0.1293 -0.0846 -0.0386
24182W        W67276  29.398  17.868  30.279 -0.0376  0.1335  0.1209
24183W        W67277  26.352  20.972  26.687  0.0062 -0.0062  0.1617
24184W        W67278  28.670  19.337  29.980 -0.3189 -0.1362  0.2834
24185W        W67279  25.192  21.622  29.331  0.1531 -0.0037  0.2471
24186W        W67280  27.268  21.621  29.420  0.0041 -0.2347  0.2561
24187W        W67281  26.513  22.151  29.830 -0.1552 -0.2120  0.0524
24188W        W67282  24.306  19.147  28.371  0.4969 -0.2152 -0.1320
24189W        W67283  30.397  19.735  29.116  0.0803  0.1269 -0.0614
24190W        W67284  26.067  20.072  31.532  0.1434  0.0841 -0.2608
24191W        W67285  29.293  19.019  30.321  0.1451  0.0753 -0.1587
24192W        W67286  26.035  19.946  30.417 -0.2627 -0.3186 -0.4629
24193W        W67287  29.621  18.837  28.849 -0.1979  0.0235 -0.1083
24194W        W67288  27.326  20.401  29.752 -0.1033  0.0764 -0.1381
24195W        W67289  26.906  18.925  30.230  0.1093 -0.2235  0.1654
24196W        W67290  28.563  19.815  28.901  0.1387 -0.2253 -0.1029
24197W        W67291  29.672  21.001   0.493  0.4334  0.1592  0.1310
24198W        W67292  27.417  19.566  28.255 -0.1233 -0.1054 -0.1854
24199W        W67293  27.203  20.968  31.732  0.1333 -0.0564  0.1392
24200W        W67294  26.484  18.967  28.503  0.0325  0.2542 -0.1105
24201W        W67295  28.883  18.427  27.529  0.0178  0.0514  0.2923
24202W        W67296  26.363  20.023  28.793  0.0472  0.0371 -0.3393
24203W        W67297  27.329  20.680  30.905  0.0703 -0.2128  0.0106
24204W        W67298  29.060  22.663   0.153 -0.0488 -0.1255  0.0721
24205W        W67299  25.079  18.848  28.739  0.2711  0.0866 -0.0338
24206W        W67300  29.826  20.227  28.036 -0.5310  0.0761 -0.1085
24207W        W67301  30.857  19.983  29.288  0.1795  0.3286 -0.0816
24208W        W67302  28.094  21.455  28.481 -0.1800 -0.1412 -0.3491
24209W        W67303  28.083  21.051  29.326  0.3885  0.0141  0.0026
24210W        W67304  28.098  20.545  29.179  0.3422  0.0721  0.0552
24211W        W67305  25.663  20.705  29.785 -0.0492 -0.0725 -0.0069
24212W        W67306  27.641  20.897  30.605  0.0376 -0.0126  0.0252
24213W        W67307  28.464  21.172  30.657  0.3199 -0.0683  0.0077
24214W        W67308  27.646  17.879  27.970  0.0950  0.0260 -0.2055
24215W        W67309  25.923  18.906  29.860  0.1431  0.0880  0.2225
24216W        W67310  25.557  22.237  30.445 -0.2249 -0.2288  0.2328
24217W        W67311  27.529  19.169  29.831  0.1769 -0.1063  0.0187
24218W        W67312  27.605  19.163  30.850  0.0835  0.0116  0.0052
24219W        W67313  27.503  21.354  27.074 -0.3425  0.1908 -0.0328
24220W        W67314  29.010  20.693  31.293  0.1051  0.1069 -0.0457
24221W        W67315  26.941  22.904  29.964 -0.0230 -0.0478 -0.0950
24222W        W67316  26.224  20.582  31.613  0.2267 -0.0464 -0.0274
24223W        W67317  26.968  19.855  27.191  0.1301  0.2951  0.1978
24224W        W67318  27.112  20.978  30.255  0.0605 -0.0924  0.0810
24225W        W67319  25.639  20.898  29.193  0.2471  0.2219  0.2343
24226W        W67320  27.742  21.875  29.431  0.0179 -0.2056 -0.0027
24227W        W67321  28.827  19.923  29.351 -0.0748 -0.2369 -0.1233
24228W        W67322  27.372  19.457  27.799  0.1064 -0.2073 -0.1059
24229W        W67323  29.727  19.984  29.884 -0.1372 -0.0335 -0.0903
24230W        W67324  27.530  19.698  30.614  0.1360  0.1132  0.0846
24231W        W67325  30.161  17.727  28.173 -0.3034  0.0931 -0.1788
24232W        W67326  27.334  18.813  29.121 -0.0732 -0.3357  0.1478
24233W        W67327  26.742  18.982  29.387 -0.0765  0.1075 -0.0086
24234W        W67328  25.895  19.616  30.929 -0.2112 -0.1205  0.3767
24235W        W67329  26.894  21.137  27.459  0.1885 -0.0295  0.0345
24236W        W67330  26.223  19.537  29.985  0.0842  0.0141 -0.1042
24237W        W67331  26.518  20.335  31.188 -0.2172  0.0482  0.3051
24238W        W67332  26.194  20.091  30.872 -0.1105 -0.2234 -0.0270
24239W        W67333  26.277  19.499  30.551 -0.1009  0.0105  0.0699
24240W        W67334  25.621  19.023  28.820 -0.0844  0.2449 -0.1824
24241W        W67335  28.523  20.850  28.918  0.0681  0.1712  0.0729
24242W        W67336  27.954  18.419  29.250 -0.0018 -0.0422 -0.0880
24243W        W67337  28.680  18.577  29.301  0.2211  0.1431 -0.0580
24244W        W67338  27.597  21.341  28.642  0.0828 -0.1237  0.2402
24245W        W67339  28.403  20.103  28.277  0.0101  0.1010 -0.2223
24246W        W67340  27.231  19.576  28.704  0.3885 -0.0246  0.1089
24247W        W67341  28.638  22.264  30.761 -0.3816  0.0631  0.0202
24248W        W67342  26.433  19.541  28.238 -0.2391  0.2365 -0.2218
24249W        W67343  27.192  19.877  31.613  0.0987  0.0827  0.0969
24250W        W67344  27.669  19.526  31.865  0.0314  0.2228 -0.3882
24251W        W67345  24.332  17.619  29.217 -0.1526 -0.0708  0.3081
24252W        W67346  27.260  19.899  29.630  0.2017 -0.3775 -0.1572
24253W        W67347  28.194  21.613  29.113 -0.2441  0.4997  0.0510
24254W        W67348  28.534  22.275  28.037  0.1412  0.2540  0.1590
24255W        W67349  27.433  22.346  31.063 -0.0596  0.2658 -0.0860
24256W        W67350  27.198  21.187  30.693  0.2900 -0.4573 -0.4839
24257W        W67351  26.424  18.754  31.230  0.1784 -0.0168 -0.2457
24258W        W67352  27.106  20.544  28.399  0.1833  0.0614  0.0218
24259W        W67353  27.317  22.192  29.549 -0.0121 -0.2575 -0.0961
24260W        W67354  30.760  22.211  29.331  0.0014 -0.0409  0.1186
24261W        W67355  29.415  19.531  29.342 -0.1137  0.1753  0.1035
24262W        W67356  28.255  20.239  28.785 -0.0140 -0.1543  0.1101
24263W        W67357  25.367  17.937  29.652  0.2631  0.5518  0.2267
24264W        W67358  27.216  20.496  30.406  0.1110  0.1161  0.0254
24265W        W67359  29.111  21.074  30.127  0.2994  0.2575  0.0664
24266W        W67360  25.817  19.117  30.719 -0.0616  0.3000 -0.3265
24267W        W67361  28.953  18.148  28.853  0.0768  0.2330  0.3668
24268W        W67362  26.262  21.981  27.986 -0.1369 -0.1145  0.1650
24269W        W67363  25.681  20.115  30.747 -0.1142 -0.3169  0.0418
24270W        W67364  29.021  19.341  28.034 -0.1540  0.1570  0.1083
24271W        W67365  27.551  20.187  31.477  0.1561 -0.1221 -0.2764
24272W        W67366  27.661  21.318  29.150 -0.2562  0.0510 -0.3317
24273W        W67367  28.553  20.518  31.507  0.4088  0.2199 -0.1798
24274W        W67368  26.521  19.971  29.846 -0.0198 -0.1059 -0.0025
24275W        W67369  28.746  19.757  28.074  0.2408  0.0498  0.0895
24276W        W67370  27.914  21.467  31.144  0.1536  0.1569  0.0516
24277W        W67371  28.474  21.302  31.154  0.1248  0.0621  0.0940
24278W        W67372  27.000  23.586  29.430 -0.1320  0.0037 -0.0778
24279W        W67373  28.058  19.105  29.512 -0.0409 -0.0621 -0.1495
24280W        W67374  25.141  19.953  30.215 -0.2613  0.3187  0.3720
24281W        W67375  27.745  20.022  28.239  0.2311  0.0665 -0.0253
24282W        W67376  25.508  19.760  29.184  0.0653 -0.2636 -0.2539
24283W        W67377  27.931  19.815  31.453  0.3498  0.2183  0.1131
24284W        W67378  26.629  18.688  30.776 -0.0178  0.0063 -0.0178
24285W        W67379  28.042  17.954  28.372  0.0637 -0.0432 -0.0274
24286W        W67380  27.121  20.865  28.972 -0.0999 -0.3314 -0.1562
24287W        W67381  28.031  20.570  30.186 -0.0593 -0.0751 -0.1458
24288W        W67382  28.897  20.193  31.458 -0.2249  0.0183  0.1258
24289W        W67383  27.764  20.593  31.080 -0.1098 -0.1411 -0.2311
24290W        W67384  27.066  18.418  30.411  0.0674 -0.1179 -0.0311
24291W        W67385  26.966  21.509  31.563  0.0443 -0.2137  0.3024
24292W        W67386  28.455  20.968   1.018 -0.2775  0.1658  0.0845
24293W        W67387  25.859  21.340  31.957  0.2499  0.1020 -0.2593
24294W        W67388  29.487  20.084   0.111  0.0008  0.3465  0.2100
24295W        W67389  27.967  19.362  31.223 -0.0610  0.0419  0.1745
24296W        W67390  29.976  20.237   0.214 -0.0703  0.1798 -0.1548
24297W        W67391  29.212  22.087  31.525 -0.3010  0.0643  0.2337
24298W        W67392  27.909  22.066  31.209 -0.1914 -0.2240 -0.3932
24299W        W67393  26.830  17.782  31.121  0.0079  0.2362  0.0211
24300W        W67394  27.725  20.244   0.071  0.0540  0.0744 -0.0476
24301W        W67395  25.848  20.358  31.913 -0.0039 -0.2942 -0.0919
24302W        W67396  29.774  20.780  31.851  0.2665 -0.3155  0.0657
24303W        W67397  26.323  22.277  31.398  0.1848  0.1888  0.0491
24304W        W67398  26.492  21.159  31.503  0.0729 -0.0079 -0.1282
24305W        W67399  28.986  21.687  31.974  0.1424 -0.3645 -0.1135
24306W        W67400  26.509  18.613  31.682 -0.1274  0.1943  0.1146
24307W        W67401  25.409  20.169  31.615 -0.2808 -0.1458  0.1816
24308W        W67402  25.038  18.658  31.187  0.2286 -0.0369 -0.1262
24309W        W67403  25.767  21.508  30.988 -0.2911  0.0472 -0.1592
24310W        W67404  27.898  18.577   0.443  0.0296  0.0618  0.3553
24311W        W67405  28.024  19.242   0.002 -0.1871 -0.0333  0.1951
24312W        W67406  27.407  19.825  31.061  0.0388  0.2607  0.1611
24313W        W67407  26.675  19.877  31.587  0.0131  0.1369 -0.0302
24314W        W67408  26.523  20.921   0.515 -0.1271  0.1546  0.0937
24315W        W67409  26.947  21.281   1.376  0.2108  0.0118  0.0535
24316W        W67410  25.976  18.985  31.171 -0.2149 -0.4719 -0.0125
24317W        W67411  25.783  21.347  30.486 -0.3011 -0.1019 -0.3209
24318W        W67412  26.496  22.107  30.796  0.0144 -0.1943  0.1410
24319W        W67413  26.080  20.667  30.990 -0.3802 -0.0044 -0.3677
24320W        W67414  29.525  21.763  31.958 -0.1980  0.1871 -0.0098
24321W        W67415  28.736  19.251   0.232  0.0021  0.1088  0.0356
24322W        W67416  25.082  19.094  31.431  0.0602  0.3001 -0.2512
24323W        W67417  25.656  19.869  31.305  0.1520 -0.0151  0.0697
24324W        W67418  26.435  19.313   0.696 -0.4433  0.1348 -0.0401
24325W        W67419  28.313  21.021   0.545  0.1507  0.2646  0.0970
24326W        W67420  28.930  20.844   1.125 -0.3579 -0.0951 -0.1483
24327W        W67421  27.779  20.448   0.517 -0.2776  0.0757  0.0674
24328W        W67422  28.793  20.741   0.625 -0.0334  0.0985  0.1408
24329W        W67423  27.942  20.678   0.065 -0.2884 -0.0291  0.1456
24330W        W67424  28.645  20.192   0.460  0.2541  0.1457 -0.1215
24331W        W67425  29.355  20.450  31.724  0.1525  0.0007  0.1506
24332W        W67426  27.445  19.878   0.618  0.0084  0.1784  0.0240
24333W        W67427  27.172  21.346   0.126  0.0075 -0.0415  0.2777
24334W        W67428  27.678  19.105   1.180  0.1143  0.1335  0.2354
24335W        W67429  28.279  22.234   0.711  0.4571  0.0339 -0.2877
24336W        W67430  27.913  22.645   0.074 -0.1525 -0.1382 -0.2540
24337W        W67431  25.631  22.691  30.668 -0.0035  0.1072 -0.1414
24338W        W67432  29.042  21.230  31.747 -0.0064 -0.0536  0.1209
24339W        W67433  29.157  19.352  31.354  0.0386 -0.0764  0.2559
24340W        W67434  27.260  19.223  31.826 -0.1921 -0.0561  0.2220
24341W        W67435  27.431  21.349  31.482  0.0153  0.2535  0.2767
24342W        W67436  28.477  20.915   0.092  0.0384 -0.1780  0.6094
24343W        W67437  28.418  19.976  31.059 -0.1788 -0.2692  0.0777
24344W        W67438  27.759  21.201   0.337 -0.0674  0.0073 -0.3057
24345W        W67439  27.513  22.944  31.824  0.1971 -0.1361  0.2282
24346W        W67440  25.129  21.218  31.812 -0.1324  0.3306 -0.0609
24347W        W67441  24.472  20.922  30.213 -0.2447  0.0692 -0.0521
24348W        W67442  25.437  19.592  30.596  0.0933 -0.0093 -0.2532
24349W        W67443  26.763  19.103  31.409 -0.1136 -0.0692  0.0589
24350W        W67444  26.704  20.953  30.526 -0.2389  0.4503  0.0236
24351W        W67445  25.334  18.259  30.878 -0.1260  0.1436  0.0715
24352W        W67446  27.729  23.011   0.322 -0.0764  0.0889 -0.3026
24353W        W67447  30.906  21.050  31.359 -0.3424 -0.0431 -0.4024
24354W        W67448  29.002  20.195   0.025  0.1185 -0.1582 -0.0101
24355W        W67449  26.504  25.134  19.706  0.2008  0.3086 -0.3678
24356W        W67450  25.302  23.111  17.926  0.0150  0.1309 -0.0076
24357W        W67451  27.327  23.119  17.549  0.1760  0.2567 -0.0585
24358W        W67452  28.656  23.290  17.440 -0.0446 -0.0241  0.1998
24359W        W67453  25.108  21.646  17.014 -0.2329 -0.1568 -0.1370
24360W        W67454  28.829  25.909  17.785 -0.2105  0.0244 -0.0067
24361W        W67455  26.611  21.048  18.731 -0.0216 -0.2595  0.0480
24362W        W67456  27.229  25.818  18.631 -0.1112 -0.2652 -0.2752
24363W        W67457  27.588  24.787  19.501 -0.1474  0.0372 -0.3330
24364W        W67458  28.181  25.032  16.467  0.0420  0.2441 -0.0566
24365W        W67459  27.009  23.926  18.736 -0.2232 -0.1164  0.2387
24366W        W67460  26.297  24.183  19.390 -0.2006 -0.2024  0.2161
24367W        W67461  27.389  23.363  16.634  0.2255 -0.0722  0.0906
24368W        W67462  25.392  22.141  17.063 -0.2774 -0.1548  0.2145
24369W        W67463  27.882  23.600  18.163 -0.0006 -0.3100 -0.2867
24370W        W67464  24.256  24.406  16.879  0.0000  0.1708 -0.0048
24371W        W67465  26.428  22.653  19.818  0.0225  0.0087 -0.0516
24372W        W67466  27.765  23.131  16.871 -0.0426 -0.1998 -0.1788
24373W        W67467  26.696  26.322  18.205  0.0098 -0.2119  0.2012
24374W        W67468  26.554  22.383  18.816 -0.1555  0.3242  0.2448
24375W        W67469  26.061  22.838  20.406 -0.1983 -0.0835  0.2676
24376W        W67470  26.276  26.013  16.710 -0.1466 -0.1133  0.1167
24377W        W67471  25.688  22.204  16.162 -0.0358  0.2869 -0.2139
24378W        W67472  24.488  23.515  17.406  0.2986  0.0804  0.1070
24379W        W67473  25.455  24.417  18.290 -0.1453 -0.0097 -0.0313
24380W        W67474  27.188  22.828  18.493  0.1453 -0.1629  0.3649
24381W        W67475  27.491  23.845  19.593  0.1127  0.0493  0.2720
24382W        W67476  25.908  25.667  17.342 -0.2033  0.1301  0.0446
24383W        W67477  25.648  26.183  17.212  0.3071  0.3070  0.0819
24384W        W67478  27.211  24.022  20.304  0.1741 -0.0064 -0.3126
24385W        W67479  25.337  24.987  19.853 -0.1505  0.0787 -0.2950
24386W        W67480  26.239  25.402  17.057 -0.2061  0.1351 -0.3197
24387W        W67481  27.329  25.001  16.203 -0.3900  0.2733  0.2962
24388W        W67482  30.064  23.896  17.385 -0.0943 -0.2608  0.1637
24389W        W67483  28.326  25.415  20.468  0.1933  0.1783 -0.1874
24390W        W67484  27.350  24.916  18.449  0.2803 -0.1090 -0.1350
24391W        W67485  25.739  24.572  16.251 -0.0643 -0.3578 -0.0857
24392W        W67486  27.006  25.385  19.998  0.1826 -0.5562 -0.0293
24393W        W67487  26.520  26.265  18.705  0.1295 -0.4581  0.0080
24394W        W67488  26.804  23.543  19.084 -0.4514 -0.0841  0.0892
24395W        W67489  27.901  24.358  17.623  0.0331 -0.0789 -0.0202
24396W        W67490  27.660  25.970  16.439  0.0818 -0.1501  0.0548
24397W        W67491  28.889  23.874  17.569  0.4636  0.0784 -0.0307
24398W        W67492  28.179  25.837  19.996 -0.0442  0.0694  0.2441
24399W        W67493  26.299  24.055  17.858  0.0760 -0.2011 -0.0100
24400W        W67494  27.791  21.753  19.275  0.3501  0.0226 -0.1837
24401W        W67495  26.640  24.564  17.074 -0.0675 -0.0479  0.2767
24402W        W67496  27.938  22.452  17.682 -0.0464 -0.2709  0.3728
24403W        W67497  27.280  22.349  15.991 -0.3619 -0.0726  0.0555
24404W        W67498  29.315  23.642  17.479 -0.3059  0.1361  0.1009
24405W        W67499  25.709  22.526  17.867  0.0326 -0.2555  0.2162
24406W        W67500  25.929  24.292  17.558  0.0674 -0.2994 -0.0711
24407W        W67501  25.513  21.829  17.901  0.0762 -0.2047  0.1989
24408W        W67502  27.942  23.299  20.876 -0.0853 -0.3281 -0.1553
24409W        W67503  27.455  23.964  16.154  0.2170  0.1579 -0.3014
24410W        W67504  27.413  23.521  17.959 -0.2408 -0.3062  0.1429
24411W        W67505  25.205  24.451  19.148 -0.2338  0.3105  0.0167
24412W        W67506  24.476  22.815  18.333  0.0409  0.2012 -0.2369
24413W        W67507  29.260  24.104  16.079  0.1485 -0.3038 -0.3390
24414W        W67508  29.236  26.042  16.565 -0.2851  0.3323  0.0526
24415W        W67509  27.108  24.783  17.052  0.1936 -0.1290  0.1044
24416W        W67510  25.303  23.521  16.914 -0.0441 -0.1410  0.0372
24417W        W67511  25.539  25.137  21.294  0.0300  0.1603  0.2324
24418W        W67512  25.594  23.375  19.668 -0.0413  0.1800 -0.4538
24419W        W67513  25.495  21.898  15.853 -0.2329 -0.0188 -0.2341
24420W        W67514  28.166  24.002  20.463  0.2735  0.2051  0.0068
24421W        W67515  26.229  25.556  19.070 -0.2344 -0.0318 -0.4595
24422W        W67516  29.283  22.805  17.087 -0.3447  0.1945 -0.4505
24423W        W67517  27.057  23.872  18.145  0.0926  0.2145  0.2686
24424W        W67518  26.798  24.453  19.722 -0.1786  0.1591  0.4221
24425W        W67519  28.261  25.195  15.927 -0.0555  0.1192  0.1090
24426W        W67520  28.377  23.696  18.246 -0.1041  0.2563  0.0065
24427W        W67521  27.032  22.280  18.604 -0.0454 -0.1519  0.1267
24428W        W67522  27.681  23.739  16.575  0.0879  0.0249  0.1715
24429W        W67523  25.709  23.427  17.765  0.0226  0.1348 -0.0059
24430W        W67524  28.859  23.754  19.360 -0.1000 -0.1341 -0.0499
24431W        W67525  29.418  24.448  15.778  0.2377  0.0116 -0.1960
24432W        W67526  25.607  25.362  18.098 -0.4821 -0.2679 -0.0747
24433W        W67527  28.784  23.087  19.956  0.1675  0.2598  0.2055
24434W        W67528  27.527  24.919  18.969 -0.1997  0.0233 -0.1499
24435W        W67529  26.384  25.876  17.174  0.4244 -0.1146 -0.2181
24436W        W67530  25.241  24.711  18.687 -0.2145 -0.1741 -0.0979
24437W        W67531  25.534  24.317  15.337  0.2249  0.2717  0.2590
24438W        W67532  25.361  22.325  18.628  0.1980  0.3612 -0.3413
24439W        W67533  26.460  24.465  17.552  0.3532  0.1513 -0.0025
24440W        W67534  28.999  23.495  17.855 -0.2148  0.0759 -0.0042
24441W        W67535  26.064  23.192  19.451  0.0446  0.2941 -0.1347
24442W        W67536  28.594  22.075  18.451  0.1039 -0.1798 -0.1174
24443W        W67537  25.159  24.237  16.530  0.0547 -0.0587 -0.1626
24444W        W67538  29.049  25.637  16.935  0.0656 -0.0408  0.5009
24445W        W67539  28.130  23.522  16.539  0.2118  0.0362 -0.2666
24446W        W67540  27.884  25.524  16.297 -0.2982 -0.2642 -0.1161
24447W        W67541  26.546  25.244  18.600 -0.3699  0.3305  0.1036
24448W        W67542  25.639  22.952  17.638 -0.0561  0.2116  0.0460
24449W        W67543  26.926  23.635  20.159 -0.0330  0.0683  0.3159
24450W        W67544  25.819  21.492  17.663 -0.0752  0.0775  0.2097
24451W        W67545  27.929  25.062  20.503  0.1258  0.1134  0.1680
24452W        W67546  25.055  20.567  15.757 -0.1644 -0.2809 -0.3121
24453W        W67547  27.770  24.686  18.583  0.0375 -0.2136  0.0368
24454W        W67548  26.986  24.204  16.424 -0.3083  0.1399  0.1083
24455W        W67549  25.539  22.788  18.248 -0.1226 -0.0062 -0.4097
24456W        W67550  26.333  23.193  19.004  0.0490  0.0860  0.0862
24457W        W67551  26.893  26.789  17.460  0.2143  0.0475  0.0957
24458W        W67552  27.537  24.416  18.934 -0.1635  0.1079  0.2246
24459W        W67553  28.916  25.594  17.436 -0.1090 -0.0821  0.3315
24460W        W67554  26.212  24.865  18.373  0.3234  0.1795  0.2330
24461W        W67555  23.640  22.853  16.058  0.1261 -0.1607 -0.1086
24462W        W67556  25.698  25.406  19.193  0.0903 -0.0591 -0.0632
24463W        W67557  26.887  25.191  17.495  0.1018 -0.0038  0.1616
24464W        W67558  27.019  22.642  16.300 -0.1305 -0.2129  0.3342
24465W        W67559  28.108  25.393  17.851  0.0695 -0.0051 -0.3036
24466W        W67560  27.378  24.991  17.461 -0.0581  0.0561 -0.2672
24467W        W67561  25.618  24.739  17.525 -0.1167 -0.0751 -0.0047
24468W        W67562  26.648  22.002  19.839  0.0939 -0.1938  0.2397
24469W        W67563  29.226  24.704  17.982  0.2671  0.4748  0.0767
24470W        W67564  27.942  23.803  17.534 -0.0984  0.1425 -0.0554
24471W        W67565  25.967  22.617  16.332 -0.2956 -0.0669 -0.0662
24472W        W67566  27.231  23.917  17.657  0.1892 -0.0274  0.2440
24473W        W67567  25.324  25.736  16.693  0.1488 -0.2914  0.0721
24474W        W67568  24.975  24.626  18.221  0.0026 -0.1241  0.0060
24475W        W67569  26.593  23.726  17.602 -0.1491  0.1247  0.0013
24476W        W67570  28.050  22.252  17.138 -0.0020 -0.0257  0.0815
24477W        W67571  26.121  24.467  20.226  0.0599  0.1670 -0.0822
24478W        W67572  26.487  23.142  20.393  0.1147 -0.2353  0.0421
24479W        W67573  26.130  24.190  16.416  0.0785 -0.0055 -0.1727
24480W        W67574  25.374  24.970  20.414 -0.3536 -0.0775 -0.0029
24481W        W67575  27.538  22.478  18.455  0.4545 -0.1992 -0.2015
24482W        W67576  29.194  23.333  17.116 -0.2751 -0.0996  0.1604
24483W        W67577  28.179  25.493  19.574  0.3467 -0.3282  0.0800
24484W        W67578  30.463  23.780  17.184 -0.3122 -0.0031  0.0042
24485W        W67579  28.420  22.513  16.315  0.0841 -0.1120 -0.2576
24486W        W67580  27.303  23.079  17.052 -0.1942 -0.1942 -0.0288
24487W        W67581  25.050  24.654  20.134 -0.1537  0.0894  0.2261
24488W        W67582  27.903  23.708  17.036  0.1105 -0.1636  0.0007
24489W        W67583  27.334  24.434  17.582  0.2689  0.1081 -0.0546
24490W        W67584  27.481  22.267  16.403  0.3712  0.1097 -0.1351
24491W        W67585  28.861  25.527  16.001  0.1036 -0.0768  0.1391
24492W        W67586  26.230  24.543  19.762  0.1056  0.1014  0.2914
24493W        W67587  27.953  24.153  21.284  0.3000  0.2059  0.1585
24494W        W67588  28.749  24.933  18.108 -0.0624 -0.4746 -0.2521
24495W        W67589  27.482  23.307  19.257 -0.2921 -0.0840 -0.1671
24496W        W67590  25.504  22.937  15.901 -0.0284 -0.1848 -0.2675
24497W        W67591  27.957  23.098  19.137  0.0323 -0.0072 -0.1023
24498W        W67592  25.932  25.031  16.362  0.0686  0.4154  0.0157
24499W        W67593  27.696  23.474  18.816 -0.1804 -0.1258 -0.1674
24500W        W67594  26.693  22.743  19.128  0.2010 -0.0901 -0.2531
24501W        W67595  28.156  23.439  18.729  0.0315 -0.2148  0.1384
24502W        W67596  27.771  22.962  19.790 -0.1585 -0.2011  0.0269
24503W        W67597  28.297  23.501  17.804  0.2878 -0.1116 -0.0779
24504W        W67598  25.609  23.932  18.426 -0.1590 -0.1846 -0.0197
24505W        W67599  25.162  23.721  16.499 -0.4455 -0.0520 -0.1109
24506W        W67600  27.425  23.556  20.545  0.2166 -0.1196  0.0629
24507W        W67601  24.806  23.073  18.580 -0.2409  0.1750  0.0654
24508W        W67602  25.143  24.779  16.333  0.0777 -0.0206  0.3374
24509W        W67603  27.538  25.428  18.866  0.3100  0.1728  0.2091
24510W        W67604  27.600  24.620  17.141  0.0758 -0.3338 -0.2718
24511W        W67605  27.516  23.085  21.343  0.1640 -0.0303  0.2324
24512W        W67606  27.589  23.419  17.298 -0.1093  0.0406  0.0288
24513W        W67607  24.959  25.697  17.037  0.2877 -0.1415  0.1274
24514W        W67608  27.892  24.154  16.222 -0.0382  0.0963  0.0479
24515W        W67609  27.176  22.134  17.141  0.0189 -0.2226 -0.1376
24516W        W67610  26.665  24.180  18.410  0.0278 -0.0840  0.1602
24517W        W67611  26.558  23.317  16.529  0.3819  0.3732 -0.0758
24518W        W67612  29.418  24.556  20.411  0.1280 -0.0835  0.2452
24519W        W67613  26.102  23.540  18.797 -0.1404 -0.2648  0.2295
24520W        W67614  28.522  23.519  19.644  0.4376 -0.3666  0.0091
24521W        W67615  26.826  24.218  17.833 -0.0134 -0.1029 -0.0096
24522W        W67616  26.007  22.528  18.229  0.1337 -0.2554  0.0552
24523W        W67617  25.325  23.464  17.473  0.1903 -0.1878 -0.1470
24524W        W67618  28.433  23.186  16.951 -0.2757 -0.2127 -0.0444
24525W        W67619  28.866  24.126  16.672  0.0561 -0.2473  0.0394
24526W        W67620  25.204  22.726  19.189 -0.1223 -0.0943 -0.2207
24527W        W67621  26.439  22.661  17.925  0.1696  0.0913  0.1033
24528W        W67622  24.494  25.524  18.419 -0.1434 -0.0776 -0.1023
24529W        W67623  28.405  24.369  18.103  0.3319  0.0213 -0.0071
24530W        W67624  28.162  23.291  17.335  0.0945 -0.1656 -0.1447
24531W        W67625  27.407  25.520  16.284 -0.1751  0.0700  0.2859
24532W        W67626  26.177  24.037  19.992 -0.0674 -0.4220  0.3935
24533W        W67627  24.427  23.084  15.803 -0.0629 -0.0447  0.1169
24534W        W67628  28.266  23.066  19.537 -0.1279  0.1219  0.2533
24535W        W67629  25.293  21.371  17.875 -0.2467 -0.1590  0.0838
24536W        W67630  25.666  25.702  17.780  0.0959 -0.1578 -0.0918
24537W        W67631  28.373  25.138  18.264  0.0198 -0.0860 -0.1751
24538W        W67632  26.324  23.923  15.946  0.0527  0.0168 -0.0261
24539W        W67633  25.055  24.689  17.734 -0.1938 -0.0299  0.1368
24540W        W67634  25.021  22.137  19.362 -0.2206  0.1319 -0.0628
24541W        W67635  28.413  23.671  20.161  0.2618  0.2215  0.3827
24542W        W67636  27.359  23.013  18.043 -0.0493 -0.1742 -0.1077
24543W        W67637  25.384  23.053  17.135 -0.0613  0.1577  0.1368
24544W        W67638  26.081  22.671  17.532 -0.0475  0.2098 -0.0364
24545W        W67639  27.758  25.803  19.529  0.0772 -0.1039  0.1563
24546W        W67640  27.394  23.845  19.075 -0.0758 -0.3031  0.2652
24547W        W67641  25.783  24.577  18.585  0.3512 -0.0847 -0.1186
24548W        W67642  27.531  24.004  17.291 -0.0084  0.2557  0.0470
24549W        W67643  28.481  25.329  17.260  0.2974 -0.2086 -0.2034
24550W        W67644  27.879  24.255  19.286 -0.0568  0.0924 -0.1069
24551W        W67645  27.155  24.311  16.905  0.2999 -0.1960  0.1307
24552W        W67646  26.376  22.822  18.609  0.1096  0.3337  0.4742
24553W        W67647  27.317  23.817  16.898 -0.0628  0.1868 -0.1897
24554W        W67648  25.926  22.540  20.040  0.0247  0.2498 -0.0406
24555W        W67649  26.112  25.270  17.998  0.2031 -0.1761 -0.2105
24556W        W67650  26.957  24.179  17.344  0.1087 -0.1391 -0.0313
24557W        W67651  25.152  25.135  18.904 -0.1941 -0.0507  0.1813
24558W        W67652  27.423  22.615  17.727 -0.1069  0.3235  0.0754
24559W        W67653  27.658  25.464  15.818 -0.0368  0.0100  0.1493
24560W        W67654  25.620  23.639  19.102  0.4183 -0.0266 -0.2623
24561W        W67655  28.413  22.389  17.699 -0.1393 -0.0732  0.0469
24562W        W67656  28.739  24.419  17.116  0.2105  0.1777  0.1918
24563W        W67657  27.786  22.308  21.479 -0.2532  0.0065 -0.0078
24564W        W67658  26.301  21.642  18.149  0.3609  0.2551  0.0083
24565W        W67659  29.088  25.529  16.455  0.3287  0.2528  0.1966
24566W        W67660  24.601  23.235  19.671  0.1709  0.0546 -0.3215
24567W        W67661  29.004  26.525  20.333  0.1498 -0.1241 -0.2621
24568W        W67662  26.103  25.237  19.422 -0.5765 -0.2867 -0.1065
24569W        W67663  26.912  22.808  16.862 -0.0884  0.0792  0.2883
24570W        W67664  25.801  21.865  15.374 -0.1965  0.1085  0.0391
24571W        W67665  27.041  23.588  19.502 -0.0869  0.1768  0.0831
24572W        W67666  28.576  23.162  19.054 -0.3396 -0.3280  0.1145
24573W        W67667  27.662  25.160  16.550 -0.1927  0.0365  0.2855
24574W        W67668  29.794  22.803  17.037  0.1820 -0.0493  0.3983
24575W        W67669  25.925  24.013  18.829  0.1645 -0.0615 -0.3948
24576W        W67670  28.648  23.292  18.245 -0.3712 -0.2853 -0.0422
24577W        W67671  26.785  23.947  16.947  0.4195 -0.0303 -0.3722
24578W        W67672  26.923  24.694  17.530 -0.0810  0.1264 -0.1895
24579W        W67673  26.347  23.709  19.222 -0.1708 -0.1397  0.0895
24580W        W67674  28.438  24.008  19.144 -0.1152 -0.1702  0.0934
24581W        W67675  26.523  23.914  16.516 -0.3423  0.3085 -0.2884
24582W        W67676  29.123  22.597  17.958 -0.1232 -0.0738 -0.1450
24583W        W67677  27.405  24.175  18.472 -0.2751 -0.3491  0.2099
24584W        W67678  27.472  23.665  18.421 -0.2454 -0.1474  0.3698
24585W        W67679  25.742  21.974  19.909  0.0369 -0.0046 -0.1582
24586W        W67680  29.200  24.169  20.217 -0.0425 -0.1081 -0.1714
24587W        W67681  27.990  22.193  18.094 -0.0743 -0.0429  0.0440
24588W        W67682  28.155  23.521  19.339  0.2088  0.1224 -0.2000
24589W        W67683  28.642  24.580  16.579 -0.1613  0.2764 -0.2912
24590W        W67684  27.559  23.217  15.731 -0.0367 -0.0332  0.3259
24591W        W67685  24.969  24.175  18.040 -0.0001  0.2031  0.0799
24592W        W67686  28.562  23.560  20.841 -0.0526  0.3423 -0.1138
24593W        W67687  26.515  24.371  16.649  0.4824 -0.0229 -0.4060
24594W        W67688  26.912  23.737  20.663  0.2868 -0.1374  0.1370
24595W        W67689  27.517  24.799  15.722  0.0517 -0.1308 -0.0142
24596W        W67690  27.926  25.107  17.324 -0.2408 -0.1878  0.1083
24597W        W67691  26.061  23.760  17.483 -0.1770  0.1420  0.0590
24598W        W67692  25.623  21.567  16.885 -0.3371  0.1533  0.0267
24599W        W67693  25.644  23.942  20.913 -0.1350 -0.3897 -0.0692
24600W        W67694  24.919  23.223  17.041 -0.0926  0.0169 -0.0713
24601W        W67695  26.686  23.581  16.120 -0.4062  0.2238 -0.3882
24602W        W67696  27.113  24.529  18.170  0.1969  0.0199  0.0526
24603W        W67697  26.950  25.381  21.498  0.5218  0.2083  0.0296
24604W        W67698  27.143  21.902  15.835  0.2026  0.1721 -0.0772
24605W        W67699  26.955  23.405  17.814 -0.3487 -0.0897 -0.0442
24606W        W67700  24.716  24.131  16.808  0.2729 -0.2204  0.0675
24607W        W67701  28.718  23.047  17.879 -0.3508  0.2163 -0.1344
24608W        W67702  26.067  24.687  17.820  0.1683 -0.0530  0.1626
24609W        W67703  25.669  25.561  20.244  0.1609  0.0018  0.0686
24610W        W67704  26.480  24.514  18.100  0.2634 -0.4115 -0.0040
24611W        W67705  26.769  21.765  20.272  0.1163 -0.0539 -0.0331
24612W        W67706  29.382  23.037  19.840 -0.0767  0.0747  0.3559
24613W        W67707  27.968  24.350  19.841 -0.2310 -0.3590  0.1670
24614W        W67708  28.343  22.846  20.033 -0.2411 -0.2421 -0.0359
24615W        W67709  27.032  24.435  18.669 -0.2130 -0.1950  0.1691
24616W        W67710  26.002  23.324  16.708 -0.2521 -0.0967  0.0959
24617W        W67711  26.517  25.056  20.842  0.1116  0.0761  0.0499
24618W        W67712  28.268  24.621  18.538 -0.2481  0.0736 -0.0786
24619W        W67713  24.470  24.561  18.196 -0.3149  0.0352 -0.4748
24620W        W67714  24.249  22.256  19.059 -0.0025  0.3943 -0.1226
24621W        W67715  25.912  24.435  19.123 -0.4200 -0.0162  0.0111
24622W        W67716  28.141  24.519  16.692  0.1600  0.2749  0.1221
24623W        W67717  26.102  23.574  16.271  0.2287 -0.0026  0.4403
24624W        W67718  27.324  24.540  16.120 -0.1681 -0.0669 -0.1050
24625W        W67719  26.556  25.135  19.090  0.3090  0.2306 -0.0666
24626W        W67720  26.584  23.713  19.763 -0.0304  0.3663 -0.1179
24627W        W67721  27.294  25.527  17.350 -0.0358 -0.0279  0.0365
24628W        W67722  29.703  23.830  17.706  0.0683 -0.1907  0.2136
24629W        W67723  28.407  24.220  17.599  0.1308  0.0231 -0.0643
24630W        W67724  27.269  26.277  16.878 -0.0312  0.1333  0.5647
24631W        W67725  27.034  23.138  16.437 -0.1629 -0.1421 -0.3471
24632W        W67726  26.776  26.054  16.892  0.0181  0.0171  0.0628
24633W        W67727  25.985  24.645  15.458  0.1391 -0.1642  0.0569
24634W        W67728  29.448  24.763  16.113 -0.0017  0.0575  0.2380
24635W        W67729  25.802  26.278  16.716  0.1043  0.4581  0.1442
24636W        W67730  28.974  23.301  19.547  0.0241 -0.0872 -0.0833
24637W        W67731  27.818  21.861  16.386  0.1411  0.0739  0.0413
24638W        W67732  27.162  25.725  16.864  0.0897 -0.2065  0.0729
24639W        W67733  28.380  22.518  16.830 -0.2529  0.0625  0.2961
24640W        W67734  27.425  25.600  20.231  0.2317 -0.0498  0.2380
24641W        W67735  27.515  24.238  19.997  0.3034  0.1694 -0.3384
24642W        W67736  26.789  22.310  15.981  0.0244  0.0169 -0.0977
24643W        W67737  25.240  23.707  19.415 -0.1298 -0.4729 -0.0081
24644W        W67738  28.507  22.464  19.701 -0.0298 -0.3168  0.0478
24645W        W67739  25.972  25.728  19.521 -0.1092  0.1117 -0.2535
24646W        W67740  29.298  25.304  15.953 -0.4538 -0.1377 -0.2787
24647W        W67741  25.458  22.759  15.462  0.0580  0.1955  0.0736
24648W        W67742  26.782  23.127  18.784  0.0664  0.2680 -0.0612
24649W        W67743  27.573  22.408  20.292  0.1009 -0.1185  0.0750
24650W        W67744  27.112  23.391  15.527 -0.0791  0.0463 -0.0827
24651W        W67745  26.091  23.207  17.479 -0.1258  0.1878 -0.4198
24652W        W67746  26.648  27.347  17.370  0.1414  0.1159 -0.0318
24653W        W67747  26.308  24.926  16.766 -0.4235 -0.1396 -0.1747
24654W        W67748  26.768  25.854  18.466  0.1307  0.1086  0.1904
24655W        W67749  25.268  23.720  18.032 -0.3898 -0.1164  0.3497
24656W        W67750  28.605  23.616  18.780 -0.2753  0.3308  0.0647
24657W        W67751  23.783  23.325  18.845 -0.2191  0.0639  0.0884
24658W        W67752  27.525  22.964  18.897 -0.0496  0.3525 -0.0734
24659W        W67753  25.922  22.939  17.075 -0.2197  0.0491  0.1884
24660W        W67754  29.413  25.488  17.334 -0.0374  0.1531 -0.0540
24661W        W67755  27.063  25.407  18.403  0.3527 -0.2100 -0.0187
24662W        W67756  25.246  23.334  18.613 -0.1814  0.0971  0.0311
24663W        W67757  28.016  24.172  17.195  0.1716  0.1566 -0.0521
24664W        W67758  28.000  23.636  21.814  0.2795 -0.1161  0.0605
24665W        W67759  28.190  23.998  16.702 -0.2097 -0.0238  0.0487
24666W        W67760  27.323  26.416  19.308  0.1826  0.1138  0.1190
24667W        W67761  24.732  22.472  17.060 -0.1351 -0.3610  0.1785
24668W        W67762  28.438  23.700  17.016  0.0238  0.0733  0.0922
24669W        W67763  26.164  23.794  18.369  0.2220 -0.0679 -0.0196
24670W        W67764  26.651  24.325  20.173 -0.0542  0.3938 -0.0274
24671W        W67765  27.894  26.786  19.868  0.0250 -0.0052  0.2657
24672W        W67766  26.456  23.119  17.009 -0.0948 -0.0756 -0.0166
24673W        W67767  29.569  26.327  16.277  0.0619 -0.0003  0.0901
24674W        W67768  27.945  23.917  18.968  0.1038  0.0087 -0.1910
24675W        W67769  26.215  25.473  16.530 -0.2164 -0.1363 -0.3136
24676W        W67770  28.688  25.324  16.728 -0.0299 -0.2050  0.2703
24677W        W67771  27.924  24.965  16.867 -0.0130  0.1609  0.0684
24678W        W67772  25.806  24.819  19.628  0.0113  0.1467  0.1714
24679W        W67773  27.203  24.835  19.804 -0.0802  0.1883  0.6727
24680W        W67774  29.608  24.948  20.693 -0.0082  0.2086  0.2164
24681W        W67775  27.701  23.188  18.409  0.0023 -0.2512 -0.0714
24682W        W67776  25.766  23.455  18.353  0.1117 -0.3397  0.0800
24683W        W67777  25.140  24.850  17.238 -0.0770 -0.1853 -0.0169
24684W        W67778  29.391  23.729  18.147 -0.1854  0.1139  0.0681
24685W        W67779  27.749  23.474  19.678  0.1135 -0.1138 -0.2722
24686W        W67780  26.294  24.695  16.290  0.3298  0.0781  0.0557
24687W        W67781  27.394  22.015  20.562  0.4644 -0.1364 -0.0274
24688W        W67782  27.741  24.853  17.727  0.0255  0.2377  0.1697
24689W        W67783  25.683  25.337  19.707 -0.1003 -0.5270  0.0167
24690W        W67784  25.690  23.586  15.788  0.1449  0.3124  0.2064
24691W        W67785  26.450  24.720  18.804 -0.3714  0.0170  0.0470
24692W        W67786  26.952  24.678  16.595  0.0986  0.0733 -0.0262
24693W        W67787  26.582  26.772  17.943 -0.0833  0.1504  0.0313
24694W        W67788  27.493  24.229  17.969 -0.0331  0.1322 -0.1394
24695W        W67789  26.460  25.005  17.323  0.1645  0.1062 -0.3898
24696W        W67790  27.511  25.213  17.037 -0.3036  0.1660  0.0707
24697W        W67791  26.521  23.802  18.743 -0.0821 -0.1301 -0.4293
24698W        W67792  27.456  22.143  17.861 -0.1667  0.0577 -0.0655
24699W        W67793  28.110  22.171  16.630 -0.0891 -0.2760 -0.2019
24700W        W67794  26.872  24.925  19.370  0.1022 -0.0579  0.2314
24701W        W67795  24.020  22.739  15.679 -0.1064  0.2032 -0.1011
24702W        W67796  25.557  24.699  15.736 -0.0507 -0.0532  0.0492
24703W        W67797  25.471  23.847  19.843 -0.2942  0.0726 -0.0440
24704W        W67798  27.029  22.262  21.006 -0.2736  0.0718 -0.0486
24705W        W67799  26.676  23.131  19.469 -0.1464  0.0920 -0.2822
24706W        W67800  26.927  23.359  16.899 -0.0801 -0.0354  0.0435
24707W        W67801  25.261  22.848  16.344 -0.0048  0.1519  0.0991
24708W        W67802  28.961  26.397  16.380 -0.3503 -0.2526  0.2637
24709W        W67803  26.399  23.318  18.436 -0.1928  0.0338  0.1026
24710W        W67804  23.081  22.370  18.438  0.2474  0.0609  0.1603
24711W        W67805  27.074  25.009  17.918 -0.2123 -0.0913 -0.1072
24712W        W67806  26.783  25.626  17.250  0.0214 -0.2320  0.0306
24713W        W67807  26.849  23.116  17.337  0.0493  0.3070  0.0930
24714W        W67808  28.481  26.117  20.283  0.2986  0.2538 -0.1827
24715W        W67809  24.683  25.040  16.240  0.1906 -0.3828 -0.0792
24716W        W67810  26.742  22.977  18.208 -0.1070  0.2524  0.2456
24717W        W67811  25.794  22.559  20.791 -0.1856 -0.2688 -0.1375
24718W        W67812  23.574  22.986  15.578 -0.0605  0.0078 -0.1983
24719W        W67813  25.917  23.053  18.686  0.1562  0.3325  0.1578
24720W        W67814  27.137  25.983  17.437  0.2978 -0.2351  0.2163
24721W        W67815  28.694  26.899  17.233 -0.2967 -0.1886 -0.0889
24722W        W67816  28.030  24.786  19.039  0.1634 -0.0613  0.2624
24723W        W67817  27.018  25.500  18.967  0.2080  0.1203  0.2335
24724W        W67818  25.822  22.075  18.232 -0.5076  0.0688 -0.2443
24725W        W67819  29.029  25.493  18.146 -0.0128  0.1346 -0.2711
24726W        W67820  27.604  23.948  20.995  0.3175  0.0444 -0.1581
24727W        W67821  29.722  24.334  16.225 -0.0918 -0.1101 -0.3099
24728W        W67822  28.729  24.504  18.913  0.3148 -0.1346  0.2366
24729W        W67823  27.700  24.173  16.809  0.0098 -0.0543 -0.1388
24730W        W67824  27.001  21.249  19.619  0.0219 -0.1704 -0.3397
24731W        W67825  26.450  25.578  19.494  0.0943 -0.0168 -0.0244
24732W        W67826  28.803  24.506  17.814  0.0728 -0.1747 -0.0391
24733W        W67827  24.257  21.042  18.050 -0.0335 -0.0188  0.0252
24734W        W67828  28.236  22.869  17.727 -0.2037 -0.2091 -0.2212
24735W        W67829  26.325  23.564  17.174 -0.0457 -0.0218 -0.1597
24736W        W67830  25.255  21.651  19.274 -0.2672 -0.0200  0.0041
24737W        W67831  26.128  23.467  17.981  0.2245  0.1530  0.1416
24738W        W67832  27.421  23.652  20.067 -0.0384 -0.0838 -0.0769
24739W        W67833  26.594  23.649  18.130  0.2584 -0.2749 -0.0208
24740W        W67834  28.227  23.935  19.616  0.0273 -0.0962 -0.2452
24741W        W67835  27.074  22.368  16.717  0.0736 -0.0558  0.1634
24742W        W67836  29.533  23.618  16.929 -0.1151 -0.0892  0.1795
24743W        W67837  26.966  25.077  20.515 -0.3214 -0.2503 -0.1386
24744W        W67838  27.491  25.153  20.153 -0.1764  0.0805 -0.1523
24745W        W67839  26.836  24.857  18.431 -0.2095  0.2477  0.1499
24746W        W67840  28.169  23.179  18.168  0.1505  0.1735 -0.2948
24747W        W67841  25.322  22.341  18.140 -0.0133  0.1588  0.1012
24748W        W67842  25.804  24.135  17.070 -0.0176  0.0024  0.0536
24749W        W67843  25.774  23.611  17.121 -0.1292 -0.0695 -0.0163
24750W        W67844  27.899  24.120  18.448  0.1797  0.0267 -0.0342
24751W        W67845  24.810  24.423  18.637  0.0968  0.0306 -0.1574
24752W        W67846  27.302  23.423  16.075 -0.1985 -0.0032  0.0853
24753W        W67847  27.688  24.761  19.991  0.0164 -0.2962  0.0024
24754W        W67848  28.086  24.003  17.930 -0.1628  0.2993 -0.2834
24755W        W67849  26.883  25.753  22.970 -0.1889  0.1895 -0.1469
24756W        W67850  25.822  24.084  21.480 -0.0253  0.0858 -0.1114
24757W        W67851  29.227  24.647  21.085 -0.1752  0.0972 -0.3058
24758W        W67852  29.240  24.818  21.588  0.6095  0.2739  0.0818
24759W        W67853  25.707  22.910  21.141 -0.0458 -0.0137  0.3331
24760W        W67854  27.675  25.302  22.498  0.1229  0.0249  0.0894
24761W        W67855  25.830  21.921  23.827  0.2248  0.0085  0.0867
24762W        W67856  27.756  25.568  21.454 -0.0076  0.0825  0.1303
24763W        W67857  27.841  25.498  22.918  0.2633 -0.0914  0.0620
24764W        W67858  28.149  24.911  20.087  0.3239  0.0475 -0.2009
24765W        W67859  27.506  22.477  22.789 -0.0942 -0.0457  0.0523
24766W        W67860  26.805  24.632  25.104  0.2917 -0.1018  0.0031
24767W        W67861  26.524  22.452  21.169 -0.0205  0.0433 -0.1889
24768W        W67862  25.691  22.339  23.116  0.1343 -0.2480 -0.0152
24769W        W67863  28.747  23.940  20.487 -0.0034  0.0523 -0.2994
24770W        W67864  26.420  23.837  22.184  0.3076  0.0926 -0.2943
24771W        W67865  25.726  22.774  22.758 -0.2795  0.0813 -0.0031
24772W        W67866  25.526  23.374  20.251 -0.1824  0.2216 -0.0027
24773W        W67867  27.372  26.506  21.081 -0.2041  0.4531  0.0233
24774W        W67868  25.564  22.701  21.599 -0.0341 -0.1646  0.0531
24775W        W67869  28.383  21.114  23.575 -0.1825  0.0459 -0.1379
24776W        W67870  26.567  24.569  21.061 -0.0839  0.2064 -0.1231
24777W        W67871  25.796  24.291  19.718 -0.0482  0.3810  0.0368
24778W        W67872  26.630  22.613  22.210  0.3170 -0.0309 -0.0953
24779W        W67873  26.772  24.907  23.388 -0.0889 -0.0628  0.0377
24780W        W67874  29.940  20.499  21.434 -0.0810  0.2437  0.2720
24781W        W67875  28.344  22.725  22.258 -0.1042  0.1105 -0.2942
24782W        W67876  26.351  25.517  20.670 -0.2686 -0.0192 -0.4406
24783W        W67877  26.577  25.322  20.294 -0.0051 -0.0940  0.0144
24784W        W67878  28.882  22.815  23.445  0.1379  0.0214  0.1344
24785W        W67879  25.588  25.852  22.097 -0.1782  0.1537  0.0543
24786W        W67880  25.922  24.787  21.218 -0.1124 -0.0232 -0.0629
24787W        W67881  26.887  24.912  21.238 -0.0978  0.2131 -0.0419
24788W        W67882  29.722  24.616  21.773 -0.4355 -0.0976  0.0375
24789W        W67883  28.450  24.711  23.473  0.2091  0.1068 -0.4287
24790W        W67884  27.727  24.897  24.487 -0.0931 -0.2915  0.0780
24791W        W67885  26.361  24.139  22.606  0.0734 -0.1156  0.3198
24792W        W67886  28.248  24.503  24.579  0.0467 -0.2058 -0.0904
24793W        W67887  28.420  25.068  23.900 -0.1652  0.1478 -0.1141
24794W        W67888  26.586  23.453  23.293  0.0899  0.3568 -0.1836
24795W        W67889  27.139  23.995  21.164 -0.0663 -0.0605  0.0226
24796W        W67890  27.614  24.556  20.456 -0.0542 -0.1122  0.1152
24797W        W67891  26.423  24.923  21.418  0.1385  0.2500 -0.1948
24798W        W67892  26.697  23.438  23.916  0.0579 -0.1272  0.1897
24799W        W67893  26.000  25.561  21.846 -0.2850 -0.0143  0.3802
24800W        W67894  29.669  22.371  22.494  0.1596  0.1124 -0.0448
24801W        W67895  23.937  24.826  20.881 -0.0465  0.1281  0.2415
24802W        W67896  26.961  22.704  19.542 -0.0018  0.0545 -0.2745
24803W        W67897  27.282  24.280  19.478 -0.1275  0.2563 -0.1375
24804W        W67898  26.777  24.199  20.795 -0.3226  0.0368  0.0094
24805W        W67899  28.185  22.363  21.154  0.0693 -0.3184  0.1795
24806W        W67900  25.350  26.021  21.625  0.0228  0.1728  0.0229
24807W        W67901  28.454  23.131  21.012  0.2310  0.2623 -0.0456
24808W        W67902  29.233  23.646  24.027  0.3227  0.2681  0.4503
24809W        W67903  27.911  24.326  20.767  0.1081  0.1606  0.0781
24810W        W67904  27.380  22.828  22.258  0.3294  0.1208  0.1000
24811W        W67905  27.886  24.294  24.271  0.1553  0.1002  0.3204
24812W        W67906  26.042  23.333  21.054 -0.3683  0.3214 -0.1808
24813W        W67907  27.691  24.029  20.473  0.0233 -0.0119  0.3714
24814W        W67908  28.717  25.165  21.179 -0.0671 -0.3247 -0.2521
24815W        W67909  27.899  25.413  20.066  0.4705 -0.2186 -0.1902
24816W        W67910  26.538  23.269  22.802  0.0508  0.1604 -0.1772
24817W        W67911  27.573  22.859  23.166  0.2374  0.1425  0.2289
24818W        W67912  26.330  23.790  23.780 -0.0113  0.1467 -0.0783
24819W        W67913  26.207  21.931  20.115 -0.1884 -0.2521 -0.0350
24820W        W67914  29.467  22.936  22.829  0.2751 -0.1889 -0.0786
24821W        W67915  25.417  23.257  23.360 -0.1114  0.1506  0.2057
24822W        W67916  28.969  21.589  22.946  0.0168 -0.2862  0.2746
24823W        W67917  27.207  24.256  23.203 -0.0015 -0.4401  0.2195
24824W        W67918  27.339  25.710  22.700 -0.2558  0.0062 -0.1439
24825W        W67919  27.831  25.073  21.325  0.0982  0.0990 -0.4600
24826W        W67920  27.991  21.542  22.251  0.1354 -0.1599 -0.0255
24827W        W67921  29.257  23.403  21.325  0.3567  0.1650 -0.4831
24828W        W67922  24.813  24.602  20.711 -0.1134 -0.0003 -0.1832
24829W        W67923  27.039  24.526  22.028  0.2269 -0.1374  0.0381
24830W        W67924  26.961  24.659  22.962  0.1461 -0.1462 -0.2331
24831W        W67925  28.142  23.719  20.958  0.1361 -0.1025 -0.1581
24832W        W67926  26.702  24.183  23.074 -0.1377 -0.2002  0.2482
24833W        W67927  26.711  22.828  22.716  0.0898  0.0916  0.0449
24834W        W67928  27.978  26.055  23.784  0.0916 -0.0685 -0.3054
24835W        W67929  27.110  26.519  20.202  0.0076  0.0330  0.2157
24836W        W67930  24.585  24.733  22.940  0.2904  0.0771  0.0199
24837W        W67931  24.047  24.357  21.269 -0.2735 -0.2495 -0.1877
24838W        W67932  25.940  21.892  22.969  0.2752  0.0663 -0.3077
24839W        W67933  26.818  27.211  22.762 -0.0415  0.1211  0.1881
24840W        W67934  28.634  21.423  19.717 -0.0533  0.3220  0.5258
24841W        W67935  27.458  23.342  23.083  0.0732 -0.0473 -0.5173
24842W        W67936  28.611  21.561  20.901  0.1769 -0.0575  0.0166
24843W        W67937  25.386  23.905  21.555  0.0813  0.0329  0.0837
24844W        W67938  28.382  26.392  22.064  0.1007 -0.3503 -0.0459
24845W        W67939  28.114  22.485  20.315 -0.0299 -0.0588 -0.2424
24846W        W67940  26.839  26.008  19.530  0.0430  0.1312  0.1263
24847W        W67941  25.583  23.188  23.816  0.1400  0.2672  0.0470
24848W        W67942  25.618  23.524  21.319 -0.1407  0.0299 -0.1159
24849W        W67943  27.310  22.307  23.255  0.1059  0.2473 -0.4579
24850W        W67944  24.153  21.278  22.039  0.0421 -0.0632  0.0839
24851W        W67945  28.567  23.125  23.205  0.2028 -0.1847 -0.4384
24852W        W67946  26.153  21.656  21.154 -0.1734  0.3062 -0.0766
24853W        W67947  28.623  22.556  21.785 -0.2724 -0.0902  0.1595
24854W        W67948  26.731  23.075  23.579 -0.1944 -0.3805  0.1302
24855W        W67949  25.321  22.849  20.781  0.1194  0.0671 -0.4107
24856W        W67950  28.631  21.370  22.628 -0.0314 -0.1433  0.1300
24857W        W67951  27.218  26.263  19.778  0.0969 -0.1020 -0.1352
24858W        W67952  28.798  25.911  23.010  0.2024 -0.2157  0.0528
24859W        W67953  26.674  26.739  22.462  0.1054  0.1223  0.0533
24860W        W67954  28.713  21.751  24.326  0.0744 -0.0377  0.0729
24861W        W67955  25.026  22.508  21.483  0.0648 -0.4415 -0.0435
24862W        W67956  26.278  24.368  21.486 -0.4972 -0.1691  0.3823
24863W        W67957  26.902  25.484  22.600  0.3534 -0.0223 -0.2922
24864W        W67958  25.897  23.082  19.978 -0.1325  0.1019  0.0394
24865W        W67959  28.886  25.384  23.885 -0.2773  0.0849  0.2054
24866W        W67960  27.765  24.813  20.884 -0.0030  0.1412 -0.2593
24867W        W67961  26.534  25.328  23.061  0.2849 -0.0513 -0.3073
24868W        W67962  27.651  20.442  23.828 -0.2922  0.3137  0.1053
24869W        W67963  28.405  23.225  22.744  0.2698  0.1526 -0.0290
24870W        W67964  27.963  23.516  22.288 -0.1256  0.0009  0.1691
24871W        W67965  25.830  21.576  20.412  0.1427  0.2119 -0.0926
24872W        W67966  27.633  25.797  22.244  0.1805  0.0791 -0.0172
24873W        W67967  26.590  25.748  19.960 -0.2637 -0.1199 -0.0527
24874W        W67968  25.988  23.430  23.502 -0.0954 -0.0328 -0.0830
24875W        W67969  26.612  24.896  22.222  0.1694  0.3197  0.1386
24876W        W67970  28.921  23.316  21.754  0.2538 -0.2443  0.1383
24877W        W67971  26.702  25.118  25.314 -0.2805  0.0239  0.0907
24878W        W67972  28.490  22.747  22.790 -0.0907  0.0432  0.0699
24879W        W67973  25.231  24.325  20.607  0.0235 -0.1179 -0.1481
24880W        W67974  26.039  26.174  22.074 -0.1908 -0.0507  0.0111
24881W        W67975  27.867  20.045  20.220  0.0740  0.1644  0.0513
24882W        W67976  27.871  22.987  20.328 -0.0805 -0.1885 -0.0232
24883W        W67977  29.249  24.006  24.358  0.0774 -0.0825  0.2451
24884W        W67978  29.026  24.330  22.798  0.0558  0.1366 -0.2105
24885W        W67979  26.521  24.434  21.888  0.2434 -0.1728  0.2568
24886W        W67980  26.587  23.115  20.859 -0.1776  0.0863 -0.5033
24887W        W67981  26.765  24.978  22.674 -0.1237  0.0467  0.1671
24888W        W67982  27.515  24.523  21.162  0.0563  0.2427  0.0322
24889W        W67983  28.524  24.213  23.730 -0.0063  0.1412 -0.1440
24890W        W67984  26.551  24.251  18.944  0.1973 -0.1668  0.0539
24891W        W67985  27.845  24.575  21.572 -0.0961  0.0112  0.1308
24892W        W67986  25.850  24.517  21.703 -0.2327  0.0338 -0.5137
24893W        W67987  28.599  24.891  24.438  0.0713  0.1154 -0.0468
24894W        W67988  29.006  25.332  22.615 -0.0802 -0.0011  0.1463
24895W        W67989  27.967  21.815  21.402  0.2211  0.0102 -0.2477
24896W        W67990  26.462  23.729  20.325  0.2495  0.2750 -0.2333
24897W        W67991  27.051  22.603  21.930  0.0201 -0.2710  0.0309
24898W        W67992  25.934  25.331  18.478 -0.0302 -0.0126  0.1225
24899W        W67993  28.717  21.890  23.327  0.0949  0.1407  0.0304
24900W        W67994  26.767  23.383  21.273  0.1852  0.0028  0.0857
24901W        W67995  28.785  21.196  23.154 -0.0089 -0.3427  0.0041
24902W        W67996  29.604  23.201  24.036 -0.1793 -0.0880  0.1219
24903W        W67997  26.936  23.945  22.392  0.2378 -0.1288 -0.1584
24904W        W67998  27.216  24.862  22.401  0.0232 -0.0099 -0.0089
24905W        W67999  27.188  23.579  21.569 -0.0898  0.2286 -0.1325
24906W        W68000  28.055  21.454  23.793 -0.0589 -0.3287  0.2285
24907W        W68001  26.734  24.006  24.533  0.1713 -0.0503 -0.2015
24908W        W68002  25.658  26.965  22.664  0.2140  0.0947  0.1409
24909W        W68003  28.377  24.100  24.266  0.1578  0.1867 -0.0379
24910W        W68004  29.586  23.357  23.073  0.2053 -0.1141  0.1874
24911W        W68005  28.197  22.043  24.298 -0.0194  0.1566  0.0139
24912W        W68006  26.428  23.659  20.890  0.1306  0.0333 -0.3868
24913W        W68007  26.541  25.989  20.441 -0.3477 -0.1071 -0.0694
24914W        W68008  26.173  25.393  19.970  0.2653  0.2816 -0.1470
24915W        W68009  26.509  22.463  23.131  0.0616  0.2297 -0.0503
24916W        W68010  27.557  25.825  23.480 -0.1980 -0.3757  0.2059
24917W        W68011  27.875  23.677  21.353  0.0331  0.0521  0.0196
24918W        W68012  27.182  24.929  24.822 -0.0153  0.0442  0.0174
24919W        W68013  27.109  26.669  18.942  0.1692  0.1309 -0.3336
24920W        W68014  28.369  22.186  23.138 -0.0367 -0.2140 -0.0547
24921W        W68015  23.715  24.315  21.693  0.3095 -0.4352 -0.1241
24922W        W68016  25.907  22.689  19.563  0.0585  0.0291 -0.0056
24923W        W68017  25.357  23.856  20.541  0.1405 -0.1182  0.4585
24924W        W68018  28.061  22.040  22.130 -0.1280  0.1788 -0.3083
24925W        W68019  27.528  24.321  22.021  0.0896 -0.1461 -0.2661
24926W        W68020  26.227  23.443  21.479  0.0678 -0.0340 -0.2435
24927W        W68021  27.386  20.637  22.512 -0.0045  0.3985 -0.1178
24928W        W68022  26.841  23.910  24.029  0.1449 -0.0308  0.1177
24929W        W68023  27.210  22.943  22.728  0.1544  0.1132  0.1918
24930W        W68024  28.559  24.454  20.454 -0.2095 -0.1118 -0.1542
24931W        W68025  27.198  25.147  24.355 -0.2290  0.1215 -0.0418
24932W        W68026  26.528  25.329  23.740  0.1743  0.3469 -0.0095
24933W        W68027  26.326  21.808  20.616  0.0465  0.0389  0.1764
24934W        W68028  28.088  23.085  21.787  0.1580  0.1297  0.0399
24935W        W68029  27.189  22.320  21.537  0.1980 -0.0371  0.0290
24936W        W68030  27.252  23.513  21.059 -0.1690 -0.1393 -0.0437
24937W        W68031  28.529  26.177  23.890  0.1051  0.3622  0.0710
24938W        W68032  26.229  23.330  22.069 -0.2460 -0.1097  0.1472
24939W        W68033  26.875  24.390  21.535  0.1266 -0.2284 -0.1749
24940W        W68034  26.168  22.914  23.706 -0.3821  0.2605 -0.0475
24941W        W68035  28.561  25.438  23.436  0.4073 -0.1314 -0.0267
24942W        W68036  26.446  24.430  23.425  0.0314 -0.0774 -0.0058
24943W        W68037  24.906  22.270  22.472  0.2259 -0.0717  0.2793
24944W        W68038  28.412  22.283  22.588 -0.1497  0.0879  0.0392
24945W        W68039  28.976  23.746  23.504 -0.2785  0.1897 -0.0167
24946W        W68040  27.149  23.337  23.585 -0.0192 -0.2925  0.2285
24947W        W68041  26.096  25.070  25.209  0.2812 -0.1043  0.0556
24948W        W68042  27.104  22.376  22.447 -0.0395 -0.0921  0.0766
24949W        W68043  27.758  26.360  20.820  0.0491  0.2625 -0.1631
24950W        W68044  28.576  23.748  23.954  0.1202  0.3662  0.0590
24951W        W68045  25.751  23.733  21.841 -0.1764  0.1205 -0.2344
24952W        W68046  24.573  23.722  21.938  0.2995  0.2683 -0.5113
24953W        W68047  25.814  24.718  20.647  0.1137 -0.1392 -0.3171
24954W        W68048  27.176  21.686  22.010 -0.0008  0.2916  0.0229
24955W        W68049  27.204  26.599  23.016  0.0385 -0.0957 -0.2413
24956W        W68050  27.089  24.711  20.868  0.3643  0.2581 -0.4240
24957W        W68051  26.207  23.321  24.030 -0.0268  0.2442  0.0314
24958W        W68052  29.884  22.428  19.341 -0.0708 -0.5105 -0.0632
24959W        W68053  26.010  24.994  18.959 -0.1561 -0.0894 -0.4015
24960W        W68054  28.353  21.423  21.371 -0.1426  0.2453 -0.1141
24961W        W68055  28.857  22.414  23.020 -0.2064  0.0958 -0.3199
24962W        W68056  25.755  24.108  20.265 -0.0737  0.1858 -0.1927
24963W        W68057  29.899  22.288  24.014  0.0485  0.0624  0.1165
24964W        W68058  26.221  22.053  23.369 -0.3283 -0.0669  0.1141
24965W        W68059  28.284  25.199  20.981 -0.1412  0.0018  0.2550
24966W        W68060  25.854  22.229  21.804 -0.4445  0.0275  0.1405
24967W        W68061  26.550  26.212  24.198  0.1706 -0.1644  0.0936
24968W        W68062  26.547  24.730  23.867  0.1506  0.1273  0.0410
24969W        W68063  27.019  23.209  20.522 -0.0938 -0.1698 -0.1405
24970W        W68064  25.980  21.335  19.953 -0.0824  0.0704 -0.1361
24971W        W68065  26.338  25.289  22.135  0.1821  0.0319 -0.1025
24972W        W68066  28.948  24.983  22.170 -0.0731  0.0029  0.0164
24973W        W68067  28.269  24.803  21.297 -0.2299 -0.1603  0.0221
24974W        W68068  29.186  22.908  21.873  0.1299 -0.0342 -0.1441
24975W        W68069  25.361  24.211  22.837 -0.2199 -0.0041  0.2666
24976W        W68070  27.889  22.504  22.217  0.4412 -0.0273 -0.1381
24977W        W68071  27.433  24.174  21.515  0.0172  0.3290 -0.2160
24978W        W68072  25.759  24.631  22.234 -0.0136 -0.2119 -0.1840
24979W        W68073  26.885  23.032  22.238 -0.2340 -0.3780 -0.0465
24980W        W68074  28.079  24.067  22.978 -0.1552 -0.1095 -0.0005
24981W        W68075  26.670  23.878  21.299  0.0606  0.0935  0.1362
24982W        W68076  28.028  22.642  22.701  0.1296 -0.1195 -0.0365
24983W        W68077  28.440  23.379  21.767  0.0987 -0.2818 -0.4380
24984W        W68078  27.722  24.334  23.352  0.0671 -0.1361 -0.1794
24985W        W68079  25.347  22.727  23.214 -0.3880  0.0636 -0.1863
24986W        W68080  27.830  26.057  22.690  0.0649  0.2116  0.3026
24987W        W68081  28.449  25.392  19.971  0.0261  0.0641 -0.2844
24988W        W68082  29.402  22.047  22.949  0.1355 -0.0887 -0.1395
24989W        W68083  28.698  22.415  21.309 -0.0432 -0.0537 -0.4296
24990W        W68084  26.060  23.478  20.483 -0.3119  0.1152 -0.0636
24991W        W68085  25.825  23.015  22.231  0.0536 -0.2089  0.3087
24992W        W68086  28.358  23.350  23.719 -0.2824  0.1360  0.3330
24993W        W68087  26.139  23.902  21.198  0.2189 -0.3677  0.0717
24994W        W68088  28.424  21.889  23.896 -0.1290  0.0259 -0.1924
24995W        W68089  27.301  25.757  19.734  0.3357 -0.2334  0.2718
24996W        W68090  27.545  23.343  21.909  0.0666 -0.0253  0.2663
24997W        W68091  27.114  23.528  22.090  0.1441 -0.0602  0.2169
24998W        W68092  25.301  22.054  22.253 -0.4208 -0.1565  0.3953
24999W        W68093  26.422  26.118  23.043 -0.0217  0.2080 -0.2534
25000W        W68094  24.978  22.770  19.641 -0.1136  0.4265 -0.1846
25001W        W68095  26.562  24.644  20.532 -0.1927  0.0813  0.0391
25002W        W68096  28.056  24.435  23.708 -0.0145  0.0044 -0.1318
25003W        W68097  29.866  23.155  23.594  0.1669 -0.2867  0.2146
25004W        W68098  26.836  22.699  21.506 -0.0873  0.0981  0.0523
25005W        W68099  30.164  22.190  25.746 -0.0761  0.2123  0.0447
25006W        W68100  24.482  24.220  21.682  0.0939 -0.0394  0.1372
25007W        W68101  27.624  22.776  21.755  0.2397 -0.1600 -0.2058
25008W        W68102  26.029  25.421  23.913  0.0733 -0.0218 -0.1995
25009W        W68103  25.871  23.972  22.551  0.2001  0.2719  0.0929
25010W        W68104  25.154  25.849  21.023 -0.1945 -0.2013 -0.1357
25011W        W68105  27.266  23.892  22.787  0.3282 -0.2225 -0.0053
25012W        W68106  27.408  23.820  22.322 -0.1397 -0.0305 -0.0519
25013W        W68107  27.217  24.417  22.659 -0.1466 -0.0958 -0.3027
25014W        W68108  28.528  21.805  22.803  0.0856  0.0173 -0.0149
25015W        W68109  28.134  25.113  23.323  0.2290 -0.0310  0.0032
25016W        W68110  26.370  23.008  23.208 -0.2263  0.1585  0.3687
25017W        W68111  28.036  25.925  23.103 -0.2221  0.3389 -0.1200
25018W        W68112  27.675  24.219  22.746 -0.0421 -0.1748 -0.1236
25019W        W68113  25.734  26.522  22.429  0.1820 -0.2748 -0.1782
25020W        W68114  26.746  23.748  22.833 -0.1553  0.1025 -0.0712
25021W        W68115  28.013  23.448  23.308  0.0708 -0.2534  0.1397
25022W        W68116  26.783  24.437  22.487 -0.0043  0.3428  0.0482
25023W        W68117  26.727  22.187  21.514 -0.0295 -0.0896 -0.0552
25024W        W68118  26.954  24.482  19.181  0.3120  0.1143  0.0437
25025W        W68119  25.606  25.368  23.221 -0.1603 -0.0049 -0.3666
25026W        W68120  25.153  23.479  21.685  0.1257 -0.0435 -0.0233
25027W        W68121  26.823  25.606  20.596  0.1152 -0.1068 -0.0652
25028W        W68122  27.124  24.560  20.326  0.1009 -0.4512  0.2324
25029W        W68123  28.838  22.823  22.287  0.1955  0.1312  0.1471
25030W        W68124  27.665  24.615  22.432 -0.2908  0.0482 -0.2963
25031W        W68125  25.498  22.590  22.109 -0.0406 -0.1193  0.3157
25032W        W68126  26.110  24.238  22.088  0.0045 -0.1607 -0.1379
25033W        W68127  26.352  26.127  19.610  0.1230 -0.0407  0.0209
25034W        W68128  27.368  25.055  21.214  0.2947 -0.3870 -0.0511
25035W        W68129  26.328  23.881  21.700 -0.1237  0.1026 -0.0162
25036W        W68130  28.876  25.061  23.493  0.0840 -0.0485  0.0122
25037W        W68131  26.793  22.672  20.788 -0.0907 -0.0228 -0.3306
25038W        W68132  26.673  23.461  22.341 -0.0387  0.1257 -0.0911
25039W        W68133  29.209  23.697  20.520 -0.0591  0.2675  0.2535
25040W        W68134  27.634  25.417  24.362  0.2902  0.0706  0.1003
25041W        W68135  27.365  24.628  24.331  0.4203 -0.2017  0.0242
25042W        W68136  27.010  23.992  19.835 -0.0416 -0.4792  0.0167
25043W        W68137  26.313  23.953  24.267 -0.3861 -0.4257  0.3447
25044W        W68138  29.266  21.104  23.165  0.0102  0.2092  0.1291
25045W        W68139  26.281  24.954  23.503 -0.0669 -0.0358 -0.0824
25046W        W68140  28.233  25.761  21.221  0.1028 -0.2142  0.0032
25047W        W68141  26.003  22.988  21.575  0.1877  0.0018  0.0309
25048W        W68142  26.426  24.536  22.933 -0.0528 -0.1449  0.1660
25049W        W68143  28.945  21.083  23.656  0.0513 -0.1138 -0.0709
25050W        W68144  28.086  24.502  20.323  0.2396 -0.2628  0.1423
25051W        W68145  28.275  23.744  22.661  0.0460  0.2133 -0.4290
25052W        W68146  26.313  25.889  21.465  0.0933  0.1518  0.0215
25053W        W68147  25.771  24.538  22.812 -0.0081 -0.0961 -0.4073
25054W        W68148  27.810  25.366  22.012 -0.2433  0.0937 -0.2643
25055W        W68149  26.060  22.213  19.638  0.1365  0.0405  0.1551
25056W        W68150  29.342  23.556  21.755 -0.1617 -0.1250 -0.1698
25057W        W68151  27.308  23.580  24.039  0.4331  0.1657 -0.2798
25058W        W68152  28.894  20.675  23.969  0.4227  0.1206  0.0019
25059W        W68153  26.068  22.483  22.192  0.1370  0.0523  0.0002
25060W        W68154  26.439  22.946  21.831 -0.1995 -0.1434  0.1830
25061W        W68155  28.901  24.531  23.644 -0.1510  0.1929 -0.1942
25062W        W68156  27.026  24.369  23.743 -0.0308 -0.0822 -0.1144
25063W        W68157  27.062  22.965  21.059  0.1489 -0.1041 -0.1514
25064W        W68158  28.852  24.204  24.093  0.1002 -0.1254  0.1212
25065W        W68159  25.624  24.622  20.091 -0.0356  0.2943 -0.0102
25066W        W68160  28.112  26.056  24.256 -0.1586 -0.0117  0.2159
25067W        W68161  25.918  20.890  23.207  0.3635 -0.0439 -0.0342
25068W        W68162  26.676  23.430  21.813  0.0863 -0.4140  0.0410
25069W        W68163  26.005  25.087  22.481  0.0873  0.0353  0.0927
25070W        W68164  29.098  23.376  23.225 -0.0568 -0.0658  0.0913
25071W        W68165  28.817  26.787  22.848  0.1526 -0.0994 -0.0866
25072W        W68166  25.101  21.668  21.854 -0.2674  0.0763 -0.0467
25073W        W68167  28.527  24.271  20.956 -0.2518 -0.2247  0.3073
25074W        W68168  28.166  23.325  21.374 -0.0870 -0.0716 -0.1193
25075W        W68169  26.278  24.904  20.115  0.1675 -0.2232  0.3182
25076W        W68170  26.755  24.037  23.517 -0.2900 -0.1465  0.1759
25077W        W68171  28.560  25.252  22.562  0.1055  0.0670 -0.1384
25078W        W68172  26.173  22.077  21.403  0.1937  0.0427 -0.0990
25079W        W68173  28.195  25.638  24.427 -0.0260 -0.0038  0.3074
25080W        W68174  30.300  25.132  23.623  0.3771  0.1932  0.2004
25081W        W68175  27.052  22.185  20.117  0.1299 -0.2618 -0.4064
25082W        W68176  26.452  22.921  21.299  0.0247  0.0359  0.0800
25083W        W68177  26.064  25.494  21.287 -0.0151  0.1056  0.1033
25084W        W68178  28.740  23.391  21.312 -0.0965  0.1174  0.0638
25085W        W68179  28.149  22.575  21.738 -0.0487  0.0062  0.1021
25086W        W68180  26.149  24.084  20.559  0.2490  0.1273 -0.1789
25087W        W68181  27.620  21.508  23.583  0.2364  0.3273  0.0774
25088W        W68182  27.322  26.208  23.662 -0.0248  0.1134 -0.0721
25089W        W68183  26.137  25.286  24.597  0.0756 -0.2144  0.2213
25090W        W68184  25.922  24.354  21.039 -0.2591  0.3173  0.0176
25091W        W68185  28.097  23.949  23.460  0.1697  0.0325 -0.4606
25092W        W68186  27.060  23.700  23.301 -0.3017  0.2496  0.0593
25093W        W68187  27.306  25.659  21.198 -0.1710 -0.1538  0.1517
25094W        W68188  28.584  24.159  22.712 -0.1341 -0.3166  0.1874
25095W        W68189  28.866  24.407  21.707  0.3983  0.0168  0.1986
25096W        W68190  30.491  25.634  22.577 -0.4611 -0.0661  0.2482
25097W        W68191  26.980  22.671  23.145 -0.1473  0.0020 -0.2333
25098W        W68192  28.198  21.122  21.879 -0.0882  0.1277  0.0461
25099W        W68193  28.745  21.971  20.365 -0.2413  0.0983 -0.1766
25100W        W68194  27.690  23.637  22.774 -0.0916 -0.0741 -0.0520
25101W        W68195  24.708  22.971  19.298 -0.1467  0.0309 -0.2003
25102W        W68196  26.094  25.122  20.570 -0.0962  0.2080  0.3002
25103W        W68197  25.566  23.152  21.817  0.3271  0.1738  0.2504
25104W        W68198  29.291  20.327  21.850  0.1775  0.0761  0.2155
25105W        W68199  26.469  21.946  22.952 -0.1831  0.1389 -0.0152
25106W        W68200  24.847  24.331  21.331  0.1146 -0.2449 -0.5449
25107W        W68201  25.365  21.880  20.231 -0.1015 -0.0938  0.3362
25108W        W68202  28.185  24.983  22.317  0.0645  0.1025  0.1025
25109W        W68203  26.035  22.572  21.271  0.0468  0.2718  0.0988
25110W        W68204  24.989  20.412  21.571  0.0877 -0.0460  0.0929
25111W        W68205  26.917  23.952  21.830 -0.0495  0.0203 -0.0351
25112W        W68206  26.896  25.030  21.870 -0.3581  0.1270  0.0213
25113W        W68207  27.504  23.857  21.866  0.3149  0.1129 -0.0697
25114W        W68208  29.292  25.033  23.930 -0.2568 -0.3526 -0.2267
25115W        W68209  25.032  23.553  21.150 -0.0389  0.1275 -0.0607
25116W        W68210  28.184  22.315  23.630 -0.0311  0.3452 -0.2216
25117W        W68211  27.873  22.447  23.179  0.1538  0.0644  0.3390
25118W        W68212  25.783  21.795  19.449 -0.2117  0.0905  0.1113
25119W        W68213  27.522  23.290  22.473 -0.2807  0.4376 -0.2091
25120W        W68214  27.960  24.138  21.798 -0.0281  0.1963 -0.0396
25121W        W68215  27.996  26.698  20.432 -0.0276 -0.0857 -0.1289
25122W        W68216  27.493  25.129  23.943  0.2054  0.1579  0.3356
25123W        W68217  27.101  25.293  23.552 -0.0538 -0.0012 -0.1399
25124W        W68218  26.216  22.723  22.825  0.2327 -0.0821  0.1786
25125W        W68219  27.322  24.715  21.587 -0.0147  0.1443 -0.0526
25126W        W68220  27.522  24.677  22.969  0.1704  0.1770 -0.0460
25127W        W68221  28.801  24.807  20.810 -0.0444  0.0869  0.2229
25128W        W68222  29.291  24.048  21.684  0.1765  0.0592  0.1787
25129W        W68223  27.304  24.097  24.152  0.1329 -0.0093 -0.2454
25130W        W68224  25.462  21.889  24.191 -0.0990 -0.0011  0.1513
25131W        W68225  27.960  25.283  23.856 -0.1334 -0.0640 -0.1013
25132W        W68226  27.822  23.099  22.817  0.0953 -0.2985  0.0455
25133W        W68227  26.229  22.220  20.857 -0.1177 -0.0506  0.0867
25134W        W68228  27.304  24.227  20.757  0.3123 -0.0303  0.0007
25135W        W68229  27.828  24.041  22.250 -0.0817 -0.1403  0.2989
25136W        W68230  27.323  21.430  22.804 -0.3789  0.0498 -0.0888
25137W        W68231  25.927  23.568  20.032 -0.1325 -0.3676  0.4103
25138W        W68232  28.515  23.658  23.327  0.2859  0.0918 -0.1381
25139W        W68233  27.322  26.026  23.085 -0.2099  0.0746  0.3103
25140W        W68234  28.768  23.778  24.441 -0.0754  0.0702 -0.1430
25141W        W68235  25.951  25.111  21.641  0.0476 -0.1572 -0.1121
25142W        W68236  27.930  22.825  21.254  0.1665  0.1777  0.0666
25143W        W68237  27.265  24.747  23.410 -0.0185 -0.0474 -0.1201
25144W        W68238  27.819  25.354  24.809 -0.0937  0.1582  0.2527
25145W        W68239  28.148  26.392  23.394  0.2031 -0.0145 -0.0473
25146W        W68240  28.981  22.355  22.073 -0.0756 -0.0122  0.1467
25147W        W68241  25.867  22.246  24.190 -0.1608 -0.0009  0.3207
25148W        W68242  26.320  24.582  22.403  0.2180  0.1036 -0.1690
25149W        W68243  26.973  23.205  23.067 -0.2782 -0.1234  0.2614
25150W        W68244  28.926  22.947  22.839  0.0267 -0.2173 -0.2087
25151W        W68245  27.067  23.432  22.611 -0.0587 -0.1395 -0.1404
25152W        W68246  27.846  22.093  20.805  0.2065 -0.1038  0.0063
25153W        W68247  25.771  24.109  23.103 -0.0120  0.0359 -0.0438
25154W        W68248  27.701  24.012  23.836 -0.1582  0.0145 -0.3802
25155W        W68249  27.022  24.318  27.335  0.0701  0.0622  0.2360
25156W        W68250  26.575  22.692  24.624  0.1186  0.2293 -0.0737
25157W        W68251  28.033  23.684  23.934  0.1049 -0.0400  0.2009
25158W        W68252  28.647  23.918  26.004  0.2192  0.2304  0.3119
25159W        W68253  26.337  22.444  25.364 -0.1435  0.4090  0.0548
25160W        W68254  28.602  25.491  25.715  0.0625  0.2092  0.0214
25161W        W68255  26.403  22.636  26.105 -0.0254 -0.0451 -0.0398
25162W        W68256  26.864  23.880  25.994 -0.1549 -0.3910 -0.0660
25163W        W68257  27.748  24.202  25.390  0.0900  0.2470 -0.3581
25164W        W68258  28.389  23.683  24.947  0.2652 -0.5462 -0.0419
25165W        W68259  28.069  22.554  27.243  0.2245 -0.0492  0.4669
25166W        W68260  27.047  25.415  25.509 -0.2346 -0.1120  0.0364
25167W        W68261  26.699  23.317  25.356  0.1684  0.0289 -0.3080
25168W        W68262  23.759  22.201  25.044  0.1065 -0.0587  0.1800
25169W        W68263  27.704  23.477  25.888 -0.0507  0.1492 -0.0850
25170W        W68264  25.550  22.659  25.958  0.0817  0.0547 -0.2366
25171W        W68265  25.292  23.715  26.505  0.0895  0.1576  0.1460
25172W        W68266  25.934  23.152  24.936 -0.0485 -0.1217 -0.1698
25173W        W68267  27.355  25.128  25.793 -0.2524  0.2516 -0.3323
25174W        W68268  27.325  22.244  26.006  0.2345  0.0968 -0.1901
25175W        W68269  27.495  22.318  27.634 -0.3855 -0.2098  0.0506
25176W        W68270  27.880  24.402  24.898 -0.0877  0.0703  0.2241
25177W        W68271  26.194  24.498  24.268  0.0122  0.1166 -0.0808
25178W        W68272  25.411  24.012  24.424 -0.1585  0.0279  0.1741
25179W        W68273  25.957  22.867  25.859  0.0331 -0.0043 -0.1511
25180W        W68274  27.067  23.278  27.728  0.0796 -0.5772  0.0167
25181W        W68275  28.206  23.690  25.937  0.0540 -0.1963  0.1596
25182W        W68276  27.674  24.858  25.068 -0.0526  0.0158  0.0941
25183W        W68277  27.093  24.683  25.981 -0.2034 -0.0587  0.0001
25184W        W68278  30.264  24.166  27.589  0.0091 -0.3256 -0.0571
25185W        W68279  25.552  25.149  25.339  0.2352 -0.0337 -0.0655
25186W        W68280  24.432  25.672  24.255 -0.2246 -0.2267  0.1225
25187W        W68281  27.007  24.481  24.617  0.1188 -0.1448 -0.1425
25188W        W68282  29.155  24.347  24.912  0.3086  0.0582 -0.2822
25189W        W68283  29.198  24.213  27.953 -0.2625  0.1109 -0.0296
25190W        W68284  27.980  25.554  26.858 -0.1122 -0.2620 -0.0760
25191W        W68285  26.791  24.373  24.215  0.0396  0.0312 -0.1666
25192W        W68286  27.956  25.425  27.878  0.0135  0.2136 -0.2913
25193W        W68287  26.151  27.463  27.478  0.0920 -0.0064 -0.1292
25194W        W68288  26.748  23.741  27.129 -0.2890 -0.0815  0.1493
25195W        W68289  28.079  22.718  25.350  0.3181  0.0718 -0.0223
25196W        W68290  25.986  25.775  24.540 -0.1712 -0.2928 -0.0652
25197W        W68291  26.850  24.757  26.843 -0.3555  0.2217  0.2716
25198W        W68292  28.027  24.821  27.172 -0.0504  0.0166 -0.1933
25199W        W68293  25.381  24.614  26.297  0.1580  0.0251  0.2292
25200W        W68294  28.805  21.793  27.881 -0.2042  0.1308 -0.1449
25201W        W68295  25.735  24.944  24.001  0.1078  0.1040 -0.2109
25202W        W68296  28.641  23.289  24.793  0.1617  0.2166  0.0360
25203W        W68297  27.741  23.296  24.084 -0.0173 -0.2199 -0.0138
25204W        W68298  29.041  22.588  24.667  0.1635 -0.0015 -0.0972
25205W        W68299  27.217  22.252  23.751  0.2850  0.0723 -0.2243
25206W        W68300  26.610  24.801  25.782  0.3343 -0.3517 -0.1991
25207W        W68301  27.196  21.904  24.825  0.2437 -0.1585  0.0674
25208W        W68302  29.042  24.863  26.661  0.0046 -0.0385 -0.2106
25209W        W68303  27.550  23.076  24.558 -0.0363  0.1647 -0.0536
25210W        W68304  28.010  23.571  26.350 -0.0019 -0.1218  0.0176
25211W        W68305  25.571  25.097  24.826 -0.0846  0.2979  0.0868
25212W        W68306  26.075  23.537  25.971 -0.0126  0.3903 -0.1001
25213W        W68307  28.391  25.382  24.829  0.1442  0.1152  0.0128
25214W        W68308  28.367  25.876  25.957 -0.0251  0.0329  0.2100
25215W        W68309  27.762  23.461  24.736  0.0580  0.0333  0.0169
25216W        W68310  26.242  23.046  24.584 -0.0359 -0.0405  0.3354
25217W        W68311  25.969  27.212  27.884 -0.3393 -0.1197  0.2105
25218W        W68312  25.377  23.783  27.513 -0.0194 -0.0294 -0.0613
25219W        W68313  26.572  21.718  23.499 -0.0876 -0.3698 -0.2565
25220W        W68314  28.003  25.047  28.319  0.3123  0.1493 -0.0791
25221W        W68315  26.120  24.450  26.948 -0.2547 -0.0761 -0.0075
25222W        W68316  27.496  23.806  26.532  0.1526  0.1061 -0.1970
25223W        W68317  27.289  23.896  25.111 -0.2475 -0.1233  0.2167
25224W        W68318  29.306  23.802  27.101 -0.1580  0.0378 -0.3006
25225W        W68319  28.293  25.706  23.867  0.1500 -0.0306  0.1379
25226W        W68320  28.324  22.360  24.955 -0.0615  0.1486  0.0624
25227W        W68321  28.537  22.471  26.463  0.0931  0.3332  0.1927
25228W        W68322  27.027  24.962  23.940  0.4074  0.2171 -0.1739
25229W        W68323  26.686  24.775  24.434 -0.1424 -0.1781 -0.2089
25230W        W68324  28.354  24.942  25.826  0.1359  0.0118  0.0681
25231W        W68325  29.730  22.943  24.533  0.1224 -0.1632 -0.1238
25232W        W68326  25.789  25.625  26.726  0.2628 -0.0324  0.0888
25233W        W68327  26.507  23.365  26.752 -0.0035  0.1329 -0.3004
25234W        W68328  26.201  24.724  26.150 -0.4515  0.0055 -0.2062
25235W        W68329  26.423  25.937  24.711 -0.0818 -0.1225 -0.1516
25236W        W68330  26.181  23.168  25.373 -0.0591 -0.1674  0.3604
25237W        W68331  24.995  25.446  23.966  0.0531  0.1399 -0.3303
25238W        W68332  24.941  23.421  26.770 -0.0515 -0.2916  0.1504
25239W        W68333  25.596  24.358  26.863 -0.0828 -0.0234 -0.0728
25240W        W68334  29.682  22.991  25.110  0.0536 -0.1287 -0.0970
25241W        W68335  26.903  22.526  26.207  0.2732  0.1566  0.0277
25242W        W68336  28.875  21.201  26.875 -0.0653  0.0513 -0.0422
25243W        W68337  25.718  26.208  26.540  0.2383 -0.1085 -0.1262
25244W        W68338  28.499  24.467  25.492  0.3773 -0.0615  0.1422
25245W        W68339  29.179  23.641  25.568 -0.1986 -0.0145 -0.2849
25246W        W68340  28.235  24.884  24.870  0.1508 -0.0914 -0.0763
25247W        W68341  25.551  22.954  25.494 -0.0288 -0.2612  0.3113
25248W        W68342  26.412  23.439  24.996  0.1729  0.1224 -0.1027
25249W        W68343  25.919  22.584  27.072  0.2060 -0.3682  0.1696
25250W        W68344  24.660  22.675  25.219  0.3394  0.0562 -0.0359
25251W        W68345  27.009  22.406  27.869  0.1242 -0.1919 -0.2883
25252W        W68346  25.610  22.701  23.961 -0.1760  0.0499 -0.4011
25253W        W68347  28.593  22.316  24.542  0.0359  0.1088 -0.1276
25254W        W68348  26.814  25.292  24.547  0.0737  0.0237  0.2398
25255W        W68349  25.501  25.894  25.194 -0.3783 -0.0202  0.2084
25256W        W68350  26.730  23.098  28.748 -0.0689 -0.0873  0.1834
25257W        W68351  27.304  24.533  25.138  0.0320 -0.1172  0.2191
25258W        W68352  28.498  24.446  27.149  0.1766  0.1405  0.1676
25259W        W68353  28.659  24.868  26.907  0.3552 -0.3198  0.0442
25260W        W68354  26.140  22.949  28.075  0.0692  0.1679  0.1689
25261W        W68355  25.806  23.135  24.300  0.1216  0.0725  0.0795
25262W        W68356  26.109  25.279  26.495 -0.1423 -0.0301  0.1164
25263W        W68357  27.746  24.432  26.394 -0.0922 -0.3189 -0.1934
25264W        W68358  27.794  23.122  23.658  0.1146 -0.0397  0.0288
25265W        W68359  28.476  24.691  26.387  0.0057 -0.0674  0.1847
25266W        W68360  28.122  23.126  24.897  0.0031 -0.0811  0.2584
25267W        W68361  25.296  25.535  26.761  0.1830 -0.4359 -0.3058
25268W        W68362  28.832  22.564  28.872 -0.1043  0.0149  0.0708
25269W        W68363  28.759  23.164  26.326  0.1099 -0.1574 -0.1387
25270W        W68364  27.746  23.343  25.234  0.1168  0.2777 -0.1165
25271W        W68365  26.142  22.735  24.210 -0.0373 -0.2854  0.3227
25272W        W68366  27.649  26.121  25.050  0.1737  0.0096 -0.1889
25273W        W68367  23.979  25.686  24.705 -0.2197 -0.2240 -0.2393
25274W        W68368  25.007  23.700  25.139  0.2093 -0.4303 -0.0578
25275W        W68369  28.204  24.088  25.259  0.0419 -0.0909 -0.3011
25276W        W68370  27.645  22.635  25.939 -0.2436  0.0476 -0.1707
25277W        W68371  25.524  24.147  26.372  0.1558 -0.4761 -0.0548
25278W        W68372  27.597  22.714  27.264 -0.2935  0.1530 -0.2644
25279W        W68373  27.258  23.053  25.034 -0.0709  0.0128  0.0218
25280W        W68374  27.366  24.771  27.047  0.2562  0.0516 -0.4229
25281W        W68375  27.668  22.740  24.080  0.1357  0.1522 -0.2906
25282W        W68376  29.637  22.648  26.346  0.1310  0.2350 -0.1124
25283W        W68377  26.018  24.015  25.624 -0.1243  0.1546 -0.0083
25284W        W68378  28.259  23.378  24.411 -0.0871 -0.0232 -0.0870
25285W        W68379  28.363  24.578  24.103 -0.2496 -0.0225  0.1043
25286W        W68380  28.333  20.632  23.774 -0.1149 -0.0718 -0.1191
25287W        W68381  26.389  23.893  26.758  0.2525 -0.2479  0.4576
25288W        W68382  28.134  23.203  25.489 -0.1077 -0.1872  0.2875
25289W        W68383  28.507  24.879  27.414 -0.1278 -0.3059 -0.2545
25290W        W68384  27.756  22.599  23.632  0.1153  0.0293 -0.3158
25291W        W68385  27.477  24.250  24.626  0.2003 -0.2310  0.7544
25292W        W68386  25.904  24.877  24.468  0.3011  0.2683  0.3340
25293W        W68387  26.352  24.608  25.323  0.0245  0.2445  0.3075
25294W        W68388  28.142  24.140  25.740 -0.0920 -0.0465  0.1510
25295W        W68389  27.572  22.590  24.585 -0.2631  0.0030  0.0061
25296W        W68390  28.423  22.649  23.292 -0.2088  0.0093  0.0509
25297W        W68391  26.114  21.519  23.625  0.3497 -0.3537  0.0853
25298W        W68392  26.413  26.349  23.559  0.0389  0.0983 -0.1529
25299W        W68393  28.069  22.633  26.310 -0.1453 -0.2850  0.1246
25300W        W68394  27.142  22.417  25.592 -0.2332  0.1284 -0.1365
25301W        W68395  26.514  21.837  27.589  0.0209  0.1422 -0.5326
25302W        W68396  28.787  23.635  28.343  0.1866 -0.1267  0.2212
25303W        W68397  27.208  23.453  25.268 -0.0532 -0.0914 -0.1797
25304W        W68398  28.436  23.961  27.402 -0.0125 -0.3509 -0.2348
25305W        W68399  26.796  23.110  24.863  0.1431 -0.3044  0.1475
25306W        W68400  26.627  23.383  27.469 -0.3676 -0.0086 -0.1585
25307W        W68401  26.233  23.552  28.269 -0.0299 -0.3017  0.0215
25308W        W68402  27.149  25.924  26.486 -0.1431  0.2635  0.1249
25309W        W68403  27.594  24.857  26.209  0.3127  0.3719 -0.2459
25310W        W68404  28.351  24.409  27.608  0.2413  0.0281  0.0312
25311W        W68405  27.348  23.659  27.072  0.0716  0.3082  0.2107
25312W        W68406  28.349  23.124  25.968  0.0101 -0.0138 -0.1270
25313W        W68407  26.014  24.667  24.926  0.1665  0.2653  0.2837
25314W        W68408  24.149  23.861  23.920  0.0029 -0.0567  0.2039
25315W        W68409  26.490  21.387  26.919  0.2458 -0.2233  0.1262
25316W        W68410  26.640  26.715  26.818 -0.3703  0.0932  0.3223
25317W        W68411  26.002  24.528  23.296 -0.0963 -0.1538 -0.3579
25318W        W68412  27.183  24.462  26.523  0.2736 -0.1059 -0.0736
25319W        W68413  25.769  24.917  23.484  0.0096 -0.1453 -0.0011
25320W        W68414  27.675  22.993  26.784  0.2299  0.1852  0.1221
25321W        W68415  24.241  26.420  25.282 -0.1646 -0.2067  0.0518
25322W        W68416  25.855  23.564  24.608 -0.1374 -0.0668 -0.1377
25323W        W68417  27.243  22.787  23.653  0.0421  0.1302 -0.1171
25324W        W68418  29.160  22.918  24.092 -0.2137  0.0220 -0.1262
25325W        W68419  29.790  23.658  24.029 -0.1521  0.1391  0.3298
25326W        W68420  27.501  23.202  28.116  0.1574  0.1178 -0.2121
25327W        W68421  27.024  23.615  26.664 -0.2605  0.2061  0.2238
25328W        W68422  24.931  24.850  26.030  0.2873 -0.1270  0.0965
25329W        W68423  26.584  23.277  28.081 -0.0072 -0.3240 -0.0207
25330W        W68424  27.070  22.882  24.528 -0.2308  0.4213 -0.1585
25331W        W68425  28.395  24.132  26.712 -0.0509  0.0895  0.1109
25332W        W68426  27.781  25.919  29.739 -0.2323 -0.0784  0.0677
25333W        W68427  25.490  23.196  24.713  0.1784 -0.2972 -0.2629
25334W        W68428  27.449  23.250  27.375  0.1547  0.1909  0.0012
25335W        W68429  26.499  23.101  25.907  0.1805  0.1309  0.0230
25336W        W68430  25.090  24.208  24.979 -0.2026 -0.1372 -0.0516
25337W        W68431  27.267  24.214  26.079  0.1202  0.2901 -0.1189
25338W        W68432  26.640  22.936  24.046  0.2279  0.0491 -0.0372
25339W        W68433  24.295  25.499  25.048 -0.1841 -0.1187  0.2597
25340W        W68434  26.386  24.329  27.864 -0.2842 -0.3710 -0.1285
25341W        W68435  27.919  23.989  26.634 -0.2440  0.1077 -0.4179
25342W        W68436  27.027  23.250  27.082  0.2119  0.0503 -0.2200
25343W        W68437  27.131  22.594  24.104 -0.1505  0.1356 -0.2349
25344W        W68438  28.236  23.160  26.478  0.0203  0.1559  0.2442
25345W        W68439  28.793  23.933  26.878  0.3127  0.1437 -0.0302
25346W        W68440  28.417  22.163  27.269  0.1718  0.1054  0.3360
25347W        W68441  27.040  25.810  28.941 -0.0149 -0.1874 -0.3776
25348W        W68442  26.700  23.066  26.363  0.1392  0.0471  0.1236
25349W        W68443  28.089  25.633  25.570  0.0121 -0.0120 -0.2056
25350W        W68444  27.916  24.031  28.224 -0.0735  0.2504  0.0399
25351W        W68445  25.960  24.169  25.140 -0.1860  0.0167 -0.1040
25352W        W68446  25.882  24.256  26.025 -0.2133  0.1789  0.0318
25353W        W68447  26.284  25.047  24.171  0.0335 -0.0055  0.2876
25354W        W68448  26.619  22.706  25.638  0.3053  0.2164  0.0954
25355W        W68449  27.066  24.657  27.723 -0.0199  0.1432  0.2446
25356W        W68450  24.515  25.852  24.751 -0.0836 -0.1196 -0.1058
25357W        W68451  24.938  24.069  27.354  0.0704 -0.0116 -0.1276
25358W        W68452  28.634  22.242  26.027  0.0068  0.2117  0.1133
25359W        W68453  27.792  23.822  25.008  0.0209 -0.0537  0.1500
25360W        W68454  27.513  23.106  25.603  0.2523 -0.3492 -0.3869
25361W        W68455  29.656  23.446  26.859 -0.1823  0.0459  0.1337
25362W        W68456  28.526  22.781  25.031  0.0975 -0.0308  0.3570
25363W        W68457  28.409  23.264  28.203 -0.0278 -0.0275 -0.0813
25364W        W68458  25.542  21.651  25.967  0.0091 -0.3019  0.2045
25365W        W68459  29.585  24.312  24.562  0.1087 -0.1702 -0.2284
25366W        W68460  24.927  24.789  26.564  0.2179  0.1105 -0.0438
25367W        W68461  28.642  25.756  28.294 -0.2787 -0.1919  0.2444
25368W        W68462  25.543  24.237  27.637 -0.3313 -0.0559 -0.1614
25369W        W68463  27.142  23.133  26.512  0.3543 -0.5007 -0.0230
25370W        W68464  26.885  22.245  22.880 -0.1349 -0.0635 -0.2489
25371W        W68465  25.886  24.530  26.488 -0.1222  0.3252  0.0719
25372W        W68466  29.159  24.713  25.235  0.2686  0.1478 -0.0092
25373W        W68467  27.906  24.822  24.005  0.1943 -0.1124 -0.3522
25374W        W68468  29.024  22.885  25.097  0.2765  0.0903 -0.1110
25375W        W68469  26.441  23.920  25.220  0.0525  0.2190  0.0003
25376W        W68470  28.758  23.407  25.846 -0.0501  0.1047 -0.0167
25377W        W68471  27.568  24.726  25.609 -0.0408  0.1923  0.2483
25378W        W68472  26.444  24.979  24.851  0.1130  0.2124 -0.0977
25379W        W68473  25.621  22.139  26.109  0.0130  0.0814 -0.1372
25380W        W68474  29.595  23.353  25.552 -0.1442 -0.0364 -0.0949
25381W        W68475  27.975  22.267  27.730 -0.0992  0.0589  0.1095
25382W        W68476  27.891  23.140  27.247 -0.1264  0.0442 -0.2995
25383W        W68477  28.224  23.759  27.022  0.0195 -0.1022  0.2986
25384W        W68478  26.344  22.153  28.496 -0.0411  0.2703  0.0025
25385W        W68479  24.763  23.412  28.152  0.3894  0.2167 -0.2595
25386W        W68480  28.218  26.166  27.293  0.2366  0.1786 -0.4290
25387W        W68481  28.643  21.530  25.139  0.2509 -0.0322  0.1572
25388W        W68482  28.736  23.441  27.879  0.1550 -0.1434  0.0458
25389W        W68483  28.748  23.307  25.286  0.2528 -0.2903  0.1561
25390W        W68484  28.967  23.266  23.747  0.1526  0.1472  0.2277
25391W        W68485  25.301  22.515  25.505 -0.0183 -0.0910 -0.1394
25392W        W68486  27.946  24.226  28.667 -0.0473  0.3944  0.0113
25393W        W68487  28.082  21.850  23.407 -0.3457  0.1669  0.0922
25394W        W68488  27.382  22.696  26.444  0.0243  0.0205 -0.1670
25395W        W68489  27.036  24.737  25.517 -0.3879  0.1790 -0.1171
25396W        W68490  27.216  24.224  25.564  0.0149 -0.0752  0.0159
25397W        W68491  28.466  22.386  24.078  0.1100  0.3303  0.1066
25398W        W68492  24.173  22.629  25.306 -0.1870  0.1200  0.2461
25399W        W68493  26.449  25.873  27.733  0.3017  0.2889  0.1190
25400W        W68494  26.727  22.297  24.176 -0.0198  0.3283 -0.0305
25401W        W68495  28.031  22.987  23.215  0.1366  0.3007 -0.1068
25402W        W68496  27.611  24.971  27.882 -0.0177 -0.1453  0.1039
25403W        W68497  28.544  25.383  27.049 -0.0514 -0.0897 -0.3449
25404W        W68498  27.377  20.971  24.643  0.1301  0.0547 -0.0049
25405W        W68499  29.138  22.690  26.235 -0.0764  0.1104  0.2663
25406W        W68500  26.806  23.699  24.918  0.0314  0.1396  0.0128
25407W        W68501  27.030  22.901  25.501 -0.0318  0.1738  0.2744
25408W        W68502  26.367  25.109  27.175  0.1180 -0.0692 -0.3796
25409W        W68503  26.582  25.907  26.614  0.4329  0.3158 -0.0258
25410W        W68504  27.409  25.383  26.187 -0.2099  0.0924  0.1961
25411W        W68505  25.824  23.493  27.324 -0.0772 -0.2748  0.0595
25412W        W68506  28.557  23.200  26.907 -0.1268  0.2077  0.1706
25413W        W68507  27.940  23.725  25.488 -0.1539 -0.0567 -0.0628
25414W        W68508  29.637  24.062  28.270 -0.8218  0.0912 -0.0941
25415W        W68509  27.953  24.311  27.143  0.0668 -0.2100 -0.0007
25416W        W68510  27.439  23.798  25.632 -0.0806  0.3363 -0.2449
25417W        W68511  27.625  26.357  26.863 -0.0806 -0.0292  0.1947
25418W        W68512  29.895  24.342  25.364  0.2450 -0.3941 -0.2868
25419W        W68513  27.709  23.987  26.038  0.0779  0.0345  0.1328
25420W        W68514  25.280  23.115  26.431 -0.1452  0.0994 -0.0484
25421W        W68515  25.754  24.703  29.321  0.2013  0.3830 -0.1639
25422W        W68516  27.070  24.074  26.847 -0.0498  0.2548  0.2413
25423W        W68517  25.257  22.407  24.634  0.3902 -0.2598  0.1676
25424W        W68518  27.214  23.774  24.575 -0.1086 -0.2373 -0.0237
25425W        W68519  25.462  26.226  29.031  0.1706 -0.0737 -0.0372
25426W        W68520  26.932  23.781  27.604  0.2634  0.4186 -0.0802
25427W        W68521  26.548  25.640  26.151  0.0344  0.2907 -0.0152
25428W        W68522  28.733  24.683  24.948  0.0995  0.1948  0.1778
25429W        W68523  26.757  24.325  25.530 -0.1318 -0.0066 -0.0327
25430W        W68524  27.215  25.036  26.622  0.0540 -0.1378  0.1233
25431W        W68525  29.509  23.445  24.486  0.4908 -0.0076  0.4069
25432W        W68526  26.346  23.990  26.112  0.4782 -0.1589 -0.0451
25433W        W68527  25.392  25.811  24.621 -0.3877  0.1000 -0.1092
25434W        W68528  27.714  23.817  24.288 -0.0874  0.0423 -0.0294
25435W        W68529  26.436  25.901  25.192  0.0796  0.0068 -0.1369
25436W        W68530  28.789  24.212  26.415  0.2084 -0.2261  0.0740
25437W        W68531  28.626  21.892  24.795 -0.0787  0.2223 -0.1588
25438W        W68532  28.595  24.461  26.004  0.1188 -0.4075 -0.1675
25439W        W68533  30.634  21.819  26.929  0.0189  0.1508  0.0876
25440W        W68534  27.857  26.909  28.666  0.1881  0.0567  0.1932
25441W        W68535  27.594  23.347  26.415  0.0525  0.1010  0.0975
25442W        W68536  26.848  21.933  23.842  0.0123 -0.1546 -0.2273
25443W        W68537  25.655  23.801  25.925 -0.1032 -0.0959 -0.1745
25444W        W68538  30.562  22.478  28.866  0.0651  0.0805  0.0560
25445W        W68539  25.912  25.058  26.932  0.4129  0.0901 -0.2625
25446W        W68540  28.576  26.325  25.147 -0.0146  0.1926  0.2760
25447W        W68541  26.177  21.842  24.775  0.2677  0.1966 -0.3338
25448W        W68542  26.562  23.518  26.178  0.0527 -0.0149  0.0622
25449W        W68543  28.286  21.819  27.636 -0.4013 -0.0255  0.2276
25450W        W68544  28.143  25.113  24.379 -0.0683  0.1300 -0.2684
25451W        W68545  28.239  22.812  26.879 -0.2700  0.0873 -0.0553
25452W        W68546  26.977  26.293  26.790 -0.3302 -0.1241  0.1291
25453W        W68547  27.421  25.481  26.742 -0.0921 -0.0128  0.2177
25454W        W68548  26.298  24.352  25.804 -0.2238 -0.0538  0.0452
25455W        W68549  27.009  22.063  25.234 -0.0795 -0.0288  0.2037
25456W        W68550  29.622  23.693  26.056 -0.0756  0.2894  0.1832
25457W        W68551  26.751  24.024  26.432  0.1483 -0.0500 -0.3126
25458W        W68552  28.991  22.581  28.278 -0.0802  0.1828  0.1881
25459W        W68553  25.097  23.474  26.095 -0.2278  0.0606 -0.3650
25460W        W68554  28.174  22.845  23.767  0.1963 -0.0325 -0.0067
25461W        W68555  26.452  23.659  25.627  0.1992 -0.0495 -0.0240
25462W        W68556  26.194  23.824  27.257  0.1095 -0.0518 -0.1058
25463W        W68557  28.073  22.473  24.513  0.0452 -0.1223  0.0680
25464W        W68558  27.501  23.944  28.768 -0.1974 -0.3503 -0.0458
25465W        W68559  30.059  23.236  24.816  0.0053  0.1821 -0.3193
25466W        W68560  29.453  25.496  27.156  0.2335  0.0171  0.2416
25467W        W68561  25.274  22.336  24.123 -0.0770 -0.2523 -0.1056
25468W        W68562  29.173  21.496  23.572 -0.1284  0.1007 -0.4958
25469W        W68563  26.799  22.579  25.075 -0.0716  0.4558  0.1565
25470W        W68564  25.459  23.278  27.666 -0.2425 -0.3694 -0.1564
25471W        W68565  28.943  26.415  27.814  0.2289 -0.0581  0.0342
25472W        W68566  25.870  22.607  25.158 -0.2210 -0.0260 -0.0858
25473W        W68567  29.969  23.633  24.554  0.0570  0.0255  0.1480
25474W        W68568  29.029  23.442  26.734  0.1508  0.0728  0.1489
25475W        W68569  26.071  25.776  25.844 -0.1884  0.2224 -0.2457
25476W        W68570  29.282  23.405  25.012  0.1098 -0.4155 -0.3793
25477W        W68571  27.711  24.866  26.733 -0.0933 -0.0049 -0.0183
25478W        W68572  25.496  23.221  25.884 -0.1647  0.0379 -0.4522
25479W        W68573  27.665  25.212  27.095  0.0279 -0.1690  0.1027
25480W        W68574  29.010  24.390  25.681  0.0077 -0.0401  0.0970
25481W        W68575  28.658  22.904  23.998 -0.1498  0.0221 -0.2745
25482W        W68576  25.940  23.937  26.435  0.1377 -0.0627  0.2226
25483W        W68577  25.588  24.444  24.794  0.3411  0.0723  0.0104
25484W        W68578  28.545  22.746  27.224  0.0770 -0.0878  0.1006
25485W        W68579  27.728  22.903  27.705 -0.0537  0.0193 -0.1442
25486W        W68580  27.506  24.476  23.874  0.0950  0.0011  0.0343
25487W        W68581  29.904  22.846  27.549 -0.1582  0.1820 -0.4665
25488W        W68582  27.508  24.552  27.536  0.3537 -0.3544  0.1949
25489W        W68583  27.842  25.663  26.117  0.1296  0.1709  0.0303
25490W        W68584  27.130  23.084  24.027 -0.1757  0.0708 -0.0661
25491W        W68585  26.794  24.474  28.311  0.1118 -0.1309  0.1399
25492W        W68586  28.415  23.659  25.476 -0.0367  0.2545 -0.1426
25493W        W68587  28.016  25.171  25.246 -0.2120  0.0169 -0.3586
25494W        W68588  28.014  24.642  25.984  0.0828 -0.1057 -0.1468
25495W        W68589  28.887  23.722  24.905  0.0427 -0.2539 -0.1159
25496W        W68590  28.521  24.171  24.905 -0.2578  0.1553  0.0471
25497W        W68591  26.647  22.109  26.389 -0.1552  0.0083 -0.2274
25498W        W68592  29.860  22.317  25.353  0.0698  0.0930 -0.1212
25499W        W68593  28.714  21.272  26.061 -0.2614  0.2895 -0.3666
25500W        W68594  25.176  25.608  25.459 -0.1718  0.0347 -0.0375
25501W        W68595  27.347  21.581  23.986 -0.0192 -0.1011  0.4415
25502W        W68596  25.129  25.104  23.292  0.2470 -0.0852 -0.0633
25503W        W68597  24.930  24.450  25.710  0.1953  0.5466 -0.2775
25504W        W68598  26.123  21.126  27.766  0.0151  0.0399  0.2983
25505W        W68599  25.969  24.764  25.684  0.0086  0.1578 -0.2360
25506W        W68600  25.254  24.731  24.933 -0.3809 -0.0342  0.0198
25507W        W68601  26.573  22.160  24.874  0.1136 -0.0568 -0.3063
25508W        W68602  28.735  24.374  24.546  0.0548 -0.5584  0.1978
25509W        W68603  26.146  22.196  26.183  0.3281  0.0234  0.1332
25510W        W68604  25.044  23.020  25.315 -0.0086 -0.2483  0.5524
25511W        W68605  28.044  24.656  25.461 -0.0546 -0.2987 -0.1471
25512W        W68606  27.867  25.195  25.797 -0.1488  0.0694 -0.0551
25513W        W68607  28.777  22.344  23.639 -0.0683  0.3042  0.0073
25514W        W68608  29.181  25.344  28.853 -0.2519 -0.0788 -0.0149
25515W        W68609  24.628  23.420  25.315 -0.0061  0.1132 -0.0042
25516W        W68610  25.759  23.500  28.037 -0.0133  0.1585 -0.1764
25517W        W68611  26.647  22.988  27.178 -0.0350  0.0747  0.1049
25518W        W68612  24.873  23.260  24.000  0.0532 -0.0390  0.0692
25519W        W68613  25.726  23.889  26.975 -0.1047  0.1720 -0.0805
25520W        W68614  28.344  26.523  24.232  0.0563 -0.0530 -0.2874
25521W        W68615  27.253  25.829  25.220  0.1814 -0.1864 -0.0296
25522W        W68616  26.902  23.832  25.495  0.0292 -0.0278 -0.1071
25523W        W68617  27.437  24.112  27.274  0.0306  0.0204  0.0206
25524W        W68618  25.640  20.477  28.504 -0.3764  0.1712 -0.0249
25525W        W68619  28.906  23.295  24.319  0.0691  0.0256 -0.1174
25526W        W68620  26.562  24.814  28.060  0.1288 -0.4519  0.0352
25527W        W68621  29.144  24.604  24.338  0.0953 -0.0611  0.0242
25528W        W68622  28.894  22.872  26.695  0.2147 -0.3360  0.1192
25529W        W68623  28.038  22.972  24.291  0.0493  0.0207  0.1231
25530W        W68624  26.315  22.381  26.614 -0.0926 -0.3753  0.2167
25531W        W68625  26.119  24.898  28.775  0.0041  0.2038  0.0881
25532W        W68626  29.122  25.415  26.776 -0.2916 -0.0765 -0.0038
25533W        W68627  25.627  21.785  26.445  0.1854 -0.2361 -0.2512
25534W        W68628  27.733  22.870  24.954 -0.3345 -0.1056 -0.0154
25535W        W68629  28.059  23.922  24.647  0.2502 -0.1415 -0.0397
25536W        W68630  25.441  23.407  25.176 -0.3121 -0.4407  0.3089
25537W        W68631  26.915  23.360  24.350  0.0330  0.0534  0.0774
25538W        W68632  26.373  23.858  27.760 -0.1165  0.1452 -0.2338
25539W        W68633  28.129  24.511  26.704  0.0274  0.2331 -0.1382
25540W        W68634  27.871  23.390  27.695 -0.1180  0.1821 -0.0037
25541W        W68635  27.674  23.576  23.610 -0.2828 -0.0424  0.1430
25542W        W68636  29.174  23.091  25.494 -0.0975 -0.4170  0.0125
25543W        W68637  28.192  26.362  28.315 -0.1731 -0.1939  0.3429
25544W        W68638  28.720  24.676  28.604 -0.2455 -0.0267 -0.2890
25545W        W68639  27.698  25.515  27.474 -0.0040 -0.1937  0.1036
25546W        W68640  29.582  24.885  27.316 -0.0227  0.2157  0.0055
25547W        W68641  26.351  22.834  25.038 -0.0982 -0.5163  0.0629
25548W        W68642  26.445  24.430  24.759 -0.1287  0.1151  0.2018
25549W        W68643  26.281  23.950  24.796  0.2114  0.1728  0.1142
25550W        W68644  27.819  23.722  27.303 -0.1795  0.1381 -0.1112
25551W        W68645  25.867  22.716  26.388 -0.0639  0.0154 -0.1385
25552W        W68646  27.948  20.867  23.987 -0.0377 -0.2499  0.1510
25553W        W68647  27.525  24.251  26.835 -0.1813 -0.4660  0.0676
25554W        W68648  27.052  23.250  28.371 -0.1215 -0.1790  0.0609
25555W        W68649  26.308  23.222  30.001 -0.0855  0.4079  0.1044
25556W        W68650  26.090  22.523  29.024  0.0829 -0.0362  0.0672
25557W        W68651  28.319  23.432  27.489  0.0930  0.2540 -0.0588
25558W        W68652  27.551  24.037  30.073  0.0833  0.0174  0.0227
25559W        W68653  24.317  22.904  28.568  0.0269  0.3012 -0.2138
25560W        W68654  29.698  25.177  29.599  0.1554  0.0321 -0.0904
25561W        W68655  24.904  21.535  30.684  0.1570  0.0863 -0.0816
25562W        W68656  28.643  24.339  29.128 -0.0546 -0.0027 -0.2569
25563W        W68657  28.637  24.448  30.823  0.1639 -0.0074  0.0790
25564W        W68658  27.993  23.481  28.231 -0.1503 -0.0693 -0.1036
25565W        W68659  26.772  23.949  30.297 -0.3063  0.0741 -0.1814
25566W        W68660  24.583  24.740  29.386 -0.2030  0.2823 -0.0331
25567W        W68661  27.752  22.714  28.676 -0.0222 -0.4696 -0.1585
25568W        W68662  24.392  21.834  29.140 -0.1044  0.2276 -0.1290
25569W        W68663  27.609  22.324  30.501  0.0127  0.1612 -0.3425
25570W        W68664  26.703  24.708  27.316 -0.0213  0.3374  0.2056
25571W        W68665  27.554  21.914  30.857  0.0843 -0.0189  0.1460
25572W        W68666  27.014  24.511  29.667  0.1164 -0.4465 -0.1308
25573W        W68667  28.971  26.171  28.765 -0.0967  0.2363 -0.0932
25574W        W68668  27.656  24.314  31.472 -0.2059  0.2519  0.0209
25575W        W68669  27.818  21.673   0.110  0.3076  0.1684 -0.0893
25576W        W68670  24.926  26.275  28.613  0.0052 -0.0750 -0.0901
25577W        W68671  25.208  23.862  26.985  0.1419 -0.2842 -0.0787
25578W        W68672  25.422  23.048  30.383 -0.1539 -0.0128 -0.0272
25579W        W68673  25.043  24.127  29.670 -0.1895  0.0984 -0.1874
25580W        W68674  28.199  22.645  29.608 -0.0077  0.1538  0.1656
25581W        W68675  29.021  22.984  29.550  0.0895 -0.0243  0.0059
25582W        W68676  27.444  25.596  30.744 -0.0451  0.0285 -0.3821
25583W        W68677  28.179  25.273  29.919  0.2357 -0.0975 -0.1144
25584W        W68678  30.250  23.510  31.964 -0.3715 -0.0155  0.0086
25585W        W68679  25.594  25.132  28.946  0.1589  0.0137 -0.1525
25586W        W68680  26.153  27.160  29.132  0.0696  0.2288 -0.0749
25587W        W68681  27.720  25.375  29.957  0.3657 -0.0141  0.0345
25588W        W68682  29.994  24.865  29.138 -0.1134 -0.0519 -0.2693
25589W        W68683  28.461  25.052  31.768 -0.0962 -0.0615  0.2242
25590W        W68684  27.681  26.442  30.608 -0.3079 -0.1351 -0.0368
25591W        W68685  25.596  25.210  28.064 -0.2117  0.1472 -0.1466
25592W        W68686  28.357  25.600   1.055 -0.3350  0.0441 -0.0243
25593W        W68687  28.264  25.761  30.653  0.0577  0.1243  0.1631
25594W        W68688  26.237  24.906  29.348  0.0285 -0.0359 -0.0632
25595W        W68689  27.013  25.010  28.483  0.1384  0.0237  0.1305
25596W        W68690  26.495  25.802  28.881  0.4180 -0.2637 -0.1699
25597W        W68691  26.561  24.371  29.920  0.0709  0.4546 -0.0853
25598W        W68692  26.620  23.991  31.616  0.0058  0.0482 -0.2883
25599W        W68693  26.120  25.394  29.568 -0.1482 -0.0902 -0.3409
25600W        W68694  28.281  22.425  31.727  0.1233  0.4619 -0.0806
25601W        W68695  26.248  24.705  27.521 -0.0550 -0.2314 -0.1958
25602W        W68696  27.860  24.123  27.726 -0.1520  0.0322 -0.0242
25603W        W68697  27.738  23.487  26.862  0.1272 -0.0150 -0.0032
25604W        W68698  27.048  24.472  29.170 -0.4226  0.1325  0.1732
25605W        W68699  28.019  21.476  30.099 -0.1210  0.0631 -0.0078
25606W        W68700  26.525  26.123  29.816  0.1741  0.0181  0.0274
25607W        W68701  25.756  23.202  30.851 -0.1595 -0.1806  0.0605
25608W        W68702  28.908  24.009  31.424  0.0448  0.0654  0.2189
25609W        W68703  27.418  24.714  29.468 -0.0776  0.0753 -0.2554
25610W        W68704  27.349  24.636  31.005 -0.3934  0.0311  0.0909
25611W        W68705  25.818  24.738  31.452 -0.1273 -0.1215  0.3485
25612W        W68706  24.327  24.484  27.470  0.1153  0.2372 -0.0383
25613W        W68707  29.357  25.853  27.467 -0.0719 -0.1920 -0.1021
25614W        W68708  30.256  25.576  29.099 -0.5548 -0.3819 -0.1175
25615W        W68709  28.941  24.926  27.623  0.2540 -0.2603  0.3303
25616W        W68710  25.742  23.719  28.584  0.0351 -0.0664 -0.3064
25617W        W68711  26.981  24.390  30.217 -0.3181 -0.0870 -0.1419
25618W        W68712  24.805  21.890  29.567  0.1254  0.1000  0.0421
25619W        W68713  26.120  21.082  29.136  0.1924 -0.0886 -0.0244
25620W        W68714  29.000  23.745  30.940  0.1379 -0.2894 -0.2044
25621W        W68715  25.501  25.179  31.340 -0.4380 -0.0022 -0.1579
25622W        W68716  27.506  23.024  29.947 -0.0471 -0.1270  0.0999
25623W        W68717  26.624  25.118  30.314 -0.1991 -0.0582  0.1525
25624W        W68718  29.686  23.406  31.001 -0.3281  0.1129  0.1803
25625W        W68719  27.478  25.183  28.307 -0.0399  0.0349  0.1238
25626W        W68720  27.470  21.284  30.189 -0.1224 -0.3149  0.0156
25627W        W68721  27.463  24.473  29.888  0.4228  0.0775 -0.1228
25628W        W68722  27.079  25.576  28.343  0.3515  0.0994  0.2652
25629W        W68723  25.766  25.748  29.431 -0.0455 -0.2027 -0.2247
25630W        W68724  29.526  23.994  30.971 -0.4233 -0.2698  0.3829
25631W        W68725  27.895  23.640  28.793  0.0263  0.3059  0.2521
25632W        W68726  24.795  25.353  30.433 -0.0353  0.0573 -0.0901
25633W        W68727  27.829  23.441  31.954  0.1255  0.1882 -0.1935
25634W        W68728  26.950  25.970  30.782 -0.0270 -0.2696 -0.1166
25635W        W68729  27.323  25.025  27.498  0.0083 -0.1481 -0.1521
25636W        W68730  24.951  23.876  30.261 -0.1514 -0.0502  0.1819
25637W        W68731  26.013  24.131  28.135 -0.4568  0.3120  0.0853
25638W        W68732  25.751  22.746  30.191 -0.0534 -0.0497  0.1779
25639W        W68733  26.770  23.966  30.773 -0.3069 -0.0300 -0.0658
25640W        W68734  29.647  22.071  30.592  0.0112 -0.4465  0.0256
25641W        W68735  26.008  22.272  30.781  0.1898  0.1581 -0.2870
25642W        W68736  28.630  21.807  29.233 -0.2769 -0.1469  0.0489
25643W        W68737  25.229  26.111  29.504 -0.6225  0.0920  0.1861
25644W        W68738  29.120  26.958  29.433 -0.2434  0.2035  0.1392
25645W        W68739  28.875  23.386  29.086  0.4457 -0.1356 -0.1188
25646W        W68740  28.544  24.830  28.124  0.1676  0.1477  0.0586
25647W        W68741  25.097  23.284  29.420 -0.1165 -0.0616  0.2060
25648W        W68742  25.418  22.985  29.231  0.3537 -0.1976  0.2941
25649W        W68743  26.976  23.176   0.914  0.2685 -0.0540 -0.1000
25650W        W68744  26.716  21.839  28.651  0.1457  0.3402 -0.3227
25651W        W68745  27.902  23.804  30.440  0.2150 -0.2904 -0.1487
25652W        W68746  25.554  22.761  28.365  0.0255 -0.0332 -0.0322
25653W        W68747  26.673  23.578  28.534  0.3660  0.0900  0.0427
25654W        W68748  26.093  22.718  28.480  0.0933 -0.0043 -0.0326
25655W        W68749  24.691  24.539  28.878  0.1075  0.0508  0.2108
25656W        W68750  28.558  23.291  31.818 -0.1109 -0.0425  0.0630
25657W        W68751  28.948  25.169  29.508 -0.3914 -0.1496  0.2678
25658W        W68752  29.395  25.020  31.137 -0.0207 -0.1820 -0.2224
25659W        W68753  27.878  25.262  31.588  0.1975 -0.3047 -0.2111
25660W        W68754  26.676  23.579  31.032  0.2059  0.0288 -0.0506
25661W        W68755  24.936  23.002  29.031  0.2620 -0.0822 -0.0054
25662W        W68756  25.841  26.770  29.565 -0.0059 -0.0346  0.1462
25663W        W68757  27.470  25.108  30.831 -0.3033  0.0014  0.0319
25664W        W68758  25.675  22.924  27.903  0.2144 -0.5172  0.4371
25665W        W68759  29.324  25.844  29.027 -0.1317 -0.2276 -0.4561
25666W        W68760  26.762  25.385  28.733 -0.1780 -0.0161 -0.5832
25667W        W68761  25.646  25.470  28.528  0.2864  0.0214  0.0521
25668W        W68762  28.304  23.583  31.080  0.1112 -0.1288 -0.1115
25669W        W68763  29.244  24.725  30.755  0.3192 -0.2658  0.2583
25670W        W68764  26.979  23.230  31.274  0.0799  0.0203 -0.2314
25671W        W68765  25.729  24.129  29.434 -0.1634  0.3947 -0.0757
25672W        W68766  29.139  25.326  29.983  0.2604  0.1029 -0.1690
25673W        W68767  25.731  25.159  27.575 -0.1630  0.3006  0.0571
25674W        W68768  25.602  24.774  30.242 -0.1006 -0.1517 -0.2035
25675W        W68769  26.855  25.624  27.848  0.1979 -0.1699 -0.1923
25676W        W68770  27.893  22.655  29.996  0.0519  0.2012  0.1894
25677W        W68771  24.743  24.714  31.279 -0.1637 -0.1969  0.1985
25678W        W68772  28.544  23.015  30.451  0.0398 -0.0850  0.1316
25679W        W68773  25.657  22.936  29.678  0.2845 -0.2034  0.1260
25680W        W68774  25.731  23.982  31.007  0.1071 -0.0635 -0.3277
25681W        W68775  27.494  22.334  28.609 -0.0863 -0.0825  0.4576
25682W        W68776  28.218  22.204  26.796  0.4238 -0.4876  0.3908
25683W        W68777  27.833  24.851  30.627  0.1632  0.1009  0.2700
25684W        W68778  30.079  24.725  29.596  0.0531 -0.1120  0.0358
25685W        W68779  27.553  23.155  28.603 -0.1347  0.2527  0.2707
25686W        W68780  29.501  22.453  27.409  0.0699  0.0127  0.0949
25687W        W68781  25.836  23.553  31.940 -0.0768  0.1077  0.0096
25688W        W68782  28.176  24.903  30.266 -0.1889 -0.0918  0.1920
25689W        W68783  27.971  24.463  29.955  0.5939  0.3422 -0.2205
25690W        W68784  26.793  22.869  28.186  0.1539  0.2903  0.1810
25691W        W68785  29.018  24.270  28.868  0.3347  0.0831  0.0241
25692W        W68786  25.254  23.810  29.302 -0.0656 -0.2092 -0.1149
25693W        W68787  28.291  24.830  30.844 -0.1154 -0.3027  0.1267
25694W        W68788  27.779  23.980  29.171  0.3595 -0.0303 -0.0702
25695W        W68789  25.557  23.402  29.526 -0.1085 -0.3718  0.3057
25696W        W68790  26.281  23.747  28.812  0.2382  0.1121 -0.1454
25697W        W68791  27.394  23.258  29.468  0.1234  0.0152  0.0296
25698W        W68792  26.510  25.730  28.363  0.2011  0.0455 -0.2022
25699W        W68793  29.218  22.351  30.005  0.0259  0.0784  0.0054
25700W        W68794  28.556  22.800  30.953  0.1687  0.0836 -0.1709
25701W        W68795  28.337  21.456   0.239 -0.0204 -0.2870  0.1737
25702W        W68796  28.689  23.254  30.833  0.2317  0.1021  0.0173
25703W        W68797  28.732  23.038  28.539 -0.2347 -0.1109  0.1697
25704W        W68798  27.771  22.784  30.539 -0.0492 -0.2071 -0.0988
25705W        W68799  25.394  23.449  28.981  0.1480 -0.1616 -0.2306
25706W        W68800  28.790  23.055  30.043 -0.1346 -0.1458 -0.1746
25707W        W68801  26.210  24.494  29.057  0.2397  0.0001  0.0316
25708W        W68802  25.873  26.497  30.046 -0.2141 -0.1182 -0.1351
25709W        W68803  29.327  25.392  30.695  0.1210 -0.2786 -0.0703
25710W        W68804  27.817  24.428  29.497  0.1379  0.5026  0.3104
25711W        W68805  27.095  24.009  29.878  0.0860  0.2566  0.2774
25712W        W68806  28.311  23.291  29.252 -0.1028 -0.0879 -0.2105
25713W        W68807  25.981  26.011  29.012  0.0411 -0.0164  0.0709
25714W        W68808  27.297  25.393  28.760 -0.1272  0.2509 -0.1729
25715W        W68809  26.593  22.350  30.335  0.2341 -0.2271  0.4965
25716W        W68810  26.269  24.106  30.811  0.2978  0.1378  0.0497
25717W        W68811  25.748  26.598  26.858 -0.1265 -0.0355  0.0369
25718W        W68812  27.015  24.021  28.419 -0.1513 -0.0204 -0.0262
25719W        W68813  24.863  25.959  29.826  0.1930 -0.0726 -0.4213
25720W        W68814  27.572  22.294  29.127  0.0608 -0.0705  0.2677
25721W        W68815  26.025  26.008  29.819  0.0265  0.0333  0.1023
25722W        W68816  24.983  24.033  28.063 -0.1456  0.0275 -0.1760
25723W        W68817  24.778  23.051  28.510 -0.2509 -0.2265  0.1737
25724W        W68818  29.204  23.003  29.082  0.2784 -0.1274  0.2770
25725W        W68819  28.191  24.680  28.672 -0.3744 -0.2647  0.0964
25726W        W68820  25.882  21.487  31.470  0.0743  0.0738  0.0489
25727W        W68821  27.454  23.720  29.711 -0.0956 -0.3682  0.0553
25728W        W68822  25.778  26.254  29.453 -0.1373 -0.1089  0.0424
25729W        W68823  28.213  22.601  30.653  0.1669 -0.1299 -0.0570
25730W        W68824  26.521  22.495  28.004  0.0127  0.1535 -0.1890
25731W        W68825  30.007  24.870  30.260  0.2018  0.1061  0.1913
25732W        W68826  27.126  24.173  31.081  0.0997  0.3518  0.3011
25733W        W68827  25.861  23.229  29.189 -0.0072 -0.2877 -0.1455
25734W        W68828  29.890  23.653  30.640 -0.0293  0.1166 -0.2666
25735W        W68829  26.929  23.659  28.097  0.3232 -0.2481  0.3298
25736W        W68830  27.262  25.968  28.039 -0.1333  0.0223 -0.2835
25737W        W68831  27.179  23.228  29.002  0.0270  0.0867  0.1819
25738W        W68832  27.277  24.927  28.984  0.2453 -0.2200  0.2346
25739W        W68833  26.334  25.859  29.403  0.1254  0.1138  0.0430
25740W        W68834  26.694  22.985   0.083  0.0189 -0.1455 -0.0038
25741W        W68835  27.317  25.275  30.334  0.0140 -0.0693  0.1287
25742W        W68836  27.315  24.161  30.516  0.6674  0.1134 -0.3322
25743W        W68837  26.660  21.328  28.849  0.0763  0.0656  0.1426
25744W        W68838  25.571  24.215  28.458 -0.2448  0.0064  0.1042
25745W        W68839  29.071  23.020  30.469 -0.1021  0.4214  0.2335
25746W        W68840  27.621  23.222  30.525  0.0596  0.0409 -0.2010
25747W        W68841  26.677  24.571  31.640  0.1397  0.0850  0.1027
25748W        W68842  27.625  21.213  29.734 -0.1656 -0.0402  0.0548
25749W        W68843  28.892  25.148  28.512  0.1559 -0.2837  0.1376
25750W        W68844  30.318  23.151  31.001 -0.3095 -0.2071  0.4311
25751W        W68845  26.358  24.563  28.501 -0.0090  0.2254 -0.1571
25752W        W68846  25.291  24.524  28.721  0.1536 -0.0094 -0.0639
25753W        W68847  25.991  25.168  28.383  0.2677 -0.0513 -0.0058
25754W        W68848  27.158  23.623  28.677  0.1693 -0.0635  0.3353
25755W        W68849  25.058  24.971  28.856 -0.1827  0.1001  0.0473
25756W        W68850  26.588  24.523  29.375 -0.2873 -0.1112  0.2691
25757W        W68851  24.539  25.268  29.596  0.4987 -0.0646 -0.1939
25758W        W68852  29.588  21.149  28.146 -0.0631 -0.0140  0.0330
25759W        W68853  28.121  25.282  27.318  0.1913  0.1384 -0.0688
25760W        W68854  27.841  24.804  29.155 -0.1267  0.1565 -0.0959
25761W        W68855  29.384  22.458  30.504  0.0700  0.0271  0.1359
25762W        W68856  27.504  24.263  28.385  0.0684 -0.0268 -0.0710
25763W        W68857  25.482  21.768  31.762 -0.0294 -0.0623 -0.2851
25764W        W68858  28.140  23.127  30.726 -0.3056  0.1514 -0.0782
25765W        W68859  28.402  24.788  29.138 -0.0456  0.1836 -0.1842
25766W        W68860  24.219  21.929  29.657 -0.1030 -0.2483 -0.0201
25767W        W68861  28.352  25.472  31.537 -0.0190 -0.0468  0.1126
25768W        W68862  25.650  24.906  30.834 -0.2015 -0.1500  0.3401
25769W        W68863  27.926  22.941  28.274  0.1023 -0.0547 -0.3741
25770W        W68864  25.989  22.479  29.788  0.3467 -0.1362 -0.1870
25771W        W68865  27.806  24.285  30.409 -0.2596  0.1151 -0.0505
25772W        W68866  29.210  23.294  30.975  0.0910 -0.0744 -0.0274
25773W        W68867  27.661  24.780  28.564  0.2757 -0.1192 -0.1773
25774W        W68868  26.472  24.049  28.387  0.1125  0.0107  0.5109
25775W        W68869  26.965  24.470  30.728  0.0984  0.0106  0.3195
25776W        W68870  28.221  23.534  30.044 -0.0660 -0.0306 -0.4407
25777W        W68871  26.215  23.356  27.709 -0.0460  0.4016  0.0304
25778W        W68872  25.261  24.832  29.403 -0.1551  0.1342 -0.1248
25779W        W68873  27.859  23.563  30.854  0.0721  0.0199 -0.0542
25780W        W68874  27.892  23.624  29.509  0.0434 -0.1305  0.0985
25781W        W68875  27.777  23.175  29.116  0.0006 -0.1752 -0.4412
25782W        W68876  29.012  23.493  30.441 -0.0391  0.2456 -0.1100
25783W        W68877  27.830  21.882  30.357  0.3922  0.0113  0.2408
25784W        W68878  25.267  22.570  30.199 -0.0739  0.0663  0.1308
25785W        W68879  25.148  22.684  30.638  0.1472  0.1395  0.4505
25786W        W68880  29.929  24.920  31.183  0.1417  0.3125 -0.1529
25787W        W68881  27.463  23.689  28.165 -0.2305 -0.4672 -0.0106
25788W        W68882  28.688  22.584  29.794 -0.1167  0.0188 -0.1538
25789W        W68883  29.473  23.146  29.589  0.0579 -0.1945 -0.1615
25790W        W68884  27.387  24.169  29.453 -0.1395  0.1168 -0.0478
25791W        W68885  26.071  22.296  30.305 -0.0873 -0.0546  0.2672
25792W        W68886  27.742  24.376   0.546 -0.3038  0.0440  0.0542
25793W        W68887  25.794  23.193  28.471  0.2139  0.1411 -0.0988
25794W        W68888  28.342  21.861  31.937  0.0135  0.1340 -0.0701
25795W        W68889  28.014  23.999  29.836  0.0142 -0.0320 -0.0763
25796W        W68890  29.661  23.901  29.721 -0.1584 -0.2935  0.1476
25797W        W68891  27.669  22.814  29.477  0.1792 -0.1831 -0.2665
25798W        W68892  26.391  22.562  29.516  0.1878 -0.0138 -0.0470
25799W        W68893  24.697  24.653  30.310 -0.1203  0.1244 -0.2878
25800W        W68894  25.447  23.398  26.934  0.0785 -0.2064 -0.0640
25801W        W68895  26.627  24.151  28.802 -0.2302 -0.2982  0.3101
25802W        W68896  27.239  24.604  31.503 -0.0678 -0.2980  0.4251
25803W        W68897  28.425  24.384   0.801 -0.1408  0.2890  0.1678
25804W        W68898  27.038  22.240  28.874 -0.1875 -0.2386  0.2842
25805W        W68899  29.076  22.699  30.827 -0.1021 -0.0437 -0.0125
25806W        W68900  25.589  25.731  28.964 -0.3368  0.1096  0.1745
25807W        W68901  28.070  22.829  29.183  0.0174 -0.1298 -0.0893
25808W        W68902  26.484  25.665  29.807  0.2313 -0.0248  0.1318
25809W        W68903  26.197  24.010  29.813 -0.0440 -0.1139 -0.1471
25810W        W68904  26.735  24.667  28.876  0.1646 -0.0262 -0.1683
25811W        W68905  26.881  21.784  29.115 -0.0587 -0.0013 -0.1320
25812W        W68906  28.504  23.032  29.606  0.0004 -0.1251  0.0391
25813W        W68907  26.937  24.933  29.398  0.1205  0.2093  0.0297
25814W        W68908  30.361  23.654  30.854 -0.2416 -0.2602 -0.0478
25815W        W68909  26.380  24.678  30.884 -0.1548 -0.1640 -0.2186
25816W        W68910  27.040  23.427  29.930  0.0326  0.0156  0.0436
25817W        W68911  29.028  23.865  29.850  0.0989  0.4708  0.1277
25818W        W68912  29.174  23.774  28.993  0.3827  0.0611  0.0392
25819W        W68913  27.677  26.175  30.154 -0.0029  0.2164 -0.2479
25820W        W68914  24.871  22.973  30.300 -0.1647 -0.3421  0.2088
25821W        W68915  26.891  23.749   0.012  0.1669 -0.2244 -0.2548
25822W        W68916  29.441  23.625  30.591 -0.0829 -0.3254  0.0799
25823W        W68917  26.373  22.695  30.002 -0.0875 -0.0943 -0.0687
25824W        W68918  29.075  24.808  28.187 -0.0159  0.1417 -0.4102
25825W        W68919  28.532  24.465  29.996 -0.1193  0.0102  0.2317
25826W        W68920  25.187  22.091  29.394  0.0951  0.1507 -0.0671
25827W        W68921  27.072  26.447  28.932  0.1112  0.0086 -0.2098
25828W        W68922  26.371  24.404  26.493  0.0048 -0.1578  0.1147
25829W        W68923  27.241  25.336  29.236  0.0816  0.0253  0.0322
25830W        W68924  28.887  25.392  30.542  0.2150  0.0031  0.1055
25831W        W68925  26.620  22.498  28.704 -0.0083 -0.0197 -0.1731
25832W        W68926  26.265  23.923  29.291  0.0748  0.2734 -0.1223
25833W        W68927  24.301  27.023  28.720  0.0609 -0.3726 -0.1066
25834W        W68928  28.752  25.145  29.035  0.0663 -0.1102 -0.2214
25835W        W68929  26.156  26.050  28.143  0.0878  0.1495 -0.0308
25836W        W68930  29.384  23.881  30.193 -0.0310 -0.2063  0.2120
25837W        W68931  28.777  21.240  28.210  0.3745  0.0649 -0.1684
25838W        W68932  27.447  23.627  29.134 -0.0653  0.3923 -0.0104
25839W        W68933  28.283  23.788  28.542 -0.5871 -0.0345  0.0040
25840W        W68934  26.881  24.822  29.991 -0.0008 -0.1131  0.0592
25841W        W68935  26.378  22.894  29.089 -0.1248  0.0782  0.0519
25842W        W68936  28.016  22.410  28.425 -0.0184  0.1948 -0.0183
25843W        W68937  26.131  23.071  29.550 -0.3910 -0.0330  0.3691
25844W        W68938  28.567  21.402  31.728 -0.0048 -0.1304 -0.1272
25845W        W68939  23.879  24.504  30.937  0.0445  0.2398 -0.0075
25846W        W68940  29.250  24.791  28.743 -0.1694 -0.3564  0.0891
25847W        W68941  26.106  22.121  29.379 -0.1275 -0.1544  0.1865
25848W        W68942  26.759  24.070  29.513 -0.0981  0.0115  0.2656
25849W        W68943  28.947  22.175  29.623 -0.4231  0.0646 -0.1144
25850W        W68944  25.875  23.841  27.697  0.0314  0.0903 -0.1412
25851W        W68945  28.352  22.733  30.077 -0.0977 -0.0201  0.4912
25852W        W68946  28.012  24.872  29.612  0.1106 -0.1119 -0.2458
25853W        W68947  26.147  24.572  30.079 -0.0008  0.2120  0.0906
25854W        W68948  27.039  25.550  31.028  0.0795 -0.0244  0.2188
25855W        W68949  24.199  22.428  28.383 -0.3764  0.1469  0.4583
25856W        W68950  29.290  24.108  29.371  0.4400 -0.0870  0.0994
25857W        W68951  27.069  23.161  30.489  0.0812 -0.0963  0.0095
25858W        W68952  28.921  20.958  29.665 -0.1417 -0.0507 -0.1900
25859W        W68953  26.858  22.712  29.119  0.0649  0.1756  0.0267
25860W        W68954  28.276  23.025  27.743 -0.1275 -0.0061 -0.1397
25861W        W68955  26.599  23.679  29.963  0.2416 -0.0656 -0.0350
25862W        W68956  24.784  22.851  29.638 -0.3490 -0.0934  0.0409
25863W        W68957  28.490  23.414  28.777  0.3499  0.1222 -0.2519
25864W        W68958  29.463  24.207  31.626 -0.1917  0.1321 -0.1193
25865W        W68959  27.334  24.169  27.898 -0.0849 -0.1384  0.2314
25866W        W68960  28.674  24.773   0.954  0.2117  0.1110  0.3182
25867W        W68961  26.744  21.928  28.098  0.1769  0.0712  0.1283
25868W        W68962  28.975  22.053  28.261  0.2920  0.1313  0.0452
25869W        W68963  26.818  24.114  27.917  0.2622 -0.0870  0.1840
25870W        W68964  27.174  23.673  30.368  0.0817 -0.1680  0.1006
25871W        W68965  29.199  24.158  30.626  0.1905 -0.0415  0.0170
25872W        W68966  26.063  21.584  29.576  0.1625  0.2909 -0.0922
25873W        W68967  28.889  24.761  29.214 -0.0291  0.1511  0.0335
25874W        W68968  28.827  23.859  29.281  0.0595  0.0767  0.2249
25875W        W68969  26.897  25.643  27.319 -0.2108  0.3280 -0.3889
25876W        W68970  29.603  23.368  29.156 -0.5070 -0.0834  0.6619
25877W        W68971  29.830  24.429  30.000 -0.1633  0.0916  0.0620
25878W        W68972  25.005  22.158  30.558 -0.0602  0.0769 -0.0575
25879W        W68973  28.133  24.511  31.251 -0.3199  0.0920 -0.0220
25880W        W68974  28.459  23.892  29.698 -0.0214  0.1443  0.2792
25881W        W68975  27.114  22.803  28.624 -0.1181  0.2217 -0.0367
25882W        W68976  26.860  23.082  29.398 -0.0262 -0.2853 -0.1954
25883W        W68977  26.412  24.847  29.811  0.3295  0.0581  0.0796
25884W        W68978  27.732  23.459  30.109 -0.1676 -0.0888 -0.1784
25885W        W68979  28.418  21.728  29.640 -0.2128 -0.1294  0.1201
25886W        W68980  26.312  24.850  26.724  0.0163  0.0171  0.1491
25887W        W68981  29.560  23.102  30.378 -0.0806 -0.0268 -0.1045
25888W        W68982  28.699  23.681  30.165  0.2108  0.1738  0.0622
25889W        W68983  27.122  25.949  31.305  0.0366  0.2466  0.0712
25890W        W68984  25.764  24.594  28.843  0.2674  0.0785  0.1070
25891W        W68985  25.342  23.959  31.455  0.1264 -0.1996 -0.4850
25892W        W68986  27.977  25.977  28.728 -0.1044  0.1722  0.2031
25893W        W68987  28.417  25.339  28.050 -0.0204 -0.0476  0.1059
25894W        W68988  28.659  24.842  30.471  0.1564  0.1738 -0.0967
25895W        W68989  27.347  24.678  30.408  0.0812 -0.0711  0.0729
25896W        W68990  29.504  24.539  30.376  0.1072  0.1177 -0.0082
25897W        W68991  27.904  21.987  29.901  0.1294  0.0799  0.3568
25898W        W68992  29.166  22.036  29.091 -0.2691  0.1670  0.1511
25899W        W68993  27.454  22.203  30.045  0.0272  0.1611  0.0302
25900W        W68994  26.510  24.446  30.432  0.3073 -0.2446  0.1279
25901W        W68995  25.986  24.253  27.422  0.0825  0.2643 -0.1715
25902W        W68996  27.430  23.747  27.657 -0.1223 -0.1226 -0.1466
25903W        W68997  26.206  25.311  30.061 -0.0180 -0.1469 -0.0462
25904W        W68998  26.318  21.516  31.840 -0.0159  0.2231 -0.2090
25905W        W68999  26.677  23.160  30.789  0.1286 -0.0539 -0.2249
25906W        W69000  26.027  23.547  29.674  0.0506  0.0940 -0.0775
25907W        W69001  24.795  23.812  29.431  0.1592 -0.2104 -0.1064
25908W        W69002  28.381  24.307  28.126  0.2343 -0.0349 -0.1625
25909W        W69003  27.035  21.816  30.774 -0.1305  0.1825  0.2133
25910W        W69004  25.826  23.803  29.100  0.0539 -0.1108 -0.2317
25911W        W69005  28.341  24.410  29.492 -0.0714  0.1723  0.0610
25912W        W69006  29.087  24.693  29.815  0.0763 -0.0058  0.3222
25913W        W69007  26.257  23.230  28.719  0.1526 -0.1155  0.1413
25914W        W69008  29.709  26.055  31.084  0.1027  0.0160  0.3841
25915W        W69009  26.503  25.120  28.471 -0.1697 -0.0871  0.1876
25916W        W69010  27.292  22.776  31.356  0.1207 -0.3954  0.1461
25917W        W69011  27.611  24.148  30.959  0.0926  0.0025  0.0886
25918W        W69012  24.407  23.397  28.534  0.0219  0.0004 -0.1588
25919W        W69013  25.267  23.183  28.539 -0.2889 -0.1227 -0.0232
25920W        W69014  28.348  25.149  28.703  0.3614 -0.0263 -0.2465
25921W        W69015  29.362  25.177  28.264  0.1759  0.2007 -0.0357
25922W        W69016  26.669  23.374  30.340 -0.2998 -0.1889 -0.1299
25923W        W69017  27.568  25.558  31.250  0.0553 -0.1520 -0.1260
25924W        W69018  24.894  21.922  29.028 -0.1762 -0.0673  0.2471
25925W        W69019  27.570  24.436  28.955 -0.2672 -0.1566  0.0383
25926W        W69020  28.083  24.165  30.843 -0.2627 -0.3667 -0.1667
25927W        W69021  28.476  24.252  28.670 -0.1791 -0.1030  0.2865
25928W        W69022  30.062  23.206  30.537  0.0537 -0.0218 -0.0026
25929W        W69023  26.550  24.202  27.433  0.1285  0.1199  0.0539
25930W        W69024  26.801  22.035  31.718 -0.1626  0.0245 -0.0686
25931W        W69025  26.687  22.800  31.462 -0.2669 -0.0806  0.1627
25932W        W69026  29.802  24.058  30.374  0.0863  0.1493 -0.0615
25933W        W69027  26.936  22.302  28.386  0.1032 -0.0040 -0.2102
25934W        W69028  28.403  22.728  28.162  0.0090 -0.1133 -0.0344
25935W        W69029  28.239  23.739  27.911  0.1753 -0.2714  0.0485
25936W        W69030  26.734  22.791  30.388 -0.1152 -0.1558  0.2869
25937W        W69031  27.425  22.745  29.055  0.0530  0.1821  0.2383
25938W        W69032  25.496  24.651  29.784 -0.2538 -0.2314  0.0140
25939W        W69033  26.661  25.246  29.642 -0.0733 -0.1205 -0.3142
25940W        W69034  28.778  23.135   0.256  0.4778  0.3343 -0.2064
25941W        W69035  26.710  23.551  29.032  0.2416  0.0150  0.0375
25942W        W69036  29.223  24.426  28.444 -0.0309 -0.1103 -0.1128
25943W        W69037  27.917  25.356  30.443 -0.1541  0.2174 -0.1559
25944W        W69038  28.242  25.072   0.872 -0.0880 -0.2066 -0.2555
25945W        W69039  26.769  25.628  29.325 -0.5831 -0.0918 -0.3003
25946W        W69040  29.967  24.116  31.194 -0.2653 -0.0299 -0.0547
25947W        W69041  25.547  22.169  29.812  0.1954  0.2046  0.1075
25948W        W69042  25.875  25.606  28.025  0.0281 -0.0276 -0.0210
25949W        W69043  26.562  25.217  29.120  0.2044 -0.0251 -0.1919
25950W        W69044  28.369  23.532  30.534  0.0531  0.0884  0.1139
25951W        W69045  26.990  22.415  29.953  0.0730 -0.2027  0.2020
25952W        W69046  28.078  21.933  28.132  0.1706  0.3132  0.1273
25953W        W69047  26.490  26.497  29.476  0.3507  0.0487 -0.1973
25954W        W69048  28.248  24.465  30.495  0.0127  0.0284 -0.0771
25955W        W69049  28.028  22.775  31.106 -0.0718  0.1979  0.3600
25956W        W69050  28.623  23.577   0.421 -0.0653 -0.0634  0.0993
25957W        W69051  27.321  22.721  30.369 -0.0391  0.2766 -0.1206
25958W        W69052  25.746  24.209  31.495  0.2853  0.0218 -0.0730
25959W        W69053  26.117  24.408  29.532 -0.0248  0.3738 -0.0454
25960W        W69054  26.157  24.784  31.901  0.3964  0.0712 -0.0675
25961W        W69055  27.725  24.912  31.214 -0.2232 -0.1412  0.0322
25962W        W69056  26.080  23.253  30.456  0.0275  0.0785  0.0269
25963W        W69057  27.316  24.384   0.854 -0.0043 -0.0247 -0.1238
25964W        W69058  28.685  25.074  29.988 -0.0349 -0.1213  0.0646
25965W        W69059  26.894  23.378   0.447  0.2143 -0.0393  0.3892
25966W        W69060  27.370  21.741  30.362 -0.1746 -0.3509 -0.2495
25967W        W69061  28.238  23.746   0.143 -0.2523  0.0538  0.0301
25968W        W69062  27.120  24.130  31.591 -0.2244 -0.2337  0.0281
25969W        W69063  27.708  23.907   0.314 -0.0352  0.0509  0.0330
25970W        W69064  25.699  26.150  31.467  0.2367 -0.1979 -0.0637
25971W        W69065  25.231  26.441   0.186  0.1374 -0.1074  0.1354
25972W        W69066  28.639  24.283   0.279 -0.0907 -0.0969 -0.2182
25973W        W69067  25.561  20.910   0.924  0.0516  0.1983  0.0639
25974W        W69068  25.447  23.912   0.092  0.0343  0.0308 -0.0071
25975W        W69069  26.199  22.747  31.553 -0.1501 -0.0644 -0.2108
25976W        W69070  24.714  25.604  31.396  0.1310  0.3661 -0.0795
25977W        W69071  28.097  23.123  30.243 -0.1518 -0.0206  0.0658
25978W        W69072  27.421  23.536   0.191  0.2336  0.0019  0.1123
25979W        W69073  26.995  20.850   0.289 -0.1106  0.1862 -0.1274
25980W        W69074  26.929  23.300  31.815  0.3411 -0.1679  0.0737
25981W        W69075  26.913  24.671  31.191  0.0185 -0.0197  0.1606
25982W        W69076  25.267  25.175  30.505  0.1784  0.1337 -0.2558
25983W        W69077  26.920  24.215   0.531 -0.0029 -0.3030 -0.1916
25984W        W69078  25.773  24.260  29.940 -0.4338 -0.0336 -0.0402
25985W        W69079  26.080  24.899  30.442 -0.2406  0.1730  0.1498
25986W        W69080  25.303  23.449  31.911  0.0599 -0.4203 -0.4626
25987W        W69081  28.802  24.349   1.201 -0.1559  0.3193 -0.2914
25988W        W69082  28.217  23.167   0.252  0.0269  0.2035  0.1269
25989W        W69083  27.635  24.465   1.376  0.0619 -0.1348  0.1116
25990W        W69084  25.921  23.489   1.213 -0.0597  0.3499  0.1327
25991W        W69085  26.605  24.842   0.067 -0.0850 -0.0432 -0.1256
25992W        W69086  27.187  23.543  30.890  0.3659  0.0217  0.1634
25993W        W69087  28.120  24.204   0.251  0.0460  0.0386  0.0199
25994W        W69088  26.788  25.997  30.259  0.0491 -0.1242 -0.1940
25995W        W69089  27.994  23.984  31.283 -0.0290 -0.1072 -0.2644
25996W        W69090  27.446  23.247  31.454 -0.1465  0.2450  0.0239
25997W        W69091  27.757  22.162  31.761  0.2739  0.1967 -0.2087
25998W        W69092  27.081  24.645   0.004 -0.0726  0.2964 -0.0706
25999W        W69093  27.117  21.915  31.336  0.1428 -0.1994  0.0754
26000W        W69094  27.464  24.982  31.749  0.1180  0.0247  0.1031
26001W        W69095  28.506  21.859  31.095 -0.2063  0.0714  0.1352
26002W        W69096  26.902  25.469  30.575  0.1049 -0.3394 -0.2252
26003W        W69097  28.380  24.586   0.002  0.0568  0.5740  0.0786
26004W        W69098  27.021  23.690  31.362 -0.0371 -0.0586  0.1414
26005W        W69099  27.776  24.761   1.014 -0.1796  0.0928 -0.0930
26006W        W69100  28.473  24.117  31.234  0.0449  0.0713 -0.0538
26007W        W69101  27.408  21.770  31.744 -0.4704 -0.0434 -0.2795
26008W        W69102  28.162  24.275  31.690  0.1866 -0.0544  0.3507
26009W        W69103  27.719  24.493  31.975 -0.0269 -0.0175  0.3563
26010W        W69104  27.494  23.087  30.968  0.0890  0.0083 -0.0020
26011W        W69105  27.259  25.126  31.287 -0.0553 -0.0230  0.2735
26012W        W69106  25.944  25.230  31.677  0.0142  0.0231  0.1064
26013W        W69107  27.103  25.503  31.511 -0.1600 -0.0766  0.0985
26014W        W69108  26.111  24.103  30.294  0.2454  0.3384 -0.1616
26015W        W69109  26.565  24.284  31.212 -0.0297  0.0613 -0.0261
26016W        W69110  26.060  24.259   0.698 -0.1538  0.3457  0.0377
26017W        W69111  25.600  25.433  30.855  0.0323 -0.2535 -0.2290
26018W        W69112  25.069  22.652  31.179 -0.0730  0.3776  0.4487
26019W        W69113  28.529  24.805  29.634  0.0472 -0.2365  0.2026
26020W        W69114  28.832  25.181   0.153 -0.0503 -0.1868 -0.1188
26021W        W69115  29.573  22.878  30.889 -0.1182  0.0622  0.2346
26022W        W69116  26.820  27.698  17.860 -0.1403 -0.1955 -0.0437
26023W        W69117  28.012  27.227  16.940 -0.1414  0.1253  0.0067
26024W        W69118  27.659  25.614  16.753  0.1916  0.0071 -0.0675
26025W        W69119  28.296  26.543  18.247  0.1036  0.0582 -0.1245
26026W        W69120  26.649  25.921  17.895 -0.0765 -0.3952 -0.1504
26027W        W69121  27.626  30.135  17.027 -0.0208 -0.1243 -0.1602
26028W        W69122  25.961  26.497  18.869  0.0336 -0.0453 -0.0891
26029W        W69123  28.400  27.629  19.486 -0.0506  0.0653 -0.1976
26030W        W69124  29.939  28.363  19.565  0.2528 -0.1180  0.0689
26031W        W69125  26.737  27.969  16.049  0.1154  0.0493 -0.0072
26032W        W69126  27.543  28.963  18.540  0.1341  0.1796  0.1433
26033W        W69127  27.004  28.191  17.519  0.0560  0.4427  0.0835
26034W        W69128  26.636  25.569  16.760 -0.2918 -0.1513  0.2656
26035W        W69129  26.360  24.083  17.166 -0.2236 -0.1938 -0.1792
26036W        W69130  28.227  26.027  18.324 -0.0284 -0.2215  0.3608
26037W        W69131  25.991  26.366  15.606 -0.0508  0.3441  0.0240
26038W        W69132  24.943  26.084  17.594 -0.2229 -0.0839 -0.0946
26039W        W69133  28.315  26.403  16.972 -0.2769 -0.0238  0.2241
26040W        W69134  27.391  29.522  15.779  0.3262  0.5832  0.0246
26041W        W69135  25.850  26.218  17.991 -0.1035 -0.2395 -0.0837
26042W        W69136  26.691  26.462  19.386  0.1069 -0.2060  0.0023
26043W        W69137  28.460  28.862  16.079  0.1054  0.1147 -0.0361
26044W        W69138  25.405  26.651  16.339 -0.0644 -0.1078  0.2566
26045W        W69139  25.491  27.522  16.751 -0.2428 -0.1628  0.4295
26046W        W69140  26.421  28.078  19.846  0.0954  0.0102  0.1176
26047W        W69141  28.543  25.687  18.222  0.2265 -0.2996  0.6869
26048W        W69142  28.893  27.933  17.626 -0.1247  0.1152 -0.1317
26049W        W69143  28.214  28.180  16.940  0.1478  0.4327 -0.2719
26050W        W69144  28.404  28.747  17.007  0.0246  0.2248  0.3702
26051W        W69145  27.879  25.009  18.162 -0.0589 -0.1324 -0.0140
26052W        W69146  25.912  27.929  17.570 -0.0424 -0.2263 -0.1052
26053W        W69147  24.835  28.433  17.923 -0.2341  0.0288  0.0137
26054W        W69148  26.039  29.486  16.515  0.5055  0.1986  0.1236
26055W        W69149  28.925  26.833  17.818  0.3905  0.2166  0.2807
26056W        W69150  28.361  28.538  18.886  0.1660 -0.0410 -0.1232
26057W        W69151  26.499  30.234  18.777 -0.1017 -0.0054 -0.0551
26058W        W69152  25.680  28.977  15.978  0.1251  0.1339  0.2635
26059W        W69153  27.024  29.580  20.047 -0.2920  0.1507  0.0737
26060W        W69154  26.845  28.117  19.561  0.1964 -0.0433  0.0457
26061W        W69155  27.479  26.744  18.640  0.0182 -0.2380 -0.1906
26062W        W69156  26.616  28.843  17.424  0.0578  0.0466  0.0060
26063W        W69157  27.669  28.145  16.918  0.0772 -0.0962 -0.1741
26064W        W69158  27.433  27.989  18.025  0.0138 -0.3346 -0.1542
26065W        W69159  26.186  27.238  21.387 -0.2576 -0.1662  0.1703
26066W        W69160  26.783  29.109  16.940  0.1732 -0.1229 -0.0324
26067W        W69161  28.909  27.377  21.010 -0.0590  0.1217  0.0382
26068W        W69162  26.553  29.973  16.159  0.1067 -0.0057 -0.0925
26069W        W69163  28.585  27.396  17.226 -0.3076 -0.2329  0.2887
26070W        W69164  27.966  26.466  16.570 -0.1602  0.0404 -0.1732
26071W        W69165  28.801  26.305  16.923  0.2517 -0.3425  0.2057
26072W        W69166  26.353  26.634  17.396 -0.0491  0.0541  0.4260
26073W        W69167  27.001  28.471  18.544  0.2770  0.0555  0.3116
26074W        W69168  25.457  26.628  16.827  0.0218 -0.0042  0.1184
26075W        W69169  28.751  29.086  20.800  0.0784  0.1272  0.1967
26076W        W69170  25.986  26.710  16.491 -0.1582 -0.0000  0.1063
26077W        W69171  28.457  26.043  18.892  0.1877 -0.0882  0.0017
26078W        W69172  27.402  28.078  18.629 -0.2764 -0.1089  0.2804
26079W        W69173  25.400  27.807  17.315 -0.0149 -0.1267  0.2705
26080W        W69174  28.208  27.717  17.107 -0.0014  0.2232  0.0148
26081W        W69175  29.411  27.856  17.566  0.0523  0.3782  0.1197
26082W        W69176  27.404  28.036  16.516 -0.1873  0.2509  0.1413
26083W        W69177  27.765  26.726  16.914 -0.0896 -0.3388 -0.0785
26084W        W69178  25.875  27.917  18.994  0.0208 -0.2858  0.2319
26085W        W69179  25.229  25.697  19.131  0.0713 -0.0383  0.2102
26086W        W69180  27.810  25.078  16.095 -0.1603  0.2126 -0.0595
26087W        W69181  28.748  27.219  19.498  0.1082 -0.2456  0.0144
26088W        W69182  26.404  28.297  20.437 -0.3974 -0.0635 -0.0454
26089W        W69183  27.735  25.863  18.702  0.0270  0.2781 -0.0753
26090W        W69184  25.586  27.747  18.508 -0.0899 -0.2038 -0.1435
26091W        W69185  29.384  28.758  19.171  0.1384  0.0218  0.0427
26092W        W69186  28.752  27.623  16.815  0.1218 -0.1309 -0.1959
26093W        W69187  27.430  26.260  17.831  0.3344  0.1244 -0.0360
26094W        W69188  25.997  25.848  18.714  0.0241 -0.0437  0.0349
26095W        W69189  26.837  28.658  16.733 -0.0651 -0.2774  0.0394
26096W        W69190  28.012  28.322  17.947 -0.1350  0.1392  0.0599
26097W        W69191  29.319  27.483  18.493  0.0247  0.0178  0.0924
26098W        W69192  29.135  26.747  17.245  0.1144 -0.1576  0.0711
26099W        W69193  27.050  29.401  17.585 -0.0051  0.0453 -0.2688
26100W        W69194  26.905  25.439  19.494  0.2685  0.0133  0.0780
26101W        W69195  28.311  28.147  19.271 -0.1141 -0.2322  0.0380
26102W        W69196  25.426  30.512  15.815 -0.2691 -0.2530  0.1877
26103W        W69197  26.352  27.778  17.287 -0.1418 -0.3057 -0.0224
26104W        W69198  27.308  29.305  17.219 -0.1772 -0.4205  0.4328
26105W        W69199  26.062  26.188  17.447 -0.2123  0.2281 -0.2478
26106W        W69200  27.488  28.577  18.801 -0.0152 -0.2124  0.0629
26107W        W69201  29.420  27.325  16.326  0.2726  0.0866  0.2643
26108W        W69202  26.642  26.889  18.985  0.3278  0.1182 -0.0157
26109W        W69203  28.600  25.351  17.819  0.1567 -0.3345 -0.1381
26110W        W69204  25.819  27.063  16.823  0.0312 -0.2073  0.1712
26111W        W69205  29.997  29.066  18.166 -0.4456  0.0735 -0.0344
26112W        W69206  29.080  27.138  19.078  0.1397 -0.1575 -0.1187
26113W        W69207  29.778  28.450  17.140  0.2028  0.3221  0.0222
26114W        W69208  24.706  25.627  17.849 -0.0188 -0.3113  0.0146
26115W        W69209  26.944  26.424  16.512  0.0093  0.0213  0.0803
26116W        W69210  26.228  26.132  19.141  0.3646  0.0358 -0.0996
26117W        W69211  24.915  26.839  17.077  0.3907  0.2403  0.1632
26118W        W69212  27.986  26.441  18.704  0.2927  0.2027 -0.0617
26119W        W69213  25.340  25.810  17.323  0.0355  0.1206 -0.2709
26120W        W69214  28.972  27.580  18.085  0.1795 -0.1661 -0.0845
26121W        W69215  28.096  27.304  17.454 -0.2027 -0.1617  0.0229
26122W        W69216  25.864  28.535  16.162 -0.0087 -0.1295  0.0315
26123W        W69217  28.342  27.278  19.862 -0.1114 -0.1803  0.0254
26124W        W69218  27.878  29.962  16.585  0.1932  0.0019  0.2610
26125W        W69219  29.156  29.312  20.010 -0.1859 -0.1801 -0.0610
26126W        W69220  28.748  29.874  17.769 -0.1482 -0.0424  0.0550
26127W        W69221  27.211  26.592  18.149 -0.0346  0.2750 -0.2392
26128W        W69222  25.449  27.266  17.252 -0.4842  0.0873  0.1714
26129W        W69223  26.567  28.541  17.846 -0.0693  0.0255 -0.0481
26130W        W69224  26.916  30.193  19.370 -0.1396  0.0768  0.0546
26131W        W69225  27.588  27.189  16.693 -0.1379 -0.0214  0.0664
26132W        W69226  28.613  27.512  18.419 -0.0339 -0.0118 -0.3283
26133W        W69227  26.741  27.714  16.945 -0.3433 -0.2021 -0.0315
26134W        W69228  26.248  28.286  18.849 -0.0387  0.1014 -0.0812
26135W        W69229  27.844  24.496  18.133  0.1333 -0.1927 -0.2829
26136W        W69230  28.862  27.693  19.740  0.1188 -0.2023  0.0981
26137W        W69231  28.222  26.866  17.188  0.3489 -0.1548 -0.1120
26138W        W69232  26.369  26.673  16.054  0.0243  0.1079 -0.2483
26139W        W69233  27.204  28.795  16.242 -0.1260  0.0100  0.0101
26140W        W69234  25.560  30.659  16.735  0.1545  0.0834  0.3911
26141W        W69235  25.441  26.630  17.991  0.0635  0.2046 -0.0447
26142W        W69236  27.310  27.469  17.932  0.2313 -0.0406  0.1339
26143W        W69237  27.749  27.027  17.288  0.0806 -0.0690  0.0041
26144W        W69238  26.247  27.051  20.868  0.3575 -0.2052  0.0885
26145W        W69239  28.078  26.631  19.479  0.2525 -0.1640 -0.1765
26146W        W69240  25.443  29.447  16.676  0.1901 -0.2938 -0.1580
26147W        W69241  25.735  28.882  20.385  0.1443  0.1140  0.1014
26148W        W69242  26.825  26.629  16.984 -0.1324  0.1459 -0.1884
26149W        W69243  27.890  26.220  17.864  0.0879  0.0262  0.1757
26150W        W69244  27.826  29.396  17.901  0.0743 -0.0489 -0.0025
26151W        W69245  28.866  28.582  17.224  0.2262 -0.3158 -0.0010
26152W        W69246  27.737  26.049  17.016 -0.1026  0.1543 -0.4746
26153W        W69247  25.984  24.549  16.817  0.1151 -0.2086 -0.0259
26154W        W69248  25.544  25.894  20.637 -0.2273 -0.1778 -0.1627
26155W        W69249  28.026  29.053  18.370  0.0869 -0.1469  0.4250
26156W        W69250  26.566  29.382  17.785 -0.0777 -0.2009  0.1131
26157W        W69251  28.517  25.883  17.137 -0.4935  0.1290  0.2766
26158W        W69252  29.224  28.214  17.290  0.3119  0.2712 -0.0089
26159W        W69253  24.979  26.921  18.794  0.0041  0.0950 -0.2478
26160W        W69254  28.678  28.638  19.311 -0.2633  0.0982 -0.1957
26161W        W69255  27.320  28.468  16.616 -0.0572  0.1677  0.0069
26162W        W69256  27.102  26.013  18.118  0.0384  0.1517 -0.1430
26163W        W69257  27.300  27.793  16.943 -0.1123  0.0105  0.2605
26164W        W69258  27.679  25.819  17.621 -0.0230 -0.1685  0.1865
26165W        W69259  24.368  28.919  16.067  0.0838  0.2023  0.2722
26166W        W69260  28.035  25.509  18.401  0.0633  0.0638  0.0121
26167W        W69261  27.339  26.804  17.727  0.2084 -0.0282  0.0989
26168W        W69262  25.794  26.554  17.627  0.0070  0.0505  0.1811
26169W        W69263  29.410  26.614  18.904 -0.0110  0.1541  0.0189
26170W        W69264  27.827  27.700  17.825 -0.0725  0.2162  0.4116
26171W        W69265  27.735  27.109  17.779  0.2814 -0.0710 -0.0207
26172W        W69266  26.036  27.554  16.047 -0.1681  0.2675  0.1101
26173W        W69267  28.027  26.670  17.669 -0.0570  0.0334  0.0816
26174W        W69268  25.752  27.440  18.943  0.0272  0.1366 -0.0879
26175W        W69269  24.979  29.397  18.656  0.1075 -0.2352  0.1353
26176W        W69270  28.538  26.755  19.641  0.2098  0.1635 -0.0069
26177W        W69271  27.660  27.529  17.152  0.4617 -0.0110 -0.0133
26178W        W69272  26.686  25.817  19.062  0.2296 -0.0703 -0.1328
26179W        W69273  27.097  25.592  17.848  0.2587 -0.0450 -0.1223
26180W        W69274  26.651  28.165  16.994 -0.1278 -0.0887  0.0439
26181W        W69275  27.116  28.809  17.226  0.1515 -0.0112 -0.0435
26182W        W69276  25.532  25.057  18.518 -0.1456 -0.2311  0.0729
26183W        W69277  27.435  27.618  19.318  0.0705 -0.2435 -0.1677
26184W        W69278  25.879  27.816  16.513  0.1298  0.0308 -0.2240
26185W        W69279  28.766  28.261  18.913  0.3252  0.3644 -0.0456
26186W        W69280  25.856  30.301  16.600 -0.3167  0.0076  0.1861
26187W        W69281  28.314  24.406  19.443 -0.0055  0.0875  0.0895
26188W        W69282  24.669  28.181  17.151 -0.2020 -0.0222  0.1862
26189W        W69283  26.354  27.150  16.098  0.3388  0.0314 -0.2315
26190W        W69284  26.123  27.218  15.654 -0.0057 -0.2023 -0.1176
26191W        W69285  27.538  25.358  18.393  0.1472 -0.3385 -0.1790
26192W        W69286  29.461  28.401  18.188  0.3675  0.1250 -0.2960
26193W        W69287  24.980  26.506  17.895  0.0406 -0.1604 -0.0610
26194W        W69288  26.193  26.168  18.363  0.2490 -0.3227 -0.1001
26195W        W69289  24.432  27.672  19.905  0.0846 -0.2527  0.3059
26196W        W69290  27.780  27.147  19.526  0.1314 -0.0419  0.2268
26197W        W69291  27.417  26.491  16.447  0.1333  0.0324  0.0295
26198W        W69292  27.982  29.288  19.210  0.0943 -0.1455 -0.4007
26199W        W69293  26.797  28.426  20.095  0.1557 -0.0677  0.0324
26200W        W69294  25.925  25.859  16.350 -0.0539 -0.1512  0.1047
26201W        W69295  27.877  26.108  19.141  0.0776 -0.2084 -0.0628
26202W        W69296  27.714  26.445  17.345  0.2899  0.0333  0.1806
26203W        W69297  24.236  27.949  17.072  0.0718 -0.0679  0.2675
26204W        W69298  28.184  29.029  17.764  0.2789 -0.1576  0.0137
26205W        W69299  26.442  26.486  16.571  0.0839  0.1024  0.1080
26206W        W69300  26.468  28.317  16.535 -0.2067 -0.0313  0.0356
26207W        W69301  27.132  27.596  18.829 -0.1612  0.0018 -0.1721
26208W        W69302  29.288  27.964  19.094  0.1161 -0.2074 -0.0043
26209W        W69303  25.960  27.347  17.436 -0.0481 -0.3992 -0.1178
26210W        W69304  27.790  26.654  18.148 -0.0487  0.0038  0.3052
26211W        W69305  28.161  26.997  18.090 -0.1109 -0.2048  0.1086
26212W        W69306  28.316  26.490  19.091 -0.0655 -0.2368  0.0925
26213W        W69307  27.167  27.107  18.748 -0.0915  0.1088 -0.0366
26214W        W69308  26.014  27.930  19.498  0.0860  0.1641 -0.2282
26215W        W69309  27.241  26.459  17.312 -0.1836 -0.0269  0.1825
26216W        W69310  30.191  29.969  18.256 -0.1738 -0.3155 -0.1750
26217W        W69311  27.451  26.283  18.814  0.3562 -0.2169 -0.0872
26218W        W69312  26.245  28.005  17.942 -0.0167 -0.0990  0.1279
26219W        W69313  24.523  27.097  19.421 -0.1057  0.1691  0.1875
26220W        W69314  27.010  27.705  17.347  0.1030 -0.1469 -0.3271
26221W        W69315  28.113  25.003  19.558 -0.1800  0.3991 -0.1691
26222W        W69316  25.312  27.653  18.969 -0.1078  0.0849 -0.1829
26223W        W69317  27.438  29.507  16.336  0.4708 -0.1720  0.0049
26224W        W69318  25.116  29.764  19.020  0.0094 -0.0477 -0.2777
26225W        W69319  29.281  26.061  17.056 -0.2041  0.1612  0.1567
26226W        W69320  27.546  30.344  17.783 -0.0122  0.0987  0.0361
26227W        W69321  27.174  25.202  16.672 -0.1209  0.0147  0.3692
26228W        W69322  28.801  24.213  19.643  0.1094 -0.1398  0.1362
26229W        W69323  28.245  27.549  16.550 -0.2375 -0.2588 -0.3017
26230W        W69324  28.077  26.199  21.183  0.0379 -0.0826  0.2153
26231W        W69325  26.595  26.201  17.459  0.0356 -0.2161  0.0458
26232W        W69326  28.468  28.387  17.440  0.0172  0.1948  0.0669
26233W        W69327  24.928  27.276  17.350 -0.0372 -0.0920  0.0431
26234W        W69328  28.320  29.346  20.849  0.2551  0.1636  0.0873
26235W        W69329  25.853  28.976  18.387  0.1063 -0.3309  0.0896
26236W        W69330  28.340  27.815  17.622  0.0054  0.0970  0.0404
26237W        W69331  26.356  25.451  17.538  0.2084  0.1100 -0.3248
26238W        W69332  26.792  29.332  18.861  0.2572  0.3415  0.0547
26239W        W69333  28.941  27.926  18.471 -0.0192 -0.0265  0.0881
26240W        W69334  26.354  28.457  16.067  0.0223 -0.0494  0.0722
26241W        W69335  28.904  25.805  18.676 -0.1244 -0.2392  0.2309
26242W        W69336  25.044  27.855  18.596 -0.0356  0.0365  0.1572
26243W        W69337  28.993  27.588  18.869 -0.0633 -0.1013  0.1312
26244W        W69338  27.543  29.067  16.024  0.0254 -0.3968  0.0256
26245W        W69339  27.697  28.876  17.984 -0.0789 -0.1354 -0.1876
26246W        W69340  27.027  24.933  18.887  0.0546  0.2733 -0.1212
26247W        W69341  28.627  27.957  18.031 -0.1131  0.0665 -0.1222
26248W        W69342  28.662  26.499  17.507  0.0919  0.1007  0.1208
26249W        W69343  27.626  25.328  17.818  0.0104 -0.0407 -0.0374
26250W        W69344  28.356  26.897  18.614 -0.0891  0.1217 -0.2704
26251W        W69345  25.947  27.489  18.160 -0.1009 -0.2288  0.2481
26252W        W69346  25.497  27.237  18.164 -0.3132  0.4352  0.2928
26253W        W69347  27.885  27.948  18.356  0.0634 -0.3135 -0.0477
26254W        W69348  28.862  26.745  16.754  0.4531 -0.2365 -0.0634
26255W        W69349  28.578  24.813  19.244 -0.0245 -0.3220  0.1770
26256W        W69350  28.106  26.155  17.384  0.0968 -0.0476 -0.0101
26257W        W69351  27.341  26.749  16.034  0.1977 -0.0741 -0.0741
26258W        W69352  25.715  27.895  18.052 -0.1216 -0.0829 -0.1032
26259W        W69353  27.728  26.764  19.076  0.3109 -0.1797 -0.0051
26260W        W69354  25.684  27.189  16.335  0.0872 -0.1279  0.2197
26261W        W69355  28.593  26.889  20.797 -0.2493 -0.1043  0.0150
26262W        W69356  28.146  29.823  15.812  0.1998 -0.1992 -0.0294
26263W        W69357  27.470  28.989  17.573 -0.3329  0.2732  0.0130
26264W        W69358  28.022  28.063  16.513  0.2223 -0.0259  0.3822
26265W        W69359  26.181  26.933  17.734 -0.0864  0.2179  0.1605
26266W        W69360  26.598  28.537  20.822 -0.3777 -0.1243  0.2786
26267W        W69361  25.471  26.287  15.487  0.3847  0.1126  0.0770
26268W        W69362  27.136  26.984  16.533 -0.1803 -0.1315  0.2108
26269W        W69363  27.234  28.506  19.265  0.0912  0.1540 -0.1966
26270W        W69364  29.987  27.238  19.575 -0.0647  0.0496  0.0111
26271W        W69365  26.905  25.584  16.373  0.1954 -0.0187  0.2241
26272W        W69366  28.719  26.425  19.928  0.1578 -0.0510 -0.3237
26273W        W69367  26.350  27.836  16.679  0.2879  0.1425  0.0577
26274W        W69368  28.672  24.958  18.662  0.2442  0.2533  0.0865
26275W        W69369  27.605  29.520  18.868 -0.0030 -0.1404 -0.0593
26276W        W69370  25.631  27.031  17.706 -0.1410  0.2495 -0.2115
26277W        W69371  26.846  27.202  17.818  0.1403 -0.0302  0.0192
26278W        W69372  26.487  24.926  17.852  0.1995 -0.0707 -0.2870
26279W        W69373  28.136  27.437  18.606 -0.0847  0.0110  0.1951
26280W        W69374  27.829  27.338  18.239  0.0983 -0.0836 -0.1176
26281W        W69375  28.920  27.205  20.515  0.3072  0.0161  0.3570
26282W        W69376  28.237  28.925  19.937  0.1229  0.2963  0.3244
26283W        W69377  25.517  27.552  17.739 -0.4378 -0.2556  0.0883
26284W        W69378  27.311  26.941  19.359 -0.4095 -0.1101  0.1130
26285W        W69379  29.446  27.940  18.594 -0.1355 -0.1335 -0.0284
26286W        W69380  26.714  28.843  18.317  0.0415  0.0400  0.0867
26287W        W69381  26.594  26.987  19.478 -0.2750 -0.0430 -0.0647
26288W        W69382  27.613  26.424  20.077  0.1792 -0.1000 -0.1260
26289W        W69383  28.250  27.605  18.055  0.1871 -0.0400  0.1137
26290W        W69384  27.210  27.267  17.418 -0.0218  0.1307 -0.2247
26291W        W69385  28.306  28.286  16.078 -0.2253 -0.3043 -0.2086
26292W        W69386  24.915  29.405  19.292  0.1680 -0.1645 -0.1290
26293W        W69387  26.021  28.062  18.370  0.1523  0.0105  0.0623
26294W        W69388  25.369  30.403  16.305 -0.2614 -0.1232 -0.0317
26295W        W69389  28.749  28.485  16.768  0.0538 -0.0040  0.0741
26296W        W69390  27.703  27.683  16.662  0.0754 -0.1634 -0.1965
26297W        W69391  28.319  29.739  18.157 -0.2441 -0.1263  0.1791
26298W        W69392  28.346  25.729  17.620  0.1071 -0.1472  0.2540
26299W        W69393  27.128  29.355  18.464 -0.3310  0.2695  0.0231
26300W        W69394  24.974  28.805  15.899 -0.0810  0.1647  0.0379
26301W        W69395  28.418  29.112  17.345 -0.0240 -0.0430 -0.3108
26302W        W69396  26.277  29.546  16.996 -0.0775  0.0445  0.0407
26303W        W69397  29.912  28.645  21.111 -0.0674  0.1577 -0.0199
26304W        W69398  26.776  25.139  16.961 -0.3189  0.2109  0.1484
26305W        W69399  30.797  27.400  17.526 -0.4143 -0.3128 -0.1610
26306W        W69400  30.261  27.248  16.901 -0.3163  0.5814  0.0919
26307W        W69401  28.397  29.796  20.028  0.0213  0.2590 -0.0851
26308W        W69402  27.614  28.423  17.737 -0.2451 -0.0683  0.0046
26309W        W69403  27.468  26.014  16.028  0.1038  0.1006  0.3348
26310W        W69404  26.007  26.965  18.985  0.0734 -0.2138 -0.0087
26311W        W69405  28.814  25.592  20.220  0.2718  0.1058 -0.0449
26312W        W69406  26.403  28.147  19.304  0.1010 -0.4666  0.2985
26313W        W69407  28.252  29.629  17.693 -0.1613  0.3732 -0.1501
26314W        W69408  26.648  27.608  16.361 -0.0406 -0.1495 -0.1319
26315W        W69409  25.061  27.647  17.626  0.1667  0.0982  0.0087
26316W        W69410  30.954  24.942  19.504 -0.3332  0.1494  0.1031
26317W        W69411  27.242  29.044  16.771  0.0739  0.0122  0.2995
26318W        W69412  27.116  28.590  17.814  0.1021  0.2583 -0.2160
26319W        W69413  27.414  29.732  17.689  0.2728 -0.1415  0.1054
26320W        W69414  27.183  28.866  18.233  0.0877  0.2180  0.0969
26321W        W69415  26.288  28.820  18.145 -0.3028  0.1951 -0.0527
26322W        W69416  24.836  26.610  16.645  0.0145 -0.2049  0.0702
26323W        W69417  28.809  26.402  18.110  0.0258  0.0943  0.2078
26324W        W69418  26.324  26.780  18.595  0.2546  0.1936  0.1324
26325W        W69419  27.642  25.307  19.640 -0.4240  0.4043  0.1155
26326W        W69420  26.399  27.351  16.918 -0.1028 -0.2864  0.0572
26327W        W69421  28.657  26.970  18.202 -0.2205  0.1664  0.3478
26328W        W69422  27.203  27.936  20.250  0.1504  0.0823  0.0819
26329W        W69423  25.558  26.997  18.601 -0.1220  0.0623 -0.0112
26330W        W69424  27.282  26.887  17.038 -0.3748  0.0342 -0.0704
26331W        W69425  30.201  28.324  19.053 -0.2017 -0.0317 -0.4391
26332W        W69426  26.907  28.043  16.539  0.1998  0.1232  0.0454
26333W        W69427  28.202  28.868  19.404  0.0778  0.0414 -0.1149
26334W        W69428  25.111  25.180  16.680  0.4842  0.1878 -0.4544
26335W        W69429  26.966  27.228  16.931 -0.0755 -0.1058  0.2106
26336W        W69430  26.621  27.061  16.544  0.2879  0.0804 -0.1108
26337W        W69431  27.197  28.385  19.766 -0.0286  0.2443  0.0647
26338W        W69432  27.884  29.842  19.110 -0.5417 -0.1122  0.0703
26339W        W69433  26.421  25.695  16.145 -0.2772 -0.0608 -0.0370
26340W        W69434  28.584  28.980  16.546 -0.2208 -0.0980  0.1557
26341W        W69435  28.825  24.510  18.321 -0.3925  0.0845 -0.1291
26342W        W69436  26.200  29.960  16.550 -0.0073  0.2005 -0.0561
26343W        W69437  29.310  27.955  18.010 -0.3060  0.4622 -0.4272
26344W        W69438  28.385  28.077  18.479 -0.4189 -0.0744 -0.2350
26345W        W69439  26.509  27.123  18.278  0.1036 -0.0649  0.1947
26346W        W69440  27.472  29.068  19.051 -0.0995 -0.0395 -0.0144
26347W        W69441  29.894  28.624  17.630  0.3815  0.0617  0.0176
26348W        W69442  26.673  25.325  18.067 -0.2268  0.1841  0.2559
26349W        W69443  25.306  26.138  18.149  0.2094 -0.1813 -0.1050
26350W        W69444  25.359  28.969  16.814  0.0817 -0.0530 -0.0618
26351W        W69445  29.527  25.792  19.360  0.1213  0.2551 -0.2529
26352W        W69446  27.633  25.765  18.092 -0.0767 -0.1541  0.0015
26353W        W69447  28.270  28.468  16.518 -0.2758  0.3143  0.1829
26354W        W69448  27.934  25.145  18.725  0.1001  0.0827 -0.0383
26355W        W69449  27.437  29.050  20.996 -0.2761  0.0815 -0.6184
26356W        W69450  26.690  29.223  20.192  0.2582  0.1190 -0.0517
26357W        W69451  25.955  28.282  16.589  0.0805  0.0894 -0.1995
26358W        W69452  27.789  27.659  19.710  0.1104  0.0501  0.0421
26359W        W69453  27.468  27.971  17.451 -0.1802 -0.1905  0.3676
26360W        W69454  27.977  28.784  17.377 -0.1484 -0.1517  0.1300
26361W        W69455  27.637  27.191  19.030  0.0290 -0.1005  0.0787
26362W        W69456  28.399  27.789  18.876  0.0694  0.1524  0.0829
26363W        W69457  28.913  28.799  18.883  0.0286 -0.1577  0.0340
26364W        W69458  26.338  26.318  17.850 -0.1870 -0.3407  0.2181
26365W        W69459  30.254  25.472  18.419  0.3060 -0.3907 -0.0505
26366W        W69460  28.145  25.970  16.786 -0.0799  0.0984 -0.0566
26367W        W69461  26.720  27.999  18.738 -0.0667 -0.1142  0.0331
26368W        W69462  27.164  25.961  16.470  0.1073  0.0915 -0.0907
26369W        W69463  25.773  29.430  15.628 -0.4170  0.2290  0.1317
26370W        W69464  26.041  28.496  17.852  0.0244  0.0688 -0.0819
26371W        W69465  26.944  26.186  19.070 -0.0930  0.1974 -0.1995
26372W        W69466  26.137  27.295  18.625  0.0775 -0.0251 -0.0338
26373W        W69467  26.173  25.813  17.925  0.0187 -0.1217 -0.0607
26374W        W69468  26.284  26.879  16.862 -0.1827  0.0805  0.2085
26375W        W69469  30.878  27.985  17.665 -0.2346  0.1395  0.1099
26376W        W69470  26.972  27.432  18.359  0.0034  0.2437  0.1002
26377W        W69471  25.210  27.393  16.166 -0.0594 -0.1144 -0.2865
26378W        W69472  27.920  28.177  17.383 -0.1554 -0.1570 -0.1586
26379W        W69473  29.152  27.523  19.352  0.1241  0.1202 -0.3091
26380W        W69474  28.009  25.625  17.229 -0.0325  0.1259 -0.2505
26381W        W69475  28.955  28.378  20.323 -0.5154 -0.1537 -0.0145
26382W        W69476  24.364  28.777  17.392  0.0846 -0.0458 -0.3805
26383W        W69477  27.348  27.855  19.771  0.4816 -0.2948  0.1211
26384W        W69478  26.837  26.750  18.525  0.1535 -0.2947  0.1375
26385W        W69479  26.409  25.155  16.089 -0.1516 -0.2351 -0.0504
26386W        W69480  25.955  26.685  18.102  0.0323  0.2643  0.2174
26387W        W69481  27.908  28.570  16.853 -0.0493  0.0022 -0.1030
26388W        W69482  27.745  29.038  17.035  0.0994  0.2723  0.2342
26389W        W69483  27.981  28.557  20.147  0.1401 -0.1805  0.1224
26390W        W69484  26.362  29.148  19.055 -0.0640  0.1882  0.2033
26391W        W69485  24.808  26.037  19.088  0.1395  0.0294 -0.1584
26392W        W69486  27.123  28.202  17.012  0.1106  0.3563 -0.0262
26393W        W69487  27.816  28.239  19.630 -0.1001  0.0065 -0.1563
26394W        W69488  29.709  29.288  15.668  0.0763  0.0257 -0.0044
26395W        W69489  27.294  25.191  19.278 -0.2487 -0.1015  0.0412
26396W        W69490  29.464  28.334  17.704  0.3628  0.0555  0.1377
26397W        W69491  26.476  27.448  19.579 -0.1110 -0.1863  0.2789
26398W        W69492  24.752  28.102  19.530  0.1537  0.1524  0.1732
26399W        W69493  27.452  27.648  18.389  0.1018 -0.2029 -0.3185
26400W        W69494  26.186  26.403  17.014  0.4417 -0.3281  0.0824
26401W        W69495  27.576  26.232  18.308 -0.1214 -0.3461  0.1027
26402W        W69496  28.693  30.019  17.133 -0.3424 -0.3914 -0.0947
26403W        W69497  26.969  26.359  17.757 -0.0837 -0.2430  0.0708
26404W        W69498  25.884  28.599  17.357  0.1798  0.5833 -0.0079
26405W        W69499  26.934  27.471  20.173  0.4555  0.0284  0.5966
26406W        W69500  28.647  27.437  17.780  0.0788  0.0557  0.2179
26407W        W69501  27.992  27.521  19.209  0.0877  0.2532  0.4266
26408W        W69502  25.774  26.315  16.125 -0.2631  0.0438 -0.2215
26409W        W69503  28.735  28.091  17.103 -0.0181  0.0770  0.1940
26410W        W69504  27.969  28.111  18.858  0.0489 -0.3351 -0.0282
26411W        W69505  28.287  28.973  20.524 -0.2239 -0.1530  0.0935
26412W        W69506  26.179  28.760  19.467  0.0489  0.1497 -0.1633
26413W        W69507  29.186  26.488  18.446 -0.0030 -0.2749  0.0778
26414W        W69508  26.329  25.657  18.342  0.0746  0.1731  0.0351
26415W        W69509  25.973  27.627  16.970 -0.0898 -0.1663  0.2917
26416W        W69510  27.095  28.013  19.110 -0.0574  0.0467 -0.2383
26417W        W69511  28.503  27.215  18.966 -0.0311  0.1947 -0.3015
26418W        W69512  24.881  26.027  16.645 -0.0737  0.2274 -0.0808
26419W        W69513  27.810  26.391  16.087  0.0551  0.2511  0.1858
26420W        W69514  27.292  29.284  20.584  0.2050 -0.3423  0.1932
26421W        W69515  27.552  28.421  18.273  0.1944  0.0961  0.0078
26422W        W69516  26.175  29.632  24.914 -0.2476  0.0693  0.1748
26423W        W69517  26.429  27.484  20.093  0.0295 -0.0206 -0.1479
26424W        W69518  26.933  27.245  19.156 -0.1302  0.0214  0.0686
26425W        W69519  28.617  26.754  21.909  0.2567  0.2757 -0.2390
26426W        W69520  25.532  26.463  20.814 -0.0003 -0.1809 -0.2470
26427W        W69521  29.053  28.283  21.495  0.1840 -0.1273 -0.2641
26428W        W69522  26.312  26.404  22.661 -0.0443 -0.1773 -0.0829
26429W        W69523  27.997  30.022  21.414  0.1432  0.0649 -0.1122
26430W        W69524  29.862  29.739  22.224  0.1079  0.0209  0.5295
26431W        W69525  28.060  28.373  20.588 -0.0552  0.0687 -0.1089
26432W        W69526  27.456  27.882  24.369 -0.0824 -0.3962 -0.3265
26433W        W69527  26.238  29.610  22.712 -0.0711 -0.1928 -0.0109
26434W        W69528  27.430  26.128  20.466 -0.1900 -0.1863  0.0287
26435W        W69529  25.355  25.224  20.851  0.0497  0.0555  0.1297
26436W        W69530  28.774  27.259  21.916 -0.2100  0.2820  0.0694
26437W        W69531  26.942  28.315  20.547  0.2087 -0.0125 -0.0376
26438W        W69532  26.397  25.393  22.606  0.2059  0.2087 -0.0978
26439W        W69533  26.968  25.311  20.952 -0.2036  0.0192 -0.3105
26440W        W69534  27.821  28.993  20.263  0.3776  0.1644  0.0157
26441W        W69535  28.888  26.389  24.231  0.0771 -0.2504 -0.2162
26442W        W69536  28.963  25.959  21.751 -0.1593 -0.0423 -0.6458
26443W        W69537  26.895  28.327  21.590 -0.0862 -0.1219 -0.2594
26444W        W69538  25.780  27.143  19.458  0.0816  0.2909  0.0251
26445W        W69539  26.245  26.964  22.736 -0.0607 -0.0379  0.0289
26446W        W69540  25.686  27.719  23.068  0.3051  0.0653  0.3019
26447W        W69541  27.258  25.295  22.174 -0.1324 -0.0273  0.0390
26448W        W69542  29.105  26.377  20.795 -0.1291  0.0794 -0.5469
26449W        W69543  27.064  27.094  21.495 -0.1280  0.0023  0.2589
26450W        W69544  27.592  29.056  21.506  0.1451  0.2215  0.0775
26451W        W69545  30.176  28.297  23.255  0.1610  0.0455  0.1828
26452W        W69546  25.853  26.811  21.143  0.0800  0.3941  0.2293
26453W        W69547  25.529  29.066  21.393 -0.1697  0.0466  0.2840
26454W        W69548  25.563  28.518  22.588  0.4758 -0.1212  0.1922
26455W        W69549  28.659  27.474  20.191 -0.2200 -0.0324  0.1626
26456W        W69550  28.758  28.649  21.116  0.1614 -0.2623  0.2256
26457W        W69551  26.882  27.501  23.829  0.2755 -0.0622 -0.0958
26458W        W69552  27.087  28.465  22.088 -0.0254  0.1106 -0.0846
26459W        W69553  26.891  28.066  22.976 -0.2434 -0.1150  0.3647
26460W        W69554  26.145  27.793  23.363 -0.1077 -0.1284 -0.0553
26461W        W69555  27.640  27.782  23.657  0.0963 -0.4724 -0.3071
26462W        W69556  27.932  28.718  21.765 -0.0497 -0.0002 -0.2100
26463W        W69557  26.165  28.779  20.584  0.1010  0.0943 -0.1918
26464W        W69558  28.650  28.455  22.355  0.0671  0.0937  0.1465
26465W        W69559  26.915  28.363  24.623 -0.2134  0.0142 -0.0397
26466W        W69560  24.976  28.774  20.382  0.1963  0.0489  0.3832
26467W        W69561  29.128  26.098  24.535 -0.1151  0.1719 -0.0664
26468W        W69562  26.526  29.349  20.639  0.0893  0.3231 -0.2421
26469W        W69563  28.128  27.564  20.277  0.0116  0.0134 -0.4110
26470W        W69564  27.444  27.066  18.216  0.0475 -0.3342 -0.0053
26471W        W69565  28.287  26.618  21.481 -0.1839 -0.0767 -0.0170
26472W        W69566  26.182  24.801  21.937 -0.0336 -0.0715 -0.0888
26473W        W69567  26.428  28.093  22.368 -0.1088  0.2175  0.0919
26474W        W69568  26.829  27.897  20.836  0.0130  0.0202  0.0732
26475W        W69569  28.633  27.579  22.367  0.1742 -0.0368 -0.2655
26476W        W69570  27.565  27.122  21.430  0.1903 -0.0684 -0.0172
26477W        W69571  28.320  27.204  22.204  0.2332  0.1621  0.2099
26478W        W69572  27.530  30.141  22.580  0.0155 -0.3598 -0.3732
26479W        W69573  26.295  26.377  21.712 -0.0243 -0.0079 -0.2230
26480W        W69574  28.264  28.487  19.726  0.4805  0.3004  0.0447
26481W        W69575  29.734  29.285  21.811 -0.0236 -0.1334  0.2744
26482W        W69576  29.574  29.587  20.227 -0.1462 -0.1912 -0.2178
26483W        W69577  26.585  26.255  22.272 -0.3502 -0.0007 -0.2523
26484W        W69578  25.379  27.947  23.561 -0.0423  0.0332  0.2192
26485W        W69579  24.624  27.829  22.894 -0.1696  0.0941  0.4012
26486W        W69580  26.770  24.860  20.106 -0.0686 -0.0933 -0.0274
26487W        W69581  28.361  27.846  23.232 -0.1262 -0.1043  0.2024
26488W        W69582  26.820  29.099  22.121  0.2150  0.1716 -0.2169
26489W        W69583  30.535  27.195  20.984 -0.0407 -0.1601  0.1112
26490W        W69584  27.361  28.066  22.819  0.2471 -0.2232  0.1125
26491W        W69585  28.068  27.142  21.183  0.0880 -0.1103  0.1078
26492W        W69586  28.156  29.393  20.313  0.0104 -0.1830 -0.1686
26493W        W69587  27.295  25.753  21.802  0.0910  0.3462  0.3383
26494W        W69588  28.394  25.970  23.460 -0.1093  0.0102  0.0881
26495W        W69589  27.343  27.353  20.534 -0.1619 -0.0204 -0.1384
26496W        W69590  27.853  27.282  20.595 -0.0381  0.1399 -0.2750
26497W        W69591  30.818  28.438  22.468 -0.2110 -0.2325  0.1443
26498W        W69592  28.948  27.749  20.578 -0.0308 -0.0918 -0.3266
26499W        W69593  26.907  28.811  22.515 -0.3232 -0.0318 -0.2027
26500W        W69594  26.569  26.767  23.987  0.2572  0.0469  0.5339
26501W        W69595  27.532  27.745  23.169  0.0198 -0.0180 -0.3287
26502W        W69596  26.816  29.711  20.477 -0.1860 -0.0279  0.0267
26503W        W69597  24.560  28.852  21.428  0.0142  0.2257  0.3297
26504W        W69598  25.601  27.412  20.208  0.0193  0.0007 -0.1415
26505W        W69599  25.363  26.783  23.073  0.3068 -0.1023  0.3539
26506W        W69600  25.973  27.826  22.545 -0.0494 -0.0506  0.0682
26507W        W69601  29.060  25.447  20.646  0.1120  0.3438  0.0177
26508W        W69602  25.639  27.170  24.327  0.4983 -0.3259 -0.1066
26509W        W69603  27.801  26.636  21.388 -0.0400 -0.0513  0.1227
26510W        W69604  25.771  28.438  20.735  0.0103  0.0775  0.0751
26511W        W69605  29.313  29.219  21.507  0.0550  0.1033  0.0406
26512W        W69606  28.154  25.714  21.739  0.0627 -0.1016  0.1931
26513W        W69607  28.768  28.474  19.775  0.0640  0.0539 -0.2922
26514W        W69608  25.570  27.537  22.559  0.0867  0.0135 -0.0962
26515W        W69609  26.271  26.770  22.089 -0.1848  0.0585  0.0500
26516W        W69610  27.225  25.955  24.754  0.0348  0.2118  0.0384
26517W        W69611  25.187  24.068  21.106  0.0188  0.3900  0.1545
26518W        W69612  29.271  28.340  23.111 -0.1185 -0.1661 -0.1557
26519W        W69613  25.776  25.922  21.163 -0.2989  0.1976  0.2448
26520W        W69614  28.711  25.536  21.512 -0.1033  0.0298  0.2697
26521W        W69615  26.597  26.641  20.310  0.3742 -0.1679 -0.1626
26522W        W69616  24.086  27.844  20.743  0.0138 -0.2183 -0.1607
26523W        W69617  29.345  26.989  23.580  0.2296 -0.1290 -0.0285
26524W        W69618  26.802  29.060  21.033  0.0195  0.3258  0.1581
26525W        W69619  27.596  28.477  23.052 -0.4725 -0.1443 -0.3186
26526W        W69620  27.500  28.303  20.694  0.0524 -0.1212  0.0398
26527W        W69621  26.127  26.475  23.979  0.4642 -0.0533  0.2152
26528W        W69622  27.004  27.933  18.276 -0.2254  0.1411  0.1080
26529W        W69623  27.273  29.216  22.320 -0.1617  0.1925 -0.5118
26530W        W69624  27.028  28.881  23.173 -0.0949  0.2779 -0.0648
26531W        W69625  26.837  26.411  20.679 -0.1758  0.0253  0.0858
26532W        W69626  28.082  30.268  20.863 -0.0967 -0.0086  0.1405
26533W        W69627  27.879  27.292  21.820  0.0401  0.1313 -0.2188
26534W        W69628  26.681  29.251  23.282  0.0946 -0.2214  0.1257
26535W        W69629  28.336  25.553  22.988 -0.1973 -0.3271  0.0319
26536W        W69630  28.265  27.706  22.042  0.1769 -0.1499 -0.2822
26537W        W69631  26.685  26.293  21.389 -0.0424 -0.1602  0.1891
26538W        W69632  25.283  25.549  19.941  0.1271 -0.4239 -0.0471
26539W        W69633  28.027  28.195  21.038 -0.1465  0.1588 -0.0227
26540W        W69634  25.755  29.465  21.158  0.2131 -0.2971 -0.3104
26541W        W69635  25.718  26.988  22.100 -0.1414  0.0942 -0.0653
26542W        W69636  27.256  29.474  21.900  0.0413 -0.2486 -0.1518
26543W        W69637  28.872  25.796  23.525  0.1744  0.1247  0.0847
26544W        W69638  25.544  27.875  24.219  0.0260 -0.0098  0.1098
26545W        W69639  27.800  26.884  23.216  0.0280  0.3093  0.0039
26546W        W69640  26.710  27.718  19.153 -0.1486 -0.0108 -0.0803
26547W        W69641  26.897  29.206  24.029 -0.1311 -0.1691 -0.0864
26548W        W69642  27.331  25.656  20.719 -0.0823 -0.1120 -0.3781
26549W        W69643  28.269  27.101  20.322 -0.1025 -0.0983  0.0910
26550W        W69644  26.980  27.008  23.795  0.0767 -0.1965 -0.0843
26551W        W69645  27.251  27.982  21.804  0.1174  0.1428  0.2269
26552W        W69646  27.346  25.900  19.165 -0.1801  0.1753  0.2691
26553W        W69647  27.070  26.312  18.570 -0.1776  0.5453  0.0268
26554W        W69648  26.526  27.234  23.737  0.0874  0.0138  0.2114
26555W        W69649  27.656  28.548  21.092 -0.3093 -0.0508  0.1728
26556W        W69650  27.949  28.892  22.872  0.0347  0.1267 -0.1992
26557W        W69651  27.286  26.658  20.645  0.0566  0.1429 -0.0830
26558W        W69652  29.744  28.823  21.641  0.2128  0.0399 -0.2723
26559W        W69653  24.962  27.359  21.021  0.3647 -0.1135 -0.1350
26560W        W69654  28.173  27.786  23.727  0.0272  0.0607 -0.2774
26561W        W69655  29.653  27.480  21.083 -0.1814 -0.1541 -0.1257
26562W        W69656  27.336  27.269  23.086  0.2104 -0.0278 -0.4090
26563W        W69657  26.309  27.496  17.740 -0.1081  0.0880 -0.2536
26564W        W69658  26.450  25.361  21.686 -0.4957 -0.2760 -0.1359
26565W        W69659  26.510  29.776  20.823 -0.3241 -0.2055  0.2767
26566W        W69660  26.785  25.812  21.377  0.0067  0.0839  0.0932
26567W        W69661  28.073  24.980  21.787 -0.0654 -0.1551  0.0713
26568W        W69662  29.310  26.800  23.100  0.1538  0.4183 -0.3384
26569W        W69663  28.555  25.917  24.855 -0.0015  0.2298 -0.1537
26570W        W69664  29.412  26.715  21.637  0.0076  0.0194  0.2309
26571W        W69665  27.685  26.098  21.468  0.1147  0.0500  0.2048
26572W        W69666  24.165  26.586  19.927 -0.2238  0.0761 -0.1527
26573W        W69667  27.933  27.522  23.221 -0.0825  0.0183  0.0850
26574W        W69668  26.166  28.419  23.806  0.1350  0.3020  0.1386
26575W        W69669  25.870  29.290  22.956 -0.3438 -0.1707  0.1365
26576W        W69670  29.235  27.825  23.507  0.0388 -0.2143 -0.2189
26577W        W69671  28.121  28.278  21.638 -0.0158 -0.2049  0.0579
26578W        W69672  27.007  27.673  23.223 -0.1458 -0.1138  0.1620
26579W        W69673  27.046  25.935  20.204 -0.1461 -0.1971 -0.0791
26580W        W69674  28.627  29.436  20.473  0.0063  0.1149  0.0746
26581W        W69675  26.378  27.606  20.587 -0.0064 -0.0009 -0.0608
26582W        W69676  27.062  26.486  22.328  0.0409  0.0327 -0.0822
26583W        W69677  27.632  28.319  22.017 -0.0277  0.1380  0.0383
26584W        W69678  26.653  28.559  19.542  0.5046 -0.0198 -0.0738
26585W        W69679  27.754  28.123  22.514  0.0873 -0.2051 -0.0286
26586W        W69680  24.582  28.030  20.861  0.1787 -0.0138 -0.1893
26587W        W69681  27.409  27.114  21.912  0.1033 -0.1484 -0.0705
26588W        W69682  26.442  28.315  23.303 -0.1102 -0.1755 -0.0543
26589W        W69683  26.473  27.658  18.302  0.3306  0.2106 -0.1542
26590W        W69684  26.132  27.122  19.805  0.1785  0.2608 -0.3214
26591W        W69685  28.620  25.529  20.869  0.0205  0.1512  0.3354
26592W        W69686  27.873  27.924  20.582  0.0226 -0.2270  0.0344
26593W        W69687  27.050  26.266  24.356 -0.1784 -0.1130 -0.1783
26594W        W69688  28.507  26.063  21.546  0.5002 -0.0276 -0.1500
26595W        W69689  26.050  29.560  23.789  0.0432 -0.3576  0.1441
26596W        W69690  28.500  27.929  21.643 -0.1033 -0.3306  0.0567
26597W        W69691  27.711  26.308  19.589  0.1284  0.0818  0.2273
26598W        W69692  28.637  29.314  22.561 -0.0757  0.2799  0.0354
26599W        W69693  27.457  27.613  22.614 -0.3490  0.1567 -0.2565
26600W        W69694  25.270  28.080  19.403  0.0818  0.0364  0.0180
26601W        W69695  29.416  27.825  23.093 -0.2636 -0.0311 -0.3681
26602W        W69696  26.492  27.135  20.432 -0.0635  0.2210 -0.0242
26603W        W69697  25.448  27.111  21.121  0.0994  0.0151 -0.1391
26604W        W69698  28.013  29.178  21.181 -0.2191 -0.2934  0.0453
26605W        W69699  26.664  27.267  21.183 -0.1097  0.1662  0.1338
26606W        W69700  25.826  27.480  21.203  0.2048  0.0202 -0.0090
26607W        W69701  27.345  25.817  24.223  0.4110 -0.4252 -0.0644
26608W        W69702  28.810  27.710  24.240 -0.4147  0.0966  0.0152
26609W        W69703  25.875  26.012  21.617 -0.2832  0.0215  0.1763
26610W        W69704  26.508  25.985  20.995  0.0443  0.0071  0.0354
26611W        W69705  27.481  27.601  21.552 -0.5167  0.0953  0.0246
26612W        W69706  28.401  27.516  22.808  0.1830 -0.1916  0.1452
26613W        W69707  29.451  27.165  22.706 -0.0077  0.1668 -0.1058
26614W        W69708  27.093  29.172  23.571  0.1882 -0.0565 -0.1484
26615W        W69709  28.179  26.992  22.723 -0.2244 -0.0825  0.0064
26616W        W69710  29.098  28.711  20.714  0.3845 -0.0212  0.0951
26617W        W69711  28.682  27.450  23.226  0.0612  0.1559  0.1917
26618W        W69712  27.167  28.183  21.170  0.0676  0.3410 -0.0855
26619W        W69713  26.204  26.864  23.652  0.2328  0.2190  0.0050
26620W        W69714  27.400  28.796  20.533 -0.1557  0.1869 -0.0000
26621W        W69715  27.692  26.310  23.245  0.0049 -0.0529 -0.0889
26622W        W69716  26.366  29.111  22.943  0.1675  0.1008  0.1226
26623W        W69717  26.109  28.475  22.584  0.1892  0.1357  0.2013
26624W        W69718  25.062  28.996  23.176  0.0114 -0.0902 -0.0396
26625W        W69719  30.009  25.445  20.088 -0.1945  0.0841  0.0466
26626W        W69720  27.562  28.139  19.246  0.1942  0.1877 -0.1113
26627W        W69721  26.476  25.885  22.593  0.0618 -0.0997  0.0590
26628W        W69722  30.188  26.414  23.489 -0.2144 -0.0732  0.0249
26629W        W69723  27.998  27.619  20.924  0.0674 -0.1581 -0.1242
26630W        W69724  28.024  26.449  22.891 -0.3008 -0.0464 -0.1544
26631W        W69725  25.825  25.494  20.832 -0.0719  0.0981 -0.3398
26632W        W69726  26.813  26.450  21.837 -0.1536  0.0729  0.4011
26633W        W69727  25.443  27.252  23.031  0.0990 -0.4698  0.1778
26634W        W69728  28.113  29.174  23.368  0.4876 -0.4150 -0.2004
26635W        W69729  25.660  25.898  23.678  0.3405  0.0511 -0.1779
26636W        W69730  27.328  26.992  22.411 -0.0862  0.0597 -0.2612
26637W        W69731  26.269  26.309  20.149  0.3150 -0.1054 -0.3803
26638W        W69732  27.085  28.701  23.854  0.4067  0.1432 -0.1816
26639W        W69733  29.130  27.678  21.908  0.2361 -0.0812  0.3226
26640W        W69734  27.165  27.560  21.165 -0.0546  0.0624 -0.0141
26641W        W69735  27.183  26.145  21.504 -0.0261  0.2667  0.0452
26642W        W69736  25.143  28.404  22.247  0.4054 -0.2579  0.3733
26643W        W69737  27.751  26.855  20.862  0.1538 -0.2180 -0.0043
26644W        W69738  26.734  28.391  19.055 -0.1573  0.2336  0.0929
26645W        W69739  25.359  27.370  20.692 -0.3533 -0.0540 -0.1979
26646W        W69740  27.389  26.282  22.654  0.0019 -0.1110 -0.0414
26647W        W69741  27.606  26.749  22.752 -0.0088 -0.0936 -0.2078
26648W        W69742  27.823  25.441  20.973  0.2095 -0.1176 -0.2201
26649W        W69743  28.171  25.551  22.521 -0.2739 -0.1618 -0.0948
26650W        W69744  27.809  27.274  22.773  0.1002  0.0818 -0.2135
26651W        W69745  27.334  26.710  24.141 -0.1223  0.0585  0.1458
26652W        W69746  25.834  26.584  25.096 -0.2917 -0.1542  0.1384
26653W        W69747  29.291  28.976  23.114  0.1670  0.0264  0.0228
26654W        W69748  28.811  26.983  20.073  0.0125  0.1694 -0.5154
26655W        W69749  28.796  27.015  22.347  0.1955 -0.0564 -0.4554
26656W        W69750  30.117  25.321  22.893  0.0941 -0.1130 -0.1229
26657W        W69751  26.910  27.629  19.628 -0.0286  0.0070  0.3791
26658W        W69752  25.571  25.606  21.604  0.1987 -0.5197  0.0238
26659W        W69753  28.786  28.562  24.331 -0.0172  0.1062 -0.0055
26660W        W69754  26.928  26.683  19.733  0.0727 -0.0072  0.1734
26661W        W69755  28.417  26.747  23.692 -0.0344 -0.4009  0.2355
26662W        W69756  28.879  29.845  19.902  0.0596  0.1920  0.2035
26663W        W69757  28.810  27.989  22.115  0.2093 -0.0185  0.0921
26664W        W69758  26.988  26.988  20.355  0.0093  0.1234 -0.0676
26665W        W69759  25.979  26.745  21.614 -0.1791  0.0119 -0.0675
26666W        W69760  27.484  28.572  23.591  0.1254  0.4401  0.2742
26667W        W69761  25.449  26.800  19.631  0.0636  0.2021 -0.1035
26668W        W69762  26.257  27.697  22.070 -0.1089  0.2742  0.0286
26669W        W69763  26.859  28.234  22.489 -0.0286  0.2582 -0.0252
26670W        W69764  29.656  26.392  22.353 -0.0342 -0.5457 -0.1952
26671W        W69765  29.261  26.501  19.908  0.3549 -0.1014  0.0155
26672W        W69766  29.848  26.321  23.866 -0.0281 -0.1373  0.1200
26673W        W69767  25.643  27.817  21.631 -0.0259 -0.2492 -0.4172
26674W        W69768  27.620  25.298  23.390 -0.1740  0.0304  0.0771
26675W        W69769  25.954  28.751  21.544  0.4504 -0.1432 -0.1481
26676W        W69770  25.981  27.614  24.324  0.1230 -0.1689 -0.0867
26677W        W69771  27.442  28.858  22.049  0.1247  0.2365  0.2087
26678W        W69772  27.029  25.956  22.356 -0.2065  0.0740  0.0228
26679W        W69773  28.104  25.962  22.220  0.3987  0.0747 -0.2371
26680W        W69774  26.845  27.841  21.480  0.2149  0.0092 -0.0443
26681W        W69775  28.337  27.350  21.622 -0.0702  0.2363  0.0581
26682W        W69776  29.258  27.324  23.181  0.1350  0.1633  0.0914
26683W        W69777  26.479  27.179  22.302 -0.0177  0.1876 -0.3254
26684W        W69778  26.646  27.896  23.476 -0.1236 -0.2686  0.2502
26685W        W69779  30.085  28.776  20.651  0.0742 -0.1257 -0.1345
26686W        W69780  25.773  27.609  22.103 -0.0527 -0.0228 -0.4845
26687W        W69781  25.735  26.372  22.971 -0.1503  0.2400  0.0421
26688W        W69782  27.292  27.000  24.915 -0.2108 -0.1790 -0.0178
26689W        W69783  28.503  26.671  20.241  0.0977  0.2489 -0.1453
26690W        W69784  26.361  26.474  20.759  0.2633 -0.1728 -0.2823
26691W        W69785  26.123  28.539  21.060  0.2554  0.0378  0.1218
26692W        W69786  26.077  29.175  23.437 -0.1242  0.1307  0.2282
26693W        W69787  25.293  28.231  23.179  0.2486  0.0150 -0.1353
26694W        W69788  25.745  30.698  21.084 -0.1742 -0.0817  0.2547
26695W        W69789  28.529  28.398  20.743 -0.0134 -0.1539 -0.3312
26696W        W69790  27.135  28.586  20.910 -0.1516  0.1316 -0.2045
26697W        W69791  28.476  29.841  22.444 -0.0043 -0.0831  0.3436
26698W        W69792  26.907  27.373  20.749  0.0757 -0.0397 -0.0609
26699W        W69793  26.418  28.839  22.427 -0.1868  0.1720  0.0468
26700W        W69794  25.396  28.495  20.420 -0.1585  0.4124 -0.0599
26701W        W69795  28.363  29.477  21.412 -0.2416 -0.0775  0.1072
26702W        W69796  26.322  29.070  20.992  0.0056  0.0565  0.1478
26703W        W69797  30.419  27.928  22.928  0.0689  0.1049  0.2548
26704W        W69798  27.680  25.914  21.022  0.1434  0.2693  0.0695
26705W        W69799  28.738  27.105  21.418 -0.1689 -0.1842 -0.1113
26706W        W69800  28.174  26.665  21.009  0.2710 -0.1492  0.0835
26707W        W69801  29.672  29.054  24.431  0.0626 -0.3103  0.1765
26708W        W69802  27.851  27.576  22.296  0.2503 -0.1148  0.0361
26709W        W69803  27.517  26.928  20.314 -0.0514 -0.1000 -0.3805
26710W        W69804  26.404  25.835  21.982  0.0302 -0.2872  0.3262
26711W        W69805  28.047  24.633  23.065  0.1119 -0.1951 -0.0953
26712W        W69806  26.838  30.258  23.620  0.0001  0.0649  0.1637
26713W        W69807  29.584  28.836  20.759 -0.1482 -0.1262 -0.2178
26714W        W69808  26.126  26.783  20.304 -0.1907 -0.1325 -0.2850
26715W        W69809  27.615  27.912  21.072  0.1284 -0.0267  0.7055
26716W        W69810  29.652  25.901  21.499  0.2547  0.0976  0.2658
26717W        W69811  27.826  28.796  20.720 -0.0858 -0.0548 -0.1304
26718W        W69812  27.393  26.200  22.002  0.1550 -0.3155  0.0104
26719W        W69813  27.050  29.711  22.335  0.0656 -0.3571  0.0303
26720W        W69814  26.130  29.249  22.234 -0.0616 -0.0665  0.3536
26721W        W69815  28.050  29.699  21.880 -0.2629 -0.1017 -0.0198
26722W        W69816  26.364  26.744  21.255 -0.1192 -0.1104 -0.1143
26723W        W69817  29.159  27.040  19.661  0.0994  0.1066  0.1376
26724W        W69818  26.821  27.744  22.579 -0.2737 -0.2705 -0.2028
26725W        W69819  28.404  26.596  22.560 -0.4395  0.1180 -0.0464
26726W        W69820  26.152  27.197  21.875 -0.0492 -0.1160 -0.1215
26727W        W69821  28.642  26.019  21.050 -0.0896 -0.1635  0.0480
26728W        W69822  26.959  27.345  22.286  0.1649  0.0661 -0.1204
26729W        W69823  25.603  26.348  23.963 -0.1818  0.0457  0.0643
26730W        W69824  26.667  27.924  20.311  0.0721  0.0348 -0.1567
26731W        W69825  29.232  27.511  22.377 -0.2046  0.2523  0.1734
26732W        W69826  28.350  28.076  20.304  0.1217  0.0482 -0.1819
26733W        W69827  27.322  30.303  23.157 -0.5455  0.0316  0.1965
26734W        W69828  26.539  25.378  21.212  0.0712 -0.1044  0.0597
26735W        W69829  27.368  26.834  19.824 -0.0169  0.1479  0.1077
26736W        W69830  26.586  27.453  21.714  0.3709 -0.0608  0.0806
26737W        W69831  27.920  27.807  22.792 -0.0566 -0.1363  0.1323
26738W        W69832  27.987  28.612  23.326  0.1372 -0.1010 -0.1009
26739W        W69833  24.439  25.073  20.943 -0.3426  0.3794 -0.2377
26740W        W69834  28.503  25.431  18.762 -0.3298  0.1297  0.2668
26741W        W69835  29.048  26.350  23.075 -0.0795  0.0825  0.0345
26742W        W69836  26.345  29.736  18.826 -0.2381  0.1219 -0.1541
26743W        W69837  28.456  27.337  20.710  0.2458 -0.1136 -0.0484
26744W        W69838  30.243  27.819  22.251 -0.0310 -0.0693 -0.0552
26745W        W69839  25.721  27.317  21.632  0.1340 -0.1384 -0.1002
26746W        W69840  28.533  27.987  22.667 -0.1869  0.1061 -0.1967
26747W        W69841  28.879  28.937  21.643  0.3905  0.1752 -0.1492
26748W        W69842  27.436  25.146  20.650 -0.1878  0.4061  0.3413
26749W        W69843  27.531  26.688  22.021 -0.1045  0.2073  0.2439
26750W        W69844  26.125  27.666  21.596  0.1464  0.1549  0.1621
26751W        W69845  28.549  25.857  22.104 -0.0068 -0.1849  0.0526
26752W        W69846  26.804  27.992  21.995 -0.1027  0.2185 -0.1486
26753W        W69847  27.904  28.026  20.086 -0.0561  0.0148 -0.1208
26754W        W69848  28.453  24.662  22.739  0.1263  0.2838  0.0091
26755W        W69849  27.254  29.424  23.138  0.0197 -0.2719  0.0699
26756W        W69850  27.353  29.575  23.845  0.1277  0.0325 -0.0152
26757W        W69851  27.470  28.364  20.200  0.0769 -0.1695  0.3554
26758W        W69852  26.361  27.473  22.738  0.0367  0.1795  0.2626
26759W        W69853  27.378  27.572  22.089 -0.0590  0.4007  0.0616
26760W        W69854  26.594  28.992  19.773  0.0707 -0.1807 -0.0797
26761W        W69855  27.688  28.152  21.476  0.0675 -0.0035  0.0049
26762W        W69856  27.072  26.093  20.969  0.2082  0.1852 -0.3150
26763W        W69857  28.983  30.131  21.138  0.1177 -0.0337  0.1543
26764W        W69858  26.934  26.936  22.010  0.1817 -0.2637 -0.0327
26765W        W69859  28.320  26.249  20.720  0.1165 -0.2582 -0.2723
26766W        W69860  28.290  24.678  20.822  0.1558  0.1548 -0.1796
26767W        W69861  25.646  26.851  23.924 -0.1011 -0.1866  0.2362
26768W        W69862  24.984  27.894  21.209  0.1042  0.2131 -0.0574
26769W        W69863  25.956  27.581  19.859 -0.0388  0.2426 -0.0436
26770W        W69864  25.745  28.174  22.286 -0.1216 -0.4396 -0.3773
26771W        W69865  28.697  26.387  24.691  0.3005  0.1525 -0.1059
26772W        W69866  27.414  28.421  24.708  0.0901  0.0571  0.1842
26773W        W69867  25.301  27.499  21.400 -0.0003 -0.2046 -0.0757
26774W        W69868  25.807  26.054  19.961 -0.1229 -0.0729 -0.2612
26775W        W69869  29.467  28.347  21.088  0.0449  0.0458 -0.1700
26776W        W69870  26.846  25.962  21.888 -0.0787  0.2646  0.0065
26777W        W69871  25.593  25.359  22.040 -0.0672  0.0943  0.0930
26778W        W69872  27.304  28.033  22.290  0.2099 -0.2384  0.2096
26779W        W69873  27.766  27.842  21.870  0.3740 -0.1608  0.0742
26780W        W69874  26.735  26.290  19.990  0.2881 -0.1558  0.1326
26781W        W69875  29.737  27.885  23.766  0.1046 -0.2276 -0.0132
26782W        W69876  24.830  27.343  19.904 -0.0108  0.0976  0.3020
26783W        W69877  27.948  26.672  23.787  0.2739  0.1271 -0.2400
26784W        W69878  26.357  25.887  23.776  0.1587 -0.4387  0.0263
26785W        W69879  25.122  26.214  20.612  0.1520 -0.0556 -0.3114
26786W        W69880  26.262  27.236  23.317  0.2201 -0.4154  0.2301
26787W        W69881  26.573  28.212  21.212  0.0815 -0.0299  0.1014
26788W        W69882  29.079  29.692  20.321  0.0992 -0.3715 -0.0905
26789W        W69883  27.155  29.908  22.875  0.1580  0.1345 -0.1441
26790W        W69884  26.085  28.447  22.071  0.1912  0.3759 -0.1969
26791W        W69885  25.995  26.018  23.341  0.2502 -0.1735 -0.2319
26792W        W69886  26.264  28.914  21.926  0.0916 -0.1403  0.0330
26793W        W69887  28.281  28.454  22.811  0.0432 -0.0698  0.4219
26794W        W69888  28.018  26.810  21.806 -0.0072  0.3755 -0.4413
26795W        W69889  28.393  25.359  22.051  0.0285 -0.2328 -0.0832
26796W        W69890  27.196  26.980  21.024  0.0430  0.0952 -0.1201
26797W        W69891  26.738  26.755  22.982 -0.0023  0.0967  0.1356
26798W        W69892  26.574  28.595  22.891 -0.2970 -0.0869  0.1345
26799W        W69893  28.656  28.429  21.844  0.1987 -0.0685  0.0513
26800W        W69894  26.372  27.817  23.885 -0.0097  0.1632 -0.0473
26801W        W69895  27.899  26.295  21.900 -0.0575  0.0959 -0.1414
26802W        W69896  28.342  28.186  22.112  0.0224  0.2099 -0.0736
26803W        W69897  24.857  25.621  21.407 -0.0253  0.0760 -0.2488
26804W        W69898  26.574  26.911  21.651  0.0395  0.1825 -0.1824
26805W        W69899  27.312  26.736  23.533  0.0151  0.1836  0.3520
26806W        W69900  26.577  28.514  22.052 -0.1058 -0.0689 -0.0890
26807W        W69901  29.727  26.632  23.326  0.2447 -0.0332  0.1824
26808W        W69902  26.703  26.879  20.841 -0.2099  0.4338  0.1932
26809W        W69903  28.980  28.259  20.877 -0.0545 -0.1023  0.0907
26810W        W69904  29.400  29.755  22.312 -0.0033 -0.0226  0.0023
26811W        W69905  29.299  28.247  23.783 -0.0152 -0.2471  0.0139
26812W        W69906  29.540  28.182  21.578  0.2323 -0.0657  0.2256
26813W        W69907  27.947  28.614  22.315 -0.0087  0.1145 -0.1864
26814W        W69908  27.116  25.184  23.058 -0.1167 -0.0117  0.2448
26815W        W69909  25.437  28.203  21.852  0.2780 -0.0472  0.1128
26816W        W69910  27.265  26.643  21.599 -0.0237  0.0364 -0.0516
26817W        W69911  28.827  26.441  23.554  0.2126 -0.1550  0.1464
26818W        W69912  25.821  26.922  23.271 -0.0851  0.1722  0.0395
26819W        W69913  27.408  25.254  21.701 -0.0271 -0.1415  0.1552
26820W        W69914  27.435  28.932  22.755 -0.0639 -0.1051  0.1057
26821W        W69915  28.811  28.394  22.845  0.2627 -0.2803 -0.1702
26822W        W69916  26.426  28.517  25.123  0.0742 -0.0510  0.1993
26823W        W69917  25.963  26.039  25.379 -0.3392 -0.3575 -0.0648
26824W        W69918  29.595  27.778  22.625  0.0647 -0.1752  0.0645
26825W        W69919  30.263  26.624  23.952  0.1674 -0.2169 -0.1826
26826W        W69920  23.449  27.110  25.539 -0.2890  0.0799  0.1546
26827W        W69921  28.436  28.708  24.689  0.2642  0.0364 -0.0873
26828W        W69922  26.199  25.457  27.601  0.0510  0.0754 -0.0811
26829W        W69923  29.993  29.686  26.233 -0.2574  0.1594 -0.3169
26830W        W69924  30.453  29.760  25.974 -0.0633 -0.0429 -0.0971
26831W        W69925  28.498  28.360  23.252 -0.0428  0.0003  0.2495
26832W        W69926  26.082  25.997  26.921 -0.2778  0.0661  0.0917
26833W        W69927  27.837  28.085  24.751  0.1925  0.1992  0.1505
26834W        W69928  26.867  25.241  25.919  0.1261 -0.1597  0.2343
26835W        W69929  25.618  26.630  25.854 -0.1356  0.1947  0.1751
26836W        W69930  29.092  27.234  24.247  0.0708  0.1606  0.2476
26837W        W69931  26.377  26.773  24.685 -0.1647 -0.1474 -0.0072
26838W        W69932  25.578  25.758  25.711  0.1495  0.0583 -0.0259
26839W        W69933  27.347  25.505  24.755 -0.1699 -0.0580 -0.0638
26840W        W69934  27.466  29.112  23.999 -0.3656  0.2398 -0.0146
26841W        W69935  27.073  25.173  27.099 -0.0337 -0.3000  0.2973
26842W        W69936  27.260  26.123  27.133  0.1428 -0.1270  0.0153
26843W        W69937  28.474  28.164  24.317  0.2667 -0.0027 -0.1711
26844W        W69938  26.596  28.799  24.079 -0.2745 -0.1131 -0.2027
26845W        W69939  26.208  27.384  26.160 -0.0911 -0.0627 -0.0821
26846W        W69940  25.515  27.420  27.978 -0.0599 -0.0223  0.4087
26847W        W69941  27.521  26.124  26.129  0.1734  0.0060 -0.1187
26848W        W69942  29.759  27.391  24.010 -0.2412  0.0842 -0.1537
26849W        W69943  26.845  27.107  25.394  0.3826 -0.0138 -0.1109
26850W        W69944  27.542  28.291  25.259 -0.2756 -0.2184  0.1869
26851W        W69945  29.226  26.089  28.110  0.1470 -0.2601  0.1939
26852W        W69946  27.190  28.427  25.629 -0.1614 -0.1167 -0.0198
26853W        W69947  26.447  29.179  24.358  0.2880 -0.2393 -0.2347
26854W        W69948  26.405  27.935  24.517  0.0633 -0.4261  0.2378
26855W        W69949  30.514  27.195  24.485 -0.1803  0.1469  0.1326
26856W        W69950  28.192  28.258  25.493  0.0539 -0.0755  0.0750
26857W        W69951  26.029  29.115  26.723 -0.1245 -0.1376 -0.0314
26858W        W69952  25.538  29.536  24.649  0.0575 -0.1206 -0.0569
26859W        W69953  26.285  27.826  26.545  0.3142  0.2746  0.3493
26860W        W69954  24.945  28.695  27.663 -0.0721 -0.0037 -0.0792
26861W        W69955  28.329  26.782  27.957 -0.2254 -0.1499 -0.2362
26862W        W69956  28.086  26.182  25.354  0.0464 -0.0361 -0.0712
26863W        W69957  27.130  28.999  24.980  0.2339 -0.1738 -0.0039
26864W        W69958  27.481  27.752  24.911  0.0618  0.3962 -0.2555
26865W        W69959  26.546  29.143  26.148  0.3810 -0.1437 -0.3098
26866W        W69960  26.311  27.764  27.082  0.1765 -0.2137  0.0087
26867W        W69961  29.792  26.387  28.994  0.1540 -0.0909  0.0225
26868W        W69962  25.953  28.690  24.489  0.0375  0.1722  0.0156
26869W        W69963  28.503  26.288  23.070 -0.2938  0.0469  0.0046
26870W        W69964  26.038  27.310  23.876  0.0132  0.3694  0.0309
26871W        W69965  28.112  25.813  24.967  0.2686  0.0097  0.1956
26872W        W69966  26.956  25.459  26.441  0.3144 -0.1104  0.2725
26873W        W69967  27.067  30.467  25.244 -0.1360  0.0777 -0.0657
26874W        W69968  26.882  26.128  26.071 -0.1328  0.0784 -0.4626
26875W        W69969  27.278  26.617  26.570  0.1690  0.0431 -0.0862
26876W        W69970  26.619  27.713  26.176  0.2814 -0.0534  0.3082
26877W        W69971  28.330  26.458  26.591 -0.2962 -0.2178 -0.3127
26878W        W69972  27.094  28.398  26.226  0.2289 -0.4225  0.1444
26879W        W69973  26.247  26.423  26.702 -0.0884  0.2903 -0.0688
26880W        W69974  28.372  29.740  24.195 -0.0626  0.0300  0.0173
26881W        W69975  30.112  28.007  26.612 -0.1113 -0.3524 -0.1166
26882W        W69976  28.658  27.833  25.363 -0.0031  0.3009 -0.1244
26883W        W69977  25.149  25.228  25.053  0.2845 -0.0529  0.2260
26884W        W69978  25.853  28.077  26.855  0.1301  0.1344  0.1940
26885W        W69979  25.095  26.598  25.600  0.2414  0.1813 -0.0008
26886W        W69980  26.090  25.381  23.328 -0.0348  0.0260 -0.2007
26887W        W69981  29.512  26.816  28.738  0.0499  0.0903 -0.0199
26888W        W69982  24.571  29.185  26.421  0.1057 -0.2614 -0.0263
26889W        W69983  29.608  25.474  26.066  0.0520 -0.1901  0.0462
26890W        W69984  26.643  28.063  24.935  0.0767  0.1596 -0.1039
26891W        W69985  29.398  26.605  25.415 -0.3528 -0.2737  0.2069
26892W        W69986  27.956  28.298  23.769 -0.1982  0.0548  0.3001
26893W        W69987  28.607  26.147  26.320  0.2266  0.1867 -0.1221
26894W        W69988  29.023  25.476  27.299 -0.0982  0.1690 -0.1515
26895W        W69989  27.309  27.433  24.095 -0.2767  0.4207  0.0195
26896W        W69990  24.940  27.075  25.303  0.0244 -0.2343  0.1503
26897W        W69991  28.944  26.199  27.349 -0.4606 -0.3847  0.0629
26898W        W69992  29.563  26.894  24.146 -0.0656  0.1591  0.1145
26899W        W69993  25.288  27.533  26.109 -0.1793  0.1162  0.0239
26900W        W69994  26.674  28.045  27.333  0.0462 -0.3230  0.2086
26901W        W69995  27.930  28.077  27.074 -0.0311 -0.0161  0.0648
26902W        W69996  26.242  30.515  21.994 -0.1825  0.1835 -0.1668
26903W        W69997  25.302  26.477  26.969  0.0403 -0.0648  0.0005
26904W        W69998  26.896  27.791  24.206  0.2633  0.0615 -0.3422
26905W        W69999  24.488  25.986  26.648 -0.0193 -0.0642 -0.2605
26906W        W70000  26.390  27.694  25.760 -0.0897  0.1580 -0.4592
26907W        W70001  28.926  26.217  25.481  0.2790 -0.0897  0.2387
26908W        W70002  24.261  26.488  27.923  0.1242  0.0513  0.3536
26909W        W70003  29.713  26.023  26.877 -0.1149 -0.0352 -0.1489
26910W        W70004  26.137  27.946  26.105 -0.2895  0.3107  0.4263
26911W        W70005  28.745  29.196  23.457 -0.0416  0.2707  0.3312
26912W        W70006  28.964  27.539  22.773 -0.0541 -0.1338 -0.0961
26913W        W70007  28.356  29.132  23.939  0.0755 -0.1096  0.1326
26914W        W70008  24.633  28.733  26.867  0.4913 -0.0788 -0.1824
26915W        W70009  25.580  26.311  25.475  0.1228  0.0685 -0.1120
26916W        W70010  26.077  26.827  28.259  0.2306 -0.3286 -0.1786
26917W        W70011  26.447  25.686  27.071  0.1031  0.1412  0.0092
26918W        W70012  26.651  27.228  29.352 -0.2398  0.1726 -0.0230
26919W        W70013  26.211  26.562  23.150 -0.2083  0.1009  0.0778
26920W        W70014  27.773  27.436  25.527 -0.0259  0.0755 -0.1286
26921W        W70015  27.489  27.029  25.367  0.0544 -0.0059 -0.2663
26922W        W70016  25.952  26.740  24.402  0.1590 -0.0565  0.3237
26923W        W70017  29.069  26.025  26.414 -0.0114 -0.0449  0.1659
26924W        W70018  26.900  28.491  23.472 -0.2249 -0.0372 -0.1141
26925W        W70019  28.143  28.804  26.734  0.1097 -0.4666 -0.0692
26926W        W70020  29.140  28.989  23.789 -0.1429 -0.2285 -0.0440
26927W        W70021  26.034  26.527  26.266  0.0070 -0.0076  0.3243
26928W        W70022  27.842  27.489  24.083 -0.4104  0.1268 -0.0084
26929W        W70023  25.739  29.954  25.098  0.1404 -0.3193 -0.0629
26930W        W70024  28.515  26.302  25.732 -0.1789  0.1989  0.1187
26931W        W70025  26.936  27.511  25.077 -0.0033 -0.0175 -0.1275
26932W        W70026  29.715  30.842  26.407  0.1060  0.2347 -0.1225
26933W        W70027  27.670  28.275  25.757  0.4272 -0.2497 -0.0333
26934W        W70028  25.534  27.135  26.088  0.2695  0.0780  0.1468
26935W        W70029  28.764  25.755  26.668 -0.1978  0.0574  0.2760
26936W        W70030  27.954  27.077  26.801  0.3294  0.1486 -0.3295
26937W        W70031  28.471  25.894  25.368  0.0159  0.0707 -0.0234
26938W        W70032  25.859  26.506  23.524  0.0989  0.0387 -0.2587
26939W        W70033  27.442  29.325  25.285 -0.1882 -0.0157 -0.4292
26940W        W70034  24.873  27.568  25.242 -0.2165 -0.2610 -0.0208
26941W        W70035  26.675  27.422  26.730  0.0705  0.3852 -0.1192
26942W        W70036  28.010  28.496  25.046  0.1387  0.2222  0.3128
26943W        W70037  29.152  25.887  26.964 -0.1059 -0.2055 -0.0226
26944W        W70038  24.451  27.267  28.299 -0.0591 -0.0133  0.0230
26945W        W70039  28.405  26.888  26.970 -0.0215 -0.0313 -0.3096
26946W        W70040  27.203  27.418  24.654  0.2971 -0.2104  0.1495
26947W        W70041  25.090  28.224  26.497  0.0252 -0.1563  0.1628
26948W        W70042  27.186  25.785  25.954 -0.2203 -0.1422 -0.0575
26949W        W70043  28.978  25.174  25.416 -0.2568 -0.0779  0.0300
26950W        W70044  27.706  27.850  28.040  0.1340  0.0233  0.0369
26951W        W70045  30.075  27.519  24.338 -0.0327 -0.1654 -0.0027
26952W        W70046  29.573  27.438  23.563  0.1942  0.2393 -0.0451
26953W        W70047  27.721  25.878  24.566 -0.0304 -0.0935 -0.0426
26954W        W70048  25.643  29.124  26.309  0.2196 -0.2415  0.0925
26955W        W70049  28.495  28.596  25.236 -0.2413  0.0652  0.1944
26956W        W70050  26.788  28.038  25.447  0.3957 -0.2698  0.0955
26957W        W70051  28.056  26.997  24.129 -0.0708  0.0908 -0.0902
26958W        W70052  28.670  27.845  24.693  0.0211 -0.2079 -0.4291
26959W        W70053  25.072  28.442  24.647  0.2765 -0.1433 -0.0649
26960W        W70054  28.920  27.890  27.886 -0.1236  0.0234  0.2577
26961W        W70055  29.026  27.935  25.979 -0.0887 -0.1133 -0.1022
26962W        W70056  25.885  26.374  27.253  0.0556 -0.2147  0.0211
26963W        W70057  27.282  28.161  23.360  0.2019 -0.0523 -0.2866
26964W        W70058  27.025  25.794  23.456  0.3036  0.0651 -0.2475
26965W        W70059  26.743  29.626  22.929  0.0028 -0.1130  0.2089
26966W        W70060  29.455  26.124  25.798 -0.0264  0.0870 -0.0843
26967W        W70061  26.635  25.208  26.738 -0.1007 -0.0888 -0.0826
26968W        W70062  28.328  25.724  27.511  0.2094 -0.1334 -0.1624
26969W        W70063  29.287  28.152  26.976  0.0473  0.2594 -0.0281
26970W        W70064  29.244  27.251  25.816 -0.2738 -0.2419 -0.1056
26971W        W70065  28.237  27.152  25.226 -0.2298 -0.3128 -0.0254
26972W        W70066  25.867  27.818  23.800 -0.1286  0.1763 -0.0224
26973W        W70067  27.579  26.192  29.058  0.0551  0.1028  0.1446
26974W        W70068  25.875  25.554  27.226  0.0823  0.0110  0.0715
26975W        W70069  27.648  29.822  25.063 -0.2563  0.1329 -0.2047
26976W        W70070  26.979  28.399  27.535 -0.0664 -0.3743 -0.1273
26977W        W70071  27.420  26.524  24.580  0.1700  0.1018  0.2072
26978W        W70072  26.295  27.910  27.607  0.0652  0.0116  0.0121
26979W        W70073  26.803  27.171  24.316 -0.1363  0.0459 -0.3793
26980W        W70074  27.711  29.934  23.095 -0.0087  0.0226  0.2801
26981W        W70075  27.140  28.283  24.202 -0.1572 -0.2304 -0.2406
26982W        W70076  26.727  24.873  26.329 -0.0539 -0.0972  0.2747
26983W        W70077  27.890  27.924  25.324 -0.0556 -0.3920  0.2756
26984W        W70078  26.318  27.932  22.926  0.0631  0.1184 -0.0248
26985W        W70079  27.838  27.586  27.016 -0.1293  0.0338 -0.1533
26986W        W70080  27.209  29.350  24.421 -0.1278  0.1286 -0.3649
26987W        W70081  27.627  25.914  26.549 -0.1295  0.0309  0.0172
26988W        W70082  26.213  28.343  24.670  0.2464  0.0794 -0.1648
26989W        W70083  25.649  26.130  25.989 -0.1837  0.1072  0.1218
26990W        W70084  24.375  26.936  25.133 -0.0654  0.2240  0.2508
26991W        W70085  30.058  25.919  26.577 -0.0655 -0.0859  0.0124
26992W        W70086  27.884  27.038  22.285 -0.1502  0.1537 -0.4772
26993W        W70087  26.426  25.428  25.528  0.0290  0.2669 -0.1099
26994W        W70088  27.499  27.024  26.403 -0.0269  0.1321 -0.0462
26995W        W70089  24.557  28.286  26.491 -0.0344 -0.0100  0.0955
26996W        W70090  28.295  27.381  27.163  0.3127 -0.0670 -0.0666
26997W        W70091  27.861  26.603  24.381 -0.1470 -0.3022  0.1529
26998W        W70092  29.141  27.036  25.317 -0.0859  0.0414  0.0498
26999W        W70093  27.102  28.513  28.334  0.5539  0.0642 -0.3197
27000W        W70094  26.131  27.202  24.557  0.1380 -0.3424 -0.2149
27001W        W70095  29.754  25.695  25.626 -0.0592  0.2241  0.0123
27002W        W70096  26.853  26.197  25.070  0.0305  0.1166 -0.0581
27003W        W70097  26.619  27.177  25.980  0.2001  0.0790 -0.3494
27004W        W70098  27.839  27.656  26.410  0.1348 -0.0221 -0.0891
27005W        W70099  27.627  27.020  23.868  0.0883 -0.1958 -0.1887
27006W        W70100  25.468  28.376  25.264  0.1554  0.3370 -0.1270
27007W        W70101  26.747  26.111  28.040 -0.0784 -0.0760 -0.1940
27008W        W70102  29.829  26.998  25.493  0.1418  0.0177 -0.1101
27009W        W70103  26.406  26.674  25.931 -0.0740 -0.1139  0.3832
27010W        W70104  26.356  25.455  24.992  0.4820  0.2246 -0.1494
27011W        W70105  27.446  26.566  25.606 -0.1727 -0.1684 -0.1898
27012W        W70106  28.359  28.120  24.973 -0.4511  0.0258  0.2311
27013W        W70107  27.463  26.386  27.836 -0.0569  0.1788 -0.0639
27014W        W70108  26.338  28.280  26.775  0.0081 -0.1996 -0.0350
27015W        W70109  26.808  26.521  26.343 -0.2265  0.0379 -0.1769
27016W        W70110  29.578  28.291  24.222  0.0098 -0.0257 -0.2545
27017W        W70111  26.584  26.698  27.362 -0.0448  0.1026 -0.0591
27018W        W70112  26.949  26.737  24.538 -0.1155 -0.1882  0.2884
27019W        W70113  23.661  27.870  26.402  0.0963  0.2178  0.1501
27020W        W70114  27.012  27.842  24.654 -0.0271 -0.2758  0.3783
27021W        W70115  27.400  26.578  26.089  0.2872 -0.0109 -0.1468
27022W        W70116  26.308  28.096  25.331  0.0266  0.1020  0.0164
27023W        W70117  26.456  27.591  25.253 -0.1002 -0.2571 -0.1885
27024W        W70118  24.874  28.340  26.938  0.0410 -0.2882  0.1110
27025W        W70119  27.570  25.597  25.691  0.2146  0.0454  0.1466
27026W        W70120  28.765  26.708  25.467 -0.3525 -0.0229  0.1644
27027W        W70121  27.546  27.075  24.439  0.2334 -0.0142 -0.0097
27028W        W70122  29.405  25.044  29.176 -0.0043  0.2295 -0.0114
27029W        W70123  28.431  26.835  23.165 -0.2488  0.2108 -0.3593
27030W        W70124  29.802  26.348  26.522  0.3889  0.1752  0.2672
27031W        W70125  26.631  24.290  26.932 -0.1185  0.2025 -0.0094
27032W        W70126  28.637  27.036  24.931 -0.0179  0.1337 -0.3098
27033W        W70127  26.955  27.098  27.602  0.0620 -0.1227 -0.0459
27034W        W70128  26.940  29.385  27.441  0.0283  0.0775 -0.1909
27035W        W70129  25.438  26.393  27.508 -0.2352  0.1469 -0.0315
27036W        W70130  26.966  26.489  23.849 -0.1294 -0.1689 -0.1104
27037W        W70131  26.894  26.012  23.936 -0.4129 -0.0937 -0.3882
27038W        W70132  26.935  26.688  25.642 -0.3289 -0.0640  0.0967
27039W        W70133  28.086  26.059  26.834 -0.0634 -0.0742  0.1521
27040W        W70134  29.139  27.964  25.082  0.2916  0.1483  0.0219
27041W        W70135  27.795  26.598  26.448 -0.1388 -0.0538 -0.1543
27042W        W70136  24.847  27.198  26.852 -0.0446 -0.1177 -0.1867
27043W        W70137  29.859  26.901  23.746  0.0303  0.0967 -0.0345
27044W        W70138  27.848  27.617  24.647 -0.0265 -0.1711 -0.0951
27045W        W70139  26.934  26.556  27.784 -0.3247 -0.1069 -0.0322
27046W        W70140  26.793  25.204  27.556 -0.1107  0.0246  0.1576
27047W        W70141  29.803  28.117  25.679 -0.0712 -0.0591 -0.0689
27048W        W70142  27.563  26.787  27.009  0.0525 -0.1085  0.1671
27049W        W70143  27.735  25.973  27.149 -0.1782 -0.1806 -0.0296
27050W        W70144  27.473  26.955  27.619  0.1339  0.0961  0.0116
27051W        W70145  25.693  27.630  26.960 -0.2713  0.0851  0.0109
27052W        W70146  25.156  26.749  27.720 -0.1424 -0.0458  0.4576
27053W        W70147  29.166  29.821  25.800 -0.0882 -0.3803  0.1885
27054W        W70148  28.503  27.431  23.664 -0.3119  0.1740 -0.0587
27055W        W70149  28.296  26.759  28.535  0.1031 -0.0950 -0.1489
27056W        W70150  29.733  25.965  26.178 -0.2298  0.2330  0.2237
27057W        W70151  28.937  26.864  23.910 -0.0692  0.1574  0.1311
27058W        W70152  26.481  26.272  25.638 -0.2525  0.0567  0.0150
27059W        W70153  27.881  27.127  27.323 -0.0141  0.0507 -0.3070
27060W        W70154  26.840  26.300  23.266  0.1692 -0.0058  0.1164
27061W        W70155  28.174  26.731  27.498  0.4267 -0.1468 -0.0262
27062W        W70156  27.673  29.304  23.563 -0.2146 -0.0456 -0.0157
27063W        W70157  28.822  28.296  25.416 -0.0023  0.0709 -0.0122
27064W        W70158  27.896  26.018  25.792 -0.0082 -0.1225  0.1923
27065W        W70159  26.111  25.808  26.377 -0.0393 -0.2018 -0.0162
27066W        W70160  26.233  28.729  27.104 -0.3143  0.1577 -0.1339
27067W        W70161  25.223  26.414  25.049  0.0246  0.2694 -0.2992
27068W        W70162  27.511  28.615  24.140  0.1460  0.2723  0.3677
27069W        W70163  27.361  27.487  25.294 -0.1695 -0.2830 -0.1908
27070W        W70164  28.533  28.252  29.182 -0.1942  0.0279  0.3396
27071W        W70165  26.870  25.597  25.017  0.0856  0.0840  0.0978
27072W        W70166  29.186  27.140  27.035  0.2577 -0.4524 -0.0233
27073W        W70167  26.287  26.359  25.065  0.2808 -0.1696  0.0390
27074W        W70168  27.639  26.287  24.094  0.1103  0.1157 -0.2704
27075W        W70169  27.343  28.801  26.641 -0.1146  0.1505 -0.0686
27076W        W70170  23.533  27.605  25.996 -0.1337  0.3185 -0.1672
27077W        W70171  26.959  29.785  24.166  0.3212 -0.0786 -0.0185
27078W        W70172  28.583  26.495  27.210  0.4600 -0.0529 -0.2444
27079W        W70173  28.210  25.724  26.447  0.1488 -0.0834  0.0014
27080W        W70174  27.306  27.252  27.216  0.0140 -0.1961  0.2705
27081W        W70175  27.925  27.239  26.218  0.1821 -0.2754 -0.1403
27082W        W70176  26.365  26.132  26.089  0.0532 -0.7276 -0.1487
27083W        W70177  26.864  26.105  27.530 -0.1690 -0.1450  0.0146
27084W        W70178  28.750  27.284  26.804  0.1394  0.2680 -0.2771
27085W        W70179  29.128  28.113  26.431  0.1369 -0.1700  0.0792
27086W        W70180  26.614  27.555  24.677 -0.0530  0.2594  0.2446
27087W        W70181  24.816  26.617  26.688 -0.0351 -0.0054 -0.0638
27088W        W70182  27.886  28.114  27.667  0.1689 -0.0304 -0.3157
27089W        W70183  27.795  26.664  25.023  0.1440  0.0213 -0.1126
27090W        W70184  26.973  25.453  23.986 -0.1189 -0.2079 -0.1320
27091W        W70185  28.634  29.054  24.366  0.1005  0.1749  0.3483
27092W        W70186  26.046  28.653  27.903  0.0035 -0.2013  0.2118
27093W        W70187  27.047  27.092  26.837 -0.1644 -0.2306  0.1516
27094W        W70188  26.444  29.207  24.885 -0.1984  0.0591 -0.4564
27095W        W70189  28.739  29.411  23.946  0.3037 -0.0108 -0.2088
27096W        W70190  28.621  27.384  24.587  0.1987 -0.2677  0.3276
27097W        W70191  27.088  28.031  26.520 -0.0064 -0.1363  0.2873
27098W        W70192  28.050  27.202  23.618  0.2917 -0.0130  0.0427
27099W        W70193  26.031  28.426  26.347 -0.3215  0.2155 -0.1351
27100W        W70194  26.100  30.029  24.601 -0.1803 -0.3129  0.1590
27101W        W70195  29.040  29.565  23.554 -0.3248 -0.0265 -0.0725
27102W        W70196  26.567  28.345  24.272 -0.1157  0.2239 -0.1015
27103W        W70197  28.902  26.721  26.890  0.0487  0.0120  0.0630
27104W        W70198  28.491  24.973  25.339  0.1666  0.0716  0.0283
27105W        W70199  29.476  25.714  26.608  0.1696  0.2421 -0.0228
27106W        W70200  27.697  25.570  25.226 -0.3524  0.0828 -0.1244
27107W        W70201  28.447  29.053  25.579 -0.1211  0.2141 -0.0871
27108W        W70202  28.040  26.570  27.050 -0.0039 -0.2005 -0.2458
27109W        W70203  27.682  25.648  23.927  0.2726 -0.0310  0.3405
27110W        W70204  27.255  26.411  28.264 -0.1537 -0.0750  0.0021
27111W        W70205  28.958  25.259  27.974 -0.0079  0.0855  0.4155
27112W        W70206  26.091  28.947  26.225 -0.5741 -0.2264  0.0933
27113W        W70207  28.931  28.235  23.475 -0.4184 -0.0367  0.2184
27114W        W70208  25.952  27.099  25.204 -0.0305  0.2573  0.0265
27115W        W70209  27.126  27.081  25.897  0.0313 -0.2403 -0.0588
27116W        W70210  28.103  24.913  27.660 -0.1997  0.0467  0.0400
27117W        W70211  28.391  27.592  25.021  0.1401 -0.0469 -0.6443
27118W        W70212  27.737  27.163  24.948 -0.0892 -0.3282 -0.0393
27119W        W70213  27.962  28.024  24.167 -0.0987 -0.1965 -0.0596
27120W        W70214  25.270  28.790  26.709 -0.0184 -0.4409 -0.0216
27121W        W70215  27.417  27.497  25.886  0.0243  0.0284 -0.5251
27122W        W70216  24.612  26.648  26.105  0.0695 -0.0175  0.1335
27123W        W70217  30.130  26.907  24.787  0.1150 -0.0348  0.0324
27124W        W70218  25.094  26.251  25.934 -0.0383  0.2109 -0.1466
27125W        W70219  28.951  24.026  27.345  0.3153  0.0887  0.2461
27126W        W70220  26.963  26.987  26.325 -0.1854  0.1667  0.0417
27127W        W70221  28.145  27.222  24.679 -0.0324 -0.0181 -0.0221
27128W        W70222  27.130  26.933  28.092  0.1620 -0.1284  0.3526
27129W        W70223  25.193  26.668  26.129  0.1936 -0.1489 -0.0830
27130W        W70224  27.147  27.945  23.797  0.1022  0.0871 -0.0705
27131W        W70225  28.783  26.795  28.144  0.0894  0.2848 -0.0495
27132W        W70226  28.879  28.156  24.031 -0.0361 -0.1746  0.2641
27133W        W70227  29.079  30.035  26.538  0.0832 -0.2087 -0.3969
27134W        W70228  25.594  26.083  27.014  0.3171 -0.0634  0.1648
27135W        W70229  26.871  25.793  24.439  0.3419  0.1140  0.2496
27136W        W70230  26.106  28.443  25.808 -0.0595  0.0009 -0.1843
27137W        W70231  25.045  27.138  26.321 -0.2323 -0.0210 -0.1162
27138W        W70232  27.042  27.928  25.980 -0.0196  0.1851  0.0282
27139W        W70233  25.252  25.358  24.560 -0.1609 -0.3250 -0.0149
27140W        W70234  29.713  28.149  23.310 -0.1070 -0.3395 -0.1491
27141W        W70235  30.387  25.733  26.996 -0.1864  0.1758  0.0348
27142W        W70236  27.732  30.482  23.957  0.0608  0.2340  0.0978
27143W        W70237  29.605  27.881  25.268  0.1208 -0.0544  0.1822
27144W        W70238  29.010  28.458  25.838 -0.1950  0.4291 -0.1405
27145W        W70239  24.317  26.640  26.519 -0.2389 -0.1363 -0.1948
27146W        W70240  28.008  28.670  25.660  0.2962  0.1877 -0.0121
27147W        W70241  28.348  27.323  26.011 -0.1719 -0.0469 -0.1339
27148W        W70242  27.355  25.197  25.199 -0.0033  0.0565 -0.2729
27149W        W70243  26.453  26.919  26.397  0.0086  0.1237 -0.0644
27150W        W70244  25.473  28.482  26.259 -0.0065  0.3000 -0.3086
27151W        W70245  29.579  24.791  26.333  0.0312  0.0486 -0.1045
27152W        W70246  28.909  25.806  27.823  0.0885 -0.0092  0.1740
27153W        W70247  28.914  28.823  25.436 -0.1831  0.0313  0.2524
27154W        W70248  27.943  24.543  28.076 -0.0136 -0.0524 -0.1963
27155W        W70249  27.118  27.969  25.102  0.0505 -0.1005  0.0876
27156W        W70250  27.740  28.513  28.031 -0.1143  0.3022 -0.0880
27157W        W70251  26.027  28.134  24.186  0.1901 -0.0335  0.1374
27158W        W70252  26.512  26.265  27.075 -0.1069 -0.4970 -0.1235
27159W        W70253  28.779  27.496  25.829  0.1811 -0.2779 -0.0013
27160W        W70254  27.746  30.159  24.727  0.0791 -0.1088 -0.0607
27161W        W70255  28.362  27.801  26.255 -0.1831 -0.2103  0.2243
27162W        W70256  26.873  26.719  25.023 -0.0380 -0.0969 -0.0892
27163W        W70257  30.077  28.982  26.272  0.0568 -0.2851  0.4233
27164W        W70258  27.304  26.554  25.047  0.0614 -0.0199  0.0839
27165W        W70259  30.205  25.923  25.515  0.2253 -0.1740  0.2465
27166W        W70260  29.505  26.760  25.866  0.1348  0.0258  0.0033
27167W        W70261  26.152  26.831  26.982  0.5071 -0.2877 -0.1603
27168W        W70262  25.797  27.572  25.982  0.1542 -0.0894  0.2611
27169W        W70263  25.609  29.212  23.854 -0.0520 -0.3224  0.0576
27170W        W70264  25.598  27.965  26.309  0.2393 -0.0176 -0.0841
27171W        W70265  27.153  24.527  28.664 -0.3574 -0.0077  0.1203
27172W        W70266  25.806  26.496  28.607 -0.0200  0.1418 -0.2487
27173W        W70267  25.637  27.213  25.631 -0.0168  0.0562 -0.0159
27174W        W70268  28.095  26.302  24.793  0.1432 -0.0846  0.2128
27175W        W70269  29.645  28.150  24.788 -0.0719  0.1897  0.0141
27176W        W70270  26.139  25.281  25.881 -0.0367 -0.2826 -0.1472
27177W        W70271  23.811  24.784  24.423  0.1119 -0.2656 -0.0550
27178W        W70272  29.270  28.502  25.096  0.3034 -0.1163  0.1416
27179W        W70273  28.718  27.382  26.336  0.1486 -0.1099  0.1374
27180W        W70274  26.020  25.975  24.108 -0.1825 -0.0703 -0.4605
27181W        W70275  28.628  28.213  26.779 -0.0211 -0.0624  0.0702
27182W        W70276  26.587  29.545  22.202  0.1307  0.0800 -0.1886
27183W        W70277  26.587  27.220  27.213  0.0719 -0.2150 -0.0182
27184W        W70278  26.054  26.978  27.434 -0.1186 -0.1589  0.0298
27185W        W70279  26.644  26.361  24.662  0.1143 -0.1804  0.0206
27186W        W70280  27.658  27.240  28.345 -0.1308  0.0908  0.0483
27187W        W70281  29.159  27.741  25.499  0.0326 -0.0137 -0.2232
27188W        W70282  28.671  30.197  23.994 -0.3417 -0.2270 -0.0342
27189W        W70283  27.096  27.503  26.475 -0.1229  0.0404 -0.0013
27190W        W70284  27.464  27.925  26.221 -0.2942 -0.0207  0.2492
27191W        W70285  25.904  26.973  26.511  0.3901  0.0971 -0.0715
27192W        W70286  28.448  28.238  23.746 -0.1200  0.2386  0.1427
27193W        W70287  27.321  28.204  27.871  0.0515  0.1618  0.1416
27194W        W70288  28.801  26.269  22.567 -0.2126 -0.0061 -0.2030
27195W        W70289  27.971  26.539  25.816  0.3074 -0.2875 -0.0766
27196W        W70290  28.300  27.629  25.640  0.0199  0.5249 -0.1501
27197W        W70291  27.366  25.451  27.883 -0.2138  0.1325 -0.0357
27198W        W70292  25.159  27.759  26.567  0.2049 -0.1473  0.0547
27199W        W70293  27.573  29.200  25.762  0.5658  0.2883 -0.2840
27200W        W70294  27.114  26.147  25.602  0.1175 -0.1438 -0.2930
27201W        W70295  28.175  26.651  25.316 -0.0503 -0.2304  0.2223
27202W        W70296  28.774  27.803  23.672  0.3806 -0.0732  0.0572
27203W        W70297  25.531  26.710  26.443  0.2520  0.1351 -0.2982
27204W        W70298  28.288  27.622  24.249 -0.2577 -0.3454  0.1933
27205W        W70299  26.677  28.249  26.456  0.0152  0.1664  0.0627
27206W        W70300  28.536  28.581  25.802  0.0088 -0.1270 -0.5643
27207W        W70301  28.068  27.687  27.525  0.1362  0.2907  0.0652
27208W        W70302  27.334  27.338  23.588  0.3668 -0.1943  0.0631
27209W        W70303  28.590  27.254  24.145  0.1292  0.1944 -0.0452
27210W        W70304  28.635  29.284  26.179 -0.1291 -0.4581 -0.2895
27211W        W70305  28.721  27.766  26.681  0.2607  0.0190  0.0588
27212W        W70306  27.344  27.928  25.530  0.0544 -0.2692 -0.2977
27213W        W70307  27.935  27.856  25.882 -0.0712 -0.1191 -0.2897
27214W        W70308  26.022  26.958  26.017  0.2578 -0.0610  0.4893
27215W        W70309  23.993  26.201  24.664 -0.2119 -0.0500  0.0372
27216W        W70310  27.589  28.832  24.984  0.0782 -0.0177 -0.0738
27217W        W70311  29.445  25.240  27.661  0.1330  0.1205  0.2629
27218W        W70312  25.918  26.073  24.908 -0.3223  0.1769  0.2402
27219W        W70313  28.027  25.598  23.461  0.3201  0.0081 -0.1749
27220W        W70314  26.923  29.480  26.376  0.0236 -0.1327  0.0247
27221W        W70315  27.637  27.018  25.819  0.0510  0.1352  0.2030
27222W        W70316  25.880  28.156  30.501  0.0264 -0.2165 -0.1320
27223W        W70317  27.656  28.080  29.489  0.1401 -0.0150 -0.2277
27224W        W70318  27.333  27.359  27.905  0.0618  0.3717  0.0178
27225W        W70319  29.575  26.974  29.832  0.1734  0.1785  0.4273
27226W        W70320  25.753  27.296  28.384  0.0046  0.0991  0.1946
27227W        W70321  27.993  28.042  28.645  0.2533  0.0207 -0.3801
27228W        W70322  25.967  26.442  30.603  0.0512 -0.0748  0.2351
27229W        W70323  26.883  28.461  29.975 -0.1107 -0.1640 -0.0791
27230W        W70324  29.176  30.318  30.753  0.0534 -0.0366 -0.0132
27231W        W70325  28.735  27.141  27.286 -0.1983 -0.1428  0.0237
27232W        W70326  27.298  26.207  29.782  0.1890 -0.1484 -0.2353
27233W        W70327  27.631  29.012  29.342  0.0053 -0.0970 -0.0278
27234W        W70328  27.357  25.963  28.619 -0.1679 -0.1242 -0.4225
27235W        W70329  26.011  26.100  31.008  0.0927  0.1049  0.1439
27236W        W70330  27.608  27.141  30.078 -0.3093 -0.0599 -0.0958
27237W        W70331  26.384  28.622  28.374 -0.1044  0.0460  0.0716
27238W        W70332  26.085  26.854  30.319  0.0355  0.2192 -0.1433
27239W        W70333  28.591  27.600  28.422  0.0047 -0.2217 -0.1876
27240W        W70334  26.686  28.861  27.400 -0.2863  0.0980  0.0272
27241W        W70335  26.356  26.672  30.725  0.1484  0.2131 -0.1387
27242W        W70336  29.066  26.053  31.164 -0.0521  0.2274 -0.0998
27243W        W70337  27.713  29.192  27.898  0.4586  0.0715 -0.1188
27244W        W70338  26.618  27.401  27.754 -0.3356 -0.1028 -0.0284
27245W        W70339  25.764  27.983  30.901 -0.2304 -0.0357 -0.1812
27246W        W70340  26.389  26.131  30.644  0.0531  0.3019  0.3094
27247W        W70341  28.086  27.767  29.461  0.0112 -0.3356 -0.1330
27248W        W70342  28.638  27.594  29.834  0.3510 -0.1461  0.0060
27249W        W70343  27.124  29.208  27.892  0.3452  0.3049  0.1154
27250W        W70344  27.043  29.543  29.211 -0.2130  0.1286 -0.2274
27251W        W70345  28.212  26.214  29.936  0.2049  0.1004  0.1945
27252W        W70346  25.322  28.652  28.447  0.0805  0.0984  0.0791
27253W        W70347  26.016  29.244  27.990 -0.0468  0.2451  0.0133
27254W        W70348  28.993  28.712  27.273 -0.1839  0.2973 -0.1445
27255W        W70349  29.246  29.474  28.524 -0.2571 -0.2452 -0.1796
27256W        W70350  26.549  29.604  29.345  0.0678 -0.2010 -0.1955
27257W        W70351  25.387  30.177  28.692  0.1166  0.1476 -0.1549
27258W        W70352  25.800  27.466  26.462 -0.1191 -0.1352 -0.1052
27259W        W70353  26.844  28.914  31.073  0.3067 -0.0057 -0.2360
27260W        W70354  25.070  28.806  31.207 -0.0719  0.2035  0.0966
27261W        W70355  27.539  27.643  30.803  0.1247 -0.1250  0.2968
27262W        W70356  28.607  28.048  28.219 -0.1982  0.1948  0.0582
27263W        W70357  27.602  27.514  27.520 -0.4179  0.0083  0.0329
27264W        W70358  27.327  27.771  29.606  0.0960 -0.1048 -0.1135
27265W        W70359  27.059  27.893  31.321 -0.0075 -0.2116 -0.0870
27266W        W70360  26.878  28.748  27.922 -0.2937 -0.0538 -0.0008
27267W        W70361  28.723  26.035   1.310 -0.0842 -0.0019 -0.0631
27268W        W70362  26.471  28.992  28.664  0.0146  0.0425  0.0278
27269W        W70363  27.776  26.780  29.223  0.0212 -0.0277  0.0281
27270W        W70364  27.793  26.702  28.106 -0.2897 -0.2543 -0.0476
27271W        W70365  28.794  26.633  29.034 -0.2380 -0.2643 -0.2595
27272W        W70366  27.665  24.895  30.035 -0.2427  0.0098 -0.0666
27273W        W70367  26.017  29.636  29.515 -0.1434 -0.1412 -0.0732
27274W        W70368  27.272  26.194  30.401  0.2094 -0.2086 -0.0912
27275W        W70369  27.356  29.172  29.740 -0.0322 -0.0244 -0.1916
27276W        W70370  27.762  26.101  28.258 -0.2148 -0.3566 -0.0967
27277W        W70371  26.927  26.434  30.128  0.0758 -0.1399 -0.0764
27278W        W70372  25.634  30.675  29.772  0.0807 -0.2496 -0.2160
27279W        W70373  25.338  27.597  28.437  0.1483  0.0097 -0.0368
27280W        W70374  30.068  30.179  26.348 -0.1036  0.0544 -0.0611
27281W        W70375  28.162  28.276  29.559  0.3383  0.2122  0.2927
27282W        W70376  27.566  28.365  26.352 -0.1668 -0.0583 -0.0168
27283W        W70377  25.980  28.396  28.684  0.0528 -0.0435 -0.0061
27284W        W70378  26.236  26.967  31.252  0.1692  0.3128 -0.1348
27285W        W70379  25.633  26.870   0.026  0.0375 -0.1049  0.1308
27286W        W70380  27.660  25.614  28.272 -0.1948  0.0480 -0.2480
27287W        W70381  29.484  27.795  29.844 -0.1067  0.1173  0.2947
27288W        W70382  25.468  29.518  30.084 -0.1556  0.1476 -0.1171
27289W        W70383  30.432  25.051  29.939 -0.3744  0.0816  0.1808
27290W        W70384  27.483  27.710  29.164  0.0561 -0.0556 -0.0012
27291W        W70385  27.278  28.620  30.803 -0.1101  0.0864 -0.1362
27292W        W70386  27.064  27.743  27.447 -0.2725  0.2233  0.5514
27293W        W70387  28.312  24.004  30.238 -0.0376  0.0170  0.0170
27294W        W70388  28.857  25.598  29.199 -0.0987  0.0543 -0.0915
27295W        W70389  25.426  27.234  26.650 -0.1098 -0.0450 -0.2309
27296W        W70390  28.006  28.107  29.139  0.2869 -0.0255 -0.0130
27297W        W70391  28.527  30.664  31.167  0.0029 -0.2140 -0.3075
27298W        W70392  29.834  27.359  29.952  0.0815 -0.1773 -0.2539
27299W        W70393  24.309  30.487  30.109 -0.0191 -0.2066  0.2440
27300W        W70394  27.175  25.878  31.851  0.1466 -0.1911 -0.0744
27301W        W70395  26.602  29.699  30.124 -0.0302 -0.1561 -0.4613
27302W        W70396  25.488  30.125  27.873 -0.2387 -0.2739 -0.2018
27303W        W70397  26.203  28.043  28.167  0.0204  0.3030 -0.1718
27304W        W70398  27.197  28.232  27.047  0.1690 -0.2003  0.3477
27305W        W70399  25.272  26.996  29.703 -0.0188  0.0261  0.1087
27306W        W70400  25.848  28.126  29.074 -0.1719  0.0052 -0.0099
27307W        W70401  29.125  27.087  28.941  0.1613 -0.0725  0.1727
27308W        W70402  25.889  24.949  29.885  0.0355 -0.0912 -0.0511
27309W        W70403  28.718  26.199  29.838  0.0800 -0.0692  0.0487
27310W        W70404  25.156  28.259  27.429 -0.0696  0.2169 -0.0967
27311W        W70405  29.014  27.838  29.599 -0.3637 -0.1703 -0.0716
27312W        W70406  28.996  27.571  28.746  0.1159 -0.1406 -0.1651
27313W        W70407  28.315  27.451  26.652 -0.1201 -0.2501 -0.1335
27314W        W70408  26.404  28.169  29.922  0.0419  0.0051 -0.0094
27315W        W70409  26.882  26.836  29.680  0.0325  0.3528 -0.0450
27316W        W70410  26.409  25.344   0.695 -0.3193  0.1208  0.2260
27317W        W70411  26.900  25.418  30.032  0.1868 -0.0356  0.0803
27318W        W70412  28.324  26.756  29.846 -0.2107  0.1196  0.0232
27319W        W70413  25.994  25.407  29.065 -0.3400 -0.3386 -0.1449
27320W        W70414  29.376  29.967  30.459  0.4652  0.0180 -0.1083
27321W        W70415  27.430  27.122  29.331 -0.0469  0.2698 -0.2737
27322W        W70416  25.259  29.983  30.097 -0.1786  0.2392 -0.1468
27323W        W70417  29.009  26.283  30.573  0.2532  0.0303 -0.0073
27324W        W70418  27.921  27.326  27.898  0.0155 -0.0309 -0.2062
27325W        W70419  27.859  27.488  30.395 -0.1604 -0.3063 -0.1111
27326W        W70420  29.233  28.955  28.853  0.0201  0.3231  0.4590
27327W        W70421  26.294  26.754  29.858  0.0685  0.0321  0.0213
27328W        W70422  26.588  27.199  28.878  0.0520  0.4370  0.0036
27329W        W70423  25.664  30.012  28.311 -0.3028 -0.1939  0.0904
27330W        W70424  26.999  26.888  29.234  0.0229 -0.0224 -0.1276
27331W        W70425  27.633  26.441  28.629  0.1118 -0.0671 -0.1771
27332W        W70426  28.975  29.473  29.897  0.1677 -0.1304  0.1092
27333W        W70427  27.532  27.765  28.553 -0.0987  0.0013  0.1925
27334W        W70428  25.309  27.631  30.619  0.0370  0.2688  0.0402
27335W        W70429  28.793  25.458  31.708 -0.3680 -0.2622  0.1091
27336W        W70430  29.278  27.667  30.753 -0.3242 -0.1326 -0.0140
27337W        W70431  27.831  27.712  29.940  0.1929  0.4032 -0.1638
27338W        W70432  25.958  26.551  27.739 -0.0133  0.2707 -0.3431
27339W        W70433  30.096  28.972  27.994  0.2712  0.0082 -0.1827
27340W        W70434  25.723  28.968  27.231  0.1204  0.0500  0.0129
27341W        W70435  24.695  27.064  27.321  0.0674  0.3171  0.1322
27342W        W70436  28.210  28.581  29.065  0.0445 -0.1625  0.0254
27343W        W70437  28.746  25.560  28.725 -0.2890  0.1348  0.1718
27344W        W70438  24.031  27.867   0.411 -0.0405  0.2288  0.0569
27345W        W70439  27.541  27.191  31.050  0.1741 -0.0262 -0.2793
27346W        W70440  26.469  25.370  28.052 -0.1482 -0.0201  0.0650
27347W        W70441  26.266  29.162  30.379  0.0231 -0.1166 -0.0407
27348W        W70442  28.065  26.431  28.912 -0.3073 -0.0994  0.0915
27349W        W70443  30.187  26.776  28.174  0.2794  0.0440  0.0152
27350W        W70444  26.381  27.772  30.289  0.4128  0.1237 -0.3510
27351W        W70445  29.314  29.632  29.366 -0.0869 -0.0067 -0.2181
27352W        W70446  27.674  25.635  28.969  0.1261 -0.0552  0.0106
27353W        W70447  28.540  26.148  27.645  0.1178 -0.2899 -0.1629
27354W        W70448  25.485  27.394  30.181 -0.0055  0.0589  0.2892
27355W        W70449  26.883  29.256  30.200 -0.3114  0.0342 -0.3557
27356W        W70450  27.733  28.264  29.942  0.1334  0.2500 -0.1490
27357W        W70451  27.051  26.629  27.188 -0.0757 -0.0192 -0.1869
27358W        W70452  29.425  28.288  27.470  0.3169  0.1440  0.0864
27359W        W70453  24.665  26.476  30.261 -0.1384  0.0897  0.1707
27360W        W70454  27.126  28.743   0.876 -0.2405  0.1232  0.1021
27361W        W70455  28.854  28.379  27.747  0.1379 -0.0358 -0.2111
27362W        W70456  28.547  23.949  30.801 -0.0927  0.0237  0.2803
27363W        W70457  28.031  26.353  27.818 -0.1541  0.2065  0.1135
27364W        W70458  28.028  25.988  29.254  0.1799 -0.1791 -0.1419
27365W        W70459  24.247  29.376  27.335  0.1707 -0.3764  0.4851
27366W        W70460  27.670  26.020  31.935 -0.0009 -0.0386 -0.2687
27367W        W70461  28.934  27.389  29.317  0.1025 -0.3257  0.3756
27368W        W70462  26.939  25.046  30.765 -0.0735  0.0055  0.1659
27369W        W70463  28.235  26.263   0.139 -0.0608  0.2265  0.2074
27370W        W70464  28.345  26.866  29.157  0.0980  0.2172  0.1896
27371W        W70465  28.569  27.789  29.353 -0.0077  0.2544 -0.1217
27372W        W70466  26.458  27.595  29.106  0.0160 -0.2841 -0.3387
27373W        W70467  26.581  25.720  30.896  0.2389  0.3321 -0.0223
27374W        W70468  26.613  26.942  30.304 -0.1704 -0.0810  0.2852
27375W        W70469  25.392  28.974  30.134  0.2656 -0.3863  0.0144
27376W        W70470  26.261  28.456  31.679 -0.0080  0.0574  0.1830
27377W        W70471  29.540  28.086  29.314 -0.2948  0.0926  0.2047
27378W        W70472  28.033  25.699  31.217  0.1506 -0.2925 -0.3267
27379W        W70473  28.130  25.590  28.426 -0.2587  0.2969 -0.0118
27380W        W70474  26.480  28.438  27.618 -0.1823 -0.3033  0.0154
27381W        W70475  25.874  27.739  27.837 -0.0206  0.2495 -0.1929
27382W        W70476  28.292  26.430  29.439 -0.1548 -0.2835  0.0078
27383W        W70477  27.083  29.037  29.212 -0.1852  0.0189  0.1548
27384W        W70478  27.612  28.006  26.728 -0.2684  0.0894  0.0482
27385W        W70479  26.679  29.431  30.602  0.0756 -0.2202 -0.2743
27386W        W70480  25.730  28.427  27.264 -0.0762  0.0434 -0.3454
27387W        W70481  30.152  25.110  30.675  0.1640  0.2190 -0.2929
27388W        W70482  25.463  29.641  27.090  0.2302 -0.0965  0.0378
27389W        W70483  27.606  28.267  28.919  0.1436 -0.1862  0.3469
27390W        W70484  25.892  26.949  28.778  0.3170  0.0521  0.1107
27391W        W70485  28.607  26.037  29.167 -0.1433 -0.0458  0.2545
27392W        W70486  28.863  28.587  28.969  0.0625  0.0188 -0.0389
27393W        W70487  26.421  26.428  30.259 -0.1977 -0.0352 -0.3103
27394W        W70488  27.755  25.270  29.400 -0.0203  0.0231 -0.0880
27395W        W70489  25.644  29.449  29.196  0.1054 -0.0997  0.0423
27396W        W70490  27.445  27.203  30.578 -0.0159 -0.0163  0.4969
27397W        W70491  29.460  27.366  28.590  0.0464 -0.2411  0.2459
27398W        W70492  26.275  28.218  30.817 -0.0192  0.2100  0.1021
27399W        W70493  26.156  27.292  30.212 -0.2326 -0.0316  0.0964
27400W        W70494  25.269  26.933  27.280  0.4070  0.1736  0.2278
27401W        W70495  28.175  27.423  29.814 -0.1564  0.1087 -0.0137
27402W        W70496  28.633  25.366  27.588  0.1747  0.0477  0.3597
27403W        W70497  26.483  28.497  28.867 -0.1974  0.4354  0.1213
27404W        W70498  26.120  29.319  29.021  0.1913 -0.2438  0.0826
27405W        W70499  26.176  27.510  28.193  0.1155 -0.0817  0.0384
27406W        W70500  26.655  28.151  28.369  0.2495 -0.0056  0.0490
27407W        W70501  28.394  25.265  30.587 -0.0998 -0.1576 -0.0137
27408W        W70502  26.966  29.200  31.461 -0.2848  0.2640  0.0986
27409W        W70503  27.750  26.421  29.609 -0.0338  0.2735 -0.1161
27410W        W70504  27.914  26.915  29.679 -0.1067 -0.1071 -0.0426
27411W        W70505  28.395  27.819  28.891  0.1137  0.1451 -0.0818
27412W        W70506  28.060  29.050  30.110 -0.0855  0.0332 -0.0894
27413W        W70507  27.749  25.905  30.545  0.1809 -0.2588 -0.1239
27414W        W70508  26.416  29.960  31.106 -0.0330 -0.0508 -0.1955
27415W        W70509  27.277  25.067  29.738  0.2107  0.2644  0.0515
27416W        W70510  28.812  28.570  28.446 -0.3440 -0.2956  0.2248
27417W        W70511  27.876  26.934  30.625  0.2607  0.3438  0.0615
27418W        W70512  27.530  27.364  26.733  0.1088  0.1220  0.0526
27419W        W70513  24.988  27.880  28.729  0.0941  0.0472 -0.0586
27420W        W70514  27.770  29.428  29.195 -0.0918  0.2484 -0.2535
27421W        W70515  26.474  25.637  30.330  0.3967 -0.1151 -0.0915
27422W        W70516  26.154  29.052  29.539 -0.2293 -0.0647 -0.0160
27423W        W70517  27.500  28.245  28.409  0.0848 -0.1677 -0.2049
27424W        W70518  25.591  28.665  29.810 -0.0942  0.3446  0.0581
27425W        W70519  29.643  25.129  28.653 -0.0900 -0.0735 -0.1586
27426W        W70520  28.435  28.107  27.763  0.1042  0.1754  0.3854
27427W        W70521  28.394  25.740  29.606 -0.0930 -0.1292  0.3900
27428W        W70522  28.480  27.139  30.607 -0.0938  0.2145 -0.0895
27429W        W70523  28.362  27.192  27.673  0.0103  0.0196  0.1088
27430W        W70524  28.663  24.584  31.360  0.0619  0.1592 -0.2466
27431W        W70525  26.600  26.261  28.986  0.1833  0.2533 -0.4507
27432W        W70526  27.554  28.488  27.251 -0.3627  0.0198 -0.2181
27433W        W70527  26.848  26.963  30.752 -0.4816  0.0977 -0.0911
27434W        W70528  27.673  28.948   0.088 -0.2787 -0.1526  0.2260
27435W        W70529  25.059  28.183  31.394 -0.1162  0.2715  0.1832
27436W        W70530  28.164  25.883  27.982  0.2078 -0.4642 -0.1063
27437W        W70531  27.712  25.895  27.808 -0.0428  0.2054  0.0804
27438W        W70532  26.461  27.634  29.730 -0.3877 -0.0560  0.1867
27439W        W70533  28.025  29.041  29.016 -0.1260 -0.0421 -0.1699
27440W        W70534  26.081  28.991  27.558  0.0713  0.1013 -0.2098
27441W        W70535  28.249  27.250  28.687  0.3913  0.3618  0.3750
27442W        W70536  26.695  27.402  30.465  0.2195 -0.0783 -0.1638
27443W        W70537  29.469  27.387  29.516 -0.0049 -0.2462  0.1255
27444W        W70538  26.928  26.860  28.571  0.1590 -0.2618  0.0859
27445W        W70539  25.981  28.915  29.994 -0.1062 -0.1887  0.0978
27446W        W70540  25.938  25.789  30.280 -0.1280 -0.1398 -0.0926
27447W        W70541  27.204  28.057  30.864 -0.4426  0.0776 -0.3348
27448W        W70542  28.876  26.658  30.084 -0.0244  0.0496 -0.0789
27449W        W70543  28.521  26.237  30.777 -0.1872 -0.1691 -0.0499
27450W        W70544  28.564  25.996  30.287  0.2247  0.1241  0.0573
27451W        W70545  26.222  27.177  30.696  0.2759  0.3226 -0.1731
27452W        W70546  25.821  24.331  31.966 -0.0365  0.0328 -0.2350
27453W        W70547  28.375  28.807  28.668  0.0934 -0.0559  0.3458
27454W        W70548  30.019  27.324  28.251 -0.1071  0.0771  0.0717
27455W        W70549  27.189  26.950  31.415 -0.0459  0.1456 -0.1715
27456W        W70550  30.248  27.653  28.801 -0.1621  0.3122  0.1503
27457W        W70551  28.075  28.163  28.195 -0.1477  0.1081  0.0459
27458W        W70552  26.479  28.700  29.702 -0.0371  0.0831 -0.1329
27459W        W70553  28.146  26.245  30.455  0.0217  0.0749  0.0597
27460W        W70554  27.390  26.827  28.890  0.0519 -0.3470 -0.0571
27461W        W70555  27.914  25.830   0.911 -0.1332  0.0307  0.0923
27462W        W70556  27.450  29.591  27.676  0.2296  0.1362  0.4329
27463W        W70557  27.284  28.589  29.157 -0.0923  0.2409 -0.1320
27464W        W70558  27.089  27.335  29.008  0.1199 -0.0681  0.1084
27465W        W70559  24.429  27.528  28.822  0.1815  0.2130 -0.0194
27466W        W70560  27.312  28.543  29.638  0.0557  0.1570  0.1503
27467W        W70561  26.436  26.633  28.653 -0.1274  0.1075 -0.0262
27468W        W70562  27.298  27.686  26.983  0.1413  0.1182  0.1361
27469W        W70563  27.543  28.924  30.547  0.0525 -0.0563  0.0550
27470W        W70564  29.122  26.446  31.489 -0.0964 -0.2627  0.2937
27471W        W70565  29.146  25.634  28.366 -0.0426 -0.0104  0.2613
27472W        W70566  29.349  25.902  30.811  0.3535 -0.0894  0.5974
27473W        W70567  26.447  26.959  27.777  0.2628  0.3290  0.0247
27474W        W70568  27.408  26.787  29.845  0.0438 -0.2370  0.0381
27475W        W70569  25.732  29.948  29.216 -0.1339  0.0996  0.3457
27476W        W70570  24.719  29.177  31.314  0.0876 -0.2029  0.3102
27477W        W70571  27.697  28.825  29.802  0.0109 -0.0952 -0.1500
27478W        W70572  29.057  25.411  31.108  0.0640 -0.0620  0.0651
27479W        W70573  28.263  27.919  29.858 -0.0450 -0.1373  0.1564
27480W        W70574  26.882  27.621  29.426 -0.2695  0.2845 -0.1231
27481W        W70575  28.208  28.473  30.022  0.0096  0.2454  0.1540
27482W        W70576  27.103  27.310  29.714  0.0601 -0.5556  0.0941
27483W        W70577  26.617  27.203  29.913  0.1782  0.2420  0.2814
27484W        W70578  26.508  26.998   0.122 -0.0187  0.0441 -0.1901
27485W        W70579  27.789  28.544  29.371  0.2132  0.0793 -0.2908
27486W        W70580  26.052  29.767  28.828 -0.0590  0.1377 -0.0763
27487W        W70581  27.083  27.142  30.211  0.1388  0.1607 -0.4397
27488W        W70582  27.374  26.698  30.899 -0.0803 -0.1255  0.0869
27489W        W70583  27.853  28.486  30.385 -0.0345  0.3105 -0.0861
27490W        W70584  27.244  28.095  29.960  0.0324  0.0622 -0.1227
27491W        W70585  27.862  29.780  27.870 -0.1224  0.0043  0.1369
27492W        W70586  24.550  31.271  31.134 -0.2001 -0.2668 -0.3375
27493W        W70587  24.922  28.160  31.905 -0.1485 -0.2894 -0.0124
27494W        W70588  25.836  29.839  27.529 -0.0030 -0.0404 -0.0546
27495W        W70589  28.587  28.685  26.888  0.0652 -0.1872 -0.3316
27496W        W70590  29.064  27.602  28.268  0.0708 -0.0809 -0.1297
27497W        W70591  28.484  28.286  28.657  0.1144  0.2058  0.1263
27498W        W70592  27.331  25.542  29.718 -0.0181 -0.0154 -0.3374
27499W        W70593  25.200  29.743  28.431 -0.0576 -0.1794 -0.1751
27500W        W70594  24.828  29.234  28.431  0.0302 -0.3610 -0.0461
27501W        W70595  29.670  27.353  27.509  0.0516 -0.2162 -0.3022
27502W        W70596  26.837  27.717  29.999 -0.3363  0.1603  0.1603
27503W        W70597  28.586  28.314  30.637 -0.0459 -0.3227  0.0586
27504W        W70598  29.649  25.658  28.686 -0.2756 -0.1052  0.3090
27505W        W70599  29.337  29.807  29.972 -0.0060  0.2566 -0.0130
27506W        W70600  29.661  26.923  28.285 -0.0814 -0.2343 -0.0895
27507W        W70601  27.009  30.016  29.575 -0.0731 -0.0073 -0.3450
27508W        W70602  27.706  27.422  29.576  0.0384  0.0437  0.2017
27509W        W70603  27.368  25.834  29.284 -0.1133 -0.0057  0.1630
27510W        W70604  26.256  26.494  31.258 -0.0223  0.0059  0.4976
27511W        W70605  28.801  26.194   0.800 -0.0698  0.0998  0.0997
27512W        W70606  25.997  28.860  28.936 -0.0198 -0.4112 -0.0425
27513W        W70607  29.544  27.989  28.168  0.1970 -0.1648 -0.0147
27514W        W70608  25.065  27.302  27.620  0.0724 -0.3758  0.0475
27515W        W70609  27.310  26.543  29.371  0.2518  0.1231 -0.0712
27516W        W70610  28.497  25.344  31.085  0.1401 -0.0415  0.1002
27517W        W70611  26.878  28.884  26.474  0.0426  0.2473 -0.0564
27518W        W70612  29.011  27.996  30.542 -0.1018  0.1003 -0.0575
27519W        W70613  27.407  29.215  28.903 -0.0257  0.1478  0.1002
27520W        W70614  26.516  30.222  28.883 -0.1468 -0.0230 -0.0162
27521W        W70615  26.560  28.832  30.156 -0.1211 -0.0484 -0.0840
27522W        W70616  24.608  26.922  27.917 -0.0070  0.1678  0.0429
27523W        W70617  30.260  28.826  29.411  0.2797  0.0234 -0.0320
27524W        W70618  26.824  26.731  31.689  0.0614  0.2252 -0.0892
27525W        W70619  29.358  25.618  29.524  0.0346 -0.2127 -0.1845
27526W        W70620  26.796  27.981  27.825  0.1314  0.0948  0.5051
27527W        W70621  28.714  26.703  29.542  0.0521 -0.2882 -0.0920
27528W        W70622  26.704  28.104  29.065 -0.0049 -0.1187  0.3333
27529W        W70623  24.856  27.876  30.687 -0.2792 -0.1689  0.0118
27530W        W70624  28.599  27.291  29.010 -0.2471  0.3624  0.0146
27531W        W70625  27.560  26.553  31.390  0.1192 -0.2138 -0.1690
27532W        W70626  28.477  26.084  28.641 -0.1145 -0.3384 -0.1764
27533W        W70627  27.724  29.483  31.155  0.2584 -0.3285 -0.1433
27534W        W70628  26.955  26.181  29.364 -0.2161 -0.1356  0.2188
27535W        W70629  28.718  26.340  28.333 -0.1001  0.3076  0.0302
27536W        W70630  25.386  27.842  27.726  0.2972  0.0647  0.1622
27537W        W70631  26.198  27.699  30.805 -0.2291 -0.1472  0.3715
27538W        W70632  27.357  29.774  31.453 -0.0718 -0.0399 -0.0940
27539W        W70633  24.873  27.376  28.573 -0.0011 -0.2187  0.4955
27540W        W70634  28.324  27.628  27.939  0.0622  0.3843  0.0702
27541W        W70635  29.437  26.750  30.260  0.2108  0.3848  0.0925
27542W        W70636  28.023  29.454  25.600 -0.3967 -0.1869  0.1949
27543W        W70637  28.853  25.815  30.799 -0.1228 -0.0998  0.1682
27544W        W70638  27.987  28.664  30.885  0.1907  0.0890 -0.1800
27545W        W70639  25.315  27.597  29.789  0.1011  0.0448  0.1902
27546W        W70640  27.899  29.279  29.690 -0.2679 -0.1499  0.1238
27547W        W70641  29.916  29.965  30.440 -0.3501 -0.4415 -0.1312
27548W        W70642  27.822  25.193  28.773  0.0704 -0.0723 -0.0802
27549W        W70643  27.316  26.756  30.412 -0.2552  0.0646 -0.2446
27550W        W70644  25.737  29.422  28.374 -0.3660  0.4390 -0.3037
27551W        W70645  29.209  26.880  31.291 -0.2434  0.0805 -0.2175
27552W        W70646  27.581  26.031  31.470 -0.1193  0.0179 -0.0425
27553W        W70647  26.747  28.514  27.022 -0.3811 -0.0302  0.0460
27554W        W70648  29.297  25.172  31.755  0.1794 -0.2718  0.1910
27555W        W70649  26.201  30.046  29.225 -0.0661 -0.0385  0.0154
27556W        W70650  25.262  27.125  31.331 -0.2694 -0.1505 -0.0300
27557W        W70651  27.110  27.917  28.288 -0.0869 -0.0301  0.3136
27558W        W70652  26.871  28.633  30.500 -0.1797 -0.0687  0.0482
27559W        W70653  26.584  29.713  28.846  0.0676 -0.1764  0.1462
27560W        W70654  27.215  30.111  27.008  0.4912 -0.0895  0.1564
27561W        W70655  28.973  29.364  29.074  0.2396 -0.1109 -0.1659
27562W        W70656  27.918  27.667  28.926  0.3009  0.1470  0.0333
27563W        W70657  28.076  27.616  28.390 -0.1397 -0.0543  0.2021
27564W        W70658  28.100  25.770  30.152  0.4825  0.2329  0.3036
27565W        W70659  28.985  26.202  29.435  0.0267 -0.3796  0.2944
27566W        W70660  29.066  26.642  28.616  0.2308 -0.1991 -0.2209
27567W        W70661  26.820  28.110  29.643 -0.2693 -0.1124  0.4107
27568W        W70662  26.407  26.368  27.743 -0.2373  0.0693  0.0884
27569W        W70663  25.773  28.702  26.729 -0.0759  0.1121 -0.0034
27570W        W70664  26.354  28.022  29.436 -0.2064  0.1127  0.1104
27571W        W70665  25.259  26.445  30.803 -0.0835 -0.0621  0.1921
27572W        W70666  26.095  25.614  30.727 -0.0199 -0.1511 -0.0149
27573W        W70667  26.145  27.465  28.738 -0.0947 -0.0227  0.0264
27574W        W70668  27.545  27.335  28.833 -0.0599 -0.0551  0.0039
27575W        W70669  29.487  28.626  29.162  0.2199  0.2172 -0.3278
27576W        W70670  28.922  25.672  29.692  0.0443 -0.0286 -0.3354
27577W        W70671  26.676  27.592  28.554  0.1688  0.0318 -0.1566
27578W        W70672  28.398  27.851  27.094  0.2943 -0.1414  0.0176
27579W        W70673  28.341  30.099  29.218  0.3320  0.1913 -0.0429
27580W        W70674  27.733  26.453  27.395  0.5162  0.0446 -0.3166
27581W        W70675  29.371  28.159  30.865  0.0514  0.0840  0.0121
27582W        W70676  25.727  28.307  27.761  0.0580 -0.2323  0.0657
27583W        W70677  27.843  26.246   0.483 -0.0448  0.3152 -0.1905
27584W        W70678  27.102  26.469  31.277 -0.1728 -0.2053 -0.2778
27585W        W70679  26.707  26.189  28.510  0.1164 -0.0383 -0.2309
27586W        W70680  26.946  25.888  29.763  0.1266  0.2445 -0.1506
27587W        W70681  27.921  28.930  28.348 -0.1859  0.2005 -0.0951
27588W        W70682  29.455  29.071  26.758  0.0514  0.0647 -0.1759
27589W        W70683  26.905  28.932  29.755  0.2409  0.1763  0.0155
27590W        W70684  27.497  29.462  30.693 -0.0787 -0.2524  0.0971
27591W        W70685  26.802  26.446  30.685  0.0580 -0.0789 -0.0821
27592W        W70686  28.939  28.021  27.416 -0.1029 -0.2398  0.0582
27593W        W70687  27.066  29.099  30.698  0.1263 -0.0134  0.4389
27594W        W70688  28.606  29.068  29.027 -0.0276  0.0512  0.1026
27595W        W70689  28.664  25.529  30.109  0.1126 -0.2999  0.2443
27596W        W70690  28.520  27.208  29.529  0.2072  0.0693  0.2285
27597W        W70691  25.318  25.646  29.650  0.0844 -0.0762  0.0027
27598W        W70692  25.619  28.431   0.090 -0.2592  0.0910  0.1857
27599W        W70693  28.350  27.778  31.264  0.4104  0.0488  0.1142
27600W        W70694  27.103  27.857  28.839 -0.2107  0.5260  0.0620
27601W        W70695  29.615  27.153  29.113 -0.0262  0.1762 -0.0434
27602W        W70696  28.151  27.339  29.183  0.2752 -0.1196  0.0912
27603W        W70697  25.783  28.659  29.376  0.0368  0.2777  0.1822
27604W        W70698  28.283  25.625  28.959 -0.0360  0.1506 -0.0943
27605W        W70699  27.937  26.698  30.168  0.0178 -0.1680 -0.1636
27606W        W70700  27.188  28.162  29.261  0.0520 -0.1092 -0.2172
27607W        W70701  27.253  28.895  30.142  0.0128  0.2531  0.0183
27608W        W70702  27.141  27.443  28.512  0.1318  0.2253  0.1375
27609W        W70703  30.019  27.188  29.539  0.0724  0.1737  0.2687
27610W        W70704  27.631  28.569  31.218  0.1905 -0.4298  0.3113
27611W        W70705  28.880  27.846  31.095  0.4421 -0.1113  0.1898
27612W        W70706  26.967  29.503  29.811 -0.2127  0.2054  0.1395
27613W        W70707  26.653  28.175  30.400 -0.0993  0.0106 -0.1791
27614W        W70708  26.121  26.517  29.039  0.2103 -0.2892  0.0301
27615W        W70709  26.251  28.506  29.305 -0.0203 -0.3124 -0.0345
27616W        W70710  26.826  28.560  29.327 -0.0037 -0.0324 -0.1916
27617W        W70711  28.367  25.966  31.562 -0.1868 -0.1722  0.2421
27618W        W70712  26.140  27.183  29.645 -0.0781  0.1839  0.0648
27619W        W70713  29.361  24.663  27.732 -0.2982 -0.4481 -0.0885
27620W        W70714  26.832  29.876  30.802 -0.2325  0.0505  0.1792
27621W        W70715  26.517  29.036  29.221 -0.4511 -0.4198 -0.0903
27622W        W70716  29.629  26.591  31.156 -0.0128 -0.1201  0.0523
27623W        W70717  27.988  26.306  31.563  0.0790 -0.0620 -0.0508
27624W        W70718  27.212  28.369  31.310 -0.1202  0.2842 -0.0444
27625W        W70719  26.116  30.313  31.815  0.2417 -0.1352  0.4481
27626W        W70720  26.767  28.537   0.627  0.0099 -0.1346 -0.3222
27627W        W70721  27.627  27.957  30.370  0.0718 -0.1498  0.0725
27628W        W70722  28.225  27.425   0.355 -0.1181 -0.1614 -0.1399
27629W        W70723  27.921  26.637  31.059  0.0150 -0.0092  0.0078
27630W        W70724  28.479  25.830   0.619  0.0593  0.1010  0.0601
27631W        W70725  29.367  28.610  31.370  0.0669 -0.4015 -0.3299
27632W        W70726  27.355  27.542  30.110 -0.2283 -0.2614  0.0462
27633W        W70727  26.290  24.848  31.377 -0.1656  0.0453  0.0957
27634W        W70728  29.083  27.190  31.729 -0.0577 -0.0454 -0.3788
27635W        W70729  27.367  28.978  31.128 -0.0610 -0.0372  0.1522
27636W        W70730  28.876  26.902   0.837  0.0168  0.0421 -0.2540
27637W        W70731  26.773  28.362  30.902  0.0848  0.0958 -0.0157
27638W        W70732  26.007  28.938  31.315  0.0564 -0.0367  0.0450
27639W        W70733  27.828  27.017  31.442 -0.3371  0.2246  0.0884
27640W        W70734  24.872  26.693  30.727 -0.0573 -0.0095 -0.3575
27641W        W70735  25.784  25.826  31.911 -0.4343 -0.3863 -0.3091
27642W        W70736  26.255  25.683  31.790 -0.3143 -0.1497 -0.0818
27643W        W70737  26.771  29.586   0.195 -0.2528 -0.2334 -0.1663
27644W        W70738  28.185  26.671  31.854 -0.1486  0.0150  0.2243
27645W        W70739  27.633  25.321   1.630  0.1551 -0.0588 -0.0830
27646W        W70740  27.350  27.068   1.127  0.0326 -0.4635 -0.0865
27647W        W70741  28.611  26.319  31.301 -0.4699  0.1710 -0.1844
27648W        W70742  26.673  26.227  31.134  0.0179 -0.0629  0.2226
27649W        W70743  26.189  28.496  30.380  0.1919 -0.0681  0.2159
27650W        W70744  27.105  27.810  30.434 -0.2798  0.1695  0.2008
27651W        W70745  26.669  28.041   0.255 -0.1715  0.2139 -0.2664
27652W        W70746  27.929  29.019  31.238  0.1623 -0.0246  0.0254
27653W        W70747  27.687  26.494   0.007  0.1554 -0.0189 -0.0778
27654W        W70748  29.668  27.546  31.109 -0.1131 -0.1641 -0.0624
27655W        W70749  26.683  25.765  31.512 -0.0200 -0.1268 -0.1223
27656W        W70750  25.100  27.662   0.022  0.0332 -0.1838  0.1861
27657W        W70751  25.725  26.989  29.982  0.1925  0.1098  0.1433
27658W        W70752  26.985  27.708  31.770 -0.0252  0.0759  0.0030
27659W        W70753  27.894  28.271   0.011  0.3369  0.0904  0.2064
27660W        W70754  28.320  27.122  31.506  0.0642  0.0676  0.1637
27661W        W70755  28.128  27.744   0.815  0.1165  0.1115  0.0500
27662W        W70756  28.941  28.402  31.058 -0.0099  0.0884  0.2795
27663W        W70757  28.293  24.962  31.339  0.0009 -0.2203  0.2851
27664W        W70758  26.246  25.630  31.222 -0.2600 -0.1538  0.0005
27665W        W70759  27.857  30.292  31.561  0.0768 -0.0913 -0.1841
27666W        W70760  26.296  26.053  31.475  0.3118  0.1708 -0.0504
27667W        W70761  27.970  27.185   0.002  0.1018 -0.0408 -0.1353
27668W        W70762  29.250  25.546   0.747  0.3115 -0.0441  0.1758
27669W        W70763  26.513  27.650   0.593  0.1767  0.2618  0.0612
27670W        W70764  28.133  27.127  30.240  0.1725 -0.3095 -0.0600
27671W        W70765  24.500  29.690  31.318  0.2568 -0.2475 -0.2206
27672W        W70766  28.759  27.457  31.486 -0.3449  0.0533 -0.1876
27673W        W70767  29.688  25.575   0.345 -0.0655 -0.0740  0.0267
27674W        W70768  26.764  26.229  31.631 -0.0857 -0.3792  0.0683
27675W        W70769  27.180  29.494  31.150  0.1824  0.0825  0.0854
27676W        W70770  27.431  27.578   0.998 -0.2497  0.1729 -0.1276
27677W        W70771  27.286  28.278  30.434 -0.1766  0.1658 -0.0154
27678W        W70772  29.288  26.303   0.105  0.2217 -0.1128 -0.1696
27679W        W70773  27.074  30.457   0.944  0.1060  0.0122 -0.0959
27680W        W70774  25.219  29.156  31.587 -0.0566 -0.1891  0.0808
27681W        W70775  25.698  27.720  31.371  0.2254  0.0586  0.2906
27682W        W70776  26.965  27.379  31.337 -0.0912 -0.2339 -0.1057
27683W        W70777  25.915  27.997  31.817 -0.0615 -0.1547  0.0736
27684W        W70778  26.717  26.726  31.139 -0.0172  0.0519 -0.0415
27685W        W70779  25.779  25.460  29.925 -0.3398  0.1337 -0.3420
27686W        W70780  27.564  27.947  31.196  0.0911  0.3491 -0.2774
27687W        W70781  28.086  28.197   0.617 -0.3160  0.1180  0.0059
27688W        W70782  29.613  27.496   0.642  0.0076  0.0219 -0.0721
27689W        W70783  27.140  30.525  18.306  0.1998 -0.1694  0.1686
27690W        W70784  26.679  30.337  17.584  0.0987  0.2661  0.3053
27691W        W70785  27.882  29.277  17.391 -0.2080 -0.3291  0.0332
27692W        W70786  28.132  30.421  16.758 -0.5125  0.2258 -0.0363
27693W        W70787  23.882  29.927  17.540 -0.2092  0.0033  0.0658
27694W        W70788  29.057  32.642  17.820 -0.3043  0.1217 -0.1585
27695W        W70789  25.851  28.914  19.896  0.0373 -0.1571 -0.1716
27696W        W70790  27.042  32.641  17.006 -0.1811 -0.2557  0.0585
27697W        W70791  29.329  32.141  19.036  0.2251 -0.1056 -0.0426
27698W        W70792  27.852  31.770  17.095  0.2287  0.0319 -0.1611
27699W        W70793  25.852  30.306  18.099  0.3526 -0.2135 -0.0670
27700W        W70794  25.273  31.910  17.513  0.0526 -0.3840  0.2518
27701W        W70795  26.566  30.275  16.589  0.0279 -0.1253 -0.0663
27702W        W70796  26.174  29.030  17.182  0.1426  0.1145  0.2601
27703W        W70797  27.840  31.074  19.476  0.1161  0.0232 -0.1388
27704W        W70798  26.295  31.181  17.271  0.0013 -0.2063 -0.0835
27705W        W70799  26.800  28.940  20.563  0.2326  0.1963  0.0925
27706W        W70800  25.820  29.372  17.063  0.0146 -0.1805 -0.0371
27707W        W70801  26.113  32.633  16.542  0.0560 -0.1363 -0.1702
27708W        W70802  26.234  31.030  19.444  0.1046  0.1336 -0.1145
27709W        W70803  29.493  29.307  18.256  0.1450 -0.0363  0.1194
27710W        W70804  27.763  31.353  16.744  0.1565 -0.1923  0.0532
27711W        W70805  25.430  31.375  16.517 -0.3172 -0.1072 -0.0938
27712W        W70806  24.370  31.714  18.467 -0.0224 -0.1083 -0.1543
27713W        W70807  27.197  30.368  20.301 -0.2801 -0.3223  0.2198
27714W        W70808  28.189  30.109  17.137  0.0880 -0.1234  0.4185
27715W        W70809  28.065  30.408  17.848  0.0843 -0.4695  0.1388
27716W        W70810  25.463  30.071  17.699  0.0956  0.4431 -0.0445
27717W        W70811  26.618  31.913  17.378 -0.0471 -0.0872 -0.2055
27718W        W70812  28.435  29.283  19.475 -0.0435 -0.0595 -0.3362
27719W        W70813  25.255  30.210  18.154 -0.3252 -0.3790 -0.0899
27720W        W70814  24.281  32.140  18.216 -0.3725  0.0790 -0.1410
27721W        W70815  26.563  32.446  17.271 -0.1227  0.1969  0.2310
27722W        W70816  29.251  31.760  17.119  0.1719  0.0420 -0.0610
27723W        W70817  27.840  32.051  20.403 -0.1070  0.5419 -0.1304
27724W        W70818  25.937  30.967  18.693  0.3275 -0.4551  0.4194
27725W        W70819  25.344  33.670  17.304  0.2060  0.3275  0.1215
27726W        W70820  28.212  32.657  18.729  0.1428  0.0378  0.2031
27727W        W70821  26.397  32.572  19.162  0.5823  0.4441  0.0574
27728W        W70822  27.060  30.331  18.751  0.1234 -0.0800 -0.1371
27729W        W70823  28.407  30.186  17.591  0.2278  0.0848 -0.0887
27730W        W70824  26.894  33.577  16.062  0.1853 -0.0070 -0.2592
27731W        W70825  27.066  31.725  17.152 -0.4192 -0.1280  0.1771
27732W        W70826  25.494  30.666  19.592 -0.0542  0.0528 -0.2795
27733W        W70827  24.908  30.628  17.878 -0.0646 -0.3946 -0.0927
27734W        W70828  29.433  29.183  19.477 -0.1428  0.0003 -0.1399
27735W        W70829  26.030  33.439  16.640 -0.1539  0.1415 -0.0834
27736W        W70830  27.034  31.381  16.739  0.0329 -0.0511  0.0466
27737W        W70831  27.177  30.510  15.788  0.0121  0.0529 -0.0801
27738W        W70832  27.869  30.373  17.394  0.2298 -0.2174  0.1164
27739W        W70833  28.378  28.706  18.127  0.2855  0.2093  0.2859
27740W        W70834  26.386  34.165  16.435 -0.1054  0.1055  0.0214
27741W        W70835  25.082  29.698  17.663 -0.0243 -0.0790  0.0759
27742W        W70836  27.570  31.599  18.818  0.0090 -0.4786 -0.0071
27743W        W70837  27.404  31.049  16.774  0.0735 -0.2387  0.0094
27744W        W70838  29.249  29.200  20.972  0.0919 -0.0440 -0.0771
27745W        W70839  25.765  31.047  19.653 -0.2457  0.1286  0.2048
27746W        W70840  24.536  30.457  18.166 -0.1900 -0.0648  0.0295
27747W        W70841  28.654  31.621  17.825 -0.1476 -0.0664  0.0124
27748W        W70842  29.235  31.873  17.624 -0.0347 -0.0375 -0.2120
27749W        W70843  27.445  31.733  16.817 -0.0237 -0.4666  0.2720
27750W        W70844  26.561  31.032  16.843 -0.1680  0.1387 -0.0413
27751W        W70845  25.870  30.226  20.054  0.1123  0.1285 -0.0933
27752W        W70846  24.935  30.860  21.137 -0.1116  0.3618 -0.0101
27753W        W70847  26.609  30.697  16.367  0.2482  0.0989  0.1747
27754W        W70848  26.597  31.422  19.526  0.0194  0.1965  0.0918
27755W        W70849  27.347  31.854  18.467 -0.1891  0.0884  0.1109
27756W        W70850  28.494  30.488  17.214  0.1453  0.1258 -0.1601
27757W        W70851  26.301  30.717  17.504  0.1104 -0.4750  0.3877
27758W        W70852  26.894  32.285  19.241  0.1994  0.6517 -0.1125
27759W        W70853  28.075  31.788  16.022 -0.0898  0.1047 -0.1285
27760W        W70854  28.588  29.937  18.673 -0.0135 -0.0824 -0.2175
27761W        W70855  29.599  29.190  19.978 -0.0805  0.1580 -0.0910
27762W        W70856  26.596  32.466  16.087 -0.2393 -0.2362  0.1983
27763W        W70857  25.962  32.536  17.861 -0.2123 -0.0649 -0.0136
27764W        W70858  28.435  30.562  19.364  0.1779  0.0582  0.1290
27765W        W70859  28.162  30.960  17.219  0.1782  0.0714 -0.0050
27766W        W70860  27.013  30.815  18.822  0.2087  0.1044  0.0183
27767W        W70861  26.959  29.553  20.936  0.1147  0.0896 -0.2120
27768W        W70862  25.514  31.612  19.113 -0.0036  0.0184 -0.3881
27769W        W70863  25.681  31.939  16.789 -0.1483  0.0936  0.1141
27770W        W70864  25.622  32.795  17.543 -0.2097 -0.1072  0.2005
27771W        W70865  25.559  31.832  16.298 -0.0214  0.3503  0.0002
27772W        W70866  25.210  29.668  19.626 -0.0998 -0.1329  0.0918
27773W        W70867  25.426  30.581  17.919 -0.4934 -0.0769 -0.0900
27774W        W70868  28.756  31.086  19.109 -0.1367  0.3915 -0.1057
27775W        W70869  25.553  29.012  18.809 -0.0131  0.2247 -0.0064
27776W        W70870  28.849  29.032  18.144  0.0321 -0.0077  0.1842
27777W        W70871  26.311  31.192  16.415 -0.2239  0.2188 -0.5335
27778W        W70872  30.839  31.778  17.513 -0.1649  0.0680 -0.1318
27779W        W70873  28.967  29.087  17.388 -0.0437  0.2822  0.1078
27780W        W70874  27.832  31.814  16.530 -0.2866  0.0248  0.1978
27781W        W70875  25.269  28.200  18.878  0.3861  0.1911 -0.3293
27782W        W70876  24.944  30.952  16.403 -0.2458 -0.1071  0.1682
27783W        W70877  25.358  28.610  19.109 -0.0659  0.1170  0.0075
27784W        W70878  25.267  29.854  17.230 -0.1059 -0.2518 -0.1484
27785W        W70879  27.136  31.405  19.180 -0.0131  0.0157 -0.0603
27786W        W70880  24.491  29.789  15.609  0.0158  0.1723  0.0978
27787W        W70881  28.122  29.678  19.567  0.0007 -0.0317 -0.1819
27788W        W70882  25.371  31.102  16.940  0.1501  0.1061  0.1721
27789W        W70883  24.651  32.123  16.691 -0.0241 -0.2558  0.0883
27790W        W70884  28.950  30.563  19.995 -0.2932 -0.0867  0.2330
27791W        W70885  26.387  33.348  16.174 -0.0372 -0.1312  0.2013
27792W        W70886  28.286  30.876  18.986  0.1177 -0.0802  0.3990
27793W        W70887  29.780  30.800  18.652  0.1421  0.1765  0.1161
27794W        W70888  25.529  29.911  20.319  0.2480 -0.3504 -0.0717
27795W        W70889  25.005  30.610  16.066 -0.0289  0.2009 -0.0347
27796W        W70890  25.504  30.831  18.817  0.1391 -0.0252  0.1919
27797W        W70891  25.812  31.124  17.321 -0.0715 -0.0659 -0.1008
27798W        W70892  24.869  30.213  17.084 -0.0403 -0.0196  0.2905
27799W        W70893  28.766  32.460  19.138 -0.3143 -0.0765 -0.0836
27800W        W70894  27.425  32.004  17.453 -0.0263 -0.0487  0.1213
27801W        W70895  26.164  31.271  17.742  0.1719  0.1499 -0.1686
27802W        W70896  28.814  29.465  19.054  0.1653  0.3346 -0.0408
27803W        W70897  30.011  32.746  18.237 -0.0598  0.2585  0.1400
27804W        W70898  29.282  30.965  17.723 -0.1355  0.5734  0.0048
27805W        W70899  25.233  29.294  15.852 -0.2309  0.0626  0.0744
27806W        W70900  27.501  32.457  17.215  0.0729  0.0396 -0.3321
27807W        W70901  26.587  32.617  16.813 -0.0742 -0.1353 -0.1574
27808W        W70902  26.052  31.504  16.906 -0.0678  0.0862  0.1175
27809W        W70903  26.690  31.324  18.028  0.1484 -0.2411  0.3136
27810W        W70904  28.854  30.219  19.480  0.0497 -0.1116 -0.0998
27811W        W70905  25.878  30.273  18.809 -0.1588  0.1246 -0.2726
27812W        W70906  28.062  30.163  19.853  0.2271 -0.2723  0.2315
27813W        W70907  26.639  31.461  17.058  0.2575 -0.1394 -0.0397
27814W        W70908  26.246  31.653  19.267  0.1311  0.1048 -0.1771
27815W        W70909  27.413  29.874  18.150  0.3786 -0.3806 -0.0696
27816W        W70910  27.181  29.816  17.160  0.2220  0.3209 -0.5153
27817W        W70911  26.771  31.756  19.166 -0.0637  0.2167 -0.3250
27818W        W70912  26.984  30.761  16.751  0.1361  0.0439  0.0860
27819W        W70913  27.762  30.687  16.983 -0.1365  0.1543  0.0736
27820W        W70914  27.061  29.538  16.685 -0.0676  0.2434  0.2569
27821W        W70915  25.144  30.579  18.524 -0.1780 -0.1416 -0.3276
27822W        W70916  27.537  33.098  17.928 -0.0659  0.4755  0.2185
27823W        W70917  26.246  30.941  18.147  0.0095  0.3212  0.0566
27824W        W70918  25.889  30.705  17.816 -0.1029  0.3171  0.0469
27825W        W70919  29.214  32.329  17.408 -0.1106 -0.0583  0.1765
27826W        W70920  24.588  31.661  18.000  0.0504 -0.1753  0.1387
27827W        W70921  27.779  29.729  20.438  0.1919  0.0473 -0.0714
27828W        W70922  29.461  32.740  17.148  0.3542  0.0346  0.0465
27829W        W70923  25.989  29.630  18.438  0.2242  0.3583  0.0678
27830W        W70924  25.724  29.854  16.878  0.3990 -0.3509  0.3568
27831W        W70925  29.023  29.750  18.678 -0.3413 -0.2926  0.0878
27832W        W70926  25.628  32.781  15.959  0.2739  0.1064 -0.1994
27833W        W70927  27.830  29.960  17.878 -0.1319 -0.0725 -0.0441
27834W        W70928  28.521  29.076  19.030 -0.1108 -0.0403  0.0724
27835W        W70929  25.888  30.288  19.550  0.3223  0.1073  0.0406
27836W        W70930  29.046  31.785  19.861  0.3618  0.0168  0.1104
27837W        W70931  28.681  30.928  18.540  0.0071  0.0668 -0.1544
27838W        W70932  27.619  28.702  19.839 -0.0757  0.2304  0.1874
27839W        W70933  26.707  32.222  17.719 -0.1213  0.1213  0.3384
27840W        W70934  28.067  28.945  18.853 -0.1505  0.1920 -0.1625
27841W        W70935  27.451  29.918  20.120 -0.1503 -0.0045 -0.3827
27842W        W70936  25.964  32.350  18.877 -0.0388  0.1003  0.0065
27843W        W70937  27.576  32.421  20.168  0.0459 -0.1235  0.3211
27844W        W70938  27.906  31.304  16.239  0.1539 -0.1470 -0.1758
27845W        W70939  27.822  30.717  19.086 -0.1950 -0.1304 -0.0457
27846W        W70940  28.191  28.563  15.692  0.1506  0.1303  0.0620
27847W        W70941  26.439  33.703  16.511 -0.0440 -0.2959 -0.0404
27848W        W70942  27.043  31.826  16.501 -0.2798 -0.2812 -0.1562
27849W        W70943  27.061  30.160  17.922 -0.1769  0.0164 -0.2595
27850W        W70944  25.143  31.887  16.606 -0.1176 -0.0539 -0.1135
27851W        W70945  26.446  32.191  16.514 -0.2456 -0.0435 -0.1333
27852W        W70946  27.126  31.032  18.215  0.0963 -0.1457  0.3122
27853W        W70947  25.829  32.038  17.941 -0.0717  0.1311 -0.1081
27854W        W70948  28.671  28.484  18.472  0.0386 -0.3425 -0.0669
27855W        W70949  25.208  32.043  17.992 -0.1800  0.0457  0.0950
27856W        W70950  25.311  30.150  16.789 -0.0131  0.1270  0.5464
27857W        W70951  25.614  31.658  17.226  0.3731 -0.1753  0.1655
27858W        W70952  27.580  29.628  16.929 -0.0243  0.0289 -0.0852
27859W        W70953  28.835  29.683  16.697 -0.0362  0.0670  0.2466
27860W        W70954  25.892  29.191  19.484 -0.0319 -0.3783 -0.1518
27861W        W70955  27.195  29.495  19.152  0.0999  0.0622 -0.3487
27862W        W70956  25.564  32.363  18.290 -0.0953  0.0292 -0.1023
27863W        W70957  27.549  30.753  18.105  0.0283  0.3097 -0.0307
27864W        W70958  26.979  29.610  17.994  0.1227 -0.1175 -0.2012
27865W        W70959  28.222  32.217  17.989 -0.0004 -0.1678 -0.1996
27866W        W70960  26.045  30.041  20.500 -0.0981  0.0957 -0.0732
27867W        W70961  26.301  30.959  15.560  0.0015 -0.1533 -0.0505
27868W        W70962  27.651  31.575  20.239  0.0705  0.2290  0.0792
27869W        W70963  26.252  30.640  18.514 -0.1281  0.0526 -0.0644
27870W        W70964  25.310  32.160  17.086 -0.1525  0.3792 -0.1753
27871W        W70965  26.555  33.821  18.562  0.0690 -0.2342 -0.2499
27872W        W70966  26.261  30.868  16.051 -0.1448  0.0248  0.2456
27873W        W70967  26.559  31.700  16.566 -0.2671  0.5027  0.1396
27874W        W70968  26.509  30.138  20.379 -0.3363  0.1447  0.0717
27875W        W70969  27.003  31.227  19.995 -0.4063 -0.0140 -0.2160
27876W        W70970  26.318  30.723  18.962 -0.0431  0.0131 -0.1839
27877W        W70971  27.375  29.951  19.160 -0.0333 -0.1419  0.0304
27878W        W70972  27.075  30.615  17.765 -0.0898  0.2241 -0.1267
27879W        W70973  27.680  31.566  18.219 -0.1008 -0.1115  0.1651
27880W        W70974  27.318  31.094  19.624 -0.0724  0.0952 -0.3508
27881W        W70975  26.724  31.652  19.989 -0.0128  0.0160  0.1523
27882W        W70976  27.674  27.656  18.835 -0.3258  0.1233 -0.0708
27883W        W70977  28.977  32.904  17.413 -0.0089 -0.1770 -0.2303
27884W        W70978  27.455  30.691  18.679  0.1470  0.4533 -0.1171
27885W        W70979  26.216  32.227  17.594 -0.1175  0.0476  0.0508
27886W        W70980  23.388  31.083  18.483  0.4010 -0.0849  0.0356
27887W        W70981  26.111  30.672  16.555  0.1022 -0.2890 -0.1657
27888W        W70982  26.302  29.151  18.513  0.1238  0.0425  0.1618
27889W        W70983  27.148  31.489  18.069 -0.1804  0.0737  0.0980
27890W        W70984  26.044  33.026  17.695 -0.0574 -0.1414 -0.0938
27891W        W70985  25.161  31.779  18.781  0.2888 -0.3233  0.1616
27892W        W70986  29.310  29.820  17.744  0.2199 -0.1030  0.1619
27893W        W70987  28.219  31.463  17.165  0.0055  0.4583 -0.0146
27894W        W70988  27.659  30.798  17.587 -0.0840 -0.3423 -0.0269
27895W        W70989  28.824  28.889  22.213  0.1895 -0.0732  0.4469
27896W        W70990  26.688  31.351  17.530  0.2790  0.2705  0.0617
27897W        W70991  29.940  29.872  20.552 -0.1111 -0.5454  0.3062
27898W        W70992  26.861  28.908  19.230 -0.0094  0.3316 -0.2074
27899W        W70993  28.931  30.693  17.330  0.1153 -0.2635  0.1448
27900W        W70994  24.677  29.879  20.937 -0.2796 -0.1090  0.1896
27901W        W70995  28.232  32.215  19.022  0.0770  0.1549  0.2160
27902W        W70996  26.178  31.409  19.882 -0.0155  0.1128  0.4288
27903W        W70997  27.155  30.240  17.430  0.2273 -0.0121  0.0914
27904W        W70998  25.703  29.452  16.163 -0.3181  0.3871 -0.3180
27905W        W70999  27.934  30.617  18.541 -0.1652  0.1270 -0.1037
27906W        W71000  27.252  30.503  19.168 -0.1134 -0.0864 -0.1957
27907W        W71001  25.154  30.416  17.486 -0.2014  0.1524 -0.0365
27908W        W71002  29.030  29.552  19.472 -0.0902 -0.1392  0.4133
27909W        W71003  24.850  30.181  18.464  0.1273  0.2363 -0.1546
27910W        W71004  27.830  29.380  16.572 -0.0868  0.1899 -0.1474
27911W        W71005  28.816  31.417  18.399 -0.1993  0.0570  0.2410
27912W        W71006  26.118  31.404  18.305  0.0135  0.3287 -0.1921
27913W        W71007  26.813  29.890  18.928 -0.2290  0.1572  0.1237
27914W        W71008  29.495  31.829  18.171 -0.1791 -0.1598 -0.1329
27915W        W71009  26.577  29.301  16.072  0.0788 -0.3673  0.1509
27916W        W71010  29.930  30.366  20.220  0.0984  0.2824 -0.1119
27917W        W71011  28.084  31.356  17.670  0.1234  0.2497  0.0363
27918W        W71012  25.665  29.521  19.807  0.1520 -0.2682 -0.0782
27919W        W71013  25.496  30.715  22.413 -0.2397 -0.0240 -0.3323
27920W        W71014  28.209  33.500  18.997 -0.0657  0.3946  0.0225
27921W        W71015  28.697  30.280  16.703  0.2687 -0.1029  0.0010
27922W        W71016  28.997  30.231  17.533  0.1557  0.3904  0.1457
27923W        W71017  27.543  28.497  17.237 -0.0404 -0.2148  0.1411
27924W        W71018  27.016  30.287  16.843  0.3415  0.0919  0.0106
27925W        W71019  24.263  30.250  18.601  0.0180  0.1234 -0.2700
27926W        W71020  27.382  32.005  19.980  0.0295  0.2422  0.0655
27927W        W71021  26.836  29.867  17.542 -0.2854 -0.1200 -0.0799
27928W        W71022  28.067  31.181  20.917  0.1175  0.1445  0.2364
27929W        W71023  26.788  33.280  16.446 -0.0542  0.3438 -0.0877
27930W        W71024  27.558  31.228  17.896 -0.2435  0.0270 -0.0117
27931W        W71025  27.651  29.996  19.605 -0.0028  0.1200 -0.0601
27932W        W71026  25.130  30.659  17.099  0.3540 -0.5873  0.0532
27933W        W71027  25.933  32.055  19.823  0.0676  0.0723 -0.3703
27934W        W71028  26.283  30.109  15.742 -0.3457  0.2360 -0.2392
27935W        W71029  26.811  31.182  16.385 -0.1834 -0.1160  0.0134
27936W        W71030  26.378  32.545  18.652 -0.4413  0.2406 -0.1186
27937W        W71031  28.945  32.015  19.340  0.1353 -0.0196  0.2056
27938W        W71032  28.125  28.952  16.642  0.0827 -0.1524  0.1231
27939W        W71033  29.274  30.227  19.835 -0.1001  0.4883  0.0031
27940W        W71034  25.097  31.451  16.070  0.0034 -0.0781 -0.3689
27941W        W71035  28.468  28.944  18.527 -0.1173  0.0606 -0.1058
27942W        W71036  26.937  30.877  19.394 -0.2339 -0.0838  0.1333
27943W        W71037  24.849  30.165  18.966  0.3156  0.0283 -0.2196
27944W        W71038  24.640  32.117  18.761 -0.1275  0.0004  0.0653
27945W        W71039  27.187  30.759  19.999  0.0345  0.1301 -0.1918
27946W        W71040  29.513  30.505  18.974 -0.1445 -0.0285  0.1428
27947W        W71041  28.409  30.469  18.578  0.1539  0.0657  0.3149
27948W        W71042  29.669  30.982  19.102  0.0858 -0.1029 -0.1194
27949W        W71043  27.835  32.012  21.348  0.2131 -0.2031 -0.3216
27950W        W71044  25.576  30.339  17.235  0.0029  0.0880  0.0455
27951W        W71045  28.165  31.653  18.133  0.0983 -0.0657 -0.0350
27952W        W71046  30.430  31.887  17.812 -0.0840 -0.4016  0.1498
27953W        W71047  26.533  31.535  18.808 -0.1993 -0.0056 -0.3938
27954W        W71048  25.006  31.364  19.405  0.0213  0.2464  0.0407
27955W        W71049  28.418  31.399  18.885  0.3247 -0.0327 -0.1061
27956W        W71050  28.072  30.233  18.885 -0.2801  0.1014  0.2104
27957W        W71051  27.575  28.519  15.953  0.1050 -0.0578  0.1493
27958W        W71052  25.810  32.955  16.776  0.1585  0.1183 -0.1020
27959W        W71053  25.412  32.174  19.737 -0.0420 -0.0564  0.1946
27960W        W71054  23.967  30.666  18.924 -0.0975  0.0118 -0.0625
27961W        W71055  25.927  33.688  17.081 -0.2632  0.2938  0.0407
27962W        W71056  29.611  32.254  17.737  0.0298 -0.0823 -0.0832
27963W        W71057  27.880  31.799  17.700  0.0207 -0.0896  0.0150
27964W        W71058  26.339  33.082  16.795 -0.2031 -0.2362  0.1770
27965W        W71059  26.541  29.574  16.482  0.1966 -0.0641 -0.0522
27966W        W71060  25.062  31.568  17.888  0.3383  0.2664 -0.0525
27967W        W71061  25.156  33.267  17.001 -0.0834 -0.0372 -0.0471
27968W        W71062  28.551  31.136  16.991  0.0126 -0.2477 -0.0982
27969W        W71063  25.800  33.539  18.197 -0.3345 -0.2737 -0.2850
27970W        W71064  28.139  31.666  20.380 -0.0364  0.0203  0.0424
27971W        W71065  29.226  29.909  17.204  0.2294  0.1788  0.1755
27972W        W71066  28.290  32.248  18.465 -0.0032  0.0471 -0.2629
27973W        W71067  27.799  29.876  17.411 -0.0568  0.2308 -0.2002
27974W        W71068  27.434  31.925  17.955 -0.2242 -0.0810  0.2174
27975W        W71069  25.857  31.188  20.174  0.0995  0.2103  0.3492
27976W        W71070  27.075  30.436  16.267 -0.1657  0.2170 -0.0561
27977W        W71071  24.991  30.493  19.732 -0.1449  0.0587  0.1266
27978W        W71072  28.663  29.445  18.540 -0.0757  0.3468 -0.3240
27979W        W71073  25.319  31.473  20.654  0.0286  0.1955 -0.0139
27980W        W71074  28.419  32.458  16.832 -0.0296 -0.1189 -0.0850
27981W        W71075  24.890  29.841  16.711 -0.1545 -0.0597 -0.0636
27982W        W71076  27.119  31.274  18.658  0.4802  0.1470  0.1426
27983W        W71077  29.189  30.816  18.657 -0.0659 -0.4112  0.2024
27984W        W71078  27.334  31.352  16.297 -0.1735 -0.3244 -0.1740
27985W        W71079  28.512  30.181  19.063  0.0719 -0.1047  0.1421
27986W        W71080  27.098  33.144  17.874  0.0495 -0.0993  0.0147
27987W        W71081  26.155  31.697  17.330 -0.0314  0.2115 -0.0630
27988W        W71082  25.841  31.217  19.162  0.2887  0.2317  0.1822
27989W        W71083  24.951  29.010  17.101 -0.1098 -0.2968 -0.1637
27990W        W71084  28.918  32.220  18.679  0.0559 -0.3299 -0.2448
27991W        W71085  26.828  32.272  18.627 -0.1696 -0.0072  0.2233
27992W        W71086  27.546  30.283  18.342 -0.1650 -0.0494  0.3552
27993W        W71087  25.745  31.138  18.093 -0.3951  0.1463 -0.0453
27994W        W71088  28.978  29.617  18.161 -0.0664 -0.0200  0.1510
27995W        W71089  25.862  30.697  19.211  0.0231  0.1790  0.0343
27996W        W71090  25.165  29.803  18.439  0.1718  0.1676 -0.0655
27997W        W71091  27.020  31.196  17.215 -0.1012 -0.0610 -0.0120
27998W        W71092  28.691  32.324  20.365 -0.3661 -0.0739 -0.0664
27999W        W71093  27.666  31.211  17.214 -0.1392  0.1195  0.3467
28000W        W71094  28.484  31.729  19.321 -0.0045 -0.0519  0.1740
28001W        W71095  25.589  29.895  16.371  0.0192 -0.0559 -0.2361
28002W        W71096  27.295  29.791  18.616 -0.1897 -0.1155  0.5326
28003W        W71097  25.999  30.634  17.144  0.1672 -0.1375  0.1133
28004W        W71098  27.593  31.544  19.355  0.0225 -0.2428  0.2507
28005W        W71099  29.049  32.864  19.227 -0.0462  0.3358 -0.0179
28006W        W71100  26.342  28.573  16.974  0.0257 -0.0145  0.3532
28007W        W71101  28.725  31.510  17.326  0.0649  0.2589 -0.1479
28008W        W71102  28.588  30.228  18.180 -0.2152  0.1740 -0.0733
28009W        W71103  26.507  32.896  16.400 -0.0121 -0.0413 -0.3139
28010W        W71104  30.274  30.405  18.718  0.2131 -0.0155  0.0182
28011W        W71105  27.765  32.265  17.808  0.0014 -0.1440 -0.0615
28012W        W71106  25.689  28.972  16.469  0.1042 -0.2761 -0.1922
28013W        W71107  27.843  33.106  17.356  0.0850  0.1083 -0.1341
28014W        W71108  28.058  30.665  19.829  0.1461  0.0751 -0.1417
28015W        W71109  27.627  28.881  16.544  0.2504  0.0134 -0.1014
28016W        W71110  25.840  29.769  18.911 -0.1128  0.3566  0.0764
28017W        W71111  25.161  33.210  17.534  0.1140 -0.0568  0.1840
28018W        W71112  28.162  31.102  18.543 -0.3023  0.1332  0.1659
28019W        W71113  28.325  31.242  19.402  0.0889  0.0226 -0.2790
28020W        W71114  26.048  32.445  16.096 -0.1210 -0.3094 -0.2035
28021W        W71115  29.230  28.388  18.751 -0.1088  0.2836 -0.0939
28022W        W71116  26.426  32.120  19.952 -0.0036  0.0994  0.1251
28023W        W71117  27.896  31.663  19.771 -0.2363  0.1176  0.0969
28024W        W71118  26.237  30.395  16.148  0.1955 -0.0120 -0.3630
28025W        W71119  28.162  30.716  20.753  0.0627  0.1838  0.2165
28026W        W71120  25.547  31.623  17.891  0.1643 -0.2943 -0.3693
28027W        W71121  26.524  32.353  18.118  0.1320 -0.1052 -0.1222
28028W        W71122  29.509  32.740  18.032 -0.0120 -0.1035 -0.0147
28029W        W71123  27.389  30.008  16.617  0.4155 -0.0609  0.0333
28030W        W71124  30.171  32.290  17.894 -0.0550  0.0225 -0.1422
28031W        W71125  26.054  29.873  17.916  0.0149 -0.2780 -0.1109
28032W        W71126  29.361  30.295  17.856  0.0234  0.0110  0.1705
28033W        W71127  27.646  29.459  18.353 -0.2491  0.0519  0.2400
28034W        W71128  26.917  30.107  19.971 -0.1128  0.1475 -0.1898
28035W        W71129  25.400  30.945  16.276  0.4170  0.2868 -0.1873
28036W        W71130  25.956  32.085  16.400  0.0135 -0.0397 -0.0381
28037W        W71131  26.999  31.841  17.738 -0.0939 -0.4899  0.0353
28038W        W71132  27.886  29.266  19.771  0.1076  0.1469 -0.0257
28039W        W71133  24.691  29.870  17.994  0.2138  0.0473 -0.0866
28040W        W71134  25.305  31.350  17.463  0.1172  0.0068  0.0067
28041W        W71135  23.886  28.112  17.388 -0.3819 -0.1320 -0.2550
28042W        W71136  28.423  31.188  18.043  0.2210  0.1206  0.0186
28043W        W71137  26.365  29.839  17.499 -0.2131  0.0123 -0.0166
28044W        W71138  26.174  30.094  17.016 -0.2656  0.1392  0.2318
28045W        W71139  29.173  31.487  17.915 -0.1270 -0.0808  0.1912
28046W        W71140  29.194  32.644  18.784 -0.1606  0.0347 -0.3363
28047W        W71141  27.306  30.751  17.162 -0.2689  0.0506  0.0592
28048W        W71142  27.996  30.307  19.388 -0.1949 -0.0879 -0.1291
28049W        W71143  25.225  29.606  16.318  0.0379  0.0699 -0.2116
28050W        W71144  28.648  29.314  19.942 -0.0372 -0.0407 -0.0724
28051W        W71145  26.936  29.287  19.629  0.2711 -0.3369  0.1555
28052W        W71146  24.731  29.280  15.605  0.0208  0.2347 -0.1462
28053W        W71147  26.820  29.919  18.387 -0.2939  0.2269  0.1613
28054W        W71148  26.699  32.045  16.903  0.3199  0.1026  0.0061
28055W        W71149  27.987  32.262  17.313  0.0261  0.2378 -0.3867
28056W        W71150  27.344  31.498  17.525  0.0004  0.0127  0.1127
28057W        W71151  27.081  31.458  20.976 -0.0519  0.0324 -0.1650
28058W        W71152  27.127  29.857  19.644 -0.3046 -0.0878  0.1048
28059W        W71153  29.777  31.163  17.324  0.2921  0.1849  0.3344
28060W        W71154  26.377  29.687  20.214 -0.3789  0.0716  0.1739
28061W        W71155  28.011  30.974  18.002 -0.0463 -0.2681 -0.0582
28062W        W71156  28.413  29.259  18.126  0.0111  0.4529  0.1674
28063W        W71157  26.856  30.763  17.305 -0.3611  0.2462  0.1708
28064W        W71158  24.113  29.749  18.718  0.0102 -0.3058 -0.2497
28065W        W71159  26.623  31.105  19.118  0.1002 -0.1503 -0.0333
28066W        W71160  28.815  31.727  20.521 -0.1254 -0.1172 -0.2395
28067W        W71161  26.930  29.980  16.456 -0.1445 -0.2834  0.1165
28068W        W71162  26.756  30.539  19.082  0.0561  0.0157  0.3290
28069W        W71163  27.032  32.265  17.343  0.1234 -0.0186  0.2177
28070W        W71164  24.042  29.561  19.633 -0.0676  0.1367  0.1883
28071W        W71165  26.494  30.475  17.017 -0.3381  0.1401 -0.4127
28072W        W71166  27.431  31.058  19.056  0.0004 -0.2250 -0.1461
28073W        W71167  26.534  31.109  18.597 -0.0158 -0.0873  0.2349
28074W        W71168  27.935  31.258  18.971  0.3121 -0.0991  0.2785
28075W        W71169  26.645  31.104  15.902 -0.1442 -0.0338  0.0425
28076W        W71170  29.643  32.305  17.064 -0.0214  0.1226 -0.0039
28077W        W71171  28.047  33.186  17.971  0.1311 -0.2908 -0.1470
28078W        W71172  29.547  32.738  19.709  0.0764  0.0616 -0.0980
28079W        W71173  27.748  32.074  18.866 -0.1724  0.0465 -0.1849
28080W        W71174  28.902  31.582  19.053  0.3003  0.0991 -0.2062
28081W        W71175  25.578  29.338  17.645 -0.0876 -0.0363 -0.0386
28082W        W71176  26.655  30.502  18.284 -0.1707 -0.2563 -0.1582
28083W        W71177  26.617  30.869  17.832  0.0445 -0.4223  0.0331
28084W        W71178  27.403  30.549  16.669  0.0766 -0.2635 -0.1101
28085W        W71179  24.739  30.172  17.555 -0.0575  0.1879 -0.0005
28086W        W71180  28.005  28.538  18.534 -0.1915  0.0963 -0.1338
28087W        W71181  26.270  32.810  18.139 -0.0671 -0.3045 -0.0786
28088W        W71182  27.094  31.122  17.740  0.0370  0.1778 -0.0315
28089W        W71183  27.369  32.080  22.133 -0.0904  0.1697 -0.0829
28090W        W71184  28.188  30.495  21.606  0.3148 -0.3443 -0.1537
28091W        W71185  28.730  30.160  20.248  0.2545 -0.1330 -0.0399
28092W        W71186  27.527  32.155  20.784 -0.0378 -0.0273  0.2298
28093W        W71187  25.100  29.673  20.847  0.1088  0.2652 -0.0568
28094W        W71188  27.720  33.287  20.410  0.0437  0.0985 -0.0236
28095W        W71189  26.795  29.477  24.622  0.2245 -0.1053  0.1176
28096W        W71190  27.895  32.324  22.551  0.0637  0.1936  0.0450
28097W        W71191  27.302  32.826  21.259  0.0324 -0.0835 -0.1937
28098W        W71192  27.681  30.846  20.901 -0.2936  0.1967 -0.0724
28099W        W71193  26.340  31.217  24.208  0.1105  0.0723 -0.0203
28100W        W71194  26.739  32.638  21.203 -0.2263  0.0238 -0.2607
28101W        W71195  27.485  29.414  20.012  0.1459  0.1140 -0.2776
28102W        W71196  26.902  30.908  22.324  0.0421  0.0589 -0.3873
28103W        W71197  29.753  31.720  22.355 -0.1532  0.0780  0.0642
28104W        W71198  24.894  31.233  22.064  0.0189  0.0266 -0.0006
28105W        W71199  26.191  31.370  21.645  0.0377  0.0136 -0.1570
28106W        W71200  28.641  31.151  22.536 -0.0716  0.3538  0.1560
28107W        W71201  26.638  31.642  21.126 -0.3521 -0.0907 -0.0041
28108W        W71202  27.452  31.103  22.326 -0.2262  0.0153  0.0947
28109W        W71203  28.421  28.759  23.562  0.0732  0.2780  0.0869
28110W        W71204  27.423  31.565  19.807  0.0967  0.3042  0.1688
28111W        W71205  25.413  30.772  21.408  0.0370  0.0552  0.4143
28112W        W71206  26.346  31.041  22.116  0.1380 -0.1066  0.1863
28113W        W71207  26.951  31.302  21.442  0.0505 -0.1872 -0.2678
28114W        W71208  29.347  31.378  22.412 -0.2317 -0.0938 -0.2959
28115W        W71209  28.395  32.107  21.727 -0.3518 -0.0980  0.1533
28116W        W71210  27.633  32.463  21.217  0.0515  0.2732  0.0983
28117W        W71211  26.754  32.859  20.551  0.1302  0.0396  0.2126
28118W        W71212  27.055  31.467  23.815  0.0169  0.2305  0.3656
28119W        W71213  24.856  31.344  20.982 -0.1927  0.0185  0.0571
28120W        W71214  23.513  32.436  21.095 -0.3019 -0.0779 -0.1825
28121W        W71215  26.271  32.890  20.941 -0.1803 -0.3211 -0.0029
28122W        W71216  28.542  32.903  21.315  0.2586  0.0376 -0.0393
28123W        W71217  27.557  32.904  21.745 -0.1659 -0.1336 -0.0066
28124W        W71218  26.521  32.606  22.504  0.2631 -0.2888 -0.2772
28125W        W71219  25.634  31.707  20.156  0.1680 -0.0361  0.1785
28126W        W71220  27.666  31.744  23.142  0.0387 -0.0426 -0.1287
28127W        W71221  26.366  32.963  23.115  0.0990  0.0036  0.0173
28128W        W71222  26.634  32.201  23.453  0.0916 -0.1303  0.2289
28129W        W71223  28.197  30.782  21.238  0.1122 -0.3116  0.2456
28130W        W71224  27.436  31.816  21.135  0.1010  0.2766  0.1211
28131W        W71225  29.071  30.623  20.905  0.2032 -0.0977  0.0073
28132W        W71226  28.524  33.009  23.232 -0.0918  0.2692 -0.0454
28133W        W71227  27.019  32.397  22.279  0.1242 -0.0287 -0.3252
28134W        W71228  28.743  29.941  24.481  0.1662  0.2863 -0.1614
28135W        W71229  25.747  31.562  19.546 -0.0426 -0.0537  0.2653
28136W        W71230  27.888  29.720  19.985  0.0242  0.0318  0.0303
28137W        W71231  25.751  30.675  20.141 -0.1529  0.0308  0.1653
28138W        W71232  29.273  30.570  19.439 -0.0057 -0.0878 -0.1421
28139W        W71233  26.442  28.141  21.758  0.0473 -0.0170 -0.2648
28140W        W71234  26.410  32.849  21.562 -0.2617 -0.0180 -0.1834
28141W        W71235  28.222  28.740  21.033  0.0247 -0.0758  0.4161
28142W        W71236  28.499  32.674  21.758  0.0550  0.0865 -0.0964
28143W        W71237  27.803  30.487  21.217 -0.0126  0.1995 -0.0372
28144W        W71238  28.802  31.325  21.718 -0.0993 -0.3618 -0.1893
28145W        W71239  26.657  31.720  22.204  0.1174  0.2491 -0.1351
28146W        W71240  26.370  32.008  20.971  0.1852 -0.5667  0.3458
28147W        W71241  27.485  31.997  19.369 -0.2304 -0.3493  0.4283
28148W        W71242  29.204  31.661  20.780 -0.0275 -0.2756 -0.0208
28149W        W71243  28.165  32.507  20.443  0.0807  0.0124 -0.0799
28150W        W71244  24.790  30.820  20.108 -0.0167 -0.1050  0.0600
28151W        W71245  26.819  32.338  22.811 -0.4018 -0.2177  0.2973
28152W        W71246  25.088  31.348  22.762  0.0080  0.2396 -0.4116
28153W        W71247  26.678  29.609  19.307  0.1715 -0.0650  0.3437
28154W        W71248  29.416  32.805  23.088  0.2969  0.0291 -0.1937
28155W        W71249  27.170  34.210  23.169 -0.0254 -0.1719  0.0044
28156W        W71250  30.371  28.925  22.408 -0.0702 -0.0067 -0.0439
28157W        W71251  27.127  31.700  20.279 -0.2631  0.0485 -0.0761
28158W        W71252  28.944  31.491  22.909 -0.0682  0.1976 -0.0268
28159W        W71253  27.612  31.076  20.018  0.1970  0.2018 -0.0217
28160W        W71254  29.539  30.961  23.072  0.0074  0.0321  0.1140
28161W        W71255  29.232  29.039  21.994 -0.1351 -0.0836  0.1769
28162W        W71256  26.536  31.045  19.950  0.0385 -0.0996 -0.0962
28163W        W71257  27.244  30.040  21.805  0.1733 -0.0251 -0.0116
28164W        W71258  29.179  31.976  22.231 -0.0422 -0.3414  0.0290
28165W        W71259  29.482  31.228  21.017 -0.4022 -0.0327 -0.2711
28166W        W71260  25.737  32.107  21.898 -0.0112 -0.2958 -0.2004
28167W        W71261  28.276  30.337  22.788 -0.0181 -0.1054 -0.1719
28168W        W71262  26.564  33.124  22.475  0.1479  0.1885  0.1357
28169W        W71263  27.294  30.324  19.722 -0.0154  0.0327  0.2672
28170W        W71264  24.429  32.093  21.782  0.0190 -0.2695 -0.1272
28171W        W71265  25.651  31.327  18.710  0.0751  0.4526 -0.1921
28172W        W71266  26.470  30.518  23.227 -0.1619  0.1999 -0.2671
28173W        W71267  24.810  30.569  22.731 -0.2087  0.1669  0.2110
28174W        W71268  28.930  29.676  20.830 -0.2384 -0.0381 -0.0958
28175W        W71269  27.631  29.670  21.611  0.2302  0.2022 -0.2480
28176W        W71270  29.318  28.614  21.817 -0.1133 -0.2283 -0.0002
28177W        W71271  26.231  31.723  20.305 -0.2122 -0.0565 -0.1333
28178W        W71272  29.381  32.220  20.854 -0.2286 -0.0620  0.1323
28179W        W71273  28.577  30.514  20.553 -0.3021 -0.0949 -0.2385
28180W        W71274  27.393  32.376  19.685  0.0177 -0.1391 -0.1661
28181W        W71275  25.802  31.096  23.299 -0.1308 -0.0584  0.1885
28182W        W71276  25.453  29.987  21.230 -0.1093 -0.2255 -0.0343
28183W        W71277  26.845  30.321  22.951 -0.3591  0.0388  0.1199
28184W        W71278  26.103  29.844  21.084 -0.2677 -0.2329  0.0009
28185W        W71279  28.032  31.452  24.593 -0.0386  0.1364 -0.0737
28186W        W71280  27.211  28.953  20.080 -0.2555 -0.0004  0.2532
28187W        W71281  27.988  31.909  22.150 -0.1769 -0.2356  0.0050
28188W        W71282  27.423  31.435  21.421  0.0403  0.1034 -0.2365
28189W        W71283  25.469  32.495  18.867  0.0043 -0.1706 -0.0654
28190W        W71284  28.573  31.018  23.856  0.1563 -0.0661  0.2822
28191W        W71285  28.380  32.924  20.540  0.0786 -0.0663  0.2940
28192W        W71286  29.855  32.516  23.710 -0.1450 -0.2068 -0.0676
28193W        W71287  29.841  33.364  22.536 -0.0015 -0.2774  0.2887
28194W        W71288  25.544  31.480  22.955  0.0118  0.4858 -0.3383
28195W        W71289  26.243  29.370  19.842 -0.0171  0.1886  0.1013
28196W        W71290  26.907  32.898  22.176  0.3324 -0.1564 -0.2131
28197W        W71291  25.774  31.777  20.614 -0.4383 -0.0889  0.0380
28198W        W71292  27.310  30.485  20.891  0.1302 -0.1684  0.0511
28199W        W71293  29.549  32.560  21.256 -0.0033 -0.0706  0.0587
28200W        W71294  28.470  30.762  22.034 -0.0572  0.1945  0.2458
28201W        W71295  25.501  32.214  22.855  0.1907  0.0843 -0.0693
28202W        W71296  28.285  28.970  22.485 -0.0643 -0.0794  0.3120
28203W        W71297  29.163  30.381  22.649 -0.0750  0.3608 -0.1960
28204W        W71298  28.407  32.206  22.254  0.2166  0.0769 -0.1616
28205W        W71299  25.508  29.448  19.180  0.2644 -0.1227  0.0440
28206W        W71300  28.813  32.939  20.828 -0.1350 -0.0147 -0.0492
28207W        W71301  25.003  30.744  20.587 -0.2552 -0.0242 -0.0845
28208W        W71302  24.897  32.384  20.650 -0.2410  0.0675  0.0812
28209W        W71303  27.401  32.027  21.664 -0.0912 -0.1578  0.1928
28210W        W71304  28.385  28.796  22.046  0.0578 -0.1804  0.1361
28211W        W71305  25.483  32.224  24.748  0.1018 -0.1028  0.0614
28212W        W71306  28.097  30.346  25.024 -0.0860  0.1235  0.3039
28213W        W71307  27.183  31.008  20.909  0.1104  0.0865 -0.0013
28214W        W71308  25.988  31.913  22.578  0.2690  0.0176  0.1348
28215W        W71309  27.356  28.540  21.617  0.0430 -0.2545  0.1286
28216W        W71310  29.511  30.145  20.307  0.2518  0.1412  0.0995
28217W        W71311  27.003  31.387  22.432  0.0963  0.1641 -0.1405
28218W        W71312  28.730  32.151  19.843 -0.4005 -0.1775 -0.1401
28219W        W71313  28.258  29.762  20.561  0.2200 -0.2472 -0.1313
28220W        W71314  26.084  29.846  19.684 -0.0677 -0.2357  0.2199
28221W        W71315  26.844  32.099  25.010 -0.1568 -0.0104 -0.0757
28222W        W71316  27.208  30.916  21.836  0.2007 -0.2404 -0.2439
28223W        W71317  27.059  31.269  23.305  0.1064 -0.2758 -0.1254
28224W        W71318  27.922  29.859  18.626  0.0623 -0.2173  0.2477
28225W        W71319  28.379  31.929  21.165  0.1064  0.0605 -0.2123
28226W        W71320  25.601  32.296  22.354  0.1367  0.1488 -0.1646
28227W        W71321  28.153  30.527  23.378  0.1562  0.0760 -0.0806
28228W        W71322  27.777  31.038  21.328 -0.1516  0.1947  0.1362
28229W        W71323  26.629  29.074  21.486 -0.0368 -0.0656 -0.0068
28230W        W71324  26.814  29.566  21.716  0.1438  0.3344 -0.1455
28231W        W71325  27.091  29.269  21.402  0.0084 -0.1708 -0.0048
28232W        W71326  24.965  32.693  18.734  0.2483  0.0315 -0.0659
28233W        W71327  28.918  29.593  22.064  0.0046 -0.1138 -0.0177
28234W        W71328  28.467  30.078  21.317 -0.1855  0.2473  0.0579
28235W        W71329  28.421  28.823  21.470  0.2366 -0.1590  0.1396
28236W        W71330  27.711  30.246  23.484  0.0969  0.1168  0.3163
28237W        W71331  28.608  30.077  20.770  0.0355 -0.2249  0.2140
28238W        W71332  27.137  32.321  21.328 -0.0030  0.2253 -0.1229
28239W        W71333  25.274  30.519  20.194  0.0676  0.3694 -0.1723
28240W        W71334  28.586  29.679  23.008  0.1673 -0.0735  0.2580
28241W        W71335  25.978  31.289  23.878  0.0375 -0.1584 -0.1963
28242W        W71336  24.899  32.095  21.665 -0.2040  0.0613  0.2853
28243W        W71337  28.451  30.941  23.060 -0.4729 -0.1431 -0.2499
28244W        W71338  27.731  31.205  22.787 -0.0869  0.1224  0.2905
28245W        W71339  28.009  29.035  24.732 -0.1058  0.2450  0.1332
28246W        W71340  28.153  30.255  20.345 -0.1289 -0.1018  0.2019
28247W        W71341  26.696  31.869  20.496  0.1584  0.0944  0.4095
28248W        W71342  26.932  30.903  20.434 -0.1314  0.1037 -0.1903
28249W        W71343  26.093  29.220  21.399 -0.0812 -0.4449  0.4809
28250W        W71344  27.849  33.977  21.505  0.0066 -0.1268 -0.0072
28251W        W71345  26.102  32.330  19.412 -0.0047  0.1480  0.2315
28252W        W71346  27.763  30.805  23.559  0.0528  0.2507 -0.1763
28253W        W71347  25.375  32.038  20.699 -0.1333  0.0357 -0.1680
28254W        W71348  29.161  29.379  22.457  0.2828 -0.3574 -0.1672
28255W        W71349  25.381  31.306  21.483  0.2273  0.1383  0.0963
28256W        W71350  26.434  30.228  19.916  0.1126 -0.1283  0.0360
28257W        W71351  24.542  30.994  20.741  0.1487 -0.2733  0.3713
28258W        W71352  27.466  30.462  21.658  0.2497  0.0022  0.3374
28259W        W71353  28.540  32.509  20.816  0.1502 -0.2940  0.1230
28260W        W71354  26.784  31.264  21.959  0.0565 -0.2747  0.2100
28261W        W71355  27.455  30.790  23.069  0.1398  0.0374  0.0636
28262W        W71356  25.602  33.358  21.554  0.1065 -0.0409  0.0677
28263W        W71357  28.132  31.165  23.597 -0.0701  0.1895  0.1710
28264W        W71358  28.614  29.311  21.779 -0.0179  0.0428  0.3217
28265W        W71359  27.130  32.291  23.370 -0.0852 -0.1901  0.1060
28266W        W71360  26.450  32.418  23.912  0.1782  0.1037  0.1788
28267W        W71361  26.044  29.452  20.763 -0.3275 -0.1036 -0.0284
28268W        W71362  29.001  30.579  22.166  0.2401 -0.0698  0.4695
28269W        W71363  27.534  31.310  23.303 -0.1724 -0.1036  0.2765
28270W        W71364  27.173  32.506  21.789  0.0713  0.0557 -0.3053
28271W        W71365  27.961  31.290  22.290  0.3302  0.0924 -0.2300
28272W        W71366  26.132  30.067  19.167 -0.4552 -0.0834 -0.4120
28273W        W71367  27.078  32.210  20.424  0.1588 -0.0223  0.1337
28274W        W71368  27.251  29.925  23.427  0.1635  0.0061 -0.1044
28275W        W71369  27.657  31.307  23.911  0.0069  0.2130  0.1400
28276W        W71370  27.963  30.886  23.062  0.1132  0.0469  0.1280
28277W        W71371  25.440  30.122  19.816  0.2541 -0.0547 -0.1347
28278W        W71372  27.044  31.779  21.408  0.1582 -0.1050  0.2589
28279W        W71373  28.076  32.070  23.154 -0.1898  0.2180 -0.2075
28280W        W71374  28.130  29.167  21.689  0.1459 -0.2794 -0.2734
28281W        W71375  26.442  33.089  24.421 -0.2321  0.2976  0.1562
28282W        W71376  27.951  29.696  20.969  0.3145 -0.3248  0.4054
28283W        W71377  30.227  31.817  22.620  0.1595 -0.2785  0.2164
28284W        W71378  28.283  30.773  22.596  0.2408 -0.0783 -0.3861
28285W        W71379  26.101  30.705  19.813 -0.1853  0.0248  0.1091
28286W        W71380  26.553  32.438  20.798 -0.3172  0.1935  0.0247
28287W        W71381  27.593  31.400  20.929  0.0293  0.2695 -0.2176
28288W        W71382  27.029  31.056  22.850 -0.2160  0.0748  0.0001
28289W        W71383  25.915  32.149  20.919 -0.5204  0.0452  0.0646
28290W        W71384  27.011  31.973  20.937  0.2653  0.1257 -0.3273
28291W        W71385  25.604  31.708  22.251  0.1233 -0.1606  0.0756
28292W        W71386  29.003  29.003  19.362 -0.2118 -0.1323 -0.2704
28293W        W71387  27.839  32.188  19.748  0.0461 -0.0241 -0.1673
28294W        W71388  27.534  30.697  20.422 -0.2528  0.1729 -0.2514
28295W        W71389  29.337  30.862  23.586  0.2067  0.0547  0.2304
28296W        W71390  28.565  29.824  19.495 -0.3612 -0.2010  0.4262
28297W        W71391  28.353  30.104  23.330  0.1003 -0.0134 -0.1705
28298W        W71392  27.815  29.168  22.458  0.1727 -0.1289 -0.1052
28299W        W71393  28.658  32.390  21.308  0.0299  0.2980  0.1709
28300W        W71394  27.004  30.288  22.222  0.0214 -0.0973  0.1896
28301W        W71395  28.168  31.875  25.013 -0.2395  0.0506  0.2794
28302W        W71396  26.907  31.954  23.794  0.0285 -0.0506 -0.0764
28303W        W71397  27.516  30.046  21.015 -0.0338  0.2049 -0.2010
28304W        W71398  26.392  30.294  20.962  0.1672 -0.0280 -0.1077
28305W        W71399  25.328  30.960  21.903 -0.0016 -0.2270 -0.0945
28306W        W71400  28.104  31.639  24.033  0.1103  0.1975  0.1440
28307W        W71401  26.232  31.031  20.521  0.0326 -0.0229  0.2181
28308W        W71402  28.860  31.710  21.130 -0.2071 -0.0748  0.1061
28309W        W71403  26.542  31.049  21.565  0.1343  0.0554  0.1962
28310W        W71404  29.542  30.771  20.840  0.1384 -0.1385  0.1402
28311W        W71405  28.447  31.125  20.470 -0.2155  0.2356  0.0755
28312W        W71406  24.922  31.873  20.945 -0.2406  0.0109 -0.1122
28313W        W71407  27.668  30.682  22.615 -0.4708 -0.1209 -0.1808
28314W        W71408  27.670  32.622  20.715  0.1295 -0.1189 -0.0093
28315W        W71409  28.082  30.157  22.388 -0.1004  0.2810 -0.1413
28316W        W71410  27.820  30.400  22.996 -0.3925  0.0707 -0.0738
28317W        W71411  28.304  29.407  22.197 -0.3084  0.1717 -0.0027
28318W        W71412  27.332  31.827  23.551  0.0943 -0.0249 -0.3364
28319W        W71413  26.019  30.065  23.315 -0.0835  0.1504  0.0937
28320W        W71414  28.935  34.282  23.147  0.1617 -0.1044  0.0054
28321W        W71415  28.503  30.735  20.039 -0.0235 -0.2077 -0.0134
28322W        W71416  29.283  31.871  22.714  0.1437 -0.0740 -0.0690
28323W        W71417  29.462  29.623  20.776  0.0376 -0.2246  0.1965
28324W        W71418  28.046  30.800  20.298 -0.0100 -0.1150  0.1976
28325W        W71419  26.334  32.143  22.095  0.0617  0.0758  0.0555
28326W        W71420  29.070  30.436  23.741 -0.2677 -0.0820 -0.2116
28327W        W71421  24.413  29.563  19.089 -0.1999  0.2105  0.1614
28328W        W71422  28.158  29.864  22.879  0.3133  0.5196 -0.4591
28329W        W71423  27.798  32.386  19.300 -0.0160  0.0292  0.2110
28330W        W71424  27.573  31.679  22.293 -0.1197 -0.0205 -0.0701
28331W        W71425  28.962  29.945  22.471 -0.0823 -0.2994  0.1360
28332W        W71426  25.635  28.560  21.209 -0.2737 -0.0358  0.0951
28333W        W71427  25.261  31.793  22.643  0.2668  0.0093 -0.0902
28334W        W71428  25.523  30.719  20.617  0.0715 -0.0228 -0.2255
28335W        W71429  26.599  29.772  19.744 -0.1363 -0.0570 -0.1141
28336W        W71430  26.653  32.125  21.321 -0.2543  0.2966 -0.0685
28337W        W71431  28.374  31.732  23.435  0.2799  0.0527  0.0026
28338W        W71432  27.599  29.537  19.447  0.2004  0.0933 -0.2181
28339W        W71433  28.852  30.157  23.408  0.0011  0.0113  0.0351
28340W        W71434  25.116  31.578  20.116  0.0603 -0.1090 -0.1832
28341W        W71435  26.426  28.585  21.555 -0.3664  0.1560  0.4334
28342W        W71436  26.132  31.609  21.183  0.0911 -0.0233 -0.0724
28343W        W71437  26.128  30.793  23.962  0.0780 -0.3594  0.1507
28344W        W71438  26.365  31.525  20.756  0.0148 -0.0389 -0.0294
28345W        W71439  28.207  29.393  22.803 -0.1589  0.0117  0.1328
28346W        W71440  28.444  31.261  22.078 -0.1841  0.2240  0.0122
28347W        W71441  28.023  31.374  23.180 -0.2098  0.0350  0.0491
28348W        W71442  28.884  33.172  22.497  0.2100  0.0409 -0.0348
28349W        W71443  27.763  32.772  22.660 -0.1633  0.3765  0.0324
28350W        W71444  25.004  31.640  21.386  0.0379  0.1057 -0.0422
28351W        W71445  28.842  32.280  22.020 -0.0558  0.0096 -0.0819
28352W        W71446  28.578  31.019  20.933 -0.1287 -0.5621  0.0240
28353W        W71447  26.210  32.466  21.178 -0.0889  0.3344 -0.1001
28354W        W71448  26.652  30.600  24.345 -0.1943 -0.0493 -0.0105
28355W        W71449  25.864  31.863  23.775 -0.3296 -0.1948  0.2522
28356W        W71450  29.018  30.988  23.034 -0.1932  0.2412 -0.3226
28357W        W71451  27.301  29.797  20.630 -0.1671  0.0880  0.2935
28358W        W71452  26.758  30.551  19.823 -0.0520  0.1255  0.2219
28359W        W71453  25.104  32.873  24.129  0.3762 -0.0819  0.3857
28360W        W71454  26.173  32.234  20.491 -0.0413 -0.1554 -0.1341
28361W        W71455  25.349  31.028  20.290 -0.2213 -0.3848 -0.3828
28362W        W71456  28.837  32.114  20.874 -0.1245 -0.3992  0.0950
28363W        W71457  27.895  31.763  20.858 -0.0940 -0.3547  0.0826
28364W        W71458  27.773  33.048  21.230  0.2694  0.1388 -0.1509
28365W        W71459  27.179  28.845  19.584  0.0299 -0.0924 -0.1017
28366W        W71460  25.846  32.291  21.395 -0.2540  0.0466  0.4024
28367W        W71461  26.436  32.071  18.954 -0.1520  0.0193  0.3136
28368W        W71462  28.515  33.401  21.540  0.1639 -0.0642 -0.1357
28369W        W71463  26.901  33.054  21.053 -0.1687 -0.1350 -0.1214
28370W        W71464  29.000  33.669  22.566  0.2000  0.3684  0.3746
28371W        W71465  27.827  31.180  20.513  0.0424 -0.2568 -0.0828
28372W        W71466  30.354  31.435  21.591  0.0184 -0.1985 -0.1559
28373W        W71467  30.367  30.074  20.503 -0.0917  0.1988 -0.0201
28374W        W71468  29.375  32.795  22.177 -0.1993 -0.2384 -0.3969
28375W        W71469  27.084  31.991  22.561  0.2309 -0.2420  0.0982
28376W        W71470  27.888  28.548  19.127 -0.2858  0.0234 -0.0270
28377W        W71471  26.282  30.976  23.502 -0.0589  0.0886  0.0469
28378W        W71472  29.056  31.387  23.836 -0.0399  0.1538  0.1752
28379W        W71473  25.419  32.766  22.354 -0.0361 -0.1691 -0.0644
28380W        W71474  28.093  31.672  18.627 -0.0527 -0.0321 -0.1666
28381W        W71475  25.881  29.553  20.261  0.0586  0.1605  0.1329
28382W        W71476  28.484  29.981  21.834  0.0257  0.2180  0.2006
28383W        W71477  29.403  28.931  22.510 -0.1557 -0.1921 -0.0383
28384W        W71478  27.967  31.838  19.266  0.1019 -0.1240  0.0466
28385W        W71479  27.747  31.451  21.801 -0.2150  0.0489  0.3111
28386W        W71480  26.595  33.759  22.232 -0.0219 -0.1116 -0.2406
28387W        W71481  27.161  31.866  23.055 -0.0342  0.0632  0.2934
28388W        W71482  26.984  32.980  21.681 -0.0302 -0.0134 -0.0585
28389W        W71483  25.803  28.929  20.952  0.3006  0.1286 -0.0223
28390W        W71484  28.505  30.348  22.287  0.1183  0.4958  0.1173
28391W        W71485  27.350  30.573  23.592  0.0955  0.0012 -0.0623
28392W        W71486  29.450  29.419  22.884  0.1797  0.1430  0.0972
28393W        W71487  26.034  30.609  20.733 -0.1902 -0.1281 -0.0806
28394W        W71488  28.249  31.257  22.753  0.0177  0.2019 -0.1646
28395W        W71489  26.484  32.007  22.593  0.2393 -0.1342  0.0903
28396W        W71490  27.185  31.308  24.471 -0.1467 -0.0135  0.0252
28397W        W71491  27.608  30.199  20.529  0.0417 -0.2015  0.4591
28398W        W71492  28.544  31.531  23.874 -0.3649  0.3361 -0.1202
28399W        W71493  27.581  30.691  19.517 -0.1811 -0.3994  0.1208
28400W        W71494  28.764  31.949  23.030 -0.1412 -0.1999  0.0284
28401W        W71495  26.598  31.714  21.647  0.1822 -0.0417 -0.0011
28402W        W71496  26.592  30.057  22.074  0.1828  0.1515  0.3906
28403W        W71497  26.052  31.703  22.051  0.3627 -0.2868 -0.1598
28404W        W71498  25.954  30.632  23.337  0.2462 -0.1085  0.3608
28405W        W71499  28.793  32.714  22.312 -0.2092  0.0789  0.0606
28406W        W71500  27.625  27.615  20.250  0.0224  0.3213  0.0604
28407W        W71501  30.349  31.176  20.445  0.1833 -0.1925  0.1360
28408W        W71502  29.322  32.237  21.838  0.2045 -0.1156  0.1711
28409W        W71503  27.790  32.851  19.486 -0.1636  0.1062  0.3105
28410W        W71504  28.323  31.647  21.656  0.0977 -0.0948  0.0108
28411W        W71505  28.367  31.297  21.291  0.3406 -0.2356  0.1009
28412W        W71506  26.554  30.501  22.380  0.0650  0.1013  0.0345
28413W        W71507  27.863  31.757  22.672  0.0005 -0.0318  0.1178
28414W        W71508  29.272  33.246  23.971 -0.1881  0.2460 -0.0354
28415W        W71509  27.500  29.555  21.026  0.2229 -0.0753 -0.0682
28416W        W71510  27.329  30.793  21.353 -0.0680 -0.1075  0.1408
28417W        W71511  24.868  32.856  21.463 -0.1253 -0.1496  0.1793
28418W        W71512  29.337  29.567  21.793  0.2195 -0.4572  0.3908
28419W        W71513  26.898  30.753  23.339  0.1376 -0.0516 -0.0318
28420W        W71514  26.083  32.800  19.546  0.0140  0.3146  0.0117
28421W        W71515  29.987  30.132  23.553  0.4686 -0.0394 -0.3294
28422W        W71516  27.330  31.463  22.801 -0.1026  0.0386  0.0789
28423W        W71517  26.978  32.827  22.657  0.1091  0.0171 -0.1560
28424W        W71518  25.358  31.092  20.948  0.0180 -0.1520  0.0229
28425W        W71519  26.913  32.047  21.949 -0.1607  0.3600 -0.1286
28426W        W71520  26.111  31.931  21.571 -0.1501  0.1419  0.1341
28427W        W71521  27.327  32.947  20.405 -0.0134 -0.3258 -0.0643
28428W        W71522  26.698  31.706  23.363 -0.0361 -0.2569 -0.2219
28429W        W71523  27.072  30.301  21.388 -0.0829 -0.0364 -0.0255
28430W        W71524  29.119  32.383  22.464 -0.2475 -0.1126 -0.0884
28431W        W71525  25.447  30.483  21.866  0.2498  0.3920 -0.0064
28432W        W71526  28.828  29.349  21.248 -0.1117  0.1022 -0.3487
28433W        W71527  28.391  29.682  19.026 -0.4585  0.0111 -0.0284
28434W        W71528  26.362  31.955  23.069  0.1363  0.0679  0.3973
28435W        W71529  26.373  29.865  21.660 -0.3989 -0.3033  0.0240
28436W        W71530  25.280  31.132  18.381  0.2562 -0.1539  0.2930
28437W        W71531  25.683  32.309  20.420 -0.1823 -0.1021 -0.0198
28438W        W71532  27.860  28.577  24.497  0.3875 -0.1453  0.0744
28439W        W71533  26.092  32.134  24.207 -0.3124  0.1326  0.2395
28440W        W71534  25.448  32.481  20.945  0.1184  0.1677 -0.0091
28441W        W71535  26.660  31.340  20.353 -0.4010  0.0327 -0.0974
28442W        W71536  28.532  31.689  19.812  0.2461  0.0405 -0.1952
28443W        W71537  27.780  30.168  21.940  0.1569  0.1136 -0.1560
28444W        W71538  26.437  30.458  21.486  0.1241 -0.1230 -0.1516
28445W        W71539  27.264  31.226  20.451  0.2057  0.1825  0.1248
28446W        W71540  29.207  32.063  21.271 -0.0183 -0.0896  0.1536
28447W        W71541  27.127  29.782  21.344 -0.0036 -0.0483 -0.1594
28448W        W71542  27.956  32.612  24.771 -0.1900 -0.1476 -0.0334
28449W        W71543  25.275  32.791  20.526  0.0345 -0.1456 -0.2361
28450W        W71544  27.540  29.796  22.155  0.0137  0.2265 -0.0399
28451W        W71545  27.699  29.315  21.982  0.0714 -0.0986 -0.0210
28452W        W71546  26.632  29.479  17.275  0.0832 -0.0049  0.2675
28453W        W71547  27.367  32.220  23.916 -0.0797 -0.4327 -0.0849
28454W        W71548  27.072  31.829  19.597 -0.2801 -0.3137  0.1869
28455W        W71549  28.342  32.291  19.559  0.2638  0.0083  0.1767
28456W        W71550  28.308  32.116  22.715 -0.1116  0.0590 -0.1581
28457W        W71551  27.403  32.986  22.355  0.1445  0.1538  0.1410
28458W        W71552  25.590  31.482  23.482 -0.1545 -0.3668 -0.2042
28459W        W71553  28.602  31.725  22.031  0.0284  0.3207 -0.1132
28460W        W71554  27.706  32.542  23.165  0.0870  0.3471  0.0762
28461W        W71555  28.916  31.273  20.699 -0.3630  0.1896 -0.1124
28462W        W71556  28.800  32.016  22.533  0.0858 -0.1308  0.0481
28463W        W71557  28.373  31.617  22.444 -0.2468  0.2630 -0.2311
28464W        W71558  27.894  28.889  23.762  0.1539  0.0402  0.1292
28465W        W71559  27.366  32.536  22.637 -0.1070  0.4140  0.1159
28466W        W71560  28.625  32.462  22.668  0.2553 -0.3022 -0.0341
28467W        W71561  27.061  28.851  21.764  0.0148 -0.4762 -0.1102
28468W        W71562  27.794  29.311  20.731 -0.1460  0.1935 -0.0364
28469W        W71563  28.031  32.323  20.927  0.2270  0.0279 -0.1504
28470W        W71564  27.233  31.017  23.780 -0.1967  0.2582  0.3075
28471W        W71565  27.728  30.882  21.818  0.1335  0.0108 -0.1254
28472W        W71566  28.826  30.859  23.461  0.0989  0.2273  0.1494
28473W        W71567  26.687  32.532  21.885 -0.1610  0.1911  0.2095
28474W        W71568  28.395  32.085  24.188 -0.2368  0.0020 -0.0609
28475W        W71569  26.223  28.116  20.853 -0.3366  0.1320 -0.1787
28476W        W71570  28.183  31.098  21.711  0.0643  0.0474 -0.1147
28477W        W71571  28.988  33.262  23.070 -0.0996  0.1681  0.1534
28478W        W71572  29.948  33.637  24.085  0.0921 -0.1244 -0.3495
28479W        W71573  28.200  32.717  23.479 -0.0599  0.0347  0.0768
28480W        W71574  28.368  32.023  20.679  0.3944  0.0722  0.6272
28481W        W71575  26.652  29.987  21.261  0.0874 -0.0889 -0.0455
28482W        W71576  26.666  31.106  20.926  0.2267  0.0082  0.2528
28483W        W71577  26.110  32.473  21.764 -0.0788  0.0770  0.1473
28484W        W71578  29.296  30.897  22.617 -0.0582 -0.3583  0.2102
28485W        W71579  26.799  30.702  21.199  0.0068 -0.0279  0.0103
28486W        W71580  28.178  29.442  18.596 -0.0713 -0.0509  0.1062
28487W        W71581  27.834  34.273  22.460  0.3056  0.0044  0.2407
28488W        W71582  28.124  30.179  23.771 -0.1495 -0.2155 -0.1281
28489W        W71583  26.832  32.316  26.312  0.0681 -0.0078  0.2022
28490W        W71584  26.382  31.141  25.060 -0.2223  0.2378  0.2608
28491W        W71585  29.404  29.342  24.113  0.0282  0.2222  0.3359
28492W        W71586  29.263  31.320  23.368  0.2898  0.1553 -0.0076
28493W        W71587  26.904  28.903  24.495 -0.1587 -0.2780 -0.0041
28494W        W71588  28.494  32.695  25.069  0.0709 -0.0126  0.0290
28495W        W71589  26.376  29.210  27.145 -0.0511 -0.1256 -0.0726
28496W        W71590  28.421  32.199  25.241  0.1631 -0.2989 -0.0167
28497W        W71591  29.065  33.882  26.274  0.0725  0.0357  0.2389
28498W        W71592  27.867  31.669  23.565  0.0121  0.0868 -0.1039
28499W        W71593  26.092  30.791  25.448 -0.0738 -0.1841  0.2114
28500W        W71594  26.077  31.997  26.080  0.0286 -0.1928 -0.0458
28501W        W71595  28.551  30.523  23.656  0.3011 -0.0264  0.0825
28502W        W71596  24.653  29.060  27.248 -0.0703 -0.2970  0.1860
28503W        W71597  27.667  30.369  27.064 -0.2923  0.1116  0.1291
28504W        W71598  25.647  32.052  25.151  0.2510  0.0351  0.1891
28505W        W71599  26.876  30.303  25.688  0.0876 -0.0865  0.2481
28506W        W71600  27.741  30.389  26.219 -0.0292  0.0146  0.0199
28507W        W71601  27.241   0.002  24.968  0.3094 -0.2125 -0.0307
28508W        W71602  25.690  30.917  26.617  0.1027  0.0643 -0.0494
28509W        W71603  26.240  29.503  27.614  0.3950  0.1990  0.0208
28510W        W71604  27.249  31.756  24.170 -0.5051 -0.3838 -0.0723
28511W        W71605  26.614  30.177  24.069 -0.0602 -0.0273  0.2220
28512W        W71606  26.423  30.792  26.784 -0.0123  0.1385 -0.2658
28513W        W71607  25.900  29.410  27.156 -0.0888  0.0812  0.0390
28514W        W71608  28.649  29.664  24.957 -0.0031 -0.1535 -0.3665
28515W        W71609  29.820  29.693  25.042  0.1908 -0.1238 -0.2979
28516W        W71610  27.326  31.775  24.693 -0.2162 -0.0728  0.1747
28517W        W71611  27.191  33.160  25.083 -0.0789  0.1191 -0.1333
28518W        W71612  28.835  31.048  27.990  0.0158  0.0696  0.2271
28519W        W71613  24.380  31.576  24.624  0.1322  0.2000  0.2279
28520W        W71614  25.064  33.412  24.840  0.1663 -0.2762  0.0154
28521W        W71615  27.425  33.807  23.312 -0.1605 -0.1455  0.2128
28522W        W71616  28.797  32.628  24.645  0.1037  0.1217 -0.1661
28523W        W71617  28.378  31.982  27.608 -0.1977 -0.2615 -0.0089
28524W        W71618  27.478  31.725  25.716  0.1325  0.0645 -0.1784
28525W        W71619  26.352  32.749  23.572 -0.0063 -0.2809  0.1499
28526W        W71620  27.522  31.897  27.475  0.2392 -0.2827 -0.1784
28527W        W71621  26.522  31.966  27.522  0.1094  0.0661  0.1357
28528W        W71622  26.450  29.733  27.134  0.1680  0.0532 -0.0274
28529W        W71623  27.387  30.899  25.256  0.2122 -0.0291 -0.1583
28530W        W71624  27.047  32.601  24.821 -0.1478 -0.2374  0.0824
28531W        W71625  28.299  30.400  26.158  0.2400 -0.3470  0.2896
28532W        W71626  27.089  31.557  27.127 -0.2168  0.0349  0.1065
28533W        W71627  26.220  32.298  25.684 -0.0263  0.0441  0.0656
28534W        W71628  28.761  30.529  26.347 -0.0966 -0.0303  0.1217
28535W        W71629  26.876  32.637  23.647  0.2570 -0.1424  0.1447
28536W        W71630  26.748  31.673  22.851  0.0402 -0.1082 -0.0154
28537W        W71631  26.524  31.238  22.627 -0.1445  0.1974 -0.1041
28538W        W71632  27.039  30.585  24.031 -0.0071  0.1247 -0.1786
28539W        W71633  27.011  28.516  25.140  0.2051  0.0099  0.0371
28540W        W71634  26.969  33.434  24.585 -0.0968 -0.1163  0.0979
28541W        W71635  25.634  29.264  27.664 -0.3154 -0.1458 -0.1179
28542W        W71636  29.418  33.466  26.671 -0.3072  0.0424  0.0060
28543W        W71637  26.144  32.234  25.123 -0.1941 -0.0940 -0.4068
28544W        W71638  27.961  29.524  27.427 -0.2200 -0.3167 -0.1658
28545W        W71639  26.405  32.539  26.151  0.1454 -0.1687  0.0313
28546W        W71640  24.594  31.253  25.170  0.1068  0.1406 -0.0569
28547W        W71641  29.075   0.048  24.383  0.1387  0.0290  0.0650
28548W        W71642  29.206  30.882  25.278 -0.0575  0.0411  0.1084
28549W        W71643  27.454  32.222  24.470  0.0887  0.5146  0.0067
28550W        W71644  26.053  29.811  25.885  0.0317  0.2286  0.0110
28551W        W71645  25.517  32.199  26.723  0.1299  0.2272  0.2248
28552W        W71646  26.254  31.504  25.961  0.0106  0.4170  0.0729
28553W        W71647  27.462  29.495  22.664 -0.1356  0.0594 -0.0533
28554W        W71648  27.892  31.148  27.605  0.0258 -0.1224 -0.2464
28555W        W71649  25.963  32.757  26.180 -0.1656  0.1083  0.1412
28556W        W71650  28.874  29.359  24.670  0.0774 -0.2465 -0.1921
28557W        W71651  26.337  31.693  25.011  0.1579 -0.0097  0.3771
28558W        W71652  28.869  31.620  27.104 -0.2424  0.3749  0.2826
28559W        W71653  27.472  30.612  24.852 -0.3270  0.0236 -0.1338
28560W        W71654  29.527  29.532  26.553 -0.0949  0.0503  0.2133
28561W        W71655  28.186  29.583  26.177  0.3117 -0.1601  0.0107
28562W        W71656  25.448  30.861  25.104  0.2107  0.0318  0.1805
28563W        W71657  26.429  32.142  24.709  0.3393  0.0022  0.3037
28564W        W71658  29.008  32.915  26.625  0.1608 -0.0338 -0.0001
28565W        W71659  28.759  30.931  24.787 -0.0172 -0.1273  0.2163
28566W        W71660  27.949  31.880  25.507  0.1347 -0.0879  0.0995
28567W        W71661  26.857  30.059  26.167 -0.1712 -0.0311 -0.1554
28568W        W71662  28.930  31.581  26.518 -0.2581 -0.0309  0.1308
28569W        W71663  27.362  33.324  21.986  0.0721  0.0704 -0.0412
28570W        W71664  25.183  31.953  26.373  0.0893 -0.0865 -0.0203
28571W        W71665  24.710  32.637  23.340 -0.0629 -0.0749  0.0986
28572W        W71666  26.402  29.966  27.614  0.0314  0.1256  0.2688
28573W        W71667  25.918  33.120  25.388  0.1811 -0.2215 -0.3185
28574W        W71668  29.976  29.194  24.939 -0.2940 -0.0048  0.0943
28575W        W71669  25.032  30.365  27.638  0.1798 -0.2497 -0.1103
28576W        W71670  28.456  28.770  26.284  0.1508 -0.0049 -0.1240
28577W        W71671  27.544  32.171  25.040 -0.0074 -0.2495 -0.2243
28578W        W71672  28.298  33.176  25.140 -0.0586 -0.2374  0.3699
28579W        W71673  29.176  29.704  24.424 -0.1607 -0.0648 -0.2118
28580W        W71674  28.460  31.657  24.448  0.1371  0.1494  0.6142
28581W        W71675  26.348  31.269  26.913 -0.1668  0.1694  0.0594
28582W        W71676  25.529  29.554  26.068  0.0296  0.0195  0.2664
28583W        W71677  26.613  30.507  27.551 -0.0291 -0.0435 -0.2486
28584W        W71678  26.545  29.712  26.066  0.1052  0.0913 -0.1237
28585W        W71679  29.938  31.561  25.916 -0.0325 -0.0342  0.0371
28586W        W71680  27.111  28.523  22.881 -0.0608 -0.1133  0.2492
28587W        W71681  28.238  29.953  25.858  0.1316  0.1251 -0.0423
28588W        W71682  27.927  29.044  24.230 -0.2321 -0.2482  0.1281
28589W        W71683  25.293  33.103  24.542 -0.0821  0.1041 -0.0433
28590W        W71684  28.841  31.355  27.614 -0.2530  0.0892 -0.2606
28591W        W71685  26.799  33.301  24.146 -0.1026  0.1653  0.0029
28592W        W71686  30.446  31.969  27.189 -0.0216  0.0053 -0.0837
28593W        W71687  27.705  33.530  24.558  0.1113 -0.3689 -0.1676
28594W        W71688  25.524  31.336  26.373 -0.2101  0.1683 -0.0058
28595W        W71689  26.573  31.337  23.745 -0.3001  0.1544 -0.0593
28596W        W71690  25.722  33.885  24.243 -0.0546  0.3417  0.2008
28597W        W71691  25.759  33.761  25.411  0.0249  0.2192  0.2766
28598W        W71692  27.915  29.752  24.575  0.3980 -0.0043 -0.2075
28599W        W71693  29.199  32.638  25.391 -0.0066  0.1347 -0.0645
28600W        W71694  26.361  31.832  23.725 -0.1353  0.1757  0.0222
28601W        W71695  24.578  32.259  25.796 -0.0223 -0.0725  0.1007
28602W        W71696  29.292  29.502  27.543  0.0476 -0.0352  0.0508
28603W        W71697  27.904  30.906  26.188 -0.2338 -0.0243 -0.0097
28604W        W71698  27.024  30.833  25.567 -0.0697 -0.0937 -0.1253
28605W        W71699  26.263  30.459  24.870  0.1855 -0.0378 -0.1262
28606W        W71700  28.212  32.408  25.719  0.0891  0.0097 -0.0898
28607W        W71701  25.946  33.128  23.624  0.0256  0.2793 -0.0606
28608W        W71702  25.900  30.934  24.889  0.1101  0.2915 -0.2650
28609W        W71703  28.158  32.880  23.993 -0.0748 -0.0832 -0.1361
28610W        W71704  27.390  29.825  24.431  0.2061  0.0888 -0.0063
28611W        W71705  25.982  32.015  26.847 -0.0963  0.2326 -0.1578
28612W        W71706  27.207  28.843  27.165  0.1401 -0.1624  0.3350
28613W        W71707  24.908  30.108  25.813 -0.3033 -0.3711  0.2142
28614W        W71708  25.846  31.262  25.393 -0.0002  0.0250  0.2506
28615W        W71709  27.510  29.694  25.634 -0.0376 -0.1037 -0.1038
28616W        W71710  28.292  30.011  24.679 -0.0098  0.1745 -0.0398
28617W        W71711  26.470  31.125  26.393  0.0966  0.1309  0.2199
28618W        W71712  29.602  31.684  25.501  0.2810  0.2539 -0.2037
28619W        W71713  29.437  30.063  25.129  0.2590  0.0600 -0.0243
28620W        W71714  27.863  29.692  22.485  0.2787  0.4203  0.1076
28621W        W71715  26.478  31.549  27.769  0.1990  0.2349  0.2937
28622W        W71716  27.892  32.041  24.657  0.3086 -0.1431 -0.2143
28623W        W71717  27.459  31.078  26.408 -0.0804  0.0634 -0.1870
28624W        W71718  27.656  30.936  24.289  0.3269 -0.0631  0.0195
28625W        W71719  29.100  33.062  25.186 -0.2186 -0.0399  0.2415
28626W        W71720  25.671  32.832  25.780  0.1909  0.0983 -0.2644
28627W        W71721  28.141  30.786  27.124  0.2320  0.0775  0.3696
28628W        W71722  27.337  33.162  24.340  0.4140 -0.3135 -0.0215
28629W        W71723  27.510  28.675  25.998 -0.2095  0.2630  0.2372
28630W        W71724  26.701  31.158  24.606 -0.2316  0.0120  0.0255
28631W        W71725  27.389  29.372  26.651  0.3905 -0.0040 -0.1380
28632W        W71726  26.013  32.581  22.266 -0.0230 -0.2456  0.1590
28633W        W71727  28.507  29.685  26.853 -0.2863 -0.0955 -0.0647
28634W        W71728  28.052  29.542  25.073 -0.4024  0.0960 -0.1357
28635W        W71729  26.777  27.961  26.862 -0.0484  0.0192  0.0779
28636W        W71730  28.926  30.946  26.606  0.0875 -0.0819  0.0513
28637W        W71731  29.030  29.823  25.312 -0.1776 -0.2538 -0.2592
28638W        W71732  26.972  29.725  25.797  0.0687  0.0192  0.1594
28639W        W71733  28.032  31.360  25.175 -0.0688  0.1664 -0.0930
28640W        W71734  27.842  29.334  26.390  0.0123 -0.2415 -0.1346
28641W        W71735  25.646  31.512  25.022  0.1342  0.1816 -0.1890
28642W        W71736  26.285  33.347  25.751 -0.0526  0.1457  0.1720
28643W        W71737  27.819  31.344  26.533 -0.0284 -0.1836 -0.0437
28644W        W71738  28.920  32.173  25.534 -0.2067 -0.0754 -0.2236
28645W        W71739  28.751  30.213  27.930 -0.0096  0.2066  0.1826
28646W        W71740  27.381  30.150  25.858  0.0311  0.0937  0.0413
28647W        W71741  25.940  33.503  24.431  0.1825 -0.0061  0.1734
28648W        W71742  28.388  34.158  23.693  0.0553 -0.0614  0.1617
28649W        W71743  26.486  29.316  26.610  0.0535 -0.5022  0.1093
28650W        W71744  25.819  31.381  25.872 -0.2540  0.1902 -0.1423
28651W        W71745  27.200  32.866  23.150  0.0058  0.0882  0.0145
28652W        W71746  28.209  31.292  26.118 -0.1003  0.1897 -0.0483
28653W        W71747  25.332  33.815  23.890 -0.0153  0.1693 -0.0824
28654W        W71748  27.895  28.822  26.309 -0.2564 -0.2960  0.0672
28655W        W71749  25.645  33.820  24.768 -0.2309 -0.0258  0.0762
28656W        W71750  25.804  31.112  24.341 -0.0482  0.0257  0.0808
28657W        W71751  26.600  31.230  23.130  0.1901 -0.2350 -0.1191
28658W        W71752  27.057  30.799  24.505  0.2048  0.2622  0.3204
28659W        W71753  28.642  31.714  25.427  0.2254 -0.0837  0.0245
28660W        W71754  27.925  29.512  23.981  0.3323  0.0628 -0.0067
28661W        W71755  27.523  28.756  25.483  0.1059 -0.1043 -0.2952
28662W        W71756  26.253  33.472  26.327  0.2065  0.0675  0.1908
28663W        W71757  27.228  30.585  26.192 -0.1679  0.1517 -0.0865
28664W        W71758  27.771  29.417  23.050 -0.1495  0.1418  0.2959
28665W        W71759  28.287  32.189  26.227  0.0893  0.0694 -0.0543
28666W        W71760  26.831  31.494  28.460  0.1807  0.3280 -0.0812
28667W        W71761  26.142  30.418  24.306  0.1611 -0.1462  0.0697
28668W        W71762  28.835  30.947  25.601 -0.1004  0.0784 -0.0991
28669W        W71763  26.207  30.285  25.343 -0.0812  0.0415  0.1150
28670W        W71764  26.511  31.922  25.436  0.5114 -0.0734  0.0400
28671W        W71765  27.129  32.271  25.349  0.2444  0.0616 -0.0574
28672W        W71766  26.251  32.443  22.897  0.0015  0.3743  0.1238
28673W        W71767  26.177  33.932  25.613  0.0683 -0.0381  0.0301
28674W        W71768  27.543  31.448  27.288 -0.0788  0.3127 -0.2913
28675W        W71769  28.571  31.014  27.218  0.0656  0.3719  0.4017
28676W        W71770  25.903  31.815  25.499  0.4128  0.0029 -0.1504
28677W        W71771  27.534  29.777  27.180  0.0802  0.2358 -0.2183
28678W        W71772  27.186  31.805  25.154  0.1397  0.0705 -0.2323
28679W        W71773  27.963  31.640  27.472 -0.0985  0.0021 -0.0675
28680W        W71774  27.500  27.979  27.384  0.1813  0.0461  0.2032
28681W        W71775  25.406  32.104  27.928  0.0237 -0.0014 -0.0118
28682W        W71776  28.863  28.875  24.869 -0.1145  0.0486  0.0606
28683W        W71777  29.337  33.225  24.745 -0.1501  0.2381  0.0659
28684W        W71778  28.045  29.949  27.082  0.1786  0.0641  0.0548
28685W        W71779  26.872  32.790  24.424  0.0784 -0.0025  0.0237
28686W        W71780  26.523  32.723  27.265  0.1051 -0.0480  0.0472
28687W        W71781  28.494  30.483  24.782  0.1241  0.2085 -0.3198
28688W        W71782  28.318  29.294  26.586  0.0868 -0.0609 -0.2692
28689W        W71783  26.358  33.034  26.182  0.0226  0.1941  0.1359
28690W        W71784  26.726  32.422  25.737 -0.3086  0.0905  0.0834
28691W        W71785  27.034  33.178  25.568  0.3190 -0.1738 -0.3275
28692W        W71786  28.462  29.228  25.075 -0.0657 -0.2131  0.0531
28693W        W71787  27.641  33.015  23.944  0.0748  0.2223 -0.2730
28694W        W71788  27.744  28.542  26.844  0.2632 -0.0626  0.0964
28695W        W71789  29.810  28.045  26.951  0.0110  0.1882 -0.0493
28696W        W71790  29.618  30.005  24.667  0.1258  0.1031  0.1113
28697W        W71791  27.772  29.032  27.451  0.0657 -0.1770 -0.0342
28698W        W71792  25.335  29.599  26.544  0.3601 -0.5019  0.2068
28699W        W71793  28.471  31.404  24.847  0.0032  0.1481 -0.1342
28700W        W71794  25.833  31.416  26.773  0.0947  0.3135  0.1279
28701W        W71795  27.877  31.992  27.827  0.1457  0.1647  0.2474
28702W        W71796  24.917  31.900  28.641  0.0741 -0.1466  0.0297
28703W        W71797  27.299  30.148  23.931  0.0944  0.1118 -0.0816
28704W        W71798  27.577  28.943  23.234  0.2401  0.3248 -0.4699
28705W        W71799  26.557  30.652  26.185 -0.0398 -0.0472 -0.1414
28706W        W71800  27.729  30.851  26.763 -0.0370 -0.2241  0.2331
28707W        W71801  25.904  31.893  24.753 -0.0931  0.0097 -0.2329
28708W        W71802  28.926  28.924  25.918 -0.2064 -0.1365  0.3138
28709W        W71803  23.915  32.064  28.250  0.2963  0.0792  0.1195
28710W        W71804  26.745  28.919  25.281  0.1363 -0.0743 -0.0265
28711W        W71805  27.652  31.094  24.865  0.0360  0.0039  0.1023
28712W        W71806  26.394  32.572  24.378 -0.1641  0.2142  0.6296
28713W        W71807  26.587  28.656  26.068  0.2787 -0.4155  0.2640
28714W        W71808  27.989  31.348  27.030  0.1348 -0.1753  0.2099
28715W        W71809  27.248  30.719  26.924 -0.0776  0.2305 -0.0382
28716W        W71810  28.572  28.913  27.377 -0.0779  0.0253 -0.0963
28717W        W71811  27.949  29.513  26.881  0.2425  0.1055 -0.0017
28718W        W71812  27.591  31.548  27.807  0.0048 -0.0398  0.0518
28719W        W71813  25.176  29.793  27.562 -0.1349  0.0327  0.2994
28720W        W71814  29.091  31.968  26.723  0.0939 -0.2171 -0.0927
28721W        W71815  28.228  30.226  24.260 -0.0279 -0.1920  0.1079
28722W        W71816  28.837  30.142  27.351  0.0068  0.0514  0.0934
28723W        W71817  28.421  29.671  25.419  0.0408 -0.2277  0.1473
28724W        W71818  29.107  29.915  23.931  0.2310 -0.1850 -0.1236
28725W        W71819  27.770  30.005  24.116  0.0475 -0.2518 -0.0890
28726W        W71820  28.220  32.267  26.707 -0.1581 -0.1756 -0.2212
28727W        W71821  26.860  29.587  23.655 -0.0253  0.2673  0.2805
28728W        W71822  28.318  29.581  27.863 -0.2118 -0.0975  0.3492
28729W        W71823  27.615  32.513  22.176  0.3468  0.1026 -0.1899
28730W        W71824  26.804  31.364  25.309 -0.0652  0.0249  0.4367
28731W        W71825  28.011  29.934  25.426  0.4322 -0.1033 -0.1213
28732W        W71826  25.833  29.556  26.683 -0.1590  0.4345  0.0401
28733W        W71827  25.995  31.163  26.323 -0.1494 -0.1518 -0.1793
28734W        W71828  26.747  29.938  23.266 -0.2956 -0.0533  0.0912
28735W        W71829  26.179  31.470  23.364 -0.2330 -0.0743 -0.2201
28736W        W71830  26.824  31.374  26.736  0.3753 -0.1572 -0.0546
28737W        W71831  27.886  30.815  28.040  0.1014 -0.2092  0.1704
28738W        W71832  26.658  28.252  23.827 -0.0239  0.1349  0.0092
28739W        W71833  28.400  29.870  27.408 -0.0238  0.1398 -0.3151
28740W        W71834  26.058  32.759  24.019  0.0970  0.0398  0.2320
28741W        W71835  28.824  29.410  25.685  0.2078  0.0868  0.3542
28742W        W71836  27.409  32.518  26.126  0.0295  0.0490 -0.4439
28743W        W71837  25.760  32.630  25.281  0.0160  0.5629  0.2218
28744W        W71838  27.104  33.071  23.850 -0.4048  0.0683 -0.1410
28745W        W71839  26.874  27.557  25.638 -0.0823  0.4947 -0.3638
28746W        W71840  29.199  30.991  24.545  0.0468  0.2944  0.0481
28747W        W71841  26.477  30.537  25.698  0.0216  0.1866  0.2398
28748W        W71842  28.116  29.930  26.570  0.3781  0.0752 -0.3574
28749W        W71843  27.917  30.757  25.407 -0.0918 -0.5543 -0.1030
28750W        W71844  25.326  32.509  25.196  0.0489 -0.0455 -0.0547
28751W        W71845  27.162  31.321  25.687  0.1268 -0.0836  0.0816
28752W        W71846  27.242  31.335  24.976 -0.1741  0.0763  0.3071
28753W        W71847  26.299  31.454  25.473  0.1389  0.0951  0.2528
28754W        W71848  24.399  30.839  26.431  0.1603  0.0957  0.1376
28755W        W71849  27.354  31.169  26.959  0.0636 -0.2783  0.1237
28756W        W71850  27.566  31.337  25.411 -0.0384 -0.0207 -0.3467
28757W        W71851  27.413  28.905  24.508  0.0730 -0.2339  0.1025
28758W        W71852  28.681  32.369  23.284  0.0128  0.1540  0.1103
28759W        W71853  25.753  32.339  25.703  0.0390  0.1321 -0.1046
28760W        W71854  25.435  31.616  25.453 -0.0366 -0.0667  0.2463
28761W        W71855  27.467  33.247  23.425  0.0971 -0.0465 -0.1419
28762W        W71856  27.603  31.451  24.390 -0.3675  0.2141  0.1847
28763W        W71857  26.830  31.612  24.894 -0.0407 -0.0977 -0.3261
28764W        W71858  28.173  33.581  24.825 -0.1490 -0.1599 -0.0425
28765W        W71859  28.157  30.707  23.941  0.1573 -0.2343 -0.2721
28766W        W71860  26.484  33.339  25.230  0.0597  0.0858 -0.2152
28767W        W71861  26.723  32.631  23.183 -0.1687 -0.1556 -0.0562
28768W        W71862  27.731  31.979  24.117 -0.1305 -0.0219  0.2600
28769W        W71863  26.726  33.043  24.851 -0.2542 -0.0763  0.1919
28770W        W71864  29.052  32.415  26.451 -0.0634 -0.0173 -0.0660
28771W        W71865  30.212  29.557  23.156  0.0011  0.1708  0.0697
28772W        W71866  30.045  30.670  25.355 -0.0008  0.1105  0.0220
28773W        W71867  30.437  29.433  23.831  0.0959 -0.0824 -0.1513
28774W        W71868  28.801  32.119  27.396  0.2339  0.0337 -0.1329
28775W        W71869  26.094  31.328  24.714  0.0676 -0.1797  0.1100
28776W        W71870  29.389  30.110  23.418 -0.0091  0.0331  0.0539
28777W        W71871  25.420  31.240  27.025  0.1440 -0.0002  0.2654
28778W        W71872  29.822  29.877  26.781  0.1986  0.3893  0.2536
28779W        W71873  26.691  31.868  27.023  0.1449 -0.0533 -0.0176
28780W        W71874  28.723  32.891  23.718 -0.0892 -0.0556 -0.0165
28781W        W71875  25.755  29.410  25.599 -0.2660  0.1097  0.0621
28782W        W71876  26.838  31.101  24.095  0.1233  0.4017 -0.2210
28783W        W71877  28.616  28.280  26.233 -0.2133  0.2732 -0.1483
28784W        W71878  27.851  32.583  23.819 -0.0104 -0.0571 -0.0561
28785W        W71879  28.055  29.086  25.952  0.1116 -0.3700 -0.0919
28786W        W71880  27.373  34.070  23.808  0.0664 -0.2947  0.0542
28787W        W71881  26.424  34.298  24.894 -0.0075  0.2100  0.2250
28788W        W71882  27.257  31.455  26.186  0.0900  0.3122  0.2433
28789W        W71883  27.228  31.600  21.856 -0.1015  0.2475 -0.3361
28790W        W71884  28.669  30.453  25.739 -0.1710  0.2181  0.0117
28791W        W71885  26.819  30.906  27.115  0.3642  0.1668 -0.1527
28792W        W71886  29.777  29.767  27.422  0.2191  0.3209 -0.1026
28793W        W71887  24.957  30.815  25.262 -0.0133 -0.0980  0.0330
28794W        W71888  28.130  30.841  25.006 -0.2502 -0.1089  0.3550
28795W        W71889  28.197  31.090  26.688 -0.0061  0.2173 -0.0607
28796W        W71890  26.795  30.395  27.078 -0.0600  0.0481 -0.1672
28797W        W71891  26.813  31.601  24.226  0.3417 -0.3438  0.0833
28798W        W71892  28.644  32.118  26.932  0.0626 -0.0879  0.1363
28799W        W71893  27.974  30.614  24.513 -0.1712  0.0813 -0.3046
28800W        W71894  27.488  33.337  28.302  0.0911 -0.1422  0.0868
28801W        W71895  27.829  29.917  26.052 -0.0137  0.3047  0.1269
28802W        W71896  28.180  29.635  23.322  0.1114 -0.0248  0.1802
28803W        W71897  27.291  33.541  24.024  0.0023 -0.0698  0.1370
28804W        W71898  26.057  30.659  26.391 -0.2671  0.1603 -0.3285
28805W        W71899  27.399  33.590  27.372 -0.1440 -0.1680  0.1069
28806W        W71900  27.430  30.431  24.360 -0.1830  0.0216  0.0476
28807W        W71901  29.155  32.861  24.313 -0.3636 -0.1240  0.5656
28808W        W71902  29.494  29.658  25.433 -0.1602 -0.0842  0.3489
28809W        W71903  27.969  33.005  23.083  0.2984  0.1279 -0.1362
28810W        W71904  27.259  30.117  24.877  0.0222 -0.3156  0.0586
28811W        W71905  27.938  32.390  25.268  0.2074  0.4250  0.3571
28812W        W71906  24.917  29.198  26.851 -0.2012 -0.0357 -0.0622
28813W        W71907  27.594  31.128  25.859 -0.2600 -0.1475 -0.0122
28814W        W71908  29.505  31.176  25.478  0.0932  0.1594  0.2080
28815W        W71909  27.553  29.388  24.769  0.3732  0.1508  0.1605
28816W        W71910  26.549  31.044  25.629 -0.0990  0.1848 -0.1226
28817W        W71911  26.439  33.603  22.649 -0.1245  0.0702 -0.1856
28818W        W71912  29.275  29.225  25.659 -0.2889 -0.2195 -0.2651
28819W        W71913  29.193  30.313  26.946  0.1406  0.1722 -0.1561
28820W        W71914  28.476  32.981  22.718  0.0702  0.1396 -0.0483
28821W        W71915  28.240  29.186  27.145  0.2012  0.1022  0.1033
28822W        W71916  26.911  31.001  26.023 -0.0076  0.1513 -0.1329
28823W        W71917  27.380  31.573  26.722  0.3049 -0.0638 -0.0360
28824W        W71918  25.743  30.455  25.257 -0.1158 -0.0657 -0.0620
28825W        W71919  27.227  30.482  27.409 -0.2010  0.2604  0.0228
28826W        W71920  26.543  32.040  24.218  0.0548  0.0690  0.3517
28827W        W71921  27.583  34.041  24.324  0.1500  0.2001  0.1022
28828W        W71922  28.945  32.331  25.077  0.2702  0.1397 -0.2782
28829W        W71923  27.323  30.084  26.405 -0.2276 -0.0883 -0.0233
28830W        W71924  30.268  31.463  26.438 -0.1850  0.3813 -0.1428
28831W        W71925  27.792  29.059  26.918  0.0238 -0.0875 -0.1830
28832W        W71926  29.272  28.661  24.082  0.1988  0.1547 -0.1492
28833W        W71927  29.103  29.024  24.351 -0.0842  0.1649  0.0020
28834W        W71928  27.111  31.068  27.448  0.1904 -0.0740 -0.1520
28835W        W71929  24.450  32.280  23.673  0.0790  0.0193 -0.2574
28836W        W71930  26.004  31.610  24.248  0.2204 -0.0167 -0.1514
28837W        W71931  23.982  31.634  24.287 -0.1603 -0.0277 -0.0224
28838W        W71932  28.170  28.282  26.617 -0.1796 -0.0400  0.2217
28839W        W71933  25.918  30.961  27.153 -0.1830  0.1508 -0.0000
28840W        W71934  25.599  31.843  25.894 -0.1051 -0.2521 -0.1289
28841W        W71935  26.805  29.883  25.022  0.1734  0.0384 -0.1778
28842W        W71936  27.697  31.648  24.967  0.3026  0.2656 -0.1453
28843W        W71937  27.945  28.981  25.278  0.5253 -0.1216  0.0461
28844W        W71938  25.841  28.917  25.769  0.1674 -0.0266 -0.0989
28845W        W71939  27.575  32.272  25.611 -0.1672 -0.0955  0.0091
28846W        W71940  26.894  32.759  25.284 -0.4241  0.0436  0.0254
28847W        W71941  26.965  30.908  24.988 -0.1393 -0.1241 -0.1046
28848W        W71942  28.543  33.188  26.967 -0.0408  0.1718 -0.1715
28849W        W71943  26.619  32.881  23.973 -0.0435  0.0315  0.3179
28850W        W71944  26.529  30.356  28.041  0.1045  0.2723 -0.0007
28851W        W71945  27.386  28.746  27.637  0.3073 -0.3044 -0.0414
28852W        W71946  24.660  28.624  25.620  0.4089 -0.1297  0.0845
28853W        W71947  27.644  29.867  26.721 -0.1677 -0.2822 -0.2145
28854W        W71948  27.488  32.947  24.797 -0.0851  0.1096  0.2470
28855W        W71949  29.212  33.590  23.474  0.1526 -0.0180 -0.2266
28856W        W71950  26.574  30.643  25.225 -0.0714 -0.1996  0.0484
28857W        W71951  26.956  30.912  26.573  0.0455  0.1570  0.0055
28858W        W71952  26.092  29.806  28.019  0.0044  0.1124  0.1130
28859W        W71953  28.432  31.104  25.291  0.1588 -0.0081 -0.0188
28860W        W71954  26.556  32.006  26.031 -0.1184 -0.1081  0.1323
28861W        W71955  28.869  30.493  25.170 -0.0661  0.1347  0.0160
28862W        W71956  29.608  30.774  24.072 -0.2923 -0.2666  0.0974
28863W        W71957  28.419  30.596  25.328  0.0928 -0.0030 -0.4509
28864W        W71958  25.948  30.546  26.857 -0.0027 -0.0934  0.0079
28865W        W71959  24.516  31.724  28.366 -0.0396  0.0701 -0.0116
28866W        W71960  28.559  30.124  25.209 -0.3211 -0.1441 -0.1361
28867W        W71961  26.526  29.482  25.336  0.1293 -0.0151 -0.1135
28868W        W71962  27.145  29.966  25.392 -0.0255 -0.1553 -0.1034
28869W        W71963  27.423  32.713  23.563 -0.0889 -0.3259 -0.1373
28870W        W71964  24.853  30.929  26.221  0.1348  0.0149  0.0454
28871W        W71965  28.293  31.008  24.617 -0.0031 -0.1125  0.1863
28872W        W71966  27.425  29.293  27.231 -0.2400  0.0941  0.0786
28873W        W71967  28.595  31.328  25.716 -0.0025 -0.0883  0.0320
28874W        W71968  28.095  30.640  27.572 -0.3330 -0.0543  0.1837
28875W        W71969  27.768  29.772  23.563 -0.0501  0.1829  0.2185
28876W        W71970  28.826  32.316  24.157 -0.1540 -0.0874  0.2816
28877W        W71971  28.462  31.547  27.393 -0.1770 -0.1814  0.1324
28878W        W71972  29.195  32.601  27.439  0.1194  0.2513  0.1865
28879W        W71973  26.403  32.330  27.025 -0.0321 -0.0129  0.1792
28880W        W71974  28.044  31.362  25.658  0.2367 -0.1492  0.0795
28881W        W71975  27.398  29.617  26.136  0.0305 -0.3460 -0.0387
28882W        W71976  26.725  31.581  26.250  0.0334  0.0193  0.0632
28883W        W71977  26.396  31.687  24.511  0.2059 -0.1374  0.1850
28884W        W71978  27.932  30.363  25.724 -0.1739 -0.1020 -0.0228
28885W        W71979  26.581  29.917  25.520 -0.1516 -0.3156 -0.1718
28886W        W71980  27.137  29.538  24.962  0.0470  0.2849 -0.1102
28887W        W71981  26.662  32.900  25.714  0.1061 -0.1284 -0.1558
28888W        W71982  27.460  30.687  25.707 -0.0356  0.1111 -0.0329
28889W        W71983  25.715  32.435  31.600  0.1183  0.0037 -0.1146
28890W        W71984  25.247  32.206  28.901 -0.0510  0.0594 -0.0213
28891W        W71985  29.647  29.395  27.098 -0.3279 -0.1030  0.0158
28892W        W71986  29.636  30.428  28.267 -0.0473  0.2894 -0.1599
28893W        W71987  24.575  29.143  27.725 -0.2324  0.0225 -0.2522
28894W        W71988  28.260  32.452  27.789 -0.5203 -0.2414  0.0370
28895W        W71989  24.754  30.905  29.880 -0.0544 -0.1811  0.4182
28896W        W71990  28.317  30.525  29.474 -0.0123 -0.0083 -0.1975
28897W        W71991  28.244  32.782  30.204 -0.0312 -0.0333  0.1193
28898W        W71992  28.197  30.147  27.739  0.2678 -0.4304 -0.0797
28899W        W71993  27.553  30.166  29.625  0.0868 -0.0031 -0.2404
28900W        W71994  27.658  31.767  30.719 -0.0707 -0.0458 -0.2497
28901W        W71995  26.835  30.059  28.461 -0.3980 -0.3544 -0.1160
28902W        W71996  25.472  30.073  30.606 -0.0229 -0.1360  0.1658
28903W        W71997  28.048  30.223  29.796 -0.2472 -0.0107  0.4250
28904W        W71998  24.990  31.898  29.199  0.3282 -0.0129  0.0781
28905W        W71999  28.152  31.084  30.352  0.2180 -0.2160 -0.1135
28906W        W72000  27.331  30.141  28.360  0.2342  0.3485 -0.2857
28907W        W72001  28.993  33.699  29.101 -0.0848  0.0376  0.1302
28908W        W72002  26.647  30.305  31.838  0.4191 -0.1812  0.1971
28909W        W72003  27.041  29.747  30.397 -0.2192  0.2146  0.0088
28910W        W72004  26.736  31.007  28.533  0.0055 -0.1791 -0.0477
28911W        W72005  25.559  30.108  26.726 -0.1294  0.0093 -0.1975
28912W        W72006  25.036  30.917  31.340  0.2703 -0.0992 -0.4114
28913W        W72007  26.660  31.430  29.610 -0.0955  0.0225  0.3502
28914W        W72008  29.071  30.848  29.869 -0.1154  0.0648 -0.0816
28915W        W72009  29.026  31.671  28.771  0.0001 -0.0970 -0.0326
28916W        W72010  26.221  32.917  29.262  0.1116  0.1006  0.1111
28917W        W72011  25.926  32.880  28.830 -0.1918  0.0028 -0.0625
28918W        W72012  29.204  30.959  31.547  0.1375 -0.0329 -0.0497
28919W        W72013  25.937  32.054  28.435  0.2332 -0.4556  0.2154
28920W        W72014  24.595  32.585  29.292 -0.0163 -0.2591 -0.1688
28921W        W72015  26.054  31.223  27.983  0.0020  0.1972  0.0682
28922W        W72016  29.870  32.095  28.357 -0.0876 -0.1208  0.2017
28923W        W72017  29.295  31.945  29.675 -0.1814 -0.2284 -0.1683
28924W        W72018  27.374  33.944   0.248  0.0236 -0.0357 -0.1214
28925W        W72019  24.247  32.400  28.005  0.0927 -0.0977 -0.3242
28926W        W72020  29.171  31.789  30.182 -0.1497 -0.0223  0.6841
28927W        W72021  27.248  32.346  29.895  0.0299 -0.2545 -0.2768
28928W        W72022  26.964  30.744  30.650  0.4365 -0.0154  0.0588
28929W        W72023  28.910  31.251  29.496  0.2482 -0.0354  0.1250
28930W        W72024  27.026  32.065  27.690 -0.0024 -0.1159  0.0586
28931W        W72025  29.009  31.990  29.194 -0.1728 -0.1200 -0.2194
28932W        W72026  25.571  30.446   0.809  0.2114  0.0317  0.0662
28933W        W72027  25.226  31.147  30.227 -0.1608  0.5282  0.2986
28934W        W72028  28.161  30.582  30.457 -0.1124  0.1692 -0.1511
28935W        W72029  25.052  32.428  29.326 -0.0635 -0.1663 -0.1624
28936W        W72030  28.589  30.704  28.480 -0.1357 -0.2694  0.0572
28937W        W72031  26.774  29.905  26.668  0.1652  0.4208 -0.1787
28938W        W72032  28.983  30.730  28.942  0.1885  0.0140  0.1592
28939W        W72033  25.625  30.474  29.328 -0.0398  0.0488 -0.0883
28940W        W72034  27.093  31.071  28.852  0.3795 -0.0707 -0.4094
28941W        W72035  27.854  30.746  30.059  0.0126 -0.0155  0.2498
28942W        W72036  29.052  32.227  30.432  0.1660 -0.0872 -0.1905
28943W        W72037  26.091  30.824  27.651  0.0268 -0.3083 -0.2005
28944W        W72038  29.262  30.080  28.020 -0.0516 -0.3981 -0.0109
28945W        W72039  26.343  31.657  29.947 -0.2905 -0.0898 -0.1792
28946W        W72040  27.352  30.665  30.149 -0.0938  0.0373 -0.3015
28947W        W72041  28.332  33.149  28.365 -0.4916  0.1062 -0.0381
28948W        W72042  28.364  31.784  28.494  0.0664  0.1419 -0.2046
28949W        W72043  26.972  31.917  26.575 -0.0101  0.0922 -0.0230
28950W        W72044  24.414  32.095  29.383  0.2811 -0.2037  0.0845
28951W        W72045  26.314  31.064  29.272  0.1648  0.2300 -0.0867
28952W        W72046  25.600  30.239  31.708 -0.2475  0.0339  0.0120
28953W        W72047  27.256  29.041  26.200 -0.0367 -0.1673  0.2645
28954W        W72048  29.478  30.135  31.751 -0.2388  0.0721  0.0049
28955W        W72049  24.945  32.182  31.043  0.0112 -0.0070  0.0884
28956W        W72050  28.793  30.274  29.108 -0.1905 -0.0167 -0.2652
28957W        W72051  27.733  30.447  28.519  0.0535  0.0926 -0.0515
28958W        W72052  29.034  33.914  29.940  0.0413  0.1104 -0.2521
28959W        W72053  27.602  30.822  27.278 -0.1467 -0.2059  0.0223
28960W        W72054  27.619  29.377  30.111  0.0987 -0.1158 -0.0848
28961W        W72055  27.348  29.897  30.881 -0.1635 -0.2441 -0.1201
28962W        W72056  25.390  31.725  26.783  0.0407  0.1206  0.0267
28963W        W72057  26.969  31.796  29.162  0.1397  0.0070 -0.1548
28964W        W72058  29.123  33.741  31.461 -0.1758 -0.1251  0.2948
28965W        W72059  28.403  31.130  27.815  0.1648 -0.3974 -0.1888
28966W        W72060  25.511  32.208  29.473 -0.2012 -0.0658 -0.2734
28967W        W72061  27.584  30.377  30.676  0.1838 -0.0593  0.1709
28968W        W72062  28.107  31.035  29.406 -0.0321  0.0956 -0.3014
28969W        W72063  25.861  32.376  28.028  0.1654 -0.2140 -0.0021
28970W        W72064  25.153  31.428  28.625  0.4307  0.1566  0.0264
28971W        W72065  26.476  32.050  28.435  0.0535 -0.0295 -0.2552
28972W        W72066  24.553  30.121  30.370 -0.1528  0.3315  0.0742
28973W        W72067  26.762  30.949  29.705 -0.2980 -0.2818 -0.2423
28974W        W72068  29.460  30.461  28.718 -0.0439  0.0574  0.1278
28975W        W72069  24.947  29.207   1.010  0.3688 -0.0074  0.0196
28976W        W72070  28.424  29.730  31.734  0.1974 -0.2725  0.2424
28977W        W72071  25.423  32.450  29.894 -0.0262 -0.1279  0.0682
28978W        W72072  29.559  33.124  27.919 -0.2459  0.2004  0.2385
28979W        W72073  28.926  30.158  28.494  0.1659  0.3216  0.0887
28980W        W72074  28.315  32.304  27.227 -0.0964 -0.0815  0.0667
28981W        W72075  27.143  31.300  30.498 -0.1120  0.0011 -0.1658
28982W        W72076  26.046  31.749  28.858  0.2033 -0.0978  0.1897
28983W        W72077  25.943  30.034  30.854  0.0855  0.2251  0.1115
28984W        W72078  25.080  29.881  29.619 -0.0058  0.0117 -0.1504
28985W        W72079  28.716  30.487  30.730  0.1493  0.1324  0.1385
28986W        W72080  25.521  28.780  27.721  0.0857 -0.1014  0.1580
28987W        W72081  28.104  29.760  29.490  0.0605  0.0054  0.2860
28988W        W72082  27.534  31.353  29.339 -0.1746  0.0367  0.2027
28989W        W72083  25.745  31.270  30.015 -0.1984  0.0441  0.0017
28990W        W72084  28.656  30.191  31.233 -0.0397 -0.1660  0.0208
28991W        W72085  26.740  31.343  29.005  0.0099  0.0699 -0.1141
28992W        W72086  29.287  34.236  31.226 -0.3953 -0.0111 -0.0448
28993W        W72087  28.755  32.013  30.084 -0.1662  0.3257  0.3147
28994W        W72088  26.780  30.410  29.278 -0.1338 -0.1127 -0.2831
28995W        W72089  26.031  30.393  28.188 -0.2720  0.3045 -0.1426
28996W        W72090  25.641  32.506  29.116  0.1963 -0.1516 -0.0251
28997W        W72091  27.921  32.120  29.198  0.1612  0.0691 -0.0931
28998W        W72092  26.915  30.505  28.310  0.2180  0.3286 -0.0069
28999W        W72093  29.095  32.880  29.890  0.0275  0.2874 -0.1224
29000W        W72094  27.871  31.853  28.308  0.0946 -0.3045  0.2197
29001W        W72095  26.402  32.348  30.353 -0.2244  0.1600 -0.0896
29002W        W72096  27.988  30.600  31.128 -0.1707 -0.0446 -0.0337
29003W        W72097  29.992  31.939  28.874  0.0716 -0.1739 -0.1462
29004W        W72098  27.769  30.103  27.467  0.5115 -0.0912 -0.0007
29005W        W72099  25.706  30.694  27.939 -0.1238 -0.0143  0.2972
29006W        W72100  28.034  33.898  29.885  0.0490  0.0950 -0.0714
29007W        W72101  26.258  32.198  28.862  0.0193  0.1197 -0.1017
29008W        W72102  26.617  32.138  29.197  0.0138 -0.4797  0.1869
29009W        W72103  27.120  31.269  29.653 -0.0143 -0.0040 -0.0190
29010W        W72104  28.632  29.691  29.247 -0.0532 -0.2453 -0.1097
29011W        W72105  24.471  31.707  31.430  0.4367  0.1486  0.2703
29012W        W72106  26.212  30.770  31.920 -0.2734  0.2123 -0.1481
29013W        W72107  25.441  30.741  27.130  0.1263 -0.1834  0.2669
29014W        W72108  23.801  33.576  31.255  0.1488  0.1139 -0.2457
29015W        W72109  29.400  27.797  27.718 -0.1211  0.1782 -0.0287
29016W        W72110  30.006  30.997  28.199  0.0968  0.2048  0.1144
29017W        W72111  27.622  31.207   0.596 -0.0466 -0.1614  0.0917
29018W        W72112  29.664  32.346  29.646  0.1250  0.2814 -0.0458
29019W        W72113  29.611  31.089  28.570 -0.3137  0.3062  0.0163
29020W        W72114  27.422  28.910  28.352 -0.0328  0.0037  0.0060
29021W        W72115  26.097  31.491  31.283 -0.2887  0.0192 -0.0662
29022W        W72116  27.736  33.014  30.141  0.0050  0.2204 -0.1879
29023W        W72117  28.027  31.228  29.922 -0.0845  0.0504 -0.0916
29024W        W72118  27.420  30.171  27.833 -0.0830 -0.0748  0.2971
29025W        W72119  28.683  31.515  28.143 -0.0799  0.0848 -0.0804
29026W        W72120  24.782  32.540  30.722 -0.0482  0.2255  0.2073
29027W        W72121  29.297  31.395  29.725  0.1202  0.1130  0.1114
29028W        W72122  28.995  33.224  30.178 -0.0631  0.1311 -0.1428
29029W        W72123  27.323  30.373  29.196 -0.0612 -0.1530  0.2001
29030W        W72124  26.843  30.419  26.583  0.0436  0.0074 -0.3047
29031W        W72125  27.677  29.818  28.642 -0.0765 -0.1862  0.0974
29032W        W72126  24.736  32.273  28.985  0.0191  0.2351 -0.0256
29033W        W72127  28.274  31.143  28.866 -0.1639  0.1357 -0.1077
29034W        W72128  27.955  28.522  28.594  0.2729  0.0246 -0.3023
29035W        W72129  26.529  29.290  29.770 -0.1963 -0.1528 -0.1304
29036W        W72130  27.756  31.051  31.914 -0.0415  0.0842  0.0585
29037W        W72131  28.349  29.163  28.149  0.0604 -0.4246 -0.3423
29038W        W72132  28.063  30.178  28.767 -0.0904  0.0961 -0.0247
29039W        W72133  25.925  30.328  27.658  0.3018  0.1655 -0.2476
29040W        W72134  27.264  29.938  29.978  0.0248  0.0663 -0.0749
29041W        W72135  26.427  30.363  31.367 -0.0098 -0.3049 -0.1679
29042W        W72136  26.593  33.094  30.820 -0.1742  0.3935 -0.1625
29043W        W72137  28.320  30.986  30.839 -0.0883 -0.3224  0.2208
29044W        W72138  29.283  31.978  28.167  0.3336 -0.2110 -0.1969
29045W        W72139  27.100  30.203  30.362  0.1430 -0.0158 -0.1464
29046W        W72140  27.408  29.599  28.163 -0.1026 -0.2224 -0.1565
29047W        W72141  27.320  31.402  28.242 -0.0352 -0.2883 -0.0980
29048W        W72142  28.267  31.274  28.308 -0.1882 -0.1027  0.1964
29049W        W72143  27.872  30.397  29.187  0.2202  0.2649  0.0408
29050W        W72144  26.028  32.195  29.344  0.1198  0.1728 -0.0378
29051W        W72145  26.381  30.814  27.283 -0.1452 -0.1753 -0.2158
29052W        W72146  28.447  31.559  30.078 -0.1128 -0.1095 -0.0560
29053W        W72147  27.333  32.179  29.079  0.0296 -0.0721 -0.1088
29054W        W72148  29.086  30.843  30.703  0.1029  0.3537 -0.1182
29055W        W72149  25.923  32.494  29.695 -0.0857  0.0668 -0.4259
29056W        W72150  26.926  30.069  28.001 -0.1858  0.0132  0.3251
29057W        W72151  25.606  31.138  27.559  0.0902 -0.2931  0.2839
29058W        W72152  29.605  29.155  27.914  0.4092 -0.1100  0.0711
29059W        W72153  30.137  31.255  28.637  0.1928 -0.1833  0.1087
29060W        W72154  24.981  30.749  29.498 -0.0135  0.0363 -0.0266
29061W        W72155  26.806  30.580  28.783  0.0538 -0.1067 -0.0055
29062W        W72156  26.278  32.169  29.863  0.1012  0.1346 -0.1877
29063W        W72157  27.828  30.854  28.925  0.0574  0.1465  0.1008
29064W        W72158  28.684  29.212  26.886  0.1021  0.3723 -0.4163
29065W        W72159  27.607  31.275  30.304 -0.0716  0.1140  0.0195
29066W        W72160  27.843  31.437  31.641  0.0066 -0.1292  0.2477
29067W        W72161  24.587  30.443  26.099  0.2955  0.0786  0.2054
29068W        W72162  28.392  30.522  28.923 -0.3045  0.0623 -0.1514
29069W        W72163  28.098  29.695  28.352  0.0237 -0.2767 -0.0203
29070W        W72164  25.853  32.403  30.258 -0.0225 -0.1231 -0.1989
29071W        W72165  29.481  32.247  29.166  0.1307  0.0395 -0.2159
29072W        W72166  25.546  31.850  28.719  0.2780  0.1238  0.2896
29073W        W72167  26.911  31.219  28.049 -0.3919 -0.0590 -0.3045
29074W        W72168  26.409  29.981  30.555 -0.2367 -0.3073  0.0891
29075W        W72169  28.352  32.443  31.177 -0.1765  0.0861 -0.1387
29076W        W72170  25.067  30.926  30.663  0.2149  0.2839  0.1072
29077W        W72171  24.880  29.483  28.000 -0.1504 -0.4250  0.1260
29078W        W72172  28.963  30.541  28.186  0.3134  0.0252  0.1477
29079W        W72173  29.303  31.026  30.293 -0.1494 -0.2361 -0.1610
29080W        W72174  26.982  31.597  30.022  0.3617 -0.0241  0.0327
29081W        W72175  27.108  32.007  31.382  0.0713  0.1021 -0.1784
29082W        W72176  26.568  30.760  31.597 -0.0333  0.3352  0.0182
29083W        W72177  28.470  32.926  27.874  0.0064  0.2446 -0.1672
29084W        W72178  26.589  30.736  31.106  0.2229  0.1389 -0.1382
29085W        W72179  26.647  31.431  27.276 -0.0949 -0.1721 -0.0129
29086W        W72180  25.490  30.620  30.579  0.1031  0.0216 -0.0288
29087W        W72181  26.772  31.794  28.037  0.0942  0.0845 -0.2047
29088W        W72182  26.417  29.445  28.411  0.0292  0.2226 -0.1204
29089W        W72183  26.333  31.681  29.264 -0.0897  0.1343 -0.0473
29090W        W72184  25.970  30.950  28.486 -0.2368  0.0971  0.2572
29091W        W72185  27.014  31.040  30.111  0.0499 -0.2481 -0.1532
29092W        W72186  29.254  28.741  27.693 -0.0754 -0.0524 -0.4178
29093W        W72187  28.318  32.661  28.244 -0.4282  0.0551  0.0746
29094W        W72188  26.338  30.653  28.960 -0.0215  0.1586 -0.1362
29095W        W72189  29.210  29.783  30.943 -0.2304 -0.2795 -0.2301
29096W        W72190  28.394  30.358  27.150 -0.1881  0.0377 -0.0293
29097W        W72191  27.478  29.295  31.599  0.1105 -0.0468  0.1999
29098W        W72192  26.020  29.398  30.020 -0.2310  0.2385 -0.1110
29099W        W72193  30.875  31.624  27.191  0.2167 -0.1487 -0.0860
29100W        W72194  26.153  31.363  30.364  0.1744  0.0706 -0.1291
29101W        W72195  28.035  32.581  31.572 -0.1468 -0.0517 -0.1559
29102W        W72196  26.759  30.163  30.016  0.1513  0.2867 -0.4512
29103W        W72197  28.331  30.539  28.073  0.0833  0.1136 -0.1598
29104W        W72198  26.462  29.056  28.065 -0.4058 -0.0468  0.3047
29105W        W72199  27.254  30.895  29.306 -0.0838 -0.1152  0.0684
29106W        W72200  30.139  31.658  29.987  0.1401  0.0471 -0.1970
29107W        W72201  28.078  31.638  28.999 -0.0076  0.0362 -0.1748
29108W        W72202  28.133  29.724  28.964  0.0366  0.1811 -0.2530
29109W        W72203  25.741  31.789  29.279  0.0125  0.1494 -0.0767
29110W        W72204  29.328  30.865  28.157  0.2003  0.2692  0.1421
29111W        W72205  28.901  32.511  28.206  0.0938 -0.0150  0.0212
29112W        W72206  25.208  29.876  29.044  0.0131 -0.0286 -0.2706
29113W        W72207  25.395  29.100  30.696  0.1758  0.1502 -0.0744
29114W        W72208  30.003  31.401  29.142  0.2095  0.2228 -0.0951
29115W        W72209  27.048  29.614  28.567 -0.0557  0.0073 -0.1945
29116W        W72210  27.456  29.658  29.571  0.0225  0.2901  0.0864
29117W        W72211  28.614  30.797  30.301 -0.2808  0.1507 -0.1575
29118W        W72212  27.507  30.837  30.579  0.0060 -0.0783  0.0457
29119W        W72213  25.893  30.603  31.460 -0.0650 -0.2503  0.2007
29120W        W72214  28.081  32.449  30.782  0.2784 -0.2208  0.1015
29121W        W72215  29.355  30.062  27.455 -0.2404 -0.0360  0.1610
29122W        W72216  28.146  29.379  31.506  0.1145 -0.2957  0.0674
29123W        W72217  28.492  30.054  28.301  0.1813 -0.0773  0.1280
29124W        W72218  27.680  30.585  27.676  0.2654  0.0359  0.0570
29125W        W72219  26.075  30.607  29.386 -0.0377  0.0746  0.3138
29126W        W72220  28.211  30.255  30.863 -0.0932  0.0659 -0.1111
29127W        W72221  25.191  29.298  27.316 -0.3918  0.1707 -0.2418
29128W        W72222  27.796  29.788  29.948  0.0955 -0.1418  0.1963
29129W        W72223  27.740  31.801  27.014  0.2328  0.3462 -0.0186
29130W        W72224  28.519  32.939  29.311 -0.1744 -0.1070 -0.2423
29131W        W72225  28.592  30.556  27.556 -0.0380 -0.1755  0.1583
29132W        W72226  24.677  29.925  27.829 -0.1302 -0.1029 -0.3049
29133W        W72227  27.167  33.279  29.624  0.1110  0.1206 -0.0236
29134W        W72228  25.678  31.677  27.239  0.1276 -0.0867  0.0444
29135W        W72229  27.465  31.076  27.889  0.1201 -0.0172  0.1702
29136W        W72230  27.509  31.077  31.170 -0.2194 -0.1077  0.2925
29137W        W72231  29.129  31.621   0.039  0.2944 -0.1218  0.2619
29138W        W72232  26.985  28.375  28.803 -0.0776  0.0200  0.0090
29139W        W72233  27.648  29.935  31.880 -0.1845 -0.0821 -0.1685
29140W        W72234  24.114  33.033  28.852  0.0898  0.0356  0.2828
29141W        W72235  27.675  29.934  29.179 -0.1339  0.1591  0.1611
29142W        W72236  26.400  32.496  29.490  0.1231 -0.1532  0.1125
29143W        W72237  26.593  31.982  30.710  0.0307 -0.0295 -0.1190
29144W        W72238  26.221  31.538  28.388  0.1109 -0.1023 -0.0688
29145W        W72239  28.315  29.289  28.583  0.1760 -0.0545  0.2117
29146W        W72240  29.021  29.966  29.591 -0.2081 -0.3159  0.0993
29147W        W72241  27.468  31.522  29.914 -0.0712 -0.0809 -0.4750
29148W        W72242  29.543  32.081  30.459 -0.0345 -0.1780  0.0337
29149W        W72243  26.495  31.778  31.472 -0.4141  0.0256  0.0677
29150W        W72244  26.421  30.871  28.080  0.0084 -0.1600 -0.0888
29151W        W72245  28.631  31.749  30.492 -0.1960  0.0215 -0.0850
29152W        W72246  29.778  31.604  28.512 -0.0893  0.1328  0.1924
29153W        W72247  26.322  30.081  28.422 -0.1337 -0.0631 -0.3459
29154W        W72248  25.984  30.908  30.675  0.1902  0.0327 -0.4631
29155W        W72249  27.300  30.570  31.909  0.2966  0.2450 -0.1089
29156W        W72250  28.617  31.583  29.033 -0.1436 -0.1389 -0.1398
29157W        W72251  26.980  30.643  27.863 -0.1277 -0.1232 -0.0747
29158W        W72252  27.158  31.798  29.611 -0.1780 -0.1951 -0.0198
29159W        W72253  26.791  32.529  31.723 -0.1089 -0.0782 -0.0063
29160W        W72254  26.261  30.541  30.157 -0.0404 -0.0189 -0.1113
29161W        W72255  26.134  34.063  29.347 -0.2455  0.0134 -0.0759
29162W        W72256  27.319  32.374  27.202 -0.1665  0.1868 -0.1958
29163W        W72257  27.842  31.329  28.129  0.0503 -0.0725  0.1277
29164W        W72258  29.643  31.810  30.010 -0.2065  0.0126 -0.0603
29165W        W72259  26.984  31.555  27.653 -0.0267  0.0061 -0.4083
29166W        W72260  25.874  31.890  29.859 -0.0488  0.1513  0.0736
29167W        W72261  24.889  32.122  26.793  0.1860  0.0752 -0.1031
29168W        W72262  27.317  32.041  26.898 -0.0595  0.1936 -0.0156
29169W        W72263  25.569  31.558  30.414 -0.0259 -0.0959  0.2125
29170W        W72264  28.851  32.476  30.819 -0.4290  0.1869  0.0727
29171W        W72265  28.542  28.383  27.314 -0.0274  0.0019  0.1599
29172W        W72266  29.509  30.563  30.407 -0.1894 -0.0862 -0.2804
29173W        W72267  28.842  28.852  27.912  0.4257  0.0596  0.2059
29174W        W72268  28.138  31.045   0.673  0.2086 -0.0375 -0.1362
29175W        W72269  26.660  31.454  30.424 -0.1620 -0.1191 -0.3143
29176W        W72270  26.165  31.298  27.468 -0.1191 -0.0169  0.1075
29177W        W72271  26.959  31.530  31.465  0.1574 -0.0548  0.0748
29178W        W72272  28.450  29.715  31.078 -0.3162  0.1438  0.1413
29179W        W72273  26.142  31.950  31.009 -0.1638  0.1775 -0.3893
29180W        W72274  27.534  31.002  28.428  0.0708  0.1210 -0.1615
29181W        W72275  25.653  30.509  28.508 -0.0253 -0.0712 -0.0043
29182W        W72276  28.087  30.772  28.491  0.0799  0.0287 -0.1110
29183W        W72277  27.637  28.777  28.850  0.0458  0.0248 -0.0444
29184W        W72278  27.795  32.175  26.028  0.2228 -0.2273 -0.1179
29185W        W72279  27.761  29.336  28.616 -0.2484 -0.2668  0.0728
29186W        W72280  27.965  31.666  30.258 -0.2430  0.2273  0.2023
29187W        W72281  26.319  31.221  28.819  0.2569 -0.0102  0.0019
29188W        W72282  27.955  31.600  29.560 -0.1449  0.0488 -0.1735
29189W        W72283  25.069  30.181  28.216  0.1525  0.0414  0.3737
29190W        W72284  28.902  29.776  27.728  0.0002 -0.0124 -0.2031
29191W        W72285  24.933  30.212   0.066 -0.1640  0.0415 -0.0510
29192W        W72286  28.478  30.315  30.082  0.1884 -0.1293 -0.0288
29193W        W72287  25.868  30.868  29.003  0.0465 -0.2793  0.1040
29194W        W72288  28.191  29.135  27.694 -0.1599  0.1237 -0.0366
29195W        W72289  26.446  30.847   0.432  0.0619  0.2015  0.2053
29196W        W72290  26.227  32.634  31.712  0.2327 -0.1821 -0.2944
29197W        W72291  28.236  31.782  26.978  0.0508 -0.0440 -0.0800
29198W        W72292  30.503  32.075  29.767 -0.2568  0.1113  0.4175
29199W        W72293  28.439  31.468  29.559  0.1359 -0.0303  0.2251
29200W        W72294  28.517  32.058  30.917  0.1293 -0.1361  0.0448
29201W        W72295  25.316  30.742  27.592  0.2202 -0.2853  0.1575
29202W        W72296  28.007  28.654  27.199  0.0186 -0.0148  0.0244
29203W        W72297  26.403  30.602  28.469 -0.1905 -0.1564 -0.0934
29204W        W72298  25.533  30.743  31.160  0.1026  0.0983  0.3021
29205W        W72299  28.444  31.818  31.380  0.0381  0.1694 -0.2112
29206W        W72300  26.907  29.966  27.398 -0.0559 -0.1476  0.0891
29207W        W72301  29.082  33.046  27.834 -0.1921  0.0766  0.0282
29208W        W72302  28.550  30.892  29.217 -0.0097  0.0315 -0.2244
29209W        W72303  26.665  32.452  27.668  0.0818  0.3770 -0.0780
29210W        W72304  29.775  32.452  28.781 -0.1898  0.3501 -0.2237
29211W        W72305  30.156  31.850  27.705 -0.0153 -0.0647  0.1818
29212W        W72306  26.441  30.216  29.643 -0.0212 -0.0030 -0.1493
29213W        W72307  29.294  32.831  30.344 -0.0334  0.0424  0.1861
29214W        W72308  28.527  29.975  28.781  0.2264  0.0380 -0.2156
29215W        W72309  29.589  30.419  27.741  0.3598  0.0302  0.0806
29216W        W72310  26.796  30.870  29.174 -0.2086 -0.2511 -0.0739
29217W        W72311  24.667  33.083  29.059  0.2748 -0.0044  0.3661
29218W        W72312  28.121  30.061  30.359 -0.1890  0.1953 -0.2008
29219W        W72313  29.405  31.076  31.151 -0.0334 -0.2860  0.1416
29220W        W72314  29.147  31.709  27.802 -0.0647 -0.1306  0.1785
29221W        W72315  28.409  29.184  31.069 -0.3054 -0.0017 -0.4330
29222W        W72316  29.071  31.335  30.708  0.3046  0.0689 -0.0856
29223W        W72317  26.006  32.969  31.381  0.1334  0.1283  0.0111
29224W        W72318  25.120  31.557  27.255 -0.1964  0.1986 -0.3702
29225W        W72319  26.564  31.258  31.289 -0.1164 -0.0662  0.0911
29226W        W72320  28.195  31.648  28.003  0.2226 -0.1905 -0.0307
29227W        W72321  27.545  33.256  27.691  0.0498  0.3078  0.0599
29228W        W72322  29.728  32.810  30.801  0.1853  0.2355 -0.3146
29229W        W72323  28.995  31.203  28.962  0.0696 -0.3114 -0.1652
29230W        W72324  30.310  31.711  28.602 -0.1647 -0.3788 -0.0167
29231W        W72325  25.919  30.183  29.615 -0.0010  0.2484  0.0054
29232W        W72326  28.749  29.086  28.474 -0.1055  0.0447  0.1864
29233W        W72327  26.881  29.173  26.858  0.1835 -0.1489 -0.0701
29234W        W72328  28.548  30.964  29.764  0.2178  0.0708 -0.1583
29235W        W72329  24.746  32.320  27.218  0.3474  0.1421  0.3692
29236W        W72330  26.211  31.728  27.187 -0.0160  0.0083 -0.0667
29237W        W72331  25.941  31.373  29.135 -0.2098 -0.0574  0.1278
29238W        W72332  27.650  28.822  31.609 -0.0381 -0.2342  0.1175
29239W        W72333  26.204  29.556  30.736  0.0153  0.0692  0.0527
29240W        W72334  25.151  31.134  27.817  0.1936  0.0446  0.2255
29241W        W72335  27.419  30.624  28.084 -0.2380 -0.0851  0.0277
29242W        W72336  28.572  32.662  26.922 -0.2197  0.4985 -0.2925
29243W        W72337  25.194  30.374  29.115  0.2321 -0.1668  0.1498
29244W        W72338  25.204  28.808  27.193 -0.0065 -0.3504  0.0962
29245W        W72339  29.603  31.902  27.593  0.2059 -0.0890 -0.0194
29246W        W72340  27.758  32.341  28.200 -0.3084 -0.2166 -0.1965
29247W        W72341  26.832  29.282  28.838  0.0474  0.0147 -0.0247
29248W        W72342  29.361  32.427  30.765 -0.1464  0.0127 -0.2061
29249W        W72343  25.007  31.863  27.670 -0.1300 -0.5517  0.1127
29250W        W72344  26.066  31.121  31.596 -0.0647  0.1432 -0.4038
29251W        W72345  27.357  30.257  31.465 -0.0498 -0.1700 -0.0109
29252W        W72346  24.701  29.552  27.433  0.0015  0.2738 -0.0092
29253W        W72347  27.459  30.603  31.117 -0.1134 -0.0138  0.0491
29254W        W72348  26.703  31.943  29.650 -0.0506  0.1291 -0.0401
29255W        W72349  26.060  32.378  26.511 -0.1024 -0.0845 -0.0962
29256W        W72350  28.226  32.010  30.496  0.0185  0.3315  0.1033
29257W        W72351  26.715  32.432  29.902  0.0766  0.0549 -0.1439
29258W        W72352  25.827  28.824  30.691 -0.1109  0.0877  0.1750
29259W        W72353  27.312  30.625  28.742 -0.0530 -0.0370  0.1460
29260W        W72354  26.541  31.044  30.713 -0.2082  0.0388  0.2184
29261W        W72355  27.951  31.877  26.530  0.2007 -0.1111  0.0186
29262W        W72356  30.422  30.126  30.864 -0.0619 -0.0666  0.2871
29263W        W72357  27.774  31.470  28.641 -0.1049  0.1570  0.4727
29264W        W72358  25.884  28.923   0.928  0.1171  0.1487  0.0545
29265W        W72359  26.048  32.372  30.724  0.0242 -0.0932 -0.2265
29266W        W72360  29.435  31.107  29.366  0.3055  0.3862  0.2242
29267W        W72361  25.569  29.704  28.749  0.1087 -0.0646  0.0294
29268W        W72362  30.166  29.399  27.094  0.0472 -0.1619  0.2897
29269W        W72363  28.515  32.403  28.583 -0.0458 -0.0787  0.0239
29270W        W72364  27.499  31.035  29.822  0.3335  0.0823 -0.1333
29271W        W72365  27.890  30.279  28.065 -0.1406  0.0759 -0.1037
29272W        W72366  27.626  30.722  31.547  0.1609  0.1643 -0.1431
29273W        W72367  28.847  31.708  29.706 -0.2290  0.1286  0.4426
29274W        W72368  29.156  30.644  31.150 -0.0934  0.0014 -0.0485
29275W        W72369  25.689  31.309  28.644  0.5071  0.0190  0.0848
29276W        W72370  29.233  31.435  28.294  0.1572  0.0718 -0.0152
29277W        W72371  29.263  33.373  30.667  0.0786  0.1819  0.0443
29278W        W72372  28.767  32.657  31.620  0.1468  0.0725  0.0092
29279W        W72373  27.533  32.909  29.664 -0.0942  0.2106 -0.0797
29280W        W72374  27.655  30.654  29.595  0.0049 -0.2861 -0.1372
29281W        W72375  25.527  29.715  29.635 -0.0231 -0.1933  0.3599
29282W        W72376  25.896  30.261  28.891  0.1803 -0.0388  0.1594
29283W        W72377  28.036  32.214  28.589  0.0596  0.2732 -0.0846
29284W        W72378  29.146  29.826  28.913 -0.0180  0.0016 -0.0818
29285W        W72379  27.016  30.047  29.019  0.0473  0.0997  0.0236
29286W        W72380  28.432  28.486  28.077  0.0097  0.0983 -0.0755
29287W        W72381  26.351  31.513  30.845  0.0265 -0.0554 -0.1336
29288W        W72382  27.699  30.291  30.139  0.1670  0.1028 -0.0379
29289W        W72383  27.734  30.144  31.123 -0.2650  0.1762 -0.2342
29290W        W72384  28.869  31.639  31.113  0.1426 -0.1769 -0.2367
29291W        W72385  26.204  30.045  30.045  0.2025  0.1118 -0.1574
29292W        W72386  27.657  32.104  31.872 -0.1048  0.1772 -0.0817
29293W        W72387  26.570  32.298  31.363 -0.2557  0.1239 -0.1807
29294W        W72388  25.541  32.864  31.549  0.1757 -0.3775 -0.2301
29295W        W72389  28.622  31.255  30.541 -0.2271 -0.2382  0.3034
29296W        W72390  25.528  30.237  31.108  0.1052 -0.2076  0.0588
29297W        W72391  27.989  29.751   0.299  0.0507  0.0555 -0.1599
29298W        W72392  28.765  32.224  31.296 -0.1932 -0.0574 -0.0908
29299W        W72393  28.346  31.109  31.897  0.2021 -0.2792 -0.2356
29300W        W72394  25.035  28.727   0.142 -0.2922 -0.0179 -0.0931
29301W        W72395  29.787  32.052  31.385  0.0192 -0.0414 -0.0034
29302W        W72396  25.669  31.198  31.192 -0.0787  0.1156 -0.1223
29303W        W72397  28.982  30.474  31.558  0.0562  0.3939 -0.0505
29304W        W72398  27.911  33.411  31.101 -0.1035 -0.3979  0.0435
29305W        W72399  25.190  32.432  31.401 -0.3237  0.2394  0.4039
29306W        W72400  29.696  31.075  31.653  0.0771 -0.0853 -0.3286
29307W        W72401  26.116  27.446  31.195  0.0541 -0.1071 -0.2296
29308W        W72402  26.460  30.082   1.327 -0.1520  0.1678  0.0999
29309W        W72403  25.688  28.736   0.457  0.3274 -0.3088 -0.1089
29310W        W72404  25.435  33.430  31.718  0.0966 -0.3387  0.1518
29311W        W72405  28.778  28.928  30.675 -0.0775  0.0606 -0.0871
29312W        W72406  27.324  29.344   0.169  0.2244 -0.5973 -0.0687
29313W        W72407  26.538  31.231  31.754  0.0641  0.1803 -0.1044
29314W        W72408  28.214  30.680  31.662 -0.0070 -0.0434 -0.0103
29315W        W72409  25.974  30.107  31.356 -0.0870  0.0781  0.2121
29316W        W72410  25.683  32.111  31.052  0.2592  0.0589  0.1446
29317W        W72411  27.322  30.577   0.555  0.2513  0.1464  0.1976
29318W        W72412  27.239  31.860   0.213 -0.1799 -0.1426 -0.0095
29319W        W72413  26.814  32.030  30.221  0.1148  0.0766 -0.0225
29320W        W72414  25.487  29.743  31.177  0.0814 -0.3320  0.1014
29321W        W72415  26.972  30.887   1.245 -0.0989  0.1405  0.2950
29322W        W72416  27.317  31.078   0.228  0.1281 -0.3895  0.2892
29323W        W72417  24.049  29.506   0.099 -0.0913 -0.0946 -0.1678
29324W        W72418  25.423  31.999   0.147 -0.1699 -0.0770  0.2327
29325W        W72419  27.347  31.216   1.033  0.0517  0.3063  0.0870
29326W        W72420  28.363  31.664  31.862  0.0129 -0.0447  0.0125
29327W        W72421  27.318  31.472  30.925  0.2626 -0.0671 -0.0475
29328W        W72422  27.685  31.577   0.135 -0.0329  0.3080  0.0473
29329W        W72423  28.172  28.865  29.563  0.0250 -0.2545  0.1544
29330W        W72424  26.083  29.770  31.802  0.0979 -0.0782 -0.5096
29331W        W72425  26.874  29.927  31.459  0.2074  0.2053 -0.2533
29332W        W72426  26.921  30.922  31.940  0.0766  0.2018  0.1398
29333W        W72427  24.855  31.288  31.677  0.2754  0.4088 -0.1203
29334W        W72428  26.989  31.081  31.052  0.0526 -0.3025 -0.3917
29335W        W72429  27.075  30.711  31.472 -0.1287  0.0781 -0.0154
29336W        W72430  27.993  32.017  30.959  0.0553  0.1562  0.0083
29337W        W72431  29.344  30.664   0.000  0.2742  0.4198 -0.2425
29338W        W72432  25.388  32.499  31.979 -0.1083  0.2705  0.1211
29339W        W72433  28.892  34.237  31.504 -0.1491  0.1654  0.0431
29340W        W72434  28.298  29.335   0.146 -0.1326  0.2404 -0.2004
29341W        W72435  25.622  31.231   0.105 -0.1327  0.0686  0.1865
29342W        W72436  28.182  31.099  31.418 -0.1180  0.0700  0.0956
29343W        W72437  27.780  30.533  31.977  0.0210 -0.3277 -0.0587
29344W        W72438  25.951  30.383  30.532 -0.0268  0.2255  0.3207
29345W        W72439  29.770  31.489  31.949 -0.0779  0.0454 -0.0529
29346W        W72440  27.069  32.585  31.104 -0.4164  0.2080  0.2934
29347W        W72441  28.831  31.091  31.091  0.0661  0.0365  0.3082
29348W        W72442  25.588  29.475   0.780 -0.3059  0.3609  0.0280
29349W        W72443  27.467  32.272  30.821  0.1344 -0.0447 -0.1351
29350W        W72444  24.727  30.123  31.446  0.2833  0.1604 -0.0536
29351W        W72445  25.525  31.130  30.702  0.1309  0.0012  0.0770
29352W        W72446  25.793  30.026   0.655 -0.1382  0.1356 -0.1859
29353W        W72447  29.320  32.939  31.014 -0.3293  0.1750 -0.1958
29354W        W72448  28.884  30.997   0.922 -0.0835 -0.0316  0.1931
29355W        W72449  31.080  30.564   0.456  0.2015 -0.1091 -0.2437
29356W        W72450  26.782  33.999  17.323 -0.0453 -0.0397 -0.2629
29357W        W72451  29.283  34.131  16.895 -0.1181 -0.2025  0.0971
29358W        W72452  28.710  33.834  16.829 -0.1524  0.2895  0.1580
29359W        W72453  26.496  34.228  17.953 -0.2235 -0.0134 -0.0585
29360W        W72454  26.554  31.996  19.496 -0.0067  0.1433  0.0080
29361W        W72455  28.231   1.138  16.102 -0.2129  0.0162 -0.2613
29362W        W72456  26.848  32.714  18.012  0.0731  0.0896  0.1987
29363W        W72457  28.335  31.924  16.985 -0.0083  0.1978  0.3126
29364W        W72458  26.078  32.275  18.303 -0.1194  0.2435  0.2420
29365W        W72459  29.651  33.929  18.205  0.2214 -0.1212  0.0514
29366W        W72460  25.254   0.500  16.399  0.1733  0.1608 -0.0799
29367W        W72461  27.169  31.921  18.926 -0.0981  0.0862 -0.2427
29368W        W72462  27.386  33.908  17.382 -0.0878  0.1134 -0.0662
29369W        W72463  26.195  33.810  19.362 -0.0486 -0.2559  0.0720
29370W        W72464  27.065  32.640  20.125  0.1817 -0.2749 -0.0784
29371W        W72465  25.471   0.019  15.509  0.1071 -0.0477 -0.0784
29372W        W72466  25.808  33.558  19.029 -0.1160  0.0004 -0.1668
29373W        W72467  26.912  33.495  18.293  0.0185  0.0264  0.0274
29374W        W72468  28.759  31.917  18.266  0.0731  0.1465 -0.1209
29375W        W72469  27.690  33.379  18.862 -0.3548  0.1834  0.1394
29376W        W72470  29.036  34.090  18.931 -0.2873 -0.0217  0.0204
29377W        W72471  27.655  33.058  18.468 -0.2279  0.2573  0.0738
29378W        W72472  28.796  34.176  18.501  0.2206 -0.3642  0.1975
29379W        W72473  29.337   0.220  18.704 -0.3805  0.0998 -0.0408
29380W        W72474  27.779  34.233  15.821  0.0863  0.1003 -0.1122
29381W        W72475  26.790  33.901  16.796  0.2736  0.0957 -0.0085
29382W        W72476  26.856  33.721  15.558 -0.1322 -0.1785 -0.1209
29383W        W72477  25.717  33.317  17.370 -0.0779 -0.0836 -0.1106
29384W        W72478  26.984  32.053  18.165  0.1068  0.1362 -0.0595
29385W        W72479  28.096   0.664  17.485 -0.1266 -0.1518 -0.0019
29386W        W72480  27.046  34.225  17.781 -0.2543 -0.1625 -0.3963
29387W        W72481  26.294  33.805  17.430 -0.0801  0.1182  0.0646
29388W        W72482  26.230  33.349  17.353 -0.1268 -0.0090 -0.1853
29389W        W72483  26.401  34.671  19.169  0.0902  0.1700  0.2483
29390W        W72484  26.417  33.991  19.995  0.0077 -0.0302 -0.1213
29391W        W72485  27.759  33.481  16.410 -0.2115 -0.0728 -0.0513
29392W        W72486  30.021  33.667  17.959  0.1215  0.1621  0.2185
29393W        W72487  28.463  32.932  16.737 -0.0886  0.2061 -0.0425
29394W        W72488  27.339  32.364  18.468 -0.1348 -0.2476  0.2829
29395W        W72489  30.482  33.577  16.986 -0.0591  0.1823 -0.3322
29396W        W72490  27.427  33.131  20.867 -0.1041 -0.1076 -0.2450
29397W        W72491  23.936  32.783  17.026 -0.1303  0.1842  0.0018
29398W        W72492  28.271  33.505  16.636  0.1087  0.1257 -0.1760
29399W        W72493  25.334  33.681  19.155 -0.2758 -0.0738  0.0329
29400W        W72494  28.775  33.337  16.640  0.1506  0.1460  0.0641
29401W        W72495  29.578  34.450  17.354 -0.3784 -0.1398  0.1380
29402W        W72496  26.376  34.504  20.013 -0.1714 -0.2549  0.0823
29403W        W72497  25.516  34.181  16.283  0.0996  0.0419 -0.0849
29404W        W72498  25.297  33.121  20.040 -0.3556  0.0140 -0.2558
29405W        W72499  25.585  33.652  17.748  0.0302 -0.0844 -0.0574
29406W        W72500  26.986   1.048  18.721  0.0510 -0.1294  0.1836
29407W        W72501  27.342  33.329  16.706 -0.1151  0.2332  0.2416
29408W        W72502  27.967  33.516  18.413  0.1838 -0.2272 -0.0942
29409W        W72503  26.253   0.433  16.899 -0.3299 -0.1887 -0.0373
29410W        W72504  27.622   0.053  18.553 -0.0766  0.0087  0.0027
29411W        W72505  25.851  33.053  19.943  0.0098  0.0082  0.1194
29412W        W72506  25.777   0.184  16.488  0.3756 -0.3133  0.0179
29413W        W72507  27.689  33.507  17.115  0.0691  0.0794  0.1100
29414W        W72508  27.169  33.592  19.241  0.2218 -0.2019  0.0756
29415W        W72509  27.579  34.115  17.840 -0.0829 -0.2278 -0.0854
29416W        W72510  27.113  32.586  16.077  0.2712 -0.1930 -0.0719
29417W        W72511  26.626  34.459  17.239  0.2023 -0.3687  0.4410
29418W        W72512  28.442  32.920  17.301 -0.1110  0.0328  0.0076
29419W        W72513  25.317  33.702  21.387  0.2047  0.0320 -0.1419
29420W        W72514  26.935  34.178  18.821 -0.1607  0.4098  0.2427
29421W        W72515  25.204  32.939  16.065  0.0109  0.0972  0.2046
29422W        W72516  27.567  32.670  16.748 -0.0596  0.2089  0.0228
29423W        W72517  27.424  33.853  16.042  0.3914  0.1014  0.1379
29424W        W72518  28.227  34.587  15.895 -0.1395 -0.1282 -0.1022
29425W        W72519  27.151  34.178  17.003  0.0291 -0.2568  0.3833
29426W        W72520  26.783  33.011  15.985  0.2046  0.1551 -0.2668
29427W        W72521  26.988  32.843  17.496 -0.1293  0.1235  0.0870
29428W        W72522  27.644  34.229  17.096  0.1043 -0.1312  0.0515
29429W        W72523  27.199  33.719  17.812  0.0737 -0.2886 -0.3079
29430W        W72524  28.467  34.161  17.560  0.0673 -0.0926  0.2538
29431W        W72525  28.224  33.141  18.562  0.1807  0.1504 -0.2715
29432W        W72526  26.334  33.513  18.252 -0.2702 -0.1334  0.1835
29433W        W72527  28.942  33.819  19.933  0.0160  0.0195  0.2333
29434W        W72528  28.995   0.347  17.566  0.2136 -0.2473 -0.3891
29435W        W72529  28.437  34.289  18.827  0.1830  0.4585  0.2838
29436W        W72530  26.490  34.407  18.724 -0.1904 -0.3180 -0.0997
29437W        W72531  27.316  32.440  18.975 -0.1882  0.1326  0.1302
29438W        W72532  27.952  33.294  20.843  0.1869 -0.1256 -0.0781
29439W        W72533  28.180  34.310  17.202 -0.2368 -0.0768  0.0571
29440W        W72534  26.855  33.947  19.774 -0.1360 -0.3858  0.4064
29441W        W72535  28.696  32.110  17.718  0.0366 -0.1624  0.1031
29442W        W72536  26.657  34.514  16.232  0.0331 -0.0276 -0.0775
29443W        W72537  25.922  33.995  16.661  0.1536 -0.1700 -0.2262
29444W        W72538  28.731  33.359  17.160 -0.0487 -0.1612  0.1521
29445W        W72539  26.531  33.173  17.818  0.1013 -0.0512  0.0349
29446W        W72540  27.225  32.913  18.381  0.0839  0.0527  0.2801
29447W        W72541  27.151  33.924  18.251 -0.3347 -0.0184  0.2000
29448W        W72542  28.670  32.956  16.283  0.1686  0.0165 -0.2146
29449W        W72543  27.246   0.265  17.688  0.3189 -0.1876  0.2005
29450W        W72544  25.049  33.313  16.444 -0.0660 -0.2719 -0.1759
29451W        W72545  27.354  34.121  19.618 -0.0284 -0.1207  0.2224
29452W        W72546  26.998   0.821  17.518 -0.0000 -0.1093  0.2695
29453W        W72547  27.319   1.248  17.256 -0.0779 -0.0587  0.0865
29454W        W72548  26.294  33.737  20.525  0.1968 -0.3062  0.3158
29455W        W72549  28.142  33.569  17.603  0.1237  0.3037 -0.0861
29456W        W72550  28.580  34.580  17.283 -0.1851 -0.1306 -0.1891
29457W        W72551  28.228  33.324  17.182  0.2970 -0.2669  0.2840
29458W        W72552  26.926  33.107  20.110 -0.0824  0.0233  0.1244
29459W        W72553  27.905  33.928  17.387 -0.1135  0.1826 -0.1222
29460W        W72554  27.039   0.456  19.556  0.2637 -0.1886 -0.2082
29461W        W72555  27.323  34.337  18.556 -0.3598  0.0591 -0.0935
29462W        W72556  26.986  32.349  16.550 -0.0060 -0.2127 -0.3393
29463W        W72557  27.368  33.041  17.145 -0.1106 -0.0642 -0.0947
29464W        W72558  29.206  33.611  19.145 -0.3638  0.1673 -0.2399
29465W        W72559  29.201   0.694  17.964 -0.0769  0.1454  0.0812
29466W        W72560  27.625  33.315  19.355  0.0995 -0.0354 -0.1252
29467W        W72561  26.549  33.002  18.922  0.1091 -0.0708  0.1116
29468W        W72562  26.969  32.793  18.755  0.1694 -0.0965 -0.0693
29469W        W72563  25.645  34.612  19.467  0.0781  0.1990  0.0072
29470W        W72564  27.305  32.196  16.901 -0.3348  0.1962 -0.4098
29471W        W72565  26.061  31.589  16.315 -0.3863  0.0673  0.0156
29472W        W72566  26.114  34.249  19.213 -0.1866  0.1785  0.3317
29473W        W72567  30.883  33.676  18.779 -0.1095 -0.2614  0.0954
29474W        W72568  26.533  33.990  18.999  0.3214 -0.0598  0.2109
29475W        W72569  28.348  33.811  17.146 -0.1500  0.1698 -0.1383
29476W        W72570  27.723  33.450  21.550 -0.1296  0.3578 -0.0548
29477W        W72571  27.738  32.619  18.627  0.2242  0.0476  0.2633
29478W        W72572  28.467  32.370  17.313 -0.0080  0.3018  0.1636
29479W        W72573  27.873  33.828  18.818 -0.4189  0.0900  0.1545
29480W        W72574  26.396  33.180  19.526  0.2529 -0.1311  0.0713
29481W        W72575  25.764  33.688  20.578  0.1285  0.1503 -0.0044
29482W        W72576  30.024  33.642  16.089  0.1675 -0.0143  0.1040
29483W        W72577  27.965  34.300  20.177 -0.2733 -0.0702  0.1317
29484W        W72578  31.138  33.939  18.430 -0.0461  0.0645  0.1355
29485W        W72579  28.342  34.142  16.746  0.1561  0.1268 -0.1998
29486W        W72580  26.744  33.456  18.818 -0.1970  0.0101 -0.0840
29487W        W72581  28.352  34.123  19.578 -0.0564  0.1263 -0.6018
29488W        W72582  26.461  33.870  15.973 -0.1235  0.2063  0.1376
29489W        W72583  27.142   0.180  18.623  0.2791 -0.0573 -0.1644
29490W        W72584  28.247   0.335  16.613 -0.3380 -0.3350  0.2465
29491W        W72585  25.249   0.070  16.721 -0.2918 -0.3321  0.0822
29492W        W72586  27.191  33.640  16.406  0.1410 -0.0487  0.3148
29493W        W72587  26.449   1.433  16.658 -0.1769 -0.0152  0.1392
29494W        W72588  27.936  33.840  16.811  0.2053  0.0856  0.0131
29495W        W72589  27.463  34.602  19.879 -0.0288  0.1888 -0.1820
29496W        W72590  28.823  30.583  17.821 -0.0824  0.1597  0.0806
29497W        W72591  27.307  33.393  18.582 -0.2111  0.0768 -0.0429
29498W        W72592  27.032  32.861  16.507  0.0599  0.0006 -0.2994
29499W        W72593  28.151  34.451  18.366  0.0040 -0.1172 -0.0727
29500W        W72594  27.387  33.890  18.860  0.4121  0.2138  0.2273
29501W        W72595  26.231  33.046  18.564  0.0880 -0.1668 -0.3195
29502W        W72596  26.077  34.546  18.235 -0.0211 -0.1458  0.2031
29503W        W72597  26.145  32.720  17.125  0.1298  0.1701  0.0341
29504W        W72598  26.851   0.219  17.367 -0.3005  0.1705  0.2134
29505W        W72599  26.575  32.940  17.299 -0.2152 -0.3130  0.0765
29506W        W72600  29.258   0.741  18.454  0.1556 -0.0938  0.1090
29507W        W72601  29.046  32.999  16.940 -0.2487 -0.1609 -0.1130
29508W        W72602  27.638  33.917  18.416  0.0138 -0.6905  0.3225
29509W        W72603  27.108  33.617  17.087 -0.4402  0.0767 -0.0417
29510W        W72604  27.198  34.580  18.168  0.1052 -0.3036 -0.2085
29511W        W72605  28.598  33.123  19.615  0.3070  0.1430 -0.2416
29512W        W72606  27.113  34.647  16.958  0.0046 -0.1963  0.0541
29513W        W72607  26.626   0.537  17.712 -0.0798 -0.2001 -0.1980
29514W        W72608  27.241  32.369  17.843 -0.1457 -0.2436  0.0464
29515W        W72609  27.587  32.684  18.147  0.0415 -0.0511 -0.1277
29516W        W72610  25.970  32.998  16.168  0.0760  0.0124  0.0746
29517W        W72611  28.504  33.218  17.674  0.1593  0.0762 -0.3375
29518W        W72612  25.988  32.888  19.024  0.0377 -0.1907 -0.0798
29519W        W72613  28.750  33.381  19.119 -0.1788 -0.0670 -0.0392
29520W        W72614  26.758  34.647  17.740 -0.1033 -0.2903  0.3277
29521W        W72615  27.638  34.079  16.434  0.0216 -0.0356 -0.3187
29522W        W72616  26.455  32.527  19.705 -0.0848  0.0990 -0.1668
29523W        W72617  28.007  34.536  16.777  0.3131 -0.0822 -0.1772
29524W        W72618  29.069   0.648  19.041 -0.0727  0.0919 -0.1618
29525W        W72619  27.476   0.865  16.966 -0.1336  0.0291  0.0940
29526W        W72620  26.340  34.075  16.983 -0.2718  0.0475  0.0217
29527W        W72621  27.422  33.840  16.786  0.0654 -0.0913  0.0234
29528W        W72622  25.833  34.374  17.190  0.1300  0.2000 -0.1727
29529W        W72623  28.470  33.003  18.963 -0.0579  0.1796 -0.4404
29530W        W72624  25.528  32.305  17.687  0.1731 -0.1878  0.0439
29531W        W72625  28.625  33.869  19.036  0.1998  0.0679 -0.0567
29532W        W72626  28.330   1.154  18.781  0.0917 -0.0099  0.1795
29533W        W72627  26.875  33.137  16.929 -0.1813  0.1042 -0.0627
29534W        W72628  27.436  32.237  16.396 -0.2007 -0.0484 -0.1000
29535W        W72629  26.153  34.045  18.276 -0.1195 -0.1040  0.0485
29536W        W72630  27.963  32.742  17.723 -0.2519  0.1214  0.1152
29537W        W72631  28.004  32.670  17.100  0.2606  0.1474 -0.1015
29538W        W72632  28.488  32.690  17.729 -0.2171  0.0713  0.0119
29539W        W72633  27.482  34.525  16.638  0.2389 -0.0843 -0.0722
29540W        W72634  26.791  34.258  18.326 -0.4268 -0.0524  0.1759
29541W        W72635  29.436  33.232  17.172  0.0351 -0.1162  0.1011
29542W        W72636  28.337  31.920  17.460 -0.1290 -0.0222 -0.0682
29543W        W72637  27.035   0.180  19.951  0.3950  0.1397  0.0829
29544W        W72638  23.955  34.270  15.798 -0.0042  0.2008 -0.1902
29545W        W72639  27.522  32.784  17.553  0.0345  0.0069  0.0331
29546W        W72640  26.769   0.083  20.337 -0.2053  0.1309 -0.1540
29547W        W72641  25.938  33.942  17.861 -0.3880  0.3141 -0.1174
29548W        W72642  26.539  33.534  17.032 -0.3309  0.0354  0.0257
29549W        W72643  26.403  31.930  18.467  0.3010 -0.2221 -0.0433
29550W        W72644  26.396  32.702  17.696  0.0342  0.0153 -0.1067
29551W        W72645  28.799  34.395  16.798  0.1531 -0.0876  0.0701
29552W        W72646  27.481  33.507  18.153 -0.0946  0.0885 -0.2652
29553W        W72647  27.116  33.752  21.094 -0.3005  0.1984 -0.1616
29554W        W72648  25.029  32.420  16.224  0.0543  0.2326 -0.3184
29555W        W72649  27.787  32.204  18.304  0.1121 -0.1889  0.0409
29556W        W72650  26.247  30.559  20.245 -0.0988  0.2787  0.1189
29557W        W72651  29.498  32.311  18.431  0.1911 -0.2015 -0.0728
29558W        W72652  28.203   0.201  17.118  0.2876 -0.3185  0.1050
29559W        W72653  24.934  33.134  20.478 -0.2233  0.0321  0.2417
29560W        W72654  26.807  33.427  17.444  0.0680 -0.1831  0.1118
29561W        W72655  27.833  33.102  16.776 -0.1235 -0.1571  0.0909
29562W        W72656  25.064  33.969  18.617 -0.0435 -0.0105  0.1367
29563W        W72657  26.989   0.129  16.488  0.1250  0.0525 -0.0114
29564W        W72658  26.980  33.369  20.576  0.0640 -0.0158 -0.0067
29565W        W72659  28.432   1.000  17.829 -0.0368 -0.0490  0.3043
29566W        W72660  29.047  34.566  17.356  0.0352  0.0304  0.0042
29567W        W72661  26.654  33.627  19.373  0.3250  0.0805  0.0235
29568W        W72662  26.640  33.726  17.816 -0.1271 -0.1060 -0.1782
29569W        W72663  28.017  34.359  17.663  0.0108  0.0477  0.2419
29570W        W72664  29.750  33.245  17.953 -0.2944  0.0332 -0.0429
29571W        W72665  26.212   0.105  17.805 -0.0542 -0.0784  0.1798
29572W        W72666  27.520  32.869  15.797  0.0262 -0.2764 -0.3314
29573W        W72667  26.303  34.107  20.956  0.1595  0.3142 -0.0110
29574W        W72668  28.537  33.487  18.623 -0.0206 -0.1890 -0.2290
29575W        W72669  29.389   0.143  21.912 -0.0086 -0.3112 -0.2401
29576W        W72670  27.111  33.272  19.628 -0.1030  0.0763  0.5574
29577W        W72671  26.386  32.851  22.070 -0.0509  0.1720  0.1572
29578W        W72672  27.485   0.325  18.989  0.2063 -0.0959  0.4177
29579W        W72673  26.550  34.170  23.910  0.1195  0.1003 -0.2459
29580W        W72674  27.395  33.779  21.525  0.1549 -0.1915  0.1677
29581W        W72675  25.651  31.722  21.560  0.3449 -0.3454 -0.0959
29582W        W72676  29.569   0.902  22.781  0.1615 -0.0386  0.1927
29583W        W72677  26.501  33.250  20.359 -0.0292  0.2252 -0.1241
29584W        W72678  27.585  33.779  20.526  0.0039 -0.0018 -0.3113
29585W        W72679  28.935  33.197  21.325 -0.0577 -0.2380  0.0839
29586W        W72680  27.126  33.680  22.263 -0.0701  0.0957  0.0325
29587W        W72681  27.450  33.191  22.855 -0.0880 -0.0902 -0.1284
29588W        W72682  24.803  34.539  21.131 -0.0572 -0.0177  0.1186
29589W        W72683  25.267  34.403  20.688 -0.1261 -0.1895 -0.4328
29590W        W72684  27.400   0.431  22.530  0.2305 -0.2568  0.0708
29591W        W72685  30.035  34.119  20.563 -0.1387  0.1477  0.1553
29592W        W72686  29.046   1.623  22.211 -0.1050  0.1301  0.0882
29593W        W72687  29.517  34.460  23.195  0.1457  0.1276 -0.0428
29594W        W72688  28.822   1.286  22.457 -0.2541  0.1569  0.3829
29595W        W72689  27.339   0.640  21.519  0.0723  0.0774  0.0781
29596W        W72690  29.241  33.122  23.503 -0.2017  0.2841 -0.2435
29597W        W72691  27.821  32.821  20.251  0.0155 -0.0173  0.0264
29598W        W72692  27.816  34.337  18.740 -0.1315  0.1260 -0.0931
29599W        W72693  28.472  34.295  20.459  0.2024  0.2131  0.0227
29600W        W72694  26.903  33.692  21.746 -0.1956  0.2320 -0.3329
29601W        W72695  28.116  34.578  22.162  0.0737  0.0877 -0.0095
29602W        W72696  27.954  34.679  19.776 -0.1010 -0.1267  0.3055
29603W        W72697  28.713  33.465  23.428  0.1275  0.0415  0.0709
29604W        W72698  27.042  34.122  21.520 -0.0491 -0.0185  0.0166
29605W        W72699  26.045   0.282  20.858 -0.1388  0.0333 -0.1793
29606W        W72700  25.975   0.785  23.327  0.1838  0.2401  0.1014
29607W        W72701  24.567  34.470  23.656 -0.3339  0.3182  0.1019
29608W        W72702  27.263  33.343  21.378  0.1475 -0.0562  0.0945
29609W        W72703  30.797  33.354  19.648 -0.0477  0.0766  0.0858
29610W        W72704  30.426  33.790  20.650 -0.3257 -0.1047  0.3068
29611W        W72705  29.009  32.830  22.799  0.0171 -0.0010  0.2277
29612W        W72706  27.921  32.964  18.996  0.0673  0.1087  0.0104
29613W        W72707  27.865  34.483  24.931  0.1339 -0.2286 -0.1694
29614W        W72708  26.095  34.264  22.095 -0.0817  0.5257 -0.2479
29615W        W72709  27.399  32.966  18.921 -0.0545  0.1256  0.2146
29616W        W72710  28.018  33.920  23.418  0.0321 -0.1708  0.1377
29617W        W72711  28.105  33.879  20.484  0.3101 -0.0213  0.0052
29618W        W72712  28.176  33.955  19.194 -0.2548 -0.0260 -0.1608
29619W        W72713  26.647   0.033  22.648 -0.0082  0.2931  0.3847
29620W        W72714  26.190  33.608  21.178  0.0023  0.0918  0.0085
29621W        W72715  28.370  34.112  22.335 -0.0333 -0.2149  0.0268
29622W        W72716  25.842  33.104  20.927 -0.0603 -0.1874  0.1349
29623W        W72717  28.506   0.916  23.772  0.1712 -0.0616 -0.0871
29624W        W72718  26.399  33.683  21.731  0.1611 -0.1044 -0.0336
29625W        W72719  29.908  33.706  20.766  0.2956  0.1378 -0.1393
29626W        W72720  27.670   0.220  21.518  0.0143 -0.0712  0.1255
29627W        W72721  28.467  33.129  21.998 -0.1639 -0.2144 -0.3779
29628W        W72722  27.667   0.240  22.104 -0.1232  0.2181  0.0310
29629W        W72723  26.595  32.472  20.242 -0.0196 -0.1230  0.2463
29630W        W72724  27.204  33.571  20.129 -0.1135  0.1840  0.0219
29631W        W72725  27.689  32.215  23.504  0.1106 -0.0322  0.1375
29632W        W72726  28.409  33.908  21.413  0.5813  0.2966 -0.1352
29633W        W72727  26.897  31.722  18.519  0.0947  0.0864  0.2249
29634W        W72728  23.661   0.564  21.447  0.0882  0.0101  0.1214
29635W        W72729  28.274  32.707  19.299  0.2000 -0.1915  0.2110
29636W        W72730  25.952   0.216  21.676  0.0080 -0.0866  0.2604
29637W        W72731  29.290   0.512  22.950 -0.1431  0.2114  0.2133
29638W        W72732  25.947  33.989  20.176 -0.1294  0.1230 -0.3160
29639W        W72733  28.168  33.398  20.399  0.0200 -0.0906 -0.3116
29640W        W72734  28.677  32.695  18.530 -0.1431 -0.1349  0.0863
29641W        W72735  28.158  33.220  19.433  0.2001 -0.2163  0.2026
29642W        W72736  27.299  33.360  17.475  0.1761 -0.0028 -0.0402
29643W        W72737  28.279  34.256  21.064  0.0241  0.0847  0.2142
29644W        W72738  27.974  33.237  23.602  0.3031  0.0919  0.0531
29645W        W72739  26.820   0.531  20.182 -0.0876  0.1170 -0.1895
29646W        W72740  28.092  33.515  21.258 -0.1788 -0.1730  0.2274
29647W        W72741  28.012  34.317  23.175  0.0189 -0.1469 -0.0920
29648W        W72742  27.677  32.429  21.715  0.0784 -0.2076 -0.2511
29649W        W72743  28.128  32.531  22.958  0.1879 -0.0136  0.0847
29650W        W72744  30.013   0.639  23.478 -0.3489 -0.0377 -0.1239
29651W        W72745  29.682   0.263  21.500 -0.1331  0.1497  0.3437
29652W        W72746  29.278   1.190  22.193 -0.1066  0.0184 -0.3330
29653W        W72747  26.549  33.366  20.912  0.1357  0.0325  0.1017
29654W        W72748  27.711   0.947  23.200 -0.1526 -0.3190  0.0780
29655W        W72749  28.208  33.815  22.858 -0.1642 -0.1874  0.1661
29656W        W72750  26.586  34.142  21.839 -0.1750  0.0089 -0.1334
29657W        W72751  27.570  33.519  22.423 -0.1490  0.3008 -0.3676
29658W        W72752  28.435  33.241  20.974 -0.0213  0.0655  0.3305
29659W        W72753  28.028  34.565  20.777 -0.3988  0.1108  0.2642
29660W        W72754  23.644  34.237  21.061 -0.1072  0.0557  0.0764
29661W        W72755  27.873  33.205  19.854 -0.1424 -0.1431 -0.2507
29662W        W72756  26.093  33.808  22.384  0.0703  0.0959  0.1093
29663W        W72757  29.146  34.303  22.682  0.1184  0.0523  0.0328
29664W        W72758  27.514   1.307  23.506 -0.1213 -0.1985  0.0297
29665W        W72759  26.902  32.757  19.639  0.0680 -0.1882  0.2926
29666W        W72760  28.394  34.480  24.136 -0.0909  0.0489 -0.0966
29667W        W72761  25.386   0.305  19.311 -0.0671  0.0431 -0.3295
29668W        W72762  29.880  33.608  22.080 -0.0137 -0.0005  0.0890
29669W        W72763  28.237  34.354  22.765  0.1821 -0.0202 -0.0072
29670W        W72764  26.205  34.631  20.409 -0.0421  0.1824  0.1657
29671W        W72765  27.270  33.699  22.901 -0.0217 -0.0011  0.2155
29672W        W72766  28.032  34.364  21.729  0.1083 -0.0667 -0.0240
29673W        W72767  27.563  34.634  20.838 -0.0502 -0.3910  0.1384
29674W        W72768  28.484  33.606  22.360  0.1392 -0.0567  0.1064
29675W        W72769  27.703   0.240  23.685  0.1839 -0.0722 -0.4402
29676W        W72770  27.317  34.101  22.472  0.0281  0.2793 -0.1503
29677W        W72771  28.009   0.752  24.641 -0.1172 -0.1212 -0.2009
29678W        W72772  28.472  33.907  23.254 -0.1120  0.1319  0.1169
29679W        W72773  29.103  33.788  20.430  0.2111 -0.1954 -0.0967
29680W        W72774  28.060  33.459  21.995  0.2292 -0.1667  0.2130
29681W        W72775  29.343  33.598  20.847 -0.3021  0.0340 -0.2698
29682W        W72776  29.469   0.006  19.748  0.0395  0.3676 -0.0368
29683W        W72777  27.984  33.776  22.430 -0.3795 -0.5621 -0.1715
29684W        W72778  26.722  33.684  23.181  0.1903  0.0203  0.3961
29685W        W72779  25.675  34.252  23.829  0.1474  0.0611 -0.0742
29686W        W72780  25.792   0.564  23.697  0.1064 -0.0736  0.1638
29687W        W72781  28.742  32.666  19.676  0.2020  0.2176  0.2191
29688W        W72782  27.084  32.557  20.822 -0.0497 -0.1081  0.2906
29689W        W72783  28.017   0.921  22.335 -0.4254  0.3182  0.2626
29690W        W72784  29.408  34.615  19.231  0.2181 -0.1818 -0.0835
29691W        W72785  25.744   0.958  22.543  0.0201 -0.2304  0.1409
29692W        W72786  27.842  33.701  20.082 -0.0037 -0.1038 -0.1940
29693W        W72787  27.015  34.625  24.148  0.0713 -0.2851 -0.0326
29694W        W72788  28.323  33.968  20.060 -0.0381  0.0043  0.2441
29695W        W72789  28.669  33.301  20.393  0.0063 -0.2489 -0.2087
29696W        W72790  28.653   0.803  22.768 -0.1890  0.0553 -0.0125
29697W        W72791  27.455   1.311  22.963  0.0106 -0.1375  0.0494
29698W        W72792  28.471  34.413  23.190 -0.1342 -0.3896 -0.0721
29699W        W72793  29.045  34.280  20.454 -0.0845  0.2216  0.2981
29700W        W72794  30.386  33.552  21.132 -0.3559 -0.1370  0.1665
29701W        W72795  29.164   0.318  19.463  0.2013  0.2021  0.1263
29702W        W72796  27.737   0.050  20.295 -0.2075  0.0717 -0.4837
29703W        W72797  26.611  33.305  21.939 -0.1953  0.0846 -0.1095
29704W        W72798  27.786   1.002  24.260 -0.1209  0.3297  0.0276
29705W        W72799  26.889  32.221  19.921 -0.4045 -0.0602  0.0319
29706W        W72800  29.081  32.645  21.169 -0.0123 -0.3950  0.0889
29707W        W72801  29.217  33.425  21.638  0.1135 -0.1706 -0.0794
29708W        W72802  26.276  32.773  20.420  0.2225 -0.0003 -0.1044
29709W        W72803  26.626  34.299  20.389 -0.2399 -0.0419 -0.0307
29710W        W72804  27.359   0.313  21.093  0.0404  0.0992 -0.0083
29711W        W72805  28.109  32.655  19.828  0.1226  0.0169 -0.1420
29712W        W72806  30.061  32.877  23.951  0.1189 -0.2530 -0.1996
29713W        W72807  27.876  33.014  22.134  0.2426  0.0467 -0.1195
29714W        W72808  28.232  33.455  23.194  0.3420  0.1932  0.2588
29715W        W72809  28.947  34.482  21.319 -0.0080 -0.0809 -0.0468
29716W        W72810  28.923   0.431  22.549 -0.0129 -0.2900 -0.1011
29717W        W72811  29.400   0.036  22.792  0.3142  0.0306 -0.0623
29718W        W72812  26.513  34.109  22.884 -0.2615  0.1030  0.2591
29719W        W72813  26.922   0.336  22.895 -0.0365  0.2456 -0.0436
29720W        W72814  28.184  32.781  20.995  0.0101 -0.2282 -0.2250
29721W        W72815  25.990  33.199  20.447 -0.2908  0.2395 -0.1044
29722W        W72816  29.075  33.968  19.489  0.1352  0.0410 -0.1267
29723W        W72817  27.869  34.474  21.243 -0.0739  0.1726 -0.0971
29724W        W72818  29.594   0.371  20.027 -0.1407  0.0176  0.0495
29725W        W72819  26.176  33.246  21.641 -0.0664 -0.0161  0.2346
29726W        W72820  26.960  33.104  19.187  0.0472 -0.2678 -0.2864
29727W        W72821  27.454   0.566  23.032  0.0043 -0.0086 -0.3174
29728W        W72822  29.459  33.818  22.526 -0.0249  0.1810 -0.3855
29729W        W72823  25.679  33.618  21.072 -0.2447  0.1110  0.1543
29730W        W72824  28.195   1.060  22.788 -0.2532 -0.3251  0.1536
29731W        W72825  29.688   0.004  22.331 -0.0586 -0.1508 -0.1263
29732W        W72826  28.750  34.008  20.897  0.0500 -0.2826 -0.0770
29733W        W72827  25.802  32.810  21.407  0.3345 -0.1452 -0.0002
29734W        W72828  29.255  34.531  20.842 -0.0125  0.3140 -0.3065
29735W        W72829  27.299  34.566  22.311  0.2211  0.1094 -0.1289
29736W        W72830  28.194  33.916  21.894 -0.2173 -0.0849  0.5243
29737W        W72831  28.234   0.192  21.700  0.0704  0.0973 -0.1089
29738W        W72832  28.863  32.892  20.163 -0.3794 -0.2880  0.0083
29739W        W72833  25.856   0.274  23.280 -0.2445 -0.2700 -0.2074
29740W        W72834  27.364  34.444  19.053 -0.0147 -0.2604 -0.0924
29741W        W72835  29.438   1.094  23.615 -0.0355  0.1350  0.1890
29742W        W72836  28.292   0.295  19.536 -0.1031  0.0992 -0.2014
29743W        W72837  27.060  34.557  21.786 -0.0077 -0.0466  0.0814
29744W        W72838  29.564  33.710  21.320  0.1600  0.2456 -0.1507
29745W        W72839  27.373   0.316  20.569 -0.0852  0.1829  0.2020
29746W        W72840  28.060   0.556  23.379 -0.1549 -0.2207  0.2102
29747W        W72841  26.101  33.341  22.204  0.2033  0.1066  0.0540
29748W        W72842  28.988   0.568  21.424 -0.0473  0.1424 -0.0107
29749W        W72843  28.426   0.208  20.727  0.1030  0.0505 -0.2445
29750W        W72844  25.275  33.551  20.388  0.2197  0.0988  0.0910
29751W        W72845  25.413  33.242  20.754  0.1490 -0.0925  0.0739
29752W        W72846  28.231   0.024  20.266 -0.1831 -0.0255  0.0462
29753W        W72847  28.705  33.934  21.895 -0.1788 -0.1608  0.0511
29754W        W72848  30.013  34.141  22.070  0.0335 -0.0474  0.0880
29755W        W72849  28.228  32.651  22.457  0.0873 -0.1517 -0.0473
29756W        W72850  28.647   0.201  22.137 -0.1328  0.0302  0.0401
29757W        W72851  28.202  32.466  21.437  0.3336  0.1253  0.0535
29758W        W72852  29.282  34.177  19.939 -0.1815 -0.1130 -0.3486
29759W        W72853  29.025  32.524  20.685 -0.2354 -0.1213 -0.0649
29760W        W72854  27.530  34.429  21.849 -0.1763 -0.1369 -0.0980
29761W        W72855  25.878  34.367  21.632 -0.4727 -0.1313 -0.1951
29762W        W72856  27.614  33.817  21.939 -0.1604 -0.1963  0.0008
29763W        W72857  28.525   0.838  22.255  0.2633 -0.2512 -0.0484
29764W        W72858  26.068  34.587  21.180  0.1441 -0.4797  0.1282
29765W        W72859  27.086  34.133  22.044  0.0227 -0.0483  0.1639
29766W        W72860  27.608  33.555  21.094 -0.1191 -0.1011  0.0207
29767W        W72861  24.393  32.934  21.590  0.1868  0.0668 -0.0748
29768W        W72862  27.169  34.030  20.507  0.0280  0.3659  0.0998
29769W        W72863  27.099   0.790  24.800  0.2450 -0.3288 -0.2349
29770W        W72864  27.030  33.307  22.593 -0.0317 -0.2896 -0.2021
29771W        W72865  26.354  32.988  19.978  0.0850  0.1091 -0.1248
29772W        W72866  29.151  34.625  22.332  0.1074  0.0496  0.0972
29773W        W72867  25.839  32.974  21.963  0.2270  0.2058 -0.1015
29774W        W72868  28.540  33.517  19.941 -0.0111  0.0069 -0.0609
29775W        W72869  27.479  34.198  20.143  0.1126  0.0586 -0.0035
29776W        W72870  27.510  32.104  22.829 -0.4298  0.0714 -0.0227
29777W        W72871  28.871  33.704  21.353  0.2770 -0.1966  0.0073
29778W        W72872  28.245  32.188  20.030 -0.1567 -0.2636 -0.3516
29779W        W72873  26.185  34.352  22.625  0.0574 -0.0085  0.2766
29780W        W72874  28.079  33.636  19.633  0.0409  0.3404  0.1186
29781W        W72875  27.520  34.518  24.043  0.2285  0.1236  0.0963
29782W        W72876  27.466  32.889  19.832 -0.2043  0.0463 -0.0625
29783W        W72877  29.178   1.859  21.340 -0.0921 -0.0108  0.1003
29784W        W72878  25.907  33.640  21.900 -0.2129 -0.0404  0.1523
29785W        W72879  28.328  32.994  20.048  0.0154 -0.2804 -0.0159
29786W        W72880  26.662  33.871  21.343  0.2568 -0.2606  0.1890
29787W        W72881  27.893  33.986  21.020  0.1912  0.2465  0.2446
29788W        W72882  26.682  33.373  21.411 -0.0743  0.0148  0.0126
29789W        W72883  27.075  34.609  19.522  0.3197 -0.0429  0.2537
29790W        W72884  26.929   0.378  25.036 -0.1500  0.1268 -0.0667
29791W        W72885  29.058  33.856  24.066  0.0153 -0.1070  0.2469
29792W        W72886  27.366  32.695  24.254 -0.1001  0.2552 -0.1263
29793W        W72887  25.375  33.955  26.506 -0.0084 -0.0959 -0.1262
29794W        W72888  26.917  32.386  24.110 -0.0393 -0.0852  0.0724
29795W        W72889  29.673   0.701  23.868  0.2642  0.3636  0.0713
29796W        W72890  27.998  33.428  26.093 -0.1342 -0.2202 -0.1213
29797W        W72891  26.715  33.250  22.971 -0.0394 -0.2790  0.1103
29798W        W72892  25.230  33.609  26.177  0.1366  0.0256 -0.2310
29799W        W72893  28.453   0.879  26.902  0.0308  0.0441  0.2051
29800W        W72894  26.099   0.845  24.487  0.0252  0.0779 -0.1277
29801W        W72895  27.681  33.623  25.748 -0.2023  0.0377 -0.1491
29802W        W72896  26.401   0.515  24.158  0.0951 -0.3089 -0.1119
29803W        W72897  26.144  32.834  25.717  0.1473 -0.0194 -0.1179
29804W        W72898  26.908  32.323  26.907  0.1924  0.0140 -0.1941
29805W        W72899  26.142  33.489  23.334  0.0445 -0.1101 -0.2668
29806W        W72900  25.771  34.276  24.608  0.1572 -0.0211  0.4205
29807W        W72901  28.160  33.884  26.038 -0.0520  0.0100  0.0369
29808W        W72902  27.946  31.703  26.038  0.2804  0.0014  0.1287
29809W        W72903  30.009  33.834  25.827  0.0919  0.0578 -0.0797
29810W        W72904  29.231  33.537  27.760 -0.3864  0.1804  0.2145
29811W        W72905  27.480   0.700  26.131 -0.2006 -0.0623 -0.4974
29812W        W72906  28.444  33.387  24.292  0.0131  0.2308 -0.0865
29813W        W72907  26.580  33.236  28.311 -0.1268 -0.1965 -0.1251
29814W        W72908  28.638  34.031  22.728  0.0509  0.0783 -0.1303
29815W        W72909  28.057  33.871  24.295  0.3724  0.0198  0.5436
29816W        W72910  27.011  34.096  25.226  0.1098 -0.0054  0.0211
29817W        W72911  27.286  33.813  24.860  0.1268 -0.2376  0.3403
29818W        W72912  27.102  33.667  25.776  0.2078 -0.1816 -0.2941
29819W        W72913  26.833   1.737  23.669 -0.3878  0.1333  0.2789
29820W        W72914  28.530  33.529  26.269  0.1249  0.1393 -0.0893
29821W        W72915  27.396  34.612  25.803 -0.1881 -0.0674 -0.2792
29822W        W72916  26.179  34.588  25.447  0.0525  0.0024 -0.1768
29823W        W72917  26.406   0.364  27.164 -0.1133 -0.3163 -0.1226
29824W        W72918  26.652  34.581  27.136 -0.0208 -0.1367  0.1208
29825W        W72919  26.554  34.304  24.398 -0.0252 -0.0434 -0.3003
29826W        W72920  29.593  33.210  25.330 -0.2207 -0.0001 -0.0754
29827W        W72921  28.599  34.692  27.907 -0.2171  0.1267 -0.0841
29828W        W72922  27.911  33.702  27.318 -0.2887 -0.2882  0.0152
29829W        W72923  29.216   0.635  23.575 -0.0030 -0.2947  0.1230
29830W        W72924  25.986  33.595  27.239  0.1006 -0.2183  0.4393
29831W        W72925  25.059  33.319  27.230  0.0440  0.1869  0.1923
29832W        W72926  29.893  34.092  23.611  0.0172  0.0025 -0.1021
29833W        W72927  25.635  32.268  26.239 -0.1239  0.1783 -0.0696
29834W        W72928  29.769  33.130  25.841  0.2987  0.1221  0.2457
29835W        W72929  29.561  33.738  23.771  0.3278  0.1531  0.0459
29836W        W72930  26.723   0.702  25.924 -0.0623 -0.0136 -0.3403
29837W        W72931  25.679  34.541  25.162 -0.3328 -0.1533  0.0066
29838W        W72932  27.453  31.918  26.336  0.0025 -0.1661  0.3092
29839W        W72933  26.303  33.912  26.998  0.0817 -0.1361  0.1795
29840W        W72934  27.893  33.011  28.210 -0.2204  0.2399 -0.0116
29841W        W72935  26.086  32.950  22.639  0.4480  0.0237 -0.0200
29842W        W72936  29.138   0.015  25.594 -0.0658  0.0796 -0.1068
29843W        W72937  27.411  34.476  24.537  0.0548 -0.0451  0.1342
29844W        W72938  27.890  33.718  29.429  0.0701  0.0691 -0.1481
29845W        W72939  27.389  33.620  25.293  0.2361 -0.3607 -0.1399
29846W        W72940  26.522   0.052  24.579 -0.0482 -0.1375  0.1732
29847W        W72941  27.058  34.126  24.273 -0.3135 -0.1084 -0.0741
29848W        W72942  27.782  33.691  27.788 -0.0744  0.0497  0.3089
29849W        W72943  28.581  34.034  26.366 -0.2960  0.2945 -0.2966
29850W        W72944  25.967   0.403  24.774 -0.2204  0.0409 -0.2521
29851W        W72945  26.199   0.774  25.079 -0.0381  0.0894 -0.0595
29852W        W72946  28.759  32.770  25.571  0.1057 -0.0230 -0.2617
29853W        W72947  26.171  34.020  26.488  0.1532  0.0786 -0.2701
29854W        W72948  26.888  32.847  26.914 -0.3853  0.1304 -0.2735
29855W        W72949  25.414  34.075  25.174  0.2825  0.1032  0.0124
29856W        W72950  28.310  33.583  23.794  0.1911 -0.1202  0.0019
29857W        W72951  28.919  34.428  23.980 -0.2558 -0.0966 -0.2706
29858W        W72952  27.718  33.702  23.835 -0.0265  0.0345  0.2821
29859W        W72953  30.384   0.211  22.995  0.2125  0.1531 -0.0602
29860W        W72954  26.998  33.496  23.588  0.2157 -0.0371 -0.0360
29861W        W72955  26.105  32.913  26.634  0.0104  0.1664  0.0080
29862W        W72956  28.687  34.479  22.407  0.3742  0.2167  0.1931
29863W        W72957  27.876  33.982  24.811 -0.1623 -0.1941 -0.0853
29864W        W72958  28.414  33.928  27.477 -0.1005  0.4302  0.1590
29865W        W72959  27.781  32.764  25.658 -0.3180 -0.0503 -0.1027
29866W        W72960  28.913  32.990  26.054  0.1062 -0.0672  0.0131
29867W        W72961  29.451   0.310  28.456 -0.0200 -0.0198  0.5233
29868W        W72962  28.005   0.150  24.055  0.4338 -0.0821  0.0648
29869W        W72963  27.685   0.367  25.909 -0.1997 -0.0423 -0.0054
29870W        W72964  26.935  34.001  23.558 -0.0357  0.3114  0.3697
29871W        W72965  26.718  33.516  27.846  0.4293  0.0049 -0.0552
29872W        W72966  26.670   0.278  28.123 -0.1633  0.1522  0.0478
29873W        W72967  28.221  33.092  24.599  0.0091  0.0211 -0.0783
29874W        W72968  27.864  32.844  25.163 -0.0346 -0.3027  0.1596
29875W        W72969  28.178  33.819  26.558 -0.2891  0.2392  0.2416
29876W        W72970  27.472   0.746  23.853  0.2510  0.1804  0.1982
29877W        W72971  25.535   1.164  25.185 -0.2535  0.4486 -0.2594
29878W        W72972  28.383  33.604  25.651  0.1942  0.3210  0.1641
29879W        W72973  25.539  34.097  26.035 -0.1838 -0.3620 -0.1072
29880W        W72974  25.819  33.273  26.881 -0.2898 -0.1894 -0.1679
29881W        W72975  27.215   1.001  27.105  0.0287  0.0286 -0.0006
29882W        W72976  28.692  32.958  24.197 -0.0651 -0.2117  0.0961
29883W        W72977  26.593  33.849  26.123  0.2870  0.1749 -0.2037
29884W        W72978  25.904   0.061  23.824  0.2894 -0.2822 -0.0981
29885W        W72979  29.137  34.116  25.762  0.0333 -0.2429  0.2763
29886W        W72980  25.544   0.144  24.633  0.1314 -0.0642  0.0444
29887W        W72981  26.254   0.430  23.675 -0.0260 -0.0694  0.0744
29888W        W72982  26.416  32.696  28.024 -0.2363 -0.2179 -0.3763
29889W        W72983  27.211  34.046  26.533 -0.0739 -0.3023 -0.1865
29890W        W72984  26.517  33.851  25.110  0.1106  0.0533 -0.1105
29891W        W72985  27.487  33.096  26.055 -0.0624  0.0539 -0.1860
29892W        W72986  26.719  34.078  27.167 -0.0490  0.3528  0.0783
29893W        W72987  26.961  32.031  24.484  0.0405  0.1595 -0.3067
29894W        W72988  27.302   1.653  28.547 -0.1171  0.0871 -0.1753
29895W        W72989  26.953  33.834  27.568 -0.0885  0.1165  0.1672
29896W        W72990  29.213  33.516  25.349  0.1837  0.1107  0.0609
29897W        W72991  28.708  32.067  26.414  0.1240  0.0222 -0.0690
29898W        W72992  28.110  34.073  26.983 -0.0333  0.0851  0.0357
29899W        W72993  29.308  34.204  23.609  0.1413 -0.1396  0.2845
29900W        W72994  27.608  32.827  26.823 -0.1315  0.3166 -0.1181
29901W        W72995  26.563  32.633  26.627  0.2841 -0.1039  0.0963
29902W        W72996  25.690   0.049  25.726 -0.1834 -0.0953  0.2301
29903W        W72997  24.992  34.683  28.389  0.5188 -0.0988  0.0510
29904W        W72998  27.709  33.907  26.718 -0.3148  0.0096  0.0322
29905W        W72999  26.465   0.016  24.080 -0.0871 -0.1724  0.0045
29906W        W73000  25.912   0.399  25.302 -0.0533  0.0911  0.1497
29907W        W73001  28.387  34.691  26.725  0.2201 -0.1066 -0.0292
29908W        W73002  27.751  34.039  26.262  0.2548 -0.1918 -0.0927
29909W        W73003  28.382   0.324  23.737  0.1873 -0.0169  0.2494
29910W        W73004  27.431  32.624  25.172 -0.0388 -0.2461  0.1944
29911W        W73005  29.026  33.364  26.429  0.3620  0.1246 -0.2390
29912W        W73006  28.371  33.652  26.995  0.3504  0.1842 -0.1965
29913W        W73007  27.154  34.186  27.863  0.5171  0.1146  0.0617
29914W        W73008  26.308  34.596  26.285  0.0955 -0.1265  0.0113
29915W        W73009  24.543  33.814  27.458  0.0309 -0.1410  0.0152
29916W        W73010  30.008  33.611  23.566  0.1343  0.0256 -0.0915
29917W        W73011  27.461  34.028  27.517 -0.0801  0.0332  0.0071
29918W        W73012  29.049  33.435  24.432 -0.0112 -0.1367 -0.0331
29919W        W73013  27.961  34.299  23.973 -0.0784  0.1361 -0.2396
29920W        W73014  24.928   0.657  25.745  0.0591 -0.1767  0.6953
29921W        W73015  27.552   0.626  28.494  0.2971 -0.1790  0.1462
29922W        W73016  25.794  33.893  21.470  0.0754  0.5913 -0.0101
29923W        W73017  28.252  34.399  26.070  0.0646 -0.4792 -0.0947
29924W        W73018  26.748  34.490  23.249 -0.0231 -0.0027  0.1709
29925W        W73019  25.806  34.300  25.598  0.5028 -0.2090 -0.0243
29926W        W73020  25.642  34.582  24.206 -0.1826  0.0719  0.0000
29927W        W73021  26.841   1.390  24.552  0.1280  0.0572 -0.2140
29928W        W73022  28.454  32.515  23.866  0.0111  0.0595  0.1400
29929W        W73023  28.226  32.560  29.130  0.2775  0.2013 -0.3004
29930W        W73024  28.710  33.275  25.490 -0.5453  0.2034 -0.1012
29931W        W73025  26.702  31.522  25.742 -0.1936  0.1437  0.0784
29932W        W73026  28.661  33.726  24.560  0.2030  0.3583  0.1130
29933W        W73027  27.559  33.165  25.412 -0.2828 -0.1633 -0.1578
29934W        W73028  27.753  33.363  26.914 -0.0902 -0.1811 -0.2721
29935W        W73029  27.033  34.091  26.055  0.4543 -0.1957  0.1277
29936W        W73030  25.808  33.871  26.863 -0.2740 -0.1114 -0.0659
29937W        W73031  26.034  34.181  25.148 -0.1099 -0.0753 -0.1700
29938W        W73032  28.135  34.621  23.537  0.1716 -0.3417  0.0744
29939W        W73033  29.353  33.258  22.732 -0.2646 -0.2019  0.0138
29940W        W73034  29.478   0.752  24.884  0.0298 -0.1841 -0.1500
29941W        W73035  28.685   0.106  22.847  0.0846  0.0187  0.3854
29942W        W73036  27.319  33.121  26.532  0.3600  0.2851 -0.0024
29943W        W73037  27.665  34.001  22.813  0.0402  0.1241  0.2202
29944W        W73038  25.977  33.868  26.036 -0.1078 -0.2052  0.0092
29945W        W73039  28.782  32.569  27.676  0.1346 -0.6066 -0.2055
29946W        W73040  25.193  33.306  23.873 -0.3019  0.0389  0.0362
29947W        W73041  28.756  32.402  26.023 -0.0105 -0.1288  0.0349
29948W        W73042  28.335  34.270  27.891 -0.2406  0.0366  0.2964
29949W        W73043  27.799  33.097  26.481  0.1247  0.0190 -0.2671
29950W        W73044  26.069   0.037  24.375  0.0464 -0.1029  0.3175
29951W        W73045  28.797   0.492  25.570  0.1167  0.2416  0.1248
29952W        W73046  27.580  33.538  26.390 -0.2525  0.3580  0.0359
29953W        W73047  28.085  33.119  27.166  0.0322  0.0965  0.1184
29954W        W73048  26.696  34.637  25.107  0.0462 -0.1433 -0.1606
29955W        W73049  28.842  33.986  23.619 -0.3475  0.1398 -0.0048
29956W        W73050  26.254   0.155  25.866 -0.1017 -0.3303 -0.2419
29957W        W73051  26.729  33.911  24.652  0.1194  0.1472 -0.4530
29958W        W73052  29.877   1.569  27.246  0.1137 -0.1968  0.0636
29959W        W73053  27.464  34.240  25.075 -0.0740  0.2123 -0.2091
29960W        W73054  28.017  33.686  25.333 -0.2574 -0.2248 -0.3868
29961W        W73055  28.934  33.758  23.075  0.1781 -0.4430 -0.2846
29962W        W73056  27.640  34.626  25.369  0.0230  0.0056 -0.0374
29963W        W73057  26.855  34.521  25.937 -0.0006 -0.2730 -0.0544
29964W        W73058  26.903   0.423  24.123 -0.3230 -0.0902  0.0904
29965W        W73059  28.596   0.411  26.830  0.3517 -0.2206  0.0967
29966W        W73060  28.723   0.504  24.034 -0.0628 -0.2141  0.1695
29967W        W73061  26.651  33.739  25.626 -0.0708 -0.2643  0.0996
29968W        W73062  26.822  33.768  23.992  0.1911 -0.1782  0.1120
29969W        W73063  28.323  34.149  25.647 -0.1574  0.2755 -0.0722
29970W        W73064  28.792  34.386  25.363 -0.1307 -0.1036  0.0206
29971W        W73065  27.215  33.553  26.818  0.0748 -0.1307 -0.0349
29972W        W73066  26.834  33.166  26.575  0.0341  0.1511 -0.0334
29973W        W73067  27.106  34.493  23.652  0.1244 -0.2800 -0.1759
29974W        W73068  26.910  33.570  25.095  0.0503 -0.0963  0.2959
29975W        W73069  29.496  33.388  26.190  0.1416  0.0385 -0.1216
29976W        W73070  28.277  32.824  25.495  0.1742  0.0951 -0.0943
29977W        W73071  27.647   0.826  25.682  0.0498  0.3355  0.0605
29978W        W73072  25.719  33.469  23.941 -0.1676 -0.3327  0.0879
29979W        W73073  27.240  32.751  25.684  0.3196  0.0935 -0.2806
29980W        W73074  27.116  33.639  26.281 -0.0704 -0.3606  0.0665
29981W        W73075  25.281  34.468  24.817  0.0305 -0.1341  0.1062
29982W        W73076  26.046  34.597  24.840 -0.0211 -0.1255  0.0756
29983W        W73077  26.460  34.242  25.900  0.0057 -0.0600 -0.2078
29984W        W73078  26.374  33.773  24.233 -0.0247  0.1049  0.1457
29985W        W73079  26.139   0.872  23.924  0.0381  0.0635  0.1466
29986W        W73080  26.688  34.308  27.654 -0.2958  0.1587 -0.1875
29987W        W73081  27.034  32.859  26.201 -0.0502 -0.4924 -0.0166
29988W        W73082  25.622  33.487  23.464  0.2005  0.0029 -0.1766
29989W        W73083  27.643  34.376  27.172 -0.0997 -0.1779 -0.2616
29990W        W73084  27.242  32.532  26.608  0.0303 -0.1347 -0.2050
29991W        W73085  29.273  34.212  25.269 -0.1235  0.0921 -0.0682
29992W        W73086  28.709   0.034  23.525 -0.0438  0.1112  0.0295
29993W        W73087  26.277  31.576  26.500  0.0391  0.1736 -0.2802
29994W        W73088  26.406  32.592  25.372  0.0171 -0.4402 -0.0320
29995W        W73089  27.980  33.394  24.110  0.0383  0.2819  0.0187
29996W        W73090  26.497   1.090  26.329  0.0581  0.0083  0.1018
29997W        W73091  27.265   0.355  23.582  0.2624 -0.0020  0.0746
29998W        W73092  28.187   0.516  27.126  0.0464  0.2123 -0.1099
29999W        W73093  28.697   1.527  25.009  0.1306  0.3633 -0.0205
30000W        W73094  29.870   0.234  24.254 -0.2601 -0.2206  0.0820
30001W        W73095  24.673  31.769  26.234 -0.2519 -0.2380  0.0846
30002W        W73096  27.805   0.075  23.089 -0.1295 -0.4116 -0.1536
30003W        W73097  28.556  33.849  24.092  0.1309  0.1860  0.2476
30004W        W73098  28.769  33.103  27.442 -0.1759 -0.0272 -0.2191
30005W        W73099  27.003  31.977  25.742 -0.0934 -0.1089  0.2532
30006W        W73100  27.710  33.333  24.997  0.0032  0.2840  0.0988
30007W        W73101  26.200  33.357  28.820  0.0745  0.0426  0.0246
30008W        W73102  27.285  34.585  28.679  0.0762  0.0482 -0.0199
30009W        W73103  30.410  34.383  28.943  0.0334 -0.4532 -0.1124
30010W        W73104  24.737  33.559  28.755  0.1962  0.3043  0.0730
30011W        W73105  25.569  31.328  29.474 -0.1410  0.0572 -0.2808
30012W        W73106  27.327   1.415  27.479  0.0515 -0.2176 -0.0922
30013W        W73107  27.227  32.551  28.811 -0.0231  0.0964  0.0604
30014W        W73108  26.188  33.259  27.874 -0.0013 -0.1405 -0.3966
30015W        W73109  25.408  33.380  29.542 -0.0001 -0.0451  0.3442
30016W        W73110  28.269   0.298  29.321  0.1412  0.1554 -0.3069
30017W        W73111  25.998   0.812  27.906 -0.1097  0.1404 -0.1422
30018W        W73112  28.170  32.633  29.579 -0.1223  0.0668 -0.1655
30019W        W73113  26.973  31.958  28.674 -0.0053 -0.1621  0.2478
30020W        W73114  28.205  32.030  29.967  0.0711 -0.0859 -0.0763
30021W        W73115  27.221  32.625  28.300 -0.1098  0.0880  0.0549
30022W        W73116  27.534  34.551  27.693  0.2974 -0.1397  0.2348
30023W        W73117  24.950  34.204  28.461 -0.7090  0.0067  0.1733
30024W        W73118  25.932   0.252  28.256 -0.0718 -0.0869  0.1056
30025W        W73119  28.001  33.906  28.951 -0.0936  0.0059  0.4165
30026W        W73120  30.165   1.780  28.252  0.0884  0.1278 -0.0099
30027W        W73121  28.044  33.017  30.698 -0.1266 -0.0538 -0.2043
30028W        W73122  27.368  33.726  29.617 -0.2580 -0.1151 -0.0252
30029W        W73123  28.799   0.460  27.794  0.2045  0.0081  0.1602
30030W        W73124  29.092   0.076  31.244 -0.2566 -0.0823 -0.0686
30031W        W73125  27.720  33.461  28.776  0.0351 -0.0643  0.0971
30032W        W73126  26.380  33.844  27.504 -0.0955 -0.0446  0.1234
30033W        W73127  28.557  32.850  28.772  0.0182  0.2892  0.0383
30034W        W73128  27.075  31.806  30.610  0.2193 -0.0765  0.0428
30035W        W73129  28.011  31.944  31.567 -0.1172 -0.0854  0.2112
30036W        W73130  26.092  34.155  27.795  0.5657  0.1393  0.4058
30037W        W73131  27.151   0.252  28.299 -0.4407 -0.1040  0.0109
30038W        W73132  26.167  33.618  29.638  0.1081 -0.0921  0.2285
30039W        W73133  26.009  33.024  27.351 -0.1088  0.2003  0.2843
30040W        W73134  26.600   0.647  30.939 -0.0251 -0.2820  0.0626
30041W        W73135  27.845  32.905  29.251 -0.3420  0.0328 -0.1384
30042W        W73136  27.696  32.336  26.521 -0.0797  0.1016  0.0232
30043W        W73137  28.909  32.485  28.901  0.1263 -0.4690  0.0118
30044W        W73138  29.287  32.850  28.350  0.1569  0.0476 -0.0861
30045W        W73139  28.622  32.521  29.915 -0.2443  0.4294 -0.5389
30046W        W73140  29.177  33.825  27.014  0.0150 -0.0642  0.0473
30047W        W73141  28.515   0.627  29.996  0.2447 -0.1043 -0.1226
30048W        W73142  26.383  33.140  30.256  0.2739  0.0515  0.0464
30049W        W73143  28.362  32.823  27.423 -0.0800  0.0960 -0.0187
30050W        W73144  27.709  33.538  30.612 -0.1779 -0.1985  0.2258
30051W        W73145  26.536  31.764  28.830 -0.2740 -0.1246  0.0394
30052W        W73146  28.464  33.550  29.424  0.0878 -0.0604  0.0314
30053W        W73147  26.256  34.080  30.807 -0.3407  0.3105  0.4807
30054W        W73148  25.656  32.428  28.615 -0.3612 -0.0327  0.0906
30055W        W73149  26.563  32.767  31.266  0.2470  0.2861  0.0289
30056W        W73150  26.678  32.987  29.665  0.2358 -0.1707 -0.0014
30057W        W73151  27.769  34.202  29.428  0.2087 -0.0604  0.0337
30058W        W73152  25.493  33.792  28.608 -0.3302 -0.1944  0.2785
30059W        W73153  29.020  33.855  28.106  0.0848  0.1775 -0.1065
30060W        W73154  27.257  33.635  27.892 -0.1961 -0.0802  0.2275
30061W        W73155  28.621  33.588  29.916 -0.1803 -0.1102  0.0793
30062W        W73156  26.956  34.097   0.062 -0.0067  0.1303  0.2373
30063W        W73157  25.459  33.626  27.131  0.1835  0.0806  0.1469
30064W        W73158  26.116  33.143  28.380  0.1247 -0.0254  0.0624
30065W        W73159  28.258  31.548  30.754  0.3713  0.0081  0.1734
30066W        W73160  25.955  33.677  28.370  0.0953 -0.0519  0.2640
30067W        W73161  26.504  33.215  27.381 -0.0549  0.1540  0.1627
30068W        W73162  25.501  33.778  28.118  0.1469  0.2740 -0.0528
30069W        W73163  29.017  32.851  29.337  0.3479 -0.0065  0.0210
30070W        W73164  26.692  33.720  30.889  0.1060 -0.2079 -0.2861
30071W        W73165  28.079  34.392  28.972 -0.1490  0.1479  0.0238
30072W        W73166  25.091  34.037  27.710 -0.1173  0.2306 -0.0551
30073W        W73167  27.472  32.137  28.539 -0.1249  0.3353  0.1929
30074W        W73168  29.116  32.465  29.623  0.0959 -0.0231 -0.0714
30075W        W73169  27.646   0.135  28.414 -0.4685  0.0667 -0.1917
30076W        W73170  26.488  32.104  26.570  0.0335 -0.2839 -0.1057
30077W        W73171  26.719   0.113  26.649 -0.3311  0.1504  0.1934
30078W        W73172  28.939  31.333  30.213 -0.1298 -0.2007 -0.2798
30079W        W73173  27.023  33.324  27.531  0.1272 -0.1703 -0.2505
30080W        W73174  25.101  33.688  28.386  0.2042  0.1850 -0.2179
30081W        W73175  28.639  32.411  29.445  0.0642 -0.0973  0.2854
30082W        W73176  27.198  32.432  30.377 -0.0727 -0.2932  0.2378
30083W        W73177  28.420  32.075  28.943  0.1720  0.0277  0.0571
30084W        W73178  29.266   0.152  30.468  0.4005 -0.0546  0.1252
30085W        W73179  28.235  34.106  28.495 -0.1190  0.2349  0.2195
30086W        W73180  28.587  34.503  29.352  0.1316 -0.1906  0.1137
30087W        W73181  26.156  32.638  27.629 -0.0179  0.1496 -0.0898
30088W        W73182  28.183  33.658  30.721 -0.2488 -0.1872  0.0462
30089W        W73183  27.486  32.685  31.910  0.1146 -0.0319 -0.0082
30090W        W73184  27.797  32.316  27.498  0.3375 -0.1368 -0.3112
30091W        W73185  27.734  32.260  30.344  0.1121  0.0330 -0.1000
30092W        W73186  29.122  32.005  30.842  0.3429 -0.0351  0.0955
30093W        W73187  25.673  33.291  28.202  0.0344  0.1272  0.2302
30094W        W73188  24.828  33.591  29.232 -0.1567  0.0300 -0.6760
30095W        W73189  27.477  32.941  28.602 -0.2356  0.0304 -0.2347
30096W        W73190  27.595  32.463  29.476 -0.3328 -0.2151  0.2264
30097W        W73191  27.851  31.183  30.751 -0.0254 -0.1392  0.2197
30098W        W73192  27.838   0.161  28.910  0.1620  0.2199 -0.0189
30099W        W73193  27.701  32.657  27.815 -0.0283 -0.1509  0.1383
30100W        W73194  28.193  34.335  30.304  0.3302 -0.1779  0.0834
30101W        W73195  25.461   0.139  28.251 -0.2478 -0.1896  0.1698
30102W        W73196  28.056  33.074  29.697  0.3164 -0.0961 -0.0192
30103W        W73197  26.266  34.139  28.276  0.1960  0.0173 -0.0430
30104W        W73198  25.667  34.632  27.846 -0.0442  0.2816 -0.0809
30105W        W73199  25.394  33.534  30.325  0.0807 -0.4411  0.0166
30106W        W73200  27.141  34.653  29.199 -0.1402 -0.2620  0.0914
30107W        W73201  27.079  32.838  27.392 -0.0103 -0.2398  0.0504
30108W        W73202  27.077   0.066  30.092  0.1769 -0.0364 -0.4428
30109W        W73203  27.230  33.658  28.754 -0.0377  0.1036  0.0749
30110W        W73204  28.434  31.933  29.407  0.1459 -0.1262  0.1480
30111W        W73205  28.277  34.163  30.926  0.1923  0.0391  0.4223
30112W        W73206  26.770  33.409  28.778  0.3573  0.0831 -0.3269
30113W        W73207  28.777  33.463  28.476 -0.0812 -0.0874 -0.1192
30114W        W73208  28.970  33.432  29.549  0.1182  0.0791 -0.3392
30115W        W73209  28.606  34.083  31.947 -0.1342 -0.2398 -0.2482
30116W        W73210  27.649   0.282  27.907  0.4663 -0.1335  0.0687
30117W        W73211  29.322  31.473  31.526 -0.1086  0.1782  0.2933
30118W        W73212  27.055  33.431  30.693 -0.1537 -0.3364  0.1257
30119W        W73213  26.059  32.409  31.262 -0.3426 -0.0120  0.0824
30120W        W73214  27.445  33.757  30.218 -0.0322  0.0223  0.1542
30121W        W73215  27.684  32.825  27.320 -0.4284  0.2165 -0.2161
30122W        W73216  24.289  32.465  27.404  0.1549  0.1319  0.0119
30123W        W73217  25.735   0.476  28.718  0.0564  0.0128 -0.2970
30124W        W73218  27.514  33.324  29.251  0.1878  0.0058  0.1619
30125W        W73219  26.802   0.296  28.643  0.0117  0.0211  0.3958
30126W        W73220  27.357   0.660  27.468 -0.0461 -0.2603 -0.0255
30127W        W73221  27.003  32.300  29.409 -0.1877 -0.0393 -0.0135
30128W        W73222  25.590  33.119  27.711  0.1597  0.2228  0.1653
30129W        W73223  27.372  31.930  30.261  0.0182  0.0417 -0.2428
30130W        W73224  28.718  34.413  31.011  0.1824 -0.2501 -0.1741
30131W        W73225  27.742  34.238  29.985 -0.1234  0.1110  0.1579
30132W        W73226  27.057  33.512  30.013  0.0807 -0.0908  0.1559
30133W        W73227  29.054  34.423  28.656  0.1500  0.2086  0.2597
30134W        W73228  29.868  33.416  30.606  0.1809 -0.0327 -0.2192
30135W        W73229  29.314  34.281  28.069 -0.0538  0.1608 -0.0293
30136W        W73230  27.098  33.111  28.049  0.0843 -0.0746  0.0189
30137W        W73231  27.022  34.125  28.492  0.0037 -0.1346  0.2594
30138W        W73232  27.037  32.854   0.060  0.1539 -0.2306  0.2605
30139W        W73233  26.276  33.695  28.019  0.0274 -0.5629  0.1134
30140W        W73234  28.705  34.047  30.693  0.2327  0.0611  0.0850
30141W        W73235  27.075  32.806  30.034 -0.1612 -0.3122 -0.2029
30142W        W73236  24.624  32.859  28.569 -0.3229 -0.1074  0.1230
30143W        W73237  25.849  33.641  27.814 -0.0810 -0.2321 -0.2061
30144W        W73238  25.855  34.159  28.705  0.1719 -0.0364  0.0011
30145W        W73239  26.935  33.016  28.523  0.4432 -0.0519  0.0300
30146W        W73240  29.225  34.376  30.729  0.0475 -0.3271  0.0342
30147W        W73241  26.451  32.872  28.728  0.3605 -0.0111 -0.0868
30148W        W73242  28.829  32.715  30.311  0.0094  0.0450  0.0444
30149W        W73243  28.885   0.081  30.121 -0.0485  0.2906 -0.0472
30150W        W73244  27.048  33.618  29.214  0.0201  0.3326 -0.0956
30151W        W73245  31.224  33.788  31.061  0.1676  0.0805  0.2065
30152W        W73246  26.677  34.204  30.509  0.2230  0.0762  0.2692
30153W        W73247  27.989  33.488  30.161 -0.0424  0.0194  0.0702
30154W        W73248  26.183  32.540  28.451  0.1961 -0.0158  0.0802
30155W        W73249  27.175  32.574  27.799 -0.3180 -0.3665 -0.2697
30156W        W73250  28.217  33.208  29.001  0.3985 -0.1502  0.1077
30157W        W73251  29.855  34.432  28.569 -0.2806  0.2622 -0.0450
30158W        W73252  29.380  33.250  29.221 -0.1207  0.0939 -0.0021
30159W        W73253  26.417  33.761  28.570  0.0557  0.3706  0.0177
30160W        W73254  26.330  32.177  27.910  0.0160  0.0850 -0.1602
30161W        W73255  26.899  33.624  28.367 -0.0571 -0.0176 -0.1373
30162W        W73256  28.219  32.997  31.155 -0.0975 -0.1511 -0.1896
30163W        W73257  25.433  33.665  29.115  0.0840  0.2190  0.1973
30164W        W73258  26.809  34.531  28.339  0.0743 -0.1513 -0.0255
30165W        W73259  29.044  34.317  30.272 -0.0662 -0.0068  0.1744
30166W        W73260  28.295  34.076  29.409  0.0540 -0.2114  0.2195
30167W        W73261  25.777  31.612  28.215  0.3470 -0.0423  0.2743
30168W        W73262  30.746   0.283  28.299  0.3120 -0.3003  0.3401
30169W        W73263  27.000  32.183  30.915 -0.2377  0.2036  0.1984
30170W        W73264  28.523  32.358  30.450 -0.1719 -0.0878 -0.3632
30171W        W73265  26.778  33.949  28.875 -0.1789  0.1974 -0.1420
30172W        W73266  27.667  33.385  29.787  0.1283  0.0345 -0.2220
30173W        W73267  25.945  33.739  28.966  0.1301  0.1083 -0.0293
30174W        W73268  26.841   1.631  27.578 -0.1619  0.2394  0.2055
30175W        W73269  29.523   1.254   0.068  0.3932 -0.1279  0.0042
30176W        W73270  26.471   0.720  27.763 -0.3319 -0.2920  0.0327
30177W        W73271  26.084  33.140  29.804 -0.1108 -0.0735  0.0593
30178W        W73272  28.003  32.786  28.644 -0.0745  0.4086 -0.2475
30179W        W73273  25.586  34.152  29.163  0.0499  0.0090  0.0185
30180W        W73274  25.912   0.555  29.664 -0.0378 -0.1407  0.1086
30181W        W73275  25.359  34.257  29.801 -0.1506  0.3330  0.1436
30182W        W73276  29.386   0.834  28.654  0.1626 -0.1588  0.2734
30183W        W73277  29.439   0.800  29.148  0.0477  0.0579  0.2189
30184W        W73278  26.441  34.162  29.767 -0.1291  0.0922  0.0539
30185W        W73279  24.930  32.773  28.159 -0.1455  0.0576 -0.0488
30186W        W73280  26.713  32.615  29.095  0.1430 -0.2531  0.1357
30187W        W73281  28.781  33.992  29.475  0.1694 -0.0091  0.0129
30188W        W73282  28.785   0.190  30.773 -0.0622 -0.0037  0.0155
30189W        W73283  28.743  32.822  31.143  0.1412 -0.5147  0.1355
30190W        W73284  27.248  31.561  28.885 -0.0425 -0.1410  0.1207
30191W        W73285  27.124  33.119  28.960 -0.0470  0.0846 -0.0744
30192W        W73286  28.719  33.479  27.955 -0.5049 -0.1001  0.0327
30193W        W73287  29.527  33.004  26.937 -0.3048  0.1710  0.1986
30194W        W73288  28.993   0.616  30.196  0.0920 -0.1349 -0.1133
30195W        W73289  25.020   0.390  27.823  0.1470  0.0439 -0.0628
30196W        W73290  28.809  31.499  31.629 -0.2159  0.1892 -0.2746
30197W        W73291  26.698  33.155  29.231 -0.1590  0.0996 -0.2397
30198W        W73292  26.658  34.222  29.248 -0.1074  0.1200 -0.2572
30199W        W73293  25.947  32.856  28.058 -0.0735  0.2396  0.0043
30200W        W73294  25.575  32.865  29.592  0.0740 -0.2653  0.2341
30201W        W73295  25.197  32.350  28.390 -0.2003  0.2452  0.2618
30202W        W73296  26.882  32.284  28.154 -0.2893  0.1048 -0.1008
30203W        W73297  27.150  34.693  31.046 -0.0415 -0.0332  0.2948
30204W        W73298  27.549  32.736  30.550  0.1223  0.0562  0.3881
30205W        W73299  25.832  34.377  28.252 -0.1768 -0.2177  0.0333
30206W        W73300  28.460  33.756  28.991 -0.1392  0.1284  0.3312
30207W        W73301  27.532  33.172  30.912  0.1580 -0.1755  0.0659
30208W        W73302  28.804  32.033  27.983  0.0527 -0.0465 -0.1520
30209W        W73303  27.895   1.100  27.630 -0.0769 -0.1326  0.0439
30210W        W73304  27.101  32.793  29.337  0.0770  0.2832 -0.0558
30211W        W73305  26.736  32.437  28.626 -0.1074 -0.3869  0.2002
30212W        W73306  27.279  33.131  27.062 -0.0950  0.1024 -0.0589
30213W        W73307  26.521  33.699  29.290 -0.0093 -0.0636 -0.0558
30214W        W73308  27.418  31.983  28.043 -0.0813 -0.0830  0.1588
30215W        W73309  27.877  34.369  31.189 -0.2933 -0.2701  0.1608
30216W        W73310  26.999  34.661  27.882 -0.2164 -0.1835 -0.2029
30217W        W73311  28.861   0.913  27.835  0.0190 -0.0478  0.0168
30218W        W73312  26.058  31.463  29.609 -0.2602  0.0556  0.2945
30219W        W73313  26.296  34.155  28.851 -0.1039 -0.0574 -0.0148
30220W        W73314  25.964  34.486  29.127  0.1212 -0.1541 -0.0864
30221W        W73315  28.704   0.005  28.445  0.2607 -0.0630  0.1450
30222W        W73316  27.660  31.999  29.836 -0.1547  0.0433 -0.1402
30223W        W73317  28.801  31.210  28.504  0.1699  0.1063 -0.1672
30224W        W73318  29.539   0.003  29.791  0.0161 -0.0574 -0.0734
30225W        W73319  27.376  33.735  30.934 -0.1225 -0.1287  0.0756
30226W        W73320  26.663   0.126  31.144 -0.0175 -0.0658  0.2809
30227W        W73321  28.306  34.639  30.898  0.1789 -0.1109  0.1053
30228W        W73322  27.586  31.847  31.260  0.4244  0.3831  0.2260
30229W        W73323  28.542  33.618  31.806  0.0123  0.1826 -0.0788
30230W        W73324  26.809  31.702  31.041  0.1846  0.0237 -0.2124
30231W        W73325  28.634  34.591  31.747  0.1047  0.0868 -0.0412
30232W        W73326  24.523  32.663   0.274  0.2139 -0.0382  0.3524
30233W        W73327  25.220  34.681  31.645 -0.0754  0.2189  0.0154
30234W        W73328  27.874  33.965  30.346 -0.0447 -0.3401  0.0052
30235W        W73329  28.638  34.495  30.489  0.2067 -0.0815  0.2433
30236W        W73330  27.502  32.342  31.357 -0.3104 -0.1786  0.1275
30237W        W73331  27.745  32.788  31.073 -0.0237  0.0149  0.4115
30238W        W73332  27.557  33.381   0.769 -0.1255  0.0561 -0.1013
30239W        W73333  26.955  33.186  31.159  0.2334 -0.1529  0.4562
30240W        W73334  26.870  33.967  29.629 -0.1577 -0.1155 -0.4020
30241W        W73335  27.837  32.540  29.900  0.0678 -0.1880 -0.4094
30242W        W73336  27.369  33.242  30.368 -0.3458  0.2568  0.1087
30243W        W73337  26.646  33.804  30.106 -0.1351 -0.0470  0.0814
30244W        W73338  27.773  33.556   0.236  0.0152 -0.0988  0.0834
30245W        W73339  28.437  33.406  31.369 -0.1220 -0.1289 -0.1210
30246W        W73340  27.913  31.485  31.171  0.1016 -0.2307 -0.4160
30247W        W73341  27.535  34.394   0.547  0.0555 -0.1616  0.0584
30248W        W73342  26.827  34.589  29.589 -0.0944  0.0847  0.1719
30249W        W73343  26.252  34.097   0.018  0.2014  0.2412  0.1270
30250W        W73344  28.023  31.942   0.256  0.1653  0.1274 -0.3265
30251W        W73345  28.405  33.203  30.359 -0.0694  0.1490 -0.0909
30252W        W73346  27.236  34.353  30.433 -0.0699 -0.0377  0.1069
30253W        W73347  27.823  33.986  30.826  0.1280 -0.1077 -0.1959
30254W        W73348  27.416   0.414  30.226  0.1263  0.1152 -0.0639
30255W        W73349  25.825   0.140  31.700 -0.0805  0.1024 -0.5445
30256W        W73350  24.716  34.341  31.760  0.0218 -0.1659  0.4104
30257W        W73351  29.892  33.705   0.392 -0.4345  0.1458 -0.0109
30258W        W73352  29.796   2.835  19.179 -0.1194 -0.0101 -0.2388
30259W        W73353  29.738   1.561  16.006  0.0604  0.1123  0.0469
30260W        W73354  31.439   0.929  17.105  0.1373 -0.0539  0.0917
30261W        W73355  33.694   3.883  16.358 -0.1678  0.1039 -0.0187
30262W        W73356  30.446   0.770  17.958  0.0839 -0.0707 -0.0937
30263W        W73357  32.587   3.199  18.878  0.1681 -0.0169  0.1720
30264W        W73358  29.045  33.637  18.703  0.0608 -0.1189 -0.1830
30265W        W73359  31.778   2.666  16.509 -0.0175  0.0161 -0.0558
30266W        W73360  32.879   2.692  19.079  0.2194  0.1606  0.0032
30267W        W73361  32.167   2.432  16.358 -0.2384 -0.1703 -0.2066
30268W        W73362  31.325   1.483  18.614  0.1913 -0.0633 -0.0545
30269W        W73363  30.359   1.757  18.663  0.0722 -0.3739  0.0430
30270W        W73364  30.622  34.482  17.475  0.1029  0.2172 -0.0196
30271W        W73365  28.055  33.936  17.960 -0.2892 -0.3036 -0.2400
30272W        W73366  32.669   2.146  19.284 -0.1062  0.3642 -0.0961
30273W        W73367  29.551   2.391  16.889  0.4204 -0.0371 -0.3014
30274W        W73368  29.431   1.959  18.897  0.0958  0.0817  0.2982
30275W        W73369  30.056   1.890  17.792 -0.0937  0.0020  0.1298
30276W        W73370  32.150   3.232  18.650  0.1147 -0.1633 -0.0448
30277W        W73371  29.484   1.212  18.241 -0.1876  0.0082 -0.0618
30278W        W73372  31.819   0.259  19.672  0.2577 -0.0090 -0.0381
30279W        W73373  30.416   4.393  18.564  0.2180 -0.2390 -0.1902
30280W        W73374  30.585   1.629  16.301 -0.1394 -0.1403  0.1233
30281W        W73375  28.747   0.816  18.572  0.1157  0.1048  0.0627
30282W        W73376  29.347   2.732  19.454  0.0034  0.0118  0.0790
30283W        W73377  31.302  34.662  17.838 -0.1060 -0.0706  0.0554
30284W        W73378  32.481   1.206  18.314 -0.0378 -0.1184 -0.0025
30285W        W73379  31.366   3.007  18.113  0.0389  0.2641  0.1905
30286W        W73380  29.403   2.303  18.349  0.1709 -0.0452  0.1435
30287W        W73381  30.842   1.566  20.441  0.1360  0.1392  0.0347
30288W        W73382  29.252   3.321  16.709 -0.1046 -0.1758  0.0702
30289W        W73383  29.203   3.008  18.220  0.1561 -0.0953 -0.1250
30290W        W73384  29.950   2.651  17.785 -0.5892  0.0495 -0.0961
30291W        W73385  33.274   2.988  17.174  0.0018 -0.0896 -0.0242
30292W        W73386  30.204   2.972  20.780 -0.3131 -0.0264 -0.1492
30293W        W73387  30.068   3.301  19.297  0.3321 -0.1775  0.1109
30294W        W73388  29.489   2.880  16.994  0.0877  0.3670 -0.3649
30295W        W73389  32.185   4.032  19.357  0.0587 -0.2817 -0.1040
30296W        W73390  30.806   2.405  20.373  0.3355  0.2416  0.0701
30297W        W73391  31.582   0.896  18.314  0.1791  0.3522  0.2598
30298W        W73392  31.836   1.530  17.136 -0.1772  0.1693 -0.0306
30299W        W73393  30.213   2.492  16.936  0.2854  0.0870  0.1392
30300W        W73394  31.251   2.660  16.608  0.0336 -0.1063  0.2247
30301W        W73395  30.343   1.992  19.217  0.0613  0.0077 -0.0266
30302W        W73396  30.216   3.464  18.800  0.1078 -0.1446 -0.2254
30303W        W73397  32.912  34.263  21.054  0.2165  0.0374  0.2029
30304W        W73398  30.688   3.449  16.486 -0.0274  0.0469  0.0336
30305W        W73399  32.322   1.336  17.749  0.3977  0.0958  0.3845
30306W        W73400  30.892   1.736  16.916  0.2859  0.3972 -0.0206
30307W        W73401  32.328   1.430  17.277  0.1632  0.4171 -0.0905
30308W        W73402  29.600   0.438  17.779  0.0302 -0.1711  0.1272
30309W        W73403  30.547   1.802  18.105  0.2486 -0.1511 -0.3444
30310W        W73404  30.101  34.583  18.586 -0.1677  0.3209 -0.2255
30311W        W73405  33.595   3.497  19.350  0.1921 -0.2239 -0.0667
30312W        W73406  32.559   0.999  17.375 -0.2232  0.0954  0.1527
30313W        W73407  31.666   1.897  19.358 -0.0873  0.2210 -0.0075
30314W        W73408  28.737   4.334  18.899  0.0917 -0.0690 -0.1056
30315W        W73409  28.046   1.388  18.305  0.1736  0.0072  0.2663
30316W        W73410  31.728   3.488  16.883  0.0236  0.2490 -0.0258
30317W        W73411  32.334   3.284  16.144  0.2328 -0.0498  0.1892
30318W        W73412  31.022   2.902  15.838  0.0666 -0.0472 -0.3321
30319W        W73413  29.044   1.585  17.080 -0.1105  0.2926  0.0525
30320W        W73414  27.674   2.971  19.776  0.0250 -0.2158 -0.2231
30321W        W73415  29.851   2.690  20.411 -0.0281 -0.2746 -0.2493
30322W        W73416  30.432   0.549  16.649  0.2352  0.3269 -0.0290
30323W        W73417  31.827   3.949  20.221  0.2988 -0.1188 -0.0900
30324W        W73418  30.529   2.575  20.011 -0.1821  0.2257 -0.0471
30325W        W73419  31.724   0.200  18.378 -0.2220  0.2148 -0.1737
30326W        W73420  31.647   2.886  17.013  0.0088 -0.0467 -0.1148
30327W        W73421  31.529   2.442  19.359 -0.0606 -0.3338  0.1310
30328W        W73422  32.994   1.995  16.275  0.0344 -0.1376  0.0780
30329W        W73423  30.410   0.347  18.621  0.0399  0.2696 -0.0161
30330W        W73424  31.769  34.514  18.045  0.2186 -0.0712 -0.0285
30331W        W73425  30.447   2.782  17.256 -0.0477  0.0934 -0.0416
30332W        W73426  31.453   1.938  17.059  0.0651 -0.1093 -0.0856
30333W        W73427  33.477   1.763  19.517  0.0905  0.2014  0.0215
30334W        W73428  32.159   1.487  16.206  0.3120 -0.0634 -0.1128
30335W        W73429  31.294   1.902  18.213  0.2509 -0.2122 -0.2787
30336W        W73430  31.587   1.587  20.019  0.7484  0.4036  0.1496
30337W        W73431  30.493   3.444  20.437  0.3216  0.0036 -0.0746
30338W        W73432  30.215   2.355  17.442 -0.4046  0.0148 -0.4255
30339W        W73433  30.569   1.950  17.593 -0.0156  0.0650 -0.0862
30340W        W73434  28.734   1.330  17.355 -0.1594 -0.0919  0.3305
30341W        W73435  28.754   0.013  20.266  0.3153 -0.0874  0.0945
30342W        W73436  30.733   2.541  18.216  0.0292  0.0115 -0.1352
30343W        W73437  31.694  34.474  16.531 -0.0105 -0.2752  0.0593
30344W        W73438  28.268  33.928  18.488 -0.1089 -0.1065  0.1036
30345W        W73439  31.158   0.394  18.129 -0.1087 -0.0968 -0.0379
30346W        W73440  30.069   1.794  16.300 -0.1334  0.3475 -0.1854
30347W        W73441  31.558   4.462  17.908  0.1396 -0.0663 -0.1799
30348W        W73442  34.313   1.188  16.230 -0.0050  0.1082  0.0519
30349W        W73443  32.808   2.968  16.134 -0.0801  0.2477 -0.0530
30350W        W73444  28.928   2.096  19.195  0.0523 -0.0970 -0.0168
30351W        W73445  29.493   0.862  16.788 -0.0281  0.0265  0.4957
30352W        W73446  31.217   1.701  19.143  0.2967 -0.1102 -0.2881
30353W        W73447  28.701  34.325  19.283  0.1369  0.2827 -0.1470
30354W        W73448  32.245   1.652  18.689 -0.1291  0.0694 -0.0357
30355W        W73449  30.210   0.556  15.772  0.0126 -0.1241  0.0945
30356W        W73450  30.977   0.761  19.492 -0.0509 -0.1000 -0.2747
30357W        W73451  29.779   1.637  17.376  0.0802  0.0276 -0.0440
30358W        W73452  28.214   2.439  17.385 -0.1302 -0.1316  0.0094
30359W        W73453  33.107   0.143  18.879  0.0709 -0.1839 -0.0049
30360W        W73454  33.102   3.610  18.201  0.2196 -0.1925  0.0224
30361W        W73455  33.548   2.902  20.442 -0.2101 -0.1958 -0.0391
30362W        W73456  33.136   2.461  17.474 -0.1145  0.3438  0.0905
30363W        W73457  30.655   1.586  19.009  0.1724  0.1111 -0.0758
30364W        W73458  28.926   0.027  16.386 -0.0597 -0.1627 -0.2087
30365W        W73459  29.175   3.977  17.665  0.0283  0.1165 -0.0017
30366W        W73460  31.694   0.551  17.349 -0.1226  0.1063 -0.0296
30367W        W73461  30.912   0.760  16.672 -0.1591 -0.1495 -0.5439
30368W        W73462  32.393   2.611  19.020 -0.2637  0.1668  0.1616
30369W        W73463  31.944   3.673  17.949  0.0398 -0.1256 -0.0470
30370W        W73464  30.543   2.988  18.540  0.0328 -0.3053  0.2154
30371W        W73465  31.725   1.100  20.951  0.2295 -0.5406  0.3357
30372W        W73466  31.920   2.444  19.888  0.0648  0.2346  0.0330
30373W        W73467  32.160   3.349  17.131 -0.4004 -0.0517 -0.1758
30374W        W73468  29.679  34.054  17.684  0.0499 -0.0928  0.0883
30375W        W73469  31.121   3.266  19.190  0.3039 -0.2134 -0.1255
30376W        W73470  30.232   3.702  16.548 -0.2792 -0.0060  0.0588
30377W        W73471  28.823   1.805  17.561  0.0023 -0.0410  0.2761
30378W        W73472  31.405   3.319  17.223  0.0366 -0.0056 -0.0287
30379W        W73473  31.427  34.326  18.603 -0.2944  0.0408  0.3104
30380W        W73474  29.800   2.423  19.604  0.0797  0.0697 -0.0656
30381W        W73475  32.100   0.681  19.669 -0.1364  0.0037 -0.0238
30382W        W73476  29.514   1.884  17.050  0.1755  0.1638 -0.3252
30383W        W73477  31.002   2.806  20.132  0.6035  0.0345  0.4103
30384W        W73478  30.095   0.379  16.958  0.0707 -0.0010  0.2310
30385W        W73479  33.759   0.446  16.660 -0.3588  0.1315  0.1635
30386W        W73480  31.512   2.460  20.533 -0.1170  0.2276 -0.0086
30387W        W73481  31.822   2.543  17.356  0.1523  0.0212 -0.1636
30388W        W73482  31.386   1.636  17.552 -0.0537 -0.4165 -0.1152
30389W        W73483  30.881  33.309  17.266 -0.2008  0.1399  0.2169
30390W        W73484  30.414   2.291  17.942  0.0115 -0.2259  0.0150
30391W        W73485  31.376   3.486  18.272  0.1260 -0.1574  0.1551
30392W        W73486  29.520   1.438  18.807 -0.1293  0.3720  0.1602
30393W        W73487  31.053   1.417  16.517  0.2585  0.3507 -0.0999
30394W        W73488  32.107   3.067  15.631  0.0263  0.1103  0.1030
30395W        W73489  29.324   1.629  17.519 -0.3687 -0.1204 -0.0656
30396W        W73490  31.231   2.832  19.396 -0.0225 -0.3990 -0.2323
30397W        W73491  30.747   3.326  18.825  0.1336  0.1194  0.0755
30398W        W73492  30.017   0.767  16.538 -0.1040  0.0490  0.1622
30399W        W73493  31.829   2.337  16.855  0.2573  0.0938 -0.1252
30400W        W73494  29.448   0.232  17.335  0.0423 -0.1092  0.1650
30401W        W73495  29.782   2.485  17.299  0.0442  0.2046 -0.0085
30402W        W73496  31.667  33.941  18.729  0.1095 -0.2043  0.2890
30403W        W73497  31.254   0.662  18.613 -0.4483  0.3246  0.1470
30404W        W73498  29.719  34.247  19.698 -0.2075 -0.1586  0.3069
30405W        W73499  32.705   1.366  19.411  0.0251 -0.0164  0.1096
30406W        W73500  32.594   0.431  17.503  0.2537  0.0262 -0.3029
30407W        W73501  32.317   1.816  17.542 -0.0250 -0.0470 -0.0057
30408W        W73502  30.318   1.416  15.966  0.1015  0.0106  0.1131
30409W        W73503  31.080  34.530  18.267  0.0600 -0.1864 -0.2116
30410W        W73504  29.484   2.461  17.896  0.0467  0.1731  0.1876
30411W        W73505  28.438   4.922  20.214 -0.0047 -0.0159  0.3024
30412W        W73506  33.504   3.095  19.644 -0.1582  0.0803 -0.0329
30413W        W73507  31.529   3.901  17.928  0.0807  0.2653 -0.0572
30414W        W73508  31.612   1.877  20.541 -0.1240  0.1068  0.3285
30415W        W73509  29.815   0.705  17.169  0.1696  0.2067  0.0924
30416W        W73510  31.788   3.540  17.409 -0.0256  0.3316 -0.0760
30417W        W73511  31.075   1.997  17.368 -0.1977 -0.2555 -0.1833
30418W        W73512  29.750  34.565  17.815  0.1311 -0.1288  0.1122
30419W        W73513  29.473   3.937  18.660 -0.2331 -0.1385 -0.1318
30420W        W73514  31.561   3.149  16.494 -0.0948  0.1455  0.1417
30421W        W73515  31.281   2.203  19.051  0.0151 -0.0849 -0.0626
30422W        W73516  30.976   3.494  17.316 -0.0077 -0.4679 -0.2755
30423W        W73517  31.128  34.207  19.451  0.0963 -0.4710 -0.1881
30424W        W73518  29.943   3.700  18.058  0.2703 -0.4483 -0.3175
30425W        W73519  30.396   1.298  16.944  0.0016  0.2956  0.1407
30426W        W73520  29.325   1.187  17.720  0.1458  0.1299  0.1870
30427W        W73521  31.531   0.821  17.804 -0.2322 -0.0365  0.0459
30428W        W73522  31.647   1.552  16.279 -0.2588  0.1812 -0.0354
30429W        W73523  29.930   1.663  16.799 -0.1443  0.3111 -0.2070
30430W        W73524  30.782   1.529  17.371  0.2545 -0.0486 -0.1336
30431W        W73525  29.646   4.365  18.300 -0.3453  0.0167 -0.0653
30432W        W73526  31.326   1.049  19.191 -0.0063 -0.0738 -0.0962
30433W        W73527  32.235   1.520  16.707 -0.1249 -0.0442  0.0387
30434W        W73528  32.982   3.082  19.812  0.1054 -0.0885  0.1140
30435W        W73529  30.087   1.616  18.194  0.2494  0.2225  0.2372
30436W        W73530  29.885   1.147  16.836 -0.0567  0.0849 -0.4259
30437W        W73531  31.907   2.788  18.627  0.2279  0.1316  0.1864
30438W        W73532  30.336   0.783  17.093  0.2108  0.1080 -0.2842
30439W        W73533  30.095   3.174  18.244  0.1534  0.0380 -0.1323
30440W        W73534  30.672   2.441  19.209  0.0570  0.1659  0.2970
30441W        W73535  29.510   0.654  16.363 -0.1313  0.1605  0.2854
30442W        W73536  29.895   2.320  18.159  0.0006 -0.1063 -0.1728
30443W        W73537  30.382   1.456  19.410 -0.0620 -0.2359 -0.2574
30444W        W73538  30.973   1.646  17.859  0.2184  0.4269  0.1727
30445W        W73539  30.907   1.179  16.977  0.0769 -0.2715 -0.1350
30446W        W73540  29.014  34.125  16.368 -0.2597 -0.1796  0.1138
30447W        W73541  30.918   2.208  17.867  0.0395  0.1507 -0.0038
30448W        W73542  30.770   3.520  20.015  0.0943 -0.0960 -0.0441
30449W        W73543  32.357   1.251  19.015 -0.2020  0.0476  0.2567
30450W        W73544  30.571   3.977  20.271 -0.1827  0.1175 -0.1184
30451W        W73545  30.468  33.568  18.162  0.2136 -0.0391  0.0605
30452W        W73546  33.302   3.625  16.147  0.4052  0.0883 -0.0012
30453W        W73547  31.503   3.223  19.647  0.1328  0.2866 -0.0955
30454W        W73548  29.550   1.749  16.443 -0.0468 -0.4236 -0.2263
30455W        W73549  28.823   4.574  18.295 -0.0990 -0.1208 -0.0257
30456W        W73550  30.693   2.905  16.693  0.2165 -0.1378  0.2245
30457W        W73551  30.375   1.215  18.906 -0.0512 -0.0716  0.0229
30458W        W73552  29.874   1.848  18.585 -0.0169 -0.0426 -0.0814
30459W        W73553  29.231   2.614  17.354  0.0100 -0.0832  0.0517
30460W        W73554  30.077   2.936  18.718 -0.1027  0.2686  0.0071
30461W        W73555  32.681   1.254  16.749  0.1525 -0.0964 -0.3917
30462W        W73556  32.688   1.860  16.766 -0.1510  0.0614  0.2002
30463W        W73557  31.059   0.090  17.249  0.1335 -0.0645 -0.1686
30464W        W73558  32.766   0.859  19.851 -0.0547 -0.1232 -0.0499
30465W        W73559  33.099   1.082  16.982  0.0310  0.4805 -0.0417
30466W        W73560  30.902   1.257  20.853  0.1887  0.0404  0.2612
30467W        W73561  31.093   1.966  20.186  0.2849 -0.0150 -0.5096
30468W        W73562  32.326   2.752  17.538  0.4329 -0.0254 -0.4123
30469W        W73563  29.937   1.332  18.563  0.2302  0.3343  0.2577
30470W        W73564  31.767   3.536  21.012 -0.1916  0.2856  0.0550
30471W        W73565  30.761   2.586  22.084 -0.0890  0.2216 -0.2225
30472W        W73566  31.760   0.183  17.002 -0.1325  0.0125  0.0702
30473W        W73567  29.172   0.081  16.857  0.3493  0.2076 -0.0480
30474W        W73568  31.102   1.035  18.319  0.1305  0.2433 -0.0378
30475W        W73569  32.307   2.657  19.507 -0.1703  0.0585 -0.2703
30476W        W73570  31.154   3.125  16.853 -0.1533  0.3015  0.4121
30477W        W73571  32.744   2.581  17.169  0.0562 -0.1071  0.0526
30478W        W73572  29.571   1.929  18.066 -0.0736 -0.1232 -0.3367
30479W        W73573  33.160   1.435  18.734  0.4642  0.0565 -0.1772
30480W        W73574  30.898   2.450  16.864  0.4454 -0.2450 -0.0864
30481W        W73575  29.960   2.035  17.161 -0.1071  0.0976  0.1444
30482W        W73576  30.799   1.135  19.821 -0.2258  0.3178  0.0443
30483W        W73577  31.858   1.647  17.779 -0.1215  0.1825 -0.1098
30484W        W73578  31.895   1.207  17.587 -0.0258  0.3977 -0.0841
30485W        W73579  31.735   0.379  17.816  0.1887  0.0129  0.0133
30486W        W73580  31.519   2.131  19.991  0.1204  0.0535 -0.2347
30487W        W73581  29.860   2.083  19.232 -0.0083 -0.0651  0.0329
30488W        W73582  30.039   0.715  20.760  0.0161 -0.3650  0.1942
30489W        W73583  31.399   3.461  20.128 -0.0864  0.1019  0.0641
30490W        W73584  31.678   1.221  16.762 -0.0039  0.1863  0.1382
30491W        W73585  31.945   1.114  18.617 -0.1029 -0.2836 -0.1095
30492W        W73586  32.183   1.908  16.987 -0.0888 -0.2361 -0.0623
30493W        W73587  31.277   2.431  17.182 -0.2987  0.3750 -0.0372
30494W        W73588  29.454   0.923  18.882  0.3315  0.1294 -0.4212
30495W        W73589  31.860   2.835  19.631 -0.1677  0.0389  0.2345
30496W        W73590  30.424   1.783  16.767 -0.2576  0.2889 -0.1531
30497W        W73591  32.167   1.701  19.207 -0.4005 -0.2945  0.3084
30498W        W73592  31.265   3.745  16.954  0.1891 -0.1472 -0.3730
30499W        W73593  31.421   2.620  18.903 -0.0423 -0.0994  0.0414
30500W        W73594  32.213   1.606  18.167  0.3435 -0.3124  0.0628
30501W        W73595  28.626   0.494  17.250  0.0041  0.1665  0.2047
30502W        W73596  29.946   3.812  18.573 -0.2146  0.1117  0.0150
30503W        W73597  29.131   1.458  16.348 -0.0026 -0.0826  0.3396
30504W        W73598  31.385   1.783  16.589  0.4503  0.0498  0.0153
30505W        W73599  30.321   2.364  19.626 -0.4368 -0.0011 -0.0588
30506W        W73600  31.925   3.419  20.015  0.1487 -0.0025  0.0407
30507W        W73601  31.520   0.302  16.565  0.1129  0.1221  0.1379
30508W        W73602  32.035   2.093  20.235 -0.1635 -0.1091 -0.1960
30509W        W73603  29.087   3.047  16.357 -0.1045  0.4509 -0.2655
30510W        W73604  30.603   0.501  17.586  0.0409 -0.2432 -0.1682
30511W        W73605  30.291   2.201  18.438 -0.0017  0.0014  0.1369
30512W        W73606  28.845   3.201  19.239 -0.1476 -0.2678  0.0598
30513W        W73607  30.578   3.220  17.514 -0.2201 -0.0705 -0.0756
30514W        W73608  31.494   0.096  20.093 -0.0970  0.1391  0.3092
30515W        W73609  31.909   2.006  18.481  0.1125  0.3240  0.2046
30516W        W73610  31.766   2.022  18.038  0.0217  0.0830 -0.1090
30517W        W73611  32.949   1.051  18.432  0.0044  0.0281 -0.0768
30518W        W73612  30.914   2.869  18.930 -0.3901  0.2160  0.3053
30519W        W73613  31.849   3.156  18.246 -0.0927 -0.0219  0.1579
30520W        W73614  33.275   3.301  20.206 -0.0042  0.1283  0.2374
30521W        W73615  31.418   2.206  17.724  0.1132  0.0716 -0.1690
30522W        W73616  30.289   2.706  18.234  0.3421 -0.1721 -0.1543
30523W        W73617  28.330   1.320  20.045  0.1092 -0.2458 -0.3795
30524W        W73618  30.450   2.933  19.087 -0.1345 -0.3578 -0.3608
30525W        W73619  31.449   3.073  18.659  0.0521 -0.2870  0.1554
30526W        W73620  29.114   0.569  17.020 -0.1416  0.3460 -0.1861
30527W        W73621  32.089   3.179  16.616  0.2255  0.1363  0.1036
30528W        W73622  29.803   3.618  20.883 -0.2911 -0.3742 -0.1759
30529W        W73623  29.695   1.931  19.705 -0.1033 -0.2479 -0.0890
30530W        W73624  28.806   4.213  17.367 -0.0693  0.1876 -0.4520
30531W        W73625  33.472   2.048  16.137  0.1640 -0.0310  0.3662
30532W        W73626  30.789   2.494  17.460  0.0518  0.1028 -0.0301
30533W        W73627  31.916   3.489  19.509 -0.1006  0.4538 -0.3710
30534W        W73628  29.573   1.233  17.235 -0.4585  0.1843 -0.1613
30535W        W73629  30.358   1.462  17.772  0.3414 -0.0553 -0.1508
30536W        W73630  28.999   2.400  16.945 -0.0117  0.1047 -0.1182
30537W        W73631  31.894   3.541  16.323 -0.0638 -0.2395 -0.1085
30538W        W73632  30.575   3.865  19.679 -0.1237 -0.1660  0.1577
30539W        W73633  32.067   2.159  19.397 -0.2255  0.0057 -0.2110
30540W        W73634  32.629   0.321  16.018  0.5606 -0.1189 -0.0326
30541W        W73635  34.232   2.697  17.080 -0.0573  0.0643 -0.0142
30542W        W73636  32.089   0.753  17.606 -0.2969  0.1532 -0.0612
30543W        W73637  30.811   3.884  20.755 -0.2463  0.0973  0.3241
30544W        W73638  30.853   1.653  18.573 -0.0420 -0.0556  0.0640
30545W        W73639  29.362   1.351  16.787  0.2422 -0.0520 -0.0905
30546W        W73640  29.004   2.264  18.706 -0.3505  0.2402 -0.0190
30547W        W73641  33.530   0.654  20.303  0.1724  0.0715 -0.0227
30548W        W73642  30.356   3.145  20.036 -0.0381 -0.1059 -0.1667
30549W        W73643  32.553   3.092  15.220  0.2626 -0.1665 -0.5942
30550W        W73644  29.354   2.246  16.371  0.0617 -0.1500  0.0177
30551W        W73645  30.935   2.115  16.537 -0.1216  0.2274 -0.0990
30552W        W73646  31.600   0.163  19.193 -0.0558 -0.0707 -0.2284
30553W        W73647  30.133   1.303  16.444  0.2099  0.1950 -0.1208
30554W        W73648  32.202   2.476  18.368 -0.0737 -0.3870  0.1254
30555W        W73649  30.409   3.606  17.876 -0.2029  0.0221  0.0805
30556W        W73650  30.856   4.878  19.263 -0.4675 -0.3509  0.0145
30557W        W73651  30.230   1.757  19.838 -0.3567 -0.0451 -0.1721
30558W        W73652  29.752   0.793  18.212  0.1129 -0.1020  0.3850
30559W        W73653  32.377   2.308  16.779  0.0642 -0.1896  0.2471
30560W        W73654  30.702   0.956  19.096 -0.3657 -0.3974  0.0582
30561W        W73655  32.290  34.398  18.724  0.0477  0.2619 -0.2578
30562W        W73656  30.973   2.871  17.271 -0.4121 -0.0330  0.4463
30563W        W73657  32.428   0.449  16.656 -0.1001  0.2287 -0.0328
30564W        W73658  31.129   1.220  17.541 -0.1124 -0.5277  0.0225
30565W        W73659  28.124   0.149  17.591 -0.3322 -0.2437  0.3304
30566W        W73660  30.085   0.364  16.248 -0.1845  0.1798 -0.0251
30567W        W73661  34.595   1.509  18.467 -0.0592  0.1727 -0.3807
30568W        W73662  31.347   1.147  16.158 -0.1251 -0.1977 -0.2097
30569W        W73663  33.123   3.763  19.293  0.3517 -0.0025 -0.1804
30570W        W73664  28.704   1.963  18.298  0.3453 -0.0075 -0.2827
30571W        W73665  31.374   0.816  16.580 -0.1914 -0.2515  0.0090
30572W        W73666  30.049   1.156  18.086 -0.2469  0.0130 -0.0034
30573W        W73667  30.959   1.180  18.793 -0.0924 -0.0240 -0.4289
30574W        W73668  31.126   3.524  19.653  0.2804  0.0903 -0.1685
30575W        W73669  30.588  34.579  18.418  0.1593 -0.0899 -0.2484
30576W        W73670  31.854   3.500  15.730  0.2514  0.0924  0.1482
30577W        W73671  32.641   1.769  17.932  0.3147  0.2009 -0.3140
30578W        W73672  31.579   4.257  16.459  0.1477  0.1226  0.2705
30579W        W73673  30.549   0.994  17.534  0.1575 -0.0917 -0.1331
30580W        W73674  32.637   3.042  19.356 -0.2077  0.2102 -0.1771
30581W        W73675  29.966   0.799  19.488  0.0990 -0.0419 -0.1296
30582W        W73676  32.748   2.271  18.730  0.3668 -0.1415  0.1847
30583W        W73677  33.217   2.390  17.964 -0.2118  0.0852  0.0946
30584W        W73678  30.793  34.499  16.967 -0.0965 -0.1127  0.2649
30585W        W73679  29.733   0.906  17.716 -0.3095 -0.0473  0.1864
30586W        W73680  29.627   4.068  17.811  0.2354 -0.6066  0.1780
30587W        W73681  32.200  34.686  18.270  0.1418  0.2739 -0.0586
30588W        W73682  31.760   1.076  19.801 -0.2149  0.4420  0.1064
30589W        W73683  31.023   3.052  16.312 -0.1169  0.0646 -0.1671
30590W        W73684  32.073   1.362  20.148 -0.1740 -0.1771  0.2435
30591W        W73685  31.273   2.091  19.565  0.0537  0.0344 -0.1155
30592W        W73686  30.706   4.385  20.518 -0.0579 -0.1239  0.0284
30593W        W73687  29.291   2.687  16.591 -0.1532 -0.1964 -0.3068
30594W        W73688  31.290   1.071  19.693 -0.0230 -0.1791 -0.3419
30595W        W73689  31.922   2.984  17.774 -0.0976  0.0148  0.0252
30596W        W73690  30.999   3.317  17.840 -0.1967  0.0415 -0.1762
30597W        W73691  32.721   2.475  18.171 -0.0311  0.1640 -0.0787
30598W        W73692  32.319   0.611  17.139 -0.1392 -0.0402  0.5074
30599W        W73693  30.583   3.174  18.054  0.0708  0.1796  0.3595
30600W        W73694  29.345   0.758  17.465  0.1564 -0.0649 -0.3308
30601W        W73695  32.826   1.238  17.924 -0.1700  0.1304 -0.2024
30602W        W73696  31.391   0.119  18.776 -0.3122 -0.0502  0.1123
30603W        W73697  30.792   1.217  17.930  0.1832  0.1141 -0.0167
30604W        W73698  29.072   1.887  16.710 -0.0773 -0.3171 -0.0105
30605W        W73699  30.651   3.294  17.004 -0.0698 -0.0627 -0.0148
30606W        W73700  30.814   2.042  18.922  0.1838  0.2380  0.0701
30607W        W73701  30.794  34.167  20.224 -0.0551 -0.0180  0.0035
30608W        W73702  30.911   1.282  19.386  0.1768 -0.0822 -0.1322
30609W        W73703  29.631   3.003  17.996  0.1570  0.0260 -0.0713
30610W        W73704  29.630   1.261  16.373  0.0643  0.3892 -0.0914
30611W        W73705  32.180   2.758  17.023  0.2600  0.3055  0.1429
30612W        W73706  29.987   0.281  18.236  0.0436  0.1855  0.2721
30613W        W73707  30.144   2.491  19.036  0.0701  0.1235  0.2340
30614W        W73708  31.284   3.865  17.460 -0.0020  0.0725  0.1432
30615W        W73709  32.506   2.746  16.590 -0.1747 -0.1516 -0.1408
30616W        W73710  29.786  34.612  16.898 -0.1469 -0.3809 -0.1845
30617W        W73711  31.504   4.494  20.957 -0.0871  0.0770  0.3483
30618W        W73712  28.865   2.390  16.463  0.0717 -0.1273 -0.1133
30619W        W73713  30.828   1.057  21.358  0.1177 -0.0783  0.1170
30620W        W73714  29.812   0.338  19.570  0.1916  0.0472 -0.1913
30621W        W73715  28.579   0.669  16.707  0.1780 -0.0519  0.0927
30622W        W73716  32.472   0.334  19.546  0.2969  0.0335 -0.2299
30623W        W73717  30.815   2.085  18.400 -0.1609 -0.0700  0.1271
30624W        W73718  31.437   2.806  16.177 -0.0252 -0.0688 -0.1603
30625W        W73719  31.604   2.371  18.400  0.0716  0.0478  0.1763
30626W        W73720  30.601   2.904  20.439 -0.2883 -0.0328  0.0491
30627W        W73721  30.639   0.656  19.903  0.0924 -0.2382  0.3391
30628W        W73722  32.079   1.098  18.055  0.1691 -0.4455 -0.1082
30629W        W73723  29.990   1.643  19.079 -0.0914 -0.0516 -0.0074
30630W        W73724  32.863   4.012  16.900  0.1143  0.3335 -0.2003
30631W        W73725  31.354   1.286  17.957 -0.3163  0.1678  0.3892
30632W        W73726  31.489   2.286  16.409  0.2371  0.0204  0.3647
30633W        W73727  29.603   0.656  20.435  0.1432  0.0977  0.3349
30634W        W73728  29.329   2.670  18.685 -0.2762 -0.1128 -0.1705
30635W        W73729  31.591   3.075  19.193  0.0694 -0.2174 -0.0795
30636W        W73730  30.631   0.843  18.582  0.1547  0.0158 -0.0824
30637W        W73731  31.092   0.414  16.344  0.3028 -0.1702 -0.0243
30638W        W73732  31.858   3.075  16.098  0.2638 -0.1319  0.0403
30639W        W73733  28.502   2.227  18.778  0.0127 -0.0732 -0.0854
30640W        W73734  31.301   1.468  17.097 -0.0915  0.0749  0.0434
30641W        W73735  31.460   1.937  18.693  0.0173  0.6103  0.3340
30642W        W73736  30.561   2.495  18.754  0.2012 -0.0382  0.3363
30643W        W73737  31.899   2.677  19.113 -0.0631  0.1837  0.1701
30644W        W73738  30.562   2.160  17.073 -0.4568 -0.0160  0.2732
30645W        W73739  33.783   2.858  16.330  0.1021 -0.0957 -0.0344
30646W        W73740  32.101   3.110  19.224 -0.1984 -0.1211 -0.0306
30647W        W73741  32.693   3.189  20.363  0.1800 -0.1485 -0.1108
30648W        W73742  30.724   2.803  19.605  0.0429 -0.1152  0.0654
30649W        W73743  32.347   2.944  18.036  0.0229 -0.0208  0.1421
30650W        W73744  29.660  34.452  18.340 -0.1590  0.0455 -0.0463
30651W        W73745  30.299   1.654  17.282 -0.0597 -0.3500 -0.0942
30652W        W73746  31.428   2.841  17.547  0.0565  0.0936  0.0618
30653W        W73747  32.714   1.619  18.445  0.1093  0.1132 -0.0087
30654W        W73748  30.949   0.285  18.616  0.0682  0.1356  0.0686
30655W        W73749  31.533   0.057  17.386  0.1694 -0.1279 -0.0270
30656W        W73750  30.811   1.887  19.402 -0.2130 -0.2532  0.2390
30657W        W73751  31.787   1.577  18.897 -0.1217 -0.1734  0.2595
30658W        W73752  31.453   3.017  22.406 -0.1127  0.1589 -0.2247
30659W        W73753  30.857   2.235  21.286 -0.1886 -0.1309 -0.0834
30660W        W73754  31.909   1.104  19.175  0.0997 -0.0337 -0.1986
30661W        W73755  32.695   1.889  20.729 -0.2132 -0.0464 -0.1363
30662W        W73756  29.637   1.898  21.560 -0.0515  0.0978 -0.1724
30663W        W73757  31.564   2.722  20.984 -0.2939 -0.0729 -0.0939
30664W        W73758  29.822   0.209  23.194 -0.0687  0.0428  0.1126
30665W        W73759  31.951   3.711  22.652 -0.0593 -0.0384 -0.1662
30666W        W73760  32.574   2.929  22.439  0.0131 -0.3174  0.0275
30667W        W73761  30.753   1.642  19.913 -0.0508  0.0262 -0.0797
30668W        W73762  31.992   1.300  22.254  0.1057 -0.3979 -0.2733
30669W        W73763  30.012   4.395  22.412 -0.0410  0.1066 -0.0307
30670W        W73764  30.348   0.408  21.984  0.3083  0.0146  0.0611
30671W        W73765  29.056   0.246  20.610  0.0843  0.2168 -0.0611
30672W        W73766  31.702   2.875  21.813  0.1565 -0.0344  0.1594
30673W        W73767  29.497   2.457  21.697  0.0715 -0.2203 -0.1552
30674W        W73768  29.935   1.300  22.068  0.2727  0.1362 -0.0608
30675W        W73769  30.020   2.467  20.974  0.1673  0.1695  0.0974
30676W        W73770  31.209   4.426  21.379 -0.0893  0.2462  0.2383
30677W        W73771  31.949   1.838  23.000  0.2806 -0.2657 -0.0533
30678W        W73772  30.890   0.913  23.084  0.5061  0.4866  0.1780
30679W        W73773  31.379   3.918  21.524  0.3731  0.0357 -0.0832
30680W        W73774  30.237   1.192  19.839 -0.1528 -0.1735 -0.0950
30681W        W73775  28.954   2.675  22.431  0.3404 -0.1604 -0.0466
30682W        W73776  29.809   1.744  22.315 -0.0750  0.0276  0.0283
30683W        W73777  32.390   0.091  21.626 -0.0461  0.3018  0.1644
30684W        W73778  32.498   1.453  21.412  0.3709  0.0773  0.2202
30685W        W73779  29.900   3.791  21.839  0.0194  0.3997  0.1434
30686W        W73780  30.447   4.003  23.076  0.1594 -0.2153  0.1093
30687W        W73781  32.587   1.327  21.924 -0.1736 -0.2661 -0.2860
30688W        W73782  30.994   2.988  22.194  0.0410 -0.1835 -0.2913
30689W        W73783  28.355   3.510  21.913  0.1770 -0.2984 -0.2756
30690W        W73784  29.744   4.742  21.635 -0.2023  0.1051  0.2645
30691W        W73785  33.277   3.102  20.828 -0.1442 -0.0885  0.0424
30692W        W73786  32.926   4.407  22.381  0.0682 -0.1505  0.2717
30693W        W73787  30.193   2.013  23.184  0.1260 -0.2630  0.2039
30694W        W73788  29.963   3.440  20.438  0.1275  0.3171  0.0526
30695W        W73789  31.318   4.100  23.753  0.2491  0.1905  0.1886
30696W        W73790  30.017   4.554  22.883 -0.2496 -0.1032  0.1204
30697W        W73791  31.259   2.136  23.265 -0.0050  0.0407  0.0540
30698W        W73792  30.544   2.235  21.731  0.0722 -0.1421  0.3148
30699W        W73793  30.038   4.289  20.806 -0.2997 -0.0124  0.0958
30700W        W73794  30.660   3.328  22.447 -0.2002  0.0658 -0.0978
30701W        W73795  30.556   2.809  23.320  0.2224 -0.1486 -0.0216
30702W        W73796  29.259   3.147  23.166 -0.2262 -0.1317  0.0527
30703W        W73797  33.558   0.969  25.137  0.3660 -0.0538 -0.1037
30704W        W73798  29.814   4.128  19.958 -0.2955 -0.1726 -0.1271
30705W        W73799  32.017   1.849  19.769 -0.2981  0.0869 -0.0995
30706W        W73800  30.713   0.451  19.110 -0.0611  0.2478  0.0932
30707W        W73801  31.616   1.354  21.481  0.0122 -0.1569  0.1005
30708W        W73802  30.403   1.354  22.255 -0.2054  0.0772  0.2116
30709W        W73803  29.311   3.487  21.398  0.2988 -0.2156 -0.0516
30710W        W73804  30.740   0.078  23.271  0.0170  0.2050  0.0887
30711W        W73805  33.202   2.359  23.088  0.0145  0.3658  0.0334
30712W        W73806  32.017   1.490  21.702 -0.1115  0.0898  0.1792
30713W        W73807  33.478   0.849  21.515 -0.2647  0.0770 -0.0156
30714W        W73808  30.635   4.800  22.646  0.0019 -0.4766  0.0180
30715W        W73809  30.141   3.150  21.990 -0.1247 -0.3207 -0.0688
30716W        W73810  32.160   3.821  21.116 -0.2385 -0.0592  0.0628
30717W        W73811  32.779   3.092  20.848  0.0127 -0.0061 -0.1918
30718W        W73812  32.799   4.380  18.710 -0.1448 -0.0847  0.0482
30719W        W73813  28.860   2.730  21.097 -0.2273 -0.1087 -0.1918
30720W        W73814  29.172   3.592  23.441  0.1716  0.0537  0.0241
30721W        W73815  31.459   1.292  24.447  0.0943 -0.3318  0.0903
30722W        W73816  29.466   1.467  21.223  0.0818  0.1958 -0.2836
30723W        W73817  32.831   2.614  23.348 -0.1418  0.1886  0.0261
30724W        W73818  27.724   2.677  23.806 -0.2307  0.0147 -0.0144
30725W        W73819  32.258   0.253  20.805  0.0378  0.0738  0.2279
30726W        W73820  31.681   2.231  20.956  0.0237  0.1274  0.1226
30727W        W73821  32.295   2.961  21.715 -0.3404  0.2604 -0.0948
30728W        W73822  32.157   3.093  20.328  0.2661 -0.0288  0.0452
30729W        W73823  32.400  34.323  22.609 -0.0139  0.1139 -0.0833
30730W        W73824  32.470  34.297  23.144 -0.0582 -0.1424  0.0853
30731W        W73825  32.182   2.114  20.796  0.1504  0.1482 -0.3053
30732W        W73826  29.284   2.868  21.409 -0.0493 -0.0811  0.0868
30733W        W73827  33.397   2.594  22.004 -0.2031  0.1546 -0.1974
30734W        W73828  32.172   2.610  20.323  0.4248  0.1714  0.1657
30735W        W73829  29.552   4.511  22.130  0.2955 -0.3311 -0.0173
30736W        W73830  30.719   2.508  22.637 -0.1944 -0.0351  0.2209
30737W        W73831  30.590   2.374  24.279 -0.2438 -0.0623 -0.2360
30738W        W73832  30.903   4.786  20.766  0.1953  0.0439  0.1561
30739W        W73833  28.635   3.120  22.123 -0.4384  0.0380  0.1469
30740W        W73834  29.542   4.311  20.326  0.0677 -0.2683 -0.1704
30741W        W73835  29.610   2.139  23.987  0.1612 -0.3799  0.2434
30742W        W73836  30.986   3.615  22.215  0.0386  0.0076 -0.0581
30743W        W73837  33.139  34.667  20.844  0.1179  0.1409  0.1475
30744W        W73838  30.200   1.116  22.662 -0.3249 -0.1689  0.0259
30745W        W73839  33.152   0.027  22.189 -0.0510 -0.1569 -0.0719
30746W        W73840  29.096   2.612  20.159  0.2892  0.1514 -0.0376
30747W        W73841  34.023   3.180  20.399 -0.0889 -0.1817 -0.3107
30748W        W73842  32.534   1.813  20.165 -0.2259 -0.0477  0.0927
30749W        W73843  32.153   2.604  20.917 -0.2968 -0.0478 -0.0012
30750W        W73844  28.315   2.512  21.138  0.0475 -0.3319  0.0258
30751W        W73845  29.414   2.543  22.215 -0.3522  0.2844  0.0736
30752W        W73846  31.076   0.280  24.117  0.2109  0.3299 -0.0711
30753W        W73847  28.704   1.800  21.741 -0.1271 -0.0048  0.2638
30754W        W73848  31.832   2.206  22.622  0.3621  0.0003  0.0631
30755W        W73849  29.646   0.132  20.695  0.2435  0.0093 -0.2527
30756W        W73850  31.843   1.452  20.647  0.1527 -0.0920  0.0119
30757W        W73851  29.723   3.165  21.034 -0.2705  0.0031 -0.3377
30758W        W73852  29.607   4.317  22.659  0.1093 -0.1634  0.3377
30759W        W73853  32.399   0.223  23.976  0.2018 -0.2742  0.0798
30760W        W73854  31.331   3.968  21.010 -0.1171  0.0275  0.1195
30761W        W73855  32.476   3.622  22.760 -0.0854 -0.0500  0.0731
30762W        W73856  32.276   3.150  19.687 -0.1947 -0.3490 -0.1260
30763W        W73857  30.551   0.576  21.495  0.4663 -0.1302  0.2064
30764W        W73858  28.721   0.789  20.025 -0.1527  0.0949 -0.2512
30765W        W73859  29.610   4.922  21.201  0.2138 -0.3035 -0.0854
30766W        W73860  31.311   3.131  23.189 -0.1014 -0.2577 -0.0770
30767W        W73861  30.676   0.526  20.426 -0.0669  0.0132 -0.1080
30768W        W73862  33.360   4.185  22.216  0.3375  0.2052  0.0753
30769W        W73863  31.360   3.320  22.023  0.3785 -0.0704 -0.1953
30770W        W73864  29.815   1.737  22.913 -0.1400  0.1602  0.2247
30771W        W73865  31.499   1.658  22.565  0.0149  0.3347 -0.0658
30772W        W73866  32.092   0.548  22.648  0.1572 -0.2874  0.0327
30773W        W73867  32.935   1.579  21.626 -0.1606 -0.1836 -0.0737
30774W        W73868  29.754   1.019  19.916  0.1238 -0.0641 -0.3584
30775W        W73869  32.124   3.895  20.653 -0.2171  0.0050 -0.1376
30776W        W73870  29.149   3.439  20.071 -0.0604  0.0086  0.0271
30777W        W73871  29.157   3.092  22.145  0.0080  0.0183  0.0199
30778W        W73872  31.258   4.038  23.231  0.2319 -0.1391 -0.2899
30779W        W73873  31.794   1.284  22.707 -0.0491 -0.1374 -0.1079
30780W        W73874  29.642   3.632  23.731  0.2544  0.1113  0.1330
30781W        W73875  32.239   1.049  22.687  0.3383 -0.3182 -0.0631
30782W        W73876  29.998   1.634  20.545  0.2048  0.1363  0.1833
30783W        W73877  30.200   3.782  23.437 -0.1757 -0.0894 -0.0067
30784W        W73878  31.130  34.575  23.029  0.0767 -0.1200  0.3104
30785W        W73879  32.277   1.658  20.563  0.0743  0.3356 -0.2685
30786W        W73880  30.635   0.243  24.422  0.0101 -0.0548 -0.0572
30787W        W73881  31.596   2.246  21.795  0.0112  0.2174  0.1985
30788W        W73882  32.480   1.385  20.924 -0.0663 -0.2427 -0.5710
30789W        W73883  31.208   1.622  19.640 -0.2196 -0.0076  0.1928
30790W        W73884  29.959   2.642  22.594 -0.1837  0.1939 -0.0689
30791W        W73885  30.699   1.776  20.955  0.1097 -0.1079  0.1029
30792W        W73886  31.397   2.124  22.259 -0.0318 -0.0636  0.2290
30793W        W73887  31.129   0.207  20.901 -0.1666  0.0762  0.0665
30794W        W73888  31.997   2.781  21.316 -0.1192  0.3437 -0.2841
30795W        W73889  29.663   3.997  22.219 -0.0263  0.3287 -0.0185
30796W        W73890  31.051   3.447  22.767  0.0116  0.1098  0.1426
30797W        W73891  30.701   4.537  21.489 -0.1549 -0.1292 -0.0114
30798W        W73892  30.881   0.462  21.896 -0.2055  0.2941 -0.2661
30799W        W73893  31.167   1.582  21.169 -0.1583  0.2435  0.0886
30800W        W73894  30.683   0.693  22.286 -0.2051  0.4273  0.3191
30801W        W73895  28.678   4.649  21.045 -0.4281 -0.1065 -0.0377
30802W        W73896  33.726  32.752  21.548  0.0556  0.1943  0.2286
30803W        W73897  32.569   0.802  21.673  0.1978 -0.2072 -0.2343
30804W        W73898  31.859   0.253  22.972  0.0418  0.0714  0.1331
30805W        W73899  32.318   2.533  22.394  0.3981 -0.1292 -0.4083
30806W        W73900  32.214   0.863  20.163  0.0618  0.0040 -0.1574
30807W        W73901  31.749   0.582  21.979  0.2568 -0.1104  0.0698
30808W        W73902  29.524   1.843  20.326  0.1322 -0.2343 -0.2027
30809W        W73903  31.829   2.344  23.086  0.0614 -0.0910 -0.2674
30810W        W73904  29.617   3.162  21.742  0.1168  0.0716 -0.2484
30811W        W73905  29.098   4.416  22.927 -0.2118 -0.0874  0.0580
30812W        W73906  31.951   2.925  23.292 -0.1171 -0.0271 -0.1728
30813W        W73907  31.119   1.592  22.266  0.0266 -0.0106  0.1744
30814W        W73908  31.131   1.610  23.546 -0.3142 -0.1280 -0.2414
30815W        W73909  31.374   2.584  19.828  0.0138 -0.0953  0.0723
30816W        W73910  31.554   3.796  19.679  0.0360  0.0448 -0.4492
30817W        W73911  30.659   2.759  21.078 -0.1317  0.1478 -0.1762
30818W        W73912  31.182   0.249  22.342 -0.0517  0.3538 -0.0534
30819W        W73913  31.557   3.578  22.943 -0.1858 -0.2001 -0.0429
30820W        W73914  31.682   5.276  20.348  0.3672  0.1167  0.1372
30821W        W73915  32.097   1.713  22.510  0.0336 -0.0353 -0.2081
30822W        W73916  28.678   4.022  21.130  0.1534  0.0610 -0.2433
30823W        W73917  31.576  34.413  23.686  0.0776  0.1702  0.0690
30824W        W73918  29.376   3.394  22.551  0.2009 -0.2331  0.0124
30825W        W73919  29.953   2.252  21.537  0.0035  0.1453  0.2253
30826W        W73920  28.183   1.541  20.774 -0.4285  0.1740 -0.1267
30827W        W73921  31.712  33.831  20.609  0.0608  0.2409  0.2743
30828W        W73922  32.094   2.156  22.214  0.0057  0.0448  0.1455
30829W        W73923  28.937   3.339  21.733 -0.1717 -0.2236  0.0828
30830W        W73924  32.675   0.156  22.272  0.0242  0.2704  0.0264
30831W        W73925  30.079   3.649  22.454 -0.3602  0.0650  0.1318
30832W        W73926  32.391   1.497  22.925 -0.0953  0.0898  0.1099
30833W        W73927  31.623   0.331  21.452 -0.0672  0.2855  0.0064
30834W        W73928  31.742   2.569  22.319  0.2667 -0.4849 -0.2105
30835W        W73929  30.533   3.798  22.634 -0.2281  0.1601 -0.0459
30836W        W73930  29.001   0.324  19.912  0.0272 -0.1433  0.1680
30837W        W73931  32.304   1.697  22.085 -0.2082  0.0009  0.1771
30838W        W73932  30.402   1.848  21.405  0.0353 -0.1740  0.1819
30839W        W73933  28.742   3.665  22.766 -0.0009 -0.1987 -0.1632
30840W        W73934  31.673   3.123  22.844 -0.0230 -0.0751  0.0631
30841W        W73935  30.384   1.434  20.222 -0.1361  0.0561  0.1351
30842W        W73936  29.550   4.132  21.662  0.3112 -0.1415  0.1570
30843W        W73937  30.589   0.666  22.815  0.0117  0.5208 -0.0075
30844W        W73938  33.186   1.647  22.641  0.2160  0.0019 -0.0371
30845W        W73939  30.250   1.791  22.472 -0.4172 -0.1930 -0.2741
30846W        W73940  28.672   2.146  21.257  0.0011 -0.0593 -0.1067
30847W        W73941  31.065   2.245  21.852  0.3577 -0.0129 -0.1259
30848W        W73942  32.515   3.985  22.413 -0.0992  0.0428 -0.3450
30849W        W73943  31.854   2.956  23.891  0.4830  0.0420  0.1857
30850W        W73944  30.075   4.819  25.399  0.1360 -0.2478  0.0508
30851W        W73945  30.628  34.392  21.300 -0.0040 -0.0990  0.3081
30852W        W73946  33.962   3.379  21.016 -0.1826 -0.3657 -0.1679
30853W        W73947  32.315   2.291  22.882  0.0037 -0.1673  0.0646
30854W        W73948  30.283   2.396  20.482  0.0235 -0.0601  0.1470
30855W        W73949  28.686   3.877  21.903  0.0660  0.4504 -0.0858
30856W        W73950  29.045   2.408  21.469  0.0196 -0.0025  0.2404
30857W        W73951  30.814   0.235  22.774 -0.1714  0.2042  0.0802
30858W        W73952  29.544   4.543  23.111 -0.0253 -0.2417 -0.0391
30859W        W73953  28.328   2.878  21.788  0.3587 -0.3293  0.3841
30860W        W73954  29.351   3.574  21.939  0.1599  0.0124  0.0400
30861W        W73955  33.350   0.200  19.305  0.1182 -0.1175 -0.1532
30862W        W73956  30.406   1.938  20.482  0.0696  0.2205  0.0379
30863W        W73957  30.589   0.015  21.708 -0.3578  0.3158 -0.0133
30864W        W73958  32.786   0.723  22.080 -0.2027 -0.0802 -0.0522
30865W        W73959  32.524   1.805  19.646 -0.0430 -0.0559 -0.0283
30866W        W73960  31.952   0.877  23.535 -0.3646 -0.2579 -0.0245
30867W        W73961  30.687   1.404  21.695  0.1446 -0.0114 -0.1564
30868W        W73962  33.009   1.026  21.734  0.0338 -0.1291 -0.1403
30869W        W73963  29.489   2.916  22.762  0.4358  0.0726  0.1179
30870W        W73964  31.651   4.238  24.662 -0.1757 -0.1178 -0.3767
30871W        W73965  29.981   1.752  23.953 -0.0923 -0.0628  0.2074
30872W        W73966  31.074   0.675  22.651 -0.1577 -0.0224  0.1764
30873W        W73967  29.556   0.993  20.854  0.0929  0.2874  0.1502
30874W        W73968  29.836   3.468  21.424  0.1214 -0.1763  0.1543
30875W        W73969  31.147   3.023  21.684 -0.0460  0.1217 -0.0850
30876W        W73970  29.474   2.273  21.192 -0.1324  0.0264  0.2103
30877W        W73971  33.578   0.645  20.811 -0.2200 -0.3862 -0.1945
30878W        W73972  29.878   4.159  23.194  0.0834  0.1077 -0.0787
30879W        W73973  32.159   0.987  21.272  0.1262  0.0244  0.1736
30880W        W73974  32.478   2.253  20.398 -0.0490  0.1699 -0.0382
30881W        W73975  30.784   3.642  21.754  0.4047  0.0763 -0.0822
30882W        W73976  30.356   1.631  22.937 -0.0491 -0.0700 -0.0399
30883W        W73977  31.963   2.286  21.414 -0.0262  0.3090 -0.3688
30884W        W73978  31.324   0.297  21.807  0.0283 -0.1092 -0.1432
30885W        W73979  31.726   0.862  22.418 -0.1353  0.1214 -0.3040
30886W        W73980  32.190   1.260  23.750 -0.1086  0.1359  0.2861
30887W        W73981  30.253   3.580  24.401  0.0154 -0.0274 -0.1102
30888W        W73982  28.904   3.253  23.790  0.1468 -0.4204  0.2619
30889W        W73983  32.672   4.275  23.358 -0.2708  0.1850 -0.3351
30890W        W73984  32.272   2.096  18.953 -0.3334 -0.2604  0.2034
30891W        W73985  33.641   0.703  22.478  0.0498  0.0629 -0.1360
30892W        W73986  31.760   1.864  21.527 -0.2240  0.0380 -0.0972
30893W        W73987  31.353   1.457  20.637  0.1015  0.1335 -0.1697
30894W        W73988  29.447   2.695  23.256  0.2277 -0.1373  0.1856
30895W        W73989  31.367   1.988  23.771 -0.2361  0.1107 -0.0818
30896W        W73990  29.964   0.045  20.028  0.1205 -0.1201  0.3030
30897W        W73991  31.860   0.878  23.028  0.1017  0.1125 -0.1884
30898W        W73992  31.174   2.981  21.159 -0.1211 -0.0333  0.0011
30899W        W73993  31.392   3.858  21.992  0.0783 -0.0300 -0.1292
30900W        W73994  30.919   1.844  21.521 -0.0764  0.2638 -0.2033
30901W        W73995  28.768   2.846  21.544  0.0660 -0.1677 -0.1920
30902W        W73996  31.187   3.520  23.449 -0.0467 -0.0127  0.0003
30903W        W73997  29.863   1.541  20.046  0.0678  0.1612 -0.0601
30904W        W73998  30.884   2.337  19.687  0.0766  0.0947 -0.2462
30905W        W73999  30.728   1.645  22.539 -0.0684 -0.1083 -0.0836
30906W        W74000  33.191   2.424  23.687 -0.0565  0.0857 -0.2122
30907W        W74001  31.285   0.745  22.155  0.1410  0.3840  0.1005
30908W        W74002  32.557   0.068  22.919  0.2074  0.3088  0.0202
30909W        W74003  28.761   3.145  20.795 -0.0069  0.1845 -0.4394
30910W        W74004  31.720   0.290  22.339  0.1917  0.0373 -0.0530
30911W        W74005  31.390   4.582  23.064 -0.1012  0.2260  0.1008
30912W        W74006  28.902   3.143  22.705 -0.4931  0.0307  0.3455
30913W        W74007  29.287   4.559  21.640 -0.2634  0.0275  0.2466
30914W        W74008  30.880   1.451  23.141  0.1258 -0.3191  0.0323
30915W        W74009  31.955   0.552  21.082 -0.0695  0.0073  0.0301
30916W        W74010  31.385   2.623  21.530  0.0031 -0.0700  0.1716
30917W        W74011  32.374   0.943  22.243 -0.3617 -0.3985  0.0057
30918W        W74012  30.830   1.141  22.261 -0.0623 -0.0476  0.0597
30919W        W74013  30.008   3.915  21.245  0.1928  0.2871 -0.0799
30920W        W74014  31.428   2.868  23.599  0.1699  0.0250  0.2139
30921W        W74015  31.068   1.935  20.709 -0.1007  0.0988 -0.0538
30922W        W74016  30.280   4.103  22.048  0.1857 -0.1605 -0.0933
30923W        W74017  30.694   2.020  22.919  0.0612 -0.0124  0.0907
30924W        W74018  31.904   2.025  23.816  0.1328  0.2238 -0.0758
30925W        W74019  31.421   3.628  22.435  0.0053  0.0870  0.0846
30926W        W74020  29.380   1.149  20.290 -0.0064 -0.3137  0.0655
30927W        W74021  29.798   2.781  21.427  0.0989 -0.2815  0.0327
30928W        W74022  29.609   3.798  22.734 -0.1321 -0.0412 -0.1011
30929W        W74023  30.221   2.238  22.715  0.0898 -0.1658  0.0865
30930W        W74024  30.112   4.355  20.271  0.2126  0.0404  0.0064
30931W        W74025  30.323   3.802  20.702  0.0067 -0.0201  0.1643
30932W        W74026  31.790   1.710  22.089 -0.0833 -0.1355  0.1584
30933W        W74027  32.069   4.203  22.572 -0.1192  0.0201 -0.1754
30934W        W74028  29.343   0.518  20.949 -0.2528  0.0134  0.1547
30935W        W74029  29.834   3.962  20.440  0.2259  0.1731  0.1894
30936W        W74030  29.682   3.629  20.080 -0.0240 -0.0924 -0.0935
30937W        W74031  30.672   3.138  21.353  0.0848 -0.3119  0.0222
30938W        W74032  30.087   4.745  21.207  0.0901  0.0627 -0.0230
30939W        W74033  32.989   4.017  24.701 -0.2462  0.0757  0.1560
30940W        W74034  31.898   0.665  20.560 -0.2096 -0.0773  0.0783
30941W        W74035  33.202   1.348  20.401 -0.1489 -0.1955 -0.1578
30942W        W74036  34.137   0.620  20.759 -0.4502 -0.3208 -0.0032
30943W        W74037  31.989   2.739  22.811 -0.0726 -0.1756 -0.0123
30944W        W74038  30.621   1.765  22.042 -0.3405 -0.3054  0.1214
30945W        W74039  29.319   1.936  20.793 -0.3996  0.2174  0.0849
30946W        W74040  30.831   2.098  22.304  0.0538  0.0547 -0.0379
30947W        W74041  32.872  33.566  23.511  0.1439  0.2688 -0.1915
30948W        W74042  28.404   3.306  23.546 -0.4583  0.1557 -0.1779
30949W        W74043  32.658   3.531  21.122 -0.0710 -0.2614 -0.1675
30950W        W74044  29.951   1.548  21.289 -0.1502 -0.1843 -0.1785
30951W        W74045  29.728   2.132  22.027  0.0311 -0.0360 -0.0997
30952W        W74046  32.902  34.322  22.826 -0.0205  0.2693  0.1708
30953W        W74047  30.581   2.072  20.041  0.0292 -0.1018  0.0291
30954W        W74048  31.564   1.193  22.089  0.3129 -0.0923  0.2551
30955W        W74049  30.213   3.394  21.123  0.0827  0.3673  0.1024
30956W        W74050  30.842   3.218  23.182  0.0473  0.1598 -0.2069
30957W        W74051  31.434   3.431  23.900  0.2510 -0.0376  0.1215
30958W        W74052  29.750   1.903  21.004  0.1717  0.0403 -0.2575
30959W        W74053  33.464   0.287  21.180  0.1041 -0.0095 -0.0036
30960W        W74054  31.136   0.401  23.121 -0.2216  0.0665 -0.2564
30961W        W74055  32.841  34.065  23.813 -0.1032 -0.0541  0.3938
30962W        W74056  31.245   2.506  22.598 -0.1897  0.0558  0.2982
30963W        W74057  32.434   0.393  21.250  0.1813  0.3321 -0.0416
30964W        W74058  30.973   1.484  24.151  0.4947  0.0714  0.1661
30965W        W74059  30.374   1.033  23.288  0.1293 -0.1105 -0.2003
30966W        W74060  31.276   0.976  20.601 -0.0400 -0.5516  0.1754
30967W        W74061  33.356   1.501  23.376  0.0850 -0.3147  0.2379
30968W        W74062  31.617   1.394  19.435  0.3026  0.4051  0.2080
30969W        W74063  30.865   3.759  23.119 -0.1115  0.0741  0.1216
30970W        W74064  29.675   1.340  22.544  0.0715 -0.1256  0.1580
30971W        W74065  31.490   0.610  20.942  0.0637  0.1900 -0.0308
30972W        W74066  29.258   3.272  20.865 -0.1469  0.1317  0.2202
30973W        W74067  30.787   2.028  23.862  0.2239 -0.1393  0.1810
30974W        W74068  32.549   2.035  22.506 -0.2383 -0.1576 -0.3352
30975W        W74069  30.620   0.037  22.277 -0.0386  0.0056 -0.1934
30976W        W74070  32.590   2.712  20.602 -0.1393 -0.2535 -0.0635
30977W        W74071  32.740   2.463  22.734 -0.1190  0.1031 -0.2146
30978W        W74072  30.647   5.362  21.081 -0.1356  0.1601  0.2664
30979W        W74073  33.081   1.834  20.342  0.0395  0.1845 -0.1414
30980W        W74074  31.815   3.294  22.397 -0.2091  0.0139  0.2871
30981W        W74075  28.425   2.115  22.558 -0.0215  0.1300  0.2582
30982W        W74076  30.823   1.920  23.388  0.0210 -0.2021  0.0433
30983W        W74077  32.951   2.504  21.586 -0.2034 -0.0029 -0.1399
30984W        W74078  31.598   1.749  21.041  0.1705 -0.1741 -0.2081
30985W        W74079  30.421   2.319  22.280  0.3154  0.0036  0.2103
30986W        W74080  29.276   3.489  19.407 -0.2834  0.0595 -0.1606
30987W        W74081  33.020   0.178  22.665  0.2547  0.1116 -0.0632
30988W        W74082  33.099   0.647  22.830  0.0641  0.1340  0.2599
30989W        W74083  31.486   3.728  20.601  0.1499  0.0031  0.2581
30990W        W74084  32.938  34.488  23.386  0.2181 -0.3827 -0.1044
30991W        W74085  32.456   1.947  23.212 -0.3321 -0.1127 -0.0749
30992W        W74086  29.813   3.544  24.685  0.1877  0.1282  0.3182
30993W        W74087  30.332   2.645  21.717 -0.0829  0.1329 -0.2048
30994W        W74088  30.481   3.042  24.102 -0.1639  0.1995 -0.0661
30995W        W74089  30.401   3.625  22.071  0.0088 -0.0737  0.0776
30996W        W74090  30.825   2.668  21.541 -0.1632  0.2729  0.0846
30997W        W74091  32.495   3.289  23.158 -0.0087  0.2223  0.4054
30998W        W74092  31.508   0.539  22.817  0.0867  0.1619  0.0502
30999W        W74093  32.646   2.307  21.123 -0.1633 -0.1398 -0.0867
31000W        W74094  29.203   2.127  22.391  0.0503  0.2822 -0.2616
31001W        W74095  32.163   0.377  20.078  0.4666 -0.2649  0.0234
31002W        W74096  33.057  33.729  20.670 -0.0427  0.1775  0.2207
31003W        W74097  29.949   2.906  23.040  0.0617  0.2283  0.0320
31004W        W74098  26.802   1.553  19.346  0.3304 -0.2181 -0.1204
31005W        W74099  29.888   3.172  19.973  0.1803 -0.0321 -0.0264
31006W        W74100  30.306   3.445  21.602 -0.2809  0.2135 -0.0084
31007W        W74101  32.145   0.005  23.317  0.2403  0.0477 -0.1171
31008W        W74102  30.982   3.093  23.654  0.3138  0.3027  0.1232
31009W        W74103  30.392   2.882  22.338  0.0100  0.1097 -0.1026
31010W        W74104  29.937   1.296  20.861  0.0226 -0.0862 -0.0340
31011W        W74105  30.660   2.274  20.824  0.0978  0.0905  0.0067
31012W        W74106  28.058   2.236  21.496 -0.0505  0.1081 -0.2485
31013W        W74107  28.664   1.382  21.432 -0.2071 -0.0061 -0.3893
31014W        W74108  31.483   3.221  20.783  0.3498  0.0440 -0.0925
31015W        W74109  33.266   3.174  22.049  0.1324  0.0838  0.2405
31016W        W74110  30.623   0.945  21.821  0.0402  0.0697  0.0401
31017W        W74111  32.456   2.852  23.544 -0.1665 -0.0460  0.0429
31018W        W74112  28.963   2.739  19.017 -0.0644 -0.0765 -0.0364
31019W        W74113  31.096   1.073  23.541 -0.1341  0.2718  0.2007
31020W        W74114  31.186   1.164  22.635 -0.0713  0.1025 -0.0465
31021W        W74115  29.829   1.370  19.513 -0.1148 -0.0437 -0.0667
31022W        W74116  29.555   3.856  21.218 -0.0253  0.2613  0.2525
31023W        W74117  30.387   3.983  21.549 -0.0558  0.1724 -0.1082
31024W        W74118  32.145   3.219  22.738 -0.1872 -0.2368  0.0545
31025W        W74119  31.316   1.656  23.048  0.1229  0.0399 -0.0689
31026W        W74120  31.287   2.649  22.061 -0.1276 -0.0128 -0.0746
31027W        W74121  30.647  34.259  21.941  0.2481 -0.0473 -0.1849
31028W        W74122  31.323   1.601  21.758  0.0619  0.0851  0.4402
31029W        W74123  30.975   3.746  23.950  0.1762 -0.0339 -0.3423
31030W        W74124  31.962   3.034  20.860 -0.0075 -0.1964 -0.0426
31031W        W74125  32.171   0.070  22.502 -0.2351  0.0101 -0.0898
31032W        W74126  31.959   0.995  21.817  0.1672 -0.0691  0.0365
31033W        W74127  31.500   0.682  23.831  0.3888  0.1691  0.1421
31034W        W74128  31.107   2.933  22.754 -0.2468  0.0350 -0.2933
31035W        W74129  33.029   2.894  22.804 -0.0602  0.1788 -0.3052
31036W        W74130  30.866   0.292  19.563  0.0841 -0.0159  0.3415
31037W        W74131  30.435   1.457  20.702 -0.0087 -0.0296 -0.0207
31038W        W74132  31.327   2.080  21.366 -0.0156  0.4153  0.0877
31039W        W74133  30.030   3.147  22.604  0.1365 -0.0777 -0.0694
31040W        W74134  30.834   0.974  20.370 -0.0024 -0.0479  0.0787
31041W        W74135  31.184   1.998  22.736  0.0566  0.1548  0.0402
31042W        W74136  31.612   3.152  21.349  0.4300 -0.2168  0.1132
31043W        W74137  32.461   2.816  23.000  0.2964 -0.1944  0.0154
31044W        W74138  31.716   2.895  20.444 -0.0723  0.0693  0.1876
31045W        W74139  32.001   1.448  21.163 -0.1684  0.0056 -0.0760
31046W        W74140  32.902   3.281  22.428  0.0261  0.3498  0.0815
31047W        W74141  31.325   2.077  24.774 -0.2002  0.1778 -0.1055
31048W        W74142  32.322   4.074  21.963  0.1417 -0.2447  0.2840
31049W        W74143  32.835   1.805  22.064 -0.1657  0.2321  0.1037
31050W        W74144  30.153   0.539  24.517 -0.1713  0.3382 -0.2594
31051W        W74145  30.384   2.358  21.234  0.3291  0.3104  0.0381
31052W        W74146  29.130   3.756  20.941  0.0089  0.0879  0.1350
31053W        W74147  33.187   1.466  20.926  0.1031  0.1775 -0.3397
31054W        W74148  29.520   1.478  20.721  0.0465 -0.0017  0.3698
31055W        W74149  31.634   0.830  21.469  0.0876  0.1700 -0.2101
31056W        W74150  30.910   4.334  23.055 -0.0363 -0.2508  0.2169
31057W        W74151  30.675   1.201  22.724  0.0429 -0.3640  0.1264
31058W        W74152  30.978   3.805  27.386  0.1749 -0.0702  0.3118
31059W        W74153  28.348   0.943  24.919 -0.1325 -0.1271 -0.1061
31060W        W74154  32.133   1.710  23.516 -0.2025 -0.2203  0.0453
31061W        W74155  32.201   2.365  23.500 -0.0736 -0.0783  0.2702
31062W        W74156  29.867  34.592  23.837  0.1450 -0.2197 -0.3253
31063W        W74157  31.342   2.978  25.368 -0.0194  0.0668 -0.0070
31064W        W74158  29.370   0.593  26.353 -0.2339 -0.3024  0.4879
31065W        W74159  31.379   2.227  26.356 -0.0301 -0.3521  0.1504
31066W        W74160  32.974   3.493  24.862  0.0371  0.1366 -0.1366
31067W        W74161  31.762   3.303  23.457 -0.0925 -0.3302  0.2298
31068W        W74162  30.078   0.825  25.647 -0.0327 -0.2800 -0.0963
31069W        W74163  29.914   3.924  27.240  0.1859  0.0263  0.3561
31070W        W74164  31.562   0.111  23.975  0.3813 -0.0671 -0.0035
31071W        W74165  29.044   0.835  25.875 -0.2248 -0.1818 -0.1135
31072W        W74166  32.255   2.388  25.322 -0.1372  0.2582  0.4433
31073W        W74167  30.363   1.850  23.672 -0.0983  0.1945 -0.2972
31074W        W74168  30.075   2.275  25.855  0.2064 -0.0929  0.2750
31075W        W74169  30.230   1.879  25.118  0.5110 -0.2489 -0.0262
31076W        W74170  30.769   3.977  25.856  0.3849  0.0153  0.2819
31077W        W74171  31.735   1.342  26.254 -0.2857  0.1150 -0.1100
31078W        W74172  33.501   0.827  27.545 -0.0913 -0.2170 -0.1022
31079W        W74173  28.936   3.473  24.410 -0.0933  0.0792  0.0691
31080W        W74174  30.525   3.053  22.826 -0.0855 -0.3081  0.4177
31081W        W74175  28.897   2.349  25.370  0.2042 -0.2384  0.0448
31082W        W74176  30.431   2.118  25.541 -0.0670 -0.0662 -0.0251
31083W        W74177  33.103   2.055  26.217  0.1648  0.0323  0.3367
31084W        W74178  31.464   3.388  25.876 -0.1886  0.1273  0.1363
31085W        W74179  30.709   4.539  25.368  0.3401  0.1664  0.1591
31086W        W74180  31.113   3.603  24.428  0.0742 -0.1381 -0.0421
31087W        W74181  32.577   1.228  27.276 -0.0157  0.2656 -0.1032
31088W        W74182  28.524   2.163  26.117  0.1002  0.0097 -0.1360
31089W        W74183  29.440   3.190  23.987  0.0901  0.0893 -0.1179
31090W        W74184  29.616   2.879  24.409 -0.1791  0.1509  0.0285
31091W        W74185  33.603   2.722  23.733  0.1527  0.0723 -0.2065
31092W        W74186  33.729   3.778  27.797 -0.2669  0.2178  0.0887
31093W        W74187  31.877   3.607  26.729  0.1508 -0.1914 -0.0420
31094W        W74188  28.788   4.735  22.686 -0.2710  0.0185 -0.2165
31095W        W74189  31.922   4.590  26.536 -0.0037 -0.2397 -0.1465
31096W        W74190  32.179   3.424  27.852  0.1473 -0.0634 -0.1111
31097W        W74191  32.256   1.831  26.541 -0.0963  0.0727 -0.1365
31098W        W74192  30.478   3.826  25.351  0.1395 -0.1269  0.3053
31099W        W74193  29.842   3.946  24.296 -0.3421 -0.1072  0.0556
31100W        W74194  30.559   2.887  27.147 -0.2866  0.1428  0.1658
31101W        W74195  30.986   4.216  27.730  0.2966 -0.1800 -0.0193
31102W        W74196  27.797   3.056  25.394  0.1828  0.2707 -0.3158
31103W        W74197  34.056   1.514  27.345 -0.1913  0.1225  0.2496
31104W        W74198  30.347   3.253  23.304 -0.0555  0.3843  0.1425
31105W        W74199  32.734   0.684  23.170 -0.1100  0.2566 -0.0886
31106W        W74200  30.298   0.231  23.477  0.3095  0.1983 -0.1479
31107W        W74201  32.650   1.559  23.606  0.0383  0.0130 -0.0275
31108W        W74202  30.728   0.858  25.576 -0.1223  0.2104  0.0520
31109W        W74203  30.653   4.301  26.640 -0.0029 -0.2963  0.3103
31110W        W74204  29.821   1.644  25.894 -0.0816  0.2789  0.1665
31111W        W74205  32.370   2.426  27.662 -0.0489 -0.1864  0.1086
31112W        W74206  31.090   2.351  24.172 -0.4186 -0.3531 -0.1460
31113W        W74207  32.765   1.715  26.500 -0.2306  0.0268  0.1361
31114W        W74208  28.870   5.666  25.198 -0.4357  0.1750  0.3285
31115W        W74209  28.627   0.496  24.717  0.0230 -0.0801 -0.1217
31116W        W74210  31.647   1.820  23.393  0.0700  0.4854 -0.2599
31117W        W74211  30.788   2.575  25.556 -0.1988  0.3771  0.0650
31118W        W74212  31.338   3.075  24.496  0.2016 -0.2056 -0.2226
31119W        W74213  30.902   2.311  24.677  0.0744  0.0856 -0.1197
31120W        W74214  29.968   2.405  26.518 -0.2248  0.1401  0.1504
31121W        W74215  29.383   0.231  27.248 -0.2703 -0.1023 -0.1193
31122W        W74216  29.799   0.810  25.264 -0.1880  0.1757 -0.0848
31123W        W74217  33.877   3.046  26.538 -0.0639 -0.1428 -0.1142
31124W        W74218  29.805   2.980  26.920  0.0156 -0.2801 -0.1681
31125W        W74219  32.735   1.774  25.943 -0.0075  0.0677 -0.2327
31126W        W74220  30.342   1.736  25.910  0.1490  0.1157  0.1781
31127W        W74221  32.929   3.126  27.788 -0.0070  0.1195 -0.1375
31128W        W74222  32.641   2.396  23.725 -0.0434  0.2693 -0.0727
31129W        W74223  31.457   1.727  26.086 -0.0335 -0.0454  0.4474
31130W        W74224  31.492  34.673  26.465 -0.1338  0.0905 -0.2029
31131W        W74225  28.920   2.706  22.971  0.3003 -0.3072  0.1747
31132W        W74226  29.260   2.307  24.334 -0.0542 -0.2956 -0.1056
31133W        W74227  32.832   4.049  27.899  0.1745  0.0898  0.1329
31134W        W74228  31.732   1.560  23.904  0.1089  0.0891  0.1964
31135W        W74229  28.699   3.051  24.383  0.2887 -0.0815  0.3234
31136W        W74230  32.264   1.634  27.491  0.0559  0.0798 -0.1320
31137W        W74231  30.295   1.774  27.457  0.3376 -0.1585  0.2452
31138W        W74232  28.989   4.877  23.200 -0.1240  0.1141 -0.1142
31139W        W74233  28.780   2.243  24.866  0.0231  0.3866 -0.1779
31140W        W74234  28.202   2.772  23.596 -0.2981 -0.1981  0.2217
31141W        W74235  30.152   1.503  26.444  0.3194 -0.3058 -0.1697
31142W        W74236  30.834   2.410  27.042  0.0699  0.1977 -0.1855
31143W        W74237  31.135   0.719  25.866  0.0305 -0.1190  0.0847
31144W        W74238  30.092   0.717  27.301  0.0738 -0.2267  0.2017
31145W        W74239  31.621   0.714  25.879  0.3028  0.1888  0.1331
31146W        W74240  29.962   3.163  25.960 -0.1975 -0.0500 -0.1113
31147W        W74241  33.254   4.921  25.184  0.2327 -0.2022  0.0195
31148W        W74242  32.540   1.564  24.391 -0.1980  0.2370  0.0049
31149W        W74243  31.701   3.807  23.446  0.0580  0.0893 -0.1257
31150W        W74244  30.137   1.127  28.293 -0.1332 -0.1027 -0.3344
31151W        W74245  27.915   1.787  25.411 -0.0337 -0.1917 -0.1122
31152W        W74246  30.437   0.511  27.011  0.3449 -0.1681 -0.1253
31153W        W74247  29.485   1.447  27.550 -0.2143 -0.0185 -0.1189
31154W        W74248  32.665   2.450  25.597 -0.2709  0.0903 -0.0265
31155W        W74249  29.981   0.921  24.802  0.2711 -0.0915  0.1658
31156W        W74250  31.768   1.665  24.676 -0.4046  0.2026  0.0228
31157W        W74251  30.699   2.708  26.015  0.1931 -0.4956 -0.0989
31158W        W74252  28.813   3.755  23.982 -0.2082  0.0511 -0.3099
31159W        W74253  32.544   1.911  26.934  0.0295  0.3759 -0.1469
31160W        W74254  31.286   2.850  24.080 -0.2964  0.3141  0.0479
31161W        W74255  33.207   3.575  28.129  0.1466  0.0836  0.0067
31162W        W74256  32.539   3.407  25.083 -0.3546 -0.0514  0.1346
31163W        W74257  30.122   1.505  25.484  0.1005  0.2553 -0.1414
31164W        W74258  28.341   0.943  24.271 -0.2149 -0.0206 -0.1708
31165W        W74259  29.484   4.780  25.527  0.0860 -0.0580  0.4091
31166W        W74260  30.257   4.266  25.364 -0.0381  0.1532  0.0379
31167W        W74261  29.700   2.203  22.530  0.0341 -0.2198  0.2719
31168W        W74262  33.907   2.426  24.669 -0.2606  0.1801 -0.1988
31169W        W74263  30.985   3.544  25.770  0.1027  0.1592  0.3110
31170W        W74264  29.043   4.624  25.932  0.5011 -0.3743 -0.0001
31171W        W74265  33.282   1.716  26.796  0.2125 -0.2257 -0.0688
31172W        W74266  32.673   2.946  25.876 -0.1140 -0.0375 -0.0993
31173W        W74267  32.835   2.714  26.878  0.0222 -0.2535  0.0129
31174W        W74268  31.059   0.618  25.254  0.1305  0.2360 -0.2706
31175W        W74269  31.910   3.548  25.110  0.1688  0.1619 -0.1720
31176W        W74270  28.899   3.976  23.182  0.1916 -0.0432  0.1764
31177W        W74271  27.966   3.240  23.850  0.0385  0.1651  0.3507
31178W        W74272  31.216   4.035  24.784  0.2056  0.0432  0.0774
31179W        W74273  31.902   1.166  25.369  0.2985  0.0690  0.2607
31180W        W74274  29.506   2.059  28.262  0.1560  0.0676 -0.1957
31181W        W74275  31.146   1.585  27.134 -0.3830 -0.0194  0.4728
31182W        W74276  30.552   1.415  25.265  0.0012  0.1318  0.0284
31183W        W74277  28.780   4.994  26.337  0.0174  0.0430 -0.0199
31184W        W74278  32.604   2.259  24.524  0.1620  0.0296 -0.1547
31185W        W74279  31.969   0.924  24.493  0.1722 -0.0310  0.0342
31186W        W74280  30.601   2.913  28.433  0.1588  0.0923 -0.0675
31187W        W74281  31.778   2.787  24.470 -0.0384  0.0918  0.1195
31188W        W74282  30.485   1.714  24.160  0.3256  0.1640 -0.2348
31189W        W74283  31.888  34.086  24.694  0.1778 -0.3007 -0.1275
31190W        W74284  30.225   2.745  26.774  0.1444  0.7590  0.0762
31191W        W74285  30.142   3.075  24.495  0.1995 -0.0805  0.2595
31192W        W74286  31.104   2.845  27.260  0.2718  0.3140  0.2849
31193W        W74287  30.930   0.642  23.785  0.0420 -0.1843 -0.1138
31194W        W74288  31.707   3.097  24.888 -0.0586 -0.0420 -0.0611
31195W        W74289  29.566   3.957  26.483 -0.2709  0.4279  0.3487
31196W        W74290  31.915   2.126  27.884 -0.0095 -0.5374 -0.1066
31197W        W74291  30.727   3.306  26.941 -0.5443 -0.1890  0.3894
31198W        W74292  30.580   1.028  26.895 -0.4068 -0.1324  0.0510
31199W        W74293  31.267   0.264  23.596 -0.2295  0.1484 -0.1551
31200W        W74294  31.870   1.564  25.758 -0.0752  0.2421 -0.0832
31201W        W74295  29.048   4.191  23.919 -0.0037  0.1131  0.1141
31202W        W74296  33.207   1.521  26.300 -0.0262  0.1756 -0.2927
31203W        W74297  32.021   0.574  25.483  0.1936  0.1206 -0.0244
31204W        W74298  30.171   0.187  26.330  0.2833 -0.1975 -0.1269
31205W        W74299  33.712   2.358  27.319  0.1291 -0.1100 -0.3002
31206W        W74300  33.398   1.207  24.166 -0.0663 -0.2155  0.3063
31207W        W74301  31.632   3.242  26.357  0.0973 -0.0662  0.0979
31208W        W74302  30.442   2.152  24.723 -0.0906  0.1901  0.1597
31209W        W74303  32.777   2.273  26.581  0.1271 -0.0636 -0.2950
31210W        W74304  30.503   1.184  28.634  0.0909 -0.0327 -0.2194
31211W        W74305  30.575   4.484  27.459  0.0422 -0.0457  0.2202
31212W        W74306  32.054   2.551  27.238 -0.0175  0.5152  0.0957
31213W        W74307  30.564   3.048  25.116 -0.1453  0.3116 -0.1654
31214W        W74308  30.968   1.093  26.490 -0.1006  0.2434  0.1465
31215W        W74309  31.033   2.344  25.181 -0.1663  0.0645 -0.1274
31216W        W74310  29.982   4.054  23.856  0.2022 -0.0436  0.0142
31217W        W74311  30.131   2.753  25.211 -0.3077 -0.2834 -0.2385
31218W        W74312  31.424  34.385  26.046 -0.0806 -0.0837 -0.3751
31219W        W74313  31.501   3.607  24.711 -0.1889  0.0495  0.0422
31220W        W74314  30.657   2.678  23.777  0.0209 -0.1055 -0.1521
31221W        W74315  32.321   1.283  26.414  0.2790  0.2527 -0.1538
31222W        W74316  28.893   1.876  25.871 -0.0046 -0.0543  0.0721
31223W        W74317  33.148  34.658  25.675 -0.0977  0.0033  0.1457
31224W        W74318  30.464   3.135  26.079 -0.0111 -0.1387 -0.0011
31225W        W74319  29.711   1.224  24.155 -0.0224 -0.1330  0.1914
31226W        W74320  29.708   0.777  24.436 -0.4201 -0.4280 -0.3483
31227W        W74321  32.444   0.788  25.672  0.0267  0.0907 -0.1865
31228W        W74322  32.087   3.293  24.672  0.1359  0.0332 -0.0501
31229W        W74323  30.355   1.394  27.894 -0.0159 -0.1752 -0.1770
31230W        W74324  30.502   2.416  25.119 -0.0139 -0.1432  0.1515
31231W        W74325  29.560   4.546  25.929  0.1135 -0.1451 -0.0932
31232W        W74326  31.752   2.191  26.924 -0.0275 -0.0932 -0.0177
31233W        W74327  32.551   1.158  24.730  0.0437 -0.1967  0.2128
31234W        W74328  32.048   4.075  26.501  0.0107 -0.0216  0.1144
31235W        W74329  29.525   2.436  27.553 -0.0034 -0.1876 -0.1681
31236W        W74330  29.533   1.547  23.818  0.1410 -0.0722 -0.0764
31237W        W74331  33.183   1.266  27.581  0.4924  0.1311  0.2707
31238W        W74332  29.593   2.627  23.994 -0.0591 -0.1156  0.2174
31239W        W74333  29.841   3.128  24.952  0.0122  0.0373 -0.1970
31240W        W74334  31.194   3.405  26.652 -0.0935 -0.1907 -0.4793
31241W        W74335  29.671   2.678  24.934 -0.1631 -0.0113 -0.0864
31242W        W74336  29.710   2.208  24.554  0.0647  0.0939 -0.3997
31243W        W74337  29.837  34.453  26.438  0.0711 -0.2403  0.4190
31244W        W74338  33.494   2.748  27.597 -0.2220 -0.0873 -0.1767
31245W        W74339  30.306   2.799  25.688  0.4213  0.0157 -0.1146
31246W        W74340  31.023   1.463  25.208 -0.0441  0.2234  0.2862
31247W        W74341  30.259   2.003  26.350  0.0496 -0.0495 -0.2551
31248W        W74342  31.250   2.023  26.853 -0.2538  0.0026 -0.2504
31249W        W74343  30.728   1.449  26.753  0.1430 -0.1495 -0.0104
31250W        W74344  30.778   3.221  27.580 -0.1867 -0.1395  0.0195
31251W        W74345  31.437   0.927  26.312  0.0266 -0.3218  0.0725
31252W        W74346  31.721   2.239  25.124 -0.1409 -0.2593 -0.0188
31253W        W74347  30.492   3.561  27.832  0.2884 -0.1133 -0.1229
31254W        W74348  29.580   1.699  24.303 -0.0864  0.1093 -0.2566
31255W        W74349  28.799   1.246  26.872  0.0522  0.2689 -0.1023
31256W        W74350  29.758   3.616  26.114 -0.2129  0.1946 -0.3652
31257W        W74351  32.313   1.969  25.759 -0.2649  0.1121  0.2045
31258W        W74352  30.274   2.609  26.172  0.1990  0.2371 -0.1105
31259W        W74353  29.805   2.030  25.464  0.0777  0.0868 -0.1496
31260W        W74354  28.730   6.021  25.882 -0.2044  0.0061 -0.0723
31261W        W74355  32.889   1.088  23.495 -0.0744  0.1672 -0.1298
31262W        W74356  30.525   2.332  23.419 -0.2630  0.3177  0.0624
31263W        W74357  31.282   1.592  25.621  0.2685  0.2495  0.3337
31264W        W74358  32.209   1.073  27.602  0.0108 -0.3775  0.2416
31265W        W74359  31.336   1.134  24.032 -0.1358 -0.1210  0.0368
31266W        W74360  31.642   0.428  26.339 -0.2342 -0.0327 -0.2258
31267W        W74361  29.887  34.536  27.168 -0.1778  0.0585 -0.2142
31268W        W74362  32.373   2.818  26.859 -0.1976  0.0249  0.1494
31269W        W74363  30.778   1.912  26.536 -0.1100  0.2098  0.1549
31270W        W74364  31.378   4.734  29.198 -0.4195  0.0303  0.4175
31271W        W74365  31.334   2.487  26.895 -0.0078 -0.1175  0.2492
31272W        W74366  31.332   2.572  24.565  0.2529  0.1022  0.0297
31273W        W74367  30.639   1.537  24.765 -0.3301  0.4458 -0.0155
31274W        W74368  29.860   1.993  26.911  0.0726  0.0039 -0.1109
31275W        W74369  31.873   2.989  26.029  0.2618  0.0869  0.0981
31276W        W74370  30.317   4.376  23.621 -0.0387  0.1912 -0.1080
31277W        W74371  32.920   2.119  24.984  0.1034  0.0747 -0.1636
31278W        W74372  30.483   3.610  25.988  0.1932 -0.1465  0.2006
31279W        W74373  31.791   2.734  25.453  0.0297 -0.0956 -0.0785
31280W        W74374  31.650   2.325  23.586 -0.0560  0.2753 -0.0868
31281W        W74375  28.934   2.394  26.000 -0.1710  0.1158  0.1639
31282W        W74376  32.268   0.238  27.110 -0.1931  0.2425 -0.1982
31283W        W74377  31.586   2.429  24.120  0.3601 -0.0101  0.1083
31284W        W74378  31.427   2.431  25.448  0.1664  0.2673 -0.0380
31285W        W74379  30.819   1.393  25.699 -0.1001  0.1597  0.0565
31286W        W74380  31.925   1.479  26.689  0.1749 -0.1609  0.3390
31287W        W74381  32.468   1.410  26.865  0.1958  0.1479  0.2823
31288W        W74382  29.924   1.631  27.843 -0.1050 -0.0759 -0.2196
31289W        W74383  32.347   3.051  26.328 -0.1596 -0.1344  0.1449
31290W        W74384  32.807  34.555  24.105  0.0270 -0.1231  0.0404
31291W        W74385  33.659   1.894  26.204  0.4487 -0.4774  0.3527
31292W        W74386  31.882   3.610  23.864  0.2585  0.1428 -0.3964
31293W        W74387  30.824   1.905  25.110 -0.1015 -0.1732  0.0724
31294W        W74388  29.388   1.867  26.664  0.3059  0.0733  0.2487
31295W        W74389  33.327   2.241  27.650 -0.3233  0.0879  0.0663
31296W        W74390  30.766   1.088  24.008  0.0679  0.3980 -0.0720
31297W        W74391  31.692   1.882  26.525 -0.0875  0.1318  0.0328
31298W        W74392  31.330   5.144  23.119 -0.3450 -0.2406 -0.0334
31299W        W74393  30.877   3.081  25.578  0.0451 -0.0574  0.1462
31300W        W74394  31.108   2.391  23.668 -0.3125  0.0787 -0.2993
31301W        W74395  29.426   1.653  25.544  0.1958 -0.2550  0.0666
31302W        W74396  31.254   3.650  28.355 -0.2372 -0.3244 -0.0308
31303W        W74397  30.120   2.471  23.209 -0.0936  0.1865 -0.1020
31304W        W74398  30.931   2.514  23.121  0.2258  0.0943 -0.2166
31305W        W74399  31.361   1.545  26.636  0.0966 -0.1973  0.0648
31306W        W74400  32.470   2.974  27.957  0.1632  0.2330  0.1425
31307W        W74401  30.938  34.564  23.836  0.1512  0.0176  0.0090
31308W        W74402  33.303   2.283  25.636  0.0198 -0.0621 -0.0659
31309W        W74403  28.427   2.532  23.146  0.0731 -0.0793 -0.0307
31310W        W74404  31.575   1.909  24.289 -0.2056 -0.1579 -0.0185
31311W        W74405  30.292   4.859  26.591  0.0896 -0.1000 -0.1772
31312W        W74406  29.400   1.918  25.986  0.1907 -0.1825 -0.0977
31313W        W74407  30.144   2.826  23.587 -0.1457  0.3271 -0.0722
31314W        W74408  32.431   0.862  26.168  0.0691  0.4010 -0.3036
31315W        W74409  31.985   1.858  25.380  0.0897  0.0424  0.1114
31316W        W74410  30.631   2.177  26.041 -0.2090 -0.0647  0.2672
31317W        W74411  33.763   1.248  27.689  0.2237  0.1887 -0.1007
31318W        W74412  32.448   2.857  27.431 -0.5601  0.2419 -0.0534
31319W        W74413  29.072   1.504  26.455  0.0742  0.0788 -0.0546
31320W        W74414  31.139   3.922  26.778 -0.2927  0.1694 -0.0428
31321W        W74415  32.180   3.021  24.220 -0.3103  0.0945  0.1085
31322W        W74416  30.925   2.389  26.402 -0.1030  0.3010  0.0527
31323W        W74417  28.338   1.368  27.013  0.1033  0.1218 -0.1684
31324W        W74418  31.598   1.818  27.197 -0.0861 -0.0139 -0.2167
31325W        W74419  31.673   2.436  25.923 -0.1518 -0.0083  0.3036
31326W        W74420  30.982   1.152  24.591  0.0911  0.1351 -0.1390
31327W        W74421  30.122   2.654  24.101 -0.0173 -0.1781  0.2390
31328W        W74422  29.291   3.812  27.549 -0.0124 -0.2272  0.0904
31329W        W74423  29.997   2.953  26.387 -0.0423  0.0200  0.0427
31330W        W74424  30.394   3.783  23.908  0.0945 -0.0325  0.1111
31331W        W74425  32.289   1.679  23.979  0.1316 -0.2673 -0.0552
31332W        W74426  31.004   2.833  24.885  0.4575  0.3431 -0.1229
31333W        W74427  32.958   2.965  24.903  0.1036  0.0431 -0.0445
31334W        W74428  30.223   3.295  25.547  0.0226 -0.1465 -0.1954
31335W        W74429  29.285   3.694  24.716  0.0340 -0.2769  0.0103
31336W        W74430  28.449   3.382  24.065 -0.0036 -0.0913 -0.0978
31337W        W74431  32.204   2.463  24.002  0.2242 -0.0918 -0.2318
31338W        W74432  29.894   3.346  24.175  0.0387  0.3211 -0.0556
31339W        W74433  32.679   2.471  28.050 -0.0542  0.1682  0.2010
31340W        W74434  31.813   1.069  24.034 -0.0451 -0.1180  0.1191
31341W        W74435  31.592   1.978  25.641  0.0271 -0.2199 -0.0119
31342W        W74436  31.799   1.177  24.837  0.1713  0.0172 -0.1386
31343W        W74437  31.629   2.789  28.603  0.0209  0.1157 -0.0774
31344W        W74438  31.271   2.716  26.326 -0.0502  0.0422  0.0681
31345W        W74439  32.544  34.491  23.668  0.4101  0.1307 -0.0572
31346W        W74440  31.854   1.332  27.294  0.0310 -0.2189 -0.0009
31347W        W74441  33.201   0.550  26.542  0.1450 -0.0618  0.0358
31348W        W74442  29.552   5.305  26.772  0.0026 -0.2081 -0.0994
31349W        W74443  31.998   3.818  24.660 -0.0744 -0.1665  0.1090
31350W        W74444  28.921   1.608  25.458 -0.1058 -0.2816 -0.4098
31351W        W74445  28.999   1.152  27.356 -0.0429  0.0349 -0.1468
31352W        W74446  32.945  34.129  25.469  0.1927  0.0112 -0.1261
31353W        W74447  30.454   1.042  24.723 -0.1662 -0.2648  0.0913
31354W        W74448  31.279   0.224  24.581  0.0723 -0.0359  0.1387
31355W        W74449  31.435   3.737  27.170 -0.0248 -0.1278 -0.0475
31356W        W74450  30.512   3.763  26.729  0.0390 -0.1656 -0.0199
31357W        W74451  30.423   4.059  26.234 -0.2504  0.2999 -0.1821
31358W        W74452  28.920   0.706  25.101  0.0607 -0.0168 -0.0346
31359W        W74453  33.222   1.962  23.931 -0.1644 -0.0802 -0.2121
31360W        W74454  30.344   1.216  25.813 -0.2989  0.0866  0.0227
31361W        W74455  32.117   0.489  26.025 -0.4734 -0.3100  0.1211
31362W        W74456  28.620   1.070  25.318  0.2157 -0.3159 -0.1627
31363W        W74457  32.138   2.051  24.307 -0.0563 -0.2607 -0.1043
31364W        W74458  30.843   1.941  27.215  0.1399 -0.0824  0.2394
31365W        W74459  29.805   2.702  25.989 -0.0002 -0.0750 -0.2958
31366W        W74460  29.791   1.780  23.491 -0.0313 -0.0224  0.2932
31367W        W74461  33.791   3.182  27.588  0.2767  0.2164 -0.4916
31368W        W74462  30.292   1.297  23.887  0.2326 -0.0824  0.0606
31369W        W74463  32.661   4.094  28.823 -0.0136  0.1221 -0.0565
31370W        W74464  29.988   1.034  26.099 -0.0710  0.4289 -0.0832
31371W        W74465  30.044   2.560  24.582  0.3351 -0.0087  0.1778
31372W        W74466  30.263   1.011  25.213 -0.0439 -0.1852 -0.3245
31373W        W74467  31.185   2.328  25.869 -0.2019 -0.0089  0.1126
31374W        W74468  30.957   2.793  26.802 -0.0650  0.0441  0.0196
31375W        W74469  29.718   1.221  25.547 -0.1338  0.3007  0.0781
31376W        W74470  32.474   3.777  24.758 -0.0189  0.0720 -0.1265
31377W        W74471  32.915   3.146  27.231 -0.1275 -0.2304 -0.2560
31378W        W74472  29.254   4.030  22.515 -0.2332  0.2023 -0.1871
31379W        W74473  31.460   2.682  25.024  0.0436 -0.3252 -0.1372
31380W        W74474  31.976   2.959  26.618  0.1438  0.1993  0.1422
31381W        W74475  29.881   2.110  27.423  0.2435  0.0869 -0.0475
31382W        W74476  32.218   3.268  27.067 -0.1776  0.3100 -0.0562
31383W        W74477  32.958   2.993  26.294  0.0597 -0.1034 -0.0357
31384W        W74478  31.576   1.504  25.177 -0.1607  0.0224 -0.2302
31385W        W74479  30.666   1.437  27.243  0.0757  0.1812  0.1476
31386W        W74480  29.261   1.241  24.967 -0.2091  0.1475 -0.0047
31387W        W74481  32.236   1.619  26.090 -0.0485 -0.1617 -0.2774
31388W        W74482  33.209   1.840  25.322 -0.2108 -0.3427 -0.0906
31389W        W74483  31.463   2.674  23.072 -0.2926  0.0500 -0.0319
31390W        W74484  33.325  34.197  27.069 -0.1910 -0.0565 -0.0571
31391W        W74485  32.584   2.655  26.386 -0.2553 -0.2724  0.0179
31392W        W74486  31.524   4.858  27.734 -0.2597 -0.0744  0.0563
31393W        W74487  27.017   1.879  24.188  0.0098 -0.1449  0.0248
31394W        W74488  31.032   3.126  26.080  0.0634  0.1973  0.2165
31395W        W74489  29.745   1.705  25.030  0.0826  0.0781  0.1784
31396W        W74490  30.699   3.248  24.579  0.3669  0.0904  0.0132
31397W        W74491  33.395   3.067  27.264 -0.2390  0.0198  0.0649
31398W        W74492  31.155   1.358  26.141 -0.1829 -0.1310 -0.0182
31399W        W74493  32.204   2.126  24.869 -0.0628  0.1311 -0.0495
31400W        W74494  30.424   1.089  26.433 -0.0723 -0.1463 -0.1019
31401W        W74495  32.932   0.880  26.015 -0.1830  0.2918 -0.0449
31402W        W74496  31.194   1.597  24.770 -0.0872  0.0213 -0.3025
31403W        W74497  31.628   2.491  27.601  0.6421  0.1487  0.0382
31404W        W74498  30.640   1.431  23.587  0.0108  0.0220  0.0601
31405W        W74499  28.730   2.896  23.448 -0.0327 -0.4375 -0.0010
31406W        W74500  29.807   2.525  25.520 -0.1612  0.1367 -0.2699
31407W        W74501  32.485   1.056  28.279  0.1341 -0.0828  0.3665
31408W        W74502  29.222   1.530  27.087 -0.1185  0.2848 -0.0819
31409W        W74503  28.942   2.015  26.490  0.2898  0.1263  0.1517
31410W        W74504  29.567   0.819  25.862  0.1646  0.1232 -0.0380
31411W        W74505  32.765   3.746  24.304  0.3609 -0.0884  0.1700
31412W        W74506  30.614   0.565  24.794 -0.3461 -0.0085  0.0794
31413W        W74507  28.453   0.466  25.203  0.0724 -0.1339 -0.0630
31414W        W74508  31.390   2.807  25.803 -0.0990  0.2771 -0.2047
31415W        W74509  32.179   4.280  24.680  0.0487  0.1221  0.4064
31416W        W74510  31.006   1.891  26.087 -0.0664  0.0320 -0.1385
31417W        W74511  32.913   3.713  27.525 -0.0014 -0.0562  0.3752
31418W        W74512  28.778   3.356  23.196 -0.2577 -0.0961  0.1181
31419W        W74513  30.980   2.390  28.248  0.0853  0.0718 -0.0834
31420W        W74514  31.806   2.509  26.421 -0.0041  0.1147  0.2209
31421W        W74515  30.235  34.129  23.987 -0.0614  0.2264 -0.1114
31422W        W74516  30.477   0.514  25.324 -0.3231 -0.0461  0.1464
31423W        W74517  31.705   3.989  25.127 -0.1863  0.2029  0.3414
31424W        W74518  30.879   2.787  24.337  0.1138 -0.1707  0.4097
31425W        W74519  32.128   2.518  26.044  0.1022 -0.0863 -0.0034
31426W        W74520  32.005   2.746  27.858 -0.0622  0.0726  0.0267
31427W        W74521  28.808  33.228  28.941 -0.1892  0.2435 -0.0418
31428W        W74522  30.927   1.990  25.589 -0.3792 -0.1847 -0.2721
31429W        W74523  30.691   2.497  27.530 -0.1930 -0.1660 -0.2670
31430W        W74524  33.210   3.412  23.925 -0.0191  0.0675 -0.1884
31431W        W74525  33.082   1.340  25.842 -0.1935  0.1680  0.0071
31432W        W74526  30.495   0.682  24.179 -0.0055  0.2388  0.1414
31433W        W74527  31.052   1.117  26.996 -0.0388 -0.1388 -0.1449
31434W        W74528  29.481   5.002  26.260  0.0676 -0.0661  0.0642
31435W        W74529  33.469   3.116  28.033 -0.1442  0.1325 -0.0555
31436W        W74530  29.647  34.130  24.839 -0.0867  0.0135 -0.0075
31437W        W74531  32.010   1.430  24.344  0.0858 -0.0379 -0.0174
31438W        W74532  30.262   3.433  25.002 -0.4244  0.4508  0.0855
31439W        W74533  28.975   1.919  26.983 -0.1420  0.0208  0.2024
31440W        W74534  30.876   1.921  24.401  0.0425  0.1374 -0.1878
31441W        W74535  32.236   2.343  26.641 -0.1523 -0.0361 -0.0985
31442W        W74536  30.670   1.484  26.233  0.3353  0.2216  0.0618
31443W        W74537  33.454   3.235  26.348 -0.1102  0.1224  0.2215
31444W        W74538  30.115   1.343  24.390 -0.5244  0.1902 -0.0673
31445W        W74539  32.719   3.294  24.078 -0.0398 -0.0883  0.0601
31446W        W74540  31.484   2.956  26.735  0.3932  0.1591 -0.3090
31447W        W74541  34.273   3.796  27.639  0.3926  0.0584 -0.1553
31448W        W74542  31.949   5.034  28.047 -0.3113  0.1004  0.2241
31449W        W74543  31.962   2.038  26.115  0.0076 -0.1271 -0.2747
31450W        W74544  30.753   1.007  26.051 -0.0814  0.1055  0.1759
31451W        W74545  30.000   2.271  24.964 -0.0364  0.0804 -0.2736
31452W        W74546  30.475   2.748  24.655 -0.1727 -0.0258 -0.0696
31453W        W74547  33.009   1.734  27.423  0.0236 -0.1377 -0.0277
31454W        W74548  28.518   1.671  26.192 -0.0120 -0.3768  0.0046
31455W        W74549  30.756   0.953  25.080  0.1127 -0.0382  0.0207
31456W        W74550  30.222   3.140  27.452  0.1184 -0.0188 -0.0883
31457W        W74551  30.384   1.876  26.946 -0.0728 -0.2334  0.0080
31458W        W74552  29.634   3.190  29.518  0.0391 -0.0743  0.2290
31459W        W74553  30.870   2.076  27.814 -0.2635  0.0930  0.1592
31460W        W74554   0.109   1.363  26.191 -0.3827  0.2911 -0.2142
31461W        W74555  32.923   4.157  29.269  0.1600  0.1773 -0.3912
31462W        W74556  29.025  34.556  29.180 -0.2013 -0.1341  0.1534
31463W        W74557  32.081   3.357  28.316 -0.1760  0.0288  0.2359
31464W        W74558  30.221   0.713  30.720  0.1042 -0.0333  0.2292
31465W        W74559  31.573   2.706  31.034 -0.2192  0.2470 -0.0716
31466W        W74560  33.340   3.676  29.530 -0.0104 -0.1544  0.1429
31467W        W74561  31.585   2.623  28.104 -0.1589  0.3208  0.0618
31468W        W74562  31.402   1.649  29.872 -0.1942  0.0680  0.1863
31469W        W74563  30.549   3.492  30.597 -0.0749  0.0218  0.2932
31470W        W74564  30.297   0.895  27.816  0.0981  0.2667 -0.0828
31471W        W74565  30.025   0.606  29.663  0.0091 -0.2504 -0.0581
31472W        W74566  31.751   3.154  30.853 -0.2081  0.1100 -0.0419
31473W        W74567  28.779   3.373  28.663  0.1200 -0.0169  0.4212
31474W        W74568  31.693   2.686  30.057 -0.3632  0.1650  0.0647
31475W        W74569  31.061   1.536  28.961  0.2295  0.2573 -0.3141
31476W        W74570  33.626   4.402  30.121  0.0628 -0.4030 -0.2034
31477W        W74571  30.944   1.163  29.833 -0.4684 -0.0315 -0.0994
31478W        W74572  30.364   1.648  30.451 -0.1739  0.0876  0.0081
31479W        W74573  29.204   3.579  29.363  0.1158 -0.2271 -0.2596
31480W        W74574  29.442   1.912  27.205  0.0010  0.0189  0.2673
31481W        W74575  28.960   0.658  29.023 -0.0012  0.1111  0.0590
31482W        W74576  29.634   2.231  31.390 -0.0297  0.0297 -0.0780
31483W        W74577  32.072   1.486  30.874 -0.0839 -0.0737 -0.1162
31484W        W74578  32.773   3.209  30.372  0.0832  0.2796 -0.0935
31485W        W74579  31.476   2.347  29.113  0.1363  0.1088  0.1744
31486W        W74580  32.078   1.771  27.046  0.0842 -0.1452  0.0785
31487W        W74581  31.799   0.984  30.873 -0.3402 -0.1679  0.1263
31488W        W74582  29.248   2.883  28.804 -0.1512  0.0935 -0.1983
31489W        W74583  28.958   4.306  27.624  0.0926  0.2535 -0.5358
31490W        W74584  31.197   3.516  28.977  0.0732  0.1992  0.0645
31491W        W74585  33.002   2.469  29.007  0.2072 -0.0086 -0.1406
31492W        W74586  33.051   3.792  31.161 -0.1895 -0.1049  0.0116
31493W        W74587  30.809   4.754  31.069  0.3966  0.1168 -0.2771
31494W        W74588  29.808   2.489  27.065 -0.2255 -0.0967  0.1188
31495W        W74589  31.512   4.363  31.248 -0.1951 -0.1446 -0.2275
31496W        W74590  32.247   3.975   0.069  0.1582  0.0656  0.2391
31497W        W74591  31.802   2.861  29.192  0.0692 -0.1332 -0.1495
31498W        W74592  31.511   2.242  30.181  0.2991 -0.1114  0.4794
31499W        W74593  31.270   3.326  27.366 -0.1032  0.2201 -0.1800
31500W        W74594  30.996   2.505  29.235 -0.1658 -0.0409 -0.1312
31501W        W74595  30.597   2.227  31.055  0.0230 -0.1355  0.0273
31502W        W74596  28.765   2.354  28.195  0.2612 -0.1606 -0.0624
31503W        W74597  32.432   0.743  30.120 -0.0908 -0.5589  0.0779
31504W        W74598  31.176   3.005  28.232  0.1019 -0.5029 -0.3320
31505W        W74599  31.969   2.082  27.428  0.0164 -0.2989  0.0032
31506W        W74600  31.239   1.777  27.580 -0.1814  0.2279  0.1344
31507W        W74601  33.534   1.741  29.208 -0.2206 -0.0053  0.0367
31508W        W74602  30.514   0.576  28.800  0.2086  0.0495  0.0254
31509W        W74603  31.102   2.662  28.666 -0.0490 -0.1714 -0.0455
31510W        W74604  30.846   2.643  30.718 -0.1448  0.3174  0.3040
31511W        W74605  31.495   2.587  30.558  0.1389  0.2542 -0.0832
31512W        W74606  30.389   2.424  28.645  0.1638 -0.1057 -0.0680
31513W        W74607  31.864   1.911  29.971 -0.0736 -0.0293  0.0236
31514W        W74608  30.867   4.453  30.549 -0.1732 -0.1646 -0.0124
31515W        W74609  30.267   1.929  28.729 -0.0745  0.3124 -0.0916
31516W        W74610  31.962   4.496  28.009 -0.3807 -0.0250  0.0060
31517W        W74611  34.427   4.579  29.866 -0.0504 -0.0089 -0.0592
31518W        W74612  31.516   3.286  28.548 -0.1616 -0.1354  0.2182
31519W        W74613  29.629   1.201  28.965 -0.1847 -0.1415  0.1131
31520W        W74614  29.747   0.747  30.898  0.1496 -0.1716  0.1147
31521W        W74615  29.685   0.625  31.795  0.0553  0.3776 -0.0100
31522W        W74616  30.248   0.212  27.393 -0.3129 -0.0271 -0.0320
31523W        W74617  32.589   1.405  31.442  0.2535  0.2184 -0.2172
31524W        W74618  30.144   3.735  30.559 -0.0785  0.4497  0.2477
31525W        W74619  32.382   0.896  29.545 -0.0290  0.2364 -0.4158
31526W        W74620  31.253   3.626  30.007  0.0892  0.0245 -0.0344
31527W        W74621  33.482   3.672  29.006 -0.1115 -0.0381  0.1001
31528W        W74622  31.730   3.131  28.060 -0.0816 -0.1616  0.0692
31529W        W74623  32.307   1.207  29.995  0.2546  0.1385  0.0762
31530W        W74624  30.950   0.690  29.673 -0.3152 -0.0539 -0.1776
31531W        W74625  31.393   2.140  27.928 -0.0995  0.1089  0.0488
31532W        W74626  31.282   3.388  27.866  0.0859 -0.0241 -0.0360
31533W        W74627  33.882   4.704  30.476  0.0938 -0.0286 -0.1849
31534W        W74628  31.905   2.404  28.651  0.1033 -0.1708  0.1817
31535W        W74629  30.631   2.730  29.460 -0.0736 -0.2617  0.0439
31536W        W74630  30.088   2.116  31.833 -0.2654 -0.0665 -0.1367
31537W        W74631  32.008   4.618  31.287 -0.4499 -0.1335 -0.0341
31538W        W74632  29.695   3.503  26.706 -0.0118  0.1348  0.2018
31539W        W74633  28.803   2.037  29.421  0.0439  0.4825 -0.1992
31540W        W74634  29.532   1.522  29.358 -0.2971  0.0781 -0.1234
31541W        W74635  29.553  33.527  30.215 -0.2525 -0.1631 -0.1190
31542W        W74636  29.753   2.854  30.459 -0.3858 -0.2917 -0.2766
31543W        W74637  32.903   0.860  29.509  0.0685 -0.0645 -0.2572
31544W        W74638  30.273   1.160  30.525  0.1720 -0.0817  0.1378
31545W        W74639  32.968  34.400  29.211  0.2484  0.0737  0.0262
31546W        W74640  29.695   3.443  27.299 -0.0099 -0.2193  0.1434
31547W        W74641  32.726   4.610  28.975  0.0720  0.0729 -0.0617
31548W        W74642  32.563   1.532  28.261  0.2779 -0.1426  0.0589
31549W        W74643  32.836   3.190  29.191  0.1251  0.3048 -0.0248
31550W        W74644  28.257   0.806  29.217 -0.0969 -0.1388  0.1291
31551W        W74645  31.316   1.061  28.960  0.1749  0.1239 -0.3373
31552W        W74646  30.459   1.321  30.036 -0.4135 -0.1060 -0.2210
31553W        W74647  30.363   0.415  30.270 -0.3508  0.0917  0.0100
31554W        W74648  32.338   1.563  30.435  0.0520 -0.1091  0.0188
31555W        W74649  30.612  34.604  27.135 -0.2216  0.1876 -0.1530
31556W        W74650  32.610   1.974  27.454  0.0874  0.2591  0.1782
31557W        W74651  31.399   2.703  29.680  0.0420 -0.0189 -0.3581
31558W        W74652  30.015   3.279  29.146  0.2996 -0.0405 -0.1659
31559W        W74653  32.963  33.349  30.505 -0.1013  0.2218 -0.2965
31560W        W74654  31.990   5.106  28.544 -0.1208 -0.2782 -0.3850
31561W        W74655  33.340   3.911  30.741 -0.1346  0.0306 -0.1954
31562W        W74656  33.335   4.344  29.672 -0.1351  0.0232  0.1421
31563W        W74657  29.814   1.685  31.206  0.1533  0.2046  0.1626
31564W        W74658  29.673   1.136  28.342  0.2876  0.0705 -0.1033
31565W        W74659  30.196   3.775  29.282  0.3394 -0.0002 -0.0034
31566W        W74660  31.071   4.068  29.861  0.2538 -0.1642  0.1444
31567W        W74661  30.221   1.256  27.392  0.3040  0.3264  0.0592
31568W        W74662  34.630   4.437  28.651 -0.1267  0.3709  0.1599
31569W        W74663  30.726   3.725  28.527  0.0405  0.0156  0.1585
31570W        W74664  29.348   3.264  30.421  0.1345  0.0238  0.1601
31571W        W74665  32.058   0.016  30.793 -0.2290 -0.1437  0.0575
31572W        W74666  31.878   2.679  31.736  0.2699 -0.0715  0.2916
31573W        W74667  31.257   3.001  29.069  0.0677 -0.0081 -0.0608
31574W        W74668  31.575   1.133  26.861 -0.1116 -0.0960  0.2452
31575W        W74669  32.327   4.445  29.280 -0.0797  0.1208  0.3595
31576W        W74670  30.346   4.124  27.128  0.3719  0.2194  0.0791
31577W        W74671  29.745   3.681  28.162  0.1742 -0.4142 -0.0560
31578W        W74672  30.245   2.834  29.147 -0.0011  0.0620 -0.5188
31579W        W74673  31.395   0.369  29.146 -0.1160 -0.3642 -0.1389
31580W        W74674  29.750   1.063  30.503  0.1947  0.0486  0.2004
31581W        W74675  30.360   1.731  31.105 -0.0300  0.1149  0.0570
31582W        W74676  29.467   1.972  27.712  0.2427 -0.0582  0.1037
31583W        W74677  29.347   2.918  30.880 -0.1807 -0.0852  0.3592
31584W        W74678  32.016   1.318  28.391  0.0166  0.4846  0.1637
31585W        W74679  33.533   1.325  27.223 -0.1581 -0.1370  0.1706
31586W        W74680  31.891   3.100  30.266  0.0275 -0.0298  0.0981
31587W        W74681  33.947   3.421  29.007 -0.2744  0.0664  0.1501
31588W        W74682  32.412   1.537  28.872  0.0290 -0.1742  0.0643
31589W        W74683  32.098   1.053  26.825  0.1202  0.1881 -0.0366
31590W        W74684  28.310   2.367  30.939  0.1204 -0.2067 -0.2234
31591W        W74685  30.913   3.184  28.693 -0.1364  0.1387 -0.3697
31592W        W74686  31.103   3.284  29.525 -0.3602  0.0770  0.1192
31593W        W74687  32.568   0.869  26.952 -0.1995 -0.0433 -0.1668
31594W        W74688  31.758   3.747  28.613  0.3266 -0.1853 -0.1832
31595W        W74689  29.278   2.284  29.621  0.3160 -0.1157 -0.2077
31596W        W74690  32.352   1.826  31.174  0.3374  0.1418 -0.0480
31597W        W74691  31.617   3.323  29.329  0.2556 -0.0351  0.0112
31598W        W74692  30.589   0.833  30.221  0.3163  0.1936 -0.1474
31599W        W74693  30.308   2.416  27.203  0.0606 -0.1091  0.0331
31600W        W74694  32.597   2.216  28.784  0.0581  0.0888  0.1630
31601W        W74695  28.651   4.300  26.943 -0.0244 -0.1040  0.0976
31602W        W74696  31.716   0.466  29.541  0.0893 -0.2281 -0.2047
31603W        W74697  29.209   0.491  30.892  0.1149  0.0397  0.1913
31604W        W74698  32.572  33.278  29.428 -0.1171  0.1008  0.1454
31605W        W74699  32.148   2.011  29.598 -0.0611 -0.2146 -0.0162
31606W        W74700  31.820   1.048  28.795 -0.0382 -0.2869 -0.0180
31607W        W74701  31.310   2.920  30.260 -0.2583  0.2771  0.1047
31608W        W74702  30.617   3.170  29.255  0.1317 -0.3265 -0.2811
31609W        W74703  31.995   0.538  30.419  0.0443 -0.0875 -0.1028
31610W        W74704  28.980   1.871  30.612 -0.3319  0.0666  0.1285
31611W        W74705  29.320   3.681  28.675  0.1296 -0.0376  0.2359
31612W        W74706  32.145   3.403  31.208  0.3408 -0.1878 -0.3131
31613W        W74707  32.939   1.890  28.441  0.0400 -0.2183  0.0294
31614W        W74708  31.864   0.623   0.152  0.3126 -0.1015 -0.0362
31615W        W74709  31.385   1.640  28.088 -0.0966 -0.3263  0.2165
31616W        W74710  31.528   5.113  28.801  0.2089  0.0374 -0.2474
31617W        W74711  31.610   2.793  27.195  0.0500  0.1255 -0.0349
31618W        W74712  31.174  34.582  30.561  0.1855 -0.1584 -0.3560
31619W        W74713  30.720   3.818  30.325 -0.2147  0.2232  0.0045
31620W        W74714  31.934   3.079  27.482 -0.0468 -0.0559 -0.0333
31621W        W74715  32.342   2.003  30.245 -0.0809  0.0475  0.1477
31622W        W74716  30.527   4.108  27.911 -0.0480  0.3118 -0.1062
31623W        W74717  33.506  34.338  28.867  0.0674  0.1814  0.0375
31624W        W74718  29.085   4.101  29.584  0.2450 -0.1024  0.0879
31625W        W74719  29.907   3.358  28.534  0.1345 -0.1506 -0.0058
31626W        W74720  29.995   0.859  28.711  0.0747 -0.1670 -0.1221
31627W        W74721  32.592   0.079  28.308 -0.0754 -0.2386 -0.0699
31628W        W74722  32.907   3.981  28.349  0.1355  0.1730 -0.2115
31629W        W74723  30.917   2.533  30.203 -0.1488  0.2953 -0.0331
31630W        W74724  31.316   1.945  28.890  0.0919  0.0345 -0.1188
31631W        W74725  29.722   2.812  28.469 -0.1169 -0.3197  0.1698
31632W        W74726  32.010   2.509  31.250  0.0113 -0.1713  0.3258
31633W        W74727  33.185   1.548  27.985 -0.0407  0.2064 -0.0202
31634W        W74728  32.084   3.438  30.601  0.0272 -0.0748 -0.2143
31635W        W74729  31.039   2.533   0.567 -0.0327 -0.2014  0.2688
31636W        W74730  28.984   1.901  28.008 -0.2547  0.3163  0.0316
31637W        W74731  32.575   2.326  29.322  0.2132  0.1959 -0.2348
31638W        W74732  31.218   2.056  29.484 -0.0410 -0.1674  0.4506
31639W        W74733  29.944   2.278  29.035  0.1214  0.3400 -0.0779
31640W        W74734  33.330   4.063  27.882  0.2700  0.0587 -0.0880
31641W        W74735  29.338   1.584  28.044  0.1534  0.1965  0.1879
31642W        W74736  29.437   3.249  28.466  0.1692  0.3021 -0.0571
31643W        W74737  29.055   2.129  31.905  0.4153  0.2325  0.2009
31644W        W74738  32.160   1.685   0.083 -0.0652  0.1143 -0.2194
31645W        W74739  31.056   1.573  29.482  0.1699  0.2458  0.2751
31646W        W74740  30.752   1.118  28.224 -0.0667 -0.2662  0.0701
31647W        W74741  31.485   1.413  29.301 -0.0009  0.1732 -0.0918
31648W        W74742  33.509   2.719  30.634 -0.0128 -0.0460 -0.3256
31649W        W74743  32.367  34.127  30.442  0.0365  0.0250  0.4428
31650W        W74744  30.277   3.019  30.550 -0.2075 -0.0713  0.1831
31651W        W74745  30.527   0.466  29.750  0.0354  0.4019  0.1585
31652W        W74746  32.271   3.755  28.679  0.3115 -0.0897 -0.0496
31653W        W74747  33.494   2.640  31.604  0.0752 -0.1970  0.0692
31654W        W74748  30.133   2.898  28.663  0.0622  0.2511 -0.0384
31655W        W74749  28.230   2.578  29.536 -0.1129  0.0269  0.0243
31656W        W74750  30.840   1.606  28.137  0.0868 -0.2378 -0.1935
31657W        W74751  32.477   2.283  29.864  0.1418 -0.1194  0.1137
31658W        W74752  29.775   3.042  30.002 -0.2180  0.4795 -0.0539
31659W        W74753  30.135   3.008  29.614  0.0266 -0.0006 -0.1365
31660W        W74754  29.774   2.634  29.421 -0.4502  0.1313  0.1944
31661W        W74755  33.217   0.242  28.820 -0.0682  0.1528  0.1919
31662W        W74756  31.388   2.932  27.681 -0.0773 -0.0558  0.1694
31663W        W74757  31.735   1.239  27.963  0.1722 -0.0523 -0.1269
31664W        W74758  32.766   0.164  31.586  0.0455 -0.0550  0.3137
31665W        W74759  32.135   2.819  28.820 -0.2302 -0.0812 -0.4193
31666W        W74760  31.429   0.806  31.222 -0.1712  0.3975  0.4367
31667W        W74761  29.669   0.894  31.362  0.1265  0.0939  0.2745
31668W        W74762  33.012   3.763  30.415 -0.0703 -0.3203 -0.2469
31669W        W74763  29.566   0.538  30.489 -0.1605  0.2500 -0.0223
31670W        W74764  31.381   4.054  30.334  0.0620  0.2031 -0.1271
31671W        W74765  30.117   2.182  31.244 -0.1258  0.1323 -0.0988
31672W        W74766  30.126   0.833  26.780  0.0727 -0.1629 -0.0825
31673W        W74767  31.070   0.177  27.795 -0.0308 -0.1248  0.1039
31674W        W74768  30.275   1.755  29.864 -0.0955 -0.1589 -0.1641
31675W        W74769  32.287   3.002  29.256 -0.0071  0.0506 -0.1444
31676W        W74770  31.758   3.522  27.526 -0.2348 -0.0103  0.0836
31677W        W74771  31.934   1.476  29.075 -0.0104  0.1085  0.3316
31678W        W74772  28.875   2.198  29.931  0.2491 -0.0391  0.0987
31679W        W74773  31.521   1.116  28.390 -0.1619 -0.0179  0.4646
31680W        W74774  33.256   2.583  27.207  0.0045  0.2871  0.0941
31681W        W74775  29.847   1.774  28.986 -0.4586 -0.0606 -0.2269
31682W        W74776  30.072   0.825  30.135  0.1655  0.0861  0.3596
31683W        W74777  32.973   2.310  30.836 -0.1295 -0.0894 -0.0574
31684W        W74778  32.969   0.956  28.188 -0.2022 -0.0806  0.1522
31685W        W74779  31.168   1.515  30.751 -0.0381  0.2060  0.2178
31686W        W74780  32.117   2.628  29.684 -0.1873  0.2970  0.3017
31687W        W74781  31.515   2.356  31.385 -0.2142 -0.0728 -0.0812
31688W        W74782  29.949   0.473   0.282  0.1586  0.2843 -0.0368
31689W        W74783  30.982   4.262  31.312  0.2260 -0.1208 -0.3161
31690W        W74784  33.558   1.734  27.590  0.0611  0.2274  0.1519
31691W        W74785  32.867   1.425  28.702  0.1383 -0.1796 -0.1661
31692W        W74786  32.652   2.781  29.535 -0.2894 -0.0185 -0.4656
31693W        W74787  30.749   2.889  27.951 -0.3248 -0.1318 -0.6118
31694W        W74788  30.898   2.441  29.744  0.1805  0.0046 -0.1648
31695W        W74789  31.782   1.983   0.227 -0.0465  0.2503 -0.2500
31696W        W74790  32.280   1.862  28.545 -0.2310 -0.1624 -0.2411
31697W        W74791  31.822   1.430  30.067 -0.0368  0.2057  0.1099
31698W        W74792  30.771   4.569  28.029 -0.3812  0.1546  0.1365
31699W        W74793  30.704   1.890  29.092 -0.1710 -0.1151 -0.0751
31700W        W74794  31.377  34.450  27.392 -0.0195  0.0675 -0.0116
31701W        W74795  29.079   1.214  29.381  0.0882  0.1519 -0.0638
31702W        W74796  31.287   4.817  30.387  0.3268 -0.0203 -0.1093
31703W        W74797  31.463   1.150  27.583  0.2852  0.1105  0.1047
31704W        W74798  31.115   2.544  27.791  0.4748 -0.3723 -0.0802
31705W        W74799  33.129   3.437  30.789  0.0915  0.3708 -0.0733
31706W        W74800  31.618   1.474  31.135 -0.1680 -0.0188 -0.2062
31707W        W74801  32.112   0.839  28.062 -0.3105  0.0429 -0.1465
31708W        W74802  32.354   1.470  29.404 -0.2002 -0.0250  0.1930
31709W        W74803  29.260   3.442  27.035  0.0916 -0.1377  0.2203
31710W        W74804  30.712   1.680  28.616  0.0682 -0.1741  0.0426
31711W        W74805  30.067   4.150  30.152  0.2102  0.0925  0.1617
31712W        W74806  28.180   3.552  30.110 -0.3402 -0.0712  0.0739
31713W        W74807  30.704   4.223  28.870  0.1400 -0.0036 -0.1188
31714W        W74808  32.417   0.258  30.295  0.5358 -0.0909  0.1908
31715W        W74809  32.783   2.340  30.337 -0.0337  0.0327  0.1218
31716W        W74810  30.258   1.904  29.317 -0.4178 -0.4859  0.0156
31717W        W74811  31.882   1.551  29.606  0.0898  0.0884  0.1002
31718W        W74812  32.158   2.239   0.131  0.2325  0.2223 -0.1864
31719W        W74813  30.422   2.659  30.001  0.2335  0.2003 -0.2583
31720W        W74814  31.879   4.059  30.602 -0.0479  0.1384 -0.1024
31721W        W74815  34.021   1.970  28.351 -0.0683  0.2453 -0.1657
31722W        W74816  29.971   3.486  27.747 -0.3757  0.0773  0.2177
31723W        W74817  29.451   0.841  30.086 -0.3908 -0.1257  0.0640
31724W        W74818  31.082   1.248   0.027  0.1150 -0.0787 -0.0987
31725W        W74819  32.018   2.426  29.217 -0.0461 -0.0000 -0.0849
31726W        W74820  30.846   2.275  28.730  0.1699  0.1474 -0.2137
31727W        W74821  30.807   3.331  28.131 -0.2272 -0.1587  0.2024
31728W        W74822  29.574   3.889  31.299  0.3265  0.3086 -0.4013
31729W        W74823  28.074   1.816  30.287 -0.3188 -0.3457 -0.0055
31730W        W74824  32.675   3.632  30.066  0.2378  0.2273 -0.0478
31731W        W74825  31.821   1.956  28.819 -0.0924  0.1666 -0.0999
31732W        W74826  30.703   2.750  28.915  0.0551  0.1926  0.0951
31733W        W74827  31.579   1.620  28.615 -0.1131 -0.0074 -0.1640
31734W        W74828  31.149   1.908  28.411 -0.1405 -0.0724  0.1837
31735W        W74829  30.845   3.998  29.249  0.0049 -0.3902  0.0406
31736W        W74830  30.743   2.939  26.454  0.2252 -0.1864 -0.1217
31737W        W74831  30.951   4.151  28.305  0.2745  0.2669 -0.0675
31738W        W74832  28.197   3.484  29.611 -0.1987 -0.0102 -0.0601
31739W        W74833  33.547   1.341  31.548 -0.1361  0.0215 -0.0251
31740W        W74834  32.784   0.831  26.496 -0.0080  0.3356 -0.3280
31741W        W74835  32.933   3.065  28.754  0.2446 -0.0794  0.1254
31742W        W74836  33.044   1.357  27.087 -0.0980  0.1663 -0.2210
31743W        W74837  33.197   3.262   0.179  0.0437  0.2828  0.4391
31744W        W74838  30.766   2.716  31.180 -0.0419  0.2727 -0.1224
31745W        W74839  32.479   0.641  27.376 -0.1211  0.0766  0.0436
31746W        W74840  31.189   2.421  30.989 -0.4856  0.1028 -0.2758
31747W        W74841  32.564  34.573  30.599 -0.1616  0.0500 -0.3982
31748W        W74842  30.399   3.785  29.915 -0.1912  0.0365  0.1118
31749W        W74843  32.987   4.279  27.431 -0.0703  0.1460  0.0465
31750W        W74844  30.594   0.862  27.419 -0.0909 -0.0183 -0.1533
31751W        W74845  29.666   2.028  29.427 -0.0966  0.1240 -0.0495
31752W        W74846  32.894  34.202  30.687  0.0065  0.2641  0.1476
31753W        W74847  31.240   2.223  27.363  0.0922 -0.3290 -0.1701
31754W        W74848  31.212   1.185  28.013  0.1364 -0.1120  0.2408
31755W        W74849  30.798   3.442  29.906 -0.0581 -0.2316 -0.0106
31756W        W74850  32.036   3.209  29.651 -0.0680  0.3090 -0.0703
31757W        W74851  31.221   4.545  30.896  0.2862 -0.1148  0.0687
31758W        W74852  28.275   0.911  27.850 -0.0700  0.0393 -0.0516
31759W        W74853  33.249   1.110  28.605  0.2512 -0.1088 -0.1281
31760W        W74854  31.579   0.341  30.860  0.1390  0.1185 -0.1473
31761W        W74855  32.720   1.128  31.037 -0.2522 -0.1365  0.1833
31762W        W74856  30.150   2.737  28.141 -0.0123 -0.0262  0.1105
31763W        W74857  33.842   2.486  28.490 -0.0249 -0.0081  0.2844
31764W        W74858  31.318   1.934  31.223  0.3865  0.2245  0.0118
31765W        W74859  29.932   1.915  30.247 -0.1120  0.0920 -0.0318
31766W        W74860  31.652   1.923  29.287 -0.2988 -0.1100 -0.2167
31767W        W74861  33.399   2.016  30.757 -0.2392  0.0821  0.0022
31768W        W74862  31.493   2.242  28.458  0.0236  0.2066 -0.3209
31769W        W74863  31.584   4.167  29.721  0.1840 -0.1111 -0.0890
31770W        W74864  29.835   1.069  27.676  0.1830  0.0443  0.3777
31771W        W74865  33.538   1.209  28.193  0.1757  0.1141  0.1764
31772W        W74866  30.523   1.448  29.301  0.0723  0.2906  0.0937
31773W        W74867  31.224   1.325  30.244  0.0291 -0.3521  0.0659
31774W        W74868  33.766   3.036  30.263 -0.1645  0.1138 -0.2830
31775W        W74869  30.422   0.993  29.070  0.1059 -0.1502  0.2179
31776W        W74870  32.569   2.763  28.476 -0.2460  0.1300 -0.2707
31777W        W74871  33.238   3.204  29.647  0.2476  0.0795  0.3525
31778W        W74872  32.643   4.383  28.326 -0.2819  0.1223 -0.0564
31779W        W74873  32.439   2.421  31.587 -0.0407 -0.3350  0.0176
31780W        W74874  32.099   4.004  29.413 -0.1466 -0.4986  0.2770
31781W        W74875  28.391   0.878  31.094 -0.2784  0.2116  0.2837
31782W        W74876  32.186   3.519  30.149  0.0174  0.2697 -0.0753
31783W        W74877  33.445   2.803  28.407  0.1355 -0.0075  0.1038
31784W        W74878  32.778   0.932  28.689  0.0226 -0.1998  0.1212
31785W        W74879  31.740   2.309  29.635  0.2779  0.2252  0.2096
31786W        W74880  29.212   2.813  27.827 -0.2787  0.3452 -0.2254
31787W        W74881  32.273   1.927  29.108 -0.2429 -0.2437  0.2770
31788W        W74882  31.532   1.021  29.942  0.1669 -0.0952 -0.0887
31789W        W74883  32.388   3.622  26.341 -0.0726 -0.0343 -0.1081
31790W        W74884  32.039  34.513  30.311  0.1698  0.3090  0.1436
31791W        W74885  31.969   2.685  30.693 -0.0861  0.1070 -0.1932
31792W        W74886  29.821   2.373  30.459  0.2922 -0.2381 -0.2728
31793W        W74887  29.653   1.101  27.199 -0.4089 -0.2333 -0.1452
31794W        W74888  31.891   2.027  30.466  0.2345 -0.1705 -0.1911
31795W        W74889  31.517   3.147  29.834 -0.1007  0.0957 -0.0302
31796W        W74890  32.548   3.868  29.207 -0.3775  0.1052  0.0816
31797W        W74891  32.660   3.560  31.327 -0.1533  0.1204 -0.3550
31798W        W74892  30.836   1.240  27.649  0.0629  0.2967  0.1574
31799W        W74893  34.374   4.429  30.440 -0.1026 -0.1785 -0.0374
31800W        W74894  31.499   0.609  28.611 -0.3287  0.3745 -0.0190
31801W        W74895  31.969   0.755  29.951  0.2317 -0.0886  0.0036
31802W        W74896  32.020   0.648  28.585  0.1464 -0.1739 -0.0423
31803W        W74897  29.433   1.883  29.875 -0.0704 -0.1059  0.1077
31804W        W74898  28.166   1.977  26.450  0.1652  0.1272 -0.0435
31805W        W74899  29.776   3.132  28.066  0.2511 -0.0504 -0.3385
31806W        W74900  29.940   2.155  29.784  0.4243 -0.0264 -0.0785
31807W        W74901  30.032   0.321  31.618 -0.3195  0.0445  0.0188
31808W        W74902  29.345   1.851  31.201 -0.0972  0.2456  0.3209
31809W        W74903  30.035   1.390  29.263 -0.1977  0.5092  0.0945
31810W        W74904  31.086   2.073  30.003 -0.1194 -0.0154 -0.0961
31811W        W74905  32.498   3.161  29.868 -0.0311 -0.2085  0.1583
31812W        W74906  30.799   1.710  29.887  0.2989 -0.3719  0.0055
31813W        W74907  28.702   0.603  29.459 -0.0140 -0.0394  0.3971
31814W        W74908  32.376   1.989  27.965  0.1814  0.0402 -0.0734
31815W        W74909  32.054   4.816  27.548 -0.1972 -0.1341  0.0105
31816W        W74910  30.623   2.080  28.287 -0.3922  0.4154  0.2100
31817W        W74911  32.039   5.000   0.049 -0.2411 -0.0209 -0.0736
31818W        W74912  30.278   3.210  28.188  0.0422 -0.1933 -0.0090
31819W        W74913  29.904   1.235  31.695 -0.0798  0.0444 -0.0995
31820W        W74914  30.521   2.151  30.097 -0.0384  0.2630  0.0474
31821W        W74915  29.649  34.624  27.592 -0.0292 -0.1267  0.0290
31822W        W74916  31.890   1.807  28.243  0.0325 -0.1830  0.1714
31823W        W74917  31.779   3.714  29.655 -0.1284  0.0332 -0.1687
31824W        W74918  32.347   4.651  28.597  0.0452  0.0558  0.2115
31825W        W74919  31.233   2.976  30.737 -0.3218  0.1579  0.0641
31826W        W74920  30.403   4.206  29.432  0.1662  0.0233  0.0214
31827W        W74921  30.350   0.426  29.291  0.0087 -0.1484  0.0456
31828W        W74922  31.473   0.799  27.196  0.0051 -0.0788 -0.1208
31829W        W74923  30.836   5.341  31.227 -0.1169  0.0738 -0.1467
31830W        W74924   0.031   2.210  27.867 -0.4718  0.0498 -0.0932
31831W        W74925  33.202   0.433  29.679  0.1063  0.0297 -0.3854
31832W        W74926  32.203   1.472  27.913  0.2940  0.5992  0.1642
31833W        W74927  29.642   0.425  31.297 -0.1535  0.1050  0.5000
31834W        W74928  29.852   1.595  29.697  0.3317  0.2446 -0.0686
31835W        W74929  33.704   3.064  29.602  0.1153  0.1393  0.1415
31836W        W74930  30.910   1.105  29.284  0.1752  0.0106  0.1027
31837W        W74931  32.058   0.592  29.087  0.2107 -0.0152  0.2846
31838W        W74932  31.879   3.267  28.827  0.0536  0.0437  0.3015
31839W        W74933  28.967   1.644  30.159  0.1865 -0.0790 -0.0121
31840W        W74934  31.741   1.704  27.688 -0.1724  0.0178 -0.0923
31841W        W74935  30.292   2.045   0.313 -0.0180  0.3692  0.1146
31842W        W74936  32.293   3.018  30.941  0.1731  0.0164 -0.0682
31843W        W74937  34.034   2.767  29.905 -0.3802  0.1781 -0.1341
31844W        W74938  30.499   2.323  29.103  0.0424 -0.0213  0.4493
31845W        W74939  32.239   2.362  28.265 -0.1019 -0.1842 -0.0213
31846W        W74940  29.560   4.040  29.883  0.1067 -0.0007  0.2161
31847W        W74941  32.628   2.985  31.555 -0.4001  0.1653 -0.0541
31848W        W74942  32.848   4.090  30.707  0.2081 -0.2382  0.2929
31849W        W74943  33.797   2.271  30.768 -0.1505  0.1655 -0.0526
31850W        W74944  30.507   0.958  29.545  0.0314  0.3937 -0.3233
31851W        W74945  29.950   2.246  28.388 -0.0204  0.0634  0.1500
31852W        W74946  29.726   2.882  28.997 -0.4002  0.2028 -0.0363
31853W        W74947  32.852   1.980  29.932 -0.2175 -0.0284  0.1700
31854W        W74948  31.542   2.114  30.851  0.0248 -0.1178 -0.1278
31855W        W74949  32.724   1.511  27.769 -0.0997  0.0814 -0.2000
31856W        W74950  30.428   4.629  30.822  0.0984 -0.0364  0.1049
31857W        W74951  32.029   2.862  28.319  0.1091 -0.2717  0.1297
31858W        W74952  32.279   0.815  30.746  0.3141  0.3150 -0.0741
31859W        W74953  30.917   1.752  30.388 -0.1418  0.0696 -0.2225
31860W        W74954  29.489   1.315  29.841  0.1193  0.0552 -0.0917
31861W        W74955  28.801   2.378  30.534 -0.2301 -0.0810  0.0272
31862W        W74956  30.070   3.342   0.013 -0.2713  0.0570  0.0620
31863W        W74957  31.000   2.507   0.059 -0.2097 -0.2050 -0.1953
31864W        W74958  32.102   2.460  30.250  0.1807 -0.1163 -0.0092
31865W        W74959  30.781   1.003   0.734 -0.0211  0.0337  0.0936
31866W        W74960  31.976   1.268  31.676  0.2035 -0.1768  0.1076
31867W        W74961  33.403   2.680   0.831  0.0757  0.0276 -0.1697
31868W        W74962  31.356   2.755  31.753 -0.3970 -0.2343  0.0994
31869W        W74963  30.433   0.884   0.323 -0.2380  0.2121  0.2820
31870W        W74964  32.600   1.833   0.246  0.2024 -0.1255 -0.0401
31871W        W74965  31.504   3.412  30.444  0.0388 -0.3187 -0.3476
31872W        W74966  33.796   1.773  31.782  0.1995  0.0237 -0.1081
31873W        W74967  31.006   3.692  30.742  0.4151  0.1001 -0.1827
31874W        W74968  28.375   1.437  31.092 -0.4375  0.0316  0.0658
31875W        W74969  33.285   2.266  31.246  0.0727 -0.0546  0.1746
31876W        W74970  29.153   0.588  31.540  0.1145 -0.0035 -0.0958
31877W        W74971  29.760   1.477   0.497 -0.0647  0.0586  0.3918
31878W        W74972  29.483   1.252  30.910 -0.1198  0.0616  0.0112
31879W        W74973  29.085   3.792  30.942  0.0412 -0.0458 -0.3215
31880W        W74974  33.223   0.416  31.577  0.0395  0.0477  0.2116
31881W        W74975  30.912   0.628  31.164  0.0773  0.1354 -0.1237
31882W        W74976  31.103   0.833  30.286  0.0624 -0.1856  0.0643
31883W        W74977  30.200   1.517   0.245 -0.1657 -0.0131 -0.1341
31884W        W74978  30.623   2.167  30.557  0.3389  0.2271 -0.1006
31885W        W74979  29.934   4.080  31.749 -0.1572  0.1394  0.0871
31886W        W74980  29.939   1.429  30.144  0.0864  0.0543 -0.2998
31887W        W74981  29.931   2.603  31.655 -0.1747 -0.1279  0.1144
31888W        W74982  30.296   2.541  30.525  0.0404 -0.0734  0.1035
31889W        W74983  29.872   2.697   1.042 -0.3359 -0.0658 -0.1915
31890W        W74984  31.875   2.226  31.683 -0.0246  0.1059  0.2694
31891W        W74985  30.270  34.215   0.136  0.1306 -0.0684 -0.3309
31892W        W74986  28.783   1.074  30.859  0.2105  0.3576 -0.0525
31893W        W74987  30.523   2.508   0.344 -0.1630  0.3651 -0.3423
31894W        W74988  31.003   2.880  29.856 -0.1409 -0.0727  0.2452
31895W        W74989  32.753   3.005   0.104  0.1325  0.0044  0.0133
31896W        W74990  31.541   2.412   0.128  0.2069 -0.0901 -0.0204
31897W        W74991  31.223  34.609   0.866 -0.3649 -0.0473 -0.0153
31898W        W74992  31.823   1.901  31.175  0.1876 -0.2075 -0.1128
31899W        W74993  32.002   2.412   0.535 -0.2324  0.0961 -0.2539
31900W        W74994  30.081   2.066  30.778 -0.4010 -0.1658 -0.1331
31901W        W74995  32.997   2.525  31.556  0.3351 -0.2150  0.4086
31902W        W74996  29.519   1.923  30.721 -0.0284 -0.1051 -0.2776
31903W        W74997  29.516   2.323   0.882  0.3459 -0.3727  0.1750
31904W        W74998  30.522   0.879  31.415 -0.0888 -0.3561 -0.0958
31905W        W74999  33.320   2.118  29.953 -0.0114 -0.0711 -0.0434
31906W        W75000  32.881   2.124  31.868 -0.1043 -0.2063 -0.1969
31907W        W75001  29.066   3.102  29.987 -0.0049 -0.1184  0.2603
31908W        W75002  32.149   2.963  31.437 -0.4232 -0.1185 -0.0790
31909W        W75003  32.648  34.531  30.098 -0.2726 -0.2412 -0.0792
31910W        W75004  30.179  34.663  31.981  0.0510  0.1125 -0.0712
31911W        W75005  31.672   3.114  31.374  0.0729  0.0853  0.1110
31912W        W75006  28.486   1.963  31.807 -0.1778  0.0985  0.0805
31913W        W75007  32.220   1.954   0.600  0.1692  0.0309  0.1637
31914W        W75008  34.023   2.805  31.755 -0.0121  0.2282 -0.1573
31915W        W75009  28.187   3.855  31.095  0.0539 -0.0288 -0.2617
31916W        W75010  30.799   3.186  30.828 -0.1021 -0.0398  0.4235
31917W        W75011  30.272   2.579  30.985  0.0906 -0.2352 -0.1904
31918W        W75012  29.929   0.346  30.712  0.1233 -0.3427 -0.3852
31919W        W75013  29.572   3.617  30.894 -0.2817 -0.0492  0.1574
31920W        W75014  29.097   0.889  29.724  0.0793 -0.5158 -0.0617
31921W        W75015  30.206   0.785  31.747 -0.0971  0.0909  0.1200
31922W        W75016  29.899   6.128  31.280  0.0376  0.1232 -0.0992
31923W        W75017  32.247   2.287   1.007  0.2173 -0.0022  0.1576
31924W        W75018  32.606   1.923  30.708  0.0155  0.1171 -0.1390
31925W        W75019  30.204   6.226  19.477  0.0207 -0.1394  0.0659
31926W        W75020  30.186   4.715  17.821  0.0195  0.4033 -0.1139
31927W        W75021  31.159   4.593  16.496  0.0487  0.2432  0.0518
31928W        W75022  31.552   5.500  16.571  0.1020 -0.1408 -0.3269
31929W        W75023  29.802   5.020  17.652  0.0812 -0.1164 -0.1280
31930W        W75024  30.488   6.352  16.024  0.0542  0.1302 -0.0920
31931W        W75025  31.046   3.765  20.361  0.1577  0.0276 -0.3938
31932W        W75026  31.595   8.092  18.420  0.1993  0.1326  0.0018
31933W        W75027  33.253   5.942  18.060  0.1564  0.1303 -0.4286
31934W        W75028  29.690   4.992  17.080  0.1968 -0.0452  0.0689
31935W        W75029  30.749   4.235  18.927 -0.0075 -0.0058 -0.0521
31936W        W75030  30.641   6.962  19.239  0.1621  0.1706 -0.0984
31937W        W75031  30.531   2.728  17.792 -0.1414 -0.3050  0.1948
31938W        W75032  30.581   3.496  18.425  0.6112  0.2059 -0.1638
31939W        W75033  30.970   5.337  19.006 -0.1154  0.3408  0.0176
31940W        W75034  30.071   5.555  17.725 -0.1861  0.0568 -0.0302
31941W        W75035  31.441   5.012  18.897 -0.0208 -0.4427  0.1091
31942W        W75036  30.026   3.887  16.999 -0.1571 -0.3166  0.1835
31943W        W75037  31.992   5.990  18.501 -0.0162  0.0024  0.0795
31944W        W75038  31.465   4.360  19.990 -0.1260  0.1591 -0.0894
31945W        W75039  31.668   4.225  19.427 -0.3850 -0.2353  0.0931
31946W        W75040  29.713   5.997  17.796  0.1996  0.0236 -0.0268
31947W        W75041  30.239   4.700  16.808 -0.0100 -0.1506 -0.1625
31948W        W75042  28.663   5.218  18.033  0.1800 -0.0819  0.1434
31949W        W75043  31.136   4.694  19.695 -0.4006 -0.1148 -0.0101
31950W        W75044  31.851   4.271  18.288 -0.1053 -0.1902  0.2057
31951W        W75045  31.325   5.551  18.136 -0.5490  0.2186  0.1499
31952W        W75046  30.739   7.007  17.363 -0.0342  0.0967 -0.5135
31953W        W75047  31.146   6.755  17.406  0.2264 -0.2799  0.2437
31954W        W75048  32.422   4.934  18.663  0.0501 -0.0115 -0.1803
31955W        W75049  29.060   6.662  18.464 -0.3464  0.5508  0.0561
31956W        W75050  28.895   8.449  19.257 -0.5913 -0.2286 -0.1483
31957W        W75051  29.318   7.116  18.094 -0.1142  0.0179 -0.1233
31958W        W75052  30.998   6.407  16.694 -0.1421 -0.1406 -0.0217
31959W        W75053  32.480   7.722  18.212  0.0574  0.2845 -0.2273
31960W        W75054  31.025   7.374  19.193 -0.0172 -0.0720 -0.1993
31961W        W75055  29.622   6.190  16.422  0.2623 -0.2713  0.0155
31962W        W75056  31.426   8.468  19.345  0.2913 -0.0834  0.1530
31963W        W75057  31.512   6.044  18.586 -0.0822 -0.2218 -0.0067
31964W        W75058  30.971   5.152  18.527 -0.1090 -0.1110  0.1696
31965W        W75059  30.375   5.287  18.989 -0.0810  0.2200 -0.3176
31966W        W75060  30.995   6.167  16.212 -0.0417  0.3247 -0.0680
31967W        W75061  30.712   6.157  18.704 -0.2027 -0.0350  0.0294
31968W        W75062  30.738   7.216  18.753  0.1556 -0.0841 -0.0524
31969W        W75063  29.196   5.972  17.672  0.0424  0.4596 -0.0052
31970W        W75064  33.007   3.891  20.922 -0.0730 -0.0519 -0.0981
31971W        W75065  29.647   7.592  17.933  0.0017  0.1900 -0.3151
31972W        W75066  31.082   5.416  16.726  0.0683 -0.0155  0.0393
31973W        W75067  30.428   3.520  16.042 -0.0660  0.1357  0.3856
31974W        W75068  30.832   4.872  16.772 -0.2387 -0.1416  0.1652
31975W        W75069  31.135   4.211  17.809 -0.2048 -0.0203  0.3311
31976W        W75070  30.037   8.545  18.878 -0.0319  0.1857  0.0637
31977W        W75071  29.909   5.189  19.112 -0.1168  0.1603  0.0913
31978W        W75072  32.494   5.949  18.720  0.0878 -0.1116  0.1470
31979W        W75073  29.890   5.799  16.933  0.0141  0.0717  0.1151
31980W        W75074  32.416   4.968  18.084 -0.0734 -0.0192 -0.2553
31981W        W75075  30.122   5.689  19.394  0.0957  0.2063  0.1045
31982W        W75076  29.482   4.461  17.266  0.2371  0.4195 -0.2603
31983W        W75077  30.277   5.573  17.212 -0.0294  0.0328 -0.1031
31984W        W75078  32.034   6.335  17.438  0.0795  0.3509 -0.0449
31985W        W75079  31.422   6.321  16.350  0.3557 -0.0482  0.2287
31986W        W75080  29.782   5.418  17.301 -0.1275  0.1923 -0.1524
31987W        W75081  27.939   5.380  19.559  0.0289  0.2511  0.0015
31988W        W75082  29.798   6.043  19.119 -0.1637  0.0841 -0.1398
31989W        W75083  29.997   2.799  16.138  0.2280 -0.2060  0.0433
31990W        W75084  32.589   6.714  19.958 -0.1034 -0.0006 -0.3987
31991W        W75085  28.160   6.465  20.355 -0.1280 -0.1137  0.0299
31992W        W75086  31.234   4.225  16.864 -0.1126  0.2213  0.0610
31993W        W75087  31.184   4.693  17.659  0.3234 -0.2138  0.1605
31994W        W75088  32.523   6.246  17.779 -0.1895  0.0726  0.1386
31995W        W75089  30.482   5.084  17.066 -0.1697 -0.1025 -0.3113
31996W        W75090  32.276   3.412  18.201  0.2035  0.1820 -0.1144
31997W        W75091  31.840   4.037  18.928 -0.2237 -0.1501 -0.1926
31998W        W75092  30.680   4.683  17.347  0.1774  0.0935  0.1352
31999W        W75093  29.877   6.470  18.777  0.0729 -0.0489  0.1814
32000W        W75094  31.444   7.283  18.443  0.0830  0.0774  0.1596
32001W        W75095  31.579   4.578  16.893 -0.0456 -0.1110 -0.0393
32002W        W75096  28.774   7.486  18.791 -0.1859 -0.0954  0.3307
32003W        W75097  30.636   4.880  19.714  0.0983 -0.1037 -0.0040
32004W        W75098  31.863   8.382  19.530  0.0471  0.2976 -0.2145
32005W        W75099  29.979   7.586  16.457 -0.1036  0.0689  0.0068
32006W        W75100  29.312   5.861  18.170 -0.0184 -0.0116 -0.0442
32007W        W75101  29.213   6.335  16.646  0.0263 -0.1569 -0.0984
32008W        W75102  29.083   4.770  18.919  0.0184  0.0642 -0.1275
32009W        W75103  30.291   6.117  18.999  0.0157 -0.2107 -0.0167
32010W        W75104  32.281   3.368  17.645 -0.1083 -0.0354  0.1149
32011W        W75105  29.978   4.349  18.743 -0.2133 -0.1760  0.2301
32012W        W75106  32.749   3.947  18.276 -0.0315 -0.0989  0.4032
32013W        W75107  29.330   5.198  17.348  0.1900 -0.2035 -0.1229
32014W        W75108  31.214   6.381  17.113  0.1500  0.0083 -0.0588
32015W        W75109  32.765   5.192  17.263  0.2544 -0.1507  0.4763
32016W        W75110  31.327   5.263  16.153 -0.0082  0.0638 -0.0079
32017W        W75111  28.765   4.189  17.840  0.0146  0.0914 -0.1783
32018W        W75112  28.373   5.051  17.607  0.1817  0.0967 -0.2679
32019W        W75113  31.051   3.304  20.430  0.0610 -0.1492 -0.2575
32020W        W75114  29.580   4.815  18.673 -0.2880  0.1738 -0.0847
32021W        W75115  32.863   6.922  19.570  0.1501 -0.1547 -0.1997
32022W        W75116  30.068   2.904  16.713 -0.1272 -0.0767 -0.4534
32023W        W75117  32.272   5.520  18.531  0.0625 -0.1469 -0.0174
32024W        W75118  29.917   4.281  17.423  0.0074  0.1245  0.2235
32025W        W75119  28.483   6.295  17.221  0.0823 -0.0911  0.1271
32026W        W75120  32.251   4.855  20.393 -0.1219 -0.3736 -0.1656
32027W        W75121  31.595   6.778  16.328  0.2940 -0.0342 -0.3476
32028W        W75122  33.070   6.810  20.039  0.1250  0.1265  0.0455
32029W        W75123  32.588   7.012  17.666  0.2340  0.1614  0.4024
32030W        W75124  30.158   6.624  19.119  0.1382  0.2123 -0.0908
32031W        W75125  28.273   4.286  17.164  0.0095 -0.2340  0.0226
32032W        W75126  28.266   7.836  18.016 -0.1517 -0.1938 -0.1018
32033W        W75127  29.960   6.880  17.030 -0.1930  0.4179 -0.3076
32034W        W75128  30.276   4.185  16.607 -0.3292 -0.1638  0.1247
32035W        W75129  31.901   7.053  18.337  0.0164  0.1840  0.3388
32036W        W75130  30.540   6.032  17.485 -0.1140  0.1156  0.3372
32037W        W75131  28.893   6.268  18.745 -0.2297 -0.0456 -0.0219
32038W        W75132  33.163   3.076  19.270 -0.0932 -0.0570 -0.0764
32039W        W75133  32.267   5.000  19.484  0.1358  0.2564 -0.1292
32040W        W75134  31.580   4.996  17.374  0.2544 -0.0256  0.3051
32041W        W75135  28.955   4.302  16.388  0.1149 -0.0174 -0.4194
32042W        W75136  31.165   6.539  17.893 -0.2670  0.2869  0.0549
32043W        W75137  29.127   7.491  16.894  0.0232  0.1610  0.1224
32044W        W75138  26.071   4.399  17.429  0.2540  0.4116 -0.0962
32045W        W75139  29.205   7.105  18.713 -0.0157 -0.0788  0.2539
32046W        W75140  31.772   3.712  18.490  0.2137 -0.1076  0.2771
32047W        W75141  28.665   6.486  20.247  0.2521 -0.4544 -0.1144
32048W        W75142  29.360   5.430  20.691  0.1395  0.0393  0.1394
32049W        W75143  29.263   5.125  16.440 -0.2720 -0.1742 -0.1069
32050W        W75144  29.382   5.332  18.597  0.0334 -0.1859 -0.1393
32051W        W75145  31.798   2.545  17.955 -0.0142  0.0260  0.0664
32052W        W75146  33.170   3.237  16.413 -0.1776  0.3131 -0.1669
32053W        W75147  31.204   5.659  19.349 -0.2077 -0.0115 -0.0074
32054W        W75148  32.966   8.577  18.805  0.0389 -0.1025  0.1887
32055W        W75149  31.493   3.412  16.075  0.1970  0.0005 -0.1612
32056W        W75150  30.909   5.026  16.340  0.0531  0.0467 -0.1110
32057W        W75151  29.243   6.573  20.107 -0.0211  0.0354  0.1820
32058W        W75152  30.649   6.311  17.095 -0.2288  0.0454  0.0412
32059W        W75153  31.111   5.895  17.756 -0.1243  0.0799 -0.1083
32060W        W75154  31.493   3.380  17.776  0.4140  0.0273  0.0628
32061W        W75155  31.149   7.087  16.561  0.0042  0.0196  0.1324
32062W        W75156  29.208   6.817  17.747  0.2539 -0.1328 -0.0090
32063W        W75157  31.951   7.260  18.833  0.2172  0.1502  0.1841
32064W        W75158  30.942   6.286  17.547 -0.0565  0.1068  0.2731
32065W        W75159  30.388   3.744  19.211  0.0020 -0.1854 -0.0675
32066W        W75160  29.580   4.051  16.718 -0.2086  0.1801  0.2840
32067W        W75161  30.931   3.778  18.108 -0.0110  0.0804 -0.1402
32068W        W75162  28.644   7.662  17.042 -0.0647  0.1968  0.0167
32069W        W75163  32.829   5.055  18.356  0.1537  0.1703 -0.4846
32070W        W75164  30.917   4.147  17.250 -0.2069  0.2101  0.3459
32071W        W75165  30.968   4.700  20.164 -0.0994 -0.0999 -0.1181
32072W        W75166  30.532   5.310  20.022 -0.2958 -0.2133 -0.0622
32073W        W75167  30.243   5.168  18.028  0.0709 -0.0035  0.2171
32074W        W75168  29.585   5.608  19.085 -0.0368 -0.0063 -0.0002
32075W        W75169  29.928   5.572  15.909  0.0925  0.1783  0.0971
32076W        W75170  32.463   3.711  18.774  0.3180  0.1839 -0.1373
32077W        W75171  29.644   5.909  20.171 -0.3062  0.3054 -0.0948
32078W        W75172  29.882   7.531  19.266  0.0449  0.0969 -0.0580
32079W        W75173  31.130   5.670  18.715 -0.0644 -0.3764  0.1783
32080W        W75174  31.695   5.584  18.513 -0.2027  0.0882  0.0743
32081W        W75175  30.633   3.320  19.465 -0.2085 -0.0458 -0.0488
32082W        W75176  30.487   3.781  17.229 -0.0527 -0.1212  0.2205
32083W        W75177  30.145   7.161  16.654  0.0427 -0.0168 -0.2632
32084W        W75178  30.557   5.926  16.280 -0.0581  0.0619  0.1675
32085W        W75179  29.385   3.921  19.121 -0.0661  0.1589 -0.0382
32086W        W75180  30.638   8.148  18.881 -0.3484  0.0169  0.1062
32087W        W75181  28.855   5.155  17.605  0.2856  0.4399 -0.1365
32088W        W75182  31.208   6.121  18.957 -0.1185  0.0822 -0.0436
32089W        W75183  30.355   7.165  17.130  0.0114  0.1290 -0.0979
32090W        W75184  33.363   2.573  20.049 -0.0412  0.3682 -0.2016
32091W        W75185  28.894   6.600  17.403  0.0191  0.1653  0.2307
32092W        W75186  29.696   3.579  16.687 -0.0119  0.5214  0.2664
32093W        W75187  28.356   4.807  16.557 -0.3065  0.2531  0.2037
32094W        W75188  31.988   4.306  17.120 -0.0136  0.3135  0.1193
32095W        W75189  32.979   4.516  15.987 -0.0338 -0.2711  0.1212
32096W        W75190  29.227   4.424  17.936  0.2801 -0.1468 -0.1482
32097W        W75191  31.114   4.872  18.125 -0.5559 -0.3210 -0.1230
32098W        W75192  30.172   7.309  19.970 -0.0309  0.3040 -0.0245
32099W        W75193  31.314   5.156  19.392  0.1915  0.0337  0.0564
32100W        W75194  31.988   4.027  16.454 -0.1072 -0.3601  0.0373
32101W        W75195  31.287   5.474  17.265  0.0261  0.2116  0.0915
32102W        W75196  29.837   5.638  20.611 -0.1676 -0.1025 -0.0421
32103W        W75197  29.127   3.781  16.777  0.0952 -0.1211  0.0730
32104W        W75198  32.904   5.791  18.452  0.2668  0.0050 -0.0893
32105W        W75199  30.668   4.942  17.754  0.1898 -0.0171  0.1930
32106W        W75200  28.327   5.687  17.112 -0.0472  0.0352 -0.0325
32107W        W75201  31.456   6.316  17.528  0.0934  0.2607  0.1545
32108W        W75202  30.273   5.133  17.524  0.1283  0.0348  0.2007
32109W        W75203  29.875   6.294  18.240  0.0600  0.0377 -0.2580
32110W        W75204  29.728   5.085  19.594 -0.2858  0.0705  0.0213
32111W        W75205  32.702   5.050  19.351 -0.3621  0.1486  0.2032
32112W        W75206  29.784   4.545  16.920 -0.3142 -0.1981 -0.1184
32113W        W75207  30.444   3.942  18.210  0.0735 -0.1147 -0.2922
32114W        W75208  31.292   5.018  16.930  0.2637 -0.1708 -0.0003
32115W        W75209  32.018   5.666  18.089  0.0303 -0.1432  0.1401
32116W        W75210  31.665   4.611  18.836 -0.1567  0.1422 -0.2466
32117W        W75211  29.981   5.958  19.797 -0.1559 -0.0365 -0.2011
32118W        W75212  30.097   4.075  19.566  0.0115 -0.1367 -0.0748
32119W        W75213  32.745   6.500  16.915  0.1075 -0.0911 -0.1067
32120W        W75214  31.439   5.139  18.376  0.2298  0.3997 -0.0672
32121W        W75215  29.647   6.286  16.932  0.0342  0.1388 -0.0593
32122W        W75216  28.983   5.314  18.974  0.2223 -0.1678  0.0855
32123W        W75217  30.479   5.140  18.554 -0.1004 -0.1611  0.3413
32124W        W75218  31.635   4.673  19.636 -0.1771 -0.4249 -0.3619
32125W        W75219  30.238   7.252  18.979  0.2517 -0.2476  0.0754
32126W        W75220  28.073   6.840  16.781 -0.0972  0.1038  0.1636
32127W        W75221  29.663   6.440  19.374 -0.1935  0.2937  0.0514
32128W        W75222  31.539   3.038  15.717 -0.1336 -0.4089  0.5550
32129W        W75223  30.336   5.813  16.710  0.1998  0.2274 -0.1849
32130W        W75224  29.689   4.555  17.832  0.0299 -0.0690  0.0732
32131W        W75225  33.355   3.946  18.902 -0.2624 -0.2052  0.0092
32132W        W75226  31.976   4.604  16.494  0.1530 -0.5186 -0.1674
32133W        W75227  32.031   4.199  19.791  0.1111 -0.2268 -0.2104
32134W        W75228  29.416   5.130  19.170  0.0704  0.2064  0.0309
32135W        W75229  31.914   5.159  18.149  0.0859  0.3007 -0.1440
32136W        W75230  28.018   4.125  18.719 -0.2015  0.2366 -0.3052
32137W        W75231  31.380   7.102  18.926  0.1228 -0.1570 -0.1298
32138W        W75232  29.104   5.197  20.246  0.0757  0.1614 -0.2074
32139W        W75233  31.681   4.000  16.979  0.1010  0.1164  0.2880
32140W        W75234  30.134   3.164  17.705 -0.0730  0.0562  0.2426
32141W        W75235  30.222   5.223  19.543  0.1480  0.0790 -0.1239
32142W        W75236  31.607   5.718  18.979  0.0598  0.6580 -0.1819
32143W        W75237  30.191   5.615  18.404  0.3904 -0.3853  0.0484
32144W        W75238  33.303   4.190  17.213  0.2693  0.0976  0.1179
32145W        W75239  28.544   5.521  19.394 -0.1288  0.2970 -0.0049
32146W        W75240  32.248   4.952  17.574 -0.3872  0.0202 -0.0585
32147W        W75241  30.010   5.318  16.790  0.0675 -0.2870 -0.0804
32148W        W75242  30.759   6.254  18.017 -0.0206  0.1728  0.3613
32149W        W75243  31.013   4.341  20.951  0.2168  0.0769  0.1387
32150W        W75244  30.032   5.983  17.416 -0.2357  0.1773  0.0345
32151W        W75245  31.055   2.680  17.865 -0.0983  0.0207  0.1872
32152W        W75246  31.355   4.617  19.218  0.2301 -0.0830  0.0853
32153W        W75247  32.468   5.039  19.941 -0.0853  0.1379  0.0095
32154W        W75248  30.961   4.195  20.042 -0.0882 -0.0337  0.0687
32155W        W75249  30.035   4.687  18.279 -0.1171 -0.1813 -0.2042
32156W        W75250  31.113   7.606  19.619  0.4339  0.3537  0.1406
32157W        W75251  32.628   4.937  15.885  0.0133  0.2498  0.1338
32158W        W75252  32.381   4.454  19.575  0.0134  0.0441  0.0262
32159W        W75253  31.557   4.643  18.375  0.0723 -0.0865 -0.2829
32160W        W75254  30.959   4.470  16.085 -0.0202 -0.2392 -0.1397
32161W        W75255  29.646   5.068  18.144 -0.1106 -0.0642 -0.0364
32162W        W75256  31.200   4.250  20.524  0.0499  0.2419 -0.1857
32163W        W75257  30.714   4.375  16.819  0.2782  0.3548 -0.0098
32164W        W75258  31.490   4.884  20.038  0.1605 -0.0920 -0.0837
32165W        W75259  29.133   6.237  17.164 -0.1538  0.1473  0.0457
32166W        W75260  30.175   5.930  18.038 -0.0683  0.2431  0.1238
32167W        W75261  30.597   4.343  17.709  0.1519 -0.2259  0.2071
32168W        W75262  28.758   5.376  17.099  0.0393 -0.0465  0.1793
32169W        W75263  29.754   6.761  17.908 -0.0881 -0.1016  0.2741
32170W        W75264  28.969   4.230  15.899 -0.1147  0.1561 -0.0700
32171W        W75265  29.371   4.545  16.574  0.1002 -0.0271 -0.1912
32172W        W75266  29.637   6.928  19.395 -0.0780  0.2016  0.1193
32173W        W75267  33.421   6.410  20.044  0.0276  0.0187 -0.0760
32174W        W75268  30.891   4.289  18.357 -0.0240  0.1586  0.0128
32175W        W75269  33.009   3.711  18.702 -0.1006  0.1631 -0.1817
32176W        W75270  29.554   5.946  17.309  0.2689 -0.0338  0.2820
32177W        W75271  31.337   4.043  18.510 -0.0846  0.2018  0.0044
32178W        W75272  29.232   7.598  18.239 -0.2681  0.0250 -0.0005
32179W        W75273  29.190   7.054  19.918  0.1193  0.3279  0.1119
32180W        W75274  30.327   6.271  18.383 -0.1267 -0.1531 -0.1829
32181W        W75275  32.560   4.532  20.147 -0.1069  0.0843 -0.3503
32182W        W75276  30.797   3.865  17.641 -0.1781  0.3613  0.0413
32183W        W75277  31.031   5.153  19.797  0.0361 -0.1331 -0.2253
32184W        W75278  32.862   7.285  19.989 -0.2199 -0.0820  0.0567
32185W        W75279  31.508   6.056  19.375  0.3395 -0.2494 -0.1316
32186W        W75280  30.576   5.872  18.309  0.1346  0.2180  0.3130
32187W        W75281  30.210   6.799  20.099 -0.0976 -0.0193 -0.0727
32188W        W75282  31.439   6.275  18.164 -0.1090 -0.0117 -0.2148
32189W        W75283  30.838   5.999  19.212  0.4105 -0.0397  0.0710
32190W        W75284  29.398   5.905  20.661 -0.0980 -0.1587  0.5056
32191W        W75285  31.914   5.663  19.983  0.0326 -0.1083 -0.0118
32192W        W75286  32.795   5.850  17.902  0.0796  0.2305  0.3906
32193W        W75287  30.274   3.958  17.598  0.1848 -0.2060  0.0866
32194W        W75288  30.867   5.905  16.656  0.2418 -0.0228  0.0045
32195W        W75289  28.947   6.248  20.604  0.0319 -0.1859 -0.0160
32196W        W75290  28.474   6.025  18.605 -0.0912 -0.1739 -0.2827
32197W        W75291  30.121   7.587  16.938  0.0178  0.1362 -0.0556
32198W        W75292  30.593   5.482  17.621 -0.1344 -0.2673 -0.1210
32199W        W75293  31.857   4.586  17.530  0.0074 -0.1321  0.0393
32200W        W75294  30.919   6.808  16.983  0.1879 -0.1810  0.0297
32201W        W75295  30.029   4.731  17.315 -0.1204 -0.1497  0.2508
32202W        W75296  30.431   7.331  17.744  0.0790  0.1474  0.2003
32203W        W75297  28.048   8.407  16.651 -0.1516 -0.0899  0.0540
32204W        W75298  31.110   5.930  17.228  0.2200 -0.4047 -0.1990
32205W        W75299  30.629   7.734  17.833  0.0520  0.1459 -0.0175
32206W        W75300  32.081   7.539  19.277 -0.0636 -0.0612 -0.2116
32207W        W75301  32.626   3.283  16.591 -0.1393  0.0083 -0.1971
32208W        W75302  30.926   5.114  17.233  0.0358 -0.1431  0.0511
32209W        W75303  33.169   4.831  17.388 -0.0450  0.2231 -0.2551
32210W        W75304  30.655   6.781  18.221  0.2265  0.5031 -0.0280
32211W        W75305  30.048   5.607  18.886  0.3440 -0.3424 -0.1443
32212W        W75306  30.788   3.745  16.849  0.0276 -0.1034  0.1505
32213W        W75307  30.501   6.672  19.671 -0.1329 -0.2227 -0.1368
32214W        W75308  32.785   3.192  18.239  0.0145  0.3638 -0.4202
32215W        W75309  28.197   7.785  20.209 -0.1820  0.1660 -0.0681
32216W        W75310  32.128   6.917  16.320  0.1555 -0.0428 -0.2932
32217W        W75311  28.538   4.314  16.694  0.1557 -0.1380 -0.1103
32218W        W75312  30.721   6.212  19.676 -0.3285 -0.1693 -0.2214
32219W        W75313  32.883   3.824  17.346  0.3497 -0.3146 -0.1500
32220W        W75314  30.116   6.550  16.611  0.0570  0.1615 -0.0652
32221W        W75315  30.123   4.849  18.830  0.1383  0.0766  0.1704
32222W        W75316  29.810   6.553  17.380  0.0349 -0.2374  0.3477
32223W        W75317  29.475   6.651  18.967  0.0895  0.1506 -0.1459
32224W        W75318  30.554   7.638  19.135 -0.1718 -0.1294 -0.5628
32225W        W75319  29.607   3.376  17.213 -0.1971 -0.0071  0.2059
32226W        W75320  32.077   4.585  18.001  0.1407 -0.0065  0.1167
32227W        W75321  30.541   4.892  20.359  0.2184 -0.0063  0.1039
32228W        W75322  32.263   4.294  18.761  0.0839 -0.0628 -0.1431
32229W        W75323  29.808   5.946  18.565  0.0098 -0.0926  0.0211
32230W        W75324  32.382   4.705  16.728  0.3168  0.2575 -0.0786
32231W        W75325  30.784   5.399  18.131  0.0727 -0.0510 -0.3218
32232W        W75326  29.288   5.388  19.512  0.0347 -0.2964 -0.0700
32233W        W75327  29.469   5.416  16.862  0.2181  0.1927  0.1884
32234W        W75328  32.006   3.538  19.057  0.0508  0.2135 -0.2262
32235W        W75329  30.281   5.038  16.398 -0.2655 -0.1837  0.1235
32236W        W75330  33.909   7.861  19.718 -0.1380 -0.2063  0.0937
32237W        W75331  30.629   4.729  18.849 -0.1938  0.1888  0.0398
32238W        W75332  30.014   3.009  17.211  0.0194  0.1602 -0.1482
32239W        W75333  30.625   4.693  18.207  0.2754 -0.2740 -0.1069
32240W        W75334  30.300   4.233  19.157  0.1159 -0.0034  0.0592
32241W        W75335  31.532   7.601  19.109  0.3130  0.0075  0.1557
32242W        W75336  29.515   3.939  17.190  0.1019  0.2062 -0.1905
32243W        W75337  31.793   5.300  17.051 -0.2011  0.2306  0.0551
32244W        W75338  33.180   4.188  18.470 -0.2553 -0.0949  0.1848
32245W        W75339  29.092   7.888  17.171 -0.2045  0.2004 -0.0561
32246W        W75340  32.540   6.101  17.224  0.0304 -0.1774 -0.0752
32247W        W75341  32.891   7.508  17.402 -0.2719  0.0517 -0.0280
32248W        W75342  29.314   4.994  17.804 -0.0463 -0.2812  0.0840
32249W        W75343  31.442   6.528  18.697  0.2529  0.3321 -0.0945
32250W        W75344  33.696   5.603  18.401  0.0663 -0.0764 -0.4115
32251W        W75345  32.277   3.970  18.139  0.0428 -0.1278 -0.1336
32252W        W75346  29.259   4.762  18.289  0.2086 -0.1996  0.0010
32253W        W75347  28.665   6.431  19.165  0.0968 -0.0987  0.0226
32254W        W75348  32.026   4.719  18.493 -0.2801 -0.0114 -0.5191
32255W        W75349  30.989   3.143  18.392 -0.0291 -0.4814 -0.0250
32256W        W75350  30.052   6.068  16.205 -0.1088  0.1115  0.1062
32257W        W75351  33.113   3.172  18.584 -0.0250 -0.1384  0.3562
32258W        W75352  29.931   7.395  17.437  0.1107 -0.0275 -0.2446
32259W        W75353  30.778   9.169  19.524  0.0754  0.1447  0.2524
32260W        W75354  28.218   3.894  16.758  0.0099 -0.3067  0.1941
32261W        W75355  30.938   5.656  19.829 -0.0916  0.0863 -0.0351
32262W        W75356  29.222   6.389  18.080 -0.0150 -0.3341 -0.0229
32263W        W75357  30.848   6.654  16.279  0.2363 -0.1231 -0.1140
32264W        W75358  31.974   6.181  18.013 -0.2760  0.1273  0.2890
32265W        W75359  29.658   5.589  16.424 -0.4841 -0.0529 -0.1327
32266W        W75360  31.765   6.629  17.895  0.0477  0.1490  0.1802
32267W        W75361  30.916   3.754  19.147 -0.0559  0.0289 -0.0516
32268W        W75362  33.427   2.954  17.660  0.0329  0.4672  0.0337
32269W        W75363  31.980   4.845  17.017  0.4108  0.4227 -0.2569
32270W        W75364  32.151   5.281  20.193  0.1867  0.0556  0.0597
32271W        W75365  29.042   5.690  15.803  0.0497 -0.0970 -0.0748
32272W        W75366  28.822   5.468  16.288  0.0791 -0.3783  0.1729
32273W        W75367  29.738   5.551  18.158  0.0422 -0.0669  0.0028
32274W        W75368  31.437   6.007  20.230 -0.1101  0.3243  0.2837
32275W        W75369  29.703   5.065  20.754 -0.1996 -0.3061  0.0426
32276W        W75370  28.951   5.559  18.552  0.1929 -0.0958 -0.4695
32277W        W75371  29.122   4.249  16.965  0.0864  0.0254 -0.1127
32278W        W75372  32.274   7.354  17.880 -0.0340 -0.0565  0.0762
32279W        W75373  29.176   4.348  18.634 -0.1801  0.2053 -0.0175
32280W        W75374  30.644   4.321  19.493  0.0771 -0.0817  0.1635
32281W        W75375  31.677   5.771  16.985 -0.0137  0.1426  0.1019
32282W        W75376  31.786   7.371  17.497 -0.1752 -0.0960 -0.1465
32283W        W75377  30.857   3.838  18.629  0.0249 -0.0489  0.1291
32284W        W75378  31.629   7.243  19.436 -0.1037 -0.0177  0.0767
32285W        W75379  29.256   4.691  16.074 -0.0786 -0.0582  0.0445
32286W        W75380  33.003   5.838  18.981  0.1748 -0.0519 -0.1422
32287W        W75381  28.671   3.910  20.657  0.1213  0.0681  0.1216
32288W        W75382  28.689   3.852  16.465  0.0066 -0.2198  0.1618
32289W        W75383  31.429   5.521  19.942  0.0810  0.0935  0.0528
32290W        W75384  30.531   6.311  16.591  0.0915 -0.0645  0.1903
32291W        W75385  32.129   7.432  16.153 -0.1630  0.1555 -0.2709
32292W        W75386  30.653   5.679  18.844  0.1466  0.1690 -0.0684
32293W        W75387  31.177   9.426  19.871 -0.1604 -0.0673 -0.0166
32294W        W75388  30.130   4.225  18.015 -0.1753 -0.1685 -0.0625
32295W        W75389  30.599   5.413  16.573 -0.3712 -0.1274 -0.1674
32296W        W75390  30.687   8.052  18.244  0.3201  0.3538  0.2749
32297W        W75391  30.739   5.565  17.053 -0.1913 -0.2408 -0.0854
32298W        W75392  31.522   3.607  19.233  0.0534  0.1782 -0.2786
32299W        W75393  32.017   5.395  17.623  0.2488 -0.1527 -0.0092
32300W        W75394  28.876   3.900  19.875  0.1796  0.1983 -0.0122
32301W        W75395  30.125   5.544  20.192  0.0535 -0.2222  0.1087
32302W        W75396  31.109   5.936  18.317  0.0629  0.0858  0.1623
32303W        W75397  30.178   3.375  16.905  0.4272  0.0223 -0.0121
32304W        W75398  31.301   3.569  18.784 -0.0231  0.0673  0.0823
32305W        W75399  31.555   4.945  17.858  0.0273 -0.1799 -0.0905
32306W        W75400  28.308   4.749  19.486  0.1468 -0.0041 -0.0871
32307W        W75401  30.564   4.604  16.404 -0.0285 -0.2324 -0.1871
32308W        W75402  30.958   5.125  20.439 -0.0181  0.2473 -0.0821
32309W        W75403  30.171   6.196  16.967  0.5294 -0.2032 -0.1023
32310W        W75404  32.073   5.646  19.000  0.2318  0.1303  0.4003
32311W        W75405  28.353   3.979  17.577  0.1121 -0.0610 -0.2045
32312W        W75406  31.517   5.389  17.689 -0.2121  0.1774  0.1706
32313W        W75407  32.208   7.910  19.563  0.1000  0.0854 -0.1270
32314W        W75408  32.140   7.054  20.768  0.1226  0.2279  0.0852
32315W        W75409  31.825   9.165  19.001 -0.2909 -0.1118  0.4287
32316W        W75410  31.130   4.597  17.155  0.2166 -0.1043  0.5352
32317W        W75411  30.375   3.933  18.776 -0.2235 -0.0695 -0.0482
32318W        W75412  29.744   7.294  18.352  0.0188 -0.2068  0.3976
32319W        W75413  30.635   6.427  19.245 -0.2375 -0.1803 -0.0170
32320W        W75414  31.299   4.079  19.049  0.0458  0.1066  0.3404
32321W        W75415  31.184   4.589  18.744 -0.1098 -0.1207 -0.0635
32322W        W75416  32.196   3.657  16.706 -0.1908 -0.1468 -0.3891
32323W        W75417  30.145   7.639  18.192  0.1004 -0.0424 -0.0087
32324W        W75418  30.626   5.473  19.380 -0.4162  0.1343  0.2986
32325W        W75419  30.103   6.132  22.691  0.0982 -0.0540  0.1806
32326W        W75420  29.465   5.146  21.636 -0.0151 -0.4380 -0.0929
32327W        W75421  33.510   3.329  18.112 -0.0338 -0.2540 -0.2027
32328W        W75422  32.137   4.245  21.452 -0.0607 -0.2365  0.1635
32329W        W75423  26.929   4.241  22.585  0.3407  0.1512 -0.2616
32330W        W75424  29.423   8.363  22.903 -0.1436  0.0860 -0.0140
32331W        W75425  30.580   4.530  22.017  0.0105 -0.3597 -0.0714
32332W        W75426  32.496   6.854  21.240  0.1850  0.0201 -0.0246
32333W        W75427  31.687   6.713  21.655  0.0062 -0.0171  0.0497
32334W        W75428  32.199   6.054  19.228  0.0215  0.0128 -0.0959
32335W        W75429  29.724   5.517  22.002 -0.1963  0.0175  0.2464
32336W        W75430  28.541   6.099  21.635  0.0094  0.0263  0.3803
32337W        W75431  30.794   3.599  21.280  0.0540 -0.1173 -0.3008
32338W        W75432  28.758   1.919  23.600  0.1504 -0.2495  0.2940
32339W        W75433  32.637   6.186  19.967  0.1413 -0.0103 -0.0254
32340W        W75434  29.663   5.247  20.206  0.0140  0.0556  0.0436
32341W        W75435  30.324   5.316  21.928  0.1873  0.0192  0.2494
32342W        W75436  29.962   5.249  21.531 -0.2395 -0.0787 -0.5110
32343W        W75437  30.957   6.651  19.851  0.4577 -0.1391 -0.0170
32344W        W75438  30.690   4.027  23.603 -0.1665 -0.2683 -0.1548
32345W        W75439  32.470   3.796  23.911  0.1021 -0.2008 -0.0608
32346W        W75440  29.842   7.147  20.804  0.1212 -0.2568  0.2546
32347W        W75441  28.386   4.796  18.096 -0.2247  0.1705  0.1509
32348W        W75442  28.174   4.738  20.680  0.0901 -0.0929  0.0452
32349W        W75443  28.570   5.199  21.259  0.3788  0.0360 -0.1238
32350W        W75444  31.962   4.689  21.175 -0.1716 -0.1755  0.0516
32351W        W75445  32.078   5.598  21.032  0.0543 -0.2346  0.1649
32352W        W75446  31.100   6.716  21.896  0.2216  0.2689  0.2010
32353W        W75447  31.294   6.320  21.657  0.1593 -0.2312  0.1531
32354W        W75448  31.791   5.816  24.914 -0.0537  0.2431  0.1932
32355W        W75449  28.894   5.724  20.620  0.1080 -0.0682 -0.1431
32356W        W75450  29.561   6.840  20.347 -0.0868  0.0664 -0.0171
32357W        W75451  30.246   6.554  21.602 -0.3430 -0.1211 -0.1018
32358W        W75452  32.089   6.837  19.747  0.1267 -0.1181 -0.2433
32359W        W75453  32.148   6.572  22.656  0.3803  0.1492  0.0390
32360W        W75454  30.167   7.602  23.005  0.0435  0.0064  0.1665
32361W        W75455  29.497   7.338  19.614  0.1377 -0.1901 -0.1541
32362W        W75456  30.467   6.590  22.740 -0.3380  0.2411 -0.1426
32363W        W75457  30.797   6.965  22.957 -0.0484  0.3476  0.0229
32364W        W75458  31.775   6.006  21.290  0.0458 -0.0923  0.1156
32365W        W75459  31.038   5.468  20.807  0.1127 -0.0067 -0.1483
32366W        W75460  30.093   8.119  18.554  0.0858 -0.0686  0.0511
32367W        W75461  32.298   5.964  21.313 -0.0850  0.0706  0.1372
32368W        W75462  29.137   7.035  22.525  0.4182  0.0456 -0.0985
32369W        W75463  30.639   6.909  21.406  0.1816  0.0803 -0.0166
32370W        W75464  33.820   5.364  24.015  0.1448 -0.0397 -0.0496
32371W        W75465  29.191   7.119  19.234 -0.1680  0.0697  0.3247
32372W        W75466  32.922   3.661  20.169  0.0904 -0.4189 -0.0302
32373W        W75467  30.096   5.040  20.001  0.0221 -0.3337 -0.1343
32374W        W75468  31.839   4.629  20.560 -0.1263 -0.1053  0.1827
32375W        W75469  31.816   3.534  21.493  0.2149  0.1288  0.2685
32376W        W75470  30.389   5.648  21.484 -0.0329 -0.2819 -0.2433
32377W        W75471  30.220   4.785  21.733 -0.0623 -0.1718 -0.1192
32378W        W75472  32.733   6.704  22.679 -0.1817 -0.1837  0.0230
32379W        W75473  31.218   6.497  20.242  0.3554  0.0773 -0.4444
32380W        W75474  31.186   4.431  22.587 -0.2069 -0.0430 -0.2156
32381W        W75475  29.465   7.135  21.831  0.0566  0.2857 -0.0836
32382W        W75476  28.831   5.216  21.698  0.1456 -0.1198 -0.0668
32383W        W75477  31.721   6.166  19.844 -0.0794 -0.2146 -0.1303
32384W        W75478  31.084   5.606  20.333  0.0708 -0.1902 -0.2267
32385W        W75479  30.652   7.032  20.025  0.1285  0.0818 -0.2036
32386W        W75480  30.562   6.814  20.794  0.2505  0.2446  0.0632
32387W        W75481  27.576   4.611  23.294  0.1273 -0.1998  0.1151
32388W        W75482  28.784   4.124  22.278 -0.2017  0.4034 -0.1442
32389W        W75483  30.204   2.895  21.276 -0.1640 -0.4907  0.0168
32390W        W75484  33.328   6.831  24.046  0.1401 -0.2457 -0.0334
32391W        W75485  28.096   6.124  22.503  0.1120 -0.1284  0.1862
32392W        W75486  33.160   4.069  23.123  0.3418  0.0579 -0.0535
32393W        W75487  31.036   6.475  22.703  0.2887  0.4421  0.0180
32394W        W75488  32.125   6.362  21.530 -0.0412 -0.2347 -0.1900
32395W        W75489  30.943   7.133  19.633 -0.0627 -0.2299 -0.2178
32396W        W75490  30.825   4.057  22.344  0.1428 -0.0710  0.1572
32397W        W75491  32.195   4.034  23.000  0.0403  0.0800 -0.2404
32398W        W75492  29.776   6.378  21.703 -0.1451 -0.2498 -0.0916
32399W        W75493  30.681   6.496  20.269  0.3327  0.1528 -0.0372
32400W        W75494  32.388   6.089  22.568  0.0977 -0.0545  0.2998
32401W        W75495  31.401   4.888  20.600  0.0256  0.0988  0.2105
32402W        W75496  29.628   7.556  21.616  0.0444 -0.0741  0.4452
32403W        W75497  31.047   4.761  22.257 -0.1139  0.1044  0.0890
32404W        W75498  32.109   7.576  24.346  0.2033  0.4737 -0.0436
32405W        W75499  28.287   8.104  19.873  0.0559 -0.1263  0.0437
32406W        W75500  30.524   6.158  21.411  0.3531 -0.0732 -0.2733
32407W        W75501  30.285   5.979  20.386  0.0962 -0.0870 -0.1937
32408W        W75502  29.782   4.859  22.537 -0.2215  0.1166 -0.0214
32409W        W75503  31.835   5.317  21.367  0.1246  0.1444  0.0116
32410W        W75504  33.442   4.746  19.979  0.2014  0.0536  0.2129
32411W        W75505  29.936   5.841  23.347 -0.1382 -0.1771 -0.3747
32412W        W75506  31.970   3.747  22.142 -0.0559  0.0987  0.1694
32413W        W75507  29.775   7.656  19.906  0.0910 -0.1598 -0.1032
32414W        W75508  30.501   7.333  20.874  0.0628 -0.2094  0.4080
32415W        W75509  31.484   4.948  22.611  0.2666 -0.0045 -0.2240
32416W        W75510  30.257   5.707  20.958  0.0263  0.0574 -0.0649
32417W        W75511  28.863   4.823  22.013 -0.1769 -0.2113  0.2210
32418W        W75512  27.560   4.790  21.441  0.3102 -0.1430 -0.1108
32419W        W75513  29.841   5.344  23.385  0.4631 -0.2958 -0.1109
32420W        W75514  29.799   3.402  22.991 -0.1554  0.1465  0.4864
32421W        W75515  33.367   6.134  23.183  0.2126  0.0269 -0.0854
32422W        W75516  27.804   3.380  19.488 -0.2842  0.2056 -0.5852
32423W        W75517  32.282   5.293  21.870  0.2557  0.0626  0.2299
32424W        W75518  30.144   5.208  20.545 -0.1609 -0.0150  0.1500
32425W        W75519  28.328   5.669  20.599 -0.0481  0.0154 -0.0840
32426W        W75520  31.108   4.569  24.042  0.2667 -0.0018  0.0361
32427W        W75521  30.900   7.205  22.135 -0.0197 -0.0940  0.1087
32428W        W75522  32.099   6.657  22.078  0.0917  0.0602  0.0683
32429W        W75523  32.154   7.669  20.895  0.1194  0.0414 -0.2010
32430W        W75524  30.911   4.159  21.809 -0.1974  0.2140  0.0213
32431W        W75525  29.178   5.309  21.240 -0.1471 -0.0410 -0.1790
32432W        W75526  30.490   7.516  21.984 -0.3281  0.0367  0.1374
32433W        W75527  29.914   5.974  21.352 -0.2714  0.0410  0.0756
32434W        W75528  29.227   4.893  20.830  0.0032 -0.0987  0.1800
32435W        W75529  33.093   6.988  20.516 -0.0124 -0.1486 -0.2047
32436W        W75530  32.795   5.458  21.968 -0.0425 -0.0871 -0.3457
32437W        W75531  27.681   5.815  22.666 -0.2282  0.0685 -0.1586
32438W        W75532  32.127   4.368  23.362 -0.1639 -0.0275 -0.0585
32439W        W75533  33.193   4.692  22.066  0.1946 -0.1581 -0.0095
32440W        W75534  31.981   5.737  21.647 -0.1201 -0.5318 -0.3856
32441W        W75535  30.527   4.445  19.978  0.2664  0.1479 -0.0975
32442W        W75536  30.704   8.014  19.852  0.1416  0.1980  0.1247
32443W        W75537  27.801   6.478  19.015  0.0198 -0.3218  0.0817
32444W        W75538  28.170   5.568  21.173 -0.1545  0.1829 -0.0220
32445W        W75539  30.980   5.900  21.594  0.1372 -0.0963  0.1605
32446W        W75540  33.132   6.545  22.327 -0.3050  0.0368 -0.0322
32447W        W75541  28.522   4.208  24.725 -0.0505  0.1957 -0.1152
32448W        W75542  32.641   4.887  22.116  0.0344 -0.0731  0.0036
32449W        W75543  28.791   4.438  20.256  0.1638 -0.3345 -0.1883
32450W        W75544  29.433   5.754  22.899 -0.0271  0.1440  0.2829
32451W        W75545  31.779   4.073  21.132 -0.1804 -0.0354  0.2053
32452W        W75546  31.474   5.294  20.973 -0.1151  0.1299  0.2322
32453W        W75547  32.307   6.615  23.919  0.2885  0.1644 -0.2597
32454W        W75548  33.246   5.980  20.774 -0.2046  0.0674  0.1094
32455W        W75549  32.036   4.733  19.973 -0.1482 -0.3530  0.0722
32456W        W75550  30.249   4.694  20.665  0.1509 -0.2143 -0.1963
32457W        W75551  30.579   7.851  23.388 -0.0842 -0.3475 -0.3445
32458W        W75552  30.742   5.873  21.035  0.0510  0.0602  0.1167
32459W        W75553  31.269   5.273  22.220 -0.1320  0.0091  0.1166
32460W        W75554  31.677   4.154  20.645 -0.1203  0.1425  0.1463
32461W        W75555  32.850   6.505  20.851  0.0802 -0.1748  0.3026
32462W        W75556  28.900   6.491  22.305  0.2252 -0.0795  0.2345
32463W        W75557  31.914   5.888  24.337  0.1876 -0.1404 -0.0665
32464W        W75558  31.336   7.484  20.835 -0.0427  0.0950  0.0341
32465W        W75559  30.929   4.837  23.154 -0.0297 -0.4965 -0.0506
32466W        W75560  31.815   5.659  19.450 -0.1564 -0.1195  0.1265
32467W        W75561  32.225   3.298  21.249 -0.3019  0.0254  0.2664
32468W        W75562  30.185   7.913  19.066  0.1480  0.0585  0.0148
32469W        W75563  31.166   3.907  22.693  0.3119 -0.3020  0.2481
32470W        W75564  31.630   4.518  21.638  0.1615 -0.0699  0.0287
32471W        W75565  31.701   4.086  22.870 -0.0362  0.0641  0.1460
32472W        W75566  32.567   6.451  24.685  0.2344 -0.2256  0.2904
32473W        W75567  32.464   6.248  20.608  0.0892  0.4190 -0.0441
32474W        W75568  31.402   5.696  21.757 -0.0096 -0.0098 -0.1535
32475W        W75569  29.302   4.989  19.790 -0.0221  0.1072  0.2975
32476W        W75570  29.539   4.200  23.704  0.2412  0.0991  0.1100
32477W        W75571  30.512   6.385  23.530 -0.0411  0.2820  0.0944
32478W        W75572  28.722   5.978  22.482  0.0437  0.1473 -0.2591
32479W        W75573  31.788   5.383  22.449 -0.1410 -0.0354  0.0514
32480W        W75574  32.668   6.214  19.256 -0.0164  0.1595 -0.1970
32481W        W75575  32.614   5.231  23.536 -0.0156  0.0006 -0.4457
32482W        W75576  31.009   4.959  21.228  0.1282 -0.1567 -0.1612
32483W        W75577  30.394   9.322  20.000 -0.2986 -0.0308  0.2940
32484W        W75578  29.876   4.792  20.393  0.0774  0.0064  0.1052
32485W        W75579  31.700   4.541  22.543  0.0620  0.0137  0.3018
32486W        W75580  31.229   6.958  24.191  0.2564 -0.0929  0.0305
32487W        W75581  30.116   8.468  19.401 -0.0639  0.0604  0.1037
32488W        W75582  30.775   5.068  22.016 -0.0484 -0.0387 -0.2614
32489W        W75583  29.124   6.062  20.154  0.1333 -0.2503 -0.0355
32490W        W75584  34.403   5.339  22.078  0.1947  0.3755  0.1073
32491W        W75585  29.446   6.421  20.624  0.3632  0.1377  0.0555
32492W        W75586  29.846   6.149  20.664  0.0242 -0.0787 -0.1254
32493W        W75587  27.250   5.525  21.852 -0.0549  0.4018 -0.0296
32494W        W75588  32.621   5.590  20.125  0.1198 -0.3347 -0.2676
32495W        W75589  33.917   6.539  20.334  0.1350  0.0787  0.0431
32496W        W75590  27.734   5.055  21.900  0.2034  0.0624  0.4133
32497W        W75591  30.467   4.355  22.707  0.1399 -0.4038 -0.1294
32498W        W75592  29.155   5.753  21.082 -0.2757  0.2061  0.0023
32499W        W75593  31.373   5.582  22.597 -0.1204  0.1589 -0.0408
32500W        W75594  32.961   4.602  20.828  0.0016 -0.1530 -0.0019
32501W        W75595  32.824   6.566  20.365  0.2224  0.2504 -0.2226
32502W        W75596  29.638   6.221  22.974  0.2674  0.1861 -0.1039
32503W        W75597  28.833   4.592  19.344  0.1842  0.2099  0.0346
32504W        W75598  31.491   5.725  23.240  0.2380  0.1099  0.1310
32505W        W75599  30.119   5.906  21.833  0.0358  0.0459 -0.1012
32506W        W75600  30.095   7.651  20.651  0.1241 -0.3344 -0.4100
32507W        W75601  29.830   6.310  22.260  0.1563 -0.0812  0.3932
32508W        W75602  31.028   5.976  20.643 -0.2128  0.2593 -0.1470
32509W        W75603  30.608   7.745  22.839 -0.1150 -0.1031 -0.5277
32510W        W75604  30.230   5.503  24.321 -0.0605 -0.0569  0.1332
32511W        W75605  31.662   5.838  22.156  0.0500  0.3823  0.3100
32512W        W75606  29.718   4.389  21.272  0.1003 -0.1453 -0.1763
32513W        W75607  30.030   4.330  21.717 -0.1231 -0.2368 -0.1083
32514W        W75608  30.242   4.830  22.245 -0.0469 -0.0387 -0.0136
32515W        W75609  30.840   4.477  23.620 -0.3324 -0.2601  0.0359
32516W        W75610  32.996   4.912  23.771  0.1231  0.1523 -0.2215
32517W        W75611  30.630   6.901  22.388 -0.1713 -0.0587  0.1815
32518W        W75612  31.517   4.883  22.012 -0.0580  0.3003 -0.3301
32519W        W75613  31.526   6.943  21.213  0.1856  0.0873  0.4037
32520W        W75614  30.915   5.394  23.518 -0.0470 -0.1062  0.0524
32521W        W75615  30.617   5.583  20.507 -0.2917  0.0881  0.0728
32522W        W75616  29.402   6.753  21.523 -0.0594  0.3036  0.0161
32523W        W75617  29.820   6.818  21.937 -0.4364 -0.0557  0.5866
32524W        W75618  30.016   5.369  22.454 -0.2059  0.0520 -0.0081
32525W        W75619  29.723   5.835  22.452  0.1893  0.0893 -0.0798
32526W        W75620  29.838   6.650  20.768  0.1435  0.2932 -0.3230
32527W        W75621  28.405   6.912  21.585 -0.0125  0.2482 -0.0533
32528W        W75622  32.293   3.739  19.808 -0.0488 -0.3226  0.0045
32529W        W75623  30.920   8.424  19.995 -0.1075  0.1590  0.0553
32530W        W75624  31.502   4.904  21.380  0.0029  0.2700 -0.1939
32531W        W75625  32.404   4.463  22.886  0.0852  0.0664  0.0682
32532W        W75626  32.130   6.428  19.977 -0.2506  0.2287  0.1984
32533W        W75627  32.250   3.316  23.754 -0.0249  0.2099 -0.0018
32534W        W75628  31.814   4.082  21.757  0.0706 -0.0452 -0.1989
32535W        W75629  32.587   5.794  20.926 -0.1022 -0.1900  0.2994
32536W        W75630  28.839   5.491  22.797  0.1494 -0.2081 -0.0835
32537W        W75631  32.405   6.997  22.973  0.0835 -0.1130 -0.0802
32538W        W75632  28.943   5.997  22.899 -0.3369  0.0793 -0.0621
32539W        W75633  32.166   4.308  20.852  0.1116 -0.0388 -0.1492
32540W        W75634  28.960   4.351  20.691 -0.1790  0.1821  0.0145
32541W        W75635  29.881   5.542  22.967 -0.0533 -0.3630  0.0321
32542W        W75636  33.566   6.923  20.097 -0.3678 -0.3522  0.1094
32543W        W75637  31.962   6.425  19.476 -0.1269 -0.0802  0.1346
32544W        W75638  32.881   6.045  20.495 -0.0198  0.0103  0.2399
32545W        W75639  28.516   5.177  22.616  0.0038  0.1185 -0.1369
32546W        W75640  31.114   4.754  21.731 -0.0287  0.2063  0.0310
32547W        W75641  32.420   6.524  19.534 -0.1148  0.2996 -0.1463
32548W        W75642  31.698   5.759  20.608  0.3677  0.1708 -0.0344
32549W        W75643  31.794   5.093  23.988 -0.2602 -0.2593  0.1544
32550W        W75644  32.157   6.531  20.975  0.0094 -0.0653  0.0815
32551W        W75645  31.302   4.375  22.047  0.4074 -0.2024  0.2871
32552W        W75646  33.103   4.493  23.498 -0.0783 -0.1779  0.0484
32553W        W75647  32.122   6.091  22.951  0.0564  0.0521  0.2464
32554W        W75648  32.312   4.875  23.444 -0.0183 -0.0777 -0.5439
32555W        W75649  29.058   5.125  22.494 -0.0640  0.0770  0.0345
32556W        W75650  30.995   6.978  23.415  0.1705  0.0006  0.2078
32557W        W75651  33.109   3.514  20.610  0.1485 -0.1159 -0.2043
32558W        W75652  33.376   5.422  22.123 -0.0947 -0.1262 -0.3395
32559W        W75653  32.526   5.801  21.728  0.1022  0.3113  0.0095
32560W        W75654  32.951   6.434  19.656  0.2106 -0.3656  0.1498
32561W        W75655  28.073   5.603  21.911  0.1569 -0.1128  0.0881
32562W        W75656  32.329   5.001  23.965  0.1536 -0.1121  0.2438
32563W        W75657  29.821   5.482  19.804 -0.1137  0.0689  0.0492
32564W        W75658  32.613   3.780  23.211  0.1069 -0.2857  0.1323
32565W        W75659  30.497   8.146  19.376 -0.2529  0.1076 -0.1875
32566W        W75660  32.403   7.173  19.523  0.0696 -0.0610 -0.2531
32567W        W75661  31.862   5.211  19.712 -0.0952  0.2104  0.2725
32568W        W75662  28.180   5.192  21.649 -0.0503 -0.3930 -0.3196
32569W        W75663  29.057   8.042  21.862  0.2088 -0.0418 -0.0710
32570W        W75664  29.446   4.093  20.762 -0.2523  0.1336 -0.2054
32571W        W75665  32.852   6.183  22.652 -0.0012  0.0214 -0.1663
32572W        W75666  30.494   6.899  23.396  0.0561 -0.0619 -0.1828
32573W        W75667  31.730   5.609  23.929 -0.0252  0.0555  0.1940
32574W        W75668  31.102   2.771  20.648 -0.2948  0.0353  0.2174
32575W        W75669  33.202   5.250  23.459  0.2086  0.2269  0.0318
32576W        W75670  28.696   6.598  20.806  0.2264  0.0124 -0.3125
32577W        W75671  32.764   3.990  22.825 -0.0891 -0.2134 -0.1267
32578W        W75672  30.320   5.825  22.266  0.2155 -0.1898 -0.3674
32579W        W75673  27.557   5.812  22.061  0.1439  0.0468 -0.1075
32580W        W75674  30.810   6.051  20.209  0.1037  0.0422  0.0154
32581W        W75675  31.750   4.895  23.250  0.0607 -0.0984  0.2677
32582W        W75676  31.916   4.482  22.056  0.1301 -0.1514  0.4511
32583W        W75677  30.573   6.066  21.928 -0.2570 -0.1231  0.2286
32584W        W75678  32.906   5.205  23.095  0.2833 -0.3035 -0.1625
32585W        W75679  31.231   6.050  22.596  0.1150 -0.0036  0.0096
32586W        W75680  28.957   5.733  21.555 -0.1335 -0.0510 -0.0036
32587W        W75681  31.881   6.186  22.449 -0.0753  0.4772 -0.2426
32588W        W75682  33.381   5.915  21.319 -0.2298  0.1928 -0.0276
32589W        W75683  28.609   5.697  21.078  0.1609 -0.0541  0.3261
32590W        W75684  29.700   5.041  22.997  0.1090 -0.0548 -0.2384
32591W        W75685  32.164   5.620  22.731  0.3791  0.1423 -0.1737
32592W        W75686  32.096   5.647  22.216  0.0616 -0.2134 -0.0226
32593W        W75687  30.531   4.875  21.020  0.2892  0.0634 -0.0579
32594W        W75688  30.480   5.799  19.849  0.0610 -0.0617  0.2141
32595W        W75689  28.495   6.837  23.041  0.2674 -0.1529 -0.0267
32596W        W75690  29.380   6.005  23.353 -0.0530  0.1617  0.2568
32597W        W75691  28.350   6.185  19.892 -0.2138 -0.0361  0.1823
32598W        W75692  31.676   6.595  20.164  0.0987  0.2718 -0.0348
32599W        W75693  32.054   6.057  20.842  0.2512  0.0612 -0.0829
32600W        W75694  32.192   6.104  22.061 -0.1748 -0.1207  0.1855
32601W        W75695  31.938   6.251  20.386 -0.0741  0.1018 -0.1466
32602W        W75696  29.654   7.165  21.343  0.1654 -0.3504 -0.1876
32603W        W75697  29.011   5.893  19.557  0.1080  0.0749 -0.1162
32604W        W75698  33.566   7.889  20.512 -0.1238  0.0462  0.0135
32605W        W75699  29.468   5.685  21.486 -0.0428 -0.0661  0.0851
32606W        W75700  31.531   5.378  25.019 -0.0747 -0.0532  0.1704
32607W        W75701  31.915   3.459  20.531 -0.0118 -0.0535  0.2257
32608W        W75702  33.417   6.506  20.593  0.3775  0.1870  0.0586
32609W        W75703  32.789   3.974  19.560 -0.1185  0.2236 -0.3068
32610W        W75704  32.585   7.426  23.757 -0.2368  0.1034  0.0929
32611W        W75705  30.792   5.579  22.025 -0.0097  0.0246 -0.1652
32612W        W75706  29.538   4.405  18.972 -0.2061  0.1865  0.0915
32613W        W75707  30.435   5.527  23.319 -0.0560  0.0751 -0.0120
32614W        W75708  33.459   3.717  22.847  0.6108  0.2788  0.0259
32615W        W75709  27.184   6.877  23.210 -0.1079 -0.0706  0.3020
32616W        W75710  32.388   7.102  20.101 -0.0073  0.2502  0.2062
32617W        W75711  28.180   3.889  20.788 -0.0080 -0.3342  0.0249
32618W        W75712  29.461   5.972  21.994 -0.1093 -0.0051  0.2281
32619W        W75713  34.244   4.186  21.566  0.1449 -0.1342  0.1952
32620W        W75714  31.278   6.904  19.412  0.0540  0.1502 -0.0125
32621W        W75715  32.222   5.658  20.584  0.0275 -0.1186  0.1689
32622W        W75716  29.768   6.995  19.912 -0.0225  0.1870  0.1103
32623W        W75717  30.751   6.454  21.646  0.0529 -0.4137 -0.0406
32624W        W75718  29.357   6.221  22.486 -0.1309 -0.0422 -0.0971
32625W        W75719  29.259   4.740  20.356  0.1185  0.1483 -0.2129
32626W        W75720  33.922   4.658  20.907  0.2692 -0.4048 -0.0927
32627W        W75721  31.005   5.134  22.693  0.0810 -0.1378 -0.1730
32628W        W75722  33.427   3.716  23.399  0.1392  0.0070  0.0393
32629W        W75723  29.836   6.447  21.204  0.0220 -0.0045 -0.0269
32630W        W75724  31.907   4.911  21.655 -0.2832 -0.6634 -0.1146
32631W        W75725  29.354   6.544  22.045 -0.3740 -0.2131 -0.3299
32632W        W75726  29.584   6.712  22.798 -0.3782  0.3173 -0.3133
32633W        W75727  32.619   5.622  19.283 -0.3048  0.2077  0.3039
32634W        W75728  31.633   6.475  22.784 -0.1598  0.3348 -0.1000
32635W        W75729  32.296   5.937  20.183  0.0687  0.1075  0.3740
32636W        W75730  33.286   7.876  22.208 -0.3156  0.0620 -0.0638
32637W        W75731  30.190   5.056  22.757  0.1229 -0.2837  0.0288
32638W        W75732  31.301   3.485  21.170 -0.1881  0.1298 -0.1351
32639W        W75733  28.866   5.285  20.868  0.2237 -0.1143  0.0794
32640W        W75734  30.542   5.248  22.408 -0.0893  0.3100 -0.1452
32641W        W75735  31.615   6.851  23.510 -0.0678  0.0549  0.1534
32642W        W75736  28.309   5.213  20.783  0.2111  0.3022  0.1823
32643W        W75737  32.238   5.990  19.675  0.2116  0.1007 -0.2028
32644W        W75738  31.922   4.549  22.964  0.3173  0.5672 -0.0095
32645W        W75739  29.017   9.032  19.870  0.1062 -0.1437  0.1065
32646W        W75740  31.145   5.224  21.718  0.0349 -0.1908  0.1926
32647W        W75741  31.126   5.967  22.095 -0.1790 -0.3944  0.1546
32648W        W75742  28.127   4.986  22.892 -0.0038  0.0292  0.0777
32649W        W75743  31.380   5.868  21.024 -0.3016  0.0059 -0.0035
32650W        W75744  32.564   6.345  21.191 -0.0380 -0.1878  0.4146
32651W        W75745  30.705   3.213  20.831 -0.0506  0.2591  0.4979
32652W        W75746  28.779   5.493  22.300  0.1013  0.0897 -0.1532
32653W        W75747  29.209   6.676  19.479  0.2264 -0.2358  0.1807
32654W        W75748  32.075   3.579  23.124 -0.0037 -0.2500 -0.0955
32655W        W75749  32.380   5.272  22.989 -0.1102 -0.0645 -0.0045
32656W        W75750  31.103   8.433  19.024 -0.0829 -0.1093 -0.4773
32657W        W75751  32.642   4.228  24.310 -0.1629  0.0254  0.1999
32658W        W75752  30.330   6.381  22.326 -0.1127  0.0604  0.2260
32659W        W75753  30.986   8.098  23.202 -0.0494  0.1159 -0.1129
32660W        W75754  30.347   6.263  19.996 -0.1386  0.0936 -0.0593
32661W        W75755  30.878   5.948  23.365  0.0802 -0.0850  0.0378
32662W        W75756  31.556   6.270  20.706  0.0846  0.2718  0.0859
32663W        W75757  30.097   7.308  21.761  0.3180  0.4783 -0.1424
32664W        W75758  31.673   6.769  20.647  0.1351  0.1262 -0.1777
32665W        W75759  30.608   5.174  21.549 -0.0854 -0.0397  0.1433
32666W        W75760  33.826   6.554  20.907 -0.2456 -0.1463 -0.2754
32667W        W75761  31.721   5.314  21.931 -0.0915 -0.1880 -0.1637
32668W        W75762  32.809   3.777  21.583 -0.1399  0.2343  0.0146
32669W        W75763  31.917   3.297  21.906 -0.2434  0.3386 -0.2618
32670W        W75764  29.176   5.462  21.974 -0.0345  0.2558  0.2808
32671W        W75765  28.825   5.466  19.822  0.1720 -0.3008  0.0029
32672W        W75766  29.284   5.661  19.929  0.1287 -0.0520 -0.2558
32673W        W75767  29.588   5.809  19.543  0.1987 -0.0331  0.2836
32674W        W75768  30.723   3.921  24.389 -0.1202 -0.2710  0.0114
32675W        W75769  29.322   4.984  22.094  0.1600  0.1419 -0.0030
32676W        W75770  29.644   4.539  20.755 -0.1922  0.3378  0.3246
32677W        W75771  29.666   4.249  19.484 -0.1138  0.0552  0.0052
32678W        W75772  33.353   8.301  19.139 -0.1023 -0.0298  0.1870
32679W        W75773  30.832   4.069  21.327 -0.0472  0.1585 -0.1026
32680W        W75774  28.270   4.295  21.105  0.0943  0.3315 -0.0989
32681W        W75775  31.196   6.174  19.853 -0.0416  0.2462 -0.1055
32682W        W75776  31.530   6.568  19.670 -0.0320 -0.2226  0.0018
32683W        W75777  30.107   5.209  21.040 -0.2579  0.3916 -0.3209
32684W        W75778  33.051   6.545  23.007  0.0234  0.1570  0.0844
32685W        W75779  29.395   6.209  19.727 -0.1837  0.0024 -0.0591
32686W        W75780  31.641   4.441  24.154 -0.3075  0.0823  0.0105
32687W        W75781  30.287   4.170  24.439 -0.0525  0.0041 -0.0602
32688W        W75782  29.358   3.938  19.788 -0.2946  0.1307 -0.0330
32689W        W75783  32.059   4.934  22.151  0.0456 -0.1004  0.2522
32690W        W75784  30.167   7.800  19.614  0.0444 -0.0929 -0.2763
32691W        W75785  32.853   7.531  19.472  0.1521  0.0643 -0.1210
32692W        W75786  30.415   5.674  22.794  0.0965  0.0422 -0.2955
32693W        W75787  29.818   7.150  22.784  0.2939  0.0480 -0.3283
32694W        W75788  28.134   3.936  22.746 -0.0081 -0.3059 -0.0033
32695W        W75789  31.567   6.603  19.164 -0.0373  0.1968  0.2288
32696W        W75790  31.270   6.737  23.088  0.0635 -0.1020 -0.1624
32697W        W75791  33.087   5.816  20.088  0.0012  0.0485 -0.0818
32698W        W75792  32.370   4.507  22.288  0.2017  0.2295  0.4503
32699W        W75793  32.007   5.143  20.695 -0.2411 -0.0183  0.2325
32700W        W75794  30.193   5.043  23.242  0.1178 -0.0917  0.3651
32701W        W75795  28.801   7.135  22.844 -0.1553  0.1107  0.1718
32702W        W75796  31.286   6.242  23.119  0.0205  0.0111  0.1238
32703W        W75797  29.233   4.435  21.102 -0.1260  0.0521 -0.0070
32704W        W75798  31.109   4.121  19.577  0.4171 -0.1477  0.1801
32705W        W75799  30.912   7.375  20.609  0.3700 -0.1049  0.0917
32706W        W75800  27.563   6.030  21.635 -0.4065  0.1056  0.0099
32707W        W75801  29.675   5.485  21.092  0.1935 -0.1056  0.2750
32708W        W75802  30.605   5.185  22.991 -0.2656 -0.0683 -0.3216
32709W        W75803  31.920   7.054  20.171  0.1131  0.2860 -0.3487
32710W        W75804  32.389   5.940  24.578  0.0703  0.3042 -0.1375
32711W        W75805  32.867   5.365  19.734  0.0967  0.0155 -0.0427
32712W        W75806  32.459   5.293  20.858  0.0135  0.0999  0.0959
32713W        W75807  30.347   7.167  22.813 -0.0537  0.0919  0.0799
32714W        W75808  32.568   6.310  21.717 -0.0975  0.0989 -0.0092
32715W        W75809  30.298   6.505  21.082  0.0657 -0.1572  0.0987
32716W        W75810  32.455   5.318  22.358 -0.0673  0.2002  0.0342
32717W        W75811  29.936   4.629  23.411 -0.0173 -0.2635  0.2090
32718W        W75812  31.003   6.886  20.376  0.1438  0.2468 -0.0672
32719W        W75813  30.885   6.438  21.144  0.0084  0.1713 -0.0239
32720W        W75814  33.759   5.562  22.997  0.0886 -0.0336  0.4126
32721W        W75815  28.525   4.796  21.580 -0.2694  0.0369 -0.2059
32722W        W75816  30.503   4.341  20.995 -0.0688 -0.2018  0.1372
32723W        W75817  29.089   6.925  22.027  0.0519  0.1358 -0.1188
32724W        W75818  31.148   5.533  21.325 -0.2222 -0.1455 -0.0529
32725W        W75819  30.388   7.049  27.164  0.2566 -0.1104  0.0404
32726W        W75820  30.031   5.032  24.334 -0.0666 -0.0327  0.1029
32727W        W75821  31.642   3.885  24.225  0.0725 -0.0590  0.2508
32728W        W75822  30.915   5.943  24.505  0.2475  0.1248 -0.0733
32729W        W75823  29.403   4.813  24.343 -0.2323  0.1329 -0.0121
32730W        W75824  31.420   5.860  24.597  0.1132 -0.2415 -0.0449
32731W        W75825  30.822   5.190  27.523 -0.0345  0.0055  0.0816
32732W        W75826  31.557   7.276  26.804  0.1009 -0.0499  0.1408
32733W        W75827  31.874   7.996  26.845  0.0611  0.2744 -0.0439
32734W        W75828  31.670   5.918  22.835 -0.2316  0.0752  0.5874
32735W        W75829  31.624   4.294  25.529 -0.1505  0.0852 -0.0795
32736W        W75830  31.808   4.578  25.999 -0.0334  0.0997  0.1985
32737W        W75831  29.911   4.565  24.024  0.4004  0.1807  0.0422
32738W        W75832  28.091   4.399  24.872  0.0542  0.0449 -0.3104
32739W        W75833  31.763   3.748  25.534  0.0457  0.1850 -0.2602
32740W        W75834  29.809   6.297  23.540 -0.3676 -0.3908 -0.2747
32741W        W75835  30.014   4.772  26.161  0.2829  0.3216 -0.2763
32742W        W75836  30.023   5.709  25.118  0.0945 -0.0414 -0.3099
32743W        W75837  30.682   7.254  23.690 -0.2086 -0.0437  0.1407
32744W        W75838  32.410   5.165  26.561 -0.1941 -0.1331  0.4929
32745W        W75839  31.521   3.952  26.336  0.2220 -0.2933  0.0069
32746W        W75840  31.238   5.700  23.790 -0.2200 -0.0986 -0.0370
32747W        W75841  29.366   6.581  23.672 -0.2272  0.0041 -0.3221
32748W        W75842  29.004   4.774  24.970  0.0083 -0.1205  0.0925
32749W        W75843  29.543   6.342  25.353  0.0031  0.1577 -0.1690
32750W        W75844  33.514   5.373  26.142 -0.4811  0.2524 -0.0863
32751W        W75845  31.464   4.728  25.670  0.0067 -0.1514 -0.0813
32752W        W75846  29.414   6.948  25.532  0.1849 -0.0269 -0.0629
32753W        W75847  31.141   7.378  26.560 -0.3168 -0.0075 -0.1606
32754W        W75848  32.174   4.246  27.055 -0.0598 -0.1630 -0.0545
32755W        W75849  28.275   6.062  24.427 -0.1833  0.1228 -0.1286
32756W        W75850  28.684   6.387  24.231  0.2457 -0.1024  0.0251
32757W        W75851  31.779   6.402  23.245 -0.0413 -0.0404  0.1232
32758W        W75852  30.468   6.489  24.120  0.4079  0.1146  0.3127
32759W        W75853  32.078   5.838  27.287  0.0295  0.1479  0.0585
32760W        W75854  30.384   7.053  26.322  0.1188  0.1564 -0.2989
32761W        W75855  27.594   7.813  24.012 -0.0971 -0.3010 -0.0485
32762W        W75856  32.135   7.624  27.038 -0.1810 -0.0425  0.1980
32763W        W75857  31.280   6.853  26.629  0.2945  0.0974 -0.0248
32764W        W75858  31.474   4.958  26.124  0.0254  0.2768 -0.2096
32765W        W75859  31.026   5.426  25.144 -0.1001  0.0235 -0.0612
32766W        W75860  31.965   5.741  23.303 -0.1604  0.1322 -0.0284
32767W        W75861  30.938   5.830  25.501 -0.0065  0.1482 -0.0800
32768W        W75862  30.380   6.722  28.365 -0.1278  0.2372 -0.1361
32769W        W75863  29.307   6.549  25.791  0.2905 -0.0986 -0.0882
32770W        W75864  33.154   3.891  25.773  0.0448  0.1084 -0.3189
32771W        W75865  28.484   6.292  22.889  0.2277 -0.0747  0.0994
32772W        W75866  32.121   5.370  23.650 -0.1509 -0.2114  0.0613
32773W        W75867  29.477   4.965  23.479 -0.3004 -0.0569 -0.0819
32774W        W75868  31.815   4.942  24.526  0.0165  0.0758  0.0543
32775W        W75869  30.052   4.503  25.759  0.2466 -0.0585 -0.2212
32776W        W75870  31.922   6.679  24.448  0.2926  0.2828  0.0441
32777W        W75871  30.885   4.836  25.767  0.1080 -0.3041 -0.1152
32778W        W75872  32.017   6.390  27.474  0.3785 -0.0611 -0.1107
32779W        W75873  31.761   4.702  23.695 -0.0435  0.0533 -0.0181
32780W        W75874  30.731   3.475  26.397 -0.3468  0.4614  0.0428
32781W        W75875  30.752   5.075  26.697  0.2626 -0.1853  0.1575
32782W        W75876  28.629   4.231  24.201 -0.5100  0.3302  0.1025
32783W        W75877  32.113   7.239  25.327 -0.0250  0.1809 -0.3027
32784W        W75878  31.727   7.123  24.832 -0.2058  0.1849 -0.0825
32785W        W75879  31.692   6.859  24.013 -0.0543  0.0573 -0.1381
32786W        W75880  29.458   5.552  23.661 -0.0945 -0.0602 -0.3856
32787W        W75881  29.099   5.696  25.667  0.0130 -0.1708 -0.0635
32788W        W75882  28.884   5.658  26.184  0.0145 -0.3883 -0.0474
32789W        W75883  30.050   4.055  22.723  0.0797 -0.1568  0.1712
32790W        W75884  32.632   7.046  28.175 -0.2934 -0.1734  0.0452
32791W        W75885  29.541   5.917  27.453 -0.2106  0.1895  0.2112
32792W        W75886  33.020   5.329  24.513  0.0681 -0.0681  0.1406
32793W        W75887  31.581   5.985  25.517 -0.1594 -0.4062 -0.0155
32794W        W75888  32.327   7.205  26.285  0.0019  0.1039  0.0225
32795W        W75889  32.043   6.296  24.872  0.0487 -0.0427 -0.0306
32796W        W75890  31.149   3.307  24.881  0.2840 -0.3180  0.2902
32797W        W75891  31.862   4.085  25.958 -0.0068 -0.1038 -0.1447
32798W        W75892  29.294   4.662  23.897 -0.1654  0.0714 -0.0615
32799W        W75893  30.370   6.004  24.268  0.2931  0.0900 -0.2040
32800W        W75894  32.748   6.901  26.468  0.1559  0.0943  0.2016
32801W        W75895  32.739   4.783  24.268 -0.0091 -0.3571  0.1466
32802W        W75896  29.160   7.004  26.135  0.3548 -0.1300 -0.0826
32803W        W75897  31.195   4.473  26.763  0.1718  0.0898  0.1171
32804W        W75898  32.285   6.351  26.828 -0.2238 -0.1568 -0.1322
32805W        W75899  29.740   7.365  22.131 -0.0314 -0.0214 -0.0995
32806W        W75900  29.043   6.688  24.664  0.0460  0.1028 -0.1173
32807W        W75901  29.273   6.514  23.169 -0.2073  0.3053  0.1935
32808W        W75902  30.069   4.335  26.463 -0.1046 -0.0717  0.2407
32809W        W75903  30.691   5.663  26.566 -0.2246  0.0378 -0.0465
32810W        W75904  32.734   4.948  24.896 -0.0041  0.0942  0.0895
32811W        W75905  28.091   5.426  26.517  0.0467 -0.3396 -0.2029
32812W        W75906  30.956   3.972  25.362  0.0741  0.0902  0.1651
32813W        W75907  30.154   6.720  23.781 -0.1310  0.3106 -0.0870
32814W        W75908  30.621   6.850  24.511  0.4824 -0.1204  0.4295
32815W        W75909  32.241   5.807  25.071 -0.1142 -0.0658  0.2123
32816W        W75910  32.108   5.064  22.641 -0.3126 -0.1027  0.2596
32817W        W75911  28.112   4.976  24.761  0.0252  0.0293  0.0903
32818W        W75912  29.842   4.030  24.784 -0.1564 -0.1489 -0.0797
32819W        W75913  28.876   4.479  26.499 -0.1244  0.0384  0.1666
32820W        W75914  29.221   3.573  26.469 -0.2807  0.1574 -0.7655
32821W        W75915  32.376   5.806  25.593  0.0928  0.0333  0.0508
32822W        W75916  29.848   3.631  25.640  0.0549 -0.0832  0.0359
32823W        W75917  31.354   3.923  25.816  0.1863  0.0736  0.0281
32824W        W75918  30.017   5.877  24.600 -0.0227 -0.1862  0.0720
32825W        W75919  29.227   6.464  24.190  0.2459 -0.0978  0.0089
32826W        W75920  32.934   3.563  26.568 -0.1435  0.1353  0.3764
32827W        W75921  31.190   5.084  24.804  0.1423  0.2810  0.0379
32828W        W75922  32.465   7.358  25.684  0.0298  0.0083 -0.0306
32829W        W75923  31.134   6.286  25.305  0.2591  0.3505 -0.2514
32830W        W75924  29.795   5.722  27.005  0.2239  0.0120  0.0098
32831W        W75925  29.472   4.304  24.194 -0.2058 -0.2707  0.2045
32832W        W75926  28.408   7.115  25.297  0.6241  0.1822 -0.1249
32833W        W75927  30.448   5.957  25.782 -0.0206  0.0829 -0.1426
32834W        W75928  30.336   3.926  24.831  0.1716  0.1642  0.4017
32835W        W75929  31.674   7.622  24.663 -0.1183 -0.0137  0.1748
32836W        W75930  30.345   5.948  23.783 -0.0214  0.2208  0.2830
32837W        W75931  30.456   5.988  28.761 -0.0082 -0.0293  0.4335
32838W        W75932  32.947   5.009  26.456 -0.0838 -0.2133 -0.0245
32839W        W75933  32.789   6.290  26.746  0.0625 -0.3026 -0.5059
32840W        W75934  32.222   5.664  26.111 -0.1158 -0.2212 -0.2556
32841W        W75935  29.142   2.789  24.189 -0.0134 -0.0885  0.1333
32842W        W75936  30.856   6.295  25.921  0.0716 -0.0414 -0.1110
32843W        W75937  28.176   7.209  24.493  0.1024  0.0955 -0.0290
32844W        W75938  28.817   5.518  24.395 -0.3030 -0.0749  0.2130
32845W        W75939  30.676   6.352  24.638 -0.0789 -0.1454  0.1315
32846W        W75940  32.847   4.337  25.717 -0.2998 -0.1548 -0.1192
32847W        W75941  28.905   5.984  26.662  0.1078  0.1420 -0.2034
32848W        W75942  30.628   6.050  27.071  0.1158  0.0782  0.0523
32849W        W75943  28.923   6.273  23.818 -0.3522 -0.0487 -0.1944
32850W        W75944  29.904   6.161  26.227 -0.3131 -0.2185 -0.3947
32851W        W75945  32.242   3.915  23.490  0.3728 -0.2778 -0.1173
32852W        W75946  33.023   3.870  23.705 -0.1708  0.0979 -0.0876
32853W        W75947  31.131   5.432  26.799 -0.2215  0.0412 -0.1950
32854W        W75948  31.980   6.319  25.335  0.0533  0.3099  0.0223
32855W        W75949  31.193   4.229  24.362 -0.0447 -0.2689 -0.0944
32856W        W75950  30.950   3.268  24.115 -0.2113  0.2544 -0.1634
32857W        W75951  30.862   6.511  29.407  0.3352  0.1348 -0.3529
32858W        W75952  30.861   5.786  26.113  0.4049  0.2302 -0.0351
32859W        W75953  31.674   6.353  24.084 -0.3360 -0.0644 -0.3106
32860W        W75954  31.622   4.322  23.380  0.0099  0.0924 -0.2279
32861W        W75955  32.586   7.542  25.050  0.2150 -0.2775 -0.0101
32862W        W75956  30.342   6.435  25.796 -0.2339  0.2069 -0.2474
32863W        W75957  31.336   5.834  26.523  0.0926  0.1031 -0.2874
32864W        W75958  32.418   6.890  24.434  0.1056 -0.0698 -0.0767
32865W        W75959  30.227   3.371  26.900 -0.1122  0.0468  0.0677
32866W        W75960  31.263   4.715  23.527 -0.1009 -0.1018  0.1359
32867W        W75961  30.917   3.461  25.290  0.1210 -0.0180 -0.0008
32868W        W75962  28.893   6.562  22.786  0.0367 -0.2575  0.0037
32869W        W75963  32.736   3.736  25.539 -0.2795  0.2108  0.0030
32870W        W75964  29.924   3.834  25.202 -0.2977  0.0288 -0.1221
32871W        W75965  32.206   5.257  25.556 -0.2754  0.0633 -0.0542
32872W        W75966  33.196   6.645  26.553  0.3361 -0.1234 -0.0283
32873W        W75967  30.636   4.253  24.057 -0.1504 -0.2188  0.2635
32874W        W75968  32.248   3.742  25.732  0.0750 -0.0603  0.0555
32875W        W75969  30.004   5.064  23.718 -0.1627  0.0054 -0.0014
32876W        W75970  31.972   3.839  27.210  0.0895  0.0375 -0.0463
32877W        W75971  29.228   5.083  25.780  0.0834 -0.1889  0.0117
32878W        W75972  27.677   6.841  27.369 -0.0011 -0.4062  0.3367
32879W        W75973  32.682   5.126  27.000  0.1487  0.1419 -0.3436
32880W        W75974  31.308   5.838  25.116  0.1734  0.0504 -0.0874
32881W        W75975  31.964   4.357  27.509  0.1755 -0.2784 -0.3057
32882W        W75976  30.512   5.102  24.303  0.0744 -0.1432  0.0154
32883W        W75977  28.676   7.625  23.266 -0.0186  0.1053  0.0520
32884W        W75978  30.404   5.613  24.775  0.2213  0.0798  0.0262
32885W        W75979  30.525   4.587  26.257 -0.0354 -0.0760  0.1335
32886W        W75980  29.962   6.826  24.784  0.0292 -0.1029  0.1470
32887W        W75981  30.431   6.072  23.124 -0.1731 -0.2384  0.0641
32888W        W75982  31.801   5.947  26.355 -0.1304  0.0501 -0.1768
32889W        W75983  30.174   7.647  25.003 -0.0694  0.3092 -0.2167
32890W        W75984  31.859   3.247  25.569  0.0988 -0.0536  0.0467
32891W        W75985  27.821   5.275  25.115  0.0412 -0.0886  0.2735
32892W        W75986  29.653   5.700  24.856  0.4202 -0.0010 -0.2363
32893W        W75987  29.685   5.240  25.273  0.1577  0.0845 -0.0104
32894W        W75988  29.798   5.076  25.756 -0.0069 -0.1281 -0.0968
32895W        W75989  32.699   6.962  23.999  0.3149 -0.3757 -0.1544
32896W        W75990  30.325   5.483  26.169 -0.1432  0.0426 -0.0786
32897W        W75991  30.337   3.601  27.291 -0.2776  0.0660  0.2066
32898W        W75992  29.154   6.326  26.857 -0.0694 -0.2019  0.1813
32899W        W75993  30.615   5.066  26.214  0.0445  0.1245  0.1192
32900W        W75994  31.795   2.336  24.623 -0.1579  0.4350 -0.1641
32901W        W75995  31.976   5.278  25.077  0.0483  0.3915  0.1956
32902W        W75996  31.464   7.032  27.257 -0.2708  0.0802  0.1492
32903W        W75997  29.853   4.472  24.528 -0.1238 -0.0075 -0.0837
32904W        W75998  33.167   5.458  25.077 -0.1985  0.0318  0.0228
32905W        W75999  30.048   4.815  24.846  0.3868 -0.3034 -0.0664
32906W        W76000  29.663   7.593  25.396  0.0914  0.3977 -0.2703
32907W        W76001  33.412   5.662  26.519 -0.1103  0.1863  0.0569
32908W        W76002  30.044   5.567  23.831 -0.2825  0.1259  0.2344
32909W        W76003  30.364   6.708  25.036  0.2688  0.2983 -0.1084
32910W        W76004  29.692   4.338  26.835  0.2620 -0.0670  0.1174
32911W        W76005  32.198   5.698  27.860 -0.0918 -0.1983 -0.1644
32912W        W76006  30.368   4.896  25.797  0.2738 -0.4010 -0.1310
32913W        W76007  30.892   4.854  24.397  0.2590  0.0142 -0.0228
32914W        W76008  29.978   5.970  25.545 -0.0538 -0.0289 -0.0376
32915W        W76009  33.085   6.331  28.557 -0.1302  0.2973  0.1669
32916W        W76010  32.428   3.309  25.601  0.4352  0.1613 -0.1986
32917W        W76011  30.696   7.537  27.938  0.0219 -0.0908  0.2483
32918W        W76012  32.696   3.151  26.727 -0.3441  0.2394 -0.3725
32919W        W76013  33.162   7.485  24.579 -0.0850 -0.1437  0.0139
32920W        W76014  31.084   5.799  27.220 -0.0244  0.1229 -0.1390
32921W        W76015  30.173   6.588  23.128  0.2432  0.1055 -0.0074
32922W        W76016  28.742   5.985  24.579  0.2836  0.5048  0.1558
32923W        W76017  29.599   6.128  24.403  0.4198  0.3817 -0.1902
32924W        W76018  30.152   4.575  26.933  0.1249  0.2018  0.1504
32925W        W76019  29.787   7.064  27.105 -0.0137  0.0776  0.1361
32926W        W76020  29.395   7.161  23.430  0.1240  0.3693  0.2254
32927W        W76021  26.920   5.811  25.091 -0.3537  0.1021  0.1839
32928W        W76022  33.388   5.081  24.260 -0.0358  0.0566 -0.2316
32929W        W76023  31.253   6.109  24.099  0.0350 -0.0226  0.2401
32930W        W76024  31.342   3.706  25.234 -0.1733 -0.1720 -0.1595
32931W        W76025  33.175   3.091  26.825  0.0800 -0.0999  0.0202
32932W        W76026  30.460   4.559  23.151 -0.3742  0.1330 -0.3105
32933W        W76027  32.040   3.878  27.748 -0.0910 -0.0414  0.0732
32934W        W76028  29.296   4.879  26.694  0.0862  0.1512  0.2013
32935W        W76029  32.054   6.798  25.036  0.3107  0.1240 -0.0098
32936W        W76030  29.351   5.786  26.518  0.1578 -0.2503  0.1843
32937W        W76031  31.669   5.944  27.742  0.3659  0.0371 -0.0284
32938W        W76032  29.311   5.879  27.011 -0.1788 -0.2040  0.0157
32939W        W76033  30.485   4.759  23.952  0.2221 -0.0553  0.2559
32940W        W76034  30.344   4.671  24.456 -0.3945  0.0080  0.0710
32941W        W76035  30.103   6.358  25.280  0.2121 -0.3372 -0.1941
32942W        W76036  32.323   6.174  26.318  0.0583 -0.2887 -0.2934
32943W        W76037  31.444   5.262  23.598 -0.0011 -0.1069  0.2412
32944W        W76038  30.768   4.410  24.562  0.2250 -0.2392  0.0681
32945W        W76039  30.337   6.315  26.701  0.2334  0.1357 -0.0500
32946W        W76040  32.233   4.890  25.005 -0.0326 -0.3295 -0.0476
32947W        W76041  31.383   4.978  24.227  0.3444 -0.0869 -0.2764
32948W        W76042  29.799   6.235  24.879  0.1387  0.3340 -0.2019
32949W        W76043  30.813   4.154  27.134  0.3185  0.1935  0.1476
32950W        W76044  31.189   5.399  24.265 -0.1497 -0.3856 -0.2666
32951W        W76045  31.641   4.841  25.092  0.2511  0.2266 -0.0369
32952W        W76046  32.288   3.864  25.240 -0.0694 -0.2315 -0.2493
32953W        W76047  31.877   3.592  26.056  0.2622  0.0359 -0.2823
32954W        W76048  29.601   5.383  27.289 -0.1675  0.0144 -0.4962
32955W        W76049  30.556   4.933  27.831  0.4399 -0.0549 -0.1191
32956W        W76050  32.706   7.830  26.422  0.0640  0.2285 -0.0947
32957W        W76051  32.624   4.616  23.757 -0.2699  0.0043  0.1094
32958W        W76052  33.977   5.741  26.077  0.1026  0.1800 -0.3152
32959W        W76053  32.831   5.840  24.418 -0.3614 -0.0142 -0.2097
32960W        W76054  32.153   4.526  24.047 -0.0200  0.0413 -0.0266
32961W        W76055  28.561   6.028  25.393  0.1020  0.0558 -0.0073
32962W        W76056  32.155   5.646  28.518 -0.0885  0.0062 -0.2197
32963W        W76057  29.933   6.030  23.978  0.0227  0.3164  0.1660
32964W        W76058  33.151   4.466  26.562 -0.1164 -0.1007 -0.0664
32965W        W76059  31.478   6.196  23.636 -0.3468 -0.0143 -0.0202
32966W        W76060  32.575   5.691  26.472  0.4034  0.1562  0.0617
32967W        W76061  32.405   5.205  24.419 -0.0951 -0.2614 -0.0715
32968W        W76062  27.727   4.417  25.222  0.0273  0.2169  0.0142
32969W        W76063  30.766   6.997  28.015  0.4334 -0.0203  0.2715
32970W        W76064  30.147   3.276  23.768  0.1826 -0.1637  0.2343
32971W        W76065  30.728   5.609  24.189  0.1050 -0.1008  0.0467
32972W        W76066  31.149   4.409  25.890 -0.2536  0.1023 -0.0705
32973W        W76067  33.884   6.326  28.458 -0.0154  0.3303 -0.0301
32974W        W76068  30.813   3.727  24.849  0.1875 -0.1599 -0.0691
32975W        W76069  32.636   5.765  26.938  0.0622 -0.1275 -0.1663
32976W        W76070  30.302   6.948  25.811 -0.4490  0.1383 -0.1648
32977W        W76071  31.713   3.292  27.071  0.1548  0.1488  0.0435
32978W        W76072  29.524   8.126  25.388  0.0094  0.1003  0.1841
32979W        W76073  28.534   5.443  25.518  0.0063  0.1953  0.0246
32980W        W76074  30.203   7.264  24.593 -0.1955  0.1879 -0.0900
32981W        W76075  30.976   4.165  26.271  0.0599  0.1508 -0.0325
32982W        W76076  31.983   4.678  25.453  0.2725  0.0730  0.2148
32983W        W76077  31.559   6.265  25.071 -0.0681  0.1499 -0.1722
32984W        W76078  33.047   5.401  27.305 -0.0717  0.1120  0.0495
32985W        W76079  30.106   6.732  26.852 -0.0424  0.0499 -0.2885
32986W        W76080  29.120   5.689  24.808  0.0924  0.0765 -0.1661
32987W        W76081  30.644   7.156  26.711 -0.1392  0.1104  0.1780
32988W        W76082  33.428   5.952  27.354 -0.0856  0.0826  0.0032
32989W        W76083  29.346   5.837  25.267 -0.0132  0.1021 -0.2447
32990W        W76084  28.383   3.833  26.800  0.1195  0.0449 -0.1454
32991W        W76085  30.668   5.460  27.917 -0.1271  0.5338  0.0429
32992W        W76086  32.481   4.672  25.694 -0.2625  0.2281 -0.0363
32993W        W76087  30.650   4.963  23.566 -0.0552 -0.1833  0.3442
32994W        W76088  32.618   5.927  23.032 -0.0168  0.1890  0.2036
32995W        W76089  30.783   6.960  28.532 -0.0214 -0.1631  0.2707
32996W        W76090  28.487   4.706  25.019 -0.0304  0.0257  0.3707
32997W        W76091  30.401   6.113  24.943  0.0267  0.2053 -0.3972
32998W        W76092  30.833   5.957  25.017  0.0514  0.1787  0.0897
32999W        W76093  30.562   5.667  25.283  0.1776 -0.0132 -0.0813
33000W        W76094  31.449   6.564  25.565  0.3513 -0.0368  0.1183
33001W        W76095  29.936   5.295  24.753 -0.3983  0.0382  0.3138
33002W        W76096  30.626   6.605  26.221 -0.0103  0.0900  0.0996
33003W        W76097  27.545   6.981  23.520  0.1760 -0.1333 -0.2340
33004W        W76098  32.202   6.291  24.328 -0.1108 -0.3090  0.0675
33005W        W76099  30.872   7.088  26.288 -0.0185  0.0707 -0.0714
33006W        W76100  33.613   7.236  26.083 -0.2355  0.0470 -0.2222
33007W        W76101  30.460   4.563  24.913  0.0085  0.0407 -0.1218
33008W        W76102  32.568   5.448  24.815 -0.0032 -0.0152 -0.2259
33009W        W76103  32.968   4.423  24.021  0.0980  0.2208 -0.2451
33010W        W76104  30.751   6.197  26.484  0.0563 -0.0134 -0.0330
33011W        W76105  30.090   5.787  26.599  0.2118  0.0085 -0.0606
33012W        W76106  30.672   3.482  23.653  0.0059 -0.0254  0.2821
33013W        W76107  30.326   5.301  27.590  0.0232 -0.1556  0.1175
33014W        W76108  33.095   3.998  26.883  0.0640 -0.1464 -0.2812
33015W        W76109  28.297   7.404  26.981  0.2264 -0.0969 -0.3634
33016W        W76110  33.211   7.189  23.178 -0.0997  0.1280  0.0277
33017W        W76111  29.390   4.004  23.155 -0.0534  0.0025  0.1249
33018W        W76112  30.140   5.469  25.710 -0.1343  0.0790 -0.1067
33019W        W76113  32.670   3.958  26.006 -0.2369  0.0395  0.0212
33020W        W76114  29.375   6.195  21.039 -0.0618 -0.1512 -0.0789
33021W        W76115  30.633   5.006  25.310  0.1336 -0.0185 -0.0826
33022W        W76116  29.443   7.061  24.663 -0.0409  0.1567  0.2897
33023W        W76117  30.801   6.461  23.144  0.0826  0.0012 -0.1620
33024W        W76118  29.790   7.582  24.627  0.0772 -0.0145 -0.0145
33025W        W76119  29.200   4.308  25.480  0.0587 -0.2031 -0.0652
33026W        W76120  32.111   5.553  24.679  0.0377  0.2071 -0.1748
33027W        W76121  29.771   4.803  26.611 -0.3427 -0.0520 -0.1161
33028W        W76122  33.374   4.328  25.996 -0.1478 -0.1663 -0.0806
33029W        W76123  28.780   6.193  24.997  0.3611  0.0400  0.0249
33030W        W76124  30.751   4.199  24.993  0.1314 -0.1009  0.1345
33031W        W76125  31.449   4.467  26.312  0.0835  0.3869  0.2315
33032W        W76126  28.500   4.954  25.635 -0.1781 -0.2250  0.0091
33033W        W76127  31.827   4.122  23.825 -0.0585 -0.3115  0.0119
33034W        W76128  31.547   5.400  26.389 -0.1059 -0.2216  0.3892
33035W        W76129  31.024   5.539  22.993 -0.3426 -0.1039 -0.1269
33036W        W76130  31.505   7.302  27.633  0.1476  0.0726  0.1895
33037W        W76131  30.220   5.274  25.169 -0.1354 -0.0591 -0.0880
33038W        W76132  29.827   4.458  25.130  0.0515  0.2583  0.3389
33039W        W76133  29.609   6.645  24.480 -0.1193  0.0959  0.0155
33040W        W76134  29.933   5.224  26.365  0.1532 -0.1482 -0.0900
33041W        W76135  32.041   7.068  26.671  0.1939  0.1387  0.3287
33042W        W76136  29.139   2.375  23.859  0.0625  0.1842 -0.1621
33043W        W76137  33.082   7.196  23.661 -0.1331  0.2812  0.3210
33044W        W76138  32.283   5.054  26.004  0.0615  0.1574 -0.1168
33045W        W76139  30.566   7.383  23.237  0.2029  0.0946  0.0607
33046W        W76140  31.359   4.428  25.068  0.0153 -0.4122 -0.3231
33047W        W76141  31.641   6.286  24.576 -0.1494 -0.1719  0.1715
33048W        W76142  28.490   4.595  26.137 -0.2524  0.0028  0.0213
33049W        W76143  31.654   7.049  26.308  0.0347  0.1588  0.3752
33050W        W76144  32.082   7.731  25.426  0.2784 -0.0225  0.1979
33051W        W76145  29.286   3.217  24.519 -0.1495  0.1030 -0.0334
33052W        W76146  29.975   6.801  25.457 -0.1203 -0.2009  0.0334
33053W        W76147  29.553   6.709  24.997 -0.2173 -0.1162 -0.1995
33054W        W76148  32.826   5.956  25.902  0.0482 -0.0127 -0.0465
33055W        W76149  32.417   4.509  26.266 -0.2563  0.1407 -0.1928
33056W        W76150  31.225   6.594  23.859 -0.2852  0.1303 -0.3022
33057W        W76151  32.236   4.784  26.981 -0.2179 -0.0909 -0.1479
33058W        W76152  31.831   5.092  26.794 -0.0380  0.0367 -0.0605
33059W        W76153  32.121   6.722  28.098 -0.0653  0.1326 -0.0743
33060W        W76154  28.089   6.096  23.917 -0.0640  0.0518 -0.1637
33061W        W76155  30.273   5.517  27.102  0.0693 -0.0005 -0.0920
33062W        W76156  31.144   6.269  24.825  0.0367 -0.4127 -0.1059
33063W        W76157  30.856   6.168  23.856 -0.1794 -0.1159  0.2727
33064W        W76158  30.599   6.304  25.401 -0.1597  0.0743 -0.0273
33065W        W76159  31.676   5.419  24.397 -0.2834 -0.0250 -0.1141
33066W        W76160  32.618   7.057  23.400  0.1381  0.1617  0.0689
33067W        W76161  29.756   5.670  26.212 -0.2650 -0.1201 -0.1825
33068W        W76162  33.321   3.871  25.123 -0.1320 -0.4271 -0.0704
33069W        W76163  31.359   4.663  24.613  0.0863  0.0125  0.0067
33070W        W76164  29.422   6.049  25.833  0.1169  0.2610 -0.3118
33071W        W76165  28.352   4.550  24.012  0.2609 -0.0971 -0.2251
33072W        W76166  29.631   7.488  23.130  0.1301  0.0515 -0.0312
33073W        W76167  30.394   6.002  26.260  0.2037 -0.0558 -0.3321
33074W        W76168  31.729   4.631  27.037  0.0010 -0.1971  0.0125
33075W        W76169  29.156   5.106  27.089 -0.1036  0.0387 -0.2358
33076W        W76170  30.048   6.830  24.280 -0.2503 -0.0016 -0.1833
33077W        W76171  30.533   4.416  25.809  0.1542  0.1150  0.0974
33078W        W76172  30.623   5.358  25.751 -0.0643  0.0439  0.0684
33079W        W76173  28.924   4.820  25.494 -0.0535  0.1962  0.0054
33080W        W76174  29.040   4.004  24.406  0.0936  0.2556  0.2765
33081W        W76175  31.042   5.069  23.850  0.3218  0.0020 -0.1886
33082W        W76176  32.014   7.698  23.655  0.4456  0.1347  0.1251
33083W        W76177  30.201   3.980  25.802  0.2411 -0.3425 -0.1740
33084W        W76178  33.029   7.393  26.501 -0.2141  0.1742  0.0031
33085W        W76179  29.211   5.733  22.399 -0.0934 -0.1155  0.1461
33086W        W76180  30.714   5.364  27.074 -0.1720 -0.0911 -0.0112
33087W        W76181  31.294   4.270  27.226  0.2015 -0.0141 -0.0167
33088W        W76182  28.426   3.794  24.403 -0.0828 -0.0149  0.0622
33089W        W76183  31.450   5.494  25.474  0.0483  0.0028  0.0277
33090W        W76184  31.677   7.429  25.524 -0.0414 -0.2899  0.1576
33091W        W76185  33.620   7.265  23.509  0.0224  0.2779 -0.2297
33092W        W76186  30.739   4.651  27.016  0.1636 -0.0624 -0.1060
33093W        W76187  31.303   6.142  25.883  0.5033 -0.2036 -0.2628
33094W        W76188  29.446   5.283  24.599 -0.1008 -0.3344 -0.2399
33095W        W76189  32.613   5.203  25.324  0.0265  0.0795 -0.0903
33096W        W76190  30.622   5.691  27.477  0.0359  0.1109 -0.1493
33097W        W76191  32.538   6.429  23.093  0.3447 -0.0796 -0.4264
33098W        W76192  33.537   5.184  25.687  0.3245  0.3343  0.0631
33099W        W76193  30.951   4.694  24.942  0.0158 -0.0545 -0.0525
33100W        W76194  29.022   5.326  26.631  0.1156 -0.2423 -0.2711
33101W        W76195  28.880   6.719  26.663  0.1028  0.0484 -0.2235
33102W        W76196  32.860   6.914  28.675  0.1030 -0.0488  0.0481
33103W        W76197  28.084   4.271  24.410 -0.0894  0.0687 -0.0115
33104W        W76198  31.129   3.672  26.246  0.0393  0.2583 -0.3862
33105W        W76199  30.874   5.497  24.656  0.1491 -0.0388  0.1283
33106W        W76200  29.265   6.218  24.853 -0.2776  0.1543 -0.0425
33107W        W76201  30.601   5.103  24.842 -0.0807 -0.1108  0.2339
33108W        W76202  31.143   5.019  27.112  0.0434  0.1252  0.0744
33109W        W76203  31.152   5.271  25.852 -0.0111  0.1527  0.1190
33110W        W76204  31.763   6.179  26.890  0.3055 -0.0118 -0.0488
33111W        W76205  30.474   5.292  23.849 -0.0978  0.2429  0.2675
33112W        W76206  32.758   5.715  23.885  0.2186  0.1576 -0.0995
33113W        W76207  31.059   7.347  25.108 -0.2197  0.5280 -0.2000
33114W        W76208  32.921   8.294  28.554  0.0609  0.1323  0.1371
33115W        W76209  31.923   6.878  27.561 -0.1057  0.3233  0.1677
33116W        W76210  31.338   5.668  26.015  0.2056  0.1544 -0.2012
33117W        W76211  31.027   4.769  26.250 -0.1901 -0.2103  0.0218
33118W        W76212  30.360   7.056  24.039 -0.1645 -0.1086  0.0572
33119W        W76213  30.148   6.364  24.539  0.2843 -0.2980 -0.0005
33120W        W76214  32.401   4.502  25.224 -0.0297 -0.1088 -0.1545
33121W        W76215  29.205   5.291  25.211  0.0134 -0.0593 -0.1112
33122W        W76216  32.014   2.666  24.981  0.1412 -0.0604 -0.0316
33123W        W76217  30.066   6.707  26.218 -0.1185  0.0411 -0.0723
33124W        W76218  32.622   5.427  25.840 -0.1378 -0.1610 -0.2751
33125W        W76219  30.316   6.578  31.321  0.1143  0.3740  0.0613
33126W        W76220  31.843   5.634  29.495 -0.0604  0.1713 -0.2179
33127W        W76221  32.998   5.414  26.718 -0.1185 -0.2647 -0.0179
33128W        W76222  32.865   5.209  28.827  0.1190  0.2064  0.0244
33129W        W76223  30.143   5.264  28.280  0.2032  0.2354 -0.2363
33130W        W76224  33.144   7.609  28.123  0.0776  0.0047  0.3407
33131W        W76225  29.722   3.650  29.392  0.1269 -0.1297 -0.1359
33132W        W76226  31.296   6.820  29.261  0.2988  0.0371 -0.0052
33133W        W76227  33.562   8.856  30.665  0.1812 -0.0508 -0.2756
33134W        W76228  31.237   6.218  26.963 -0.1098  0.2693  0.1263
33135W        W76229  28.708   4.987  30.673 -0.2692 -0.1114 -0.2078
33136W        W76230  31.106   6.314  30.388 -0.1087  0.2135 -0.1864
33137W        W76231  31.021   4.962  28.053 -0.1142 -0.1342  0.0590
33138W        W76232  28.801   4.237  29.192 -0.0507  0.1488  0.0813
33139W        W76233  30.206   4.609  30.316 -0.0653  0.0324 -0.3728
33140W        W76234  31.870   5.990  28.713  0.1477  0.1445  0.0966
33141W        W76235  29.488   4.419  29.506 -0.4524 -0.1336 -0.2879
33142W        W76236  29.961   5.829  29.777  0.2332  0.1795  0.0867
33143W        W76237  30.553   7.242  29.277  0.0052  0.1010 -0.1568
33144W        W76238  29.767   4.540  29.924 -0.1036  0.1491 -0.1623
33145W        W76239  31.819   4.852  30.592  0.1072 -0.1617 -0.1971
33146W        W76240  32.563   6.602  28.912  0.0943  0.3024 -0.4254
33147W        W76241  28.231   4.881  26.548  0.0558  0.1961  0.0213
33148W        W76242  29.793   5.589  29.391 -0.0702 -0.0324  0.0029
33149W        W76243  30.322   5.816  30.698  0.0894 -0.0495  0.2379
33150W        W76244  33.925   4.307  29.539  0.0196 -0.0982 -0.0780
33151W        W76245  32.349   3.997  29.896  0.3015  0.0133  0.0573
33152W        W76246  31.411   7.021  29.729 -0.1373  0.1348  0.0648
33153W        W76247  32.172   6.374  29.612 -0.3204 -0.2446 -0.1178
33154W        W76248  33.064   4.874  31.535  0.1608  0.3999  0.0092
33155W        W76249  29.854   6.803  28.803 -0.1621  0.4375  0.0945
33156W        W76250  29.328   7.903  28.557  0.4035 -0.1848 -0.0732
33157W        W76251  30.099   6.417  28.627 -0.2812  0.0440 -0.1681
33158W        W76252  31.677   6.452  28.932 -0.2182  0.5119 -0.4807
33159W        W76253  31.422   7.237  30.839  0.1430  0.0726  0.1430
33160W        W76254  29.799   7.887  31.366 -0.2253  0.3027  0.3748
33161W        W76255  29.820   7.394  28.144  0.1278 -0.0555 -0.1322
33162W        W76256  31.194   7.660  31.854 -0.1817  0.1259 -0.0261
33163W        W76257  31.199   6.990   0.172 -0.3300 -0.2695  0.0659
33164W        W76258  31.228   6.040  29.988 -0.0996  0.0916  0.1845
33165W        W76259  30.232   5.820  29.300 -0.1738  0.0259 -0.0750
33166W        W76260  30.047   7.694  26.410  0.1629  0.0680 -0.0589
33167W        W76261  32.189   6.303  28.935  0.5648 -0.0477 -0.2839
33168W        W76262  29.331   6.294  29.881 -0.0297  0.0898 -0.0866
33169W        W76263  28.725   6.046  29.001  0.0267  0.0266 -0.2248
33170W        W76264  31.543   4.517  31.900 -0.0758  0.2818  0.0185
33171W        W76265  30.929   7.029  29.522  0.2454  0.0218 -0.1351
33172W        W76266  31.475   5.148  28.238  0.0306 -0.1850  0.1512
33173W        W76267  31.266   4.571  28.195  0.2892 -0.0017 -0.0189
33174W        W76268  30.822   4.666  29.043  0.1686 -0.1955 -0.0035
33175W        W76269  32.089   4.438  29.792 -0.0738  0.0881  0.1694
33176W        W76270  29.866   7.283  29.527  0.1586 -0.2067  0.1353
33177W        W76271  31.694   5.278  30.261 -0.0466  0.1157  0.1575
33178W        W76272  33.384   7.524  30.839  0.0326  0.2468  0.2799
33179W        W76273  31.588   5.119  27.292  0.0111  0.0100 -0.2480
33180W        W76274  31.186   5.078  30.867  0.1617 -0.1261 -0.0561
33181W        W76275  30.147   6.185  30.115  0.0427 -0.1352 -0.1998
33182W        W76276  29.775   4.760  29.060  0.2222  0.3614 -0.1382
33183W        W76277  32.921   7.235  26.947 -0.0907 -0.0986 -0.1865
33184W        W76278  34.074   7.355  29.740 -0.0153 -0.1535 -0.0921
33185W        W76279  32.758   8.046  28.164 -0.2504  0.2512  0.1257
33186W        W76280  30.049   3.895  26.743 -0.1237 -0.2272 -0.3305
33187W        W76281  28.665   6.548  29.646  0.1420  0.2923  0.1727
33188W        W76282  29.151   5.628  29.788 -0.0557  0.1302  0.3604
33189W        W76283  30.958   3.773  27.950 -0.0488  0.0867  0.0658
33190W        W76284  32.968   5.884  31.572 -0.1185 -0.4631 -0.0907
33191W        W76285  29.412   6.721  28.444  0.0447 -0.0382  0.2283
33192W        W76286  33.104   5.326  28.305 -0.1134 -0.4181  0.0495
33193W        W76287  29.814   6.151  30.537  0.1271 -0.0185 -0.1289
33194W        W76288  31.426   6.822  30.280  0.0414  0.1983  0.2058
33195W        W76289  32.461   7.380  26.774 -0.1616  0.1088  0.0058
33196W        W76290  30.010   3.482  29.716 -0.3218 -0.0184  0.0064
33197W        W76291  30.577   4.345  29.883 -0.1596  0.1588  0.1442
33198W        W76292  29.889   4.905  27.946 -0.0773  0.0104 -0.0757
33199W        W76293  30.160   6.613  27.365 -0.1700 -0.2911  0.1304
33200W        W76294  32.636   7.947   0.025  0.0905  0.1173  0.1611
33201W        W76295  33.179   7.208  28.432  0.2209  0.0910  0.2940
33202W        W76296  29.302   6.416  30.386 -0.0394 -0.0037  0.0133
33203W        W76297  29.620   5.220  30.915  0.0426 -0.0382  0.3001
33204W        W76298  32.165   6.228  31.813  0.1570  0.2746 -0.0944
33205W        W76299  29.497   6.841  27.475  0.0844 -0.0647 -0.3150
33206W        W76300  30.293   7.099  28.092  0.1488 -0.1908  0.0214
33207W        W76301  30.739   6.001  30.157  0.0761  0.1701 -0.0195
33208W        W76302  29.927   4.124  29.031  0.1018  0.3191 -0.0121
33209W        W76303  29.069   5.966  30.155  0.0217  0.2122 -0.0531
33210W        W76304  33.195   5.040  29.241 -0.4088  0.0850 -0.2862
33211W        W76305  30.437   5.587  30.256  0.0621 -0.1645 -0.0936
33212W        W76306  32.391   4.263  27.926  0.0976  0.0347  0.1347
33213W        W76307  30.872   6.048  29.598 -0.1056  0.2130 -0.0111
33214W        W76308  33.034   8.416  27.971  0.0357 -0.2912  0.2569
33215W        W76309  31.751   5.471  27.963 -0.1385 -0.2076  0.0417
33216W        W76310  31.589   6.062  27.286 -0.2127 -0.6345  0.1868
33217W        W76311  28.887   5.032  29.858 -0.0578 -0.0046  0.0673
33218W        W76312  30.241   4.716  28.274 -0.2950  0.1989 -0.1478
33219W        W76313  30.328   4.193  30.598 -0.0197  0.3671  0.2076
33220W        W76314  29.288   4.025  29.049  0.0771  0.1654 -0.2069
33221W        W76315  31.687   4.482  30.255 -0.0031 -0.0037 -0.1544
33222W        W76316  29.028   3.647  28.273 -0.2710  0.1518 -0.1230
33223W        W76317  32.005   4.811  30.106 -0.1318  0.1601  0.0785
33224W        W76318  31.709   4.757  29.710 -0.1711  0.0847  0.0662
33225W        W76319  28.606   6.663  28.224 -0.1267 -0.3853  0.1457
33226W        W76320  32.278   3.888  31.524 -0.2027  0.1237 -0.1061
33227W        W76321  32.360   7.740  29.981 -0.0211 -0.0852 -0.0545
33228W        W76322  33.067   7.879  31.201 -0.0463 -0.0988  0.2117
33229W        W76323  32.749   7.417  29.701 -0.0684  0.0569 -0.3912
33230W        W76324  30.352   5.111  30.281 -0.1381  0.1658 -0.1025
33231W        W76325  31.685   3.709  28.066 -0.3134 -0.1661  0.4844
33232W        W76326  30.005   8.022  30.259  0.0757  0.0396  0.0553
33233W        W76327  31.331   6.274  29.296 -0.4537 -0.0066  0.2508
33234W        W76328  31.238   5.297  27.798 -0.2117 -0.1239  0.0895
33235W        W76329  33.323   7.662  29.860 -0.2018  0.0484  0.3527
33236W        W76330  30.484   5.736  29.758  0.1467  0.2633  0.0636
33237W        W76331  30.356   6.231  29.612 -0.1480 -0.1898 -0.1937
33238W        W76332  33.215   4.164  30.295 -0.1574 -0.0362 -0.1040
33239W        W76333  32.489   4.904  29.858  0.0262 -0.1837 -0.3759
33240W        W76334  30.959   4.394  29.516  0.2901  0.0160 -0.1845
33241W        W76335  29.494   3.895  26.981  0.0483 -0.0895 -0.0896
33242W        W76336  32.179   9.294  29.273  0.3336  0.0496 -0.0557
33243W        W76337  30.537   5.698  28.370 -0.6045 -0.3397 -0.1086
33244W        W76338  29.539   6.325  28.699  0.1752  0.1673 -0.1883
33245W        W76339  32.067   5.609  30.141  0.4473 -0.2342  0.0727
33246W        W76340  34.095   4.849  29.307  0.1154 -0.1553  0.0461
33247W        W76341  29.603   5.970  30.124 -0.0209 -0.1757 -0.0953
33248W        W76342  31.238   6.012  31.887  0.1620  0.1586 -0.0827
33249W        W76343  30.261   5.745  27.933  0.1287  0.2319 -0.1014
33250W        W76344  29.056   6.722  29.920  0.0767  0.2898  0.0468
33251W        W76345  32.749   5.686  29.020  0.0293 -0.0279 -0.1094
33252W        W76346  32.568   4.076  26.510  0.2961 -0.2731  0.0250
33253W        W76347  30.702   6.572  30.964 -0.0799  0.2149  0.1339
33254W        W76348  32.303   5.818  29.121  0.2237  0.0040 -0.0280
33255W        W76349  31.957   5.063  26.313  0.1318  0.0292  0.2297
33256W        W76350  31.451   4.376  27.718 -0.0686  0.0387 -0.0467
33257W        W76351  29.827   7.136  30.649 -0.3050 -0.0944 -0.0751
33258W        W76352  31.732   6.458  27.903  0.0713  0.0055  0.0598
33259W        W76353  31.088   5.774  30.434 -0.1630  0.2470 -0.1907
33260W        W76354  31.840   5.410  25.913 -0.0840  0.4004 -0.1220
33261W        W76355  32.125   8.408  28.731  0.0876  0.3803  0.1481
33262W        W76356  29.269   6.062  29.022  0.0983 -0.3821  0.2378
33263W        W76357  32.252   7.649   0.370  0.1318  0.2669  0.5453
33264W        W76358  32.649   6.339  29.855 -0.0013  0.1466 -0.0641
33265W        W76359  29.453   3.753  30.481 -0.5054  0.0039  0.1052
33266W        W76360  31.743   4.104  26.863  0.2042 -0.2150 -0.0725
33267W        W76361  32.358   5.194  28.863  0.1266  0.1934 -0.1515
33268W        W76362  29.150   5.548  27.365  0.1482  0.1407  0.3891
33269W        W76363  32.950   4.038  29.768  0.2085  0.2745  0.0558
33270W        W76364  31.281   4.580  29.823  0.2476 -0.0757  0.0255
33271W        W76365  32.328   3.030  30.426  0.2120  0.0027 -0.0548
33272W        W76366  32.534   6.854  30.719 -0.2929 -0.0124 -0.0060
33273W        W76367  32.135   5.335  27.073 -0.3558  0.2538 -0.1501
33274W        W76368  30.463   5.405  29.415  0.0597  0.0850  0.0552
33275W        W76369  30.034   5.744  27.462 -0.1095 -0.1750  0.0099
33276W        W76370  31.658   4.874  31.097  0.3490 -0.2501  0.0999
33277W        W76371  28.733   6.334  30.069  0.2354 -0.1139 -0.2513
33278W        W76372  30.952   7.229  31.817 -0.3810  0.1698 -0.2890
33279W        W76373  32.617   7.346  30.325 -0.4553  0.2771 -0.0107
33280W        W76374  30.993   6.066  28.556  0.2459 -0.0345 -0.3119
33281W        W76375  31.902   4.033  30.081  0.1472  0.1010  0.2560
33282W        W76376  32.430   5.192  28.332  0.3991 -0.0384  0.0174
33283W        W76377  28.997   6.810  27.339  0.0423  0.1808 -0.2746
33284W        W76378  31.120   6.432  28.878 -0.0601 -0.0824  0.1786
33285W        W76379  30.640   3.652  29.503  0.0758  0.2991 -0.0943
33286W        W76380  31.765   6.634  29.544  0.1257  0.1738  0.0175
33287W        W76381  30.222   5.420  28.787  0.0003  0.0921  0.2579
33288W        W76382  33.455   4.893  30.180  0.0735 -0.2434  0.1138
33289W        W76383  31.250   6.774  27.958  0.0065  0.2447 -0.3338
33290W        W76384  32.638   3.522  30.806 -0.1352  0.1457 -0.0925
33291W        W76385  30.048   7.381  29.037 -0.0884 -0.0002  0.0952
33292W        W76386  31.070   5.493  28.237  0.1049  0.0182 -0.3086
33293W        W76387  28.349   6.445  26.700  0.1090  0.0755 -0.1996
33294W        W76388  32.914   5.064  30.059 -0.0569  0.3461 -0.1906
33295W        W76389  30.833   6.489  28.313  0.0373  0.1730  0.0011
33296W        W76390  28.775   4.282  30.042 -0.1442  0.2921 -0.0015
33297W        W76391  30.691   3.077  30.280 -0.1393 -0.0471 -0.0420
33298W        W76392  29.464   7.125  29.242 -0.1163 -0.1604 -0.3905
33299W        W76393  31.852   5.890   0.333 -0.0366 -0.0899  0.0811
33300W        W76394  33.118   4.028  26.375 -0.1755  0.0707 -0.0712
33301W        W76395  32.633   6.521  28.380  0.1405  0.0833 -0.0419
33302W        W76396  30.913   5.735  30.930  0.0941  0.1238  0.0890
33303W        W76397  30.097   6.125  27.112  0.1531  0.1856  0.3942
33304W        W76398  32.379   4.726  30.906  0.0522  0.0134  0.2178
33305W        W76399  30.294   4.502  29.003  0.0964 -0.0958  0.0418
33306W        W76400  29.189   7.928  28.094 -0.1542  0.1657  0.4032
33307W        W76401  31.520   5.526  29.875 -0.1506 -0.1181 -0.2063
33308W        W76402  30.949   5.981  29.111  0.1640 -0.1207 -0.1036
33309W        W76403  31.436   5.844  28.145 -0.1552 -0.0426 -0.1143
33310W        W76404  30.617   5.397  30.712 -0.4343  0.2103  0.0542
33311W        W76405  32.024   5.186  29.819  0.3617 -0.0808  0.5059
33312W        W76406  31.673   3.797  29.071 -0.3765  0.0219  0.0875
33313W        W76407  30.584   5.168  28.297 -0.0240 -0.3511  0.0879
33314W        W76408  29.943   4.459  28.625 -0.3184  0.2031  0.1618
33315W        W76409  31.596   7.311  30.397 -0.1263 -0.0801 -0.3027
33316W        W76410  28.663   5.517  30.720  0.3233  0.0847  0.0709
33317W        W76411  30.324   6.069   0.228 -0.1867 -0.1921  0.2776
33318W        W76412  30.225   3.348  30.198 -0.3625  0.1366  0.2419
33319W        W76413  34.340   6.884  29.837  0.1911  0.0123 -0.0797
33320W        W76414  32.808   6.837  29.724 -0.0995  0.0181  0.1066
33321W        W76415  31.162   5.542  28.729  0.2098 -0.0754  0.0989
33322W        W76416  28.594   6.774  30.198  0.0340 -0.0896 -0.2138
33323W        W76417  29.975   6.863  29.250 -0.0324 -0.0324  0.2054
33324W        W76418  31.917   5.384  28.952  0.0445  0.0955 -0.0017
33325W        W76419  30.413   6.732  29.552  0.2370 -0.0993 -0.0775
33326W        W76420  31.349   5.802  29.500  0.1630 -0.1975  0.1663
33327W        W76421  29.134   7.328  29.538 -0.2467  0.0884 -0.2632
33328W        W76422  32.098   4.192  28.353 -0.3279  0.2082  0.1886
33329W        W76423  31.384   6.583  27.472  0.0939  0.1962 -0.0722
33330W        W76424  32.422   3.858  30.469  0.1264  0.0601 -0.0900
33331W        W76425  31.688   4.447  30.790 -0.0026 -0.0453  0.0466
33332W        W76426  31.781   6.677  26.888 -0.1805 -0.0530  0.1261
33333W        W76427  31.228   4.679  31.523  0.2561  0.0901 -0.0774
33334W        W76428  30.281   3.892  28.768  0.0253  0.2801 -0.1300
33335W        W76429  32.061   6.319  30.110 -0.0481 -0.2024 -0.0888
33336W        W76430  28.959   6.309  31.037 -0.0111  0.1407 -0.2378
33337W        W76431  31.957   8.106  30.667  0.2872  0.1838 -0.0719
33338W        W76432  29.286   5.551  31.495 -0.1819 -0.0315 -0.0100
33339W        W76433  32.425   4.792  27.973 -0.1932 -0.2370 -0.0408
33340W        W76434  31.071   4.735  27.615  0.2932  0.1880 -0.0874
33341W        W76435  30.996   5.274  30.350 -0.6125 -0.2677  0.0752
33342W        W76436  33.230   5.897  30.227  0.2666 -0.0516  0.0548
33343W        W76437  31.801   8.303  29.647  0.1531 -0.2428  0.0539
33344W        W76438  33.606   4.732  29.603  0.0296  0.0080 -0.1765
33345W        W76439  29.619   5.292  30.406  0.0873  0.2166  0.2471
33346W        W76440  31.938   6.020  28.184 -0.2205  0.4178 -0.0872
33347W        W76441  31.063   5.813  27.703 -0.0406  0.2688  0.1251
33348W        W76442  28.237   4.884  29.394  0.1341  0.0379 -0.2369
33349W        W76443  30.212   4.779  29.863 -0.0309  0.2059 -0.0765
33350W        W76444  30.983   5.580  29.980 -0.0230 -0.3412  0.0333
33351W        W76445  32.278   4.303  30.743 -0.2059  0.0482  0.2148
33352W        W76446  32.651   2.640  31.220 -0.1767 -0.3168 -0.1182
33353W        W76447  32.040   5.746  31.590  0.1550 -0.1253 -0.0670
33354W        W76448  29.584   5.997   0.792 -0.1531 -0.1385  0.1557
33355W        W76449  29.235   6.023  31.344 -0.3090  0.1305  0.1071
33356W        W76450  32.130   7.696  31.108 -0.2914  0.2447  0.0983
33357W        W76451  32.427   5.162  27.696  0.1754 -0.1656 -0.3455
33358W        W76452  32.545   4.750  31.418  0.3071  0.0883  0.2289
33359W        W76453  33.309   5.118  29.701  0.1092  0.0941 -0.0443
33360W        W76454  33.004   6.444  29.532  0.5107 -0.2086 -0.1259
33361W        W76455  29.054   5.626  29.297 -0.1940  0.2500 -0.3492
33362W        W76456  31.963   6.223  31.374  0.0414 -0.0137  0.0890
33363W        W76457  30.235   4.507  27.840  0.1638 -0.0657  0.2080
33364W        W76458  32.332   3.832  31.013  0.0527 -0.3471  0.0445
33365W        W76459  30.843   6.541  27.794  0.2012  0.0725 -0.1303
33366W        W76460  32.302   5.379  29.402  0.2502 -0.0060  0.1505
33367W        W76461  32.433   4.531  27.418  0.3104 -0.0249 -0.1636
33368W        W76462  27.676   3.687  29.846  0.0348 -0.0587 -0.3386
33369W        W76463  30.684   6.096  31.881 -0.0925  0.2069  0.1554
33370W        W76464  31.012   6.235  27.463  0.0404 -0.3262  0.1712
33371W        W76465  29.837   5.464  27.823 -0.0178 -0.1499  0.0627
33372W        W76466  31.607   5.836  30.342  0.1377 -0.4539 -0.1351
33373W        W76467  31.236   5.173   0.568  0.4701 -0.0044 -0.1923
33374W        W76468  31.400   3.865  27.675 -0.0142  0.0563  0.0111
33375W        W76469  32.717   5.045  31.796 -0.0018  0.0799  0.0195
33376W        W76470  32.624   6.110  28.765  0.0229  0.1846  0.0186
33377W        W76471  32.165   4.217  28.870  0.2176 -0.0898  0.0688
33378W        W76472  31.574   7.708  31.229  0.3154 -0.0260  0.2877
33379W        W76473  28.623   5.160  29.444 -0.1924 -0.2091  0.0840
33380W        W76474  31.274   6.441  29.719 -0.3203 -0.0849  0.0705
33381W        W76475  30.571   5.109  28.978 -0.2231 -0.0416  0.0345
33382W        W76476  31.114   6.258  31.059  0.2529  0.2131 -0.0826
33383W        W76477  32.567   6.214  29.344  0.0688  0.0909  0.0980
33384W        W76478  31.474   5.562  31.680  0.0002  0.2772  0.0906
33385W        W76479  30.646   5.223  29.849  0.0209 -0.0101  0.2169
33386W        W76480  29.666   4.707  30.352  0.2326 -0.1427  0.2657
33387W        W76481  31.473   6.080  31.391  0.0267 -0.0548 -0.0687
33388W        W76482  32.654   5.582  28.499  0.1069  0.3242 -0.4371
33389W        W76483  31.371   5.247  29.519 -0.1295  0.0020 -0.0400
33390W        W76484  29.928   6.639  31.652 -0.3813 -0.2058 -0.4595
33391W        W76485  31.378   5.677  31.070 -0.3127 -0.1481 -0.1503
33392W        W76486  31.516   5.606  29.082  0.3144  0.0362 -0.0147
33393W        W76487  30.672   3.594  29.022 -0.0264 -0.0799 -0.0910
33394W        W76488  32.477   7.201  27.293  0.2010  0.1914 -0.1120
33395W        W76489  29.298   6.886  30.481 -0.1071  0.1942  0.2032
33396W        W76490  29.923   5.662  30.215 -0.0520 -0.1730  0.1310
33397W        W76491  27.429   7.271  27.458 -0.0678 -0.0148  0.0478
33398W        W76492  31.810   7.117  29.442 -0.0588  0.0481  0.1544
33399W        W76493  31.632   7.009  28.976  0.1992 -0.0533  0.0322
33400W        W76494  30.962   7.080  30.527  0.4691 -0.1207 -0.1141
33401W        W76495  32.451   3.973  27.454  0.0688 -0.0664 -0.0366
33402W        W76496  30.351   6.912  28.827  0.0140 -0.1199  0.0160
33403W        W76497  29.011   6.623  27.791  0.1554  0.0639 -0.0912
33404W        W76498  31.986   8.270  29.155  0.0500  0.1710 -0.2173
33405W        W76499  29.497   7.054  29.794 -0.0108 -0.0332  0.3905
33406W        W76500  31.621   7.464  31.667 -0.2027 -0.2188 -0.0286
33407W        W76501  33.635   3.331  26.893 -0.0444 -0.0835  0.1456
33408W        W76502  32.892   4.901  28.255 -0.2616  0.0706  0.2632
33409W        W76503  33.194   4.760  28.673  0.1193 -0.0336 -0.2360
33410W        W76504  32.145   7.288  31.458 -0.1556 -0.1649  0.0401
33411W        W76505  29.974   4.526  29.428 -0.2767  0.3339 -0.1928
33412W        W76506  31.388   4.214  29.162  0.2012 -0.1850 -0.0283
33413W        W76507  30.708   5.520  31.863 -0.0436  0.0349  0.3948
33414W        W76508  32.158   5.109  31.128 -0.2048  0.0584 -0.2068
33415W        W76509  29.473   7.562  28.925 -0.1988 -0.3650  0.0365
33416W        W76510  34.129   7.185  28.141 -0.0267 -0.1547 -0.2959
33417W        W76511  29.711   4.931  29.563 -0.0715 -0.2976 -0.3130
33418W        W76512  30.176   4.996  29.330  0.0822  0.0007 -0.0060
33419W        W76513  33.435   3.072   0.556 -0.1286  0.1473 -0.2773
33420W        W76514  30.740   6.046  28.065  0.0889  0.2098 -0.2270
33421W        W76515  29.887   5.058  30.104 -0.4868  0.0949  0.0995
33422W        W76516  31.885   8.837  28.873 -0.1021 -0.0140  0.0598
33423W        W76517  30.932   7.077  31.000 -0.2461 -0.2829  0.1724
33424W        W76518  30.629   7.145  30.114 -0.1240 -0.0794 -0.1508
33425W        W76519  31.226   3.930  28.800 -0.0044  0.1565 -0.1412
33426W        W76520  32.838   3.577  29.565 -0.1097  0.0368 -0.0740
33427W        W76521  30.576   3.570  31.044 -0.0712  0.0720 -0.1772
33428W        W76522  32.850   4.835  31.042 -0.2091  0.0607  0.3123
33429W        W76523  30.095   4.918  28.710 -0.0555  0.0140 -0.1376
33430W        W76524  30.964   4.911  29.632 -0.6043  0.0383  0.2753
33431W        W76525  29.208   6.316  31.825  0.0787 -0.3391  0.2489
33432W        W76526  29.410   4.436  28.711 -0.2021 -0.2150  0.0160
33433W        W76527  30.337   5.330  26.655  0.0532 -0.2188  0.1720
33434W        W76528  32.272   5.584  31.111  0.1712  0.1351  0.2531
33435W        W76529  31.572   5.546  26.937  0.1549 -0.2839  0.0477
33436W        W76530  31.276   8.133  31.406 -0.1307 -0.0559 -0.0165
33437W        W76531  29.931   4.192  28.131  0.0116 -0.2251  0.0956
33438W        W76532  31.719   4.684  28.394  0.0572  0.0365 -0.1318
33439W        W76533  29.462   6.523  29.425 -0.0258 -0.0662  0.1719
33440W        W76534  30.973   6.796  30.152 -0.1463 -0.0016  0.0155
33441W        W76535  32.118   6.729  31.037 -0.0498  0.0415  0.0498
33442W        W76536  30.368   3.331  28.695 -0.3679 -0.1385 -0.2587
33443W        W76537  32.643   7.356  28.618 -0.0784 -0.0954 -0.2408
33444W        W76538  33.955   4.341  29.011  0.2117 -0.1170 -0.0122
33445W        W76539  29.616   6.184  26.747 -0.0279 -0.0372  0.3008
33446W        W76540  32.938   5.380  29.509  0.1584 -0.0217  0.0080
33447W        W76541  32.504   8.457  28.373  0.2671 -0.0529  0.0906
33448W        W76542  29.539   4.244  30.449 -0.3580 -0.0438  0.4064
33449W        W76543  32.150   7.390  30.397 -0.1337 -0.1475 -0.2066
33450W        W76544  33.864   6.849  29.647  0.1618 -0.0067 -0.0241
33451W        W76545  31.202   4.450  28.772 -0.1767  0.3981 -0.0932
33452W        W76546  30.731   4.672  28.574 -0.0119  0.1350  0.0590
33453W        W76547  29.337   7.396  28.321 -0.1315  0.3040 -0.1154
33454W        W76548  33.680   3.916  29.805 -0.2072  0.1385  0.3017
33455W        W76549  31.569   6.165  30.665  0.0051 -0.1887  0.2230
33456W        W76550  31.662   7.596  27.232  0.1276  0.2605 -0.0693
33457W        W76551  31.614   3.699  30.855 -0.1210 -0.1615 -0.1580
33458W        W76552  32.311   6.055  30.976 -0.0323 -0.1219  0.2575
33459W        W76553  29.080   7.268  31.466 -0.2939 -0.2449 -0.1338
33460W        W76554  30.998   5.337  26.324 -0.2633 -0.0039 -0.1852
33461W        W76555  29.976   6.642  30.541  0.3439 -0.2445 -0.2830
33462W        W76556  30.294   7.157  29.764  0.0560 -0.3016  0.0656
33463W        W76557  32.053   7.613  28.537  0.2018  0.0220  0.2056
33464W        W76558  31.910   6.674  30.545 -0.2350 -0.1407  0.2523
33465W        W76559  32.473   5.927  30.186  0.1527  0.2007  0.3576
33466W        W76560  33.494   6.285  28.794  0.0663 -0.0114  0.3755
33467W        W76561  31.036   5.131  29.105  0.1975 -0.2821  0.2218
33468W        W76562  32.484   3.296  28.852  0.0584 -0.1941 -0.0513
33469W        W76563  32.319   3.604  29.622 -0.1643 -0.0021  0.1297
33470W        W76564  28.911   6.055   0.194 -0.3417 -0.0007 -0.2026
33471W        W76565  29.836   6.500  27.700 -0.1686  0.0796 -0.2039
33472W        W76566  28.545   6.691  27.489 -0.3420  0.2343  0.0062
33473W        W76567  29.889   6.414  29.692 -0.4675  0.0564 -0.1289
33474W        W76568  31.277   3.343  31.042  0.1472  0.1013 -0.1465
33475W        W76569  30.593   6.612  30.475  0.5438  0.1237  0.0642
33476W        W76570  29.351   5.046  28.049  0.1960  0.1117  0.1125
33477W        W76571  29.964   4.465  27.389  0.0546 -0.2636  0.2257
33478W        W76572  31.676   6.995  28.031  0.0349 -0.1766  0.3126
33479W        W76573  29.970   4.067  29.631 -0.1062  0.0848 -0.2045
33480W        W76574  29.435   4.278  27.268  0.1140 -0.0273 -0.2713
33481W        W76575  32.097   6.759  29.051  0.0369 -0.0853  0.0364
33482W        W76576  33.015   6.348  29.041 -0.0493 -0.2584  0.3317
33483W        W76577  30.946   5.490  29.462  0.3909 -0.0803 -0.3749
33484W        W76578  32.831   6.813  30.236 -0.0977  0.0198 -0.3159
33485W        W76579  30.306   6.660  27.861  0.4820 -0.0523 -0.2407
33486W        W76580  29.499   4.758  30.970  0.0558 -0.2393  0.0871
33487W        W76581  30.961   3.064  31.873 -0.1844 -0.0131 -0.3979
33488W        W76582  29.016   3.983  27.155 -0.1127 -0.1613 -0.2178
33489W        W76583  29.416   4.956  30.006  0.1343 -0.1448  0.0605
33490W        W76584  31.568   9.549  28.004 -0.0251 -0.0232 -0.1992
33491W        W76585  31.246   6.954  25.980 -0.1252 -0.1431 -0.0677
33492W        W76586  30.318   6.704  30.030 -0.0813  0.2409 -0.0816
33493W        W76587  30.712   6.130  30.675 -0.3029 -0.2214  0.0451
33494W        W76588  30.051   3.441  31.012 -0.1174 -0.0252  0.2589
33495W        W76589  31.790   6.059  29.236 -0.1128 -0.0121 -0.1297
33496W        W76590  31.262   7.556  29.758 -0.0208 -0.1356 -0.0497
33497W        W76591  32.336   6.881  28.552 -0.4142  0.2508 -0.0087
33498W        W76592   0.169   4.133  30.496  0.2403  0.0795 -0.0062
33499W        W76593  31.070   5.046  28.522  0.0091  0.1610 -0.2849
33500W        W76594  29.892   4.521  30.769  0.1186  0.2384  0.1432
33501W        W76595  30.463   7.275  31.133  0.1119  0.3451  0.2013
33502W        W76596  31.264   6.545  31.965 -0.2761  0.0949  0.0172
33503W        W76597  31.284   3.726  29.434  0.1746 -0.2160  0.1091
33504W        W76598  32.663   5.053  29.260  0.0697  0.0528  0.0342
33505W        W76599  32.627   7.684  29.036 -0.3085 -0.2525 -0.1080
33506W        W76600  28.933   6.091  29.647 -0.0678  0.3811  0.0840
33507W        W76601  30.105   5.314  29.758  0.1739 -0.3193  0.0200
33508W        W76602  30.532   4.722  29.435  0.0528  0.0947 -0.1514
33509W        W76603  32.638   4.412  29.677  0.2058 -0.5016 -0.1852
33510W        W76604  32.432   6.416  30.462  0.3856 -0.2952  0.1333
33511W        W76605  31.466   5.561  27.474 -0.2336  0.2467 -0.1637
33512W        W76606  33.230   5.870  28.816  0.2970  0.0574  0.1317
33513W        W76607  30.871   7.530  30.805 -0.1313 -0.0888  0.0087
33514W        W76608  32.748   7.394   0.003  0.1485  0.0938  0.3596
33515W        W76609  31.674   8.518  30.760  0.0105  0.2476 -0.2309
33516W        W76610  32.225   4.874  29.470  0.0152  0.1552 -0.0761
33517W        W76611  29.869   3.704  30.132  0.0870 -0.0352 -0.1407
33518W        W76612  30.708   5.560  28.975 -0.1009  0.2701 -0.0203
33519W        W76613  28.972   6.394  28.770 -0.2117 -0.0160  0.0947
33520W        W76614  33.320   3.714  31.560 -0.0534 -0.0045 -0.1076
33521W        W76615  31.543   4.155  28.242 -0.2102  0.1676 -0.3086
33522W        W76616  31.685   4.269  28.734  0.2239 -0.1011 -0.1491
33523W        W76617  31.242   6.703  30.734  0.3299 -0.1485  0.1322
33524W        W76618  31.759   5.052  29.285 -0.2057 -0.0833  0.3561
33525W        W76619  33.263   4.587  31.920  0.0647  0.0661 -0.0950
33526W        W76620  31.215   6.133   0.465 -0.1211  0.0114 -0.0916
33527W        W76621  30.562   2.996  31.536 -0.0059  0.1877  0.1867
33528W        W76622  28.622   7.058   0.014 -0.1212 -0.0926  0.0778
33529W        W76623  29.464   6.928  31.332 -0.1739 -0.3500 -0.1870
33530W        W76624  28.742   7.120  30.599  0.0380 -0.0937  0.0931
33531W        W76625  31.829   5.043  31.560  0.0246 -0.1429  0.0174
33532W        W76626  30.880   4.408  31.756 -0.2115  0.0199 -0.0351
33533W        W76627  31.840   3.705  31.409 -0.2124 -0.0063 -0.1814
33534W        W76628  31.453   7.927   0.784 -0.0709 -0.2838  0.1041
33535W        W76629  32.580   7.898  30.979  0.2460 -0.1287 -0.1300
33536W        W76630  30.750   4.840  30.105  0.0331 -0.0059  0.0554
33537W        W76631  31.792   5.387  31.076 -0.1950 -0.2968 -0.0977
33538W        W76632  30.256   6.143  31.602 -0.2212  0.0241  0.2603
33539W        W76633  32.640   5.241  31.316 -0.4019 -0.2371 -0.1345
33540W        W76634  28.991   6.887  29.414  0.0313  0.2839 -0.1896
33541W        W76635  30.998   6.319  31.556  0.0002 -0.1336 -0.1041
33542W        W76636  32.505   6.938  31.272 -0.2484 -0.1574 -0.1574
33543W        W76637  31.078   3.414   0.278  0.1790 -0.1883  0.0616
33544W        W76638  30.127   5.294  31.430 -0.0516  0.0844  0.1033
33545W        W76639  30.735   4.913  30.588 -0.2992  0.2472 -0.0979
33546W        W76640  29.180   7.452   0.359  0.0560 -0.1419 -0.0770
33547W        W76641  31.890   4.104  31.130 -0.1727 -0.1185  0.4577
33548W        W76642  30.559   4.020  31.445 -0.0657 -0.1030  0.0306
33549W        W76643  32.344   3.431  31.674 -0.3058 -0.0707 -0.0598
33550W        W76644  31.495   5.110   0.115  0.0157 -0.0097 -0.3529
33551W        W76645  30.339   4.997   0.413 -0.2144 -0.2261  0.0025
33552W        W76646  28.930   7.924  31.307 -0.1384  0.1079 -0.3790
33553W        W76647  30.471   5.661  31.357  0.2417  0.3174 -0.2464
33554W        W76648  31.336   5.602   0.189  0.0258 -0.0653 -0.1103
33555W        W76649  31.350   7.384   1.025  0.3020  0.1508  0.4877
33556W        W76650  28.639   5.797  30.321  0.2060  0.1557  0.1662
33557W        W76651  30.780   5.291   0.319 -0.0387  0.0238  0.0591
33558W        W76652  31.449   5.477  30.630 -0.3742  0.0232 -0.1501
33559W        W76653  29.676   6.187  31.725  0.0526  0.2731  0.0960
33560W        W76654  30.988   7.357   0.738  0.2950 -0.0953 -0.0118
33561W        W76655  29.936   6.858   0.521 -0.0322  0.1817 -0.1165
33562W        W76656  30.678   6.138  31.239 -0.0342  0.3408  0.0362
33563W        W76657  32.049   5.139   0.964 -0.1994 -0.0655 -0.1699
33564W        W76658  31.810   6.047   1.200 -0.2372 -0.0959  0.1755
33565W        W76659  32.457   5.139   0.218 -0.2856 -0.0184 -0.0011
33566W        W76660  30.662   4.818  31.971  0.1612 -0.1643 -0.1137
33567W        W76661  30.193   4.812  31.670 -0.0207  0.2471 -0.0415
33568W        W76662  30.316   7.771  31.426 -0.0729  0.0701 -0.1046
33569W        W76663  29.032   5.960  30.731 -0.1762 -0.0135  0.1010
33570W        W76664  30.070   5.438  30.907 -0.3467 -0.0106 -0.3073
33571W        W76665  30.308   3.788   0.758 -0.4044 -0.1221  0.0025
33572W        W76666  31.883   8.439  31.812 -0.2255 -0.0675 -0.2097
33573W        W76667  32.045   6.053  30.536  0.1982  0.3219 -0.0047
33574W        W76668  29.034   7.202  30.044  0.0680 -0.2989 -0.2810
33575W        W76669  31.234   6.706  31.324  0.0180  0.0283 -0.1500
33576W        W76670  31.279   5.084  29.981 -0.0689  0.2236  0.0415
33577W        W76671  29.692   5.697  31.129 -0.1782  0.0653  0.0235
33578W        W76672  31.048   5.770  31.461  0.1410 -0.1637  0.0823
33579W        W76673  30.859   6.003   1.076 -0.1368  0.0341  0.0076
33580W        W76674  31.387   5.234  31.321  0.4832  0.1528 -0.3068
33581W        W76675  32.629   5.263  30.771  0.0105 -0.2493 -0.1367
33582W        W76676  30.994   8.511  31.621 -0.1836 -0.0805 -0.3025
33583W        W76677  30.442   6.585  31.898  0.0120 -0.0255  0.1052
33584W        W76678  29.091   5.793   1.114  0.1876  0.1415 -0.0447
33585W        W76679  29.677   6.641  30.143 -0.0023  0.1795  0.2632
33586W        W76680  30.811   6.480   0.253  0.1826  0.0392  0.2411
33587W        W76681  30.744   6.475  29.897  0.0570  0.0623 -0.0438
33588W        W76682  29.384   4.212  30.950  0.0036 -0.1244  0.2883
33589W        W76683  31.466   6.972  31.736  0.2218 -0.1735  0.1001
33590W        W76684  32.533   5.694  31.512  0.1198  0.0779  0.3064
33591W        W76685  33.416   6.150  31.361 -0.0006  0.0617  0.0439
33592W        W76686  29.656  10.759  19.429  0.0547 -0.0668  0.2179
33593W        W76687  29.978   9.852  18.359  0.1457  0.0073  0.2792
33594W        W76688  31.712   6.339  16.987  0.0157 -0.2894 -0.4332
33595W        W76689  32.761   9.961  18.393  0.2378  0.3394  0.3581
33596W        W76690  28.313   6.918  18.221 -0.0411  0.0944 -0.2520
33597W        W76691  30.983  11.478  18.344 -0.2933  0.1418  0.3116
33598W        W76692  28.896   6.283  19.799  0.1680 -0.1871  0.1752
33599W        W76693  31.855  10.654  19.043  0.0194  0.1462 -0.2293
33600W        W76694  32.984  10.603  19.535  0.1575 -0.0223 -0.0534
33601W        W76695  31.708  10.308  16.293  0.1904 -0.0441 -0.1268
33602W        W76696  31.712   8.856  19.421 -0.0903 -0.2461  0.1385
33603W        W76697  29.982  10.987  19.879 -0.1421  0.1811  0.2609
33604W        W76698  30.914   7.319  16.996 -0.0381  0.0010 -0.2065
33605W        W76699  29.224   8.327  18.817 -0.1583 -0.1658 -0.1683
33606W        W76700  32.956   9.869  20.445 -0.0438  0.0979  0.0893
33607W        W76701  29.329   8.838  18.084 -0.0680 -0.0760  0.0615
33608W        W76702  31.543   7.968  17.902 -0.1096  0.0167  0.0958
33609W        W76703  30.890   7.432  17.541  0.2276  0.1286 -0.0365
33610W        W76704  31.176  10.222  16.749  0.1274 -0.0808 -0.0028
33611W        W76705  31.483   8.074  18.877 -0.1566 -0.0038  0.0057
33612W        W76706  31.879   6.782  18.803 -0.0324  0.1216 -0.2266
33613W        W76707  30.628   9.877  17.153  0.1366 -0.0040 -0.2538
33614W        W76708  31.534   9.083  16.844  0.3489 -0.3228 -0.0529
33615W        W76709  30.291   9.491  18.384  0.2395  0.0028  0.2097
33616W        W76710  31.062   8.166  18.557  0.1876 -0.1015 -0.0191
33617W        W76711  30.557   8.476  18.390  0.0264  0.1061 -0.0122
33618W        W76712  32.217   9.886  18.451  0.0346 -0.1075  0.1168
33619W        W76713  30.884  10.403  18.206 -0.0163 -0.1797 -0.2417
33620W        W76714  30.074  10.203  17.587 -0.0614  0.0673 -0.1483
33621W        W76715  32.038   8.308  20.318  0.0117  0.0941 -0.1008
33622W        W76716  28.092   9.111  17.251 -0.1307 -0.0396 -0.0619
33623W        W76717  28.652  10.056  16.464  0.1154 -0.1314  0.0411
33624W        W76718  30.162   9.832  17.236 -0.0990 -0.0240  0.4999
33625W        W76719  33.417  10.434  17.367 -0.0674 -0.0432  0.0211
33626W        W76720  31.315  11.706  19.901  0.1440  0.1988  0.1461
33627W        W76721  29.736  10.633  20.239  0.0830 -0.2865  0.2546
33628W        W76722  29.454  10.075  16.644 -0.1861  0.1242  0.4209
33629W        W76723  30.943  11.045  19.846  0.1128  0.2722 -0.1534
33630W        W76724  31.600  11.023  20.016  0.0097  0.1623  0.0263
33631W        W76725  32.786  10.607  18.790  0.0827  0.1022  0.0073
33632W        W76726  30.735   8.866  16.852 -0.0994 -0.0865 -0.0262
33633W        W76727  29.467   9.327  17.810 -0.0985 -0.0240  0.1614
33634W        W76728  30.912  10.263  17.296  0.0644  0.1316  0.0580
33635W        W76729  29.921  10.659  20.728 -0.1574 -0.1182 -0.2957
33636W        W76730  29.849  10.517  18.932  0.0617  0.3024  0.2261
33637W        W76731  33.949   8.406  19.986 -0.0603  0.1230  0.2276
33638W        W76732  30.439  11.644  18.377 -0.3122  0.1395  0.1653
33639W        W76733  31.910   8.230  17.068 -0.0184 -0.2414  0.3813
33640W        W76734  29.839   8.287  16.905  0.1066 -0.3189  0.1241
33641W        W76735  31.338   7.540  16.755 -0.1702  0.1022 -0.2466
33642W        W76736  30.441   6.748  18.749 -0.1505  0.0102  0.1517
33643W        W76737  28.348  10.698  17.196  0.0483 -0.2913 -0.2185
33644W        W76738  31.245   9.575  17.933 -0.0263  0.3581 -0.2066
33645W        W76739  33.439   9.560  17.639 -0.0451  0.1033 -0.2774
33646W        W76740  29.441   9.119  17.109  0.0839  0.1847 -0.2144
33647W        W76741  32.143   9.463  18.108 -0.3183  0.0987  0.0165
33648W        W76742  29.007  10.619  20.162  0.2155  0.3506  0.1133
33649W        W76743  29.229   7.826  18.681 -0.2405  0.1292 -0.0488
33650W        W76744  30.476  11.287  16.659 -0.0892 -0.2673 -0.0308
33651W        W76745  33.482   9.418  18.526  0.4292  0.2136  0.1239
33652W        W76746  29.921  11.025  16.547 -0.0650  0.1428  0.3632
33653W        W76747  27.624   9.119  17.815 -0.2114  0.2093 -0.2865
33654W        W76748  28.978  10.198  19.326 -0.1432  0.1828  0.2274
33655W        W76749  29.085   9.388  18.078  0.2033 -0.1104 -0.0129
33656W        W76750  30.365   7.157  18.380  0.0823 -0.0320  0.2445
33657W        W76751  33.439   9.342  19.934 -0.1228  0.0087 -0.0349
33658W        W76752  29.512  10.329  19.713  0.2198  0.1854  0.1189
33659W        W76753  31.048   8.355  17.232  0.0204 -0.0089 -0.3619
33660W        W76754  30.398  10.479  19.082 -0.0931  0.0702  0.4092
33661W        W76755  32.536   9.571  18.688 -0.0030 -0.0680  0.3661
33662W        W76756  31.324   9.920  16.444 -0.0555  0.1773  0.0579
33663W        W76757  31.057   6.720  18.969  0.2856  0.0254 -0.0265
33664W        W76758  32.752   8.038  19.606  0.1510 -0.3040  0.1578
33665W        W76759  30.283  10.089  16.577 -0.2514  0.1831 -0.0440
33666W        W76760  29.619   8.797  18.956  0.2668  0.0252 -0.2009
33667W        W76761  32.467  10.895  19.163 -0.0147  0.0593 -0.1124
33668W        W76762  32.347   8.690  17.890 -0.0633  0.0440 -0.1169
33669W        W76763  28.880   9.951  16.891 -0.0882  0.0514 -0.3949
33670W        W76764  30.326   9.369  19.459 -0.0525 -0.1467 -0.3949
33671W        W76765  30.086  10.916  21.483  0.3449  0.0587 -0.1192
33672W        W76766  29.263   9.481  16.826 -0.0757  0.1148  0.2531
33673W        W76767  28.457   9.497  19.211 -0.2683  0.1296  0.2632
33674W        W76768  29.126   8.904  15.968 -0.0212 -0.0310  0.0856
33675W        W76769  28.801   7.994  18.418 -0.2873 -0.0323  0.0230
33676W        W76770  29.970  10.342  19.451 -0.0953 -0.2058 -0.0576
33677W        W76771  32.553   8.617  18.485  0.1957 -0.0718 -0.0786
33678W        W76772  31.180   9.105  18.640  0.2912 -0.0114  0.0381
33679W        W76773  31.743   6.728  17.254 -0.2077 -0.3358  0.1895
33680W        W76774  29.034   8.963  17.756 -0.0592  0.3250  0.2231
33681W        W76775  32.743   9.578  16.996 -0.0785  0.0117  0.4578
33682W        W76776  32.178   8.358  17.549  0.4821  0.0659 -0.6678
33683W        W76777  31.588   9.133  16.294 -0.1842 -0.4735 -0.3122
33684W        W76778  28.805   9.817  19.033  0.0783 -0.0409  0.1405
33685W        W76779  30.362   7.729  17.390  0.0932  0.1119  0.0357
33686W        W76780  29.556   9.447  20.894 -0.1611 -0.2738  0.4690
33687W        W76781  30.544   9.423  19.058  0.0722  0.0772 -0.0541
33688W        W76782  34.005   7.907  20.254 -0.0626  0.1055  0.2053
33689W        W76783  28.357   7.925  16.650 -0.2955  0.1018 -0.0418
33690W        W76784  31.213   8.020  16.625  0.2065 -0.4107 -0.1743
33691W        W76785  30.564   9.858  18.763 -0.0886 -0.1092  0.0902
33692W        W76786  28.747   9.742  17.795 -0.0808  0.0770 -0.0191
33693W        W76787  33.081   7.852  19.161 -0.0927 -0.2509  0.0037
33694W        W76788  30.726  11.881  18.678  0.1770 -0.1500  0.1456
33695W        W76789  32.724  11.372  19.260 -0.1613  0.1141 -0.0601
33696W        W76790  32.513  10.046  17.450 -0.1390 -0.1276 -0.2367
33697W        W76791  28.553   8.051  19.437  0.0487  0.0884  0.2019
33698W        W76792  29.552   8.781  17.573 -0.2343  0.1772 -0.0705
33699W        W76793  29.027  10.354  16.793 -0.0618  0.2394  0.2303
33700W        W76794  32.281   9.313  19.007 -0.0564 -0.0140  0.3819
33701W        W76795  28.946   8.327  16.250  0.1075  0.1443 -0.0843
33702W        W76796  33.620   9.335  18.063 -0.0179  0.0124 -0.2547
33703W        W76797  29.896  10.270  16.055  0.0203 -0.1001 -0.2485
33704W        W76798  30.732   9.598  19.870 -0.0113 -0.1670  0.0055
33705W        W76799  33.865   7.757  19.179 -0.4257  0.1456 -0.2286
33706W        W76800  33.209   9.051  18.971 -0.2418 -0.2161  0.2813
33707W        W76801  32.987   7.913  17.836 -0.0180  0.1516  0.0023
33708W        W76802  30.043   6.741  18.336  0.1815  0.2063  0.1383
33709W        W76803  32.343  11.278  17.707  0.0949  0.3339 -0.0168
33710W        W76804  29.811  12.146  17.685  0.0294 -0.0482 -0.1348
33711W        W76805  29.449   9.639  17.422 -0.1292  0.0257  0.1601
33712W        W76806  29.686  10.626  17.789 -0.3659  0.0694  0.0754
33713W        W76807  30.874   7.079  17.874 -0.0769 -0.0331 -0.2408
33714W        W76808  29.573  10.061  21.128  0.1236  0.0477  0.0955
33715W        W76809  33.439   9.114  19.420  0.0580  0.0102 -0.2711
33716W        W76810  29.839   8.708  17.169 -0.0323 -0.0691 -0.0277
33717W        W76811  30.815  10.891  20.578  0.3822 -0.0129  0.0489
33718W        W76812  30.482   8.206  17.680  0.0276 -0.1847 -0.1080
33719W        W76813  31.435   8.007  17.100  0.1109 -0.2066 -0.1154
33720W        W76814  31.396  10.426  20.037 -0.0224  0.0967  0.3181
33721W        W76815  31.832  10.193  19.132 -0.1618  0.0926 -0.2210
33722W        W76816  30.511   8.774  16.403 -0.1940  0.0408  0.2437
33723W        W76817  30.448   6.730  16.939 -0.0443  0.0843  0.0790
33724W        W76818  30.247   9.724  20.325 -0.1462  0.2080  0.1730
33725W        W76819  32.490   9.174  19.765  0.1164 -0.0979  0.1376
33726W        W76820  33.495   9.735  19.532 -0.2382 -0.0265 -0.0013
33727W        W76821  30.853   9.359  17.011 -0.2732 -0.0642  0.2757
33728W        W76822  32.830  10.266  17.135 -0.1666 -0.0002 -0.2356
33729W        W76823  29.874   9.380  19.866 -0.0180  0.2094 -0.0979
33730W        W76824  31.185  10.305  19.353 -0.3076  0.2118  0.0050
33731W        W76825  30.894  10.555  19.067 -0.2891 -0.0487  0.0109
33732W        W76826  31.493   9.029  19.825 -0.1081  0.0253 -0.2224
33733W        W76827  29.899   9.225  16.937 -0.2225 -0.0938 -0.4051
33734W        W76828  31.751   9.780  18.211 -0.1909  0.3373 -0.2969
33735W        W76829  28.760  10.758  16.858  0.1417  0.2193  0.1321
33736W        W76830  31.893   8.503  18.430 -0.2405  0.1467  0.2592
33737W        W76831  29.658   7.903  18.319  0.2146 -0.0085  0.0129
33738W        W76832  31.410   8.851  19.019  0.0485 -0.1319  0.1857
33739W        W76833  33.873   8.626  17.956 -0.0783  0.2959  0.1923
33740W        W76834  31.855   8.727  17.637 -0.1503  0.2566 -0.0153
33741W        W76835  32.516   7.830  19.193  0.3147  0.1277 -0.1586
33742W        W76836  28.792   8.565  16.935 -0.1501  0.1311  0.1209
33743W        W76837  31.429   8.517  19.878  0.0486 -0.0349 -0.3097
33744W        W76838  29.946   9.143  21.078  0.0223  0.1017  0.0810
33745W        W76839  28.371  11.051  18.177  0.2099 -0.0815  0.2608
33746W        W76840  32.044   9.141  20.075  0.2822  0.1907  0.0482
33747W        W76841  32.330   9.183  18.447  0.0818  0.3012  0.0599
33748W        W76842  31.081   7.865  19.133  0.0471 -0.2191  0.0110
33749W        W76843  29.747   9.768  17.862  0.3585 -0.1048 -0.0280
33750W        W76844  30.658  10.370  18.638 -0.1858  0.0080 -0.1860
33751W        W76845  29.216  10.824  17.992 -0.2373  0.2442 -0.0859
33752W        W76846  29.421   7.543  19.007 -0.3421 -0.0893 -0.1429
33753W        W76847  29.270  10.178  20.121 -0.0612 -0.1431  0.1924
33754W        W76848  30.673   9.796  17.638 -0.2358  0.1479 -0.2542
33755W        W76849  30.438  10.552  20.460  0.1733  0.0109 -0.0096
33756W        W76850  29.067   9.440  15.957 -0.0619 -0.0084 -0.1520
33757W        W76851  33.137   9.033  17.601  0.2898 -0.2840 -0.2053
33758W        W76852  28.314   9.508  17.943  0.1492 -0.1058  0.1316
33759W        W76853  29.506   7.821  16.842  0.2636 -0.1410 -0.2169
33760W        W76854  29.905   9.146  18.783 -0.0174 -0.1930 -0.1532
33761W        W76855  30.344   8.724  17.868  0.2533 -0.0296  0.2386
33762W        W76856  31.097  10.157  17.795 -0.1279  0.1354 -0.1025
33763W        W76857  31.681   9.265  18.086  0.0280  0.1151  0.1937
33764W        W76858  30.591   8.551  17.368 -0.3004  0.0740  0.0617
33765W        W76859  29.955  10.186  20.795  0.3252  0.0188  0.0212
33766W        W76860  31.782  10.020  19.697  0.4720 -0.3281 -0.1911
33767W        W76861  30.699   7.974  16.389 -0.1816 -0.1134  0.0034
33768W        W76862  30.301  11.020  20.570 -0.1613 -0.0728  0.2291
33769W        W76863  29.329   9.466  19.941 -0.3726  0.1722 -0.0492
33770W        W76864  29.975   7.197  17.932 -0.0602  0.2087  0.2386
33771W        W76865  33.734   8.790  20.616  0.0943  0.0580 -0.1955
33772W        W76866  31.491   7.000  17.722  0.0869 -0.2418 -0.0112
33773W        W76867  28.439   8.876  18.367  0.0057 -0.0545  0.0623
33774W        W76868  31.907  11.377  18.030 -0.1652  0.1747  0.0751
33775W        W76869  30.167  10.313  18.627  0.0344 -0.3947 -0.0164
33776W        W76870  31.323   9.310  17.227 -0.0327  0.0741  0.0190
33777W        W76871  30.911   9.045  19.049  0.0926 -0.3321  0.0454
33778W        W76872  32.254  10.486  20.322  0.1672 -0.0473 -0.2858
33779W        W76873  30.993   8.117  17.677  0.2500  0.2826 -0.1017
33780W        W76874  30.967   7.852  17.111 -0.3016 -0.2323  0.1942
33781W        W76875  31.638   9.979  17.773 -0.5280 -0.0120 -0.1129
33782W        W76876  33.003   9.481  18.952 -0.2438 -0.1291  0.2121
33783W        W76877  32.120   8.752  19.759  0.3651  0.1258  0.1741
33784W        W76878  30.465  10.598  21.013  0.0456  0.3711 -0.1714
33785W        W76879  31.411   6.816  18.237 -0.0224 -0.2747 -0.0591
33786W        W76880  33.398  10.051  17.783  0.1149 -0.0703  0.0540
33787W        W76881  33.455   8.866  20.003  0.1217  0.2112  0.2091
33788W        W76882  30.317   9.360  17.202  0.0427  0.0381  0.0419
33789W        W76883  28.000   8.703  17.707 -0.2114  0.0061  0.0595
33790W        W76884  30.250   9.721  17.865 -0.2459 -0.1395  0.1846
33791W        W76885  33.074   8.698  19.274 -0.1191 -0.1232 -0.1040
33792W        W76886  30.745  10.570  20.008 -0.0184 -0.1367  0.0780
33793W        W76887  28.957   8.679  17.402 -0.0736  0.1606  0.5084
33794W        W76888  28.214  10.056  19.107 -0.4081 -0.1538 -0.2691
33795W        W76889  32.244   8.153  16.176  0.1880 -0.3207  0.2586
33796W        W76890  32.043  10.084  15.954  0.3529  0.1322  0.0066
33797W        W76891  33.426   8.371  20.355 -0.0307 -0.1008  0.1197
33798W        W76892  33.326   7.375  20.249 -0.2320  0.1055  0.2501
33799W        W76893  32.434   9.463  16.661 -0.1138 -0.3148 -0.4622
33800W        W76894  30.874   7.408  18.293  0.0681 -0.1939  0.0040
33801W        W76895  30.150   7.045  19.526 -0.3288 -0.1517 -0.0379
33802W        W76896  33.169  10.934  18.297  0.2172 -0.0254  0.1278
33803W        W76897  30.111   8.746  18.399 -0.2554  0.0964 -0.0758
33804W        W76898  31.362  10.721  19.032 -0.1066  0.0974  0.2431
33805W        W76899  29.767   9.919  19.514  0.2228  0.0459 -0.1160
33806W        W76900  31.677   7.342  16.456 -0.2753 -0.0598  0.1840
33807W        W76901  29.238   7.008  16.685 -0.0054  0.1663 -0.1445
33808W        W76902  32.541   9.726  19.216  0.0065  0.1703  0.1685
33809W        W76903  33.059   9.807  19.324  0.1935  0.1436  0.1354
33810W        W76904  30.087   9.581  16.637  0.2681 -0.3026 -0.1777
33811W        W76905  31.522   8.781  18.149 -0.0813 -0.1617 -0.1880
33812W        W76906  29.490   9.396  19.490  0.1142 -0.0761 -0.4870
33813W        W76907  32.864   9.518  17.515  0.3965 -0.1528 -0.0746
33814W        W76908  30.438   9.220  16.718  0.1114 -0.0874 -0.0707
33815W        W76909  30.649   9.439  18.028  0.0684  0.0099  0.1791
33816W        W76910  31.012   6.455  18.429  0.0541  0.1960  0.3919
33817W        W76911  32.241  10.052  19.466  0.3326  0.2742 -0.0574
33818W        W76912  31.142   7.793  18.177 -0.0793 -0.1558 -0.1478
33819W        W76913  33.788   8.671  19.254  0.1252  0.1447 -0.0308
33820W        W76914  32.416   8.335  19.876 -0.0174 -0.1512 -0.0232
33821W        W76915  31.501   9.503  18.920 -0.1065 -0.1363 -0.0339
33822W        W76916  28.939   8.189  20.821  0.0822 -0.2953 -0.0252
33823W        W76917  32.506  10.379  19.182  0.2157 -0.0192  0.0103
33824W        W76918  30.187   8.888  17.429  0.0038  0.2768 -0.3095
33825W        W76919  33.001   8.727  16.489 -0.2214 -0.0274 -0.0035
33826W        W76920  32.460   8.252  17.082  0.0877  0.3130  0.0007
33827W        W76921  30.994   9.359  17.589 -0.1103  0.0585 -0.1102
33828W        W76922  29.647   9.627  18.663  0.1048 -0.2373 -0.1689
33829W        W76923  32.400   8.737  20.142  0.0923 -0.2916  0.0530
33830W        W76924  29.741   9.401  18.217  0.3282  0.2450  0.1605
33831W        W76925  32.649   7.839  20.060 -0.0939  0.2134  0.1970
33832W        W76926  29.817  10.286  17.135 -0.2718 -0.1856  0.0511
33833W        W76927  31.925   9.663  19.144 -0.0162  0.2439  0.0727
33834W        W76928  31.076   9.074  18.098  0.1315  0.0792 -0.0802
33835W        W76929  29.342   9.775  19.093  0.1207  0.1717  0.0033
33836W        W76930  27.517  10.959  19.029  0.1020 -0.2168 -0.1140
33837W        W76931  28.833   8.099  16.784 -0.0465  0.0523 -0.0600
33838W        W76932  30.815   8.611  17.992  0.2251 -0.0207  0.0483
33839W        W76933  31.345   9.930  19.082  0.1891  0.1790 -0.0159
33840W        W76934  32.250   9.606  19.683 -0.0911 -0.0967 -0.1642
33841W        W76935  28.953   7.496  16.051  0.1239  0.0108 -0.4158
33842W        W76936  31.848   9.308  19.548 -0.0864 -0.1687 -0.0066
33843W        W76937  28.009  10.059  16.519 -0.2782 -0.0455 -0.1514
33844W        W76938  31.208   8.323  18.097 -0.2032  0.0896  0.0462
33845W        W76939  28.216  11.245  18.590 -0.0418  0.0504 -0.6736
33846W        W76940  28.884   9.394  18.778 -0.3270  0.1355 -0.1697
33847W        W76941  30.998  11.021  19.283  0.1858 -0.0827  0.1402
33848W        W76942  32.315   8.314  19.314 -0.2612  0.1560  0.1588
33849W        W76943  32.182   8.849  18.805 -0.3052  0.3183 -0.1180
33850W        W76944  31.227   9.836  17.446 -0.1592  0.0417 -0.1467
33851W        W76945  33.574   8.097  19.987  0.2343  0.0399 -0.2463
33852W        W76946  30.635  10.684  19.487  0.0436  0.2177 -0.0945
33853W        W76947  31.439   8.523  18.616 -0.0839  0.0132 -0.0091
33854W        W76948  31.067  10.060  18.686 -0.3360 -0.0685 -0.2992
33855W        W76949  33.256   8.312  17.816 -0.0304 -0.3932  0.0425
33856W        W76950  31.654   9.875  18.689 -0.1379 -0.2794 -0.0036
33857W        W76951  28.087   8.119  19.253  0.0901 -0.1545 -0.0806
33858W        W76952  31.273   8.824  20.292  0.1495  0.0048  0.0554
33859W        W76953  32.170   8.843  19.269 -0.0793 -0.1730 -0.0405
33860W        W76954  31.268   8.531  16.818 -0.2809  0.1242  0.0943
33861W        W76955  30.380  10.328  17.072  0.0828  0.0560  0.2557
33862W        W76956  29.327  11.329  20.244  0.2030  0.0236 -0.3764
33863W        W76957  29.476   8.949  19.921 -0.1981  0.1664 -0.1047
33864W        W76958  29.721  10.919  17.214 -0.1137  0.1170  0.0121
33865W        W76959  31.924  10.495  17.250 -0.2010  0.2082  0.3260
33866W        W76960  30.360   9.584  16.240 -0.1274 -0.2836 -0.0636
33867W        W76961  31.492  11.043  17.698  0.1839 -0.1547 -0.0572
33868W        W76962  30.701   8.304  16.861  0.3749 -0.2836 -0.5477
33869W        W76963  29.205   9.818  17.848  0.1125 -0.0642 -0.0498
33870W        W76964  27.992  11.092  17.197 -0.2559  0.0099 -0.1129
33871W        W76965  31.196  10.321  16.151  0.0334 -0.0176 -0.2805
33872W        W76966  28.774  10.653  18.253 -0.0230 -0.0275 -0.1911
33873W        W76967  32.088  10.016  20.255  0.0360  0.1877 -0.1351
33874W        W76968  31.706   8.375  16.094  0.0283 -0.2054 -0.0399
33875W        W76969  32.976   9.500  18.425 -0.0274 -0.1060 -0.0858
33876W        W76970  33.290   7.822  17.390  0.0666  0.0945  0.0716
33877W        W76971  31.447  11.296  19.614 -0.1461  0.1478  0.1439
33878W        W76972  30.829   9.260  20.474 -0.2877  0.3023  0.0352
33879W        W76973  30.211   8.768  16.865  0.2766  0.3118 -0.0606
33880W        W76974  30.966   9.642  19.393 -0.0109  0.1293  0.1198
33881W        W76975  32.462   7.282  19.038  0.1173  0.0108  0.1235
33882W        W76976  28.936  10.703  19.161 -0.0345 -0.2956 -0.0584
33883W        W76977  31.488  10.244  17.286  0.1469 -0.0561  0.1451
33884W        W76978  30.234   8.105  16.593  0.4722  0.0116 -0.0701
33885W        W76979  30.879   8.741  18.668 -0.0102 -0.0354 -0.1982
33886W        W76980  31.806   7.541  18.085 -0.2576 -0.1288  0.1182
33887W        W76981  30.645   9.722  16.694 -0.2449 -0.1339 -0.1703
33888W        W76982  32.132   8.050  18.425  0.0351  0.1084  0.3887
33889W        W76983  28.419  10.404  16.722  0.0381 -0.1476 -0.0530
33890W        W76984  30.160  10.831  19.375  0.0901 -0.0708  0.0007
33891W        W76985  31.113  10.614  19.704 -0.1518  0.0028  0.0398
33892W        W76986  27.564   8.359  17.509 -0.0840 -0.0870  0.0954
33893W        W76987  33.484   7.924  18.384 -0.0276 -0.0663  0.2068
33894W        W76988  31.935   9.486  18.650  0.1290  0.0815 -0.1099
33895W        W76989  31.356   7.094  17.147  0.2532 -0.0568  0.1530
33896W        W76990  31.309   9.533  18.437 -0.0448 -0.2118  0.2106
33897W        W76991  32.346   8.943  16.601 -0.0199  0.0933  0.5046
33898W        W76992  31.013   9.567  18.915 -0.2393 -0.0023 -0.0460
33899W        W76993  29.588   8.542  18.493 -0.0776  0.0240 -0.0571
33900W        W76994  31.110  10.646  16.922  0.1808  0.2135 -0.1732
33901W        W76995  33.176   9.898  17.304  0.0310 -0.1149  0.2360
33902W        W76996  30.230   8.207  17.187  0.0275 -0.0346 -0.1041
33903W        W76997  31.310  12.142  19.677 -0.1747 -0.1610 -0.0960
33904W        W76998  27.485   9.641  19.415 -0.1350  0.1094  0.2366
33905W        W76999  31.670   8.217  16.584 -0.1487  0.0980  0.4346
33906W        W77000  29.791   7.858  17.252 -0.0367 -0.1659 -0.1786
33907W        W77001  30.433   9.037  18.702  0.0179 -0.0333 -0.4116
33908W        W77002  31.299   9.310  20.354 -0.0140 -0.2997  0.0020
33909W        W77003  30.293   6.450  17.443 -0.0563  0.1906 -0.5460
33910W        W77004  31.921  12.465  16.734  0.1246  0.2283  0.1553
33911W        W77005  33.983   9.421  19.811 -0.2118  0.0075  0.0811
33912W        W77006  30.231  10.801  17.879 -0.0263 -0.0001  0.1337
33913W        W77007  32.105   9.786  16.925 -0.4531 -0.2877  0.1343
33914W        W77008  32.730   9.170  19.314 -0.1668  0.0072  0.2443
33915W        W77009  29.779   8.577  19.787 -0.0926 -0.2123 -0.0461
33916W        W77010  33.032  10.274  19.152 -0.3787  0.2470  0.0498
33917W        W77011  32.789   9.079  17.244 -0.0886  0.1097  0.1243
33918W        W77012  30.951   7.519  16.387  0.0645 -0.1701  0.1858
33919W        W77013  31.205   8.673  17.637  0.2502  0.3270  0.2209
33920W        W77014  28.994   9.419  17.548  0.0292 -0.0737 -0.3118
33921W        W77015  32.666   8.665  16.850 -0.0180 -0.0859 -0.1009
33922W        W77016  33.483   8.611  18.716 -0.0764 -0.2721 -0.1494
33923W        W77017  30.049  10.677  16.880 -0.1353  0.0928  0.0616
33924W        W77018  31.162   7.571  18.725 -0.4406  0.2404  0.3731
33925W        W77019  31.498  10.322  18.761  0.0219 -0.0818  0.0656
33926W        W77020  29.719  11.623  20.243 -0.4737  0.1663  0.1348
33927W        W77021  29.314   8.632  16.395  0.1173 -0.1336 -0.2184
33928W        W77022  30.205   9.768  19.796 -0.1290 -0.1223  0.0909
33929W        W77023  29.957  10.253  18.074  0.2202  0.0186  0.4002
33930W        W77024  30.937  11.129  17.053  0.2816 -0.0674  0.3834
33931W        W77025  33.287   9.835  18.831 -0.2407  0.0250  0.3481
33932W        W77026  31.790   7.292  17.023  0.1665 -0.1160  0.2358
33933W        W77027  32.330   9.637  17.637 -0.1131  0.0368 -0.1504
33934W        W77028  30.238   6.489  17.926 -0.1540 -0.1540 -0.1561
33935W        W77029  32.516   7.072  18.171 -0.2806  0.0450  0.1272
33936W        W77030  31.268   7.767  17.506  0.0817 -0.0405  0.3817
33937W        W77031  29.607   9.851  20.561 -0.0110  0.1712 -0.1212
33938W        W77032  29.665   7.378  16.767  0.1674  0.3167 -0.1728
33939W        W77033  28.634   9.006  17.172 -0.3008 -0.2648 -0.2923
33940W        W77034  29.374  10.399  19.166  0.4289 -0.3837  0.2551
33941W        W77035  30.601   7.478  19.665  0.1640 -0.0480 -0.1419
33942W        W77036  28.843   9.548  19.713 -0.1388  0.1361 -0.0480
33943W        W77037  31.103   8.892  17.198 -0.1925  0.0223  0.3680
33944W        W77038  30.552   9.011  18.247 -0.2658  0.2141 -0.2712
33945W        W77039  31.816  10.169  16.770 -0.0139 -0.0046 -0.1624
33946W        W77040  31.662   8.987  18.577 -0.0600 -0.1044  0.1622
33947W        W77041  30.178   8.275  18.088  0.1659 -0.0902 -0.0237
33948W        W77042  31.571   9.616  16.765 -0.3230  0.2435 -0.0125
33949W        W77043  32.240  10.290  18.787 -0.0473  0.1263 -0.0871
33950W        W77044  32.314   7.374  18.503 -0.1782  0.0334  0.0304
33951W        W77045  32.155  11.451  20.374  0.1560  0.0196 -0.1205
33952W        W77046  29.105   9.191  16.396  0.1816  0.2404 -0.2616
33953W        W77047  33.168   8.643  20.745  0.0531  0.1652 -0.0343
33954W        W77048  30.591   8.624  19.068  0.1110 -0.0675 -0.1031
33955W        W77049  28.446   7.354  17.356  0.0792 -0.0622  0.1238
33956W        W77050  32.764   9.127  18.730 -0.0368  0.0921 -0.0468
33957W        W77051  32.348  10.783  18.667  0.0008  0.0497 -0.1193
33958W        W77052  31.028  10.773  16.046 -0.2840  0.0946  0.1834
33959W        W77053  32.149  10.559  19.420  0.1390 -0.0399 -0.0566
33960W        W77054  30.557  11.019  20.179 -0.0008 -0.0290  0.0474
33961W        W77055  29.169   9.407  21.238 -0.0655  0.1002 -0.1227
33962W        W77056  31.823   9.525  17.687  0.1254 -0.3483 -0.1576
33963W        W77057  28.600  10.616  21.155 -0.2466 -0.2785 -0.0047
33964W        W77058  31.519  10.792  17.247 -0.2384  0.0491  0.2652
33965W        W77059  34.490   7.074  17.720  0.0553 -0.1740  0.2056
33966W        W77060  30.887   9.802  18.201  0.6123  0.0614 -0.1276
33967W        W77061  29.821   7.627  18.728 -0.1664  0.1003 -0.1984
33968W        W77062  30.208   8.915  19.733  0.0442  0.0931  0.0423
33969W        W77063  32.891   8.634  17.889  0.0377  0.0691 -0.1554
33970W        W77064  29.592   8.235  17.488 -0.1528 -0.2087  0.1311
33971W        W77065  32.147   7.308  16.690 -0.2138  0.1390 -0.1764
33972W        W77066  31.664   9.672  17.259 -0.1511  0.0601 -0.0118
33973W        W77067  31.752   9.627  19.982  0.2736  0.0345  0.0590
33974W        W77068  30.697   8.947  17.616 -0.0356  0.1484 -0.0104
33975W        W77069  33.037   9.069  19.712 -0.0826  0.1156 -0.2707
33976W        W77070  32.009   8.911  18.200 -0.4495  0.0116 -0.2090
33977W        W77071  33.217   9.062  20.458 -0.0377 -0.1459 -0.1638
33978W        W77072  29.975   8.490  17.613 -0.2105  0.1855 -0.2282
33979W        W77073  31.130   9.382  16.559  0.1095 -0.0175 -0.1088
33980W        W77074  32.082  10.383  18.170 -0.3772  0.3630 -0.0925
33981W        W77075  31.580  10.661  19.518 -0.1192  0.0931  0.2951
33982W        W77076  30.755  10.099  19.204 -0.2531 -0.2141  0.0025
33983W        W77077  32.631   9.516  18.104  0.0903  0.0384 -0.1362
33984W        W77078  30.369   7.666  18.670  0.0407 -0.0882 -0.0494
33985W        W77079  30.277   9.267  17.709 -0.2374  0.0864  0.1816
33986W        W77080  31.148   9.801  16.946 -0.1276  0.1150 -0.0528
33987W        W77081  31.880   7.974  19.124  0.0808  0.1428 -0.1834
33988W        W77082  30.290   6.912  17.542 -0.2264 -0.2358 -0.1770
33989W        W77083  31.425   6.694  16.811 -0.1076 -0.3976  0.2116
33990W        W77084  30.143  11.366  20.186  0.0644  0.0623  0.2735
33991W        W77085  31.417   9.780  19.537 -0.0200  0.1740 -0.0121
33992W        W77086  29.974   8.121  24.248 -0.1901 -0.2745  0.2427
33993W        W77087  29.722   8.858  20.615  0.3573 -0.0487 -0.0415
33994W        W77088  31.259   9.218  19.344 -0.0803 -0.0551  0.1136
33995W        W77089  32.965   9.550  21.212 -0.0694  0.1415  0.1158
33996W        W77090  29.268   7.335  21.145 -0.1098 -0.2177 -0.0054
33997W        W77091  31.454  10.070  21.152 -0.2060 -0.0114  0.1455
33998W        W77092  30.001   7.611  22.546 -0.0218 -0.0685 -0.2225
33999W        W77093  30.480   9.858  23.107 -0.2294 -0.1385  0.0287
34000W        W77094  32.092   9.136  22.812  0.2021 -0.2095  0.1311
34001W        W77095  32.519   9.814  20.086  0.1368  0.0358  0.0719
34002W        W77096  30.888   8.791  22.152  0.0281  0.0651  0.0082
34003W        W77097  29.775  10.703  23.287  0.0302  0.1291 -0.0356
34004W        W77098  31.451   7.982  19.440 -0.0368  0.0151 -0.3473
34005W        W77099  29.583   6.951  22.336 -0.1032  0.1722 -0.0333
34006W        W77100  31.601   7.974  23.347  0.3606  0.0736  0.3052
34007W        W77101  29.654   8.042  21.770 -0.2950  0.1285 -0.0016
34008W        W77102  30.396   8.826  22.132  0.2317  0.0729 -0.0092
34009W        W77103  30.242   9.172  20.524  0.0142  0.2183  0.1969
34010W        W77104  31.148  11.338  20.842  0.0653 -0.0560  0.0098
34011W        W77105  29.285   8.578  22.500  0.1173  0.2458  0.3086
34012W        W77106  31.037   7.595  23.339  0.1622  0.2737 -0.3032
34013W        W77107  31.750   9.725  21.467 -0.0792  0.0406 -0.2166
34014W        W77108  29.590   9.614  21.388  0.4811 -0.0591  0.3023
34015W        W77109  28.453   8.830  22.063  0.0655 -0.0324  0.2547
34016W        W77110  30.543   8.313  23.116 -0.1505  0.3150 -0.0814
34017W        W77111  31.519   7.131  21.664  0.1268 -0.1089 -0.0055
34018W        W77112  32.119   9.229  21.717  0.3018 -0.4628 -0.1387
34019W        W77113  30.332  11.277  21.831  0.1069  0.4128  0.0569
34020W        W77114  30.062   9.060  22.461 -0.0876  0.0145  0.0812
34021W        W77115  32.285   8.206  21.755  0.2069 -0.1759  0.0147
34022W        W77116  30.341   9.953  21.067 -0.1917 -0.0411 -0.0197
34023W        W77117  29.087  10.211  22.415 -0.0788  0.2123 -0.1991
34024W        W77118  31.121   8.814  20.766 -0.1866  0.1668  0.2412
34025W        W77119  32.661  10.636  23.444  0.1101  0.2955 -0.3579
34026W        W77120  32.681   9.415  22.513 -0.2695 -0.1837  0.1259
34027W        W77121  30.544  11.401  22.729  0.3202 -0.0725 -0.0755
34028W        W77122  29.564  11.379  20.712  0.0174 -0.2246  0.3340
34029W        W77123  28.720  10.651  24.535  0.1703 -0.2584  0.4524
34030W        W77124  28.708  11.011  23.573  0.0726  0.0262 -0.0322
34031W        W77125  31.240   8.969  22.965 -0.1496  0.0239 -0.0793
34032W        W77126  32.407   9.674  21.203  0.0340 -0.1316 -0.0764
34033W        W77127  30.901  10.135  21.320 -0.0392 -0.2148 -0.0667
34034W        W77128  31.413   8.764  21.252  0.1033 -0.1108 -0.0222
34035W        W77129  30.145   9.086  24.130  0.0722 -0.0690 -0.0365
34036W        W77130  29.515  10.115  21.648  0.0370 -0.0871  0.1620
34037W        W77131  31.656   7.689  22.823 -0.0228  0.0254 -0.0128
34038W        W77132  30.462  11.767  19.156  0.2231 -0.1230 -0.0747
34039W        W77133  30.977   8.256  19.519  0.1979 -0.0116  0.2560
34040W        W77134  30.218   8.993  19.146  0.1264 -0.0609 -0.4378
34041W        W77135  31.294   7.818  20.497  0.1484  0.1609  0.1079
34042W        W77136  30.508   7.428  21.402  0.0677  0.2208 -0.2111
34043W        W77137  29.024  10.705  22.260 -0.0783  0.3412  0.0045
34044W        W77138  30.047   7.889  22.105  0.0165 -0.1972 -0.2093
34045W        W77139  32.493   9.174  23.374  0.1027  0.0659 -0.1925
34046W        W77140  30.851   9.005  19.999  0.0690 -0.4682 -0.3833
34047W        W77141  31.232   7.900  21.412  0.2561  0.0241  0.1874
34048W        W77142  28.550   9.359  22.580  0.0276 -0.0528  0.1514
34049W        W77143  28.691   8.981  22.914 -0.3610  0.0444 -0.3272
34050W        W77144  31.465  10.197  20.631  0.0340 -0.2175  0.0834
34051W        W77145  31.689  10.570  22.448 -0.0976  0.3833 -0.0944
34052W        W77146  31.097   9.892  20.771  0.0615 -0.1064 -0.0428
34053W        W77147  30.136   9.142  21.667  0.2540 -0.0702 -0.0551
34054W        W77148  29.336   8.859  22.895  0.2428  0.0131  0.1225
34055W        W77149  28.224   9.577  23.933  0.0309  0.1388  0.1079
34056W        W77150  28.560   6.980  20.033  0.0056 -0.2173 -0.0999
34057W        W77151  32.394   9.001  22.403 -0.0774  0.1169  0.1218
34058W        W77152  28.675   9.317  23.651  0.2786 -0.0701  0.0255
34059W        W77153  32.321   7.286  21.444  0.0449  0.3881  0.0352
34060W        W77154  30.633   8.114  21.418 -0.0005 -0.2175 -0.0649
34061W        W77155  31.106   9.076  22.501  0.1180 -0.0414  0.1236
34062W        W77156  31.019  10.297  20.355  0.2691  0.0949  0.1285
34063W        W77157  31.122   6.867  22.416 -0.0468 -0.0586 -0.2209
34064W        W77158  31.850   6.876  23.051 -0.1839  0.3645  0.0337
34065W        W77159  30.811   8.643  20.427  0.0091  0.0153  0.2703
34066W        W77160  31.220   8.146  20.853 -0.0591 -0.2230 -0.0290
34067W        W77161  31.260   9.356  22.157 -0.0383 -0.2289 -0.1505
34068W        W77162  33.799   8.192  18.880 -0.1585 -0.1794  0.1021
34069W        W77163  30.781  10.644  23.563 -0.2320 -0.3078  0.1034
34070W        W77164  30.013   7.394  24.146 -0.2575  0.1474 -0.1722
34071W        W77165  30.245  10.044  24.484 -0.0459 -0.1012  0.2603
34072W        W77166  30.249  12.306  20.336 -0.1632 -0.0882  0.1180
34073W        W77167  28.537   9.399  23.111 -0.1249 -0.0233 -0.0010
34074W        W77168  30.087  10.184  20.197 -0.0169  0.1100  0.0236
34075W        W77169  28.696   7.292  21.855  0.1196  0.2474 -0.0428
34076W        W77170  29.340  10.493  23.169  0.2117 -0.4252  0.0146
34077W        W77171  31.543   6.919  22.111 -0.0638 -0.1341 -0.0497
34078W        W77172  29.485   7.490  22.582  0.3248  0.0522  0.0176
34079W        W77173  32.395   8.070  22.240  0.0131  0.3239  0.2173
34080W        W77174  29.778   9.266  22.062  0.2548  0.0559 -0.3699
34081W        W77175  31.434  10.112  21.633 -0.0819  0.1175 -0.1556
34082W        W77176  31.861   7.309  21.136 -0.1069 -0.2478  0.1046
34083W        W77177  31.655  10.959  21.350  0.2952  0.2467 -0.0334
34084W        W77178  29.789   8.095  22.441 -0.1321  0.1633  0.2229
34085W        W77179  29.582   8.431  22.107 -0.0271 -0.2068 -0.2880
34086W        W77180  29.035   8.338  23.808  0.0699 -0.1580  0.1636
34087W        W77181  30.295   8.474  21.782  0.0733  0.0621  0.1011
34088W        W77182  30.711   9.064  23.039 -0.0911  0.0232 -0.2592
34089W        W77183  28.847   7.317  20.362 -0.1060  0.0254 -0.2813
34090W        W77184  31.203   7.989  19.922 -0.1564 -0.1166 -0.1604
34091W        W77185  29.763   8.579  21.606  0.0340  0.0518  0.0044
34092W        W77186  29.128  10.338  21.836  0.1318  0.1819  0.1468
34093W        W77187  33.980   6.879  23.399 -0.0246 -0.2176 -0.1782
34094W        W77188  30.171  11.797  20.522 -0.1202 -0.0855  0.1055
34095W        W77189  31.199  10.107  22.623  0.0066  0.2551 -0.0734
34096W        W77190  31.881  12.222  21.686 -0.1978 -0.0344 -0.2519
34097W        W77191  31.013   8.103  21.975 -0.0630  0.0861  0.0959
34098W        W77192  29.287   8.581  20.667 -0.3518 -0.0700 -0.0011
34099W        W77193  29.358   9.414  22.341  0.3092  0.2935 -0.2159
34100W        W77194  30.493   9.818  21.627  0.1828 -0.1164  0.0662
34101W        W77195  30.035   8.160  20.756  0.5657  0.0119  0.0472
34102W        W77196  33.788  11.810  22.727 -0.0413  0.4666 -0.0947
34103W        W77197  30.635   8.960  20.815  0.1321 -0.0080  0.2624
34104W        W77198  29.552   8.266  24.067  0.2995 -0.1223 -0.3081
34105W        W77199  32.116   6.748  23.437 -0.2531  0.1208 -0.0193
34106W        W77200  32.124   8.993  21.144  0.0018  0.1549 -0.0157
34107W        W77201  31.250  10.553  21.274  0.5167  0.2683  0.0638
34108W        W77202  28.831   8.128  19.797  0.1400  0.0542  0.4569
34109W        W77203  31.188  10.628  22.498  0.2101 -0.1713  0.0901
34110W        W77204  28.855  11.603  20.278  0.0475 -0.3837 -0.2727
34111W        W77205  28.299   9.383  22.020  0.1090  0.0683 -0.0451
34112W        W77206  30.480   9.573  22.396  0.1835  0.0378  0.0733
34113W        W77207  30.817   8.167  22.689 -0.1470 -0.2551 -0.1006
34114W        W77208  27.789   6.209  23.506 -0.3044  0.4702  0.0172
34115W        W77209  32.193   8.774  23.934 -0.1452  0.0823  0.0960
34116W        W77210  29.292   8.414  19.679  0.1813  0.0079  0.0950
34117W        W77211  29.804   8.701  24.148  0.3435 -0.0576  0.1524
34118W        W77212  30.833   7.329  22.613  0.0488  0.0767 -0.0005
34119W        W77213  32.503   7.993  21.168 -0.1701  0.1224  0.3271
34120W        W77214  29.261  11.004  24.628  0.3015  0.1113  0.2871
34121W        W77215  32.170  10.645  21.313 -0.0336 -0.0334  0.0135
34122W        W77216  33.178   7.758  19.894 -0.2334 -0.1230 -0.2094
34123W        W77217  30.116   8.265  21.321  0.1518  0.0638  0.2073
34124W        W77218  29.494   9.189  23.459 -0.0654  0.0145 -0.0910
34125W        W77219  30.828  10.284  22.306 -0.1518  0.1069 -0.1677
34126W        W77220  30.282   9.286  22.896 -0.1228 -0.2836  0.1862
34127W        W77221  32.966   8.755  20.103  0.0083 -0.1756 -0.1672
34128W        W77222  32.531  11.121  20.513 -0.0638 -0.1567  0.1697
34129W        W77223  28.756   9.592  22.190 -0.0093  0.0198  0.0964
34130W        W77224  31.530  10.416  23.474 -0.1288 -0.0315  0.2007
34131W        W77225  32.188  10.468  22.209 -0.2784 -0.2816 -0.1268
34132W        W77226  30.900   5.679  22.517  0.0772  0.0680  0.1051
34133W        W77227  29.689   9.418  20.324 -0.3245  0.0608 -0.1361
34134W        W77228  29.889   8.619  21.078  0.0311 -0.0427 -0.1111
34135W        W77229  28.578  10.468  19.604 -0.0147  0.1272  0.3618
34136W        W77230  32.074   8.191  23.588  0.1875 -0.1091 -0.0845
34137W        W77231  30.363   7.805  21.048 -0.0489 -0.1586  0.3304
34138W        W77232  29.710   6.783  23.278  0.0784  0.2581  0.3295
34139W        W77233  31.660   8.321  22.150 -0.1272 -0.0569 -0.1645
34140W        W77234  33.898   8.289  20.476  0.1142  0.1709 -0.0830
34141W        W77235  29.861   8.634  22.697  0.0996  0.3422  0.5370
34142W        W77236  30.370   9.835  19.276  0.0477  0.1877  0.0379
34143W        W77237  31.204   8.393  22.277 -0.1187  0.3701 -0.0665
34144W        W77238  30.380   8.694  22.650  0.2998  0.2470  0.0124
34145W        W77239  29.486   9.621  22.864 -0.1910  0.1274 -0.1343
34146W        W77240  30.644   8.361  22.293 -0.0719 -0.0674  0.1677
34147W        W77241  30.567  10.108  20.651 -0.1568  0.0330  0.1881
34148W        W77242  30.294   7.733  24.316  0.0438 -0.2137 -0.2018
34149W        W77243  31.109   7.419  20.078 -0.1778 -0.2036 -0.0975
34150W        W77244  29.167  11.627  22.525 -0.0280 -0.2143  0.4039
34151W        W77245  30.564  10.038  20.106  0.1524 -0.1475 -0.1655
34152W        W77246  31.406   6.364  22.192 -0.0150  0.2036 -0.4469
34153W        W77247  29.116  10.987  23.283  0.1675  0.0867  0.0849
34154W        W77248  30.835   9.756  20.371  0.1178 -0.0112 -0.0492
34155W        W77249  32.307   9.498  22.158 -0.1982 -0.0967  0.0325
34156W        W77250  29.139   8.991  21.468  0.0540  0.1521 -0.1706
34157W        W77251  31.749   6.244  21.839  0.1094 -0.1173 -0.2067
34158W        W77252  28.165   9.897  21.004 -0.1644  0.2431  0.2151
34159W        W77253  30.578   8.655  19.591 -0.1941 -0.2651 -0.2036
34160W        W77254  28.992   8.639  21.122 -0.1128 -0.0938  0.2590
34161W        W77255  31.756   7.412  22.093  0.2130 -0.2889 -0.2498
34162W        W77256  32.803   9.596  19.696 -0.2499  0.0039 -0.2529
34163W        W77257  29.809   7.920  22.898  0.3720  0.2020 -0.1777
34164W        W77258  30.894   7.737  21.693 -0.0429  0.0542  0.1497
34165W        W77259  29.504  11.605  23.248  0.2310 -0.1592 -0.0679
34166W        W77260  31.295   7.412  21.295 -0.0921  0.0476 -0.2308
34167W        W77261  30.609   7.750  20.579 -0.4577 -0.2312 -0.2472
34168W        W77262  30.487   9.447  23.375 -0.3334  0.0556  0.0454
34169W        W77263  30.445   8.367  24.498  0.2663 -0.1316 -0.0340
34170W        W77264  28.904   8.878  20.676 -0.0128 -0.1326  0.0127
34171W        W77265  32.006   7.350  22.815  0.0792  0.0320 -0.2494
34172W        W77266  30.618   9.145  22.515 -0.0869  0.0023 -0.1153
34173W        W77267  27.840  10.640  21.686  0.1747 -0.0632  0.2677
34174W        W77268  29.617  10.161  23.458  0.3433  0.1061  0.0362
34175W        W77269  29.439  10.891  20.995 -0.0459  0.1338 -0.0240
34176W        W77270  29.352   8.765  23.630 -0.1624  0.1799  0.0142
34177W        W77271  30.145   8.413  22.300  0.0440  0.1881  0.1252
34178W        W77272  30.786   8.462  21.743  0.0261 -0.0330 -0.1256
34179W        W77273  30.938   7.690  22.273 -0.1037  0.0013  0.0912
34180W        W77274  29.356   9.009  20.992  0.2544  0.0512 -0.1412
34181W        W77275  30.522   8.030  21.934 -0.0011 -0.2376  0.0450
34182W        W77276  31.006   8.480  21.217 -0.0594  0.0148  0.0496
34183W        W77277  31.332   7.330  22.416  0.2459  0.1424 -0.1774
34184W        W77278  29.872  10.701  25.093 -0.0855 -0.1081 -0.0350
34185W        W77279  29.713   7.913  21.267 -0.3170 -0.3550 -0.2423
34186W        W77280  33.745  11.675  21.184  0.0651 -0.4231 -0.0773
34187W        W77281  30.914   9.785  22.137 -0.2823 -0.0990  0.1321
34188W        W77282  30.026   9.635  20.807  0.2117 -0.1055 -0.0005
34189W        W77283  28.906   8.599  22.067 -0.2641 -0.4698  0.1699
34190W        W77284  29.489  10.906  22.376  0.0121  0.1175  0.0704
34191W        W77285  30.653   6.112  22.659  0.1073 -0.2779  0.3354
34192W        W77286  29.273   9.459  21.760 -0.0758  0.0483 -0.0955
34193W        W77287  30.234  10.581  19.907  0.0655  0.1534  0.0227
34194W        W77288  29.099   9.947  21.417 -0.2852  0.0806  0.1677
34195W        W77289  33.537   5.957  19.884 -0.1963 -0.3062 -0.0389
34196W        W77290  30.267  10.614  21.830  0.1894  0.0113  0.3580
34197W        W77291  30.404   8.711  20.185  0.2623 -0.3360  0.1362
34198W        W77292  32.501   7.949  23.587  0.0281  0.0831 -0.0346
34199W        W77293  31.462   7.139  20.418 -0.2242  0.0038 -0.1035
34200W        W77294  32.632   8.459  22.061 -0.0644  0.2170  0.0865
34201W        W77295  30.235   7.184  22.327 -0.2086 -0.0009 -0.0435
34202W        W77296  32.085  10.681  22.797 -0.4714  0.2841  0.0311
34203W        W77297  29.334   7.903  22.708 -0.1105 -0.1064 -0.2514
34204W        W77298  30.811   9.937  23.895 -0.1117 -0.1403 -0.1926
34205W        W77299  29.473   9.429  24.726  0.2878 -0.2004 -0.1916
34206W        W77300  31.098   6.961  18.556 -0.1925  0.3262 -0.1818
34207W        W77301  29.291   7.946  19.809 -0.2100 -0.2312 -0.0117
34208W        W77302  30.240   8.508  24.068  0.0959 -0.2325  0.0796
34209W        W77303  32.176   8.830  23.187 -0.1813  0.2074  0.0238
34210W        W77304  30.513   9.556  20.722  0.0316  0.0577 -0.0144
34211W        W77305  31.124   6.797  21.425  0.0673  0.0578  0.3868
34212W        W77306  29.982   8.636  23.595 -0.1714 -0.0210  0.0451
34213W        W77307  31.791   8.204  21.689  0.0916 -0.2199  0.2056
34214W        W77308  31.058   9.371  20.886  0.0642  0.0013 -0.1267
34215W        W77309  29.625   9.078  21.497  0.0973 -0.1054  0.3086
34216W        W77310  29.307   7.087  22.965 -0.2197  0.1767  0.1199
34217W        W77311  32.382   8.798  21.608  0.1539 -0.1668 -0.0781
34218W        W77312  30.615   7.524  20.150  0.0676  0.1261  0.2341
34219W        W77313  31.363   8.417  21.651 -0.2044 -0.0927  0.0367
34220W        W77314  31.767   8.761  21.686  0.0277  0.3760  0.1897
34221W        W77315  31.052   8.697  23.806 -0.1084 -0.0460 -0.0059
34222W        W77316  29.088   7.243  23.844  0.1732  0.1794 -0.2439
34223W        W77317  31.758  10.312  22.939  0.4268 -0.2671  0.0416
34224W        W77318  31.762   7.664  19.641 -0.4210  0.0591  0.2202
34225W        W77319  31.732   7.562  21.534  0.0892  0.1877  0.3704
34226W        W77320  30.917   7.117  21.061  0.0123  0.2117  0.0393
34227W        W77321  30.952   8.147  20.383 -0.2779 -0.1666 -0.1863
34228W        W77322  29.662   7.763  24.074 -0.3781  0.0631  0.3348
34229W        W77323  31.412   8.975  23.411 -0.1084  0.0394 -0.0723
34230W        W77324  29.893   8.916  20.162 -0.1823 -0.1097  0.0266
34231W        W77325  31.156   7.269  23.830 -0.0800  0.1153  0.2398
34232W        W77326  30.582  10.786  21.462 -0.1437  0.2230 -0.1043
34233W        W77327  32.243   9.717  21.663  0.0565  0.3172 -0.1863
34234W        W77328  32.084   8.149  20.896  0.4281  0.1020  0.1955
34235W        W77329  28.167   8.363  22.148 -0.2163 -0.0757  0.1656
34236W        W77330  30.124   9.437  23.789 -0.0250  0.1180  0.0116
34237W        W77331  29.073  10.519  20.836  0.4143  0.2635 -0.4486
34238W        W77332  30.175   8.622  20.642 -0.0687  0.1696  0.1575
34239W        W77333  30.449   8.958  23.563  0.0976 -0.0396  0.0384
34240W        W77334  31.461   8.201  25.455 -0.2329 -0.0608  0.0360
34241W        W77335  29.688   7.126  18.828  0.1049 -0.2034 -0.1461
34242W        W77336  33.487   7.702  23.690 -0.1947  0.0338  0.0130
34243W        W77337  29.984  10.054  21.598 -0.0312 -0.2878  0.0990
34244W        W77338  31.273   7.491  21.948  0.1566 -0.1151  0.1310
34245W        W77339  30.194  10.207  22.633  0.2556  0.0068 -0.2225
34246W        W77340  28.884   9.813  22.849  0.2896 -0.1731 -0.1599
34247W        W77341  29.991  11.441  22.195 -0.1058  0.0861 -0.3389
34248W        W77342  31.562   6.955  22.660 -0.1368 -0.1830  0.1387
34249W        W77343  30.224   7.119  20.492  0.0137  0.3889  0.1995
34250W        W77344  30.891   8.944  21.195  0.0115 -0.2457 -0.0045
34251W        W77345  33.068   8.753  21.760  0.2254 -0.1149  0.0988
34252W        W77346  31.223   9.336  24.028 -0.0776  0.0087 -0.0419
34253W        W77347  28.925   8.979  22.417 -0.1664  0.0433  0.0716
34254W        W77348  30.056   9.871  23.439  0.6297  0.2823  0.5214
34255W        W77349  31.543   9.219  21.744 -0.3365 -0.4372  0.0113
34256W        W77350  29.867   9.543  22.517 -0.0307 -0.1742  0.0856
34257W        W77351  27.877   7.080  24.096 -0.3873 -0.0563  0.0654
34258W        W77352  29.911   8.313  23.195  0.4618 -0.1411 -0.0533
34259W        W77353  31.816   8.555  20.771 -0.0640  0.2607  0.1211
34260W        W77354  29.252   9.074  20.310 -0.0699 -0.1475 -0.6346
34261W        W77355  32.818   8.363  20.438  0.0907 -0.2727  0.3725
34262W        W77356  29.548  10.698  23.764 -0.2291  0.1321 -0.1135
34263W        W77357  29.095   8.559  23.282  0.1849  0.0380 -0.0993
34264W        W77358  29.978  11.516  21.573 -0.2666  0.0423 -0.0490
34265W        W77359  31.608   9.097  20.664  0.1141 -0.1164 -0.1477
34266W        W77360  31.646   8.319  21.219  0.0468  0.1600  0.1480
34267W        W77361  32.367  11.035  21.903 -0.1433  0.2279  0.0553
34268W        W77362  31.790   7.941  20.534 -0.3816  0.0025  0.0441
34269W        W77363  29.544   8.955  22.398  0.0029  0.1968  0.3101
34270W        W77364  29.937  11.073  21.012  0.1220  0.1599  0.0067
34271W        W77365  30.405  10.057  22.132  0.1201  0.0569 -0.2692
34272W        W77366  30.480  13.058  20.937 -0.3444  0.1868  0.1599
34273W        W77367  31.774   9.350  23.095  0.1472 -0.0798  0.3210
34274W        W77368  31.898   6.523  18.358 -0.1663 -0.3056 -0.3437
34275W        W77369  30.882   8.667  23.262 -0.0962  0.0189  0.0790
34276W        W77370  34.162   7.706  21.279 -0.0438 -0.2909  0.1385
34277W        W77371  31.967   9.873  23.018  0.0829 -0.1396 -0.0937
34278W        W77372  30.451   9.232  21.194 -0.0130 -0.1582 -0.2904
34279W        W77373  29.875   9.533  19.223 -0.1150  0.1823 -0.1243
34280W        W77374  29.919   8.787  22.010 -0.0569 -0.1670 -0.4020
34281W        W77375  32.816   7.189  22.832  0.2337  0.4779  0.1870
34282W        W77376  27.393  12.450  23.901  0.0571  0.0164  0.0944
34283W        W77377  31.789   8.763  20.171 -0.1288 -0.0281  0.1596
34284W        W77378  28.531   8.524  21.174  0.2115 -0.1286 -0.0130
34285W        W77379  29.943   8.348  20.261  0.0005 -0.2177  0.2061
34286W        W77380  32.945   6.633  21.341 -0.0938  0.0309 -0.0259
34287W        W77381  30.403  10.327  21.440 -0.0806  0.2498  0.0138
34288W        W77382  31.095   8.790  19.578  0.0200  0.0970  0.0311
34289W        W77383  31.554   9.614  20.839  0.1121 -0.2276 -0.1118
34290W        W77384  29.762   9.142  22.932  0.3174 -0.0642  0.0703
34291W        W77385  30.246   9.522  21.987  0.1025  0.0493 -0.4031
34292W        W77386  29.862   8.127  19.772  0.1838  0.2219  0.0348
34293W        W77387  32.444   7.970  20.546  0.1129  0.3663  0.0523
34294W        W77388  31.342   8.552  23.179 -0.0885  0.0085  0.1977
34295W        W77389  31.964   8.115  22.503  0.1248 -0.0821  0.1697
34296W        W77390  30.459   8.228  20.392  0.1884 -0.2111  0.1489
34297W        W77391  33.066   9.059  21.000 -0.0205 -0.1236  0.1642
34298W        W77392  31.323   8.829  24.721 -0.1839 -0.1044  0.0729
34299W        W77393  29.132   7.516  23.101  0.0187 -0.0671 -0.0866
34300W        W77394  31.047  10.118  19.874 -0.3007  0.3607 -0.1476
34301W        W77395  32.691   9.427  21.689 -0.0039  0.0975  0.0375
34302W        W77396  31.704   8.100  19.892 -0.2609 -0.1345 -0.0605
34303W        W77397  32.140  10.562  24.224  0.2479  0.1329 -0.2392
34304W        W77398  29.426   8.397  21.269  0.4178  0.0839  0.2753
34305W        W77399  31.416   8.286  20.352  0.0754 -0.4465  0.1239
34306W        W77400  30.592   8.946  21.698 -0.1983 -0.1398  0.0611
34307W        W77401  30.335   8.187  22.714  0.3193 -0.0726  0.1663
34308W        W77402  30.820  11.128  23.519  0.1960 -0.0315 -0.1048
34309W        W77403  30.147   7.010  21.296  0.0105  0.0445  0.1455
34310W        W77404  32.600  10.871  21.473 -0.4316 -0.1610  0.1011
34311W        W77405  32.140   8.510  21.219 -0.0709 -0.1866  0.0200
34312W        W77406  29.720  11.904  20.671  0.0880 -0.0327 -0.0035
34313W        W77407  32.678   9.928  21.516 -0.1490  0.2002  0.2267
34314W        W77408  31.349  11.482  22.667  0.0554 -0.1331  0.2713
34315W        W77409  29.418   7.806  22.125  0.0185  0.0356  0.1076
34316W        W77410  30.774   9.274  22.059  0.3037  0.1344  0.0681
34317W        W77411  32.611  10.094  23.415  0.1090 -0.0651 -0.0345
34318W        W77412  29.789   6.417  20.230  0.1234 -0.3397  0.3275
34319W        W77413  29.741  10.153  22.990 -0.0824  0.0177  0.2714
34320W        W77414  30.355   8.670  21.357  0.1145 -0.0610  0.1329
34321W        W77415  30.941   7.233  21.653 -0.2057 -0.2378 -0.2219
34322W        W77416  31.744   7.293  23.785 -0.1771  0.1546 -0.0929
34323W        W77417  29.612  11.342  19.852  0.3437  0.2174  0.2177
34324W        W77418  30.774   7.315  24.167  0.0454  0.1648  0.1819
34325W        W77419  29.712   8.734  23.205  0.0715 -0.0431  0.3471
34326W        W77420  29.882  10.159  24.077  0.3828 -0.3746  0.0131
34327W        W77421  29.127   9.726  20.329 -0.1115  0.1450  0.0969
34328W        W77422  29.600   9.790  25.428  0.2142  0.0993 -0.0484
34329W        W77423  32.124   8.994  20.566 -0.2895 -0.1146 -0.0201
34330W        W77424  29.900  11.022  21.975 -0.1493  0.0423  0.2620
34331W        W77425  31.814  10.185  21.987 -0.1472  0.4645  0.0585
34332W        W77426  31.231   9.652  21.301  0.0028  0.3180 -0.3690
34333W        W77427  33.038  11.615  22.200 -0.2371 -0.0435  0.3203
34334W        W77428  30.191   7.838  21.576 -0.1510  0.2772 -0.1252
34335W        W77429  30.596   6.246  20.679 -0.0148  0.0162  0.1418
34336W        W77430  30.003   7.510  21.195  0.1380  0.0223 -0.3781
34337W        W77431  29.711   9.183  23.912  0.0961  0.1300  0.0819
34338W        W77432  28.641   9.647  21.113  0.1239 -0.0909  0.0868
34339W        W77433  28.725   9.767  20.589 -0.3166 -0.0183  0.0311
34340W        W77434  29.600   9.659  23.348 -0.0182  0.0452  0.0614
34341W        W77435  30.929   7.766  23.794 -0.1313 -0.1224 -0.0459
34342W        W77436  28.484   8.472  23.967 -0.1578  0.1426  0.0574
34343W        W77437  29.279   8.577  21.699 -0.1764  0.0041  0.0783
34344W        W77438  28.282   8.531  21.645  0.1910  0.2675  0.2789
34345W        W77439  31.348   9.841  20.145 -0.2882  0.1213 -0.1399
34346W        W77440  28.880   8.218  21.419  0.1661 -0.2246 -0.2369
34347W        W77441  29.181   7.374  22.173 -0.0206  0.3870  0.2380
34348W        W77442  32.019   9.442  20.943  0.0332  0.0004 -0.3632
34349W        W77443  32.419   9.772  20.631  0.1824  0.0066 -0.0248
34350W        W77444  30.299   8.340  19.834  0.0801  0.2181  0.0910
34351W        W77445  32.451   9.977  22.072  0.1157 -0.0995  0.0520
34352W        W77446  29.088  10.578  19.642  0.1759 -0.2490  0.1834
34353W        W77447  30.467   7.799  22.393  0.1133  0.2626  0.2677
34354W        W77448  30.361   7.585  23.795 -0.2618 -0.1458 -0.2746
34355W        W77449  29.179   8.164  20.325  0.3718  0.0591 -0.2368
34356W        W77450  30.872   8.653  22.698  0.0135 -0.3900  0.0314
34357W        W77451  31.289   9.649  21.792  0.0623  0.1269  0.1950
34358W        W77452  31.998  10.674  19.903  0.2570  0.2634  0.0867
34359W        W77453  29.377  10.066  23.898  0.0159 -0.3033 -0.2609
34360W        W77454  30.040  10.450  23.597  0.0714  0.2810 -0.2147
34361W        W77455  27.854   7.564  23.162  0.0308 -0.0608 -0.0407
34362W        W77456  31.585   9.238  21.180  0.0640 -0.3824 -0.0475
34363W        W77457  28.809  11.215  24.436  0.1792 -0.0064 -0.1158
34364W        W77458  32.617  11.311  22.223  0.1748 -0.3321  0.3665
34365W        W77459  32.041   6.903  21.311 -0.2064  0.2072 -0.3028
34366W        W77460  32.148   7.876  20.130  0.1086 -0.1248  0.3009
34367W        W77461  28.665   7.411  23.739 -0.0427  0.0812  0.1361
34368W        W77462  30.470   8.922  25.098  0.0937 -0.0734  0.2365
34369W        W77463  31.135   8.880  21.695  0.1091  0.0203 -0.1558
34370W        W77464  30.470   6.978  21.860 -0.0650  0.0329 -0.0966
34371W        W77465  32.227   7.508  19.816 -0.1872  0.0080 -0.1159
34372W        W77466  31.498  10.627  21.988  0.0625  0.0938  0.2077
34373W        W77467  30.075   9.592  21.418 -0.3562  0.0642 -0.0688
34374W        W77468  30.861   7.644  21.085 -0.1484 -0.1792 -0.5036
34375W        W77469  31.911   9.050  23.651  0.0099 -0.3595  0.1966
34376W        W77470  30.968   9.344  21.542  0.0652 -0.2375 -0.0970
34377W        W77471  31.464   9.955  23.131 -0.0268 -0.3296 -0.0856
34378W        W77472  31.738   7.570  20.197 -0.0638  0.3023 -0.0796
34379W        W77473  33.042  10.335  20.678  0.1435  0.1822 -0.1207
34380W        W77474  30.930  11.220  22.457 -0.2100 -0.2762 -0.3181
34381W        W77475  32.517  11.057  23.716  0.1650  0.2866 -0.1361
34382W        W77476  31.322   9.469  23.192 -0.0429 -0.1326  0.2511
34383W        W77477  31.934   9.061  22.121 -0.0370 -0.1971 -0.4437
34384W        W77478  29.221   6.168  21.525  0.0534 -0.0004  0.0245
34385W        W77479  30.739   8.270  20.875  0.1362 -0.0264 -0.0009
34386W        W77480  29.999   9.171  23.379  0.1030  0.0287  0.2282
34387W        W77481  31.651   7.793  21.059 -0.0398  0.2090 -0.0537
34388W        W77482  30.207   7.858  20.119  0.2583 -0.1644  0.1267
34389W        W77483  31.427   7.084  19.922 -0.0475  0.1853  0.0727
34390W        W77484  30.180  11.743  24.726  0.4241 -0.0960 -0.1787
34391W        W77485  31.429   8.594  22.682 -0.1642 -0.0626  0.0607
34392W        W77486  31.114   9.851  27.402  0.0838 -0.0470  0.2694
34393W        W77487  29.992   8.111  24.778 -0.3140 -0.2110  0.0642
34394W        W77488  30.653   8.358  23.640  0.2095  0.1777  0.2358
34395W        W77489  32.668   8.645  24.369  0.0439  0.2675  0.0173
34396W        W77490  29.411   7.340  25.855  0.0738  0.0132  0.0098
34397W        W77491  31.885  10.098  23.463  0.0649 -0.1997 -0.4976
34398W        W77492  29.747   7.249  24.999  0.0121 -0.2725 -0.0050
34399W        W77493  32.948   9.818  27.216  0.0169  0.3421  0.2976
34400W        W77494  33.163  10.916  26.526  0.0570 -0.0858  0.0077
34401W        W77495  32.956   8.154  23.482  0.0121  0.2584 -0.0785
34402W        W77496  30.570   8.004  28.072  0.1820  0.2756  0.1530
34403W        W77497  30.091   9.661  25.546 -0.0499  0.1766 -0.0899
34404W        W77498  29.892   7.762  23.427  0.0582  0.4817 -0.3897
34405W        W77499  29.357   8.105  25.892  0.0283 -0.0236  0.1591
34406W        W77500  32.935   9.088  25.191  0.0728 -0.0112 -0.4174
34407W        W77501  28.464   8.700  24.789  0.0748 -0.0575 -0.0378
34408W        W77502  29.524   9.008  26.330  0.2281  0.0566  0.0335
34409W        W77503  29.285   7.481  24.292  0.0231 -0.0398  0.1914
34410W        W77504  30.549  10.189  26.387  0.0188  0.1961  0.1500
34411W        W77505  30.685   6.649  27.204 -0.2454  0.0836  0.0520
34412W        W77506  31.227   7.563  27.005  0.0427  0.2562 -0.4142
34413W        W77507  30.683  10.249  24.592 -0.0578  0.0727  0.0892
34414W        W77508  28.936   8.438  22.798  0.2173  0.0369 -0.3012
34415W        W77509  29.795   8.108  26.219  0.1089  0.2330  0.1935
34416W        W77510  29.465   8.913  25.125  0.3279 -0.1104 -0.0292
34417W        W77511  33.059   8.150  24.751  0.0714 -0.1162  0.0668
34418W        W77512  33.298   8.319  25.852  0.0762  0.1199  0.0559
34419W        W77513  30.636  10.631  25.885  0.0722 -0.2962  0.0500
34420W        W77514  31.541  10.397  24.363 -0.0027 -0.2839  0.1137
34421W        W77515  32.142   8.818  26.428  0.0141  0.1786  0.2833
34422W        W77516  28.537   9.916  25.311 -0.2115  0.3490 -0.0493
34423W        W77517  28.985  10.623  25.761 -0.0929 -0.0683 -0.1947
34424W        W77518  29.898   9.223  26.643 -0.0705 -0.0373 -0.0496
34425W        W77519  33.338   9.586  24.003 -0.0445 -0.1547 -0.0320
34426W        W77520  31.965   9.781  29.239 -0.3741 -0.1718  0.2599
34427W        W77521  30.561  11.144  27.553  0.0935 -0.1612  0.1813
34428W        W77522  29.262   9.530  23.750  0.1085 -0.0056 -0.2591
34429W        W77523  33.292  10.465  27.431  0.3176 -0.1567  0.0048
34430W        W77524  30.498  11.733  27.579 -0.1069  0.0115 -0.3811
34431W        W77525  30.519   8.176  25.658  0.0028  0.2209 -0.2140
34432W        W77526  31.066   8.743  26.390  0.2405 -0.2621  0.1447
34433W        W77527  29.359   9.926  24.380  0.0797  0.1698  0.2142
34434W        W77528  30.688  10.204  25.692  0.0529  0.0945  0.0625
34435W        W77529  32.428   8.352  27.186 -0.2053 -0.1408  0.3519
34436W        W77530  29.856   9.882  26.741  0.0344  0.1574  0.1391
34437W        W77531  33.232   7.574  27.598  0.0461 -0.2690 -0.2339
34438W        W77532  28.759  10.855  24.122 -0.1798 -0.0547 -0.1884
34439W        W77533  32.578   8.315  24.708 -0.1692  0.3036 -0.1695
34440W        W77534  30.067   7.234  23.356 -0.0181  0.1807  0.0290
34441W        W77535  31.144   8.877  24.279 -0.2040  0.0689  0.0826
34442W        W77536  31.743   8.684  25.118 -0.2151 -0.0064  0.1961
34443W        W77537  30.997  11.005  25.696  0.4151 -0.0872  0.0987
34444W        W77538  31.238   6.304  28.000  0.0296 -0.1608 -0.1466
34445W        W77539  32.300  10.464  25.415  0.1116 -0.1148 -0.0848
34446W        W77540  31.249   7.619  25.434 -0.2773  0.0185  0.1610
34447W        W77541  31.521   8.220  24.964  0.0343  0.0733  0.0243
34448W        W77542  31.614   9.804  27.385  0.1739  0.0452 -0.3448
34449W        W77543  28.979   8.613  26.589 -0.0220  0.0785 -0.0130
34450W        W77544  31.685  10.078  22.439  0.0707 -0.0920 -0.2814
34451W        W77545  31.769   9.090  24.847 -0.2110 -0.1211 -0.1796
34452W        W77546  30.620   9.383  23.901  0.0975 -0.0681  0.4102
34453W        W77547  29.751   9.342  25.181  0.1889  0.2154 -0.2148
34454W        W77548  29.188   8.905  27.874  0.0460 -0.4818  0.1670
34455W        W77549  30.432   7.847  27.593  0.2077 -0.3857  0.1798
34456W        W77550  29.505   8.334  23.480  0.0047  0.2135  0.2861
34457W        W77551  32.189   9.388  26.479 -0.0034 -0.1027  0.1651
34458W        W77552  29.949   9.619  26.343  0.0742 -0.1519 -0.3067
34459W        W77553  33.034   7.263  25.020 -0.3442  0.0844  0.2190
34460W        W77554  31.091   8.059  25.706  0.1839  0.1379 -0.0464
34461W        W77555  33.764   8.665  25.285  0.3480 -0.3020 -0.2442
34462W        W77556  31.713   8.876  23.005  0.0353 -0.0178  0.0106
34463W        W77557  31.349   8.075  24.070  0.0181  0.0302  0.2571
34464W        W77558  32.723   8.714  26.279 -0.0240  0.1973 -0.2066
34465W        W77559  30.783   9.306  24.333 -0.0232  0.4308  0.1656
34466W        W77560  30.512   9.422  25.305  0.2720 -0.1020  0.0533
34467W        W77561  32.670  10.310  26.185  0.0288  0.0203  0.0970
34468W        W77562  32.713   7.755  25.479  0.2390  0.0909  0.0864
34469W        W77563  30.347   9.850  26.082 -0.0416  0.1287 -0.0898
34470W        W77564  31.919   9.047  26.048 -0.0067 -0.0395  0.1317
34471W        W77565  31.912  10.624  29.632 -0.0209  0.2086  0.0054
34472W        W77566  27.181  10.272  23.824  0.0465  0.2103 -0.0025
34473W        W77567  28.106   9.643  26.607  0.0086  0.1263 -0.0150
34474W        W77568  28.797   8.782  24.342  0.0654 -0.1257 -0.0070
34475W        W77569  28.290   8.448  26.107  0.1267  0.1143 -0.2656
34476W        W77570  32.048  10.791  23.803  0.3446  0.0191  0.0135
34477W        W77571  32.882   6.498  23.812  0.0526  0.1939  0.3157
34478W        W77572  29.357   6.635  26.466  0.1468  0.2068  0.1532
34479W        W77573  32.839   8.284  25.192 -0.0618  0.0507 -0.0827
34480W        W77574  28.993   8.791  24.818 -0.2556 -0.2642 -0.1661
34481W        W77575  32.372  10.398  23.770  0.3431  0.2092  0.0110
34482W        W77576  32.410   8.022  25.109  0.1205 -0.2950  0.0537
34483W        W77577  30.964   9.568  22.637 -0.2799  0.0602  0.0236
34484W        W77578  27.972   8.081  26.369 -0.1264  0.0649  0.2619
34485W        W77579  29.081   7.596  25.608 -0.0477 -0.0123  0.0247
34486W        W77580  29.986   7.255  26.162 -0.1392  0.1316 -0.0542
34487W        W77581  29.510   7.343  26.322  0.0339  0.2029 -0.0456
34488W        W77582  31.082   9.251  26.579  0.1440 -0.1743 -0.0605
34489W        W77583  29.086   6.668  25.291  0.1314  0.1206  0.1641
34490W        W77584  33.012   8.675  24.928  0.2253  0.0804  0.1505
34491W        W77585  30.462   8.013  24.858 -0.4927  0.2466  0.0110
34492W        W77586  29.497   8.913  24.633 -0.1015  0.3161 -0.4969
34493W        W77587  33.216   9.233  25.730 -0.0890  0.0533  0.1017
34494W        W77588  30.350  10.063  25.342  0.1220 -0.2224  0.1298
34495W        W77589  33.700  10.779  28.232 -0.0282  0.0042  0.0644
34496W        W77590  31.484  10.823  24.073  0.0579  0.2629  0.1036
34497W        W77591  30.370   7.336  27.592  0.1947  0.0038  0.0811
34498W        W77592  28.147   6.679  24.293  0.2224 -0.3093  0.1470
34499W        W77593  29.009  10.166  25.492 -0.2741  0.2341  0.1755
34500W        W77594  31.306  10.515  24.822  0.1377 -0.1692  0.0442
34501W        W77595  29.126   7.847  23.887  0.1827  0.0700 -0.3288
34502W        W77596  30.888  11.421  23.910 -0.2354  0.0468 -0.3491
34503W        W77597  31.606   8.696  25.603  0.0535  0.0338  0.1918
34504W        W77598  30.186   8.525  27.381 -0.2029 -0.2691  0.2053
34505W        W77599  31.510   7.434  25.999  0.3485 -0.2788  0.1502
34506W        W77600  31.987   7.595  25.917 -0.0348 -0.0220  0.0705
34507W        W77601  32.509   8.656  25.839 -0.0470  0.2055 -0.1971
34508W        W77602  28.691   7.943  22.837 -0.4354 -0.2949 -0.0891
34509W        W77603  31.569  10.187  25.597  0.0770  0.0854  0.2268
34510W        W77604  29.910  12.007  24.378 -0.1041 -0.0254  0.3252
34511W        W77605  28.930   8.204  25.625 -0.0029  0.1655 -0.0554
34512W        W77606  31.023  10.730  25.282 -0.0415  0.2016  0.0232
34513W        W77607  32.199   7.122  24.009  0.0519  0.0502  0.2119
34514W        W77608  28.678   9.757  27.427  0.0392  0.1564 -0.1488
34515W        W77609  32.167   8.975  26.993  0.2144  0.3021 -0.0033
34516W        W77610  28.151   9.042  24.534  0.1327 -0.3779  0.0650
34517W        W77611  30.440   9.324  27.151  0.3236 -0.1620 -0.0849
34518W        W77612  30.763   6.807  23.821  0.0458 -0.1300  0.1800
34519W        W77613  32.694   8.106  24.235 -0.1716 -0.1087  0.0911
34520W        W77614  32.606   9.114  26.666 -0.2761  0.1018 -0.1522
34521W        W77615  31.621   9.598  24.900 -0.1526  0.1698  0.5449
34522W        W77616  31.421   8.409  23.696 -0.2906  0.3225 -0.2500
34523W        W77617  31.793   8.388  23.986  0.1292  0.0962 -0.0052
34524W        W77618  31.346   9.079  28.086 -0.0155  0.4957 -0.1315
34525W        W77619  31.798   9.584  23.586  0.1701  0.2953  0.1600
34526W        W77620  30.355   7.946  27.037 -0.0470 -0.1559  0.0171
34527W        W77621  31.430   7.691  23.728 -0.1235  0.0326 -0.2452
34528W        W77622  33.294  10.043  24.325 -0.1200 -0.2696 -0.1637
34529W        W77623  29.921   9.411  27.132 -0.1572  0.0917  0.0704
34530W        W77624  31.237   8.554  27.852  0.0385 -0.5443 -0.0234
34531W        W77625  30.563   9.067  25.587  0.2330 -0.0395  0.2060
34532W        W77626  31.819   7.565  26.420  0.2009 -0.3699 -0.2779
34533W        W77627  31.417   7.851  22.383  0.1958  0.2450 -0.3450
34534W        W77628  31.431   7.838  26.210  0.1806 -0.2267 -0.0566
34535W        W77629  28.189  11.773  25.453  0.1830 -0.2089  0.1666
34536W        W77630  31.970   8.031  27.377 -0.1698  0.0047  0.2977
34537W        W77631  31.968   8.546  25.949 -0.2707 -0.3246 -0.1237
34538W        W77632  30.905   7.817  26.676 -0.0870 -0.3213 -0.1381
34539W        W77633  33.180   9.962  28.157 -0.1731  0.3602 -0.0821
34540W        W77634  31.406   9.121  25.212 -0.1753 -0.1248  0.2473
34541W        W77635  32.225   9.665  24.334  0.1227 -0.0529  0.0303
34542W        W77636  29.462   8.419  24.809 -0.3510 -0.0583 -0.1457
34543W        W77637  31.410   9.397  27.082  0.0491  0.1998  0.1051
34544W        W77638  30.570   8.548  26.955  0.0809 -0.1063  0.0150
34545W        W77639  29.885   9.970  25.877  0.3266 -0.3928  0.1426
34546W        W77640  31.202  10.440  26.283 -0.0585 -0.0793 -0.0359
34547W        W77641  32.095   9.735  24.853  0.0392 -0.3350  0.0844
34548W        W77642  32.447   9.074  26.106 -0.0353  0.1975 -0.0190
34549W        W77643  31.217   8.443  24.478 -0.1916 -0.0848 -0.0291
34550W        W77644  28.320  11.097  23.840 -0.2505 -0.0600  0.1679
34551W        W77645  29.971   8.921  24.964 -0.2356  0.0589  0.3534
34552W        W77646  31.019   7.383  25.861  0.0046 -0.2412 -0.0430
34553W        W77647  31.011  10.092  25.367 -0.0319 -0.0350 -0.1023
34554W        W77648  28.468   9.601  24.881  0.1403 -0.2850 -0.1806
34555W        W77649  30.249  10.318  25.785  0.2267  0.2326  0.0891
34556W        W77650  29.007   9.607  24.591  0.1955  0.1849  0.0794
34557W        W77651  31.754   6.920  25.386  0.1186 -0.3630 -0.3352
34558W        W77652  27.493   9.435  25.088  0.1494  0.1038  0.1943
34559W        W77653  29.555  10.273  25.042  0.1837 -0.0013 -0.1796
34560W        W77654  28.845   8.372  26.096  0.2607  0.0781  0.1088
34561W        W77655  32.419   8.328  25.502  0.1773 -0.0666  0.0990
34562W        W77656  32.713   8.750  23.348 -0.2779  0.0341  0.0632
34563W        W77657  29.718   6.966  26.586 -0.2442  0.1776 -0.3181
34564W        W77658  32.004   8.504  26.836  0.2101 -0.1813 -0.1092
34565W        W77659  30.277   9.304  24.851 -0.2454  0.0499  0.2406
34566W        W77660  29.619   8.653  25.572 -0.0028  0.2075 -0.2103
34567W        W77661  31.234   7.563  24.242 -0.3755  0.1807  0.3539
34568W        W77662  32.668   9.598  26.460  0.1333  0.1527  0.0188
34569W        W77663  30.460   9.504  28.050  0.2224  0.2195 -0.0314
34570W        W77664  28.723   8.770  23.622  0.0484 -0.0563 -0.0168
34571W        W77665  30.931   9.023  25.268 -0.0259 -0.0605 -0.1990
34572W        W77666  29.739   6.471  24.035  0.0102 -0.1445  0.1870
34573W        W77667  27.937  10.580  24.733 -0.0723 -0.2488  0.3572
34574W        W77668  32.862   9.762  25.150 -0.0300  0.2387  0.1682
34575W        W77669  30.289   8.833  24.565 -0.0767  0.0382 -0.1967
34576W        W77670  30.607   8.582  25.872 -0.3652  0.0033  0.1155
34577W        W77671  29.852   8.554  28.122 -0.0279 -0.2520 -0.1546
34578W        W77672  33.370   9.573  27.311  0.3746 -0.3911  0.1361
34579W        W77673  30.498   7.571  26.499 -0.0652  0.1568  0.0226
34580W        W77674  30.694   7.299  24.764  0.1002 -0.0511  0.2681
34581W        W77675  30.437   8.052  26.567  0.5379  0.3172 -0.2451
34582W        W77676  31.855   9.675  26.305  0.1753 -0.0678  0.2689
34583W        W77677  31.001   8.335  26.855 -0.0223 -0.4035  0.0663
34584W        W77678  31.537  10.373  27.719  0.0172 -0.3797 -0.2408
34585W        W77679  31.697   7.754  25.136  0.3710 -0.0321  0.0488
34586W        W77680  32.589  10.698  24.103 -0.3307 -0.2401  0.1832
34587W        W77681  30.568   8.831  27.358 -0.0659 -0.0631  0.2236
34588W        W77682  29.903   9.228  24.504  0.0263  0.1623 -0.0235
34589W        W77683  29.010   8.967  25.432  0.1177 -0.1897 -0.4968
34590W        W77684  29.916   9.193  26.155 -0.2679 -0.0726 -0.1838
34591W        W77685  31.406   7.821  27.622  0.3339  0.2526 -0.0821
34592W        W77686  30.001  10.125  26.329  0.3768 -0.1199 -0.1247
34593W        W77687  29.491   8.997  25.874  0.0589 -0.1585  0.0357
34594W        W77688  29.151   9.519  27.782  0.0178 -0.0757  0.0959
34595W        W77689  32.713   7.561  22.483 -0.1479  0.2012 -0.3165
34596W        W77690  31.478   9.681  22.694  0.2388 -0.0393 -0.1496
34597W        W77691  31.461   6.795  24.572  0.3249 -0.1621 -0.0102
34598W        W77692  31.193   8.511  25.208 -0.1358  0.1746 -0.1245
34599W        W77693  30.780   9.361  24.856 -0.0195 -0.0147 -0.1491
34600W        W77694  33.290   6.740  28.784 -0.0221  0.1129 -0.0316
34601W        W77695  30.910   6.721  25.651 -0.1095  0.0129 -0.0654
34602W        W77696  32.546   9.631  23.846  0.0238 -0.0314  0.5382
34603W        W77697  29.843   8.471  25.153  0.3431  0.2767  0.2035
34604W        W77698  31.013  10.436  27.557  0.1588  0.0382  0.3004
34605W        W77699  31.020   7.956  27.185  0.5293 -0.3072 -0.0263
34606W        W77700  31.207   7.950  24.714  0.1284  0.2558  0.1111
34607W        W77701  29.738   7.078  23.791  0.3883  0.1947 -0.1757
34608W        W77702  30.359   9.233  26.430  0.1269 -0.1363 -0.0374
34609W        W77703  32.325   9.306  24.761  0.1134 -0.1011  0.0085
34610W        W77704  30.727   9.710  25.653  0.2266 -0.1244 -0.0578
34611W        W77705  32.229   7.744  26.534  0.0287  0.3311 -0.0133
34612W        W77706  30.214   8.851  26.026 -0.1468 -0.0215  0.1838
34613W        W77707  32.642   7.235  24.636 -0.0379 -0.1512  0.3905
34614W        W77708  30.214   9.764  24.905 -0.1303  0.0354  0.0944
34615W        W77709  28.847   9.268  25.834 -0.1686 -0.0454 -0.1283
34616W        W77710  31.317   7.127  25.477  0.1437  0.0947 -0.0656
34617W        W77711  33.324   9.963  25.003  0.0010  0.0306 -0.1294
34618W        W77712  30.711   8.540  25.301  0.1267 -0.4911  0.2054
34619W        W77713  32.459   7.892  27.377 -0.1373 -0.2611 -0.0803
34620W        W77714  30.972   8.573  27.307  0.2123  0.0263 -0.0330
34621W        W77715  31.682   8.367  27.761  0.4249  0.5487  0.0883
34622W        W77716  29.281   8.262  26.855 -0.2274 -0.5056 -0.0417
34623W        W77717  33.509  10.074  27.183 -0.1133 -0.0060  0.1216
34624W        W77718  32.606   8.894  24.779 -0.1687 -0.2068  0.0499
34625W        W77719  32.405   9.813  26.058 -0.2254  0.1263  0.1781
34626W        W77720  32.114   7.444  24.880  0.2451 -0.1376 -0.3646
34627W        W77721  30.326   9.527  24.391 -0.1984 -0.0548 -0.3070
34628W        W77722  29.661   6.909  26.008 -0.0489 -0.1268 -0.1797
34629W        W77723  32.459   8.756  27.483 -0.3083 -0.3993  0.3824
34630W        W77724  29.404   7.936  23.217  0.1054  0.3436 -0.0113
34631W        W77725  33.051   9.101  26.448  0.1561 -0.1021 -0.4244
34632W        W77726  28.860  10.105  24.292  0.0743 -0.0131 -0.0032
34633W        W77727  33.529   9.353  26.860  0.2545  0.0320  0.0947
34634W        W77728  32.860   8.311  26.511  0.1499 -0.2011 -0.0250
34635W        W77729  27.427   8.240  24.915 -0.2374  0.0987  0.1443
34636W        W77730  30.105  11.280  27.746 -0.1067  0.0108 -0.2649
34637W        W77731  28.871   7.010  23.342  0.0882 -0.2703  0.1516
34638W        W77732  28.690   8.321  24.387  0.0749  0.0820  0.1709
34639W        W77733  30.278   9.349  25.905 -0.2449 -0.2054 -0.2943
34640W        W77734  31.782   9.247  27.459  0.1326  0.0314 -0.1520
34641W        W77735  31.695   7.740  24.128  0.1608 -0.0287 -0.2189
34642W        W77736  30.760   8.144  26.124 -0.3040 -0.3829  0.0220
34643W        W77737  28.066   9.379  25.021  0.0790  0.0223 -0.0318
34644W        W77738  31.838   8.072  25.821 -0.1263 -0.1568 -0.2128
34645W        W77739  30.500  10.905  26.571  0.0123  0.0552  0.0077
34646W        W77740  30.636   8.231  27.364 -0.0028  0.1267 -0.1454
34647W        W77741  31.169  10.795  24.418  0.0640  0.0993  0.1986
34648W        W77742  31.409   7.977  26.784 -0.2126 -0.0200 -0.3013
34649W        W77743  31.521   8.393  25.988 -0.0612  0.2500  0.0300
34650W        W77744  30.176   8.579  25.573  0.3520 -0.1643  0.0056
34651W        W77745  34.148   9.478  27.650  0.1473 -0.0745  0.0102
34652W        W77746  31.539  10.086  26.457 -0.0331 -0.0393 -0.0324
34653W        W77747  30.285   8.499  24.945 -0.0349 -0.3666 -0.0223
34654W        W77748  32.001  10.399  28.164  0.2062  0.0550 -0.0916
34655W        W77749  33.441   8.765  23.977  0.0844  0.2617 -0.0003
34656W        W77750  29.974   9.058  25.582  0.0961 -0.0360 -0.0094
34657W        W77751  29.781   8.028  28.155  0.1327  0.1686 -0.0224
34658W        W77752  32.460   8.647  26.801  0.3406 -0.0681  0.0178
34659W        W77753  32.486  10.113  25.065  0.3317  0.0905  0.2715
34660W        W77754  28.671   7.858  24.842  0.2260  0.1094  0.0829
34661W        W77755  30.497  10.105  23.539 -0.0980 -0.0638 -0.0081
34662W        W77756  30.148   9.916  27.732 -0.0234 -0.3231  0.1950
34663W        W77757  30.711   9.577  26.524 -0.2293 -0.2412 -0.0627
34664W        W77758  29.179  10.552  24.777 -0.0252 -0.0225 -0.1545
34665W        W77759  32.249   9.637  23.369  0.0850  0.2144  0.2524
34666W        W77760  30.809   9.757  24.513  0.3782 -0.1897  0.1820
34667W        W77761  31.013   9.274  25.699 -0.2791  0.1731  0.0629
34668W        W77762  30.070   8.183  23.708  0.3718 -0.0621  0.1891
34669W        W77763  31.620  10.973  24.509 -0.0681 -0.3715  0.5114
34670W        W77764  29.188  10.536  24.274  0.1776 -0.0839  0.1524
34671W        W77765  30.905   9.667  23.466 -0.2423 -0.3231 -0.0793
34672W        W77766  30.473  12.005  25.064 -0.3555 -0.2202  0.4346
34673W        W77767  30.769   9.220  28.442  0.0369  0.3123  0.1620
34674W        W77768  32.440   7.514  23.018 -0.0320 -0.0171 -0.1196
34675W        W77769  32.141   8.936  25.582 -0.1404 -0.1728 -0.2933
34676W        W77770  33.523   7.602  25.737 -0.1257 -0.2356  0.2168
34677W        W77771  32.654  11.792  28.623  0.0636  0.4586  0.0555
34678W        W77772  30.715   7.687  25.623 -0.1483 -0.2212 -0.1601
34679W        W77773  28.951   8.069  23.251  0.1358  0.0649  0.0086
34680W        W77774  30.955   8.907  27.661  0.0607 -0.1809 -0.0922
34681W        W77775  32.912   8.145  27.250 -0.1064 -0.1708 -0.1763
34682W        W77776  29.365  10.645  27.031  0.0177 -0.1909 -0.0341
34683W        W77777  32.014  10.082  25.297 -0.1973 -0.0435 -0.3518
34684W        W77778  30.524   8.094  23.994  0.0165  0.0139  0.0310
34685W        W77779  31.946   8.229  25.295  0.0599 -0.1704 -0.2729
34686W        W77780  33.177   8.668  25.455 -0.0024 -0.2567 -0.0801
34687W        W77781  31.225   9.999  24.908  0.0786 -0.0890 -0.0327
34688W        W77782  30.658   7.678  25.135  0.4354  0.1556 -0.0530
34689W        W77783  29.682  11.118  24.934  0.1980 -0.0133  0.0820
34690W        W77784  30.742   8.988  26.840  0.1229 -0.1859 -0.2068
34691W        W77785  30.687  10.409  25.057 -0.2684  0.0527  0.0950
34692W        W77786  29.438   7.999  24.464 -0.2171  0.0689 -0.1346
34693W        W77787  32.474   6.523  25.189 -0.3169 -0.2633  0.0167
34694W        W77788  28.315   7.808  25.292 -0.1524 -0.2330 -0.2829
34695W        W77789  32.265   8.163  26.118  0.0022  0.2053  0.1326
34696W        W77790  29.893   8.142  25.726 -0.0161  0.1876  0.2151
34697W        W77791  31.643   8.168  24.421  0.0377  0.0890 -0.1921
34698W        W77792  30.598   8.670  26.462  0.0020  0.0628 -0.2414
34699W        W77793  29.907   8.544  24.576 -0.2498 -0.0433  0.1964
34700W        W77794  31.164   7.673  22.819 -0.0278  0.1443 -0.0389
34701W        W77795  33.243   9.817  26.784  0.1132 -0.0394  0.1843
34702W        W77796  31.707   9.429  24.423  0.0928  0.1989  0.0461
34703W        W77797  32.441  10.521  26.836 -0.0001 -0.3584  0.0724
34704W        W77798  28.644   8.226  25.152 -0.2144  0.3148  0.0342
34705W        W77799  30.816   8.806  24.629  0.0989 -0.2528  0.1358
34706W        W77800  29.061   9.249  24.965 -0.1802  0.1362 -0.0961
34707W        W77801  30.109   8.748  26.516 -0.1954 -0.1390  0.0426
34708W        W77802  33.104  11.604  28.489 -0.0915  0.0212  0.1503
34709W        W77803  30.796   6.653  26.680  0.2337  0.3763 -0.0154
34710W        W77804  31.621   9.240  22.567 -0.3137  0.2277 -0.2623
34711W        W77805  32.192   8.555  24.974 -0.1187  0.1289  0.1315
34712W        W77806  30.259  10.518  24.425  0.2519 -0.2639 -0.0788
34713W        W77807  32.559  10.037  25.590  0.2394 -0.2400  0.1637
34714W        W77808  31.788   9.776  24.081  0.1172  0.0941  0.1871
34715W        W77809  28.979   7.452  26.339 -0.1176  0.4132 -0.1355
34716W        W77810  31.793  10.118  26.028 -0.0408  0.0081  0.1244
34717W        W77811  33.596   9.507  24.974  0.0044 -0.1195 -0.0073
34718W        W77812  31.195   7.222  24.652  0.0278  0.1004  0.2359
34719W        W77813  31.036   7.513  27.464  0.1441  0.1020 -0.2291
34720W        W77814  30.201  10.321  24.895  0.0481 -0.1648  0.0262
34721W        W77815  32.806   8.242  25.897  0.2426  0.0290  0.1134
34722W        W77816  32.338   8.207  26.624 -0.1917 -0.1015  0.0349
34723W        W77817  30.053  11.239  24.197 -0.0492  0.1156 -0.0677
34724W        W77818  31.993   7.177  27.148 -0.2487  0.0731 -0.2738
34725W        W77819  32.320   9.704  25.323  0.2874 -0.1848  0.0279
34726W        W77820  30.567   9.903  27.297  0.2163  0.2750 -0.1267
34727W        W77821  29.713   9.808  24.864 -0.3282  0.1974  0.1068
34728W        W77822  30.533   8.997  27.867  0.0697 -0.1374 -0.1351
34729W        W77823  31.602   9.764  25.392 -0.5498 -0.1722  0.0371
34730W        W77824  30.731   9.845  25.016 -0.0938 -0.0744  0.0167
34731W        W77825  30.912   9.195  23.525 -0.4976  0.0831  0.1074
34732W        W77826  30.914   8.054  25.244  0.0595  0.0682  0.2238
34733W        W77827  32.766   9.555  25.634 -0.1969  0.0135  0.0896
34734W        W77828  30.759   7.169  25.523 -0.2632  0.0135 -0.2062
34735W        W77829  33.657   7.299  22.965  0.0829 -0.3498 -0.2496
34736W        W77830  30.863   6.844  25.018 -0.0717  0.0093  0.0714
34737W        W77831  29.180   8.507  25.244 -0.0873  0.3064  0.1352
34738W        W77832  28.863   9.103  21.913 -0.0948 -0.0772 -0.1277
34739W        W77833  29.365   9.291  25.490 -0.2299  0.0620 -0.2736
34740W        W77834  28.605   8.816  25.864  0.1241  0.2377 -0.0638
34741W        W77835  31.185   6.521  26.287 -0.1819  0.2418 -0.1728
34742W        W77836  30.036   7.522  27.198  0.3605 -0.2920 -0.0286
34743W        W77837  28.809   9.506  25.393 -0.1648  0.3252 -0.1875
34744W        W77838  29.081   7.961  25.216  0.0667 -0.4108  0.2961
34745W        W77839  31.841   8.611  23.463  0.0758  0.1259  0.0185
34746W        W77840  29.191   7.173  25.059  0.0784 -0.0522 -0.2230
34747W        W77841  28.549   7.501  25.630  0.2014  0.0149  0.1992
34748W        W77842  32.163   8.953  24.468 -0.0186 -0.1933  0.0145
34749W        W77843  32.722  10.931  24.530  0.0890  0.2220  0.0176
34750W        W77844  30.825   7.958  24.393 -0.1443  0.2860  0.0636
34751W        W77845  31.316   9.684  26.286 -0.0018  0.1670 -0.0047
34752W        W77846  27.078   9.679  24.033 -0.1455 -0.4539 -0.0885
34753W        W77847  31.129   7.299  27.978  0.0141  0.0086 -0.0414
34754W        W77848  31.653   7.553  28.154 -0.1441 -0.1359 -0.2618
34755W        W77849  28.266   8.255  24.728 -0.1139 -0.0507  0.1326
34756W        W77850  30.223   8.360  26.121 -0.1629  0.1514 -0.4090
34757W        W77851  32.945   9.331  23.853 -0.1458 -0.3007 -0.1822
34758W        W77852  31.718  10.264  23.925  0.2034  0.0860  0.0491
34759W        W77853  31.107   8.747  25.707  0.0835  0.1514 -0.2842
34760W        W77854  30.781   9.488  27.547 -0.2168 -0.0905 -0.0350
34761W        W77855  30.150   7.295  26.752  0.2201 -0.0020 -0.0044
34762W        W77856  32.174   8.406  24.328  0.0658  0.0633 -0.1210
34763W        W77857  30.968   9.170  27.234 -0.1041 -0.1957  0.2341
34764W        W77858  33.903   8.494  24.027 -0.2436  0.1196  0.1778
34765W        W77859  32.571   8.715  25.261  0.2992 -0.2031 -0.2125
34766W        W77860  31.951   9.384  25.326 -0.0767 -0.1085  0.3464
34767W        W77861  29.879   7.248  25.639 -0.3948  0.0288 -0.1186
34768W        W77862  30.185   8.179  27.809  0.0438  0.0512 -0.0406
34769W        W77863  33.020  10.050  27.685 -0.1124  0.2445  0.0616
34770W        W77864  30.191   7.625  25.605  0.3182 -0.0220  0.1826
34771W        W77865  31.024   6.517  24.337 -0.0070 -0.2666 -0.2332
34772W        W77866  32.025  10.109  24.380 -0.0326 -0.3967 -0.3203
34773W        W77867  29.049   8.902  26.106  0.3546  0.1350  0.2046
34774W        W77868  30.864   8.345  24.812  0.2174 -0.1381 -0.4021
34775W        W77869  31.430   8.838  27.479  0.0031  0.1643  0.0757
34776W        W77870  30.676   9.068  26.130  0.2520 -0.3856  0.0141
34777W        W77871  31.268   9.762  25.776  0.0180  0.1360 -0.3826
34778W        W77872  30.869   8.415  24.164  0.1697  0.1236 -0.2446
34779W        W77873  32.908   8.116  22.387  0.0292  0.0044  0.1139
34780W        W77874  32.375  10.962  27.069 -0.2670  0.2032  0.2137
34781W        W77875  32.319   9.253  27.397 -0.0167 -0.0120 -0.1253
34782W        W77876  30.300  11.387  26.919  0.1567 -0.0142  0.0916
34783W        W77877  33.065   8.998  24.283 -0.0994 -0.0252 -0.0699
34784W        W77878  29.878   7.880  26.844 -0.2688  0.0141 -0.0396
34785W        W77879  30.269   7.144  25.260 -0.1249 -0.2185  0.1081
34786W        W77880  31.344   9.829  23.683  0.1502  0.0973 -0.2224
34787W        W77881  33.880   8.350  26.616 -0.4351 -0.2042  0.2518
34788W        W77882  29.900   8.324  26.621 -0.0656 -0.5188  0.1259
34789W        W77883  31.762   7.241  24.286  0.1354 -0.0541  0.2059
34790W        W77884  30.555  10.013  26.833 -0.1034  0.0214  0.0317
34791W        W77885  30.348   7.856  26.014 -0.1582  0.2859  0.0455
34792W        W77886  30.428  10.200  31.287 -0.1332  0.0986  0.1753
34793W        W77887  31.700  10.181  29.143 -0.1571  0.0099  0.3737
34794W        W77888  32.122   7.260  28.135  0.2973 -0.0225 -0.2884
34795W        W77889  32.670   8.947  29.408 -0.1837  0.2452 -0.1513
34796W        W77890  29.329   9.094  27.438  0.3091  0.1724  0.3366
34797W        W77891  31.727  11.099  28.722  0.1433  0.1451 -0.1304
34798W        W77892  30.225   8.443  30.612 -0.1525 -0.3207 -0.0394
34799W        W77893  32.478   9.510  30.196 -0.1484  0.2335  0.1011
34800W        W77894  32.472  10.748  31.001  0.0805  0.3990 -0.1929
34801W        W77895  31.627   8.767  26.510  0.2020 -0.0020  0.3324
34802W        W77896  31.975   8.674  29.941 -0.0361  0.0118 -0.1578
34803W        W77897  30.001  10.809  28.769  0.2432 -0.3674  0.0599
34804W        W77898  32.169   8.596  27.861  0.2237  0.0636 -0.1278
34805W        W77899  29.901   7.582  30.471  0.2080  0.3562 -0.1281
34806W        W77900  31.561   9.794  29.453 -0.0008 -0.0469  0.3303
34807W        W77901  29.817   8.670  28.936 -0.0638 -0.2805 -0.0569
34808W        W77902  29.805   8.718  30.430  0.0542 -0.1724  0.3407
34809W        W77903  29.271  10.011  27.966  0.0896  0.0450 -0.1907
34810W        W77904  33.287  11.146  28.851 -0.2423 -0.0216 -0.1561
34811W        W77905  29.305   9.331  31.230 -0.2688 -0.0668 -0.0524
34812W        W77906  31.354   8.267  31.901  0.3133 -0.0340 -0.2203
34813W        W77907  30.772  10.278  28.645  0.2246 -0.1244  0.1342
34814W        W77908  30.681   7.556  27.006  0.1090 -0.0614 -0.1673
34815W        W77909  29.260  10.580  29.893  0.1116 -0.1937 -0.2464
34816W        W77910  30.159   8.959  29.324 -0.1578 -0.2309  0.0998
34817W        W77911  33.177   8.560  30.394 -0.1439  0.2341 -0.0371
34818W        W77912  32.164   9.360  28.273 -0.0259 -0.1848  0.3042
34819W        W77913  30.145  11.768  27.945 -0.3499  0.1098  0.0397
34820W        W77914  31.364  10.567  29.369  0.0071 -0.0275 -0.1469
34821W        W77915  32.012  10.061   0.056 -0.3879 -0.2428 -0.1103
34822W        W77916  30.408  10.514  28.952  0.3214 -0.4556  0.0358
34823W        W77917  30.479  11.157  28.599 -0.1456 -0.0742 -0.1184
34824W        W77918  31.294  10.954  28.501 -0.1597 -0.3229  0.1132
34825W        W77919  32.405   8.913  28.951 -0.0750 -0.2158  0.1386
34826W        W77920  32.531   9.829  31.322 -0.0746  0.2532 -0.1681
34827W        W77921  29.961  10.406  30.389  0.3666 -0.2903  0.1590
34828W        W77922  29.561  11.463  27.573 -0.0576  0.0675 -0.2078
34829W        W77923  32.050  10.477  31.698 -0.1716 -0.1366 -0.0664
34830W        W77924  30.280  11.456  31.190 -0.1225  0.0470  0.0606
34831W        W77925  31.631   8.279  30.307  0.2868  0.0202 -0.1207
34832W        W77926  32.944   8.569  26.943 -0.1593 -0.2339 -0.0304
34833W        W77927  30.253   9.366  27.579  0.0969  0.0995 -0.0319
34834W        W77928  32.855   9.490  29.581 -0.0168  0.2217  0.2608
34835W        W77929  29.787   9.966  29.491 -0.1304  0.0639 -0.2116
34836W        W77930  29.937   9.835  28.566 -0.2923 -0.2779  0.0693
34837W        W77931  32.455   8.795  31.384  0.1073  0.3927  0.3213
34838W        W77932  31.453  11.437  28.439 -0.1028 -0.1263 -0.3160
34839W        W77933  31.264   8.769  26.864 -0.1229  0.0541 -0.1204
34840W        W77934  33.013   7.189  27.919  0.1160  0.2013 -0.0203
34841W        W77935  32.491   9.350  28.626  0.2546  0.3234 -0.1264
34842W        W77936  31.611   9.141  28.581 -0.0224 -0.2159 -0.0153
34843W        W77937  31.181  11.154  29.545  0.2300  0.0468  0.0088
34844W        W77938  30.250   7.435  30.197 -0.1002  0.0111 -0.1143
34845W        W77939  32.976  10.633  30.906 -0.3220  0.1242  0.1842
34846W        W77940  31.499   9.718  28.976 -0.0481  0.3219 -0.0179
34847W        W77941  31.785   7.901  29.982 -0.0068 -0.0166 -0.0443
34848W        W77942  29.704  10.807  30.132  0.0553 -0.2468 -0.1286
34849W        W77943  30.352   8.555  29.008 -0.0374 -0.2679 -0.1405
34850W        W77944  32.185  10.181  29.002 -0.4207  0.0912  0.0675
34851W        W77945  33.657  11.761  28.328  0.2354  0.1558  0.1519
34852W        W77946  31.215   9.417  28.349 -0.0951  0.0118  0.1154
34853W        W77947  29.816   9.234  28.506 -0.0422 -0.1058  0.0208
34854W        W77948  29.667  10.799  30.699  0.2155 -0.0257  0.1252
34855W        W77949  30.907   9.645  28.932 -0.0716  0.1096  0.0484
34856W        W77950  29.062   6.206  26.161 -0.0419  0.0316  0.3138
34857W        W77951  31.954   9.387   0.717  0.0306 -0.0252 -0.0720
34858W        W77952  28.265   9.552  29.617 -0.0004  0.1660 -0.3811
34859W        W77953  32.245   7.467  29.513  0.0787  0.0828  0.0988
34860W        W77954  30.668   8.785  28.642 -0.1665  0.3777 -0.1104
34861W        W77955  32.709   9.172  29.953 -0.0067  0.2462 -0.2888
34862W        W77956  30.929   9.285  27.989 -0.0472  0.4637 -0.2782
34863W        W77957  33.183   8.075  30.327  0.1304 -0.2281 -0.2196
34864W        W77958  31.721   7.078  31.242 -0.0213  0.1310 -0.0936
34865W        W77959  30.326   7.802  28.816 -0.2132  0.4144 -0.0733
34866W        W77960  31.308   7.775  30.359 -0.0497 -0.1183 -0.3294
34867W        W77961  32.153   9.117  31.091  0.1817  0.0318  0.0504
34868W        W77962  32.647   9.316  28.122  0.4068  0.3255  0.0182
34869W        W77963  29.331   9.032  29.763  0.0985  0.1675  0.1505
34870W        W77964  30.912   8.326  29.364 -0.2618 -0.0235 -0.1511
34871W        W77965  31.864   9.384  31.439 -0.0192  0.2655  0.2177
34872W        W77966  27.470  11.147  27.417 -0.0250  0.2957  0.3262
34873W        W77967  29.985   8.499  29.429  0.0207 -0.0673 -0.3548
34874W        W77968  30.306   9.457  28.485 -0.0559  0.2541 -0.3531
34875W        W77969  29.001   9.030  30.973  0.0523  0.2131 -0.3323
34876W        W77970  30.174  10.479  29.921 -0.4296 -0.1127 -0.2771
34877W        W77971  33.016   8.035  29.019  0.2104 -0.1440  0.2075
34878W        W77972  30.539   9.251  29.855  0.3095 -0.0038  0.1777
34879W        W77973  32.337   6.854  30.257  0.0616 -0.2166  0.1077
34880W        W77974  29.167   9.834  29.141  0.2497  0.2812  0.1597
34881W        W77975  33.131  10.785  30.356  0.2620 -0.2498  0.1111
34882W        W77976  32.927   8.671  27.431 -0.0008  0.0652 -0.3402
34883W        W77977  32.409  10.741  28.278 -0.1188 -0.1119 -0.0661
34884W        W77978  29.590   8.666  30.001  0.0203 -0.4362 -0.0746
34885W        W77979  31.442   8.346  27.195 -0.1337  0.1093 -0.2739
34886W        W77980  29.031   7.544  30.416  0.2947  0.0927  0.1084
34887W        W77981  31.301   8.068  29.749 -0.0615 -0.0754  0.0965
34888W        W77982  32.024  10.039  31.533 -0.3949 -0.1618  0.0338
34889W        W77983  29.917   7.711  28.520  0.0751  0.0908 -0.1272
34890W        W77984  31.685   9.613  28.502 -0.1018 -0.2887  0.1638
34891W        W77985  31.011   8.649  29.765 -0.2218  0.4702 -0.1245
34892W        W77986  28.606   9.556  27.852  0.0777 -0.1630  0.1752
34893W        W77987  32.678   9.035  31.896 -0.1024  0.0618  0.3231
34894W        W77988  31.598  10.023  28.157 -0.3099  0.1978 -0.0859
34895W        W77989  31.561  10.237  31.635 -0.0114  0.2020  0.0090
34896W        W77990  32.873   9.443  30.551  0.2227 -0.1703  0.0371
34897W        W77991  30.642   9.533  29.437  0.1082  0.0258  0.1094
34898W        W77992  28.373   7.623  27.557  0.0710 -0.3307  0.2109
34899W        W77993  29.264  11.289  27.941  0.1746  0.0353  0.0282
34900W        W77994  29.299   8.704  28.852 -0.0628 -0.1515  0.0066
34901W        W77995  31.643   5.567  28.493 -0.0056 -0.3325 -0.4170
34902W        W77996  32.408   9.904  30.575 -0.1524  0.2631  0.1236
34903W        W77997  32.370   8.570  29.334  0.0145 -0.2690 -0.0169
34904W        W77998  29.360  10.171  29.556  0.1107 -0.2698  0.0301
34905W        W77999  32.175   8.222  31.452  0.2144  0.1575 -0.0771
34906W        W78000  31.957   8.763  31.433  0.2129  0.1557 -0.0687
34907W        W78001  31.196   8.835  28.462 -0.0145 -0.0122 -0.1282
34908W        W78002  26.949   6.576  27.018 -0.0450 -0.2165  0.0365
34909W        W78003  32.449  11.315  30.392 -0.0123  0.2266  0.0943
34910W        W78004  29.769  11.426  28.080 -0.3251 -0.1473 -0.3232
34911W        W78005  29.605   9.499  29.388  0.2789  0.1284 -0.1348
34912W        W78006  30.852  10.506  29.172 -0.1729  0.0560  0.0114
34913W        W78007  31.104   7.284  30.137 -0.2941 -0.0446  0.2037
34914W        W78008  28.656   8.402  30.035  0.3652 -0.1088  0.0729
34915W        W78009  31.464   8.752  29.531 -0.3912  0.0518 -0.1586
34916W        W78010  29.391   7.537  27.797  0.1976 -0.0101 -0.0935
34917W        W78011  29.704  10.527  29.676  0.2582  0.0104 -0.0761
34918W        W78012  31.689   7.229  28.500  0.0907  0.0487 -0.0303
34919W        W78013  32.081   7.179  28.794  0.1369  0.2712 -0.2169
34920W        W78014  31.931  11.019  30.886  0.0825 -0.3364 -0.1776
34921W        W78015  31.807  10.070  28.646 -0.0800  0.2703  0.0199
34922W        W78016  32.153   7.652  29.068 -0.2248  0.0108  0.1863
34923W        W78017  31.885   7.857  27.826 -0.0655 -0.1542  0.1203
34924W        W78018  29.221  10.107  30.614 -0.0053  0.3721  0.1154
34925W        W78019  31.121   9.561  29.365 -0.3747  0.1984 -0.1349
34926W        W78020  31.423   8.967  30.740  0.0826 -0.2718  0.3206
34927W        W78021  31.764   9.271  29.694  0.1211 -0.3564 -0.0377
34928W        W78022  32.671  10.307  28.982 -0.0584 -0.0411 -0.1878
34929W        W78023  29.348   9.697  29.778  0.1283  0.1404 -0.2156
34930W        W78024  31.306   9.556  31.465 -0.1429 -0.0841 -0.1129
34931W        W78025  31.332   9.440  30.390  0.2457  0.0223  0.2892
34932W        W78026  30.485   7.305  30.617  0.0042  0.3160 -0.1695
34933W        W78027  31.085   8.313  28.240 -0.0089 -0.2278 -0.3706
34934W        W78028  31.620   8.038  28.299  0.0139  0.2284  0.0705
34935W        W78029  28.998   8.898  29.420  0.2358 -0.1370 -0.1261
34936W        W78030  32.188   8.218  30.147 -0.0919 -0.0768 -0.2528
34937W        W78031  32.589   7.870  29.494  0.1462  0.0862 -0.0513
34938W        W78032  30.738   7.622  30.314 -0.0417 -0.0650  0.0177
34939W        W78033  33.288   9.701  30.769 -0.0994  0.1327  0.0146
34940W        W78034  32.551   9.796  28.309 -0.2814  0.1827 -0.3225
34941W        W78035  31.807   9.424  30.276  0.0554 -0.0822  0.0482
34942W        W78036  31.241   6.893  28.439  0.1735  0.2307  0.2908
34943W        W78037  31.140   8.722  30.364  0.2813  0.0715  0.0844
34944W        W78038  28.951   8.657  30.652  0.0599  0.0813  0.1304
34945W        W78039  30.667   9.815  30.012  0.0474 -0.0683  0.3998
34946W        W78040  30.848  10.865  30.996 -0.0261 -0.1868 -0.1398
34947W        W78041  32.731  10.061  30.171 -0.0905  0.2832  0.0157
34948W        W78042  30.843   9.221  30.205  0.0594  0.1279  0.2718
34949W        W78043  31.772   6.738  28.495 -0.0635  0.0163  0.3305
34950W        W78044  30.087  11.093  28.284 -0.1057  0.3172 -0.1055
34951W        W78045  29.729  10.036  28.113  0.1577 -0.3263 -0.2107
34952W        W78046  31.833   6.811  30.023  0.0268  0.0170 -0.3319
34953W        W78047  29.798  11.152  29.291 -0.2895 -0.1073  0.1216
34954W        W78048  32.004   8.615  27.335  0.0767 -0.1859 -0.3388
34955W        W78049  31.645   9.762  31.761  0.0166  0.5425 -0.0810
34956W        W78050  31.504  10.549  28.757 -0.0413 -0.0940  0.0110
34957W        W78051  32.017   7.913  29.553 -0.2154  0.1707 -0.1961
34958W        W78052  29.476  10.969  28.883 -0.2840  0.0524 -0.2216
34959W        W78053  31.018   8.423  28.901 -0.2566  0.1196  0.0031
34960W        W78054  29.374   6.721  27.017  0.0194 -0.0503 -0.0426
34961W        W78055  32.302   7.244  29.918  0.1449  0.0016  0.0136
34962W        W78056  32.344  10.673  28.874  0.2688  0.2626  0.3332
34963W        W78057  31.107   7.746  31.186 -0.0883  0.2200 -0.0210
34964W        W78058  31.191   9.224  28.828 -0.0339 -0.0839  0.3269
34965W        W78059  28.234   9.721  30.105  0.1325 -0.3911 -0.2006
34966W        W78060  32.412   9.266  31.469 -0.2754  0.2525 -0.0996
34967W        W78061  32.703   8.924  28.412  0.3102  0.1763 -0.1957
34968W        W78062  31.858   9.853  30.464  0.1195 -0.0055  0.0563
34969W        W78063  31.529   9.685  29.914  0.0938  0.1301  0.1145
34970W        W78064  30.251   7.670  28.096  0.1024  0.1695  0.0867
34971W        W78065  32.013   8.855  29.466 -0.0967 -0.1870 -0.1939
34972W        W78066  30.384  10.027  28.734  0.0116 -0.0158 -0.2630
34973W        W78067  30.432  11.720  28.980 -0.3797  0.0555  0.1664
34974W        W78068  32.123   9.651  31.034  0.0900  0.1393 -0.1567
34975W        W78069  28.670   9.049  27.525 -0.0846  0.0215  0.2894
34976W        W78070  30.226   9.985  29.851  0.3231 -0.2924  0.0016
34977W        W78071  29.278   8.446  31.113 -0.3112 -0.1299  0.2329
34978W        W78072  30.511   9.840  30.890 -0.0561 -0.4270  0.0809
34979W        W78073  30.180   8.131  28.409  0.2719  0.0484 -0.4171
34980W        W78074  28.814   9.890  28.178  0.1876  0.2357 -0.0679
34981W        W78075  31.765   7.367  29.857 -0.2109 -0.2849 -0.3206
34982W        W78076  33.214   9.533  28.987  0.0441  0.0165  0.0776
34983W        W78077  32.033   9.718  29.778 -0.1775  0.2247  0.0406
34984W        W78078  29.342  10.548  31.507 -0.0437  0.1677  0.0904
34985W        W78079  30.326   6.839  30.868 -0.0804 -0.0318  0.1485
34986W        W78080  33.327  11.199  28.275  0.2785 -0.2228  0.2074
34987W        W78081  32.743   9.311  31.012  0.0566  0.2800  0.0972
34988W        W78082  30.516  10.348  28.185  0.0843 -0.0564  0.2509
34989W        W78083  28.974   9.377  29.582 -0.1321 -0.1290 -0.1583
34990W        W78084  31.308   9.045  29.990 -0.1195 -0.0804 -0.0926
34991W        W78085  31.185   7.347  29.257  0.1205 -0.1604 -0.0351
34992W        W78086  29.674  10.959  27.848 -0.1177  0.0838 -0.3817
34993W        W78087  28.962  10.386  28.154  0.0349 -0.1440  0.1024
34994W        W78088  30.432   9.541  28.971 -0.0254 -0.1793 -0.1233
34995W        W78089  32.307   7.741  28.117  0.3109  0.0277  0.1323
34996W        W78090  30.254   9.831  29.393  0.2220 -0.1928  0.2988
34997W        W78091  30.072   8.151  29.770 -0.2840 -0.2575 -0.0692
34998W        W78092  33.533   8.713  31.312  0.0829 -0.3101 -0.0120
34999W        W78093  32.681   9.366  29.105  0.0725  0.2535 -0.1563
35000W        W78094  30.841   8.319  31.144 -0.1225 -0.0795  0.3140
35001W        W78095  29.992   7.571  31.028  0.0602 -0.0986 -0.2126
35002W        W78096  33.462  11.379  29.492 -0.0322  0.1467 -0.0549
35003W        W78097  29.201   8.538  29.715 -0.1473  0.0478 -0.0636
35004W        W78098  31.552  11.743  31.565 -0.2174  0.2127 -0.1843
35005W        W78099  30.118  10.872  30.435  0.0942 -0.0884  0.0323
35006W        W78100  31.405   6.010  28.893 -0.0807  0.1647 -0.1584
35007W        W78101  30.384   7.383  28.553 -0.1096  0.2619 -0.1743
35008W        W78102  29.307   9.239  30.658 -0.0435 -0.0585  0.1312
35009W        W78103  33.465   9.358  30.489  0.1428 -0.0156  0.3700
35010W        W78104  30.166   9.075  28.836  0.1893 -0.0447 -0.3041
35011W        W78105  31.724   9.415  30.802 -0.0465 -0.0360  0.0337
35012W        W78106  28.797   9.837  29.475 -0.2839  0.0767 -0.0663
35013W        W78107  33.654   9.738  28.826  0.0712 -0.2181 -0.0499
35014W        W78108  31.622   9.292  26.542  0.1405 -0.0174  0.1067
35015W        W78109  30.269   9.932  28.251  0.1468  0.2665  0.3593
35016W        W78110  29.973   7.508  31.684  0.2572 -0.0942  0.1650
35017W        W78111  32.640  10.276  29.549  0.2527 -0.0536  0.0533
35018W        W78112  32.077   7.425  27.569  0.2986 -0.0810  0.0193
35019W        W78113  31.592   6.374  30.203 -0.1849  0.1864 -0.2136
35020W        W78114  32.735   8.261  30.229 -0.2324 -0.0667  0.2069
35021W        W78115  29.481   9.715  30.373 -0.0972  0.1270 -0.4177
35022W        W78116  29.922   9.601  30.129 -0.0927 -0.1343 -0.2055
35023W        W78117  33.170  11.248  31.627  0.2103 -0.1535  0.0892
35024W        W78118  33.064   8.792  25.935 -0.1092  0.2065 -0.0065
35025W        W78119  32.974   9.583  30.068 -0.2704  0.2119 -0.2104
35026W        W78120  32.861   8.435  29.381  0.1387  0.1583 -0.0368
35027W        W78121  32.667   8.804  27.915  0.0184 -0.0383  0.1941
35028W        W78122  30.708   7.506  29.800 -0.2118 -0.3788 -0.0299
35029W        W78123  32.560   9.449   0.703  0.0143  0.0355  0.3380
35030W        W78124  31.218   7.383  28.502 -0.0079  0.0981  0.0106
35031W        W78125  30.307   7.789  30.717 -0.2801  0.2214  0.0173
35032W        W78126  31.319  10.907  29.036 -0.4447 -0.2462  0.3815
35033W        W78127  30.761   9.822  31.468  0.0915 -0.0304  0.0680
35034W        W78128  30.783   7.379  28.845  0.0277  0.0731 -0.1535
35035W        W78129  29.595   8.369  28.527  0.0599  0.0637  0.2501
35036W        W78130  30.867  11.977  29.977 -0.1998  0.0752 -0.1219
35037W        W78131  29.760   8.648  26.117 -0.2571 -0.3649 -0.0263
35038W        W78132  31.198  10.154  29.160 -0.1143  0.0763  0.0051
35039W        W78133  30.606  10.261  29.644  0.0980  0.2227  0.1621
35040W        W78134  34.054   9.180  30.562 -0.0470  0.0363  0.1316
35041W        W78135  30.311   6.231  28.154 -0.2303 -0.0960  0.4353
35042W        W78136  32.432   7.305  30.817 -0.1650 -0.0682  0.1071
35043W        W78137  29.674   9.937  27.593  0.0180  0.2751 -0.0959
35044W        W78138  31.503   7.786  29.372 -0.2477 -0.0634 -0.3879
35045W        W78139  30.243  10.667  31.258 -0.0062 -0.0816 -0.0595
35046W        W78140  28.738   9.778  30.047 -0.0859  0.0026  0.0343
35047W        W78141  30.631  11.424  30.351  0.0727  0.1724  0.1113
35048W        W78142  31.720   6.062  29.846 -0.0831 -0.1199 -0.4543
35049W        W78143  33.677   9.114  29.645  0.0551  0.4585  0.2267
35050W        W78144  30.438  10.059  30.360 -0.2203  0.0280  0.0856
35051W        W78145  32.708   8.164  31.401 -0.4465  0.0826 -0.0279
35052W        W78146  30.991   9.381  31.835  0.1429 -0.4286 -0.1770
35053W        W78147  31.437   8.547  29.972 -0.1261  0.0595  0.1312
35054W        W78148  32.641   8.718  30.366 -0.0847  0.2136  0.4364
35055W        W78149  32.452   9.845  29.231 -0.0693  0.2704 -0.1820
35056W        W78150  30.412   8.061  29.312  0.2370  0.1395  0.2567
35057W        W78151  28.767   8.457  31.072  0.0838  0.4606 -0.2735
35058W        W78152  31.087   8.219  30.249  0.0560 -0.0935 -0.0107
35059W        W78153  32.429   8.818  29.803  0.2256  0.0135  0.0902
35060W        W78154  31.288   9.995  28.592  0.0179 -0.0609 -0.0404
35061W        W78155  31.300   9.303  27.667  0.0508  0.0114 -0.0584
35062W        W78156  29.345  11.685  29.747 -0.0561  0.3275 -0.1849
35063W        W78157  29.499   8.810  30.820  0.3290  0.2125  0.1770
35064W        W78158  31.870   9.386  26.985  0.1043 -0.2077 -0.2344
35065W        W78159  32.884  10.458  28.046 -0.1485  0.0720  0.0260
35066W        W78160  32.595   9.826  29.781 -0.0778  0.0849  0.0845
35067W        W78161  32.392  10.458  29.914 -0.1189  0.0673  0.0185
35068W        W78162  31.003   8.142  27.704  0.1019  0.1696  0.0445
35069W        W78163  30.410  10.700  28.441  0.1582  0.1626 -0.0704
35070W        W78164  31.954  10.643  28.595  0.0583 -0.0125 -0.0486
35071W        W78165  31.512  10.602  30.001 -0.0269  0.1015  0.0258
35072W        W78166  29.322  10.918  27.493 -0.0614 -0.1388  0.0117
35073W        W78167  32.875   9.002   0.950 -0.1750  0.0781  0.0368
35074W        W78168  32.097   8.191  28.145 -0.1142 -0.1617  0.3188
35075W        W78169  32.237   9.755  28.720 -0.1970  0.0089 -0.0886
35076W        W78170  33.365   8.055  29.506  0.1102  0.1471 -0.2090
35077W        W78171  30.599  11.113  31.324 -0.2292  0.1270 -0.0363
35078W        W78172  30.813   7.947  28.982  0.0606  0.2379  0.0962
35079W        W78173  31.524   7.486  28.918 -0.5050  0.0643 -0.0092
35080W        W78174  31.143   9.386  30.989 -0.0569 -0.1074 -0.1742
35081W        W78175  33.073   7.886   0.275  0.0737  0.1133  0.1931
35082W        W78176  29.842  10.504  31.024 -0.2395  0.0633 -0.2091
35083W        W78177  33.178  10.414  29.379  0.1302  0.1154  0.1211
35084W        W78178  28.964   9.007  26.993 -0.2084 -0.1466 -0.1592
35085W        W78179  31.239   8.860  29.107  0.2133  0.1965 -0.2524
35086W        W78180  34.416   7.820  31.949  0.2612  0.3865 -0.1658
35087W        W78181  31.365   9.083  26.036 -0.2050 -0.0150  0.1674
35088W        W78182  31.448   8.390  28.694  0.0158 -0.0929 -0.0861
35089W        W78183  30.950   9.952  29.539 -0.1247  0.1813  0.0471
35090W        W78184  30.733  10.391  30.984  0.1977  0.0738  0.0046
35091W        W78185  31.071  11.604  30.389 -0.2908  0.1212 -0.0041
35092W        W78186  27.883   7.689  27.285 -0.0281 -0.2757  0.2301
35093W        W78187  34.614   7.329  29.972  0.2914  0.1300  0.0701
35094W        W78188  30.754   8.046  29.748  0.0657 -0.2087  0.0087
35095W        W78189  33.702   8.365  30.792 -0.1890 -0.2532  0.0039
35096W        W78190  28.633   8.530  29.510 -0.0507 -0.0210  0.3745
35097W        W78191  31.775   8.180  26.385  0.3429 -0.1486 -0.1461
35098W        W78192  31.678   9.804  31.245  0.0860 -0.3019  0.2765
35099W        W78193  30.105   9.433  29.676  0.1903 -0.0377  0.0539
35100W        W78194  31.684   8.902  27.067 -0.3577  0.1054  0.0201
35101W        W78195  33.230  10.053   0.214  0.1169  0.0101  0.1561
35102W        W78196  31.221   8.270  26.404  0.0547  0.0699  0.0798
35103W        W78197  32.119   8.533  31.014  0.2016  0.1252 -0.0112
35104W        W78198  31.109   7.806  28.106  0.2456  0.0538  0.0989
35105W        W78199  33.331   8.164  27.639 -0.0682  0.0988  0.0260
35106W        W78200  29.611   9.152  28.939 -0.3280  0.1871 -0.3725
35107W        W78201  30.483   8.246  30.228 -0.0988  0.1037  0.1039
35108W        W78202  32.230   9.769   0.437 -0.0599 -0.1740 -0.0998
35109W        W78203  29.554   8.190  27.689 -0.2302 -0.1463  0.0889
35110W        W78204  33.746   9.233  27.288 -0.0610 -0.2323  0.1350
35111W        W78205  32.904   8.662  29.953  0.1034  0.2926  0.3295
35112W        W78206  32.081   9.819  26.720  0.1814 -0.1013  0.1558
35113W        W78207  32.254   9.975  30.114  0.0719  0.1796 -0.2934
35114W        W78208  33.716  11.394  30.177  0.1380  0.0158  0.1797
35115W        W78209  30.280   7.619  29.494 -0.1897  0.3580 -0.0296
35116W        W78210  31.478   9.900  30.774 -0.1815 -0.0377 -0.2261
35117W        W78211  32.942  10.472  29.999 -0.0613  0.1244  0.3695
35118W        W78212  30.841   8.748  28.148  0.0116 -0.1532 -0.0249
35119W        W78213  31.282   7.865  28.722  0.1677  0.0889 -0.0260
35120W        W78214  27.670  11.596  26.837 -0.2671 -0.1164 -0.0016
35121W        W78215  32.441   7.812  30.515 -0.0198 -0.2505  0.1811
35122W        W78216  32.499   8.305  29.732 -0.6076 -0.1224 -0.2637
35123W        W78217  31.765   8.938  27.859 -0.0529  0.1104 -0.1107
35124W        W78218  32.904   7.172  31.519  0.1286 -0.2770  0.2110
35125W        W78219  30.928  10.321  30.117 -0.0773  0.2838 -0.0934
35126W        W78220  30.104  11.378  30.445 -0.2041  0.1604 -0.0018
35127W        W78221  30.201   8.597  28.545  0.0594 -0.3524  0.1204
35128W        W78222  31.028   9.976  31.103 -0.3328  0.2468  0.0409
35129W        W78223  30.744   9.081  29.021  0.2077  0.0811 -0.2337
35130W        W78224  31.627  10.882  30.439 -0.0596 -0.0249  0.1773
35131W        W78225  33.227   9.993  28.735  0.0298 -0.0180  0.1987
35132W        W78226  32.009   9.328  28.786  0.2348  0.0427  0.0287
35133W        W78227  32.289  10.380  30.584 -0.1096 -0.1621 -0.0809
35134W        W78228  29.441   7.803  30.402  0.1396 -0.2792  0.1502
35135W        W78229  33.589   7.135  30.026 -0.3260  0.1927  0.0830
35136W        W78230  31.777   7.971  28.786 -0.0648 -0.2836 -0.4332
35137W        W78231  29.084   9.351  30.072 -0.3074  0.1344  0.0321
35138W        W78232  28.762  10.132  27.742 -0.0614  0.0905  0.1101
35139W        W78233  30.633   8.336  28.461  0.0623  0.0956  0.1522
35140W        W78234  29.403   9.540  28.256 -0.0943 -0.1336  0.2485
35141W        W78235  30.804   8.025  30.625 -0.0770 -0.0740 -0.2573
35142W        W78236  29.826   9.302  31.152  0.0481  0.1611  0.1727
35143W        W78237  30.078  10.348  28.487  0.1714  0.2845 -0.0670
35144W        W78238  30.379   7.839  29.980  0.2185 -0.0498  0.0035
35145W        W78239  32.739   9.798  28.818 -0.0250  0.1786  0.3208
35146W        W78240  29.509   7.315  30.224  0.1343 -0.0492 -0.0845
35147W        W78241  29.490   8.237  29.496  0.1857  0.0359  0.1258
35148W        W78242  33.179   9.082  29.304 -0.0012 -0.0904  0.2478
35149W        W78243  32.187  11.095  29.589 -0.1422 -0.1083 -0.3483
35150W        W78244  30.946   7.763  29.435 -0.1456  0.0496  0.4015
35151W        W78245  33.737  10.731   0.526  0.0674 -0.0994  0.1993
35152W        W78246  30.501   8.538  27.844 -0.3739 -0.2216  0.3097
35153W        W78247  31.996  10.323   0.538  0.0612 -0.2409  0.0321
35154W        W78248  30.224  10.269  30.780  0.0789  0.0492 -0.1328
35155W        W78249  29.740   6.425  27.186  0.0051 -0.0952 -0.2184
35156W        W78250  31.454   8.331  29.292 -0.0532  0.0425 -0.1585
35157W        W78251  32.023  10.120  30.853 -0.0579 -0.0589 -0.0874
35158W        W78252  31.041  10.186  28.040 -0.0036  0.1586 -0.0579
35159W        W78253  31.578  10.376  31.140 -0.0571 -0.2042 -0.1864
35160W        W78254  31.336  10.630   0.342  0.0834 -0.1305 -0.1541
35161W        W78255  29.841   7.891  29.352  0.2178  0.0541 -0.1052
35162W        W78256  32.347  10.199  28.561 -0.0804  0.2013  0.0471
35163W        W78257  28.984   9.651  30.556 -0.0761  0.0149 -0.0267
35164W        W78258  33.735   8.764  29.262  0.0983 -0.0048  0.1313
35165W        W78259  33.630   8.198  31.233  0.0463 -0.0583 -0.0740
35166W        W78260  30.769   9.866  28.343 -0.0604 -0.1817  0.0309
35167W        W78261  28.630  10.386  31.750  0.0789 -0.2479  0.2645
35168W        W78262  30.068   9.792  30.590  0.0058 -0.3309 -0.1922
35169W        W78263  31.944   9.000  30.683  0.0816 -0.3061  0.0514
35170W        W78264  30.844   6.922  29.043  0.2443 -0.0264  0.1837
35171W        W78265  32.161   8.856  28.427 -0.0994  0.1041 -0.2503
35172W        W78266  31.490  11.078  29.963 -0.2120 -0.1049 -0.0272
35173W        W78267  29.449   8.175  28.972 -0.0114 -0.2136 -0.1909
35174W        W78268  32.262   9.099  27.881  0.1599  0.1182  0.0332
35175W        W78269  32.327   9.360  29.740 -0.2198 -0.0037  0.0539
35176W        W78270  31.776  10.584  30.753 -0.1269  0.0922 -0.0254
35177W        W78271  32.392  10.434   0.928 -0.0054 -0.0519  0.1866
35178W        W78272  30.643   8.752  29.412 -0.1910 -0.0010 -0.3181
35179W        W78273  33.474   9.184  28.358 -0.0486 -0.1652  0.1957
35180W        W78274  33.338  10.967  29.913 -0.0962  0.4497  0.0133
35181W        W78275  32.054  11.583  31.836  0.0949  0.1737  0.2000
35182W        W78276  31.499  11.322  30.682  0.0763  0.1397 -0.2023
35183W        W78277  33.192   9.124  29.794  0.2681  0.1729  0.1644
35184W        W78278  30.266   6.324  30.824  0.3297  0.0200 -0.2977
35185W        W78279  31.666   8.547  28.214  0.0014 -0.1396  0.1299
35186W        W78280  30.021  10.231  28.982  0.3066  0.0289 -0.1001
35187W        W78281  33.454   8.312  29.927  0.3241  0.0085  0.0262
35188W        W78282  29.956   9.641  29.059 -0.0283 -0.0831  0.0598
35189W        W78283  32.565   7.430  27.754  0.1233  0.1049 -0.0391
35190W        W78284  30.566  11.893  29.492  0.2917 -0.2478  0.0446
35191W        W78285  31.311  10.144  29.801  0.0672 -0.0662  0.0921
35192W        W78286  32.981   8.927  30.727 -0.0506 -0.2974  0.1731
35193W        W78287  31.111   9.984  31.768 -0.1493  0.0160 -0.0734
35194W        W78288  28.944   8.095  30.730  0.0803  0.1515  0.1307
35195W        W78289  29.669  10.157  31.643 -0.1171 -0.1623 -0.0450
35196W        W78290  30.490  10.723   0.773 -0.2252  0.2653 -0.0506
35197W        W78291  29.240  10.547  30.912  0.0397  0.2240  0.1662
35198W        W78292  32.293   9.294   0.243 -0.1278  0.0851  0.2796
35199W        W78293  30.908   9.631  30.582  0.2037  0.0195  0.0931
35200W        W78294  32.091   8.594  30.463  0.0328 -0.1456  0.3307
35201W        W78295  32.518  10.466  31.481 -0.0432  0.1536 -0.2184
35202W        W78296  30.170  10.555   0.281  0.2477 -0.1757 -0.0701
35203W        W78297  29.432   7.081  31.808 -0.1508  0.1626 -0.1679
35204W        W78298  31.720   8.191  31.149 -0.0757 -0.0214 -0.4213
35205W        W78299  31.015   9.509  29.872 -0.1578 -0.0732  0.1177
35206W        W78300  32.983   9.944  31.746 -0.0262  0.0257 -0.0806
35207W        W78301  29.187  11.062  31.538 -0.3787  0.0368 -0.2108
35208W        W78302  30.232   8.926  31.843 -0.2394  0.0708 -0.2886
35209W        W78303  30.148   9.783   0.528 -0.1806 -0.0506  0.2918
35210W        W78304  29.579   7.471  31.287 -0.1347  0.1104 -0.1303
35211W        W78305  29.932   9.815  31.111 -0.0113 -0.1084  0.0367
35212W        W78306  29.325   6.676  28.968  0.1802  0.1101  0.0164
35213W        W78307  28.235   9.836  30.638  0.0439 -0.2241  0.0736
35214W        W78308  31.953   7.136  30.788 -0.1469 -0.3861 -0.1256
35215W        W78309  31.118   8.590  30.896 -0.1804 -0.0234  0.1235
35216W        W78310  30.148   9.144  30.290  0.0036 -0.0671  0.0609
35217W        W78311  30.022   8.451   0.074  0.1632  0.3702 -0.3820
35218W        W78312  30.029  10.937  29.727  0.3464  0.1143 -0.1244
35219W        W78313  27.927  11.430  30.819 -0.2169  0.1457  0.0499
35220W        W78314  29.728  10.120  30.710  0.0272 -0.2852 -0.1191
35221W        W78315  30.634  10.238  31.770  0.4437 -0.0178 -0.5139
35222W        W78316  29.240  11.625  31.556 -0.2753  0.0313  0.0090
35223W        W78317  30.184   8.143  31.126  0.5736 -0.0267 -0.4035
35224W        W78318  32.406  10.130   1.324  0.1220 -0.0191 -0.1278
35225W        W78319  32.149   7.822  31.812  0.2358  0.0951  0.0073
35226W        W78320  27.099   7.517  31.636 -0.0303  0.1802  0.1947
35227W        W78321  28.254  11.231   0.367 -0.1468 -0.0004  0.1449
35228W        W78322  29.388  11.013  31.975 -0.0939  0.0808  0.1504
35229W        W78323  31.213  10.438  30.804  0.0373  0.0730  0.0033
35230W        W78324  31.653   8.809  30.331 -0.1930  0.2667  0.1772
35231W        W78325  31.606   9.042  31.183 -0.1016 -0.0452  0.0487
35232W        W78326  32.383   8.836   0.329  0.0408  0.1054  0.0426
35233W        W78327  30.470   9.419  31.690  0.1674 -0.0990 -0.0023
35234W        W78328  28.919   7.964  31.870 -0.3826 -0.1550  0.0817
35235W        W78329  30.324  11.592   0.699 -0.2389 -0.1233 -0.2447
35236W        W78330  29.004   6.928  30.999  0.0846 -0.3580 -0.1347
35237W        W78331  29.792   9.346  30.662  0.0211 -0.1649  0.0335
35238W        W78332  29.615   9.214  30.187  0.1549  0.1376  0.0580
35239W        W78333  30.368   9.375  31.112  0.1749  0.1305  0.2707
35240W        W78334  30.970  10.893   0.605  0.1099 -0.0298  0.2427
35241W        W78335  28.091   9.576  31.780  0.2303  0.3513 -0.1826
35242W        W78336  30.381  11.005   0.327 -0.0740 -0.0938 -0.0623
35243W        W78337  31.345   8.132  30.697 -0.3006  0.1062  0.0239
35244W        W78338  29.873   8.032  30.775 -0.0159  0.0303 -0.0361
35245W        W78339  30.703  10.647  31.489  0.3906 -0.4709  0.0895
35246W        W78340  29.832   7.979  31.925 -0.0122 -0.4784  0.2256
35247W        W78341  30.633   8.967  31.126 -0.1669  0.0393 -0.0230
35248W        W78342  33.307   8.794   0.621 -0.1391 -0.3409 -0.2477
35249W        W78343  30.320  11.503   0.145  0.1225 -0.0787 -0.0596
35250W        W78344  29.879  11.874  29.618  0.2324 -0.0830 -0.0949
35251W        W78345  27.647   9.235   1.231 -0.0570  0.0523  0.1842
35252W        W78346  28.662  10.013  30.813 -0.3022 -0.2641 -0.1838
35253W        W78347  28.988  10.162  31.105 -0.1226 -0.1239  0.0433
35254W        W78348  29.493  10.920  31.156  0.0566  0.0430  0.4111
35255W        W78349  28.215   9.109  31.131 -0.3722 -0.2054  0.0481
35256W        W78350  31.350   7.929   0.299  0.0100 -0.0179  0.0578
35257W        W78351  32.144  11.183   1.584 -0.0974  0.6187  0.0613
35258W        W78352  32.398   8.535  31.760 -0.2179  0.3281  0.0750
35259W        W78353  29.454  13.472  18.187 -0.2621  0.1320 -0.2630
35260W        W78354  30.476  12.665  18.453 -0.0876 -0.0020  0.1489
35261W        W78355  31.650  11.703  15.829  0.0226 -0.1246 -0.2700
35262W        W78356  34.194  11.518  18.176  0.1180  0.1726 -0.2070
35263W        W78357  28.878  10.861  17.603 -0.2288  0.0404 -0.1356
35264W        W78358  30.610  13.056  17.510  0.0619 -0.0459  0.0458
35265W        W78359  27.915  10.546  19.144 -0.2965 -0.0035 -0.0574
35266W        W78360  33.015  13.634  19.003 -0.1633 -0.6510  0.1219
35267W        W78361  31.371  14.475  19.776  0.0098 -0.1194 -0.0716
35268W        W78362  30.423  13.025  16.745  0.0745 -0.1021 -0.4018
35269W        W78363  30.614  11.332  18.714 -0.3162 -0.0977 -0.2288
35270W        W78364  29.887  14.165  17.496 -0.1102  0.0239 -0.1314
35271W        W78365  30.101  10.671  17.387 -0.0522  0.2179  0.1320
35272W        W78366  28.335   9.773  18.714  0.0435 -0.3281  0.1725
35273W        W78367  32.283  12.646  18.872  0.0360  0.1081  0.1822
35274W        W78368  29.121  11.515  17.936  0.0336 -0.1532  0.1297
35275W        W78369  29.285  11.192  18.320  0.2142 -0.0469 -0.0928
35276W        W78370  30.721  10.912  17.915 -0.1934 -0.2136 -0.1974
35277W        W78371  32.007  12.350  18.498 -0.0222  0.1433 -0.1282
35278W        W78372  30.814  10.919  18.389  0.3853 -0.1791  0.5820
35279W        W78373  31.833  12.607  19.109 -0.0861 -0.3756  0.2526
35280W        W78374  29.060  13.246  18.425 -0.0066 -0.0021 -0.0542
35281W        W78375  28.881  11.353  16.830  0.1126  0.0400 -0.1276
35282W        W78376  27.969  12.999  17.878 -0.0639 -0.2132  0.1991
35283W        W78377  33.449  11.983  18.306  0.1680  0.0990 -0.0005
35284W        W78378  34.525  11.361  19.431 -0.1649 -0.0597  0.1532
35285W        W78379  31.649  11.648  17.677 -0.2738 -0.2176  0.0136
35286W        W78380  31.662  13.419  18.667  0.1139 -0.0951  0.1985
35287W        W78381  31.249  13.322  19.562 -0.0278 -0.0841 -0.1606
35288W        W78382  32.908  12.168  19.977 -0.0135  0.0702  0.2876
35289W        W78383  29.129  13.737  17.805  0.0568  0.0557 -0.0933
35290W        W78384  28.513  15.178  17.917  0.2128 -0.3873  0.0758
35291W        W78385  30.213  13.016  17.197 -0.2017 -0.1746  0.2391
35292W        W78386  32.895  13.126  17.092 -0.1342 -0.1759  0.1152
35293W        W78387  31.078  14.893  19.617  0.2323  0.0678  0.0592
35294W        W78388  30.717  14.084  19.675  0.3142  0.0815  0.0896
35295W        W78389  29.472  14.122  17.265 -0.1819  0.1737 -0.0220
35296W        W78390  30.860  15.112  19.196 -0.3695 -0.0315  0.3671
35297W        W78391  31.221  15.255  20.396  0.0219  0.1044  0.1686
35298W        W78392  31.024  12.449  18.665  0.0007  0.1578 -0.2287
35299W        W78393  30.409  13.149  18.524  0.3692  0.0697 -0.2110
35300W        W78394  29.944  14.218  17.020 -0.0794 -0.1263  0.0817
35301W        W78395  31.278  12.839  18.840  0.0777 -0.0752  0.0209
35302W        W78396  30.048  13.163  19.491 -0.4222 -0.1170  0.2542
35303W        W78397  27.660  14.130  19.433  0.3169  0.0532  0.0090
35304W        W78398  31.982  13.126  21.429  0.1963 -0.1011  0.0665
35305W        W78399  28.896  14.982  16.995  0.1487 -0.1399 -0.0079
35306W        W78400  31.340  12.605  16.454 -0.0071  0.0258  0.2860
35307W        W78401  29.447  10.581  16.934  0.2895 -0.2462  0.0656
35308W        W78402  31.601  10.605  16.826  0.0815 -0.0043  0.1929
35309W        W78403  31.185  10.816  18.049 -0.0687 -0.2441 -0.1377
35310W        W78404  30.227  14.802  18.068 -0.1911  0.0405 -0.1499
35311W        W78405  30.272  10.823  18.723  0.0004  0.0451  0.1116
35312W        W78406  31.441  13.373  20.050 -0.1034 -0.0728 -0.3728
35313W        W78407  31.503  11.846  17.275 -0.2207 -0.1833  0.2331
35314W        W78408  31.669  12.073  18.776 -0.2122  0.0515  0.2764
35315W        W78409  29.320  12.343  18.557  0.2111 -0.2629  0.0769
35316W        W78410  28.233  12.825  19.171 -0.0108 -0.0604 -0.0487
35317W        W78411  32.755  13.026  16.602 -0.1235  0.0912  0.1890
35318W        W78412  33.643  13.046  18.425 -0.1408  0.0590  0.0697
35319W        W78413  31.987  15.276  16.909 -0.0416  0.0261  0.1101
35320W        W78414  30.287  11.137  18.259  0.3549 -0.1443 -0.0117
35321W        W78415  28.522  12.650  19.878  0.1597 -0.0804  0.0110
35322W        W78416  29.137  11.993  19.402  0.1989 -0.2788  0.1765
35323W        W78417  30.177  11.129  17.045  0.0003  0.0161 -0.3199
35324W        W78418  33.483  12.988  18.907  0.1266  0.4102  0.1957
35325W        W78419  28.449  15.019  19.018 -0.0028  0.2189 -0.0704
35326W        W78420  33.143  11.889  18.731  0.0401  0.1110  0.2418
35327W        W78421  30.891  13.771  19.315  0.0521  0.1740  0.3178
35328W        W78422  32.534  13.414  18.122 -0.2012 -0.1157  0.2620
35329W        W78423  32.401  13.071  15.949  0.0265  0.0729 -0.1953
35330W        W78424  31.321  11.662  18.882  0.0621  0.1414  0.3152
35331W        W78425  31.454  12.583  18.496 -0.3423  0.1885  0.1434
35332W        W78426  30.843  13.860  17.987  0.2429  0.0436 -0.1239
35333W        W78427  31.144  12.932  18.187  0.3042  0.0199 -0.2545
35334W        W78428  33.635  12.274  19.886 -0.1811  0.1429  0.0932
35335W        W78429  32.354  12.734  16.955  0.0923 -0.0280  0.1545
35336W        W78430  29.263  13.649  18.602  0.0012  0.3156  0.2420
35337W        W78431  30.857  12.523  19.675 -0.4087 -0.1173  0.1345
35338W        W78432  30.935  13.944  20.503 -0.0825 -0.0317 -0.0925
35339W        W78433  30.383  12.618  17.474 -0.0587 -0.0491  0.1242
35340W        W78434  29.839  13.343  17.916  0.0572 -0.0069  0.0522
35341W        W78435  29.761  13.189  17.362  0.0792  0.1463 -0.1819
35342W        W78436  28.608  11.509  18.316  0.1347  0.4104  0.0792
35343W        W78437  30.675  12.889  18.059  0.0563 -0.2084  0.2623
35344W        W78438  31.897  11.062  17.066  0.3217  0.2449 -0.1127
35345W        W78439  29.257  11.034  19.462 -0.0674 -0.2244 -0.2313
35346W        W78440  34.347  10.972  19.651  0.0792  0.0496  0.2074
35347W        W78441  29.623  12.222  18.139  0.1421  0.1924  0.2397
35348W        W78442  33.454  13.106  17.084 -0.1456  0.0859 -0.1422
35349W        W78443  32.793  11.864  17.675  0.1632 -0.1412  0.1464
35350W        W78444  31.768  12.187  17.669  0.0073 -0.1658 -0.3025
35351W        W78445  28.904  12.174  18.818  0.3750  0.0648  0.1640
35352W        W78446  27.321  11.635  18.469  0.1647  0.0007 -0.3098
35353W        W78447  30.174  11.886  20.060  0.0506 -0.0718 -0.0102
35354W        W78448  28.403  11.867  17.404 -0.2149 -0.0276  0.2092
35355W        W78449  31.321  14.109  20.899  0.1243  0.2882 -0.0751
35356W        W78450  30.293  10.644  16.439  0.3124  0.1008  0.1523
35357W        W78451  32.428  11.067  17.219 -0.1350  0.1437  0.0363
35358W        W78452  30.721  12.226  17.600  0.0895 -0.0209 -0.0202
35359W        W78453  29.925  13.336  18.421 -0.2881  0.2156  0.1024
35360W        W78454  31.950   9.962  20.739 -0.1171 -0.1032  0.0256
35361W        W78455  30.685  14.174  17.621 -0.2511 -0.2889 -0.3696
35362W        W78456  32.257  15.188  18.496  0.2034 -0.2907 -0.0817
35363W        W78457  31.649  13.379  17.071 -0.1060 -0.1221 -0.1836
35364W        W78458  29.687  11.821  19.686 -0.0622 -0.1872  0.2765
35365W        W78459  29.032  11.939  17.600 -0.0925  0.2813  0.0283
35366W        W78460  29.566  15.432  17.178 -0.1888  0.2205  0.0962
35367W        W78461  31.226  14.550  18.552  0.0296  0.0663  0.2180
35368W        W78462  30.170  11.394  16.298  0.3495 -0.0554  0.1269
35369W        W78463  32.288  14.711  19.376  0.4377 -0.0800  0.2815
35370W        W78464  29.818  12.955  16.833 -0.2121  0.0592  0.1173
35371W        W78465  30.020  13.247  19.032 -0.0173  0.1285 -0.1920
35372W        W78466  32.812  11.817  19.630  0.1985 -0.0565 -0.2098
35373W        W78467  31.587  12.219  18.188  0.0646 -0.1881 -0.1947
35374W        W78468  32.003  11.975  17.101  0.0294  0.1018  0.5362
35375W        W78469  29.380  10.536  17.400  0.1685 -0.1999  0.1120
35376W        W78470  31.134  14.361  17.385  0.0460  0.1282 -0.0563
35377W        W78471  29.578  14.189  16.740  0.2162 -0.0535 -0.0486
35378W        W78472  28.848  11.740  19.692  0.0187  0.1608  0.0244
35379W        W78473  32.786  12.574  20.230 -0.1734 -0.2509  0.4290
35380W        W78474  31.368  11.289  18.110  0.1404  0.0618 -0.3323
35381W        W78475  27.231  13.244  18.999  0.0589 -0.0658 -0.1455
35382W        W78476  31.121  14.089  20.016  0.0240 -0.1024 -0.1134
35383W        W78477  29.187  11.344  16.468 -0.0292  0.1369  0.3683
35384W        W78478  30.888  14.504  19.862 -0.0411  0.0493  0.0347
35385W        W78479  30.726  11.892  18.008  0.1976 -0.3235 -0.0920
35386W        W78480  32.526  10.420  18.388 -0.0832  0.1711  0.0362
35387W        W78481  31.338  14.896  20.809 -0.0393 -0.1112 -0.0526
35388W        W78482  31.537  13.167  16.589  0.1978  0.1802 -0.0786
35389W        W78483  31.701  11.448  16.427 -0.1140 -0.2590  0.0223
35390W        W78484  29.006  10.418  17.789  0.0597  0.5243 -0.0139
35391W        W78485  29.195  12.967  19.363 -0.0985  0.0816  0.2018
35392W        W78486  31.129  13.109  17.189  0.0809  0.2958  0.1748
35393W        W78487  31.758  13.151  19.039  0.2526 -0.1651  0.4291
35394W        W78488  29.368  10.101  17.130 -0.2068  0.1031  0.4932
35395W        W78489  32.467  13.950  16.838  0.0279  0.1653  0.1884
35396W        W78490  28.767  12.012  18.324  0.0791 -0.0432 -0.2635
35397W        W78491  32.551  13.322  19.789 -0.2016 -0.0702 -0.0393
35398W        W78492  31.866  14.768  19.572 -0.1790 -0.2853 -0.1871
35399W        W78493  31.456  11.754  19.358 -0.1614  0.1926 -0.2802
35400W        W78494  28.790  12.294  17.362  0.3884 -0.4114  0.1108
35401W        W78495  30.429  10.043  18.247  0.1044 -0.0785 -0.0189
35402W        W78496  27.467  13.741  16.354 -0.0058 -0.3317  0.2437
35403W        W78497  32.381  11.564  18.074 -0.1863 -0.0056 -0.2260
35404W        W78498  32.013  11.484  17.334 -0.3171 -0.0906  0.1877
35405W        W78499  30.937  11.476  19.119 -0.0229 -0.0681  0.1367
35406W        W78500  32.008  14.335  19.830 -0.1906 -0.0367  0.0959
35407W        W78501  31.935  13.013  16.852  0.0474  0.2007  0.1960
35408W        W78502  29.223  11.759  18.385 -0.0764 -0.0999  0.0902
35409W        W78503  29.771  11.858  17.011  0.0826 -0.0962  0.0625
35410W        W78504  30.979  13.136  21.148 -0.0425  0.1029  0.1248
35411W        W78505  30.235  13.614  18.730  0.1137 -0.1745  0.1454
35412W        W78506  30.407  13.663  19.685  0.2133  0.1156  0.1643
35413W        W78507  32.288  13.155  18.865 -0.0851 -0.1857 -0.3522
35414W        W78508  31.761  11.571  16.907  0.0622 -0.2477  0.0642
35415W        W78509  30.966  11.478  19.625  0.1309  0.2892 -0.1041
35416W        W78510  30.527  10.362  17.845 -0.1228  0.0707 -0.2256
35417W        W78511  30.625  13.369  17.105 -0.0598  0.0361  0.1188
35418W        W78512  30.189  13.473  16.980  0.3762 -0.0400 -0.0132
35419W        W78513  28.919  11.062  18.578 -0.0855  0.0698 -0.2087
35420W        W78514  32.617  13.416  19.188  0.2177  0.0042  0.2382
35421W        W78515  29.352  12.831  16.604 -0.3587 -0.2572  0.1611
35422W        W78516  32.196  12.983  19.411  0.5008 -0.1874 -0.1251
35423W        W78517  29.738  13.665  17.299 -0.0527 -0.0050  0.1776
35424W        W78518  32.688  10.002  18.868  0.1385 -0.0201  0.0789
35425W        W78519  29.212  13.746  19.612  0.1269 -0.0584  0.0273
35426W        W78520  29.429  13.028  17.987 -0.0824  0.0186  0.4679
35427W        W78521  28.571  11.177  17.266  0.0414 -0.1516  0.1670
35428W        W78522  32.096  11.076  19.382  0.1330 -0.0189  0.0420
35429W        W78523  32.302  13.826  17.846 -0.1674 -0.0042  0.1449
35430W        W78524  28.607  11.183  18.915 -0.0895  0.1734 -0.2902
35431W        W78525  30.575  10.956  19.047 -0.1748  0.0288 -0.0067
35432W        W78526  28.943  15.542  18.400 -0.1337  0.1734 -0.2091
35433W        W78527  31.688  13.595  19.413  0.2311  0.1422 -0.0995
35434W        W78528  30.522  11.418  17.151 -0.0265  0.0724 -0.2363
35435W        W78529  32.923  13.142  19.470 -0.0794  0.0585  0.0946
35436W        W78530  31.238  14.487  20.509 -0.0718 -0.0896  0.3014
35437W        W78531  28.864  11.872  17.078  0.2214  0.1073  0.2785
35438W        W78532  31.430  13.868  20.390 -0.0746  0.0611 -0.2350
35439W        W78533  30.481  12.187  18.342 -0.2726  0.2349  0.2479
35440W        W78534  29.849  13.876  18.306 -0.0117  0.3200  0.1544
35441W        W78535  31.024  13.176  17.792  0.0102  0.1280  0.0095
35442W        W78536  29.112  12.605  18.153 -0.0292 -0.3225 -0.0223
35443W        W78537  29.412  13.372  17.603  0.1244 -0.3080 -0.2134
35444W        W78538  30.822  11.948  19.589 -0.0360  0.0740 -0.0097
35445W        W78539  33.878  11.766  18.425 -0.1544 -0.0613  0.1611
35446W        W78540  29.300  11.535  19.454 -0.4432 -0.2375  0.0616
35447W        W78541  29.781  12.705  17.834 -0.3779  0.0250 -0.0608
35448W        W78542  30.627  11.766  17.499 -0.4239  0.1123  0.2869
35449W        W78543  31.873  14.899  17.914  0.0893 -0.3367  0.1429
35450W        W78544  31.735  12.545  19.711 -0.2889  0.1654  0.1271
35451W        W78545  30.898  14.263  18.290  0.3251 -0.0417  0.0297
35452W        W78546  30.809  12.913  18.749 -0.4046 -0.0727  0.2155
35453W        W78547  32.563  14.763  17.608 -0.1953 -0.0908  0.0136
35454W        W78548  32.394  12.334  19.967  0.2085  0.2534  0.0928
35455W        W78549  30.435  13.796  18.240  0.1317  0.1317 -0.1139
35456W        W78550  28.422  12.159  19.022  0.0128 -0.2588  0.1336
35457W        W78551  29.761  13.659  18.765 -0.0998 -0.1007 -0.2175
35458W        W78552  30.133  11.956  18.789  0.0506  0.0798  0.1143
35459W        W78553  29.346  14.507  18.187  0.2603  0.0074 -0.1953
35460W        W78554  29.281  11.609  16.981 -0.1234  0.1159 -0.3136
35461W        W78555  29.174  13.185  18.933  0.0127 -0.1336  0.0456
35462W        W78556  30.955  11.154  17.541  0.1725 -0.1822 -0.2128
35463W        W78557  32.330  12.740  16.472 -0.2288 -0.3912  0.2121
35464W        W78558  29.993  12.467  18.418  0.1065  0.1567  0.0867
35465W        W78559  33.803  11.633  20.366  0.5548  0.3701 -0.1528
35466W        W78560  32.615  12.342  17.633  0.0124 -0.1824 -0.0381
35467W        W78561  30.501  11.609  19.767  0.1302  0.1623 -0.0618
35468W        W78562  29.398  10.911  18.993 -0.0167  0.0350 -0.1029
35469W        W78563  31.058  12.279  18.128  0.0034  0.0300  0.1476
35470W        W78564  27.444  13.111  18.511  0.1205  0.0320  0.0649
35471W        W78565  31.656  13.904  19.940 -0.1479 -0.2380  0.3463
35472W        W78566  30.028  12.819  18.728 -0.0260 -0.1036 -0.1596
35473W        W78567  30.349  10.599  18.281  0.0085  0.1000  0.3686
35474W        W78568  30.055  11.956  18.152 -0.2041 -0.1292 -0.0341
35475W        W78569  30.482  12.362  19.405 -0.1375 -0.2849  0.0350
35476W        W78570  32.791  12.523  18.858  0.1071  0.0967  0.0543
35477W        W78571  29.833  14.321  17.966 -0.0766  0.0636  0.0377
35478W        W78572  31.149  10.638  17.535  0.0823 -0.1634  0.2165
35479W        W78573  29.941  13.993  19.088  0.0003  0.1987  0.0376
35480W        W78574  31.468  11.129  16.804  0.0256 -0.0801  0.0888
35481W        W78575  30.354  11.169  17.523 -0.0323 -0.1919  0.2873
35482W        W78576  29.384  11.945  18.965 -0.2088 -0.1059 -0.1462
35483W        W78577  29.744  12.161  20.211  0.1573 -0.2907  0.2572
35484W        W78578  31.629  13.104  18.302 -0.0402 -0.0664  0.0298
35485W        W78579  31.128  11.653  17.543 -0.2354  0.1102 -0.1369
35486W        W78580  29.963  12.709  19.341  0.1618  0.2208  0.0593
35487W        W78581  31.970  14.201  19.274 -0.0795 -0.0638 -0.2501
35488W        W78582  29.600  12.825  18.972 -0.0227 -0.4025  0.0666
35489W        W78583  29.811  11.072  20.377 -0.0292  0.0007  0.1703
35490W        W78584  33.079  13.609  19.559 -0.1701 -0.1839  0.0840
35491W        W78585  33.447  12.003  16.411 -0.1459  0.0299 -0.1934
35492W        W78586  34.083  12.006  20.104 -0.1106 -0.0315  0.1408
35493W        W78587  32.197  11.387  16.802  0.0816  0.1597  0.2049
35494W        W78588  31.867  11.941  16.565 -0.1849  0.2311 -0.1399
35495W        W78589  29.808  10.965  18.766  0.0998  0.0303 -0.2342
35496W        W78590  32.328  12.957  20.844 -0.0698 -0.1190  0.2698
35497W        W78591  30.294  12.484  17.975 -0.0752 -0.0065 -0.2491
35498W        W78592  31.704  13.077  19.615  0.1253 -0.0012 -0.0003
35499W        W78593  31.220  13.419  16.323 -0.1457 -0.2406 -0.1219
35500W        W78594  32.140  13.163  18.388  0.0612 -0.0032 -0.2465
35501W        W78595  31.434  11.306  17.289  0.3080 -0.0206  0.2049
35502W        W78596  28.729  12.269  17.866  0.1989 -0.1873 -0.0858
35503W        W78597  30.434  14.265  19.084  0.1608 -0.3037 -0.1662
35504W        W78598  30.548  12.052  17.105 -0.0382 -0.1970  0.0176
35505W        W78599  31.055  12.177  17.203 -0.0665 -0.1525  0.2494
35506W        W78600  30.559  15.737  20.096 -0.2919  0.0424 -0.1956
35507W        W78601  33.056  13.676  20.954  0.0516 -0.0723 -0.1168
35508W        W78602  30.758   9.405  18.529 -0.0383 -0.0249 -0.2446
35509W        W78603  32.105  12.776  19.903 -0.0157 -0.1174  0.1546
35510W        W78604  29.776  12.421  16.818  0.0769 -0.0475  0.1954
35511W        W78605  31.920  10.897  18.038 -0.1546  0.1526 -0.2673
35512W        W78606  30.763  15.435  18.840  0.1984  0.1030  0.0543
35513W        W78607  29.870  14.312  19.922  0.3123 -0.1486 -0.0555
35514W        W78608  31.802  14.054  17.908 -0.1426 -0.2920 -0.0408
35515W        W78609  31.920  11.599  19.610  0.2268  0.4884 -0.1209
35516W        W78610  31.275  12.210  17.694  0.3335 -0.1197 -0.0313
35517W        W78611  28.312  11.732  18.673  0.3389 -0.2445  0.1640
35518W        W78612  32.191  12.127  19.004 -0.2485 -0.0884 -0.1957
35519W        W78613  32.585  14.292  20.831  0.0123  0.4835  0.3156
35520W        W78614  29.337  10.728  18.501  0.1367 -0.0842  0.0114
35521W        W78615  31.075  15.132  18.498  0.3625  0.1316 -0.1112
35522W        W78616  32.217  13.370  17.747 -0.1497 -0.0714 -0.0585
35523W        W78617  30.334  13.371  17.978  0.0910  0.4026 -0.1305
35524W        W78618  28.713  11.796  19.223 -0.0074 -0.3355 -0.2978
35525W        W78619  32.368  13.918  19.167 -0.2894  0.2621  0.0306
35526W        W78620  30.550  12.332  18.880  0.0882  0.0453  0.0549
35527W        W78621  29.451  10.359  18.151 -0.0909  0.0566 -0.1272
35528W        W78622  31.500  12.653  17.904 -0.1385 -0.1286 -0.1236
35529W        W78623  29.676  14.238  19.395  0.0949 -0.0026  0.1486
35530W        W78624  29.308  13.579  20.085 -0.0980 -0.1342 -0.0442
35531W        W78625  29.701  14.678  16.927 -0.2381  0.2149  0.0114
35532W        W78626  32.331  13.295  16.903  0.1756  0.2618  0.3255
35533W        W78627  31.018  12.178  16.291  0.0965 -0.3172 -0.0605
35534W        W78628  29.859  16.554  17.958  0.2618 -0.0107  0.0775
35535W        W78629  29.305  13.641  16.395 -0.0443 -0.2784  0.0253
35536W        W78630  28.910  13.205  17.911  0.0046  0.0095 -0.0254
35537W        W78631  28.526  14.456  15.797  0.1375 -0.2011 -0.2877
35538W        W78632  31.718  14.219  17.418 -0.1306 -0.1546  0.0442
35539W        W78633  30.228  15.123  16.684  0.3539 -0.0043  0.5631
35540W        W78634  31.996  13.760  21.214 -0.1991 -0.1570  0.1045
35541W        W78635  31.339  11.166  16.257 -0.1967 -0.0313 -0.2052
35542W        W78636  34.191  11.565  19.137  0.0582  0.0398  0.1040
35543W        W78637  32.730  11.519  16.757  0.2122 -0.1034 -0.1133
35544W        W78638  31.051  14.261  21.378 -0.1046  0.0223  0.0970
35545W        W78639  29.438  13.871  19.047  0.1671  0.1135  0.1147
35546W        W78640  30.600  10.960  16.263  0.0942 -0.1229  0.0615
35547W        W78641  30.713  13.432  18.814 -0.0455 -0.0140  0.1414
35548W        W78642  33.103  11.058  20.606 -0.0169 -0.0002 -0.0494
35549W        W78643  29.093  13.642  20.595  0.0435 -0.1053 -0.0894
35550W        W78644  32.565  13.570  17.281  0.1105 -0.0828 -0.0518
35551W        W78645  29.596  11.688  18.082 -0.1194 -0.1296 -0.0849
35552W        W78646  29.870  11.654  19.076  0.1206 -0.0972  0.0846
35553W        W78647  32.470  10.968  20.041  0.0181 -0.0707  0.0456
35554W        W78648  30.128  11.730  17.387  0.0849 -0.1978 -0.2897
35555W        W78649  30.656  11.404  17.892  0.1680 -0.0709 -0.0714
35556W        W78650  31.683  13.133  17.796  0.0115 -0.4689 -0.2001
35557W        W78651  30.660  13.598  17.557 -0.5534  0.1257  0.0225
35558W        W78652  30.397  14.311  18.155 -0.2137 -0.0038  0.0153
35559W        W78653  29.483  11.641  17.457 -0.3576 -0.5737 -0.0200
35560W        W78654  31.938  13.583  18.117  0.1062 -0.1453 -0.3693
35561W        W78655  30.033  11.480  19.640 -0.1107  0.3009  0.0496
35562W        W78656  31.162  11.152  18.796  0.1657  0.1454  0.0598
35563W        W78657  29.702  11.872  18.551 -0.2718 -0.2294 -0.2303
35564W        W78658  32.333  11.682  16.471 -0.0223  0.1366 -0.0194
35565W        W78659  30.542  13.329  19.336  0.1034 -0.1834  0.1079
35566W        W78660  30.180  11.945  19.568  0.1187  0.1206  0.0173
35567W        W78661  31.796  10.950  16.516 -0.3769 -0.3866 -0.1552
35568W        W78662  33.116  12.324  18.448 -0.0745 -0.1200 -0.1301
35569W        W78663  31.407  11.872  16.277  0.4062 -0.0432  0.2705
35570W        W78664  32.089  13.901  19.647  0.2386 -0.0405  0.1497
35571W        W78665  31.119  10.601  18.610 -0.2588 -0.1525  0.1618
35572W        W78666  30.961  11.019  16.579 -0.0678  0.1624 -0.6402
35573W        W78667  30.726  12.769  17.134 -0.1590  0.0871  0.0660
35574W        W78668  31.220  14.835  20.148  0.0055  0.0493 -0.2463
35575W        W78669  32.640  13.794  19.613  0.0667 -0.0494 -0.0345
35576W        W78670  27.186  11.152  17.471  0.1058 -0.4971 -0.1697
35577W        W78671  31.386  12.224  16.728  0.0130  0.0818 -0.1721
35578W        W78672  33.723  11.459  18.791 -0.0074 -0.3948  0.0022
35579W        W78673  30.265  12.566  16.983  0.2212  0.3014 -0.0447
35580W        W78674  32.676  13.144  17.607 -0.0040 -0.1002 -0.0708
35581W        W78675  31.436  15.013  18.894 -0.4619  0.1360  0.0316
35582W        W78676  27.910  11.756  18.315 -0.2003 -0.1150  0.1416
35583W        W78677  31.396  13.537  17.994 -0.0763 -0.1758 -0.0660
35584W        W78678  34.025  12.807  19.408 -0.4196  0.0520  0.0801
35585W        W78679  31.209  12.021  18.517 -0.0294 -0.0879 -0.2981
35586W        W78680  30.149  11.514  17.957 -0.0457 -0.1355  0.0257
35587W        W78681  29.569  12.774  18.421  0.1434  0.5123  0.0511
35588W        W78682  32.536  11.438  19.800  0.2997  0.1597 -0.0165
35589W        W78683  31.730  13.499  20.428  0.4145 -0.1751 -0.2372
35590W        W78684  30.008  13.369  16.449 -0.2937  0.4220 -0.1664
35591W        W78685  32.340  11.341  18.900 -0.0617  0.0573 -0.2411
35592W        W78686  31.695  13.854  18.490 -0.0188 -0.1053 -0.0396
35593W        W78687  32.458  14.257  19.487  0.2827 -0.0194 -0.0279
35594W        W78688  29.413  12.830  17.516  0.0521 -0.0281  0.0801
35595W        W78689  30.787  13.391  18.195 -0.0131 -0.2282 -0.0937
35596W        W78690  31.886  13.780  18.995 -0.1948 -0.0157  0.1269
35597W        W78691  30.949  12.660  17.738 -0.3407  0.5039  0.2820
35598W        W78692  32.127  12.332  17.992 -0.2036 -0.1390  0.4792
35599W        W78693  29.851  11.270  17.606 -0.1337  0.0407 -0.1471
35600W        W78694  31.994  12.828  18.056  0.2623  0.2575  0.3204
35601W        W78695  29.507  11.419  18.694  0.1675 -0.0746 -0.0562
35602W        W78696  31.667  10.520  17.745 -0.0500 -0.0436 -0.0809
35603W        W78697  31.485  10.297  18.181  0.1679 -0.2185 -0.2467
35604W        W78698  29.874  14.516  18.938 -0.0883 -0.1338  0.1192
35605W        W78699  28.958  12.770  17.243  0.0460 -0.0707 -0.0514
35606W        W78700  30.151  12.995  17.682  0.1129 -0.0535 -0.1263
35607W        W78701  29.566  13.206  18.661  0.2622 -0.0664  0.1332
35608W        W78702  30.594  11.454  20.533  0.0433  0.5635  0.0431
35609W        W78703  29.233  11.809  20.596 -0.1865 -0.0231 -0.2694
35610W        W78704  29.599  13.424  16.820 -0.3817  0.1272 -0.3035
35611W        W78705  30.289  12.058  17.761 -0.1084  0.1923  0.0799
35612W        W78706  32.785  12.482  16.526 -0.2161  0.1025 -0.2131
35613W        W78707  29.468   9.842  18.266  0.4025  0.3306  0.0311
35614W        W78708  28.396  10.673  17.787  0.0824  0.3352  0.2967
35615W        W78709  31.266  12.632  17.368  0.0509  0.0608 -0.0117
35616W        W78710  31.932  13.711  16.839 -0.1135  0.0628 -0.1724
35617W        W78711  29.360  11.100  17.515 -0.0517 -0.2129  0.0147
35618W        W78712  33.406  13.684  21.970  0.0663  0.1094  0.2236
35619W        W78713  27.731  14.010  18.912 -0.0667  0.3066 -0.3090
35620W        W78714  30.900  12.527  19.171  0.2150  0.1157 -0.0671
35621W        W78715  31.551  11.117  19.135  0.0312 -0.0800 -0.2132
35622W        W78716  28.214  11.094  16.144 -0.0179  0.1789 -0.2816
35623W        W78717  31.089  12.075  19.054 -0.1292  0.1862 -0.1393
35624W        W78718  31.079  13.775  18.422 -0.1326 -0.2373 -0.0077
35625W        W78719  31.503  12.778  16.925  0.1583 -0.1053  0.1537
35626W        W78720  30.265  13.908  17.807  0.0107 -0.3340  0.0155
35627W        W78721  31.080  13.443  20.412  0.1000  0.1082  0.1466
35628W        W78722  29.035  10.366  18.702  0.1729  0.0335  0.1070
35629W        W78723  30.982  11.660  17.110  0.1207 -0.0239 -0.0920
35630W        W78724  29.921  14.988  20.485  0.1927 -0.0038 -0.0280
35631W        W78725  32.687  12.056  17.202  0.0822 -0.4782  0.1817
35632W        W78726  34.253  11.943  18.832 -0.1531  0.3032  0.1887
35633W        W78727  30.062  12.918  18.231 -0.0349  0.1015 -0.2702
35634W        W78728  29.302  10.826  20.516  0.0920 -0.4321 -0.0125
35635W        W78729  29.024  13.300  19.780  0.2433 -0.1299  0.3824
35636W        W78730  33.427  13.442  19.178  0.1695 -0.3147  0.2809
35637W        W78731  29.810  10.691  18.359  0.1831  0.1214  0.0716
35638W        W78732  30.656  10.724  17.394  0.2289  0.2774 -0.3570
35639W        W78733  31.153  13.490  16.882 -0.1267  0.2130 -0.1921
35640W        W78734  28.206  12.166  18.466 -0.1306  0.1638  0.0653
35641W        W78735  30.554  10.794  16.873 -0.1057  0.3083  0.1084
35642W        W78736  30.784  13.488  20.799 -0.1823 -0.2937 -0.2315
35643W        W78737  31.298  13.519  17.426  0.1966 -0.2114  0.0280
35644W        W78738  32.225  12.480  19.397  0.0852  0.0354 -0.0966
35645W        W78739  30.112  12.213  17.276 -0.1658  0.3310 -0.4724
35646W        W78740  31.666  12.343  17.138 -0.3269  0.0909  0.2890
35647W        W78741  30.407  13.773  19.176 -0.0918  0.0904 -0.1449
35648W        W78742  32.488  14.589  19.902  0.0669  0.1379 -0.3697
35649W        W78743  30.666  13.944  18.662 -0.1219 -0.0390 -0.0066
35650W        W78744  31.871  12.866  18.658 -0.1043  0.0768 -0.3166
35651W        W78745  28.544  10.268  17.521  0.4312 -0.0878 -0.0957
35652W        W78746  30.037  12.248  19.195  0.1817 -0.1852  0.1917
35653W        W78747  29.714  12.266  18.830 -0.1116 -0.0532  0.1188
35654W        W78748  31.840  12.139  19.345 -0.5056 -0.1191  0.1341
35655W        W78749  28.963  10.006  17.453  0.0499 -0.3502 -0.2959
35656W        W78750  30.025  11.394  18.581  0.0881 -0.2689 -0.2220
35657W        W78751  30.634  14.829  17.689 -0.3659 -0.2403  0.3647
35658W        W78752  31.271  13.985  17.673 -0.3221  0.0602 -0.1220
35659W        W78753  31.809  12.725  23.595  0.2243  0.0431  0.2527
35660W        W78754  31.093  12.251  20.628  0.2479 -0.2459 -0.2279
35661W        W78755  32.260  11.840  20.089  0.2267 -0.2096 -0.0412
35662W        W78756  31.451  12.187  21.430 -0.0637 -0.0147 -0.0375
35663W        W78757  28.781  11.346  23.174  0.1140  0.0486 -0.1646
35664W        W78758  31.614  14.493  20.850 -0.0216 -0.2807  0.2622
35665W        W78759  28.774  11.437  23.979 -0.1379  0.0309  0.0784
35666W        W78760  31.203  13.923  21.761  0.0205  0.1976  0.4973
35667W        W78761  32.419  14.155  21.443  0.0120  0.0306 -0.0775
35668W        W78762  30.806  14.349  20.298  0.0478  0.0402 -0.1030
35669W        W78763  31.827  11.928  22.121 -0.1153  0.1504 -0.1494
35670W        W78764  29.885  12.614  22.904  0.0007  0.0809 -0.1010
35671W        W78765  29.636  11.024  21.475  0.0738  0.1604 -0.0940
35672W        W78766  28.765  10.305  22.825 -0.2907  0.1274  0.1994
35673W        W78767  31.244  12.127  21.903  0.0224 -0.1771  0.0163
35674W        W78768  29.151  14.298  19.210  0.1116 -0.0965  0.4629
35675W        W78769  28.977  11.054  22.640 -0.2848 -0.0474  0.1109
35676W        W78770  30.329  12.769  20.404 -0.0377 -0.0905 -0.2421
35677W        W78771  32.406  13.588  21.527 -0.1051 -0.0723  0.0723
35678W        W78772  29.721  10.494  22.635 -0.1841 -0.0195  0.2746
35679W        W78773  31.335  11.248  23.699 -0.0375 -0.2633 -0.0308
35680W        W78774  30.629  12.789  21.322 -0.0855  0.0964  0.3758
35681W        W78775  30.422  12.895  19.103 -0.0812 -0.4207  0.2797
35682W        W78776  29.595  12.696  21.043  0.0049 -0.7582  0.2066
35683W        W78777  30.130  11.935  22.139 -0.1364  0.1301  0.1921
35684W        W78778  31.744  11.158  22.768  0.0990  0.1675  0.0649
35685W        W78779  32.170  11.795  21.658 -0.1042  0.2650 -0.0850
35686W        W78780  29.391  14.665  20.980  0.1332  0.1952 -0.0152
35687W        W78781  31.561  13.298  22.276  0.2803 -0.1490  0.0665
35688W        W78782  31.181  11.754  22.994 -0.0866 -0.0183  0.0443
35689W        W78783  31.636  13.662  22.657 -0.0240 -0.0409  0.0616
35690W        W78784  29.472  14.790  23.200  0.0097  0.3947  0.1752
35691W        W78785  30.391  14.442  20.660 -0.3017  0.2972  0.0818
35692W        W78786  33.230  14.098  22.335 -0.0707 -0.3508  0.1553
35693W        W78787  32.996  13.305  22.870 -0.1078 -0.4966 -0.1693
35694W        W78788  30.794  13.977  24.069 -0.2032 -0.1097 -0.0328
35695W        W78789  29.554  11.995  21.754  0.0863 -0.2596 -0.0740
35696W        W78790  31.043  13.201  24.713  0.0800  0.0041  0.2097
35697W        W78791  29.873  13.806  23.018 -0.0171  0.0375 -0.0082
35698W        W78792  31.340  12.179  23.431 -0.3234  0.0019 -0.2615
35699W        W78793  31.351  11.816  20.985  0.3452 -0.0633  0.1301
35700W        W78794  30.812  11.329  21.911  0.0657 -0.1487 -0.0904
35701W        W78795  30.813  13.581  21.884  0.1551  0.1005 -0.0195
35702W        W78796  30.364  11.441  23.749  0.1548 -0.1183 -0.0740
35703W        W78797  29.994  13.475  22.290 -0.3819  0.2086 -0.0597
35704W        W78798  31.999  12.766  22.746 -0.0941  0.1077 -0.1241
35705W        W78799  29.883  13.953  22.035 -0.1920  0.3223 -0.4912
35706W        W78800  32.016  12.542  20.708  0.2636 -0.0744  0.0530
35707W        W78801  31.154  13.415  19.038  0.0368  0.1219 -0.0716
35708W        W78802  33.582  11.082  20.486  0.0813  0.0781  0.1804
35709W        W78803  32.710  11.247  20.966 -0.0359  0.1514 -0.0955
35710W        W78804  30.753  14.255  22.559 -0.1962 -0.0786  0.2519
35711W        W78805  30.932  10.687  21.899  0.0088  0.2166 -0.2520
35712W        W78806  33.401  13.516  23.154  0.0645  0.0407 -0.1403
35713W        W78807  31.397  12.415  22.233 -0.1338  0.4344 -0.3354
35714W        W78808  32.253  11.206  20.922  0.4645  0.2268  0.0190
35715W        W78809  30.284  13.952  22.437 -0.3917 -0.2758  0.1768
35716W        W78810  29.443  11.488  21.642  0.1998  0.0210  0.1407
35717W        W78811  32.917  13.886  21.984 -0.0110  0.1364 -0.0230
35718W        W78812  33.077  15.199  21.984  0.3027  0.0680 -0.2889
35719W        W78813  30.560  14.393  21.198 -0.2110  0.0621 -0.0585
35720W        W78814  28.962  12.529  20.451  0.2158 -0.1470 -0.1334
35721W        W78815  29.496  13.817  24.170  0.1321  0.2017  0.0451
35722W        W78816  29.182  12.119  22.564 -0.0023 -0.1726  0.0245
35723W        W78817  29.665  11.238  19.227 -0.1949 -0.0794  0.2138
35724W        W78818  31.867  13.839  23.513  0.0247 -0.0442  0.1656
35725W        W78819  27.505  14.122  24.021  0.0912 -0.1504  0.1301
35726W        W78820  32.269  10.743  20.784  0.2076 -0.1995  0.3002
35727W        W78821  30.757  11.973  22.961  0.2602  0.0039  0.2035
35728W        W78822  32.263  13.876  22.620  0.0370  0.1709  0.0962
35729W        W78823  33.898  13.379  19.877  0.0787  0.0023 -0.1318
35730W        W78824  29.973  11.059  22.612 -0.0832  0.2226 -0.1753
35731W        W78825  32.327  11.182  23.266 -0.0419 -0.3468  0.0417
35732W        W78826  29.544  13.413  19.127 -0.3142  0.0446 -0.2855
35733W        W78827  30.172  14.090  19.586 -0.1231  0.2658  0.3684
35734W        W78828  32.612  12.989  22.780  0.2262  0.3217  0.0395
35735W        W78829  33.237  12.349  20.510  0.0944  0.0666 -0.1894
35736W        W78830  30.286  15.318  23.680 -0.2277 -0.2393  0.1721
35737W        W78831  30.607  10.907  24.325 -0.0933  0.0745  0.3056
35738W        W78832  31.019  13.354  23.341  0.3205 -0.1901  0.5159
35739W        W78833  29.996  14.830  19.846 -0.2225  0.5291  0.1614
35740W        W78834  30.891  12.574  22.031 -0.0104 -0.2910 -0.2439
35741W        W78835  30.668  13.687  20.129 -0.2322  0.1525  0.0224
35742W        W78836  30.282  11.238  23.161 -0.0117  0.1784 -0.0576
35743W        W78837  30.013  13.475  23.387 -0.1860 -0.0451 -0.0143
35744W        W78838  31.732  11.091  20.819 -0.0252 -0.0229  0.0823
35745W        W78839  29.724  11.538  24.588 -0.4104 -0.1780  0.0609
35746W        W78840  32.596  10.354  21.310  0.1555  0.2337  0.1149
35747W        W78841  29.245  14.146  21.379  0.3064 -0.0195 -0.0467
35748W        W78842  33.156  14.376  21.874 -0.2625  0.1761  0.1140
35749W        W78843  31.889  13.063  20.644  0.0399  0.0699 -0.1299
35750W        W78844  32.102  15.217  20.759  0.4083 -0.3753  0.0554
35751W        W78845  28.207  11.128  22.313  0.1540  0.1993 -0.0952
35752W        W78846  30.915  11.816  21.647  0.3112 -0.1586 -0.0173
35753W        W78847  29.532  10.360  22.127 -0.0475  0.2346 -0.1798
35754W        W78848  30.413  12.277  21.259  0.1708 -0.2640 -0.2168
35755W        W78849  32.411  13.351  23.734  0.0460 -0.2176 -0.2041
35756W        W78850  29.273  11.706  19.939 -0.3239 -0.0348 -0.3936
35757W        W78851  32.815  12.971  21.031  0.0030  0.0093  0.1501
35758W        W78852  30.470  12.509  22.663 -0.2441  0.0950  0.1691
35759W        W78853  28.989  12.518  19.640  0.3811 -0.2535  0.0602
35760W        W78854  31.421  11.326  23.203  0.0790  0.1599 -0.2280
35761W        W78855  32.396  15.494  21.533 -0.3587  0.1662  0.3299
35762W        W78856  32.560  14.899  23.818  0.0172 -0.0033  0.1581
35763W        W78857  31.187  13.291  22.650  0.1861  0.0051  0.0170
35764W        W78858  30.646  11.992  24.591  0.1300 -0.1608  0.0217
35765W        W78859  30.876  12.980  19.393 -0.2002  0.0119 -0.0774
35766W        W78860  29.093  13.161  21.763 -0.1892 -0.2177 -0.1133
35767W        W78861  30.941  12.279  22.547  0.3303  0.0370 -0.2164
35768W        W78862  30.622  12.201  20.800  0.0559  0.0627  0.1422
35769W        W78863  33.600  14.610  22.291  0.1422 -0.3797 -0.1195
35770W        W78864  31.360  13.126  20.712 -0.0297  0.1496  0.0688
35771W        W78865  30.234  13.554  22.804  0.0707  0.0503  0.1018
35772W        W78866  31.066  12.279  24.351  0.0980 -0.1530  0.3230
35773W        W78867  33.303  11.100  21.779 -0.0311  0.3828 -0.0164
35774W        W78868  30.837  12.735  20.730  0.1620 -0.1742 -0.0484
35775W        W78869  29.537  12.299  19.316 -0.0039 -0.0706 -0.1125
35776W        W78870  31.573  12.834  22.588  0.0581 -0.1460 -0.0753
35777W        W78871  30.488  13.902  20.669  0.4473  0.1939  0.3274
35778W        W78872  31.366  12.783  19.346  0.0850  0.2517 -0.2116
35779W        W78873  31.035  13.527  21.424 -0.3596  0.2228 -0.3351
35780W        W78874  31.189  11.614  22.036 -0.1481  0.1398  0.2203
35781W        W78875  30.011  12.490  23.406 -0.0872  0.0349 -0.2518
35782W        W78876  30.755  13.557  24.552  0.2895 -0.0515 -0.3152
35783W        W78877  29.157  13.686  21.076  0.0470 -0.0342  0.2732
35784W        W78878  29.948  13.202  22.970  0.0902 -0.1289  0.2278
35785W        W78879  32.084  11.127  21.513 -0.0378  0.0681  0.3218
35786W        W78880  33.944  11.292  19.471 -0.4063 -0.1193  0.1243
35787W        W78881  30.260  11.883  24.086 -0.0890 -0.0268 -0.2171
35788W        W78882  31.932  12.594  22.163  0.0766  0.2458  0.1683
35789W        W78883  32.080  11.203  19.871  0.1789 -0.0104 -0.0206
35790W        W78884  30.460  11.199  19.516 -0.5458  0.2009  0.4268
35791W        W78885  29.902  13.836  24.662  0.1555 -0.1140  0.1434
35792W        W78886  32.132  14.187  21.007 -0.0550  0.0666  0.3006
35793W        W78887  30.703  13.170  22.743 -0.3287  0.0756  0.0144
35794W        W78888  31.839  12.433  20.250 -0.2062  0.0612 -0.2057
35795W        W78889  31.714  12.268  20.983 -0.2089 -0.0872 -0.2003
35796W        W78890  30.392  12.320  23.084 -0.0106 -0.0164 -0.0216
35797W        W78891  31.005  14.136  24.510  0.2919 -0.1693 -0.1193
35798W        W78892  31.825  14.760  21.762  0.0359 -0.0924 -0.0221
35799W        W78893  30.854  10.195  21.817  0.2274  0.1375  0.1185
35800W        W78894  31.284  12.496  20.146 -0.3177  0.3063  0.1825
35801W        W78895  30.643  11.079  21.007  0.0734  0.0035 -0.0227
35802W        W78896  29.995  14.526  20.312  0.2266 -0.0997  0.1865
35803W        W78897  32.260  11.282  22.772  0.0925  0.1112  0.1210
35804W        W78898  31.782  10.594  20.875  0.0497 -0.1426 -0.0428
35805W        W78899  30.976   9.917  23.013  0.0770  0.0313 -0.3910
35806W        W78900  32.408  12.684  24.452 -0.1114  0.2789 -0.2362
35807W        W78901  32.322  13.351  21.118 -0.1131 -0.2646  0.0386
35808W        W78902  30.446  11.823  21.682  0.0633 -0.2402  0.0083
35809W        W78903  30.811  13.365  19.809  0.0642  0.0967 -0.1042
35810W        W78904  31.378  11.388  24.251  0.4037 -0.5972  0.0629
35811W        W78905  29.885  12.119  23.878  0.1472 -0.2081  0.0950
35812W        W78906  30.610  12.402  24.298  0.1512 -0.1623 -0.1261
35813W        W78907  32.570  12.584  23.079  0.1862  0.0156 -0.1281
35814W        W78908  31.206  12.586  21.645 -0.1353 -0.0056  0.2803
35815W        W78909  30.004  11.055  23.652 -0.1597 -0.5255  0.1760
35816W        W78910  30.650  11.942  20.403  0.0457 -0.2221 -0.5309
35817W        W78911  31.976  15.319  20.180 -0.4591 -0.1797 -0.2651
35818W        W78912  29.826  13.452  20.086 -0.0586  0.1428 -0.0894
35819W        W78913  30.353  10.577  22.361  0.2645  0.1669 -0.0608
35820W        W78914  32.439  13.779  23.245  0.0080  0.0998  0.3156
35821W        W78915  31.662  14.205  21.248  0.2373  0.0042 -0.2630
35822W        W78916  31.957  12.536  24.080 -0.1235 -0.0460  0.3402
35823W        W78917  30.781  13.906  21.087  0.1417 -0.0317  0.0797
35824W        W78918  32.316  10.271  22.983 -0.1002  0.0697  0.0104
35825W        W78919  28.906  14.467  22.687  0.0419  0.0984  0.0593
35826W        W78920  30.427  12.809  19.625  0.3238 -0.0004  0.0315
35827W        W78921  30.332  13.270  20.016  0.1199 -0.2359  0.0120
35828W        W78922  32.085  12.065  20.530 -0.1027  0.1914  0.1073
35829W        W78923  31.741  12.682  21.583 -0.3036  0.1904  0.2384
35830W        W78924  28.272  11.419  23.025  0.4398  0.0488  0.0822
35831W        W78925  31.264  10.116  22.132 -0.2692 -0.1540 -0.2269
35832W        W78926  29.695  14.583  21.398  0.1072 -0.0254 -0.1860
35833W        W78927  31.669  11.766  23.408 -0.1988 -0.0400 -0.0678
35834W        W78928  31.583  11.405  21.216  0.1552  0.2227  0.4592
35835W        W78929  31.389  11.904  22.382 -0.1053  0.0800  0.0259
35836W        W78930  31.247  11.940  23.916  0.0067  0.2366  0.1763
35837W        W78931  28.954  12.889  20.038 -0.0587  0.1136 -0.1156
35838W        W78932  32.474  11.679  22.537 -0.0770  0.2322  0.0149
35839W        W78933  30.230  12.005  23.556 -0.0844  0.3353  0.3194
35840W        W78934  29.741  13.681  21.053 -0.1051  0.4026  0.0361
35841W        W78935  30.734  14.046  22.085 -0.5409  0.0040  0.1138
35842W        W78936  29.577  13.047  21.483  0.0804  0.0968  0.0013
35843W        W78937  30.140  13.026  21.518  0.2780 -0.3109 -0.1128
35844W        W78938  29.660  12.758  24.335  0.4858 -0.0847  0.2294
35845W        W78939  31.200  13.250  24.000 -0.3270 -0.2381  0.3434
35846W        W78940  30.765  11.433  21.351 -0.1744 -0.1439  0.1445
35847W        W78941  31.026  11.002  21.415  0.0147 -0.0678 -0.2039
35848W        W78942  30.483  11.602  22.185  0.0426  0.2569  0.0222
35849W        W78943  31.822  11.914  21.274  0.0475 -0.1601 -0.1161
35850W        W78944  31.621  12.558  23.165  0.1750 -0.2970  0.0487
35851W        W78945  29.610  14.987  25.049 -0.1759 -0.3748 -0.1744
35852W        W78946  29.259  11.426  21.147 -0.0056 -0.1108  0.2965
35853W        W78947  33.056  14.770  22.213  0.1692  0.0294 -0.0736
35854W        W78948  31.747  12.688  25.267 -0.0130  0.2925 -0.0635
35855W        W78949  29.963  13.115  21.066  0.1590  0.1273 -0.1558
35856W        W78950  27.814  11.938  20.907 -0.0486  0.0105 -0.0417
35857W        W78951  30.772  12.066  22.101  0.2187  0.0767  0.2996
35858W        W78952  31.835  12.217  23.586 -0.0355 -0.0728 -0.1024
35859W        W78953  29.810  15.041  23.364  0.0150  0.1373 -0.3336
35860W        W78954  30.734  15.431  20.489 -0.1027  0.3394 -0.1070
35861W        W78955  30.137  12.864  22.454  0.2898 -0.1433  0.2753
35862W        W78956  32.715  11.792  19.015 -0.2675  0.1247 -0.1490
35863W        W78957  32.194  15.018  21.407 -0.0178  0.1927 -0.1667
35864W        W78958  31.757  11.571  20.113 -0.1095 -0.0730  0.1867
35865W        W78959  31.643  10.801  23.151  0.1147 -0.0239  0.3772
35866W        W78960  30.278  14.884  21.131  0.2605  0.0613  0.1196
35867W        W78961  31.238  10.470  22.971  0.0118  0.4566  0.2499
35868W        W78962  29.997   9.703  22.958  0.3415 -0.1145 -0.3180
35869W        W78963  31.834  14.098  22.846  0.2487  0.4094 -0.0994
35870W        W78964  28.859  11.601  21.988 -0.2146  0.0717  0.3706
35871W        W78965  33.072  13.626  26.101 -0.0073  0.1126  0.1036
35872W        W78966  29.697  13.884  23.649  0.1163  0.5031 -0.0095
35873W        W78967  31.018  10.385  20.854 -0.1478 -0.1565  0.1174
35874W        W78968  30.935  11.545  20.181  0.1180 -0.1876  0.2590
35875W        W78969  31.403  12.384  22.751  0.3452  0.2112  0.2672
35876W        W78970  31.953  11.630  22.549  0.1739  0.1211 -0.1649
35877W        W78971  30.594  12.943  22.242  0.1737  0.0536  0.0554
35878W        W78972  32.444  12.160  21.515 -0.2258 -0.2154 -0.0224
35879W        W78973  30.993  13.832  23.487 -0.0515 -0.3749 -0.0167
35880W        W78974  31.466  12.613  20.634  0.2408 -0.2034  0.3356
35881W        W78975  30.668  13.163  20.367  0.1900  0.2165 -0.0769
35882W        W78976  30.560  13.091  23.202 -0.1043 -0.0743  0.4059
35883W        W78977  29.782   9.690  24.349  0.0534  0.5711 -0.2131
35884W        W78978  32.262  12.640  21.722  0.1600  0.0278  0.1546
35885W        W78979  31.843  11.700  20.789  0.5036  0.1341 -0.0499
35886W        W78980  32.006  11.040  22.321 -0.2355 -0.0350  0.0462
35887W        W78981  31.821  11.102  23.468 -0.0692  0.0366 -0.2289
35888W        W78982  30.281  12.316  24.737  0.1487 -0.1772  0.0429
35889W        W78983  29.617  13.138  23.911  0.1256  0.1261 -0.3314
35890W        W78984  31.251  14.059  22.673 -0.0492 -0.2683  0.1568
35891W        W78985  31.860  12.058  19.910  0.0423 -0.2630 -0.2752
35892W        W78986  33.385  12.181  21.841 -0.3121  0.0904 -0.0092
35893W        W78987  32.837  11.875  22.842 -0.3555  0.0272 -0.1508
35894W        W78988  31.226  12.851  19.821 -0.0079 -0.0113  0.0597
35895W        W78989  30.554  12.652  23.384 -0.0155  0.1980 -0.0340
35896W        W78990  30.410  12.870  24.050 -0.1082  0.1012 -0.3268
35897W        W78991  30.768  12.901  19.986 -0.3627 -0.0153  0.0296
35898W        W78992  32.091  12.986  23.952 -0.2223  0.0719 -0.3275
35899W        W78993  30.345  13.723  21.969 -0.2664 -0.1636  0.1371
35900W        W78994  32.028  13.047  21.933 -0.0920 -0.2537 -0.0042
35901W        W78995  31.379  11.257  20.413 -0.0201  0.0510 -0.1878
35902W        W78996  29.558  11.872  22.791  0.1806  0.0614 -0.2144
35903W        W78997  31.017  13.889  25.582 -0.0819 -0.0881  0.0987
35904W        W78998  27.646  12.437  18.614  0.2821 -0.1034  0.1044
35905W        W78999  29.416  13.244  21.035 -0.2222  0.0363  0.2083
35906W        W79000  30.716  11.876  23.827 -0.1365  0.0875  0.0523
35907W        W79001  31.492  14.061  24.450  0.3254  0.2661 -0.0750
35908W        W79002  31.497  10.726  20.500  0.1703  0.0592  0.3140
35909W        W79003  33.029  11.320  24.620 -0.2748  0.1784 -0.1442
35910W        W79004  29.985  13.588  21.497  0.2150  0.2100  0.2188
35911W        W79005  29.977  12.080  21.517  0.1120  0.2214 -0.0497
35912W        W79006  31.958  14.071  21.629 -0.1727  0.0816 -0.0597
35913W        W79007  29.188  12.574  23.151 -0.1626  0.1838  0.0411
35914W        W79008  31.708  12.823  21.057 -0.3301  0.0693  0.0604
35915W        W79009  30.256  10.696  22.902  0.2715  0.0518  0.2588
35916W        W79010  31.215  11.470  21.485 -0.0813 -0.3393 -0.1609
35917W        W79011  29.515  12.328  24.118  0.1548  0.2434 -0.0927
35918W        W79012  32.611  11.941  23.877 -0.1798  0.4320  0.0522
35919W        W79013  31.691  13.214  23.698 -0.2870 -0.0245  0.3456
35920W        W79014  31.315  12.863  23.580  0.0542 -0.1567  0.4048
35921W        W79015  31.743  13.045  23.150  0.0812 -0.0277  0.1997
35922W        W79016  32.238  13.128  22.403  0.1464  0.4570 -0.1703
35923W        W79017  30.389  12.456  22.132  0.0636 -0.2187 -0.3985
35924W        W79018  29.293  10.052  22.906  0.0318  0.1516  0.3546
35925W        W79019  29.867  13.536  24.227 -0.0804  0.1591  0.1144
35926W        W79020  31.237  12.927  23.101 -0.1241 -0.3220 -0.1728
35927W        W79021  30.139  12.645  20.988 -0.3484 -0.1285 -0.0107
35928W        W79022  30.216  13.479  20.873 -0.0969  0.1971 -0.2928
35929W        W79023  29.804  14.554  24.112  0.3278 -0.4034 -0.1267
35930W        W79024  29.627  12.787  22.511 -0.1031  0.0034  0.0643
35931W        W79025  29.402  15.015  21.529 -0.0368 -0.0713  0.2370
35932W        W79026  31.549  11.775  21.692  0.2883 -0.1520 -0.2290
35933W        W79027  31.579  11.963  20.354  0.2537 -0.4672  0.0018
35934W        W79028  31.616  11.480  22.217  0.1374  0.1253 -0.2067
35935W        W79029  31.781  13.838  20.785  0.2886 -0.0618 -0.1340
35936W        W79030  29.707  13.798  22.556  0.0354  0.2790  0.2520
35937W        W79031  28.250  13.921  19.363  0.2659 -0.0565  0.1568
35938W        W79032  32.336  13.926  21.911  0.0652 -0.2758 -0.0382
35939W        W79033  31.067  13.138  22.176  0.0554  0.3359  0.0103
35940W        W79034  32.002  13.115  24.429 -0.2768  0.1128  0.1047
35941W        W79035  33.196  12.842  20.538  0.0084  0.0630 -0.2079
35942W        W79036  32.387  12.398  23.646  0.0328 -0.0728 -0.1410
35943W        W79037  32.925  12.471  22.125  0.0185 -0.0721  0.2481
35944W        W79038  30.725  13.452  23.944  0.0204  0.0968 -0.2866
35945W        W79039  29.592  11.888  22.299  0.0258  0.2599 -0.0100
35946W        W79040  31.606  12.894  20.176  0.0739 -0.0153 -0.2185
35947W        W79041  29.553  10.894  22.878  0.1084 -0.1496 -0.0376
35948W        W79042  32.578  10.821  22.968 -0.2776  0.3124 -0.2950
35949W        W79043  30.515  13.731  23.206 -0.0277  0.1032  0.4393
35950W        W79044  32.872  13.886  21.521 -0.0008  0.0188  0.1009
35951W        W79045  30.476  12.250  19.876  0.1617 -0.2889 -0.1025
35952W        W79046  30.270  11.821  21.173 -0.3072  0.3691 -0.0540
35953W        W79047  32.686   9.964  22.725 -0.0632 -0.2913  0.2554
35954W        W79048  33.406  14.016  21.482  0.1078  0.0014 -0.1650
35955W        W79049  31.356  11.043  21.769 -0.2238 -0.4096 -0.2004
35956W        W79050  30.949  13.037  21.677  0.1079 -0.0959 -0.0972
35957W        W79051  30.241  11.782  23.054  0.1458 -0.1571 -0.0236
35958W        W79052  31.320  13.436  21.826  0.2554 -0.2605 -0.0351
35959W        W79053  30.798  12.325  21.596 -0.0894 -0.1615  0.2410
35960W        W79054  32.852  12.183  20.869 -0.1163 -0.1827 -0.0891
35961W        W79055  29.012  11.876  21.602 -0.1587  0.3364  0.2339
35962W        W79056  30.686   9.967  22.599  0.1656  0.2876 -0.1457
35963W        W79057  30.452  13.234  21.853  0.5793 -0.5712  0.0382
35964W        W79058  33.395  12.011  20.835 -0.3581  0.2613  0.0430
35965W        W79059  31.596  14.356  23.651  0.2852  0.0355  0.0189
35966W        W79060  29.570  12.648  23.477  0.0804 -0.0959 -0.0848
35967W        W79061  30.216  13.617  20.330 -0.2460  0.0479  0.1587
35968W        W79062  31.850  12.267  22.566 -0.1056  0.0292 -0.0560
35969W        W79063  30.898  14.360  20.831  0.1655  0.1093 -0.0017
35970W        W79064  32.381  13.734  24.150  0.2231  0.3314  0.0709
35971W        W79065  28.479  11.724  21.589  0.0625 -0.2855  0.0407
35972W        W79066  30.234  11.281  19.014 -0.1956 -0.2007  0.1266
35973W        W79067  28.865  13.503  21.967 -0.0047 -0.2070  0.1621
35974W        W79068  31.862  14.117  24.033 -0.2077  0.2112 -0.0204
35975W        W79069  31.784  14.999  23.254 -0.0438  0.1930  0.1386
35976W        W79070  30.402  11.126  22.328  0.0049 -0.3639  0.2136
35977W        W79071  32.836  13.359  21.340 -0.1432  0.0151 -0.1357
35978W        W79072  32.141  11.575  21.230 -0.2793 -0.0929 -0.2188
35979W        W79073  30.509  13.418  21.380 -0.0573  0.1757 -0.0936
35980W        W79074  32.319  12.119  21.009 -0.0079 -0.2376  0.0664
35981W        W79075  31.623  13.793  22.039  0.1181 -0.0283 -0.2123
35982W        W79076  28.695  11.095  22.219  0.1894 -0.1467  0.1423
35983W        W79077  32.733  13.942  22.877  0.0573  0.4312 -0.0406
35984W        W79078  32.225  12.062  22.875 -0.2579  0.3328  0.0573
35985W        W79079  32.345  12.005  19.582 -0.1516 -0.1800  0.2208
35986W        W79080  30.357  12.573  21.660  0.0112  0.0734  0.1343
35987W        W79081  29.374  15.040  22.133  0.1340 -0.0691  0.5829
35988W        W79082  31.964  10.757  21.873  0.0043 -0.1847 -0.1780
35989W        W79083  30.752  10.742  22.570  0.1247 -0.0367  0.1195
35990W        W79084  33.200  15.099  20.612  0.2918  0.0272  0.2676
35991W        W79085  31.233  10.393  23.889  0.1093 -0.1881  0.0916
35992W        W79086  30.344  13.667  24.284 -0.2958  0.1435 -0.1189
35993W        W79087  31.237  12.558  25.470  0.0365 -0.0970 -0.0386
35994W        W79088  29.959  13.632  19.401 -0.0905 -0.0191  0.1408
35995W        W79089  30.471  12.021  22.501  0.1281  0.1971  0.0625
35996W        W79090  31.550  13.717  21.332  0.0814 -0.2671  0.0277
35997W        W79091  31.434  13.092  21.446 -0.1116  0.2155  0.1704
35998W        W79092  31.773  14.466  23.153  0.0247 -0.1838 -0.0649
35999W        W79093  31.310  10.865  20.917  0.2049  0.1786 -0.0864
36000W        W79094  31.989  13.557  22.332 -0.0904 -0.2627 -0.0790
36001W        W79095  29.305  11.325  22.917 -0.1324  0.3115  0.1575
36002W        W79096  33.075  11.539  23.714  0.1627  0.4065 -0.1822
36003W        W79097  30.250  11.419  20.901 -0.0390 -0.0046 -0.0231
36004W        W79098  30.000  11.718  22.656 -0.1111  0.1076  0.0183
36005W        W79099  29.576  13.352  19.660 -0.1311  0.1232  0.0945
36006W        W79100  30.365  14.516  19.716  0.0457  0.1878 -0.2580
36007W        W79101  30.672  14.171  23.508  0.2806  0.0861  0.0281
36008W        W79102  30.257   9.848  24.010  0.2211 -0.2149 -0.0833
36009W        W79103  29.573  11.394  22.483 -0.1158  0.0985  0.4042
36010W        W79104  29.919  12.848  21.916 -0.0586 -0.0943 -0.0308
36011W        W79105  29.113  11.449  23.571  0.1885  0.1626  0.1311
36012W        W79106  31.743  13.383  20.977 -0.3633  0.0014 -0.1386
36013W        W79107  30.487  10.877  23.886  0.0611 -0.1071 -0.1491
36014W        W79108  29.762  10.577  21.682  0.4145 -0.1422  0.1693
36015W        W79109  30.922  11.725  22.560  0.0747  0.1700  0.1055
36016W        W79110  32.452  13.462  22.824  0.1422 -0.0560  0.4776
36017W        W79111  31.123  12.954  20.336  0.4622  0.1946 -0.0161
36018W        W79112  31.775  14.986  24.922 -0.0307 -0.2953 -0.1284
36019W        W79113  28.949  13.942  20.126 -0.3352 -0.0427  0.1768
36020W        W79114  31.190  11.903  24.682 -0.2660  0.1912 -0.1067
36021W        W79115  29.757   9.717  23.855  0.1836 -0.2278 -0.0996
36022W        W79116  28.704  12.868  20.738  0.1510  0.1321  0.0528
36023W        W79117  31.975  11.540  23.086  0.0606  0.3343 -0.2090
36024W        W79118  32.293  14.670  20.945 -0.1962  0.0993  0.1628
36025W        W79119  33.718  12.888  19.775  0.0094 -0.0103 -0.1742
36026W        W79120  31.270  14.131  24.043  0.0566  0.1657  0.2269
36027W        W79121  30.803  14.669  23.184  0.1612  0.0081 -0.1462
36028W        W79122  27.425  10.434  22.252 -0.0138 -0.0086  0.0234
36029W        W79123  32.620  12.612  20.688 -0.2284 -0.2181  0.1353
36030W        W79124  30.893  11.277  24.389 -0.1664 -0.0706  0.0680
36031W        W79125  32.462  12.942  21.395 -0.2506  0.1988 -0.0240
36032W        W79126  31.390  11.046  22.292 -0.1792 -0.0539  0.5296
36033W        W79127  30.997  12.057  20.064 -0.0170 -0.0772 -0.0778
36034W        W79128  29.109  10.147  23.417 -0.0906 -0.0385 -0.1491
36035W        W79129  29.129  13.106  22.725 -0.1381 -0.0837 -0.0925
36036W        W79130  31.618  11.948  22.930  0.0218 -0.1103 -0.1144
36037W        W79131  29.595   9.988  22.489 -0.0289  0.1330 -0.0197
36038W        W79132  32.294  11.706  19.226  0.1195 -0.3383 -0.0565
36039W        W79133  31.304  13.599  20.857  0.3219 -0.1231  0.1079
36040W        W79134  28.769  12.300  22.840 -0.1457 -0.0078  0.0449
36041W        W79135  31.233  12.639  21.115  0.3296  0.1667 -0.0309
36042W        W79136  30.889  12.409  23.826 -0.0534  0.0351 -0.1259
36043W        W79137  31.098  12.768  22.567  0.0460 -0.1118 -0.1432
36044W        W79138  31.756  13.747  26.152  0.2199  0.2195  0.3663
36045W        W79139  30.859  11.731  20.997 -0.1926 -0.0051 -0.0342
36046W        W79140  32.137  12.619  21.248 -0.2467  0.0474  0.1472
36047W        W79141  32.564  14.797  22.213 -0.0857 -0.0942 -0.0430
36048W        W79142  32.974  14.349  23.029  0.1655 -0.1370 -0.0082
36049W        W79143  30.175  13.119  23.748  0.2303 -0.0083 -0.3694
36050W        W79144  31.749  11.350  21.781  0.2232  0.5442 -0.1344
36051W        W79145  28.652  10.873  23.023 -0.1945 -0.1124 -0.0536
36052W        W79146  29.997  12.894  19.887 -0.0260  0.2048 -0.2832
36053W        W79147  30.901  12.447  23.044  0.0246  0.2170  0.2309
36054W        W79148  31.042  12.164  21.200  0.0901  0.0183  0.0237
36055W        W79149  29.213  10.609  22.697  0.2135  0.1187 -0.0015
36056W        W79150  31.182  11.750  20.540 -0.2733 -0.0091 -0.0429
36057W        W79151  30.369  15.045  23.153  0.2446 -0.0128 -0.1030
36058W        W79152  30.756  12.136  23.432  0.0213  0.0811 -0.1296
36059W        W79153  30.677  12.834  26.673 -0.0098  0.1534 -0.0701
36060W        W79154  31.085  12.190  25.853 -0.1707 -0.1361  0.1632
36061W        W79155  31.100  11.690  23.474 -0.0595  0.1346  0.1099
36062W        W79156  31.517  10.931  25.022 -0.3383  0.1537  0.1308
36063W        W79157  30.112  12.522  25.401 -0.0258  0.1466 -0.1278
36064W        W79158  32.491  14.855  25.322  0.0855 -0.0600  0.2732
36065W        W79159  30.191   9.070  28.247 -0.3026  0.0294  0.2027
36066W        W79160  31.944  14.844  27.028  0.1311 -0.7261 -0.2591
36067W        W79161  31.607  15.625  26.852  0.1826  0.1625 -0.0556
36068W        W79162  29.781  12.380  24.657 -0.1467  0.2160  0.0264
36069W        W79163  31.067  10.923  27.660 -0.1199 -0.1819  0.3063
36070W        W79164  31.163  13.814  27.350  0.1305 -0.0126 -0.0345
36071W        W79165  30.822  10.713  24.717  0.1566 -0.3670 -0.0142
36072W        W79166  29.711   9.504  25.801 -0.1334  0.0638  0.0946
36073W        W79167  31.788  12.017  27.600 -0.2542 -0.3583  0.0726
36074W        W79168  29.979  12.811  24.792  0.2669 -0.0262 -0.3011
36075W        W79169  32.253  11.269  27.470  0.0578 -0.2124  0.0447
36076W        W79170  31.814  11.337  24.810  0.1116 -0.1207 -0.1051
36077W        W79171  32.145  14.930  26.575  0.0824 -0.1839  0.2006
36078W        W79172  31.113  11.861  28.301  0.2917 -0.3009 -0.1626
36079W        W79173  34.091  10.526  27.951 -0.0742  0.0747 -0.0087
36080W        W79174  31.452  13.675  23.744  0.3771 -0.1276 -0.2427
36081W        W79175  28.197  12.693  23.593 -0.0043 -0.1374 -0.0925
36082W        W79176  30.441  11.493  25.815 -0.3720  0.2292  0.2125
36083W        W79177  30.124  12.273  26.396  0.1633 -0.1635 -0.0960
36084W        W79178  31.273  11.090  26.947  0.0297  0.1281  0.2700
36085W        W79179  30.598  12.340  27.267 -0.0635  0.0371  0.0470
36086W        W79180  30.220  13.484  27.242  0.0238 -0.0582  0.0662
36087W        W79181  30.924  14.257  25.934  0.0501 -0.2246  0.0439
36088W        W79182  32.245  11.814  25.683  0.3119  0.0591  0.0207
36089W        W79183  27.996  13.764  24.454  0.2439  0.1656 -0.0748
36090W        W79184  30.371  12.288  27.716 -0.2281 -0.3627 -0.3198
36091W        W79185  30.242  14.730  24.468  0.2198  0.0315 -0.0701
36092W        W79186  31.432  13.290  25.216 -0.3149  0.2389  0.0089
36093W        W79187  32.626  15.052  28.360 -0.0326 -0.1012 -0.2001
36094W        W79188  30.545  14.498  26.804  0.3103 -0.2730 -0.3261
36095W        W79189  29.437  12.013  24.588 -0.2710  0.1340  0.1335
36096W        W79190  29.931  15.040  27.350 -0.0805  0.0466  0.0201
36097W        W79191  30.812  14.283  27.446  0.1098  0.2526  0.2986
36098W        W79192  30.283  14.219  27.142  0.0469  0.2576 -0.2916
36099W        W79193  30.534  11.894  26.955  0.0421  0.2254  0.0798
36100W        W79194  28.985  14.576  23.916 -0.0980  0.0818  0.1015
36101W        W79195  31.667  12.402  27.132  0.0011  0.0187 -0.0321
36102W        W79196  29.889  13.810  29.080 -0.3960  0.1421  0.0072
36103W        W79197  28.874  12.639  26.323  0.2122 -0.3512 -0.2503
36104W        W79198  32.667  11.526  28.190  0.0366 -0.0793 -0.0274
36105W        W79199  29.764  14.650  24.710  0.1311 -0.1256 -0.0207
36106W        W79200  31.468  12.972  24.839 -0.1928  0.0975 -0.0904
36107W        W79201  30.371  12.421  23.788 -0.1594 -0.0811  0.2431
36108W        W79202  32.346  10.730  26.346  0.0355 -0.3399 -0.1327
36109W        W79203  30.890   9.528  26.109 -0.0828 -0.0390  0.1398
36110W        W79204  29.831  14.430  27.391  0.1604 -0.1491  0.1421
36111W        W79205  30.956   9.641  26.988  0.0462  0.2398  0.0051
36112W        W79206  32.334  14.348  25.147 -0.2906  0.2503 -0.2565
36113W        W79207  31.668  12.319  25.665  0.0534  0.1072 -0.2956
36114W        W79208  31.946  10.964  25.367 -0.1377  0.0315  0.3013
36115W        W79209  30.848  14.711  26.103  0.2083  0.2907  0.2018
36116W        W79210  29.319  12.804  25.297 -0.3459 -0.0628  0.0727
36117W        W79211  30.666  14.243  24.905 -0.1457 -0.0818 -0.2174
36118W        W79212  32.209  11.736  26.252  0.0472 -0.0071 -0.2360
36119W        W79213  31.398  11.813  25.784 -0.1475 -0.1025 -0.0885
36120W        W79214  29.206  11.451  24.256 -0.0373 -0.2936  0.0634
36121W        W79215  30.150  12.750  27.400 -0.0334  0.0128  0.4018
36122W        W79216  30.844  11.296  26.139 -0.1723 -0.1456 -0.0612
36123W        W79217  29.849  10.855  24.578 -0.0148  0.1733  0.0474
36124W        W79218  32.827  13.907  27.632 -0.2946 -0.0724  0.2768
36125W        W79219  30.402  13.203  28.057  0.1204 -0.0942 -0.1290
36126W        W79220  32.956  11.323  26.361 -0.0328  0.0986  0.1964
36127W        W79221  31.725  12.881  27.354 -0.1758  0.2529 -0.3183
36128W        W79222  31.972  14.152  25.915 -0.0729  0.1280  0.1638
36129W        W79223  31.035  12.874  25.091 -0.1269  0.3288 -0.5564
36130W        W79224  31.201   9.871  24.209 -0.3470  0.1073 -0.0008
36131W        W79225  32.230  10.198  26.444 -0.0379 -0.2343  0.1194
36132W        W79226  30.465  12.790  24.558  0.1385 -0.1185  0.1306
36133W        W79227  29.933  12.721  23.868 -0.0434  0.1577  0.2363
36134W        W79228  32.076  16.561  26.671 -0.0360  0.1237  0.1153
36135W        W79229  32.160  12.771  25.659  0.1260  0.1906  0.0499
36136W        W79230  29.537  12.902  27.026  0.0120  0.0791  0.1497
36137W        W79231  31.407  11.921  27.194  0.0291  0.0266  0.2452
36138W        W79232  32.511  14.785  27.992  0.0881 -0.1180 -0.5520
36139W        W79233  30.070  14.878  23.832 -0.4120  0.2585  0.0247
36140W        W79234  27.985  13.158  25.111 -0.0703 -0.3594 -0.0215
36141W        W79235  29.460  13.290  24.358  0.2655  0.1737 -0.1181
36142W        W79236  29.507   9.526  26.576 -0.2560 -0.0964  0.0754
36143W        W79237  30.979  13.347  27.326 -0.0524 -0.0037 -0.3616
36144W        W79238  32.133  11.529  25.216 -0.2179 -0.0564 -0.1097
36145W        W79239  29.678  10.566  26.507  0.0049 -0.4437  0.2046
36146W        W79240  32.324  10.755  25.830 -0.1432 -0.1146 -0.1305
36147W        W79241  30.144  13.014  25.266 -0.0881 -0.1115 -0.0776
36148W        W79242  31.519  14.740  25.296 -0.2590 -0.0918  0.1088
36149W        W79243  32.666  11.694  25.021 -0.2109 -0.2034 -0.1731
36150W        W79244  33.119  13.182  23.410 -0.0551 -0.1761  0.1223
36151W        W79245  30.126  11.781  26.598  0.0640 -0.0707 -0.0968
36152W        W79246  31.064  11.417  25.234  0.3438  0.0068  0.4168
36153W        W79247  30.521  10.444  27.679 -0.2912  0.0457 -0.0769
36154W        W79248  29.507   9.883  26.181  0.0859  0.0256 -0.1843
36155W        W79249  32.473  12.427  27.981  0.1018 -0.4064  0.2621
36156W        W79250  29.946  12.077  25.057  0.1078 -0.0820  0.0768
36157W        W79251  30.711  11.113  25.069 -0.0487 -0.0339  0.1847
36158W        W79252  31.825  10.594  25.728  0.0029 -0.1641 -0.1444
36159W        W79253  30.151  14.101  23.313 -0.0864 -0.0208  0.0807
36160W        W79254  33.025   9.532  28.430 -0.1556 -0.1175 -0.1481
36161W        W79255  30.258  14.399  23.956 -0.3785 -0.0011  0.1511
36162W        W79256  32.929  15.243  27.330 -0.3126  0.1045  0.1338
36163W        W79257  31.471  15.148  25.935 -0.0788  0.1986 -0.0130
36164W        W79258  29.324  10.125  26.542  0.2121  0.3515  0.1432
36165W        W79259  29.131  11.073  23.904 -0.3170 -0.1185 -0.3122
36166W        W79260  29.094  13.817  26.107 -0.0509 -0.2943  0.0766
36167W        W79261  30.740  13.298  26.856  0.0804  0.1937 -0.1040
36168W        W79262  30.269  11.990  26.041 -0.3860 -0.1055 -0.1506
36169W        W79263  33.418  13.470  25.635 -0.1129 -0.0011 -0.0808
36170W        W79264  31.669  13.258  25.730  0.1519 -0.1916  0.1251
36171W        W79265  30.439  13.913  26.801  0.1405  0.1049  0.3224
36172W        W79266  33.079  10.358  26.477  0.2565 -0.0789  0.0597
36173W        W79267  32.426  11.960  26.665  0.2341  0.2635 -0.2874
36174W        W79268  31.978  11.875  26.823 -0.0086  0.2367  0.2584
36175W        W79269  29.818  11.323  23.015 -0.1730 -0.0191 -0.0319
36176W        W79270  31.499  14.026  26.625 -0.1516 -0.0839 -0.1663
36177W        W79271  28.449  14.057  23.871 -0.1143  0.3537 -0.0377
36178W        W79272  29.237  13.217  24.825  0.0568  0.0118  0.2329
36179W        W79273  30.752  13.644  26.453  0.5058  0.4021  0.2315
36180W        W79274  31.882  10.520  26.292 -0.0480 -0.2213  0.1591
36181W        W79275  28.886  11.537  26.863  0.3968  0.0591  0.2035
36182W        W79276  32.836  11.112  28.140  0.0076  0.2486  0.0578
36183W        W79277  29.673  12.488  25.184  0.0209 -0.1649  0.1987
36184W        W79278  30.022  13.705  27.669  0.0413  0.2042 -0.2823
36185W        W79279  30.842  10.491  24.196  0.0580  0.1451  0.0471
36186W        W79280  32.136  11.018  24.427 -0.2193 -0.0091 -0.0116
36187W        W79281  32.529  13.495  27.382 -0.0072  0.0895  0.1194
36188W        W79282  30.661  13.792  27.250 -0.2169 -0.2406 -0.1038
36189W        W79283  31.807  11.918  25.392  0.2741  0.0999 -0.2280
36190W        W79284  30.823  10.813  23.075 -0.0910  0.1021  0.4290
36191W        W79285  29.409  12.379  27.601 -0.2222 -0.2305  0.3137
36192W        W79286  29.561  14.167  24.496 -0.0520  0.1940  0.2379
36193W        W79287  30.756  13.757  25.106 -0.2242  0.2080 -0.1523
36194W        W79288  29.123  12.291  23.743 -0.2247  0.2797 -0.0160
36195W        W79289  33.445  12.951  25.708 -0.0668 -0.1162 -0.0454
36196W        W79290  30.949  12.218  26.640 -0.2349  0.2185  0.1951
36197W        W79291  32.365  12.188  26.201  0.1474 -0.1941 -0.3562
36198W        W79292  31.968  13.067  26.165  0.1492  0.1437 -0.3516
36199W        W79293  31.617   9.859  26.876  0.0322  0.1269  0.1068
36200W        W79294  28.290  11.025  23.315 -0.4383  0.1215  0.0531
36201W        W79295  31.860  11.196  24.004 -0.0086  0.1265  0.3373
36202W        W79296  29.013  14.019  23.588  0.1683  0.0826 -0.0638
36203W        W79297  32.719  11.040  27.571 -0.3542  0.0708  0.0316
36204W        W79298  31.050   9.502  25.263 -0.2168 -0.0062  0.2960
36205W        W79299  31.001  10.194  27.040  0.0631  0.1941 -0.0748
36206W        W79300  32.786  13.058  27.367  0.1096  0.3936  0.0557
36207W        W79301  31.836  12.053  26.042 -0.2993  0.2833  0.0959
36208W        W79302  31.103  11.646  26.895 -0.1793 -0.0615  0.2697
36209W        W79303  29.431  11.891  23.735 -0.1743  0.1141  0.0955
36210W        W79304  30.312  11.032  25.932  0.2494  0.1605 -0.4186
36211W        W79305  28.995  11.009  26.954  0.1382 -0.1862 -0.1732
36212W        W79306  29.875  12.956  28.129  0.3580 -0.0946 -0.2393
36213W        W79307  32.703  13.986  28.159 -0.3280  0.0498  0.0779
36214W        W79308  29.837  13.523  26.841 -0.2058  0.0580  0.0674
36215W        W79309  31.862  10.014  27.739  0.0162  0.0177 -0.0414
36216W        W79310  31.080  10.178  23.472 -0.5449 -0.1238 -0.0409
36217W        W79311  30.194  14.474  25.071  0.0906  0.0163 -0.3138
36218W        W79312  28.602  13.493  23.738  0.0291 -0.0388  0.0449
36219W        W79313  30.919  10.793  27.097  0.0693  0.1901  0.0070
36220W        W79314  32.242  12.954  27.216 -0.2612 -0.1010  0.1670
36221W        W79315  32.966  13.657  23.247  0.4156  0.2497  0.0569
36222W        W79316  32.487  12.090  27.554 -0.1971 -0.0100  0.0002
36223W        W79317  30.392  15.300  25.394 -0.1609  0.2178 -0.1791
36224W        W79318  32.954  10.350  26.932  0.1382  0.2563 -0.1193
36225W        W79319  27.926  14.005  25.588 -0.1848 -0.1089 -0.0341
36226W        W79320  30.829  11.614  24.849  0.2338 -0.0730  0.0907
36227W        W79321  26.038  12.003  24.964 -0.3427  0.2349  0.1313
36228W        W79322  33.236  10.716  25.473  0.0977  0.1391 -0.1087
36229W        W79323  30.910  12.688  26.004 -0.0034 -0.0239 -0.0993
36230W        W79324  31.873  11.264  26.522  0.2757 -0.2074  0.0636
36231W        W79325  30.504  11.338  28.086  0.3511  0.1767 -0.2235
36232W        W79326  31.164  13.286  27.786  0.2685  0.5399  0.2857
36233W        W79327  31.889  11.170  27.086  0.0630  0.4381 -0.0560
36234W        W79328  31.748  11.711  24.478 -0.0237 -0.0525  0.0667
36235W        W79329  32.100  12.533  27.571 -0.1270  0.1942 -0.0287
36236W        W79330  30.473  12.248  29.098  0.1667  0.0320 -0.0522
36237W        W79331  29.231  13.566  23.809 -0.3435  0.2786 -0.0240
36238W        W79332  32.641  11.521  25.958  0.4319  0.1944 -0.0249
36239W        W79333  30.244  13.367  26.598 -0.1611  0.2418 -0.0500
36240W        W79334  29.069  13.572  23.314  0.1112  0.3711  0.0082
36241W        W79335  31.624  13.875  27.121  0.1415  0.1744  0.1634
36242W        W79336  30.862  11.858  25.345  0.0837 -0.2430 -0.4111
36243W        W79337  31.002  13.394  25.377 -0.2140 -0.0189  0.1756
36244W        W79338  29.981  11.189  27.197  0.0512  0.0664 -0.2976
36245W        W79339  32.644  12.571  27.435 -0.0460  0.4009  0.2057
36246W        W79340  29.803  11.224  25.640 -0.1351  0.2128  0.5086
36247W        W79341  30.168  10.637  26.257 -0.2498  0.0573 -0.3133
36248W        W79342  31.308  11.253  26.480 -0.0607 -0.4639  0.1527
36249W        W79343  32.140  12.549  26.900  0.1185  0.2782 -0.1209
36250W        W79344  31.976  10.811  26.728 -0.1830 -0.1776  0.1840
36251W        W79345  30.755  12.882  28.021  0.1895 -0.1624  0.1141
36252W        W79346  30.447  11.497  25.256  0.1406  0.1377 -0.0854
36253W        W79347  32.074  15.581  24.715 -0.0332  0.4475 -0.1549
36254W        W79348  32.358  12.765  28.431  0.2651  0.0673  0.1966
36255W        W79349  30.427  12.526  25.845  0.4191  0.4756  0.0920
36256W        W79350  30.592  12.380  26.278 -0.2138 -0.1413  0.0998
36257W        W79351  31.261  13.526  25.907  0.0018 -0.0115 -0.2539
36258W        W79352  31.231  12.260  27.970 -0.1298  0.1267 -0.2205
36259W        W79353  29.334  13.251  25.540 -0.0951 -0.2808  0.1074
36260W        W79354  30.144  13.096  24.379 -0.1771 -0.1947 -0.0532
36261W        W79355  29.592  14.302  26.413  0.2085  0.0379  0.1070
36262W        W79356  32.772  11.045  25.747 -0.0062  0.0657  0.0070
36263W        W79357  31.882  12.568  26.028  0.3450 -0.0863  0.0396
36264W        W79358  30.121  11.281  24.734 -0.0197  0.3403  0.1308
36265W        W79359  33.540  11.778  27.404  0.3321  0.0562 -0.2043
36266W        W79360  31.464  12.776  25.935 -0.0530 -0.1283  0.0385
36267W        W79361  32.119   9.697  27.373  0.2646 -0.0957  0.1458
36268W        W79362  30.044  10.323  27.380 -0.1327  0.1272  0.0213
36269W        W79363  32.971  12.793  26.431 -0.0517 -0.2824  0.0826
36270W        W79364  29.123  10.544  26.596 -0.2788  0.0788  0.1617
36271W        W79365  29.815  15.462  27.928 -0.1323  0.1959 -0.0667
36272W        W79366  29.584  12.169  26.859  0.0462  0.1926  0.3238
36273W        W79367  29.896  10.264  25.381 -0.5333 -0.0331 -0.0963
36274W        W79368  30.352  10.790  23.370  0.1045 -0.0953 -0.3251
36275W        W79369  30.387  13.331  26.162  0.1448  0.3429 -0.0076
36276W        W79370  32.669  13.138  26.333  0.1585 -0.0402  0.2099
36277W        W79371  30.302  12.992  25.814 -0.2603  0.0217 -0.2289
36278W        W79372  32.252  10.290  25.903  0.1295  0.0772 -0.1468
36279W        W79373  32.225  11.638  27.747  0.1557 -0.0875  0.1370
36280W        W79374  31.903  10.326  26.888  0.0314  0.1174 -0.1202
36281W        W79375  30.824  14.431  25.485 -0.0393 -0.1686 -0.2832
36282W        W79376  29.161  13.725  25.601 -0.2912 -0.5205 -0.2342
36283W        W79377  32.045   9.830  28.239  0.0863 -0.3254 -0.2254
36284W        W79378  31.298  11.817  27.708  0.0177  0.0288  0.1106
36285W        W79379  30.945  10.058  26.082 -0.2035 -0.1099  0.2949
36286W        W79380  31.742  11.546  27.823  0.1542 -0.1117  0.0962
36287W        W79381  32.222  11.245  25.734  0.0405  0.0494 -0.0656
36288W        W79382  31.572  13.539  27.607  0.1385 -0.2169 -0.1946
36289W        W79383  30.034  10.859  26.738 -0.2261  0.1026  0.1664
36290W        W79384  31.577  15.154  26.892 -0.0439  0.2668 -0.1339
36291W        W79385  32.401  11.383  24.672 -0.0352  0.2291  0.0569
36292W        W79386  33.186  12.000  28.724 -0.1926  0.1820  0.1331
36293W        W79387  32.683   9.982  26.710 -0.1041 -0.1205  0.1061
36294W        W79388  31.370  13.632  24.756  0.1202 -0.1304 -0.3233
36295W        W79389  30.098  12.508  24.279 -0.3384 -0.1462  0.0881
36296W        W79390  32.448  12.934  27.768  0.3567 -0.0217 -0.2030
36297W        W79391  29.841  11.609  23.928 -0.1187 -0.1245  0.1629
36298W        W79392  32.787  10.504  27.444  0.2570  0.0357 -0.0644
36299W        W79393  31.961  14.604  24.543  0.0464 -0.0837 -0.1696
36300W        W79394  31.480  12.170  26.755  0.1839 -0.0262 -0.1887
36301W        W79395  31.539  11.650  25.082 -0.2753  0.2270  0.0689
36302W        W79396  28.944  10.379  23.840 -0.0375  0.0413 -0.0928
36303W        W79397  30.009  13.903  26.459 -0.0209 -0.1276  0.1550
36304W        W79398  30.615  11.665  23.362  0.0548 -0.1243  0.2062
36305W        W79399  29.273  12.326  24.994 -0.1644  0.1683  0.1108
36306W        W79400  31.553  11.511  26.872  0.1599  0.3058 -0.1177
36307W        W79401  33.150  11.522  27.300 -0.0612  0.0022  0.1286
36308W        W79402  30.701  10.348  23.076 -0.1342  0.1760  0.1248
36309W        W79403  33.188  11.004  27.373  0.0910  0.5311  0.0178
36310W        W79404  29.423  13.177  26.122  0.0919 -0.0260  0.0905
36311W        W79405  31.018  10.043  26.590 -0.1060 -0.3770  0.4302
36312W        W79406  29.824  14.643  25.955 -0.2270  0.1660  0.0902
36313W        W79407  29.549  12.408  28.289  0.0161 -0.1033 -0.0107
36314W        W79408  30.014  14.915  25.468  0.3471 -0.3209  0.2540
36315W        W79409  30.504  10.389  27.159 -0.1780 -0.2606 -0.0205
36316W        W79410  32.983  12.917  27.807 -0.0115  0.0155  0.0954
36317W        W79411  30.799  10.492  26.701 -0.1543 -0.0492 -0.0769
36318W        W79412  33.948  11.630  26.618 -0.1265 -0.0140  0.1370
36319W        W79413  31.839  12.962  26.888  0.2378  0.1377  0.1836
36320W        W79414  29.889  13.347  26.233  0.1211 -0.0704  0.1034
36321W        W79415  31.975  14.189  27.489  0.1238  0.1097 -0.2004
36322W        W79416  32.285  11.226  26.218  0.2027  0.0992 -0.0754
36323W        W79417  31.149  13.016  25.650  0.1579  0.0970 -0.1844
36324W        W79418  28.729  11.799  27.265 -0.2014  0.0102  0.1820
36325W        W79419  32.053  13.290  27.584  0.1664  0.2962 -0.1448
36326W        W79420  30.678  12.939  25.518 -0.2180  0.2602  0.0776
36327W        W79421  29.580  11.054  24.177  0.0874 -0.1881 -0.0775
36328W        W79422  31.463  12.630  24.452 -0.2857 -0.2809  0.2623
36329W        W79423  30.150  14.074  28.332  0.2780  0.0422 -0.1565
36330W        W79424  28.870  12.652  27.810  0.2499  0.3287  0.1012
36331W        W79425  29.777  14.192  25.039  0.1019  0.2517  0.0027
36332W        W79426  30.690  13.423  25.744  0.0632  0.3092 -0.0890
36333W        W79427  30.440  14.115  24.414  0.0802 -0.1911  0.0419
36334W        W79428  30.255  14.518  25.556 -0.0449 -0.1897 -0.1303
36335W        W79429  30.487  11.556  24.339 -0.1819  0.3167  0.1587
36336W        W79430  29.412  13.716  24.623 -0.1655 -0.2874 -0.0037
36337W        W79431  28.258  12.428  24.313 -0.1092 -0.1892  0.1712
36338W        W79432  31.069  14.603  24.955 -0.3438  0.2294 -0.4775
36339W        W79433  30.248  13.495  24.762 -0.2373 -0.1717  0.1229
36340W        W79434  33.450  14.017  28.865  0.0536 -0.1839 -0.1095
36341W        W79435  32.595  11.514  23.594  0.0190  0.1424  0.0304
36342W        W79436  32.579  13.695  26.064  0.1290  0.3595  0.0628
36343W        W79437  31.974  10.551  24.689  0.1075 -0.1426  0.1600
36344W        W79438  31.638  14.548  27.768 -0.2489  0.0313  0.0102
36345W        W79439  31.180  10.417  25.782  0.1653  0.5251  0.0076
36346W        W79440  30.493  10.693  25.335  0.1513 -0.0413 -0.0698
36347W        W79441  29.729  11.673  26.983 -0.2669 -0.1714 -0.3083
36348W        W79442  33.916  10.237  25.715  0.0525 -0.2040  0.1073
36349W        W79443  29.667  13.825  28.140  0.2440  0.0509  0.0607
36350W        W79444  31.586  13.767  25.326 -0.0299 -0.1794  0.0132
36351W        W79445  27.827  11.504  24.322  0.1111  0.1392  0.0457
36352W        W79446  31.268  11.447  27.318  0.1201  0.0544  0.3429
36353W        W79447  32.012   9.781  25.725 -0.2493  0.0984  0.0865
36354W        W79448  30.578  13.164  24.846  0.0891  0.4644  0.3059
36355W        W79449  30.707  11.428  27.158 -0.0176  0.2898 -0.1215
36356W        W79450  29.869  15.513  24.865  0.0408  0.3203 -0.3362
36357W        W79451  31.260  13.634  26.884 -0.0897 -0.0481  0.1088
36358W        W79452  29.418  14.119  25.407  0.1807 -0.1920 -0.0883
36359W        W79453  29.241  11.460  24.812 -0.1569 -0.3697  0.0178
36360W        W79454  33.305  11.828  26.486  0.2180  0.1556  0.2101
36361W        W79455  30.633  11.743  26.442  0.1979  0.0383  0.0221
36362W        W79456  34.097  11.560  27.115 -0.2418 -0.1913  0.1080
36363W        W79457  31.626  11.656  26.391 -0.1486  0.0729  0.2755
36364W        W79458  31.721  10.478  25.140  0.0400 -0.0520  0.0171
36365W        W79459  30.025  13.468  28.215 -0.0930 -0.1706 -0.1277
36366W        W79460  29.998  10.814  27.494 -0.2511  0.1850  0.0758
36367W        W79461  31.596  12.205  24.217  0.2379 -0.1641  0.0401
36368W        W79462  32.454  11.748  27.162  0.2688  0.2645  0.0683
36369W        W79463  31.300  11.349  24.755 -0.0356  0.0034  0.0866
36370W        W79464  32.146  16.527  28.631  0.1208 -0.1807  0.2431
36371W        W79465  30.458  12.060  25.552 -0.0272  0.0549 -0.3538
36372W        W79466  31.310  12.029  25.289  0.2125  0.2029 -0.0129
36373W        W79467  29.482  11.506  25.401 -0.1342  0.1258 -0.0676
36374W        W79468  31.175  12.745  26.436  0.3296  0.1530 -0.1147
36375W        W79469  32.440  15.549  27.235 -0.3159  0.1401  0.4219
36376W        W79470  29.984  10.664  24.034 -0.3978  0.0248 -0.0721
36377W        W79471  31.529  14.547  24.161  0.0387  0.4333 -0.0322
36378W        W79472  31.902  12.292  26.528 -0.0811  0.0809  0.1541
36379W        W79473  30.902  13.177  26.315  0.0021 -0.1120 -0.0736
36380W        W79474  31.500  11.326  25.482  0.1835 -0.1590  0.0895
36381W        W79475  31.727  12.761  26.469 -0.3448  0.1706  0.1027
36382W        W79476  31.554  10.815  26.507 -0.0121 -0.1666 -0.2191
36383W        W79477  32.228  14.040  26.339  0.0722  0.1733  0.1389
36384W        W79478  32.316  13.503  26.505 -0.0570 -0.3246 -0.1067
36385W        W79479  30.383  10.331  23.986 -0.3102 -0.3538 -0.0762
36386W        W79480  29.783  13.069  26.655  0.1047  0.4562  0.1913
36387W        W79481  29.392  13.561  25.147  0.2232 -0.0921 -0.0398
36388W        W79482  31.172  11.859  26.253  0.0636 -0.2946  0.3815
36389W        W79483  31.821  11.066  26.019 -0.1302 -0.2906 -0.3698
36390W        W79484  31.903  14.958  22.762  0.0605  0.3651 -0.0572
36391W        W79485  33.733  11.299  27.372  0.5137  0.1986 -0.2457
36392W        W79486  33.513  13.576  28.718 -0.0672 -0.1556  0.3988
36393W        W79487  29.682  12.921  28.552  0.0784  0.1234  0.0486
36394W        W79488  29.671  12.806  25.821  0.3150  0.0790 -0.0095
36395W        W79489  30.852  12.852  27.118 -0.3086 -0.0133  0.1269
36396W        W79490  30.253  15.211  24.151  0.2240  0.0364 -0.1385
36397W        W79491  29.890  14.052  25.528 -0.0875 -0.0224  0.0364
36398W        W79492  33.093  13.135  26.887 -0.1949  0.1943  0.0696
36399W        W79493  30.827  12.326  24.945  0.2036 -0.0372 -0.0409
36400W        W79494  32.899  13.540  26.561  0.1164 -0.3697  0.2017
36401W        W79495  29.346  10.615  26.114  0.0154 -0.0015  0.0377
36402W        W79496  32.767  10.650  24.993  0.1909  0.0418 -0.1804
36403W        W79497  31.730  10.081  24.786  0.1117 -0.0230 -0.0142
36404W        W79498  31.348  11.311  25.976 -0.0294  0.0058  0.0409
36405W        W79499  28.554  13.195  24.214  0.0424  0.2573  0.1379
36406W        W79500  30.531  12.703  25.069  0.1331 -0.1004 -0.0449
36407W        W79501  30.553  12.966  27.536 -0.0116  0.0187 -0.2801
36408W        W79502  30.773  11.679  28.622  0.2108 -0.4714 -0.2315
36409W        W79503  30.880  10.687  28.221 -0.0770 -0.1504  0.1403
36410W        W79504  29.125  12.847  25.867  0.1001  0.0414  0.2278
36411W        W79505  28.241  12.329  25.544 -0.2932  0.1415 -0.0103
36412W        W79506  30.907  14.890  26.574 -0.0820  0.0023  0.1885
36413W        W79507  29.679  10.416  24.476 -0.0231  0.0768 -0.2271
36414W        W79508  28.168   9.765  25.638 -0.2023  0.3303 -0.0480
36415W        W79509  32.253  13.792  25.121 -0.0279 -0.2643 -0.0701
36416W        W79510  30.726  15.000  24.794 -0.2822  0.3005 -0.1573
36417W        W79511  31.379  10.833  25.982 -0.0222  0.0583  0.1694
36418W        W79512  31.963  14.968  27.896  0.1680 -0.6067  0.0945
36419W        W79513  29.539  11.220  23.668  0.1880 -0.1158  0.0386
36420W        W79514  31.348  12.730  26.895 -0.3454 -0.1418 -0.0832
36421W        W79515  30.471  12.607  29.432 -0.3436  0.2209  0.2912
36422W        W79516  28.235  11.939  24.322  0.1040 -0.1803 -0.1764
36423W        W79517  30.993  10.889  26.495 -0.2086  0.0333  0.2379
36424W        W79518  30.467  14.015  25.545 -0.2531  0.2065 -0.0497
36425W        W79519  32.773  14.142  23.423 -0.0985  0.1588 -0.0416
36426W        W79520  31.188  14.714  27.533 -0.1117 -0.0408 -0.1660
36427W        W79521  29.920  14.171  26.035 -0.0522  0.3680  0.3079
36428W        W79522  30.078   8.912  27.654  0.0564 -0.1946  0.1946
36429W        W79523  32.009  13.140  25.281 -0.3973  0.2785  0.1813
36430W        W79524  32.091  14.438  27.985  0.0243 -0.1013 -0.1339
36431W        W79525  32.436  13.442  25.415 -0.0963  0.0285 -0.1717
36432W        W79526  31.269  10.620  26.874  0.3368 -0.1271 -0.2456
36433W        W79527  30.562  14.145  26.369 -0.0011 -0.1424 -0.1971
36434W        W79528  30.207  10.342  26.760 -0.2259  0.2364  0.1185
36435W        W79529  30.405  10.942  27.093  0.1158  0.0436 -0.1980
36436W        W79530  32.107  13.393  26.989  0.0730  0.0913 -0.0711
36437W        W79531  30.329  10.844  24.856 -0.3450 -0.0402 -0.4247
36438W        W79532  30.180  10.305  23.147  0.2596 -0.1286  0.0166
36439W        W79533  31.419  12.330  26.179 -0.1212  0.1987  0.1283
36440W        W79534  28.616  13.401  26.564 -0.1551  0.1474  0.1974
36441W        W79535  30.993  10.903  23.918  0.0267  0.2570 -0.1570
36442W        W79536  31.897  11.618  27.358  0.0162  0.0274  0.0850
36443W        W79537  29.584  13.788  26.233 -0.0455  0.2651 -0.0679
36444W        W79538  32.975  11.684  26.870  0.1300 -0.0931  0.2106
36445W        W79539  31.870  11.542  25.859 -0.1255 -0.2424 -0.0250
36446W        W79540  31.455  13.226  26.292  0.0965  0.0057  0.3157
36447W        W79541  32.634  12.782  26.964 -0.0035  0.1757 -0.0464
36448W        W79542  31.121  16.345  28.095  0.1774  0.2268 -0.0171
36449W        W79543  30.326  13.488  25.392 -0.1629  0.0844 -0.0631
36450W        W79544  32.020  13.717  25.547  0.3289 -0.0121 -0.4258
36451W        W79545  27.860  11.780  27.487 -0.1473 -0.1538  0.1061
36452W        W79546  30.733  13.088  24.306 -0.0241  0.2011 -0.0692
36453W        W79547  30.155  13.756  25.838 -0.0625 -0.1720 -0.2784
36454W        W79548  32.665  11.496  25.481  0.1574  0.2824 -0.0433
36455W        W79549  30.973  11.509  25.711  0.1271  0.1496  0.1607
36456W        W79550  30.741  12.405  25.411 -0.0194  0.2397  0.2425
36457W        W79551  29.764  14.847  27.757 -0.0802  0.1122  0.0120
36458W        W79552  32.614  12.210  27.057  0.0689  0.2608  0.0749
36459W        W79553  29.114  14.416  31.178 -0.1185  0.2276 -0.1088
36460W        W79554  30.327  12.691  28.061 -0.3083  0.2523  0.2944
36461W        W79555  32.229  11.365  26.848 -0.1521 -0.0512  0.0955
36462W        W79556  32.200  13.707  28.403  0.1126 -0.1941 -0.0821
36463W        W79557  29.029  12.315  29.291  0.0359 -0.1999 -0.2007
36464W        W79558  32.429  15.290  29.537  0.1939  0.1336 -0.2319
36465W        W79559  29.985  11.075  31.002 -0.2081 -0.0345  0.2280
36466W        W79560  31.839  13.899  30.013 -0.0042 -0.0576  0.0007
36467W        W79561  31.506  15.927  28.650  0.2864  0.0817 -0.0502
36468W        W79562  31.343  11.215  27.986 -0.0182  0.3685 -0.0209
36469W        W79563  30.171  11.914  30.621  0.0300  0.1205  0.0711
36470W        W79564  31.310  14.341  29.603  0.0293  0.2794  0.3503
36471W        W79565  30.641   9.938  27.826 -0.0350  0.2743 -0.0118
36472W        W79566  29.568  11.670  29.268 -0.4323 -0.1150  0.0788
36473W        W79567  31.972  13.456  29.780  0.1373  0.0333  0.0361
36474W        W79568  28.430  12.888  29.048  0.0549 -0.2562 -0.0257
36475W        W79569  29.467  12.660  29.272 -0.1936 -0.1146  0.2489
36476W        W79570  31.823  10.689  27.219 -0.2859  0.1293  0.1488
36477W        W79571  32.039  14.850  28.922 -0.1401  0.1295 -0.0090
36478W        W79572  30.465  12.547  31.287  0.0552  0.1513  0.1320
36479W        W79573  29.540  12.599  29.808 -0.1347 -0.1041  0.1441
36480W        W79574  30.922  12.847  29.313 -0.1613  0.0006  0.4281
36481W        W79575  29.861  11.338  26.650  0.1817 -0.0715  0.0176
36482W        W79576  29.012  13.055  30.365 -0.0427 -0.0151  0.1490
36483W        W79577  28.459  12.190  30.683  0.0139  0.3856 -0.2007
36484W        W79578  32.963  11.216  30.278 -0.1721  0.2018  0.1225
36485W        W79579  31.856  13.729  27.948  0.1286  0.2150  0.0035
36486W        W79580  31.269  14.298  31.128  0.3207  0.0675 -0.0852
36487W        W79581  33.419  14.663  30.012 -0.1297 -0.1294 -0.1506
36488W        W79582  31.177  12.356  31.550  0.1441  0.0239  0.2427
36489W        W79583  29.067  13.301  29.068  0.1627  0.1416 -0.0415
36490W        W79584  29.402  15.665  28.798  0.1311  0.0642  0.2044
36491W        W79585  29.988  12.338  29.476  0.1910  0.4294 -0.0307
36492W        W79586  32.397  14.646  28.445 -0.1152  0.4532  0.1976
36493W        W79587  31.131  14.733  30.457 -0.1726  0.0344 -0.0725
36494W        W79588  30.834  14.149  29.791  0.0122 -0.0726  0.0005
36495W        W79589  31.738  13.116  27.924 -0.4046  0.0304 -0.0884
36496W        W79590  31.849  15.004  30.900 -0.0400  0.1667  0.0188
36497W        W79591  30.816  14.565  30.831 -0.1292  0.0210 -0.2888
36498W        W79592  31.164  12.087  30.655 -0.0346 -0.1240 -0.2931
36499W        W79593  31.738  13.817  28.471 -0.1130  0.0052 -0.1642
36500W        W79594  30.555  12.872  29.028  0.1670  0.1238 -0.1343
36501W        W79595  31.385  14.261  28.447  0.0570 -0.2928 -0.2404
36502W        W79596  29.153  13.490  30.137  0.0457 -0.0251  0.1595
36503W        W79597  29.792  15.765  29.608 -0.0817  0.1978 -0.1082
36504W        W79598  33.289  11.570  30.074 -0.1340 -0.2630 -0.3457
36505W        W79599  31.188  13.164  28.516  0.3911 -0.3756 -0.1848
36506W        W79600  32.120  10.314  27.352  0.1846  0.2151 -0.3436
36507W        W79601  30.561  11.847  28.181 -0.1341 -0.1183  0.0498
36508W        W79602  32.728   8.969  27.110 -0.1489 -0.1482  0.0567
36509W        W79603  30.912  10.117  30.580  0.5332 -0.2045 -0.1612
36510W        W79604  30.094  16.141  29.654  0.2680 -0.1090  0.2326
36511W        W79605  31.372  11.567  29.987 -0.0165  0.1706  0.0653
36512W        W79606  32.187  14.095  30.925 -0.1568 -0.0195 -0.0985
36513W        W79607  32.313  13.237  28.598  0.0545  0.0587 -0.1414
36514W        W79608  30.612  11.623  30.847 -0.0519 -0.2833  0.1526
36515W        W79609  30.531  13.671  30.063  0.1033  0.0388  0.1307
36516W        W79610  28.875  13.812  30.925 -0.3159  0.2418  0.0120
36517W        W79611  32.794  14.254  27.142 -0.0363 -0.1304 -0.2599
36518W        W79612  32.288  14.191  28.416  0.1382 -0.2271  0.0737
36519W        W79613  32.071  15.062  28.381  0.2062  0.1301  0.3279
36520W        W79614  30.884  12.546  27.694  0.0601  0.2208  0.1773
36521W        W79615  29.318  13.036  29.994 -0.1641  0.1895  0.0186
36522W        W79616  29.590  13.444  29.804 -0.0117 -0.0736  0.1307
36523W        W79617  31.020  11.255  28.824  0.0360 -0.3031 -0.3644
36524W        W79618  31.709  14.172  31.300 -0.0097 -0.2053 -0.2725
36525W        W79619  30.511  13.474  31.057 -0.3906  0.2976  0.1144
36526W        W79620  32.163  11.862  29.045 -0.0654  0.0974 -0.1401
36527W        W79621  30.824  12.293  29.599 -0.1125 -0.0099 -0.0380
36528W        W79622  31.961  13.954  30.537 -0.0228  0.1062 -0.0540
36529W        W79623  33.021  12.178  26.602 -0.1492  0.0427 -0.2622
36530W        W79624  32.610  10.836  30.221 -0.5093  0.0324 -0.0015
36531W        W79625  33.393  11.384  30.588 -0.0410  0.0949 -0.2188
36532W        W79626  30.340  12.418  26.818  0.2836 -0.2835  0.7437
36533W        W79627  31.183  12.438  29.179  0.2644 -0.1814 -0.1523
36534W        W79628  32.349  15.007  30.797 -0.1351  0.0054  0.0821
36535W        W79629  33.884  13.227  27.735  0.1572  0.0504  0.1730
36536W        W79630  29.289  14.708  29.058  0.1685  0.2294  0.0889
36537W        W79631  29.931  12.775  31.907 -0.4431  0.1462 -0.2660
36538W        W79632  30.217  15.079  29.952 -0.2918 -0.2224  0.0225
36539W        W79633  30.393  14.075  27.644 -0.2590 -0.2865  0.0600
36540W        W79634  29.568  14.211  29.355 -0.5878  0.1321 -0.0934
36541W        W79635  29.581  14.193  28.865  0.1524  0.0912  0.0583
36542W        W79636  29.669  11.996  27.942 -0.0236 -0.2528 -0.1952
36543W        W79637  30.644  13.720  29.412  0.0164 -0.0071  0.4302
36544W        W79638  31.485  13.453  28.840 -0.1008 -0.0129 -0.0407
36545W        W79639  30.869  12.150  28.670 -0.2705  0.2739  0.0444
36546W        W79640  34.408  11.299  30.396 -0.0747  0.2194 -0.0516
36547W        W79641  30.099  13.405  29.708 -0.1389 -0.1503 -0.0472
36548W        W79642  33.140  14.928  28.161  0.0180  0.1060 -0.1426
36549W        W79643  31.502  10.258  27.215  0.2158  0.0581  0.1449
36550W        W79644  33.225  14.050  27.350  0.0953  0.0025 -0.1275
36551W        W79645  29.062  11.797  29.375  0.1812 -0.1840 -0.1792
36552W        W79646  30.623  12.455  30.160  0.0745 -0.1393 -0.0529
36553W        W79647  29.046  11.663  30.171  0.4823 -0.0598  0.1390
36554W        W79648  29.322  11.246  30.179 -0.2452  0.0343 -0.1465
36555W        W79649  33.622  11.397  31.385  0.1507  0.2560  0.0144
36556W        W79650  31.093  11.746  29.619  0.0553 -0.0042 -0.0185
36557W        W79651  31.102  12.541  30.083 -0.1155 -0.5129 -0.0957
36558W        W79652  30.990  14.094  29.320 -0.2362  0.0252  0.2067
36559W        W79653  30.991  12.787  28.812 -0.0089 -0.1511  0.2012
36560W        W79654  34.459  13.199  30.009 -0.0812  0.0331  0.1584
36561W        W79655  30.854  13.477  28.168 -0.4022  0.0752  0.1030
36562W        W79656  32.355  13.674  30.744  0.0852  0.1400 -0.1945
36563W        W79657  31.612  15.040  28.622 -0.2534  0.0691  0.1713
36564W        W79658  29.811  12.840  30.746  0.2611  0.0482 -0.0347
36565W        W79659  30.116  12.253  28.194  0.0381 -0.0016 -0.2869
36566W        W79660  29.865  15.404  28.627  0.0198  0.0305  0.4246
36567W        W79661  29.380  13.714  29.312  0.0078 -0.0569  0.2189
36568W        W79662  30.294  10.985  29.114  0.0835 -0.3055 -0.5316
36569W        W79663  33.336  14.479  28.374  0.0494  0.0260 -0.3414
36570W        W79664  30.559  12.138  30.997 -0.0368 -0.0233  0.0605
36571W        W79665  30.400  15.743  29.765 -0.1932 -0.0535 -0.2992
36572W        W79666  33.633  11.686  30.987 -0.0871  0.0495  0.0840
36573W        W79667  31.948  13.575  31.013  0.0151  0.0262 -0.1395
36574W        W79668  31.409  12.104  29.620  0.0836 -0.0818 -0.0714
36575W        W79669  30.934  11.908  27.290 -0.3197  0.2185  0.0163
36576W        W79670  31.660  14.850  29.559 -0.1687  0.0508  0.0570
36577W        W79671  29.871  12.290  28.955  0.3110 -0.4157  0.3034
36578W        W79672  28.687  14.618  28.438  0.2575  0.1731 -0.1679
36579W        W79673  32.366  15.579  29.062  0.1771  0.2354  0.2718
36580W        W79674  31.882  10.782  29.101  0.0031  0.1834 -0.0643
36581W        W79675  29.358  11.744  30.589  0.0754  0.1248 -0.2455
36582W        W79676  31.681  10.765  31.468 -0.1811 -0.0252  0.2532
36583W        W79677  31.143  12.373  27.158  0.0815 -0.0247  0.0552
36584W        W79678  28.347  14.431  30.668  0.1221 -0.2725  0.1234
36585W        W79679  31.693  11.759  30.381 -0.2484 -0.0369 -0.2117
36586W        W79680  31.797  13.013  28.835 -0.0257  0.2621 -0.2838
36587W        W79681  30.285  13.072  31.745  0.0792  0.0127  0.1455
36588W        W79682  32.436  14.386  27.725 -0.3762  0.0310  0.2067
36589W        W79683  32.238  11.247  28.042  0.3945  0.2573 -0.1655
36590W        W79684  31.899  11.501  28.284  0.2152 -0.2440 -0.1027
36591W        W79685  30.186  14.251  30.394  0.2404 -0.4295 -0.0940
36592W        W79686  32.990  13.870  29.760 -0.0473 -0.0252 -0.1503
36593W        W79687  31.329  14.678  28.782  0.1448  0.0471  0.1256
36594W        W79688  31.858  12.405  28.385 -0.1456 -0.2663  0.1161
36595W        W79689  33.925  14.820  29.101 -0.0911 -0.0648 -0.1515
36596W        W79690  29.082  12.699  29.678 -0.1255  0.0291 -0.1146
36597W        W79691  30.909  13.886  31.000 -0.1716 -0.0133 -0.0462
36598W        W79692  32.201  13.587  29.375  0.2956 -0.0179  0.0847
36599W        W79693  31.783  10.145  29.995 -0.2377  0.1583 -0.1857
36600W        W79694  32.124  12.162  27.229 -0.1283 -0.1787  0.1034
36601W        W79695  31.508  12.244  31.041 -0.2228  0.1330 -0.0225
36602W        W79696  29.532  14.665  28.118 -0.7280  0.2859 -0.0920
36603W        W79697  31.539  10.260  30.419 -0.1502 -0.0570  0.0745
36604W        W79698  31.133  10.739  30.349 -0.3236  0.0494  0.0735
36605W        W79699  29.995  12.011   0.600 -0.0114 -0.0802  0.2055
36606W        W79700  33.338  13.031   0.218  0.0369  0.0173 -0.0533
36607W        W79701  32.253  12.139  28.531  0.2248  0.0127  0.1288
36608W        W79702  31.870  11.395  30.082 -0.1132  0.2135  0.2373
36609W        W79703  29.409  11.723  28.640  0.0197 -0.0590 -0.3152
36610W        W79704  30.980  11.138  30.628  0.2100 -0.0431 -0.1107
36611W        W79705  30.531  14.174  29.081  0.0241  0.0154 -0.3995
36612W        W79706  29.777  14.405  30.646 -0.1819  0.4219  0.0088
36613W        W79707  32.027  13.205  31.424  0.3424 -0.1077  0.3760
36614W        W79708  31.831  13.276  28.363 -0.2784 -0.2163  0.0730
36615W        W79709  30.646  10.593  30.530  0.1410 -0.1559 -0.0516
36616W        W79710  31.357  12.223  28.594  0.1538  0.2362 -0.0234
36617W        W79711  31.184  14.313  27.929  0.2262 -0.0796 -0.0249
36618W        W79712  31.137  13.653  28.531 -0.2117  0.2244  0.0452
36619W        W79713  30.593  10.092  29.174  0.1451  0.3181 -0.0336
36620W        W79714  30.725  13.785  31.462  0.2490  0.2817  0.1606
36621W        W79715  30.437  13.509  28.486  0.0842  0.0339 -0.1898
36622W        W79716  32.478  13.125  30.725  0.3835  0.4056  0.0078
36623W        W79717  30.030  14.258  29.258 -0.0903  0.1366 -0.2897
36624W        W79718  34.106  10.869  29.559 -0.1007 -0.0950  0.0752
36625W        W79719  28.971  14.475  27.750 -0.0305 -0.1224 -0.0002
36626W        W79720  32.466  10.117  27.948  0.0863  0.0226  0.1003
36627W        W79721  29.305  10.688  29.357 -0.0275 -0.0592 -0.4455
36628W        W79722  32.763  11.722  30.210  0.0289  0.1129 -0.0045
36629W        W79723  32.204  11.078  28.535 -0.0656 -0.2849 -0.2696
36630W        W79724  30.308  11.248  29.950  0.0549 -0.3611  0.0295
36631W        W79725  32.556  12.170  30.377  0.0003 -0.2217 -0.0282
36632W        W79726  29.505  13.308  28.860  0.0137  0.1555  0.0932
36633W        W79727  31.599  12.426  29.977  0.1998 -0.0392 -0.1703
36634W        W79728  34.164  11.567  27.591 -0.1138  0.1695  0.0151
36635W        W79729  30.922  12.913  30.867 -0.2512  0.2341 -0.1549
36636W        W79730  30.188  11.826  31.685 -0.0869 -0.1607  0.0524
36637W        W79731  28.657  13.097  27.526 -0.3275 -0.2563 -0.1264
36638W        W79732  32.624  11.796  29.705 -0.2543  0.0629 -0.0485
36639W        W79733  30.097  12.406  30.934  0.0495 -0.1720  0.2691
36640W        W79734  28.934  14.258  30.108  0.0639 -0.2434 -0.0123
36641W        W79735  31.413  13.829  30.286  0.0269  0.0512 -0.0152
36642W        W79736  31.665  11.619  29.538 -0.0118  0.0336 -0.2092
36643W        W79737  30.744  13.946  28.293  0.0810 -0.0454 -0.0349
36644W        W79738  29.893  11.621  30.899  0.4802  0.2691  0.1889
36645W        W79739  31.700  12.763  31.419  0.3975  0.1289 -0.0442
36646W        W79740  31.497  12.640  28.760  0.0349 -0.0656  0.0094
36647W        W79741  30.772  11.419  29.745  0.1385  0.1080 -0.2961
36648W        W79742  31.655  12.322  30.541 -0.0744  0.0044 -0.0796
36649W        W79743  31.513  13.872  30.828 -0.0241 -0.0022 -0.1050
36650W        W79744  30.345  12.024   0.161  0.0413  0.2733  0.1991
36651W        W79745  31.050  13.564  30.631  0.0674  0.2921  0.4768
36652W        W79746  31.073  10.797  29.797 -0.3275 -0.1702  0.0245
36653W        W79747  33.186  14.423  28.935 -0.0238  0.1498  0.2093
36654W        W79748  31.229  12.606  30.600  0.1775  0.2373  0.3405
36655W        W79749  29.917  12.862  29.535  0.0784 -0.2355 -0.1926
36656W        W79750  29.627  11.275  30.594  0.2124  0.1278 -0.0372
36657W        W79751  30.296  12.235  29.825  0.1295  0.0454  0.1742
36658W        W79752  31.094  11.413  31.097 -0.1173  0.2227 -0.2948
36659W        W79753  30.301  15.355  29.387  0.0233 -0.0291 -0.2259
36660W        W79754  29.740  12.458  27.265  0.2588  0.1357  0.0985
36661W        W79755  30.319  13.650  30.606  0.2106  0.0130 -0.3091
36662W        W79756  32.203  11.608  28.656  0.3488  0.4370  0.3767
36663W        W79757  32.632  14.690  27.279 -0.1360  0.0059 -0.0224
36664W        W79758  31.954  12.381  28.860  0.0483  0.0193 -0.0139
36665W        W79759  32.874  11.996  30.861 -0.2004  0.2412 -0.1448
36666W        W79760  31.910  12.965  29.332 -0.0692 -0.1372 -0.1193
36667W        W79761  33.559  11.888  31.497 -0.0983 -0.0694 -0.1736
36668W        W79762  31.094  14.157  28.814  0.2027  0.1149  0.0507
36669W        W79763  32.583  14.699  30.366 -0.0985  0.1475  0.0419
36670W        W79764  29.798  10.664  29.178  0.3072  0.0533  0.0148
36671W        W79765  31.391  14.728   0.048  0.0919  0.2316  0.1989
36672W        W79766  30.809  12.838  29.830  0.0755  0.2728  0.0502
36673W        W79767  31.632  11.964  28.106  0.1480  0.0810  0.0260
36674W        W79768  31.026  12.646  28.304  0.2253  0.2628  0.0126
36675W        W79769  31.407  12.992  29.140  0.1058  0.1267 -0.0445
36676W        W79770  31.277  15.242  30.533 -0.1597  0.1005  0.1655
36677W        W79771  32.043  13.715  27.377  0.1931 -0.0207 -0.2309
36678W        W79772  32.759  12.343  28.824 -0.0788  0.0408  0.1927
36679W        W79773  31.215  13.767  29.706 -0.0589  0.1199 -0.0039
36680W        W79774  31.791  12.949  29.869 -0.0656  0.2079 -0.0584
36681W        W79775  32.068  12.782  28.063  0.0576 -0.1146  0.0162
36682W        W79776  31.135  14.227  30.650 -0.1034 -0.0782  0.0778
36683W        W79777  30.451  11.034  30.798  0.0113 -0.2524  0.0274
36684W        W79778  31.669  13.962  29.504 -0.2430 -0.2470  0.1038
36685W        W79779  32.286  12.178  29.765  0.0225 -0.1539  0.1453
36686W        W79780  32.089  10.534  31.185 -0.0294  0.1322 -0.0462
36687W        W79781  32.895  11.472  30.686 -0.2165 -0.2616  0.1218
36688W        W79782  30.646  12.554  30.651  0.2366 -0.0438 -0.7034
36689W        W79783  28.819  10.406  30.578 -0.0639 -0.0221 -0.0438
36690W        W79784  31.779  14.375  29.751  0.0899  0.2209 -0.0437
36691W        W79785  33.329  12.695  28.130 -0.0631 -0.0311  0.1166
36692W        W79786  33.998  12.826  31.405  0.0066 -0.0374 -0.0620
36693W        W79787  32.714  12.621  29.467  0.3054 -0.1582 -0.1221
36694W        W79788  31.719  12.462  27.907 -0.0830 -0.1053 -0.2251
36695W        W79789  29.859  12.134  30.061  0.0223 -0.1808  0.1467
36696W        W79790  32.215  12.585  30.694  0.0971 -0.2532  0.1640
36697W        W79791  30.831  10.780  28.731  0.2049  0.1799 -0.0237
36698W        W79792  31.327  13.032  30.149  0.1664  0.2081  0.1328
36699W        W79793  31.531  14.065  27.657  0.1335 -0.0992  0.0767
36700W        W79794  31.901  12.068  29.390  0.0951  0.2359 -0.3518
36701W        W79795  32.066   9.533  27.822 -0.1088 -0.3221  0.0630
36702W        W79796  30.271  11.749  29.974  0.0022 -0.6292 -0.5225
36703W        W79797  30.659  14.941  29.370 -0.4149 -0.0812  0.2053
36704W        W79798  30.682  12.373  28.150  0.0052  0.2168 -0.2559
36705W        W79799  32.301  13.355  28.050 -0.0032 -0.0163  0.1977
36706W        W79800  31.645  13.354  30.339 -0.0429 -0.2543  0.1164
36707W        W79801  32.792  12.032  31.399  0.1390 -0.0371 -0.0948
36708W        W79802  29.932   9.563  28.076  0.1261 -0.1650 -0.0217
36709W        W79803  33.081  12.088  30.281 -0.0816 -0.1879 -0.2005
36710W        W79804  29.502  12.155  29.540 -0.0710  0.1544 -0.1030
36711W        W79805  31.442  10.929  31.022  0.1277  0.1752 -0.0694
36712W        W79806  29.885  15.174  30.476  0.2502 -0.2286  0.1511
36713W        W79807  29.350  13.965  29.781  0.1543  0.0696 -0.0060
36714W        W79808  31.199  13.651  29.197 -0.3246  0.0085  0.0963
36715W        W79809  31.241   9.917  30.261 -0.1066 -0.1799 -0.1615
36716W        W79810  32.059  12.521  30.197  0.1488 -0.0367 -0.2049
36717W        W79811  31.303  12.044  30.214  0.0724 -0.1310 -0.0830
36718W        W79812  32.746  12.283  29.877  0.1532  0.0933  0.1323
36719W        W79813  31.630  12.747  30.920  0.3989  0.1752 -0.1432
36720W        W79814  29.775  11.693  30.262  0.0996 -0.2821  0.2607
36721W        W79815  33.227  14.968  30.864 -0.1013 -0.1798 -0.0061
36722W        W79816  32.213  12.464  29.382 -0.0669  0.3191  0.4138
36723W        W79817  29.389  12.531  28.765  0.0260  0.0914  0.0402
36724W        W79818  29.616  12.683  30.283  0.1265  0.1972  0.0121
36725W        W79819  30.899  12.652  31.895  0.1221 -0.0597 -0.3781
36726W        W79820  31.314  14.221  30.058 -0.0449 -0.1464 -0.0296
36727W        W79821  30.796  11.011  29.194 -0.0279  0.2325  0.0546
36728W        W79822  30.483  14.470  28.503  0.2981  0.2014 -0.1737
36729W        W79823  30.393  14.502   0.090 -0.2032  0.0733 -0.3214
36730W        W79824  29.324  13.205  29.487  0.1760  0.1662  0.0946
36731W        W79825  28.847  14.127  29.625 -0.3673 -0.1216 -0.1108
36732W        W79826  32.287  14.019  29.041  0.1019 -0.1321  0.4316
36733W        W79827  32.001  15.219  29.321  0.1323 -0.1977 -0.1191
36734W        W79828  31.487  13.388  29.837 -0.1744  0.1365 -0.1659
36735W        W79829  31.259  12.779  27.485 -0.3447  0.2534  0.1674
36736W        W79830  30.744  15.418  28.428  0.1667  0.2749 -0.0284
36737W        W79831  29.338  13.931  28.531  0.2953 -0.0768  0.2084
36738W        W79832  32.669  13.066  28.213  0.1054  0.0640  0.0734
36739W        W79833  31.087  14.708  29.244  0.1587  0.8793 -0.0053
36740W        W79834  31.157  13.890  31.745  0.3127  0.1158  0.0223
36741W        W79835  32.843  10.824  29.095 -0.0686  0.4115  0.2315
36742W        W79836  31.774  13.939  29.029  0.2122 -0.1194 -0.0023
36743W        W79837  32.785  12.018  28.243 -0.3335  0.1523 -0.1067
36744W        W79838  30.839  15.103  30.900 -0.0307 -0.1874 -0.1777
36745W        W79839  31.736  13.455  29.279  0.0429 -0.0536 -0.0468
36746W        W79840  32.344  10.716  27.594 -0.1147 -0.0726 -0.0854
36747W        W79841  31.344  13.147  30.729 -0.0384 -0.1772 -0.1505
36748W        W79842  32.797  11.764  31.849  0.2186 -0.0265 -0.0677
36749W        W79843  29.418  14.326  30.325 -0.2393 -0.3665  0.2430
36750W        W79844  32.467  15.073  28.860  0.2840  0.0242  0.1859
36751W        W79845  28.811  12.359  28.813 -0.0486  0.2889  0.0810
36752W        W79846  31.957  11.435  29.132 -0.1616  0.1521  0.0810
36753W        W79847  33.053  11.718  29.515  0.4269  0.1790  0.1595
36754W        W79848  29.681  12.888  27.541 -0.1364  0.1848  0.3030
36755W        W79849  30.664  12.058  30.495 -0.1284 -0.1189 -0.0134
36756W        W79850  30.311  15.235  27.632  0.1254 -0.0316 -0.1449
36757W        W79851  31.165  15.713  29.314 -0.1617 -0.0953  0.0173
36758W        W79852  30.912  14.705  29.766 -0.5590  0.0496 -0.1176
36759W        W79853  30.837  12.034  27.767  0.0358 -0.2399 -0.1010
36760W        W79854  31.630  11.735  30.950 -0.2143 -0.1586  0.5206
36761W        W79855  30.073  13.219  30.596 -0.0833 -0.0292  0.1866
36762W        W79856  31.983  10.534  30.229 -0.2276  0.2392  0.2041
36763W        W79857  30.873  11.533  29.176 -0.0450  0.0437 -0.1750
36764W        W79858  31.775  11.028  28.225  0.1632  0.1057 -0.0648
36765W        W79859  29.830  14.198  30.016  0.0871  0.0810  0.1396
36766W        W79860  28.288  12.646  30.324 -0.1361 -0.1017  0.1224
36767W        W79861  30.677  13.082  28.486  0.0093  0.1320  0.0680
36768W        W79862  31.226  11.920  31.893 -0.1396 -0.0581 -0.2821
36769W        W79863  32.263  13.944  27.812  0.0466  0.1337  0.1033
36770W        W79864  31.981  15.076  31.341  0.1322  0.1500  0.2967
36771W        W79865  30.501  10.947  29.612  0.2464  0.2080  0.1114
36772W        W79866  31.873  10.800  27.702  0.2733  0.2925 -0.1657
36773W        W79867  30.554  13.177  29.488  0.0814  0.2833 -0.0455
36774W        W79868  29.104  13.898  30.402  0.1254  0.2600 -0.0120
36775W        W79869  30.504  14.425  29.462  0.1752  0.1835  0.0793
36776W        W79870  29.804  11.951  28.381 -0.0432  0.2540  0.0951
36777W        W79871  32.918  12.533  28.376  0.2390 -0.1138  0.2973
36778W        W79872  32.956  12.174  29.438 -0.2102  0.4068 -0.1776
36779W        W79873  30.776  13.703  28.817  0.0627 -0.0238  0.0417
36780W        W79874  31.968  13.557  28.868 -0.4042  0.0623  0.1109
36781W        W79875  31.755  14.627  28.315  0.1216  0.0134 -0.0604
36782W        W79876  28.489  11.232  30.879  0.0860 -0.0684 -0.0920
36783W        W79877  32.132  14.967  29.749 -0.0156  0.0126  0.2338
36784W        W79878  32.146  14.463  30.576 -0.1633  0.1370  0.0532
36785W        W79879  30.541  10.804  30.111  0.0274  0.1065 -0.4501
36786W        W79880  29.212  12.578  30.835  0.0757  0.0302 -0.0727
36787W        W79881  29.739  14.759  28.695 -0.1604 -0.5385 -0.0192
36788W        W79882  32.243  11.724  30.113 -0.0083 -0.0883  0.0251
36789W        W79883  32.362  13.110  29.551  0.0391  0.1082 -0.0124
36790W        W79884  31.834  14.418  26.708  0.0140  0.1920  0.0057
36791W        W79885  31.831  10.768   0.448  0.0241  0.0223 -0.0912
36792W        W79886  31.296  13.805  31.315 -0.1856 -0.0402  0.0810
36793W        W79887  29.959  14.220   0.049  0.0248  0.4581 -0.1546
36794W        W79888  29.102  12.210  29.841 -0.1071 -0.0710 -0.0438
36795W        W79889  30.841  12.899  30.326  0.3047  0.1750 -0.1952
36796W        W79890  30.014  13.604  30.145 -0.1786  0.1801  0.1726
36797W        W79891  30.658  13.476  27.699  0.0045 -0.1721  0.0154
36798W        W79892  33.032  14.341  29.930  0.1403  0.2931 -0.0313
36799W        W79893  31.120  13.246  29.525  0.2119 -0.0634  0.0537
36800W        W79894  31.665  14.508  30.830  0.2319 -0.0600  0.1365
36801W        W79895  31.692  11.120  29.513 -0.0801  0.3736  0.1646
36802W        W79896  33.325  12.203  28.228  0.2365 -0.1758  0.1806
36803W        W79897  31.535  12.055  29.069 -0.1152 -0.1849  0.1924
36804W        W79898  29.900  12.710  31.351 -0.2806  0.0883 -0.0314
36805W        W79899  30.293  12.104  28.630  0.2211  0.0426 -0.2046
36806W        W79900  30.015  12.566  28.563  0.1575 -0.0162 -0.2023
36807W        W79901  29.832  13.843  29.596  0.1218  0.2603  0.0784
36808W        W79902  30.735  11.052  31.940  0.0473 -0.2301 -0.1503
36809W        W79903  28.537  11.922  29.810  0.0327  0.2706 -0.0521
36810W        W79904  28.970  12.825  29.114 -0.3590  0.0682 -0.2742
36811W        W79905  30.183  11.625  28.464  0.0852  0.1856 -0.0583
36812W        W79906  32.512  14.407  29.448  0.0424 -0.0206 -0.1468
36813W        W79907  30.172  10.442  29.441 -0.0086  0.0657  0.3145
36814W        W79908  28.743  11.124  29.228 -0.0979  0.3890  0.5557
36815W        W79909  32.364  12.642  29.844 -0.1382 -0.0788  0.1109
36816W        W79910  31.707  14.172  28.098  0.0306 -0.0811 -0.0390
36817W        W79911  31.365  12.744  29.630  0.2482  0.1678 -0.0162
36818W        W79912  32.931  14.055  31.524 -0.1875  0.1057  0.0785
36819W        W79913  30.300  13.879  28.779  0.1946 -0.1579  0.3419
36820W        W79914  28.746  12.047  31.476  0.3955  0.3033 -0.2152
36821W        W79915  30.228  11.233  31.595 -0.0744 -0.1802 -0.0893
36822W        W79916  29.414  11.010  26.465 -0.0491 -0.1970 -0.2235
36823W        W79917  31.024  13.218  28.990 -0.2354  0.0056 -0.1878
36824W        W79918  31.289  15.444  28.463 -0.0096 -0.0770  0.1097
36825W        W79919  31.346  15.562  27.817 -0.1759 -0.0532  0.1309
36826W        W79920  30.503  14.159  30.816  0.0534  0.2344  0.1573
36827W        W79921  31.228  14.082   0.226  0.2184 -0.1527  0.2530
36828W        W79922  30.043  11.881  29.167  0.2338 -0.1316  0.0664
36829W        W79923  31.505  12.812  28.272 -0.2791 -0.1504 -0.0398
36830W        W79924  29.611  14.458  31.359 -0.0967 -0.4259 -0.1899
36831W        W79925  31.694  12.504  29.279  0.2161  0.1101 -0.1749
36832W        W79926  33.134  12.741  29.133 -0.0649 -0.2791  0.1241
36833W        W79927  31.121   9.715  27.918 -0.0429  0.1249 -0.1515
36834W        W79928  28.640  11.599   0.385 -0.0305  0.3242  0.0656
36835W        W79929  29.821  13.354  29.226 -0.3039  0.0154  0.0498
36836W        W79930  33.379  13.233  29.071 -0.4881  0.5125  0.2866
36837W        W79931  31.028  11.197  30.119  0.2393 -0.1156  0.3766
36838W        W79932  31.480  10.686  28.095  0.0082  0.0407 -0.0378
36839W        W79933  31.601  15.023  29.123 -0.2137  0.1203 -0.0157
36840W        W79934  29.308  14.128  30.772 -0.2072  0.1238 -0.1786
36841W        W79935  31.346  13.838  28.064  0.0054 -0.3291 -0.2707
36842W        W79936  31.660  11.276  31.258  0.1210 -0.1426 -0.2742
36843W        W79937  32.576  14.174  29.926  0.2103  0.3898  0.2607
36844W        W79938  32.611  12.684  30.324 -0.2335  0.0695  0.0197
36845W        W79939  31.241  11.711  28.818  0.0959 -0.1382  0.0015
36846W        W79940  33.015  12.393  27.807 -0.0501 -0.1554 -0.2197
36847W        W79941  32.137  14.989  30.360 -0.1615  0.0228  0.0754
36848W        W79942  31.880  15.475  30.504 -0.0051  0.0627  0.1850
36849W        W79943  31.083  14.972  31.592  0.0696  0.1512 -0.1324
36850W        W79944  31.699  12.830  30.384  0.4824 -0.0315  0.0136
36851W        W79945  29.238   9.333  29.139 -0.0276  0.0982  0.0603
36852W        W79946  30.919  12.043  29.135  0.2659  0.1072  0.2033
36853W        W79947  31.832  12.000  29.861 -0.0107  0.1915 -0.2431
36854W        W79948  30.342  12.833  30.442 -0.0653  0.2805 -0.1832
36855W        W79949  29.416  12.089  29.038 -0.0615 -0.2590  0.0605
36856W        W79950  32.170  10.130  29.604  0.3045  0.0989 -0.5958
36857W        W79951  30.662  15.064  30.337 -0.2943 -0.1334  0.0045
36858W        W79952  32.162  13.003  30.258 -0.1422 -0.0021 -0.0005
36859W        W79953  31.088  11.535  31.557 -0.0426 -0.1700  0.1497
36860W        W79954  31.648  13.998  31.953  0.0728 -0.1740 -0.2272
36861W        W79955  28.550  12.418   0.224 -0.1949  0.0552  0.3488
36862W        W79956  29.575  13.327  30.350 -0.2889  0.0650  0.0895
36863W        W79957  29.649  14.637  29.683  0.0880  0.0543 -0.0945
36864W        W79958  30.710  14.626   0.660 -0.2366 -0.0302  0.0967
36865W        W79959  32.970  13.588  31.436  0.1458 -0.0796  0.1135
36866W        W79960  31.067  11.007  31.414  0.1025 -0.0988  0.0762
36867W        W79961  33.249  10.636   0.447  0.3777  0.0725 -0.1031
36868W        W79962  32.987  13.806  30.812 -0.0827  0.0739 -0.1778
36869W        W79963  30.419  14.402  31.504 -0.0564 -0.1892  0.1384
36870W        W79964  29.711  11.621  31.771  0.0751 -0.2496  0.2105
36871W        W79965  30.946  12.402  31.042 -0.0752 -0.1856 -0.2133
36872W        W79966  31.036  13.393  31.100  0.1249 -0.1235  0.0914
36873W        W79967  32.049  11.581  31.222  0.0279  0.0812  0.0332
36874W        W79968  30.610  13.837   1.051  0.2242  0.2580  0.0817
36875W        W79969  29.231  11.855   0.007 -0.1407 -0.1198 -0.1524
36876W        W79970  31.039  13.446  30.107  0.0582 -0.3214 -0.0460
36877W        W79971  30.021  12.032  31.222  0.0112 -0.3269 -0.0664
36878W        W79972  28.831  13.239  29.937  0.1335  0.3673 -0.0283
36879W        W79973  29.902  13.100  30.058 -0.0302  0.1637 -0.0152
36880W        W79974  30.319  15.546  31.156 -0.1936  0.3211  0.1921
36881W        W79975  33.100  11.641  31.316  0.1843 -0.1000 -0.0480
36882W        W79976  31.096  11.978  31.202 -0.0131  0.1107 -0.2455
36883W        W79977  31.116  10.516  31.355  0.0811 -0.0010 -0.0155
36884W        W79978  30.656  11.772  31.381  0.0535 -0.1601  0.2588
36885W        W79979  30.378  12.864  30.961  0.1492  0.0063  0.0437
36886W        W79980  28.201  15.588  31.659 -0.0292 -0.0256 -0.2137
36887W        W79981  29.374  12.115  30.240  0.0897  0.0707  0.0054
36888W        W79982  29.285  13.608  30.784  0.3555  0.1619 -0.0479
36889W        W79983  29.993  14.126  31.513 -0.2533 -0.2220  0.1853
36890W        W79984  31.174  11.406   0.149 -0.2414  0.3728 -0.0759
36891W        W79985  30.645  13.309  30.581  0.1284 -0.1934 -0.1805
36892W        W79986  31.624  11.596   0.171 -0.0377 -0.1986 -0.3568
36893W        W79987  27.665  11.336   0.570 -0.1804 -0.0849 -0.1194
36894W        W79988  31.494  13.443   0.040  0.1056  0.0174  0.3876
36895W        W79989  30.796  13.933  30.382  0.1328 -0.2338  0.1547
36896W        W79990  30.855  12.632   1.508 -0.0173  0.0321 -0.1829
36897W        W79991  31.175  13.060  31.684  0.0457 -0.0672 -0.0496
36898W        W79992  30.174  12.929   1.131 -0.1686 -0.0045  0.1739
36899W        W79993  33.647  11.387   1.070 -0.0925  0.0343 -0.0964
36900W        W79994  30.756  11.478   0.373  0.0232 -0.1526  0.0416
36901W        W79995  29.770  12.170  31.640 -0.0305  0.1532 -0.0799
36902W        W79996  29.555  12.715   0.366 -0.3083  0.2459 -0.1788
36903W        W79997  29.573  11.851  31.253  0.1335  0.1855 -0.0621
36904W        W79998  30.257  12.830   0.629 -0.0526  0.2470 -0.3217
36905W        W79999  32.235  10.897  30.545  0.1526  0.2790 -0.3006
36906W        W80000  30.293  15.174  30.844  0.2493  0.3147 -0.0029
36907W        W80001  32.752  15.106   0.036 -0.0305 -0.0857 -0.0138
36908W        W80002  29.716  14.202   0.453 -0.0550 -0.0041  0.0407
36909W        W80003  30.106  13.183  31.140 -0.2594  0.1965  0.2505
36910W        W80004  33.259  12.041   0.323  0.1068  0.2670  0.1443
36911W        W80005  31.457  10.871   0.772  0.1075 -0.2298  0.2572
36912W        W80006  31.333  14.370  31.609 -0.4959 -0.1688  0.2197
36913W        W80007  29.450  12.133   0.643  0.0461 -0.3560  0.2594
36914W        W80008  31.766  13.018  31.927 -0.1607  0.2067  0.1002
36915W        W80009  30.421  12.369   0.564 -0.2761  0.0380 -0.2198
36916W        W80010  29.510  14.925  31.241 -0.0889  0.0240  0.2767
36917W        W80011  31.321  16.217  30.831  0.1763  0.0746 -0.6617
36918W        W80012  29.231  12.115  31.547 -0.3174  0.2222 -0.3073
36919W        W80013  28.783  14.056  31.344 -0.1138  0.1902  0.0239
36920W        W80014  29.722  13.963  30.434  0.1005  0.2842  0.1942
36921W        W80015  28.931  12.118  30.935 -0.1236 -0.0935  0.1381
36922W        W80016  28.762  10.749   0.917  0.0026 -0.0758 -0.3367
36923W        W80017  32.171  13.970  31.867  0.0904  0.2026 -0.2627
36924W        W80018  33.081  13.562   0.982 -0.1638  0.0624  0.2453
36925W        W80019  32.896  13.190  31.045 -0.0052  0.0948 -0.0619
36926W        W80020  29.160  16.647  20.555 -0.1243  0.3929  0.4455
36927W        W80021  29.742  15.900  17.274 -0.2741  0.0652 -0.0035
36928W        W80022  31.166  14.407  16.418  0.0823 -0.2617 -0.0949
36929W        W80023  32.170  16.660  17.475 -0.0117 -0.3706 -0.0090
36930W        W80024  28.567  16.389  17.303 -0.0906 -0.2705 -0.1118
36931W        W80025  32.039  17.776  18.256  0.4287 -0.1207 -0.0772
36932W        W80026  29.449  15.395  18.220 -0.1735 -0.0072  0.1137
36933W        W80027  31.670  16.595  17.715  0.1219 -0.0189  0.1157
36934W        W80028  32.436  18.990  18.200 -0.2080  0.0421 -0.0958
36935W        W80029  31.938  16.950  17.848  0.2745  0.1002  0.1029
36936W        W80030  31.959  16.538  18.970  0.2356  0.1064 -0.2915
36937W        W80031  30.241  18.584  18.786 -0.0408 -0.3764 -0.1544
36938W        W80032  30.391  15.060  17.295  0.1858  0.3443 -0.1581
36939W        W80033  28.527  14.051  17.169 -0.4910  0.2230 -0.0633
36940W        W80034  32.383  16.092  18.241 -0.1106 -0.0064 -0.0981
36941W        W80035  30.126  16.771  17.094  0.0018 -0.1985 -0.0393
36942W        W80036  30.020  16.623  18.472 -0.1078  0.1969 -0.0644
36943W        W80037  31.171  15.604  17.365 -0.3110  0.1048  0.1540
36944W        W80038  29.675  20.058  17.850 -0.2256  0.1544  0.0611
36945W        W80039  30.558  15.511  19.572 -0.1992  0.2363  0.0537
36946W        W80040  30.441  14.696  20.152 -0.0127  0.2217 -0.1909
36947W        W80041  31.361  17.896  17.044  0.1544 -0.2083  0.3831
36948W        W80042  28.976  15.326  16.353 -0.0320  0.0847 -0.1008
36949W        W80043  28.717  14.609  17.271  0.0839 -0.2383 -0.1013
36950W        W80044  29.121  17.058  19.977  0.3432 -0.2554 -0.3774
36951W        W80045  31.171  13.319  18.542  0.1037 -0.0416 -0.4352
36952W        W80046  30.907  15.586  18.390  0.0493 -0.1266  0.2594
36953W        W80047  32.151  18.556  17.334  0.0825 -0.1750 -0.2275
36954W        W80048  30.786  18.499  18.060  0.1464  0.2516 -0.2089
36955W        W80049  31.724  15.593  19.809 -0.1661  0.0593 -0.1366
36956W        W80050  28.876  17.113  17.886 -0.0822 -0.1502  0.3378
36957W        W80051  27.327  19.206  18.629 -0.3850 -0.3861 -0.0542
36958W        W80052  31.021  17.712  17.316 -0.2455 -0.4237  0.0666
36959W        W80053  32.093  17.287  18.509  0.0538 -0.0815  0.2360
36960W        W80054  31.224  18.890  18.747 -0.4636  0.0051  0.0245
36961W        W80055  31.111  18.811  20.301  0.0187 -0.2838  0.3971
36962W        W80056  29.028  18.800  17.146 -0.0475 -0.0709  0.0768
36963W        W80057  31.709  19.507  19.684  0.1505  0.1958 -0.0176
36964W        W80058  31.504  18.295  19.287 -0.0044  0.1133 -0.1293
36965W        W80059  30.379  15.357  17.822  0.0274 -0.3741  0.2375
36966W        W80060  31.156  17.458  17.965 -0.0268 -0.2141 -0.0126
36967W        W80061  30.025  17.713  18.161 -0.0341 -0.2011 -0.0143
36968W        W80062  31.440  17.006  17.762  0.1366 -0.3347 -0.4394
36969W        W80063  30.819  16.487  19.900 -0.2343  0.0203 -0.2967
36970W        W80064  28.272  18.130  18.263  0.0871 -0.2307 -0.1138
36971W        W80065  31.787  16.642  19.488 -0.0214 -0.1058  0.2350
36972W        W80066  31.463  19.350  16.558  0.0657 -0.1405  0.0461
36973W        W80067  31.676  15.490  16.584  0.0395 -0.4952  0.0326
36974W        W80068  30.101  16.176  17.085 -0.0461  0.0804 -0.0710
36975W        W80069  30.505  15.420  17.026 -0.1715 -0.0154 -0.1627
36976W        W80070  29.230  14.664  18.823 -0.0129 -0.1939  0.2389
36977W        W80071  29.800  18.363  18.918  0.0492  0.1797  0.3957
36978W        W80072  30.266  15.924  18.786  0.0590  0.1766 -0.0039
36979W        W80073  30.768  18.047  19.906  0.1645  0.1051 -0.1901
36980W        W80074  30.580  16.527  17.880 -0.1605  0.2894  0.0817
36981W        W80075  31.367  16.424  19.661  0.4660 -0.0327  0.2614
36982W        W80076  30.126  17.569  18.621 -0.0608 -0.0656 -0.0334
36983W        W80077  29.313  15.858  18.448  0.2761 -0.4106 -0.0454
36984W        W80078  32.277  16.508  16.768  0.2107  0.3200 -0.0795
36985W        W80079  32.776  18.182  16.967  0.1194  0.2318  0.0603
36986W        W80080  30.824  18.226  16.474 -0.1139 -0.1776 -0.3333
36987W        W80081  28.966  16.558  17.680 -0.0076  0.0947  0.0242
36988W        W80082  28.137  16.369  19.721  0.0949 -0.1710 -0.0463
36989W        W80083  28.631  16.367  18.637  0.2228 -0.0065 -0.0942
36990W        W80084  31.143  14.851  17.368 -0.4278  0.0751 -0.2958
36991W        W80085  32.883  16.859  20.401 -0.0389  0.0220 -0.0559
36992W        W80086  29.437  16.758  17.885 -0.2209  0.0101 -0.3548
36993W        W80087  32.208  13.667  18.627 -0.0479 -0.0232  0.0045
36994W        W80088  31.039  16.280  19.044  0.0626 -0.0581  0.1247
36995W        W80089  29.868  17.953  19.721  0.0060 -0.4321 -0.1041
36996W        W80090  32.492  16.834  16.464 -0.0876 -0.0704  0.0554
36997W        W80091  30.936  15.889  18.742 -0.1719 -0.0064 -0.0286
36998W        W80092  31.534  14.562  19.286 -0.1474  0.3026  0.0581
36999W        W80093  29.534  16.568  16.374 -0.1332  0.0816  0.1092
37000W        W80094  30.349  17.447  17.866 -0.1716  0.0647 -0.0612
37001W        W80095  31.735  17.539  19.158  0.0812 -0.1078 -0.0511
37002W        W80096  33.369  17.115  16.975 -0.0917  0.1209  0.2531
37003W        W80097  28.285  17.160  18.958  0.0544  0.1854  0.0635
37004W        W80098  29.989  15.503  19.713  0.0857  0.2234 -0.1224
37005W        W80099  31.559  17.935  20.380 -0.1211 -0.1257 -0.0507
37006W        W80100  28.647  16.719  16.925 -0.1094  0.1528  0.1606
37007W        W80101  29.183  16.821  18.303  0.1382 -0.0351  0.0250
37008W        W80102  30.533  16.722  17.392  0.0774 -0.3970 -0.1654
37009W        W80103  29.402  14.219  17.755 -0.1833  0.1515 -0.0386
37010W        W80104  29.593  18.035  18.275  0.0687 -0.1362  0.0911
37011W        W80105  32.149  15.962  17.173 -0.0570  0.2885 -0.1591
37012W        W80106  28.543  14.914  18.315  0.3113  0.0457 -0.2793
37013W        W80107  31.335  15.422  18.134  0.1632  0.2756 -0.1777
37014W        W80108  29.508  16.291  18.200  0.2008 -0.0664 -0.0741
37015W        W80109  31.025  18.704  17.514 -0.1729 -0.0166  0.3462
37016W        W80110  31.457  16.253  17.008  0.4228  0.0681  0.2930
37017W        W80111  31.940  18.653  16.844 -0.0305  0.0752  0.0920
37018W        W80112  28.977  16.532  19.073 -0.2781  0.0162 -0.1453
37019W        W80113  29.938  15.256  18.226 -0.0612 -0.1408 -0.0628
37020W        W80114  29.563  14.936  18.515  0.0096  0.0747 -0.0109
37021W        W80115  28.216  13.129  19.777  0.0451  0.0303  0.0719
37022W        W80116  31.949  15.191  18.954 -0.1645 -0.0726  0.0150
37023W        W80117  29.703  15.501  17.734 -0.2591  0.3839 -0.1623
37024W        W80118  31.205  14.944  18.055 -0.0821 -0.0955 -0.3021
37025W        W80119  31.107  16.975  17.011 -0.1867 -0.1049 -0.1783
37026W        W80120  29.247  17.470  17.722 -0.2589 -0.0341 -0.0496
37027W        W80121  32.458  15.465  18.966 -0.0675 -0.0543 -0.2492
37028W        W80122  32.583  16.862  16.930 -0.0528  0.3260 -0.1027
37029W        W80123  31.345  18.003  18.853 -0.1499 -0.2182  0.3970
37030W        W80124  33.198  18.455  17.477  0.2225  0.3176  0.2854
37031W        W80125  29.635  14.390  20.636 -0.0758 -0.0548  0.1048
37032W        W80126  30.154  14.662  17.457  0.2508 -0.0433  0.0127
37033W        W80127  29.521  16.655  18.737  0.1499  0.2851  0.1249
37034W        W80128  30.631  15.927  17.907  0.1213 -0.2872 -0.1056
37035W        W80129  29.603  16.454  17.272 -0.3438  0.3878 -0.0963
37036W        W80130  33.904  18.781  18.564 -0.2790  0.1048 -0.0569
37037W        W80131  31.217  17.800  16.466  0.1421 -0.0284 -0.0535
37038W        W80132  28.598  18.293  18.837  0.1535  0.1059  0.2311
37039W        W80133  31.370  14.090  18.162 -0.0566 -0.0128  0.1195
37040W        W80134  31.795  18.210  18.074  0.1033  0.2827 -0.0801
37041W        W80135  32.080  15.718  17.605  0.2240 -0.1364 -0.2534
37042W        W80136  30.196  14.692  16.943  0.1949  0.2440  0.2750
37043W        W80137  31.777  18.747  17.918 -0.2319 -0.0157 -0.0470
37044W        W80138  29.600  17.473  16.725 -0.1444 -0.2919 -0.1073
37045W        W80139  29.352  14.997  17.158  0.1028 -0.0411 -0.1431
37046W        W80140  30.524  17.712  18.255  0.1779 -0.1592  0.2391
37047W        W80141  31.883  15.388  18.045  0.2397  0.2910  0.1205
37048W        W80142  30.307  16.483  20.291 -0.0191 -0.1009 -0.1245
37049W        W80143  32.167  14.351  20.437 -0.0656 -0.0134  0.0393
37050W        W80144  29.290  15.829  17.955  0.3031 -0.1046 -0.1800
37051W        W80145  29.546  17.298  19.851  0.2792  0.0110 -0.1980
37052W        W80146  30.780  14.971  16.963 -0.2780  0.2536 -0.2195
37053W        W80147  32.164  14.035  18.286 -0.2411 -0.0986 -0.0773
37054W        W80148  31.230  16.496  21.080  0.0528  0.1359 -0.1116
37055W        W80149  32.117  17.037  17.008 -0.0433  0.0299 -0.2711
37056W        W80150  31.503  14.748  15.995 -0.2477  0.1748 -0.1662
37057W        W80151  31.282  14.818  16.861 -0.1153  0.0415 -0.1048
37058W        W80152  30.665  17.816  20.323  0.0351 -0.2386 -0.4890
37059W        W80153  30.340  18.087  17.895 -0.3983 -0.1604 -0.2891
37060W        W80154  30.558  17.264  18.462  0.1031 -0.1824  0.1783
37061W        W80155  30.986  14.453  16.867 -0.0603 -0.1255 -0.1585
37062W        W80156  33.402  17.555  18.083  0.0685  0.0120 -0.0061
37063W        W80157  28.279  15.951  17.567  0.1871 -0.0261  0.2615
37064W        W80158  30.361  17.690  19.814 -0.3262  0.1186  0.0665
37065W        W80159  32.610  17.726  18.040 -0.2681 -0.1721 -0.0743
37066W        W80160  30.490  15.411  20.981  0.0761 -0.0925  0.3024
37067W        W80161  29.646  16.008  16.226  0.1888  0.1359  0.3031
37068W        W80162  31.360  15.244  17.663 -0.2561  0.0004  0.6285
37069W        W80163  29.978  18.195  16.956 -0.3392 -0.0587  0.2558
37070W        W80164  31.494  15.147  19.407 -0.3471 -0.0241 -0.1096
37071W        W80165  31.679  14.734  17.494 -0.0672  0.2889 -0.0447
37072W        W80166  31.590  15.544  20.355  0.1383  0.4573  0.1547
37073W        W80167  32.958  16.792  19.922 -0.1027 -0.1525  0.2168
37074W        W80168  32.446  16.339  17.214 -0.1350 -0.2096  0.0532
37075W        W80169  30.953  16.645  18.686  0.0629  0.1082 -0.0750
37076W        W80170  28.752  16.579  16.013  0.2925 -0.2214 -0.1173
37077W        W80171  30.300  15.398  18.796  0.1795 -0.3080  0.1644
37078W        W80172  29.053  15.863  19.912  0.1329 -0.0523 -0.2469
37079W        W80173  28.950  17.148  20.430  0.1230  0.2878 -0.2818
37080W        W80174  31.148  16.885  19.686  0.1149  0.1361 -0.4332
37081W        W80175  32.382  16.764  17.934  0.0563 -0.0862  0.3969
37082W        W80176  31.594  15.000  19.935  0.2604 -0.0660  0.1881
37083W        W80177  31.717  15.337  18.540  0.0263 -0.0537  0.0450
37084W        W80178  31.263  17.283  17.387  0.2236  0.0674  0.1022
37085W        W80179  31.668  17.610  17.229  0.0514  0.2372  0.0411
37086W        W80180  28.932  15.053  17.491 -0.0355  0.0281 -0.1184
37087W        W80181  29.693  17.837  18.746 -0.4172  0.2599  0.0163
37088W        W80182  30.550  16.948  16.952  0.3549  0.1836 -0.1255
37089W        W80183  31.575  16.249  18.130 -0.1667  0.1018 -0.0458
37090W        W80184  30.463  17.753  17.119 -0.0335  0.0764  0.1912
37091W        W80185  31.489  14.510  17.938 -0.1164  0.4074  0.0606
37092W        W80186  28.726  16.729  18.183 -0.1129 -0.5076  0.2464
37093W        W80187  28.635  15.339  16.686 -0.3475 -0.1271 -0.3029
37094W        W80188  28.623  17.005  17.395 -0.1250  0.0588 -0.1549
37095W        W80189  30.597  14.545  17.230 -0.4181 -0.1061 -0.0009
37096W        W80190  32.058  16.228  17.601 -0.0438  0.0996 -0.0699
37097W        W80191  29.137  16.292  18.675 -0.1982 -0.1401  0.1608
37098W        W80192  31.247  15.422  19.062 -0.2581  0.1996 -0.2650
37099W        W80193  28.288  17.507  20.591  0.1205  0.0190  0.1074
37100W        W80194  30.880  16.634  20.500  0.3534 -0.2198  0.0107
37101W        W80195  32.788  13.510  16.749 -0.2747  0.0881  0.1085
37102W        W80196  31.611  18.920  20.677 -0.3276 -0.0095  0.0192
37103W        W80197  30.823  16.260  19.490  0.0385 -0.1177 -0.1785
37104W        W80198  27.449  14.269  17.832 -0.0529  0.0063 -0.0054
37105W        W80199  31.545  16.768  18.172 -0.0370 -0.1165 -0.0612
37106W        W80200  29.672  14.834  17.984  0.0015  0.2331  0.1540
37107W        W80201  28.449  16.674  17.728 -0.2449  0.1249  0.0242
37108W        W80202  30.262  18.610  17.778 -0.4098  0.1021 -0.0211
37109W        W80203  30.120  16.465  17.560  0.0217  0.0422 -0.3197
37110W        W80204  29.851  17.373  17.407  0.1193 -0.1779 -0.1445
37111W        W80205  30.010  15.488  20.251 -0.0412 -0.0141 -0.1085
37112W        W80206  31.272  18.574  19.884 -0.2519 -0.2020 -0.1217
37113W        W80207  30.253  15.698  18.327 -0.4140  0.1186 -0.1890
37114W        W80208  29.018  15.038  18.233  0.1750 -0.1349  0.1591
37115W        W80209  31.053  16.305  17.830 -0.3977  0.1562  0.0419
37116W        W80210  29.541  17.636  19.447 -0.2068  0.1509 -0.2072
37117W        W80211  30.716  15.873  19.227 -0.2645  0.2638  0.0454
37118W        W80212  29.558  17.878  20.738 -0.2789  0.0575 -0.0684
37119W        W80213  30.930  14.152  19.028  0.3474 -0.0096 -0.1891
37120W        W80214  33.193  17.978  16.731 -0.1153  0.2812 -0.0764
37121W        W80215  31.560  16.247  19.100 -0.3252  0.1836  0.1551
37122W        W80216  29.810  17.166  17.852  0.3602  0.1089  0.1673
37123W        W80217  27.647  15.668  17.670  0.2089  0.0993 -0.0282
37124W        W80218  30.865  17.878  16.856 -0.3476 -0.2771 -0.2045
37125W        W80219  31.986  14.688  19.023 -0.0953 -0.1457  0.0926
37126W        W80220  29.566  17.532  18.369 -0.1067  0.0108  0.1094
37127W        W80221  30.152  17.819  17.526 -0.1605  0.1751  0.1951
37128W        W80222  30.082  17.203  18.329  0.1483  0.0353  0.2161
37129W        W80223  32.083  14.892  16.555 -0.0679 -0.3598 -0.4344
37130W        W80224  32.225  17.834  16.716 -0.3524 -0.2277 -0.1973
37131W        W80225  31.340  16.169  18.598  0.1702 -0.1679 -0.0132
37132W        W80226  32.514  15.932  19.138  0.0709 -0.2560 -0.2791
37133W        W80227  31.414  16.161  17.522 -0.3228  0.0072  0.1170
37134W        W80228  32.323  14.816  20.476 -0.1589 -0.2280 -0.0965
37135W        W80229  30.526  16.062  18.421 -0.2293  0.1789 -0.2464
37136W        W80230  32.341  17.109  17.546  0.0959  0.1372 -0.3272
37137W        W80231  29.283  15.285  18.765  0.1318 -0.2629 -0.0866
37138W        W80232  30.443  18.643  21.821 -0.1111  0.2117  0.3055
37139W        W80233  29.468  16.449  19.233 -0.0517  0.0443 -0.0909
37140W        W80234  30.674  16.235  17.500 -0.0960 -0.0572  0.1811
37141W        W80235  30.703  15.220  16.538 -0.3359  0.0293  0.0052
37142W        W80236  30.519  16.763  18.352 -0.2029 -0.1307  0.0376
37143W        W80237  31.091  17.596  18.955 -0.0807 -0.0814  0.3374
37144W        W80238  30.715  18.267  17.598 -0.1506  0.0053  0.1906
37145W        W80239  31.594  14.885  18.397 -0.1187  0.2240 -0.2405
37146W        W80240  29.552  16.195  17.716 -0.1918 -0.2198  0.2676
37147W        W80241  31.782  14.363  18.350 -0.2430 -0.5564  0.0574
37148W        W80242  31.957  17.106  16.527  0.1034  0.0546  0.0256
37149W        W80243  30.223  16.229  18.060  0.0586  0.1824  0.0299
37150W        W80244  30.696  14.586  19.385  0.0200 -0.0316 -0.0324
37151W        W80245  30.655  14.967  18.747  0.1166  0.2242  0.2081
37152W        W80246  31.122  15.780  17.820 -0.1533  0.0193 -0.0742
37153W        W80247  31.343  15.990  21.124  0.1919 -0.0075  0.0162
37154W        W80248  32.028  16.022  19.058  0.2882 -0.0704 -0.1107
37155W        W80249  30.436  16.026  19.739  0.1693 -0.1890 -0.0235
37156W        W80250  28.817  16.265  19.648  0.1446  0.2001 -0.1233
37157W        W80251  31.160  18.796  18.114 -0.1248  0.1010 -0.1916
37158W        W80252  32.916  14.995  16.342  0.1372 -0.0728 -0.1996
37159W        W80253  32.416  15.147  20.024 -0.0409 -0.1858  0.3543
37160W        W80254  32.575  16.226  17.821  0.1682  0.4072  0.1273
37161W        W80255  31.755  15.633  17.242 -0.2257 -0.2694  0.3216
37162W        W80256  30.116  14.935  18.582  0.2067 -0.0645  0.3029
37163W        W80257  31.195  17.767  20.053 -0.2663 -0.0355  0.2169
37164W        W80258  30.658  15.701  17.466 -0.2242  0.0728 -0.0347
37165W        W80259  32.194  13.484  19.450  0.0001  0.1068  0.0326
37166W        W80260  30.800  17.397  17.028  0.0445  0.0810 -0.0883
37167W        W80261  31.072  16.526  18.240  0.1342 -0.2824  0.2311
37168W        W80262  31.934  14.255  16.859 -0.2293 -0.2237  0.1125
37169W        W80263  27.658  16.196  17.548 -0.1649  0.0050  0.1848
37170W        W80264  29.190  17.274  19.485  0.0394  0.0340 -0.0924
37171W        W80265  29.152  14.551  17.494  0.0675 -0.0781 -0.0028
37172W        W80266  30.254  16.905  17.799  0.2965 -0.3816  0.3380
37173W        W80267  31.853  16.280  18.546 -0.4187  0.2574 -0.1236
37174W        W80268  31.664  14.974  20.446  0.3734 -0.2671 -0.2596
37175W        W80269  32.056  14.393  16.405 -0.1446 -0.0334  0.1454
37176W        W80270  33.041  16.418  21.125 -0.2982  0.3155  0.1878
37177W        W80271  29.194  17.913  17.334  0.2086  0.2417 -0.1942
37178W        W80272  30.879  15.358  17.891 -0.1153  0.1009 -0.0400
37179W        W80273  28.394  17.552  19.454 -0.0663  0.1971  0.1601
37180W        W80274  30.386  16.942  20.489 -0.1383  0.0400 -0.0218
37181W        W80275  31.616  19.442  17.878  0.1810 -0.0503  0.1938
37182W        W80276  31.416  14.074  19.324  0.2530  0.0869 -0.0939
37183W        W80277  31.005  14.675  19.022 -0.1359  0.2152  0.0678
37184W        W80278  31.255  15.885  19.340 -0.4156  0.1119  0.1413
37185W        W80279  31.684  15.631  19.312  0.0490  0.0819  0.0190
37186W        W80280  30.771  16.718  19.272 -0.1400  0.0633 -0.1438
37187W        W80281  31.417  15.932  19.915  0.0576  0.1824  0.3140
37188W        W80282  31.718  18.949  20.185 -0.1785 -0.1754  0.0367
37189W        W80283  31.626  17.518  17.808  0.2787 -0.0566  0.0257
37190W        W80284  31.086  18.029  17.984  0.0025  0.0776 -0.1091
37191W        W80285  27.990  15.111  20.503  0.0581 -0.4079 -0.0100
37192W        W80286  29.952  16.487  18.982  0.0720 -0.2509  0.0244
37193W        W80287  32.055  16.432  18.056  0.0346 -0.3759  0.1753
37194W        W80288  29.959  15.084  17.670  0.1811 -0.0232  0.2776
37195W        W80289  31.166  19.093  16.214 -0.0270 -0.1235  0.2599
37196W        W80290  29.343  18.592  19.025 -0.2068 -0.0490  0.0900
37197W        W80291  27.822  16.765  18.752 -0.2518  0.0053  0.1863
37198W        W80292  29.446  19.165  17.828 -0.1119 -0.1700  0.1327
37199W        W80293  33.170  16.180  16.315 -0.0623 -0.2269  0.1781
37200W        W80294  30.989  16.056  18.274 -0.1920  0.0235  0.1386
37201W        W80295  31.215  19.494  18.766 -0.1401 -0.0181  0.2381
37202W        W80296  30.842  15.214  17.415  0.0185 -0.1721  0.2346
37203W        W80297  30.789  18.004  19.184  0.0222  0.1563 -0.0959
37204W        W80298  26.895  17.639  16.617  0.0410 -0.1392  0.1070
37205W        W80299  31.872  18.025  17.062 -0.0155  0.0272  0.3017
37206W        W80300  30.714  17.786  17.739  0.0453  0.2800 -0.0963
37207W        W80301  30.555  19.647  20.608  0.0284 -0.2065  0.2893
37208W        W80302  31.886  15.244  17.555 -0.0797 -0.0723 -0.4354
37209W        W80303  32.040  16.847  18.307  0.2091 -0.0471 -0.2363
37210W        W80304  32.608  15.863  17.012  0.0814 -0.1599 -0.0175
37211W        W80305  30.871  19.278  19.986  0.3274 -0.1670 -0.1115
37212W        W80306  30.414  16.382  18.816  0.2280 -0.1901  0.2497
37213W        W80307  30.549  15.759  16.568  0.2560 -0.0118 -0.1687
37214W        W80308  28.731  17.166  19.297 -0.2135 -0.2525  0.1742
37215W        W80309  32.937  14.916  20.217 -0.3286  0.0407 -0.0945
37216W        W80310  29.361  17.998  19.751 -0.2877  0.0173  0.3171
37217W        W80311  31.710  19.097  16.952 -0.2670 -0.0611 -0.3178
37218W        W80312  30.081  15.526  17.424  0.0164 -0.0973  0.0966
37219W        W80313  30.451  15.229  18.350  0.0742  0.1104 -0.1293
37220W        W80314  32.531  14.369  18.127  0.0302  0.0375 -0.1942
37221W        W80315  31.000  16.838  17.707 -0.1398  0.1972  0.0289
37222W        W80316  29.114  15.967  19.381  0.2078  0.1720 -0.2104
37223W        W80317  29.763  18.019  17.348  0.2219 -0.1955 -0.6543
37224W        W80318  27.747  17.597  17.650 -0.0729 -0.0859 -0.0291
37225W        W80319  30.369  17.733  19.316 -0.1417  0.0525  0.0193
37226W        W80320  30.338  13.908  17.304  0.2135 -0.0069  0.0883
37227W        W80321  32.579  15.858  17.541 -0.2088  0.0846 -0.1231
37228W        W80322  29.389  16.236  19.743 -0.0199 -0.0792  0.2337
37229W        W80323  32.628  15.535  19.437  0.1748  0.0034  0.0154
37230W        W80324  29.836  15.805  18.126  0.2621  0.0881 -0.0110
37231W        W80325  32.775  15.378  17.689  0.0501  0.0346  0.3541
37232W        W80326  29.078  16.551  20.041  0.2214 -0.0606 -0.2839
37233W        W80327  28.138  17.146  19.436 -0.2628 -0.2724 -0.3022
37234W        W80328  31.412  16.104  16.530  0.0179  0.0409  0.1011
37235W        W80329  31.555  16.881  20.031 -0.0941 -0.0959  0.2467
37236W        W80330  31.590  15.687  17.712 -0.0448  0.0324 -0.1253
37237W        W80331  30.561  18.462  19.233  0.0856  0.0134  0.0084
37238W        W80332  28.970  15.421  17.898 -0.0431 -0.3906  0.0344
37239W        W80333  31.015  14.477  17.894 -0.1424  0.0037  0.0861
37240W        W80334  27.968  16.641  17.789  0.1174  0.1235  0.1726
37241W        W80335  30.801  17.384  19.969  0.3985  0.2500 -0.0733
37242W        W80336  29.791  19.570  20.262  0.2547 -0.1545 -0.0038
37243W        W80337  29.156  15.647  17.507 -0.0256 -0.2214  0.1114
37244W        W80338  32.759  17.783  16.562 -0.0062 -0.3963  0.0377
37245W        W80339  32.433  15.627  18.043  0.0572  0.2314  0.1565
37246W        W80340  30.221  18.656  16.924  0.1803  0.1225 -0.0435
37247W        W80341  31.414  18.464  17.730  0.0473  0.1546  0.1970
37248W        W80342  31.836  18.280  17.547 -0.1893  0.2487  0.1387
37249W        W80343  29.523  14.669  20.053 -0.0842  0.3362  0.3427
37250W        W80344  31.554  19.208  19.107 -0.0151 -0.1505 -0.0056
37251W        W80345  31.088  17.240  19.382 -0.3643 -0.1400 -0.0948
37252W        W80346  30.628  14.457  18.671  0.0263 -0.0572  0.4398
37253W        W80347  29.160  16.182  17.379  0.1570  0.0711  0.0384
37254W        W80348  29.469  18.928  17.306  0.0241 -0.1573 -0.0604
37255W        W80349  32.728  13.940  18.186 -0.1745  0.0153 -0.0368
37256W        W80350  31.558  15.755  18.367 -0.1425 -0.2124  0.0523
37257W        W80351  30.847  18.494  16.033  0.0728 -0.0677 -0.3289
37258W        W80352  33.231  15.599  20.636  0.1500  0.0996  0.0726
37259W        W80353  30.314  18.115  18.901 -0.2072 -0.0629 -0.1485
37260W        W80354  30.423  16.857  18.812  0.1770  0.0260 -0.2197
37261W        W80355  29.295  16.579  16.895  0.3354  0.1785  0.0041
37262W        W80356  31.054  15.384  19.514  0.0809 -0.1007 -0.1845
37263W        W80357  30.588  17.701  18.806  0.0444 -0.2290  0.1192
37264W        W80358  30.638  18.422  16.883  0.0830  0.2165  0.2211
37265W        W80359  30.939  19.467  18.047 -0.0247 -0.1604  0.1315
37266W        W80360  31.546  16.746  17.210 -0.1535  0.1687 -0.2950
37267W        W80361  31.498  17.793  18.189  0.0442 -0.1977  0.0395
37268W        W80362  30.344  16.250  19.298  0.1912  0.0011  0.2658
37269W        W80363  31.467  13.881  17.110  0.0700 -0.0273 -0.2658
37270W        W80364  32.672  14.137  17.562 -0.3548  0.0647  0.3106
37271W        W80365  28.825  16.001  18.401  0.2659  0.3244 -0.3155
37272W        W80366  28.938  16.268  16.853 -0.0071 -0.2991  0.1163
37273W        W80367  29.414  17.712  16.325  0.0631 -0.1391 -0.1660
37274W        W80368  30.440  18.382  18.369 -0.0206 -0.0323  0.1602
37275W        W80369  30.344  15.262  19.984  0.0535  0.2347  0.1533
37276W        W80370  29.007  17.628  18.569  0.2142  0.3463 -0.2779
37277W        W80371  29.812  16.844  17.499  0.1543  0.1102 -0.1355
37278W        W80372  30.535  15.936  17.024 -0.1641  0.1072  0.2283
37279W        W80373  32.867  17.225  16.339  0.3027  0.1343  0.1958
37280W        W80374  29.672  13.774  17.819 -0.1059  0.0400  0.3696
37281W        W80375  27.904  14.934  17.133  0.0730  0.2214 -0.0808
37282W        W80376  30.666  17.138  18.014  0.2328  0.0501  0.4148
37283W        W80377  32.411  17.339  16.716 -0.2195 -0.0703 -0.0730
37284W        W80378  30.769  14.776  18.319 -0.0545 -0.1694 -0.0082
37285W        W80379  31.179  16.201  20.692 -0.0544  0.0730  0.3006
37286W        W80380  29.815  18.201  16.136 -0.1139 -0.1062  0.0904
37287W        W80381  30.519  17.164  19.527 -0.3116  0.2913  0.1920
37288W        W80382  30.613  14.960  19.702  0.0295  0.0051 -0.2221
37289W        W80383  27.676  15.597  16.674  0.1102  0.2527 -0.1043
37290W        W80384  30.926  15.835  19.722  0.3061 -0.1090  0.0884
37291W        W80385  31.394  17.918  17.617  0.1084 -0.2493  0.1348
37292W        W80386  32.673  17.580  17.566 -0.1528  0.1691  0.2635
37293W        W80387  30.303  14.753  19.069  0.3960  0.0109  0.2677
37294W        W80388  31.071  18.400  19.044  0.0094  0.0116 -0.0346
37295W        W80389  28.304  15.521  19.330  0.0153  0.0788  0.0781
37296W        W80390  32.201  17.519  17.210 -0.0500  0.1127 -0.1013
37297W        W80391  29.900  16.438  20.007  0.3585  0.0076 -0.0674
37298W        W80392  33.141  17.631  17.674  0.1299  0.3949  0.0568
37299W        W80393  31.523  15.776  18.878  0.0185 -0.2528  0.0073
37300W        W80394  31.977  15.848  18.101  0.0572  0.0377 -0.1908
37301W        W80395  29.084  14.523  20.243 -0.1229 -0.0295  0.1605
37302W        W80396  29.209  17.064  20.920  0.0980 -0.1098  0.0761
37303W        W80397  32.298  17.324  18.958 -0.0618  0.0818 -0.3350
37304W        W80398  30.160  13.504  17.510  0.0860  0.1848 -0.1153
37305W        W80399  31.412  15.273  17.102  0.0120 -0.1243  0.0032
37306W        W80400  31.445  17.359  16.390  0.2566 -0.0629 -0.1222
37307W        W80401  29.431  14.919  20.546 -0.0831 -0.0480  0.0187
37308W        W80402  31.238  16.633  16.673  0.1688  0.1383  0.2359
37309W        W80403  29.478  16.267  20.265 -0.1253 -0.1230 -0.0826
37310W        W80404  31.035  17.047  18.388  0.1410 -0.2015 -0.1896
37311W        W80405  31.292  19.264  20.491  0.0346 -0.1610  0.1153
37312W        W80406  31.098  16.514  17.331  0.4343  0.0678  0.1116
37313W        W80407  32.744  17.207  17.246 -0.2122  0.0008 -0.1425
37314W        W80408  30.572  20.096  19.495 -0.0407  0.2557  0.2155
37315W        W80409  31.768  19.460  20.262 -0.1584  0.0437  0.2423
37316W        W80410  31.963  19.134  18.163  0.0190 -0.2394 -0.2124
37317W        W80411  30.841  17.666  19.576 -0.3201 -0.1935  0.2510
37318W        W80412  29.135  14.155  18.731 -0.0272 -0.0842 -0.1963
37319W        W80413  30.068  15.959  17.669  0.1734 -0.1235 -0.1011
37320W        W80414  29.392  15.095  17.667  0.1766 -0.2849 -0.0813
37321W        W80415  31.411  14.230  18.859 -0.2681 -0.0487  0.0860
37322W        W80416  29.362  15.531  19.675 -0.1621  0.2154 -0.2046
37323W        W80417  30.983  13.908  17.267  0.1800 -0.0815 -0.2346
37324W        W80418  29.668  16.961  18.312  0.2063  0.3526 -0.3506
37325W        W80419  31.161  16.294  20.194 -0.0003 -0.1470 -0.1009
37326W        W80420  30.444  17.891  22.089 -0.2202  0.0822 -0.0828
37327W        W80421  29.021  14.625  21.456  0.1017 -0.0857 -0.3361
37328W        W80422  33.166  15.905  21.267 -0.0958 -0.0987  0.4638
37329W        W80423  32.356  16.092  23.818  0.1808 -0.1981 -0.3214
37330W        W80424  28.521  15.528  21.268  0.2549 -0.1830  0.2960
37331W        W80425  32.103  19.143  20.591 -0.1650  0.1034  0.2457
37332W        W80426  31.111  12.762  24.127 -0.2644 -0.0105  0.0745
37333W        W80427  31.684  17.193  20.874 -0.0181  0.0687 -0.1382
37334W        W80428  32.041  16.575  22.234  0.1343 -0.1027  0.1282
37335W        W80429  31.408  17.376  20.347 -0.0504 -0.0087  0.2275
37336W        W80430  29.646  15.365  21.829 -0.2495  0.2497  0.0429
37337W        W80431  30.560  17.420  21.894 -0.1547  0.1190  0.0116
37338W        W80432  31.827  14.884  21.137 -0.0951  0.1610 -0.3852
37339W        W80433  29.290  12.903  22.220 -0.0693  0.3310  0.4680
37340W        W80434  33.053  17.339  22.950 -0.0436  0.4787  0.0769
37341W        W80435  29.524  16.324  22.035 -0.1604 -0.1212  0.2516
37342W        W80436  29.972  14.794  22.875  0.1334  0.0141  0.1979
37343W        W80437  30.004  15.923  21.421 -0.1200  0.2982 -0.0484
37344W        W80438  31.604  17.945  21.333 -0.1768 -0.1316  0.0649
37345W        W80439  29.528  15.583  23.426 -0.0646 -0.1100 -0.1173
37346W        W80440  30.711  13.712  22.748 -0.0168 -0.1423 -0.0938
37347W        W80441  30.331  18.618  19.781  0.0197 -0.1139  0.3360
37348W        W80442  29.599  15.522  19.187 -0.1769  0.2657  0.1538
37349W        W80443  30.422  15.710  21.794  0.1134 -0.0571  0.0829
37350W        W80444  29.536  14.296  23.407  0.2873  0.1122  0.3133
37351W        W80445  31.126  13.689  22.336 -0.0110 -0.1406  0.0883
37352W        W80446  31.796  14.129  22.363  0.0299 -0.0819  0.1474
37353W        W80447  31.001  17.608  22.583 -0.1118 -0.0834 -0.2597
37354W        W80448  31.535  18.067  23.773 -0.2940  0.1180  0.0349
37355W        W80449  31.328  16.665  23.685  0.0683 -0.1814  0.1263
37356W        W80450  29.157  17.160  22.375  0.1738 -0.0908 -0.0749
37357W        W80451  30.188  17.725  21.648 -0.1275  0.4540 -0.0323
37358W        W80452  30.106  17.761  20.486  0.3833  0.2372  0.2430
37359W        W80453  32.721  17.518  21.048  0.1203  0.3402  0.3492
37360W        W80454  31.875  17.486  22.507 -0.2074 -0.0119  0.0045
37361W        W80455  30.624  18.294  23.132 -0.1564  0.0795  0.4388
37362W        W80456  29.167  17.548  20.859  0.2184 -0.3480  0.1787
37363W        W80457  30.704  17.795  23.995 -0.1551 -0.0905  0.0855
37364W        W80458  30.124  17.816  22.596  0.0568 -0.1034 -0.1048
37365W        W80459  30.392  15.307  22.380  0.1131  0.3065  0.1085
37366W        W80460  30.906  15.089  22.288 -0.0724  0.1033  0.1071
37367W        W80461  29.609  16.762  19.773 -0.2891 -0.0990  0.0973
37368W        W80462  31.620  16.817  21.222  0.0341 -0.2247  0.2636
37369W        W80463  30.136  17.990  24.311  0.0242 -0.0937 -0.1077
37370W        W80464  29.360  16.697  21.672 -0.1818 -0.0656 -0.1437
37371W        W80465  32.288  15.271  24.115 -0.1637 -0.2613 -0.0074
37372W        W80466  30.335  17.373  20.214 -0.0586  0.1019  0.0086
37373W        W80467  32.101  16.484  20.302 -0.0693 -0.1821 -0.0709
37374W        W80468  31.041  15.743  20.234 -0.0923  0.2425 -0.0426
37375W        W80469  31.672  16.029  20.408 -0.2062  0.0091 -0.2659
37376W        W80470  30.981  14.192  23.082 -0.2512  0.0321 -0.0390
37377W        W80471  29.541  17.808  21.248 -0.1588  0.1239 -0.0810
37378W        W80472  30.423  14.365  23.027  0.1075 -0.2353  0.2388
37379W        W80473  33.529  17.367  23.131 -0.0290 -0.0265  0.0701
37380W        W80474  30.561  15.855  21.339 -0.0303 -0.0585  0.3705
37381W        W80475  30.897  14.872  23.677 -0.1651  0.2974  0.1330
37382W        W80476  32.040  17.580  24.527  0.1250  0.1739  0.2196
37383W        W80477  29.955  15.496  20.979  0.0413  0.3712  0.0671
37384W        W80478  31.680  19.955  20.374  0.1223  0.1916  0.1034
37385W        W80479  31.723  17.928  24.226  0.2217  0.1337  0.0559
37386W        W80480  31.107  18.885  20.887  0.2542 -0.0970  0.1360
37387W        W80481  29.416  14.059  20.914 -0.1866 -0.0776 -0.1563
37388W        W80482  30.742  16.213  22.674  0.0468  0.1794 -0.2181
37389W        W80483  29.251  16.702  24.666  0.0330  0.0119  0.1611
37390W        W80484  30.154  14.155  18.630 -0.0626  0.0896 -0.3646
37391W        W80485  33.547  16.934  24.345 -0.2431 -0.0972 -0.1574
37392W        W80486  29.520  17.123  23.185 -0.0127  0.3266 -0.0136
37393W        W80487  32.082  16.173  20.750 -0.0765 -0.0790 -0.2107
37394W        W80488  30.029  17.351  21.293  0.0052  0.1832  0.2017
37395W        W80489  32.691  16.748  25.531  0.0851  0.1852  0.0891
37396W        W80490  31.617  18.471  20.240 -0.0317  0.1848  0.0210
37397W        W80491  32.095  15.202  21.933  0.1031 -0.0747 -0.0622
37398W        W80492  31.296  14.635  23.212 -0.2389 -0.1351  0.0637
37399W        W80493  29.829  15.998  20.595  0.2927  0.1225  0.1495
37400W        W80494  30.611  16.149  20.430 -0.0273 -0.0889 -0.0899
37401W        W80495  32.857  17.751  23.157  0.0184  0.0326 -0.2219
37402W        W80496  32.186  16.485  19.787 -0.2569  0.1729  0.1116
37403W        W80497  30.627  17.934  22.732 -0.1942 -0.4587 -0.0261
37404W        W80498  30.498  15.602  23.249  0.0052 -0.3015 -0.1637
37405W        W80499  32.428  17.758  25.591  0.3613  0.3421 -0.0465
37406W        W80500  30.479  19.218  20.970 -0.0142 -0.1643  0.0121
37407W        W80501  29.823  16.085  23.300 -0.2325  0.0077 -0.2423
37408W        W80502  30.592  14.652  22.244  0.1002 -0.1538  0.3422
37409W        W80503  28.185  13.691  23.598  0.0406  0.1416 -0.1759
37410W        W80504  31.420  17.309  22.384  0.0245 -0.0702 -0.1035
37411W        W80505  32.758  15.454  20.824  0.0214 -0.3332  0.1125
37412W        W80506  29.309  13.968  23.060 -0.2639 -0.0880 -0.0600
37413W        W80507  33.349  15.639  22.079 -0.0427  0.0352  0.2138
37414W        W80508  29.534  15.747  20.117 -0.1278  0.1730 -0.0303
37415W        W80509  31.827  17.741  23.079  0.0142  0.0652 -0.0995
37416W        W80510  32.177  16.060  21.339 -0.0169  0.2756 -0.1076
37417W        W80511  30.343  16.521  19.709 -0.1532  0.1324 -0.1976
37418W        W80512  28.790  16.473  24.606 -0.2719 -0.2375 -0.2279
37419W        W80513  30.251  13.957  21.117 -0.0273 -0.2772 -0.2850
37420W        W80514  30.252  15.708  25.113 -0.1781  0.0541  0.3817
37421W        W80515  29.262  15.053  22.642  0.0193  0.0043  0.0867
37422W        W80516  32.534  16.318  22.786 -0.1054 -0.1173  0.0670
37423W        W80517  29.799  15.663  18.668 -0.2572 -0.1406  0.2271
37424W        W80518  31.591  15.311  20.896 -0.0631 -0.0843 -0.2619
37425W        W80519  30.764  16.969  21.703 -0.3689 -0.0286  0.2635
37426W        W80520  29.375  13.501  21.493  0.0596 -0.1441 -0.1219
37427W        W80521  31.301  14.297  25.420 -0.0993  0.1335  0.6545
37428W        W80522  30.771  18.904  21.346  0.0018  0.1500 -0.1352
37429W        W80523  32.061  18.576  23.007  0.1286  0.1121  0.0533
37430W        W80524  31.902  18.116  20.035  0.2414  0.1589 -0.2718
37431W        W80525  31.218  15.561  24.088 -0.4227 -0.2994 -0.1014
37432W        W80526  29.509  15.818  21.599 -0.0530  0.4027  0.2307
37433W        W80527  30.447  18.041  21.331  0.0856 -0.1490 -0.2568
37434W        W80528  30.805  17.389  20.450  0.0604 -0.0588  0.3659
37435W        W80529  30.704  14.824  20.937  0.0200  0.1112 -0.2618
37436W        W80530  32.602  18.344  21.586 -0.3698  0.0395  0.0358
37437W        W80531  30.523  16.924  20.004 -0.2729  0.0882 -0.1852
37438W        W80532  30.364  16.609  23.054 -0.1771 -0.0788 -0.1043
37439W        W80533  31.189  13.674  22.973  0.0118 -0.1563 -0.0076
37440W        W80534  32.483  16.866  24.769 -0.0268 -0.0005  0.0508
37441W        W80535  32.991  17.065  22.507  0.1590  0.0647 -0.0421
37442W        W80536  29.505  16.042  18.909 -0.1715  0.2920 -0.1124
37443W        W80537  31.541  17.839  22.162  0.0527  0.1272  0.0304
37444W        W80538  30.286  16.439  21.313 -0.0652 -0.2194  0.0526
37445W        W80539  30.428  15.001  20.550 -0.1458 -0.3233  0.3195
37446W        W80540  30.819  16.381  22.195 -0.1633  0.2454  0.3097
37447W        W80541  32.675  14.287  21.909  0.2710  0.2157 -0.2123
37448W        W80542  30.132  16.492  23.437  0.0718  0.1673 -0.0200
37449W        W80543  31.612  16.414  22.797 -0.4233 -0.1605  0.0144
37450W        W80544  29.751  14.995  20.970 -0.1495 -0.1301  0.2017
37451W        W80545  30.258  18.775  23.060  0.0839 -0.1332 -0.1398
37452W        W80546  32.714  14.889  20.782 -0.1363 -0.1571  0.2423
37453W        W80547  31.776  15.771  20.910  0.1598 -0.0970 -0.0816
37454W        W80548  31.493  17.379  22.948 -0.1441 -0.1778  0.1725
37455W        W80549  32.629  16.087  22.308  0.0143  0.1558  0.0278
37456W        W80550  32.442  15.982  20.495  0.0140  0.2156 -0.1869
37457W        W80551  31.619  16.294  20.874 -0.0025 -0.1660 -0.2162
37458W        W80552  30.049  17.474  22.098 -0.0753  0.1542 -0.1331
37459W        W80553  30.663  18.258  20.498 -0.2263 -0.0423 -0.0565
37460W        W80554  31.500  16.558  21.979  0.2803  0.1194 -0.2465
37461W        W80555  31.839  16.138  19.539 -0.2246 -0.0208  0.1794
37462W        W80556  32.508  17.784  22.250  0.0252 -0.3032 -0.2713
37463W        W80557  29.440  16.096  24.103 -0.1033 -0.0783 -0.0048
37464W        W80558  30.534  18.550  24.619 -0.0043 -0.2025  0.0956
37465W        W80559  31.060  16.927  20.162 -0.1050 -0.3946  0.0054
37466W        W80560  28.848  14.905  22.515  0.1413 -0.2886  0.0561
37467W        W80561  30.049  17.028  19.995  0.1182 -0.3478  0.0477
37468W        W80562  32.294  15.669  21.001 -0.2066  0.2495 -0.0137
37469W        W80563  30.155  16.873  19.288  0.0860  0.0371 -0.1440
37470W        W80564  32.129  14.488  22.636 -0.4432  0.0280 -0.1419
37471W        W80565  32.089  14.853  22.292  0.4594  0.0915  0.0318
37472W        W80566  30.547  14.832  24.059  0.2386  0.3219 -0.1468
37473W        W80567  31.134  14.907  22.871  0.0358  0.3288 -0.2840
37474W        W80568  31.796  17.108  20.394 -0.1434  0.1241  0.1413
37475W        W80569  30.483  16.623  22.507 -0.1663  0.0122  0.3454
37476W        W80570  29.870  16.420  19.519  0.1357  0.0415  0.2839
37477W        W80571  30.620  14.877  21.718  0.2460 -0.2746 -0.0154
37478W        W80572  31.247  16.965  22.825 -0.0179  0.0842 -0.1982
37479W        W80573  29.769  18.049  22.932  0.1946 -0.3391  0.1598
37480W        W80574  31.154  16.717  25.006 -0.2197 -0.1732 -0.0755
37481W        W80575  32.052  15.673  20.501 -0.0308  0.0869 -0.2732
37482W        W80576  31.146  15.680  23.452  0.1529  0.0100  0.0952
37483W        W80577  30.867  14.817  20.502 -0.1114  0.1125  0.0772
37484W        W80578  29.982  17.378  19.627  0.2185  0.1715  0.0625
37485W        W80579  30.604  18.947  20.242 -0.1156 -0.1193  0.0245
37486W        W80580  30.318  14.266  21.596 -0.2237  0.0633 -0.0592
37487W        W80581  31.779  17.079  22.106 -0.1638 -0.4122 -0.2708
37488W        W80582  30.967  17.413  20.924  0.2499 -0.0649 -0.0420
37489W        W80583  31.154  16.048  22.455 -0.0067 -0.0814 -0.1276
37490W        W80584  29.847  16.811  21.324 -0.1928  0.1709  0.0094
37491W        W80585  32.225  14.429  22.117  0.1327  0.1987 -0.1075
37492W        W80586  28.687  17.252  21.691  0.0215 -0.0881  0.0416
37493W        W80587  30.322  15.755  20.527 -0.0258 -0.2649  0.1354
37494W        W80588  28.773  15.791  20.947 -0.3243 -0.3325 -0.0435
37495W        W80589  32.042  16.039  20.065 -0.1032 -0.0282  0.3153
37496W        W80590  31.532  16.581  20.423 -0.0497 -0.3261  0.2107
37497W        W80591  28.459  15.635  23.548  0.2586  0.0296  0.0523
37498W        W80592  30.772  12.907  23.735  0.1670 -0.4255  0.0162
37499W        W80593  30.734  15.391  21.964 -0.3590  0.0670 -0.0552
37500W        W80594  31.712  16.885  23.094 -0.2281  0.0330  0.3446
37501W        W80595  32.978  14.859  21.628  0.1860  0.1580  0.0878
37502W        W80596  32.263  17.010  22.455  0.0099  0.2443  0.3511
37503W        W80597  31.202  16.225  22.936 -0.1511 -0.0287  0.2189
37504W        W80598  30.220  15.164  19.385 -0.0949 -0.1105  0.2623
37505W        W80599  32.371  16.559  23.701 -0.0740 -0.0197  0.0330
37506W        W80600  30.257  15.264  21.901  0.0713  0.1081  0.0852
37507W        W80601  30.399  16.606  21.950  0.0702  0.1481  0.1643
37508W        W80602  32.432  17.521  21.581  0.1221  0.1397 -0.2472
37509W        W80603  30.077  15.945  20.136 -0.3964  0.1736  0.3757
37510W        W80604  29.341  17.375  21.429  0.0440 -0.1178 -0.0043
37511W        W80605  29.789  15.823  23.904  0.2860 -0.0115  0.1511
37512W        W80606  31.280  17.106  23.323  0.0697  0.0392 -0.2608
37513W        W80607  29.494  15.422  24.366  0.4447  0.4012  0.4687
37514W        W80608  31.102  14.769  21.333 -0.0840 -0.1351  0.2959
37515W        W80609  30.405  16.031  22.198  0.1420  0.1396  0.1892
37516W        W80610  32.119  17.142  22.890  0.4634 -0.2093 -0.0678
37517W        W80611  31.210  15.575  21.840 -0.1455  0.0123  0.1928
37518W        W80612  29.642  15.746  22.919  0.0463 -0.0070 -0.0574
37519W        W80613  30.773  15.403  21.468  0.2376 -0.1635 -0.2588
37520W        W80614  33.155  17.294  21.185 -0.0847 -0.1716  0.1493
37521W        W80615  30.890  16.638  22.896 -0.0850 -0.3310 -0.2986
37522W        W80616  30.512  16.943  21.299  0.1082  0.4240  0.1734
37523W        W80617  28.988  17.000  22.824  0.0177  0.2507 -0.1261
37524W        W80618  30.264  16.315  20.741 -0.0550  0.0499 -0.3577
37525W        W80619  31.249  14.127  22.197 -0.2292 -0.2746 -0.4654
37526W        W80620  29.855  17.516  23.111  0.2301  0.0194 -0.0448
37527W        W80621  29.967  17.233  20.559  0.0686 -0.2204  0.2759
37528W        W80622  28.746  16.472  23.221 -0.1893 -0.1092 -0.1976
37529W        W80623  31.981  13.420  20.020  0.1657  0.1634 -0.3673
37530W        W80624  31.264  16.902  20.668 -0.0205  0.1839 -0.1523
37531W        W80625  30.534  14.827  22.717  0.0543  0.2875  0.5062
37532W        W80626  32.291  16.418  25.538 -0.0905  0.2170 -0.0261
37533W        W80627  32.804  15.791  20.247 -0.2747 -0.2266  0.1810
37534W        W80628  31.693  15.646  24.316  0.1360  0.1318  0.2731
37535W        W80629  30.462  14.657  23.580 -0.1990 -0.3797 -0.0160
37536W        W80630  32.271  17.003  20.498 -0.1488 -0.0484  0.0413
37537W        W80631  26.811  14.766  24.466  0.0457 -0.2668 -0.1953
37538W        W80632  31.009  17.575  24.388  0.0827 -0.3346  0.0883
37539W        W80633  29.607  16.915  24.202  0.1300  0.0866  0.1475
37540W        W80634  32.325  14.752  21.751  0.1958  0.2078  0.1495
37541W        W80635  29.915  15.069  21.497  0.0574  0.0047 -0.0058
37542W        W80636  30.262  16.080  22.666 -0.1090 -0.0635 -0.0603
37543W        W80637  32.082  16.501  21.156 -0.4626  0.1730 -0.2517
37544W        W80638  29.544  15.380  21.267  0.0445  0.1032  0.1075
37545W        W80639  31.713  15.729  22.185 -0.0662  0.0442 -0.0838
37546W        W80640  29.871  15.771  21.960  0.0440 -0.1037  0.0853
37547W        W80641  31.494  14.323  21.716  0.3113 -0.2524  0.0260
37548W        W80642  32.311  17.865  19.788 -0.1582  0.4150  0.1984
37549W        W80643  29.658  16.274  21.559  0.1367  0.1005 -0.0753
37550W        W80644  31.575  13.491  23.242  0.5484 -0.2099 -0.2140
37551W        W80645  32.286  16.530  21.602 -0.2479  0.0149 -0.3478
37552W        W80646  31.088  15.007  21.840 -0.0813 -0.1580  0.3577
37553W        W80647  31.552  15.250  22.073  0.0723  0.3582  0.3083
37554W        W80648  31.577  16.024  23.218 -0.0907  0.1865  0.3147
37555W        W80649  30.985  15.580  24.733 -0.0807  0.0193  0.2270
37556W        W80650  28.203  14.950  24.497 -0.0529 -0.0878 -0.0862
37557W        W80651  31.369  17.582  23.486  0.1005 -0.2114  0.3157
37558W        W80652  33.107  16.535  20.663  0.1445 -0.1681 -0.1491
37559W        W80653  32.133  16.409  24.103  0.0173  0.2313  0.1067
37560W        W80654  33.475  16.440  22.751  0.0600 -0.1255 -0.2939
37561W        W80655  31.550  15.814  21.545  0.0310  0.2628 -0.0631
37562W        W80656  29.387  15.545  22.523 -0.1450  0.0001 -0.0425
37563W        W80657  32.684  16.686  23.348  0.2383  0.2823  0.0866
37564W        W80658  30.243  15.713  19.261  0.2012 -0.4146 -0.1724
37565W        W80659  31.677  15.288  23.878  0.3060  0.1826 -0.3242
37566W        W80660  31.008  17.348  22.109  0.0855 -0.0074 -0.0270
37567W        W80661  31.842  16.756  21.658  0.1863 -0.1353  0.0290
37568W        W80662  32.690  15.214  21.206 -0.3405  0.4453  0.2580
37569W        W80663  28.397  15.230  22.684 -0.0934 -0.1782 -0.1228
37570W        W80664  30.253  17.850  23.131  0.2277 -0.2010  0.1017
37571W        W80665  29.897  14.985  19.049  0.1933  0.0056 -0.0860
37572W        W80666  31.346  17.724  19.410 -0.2332 -0.1604 -0.1597
37573W        W80667  32.255  16.924  21.984  0.2449 -0.2122  0.0531
37574W        W80668  31.910  16.892  23.698  0.1396  0.1486 -0.1434
37575W        W80669  31.288  15.400  19.958  0.0216  0.2553  0.2118
37576W        W80670  32.190  14.752  23.272 -0.2393 -0.2170  0.1740
37577W        W80671  29.770  17.210  21.695 -0.0768 -0.1944  0.1658
37578W        W80672  31.533  12.837  22.078  0.2893  0.1754  0.0447
37579W        W80673  30.983  17.411  23.072 -0.1295  0.0100  0.0917
37580W        W80674  29.784  16.387  23.833  0.0008 -0.1205  0.2730
37581W        W80675  31.523  17.374  21.298  0.3400  0.1634  0.0496
37582W        W80676  30.251  13.810  23.777  0.0595 -0.2307 -0.1637
37583W        W80677  31.278  16.081  21.941 -0.0825 -0.3152 -0.0604
37584W        W80678  30.510  17.551  22.412  0.1354  0.4333  0.0468
37585W        W80679  31.634  16.226  22.345  0.0402  0.2435  0.1913
37586W        W80680  31.697  16.896  22.584  0.2565  0.1299 -0.1088
37587W        W80681  28.939  15.316  22.271 -0.0463 -0.2124 -0.0513
37588W        W80682  32.000  19.082  22.846  0.1806  0.5406  0.2135
37589W        W80683  32.388  17.029  21.513 -0.0153  0.0103 -0.4035
37590W        W80684  31.042  17.388  21.581 -0.0508 -0.0990 -0.0598
37591W        W80685  28.533  16.094  23.763 -0.0957  0.2742  0.1473
37592W        W80686  29.189  16.530  24.218 -0.1468 -0.1306  0.0523
37593W        W80687  32.109  16.075  22.960  0.1384  0.1515  0.1299
37594W        W80688  30.378  14.172  20.192 -0.1464  0.0744  0.4257
37595W        W80689  31.681  16.376  20.015 -0.0861 -0.1268  0.0831
37596W        W80690  30.121  16.728  24.019 -0.0271 -0.1177  0.0636
37597W        W80691  28.964  16.375  23.672 -0.1440  0.1425  0.0367
37598W        W80692  30.244  18.179  20.214  0.0068 -0.0002 -0.1923
37599W        W80693  31.624  18.380  21.585  0.0170 -0.2865  0.1443
37600W        W80694  31.203  15.661  20.732 -0.0413 -0.2408 -0.2104
37601W        W80695  31.454  18.504  23.057 -0.0990  0.1563  0.3560
37602W        W80696  30.993  15.262  20.978 -0.0293 -0.0576 -0.1725
37603W        W80697  30.411  18.358  22.275 -0.2516  0.1415  0.2445
37604W        W80698  29.789  18.668  20.507  0.2084  0.2029  0.0713
37605W        W80699  31.322  19.364  20.016 -0.3320  0.1065 -0.1389
37606W        W80700  29.642  17.733  22.492  0.0295 -0.1438 -0.1202
37607W        W80701  31.503  18.283  24.520 -0.2823  0.1420  0.1400
37608W        W80702  33.127  15.319  19.549  0.1916  0.0583  0.0226
37609W        W80703  32.417  15.221  22.410 -0.2763 -0.2463 -0.1080
37610W        W80704  31.053  15.999  21.508  0.4407 -0.2936 -0.0852
37611W        W80705  31.403  18.317  22.421  0.0452  0.0276 -0.2862
37612W        W80706  30.672  15.715  22.506  0.0307 -0.2032  0.0898
37613W        W80707  31.871  15.452  21.329  0.2216  0.1236  0.2886
37614W        W80708  29.313  14.885  24.671  0.4254 -0.0148  0.1971
37615W        W80709  32.666  14.501  24.816  0.4200 -0.0821 -0.4100
37616W        W80710  29.866  17.247  25.022 -0.2653  0.1047 -0.0491
37617W        W80711  32.969  17.907  21.793 -0.1259 -0.1195  0.1085
37618W        W80712  30.024  14.452  20.993  0.1677 -0.0669  0.1669
37619W        W80713  30.749  16.319  21.131  0.3373 -0.2318  0.0751
37620W        W80714  32.026  15.723  23.914  0.0605 -0.0466  0.3077
37621W        W80715  28.781  16.786  20.797 -0.0375  0.4444  0.0283
37622W        W80716  30.618  15.315  22.814  0.1408 -0.2882  0.3480
37623W        W80717  29.958  18.127  21.231  0.0690  0.0240  0.0879
37624W        W80718  29.259  18.097  22.859  0.3570 -0.0779 -0.0896
37625W        W80719  29.961  18.000  22.106 -0.1738 -0.0546  0.2011
37626W        W80720  28.880  14.852  22.014  0.0596  0.2789  0.2996
37627W        W80721  33.115  15.493  21.572 -0.2173  0.0967 -0.2176
37628W        W80722  30.382  16.116  23.174 -0.1347  0.1559 -0.0755
37629W        W80723  32.078  15.128  23.680 -0.3467 -0.0303 -0.1101
37630W        W80724  29.857  16.353  21.107  0.0119 -0.0777  0.1084
37631W        W80725  30.206  15.899  20.971  0.0664  0.1725  0.0675
37632W        W80726  32.243  17.059  21.039  0.2178 -0.0123  0.1806
37633W        W80727  29.523  14.944  24.136  0.3206 -0.0453 -0.1216
37634W        W80728  32.486  15.396  20.431  0.3208 -0.4244  0.0303
37635W        W80729  31.932  17.297  23.347  0.1776 -0.4019 -0.4348
37636W        W80730  31.660  14.342  20.345  0.1798  0.1759 -0.1532
37637W        W80731  32.581  18.231  23.958 -0.0060 -0.0999  0.1331
37638W        W80732  29.525  13.486  23.347 -0.0914  0.0507  0.1563
37639W        W80733  31.251  15.267  21.409 -0.0721 -0.1825  0.4037
37640W        W80734  29.290  16.253  23.096  0.1983  0.2055  0.4107
37641W        W80735  29.392  15.200  23.692  0.0175  0.1303  0.6286
37642W        W80736  32.361  18.531  23.439 -0.0452 -0.5274 -0.3198
37643W        W80737  29.007  13.775  21.585 -0.0129  0.0631  0.3044
37644W        W80738  31.297  18.770  19.336  0.0891 -0.2961  0.2076
37645W        W80739  32.549  16.152  23.335 -0.2584 -0.1378 -0.2190
37646W        W80740  30.355  19.153  19.777  0.0904 -0.1317  0.1347
37647W        W80741  33.647  17.526  22.424 -0.1640 -0.3138 -0.0508
37648W        W80742  31.425  17.819  22.659  0.2323 -0.0174  0.0039
37649W        W80743  28.926  16.036  24.117 -0.3472  0.0738 -0.0594
37650W        W80744  31.407  17.612  20.827  0.0516 -0.1406  0.2480
37651W        W80745  32.630  17.932  21.335 -0.1656  0.0576 -0.1084
37652W        W80746  30.691  13.926  21.555 -0.4427  0.3506  0.1282
37653W        W80747  30.019  14.685  21.808  0.1903 -0.0328 -0.5034
37654W        W80748  30.643  16.180  21.718  0.2866 -0.2071  0.2828
37655W        W80749  31.869  16.234  21.853  0.2678 -0.0830  0.2520
37656W        W80750  31.115  14.581  22.410 -0.0746  0.3774 -0.2951
37657W        W80751  29.038  18.446  19.571 -0.0739 -0.0232 -0.1631
37658W        W80752  31.967  15.132  24.504 -0.1116 -0.0357 -0.2298
37659W        W80753  31.040  16.833  22.083  0.0534  0.1734  0.1875
37660W        W80754  29.940  18.677  24.017 -0.1641  0.4096 -0.0684
37661W        W80755  29.612  15.882  21.084  0.0775  0.1790 -0.1956
37662W        W80756  31.117  15.549  22.320 -0.0453 -0.1906  0.0248
37663W        W80757  30.375  17.383  20.858 -0.1748 -0.1216 -0.0424
37664W        W80758  29.581  17.358  20.988  0.0591  0.0009 -0.0303
37665W        W80759  32.036  17.755  22.097  0.0563  0.0995  0.0168
37666W        W80760  31.068  16.485  21.672  0.0063 -0.3714 -0.1798
37667W        W80761  31.247  17.975  23.164  0.2824  0.0891 -0.0515
37668W        W80762  29.996  14.325  22.564  0.0515 -0.3643  0.1881
37669W        W80763  32.409  16.084  21.846  0.0152  0.2232  0.1243
37670W        W80764  33.846  14.248  21.451  0.0074  0.1753  0.1246
37671W        W80765  30.214  17.178  22.647  0.0341 -0.1020  0.1652
37672W        W80766  28.599  15.159  19.511  0.0275 -0.1762  0.0547
37673W        W80767  28.757  17.578  20.426 -0.0336 -0.1555  0.2338
37674W        W80768  29.975  16.302  22.336  0.2786  0.0515  0.1230
37675W        W80769  30.196  15.612  22.832 -0.0441  0.1776  0.0237
37676W        W80770  28.487  15.130  23.740 -0.1526  0.0351 -0.0419
37677W        W80771  29.432  16.760  22.779  0.4052 -0.2245  0.1775
37678W        W80772  29.904  15.816  22.467  0.0032 -0.2039 -0.0041
37679W        W80773  32.785  17.008  20.890  0.1830  0.1520  0.0361
37680W        W80774  28.891  13.004  23.282  0.1540  0.0584  0.2128
37681W        W80775  29.199  13.610  22.693  0.0347 -0.0323  0.1155
37682W        W80776  31.169  17.022  21.156  0.0847  0.1960  0.0113
37683W        W80777  32.510  16.538  20.622  0.0766 -0.3051 -0.0379
37684W        W80778  30.767  15.881  20.874 -0.0530 -0.1201 -0.1046
37685W        W80779  32.904  16.842  23.773 -0.1486  0.3621  0.0162
37686W        W80780  29.148  16.127  21.802  0.1184 -0.1571  0.0932
37687W        W80781  30.844  15.873  23.106 -0.0798  0.3491 -0.0793
37688W        W80782  29.889  15.124  24.530 -0.2965 -0.0769 -0.2463
37689W        W80783  29.601  15.182  20.085  0.0702 -0.1949  0.0933
37690W        W80784  31.075  14.414  23.586 -0.2387 -0.2582 -0.3574
37691W        W80785  31.290  17.305  19.853 -0.0366 -0.0222  0.0578
37692W        W80786  32.009  18.626  20.570  0.0282  0.2077  0.1549
37693W        W80787  31.250  16.564  22.469 -0.0055  0.0112 -0.0544
37694W        W80788  30.755  18.317  23.927  0.1241 -0.0263 -0.0600
37695W        W80789  29.758  13.087  23.447  0.0815 -0.1699  0.1964
37696W        W80790  30.846  15.867  22.063  0.3365  0.2343  0.1050
37697W        W80791  30.764  17.081  22.699  0.2044 -0.2546  0.2501
37698W        W80792  32.950  16.312  20.190 -0.0346 -0.3400 -0.1188
37699W        W80793  31.941  15.360  22.407 -0.1989 -0.1759 -0.0081
37700W        W80794  30.238  15.456  21.431 -0.1800  0.0840  0.2145
37701W        W80795  30.810  15.372  23.728 -0.3051 -0.3596  0.0226
37702W        W80796  30.838  15.145  24.318  0.2611 -0.4826 -0.2217
37703W        W80797  32.382  17.982  21.829 -0.2109 -0.1847  0.2440
37704W        W80798  31.518  15.850  22.702 -0.0939  0.0628 -0.0800
37705W        W80799  32.012  14.782  20.069 -0.0960  0.0453  0.0827
37706W        W80800  31.469  18.874  21.429  0.1839  0.0569  0.1809
37707W        W80801  29.722  15.200  22.893 -0.2435  0.3551 -0.0975
37708W        W80802  31.047  14.444  21.867  0.0439 -0.1241  0.4967
37709W        W80803  31.296  16.605  23.192  0.0377 -0.0250  0.0636
37710W        W80804  31.401  17.013  21.687 -0.2522 -0.0162 -0.1335
37711W        W80805  30.942  16.950  23.684  0.2582  0.1158  0.0279
37712W        W80806  29.537  16.991  20.312  0.0289 -0.1004  0.1659
37713W        W80807  33.514  15.810  21.623 -0.0200  0.0955 -0.2544
37714W        W80808  31.742  18.654  22.586  0.2459  0.0775 -0.1978
37715W        W80809  33.315  17.899  23.225 -0.1468 -0.3737 -0.0856
37716W        W80810  31.250  18.220  21.868 -0.0036 -0.0397  0.2444
37717W        W80811  33.034  16.529  22.999  0.0985 -0.1621  0.0983
37718W        W80812  28.165  14.205  23.520 -0.0556  0.1161  0.1161
37719W        W80813  30.254  17.038  21.761 -0.2011 -0.1912 -0.1885
37720W        W80814  30.630  17.585  21.312 -0.3292 -0.2101  0.0362
37721W        W80815  32.279  15.624  22.077  0.2822 -0.2231 -0.2772
37722W        W80816  30.615  13.468  22.334  0.1600 -0.0557 -0.0877
37723W        W80817  30.831  15.184  20.104  0.1089  0.0454 -0.1203
37724W        W80818  31.024  18.318  22.775 -0.1537  0.1117  0.0031
37725W        W80819  31.964  17.571  21.097 -0.3867  0.2707 -0.0289
37726W        W80820  29.794  16.978  26.251  0.3426  0.0680 -0.3857
37727W        W80821  28.437  17.216  25.164  0.3050  0.1745  0.0027
37728W        W80822  32.096  14.790  24.097 -0.2594  0.0064  0.1125
37729W        W80823  31.540  16.306  25.588  0.1080  0.2049 -0.2611
37730W        W80824  28.856  14.831  26.406 -0.2178  0.1144 -0.2134
37731W        W80825  31.023  17.599  25.120 -0.0997 -0.0396  0.1068
37732W        W80826  28.925  15.499  26.821  0.3003 -0.2340  0.2621
37733W        W80827  31.450  17.439  25.885  0.0935 -0.2939  0.2782
37734W        W80828  33.008  18.542  25.872 -0.1773  0.0778 -0.1372
37735W        W80829  30.753  16.393  23.331  0.0301  0.0104  0.0504
37736W        W80830  31.336  17.369  26.453  0.0924 -0.0151  0.0008
37737W        W80831  29.972  18.445  27.862  0.0779  0.0693 -0.1469
37738W        W80832  30.761  14.573  24.528  0.2479  0.0690  0.0613
37739W        W80833  29.555  15.040  25.640  0.0809 -0.1724  0.1291
37740W        W80834  30.614  17.975  26.521 -0.1497 -0.1074 -0.1520
37741W        W80835  29.559  16.966  25.693  0.0057  0.3636 -0.0950
37742W        W80836  31.601  16.322  25.094 -0.4425  0.1041  0.2670
37743W        W80837  29.941  15.463  26.382  0.1023  0.0809  0.1712
37744W        W80838  31.500  18.934  24.507  0.1515  0.2102 -0.1585
37745W        W80839  30.414  14.901  26.600 -0.0350 -0.1639 -0.2458
37746W        W80840  30.724  14.788  27.747 -0.2103 -0.0092  0.1275
37747W        W80841  31.577  18.323  25.466 -0.0548 -0.4823  0.0757
37748W        W80842  27.750  15.696  24.123  0.2998  0.2593 -0.0003
37749W        W80843  29.644  16.076  25.897  0.0984 -0.0691  0.3963
37750W        W80844  30.882  15.754  26.507 -0.0129  0.2464  0.1636
37751W        W80845  32.835  15.976  26.529  0.0768 -0.0590  0.3684
37752W        W80846  31.136  17.242  25.499  0.0395 -0.1073 -0.0580
37753W        W80847  30.737  18.876  26.527  0.1070  0.4773  0.1773
37754W        W80848  30.058  16.342  25.788  0.1094 -0.2050  0.1270
37755W        W80849  32.025  16.813  27.607 -0.1490  0.1628 -0.0372
37756W        W80850  29.799  17.688  26.808  0.2661 -0.1860  0.1306
37757W        W80851  29.425  19.418  24.963  0.2365 -0.2103  0.3451
37758W        W80852  29.241  18.122  25.071 -0.1847  0.0459  0.4187
37759W        W80853  30.815  17.166  25.028  0.0246  0.0809 -0.1301
37760W        W80854  32.672  17.878  27.484 -0.0596  0.4909 -0.0769
37761W        W80855  30.328  18.749  28.167  0.1583  0.4415 -0.3326
37762W        W80856  29.864  17.799  23.520 -0.2128  0.3363  0.1386
37763W        W80857  31.145  19.804  26.020 -0.0047  0.1882  0.2694
37764W        W80858  29.737  17.424  27.952 -0.0565 -0.0221  0.0705
37765W        W80859  30.465  16.118  24.870  0.0491 -0.2226  0.0149
37766W        W80860  31.164  15.864  25.552 -0.1332  0.3895  0.1533
37767W        W80861  29.813  17.385  24.468  0.0726 -0.2649  0.1353
37768W        W80862  30.009  16.928  25.847  0.0604  0.1543  0.0434
37769W        W80863  30.381  17.287  27.951  0.0939 -0.1561  0.2777
37770W        W80864  30.143  16.331  27.139 -0.1251 -0.1397 -0.1111
37771W        W80865  32.970  15.715  27.087 -0.0078  0.1320 -0.1331
37772W        W80866  30.479  16.761  23.645 -0.3046  0.2279  0.2451
37773W        W80867  31.735  14.799  23.717  0.2532  0.0620 -0.1208
37774W        W80868  31.028  12.729  24.600  0.0458 -0.0685 -0.0428
37775W        W80869  31.223  15.940  24.408 -0.4117  0.2306 -0.0426
37776W        W80870  31.757  14.694  25.798 -0.0338  0.0825 -0.2897
37777W        W80871  30.133  18.075  26.845  0.1822  0.1310 -0.2956
37778W        W80872  31.513  14.462  27.268  0.2247 -0.2386 -0.1520
37779W        W80873  31.991  18.073  26.338 -0.0580  0.0900  0.0362
37780W        W80874  30.170  17.041  23.115 -0.0014 -0.2041 -0.1345
37781W        W80875  30.618  17.720  25.690 -0.0480 -0.0700  0.2908
37782W        W80876  29.441  18.823  28.107 -0.2630  0.1183  0.3618
37783W        W80877  30.034  15.899  26.138 -0.0075  0.2131 -0.2100
37784W        W80878  30.822  16.444  23.826  0.0051  0.3237 -0.3365
37785W        W80879  32.073  17.737  25.215  0.3201 -0.2310  0.0722
37786W        W80880  31.271  18.063  25.137  0.3336 -0.0550 -0.0855
37787W        W80881  30.196  16.242  25.309 -0.1234  0.0194 -0.0608
37788W        W80882  28.576  17.799  26.456 -0.2064 -0.4246 -0.1025
37789W        W80883  29.657  16.293  26.894  0.2564  0.0630 -0.3295
37790W        W80884  29.641  13.117  25.137  0.1042 -0.0966  0.0136
37791W        W80885  33.049  16.570  27.801  0.2936 -0.1245 -0.0261
37792W        W80886  28.856  17.219  27.237 -0.0238  0.0119 -0.1347
37793W        W80887  32.726  14.392  25.516  0.1636 -0.0501 -0.1208
37794W        W80888  31.536  18.355  26.255  0.1286 -0.0525  0.0776
37795W        W80889  31.077  17.707  26.138  0.0432 -0.1656 -0.0608
37796W        W80890  31.286  17.663  24.008 -0.1241  0.2968  0.0364
37797W        W80891  32.236  14.423  26.987  0.0052  0.0700 -0.1141
37798W        W80892  31.494  16.030  27.140 -0.0640  0.1379 -0.0898
37799W        W80893  30.367  17.406  23.420  0.0616 -0.1398 -0.1998
37800W        W80894  30.400  18.050  23.596  0.1462 -0.0112 -0.0564
37801W        W80895  32.418  17.405  26.954  0.1996  0.0411  0.1110
37802W        W80896  32.425  15.651  25.076 -0.0093 -0.0040  0.2699
37803W        W80897  29.053  17.129  26.738 -0.1203  0.0175  0.0054
37804W        W80898  30.473  16.649  25.649 -0.1866  0.0426 -0.0390
37805W        W80899  30.641  17.225  26.930 -0.1278 -0.0759 -0.7790
37806W        W80900  30.033  18.272  23.249 -0.2042 -0.2626  0.1279
37807W        W80901  29.216  16.373  25.729 -0.1514 -0.3796 -0.1413
37808W        W80902  28.829  18.280  25.758  0.0829  0.0171  0.0293
37809W        W80903  29.466  15.669  26.225  0.1085  0.1207 -0.4711
37810W        W80904  31.067  18.608  24.505  0.0205  0.2135  0.3893
37811W        W80905  33.384  15.839  25.498  0.0274 -0.3325 -0.2595
37812W        W80906  29.275  15.213  27.230  0.0746 -0.4240 -0.0948
37813W        W80907  32.543  14.021  24.756  0.1280 -0.1333 -0.2867
37814W        W80908  30.008  16.747  25.317  0.2482  0.1755  0.2168
37815W        W80909  32.065  17.587  26.116  0.2437 -0.3342  0.0599
37816W        W80910  31.253  15.397  25.484 -0.0290  0.4253 -0.2576
37817W        W80911  31.533  17.627  25.259  0.2013 -0.0083 -0.0973
37818W        W80912  31.229  16.050  26.747 -0.0347 -0.3952  0.0634
37819W        W80913  31.004  14.583  24.062 -0.1380  0.1739  0.0978
37820W        W80914  30.644  15.362  26.811 -0.1564 -0.1061  0.0323
37821W        W80915  29.064  16.398  26.320 -0.0135  0.1199  0.2811
37822W        W80916  31.920  17.244  27.957 -0.1143  0.0738  0.0137
37823W        W80917  30.798  15.368  25.132 -0.4423  0.0307  0.0093
37824W        W80918  31.902  16.578  24.558 -0.0813  0.1203 -0.0714
37825W        W80919  30.142  15.849  25.611  0.0611  0.0209 -0.1988
37826W        W80920  30.279  18.870  25.779  0.2754  0.2786  0.0265
37827W        W80921  31.058  15.027  28.479 -0.3188 -0.0555 -0.0681
37828W        W80922  31.629  17.175  25.468 -0.1056 -0.0602  0.0789
37829W        W80923  32.354  17.910  27.034  0.4980 -0.1977 -0.2766
37830W        W80924  31.895  17.046  26.044 -0.2227 -0.0602 -0.1464
37831W        W80925  29.534  14.658  26.925 -0.0520  0.0534 -0.1987
37832W        W80926  29.597  15.832  24.614  0.0386  0.1555 -0.2361
37833W        W80927  28.701  18.277  26.255  0.1464 -0.2581  0.1467
37834W        W80928  29.503  19.103  25.754  0.0553  0.0633 -0.4447
37835W        W80929  30.124  15.071  24.974  0.0144  0.0099 -0.0361
37836W        W80930  32.256  18.499  26.295  0.1021  0.1252 -0.0825
37837W        W80931  30.439  15.908  24.449 -0.0551  0.0101  0.4498
37838W        W80932  30.533  16.896  28.363  0.2909 -0.3703 -0.1347
37839W        W80933  32.084  14.698  27.510  0.0899 -0.0097  0.0246
37840W        W80934  33.450  16.790  27.556 -0.3075 -0.0330 -0.0325
37841W        W80935  31.574  15.855  23.807 -0.2949  0.0181 -0.0522
37842W        W80936  30.004  14.028  24.166  0.2063  0.3164 -0.0697
37843W        W80937  31.887  18.522  24.769 -0.0677 -0.0530 -0.0949
37844W        W80938  30.589  18.468  25.122  0.1132 -0.0358 -0.1296
37845W        W80939  29.629  16.442  25.453 -0.0063 -0.0645  0.1343
37846W        W80940  29.488  17.878  25.456  0.2535 -0.1746 -0.0632
37847W        W80941  31.243  15.104  24.925 -0.0064  0.3300 -0.1593
37848W        W80942  28.965  16.821  28.116  0.0933  0.0778  0.0594
37849W        W80943  30.763  16.702  26.096  0.2572 -0.2049  0.1942
37850W        W80944  29.648  16.411  24.422  0.0060  0.1623  0.0473
37851W        W80945  30.411  16.816  27.079  0.0895  0.2037 -0.4299
37852W        W80946  30.877  15.196  23.265 -0.4548  0.1761  0.0427
37853W        W80947  31.844  16.711  25.660 -0.2022 -0.3358 -0.0986
37854W        W80948  30.398  15.757  26.498 -0.3895 -0.2657 -0.0345
37855W        W80949  33.091  15.318  25.607  0.0900 -0.0737  0.1604
37856W        W80950  31.107  15.493  22.873  0.0655  0.1921 -0.1845
37857W        W80951  31.205  13.674  24.285 -0.0923 -0.1057  0.1577
37858W        W80952  30.160  17.394  27.034 -0.2041  0.0953 -0.0997
37859W        W80953  30.652  16.511  25.170  0.0153 -0.1859  0.3050
37860W        W80954  30.780  18.124  27.711 -0.2731 -0.2928  0.0672
37861W        W80955  30.515  15.463  24.646  0.1699  0.0758  0.0479
37862W        W80956  31.827  17.437  24.924 -0.1695  0.2466  0.1904
37863W        W80957  29.718  17.397  25.890 -0.3003  0.0087 -0.0642
37864W        W80958  31.291  18.470  27.113  0.1708  0.1190  0.0607
37865W        W80959  31.460  17.012  24.482 -0.1711  0.1450  0.1855
37866W        W80960  30.696  13.829  25.985 -0.1620 -0.0835  0.5798
37867W        W80961  30.807  15.905  24.067  0.3946  0.3227 -0.0434
37868W        W80962  30.526  14.899  25.717  0.0711  0.2180 -0.3028
37869W        W80963  29.407  19.872  23.481 -0.0217  0.0070 -0.0965
37870W        W80964  31.556  16.421  26.619  0.0618  0.0126 -0.0408
37871W        W80965  32.063  15.412  26.728 -0.0047 -0.1905  0.0789
37872W        W80966  31.535  13.313  27.160 -0.0568  0.1626 -0.0256
37873W        W80967  32.485  16.956  27.475 -0.2807  0.3517  0.0440
37874W        W80968  31.068  16.146  24.858 -0.1140 -0.2379 -0.0978
37875W        W80969  32.371  15.839  26.275  0.0840  0.0142  0.0121
37876W        W80970  28.997  17.506  24.634 -0.1126  0.1656  0.1386
37877W        W80971  29.364  15.167  27.976  0.0757 -0.4944 -0.0327
37878W        W80972  30.482  16.622  26.526 -0.6030 -0.3167  0.0597
37879W        W80973  29.523  17.471  27.463  0.3549 -0.0403 -0.1002
37880W        W80974  32.395  16.998  28.100 -0.0898 -0.0897 -0.0386
37881W        W80975  30.634  16.834  24.195  0.0798 -0.2740  0.1254
37882W        W80976  31.352  14.566  26.776 -0.1419 -0.1054  0.2261
37883W        W80977  31.174  14.646  25.751 -0.2986 -0.1547 -0.0334
37884W        W80978  30.734  19.889  25.695  0.0721  0.1429 -0.0711
37885W        W80979  30.681  16.997  23.195 -0.2384 -0.2773 -0.2410
37886W        W80980  31.610  15.369  26.331  0.3229  0.2282 -0.1344
37887W        W80981  30.458  18.809  26.944 -0.0160 -0.0056 -0.1259
37888W        W80982  29.383  16.616  23.746 -0.2078  0.0190  0.0860
37889W        W80983  31.547  17.875  26.367  0.0672  0.0473  0.0474
37890W        W80984  30.144  18.046  26.355 -0.0193 -0.0245 -0.1508
37891W        W80985  33.056  16.373  26.120 -0.0956 -0.2044 -0.1895
37892W        W80986  29.920  16.662  26.752  0.1570  0.3157  0.1763
37893W        W80987  29.814  16.861  24.726  0.3062  0.3077  0.4184
37894W        W80988  29.438  16.160  23.579  0.1343  0.0502 -0.4448
37895W        W80989  31.437  15.284  24.488  0.0423 -0.2112  0.1825
37896W        W80990  30.842  16.315  24.364  0.0695  0.1778  0.1001
37897W        W80991  29.766  15.835  25.273  0.0092  0.0692  0.2688
37898W        W80992  30.216  14.892  26.132 -0.1097  0.0006  0.0488
37899W        W80993  28.171  17.666  27.201 -0.0299 -0.0991  0.2869
37900W        W80994  31.624  15.886  25.810 -0.1766 -0.2412 -0.3689
37901W        W80995  30.762  15.618  25.616  0.5761 -0.0236 -0.0793
37902W        W80996  31.676  17.312  26.900 -0.0398 -0.1486 -0.1116
37903W        W80997  30.853  16.742  26.779 -0.1610 -0.2428 -0.2493
37904W        W80998  28.681  16.490  24.126  0.3654  0.1985  0.2229
37905W        W80999  32.403  16.414  27.514 -0.4197  0.4102 -0.2549
37906W        W81000  30.987  15.132  25.852 -0.1947 -0.0546  0.0752
37907W        W81001  28.352  17.974  25.953  0.1693  0.0220  0.1474
37908W        W81002  30.862  18.142  25.854 -0.0811  0.0385  0.2064
37909W        W81003  30.000  16.046  24.697 -0.0001  0.2873  0.0183
37910W        W81004  29.589  18.160  24.302 -0.1835  0.1479  0.2240
37911W        W81005  31.080  17.483  27.158  0.2719  0.3240 -0.0652
37912W        W81006  30.895  17.639  27.608 -0.2156  0.2877 -0.0987
37913W        W81007  30.161  14.430  26.418 -0.1348  0.0228  0.0867
37914W        W81008  30.485  15.694  26.045  0.0680  0.2409 -0.1924
37915W        W81009  29.296  14.611  25.725  0.1000 -0.4240 -0.2122
37916W        W81010  30.926  15.974  25.985 -0.1300 -0.2481  0.0008
37917W        W81011  32.038  16.368  27.143 -0.0568  0.0169  0.1307
37918W        W81012  28.165  16.687  28.138  0.0016  0.0413  0.2432
37919W        W81013  29.835  13.902  27.221 -0.0558  0.0377  0.1083
37920W        W81014  32.795  19.402  23.590 -0.3575  0.2301 -0.2011
37921W        W81015  31.755  17.267  27.482 -0.1039 -0.0814 -0.1200
37922W        W81016  30.198  17.651  23.857  0.1471 -0.1729 -0.1280
37923W        W81017  29.889  14.935  26.555  0.0398  0.2808  0.1007
37924W        W81018  29.729  17.692  24.025  0.1754  0.0495  0.1342
37925W        W81019  31.862  16.056  26.721  0.1394  0.2459  0.4139
37926W        W81020  30.019  16.584  26.257  0.1472 -0.0501 -0.0537
37927W        W81021  29.413  18.654  25.142 -0.2397 -0.1240 -0.1148
37928W        W81022  28.834  16.876  26.368  0.1190  0.2105  0.2625
37929W        W81023  31.191  14.849  24.490  0.0156 -0.0814  0.2942
37930W        W81024  30.372  17.182  23.872 -0.3034  0.1443  0.1453
37931W        W81025  31.039  14.920  25.361 -0.3537 -0.1079 -0.1770
37932W        W81026  31.256  15.559  26.036  0.0009  0.0597 -0.0542
37933W        W81027  31.546  17.513  24.446  0.3329 -0.1670 -0.0168
37934W        W81028  32.371  15.476  28.478  0.2135  0.2333 -0.0943
37935W        W81029  29.854  15.833  26.676  0.1767 -0.0117  0.1705
37936W        W81030  30.697  17.675  24.793  0.2368 -0.2195  0.3405
37937W        W81031  28.713  14.472  26.781  0.1799 -0.1742 -0.2022
37938W        W81032  31.714  18.321  26.722  0.0617  0.0857 -0.0457
37939W        W81033  30.929  16.687  27.306  0.0973 -0.1644 -0.3435
37940W        W81034  30.537  16.099  25.719 -0.2107 -0.0649 -0.1174
37941W        W81035  31.270  15.726  25.083  0.1065 -0.2034  0.1700
37942W        W81036  31.004  17.201  26.031  0.1703 -0.0210 -0.1016
37943W        W81037  33.111  17.976  26.623 -0.2614  0.0819 -0.0876
37944W        W81038  30.608  18.118  24.440 -0.4445  0.1231 -0.0793
37945W        W81039  32.571  15.514  26.749 -0.0374 -0.0156 -0.1869
37946W        W81040  29.663  16.217  26.379  0.1456  0.3113 -0.0450
37947W        W81041  32.030  16.252  26.218 -0.0159  0.3802  0.1138
37948W        W81042  30.987  17.951  23.607  0.0607 -0.0624  0.0551
37949W        W81043  29.652  17.944  26.377 -0.1674 -0.3834 -0.2278
37950W        W81044  30.099  15.244  26.894 -0.1397  0.0498  0.1771
37951W        W81045  31.154  16.516  25.841  0.2805  0.3913 -0.0485
37952W        W81046  31.851  15.475  25.910 -0.2600 -0.1814  0.1916
37953W        W81047  31.291  15.030  24.058 -0.0293 -0.0212  0.2177
37954W        W81048  31.322  17.769  26.837  0.1772  0.2530 -0.0942
37955W        W81049  30.556  15.469  27.279  0.1330  0.0696  0.0052
37956W        W81050  29.873  14.217  27.926 -0.0209  0.1499  0.0591
37957W        W81051  30.669  19.273  26.831  0.0676 -0.0242  0.4051
37958W        W81052  32.029  15.920  23.467  0.0045  0.4461  0.2429
37959W        W81053  32.610  16.088  27.253 -0.0443  0.1216 -0.0823
37960W        W81054  33.057  18.090  25.196 -0.2929 -0.1706  0.1866
37961W        W81055  30.303  17.505  24.317 -0.0981 -0.0294  0.1561
37962W        W81056  28.100  16.012  26.949 -0.0076  0.1365  0.0701
37963W        W81057  31.267  16.590  26.957  0.0327 -0.0400  0.1467
37964W        W81058  29.983  15.629  24.366 -0.4187  0.2488 -0.2357
37965W        W81059  31.877  15.764  26.384  0.1435  0.0577  0.0882
37966W        W81060  30.876  18.493  23.496  0.3273  0.3299 -0.0733
37967W        W81061  31.107  17.769  25.587 -0.1698 -0.1162 -0.4166
37968W        W81062  31.398  17.145  23.920  0.0223  0.2055  0.0635
37969W        W81063  29.274  14.584  25.195  0.0390 -0.2390 -0.0246
37970W        W81064  30.255  19.007  27.695 -0.2068  0.0060 -0.5062
37971W        W81065  29.413  14.255  23.913 -0.0088  0.0392  0.0276
37972W        W81066  29.846  17.207  23.646  0.2013  0.0271 -0.1405
37973W        W81067  30.377  17.531  26.605  0.1183  0.2254  0.1734
37974W        W81068  31.257  17.882  27.853  0.0138  0.0539 -0.5460
37975W        W81069  30.029  14.268  24.634 -0.4415 -0.1196  0.3040
37976W        W81070  32.426  14.880  26.163 -0.4977 -0.1540  0.1330
37977W        W81071  28.894  18.182  24.207  0.2026  0.1766 -0.0244
37978W        W81072  31.025  14.391  26.461 -0.2268  0.0263 -0.3164
37979W        W81073  29.324  19.504  25.570 -0.0915 -0.2802 -0.1283
37980W        W81074  29.407  17.488  26.432 -0.0122  0.2405 -0.2138
37981W        W81075  30.775  18.041  25.287 -0.1471 -0.2171 -0.1649
37982W        W81076  30.390  14.343  25.971  0.3758  0.1302 -0.1596
37983W        W81077  32.027  17.733  26.727 -0.0274 -0.2373 -0.0828
37984W        W81078  31.427  16.497  24.572 -0.1297  0.3436  0.0708
37985W        W81079  32.768  15.942  28.857 -0.0872  0.0570 -0.1956
37986W        W81080  30.875  16.325  26.418 -0.1713  0.2526 -0.0399
37987W        W81081  31.123  16.324  25.326  0.0744  0.0194  0.0603
37988W        W81082  32.649  17.742  26.570 -0.1110  0.1474  0.0774
37989W        W81083  31.431  16.742  25.395 -0.0756  0.1071  0.3001
37990W        W81084  30.141  17.227  25.453 -0.1117  0.0317  0.1708
37991W        W81085  28.369  17.174  28.973 -0.0939 -0.2300  0.3310
37992W        W81086  30.309  17.162  28.779  0.2876  0.2785  0.2160
37993W        W81087  30.302  17.107  26.196 -0.1082 -0.2006  0.3546
37994W        W81088  30.180  15.312  25.895  0.1415 -0.1415 -0.0204
37995W        W81089  30.167  15.968  23.617  0.1512  0.0669 -0.0350
37996W        W81090  28.984  17.775  26.779  0.0918 -0.0106  0.1302
37997W        W81091  28.532  14.637  25.185 -0.0084  0.1165  0.0257
37998W        W81092  28.450  19.494  23.533 -0.4855  0.2987 -0.1805
37999W        W81093  30.928  17.233  24.058  0.1689  0.0862 -0.3291
38000W        W81094  30.155  16.503  24.532 -0.3345 -0.1696  0.1116
38001W        W81095  30.748  18.926  24.363  0.1894  0.1437 -0.0192
38002W        W81096  29.988  16.128  24.208  0.0488 -0.1699  0.0467
38003W        W81097  27.711  17.573  27.551 -0.0628  0.2146 -0.4455
38004W        W81098  29.445  18.018  23.713 -0.1503 -0.1095  0.3237
38005W        W81099  31.234  17.866  24.697 -0.2417  0.0586  0.2124
38006W        W81100  29.884  18.766  25.421 -0.2592  0.1576  0.1191
38007W        W81101  33.292  17.105  27.182 -0.1293 -0.1719 -0.1682
38008W        W81102  31.546  15.256  22.931 -0.1181  0.3052 -0.2481
38009W        W81103  32.928  16.330  26.900  0.1374  0.2504  0.5007
38010W        W81104  31.268  16.234  24.016  0.1407  0.0381  0.1043
38011W        W81105  33.140  18.677  26.370  0.0264  0.1862  0.0455
38012W        W81106  31.382  14.836  26.283  0.3386 -0.2174  0.0518
38013W        W81107  31.330  15.236  23.557 -0.1563  0.3595  0.0255
38014W        W81108  30.091  15.679  27.515 -0.2524  0.0033 -0.4014
38015W        W81109  31.185  13.168  26.718  0.2961  0.2581  0.2379
38016W        W81110  29.621  17.155  26.737  0.0792  0.0734  0.1192
38017W        W81111  32.140  18.147  24.364 -0.0492  0.5126  0.0330
38018W        W81112  29.560  16.337  24.922  0.0954  0.1608 -0.0909
38019W        W81113  30.547  17.765  26.989 -0.0143  0.1079  0.0486
38020W        W81114  32.580  15.791  25.806 -0.0581 -0.1753  0.2362
38021W        W81115  30.954  18.895  23.766  0.1659 -0.0774  0.2777
38022W        W81116  31.175  15.277  26.600  0.1153 -0.2356  0.0336
38023W        W81117  31.013  18.618  25.367  0.0251 -0.2380 -0.2802
38024W        W81118  29.938  17.491  26.361  0.0940 -0.1347 -0.3145
38025W        W81119  29.223  17.895  27.307  0.0686  0.2033  0.1319
38026W        W81120  29.202  16.201  24.574 -0.0909 -0.4026 -0.2718
38027W        W81121  31.721  16.801  24.979 -0.0165  0.1825  0.2103
38028W        W81122  29.418  14.785  26.443  0.1983  0.0167  0.0741
38029W        W81123  31.550  15.117  27.577  0.1589  0.0303  0.4069
38030W        W81124  30.609  17.598  26.188 -0.2654 -0.4567 -0.3076
38031W        W81125  31.759  16.155  24.250 -0.0822 -0.1397  0.1255
38032W        W81126  31.697  16.593  26.113 -0.1177 -0.3748 -0.1824
38033W        W81127  30.928  15.093  27.122  0.0388  0.1458 -0.2353
38034W        W81128  31.209  16.185  23.545 -0.0192 -0.1609  0.0329
38035W        W81129  32.991  16.794  28.240  0.3990  0.5290 -0.0129
38036W        W81130  31.538  14.717  22.239 -0.0445 -0.0887  0.0954
38037W        W81131  32.400  18.121  27.860  0.0043  0.1126 -0.2204
38038W        W81132  29.389  12.731  26.566  0.1933 -0.1016 -0.0662
38039W        W81133  31.653  15.448  24.954 -0.4281  0.2244 -0.0964
38040W        W81134  29.477  17.378  25.378 -0.0551  0.2545  0.3197
38041W        W81135  30.870  17.570  26.628 -0.0287  0.0691 -0.0976
38042W        W81136  32.148  17.001  26.995  0.3170  0.2345 -0.4198
38043W        W81137  28.781  14.981  24.920 -0.0036 -0.4267 -0.2305
38044W        W81138  33.096  17.650  24.303  0.1795 -0.1034  0.0744
38045W        W81139  33.136  15.727  24.621  0.0129  0.3678 -0.0462
38046W        W81140  31.382  19.492  23.216 -0.1513 -0.1380  0.2360
38047W        W81141  32.057  17.393  25.650  0.2904  0.1024  0.3140
38048W        W81142  31.206  18.492  25.951  0.0532 -0.1122  0.2271
38049W        W81143  29.705  15.575  25.795  0.2044 -0.1091 -0.1949
38050W        W81144  32.161  19.015  26.199  0.2132 -0.1124 -0.2871
38051W        W81145  32.727  17.013  27.003 -0.2066 -0.2592  0.0759
38052W        W81146  30.571  14.790  25.222 -0.4465  0.2837  0.2458
38053W        W81147  29.217  15.243  26.427  0.0711  0.3376  0.0820
38054W        W81148  28.895  19.360  24.796  0.4193  0.0324  0.1002
38055W        W81149  32.370  15.060  26.968  0.0305  0.4670  0.2143
38056W        W81150  32.459  16.612  26.986  0.0312 -0.1387  0.0991
38057W        W81151  29.313  17.450  23.542 -0.1897 -0.1822  0.3734
38058W        W81152  31.915  15.477  27.809 -0.0017  0.0345  0.1145
38059W        W81153  31.123  18.128  26.522 -0.0256  0.1449  0.1419
38060W        W81154  30.156  17.706  28.733 -0.2545  0.4671  0.1024
38061W        W81155  29.301  18.179  25.856 -0.0430 -0.1625 -0.0832
38062W        W81156  29.780  17.047  27.194 -0.0381  0.0597 -0.2420
38063W        W81157  30.504  17.520  25.196 -0.0372 -0.1027  0.0904
38064W        W81158  30.185  19.829  24.900 -0.2778 -0.0972 -0.0067
38065W        W81159  32.162  18.215  25.373 -0.3299  0.0075 -0.1117
38066W        W81160  32.611  16.284  25.881  0.3642 -0.1427  0.1441
38067W        W81161  30.747  17.166  26.416  0.1950  0.1240  0.2045
38068W        W81162  29.162  15.079  25.216  0.2073  0.1322  0.0693
38069W        W81163  32.115  15.287  25.166 -0.1284  0.1435 -0.1029
38070W        W81164  32.149  16.426  25.043  0.0810  0.1433 -0.0230
38071W        W81165  30.431  16.054  27.430 -0.2436  0.3404  0.1262
38072W        W81166  29.921  15.395  25.368  0.3173  0.2457  0.0652
38073W        W81167  29.653  18.363  25.585  0.0302 -0.0048  0.2846
38074W        W81168  29.847  17.899  25.836  0.1805 -0.1885  0.1476
38075W        W81169  30.096  14.573  28.159  0.0929  0.2435 -0.1965
38076W        W81170  30.186  16.208  26.638  0.1884  0.2978 -0.0152
38077W        W81171  29.113  17.989  26.310 -0.1861 -0.0275  0.0860
38078W        W81172  29.716  14.534  25.439 -0.0406 -0.2420  0.1907
38079W        W81173  31.933  17.193  24.143  0.2450 -0.1549  0.3169
38080W        W81174  29.353  16.021  25.383  0.0147 -0.3376 -0.0892
38081W        W81175  29.859  13.587  25.097  0.0445 -0.4994 -0.1513
38082W        W81176  30.950  17.084  24.566  0.2608  0.0688 -0.0058
38083W        W81177  30.147  17.574  24.797 -0.0553 -0.4214  0.3459
38084W        W81178  30.788  15.867  25.160  0.0194  0.1311  0.0993
38085W        W81179  31.809  18.108  27.130  0.0958 -0.2026  0.0031
38086W        W81180  29.690  16.580  23.266 -0.0694 -0.0291  0.0161
38087W        W81181  31.428  16.497  28.506  0.4044  0.1755  0.0216
38088W        W81182  30.244  14.683  27.672 -0.0592  0.3725 -0.2159
38089W        W81183  29.652  15.107  26.178 -0.1596  0.0241 -0.1024
38090W        W81184  31.059  15.167  27.603 -0.0813  0.1056 -0.2452
38091W        W81185  30.948  18.256  24.807 -0.1049  0.0651 -0.0909
38092W        W81186  31.921  19.306  23.695  0.0560 -0.0072 -0.0848
38093W        W81187  29.304  17.695  25.955  0.0236  0.1087  0.1511
38094W        W81188  31.861  19.290  26.630 -0.2087  0.1566 -0.2455
38095W        W81189  28.893  15.687  25.449 -0.4483  0.0278 -0.0290
38096W        W81190  31.674  15.533  23.307 -0.1776 -0.3255  0.1276
38097W        W81191  29.990  18.306  27.343 -0.1003 -0.2559 -0.2044
38098W        W81192  32.935  16.303  25.468 -0.0614  0.0814  0.1206
38099W        W81193  32.185  15.365  26.272  0.0092 -0.2960  0.0139
38100W        W81194  30.661  16.756  24.715  0.0702 -0.0822 -0.0722
38101W        W81195  30.351  13.390  29.069  0.0267 -0.2345  0.1168
38102W        W81196  30.437  16.185  26.170  0.0141  0.0093 -0.0356
38103W        W81197  33.030  17.644  27.818 -0.0754  0.1487  0.1785
38104W        W81198  29.662  13.718  25.762  0.0662  0.1699 -0.0578
38105W        W81199  31.940  16.044  25.362  0.1519  0.1604 -0.2095
38106W        W81200  30.323  18.384  24.133  0.1920  0.3430  0.0397
38107W        W81201  27.728  17.369  24.567 -0.0590  0.1462 -0.2473
38108W        W81202  30.345  15.713  24.001  0.0055 -0.1433  0.0075
38109W        W81203  31.682  16.932  26.546 -0.0693 -0.0956 -0.0566
38110W        W81204  30.954  16.803  25.460  0.3650  0.0608  0.1385
38111W        W81205  30.935  18.098  28.285 -0.0481 -0.1079 -0.1036
38112W        W81206  28.629  15.261  25.490 -0.1214  0.0333  0.0062
38113W        W81207  32.299  16.970  25.694  0.1542 -0.1620 -0.3378
38114W        W81208  30.962  18.013  26.986 -0.0502  0.0960 -0.2369
38115W        W81209  30.926  18.930  27.077  0.0840  0.4186 -0.1118
38116W        W81210  29.949  17.716  25.321 -0.1912 -0.1971 -0.2118
38117W        W81211  32.147  17.276  26.506  0.1196  0.1850 -0.2711
38118W        W81212  28.351  15.662  25.200 -0.0077 -0.0858 -0.3196
38119W        W81213  30.139  18.326  25.501 -0.3060 -0.1095 -0.0885
38120W        W81214  29.541  16.855  25.162  0.0668  0.1655  0.0812
38121W        W81215  32.780  16.149  27.737 -0.1037  0.1745  0.2165
38122W        W81216  29.446  15.493  25.354 -0.0376 -0.2928 -0.4012
38123W        W81217  30.550  15.238  26.239 -0.2926 -0.1021 -0.3963
38124W        W81218  30.240  17.954  27.687  0.0820  0.0999 -0.3299
38125W        W81219  30.362  18.140  25.915  0.1127  0.1229 -0.1106
38126W        W81220  29.921  17.577  30.143  0.0583  0.3238  0.1472
38127W        W81221  29.196  16.346  27.175 -0.1911  0.0288 -0.3268
38128W        W81222  30.981  14.538  28.427  0.0753  0.4949 -0.1276
38129W        W81223  31.151  16.691  27.716 -0.0784 -0.2729 -0.0603
38130W        W81224  28.768  16.471  29.809 -0.0414  0.0902  0.0999
38131W        W81225  31.955  18.107  28.083 -0.1177 -0.1551  0.0153
38132W        W81226  30.072  14.530  31.163  0.0623 -0.2740  0.0846
38133W        W81227  32.739  17.985  29.702 -0.3001 -0.1570 -0.0546
38134W        W81228  31.705  19.526  30.071  0.1281  0.2658  0.2421
38135W        W81229  31.704  16.781  27.071  0.1355 -0.2368  0.2600
38136W        W81230  30.212  16.713  29.825 -0.1570  0.0610 -0.1825
38137W        W81231  30.796  17.986  29.923 -0.0542  0.0602  0.0068
38138W        W81232  32.396  14.484  28.909  0.1013 -0.0781  0.3068
38139W        W81233  29.217  14.429  29.670 -0.1765  0.2065 -0.0947
38140W        W81234  32.193  16.786  29.179 -0.0468 -0.3346  0.0866
38141W        W81235  28.792  17.119  29.179 -0.0872 -0.2579  0.3717
38142W        W81236  29.654  16.024  30.176 -0.2519  0.1097  0.3055
38143W        W81237  30.630  16.157  29.454 -0.0692  0.1503 -0.2289
38144W        W81238  31.093  18.382  29.789  0.0341 -0.0811 -0.3836
38145W        W81239  29.741  14.087  31.073 -0.3207  0.3478  0.1883
38146W        W81240  32.803  14.695  31.754 -0.1103  0.0328 -0.0326
38147W        W81241  31.475  19.944  30.345 -0.3446  0.1124 -0.0620
38148W        W81242  28.829  16.066  26.918  0.0513 -0.0512 -0.0352
38149W        W81243  29.119  16.127  29.612  0.4138 -0.1893 -0.0660
38150W        W81244  29.375  15.478  29.362 -0.0424 -0.0779 -0.5163
38151W        W81245  31.161  16.141  29.073  0.1628  0.0983 -0.0996
38152W        W81246  30.991  16.802  28.368  0.2282  0.1215 -0.0924
38153W        W81247  30.396  18.429  29.464  0.2353  0.2544 -0.0923
38154W        W81248  30.671  16.833  29.508  0.1757  0.1364  0.1379
38155W        W81249  31.367  17.024   0.016 -0.0251  0.5916 -0.1501
38156W        W81250  29.081  17.823  29.847  0.2374 -0.1914  0.2995
38157W        W81251  28.166  18.953  28.208  0.0042 -0.1486 -0.1960
38158W        W81252  31.361  18.216  29.170  0.4035  0.1578  0.0794
38159W        W81253  33.594  17.622  28.965 -0.0745  0.0565  0.1933
38160W        W81254  33.116  18.275  31.895 -0.2433 -0.1105  0.1644
38161W        W81255  29.177  17.903  31.158 -0.0663 -0.1631 -0.1498
38162W        W81256  29.701  17.924  27.760 -0.0201 -0.1582 -0.2141
38163W        W81257  32.073  18.125  30.585 -0.0954  0.3098  0.3581
38164W        W81258  31.110  18.214  30.282 -0.2776  0.4913  0.1155
38165W        W81259  31.577  17.062  30.613 -0.2307 -0.0462  0.3205
38166W        W81260  31.048  16.039  28.570 -0.2349  0.1445  0.2653
38167W        W81261  30.641  17.797  28.057  0.0889 -0.3201 -0.0481
38168W        W81262  30.830  17.014  28.991  0.0755  0.0821  0.0748
38169W        W81263  29.643  17.230  31.476  0.2684  0.1102 -0.2714
38170W        W81264  30.039  17.591  29.197 -0.0274 -0.3060 -0.1365
38171W        W81265  33.001  16.609  30.988 -0.0436  0.1919  0.2274
38172W        W81266  30.589  19.007  27.418  0.2210  0.0972 -0.2141
38173W        W81267  31.513  15.933  28.157  0.1925  0.0518 -0.3354
38174W        W81268  30.169  16.932  27.539  0.2374  0.5432  0.1767
38175W        W81269  31.786  15.546  28.394 -0.0135  0.1472 -0.0481
38176W        W81270  31.129  15.146  30.044 -0.1072  0.0787 -0.2067
38177W        W81271  29.854  19.275  28.635 -0.2290 -0.0325  0.3264
38178W        W81272  30.760  14.410  30.279  0.4066 -0.3150 -0.1524
38179W        W81273  31.477  18.345  28.682  0.1968  0.0216  0.1887
38180W        W81274  30.969  15.644  27.482  0.1296  0.1681 -0.1054
38181W        W81275  31.808  17.514  31.002  0.2993  0.2441  0.0900
38182W        W81276  30.025  17.252  29.721  0.3925 -0.0719  0.3628
38183W        W81277  28.664  15.896  27.936 -0.0779  0.0742  0.3909
38184W        W81278  31.651  18.521  28.186 -0.0158  0.1257 -0.0057
38185W        W81279  32.047  18.533  27.749 -0.0361  0.1951  0.1798
38186W        W81280  31.675  18.172  27.638  0.1614  0.0943  0.4914
38187W        W81281  29.659  16.507  27.992  0.0156  0.0078 -0.2819
38188W        W81282  28.259  16.113  30.615 -0.0783  0.2108 -0.4726
38189W        W81283  30.150  15.999  30.157  0.1189 -0.0565 -0.2713
38190W        W81284  30.575  14.361  28.029 -0.0468  0.3636 -0.0584
38191W        W81285  32.373  17.306  31.002 -0.1968 -0.1449  0.0483
38192W        W81286  27.972  18.359  30.854  0.1375  0.0507  0.1761
38193W        W81287  32.231  16.239  28.004 -0.2189  0.1462  0.1394
38194W        W81288  30.440  17.877  29.559  0.0714  0.1082 -0.0781
38195W        W81289  32.177  17.405  29.538 -0.1221 -0.1920  0.1423
38196W        W81290  30.565  18.218  27.287 -0.1821 -0.0374 -0.0747
38197W        W81291  31.403  14.702  29.919 -0.2849 -0.1206  0.0378
38198W        W81292  33.396  15.918  31.405 -0.3420  0.0264 -0.2981
38199W        W81293  30.605  18.454  25.641  0.0138 -0.0738 -0.0415
38200W        W81294  29.315  17.247  28.205  0.0659  0.0481  0.1218
38201W        W81295  33.090  17.288   1.788  0.2434 -0.0513  0.0238
38202W        W81296  31.315  17.392  27.781  0.1948  0.0236 -0.1696
38203W        W81297  29.904  18.075  30.143 -0.0010  0.4638 -0.3476
38204W        W81298  30.104  14.994  31.325 -0.4363  0.1157  0.1572
38205W        W81299  31.044  17.888  30.614  0.0804 -0.0413 -0.0034
38206W        W81300  29.717  18.861  27.679  0.2202  0.2271  0.3402
38207W        W81301  29.498  17.674  29.310  0.2756  0.1872  0.0150
38208W        W81302  29.217  16.926  29.210 -0.2034  0.1546 -0.0947
38209W        W81303  28.588  14.881  30.725  0.1945  0.0966  0.1853
38210W        W81304  29.528  17.777  28.834  0.0603  0.1137 -0.0222
38211W        W81305  32.436  15.466  27.900 -0.2909  0.1177 -0.1695
38212W        W81306  29.714  16.522  30.058  0.1825 -0.0228  0.4034
38213W        W81307  31.952  15.860  29.033 -0.0383 -0.0661  0.0190
38214W        W81308  28.803  17.319  28.214 -0.0965  0.1086  0.1233
38215W        W81309  32.650  18.505  27.607 -0.1271 -0.0132 -0.2319
38216W        W81310  31.967  15.842  27.223 -0.1942  0.4013  0.0661
38217W        W81311  30.891  17.366  28.053  0.0232  0.3132 -0.0485
38218W        W81312  29.250  16.580  29.630  0.1170 -0.0450  0.4010
38219W        W81313  29.857  15.938  28.856  0.3851 -0.1075 -0.0761
38220W        W81314  30.695  15.583  30.645  0.1936  0.0201 -0.0866
38221W        W81315  29.442  15.011  29.423  0.0098 -0.0698 -0.1934
38222W        W81316  33.318  15.833  31.906 -0.1732 -0.1213 -0.1361
38223W        W81317  30.304  14.634  29.073 -0.0151 -0.0690  0.2699
38224W        W81318  31.142  15.191  29.030 -0.0753 -0.1085  0.1490
38225W        W81319  30.962  17.281  28.585  0.2273 -0.2416 -0.0842
38226W        W81320  28.477  16.338  27.103 -0.5155 -0.1677 -0.2046
38227W        W81321  33.157  16.341  31.905  0.0674 -0.0464 -0.1573
38228W        W81322  31.769  17.505  28.424 -0.0916 -0.1458  0.1370
38229W        W81323  32.219  17.706  30.339  0.0926  0.1851  0.0969
38230W        W81324  33.286  18.103  29.574  0.1372  0.2418 -0.0031
38231W        W81325  29.834  16.311  30.624 -0.1627  0.0453  0.1895
38232W        W81326  29.064  13.480  27.645  0.1618  0.3845  0.1667
38233W        W81327  30.478  18.007  28.550 -0.0285 -0.0635 -0.1335
38234W        W81328  30.016  18.494  28.929 -0.3442 -0.3536 -0.2813
38235W        W81329  30.318  15.731  27.929  0.0080 -0.2650 -0.0739
38236W        W81330  33.433  18.658  29.291  0.2882 -0.2125 -0.1055
38237W        W81331  30.581  17.563  29.171 -0.0677  0.1765  0.0076
38238W        W81332  30.754  17.677  30.938  0.0260 -0.0709 -0.1240
38239W        W81333  32.830  15.544  30.216 -0.0339 -0.0309 -0.2543
38240W        W81334  31.991  16.013  30.511  0.2697  0.0150 -0.2416
38241W        W81335  30.695  16.064  28.921 -0.1990  0.0141  0.1867
38242W        W81336  29.688  14.305  28.391  0.2271  0.1525  0.0737
38243W        W81337  31.823  17.797  29.497 -0.0364  0.0383  0.2305
38244W        W81338  31.168  18.142  27.423  0.0276  0.1843  0.0327
38245W        W81339  28.460  16.906  29.483  0.2236 -0.0737 -0.1137
38246W        W81340  30.995  18.255  28.802  0.1667 -0.0545 -0.2257
38247W        W81341  33.307  15.508  30.049 -0.3540 -0.0109 -0.0483
38248W        W81342  28.451  17.238  31.118  0.0630  0.3235 -0.0737
38249W        W81343  30.322  16.403  30.384  0.0265 -0.3201 -0.1893
38250W        W81344  29.789  15.957  27.931  0.2757 -0.1381  0.2979
38251W        W81345  29.986  18.125  28.522 -0.0214 -0.1376 -0.0233
38252W        W81346  30.889  15.903  29.828 -0.3098  0.0723  0.1522
38253W        W81347  31.423  15.554  27.308  0.0759 -0.2834 -0.2009
38254W        W81348  30.859  17.043  30.456  0.0442 -0.0348 -0.0850
38255W        W81349  33.362  16.815  28.582 -0.1659  0.6011  0.1490
38256W        W81350  30.947  14.151  26.916 -0.1494  0.0690 -0.0880
38257W        W81351  30.878  13.948  27.797  0.2291  0.2199  0.1076
38258W        W81352  28.896  17.198  30.933 -0.2128 -0.0161  0.1472
38259W        W81353  31.520  16.941  27.890 -0.1846 -0.2090 -0.0132
38260W        W81354  32.102  16.848  29.719 -0.2723  0.1191  0.3760
38261W        W81355  30.081  14.701  26.980 -0.1088  0.3420  0.2416
38262W        W81356  33.265  17.254  30.023  0.0275 -0.2652  0.1916
38263W        W81357  29.281  18.124  30.702 -0.0726 -0.0869  0.1501
38264W        W81358  31.298  17.802   0.419 -0.1315  0.0194  0.3148
38265W        W81359  30.909  17.636  29.546  0.2353 -0.0716 -0.2603
38266W        W81360  30.663  16.057  30.336  0.0346  0.0815 -0.3043
38267W        W81361  29.602  16.930  27.746  0.0971 -0.0399  0.3444
38268W        W81362  31.546  14.413  29.090 -0.1849 -0.0748  0.0146
38269W        W81363  29.012  17.731  29.099  0.3046 -0.2001  0.0325
38270W        W81364  32.781  15.087  30.508  0.0282  0.2696 -0.1654
38271W        W81365  31.568  15.527  28.948 -0.2242 -0.0772 -0.0726
38272W        W81366  32.071  15.395  30.052 -0.3999  0.1709 -0.0313
38273W        W81367  32.297  14.841  31.771 -0.0901 -0.4203  0.0410
38274W        W81368  31.317  17.017  27.312  0.2166  0.0642  0.2289
38275W        W81369  29.959  15.569  30.080  0.0065  0.3385 -0.3291
38276W        W81370  29.441  15.625  26.733 -0.3208  0.2461 -0.3623
38277W        W81371  30.875  16.109  30.861  0.0757  0.1758 -0.1067
38278W        W81372  30.984  16.462  31.308 -0.1314  0.0016 -0.1116
38279W        W81373  30.096  18.424  30.433 -0.0804  0.2595 -0.1998
38280W        W81374  30.837  17.087  31.763 -0.0382  0.1412 -0.2697
38281W        W81375  31.486  16.537  29.258 -0.3067  0.1447  0.1377
38282W        W81376  31.532  15.369  30.971 -0.0238 -0.1194 -0.1976
38283W        W81377  31.207  14.811  28.066  0.2711  0.2070 -0.0528
38284W        W81378  30.030  17.496  27.573 -0.2248 -0.1567  0.0746
38285W        W81379  30.502  17.379  27.381 -0.1631  0.3189 -0.3258
38286W        W81380  30.736  15.376  29.798  0.0899  0.1012  0.0695
38287W        W81381  28.988  17.348  30.078 -0.2505  0.0865 -0.2274
38288W        W81382  30.916  17.149  27.570  0.0443 -0.3207  0.0944
38289W        W81383  31.153  16.745  30.913 -0.1072  0.0376 -0.1698
38290W        W81384  31.278  17.748  29.273 -0.1542 -0.1215 -0.0272
38291W        W81385  32.221  14.546  30.067  0.0960  0.1841  0.2485
38292W        W81386  28.721  18.579  30.319  0.0626 -0.0226  0.3843
38293W        W81387  29.285  16.520  28.376 -0.1531  0.1686 -0.2499
38294W        W81388  29.370  16.778  26.577 -0.1907  0.3677 -0.1787
38295W        W81389  31.709  16.455  29.769 -0.0030  0.2771  0.2246
38296W        W81390  32.095  17.840  27.471 -0.1875 -0.3536  0.0091
38297W        W81391  30.349  14.104  29.912  0.1225 -0.2669  0.0824
38298W        W81392  31.751  16.316  28.885 -0.2707  0.3658  0.2294
38299W        W81393  28.286  18.106  29.505  0.1766  0.3281  0.0085
38300W        W81394  31.380  17.255  31.093 -0.0235  0.0166  0.0195
38301W        W81395  32.928  14.913  27.676  0.0804  0.0338 -0.1016
38302W        W81396  31.764  17.439  30.413 -0.1917  0.0761 -0.0253
38303W        W81397  30.176  18.497  31.605 -0.1386  0.1412 -0.2401
38304W        W81398  28.483  16.578  27.739  0.0210  0.0341  0.0233
38305W        W81399  31.383  17.394  28.820 -0.5258  0.1803 -0.2956
38306W        W81400  30.753  14.691  28.860  0.1757  0.1425 -0.5564
38307W        W81401  29.133  18.476  29.588  0.2329 -0.2020 -0.0268
38308W        W81402  31.850  17.954  30.113  0.3710  0.2723 -0.0176
38309W        W81403  30.017  16.710  28.984  0.1034  0.0207  0.4640
38310W        W81404  30.079  16.829  28.523  0.0667  0.1313  0.0108
38311W        W81405  29.873  16.755  30.886 -0.6661  0.3065 -0.2161
38312W        W81406  31.409  17.781  31.626  0.2505 -0.0357 -0.0466
38313W        W81407  31.250  16.248  29.686 -0.1401 -0.1403  0.0108
38314W        W81408  30.235  15.896  29.237 -0.1985 -0.2693  0.0910
38315W        W81409  30.933  16.543  29.256  0.2896 -0.4297 -0.2784
38316W        W81410  30.173  18.776  30.094  0.1707  0.0277  0.0309
38317W        W81411  30.817  16.801  29.996  0.1094 -0.4215 -0.0316
38318W        W81412  31.207  17.428  30.653 -0.1795  0.1514  0.0367
38319W        W81413  31.125  15.106  29.517  0.1230 -0.4807 -0.2298
38320W        W81414  32.801  17.406  27.424 -0.1606  0.0673 -0.1258
38321W        W81415  31.668  16.201  31.314  0.1532  0.2024 -0.1067
38322W        W81416  28.474  17.047  27.974  0.2127  0.0466 -0.0382
38323W        W81417  28.883  15.577  30.104  0.3509  0.1340  0.2829
38324W        W81418  29.742  17.347  28.716  0.3074  0.0368 -0.1608
38325W        W81419  30.394  16.044  30.795 -0.4015 -0.2572  0.0995
38326W        W81420  29.662  16.938  28.301 -0.3262 -0.3820 -0.1017
38327W        W81421  30.079  16.816  28.062  0.0617  0.0934  0.3527
38328W        W81422  29.453  17.360  30.265 -0.0318  0.1773 -0.2484
38329W        W81423  32.933  14.437  27.583 -0.0259 -0.0553 -0.1246
38330W        W81424  31.112  18.578  28.412 -0.0597  0.1812  0.1733
38331W        W81425  31.304  16.894  28.843 -0.1917 -0.0112  0.1186
38332W        W81426  32.076  16.423  30.153 -0.2862 -0.0352  0.0164
38333W        W81427  30.651  16.341  27.003 -0.0913  0.3232 -0.6194
38334W        W81428  30.996  15.574  30.226  0.0962  0.1412 -0.0194
38335W        W81429  29.275  16.324  30.611  0.0404 -0.1200 -0.0786
38336W        W81430  32.595  16.580  27.949  0.0279  0.0031 -0.3925
38337W        W81431  29.850  14.858  30.832 -0.0132 -0.1653  0.1979
38338W        W81432  31.298  19.659  30.738  0.1137 -0.1606 -0.1029
38339W        W81433  30.056  17.137  31.174  0.1993  0.1332  0.0725
38340W        W81434  30.172  16.342  28.252  0.2961  0.2132 -0.1018
38341W        W81435  30.548  12.584  28.616  0.0306  0.1649 -0.0825
38342W        W81436  30.619  16.415  28.481  0.2241  0.3702  0.0752
38343W        W81437  32.960  17.702  30.211 -0.1501  0.1291 -0.1995
38344W        W81438  31.544  16.912  29.700 -0.0944  0.0189  0.2269
38345W        W81439  31.798  16.931  28.851 -0.4385 -0.2444  0.0970
38346W        W81440  28.883  16.549  29.321 -0.1035 -0.4550 -0.2579
38347W        W81441  31.028  16.195  27.307 -0.1595  0.0962  0.2820
38348W        W81442  30.070  17.265  28.329  0.1717  0.2906  0.3490
38349W        W81443  29.702  17.111  29.199 -0.0087  0.0091  0.0454
38350W        W81444  30.440  14.647  29.944 -0.0475 -0.1521  0.0060
38351W        W81445  31.507  18.078  28.233 -0.1285 -0.2731  0.0619
38352W        W81446  31.758  16.803  30.179 -0.4484  0.1837 -0.1012
38353W        W81447  32.424  17.123  31.546  0.0166 -0.0091 -0.1020
38354W        W81448  31.624  15.948  29.460 -0.2962 -0.0211  0.2018
38355W        W81449  31.767  17.304  31.977 -0.0523  0.0557 -0.1048
38356W        W81450  29.648  16.768  31.330 -0.1102 -0.1696  0.1150
38357W        W81451  32.655  17.562  29.456  0.1091 -0.1120 -0.1538
38358W        W81452  31.187  17.115  26.835 -0.1237 -0.4456  0.1529
38359W        W81453  32.577  16.160  31.364 -0.3692  0.1232  0.4433
38360W        W81454  31.873  16.196  28.397 -0.1033 -0.0811  0.0823
38361W        W81455  31.821  15.968  27.748  0.0393 -0.4832 -0.0035
38362W        W81456  28.810  15.305  27.960 -0.0791 -0.0565 -0.1802
38363W        W81457  31.771  16.878  31.605 -0.2537 -0.1470  0.3371
38364W        W81458  30.033  15.099  29.049 -0.0723 -0.3274  0.1374
38365W        W81459  30.378  17.108  30.086 -0.0525  0.1132 -0.2909
38366W        W81460  31.221  18.701  26.560 -0.1229 -0.0493 -0.3646
38367W        W81461  32.588  16.575  29.005 -0.0068 -0.1091  0.2565
38368W        W81462  31.574  15.120  28.097  0.0720  0.1029  0.0018
38369W        W81463  29.397  15.432  30.309  0.1589 -0.3349 -0.2009
38370W        W81464  30.240  18.092   0.301 -0.0119  0.0159  0.0927
38371W        W81465  30.276  15.803  27.023  0.0675 -0.1701  0.0310
38372W        W81466  29.752  16.471  28.619 -0.4380 -0.2625 -0.2379
38373W        W81467  30.929  17.527  30.097 -0.3593  0.0868 -0.0195
38374W        W81468  30.795  17.166  30.947 -0.1080  0.1117 -0.1714
38375W        W81469  32.024  14.482  29.341 -0.1899 -0.0206  0.0043
38376W        W81470  32.635  15.354  31.502  0.2586 -0.1841  0.1921
38377W        W81471  31.467  17.422  29.615 -0.4829  0.4031 -0.1316
38378W        W81472  31.147  16.071  30.254  0.0999  0.3624  0.4305
38379W        W81473  30.400  17.647  29.989  0.0148 -0.1138  0.0843
38380W        W81474  30.397  18.288  30.019  0.2440  0.1677  0.0256
38381W        W81475  29.493  16.861  28.807 -0.2285 -0.0238 -0.1368
38382W        W81476  32.085  15.700  29.564 -0.2807 -0.2477 -0.1448
38383W        W81477  33.355  16.251  30.612 -0.1530 -0.2235 -0.2301
38384W        W81478  31.591  16.425  27.998  0.0813  0.1326  0.4972
38385W        W81479  32.645  17.997  31.498 -0.0065 -0.1407  0.1329
38386W        W81480  31.376  17.749  30.222 -0.0610  0.3209 -0.2752
38387W        W81481  29.426  18.464  31.231  0.2368 -0.2169  0.0551
38388W        W81482  30.773  18.222  30.991 -0.3760 -0.2233 -0.0847
38389W        W81483  32.267  16.208  29.692 -0.1675  0.3189 -0.3018
38390W        W81484  29.538  17.533  29.772  0.0246 -0.2735 -0.0349
38391W        W81485  28.795  16.947  31.347  0.1017 -0.0233  0.0806
38392W        W81486  29.928  17.254  30.571 -0.1726  0.1460  0.1121
38393W        W81487  30.564  16.835  27.770 -0.6772 -0.1430  0.0051
38394W        W81488  31.618  14.871  30.390 -0.1334 -0.0370 -0.0873
38395W        W81489  31.764  18.780  26.421  0.0328 -0.4640  0.0126
38396W        W81490  29.537  18.597  29.883  0.4172 -0.1233  0.1821
38397W        W81491  29.588  16.226  29.675 -0.0616 -0.1941  0.0796
38398W        W81492  29.260  18.030  28.485  0.1272  0.1767 -0.1413
38399W        W81493  32.095  17.103  28.512 -0.0584 -0.1415 -0.1495
38400W        W81494  31.232  17.661  28.322  0.0879 -0.2186  0.2865
38401W        W81495  32.274  17.825  29.214 -0.0057 -0.1660  0.0574
38402W        W81496  30.438  14.896  27.249  0.4470 -0.2282 -0.0585
38403W        W81497  29.584  18.309  28.796 -0.1229  0.1288  0.0493
38404W        W81498  29.250  17.337  28.950  0.2466 -0.4291 -0.3016
38405W        W81499  32.286  18.297  28.905  0.2569  0.3631  0.0275
38406W        W81500  27.220  17.746  27.597 -0.2267 -0.1490 -0.3021
38407W        W81501  32.642  17.612  30.594  0.0161 -0.4378 -0.1025
38408W        W81502  32.358  15.958  27.672  0.5447  0.0766 -0.1512
38409W        W81503  32.808  17.029  31.180  0.1795  0.0075  0.0702
38410W        W81504  32.640  16.235  28.510  0.1568  0.0823  0.2278
38411W        W81505  31.924  19.024  31.206  0.3752 -0.0945 -0.0588
38412W        W81506  30.297  17.898  30.377 -0.4978  0.2491 -0.0474
38413W        W81507  30.662  15.694  29.298  0.1466  0.4908  0.1457
38414W        W81508  30.386  17.012  30.662  0.2229  0.0532  0.1484
38415W        W81509  32.090  15.919  31.384 -0.0010 -0.1011  0.1659
38416W        W81510  30.751  18.599  30.120 -0.1194 -0.1250  0.0338
38417W        W81511  32.613  18.529  27.109  0.0383  0.1144  0.3021
38418W        W81512  28.739  15.172  27.206 -0.1126  0.1854 -0.0610
38419W        W81513  30.474  16.622  28.932  0.1060  0.0897  0.1709
38420W        W81514  33.077  15.929  29.818 -0.1263 -0.0732  0.0754
38421W        W81515  30.992  17.734  28.821 -0.1142 -0.1573  0.0489
38422W        W81516  32.501  16.120  30.297  0.4217 -0.0220 -0.0533
38423W        W81517  29.442  19.079  29.693 -0.1072  0.0348  0.2507
38424W        W81518  29.828  17.030  30.079  0.1630  0.1970  0.0590
38425W        W81519  31.805  17.975  31.234  0.1010 -0.2317  0.3715
38426W        W81520  28.973  15.565  27.578  0.4199  0.2496  0.2796
38427W        W81521  33.031  16.691  29.217  0.1542  0.2674  0.0661
38428W        W81522  28.673  15.325  30.959 -0.0275 -0.2203 -0.1468
38429W        W81523  31.651  15.138  29.945  0.2378 -0.2302 -0.1008
38430W        W81524  29.333  15.011  28.437  0.1428  0.0349 -0.2088
38431W        W81525  33.524  14.723  27.906  0.4112 -0.0716  0.2026
38432W        W81526  32.217  17.179  30.380 -0.1316 -0.0996  0.1680
38433W        W81527  29.358  15.712  29.864 -0.3489  0.1205  0.0003
38434W        W81528  31.961  15.304  27.253  0.0223 -0.0908  0.0146
38435W        W81529  31.714  17.958   0.021  0.1375  0.0019  0.3264
38436W        W81530  31.056  15.565  26.975  0.0312  0.1224 -0.1423
38437W        W81531  32.228  18.274  31.191  0.1140 -0.1808 -0.0427
38438W        W81532  28.475  16.671  28.915  0.1963  0.0123 -0.2851
38439W        W81533  30.646  14.934  28.234 -0.1837  0.1126  0.1816
38440W        W81534  28.550  16.470  28.420  0.0791 -0.1490  0.1916
38441W        W81535  31.261  17.785  31.055 -0.0923  0.0082 -0.0129
38442W        W81536  32.530  16.484   0.009 -0.0751  0.0630  0.0392
38443W        W81537  29.472  15.609  27.526  0.1728 -0.2212 -0.0883
38444W        W81538  32.607  17.259  28.510 -0.0240  0.2022  0.1806
38445W        W81539  32.540  15.134  30.026  0.0286  0.0006  0.2519
38446W        W81540  30.871  20.097  28.270  0.1874  0.1836 -0.2510
38447W        W81541  31.296  16.093  27.661  0.0005  0.1163 -0.0443
38448W        W81542  32.771  17.477  28.867  0.0839  0.2463 -0.1119
38449W        W81543  30.949  15.594  28.811 -0.3586  0.1307 -0.1595
38450W        W81544  31.192  18.255  31.311  0.2706 -0.0031  0.1490
38451W        W81545  32.756  17.263  30.286 -0.0005 -0.3856  0.3348
38452W        W81546  30.590  15.150  28.894 -0.0387 -0.1033 -0.2389
38453W        W81547  30.289  16.499  29.357 -0.0679  0.2802  0.5230
38454W        W81548  29.023  16.647  28.883 -0.0491 -0.0650  0.1182
38455W        W81549  31.563  15.388  29.459 -0.1822  0.2027 -0.0662
38456W        W81550  30.518  16.303  29.908  0.2898  0.4140  0.0347
38457W        W81551  30.301  19.425  27.195 -0.0793  0.4023  0.1568
38458W        W81552  33.101  16.321  31.398  0.2089  0.0182 -0.0833
38459W        W81553  31.296  17.177  30.221  0.1107  0.1683  0.0067
38460W        W81554  30.045  17.615  31.488  0.2643 -0.7627 -0.2498
38461W        W81555  29.170  15.762  27.999  0.1671 -0.1218  0.0999
38462W        W81556  30.643  17.486  30.502  0.0677  0.3543 -0.2116
38463W        W81557  30.512  17.329  29.624 -0.0619 -0.1039  0.1718
38464W        W81558  31.395  18.892  27.362  0.1102  0.0264  0.0565
38465W        W81559  33.140  18.693  29.729  0.2325 -0.0249  0.1422
38466W        W81560  30.529  15.913  28.333 -0.3165  0.2333  0.2184
38467W        W81561  33.011  18.321  30.011 -0.0721  0.0631 -0.1518
38468W        W81562  31.332  15.652  29.790  0.1324 -0.3365 -0.1297
38469W        W81563  33.067  15.698  29.300 -0.1171 -0.0101 -0.2615
38470W        W81564  32.002  15.332  28.761 -0.0427  0.4742 -0.2903
38471W        W81565  32.910  17.780  31.925 -0.0361 -0.0084  0.1942
38472W        W81566  29.216  16.549  27.721  0.2168  0.3378 -0.1049
38473W        W81567  30.684  16.168  27.850  0.1110 -0.0218  0.2296
38474W        W81568  29.548  16.786  30.450 -0.0910 -0.0692 -0.2383
38475W        W81569  30.451  15.492  30.185  0.2397  0.0464 -0.0806
38476W        W81570  29.310  16.443  31.451 -0.0709 -0.1962 -0.2295
38477W        W81571  29.475  16.067  28.356  0.0820 -0.2946  0.1234
38478W        W81572  29.293  16.196  28.811 -0.0048  0.2278 -0.0289
38479W        W81573  32.209  17.374  27.393  0.0099  0.0058 -0.1220
38480W        W81574  29.963  14.708  30.149 -0.0705  0.1509 -0.1035
38481W        W81575  29.865  15.287  29.568 -0.1172 -0.2762 -0.1864
38482W        W81576  32.320  17.698  28.690 -0.3419 -0.1484 -0.0121
38483W        W81577  33.414  16.983  29.561 -0.0385  0.3114 -0.2115
38484W        W81578  30.300  15.308  28.210  0.0090 -0.2149  0.1580
38485W        W81579  33.067  19.890   0.717 -0.1706  0.0566  0.0072
38486W        W81580  29.261  16.100  26.664 -0.1800  0.0204  0.0316
38487W        W81581  31.567  16.639  31.137 -0.1736 -0.1908 -0.1067
38488W        W81582  31.230  15.915  31.256 -0.0651 -0.0431  0.1963
38489W        W81583  29.942  15.821  28.354  0.0930  0.0735 -0.0141
38490W        W81584  30.232  17.118  29.274 -0.2714 -0.0208  0.1624
38491W        W81585  31.506  17.886  28.805  0.2939 -0.1636  0.0949
38492W        W81586  31.843  18.569  27.322 -0.1331  0.1877 -0.0011
38493W        W81587  31.887  17.251  29.954 -0.1859 -0.1118  0.1137
38494W        W81588  29.845  18.108  29.269 -0.1341  0.0176  0.0140
38495W        W81589  29.044  16.241  31.087 -0.2301 -0.0643 -0.0593
38496W        W81590  31.841  18.080  29.121 -0.0353 -0.5788  0.0834
38497W        W81591  31.272  16.618  30.082 -0.0798  0.0178 -0.2759
38498W        W81592  33.695  16.004  28.154  0.1254 -0.2846  0.1838
38499W        W81593  32.924  16.203  29.313 -0.1239  0.2146  0.3341
38500W        W81594  31.556  17.033  28.425  0.0985 -0.1529 -0.1531
38501W        W81595  30.013  15.161   0.332 -0.0018  0.2547 -0.0590
38502W        W81596  29.854  16.715  29.486  0.3000 -0.1084  0.1595
38503W        W81597  32.682  16.359  29.924  0.3298  0.0760  0.0168
38504W        W81598  29.853  15.544  29.137 -0.2420  0.0989 -0.0644
38505W        W81599  29.773  15.037  28.261 -0.0285 -0.1934  0.0405
38506W        W81600  31.038  17.137  29.701 -0.0415  0.1917  0.0151
38507W        W81601  28.293  16.291  29.918 -0.0558 -0.1638 -0.1515
38508W        W81602  30.744  15.319  27.918  0.0344  0.5102  0.1458
38509W        W81603  32.958  16.952  31.925 -0.4016  0.2543  0.2471
38510W        W81604  31.294  17.901  29.725  0.0822  0.2823 -0.4049
38511W        W81605  30.981  16.522  30.492 -0.1137  0.1225 -0.0124
38512W        W81606  30.966  16.534  28.778  0.0790 -0.4775  0.0131
38513W        W81607  31.657  16.529  27.480 -0.3204  0.2384  0.0317
38514W        W81608  31.841  18.518  30.926  0.0184  0.0821 -0.3156
38515W        W81609  31.816  18.978  31.720  0.0671  0.1051  0.0209
38516W        W81610  32.216  17.962  29.744 -0.0023  0.0417  0.4414
38517W        W81611  32.540  17.139  29.847  0.1952  0.1420 -0.1317
38518W        W81612  30.124  14.789  29.533  0.1532  0.0554 -0.0120
38519W        W81613  30.357  15.618  28.724 -0.0589  0.0170  0.3076
38520W        W81614  30.271  16.171  28.839 -0.5032  0.0362  0.0711
38521W        W81615  32.325  16.064  31.827 -0.0005 -0.1604  0.2543
38522W        W81616  30.212  14.914  28.592 -0.0389 -0.1842 -0.0779
38523W        W81617  32.824  15.262  29.144  0.0157 -0.0050  0.0328
38524W        W81618  29.739  18.600  29.342  0.0375 -0.1429 -0.1815
38525W        W81619  32.265  18.389  29.366 -0.0933 -0.0098  0.1157
38526W        W81620  32.000  15.768   0.069  0.2690 -0.2150  0.1511
38527W        W81621  30.576  16.822  31.294 -0.0936  0.2329 -0.0239
38528W        W81622  30.533  16.731  31.832  0.0894  0.0766 -0.1793
38529W        W81623  28.862  19.080  31.044 -0.0113  0.0158  0.3166
38530W        W81624  30.293  17.554  30.790 -0.0810 -0.0333 -0.0432
38531W        W81625  27.788  18.301  30.360  0.0440 -0.2565  0.0741
38532W        W81626  34.422  15.671   1.922  0.4677  0.0289 -0.3396
38533W        W81627  30.738  15.752  31.142  0.2690  0.0199  0.4008
38534W        W81628  31.450  16.253   0.336 -0.0506  0.3306  0.0594
38535W        W81629  32.810  17.358  31.563 -0.0594  0.0742  0.2182
38536W        W81630  32.476  17.581   0.746  0.3438  0.0129 -0.1295
38537W        W81631  31.248  16.285  31.695  0.2067  0.0330  0.3372
38538W        W81632  32.321  18.064   0.639  0.2733 -0.2059 -0.1316
38539W        W81633  29.567  17.127  30.827  0.1475 -0.1676  0.0945
38540W        W81634  32.675  16.038   0.961  0.2259 -0.1335 -0.1342
38541W        W81635  30.607  18.323  30.516 -0.2110  0.1385 -0.0796
38542W        W81636  28.474  17.693  31.978  0.1418 -0.0746  0.3611
38543W        W81637  31.603  16.818   1.295  0.0501 -0.0169 -0.2637
38544W        W81638  29.654  14.658   0.108  0.2026 -0.0383 -0.1398
38545W        W81639  29.030  14.877  30.996 -0.1435  0.1059 -0.2500
38546W        W81640  29.341  14.610  30.749  0.1587  0.0947  0.1496
38547W        W81641  28.421  17.990   0.398 -0.0169  0.0641 -0.2066
38548W        W81642  32.649  17.350   0.193 -0.2372  0.2182  0.2559
38549W        W81643  31.520  15.775  30.487 -0.0346  0.1034  0.0677
38550W        W81644  31.686  16.032  31.732 -0.0966  0.0128  0.1272
38551W        W81645  30.697  16.275  31.708 -0.4723  0.0009 -0.1230
38552W        W81646  31.551  18.451   0.950 -0.0360 -0.4322 -0.0792
38553W        W81647  30.270  18.180  30.892 -0.0407  0.2215 -0.0432
38554W        W81648  31.156  17.509  31.979 -0.0231  0.3837  0.0821
38555W        W81649  31.967  17.838   1.554  0.0626 -0.0408  0.3427
38556W        W81650  30.966  18.664  30.718 -0.3630 -0.1312 -0.1377
38557W        W81651  30.532  16.270  31.238  0.1089 -0.0180 -0.2680
38558W        W81652  32.851  16.337   0.323 -0.2882 -0.1151  0.0741
38559W        W81653  31.054  14.983   0.503 -0.1199  0.1084 -0.1697
38560W        W81654  30.782  17.004   0.270 -0.1443  0.1309  0.4095
38561W        W81655  31.023  16.648   1.102 -0.0684 -0.2431 -0.0554
38562W        W81656  29.785  18.003   0.433 -0.1909 -0.1635 -0.0387
38563W        W81657  30.033  16.369  31.268 -0.0148 -0.1153 -0.1975
38564W        W81658  29.569  16.310  31.021 -0.0248 -0.0901 -0.1247
38565W        W81659  30.417  15.475   0.574  0.1263  0.0177 -0.1088
38566W        W81660  31.987  15.288   0.038  0.0099 -0.0878  0.0465
38567W        W81661  32.869  15.831  31.699 -0.0229 -0.2424 -0.0367
38568W        W81662  32.245  16.221  31.024  0.1977  0.0949 -0.0139
38569W        W81663  32.322  17.888   0.159 -0.2252  0.1583  0.1326
38570W        W81664  29.460  15.180  30.790  0.0069  0.0425 -0.2628
38571W        W81665  30.142  19.008  31.460 -0.0446 -0.2768 -0.0976
38572W        W81666  30.311  13.527  31.504  0.0953  0.1236 -0.0901
38573W        W81667  29.903  18.916  29.647  0.1379  0.2767 -0.1490
38574W        W81668  33.240  17.805   1.670 -0.0466  0.0823 -0.0370
38575W        W81669  28.117  18.809  30.463 -0.0512 -0.0602 -0.2189
38576W        W81670  31.337  18.778  31.657  0.1474  0.1802  0.1220
38577W        W81671  31.391  15.972   1.310 -0.2238  0.1121 -0.0609
38578W        W81672  32.428  16.707  31.125 -0.0539 -0.2603  0.1194
38579W        W81673  31.431  18.646  31.171 -0.1296  0.0268  0.0619
38580W        W81674  31.674  15.679  31.417  0.0463  0.0086 -0.2100
38581W        W81675  30.933  15.640   0.308  0.1950  0.2976 -0.3062
38582W        W81676  31.849  16.385  30.778  0.4716  0.2447 -0.0510
38583W        W81677  29.862  17.805  30.577  0.0111  0.2866 -0.1486
38584W        W81678  31.947  20.609  31.154  0.0656 -0.0375 -0.0945
38585W        W81679  30.061  17.208  31.836 -0.1012 -0.2483  0.0611
38586W        W81680  29.840  15.449  30.959  0.1064 -0.0856  0.1676
38587W        W81681  29.780  18.296  30.811  0.0465  0.3114 -0.2073
38588W        W81682  29.146  17.046  30.533  0.0708 -0.0421  0.0829
38589W        W81683  28.598  15.191  30.306 -0.0460 -0.0415 -0.1517
38590W        W81684  32.577  18.548   0.795  0.1990  0.0954 -0.0652
38591W        W81685  33.318  18.724   0.620 -0.0033 -0.3600  0.1616
38592W        W81686  33.094  14.901   0.887  0.0274  0.0455  0.3339
38593W        W81687  28.477  21.619  18.804 -0.0420 -0.3429  0.4182
38594W        W81688  29.391  19.855  17.479  0.2637 -0.0661  0.0121
38595W        W81689  32.764  19.743  17.128 -0.0502 -0.2274  0.2364
38596W        W81690  30.784  20.226  16.896  0.2178  0.0922 -0.1239
38597W        W81691  29.763  19.404  17.487 -0.1629  0.0112 -0.3183
38598W        W81692  31.583  21.157  16.640  0.2895  0.0285  0.0137
38599W        W81693  28.645  17.202  18.347 -0.0382 -0.0430 -0.1356
38600W        W81694  31.183  21.751  20.214  0.1679  0.0369 -0.0693
38601W        W81695  33.651  22.641  17.979  0.1603 -0.0191 -0.0432
38602W        W81696  30.504  19.561  16.210  0.2435 -0.1549  0.4249
38603W        W81697  30.082  19.355  19.100  0.0412 -0.2105 -0.2190
38604W        W81698  28.942  21.750  18.597 -0.0488 -0.0876 -0.0941
38605W        W81699  30.353  18.159  16.588  0.0605 -0.0355 -0.1814
38606W        W81700  28.947  17.924  19.520  0.1011 -0.1751  0.3886
38607W        W81701  30.697  21.548  19.731 -0.1129 -0.1609 -0.1577
38608W        W81702  29.794  20.367  18.401  0.1408 -0.0572  0.1090
38609W        W81703  28.871  19.530  19.832  0.1063 -0.2678 -0.2522
38610W        W81704  30.156  20.182  17.701 -0.1010 -0.1587  0.1781
38611W        W81705  31.231  21.533  16.876 -0.2156  0.1184 -0.1268
38612W        W81706  29.629  18.471  19.924  0.0935 -0.1355  0.2444
38613W        W81707  29.446  20.717  20.674  0.2251  0.3615  0.0851
38614W        W81708  30.645  20.920  16.974 -0.1383 -0.2416  0.0283
38615W        W81709  29.643  19.331  16.494 -0.0070 -0.2224  0.0645
38616W        W81710  29.300  19.813  19.812 -0.0688  0.1525  0.1419
38617W        W81711  29.937  20.309  18.867  0.4043 -0.2207  0.0266
38618W        W81712  30.468  20.183  18.603 -0.0448 -0.3672 -0.3500
38619W        W81713  33.081  20.702  18.634  0.1959  0.1401 -0.2519
38620W        W81714  29.288  21.805  18.160  0.3347 -0.1335  0.0542
38621W        W81715  30.047  22.314  17.895 -0.0479  0.2035 -0.0947
38622W        W81716  32.413  20.745  18.691  0.0100 -0.3151  0.2258
38623W        W81717  29.459  20.746  17.189  0.2276 -0.0971  0.2077
38624W        W81718  29.899  22.634  17.461 -0.0297 -0.0334 -0.2348
38625W        W81719  30.165  21.516  18.311  0.3784 -0.3624  0.0343
38626W        W81720  32.765  21.025  18.336 -0.3336 -0.0941 -0.2199
38627W        W81721  33.075  21.218  19.860  0.2804 -0.0218 -0.0577
38628W        W81722  29.625  21.402  19.721  0.0691  0.4168 -0.0673
38629W        W81723  28.608  19.911  15.926  0.1198 -0.0100 -0.0716
38630W        W81724  30.616  22.896  19.043 -0.1086  0.3204  0.1149
38631W        W81725  29.389  19.286  19.715 -0.1951  0.0372 -0.0610
38632W        W81726  31.127  20.555  17.759  0.3736 -0.0911 -0.3826
38633W        W81727  30.618  20.240  17.951  0.0169  0.1226 -0.0754
38634W        W81728  31.160  22.010  17.613  0.0065  0.3468  0.0655
38635W        W81729  29.568  22.026  17.767 -0.1296  0.0559 -0.0733
38636W        W81730  29.015  21.649  20.082  0.1266 -0.1031  0.1146
38637W        W81731  29.063  20.775  18.033  0.1086 -0.5315  0.3658
38638W        W81732  31.540  20.010  19.710 -0.0201  0.1586 -0.2090
38639W        W81733  29.002  20.849  16.370 -0.0379  0.0918  0.3818
38640W        W81734  32.307  19.250  16.259 -0.3428  0.2091  0.2434
38641W        W81735  30.984  19.574  16.335 -0.1404 -0.0020  0.0040
38642W        W81736  30.705  19.529  16.987 -0.0553  0.3309 -0.1102
38643W        W81737  31.119  19.225  19.440 -0.1550 -0.1769  0.0342
38644W        W81738  29.358  22.148  19.477 -0.0345  0.2351 -0.0508
38645W        W81739  29.770  17.468  19.045  0.0720 -0.0129  0.0910
38646W        W81740  32.934  20.774  19.634  0.0828 -0.0081  0.0062
38647W        W81741  30.509  20.333  16.425 -0.0885 -0.4093 -0.0014
38648W        W81742  30.328  19.912  19.048 -0.2473  0.1058 -0.0155
38649W        W81743  30.082  21.247  18.813  0.1519  0.0161  0.0315
38650W        W81744  28.797  20.412  17.808  0.2319  0.0888  0.0989
38651W        W81745  32.233  20.899  17.390 -0.1373  0.0116 -0.2383
38652W        W81746  31.406  21.115  17.119  0.0523 -0.1848  0.0975
38653W        W81747  30.966  22.131  16.604  0.2187  0.1533 -0.0971
38654W        W81748  28.475  20.670  17.073 -0.2150  0.0339  0.4433
38655W        W81749  29.930  20.779  20.409  0.0371 -0.1924  0.0928
38656W        W81750  27.395  20.510  19.905  0.0184  0.1839  0.1154
38657W        W81751  28.663  17.691  18.185 -0.0734 -0.1811  0.1388
38658W        W81752  32.252  21.771  18.990 -0.2724  0.0482  0.0259
38659W        W81753  29.774  22.318  20.348 -0.0871 -0.0811 -0.0578
38660W        W81754  32.831  19.371  17.491  0.4546 -0.0296 -0.0879
38661W        W81755  31.207  19.552  17.557 -0.1189 -0.1657  0.1174
38662W        W81756  33.903  19.887  20.218 -0.0840  0.0089 -0.0614
38663W        W81757  30.313  19.850  17.342 -0.2372  0.1745  0.0600
38664W        W81758  31.355  19.048  17.750 -0.1789  0.3110 -0.2814
38665W        W81759  30.989  17.602  18.437 -0.0931 -0.0515  0.1333
38666W        W81760  29.371  20.183  17.095  0.1024 -0.0532  0.0440
38667W        W81761  29.877  20.627  16.977 -0.1770  0.0796  0.2617
38668W        W81762  32.862  21.594  18.937  0.1788 -0.1195 -0.0269
38669W        W81763  33.309  19.850  16.885  0.2689  0.2593 -0.1947
38670W        W81764  27.524  21.996  18.914 -0.0452  0.0557  0.3059
38671W        W81765  30.167  21.458  19.383 -0.1405  0.3328 -0.1151
38672W        W81766  30.566  21.803  19.280  0.0117  0.1356  0.0450
38673W        W81767  29.506  22.192  16.308 -0.0498  0.2285 -0.0340
38674W        W81768  27.951  20.279  18.090 -0.0432 -0.0539 -0.2991
38675W        W81769  28.384  20.407  16.662  0.0598 -0.0855 -0.3241
38676W        W81770  28.220  19.699  19.342 -0.3342  0.2296  0.0196
38677W        W81771  30.001  20.748  18.674  0.0404  0.1982 -0.1267
38678W        W81772  32.716  17.659  17.031  0.1292  0.1269 -0.1914
38679W        W81773  29.278  18.115  18.712 -0.3199  0.2403 -0.0645
38680W        W81774  30.952  19.850  17.238  0.1615  0.0251 -0.1931
38681W        W81775  28.009  20.480  17.017 -0.1950  0.0334  0.1538
38682W        W81776  32.258  21.535  17.485 -0.0771 -0.0295  0.2757
38683W        W81777  31.975  20.258  16.644 -0.0566 -0.1605  0.0761
38684W        W81778  32.232  20.503  17.004  0.3378  0.1187  0.1187
38685W        W81779  29.371  19.450  18.988  0.0090 -0.1122 -0.0870
38686W        W81780  28.492  20.625  18.655  0.1179 -0.1515 -0.3338
38687W        W81781  30.790  18.884  19.737  0.2259  0.0189  0.2027
38688W        W81782  28.393  17.716  18.644  0.0349 -0.0343  0.4016
38689W        W81783  32.737  20.355  18.748  0.0601 -0.2537  0.0039
38690W        W81784  29.510  17.960  16.953 -0.2584  0.0473 -0.2985
38691W        W81785  32.651  19.863  18.456 -0.2515  0.2259  0.2524
38692W        W81786  29.943  20.798  17.486  0.0125  0.1099  0.0563
38693W        W81787  28.125  21.904  17.557 -0.0255  0.3840 -0.2091
38694W        W81788  31.679  20.034  19.049  0.0716  0.0543 -0.0439
38695W        W81789  32.480  23.601  16.638  0.0413  0.2350 -0.5328
38696W        W81790  33.040  21.763  19.680 -0.1541 -0.0423  0.2382
38697W        W81791  32.003  22.129  16.648 -0.2063  0.2735  0.1310
38698W        W81792  30.421  18.168  19.593 -0.0351  0.2435 -0.0200
38699W        W81793  30.501  18.730  17.374 -0.3356  0.2183 -0.3184
38700W        W81794  29.786  21.947  18.298  0.1695 -0.1692 -0.0875
38701W        W81795  29.175  21.316  18.693  0.1825  0.3202 -0.1488
38702W        W81796  29.381  18.353  17.321  0.0137  0.2674 -0.0317
38703W        W81797  31.911  21.400  16.915 -0.3265 -0.0827  0.0631
38704W        W81798  28.994  20.170  17.405 -0.1507 -0.0570 -0.1379
38705W        W81799  28.397  21.507  19.281 -0.1096 -0.1668 -0.1370
38706W        W81800  32.443  19.436  17.920  0.1508  0.0515  0.1629
38707W        W81801  31.784  20.193  18.535 -0.2163 -0.0402 -0.1838
38708W        W81802  30.083  18.956  17.323 -0.0861  0.1083 -0.2038
38709W        W81803  28.397  18.162  17.294 -0.0125  0.1046  0.1467
38710W        W81804  30.510  21.055  18.522  0.2391 -0.2006  0.0763
38711W        W81805  27.948  22.901  18.700 -0.1532  0.0032 -0.4181
38712W        W81806  29.396  20.176  18.703 -0.0967  0.0562  0.0951
38713W        W81807  30.465  21.387  17.096  0.0758  0.1330  0.0530
38714W        W81808  31.102  20.035  17.745  0.0104  0.0144  0.2849
38715W        W81809  28.502  19.840  19.740  0.0857  0.0354 -0.0993
38716W        W81810  30.338  19.430  20.161 -0.0412 -0.0948  0.0882
38717W        W81811  29.384  18.938  16.712  0.1805  0.4001  0.0401
38718W        W81812  30.387  21.178  19.915  0.4936 -0.3008 -0.2538
38719W        W81813  30.798  19.229  17.371  0.0028 -0.0819  0.0895
38720W        W81814  32.580  19.661  16.240  0.1660 -0.1598  0.2730
38721W        W81815  31.558  21.458  20.117 -0.0801 -0.0932  0.0553
38722W        W81816  30.901  21.365  18.689 -0.2228 -0.0958  0.0047
38723W        W81817  31.754  18.879  17.433  0.0745 -0.0291 -0.0322
38724W        W81818  31.169  19.685  16.780  0.1067 -0.1357  0.0501
38725W        W81819  30.229  21.684  20.428 -0.0163  0.2427  0.2539
38726W        W81820  30.386  20.593  17.370  0.0238  0.1784  0.1017
38727W        W81821  30.213  20.505  18.274  0.1500  0.0397 -0.1653
38728W        W81822  29.413  19.751  16.661 -0.3789 -0.5022 -0.0651
38729W        W81823  33.175  21.648  16.587  0.2097 -0.3928  0.0564
38730W        W81824  29.447  21.994  18.972 -0.3031  0.0736 -0.0860
38731W        W81825  31.205  21.349  19.750  0.2812  0.1048  0.1875
38732W        W81826  31.365  21.655  17.369 -0.0683 -0.2147  0.0072
38733W        W81827  30.143  18.834  19.252 -0.0427 -0.1897 -0.0874
38734W        W81828  29.809  20.200  16.738 -0.0871 -0.0955 -0.3470
38735W        W81829  31.602  18.452  17.149 -0.1060 -0.0149  0.1268
38736W        W81830  28.946  22.413  16.383  0.0297  0.1512  0.2104
38737W        W81831  32.326  20.235  18.493 -0.1563  0.2586  0.0397
38738W        W81832  30.663  19.758  17.724 -0.2629  0.0881  0.2568
38739W        W81833  30.290  17.315  19.032 -0.0270  0.1325 -0.0313
38740W        W81834  31.898  20.869  19.104  0.1922  0.1476 -0.2551
38741W        W81835  31.471  19.846  16.442  0.0928 -0.4910  0.1117
38742W        W81836  31.964  20.156  19.459  0.1630 -0.0930 -0.0660
38743W        W81837  29.337  19.655  17.963 -0.0556  0.1172  0.0538
38744W        W81838  30.758  18.531  20.069 -0.3017 -0.1344 -0.1004
38745W        W81839  30.288  20.519  20.097 -0.1917 -0.2652 -0.0761
38746W        W81840  29.078  21.982  17.570 -0.2211  0.2210  0.2422
38747W        W81841  32.113  22.100  18.470  0.0575  0.0406  0.1480
38748W        W81842  33.446  20.992  18.754  0.4358 -0.0365 -0.2410
38749W        W81843  30.859  19.533  19.137 -0.1052 -0.2854  0.0444
38750W        W81844  30.120  19.614  16.560  0.2322 -0.2964 -0.1425
38751W        W81845  29.150  21.096  16.927 -0.1063 -0.0441 -0.3103
38752W        W81846  29.907  20.627  16.444  0.3508  0.0184  0.5117
38753W        W81847  30.503  19.074  18.806 -0.1121  0.1841 -0.2871
38754W        W81848  29.783  21.863  19.482  0.0009  0.2108 -0.5285
38755W        W81849  29.220  21.390  16.475  0.1562  0.0864 -0.0164
38756W        W81850  31.078  19.744  19.680  0.0472 -0.1800 -0.1242
38757W        W81851  29.739  21.415  16.531 -0.0593  0.1846  0.2034
38758W        W81852  30.215  19.290  18.457 -0.1167 -0.0037 -0.0358
38759W        W81853  28.929  22.471  16.859 -0.0396 -0.2063 -0.0502
38760W        W81854  28.558  19.288  17.599 -0.0351  0.0124  0.1421
38761W        W81855  27.549  20.682  17.278  0.1271 -0.1171  0.0059
38762W        W81856  31.306  20.046  18.777  0.1044  0.2127  0.1610
38763W        W81857  31.263  20.208  16.801 -0.4127  0.0041  0.3917
38764W        W81858  29.685  20.092  20.244 -0.0406  0.1099  0.0667
38765W        W81859  30.141  20.214  19.714  0.1097 -0.1443 -0.0172
38766W        W81860  28.370  22.657  18.143 -0.0399 -0.1260  0.3540
38767W        W81861  29.677  21.373  18.302 -0.4189 -0.1261  0.1902
38768W        W81862  32.144  19.139  17.140  0.0811 -0.3054  0.0817
38769W        W81863  31.075  20.356  19.646  0.0118 -0.0288  0.1385
38770W        W81864  29.401  20.302  19.755  0.4371 -0.3625  0.2503
38771W        W81865  28.850  19.345  17.088  0.1990  0.1480  0.1616
38772W        W81866  33.622  19.905  18.768 -0.0886  0.0672  0.3156
38773W        W81867  30.239  19.337  16.991 -0.0298 -0.3097  0.0029
38774W        W81868  28.423  21.897  18.015  0.1418  0.0954  0.1347
38775W        W81869  31.614  21.641  19.334 -0.1019 -0.1466 -0.0802
38776W        W81870  29.085  20.003  18.330 -0.0604 -0.0163 -0.1437
38777W        W81871  27.762  21.576  18.750 -0.2087 -0.2790 -0.0510
38778W        W81872  29.353  19.689  20.370 -0.1745 -0.2321 -0.1942
38779W        W81873  31.130  21.805  19.484 -0.0298  0.0186  0.0185
38780W        W81874  29.486  18.547  18.513 -0.1441  0.3557 -0.0650
38781W        W81875  29.612  19.820  18.326  0.2467  0.1978 -0.0004
38782W        W81876  30.360  19.422  17.488 -0.0858  0.2662 -0.3633
38783W        W81877  31.316  19.733  18.228  0.0298  0.2836  0.0043
38784W        W81878  29.967  19.560  17.980 -0.2422  0.3430 -0.0254
38785W        W81879  29.809  20.088  19.393 -0.0688  0.1474  0.1590
38786W        W81880  31.403  18.293  18.394 -0.0942 -0.1851  0.2627
38787W        W81881  31.823  21.229  17.378  0.0179 -0.1042 -0.0499
38788W        W81882  31.956  20.342  18.002  0.0944 -0.2459 -0.3175
38789W        W81883  29.164  19.379  17.473 -0.0296 -0.0292 -0.0303
38790W        W81884  28.577  19.146  20.066  0.3302  0.1051  0.0821
38791W        W81885  29.319  21.147  17.421 -0.1598 -0.1406  0.3989
38792W        W81886  30.159  19.726  19.510  0.2693 -0.1671  0.2588
38793W        W81887  28.157  21.769  18.446 -0.0138  0.0974 -0.0657
38794W        W81888  28.892  20.958  15.865  0.1911 -0.0823  0.1884
38795W        W81889  28.494  21.908  19.550 -0.1563  0.2649 -0.0827
38796W        W81890  32.952  18.148  17.832  0.4795  0.0407  0.1622
38797W        W81891  31.058  21.057  16.751 -0.1211 -0.2150 -0.3795
38798W        W81892  30.574  19.655  18.549  0.1525 -0.0121 -0.0343
38799W        W81893  31.493  19.237  18.270  0.2273 -0.0747  0.1152
38800W        W81894  29.671  21.178  16.988  0.0639 -0.1085 -0.2114
38801W        W81895  31.785  17.618  20.016  0.0248  0.3123 -0.2921
38802W        W81896  28.198  16.964  18.143 -0.3700  0.0819 -0.1133
38803W        W81897  32.338  20.846  18.198  0.0014 -0.1637  0.0854
38804W        W81898  29.485  18.185  19.245  0.0997  0.0348 -0.2315
38805W        W81899  32.140  22.375  19.801  0.0727 -0.3691 -0.1020
38806W        W81900  28.718  21.100  21.084  0.1026 -0.0284  0.1987
38807W        W81901  29.922  20.198  17.263 -0.2576 -0.1032 -0.0736
38808W        W81902  29.582  18.223  16.524 -0.2870  0.0656 -0.1688
38809W        W81903  30.276  20.394  19.253 -0.0810  0.0590 -0.1111
38810W        W81904  31.578  20.561  18.874  0.0411  0.1454 -0.3993
38811W        W81905  30.176  23.117  17.362  0.1554 -0.2517 -0.0329
38812W        W81906  32.388  19.527  17.333 -0.1351  0.0428 -0.0413
38813W        W81907  29.697  19.144  19.305  0.2330  0.0547  0.0634
38814W        W81908  30.945  21.306  18.145  0.1751  0.1525 -0.0061
38815W        W81909  30.135  21.066  17.016  0.1553 -0.3066 -0.1374
38816W        W81910  29.059  19.806  17.111 -0.1269 -0.2591 -0.0335
38817W        W81911  29.131  16.747  19.571 -0.1352  0.2716  0.1470
38818W        W81912  30.658  21.710  18.409  0.1098  0.0808 -0.1150
38819W        W81913  30.428  19.338  18.005  0.2149  0.3423  0.2721
38820W        W81914  30.808  18.611  18.680 -0.0583  0.3432 -0.0144
38821W        W81915  31.495  20.147  18.116  0.2231  0.3547  0.2251
38822W        W81916  31.232  20.125  19.259  0.0044  0.2506 -0.0001
38823W        W81917  29.616  19.009  20.048 -0.0801  0.2317  0.0691
38824W        W81918  31.732  22.883  18.006 -0.0250 -0.1607  0.1191
38825W        W81919  31.941  19.911  17.222 -0.0831 -0.1498 -0.3247
38826W        W81920  30.809  19.059  17.823  0.2567  0.3727 -0.0114
38827W        W81921  32.281  19.973  16.863  0.0184  0.1248 -0.3194
38828W        W81922  30.682  20.206  17.426 -0.0601 -0.2538  0.2021
38829W        W81923  29.311  19.392  18.440 -0.3442 -0.2457  0.1526
38830W        W81924  30.680  20.704  19.761 -0.0120  0.2410  0.0554
38831W        W81925  29.200  18.450  16.808  0.0649 -0.2846  0.1436
38832W        W81926  30.931  18.412  19.567 -0.0354 -0.2700  0.3702
38833W        W81927  31.678  22.514  16.103  0.1078  0.0842  0.1983
38834W        W81928  30.863  21.527  17.666  0.0153 -0.0814 -0.3604
38835W        W81929  31.293  20.977  18.539 -0.2024  0.0037 -0.0440
38836W        W81930  28.956  18.547  18.648  0.1404  0.2120 -0.0222
38837W        W81931  28.902  22.157  19.802 -0.2800 -0.1366  0.3163
38838W        W81932  28.616  18.902  18.024 -0.2320 -0.1022  0.1369
38839W        W81933  31.726  19.962  15.924 -0.2444 -0.1811  0.0335
38840W        W81934  29.378  20.639  18.818  0.0448  0.0743 -0.2459
38841W        W81935  31.526  20.594  19.382  0.1760 -0.3500  0.2632
38842W        W81936  31.050  18.722  17.013  0.2118  0.2687 -0.1680
38843W        W81937  33.080  19.560  19.489  0.2014  0.1502 -0.2085
38844W        W81938  28.632  22.121  16.600 -0.0957  0.0392 -0.2235
38845W        W81939  30.802  19.946  18.878  0.0843  0.2868  0.0933
38846W        W81940  28.542  21.130  18.713 -0.0603 -0.3259 -0.1384
38847W        W81941  28.405  22.248  20.614  0.0139 -0.0775 -0.2193
38848W        W81942  29.628  22.386  18.129 -0.1145 -0.1066  0.2348
38849W        W81943  30.885  20.010  18.388 -0.0905  0.1435  0.1393
38850W        W81944  33.329  19.202  17.555  0.1400  0.1211 -0.0068
38851W        W81945  29.783  21.685  18.751  0.1148  0.2957 -0.1563
38852W        W81946  32.127  19.856  18.734  0.2028  0.2161  0.1170
38853W        W81947  30.900  20.966  18.957  0.0575  0.1152 -0.1143
38854W        W81948  29.001  20.866  18.509  0.1431 -0.0892  0.0838
38855W        W81949  31.688  21.089  19.496 -0.1494  0.1884  0.1907
38856W        W81950  32.730  20.507  18.265  0.3268  0.0362 -0.0718
38857W        W81951  29.963  21.183  17.812 -0.2688 -0.0196 -0.1992
38858W        W81952  29.523  19.206  20.501 -0.3083  0.2954 -0.3290
38859W        W81953  31.106  20.283  20.545 -0.1356  0.1370  0.1103
38860W        W81954  31.398  21.004  19.097 -0.0447  0.0168  0.1904
38861W        W81955  30.209  19.033  16.542  0.2364  0.3013 -0.2068
38862W        W81956  29.987  21.070  16.296 -0.0272 -0.0017 -0.3009
38863W        W81957  29.299  22.408  21.069  0.0346  0.1606  0.0137
38864W        W81958  29.642  19.588  20.816 -0.0741 -0.2435  0.3303
38865W        W81959  29.243  21.626  16.928 -0.1243  0.0117  0.2834
38866W        W81960  30.919  20.604  16.540  0.1530  0.0998  0.0474
38867W        W81961  31.313  20.998  18.050 -0.0414  0.4276 -0.0311
38868W        W81962  30.371  20.786  17.845  0.2791 -0.0521  0.0037
38869W        W81963  30.085  20.079  16.340 -0.0394  0.0440  0.1068
38870W        W81964  28.752  21.101  17.252 -0.1547 -0.0681 -0.2279
38871W        W81965  28.542  21.422  17.501  0.0483 -0.1425  0.0051
38872W        W81966  31.508  21.911  16.786 -0.1195 -0.1059  0.0369
38873W        W81967  30.447  22.647  17.892 -0.0420 -0.1970  0.0096
38874W        W81968  31.443  22.348  19.550 -0.1947  0.0989  0.0569
38875W        W81969  32.825  18.713  16.698 -0.1167  0.0573  0.0241
38876W        W81970  32.377  20.527  17.826 -0.0293 -0.2934 -0.1064
38877W        W81971  31.594  19.914  17.628  0.0904  0.1048 -0.0136
38878W        W81972  31.872  21.727  18.685 -0.0905  0.0640  0.1128
38879W        W81973  29.371  21.557  19.241  0.2404 -0.1515 -0.1418
38880W        W81974  29.847  19.071  16.865  0.1313  0.0204  0.0174
38881W        W81975  29.513  21.837  20.147  0.0592  0.0002  0.2099
38882W        W81976  31.576  18.488  18.833 -0.0050 -0.1596  0.2785
38883W        W81977  29.514  21.729  17.315  0.1927 -0.2408 -0.0894
38884W        W81978  32.295  22.903  16.500  0.2892 -0.2209  0.3649
38885W        W81979  30.305  20.464  16.859 -0.0024 -0.0833  0.2488
38886W        W81980  29.465  20.935  18.275 -0.1919  0.1392 -0.1087
38887W        W81981  31.913  18.635  19.274  0.1596  0.2753 -0.0681
38888W        W81982  30.671  19.868  16.605  0.0419 -0.0227 -0.1803
38889W        W81983  30.803  20.702  18.208 -0.1546 -0.0121  0.0736
38890W        W81984  30.422  22.142  16.604 -0.0279  0.0854 -0.3466
38891W        W81985  28.063  20.420  18.582 -0.1737  0.0275  0.0636
38892W        W81986  30.870  22.372  17.905 -0.2190  0.0957 -0.1167
38893W        W81987  30.479  18.882  18.273  0.1663  0.0274 -0.2180
38894W        W81988  31.560  20.600  17.966  0.1361  0.2940  0.0244
38895W        W81989  29.169  20.568  19.335  0.2130  0.1769  0.4139
38896W        W81990  32.387  19.001  19.053 -0.2894 -0.0747  0.0002
38897W        W81991  29.438  19.447  17.038  0.0409 -0.0572 -0.0564
38898W        W81992  31.831  17.202  17.454  0.3151  0.1546 -0.1088
38899W        W81993  30.035  21.003  18.261  0.1884  0.0724 -0.0521
38900W        W81994  29.920  19.339  19.796 -0.1602 -0.1146 -0.1112
38901W        W81995  29.555  20.401  17.530 -0.1849 -0.3797 -0.0123
38902W        W81996  32.887  19.261  19.190 -0.0632 -0.2382  0.2903
38903W        W81997  31.755  19.072  16.011  0.1214 -0.0964 -0.2709
38904W        W81998  31.841  22.313  18.971  0.0670  0.0090  0.1602
38905W        W81999  29.903  18.946  18.715 -0.0386 -0.0508  0.1635
38906W        W82000  30.376  18.240  17.241 -0.0982  0.2440  0.1569
38907W        W82001  28.938  19.407  18.072 -0.1620  0.0336  0.0670
38908W        W82002  30.067  18.938  20.172  0.0280 -0.1148 -0.0970
38909W        W82003  33.602  22.356  18.861  0.2195  0.1067  0.1470
38910W        W82004  29.019  18.479  17.783 -0.0734 -0.0302 -0.2583
38911W        W82005  33.142  22.056  17.275  0.1311  0.3007  0.1486
38912W        W82006  32.497  18.996  17.513  0.0632 -0.0082 -0.0781
38913W        W82007  29.867  22.011  16.798  0.0835  0.0355  0.1073
38914W        W82008  31.464  19.832  17.176  0.2040 -0.2691 -0.1999
38915W        W82009  31.237  23.025  18.191  0.1417  0.2829  0.0578
38916W        W82010  29.367  18.119  17.795 -0.0090  0.2037 -0.1330
38917W        W82011  32.669  21.978  18.661 -0.2852 -0.1561  0.4020
38918W        W82012  33.421  21.081  16.813  0.2357 -0.0691 -0.2911
38919W        W82013  31.867  19.575  16.808  0.1248 -0.1436  0.0984
38920W        W82014  29.985  19.035  17.838 -0.0692 -0.2362  0.5500
38921W        W82015  29.374  22.145  17.071 -0.3502 -0.1212 -0.1006
38922W        W82016  32.881  19.611  18.848  0.3271 -0.0145  0.0436
38923W        W82017  31.745  19.551  18.653  0.0789 -0.0001 -0.0768
38924W        W82018  29.136  22.976  16.340 -0.0442 -0.1666 -0.1322
38925W        W82019  31.046  19.667  20.310 -0.5807  0.1524 -0.1578
38926W        W82020  29.866  19.716  17.063  0.1071  0.0700  0.2745
38927W        W82021  30.955  21.575  20.621 -0.3612 -0.4010  0.1051
38928W        W82022  27.770  19.305  17.695  0.0496 -0.0124 -0.0533
38929W        W82023  30.831  21.118  20.062  0.0123 -0.1248 -0.0918
38930W        W82024  28.229  21.141  17.873 -0.2184  0.0428 -0.0399
38931W        W82025  30.402  21.918  17.072  0.0872  0.2118 -0.1402
38932W        W82026  33.092  21.336  18.039 -0.0719 -0.2902  0.1127
38933W        W82027  31.829  20.740  18.410 -0.1225 -0.0482 -0.1274
38934W        W82028  33.157  22.687  18.030  0.0698  0.2228  0.2538
38935W        W82029  30.876  19.202  18.469 -0.1367 -0.0070 -0.0501
38936W        W82030  29.682  18.597  16.929  0.0099  0.0722  0.1150
38937W        W82031  31.873  19.064  16.485 -0.4517 -0.0787 -0.0281
38938W        W82032  28.853  21.361  19.097  0.1375 -0.0985  0.0404
38939W        W82033  28.425  19.225  15.841 -0.1100 -0.0098 -0.1799
38940W        W82034  28.538  21.644  15.993 -0.0663  0.0577 -0.1670
38941W        W82035  28.527  20.941  18.281 -0.1959 -0.3478 -0.3989
38942W        W82036  30.921  18.295  20.951  0.2500  0.3491  0.0026
38943W        W82037  28.874  20.820  18.979  0.2727 -0.0068  0.0301
38944W        W82038  28.920  22.183  18.839  0.1601 -0.0617  0.3691
38945W        W82039  30.012  17.779  16.502  0.2529 -0.1437  0.1591
38946W        W82040  31.321  21.199  17.581 -0.0223  0.1186 -0.4680
38947W        W82041  30.883  18.056  18.567 -0.1081 -0.0126  0.1331
38948W        W82042  29.148  17.782  18.099  0.0172  0.0236 -0.0250
38949W        W82043  30.918  21.187  17.281 -0.1327  0.2015 -0.2461
38950W        W82044  31.889  20.839  16.860  0.0008 -0.2022 -0.2690
38951W        W82045  30.583  18.954  16.958 -0.2287 -0.0351  0.0207
38952W        W82046  33.153  20.880  20.380 -0.0382  0.1619  0.0332
38953W        W82047  29.034  19.453  16.038  0.0933 -0.0816  0.0177
38954W        W82048  30.478  20.639  18.806  0.0986 -0.0612  0.1407
38955W        W82049  30.528  19.222  19.320 -0.0834  0.1257 -0.1170
38956W        W82050  27.933  18.936  15.991  0.2343  0.0811  0.0046
38957W        W82051  30.298  19.954  18.199  0.2277  0.0827  0.3310
38958W        W82052  31.263  24.103  16.859 -0.3522 -0.2910  0.1104
38959W        W82053  31.168  22.641  16.381  0.0764 -0.2617 -0.1278
38960W        W82054  30.108  21.934  19.112  0.0151 -0.0590 -0.1125
38961W        W82055  31.019  22.265  19.764  0.0598  0.0797  0.4554
38962W        W82056  28.773  17.394  19.769 -0.2057  0.0149  0.3387
38963W        W82057  31.620  20.770  17.377  0.0701 -0.0630  0.4149
38964W        W82058  30.786  20.539  19.222 -0.0720  0.4117  0.1331
38965W        W82059  33.924  21.000  16.790 -0.0280 -0.0471  0.1981
38966W        W82060  31.986  19.163  18.797 -0.0692 -0.0910  0.3423
38967W        W82061  29.874  19.806  19.013 -0.0219  0.2485 -0.2924
38968W        W82062  30.321  18.594  20.450 -0.0692  0.1933  0.0853
38969W        W82063  28.438  20.024  18.689 -0.0184 -0.0448  0.0765
38970W        W82064  32.151  20.689  19.614  0.5429  0.0890 -0.2136
38971W        W82065  30.007  17.709  17.033 -0.1732  0.0556  0.3080
38972W        W82066  31.681  19.379  17.324  0.0662  0.0973 -0.0230
38973W        W82067  31.514  22.298  16.540 -0.1388  0.4335  0.0368
38974W        W82068  29.691  20.539  19.229 -0.2554  0.2885  0.0243
38975W        W82069  30.297  19.994  16.890 -0.1987  0.0318  0.1019
38976W        W82070  30.924  20.472  18.650 -0.1323 -0.3976  0.2307
38977W        W82071  30.934  21.846  19.000 -0.0107  0.2986  0.6046
38978W        W82072  31.068  20.860  19.443  0.2223  0.2946  0.1664
38979W        W82073  28.930  20.596  17.039 -0.2725 -0.1273 -0.1692
38980W        W82074  31.495  20.443  16.434  0.0157  0.6148 -0.0372
38981W        W82075  31.384  21.606  18.856 -0.0196 -0.1589 -0.0723
38982W        W82076  33.479  21.757  20.613 -0.3710 -0.0883  0.0305
38983W        W82077  30.516  21.473  18.921 -0.0472 -0.0557 -0.1764
38984W        W82078  31.830  21.351  18.996  0.1702 -0.2824  0.0541
38985W        W82079  29.922  17.003  18.791 -0.6204  0.2737  0.3776
38986W        W82080  29.874  20.543  17.932  0.1594 -0.1013 -0.0510
38987W        W82081  28.797  20.339  16.162 -0.2726 -0.0396  0.1560
38988W        W82082  31.291  19.104  17.227  0.0676  0.1294  0.0478
38989W        W82083  29.757  19.466  18.660  0.3258 -0.2481  0.0696
38990W        W82084  29.880  18.180  17.869 -0.3426  0.1037  0.1962
38991W        W82085  30.844  22.237  19.287 -0.2961  0.1840 -0.1131
38992W        W82086  29.646  21.033  18.803 -0.0879 -0.0395 -0.1128
38993W        W82087  29.869  21.310  21.773  0.0231  0.1027 -0.0860
38994W        W82088  28.577  20.752  22.386  0.0509 -0.0032  0.0421
38995W        W82089  33.309  19.948  19.673  0.4143  0.1917 -0.4907
38996W        W82090  32.761  19.033  19.984 -0.2926  0.0162  0.3715
38997W        W82091  29.389  20.048  20.733 -0.1823 -0.1266 -0.0691
38998W        W82092  31.427  21.141  22.255  0.1948  0.1843  0.1759
38999W        W82093  30.074  18.995  23.689  0.4583 -0.0551 -0.3666
39000W        W82094  31.225  22.530  22.198 -0.2418 -0.3038  0.2382
39001W        W82095  32.632  20.140  22.467  0.2126 -0.0895  0.4385
39002W        W82096  31.428  19.643  19.289 -0.1030  0.0748 -0.2297
39003W        W82097  30.357  19.909  23.377 -0.0305  0.1926  0.0248
39004W        W82098  30.820  20.722  21.735  0.0088 -0.2526  0.0662
39005W        W82099  30.870  18.960  19.119 -0.1147 -0.2199  0.2708
39006W        W82100  30.554  17.009  22.185  0.1365 -0.2058  0.0470
39007W        W82101  30.099  21.613  23.502  0.0765  0.0638  0.0373
39008W        W82102  29.973  19.985  21.169  0.1309 -0.0410  0.0692
39009W        W82103  30.168  20.880  22.130 -0.0839 -0.2381  0.0460
39010W        W82104  30.380  19.776  21.122  0.1611 -0.4127  0.1544
39011W        W82105  30.769  22.625  21.277 -0.2426  0.1737 -0.3305
39012W        W82106  31.047  19.631  25.323 -0.2021  0.3700 -0.0722
39013W        W82107  32.899  18.847  23.521  0.1649 -0.1251  0.0060
39014W        W82108  30.837  23.125  20.961 -0.1771  0.1007  0.1678
39015W        W82109  28.903  20.970  19.439 -0.0795  0.2075 -0.1440
39016W        W82110  28.527  20.021  21.066  0.0079  0.2630 -0.0156
39017W        W82111  29.768  20.453  22.719  0.1055  0.0384  0.0955
39018W        W82112  32.648  18.765  22.488  0.1684  0.0034  0.0709
39019W        W82113  33.012  19.798  23.187 -0.0863  0.2128 -0.3337
39020W        W82114  31.610  22.259  21.988 -0.6044 -0.0519 -0.3165
39021W        W82115  30.988  21.418  19.234  0.1659  0.1147  0.4502
39022W        W82116  30.387  20.216  23.911 -0.4768  0.3453  0.3290
39023W        W82117  29.650  21.444  21.154  0.0085  0.0274 -0.1434
39024W        W82118  29.127  22.025  21.315  0.0921 -0.2260  0.3058
39025W        W82119  30.450  22.815  20.854  0.3149 -0.0425 -0.1115
39026W        W82120  32.578  20.971  21.151  0.2057  0.3720 -0.2432
39027W        W82121  31.840  21.598  22.937 -0.1575 -0.1952 -0.2402
39028W        W82122  30.750  21.655  22.843  0.3424 -0.0334  0.4368
39029W        W82123  29.834  21.959  20.688 -0.0980 -0.2024 -0.3566
39030W        W82124  31.398  20.823  23.204 -0.2008 -0.1268 -0.1653
39031W        W82125  30.090  22.123  23.585 -0.1966 -0.2355  0.1822
39032W        W82126  32.493  19.612  22.183 -0.0283  0.1244 -0.1843
39033W        W82127  31.334  20.214  20.125 -0.0570  0.0180 -0.0617
39034W        W82128  31.429  23.129  20.095  0.0243 -0.0291 -0.1852
39035W        W82129  30.982  19.198  21.941 -0.3066  0.1900 -0.0200
39036W        W82130  29.765  20.792  23.860 -0.0094 -0.2473 -0.1069
39037W        W82131  29.050  20.957  22.101 -0.2696  0.4921 -0.2377
39038W        W82132  32.596  18.299  24.559  0.0337  0.3240  0.1900
39039W        W82133  28.999  21.661  20.648 -0.2216  0.1264  0.2765
39040W        W82134  32.521  21.415  21.456 -0.4319  0.1213  0.0448
39041W        W82135  29.059  19.809  18.781  0.3600 -0.1124  0.0325
39042W        W82136  31.350  20.688  20.832 -0.1447 -0.1249 -0.0507
39043W        W82137  31.160  18.255  20.233 -0.0275  0.3850  0.0261
39044W        W82138  29.943  21.920  22.076 -0.1155  0.1283 -0.1322
39045W        W82139  30.294  19.555  22.934 -0.2506 -0.0250  0.1325
39046W        W82140  31.916  22.434  22.773  0.0753  0.0844 -0.0380
39047W        W82141  31.296  19.763  21.792  0.1237 -0.0282 -0.2003
39048W        W82142  32.064  20.796  22.020 -0.0333 -0.0289  0.1341
39049W        W82143  30.929  22.882  22.188  0.1837 -0.2641 -0.1880
39050W        W82144  29.888  21.070  21.332  0.1748  0.2971 -0.0425
39051W        W82145  33.806  20.118  19.746 -0.0383  0.1079 -0.0442
39052W        W82146  32.939  21.409  21.715  0.2522  0.3516  0.1415
39053W        W82147  31.530  21.714  20.514  0.1165 -0.0274 -0.4722
39054W        W82148  28.763  20.310  22.018  0.0623  0.0530  0.0180
39055W        W82149  28.606  20.770  23.329 -0.0830  0.2997 -0.0353
39056W        W82150  29.043  20.415  24.388  0.1438 -0.0726 -0.2803
39057W        W82151  29.589  17.024  19.320 -0.0979 -0.1689  0.0701
39058W        W82152  32.436  21.499  23.591  0.3152 -0.1514 -0.3475
39059W        W82153  28.403  20.289  23.076 -0.1362 -0.1065 -0.3773
39060W        W82154  30.965  17.789  21.817  0.1037 -0.1790  0.3755
39061W        W82155  30.452  21.269  21.974 -0.0685  0.1453 -0.0567
39062W        W82156  31.257  19.967  22.663  0.0785 -0.1176  0.2218
39063W        W82157  31.334  20.518  18.417 -0.2615 -0.2004 -0.0980
39064W        W82158  31.884  17.233  21.628 -0.3674  0.0186  0.2812
39065W        W82159  31.164  18.823  22.707 -0.0307 -0.0083  0.1339
39066W        W82160  29.222  20.217  20.253  0.0968  0.4025  0.5056
39067W        W82161  30.353  20.995  21.566 -0.2509  0.1914 -0.1350
39068W        W82162  32.812  20.999  22.428 -0.0454  0.1548  0.2021
39069W        W82163  32.581  20.029  19.207 -0.0436 -0.0397 -0.2111
39070W        W82164  30.957  23.944  22.199 -0.0686  0.4053 -0.0928
39071W        W82165  31.522  20.770  23.681 -0.0835 -0.0155 -0.2774
39072W        W82166  32.294  20.037  23.786  0.4258 -0.0462 -0.0953
39073W        W82167  28.671  21.383  18.349 -0.3427  0.0835  0.0835
39074W        W82168  29.285  20.588  22.350  0.2617  0.3498  0.1889
39075W        W82169  29.230  21.183  20.383 -0.2536  0.0812  0.2323
39076W        W82170  28.608  17.588  22.068 -0.0860 -0.2765 -0.1600
39077W        W82171  30.137  21.463  22.296 -0.1914 -0.0771  0.1159
39078W        W82172  30.702  19.492  21.328 -0.0379 -0.3490 -0.1300
39079W        W82173  29.539  19.041  23.833 -0.2043 -0.2959 -0.1604
39080W        W82174  31.150  19.241  21.470  0.0702  0.3928 -0.1681
39081W        W82175  29.840  20.970  19.961  0.0020 -0.1389  0.1127
39082W        W82176  30.645  21.519  20.237  0.0472 -0.3528 -0.1547
39083W        W82177  32.093  20.862  21.135  0.0266  0.1310 -0.1791
39084W        W82178  30.607  21.993  19.935 -0.0067 -0.1822  0.2688
39085W        W82179  29.133  20.195  23.967 -0.2409 -0.0369  0.1553
39086W        W82180  28.479  20.435  20.725  0.4550 -0.1023 -0.0970
39087W        W82181  29.197  20.046  24.774  0.2230  0.0281  0.1658
39088W        W82182  28.909  17.912  21.817 -0.0206  0.0778 -0.3845
39089W        W82183  31.866  19.859  22.115  0.0521  0.2410 -0.1499
39090W        W82184  29.660  19.256  21.392  0.0222 -0.0670  0.2859
39091W        W82185  31.326  18.464  21.168 -0.1508 -0.1030  0.2819
39092W        W82186  31.198  19.673  21.210  0.1927  0.2270  0.2911
39093W        W82187  28.869  21.552  21.351  0.0054 -0.4025  0.0017
39094W        W82188  31.989  20.855  22.928 -0.0650  0.0336  0.1693
39095W        W82189  30.872  22.145  21.267  0.0173 -0.0092 -0.4219
39096W        W82190  32.273  23.240  22.919  0.0485 -0.2156  0.1570
39097W        W82191  32.912  21.005  20.782 -0.0996  0.0575  0.1300
39098W        W82192  28.918  19.810  23.596 -0.0120 -0.1755 -0.1035
39099W        W82193  30.062  19.278  20.562  0.1494  0.2250 -0.0943
39100W        W82194  29.926  22.833  21.115  0.3738 -0.2229 -0.2331
39101W        W82195  31.465  19.586  22.388 -0.3220 -0.1012 -0.1121
39102W        W82196  30.629  18.685  20.902 -0.1903 -0.0447 -0.0777
39103W        W82197  32.038  23.179  20.941  0.0268 -0.0288 -0.1140
39104W        W82198  31.530  20.656  20.391  0.0485 -0.2664  0.0902
39105W        W82199  29.596  20.742  21.848 -0.2370  0.0617  0.0078
39106W        W82200  32.086  17.907  23.567  0.2658 -0.2179  0.0973
39107W        W82201  31.529  19.977  23.058 -0.1854  0.1997  0.0231
39108W        W82202  31.267  21.166  20.355 -0.3006 -0.2392  0.0071
39109W        W82203  29.895  18.804  19.675 -0.0723 -0.1350  0.2187
39110W        W82204  31.473  21.245  22.947 -0.0656  0.3380 -0.0712
39111W        W82205  28.817  22.708  18.929 -0.2696  0.1797  0.4566
39112W        W82206  30.272  21.448  21.387  0.0330  0.0686 -0.0259
39113W        W82207  31.893  21.276  20.464  0.0431  0.1676 -0.1565
39114W        W82208  31.761  19.545  22.791 -0.0489 -0.5763  0.0320
39115W        W82209  27.933  19.351  23.936 -0.0620  0.0081  0.4592
39116W        W82210  31.236  19.999  23.644 -0.0009  0.0432  0.2117
39117W        W82211  28.995  20.338  21.000  0.1873 -0.3027 -0.2132
39118W        W82212  29.628  21.694  23.694  0.0249  0.1467  0.0883
39119W        W82213  32.353  19.548  20.719  0.0735 -0.1423  0.1695
39120W        W82214  31.665  20.479  19.827 -0.1016  0.0051 -0.1603
39121W        W82215  30.766  22.356  22.130  0.1840  0.0415 -0.0041
39122W        W82216  31.644  20.486  21.220 -0.1780  0.2832  0.1502
39123W        W82217  30.218  19.935  20.087 -0.0049 -0.2872 -0.0339
39124W        W82218  30.311  20.285  20.869 -0.0155  0.1492  0.2744
39125W        W82219  29.633  21.212  24.201  0.0343  0.1047 -0.1839
39126W        W82220  32.142  19.758  21.161 -0.0894  0.2048 -0.2662
39127W        W82221  30.869  19.190  22.443 -0.1435 -0.3900 -0.0034
39128W        W82222  32.075  20.385  18.909  0.2575  0.1080 -0.1184
39129W        W82223  32.389  21.762  20.407 -0.3955  0.1963 -0.1920
39130W        W82224  29.669  20.740  23.354 -0.1321 -0.2054 -0.1007
39131W        W82225  31.548  22.027  23.510 -0.3361 -0.1297  0.1347
39132W        W82226  31.925  20.802  20.687 -0.2714 -0.2169  0.0978
39133W        W82227  30.884  18.011  22.305 -0.0945  0.1834  0.0368
39134W        W82228  30.241  20.904  19.133 -0.1189 -0.3909 -0.1583
39135W        W82229  30.119  19.103  22.055  0.2366  0.1054 -0.0678
39136W        W82230  29.869  22.095  19.870 -0.3172  0.0578  0.1497
39137W        W82231  32.065  18.330  23.836 -0.0005  0.0431 -0.0225
39138W        W82232  30.072  19.244  23.253 -0.0752  0.0418 -0.1425
39139W        W82233  31.010  18.604  22.228 -0.1263 -0.0008  0.0104
39140W        W82234  32.945  19.152  23.051 -0.0439  0.2319 -0.1697
39141W        W82235  32.693  19.623  21.068  0.0465  0.1698 -0.0567
39142W        W82236  31.186  20.488  22.381 -0.2735  0.0394  0.4122
39143W        W82237  27.643  20.424  19.376 -0.4853 -0.0488  0.1262
39144W        W82238  31.141  19.435  22.753  0.1020 -0.1628  0.3076
39145W        W82239  29.614  20.030  22.375  0.1752 -0.3463 -0.1157
39146W        W82240  29.874  23.010  22.119  0.0475  0.0350  0.3665
39147W        W82241  31.563  22.126  22.488  0.1311 -0.2559 -0.1187
39148W        W82242  33.022  21.439  21.175 -0.1384  0.0211  0.2122
39149W        W82243  32.317  19.452  24.258 -0.0278  0.1766 -0.0028
39150W        W82244  29.398  20.690  20.184  0.0272  0.1894  0.2031
39151W        W82245  31.856  22.102  20.692 -0.1950 -0.0904  0.4417
39152W        W82246  30.426  20.672  20.615  0.0706 -0.2220  0.1609
39153W        W82247  29.913  19.566  22.390  0.1735  0.0304  0.0832
39154W        W82248  30.094  20.717  20.985 -0.0098 -0.2131  0.0440
39155W        W82249  30.772  20.582  21.020  0.3261  0.0166  0.2431
39156W        W82250  31.643  21.190  23.439  0.1670  0.0488  0.0270
39157W        W82251  30.510  21.016  21.073 -0.0146  0.0931  0.0081
39158W        W82252  32.346  18.359  22.658 -0.2579  0.2426 -0.1626
39159W        W82253  30.482  21.967  22.484  0.0877  0.2777  0.1233
39160W        W82254  29.815  18.611  21.316 -0.0113 -0.0723 -0.0313
39161W        W82255  28.662  19.837  21.822  0.0379  0.1459  0.3276
39162W        W82256  30.760  19.711  22.653  0.4141 -0.1730  0.3188
39163W        W82257  33.349  20.502  20.876 -0.1136 -0.2172 -0.0441
39164W        W82258  30.563  19.920  22.228 -0.2178  0.0037  0.3716
39165W        W82259  30.029  19.450  21.044 -0.1370  0.0321  0.0002
39166W        W82260  29.998  22.754  22.604 -0.0265 -0.0084  0.1610
39167W        W82261  31.832  19.941  23.530 -0.1284 -0.3211  0.0952
39168W        W82262  30.549  19.146  21.730 -0.1540  0.1366  0.0393
39169W        W82263  31.633  21.849  21.048  0.2233  0.1647  0.2176
39170W        W82264  30.587  19.924  24.520 -0.0338 -0.0487 -0.0648
39171W        W82265  29.982  18.647  22.363  0.1381 -0.1027 -0.0032
39172W        W82266  31.543  19.858  24.515 -0.1919 -0.4003  0.1571
39173W        W82267  30.887  19.997  21.453 -0.2029  0.2000 -0.0312
39174W        W82268  29.233  21.137  21.594  0.0926 -0.1110 -0.1767
39175W        W82269  31.465  22.762  23.234  0.1516 -0.0355 -0.2309
39176W        W82270  30.905  19.417  20.795  0.1830 -0.2420 -0.2240
39177W        W82271  29.093  21.216  19.796 -0.2125 -0.0304 -0.0872
39178W        W82272  29.816  19.449  23.664  0.0787  0.0112  0.3288
39179W        W82273  32.750  21.577  22.178  0.1093 -0.2455  0.0255
39180W        W82274  29.991  19.028  22.728 -0.2340 -0.1773 -0.0570
39181W        W82275  29.115  19.738  23.028 -0.0926 -0.1107  0.0241
39182W        W82276  31.659  19.327  24.273  0.1397 -0.1835 -0.2500
39183W        W82277  32.147  21.236  23.228 -0.0144  0.2060  0.1434
39184W        W82278  30.030  19.941  22.716  0.1863 -0.0213 -0.1664
39185W        W82279  30.182  21.204  24.414  0.3254  0.2423 -0.0856
39186W        W82280  31.044  19.081  23.171  0.2055  0.0628  0.0693
39187W        W82281  32.980  21.796  20.245  0.4101  0.1809 -0.0008
39188W        W82282  32.959  19.069  25.062  0.0578  0.1927 -0.0027
39189W        W82283  29.414  20.270  21.277  0.0124  0.0871  0.0063
39190W        W82284  29.576  19.950  22.906 -0.1175 -0.3360 -0.0096
39191W        W82285  29.532  21.588  20.582  0.0833 -0.0624 -0.0153
39192W        W82286  29.671  18.879  24.421 -0.1527  0.0549  0.0470
39193W        W82287  30.435  22.847  22.070 -0.0699  0.2008  0.0266
39194W        W82288  30.104  21.462  20.914 -0.2704  0.1196 -0.0811
39195W        W82289  29.106  19.970  22.244  0.3222  0.1212 -0.0840
39196W        W82290  31.375  19.732  20.703  0.0706 -0.0597  0.0598
39197W        W82291  31.221  20.818  19.962 -0.2907  0.0521  0.1113
39198W        W82292  30.503  20.260  22.962 -0.0497  0.5093 -0.0266
39199W        W82293  32.407  19.350  23.021  0.0777  0.1991  0.0417
39200W        W82294  31.713  21.006  20.065 -0.0251  0.1403  0.2207
39201W        W82295  31.402  18.511  23.575  0.0723 -0.0528 -0.3109
39202W        W82296  29.617  19.194  21.907  0.0193  0.0055  0.2194
39203W        W82297  32.050  22.099  21.749 -0.5640  0.1744 -0.2690
39204W        W82298  28.107  18.774  22.641  0.1270 -0.0874  0.3179
39205W        W82299  31.710  22.813  23.701 -0.1855 -0.3268 -0.1884
39206W        W82300  29.888  21.390  25.312 -0.0923  0.1481  0.1567
39207W        W82301  30.937  20.002  23.224  0.1361 -0.1922  0.1847
39208W        W82302  29.924  17.931  19.212 -0.0688 -0.1697 -0.3062
39209W        W82303  30.848  21.350  21.585  0.1910 -0.2187  0.0233
39210W        W82304  32.796  19.725  21.567  0.2844  0.0605  0.1014
39211W        W82305  30.070  19.851  20.670  0.0884  0.0822 -0.0436
39212W        W82306  31.508  19.124  22.930 -0.0663 -0.1359 -0.1906
39213W        W82307  29.332  19.596  22.535 -0.1423  0.1241 -0.0803
39214W        W82308  31.755  19.930  21.651 -0.1430  0.2574  0.1260
39215W        W82309  30.860  20.543  20.183 -0.0331 -0.1232 -0.0526
39216W        W82310  31.368  22.165  21.285 -0.1481  0.0041  0.0654
39217W        W82311  30.524  19.131  22.805 -0.1050  0.0311  0.1130
39218W        W82312  33.050  19.909  20.962  0.0740 -0.2385 -0.2399
39219W        W82313  30.705  17.823  20.879 -0.2591 -0.3052 -0.1525
39220W        W82314  31.461  18.636  22.037 -0.1723  0.0850  0.0766
39221W        W82315  33.025  18.353  23.401  0.1087 -0.3563  0.1836
39222W        W82316  31.962  20.784  23.384 -0.0893  0.1245  0.2805
39223W        W82317  29.477  19.848  24.011  0.0826  0.1923 -0.1417
39224W        W82318  32.312  22.742  22.867 -0.2488 -0.2674 -0.2566
39225W        W82319  32.518  19.290  19.562 -0.1718  0.0551 -0.1477
39226W        W82320  32.243  19.790  22.607 -0.1344 -0.1029 -0.0672
39227W        W82321  33.255  19.993  21.658  0.0351  0.1481  0.1779
39228W        W82322  31.476  19.293  21.024 -0.3515 -0.1060  0.1977
39229W        W82323  29.498  19.731  21.991  0.1934 -0.1894  0.3290
39230W        W82324  32.663  19.855  25.422  0.1145 -0.2121 -0.2194
39231W        W82325  30.136  18.665  20.889  0.1933  0.4764 -0.1804
39232W        W82326  31.420  19.106  22.392  0.2027  0.0894  0.2951
39233W        W82327  29.799  22.376  20.992 -0.0272 -0.0987  0.0345
39234W        W82328  31.251  21.544  22.004 -0.2040 -0.0755 -0.2569
39235W        W82329  31.680  19.402  21.455  0.1546 -0.1333  0.1520
39236W        W82330  30.145  18.247  21.711 -0.1429 -0.0126  0.2170
39237W        W82331  29.365  20.290  23.133  0.1476 -0.0629  0.0755
39238W        W82332  29.492  18.540  22.171 -0.0990  0.0315 -0.1735
39239W        W82333  30.578  21.124  19.447 -0.0594  0.1737 -0.3332
39240W        W82334  31.418  20.078  22.151 -0.1737 -0.0312 -0.0252
39241W        W82335  32.772  19.189  24.191  0.0234 -0.0514  0.0414
39242W        W82336  31.118  17.901  20.585 -0.1180 -0.1458  0.1272
39243W        W82337  31.219  20.629  24.336  0.2214 -0.0759 -0.1867
39244W        W82338  29.574  22.800  21.533 -0.3183  0.3261  0.1336
39245W        W82339  30.486  17.471  22.909  0.1790 -0.0121  0.2341
39246W        W82340  30.610  24.018  21.232  0.1037 -0.0171 -0.0130
39247W        W82341  29.427  21.927  22.410 -0.0124 -0.2559 -0.2025
39248W        W82342  31.164  22.381  21.701  0.4632 -0.2617  0.1882
39249W        W82343  31.357  19.157  23.526 -0.0230 -0.3531  0.1787
39250W        W82344  31.490  19.298  21.912 -0.0864 -0.2463  0.4199
39251W        W82345  30.631  20.765  22.230  0.4917 -0.0567  0.2344
39252W        W82346  31.449  19.526  23.857  0.1260 -0.0298  0.0996
39253W        W82347  30.217  20.375  22.568  0.2204 -0.0009 -0.0816
39254W        W82348  30.697  20.774  22.768  0.3222  0.1237  0.0150
39255W        W82349  32.047  20.235  21.389  0.2784 -0.1188  0.1290
39256W        W82350  32.364  21.245  22.650 -0.1634  0.4497  0.0639
39257W        W82351  30.939  21.135  22.117 -0.3350 -0.1091  0.0118
39258W        W82352  29.207  20.251  22.694  0.2357 -0.1212  0.1803
39259W        W82353  31.006  20.152  24.185  0.2450  0.0239 -0.0068
39260W        W82354  31.834  20.538  22.393 -0.1786  0.0657 -0.0019
39261W        W82355  30.300  18.182  20.862 -0.0190  0.0541  0.0833
39262W        W82356  30.340  20.348  22.046 -0.0593 -0.1440  0.3409
39263W        W82357  29.400  22.536  24.364 -0.1240  0.1615  0.1851
39264W        W82358  28.815  19.814  22.621 -0.1189 -0.0066  0.3133
39265W        W82359  29.356  22.387  17.520  0.1685 -0.1656 -0.0090
39266W        W82360  32.188  20.856  20.238 -0.1546  0.0709  0.0234
39267W        W82361  29.821  21.044  19.347  0.0864 -0.0590  0.0299
39268W        W82362  32.034  21.216  21.496 -0.0990 -0.0364 -0.3118
39269W        W82363  29.740  20.360  20.919 -0.2578  0.0057 -0.0415
39270W        W82364  30.475  20.466  21.398 -0.1911  0.2694 -0.2657
39271W        W82365  28.052  21.255  18.370  0.0174 -0.2394  0.1100
39272W        W82366  32.661  21.244  20.395 -0.3074  0.0453  0.0218
39273W        W82367  30.862  21.811  21.753 -0.1691  0.0338 -0.1598
39274W        W82368  32.670  20.570  22.628  0.2233 -0.0934  0.0446
39275W        W82369  31.543  19.027  19.638  0.3574 -0.0538 -0.0499
39276W        W82370  32.422  19.250  22.503  0.1578 -0.0038  0.2592
39277W        W82371  31.343  18.345  20.698  0.0134 -0.1719  0.1570
39278W        W82372  31.427  21.670  23.230 -0.2788  0.1935  0.1216
39279W        W82373  31.026  18.661  21.684  0.0991 -0.0204  0.1369
39280W        W82374  29.821  20.467  19.953  0.0240 -0.2294 -0.4878
39281W        W82375  30.065  19.306  24.085 -0.2503 -0.3378  0.1412
39282W        W82376  32.407  19.110  23.884  0.1131 -0.0169  0.1295
39283W        W82377  29.424  21.720  24.165  0.0263 -0.0964 -0.0183
39284W        W82378  31.960  22.603  19.390 -0.3014  0.0716 -0.0499
39285W        W82379  29.188  18.761  20.827  0.0813 -0.0365 -0.2612
39286W        W82380  30.384  19.339  22.399  0.1850  0.1351  0.1069
39287W        W82381  33.555  19.108  22.996  0.1703  0.3058  0.2753
39288W        W82382  30.084  20.313  20.449  0.2205  0.0098  0.2554
39289W        W82383  31.855  20.369  21.869  0.1487  0.0724  0.0111
39290W        W82384  30.446  23.031  21.349 -0.0403  0.1375  0.0049
39291W        W82385  30.251  22.324  22.106 -0.4835 -0.2543  0.1185
39292W        W82386  29.911  21.770  21.609  0.0285  0.4011 -0.0844
39293W        W82387  29.397  18.862  21.587  0.0430  0.1273  0.3027
39294W        W82388  33.216  18.635  21.469  0.2548  0.0194  0.3555
39295W        W82389  31.319  20.230  21.620  0.4542  0.2163  0.0280
39296W        W82390  32.669  20.072  21.883  0.0326  0.0337 -0.3063
39297W        W82391  31.008  19.641  22.236  0.0223 -0.4141  0.2131
39298W        W82392  31.209  20.259  21.085 -0.0169  0.2167  0.0577
39299W        W82393  31.049  21.254  23.596 -0.0447 -0.1789 -0.2876
39300W        W82394  28.342  19.910  22.764  0.0120  0.0957 -0.3136
39301W        W82395  29.740  21.143  20.746  0.0945 -0.0357 -0.2149
39302W        W82396  32.254  20.805  22.468  0.1872 -0.2634  0.2802
39303W        W82397  30.793  20.016  20.030  0.0020  0.0816 -0.0184
39304W        W82398  32.024  21.208  23.724 -0.1644  0.0380  0.0635
39305W        W82399  29.817  18.678  21.796 -0.0970  0.0116  0.0216
39306W        W82400  31.646  19.973  21.143  0.0349  0.0616 -0.2857
39307W        W82401  30.622  21.986  20.449 -0.1041 -0.0302  0.0875
39308W        W82402  31.096  20.437  23.718 -0.1112  0.1492  0.0294
39309W        W82403  31.391  20.855  22.698 -0.0716 -0.0133 -0.1766
39310W        W82404  30.950  18.150  21.419  0.1516  0.0494 -0.0592
39311W        W82405  33.614  20.418  18.835 -0.1511  0.0732 -0.1466
39312W        W82406  32.396  21.142  21.848  0.0899  0.2360 -0.0779
39313W        W82407  31.238  21.646  21.209 -0.1177  0.0361  0.0082
39314W        W82408  32.941  20.952  21.959  0.0594 -0.3055 -0.1816
39315W        W82409  31.884  21.624  23.505  0.1006 -0.2925 -0.0955
39316W        W82410  28.767  18.708  24.171 -0.0389 -0.0494  0.2206
39317W        W82411  31.734  20.098  22.609 -0.0709 -0.0012 -0.1324
39318W        W82412  33.050  20.252  22.187 -0.0266  0.1516 -0.2424
39319W        W82413  30.553  19.638  19.802  0.0021 -0.0080  0.1111
39320W        W82414  29.657  21.037  22.314 -0.1976  0.1415  0.3183
39321W        W82415  29.824  23.258  21.340 -0.0299  0.0275  0.2786
39322W        W82416  31.970  19.355  22.375 -0.1194 -0.1893 -0.0386
39323W        W82417  32.023  19.983  23.014 -0.1120 -0.1552  0.3032
39324W        W82418  32.589  22.630  20.092  0.4685  0.2985 -0.0354
39325W        W82419  31.513  20.296  23.996  0.0724 -0.0949 -0.2646
39326W        W82420  30.567  22.401  21.707 -0.1543 -0.1434  0.2839
39327W        W82421  30.052  21.460  22.832 -0.1371  0.0456  0.0324
39328W        W82422  29.168  19.883  21.622  0.0608  0.0442  0.2172
39329W        W82423  30.211  20.686  23.126  0.2812 -0.1077 -0.1360
39330W        W82424  31.065  20.920  21.364 -0.0267  0.4050 -0.0714
39331W        W82425  33.103  21.900  20.974 -0.2797 -0.0653 -0.1038
39332W        W82426  32.217  20.214  22.230 -0.0645  0.2424 -0.2587
39333W        W82427  31.911  18.967  22.016  0.0802 -0.1511 -0.2048
39334W        W82428  33.956  20.618  23.570  0.0288  0.2600 -0.2835
39335W        W82429  30.734  18.252  21.896  0.4311 -0.1030  0.0706
39336W        W82430  31.872  19.637  20.752  0.3982 -0.0322 -0.1047
39337W        W82431  31.185  17.721  21.287 -0.0203  0.0583  0.0009
39338W        W82432  29.962  20.231  23.177 -0.0862  0.2075  0.2471
39339W        W82433  28.529  20.790  19.765  0.1677 -0.0823  0.0980
39340W        W82434  28.414  20.968  19.265 -0.0240  0.1122 -0.1655
39341W        W82435  29.295  22.135  20.513  0.1208  0.1882  0.1136
39342W        W82436  30.295  18.574  23.655  0.2161  0.0743  0.2820
39343W        W82437  29.049  19.210  24.247  0.2934 -0.1963 -0.0336
39344W        W82438  30.405  21.948  21.481 -0.0643 -0.1729  0.0363
39345W        W82439  29.794  19.462  22.848  0.1526  0.0039 -0.0467
39346W        W82440  32.521  21.045  19.874  0.0306  0.0854  0.0558
39347W        W82441  28.831  20.194  21.467 -0.0724  0.1307  0.0768
39348W        W82442  29.409  18.352  20.476 -0.0387 -0.1312 -0.0346
39349W        W82443  32.320  20.422  21.017  0.0194 -0.2193  0.2663
39350W        W82444  33.266  20.397  19.924  0.0866 -0.1790  0.0340
39351W        W82445  30.096  18.959  21.527  0.1564  0.1380 -0.0850
39352W        W82446  32.689  21.311  23.163 -0.2903 -0.2449  0.0686
39353W        W82447  29.209  21.236  20.953 -0.0723  0.1548 -0.1544
39354W        W82448  30.736  20.040  25.204 -0.0264 -0.0747  0.1017
39355W        W82449  30.741  19.499  23.149 -0.0350  0.1889 -0.1201
39356W        W82450  29.594  19.014  20.905  0.0193  0.2085  0.0762
39357W        W82451  30.744  17.817  23.193  0.1355  0.1110  0.2537
39358W        W82452  30.366  22.431  21.179 -0.0617  0.1333  0.0500
39359W        W82453  31.381  22.076  19.149 -0.0049  0.1040  0.2060
39360W        W82454  30.604  21.245  22.486  0.0114 -0.0702 -0.1453
39361W        W82455  30.890  21.691  22.339 -0.0772  0.1997  0.4487
39362W        W82456  30.670  18.664  22.646  0.0985  0.1892 -0.2055
39363W        W82457  31.924  22.001  20.037  0.1592 -0.0643 -0.2613
39364W        W82458  30.025  21.307  23.908 -0.0727 -0.0664 -0.0130
39365W        W82459  31.959  18.973  21.500 -0.1968 -0.2017  0.0507
39366W        W82460  32.460  18.969  21.962 -0.4644 -0.1769  0.1063
39367W        W82461  30.846  19.918  20.886 -0.3465  0.0983 -0.1734
39368W        W82462  28.823  17.896  22.902  0.0606 -0.0930 -0.1729
39369W        W82463  28.944  22.069  22.651 -0.1363 -0.1641  0.1095
39370W        W82464  33.283  20.517  22.710 -0.0392  0.0509 -0.0453
39371W        W82465  30.391  18.605  21.333 -0.2067 -0.0153  0.2132
39372W        W82466  30.548  18.879  22.256  0.2299  0.1125  0.1375
39373W        W82467  32.235  21.272  20.848  0.2566  0.0451 -0.0113
39374W        W82468  29.545  19.348  23.242  0.0481  0.0311  0.0792
39375W        W82469  32.046  20.080  20.777 -0.0632  0.0502  0.2293
39376W        W82470  31.073  20.450  23.022  0.1045  0.2328  0.2595
39377W        W82471  31.289  20.706  21.898  0.0498  0.2693 -0.1706
39378W        W82472  31.860  21.125  22.511 -0.1694 -0.3499 -0.0901
39379W        W82473  30.838  20.940  20.583 -0.1033  0.4142  0.2147
39380W        W82474  31.629  20.285  20.705 -0.0547  0.1271 -0.1627
39381W        W82475  31.102  21.326  22.592  0.0021  0.2406 -0.2799
39382W        W82476  34.150  23.065  23.724 -0.0584 -0.0520 -0.3179
39383W        W82477  31.283  23.223  21.350 -0.0428  0.1603 -0.0840
39384W        W82478  33.080  20.699  23.099  0.0001 -0.1602  0.0700
39385W        W82479  30.253  18.287  22.769  0.0311  0.3855 -0.2186
39386W        W82480  31.392  21.146  21.667 -0.0982  0.1198  0.4184
39387W        W82481  31.762  21.314  21.028  0.1713 -0.0307 -0.1884
39388W        W82482  31.753  18.150  22.767 -0.0883 -0.1541  0.0768
39389W        W82483  30.733  19.713  21.824  0.0616  0.1510  0.2855
39390W        W82484  32.506  20.524  19.312  0.1803  0.0959  0.0468
39391W        W82485  29.854  20.352  22.117 -0.0648 -0.0522 -0.3280
39392W        W82486  30.891  20.289  22.011 -0.0723  0.2222  0.4769
39393W        W82487  29.901  21.422  27.869 -0.1732  0.1235  0.1772
39394W        W82488  30.993  20.798  25.574 -0.1687  0.0511 -0.0054
39395W        W82489  32.349  19.007  23.335 -0.0446 -0.2998  0.2141
39396W        W82490  31.122  19.685  24.207 -0.1131 -0.0477  0.1128
39397W        W82491  29.041  19.549  26.288 -0.0343  0.2571  0.1192
39398W        W82492  32.662  21.765  25.011  0.0342 -0.4240 -0.1309
39399W        W82493  29.929  18.556  26.897 -0.4238 -0.1949 -0.0732
39400W        W82494  31.912  21.219  25.213 -0.0107 -0.0277 -0.1101
39401W        W82495  32.748  21.069  26.837  0.1448  0.1030  0.2418
39402W        W82496  31.888  20.211  24.866 -0.1857  0.0167 -0.2614
39403W        W82497  30.210  19.885  26.809 -0.0424 -0.1495  0.0795
39404W        W82498  28.958  21.268  27.381  0.0699 -0.0994  0.1979
39405W        W82499  30.380  19.463  24.466  0.0928  0.3823 -0.1373
39406W        W82500  29.446  18.681  26.038  0.2866 -0.1583 -0.0441
39407W        W82501  31.497  19.897  25.003  0.3295  0.1126  0.0284
39408W        W82502  29.584  20.345  23.637  0.1696  0.0025 -0.2509
39409W        W82503  30.267  20.441  27.037  0.1640 -0.2101  0.1952
39410W        W82504  30.074  20.772  25.020  0.0565  0.2589  0.0702
39411W        W82505  32.428  22.680  23.944 -0.1084 -0.3549  0.2163
39412W        W82506  30.428  18.523  27.648  0.1149 -0.2306  0.0627
39413W        W82507  31.939  19.216  25.422  0.1071 -0.0072 -0.3151
39414W        W82508  30.885  23.034  23.191  0.0283 -0.0372  0.0780
39415W        W82509  29.178  20.662  23.496 -0.1239 -0.0133  0.1836
39416W        W82510  27.864  21.481  27.421 -0.1524 -0.1835 -0.0180
39417W        W82511  29.924  20.289  26.599  0.0322  0.1202  0.2885
39418W        W82512  30.580  19.244  25.910  0.2243  0.1869 -0.0536
39419W        W82513  33.123  19.620  26.030  0.0021 -0.0323 -0.2396
39420W        W82514  30.905  21.183  26.455 -0.0584 -0.0151  0.2572
39421W        W82515  31.994  22.595  24.779  0.3443 -0.2812  0.1740
39422W        W82516  31.403  20.164  28.118 -0.3868 -0.2010  0.0520
39423W        W82517  29.078  20.828  25.859 -0.0349  0.0521  0.0368
39424W        W82518  30.087  22.958  24.011 -0.1999  0.2381 -0.4282
39425W        W82519  30.406  22.645  23.779  0.0884 -0.0198 -0.0588
39426W        W82520  31.629  21.525  24.339 -0.1956 -0.0980  0.0461
39427W        W82521  32.751  21.382  24.578  0.0594  0.2951  0.0458
39428W        W82522  29.672  23.584  28.722  0.0250 -0.1612  0.3836
39429W        W82523  28.150  22.162  26.263 -0.1854 -0.1386 -0.4165
39430W        W82524  31.262  22.158  27.845  0.0978  0.0765  0.1065
39431W        W82525  30.073  21.819  26.717  0.1687  0.1959 -0.1690
39432W        W82526  32.086  20.803  27.416  0.3761  0.0584 -0.2313
39433W        W82527  31.415  20.259  24.654  0.1301 -0.0288  0.1245
39434W        W82528  30.070  23.396  23.111  0.0307 -0.0176 -0.0969
39435W        W82529  30.439  20.992  26.444  0.1498 -0.1051 -0.0712
39436W        W82530  30.975  21.394  28.652 -0.1307 -0.0147 -0.4311
39437W        W82531  29.567  20.833  24.949 -0.0667 -0.1005 -0.0086
39438W        W82532  32.911  20.196  27.995  0.2626 -0.2094 -0.0510
39439W        W82533  30.019  21.059  23.438  0.1893  0.0846  0.1330
39440W        W82534  31.618  18.924  23.994  0.0800 -0.0771  0.0956
39441W        W82535  30.390  19.418  23.651  0.2177 -0.1086 -0.0795
39442W        W82536  31.343  18.539  24.073  0.0820 -0.1523  0.0040
39443W        W82537  31.137  18.953  24.832 -0.0994  0.0299  0.3418
39444W        W82538  29.077  22.106  26.607  0.0883  0.0825  0.0872
39445W        W82539  30.041  20.849  26.708  0.0864  0.0917 -0.1257
39446W        W82540  31.904  21.533  26.784 -0.1379 -0.0839 -0.0785
39447W        W82541  31.224  20.833  24.918 -0.0952  0.0846  0.2170
39448W        W82542  28.997  18.761  27.121 -0.2046 -0.0176 -0.2491
39449W        W82543  28.805  22.396  26.902 -0.1735  0.1142 -0.2936
39450W        W82544  29.012  20.198  25.218  0.0066  0.1120  0.1809
39451W        W82545  30.734  20.800  25.076  0.0739 -0.1982  0.0835
39452W        W82546  32.134  21.806  25.039  0.1627 -0.1862 -0.0427
39453W        W82547  30.557  21.181  24.029 -0.3060  0.3736  0.0665
39454W        W82548  29.778  21.246  24.698 -0.2469  0.0171 -0.1773
39455W        W82549  28.737  20.848  27.588  0.3022 -0.0355  0.1440
39456W        W82550  29.102  20.055  26.453  0.0952 -0.2348  0.4155
39457W        W82551  29.779  19.417  24.657 -0.1083 -0.1046 -0.4153
39458W        W82552  32.889  22.661  26.941  0.0041 -0.2428  0.1375
39459W        W82553  28.946  22.078  27.359  0.0465  0.1083 -0.1228
39460W        W82554  32.257  18.297  25.847 -0.0079  0.2954 -0.0253
39461W        W82555  30.299  21.577  25.836  0.0575 -0.0395 -0.1123
39462W        W82556  32.571  20.839  25.551  0.0895  0.2210 -0.1513
39463W        W82557  30.114  20.973  22.709 -0.0456  0.0362  0.1998
39464W        W82558  31.099  19.380  25.718  0.2277  0.0411  0.1757
39465W        W82559  31.315  18.457  27.750 -0.2421 -0.3991 -0.0896
39466W        W82560  30.402  20.762  24.609  0.1638  0.2016  0.1175
39467W        W82561  30.243  20.693  24.078 -0.2439 -0.1713 -0.0256
39468W        W82562  33.097  21.268  26.321 -0.0987  0.1589  0.3377
39469W        W82563  31.560  21.131  23.985 -0.1016 -0.1176  0.1533
39470W        W82564  28.626  22.725  26.057 -0.0058 -0.0473 -0.0098
39471W        W82565  30.149  18.830  26.270  0.1877  0.2801  0.0022
39472W        W82566  30.143  21.844  28.170 -0.1398 -0.0500 -0.0464
39473W        W82567  30.556  21.647  23.807  0.0517 -0.0415 -0.0522
39474W        W82568  28.476  21.428  26.658  0.1561 -0.0848 -0.4936
39475W        W82569  29.883  20.776  24.441  0.0381 -0.2320  0.4405
39476W        W82570  29.318  17.512  27.015  0.0809 -0.0609 -0.0560
39477W        W82571  31.279  21.214  27.266 -0.0935 -0.3465  0.1167
39478W        W82572  30.879  17.434  23.560  0.0062 -0.0583 -0.0744
39479W        W82573  29.925  19.330  27.534  0.1488  0.1628 -0.0506
39480W        W82574  32.132  19.692  25.566 -0.2307  0.1476 -0.0843
39481W        W82575  28.266  22.022  25.800 -0.1299 -0.1723  0.1878
39482W        W82576  32.190  21.678  24.460 -0.1209 -0.0689  0.0488
39483W        W82577  32.662  19.333  26.142  0.1818 -0.0301  0.0877
39484W        W82578  30.947  21.979  24.259 -0.0861 -0.0845  0.2592
39485W        W82579  29.011  18.258  27.000  0.1351  0.0264 -0.0628
39486W        W82580  29.683  20.655  26.009  0.1012 -0.0089  0.0271
39487W        W82581  29.716  17.890  27.282 -0.0749 -0.0904  0.0053
39488W        W82582  28.653  19.214  25.182  0.1418 -0.1488 -0.2598
39489W        W82583  31.999  21.071  26.175 -0.3840  0.2364 -0.1415
39490W        W82584  30.590  19.463  25.417 -0.0940  0.0732 -0.0131
39491W        W82585  31.500  19.422  26.340  0.0861  0.1207 -0.1022
39492W        W82586  30.907  18.898  25.848 -0.1657  0.2771 -0.0006
39493W        W82587  28.370  20.989  24.892 -0.1025  0.0718 -0.1628
39494W        W82588  32.829  19.596  26.571  0.1047 -0.3451  0.0456
39495W        W82589  31.127  21.423  24.414 -0.2595  0.0572 -0.2281
39496W        W82590  33.863  23.046  25.120 -0.1067 -0.0379 -0.1296
39497W        W82591  33.257  21.502  26.834  0.0414 -0.1222  0.2481
39498W        W82592  30.211  17.514  25.911 -0.0462 -0.1629  0.0241
39499W        W82593  29.452  21.326  25.069  0.1455 -0.0884  0.2556
39500W        W82594  29.543  21.920  25.216 -0.4264 -0.3331  0.0677
39501W        W82595  31.269  20.966  26.704  0.3032 -0.4356  0.2021
39502W        W82596  31.610  19.720  25.522  0.2401  0.1274 -0.2782
39503W        W82597  34.511  22.201  25.734  0.0018  0.1880 -0.2025
39504W        W82598  30.914  22.496  23.858  0.0002 -0.1931  0.1249
39505W        W82599  30.413  20.950  27.128  0.1794 -0.0534 -0.1417
39506W        W82600  30.788  18.524  28.011 -0.1397 -0.0560  0.1869
39507W        W82601  32.702  20.583  26.640  0.0111  0.8034 -0.1277
39508W        W82602  31.458  21.067  25.393 -0.0541  0.3703  0.1316
39509W        W82603  30.462  20.336  24.853 -0.3019 -0.1045  0.1699
39510W        W82604  30.817  21.011  24.502 -0.1271 -0.0022  0.0328
39511W        W82605  28.876  22.364  25.144  0.0366  0.1102  0.0036
39512W        W82606  28.966  21.103  24.928 -0.0575 -0.0085  0.0230
39513W        W82607  30.565  21.631  24.309 -0.2396  0.0337 -0.0381
39514W        W82608  31.751  18.768  25.253  0.1326  0.1854  0.0566
39515W        W82609  29.258  19.792  28.028 -0.1936  0.1216  0.0289
39516W        W82610  30.670  20.590  27.330 -0.0725 -0.0922 -0.1264
39517W        W82611  29.463  20.663  25.531 -0.1874  0.0655 -0.0301
39518W        W82612  28.660  20.791  27.101 -0.0760  0.0858 -0.0028
39519W        W82613  30.549  19.030  23.435  0.2907  0.0277  0.0981
39520W        W82614  32.027  18.825  23.722 -0.0552  0.0751 -0.0774
39521W        W82615  31.875  21.008  28.093 -0.2012 -0.0255 -0.0602
39522W        W82616  31.432  21.585  23.825 -0.2535 -0.2315  0.3027
39523W        W82617  30.980  19.381  23.677  0.0712 -0.0419 -0.2245
39524W        W82618  29.934  18.190  23.764 -0.0790 -0.0621  0.0238
39525W        W82619  28.614  21.688  27.322  0.2807  0.0695  0.1822
39526W        W82620  29.633  21.092  25.600  0.3435  0.2600  0.5559
39527W        W82621  31.767  20.154  25.389  0.3972  0.2630 -0.0237
39528W        W82622  30.349  19.771  24.105  0.0940  0.1048  0.0164
39529W        W82623  31.917  23.324  23.318 -0.1842  0.1193 -0.1213
39530W        W82624  29.442  20.545  26.666 -0.0925 -0.1037  0.1445
39531W        W82625  31.432  22.325  28.443 -0.0187 -0.2985 -0.0964
39532W        W82626  31.794  20.705  25.069 -0.2458 -0.3467 -0.0445
39533W        W82627  30.309  20.239  25.838 -0.0499  0.1031 -0.1594
39534W        W82628  30.286  20.311  24.393 -0.1533 -0.0383  0.0308
39535W        W82629  31.371  17.175  25.036 -0.0642 -0.1146  0.1526
39536W        W82630  28.994  21.777  25.967  0.0487  0.2014 -0.2308
39537W        W82631  31.366  18.969  26.101  0.1598 -0.1011  0.1491
39538W        W82632  30.454  18.987  24.000 -0.0446  0.0229 -0.1706
39539W        W82633  30.681  18.485  26.205  0.0032 -0.2329  0.0630
39540W        W82634  31.185  20.042  27.136  0.2353  0.1013 -0.1278
39541W        W82635  31.387  19.382  24.708  0.0452  0.2070  0.1863
39542W        W82636  30.730  20.286  27.870  0.3246  0.0588 -0.1890
39543W        W82637  29.102  20.544  24.872  0.1799 -0.0751 -0.2191
39544W        W82638  31.584  19.426  27.221  0.3092 -0.2222  0.2824
39545W        W82639  30.352  19.659  25.882  0.1558 -0.3915  0.0458
39546W        W82640  28.149  21.766  27.037  0.0547 -0.0944 -0.3983
39547W        W82641  31.414  19.871  27.568  0.4970  0.0679 -0.4588
39548W        W82642  32.215  20.545  24.915  0.0411  0.2244  0.1104
39549W        W82643  30.915  19.355  26.262 -0.0588 -0.1816  0.0425
39550W        W82644  30.607  19.589  24.941 -0.1292  0.1531 -0.2071
39551W        W82645  31.250  22.339  25.182 -0.1461  0.1666  0.2480
39552W        W82646  30.762  20.595  24.077 -0.0767  0.1374 -0.2830
39553W        W82647  29.802  19.010  24.983 -0.2203 -0.2572 -0.1502
39554W        W82648  29.278  22.212  27.039  0.4394  0.2130 -0.0551
39555W        W82649  30.073  20.442  23.621 -0.2856 -0.1256 -0.0976
39556W        W82650  30.630  19.765  27.165 -0.1296 -0.0501  0.0598
39557W        W82651  29.365  22.531  25.281 -0.1383  0.0050 -0.1578
39558W        W82652  30.126  19.143  26.822  0.2242 -0.1186  0.1752
39559W        W82653  29.921  21.036  27.143 -0.0155  0.0684  0.1307
39560W        W82654  29.868  20.341  24.095  0.0270  0.3181  0.0216
39561W        W82655  29.976  20.182  25.204 -0.0365 -0.0981  0.1461
39562W        W82656  32.257  17.996  24.806  0.1517  0.1073 -0.0613
39563W        W82657  33.248  21.779  23.942 -0.0138  0.2970  0.2486
39564W        W82658  31.383  20.398  25.920 -0.1834 -0.0393 -0.4017
39565W        W82659  29.578  19.924  26.239 -0.1937 -0.0864  0.0120
39566W        W82660  28.984  21.557  26.404  0.0014 -0.2010 -0.1062
39567W        W82661  31.799  21.571  27.302  0.0376  0.1738 -0.1458
39568W        W82662  30.875  19.369  24.591 -0.2542  0.0485 -0.0569
39569W        W82663  31.234  19.781  26.530  0.0294  0.0848 -0.5233
39570W        W82664  30.795  20.708  26.661  0.1898 -0.2045  0.0180
39571W        W82665  29.394  20.631  24.081 -0.3026 -0.0997  0.0199
39572W        W82666  33.124  18.463  26.804 -0.2163  0.0742 -0.1417
39573W        W82667  29.690  21.755  24.787 -0.0502  0.0193  0.1751
39574W        W82668  28.546  21.763  26.219 -0.1862  0.2864  0.1943
39575W        W82669  30.419  21.524  27.843 -0.2470  0.1213 -0.1287
39576W        W82670  30.437  20.436  25.295  0.0193  0.0230 -0.2240
39577W        W82671  31.005  21.327  25.353  0.1197  0.1287  0.1385
39578W        W82672  30.914  19.921  27.579  0.3487  0.2159  0.1357
39579W        W82673  32.037  22.022  26.971 -0.3035 -0.1144 -0.3064
39580W        W82674  29.869  19.415  26.470 -0.0956  0.1094  0.1676
39581W        W82675  30.947  19.140  25.292 -0.0450  0.1660  0.1555
39582W        W82676  30.494  20.229  26.497  0.1026 -0.1966  0.1269
39583W        W82677  33.230  21.373  25.820 -0.2984  0.1322  0.1352
39584W        W82678  31.116  19.595  27.033 -0.1591  0.0927  0.1669
39585W        W82679  30.011  22.363  27.725 -0.3057  0.0712 -0.1339
39586W        W82680  30.346  18.438  26.624  0.0126  0.0279 -0.1431
39587W        W82681  32.162  22.431  26.034 -0.3625  0.1147  0.1316
39588W        W82682  31.563  22.310  28.988 -0.3012  0.1218 -0.0864
39589W        W82683  30.333  21.193  24.886  0.0155 -0.1295 -0.1272
39590W        W82684  28.120  20.874  26.577  0.0207  0.3916  0.0123
39591W        W82685  31.646  21.989  24.028  0.1403  0.0606  0.1147
39592W        W82686  31.400  18.064  25.861 -0.2376 -0.1891  0.2025
39593W        W82687  31.512  20.735  26.319 -0.0084  0.2363 -0.2172
39594W        W82688  30.631  22.459  25.986 -0.0269  0.2565  0.0662
39595W        W82689  29.137  20.824  26.997  0.0718 -0.2890 -0.0072
39596W        W82690  31.726  17.924  24.752 -0.1260 -0.2213 -0.0993
39597W        W82691  31.049  21.014  24.069  0.1322  0.2932  0.0470
39598W        W82692  31.068  20.276  26.282  0.1558 -0.1279 -0.0028
39599W        W82693  34.299  19.782  27.193 -0.2167 -0.0478  0.0606
39600W        W82694  31.915  19.694  24.039  0.0521  0.1389 -0.1661
39601W        W82695  31.758  17.714  27.834  0.1603  0.3484 -0.2049
39602W        W82696  29.563  20.316  27.626  0.0668  0.2813 -0.0494
39603W        W82697  33.693  21.690  25.844  0.0210 -0.0774  0.3598
39604W        W82698  29.877  19.563  28.189 -0.0753  0.0129  0.1140
39605W        W82699  30.781  23.032  29.646 -0.2857  0.2610 -0.0187
39606W        W82700  29.139  20.559  27.483 -0.0658 -0.0661  0.3271
39607W        W82701  30.701  19.879  26.195 -0.1979 -0.1113 -0.0196
39608W        W82702  30.221  19.295  24.940 -0.0042  0.0446  0.3021
39609W        W82703  31.016  20.794  26.147  0.3040  0.3502 -0.3503
39610W        W82704  33.141  20.349  26.753  0.3324  0.0184 -0.0191
39611W        W82705  30.979  21.526  23.979 -0.1131 -0.0505  0.0138
39612W        W82706  31.886  20.512  26.089  0.1137  0.1396  0.0554
39613W        W82707  30.010  20.591  27.562  0.0438  0.4471 -0.1555
39614W        W82708  32.271  20.279  26.274 -0.1070 -0.1776  0.1749
39615W        W82709  30.420  20.804  23.645  0.2931 -0.0020  0.0637
39616W        W82710  29.017  21.865  25.144 -0.3000  0.0700  0.2685
39617W        W82711  30.743  19.764  26.685  0.1826  0.2673 -0.0032
39618W        W82712  31.425  21.295  26.330 -0.1951  0.2041 -0.1160
39619W        W82713  31.193  19.173  24.164 -0.1169 -0.1583 -0.1253
39620W        W82714  31.856  20.539  26.780 -0.1433  0.0177  0.1487
39621W        W82715  31.717  19.760  26.738 -0.1453  0.0661  0.3212
39622W        W82716  30.041  18.902  27.293  0.0796 -0.0415  0.0709
39623W        W82717  28.757  18.909  27.529  0.0716  0.2963  0.4047
39624W        W82718  31.042  21.689  26.604 -0.0212 -0.2588  0.0944
39625W        W82719  31.869  20.160  24.319 -0.2985  0.0996 -0.1347
39626W        W82720  32.379  20.304  27.881 -0.0170  0.2588 -0.1949
39627W        W82721  32.722  20.328  25.200  0.1651 -0.2490 -0.4581
39628W        W82722  31.746  20.618  24.495 -0.4096 -0.0647  0.1278
39629W        W82723  28.841  20.503  26.669  0.0790  0.0786  0.6035
39630W        W82724  31.763  22.709  29.160  0.1021 -0.1099  0.1597
39631W        W82725  30.051  19.279  25.444  0.0430  0.4096 -0.3709
39632W        W82726  31.399  19.381  27.736 -0.0269 -0.0682 -0.1186
39633W        W82727  30.352  23.068  23.453 -0.0112  0.0652  0.2040
39634W        W82728  30.491  21.498  25.284  0.0381 -0.0724 -0.0249
39635W        W82729  32.417  20.714  25.992  0.0114 -0.2347  0.0432
39636W        W82730  28.661  20.089  26.163  0.0640 -0.0823 -0.1741
39637W        W82731  30.268  23.678  27.211  0.1111 -0.3160 -0.0573
39638W        W82732  29.537  20.285  24.454  0.0952  0.0898 -0.3674
39639W        W82733  30.593  20.342  23.489 -0.0422  0.0478  0.0482
39640W        W82734  31.872  21.059  26.678 -0.0421  0.4555 -0.0665
39641W        W82735  31.747  21.760  29.130  0.0106 -0.4281  0.3326
39642W        W82736  29.510  18.542  23.723 -0.4617  0.2449 -0.1004
39643W        W82737  31.734  20.212  27.725  0.0802 -0.0512 -0.3260
39644W        W82738  29.925  20.404  24.766 -0.0707  0.1625 -0.1544
39645W        W82739  29.475  18.597  27.127 -0.0471 -0.0132 -0.0005
39646W        W82740  29.463  22.054  25.698  0.0340 -0.3863 -0.0052
39647W        W82741  29.068  20.928  26.376 -0.3133  0.2548 -0.4674
39648W        W82742  30.569  21.540  26.373  0.1419 -0.0199  0.2175
39649W        W82743  31.403  18.554  24.959  0.0505  0.0037  0.1261
39650W        W82744  31.701  19.906  26.006 -0.1877 -0.0447 -0.1292
39651W        W82745  31.360  20.586  25.335 -0.0990  0.0153 -0.2151
39652W        W82746  32.652  20.963  26.335 -0.0021  0.3754  0.5938
39653W        W82747  31.918  21.633  27.868 -0.2045 -0.0261 -0.3204
39654W        W82748  29.449  21.202  27.163  0.0466 -0.2036  0.3143
39655W        W82749  31.085  21.704  27.173 -0.0095  0.0745  0.3494
39656W        W82750  32.359  21.387  24.875 -0.0591  0.0228  0.1593
39657W        W82751  30.037  20.607  25.582  0.0621 -0.0701  0.1121
39658W        W82752  29.724  19.826  27.789  0.0001  0.0796 -0.1271
39659W        W82753  30.887  21.519  27.611  0.2715 -0.0147 -0.2360
39660W        W82754  32.077  20.040  26.954 -0.2961 -0.1371  0.0493
39661W        W82755  30.598  19.009  24.883  0.0088  0.0452  0.1697
39662W        W82756  30.878  21.678  23.352  0.1222  0.2280 -0.1135
39663W        W82757  30.151  21.139  27.557 -0.2282 -0.1233 -0.0571
39664W        W82758  28.438  20.172  27.571  0.0483 -0.0049 -0.0935
39665W        W82759  30.392  22.387  25.198 -0.1801 -0.2123  0.0452
39666W        W82760  32.657  20.662  24.234 -0.4841  0.3910 -0.1209
39667W        W82761  32.046  20.780  23.925 -0.1124  0.3013 -0.2289
39668W        W82762  31.976  22.066  25.587 -0.0474  0.4065  0.1449
39669W        W82763  32.948  18.776  24.494 -0.0269 -0.3522 -0.2012
39670W        W82764  30.662  21.211  25.724 -0.1679 -0.1495 -0.1364
39671W        W82765  29.955  22.161  24.867 -0.1002  0.0993 -0.2449
39672W        W82766  31.931  22.133  24.641 -0.1106  0.0280 -0.3695
39673W        W82767  30.907  21.214  26.974  0.0030  0.3202  0.1070
39674W        W82768  31.541  21.871  27.004  0.1839  0.1724  0.1605
39675W        W82769  33.169  19.544  24.003 -0.1150  0.1729 -0.0348
39676W        W82770  31.983  19.558  24.608  0.0599  0.1131  0.1630
39677W        W82771  32.326  18.525  24.947 -0.0909 -0.0066 -0.3167
39678W        W82772  32.130  21.737  28.290 -0.2805  0.1986 -0.1062
39679W        W82773  29.279  21.274  25.931  0.1213  0.1515 -0.4350
39680W        W82774  31.955  19.470  23.201  0.3087  0.0598 -0.0560
39681W        W82775  30.125  19.995  26.249 -0.1974  0.3278 -0.2390
39682W        W82776  33.362  18.804  27.640  0.5238 -0.3441  0.1268
39683W        W82777  29.379  22.038  27.623 -0.0790  0.0491 -0.0070
39684W        W82778  32.214  22.498  24.374 -0.3633  0.0313 -0.0689
39685W        W82779  29.514  19.090  27.263 -0.1350  0.1702 -0.0824
39686W        W82780  30.029  21.040  25.923 -0.2399 -0.0495  0.0662
39687W        W82781  33.003  18.096  26.141 -0.1622  0.0513  0.0202
39688W        W82782  30.982  21.202  23.086  0.1733  0.0808  0.2567
39689W        W82783  31.674  19.289  25.875  0.0280 -0.0263 -0.0144
39690W        W82784  30.947  20.989  27.569  0.0512 -0.1512 -0.1002
39691W        W82785  32.048  21.082  25.642 -0.2157 -0.0291  0.1166
39692W        W82786  29.997  21.520  27.241 -0.0929  0.0333 -0.1035
39693W        W82787  30.305  19.859  25.374 -0.2495  0.0399 -0.2215
39694W        W82788  32.865  21.017  25.026 -0.1542 -0.1123 -0.4482
39695W        W82789  30.237  19.996  28.055 -0.2821 -0.1015  0.0698
39696W        W82790  31.996  19.137  27.128 -0.3904 -0.2362 -0.0099
39697W        W82791  30.198  21.679  24.777 -0.0035 -0.1690 -0.1479
39698W        W82792  31.378  18.859  25.610  0.0794  0.1535 -0.0445
39699W        W82793  32.187  21.212  27.095 -0.2438 -0.2336  0.0828
39700W        W82794  29.570  20.654  27.974 -0.1276  0.3211 -0.0442
39701W        W82795  32.628  21.179  24.098  0.2406 -0.2460 -0.0351
39702W        W82796  31.726  22.124  28.064 -0.1189 -0.0220  0.0946
39703W        W82797  29.841  19.775  24.315 -0.1481 -0.2646 -0.1337
39704W        W82798  31.460  22.748  26.469 -0.0725  0.1094 -0.0388
39705W        W82799  30.348  19.427  26.381  0.3777  0.0271  0.1152
39706W        W82800  31.862  18.510  24.252  0.0502 -0.0188 -0.1698
39707W        W82801  29.108  21.101  25.448  0.2197 -0.0332  0.3905
39708W        W82802  30.113  20.611  26.239 -0.2067 -0.0047 -0.4458
39709W        W82803  34.067  22.900  27.950 -0.0425  0.0506  0.1765
39710W        W82804  29.586  19.340  24.185  0.1404  0.1323 -0.0259
39711W        W82805  32.523  20.469  23.799  0.0999  0.0792 -0.1354
39712W        W82806  32.588  20.049  26.916 -0.0205 -0.0466  0.2683
39713W        W82807  29.489  21.110  23.618 -0.0033  0.0516 -0.1336
39714W        W82808  32.307  20.943  25.147 -0.0887  0.0205 -0.0101
39715W        W82809  33.227  21.384  24.788 -0.1621  0.0057 -0.1338
39716W        W82810  29.291  20.276  27.128 -0.3381  0.0828  0.2854
39717W        W82811  32.144  20.545  25.543  0.1271  0.0325  0.0041
39718W        W82812  32.269  21.377  27.612 -0.1493  0.2192 -0.1814
39719W        W82813  30.692  19.410  24.068  0.0442  0.1720 -0.0189
39720W        W82814  28.798  20.568  26.171 -0.0545 -0.3169  0.0619
39721W        W82815  30.057  22.736  24.919  0.0827 -0.4153  0.0866
39722W        W82816  32.101  20.087  25.840 -0.0336  0.2415  0.0470
39723W        W82817  31.313  20.462  26.759  0.1348  0.4423  0.1518
39724W        W82818  30.546  21.286  23.525  0.0299  0.2109  0.1227
39725W        W82819  32.245  18.395  26.805 -0.0230  0.0938  0.1367
39726W        W82820  30.019  19.854  27.383  0.2102 -0.0272 -0.0999
39727W        W82821  30.677  22.417  27.150  0.1249  0.0266 -0.0814
39728W        W82822  29.946  19.904  23.780 -0.2204  0.0310  0.2401
39729W        W82823  31.302  21.234  27.865 -0.0852 -0.0946  0.2296
39730W        W82824  31.594  20.869  25.845  0.1211 -0.0112 -0.0276
39731W        W82825  31.368  21.312  24.973 -0.3725 -0.1271 -0.0842
39732W        W82826  33.109  20.958  27.137  0.1290 -0.8033 -0.0335
39733W        W82827  32.399  20.015  24.842  0.2533 -0.2174  0.1510
39734W        W82828  32.824  20.518  26.180 -0.0929 -0.4651 -0.3255
39735W        W82829  29.485  18.052  26.881  0.0676  0.1914 -0.1177
39736W        W82830  32.845  18.522  24.891  0.0090 -0.2041 -0.2117
39737W        W82831  31.813  18.563  25.937 -0.3069  0.0030 -0.0952
39738W        W82832  30.413  19.667  27.636 -0.1620  0.2126 -0.2846
39739W        W82833  28.911  19.775  24.073  0.4511  0.1929 -0.2381
39740W        W82834  29.260  20.937  24.473  0.1732 -0.0546  0.0289
39741W        W82835  30.549  22.797  27.517 -0.1512 -0.1668  0.2581
39742W        W82836  30.816  18.448  26.794 -0.0627  0.0223  0.0163
39743W        W82837  29.429  19.760  28.518  0.0273 -0.0006  0.0982
39744W        W82838  28.919  19.733  25.856 -0.1406 -0.1299  0.0052
39745W        W82839  30.480  20.753  25.836  0.0772 -0.1948  0.1180
39746W        W82840  33.058  20.992  23.909  0.0188  0.1152 -0.1229
39747W        W82841  29.868  19.712  25.720  0.2138  0.3812 -0.2960
39748W        W82842  29.175  19.083  26.186  0.1926  0.1090  0.0781
39749W        W82843  30.783  20.415  24.536 -0.2054  0.1763 -0.1596
39750W        W82844  32.601  21.290  25.425  0.3034 -0.2407  0.1070
39751W        W82845  31.255  20.032  25.560 -0.0973 -0.0803  0.0952
39752W        W82846  32.196  21.866  27.439 -0.0204 -0.1445 -0.0592
39753W        W82847  28.649  20.216  24.040 -0.3297  0.2153  0.1661
39754W        W82848  32.074  20.602  28.641  0.1007  0.2768 -0.2008
39755W        W82849  30.332  19.257  28.280 -0.2382 -0.0923 -0.1326
39756W        W82850  28.991  18.416  23.681 -0.0853  0.3146  0.0601
39757W        W82851  31.714  20.195  26.461 -0.2477  0.1255  0.1731
39758W        W82852  31.064  21.901  25.444 -0.2159  0.1224 -0.1987
39759W        W82853  32.511  20.740  23.092 -0.0127  0.4174 -0.0466
39760W        W82854  30.419  21.196  28.915  0.0374  0.1447 -0.1273
39761W        W82855  29.676  21.014  27.616 -0.0871  0.0869 -0.1262
39762W        W82856  28.587  17.188  25.965  0.3637  0.0536  0.0031
39763W        W82857  32.435  20.978  23.582  0.0687 -0.0132 -0.1244
39764W        W82858  30.021  21.357  28.338  0.1259  0.0724 -0.2670
39765W        W82859  33.154  21.499  25.282  0.2388 -0.2183  0.4590
39766W        W82860  31.646  20.002  27.162  0.0313  0.1099 -0.1884
39767W        W82861  30.328  20.988  25.371  0.0025  0.0274 -0.1562
39768W        W82862  29.250  18.729  27.527 -0.0736 -0.1863  0.0418
39769W        W82863  29.936  20.989  28.766  0.0239  0.2016 -0.0024
39770W        W82864  32.907  21.005  25.913 -0.2287 -0.2719  0.1933
39771W        W82865  31.436  19.256  25.250  0.0917  0.0319  0.1516
39772W        W82866  31.990  19.795  25.102  0.2954 -0.2112 -0.1037
39773W        W82867  32.373  20.954  24.575 -0.1880 -0.0105  0.0543
39774W        W82868  28.715  20.314  27.187 -0.3064 -0.1279  0.1769
39775W        W82869  30.470  18.885  25.326 -0.0422 -0.0194  0.2385
39776W        W82870  29.564  20.711  27.170 -0.0557  0.1641  0.0930
39777W        W82871  31.040  22.151  26.849  0.0653  0.1553  0.0125
39778W        W82872  32.432  20.169  27.374  0.4254  0.1533 -0.0584
39779W        W82873  31.056  20.330  24.967 -0.0478  0.2301  0.0270
39780W        W82874  32.248  20.472  24.414  0.0938 -0.1055  0.1768
39781W        W82875  29.583  21.571  26.231  0.2154 -0.2160  0.0343
39782W        W82876  33.725  21.320  27.885 -0.1117  0.0128  0.0067
39783W        W82877  29.834  22.089  27.175 -0.0573 -0.4898 -0.0355
39784W        W82878  32.211  20.753  26.503 -0.3986  0.1939 -0.0495
39785W        W82879  29.943  18.454  25.988 -0.0221 -0.1379 -0.1287
39786W        W82880  29.073  22.090  24.390  0.0599  0.1762 -0.2091
39787W        W82881  31.030  19.820  24.842 -0.0301 -0.0939  0.0288
39788W        W82882  29.781  19.529  27.079  0.1251 -0.1125  0.1642
39789W        W82883  29.819  20.218  25.815 -0.0135  0.2101  0.0069
39790W        W82884  31.088  18.043  24.230  0.1105 -0.3039  0.0558
39791W        W82885  29.787  21.367  26.789 -0.2411  0.1796  0.1054
39792W        W82886  31.494  21.040  24.512 -0.0373 -0.3366 -0.1216
39793W        W82887  28.090  22.288  30.266 -0.2377 -0.1311  0.4169
39794W        W82888  30.894  18.141  29.343 -0.0354 -0.0170  0.0334
39795W        W82889  32.212  18.872  26.665  0.1499  0.0475 -0.0098
39796W        W82890  32.907  19.854  28.595  0.0995  0.2455  0.2188
39797W        W82891  31.653  19.989  29.337  0.1992 -0.0176  0.0677
39798W        W82892  33.072  22.532  27.840  0.3673  0.0086 -0.0723
39799W        W82893  28.503  18.568  30.904  0.2866 -0.0156 -0.3236
39800W        W82894  32.120  22.170  31.003 -0.1638 -0.2758 -0.0332
39801W        W82895  33.876  20.607  30.304 -0.1391  0.2427 -0.3391
39802W        W82896  31.947  20.475  28.204 -0.0757 -0.0698 -0.1387
39803W        W82897  31.806  19.538  31.600 -0.1345 -0.1907 -0.2269
39804W        W82898  33.011  22.896  30.135  0.1089 -0.1015 -0.0408
39805W        W82899  30.557  18.468  28.974  0.0637  0.4025  0.0192
39806W        W82900  29.000  17.435  29.490 -0.0095 -0.1229  0.4888
39807W        W82901  31.849  21.429  30.149  0.0695  0.0058  0.2813
39808W        W82902  29.904  20.560  28.451  0.0573  0.0890  0.0584
39809W        W82903  29.945  18.854  30.724 -0.0063  0.0748 -0.3074
39810W        W82904  30.534  20.370  29.310  0.1186  0.3067  0.0208
39811W        W82905  30.897  22.627  29.994  0.0352  0.0225  0.0371
39812W        W82906  30.030  20.268  30.215 -0.0694 -0.0439 -0.0198
39813W        W82907  31.204  18.716  30.307  0.0152 -0.1209 -0.0434
39814W        W82908  32.776  22.329  28.802  0.1395  0.1836 -0.0694
39815W        W82909  28.983  19.918  26.955  0.1443  0.6300 -0.0814
39816W        W82910  28.487  20.776  29.954 -0.0931  0.1838 -0.1090
39817W        W82911  30.767  20.401  29.741 -0.1029  0.1511 -0.1526
39818W        W82912  31.979  20.152  30.282 -0.2005 -0.0362  0.0676
39819W        W82913  33.356  20.865  29.375  0.0030 -0.0659 -0.0923
39820W        W82914  30.907  22.066  30.644  0.0174  0.1031  0.1437
39821W        W82915  31.696  21.460  30.713 -0.2390 -0.0602 -0.0803
39822W        W82916  32.248  19.268  31.610 -0.3118 -0.2003 -0.0955
39823W        W82917  29.607  20.114  29.309  0.0801  0.1986 -0.1896
39824W        W82918  28.643  21.325  29.280 -0.2124 -0.0879  0.1181
39825W        W82919  30.570  21.952  30.283 -0.2941  0.1268  0.3031
39826W        W82920  33.160  21.391  29.463 -0.2579  0.1446 -0.2111
39827W        W82921  32.014  21.606  31.114 -0.2918 -0.3403  0.0988
39828W        W82922  29.741  21.500  30.744  0.2071  0.0593 -0.2645
39829W        W82923  27.708  20.510  28.223  0.0742 -0.2052 -0.3106
39830W        W82924  32.463  20.398  31.196 -0.2769 -0.0055  0.0460
39831W        W82925  31.386  22.121  31.424 -0.0735  0.2390  0.1697
39832W        W82926  31.929  20.316  30.746 -0.3316  0.1094 -0.0158
39833W        W82927  29.515  21.381  30.145  0.1089 -0.0489 -0.2381
39834W        W82928  31.334  21.962  29.314 -0.1085 -0.1961 -0.1079
39835W        W82929  30.358  21.135  30.149  0.1031  0.2882 -0.0371
39836W        W82930  29.926  21.114  30.436 -0.2562 -0.2671  0.1504
39837W        W82931  31.266  22.773  29.361  0.1497 -0.0010 -0.1952
39838W        W82932  34.291  19.430  31.316 -0.1140 -0.0122 -0.0390
39839W        W82933  30.245  22.039  28.780  0.2443  0.1955  0.1591
39840W        W82934  32.499  18.904  27.856  0.0138 -0.1639  0.0134
39841W        W82935  31.642  20.726  27.723  0.1958  0.1141 -0.3477
39842W        W82936  32.550  19.824  27.804 -0.1278  0.1153 -0.3647
39843W        W82937  31.648  19.076  29.187 -0.0973  0.1510  0.1082
39844W        W82938  31.251  23.141  29.754 -0.0725  0.0977  0.1218
39845W        W82939  31.669  19.383  30.549 -0.2064  0.1248 -0.1429
39846W        W82940  31.373  20.160  31.716  0.0422 -0.1147  0.1661
39847W        W82941  30.743  19.352  28.599  0.2316 -0.0356  0.1464
39848W        W82942  31.988  18.792  29.719 -0.1880  0.0037 -0.3922
39849W        W82943  28.949  22.290  31.168  0.1798 -0.1929  0.1982
39850W        W82944  29.243  19.033  29.230  0.0887 -0.0410  0.1627
39851W        W82945  32.820  22.005  30.454  0.1214 -0.1057  0.1309
39852W        W82946  33.642  22.914  28.206 -0.2476  0.1494 -0.1497
39853W        W82947  30.958  21.796  28.976 -0.3087 -0.0036 -0.0761
39854W        W82948  30.310  20.163  29.804 -0.0438 -0.0201  0.2736
39855W        W82949  28.013  20.387  31.610  0.0150  0.0607  0.2571
39856W        W82950  30.282  19.952  31.014 -0.0574 -0.3441  0.1037
39857W        W82951  28.745  17.712  27.238 -0.1630 -0.1153  0.2607
39858W        W82952  32.151  20.174   0.012  0.0424 -0.3301  0.2036
39859W        W82953  28.062  21.074  30.396  0.1225 -0.0430 -0.0404
39860W        W82954  31.919  18.908  28.148 -0.1460 -0.1857 -0.0624
39861W        W82955  30.865  21.256  29.401 -0.0943  0.2282  0.2265
39862W        W82956  33.362  20.590  29.845  0.0124  0.0592 -0.1448
39863W        W82957  32.400  22.356  27.360  0.2301  0.0455 -0.0194
39864W        W82958  32.083  18.369  30.008 -0.2884  0.1567 -0.0400
39865W        W82959  32.864  18.635  29.275  0.1721  0.0274 -0.0999
39866W        W82960  30.295  21.901  27.410  0.1327 -0.0075 -0.1389
39867W        W82961  31.312  21.091  28.387 -0.3438 -0.3361  0.1003
39868W        W82962  33.953  19.901  31.149  0.2448 -0.4453 -0.1725
39869W        W82963  32.658  19.728  27.290  0.0290 -0.0743  0.0066
39870W        W82964  31.079  22.775  30.485  0.1101 -0.1190  0.1283
39871W        W82965  31.021  19.544  31.212  0.2417 -0.0862  0.0986
39872W        W82966  30.810  20.764  31.762 -0.1826 -0.0721  0.0144
39873W        W82967  28.993  21.689  26.966  0.1548 -0.0169 -0.2345
39874W        W82968  30.338  20.620  28.865 -0.1439  0.3859  0.1667
39875W        W82969  29.482  21.348  28.596 -0.2330 -0.0605  0.0313
39876W        W82970  28.966  18.339  31.029 -0.0761 -0.0553 -0.1427
39877W        W82971  30.346  20.984  29.458  0.3016  0.1496 -0.0294
39878W        W82972  33.374  20.063  27.908 -0.2285  0.2331  0.0446
39879W        W82973  29.871  18.661  31.177  0.1660  0.1484 -0.0351
39880W        W82974  32.691  18.650  28.688 -0.1329  0.1173 -0.0046
39881W        W82975  29.756  22.180  28.582 -0.2017  0.0233  0.0233
39882W        W82976  32.141  22.295  29.047  0.2765 -0.1421 -0.0235
39883W        W82977  32.932  19.674  28.068 -0.1023  0.0609  0.0093
39884W        W82978  31.278  22.621  28.037 -0.1893  0.1995 -0.0462
39885W        W82979  28.878  19.663  31.670 -0.0989 -0.2074  0.1758
39886W        W82980  28.928  17.859  28.178  0.1695 -0.1712 -0.1953
39887W        W82981  29.568  18.384  30.349  0.0797  0.1401  0.2181
39888W        W82982  28.232  18.360  28.761  0.1754  0.0733  0.0273
39889W        W82983  32.515  19.770  31.244 -0.0699  0.1217 -0.1550
39890W        W82984  29.667  17.766  28.356  0.0880  0.2111 -0.0577
39891W        W82985  32.568  20.253  29.512  0.1592 -0.3333 -0.2451
39892W        W82986  30.809  20.934  28.633 -0.3305 -0.0851  0.0898
39893W        W82987  29.640  21.581  29.240  0.0175 -0.0381  0.0102
39894W        W82988  32.974  18.559  30.768  0.2451  0.2025 -0.2428
39895W        W82989  31.347  22.909  28.920  0.0239 -0.1415  0.2774
39896W        W82990  32.451  20.291  30.151  0.0812 -0.1652 -0.5351
39897W        W82991  33.440  21.152  29.783  0.2856  0.1678 -0.1230
39898W        W82992  30.227  19.155  30.972 -0.0276  0.0624 -0.2220
39899W        W82993  30.666  19.301  27.892 -0.0650  0.0166  0.0632
39900W        W82994  28.662  21.179  30.212  0.1553  0.2813 -0.0474
39901W        W82995  31.690  21.457  29.645 -0.1340  0.1098 -0.0429
39902W        W82996  30.812  19.833  28.784 -0.0624 -0.1053  0.0567
39903W        W82997  33.232  20.092  28.915  0.1309 -0.0282  0.0075
39904W        W82998  31.560  20.789  28.735 -0.3908 -0.0126  0.2130
39905W        W82999  30.543  20.718  31.161  0.0340  0.1279 -0.0890
39906W        W83000  31.612  18.820  30.579  0.1176  0.1654  0.0921
39907W        W83001  33.390  18.871  30.682  0.2045 -0.2797  0.1861
39908W        W83002  31.860  18.590  29.106  0.0231  0.2129  0.0523
39909W        W83003  29.590  20.277  28.810 -0.1873 -0.2690 -0.1427
39910W        W83004  32.226  21.538  29.309 -0.2090  0.1334  0.1042
39911W        W83005  29.663  21.697  28.286  0.1463  0.0775  0.1694
39912W        W83006  30.789  20.770  29.126 -0.1799 -0.1555  0.0089
39913W        W83007  32.075  20.463  29.880  0.0515 -0.0878  0.1021
39914W        W83008  31.639  19.377  28.683 -0.1753  0.0486 -0.1833
39915W        W83009  29.860  19.833  31.836  0.0745 -0.0935 -0.0512
39916W        W83010  31.197  19.661  31.768 -0.2934  0.3435 -0.1103
39917W        W83011  30.325  20.858  28.436 -0.3692  0.0020  0.1003
39918W        W83012  28.989  21.666   0.642  0.1005 -0.0598  0.0367
39919W        W83013  31.961  18.053  28.587 -0.0201 -0.2334  0.0499
39920W        W83014  32.284  18.287  27.386  0.0969  0.1880 -0.1082
39921W        W83015  30.515  20.939  30.693 -0.1382 -0.0139 -0.0936
39922W        W83016  33.369  20.335  29.392 -0.2365  0.0129 -0.0124
39923W        W83017  32.946  19.189  27.897  0.1935 -0.2111  0.2229
39924W        W83018  31.003  18.973  27.736  0.2223  0.1073  0.2266
39925W        W83019  29.530  21.862  31.051 -0.1936 -0.1752  0.0241
39926W        W83020  31.818  22.343  29.946 -0.0009  0.0227  0.1994
39927W        W83021  31.241  20.385  29.974 -0.0593 -0.1168  0.3104
39928W        W83022  30.931  19.406  27.439 -0.0110  0.1876 -0.1496
39929W        W83023  32.058  21.862  29.973  0.0134  0.3459 -0.1860
39930W        W83024  28.848  20.001  29.995 -0.3878  0.0353 -0.0533
39931W        W83025  31.797  20.470  31.641 -0.0577 -0.1685 -0.2228
39932W        W83026  33.982  22.430  29.876  0.2036 -0.0641  0.3450
39933W        W83027  30.735  19.434  30.550  0.1303 -0.0032  0.0149
39934W        W83028  29.798  19.715  28.928  0.3643 -0.1019  0.1548
39935W        W83029  31.203  19.203  28.171 -0.1958  0.0796 -0.1533
39936W        W83030  29.458  22.536  27.899 -0.0531 -0.2593  0.1093
39937W        W83031  32.402  18.898  30.025 -0.0256 -0.0662 -0.0981
39938W        W83032  31.197  19.191  28.697 -0.0980  0.0470 -0.1370
39939W        W83033  31.045  19.884  29.890  0.1810 -0.0648 -0.1843
39940W        W83034  33.009  19.810  31.319 -0.4133  0.5103 -0.0129
39941W        W83035  31.568  19.565  28.185 -0.5153 -0.0000 -0.0461
39942W        W83036  31.296  21.087  30.565  0.0273  0.0684  0.0261
39943W        W83037  30.791  20.294  26.908  0.1100  0.1868 -0.3176
39944W        W83038  32.665  19.313  29.152  0.1149  0.0839 -0.1949
39945W        W83039  29.051  20.572  30.168  0.0118  0.0215  0.1144
39946W        W83040  30.794  22.469  30.915 -0.1726 -0.0390  0.1550
39947W        W83041  33.097  22.723  31.908 -0.1715  0.0015 -0.1355
39948W        W83042  31.054  20.768  29.579 -0.0231  0.3085  0.0673
39949W        W83043  31.082  18.877  29.799 -0.0693 -0.4070  0.1272
39950W        W83044  29.795  18.572  28.430 -0.2477  0.0224 -0.0952
39951W        W83045  31.602  21.859  30.237  0.1321  0.0190 -0.0913
39952W        W83046  30.430  22.424  28.344  0.1138  0.0969  0.1149
39953W        W83047  29.856  19.406  29.636  0.3251 -0.3325  0.0290
39954W        W83048  30.774  20.963  29.921 -0.0608  0.2541 -0.0784
39955W        W83049  30.331  23.367  28.613 -0.1722  0.3969  0.0096
39956W        W83050  31.124  22.819  31.091 -0.1578  0.1215 -0.3102
39957W        W83051  29.392  22.861  28.469 -0.3438 -0.0267  0.2093
39958W        W83052  32.706  18.017  28.760  0.0257 -0.0236  0.2131
39959W        W83053  30.311  21.464  30.542 -0.0344  0.1610 -0.0351
39960W        W83054  30.764  18.954  28.226  0.0931  0.0436 -0.1724
39961W        W83055  29.767  21.553  29.740 -0.1188  0.1418  0.2141
39962W        W83056  32.397  18.150  28.410  0.4286  0.2394 -0.1801
39963W        W83057  32.082  19.823  27.457 -0.2306  0.3841 -0.2332
39964W        W83058  30.851  19.444  29.082  0.0059  0.0415 -0.1946
39965W        W83059  31.557  18.554  30.001  0.4089  0.1026  0.0299
39966W        W83060  29.066  22.071  30.486 -0.0652  0.3046 -0.2783
39967W        W83061  33.294  20.112  29.949  0.0126 -0.0021 -0.1670
39968W        W83062  31.163  19.294  26.686 -0.0786  0.2811 -0.0162
39969W        W83063  31.760  22.530  31.005  0.3851  0.3078  0.3664
39970W        W83064  31.008  20.404  30.965 -0.0218 -0.2294  0.0042
39971W        W83065  29.243  18.627  28.524 -0.1097 -0.0519 -0.1719
39972W        W83066  32.342  19.365   0.365  0.2829 -0.0072  0.0124
39973W        W83067  31.436  19.639  29.042  0.0264  0.3408  0.1713
39974W        W83068  29.914  22.019  29.294 -0.3793  0.1802 -0.0878
39975W        W83069  32.259  22.190  30.352 -0.5998  0.1454  0.1068
39976W        W83070  30.707  20.554  28.366  0.0830 -0.2619 -0.1962
39977W        W83071  30.176  21.848  29.968 -0.1388 -0.1004  0.0696
39978W        W83072  29.907  20.009  30.680 -0.2791 -0.1773  0.0351
39979W        W83073  32.625  20.077  31.815  0.0775 -0.0271  0.1551
39980W        W83074  31.134  19.070  29.335 -0.1691  0.2747  0.0046
39981W        W83075  31.244  19.751  28.509  0.0365 -0.3349  0.1674
39982W        W83076  31.244  20.078  28.937 -0.0907  0.0736  0.0241
39983W        W83077  32.900  19.877  30.180  0.0192 -0.0884  0.1367
39984W        W83078  30.163  19.341  30.323 -0.3194  0.2415 -0.0771
39985W        W83079  29.374  21.576  31.433  0.1582 -0.1506 -0.2492
39986W        W83080  31.502  19.096  29.764 -0.1469 -0.1589  0.2799
39987W        W83081  32.860  21.716  28.241 -0.3092  0.0681  0.0259
39988W        W83082  30.505  20.458   0.180 -0.1180 -0.2830 -0.1365
39989W        W83083  31.155  21.089  28.997  0.1051 -0.0628  0.0313
39990W        W83084  28.533  19.516  29.459 -0.1716  0.1431  0.0751
39991W        W83085  30.081  22.600  28.740 -0.0611  0.2251 -0.0233
39992W        W83086  30.691  19.588  30.068  0.5479  0.2124 -0.0151
39993W        W83087  28.244  20.659  30.616 -0.3897 -0.2635 -0.1303
39994W        W83088  29.239  23.339  28.598 -0.6168 -0.0615  0.1047
39995W        W83089  29.788  20.993  29.627 -0.1717 -0.4432 -0.3862
39996W        W83090  32.973  17.594  26.978  0.4076 -0.4500  0.2861
39997W        W83091  31.705  20.487  29.441  0.2449  0.4706  0.1118
39998W        W83092  30.630  19.694  28.199  0.1203  0.0327  0.1438
39999W        W83093  32.556  18.204  30.744  0.0534 -0.2353  0.0309
40000W        W83094  32.893  20.520  29.267 -0.0924  0.3606  0.1577
40001W        W83095  31.160  19.371  30.041  0.1718  0.3085 -0.4033
40002W        W83096  30.226  18.842  29.237 -0.2451  0.0167 -0.3646
40003W        W83097  32.052  21.563  28.783  0.1419 -0.1385  0.0279
40004W        W83098  28.744  19.168  31.477  0.0564 -0.2780 -0.0716
40005W        W83099  33.014  22.304  30.160  0.0445 -0.0447 -0.0088
40006W        W83100  29.421  20.952  31.535  0.2338  0.0336 -0.0182
40007W        W83101  32.172  20.071  28.660  0.0419 -0.2475 -0.3356
40008W        W83102  31.479  18.656  29.524  0.0739  0.0150  0.0220
40009W        W83103  31.600  20.475  30.341  0.1039  0.0690 -0.1558
40010W        W83104  31.215  21.283  29.758 -0.0843  0.5704 -0.2036
40011W        W83105  30.679  21.914  28.123  0.0951 -0.0836  0.0273
40012W        W83106  32.098  19.520  28.573 -0.2372  0.0919 -0.2381
40013W        W83107  29.370  20.256  31.222 -0.5624  0.1990  0.1289
40014W        W83108  33.383  19.201  28.456 -0.1722 -0.0288  0.2302
40015W        W83109  30.731  22.058  28.586 -0.1562 -0.0452 -0.3448
40016W        W83110  32.566  20.920  30.620 -0.2480  0.2265  0.0948
40017W        W83111  32.017  19.142  30.769  0.2410 -0.1324  0.1848
40018W        W83112  32.363  19.975  30.487 -0.0827  0.4057 -0.1200
40019W        W83113  31.684  19.876  28.674 -0.4082 -0.1648  0.1821
40020W        W83114  32.485  19.760  29.878 -0.0966 -0.2066  0.0213
40021W        W83115  31.706  20.096  31.356  0.0141  0.0908  0.0896
40022W        W83116  30.861  19.128  30.905  0.0993 -0.0805 -0.3667
40023W        W83117  31.182  19.158  30.525 -0.2768  0.0869 -0.1824
40024W        W83118  32.877  22.310  31.198 -0.0405  0.1203 -0.0813
40025W        W83119  32.354  20.828  27.890  0.1045  0.2852 -0.2442
40026W        W83120  33.938  18.508  30.876 -0.1635  0.1654  0.1898
40027W        W83121  33.382  20.589  28.870  0.0118 -0.0935  0.3435
40028W        W83122  32.500  19.984  28.290 -0.1324  0.2706 -0.1206
40029W        W83123  29.421  19.506  29.953 -0.1255 -0.1819 -0.1170
40030W        W83124  31.874  19.893   0.398 -0.1114  0.2937 -0.0650
40031W        W83125  29.892  18.989  28.151 -0.4178  0.0669  0.0864
40032W        W83126  32.922  20.334  30.404 -0.1948 -0.1815  0.1719
40033W        W83127  30.338  21.391  26.848  0.0462 -0.1547 -0.1659
40034W        W83128  32.679  22.670  30.368  0.2825  0.0468  0.0968
40035W        W83129  32.927  20.918  29.635  0.0740  0.0376  0.0945
40036W        W83130  30.393  20.099  28.574  0.0911 -0.3191 -0.1151
40037W        W83131  29.281  21.574  30.618 -0.2486 -0.0376 -0.2079
40038W        W83132  30.495  20.845  27.825 -0.0572 -0.0959  0.0978
40039W        W83133  30.312  20.476  28.103 -0.3407 -0.2626 -0.1853
40040W        W83134  29.397  20.899  30.522  0.1613  0.2553 -0.0114
40041W        W83135  32.379  21.284  31.381  0.1300  0.0815 -0.0078
40042W        W83136  31.676  18.810  26.930  0.3420 -0.2228  0.1179
40043W        W83137  31.563  19.625  31.141  0.0701 -0.2474 -0.1344
40044W        W83138  30.448  22.672  29.831  0.3020 -0.2015  0.0693
40045W        W83139  32.094  19.098  29.349  0.0049 -0.0987  0.3275
40046W        W83140  30.719  21.580  31.559  0.3229  0.2303 -0.0735
40047W        W83141  29.833  20.377  31.594 -0.2129 -0.2502  0.2623
40048W        W83142  30.057  22.234  30.338 -0.0631  0.2297 -0.1909
40049W        W83143  32.521  17.633  29.952 -0.3696 -0.1490  0.0019
40050W        W83144  30.987  19.843  30.396  0.0599  0.0382  0.2837
40051W        W83145  30.651  20.179  30.187 -0.0809  0.0404  0.0802
40052W        W83146  32.548  19.151  31.970 -0.0484 -0.2465 -0.2644
40053W        W83147  32.914  20.609  30.918  0.0519 -0.0331  0.2188
40054W        W83148  29.083  20.411  30.649 -0.2518 -0.2302 -0.0589
40055W        W83149  31.465  20.639  30.940  0.1267  0.1877 -0.1501
40056W        W83150  32.187  20.494  29.382 -0.1391  0.0138 -0.1213
40057W        W83151  30.770  21.444  29.993  0.0726 -0.0318 -0.0270
40058W        W83152  29.389  19.960  31.623 -0.4341  0.2562 -0.0167
40059W        W83153  31.503  20.855  31.416 -0.0252 -0.1120  0.0953
40060W        W83154  29.982  20.633  30.491 -0.2652  0.2015  0.2371
40061W        W83155  30.385  18.245  28.084 -0.1107  0.2509  0.1687
40062W        W83156  30.298  22.412  29.278 -0.0140 -0.0579  0.1450
40063W        W83157  28.312  22.330  31.163 -0.2204  0.0464 -0.1292
40064W        W83158  29.122  21.187  31.159  0.0401 -0.1718 -0.2593
40065W        W83159  29.465  22.147  28.191  0.2455 -0.3137  0.2174
40066W        W83160  31.845  20.913  30.103 -0.1148  0.0432  0.0020
40067W        W83161  31.998  20.983  29.610 -0.2499 -0.0067 -0.0005
40068W        W83162  33.941  21.498  29.737 -0.1894  0.0748 -0.0045
40069W        W83163  31.074  20.449  27.615 -0.0349 -0.0867  0.2507
40070W        W83164  31.119  22.305  29.710  0.4238  0.1466  0.2414
40071W        W83165  29.195  20.981  27.812 -0.0114 -0.0559  0.0368
40072W        W83166  32.729  21.197  27.785 -0.4393  0.0388  0.3335
40073W        W83167  29.201  21.720  30.137 -0.2402  0.3403 -0.1036
40074W        W83168  31.241  20.583  29.109  0.0198 -0.1943  0.0474
40075W        W83169  32.832  18.101  27.052 -0.4001 -0.1086 -0.0910
40076W        W83170  30.836  19.915  30.875  0.1724  0.0639 -0.0475
40077W        W83171  31.107  20.742  27.143 -0.0847 -0.1711 -0.0287
40078W        W83172  31.707  21.225  31.862 -0.1369 -0.0929 -0.1498
40079W        W83173  31.849  19.811  30.682 -0.3221  0.0028 -0.0815
40080W        W83174  31.086  19.681  28.023 -0.0169 -0.0726  0.1907
40081W        W83175  28.654  20.968  31.482 -0.0732  0.2017 -0.2255
40082W        W83176  33.181  18.859  31.154 -0.2103 -0.0789  0.0789
40083W        W83177  28.800  21.655  30.419  0.0005  0.3018  0.0218
40084W        W83178  32.813  21.972  29.217  0.1349 -0.0576  0.2936
40085W        W83179  30.871  18.617  29.422 -0.0905  0.0500 -0.0930
40086W        W83180  29.659  20.632  30.135 -0.2657 -0.0689 -0.1099
40087W        W83181  32.627  18.558  29.720 -0.0423 -0.3179  0.0361
40088W        W83182  30.997  20.787  28.025 -0.0447  0.0022  0.1738
40089W        W83183  32.018  19.936  28.048 -0.1175 -0.2160  0.0756
40090W        W83184  32.008  21.803  30.630 -0.1435  0.1378  0.1515
40091W        W83185  28.861  21.565  31.360  0.5119  0.1302 -0.0458
40092W        W83186  30.012  21.521  31.173 -0.0984  0.2375 -0.3901
40093W        W83187  29.890  19.999  28.477  0.2442 -0.1892 -0.0506
40094W        W83188  33.722  20.010  28.691  0.1862  0.2381 -0.3937
40095W        W83189  30.576  20.310  30.713  0.0031 -0.0114  0.0831
40096W        W83190  31.710  19.465  29.521  0.0865  0.1855 -0.0638
40097W        W83191  30.835  20.323  28.905 -0.0981  0.2297  0.1195
40098W        W83192  32.650  20.149  28.928  0.2349 -0.0496 -0.1802
40099W        W83193  29.626  20.393  30.691  0.2149  0.0250 -0.0760
40100W        W83194  30.228  20.664  29.839 -0.1082  0.1633 -0.2273
40101W        W83195  31.944  21.055  28.644  0.0201  0.2399 -0.1974
40102W        W83196  32.705  20.041  30.867 -0.1678 -0.2937  0.0321
40103W        W83197  30.486  22.905  28.444 -0.0797  0.1662  0.0266
40104W        W83198  32.671  22.103  31.800 -0.1027  0.4799 -0.0390
40105W        W83199  30.236  19.316  29.364  0.1142  0.1353  0.2363
40106W        W83200  30.902  18.590  27.487 -0.1394  0.3261  0.4321
40107W        W83201  30.465  21.708  29.087 -0.2720  0.1032 -0.3950
40108W        W83202  29.497  20.728  31.069  0.0300 -0.2270 -0.2865
40109W        W83203  30.933  23.794  30.851 -0.0115 -0.0159  0.3274
40110W        W83204  28.405  18.497  28.273 -0.3588 -0.0679  0.0870
40111W        W83205  32.330  21.172  28.872 -0.1709  0.0153  0.1248
40112W        W83206  33.058  21.018  30.593  0.3001  0.2569  0.0690
40113W        W83207  30.080  22.591  27.218 -0.2750 -0.1792 -0.0072
40114W        W83208  32.453  20.782  29.858  0.0961 -0.1820  0.1430
40115W        W83209  32.053  19.964  29.674 -0.0353  0.1238  0.1165
40116W        W83210  29.326  18.168  29.193 -0.1504  0.2172 -0.0342
40117W        W83211  30.964  20.526  30.441 -0.0391  0.4039 -0.3711
40118W        W83212  33.794  20.227  29.158  0.0971  0.1916  0.1738
40119W        W83213  31.361  18.753  28.959  0.0475 -0.1645 -0.2669
40120W        W83214  31.504  20.133  30.870 -0.1544  0.2535  0.0291
40121W        W83215  29.456  21.863  28.751  0.2552  0.1373 -0.0313
40122W        W83216  32.146  19.445  30.342  0.0559  0.1832 -0.4990
40123W        W83217  32.123  18.621  30.410 -0.1000 -0.0074 -0.0127
40124W        W83218  29.358  22.674  26.983 -0.0615 -0.2969 -0.1495
40125W        W83219  32.711  18.972  31.531  0.1028 -0.3687  0.3506
40126W        W83220  30.981  20.889  30.916 -0.0877 -0.1196  0.0844
40127W        W83221  30.169  22.151  31.793  0.0825 -0.2926  0.1881
40128W        W83222  30.846  18.880  28.885  0.0216 -0.2349  0.3610
40129W        W83223  31.314  22.349  30.332 -0.0078 -0.1064  0.0480
40130W        W83224  31.344  21.472  29.295 -0.1117  0.4762  0.2178
40131W        W83225  30.897  21.750  29.578  0.1599  0.2660 -0.0511
40132W        W83226  32.529  21.789  30.834  0.0064 -0.0510 -0.1665
40133W        W83227  33.238  19.179  29.706 -0.2146  0.2081 -0.1828
40134W        W83228  33.792  21.091  29.372 -0.2577  0.0345 -0.2240
40135W        W83229  30.287  18.875  28.666 -0.0367  0.3631 -0.1208
40136W        W83230  32.960  19.795  29.150 -0.2901  0.1929  0.2002
40137W        W83231  31.232  20.435  28.549  0.1447 -0.1235 -0.2511
40138W        W83232  30.548  19.526  31.061 -0.3695 -0.2542  0.1155
40139W        W83233  29.809  20.226  27.099 -0.1142 -0.0219 -0.1070
40140W        W83234  29.094  20.035  27.571 -0.0050  0.0048 -0.2225
40141W        W83235  30.360  21.447  29.704 -0.0708  0.1125 -0.0740
40142W        W83236  31.834  19.056  30.140 -0.0457  0.3598 -0.0945
40143W        W83237  28.239  20.510  31.083  0.2143  0.3212 -0.1065
40144W        W83238  30.013  19.867  29.461 -0.2829 -0.0415  0.1570
40145W        W83239  30.657  18.487  28.467  0.3548  0.1554  0.0267
40146W        W83240  32.267  21.359  29.798  0.1586 -0.1679 -0.0822
40147W        W83241  28.968  18.811  29.945 -0.0492 -0.2843 -0.0570
40148W        W83242  28.436  18.818  29.997 -0.0079  0.1241 -0.1336
40149W        W83243  31.196  21.773  28.325  0.0576  0.0878 -0.2368
40150W        W83244  31.673  21.443  28.280  0.2606  0.0148 -0.0801
40151W        W83245  30.343  18.036  29.021  0.1809  0.0768 -0.0367
40152W        W83246  32.751  21.287  29.910  0.0588 -0.0980  0.1991
40153W        W83247  30.038  20.944  28.016  0.0817  0.3448 -0.0109
40154W        W83248  32.198  20.120  31.464  0.1123 -0.0440 -0.6534
40155W        W83249  30.545  18.711  30.991 -0.0803 -0.1900 -0.0071
40156W        W83250  29.515  20.067  26.744 -0.0080  0.0547  0.0547
40157W        W83251  30.114  19.550  30.726 -0.0542 -0.1412 -0.0149
40158W        W83252  32.456  22.083  28.343 -0.1507  0.1121  0.2036
40159W        W83253  32.607  22.596  27.781 -0.2383  0.1129  0.2277
40160W        W83254  30.048  20.358  31.113 -0.2382 -0.4590 -0.0488
40161W        W83255  30.890  21.429  31.003  0.0557  0.0816  0.2142
40162W        W83256  28.579  18.451   0.289 -0.0384 -0.1266  0.1252
40163W        W83257  31.603  20.013  29.843  0.0133 -0.2722  0.0045
40164W        W83258  32.112  23.050  31.128  0.1597  0.2432 -0.4166
40165W        W83259  31.979  20.351  27.322 -0.1380  0.1446 -0.2247
40166W        W83260  33.736  19.319  29.646  0.1147  0.0222 -0.1643
40167W        W83261  32.190  20.041  29.162  0.0376 -0.0134 -0.0425
40168W        W83262  29.683  18.308  31.654 -0.2410 -0.0834  0.3117
40169W        W83263  29.830  20.432  29.626 -0.1456  0.0453  0.1055
40170W        W83264  31.246  21.448  30.222  0.1726  0.0597 -0.0186
40171W        W83265  30.529  17.448  28.422  0.1375 -0.3595  0.0770
40172W        W83266  31.722  18.227  29.678  0.1590  0.4044 -0.1494
40173W        W83267  32.932  20.964  29.028  0.1058  0.1023  0.0205
40174W        W83268  30.750  19.306  29.602  0.1160 -0.2466 -0.2745
40175W        W83269  31.474  21.419  28.767 -0.1791  0.3207  0.4114
40176W        W83270  30.470  19.803  30.548  0.2700 -0.3487 -0.0988
40177W        W83271  31.602  22.013  30.975 -0.1255 -0.2887  0.0793
40178W        W83272  32.502  20.516  31.704 -0.2682 -0.1433  0.0972
40179W        W83273  31.247  20.253  29.511  0.0210  0.0652 -0.3489
40180W        W83274  31.404  21.926  28.765  0.1786 -0.0307  0.1561
40181W        W83275  32.233  23.583  30.887 -0.2718 -0.1967  0.0370
40182W        W83276  31.925  22.089   1.775 -0.3234 -0.2743 -0.1135
40183W        W83277  31.108  20.555  31.432 -0.0941 -0.3747  0.1204
40184W        W83278  32.425  20.635  29.015  0.0047  0.2244  0.0055
40185W        W83279  29.734  19.018  30.156 -0.0165 -0.0992  0.4722
40186W        W83280  29.949  20.761  29.230 -0.2547 -0.3005  0.0181
40187W        W83281  30.128  21.379  29.279 -0.2881 -0.0477 -0.3354
40188W        W83282  32.225  19.361  29.754 -0.1580  0.5153  0.0837
40189W        W83283  30.502  18.871  29.681 -0.0376 -0.4526 -0.1016
40190W        W83284  31.520  18.935  28.482 -0.1557  0.2693 -0.2277
40191W        W83285  31.054  21.942  30.093  0.1521  0.0792 -0.1946
40192W        W83286  32.881  20.412  29.859  0.5137  0.0321  0.1997
40193W        W83287  32.411  19.531  30.826  0.0367 -0.2239  0.0501
40194W        W83288  32.330  20.928  31.033 -0.2577 -0.2480 -0.0687
40195W        W83289  30.097  19.536  31.331  0.1483  0.4548 -0.2399
40196W        W83290  28.975  21.142  30.698  0.2153 -0.0450 -0.3081
40197W        W83291  31.375  22.612  31.477 -0.1931  0.1615 -0.0271
40198W        W83292  28.550  21.642   1.223  0.1800 -0.3312  0.2672
40199W        W83293  32.183  21.407  31.840  0.0401  0.0529  0.2282
40200W        W83294  29.252  19.440  30.772  0.0946 -0.1483  0.3581
40201W        W83295  32.064  19.565  31.188 -0.3166 -0.1400  0.2073
40202W        W83296  33.164  22.142   0.258  0.2503  0.0041 -0.0967
40203W        W83297  33.325  21.602  31.280  0.1595  0.0819 -0.3074
40204W        W83298  29.682  19.189  31.221 -0.1751 -0.0660 -0.0921
40205W        W83299  31.802  20.392   1.017 -0.1020  0.0125  0.1160
40206W        W83300  31.096  20.024  31.301 -0.0276 -0.0375 -0.0394
40207W        W83301  33.770  19.341  31.336 -0.0530 -0.0915  0.3045
40208W        W83302  30.403  22.366  31.204  0.0103  0.3012 -0.0821
40209W        W83303  29.881  22.043   0.694 -0.2624  0.0924  0.1632
40210W        W83304  32.381  22.111   0.527  0.1494 -0.3600 -0.2451
40211W        W83305  28.762  18.667  31.352 -0.0302  0.0312  0.0225
40212W        W83306  29.459  18.896  30.887 -0.0223  0.1727  0.1186
40213W        W83307  31.012  17.455  31.473  0.1608 -0.1497  0.0721
40214W        W83308  28.710  22.018   0.905  0.0814 -0.1018  0.0587
40215W        W83309  32.768  19.477  31.579 -0.2470 -0.1397  0.2298
40216W        W83310  32.231  18.607  31.588 -0.4057 -0.2434 -0.0744
40217W        W83311  31.365  19.239  31.438  0.2301  0.2271 -0.1069
40218W        W83312  30.616  19.139  31.344  0.0059 -0.2243  0.5611
40219W        W83313  31.757  20.484   0.183  0.1926 -0.1571 -0.2831
40220W        W83314  29.507  22.389  30.983  0.2307 -0.0491  0.3039
40221W        W83315  29.993  19.968   1.606  0.0538 -0.0439 -0.2169
40222W        W83316  28.602  22.078  31.574  0.1452 -0.2345 -0.2120
40223W        W83317  31.258  21.571   0.180 -0.2818  0.3797  0.0958
40224W        W83318  31.286  20.675  31.892 -0.1966 -0.0109  0.0590
40225W        W83319  32.896  21.253   1.304 -0.0482  0.0166 -0.0716
40226W        W83320  32.046  18.501   0.552  0.1357 -0.2628  0.1676
40227W        W83321  29.562  20.514   0.323  0.1254  0.0835 -0.0008
40228W        W83322  30.452  21.261  31.208  0.0872  0.3172  0.0311
40229W        W83323  30.304  21.676  31.764 -0.2187  0.1658 -0.0922
40230W        W83324  30.080  20.902  31.442  0.2435  0.1158  0.1264
40231W        W83325  33.020  20.603   0.689  0.0543 -0.2639  0.0270
40232W        W83326  31.727  20.274   1.519  0.1426  0.2169  0.1232
40233W        W83327  32.989  20.284  31.305  0.1666 -0.0926  0.1175
40234W        W83328  31.288  19.400   0.842  0.1200 -0.1690  0.1802
40235W        W83329  31.482  19.119  30.965  0.4143  0.2718  0.0583
40236W        W83330  31.560  20.981   0.672 -0.0561 -0.1820  0.0468
40237W        W83331  29.177  19.278  31.952  0.0150  0.2190  0.1225
40238W        W83332  31.385  20.829   1.291  0.0946  0.0346 -0.1760
40239W        W83333  30.480  18.913  30.529  0.1215  0.0927  0.1328
40240W        W83334  32.930  21.311  31.461 -0.0648 -0.2563  0.0685
40241W        W83335  33.258  21.115   0.605  0.0036 -0.0383 -0.0395
40242W        W83336  28.735  20.763  30.470  0.0510  0.1112  0.0978
40243W        W83337  31.207  21.469   0.672  0.2097  0.2028 -0.2607
40244W        W83338  33.235  18.352   1.621  0.1152 -0.0696 -0.0359
40245W        W83339  31.296  18.300  30.808 -0.0893  0.1129 -0.0839
40246W        W83340  30.476  20.638  30.236 -0.0794  0.0455 -0.0032
40247W        W83341  31.360  21.174  31.069 -0.1323  0.2191 -0.2475
40248W        W83342  33.398  19.799  31.007 -0.2001 -0.3008  0.0817
40249W        W83343  32.638  21.315   0.306  0.2121  0.0647  0.2782
40250W        W83344  29.262  23.636  31.346  0.0337  0.1266  0.0209
40251W        W83345  30.544  22.829  31.316 -0.0424 -0.2199  0.1329
40252W        W83346  32.291  21.193   0.699  0.0814 -0.0749  0.1360
40253W        W83347  30.047  19.263   1.788  0.2847  0.3099 -0.0931
40254W        W83348  29.613  21.233  31.172 -0.0869 -0.3411  0.1297
40255W        W83349  29.564  20.579   0.836 -0.0644 -0.0975 -0.0910
40256W        W83350  28.925  17.813  31.813  0.2054  0.3137 -0.1256
40257W        W83351  31.914  22.166  31.515 -0.2325  0.3210  0.0734
40258W        W83352  32.009  20.699   0.587  0.0368 -0.1015  0.0513
40259W        W83353  33.602  20.747  31.854  0.3202 -0.0908  0.2515
40260W        W83354  28.539  24.647  19.941  0.0923 -0.0297  0.1435
40261W        W83355  29.452  23.760  18.648  0.0319 -0.3282 -0.4215
40262W        W83356  31.538  23.500  16.857 -0.0125  0.1391  0.1460
40263W        W83357  33.181  24.734  17.301  0.0642  0.0324  0.0300
40264W        W83358  29.122  23.112  18.172  0.1064 -0.1119  0.0328
40265W        W83359  31.845  25.657  17.320  0.0261  0.1348  0.1059
40266W        W83360  28.865  21.831  19.144 -0.0603  0.0608 -0.1391
40267W        W83361  31.914  26.163  17.315 -0.2998 -0.1991  0.1031
40268W        W83362  32.235  24.582  19.370 -0.0331  0.1025  0.0209
40269W        W83363  31.004  23.966  16.187 -0.0807  0.1415  0.1142
40270W        W83364  29.328  22.205  18.532 -0.0745  0.1369  0.1215
40271W        W83365  29.420  25.300  19.040 -0.0682 -0.0357  0.1679
40272W        W83366  31.184  22.126  17.105  0.0342 -0.2039  0.1027
40273W        W83367  29.973  21.970  17.275 -0.0758 -0.0749  0.2410
40274W        W83368  31.695  24.062  19.157 -0.1781 -0.2428 -0.0971
40275W        W83369  29.022  23.792  17.032 -0.0246 -0.2001  0.0090
40276W        W83370  31.269  22.551  18.323 -0.1066 -0.0609 -0.0240
40277W        W83371  30.948  22.862  17.705 -0.1863 -0.0078  0.0564
40278W        W83372  30.313  26.175  17.878  0.0713  0.0247 -0.0509
40279W        W83373  31.236  22.534  19.108  0.0668  0.1351  0.0533
40280W        W83374  31.201  22.700  19.926 -0.2869 -0.2081  0.0723
40281W        W83375  31.444  25.498  16.955  0.0803  0.1377  0.0202
40282W        W83376  30.053  19.847  18.586  0.1743 -0.3634  0.0622
40283W        W83377  28.223  24.610  17.327 -0.0151  0.0320  0.1451
40284W        W83378  29.056  23.500  18.980 -0.0666 -0.3029 -0.0180
40285W        W83379  32.192  23.509  17.951  0.2646  0.0729  0.0493
40286W        W83380  32.429  23.764  17.612  0.0968  0.0785 -0.4384
40287W        W83381  30.717  25.076  17.598 -0.2782 -0.1907 -0.0923
40288W        W83382  31.399  25.417  17.460 -0.1985 -0.0598 -0.0376
40289W        W83383  30.789  22.746  18.251  0.1054  0.2353  0.1691
40290W        W83384  29.431  25.211  16.856  0.3227  0.1741 -0.3512
40291W        W83385  28.417  24.937  16.917 -0.1688  0.0010 -0.1866
40292W        W83386  31.223  25.027  17.719 -0.3536  0.2658  0.0216
40293W        W83387  32.356  25.373  17.344 -0.1379 -0.0786  0.0722
40294W        W83388  31.130  25.979  20.616 -0.1615  0.2191 -0.0225
40295W        W83389  28.050  24.558  22.115 -0.3243  0.1702 -0.3093
40296W        W83390  29.632  25.295  16.330 -0.0224 -0.0896  0.2144
40297W        W83391  31.036  24.131  20.200 -0.2355 -0.1260  0.0373
40298W        W83392  29.555  25.997  19.860  0.1804  0.0768  0.0216
40299W        W83393  30.823  24.303  18.628 -0.2126  0.0574  0.1677
40300W        W83394  30.203  24.424  18.115 -0.3258 -0.2128  0.5279
40301W        W83395  30.584  24.646  16.298 -0.1656 -0.1064 -0.0159
40302W        W83396  30.829  23.570  19.621  0.0401  0.1478 -0.1171
40303W        W83397  28.444  24.165  20.023  0.1317  0.3951  0.0017
40304W        W83398  29.388  23.298  18.520 -0.2730 -0.0893 -0.1379
40305W        W83399  32.148  21.679  19.618  0.0491  0.2022 -0.0992
40306W        W83400  28.244  24.864  17.767 -0.0436 -0.1048  0.0255
40307W        W83401  31.593  23.904  17.170 -0.0461  0.0522 -0.0226
40308W        W83402  31.344  22.078  18.091 -0.2181 -0.0943 -0.2778
40309W        W83403  31.968  24.407  16.593  0.1991  0.1315 -0.1192
40310W        W83404  30.866  21.745  17.197  0.1540 -0.1581 -0.0900
40311W        W83405  29.096  25.294  18.677  0.1374  0.2698 -0.1279
40312W        W83406  30.280  22.456  18.979 -0.4054  0.2218  0.0501
40313W        W83407  32.298  24.983  18.903  0.0332  0.2003  0.1243
40314W        W83408  30.594  23.621  17.626  0.3475 -0.0381 -0.1553
40315W        W83409  31.226  23.985  18.307 -0.1612 -0.0229 -0.3036
40316W        W83410  30.244  26.144  17.408  0.0717  0.2096 -0.0892
40317W        W83411  28.420  24.085  18.634 -0.0725  0.1270 -0.5018
40318W        W83412  33.206  25.332  17.807  0.0900 -0.1359  0.1759
40319W        W83413  34.094  24.794  17.832  0.3300  0.3819  0.1918
40320W        W83414  32.838  25.263  17.413 -0.0190 -0.0188  0.0848
40321W        W83415  30.637  23.268  17.218  0.1143 -0.2992  0.0107
40322W        W83416  29.870  24.161  20.086  0.0918 -0.2353  0.2257
40323W        W83417  28.980  22.361  19.262  0.1156 -0.0834 -0.2647
40324W        W83418  30.724  21.569  16.654 -0.3052  0.0107 -0.1144
40325W        W83419  31.570  23.019  18.558  0.2313 -0.1305  0.1780
40326W        W83420  28.616  25.055  20.359  0.0271  0.1788 -0.1443
40327W        W83421  31.047  23.430  17.577  0.0706 -0.3247  0.2349
40328W        W83422  30.493  25.117  18.110 -0.1178  0.0098  0.0908
40329W        W83423  31.653  24.793  17.583 -0.2116 -0.2457  0.3839
40330W        W83424  32.634  22.778  16.168 -0.1647  0.1664 -0.1371
40331W        W83425  31.715  23.944  18.108  0.1269  0.1274  0.0197
40332W        W83426  31.227  21.654  18.390 -0.0656 -0.0871 -0.0221
40333W        W83427  29.850  23.518  16.383 -0.0115 -0.1835  0.1132
40334W        W83428  29.169  24.249  17.384  0.1244  0.1642 -0.1724
40335W        W83429  32.882  25.283  19.143  0.1648 -0.2000  0.2945
40336W        W83430  32.570  24.196  15.968  0.0695 -0.0732  0.3339
40337W        W83431  29.108  25.128  17.817  0.0729 -0.0346 -0.0281
40338W        W83432  29.257  22.803  18.692 -0.2406  0.0497  0.1525
40339W        W83433  30.262  25.535  19.684 -0.0485  0.2218 -0.0206
40340W        W83434  28.795  23.969  18.093  0.0856  0.3415 -0.0414
40341W        W83435  30.591  24.651  17.890 -0.5895  0.2470 -0.2697
40342W        W83436  29.767  24.392  16.783  0.5182  0.0965  0.1849
40343W        W83437  27.927  21.281  19.332 -0.0786 -0.2246 -0.0491
40344W        W83438  30.571  24.696  18.398 -0.2987  0.0377  0.0021
40345W        W83439  33.453  23.030  17.001  0.2249  0.4693  0.1099
40346W        W83440  30.494  21.251  17.949  0.1345  0.2604 -0.0499
40347W        W83441  31.826  21.637  17.681 -0.1088 -0.0481  0.1925
40348W        W83442  29.900  23.917  16.812 -0.1043 -0.1113 -0.0172
40349W        W83443  33.562  26.700  16.234  0.0684  0.1594  0.2982
40350W        W83444  31.191  23.048  16.719  0.0831 -0.0424  0.3140
40351W        W83445  31.423  25.106  16.699  0.0183  0.2988  0.4087
40352W        W83446  28.871  24.045  18.851 -0.0428 -0.0788 -0.1127
40353W        W83447  29.805  22.749  18.814  0.2247  0.2010  0.0743
40354W        W83448  30.171  21.640  19.874 -0.1715  0.0027  0.1133
40355W        W83449  29.744  23.028  18.341  0.2562 -0.0071 -0.2464
40356W        W83450  32.508  23.794  20.454 -0.0043  0.0583 -0.3547
40357W        W83451  29.530  22.817  17.855 -0.0424  0.1235  0.0558
40358W        W83452  31.641  23.497  18.427 -0.1994  0.0343  0.2750
40359W        W83453  31.405  25.324  19.108 -0.1569  0.2793 -0.3295
40360W        W83454  29.633  24.908  17.814  0.1485  0.0532 -0.3564
40361W        W83455  32.949  22.309  20.409 -0.2023 -0.4963  0.1781
40362W        W83456  32.101  25.790  16.920  0.0321 -0.1886  0.1804
40363W        W83457  33.376  25.857  20.255 -0.2758  0.0535 -0.0589
40364W        W83458  32.174  24.425  17.518  0.0331  0.0450  0.1612
40365W        W83459  29.342  23.873  19.187  0.1892 -0.1803  0.2086
40366W        W83460  30.009  23.480  17.025 -0.0560 -0.1545  0.1467
40367W        W83461  29.714  24.408  17.675 -0.0290 -0.3675 -0.0042
40368W        W83462  30.996  25.582  17.733  0.1424  0.1560  0.0426
40369W        W83463  30.654  22.252  18.339  0.0694 -0.2173  0.0858
40370W        W83464  33.228  25.763  19.300  0.2300 -0.0013 -0.1420
40371W        W83465  32.074  24.875  17.331 -0.0477  0.2393 -0.1843
40372W        W83466  30.358  23.686  19.553 -0.2763 -0.1091  0.2964
40373W        W83467  31.775  21.787  18.132 -0.1903  0.0809  0.2698
40374W        W83468  32.718  24.024  18.792  0.1517  0.0627 -0.4974
40375W        W83469  33.379  24.898  17.942 -0.0586 -0.2088  0.3926
40376W        W83470  30.305  23.069  18.228 -0.0750 -0.0858  0.1910
40377W        W83471  31.420  25.948  17.373  0.3743  0.0041 -0.0938
40378W        W83472  29.700  26.193  16.768  0.0220 -0.0625 -0.0480
40379W        W83473  29.303  24.198  16.853  0.0016  0.0344  0.3841
40380W        W83474  29.710  24.517  18.186  0.0418  0.1901  0.1056
40381W        W83475  31.506  23.374  18.936  0.1953 -0.0557 -0.1999
40382W        W83476  28.268  22.700  20.760  0.1925  0.2558  0.3974
40383W        W83477  30.270  22.723  19.433  0.4143 -0.0148  0.1902
40384W        W83478  30.533  23.119  17.725 -0.2259  0.1096 -0.0209
40385W        W83479  29.980  24.596  20.358 -0.1359 -0.1808 -0.2509
40386W        W83480  30.921  23.331  18.998 -0.2867 -0.0818  0.0043
40387W        W83481  32.187  22.612  15.890  0.1488 -0.1034  0.2564
40388W        W83482  30.789  23.749  20.495  0.0520 -0.2909 -0.0114
40389W        W83483  32.475  24.394  16.386 -0.0138  0.1091 -0.0927
40390W        W83484  30.863  23.792  16.790  0.1787  0.0167 -0.1060
40391W        W83485  30.278  21.636  17.493  0.0299 -0.4519  0.0778
40392W        W83486  27.903  23.828  19.980  0.5297 -0.0024 -0.0557
40393W        W83487  30.343  23.587  18.288 -0.0939 -0.0433  0.1046
40394W        W83488  30.949  24.815  18.744  0.0651 -0.0942 -0.3765
40395W        W83489  30.003  22.468  16.437 -0.3612  0.1848  0.1073
40396W        W83490  32.661  24.754  17.365 -0.0413 -0.1163  0.1332
40397W        W83491  29.909  23.387  19.634 -0.0897 -0.0819  0.0485
40398W        W83492  29.624  24.393  21.320  0.0441 -0.1174 -0.1501
40399W        W83493  33.558  26.263  19.687  0.1451  0.2396 -0.2204
40400W        W83494  30.857  22.416  20.336 -0.0932  0.1548 -0.0363
40401W        W83495  30.557  23.099  16.293  0.1449 -0.2111 -0.2096
40402W        W83496  30.868  21.009  17.749  0.0791 -0.3517 -0.4385
40403W        W83497  28.960  24.925  16.843 -0.0298  0.4233 -0.2781
40404W        W83498  31.602  24.483  18.015  0.0178  0.3371 -0.0670
40405W        W83499  30.464  22.805  18.592 -0.1281  0.2969  0.2011
40406W        W83500  30.539  23.454  20.098  0.1421 -0.0013  0.0058
40407W        W83501  32.576  22.542  21.123 -0.1082  0.0623  0.2020
40408W        W83502  31.549  25.011  18.086 -0.0817  0.0399  0.2474
40409W        W83503  31.639  24.014  20.027  0.0502  0.0545 -0.1529
40410W        W83504  30.290  23.607  16.642 -0.2110 -0.0620 -0.1616
40411W        W83505  30.786  22.499  18.804  0.0048 -0.1398  0.1707
40412W        W83506  31.013  23.497  20.086  0.1828 -0.0955  0.0938
40413W        W83507  30.414  25.352  18.921  0.1160 -0.1783  0.0460
40414W        W83508  31.831  25.818  19.958 -0.0468 -0.0567 -0.0570
40415W        W83509  31.953  24.845  16.858 -0.0916  0.2583 -0.5379
40416W        W83510  30.205  22.179  20.200  0.2482 -0.0519 -0.0014
40417W        W83511  31.074  22.923  17.180 -0.0240 -0.1464  0.0741
40418W        W83512  29.560  25.709  16.800 -0.2991  0.2949 -0.0410
40419W        W83513  29.631  24.841  16.561 -0.3979 -0.1911  0.0387
40420W        W83514  29.158  21.304  18.173  0.3373  0.3927  0.1156
40421W        W83515  29.795  24.170  18.832 -0.0210 -0.1666 -0.0486
40422W        W83516  31.040  24.775  16.484 -0.1175 -0.0983 -0.1528
40423W        W83517  32.210  24.067  19.103  0.0935  0.1778  0.1342
40424W        W83518  30.425  24.799  18.870  0.4682 -0.0086 -0.2801
40425W        W83519  31.385  20.713  16.814 -0.0906  0.1909 -0.0190
40426W        W83520  30.107  24.845  17.830  0.2121  0.0103 -0.0628
40427W        W83521  31.812  21.844  17.157  0.1651  0.1027 -0.1200
40428W        W83522  30.316  24.299  18.903  0.1434 -0.1425  0.0681
40429W        W83523  32.924  23.604  16.930 -0.2715 -0.1095  0.1231
40430W        W83524  32.159  24.113  17.934  0.2378  0.2327  0.0081
40431W        W83525  27.900  21.696  18.004  0.0544 -0.0185 -0.0157
40432W        W83526  29.855  21.405  17.388 -0.3466  0.1752 -0.4218
40433W        W83527  29.521  25.500  17.848  0.0076  0.2561 -0.1414
40434W        W83528  29.771  23.571  19.116 -0.2541  0.2709  0.3017
40435W        W83529  31.874  23.918  16.738  0.0863  0.2790 -0.3411
40436W        W83530  32.041  25.300  20.045  0.1679 -0.2136 -0.1798
40437W        W83531  29.927  23.824  20.939  0.2689 -0.1144  0.1558
40438W        W83532  27.849  22.649  16.348  0.0424  0.1969  0.2273
40439W        W83533  32.321  23.528  18.569 -0.1299 -0.1052 -0.0343
40440W        W83534  30.355  24.113  18.463 -0.0245  0.2498  0.0327
40441W        W83535  29.742  25.124  17.381  0.0608 -0.0893 -0.4091
40442W        W83536  30.781  24.661  17.392  0.2158  0.2268  0.2262
40443W        W83537  30.720  23.299  16.723 -0.1037  0.0518  0.1637
40444W        W83538  29.557  23.321  17.920  0.2017  0.0643 -0.0741
40445W        W83539  29.423  22.513  19.107  0.0549 -0.1557  0.0614
40446W        W83540  30.718  24.584  19.170 -0.1117  0.0620 -0.1270
40447W        W83541  31.623  21.335  18.514 -0.0077  0.1992 -0.1711
40448W        W83542  31.829  22.800  17.469  0.1878 -0.0501  0.2198
40449W        W83543  30.145  24.356  17.071  0.0939 -0.0627  0.0234
40450W        W83544  31.497  24.798  19.062  0.0395  0.0665  0.0635
40451W        W83545  31.223  24.531  18.350 -0.0878 -0.1721 -0.2848
40452W        W83546  29.135  24.989  20.405 -0.1037  0.0392 -0.2960
40453W        W83547  30.927  21.851  18.034  0.1351  0.1360 -0.2798
40454W        W83548  33.119  26.009  17.580 -0.0841 -0.1681  0.3223
40455W        W83549  31.874  23.888  19.615 -0.0357 -0.0717  0.1376
40456W        W83550  31.093  23.424  17.060  0.2135  0.1622  0.0518
40457W        W83551  29.775  25.017  19.534 -0.2943 -0.0573 -0.0812
40458W        W83552  30.346  24.368  17.592  0.0693 -0.2197 -0.1066
40459W        W83553  31.633  22.104  17.604  0.0096 -0.1197 -0.1614
40460W        W83554  28.940  24.610  20.195 -0.0939  0.0349 -0.1254
40461W        W83555  30.298  24.877  17.369 -0.0085 -0.1007  0.0597
40462W        W83556  29.955  24.614  19.821 -0.1787 -0.1562  0.3097
40463W        W83557  32.254  21.694  16.669 -0.0377  0.0708  0.2065
40464W        W83558  30.475  25.097  16.580 -0.2205  0.0507 -0.0289
40465W        W83559  30.890  22.431  17.402 -0.2738  0.1329  0.0984
40466W        W83560  31.933  22.069  19.396 -0.0702 -0.0019  0.3433
40467W        W83561  30.400  24.071  16.763 -0.2749 -0.0999  0.0007
40468W        W83562  31.337  21.595  17.884  0.2101 -0.1718  0.0385
40469W        W83563  30.504  22.005  18.832 -0.1162 -0.0764  0.0540
40470W        W83564  33.170  26.892  18.166  0.0257  0.0536  0.2095
40471W        W83565  28.080  22.403  18.539  0.3276  0.1233 -0.3362
40472W        W83566  30.478  25.321  20.801 -0.2347  0.2669 -0.2622
40473W        W83567  27.891  25.759  20.607  0.0619  0.3204  0.0510
40474W        W83568  31.392  22.512  17.319  0.0626 -0.0527 -0.0350
40475W        W83569  30.351  22.331  17.380  0.2315  0.0720  0.2017
40476W        W83570  30.303  24.995  20.327  0.0899  0.1813  0.1743
40477W        W83571  32.761  25.556  18.591  0.2027  0.0723  0.1650
40478W        W83572  31.087  23.855  17.237 -0.1662 -0.0475  0.0374
40479W        W83573  33.164  22.700  18.539 -0.1167  0.1598 -0.1917
40480W        W83574  29.712  24.304  19.290  0.1479 -0.0538  0.0619
40481W        W83575  31.918  23.254  16.603  0.0959 -0.1646 -0.1804
40482W        W83576  31.244  24.399  16.196  0.2210 -0.2845 -0.4674
40483W        W83577  31.439  25.590  18.258 -0.3116  0.2508  0.2055
40484W        W83578  29.777  22.986  19.377  0.1971 -0.0851  0.0122
40485W        W83579  32.471  25.350  18.230  0.2586 -0.2150 -0.1090
40486W        W83580  31.867  23.675  18.835  0.0900 -0.2027  0.1241
40487W        W83581  31.732  24.130  18.575 -0.3330  0.1761 -0.0958
40488W        W83582  32.179  23.522  19.543 -0.0109  0.0504 -0.1848
40489W        W83583  29.186  22.913  19.379  0.0176 -0.2113 -0.0063
40490W        W83584  27.983  22.655  19.482 -0.0408  0.0984 -0.0620
40491W        W83585  31.797  25.093  18.805 -0.1867 -0.0548 -0.1085
40492W        W83586  31.469  23.089  16.301  0.1263 -0.2688 -0.2895
40493W        W83587  32.635  22.579  18.681  0.4951  0.1411 -0.0713
40494W        W83588  31.649  24.207  17.602 -0.2365  0.0769  0.0306
40495W        W83589  30.798  23.321  18.098  0.0226 -0.3352  0.1591
40496W        W83590  29.208  24.502  16.429 -0.1288 -0.1975  0.0900
40497W        W83591  32.867  22.866  20.653  0.1409  0.0875 -0.2343
40498W        W83592  30.228  23.016  16.829  0.3507  0.1287  0.0980
40499W        W83593  31.566  22.192  18.568  0.2481 -0.2794 -0.0771
40500W        W83594  30.925  25.243  16.667 -0.1886  0.3456  0.1348
40501W        W83595  33.056  25.786  18.084  0.1803  0.0059  0.1515
40502W        W83596  31.986  23.569  17.047 -0.1039  0.0563  0.1060
40503W        W83597  29.861  23.498  18.286  0.0044 -0.2472 -0.0300
40504W        W83598  29.525  24.370  19.734  0.1113  0.1874  0.0265
40505W        W83599  29.014  23.698  18.465  0.3438 -0.2963 -0.1624
40506W        W83600  30.800  24.263  16.529  0.1688  0.1729  0.0873
40507W        W83601  30.957  24.902  18.179  0.1425 -0.0575  0.3362
40508W        W83602  33.258  24.634  20.539  0.0262 -0.2010  0.0391
40509W        W83603  30.712  22.359  16.940 -0.0481  0.0239 -0.0143
40510W        W83604  32.260  22.898  19.749 -0.0346 -0.0347 -0.2636
40511W        W83605  29.375  24.685  16.921 -0.2714  0.0227 -0.3175
40512W        W83606  32.132  22.023  17.829 -0.2237 -0.4145  0.0363
40513W        W83607  31.132  25.483  19.656  0.1824  0.0135  0.1134
40514W        W83608  29.191  23.517  20.049 -0.1064  0.0258 -0.0026
40515W        W83609  30.088  24.864  16.365 -0.3147 -0.1010  0.1935
40516W        W83610  32.431  21.270  18.902  0.3388 -0.3560 -0.0398
40517W        W83611  30.789  24.295  18.156 -0.0703 -0.1664  0.1497
40518W        W83612  29.868  24.110  18.362 -0.2456 -0.1058 -0.1397
40519W        W83613  32.843  22.268  19.573  0.0326  0.3180  0.2438
40520W        W83614  31.100  24.716  20.260 -0.0204  0.0661  0.1446
40521W        W83615  30.098  23.458  17.871 -0.1792  0.0034 -0.1472
40522W        W83616  30.553  24.173  19.349  0.0081 -0.0535  0.0802
40523W        W83617  32.372  26.282  18.216 -0.0438 -0.1295  0.0253
40524W        W83618  29.133  24.369  19.222  0.2439  0.0244 -0.1339
40525W        W83619  29.497  22.615  19.602  0.3511  0.1383  0.2005
40526W        W83620  31.257  25.306  21.331 -0.2972 -0.2249 -0.2849
40527W        W83621  32.798  24.980  17.850  0.0516  0.2833  0.0685
40528W        W83622  29.394  21.521  17.777  0.0329  0.1150  0.1752
40529W        W83623  30.634  25.094  17.091  0.1363 -0.0365  0.1130
40530W        W83624  29.538  23.810  20.130  0.0434  0.0942  0.4641
40531W        W83625  29.220  23.995  19.671 -0.1004  0.2376  0.2441
40532W        W83626  30.589  25.526  16.923 -0.1659  0.1126  0.0101
40533W        W83627  32.910  25.054  16.959  0.0487  0.3448 -0.3712
40534W        W83628  30.808  24.111  17.659  0.0618  0.0139 -0.2165
40535W        W83629  31.675  25.731  17.850  0.2268 -0.1160 -0.0406
40536W        W83630  30.245  23.503  16.100 -0.3141 -0.3106 -0.1874
40537W        W83631  31.492  24.918  19.545 -0.1828 -0.1386 -0.3382
40538W        W83632  28.249  25.486  16.751 -0.1527 -0.1535 -0.1918
40539W        W83633  31.207  24.341  17.332 -0.0016 -0.0531 -0.3270
40540W        W83634  29.305  24.742  17.492  0.0354  0.1634  0.2863
40541W        W83635  32.033  24.434  20.108  0.3544 -0.0351  0.0838
40542W        W83636  31.334  21.823  16.290  0.2142 -0.3293 -0.0545
40543W        W83637  32.226  24.467  17.014  0.0594  0.1460 -0.0502
40544W        W83638  32.540  22.167  16.710  0.0612 -0.0122 -0.2930
40545W        W83639  32.709  25.233  19.967 -0.3667  0.0377  0.2788
40546W        W83640  29.829  22.252  18.761 -0.1612  0.1670  0.0902
40547W        W83641  30.567  22.802  17.321  0.0250  0.0606 -0.0671
40548W        W83642  28.931  25.107  19.961  0.3617  0.0975  0.0745
40549W        W83643  32.523  22.141  20.717 -0.1817 -0.0614  0.0499
40550W        W83644  27.957  26.219  20.371  0.1793  0.1571  0.2679
40551W        W83645  31.501  24.559  16.697 -0.3377 -0.2133 -0.2986
40552W        W83646  29.674  23.267  17.428  0.0719  0.2028 -0.0601
40553W        W83647  30.101  24.710  19.203 -0.1614  0.1981  0.0737
40554W        W83648  33.827  20.757  18.553  0.1321 -0.0099 -0.0179
40555W        W83649  31.126  25.060  17.132  0.0972  0.0023 -0.1411
40556W        W83650  30.781  23.807  18.090  0.0707 -0.1671 -0.0399
40557W        W83651  32.197  25.656  17.767  0.5827 -0.0022  0.1227
40558W        W83652  29.647  24.147  17.228 -0.0467  0.2074  0.1027
40559W        W83653  32.336  25.195  17.812 -0.0853 -0.0335  0.3507
40560W        W83654  28.619  21.920  17.491  0.0114  0.1012  0.4428
40561W        W83655  32.202  22.608  16.872  0.0976  0.0680  0.0998
40562W        W83656  30.082  23.930  19.224 -0.0910 -0.1273  0.3688
40563W        W83657  32.632  21.594  19.885  0.1755  0.0575 -0.0483
40564W        W83658  30.093  23.768  18.701 -0.0003 -0.1013  0.1071
40565W        W83659  33.108  23.134  17.717  0.1535 -0.1278  0.1929
40566W        W83660  31.185  24.518  19.308 -0.2490  0.1032 -0.1564
40567W        W83661  28.801  22.536  18.451 -0.5907 -0.0632  0.3965
40568W        W83662  30.732  24.238  17.132  0.1283  0.0544  0.1201
40569W        W83663  31.233  24.058  19.602  0.1660  0.1183  0.2485
40570W        W83664  30.711  22.826  16.857 -0.1495  0.2121 -0.2903
40571W        W83665  32.463  24.605  19.957  0.1565  0.2942  0.0473
40572W        W83666  30.788  23.772  18.649 -0.0807  0.4092  0.0235
40573W        W83667  32.327  21.942  17.114  0.0803  0.1114  0.0807
40574W        W83668  30.514  23.316  18.686  0.1294 -0.3245 -0.0109
40575W        W83669  28.828  22.190  18.024  0.1147  0.1631 -0.0095
40576W        W83670  33.021  23.891  19.260  0.1007 -0.0205  0.0200
40577W        W83671  28.863  21.168  17.799  0.1849  0.2146  0.1978
40578W        W83672  32.165  25.437  16.108 -0.4151  0.4926 -0.1427
40579W        W83673  31.383  25.102  18.572 -0.0608  0.0910 -0.0033
40580W        W83674  31.072  25.854  16.944 -0.1340  0.0171  0.0762
40581W        W83675  31.936  23.738  17.585  0.2138 -0.1402 -0.4427
40582W        W83676  32.786  26.657  17.959 -0.0552  0.3324  0.2107
40583W        W83677  30.092  22.445  16.948 -0.0793  0.0267  0.2105
40584W        W83678  32.116  25.855  18.243 -0.2128 -0.1871  0.1066
40585W        W83679  32.039  24.803  17.975  0.0978  0.3088  0.2455
40586W        W83680  29.980  21.829  16.376 -0.0951 -0.2999 -0.0553
40587W        W83681  29.447  23.142  18.995  0.1302 -0.1814 -0.2430
40588W        W83682  28.672  24.908  17.448 -0.0523  0.2698  0.2918
40589W        W83683  33.092  23.310  17.279 -0.1831  0.1817 -0.0856
40590W        W83684  31.364  23.805  18.771  0.0433 -0.3640  0.0299
40591W        W83685  30.460  24.812  15.719 -0.1929  0.1755 -0.0020
40592W        W83686  32.574  21.908  18.192  0.1907  0.1193  0.1941
40593W        W83687  30.126  25.008  18.446  0.1699 -0.3557  0.0794
40594W        W83688  30.274  23.773  20.465  0.3805  0.2533  0.2274
40595W        W83689  32.032  25.303  16.994  0.1000 -0.4260  0.1580
40596W        W83690  29.458  23.470  19.496 -0.1797 -0.0214  0.3338
40597W        W83691  30.405  24.636  19.619 -0.1711  0.1765  0.5411
40598W        W83692  31.512  26.452  17.078  0.0604  0.0017  0.3167
40599W        W83693  33.967  25.329  19.243 -0.1853  0.1527 -0.0657
40600W        W83694  31.802  22.340  18.113  0.1571 -0.0796  0.1261
40601W        W83695  33.177  25.385  18.751 -0.2308  0.1074 -0.3208
40602W        W83696  30.366  21.925  18.069  0.0695  0.2734 -0.1859
40603W        W83697  32.563  22.297  17.742 -0.1165 -0.3400 -0.5698
40604W        W83698  31.068  24.614  16.919 -0.0680 -0.1350 -0.0157
40605W        W83699  29.740  23.904  19.615  0.0459  0.0154  0.1980
40606W        W83700  29.150  23.060  17.574  0.1538  0.0323 -0.2043
40607W        W83701  30.547  24.605  16.813  0.0894 -0.0374  0.1350
40608W        W83702  31.406  23.753  17.659  0.0151 -0.0196 -0.1002
40609W        W83703  31.114  22.132  18.502 -0.0176  0.0468 -0.2282
40610W        W83704  28.347  23.214  20.450  0.0527 -0.2161  0.2736
40611W        W83705  29.247  24.209  17.927 -0.1091 -0.2296  0.1746
40612W        W83706  30.069  22.926  17.806 -0.0338 -0.2240 -0.2100
40613W        W83707  32.323  25.258  16.584  0.1363 -0.2169  0.0338
40614W        W83708  30.073  22.536  18.383  0.0370  0.2036  0.0784
40615W        W83709  28.883  22.483  17.567 -0.1761  0.2317  0.0538
40616W        W83710  31.879  25.255  17.618  0.0469 -0.1786 -0.2275
40617W        W83711  32.684  25.970  16.929  0.1264  0.0602  0.1777
40618W        W83712  31.410  23.028  17.621  0.1517 -0.3757  0.1373
40619W        W83713  32.632  23.800  19.941  0.1554 -0.2285  0.1792
40620W        W83714  28.779  23.812  16.271 -0.0801  0.3585 -0.2999
40621W        W83715  31.350  22.977  20.819 -0.0116  0.0208  0.3529
40622W        W83716  30.270  22.167  19.597 -0.1003 -0.1287 -0.0548
40623W        W83717  28.497  20.720  16.309 -0.1210 -0.1508 -0.2113
40624W        W83718  30.894  22.731  19.475  0.2625 -0.0697  0.0760
40625W        W83719  31.065  26.941  17.455  0.0738  0.0106 -0.0348
40626W        W83720  32.605  25.495  16.914 -0.1189 -0.1047 -0.2813
40627W        W83721  30.543  23.720  19.073  0.1385 -0.0221 -0.0148
40628W        W83722  30.112  24.153  19.646 -0.1657  0.0074 -0.2455
40629W        W83723  27.813  22.750  18.059  0.2444  0.0090  0.0263
40630W        W83724  31.702  24.557  17.140 -0.6005  0.1254 -0.2314
40631W        W83725  30.750  25.013  20.474 -0.2217  0.0127 -0.1591
40632W        W83726  32.414  24.971  16.993  0.1109 -0.3742 -0.0801
40633W        W83727  32.481  23.605  17.145 -0.1993  0.2264 -0.1066
40634W        W83728  31.170  24.548  17.813 -0.3433 -0.0185  0.1469
40635W        W83729  29.446  21.854  20.991 -0.0997 -0.1223  0.0098
40636W        W83730  29.698  23.365  20.087 -0.1854  0.1030 -0.0196
40637W        W83731  31.920  25.404  18.137  0.0642 -0.1007  0.0636
40638W        W83732  30.671  21.967  17.647 -0.1030  0.1092  0.0947
40639W        W83733  32.334  22.768  17.405  0.0478 -0.3750 -0.1997
40640W        W83734  32.104  25.041  18.417 -0.2958  0.1595  0.1956
40641W        W83735  28.453  22.898  18.593  0.4948 -0.1694 -0.0872
40642W        W83736  31.254  23.548  18.071 -0.1188  0.1158 -0.0766
40643W        W83737  31.127  23.393  18.499  0.1783 -0.0524 -0.0169
40644W        W83738  31.666  24.684  18.539  0.0333 -0.2584  0.3631
40645W        W83739  30.558  23.922  19.951  0.0297  0.1857  0.2761
40646W        W83740  31.630  22.970  16.983  0.0613  0.1919 -0.0727
40647W        W83741  33.056  24.571  17.751 -0.0122  0.3674 -0.0547
40648W        W83742  31.915  26.350  19.383 -0.0922  0.3289  0.3054
40649W        W83743  32.722  24.260  19.330  0.1968 -0.1119 -0.1501
40650W        W83744  30.700  25.196  18.565  0.0262 -0.1704 -0.2346
40651W        W83745  31.609  23.401  17.401 -0.0092 -0.1590  0.1386
40652W        W83746  30.391  21.102  17.459  0.0455  0.3202  0.1100
40653W        W83747  30.916  25.498  17.252 -0.1270 -0.0533  0.1919
40654W        W83748  30.333  23.941  17.893 -0.1144 -0.0764 -0.0849
40655W        W83749  31.273  23.097  19.255 -0.0492  0.2427 -0.3717
40656W        W83750  28.938  23.145  18.650  0.0294 -0.0803  0.1568
40657W        W83751  30.078  22.999  16.345 -0.0225  0.2256 -0.1044
40658W        W83752  31.329  24.383  18.872 -0.0715 -0.1638  0.4104
40659W        W83753  31.654  25.082  17.164  0.1512  0.1704  0.0052
40660W        W83754  30.231  24.301  23.235 -0.3197  0.0682  0.0615
40661W        W83755  29.656  23.760  21.347  0.0033  0.0453 -0.1659
40662W        W83756  30.197  23.299  19.178 -0.2811 -0.3173  0.0650
40663W        W83757  33.827  22.956  20.501  0.3297 -0.0600  0.3335
40664W        W83758  29.540  24.270  22.787  0.0215 -0.2726  0.1332
40665W        W83759  31.147  25.879  21.596  0.3939  0.1075 -0.1420
40666W        W83760  30.394  21.770  21.969  0.1351 -0.1010  0.0991
40667W        W83761  31.455  24.465  20.914  0.1319  0.0340 -0.1248
40668W        W83762  32.552  23.952  22.290  0.2723 -0.1228  0.0863
40669W        W83763  31.271  24.552  19.814  0.1907  0.0070 -0.0246
40670W        W83764  32.248  23.892  23.320  0.1394 -0.0515  0.0612
40671W        W83765  29.789  25.012  23.911  0.0586 -0.0668  0.4753
40672W        W83766  31.332  21.918  21.708 -0.2600  0.1114 -0.2578
40673W        W83767  29.140  22.427  21.621 -0.1942  0.2577  0.0368
40674W        W83768  31.118  23.430  23.029  0.3834  0.1334  0.2973
40675W        W83769  29.018  23.174  20.849  0.0319 -0.0994  0.0733
40676W        W83770  29.786  22.393  23.005 -0.0839  0.0060  0.3124
40677W        W83771  31.698  24.608  21.923  0.0448  0.0678  0.1218
40678W        W83772  30.659  23.882  24.292 -0.1561 -0.0565 -0.4174
40679W        W83773  31.329  22.224  23.014 -0.0579  0.3214 -0.0638
40680W        W83774  31.792  22.393  23.299 -0.1977  0.1215  0.0740
40681W        W83775  31.611  23.669  21.482  0.1394 -0.1671  0.0225
40682W        W83776  27.511  23.122  20.750  0.0555  0.1133 -0.1378
40683W        W83777  28.554  21.738  22.317 -0.0677 -0.1667 -0.2056
40684W        W83778  28.740  23.639  22.819  0.4170  0.1215 -0.2838
40685W        W83779  31.787  22.728  21.059  0.1376 -0.0743  0.0185
40686W        W83780  32.559  23.697  21.840  0.0533  0.1502  0.0590
40687W        W83781  30.151  26.308  22.132  0.0820 -0.2415 -0.0640
40688W        W83782  31.144  25.660  21.035 -0.0171  0.1988  0.1079
40689W        W83783  32.536  22.925  24.354 -0.1283 -0.1065  0.3082
40690W        W83784  28.088  24.391  22.582  0.2758  0.0168 -0.2365
40691W        W83785  29.394  24.667  22.503 -0.1979 -0.2310  0.2544
40692W        W83786  29.989  25.051  21.707 -0.1753  0.2451 -0.1098
40693W        W83787  32.482  24.311  21.102 -0.2520 -0.0744  0.1756
40694W        W83788  32.912  24.783  22.287  0.0010 -0.0959 -0.2193
40695W        W83789  29.137  25.695  24.196 -0.0498 -0.0060 -0.1876
40696W        W83790  28.545  25.718  19.244 -0.0887 -0.0489  0.0652
40697W        W83791  31.217  25.469  22.818  0.2127  0.0290 -0.0144
40698W        W83792  29.133  26.090  23.894  0.0738  0.1867 -0.1872
40699W        W83793  32.777  23.021  23.844  0.1578  0.3491  0.0433
40700W        W83794  32.061  24.247  22.711  0.1230 -0.3144  0.0497
40701W        W83795  30.804  24.365  19.756  0.1349 -0.0365 -0.5840
40702W        W83796  30.194  24.388  21.687  0.1936 -0.0541  0.2492
40703W        W83797  30.062  24.610  24.095 -0.2032  0.1078  0.0947
40704W        W83798  28.479  24.238  23.188 -0.4185 -0.1483  0.1101
40705W        W83799  33.817  23.055  23.354  0.2297 -0.0589  0.0259
40706W        W83800  29.293  25.953  20.715  0.1883  0.3260 -0.0333
40707W        W83801  32.450  23.073  21.140  0.1056 -0.3289 -0.2869
40708W        W83802  30.209  22.258  20.674 -0.2638  0.1196 -0.3072
40709W        W83803  32.516  22.336  21.676 -0.1319  0.0070 -0.2274
40710W        W83804  31.588  23.917  20.945 -0.0586  0.3152 -0.2114
40711W        W83805  30.219  25.004  22.580  0.1294  0.1482 -0.1939
40712W        W83806  31.035  24.247  21.123  0.2265 -0.3494  0.1456
40713W        W83807  32.094  24.881  23.876 -0.1650 -0.1497  0.1238
40714W        W83808  31.118  23.388  20.564 -0.0009  0.0709  0.1837
40715W        W83809  33.145  23.124  22.622  0.1333  0.0151 -0.0547
40716W        W83810  29.786  25.097  23.185 -0.0955 -0.2858 -0.0068
40717W        W83811  28.924  24.183  22.271  0.1271  0.1746  0.0353
40718W        W83812  31.568  25.505  20.775  0.1495 -0.2143  0.2875
40719W        W83813  33.837  24.797  19.830  0.0133  0.0140  0.1424
40720W        W83814  31.373  24.872  20.628 -0.0415  0.2059 -0.0821
40721W        W83815  29.012  23.653  22.106  0.1075 -0.0101  0.5498
40722W        W83816  29.955  22.885  23.076  0.1807 -0.0006 -0.0944
40723W        W83817  29.725  23.738  22.662  0.4079 -0.0929 -0.2783
40724W        W83818  29.831  21.337  20.266 -0.0573 -0.3003  0.0836
40725W        W83819  32.686  25.454  22.972  0.1028  0.0223  0.2082
40726W        W83820  29.872  23.731  23.534 -0.2415  0.0524  0.0041
40727W        W83821  32.315  21.982  21.333 -0.4033 -0.1249 -0.1299
40728W        W83822  30.953  25.141  20.946  0.0591 -0.0628 -0.0727
40729W        W83823  34.040  25.028  22.882  0.2568  0.1013  0.1041
40730W        W83824  31.460  23.600  19.746 -0.0724  0.1165  0.0287
40731W        W83825  32.627  21.746  21.019  0.1572 -0.1310  0.0023
40732W        W83826  30.853  20.219  22.558 -0.1869  0.0151 -0.0306
40733W        W83827  30.106  23.146  20.332  0.2824  0.1397  0.0609
40734W        W83828  29.732  24.136  21.823 -0.2412  0.0476 -0.0683
40735W        W83829  33.108  24.493  21.851 -0.0269  0.2505 -0.1354
40736W        W83830  32.996  24.262  20.277  0.0743  0.1144 -0.2010
40737W        W83831  27.772  24.796  23.489 -0.0104  0.2369  0.0101
40738W        W83832  30.766  23.645  22.595  0.1541 -0.1250  0.1965
40739W        W83833  30.739  25.378  24.248  0.1309 -0.1839 -0.1273
40740W        W83834  27.584  24.836  22.007  0.2005 -0.1770  0.0115
40741W        W83835  27.572  23.869  23.214  0.1522 -0.0905 -0.0612
40742W        W83836  29.028  23.692  20.971  0.0946  0.2434  0.2434
40743W        W83837  29.061  21.588  22.406  0.2541 -0.0488  0.0258
40744W        W83838  31.807  23.427  23.786 -0.1005 -0.0266 -0.2009
40745W        W83839  32.505  20.798  20.622 -0.2202  0.1746  0.1590
40746W        W83840  29.881  21.883  22.697 -0.0288 -0.1135 -0.1072
40747W        W83841  32.089  22.444  22.125 -0.0728 -0.2816  0.1930
40748W        W83842  29.625  24.112  20.572 -0.2087  0.1806  0.1477
40749W        W83843  33.704  25.258  20.908  0.1862  0.1865 -0.0940
40750W        W83844  33.263  23.201  20.502  0.0227  0.1600  0.0170
40751W        W83845  31.759  24.827  19.986  0.0165  0.2292 -0.0859
40752W        W83846  30.231  23.917  21.850 -0.2049 -0.3474  0.0521
40753W        W83847  32.026  23.622  20.650 -0.1792 -0.1141 -0.1647
40754W        W83848  30.280  22.052  24.486 -0.1647 -0.3171  0.1656
40755W        W83849  29.292  24.503  21.978 -0.2456  0.5490  0.0076
40756W        W83850  32.752  23.795  24.360  0.3458  0.1674  0.1084
40757W        W83851  28.145  23.354  19.960  0.2245  0.0352  0.3099
40758W        W83852  32.518  23.189  21.991  0.0321 -0.0561 -0.1095
40759W        W83853  31.069  25.179  22.374  0.0884  0.1576 -0.0606
40760W        W83854  28.973  24.318  20.737 -0.1723  0.1075 -0.1550
40761W        W83855  31.341  23.029  22.756 -0.0765  0.1162 -0.0881
40762W        W83856  30.747  26.179  22.088 -0.0095 -0.1598  0.0665
40763W        W83857  33.037  25.624  24.003  0.2663 -0.0850 -0.1131
40764W        W83858  30.403  25.225  22.160  0.0356 -0.2215  0.1341
40765W        W83859  31.253  22.916  21.810  0.0634 -0.0582 -0.2170
40766W        W83860  29.948  22.724  20.644  0.2519 -0.2235  0.3237
40767W        W83861  29.183  26.634  22.549  0.3172  0.1920 -0.2404
40768W        W83862  31.777  25.216  23.586  0.1270 -0.2225 -0.1328
40769W        W83863  32.334  23.482  19.057  0.1411  0.1794  0.2798
40770W        W83864  31.364  25.508  21.910  0.0075 -0.5535  0.3171
40771W        W83865  31.907  24.745  22.573 -0.0658  0.1820 -0.3039
40772W        W83866  29.447  23.465  23.584 -0.2857 -0.2215  0.0911
40773W        W83867  32.006  21.904  22.542  0.0452 -0.2862  0.1325
40774W        W83868  32.908  23.529  23.781  0.0769  0.2508 -0.0289
40775W        W83869  31.311  24.070  22.743 -0.2900  0.1524 -0.0371
40776W        W83870  31.852  23.215  19.930 -0.0900 -0.0243  0.1062
40777W        W83871  31.485  25.922  21.251  0.0779 -0.1670 -0.2261
40778W        W83872  28.270  25.302  21.477 -0.2691 -0.0734 -0.2348
40779W        W83873  28.531  22.181  22.103  0.3302  0.0497  0.1639
40780W        W83874  29.625  24.920  21.231  0.0921 -0.0105  0.0126
40781W        W83875  32.836  22.234  22.245 -0.1385  0.1511  0.0743
40782W        W83876  29.732  24.122  24.130  0.0669  0.2489  0.0893
40783W        W83877  31.763  22.419  24.217 -0.0581  0.3669  0.2226
40784W        W83878  29.436  22.974  21.070  0.1674 -0.2027 -0.0285
40785W        W83879  30.263  23.472  23.809 -0.0843 -0.0969  0.2326
40786W        W83880  31.841  22.195  21.317  0.1539 -0.0174  0.0644
40787W        W83881  33.180  21.806  21.475  0.1250  0.0314 -0.1752
40788W        W83882  30.314  24.873  23.153  0.2410  0.1301 -0.1900
40789W        W83883  32.784  25.197  21.499 -0.0157 -0.0920 -0.1909
40790W        W83884  31.536  21.895  19.766 -0.1510 -0.2602 -0.0851
40791W        W83885  30.366  22.671  20.317  0.0115  0.2083  0.0844
40792W        W83886  30.631  24.964  24.575  0.1780  0.0706 -0.1459
40793W        W83887  30.633  24.778  22.364  0.1403  0.0081  0.2287
40794W        W83888  32.208  23.497  22.228 -0.0502 -0.0886 -0.2007
40795W        W83889  30.747  22.949  19.973 -0.0335 -0.1650 -0.0018
40796W        W83890  32.939  24.566  20.926 -0.1903 -0.1072 -0.0748
40797W        W83891  29.124  23.212  22.295  0.0676 -0.1536  0.0870
40798W        W83892  31.104  24.079  24.039 -0.1882 -0.0732  0.4578
40799W        W83893  30.665  25.835  21.728 -0.2093  0.3603 -0.2150
40800W        W83894  30.796  23.103  21.716 -0.2564 -0.2407  0.1272
40801W        W83895  29.950  23.289  18.730  0.2104 -0.0335  0.1716
40802W        W83896  28.806  23.387  20.361 -0.3391  0.2106 -0.0572
40803W        W83897  29.012  25.573  21.158  0.0690  0.2825 -0.1421
40804W        W83898  31.601  23.436  20.869  0.2741  0.0314 -0.1224
40805W        W83899  30.633  23.513  21.424  0.2061 -0.1509  0.1991
40806W        W83900  30.467  21.199  23.022 -0.1197  0.2273  0.0898
40807W        W83901  32.760  24.444  23.805 -0.2289 -0.1308  0.0306
40808W        W83902  32.424  23.281  20.010 -0.3034  0.0502  0.0221
40809W        W83903  30.571  23.998  22.954  0.0863  0.2331  0.0708
40810W        W83904  30.705  22.374  20.838 -0.3101 -0.0082 -0.1080
40811W        W83905  30.888  20.780  23.428  0.5196 -0.0688  0.1119
40812W        W83906  30.894  23.869  23.273  0.2413 -0.0438 -0.2968
40813W        W83907  29.324  24.855  23.009 -0.1173 -0.1692  0.0842
40814W        W83908  30.090  24.680  23.612 -0.0560 -0.1598  0.1964
40815W        W83909  31.481  24.473  21.414  0.4393 -0.1117 -0.2180
40816W        W83910  30.987  22.635  22.864 -0.2090  0.0852 -0.1021
40817W        W83911  30.698  21.555  21.124  0.2729  0.0037  0.0338
40818W        W83912  29.920  25.575  21.849  0.1535  0.1767  0.0240
40819W        W83913  29.204  25.126  20.909 -0.2340  0.3997  0.0091
40820W        W83914  31.219  21.804  22.796  0.0345 -0.0781  0.0416
40821W        W83915  30.698  25.223  22.723  0.1144 -0.0101  0.0584
40822W        W83916  30.621  23.254  20.557 -0.0745 -0.6447 -0.0386
40823W        W83917  31.135  23.246  24.799 -0.5974  0.0647  0.1454
40824W        W83918  29.676  25.529  20.890  0.0359  0.0463 -0.2878
40825W        W83919  31.703  22.797  22.261 -0.1989 -0.3874  0.0454
40826W        W83920  29.562  25.205  22.745  0.0255  0.0171 -0.1309
40827W        W83921  29.195  23.076  20.287 -0.2144  0.1447 -0.1080
40828W        W83922  28.448  22.902  21.460  0.1822 -0.0810 -0.1703
40829W        W83923  31.505  23.672  22.145  0.1582  0.0805  0.1992
40830W        W83924  32.274  24.437  20.609  0.3504 -0.0158 -0.1969
40831W        W83925  30.339  23.311  21.855  0.0161  0.2355 -0.0928
40832W        W83926  29.551  22.201  21.415 -0.0478 -0.1937  0.2739
40833W        W83927  29.418  25.533  22.368 -0.2108 -0.0011  0.0349
40834W        W83928  31.253  23.699  23.684  0.1610  0.1951 -0.2609
40835W        W83929  30.597  23.157  19.552 -0.0884 -0.3403 -0.2229
40836W        W83930  32.625  24.076  22.915  0.1753  0.1860 -0.0382
40837W        W83931  31.453  24.277  24.344  0.2687 -0.0106 -0.0074
40838W        W83932  27.422  22.596  21.158  0.2149 -0.0756 -0.0966
40839W        W83933  32.838  22.275  22.801 -0.0882 -0.0511 -0.1297
40840W        W83934  28.588  23.668  22.318  0.1638 -0.1396  0.0290
40841W        W83935  28.402  24.313  21.467 -0.2138 -0.2638 -0.1961
40842W        W83936  30.879  26.373  21.595  0.0986  0.2291 -0.1437
40843W        W83937  29.810  23.574  20.526 -0.0991 -0.1899 -0.3746
40844W        W83938  29.915  24.903  22.224  0.1976  0.1254  0.1891
40845W        W83939  30.272  21.920  23.011  0.0229  0.0771 -0.2310
40846W        W83940  31.959  23.500  24.242 -0.0927  0.2859 -0.1544
40847W        W83941  30.485  24.166  22.493 -0.0596  0.4933  0.0584
40848W        W83942  30.130  22.789  21.660  0.2303 -0.1033 -0.3203
40849W        W83943  31.820  24.088  20.499 -0.3801 -0.4725  0.0098
40850W        W83944  32.188  23.776  23.817  0.0118  0.0231 -0.1217
40851W        W83945  30.731  23.910  21.763  0.1170  0.2329  0.0292
40852W        W83946  31.042  25.032  24.149  0.0905 -0.1198  0.1626
40853W        W83947  30.492  21.954  20.981 -0.2916 -0.1753  0.2400
40854W        W83948  33.937  25.126  20.175  0.1191  0.3662 -0.2542
40855W        W83949  32.611  23.391  24.604  0.2129  0.2156 -0.0165
40856W        W83950  30.085  24.210  20.667 -0.2983  0.0061 -0.1200
40857W        W83951  28.409  24.105  22.195 -0.0525  0.2981 -0.1213
40858W        W83952  28.517  23.198  22.221 -0.3580  0.2431  0.1211
40859W        W83953  31.437  22.552  22.659 -0.1289 -0.0014 -0.4552
40860W        W83954  29.731  24.561  23.220 -0.3652  0.2735 -0.1865
40861W        W83955  28.612  25.044  21.714  0.2626  0.0042  0.2393
40862W        W83956  29.437  23.819  23.084 -0.2599  0.0263  0.2027
40863W        W83957  32.157  22.356  20.978  0.3291  0.0885 -0.1561
40864W        W83958  30.458  24.823  21.796 -0.1241 -0.0618 -0.0523
40865W        W83959  30.129  23.739  21.421  0.0368 -0.1563 -0.1145
40866W        W83960  33.101  23.726  22.474 -0.1731 -0.2723  0.1630
40867W        W83961  30.989  24.007  19.134 -0.1436  0.3847  0.1381
40868W        W83962  31.757  23.291  22.394  0.0891  0.1611  0.0834
40869W        W83963  30.357  23.209  22.605  0.1948 -0.0016 -0.2341
40870W        W83964  32.012  25.671  20.446 -0.0870  0.0180 -0.0326
40871W        W83965  29.852  23.209  22.711 -0.0443 -0.1706  0.2781
40872W        W83966  31.259  25.863  23.102 -0.0305 -0.0190 -0.0446
40873W        W83967  30.191  22.299  22.630 -0.1451 -0.2457  0.0377
40874W        W83968  31.099  23.719  21.164 -0.0248  0.0638 -0.0689
40875W        W83969  30.050  21.937  21.141  0.0999  0.1260 -0.0889
40876W        W83970  30.716  24.597  23.233  0.0138  0.2605  0.2188
40877W        W83971  30.704  24.368  22.086  0.0711 -0.1247  0.0551
40878W        W83972  30.938  25.275  21.702  0.3183  0.2082  0.0521
40879W        W83973  33.637  22.055  22.599  0.0982 -0.1740  0.1935
40880W        W83974  30.718  23.839  23.718 -0.4035 -0.2469 -0.1352
40881W        W83975  31.637  24.093  21.819 -0.3079 -0.1126  0.0182
40882W        W83976  31.663  23.104  20.516  0.3643  0.0447  0.0045
40883W        W83977  28.843  23.797  21.587  0.2662  0.1502  0.1288
40884W        W83978  30.034  22.277  21.584  0.2092  0.1003 -0.1707
40885W        W83979  32.270  25.216  21.373 -0.1902  0.1265  0.0017
40886W        W83980  31.676  22.700  21.641 -0.1512  0.1214  0.2445
40887W        W83981  31.454  22.416  20.875 -0.2451 -0.2508  0.0706
40888W        W83982  30.931  24.403  22.553 -0.1100  0.2761 -0.2724
40889W        W83983  32.225  23.089  24.775  0.2197 -0.0588 -0.0909
40890W        W83984  31.020  22.242  22.583 -0.0274 -0.0800 -0.0110
40891W        W83985  32.547  24.824  23.620  0.0030 -0.1625 -0.3204
40892W        W83986  32.186  23.107  19.323  0.1270 -0.1849  0.3606
40893W        W83987  33.523  24.050  22.147  0.3430 -0.0837  0.0107
40894W        W83988  32.946  23.438  20.863  0.2336  0.1561  0.0921
40895W        W83989  32.464  23.180  20.637 -0.0108  0.1132 -0.2146
40896W        W83990  29.495  22.812  22.303 -0.0468 -0.2558  0.2018
40897W        W83991  31.121  24.742  23.500  0.4074  0.0710 -0.0065
40898W        W83992  31.169  23.968  21.581  0.0353  0.1051 -0.0189
40899W        W83993  30.839  23.157  22.623 -0.0196 -0.0780  0.0582
40900W        W83994  31.043  24.763  21.246  0.1273  0.2125  0.0723
40901W        W83995  32.446  24.519  22.343 -0.1276 -0.1394 -0.3554
40902W        W83996  31.766  23.178  21.335 -0.1876  0.2123 -0.0979
40903W        W83997  30.055  23.439  22.286  0.1583 -0.0158  0.2418
40904W        W83998  29.453  24.842  23.508  0.1608 -0.0431  0.3567
40905W        W83999  28.742  22.881  20.406 -0.0695 -0.1982 -0.0423
40906W        W84000  29.677  23.100  20.578  0.1256  0.0167  0.1628
40907W        W84001  32.940  24.281  22.544  0.0527  0.2116  0.1166
40908W        W84002  32.804  24.648  22.851 -0.0128 -0.1464 -0.1820
40909W        W84003  30.533  22.501  19.823  0.2086 -0.2328 -0.1147
40910W        W84004  33.615  22.446  23.932 -0.2423 -0.5212  0.2082
40911W        W84005  30.353  25.463  21.669 -0.0402 -0.0909 -0.0620
40912W        W84006  31.324  22.687  21.306 -0.3439 -0.0189 -0.2679
40913W        W84007  29.805  24.723  22.733 -0.0916  0.0747  0.1645
40914W        W84008  28.044  25.089  22.771  0.0758 -0.1781  0.0588
40915W        W84009  29.354  24.043  22.187 -0.1221  0.0095 -0.1090
40916W        W84010  30.468  23.559  20.955  0.4231 -0.0471 -0.0064
40917W        W84011  32.324  23.938  21.461  0.0101 -0.2388 -0.2923
40918W        W84012  30.749  24.459  21.556 -0.0804  0.0046  0.3932
40919W        W84013  32.229  23.323  21.538 -0.3642 -0.1503 -0.1704
40920W        W84014  30.851  24.312  23.666  0.0135  0.0240  0.3915
40921W        W84015  28.545  24.647  22.116 -0.3078  0.1051  0.1197
40922W        W84016  31.931  24.318  23.503 -0.0771 -0.1250  0.3881
40923W        W84017  32.718  24.179  20.669 -0.0939 -0.2412  0.1002
40924W        W84018  29.895  23.936  22.256  0.0266 -0.0413 -0.0808
40925W        W84019  29.419  22.163  23.984 -0.0132 -0.3231 -0.2083
40926W        W84020  31.853  25.555  25.884 -0.1180  0.1182  0.0255
40927W        W84021  31.400  24.231  23.648 -0.0759 -0.1227  0.4069
40928W        W84022  29.753  22.542  22.013  0.1128 -0.3144  0.2714
40929W        W84023  30.487  25.029  21.313 -0.0489  0.5032  0.1793
40930W        W84024  29.325  24.057  23.833  0.3529  0.1141  0.1739
40931W        W84025  28.832  24.870  24.037  0.0148  0.0844 -0.0340
40932W        W84026  28.932  24.711  19.598  0.4139  0.2203 -0.2312
40933W        W84027  30.977  24.563  20.697 -0.1388 -0.0463  0.0339
40934W        W84028  32.510  24.211  20.231 -0.3367  0.1799 -0.1253
40935W        W84029  31.796  25.715  22.007 -0.1350  0.0538 -0.0272
40936W        W84030  30.549  24.141  20.740 -0.1834 -0.0077  0.0970
40937W        W84031  30.215  23.707  22.734  0.0673  0.0659  0.1428
40938W        W84032  28.303  23.835  21.434 -0.1310 -0.0317  0.0387
40939W        W84033  31.167  25.705  20.089 -0.0157  0.3190 -0.4270
40940W        W84034  30.482  25.962  21.264 -0.0404  0.0872 -0.1016
40941W        W84035  33.244  26.057  23.059 -0.2193 -0.0150  0.3608
40942W        W84036  31.869  22.597  18.543  0.0408  0.0501  0.0980
40943W        W84037  32.159  24.038  20.892 -0.0088  0.0360  0.4642
40944W        W84038  32.158  22.563  21.483 -0.1130  0.2146 -0.0225
40945W        W84039  31.125  25.556  24.022  0.0237 -0.2037 -0.6526
40946W        W84040  29.860  24.254  23.621 -0.1041  0.0522 -0.0627
40947W        W84041  31.502  22.258  20.284  0.1571 -0.1417  0.1693
40948W        W84042  31.065  23.512  24.090  0.1983 -0.2043 -0.0506
40949W        W84043  33.691  23.410  24.699  0.2612 -0.0094 -0.0765
40950W        W84044  30.137  25.952  23.606 -0.2635  0.3605 -0.2968
40951W        W84045  33.487  25.404  20.445  0.0158 -0.1418  0.1870
40952W        W84046  28.983  22.929  21.351  0.0008 -0.2684  0.2692
40953W        W84047  30.074  24.701  21.302  0.0904  0.0932  0.2333
40954W        W84048  33.142  22.671  23.010  0.0142 -0.3013  0.0957
40955W        W84049  30.361  24.855  20.805  0.1845  0.2310  0.2043
40956W        W84050  31.387  22.668  20.451  0.1876 -0.0423 -0.1635
40957W        W84051  31.738  24.364  23.053  0.2532 -0.0976 -0.2351
40958W        W84052  30.985  24.859  22.886 -0.0380  0.0181 -0.0009
40959W        W84053  31.520  25.510  22.385 -0.1110 -0.1641 -0.1909
40960W        W84054  29.963  22.590  19.858 -0.0372 -0.3663  0.1285
40961W        W84055  31.983  23.721  21.909 -0.2161  0.0330  0.0849
40962W        W84056  32.269  23.768  22.724  0.1379 -0.0989  0.1833
40963W        W84057  32.259  22.150  22.936 -0.1435 -0.0986  0.1454
40964W        W84058  28.792  24.737  21.368  0.0358  0.0445  0.0661
40965W        W84059  31.835  22.684  20.037 -0.1157  0.0613  0.0194
40966W        W84060  31.935  22.829  23.224 -0.0913 -0.3238  0.1101
40967W        W84061  30.855  23.395  22.140 -0.3480  0.1391  0.2852
40968W        W84062  30.165  24.200  21.210 -0.4499  0.3079  0.0650
40969W        W84063  32.496  23.472  23.445  0.0266 -0.2155  0.1595
40970W        W84064  31.535  22.907  19.611 -0.0636  0.1758  0.1988
40971W        W84065  32.227  24.645  22.946  0.2039  0.0644  0.0875
40972W        W84066  29.854  23.595  21.851 -0.0269 -0.0966  0.0451
40973W        W84067  32.145  23.907  20.080  0.1468  0.3191  0.1872
40974W        W84068  28.828  22.579  20.773 -0.1243  0.2254 -0.4605
40975W        W84069  30.568  23.390  23.016 -0.3396 -0.3336 -0.0548
40976W        W84070  32.154  25.646  23.085 -0.1230 -0.2699  0.3185
40977W        W84071  29.483  22.604  20.638  0.1269 -0.0757  0.1708
40978W        W84072  31.925  25.201  20.593  0.4314 -0.1142  0.5056
40979W        W84073  33.474  23.446  22.208  0.0901  0.1372  0.2344
40980W        W84074  29.484  25.420  21.343  0.2049  0.0296 -0.2381
40981W        W84075  31.201  24.109  20.674 -0.0051 -0.1436 -0.2558
40982W        W84076  32.024  24.279  22.214  0.0017 -0.0842 -0.2127
40983W        W84077  29.157  22.552  22.612  0.1735  0.3140  0.0670
40984W        W84078  32.566  26.044  23.074 -0.1944  0.3093 -0.1922
40985W        W84079  32.571  25.022  23.157 -0.2756  0.2510  0.2948
40986W        W84080  30.262  21.163  20.556 -0.0859  0.2068 -0.3248
40987W        W84081  31.359  24.718  22.266 -0.1194  0.0421  0.2713
40988W        W84082  29.304  27.031  20.195  0.1116  0.1977  0.0263
40989W        W84083  31.648  23.264  21.865  0.2141 -0.3526  0.2700
40990W        W84084  31.891  23.856  22.455 -0.1983 -0.0846 -0.0807
40991W        W84085  29.851  24.589  20.890 -0.1377  0.0686  0.1911
40992W        W84086  32.327  22.509  23.317 -0.0894  0.0450 -0.1232
40993W        W84087  31.628  24.688  23.665 -0.2015 -0.0766 -0.0255
40994W        W84088  29.927  25.638  24.549 -0.0296  0.0836 -0.1090
40995W        W84089  28.812  23.860  19.962  0.0751  0.1147 -0.0438
40996W        W84090  29.490  24.554  23.947 -0.4250 -0.0050 -0.0225
40997W        W84091  28.908  23.974  23.104 -0.3916  0.0198  0.3133
40998W        W84092  31.641  25.108  22.084  0.0279  0.1580  0.1291
40999W        W84093  31.226  25.160  23.173 -0.2115  0.0470 -0.1965
41000W        W84094  31.203  23.501  21.814  0.0360 -0.1625 -0.1486
41001W        W84095  32.697  24.646  20.511 -0.2216  0.3863 -0.1693
41002W        W84096  30.127  23.218  20.874 -0.2988  0.1225 -0.3541
41003W        W84097  31.806  20.776  21.584 -0.1042 -0.3068  0.1949
41004W        W84098  32.128  22.940  20.327  0.0747 -0.0143  0.5715
41005W        W84099  31.142  24.295  23.193  0.1437 -0.2779  0.1101
41006W        W84100  27.981  23.565  20.422 -0.1377 -0.0344 -0.1077
41007W        W84101  29.424  24.051  21.013 -0.0110  0.0676 -0.2614
41008W        W84102  28.828  24.630  23.155  0.2278  0.2116 -0.0538
41009W        W84103  30.679  22.139  23.454  0.1271  0.0115  0.0088
41010W        W84104  29.349  22.553  23.184  0.0468 -0.1873 -0.0723
41011W        W84105  28.937  25.469  22.133  0.0315  0.1687 -0.0606
41012W        W84106  30.116  23.686  19.988  0.1668  0.0387 -0.1735
41013W        W84107  34.042  25.434  20.641 -0.1743  0.0962 -0.0142
41014W        W84108  30.554  22.654  22.539 -0.2905 -0.0545 -0.4846
41015W        W84109  27.734  22.614  20.756  0.1845  0.1736 -0.0160
41016W        W84110  31.462  24.371  20.270 -0.0254 -0.0887  0.0669
41017W        W84111  31.812  25.263  21.113 -0.3394  0.0785 -0.2488
41018W        W84112  29.594  22.772  20.161  0.0084 -0.0767  0.1230
41019W        W84113  31.976  26.215  24.333 -0.2856  0.1032 -0.1028
41020W        W84114  28.954  24.217  21.261 -0.1898  0.0239  0.1466
41021W        W84115  31.138  22.989  23.718 -0.5253  0.1027  0.1337
41022W        W84116  30.451  22.874  23.002 -0.5221 -0.0850  0.2523
41023W        W84117  28.953  22.634  19.806  0.0165  0.0883  0.0378
41024W        W84118  31.281  23.214  22.257 -0.0370  0.1651 -0.1102
41025W        W84119  29.730  24.397  22.286  0.3902  0.0056 -0.0456
41026W        W84120  32.782  26.025  19.140 -0.0825  0.0966 -0.0611
41027W        W84121  31.875  25.501  22.713  0.0604  0.3180  0.0846
41028W        W84122  30.484  24.581  22.772 -0.1127  0.1112  0.0074
41029W        W84123  29.220  22.549  23.708  0.1968 -0.0789 -0.0657
41030W        W84124  32.572  23.770  21.052 -0.0194 -0.0781  0.1675
41031W        W84125  30.374  24.301  23.755 -0.1658  0.3569  0.0868
41032W        W84126  33.255  23.415  19.468  0.1682  0.1077  0.2136
41033W        W84127  33.022  21.492  20.646  0.0804 -0.1670  0.1843
41034W        W84128  31.845  24.117  21.364  0.0750  0.2561  0.3111
41035W        W84129  30.657  22.212  22.868 -0.0470  0.0099  0.0123
41036W        W84130  29.435  25.368  23.500  0.1143 -0.1191  0.1432
41037W        W84131  33.597  24.391  21.481 -0.4904  0.2506 -0.0371
41038W        W84132  31.402  24.231  22.219 -0.1354  0.1769  0.1792
41039W        W84133  31.141  22.045  20.651 -0.3004 -0.2264 -0.0434
41040W        W84134  31.530  24.901  21.135 -0.0897  0.0356 -0.0664
41041W        W84135  30.259  24.511  22.234  0.2083  0.1489  0.0122
41042W        W84136  31.508  23.662  20.316 -0.3958  0.0536 -0.0673
41043W        W84137  30.352  23.781  23.354  0.2033  0.0539 -0.3024
41044W        W84138  29.903  24.006  23.105  0.0883  0.2116 -0.1804
41045W        W84139  31.269  23.695  24.556 -0.1405 -0.2114  0.0088
41046W        W84140  30.254  23.024  19.893  0.1776 -0.0178  0.1180
41047W        W84141  31.661  22.848  19.047  0.1123  0.0891 -0.1388
41048W        W84142  30.146  26.987  22.883  0.1981  0.0895 -0.0821
41049W        W84143  33.212  26.675  22.323 -0.4662  0.2641 -0.2509
41050W        W84144  29.991  25.461  22.400 -0.2380 -0.4172  0.0579
41051W        W84145  32.478  24.402  23.326 -0.2820 -0.4216 -0.2001
41052W        W84146  29.766  21.884  23.227 -0.0343  0.3756  0.1493
41053W        W84147  30.603  24.565  21.077 -0.4053 -0.0107 -0.2400
41054W        W84148  29.568  23.508  22.251  0.3154 -0.2147 -0.0870
41055W        W84149  31.355  23.533  22.599 -0.1369 -0.0262 -0.1040
41056W        W84150  32.320  22.951  22.387  0.1288  0.0538  0.1299
41057W        W84151  30.940  22.844  20.530 -0.2666  0.0344 -0.1149
41058W        W84152  29.719  25.483  24.036  0.1055 -0.0511 -0.0808
41059W        W84153  31.573  23.803  23.359 -0.0788  0.1056  0.1211
41060W        W84154  30.681  26.212  27.703  0.1227 -0.0724  0.3079
41061W        W84155  30.936  24.164  25.251 -0.0450 -0.2821  0.2332
41062W        W84156  34.335  23.619  24.461  0.2297  0.1601 -0.0820
41063W        W84157  32.741  25.339  24.975 -0.3677 -0.2754 -0.3093
41064W        W84158  28.952  22.508  25.679  0.4022 -0.1305 -0.2832
41065W        W84159  32.345  25.230  25.758  0.0031 -0.0146 -0.3926
41066W        W84160  29.509  21.732  27.154 -0.0082 -0.1730  0.1214
41067W        W84161  30.787  24.933  26.872  0.0228 -0.0713 -0.1566
41068W        W84162  32.260  25.822  25.768 -0.1315  0.1983  0.2071
41069W        W84163  31.602  25.489  23.186  0.5131  0.4151 -0.0111
41070W        W84164  30.955  22.504  28.463 -0.0165 -0.4962  0.1770
41071W        W84165  30.595  24.495  25.955 -0.0731  0.0846 -0.0467
41072W        W84166  31.045  22.500  23.369  0.2243 -0.1565  0.2875
41073W        W84167  28.089  21.706  26.497 -0.1188 -0.3095 -0.3626
41074W        W84168  31.189  24.453  26.653 -0.3407 -0.1535 -0.2059
41075W        W84169  30.502  23.241  25.593 -0.1934 -0.0769  0.0220
41076W        W84170  29.560  21.876  26.622 -0.0920 -0.1574 -0.0979
41077W        W84171  31.148  22.440  24.379 -0.0546  0.0426 -0.2393
41078W        W84172  31.526  25.810  26.199 -0.1794  0.0330 -0.4784
41079W        W84173  29.832  23.264  27.241 -0.4236 -0.0433  0.0670
41080W        W84174  32.239  21.826  26.531 -0.1523 -0.2244 -0.0043
41081W        W84175  31.006  24.534  25.563  0.1185  0.0586 -0.1491
41082W        W84176  29.322  23.396  22.679 -0.3107 -0.2344 -0.0529
41083W        W84177  29.485  22.553  25.864  0.0826  0.0925  0.2665
41084W        W84178  31.026  22.199  25.869  0.1484  0.0718  0.1757
41085W        W84179  31.356  22.770  26.984 -0.4522 -0.2165  0.1932
41086W        W84180  30.531  23.463  25.074  0.0267  0.0495  0.0444
41087W        W84181  29.222  25.183  26.310  0.5019  0.4226 -0.1183
41088W        W84182  31.541  24.642  26.265 -0.3035 -0.2023 -0.0946
41089W        W84183  32.390  23.679  28.497  0.3013  0.1443  0.3424
41090W        W84184  30.889  23.587  26.393 -0.1014  0.0346  0.2478
41091W        W84185  30.328  26.425  26.270 -0.0029 -0.1731 -0.3345
41092W        W84186  29.827  24.789  24.873  0.1167  0.2070 -0.0186
41093W        W84187  32.261  23.781  24.429  0.1852 -0.3807  0.2968
41094W        W84188  32.409  24.620  27.790 -0.1081  0.2097 -0.1398
41095W        W84189  29.814  25.955  27.743 -0.2058 -0.4348  0.0687
41096W        W84190  28.952  25.660  24.642 -0.1554  0.0932  0.0549
41097W        W84191  32.574  25.068  28.220  0.2242 -0.0369 -0.0510
41098W        W84192  29.952  24.380  29.232 -0.0534 -0.2695  0.2974
41099W        W84193  30.948  23.971  28.609 -0.2390  0.0544 -0.0305
41100W        W84194  32.366  24.046  26.435 -0.2120 -0.1622  0.1286
41101W        W84195  30.541  24.400  25.468 -0.0453  0.2407  0.0387
41102W        W84196  29.527  24.714  26.858 -0.1214 -0.2085  0.0978
41103W        W84197  30.503  23.583  27.775 -0.0816 -0.0690  0.1877
41104W        W84198  29.649  24.807  25.407  0.0110 -0.2043 -0.0966
41105W        W84199  32.158  23.095  26.613 -0.0587  0.1154 -0.1399
41106W        W84200  29.560  25.825  23.743  0.1488  0.2409 -0.2715
41107W        W84201  32.534  22.563  24.727  0.1638 -0.1582  0.0883
41108W        W84202  30.847  23.392  23.562 -0.0500  0.2545 -0.1171
41109W        W84203  33.031  22.700  24.725  0.0786 -0.0881  0.1866
41110W        W84204  30.442  20.173  27.433 -0.0798  0.0602  0.3149
41111W        W84205  29.806  25.029  25.963 -0.1010 -0.2771 -0.0872
41112W        W84206  29.007  22.555  27.311 -0.2048  0.2643  0.1049
41113W        W84207  31.008  24.415  27.117 -0.1868  0.1716 -0.0470
41114W        W84208  30.383  22.741  25.591  0.0997 -0.2764 -0.1071
41115W        W84209  31.850  22.707  26.811 -0.2273  0.2043  0.0038
41116W        W84210  30.267  24.572  25.055  0.0818  0.0248 -0.0163
41117W        W84211  29.867  22.860  26.775  0.0901 -0.0283  0.0576
41118W        W84212  31.823  25.518  24.825 -0.3059 -0.0715 -0.2669
41119W        W84213  31.550  25.195  25.623 -0.1840  0.2042 -0.1342
41120W        W84214  30.552  26.783  22.539 -0.3140  0.3870 -0.1189
41121W        W84215  28.567  22.915  25.536  0.1220  0.2794  0.2110
41122W        W84216  29.055  24.337  26.901  0.0298  0.0740 -0.0751
41123W        W84217  30.092  23.761  26.181  0.1618  0.0110  0.1278
41124W        W84218  31.133  22.055  22.143 -0.2334 -0.0403  0.2489
41125W        W84219  32.162  26.025  27.159 -0.1394 -0.4735  0.1261
41126W        W84220  29.872  25.706  27.259  0.1383 -0.0144  0.1112
41127W        W84221  30.738  23.723  25.452  0.0941  0.2638 -0.0121
41128W        W84222  31.317  24.012  26.359  0.5105  0.0534 -0.1347
41129W        W84223  33.508  24.814  27.335  0.0508  0.0727  0.2301
41130W        W84224  33.332  24.701  24.678 -0.1840  0.1387  0.1487
41131W        W84225  31.852  22.560  25.445  0.2049 -0.0937 -0.0198
41132W        W84226  31.383  21.805  25.945  0.0091 -0.1578 -0.0476
41133W        W84227  30.782  23.478  24.588  0.1438 -0.2697 -0.2042
41134W        W84228  29.616  24.757  24.381  0.3235  0.3261 -0.1118
41135W        W84229  31.795  23.988  27.457  0.1041  0.1572  0.0271
41136W        W84230  32.628  23.582  25.578 -0.2856 -0.2262  0.0010
41137W        W84231  29.770  24.336  27.828 -0.1008 -0.0059  0.4481
41138W        W84232  31.485  24.343  29.224 -0.0704  0.0929 -0.1046
41139W        W84233  30.768  24.574  28.638  0.2309 -0.1460 -0.2360
41140W        W84234  29.204  25.777  22.742 -0.0410 -0.1527  0.3136
41141W        W84235  28.219  24.095  26.227  0.3009 -0.0584  0.0606
41142W        W84236  28.589  25.083  23.069 -0.1963 -0.3569 -0.2100
41143W        W84237  28.890  22.899  27.916 -0.0401  0.0592  0.1443
41144W        W84238  29.497  24.122  25.777 -0.0350 -0.1288 -0.1987
41145W        W84239  33.271  22.818  24.066  0.1040 -0.0615 -0.0589
41146W        W84240  29.074  23.041  27.141 -0.1504 -0.5088  0.0246
41147W        W84241  31.479  21.646  25.297  0.1428 -0.0922 -0.0107
41148W        W84242  27.892  25.249  26.431 -0.1131  0.1241 -0.0093
41149W        W84243  31.088  25.035  24.776 -0.2022  0.1125  0.2123
41150W        W84244  33.140  23.818  23.052 -0.1718  0.0009 -0.1849
41151W        W84245  31.652  24.861  23.168  0.0110  0.1340 -0.3237
41152W        W84246  28.485  22.581  27.679 -0.2601 -0.0769 -0.2288
41153W        W84247  31.025  22.972  25.222  0.2013  0.0866  0.0481
41154W        W84248  30.204  23.462  26.748  0.0573  0.0427  0.2070
41155W        W84249  29.181  22.226  26.084 -0.1421 -0.3955  0.2307
41156W        W84250  32.908  22.374  27.410  0.2864  0.1868 -0.1578
41157W        W84251  30.024  21.784  23.993 -0.0012 -0.3115  0.1217
41158W        W84252  31.520  23.152  24.043  0.0506  0.0794 -0.2895
41159W        W84253  31.061  21.670  24.976  0.2641 -0.2590  0.3949
41160W        W84254  29.419  23.848  24.793  0.1063 -0.0236 -0.0688
41161W        W84255  33.674  23.150  26.580 -0.2323 -0.2626 -0.0492
41162W        W84256  31.297  25.254  26.111 -0.0456  0.0343  0.1720
41163W        W84257  33.117  25.211  27.500 -0.0969  0.0116 -0.1679
41164W        W84258  31.534  26.275  26.035  0.2523  0.0469 -0.2292
41165W        W84259  30.132  23.387  28.179 -0.0823 -0.0355 -0.4073
41166W        W84260  30.564  22.470  24.737  0.2660  0.0139  0.1453
41167W        W84261  29.394  26.286  27.686 -0.0170 -0.1464 -0.0697
41168W        W84262  31.049  24.845  25.942  0.1913  0.3000 -0.0554
41169W        W84263  31.067  22.994  24.244 -0.1803 -0.0557 -0.3202
41170W        W84264  30.667  26.718  27.021  0.1604 -0.4139 -0.0988
41171W        W84265  31.905  24.111  25.590  0.0723  0.1394  0.1162
41172W        W84266  29.974  24.552  27.456  0.1111 -0.2635 -0.0445
41173W        W84267  32.269  22.186  27.864  0.1097 -0.1730 -0.0205
41174W        W84268  31.675  24.867  26.698  0.0092 -0.0641  0.1245
41175W        W84269  30.812  23.116  26.387  0.1897  0.2864  0.0640
41176W        W84270  29.315  22.147  24.860  0.1139 -0.1936 -0.1260
41177W        W84271  32.840  25.232  26.248  0.0931  0.1210  0.1960
41178W        W84272  28.824  25.166  24.803 -0.0317  0.0599  0.4103
41179W        W84273  30.256  23.724  25.372 -0.1218  0.1145 -0.0367
41180W        W84274  29.188  25.436  25.044 -0.1163 -0.2011  0.0422
41181W        W84275  32.341  21.899  25.944 -0.0930 -0.2473 -0.0415
41182W        W84276  29.849  23.420  26.401  0.5828 -0.0614  0.2449
41183W        W84277  31.662  22.486  27.747  0.0868 -0.1688  0.1065
41184W        W84278  29.621  22.557  24.897  0.1762 -0.0243 -0.2662
41185W        W84279  30.818  25.783  27.449  0.1069  0.0113 -0.3029
41186W        W84280  31.685  21.737  24.839  0.0732  0.1810  0.0999
41187W        W84281  32.305  22.112  24.148 -0.0408 -0.0834  0.3353
41188W        W84282  31.388  24.678  27.929 -0.2702  0.3877 -0.0648
41189W        W84283  31.528  23.745  24.149 -0.1029 -0.1894  0.0190
41190W        W84284  31.384  22.452  23.762  0.1119  0.0397  0.1011
41191W        W84285  32.286  22.037  23.452 -0.1148  0.2270  0.0179
41192W        W84286  29.378  24.968  25.782 -0.0004  0.4498 -0.1191
41193W        W84287  31.595  25.032  24.981 -0.1183 -0.1626  0.2568
41194W        W84288  31.916  23.633  26.673 -0.2200 -0.0941  0.0167
41195W        W84289  30.825  21.270  24.893 -0.1675  0.0049 -0.0985
41196W        W84290  33.437  24.192  24.613  0.0203 -0.1511 -0.4253
41197W        W84291  29.981  24.502  26.731  0.0945 -0.1088  0.1162
41198W        W84292  32.039  25.253  27.429 -0.0257 -0.1121  0.2550
41199W        W84293  32.029  26.499  25.959  0.0595 -0.2177 -0.1314
41200W        W84294  30.566  22.018  25.509  0.0871 -0.2065 -0.0089
41201W        W84295  30.757  24.713  24.974  0.1436 -0.0389 -0.0027
41202W        W84296  31.630  23.200  25.750 -0.1944  0.1598 -0.2825
41203W        W84297  30.534  24.500  24.170 -0.1683 -0.0488  0.0507
41204W        W84298  32.128  22.320  26.568  0.0305 -0.0904  0.0022
41205W        W84299  31.537  21.797  26.476 -0.4366 -0.1775 -0.0786
41206W        W84300  30.514  21.471  27.313  0.1204 -0.4583 -0.0333
41207W        W84301  33.922  24.540  28.826 -0.0175 -0.2573  0.0449
41208W        W84302  33.240  23.761  24.590  0.2822  0.0517  0.0108
41209W        W84303  31.211  23.349  25.474 -0.1793 -0.1247 -0.2440
41210W        W84304  30.469  23.706  22.238 -0.1220 -0.0326 -0.2039
41211W        W84305  31.501  23.045  27.749  0.1847 -0.2767 -0.1385
41212W        W84306  30.227  24.190  26.994 -0.0676  0.0165  0.1147
41213W        W84307  29.735  26.194  27.330  0.1322  0.4427 -0.0045
41214W        W84308  32.044  23.302  27.058 -0.1472 -0.1269 -0.1993
41215W        W84309  31.244  24.523  24.990  0.1165  0.3890  0.0226
41216W        W84310  31.401  23.827  28.380  0.2124 -0.2953 -0.1470
41217W        W84311  31.068  22.724  24.784  0.2462 -0.0955 -0.3955
41218W        W84312  30.878  25.254  25.697  0.0920  0.1764  0.1812
41219W        W84313  29.409  23.003  23.495  0.0394 -0.0824  0.3356
41220W        W84314  30.762  22.005  27.436 -0.0030  0.0220  0.1474
41221W        W84315  30.109  24.678  26.200  0.0311  0.0666 -0.0280
41222W        W84316  31.810  24.121  23.965  0.2051  0.1686  0.0483
41223W        W84317  31.283  23.130  26.212 -0.2055  0.1632  0.2247
41224W        W84318  30.489  23.675  25.854  0.2968  0.0535  0.1744
41225W        W84319  32.921  22.816  25.555  0.1430 -0.2035 -0.2174
41226W        W84320  29.625  25.186  26.669  0.0636  0.0275 -0.0188
41227W        W84321  30.281  22.889  24.461  0.0972 -0.0251  0.1118
41228W        W84322  29.503  23.016  26.002  0.1964 -0.0379 -0.1078
41229W        W84323  31.839  23.999  24.520  0.0715  0.1828  0.0307
41230W        W84324  31.932  25.001  24.389 -0.1223  0.0360 -0.0609
41231W        W84325  31.152  23.577  27.086  0.0538  0.2141 -0.0685
41232W        W84326  29.368  22.948  27.573  0.1539  0.0586  0.0162
41233W        W84327  29.113  24.972  27.108  0.0036 -0.0435 -0.0289
41234W        W84328  31.533  24.206  25.926  0.0022  0.1115  0.0186
41235W        W84329  31.904  23.193  25.335 -0.0163 -0.1395  0.2137
41236W        W84330  31.307  25.405  27.001  0.4421  0.0932 -0.1762
41237W        W84331  31.685  23.593  27.161  0.1064 -0.0715  0.1781
41238W        W84332  29.910  22.664  23.525 -0.2616 -0.0682 -0.3322
41239W        W84333  32.999  23.137  26.902 -0.3533 -0.0527  0.2225
41240W        W84334  30.829  22.881  25.728 -0.2400  0.1546 -0.1194
41241W        W84335  30.038  24.463  24.534 -0.2778 -0.2122 -0.1278
41242W        W84336  31.528  25.311  26.551 -0.1632 -0.2118  0.2233
41243W        W84337  30.206  24.079  24.281 -0.3701  0.2633  0.2605
41244W        W84338  28.802  24.115  25.335  0.2053  0.2984  0.0535
41245W        W84339  31.205  22.194  27.317  0.1453  0.0619  0.3204
41246W        W84340  32.227  23.706  27.429  0.1003 -0.0937  0.2359
41247W        W84341  30.455  23.853  26.571 -0.0796 -0.4135  0.0757
41248W        W84342  30.827  21.609  25.836 -0.1779  0.0026  0.0322
41249W        W84343  29.805  23.833  25.598  0.3881 -0.1333 -0.0208
41250W        W84344  32.699  23.750  27.329  0.0648 -0.0100  0.0965
41251W        W84345  30.354  23.145  27.215 -0.3245  0.3724  0.1051
41252W        W84346  30.513  25.354  27.900  0.2435  0.0112  0.2091
41253W        W84347  31.716  21.422  25.726  0.3067  0.3063 -0.1821
41254W        W84348  33.287  25.949  24.864 -0.2225 -0.0951  0.0330
41255W        W84349  31.862  23.384  27.609 -0.2494  0.1232  0.1224
41256W        W84350  30.480  24.418  24.663  0.1008  0.0400  0.3366
41257W        W84351  29.156  23.436  26.218 -0.0186  0.0951 -0.1700
41258W        W84352  31.481  24.714  25.737 -0.2879  0.2659 -0.1306
41259W        W84353  30.586  22.023  26.419  0.2684  0.2177  0.0797
41260W        W84354  28.249  25.313  26.084  0.0017 -0.0460  0.0060
41261W        W84355  29.103  25.365  23.092  0.2054 -0.2685  0.0951
41262W        W84356  28.248  25.134  26.783  0.0755 -0.1185 -0.0754
41263W        W84357  31.515  22.370  24.756 -0.1083  0.0231  0.0631
41264W        W84358  30.070  25.317  25.506  0.0560 -0.0480  0.0084
41265W        W84359  30.404  23.447  26.299  0.0971  0.0543 -0.1456
41266W        W84360  33.756  22.414  27.096  0.1378 -0.1611  0.2457
41267W        W84361  30.947  23.666  24.977 -0.1732 -0.0295  0.0830
41268W        W84362  31.517  22.293  26.730  0.0463  0.1435 -0.1690
41269W        W84363  30.047  23.246  25.920  0.3427  0.1380  0.1331
41270W        W84364  30.339  24.838  26.639  0.0596 -0.2090 -0.0226
41271W        W84365  29.878  22.625  28.282  0.1637 -0.0131 -0.0139
41272W        W84366  31.796  25.317  28.049  0.1114  0.0578 -0.3527
41273W        W84367  30.710  24.358  27.567  0.0425 -0.3459 -0.2322
41274W        W84368  31.337  22.702  25.626  0.0474 -0.1329 -0.1866
41275W        W84369  30.023  22.466  24.452  0.0055  0.0731 -0.0052
41276W        W84370  30.785  24.073  26.279  0.0826  0.0985  0.2649
41277W        W84371  32.174  23.394  25.794 -0.1409  0.1130 -0.0844
41278W        W84372  30.164  24.665  25.650  0.3070 -0.0359  0.1266
41279W        W84373  32.328  22.998  26.142 -0.1498  0.0186 -0.3541
41280W        W84374  30.168  22.449  26.377  0.1183  0.0947 -0.1504
41281W        W84375  32.384  23.357  24.024  0.0044  0.0806  0.2233
41282W        W84376  32.353  24.016  24.881 -0.1488 -0.2208  0.0191
41283W        W84377  31.353  23.582  26.602 -0.1091 -0.4512 -0.2526
41284W        W84378  29.329  21.264  26.629 -0.0446 -0.0121  0.3471
41285W        W84379  32.478  24.286  25.629 -0.1994 -0.0511 -0.0488
41286W        W84380  31.189  23.168  26.750 -0.0667  0.2373 -0.1588
41287W        W84381  30.420  22.802  26.802  0.3499  0.1407  0.2161
41288W        W84382  31.417  23.641  25.999 -0.3274  0.4827  0.1769
41289W        W84383  30.712  24.003  27.231 -0.0639  0.3299  0.1680
41290W        W84384  29.586  22.313  29.060 -0.0952 -0.0933 -0.3725
41291W        W84385  32.583  25.872  26.290  0.0269 -0.1793  0.0340
41292W        W84386  32.639  23.555  22.963  0.3302 -0.2193  0.0336
41293W        W84387  31.540  24.585  27.396 -0.2691 -0.1969  0.0017
41294W        W84388  31.122  22.104  26.309  0.1588 -0.1829 -0.1385
41295W        W84389  30.052  23.275  25.351  0.0417 -0.1823  0.0607
41296W        W84390  30.042  22.620  25.927  0.1285 -0.1299  0.0734
41297W        W84391  31.643  23.160  26.702 -0.0412 -0.0103 -0.2185
41298W        W84392  30.307  22.483  23.259 -0.2869  0.2930 -0.2212
41299W        W84393  32.325  23.135  27.577 -0.3522  0.2814 -0.0506
41300W        W84394  30.771  25.783  24.995  0.0632  0.1648  0.1187
41301W        W84395  31.821  24.154  26.567  0.0336 -0.0651  0.0430
41302W        W84396  31.541  22.804  24.475  0.1086 -0.0655 -0.1677
41303W        W84397  29.380  23.093  26.565  0.2311 -0.2497  0.0404
41304W        W84398  29.264  26.425  29.062  0.2753 -0.1391  0.4781
41305W        W84399  29.653  22.702  23.903 -0.0034 -0.2484 -0.0956
41306W        W84400  31.140  24.961  25.367  0.1070 -0.0741 -0.1230
41307W        W84401  31.436  24.009  26.905 -0.0473  0.2774  0.3610
41308W        W84402  33.464  25.239  27.069 -0.1686  0.2304 -0.1178
41309W        W84403  31.083  22.054  23.798  0.0004 -0.1167 -0.0967
41310W        W84404  32.894  24.717  27.533  0.1282 -0.1493  0.1097
41311W        W84405  30.375  23.357  24.365  0.1051  0.0784  0.0850
41312W        W84406  30.105  21.867  25.259  0.1157 -0.1682 -0.0872
41313W        W84407  30.086  25.180  26.348 -0.0653  0.1649 -0.1533
41314W        W84408  29.969  24.916  27.023  0.1085  0.1493  0.0043
41315W        W84409  31.125  24.384  26.144 -0.2105 -0.2625  0.1277
41316W        W84410  30.857  22.885  28.785  0.3669 -0.0236  0.2928
41317W        W84411  31.858  25.000  26.158  0.0768  0.0364  0.1430
41318W        W84412  29.817  24.125  26.176 -0.0899 -0.1263 -0.2894
41319W        W84413  33.155  24.677  28.075  0.0060  0.1478  0.0879
41320W        W84414  30.025  24.354  28.422  0.0427 -0.2402 -0.0616
41321W        W84415  29.276  23.031  24.652  0.3015  0.0153 -0.1906
41322W        W84416  30.856  25.539  26.930 -0.0944  0.1087  0.0502
41323W        W84417  31.780  23.640  25.542  0.0363  0.0728 -0.1575
41324W        W84418  29.311  24.233  26.436  0.0829 -0.0021  0.4058
41325W        W84419  29.187  23.433  27.497  0.1746  0.2765  0.0920
41326W        W84420  31.851  24.389  27.863 -0.0579  0.0884 -0.2553
41327W        W84421  30.935  23.475  25.885  0.0960 -0.1008  0.2024
41328W        W84422  31.362  21.979  24.464  0.0817 -0.0490 -0.0845
41329W        W84423  31.407  25.241  24.498  0.1921 -0.0635  0.0335
41330W        W84424  29.915  27.070  27.878 -0.0067  0.0191  0.1861
41331W        W84425  29.847  24.074  27.278 -0.2070 -0.0939 -0.0928
41332W        W84426  28.698  25.478  25.167  0.1649  0.2194 -0.0491
41333W        W84427  31.833  23.920  25.128  0.1155 -0.0598  0.0763
41334W        W84428  32.834  24.473  25.360 -0.2368 -0.0268 -0.3752
41335W        W84429  30.299  25.774  24.919 -0.2263  0.2190 -0.3130
41336W        W84430  30.984  24.133  24.668  0.3811 -0.0459  0.0923
41337W        W84431  31.010  23.958  25.817  0.2164  0.0355  0.2493
41338W        W84432  29.084  25.133  24.349 -0.0855  0.3559  0.1841
41339W        W84433  31.826  23.512  22.845  0.0859 -0.0111 -0.0160
41340W        W84434  29.619  26.745  24.640  0.1740 -0.0441 -0.4816
41341W        W84435  31.850  24.842  27.695  0.2100  0.2628 -0.2069
41342W        W84436  32.813  22.726  22.507  0.2154  0.0336 -0.0948
41343W        W84437  32.529  24.523  24.917  0.2184 -0.2038 -0.4164
41344W        W84438  32.805  23.679  24.977 -0.2928 -0.0025 -0.1022
41345W        W84439  30.580  24.317  28.144  0.2296 -0.3868 -0.0340
41346W        W84440  30.229  22.233  26.928  0.1224  0.1045  0.2112
41347W        W84441  31.009  22.196  24.794  0.2935  0.0579  0.3280
41348W        W84442  29.533  24.187  26.878 -0.1035  0.1465 -0.1810
41349W        W84443  32.792  22.745  28.239 -0.2305  0.1385  0.2435
41350W        W84444  30.500  24.972  28.373 -0.0901  0.1215  0.0975
41351W        W84445  32.674  23.962  23.867 -0.0548  0.5704 -0.4548
41352W        W84446  30.654  22.535  24.251  0.0758  0.0907  0.3346
41353W        W84447  30.833  22.481  25.414  0.0449  0.3980 -0.2509
41354W        W84448  32.566  22.179  26.282 -0.0368 -0.0443 -0.0276
41355W        W84449  31.832  24.744  25.336  0.0673  0.3012 -0.0230
41356W        W84450  31.850  21.561  26.222  0.0887  0.0700  0.1544
41357W        W84451  30.474  25.980  26.275  0.2626  0.1724  0.0490
41358W        W84452  28.806  25.153  26.036 -0.1484 -0.0729 -0.1938
41359W        W84453  29.454  25.659  27.989  0.1418 -0.2671  0.3467
41360W        W84454  29.673  22.094  24.412 -0.1541  0.1439  0.2375
41361W        W84455  33.504  24.391  24.106  0.2020  0.0292 -0.0630
41362W        W84456  28.715  23.055  27.523 -0.3111 -0.0164  0.1333
41363W        W84457  31.744  22.505  27.256 -0.0350  0.0078 -0.1880
41364W        W84458  30.477  22.940  25.002  0.0856 -0.0576 -0.2312
41365W        W84459  32.838  22.552  24.272 -0.0378 -0.0194  0.1218
41366W        W84460  32.569  23.300  27.137 -0.0887  0.1141  0.0338
41367W        W84461  29.404  23.749  26.532 -0.0066  0.1038 -0.1735
41368W        W84462  31.980  22.978  24.157 -0.0091  0.1604 -0.0172
41369W        W84463  31.386  24.184  27.802 -0.1770 -0.1033 -0.0569
41370W        W84464  31.446  23.306  23.420  0.0990  0.0489 -0.4125
41371W        W84465  32.204  25.528  27.002 -0.0697 -0.1008  0.2680
41372W        W84466  30.087  22.980  26.372 -0.1914  0.1134 -0.0541
41373W        W84467  32.280  23.021  23.614  0.2204  0.0525 -0.3476
41374W        W84468  29.917  24.060  24.924 -0.3045 -0.1957  0.0502
41375W        W84469  30.602  24.406  26.779  0.1354  0.0289 -0.1012
41376W        W84470  32.256  24.881  29.106 -0.0453 -0.1745  0.1708
41377W        W84471  29.856  21.773  25.716  0.0110 -0.0513  0.0399
41378W        W84472  33.268  24.405  25.056 -0.0080  0.4950 -0.3678
41379W        W84473  32.018  23.548  24.897 -0.2581  0.3720 -0.0014
41380W        W84474  30.270  25.462  24.030  0.0644 -0.0785 -0.2836
41381W        W84475  32.290  23.850  25.335 -0.1186  0.2462  0.0293
41382W        W84476  32.252  24.166  26.935 -0.0914  0.0167  0.2606
41383W        W84477  28.600  23.634  26.435 -0.1734  0.2124  0.1841
41384W        W84478  30.996  25.352  27.427 -0.3798  0.1440 -0.4450
41385W        W84479  32.102  24.691  25.760 -0.2671 -0.0122  0.1938
41386W        W84480  30.657  23.037  23.962  0.0461 -0.0347  0.1656
41387W        W84481  30.422  22.940  26.052  0.1345  0.0710  0.0089
41388W        W84482  28.884  26.009  25.930  0.0107  0.1835  0.3121
41389W        W84483  32.653  22.689  25.936 -0.2366 -0.3857 -0.0224
41390W        W84484  31.899  22.959  27.389  0.4324 -0.0475  0.0939
41391W        W84485  30.628  24.735  23.695 -0.0541 -0.1280 -0.1753
41392W        W84486  33.646  23.986  27.631 -0.2162 -0.0796 -0.5115
41393W        W84487  32.370  25.590  27.495  0.3218  0.0490  0.0474
41394W        W84488  30.717  25.204  29.151  0.1846  0.1851  0.0244
41395W        W84489  30.477  24.104  25.078  0.0571  0.3388 -0.0414
41396W        W84490  30.973  24.827  27.473 -0.1303  0.5212 -0.0574
41397W        W84491  30.177  24.152  25.836 -0.2790  0.1080 -0.1165
41398W        W84492  29.770  23.522  25.046 -0.1851 -0.2222 -0.0829
41399W        W84493  32.338  24.863  26.185 -0.3451 -0.0506 -0.0421
41400W        W84494  31.168  21.198  25.871 -0.1097 -0.1151  0.0266
41401W        W84495  34.124  24.720  25.853 -0.0596 -0.2416  0.0369
41402W        W84496  31.121  22.656  26.109 -0.0429 -0.2363  0.0755
41403W        W84497  32.092  21.733  23.957 -0.0290  0.0691 -0.2258
41404W        W84498  31.519  22.200  25.594  0.0995  0.3397  0.2581
41405W        W84499  31.804  24.370  27.002  0.2703  0.1364  0.0034
41406W        W84500  29.708  21.337  23.181  0.0670 -0.2309 -0.0166
41407W        W84501  30.351  23.852  24.715  0.0500 -0.1235  0.1193
41408W        W84502  28.739  25.282  26.515 -0.1184 -0.0319 -0.1069
41409W        W84503  31.397  21.610  27.639  0.2533 -0.0681  0.2197
41410W        W84504  29.750  23.034  28.025 -0.0540  0.0140  0.0540
41411W        W84505  29.837  22.922  25.575  0.0815  0.2490  0.0683
41412W        W84506  30.590  21.960  24.986 -0.0281  0.2948  0.1075
41413W        W84507  31.505  23.505  25.058  0.0101 -0.2061  0.1074
41414W        W84508  29.136  23.888  26.081 -0.1420 -0.3374 -0.1707
41415W        W84509  30.179  21.950  26.190 -0.1540  0.0811 -0.1598
41416W        W84510  31.450  24.748  24.502 -0.2824  0.3339 -0.1211
41417W        W84511  30.740  24.608  26.390 -0.2066 -0.1232  0.0540
41418W        W84512  29.700  20.950  26.390 -0.1567 -0.0228 -0.0109
41419W        W84513  32.355  24.960  27.175 -0.0090  0.2038  0.0810
41420W        W84514  29.426  24.012  25.264  0.1371 -0.1427  0.1228
41421W        W84515  31.642  23.490  28.064 -0.0711  0.1323 -0.0589
41422W        W84516  30.163  23.217  27.745  0.4622 -0.0094  0.2093
41423W        W84517  28.542  22.877  24.463 -0.2100 -0.3963 -0.0194
41424W        W84518  30.661  23.528  26.931 -0.0223  0.0306 -0.0233
41425W        W84519  31.029  25.912  25.441 -0.2926  0.0009 -0.0093
41426W        W84520  31.555  24.982  24.058  0.0653  0.1500  0.0022
41427W        W84521  29.801  24.904  27.850  0.2441  0.1881 -0.0218
41428W        W84522  30.494  24.712  27.308  0.0260 -0.2668  0.0345
41429W        W84523  29.853  21.923  27.745  0.0831 -0.0895 -0.0601
41430W        W84524  31.736  22.152  25.156  0.2738  0.0128 -0.1915
41431W        W84525  31.858  23.231  26.237  0.0680 -0.0697  0.2569
41432W        W84526  31.232  25.532  24.869  0.0678  0.0196 -0.0120
41433W        W84527  32.120  22.634  27.621  0.0155  0.0671  0.3173
41434W        W84528  31.350  24.022  24.988  0.1219 -0.0941 -0.0625
41435W        W84529  30.625  23.278  28.080  0.0147  0.1448 -0.3466
41436W        W84530  30.032  23.825  28.483 -0.1003 -0.2634  0.1391
41437W        W84531  31.910  24.819  27.192 -0.0324 -0.0268 -0.2112
41438W        W84532  29.650  22.120  26.219 -0.2143 -0.0961 -0.0425
41439W        W84533  33.547  22.940  22.879 -0.0686  0.2275  0.4869
41440W        W84534  33.294  24.881  24.191  0.0939 -0.0790 -0.2448
41441W        W84535  29.670  23.375  27.690 -0.5600 -0.2732  0.3112
41442W        W84536  31.316  23.887  25.473 -0.0492  0.3157  0.0425
41443W        W84537  31.956  22.731  26.334  0.3016  0.0381  0.1061
41444W        W84538  32.615  25.485  26.696  0.2701  0.1375  0.0762
41445W        W84539  30.997  23.304  29.249  0.0557  0.0584  0.0892
41446W        W84540  30.949  24.583  24.420  0.2544 -0.3590 -0.0106
41447W        W84541  32.921  24.161  24.784 -0.0561  0.0528  0.1237
41448W        W84542  30.538  25.366  26.618  0.0968  0.2180  0.3254
41449W        W84543  31.302  25.175  27.877  0.1596  0.2262 -0.1227
41450W        W84544  31.877  24.881  28.625 -0.2991  0.5046 -0.2820
41451W        W84545  32.155  24.353  25.232  0.0144  0.2003  0.2017
41452W        W84546  28.638  21.925  26.686  0.0675 -0.0787 -0.0815
41453W        W84547  31.551  24.364  25.373  0.2779 -0.2064  0.2302
41454W        W84548  30.394  25.131  25.881 -0.0260  0.0467 -0.0114
41455W        W84549  31.010  22.674  26.626  0.1415 -0.1501  0.5516
41456W        W84550  30.107  21.375  26.354  0.0725 -0.0999 -0.1549
41457W        W84551  32.752  21.886  23.669 -0.0306  0.2103 -0.0365
41458W        W84552  30.976  25.663  27.997  0.0016  0.0290  0.0724
41459W        W84553  32.099  24.416  27.414  0.1379  0.2340 -0.2186
41460W        W84554  29.905  23.086  31.396 -0.0540 -0.4183  0.3615
41461W        W84555  30.186  24.584  27.896  0.0493 -0.0667 -0.1044
41462W        W84556  32.867  22.920  27.561 -0.1499 -0.0047  0.0377
41463W        W84557  32.952  24.489  29.425  0.1846  0.2059  0.0456
41464W        W84558  28.800  22.084  30.076 -0.1486 -0.0124  0.2430
41465W        W84559  31.141  25.275  29.408  0.1972  0.0754 -0.1464
41466W        W84560  29.297  22.640  31.386 -0.0295  0.0766 -0.2078
41467W        W84561  30.834  25.593  31.835  0.1432 -0.0563 -0.0592
41468W        W84562  32.050  25.705  29.296 -0.1093 -0.1475 -0.2742
41469W        W84563  31.277  24.926  27.061 -0.0542  0.1357  0.0600
41470W        W84564  31.037  23.780  31.404  0.3014  0.3055  0.2142
41471W        W84565  30.763  24.473  30.941 -0.2925 -0.0867  0.3330
41472W        W84566  30.764  22.705  29.288  0.2680  0.0686 -0.0862
41473W        W84567  28.852  21.593  29.812 -0.1574  0.3490 -0.1598
41474W        W84568  31.336  24.186  30.226 -0.2437 -0.1239  0.0536
41475W        W84569  28.287  23.787  29.138 -0.0052 -0.1429 -0.0414
41476W        W84570  30.319  21.928  31.373 -0.0631  0.4261 -0.3834
41477W        W84571  31.376  23.372  28.620 -0.1355  0.0963 -0.1888
41478W        W84572  30.495  25.755  31.355  0.0958 -0.0806 -0.1195
41479W        W84573  32.313  22.034  29.576 -0.0351  0.1370 -0.2280
41480W        W84574  31.536  23.048  31.407 -0.2033  0.1763 -0.1212
41481W        W84575  30.992  24.007  28.106  0.3819  0.0701  0.3381
41482W        W84576  27.160  22.686  29.569 -0.3142 -0.0806  0.0227
41483W        W84577  29.228  23.558  29.531 -0.0471  0.0183  0.0729
41484W        W84578  30.473  21.722  30.960  0.2516 -0.0170 -0.2339
41485W        W84579  33.147  23.255  29.173 -0.2249  0.4196  0.1055
41486W        W84580  32.404  24.568  29.413 -0.0130 -0.0225  0.1846
41487W        W84581  30.251  26.256  28.323 -0.1480 -0.1800 -0.1748
41488W        W84582  31.651  25.258  29.542  0.6678 -0.0081  0.0881
41489W        W84583  33.549  22.605  31.885  0.0022 -0.0774  0.2281
41490W        W84584  29.758  23.487  30.126 -0.0922  0.0932 -0.0205
41491W        W84585  29.149  24.918  30.310 -0.0577  0.1757  0.1699
41492W        W84586  30.627  24.933  30.870 -0.0371 -0.2061 -0.3147
41493W        W84587  31.970  23.703  29.384 -0.2727 -0.0736 -0.0739
41494W        W84588  32.572  25.673  31.248 -0.1811  0.1388 -0.0929
41495W        W84589  30.414  26.600  31.760  0.0045  0.3325  0.3049
41496W        W84590  28.805  24.484  27.872 -0.1290  0.0916 -0.0173
41497W        W84591  31.071  25.701  31.400 -0.1427  0.1857 -0.1555
41498W        W84592  29.779  25.248   1.128  0.1136  0.1536  0.0845
41499W        W84593  32.170  24.424  29.866 -0.0808 -0.0766 -0.0815
41500W        W84594  33.094  24.186  29.115 -0.0113  0.0012  0.1752
41501W        W84595  29.605  24.534  29.536 -0.0530 -0.0855  0.1915
41502W        W84596  30.641  23.956  30.449  0.1197 -0.2527  0.0674
41503W        W84597  30.671  23.978   1.664  0.2498 -0.0973  0.3027
41504W        W84598  29.631  24.977  30.645 -0.1116  0.0056 -0.2996
41505W        W84599  32.536  21.004  31.821 -0.1361 -0.0994  0.4110
41506W        W84600  29.947  26.042  28.648  0.3885  0.0275 -0.0478
41507W        W84601  32.937  23.256  28.231 -0.1954  0.1940  0.2273
41508W        W84602  30.628  23.571  28.957 -0.2769 -0.0322  0.0620
41509W        W84603  32.037  23.201  29.351  0.3498 -0.1073 -0.1456
41510W        W84604  32.200  20.653  30.358  0.1151 -0.2268 -0.2000
41511W        W84605  30.572  24.241  29.061 -0.1682 -0.1728 -0.0675
41512W        W84606  32.107  22.603  30.633 -0.0142  0.2138 -0.0382
41513W        W84607  34.497  24.671  30.454  0.1225 -0.0106 -0.0280
41514W        W84608  31.198  23.996  27.369  0.0960  0.0189 -0.0143
41515W        W84609  32.464  22.975  30.711  0.0515  0.1404  0.0370
41516W        W84610  30.578  24.490  31.500  0.2142  0.0327  0.1139
41517W        W84611  31.473  23.693  30.026  0.1639  0.1840  0.0990
41518W        W84612  33.476  24.553  29.078 -0.2149 -0.2223 -0.0999
41519W        W84613  33.385  25.639  29.944 -0.1374 -0.3950 -0.2685
41520W        W84614  31.252  24.340  28.411 -0.0103 -0.0530  0.0661
41521W        W84615  29.201  23.719  28.019 -0.0381 -0.0228 -0.2116
41522W        W84616  30.234  24.590  31.054  0.1604 -0.1087  0.0065
41523W        W84617  28.741  23.482  29.702  0.0159  0.2368  0.1971
41524W        W84618  30.005  23.716  27.746  0.1468 -0.1964  0.1003
41525W        W84619  32.700  24.269  31.596 -0.1053 -0.0091 -0.0686
41526W        W84620  30.485  24.545  29.944 -0.0873 -0.1323  0.2859
41527W        W84621  31.723  22.219  30.546 -0.3620  0.0289 -0.1573
41528W        W84622  30.516  24.717  29.307  0.0929  0.0338 -0.1231
41529W        W84623  32.018  24.457  30.544  0.0625  0.0710 -0.0302
41530W        W84624  32.095  24.803  28.183 -0.0260  0.0113 -0.1658
41531W        W84625  32.079  23.210  29.905  0.2393  0.1237 -0.1772
41532W        W84626  33.502  23.199  30.155  0.0853  0.4464 -0.0790
41533W        W84627  30.971  23.750  27.735 -0.0683 -0.3879  0.2617
41534W        W84628  31.754  24.008  28.135 -0.2426 -0.1509 -0.0742
41535W        W84629  33.167  25.208  30.916  0.1044 -0.1199 -0.1410
41536W        W84630  31.167  23.700  28.978  0.3344 -0.2136  0.4371
41537W        W84631  29.944  25.610  29.556 -0.0810  0.0124  0.0713
41538W        W84632  30.248  23.958   0.745 -0.1546  0.1809 -0.1128
41539W        W84633  30.146  25.383  31.300  0.0151  0.1591 -0.0201
41540W        W84634  30.443  25.987  28.726 -0.3098  0.0718  0.1939
41541W        W84635  29.916  24.493  30.661 -0.1729 -0.2600  0.1532
41542W        W84636  30.134  25.428  28.383 -0.3955 -0.0622 -0.0610
41543W        W84637  28.458  23.090  31.393  0.1312  0.3376 -0.1006
41544W        W84638  30.807  24.399  30.317 -0.0947 -0.3120  0.0351
41545W        W84639  33.662  21.556  29.338  0.2238 -0.5067  0.1941
41546W        W84640  29.636  22.861  31.754 -0.3426 -0.1414 -0.2111
41547W        W84641  32.873  20.704  28.134  0.1329 -0.0194 -0.1586
41548W        W84642  30.315  23.781  29.367 -0.3261  0.1243  0.0670
41549W        W84643  32.959  25.449  29.214  0.0150 -0.3891 -0.3551
41550W        W84644  32.752  24.096  26.820  0.0936  0.1018  0.1892
41551W        W84645  32.031  25.670  27.826  0.0895  0.0377  0.0187
41552W        W84646  29.531  22.622  29.555  0.2077  0.1155  0.0564
41553W        W84647  29.842  23.046  29.931  0.4866  0.0306 -0.0557
41554W        W84648  31.230  20.830  30.129  0.0423  0.1446 -0.1924
41555W        W84649  29.441  22.031  29.635  0.2006 -0.0550 -0.0930
41556W        W84650  32.729  23.853   0.007  0.0522 -0.0955  0.1525
41557W        W84651  29.672  22.838  29.055 -0.0327  0.2350 -0.1853
41558W        W84652  33.305  23.660  29.345 -0.0884 -0.0261  0.4309
41559W        W84653  32.752  23.523  29.125  0.0815  0.3220 -0.1644
41560W        W84654  29.243  23.337  30.004  0.1073 -0.1176  0.1475
41561W        W84655  33.599  21.892  30.886 -0.1113  0.3398  0.0519
41562W        W84656  30.761  27.930  28.680 -0.1403  0.2300 -0.1188
41563W        W84657  34.499  25.296  30.910  0.5849  0.0795  0.2092
41564W        W84658  31.392  24.977  30.238 -0.0882 -0.0327 -0.0160
41565W        W84659  29.636  21.997  30.114  0.3294  0.0738 -0.0077
41566W        W84660  30.171  22.736  30.255 -0.1262 -0.1692  0.0980
41567W        W84661  30.436  25.595  29.922 -0.2102  0.2873 -0.2016
41568W        W84662  31.033  24.989  28.791 -0.2759  0.4165  0.0778
41569W        W84663  30.802  23.874  29.345  0.0434 -0.0692  0.2215
41570W        W84664  33.096  24.942  30.306  0.5069  0.4922 -0.2470
41571W        W84665  32.343  23.978  29.645  0.0607  0.0496 -0.2085
41572W        W84666  30.774  24.013  31.777 -0.0713  0.0661  0.0954
41573W        W84667  32.296  21.754  31.523  0.0763 -0.2309 -0.0001
41574W        W84668  32.804  24.089  30.213 -0.2222  0.0325 -0.2395
41575W        W84669  31.497  23.166  30.219 -0.0301  0.3839  0.1727
41576W        W84670  29.274  23.196  28.050 -0.0442 -0.3448 -0.0349
41577W        W84671  31.798  24.707  29.200  0.1176 -0.0519  0.3137
41578W        W84672  28.119  24.383  29.102 -0.1700  0.3426 -0.3038
41579W        W84673  28.717  23.840  28.823  0.1391  0.1520  0.0563
41580W        W84674  28.331  25.270  29.329  0.0859  0.2089  0.1191
41581W        W84675  33.145  23.910  29.870 -0.1179 -0.0045 -0.1228
41582W        W84676  28.804  24.020   0.690 -0.3412  0.1387 -0.3710
41583W        W84677  30.230  23.532  31.322  0.1115 -0.0555 -0.0697
41584W        W84678  29.784  23.853  29.219 -0.1691  0.1155  0.1684
41585W        W84679  30.945  26.089  31.110 -0.0655  0.2990 -0.0805
41586W        W84680  32.601  23.137  28.595 -0.2929  0.0799 -0.1247
41587W        W84681  31.801  23.116  28.857 -0.1046 -0.2095  0.0883
41588W        W84682  31.389  23.900  31.053 -0.1759 -0.3283 -0.1653
41589W        W84683  32.566  24.200  29.170 -0.0457  0.0737  0.2407
41590W        W84684  31.681  22.041  27.515 -0.3592 -0.1535 -0.1367
41591W        W84685  32.433  21.913  28.815 -0.2581 -0.0391 -0.2961
41592W        W84686  30.305  23.936  31.613 -0.2107 -0.1565 -0.3334
41593W        W84687  31.918  23.714  29.852 -0.2382 -0.2683 -0.5163
41594W        W84688  32.044  24.916  29.598  0.0323 -0.1898 -0.0582
41595W        W84689  30.490  22.290  27.811  0.1875 -0.1314  0.1094
41596W        W84690  32.638  25.115  27.652 -0.0767  0.0872  0.3597
41597W        W84691  31.089  24.229  30.683 -0.0976  0.2822 -0.1654
41598W        W84692  32.146  24.998   0.627  0.2327 -0.1158 -0.4940
41599W        W84693  32.617  25.192  31.138  0.1696  0.1791 -0.2514
41600W        W84694  29.824  22.614  30.611  0.0501 -0.3683  0.3893
41601W        W84695  31.430  23.656  27.610  0.0309 -0.1561 -0.5338
41602W        W84696  30.683  23.531  29.731  0.3830 -0.0214 -0.1327
41603W        W84697  29.612  24.656  28.298 -0.1460  0.1363 -0.2041
41604W        W84698  32.664  22.913  31.942  0.1725  0.0820 -0.0646
41605W        W84699  31.603  22.964  30.766 -0.2981  0.1369 -0.0314
41606W        W84700  31.295  21.773  30.649 -0.1329  0.1937  0.0647
41607W        W84701  31.138  21.826  31.756 -0.0757  0.1157  0.1016
41608W        W84702  33.084  22.495  29.272 -0.4834  0.0788  0.2946
41609W        W84703  33.127  24.341  28.617  0.1186 -0.0491 -0.4443
41610W        W84704  30.943  24.002  26.767  0.0737  0.1005 -0.1372
41611W        W84705  31.277  23.387  31.131  0.0583  0.1257  0.3869
41612W        W84706  31.200  23.306  30.625 -0.2423  0.0635  0.1007
41613W        W84707  30.060  26.345  30.227 -0.0827  0.0237  0.0052
41614W        W84708  33.140  24.145   0.017 -0.1597 -0.1249 -0.0531
41615W        W84709  32.659  24.031  28.721  0.0595 -0.2502  0.1599
41616W        W84710  30.160  22.624  31.541 -0.1146  0.1657 -0.0791
41617W        W84711  30.408  23.304  29.450 -0.0326  0.1845  0.0591
41618W        W84712  29.424  24.482  29.090  0.0607  0.1534 -0.2535
41619W        W84713  30.160  24.209  29.689  0.1756  0.1753 -0.1993
41620W        W84714  32.635  22.697  29.732 -0.2865 -0.2278  0.1422
41621W        W84715  31.751  27.274  30.481  0.2763  0.4421 -0.0429
41622W        W84716  28.755  23.587  27.265 -0.2433  0.0828 -0.4294
41623W        W84717  32.633  23.618  30.537 -0.0956  0.1368 -0.0550
41624W        W84718  30.598  25.526  28.535  0.1026 -0.0511 -0.0268
41625W        W84719  33.830  23.793  29.482  0.0225  0.2014 -0.4206
41626W        W84720  29.898  25.955  29.973  0.1010  0.1182 -0.0432
41627W        W84721  29.513  23.906  27.695 -0.0820 -0.0563 -0.1262
41628W        W84722  29.631  24.138  28.793  0.1026 -0.0704 -0.0058
41629W        W84723  32.524  23.038  29.338  0.0872 -0.0814 -0.1143
41630W        W84724  33.423  23.938  26.873  0.2387 -0.1662  0.0689
41631W        W84725  30.449  22.087   1.349  0.0128  0.3367  0.0823
41632W        W84726  31.210  21.562  31.363  0.2811  0.2146  0.0391
41633W        W84727  30.395  24.945  31.340 -0.2421  0.0135  0.1043
41634W        W84728  32.363  24.155  31.193  0.3569 -0.0038 -0.2937
41635W        W84729  31.622  23.004  28.301  0.1552  0.0399  0.3226
41636W        W84730  30.813  24.189   0.274 -0.2092  0.2076  0.2142
41637W        W84731  30.939  21.942  31.163 -0.2029  0.1661  0.0246
41638W        W84732  28.511  22.278  28.514 -0.2171  0.0607 -0.2340
41639W        W84733  33.357  23.664  30.389 -0.0853 -0.2484 -0.0049
41640W        W84734  31.606  24.139  28.763 -0.0876  0.1642 -0.0252
41641W        W84735  30.252  25.623  30.391  0.0173  0.0952  0.1727
41642W        W84736  31.034  25.107  31.061 -0.0752  0.1920 -0.1208
41643W        W84737  30.229  24.995  27.639 -0.2052  0.3439  0.2202
41644W        W84738  30.214  24.230  30.225 -0.1382  0.0333 -0.0301
41645W        W84739  31.001  24.280  31.369  0.0222  0.0594 -0.0940
41646W        W84740  32.377  24.633  31.309 -0.0639 -0.2260  0.0782
41647W        W84741  31.588  24.095  29.632 -0.1531  0.0745  0.1236
41648W        W84742  31.672  23.670  28.984 -0.3072  0.1022  0.1246
41649W        W84743  29.764  22.512  30.087 -0.1576 -0.1599  0.0882
41650W        W84744  32.536  23.670  30.040 -0.2328  0.2197  0.1600
41651W        W84745  31.926  22.683  31.411  0.1246  0.3808 -0.0245
41652W        W84746  30.385  24.519   0.034 -0.0185  0.1359  0.1924
41653W        W84747  33.216  22.524  30.544 -0.3662  0.2773  0.0228
41654W        W84748  32.842  25.591  27.579 -0.0509 -0.0855  0.0227
41655W        W84749  33.070  23.352  31.471 -0.0017 -0.1402 -0.1934
41656W        W84750  30.882  23.208  27.594 -0.2600 -0.4163  0.2406
41657W        W84751  30.203  23.745  30.318  0.0990  0.0656  0.2310
41658W        W84752  30.137  24.014  28.960 -0.0521  0.0182 -0.2114
41659W        W84753  32.238  22.692  30.114 -0.3332  0.2647 -0.1639
41660W        W84754  30.581  25.233  30.414 -0.2031 -0.1152  0.0370
41661W        W84755  29.255  23.931  28.494 -0.0332  0.3251 -0.3899
41662W        W84756  30.442  24.746  30.470  0.0192  0.0930  0.4376
41663W        W84757  31.049  22.982  28.255  0.2455 -0.1288  0.2218
41664W        W84758  31.005  25.345  28.391  0.3899  0.0671  0.1488
41665W        W84759  30.701  23.408  30.581 -0.1304 -0.1323  0.1088
41666W        W84760  34.145  21.356   0.157 -0.0759 -0.3024 -0.2376
41667W        W84761  32.927  23.498  28.667  0.1790  0.1837  0.4880
41668W        W84762  31.864  23.322  31.697  0.1058 -0.0301 -0.0495
41669W        W84763  31.441  21.828  29.789 -0.1294  0.1235  0.1742
41670W        W84764  32.913  24.955  29.299  0.0516 -0.1135  0.0688
41671W        W84765  29.108  22.514  29.284 -0.2185  0.0663 -0.1399
41672W        W84766  31.020  26.569  31.288  0.1617  0.2389  0.0900
41673W        W84767  28.785  23.501  31.332  0.1303 -0.0183  0.0565
41674W        W84768  30.411  21.562  28.572 -0.1738  0.0276  0.2432
41675W        W84769  29.145  21.584  29.427  0.3371  0.1869  0.1804
41676W        W84770  30.616  22.505  30.371 -0.2049 -0.0084 -0.1441
41677W        W84771  32.681  24.312  29.802 -0.1557  0.1901 -0.2179
41678W        W84772  31.531  25.180  27.407  0.0044  0.3935  0.1668
41679W        W84773  32.129  23.494  30.272 -0.0140 -0.0293 -0.2122
41680W        W84774  29.867  24.606   0.043  0.1256 -0.0949  0.0770
41681W        W84775  32.130  25.456  29.748 -0.0725  0.0942  0.1482
41682W        W84776  31.454  23.181  27.279 -0.1502  0.0621 -0.1077
41683W        W84777  30.073  23.474  28.994  0.2445 -0.2201 -0.0431
41684W        W84778  28.999  21.802  30.954  0.2717 -0.2574  0.0163
41685W        W84779  32.912  24.406  31.130  0.0085  0.0205  0.1665
41686W        W84780  32.974  23.258  30.601  0.2157  0.1082  0.1940
41687W        W84781  31.661  23.372  29.646  0.2507  0.3501 -0.0782
41688W        W84782  33.521  22.657  30.145  0.2021 -0.4518  0.2005
41689W        W84783  29.710  23.667  31.492 -0.0923 -0.1844 -0.0890
41690W        W84784  30.182  24.095  30.709 -0.2440  0.2170  0.0738
41691W        W84785  32.388  25.454   0.030 -0.0850  0.3497  0.1415
41692W        W84786  32.337  23.475  29.644 -0.2068  0.1961  0.0625
41693W        W84787  31.315  23.830  30.493 -0.1819  0.1048 -0.2438
41694W        W84788  32.820  23.877  29.459 -0.1463  0.4332 -0.0312
41695W        W84789  31.072  23.929  29.846 -0.0174  0.2194  0.2798
41696W        W84790  29.859  23.455  29.548  0.1462  0.0142 -0.0938
41697W        W84791  31.659  23.928  31.904  0.2681  0.2797 -0.0514
41698W        W84792  30.880  22.923  27.082  0.2608 -0.1415 -0.1689
41699W        W84793  32.247  21.615   0.314  0.2001  0.3411  0.1869
41700W        W84794  31.388  24.624  28.798  0.2119  0.2350  0.0293
41701W        W84795  31.819  23.886  30.464 -0.0130  0.1049  0.2062
41702W        W84796  30.875  23.439  28.538  0.1821  0.1996  0.2759
41703W        W84797  27.989  23.186  29.710 -0.2808 -0.0198 -0.0988
41704W        W84798  30.449  25.988  30.896 -0.2489  0.2312  0.0736
41705W        W84799  29.923  23.865  26.689  0.0865  0.0876  0.0482
41706W        W84800  30.534  23.763  28.241 -0.0418 -0.0880 -0.1899
41707W        W84801  31.458  24.439  31.098 -0.2450 -0.3694  0.0387
41708W        W84802  32.837  24.795  31.575  0.0554 -0.2777  0.0220
41709W        W84803  31.890  22.052  28.677 -0.2681 -0.0895 -0.0823
41710W        W84804  32.731  22.598  31.564 -0.0791 -0.2703  0.2884
41711W        W84805  29.346  24.277  29.914  0.0541  0.0121  0.3163
41712W        W84806  31.540  22.407  29.491  0.0712 -0.0919  0.0030
41713W        W84807  30.713  25.486  29.536 -0.0715 -0.0060 -0.0768
41714W        W84808  28.987  24.373  30.240  0.1505  0.0403  0.0141
41715W        W84809  30.218  25.143  28.796 -0.0712 -0.0727 -0.4042
41716W        W84810  31.721  22.638  30.318 -0.1481 -0.2627 -0.2693
41717W        W84811  32.149  24.403  28.880 -0.2486  0.3587  0.0873
41718W        W84812  32.506  24.463  30.806  0.1276 -0.0192  0.2947
41719W        W84813  33.936  21.967  30.093  0.0306 -0.2407  0.1546
41720W        W84814  32.262  25.768  31.638  0.1502 -0.2879  0.1050
41721W        W84815  29.333  22.855  30.017  0.0432 -0.2754  0.0408
41722W        W84816  31.920  25.277  31.174  0.0100 -0.1437 -0.1031
41723W        W84817  32.757  23.264  29.743  0.0424 -0.0719  0.2031
41724W        W84818  28.852  24.284  29.602 -0.0831 -0.0861 -0.0761
41725W        W84819  30.734  22.946  30.794  0.0343  0.2029  0.0729
41726W        W84820  30.751  23.704   0.404 -0.2021  0.1452  0.1542
41727W        W84821  32.491  23.202  30.229 -0.0976 -0.1262 -0.2751
41728W        W84822  29.854  23.151  28.634  0.1151 -0.1530 -0.0280
41729W        W84823  30.444  24.163  28.590 -0.0082  0.0568  0.0602
41730W        W84824  29.344  25.629  31.483 -0.0413 -0.0319 -0.1918
41731W        W84825  31.705  24.541  30.036  0.1668 -0.0187  0.0535
41732W        W84826  30.791  26.171  29.048 -0.2463 -0.1671 -0.1343
41733W        W84827  31.495  25.085  29.019  0.0991  0.0337 -0.1851
41734W        W84828  30.913  24.358  29.527 -0.3537 -0.0354  0.3226
41735W        W84829  33.318  24.918  31.702  0.2996  0.2417 -0.0726
41736W        W84830  31.504  23.226  29.215 -0.3261  0.1640 -0.0441
41737W        W84831  30.403  25.862  29.500  0.1378 -0.1329 -0.0661
41738W        W84832  30.331  25.605  27.519 -0.3380  0.0712 -0.1769
41739W        W84833  31.720  24.493  28.369 -0.0557  0.1587 -0.0600
41740W        W84834  30.195  24.054  28.065  0.0864  0.0306 -0.2414
41741W        W84835  32.235  24.145  31.848  0.1389 -0.1007  0.3977
41742W        W84836  32.500  22.648  26.530 -0.1426  0.1122 -0.6095
41743W        W84837  33.312  23.563  28.335  0.2642  0.1424 -0.0057
41744W        W84838  32.339  23.401  28.953 -0.1540 -0.0831  0.1502
41745W        W84839  29.722  24.695   1.300 -0.2757 -0.0841  0.0938
41746W        W84840  31.953  24.358  31.554 -0.1260  0.1875  0.3049
41747W        W84841  32.329  22.813  28.894  0.0531 -0.0341  0.2175
41748W        W84842  30.761  23.363  31.118 -0.1924 -0.2788 -0.0015
41749W        W84843  33.495  21.428  30.712 -0.0491  0.0797 -0.0747
41750W        W84844  29.374  25.742  31.971  0.1142 -0.1358  0.1169
41751W        W84845  31.956  25.319  29.012 -0.0928  0.5155  0.0999
41752W        W84846  28.298  22.693  28.715  0.2997 -0.1841  0.0247
41753W        W84847  31.288  23.641  29.435  0.2217  0.1445  0.3002
41754W        W84848  33.439  22.158  29.980  0.0568  0.1991  0.2215
41755W        W84849  33.021  25.743  26.458  0.0127 -0.7196 -0.1424
41756W        W84850  33.591  24.090  29.104  0.1243  0.0058  0.1230
41757W        W84851  30.378  26.830  26.636  0.2970 -0.0215  0.0001
41758W        W84852  30.301  25.242  29.524  0.3730  0.2450  0.1142
41759W        W84853  32.996  25.282  31.439  0.4069  0.1215  0.1515
41760W        W84854  29.217  22.322  28.650  0.1955 -0.1184 -0.0276
41761W        W84855  34.016  23.452  29.824  0.1228  0.0592  0.2059
41762W        W84856  29.094  23.050  31.844  0.0992  0.3094 -0.0606
41763W        W84857  31.716  21.660  31.571 -0.2122 -0.1941 -0.2675
41764W        W84858  31.883  23.565  28.577  0.2993  0.1375  0.1418
41765W        W84859  33.236  22.805  28.440  0.0626  0.0799 -0.0000
41766W        W84860  31.452  24.608  31.671 -0.0447 -0.0212 -0.0714
41767W        W84861  30.419  22.156  30.717 -0.0473 -0.2364  0.1157
41768W        W84862  30.806  21.301  28.189 -0.1859  0.1405  0.0989
41769W        W84863  31.783  23.520  31.161  0.1206 -0.2529  0.1036
41770W        W84864  31.049  24.283  28.972 -0.0498  0.0105  0.2162
41771W        W84865  31.628  25.712  31.313 -0.1708 -0.1518 -0.2604
41772W        W84866  30.568  22.222  29.889 -0.0302  0.1372  0.1183
41773W        W84867  31.141  22.664  27.534  0.1877 -0.2134 -0.1656
41774W        W84868  30.600  24.027  29.870 -0.0939 -0.3479  0.2375
41775W        W84869  31.976  23.061  30.411  0.0910 -0.0780  0.1095
41776W        W84870  31.706  24.885   0.364 -0.1464  0.0386 -0.0148
41777W        W84871  30.250  22.753  28.015 -0.2542  0.2103 -0.2694
41778W        W84872  32.717  25.007  26.656 -0.1976 -0.0336  0.1268
41779W        W84873  33.055  23.813  31.600 -0.1097  0.0242 -0.0075
41780W        W84874  30.973  24.839  28.197 -0.0921 -0.2902 -0.4027
41781W        W84875  32.828  24.885  30.804 -0.0416  0.0233  0.1318
41782W        W84876  31.650  26.402  28.876 -0.3060  0.1735 -0.2174
41783W        W84877  29.381  21.265  29.682 -0.1917  0.0995 -0.5721
41784W        W84878  31.940  24.861  31.600  0.0675 -0.0346  0.1065
41785W        W84879  32.614  25.033  30.355 -0.2323  0.0866  0.0145
41786W        W84880  31.057  22.279  28.904  0.0237 -0.0012  0.4980
41787W        W84881  31.230  24.744  30.803 -0.3110 -0.3032 -0.0366
41788W        W84882  29.785  25.364  29.126  0.1632  0.0751 -0.0018
41789W        W84883  32.975  24.322  30.626  0.0504  0.1118  0.1483
41790W        W84884  31.798  21.742   0.043 -0.0167 -0.1174 -0.1582
41791W        W84885  30.945  25.900  28.614  0.4168  0.1531 -0.4080
41792W        W84886  34.236  21.173  30.146  0.1929 -0.0845 -0.1261
41793W        W84887  30.753  25.271  31.434  0.0263  0.1029  0.2557
41794W        W84888  31.010  23.830   1.323 -0.2557  0.1578  0.1878
41795W        W84889  28.984  24.514  27.342 -0.0746 -0.2419  0.4928
41796W        W84890  30.081  24.990  31.747  0.0638  0.0097 -0.2784
41797W        W84891  30.152  23.708  29.851 -0.2324 -0.1953  0.1541
41798W        W84892  29.791  24.635  28.771  0.2614 -0.1382  0.1697
41799W        W84893  31.711  24.864  30.645 -0.0451  0.0127  0.1487
41800W        W84894  30.664  23.023  30.289  0.0160  0.0954  0.0335
41801W        W84895  34.329  24.781  29.552 -0.0427  0.1027  0.0417
41802W        W84896  30.068  22.914  29.474 -0.1770 -0.0985 -0.0527
41803W        W84897  33.478  22.793  29.162 -0.3243 -0.2097 -0.1243
41804W        W84898  31.789  21.248  29.167 -0.1696  0.0503 -0.2110
41805W        W84899  30.915  24.593  31.844  0.0166  0.2576  0.1398
41806W        W84900  27.051  23.989  29.020  0.0368 -0.0041 -0.1231
41807W        W84901  29.421  24.372  27.347  0.0126  0.3035  0.3233
41808W        W84902  29.892  25.496  31.784 -0.1640  0.0896 -0.2035
41809W        W84903  30.828  21.124  30.380  0.0544 -0.0436  0.3392
41810W        W84904  28.993  23.490   0.772 -0.3650 -0.1806  0.0170
41811W        W84905  28.748  23.956  27.917 -0.3330 -0.2629  0.1683
41812W        W84906  29.684  23.568  28.179  0.4965 -0.0305  0.0505
41813W        W84907  32.130  23.900  28.965  0.0961 -0.2821  0.0387
41814W        W84908  32.604  22.063  29.968  0.0458 -0.2185  0.3890
41815W        W84909  30.007  22.289  29.729  0.0219 -0.2402  0.2430
41816W        W84910  31.422  25.019  28.422 -0.2627 -0.0734 -0.0878
41817W        W84911  32.488  25.101  29.502 -0.2329  0.0173 -0.1100
41818W        W84912  32.728  21.461  29.136 -0.0397  0.1994  0.2880
41819W        W84913  33.169  26.249  31.615 -0.2170  0.0959  0.0716
41820W        W84914  28.784  24.194  28.320  0.0465 -0.2363  0.2645
41821W        W84915  30.915  23.003  31.937 -0.0070  0.0399 -0.1016
41822W        W84916  30.052  20.997  30.971  0.0748 -0.1263  0.2405
41823W        W84917  30.756  22.654  28.015 -0.3010 -0.1505  0.0843
41824W        W84918  30.368  25.396  31.718 -0.0523 -0.0330 -0.0154
41825W        W84919  32.515  24.458  30.329 -0.0245 -0.4564  0.0880
41826W        W84920  32.785  25.455  28.611 -0.0096 -0.0626  0.3959
41827W        W84921  30.545  24.101  31.175 -0.0430  0.1168  0.3548
41828W        W84922  29.697  25.122   0.084 -0.1121 -0.2016  0.0961
41829W        W84923  28.918  22.966  31.223  0.2768 -0.1653 -0.0483
41830W        W84924  31.163  24.652  29.994 -0.2122  0.0744 -0.0424
41831W        W84925  30.974  24.797  31.442 -0.1734 -0.2834  0.1451
41832W        W84926  33.346  24.806  29.599  0.1024 -0.0455  0.0624
41833W        W84927  34.127  21.940  29.154  0.1182  0.3347 -0.1379
41834W        W84928  32.213  24.020  30.157 -0.1391 -0.1932  0.0216
41835W        W84929  30.420  21.204  31.686 -0.3663 -0.1971  0.0491
41836W        W84930  30.581  24.982  31.805 -0.3952  0.4422 -0.0830
41837W        W84931  33.424  24.254  29.640 -0.3039  0.1626  0.1348
41838W        W84932  32.171  22.660  29.568 -0.0568  0.1221 -0.0156
41839W        W84933  32.939  21.898  28.723 -0.1928 -0.1318 -0.1673
41840W        W84934  32.491  24.785  29.918  0.1639 -0.0863  0.0213
41841W        W84935  30.328  23.223  30.009 -0.0221 -0.1594 -0.1291
41842W        W84936  31.728  22.900  29.687 -0.1578  0.3152  0.1152
41843W        W84937  33.277  24.374  31.531 -0.0491  0.0666 -0.4062
41844W        W84938  31.073  25.681  29.832  0.1295 -0.1570  0.0485
41845W        W84939  33.670  24.338  30.889 -0.0329  0.0566 -0.1778
41846W        W84940  30.426  22.991  29.006  0.1226  0.0813  0.0975
41847W        W84941  33.266  23.798  28.824 -0.1048 -0.0195 -0.0470
41848W        W84942  31.857  26.405  30.945  0.2849  0.0414 -0.1673
41849W        W84943  33.805  26.045  30.826 -0.1280  0.0458  0.1431
41850W        W84944  30.954  24.878  30.398  0.3525 -0.1101 -0.1040
41851W        W84945  33.334  23.543  30.911 -0.1814  0.0388 -0.2473
41852W        W84946  28.198  23.643  31.624 -0.4190 -0.1182  0.1324
41853W        W84947  32.012  24.260  29.359 -0.0581 -0.0307  0.1259
41854W        W84948  31.027  23.531  30.218  0.2031 -0.0744  0.4848
41855W        W84949  32.295  24.043  30.664 -0.2299 -0.3118  0.0615
41856W        W84950  30.798  21.599  30.526 -0.2015  0.1320  0.2734
41857W        W84951  31.803  22.604  28.667  0.0127 -0.0280 -0.0704
41858W        W84952  30.002  25.850  31.433  0.0945  0.0118  0.2305
41859W        W84953  31.613  24.276  30.669  0.3087  0.4371 -0.0098
41860W        W84954  31.427  23.559  31.570 -0.1084 -0.1706 -0.1393
41861W        W84955  32.886  25.141  31.958 -0.1031 -0.2992 -0.1127
41862W        W84956  31.376  22.731  29.994  0.0409  0.0065  0.1566
41863W        W84957  30.468  26.028  31.775  0.0204 -0.1697  0.0453
41864W        W84958  30.232  24.869   0.342 -0.0249  0.0738 -0.0942
41865W        W84959  29.748  25.647   0.831  0.4701  0.0955 -0.0123
41866W        W84960  34.001  22.703  30.580  0.0176 -0.1708 -0.0296
41867W        W84961  30.433  21.205   1.247 -0.0748  0.3704 -0.0291
41868W        W84962  32.228  22.047   0.078  0.0261  0.0772 -0.0612
41869W        W84963  34.082  26.413   0.973 -0.2878 -0.0190  0.0502
41870W        W84964  31.716  25.973  31.832  0.0475  0.0304 -0.0793
41871W        W84965  29.813  23.291  31.904 -0.0577 -0.0333 -0.2014
41872W        W84966  31.872  24.063  31.077 -0.1646  0.1480  0.1136
41873W        W84967  29.521  24.267   1.283 -0.1512  0.1542 -0.1120
41874W        W84968  32.435  22.247  31.386  0.0779  0.4683  0.0010
41875W        W84969  28.160  25.470   0.608  0.1100 -0.1096 -0.0232
41876W        W84970  29.264  23.424   0.242 -0.1564 -0.0121  0.3068
41877W        W84971  32.334  25.190  31.577  0.0911 -0.0803 -0.1782
41878W        W84972  28.673  22.479   0.937 -0.2512 -0.0218 -0.4585
41879W        W84973  31.047  22.299  31.891 -0.0633  0.2696  0.0619
41880W        W84974  29.144  22.558   0.770 -0.0636  0.1248  0.0289
41881W        W84975  29.088  24.964   0.571  0.0731 -0.0624 -0.1033
41882W        W84976  33.732  22.438  31.415 -0.3351 -0.0809 -0.0812
41883W        W84977  32.638  23.091  31.378 -0.0583  0.1995  0.1038
41884W        W84978  30.675  22.052  31.681  0.0984 -0.0238  0.1599
41885W        W84979  30.988  23.626  31.913  0.1374  0.5451 -0.0946
41886W        W84980  29.951  22.642  31.105 -0.1886  0.2521  0.2628
41887W        W84981  27.948  25.254  30.969 -0.0489 -0.3662 -0.0855
41888W        W84982  33.230  22.902  29.658 -0.0535 -0.1247 -0.0752
41889W        W84983  30.041  23.008   0.441 -0.2846 -0.2705 -0.1320
41890W        W84984  31.375  25.269  31.487  0.3669  0.0011 -0.4220
41891W        W84985  31.326  22.673  31.964 -0.2655 -0.1574 -0.3694
41892W        W84986  33.486  23.248   0.456  0.0189  0.2392  0.0273
41893W        W84987  30.907  22.434  31.421 -0.2941 -0.1244 -0.0618
41894W        W84988  28.930  23.645  31.876  0.0458  0.1273  0.2516
41895W        W84989  27.352  23.342   0.663 -0.0685 -0.0421 -0.3600
41896W        W84990  30.347  24.848   1.359  0.1388 -0.0099  0.0766
41897W        W84991  32.197  23.620   0.022 -0.0982  0.0997  0.0444
41898W        W84992  32.224  23.455  31.376 -0.0959  0.2635  0.1593
41899W        W84993  32.015  23.857  31.537  0.1053 -0.0501  0.3124
41900W        W84994  33.576  21.628  31.797  0.3541  0.1668 -0.2612
41901W        W84995  31.089  25.087  31.869 -0.0216  0.1982 -0.1215
41902W        W84996  30.621  22.569  31.874  0.2121 -0.1400 -0.0798
41903W        W84997  30.743  24.777   0.337 -0.2007 -0.0419  0.2901
41904W        W84998  29.528  22.462   0.418 -0.3312  0.3200 -0.3281
41905W        W84999  31.266  24.208  31.947 -0.0786 -0.0573 -0.1728
41906W        W85000  31.315  22.046   0.341  0.3149  0.1044  0.1446
41907W        W85001  31.580  25.089  31.908 -0.1230 -0.1243  0.1053
41908W        W85002  33.035  25.082   0.480 -0.0235  0.0161  0.0114
41909W        W85003  29.626  24.493  31.062 -0.4165  0.0136 -0.1801
41910W        W85004  33.480  25.397   0.520  0.1770  0.0291 -0.2116
41911W        W85005  32.201  19.982  30.968 -0.1767  0.2795 -0.5523
41912W        W85006  31.206  21.190  31.699 -0.3512  0.0939 -0.3598
41913W        W85007  32.565  24.933   0.365  0.1412  0.1497  0.0819
41914W        W85008  30.929  22.863   0.812  0.0017 -0.3745 -0.1072
41915W        W85009  31.286  24.743   0.182 -0.1411 -0.1479  0.4192
41916W        W85010   0.358  24.280  31.818  0.0800 -0.0475 -0.1450
41917W        W85011  30.562  25.611   0.650  0.0917 -0.0408 -0.0613
41918W        W85012  30.047  24.392  31.569  0.0248 -0.1125  0.0072
41919W        W85013  29.904  23.989  31.856 -0.0560  0.1247 -0.1576
41920W        W85014  31.070  23.167  31.502  0.0102  0.0748 -0.0482
41921W        W85015  30.592  23.289  31.616  0.0824 -0.0364  0.1416
41922W        W85016  28.678  22.725   0.486 -0.0055 -0.2206 -0.0818
41923W        W85017  29.007  22.183   0.478 -0.0753  0.0837 -0.1319
41924W        W85018  30.797  26.379  31.964  0.1082  0.3614  0.5118
41925W        W85019  32.963  24.639   0.130  0.1959 -0.1154 -0.1404
41926W        W85020  32.430  24.649  31.876  0.0878 -0.2067 -0.0514
41927W        W85021  29.532  28.354  19.882 -0.4892 -0.0820  0.2606
41928W        W85022  29.752  26.687  16.629  0.0740 -0.0143  0.1063
41929W        W85023  32.784  27.663  16.394  0.0761  0.1906  0.2195
41930W        W85024  33.850  27.002  16.610  0.2305 -0.3976  0.1475
41931W        W85025  29.349  25.905  17.656 -0.3405 -0.2400 -0.1431
41932W        W85026  31.135  30.367  16.788 -0.1715 -0.0280 -0.0040
41933W        W85027  29.910  24.580  18.637  0.0197 -0.1282  0.1340
41934W        W85028  31.352  28.643  18.838 -0.2290  0.1555  0.1126
41935W        W85029  32.308  28.820  18.147 -0.1894  0.0448  0.0133
41936W        W85030  31.145  27.408  16.728 -0.3821  0.0978  0.1782
41937W        W85031  30.941  25.272  19.038 -0.2055 -0.0683 -0.1942
41938W        W85032  30.620  29.027  20.717 -0.3504 -0.1203 -0.1548
41939W        W85033  30.986  25.386  18.237  0.0753 -0.0676  0.4231
41940W        W85034  29.282  25.093  18.286  0.0931  0.0828 -0.3350
41941W        W85035  32.527  26.934  18.890  0.0039 -0.1145 -0.1374
41942W        W85036  29.900  28.108  17.512  0.0449 -0.0147  0.0042
41943W        W85037  31.050  25.793  19.289  0.0947 -0.3112  0.0300
41944W        W85038  31.235  25.997  18.048  0.2618 -0.2107 -0.3485
41945W        W85039  32.365  28.215  18.333 -0.2865 -0.2488  0.1459
41946W        W85040  29.597  25.461  19.760 -0.0520  0.4082  0.0930
41947W        W85041  31.753  25.537  18.594 -0.0915 -0.1413  0.3041
41948W        W85042  29.934  27.166  17.557 -0.1112 -0.1350  0.2544
41949W        W85043  30.496  27.818  17.260 -0.1860 -0.0241  0.1324
41950W        W85044  29.044  25.612  19.265 -0.2742  0.1020 -0.0319
41951W        W85045  30.001  26.310  18.227  0.0974  0.1064  0.3119
41952W        W85046  32.468  26.014  18.657 -0.2187  0.2635 -0.1651
41953W        W85047  32.401  27.281  16.685 -0.0724  0.1694  0.0141
41954W        W85048  30.285  30.012  17.793 -0.0443 -0.0526 -0.0814
41955W        W85049  32.216  29.501  19.083 -0.2370 -0.1669 -0.2731
41956W        W85050  30.554  27.929  18.602  0.1369  0.1068 -0.0328
41957W        W85051  30.775  26.764  18.656  0.1485 -0.2018 -0.0305
41958W        W85052  29.904  29.594  17.956 -0.1208  0.2324 -0.1863
41959W        W85053  31.252  28.752  19.781  0.1070 -0.3956  0.0694
41960W        W85054  32.010  28.709  17.192 -0.0435 -0.1199  0.0399
41961W        W85055  32.392  28.956  17.639  0.2832  0.1548 -0.0906
41962W        W85056  30.726  29.187  20.139 -0.0845  0.0677  0.2128
41963W        W85057  29.411  29.252  16.183 -0.1969  0.3266  0.1469
41964W        W85058  30.105  29.100  19.956 -0.2575  0.1065 -0.0370
41965W        W85059  29.271  29.237  20.481 -0.3366  0.0432  0.1537
41966W        W85060  30.487  26.214  18.828 -0.1803 -0.3322 -0.0445
41967W        W85061  32.376  26.868  17.114  0.0672  0.2380 -0.1652
41968W        W85062  29.337  28.549  16.890  0.3269 -0.1303  0.0623
41969W        W85063  30.854  25.817  18.357 -0.0879  0.1695 -0.2317
41970W        W85064  29.831  28.115  18.095  0.2896  0.0038 -0.0857
41971W        W85065  29.280  27.566  16.740  0.0144  0.3042  0.2876
41972W        W85066  32.191  26.372  19.854  0.0721  0.0255 -0.0471
41973W        W85067  29.982  29.323  17.098 -0.2788  0.0631 -0.0481
41974W        W85068  32.916  28.077  16.045  0.1402  0.1536  0.2110
41975W        W85069  31.049  26.181  16.272 -0.1731 -0.1424  0.1124
41976W        W85070  33.514  25.096  16.721  0.1025  0.0063 -0.1088
41977W        W85071  30.663  25.756  18.817  0.0504  0.1830  0.0876
41978W        W85072  28.612  28.845  17.709 -0.1885 -0.0059  0.1385
41979W        W85073  30.322  26.176  19.666 -0.1461 -0.1285 -0.0319
41980W        W85074  32.011  28.208  19.486  0.6530  0.0840 -0.0133
41981W        W85075  30.660  27.978  18.086  0.1167  0.0020  0.1257
41982W        W85076  31.014  27.451  19.344  0.2174 -0.2875 -0.1318
41983W        W85077  29.636  29.008  18.639 -0.1056  0.1882  0.3320
41984W        W85078  29.778  26.235  17.692  0.2110  0.0570 -0.5104
41985W        W85079  32.341  28.739  16.085 -0.1517  0.1480 -0.3970
41986W        W85080  32.800  27.740  17.004 -0.0994 -0.0172 -0.1413
41987W        W85081  30.861  28.370  18.449  0.1504  0.0005 -0.0409
41988W        W85082  29.978  25.783  17.667  0.1978  0.1163  0.1298
41989W        W85083  30.315  26.815  18.921 -0.0907  0.0894 -0.2117
41990W        W85084  28.744  26.353  19.336  0.0723  0.1413  0.0517
41991W        W85085  29.810  24.619  17.282 -0.1023 -0.2135  0.0472
41992W        W85086  33.369  27.431  19.718  0.4749  0.1374  0.1624
41993W        W85087  29.638  28.277  19.169  0.1149 -0.0710  0.0773
41994W        W85088  31.697  26.889  18.300  0.0590 -0.0325 -0.1449
41995W        W85089  30.401  27.253  18.668 -0.0397 -0.1190 -0.0496
41996W        W85090  32.288  27.854  17.334  0.2578  0.0733 -0.0821
41997W        W85091  31.982  29.050  16.067 -0.1189  0.0715 -0.0200
41998W        W85092  32.129  26.134  17.803 -0.0199 -0.0358 -0.0360
41999W        W85093  32.608  25.866  18.196  0.2298 -0.0493 -0.1188
42000W        W85094  31.315  28.236  17.002 -0.3577  0.1488  0.3323
42001W        W85095  31.703  28.146  17.924  0.1167  0.2047  0.0269
42002W        W85096  34.129  28.559  17.960 -0.1304 -0.1698 -0.1053
42003W        W85097  32.388  25.910  17.347  0.1448  0.0709 -0.1563
42004W        W85098  29.586  28.838  17.940  0.0740 -0.1411 -0.2111
42005W        W85099  30.764  26.434  19.673  0.1286 -0.0172 -0.2542
42006W        W85100  29.885  28.600  20.205  0.3027  0.1989  0.0548
42007W        W85101  29.941  28.565  16.318  0.0838  0.1477  0.0341
42008W        W85102  28.759  27.902  19.306  0.0664  0.0761 -0.3261
42009W        W85103  29.458  26.862  17.622 -0.0671 -0.0610 -0.0427
42010W        W85104  29.255  24.192  18.434 -0.1038  0.0994  0.1187
42011W        W85105  30.703  26.078  19.369 -0.2443  0.0573 -0.2847
42012W        W85106  32.183  26.666  16.553  0.0283  0.1195  0.0720
42013W        W85107  28.663  25.278  19.539  0.1084  0.1458  0.2104
42014W        W85108  33.215  25.865  18.695  0.5274 -0.0050 -0.3375
42015W        W85109  30.481  27.006  18.242 -0.4066  0.2492  0.1218
42016W        W85110  32.708  29.355  17.493 -0.3618  0.2014 -0.0933
42017W        W85111  31.759  28.004  16.414  0.2905 -0.0623  0.1919
42018W        W85112  31.191  29.070  15.817 -0.2848 -0.0977  0.1098
42019W        W85113  29.120  26.182  18.971  0.0346  0.3831 -0.0214
42020W        W85114  30.189  25.414  17.174 -0.1357 -0.0974 -0.0492
42021W        W85115  29.356  26.267  21.883  0.2659  0.1207 -0.2823
42022W        W85116  29.220  25.987  18.210  0.0452  0.1128 -0.2745
42023W        W85117  31.921  26.833  19.689  0.3888  0.2117  0.1960
42024W        W85118  29.068  25.126  17.272 -0.1081 -0.0432 -0.0148
42025W        W85119  32.280  27.208  18.527  0.2753  0.2644  0.2158
42026W        W85120  31.174  27.363  17.192 -0.4420  0.1613  0.0836
42027W        W85121  30.924  28.369  17.364  0.1209  0.0890 -0.1641
42028W        W85122  32.340  24.920  20.294 -0.0386  0.2480 -0.1677
42029W        W85123  30.830  29.105  18.142  0.0732  0.1034 -0.0980
42030W        W85124  33.009  28.747  18.769 -0.2285 -0.0382  0.2662
42031W        W85125  32.492  30.277  16.988  0.3872 -0.0876 -0.2507
42032W        W85126  29.198  26.136  19.462 -0.0002 -0.0976 -0.0506
42033W        W85127  30.393  26.008  18.388  0.3138 -0.0073 -0.0331
42034W        W85128  30.251  28.315  18.508  0.0502 -0.2180 -0.0187
42035W        W85129  32.341  28.532  19.183 -0.0923  0.1641 -0.0416
42036W        W85130  31.762  26.695  17.462 -0.0002 -0.1826  0.2269
42037W        W85131  32.112  28.168  18.955  0.0326 -0.2802  0.2306
42038W        W85132  31.396  29.047  18.526 -0.1741 -0.0687 -0.3156
42039W        W85133  28.980  26.897  18.606  0.0810 -0.1879 -0.0796
42040W        W85134  33.016  25.061  20.568 -0.2963 -0.0723 -0.2996
42041W        W85135  32.381  27.064  18.057  0.1478  0.0145 -0.2962
42042W        W85136  31.962  28.811  17.785  0.0156  0.1105 -0.0596
42043W        W85137  28.419  25.589  16.284  0.1264  0.0851  0.1689
42044W        W85138  31.414  29.483  17.364 -0.4308 -0.0531 -0.0083
42045W        W85139  30.664  28.830  17.287 -0.2668 -0.0191 -0.3211
42046W        W85140  29.240  27.004  18.143 -0.0886 -0.0698 -0.0703
42047W        W85141  31.069  29.197  17.152  0.4510 -0.0539  0.0408
42048W        W85142  32.006  26.641  17.906  0.2916 -0.0861 -0.0942
42049W        W85143  28.540  28.624  20.222  0.1756 -0.0144  0.2016
42050W        W85144  32.886  26.444  18.961 -0.2310 -0.1835 -0.1006
42051W        W85145  29.442  27.090  16.782  0.1714  0.0112  0.0451
42052W        W85146  29.932  28.611  18.198 -0.2951 -0.0126 -0.2450
42053W        W85147  32.658  26.200  17.730 -0.0859  0.0361  0.0570
42054W        W85148  32.948  26.822  17.206 -0.0610  0.1073  0.0470
42055W        W85149  31.340  26.436  18.240  0.1085 -0.0957  0.1230
42056W        W85150  33.338  26.966  16.589  0.0310 -0.1125  0.3668
42057W        W85151  31.920  25.733  16.460 -0.1717 -0.1341  0.0532
42058W        W85152  32.062  27.129  16.233  0.0063 -0.2422 -0.2148
42059W        W85153  29.338  27.981  20.105 -0.0407  0.3283  0.0874
42060W        W85154  31.061  28.594  19.238 -0.1104  0.0478 -0.2443
42061W        W85155  30.925  27.592  17.958 -0.1886 -0.3337  0.0927
42062W        W85156  30.347  26.513  18.476 -0.3125  0.2526 -0.0458
42063W        W85157  32.840  30.379  17.329 -0.0919  0.0720 -0.0927
42064W        W85158  27.887  26.989  18.550 -0.0123 -0.1356  0.0756
42065W        W85159  31.966  27.903  20.599  0.0502 -0.1311 -0.0828
42066W        W85160  31.691  29.049  17.411 -0.0373  0.4633  0.1723
42067W        W85161  30.730  26.956  19.618  0.1489 -0.1310  0.2282
42068W        W85162  30.610  27.145  16.546  0.4888 -0.2070 -0.0300
42069W        W85163  32.283  26.501  17.517 -0.0977 -0.1349  0.1118
42070W        W85164  28.582  28.035  16.570  0.1173 -0.2196  0.4391
42071W        W85165  32.231  26.082  19.141  0.2304  0.1573 -0.1326
42072W        W85166  29.851  25.736  18.242 -0.0753  0.1805 -0.0479
42073W        W85167  31.142  23.196  19.696  0.1293 -0.0116  0.0462
42074W        W85168  32.473  26.009  19.642 -0.1118  0.1112  0.1704
42075W        W85169  33.229  26.205  16.228  0.2190 -0.3061 -0.2165
42076W        W85170  31.914  27.236  17.904  0.3157  0.0182 -0.2586
42077W        W85171  29.229  26.403  17.600  0.0800  0.0254  0.1491
42078W        W85172  31.065  25.175  20.068  0.0701  0.0263  0.1719
42079W        W85173  28.223  27.128  19.373  0.0379  0.2921  0.0996
42080W        W85174  29.058  30.073  18.178  0.0936 -0.3247 -0.0689
42081W        W85175  32.302  29.282  18.576 -0.1840 -0.3074 -0.1394
42082W        W85176  31.155  28.128  18.047 -0.2182 -0.0735  0.1781
42083W        W85177  31.095  26.181  20.137  0.1976  0.2466  0.0381
42084W        W85178  31.167  26.267  16.729  0.0120 -0.4362 -0.0281
42085W        W85179  29.730  29.336  16.684  0.3046  0.0864  0.0385
42086W        W85180  29.588  27.958  17.106 -0.2940  0.1060 -0.1639
42087W        W85181  29.595  24.978  18.666  0.0184 -0.0956  0.0798
42088W        W85182  30.478  28.668  18.218 -0.0073 -0.1511  0.5550
42089W        W85183  30.537  29.150  16.407  0.2159 -0.2408  0.0202
42090W        W85184  32.206  29.004  18.971  0.0590  0.5704 -0.0337
42091W        W85185  30.101  28.819  17.250 -0.3869  0.2557 -0.0659
42092W        W85186  30.662  25.513  19.385  0.2419 -0.5067  0.2909
42093W        W85187  29.120  28.681  17.793  0.0867  0.0052 -0.0297
42094W        W85188  30.044  26.772  18.056  0.0040  0.0719  0.3416
42095W        W85189  29.998  26.486  17.032 -0.1434 -0.1781  0.1838
42096W        W85190  32.076  27.102  17.397 -0.0853 -0.0752 -0.2032
42097W        W85191  33.718  27.354  17.016  0.0118  0.2908  0.0148
42098W        W85192  29.934  25.372  18.812 -0.1502 -0.0859 -0.2408
42099W        W85193  29.931  25.895  19.609  0.4431  0.1589  0.0334
42100W        W85194  29.328  27.951  19.605  0.0893  0.2165 -0.1320
42101W        W85195  31.115  25.563  18.706  0.0646  0.0062 -0.4211
42102W        W85196  31.883  27.871  16.952  0.0082 -0.2252 -0.1820
42103W        W85197  31.073  29.978  18.378 -0.1737  0.1443  0.2726
42104W        W85198  29.980  27.168  19.033  0.2001 -0.3765 -0.1713
42105W        W85199  29.717  26.904  17.149  0.0693 -0.2116  0.2838
42106W        W85200  31.458  26.584  20.354 -0.1613 -0.1584 -0.1216
42107W        W85201  30.036  26.630  17.524 -0.0731 -0.0732 -0.2254
42108W        W85202  30.129  28.786  18.650 -0.0728 -0.0821  0.1939
42109W        W85203  30.771  29.776  18.841  0.1026  0.2562 -0.0960
42110W        W85204  29.472  28.915  16.541  0.3084 -0.0231  0.0582
42111W        W85205  31.085  27.081  18.431 -0.4182  0.1463 -0.0399
42112W        W85206  31.048  27.014  20.641  0.1813  0.2091  0.2729
42113W        W85207  31.810  27.706  19.039 -0.4712  0.1101  0.0473
42114W        W85208  31.335  26.017  18.545  0.3554  0.2851 -0.2569
42115W        W85209  29.777  26.002  17.208 -0.1404 -0.2590  0.2962
42116W        W85210  30.867  27.059  17.923 -0.1549 -0.1206 -0.0429
42117W        W85211  32.381  27.820  19.172  0.2230  0.2088  0.2078
42118W        W85212  30.993  26.219  18.896 -0.1727 -0.1877  0.1459
42119W        W85213  28.352  27.983  19.819 -0.1144  0.0008  0.0763
42120W        W85214  31.943  25.942  18.749  0.1020  0.2544  0.2167
42121W        W85215  32.549  29.751  17.132  0.2753 -0.2859 -0.0159
42122W        W85216  31.088  28.224  18.873  0.0496 -0.1503 -0.0195
42123W        W85217  30.428  26.893  17.700  0.0383  0.1346 -0.0913
42124W        W85218  27.328  29.284  17.978  0.2598  0.0107  0.0719
42125W        W85219  29.591  26.176  18.569 -0.0806 -0.2570 -0.0440
42126W        W85220  30.886  26.742  20.098 -0.1105 -0.0632 -0.0091
42127W        W85221  28.786  27.938  20.139 -0.1186  0.1175  0.0334
42128W        W85222  31.308  28.773  17.241 -0.0878  0.0091 -0.0917
42129W        W85223  29.452  28.385  20.524 -0.2171 -0.0902 -0.0450
42130W        W85224  32.422  25.725  16.462 -0.3118  0.4725  0.0918
42131W        W85225  30.869  29.023  16.766  0.4227  0.1607  0.1223
42132W        W85226  31.630  26.444  16.596 -0.2316 -0.2167 -0.0940
42133W        W85227  32.932  25.896  19.894 -0.0043 -0.0928 -0.0649
42134W        W85228  31.810  28.174  17.338 -0.0070  0.0322 -0.1708
42135W        W85229  31.303  26.284  19.281 -0.1511 -0.0742  0.1545
42136W        W85230  29.352  24.828  19.939  0.3357 -0.3333 -0.0095
42137W        W85231  31.742  28.793  16.557  0.2067  0.0179 -0.3253
42138W        W85232  29.853  27.174  20.042 -0.0707 -0.1385 -0.1914
42139W        W85233  30.697  29.297  18.968 -0.0489 -0.0828  0.1134
42140W        W85234  30.204  26.786  20.338  0.3476 -0.0369 -0.1592
42141W        W85235  31.645  26.281  17.841  0.0682 -0.1937  0.1356
42142W        W85236  30.378  26.092  16.231 -0.1688 -0.0878  0.0711
42143W        W85237  30.278  27.699  18.273 -0.0374  0.1356  0.1717
42144W        W85238  31.378  29.147  17.850 -0.0659 -0.1052  0.5833
42145W        W85239  32.394  28.452  17.436 -0.2473  0.0748  0.0102
42146W        W85240  31.293  27.780  18.969  0.0517 -0.4303 -0.2968
42147W        W85241  30.017  27.031  18.539  0.1195 -0.0428 -0.0286
42148W        W85242  32.296  26.340  17.024  0.3625 -0.1481  0.0398
42149W        W85243  31.009  27.899  17.136 -0.3160  0.1276 -0.0435
42150W        W85244  30.911  26.303  18.399 -0.3127 -0.2219 -0.2413
42151W        W85245  28.669  25.846  19.800 -0.3442 -0.1931 -0.0938
42152W        W85246  31.383  27.422  18.628  0.5362 -0.1578 -0.1370
42153W        W85247  31.743  25.828  19.456  0.0427 -0.0585  0.0655
42154W        W85248  31.638  26.284  18.935  0.0040  0.0107  0.1297
42155W        W85249  31.853  27.413  18.423  0.1582 -0.3077  0.0705
42156W        W85250  29.670  26.337  19.511 -0.2273 -0.1802 -0.0827
42157W        W85251  29.050  26.028  20.119 -0.0964  0.2401 -0.0228
42158W        W85252  32.434  30.068  18.192 -0.0842  0.1487 -0.0410
42159W        W85253  32.948  27.315  16.728 -0.0537  0.2884  0.3157
42160W        W85254  30.030  26.269  20.422  0.0380  0.2206  0.3821
42161W        W85255  33.313  26.349  17.195  0.1796  0.0277 -0.0320
42162W        W85256  31.964  27.481  16.552  0.0161  0.1579  0.4042
42163W        W85257  29.486  24.769  19.233  0.0912  0.1642  0.1002
42164W        W85258  31.478  27.006  19.975 -0.0028  0.0598 -0.1987
42165W        W85259  30.548  25.631  17.519  0.0396  0.0766  0.0479
42166W        W85260  30.276  25.114  19.358  0.0325  0.0886  0.3328
42167W        W85261  31.524  29.536  18.287  0.1552 -0.1325 -0.2496
42168W        W85262  31.351  28.060  17.496 -0.1548  0.0002  0.2873
42169W        W85263  32.130  26.715  18.412 -0.0139 -0.0258  0.2012
42170W        W85264  29.560  26.481  17.248 -0.0315 -0.0218 -0.2097
42171W        W85265  29.795  30.433  18.165 -0.3819  0.1593  0.1671
42172W        W85266  30.481  26.383  17.048  0.1270  0.3300 -0.0239
42173W        W85267  29.799  27.181  18.103  0.2159  0.2730 -0.1396
42174W        W85268  31.345  27.577  17.615  0.0895  0.0044  0.1334
42175W        W85269  32.034  26.783  19.130  0.0043  0.0873 -0.2531
42176W        W85270  31.605  26.026  16.939 -0.0637 -0.2368  0.3229
42177W        W85271  31.681  26.315  19.875 -0.1164  0.0283  0.0363
42178W        W85272  30.877  27.531  18.817  0.2219 -0.4913 -0.2939
42179W        W85273  32.185  25.481  19.576 -0.1848 -0.2741 -0.1683
42180W        W85274  29.278  28.812  18.357  0.0262 -0.2317 -0.0920
42181W        W85275  29.451  25.806  18.872 -0.0087 -0.0490  0.0435
42182W        W85276  30.747  30.056  17.967 -0.1252  0.2709 -0.0648
42183W        W85277  32.520  26.445  19.315  0.1852 -0.0253  0.1140
42184W        W85278  31.494  27.716  18.217  0.1662 -0.0674 -0.0409
42185W        W85279  30.545  25.703  17.996 -0.0508  0.2060  0.0080
42186W        W85280  33.405  26.998  20.087 -0.2416  0.0472  0.0883
42187W        W85281  31.238  26.955  19.538  0.0704 -0.0341 -0.0827
42188W        W85282  28.432  26.959  17.679  0.0701  0.0278  0.0632
42189W        W85283  31.515  28.725  19.369 -0.0251  0.0510  0.0822
42190W        W85284  33.944  28.679  17.110 -0.1145  0.0887  0.1252
42191W        W85285  29.209  28.765  19.831 -0.1334  0.0010  0.2775
42192W        W85286  27.323  27.798  20.722  0.2573 -0.1657  0.1213
42193W        W85287  31.555  27.665  20.324 -0.0323  0.0038  0.1926
42194W        W85288  31.935  28.312  18.454  0.0060  0.0549  0.1542
42195W        W85289  30.049  25.883  18.731 -0.0122  0.0982 -0.0732
42196W        W85290  30.397  28.347  17.426  0.1688  0.1121  0.3224
42197W        W85291  30.388  28.003  19.434 -0.0584  0.1766  0.3259
42198W        W85292  28.273  25.195  19.126  0.0083 -0.3960  0.1780
42199W        W85293  28.943  28.317  18.090  0.1490 -0.3202  0.0281
42200W        W85294  33.841  27.849  17.475 -0.2528 -0.0589  0.2202
42201W        W85295  30.894  28.500  16.874  0.0821 -0.1444  0.0445
42202W        W85296  30.502  30.101  19.133 -0.0271 -0.0127 -0.1577
42203W        W85297  30.369  26.859  17.214 -0.0301  0.1521  0.0454
42204W        W85298  30.250  28.290  17.932  0.1342 -0.0954  0.2135
42205W        W85299  29.841  27.609  17.757 -0.1160 -0.2884  0.2378
42206W        W85300  30.888  29.507  16.715 -0.2480 -0.1516  0.1298
42207W        W85301  29.992  29.594  19.944  0.1370  0.0569 -0.2078
42208W        W85302  33.214  29.959  19.498 -0.1196  0.0041  0.0361
42209W        W85303  32.983  26.712  16.227 -0.0894  0.1678  0.1817
42210W        W85304  32.805  29.108  17.958  0.1038  0.4792  0.1026
42211W        W85305  32.494  26.761  16.211 -0.1576 -0.3927  0.1663
42212W        W85306  32.431  28.613  19.671 -0.2560  0.1913  0.3226
42213W        W85307  30.326  26.468  19.259 -0.0186  0.0404 -0.1785
42214W        W85308  30.830  26.021  17.777  0.2012 -0.0671 -0.0075
42215W        W85309  30.831  26.613  19.228 -0.1583  0.6766  0.0994
42216W        W85310  33.228  26.496  18.571  0.0767 -0.0308  0.1208
42217W        W85311  30.852  27.792  19.782 -0.0660  0.1292  0.0068
42218W        W85312  30.612  28.647  16.470  0.0709 -0.3930  0.0688
42219W        W85313  29.919  25.259  16.741  0.2682  0.2027  0.2090
42220W        W85314  29.508  26.402  18.069  0.0630 -0.1256  0.4103
42221W        W85315  32.445  25.492  19.079  0.0783  0.2189  0.2607
42222W        W85316  32.806  28.086  16.689 -0.3084  0.0723  0.0481
42223W        W85317  31.534  25.817  18.983  0.0626 -0.2097  0.0860
42224W        W85318  29.879  30.151  18.593  0.0380  0.0629  0.0054
42225W        W85319  29.878  27.551  18.605 -0.1615  0.0985  0.2097
42226W        W85320  30.089  29.178  19.441 -0.5522 -0.2679  0.4224
42227W        W85321  29.321  26.494  16.756  0.1402  0.0327  0.1400
42228W        W85322  33.597  26.878  17.578 -0.0965  0.2033  0.1063
42229W        W85323  29.795  26.108  19.094  0.0641 -0.2745  0.0098
42230W        W85324  32.517  25.369  20.481 -0.1006 -0.1127 -0.0204
42231W        W85325  28.778  26.695  18.994 -0.0747  0.2943 -0.4142
42232W        W85326  31.559  27.128  17.439 -0.1005  0.0581 -0.2325
42233W        W85327  32.188  27.705  18.667  0.0836  0.0658  0.0159
42234W        W85328  28.035  25.653  19.082  0.0067  0.0777 -0.0990
42235W        W85329  30.665  26.504  17.483 -0.1523  0.1287 -0.1470
42236W        W85330  32.254  27.464  19.568 -0.1752  0.2298 -0.1433
42237W        W85331  30.311  27.364  17.360 -0.4498  0.2245 -0.1587
42238W        W85332  31.658  30.109  19.777 -0.0162 -0.1047 -0.0821
42239W        W85333  30.172  25.297  17.637  0.5110 -0.1305 -0.0408
42240W        W85334  31.263  26.379  17.505 -0.0464 -0.2387 -0.0653
42241W        W85335  29.411  28.689  17.381 -0.0472  0.1628 -0.1678
42242W        W85336  30.641  27.176  19.085  0.0509 -0.2607 -0.3060
42243W        W85337  32.635  30.368  19.085  0.0135  0.0937 -0.1419
42244W        W85338  28.363  26.145  17.872 -0.3378  0.0024  0.3237
42245W        W85339  33.576  27.811  17.078 -0.3174 -0.0382  0.2118
42246W        W85340  32.342  28.242  16.969  0.4058 -0.2229  0.2792
42247W        W85341  29.250  29.681  16.332  0.2769  0.1766 -0.0655
42248W        W85342  32.828  28.732  17.416 -0.0108  0.1946  0.0546
42249W        W85343  32.196  28.969  16.537  0.1808 -0.1682 -0.2470
42250W        W85344  29.135  24.714  18.691 -0.0931  0.0325  0.0098
42251W        W85345  33.222  30.404  18.283 -0.0523 -0.1463  0.0560
42252W        W85346  32.436  28.007  19.682 -0.1038 -0.1219 -0.1727
42253W        W85347  31.406  26.782  17.823 -0.1506 -0.0171  0.0892
42254W        W85348  29.897  25.475  19.281  0.0559  0.1668 -0.1540
42255W        W85349  29.493  29.053  17.043 -0.0873  0.0741  0.0546
42256W        W85350  32.587  26.933  17.594 -0.2482  0.0115  0.1124
42257W        W85351  31.795  26.329  18.382 -0.0089 -0.0013  0.1532
42258W        W85352  30.578  29.422  17.104 -0.0951 -0.1382  0.1730
42259W        W85353  32.158  25.532  20.909 -0.2436 -0.0879  0.0042
42260W        W85354  31.383  28.331  18.463  0.0648  0.0956  0.0233
42261W        W85355  29.140  28.348  19.442  0.3778  0.0859 -0.3596
42262W        W85356  29.267  26.788  16.357  0.0349 -0.0367  0.2988
42263W        W85357  31.593  28.271  19.020 -0.0955 -0.1830  0.0020
42264W        W85358  30.980  26.465  17.879 -0.0413 -0.4784  0.0580
42265W        W85359  31.752  28.404  16.852  0.0079 -0.0858  0.2575
42266W        W85360  31.252  29.804  16.898 -0.1466 -0.0532 -0.1357
42267W        W85361  33.080  26.543  17.581 -0.0055 -0.0564  0.1631
42268W        W85362  31.427  29.924  17.949  0.2450  0.3204 -0.4067
42269W        W85363  30.309  26.698  19.850 -0.6231  0.0972 -0.3961
42270W        W85364  34.450  24.975  17.484 -0.1846  0.2403  0.1709
42271W        W85365  32.349  27.576  16.211 -0.3233 -0.0256  0.3319
42272W        W85366  29.959  26.432  18.720  0.1304 -0.2393 -0.1008
42273W        W85367  29.059  27.266  17.577 -0.3172  0.1461  0.0131
42274W        W85368  30.067  28.100  16.918 -0.2541 -0.0487 -0.2103
42275W        W85369  31.083  27.825  18.448  0.4961  0.1230 -0.2525
42276W        W85370  32.236  25.548  18.616  0.0682 -0.1758  0.0121
42277W        W85371  28.196  26.370  19.887  0.0034  0.2890  0.0294
42278W        W85372  28.728  26.337  18.599  0.2106 -0.0151  0.2943
42279W        W85373  29.641  26.721  18.418  0.1477  0.0117  0.2193
42280W        W85374  32.281  29.527  16.785 -0.0206 -0.2172  0.1114
42281W        W85375  28.881  25.156  19.101 -0.0721  0.1711 -0.1614
42282W        W85376  28.926  26.100  17.335 -0.1581  0.0673 -0.0380
42283W        W85377  33.233  27.876  16.427 -0.5952  0.0314  0.0710
42284W        W85378  32.471  29.928  16.397  0.0710 -0.1959 -0.1477
42285W        W85379  30.822  26.115  17.275 -0.3080 -0.2190  0.2158
42286W        W85380  32.710  28.182  19.332 -0.0171  0.2475  0.0463
42287W        W85381  29.533  27.425  17.192 -0.0809  0.3120 -0.2777
42288W        W85382  30.459  28.259  19.871  0.0629  0.0523  0.2844
42289W        W85383  32.210  24.951  19.693  0.1545 -0.3549 -0.2394
42290W        W85384  29.042  27.190  17.001 -0.0275 -0.0802 -0.3430
42291W        W85385  31.401  27.245  18.063  0.0248  0.0240 -0.1898
42292W        W85386  31.513  28.520  17.625  0.2833  0.1878 -0.2173
42293W        W85387  30.941  29.995  16.509 -0.4486 -0.0661  0.1719
42294W        W85388  29.547  27.093  18.757  0.3426  0.0272 -0.2621
42295W        W85389  30.252  28.718  19.651  0.0359  0.1600  0.1853
42296W        W85390  29.120  25.637  19.770 -0.0883 -0.0116  0.1024
42297W        W85391  32.302  27.865  16.633  0.1045  0.1847  0.0758
42298W        W85392  31.136  29.035  19.044 -0.0566 -0.0273  0.1826
42299W        W85393  32.672  28.624  16.935  0.1078 -0.0161  0.3791
42300W        W85394  32.107  26.396  18.805 -0.2970 -0.0349 -0.2319
42301W        W85395  32.178  27.489  17.071 -0.1427  0.0044  0.0709
42302W        W85396  28.341  26.085  19.494  0.0420  0.0755  0.1903
42303W        W85397  29.849  27.748  19.372  0.1479 -0.1182  0.1812
42304W        W85398  32.156  28.341  17.880 -0.0421 -0.0544  0.2914
42305W        W85399  29.935  26.344  19.931  0.1852 -0.3809  0.2360
42306W        W85400  32.800  26.305  17.249 -0.0142 -0.1013 -0.0082
42307W        W85401  30.738  29.254  17.574  0.3440  0.0673  0.2855
42308W        W85402  29.245  26.589  19.389 -0.0399 -0.1090 -0.3816
42309W        W85403  31.414  26.916  16.902 -0.2817  0.2658 -0.1700
42310W        W85404  30.626  27.249  20.433 -0.0013 -0.1693 -0.2762
42311W        W85405  31.860  28.688  18.826  0.0463  0.0230 -0.3758
42312W        W85406  32.752  27.354  19.317  0.1814 -0.0361 -0.1327
42313W        W85407  30.308  27.327  17.932 -0.1909 -0.3307  0.2651
42314W        W85408  33.740  27.367  17.613  0.2933  0.0432 -0.2640
42315W        W85409  31.019  28.820  17.669 -0.0082  0.0817  0.1444
42316W        W85410  34.181  29.951  19.738  0.0570  0.0687 -0.4090
42317W        W85411  30.647  28.506  18.868  0.0161 -0.0866 -0.5684
42318W        W85412  31.947  29.191  18.195  0.0178 -0.2928  0.4144
42319W        W85413  29.792  25.224  18.176  0.2038 -0.0023 -0.0925
42320W        W85414  29.864  26.641  19.171 -0.1271  0.1136 -0.2180
42321W        W85415  30.267  25.921  19.209 -0.0808  0.1233  0.2259
42322W        W85416  33.369  26.201  19.099 -0.1577  0.1645 -0.0673
42323W        W85417  29.426  27.460  17.980 -0.0372  0.1024  0.4529
42324W        W85418  32.096  26.184  16.553 -0.3130  0.2969  0.2188
42325W        W85419  29.527  27.548  19.015 -0.0154 -0.0735 -0.0079
42326W        W85420  30.545  26.553  18.043 -0.0481  0.0556 -0.0382
42327W        W85421  29.762  28.596  23.082  0.1651  0.1673  0.0143
42328W        W85422  29.848  28.021  20.267 -0.1542 -0.1952 -0.0831
42329W        W85423  32.751  26.500  18.465 -0.1451  0.2720  0.0621
42330W        W85424  31.956  27.359  20.802  0.0997  0.0510 -0.1382
42331W        W85425  29.231  25.192  19.525  0.1565 -0.1546 -0.4768
42332W        W85426  33.899  28.800  21.864  0.1904  0.0945 -0.1409
42333W        W85427  30.034  24.301  22.702  0.1034 -0.2450 -0.2763
42334W        W85428  31.068  28.017  22.325  0.0414 -0.0830 -0.1305
42335W        W85429  32.300  29.160  23.085  0.2670 -0.0953  0.0124
42336W        W85430  31.819  28.047  20.015 -0.0530 -0.1336 -0.2527
42337W        W85431  31.136  27.294  22.813  0.1478  0.4997  0.4807
42338W        W85432  30.395  29.162  23.399 -0.2839 -0.4263 -0.0042
42339W        W85433  30.706  25.506  21.238 -0.1565 -0.1716 -0.2657
42340W        W85434  29.788  25.995  22.086  0.0519  0.0626 -0.0118
42341W        W85435  33.096  28.133  22.047 -0.0430  0.1442 -0.0654
42342W        W85436  27.822  27.225  20.011  0.0045 -0.1119 -0.0863
42343W        W85437  29.470  27.685  21.506  0.0590  0.1029 -0.4236
42344W        W85438  30.510  26.385  20.109 -0.0108  0.4118 -0.0015
42345W        W85439  31.597  27.609  22.137 -0.3399  0.0812 -0.2009
42346W        W85440  30.814  25.626  22.175 -0.0890  0.6085 -0.2415
42347W        W85441  30.562  25.548  25.477  0.4244  0.2804  0.1748
42348W        W85442  31.217  29.815  21.664  0.5949 -0.0979  0.0916
42349W        W85443  30.312  26.957  19.384  0.3024 -0.0165 -0.3194
42350W        W85444  28.331  26.080  22.649 -0.0539  0.3426  0.0599
42351W        W85445  30.328  27.221  23.958 -0.1426  0.0584  0.0275
42352W        W85446  31.406  27.167  22.380  0.0445  0.1745 -0.1504
42353W        W85447  31.886  26.545  21.186 -0.2558  0.1314 -0.0059
42354W        W85448  31.036  27.225  21.188  0.1507  0.3459  0.0657
42355W        W85449  32.681  29.223  23.609  0.3594  0.2044 -0.2377
42356W        W85450  32.162  26.384  22.928 -0.1870 -0.2390 -0.1133
42357W        W85451  30.506  27.762  20.146  0.0180  0.0527 -0.0010
42358W        W85452  28.930  29.830  21.604 -0.0545 -0.0356 -0.0911
42359W        W85453  30.356  27.217  20.001  0.1910  0.1562 -0.2105
42360W        W85454  33.747  28.346  21.766 -0.1129  0.0949 -0.0837
42361W        W85455  32.625  29.548  23.072  0.1256  0.0225 -0.1372
42362W        W85456  31.351  28.514  23.571  0.0128 -0.3171  0.2044
42363W        W85457  28.381  27.910  20.788 -0.0456  0.2841  0.1853
42364W        W85458  31.486  28.199  23.860 -0.0149 -0.0192  0.1101
42365W        W85459  30.796  28.270  23.024  0.1791 -0.1392  0.0220
42366W        W85460  31.935  27.327  22.277 -0.1027  0.4553 -0.3790
42367W        W85461  31.011  27.609  20.880  0.0427  0.1213  0.1829
42368W        W85462  30.802  27.979  19.209  0.1269 -0.2230 -0.3176
42369W        W85463  31.293  27.414  21.604 -0.1729 -0.4502  0.1998
42370W        W85464  30.650  27.466  23.591  0.1983 -0.2945 -0.1192
42371W        W85465  29.118  27.864  21.155 -0.3158  0.0953  0.0460
42372W        W85466  33.170  26.002  23.676 -0.2320 -0.0561  0.0726
42373W        W85467  29.491  27.507  19.715 -0.2385 -0.1295 -0.1540
42374W        W85468  31.421  26.748  18.704 -0.2788 -0.2206  0.0604
42375W        W85469  29.797  26.026  20.886  0.2448 -0.0682  0.1330
42376W        W85470  32.681  26.922  20.697 -0.2294  0.2449 -0.2304
42377W        W85471  31.717  26.222  22.115 -0.0525 -0.0056  0.3258
42378W        W85472  30.615  30.738  23.072  0.2461  0.1798 -0.0503
42379W        W85473  31.806  26.811  22.217 -0.0421 -0.1609 -0.0937
42380W        W85474  32.176  27.866  22.369  0.1446 -0.1933  0.0012
42381W        W85475  30.129  27.637  19.838 -0.0864  0.3294 -0.1797
42382W        W85476  30.986  26.787  22.885  0.0200  0.2436 -0.0146
42383W        W85477  30.339  29.927  21.025 -0.0010 -0.5509 -0.2659
42384W        W85478  29.109  26.844  21.063 -0.2494  0.0758  0.4063
42385W        W85479  32.488  29.447  19.809  0.3785 -0.1447  0.0786
42386W        W85480  33.814  29.538  20.804 -0.0970  0.3591  0.1509
42387W        W85481  32.093  29.292  19.515 -0.0551 -0.2685  0.0905
42388W        W85482  29.563  27.122  19.269  0.1753  0.2652 -0.5579
42389W        W85483  30.116  27.829  23.424 -0.1518 -0.4379 -0.2609
42390W        W85484  30.802  27.380  24.063  0.0388  0.1831 -0.3431
42391W        W85485  29.664  25.787  20.397  0.1031 -0.1258  0.2975
42392W        W85486  33.730  27.367  24.035  0.0691 -0.4674  0.0581
42393W        W85487  29.191  28.153  24.512  0.0014  0.1087 -0.3695
42394W        W85488  31.545  25.110  22.744 -0.0818 -0.2081  0.1751
42395W        W85489  30.513  27.669  20.692 -0.0519  0.0091 -0.1432
42396W        W85490  33.078  29.514  23.417  0.0120 -0.2262 -0.0791
42397W        W85491  31.616  28.535  19.992 -0.0970  0.1453 -0.1345
42398W        W85492  32.630  26.181  21.589 -0.0965 -0.0660 -0.1538
42399W        W85493  31.385  24.567  22.775  0.2488 -0.0847 -0.2082
42400W        W85494  31.706  27.138  20.393  0.0290 -0.2767 -0.3370
42401W        W85495  30.628  28.504  19.405 -0.2225  0.1038 -0.0248
42402W        W85496  32.378  28.524  23.989 -0.0722  0.2952 -0.4578
42403W        W85497  31.983  26.273  20.349  0.1856  0.0475  0.0132
42404W        W85498  29.952  28.797  23.481 -0.0507  0.0124  0.1790
42405W        W85499  30.683  26.441  23.664  0.0084  0.2100  0.1931
42406W        W85500  31.556  27.824  24.711 -0.2383  0.0067  0.1058
42407W        W85501  29.737  28.819  19.662  0.0092 -0.0247 -0.1964
42408W        W85502  29.121  28.516  22.298 -0.0598 -0.1880  0.0911
42409W        W85503  30.417  27.784  21.702 -0.2174  0.0394  0.3358
42410W        W85504  30.927  26.496  22.472  0.2217  0.1125 -0.1560
42411W        W85505  29.682  27.587  22.115  0.0495 -0.0756  0.0278
42412W        W85506  32.438  25.715  21.300  0.0101 -0.0890  0.1025
42413W        W85507  29.442  26.215  22.766  0.0964  0.2238 -0.0803
42414W        W85508  30.915  24.848  21.966 -0.6640 -0.0243  0.2069
42415W        W85509  29.822  27.060  20.568 -0.2767 -0.1178  0.1461
42416W        W85510  32.856  29.245  22.261  0.2616 -0.3386 -0.1285
42417W        W85511  32.304  27.933  20.176 -0.1626  0.2095  0.0838
42418W        W85512  32.261  28.998  19.905 -0.0815  0.0155  0.1761
42419W        W85513  30.298  26.889  21.904  0.0126  0.2757  0.1892
42420W        W85514  29.382  27.289  20.699 -0.1257 -0.2935  0.1632
42421W        W85515  29.610  25.964  24.210  0.1260 -0.2058  0.0127
42422W        W85516  31.295  25.909  22.174 -0.0016  0.0398  0.2441
42423W        W85517  30.953  27.025  22.379  0.1789  0.2511  0.1849
42424W        W85518  27.694  25.957  20.003 -0.0787 -0.3756 -0.2652
42425W        W85519  31.333  26.709  22.547 -0.0177  0.0423 -0.2218
42426W        W85520  29.314  26.785  20.644 -0.0051 -0.0465 -0.2334
42427W        W85521  30.275  28.992  21.489 -0.1239  0.0640 -0.1587
42428W        W85522  31.039  26.090  24.177  0.3366 -0.0632 -0.0651
42429W        W85523  31.391  27.989  20.724  0.0159  0.0139  0.0597
42430W        W85524  32.736  29.544  24.901 -0.1800 -0.0405 -0.4096
42431W        W85525  32.549  28.825  21.324  0.4138 -0.0314  0.0718
42432W        W85526  29.972  25.504  23.488 -0.1239  0.0585 -0.1500
42433W        W85527  30.209  25.045  19.859 -0.0874  0.1353  0.0050
42434W        W85528  30.635  29.216  22.095 -0.1677 -0.0780  0.0659
42435W        W85529  30.837  27.610  21.368  0.0352  0.0251  0.0031
42436W        W85530  30.501  24.522  20.420  0.3058 -0.0982  0.1267
42437W        W85531  31.658  29.687  22.794  0.0810 -0.0702 -0.1137
42438W        W85532  31.520  26.915  20.944 -0.0514 -0.1127 -0.2458
42439W        W85533  29.561  28.428  22.604 -0.3265  0.2818  0.0514
42440W        W85534  31.402  26.947  23.092  0.0288  0.0772 -0.4252
42441W        W85535  31.716  26.650  21.762 -0.0267  0.1233 -0.1736
42442W        W85536  30.495  26.456  21.189  0.2452 -0.1928  0.3055
42443W        W85537  30.034  25.171  21.069 -0.1965  0.3446 -0.0470
42444W        W85538  32.658  28.597  20.151 -0.1721  0.1993 -0.0766
42445W        W85539  30.875  27.892  20.505 -0.1123 -0.0312  0.2970
42446W        W85540  27.551  27.351  20.978 -0.1086  0.0956 -0.1213
42447W        W85541  31.461  30.498  20.606 -0.2590  0.0248 -0.1777
42448W        W85542  31.939  25.720  21.343 -0.0473  0.3637  0.0313
42449W        W85543  30.050  27.384  23.575 -0.2274 -0.1386  0.0409
42450W        W85544  31.169  27.033  23.975 -0.4385  0.0346 -0.2339
42451W        W85545  29.155  27.520  20.100  0.0071 -0.0020  0.0337
42452W        W85546  29.850  27.610  23.078 -0.1295  0.0038 -0.1970
42453W        W85547  31.546  26.064  20.343  0.0986 -0.0862  0.0325
42454W        W85548  33.181  26.160  20.737  0.3569  0.1155 -0.1556
42455W        W85549  30.945  28.644  23.310 -0.2654 -0.0216 -0.1198
42456W        W85550  32.531  28.327  21.181  0.0250 -0.1645 -0.0444
42457W        W85551  32.324  27.038  20.067  0.1106  0.2927  0.2251
42458W        W85552  31.935  25.512  19.062  0.0549 -0.0157 -0.1113
42459W        W85553  29.701  27.103  23.204 -0.4438  0.0273  0.2786
42460W        W85554  29.910  28.367  21.831 -0.0661  0.0120  0.0658
42461W        W85555  30.481  26.921  21.446  0.1745 -0.0740 -0.2901
42462W        W85556  31.686  25.386  19.702  0.3114 -0.1341 -0.0490
42463W        W85557  32.901  29.591  20.830  0.2745 -0.2505  0.4358
42464W        W85558  28.886  28.908  22.724 -0.1386 -0.0736 -0.3046
42465W        W85559  31.783  26.985  22.697  0.1322 -0.1914 -0.2204
42466W        W85560  31.999  28.993  21.847  0.1985  0.1812  0.0250
42467W        W85561  29.705  26.874  22.095  0.1533 -0.2215  0.0801
42468W        W85562  29.460  26.254  20.376 -0.0765 -0.1502 -0.0126
42469W        W85563  30.407  26.451  21.686 -0.1660 -0.1054 -0.2112
42470W        W85564  29.368  30.657  21.350 -0.0284  0.1936 -0.1794
42471W        W85565  32.021  25.175  22.376 -0.3043 -0.2443  0.2183
42472W        W85566  31.755  26.444  22.591  0.0383 -0.0419  0.0986
42473W        W85567  30.790  25.630  22.999 -0.0015 -0.0142 -0.0389
42474W        W85568  31.789  26.664  24.043 -0.0360  0.1653  0.1682
42475W        W85569  31.915  26.746  20.165 -0.0412  0.1011  0.0200
42476W        W85570  30.976  26.720  21.182  0.1851 -0.2215 -0.3903
42477W        W85571  29.599  26.941  21.180 -0.1482 -0.0792  0.0148
42478W        W85572  31.151  27.235  23.508  0.0305 -0.1784  0.1390
42479W        W85573  29.137  26.659  22.059 -0.0082  0.0654 -0.0121
42480W        W85574  29.902  28.886  22.642  0.0506  0.1144 -0.2233
42481W        W85575  33.658  26.982  24.359  0.1108  0.3569  0.1906
42482W        W85576  32.854  25.639  20.792 -0.0121 -0.0380  0.0569
42483W        W85577  31.030  26.157  23.526 -0.1093  0.4652  0.2016
42484W        W85578  31.255  25.991  19.709  0.0583 -0.2757  0.1369
42485W        W85579  31.363  27.483  19.820  0.2699 -0.1697  0.1851
42486W        W85580  30.092  27.535  20.385 -0.0309  0.1458  0.2214
42487W        W85581  29.957  25.271  20.589  0.0852  0.1450  0.0361
42488W        W85582  30.114  27.267  21.312  0.0409  0.4684 -0.0962
42489W        W85583  31.335  28.488  20.548  0.0304  0.0727 -0.1198
42490W        W85584  33.746  27.642  23.292 -0.0297 -0.0387 -0.0881
42491W        W85585  29.313  28.098  22.053 -0.0345  0.0273 -0.1586
42492W        W85586  32.379  25.436  22.624  0.2131  0.2909  0.1396
42493W        W85587  29.093  28.010  22.566 -0.0637  0.0232 -0.1686
42494W        W85588  30.667  25.251  19.808 -0.0224  0.2034 -0.2769
42495W        W85589  26.893  26.688  21.290  0.2134  0.1051 -0.0930
42496W        W85590  31.907  25.998  20.907  0.4977 -0.0119 -0.2157
42497W        W85591  31.912  27.246  19.896 -0.2377 -0.1840 -0.1059
42498W        W85592  30.337  25.784  22.127  0.1186 -0.1447 -0.1152
42499W        W85593  31.774  26.202  21.565  0.0227  0.1974  0.0968
42500W        W85594  28.885  27.565  21.522  0.0915 -0.1926  0.2407
42501W        W85595  31.342  26.873  21.973 -0.0314 -0.1920 -0.0483
42502W        W85596  31.239  26.533  19.823  0.1784  0.1591  0.3936
42503W        W85597  32.590  28.047  23.071 -0.2222  0.0874 -0.1327
42504W        W85598  30.731  26.674  22.052 -0.0098 -0.0712  0.1450
42505W        W85599  28.053  27.764  21.426  0.0706  0.0476  0.0694
42506W        W85600  33.008  27.409  22.344 -0.0135 -0.0692 -0.0247
42507W        W85601  29.996  25.680  21.277 -0.2820 -0.0357 -0.1299
42508W        W85602  29.748  28.630  22.176 -0.0678  0.1203  0.2340
42509W        W85603  31.190  27.867  21.845  0.0665 -0.1854  0.2974
42510W        W85604  31.041  26.501  20.642 -0.2802  0.2608 -0.2881
42511W        W85605  30.514  28.110  20.931  0.2525  0.1406 -0.1646
42512W        W85606  30.491  26.652  23.054  0.0254  0.0828 -0.0483
42513W        W85607  31.669  27.456  22.696 -0.4389 -0.0203  0.1045
42514W        W85608  30.636  27.324  21.785 -0.1049  0.0064  0.0584
42515W        W85609  29.804  25.000  20.107  0.1955 -0.0184  0.3107
42516W        W85610  30.153  25.961  21.700 -0.1363 -0.6346  0.0953
42517W        W85611  31.853  27.239  23.218 -0.2207  0.0641 -0.0839
42518W        W85612  30.969  26.932  21.656  0.0275 -0.4058 -0.0238
42519W        W85613  30.604  27.193  22.804 -0.0754  0.0983  0.4546
42520W        W85614  30.907  25.921  22.606 -0.2615  0.1485 -0.2100
42521W        W85615  30.257  30.425  21.336 -0.0813  0.0583 -0.4156
42522W        W85616  30.696  28.653  23.970 -0.2488 -0.1054  0.0757
42523W        W85617  30.887  27.332  19.897  0.0279 -0.0843  0.2093
42524W        W85618  27.505  28.536  22.530  0.0596 -0.0887  0.2241
42525W        W85619  30.355  27.702  21.198 -0.0422  0.1153 -0.1378
42526W        W85620  32.227  26.967  21.885 -0.3452  0.0410  0.1937
42527W        W85621  29.330  27.155  21.989 -0.0570 -0.0708  0.3713
42528W        W85622  30.826  28.645  21.495  0.2385  0.1444  0.0979
42529W        W85623  31.228  28.892  22.583  0.0908 -0.1169 -0.0350
42530W        W85624  33.503  25.770  21.523 -0.1286  0.1206 -0.3094
42531W        W85625  31.235  27.984  20.088  0.5265 -0.1895  0.0635
42532W        W85626  30.768  25.871  20.290  0.0216  0.0177 -0.0787
42533W        W85627  32.657  26.184  23.610  0.0948 -0.2138  0.3115
42534W        W85628  31.230  27.843  19.471 -0.1379  0.0008  0.2068
42535W        W85629  31.439  26.053  22.638  0.1792 -0.1554  0.2158
42536W        W85630  28.753  25.750  22.548 -0.1613 -0.3712  0.4021
42537W        W85631  31.244  29.752  21.118 -0.0404  0.2963  0.0724
42538W        W85632  29.691  26.698  22.802  0.2533 -0.0981  0.0192
42539W        W85633  32.427  29.432  25.403  0.2246  0.0001 -0.1465
42540W        W85634  31.630  27.731  23.611  0.1401 -0.0361 -0.1451
42541W        W85635  31.567  25.358  20.236  0.1464 -0.0923 -0.1477
42542W        W85636  29.414  25.666  21.866 -0.0430  0.2143 -0.0583
42543W        W85637  31.022  26.678  23.380  0.0201 -0.2101  0.1661
42544W        W85638  31.486  28.996  22.170  0.1922 -0.1224  0.0953
42545W        W85639  32.728  29.591  19.313 -0.3937 -0.0097  0.3254
42546W        W85640  31.956  24.558  21.176  0.1041 -0.0813 -0.1818
42547W        W85641  28.943  27.906  23.079  0.2232  0.1606  0.3260
42548W        W85642  31.609  27.827  21.618  0.0527 -0.0141  0.1401
42549W        W85643  31.060  27.475  20.348 -0.2119 -0.1020 -0.0485
42550W        W85644  29.302  28.807  21.235  0.2417  0.0728  0.2737
42551W        W85645  30.141  26.388  22.844  0.3413 -0.2876 -0.1158
42552W        W85646  31.505  28.350  21.068  0.1360 -0.1446  0.0938
42553W        W85647  31.708  25.994  23.015  0.1738 -0.1903 -0.1119
42554W        W85648  31.794  26.626  23.217 -0.0597 -0.2314  0.2465
42555W        W85649  31.645  26.400  23.654 -0.0358  0.0574  0.0273
42556W        W85650  32.204  25.937  21.747 -0.1037  0.1983 -0.0504
42557W        W85651  30.906  25.609  23.462 -0.1313 -0.0391  0.1594
42558W        W85652  31.879  29.265  24.324 -0.0135  0.1059  0.1719
42559W        W85653  31.511  27.348  19.326 -0.0802  0.3780 -0.1381
42560W        W85654  32.149  26.467  21.961 -0.0718  0.1856 -0.1133
42561W        W85655  32.240  26.150  21.259  0.0954 -0.1517 -0.1353
42562W        W85656  30.091  27.426  20.844 -0.0453 -0.1558 -0.1610
42563W        W85657  30.126  27.384  21.990  0.0246 -0.1115  0.3608
42564W        W85658  32.756  27.772  24.647  0.2251 -0.2890  0.0508
42565W        W85659  29.800  27.113  21.705 -0.0141  0.3974  0.0393
42566W        W85660  31.980  26.427  24.930  0.1445  0.0291 -0.2270
42567W        W85661  29.891  28.768  19.091 -0.3632  0.2057 -0.0700
42568W        W85662  31.713  28.748  22.587  0.1919  0.0218 -0.0452
42569W        W85663  32.397  26.985  19.399 -0.2889 -0.5577  0.3755
42570W        W85664  29.551  26.371  21.212 -0.1874  0.1567  0.2301
42571W        W85665  29.885  28.657  24.217 -0.0974 -0.2643 -0.2238
42572W        W85666  29.690  26.703  20.261  0.0267 -0.1746 -0.1114
42573W        W85667  31.882  26.666  20.641 -0.0200 -0.1952  0.1329
42574W        W85668  31.760  27.344  21.747  0.0515 -0.1677  0.0556
42575W        W85669  31.571  27.345  24.395  0.1560  0.1434  0.1620
42576W        W85670  30.934  25.442  20.534  0.2458  0.2053 -0.0820
42577W        W85671  31.575  26.036  24.028 -0.2823 -0.1111  0.0890
42578W        W85672  30.171  28.165  21.442 -0.1364  0.2184  0.1312
42579W        W85673  31.685  25.309  21.592  0.2034 -0.1215  0.4221
42580W        W85674  30.265  28.779  23.024  0.0418 -0.0673 -0.0171
42581W        W85675  27.831  28.087  23.292 -0.1676  0.0405 -0.0678
42582W        W85676  30.298  29.522  22.357  0.0223  0.0776 -0.0554
42583W        W85677  30.410  26.153  22.520 -0.1888  0.0784 -0.0760
42584W        W85678  31.796  27.924  21.118  0.1945  0.2745  0.1080
42585W        W85679  31.387  26.449  21.432  0.0085  0.2815 -0.0329
42586W        W85680  33.957  28.083  23.255 -0.0808 -0.1529 -0.1809
42587W        W85681  32.148  28.351  23.255 -0.1638  0.0799  0.1622
42588W        W85682  29.604  27.527  20.277  0.1110 -0.3067  0.0120
42589W        W85683  31.110  29.435  22.057 -0.3016 -0.1178  0.1665
42590W        W85684  32.758  27.899  21.648 -0.3675  0.1588  0.2242
42591W        W85685  30.088  28.237  20.804  0.0179  0.0367  0.0354
42592W        W85686  28.964  26.594  25.058  0.4290  0.2535  0.2929
42593W        W85687  30.708  27.071  23.264  0.0726  0.2399  0.4240
42594W        W85688  31.047  26.205  21.021 -0.1493 -0.0547 -0.0537
42595W        W85689  30.671  25.804  19.812  0.0863 -0.1001 -0.3211
42596W        W85690  31.795  27.113  18.850  0.0770  0.2384  0.0758
42597W        W85691  30.380  28.383  22.709  0.0824 -0.2320  0.2436
42598W        W85692  28.954  28.712  23.355 -0.0095  0.2805 -0.3897
42599W        W85693  29.227  29.692  21.250 -0.2011 -0.0825  0.0876
42600W        W85694  32.532  29.138  20.357  0.4415 -0.0592  0.0033
42601W        W85695  32.464  27.415  20.888 -0.3645  0.0393  0.2344
42602W        W85696  31.298  30.350  21.483  0.0706 -0.0088  0.0349
42603W        W85697  30.710  24.803  19.995 -0.1468 -0.0197  0.1743
42604W        W85698  29.327  30.109  21.534  0.2979 -0.1677 -0.1136
42605W        W85699  30.736  28.767  19.855  0.3899  0.0892 -0.0070
42606W        W85700  32.152  29.090  21.303  0.0003  0.2466 -0.0634
42607W        W85701  29.750  29.751  21.651  0.1000 -0.1273  0.1718
42608W        W85702  32.365  28.785  23.417 -0.0980 -0.1513 -0.2234
42609W        W85703  33.072  25.200  21.060  0.2171  0.0698  0.2346
42610W        W85704  31.502  28.241  22.032  0.2914  0.3435 -0.2805
42611W        W85705  32.863  27.482  21.409  0.1125 -0.0450 -0.0533
42612W        W85706  30.401  28.266  23.833 -0.1128  0.2477 -0.1371
42613W        W85707  30.004  26.739  21.373 -0.2437 -0.0374  0.1973
42614W        W85708  30.346  24.350  20.016  0.1554  0.0743 -0.0333
42615W        W85709  29.915  27.816  21.702 -0.0374  0.0948  0.2664
42616W        W85710  33.507  26.773  23.192  0.0631  0.0565 -0.1126
42617W        W85711  29.450  28.640  23.520  0.1431  0.0915 -0.3024
42618W        W85712  31.546  29.185  21.037  0.0504 -0.2229 -0.1320
42619W        W85713  29.463  25.364  20.436 -0.3888 -0.1847  0.2855
42620W        W85714  28.970  26.460  21.538  0.0571 -0.1377  0.1697
42621W        W85715  31.949  25.943  22.533 -0.2389  0.2101  0.0548
42622W        W85716  30.442  29.189  18.511 -0.0840  0.3178 -0.2741
42623W        W85717  30.709  25.753  20.793 -0.1738  0.3890 -0.1733
42624W        W85718  31.196  28.586  22.110  0.0986  0.1416  0.0839
42625W        W85719  30.826  28.248  21.917  0.1528 -0.2001 -0.0751
42626W        W85720  31.322  28.378  22.582  0.1824 -0.1029  0.1964
42627W        W85721  29.250  24.366  23.293  0.0734 -0.0207 -0.3351
42628W        W85722  34.291  25.786  20.906  0.1961  0.0683 -0.2142
42629W        W85723  30.203  27.542  22.680  0.1174  0.0026  0.1094
42630W        W85724  32.457  27.370  22.341  0.0676 -0.0408  0.0694
42631W        W85725  29.667  26.771  19.698  0.0950 -0.0549  0.1941
42632W        W85726  32.203  27.017  20.519 -0.0813 -0.0248  0.2098
42633W        W85727  30.724  27.743  22.086 -0.1709 -0.0186 -0.0220
42634W        W85728  29.177  26.015  22.284 -0.2029  0.0872 -0.0874
42635W        W85729  30.986  28.314  19.704 -0.1368  0.0316 -0.2372
42636W        W85730  32.775  26.942  22.508  0.2787  0.0725  0.1577
42637W        W85731  29.718  26.557  20.778  0.1052  0.0579  0.0809
42638W        W85732  32.004  29.219  22.682 -0.3354  0.1557  0.1565
42639W        W85733  30.376  27.448  23.178 -0.0144  0.0795 -0.0724
42640W        W85734  31.522  26.760  19.184 -0.0721 -0.3010  0.1058
42641W        W85735  28.547  28.185  21.209  0.0784  0.0904 -0.0902
42642W        W85736  30.692  27.644  22.589  0.2759  0.1428 -0.1518
42643W        W85737  31.400  27.533  23.164 -0.0958 -0.4635  0.0587
42644W        W85738  30.057  26.697  22.408 -0.0003  0.2001  0.2331
42645W        W85739  32.756  28.793  20.789 -0.2175 -0.0182 -0.3357
42646W        W85740  33.335  26.651  21.800 -0.2858  0.1460  0.1600
42647W        W85741  30.681  28.079  21.388 -0.0622 -0.0798  0.3790
42648W        W85742  32.734  26.068  21.059 -0.0832  0.2980 -0.0395
42649W        W85743  31.393  30.887  21.487 -0.0379 -0.1489  0.2596
42650W        W85744  29.156  26.042  21.209 -0.0519  0.0769 -0.1908
42651W        W85745  31.797  29.338  23.297  0.2135 -0.0002 -0.0050
42652W        W85746  32.934  29.007  21.763  0.2069 -0.0625 -0.0177
42653W        W85747  32.332  26.592  20.306  0.1844  0.0411 -0.0773
42654W        W85748  30.485  27.228  22.340 -0.0386  0.0521 -0.1011
42655W        W85749  29.791  27.990  21.110 -0.2163  0.2629  0.0858
42656W        W85750  32.968  26.247  22.467 -0.1617 -0.1422  0.1332
42657W        W85751  30.175  25.818  23.006  0.0782  0.1190 -0.0977
42658W        W85752  29.909  27.935  18.920  0.1012  0.2231  0.1325
42659W        W85753  33.682  26.781  22.111 -0.1619 -0.1161  0.0366
42660W        W85754  31.722  27.960  22.533 -0.1137  0.3294  0.1587
42661W        W85755  31.283  27.981  24.240  0.1398 -0.1495 -0.3104
42662W        W85756  30.525  27.472  19.574 -0.2943  0.0670 -0.2725
42663W        W85757  31.272  27.841  22.768 -0.2641 -0.0367  0.0983
42664W        W85758  31.268  27.877  21.218  0.1243 -0.0271 -0.0477
42665W        W85759  30.572  28.566  20.752  0.3123  0.1237  0.2027
42666W        W85760  32.507  29.291  22.643  0.0667  0.2259  0.0451
42667W        W85761  30.477  25.460  20.289  0.0872 -0.3012  0.0229
42668W        W85762  31.734  28.936  20.188  0.1214 -0.1118  0.0145
42669W        W85763  31.161  24.414  21.792  0.1840  0.0164 -0.0216
42670W        W85764  33.304  27.120  21.478  0.1611  0.1762 -0.3812
42671W        W85765  31.408  26.914  21.424 -0.1802  0.1784  0.0266
42672W        W85766  29.826  28.387  23.757  0.2343 -0.2202 -0.0939
42673W        W85767  28.476  27.596  21.139  0.1577  0.0079 -0.2268
42674W        W85768  30.424  28.581  21.233  0.0548  0.0334 -0.4386
42675W        W85769  29.953  28.185  22.825  0.0231  0.5739 -0.0818
42676W        W85770  31.420  25.859  23.577  0.0240 -0.2069 -0.2131
42677W        W85771  30.428  25.604  23.358  0.0781  0.0088 -0.2181
42678W        W85772  29.881  27.248  22.472 -0.2213  0.0398  0.3256
42679W        W85773  30.141  26.852  20.920  0.2218  0.0158  0.3188
42680W        W85774  32.787  29.028  19.941 -0.0116  0.1538  0.1920
42681W        W85775  29.490  25.186  22.035  0.0979  0.0445  0.3497
42682W        W85776  29.867  25.957  22.594  0.0236  0.1917  0.0219
42683W        W85777  31.449  27.397  20.739 -0.0546 -0.2507  0.1355
42684W        W85778  32.158  29.614  21.230 -0.1378 -0.0334  0.1408
42685W        W85779  30.048  26.213  21.301 -0.0468 -0.0750  0.0856
42686W        W85780  32.627  29.027  24.152 -0.1654  0.1653 -0.1750
42687W        W85781  29.767  27.931  19.791 -0.1049 -0.0955 -0.1495
42688W        W85782  30.538  26.096  23.342  0.0922 -0.3597  0.1813
42689W        W85783  29.782  26.166  24.659  0.0212 -0.0966 -0.0870
42690W        W85784  28.838  25.946  20.586  0.0345  0.1512  0.2532
42691W        W85785  30.119  25.756  20.550 -0.1278  0.2091 -0.0574
42692W        W85786  31.815  28.311  21.502  0.0809 -0.3387  0.1038
42693W        W85787  31.669  28.796  20.760  0.3679  0.3147  0.3779
42694W        W85788  31.099  27.330  22.013 -0.1982 -0.6642 -0.0893
42695W        W85789  29.844  29.193  23.105  0.1299 -0.0974 -0.0942
42696W        W85790  29.156  23.860  22.620  0.0199 -0.0946  0.0476
42697W        W85791  32.508  27.137  21.334 -0.2682 -0.1791 -0.1198
42698W        W85792  31.508  29.212  21.734 -0.0481 -0.1158 -0.0574
42699W        W85793  32.213  27.964  21.483 -0.0404 -0.2407  0.0591
42700W        W85794  32.231  26.918  22.411  0.0575  0.1858  0.0380
42701W        W85795  32.277  26.374  20.777  0.1419  0.1040 -0.0309
42702W        W85796  29.642  25.657  23.001 -0.0538 -0.0955  0.2043
42703W        W85797  30.845  27.579  23.070 -0.0632 -0.2444 -0.0104
42704W        W85798  32.609  29.920  22.715 -0.1648  0.1562  0.0675
42705W        W85799  31.211  26.384  22.008 -0.0575  0.2357  0.0074
42706W        W85800  32.228  26.904  20.981 -0.0071  0.2154  0.2065
42707W        W85801  29.424  28.801  20.265 -0.2149 -0.1516  0.2998
42708W        W85802  29.417  27.843  20.751  0.1999 -0.0926  0.1381
42709W        W85803  30.175  25.923  20.080  0.1422  0.1490 -0.2324
42710W        W85804  32.295  27.573  21.860  0.3795  0.0102 -0.1513
42711W        W85805  31.889  27.033  21.386 -0.1409 -0.1425  0.1632
42712W        W85806  32.362  27.180  23.937  0.2138  0.0126 -0.2364
42713W        W85807  29.307  27.235  21.475  0.0800 -0.1813 -0.2922
42714W        W85808  31.140  27.085  18.959 -0.2315  0.0119  0.1255
42715W        W85809  31.742  27.842  23.043  0.1291 -0.1107  0.0294
42716W        W85810  32.078  30.330  24.825 -0.2109 -0.0891 -0.0400
42717W        W85811  31.540  29.073  23.008  0.1470  0.0752 -0.0537
42718W        W85812  32.620  27.807  22.122  0.0413  0.4663  0.0463
42719W        W85813  28.930  24.834  22.672  0.2671 -0.3165  0.0537
42720W        W85814  31.529  26.277  20.912 -0.0223 -0.1177 -0.2661
42721W        W85815  30.444  26.202  20.757 -0.0886  0.0957  0.2340
42722W        W85816  32.037  27.408  23.675 -0.0991  0.1776  0.0750
42723W        W85817  29.855  26.475  21.766 -0.1237  0.1443  0.5266
42724W        W85818  32.808  26.844  20.245 -0.1675 -0.2480  0.2258
42725W        W85819  30.342  29.924  22.029 -0.2289 -0.0790  0.2048
42726W        W85820  32.445  28.912  21.925 -0.0348  0.1333 -0.0074
42727W        W85821  29.395  27.655  27.229 -0.0085 -0.1222 -0.1971
42728W        W85822  29.713  27.104  24.948 -0.1605 -0.1287 -0.0213
42729W        W85823  31.896  25.692  23.492  0.2433  0.0195 -0.1074
42730W        W85824  32.797  27.041  25.739  0.1172  0.0806 -0.1566
42731W        W85825  29.292  25.828  25.383 -0.0785 -0.1675 -0.0603
42732W        W85826  30.796  28.989  25.726  0.0356  0.0736  0.0133
42733W        W85827  30.706  26.422  28.322  0.0636 -0.1928 -0.0139
42734W        W85828  32.096  28.565  26.620 -0.0888 -0.3605  0.0236
42735W        W85829  31.883  27.455  26.988  0.1371 -0.0110  0.1211
42736W        W85830  32.338  27.658  24.136  0.1221 -0.0523  0.0208
42737W        W85831  30.917  26.094  29.553  0.3431 -0.0206  0.2578
42738W        W85832  29.853  28.222  27.775  0.0088  0.1899 -0.1272
42739W        W85833  29.432  25.787  24.746  0.0802  0.0103  0.1472
42740W        W85834  28.137  26.249  26.202  0.1681 -0.0596  0.2458
42741W        W85835  31.093  26.914  27.181 -0.3881  0.1163  0.0798
42742W        W85836  31.567  28.858  25.672  0.2287 -0.2161  0.1329
42743W        W85837  30.204  26.324  27.852  0.0239  0.1748 -0.2267
42744W        W85838  29.903  26.492  24.337 -0.2893  0.0903 -0.0654
42745W        W85839  31.112  30.163  24.446  0.3292 -0.1720 -0.1811
42746W        W85840  31.044  26.121  28.053  0.0402 -0.2405 -0.3410
42747W        W85841  33.129  26.081  27.292 -0.0742 -0.1389 -0.2007
42748W        W85842  31.052  28.728  24.869  0.0696  0.0750 -0.1757
42749W        W85843  30.595  26.735  24.699 -0.1100  0.1246  0.1106
42750W        W85844  29.685  27.555  25.652  0.4021  0.2012 -0.0664
42751W        W85845  29.685  27.188  26.152 -0.0945 -0.1870  0.0351
42752W        W85846  32.045  26.929  25.133  0.1804  0.1096 -0.0679
42753W        W85847  31.771  27.325  26.405 -0.1767  0.1793 -0.1763
42754W        W85848  31.138  28.365  27.091  0.1341 -0.0590 -0.0767
42755W        W85849  30.161  28.234  26.076  0.1108  0.2616  0.4532
42756W        W85850  31.333  26.799  29.051  0.0253 -0.1176  0.2558
42757W        W85851  29.280  28.678  26.224 -0.2004  0.2164  0.0849
42758W        W85852  28.402  28.930  23.030 -0.1692 -0.1338 -0.1469
42759W        W85853  30.767  28.200  24.303 -0.0860  0.1655 -0.0236
42760W        W85854  32.168  28.186  26.183  0.0636  0.1120  0.2824
42761W        W85855  34.205  28.962  27.931 -0.3428  0.0195 -0.1669
42762W        W85856  29.145  28.253  28.146 -0.1049  0.1398  0.2255
42763W        W85857  29.983  28.073  24.116  0.1072  0.0065  0.0210
42764W        W85858  31.265  28.025  27.600 -0.0662 -0.0659  0.0904
42765W        W85859  29.148  26.745  27.384 -0.3722  0.0334  0.1740
42766W        W85860  31.988  26.410  26.773  0.0992 -0.0896  0.0241
42767W        W85861  31.722  27.872  26.102  0.1074  0.1471  0.1710
42768W        W85862  30.521  26.203  24.725  0.3663  0.0391 -0.1834
42769W        W85863  31.066  27.529  26.410  0.0260  0.4127 -0.0006
42770W        W85864  30.697  28.242  27.833 -0.0247 -0.0475 -0.3404
42771W        W85865  30.189  28.798  25.809  0.0178 -0.2286 -0.2581
42772W        W85866  32.476  26.123  27.545  0.2381 -0.1723 -0.3219
42773W        W85867  30.117  27.920  24.625 -0.0413  0.0996 -0.1037
42774W        W85868  32.399  27.962  24.910  0.1412  0.2955  0.1778
42775W        W85869  29.357  26.457  23.682 -0.2076 -0.0964 -0.3071
42776W        W85870  31.219  26.556  23.893 -0.1901 -0.0013  0.2205
42777W        W85871  31.175  25.925  27.055  0.0886  0.0272 -0.1074
42778W        W85872  30.871  28.643  26.576 -0.1617  0.0359  0.3091
42779W        W85873  31.610  25.738  26.769 -0.0506 -0.0183 -0.0849
42780W        W85874  32.827  29.306  26.304 -0.2957  0.3794  0.2381
42781W        W85875  31.503  28.315  25.447  0.1447 -0.1330  0.1994
42782W        W85876  33.900  25.572  25.871 -0.1307 -0.3363  0.0871
42783W        W85877  29.358  27.592  26.185 -0.2125 -0.4346 -0.1818
42784W        W85878  30.527  26.287  25.227 -0.1373 -0.0479  0.0278
42785W        W85879  31.048  27.697  23.557 -0.0292  0.1643  0.3374
42786W        W85880  32.002  28.290  25.244  0.2271  0.0552 -0.2320
42787W        W85881  30.701  28.748  24.531 -0.0740 -0.0131 -0.1395
42788W        W85882  29.067  27.084  24.749  0.0745  0.0719 -0.0720
42789W        W85883  29.405  29.045  27.323  0.1795  0.2208  0.1443
42790W        W85884  28.573  27.603  27.490  0.1452 -0.1620 -0.1595
42791W        W85885  30.721  25.214  23.227 -0.0024  0.0291 -0.0502
42792W        W85886  32.305  28.099  27.879  0.0970  0.0019  0.3545
42793W        W85887  29.901  27.836  27.429 -0.1961 -0.0469 -0.1912
42794W        W85888  33.387  26.391  25.196  0.1072  0.1540  0.0822
42795W        W85889  29.568  28.567  27.057  0.2954 -0.1025  0.1411
42796W        W85890  32.101  28.166  26.886 -0.1379 -0.0615  0.0751
42797W        W85891  31.745  28.336  22.884 -0.2960  0.3574 -0.4216
42798W        W85892  31.635  26.644  26.380 -0.1887 -0.0342  0.1065
42799W        W85893  31.102  25.545  26.481 -0.0962 -0.2054 -0.0093
42800W        W85894  30.786  25.233  23.793 -0.2165  0.0011 -0.0984
42801W        W85895  31.566  28.279  24.929  0.1966 -0.1448  0.1517
42802W        W85896  30.959  29.267  27.645  0.0055 -0.2862  0.0700
42803W        W85897  31.330  27.509  23.989 -0.0116 -0.0447 -0.3751
42804W        W85898  28.792  28.333  24.912  0.1858  0.1256  0.2453
42805W        W85899  31.338  26.338  29.367 -0.0097 -0.3048  0.3657
42806W        W85900  31.342  29.163  27.313 -0.2490 -0.2628  0.0631
42807W        W85901  30.307  28.413  24.459  0.0773 -0.0753  0.1701
42808W        W85902  29.154  27.616  24.588 -0.0700 -0.1808 -0.0521
42809W        W85903  30.616  28.025  25.264  0.2125 -0.2708  0.1285
42810W        W85904  29.433  26.090  28.563  0.2380  0.0206  0.0203
42811W        W85905  31.327  28.263  26.184  0.4302  0.0304  0.0477
42812W        W85906  31.939  25.511  26.432 -0.0494 -0.2134 -0.0262
42813W        W85907  30.212  26.073  27.361  0.0388  0.2090 -0.0537
42814W        W85908  30.072  26.395  24.930 -0.1588 -0.2797  0.0601
42815W        W85909  29.313  28.215  25.508  0.0919  0.2181 -0.3820
42816W        W85910  31.515  28.767  25.220  0.0459  0.1187  0.0117
42817W        W85911  31.036  26.443  24.545  0.0829  0.1039  0.1648
42818W        W85912  31.368  29.002  23.533 -0.0784  0.1172 -0.1480
42819W        W85913  28.829  27.002  26.012 -0.0253 -0.2440 -0.1224
42820W        W85914  29.397  26.339  24.933  0.1606 -0.1012 -0.1318
42821W        W85915  31.257  26.218  27.587  0.2599  0.1206 -0.2971
42822W        W85916  29.871  25.248  27.434  0.2059  0.1424 -0.1164
42823W        W85917  30.492  27.202  27.971  0.1231 -0.1417 -0.0795
42824W        W85918  29.260  24.901  24.745 -0.0404  0.1078 -0.0509
42825W        W85919  31.415  26.475  24.863  0.0829 -0.0930  0.0294
42826W        W85920  31.063  26.834  24.911  0.4557 -0.0683 -0.0767
42827W        W85921  29.016  27.360  23.683 -0.0913 -0.2657  0.1065
42828W        W85922  32.810  26.541  28.399  0.2916  0.4215 -0.0857
42829W        W85923  32.029  27.293  25.691 -0.1492 -0.1241  0.2594
42830W        W85924  31.345  29.750  26.175 -0.1178 -0.0454 -0.0264
42831W        W85925  31.405  28.739  27.051 -0.1617  0.0917  0.1400
42832W        W85926  31.467  25.731  27.839  0.2497  0.2540  0.0755
42833W        W85927  29.142  26.619  24.587 -0.0105  0.1859 -0.1712
42834W        W85928  28.229  28.664  24.134 -0.1352 -0.2205 -0.2612
42835W        W85929  32.177  27.249  26.161  0.0874 -0.2145 -0.3302
42836W        W85930  29.757  26.091  25.279 -0.1625 -0.3761  0.2156
42837W        W85931  32.261  29.416  26.409  0.0700 -0.4060 -0.0768
42838W        W85932  30.275  28.321  25.579  0.0219 -0.2299 -0.1712
42839W        W85933  29.916  26.753  26.290 -0.5127 -0.0076  0.3201
42840W        W85934  31.542  26.223  28.009 -0.0934  0.2037  0.0422
42841W        W85935  31.959  27.002  27.280 -0.4802 -0.0707  0.0494
42842W        W85936  31.547  27.665  27.437  0.1928 -0.0277  0.0824
42843W        W85937  29.433  26.438  24.156  0.2729 -0.0022 -0.1173
42844W        W85938  31.264  29.275  26.334  0.1051  0.0408  0.5017
42845W        W85939  30.329  27.749  23.888  0.2394  0.0735  0.1116
42846W        W85940  28.935  27.480  25.051 -0.1268  0.0342 -0.2422
42847W        W85941  29.993  28.442  27.337  0.0278 -0.0340 -0.0658
42848W        W85942  33.393  27.128  27.278 -0.0867 -0.2379  0.0900
42849W        W85943  28.326  26.868  25.692 -0.2080 -0.0202 -0.0800
42850W        W85944  33.573  26.866  26.088  0.0159  0.3451 -0.2900
42851W        W85945  30.613  28.023  24.739  0.3169 -0.2483  0.0091
42852W        W85946  28.305  26.982  26.435  0.1034  0.1704 -0.2705
42853W        W85947  31.201  25.652  25.794 -0.0511  0.2308  0.1145
42854W        W85948  31.099  27.608  24.483  0.1656  0.1349  0.1198
42855W        W85949  30.228  27.446  27.574  0.1883  0.0679  0.0516
42856W        W85950  30.221  27.638  26.945 -0.0410  0.0253 -0.1411
42857W        W85951  31.202  26.016  24.726 -0.0053 -0.1758  0.0670
42858W        W85952  30.567  25.449  24.684 -0.3268 -0.4725 -0.3606
42859W        W85953  30.305  28.572  27.804 -0.3660 -0.2306  0.1427
42860W        W85954  30.130  27.259  25.161  0.5683  0.1467  0.0714
42861W        W85955  30.258  27.145  26.257  0.2496  0.1479 -0.2564
42862W        W85956  30.133  25.156  24.981  0.0776  0.0634  0.0251
42863W        W85957  31.218  28.582  24.117  0.0965  0.2544 -0.0773
42864W        W85958  28.088  28.393  26.069 -0.0589  0.2733 -0.1901
42865W        W85959  29.814  28.238  28.548 -0.2695  0.1493  0.3288
42866W        W85960  31.499  29.616  25.190  0.1745 -0.1285  0.2034
42867W        W85961  30.610  24.850  27.865  0.4551  0.0114 -0.1082
42868W        W85962  30.702  26.970  23.743 -0.2798 -0.2057  0.0827
42869W        W85963  30.974  26.280  25.056 -0.0306  0.0589 -0.1394
42870W        W85964  29.704  28.961  23.872  0.0454  0.0382  0.0736
42871W        W85965  32.209  25.134  26.659 -0.0861 -0.0912  0.0870
42872W        W85966  32.402  26.305  26.452  0.1038 -0.2688  0.0134
42873W        W85967  31.724  27.349  27.850 -0.2287  0.1086 -0.0546
42874W        W85968  32.333  26.497  28.242 -0.0411 -0.0755  0.1368
42875W        W85969  31.684  26.051  24.683 -0.1312 -0.0206 -0.0703
42876W        W85970  30.134  27.003  27.323 -0.1732  0.3103 -0.3068
42877W        W85971  30.588  26.320  24.236  0.0598  0.1897  0.0243
42878W        W85972  31.564  26.665  27.845  0.4986  0.1575 -0.0422
42879W        W85973  29.567  27.847  26.597  0.0220 -0.0117  0.1832
42880W        W85974  29.788  27.383  27.050  0.0395  0.0472  0.0944
42881W        W85975  31.318  27.972  28.563  0.0660  0.1935 -0.0905
42882W        W85976  30.479  27.765  26.240  0.2264  0.1324  0.0928
42883W        W85977  30.718  26.572  29.936  0.1822  0.2061  0.0394
42884W        W85978  31.273  25.434  25.331 -0.0795 -0.0316  0.1406
42885W        W85979  31.112  28.722  25.525 -0.1643 -0.1564 -0.0656
42886W        W85980  31.597  27.412  25.311 -0.3425 -0.3825  0.3700
42887W        W85981  29.926  25.402  27.914  0.0555  0.1111  0.1908
42888W        W85982  31.658  26.181  27.105  0.2205 -0.0368 -0.1259
42889W        W85983  31.170  29.102  23.981 -0.0831 -0.0479  0.1076
42890W        W85984  33.006  26.533  27.467 -0.1413 -0.2813 -0.2990
42891W        W85985  31.788  27.920  25.620 -0.0609 -0.0898  0.0039
42892W        W85986  32.025  25.967  26.137  0.2330  0.0913  0.1337
42893W        W85987  29.433  28.754  25.494  0.0616  0.1409 -0.2783
42894W        W85988  31.304  26.706  25.749 -0.1409 -0.0681 -0.1850
42895W        W85989  28.734  26.827  24.430  0.1154  0.0945 -0.0397
42896W        W85990  32.589  25.350  24.275 -0.1466  0.0160 -0.1534
42897W        W85991  31.094  27.262  25.358  0.0222 -0.1866  0.3347
42898W        W85992  30.673  26.124  27.141 -0.0955 -0.3273  0.0288
42899W        W85993  30.048  26.493  25.472 -0.1060 -0.4714  0.0048
42900W        W85994  28.510  28.083  25.814  0.1502 -0.1913  0.0060
42901W        W85995  31.814  26.682  25.567  0.0770 -0.0664 -0.1442
42902W        W85996  31.495  26.388  24.378  0.2442  0.1586  0.3552
42903W        W85997  31.228  26.724  26.753  0.0353  0.2175  0.1520
42904W        W85998  31.282  26.029  28.990  0.0662 -0.0333 -0.2923
42905W        W85999  30.558  27.508  25.338 -0.2294 -0.3452 -0.1241
42906W        W86000  33.387  26.843  26.720  0.1965 -0.1932  0.0742
42907W        W86001  30.254  27.428  25.745 -0.4662  0.1081 -0.0349
42908W        W86002  29.742  28.756  24.903 -0.0666 -0.0910  0.0224
42909W        W86003  30.883  28.788  27.824 -0.0913  0.1658  0.1001
42910W        W86004  30.948  27.695  25.582  0.2414 -0.1767  0.0030
42911W        W86005  30.175  28.154  25.074  0.2600 -0.1788 -0.0319
42912W        W86006  30.154  26.838  25.840 -0.0636  0.1045 -0.0691
42913W        W86007  32.733  27.611  26.613  0.1434  0.2647  0.1337
42914W        W86008  30.309  24.256  26.367  0.0982 -0.1899 -0.0927
42915W        W86009  29.524  25.247  25.340 -0.1858 -0.0528  0.3123
42916W        W86010  30.942  26.273  25.806 -0.0932 -0.1065 -0.1938
42917W        W86011  30.972  27.351  26.874 -0.0803  0.3696 -0.2010
42918W        W86012  31.429  27.127  27.512 -0.3872  0.1846  0.0331
42919W        W86013  30.559  27.627  27.260  0.2188 -0.1385 -0.0059
42920W        W86014  29.667  25.270  24.839 -0.0628 -0.1563  0.2026
42921W        W86015  32.933  28.746  25.009  0.1619 -0.0762 -0.2156
42922W        W86016  32.115  27.455  25.227 -0.1193  0.3517  0.1938
42923W        W86017  30.602  27.387  26.532 -0.3908 -0.0180 -0.2483
42924W        W86018  28.918  27.613  27.134  0.1452 -0.2074 -0.2866
42925W        W86019  31.660  28.178  26.554  0.1894  0.0337  0.4220
42926W        W86020  31.099  26.389  27.057 -0.1634 -0.0003 -0.1429
42927W        W86021  29.733  28.594  25.919 -0.2078  0.1175 -0.0224
42928W        W86022  29.819  26.110  23.237 -0.0502  0.5125 -0.0451
42929W        W86023  29.514  27.360  28.060 -0.3928  0.0551  0.1343
42930W        W86024  30.413  24.965  24.081 -0.0457 -0.0763  0.0427
42931W        W86025  31.832  28.865  23.340 -0.1078  0.1379 -0.0062
42932W        W86026  30.600  28.374  26.879 -0.1512  0.3626  0.2029
42933W        W86027  32.619  26.671  26.255  0.2665  0.0903 -0.1352
42934W        W86028  31.217  28.074  23.242  0.1359 -0.3548 -0.2198
42935W        W86029  31.136  26.644  28.154  0.0723 -0.0644  0.0636
42936W        W86030  32.133  26.193  27.936 -0.1567 -0.3358 -0.3495
42937W        W86031  31.755  29.212  25.275  0.3462  0.1834 -0.1514
42938W        W86032  28.743  26.242  26.823 -0.1062  0.0828 -0.1827
42939W        W86033  32.282  28.537  27.499  0.2332  0.0817  0.1225
42940W        W86034  29.638  26.891  27.244 -0.3385 -0.0609  0.0227
42941W        W86035  30.944  26.710  25.401  0.0857 -0.1052 -0.0751
42942W        W86036  28.644  25.950  24.369  0.0311  0.4364 -0.1579
42943W        W86037  29.383  26.472  26.233 -0.0036  0.1390  0.2079
42944W        W86038  32.156  28.086  27.370  0.1539 -0.3336 -0.0615
42945W        W86039  31.099  28.153  24.747  0.0643 -0.3131  0.2831
42946W        W86040  32.749  26.050  25.520 -0.4163 -0.1664  0.1633
42947W        W86041  29.406  27.476  25.129  0.1925  0.1986  0.0182
42948W        W86042  31.554  26.021  25.142  0.0195  0.1220 -0.2302
42949W        W86043  30.753  27.231  24.887  0.2473 -0.0928  0.0862
42950W        W86044  30.123  27.750  25.389 -0.0597  0.0643  0.0236
42951W        W86045  30.436  26.542  27.440 -0.3113 -0.0306 -0.1594
42952W        W86046  33.095  27.316  25.422 -0.1609 -0.1432  0.1960
42953W        W86047  31.355  26.197  26.618 -0.2535 -0.0166  0.0092
42954W        W86048  31.008  26.584  28.774  0.2188 -0.4571  0.1905
42955W        W86049  32.210  25.877  26.670 -0.2015 -0.0044 -0.2037
42956W        W86050  29.784  27.615  28.987  0.2274  0.1119 -0.0364
42957W        W86051  30.577  26.658  29.088 -0.1124 -0.2600 -0.1515
42958W        W86052  34.100  30.125  27.654  0.0632  0.2005  0.1778
42959W        W86053  30.639  25.840  23.907 -0.0225  0.0359 -0.3051
42960W        W86054  31.868  26.962  26.800 -0.0672 -0.0159  0.3731
42961W        W86055  32.583  26.972  25.221  0.3912 -0.2322  0.2934
42962W        W86056  30.828  25.806  24.504 -0.2012 -0.1123 -0.1308
42963W        W86057  31.080  26.022  26.216  0.0210 -0.3808 -0.0356
42964W        W86058  31.150  26.639  26.221 -0.1298  0.1702  0.1071
42965W        W86059  29.127  25.505  25.874 -0.0779 -0.1050 -0.1330
42966W        W86060  31.349  25.787  28.354 -0.0586  0.2584 -0.3046
42967W        W86061  31.305  27.994  25.755 -0.2151  0.0634  0.0955
42968W        W86062  31.812  27.854  25.124  0.1159 -0.0894  0.0022
42969W        W86063  31.300  25.167  23.657 -0.2019 -0.1332 -0.0447
42970W        W86064  26.710  25.827  25.671 -0.0964 -0.0203  0.2663
42971W        W86065  29.368  29.802  26.989 -0.2406 -0.0145  0.1655
42972W        W86066  31.368  28.559  23.094 -0.3875  0.0556 -0.0610
42973W        W86067  31.078  27.127  24.496 -0.3410  0.1576  0.1473
42974W        W86068  31.601  27.689  28.903 -0.0464 -0.4729  0.2190
42975W        W86069  32.905  28.252  29.373  0.0229  0.2815  0.0311
42976W        W86070  29.519  25.274  24.397 -0.3355  0.1581  0.1484
42977W        W86071  32.741  27.109  26.609  0.1006  0.0665  0.0093
42978W        W86072  28.880  26.889  23.378  0.0464  0.0960 -0.0739
42979W        W86073  30.473  26.431  25.776 -0.1156 -0.1231  0.0291
42980W        W86074  29.725  28.396  25.236 -0.0108  0.1293 -0.1901
42981W        W86075  28.749  26.855  27.655 -0.3179  0.0803  0.3631
42982W        W86076  30.485  27.891  25.768 -0.1230  0.4764 -0.0086
42983W        W86077  30.023  25.416  26.839 -0.3108  0.1735  0.1559
42984W        W86078  31.458  26.868  24.565  0.1251 -0.0159 -0.0792
42985W        W86079  30.711  26.789  26.055  0.0343  0.0861  0.0848
42986W        W86080  32.447  27.333  27.072 -0.1197  0.0464  0.0010
42987W        W86081  32.536  27.603  27.489  0.0719  0.0940  0.3035
42988W        W86082  29.933  27.668  26.142 -0.1453  0.2134  0.1574
42989W        W86083  32.885  29.062  28.742 -0.5056 -0.1146 -0.0033
42990W        W86084  31.976  29.127  26.687  0.0129 -0.1829 -0.0479
42991W        W86085  29.577  28.125  26.103 -0.0734  0.1953  0.3907
42992W        W86086  28.938  26.651  26.384  0.0869  0.2288 -0.3158
42993W        W86087  30.732  27.539  29.343  0.3109  0.1384 -0.0781
42994W        W86088  30.851  26.936  26.561 -0.1312  0.0667 -0.1560
42995W        W86089  29.891  25.601  25.114  0.0785 -0.3268  0.1930
42996W        W86090  30.632  28.658  25.405 -0.1600  0.0564  0.2015
42997W        W86091  28.398  27.219  28.204 -0.2890  0.2485  0.0335
42998W        W86092  29.181  27.062  28.271 -0.2385 -0.1372 -0.0411
42999W        W86093  30.906  29.051  25.208 -0.1655 -0.2972  0.1250
43000W        W86094  31.662  28.276  24.419  0.1901  0.4203 -0.1427
43001W        W86095  31.293  27.403  24.852 -0.3050 -0.1466  0.1202
43002W        W86096  31.235  28.389  27.960 -0.1190 -0.2324  0.0713
43003W        W86097  29.326  27.795  24.009  0.0914 -0.2907 -0.0934
43004W        W86098  29.719  29.234  25.372 -0.0559  0.2176 -0.0179
43005W        W86099  28.820  28.578  23.806 -0.0167 -0.2205  0.4478
43006W        W86100  31.578  28.828  24.491 -0.0485 -0.0721 -0.0862
43007W        W86101  29.635  27.818  24.372  0.0595 -0.0542 -0.2167
43008W        W86102  32.470  28.690  28.623  0.4163  0.2850  0.1125
43009W        W86103  32.090  25.100  23.016  0.1009 -0.0104  0.2392
43010W        W86104  32.689  27.446  26.147 -0.2947  0.1636  0.2081
43011W        W86105  31.738  27.154  23.927 -0.1649 -0.0386  0.1908
43012W        W86106  31.817  28.048  28.672 -0.0747 -0.2083  0.1234
43013W        W86107  30.435  25.193  27.191  0.0952 -0.0095 -0.0818
43014W        W86108  29.979  25.126  24.459 -0.3093  0.1771 -0.0220
43015W        W86109  30.769  27.582  27.746 -0.0667 -0.0201 -0.1989
43016W        W86110  32.230  25.153  27.886  0.0176 -0.0523  0.0340
43017W        W86111  28.978  29.537  26.710 -0.2401  0.2366 -0.1265
43018W        W86112  31.319  27.922  25.242  0.1143  0.2661  0.0406
43019W        W86113  29.984  27.021  24.338  0.0139  0.2227 -0.0090
43020W        W86114  30.398  27.559  24.830 -0.1503 -0.4505 -0.0738
43021W        W86115  33.522  24.988  26.285  0.2900 -0.0499  0.0375
43022W        W86116  31.357  26.371  23.054  0.0628  0.0802  0.0246
43023W        W86117  31.723  25.679  27.272 -0.0264 -0.0560  0.0611
43024W        W86118  29.399  28.630  24.580  0.0168 -0.0039 -0.2970
43025W        W86119  30.619  28.230  26.310  0.2764  0.2707  0.1267
43026W        W86120  30.683  27.785  26.754  0.1096  0.0461  0.0765
43027W        W86121  28.233  26.759  24.828  0.2726 -0.3328  0.0945
43028W        W86122  33.008  27.664  25.725  0.2528 -0.2019 -0.0026
43029W        W86123  30.024  26.506  27.061  0.0272  0.1354  0.3129
43030W        W86124  32.607  26.377  27.169  0.3375  0.0591 -0.0090
43031W        W86125  30.331  26.776  25.218  0.1898 -0.1648 -0.0855
43032W        W86126  31.320  26.352  25.375  0.0106  0.0676 -0.3871
43033W        W86127  30.720  27.440  25.994  0.0806  0.0686  0.1196
43034W        W86128  29.738  24.533  25.857 -0.0415 -0.1870  0.0931
43035W        W86129  30.694  26.831  24.191  0.2446 -0.2467  0.1930
43036W        W86130  32.272  27.206  26.634 -0.0467  0.0323 -0.0194
43037W        W86131  32.049  27.281  24.295 -0.0225  0.0705 -0.0298
43038W        W86132  31.473  29.119  26.806 -0.3440 -0.3267 -0.1083
43039W        W86133  30.225  25.667  25.962  0.2120  0.2251  0.0180
43040W        W86134  31.714  26.017  25.578  0.0123  0.0935  0.1115
43041W        W86135  29.853  27.626  24.884  0.2919 -0.0484 -0.3495
43042W        W86136  30.976  26.630  27.570  0.1495  0.2528 -0.3360
43043W        W86137  32.350  28.983  27.205  0.3823  0.0275  0.2973
43044W        W86138  30.773  25.261  25.130 -0.0776  0.2996 -0.3187
43045W        W86139  32.494  28.350  25.119  0.1241  0.2444 -0.0623
43046W        W86140  33.204  26.214  25.641  0.1026 -0.1005  0.0594
43047W        W86141  31.013  29.578  24.952  0.1744 -0.2934  0.4231
43048W        W86142  31.427  26.906  25.293 -0.0344 -0.0608 -0.0060
43049W        W86143  29.770  27.394  26.577 -0.3412  0.0446  0.0150
43050W        W86144  29.024  26.580  25.855  0.0648 -0.1858  0.0075
43051W        W86145  32.848  28.603  27.465 -0.2372 -0.2026  0.2094
43052W        W86146  32.083  27.459  27.438 -0.0777 -0.1455  0.1165
43053W        W86147  30.198  26.019  24.350 -0.0719  0.0567  0.1415
43054W        W86148  30.637  27.027  27.483  0.0623 -0.3816  0.0667
43055W        W86149  30.203  28.894  24.526  0.0387 -0.2228  0.2006
43056W        W86150  33.338  27.247  26.354 -0.3333  0.1459 -0.0189
43057W        W86151  31.804  25.269  26.942  0.1226 -0.1514 -0.2285
43058W        W86152  30.917  29.605  24.343 -0.1875 -0.3844  0.0682
43059W        W86153  33.472  25.979  26.300 -0.1546 -0.0151 -0.1095
43060W        W86154  31.114  27.732  28.988 -0.0149  0.1141  0.1463
43061W        W86155  29.381  28.044  28.797 -0.0109 -0.1743  0.0989
43062W        W86156  30.234  26.941  23.364  0.1311  0.1440  0.0505
43063W        W86157  31.793  26.072  27.583  0.0154 -0.3172  0.1686
43064W        W86158  30.835  28.251  25.671 -0.4776  0.1404  0.0212
43065W        W86159  31.582  27.490  25.825 -0.1512 -0.2033  0.0227
43066W        W86160  31.297  28.678  27.542 -0.0671 -0.0192 -0.0855
43067W        W86161  30.813  26.465  26.595  0.0583  0.0469  0.2326
43068W        W86162  31.780  28.945  26.163  0.1329 -0.0765  0.1080
43069W        W86163  29.616  27.319  24.530  0.2347 -0.3003  0.1002
43070W        W86164  32.086  26.020  25.149  0.0245 -0.3907  0.1472
43071W        W86165  30.580  27.038  25.578 -0.1933  0.5602 -0.2869
43072W        W86166  29.309  27.078  26.436  0.0954 -0.1086 -0.1412
43073W        W86167  28.615  25.403  24.272  0.0989  0.0493 -0.2323
43074W        W86168  29.863  28.103  22.334  0.1217 -0.0554  0.5815
43075W        W86169  28.725  27.196  25.445 -0.2137  0.0031 -0.0440
43076W        W86170  31.666  25.702  29.759 -0.0965 -0.0570 -0.1079
43077W        W86171  29.760  26.598  27.734 -0.1094  0.1080 -0.0804
43078W        W86172  28.481  26.620  26.135 -0.0374  0.0794 -0.1201
43079W        W86173  28.730  25.632  26.183  0.2895  0.2976 -0.1113
43080W        W86174  32.488  30.692  25.150  0.2231  0.2046  0.2194
43081W        W86175  29.911  26.403  25.919  0.3582 -0.0333 -0.3644
43082W        W86176  29.074  24.721  26.126 -0.0958 -0.2864 -0.3738
43083W        W86177  32.055  28.357  24.768  0.1471  0.2007  0.2387
43084W        W86178  31.834  30.430  26.119  0.2140  0.0182  0.2248
43085W        W86179  30.814  25.924  26.632  0.2046  0.3121  0.3723
43086W        W86180  34.400  28.462  27.748  0.2446  0.2924  0.0742
43087W        W86181  27.834  26.475  22.359 -0.2195  0.0051  0.3496
43088W        W86182  32.076  26.748  27.824  0.0976  0.1906 -0.2456
43089W        W86183  30.823  26.899  28.401  0.0764 -0.2406 -0.2888
43090W        W86184  29.308  25.958  23.313  0.1819 -0.2368 -0.3750
43091W        W86185  30.967  27.083  27.820 -0.1921 -0.1344  0.1365
43092W        W86186  31.155  27.997  26.595  0.1558  0.0728  0.1386
43093W        W86187  31.698  29.878  23.381  0.0341 -0.0460  0.1377
43094W        W86188  29.406  26.753  26.799  0.0581 -0.0063  0.1528
43095W        W86189  31.459  27.207  26.985  0.0783  0.1538 -0.0558
43096W        W86190  29.946  24.993  28.308 -0.0782  0.0731 -0.0400
43097W        W86191  31.680  26.990  25.973  0.0516 -0.3985  0.3985
43098W        W86192  30.452  27.203  26.998 -0.1304 -0.2439  0.5073
43099W        W86193  32.065  28.696  24.433 -0.0231  0.1765 -0.1407
43100W        W86194  33.423  25.418  26.059  0.0876 -0.2404  0.0915
43101W        W86195  30.708  25.704  25.950  0.1546 -0.1434 -0.0972
43102W        W86196  29.295  26.603  28.127 -0.2540  0.0856 -0.1138
43103W        W86197  29.910  26.999  26.822 -0.0758 -0.2048  0.2350
43104W        W86198  32.530  28.991  26.637 -0.0620  0.1295 -0.0710
43105W        W86199  30.795  25.195  26.195 -0.0556 -0.1081  0.1288
43106W        W86200  31.618  25.500  23.991  0.0097 -0.0653 -0.0774
43107W        W86201  32.118  26.806  26.375  0.2169 -0.0299 -0.3077
43108W        W86202  29.339  26.356  27.108 -0.1351 -0.1296 -0.0507
43109W        W86203  31.799  27.701  24.108 -0.5403  0.0808 -0.0865
43110W        W86204  30.326  26.311  26.757 -0.2632 -0.1031 -0.1836
43111W        W86205  31.492  27.586  26.680 -0.2877 -0.2416  0.2535
43112W        W86206  32.215  29.104  28.463 -0.3204  0.2739 -0.4956
43113W        W86207  31.123  27.155  25.963  0.2408  0.2513 -0.3776
43114W        W86208  32.439  28.818  25.460 -0.0160 -0.1612 -0.0269
43115W        W86209  31.928  28.557  27.109 -0.0034  0.2567 -0.1273
43116W        W86210  34.241  29.496  27.789  0.3355 -0.0630  0.0000
43117W        W86211  30.843  28.054  27.364 -0.0835  0.4836  0.0654
43118W        W86212  31.624  28.174  27.124 -0.2039  0.2391 -0.1978
43119W        W86213  28.985  26.037  25.015 -0.2155  0.3255 -0.2381
43120W        W86214  31.068  28.330  25.198  0.0398  0.0061 -0.1363
43121W        W86215  30.925  27.882  26.047 -0.1987 -0.1896  0.0030
43122W        W86216  33.348  27.314  25.883 -0.2025  0.0666  0.2072
43123W        W86217  31.110  25.000  26.526  0.2773  0.0340  0.2226
43124W        W86218  30.633  24.910  25.455  0.4410  0.0352  0.1525
43125W        W86219  30.284  28.090  27.115 -0.2094  0.0618 -0.3075
43126W        W86220  32.082  27.794  26.535 -0.1419 -0.0310 -0.1871
43127W        W86221  29.708  29.454  30.419  0.2293 -0.1563  0.1003
43128W        W86222  30.221  26.202  29.104 -0.3534  0.0119 -0.2526
43129W        W86223  32.445  26.718  26.798  0.3765 -0.3805 -0.0202
43130W        W86224  33.584  27.501  29.591 -0.0404 -0.0036  0.2058
43131W        W86225  29.069  27.593  30.151  0.0644 -0.0905 -0.1715
43132W        W86226  31.144  29.540  29.909 -0.2786  0.0506 -0.1453
43133W        W86227  29.745  26.219   0.864 -0.2269  0.0160 -0.0431
43134W        W86228  31.777  29.354  30.281 -0.1849 -0.2051  0.0394
43135W        W86229  32.851  28.969  31.057  0.1048  0.1649 -0.3465
43136W        W86230  30.865  28.434  28.296  0.2012  0.1013 -0.1885
43137W        W86231  30.659  26.543  30.901 -0.0532  0.1848 -0.0323
43138W        W86232  29.413  28.527  30.187 -0.0865 -0.1811 -0.0963
43139W        W86233  31.358  26.056  29.825  0.0046 -0.0785  0.4158
43140W        W86234  30.007  25.305  30.001  0.2978  0.0498  0.1614
43141W        W86235  32.848  26.178  29.308  0.1642 -0.3920 -0.0481
43142W        W86236  30.693  27.383  29.757  0.0615  0.1778  0.0181
43143W        W86237  30.034  27.404  30.521  0.3468  0.2264  0.1578
43144W        W86238  32.389  27.179  29.053  0.1872 -0.1113  0.2327
43145W        W86239  30.820  29.686  29.143  0.0638 -0.0699 -0.0811
43146W        W86240  29.198  26.541  29.703  0.1735  0.1095  0.0837
43147W        W86241  30.377  26.868  31.187 -0.2587 -0.1068  0.0455
43148W        W86242  31.487  28.377  28.443 -0.1767  0.1386  0.0151
43149W        W86243  28.618  25.864  27.134  0.1629 -0.0904  0.0650
43150W        W86244  28.680  27.234  31.050  0.0506 -0.0473 -0.3130
43151W        W86245  29.583  28.949  30.498 -0.1809  0.0794  0.0638
43152W        W86246  31.422  28.473  29.999  0.2511  0.3457 -0.1873
43153W        W86247  31.954  27.624  30.120  0.1600  0.0047  0.2583
43154W        W86248  30.779  28.781  28.718 -0.1291  0.0379  0.1376
43155W        W86249  30.674  28.813  29.604 -0.0674  0.1119  0.1855
43156W        W86250  31.732  25.347  30.532  0.0638 -0.1001 -0.1639
43157W        W86251  28.589  28.028  30.204 -0.2918  0.1079 -0.2486
43158W        W86252  29.233  29.168  29.480 -0.0476 -0.0165  0.0801
43159W        W86253  30.516  28.830  28.188 -0.1177 -0.0215 -0.1480
43160W        W86254  32.174  29.485  29.856 -0.0226 -0.0019 -0.0376
43161W        W86255  31.057  28.883  29.976  0.1839  0.4020 -0.0598
43162W        W86256  30.140  29.642  30.740 -0.2343  0.2661 -0.2874
43163W        W86257  28.683  28.192  29.740  0.2035  0.2026  0.0182
43164W        W86258  30.965  29.135  31.098  0.3727 -0.3772  0.2945
43165W        W86259  30.961  29.119  30.622  0.0970  0.1471 -0.1410
43166W        W86260  31.294  26.851  30.388  0.2318 -0.2568 -0.0747
43167W        W86261  31.117  27.895  29.476  0.1214 -0.1873  0.2779
43168W        W86262  31.676  29.425  27.673 -0.0941 -0.0401 -0.4382
43169W        W86263  30.502  28.506  30.077  0.1324  0.0670  0.0496
43170W        W86264  29.740  28.441  31.073 -0.0235 -0.0482  0.0114
43171W        W86265  28.492  29.767  30.213  0.1792  0.0926  0.0374
43172W        W86266  30.456  25.308   1.213  0.0740  0.0180  0.1761
43173W        W86267  28.598  28.712  29.375  0.2659 -0.2163 -0.0684
43174W        W86268  32.017  26.481  27.400  0.2228  0.0201  0.1674
43175W        W86269  31.375  27.069  28.130 -0.2379 -0.0853 -0.1904
43176W        W86270  32.336  27.905  28.692 -0.0959  0.3168 -0.1450
43177W        W86271  31.117  24.720  29.240  0.1628  0.2387  0.2268
43178W        W86272  30.172  29.907  29.415  0.0352  0.1505  0.2433
43179W        W86273  30.499  26.233  30.464  0.3786  0.0309  0.2105
43180W        W86274  32.571  28.157  30.229 -0.0457 -0.2883  0.0424
43181W        W86275  32.175  25.914  31.001 -0.1034  0.0387  0.1434
43182W        W86276  31.927  26.138  31.364 -0.0864  0.1011 -0.0923
43183W        W86277  29.879  29.529  29.289  0.0380 -0.1280 -0.1023
43184W        W86278  29.499  24.945  30.004 -0.2835  0.1417  0.0131
43185W        W86279  31.673  28.620  28.015 -0.0388  0.1973  0.2573
43186W        W86280  32.081  29.012  29.991  0.1575  0.3430  0.1114
43187W        W86281  33.504  28.348  28.621 -0.0782  0.0909  0.2731
43188W        W86282  29.942  26.907  30.450  0.1398  0.2077 -0.0022
43189W        W86283  29.273  27.609  31.566 -0.2085 -0.1350 -0.0652
43190W        W86284  31.077  26.964  30.815  0.0528  0.0854  0.3050
43191W        W86285  31.719  25.834  28.910  0.1936  0.0305  0.0111
43192W        W86286  32.277  27.307  30.404  0.1998 -0.0680 -0.1470
43193W        W86287  29.680  29.319  31.562 -0.0215 -0.0255  0.1845
43194W        W86288  33.704  26.431  28.978 -0.3110  0.4201 -0.1816
43195W        W86289  30.037  28.330  30.154  0.0569 -0.0059  0.0201
43196W        W86290  32.426  29.449  30.298  0.1704 -0.2371  0.1802
43197W        W86291  33.434  28.791  28.381  0.3939  0.3537  0.2197
43198W        W86292  32.494  26.597  28.739  0.3490 -0.1081 -0.2273
43199W        W86293  32.800  25.468  30.386 -0.1700  0.2313 -0.0121
43200W        W86294  30.476  27.237  28.573  0.4264 -0.0112 -0.0941
43201W        W86295  30.107  26.837  29.242  0.0165  0.0777  0.2049
43202W        W86296  33.770  28.884  30.320 -0.0526  0.0820 -0.1493
43203W        W86297  32.837  27.363  28.051 -0.1284  0.3053  0.0316
43204W        W86298  28.692  29.953  30.670 -0.0119 -0.1902 -0.1055
43205W        W86299  29.946  27.929  30.755 -0.0520 -0.2652  0.2303
43206W        W86300  30.336  29.485   0.216  0.0694  0.1592  0.1069
43207W        W86301  28.931  27.975  29.037  0.1300  0.1789  0.0239
43208W        W86302  29.209  27.292  31.064 -0.1406 -0.3892 -0.0727
43209W        W86303  30.194  28.022  28.253 -0.0670  0.2710  0.0474
43210W        W86304  28.063  26.112  31.017  0.2389 -0.1253 -0.0752
43211W        W86305  30.478  28.367  30.539  0.0585  0.0065  0.1081
43212W        W86306  32.882  27.791  28.376  0.2130  0.1224  0.0400
43213W        W86307  29.980  26.223  29.544 -0.0465 -0.0306 -0.1480
43214W        W86308  31.449  26.753  28.557  0.0420 -0.1776 -0.1614
43215W        W86309  29.652  30.068  29.549 -0.1146  0.0607  0.2122
43216W        W86310  32.270  29.384  29.109 -0.1930  0.1068 -0.0218
43217W        W86311  32.249  28.881  29.083 -0.4889 -0.0304  0.0019
43218W        W86312  34.056  27.579  29.304  0.0771 -0.0015  0.0779
43219W        W86313  28.784  26.703  30.730 -0.3858  0.3871 -0.2911
43220W        W86314  29.464  27.943  30.348  0.0152 -0.0668 -0.2779
43221W        W86315  29.406  26.933  30.771  0.0104  0.0763 -0.0871
43222W        W86316  29.682  26.384  29.893  0.2172 -0.2421 -0.0068
43223W        W86317  31.614  25.250   0.694 -0.2836  0.0700  0.2201
43224W        W86318  30.634  26.724  27.959  0.0930 -0.1956  0.0251
43225W        W86319  32.211  27.288  29.895 -0.1337  0.3034  0.2541
43226W        W86320  30.794  27.420  30.828 -0.2956 -0.0714 -0.0484
43227W        W86321  29.927  28.080  29.752  0.1603  0.1110  0.3398
43228W        W86322  32.863  27.076  31.626  0.1556  0.1591 -0.0302
43229W        W86323  31.651  29.981  27.184  0.3788 -0.1038 -0.3499
43230W        W86324  32.639  28.021  30.791  0.0273 -0.2700  0.0163
43231W        W86325  31.520  29.455  29.604 -0.0103  0.0287  0.2221
43232W        W86326  29.252  25.342   0.306  0.0280 -0.0501  0.1420
43233W        W86327  32.069  26.552  29.139 -0.0520 -0.2733 -0.0340
43234W        W86328  29.131  29.318  28.010 -0.0386  0.0773 -0.2437
43235W        W86329  29.603  28.768  29.752 -0.0235 -0.0470  0.0561
43236W        W86330  31.390  26.647  29.956 -0.0497  0.2165  0.1409
43237W        W86331  32.508  29.988  30.549  0.1402 -0.4038  0.0247
43238W        W86332  31.426  27.314  29.230  0.0981 -0.0596 -0.1641
43239W        W86333  30.602  27.554  30.314 -0.0694 -0.1542  0.3336
43240W        W86334  31.377  25.445  30.971  0.2240  0.0223  0.1554
43241W        W86335  31.934  28.349  30.942 -0.1332 -0.0921 -0.0782
43242W        W86336  31.531  27.948  29.980  0.1509 -0.0792  0.1398
43243W        W86337  31.341  26.250  28.457 -0.0192 -0.0175  0.2245
43244W        W86338  31.401  28.781  28.816  0.4635 -0.1133  0.2421
43245W        W86339  29.413  29.960  28.504 -0.1729 -0.1295  0.2906
43246W        W86340  29.119  28.073  30.061 -0.0349  0.0831 -0.2342
43247W        W86341  30.663  28.043  29.163 -0.0852 -0.0662  0.0509
43248W        W86342  33.392  25.413  30.430 -0.0416  0.0077 -0.0019
43249W        W86343  30.282  27.516  30.989  0.0290 -0.1535  0.0895
43250W        W86344  31.612  25.972  30.844 -0.0910 -0.1221  0.2429
43251W        W86345  31.185  27.446  29.699 -0.2231 -0.0938  0.0082
43252W        W86346  27.737  28.216  30.791 -0.1318 -0.0193 -0.3737
43253W        W86347  31.985  26.146  30.517  0.0842  0.4326 -0.3756
43254W        W86348  32.503  25.649  29.438  0.0923  0.2593 -0.0531
43255W        W86349  31.455  29.066  31.398  0.0303  0.0706  0.4122
43256W        W86350  32.497  28.927  30.540 -0.1374 -0.0433 -0.5552
43257W        W86351  32.118  25.755  28.681 -0.1171 -0.1217 -0.0257
43258W        W86352  31.707  25.427  28.538 -0.2252  0.1071  0.1558
43259W        W86353  30.102  28.582  31.352  0.0437  0.1864  0.0060
43260W        W86354  31.530  27.767  30.483  0.0530  0.0196  0.0153
43261W        W86355  30.466  28.333  29.608 -0.1435 -0.1408 -0.3077
43262W        W86356  32.608  27.485  28.630 -0.2370  0.0476  0.0288
43263W        W86357  33.671  28.868  29.817  0.0865  0.0007 -0.1388
43264W        W86358  28.396  26.843  31.062 -0.0611 -0.1041  0.2083
43265W        W86359  32.406  28.582  30.052  0.2683 -0.3952 -0.0065
43266W        W86360  32.044  27.576  29.059  0.3197 -0.0649  0.3393
43267W        W86361  31.367  25.599  31.812  0.2213  0.1551  0.1876
43268W        W86362  30.340  27.257  29.066  0.1134  0.1069 -0.0889
43269W        W86363  31.125  25.336  30.505 -0.1290  0.3532 -0.0964
43270W        W86364  29.107  28.584  26.754  0.0118 -0.2376  0.0700
43271W        W86365  32.833  25.893  28.906 -0.1065 -0.0722 -0.3476
43272W        W86366  31.445  26.132  30.328 -0.1542  0.3779  0.2438
43273W        W86367  30.140  26.567  30.791  0.1629  0.1345 -0.2557
43274W        W86368  33.130  27.166   0.586  0.2000 -0.0004  0.0925
43275W        W86369  30.577  28.040  30.222 -0.1812 -0.1009  0.1132
43276W        W86370  32.126  27.398  31.003  0.3227  0.0684  0.1575
43277W        W86371  29.884  27.708  27.925 -0.3103 -0.0138 -0.0024
43278W        W86372  30.902  26.600  30.455 -0.0690  0.1198  0.2828
43279W        W86373  30.130  27.985  31.240  0.4126 -0.0871  0.2368
43280W        W86374  29.361  28.767  30.891 -0.3482 -0.1337 -0.2289
43281W        W86375  31.659  28.766  30.922 -0.0774  0.2190 -0.0938
43282W        W86376  31.026  27.019  29.882 -0.2961 -0.1993 -0.0406
43283W        W86377  31.434  26.223  31.253  0.0547  0.2916 -0.1821
43284W        W86378  30.915  27.462  28.289  0.0197  0.1304  0.0729
43285W        W86379  31.039  28.401  28.800 -0.0656 -0.0952  0.3401
43286W        W86380  31.441  28.247  29.055 -0.0213  0.1641 -0.2482
43287W        W86381  30.742  25.759  30.345  0.2132  0.0702 -0.1119
43288W        W86382  30.630  29.211  28.998 -0.2264 -0.4028 -0.2576
43289W        W86383  29.560  28.537  28.087  0.2345  0.3335 -0.0515
43290W        W86384  31.717  27.855  31.009  0.2327  0.1410  0.0318
43291W        W86385  29.805  27.721  28.536 -0.2455  0.3695  0.1363
43292W        W86386  34.240  26.364  30.079 -0.0260  0.0697 -0.1287
43293W        W86387  28.376  29.471  29.787 -0.2260 -0.0841 -0.1711
43294W        W86388  30.577  25.944  28.150 -0.1841 -0.0832  0.2022
43295W        W86389  30.271  27.659  29.926  0.0768  0.2460  0.3214
43296W        W86390  31.812  26.103  29.400 -0.1410 -0.0297  0.0940
43297W        W86391  32.137  27.405  28.621  0.1913  0.2249  0.3540
43298W        W86392  29.654  25.687  30.413 -0.1367 -0.1601  0.0711
43299W        W86393  31.545  26.846  30.878  0.0962  0.2812  0.0802
43300W        W86394  28.565  29.249  30.273 -0.2146 -0.0676  0.2519
43301W        W86395  30.518  28.207  31.571  0.0142  0.0224 -0.4089
43302W        W86396  32.206  27.812  30.593 -0.2307  0.2516  0.2255
43303W        W86397  31.185  28.190  30.374 -0.1990  0.1415  0.1944
43304W        W86398  29.942  29.211  29.742  0.3031 -0.1202 -0.1235
43305W        W86399  30.815  25.672  29.083  0.2386  0.1422  0.1087
43306W        W86400  31.592  24.898  31.215  0.0213  0.0066  0.2774
43307W        W86401  30.465  26.153  29.950  0.0651 -0.0643 -0.2712
43308W        W86402  28.225  28.560  27.650 -0.1270  0.3169 -0.2828
43309W        W86403  32.363  28.782  30.990  0.1864  0.0449 -0.1475
43310W        W86404  30.307  28.100  27.660 -0.2668  0.0425 -0.0579
43311W        W86405  30.186  27.786  29.434 -0.5219 -0.2348 -0.1080
43312W        W86406  29.914  27.037  30.958  0.4068 -0.0875 -0.0276
43313W        W86407  31.848  28.163  31.433 -0.1273  0.1155  0.1726
43314W        W86408  30.345  27.111  30.714  0.1847 -0.1747  0.0336
43315W        W86409  31.702  26.569  30.410 -0.3219 -0.1967  0.1612
43316W        W86410  31.770  27.349  29.728 -0.0125  0.1326  0.0087
43317W        W86411  33.367  29.081  31.105 -0.1752  0.0860 -0.1523
43318W        W86412  32.006  26.895  31.069  0.4470  0.2349  0.0244
43319W        W86413  27.961  29.760  30.753 -0.2693 -0.1953 -0.0396
43320W        W86414  31.448  25.672  29.314  0.1102  0.3986 -0.1586
43321W        W86415  33.488  28.990  28.798 -0.0736  0.2564 -0.1882
43322W        W86416  30.821  27.955  31.870 -0.1915  0.1925  0.2058
43323W        W86417  31.704  27.174  28.710 -0.1383 -0.1741 -0.2726
43324W        W86418  28.763  26.848  31.534  0.1493 -0.2458 -0.0424
43325W        W86419  29.960  27.129  28.729 -0.0661 -0.1365 -0.3313
43326W        W86420  30.887  25.627  30.933 -0.3938  0.2732  0.1226
43327W        W86421  28.482  28.698  31.008  0.0079  0.1070 -0.1384
43328W        W86422  29.320  27.611  29.085 -0.2533 -0.2055 -0.0482
43329W        W86423  28.160  28.233  31.020  0.2098 -0.0781  0.1140
43330W        W86424  33.282  25.029  28.917  0.3213 -0.2712 -0.1788
43331W        W86425  32.139  28.375  28.797 -0.0775 -0.0687 -0.1744
43332W        W86426  31.904  25.765  30.218  0.0461  0.0990  0.1645
43333W        W86427  31.840  25.293   1.322  0.2682  0.2541 -0.0929
43334W        W86428  31.317  27.109  26.407 -0.1929 -0.0452  0.0677
43335W        W86429  30.575  26.297  31.335  0.0170 -0.0187  0.1004
43336W        W86430  29.696  26.457  30.604  0.2634 -0.1428 -0.0762
43337W        W86431  30.429  28.330  28.642  0.3693  0.5166  0.0788
43338W        W86432  29.255  26.034  29.855 -0.0363 -0.1019  0.0178
43339W        W86433  32.070  29.717  31.235  0.1644  0.0267 -0.2086
43340W        W86434  29.713  28.768  31.847 -0.1906 -0.0985  0.0170
43341W        W86435  30.948  26.139  30.169 -0.0532 -0.0710  0.1004
43342W        W86436  31.415  26.948  29.571  0.0513 -0.0106 -0.1169
43343W        W86437  29.817  29.667  29.749 -0.0016 -0.2129  0.0597
43344W        W86438  32.592  29.414  29.659 -0.0038 -0.1739  0.2066
43345W        W86439  31.411  27.500  28.396  0.3095  0.2742 -0.0378
43346W        W86440  33.224  26.996  29.524  0.0883  0.1017 -0.4132
43347W        W86441  28.391  29.508  30.621  0.0300  0.0646  0.2645
43348W        W86442  32.698  26.767  27.889 -0.2030 -0.3366 -0.1389
43349W        W86443  31.053  27.389  27.381  0.0488  0.2871  0.0515
43350W        W86444  28.336  28.748  30.482 -0.1193 -0.1495  0.3569
43351W        W86445  29.706  25.293  31.388 -0.0587  0.0856  0.3215
43352W        W86446  32.029  28.126  30.136  0.0747  0.1948 -0.1430
43353W        W86447  32.407  27.944  29.262  0.0836 -0.0587 -0.2527
43354W        W86448  31.164  25.900  30.652 -0.1177 -0.2045 -0.5333
43355W        W86449  31.281  26.365  30.748 -0.0646 -0.0624 -0.0761
43356W        W86450  30.975  26.810  31.677 -0.0378 -0.0058  0.3373
43357W        W86451  29.205  27.067   0.389  0.2367 -0.1103 -0.0574
43358W        W86452  32.435  30.095  31.029  0.0694 -0.1920  0.1995
43359W        W86453  32.462  26.871  27.425  0.1436 -0.0033 -0.0506
43360W        W86454  32.122  25.934  29.783  0.2259 -0.1741 -0.0848
43361W        W86455  31.800  26.549  28.289  0.1191 -0.2564  0.2044
43362W        W86456  32.087  26.257  28.653  0.2055 -0.1948  0.1100
43363W        W86457  28.752  25.742  31.315  0.3659 -0.0230  0.0248
43364W        W86458  32.335  26.462  31.134 -0.2750 -0.2776 -0.2666
43365W        W86459  29.734  26.270  28.148 -0.1943 -0.2838 -0.0870
43366W        W86460  31.074  26.177  31.612  0.1697  0.1204  0.1050
43367W        W86461  30.013  28.079  29.028 -0.1098  0.0384 -0.1550
43368W        W86462  31.269  29.363  29.160 -0.0326 -0.1797  0.0615
43369W        W86463  32.461  25.521  28.985 -0.1269 -0.2645  0.0076
43370W        W86464  30.524  26.914  29.646  0.2433 -0.0266  0.0769
43371W        W86465  30.143  29.052  31.565  0.3253  0.1994 -0.0840
43372W        W86466  29.127  27.322  27.586 -0.0721 -0.1159  0.0546
43373W        W86467  31.445  27.942  28.101 -0.2194  0.1979 -0.1885
43374W        W86468  31.487  29.864  30.174  0.1431 -0.3257  0.0410
43375W        W86469  32.607  26.947   0.550  0.0329 -0.0198  0.1676
43376W        W86470  31.217  25.516  28.812 -0.0914 -0.0379 -0.0150
43377W        W86471  33.928  25.366  31.818 -0.0103 -0.0824 -0.1444
43378W        W86472  29.146  28.864  28.319  0.1856 -0.0792  0.0123
43379W        W86473  31.820  26.311  30.000  0.0889  0.1363  0.1117
43380W        W86474  30.276  29.585  29.891  0.0590 -0.1266  0.0482
43381W        W86475  28.162  28.071  30.470  0.1907 -0.0173  0.2242
43382W        W86476  30.045  28.648  29.818 -0.2416  0.0598  0.2496
43383W        W86477  30.459  25.453  30.874  0.1001 -0.0354 -0.3396
43384W        W86478  32.175  26.646  30.601 -0.1746  0.0027 -0.4517
43385W        W86479  29.978  28.589  28.963 -0.0695  0.2884  0.0411
43386W        W86480  32.823  27.520  31.872 -0.2140 -0.0016 -0.3851
43387W        W86481  30.399  27.604  31.516 -0.2070 -0.1385 -0.0688
43388W        W86482  29.513  29.356  28.976 -0.0736 -0.2719  0.2370
43389W        W86483  33.253  28.782  30.673  0.0788  0.2151 -0.0381
43390W        W86484  32.622  28.279  28.957 -0.0427  0.1024 -0.1341
43391W        W86485  28.753  29.252  29.548 -0.0185 -0.0145 -0.1663
43392W        W86486  29.628  28.002  31.263 -0.2368  0.5475  0.0691
43393W        W86487  30.933  27.813  30.549 -0.0610  0.0607  0.1157
43394W        W86488  31.788  26.669  29.570  0.1164  0.2782  0.2714
43395W        W86489  30.970  26.645  29.447  0.0498 -0.2403  0.0527
43396W        W86490  30.143  30.152  27.452 -0.3331 -0.0106 -0.0631
43397W        W86491  29.742  28.925  31.207  0.2209 -0.3321  0.3063
43398W        W86492  28.766  27.945  31.798 -0.4785 -0.0812  0.1306
43399W        W86493  29.911  28.946  27.172  0.0553 -0.1695 -0.1414
43400W        W86494  32.476  27.429  29.422  0.0498 -0.1038 -0.0932
43401W        W86495  32.884  27.734  29.270 -0.2478 -0.2133 -0.4637
43402W        W86496  30.797  29.299  30.161  0.1723  0.1918 -0.2420
43403W        W86497  31.076  27.265  28.765 -0.0644  0.2125  0.0185
43404W        W86498  29.736  28.978  29.349 -0.1175 -0.0434 -0.2707
43405W        W86499  29.223  27.504  26.700 -0.0926 -0.1809  0.0200
43406W        W86500  31.254  29.650  27.588 -0.0960  0.2297  0.0786
43407W        W86501  31.150  29.579  30.853  0.1456  0.2915  0.0516
43408W        W86502  33.542  28.070   0.080 -0.2213 -0.1459  0.1327
43409W        W86503  33.225  25.224  26.588  0.2979  0.0697  0.1511
43410W        W86504  33.100  27.450  29.800 -0.2168 -0.0537  0.2637
43411W        W86505  32.755  27.834  27.888  0.0327 -0.1534  0.2330
43412W        W86506  30.866  28.299  30.812 -0.2006 -0.0089 -0.0158
43413W        W86507  29.657  26.680  29.407 -0.0580  0.1627  0.0926
43414W        W86508  32.096  27.682  29.586  0.1440 -0.2060 -0.0714
43415W        W86509  30.350  28.233   0.266  0.2283  0.0139  0.1593
43416W        W86510  33.801  24.876  31.622  0.1759 -0.0928 -0.0767
43417W        W86511  30.061  29.133  30.688  0.1173  0.4800 -0.0789
43418W        W86512  33.203  30.983  27.268  0.1573 -0.0582  0.1203
43419W        W86513  30.509  27.929  30.770  0.3627  0.0309 -0.0651
43420W        W86514  31.028  27.735  30.058 -0.1890 -0.0739 -0.1830
43421W        W86515  33.828  25.956  31.789 -0.3535  0.0114 -0.1861
43422W        W86516  31.850  27.641  28.262 -0.0239  0.3346  0.1053
43423W        W86517  31.620  27.779  29.407  0.1594 -0.2811 -0.0943
43424W        W86518  30.545  28.585  29.099 -0.0161 -0.3527  0.0242
43425W        W86519  29.955  28.389  29.399  0.2383  0.3890  0.1759
43426W        W86520  31.311  28.739  29.551  0.1366  0.2205 -0.0170
43427W        W86521  29.118  27.135  29.929  0.0029 -0.0337 -0.1066
43428W        W86522  33.348  27.561  29.147  0.1990 -0.2093 -0.0827
43429W        W86523  28.838  27.504  30.593 -0.2051 -0.2207  0.0647
43430W        W86524  32.433  25.431  30.733 -0.0002  0.1425 -0.1835
43431W        W86525  30.712  27.688   0.369  0.2515  0.0908  0.0270
43432W        W86526  32.096  26.869  28.637 -0.2452 -0.0242  0.0233
43433W        W86527  30.911  28.637  30.346  0.0046 -0.0856  0.0096
43434W        W86528  28.672  27.141  30.140 -0.1615 -0.1052 -0.1378
43435W        W86529  30.905  27.957  28.218 -0.0427  0.3491 -0.2194
43436W        W86530  32.469  26.989  30.793  0.0244 -0.1192 -0.0208
43437W        W86531  32.633  27.986  26.057 -0.0817 -0.0644 -0.1057
43438W        W86532  32.308  28.408  30.567 -0.0156 -0.0972  0.2296
43439W        W86533  30.503  26.387  29.468 -0.0196  0.0207 -0.4256
43440W        W86534  31.813  26.001  28.340 -0.0941 -0.0800 -0.2066
43441W        W86535  28.711  28.514  30.176  0.0270  0.0329  0.0952
43442W        W86536  31.248  27.380  30.625 -0.1998  0.1505  0.0913
43443W        W86537  32.267  30.914  30.827 -0.2567 -0.1517 -0.3287
43444W        W86538  30.294  24.576  28.784  0.0555  0.1913  0.2570
43445W        W86539  32.416  27.247  27.838 -0.1703  0.2834  0.1617
43446W        W86540  32.969  26.713  31.325 -0.2666  0.2593  0.3189
43447W        W86541  30.636  29.357  27.223 -0.0846 -0.0155  0.1299
43448W        W86542  32.200  26.378  29.587  0.0445 -0.0715 -0.0402
43449W        W86543  31.924  30.703  29.515  0.1160 -0.1159 -0.0120
43450W        W86544  29.088  25.785  30.265 -0.0144 -0.1359 -0.4874
43451W        W86545  32.797  29.342  30.718  0.0716 -0.0987 -0.3436
43452W        W86546  33.126  29.184  30.324 -0.1856 -0.0081  0.1098
43453W        W86547  30.837  24.894  29.641 -0.0361 -0.1697 -0.2679
43454W        W86548  30.047  26.704  29.869 -0.2681  0.0333  0.0145
43455W        W86549  28.748  27.077  28.608 -0.0354 -0.2991 -0.0744
43456W        W86550  32.221  26.807  31.731 -0.1513  0.2569 -0.0370
43457W        W86551  33.014  26.856  29.961 -0.1349  0.1762 -0.1665
43458W        W86552  30.549  28.441  27.379 -0.1595  0.0275 -0.1664
43459W        W86553  33.548  25.205  31.341  0.2087  0.1613 -0.1988
43460W        W86554  30.385  29.027  30.013  0.1227  0.0420 -0.0017
43461W        W86555  31.945  29.207  31.107  0.2884  0.1742  0.0672
43462W        W86556  30.409  26.722  28.626  0.1999  0.2092  0.0950
43463W        W86557  30.700  28.737  30.989 -0.2007 -0.3829 -0.4596
43464W        W86558  30.983  28.246  29.917  0.0803  0.1623 -0.0354
43465W        W86559  29.962  30.877  26.889  0.1216 -0.2220  0.5778
43466W        W86560  31.537  29.158  28.461 -0.0207 -0.1321 -0.0281
43467W        W86561  31.995  26.856  30.064 -0.3746 -0.2090 -0.1958
43468W        W86562  33.769  29.981  30.686  0.3363 -0.4923  0.3326
43469W        W86563  31.486  24.745  29.605 -0.0568  0.0943 -0.2019
43470W        W86564  32.237  25.329  30.220  0.0147  0.1641 -0.1313
43471W        W86565  32.374  26.122  29.036 -0.0329  0.0018  0.1568
43472W        W86566  29.815  28.389  30.568 -0.0457  0.2800 -0.1089
43473W        W86567  29.808  25.850  29.181  0.1179 -0.1440 -0.0045
43474W        W86568  29.053  28.319  29.391  0.1350  0.0914 -0.0678
43475W        W86569  28.131  27.281  30.952 -0.1395 -0.2012  0.3991
43476W        W86570  32.239  26.628   0.225  0.1793  0.1126 -0.1819
43477W        W86571  30.313  27.093  30.134 -0.1056 -0.0746  0.3123
43478W        W86572  28.378  27.618  30.369 -0.1082  0.0972  0.0565
43479W        W86573  30.036  25.835  28.157  0.1792 -0.0129  0.1536
43480W        W86574  32.304  28.444  29.299  0.0139 -0.6322  0.0476
43481W        W86575  29.548  25.562  29.966  0.2301 -0.0003 -0.1320
43482W        W86576  29.487  26.183  29.418  0.2460  0.1778  0.0208
43483W        W86577  32.205  28.647  28.163 -0.0171 -0.1316  0.0748
43484W        W86578  32.129  29.466  27.418  0.0092 -0.4956 -0.2447
43485W        W86579  31.393  25.643  30.260  0.0584  0.1643 -0.0364
43486W        W86580  32.697  30.180   0.001  0.0529  0.1089  0.1129
43487W        W86581  29.349  26.976  27.803  0.0115  0.0512  0.0337
43488W        W86582  31.253  27.402  31.570 -0.1170  0.1402 -0.0423
43489W        W86583  30.783  27.408  31.802  0.0577  0.5646 -0.4874
43490W        W86584  29.903  26.556  28.546  0.3623 -0.1541 -0.0245
43491W        W86585  32.264  26.423  30.166 -0.0352  0.0543  0.1697
43492W        W86586  30.954  28.871  29.175  0.1159 -0.0367 -0.2937
43493W        W86587  33.037  28.850  26.452  0.0856  0.1972  0.1071
43494W        W86588  31.492  29.189  30.845  0.1068 -0.2749 -0.0486
43495W        W86589  29.923  30.238  31.547 -0.0110  0.4678 -0.2836
43496W        W86590  29.166  26.162   1.110  0.2691 -0.0574 -0.3631
43497W        W86591  31.245  27.488  27.855 -0.0410  0.0235 -0.2438
43498W        W86592  30.157  28.690  30.876 -0.0275 -0.2431 -0.0693
43499W        W86593  33.504  29.772  28.819 -0.2427 -0.2038  0.0970
43500W        W86594  34.518  24.248  30.730 -0.0503  0.0007  0.0028
43501W        W86595  30.887  27.081  29.189 -0.1397  0.0729  0.4807
43502W        W86596  29.531  26.073  31.606 -0.3539  0.3201 -0.0829
43503W        W86597  29.560  27.439  30.364 -0.2015 -0.3148  0.1418
43504W        W86598  32.246  27.850  31.138  0.3904  0.2093  0.1906
43505W        W86599  30.903  25.259  29.978  0.1699 -0.3234 -0.2018
43506W        W86600  32.856  26.960  28.740 -0.2829 -0.2927  0.0744
43507W        W86601  32.358  27.732  28.171  0.1023 -0.1001 -0.1876
43508W        W86602  29.044  28.934  30.216  0.1367  0.1927 -0.1696
43509W        W86603  31.867  26.987  29.172 -0.1452 -0.1345  0.0421
43510W        W86604  31.857  25.453  31.699  0.2422 -0.0203  0.2122
43511W        W86605  31.930  28.474  29.708 -0.1242 -0.5384  0.0374
43512W        W86606  31.616  27.365  31.000 -0.0823  0.1219 -0.1872
43513W        W86607  31.915  28.131  29.187  0.0671  0.0187 -0.2467
43514W        W86608  33.077  28.270  28.295 -0.2881 -0.2253  0.1032
43515W        W86609  31.389  29.958  30.646  0.2414  0.2355  0.1854
43516W        W86610  32.534  31.939  30.716 -0.0122 -0.1324  0.1077
43517W        W86611  30.358  29.319  29.464 -0.4445 -0.1298  0.0621
43518W        W86612  32.909  27.195  30.716  0.0747 -0.1862 -0.0079
43519W        W86613  29.428  26.175  30.281  0.4092  0.0830  0.1897
43520W        W86614  30.909  28.407  29.351  0.1676 -0.0290  0.0100
43521W        W86615  30.642  27.900  29.723  0.2008  0.1887 -0.0608
43522W        W86616  32.589  25.474  29.897 -0.3309  0.3417  0.0721
43523W        W86617  30.411  26.720  30.421  0.0570  0.3149 -0.1149
43524W        W86618  32.178  25.257  28.432  0.0072  0.0450  0.2932
43525W        W86619  29.943  30.018  28.019 -0.0820  0.0340 -0.1816
43526W        W86620  31.838  28.664  29.247  0.2672 -0.0212 -0.5529
43527W        W86621  30.889  26.266   0.421  0.2902  0.0810 -0.4861
43528W        W86622  32.318  28.430  31.311 -0.1413 -0.2999  0.1306
43529W        W86623  30.096  27.412   0.509 -0.0379 -0.1555 -0.0407
43530W        W86624  31.415  28.240  30.906  0.1149  0.1771 -0.1215
43531W        W86625  29.622  28.274  31.633  0.2419 -0.0503  0.2078
43532W        W86626  28.852  28.698   0.774 -0.1215 -0.2125  0.2221
43533W        W86627  32.274  26.327  31.741 -0.0538 -0.0334 -0.0047
43534W        W86628  30.800  27.115  31.218 -0.1801 -0.1174 -0.0001
43535W        W86629  32.499  27.894   0.086  0.1968  0.2520 -0.0577
43536W        W86630  33.677  30.924   0.017  0.0477 -0.0731  0.0102
43537W        W86631  31.504  28.498  31.549  0.1277  0.0214  0.3247
43538W        W86632  28.881  25.023  31.448 -0.0128  0.1213  0.3673
43539W        W86633  31.983  28.980  30.594  0.3802  0.0962 -0.0928
43540W        W86634  31.102  28.435  31.236  0.1818  0.0315  0.3423
43541W        W86635  32.879  27.633   0.460 -0.2737 -0.2139  0.0999
43542W        W86636  29.275  29.622  31.761 -0.0131 -0.2917  0.0138
43543W        W86637  28.549  28.091   1.725  0.0387  0.0841  0.2582
43544W        W86638  31.842  30.185  31.514 -0.0113  0.0340  0.3139
43545W        W86639  29.465  25.675   1.299 -0.1774 -0.1203 -0.4686
43546W        W86640  31.814  26.492  31.948 -0.0592  0.1162  0.1579
43547W        W86641  29.608  26.985   1.380  0.0878 -0.1730 -0.0199
43548W        W86642  29.262  29.376  31.334 -0.0988  0.1222  0.0230
43549W        W86643  31.759  25.447   0.187  0.1206 -0.0894 -0.0687
43550W        W86644  32.016  27.183  31.488 -0.0471  0.0875 -0.2778
43551W        W86645  31.385  26.565  31.676 -0.3780 -0.1357 -0.1407
43552W        W86646  30.628  26.749   0.254  0.3394  0.3059  0.0472
43553W        W86647  31.383  27.389  30.116  0.0261  0.0634  0.0317
43554W        W86648  29.373  29.172   0.056 -0.1717 -0.0714 -0.0047
43555W        W86649  30.530  27.935   0.793  0.0796 -0.0459 -0.0935
43556W        W86650  30.647  28.634   0.395 -0.0634 -0.3345  0.0084
43557W        W86651  32.057  30.172  30.642 -0.1238  0.0101  0.0530
43558W        W86652  29.583  27.155   0.003  0.2252 -0.0965 -0.0609
43559W        W86653  31.906  28.710  31.326 -0.0329  0.1208 -0.2751
43560W        W86654  33.465  24.509  31.959  0.0331 -0.0203 -0.0024
43561W        W86655  29.208  26.513  30.959  0.0643 -0.2219 -0.3299
43562W        W86656  30.095  27.909   0.473 -0.0732 -0.3074  0.1443
43563W        W86657  29.028  28.524  30.563  0.0180 -0.1822  0.1661
43564W        W86658  32.119  27.845  31.692  0.0655  0.0605  0.3541
43565W        W86659  31.678  28.305  30.494  0.1271  0.0534  0.0565
43566W        W86660  32.087  26.050   0.187  0.1679  0.0496 -0.0944
43567W        W86661  32.692  26.008  31.893 -0.3506 -0.0805 -0.2044
43568W        W86662  31.522  27.003  31.891 -0.1110  0.0961  0.1043
43569W        W86663  29.093  26.762  31.978 -0.4099  0.0446  0.2198
43570W        W86664  32.859  28.429  31.234 -0.0795 -0.0642  0.1634
43571W        W86665  30.143  25.878   0.572  0.0734 -0.1702 -0.0551
43572W        W86666  30.583  28.709  31.530 -0.2931 -0.1001 -0.1784
43573W        W86667  29.964  25.962  30.676 -0.3415  0.0679  0.1735
43574W        W86668  31.326  27.975  31.479  0.0672 -0.2333 -0.3645
43575W        W86669  30.843  27.115  30.343  0.0804 -0.1632 -0.0028
43576W        W86670  29.882  27.787  30.174  0.0460  0.1448 -0.1796
43577W        W86671  30.806  28.165   0.432 -0.1843  0.0371 -0.0092
43578W        W86672  31.348  26.227   0.076 -0.0131 -0.2888 -0.1799
43579W        W86673  29.052  26.682   1.228 -0.1000 -0.1293  0.1190
43580W        W86674  30.777  27.853  31.247  0.1440 -0.0141 -0.2997
43581W        W86675  31.494  27.016  31.370 -0.0148 -0.2894  0.1444
43582W        W86676  32.558  27.407  31.305  0.2202  0.0035  0.0335
43583W        W86677  32.754  28.527  30.707  0.1392 -0.2317  0.2385
43584W        W86678  30.467  28.326  31.052 -0.0584  0.3705  0.0163
43585W        W86679  31.554  29.516  31.234 -0.0065 -0.1229 -0.2310
43586W        W86680  29.870  27.673  31.551 -0.0425  0.0583  0.2344
43587W        W86681  29.143  27.123  30.411  0.1010 -0.0325  0.0566
43588W        W86682  30.380  27.374   0.907 -0.0125  0.3298 -0.4335
43589W        W86683  31.028  28.139   0.922 -0.1369 -0.0591 -0.1411
43590W        W86684  27.256  26.330  31.742  0.2943 -0.2027 -0.2213
43591W        W86685  32.008  28.482   0.731 -0.1524  0.0135 -0.0575
43592W        W86686  32.564  29.551  31.212 -0.1147  0.1457 -0.0573
43593W        W86687  33.589  27.839  31.096  0.0208  0.0064 -0.1535
43594W        W86688  31.980  31.091  18.710 -0.1564  0.1455  0.0930
43595W        W86689  30.707  28.473  17.819 -0.1269  0.1238 -0.0273
43596W        W86690  30.934  30.806  16.950 -0.2666  0.0402  0.2919
43597W        W86691  31.382  30.648  17.167  0.0371  0.0307 -0.1516
43598W        W86692  28.725  29.571  17.238  0.1188  0.0413  0.0107
43599W        W86693  31.693  33.690  16.322  0.1064 -0.0136 -0.1975
43600W        W86694  29.304  29.497  19.041 -0.0173 -0.2036  0.1224
43601W        W86695  30.848  30.885  17.976 -0.2408 -0.4687  0.1848
43602W        W86696  32.628  33.930  18.444 -0.0065  0.0515  0.2102
43603W        W86697  30.991  31.625  16.973 -0.2068 -0.0907  0.2088
43604W        W86698  30.676  30.666  19.841  0.1052 -0.0539 -0.2005
43605W        W86699  31.864  31.265  17.966 -0.0444  0.3345  0.2135
43606W        W86700  30.654  30.481  17.663  0.0764  0.1933  0.2393
43607W        W86701  30.298  27.836  17.767 -0.0990  0.0143 -0.0963
43608W        W86702  31.287  31.327  20.060 -0.2849 -0.0348 -0.1581
43609W        W86703  28.311  31.019  16.146  0.1809  0.0017  0.1451
43610W        W86704  29.231  31.199  18.937 -0.4938  0.3037  0.1589
43611W        W86705  29.862  30.459  16.331 -0.1981  0.0343  0.1187
43612W        W86706  31.478  33.230  16.430 -0.2691 -0.0010 -0.2508
43613W        W86707  30.879  29.909  20.806 -0.0624  0.0280  0.3790
43614W        W86708  30.761  30.178  20.107  0.0343  0.1896  0.1748
43615W        W86709  32.275  32.918  16.612 -0.0905  0.2655  0.0222
43616W        W86710  28.551  30.578  16.217  0.0059  0.3111 -0.1481
43617W        W86711  28.378  30.718  18.158 -0.0374  0.1690  0.1908
43618W        W86712  29.883  32.457  19.451 -0.0602 -0.2817 -0.0500
43619W        W86713  32.395  29.404  18.013  0.0297 -0.1668 -0.1749
43620W        W86714  32.196  30.650  18.944  0.2452  0.0459 -0.0182
43621W        W86715  31.032  31.368  18.407 -0.4033 -0.3317  0.0280
43622W        W86716  31.696  32.411  17.787  0.4054  0.1788 -0.1796
43623W        W86717  32.180  31.253  20.185 -0.0252 -0.2361 -0.3917
43624W        W86718  29.631  31.858  18.696  0.2630  0.1047 -0.0497
43625W        W86719  29.334  31.539  19.360  0.0121  0.0318 -0.0220
43626W        W86720  29.999  32.724  16.461 -0.0077 -0.1048  0.2765
43627W        W86721  32.226  32.017  16.648 -0.1829 -0.0373 -0.0285
43628W        W86722  32.401  31.820  19.757  0.2926  0.0192 -0.1854
43629W        W86723  30.623  33.841  19.749 -0.1173  0.2391 -0.0013
43630W        W86724  29.259  31.066  16.535 -0.3408  0.1141 -0.0248
43631W        W86725  31.800  33.618  19.098  0.3450 -0.1722  0.1537
43632W        W86726  30.118  31.737  20.714 -0.2640 -0.0748  0.0793
43633W        W86727  30.828  30.981  19.224 -0.2159 -0.1012 -0.1791
43634W        W86728  30.840  29.061  19.474 -0.1352  0.0843 -0.0260
43635W        W86729  30.202  32.213  16.956 -0.2120 -0.0013  0.1482
43636W        W86730  31.368  31.862  17.186 -0.3228  0.1542 -0.0620
43637W        W86731  29.555  32.437  20.395 -0.1414  0.0992 -0.0325
43638W        W86732  29.795  32.354  18.866  0.0664  0.0384 -0.1550
43639W        W86733  31.723  29.530  19.756  0.1354 -0.2960 -0.3205
43640W        W86734  28.961  32.638  16.628  0.0703  0.1391  0.2264
43641W        W86735  32.240  30.406  16.110  0.1405  0.3095  0.0501
43642W        W86736  30.456  30.864  16.877  0.5152  0.0988 -0.0419
43643W        W86737  31.773  31.125  16.551  0.0653 -0.0509 -0.1658
43644W        W86738  29.321  29.484  17.370 -0.1708 -0.1298  0.0278
43645W        W86739  30.245  32.910  19.384 -0.0697  0.2271 -0.0068
43646W        W86740  31.184  31.248  18.910  0.1897  0.0082 -0.2267
43647W        W86741  32.729  33.241  18.369  0.2876  0.1276  0.0775
43648W        W86742  30.665  30.410  16.728  0.2237 -0.0914 -0.1788
43649W        W86743  31.068  30.024  19.153 -0.0799  0.2814 -0.4030
43650W        W86744  32.286  31.683  18.118 -0.0452 -0.1563  0.0328
43651W        W86745  29.867  30.696  17.178 -0.0480  0.0480  0.2849
43652W        W86746  30.788  32.779  16.023  0.0408 -0.1828 -0.0599
43653W        W86747  33.019  32.012  17.715  0.2093 -0.0289  0.2298
43654W        W86748  31.023  32.830  18.495  0.0912 -0.2235  0.0962
43655W        W86749  28.727  31.126  16.401  0.1132 -0.0604  0.0613
43656W        W86750  29.117  32.960  19.766 -0.0413  0.0581 -0.0375
43657W        W86751  29.507  29.890  18.791  0.0045  0.2454  0.2563
43658W        W86752  31.384  29.885  15.928  0.1960  0.1716  0.3518
43659W        W86753  32.747  31.384  18.892 -0.0426  0.0405 -0.2133
43660W        W86754  28.803  31.321  19.621  0.1415  0.1181  0.3074
43661W        W86755  32.959  31.170  17.101 -0.0283  0.2559 -0.0252
43662W        W86756  29.922  32.568  20.017 -0.3170  0.1579  0.2099
43663W        W86757  31.821  31.772  17.824 -0.1003 -0.0910  0.0003
43664W        W86758  31.051  30.796  15.821 -0.0396 -0.1856  0.0735
43665W        W86759  31.274  30.196  20.187 -0.3280 -0.1974  0.0536
43666W        W86760  31.987  28.704  19.515  0.2671  0.0022 -0.0832
43667W        W86761  29.060  31.245  16.973  0.1025 -0.1883  0.1259
43668W        W86762  30.255  30.983  17.312  0.1145  0.0270 -0.0126
43669W        W86763  31.690  31.857  19.344  0.3751  0.2223  0.0207
43670W        W86764  31.424  31.003  16.265 -0.0922 -0.1811  0.1328
43671W        W86765  28.643  32.390  18.135 -0.0941 -0.5294 -0.0039
43672W        W86766  32.558  30.999  19.882  0.0782 -0.0493  0.2779
43673W        W86767  32.219  32.796  19.473 -0.3342 -0.1323 -0.2748
43674W        W86768  28.788  32.045  17.254  0.0897 -0.0831  0.2538
43675W        W86769  29.563  33.303  18.839  0.1681  0.3776  0.1081
43676W        W86770  28.243  31.475  16.634  0.0842  0.0910  0.3093
43677W        W86771  29.459  30.096  19.266 -0.1258 -0.1451  0.1036
43678W        W86772  29.867  31.911  19.166 -0.0814 -0.0436 -0.1755
43679W        W86773  30.414  30.366  17.241  0.0060 -0.5130 -0.4087
43680W        W86774  30.547  29.554  20.668 -0.1028 -0.0151  0.0308
43681W        W86775  31.929  29.737  18.080 -0.1114  0.1009 -0.1187
43682W        W86776  30.004  32.137  16.522  0.0209 -0.1888  0.0570
43683W        W86777  32.822  32.449  16.260  0.1306 -0.0235  0.0091
43684W        W86778  31.774  29.738  16.837 -0.1148 -0.0776 -0.1624
43685W        W86779  30.959  32.609  17.260  0.0101 -0.3514 -0.2257
43686W        W86780  28.865  30.574  19.080  0.1586 -0.2339 -0.1006
43687W        W86781  29.726  31.339  18.789 -0.2024 -0.0093  0.2187
43688W        W86782  29.742  30.570  19.563  0.0629 -0.1534  0.0043
43689W        W86783  28.112  29.582  17.092 -0.3040  0.0976  0.1356
43690W        W86784  31.735  31.513  20.129 -0.1696 -0.1160  0.0244
43691W        W86785  29.815  29.851  16.684 -0.1366 -0.0942 -0.0403
43692W        W86786  31.997  30.011  19.002  0.0988 -0.1805  0.1576
43693W        W86787  29.842  30.872  17.815 -0.2122  0.2880 -0.3002
43694W        W86788  29.329  31.259  18.443  0.3709  0.0815 -0.1657
43695W        W86789  30.964  29.334  20.914  0.0319 -0.3602  0.1940
43696W        W86790  31.955  33.252  16.472  0.0587  0.2940  0.1063
43697W        W86791  31.624  31.242  19.693  0.1461  0.0398  0.2083
43698W        W86792  32.864  33.506  17.477  0.1456 -0.3861 -0.2848
43699W        W86793  29.034  29.911  19.173 -0.0288  0.0438  0.0643
43700W        W86794  30.143  30.481  17.646 -0.1229 -0.2232 -0.3546
43701W        W86795  32.159  33.619  19.892  0.1427 -0.0177  0.2652
43702W        W86796  31.090  32.354  18.458 -0.1522 -0.1770 -0.1542
43703W        W86797  30.955  29.343  18.549 -0.2095  0.0109  0.3603
43704W        W86798  32.623  34.389  18.309 -0.0211 -0.1166  0.0033
43705W        W86799  29.577  30.253  16.930 -0.2046  0.1107 -0.2347
43706W        W86800  30.166  32.995  19.961 -0.0038 -0.2561 -0.5776
43707W        W86801  32.525  30.061  19.506 -0.0367 -0.0776 -0.1745
43708W        W86802  32.802  30.239  18.620 -0.1985  0.0094 -0.0196
43709W        W86803  30.672  30.634  18.938 -0.3314 -0.0159 -0.0581
43710W        W86804  29.255  29.417  16.815 -0.0560 -0.0535 -0.0795
43711W        W86805  32.550  32.445  17.626  0.2307 -0.1084 -0.2392
43712W        W86806  29.110  33.614  17.019  0.0971 -0.0733  0.0260
43713W        W86807  29.122  30.375  17.005  0.1176  0.0024  0.0481
43714W        W86808  29.884  31.549  16.433 -0.0468 -0.1852  0.0336
43715W        W86809  31.755  30.354  18.794 -0.1496  0.0135  0.1928
43716W        W86810  29.083  33.337  20.089  0.0095 -0.0747  0.2188
43717W        W86811  30.938  29.575  19.328  0.2139 -0.0912 -0.2896
43718W        W86812  28.747  29.663  16.219 -0.2230  0.0373  0.0553
43719W        W86813  29.172  32.441  19.515  0.0012  0.0476  0.0674
43720W        W86814  31.284  29.282  19.465 -0.0482  0.1025 -0.0535
43721W        W86815  32.388  31.016  16.963  0.2526 -0.1273  0.0440
43722W        W86816  32.839  30.740  18.296 -0.0956 -0.0661 -0.2361
43723W        W86817  32.757  32.052  16.571 -0.4837  0.1591 -0.0082
43724W        W86818  31.520  30.443  17.947 -0.1783  0.1425  0.3338
43725W        W86819  31.075  29.556  18.080 -0.0378 -0.0737  0.2194
43726W        W86820  30.280  32.581  18.981  0.1749  0.1118  0.2487
43727W        W86821  31.348  30.964  16.750  0.0284 -0.2177 -0.0676
43728W        W86822  31.082  31.259  17.735 -0.1839 -0.1988 -0.2309
43729W        W86823  30.600  31.299  17.091 -0.1341 -0.0516 -0.2178
43730W        W86824  33.926  32.120  17.021  0.1527 -0.0715  0.2475
43731W        W86825  29.888  31.780  17.916  0.0262  0.0502 -0.1673
43732W        W86826  30.477  31.750  19.513 -0.1430 -0.1426  0.0673
43733W        W86827  30.988  31.942  19.034 -0.4901 -0.1681  0.2290
43734W        W86828  30.230  29.385  20.343  0.1571 -0.0822 -0.0982
43735W        W86829  30.117  31.365  17.859  0.0219 -0.0110  0.0422
43736W        W86830  29.772  29.589  16.233  0.0539  0.2620  0.2212
43737W        W86831  29.454  32.943  17.606  0.1907 -0.0445 -0.0156
43738W        W86832  32.481  29.076  19.418  0.1607 -0.2651  0.2646
43739W        W86833  31.062  30.824  18.540  0.1632 -0.1170 -0.0278
43740W        W86834  31.515  28.233  19.611  0.0905  0.0430 -0.0566
43741W        W86835  32.258  31.272  21.127 -0.1872 -0.1573 -0.1281
43742W        W86836  31.423  30.087  17.301 -0.0769 -0.0259  0.0262
43743W        W86837  31.549  31.486  16.955  0.0669  0.2458 -0.1472
43744W        W86838  30.104  30.036  16.216 -0.1643 -0.1545  0.1345
43745W        W86839  30.231  31.018  19.944 -0.0699  0.1959  0.1993
43746W        W86840  31.026  33.146  20.353  0.3240  0.0935  0.0147
43747W        W86841  28.541  31.917  18.721 -0.1803  0.1778  0.1022
43748W        W86842  31.950  33.339  18.055 -0.1222  0.0235  0.2022
43749W        W86843  30.620  31.618  18.704 -0.2195  0.2467 -0.2573
43750W        W86844  31.224  28.320  21.545  0.1622 -0.0334 -0.0244
43751W        W86845  31.441  30.072  16.507 -0.3039  0.2621 -0.1466
43752W        W86846  30.116  32.683  16.932 -0.1708  0.0907  0.1145
43753W        W86847  31.714  32.760  16.756 -0.1438  0.2325 -0.1727
43754W        W86848  30.907  29.557  19.887 -0.1450  0.0156 -0.0595
43755W        W86849  31.579  31.184  18.419 -0.2039 -0.3378  0.2523
43756W        W86850  29.509  32.616  16.664 -0.0511 -0.3260 -0.2013
43757W        W86851  30.763  31.149  18.759 -0.0213  0.1125 -0.2742
43758W        W86852  30.004  32.007  17.527  0.0949 -0.3671  0.2252
43759W        W86853  32.270  29.703  17.639  0.1969 -0.1513 -0.3399
43760W        W86854  29.447  33.170  19.338  0.1309 -0.2722 -0.0079
43761W        W86855  32.007  29.547  17.254 -0.0450 -0.0962 -0.2244
43762W        W86856  28.996  31.055  18.135 -0.0956  0.0533  0.0003
43763W        W86857  31.024  29.746  17.625  0.0343  0.1232  0.0061
43764W        W86858  33.430  32.242  16.236 -0.1991  0.1557 -0.0084
43765W        W86859  29.237  29.229  17.857  0.0957 -0.0278  0.1170
43766W        W86860  29.727  29.294  19.059 -0.3184 -0.0881 -0.4059
43767W        W86861  29.740  32.852  19.136 -0.0492  0.1765  0.2477
43768W        W86862  30.175  30.544  19.799 -0.2113  0.2143 -0.2517
43769W        W86863  32.158  29.999  16.784  0.0080  0.0176  0.1101
43770W        W86864  33.207  33.514  17.857 -0.1694 -0.2441 -0.0194
43771W        W86865  30.231  30.861  20.815  0.2047 -0.0151 -0.2432
43772W        W86866  28.968  29.265  16.384 -0.2580 -0.0889  0.1584
43773W        W86867  32.082  32.115  17.608 -0.1501  0.0200  0.2780
43774W        W86868  30.588  31.315  18.103 -0.0716 -0.1808 -0.1356
43775W        W86869  29.116  32.160  18.036 -0.1932  0.0353  0.1466
43776W        W86870  32.055  34.110  18.399 -0.0067 -0.1019 -0.1336
43777W        W86871  29.553  30.686  16.740 -0.2611 -0.1472  0.1161
43778W        W86872  30.747  32.206  16.003  0.0203  0.1442 -0.0108
43779W        W86873  30.000  31.235  21.239 -0.2307 -0.2462  0.3791
43780W        W86874  33.759  33.035  19.285 -0.4667  0.1605  0.1329
43781W        W86875  28.728  29.349  17.721  0.0716 -0.1200  0.0847
43782W        W86876  31.426  29.164  16.841 -0.1497  0.0278  0.2216
43783W        W86877  29.582  31.395  16.820  0.2646  0.2829 -0.0929
43784W        W86878  30.740  32.314  18.813  0.2915  0.1857 -0.2722
43785W        W86879  30.234  31.225  18.478  0.0765  0.0210 -0.3776
43786W        W86880  29.596  31.893  20.563  0.1492 -0.0967 -0.0092
43787W        W86881  30.190  29.390  18.893 -0.0247 -0.1939 -0.2409
43788W        W86882  33.794  34.130  17.608  0.1222  0.2226  0.1818
43789W        W86883  31.892  30.848  19.250  0.0548 -0.0286 -0.0810
43790W        W86884  29.833  29.687  17.487  0.2159  0.2258  0.1531
43791W        W86885  30.128  33.203  17.661  0.0220 -0.1651  0.2831
43792W        W86886  30.831  32.014  16.650 -0.1641 -0.1186  0.0946
43793W        W86887  30.905  31.684  20.094 -0.1364 -0.2380 -0.3286
43794W        W86888  30.818  31.489  19.171 -0.1574 -0.0048  0.0397
43795W        W86889  30.369  31.194  16.409  0.1059 -0.1688  0.3072
43796W        W86890  29.182  31.058  19.430  0.1172 -0.1487  0.0674
43797W        W86891  31.741  29.864  17.572 -0.2422  0.1562  0.2266
43798W        W86892  32.413  32.131  16.160 -0.1681  0.2105 -0.1827
43799W        W86893  31.902  30.786  18.345  0.2045  0.0591  0.0675
43800W        W86894  33.299  30.273  19.821 -0.0208  0.0720  0.0857
43801W        W86895  31.728  31.031  17.105  0.1302  0.1507  0.0667
43802W        W86896  31.621  29.634  19.213 -0.4643  0.0949 -0.0398
43803W        W86897  29.111  29.243  18.570 -0.2756  0.0907 -0.4884
43804W        W86898  32.247  33.003  17.089 -0.1110  0.2972 -0.2266
43805W        W86899  28.917  28.910  20.268  0.1260 -0.0237 -0.1307
43806W        W86900  33.117  32.712  19.021  0.0289  0.2183  0.2403
43807W        W86901  30.495  32.336  20.689 -0.1532  0.1076 -0.0188
43808W        W86902  30.551  30.795  18.420 -0.0939  0.1409  0.0805
43809W        W86903  28.410  29.425  16.730  0.1753 -0.1845  0.0113
43810W        W86904  29.997  31.483  19.627 -0.0794  0.0011  0.0918
43811W        W86905  32.925  32.485  17.963  0.0606  0.0959  0.0542
43812W        W86906  31.754  32.034  16.691 -0.1937 -0.0013 -0.1831
43813W        W86907  31.538  30.849  17.619  0.2206 -0.1587  0.0117
43814W        W86908  28.813  30.779  19.554  0.1804  0.0087  0.3362
43815W        W86909  30.578  31.383  17.628  0.0320 -0.3009  0.0836
43816W        W86910  31.004  30.410  18.160 -0.4710  0.2875  0.2792
43817W        W86911  30.202  31.529  17.351  0.2357  0.1022  0.0873
43818W        W86912  29.803  30.064  19.822 -0.3732  0.0938 -0.1793
43819W        W86913  31.110  30.712  17.613 -0.0216  0.0438  0.0818
43820W        W86914  31.191  30.540  19.144 -0.5269 -0.0895  0.1331
43821W        W86915  31.664  29.069  19.667 -0.1912 -0.0975  0.1779
43822W        W86916  30.742  29.954  19.660  0.2705  0.2440 -0.1044
43823W        W86917  30.562  31.902  20.360 -0.2182 -0.0531  0.1443
43824W        W86918  29.702  29.129  21.193 -0.0101 -0.1320 -0.2767
43825W        W86919  31.517  33.069  18.386  0.1693 -0.0982  0.1619
43826W        W86920  30.766  29.882  16.009  0.1511  0.1594 -0.2565
43827W        W86921  31.966  30.420  20.764 -0.0337 -0.0436 -0.0704
43828W        W86922  31.219  31.164  17.225 -0.0290 -0.1493  0.2107
43829W        W86923  31.833  30.202  18.273  0.0572  0.2599  0.2193
43830W        W86924  29.428  30.836  18.151 -0.2521  0.0621  0.1674
43831W        W86925  32.039  30.818  19.755  0.1757 -0.2256  0.0462
43832W        W86926  30.582  29.847  17.436  0.1267 -0.2208  0.1622
43833W        W86927  31.500  29.563  20.183 -0.1162 -0.0247  0.0571
43834W        W86928  32.443  32.755  16.124  0.1526  0.3788  0.2698
43835W        W86929  30.269  31.412  19.135  0.1921  0.0330 -0.1398
43836W        W86930  30.035  30.806  18.263 -0.1184  0.2075 -0.1988
43837W        W86931  29.535  29.914  18.176  0.0357 -0.0239  0.1959
43838W        W86932  30.301  32.166  18.566 -0.2927 -0.0755 -0.0784
43839W        W86933  29.380  29.637  15.847 -0.1121  0.1957 -0.1152
43840W        W86934  29.584  31.924  16.663 -0.0673 -0.2898  0.2173
43841W        W86935  31.286  31.607  19.230 -0.1763 -0.2023  0.1203
43842W        W86936  32.971  32.070  20.829  0.1325  0.0773 -0.2563
43843W        W86937  30.393  29.044  16.853 -0.0272  0.2045 -0.0324
43844W        W86938  34.084  30.404  19.370 -0.0254  0.1692 -0.0306
43845W        W86939  29.210  31.689  16.503 -0.1849  0.0110 -0.2154
43846W        W86940  30.263  30.095  20.005 -0.1811  0.1586  0.2188
43847W        W86941  30.031  33.281  18.353  0.1092  0.2770  0.1357
43848W        W86942  29.540  32.062  19.513  0.0229 -0.2084 -0.0716
43849W        W86943  30.594  32.051  19.871  0.2158  0.1777 -0.0048
43850W        W86944  31.625  27.938  18.636  0.0309 -0.0598  0.3814
43851W        W86945  31.641  31.370  17.568 -0.1411 -0.0170  0.0523
43852W        W86946  30.130  31.664  18.715 -0.2032  0.1442  0.1200
43853W        W86947  33.178  30.557  18.833  0.0663 -0.0237  0.1726
43854W        W86948  31.110  33.015  20.850 -0.1657  0.0996  0.0375
43855W        W86949  29.635  31.327  17.907 -0.2341 -0.0363  0.0352
43856W        W86950  32.752  31.531  18.403  0.1011 -0.0638  0.0199
43857W        W86951  31.704  30.273  16.933  0.3367  0.1603  0.1842
43858W        W86952  29.902  31.747  17.002  0.3717  0.0914 -0.0656
43859W        W86953  29.173  31.014  19.976  0.1194 -0.0679  0.2009
43860W        W86954  31.139  30.348  19.662 -0.0568 -0.1876  0.1378
43861W        W86955  28.899  30.527  18.372  0.0063  0.0280 -0.1797
43862W        W86956  30.563  28.154  16.877  0.0755  0.1662 -0.1661
43863W        W86957  29.717  33.121  16.650 -0.0921  0.0062 -0.0338
43864W        W86958  29.026  33.431  19.553  0.1152 -0.0369  0.0080
43865W        W86959  27.652  30.440  20.062  0.0339 -0.0361 -0.2928
43866W        W86960  30.378  32.885  17.350  0.0301  0.0100  0.1656
43867W        W86961  31.628  31.039  15.754 -0.2038  0.0645 -0.2189
43868W        W86962  31.437  30.460  18.438 -0.0630 -0.1262 -0.2124
43869W        W86963  31.346  31.789  17.662 -0.0572 -0.0095  0.1543
43870W        W86964  30.266  29.221  17.498 -0.1630  0.2517 -0.1968
43871W        W86965  30.755  30.972  17.377  0.1034  0.2443  0.0854
43872W        W86966  28.733  31.656  16.747  0.0115 -0.4127  0.0274
43873W        W86967  31.654  33.706  15.838 -0.1064 -0.1613 -0.0853
43874W        W86968  31.393  31.588  18.128  0.2303  0.2418  0.1787
43875W        W86969  31.507  30.839  18.849  0.0325 -0.0650 -0.0053
43876W        W86970  32.685  30.347  16.352  0.2549  0.0501  0.3969
43877W        W86971  33.266  30.770  17.954 -0.1779 -0.0102  0.2697
43878W        W86972  32.061  30.870  16.290 -0.2132 -0.1548 -0.0630
43879W        W86973  31.298  32.117  20.028 -0.1610 -0.1425  0.2521
43880W        W86974  29.665  31.616  17.504  0.2348  0.1634 -0.1085
43881W        W86975  30.201  30.249  16.786 -0.1701  0.0506 -0.2661
43882W        W86976  30.035  32.060  19.739  0.4387  0.1260  0.1407
43883W        W86977  33.047  28.831  21.345  0.1014  0.1449  0.2658
43884W        W86978  30.927  32.392  19.728 -0.2173  0.1659  0.1554
43885W        W86979  32.777  32.844  16.647 -0.0465 -0.4327  0.1842
43886W        W86980  29.771  30.107  17.780  0.1637 -0.2167 -0.0987
43887W        W86981  30.189  31.333  16.897 -0.1075 -0.1447  0.2935
43888W        W86982  31.800  29.149  19.141  0.1913 -0.1064  0.2233
43889W        W86983  31.304  31.906  16.707  0.0153  0.0261  0.1236
43890W        W86984  29.395  30.399  18.452  0.1059 -0.0447  0.0048
43891W        W86985  30.472  32.304  16.461 -0.3360 -0.2420  0.0646
43892W        W86986  30.872  31.711  17.994 -0.1771 -0.2252  0.1504
43893W        W86987  31.451  32.133  18.857 -0.4544  0.1454  0.1046
43894W        W86988  29.567  30.582  17.514 -0.1434 -0.1728 -0.2234
43895W        W86989  31.336  30.903  18.079 -0.3725  0.1866 -0.1839
43896W        W86990  31.103  30.855  19.663  0.1102  0.0798  0.1175
43897W        W86991  31.571  30.603  19.539 -0.1525 -0.2366 -0.1167
43898W        W86992  30.420  31.955  19.026  0.1595  0.1670 -0.4160
43899W        W86993  31.045  30.700  16.406 -0.2643 -0.0460 -0.2712
43900W        W86994  31.119  32.412  19.163  0.1268  0.1645  0.1311
43901W        W86995  30.220  29.979  19.551  0.0537 -0.2663  0.0200
43902W        W86996  30.898  32.137  17.136  0.2009  0.3663  0.2027
43903W        W86997  32.303  31.452  18.690 -0.1143 -0.0551 -0.0920
43904W        W86998  31.768  30.396  17.459  0.0544  0.0061 -0.0751
43905W        W86999  31.637  32.625  19.191 -0.0129 -0.1217  0.0120
43906W        W87000  30.383  29.519  17.871 -0.1445  0.0439  0.1290
43907W        W87001  31.115  30.235  17.686 -0.0359 -0.1387 -0.0278
43908W        W87002  29.392  30.897  17.157 -0.1235 -0.4062  0.2249
43909W        W87003  31.063  30.957  21.122 -0.1175 -0.0595  0.1615
43910W        W87004  32.164  31.832  20.216 -0.3509  0.1993  0.1155
43911W        W87005  30.681  29.934  16.929  0.0100  0.2180  0.2069
43912W        W87006  31.531  31.927  16.206  0.1248 -0.0046  0.1340
43913W        W87007  32.300  30.515  17.445  0.4069 -0.0720  0.1295
43914W        W87008  32.152  33.932  16.991 -0.1989 -0.0826 -0.1876
43915W        W87009  31.001  31.380  19.634  0.1998  0.0571 -0.0141
43916W        W87010  31.291  32.777  17.698 -0.1057  0.4775  0.0117
43917W        W87011  29.056  30.234  18.768  0.0930  0.1644  0.0579
43918W        W87012  32.966  31.941  18.901 -0.3161  0.0734 -0.0790
43919W        W87013  33.140  31.813  18.159 -0.0513 -0.0351 -0.1832
43920W        W87014  30.717  27.433  18.330  0.2152 -0.1885 -0.1279
43921W        W87015  30.067  30.530  19.125  0.2014 -0.1676 -0.0697
43922W        W87016  30.450  32.690  17.877  0.1916  0.1398 -0.1514
43923W        W87017  30.501  31.274  19.558  0.0911 -0.3574 -0.1173
43924W        W87018  31.825  29.418  18.742 -0.3133  0.0564 -0.3128
43925W        W87019  32.499  33.229  16.179 -0.1671  0.0900  0.1949
43926W        W87020  33.477  29.792  19.086  0.0274  0.1151 -0.0200
43927W        W87021  32.958  34.340  17.848 -0.1262 -0.0088 -0.1597
43928W        W87022  31.358  33.467  20.624 -0.1022  0.2732  0.0135
43929W        W87023  29.203  30.009  16.700 -0.1856  0.0870 -0.0524
43930W        W87024  30.999  29.469  20.434  0.0512  0.1814  0.4056
43931W        W87025  30.468  32.230  17.379 -0.0544  0.1230  0.1411
43932W        W87026  31.116  31.899  18.447 -0.1285 -0.0921 -0.0388
43933W        W87027  32.136  32.386  17.011 -0.1222 -0.1622  0.0851
43934W        W87028  30.299  29.858  18.728  0.1440  0.1654 -0.1345
43935W        W87029  32.492  32.461  16.707 -0.0298  0.2762  0.3918
43936W        W87030  29.795  29.113  17.600 -0.1421  0.0846  0.2363
43937W        W87031  33.180  29.403  17.306  0.1568 -0.0207 -0.1349
43938W        W87032  30.098  30.944  19.432  0.5704  0.1237 -0.2564
43939W        W87033  31.235  32.865  19.510  0.0152  0.0156 -0.2060
43940W        W87034  28.335  30.827  17.648  0.0758  0.4445  0.0222
43941W        W87035  29.700  31.093  16.302  0.0658  0.1830 -0.1004
43942W        W87036  28.821  31.118  17.628  0.2429  0.0123 -0.0082
43943W        W87037  30.834  28.345  20.214 -0.0308  0.0364  0.0040
43944W        W87038  29.779  29.621  19.440 -0.2649  0.0108  0.1110
43945W        W87039  29.232  31.369  17.452  0.0017  0.2366  0.0801
43946W        W87040  29.904  29.521  18.516 -0.0612 -0.1311 -0.2914
43947W        W87041  31.398  32.754  17.190  0.0791 -0.3190  0.2530
43948W        W87042  29.085  27.681  17.228 -0.0374 -0.0245 -0.1915
43949W        W87043  30.388  30.483  18.108 -0.0165  0.0814  0.1716
43950W        W87044  30.292  31.707  18.263  0.3777 -0.2079 -0.2064
43951W        W87045  32.580  32.946  17.579  0.2515 -0.4044 -0.1025
43952W        W87046  30.599  30.165  18.463 -0.3679 -0.3486  0.0285
43953W        W87047  33.037  33.306  18.814  0.0289  0.1084  0.1193
43954W        W87048  28.935  30.117  16.294  0.1000  0.1178  0.3351
43955W        W87049  31.811  31.968  19.853 -0.0572 -0.1756  0.1192
43956W        W87050  30.627  30.217  21.721 -0.2913  0.2228 -0.0635
43957W        W87051  30.149  29.804  17.106 -0.2670 -0.0071 -0.2602
43958W        W87052  30.384  30.924  17.750  0.1393 -0.0508  0.1484
43959W        W87053  31.273  32.320  17.478  0.0629 -0.0311  0.4610
43960W        W87054  32.049  32.453  16.491 -0.3782  0.2166 -0.0192
43961W        W87055  30.969  31.890  19.572 -0.0824 -0.0568  0.0954
43962W        W87056  30.362  32.540  19.781 -0.1179 -0.1373 -0.0934
43963W        W87057  28.112  30.176  18.256 -0.3641 -0.2027  0.1180
43964W        W87058  31.098  33.064  18.065 -0.0157  0.0858  0.1285
43965W        W87059  30.213  30.993  18.884 -0.0579 -0.0115  0.0712
43966W        W87060  33.094  30.353  16.128 -0.0779  0.2127 -0.0461
43967W        W87061  31.598  30.169  19.257 -0.1628 -0.2197 -0.1988
43968W        W87062  32.567  31.978  17.539  0.2331 -0.1027 -0.3013
43969W        W87063  29.970  29.499  20.848 -0.0614 -0.3728  0.1882
43970W        W87064  28.546  30.295  19.848  0.0147  0.2780 -0.2012
43971W        W87065  31.438  31.622  18.699 -0.0933 -0.0879 -0.1341
43972W        W87066  30.427  28.888  19.129 -0.2538  0.0195  0.0777
43973W        W87067  31.585  28.656  16.113 -0.0203 -0.1910 -0.1383
43974W        W87068  31.302  31.426  16.519  0.1046  0.0444 -0.0417
43975W        W87069  29.868  33.120  19.599  0.1428 -0.2264 -0.0122
43976W        W87070  30.641  29.671  18.294 -0.0915  0.3564  0.1126
43977W        W87071  29.934  30.041  19.147 -0.2458 -0.1512 -0.1631
43978W        W87072  29.916  32.050  18.312 -0.2850  0.2524 -0.0898
43979W        W87073  31.964  32.366  19.448 -0.1097  0.3487 -0.0366
43980W        W87074  29.973  30.960  16.650  0.1411  0.3641  0.0379
43981W        W87075  32.549  32.016  17.041 -0.0444 -0.0686 -0.0300
43982W        W87076  32.122  32.610  17.887 -0.0090 -0.0288  0.0777
43983W        W87077  31.885  32.290  22.095  0.0534 -0.0650  0.3349
43984W        W87078  30.689  32.185  18.136  0.0664 -0.0930  0.1373
43985W        W87079  31.849  31.431  19.101 -0.2029 -0.3773 -0.1245
43986W        W87080  30.293  28.830  17.762 -0.1390  0.0401 -0.1532
43987W        W87081  29.908  30.198  17.276  0.0844  0.2503  0.1544
43988W        W87082  30.891  30.303  17.193  0.0362  0.0340  0.0244
43989W        W87083  31.447  31.020  19.288 -0.1870 -0.0286  0.2379
43990W        W87084  29.786  28.398  18.650  0.1297  0.1012  0.0724
43991W        W87085  30.866  28.871  18.621  0.3102 -0.1264 -0.2387
43992W        W87086  31.251  32.630  20.033  0.1696 -0.1896  0.0597
43993W        W87087  30.474  29.622  19.267  0.2639  0.0331  0.2091
43994W        W87088  30.651  32.813  23.766  0.2208 -0.0353 -0.0139
43995W        W87089  29.232  30.553  20.419  0.0795  0.0362  0.0908
43996W        W87090  31.296  29.830  19.572  0.0108 -0.0644 -0.2638
43997W        W87091  32.228  30.308  20.332  0.1280 -0.2688  0.1789
43998W        W87092  30.103  28.922  21.948  0.2601  0.1978 -0.0423
43999W        W87093  31.160  32.695  21.751  0.0145 -0.0911 -0.2780
44000W        W87094  29.722  30.427  22.957  0.0105  0.1217 -0.0735
44001W        W87095  33.203  31.730  21.135 -0.2108 -0.2386 -0.0823
44002W        W87096  32.710  32.110  23.357  0.1827 -0.3378  0.0152
44003W        W87097  30.465  30.561  19.383 -0.0745 -0.0290  0.1703
44004W        W87098  31.007  31.293  22.410  0.1199  0.3386  0.3003
44005W        W87099  30.688  33.114  22.736 -0.0086 -0.0713  0.1174
44006W        W87100  30.716  29.015  21.232  0.2573 -0.0519  0.3569
44007W        W87101  28.793  30.401  21.575  0.1339  0.3240  0.0801
44008W        W87102  31.228  31.317  23.315 -0.4311 -0.1829  0.2558
44009W        W87103  30.655  31.567  22.490  0.0501  0.2066  0.1938
44010W        W87104  30.695  29.568  23.320  0.1407 -0.4204  0.1025
44011W        W87105  29.799  30.297  21.427 -0.2330  0.0269 -0.0821
44012W        W87106  31.003  34.007  20.661 -0.1896  0.2268 -0.4929
44013W        W87107  30.318  29.197  22.791  0.0343  0.1896  0.2079
44014W        W87108  30.957  29.119  23.113 -0.0322  0.0875 -0.0758
44015W        W87109  30.318  33.815  20.168 -0.0700 -0.1005  0.0378
44016W        W87110  29.277  31.549  20.270  0.0174  0.1531  0.2632
44017W        W87111  29.325  30.474  21.804  0.0560 -0.0521  0.0188
44018W        W87112  29.599  32.300  22.778  0.0219  0.0425 -0.1003
44019W        W87113  31.598  29.606  21.379 -0.1313  0.3692 -0.1214
44020W        W87114  31.670  32.490  21.630  0.1882  0.2451  0.2317
44021W        W87115  30.367  32.871  21.944 -0.1282  0.1249  0.0319
44022W        W87116  30.594  33.020  20.987  0.0778  0.1365 -0.2360
44023W        W87117  31.420  30.257  23.513 -0.0607 -0.1138  0.2435
44024W        W87118  29.396  32.889  21.646  0.0479 -0.0944 -0.0119
44025W        W87119  30.593  32.158  21.194 -0.3882 -0.0156 -0.0941
44026W        W87120  31.427  30.525  22.425 -0.5919  0.1833  0.0818
44027W        W87121  32.484  32.279  21.014 -0.4183 -0.1112  0.0332
44028W        W87122  31.550  31.563  22.864 -0.0871 -0.0851 -0.3493
44029W        W87123  31.360  33.582  22.400  0.0302  0.0146  0.1973
44030W        W87124  28.201  31.307  20.035  0.0316  0.0994  0.3612
44031W        W87125  30.443  33.150  24.117 -0.0308 -0.1028 -0.0552
44032W        W87126  30.362  33.761  22.183 -0.3166 -0.0800 -0.2305
44033W        W87127  31.823  31.517  21.334 -0.0043  0.1112 -0.3925
44034W        W87128  31.828  32.064  21.387  0.0375 -0.1570 -0.0312
44035W        W87129  30.376  31.982  21.656  0.0401 -0.3109  0.0032
44036W        W87130  32.123  31.719  21.670 -0.1667  0.3193 -0.2533
44037W        W87131  30.453  32.437  23.983 -0.1509  0.0372  0.1389
44038W        W87132  29.852  33.044  22.088 -0.2621 -0.1353  0.0122
44039W        W87133  31.132  30.662  24.220 -0.0316  0.2453 -0.0521
44040W        W87134  30.820  33.476  20.822  0.0778  0.1691  0.1571
44041W        W87135  31.424  31.667  19.698 -0.1362  0.1191 -0.1283
44042W        W87136  30.947  30.351  20.570  0.0292 -0.2269 -0.2638
44043W        W87137  31.386  31.032  20.565 -0.4140 -0.1456 -0.0078
44044W        W87138  30.780  29.861  22.375  0.0222 -0.3445  0.3018
44045W        W87139  31.270  34.135  21.966 -0.1047  0.2011 -0.2041
44046W        W87140  30.268  30.436  21.944 -0.2434  0.0967  0.0232
44047W        W87141  31.917  31.669  23.210 -0.1412 -0.2276  0.2381
44048W        W87142  30.841  32.307  20.267  0.1274 -0.0445  0.1620
44049W        W87143  31.645  30.723  21.852 -0.0318  0.0620 -0.2040
44050W        W87144  31.981  32.737  22.241  0.0673 -0.1121 -0.1919
44051W        W87145  30.196  32.073  22.194  0.0164 -0.3389  0.1991
44052W        W87146  31.129  31.524  21.057 -0.1155  0.0166  0.1019
44053W        W87147  34.138  32.465  21.815 -0.0198  0.0719 -0.0177
44054W        W87148  31.212  33.723  19.640  0.0429 -0.0868  0.4242
44055W        W87149  28.496  31.510  20.808  0.2568  0.0257 -0.0178
44056W        W87150  28.788  30.693  22.636 -0.0178 -0.2067  0.1912
44057W        W87151  29.257  30.529  23.115 -0.2455  0.0663  0.0796
44058W        W87152  30.463  28.803  20.276  0.0029  0.1126  0.0725
44059W        W87153  31.621  31.885  23.786  0.0025 -0.0924  0.1161
44060W        W87154  28.338  32.676  24.405 -0.0198  0.1736 -0.0154
44061W        W87155  32.739  30.173  20.482  0.1051  0.0612  0.0910
44062W        W87156  30.154  30.838  22.198  0.0442  0.0243 -0.1010
44063W        W87157  31.454  32.701  22.154  0.1302 -0.0430  0.1409
44064W        W87158  31.318  31.909  21.405 -0.0715 -0.1687  0.0735
44065W        W87159  31.327  29.505  23.171 -0.0158  0.3326  0.0029
44066W        W87160  32.344  29.202  24.530 -0.1652 -0.2590 -0.0073
44067W        W87161  29.800  31.530  18.370 -0.0026  0.3592  0.1715
44068W        W87162  31.027  30.698  20.246  0.0313  0.1718  0.0436
44069W        W87163  31.729  30.924  23.880  0.0908  0.0716  0.0512
44070W        W87164  31.817  30.854  20.447  0.2118 -0.0088  0.1918
44071W        W87165  31.398  33.355  21.427 -0.2427  0.1437 -0.2639
44072W        W87166  30.517  30.982  22.613 -0.0778  0.2019  0.0337
44073W        W87167  30.660  31.937  23.877 -0.0399  0.1209 -0.0279
44074W        W87168  28.913  33.163  18.685 -0.1891  0.0643  0.1821
44075W        W87169  30.009  33.900  22.526  0.0071 -0.0582 -0.0919
44076W        W87170  29.675  31.720  21.035  0.1251  0.0625  0.0340
44077W        W87171  28.931  29.360  22.945  0.2121  0.1182 -0.2770
44078W        W87172  30.732  31.603  21.928 -0.0767  0.3126 -0.3040
44079W        W87173  32.672  29.270  21.172 -0.0416  0.2635 -0.2223
44080W        W87174  29.798  30.934  22.541 -0.1569  0.2317 -0.0284
44081W        W87175  31.789  30.531  21.472 -0.1468  0.5923  0.1263
44082W        W87176  30.685  32.066  22.785 -0.1790  0.2000 -0.1153
44083W        W87177  31.606  33.628  21.064  0.3810 -0.1386  0.0300
44084W        W87178  32.577  31.045  20.770  0.4646  0.5714 -0.2048
44085W        W87179  33.003  31.442  19.872  0.3353 -0.0083 -0.0145
44086W        W87180  29.260  31.570  21.465 -0.2700 -0.0381  0.2255
44087W        W87181  30.675  28.683  21.993  0.1084  0.2618  0.0856
44088W        W87182  30.726  28.773  22.793  0.0855 -0.0099 -0.2046
44089W        W87183  28.019  30.588  22.076  0.1538 -0.1523 -0.3602
44090W        W87184  31.547  31.360  23.687  0.0328 -0.0238 -0.0716
44091W        W87185  29.181  30.093  20.677  0.0147 -0.1193  0.0698
44092W        W87186  32.940  30.730  22.007 -0.1148 -0.2284  0.2657
44093W        W87187  30.523  31.665  23.031 -0.2822 -0.2385  0.1671
44094W        W87188  28.061  32.487  21.993 -0.2002  0.1513 -0.0193
44095W        W87189  32.453  30.012  23.189  0.0369 -0.1131  0.2288
44096W        W87190  32.722  33.899  20.273  0.1277 -0.0967  0.2621
44097W        W87191  31.648  31.112  23.102  0.1304 -0.0714  0.4479
44098W        W87192  33.533  31.934  20.313  0.0880  0.0498  0.2726
44099W        W87193  29.544  30.300  23.861  0.0203  0.0832 -0.2120
44100W        W87194  29.784  29.177  20.448 -0.1519 -0.0796  0.2685
44101W        W87195  29.174  32.374  23.013  0.1181  0.1233 -0.4559
44102W        W87196  31.074  32.472  22.614  0.1050 -0.0495 -0.0395
44103W        W87197  30.361  30.885  21.358 -0.2309 -0.1127 -0.0159
44104W        W87198  34.505  34.136  23.157  0.1354  0.1425  0.0682
44105W        W87199  30.450  32.890  21.472  0.5919 -0.0734 -0.0948
44106W        W87200  29.797  32.480  21.896 -0.2416  0.1617  0.2318
44107W        W87201  32.168  28.080  22.836  0.1103  0.0413  0.0805
44108W        W87202  32.382  30.158  22.298  0.0177 -0.0011 -0.2672
44109W        W87203  30.984  32.221  20.902  0.0240 -0.0636  0.0721
44110W        W87204  30.026  29.462  21.379 -0.0850  0.5895 -0.2211
44111W        W87205  32.563  33.504  22.239  0.0210 -0.1435 -0.2712
44112W        W87206  30.382  33.424  19.890  0.0230  0.2242 -0.1301
44113W        W87207  27.958  31.546  21.356 -0.4190  0.1480 -0.1177
44114W        W87208  29.865  32.735  20.855  0.1175  0.0077 -0.2798
44115W        W87209  30.819  29.882  21.330 -0.3879  0.3136  0.5775
44116W        W87210  29.348  32.364  24.210  0.3050 -0.0202  0.3626
44117W        W87211  30.727  31.365  24.028  0.3929  0.1378  0.1950
44118W        W87212  31.248  32.228  21.858  0.0795  0.0691 -0.2356
44119W        W87213  29.887  32.421  24.214 -0.1898 -0.1893  0.1141
44120W        W87214  30.551  30.807  21.834  0.0900 -0.1647  0.2314
44121W        W87215  33.613  30.068  20.153 -0.0462  0.0042  0.2529
44122W        W87216  32.262  30.172  23.658 -0.1059 -0.2548  0.0350
44123W        W87217  31.524  32.329  20.953  0.3957 -0.6510  0.2255
44124W        W87218  30.737  30.842  20.699  0.2482 -0.2757  0.2230
44125W        W87219  30.329  27.624  19.070 -0.0584  0.0291  0.1126
44126W        W87220  28.943  32.742  23.322  0.0830  0.2060 -0.0861
44127W        W87221  31.760  33.008  21.700 -0.1860  0.1909 -0.0945
44128W        W87222  31.505  31.025  22.545 -0.1251 -0.0779  0.0210
44129W        W87223  30.460  30.716  20.306 -0.1136  0.1893  0.1744
44130W        W87224  32.536  32.804  19.983 -0.1848  0.0424  0.0328
44131W        W87225  29.611  33.530  23.248  0.0263  0.0595 -0.1438
44132W        W87226  30.047  30.745  24.384  0.2310 -0.3741 -0.2143
44133W        W87227  32.214  31.960  22.192 -0.1365 -0.1639 -0.0910
44134W        W87228  31.340  29.684  23.638  0.5437 -0.1095 -0.0937
44135W        W87229  29.128  31.684  18.632 -0.0423  0.2257 -0.0889
44136W        W87230  30.547  30.426  22.332  0.0421  0.2392  0.3510
44137W        W87231  31.852  33.150  19.890  0.3827 -0.0339 -0.0223
44138W        W87232  31.869  30.102  22.568  0.0557  0.0754 -0.2899
44139W        W87233  31.045  29.751  22.869  0.1993 -0.0779  0.0342
44140W        W87234  32.151  27.780  23.323 -0.2911  0.2954  0.2211
44141W        W87235  31.966  31.003  23.455  0.2306  0.2612  0.1431
44142W        W87236  31.830  31.349  20.562  0.0056 -0.1194  0.1665
44143W        W87237  31.894  30.974  22.182 -0.0700  0.0789 -0.0869
44144W        W87238  29.528  32.249  19.979  0.2686  0.1659  0.1545
44145W        W87239  31.392  29.844  24.150 -0.0039  0.1438 -0.0504
44146W        W87240  28.667  30.527  23.134 -0.1092 -0.0728 -0.0937
44147W        W87241  28.013  33.169  22.593  0.1441  0.2586  0.2309
44148W        W87242  32.311  32.829  24.593 -0.2058  0.2338 -0.2145
44149W        W87243  31.217  32.389  21.382  0.1239  0.3989 -0.0565
44150W        W87244  30.470  29.913  23.658  0.0409  0.1034  0.0200
44151W        W87245  29.745  29.832  21.124  0.1576 -0.0882  0.1628
44152W        W87246  30.710  33.946  21.072  0.1173  0.3583 -0.0518
44153W        W87247  30.721  32.228  22.144 -0.0183  0.0950 -0.0827
44154W        W87248  30.171  30.100  22.502 -0.0824  0.0822  0.2464
44155W        W87249  30.150  32.571  22.259 -0.3069 -0.0306 -0.0879
44156W        W87250  30.793  31.364  20.589 -0.1922  0.1448 -0.0525
44157W        W87251  32.300  30.601  23.419 -0.4770 -0.0001  0.0180
44158W        W87252  29.979  32.240  20.568 -0.4358 -0.2093 -0.0714
44159W        W87253  31.409  30.096  22.964  0.0706 -0.0772  0.1996
44160W        W87254  30.690  32.540  21.694 -0.1648 -0.1010  0.1181
44161W        W87255  29.597  31.079  21.541  0.1045 -0.0081  0.2587
44162W        W87256  29.343  31.099  20.458  0.0948 -0.3733 -0.0438
44163W        W87257  31.600  30.649  21.066  0.0517 -0.1889  0.2102
44164W        W87258  32.374  31.873  21.239 -0.0330  0.1858  0.0058
44165W        W87259  31.663  31.231  21.705  0.1342 -0.0949 -0.1631
44166W        W87260  30.200  30.547  22.682 -0.2936 -0.1856 -0.0298
44167W        W87261  28.896  33.520  22.076  0.1209 -0.1168  0.1033
44168W        W87262  31.430  30.840  23.445 -0.0746  0.5408 -0.1198
44169W        W87263  30.732  31.136  20.052 -0.2398  0.0435  0.1926
44170W        W87264  30.904  31.114  21.602 -0.1616  0.0522 -0.2200
44171W        W87265  30.601  30.874  23.849 -0.1637 -0.1560 -0.0207
44172W        W87266  30.736  29.621  21.781 -0.0683  0.4644 -0.1166
44173W        W87267  32.633  30.680  23.032  0.0864  0.2374 -0.1836
44174W        W87268  29.511  31.761  21.931  0.0103 -0.0696 -0.0819
44175W        W87269  28.576  30.913  21.499 -0.1258  0.0096  0.3059
44176W        W87270  31.431  31.757  23.344  0.0831 -0.5037  0.1408
44177W        W87271  30.658  31.233  21.081 -0.0865  0.3495 -0.1144
44178W        W87272  29.146  33.207  20.593  0.0779  0.1682  0.4546
44179W        W87273  30.664  29.094  24.126 -0.1510 -0.1262  0.1822
44180W        W87274  31.455  31.416  22.206 -0.3861 -0.0793  0.3324
44181W        W87275  30.666  31.211  23.058  0.0279 -0.2006  0.0117
44182W        W87276  29.712  30.145  21.966 -0.2107 -0.3675 -0.0688
44183W        W87277  30.981  29.380  21.472 -0.0312  0.3328  0.1329
44184W        W87278  32.579  31.446  22.562 -0.0209 -0.0672 -0.0482
44185W        W87279  32.149  30.865  22.942  0.3198  0.1026 -0.1812
44186W        W87280  29.531  32.355  23.391 -0.1873  0.2535 -0.0208
44187W        W87281  31.782  28.802  21.304  0.0020  0.0574  0.2020
44188W        W87282  32.498  32.915  20.647 -0.1862  0.1122 -0.0410
44189W        W87283  31.605  30.666  22.944 -0.1682  0.5491  0.1654
44190W        W87284  29.934  31.888  20.170  0.3337  0.0457 -0.0818
44191W        W87285  28.371  31.669  22.929 -0.0306 -0.1083 -0.2765
44192W        W87286  28.983  31.227  21.199  0.1133  0.2534  0.3559
44193W        W87287  30.849  29.355  22.593 -0.1178  0.2971 -0.3069
44194W        W87288  30.457  32.080  23.426  0.0796 -0.1907 -0.0802
44195W        W87289  29.172  32.057  20.323 -0.2901  0.3462 -0.0219
44196W        W87290  30.531  33.882  21.541  0.2796 -0.0711  0.1390
44197W        W87291  31.847  30.492  20.124 -0.2389 -0.2903 -0.0535
44198W        W87292  30.716  32.743  20.567  0.0516 -0.0163  0.2048
44199W        W87293  30.210  31.574  22.052 -0.2071  0.0387  0.2295
44200W        W87294  32.676  29.524  24.383  0.2290 -0.2877  0.2960
44201W        W87295  30.645  31.814  20.860 -0.0033  0.0489  0.2570
44202W        W87296  31.742  28.886  23.950  0.1549 -0.0591  0.0459
44203W        W87297  30.473  28.646  23.493 -0.1578 -0.0927  0.0555
44204W        W87298  32.960  31.256  21.824 -0.1066  0.2869  0.0540
44205W        W87299  29.727  31.429  22.903  0.1533  0.2465 -0.1914
44206W        W87300  30.329  32.221  24.399  0.1213  0.2184 -0.1562
44207W        W87301  28.866  31.829  24.137 -0.0426 -0.1936  0.0470
44208W        W87302  30.465  29.503  21.257  0.2332  0.2894  0.0376
44209W        W87303  29.872  30.712  21.199  0.0498 -0.0875  0.1031
44210W        W87304  31.265  33.126  21.895 -0.0549  0.0500 -0.1928
44211W        W87305  33.488  30.549  22.178  0.0526 -0.1570  0.0472
44212W        W87306  31.252  32.585  20.565  0.4083  0.2563 -0.1288
44213W        W87307  31.026  28.981  21.786 -0.0104  0.3234  0.1634
44214W        W87308  29.895  31.877  23.007 -0.0462 -0.1484  0.1882
44215W        W87309  31.981  31.469  22.191  0.2486  0.0316 -0.2154
44216W        W87310  31.706  31.709  20.901 -0.0348 -0.1797 -0.2038
44217W        W87311  30.795  32.456  23.139  0.3324 -0.1336  0.0788
44218W        W87312  29.463  30.857  22.141 -0.2766 -0.2420  0.2187
44219W        W87313  32.171  31.167  21.701 -0.0123  0.1957  0.0571
44220W        W87314  31.553  29.805  22.110  0.2848 -0.0096 -0.1904
44221W        W87315  32.141  31.373  23.738  0.0418  0.4310  0.0693
44222W        W87316  31.826  30.518  23.592 -0.1531  0.0721  0.1359
44223W        W87317  29.194  29.830  22.929  0.0367  0.1393 -0.0764
44224W        W87318  29.144  30.080  22.053  0.1283 -0.1280 -0.3121
44225W        W87319  32.558  32.323  22.814  0.0708  0.0107 -0.1662
44226W        W87320  31.362  29.768  20.607 -0.0198 -0.0228 -0.1205
44227W        W87321  32.492  31.060  23.401  0.2474  0.0834  0.0790
44228W        W87322  32.330  30.814  20.325  0.0799 -0.1822  0.3960
44229W        W87323  31.537  31.217  20.987  0.2955 -0.1310  0.1799
44230W        W87324  29.797  30.637  21.800  0.0837 -0.0511  0.1406
44231W        W87325  31.630  31.985  24.306  0.0201  0.2371 -0.0458
44232W        W87326  29.902  31.296  20.739 -0.1990  0.1546  0.0210
44233W        W87327  30.839  29.055  23.576  0.2187 -0.0500 -0.1406
44234W        W87328  30.814  31.595  21.426 -0.0802 -0.0848  0.1239
44235W        W87329  33.305  31.662  20.637  0.0411  0.1249  0.0685
44236W        W87330  31.361  29.122  20.582  0.0137 -0.1665  0.0351
44237W        W87331  29.309  31.279  21.876 -0.4170 -0.1729  0.0963
44238W        W87332  30.746  33.374  24.474 -0.4176  0.2449  0.1583
44239W        W87333  29.541  31.580  19.816 -0.2941 -0.2693  0.1322
44240W        W87334  32.094  30.893  20.887 -0.3717 -0.1543  0.1087
44241W        W87335  30.380  32.934  23.053 -0.1579 -0.0183 -0.0372
44242W        W87336  33.396  31.506  23.626  0.1230  0.4081 -0.2247
44243W        W87337  30.485  29.371  19.669 -0.2782 -0.0432 -0.5394
44244W        W87338  30.972  31.221  24.513 -0.0965 -0.2027  0.2968
44245W        W87339  29.852  31.517  21.566 -0.1843 -0.1953 -0.2184
44246W        W87340  31.568  30.117  21.095 -0.0005 -0.2149  0.2559
44247W        W87341  30.804  33.393  22.296 -0.0987 -0.1119  0.3133
44248W        W87342  30.339  33.155  23.520 -0.0335  0.1414  0.5604
44249W        W87343  30.996  34.134  21.550  0.0453 -0.0532 -0.2385
44250W        W87344  33.032  29.466  23.987  0.1070 -0.0546  0.1532
44251W        W87345  30.610  30.389  20.950 -0.1519  0.4297  0.1916
44252W        W87346  31.198  31.505  21.786  0.0035 -0.3248 -0.2083
44253W        W87347  31.869  31.577  24.159  0.0608  0.2012 -0.0785
44254W        W87348  30.268  32.592  23.430  0.0272  0.0539  0.1986
44255W        W87349  29.837  31.205  23.424  0.3223 -0.1363 -0.0860
44256W        W87350  32.115  33.260  22.112 -0.0177 -0.1573  0.0810
44257W        W87351  34.447  31.356  21.709 -0.2401 -0.2317 -0.0386
44258W        W87352  30.026  32.315  22.622 -0.0161  0.1311  0.3846
44259W        W87353  28.936  30.543  24.502  0.4051 -0.0028 -0.1310
44260W        W87354  29.042  32.127  23.573  0.0024 -0.1276  0.3808
44261W        W87355  32.684  32.026  22.367  0.2406 -0.3399  0.0405
44262W        W87356  30.345  28.150  20.416  0.1441 -0.4273 -0.1657
44263W        W87357  30.075  32.409  21.495  0.2070  0.1124  0.1732
44264W        W87358  30.884  32.293  23.610  0.1021 -0.0775 -0.3721
44265W        W87359  28.123  32.098  23.775 -0.0067 -0.0659 -0.4613
44266W        W87360  30.956  33.111  21.372 -0.0126 -0.1699 -0.1828
44267W        W87361  32.576  33.837  19.698  0.1190  0.1924 -0.2258
44268W        W87362  31.591  31.837  21.940 -0.0073  0.0969 -0.0668
44269W        W87363  33.123  31.721  21.677 -0.2447  0.1271 -0.2790
44270W        W87364  30.541  29.714  20.184  0.2013  0.0928 -0.0779
44271W        W87365  29.723  33.328  21.678  0.2537 -0.5008  0.1302
44272W        W87366  28.795  31.338  20.107 -0.1689 -0.2067  0.2564
44273W        W87367  31.956  32.897  20.702  0.0564 -0.0450 -0.1893
44274W        W87368  31.433  32.816  21.347  0.0983 -0.0370  0.1112
44275W        W87369  32.730  31.158  24.532 -0.0758  0.3143 -0.2801
44276W        W87370  32.512  29.870  18.901  0.0900 -0.1918  0.1117
44277W        W87371  32.668  30.020  20.976 -0.0758  0.1249 -0.0179
44278W        W87372  33.114  30.093  20.814  0.0069  0.1412  0.0537
44279W        W87373  31.733  31.832  22.487  0.0607  0.1964 -0.2390
44280W        W87374  30.090  30.982  22.928  0.3480 -0.1327 -0.0856
44281W        W87375  31.290  29.114  20.100 -0.1510  0.0437 -0.1082
44282W        W87376  29.085  30.841  24.096 -0.0903 -0.0360 -0.0139
44283W        W87377  32.838  28.709  23.613  0.0638  0.0096 -0.0749
44284W        W87378  29.883  33.098  22.934  0.3063  0.0185  0.0594
44285W        W87379  31.077  31.884  20.560 -0.0746  0.1183  0.2766
44286W        W87380  28.911  30.906  20.379  0.1121 -0.0458 -0.0547
44287W        W87381  29.034  30.878  21.753  0.3170 -0.5225  0.1865
44288W        W87382  33.303  29.126  23.565 -0.0043 -0.2426 -0.1666
44289W        W87383  31.483  30.890  19.985 -0.1551 -0.1217  0.1665
44290W        W87384  31.057  30.657  21.795 -0.2051 -0.1786  0.1235
44291W        W87385  30.164  33.197  20.690 -0.1848 -0.2062 -0.0285
44292W        W87386  31.771  33.505  21.729 -0.2151 -0.2074 -0.2021
44293W        W87387  31.089  32.891  22.923 -0.2445  0.2427 -0.0652
44294W        W87388  29.549  30.669  20.005  0.1641  0.1073  0.1141
44295W        W87389  33.060  30.758  21.497  0.0548 -0.6398  0.0299
44296W        W87390  30.075  31.314  22.487 -0.0971 -0.0549 -0.3519
44297W        W87391  30.888  30.298  22.696  0.0422  0.1082  0.1825
44298W        W87392  30.304  33.300  22.164  0.0285 -0.0917 -0.1151
44299W        W87393  32.377  29.373  20.816  0.0212  0.0154 -0.3537
44300W        W87394  30.187  32.061  23.898  0.0343 -0.1540  0.2392
44301W        W87395  29.712  30.569  23.421  0.3645 -0.0881 -0.2238
44302W        W87396  30.792  30.640  21.369 -0.2025 -0.0563 -0.0562
44303W        W87397  33.356  30.138  23.646 -0.1488 -0.1374 -0.0459
44304W        W87398  31.243  31.048  22.010 -0.2877  0.2118 -0.0531
44305W        W87399  31.173  33.039  22.406 -0.1922 -0.1214 -0.2773
44306W        W87400  30.254  28.416  22.213 -0.0148  0.2439  0.1414
44307W        W87401  31.155  30.385  21.017 -0.1779 -0.2917  0.2158
44308W        W87402  30.072  31.039  21.794 -0.0420 -0.0584  0.2296
44309W        W87403  30.703  31.361  23.515  0.2911  0.1182 -0.2451
44310W        W87404  31.772  32.565  24.589  0.1245 -0.2514 -0.1001
44311W        W87405  28.583  30.543  21.056 -0.3551 -0.3607 -0.1454
44312W        W87406  33.092  32.569  19.695  0.1601  0.0655  0.2027
44313W        W87407  33.435  31.009  20.672 -0.0654 -0.0018  0.1065
44314W        W87408  31.462  32.246  19.550 -0.0620  0.0670  0.0415
44315W        W87409  32.822  31.151  21.249  0.0718 -0.3090  0.0474
44316W        W87410  32.338  31.347  23.004 -0.2746  0.1324  0.0564
44317W        W87411  29.590  32.205  22.273  0.0196  0.2085  0.1737
44318W        W87412  32.015  32.549  22.971  0.0124 -0.0857  0.0202
44319W        W87413  32.715  30.103  21.909 -0.1647 -0.2299  0.0122
44320W        W87414  30.961  28.782  20.374 -0.0232  0.0755 -0.2129
44321W        W87415  30.536  31.198  22.126 -0.0176 -0.0022 -0.0482
44322W        W87416  28.832  33.548  20.884 -0.0240 -0.0578  0.0996
44323W        W87417  32.709  30.620  22.483  0.0755 -0.0685  0.1289
44324W        W87418  30.868  32.280  24.447  0.1979 -0.1632 -0.1389
44325W        W87419  30.442  31.586  20.030 -0.0577  0.0249 -0.1923
44326W        W87420  32.122  29.691  23.473  0.0702  0.1097  0.2866
44327W        W87421  32.104  31.911  23.636  0.0763  0.2131 -0.1167
44328W        W87422  31.319  32.362  23.167  0.1177  0.1767  0.6275
44329W        W87423  29.094  32.480  20.043  0.3493 -0.0141 -0.1826
44330W        W87424  30.943  30.808  22.356  0.2262 -0.0721 -0.1098
44331W        W87425  30.875  32.038  21.628 -0.1355  0.1883  0.1207
44332W        W87426  31.099  34.419  21.039 -0.1510  0.0626  0.0261
44333W        W87427  33.153  32.728  21.528 -0.2444 -0.1186  0.3416
44334W        W87428  31.594  28.697  21.781 -0.2096 -0.0510 -0.1184
44335W        W87429  32.781  32.201  21.449  0.0869 -0.1331  0.1070
44336W        W87430  30.216  29.903  21.486  0.0296  0.1648  0.2549
44337W        W87431  33.394  28.842  22.147 -0.0994  0.1450 -0.2400
44338W        W87432  32.085  29.444  20.327 -0.1720  0.3670 -0.1236
44339W        W87433  29.648  32.778  22.578 -0.2215 -0.3858 -0.0587
44340W        W87434  29.407  29.729  19.755  0.0377  0.0797  0.0370
44341W        W87435  29.714  31.226  20.122 -0.3554 -0.0355 -0.1643
44342W        W87436  31.239  31.976  22.738 -0.0768  0.1208  0.1837
44343W        W87437  30.492  29.835  24.178 -0.0080  0.1489  0.0728
44344W        W87438  29.949  29.323  23.636  0.1195  0.0667  0.0622
44345W        W87439  30.023  32.084  21.078 -0.0827 -0.0563 -0.2175
44346W        W87440  29.975  30.859  20.361  0.1399 -0.2095  0.0739
44347W        W87441  32.596  32.419  19.460  0.0583  0.1357  0.2382
44348W        W87442  29.721  29.281  22.291  0.0256  0.1667 -0.1099
44349W        W87443  29.924  29.622  22.759 -0.2034 -0.0427  0.1146
44350W        W87444  32.277  32.261  21.534 -0.1244 -0.0383 -0.1913
44351W        W87445  30.841  32.611  21.192 -0.0830 -0.0439 -0.0026
44352W        W87446  30.994  28.325  21.005 -0.2645 -0.1297  0.1118
44353W        W87447  32.194  32.480  23.863  0.0437  0.2420 -0.1624
44354W        W87448  29.644  31.044  19.637  0.5638  0.3451 -0.1582
44355W        W87449  31.047  30.073  22.005  0.4496  0.0835  0.1716
44356W        W87450  30.054  30.250  24.033 -0.4399  0.0773  0.0686
44357W        W87451  29.466  30.258  21.044 -0.1172  0.2485  0.1354
44358W        W87452  32.281  29.804  21.958 -0.3770 -0.4229  0.1196
44359W        W87453  31.987  32.805  20.191  0.1133  0.0257  0.2139
44360W        W87454  32.259  33.223  20.279  0.2015  0.0720 -0.2292
44361W        W87455  31.910  30.264  22.058  0.0279 -0.1750  0.1186
44362W        W87456  30.910  33.697  24.097  0.1504 -0.0894 -0.0525
44363W        W87457  30.156  29.490  21.866  0.2263  0.0746 -0.2374
44364W        W87458  32.677  31.882  21.828  0.0535  0.0960 -0.0631
44365W        W87459  30.810  33.017  23.304  0.0827  0.0476  0.0258
44366W        W87460  31.992  32.216  20.797  0.2170  0.0696 -0.1973
44367W        W87461  31.806  29.348  22.236 -0.1821  0.0560  0.1312
44368W        W87462  33.223  29.158  20.985  0.0689  0.0521  0.1294
44369W        W87463  30.122  30.518  23.198 -0.4600 -0.3586  0.1427
44370W        W87464  28.605  32.010  23.731  0.0420  0.2086 -0.0635
44371W        W87465  32.805  31.164  22.903  0.3231 -0.0638  0.0376
44372W        W87466  30.485  29.829  22.773  0.2813 -0.1748  0.0758
44373W        W87467  31.286  28.864  21.389 -0.2591 -0.1264  0.3126
44374W        W87468  31.920  32.607  21.221 -0.0531 -0.1446 -0.3707
44375W        W87469  28.841  31.905  21.570  0.0800 -0.1317 -0.1394
44376W        W87470  29.747  30.441  22.396 -0.4345 -0.2176  0.0209
44377W        W87471  30.916  30.958  23.443 -0.4130 -0.0568 -0.3123
44378W        W87472  31.129  31.783  22.204 -0.0919 -0.2240  0.1288
44379W        W87473  30.213  31.569  23.673 -0.1827  0.3292 -0.0369
44380W        W87474  30.254  29.122  21.036  0.0735 -0.0224  0.2961
44381W        W87475  31.731  32.471  20.418  0.0393  0.3610  0.1988
44382W        W87476  32.434  32.754  22.493 -0.1275 -0.0488  0.2323
44383W        W87477  32.537  33.306  24.379 -0.0785  0.0583 -0.0284
44384W        W87478  33.109  32.296  23.675 -0.0585  0.0863  0.2037
44385W        W87479  32.300  30.644  22.123 -0.0980 -0.1918 -0.0808
44386W        W87480  29.669  30.052  22.649 -0.0945 -0.0569  0.2102
44387W        W87481  30.029  30.326  20.815 -0.0423  0.0484  0.0450
44388W        W87482  28.912  31.566  22.383 -0.0462  0.1185  0.2284
44389W        W87483  31.887  31.021  21.317 -0.2005 -0.0247  0.1454
44390W        W87484  28.998  31.050  22.189 -0.1811  0.2316 -0.2961
44391W        W87485  31.058  28.795  20.891 -0.2936  0.4294 -0.2744
44392W        W87486  30.978  33.528  22.775 -0.1919 -0.2736  0.2529
44393W        W87487  31.058  31.465  22.875  0.2066  0.1185  0.2247
44394W        W87488  28.547  32.566  26.461  0.1866 -0.0629 -0.0989
44395W        W87489  28.588  31.321  23.372 -0.1269  0.3059 -0.1094
44396W        W87490  33.348  30.229  23.175  0.2300 -0.0427 -0.1295
44397W        W87491  31.110  31.118  23.900 -0.3529 -0.1012 -0.5220
44398W        W87492  29.127  30.080  24.778  0.0148  0.1462  0.0806
44399W        W87493  31.692  34.362  25.102 -0.0290  0.1761 -0.0221
44400W        W87494  30.028  28.508  26.733 -0.1207  0.1538 -0.1143
44401W        W87495  29.807  32.087  25.850 -0.1862  0.2962 -0.2540
44402W        W87496  31.899  32.664  26.333 -0.3919 -0.0829 -0.2621
44403W        W87497  31.097  31.619  23.750 -0.3452 -0.1540  0.0501
44404W        W87498  30.761  31.101  25.851  0.0848  0.0905 -0.1160
44405W        W87499  28.554  33.054  26.385  0.0319  0.1308 -0.0816
44406W        W87500  31.468  29.684  24.675  0.0132  0.0772 -0.1380
44407W        W87501  29.071  29.489  26.198  0.2756  0.0308 -0.3338
44408W        W87502  31.669  30.680  24.473  0.2152 -0.0336  0.1699
44409W        W87503  29.843  32.947  23.426  0.4011  0.0796  0.2252
44410W        W87504  30.200  30.668  26.464  0.1143 -0.1513 -0.0359
44411W        W87505  31.020  31.231  25.029 -0.0621  0.1056  0.0537
44412W        W87506  31.317  33.298  25.001  0.5558  0.0119 -0.1464
44413W        W87507  30.629  30.457  26.156 -0.1091  0.2524  0.3428
44414W        W87508  31.412  29.697  26.723 -0.0546 -0.2806 -0.1416
44415W        W87509  32.027  33.266  24.497 -0.0502  0.0960 -0.2499
44416W        W87510  29.331  31.869  24.384 -0.2434 -0.2648  0.0951
44417W        W87511  30.319  30.317  24.445 -0.3640  0.4897  0.0105
44418W        W87512  30.490  31.849  25.185  0.2522 -0.1870 -0.0498
44419W        W87513  30.398  28.701  26.437  0.1757 -0.1749 -0.3007
44420W        W87514  33.158  30.473  23.887 -0.1158  0.0108  0.1172
44421W        W87515  30.211  33.364  25.886 -0.0479 -0.4326  0.2890
44422W        W87516  30.465  32.328  26.795  0.1696 -0.0998 -0.1583
44423W        W87517  32.347  30.591  28.083 -0.0857 -0.2571 -0.0806
44424W        W87518  28.775  33.097  24.768  0.0904  0.1382  0.1309
44425W        W87519  28.362  33.942  25.133  0.0174 -0.2660  0.1125
44426W        W87520  30.991  32.574  24.058 -0.0636  0.1701 -0.0266
44427W        W87521  32.779  31.788  24.993 -0.3847 -0.1887 -0.0759
44428W        W87522  32.815  31.867  26.612 -0.1326 -0.0516 -0.0169
44429W        W87523  30.103  32.441  25.866 -0.0116  0.0665  0.0641
44430W        W87524  31.444  32.884  24.102 -0.0289 -0.3446  0.2558
44431W        W87525  31.397  32.883  26.365 -0.1535  0.0416  0.2890
44432W        W87526  30.672  32.858  26.902  0.0588 -0.3169 -0.0360
44433W        W87527  29.720  30.458  26.095 -0.1304 -0.3256 -0.1036
44434W        W87528  30.441  31.476  25.954  0.0318 -0.0002  0.1236
44435W        W87529  32.084  32.990  25.504 -0.0847  0.0063  0.1970
44436W        W87530  30.799  32.175  25.949  0.0695 -0.0682  0.1310
44437W        W87531  28.398  31.672  26.383 -0.0683  0.2443  0.1145
44438W        W87532  28.909  31.329  25.239 -0.0228 -0.0138  0.0088
44439W        W87533  33.556  30.309  28.614 -0.2529 -0.0184 -0.0226
44440W        W87534  30.487  32.425  24.840  0.1881 -0.0983 -0.1259
44441W        W87535  29.674  32.140  23.896 -0.0396  0.2657 -0.1550
44442W        W87536  30.983  28.222  23.753 -0.0388  0.1414  0.3496
44443W        W87537  29.992  31.182  24.108  0.1244 -0.2954  0.0319
44444W        W87538  31.770  28.430  26.024 -0.0562  0.2830 -0.0273
44445W        W87539  28.679  31.886  24.945 -0.2518 -0.3794 -0.0863
44446W        W87540  28.705  30.121  26.820  0.0757  0.2144 -0.3304
44447W        W87541  32.665  31.182  26.961 -0.1162 -0.1811 -0.1464
44448W        W87542  30.702  30.359  24.033  0.0180 -0.4227 -0.2147
44449W        W87543  30.438  28.841  26.947  0.2078  0.1734 -0.0274
44450W        W87544  30.076  33.905  26.486  0.2201  0.1401  0.1739
44451W        W87545  29.289  29.616  24.918  0.2699  0.1099  0.1808
44452W        W87546  33.043  33.179  24.323 -0.1677 -0.0899 -0.4751
44453W        W87547  33.489  31.550  25.861  0.3047 -0.1586  0.1656
44454W        W87548  31.203  32.965  23.630  0.1782  0.0859  0.4228
44455W        W87549  29.117  31.428  24.300  0.0132  0.0354 -0.3627
44456W        W87550  29.206  30.696  25.891 -0.0558 -0.5028  0.0254
44457W        W87551  30.439  31.074  26.742  0.1130  0.0380 -0.2812
44458W        W87552  30.768  29.229  24.633  0.0998 -0.1252 -0.0196
44459W        W87553  32.898  33.363  26.748  0.0364 -0.1218  0.0946
44460W        W87554  30.001  32.215  26.955  0.0860  0.0838 -0.0533
44461W        W87555  32.384  29.875  26.701 -0.2412  0.1006 -0.0924
44462W        W87556  29.854  31.636  23.996  0.1696 -0.0861  0.1241
44463W        W87557  31.737  30.737  26.481  0.0380 -0.0805  0.0768
44464W        W87558  31.844  32.316  25.048 -0.0604 -0.0714 -0.1907
44465W        W87559  30.494  29.888  25.354  0.1087  0.0706 -0.0421
44466W        W87560  31.921  29.668  26.694 -0.0752 -0.4232  0.0003
44467W        W87561  30.203  31.714  24.710 -0.1183  0.1442 -0.4384
44468W        W87562  29.923  32.392  24.790 -0.0337  0.4093 -0.1152
44469W        W87563  33.408  32.006  26.653  0.0326 -0.0451  0.3089
44470W        W87564  32.114  30.837  24.291 -0.1351  0.2036 -0.3010
44471W        W87565  29.657  32.532  26.191 -0.1585 -0.0131 -0.1513
44472W        W87566  29.258  28.523  28.677  0.0316  0.0961  0.3346
44473W        W87567  31.407  31.978  26.803 -0.2019  0.2007 -0.1184
44474W        W87568  29.972  32.103  23.408 -0.1819  0.2079 -0.0481
44475W        W87569  27.567  30.342  25.304  0.1720 -0.2351 -0.1948
44476W        W87570  30.292  33.194  25.142  0.1106  0.0243 -0.1215
44477W        W87571  28.655  29.798  26.174  0.0671 -0.2766  0.0680
44478W        W87572  29.839  30.439  24.888  0.1143 -0.0845  0.1346
44479W        W87573  32.433  30.074  25.715 -0.2342 -0.1772 -0.1722
44480W        W87574  29.749  29.116  25.848 -0.2106 -0.1138 -0.2898
44481W        W87575  30.736  30.419  24.756  0.0114 -0.1879  0.3229
44482W        W87576  30.089  32.842  26.170 -0.1693  0.3242 -0.0988
44483W        W87577  32.976  32.349  25.040 -0.3484  0.1958  0.1782
44484W        W87578  32.305  29.631  25.877  0.0137 -0.0083  0.0856
44485W        W87579  31.402  32.412  24.324  0.1420  0.2990  0.1674
44486W        W87580  29.095  30.296  25.579 -0.0030 -0.2130 -0.1270
44487W        W87581  29.095  30.239  26.109  0.0667 -0.3727 -0.1768
44488W        W87582  28.552  29.410  27.460  0.0796  0.1736  0.2443
44489W        W87583  31.216  28.865  26.026  0.1209 -0.0393  0.3994
44490W        W87584  31.979  30.359  27.310  0.0999 -0.0661 -0.5418
44491W        W87585  30.531  27.717  24.387  0.2561  0.1299  0.1964
44492W        W87586  30.247  30.007  24.909  0.0997 -0.1619  0.0861
44493W        W87587  31.542  30.367  24.951  0.1189 -0.1428  0.2126
44494W        W87588  29.650  31.408  24.422  0.2980 -0.1112  0.1494
44495W        W87589  31.648  30.031  26.416  0.1074 -0.0877  0.0390
44496W        W87590  32.269  32.525  25.376 -0.0963  0.1730 -0.0380
44497W        W87591  32.252  32.572  27.250 -0.0930 -0.1617  0.1904
44498W        W87592  32.028  32.588  25.834 -0.1128 -0.0171 -0.0877
44499W        W87593  29.985  31.123  25.510 -0.0717  0.1387 -0.3438
44500W        W87594  29.656  29.922  24.167 -0.0362 -0.2796 -0.4010
44501W        W87595  29.670  32.629  25.627  0.2709  0.0905 -0.3331
44502W        W87596  31.117  30.785  24.732  0.0216  0.1550 -0.0803
44503W        W87597  31.377  28.674  26.504 -0.1015  0.0514 -0.1248
44504W        W87598  33.036  32.883  25.701  0.0023 -0.0730  0.0794
44505W        W87599  31.392  33.552  25.517  0.2380 -0.3857  0.1881
44506W        W87600  29.823  31.730  26.398  0.0446 -0.4360 -0.3521
44507W        W87601  32.649  28.571  27.983 -0.2294  0.1346 -0.0716
44508W        W87602  31.337  30.462  26.251 -0.1108 -0.0471 -0.1075
44509W        W87603  31.421  31.396  25.222 -0.2046  0.3199  0.2714
44510W        W87604  29.520  29.279  23.453  0.0248 -0.1449 -0.0195
44511W        W87605  32.410  32.507  26.186  0.0691 -0.0562  0.0740
44512W        W87606  30.867  33.763  25.364 -0.0301 -0.0919 -0.1487
44513W        W87607  28.528  30.714  24.289 -0.1444 -0.3273 -0.3644
44514W        W87608  30.445  34.352  24.872 -0.0114  0.0204 -0.1201
44515W        W87609  32.387  29.468  26.931 -0.0323 -0.2271 -0.1536
44516W        W87610  28.506  30.715  26.764  0.1524  0.0975  0.0812
44517W        W87611  30.999  32.534  24.906 -0.0894 -0.1393 -0.3426
44518W        W87612  29.320  30.282  24.324  0.0310  0.1179  0.1714
44519W        W87613  29.702  32.660  27.574 -0.2676  0.0507 -0.1741
44520W        W87614  30.708  30.200  25.629  0.0056  0.2562 -0.0031
44521W        W87615  30.911  30.599  25.203  0.1316  0.0595  0.1811
44522W        W87616  31.477  30.466  27.331  0.1805 -0.2779  0.0711
44523W        W87617  31.890  32.406  23.438 -0.0428  0.1385 -0.4541
44524W        W87618  31.851  29.948  23.921 -0.1128 -0.0942 -0.0187
44525W        W87619  30.243  28.872  24.000  0.0866 -0.4026  0.0356
44526W        W87620  28.070  32.752  26.713 -0.0671 -0.2557  0.2423
44527W        W87621  30.775  32.054  24.872 -0.1459 -0.2229  0.0646
44528W        W87622  31.297  32.071  27.255  0.2519  0.0743  0.1309
44529W        W87623  30.916  29.481  23.875  0.0636  0.0396 -0.0775
44530W        W87624  33.610  31.545  25.357  0.2215  0.0749  0.1613
44531W        W87625  28.557  31.467  26.782 -0.2197  0.0700 -0.1377
44532W        W87626  31.317  30.211  25.777  0.4358 -0.1438 -0.1109
44533W        W87627  31.850  31.194  26.246  0.0183 -0.3385 -0.1068
44534W        W87628  31.515  29.282  25.906  0.0606  0.2515  0.1936
44535W        W87629  30.611  30.246  23.147 -0.0339 -0.0649  0.0287
44536W        W87630  30.683  30.779  24.402 -0.1363  0.2404 -0.2493
44537W        W87631  29.388  32.266  24.728  0.0597 -0.0946  0.1247
44538W        W87632  32.477  28.520  27.080 -0.1193  0.1544  0.0037
44539W        W87633  32.839  29.262  26.876  0.0021 -0.3017  0.1109
44540W        W87634  29.558  29.057  26.267 -0.2317 -0.1665  0.0114
44541W        W87635  33.305  30.477  28.174  0.2156  0.0597 -0.3108
44542W        W87636  32.336  31.513  24.622  0.0226 -0.1794  0.5566
44543W        W87637  31.365  30.556  25.361  0.0390  0.1248  0.1155
44544W        W87638  28.568  29.765  23.603 -0.0664 -0.0377 -0.5070
44545W        W87639  30.291  28.834  28.661  0.1423  0.0674  0.1844
44546W        W87640  28.994  31.240  26.086  0.2290  0.0260  0.1576
44547W        W87641  28.057  32.732  26.096 -0.0620  0.0928  0.0969
44548W        W87642  31.334  32.788  27.688  0.1297 -0.2044 -0.1027
44549W        W87643  31.717  32.094  25.979  0.1916  0.0170  0.0401
44550W        W87644  31.885  27.811  27.803  0.1051 -0.1154 -0.0274
44551W        W87645  30.430  29.495  24.993  0.1642 -0.0602 -0.2583
44552W        W87646  30.819  33.418  23.574  0.3858  0.0857  0.1949
44553W        W87647  31.567  33.067  24.656  0.1403  0.1550  0.2318
44554W        W87648  31.274  29.274  25.457  0.0314 -0.0850  0.0200
44555W        W87649  31.047  33.235  25.410 -0.0351 -0.4108  0.2683
44556W        W87650  31.982  33.879  25.128 -0.3173 -0.2724 -0.1480
44557W        W87651  32.724  31.751  27.195  0.2219  0.0528 -0.0107
44558W        W87652  28.842  33.883  25.385 -0.1057  0.1834  0.2850
44559W        W87653  30.391  28.955  27.500  0.0460  0.0483 -0.1089
44560W        W87654  28.379  31.769  25.839  0.0127 -0.1466 -0.1840
44561W        W87655  30.037  30.031  23.033  0.1024 -0.0447  0.1226
44562W        W87656  28.386  29.451  24.612 -0.0472 -0.0418 -0.0635
44563W        W87657  31.236  27.784  27.087  0.2248 -0.2132  0.1088
44564W        W87658  32.620  31.938  24.461  0.0236  0.1046  0.3280
44565W        W87659  30.778  29.857  27.402  0.1025  0.0877 -0.1884
44566W        W87660  31.788  30.498  25.655 -0.0453  0.0753 -0.0256
44567W        W87661  29.641  32.721  25.109 -0.0110 -0.0444 -0.1904
44568W        W87662  30.780  31.351  26.312  0.1231 -0.2815  0.0432
44569W        W87663  32.392  29.469  23.956  0.1385 -0.1946  0.0494
44570W        W87664  32.058  32.990  27.474 -0.2802 -0.0806  0.0941
44571W        W87665  30.026  31.446  25.155 -0.0900  0.1012  0.1187
44572W        W87666  30.067  29.752  23.885 -0.1591 -0.2492  0.0037
44573W        W87667  33.344  31.161  25.446  0.3757 -0.0405 -0.2803
44574W        W87668  30.792  31.789  24.339 -0.4284  0.2623  0.0698
44575W        W87669  28.383  32.287  24.731  0.2326 -0.0553  0.1105
44576W        W87670  31.453  30.893  25.953 -0.0662 -0.0476 -0.0669
44577W        W87671  30.442  30.405  25.216  0.1878 -0.0237  0.1269
44578W        W87672  28.941  32.096  24.595  0.0037  0.0222 -0.0925
44579W        W87673  31.138  31.571  26.615  0.2254 -0.0969 -0.0204
44580W        W87674  32.325  31.607  26.923  0.0836  0.1307  0.1657
44581W        W87675  30.677  31.503  24.836 -0.3305 -0.0424 -0.2796
44582W        W87676  31.311  29.185  24.958  0.0718 -0.4726 -0.1578
44583W        W87677  30.613  31.834  25.675  0.2492  0.5876 -0.1105
44584W        W87678  31.415  32.717  25.031  0.3478 -0.2803 -0.3046
44585W        W87679  29.800  30.828  25.819  0.1589 -0.0259 -0.2960
44586W        W87680  29.524  31.676  26.885  0.0603 -0.1065  0.1464
44587W        W87681  31.398  29.104  27.915 -0.0535 -0.0936 -0.1289
44588W        W87682  32.210  31.920  24.164 -0.0674  0.0928  0.0796
44589W        W87683  32.771  30.736  27.882  0.1340 -0.0255  0.0031
44590W        W87684  28.134  31.173  24.190  0.2399  0.1219  0.1196
44591W        W87685  28.255  30.777  25.788  0.2052  0.6295 -0.0952
44592W        W87686  29.570  32.664  24.534 -0.0051 -0.2480 -0.2671
44593W        W87687  30.615  30.197  27.039 -0.2230  0.2108 -0.2170
44594W        W87688  29.320  32.879  26.258 -0.4702 -0.1517 -0.0115
44595W        W87689  31.109  32.085  24.045  0.1922  0.1287 -0.0668
44596W        W87690  28.231  33.310  26.609 -0.1031 -0.1939  0.1489
44597W        W87691  31.843  29.088  24.789 -0.1576  0.0818  0.1601
44598W        W87692  32.210  32.106  23.114 -0.2684  0.1087 -0.1916
44599W        W87693  30.509  31.380  25.394  0.4301  0.1205  0.3391
44600W        W87694  31.679  29.506  27.086  0.1487  0.0833  0.3674
44601W        W87695  31.704  31.667  24.668 -0.1968 -0.0235  0.1443
44602W        W87696  31.171  30.129  27.256  0.1881 -0.0160 -0.0148
44603W        W87697  28.984  29.285  25.182 -0.1489  0.0014  0.2614
44604W        W87698  31.967  31.393  25.592  0.1310  0.0700 -0.0456
44605W        W87699  28.437  30.891  26.224 -0.1105 -0.1031  0.1065
44606W        W87700  31.961  32.195  27.538 -0.1848 -0.2134  0.1986
44607W        W87701  29.698  30.906  25.082 -0.0497 -0.0402  0.2724
44608W        W87702  30.694  29.855  24.708  0.3691  0.1247 -0.4142
44609W        W87703  30.029  29.307  24.197  0.1486  0.2018  0.1090
44610W        W87704  30.583  33.126  25.600  0.1563  0.0842  0.3289
44611W        W87705  30.992  31.126  26.822  0.2416 -0.0279 -0.0094
44612W        W87706  29.282  31.829  23.204  0.2184 -0.0807  0.0130
44613W        W87707  31.706  31.821  25.125  0.1013  0.1345  0.0880
44614W        W87708  29.100  31.533  25.633  0.2537  0.0498  0.1290
44615W        W87709  31.321  31.605  24.199  0.2584  0.1912  0.0131
44616W        W87710  30.936  32.205  25.306 -0.1183  0.1195  0.0112
44617W        W87711  31.553  33.882  23.416  0.2170 -0.0550 -0.0861
44618W        W87712  31.244  28.783  28.268  0.2575 -0.0585  0.0470
44619W        W87713  31.186  32.775  25.584  0.1910 -0.0301 -0.2530
44620W        W87714  30.753  29.459  25.406 -0.0753  0.1572 -0.0209
44621W        W87715  31.251  30.758  26.634  0.0686  0.1901  0.0640
44622W        W87716  31.625  31.007  25.476 -0.0513  0.0264 -0.3085
44623W        W87717  30.652  29.043  26.179 -0.1101  0.1446  0.0155
44624W        W87718  28.923  29.660  27.193 -0.1031 -0.0458 -0.0091
44625W        W87719  31.079  32.571  26.080  0.2393 -0.0241  0.0271
44626W        W87720  31.863  29.898  24.953 -0.0458  0.0031  0.2427
44627W        W87721  32.695  30.973  26.171  0.0586  0.1572 -0.0152
44628W        W87722  32.124  30.287  25.320  0.2229  0.0777 -0.0005
44629W        W87723  31.053  30.545  23.742  0.2678 -0.3564  0.1915
44630W        W87724  30.258  29.805  26.629 -0.1208  0.0600  0.0187
44631W        W87725  32.288  30.694  27.443 -0.1422 -0.1254  0.1380
44632W        W87726  30.850  27.843  24.009 -0.0471  0.4845  0.0972
44633W        W87727  30.965  30.810  26.212  0.1045  0.0863  0.1559
44634W        W87728  30.957  33.162  24.027 -0.0840 -0.1278  0.1686
44635W        W87729  31.566  31.781  25.625  0.0995 -0.1588  0.1687
44636W        W87730  30.034  30.798  23.751  0.1331  0.1614 -0.1187
44637W        W87731  29.427  29.113  24.908  0.1414  0.1895 -0.0332
44638W        W87732  30.266  31.944  26.032 -0.0207 -0.3139  0.0844
44639W        W87733  30.490  28.989  24.888 -0.0764 -0.1444 -0.2036
44640W        W87734  31.124  31.733  25.152  0.1118 -0.1304 -0.2361
44641W        W87735  30.874  32.966  26.461  0.0385  0.2201 -0.0505
44642W        W87736  32.467  31.473  27.525 -0.1266  0.1733  0.0548
44643W        W87737  30.815  28.590  26.044 -0.0683  0.0770 -0.2659
44644W        W87738  32.225  29.930  27.275 -0.5561  0.0596 -0.1065
44645W        W87739  30.189  32.716  25.118 -0.0491  0.1175  0.2827
44646W        W87740  29.973  29.679  25.603  0.0159  0.2474  0.5000
44647W        W87741  31.381  33.936  25.977 -0.3867  0.5148 -0.0414
44648W        W87742  28.836  31.889  25.957  0.0595 -0.1501  0.0620
44649W        W87743  29.668  33.605  25.024 -0.0672 -0.0700 -0.1146
44650W        W87744  30.232  29.305  25.827 -0.0992  0.1475 -0.1623
44651W        W87745  31.120  30.992  25.464  0.2122  0.0484 -0.1186
44652W        W87746  30.767  32.754  25.283  0.0270 -0.0916  0.3170
44653W        W87747  32.748  30.959  27.465  0.1863 -0.3819 -0.1228
44654W        W87748  30.582  32.123  27.661  0.0944 -0.3921 -0.1765
44655W        W87749  29.551  30.480  25.341  0.0242  0.0541  0.0956
44656W        W87750  30.232  31.450  26.999 -0.0635 -0.0465 -0.1597
44657W        W87751  33.151  31.347  24.115 -0.0427  0.2161 -0.3454
44658W        W87752  30.582  32.983  24.792 -0.2579  0.3389  0.0083
44659W        W87753  29.232  32.072  27.216  0.2767 -0.1130  0.0840
44660W        W87754  31.900  31.680  26.746  0.0346 -0.1504 -0.2252
44661W        W87755  29.971  32.273  25.261  0.1173 -0.0008  0.1941
44662W        W87756  31.356  29.298  24.376 -0.0052 -0.5596 -0.0322
44663W        W87757  30.148  31.430  23.175 -0.1699 -0.1044 -0.2455
44664W        W87758  29.033  33.314  26.987  0.0562  0.1454 -0.3146
44665W        W87759  29.353  30.552  24.822  0.0793 -0.1238  0.0507
44666W        W87760  29.180  32.541  25.929  0.2570 -0.3339  0.2682
44667W        W87761  31.679  32.141  22.897  0.0234  0.2212  0.0107
44668W        W87762  30.639  30.980  24.871 -0.0371  0.0820  0.0664
44669W        W87763  32.509  32.826  25.798  0.1392 -0.0283 -0.1497
44670W        W87764  31.034  29.989  23.299 -0.2986  0.1636 -0.2972
44671W        W87765  30.427  33.800  26.163 -0.3548 -0.2159  0.1673
44672W        W87766  30.086  32.788  24.489 -0.0914 -0.2429  0.1626
44673W        W87767  31.211  31.622  24.706 -0.0944 -0.0603  0.3298
44674W        W87768  30.372  32.894  26.541  0.2407  0.2395  0.0422
44675W        W87769  31.815  31.411  27.193 -0.0855  0.1059 -0.3033
44676W        W87770  31.737  29.451  23.806 -0.0367  0.4235  0.1445
44677W        W87771  32.468  31.647  25.590 -0.0780 -0.1183 -0.1450
44678W        W87772  32.743  30.064  24.373 -0.1782 -0.1984 -0.1496
44679W        W87773  32.147  31.091  27.086 -0.0660  0.1765  0.1147
44680W        W87774  31.322  32.196  26.320 -0.1082  0.2320  0.2014
44681W        W87775  30.419  29.437  24.436 -0.0864 -0.0260  0.1327
44682W        W87776  28.078  30.463  26.712 -0.0388 -0.1161 -0.3347
44683W        W87777  32.465  28.999  27.717  0.1044 -0.1111 -0.0649
44684W        W87778  28.017  33.069  27.715 -0.0954 -0.0848  0.0443
44685W        W87779  31.420  32.134  24.792 -0.2123 -0.0714  0.0338
44686W        W87780  29.909  30.105  25.354  0.0477 -0.0534  0.0606
44687W        W87781  29.573  30.124  25.757 -0.1632 -0.2779  0.3602
44688W        W87782  31.769  29.474  26.263  0.3081  0.1158 -0.0635
44689W        W87783  31.492  32.475  23.736  0.4329 -0.0527  0.0093
44690W        W87784  31.040  30.153  26.676 -0.1586  0.1532  0.0109
44691W        W87785  31.197  34.105  25.541 -0.1849 -0.1145 -0.0027
44692W        W87786  30.106  32.863  25.557 -0.1709  0.1596  0.1001
44693W        W87787  30.320  33.070  27.214 -0.0882 -0.3845 -0.1475
44694W        W87788  30.621  27.995  23.431  0.2848  0.0248 -0.1873
44695W        W87789  33.285  30.759  24.372 -0.0816  0.0034 -0.0725
44696W        W87790  29.025  31.490  24.804 -0.1244 -0.0829  0.0143
44697W        W87791  32.389  31.181  26.513 -0.1915 -0.0229 -0.1180
44698W        W87792  29.655  30.898  24.558  0.0698  0.1137  0.0979
44699W        W87793  31.933  31.212  24.515 -0.3710 -0.1578 -0.5743
44700W        W87794  29.501  31.299  25.952  0.1748 -0.1049  0.0485
44701W        W87795  28.917  28.984  26.521 -0.2013  0.1381  0.0115
44702W        W87796  29.709  31.673  23.466  0.0060 -0.0206 -0.0052
44703W        W87797  32.990  31.417  27.391 -0.2240  0.1835 -0.2924
44704W        W87798  29.850  31.988  24.472 -0.2845 -0.1734 -0.3071
44705W        W87799  32.558  32.986  27.516 -0.5254 -0.2036 -0.2406
44706W        W87800  29.670  29.484  24.622 -0.1995 -0.0268 -0.0026
44707W        W87801  30.434  30.517  23.575  0.0134  0.0347 -0.0643
44708W        W87802  27.966  32.431  24.279  0.1484  0.0182  0.2149
44709W        W87803  30.143  30.234  25.848  0.1039 -0.1515 -0.2536
44710W        W87804  32.691  32.680  27.054 -0.1049  0.0815 -0.1385
44711W        W87805  29.592  29.718  23.733  0.2668 -0.1515 -0.3137
44712W        W87806  32.525  32.117  23.832  0.2333 -0.2882 -0.0272
44713W        W87807  30.364  31.177  24.409  0.0767  0.1516 -0.1771
44714W        W87808  31.855  33.295  25.071  0.0268 -0.2582  0.1229
44715W        W87809  32.334  30.971  24.757  0.0933  0.0602  0.0516
44716W        W87810  31.872  32.793  27.007  0.1628 -0.0263  0.1169
44717W        W87811  28.718  29.950  25.689  0.0808  0.0645  0.0400
44718W        W87812  32.196  32.526  26.750 -0.0675  0.1013 -0.2624
44719W        W87813  33.016  32.212  27.048  0.1337  0.0589 -0.3248
44720W        W87814  31.045  29.934  25.399 -0.2024  0.3271 -0.0316
44721W        W87815  29.350  31.803  23.813 -0.2885  0.0907 -0.0475
44722W        W87816  30.771  33.366  24.991  0.1792 -0.1269 -0.1548
44723W        W87817  32.867  31.467  25.934  0.0388  0.2327  0.3741
44724W        W87818  32.423  30.347  26.474 -0.0414 -0.0571 -0.1129
44725W        W87819  31.604  33.055  25.428 -0.0361 -0.0825  0.0553
44726W        W87820  33.077  30.928  28.265 -0.0464 -0.0091 -0.1170
44727W        W87821  30.467  32.433  26.276  0.0205 -0.2206 -0.0771
44728W        W87822  29.566  32.453  27.132 -0.1243  0.0734  0.0145
44729W        W87823  28.627  31.204  24.279  0.0728 -0.1208 -0.0238
44730W        W87824  29.557  31.843  24.934  0.0410  0.1597  0.1727
44731W        W87825  30.999  32.911  24.506  0.0488 -0.2855  0.2569
44732W        W87826  32.502  34.014  25.140 -0.2574 -0.0932 -0.0028
44733W        W87827  31.926  33.385  27.112  0.1016  0.2253 -0.0403
44734W        W87828  31.449  31.127  24.372 -0.2420 -0.1363  0.2708
44735W        W87829  32.047  31.667  26.137 -0.0277 -0.1540  0.0018
44736W        W87830  31.909  29.692  25.439  0.0293  0.1285 -0.1567
44737W        W87831  32.756  30.278  25.447  0.0757 -0.1209  0.1266
44738W        W87832  31.624  30.081  25.329 -0.0568  0.0609  0.2177
44739W        W87833  30.382  31.958  28.148 -0.2725 -0.0942  0.0875
44740W        W87834  29.668  29.723  23.255 -0.0189  0.2289  0.2294
44741W        W87835  30.291  32.254  23.014  0.2513  0.0844 -0.0761
44742W        W87836  30.441  32.358  25.424 -0.0603  0.0337 -0.1385
44743W        W87837  30.978  29.128  26.706 -0.1661  0.0960 -0.2435
44744W        W87838  29.656  30.329  26.638 -0.0681  0.0089 -0.0971
44745W        W87839  29.564  31.336  24.963 -0.0918  0.2032 -0.2694
44746W        W87840  30.511  28.508  24.919 -0.1482 -0.2429  0.0303
44747W        W87841  32.448  33.176  26.202  0.0459 -0.3444 -0.0060
44748W        W87842  30.096  28.675  25.158 -0.0697  0.1633 -0.1220
44749W        W87843  29.571  29.613  26.018  0.3399  0.0203  0.0096
44750W        W87844  32.388  33.193  24.899 -0.0759 -0.0929  0.0480
44751W        W87845  33.323  31.201  24.561 -0.2276  0.4788  0.1932
44752W        W87846  31.369  29.732  25.715 -0.0517  0.4356 -0.1523
44753W        W87847  33.784  33.718  26.623 -0.1348 -0.0610  0.1190
44754W        W87848  29.935  32.609  23.055  0.0873 -0.1925 -0.0901
44755W        W87849  30.544  30.196  26.538  0.0761 -0.0989  0.1969
44756W        W87850  30.355  29.091  25.353 -0.0271  0.0774  0.1318
44757W        W87851  28.729  30.136  22.864 -0.4017  0.4349  0.1083
44758W        W87852  30.499  30.991  26.269  0.0051 -0.3359 -0.0416
44759W        W87853  31.847  32.149  26.432 -0.0694  0.0525  0.0666
44760W        W87854  32.023  32.904  23.317  0.0742  0.1482  0.4597
44761W        W87855  30.122  31.865  25.523  0.0836 -0.2674  0.1438
44762W        W87856  29.887  32.741  26.645 -0.2201 -0.1999  0.1698
44763W        W87857  29.576  28.413  26.604 -0.0205 -0.0916 -0.0943
44764W        W87858  31.826  32.392  24.094 -0.2841 -0.1609  0.5194
44765W        W87859  30.705  31.854  26.340 -0.3077 -0.1048  0.2543
44766W        W87860  33.564  32.321  23.920  0.0414 -0.0077  0.0495
44767W        W87861  32.747  30.736  26.795 -0.2182  0.2108  0.1865
44768W        W87862  31.628  32.494  25.508  0.3229 -0.1591  0.0209
44769W        W87863  29.818  28.744  27.708 -0.1696 -0.2235 -0.0015
44770W        W87864  30.676  31.520  26.750  0.1101 -0.2599 -0.1369
44771W        W87865  31.673  31.153  26.753 -0.0530 -0.1180 -0.1689
44772W        W87866  30.907  28.857  27.305  0.1132  0.1630 -0.1477
44773W        W87867  31.172  30.045  24.913  0.2720 -0.0713 -0.2429
44774W        W87868  28.893  31.667  23.440 -0.2827 -0.4023 -0.2184
44775W        W87869  29.136  31.799  25.201 -0.0665 -0.2622  0.3950
44776W        W87870  29.520  31.269  23.815  0.0204  0.0410  0.1246
44777W        W87871  30.046  31.156  26.158  0.1847 -0.0869  0.0742
44778W        W87872  29.453  32.216  25.300  0.1672 -0.1064 -0.2672
44779W        W87873  32.705  30.324  27.563 -0.0262 -0.1066 -0.2895
44780W        W87874  30.351  30.984  23.415  0.1189  0.1909 -0.1881
44781W        W87875  32.499  31.130  23.994 -0.2244  0.1528 -0.2074
44782W        W87876  32.011  33.098  25.988  0.1092 -0.1865 -0.0197
44783W        W87877  32.917  33.117  27.199  0.0218  0.0250  0.0997
44784W        W87878  29.990  32.706  27.140  0.0052  0.1047 -0.0055
44785W        W87879  31.617  31.682  26.364 -0.1005 -0.1327  0.2032
44786W        W87880  30.378  30.647  25.788 -0.3414 -0.0821  0.0895
44787W        W87881  30.025  29.770  24.422  0.0360 -0.0997  0.0403
44788W        W87882  30.339  31.716  24.213 -0.0327 -0.0391  0.2007
44789W        W87883  31.656  30.158  24.487 -0.0460 -0.0745 -0.2208
44790W        W87884  29.535  30.018  26.316 -0.1159  0.1502  0.1627
44791W        W87885  30.951  29.986  23.840 -0.1828  0.0023 -0.0852
44792W        W87886  29.646  33.618  27.096 -0.1629  0.2978  0.0936
44793W        W87887  30.546  30.869  25.388 -0.1701 -0.4986  0.3905
44794W        W87888  30.464  31.608  30.704  0.3026  0.2230  0.0875
44795W        W87889  28.938  29.150  27.569  0.1841 -0.0854 -0.2565
44796W        W87890  31.849  30.690  26.977  0.1005  0.2033  0.0484
44797W        W87891  33.346  31.309  28.219  0.0961 -0.0851  0.0972
44798W        W87892  29.732  29.230  28.351 -0.1707 -0.1881 -0.0604
44799W        W87893  31.145  33.230  27.667 -0.3473 -0.0266  0.1501
44800W        W87894  28.067  29.542  30.271 -0.1987 -0.1367 -0.0368
44801W        W87895  31.114  33.474  28.350 -0.0101  0.1536 -0.2627
44802W        W87896  32.125  33.126  30.262 -0.1171  0.1342  0.2632
44803W        W87897  31.336  31.175  26.344  0.1282  0.1234  0.0780
44804W        W87898  31.011  31.204  29.464  0.0520  0.0527  0.0157
44805W        W87899  29.999  32.162  30.010 -0.2924 -0.3029  0.0382
44806W        W87900  30.319  29.594  27.513 -0.0123  0.0526  0.0048
44807W        W87901  28.803  30.380  29.619 -0.0554  0.0645 -0.3994
44808W        W87902  31.369  30.356  30.298  0.3169 -0.1393  0.0591
44809W        W87903  29.336  31.585  27.319  0.0717  0.2156 -0.1947
44810W        W87904  30.748  30.372  30.238 -0.0627  0.2870 -0.3108
44811W        W87905  31.005  30.647  27.146  0.0359 -0.0797  0.1299
44812W        W87906  30.566  34.050  29.366  0.6125 -0.0715 -0.0111
44813W        W87907  31.138  30.094  29.839 -0.0131 -0.1613 -0.0737
44814W        W87908  31.412  30.427  31.285  0.0938  0.0941 -0.2406
44815W        W87909  31.240  30.565  28.009  0.1212 -0.1359  0.2150
44816W        W87910  29.476  30.827  26.818 -0.0100 -0.0394  0.2743
44817W        W87911  29.618  30.841  29.024  0.2373  0.2285  0.3695
44818W        W87912  30.571  31.317  30.319  0.1475  0.0366 -0.0445
44819W        W87913  30.884  30.152  28.184 -0.4481  0.0353 -0.3549
44820W        W87914  31.823  30.607  29.041 -0.0881 -0.0638  0.0434
44821W        W87915  31.306  34.137  29.080 -0.1425  0.0837 -0.0783
44822W        W87916  30.271  34.157  28.506 -0.2180  0.0483  0.0335
44823W        W87917  31.972  32.168  31.618 -0.0028  0.1227 -0.0196
44824W        W87918  28.543  33.064  29.829 -0.2277 -0.0062 -0.0687
44825W        W87919  29.213  32.199  27.730 -0.1493 -0.0740 -0.2573
44826W        W87920  29.993  32.920  27.874 -0.0981 -0.0791 -0.0456
44827W        W87921  32.774  31.917  28.763  0.1297  0.4575  0.2418
44828W        W87922  32.578  32.289  31.056 -0.1467 -0.0818  0.0386
44829W        W87923  31.167  32.902   0.095  0.0373 -0.0421 -0.1072
44830W        W87924  30.107  32.351  27.469  0.0339 -0.0177 -0.2719
44831W        W87925  30.881  33.623  29.291 -0.1983 -0.1821 -0.4166
44832W        W87926  29.916  31.411  30.889 -0.0161 -0.1595  0.2132
44833W        W87927  31.682  32.191  29.806 -0.2238 -0.1941 -0.0062
44834W        W87928  31.443  30.576  28.660 -0.2444  0.1963  0.0325
44835W        W87929  30.466  31.528  27.460 -0.0090 -0.0512  0.1342
44836W        W87930  31.897  31.462  28.868 -0.0292 -0.0873 -0.1553
44837W        W87931  31.068  32.354  30.745 -0.0437  0.0912 -0.1349
44838W        W87932  31.057  31.559  29.123  0.3460  0.0651  0.0179
44839W        W87933  32.829  29.137  31.518 -0.1127  0.1945  0.0072
44840W        W87934  29.290  33.179  27.397  0.0307 -0.2472  0.1841
44841W        W87935  29.984  30.617  27.311  0.0180  0.2236 -0.0285
44842W        W87936  31.560  30.342  26.812  0.0656 -0.0486 -0.1557
44843W        W87937  30.755  30.639  26.677  0.2540  0.0748 -0.0705
44844W        W87938  30.060  28.553  28.292 -0.5418 -0.0454 -0.4241
44845W        W87939  29.488  32.818  29.493 -0.0231 -0.4004 -0.3077
44846W        W87940  30.699  29.720  29.693  0.1567 -0.0885 -0.1947
44847W        W87941  32.808  31.766  31.202 -0.0180 -0.2592 -0.0163
44848W        W87942  30.433  30.670  27.062  0.2417 -0.0125  0.0042
44849W        W87943  30.505  28.892  30.521 -0.0063  0.2732 -0.3663
44850W        W87944  29.535  34.646  31.022  0.2238 -0.2538 -0.2784
44851W        W87945  30.366  30.328  28.699 -0.0177  0.1199  0.1635
44852W        W87946  32.259  34.022  27.676  0.2681 -0.0976 -0.0709
44853W        W87947  32.303  31.035  27.754 -0.2839 -0.3890 -0.0425
44854W        W87948  31.015  32.423  27.648  0.1071 -0.1674 -0.0295
44855W        W87949  29.457  31.912  28.786  0.0812  0.1973 -0.1041
44856W        W87950  30.105  29.988   0.235 -0.0299 -0.1956  0.1192
44857W        W87951  30.406  30.878  30.350  0.1184  0.1377 -0.2633
44858W        W87952  28.924  28.049  28.579 -0.2218 -0.0163 -0.1715
44859W        W87953  33.109  31.457   0.913  0.0128  0.3190 -0.0224
44860W        W87954  29.751  30.926   0.145 -0.1207  0.1272  0.1691
44861W        W87955  31.917  29.556  28.129 -0.2148 -0.0774 -0.1734
44862W        W87956  30.810  31.820  29.483 -0.0590  0.1065  0.2630
44863W        W87957  32.142  33.102  29.290  0.0165  0.0958 -0.1127
44864W        W87958  33.355  31.220  28.734 -0.2859 -0.2004  0.0459
44865W        W87959  31.850  29.096  28.889 -0.0044 -0.0681  0.1469
44866W        W87960  33.391  29.939  29.417 -0.1492 -0.3379 -0.3533
44867W        W87961  30.984  32.412  27.087 -0.0219 -0.2405 -0.2061
44868W        W87962  30.680  30.597  28.085 -0.1045  0.0671 -0.0816
44869W        W87963  32.799  31.441  31.594  0.2867 -0.2775 -0.1321
44870W        W87964  32.506  32.348  28.315  0.0078 -0.1152 -0.3420
44871W        W87965  29.666  33.071  30.132 -0.2451  0.3842  0.1155
44872W        W87966  30.986  29.861  30.254 -0.2709 -0.1891 -0.2644
44873W        W87967  31.008  31.818  30.553 -0.1076  0.1729 -0.1115
44874W        W87968  29.066  32.511  26.951 -0.2975 -0.2390  0.0811
44875W        W87969  28.721  29.546  28.663  0.2455 -0.1344  0.1218
44876W        W87970  30.288  31.848  26.766 -0.3784 -0.0868 -0.0805
44877W        W87971  29.576  30.605  31.532 -0.1173 -0.0222 -0.1053
44878W        W87972  29.817  31.479  31.409  0.0632 -0.4207 -0.1276
44879W        W87973  32.668  29.392  27.388  0.1106 -0.1036  0.1375
44880W        W87974  29.884  29.275   0.030  0.1454  0.0452  0.0790
44881W        W87975  32.992  30.485  30.550 -0.2214 -0.1814  0.0563
44882W        W87976  29.240  30.640  26.410 -0.3398 -0.0223  0.2028
44883W        W87977  31.786  32.597  27.877  0.2418 -0.0846  0.1340
44884W        W87978  32.863  30.768  29.294  0.1794 -0.0701 -0.0604
44885W        W87979  32.384  32.037  27.804  0.0685 -0.1011  0.2100
44886W        W87980  29.030  30.515  30.300  0.2787  0.0993  0.1546
44887W        W87981  30.151  30.942  29.043 -0.3682 -0.1973  0.1326
44888W        W87982  29.996  28.795  30.313  0.4545  0.0690  0.0294
44889W        W87983  29.422  29.252  30.003 -0.2901  0.2374 -0.2387
44890W        W87984  31.669  30.027  31.025 -0.2022  0.0591 -0.1633
44891W        W87985  28.807  27.376  27.945 -0.1475  0.1562 -0.0272
44892W        W87986  31.592  29.600  28.704  0.0252  0.0407  0.0753
44893W        W87987  30.907  30.875  29.072  0.0759 -0.0030 -0.1279
44894W        W87988  29.613  31.234  28.093 -0.2852  0.2361  0.2365
44895W        W87989  33.274  30.924  30.387 -0.2360 -0.3647 -0.0499
44896W        W87990  31.150  32.516  29.115 -0.1626  0.2686  0.1382
44897W        W87991  33.482  33.514  30.538 -0.0500 -0.4867  0.2701
44898W        W87992  31.508  32.768  28.795 -0.3069  0.1575  0.2172
44899W        W87993  30.898  29.678  27.911  0.0945 -0.1104 -0.2383
44900W        W87994  30.498  29.363  26.736  0.0516  0.3056 -0.0515
44901W        W87995  29.946  33.650  29.924  0.1675  0.1045  0.1124
44902W        W87996  29.911  33.112  29.252 -0.0333  0.0402  0.0502
44903W        W87997  30.424  31.098  27.835  0.1008 -0.0022 -0.0400
44904W        W87998  32.534  33.941  28.714 -0.3490  0.3720  0.0504
44905W        W87999  31.627  30.944  28.106 -0.1214 -0.2159  0.3642
44906W        W88000  29.652  31.042  30.691 -0.0428  0.0681 -0.0238
44907W        W88001  32.603  30.038  31.453  0.0237 -0.1474 -0.3700
44908W        W88002  32.740  30.933  29.776  0.0746 -0.4155  0.5223
44909W        W88003  30.419  30.567  27.555 -0.0532  0.0856  0.1106
44910W        W88004  29.673  28.809  28.613 -0.0603 -0.2025 -0.0371
44911W        W88005  31.627  32.094  28.473 -0.0867  0.0648  0.0114
44912W        W88006  29.225  31.175  27.089 -0.0301 -0.0085  0.1544
44913W        W88007  29.947  30.682  28.592  0.1859 -0.2059 -0.1140
44914W        W88008  31.228  32.956  29.341  0.0378  0.1518 -0.1501
44915W        W88009  33.149  30.011  29.901  0.1139 -0.1779  0.0343
44916W        W88010  30.159  29.827  31.793  0.0671  0.0676 -0.2463
44917W        W88011  32.724  30.352  29.905 -0.2385 -0.1170 -0.3118
44918W        W88012  29.536  29.664  28.013 -0.0539 -0.5136  0.2565
44919W        W88013  29.577  31.474  30.457  0.0523 -0.0639 -0.0585
44920W        W88014  31.563  29.003  29.910  0.2522  0.3702 -0.0424
44921W        W88015  32.609  29.216  28.169 -0.0632 -0.1849 -0.0810
44922W        W88016  31.742  31.565  31.119  0.1094  0.1446  0.1166
44923W        W88017  31.612  32.315  29.178 -0.1797 -0.2221  0.1479
44924W        W88018  30.517  29.286  27.872 -0.0662 -0.0350  0.0159
44925W        W88019  32.693  29.894  27.147 -0.0309 -0.0865  0.0818
44926W        W88020  30.551  31.644  31.832 -0.2413 -0.1762  0.0346
44927W        W88021  31.078  32.172  29.813  0.3623  0.1141  0.4132
44928W        W88022  30.162  33.327  28.878 -0.1384  0.3272  0.1405
44929W        W88023  32.296  30.100  27.755  0.0494 -0.0280 -0.2167
44930W        W88024  31.657  33.358  28.610 -0.1618  0.1725  0.3176
44931W        W88025  29.262  30.380  29.845  0.0963  0.0779 -0.1066
44932W        W88026  31.604  31.955   0.657 -0.0508 -0.0714 -0.4200
44933W        W88027  31.025  31.328  27.558 -0.0618  0.2625 -0.0266
44934W        W88028  30.531  30.146  29.119 -0.2314  0.1642 -0.1324
44935W        W88029  29.719  30.192  27.180  0.2193 -0.1025 -0.1748
44936W        W88030  32.537  29.811  29.942 -0.2800 -0.0033  0.1849
44937W        W88031  29.348  32.053  25.782  0.0280 -0.0335 -0.1939
44938W        W88032  31.900  30.278  30.118  0.1847 -0.0112  0.0347
44939W        W88033  31.139  30.584  29.942 -0.3723 -0.0036 -0.0922
44940W        W88034  30.448  29.956  30.379 -0.1269 -0.3567 -0.1494
44941W        W88035  32.567  32.180  31.538 -0.1485 -0.3135  0.1306
44942W        W88036  31.401  30.226  28.354 -0.1295 -0.0554  0.5715
44943W        W88037  31.736  31.679  29.840  0.2287  0.2878 -0.3440
44944W        W88038  30.696  31.531  27.892  0.3591 -0.0890 -0.1046
44945W        W88039  31.441  28.883  30.458 -0.0772  0.0851  0.0166
44946W        W88040  30.597  30.226  29.731  0.2922  0.1023  0.2720
44947W        W88041  30.221  33.292  30.148 -0.0680  0.2584  0.1312
44948W        W88042  32.171  33.040  31.502 -0.1169 -0.0621 -0.0672
44949W        W88043  31.030  31.846  27.589  0.0347  0.0276 -0.0482
44950W        W88044  30.722  29.531  30.592 -0.1970  0.4889  0.3142
44951W        W88045  31.383  29.764  28.061 -0.1254  0.0253  0.0739
44952W        W88046  29.989  34.073  27.022  0.0433 -0.2501 -0.2180
44953W        W88047  30.904  32.072  28.954 -0.0269 -0.0344 -0.0360
44954W        W88048  30.220  29.830  28.907  0.2500  0.0233 -0.1269
44955W        W88049  32.113  33.552  30.538 -0.0075 -0.0115  0.3947
44956W        W88050  30.804  30.877  27.669  0.1441 -0.2778 -0.0060
44957W        W88051  31.061  32.662  30.083  0.0619  0.0370  0.0241
44958W        W88052  30.309  32.400  29.152  0.0169 -0.2052  0.0821
44959W        W88053  31.881  29.909  29.798  0.0441  0.1702 -0.1396
44960W        W88054  29.271  31.607  29.310 -0.0173 -0.0573 -0.2225
44961W        W88055  31.394  31.000  27.148  0.2157  0.4227  0.0537
44962W        W88056  29.124  30.691  29.411 -0.0462 -0.0662 -0.3550
44963W        W88057  32.965  29.555  30.025  0.0740  0.3022 -0.3465
44964W        W88058  32.121  31.766  27.344 -0.0932 -0.0192  0.0204
44965W        W88059  29.691  29.904  29.046  0.3299 -0.0461 -0.4331
44966W        W88060  30.995  30.151  29.371  0.0830 -0.1563 -0.2820
44967W        W88061  29.727  31.328  29.982  0.3891 -0.0988 -0.2585
44968W        W88062  30.802  31.681  31.226  0.3680  0.3706  0.2226
44969W        W88063  33.036  29.000  28.215 -0.0823  0.3887  0.0965
44970W        W88064  32.347  32.565  30.436  0.2071 -0.0626  0.4816
44971W        W88065  31.725  31.682  31.630 -0.1883  0.2781  0.0473
44972W        W88066  29.090  30.536  27.678  0.0804  0.0488 -0.2331
44973W        W88067  32.213  30.253  29.687  0.2944  0.2175 -0.1370
44974W        W88068  30.885  32.015  26.845  0.2680 -0.0143 -0.2678
44975W        W88069  30.479  30.798  28.529  0.2992 -0.0855 -0.0060
44976W        W88070  31.195  33.220  28.766 -0.3331  0.0286 -0.3018
44977W        W88071  29.908  31.394  27.686  0.5042  0.2212  0.0335
44978W        W88072  30.729  31.994  28.474  0.2238  0.0243  0.0307
44979W        W88073  31.181  30.437  30.811 -0.1107 -0.1620 -0.2442
44980W        W88074  32.263  31.377  30.662  0.2135  0.4116 -0.0046
44981W        W88075  31.858  30.061  29.314  0.2087 -0.0754 -0.1101
44982W        W88076  29.450  28.284  29.733 -0.4166 -0.3432  0.0337
44983W        W88077  31.092  29.163  28.737 -0.0337 -0.3002 -0.2517
44984W        W88078  32.417  31.136  30.204  0.0484 -0.1479  0.3104
44985W        W88079  30.078  29.068  29.004 -0.1486 -0.1338 -0.1004
44986W        W88080  31.328  31.391  30.928  0.1972 -0.0459 -0.0700
44987W        W88081  31.109  29.558  27.047 -0.2418 -0.0956  0.4401
44988W        W88082  31.922  32.991  29.760 -0.0586  0.1186  0.1390
44989W        W88083  31.435  30.785  29.439 -0.2997  0.1029  0.2814
44990W        W88084  29.714  31.713  28.030  0.1465 -0.1800  0.1366
44991W        W88085  29.882  30.855  30.277 -0.3465 -0.0168 -0.1161
44992W        W88086  31.014  30.987  28.147  0.0604 -0.0662 -0.0586
44993W        W88087  31.783  29.508  29.200  0.1128  0.0607 -0.1766
44994W        W88088  30.393  32.717  31.701  0.0365  0.2297 -0.1406
44995W        W88089  30.623  31.344  29.000 -0.0932  0.3549 -0.1711
44996W        W88090  29.595  30.877  29.860  0.0460 -0.0557 -0.1353
44997W        W88091  32.454  30.385  26.994  0.1942  0.2228 -0.2439
44998W        W88092  30.977  30.631  25.768  0.3384  0.0200  0.1512
44999W        W88093  30.039  29.509  27.991  0.0743  0.0825 -0.0533
45000W        W88094  34.168  30.234  31.013 -0.1359 -0.0896  0.1036
45001W        W88095  32.396  31.448  28.253 -0.0390 -0.0961 -0.1239
45002W        W88096  32.253  29.343  30.765  0.0257 -0.1095  0.2561
45003W        W88097  28.044  29.101  30.619  0.1351  0.0915  0.1059
45004W        W88098  31.214  31.882  28.230  0.0395 -0.1449 -0.3118
45005W        W88099  28.702  29.405  31.399  0.0943 -0.1368 -0.0954
45006W        W88100  31.156  33.243  30.483 -0.1512  0.2137  0.2855
45007W        W88101  29.987  30.517  30.636  0.1748 -0.0863  0.2005
45008W        W88102  30.735  29.948  28.700  0.0533  0.2903  0.0231
45009W        W88103  29.006  28.604  29.750  0.0473  0.1613 -0.0911
45010W        W88104  30.366  31.590  29.526 -0.0226 -0.1350  0.0716
45011W        W88105  31.659  30.771  30.025 -0.2534  0.3769 -0.2935
45012W        W88106  31.867  32.143  26.898 -0.0106  0.0432 -0.3110
45013W        W88107  32.415  30.282  29.220 -0.1564 -0.0333  0.1184
45014W        W88108  29.391  31.555  31.054  0.0784  0.0992 -0.3472
45015W        W88109  30.950  31.015  28.651  0.0510  0.2645 -0.1196
45016W        W88110  31.897  30.441  27.786 -0.0337 -0.1325  0.1687
45017W        W88111  30.327  30.219  28.184  0.0297  0.0461  0.3549
45018W        W88112  29.871  29.610  28.598  0.1449  0.0986 -0.0904
45019W        W88113  31.977  31.857  29.412  0.3336 -0.0974 -0.0641
45020W        W88114  31.749  30.077  28.855  0.2622  0.2059  0.0835
45021W        W88115  30.609  30.408  31.553 -0.1106  0.1557  0.0891
45022W        W88116  31.586  30.366  29.746 -0.5139  0.0363 -0.3144
45023W        W88117  30.197  30.948  30.767  0.0031 -0.2173  0.0474
45024W        W88118  29.728  29.436  31.025  0.0033  0.0117  0.2178
45025W        W88119  33.858  32.093  31.139  0.3050 -0.3402 -0.0516
45026W        W88120  33.206  31.044  27.734 -0.1447  0.0527 -0.3275
45027W        W88121  31.379  30.359  29.107 -0.1593 -0.3132 -0.1555
45028W        W88122  31.773  30.956  28.625  0.2638 -0.0068  0.0593
45029W        W88123  30.753  31.084  27.217 -0.0068 -0.0397 -0.1383
45030W        W88124  29.312  30.234  29.179  0.0733 -0.1467  0.1021
45031W        W88125  31.906  30.991  31.124 -0.1419  0.1160  0.2536
45032W        W88126  30.122  30.342  26.870  0.1526 -0.1137  0.3051
45033W        W88127  31.786  31.261  30.730 -0.0893  0.0201  0.0167
45034W        W88128  30.937  32.459  26.586 -0.0301 -0.2968 -0.2190
45035W        W88129  31.909  31.213  29.731 -0.0931 -0.0256  0.1337
45036W        W88130  30.434  29.756  28.250 -0.1111 -0.0769  0.0623
45037W        W88131  28.249  29.341  29.324  0.2761 -0.0977  0.1032
45038W        W88132  30.708  32.011  30.879  0.0154  0.0674  0.2635
45039W        W88133  29.477  30.699  27.335  0.0353 -0.3574 -0.1131
45040W        W88134  30.233  31.089  27.305 -0.0665 -0.1599 -0.2211
45041W        W88135  30.848  32.736  29.627  0.1153 -0.2024 -0.3277
45042W        W88136  31.352  32.820  30.757 -0.1075  0.0276 -0.2614
45043W        W88137  32.471  28.278  28.365 -0.0410  0.0673  0.0893
45044W        W88138  32.021  31.278  31.553 -0.2841  0.1028 -0.0121
45045W        W88139  29.746  32.243  27.887  0.0010 -0.3792 -0.0721
45046W        W88140  30.982  29.192  29.574 -0.0526 -0.1507 -0.4590
45047W        W88141  28.925  33.042  30.693 -0.1073 -0.4059  0.0434
45048W        W88142  30.537  32.928  29.315  0.1353 -0.3177  0.5102
45049W        W88143  31.113  32.337  28.562  0.1926  0.0907  0.1195
45050W        W88144  31.164  28.684  30.840 -0.1721  0.1939  0.1825
45051W        W88145  30.932  29.609  28.387 -0.0778 -0.0738 -0.0026
45052W        W88146  30.413  31.819  29.073  0.0615  0.2092  0.2450
45053W        W88147   0.345  30.473  30.883 -0.1658 -0.0920  0.0174
45054W        W88148  31.493  32.440  30.215 -0.0485 -0.1446 -0.1906
45055W        W88149  30.309  32.272  28.635 -0.1384 -0.1203  0.2201
45056W        W88150  32.219  33.403  29.764 -0.0311 -0.0346 -0.1499
45057W        W88151  32.457  31.408  28.794 -0.1262 -0.2072 -0.4273
45058W        W88152  30.131  32.894  30.396  0.0334 -0.0505 -0.0190
45059W        W88153  29.495  31.877  31.860 -0.0112 -0.2414 -0.1204
45060W        W88154  30.264  30.877   0.147 -0.0184  0.1265  0.3859
45061W        W88155  31.786  31.652  28.271 -0.3880  0.0831 -0.0287
45062W        W88156  28.875  29.723  28.204  0.0764 -0.0902 -0.0461
45063W        W88157  30.184  32.423  27.936 -0.2091  0.1696  0.1218
45064W        W88158  30.196  30.450  31.135 -0.1062 -0.1277 -0.1457
45065W        W88159  30.254  31.100  29.901  0.0343  0.1755  0.2110
45066W        W88160  30.209  32.747  28.777  0.0916 -0.1999 -0.0518
45067W        W88161  31.385  31.249  28.471 -0.1570 -0.1633  0.2999
45068W        W88162  31.180  31.429  27.998 -0.2206 -0.1771 -0.0112
45069W        W88163  31.634  34.244  28.635 -0.1923  0.1210  0.0382
45070W        W88164  29.803  30.917  27.754 -0.0473 -0.1985 -0.1396
45071W        W88165  30.057  32.061  29.486  0.3079  0.2923 -0.0264
45072W        W88166  28.329  32.159  28.174  0.0545  0.0734  0.1160
45073W        W88167  32.184  31.854  28.482 -0.0483 -0.0491 -0.1763
45074W        W88168  29.747  32.647  28.255  0.0785  0.0098 -0.3004
45075W        W88169  32.573  31.600  30.265  0.1698 -0.0093  0.0689
45076W        W88170  32.391  29.550  27.801 -0.0216  0.0393 -0.1646
45077W        W88171  32.526  29.709  28.278 -0.3215 -0.1280  0.0336
45078W        W88172  33.707  30.772  28.883 -0.2223 -0.5064  0.1543
45079W        W88173  30.914  33.049  31.639  0.1278 -0.0628  0.1953
45080W        W88174  30.527  30.034  27.785  0.3302 -0.0295 -0.1837
45081W        W88175  30.254  29.859  27.099  0.0031 -0.0051 -0.3182
45082W        W88176  30.123  30.679  29.752 -0.1983 -0.2843  0.0230
45083W        W88177  33.226  32.154  30.095  0.0420  0.0494 -0.0626
45084W        W88178  29.967  32.311  30.771 -0.2478  0.1764  0.0734
45085W        W88179  31.838  33.426  28.157 -0.1013 -0.0895 -0.0248
45086W        W88180  29.801  30.413  30.030  0.2469 -0.0426  0.0056
45087W        W88181  29.544  31.429  28.957  0.0309 -0.0986  0.0489
45088W        W88182  34.041  30.771  30.879 -0.2813  0.0976 -0.1908
45089W        W88183  29.853  31.629  27.262 -0.1234 -0.2378  0.0394
45090W        W88184  31.249  30.015  28.735 -0.0543 -0.0026 -0.1379
45091W        W88185  30.732  32.323  29.358 -0.1961  0.3290 -0.2095
45092W        W88186  29.855  32.604  29.220 -0.1650 -0.1559  0.1154
45093W        W88187  30.714  33.438  28.776  0.1613 -0.0170 -0.0263
45094W        W88188  29.910  29.298  27.556 -0.0495  0.2030 -0.1111
45095W        W88189  30.920  30.369  27.645  0.0054 -0.1977 -0.2716
45096W        W88190  31.848  31.093  29.233  0.0043  0.1968  0.3712
45097W        W88191  31.748  29.607  30.751 -0.0207  0.0835 -0.0688
45098W        W88192  30.132  31.460  28.164  0.0745  0.1559 -0.3132
45099W        W88193  31.273  31.036  29.816  0.0872  0.2852 -0.1809
45100W        W88194  30.747  31.694  30.093  0.0560 -0.2189 -0.0309
45101W        W88195  28.974  29.567  30.443 -0.0661 -0.3259 -0.2547
45102W        W88196  31.780  30.847  27.427  0.0313  0.5321 -0.1206
45103W        W88197  31.954  30.941  30.425  0.3346 -0.0737 -0.0241
45104W        W88198  29.348  31.295  26.545  0.1793  0.1443  0.1482
45105W        W88199  31.674  34.056  31.495  0.2996 -0.0361  0.4503
45106W        W88200  30.246  30.448  30.220  0.2017  0.1744  0.1448
45107W        W88201  31.881  30.022  28.234 -0.0233  0.2366 -0.0361
45108W        W88202  29.618  30.566  29.469  0.0650  0.0006 -0.1394
45109W        W88203  30.943  30.816  30.381 -0.0793  0.3159  0.0845
45110W        W88204  32.127  32.264  30.766  0.0263 -0.1191 -0.0508
45111W        W88205  28.528  28.878  29.880 -0.1430 -0.5354 -0.1993
45112W        W88206  31.954  32.486  28.608  0.1546  0.1077 -0.0926
45113W        W88207  32.255  29.976  28.922 -0.2112 -0.0430  0.4999
45114W        W88208  30.654  33.405  27.485  0.2474  0.4988 -0.0510
45115W        W88209  31.950  32.592  30.047 -0.1225 -0.0857 -0.0090
45116W        W88210  31.698  32.800  29.277 -0.2126  0.1893  0.4121
45117W        W88211  29.888  30.389  29.029 -0.2488  0.2588 -0.1809
45118W        W88212  32.396  34.334  29.345  0.0566  0.1931  0.3559
45119W        W88213  32.391  30.906  28.907  0.0842  0.1350  0.0245
45120W        W88214  30.882  29.164  28.275 -0.2395  0.0719  0.1777
45121W        W88215  29.921  30.142  28.588 -0.2156  0.0054  0.2975
45122W        W88216  29.314  31.091  27.624  0.0981 -0.1151  0.3205
45123W        W88217  32.362  30.423  30.243 -0.1179  0.2857 -0.1948
45124W        W88218  32.866  31.861  31.911 -0.1821  0.1251  0.2532
45125W        W88219  31.412  33.115  28.182 -0.1981 -0.2968 -0.2396
45126W        W88220  32.055  29.811  30.324  0.2978 -0.2129  0.3467
45127W        W88221  31.539  31.683  30.568 -0.2903  0.1728  0.0811
45128W        W88222  30.890  32.833  30.569  0.1095 -0.1157 -0.2653
45129W        W88223  29.348  31.833  26.212  0.1917  0.1054 -0.1980
45130W        W88224  31.483  31.436  29.438  0.1255 -0.3219 -0.0836
45131W        W88225  29.701  33.312  28.403 -0.3972 -0.1324  0.0108
45132W        W88226  29.713  32.947  28.718  0.0119  0.1047 -0.1417
45133W        W88227  32.062  31.091  28.206  0.1236  0.0249 -0.0021
45134W        W88228  30.019  30.545  27.941  0.0246  0.1252  0.0888
45135W        W88229  32.984  31.601  29.055  0.3121 -0.1727 -0.0678
45136W        W88230  30.415  30.615  29.346 -0.2695  0.2764 -0.0200
45137W        W88231  33.371  29.273  29.827 -0.1253 -0.0251  0.0285
45138W        W88232  31.373  29.832  29.194  0.0198 -0.1097  0.1166
45139W        W88233  29.919  31.008  31.168  0.1830  0.0543 -0.1801
45140W        W88234  29.813  31.350  26.701 -0.1517 -0.0989 -0.1528
45141W        W88235  30.194  30.742  24.835  0.4831 -0.1591 -0.0567
45142W        W88236  30.763  31.240  29.895  0.2864  0.2667  0.3166
45143W        W88237  31.125  29.501  31.461  0.2633  0.2664  0.3357
45144W        W88238  30.908  29.997  30.717  0.1652  0.2149 -0.2169
45145W        W88239  29.776  31.618  29.494 -0.0782 -0.2655  0.2338
45146W        W88240  29.953  29.322  26.651 -0.4311  0.1259  0.2581
45147W        W88241  31.440  31.597  27.553 -0.1207 -0.1243  0.1997
45148W        W88242  29.946  31.067  29.507  0.0523  0.1521  0.2330
45149W        W88243  28.537  29.956  29.755  0.1576  0.0525  0.0386
45150W        W88244  31.813  31.244  27.683  0.1997  0.1325  0.0075
45151W        W88245  32.188  31.416  29.296  0.0905  0.0484  0.3231
45152W        W88246  29.725  31.121  27.250  0.2394 -0.1712 -0.0621
45153W        W88247  32.038  31.806  30.724 -0.2338 -0.0026  0.0889
45154W        W88248  29.554  32.294  26.639 -0.2051 -0.0119  0.1157
45155W        W88249  31.456  30.844  31.015 -0.0790  0.0540  0.0208
45156W        W88250  29.864  30.053  30.939 -0.0650 -0.0909 -0.2539
45157W        W88251  30.589  31.261  28.354  0.2201  0.0814  0.1864
45158W        W88252  30.506  31.015  31.188  0.1325 -0.0541  0.0105
45159W        W88253  31.319  31.903  30.148 -0.0426 -0.2577 -0.2332
45160W        W88254  31.387  32.447  28.215  0.0672 -0.1800  0.3008
45161W        W88255  30.699  32.608  28.927 -0.2397 -0.0197 -0.0472
45162W        W88256  31.571  32.975  30.190 -0.0142 -0.0461 -0.1356
45163W        W88257  28.084  28.520  31.515 -0.0647  0.1036 -0.3345
45164W        W88258  31.860  30.545  28.360  0.0884 -0.0894 -0.2217
45165W        W88259  30.852  32.255  30.311  0.1804  0.3914 -0.2876
45166W        W88260  33.158  33.171  28.779 -0.1285  0.0596  0.0412
45167W        W88261  32.265  30.199  31.738  0.0911 -0.0889  0.1469
45168W        W88262  32.883  31.397  27.902 -0.2348 -0.1536 -0.0619
45169W        W88263  28.817  29.418  30.921 -0.0794 -0.1449 -0.0058
45170W        W88264  31.165  31.539  29.793 -0.1461 -0.1643  0.1479
45171W        W88265  33.091  30.406  29.547 -0.0742  0.2508 -0.1942
45172W        W88266  30.376  29.336  28.458 -0.1412 -0.0188 -0.0734
45173W        W88267  31.383  30.140  27.747 -0.0151  0.1412  0.3494
45174W        W88268  31.306  31.459  27.071 -0.0636  0.3202  0.1177
45175W        W88269  30.894  30.419  28.842  0.0473  0.2283  0.0837
45176W        W88270  28.974  30.684  27.178 -0.2020  0.2385 -0.1045
45177W        W88271  31.609  31.283  30.178  0.1088  0.2229  0.0222
45178W        W88272  31.328  31.967  29.374 -0.1288 -0.0801 -0.0203
45179W        W88273  31.132  31.400  30.281 -0.0368  0.1150  0.2310
45180W        W88274  31.157  31.724  26.139 -0.0708 -0.0387 -0.1869
45181W        W88275  33.759  31.795  28.090  0.1839 -0.2045 -0.1388
45182W        W88276  31.831  32.644  30.550  0.0644  0.2596  0.0560
45183W        W88277  32.363  32.262  28.760 -0.1842 -0.1652 -0.0123
45184W        W88278  32.536  33.729  30.836  0.1051 -0.0689  0.3519
45185W        W88279  32.857  31.435  28.412 -0.1146 -0.1133 -0.0157
45186W        W88280  30.129  29.559  31.314  0.0198 -0.0723 -0.2052
45187W        W88281  30.950  31.585  28.630  0.0159  0.1736 -0.0096
45188W        W88282  30.964  30.624  29.491  0.0011 -0.2986  0.1966
45189W        W88283  31.687  30.596  30.611  0.1073  0.1359  0.2128
45190W        W88284  28.925  30.026  30.116  0.0526 -0.1547 -0.0105
45191W        W88285  30.752  29.745  26.830  0.0701  0.0236  0.0755
45192W        W88286  30.469  31.096  29.436 -0.2956 -0.1271 -0.1070
45193W        W88287  30.063  31.308  30.416  0.1687 -0.1936  0.0026
45194W        W88288  31.484  30.311  31.839  0.1998 -0.2424 -0.1037
45195W        W88289  31.828  32.219   0.173  0.1339  0.3697 -0.4234
45196W        W88290  28.886  30.441   0.906  0.3022 -0.2642  0.0935
45197W        W88291  30.936  32.684  31.098 -0.0243  0.3242 -0.1035
45198W        W88292  30.753  33.315  29.684 -0.3154 -0.0565  0.0781
45199W        W88293  30.108  31.737   0.781  0.0194  0.4100  0.3853
45200W        W88294  31.526  31.202  31.520 -0.2749  0.2353  0.2191
45201W        W88295  31.212  29.968  31.143 -0.0829 -0.0275  0.0086
45202W        W88296  33.002  31.098  31.245  0.0113  0.1184  0.4248
45203W        W88297  33.966  33.744  31.467  0.1190 -0.0703  0.1245
45204W        W88298  32.107  31.319   2.956  0.0603  0.0783 -0.0523
45205W        W88299  30.698  29.700  31.126 -0.0700 -0.2976 -0.0051
45206W        W88300  32.991  31.797  30.456  0.0186 -0.0682 -0.1951
45207W        W88301  30.773  31.046  30.769 -0.3115 -0.2032  0.0659
45208W        W88302  32.308  31.440  31.205  0.0543 -0.2638 -0.1465
45209W        W88303  30.364  32.519  30.566  0.2902  0.0356  0.0304
45210W        W88304  30.326  31.527  31.283  0.2581 -0.2562 -0.0274
45211W        W88305  32.508  32.691  31.365 -0.0262  0.1244 -0.1463
45212W        W88306  29.385  28.662   1.744 -0.0235 -0.0364  0.2000
45213W        W88307  28.637  31.026  31.521 -0.1037  0.0810  0.2641
45214W        W88308  28.991  29.843  31.405 -0.2694 -0.1784  0.4129
45215W        W88309  29.844  30.428  31.970  0.0224 -0.1388  0.2447
45216W        W88310  32.248  30.102   0.274 -0.0214  0.0222 -0.0633
45217W        W88311  31.559  31.261   0.016 -0.0138 -0.2391 -0.2088
45218W        W88312  31.095  31.143  31.290  0.1960 -0.3032 -0.1353
45219W        W88313  30.795  30.205  31.171 -0.0957 -0.3933  0.1617
45220W        W88314  31.319  29.480  30.424  0.1029 -0.1293  0.0018
45221W        W88315  28.491  32.795  30.755 -0.2765 -0.3774  0.0628
45222W        W88316  31.344  31.035  29.034  0.0316 -0.1935  0.1790
45223W        W88317  32.335  31.689  31.645 -0.0568  0.1933 -0.0920
45224W        W88318  31.757  33.892  29.812 -0.0415  0.2127  0.1625
45225W        W88319  30.156  30.048  29.969 -0.1433 -0.0015 -0.4137
45226W        W88320  31.895  31.750   0.225  0.4180  0.1928  0.2022
45227W        W88321  31.478  29.862  31.608  0.3239  0.1217  0.1697
45228W        W88322  28.676  30.153  31.732  0.0589  0.1280  0.0365
45229W        W88323  30.655  30.750  29.900 -0.3751  0.1354 -0.0787
45230W        W88324  30.950  32.208  31.299 -0.4370 -0.0959 -0.0278
45231W        W88325  31.849  30.614   1.080  0.1167 -0.2869 -0.0859
45232W        W88326  32.398  28.796   0.234 -0.2625  0.0676 -0.1526
45233W        W88327  30.421  32.034  31.385 -0.0934  0.1031 -0.1821
45234W        W88328  32.493  30.965  31.249 -0.1205 -0.1329  0.2950
45235W        W88329  30.470  30.546   1.421  0.0756  0.3230 -0.1552
45236W        W88330  30.514  29.888   1.403  0.1425 -0.1118  0.1181
45237W        W88331  32.272  31.942  31.189 -0.1785  0.1635 -0.0378
45238W        W88332  29.676  29.776   0.075 -0.2408 -0.3313  0.1564
45239W        W88333  30.514  29.853   0.537  0.0782  0.2979 -0.1574
45240W        W88334  31.633  29.413   0.273 -0.1526  0.2404 -0.2710
45241W        W88335  31.520  32.177  30.676  0.0086  0.0414  0.0649
45242W        W88336  34.322  33.482  31.099  0.1385  0.0251 -0.1081
45243W        W88337  29.882  32.337  31.792  0.1586  0.3911 -0.0846
45244W        W88338  31.052  32.605  31.588 -0.0477 -0.0134 -0.0963
45245W        W88339  32.862  29.844  30.865 -0.3760 -0.1393  0.3499
45246W        W88340  31.939  30.910   0.016  0.1274 -0.1354 -0.0409
45247W        W88341  32.000  32.604  31.324  0.1563 -0.3273 -0.1107
45248W        W88342  30.947  29.979  31.609  0.3282 -0.1906  0.2201
45249W        W88343  31.786  32.108  31.168 -0.1756 -0.1939  0.3068
45250W        W88344  33.087  33.408   0.572  0.3245 -0.2542  0.0839
45251W        W88345  31.441  32.563  31.180 -0.0308 -0.3841 -0.4203
45252W        W88346  31.195  33.231  29.946  0.0537 -0.0968 -0.0493
45253W        W88347  30.277  29.387  30.358 -0.0512 -0.1563  0.0962
45254W        W88348  29.295  29.276  30.726  0.0109 -0.1683  0.0244
45255W        W88349  30.616  30.544  30.739  0.1537 -0.3083  0.2455
45256W        W88350  29.092  30.708   0.502 -0.6456 -0.0016 -0.2714
45257W        W88351  28.946  28.918  31.148 -0.1622 -0.0267 -0.0000
45258W        W88352  31.771  33.028  31.180  0.1447  0.1467  0.0078
45259W        W88353  32.947  32.884   1.222  0.0145 -0.1310 -0.2638
45260W        W88354  32.829  33.063   0.739 -0.0925  0.2320 -0.3524
45261W        W88355  29.885  32.798  17.769 -0.0792  0.1146  0.0529
45262W        W88356  33.109  33.919  16.858  0.0832  0.1910  0.0148
45263W        W88357  32.894   0.791  16.592 -0.1154  0.0165  0.1512
45264W        W88358  27.849  32.251  16.824  0.1081  0.0714  0.0319
45265W        W88359  29.343  33.641  17.906 -0.0950 -0.1271 -0.1936
45266W        W88360  31.826  34.595  16.051  0.2489 -0.3300  0.1659
45267W        W88361  30.701  32.731  20.068 -0.0019 -0.1929 -0.1278
45268W        W88362  30.600  33.481  17.675  0.1847  0.2471 -0.0960
45269W        W88363  30.344  32.624  21.051  0.1335  0.1140 -0.0362
45270W        W88364  32.250  33.657  18.288 -0.1878  0.3179  0.5131
45271W        W88365  29.325  33.939  17.377  0.0426  0.0558 -0.0850
45272W        W88366  30.825   0.094  17.871 -0.0890  0.0518 -0.0479
45273W        W88367  31.324  34.632  16.847 -0.2519 -0.0883  0.0284
45274W        W88368  31.431  34.404  19.105  0.1226 -0.0998 -0.0462
45275W        W88369  32.530  34.081  19.022  0.0118  0.0817  0.2857
45276W        W88370  30.308  34.133  16.318 -0.0076 -0.1092  0.0291
45277W        W88371  29.330  34.278  18.016  0.0457  0.2612 -0.0816
45278W        W88372  30.061   1.135  17.387 -0.1687  0.1062  0.0714
45279W        W88373  30.171  33.893  16.786  0.1113  0.1530 -0.0442
45280W        W88374  31.856  33.977  17.978 -0.2395  0.0208 -0.0866
45281W        W88375  31.756  34.400  20.098 -0.1453  0.3093  0.2789
45282W        W88376  29.666  34.398  20.411  0.0244  0.0832 -0.0236
45283W        W88377  30.597   0.435  16.161  0.2911 -0.1142 -0.0561
45284W        W88378  33.602  34.412  20.746  0.0693  0.1636 -0.3099
45285W        W88379  30.744  34.650  16.429  0.3098 -0.1484  0.1273
45286W        W88380  31.321   0.499  16.968  0.1648 -0.0313  0.3309
45287W        W88381  31.712  34.010  16.657 -0.0321 -0.1936 -0.2462
45288W        W88382  31.719  32.947  17.877 -0.0870  0.2348  0.0553
45289W        W88383  31.386  32.605  18.152 -0.1334 -0.1947 -0.1201
45290W        W88384  29.753  33.611  16.536  0.0782  0.0036  0.0196
45291W        W88385  30.275   0.171  19.103  0.0197  0.2466 -0.0346
45292W        W88386  30.127   0.853  18.542 -0.0688  0.2719 -0.0449
45293W        W88387  30.077  33.801  17.390  0.0376  0.0437 -0.1126
45294W        W88388  29.489   0.912  19.389 -0.3623 -0.0068 -0.1459
45295W        W88389  27.550   0.059  19.424  0.0064  0.1872 -0.3085
45296W        W88390  29.906  33.033  17.222  0.1483 -0.6127  0.2098
45297W        W88391  31.864  33.391  16.982 -0.1657 -0.0675  0.0612
45298W        W88392  31.545  33.611  18.260 -0.1341 -0.0412 -0.0688
45299W        W88393  31.509  32.627  18.606  0.2858 -0.0386  0.2352
45300W        W88394  31.985   0.193  16.565  0.2295  0.0096 -0.0092
45301W        W88395  31.079   0.679  21.509  0.0503  0.1789 -0.0209
45302W        W88396  30.219  34.040  19.561 -0.0022  0.1005  0.2203
45303W        W88397  32.935  33.293  16.632  0.0396  0.0566  0.1715
45304W        W88398  31.548   0.003  21.008 -0.2509  0.2531 -0.1822
45305W        W88399  31.648  32.206  18.300 -0.0020  0.1733 -0.1867
45306W        W88400  32.309   0.087  16.927 -0.0788  0.0066  0.0651
45307W        W88401  28.231  34.544  19.280 -0.1625  0.1148 -0.1247
45308W        W88402  29.726  33.565  19.263 -0.4507 -0.2292 -0.0257
45309W        W88403  31.265  34.221  20.029 -0.4199  0.0627  0.0242
45310W        W88404  28.074  32.709  18.233  0.0817  0.2695  0.2899
45311W        W88405  32.356  34.147  20.042 -0.0139 -0.0230  0.0789
45312W        W88406  28.837  32.529  17.093  0.0897 -0.1358 -0.3654
45313W        W88407  30.934   0.762  17.836 -0.1839 -0.0507  0.0778
45314W        W88408  30.587   1.116  16.504  0.1616 -0.0944  0.0739
45315W        W88409  31.954  34.548  19.388 -0.3646  0.1344  0.2379
45316W        W88410  30.701  33.718  19.291  0.0229  0.1487 -0.2758
45317W        W88411  31.583  33.830  17.169 -0.1038  0.0755  0.1809
45318W        W88412  30.431  33.125  18.618 -0.3423 -0.0605  0.1338
45319W        W88413  31.882  32.710  18.310 -0.0155  0.1928 -0.3759
45320W        W88414  31.444  33.680  17.743  0.0506  0.0415 -0.0092
45321W        W88415  30.328  33.550  16.497  0.0894 -0.3552  0.0357
45322W        W88416  29.302   0.049  17.791  0.1269 -0.2064  0.1258
45323W        W88417  32.205   0.342  17.905  0.1664 -0.1772  0.0672
45324W        W88418  26.903   0.966  19.203 -0.3074 -0.1592  0.0210
45325W        W88419  32.109  34.019  19.567  0.0324 -0.0884  0.0124
45326W        W88420  29.125  33.158  17.888  0.1036  0.0740 -0.0112
45327W        W88421  30.761  33.366  16.681 -0.4816  0.1051 -0.1064
45328W        W88422  32.525  34.141  16.301 -0.0535  0.2575 -0.1668
45329W        W88423  31.995  34.050  17.452 -0.2569 -0.2580  0.0637
45330W        W88424  30.775  33.008  17.658  0.1981  0.2259  0.1511
45331W        W88425  30.658  34.164  16.641  0.0441 -0.1211  0.1672
45332W        W88426  31.036  34.596  20.340  0.1998  0.2628  0.0775
45333W        W88427  30.925  33.711  18.033 -0.0234 -0.0642  0.1598
45334W        W88428  31.254  32.169  18.002 -0.1527 -0.2512 -0.2247
45335W        W88429  32.685  33.775  17.018  0.2525  0.1353  0.2614
45336W        W88430  30.654  34.086  18.249 -0.2208 -0.6028  0.0092
45337W        W88431  30.756  33.559  20.266  0.1029 -0.1262 -0.1734
45338W        W88432  31.686   1.052  20.350  0.0289 -0.2777  0.2206
45339W        W88433  32.033   0.993  17.111 -0.0889 -0.3510 -0.0300
45340W        W88434  31.135  33.386  18.437  0.0501  0.0857 -0.0522
45341W        W88435  29.757   0.401  15.915 -0.2340 -0.0648  0.2931
45342W        W88436  31.823  34.141  19.112 -0.1234  0.0296 -0.1643
45343W        W88437  31.735  33.928  20.108 -0.0348 -0.1846  0.0547
45344W        W88438  30.637  32.432  16.896 -0.0607  0.1826  0.0574
45345W        W88439  29.943  32.482  17.416 -0.4571  0.0192  0.1278
45346W        W88440  32.352  33.431  17.320  0.0036  0.1053 -0.1068
45347W        W88441  30.476   0.217  17.186 -0.0146 -0.0590 -0.1688
45348W        W88442  28.569  33.785  16.361  0.1540 -0.1607  0.2625
45349W        W88443  31.403  34.161  18.040 -0.1851 -0.2835  0.4013
45350W        W88444  29.119  32.877  18.308 -0.1204  0.1392  0.0125
45351W        W88445  31.668  33.090  17.406  0.0082  0.0233  0.0637
45352W        W88446  30.841  34.525  19.842  0.2632  0.0720 -0.0997
45353W        W88447  32.256  33.723  16.393 -0.3318 -0.4124  0.1036
45354W        W88448  30.931   0.663  20.918  0.0659 -0.2305 -0.4464
45355W        W88449  29.606  33.692  17.059 -0.2120 -0.1353  0.2330
45356W        W88450  34.208   0.170  18.161 -0.0962  0.0456 -0.0570
45357W        W88451  31.386  33.493  18.841 -0.1723 -0.2451 -0.1783
45358W        W88452  29.961   0.078  17.363  0.0428 -0.0331 -0.1871
45359W        W88453  30.310   0.940  20.252 -0.1595  0.0590  0.1830
45360W        W88454  31.258  33.346  19.276  0.0028  0.0600 -0.1642
45361W        W88455  30.829  32.332  17.678 -0.2600 -0.2775  0.2641
45362W        W88456  30.697   0.501  18.219  0.0580  0.0497  0.0674
45363W        W88457  31.639  34.231  19.625  0.2296  0.1489 -0.1763
45364W        W88458  31.690  32.655  19.767 -0.1721  0.3752  0.2649
45365W        W88459  31.439  34.359  20.548  0.0721  0.1118  0.0635
45366W        W88460  30.953  33.818  17.540 -0.0252  0.0992  0.1896
45367W        W88461  32.397  33.430  16.782 -0.0339 -0.0135  0.3844
45368W        W88462  30.961  34.257  17.815 -0.0458 -0.1234  0.1005
45369W        W88463  33.531  33.850  18.970 -0.0345 -0.0859  0.0010
45370W        W88464  32.773   0.148  16.995 -0.0334 -0.4645  0.0247
45371W        W88465  32.835  33.360  19.469 -0.0831  0.1302 -0.0102
45372W        W88466  30.605  32.254  19.401  0.2339 -0.2572 -0.1326
45373W        W88467  30.139   0.611  19.896 -0.0659 -0.0226 -0.2657
45374W        W88468  29.034   1.024  19.517  0.1014 -0.3834  0.1504
45375W        W88469  30.665  32.959  16.955  0.1849  0.0856  0.0304
45376W        W88470  29.672  32.842  18.522 -0.2056  0.0193 -0.0160
45377W        W88471  30.222   0.692  19.041  0.0826 -0.2564 -0.2863
45378W        W88472  32.265  33.761  17.806 -0.0061  0.1255  0.0614
45379W        W88473  30.444   1.251  18.404 -0.3920 -0.0382  0.4534
45380W        W88474  32.808   1.550  17.426 -0.1543  0.0023  0.2836
45381W        W88475  31.344  33.258  19.962  0.1959  0.3557 -0.1823
45382W        W88476  31.202  32.860  16.702 -0.1964  0.0006  0.1514
45383W        W88477  32.853   0.957  20.376 -0.1827  0.3013 -0.0295
45384W        W88478  31.399  33.897  19.156 -0.1185  0.1321  0.3027
45385W        W88479  31.127   1.313  20.109  0.3659  0.0245  0.1257
45386W        W88480  28.551  33.668  19.443 -0.1256 -0.0154  0.0040
45387W        W88481  32.173  34.390  16.631  0.0245  0.4472 -0.0940
45388W        W88482  32.134  32.163  18.159  0.0157  0.0106  0.0661
45389W        W88483  32.221   0.969  16.629 -0.0414 -0.3143 -0.0663
45390W        W88484  31.691  32.293  17.203 -0.0285 -0.2652  0.0018
45391W        W88485  28.504  32.991  18.126 -0.0425  0.0246 -0.1195
45392W        W88486  30.515   0.934  20.808  0.0738 -0.1805  0.3050
45393W        W88487  30.848   0.303  16.857  0.1531 -0.0608 -0.1770
45394W        W88488  32.203  32.716  18.989  0.2182  0.4610  0.0851
45395W        W88489  31.122  34.240  17.294 -0.2222  0.1055 -0.0164
45396W        W88490  28.891  33.543  18.241 -0.1844 -0.2797 -0.1551
45397W        W88491  30.078  34.268  17.528  0.0391  0.1230  0.0352
45398W        W88492  30.197   0.014  16.558 -0.3536 -0.0425 -0.3379
45399W        W88493  31.419  32.389  16.666  0.2826  0.1814  0.0990
45400W        W88494  32.045   0.409  19.248 -0.1766 -0.1772  0.0675
45401W        W88495  30.651  34.639  18.888  0.1412 -0.1940  0.2262
45402W        W88496  31.189  32.998  18.932 -0.1018  0.2991 -0.0493
45403W        W88497  31.639   0.701  19.479  0.3121  0.2200  0.1671
45404W        W88498  30.581  33.268  19.063 -0.2134 -0.1880 -0.4768
45405W        W88499  32.161  34.617  19.915 -0.0025 -0.0678  0.2699
45406W        W88500  29.002  33.979  17.787 -0.0002  0.0481  0.3131
45407W        W88501  29.515  34.320  18.802  0.1722  0.0340  0.0459
45408W        W88502  30.568  32.682  18.454 -0.1822 -0.1699 -0.0117
45409W        W88503  29.841  34.176  17.085 -0.0874  0.3180 -0.0414
45410W        W88504  32.748  33.728  16.523  0.0239 -0.1180 -0.0005
45411W        W88505  33.274  34.417  19.073 -0.0327  0.0625  0.0746
45412W        W88506  32.229  34.321  17.906 -0.1711 -0.0959  0.0701
45413W        W88507  30.194  33.516  19.443  0.1243  0.2743  0.2688
45414W        W88508  31.069  34.205  16.233  0.2936  0.0326  0.1764
45415W        W88509  30.408   0.360  19.536  0.3290  0.2246  0.0218
45416W        W88510  32.600  33.501  18.896 -0.0391 -0.3483 -0.0143
45417W        W88511  28.034  32.638  16.618  0.1605 -0.0918  0.1045
45418W        W88512  30.556  34.062  17.120  0.1539 -0.3949  0.1305
45419W        W88513  32.110  33.256  19.100  0.1954  0.2842  0.1174
45420W        W88514  30.959   0.736  17.217  0.2321  0.2415  0.0682
45421W        W88515  28.868  34.080  17.268 -0.1118 -0.3921 -0.2097
45422W        W88516  34.179  34.447  17.842  0.0924 -0.0075 -0.1653
45423W        W88517  29.978  34.032  19.061 -0.0593  0.5091 -0.0121
45424W        W88518  31.902  33.551  17.483  0.1364 -0.0727  0.0243
45425W        W88519  30.492  34.109  19.068 -0.0932  0.0063 -0.0486
45426W        W88520  31.215   0.384  17.587 -0.0779 -0.2705  0.0060
45427W        W88521  29.053  34.483  19.577  0.0117 -0.1669 -0.2395
45428W        W88522  30.889  33.772  16.414  0.0409 -0.0798 -0.0887
45429W        W88523  33.093   0.073  19.858 -0.1572 -0.3662  0.0950
45430W        W88524  31.882   2.033  17.384 -0.0283  0.0165  0.1302
45431W        W88525  30.519  33.984  17.679 -0.0499  0.0532 -0.0748
45432W        W88526  31.933  32.838  16.212 -0.0014 -0.1110 -0.1934
45433W        W88527  30.182  33.995  18.438 -0.1676  0.0194 -0.0620
45434W        W88528  29.613  33.810  18.813 -0.2281  0.3541  0.0716
45435W        W88529  29.126  33.445  17.460 -0.0597 -0.1519 -0.1718
45436W        W88530  31.098   0.085  19.156 -0.0973 -0.4009  0.5066
45437W        W88531  31.842  34.564  18.822  0.0717 -0.2749 -0.0333
45438W        W88532  30.706   0.180  21.181 -0.0928  0.2704 -0.3428
45439W        W88533  31.328  33.685  16.631 -0.0995 -0.0126  0.1315
45440W        W88534  30.344  33.680  18.812  0.2253 -0.0403  0.1562
45441W        W88535  33.878  34.410  17.155  0.0857  0.0727  0.1796
45442W        W88536  33.056  33.835  18.784 -0.3564  0.0815  0.2876
45443W        W88537  32.646  32.924  19.278 -0.1579 -0.3657  0.0917
45444W        W88538  30.206  34.603  19.528  0.1055  0.0540  0.0023
45445W        W88539  30.089  33.218  18.990  0.0941 -0.1300 -0.0962
45446W        W88540  31.036  33.097  16.302 -0.1761  0.2246  0.1019
45447W        W88541  32.135  33.111  17.606  0.1384  0.1770  0.3705
45448W        W88542  30.641  34.474  19.389 -0.1452 -0.0548  0.1124
45449W        W88543  30.241  34.404  16.947  0.0118  0.3864  0.2943
45450W        W88544  31.715  33.012  18.891  0.0676  0.0693 -0.0511
45451W        W88545  31.209   0.798  20.064 -0.0252 -0.1265 -0.2048
45452W        W88546  29.266   0.847  19.933 -0.1225  0.1232  0.5197
45453W        W88547  30.614  33.102  18.110  0.2594 -0.0366 -0.0505
45454W        W88548  30.697  32.811  18.930  0.1438  0.2058  0.0314
45455W        W88549  27.659  31.104  18.472  0.0285 -0.1077  0.1584
45456W        W88550  31.986  32.707  17.372 -0.2772  0.0512 -0.2437
45457W        W88551  31.259  33.705  20.163 -0.1546  0.3441 -0.1062
45458W        W88552  31.691  33.190  19.405 -0.0201  0.1242  0.1003
45459W        W88553  30.021  33.430  16.925  0.1957  0.3900 -0.1838
45460W        W88554  30.223  34.396  18.062  0.2466 -0.1233 -0.2070
45461W        W88555  29.560  33.170  19.985  0.2612  0.1973 -0.0886
45462W        W88556  31.327  33.281  17.010 -0.1943 -0.1911 -0.0041
45463W        W88557  30.284   0.101  17.772  0.0925 -0.2499  0.1231
45464W        W88558  30.316  32.311  20.189 -0.0654 -0.1587  0.0011
45465W        W88559  30.907  32.627  18.070 -0.4573  0.2953  0.0578
45466W        W88560  30.951  33.803  17.000 -0.1110  0.3330  0.3517
45467W        W88561  29.539   0.437  19.092 -0.0656 -0.2270  0.0344
45468W        W88562  31.158  34.145  16.712  0.2225 -0.1733 -0.0893
45469W        W88563  31.521  34.188  17.573 -0.0881 -0.2195 -0.0862
45470W        W88564  31.813  34.390  17.064 -0.1860  0.4066 -0.0429
45471W        W88565  31.829   0.658  16.782  0.0733  0.1078  0.2930
45472W        W88566  29.519  34.035  19.264 -0.0538  0.0346  0.3572
45473W        W88567  30.091   0.604  17.610  0.1037  0.0469  0.2616
45474W        W88568  29.240  34.016  18.492 -0.0041  0.2484 -0.1564
45475W        W88569  32.955   0.084  18.310 -0.2455 -0.2417  0.3984
45476W        W88570  29.519  33.374  18.360  0.2045 -0.0445 -0.0928
45477W        W88571  31.432  32.741  16.326  0.1921 -0.1884  0.1349
45478W        W88572  31.166   1.149  21.751  0.2585  0.0789  0.1435
45479W        W88573  32.444  34.173  20.533 -0.0562  0.1353 -0.4190
45480W        W88574  32.986   0.018  21.337 -0.2287 -0.2094  0.1621
45481W        W88575  29.429  32.804  20.781  0.2172  0.1131 -0.1500
45482W        W88576  30.106  33.503  23.089  0.5915  0.4287  0.1261
45483W        W88577  32.054   0.091  21.233  0.1173 -0.0642 -0.2052
45484W        W88578  29.396  33.967  23.162 -0.0492 -0.0035  0.0982
45485W        W88579  31.580  33.138  20.952  0.0008  0.0815  0.2834
45486W        W88580  29.000  32.598  21.685  0.0120 -0.2902  0.3135
45487W        W88581  31.947  34.399  22.874 -0.2343  0.2604 -0.1377
45488W        W88582  30.266  34.563  20.491  0.3373 -0.0020 -0.1941
45489W        W88583  30.181  34.635  22.595  0.0082  0.2719  0.0569
45490W        W88584  30.329   0.933  21.264 -0.2574 -0.2056  0.1104
45491W        W88585  30.614  33.860  24.506  0.2169 -0.1301  0.1738
45492W        W88586  31.193  34.282  23.444  0.0156  0.1007 -0.1311
45493W        W88587  29.077   0.634  20.321 -0.2532 -0.0730  0.0118
45494W        W88588  30.243  34.127  21.138 -0.0062  0.3621  0.0578
45495W        W88589  30.399  34.486  23.670  0.0256 -0.1679 -0.2317
45496W        W88590  32.369  32.798  21.149 -0.0453  0.0624 -0.1257
45497W        W88591  32.246  33.686  21.312  0.0174 -0.0966 -0.3589
45498W        W88592  31.962  33.750  23.722 -0.0480 -0.0847  0.2734
45499W        W88593  32.174  34.339  21.616 -0.0235  0.0321  0.0318
45500W        W88594  30.246   1.896  20.935 -0.1127  0.2978 -0.0735
45501W        W88595  32.405  34.141  24.639  0.2200 -0.3891 -0.1092
45502W        W88596  33.120   0.549  20.638  0.1174 -0.1867  0.1275
45503W        W88597  30.700  32.871  19.448 -0.1723 -0.0823  0.0152
45504W        W88598  31.945  34.319  20.566 -0.3149  0.1266 -0.0333
45505W        W88599  30.971  33.661  21.930 -0.2064 -0.0056  0.0944
45506W        W88600  30.258  33.306  21.658 -0.1095  0.2410  0.3302
45507W        W88601  30.196  34.370  21.659 -0.1479 -0.0918 -0.1308
45508W        W88602  32.654  34.028  21.982  0.1073  0.1336  0.0629
45509W        W88603  29.800   1.048  21.259  0.1545  0.1318 -0.1219
45510W        W88604  29.181  34.047  21.123 -0.1013  0.1650 -0.2959
45511W        W88605  29.371   0.480  22.339  0.2531  0.0483  0.2240
45512W        W88606  29.575   0.268  23.620  0.2871 -0.1180  0.2536
45513W        W88607  31.746  33.665  19.612 -0.2837 -0.0300  0.2502
45514W        W88608  33.254  32.228  21.584 -0.1649  0.0291 -0.0101
45515W        W88609  32.731  31.830  22.884  0.0944 -0.1177 -0.2896
45516W        W88610  32.579  32.916  22.911  0.1346  0.1675 -0.1530
45517W        W88611  33.731   1.140  20.618  0.0895 -0.0843  0.2006
45518W        W88612  31.310  34.025  23.864  0.2530 -0.0945  0.1040
45519W        W88613  28.967  33.034  21.925  0.1942 -0.0538 -0.0422
45520W        W88614  30.505  32.579  22.700  0.0897  0.0914  0.1957
45521W        W88615  29.400  33.302  22.198  0.1086 -0.0550 -0.2141
45522W        W88616  32.572  32.907  22.011 -0.0014 -0.2207 -0.1907
45523W        W88617  33.008   1.016  20.804  0.1695  0.0386 -0.3679
45524W        W88618  29.521   0.738  21.909 -0.3610  0.3052  0.0340
45525W        W88619  29.815   0.357  21.967 -0.0136  0.1825 -0.1155
45526W        W88620  30.353  33.511  22.640 -0.0421 -0.1129 -0.1799
45527W        W88621  29.136  33.975  21.631  0.0164  0.0661 -0.1462
45528W        W88622  31.473  33.664  22.964  0.1204 -0.1361 -0.0907
45529W        W88623  28.745  34.294  20.010 -0.0127  0.0717 -0.0728
45530W        W88624  33.239  32.680  20.700 -0.0469  0.1505  0.0454
45531W        W88625  30.489   1.425  21.234 -0.1513 -0.3488  0.2944
45532W        W88626  32.196  31.797  22.748 -0.1390  0.1626  0.2640
45533W        W88627  28.987  34.101  22.284  0.1108  0.0382 -0.0337
45534W        W88628  28.599  33.780  20.401  0.1443  0.1128  0.2186
45535W        W88629  31.228  33.955  21.114  0.1517  0.0648  0.2299
45536W        W88630  32.023  34.200  23.445  0.1950  0.2847  0.1465
45537W        W88631  31.862  33.504  22.537  0.1934 -0.0828 -0.1122
45538W        W88632  30.144  34.272  20.020  0.0239  0.2653  0.2821
45539W        W88633  29.471  34.240  22.194  0.0089 -0.0120  0.0737
45540W        W88634  32.091  32.269  22.576 -0.1499 -0.0462  0.2010
45541W        W88635  29.506   0.209  24.666 -0.0601 -0.0025 -0.1385
45542W        W88636  30.616   0.564  23.325 -0.0730 -0.1246 -0.2638
45543W        W88637  29.688  33.223  20.792  0.0396 -0.0752  0.3569
45544W        W88638  33.611  31.722  21.511 -0.0889  0.1028 -0.2002
45545W        W88639  32.915  33.016  19.810 -0.1067  0.0587 -0.0378
45546W        W88640  31.271  34.629  19.639 -0.2183  0.3468  0.1409
45547W        W88641  32.200  33.772  20.365 -0.3240 -0.1582  0.0958
45548W        W88642  31.348   0.452  19.741  0.1227 -0.1096 -0.0312
45549W        W88643  31.278  33.312  23.245 -0.0154 -0.0253 -0.0632
45550W        W88644  31.988  33.268  21.172 -0.4372  0.0191 -0.2042
45551W        W88645  32.362  33.270  21.610  0.0445 -0.2663 -0.0014
45552W        W88646  32.835  33.131  21.499  0.2247 -0.3735 -0.1559
45553W        W88647  32.840  33.089  22.390 -0.2460  0.0122  0.3736
45554W        W88648  30.403  34.252  22.387 -0.0661 -0.0766 -0.1373
45555W        W88649  33.053  34.600  24.548 -0.0738 -0.0188  0.0495
45556W        W88650  32.599  33.811  20.934  0.0924  0.3310 -0.2021
45557W        W88651  29.993  34.077  23.061 -0.1562 -0.2132  0.0507
45558W        W88652  29.934   0.351  18.730  0.1230 -0.1484 -0.0323
45559W        W88653  31.925  34.294  22.424  0.0194  0.3549  0.1616
45560W        W88654  31.282  33.582  23.709 -0.1606 -0.0571  0.0412
45561W        W88655  32.181  33.474  20.706 -0.4283  0.0047 -0.0149
45562W        W88656  29.424  34.536  21.455 -0.1767 -0.1104  0.1149
45563W        W88657  32.551  31.444  22.025  0.1643  0.1039  0.0272
45564W        W88658  29.558  34.077  20.836 -0.1246 -0.1226  0.1071
45565W        W88659  27.861  34.122  19.748  0.0119  0.0806  0.2550
45566W        W88660  33.183  32.403  21.162  0.0315  0.1199  0.1085
45567W        W88661  29.664  34.274  22.704 -0.0800  0.0357 -0.1252
45568W        W88662  33.441  33.156  20.402 -0.3690  0.0819 -0.0045
45569W        W88663  31.507  34.673  22.709 -0.0992  0.0808  0.3548
45570W        W88664  32.555  33.289  21.046  0.3239 -0.1172 -0.2181
45571W        W88665  31.861   0.373  23.661  0.0113 -0.2385  0.3613
45572W        W88666  29.886  34.586  19.034 -0.0137  0.0909  0.1144
45573W        W88667  33.739  34.287  21.744  0.2879 -0.0184  0.1965
45574W        W88668  30.191  34.622  22.096  0.0453  0.0127 -0.0056
45575W        W88669  30.334   0.465  20.992  0.2476 -0.0849 -0.2752
45576W        W88670  29.038   0.186  23.851  0.3322  0.0823 -0.2127
45577W        W88671  30.451  33.959  22.912 -0.2031  0.0459  0.3340
45578W        W88672  31.773  34.259  21.863 -0.3116  0.2654 -0.2005
45579W        W88673  29.749   0.800  22.326 -0.2845  0.1672 -0.0053
45580W        W88674  30.842  33.987  23.728 -0.1102  0.0330 -0.0060
45581W        W88675  31.643  33.128  22.288  0.1949 -0.2180 -0.1277
45582W        W88676  31.046  34.512  22.467 -0.0715  0.1258 -0.1649
45583W        W88677  30.428  33.629  23.876  0.0199  0.0544  0.0213
45584W        W88678  31.710  31.913  20.404  0.0660  0.1635 -0.1356
45585W        W88679  31.687  34.223  21.033 -0.0818 -0.1532  0.1564
45586W        W88680  33.147  33.069  23.567  0.0290 -0.0952  0.0093
45587W        W88681  31.705   0.633  20.102  0.1282 -0.2838  0.0033
45588W        W88682  31.580  32.616  22.660 -0.0026  0.0297  0.1910
45589W        W88683  29.338  33.769  22.040  0.3095  0.0199  0.2826
45590W        W88684  29.123   0.118  23.237 -0.1723  0.0748 -0.5751
45591W        W88685  30.005   0.449  24.995 -0.1761 -0.0034 -0.0713
45592W        W88686  31.451  34.375  21.515  0.1731 -0.2404  0.3763
45593W        W88687  30.286  31.640  21.176 -0.0765 -0.0748  0.1576
45594W        W88688  31.038  34.571  21.955 -0.1829 -0.2314 -0.1144
45595W        W88689  33.007  33.674  22.158  0.0686 -0.1046  0.1327
45596W        W88690  29.139   2.064  21.854 -0.0034 -0.2353  0.1451
45597W        W88691  31.416  33.867  21.570 -0.0449 -0.0832 -0.2613
45598W        W88692  32.348  33.828  22.865 -0.1990  0.1807 -0.1695
45599W        W88693  32.288  34.625  20.391  0.2687 -0.3853  0.1430
45600W        W88694  31.390  34.121  22.543  0.1866 -0.0556  0.0982
45601W        W88695  30.169   0.480  22.429 -0.1546 -0.1206 -0.3711
45602W        W88696  30.986   0.733  24.297  0.1662 -0.3393 -0.0440
45603W        W88697  29.089  32.593  23.816  0.0675  0.1309  0.1544
45604W        W88698  33.427  34.476  21.239  0.3453 -0.1603  0.1307
45605W        W88699  33.006  33.633  22.624 -0.2531 -0.1427 -0.1988
45606W        W88700  32.418  34.428  21.120 -0.3747 -0.2800  0.1924
45607W        W88701  31.245   1.065  21.140 -0.5257  0.3964 -0.2012
45608W        W88702  29.888  34.444  20.911 -0.1242 -0.0225  0.0197
45609W        W88703  31.817  33.924  22.763  0.0920 -0.3421 -0.1147
45610W        W88704  29.880  33.575  19.842 -0.4969  0.1378  0.0480
45611W        W88705  32.359  33.463  23.476 -0.1894  0.0023  0.1486
45612W        W88706  31.501  33.002  20.377  0.2481 -0.0164 -0.2817
45613W        W88707  29.502  33.455  20.354  0.3693  0.0827  0.0377
45614W        W88708  30.194   0.359  20.392 -0.1657 -0.0794 -0.1683
45615W        W88709  29.427  33.761  19.697  0.0184  0.3575  0.1300
45616W        W88710  29.803  32.945  20.376  0.1262 -0.3160  0.0883
45617W        W88711  33.090  33.112  22.854 -0.1567  0.1614  0.1598
45618W        W88712  32.688  33.961  22.500 -0.1156 -0.0616  0.0596
45619W        W88713  30.885  34.014  22.284 -0.0098  0.1457 -0.0623
45620W        W88714  32.776   0.320  21.734  0.2025 -0.0108  0.1059
45621W        W88715  31.052   0.052  21.496  0.0965  0.0037 -0.4203
45622W        W88716  32.311  34.458  22.111  0.1520  0.1536  0.3799
45623W        W88717  30.611  34.504  22.782 -0.1632 -0.1220 -0.0649
45624W        W88718  28.087  33.061  21.637 -0.3114  0.1682  0.1861
45625W        W88719  30.204  32.715  20.492  0.0220 -0.1143  0.1221
45626W        W88720  32.618   0.466  20.399 -0.1735  0.5463 -0.1383
45627W        W88721  32.658  32.909  18.754  0.2247 -0.2243 -0.0354
45628W        W88722  32.654  34.083  21.437 -0.3301 -0.0412 -0.1598
45629W        W88723  32.965  34.305  19.742 -0.0888 -0.0105  0.0083
45630W        W88724  29.633  34.088  21.649 -0.0390  0.0640 -0.0400
45631W        W88725  31.003   0.313  20.066  0.0481  0.4148  0.2668
45632W        W88726  29.778  34.546  21.856  0.0910 -0.1294  0.3018
45633W        W88727  32.223  34.515  24.994  0.0416  0.1803 -0.1837
45634W        W88728  30.170  32.921  22.581 -0.2258 -0.2265  0.0057
45635W        W88729  30.131   0.063  21.197 -0.4510 -0.1387 -0.0501
45636W        W88730  32.982  32.542  22.449  0.0326 -0.0790 -0.1013
45637W        W88731  33.120  34.011  21.438 -0.0115 -0.0045  0.0964
45638W        W88732  30.510  33.152  20.339  0.1192 -0.0445  0.1636
45639W        W88733  34.289  34.327  22.069  0.0163 -0.2381 -0.0291
45640W        W88734  30.232  34.469  23.201  0.1515 -0.2760  0.1677
45641W        W88735  33.071  32.076  22.609  0.0464  0.3111  0.1282
45642W        W88736  29.852   0.485  21.124 -0.0996  0.2812 -0.1229
45643W        W88737  33.580  33.456  21.007 -0.1602 -0.2298 -0.3056
45644W        W88738  29.041  34.396  21.843  0.0304 -0.0064  0.1156
45645W        W88739  30.467   0.162  20.076 -0.0702  0.0567 -0.0545
45646W        W88740  32.744   0.324  24.308 -0.2230  0.2568 -0.0294
45647W        W88741  31.861   0.163  20.449 -0.2270 -0.2129  0.0482
45648W        W88742  30.784  33.111  21.822 -0.0658 -0.1933  0.1087
45649W        W88743  32.770  34.560  21.813 -0.0379 -0.0751 -0.0110
45650W        W88744  30.056   0.690  21.579  0.3422 -0.1980 -0.0266
45651W        W88745  29.759  33.266  23.854  0.1975  0.1573  0.0029
45652W        W88746  30.979  31.883  23.210 -0.2600  0.0087 -0.0629
45653W        W88747  33.207  33.081  21.985  0.0118  0.1841 -0.0103
45654W        W88748  32.086   0.485  21.596  0.2210 -0.1818 -0.1027
45655W        W88749  29.962  32.869  21.603 -0.0187 -0.1066 -0.2015
45656W        W88750  32.123  33.957  20.895  0.1661  0.0948 -0.1000
45657W        W88751  30.045  33.743  21.664 -0.4412 -0.0795 -0.1966
45658W        W88752  33.209  34.051  22.493  0.2582 -0.0932  0.2079
45659W        W88753  33.080  34.209  21.913  0.4077  0.0228  0.1025
45660W        W88754  32.736  32.592  23.689  0.0626 -0.0938  0.1954
45661W        W88755  31.686  33.880  22.223 -0.1526  0.0389 -0.0781
45662W        W88756  31.941   0.071  21.871  0.0968 -0.3857  0.2284
45663W        W88757  32.713  31.633  20.968 -0.0304  0.1529 -0.1158
45664W        W88758  32.474  34.283  19.516  0.0518 -0.2344  0.0953
45665W        W88759  31.395  33.877  24.404  0.3647 -0.1192 -0.2768
45666W        W88760  29.623  33.918  20.309  0.1921  0.1160  0.1385
45667W        W88761  32.698  33.757  24.463 -0.0695  0.4129 -0.0659
45668W        W88762  29.388  34.553  24.026 -0.1179 -0.0521  0.0517
45669W        W88763  30.164   0.881  22.110  0.0491 -0.1571 -0.0881
45670W        W88764  30.075  33.151  21.167  0.1651  0.1633  0.2413
45671W        W88765  30.652   0.086  20.684 -0.1814  0.3571  0.0040
45672W        W88766  29.405  33.208  21.202  0.0225 -0.0394 -0.3069
45673W        W88767  30.575  34.342  20.781  0.1510 -0.1598 -0.2220
45674W        W88768  31.527  34.253  23.044 -0.2200 -0.0809  0.0517
45675W        W88769  30.831  32.752  22.205 -0.4425  0.0691  0.0275
45676W        W88770  29.339   0.008  20.237  0.3190 -0.0677 -0.5225
45677W        W88771  32.261  33.751  21.793  0.1437 -0.0469  0.2048
45678W        W88772  28.577  33.474  22.858  0.3172  0.1305  0.0534
45679W        W88773  32.673  32.651  21.561 -0.1174  0.0070 -0.0080
45680W        W88774  31.889  33.991  21.409 -0.0101 -0.0756 -0.1403
45681W        W88775  30.954  34.147  22.784 -0.0664  0.2042 -0.1779
45682W        W88776  30.923  33.615  21.421 -0.0974 -0.1031 -0.1516
45683W        W88777  33.088  33.560  21.225  0.0634 -0.0540 -0.4869
45684W        W88778  29.733   0.383  22.688 -0.2910  0.0607 -0.2002
45685W        W88779  32.719  33.635  21.656 -0.2593 -0.3101  0.0085
45686W        W88780  31.564  34.677  23.263 -0.4371  0.1659 -0.2823
45687W        W88781  30.210   1.235  21.651 -0.3670  0.1082 -0.2002
45688W        W88782   0.113   0.234  20.974  0.1539  0.0143  0.0228
45689W        W88783  29.703  31.997  21.556  0.2691 -0.2988 -0.1744
45690W        W88784  30.016  33.480  20.302 -0.0497  0.0743  0.2320
45691W        W88785  29.576   1.214  21.730 -0.2021 -0.2375 -0.0154
45692W        W88786  31.475  34.488  22.206  0.0203 -0.1488 -0.0054
45693W        W88787  31.286   0.450  20.455  0.2344  0.1609  0.0839
45694W        W88788  31.823  33.438  20.324  0.0820  0.1882 -0.2897
45695W        W88789  31.009  34.188  24.274  0.0493  0.1888 -0.0548
45696W        W88790  32.822  34.301  24.857 -0.2522  0.0498  0.0266
45697W        W88791  32.275   0.266  24.720 -0.0120  0.3716  0.1628
45698W        W88792  28.324  34.564  25.206  0.0292 -0.0221 -0.2363
45699W        W88793  30.269   0.093  26.837 -0.4422 -0.5009 -0.1567
45700W        W88794  32.336   1.096  23.244 -0.0144  0.1752 -0.2983
45701W        W88795  29.488  33.980  26.659  0.0627 -0.0046  0.0660
45702W        W88796  29.982  33.817  24.635  0.0437 -0.0914  0.1627
45703W        W88797  29.044  33.495  25.927 -0.1127 -0.0799  0.2469
45704W        W88798  31.078   0.296  26.744  0.1100 -0.0603  0.2361
45705W        W88799  28.867  34.069  24.910  0.0490 -0.1119 -0.1263
45706W        W88800  30.971  33.787  26.332  0.0256 -0.0529 -0.1631
45707W        W88801  31.351  34.386  24.657  0.1860 -0.2431 -0.0214
45708W        W88802  30.184  33.608  27.016 -0.1304 -0.1178  0.3262
45709W        W88803  31.234   0.750  26.746  0.2761 -0.1413 -0.0328
45710W        W88804  30.441   0.815  23.737  0.1310 -0.1295  0.3368
45711W        W88805  28.845   0.192  26.067  0.0403 -0.2846 -0.3058
45712W        W88806  29.668   1.379  26.297  0.1305 -0.0946  0.0958
45713W        W88807  31.699  34.036  25.534  0.1574  0.1313  0.1584
45714W        W88808  32.185   1.517  24.937 -0.1808  0.0109 -0.0557
45715W        W88809  32.867  33.753  28.350 -0.0462  0.1357  0.1211
45716W        W88810  32.126   0.465  26.644  0.3390 -0.0907 -0.2906
45717W        W88811  31.314   1.063  24.978  0.3259 -0.3896 -0.2765
45718W        W88812  33.118  33.307  28.236 -0.1576  0.1435 -0.1188
45719W        W88813  31.527   0.656  23.292  0.2160 -0.4108 -0.1994
45720W        W88814  31.495   0.771  24.494 -0.1108  0.1509  0.1376
45721W        W88815  31.642  33.476  24.114  0.2603 -0.0591 -0.2852
45722W        W88816  30.556  34.378  25.480 -0.1638 -0.0822  0.2936
45723W        W88817  30.692  33.922  27.698  0.1644 -0.0074 -0.0078
45724W        W88818  31.320   1.912  25.262  0.4370 -0.1195  0.2086
45725W        W88819  31.508  33.790  26.424 -0.1274  0.3392  0.1699
45726W        W88820  29.668  34.488  24.467 -0.2625 -0.0429 -0.1030
45727W        W88821  29.201   1.172  25.517 -0.0336 -0.1116 -0.2269
45728W        W88822  30.506   2.321  26.643  0.1210  0.2263  0.0287
45729W        W88823  28.912  34.112  27.272 -0.0112 -0.2956 -0.1545
45730W        W88824  30.553  32.683  24.380 -0.1055  0.0206  0.0544
45731W        W88825  32.421  34.195  26.319  0.0417  0.1593 -0.3095
45732W        W88826  31.275  32.219  25.745 -0.0291 -0.2181 -0.0888
45733W        W88827  31.463  33.034  27.284 -0.5055  0.1550 -0.1418
45734W        W88828  32.537   0.267  23.475 -0.3123  0.3320  0.1772
45735W        W88829  30.726   0.211  26.329 -0.1015  0.4042 -0.1571
45736W        W88830  28.341  33.373  27.489 -0.4107 -0.2958  0.0409
45737W        W88831  31.861   0.132  25.298 -0.0073 -0.0260  0.1747
45738W        W88832  30.109  33.388  26.374  0.2469  0.2548 -0.1408
45739W        W88833  33.657  34.025  24.421 -0.0319 -0.0426  0.0384
45740W        W88834  32.561   0.773  23.616 -0.2557  0.0643  0.1144
45741W        W88835  28.554  34.207  26.854 -0.3223  0.1018  0.0902
45742W        W88836  30.165  34.256  26.105  0.2317  0.0534  0.0925
45743W        W88837  29.300  34.327  26.169 -0.1292  0.1134  0.2778
45744W        W88838  28.742  33.673  26.710  0.0438  0.1201 -0.0560
45745W        W88839  31.821  34.295  27.552  0.1546  0.1284 -0.0561
45746W        W88840  29.868  33.161  24.859 -0.2755  0.0383  0.1011
45747W        W88841  31.440  34.543  25.492  0.0593  0.2233 -0.2097
45748W        W88842  30.113  34.251  24.464  0.0395 -0.0246  0.1446
45749W        W88843  32.236  33.622  26.277 -0.1327  0.1258  0.0343
45750W        W88844  29.614  33.923  26.125 -0.0516 -0.5291  0.0067
45751W        W88845  30.633  34.424  24.445  0.0716  0.2066 -0.2657
45752W        W88846  30.627  33.428  23.083  0.0535 -0.4290 -0.0470
45753W        W88847  30.502  33.946  27.150  0.2040  0.0619 -0.3718
45754W        W88848  31.623   0.140  25.944 -0.0078  0.2570 -0.3933
45755W        W88849  28.805  33.413  23.912 -0.0728  0.4206 -0.2262
45756W        W88850  28.328   0.364  24.348  0.1560  0.0278  0.0732
45757W        W88851  31.173  33.370  26.429  0.0691  0.1520  0.1595
45758W        W88852  28.789  33.031  28.266  0.4163  0.2635 -0.1409
45759W        W88853  31.036   0.579  26.318 -0.0398 -0.0337  0.5235
45760W        W88854  28.639  34.687  24.628 -0.1978 -0.2407  0.0406
45761W        W88855  31.560  32.854  25.867 -0.1259  0.1707 -0.1335
45762W        W88856  33.403  34.286  25.149  0.0692 -0.0347  0.0356
45763W        W88857  32.194  33.773  24.281  0.1588  0.5556 -0.0576
45764W        W88858  33.166  33.794  25.079 -0.2248  0.1357 -0.0024
45765W        W88859  31.589  32.830  23.172  0.1570  0.3173  0.2786
45766W        W88860  30.978  32.846  27.363 -0.1599  0.0423  0.0362
45767W        W88861  29.553  33.612  24.444  0.0744  0.1007 -0.0236
45768W        W88862  31.956  33.437  25.614 -0.0976 -0.2555  0.2902
45769W        W88863  31.751  34.204  26.663  0.0193 -0.0932  0.2142
45770W        W88864  32.185  33.902  25.605  0.1538  0.1026  0.2011
45771W        W88865  30.576  33.131  28.152  0.1843 -0.2046  0.2605
45772W        W88866  33.711  34.231  26.022  0.1213 -0.0606  0.0266
45773W        W88867  32.012  34.567  23.869 -0.1109 -0.0908  0.0880
45774W        W88868  32.334   0.301  25.222 -0.0246 -0.2409 -0.0709
45775W        W88869  31.075  33.670  24.738 -0.1390 -0.2306  0.0438
45776W        W88870  30.216  33.806  27.532 -0.0504 -0.3392 -0.2184
45777W        W88871  30.974  33.270  27.074 -0.3394  0.3289 -0.1513
45778W        W88872  29.752  33.124  24.331  0.0509  0.0664  0.1413
45779W        W88873  31.125   0.646  24.775  0.1317  0.0839 -0.1407
45780W        W88874  30.655  34.011  26.651 -0.2795  0.5512 -0.1086
45781W        W88875  29.196  33.686  24.805 -0.0916  0.1982 -0.4789
45782W        W88876  28.320  34.232  24.718 -0.3328  0.0627 -0.1104
45783W        W88877  32.861  33.373  24.843  0.2314  0.0471 -0.2400
45784W        W88878  30.912  34.515  26.734 -0.1362  0.0488 -0.2908
45785W        W88879  30.638  33.550  25.796  0.1441 -0.0179  0.2945
45786W        W88880  31.575  34.076  27.125  0.1157  0.1177  0.1351
45787W        W88881  32.612   0.630  24.732  0.2340  0.2340  0.0621
45788W        W88882  32.250  34.550  27.528 -0.0287  0.1387  0.0185
45789W        W88883  29.543  32.803  24.023 -0.3736 -0.3824 -0.1855
45790W        W88884  32.601  34.515  27.151  0.0327  0.1319  0.0913
45791W        W88885  30.968  34.320  25.199  0.0993 -0.2038  0.1540
45792W        W88886  31.234  33.360  24.389 -0.0941  0.2660  0.1040
45793W        W88887  31.247  34.022  27.540 -0.2245  0.3566 -0.0204
45794W        W88888  31.178  33.755  26.820 -0.2916  0.1194 -0.5782
45795W        W88889  30.405  33.707  24.924  0.0506 -0.1086 -0.1024
45796W        W88890  31.242  34.202  26.531 -0.3146 -0.0103  0.0786
45797W        W88891  32.339  34.198  26.829  0.0975 -0.0084  0.2683
45798W        W88892  30.525  32.687  25.792  0.2069 -0.0262 -0.2348
45799W        W88893  33.447   0.478  26.130 -0.0386 -0.3469 -0.1113
45800W        W88894  31.491  33.351  26.837  0.1280 -0.1098  0.3681
45801W        W88895  31.977  32.798  25.044  0.1868 -0.1359  0.1005
45802W        W88896  31.119   0.206  26.028 -0.1109  0.2762  0.1911
45803W        W88897  31.668  33.465  26.092 -0.1099 -0.0192  0.1358
45804W        W88898  32.173   0.848  25.060 -0.0701  0.1707 -0.2282
45805W        W88899  32.821   0.456  26.914  0.0707  0.2375  0.1006
45806W        W88900  30.709  33.427  26.707  0.1391  0.0182  0.0390
45807W        W88901  28.549   0.085  25.672 -0.3102  0.0938 -0.0148
45808W        W88902  29.351   0.324  27.767  0.0431 -0.0140 -0.4631
45809W        W88903  31.348   0.353  25.568 -0.1426  0.2657 -0.0965
45810W        W88904  29.660  34.106  24.056 -0.1179  0.2960 -0.1799
45811W        W88905  29.391   1.055  27.849  0.4441  0.1247  0.3044
45812W        W88906  32.561  33.658  23.946 -0.1427 -0.4476 -0.0788
45813W        W88907  30.365   0.672  26.043  0.0831  0.1414 -0.2025
45814W        W88908  31.544   1.199  25.797 -0.0964  0.3357 -0.2331
45815W        W88909  31.032  34.150  27.076 -0.1424  0.0340  0.3107
45816W        W88910  32.504   0.246  25.723  0.3307 -0.3802  0.0609
45817W        W88911  31.354  33.570  27.295 -0.0496 -0.3344 -0.1848
45818W        W88912  32.594  33.821  26.683  0.1393 -0.0892 -0.1104
45819W        W88913  30.889   0.646  27.083  0.0596 -0.0351  0.0382
45820W        W88914  30.572  34.262  28.070 -0.2274 -0.1358  0.1585
45821W        W88915  30.808   0.031  24.853 -0.0966 -0.2282  0.1084
45822W        W88916  32.790  34.026  27.145 -0.2885 -0.0883  0.2664
45823W        W88917  32.760   1.572  24.934 -0.0807 -0.1478 -0.1480
45824W        W88918  30.744  34.254  23.245 -0.1958 -0.0324 -0.2325
45825W        W88919  30.087  34.199  25.121  0.0651 -0.5704 -0.0498
45826W        W88920  32.076   0.334  27.617  0.1569 -0.3230  0.2371
45827W        W88921  30.375  33.988  23.470  0.0309  0.0906  0.1799
45828W        W88922  31.832  34.057  28.079 -0.2553 -0.4142  0.0958
45829W        W88923  31.266   0.098  25.061 -0.1030 -0.0785  0.3131
45830W        W88924  29.244  34.510  24.822 -0.0826  0.0098  0.0417
45831W        W88925  31.317  33.906  25.084  0.2451 -0.2060 -0.0237
45832W        W88926  30.654   0.258  23.836 -0.2764 -0.0920  0.1071
45833W        W88927  31.459  34.390  24.186 -0.1360  0.0427  0.0770
45834W        W88928  32.950  34.644  27.958 -0.1519 -0.0415 -0.0824
45835W        W88929  30.930  33.119  25.916 -0.0300  0.0181  0.2937
45836W        W88930  30.027  33.499  25.440  0.1212 -0.2829 -0.1050
45837W        W88931  32.073  34.354  25.463  0.1763  0.1532 -0.1037
45838W        W88932  32.791   1.285  26.253 -0.2093 -0.1119  0.1423
45839W        W88933  34.601  34.085  28.059 -0.3107 -0.2459  0.0071
45840W        W88934  31.143   1.060  25.510 -0.0066 -0.0386  0.0012
45841W        W88935  27.939   0.534  27.595 -0.1482 -0.0083  0.1438
45842W        W88936  32.138  33.327  23.999  0.3021  0.1598  0.0406
45843W        W88937  30.208  33.344  24.546  0.1131 -0.0293  0.0241
45844W        W88938  32.398  32.539  23.273  0.0019  0.0165  0.0741
45845W        W88939  33.929  34.035  25.663  0.0178  0.2255  0.2964
45846W        W88940  31.557   0.747  25.330  0.0304 -0.0027  0.0294
45847W        W88941  30.990  34.552  25.729  0.1048  0.0995  0.0350
45848W        W88942  31.036  33.765  23.285 -0.0314 -0.2803  0.1405
45849W        W88943  30.215   1.365  26.921  0.1655  0.2400 -0.2210
45850W        W88944  33.262  32.783  27.877 -0.0545  0.0709 -0.2443
45851W        W88945  29.251  34.187  24.410 -0.1137 -0.1315  0.3894
45852W        W88946  30.700   0.409  25.807  0.1308 -0.3187  0.2169
45853W        W88947  32.426  33.381  26.679  0.1443 -0.1071 -0.4463
45854W        W88948  31.506  32.450  26.715 -0.0595 -0.0230 -0.0431
45855W        W88949  29.640  34.293  25.711 -0.3304  0.0299  0.2193
45856W        W88950  33.482  32.691  25.895 -0.0400  0.3347 -0.0252
45857W        W88951  30.375  34.408  26.529 -0.0526 -0.2137 -0.2186
45858W        W88952  31.517  32.533  27.217  0.3119  0.2621  0.2601
45859W        W88953  31.791   0.055  24.691  0.1351  0.0033  0.0358
45860W        W88954  32.771   0.454  25.389  0.1360 -0.1432 -0.1032
45861W        W88955  29.833   0.542  26.182  0.1009  0.0853  0.0571
45862W        W88956  32.192   0.784  24.015 -0.1037 -0.1615 -0.0340
45863W        W88957  33.617   0.873  27.045  0.0175  0.1413 -0.1661
45864W        W88958  32.042  33.431  22.958  0.1201 -0.0384 -0.4034
45865W        W88959  30.591  33.315  26.259 -0.1300  0.0036 -0.1793
45866W        W88960  31.623  33.633  24.751  0.2111 -0.0850 -0.0180
45867W        W88961  30.234   0.044  24.652 -0.0170 -0.1984  0.2221
45868W        W88962  31.931   0.923  26.356  0.0924 -0.1011 -0.2095
45869W        W88963  30.302   0.020  25.225 -0.2029  0.1220  0.2588
45870W        W88964  33.111   0.071  25.220 -0.1478  0.3546  0.0826
45871W        W88965  33.193   0.556  25.724 -0.0962 -0.3308  0.0868
45872W        W88966  31.837   0.500  24.207  0.1342 -0.3795 -0.0647
45873W        W88967  33.114  32.938  24.826  0.0266  0.4099  0.2676
45874W        W88968  30.913  34.422  26.256 -0.0661 -0.2164  0.0462
45875W        W88969  32.837  34.257  26.660 -0.1305 -0.0072  0.0384
45876W        W88970  29.729   0.298  26.608 -0.3353 -0.1251  0.2601
45877W        W88971  31.423  32.091  27.829 -0.1847  0.0014 -0.2296
45878W        W88972  31.802   0.562  24.848  0.3182 -0.1404  0.1174
45879W        W88973  30.731  34.074  25.827 -0.2190 -0.2771 -0.0548
45880W        W88974  32.423  32.328  24.862 -0.1603  0.4383  0.0741
45881W        W88975  33.303  32.556  24.331 -0.1046  0.0449  0.3464
45882W        W88976  31.754   0.700  27.729 -0.1810 -0.1211 -0.0803
45883W        W88977  29.364   0.211  25.147  0.2941 -0.0157 -0.0491
45884W        W88978  30.481  32.799  27.694  0.4401 -0.1855  0.2133
45885W        W88979  27.484  33.849  28.327  0.0866 -0.0349  0.1368
45886W        W88980  28.753  34.390  25.963  0.2085  0.2029 -0.0529
45887W        W88981  30.941  34.123  24.770  0.1133  0.2538 -0.0313
45888W        W88982  30.807   0.143  25.372 -0.0163  0.2635 -0.2403
45889W        W88983  29.750   0.044  26.001  0.1392  0.1460 -0.1316
45890W        W88984  32.303  33.544  25.236 -0.1288  0.1574  0.0358
45891W        W88985  31.508  34.412  27.934  0.1454  0.1477  0.1418
45892W        W88986  30.526  32.507  27.250  0.3385 -0.3320 -0.1985
45893W        W88987  27.825  32.929  24.381  0.0134 -0.1849  0.0280
45894W        W88988  31.884  33.912  26.032 -0.0715 -0.0421 -0.0874
45895W        W88989  29.363  33.989  27.699 -0.0735 -0.2320  0.1815
45896W        W88990  32.413  33.516  25.834  0.1334 -0.3803 -0.0075
45897W        W88991  31.584   1.132  23.573 -0.3953 -0.1851 -0.0552
45898W        W88992  30.039  32.255  26.357  0.0612  0.1028 -0.0640
45899W        W88993  29.979  33.203  26.817 -0.0808 -0.0302  0.0878
45900W        W88994  32.074  34.460  24.430 -0.1607 -0.1112 -0.0172
45901W        W88995  30.125   0.324  25.704 -0.0618 -0.1586  0.1095
45902W        W88996  31.784  34.041  24.093  0.1922 -0.3712 -0.0411
45903W        W88997  32.949   0.922  27.300  0.2244 -0.1645  0.3961
45904W        W88998  31.762  33.357  23.531 -0.0619  0.1022  0.0425
45905W        W88999  33.349   1.047  23.734 -0.1118  0.1021  0.3654
45906W        W89000  29.534  33.607  25.744 -0.0377 -0.0604  0.1936
45907W        W89001  29.756  33.947  25.387  0.0540 -0.0545 -0.0059
45908W        W89002  30.664   0.685  26.578 -0.1739  0.0861  0.1341
45909W        W89003  32.798  33.669  25.408  0.2396 -0.2151  0.1192
45910W        W89004  31.087  33.560  25.898  0.1277  0.1060  0.1179
45911W        W89005  33.409  33.342  24.834 -0.1441  0.0706  0.0761
45912W        W89006  29.825  34.173  29.071  0.0678 -0.5536  0.4364
45913W        W89007  31.971  33.708  26.698 -0.0001 -0.0298  0.1008
45914W        W89008  33.375   1.634  28.438 -0.0278 -0.3583  0.0164
45915W        W89009  29.243  33.195  28.758  0.1315 -0.0181  0.1763
45916W        W89010  30.435  31.981  30.408  0.0717 -0.0941 -0.1621
45917W        W89011  32.889   0.417  26.133 -0.0093 -0.1464  0.1749
45918W        W89012  29.900  32.716  29.945  0.2137  0.0901 -0.3797
45919W        W89013  30.800  33.860  28.380  0.0505  0.0053 -0.0832
45920W        W89014  29.348  32.618  27.916  0.2184 -0.1907 -0.1761
45921W        W89015  31.876   0.974  29.388  0.2020  0.0135  0.0323
45922W        W89016  29.987   0.330  28.438  0.0712  0.1304 -0.1570
45923W        W89017  30.036  33.883  30.845 -0.1561 -0.0578  0.0363
45924W        W89018  31.608   0.379  28.198 -0.2455  0.2960  0.0158
45925W        W89019  30.699  34.498  30.485  0.2161 -0.0913 -0.0179
45926W        W89020  31.910  33.348   0.242 -0.0349 -0.0130 -0.1937
45927W        W89021  28.267   0.410  27.958 -0.1190  0.0064  0.2621
45928W        W89022  29.323  34.048  29.048  0.1179  0.5690 -0.1624
45929W        W89023  30.829   0.617  29.203 -0.0040 -0.4260  0.0177
45930W        W89024  32.422  34.658  29.687  0.1742  0.1177  0.0308
45931W        W89025  31.119   1.331  28.517  0.3228  0.1624  0.2250
45932W        W89026  32.299   0.111  31.724 -0.0366 -0.0092  0.0223
45933W        W89027  31.356   0.518  29.918 -0.0936  0.0983 -0.0906
45934W        W89028  31.594   0.113  30.368  0.1771  0.1232  0.0817
45935W        W89029  32.733  32.804  30.885 -0.4186  0.0362 -0.2730
45936W        W89030  30.431  34.633  25.941 -0.5348  0.2193  0.0558
45937W        W89031  31.174   0.696  28.242  0.1125  0.3241 -0.0360
45938W        W89032  31.685  33.833  28.868 -0.1297  0.0424 -0.0428
45939W        W89033  29.574  33.335  29.697  0.3340 -0.0068  0.1285
45940W        W89034  29.753   0.433  30.010 -0.0744  0.1485 -0.4669
45941W        W89035  30.870   0.846  28.625 -0.0101 -0.0809 -0.1361
45942W        W89036  32.097   0.191  28.698 -0.0951 -0.0316  0.0294
45943W        W89037  29.798   0.715  28.113  0.0871  0.1718  0.1248
45944W        W89038  29.359  33.702  28.563  0.1123 -0.1771  0.1365
45945W        W89039  30.023  34.512  30.225 -0.1013 -0.1205 -0.0367
45946W        W89040  28.750   0.569  31.120 -0.1553  0.1599 -0.1982
45947W        W89041  30.218  33.567  28.476 -0.0736  0.2533 -0.1775
45948W        W89042  33.446   0.545  29.278 -0.1563  0.1316 -0.2786
45949W        W89043  31.907  33.581  29.436 -0.1539 -0.1492  0.1195
45950W        W89044  31.934  34.511  29.017  0.1528  0.1922 -0.1440
45951W        W89045  32.466  34.654  26.716  0.1638  0.1369 -0.0673
45952W        W89046  31.682  34.362  30.660 -0.1205  0.0809  0.1508
45953W        W89047  28.424  33.866  30.321 -0.0558  0.1065 -0.3690
45954W        W89048  32.067  33.880  27.200  0.0632  0.1056  0.2300
45955W        W89049  29.902  34.466  30.686  0.0169  0.2292  0.2808
45956W        W89050  30.572  32.564  28.285  0.0317  0.0726  0.0674
45957W        W89051  32.534  34.380  28.883  0.0322 -0.1223 -0.3732
45958W        W89052  29.736   0.448  28.899 -0.1142 -0.4892 -0.1607
45959W        W89053  30.329  34.201  29.882 -0.0317 -0.1300  0.0118
45960W        W89054  30.068  33.749  31.824 -0.2938 -0.3507 -0.5369
45961W        W89055  28.908  33.985  28.637  0.2275 -0.2846 -0.1051
45962W        W89056  31.978   0.558  31.057 -0.1072 -0.0983  0.4096
45963W        W89057  29.373  32.374  28.476 -0.0195  0.1030  0.3753
45964W        W89058  31.932   0.186  29.952  0.2402 -0.0405  0.1365
45965W        W89059  30.697   0.173  29.065  0.0577  0.6183 -0.1190
45966W        W89060  33.643  32.923  31.705 -0.1750 -0.3446 -0.2195
45967W        W89061  30.459  34.459  31.088 -0.0109  0.0870 -0.0029
45968W        W89062  29.820  34.091  29.695 -0.1238 -0.0226  0.0756
45969W        W89063  29.217  33.363  28.207  0.3680 -0.3513  0.1445
45970W        W89064  32.732   1.331  29.676  0.1312  0.1466 -0.0410
45971W        W89065  30.902  33.845  29.749  0.2705 -0.1685  0.1028
45972W        W89066  30.197  33.355  27.696  0.0081  0.0002  0.1916
45973W        W89067  30.241   0.332  27.948 -0.0701  0.1200 -0.0600
45974W        W89068  31.580   0.181  27.755 -0.0973  0.1403  0.0650
45975W        W89069  28.988   0.194   0.219  0.2760 -0.0554  0.0937
45976W        W89070  30.801  34.365  29.712 -0.0817 -0.0903 -0.2469
45977W        W89071  30.477   0.007  29.484 -0.1684 -0.2110  0.0489
45978W        W89072  30.931  34.372  29.235 -0.1730  0.1031 -0.1058
45979W        W89073  33.117  34.285  30.118  0.1420 -0.2245 -0.3230
45980W        W89074  31.967  34.648  26.795 -0.1997 -0.0974  0.3492
45981W        W89075  31.787  33.730  27.606 -0.0945  0.0729 -0.2030
45982W        W89076  31.149  34.078  28.013  0.0797  0.0806 -0.1166
45983W        W89077  30.694  34.124  30.166 -0.2638 -0.1862 -0.1283
45984W        W89078  30.343   0.041  28.351  0.0498 -0.1650  0.1636
45985W        W89079  31.823  34.615  28.205 -0.0727  0.0721 -0.0114
45986W        W89080  32.479  32.656  29.472  0.0169  0.2060 -0.1469
45987W        W89081  31.938  34.028  30.270  0.1921  0.3912 -0.4407
45988W        W89082  31.685  33.878  30.817  0.1178  0.1772 -0.0341
45989W        W89083  32.714  33.249   1.442 -0.0329  0.4402  0.2093
45990W        W89084  32.618   0.489  27.945 -0.0912 -0.1896  0.1053
45991W        W89085  31.072   0.415  28.790  0.2147  0.0416  0.2230
45992W        W89086  29.585  33.737  28.082 -0.0385 -0.0178 -0.0671
45993W        W89087  31.645  33.504  30.324 -0.0082  0.1115 -0.1560
45994W        W89088  31.811  33.150  30.680  0.2652 -0.1425  0.0927
45995W        W89089  30.115  34.536  27.926  0.0599 -0.1528  0.1439
45996W        W89090  30.352  33.595  29.419 -0.4219  0.0239 -0.3811
45997W        W89091  32.477  32.905  29.908  0.4674  0.1225  0.3011
45998W        W89092  31.368  34.518  26.921  0.0218  0.0357  0.0627
45999W        W89093  29.036   0.367  29.695 -0.3203  0.0415 -0.1425
46000W        W89094  32.668   0.412  29.840  0.0694  0.0380  0.0432
46001W        W89095  30.365  33.858  30.457  0.1718 -0.3162 -0.1831
46002W        W89096  30.962   0.197  29.491  0.0044 -0.3432 -0.1975
46003W        W89097  31.316  34.220  29.688 -0.0244  0.0533  0.0642
46004W        W89098  31.830   0.028  27.297  0.3443  0.4551  0.3430
46005W        W89099  30.962  34.600   0.444  0.0229 -0.2297 -0.2097
46006W        W89100  29.797  34.181  28.104 -0.2600 -0.0246 -0.0278
46007W        W89101  31.507   0.018  29.806 -0.1504  0.1606 -0.1929
46008W        W89102  29.916  34.193  27.573  0.1029  0.5048 -0.2916
46009W        W89103  31.186   0.676  27.595  0.4242  0.1080  0.1151
46010W        W89104  30.774  33.502  30.255 -0.1264  0.0998 -0.0362
46011W        W89105  31.386  33.714  29.395 -0.0186 -0.0490 -0.1433
46012W        W89106  29.807  34.015  30.256  0.1817 -0.1061 -0.2555
46013W        W89107  31.116  34.634  28.256 -0.0968  0.1903  0.0250
46014W        W89108  31.554  34.275  30.103  0.0972 -0.2682  0.0461
46015W        W89109  31.564  33.347  29.649  0.3803  0.2903  0.2897
46016W        W89110  32.456   0.377  30.776 -0.0873 -0.0971  0.0983
46017W        W89111  31.319  33.748  29.990  0.3358 -0.0958  0.0909
46018W        W89112  31.823  32.950  28.396  0.1957 -0.0620  0.0290
46019W        W89113  31.406  34.568  29.311 -0.1975 -0.3722  0.0124
46020W        W89114  32.477  34.428  31.471 -0.2344  0.1301  0.3193
46021W        W89115  33.089   0.676  27.751  0.1549 -0.0727  0.1949
46022W        W89116  30.894  34.626  31.423 -0.1928 -0.0650 -0.2325
46023W        W89117  30.673  33.033  30.066  0.0845 -0.0002  0.1603
46024W        W89118  28.681   0.619  30.576  0.1093 -0.2875  0.1985
46025W        W89119  29.445   0.880   0.428  0.1157  0.1649  0.2956
46026W        W89120  31.078  34.517  28.834  0.1151 -0.1335  0.0537
46027W        W89121  30.613   0.050  27.886 -0.2014  0.2568 -0.2960
46028W        W89122  30.527  34.667  30.015  0.2253 -0.1956 -0.1356
46029W        W89123  32.354   0.154  29.225 -0.4108 -0.0853 -0.1904
46030W        W89124  29.962   0.735  29.219 -0.1840 -0.2529 -0.2754
46031W        W89125  31.523   0.072  28.686  0.4266  0.3620 -0.1087
46032W        W89126  30.086  33.140  29.680 -0.0552  0.2116  0.0210
46033W        W89127  32.324  33.780  30.068 -0.1289 -0.2202 -0.2798
46034W        W89128  31.769  34.190  29.376 -0.3140  0.3104  0.1067
46035W        W89129  33.069  33.774  30.929 -0.0276  0.0652 -0.0565
46036W        W89130  30.487   0.397  31.094 -0.0198  0.0334 -0.3745
46037W        W89131  30.790  33.609  31.172 -0.0680  0.2358  0.2641
46038W        W89132  32.647   0.165  27.479  0.2012  0.1695  0.2103
46039W        W89133  32.389  33.789  29.483  0.2487  0.1294  0.1557
46040W        W89134  32.966   0.414  28.394  0.1082  0.3387 -0.0816
46041W        W89135  31.957   0.754  27.234 -0.2347  0.0942  0.0659
46042W        W89136  29.395  32.717  29.004 -0.3307 -0.0123  0.0855
46043W        W89137  31.361  34.491  31.074 -0.2904  0.0627  0.0324
46044W        W89138  29.026  34.218  26.690  0.0838 -0.0006 -0.1173
46045W        W89139  32.744  33.855  30.320 -0.0535  0.1859  0.3174
46046W        W89140  30.241  33.851  28.962  0.2121 -0.0652  0.1864
46047W        W89141  27.710  32.508  28.910 -0.2172 -0.3641  0.1897
46048W        W89142  29.712  33.612  27.584 -0.1527  0.0886  0.1113
46049W        W89143  30.750   0.300  27.403  0.0560  0.1052 -0.2277
46050W        W89144  32.035  32.288  28.183 -0.2149 -0.0857  0.0841
46051W        W89145  32.795  32.817  30.352 -0.0209 -0.0461  0.1661
46052W        W89146  29.681  33.437  28.908 -0.3753  0.3114 -0.1303
46053W        W89147  30.884  34.206  30.867 -0.0030  0.1826 -0.2213
46054W        W89148  32.281   1.040  28.848  0.2142  0.1434 -0.0373
46055W        W89149  31.377   0.887  29.411 -0.0254  0.0255 -0.4459
46056W        W89150  31.980  32.442  29.497  0.1091  0.2767 -0.1870
46057W        W89151  30.793   1.233  30.404 -0.0178  0.0628 -0.4762
46058W        W89152  29.527  34.468  30.319 -0.0367  0.0791  0.2058
46059W        W89153  30.148  33.817  28.031  0.0764  0.3054  0.1218
46060W        W89154  31.300   0.243  27.213  0.1955  0.0247 -0.0917
46061W        W89155  31.941   0.013  29.507  0.2893  0.1275  0.0574
46062W        W89156  32.734   1.836  29.424  0.0042 -0.2927 -0.1882
46063W        W89157  32.189  34.358  28.532 -0.1112  0.1279 -0.1544
46064W        W89158  30.099   0.116  29.791  0.2837 -0.0656 -0.0910
46065W        W89159  29.782  33.159  27.387  0.0727 -0.3306 -0.2942
46066W        W89160  29.634  34.639  31.497  0.0690 -0.2756  0.0594
46067W        W89161  32.386  32.378  29.947 -0.2387 -0.4737 -0.0664
46068W        W89162  29.848   0.392  27.672  0.2306  0.2231 -0.0584
46069W        W89163  29.713   0.032  28.065  0.1944 -0.0790  0.1994
46070W        W89164  32.305  32.084  30.299 -0.0366  0.0737 -0.0038
46071W        W89165  29.666  33.949  31.425  0.0486  0.0669  0.1572
46072W        W89166  28.843  33.612  27.431 -0.0281 -0.0638  0.1955
46073W        W89167  32.910   0.241  29.287  0.3725  0.1539  0.0901
46074W        W89168  29.249  33.901  30.430  0.0457  0.1901 -0.1510
46075W        W89169  32.176  33.946  29.093 -0.0390  0.2626 -0.0458
46076W        W89170  29.398  34.217  29.874  0.1877  0.1236 -0.2258
46077W        W89171  30.870  34.372  27.676 -0.3337  0.0196  0.0751
46078W        W89172  31.326   0.257  31.275  0.0145  0.2185 -0.0860
46079W        W89173  31.693   0.471  26.871 -0.0011  0.2181 -0.1360
46080W        W89174  33.626  34.483  29.917 -0.2655  0.0165  0.2620
46081W        W89175  32.509   0.560  28.478  0.0257  0.1936 -0.0474
46082W        W89176  28.867  32.065  28.540 -0.2166 -0.1133 -0.2814
46083W        W89177  31.493  33.792  28.400  0.1313 -0.4344 -0.1098
46084W        W89178  29.774   1.650  28.478 -0.1366 -0.0433  0.2075
46085W        W89179  30.927   0.390  30.089 -0.3328  0.1344 -0.4143
46086W        W89180  30.153  33.018  28.380  0.0906  0.0958 -0.0893
46087W        W89181  32.620  33.376  30.138 -0.3393  0.1254  0.1444
46088W        W89182  33.658   0.311  26.631  0.1665  0.2089 -0.0695
46089W        W89183  28.623  34.203  30.024  0.5037 -0.3760  0.5913
46090W        W89184  31.389  33.624  27.903  0.3455  0.2454  0.1363
46091W        W89185  29.573  34.047  30.782 -0.1223  0.2616 -0.0039
46092W        W89186  33.973  34.686  31.105 -0.1926 -0.0019  0.0507
46093W        W89187  32.180  33.977  31.371 -0.1515 -0.0217 -0.2262
46094W        W89188  32.437  33.183  30.633 -0.0464  0.3099 -0.1248
46095W        W89189  31.175  34.201  28.464 -0.0378 -0.2674 -0.0958
46096W        W89190  30.843  32.242  28.044 -0.1077 -0.0614 -0.2667
46097W        W89191  31.551  33.306  29.134 -0.0940  0.1362  0.0480
46098W        W89192  32.004  33.492  28.955 -0.1382  0.0828 -0.2116
46099W        W89193  30.057  34.353  31.645  0.1785  0.1148  0.1476
46100W        W89194  29.508  34.663  28.895 -0.1162  0.2309 -0.0077
46101W        W89195  32.209  32.862  30.967 -0.1117  0.0649  0.1969
46102W        W89196  29.994   0.130  31.156  0.1292 -0.1832  0.0746
46103W        W89197  30.162   0.178  28.883  0.3210  0.1497 -0.1994
46104W        W89198  30.622  32.986  28.636 -0.0384  0.1665  0.0847
46105W        W89199  30.460  33.676  29.891 -0.3797 -0.0594 -0.0563
46106W        W89200  29.880  33.704  29.318 -0.1921 -0.1195  0.1410
46107W        W89201  30.692  33.999  28.873 -0.0115 -0.0717  0.0508
46108W        W89202  31.266  33.066  31.289 -0.0950 -0.0659 -0.2555
46109W        W89203  29.739  32.543  30.394 -0.1233 -0.1424 -0.1878
46110W        W89204  29.836  33.878  28.547  0.1954  0.1462  0.0959
46111W        W89205  30.619  33.553  27.999 -0.1071  0.0355  0.1358
46112W        W89206  30.315  32.607  29.640 -0.1269 -0.0920 -0.0118
46113W        W89207  33.044  34.141  28.764  0.2054  0.0090 -0.0036
46114W        W89208  32.122   0.308  28.113 -0.1274  0.1668  0.1977
46115W        W89209  29.337  32.267  30.039  0.0331 -0.3253  0.2524
46116W        W89210  29.377  33.798  29.475  0.0349 -0.2617 -0.3220
46117W        W89211  32.062  34.351  29.865 -0.4302  0.1632  0.0996
46118W        W89212  29.012  34.468  29.695  0.0534  0.0929  0.0776
46119W        W89213  30.380  34.334  27.470  0.3764  0.0527 -0.0946
46120W        W89214  30.230  33.858  31.338  0.1555  0.1315 -0.0175
46121W        W89215  30.768   0.710  27.874  0.0498 -0.2153 -0.4037
46122W        W89216  32.720  34.217  28.359 -0.0659  0.2176  0.0331
46123W        W89217  29.150  33.858  30.949  0.1723  0.0793 -0.0952
46124W        W89218  29.006   0.283  28.715 -0.1518 -0.1979 -0.0025
46125W        W89219  30.453   0.690  28.261 -0.0607 -0.0683  0.0416
46126W        W89220  32.745  32.025  29.927  0.2207  0.1724 -0.4757
46127W        W89221  30.696  34.444  28.551 -0.0923 -0.1586  0.0731
46128W        W89222  31.650  33.189  27.706 -0.1044 -0.1402 -0.4618
46129W        W89223  32.342   0.167  31.173 -0.0587  0.0886 -0.0594
46130W        W89224  30.307   0.078  30.684  0.1033 -0.0018  0.1899
46131W        W89225  30.487  33.959  30.963 -0.2099 -0.0556 -0.2099
46132W        W89226  32.399  33.620   0.081 -0.0761 -0.1018 -0.1046
46133W        W89227  31.715  33.572  31.252 -0.3247 -0.2555 -0.0184
46134W        W89228  32.811  32.839  31.850 -0.1241  0.3044  0.1996
46135W        W89229  31.290  31.934  31.026  0.0851 -0.0350  0.0201
46136W        W89230  34.289  34.661  31.581  0.3828  0.3880  0.0773
46137W        W89231  29.558  33.584  31.040 -0.0916  0.2787 -0.1549
46138W        W89232  29.857  33.290  31.963 -0.1180 -0.2970  0.5184
46139W        W89233  30.402  32.560  30.088 -0.1216  0.0935 -0.0596
46140W        W89234  31.268  34.613   0.070 -0.1200  0.1629  0.1780
46141W        W89235  31.084  34.508  30.074 -0.0421  0.2287 -0.0165
46142W        W89236  32.363  33.561  31.576  0.2931  0.0271 -0.1271
46143W        W89237  31.255  34.187   0.450  0.3420 -0.0836  0.1062
46144W        W89238  29.019  34.349   0.085 -0.0663  0.1765  0.3552
46145W        W89239  28.365   0.177   0.516 -0.2259  0.1111 -0.1175
46146W        W89240  29.876  34.271  31.141  0.1364 -0.5696 -0.2294
46147W        W89241  31.843  34.319  31.125 -0.2030  0.2044 -0.0172
46148W        W89242  29.302  32.048  31.304 -0.0091 -0.3942  0.1339
46149W        W89243  30.664   1.499  30.818 -0.1599  0.2852 -0.0624
46150W        W89244  33.507  34.057  30.872 -0.1114 -0.0910 -0.2072
46151W        W89245  30.895  33.729  30.656 -0.0200 -0.3061  0.3004
46152W        W89246  30.152  31.860  30.985 -0.0269 -0.0999  0.1627
46153W        W89247  30.522  33.709   0.070  0.1375 -0.2625 -0.0875
46154W        W89248  29.914   0.618   1.695 -0.1784  0.2372  0.1211
46155W        W89249  31.663  32.973  31.668  0.0310 -0.1162 -0.2110
46156W        W89250  31.280  33.944   0.056  0.3077 -0.3082 -0.0576
46157W        W89251  33.092  33.244  30.982  0.0829 -0.0017 -0.0683
46158W        W89252  30.700   0.992  30.928 -0.4103  0.0925  0.1453
46159W        W89253  30.647  34.200  31.410 -0.3908  0.0565  0.1694
46160W        W89254  28.645  33.887  31.175 -0.1891  0.1166  0.1660
46161W        W89255  28.392  32.939  31.599  0.0079 -0.0057  0.0890
46162W        W89256  32.740  33.591  31.249  0.1843  0.1255  0.2088
46163W        W89257   0.186   1.956  17.192 -0.1663 -0.1600 -0.2808
46164W        W89258  33.666   0.919  16.641  0.1157  0.3684  0.2963
46165W        W89259  33.711   1.804  17.100  0.0200  0.0316 -0.0697
46166W        W89260  33.405  33.973  17.920 -0.0326 -0.2951  0.0046
46167W        W89261   1.045   1.910  18.600 -0.1765 -0.0843  0.1648
46168W        W89262  33.772   2.136  19.762 -0.0965  0.1179 -0.3136
46169W        W89263   0.097   1.191  16.504 -0.0525 -0.1155  0.0914
46170W        W89264  33.032   0.689  18.117  0.1414 -0.0787 -0.0896
46171W        W89265  33.401   0.795  18.445 -0.0339 -0.0560  0.0650
46172W        W89266  33.759   0.000  19.022  0.1712 -0.0443  0.1139
46173W        W89267   1.132   0.281  16.407  0.1839  0.0426  0.1943
46174W        W89268   0.275   0.958  20.936  0.1475  0.1164 -0.1732
46175W        W89269   0.777   2.952  17.588 -0.0349 -0.3554  0.0342
46176W        W89270  33.599   0.912  16.037 -0.2567 -0.0346  0.0998
46177W        W89271  33.832   1.545  18.070  0.0542  0.0141  0.1891
46178W        W89272  31.789   2.209  18.940 -0.0922 -0.2908  0.1918
46179W        W89273  33.631   3.398  17.539 -0.1063 -0.0497 -0.0923
46180W        W89274  34.607   4.663  18.113 -0.1775 -0.0130 -0.0175
46181W        W89275  33.232   2.875  18.205  0.1708 -0.1040  0.0261
46182W        W89276  32.269   2.196  17.981  0.1887  0.0989  0.2640
46183W        W89277   0.209   4.036  16.817 -0.0968  0.2530  0.0916
46184W        W89278   0.871   5.238  19.373  0.1268  0.2014 -0.1320
46185W        W89279  33.300   2.575  16.424 -0.0157 -0.3512 -0.2046
46186W        W89280  33.756   3.463  18.772 -0.0747 -0.1992 -0.3706
46187W        W89281  33.930   2.939  15.867  0.2414  0.0872  0.0543
46188W        W89282   0.095   2.321  16.508  0.0363  0.2034 -0.0120
46189W        W89283  34.579   2.968  19.858 -0.1192  0.1011  0.0268
46190W        W89284  33.506   1.385  16.838  0.0198 -0.1602 -0.3095
46191W        W89285  34.344   3.092  15.612 -0.2006 -0.1486  0.1072
46192W        W89286   0.204   1.229  15.580 -0.1152  0.2451  0.1947
46193W        W89287  33.593   0.480  18.786 -0.0308  0.0564  0.0248
46194W        W89288  34.144   3.148  17.473  0.1031  0.2168  0.3298
46195W        W89289  33.860   0.033  19.507  0.1003 -0.1811  0.2791
46196W        W89290   0.257   3.417  19.719 -0.0124 -0.0498 -0.1069
46197W        W89291  32.932   0.772  17.620  0.2272 -0.1398 -0.3636
46198W        W89292  34.369   1.546  16.621  0.0723  0.0579  0.3193
46199W        W89293  33.323   1.789  21.312  0.0919  0.0561  0.2650
46200W        W89294  33.399   2.643  19.492  0.0296 -0.2177  0.0291
46201W        W89295   0.317  34.467  16.216 -0.3010  0.0956 -0.2593
46202W        W89296  33.216   1.944  20.796 -0.0068  0.1480 -0.3814
46203W        W89297  32.777   2.156  17.630  0.0286  0.1136 -0.1304
46204W        W89298  34.343   1.965  16.347 -0.3387 -0.2544 -0.1792
46205W        W89299  34.567   2.361  18.459  0.0465  0.3153 -0.0133
46206W        W89300  32.722   2.734  18.585  0.0337  0.1698 -0.1255
46207W        W89301   0.309   0.579  19.356 -0.0379 -0.1813 -0.3445
46208W        W89302   0.049   3.745  20.163  0.1277  0.0712  0.1933
46209W        W89303  32.955   3.733  16.509  0.2349  0.3078 -0.1248
46210W        W89304  31.713   1.549  18.313 -0.1366 -0.0738 -0.2669
46211W        W89305  32.305   2.768  16.014 -0.1962 -0.2172 -0.1746
46212W        W89306  32.635   0.069  18.691 -0.3135  0.3000 -0.1227
46213W        W89307  33.856   2.938  17.939  0.2056  0.3212 -0.2645
46214W        W89308  31.268   0.524  19.113 -0.0270 -0.1379  0.2297
46215W        W89309  33.534   3.069  16.723 -0.1815  0.1746  0.0851
46216W        W89310  31.783   0.526  18.845  0.1950 -0.1459  0.1580
46217W        W89311  33.785   0.461  17.294 -0.1883 -0.0322  0.0116
46218W        W89312  32.064   0.672  18.338  0.1374 -0.2988 -0.3551
46219W        W89313  33.361  34.502  18.556 -0.1006 -0.0281 -0.1905
46220W        W89314  31.925  34.506  17.557  0.1665 -0.1306  0.0801
46221W        W89315   0.083   0.575  17.415 -0.0263 -0.3808  0.1076
46222W        W89316  32.544   2.078  16.323  0.1500 -0.0624 -0.0703
46223W        W89317   0.758  34.537  19.472  0.0183 -0.2460  0.0821
46224W        W89318  33.344   1.048  17.901  0.1370  0.1624 -0.0085
46225W        W89319  32.924   4.424  17.529  0.0508 -0.0449  0.0176
46226W        W89320  33.735   2.259  17.248 -0.0734  0.0038  0.1295
46227W        W89321   0.378   0.680  16.585  0.2950 -0.0817  0.2874
46228W        W89322  33.452   2.320  18.820  0.1832 -0.0850 -0.3738
46229W        W89323  33.552   0.589  17.840  0.1381 -0.2972  0.0219
46230W        W89324   0.005   1.498  16.968 -0.2582 -0.1756 -0.3059
46231W        W89325  33.837   2.311  16.416  0.0446 -0.3943 -0.1663
46232W        W89326   0.207   4.413  17.613  0.0776 -0.0532 -0.0309
46233W        W89327  32.998   1.784  19.350  0.1564  0.1097  0.0867
46234W        W89328  34.032   1.384  17.078  0.2922  0.2808 -0.1067
46235W        W89329  34.033   2.280  18.486 -0.1878  0.2971  0.2692
46236W        W89330   0.295   1.470  20.357 -0.2146  0.0041  0.4928
46237W        W89331   0.271   2.807  17.202  0.3366  0.0004 -0.3827
46238W        W89332  34.091   1.988  16.788 -0.0513 -0.1071 -0.0811
46239W        W89333  32.899   2.838  17.835  0.0914 -0.2456 -0.3035
46240W        W89334   0.480  34.047  19.339  0.0779 -0.1326  0.0700
46241W        W89335   0.653   1.040  16.416 -0.0129  0.0002  0.1970
46242W        W89336  33.096   3.617  15.658  0.0170  0.1041  0.1899
46243W        W89337  34.558   1.698  20.658  0.2645 -0.1540 -0.1141
46244W        W89338  33.054   0.833  15.940 -0.0838 -0.1434 -0.0466
46245W        W89339  34.374   0.249  19.238 -0.1986 -0.0467 -0.2618
46246W        W89340  33.733   2.832  17.320 -0.1241  0.1515 -0.0709
46247W        W89341  33.317   3.439  18.942 -0.1737  0.1102 -0.0152
46248W        W89342   0.983   1.350  20.250  0.1870  0.2316 -0.2387
46249W        W89343  33.817   3.894  16.973  0.3184  0.0628  0.2620
46250W        W89344  34.199   2.410  16.103  0.0065  0.0250 -0.2633
46251W        W89345  33.827   0.499  18.310 -0.2265  0.1091  0.2244
46252W        W89346  33.113   2.459  18.475 -0.1351  0.2058 -0.2901
46253W        W89347  34.590   2.848  16.678 -0.2795  0.2350  0.2008
46254W        W89348  34.462   3.328  16.602 -0.2738  0.0814  0.2215
46255W        W89349  32.608   3.588  17.015  0.1044 -0.2790 -0.0318
46256W        W89350  33.220   1.127  16.410 -0.2167  0.0706  0.1499
46257W        W89351  33.130   1.686  16.746  0.0078  0.3337  0.1085
46258W        W89352  32.531   0.835  19.428 -0.2237 -0.3019  0.1475
46259W        W89353  34.580   1.968  19.149 -0.1958  0.0820 -0.4032
46260W        W89354  33.119   4.264  19.268  0.1821  0.0481  0.1763
46261W        W89355  34.369   0.718  19.973 -0.2061  0.1248 -0.1806
46262W        W89356  33.031   1.699  15.743 -0.1803 -0.3738  0.0721
46263W        W89357   0.395   0.777  17.925  0.0315  0.0197 -0.0860
46264W        W89358  33.713   3.318  16.170 -0.3618  0.2056 -0.1403
46265W        W89359  34.464   0.792  15.872  0.2704 -0.0058 -0.0976
46266W        W89360  32.971   2.836  16.760 -0.0957  0.0247  0.0647
46267W        W89361  33.619   0.725  19.371  0.4922 -0.0968  0.2451
46268W        W89362  33.346   0.544  16.914 -0.2497  0.1004 -0.3746
46269W        W89363  33.397   0.300  18.325 -0.0918 -0.3302  0.2053
46270W        W89364   0.870   0.576  16.778  0.0685 -0.1712  0.0584
46271W        W89365   0.177   1.055  17.582 -0.0578 -0.0137  0.4915
46272W        W89366  34.424   2.381  20.448 -0.1003  0.2108 -0.0228
46273W        W89367   0.805   1.818  16.178 -0.0760 -0.1312  0.2438
46274W        W89368  31.057   2.438  18.702  0.2374  0.1927  0.0907
46275W        W89369  34.131   1.804  17.463 -0.1063  0.2590 -0.1984
46276W        W89370  34.523   1.183  20.105  0.3185  0.0380 -0.0651
46277W        W89371  32.453   2.013  18.432 -0.0915 -0.2411  0.1565
46278W        W89372  33.540   2.002  16.659  0.0119 -0.2063  0.1778
46279W        W89373  33.597   1.804  18.565  0.2314 -0.2103  0.0588
46280W        W89374  34.449   1.054  17.114 -0.0202 -0.3114  0.1614
46281W        W89375  32.423  34.512  17.390  0.0128  0.1195  0.1781
46282W        W89376  32.197   0.246  18.731 -0.2377 -0.2063  0.0602
46283W        W89377  33.648   1.308  18.480 -0.3530  0.3746  0.3368
46284W        W89378  34.019  34.621  15.919 -0.2582 -0.1467  0.0369
46285W        W89379  33.206   2.213  19.707 -0.2827  0.2245 -0.0287
46286W        W89380  34.668   2.465  16.997 -0.0147 -0.2211  0.0411
46287W        W89381  34.004   3.310  18.386  0.1245 -0.0100 -0.1069
46288W        W89382  34.463   2.904  16.142 -0.0660  0.1181  0.0467
46289W        W89383  33.989   2.696  19.721 -0.2690 -0.2661  0.1023
46290W        W89384  33.981   1.537  19.396 -0.2440  0.1115 -0.0830
46291W        W89385  34.570   1.263  19.235 -0.1776  0.3501  0.0162
46292W        W89386  34.158   1.469  20.714 -0.2157 -0.2254  0.1130
46293W        W89387  33.946   2.125  17.898  0.2880  0.0388  0.2317
46294W        W89388  34.184   0.678  16.824  0.0833  0.2342  0.0476
46295W        W89389  33.648   4.453  16.405 -0.1436  0.0507  0.0643
46296W        W89390  33.502   0.867  17.416  0.2515 -0.0453  0.0126
46297W        W89391  33.378   2.301  20.466  0.1176  0.0511 -0.2972
46298W        W89392  33.655   2.477  15.960  0.3744  0.0397  0.1585
46299W        W89393  34.109   1.131  16.687 -0.1777 -0.2254 -0.0978
46300W        W89394   0.213   3.324  17.837 -0.2183  0.1143 -0.1284
46301W        W89395   1.485  34.596  16.635 -0.0658  0.1323 -0.1130
46302W        W89396  33.234   3.624  17.669  0.0662  0.2454  0.1418
46303W        W89397  32.910   2.352  20.234  0.0381 -0.0477 -0.1261
46304W        W89398  32.951   2.003  18.235 -0.1024  0.0882 -0.0721
46305W        W89399   0.927   3.428  16.384 -0.3462 -0.4009 -0.0258
46306W        W89400  34.567   1.384  17.493 -0.1701 -0.1904  0.0926
46307W        W89401  33.721   1.326  20.087 -0.0713 -0.2180  0.1899
46308W        W89402  33.010   3.306  16.889 -0.3351  0.0888 -0.0670
46309W        W89403  32.207   1.249  19.593  0.0657 -0.1588  0.0639
46310W        W89404  33.120   1.173  17.491 -0.0338  0.1309  0.0420
46311W        W89405  33.682   2.975  19.188  0.1582 -0.1997  0.1329
46312W        W89406  33.464   1.891  18.066  0.3924  0.6003 -0.1425
46313W        W89407  32.854   4.237  16.444  0.0818  0.0242  0.0636
46314W        W89408  34.032   0.812  16.315 -0.0725  0.0066  0.0491
46315W        W89409  33.381   4.479  17.742 -0.1441  0.1430  0.1028
46316W        W89410  32.849   0.663  17.066  0.0321  0.0943 -0.2470
46317W        W89411  34.400   3.208  17.058  0.1274 -0.1094  0.0878
46318W        W89412  33.969   1.103  19.139  0.2956 -0.2735 -0.4718
46319W        W89413   0.431   0.120  17.399  0.4377  0.2567 -0.0206
46320W        W89414  33.133   1.675  17.781 -0.2175  0.1734  0.0246
46321W        W89415  34.027   3.187  19.599 -0.0305  0.3719  0.1144
46322W        W89416  31.895   1.932  16.562 -0.0517 -0.2335  0.0194
46323W        W89417  32.866   2.323  16.675 -0.1319  0.2291  0.1787
46324W        W89418  34.121   1.200  15.779  0.2541  0.4770 -0.2061
46325W        W89419  34.009   3.601  16.634  0.1606  0.1480 -0.1162
46326W        W89420  32.776   3.341  17.435 -0.0748  0.1840  0.2083
46327W        W89421  34.000   3.442  17.904 -0.3558  0.1007  0.0459
46328W        W89422  33.768   0.385  16.099 -0.0818  0.1686  0.0489
46329W        W89423  33.713   1.196  19.602  0.0970 -0.2913 -0.1205
46330W        W89424  33.337   0.622  16.393  0.0366 -0.0493 -0.0207
46331W        W89425  33.669   1.566  18.975  0.3196  0.1106  0.2344
46332W        W89426   0.221   2.759  16.294 -0.0453  0.0333  0.0124
46333W        W89427  33.845   1.328  17.609  0.1669 -0.1323 -0.0748
46334W        W89428  32.483   0.797  17.964 -0.0274  0.0529  0.3399
46335W        W89429  33.582   2.488  18.264 -0.3053  0.1513 -0.4192
46336W        W89430  33.835   1.328  16.194  0.0272 -0.1139  0.0650
46337W        W89431  34.095   3.986  15.576 -0.2072 -0.0298  0.1029
46338W        W89432  32.925  34.664  19.327  0.3730  0.0493 -0.0260
46339W        W89433   0.414  33.816  17.828  0.0331 -0.3517  0.2225
46340W        W89434  33.205   0.457  17.427  0.0962 -0.2046 -0.1890
46341W        W89435  32.235   3.926  15.938  0.1459 -0.3548 -0.0652
46342W        W89436  32.812   3.463  16.055  0.1696  0.1961 -0.0973
46343W        W89437  34.238   2.929  19.225 -0.1237  0.0472 -0.0135
46344W        W89438   0.114   4.605  18.611  0.0840 -0.0073 -0.1105
46345W        W89439  32.720   2.502  16.186  0.1538 -0.0798 -0.1551
46346W        W89440   0.334   1.820  20.998  0.0418  0.1008  0.0812
46347W        W89441  34.343   2.439  16.636 -0.0581  0.1521 -0.0142
46348W        W89442  34.195   3.314  16.073  0.3244  0.0288 -0.2330
46349W        W89443   0.856   1.465  17.418 -0.0452  0.2956  0.0989
46350W        W89444  34.014   0.084  17.474  0.0721 -0.2125  0.1489
46351W        W89445  34.381   1.856  17.978 -0.0146 -0.0411  0.0353
46352W        W89446  32.533   1.758  15.884  0.1696 -0.0123  0.0850
46353W        W89447  34.606   1.975  16.765 -0.0020  0.1522 -0.2445
46354W        W89448  33.767   2.619  16.806  0.1991  0.0666 -0.1181
46355W        W89449  33.127   1.498  18.259  0.3528 -0.0055  0.2003
46356W        W89450  34.140   1.769  18.448 -0.1887  0.2388  0.1864
46357W        W89451  33.412   1.577  16.374 -0.3404  0.0627 -0.1277
46358W        W89452  32.125   0.255  17.383 -0.1895  0.0680 -0.1403
46359W        W89453  32.542   0.440  18.364  0.1091  0.1914 -0.0327
46360W        W89454   0.307  33.980  17.349 -0.0605  0.1432  0.0089
46361W        W89455  32.779   2.138  15.766 -0.0360  0.2591 -0.0073
46362W        W89456  34.213   3.041  18.790  0.0527  0.0447  0.0679
46363W        W89457   0.107   0.964  19.697 -0.0333 -0.0798  0.0633
46364W        W89458  33.503   0.073  16.977 -0.3180  0.1433 -0.1097
46365W        W89459  34.162   1.258  18.425  0.0599  0.2264  0.0099
46366W        W89460  34.357   2.474  19.003 -0.0780  0.2284 -0.1886
46367W        W89461   0.873   4.161  18.680 -0.0061  0.1011  0.3045
46368W        W89462  32.381  34.644  19.135  0.1691  0.0824 -0.0364
46369W        W89463  34.593   3.965  21.236 -0.0215 -0.1585 -0.2014
46370W        W89464  32.991   0.529  18.638 -0.0247 -0.2486  0.5254
46371W        W89465  33.597   4.244  18.159 -0.2087  0.1203  0.1021
46372W        W89466   0.836   0.464  17.702  0.2673 -0.0512  0.4311
46373W        W89467  32.281   2.339  17.296  0.0097 -0.1854 -0.0209
46374W        W89468   0.852  34.528  16.328 -0.0587  0.1812 -0.0582
46375W        W89469  34.083   1.788  19.935  0.1042 -0.1950 -0.0730
46376W        W89470   0.462   1.556  16.448 -0.3480 -0.0663 -0.1398
46377W        W89471   0.686   3.444  17.407  0.0014 -0.0910 -0.0244
46378W        W89472  34.061   0.614  19.540 -0.1426 -0.0080  0.0370
46379W        W89473  33.171   0.221  17.879 -0.1270  0.1816 -0.0015
46380W        W89474  33.286   1.552  17.259  0.2546  0.0598  0.0089
46381W        W89475  34.331   2.171  17.214 -0.1713 -0.0519 -0.1878
46382W        W89476  34.149   2.049  19.387 -0.2708  0.3530 -0.1521
46383W        W89477  33.521   2.747  22.512  0.0511 -0.0061 -0.0572
46384W        W89478  33.869   0.841  21.803 -0.3264  0.1957 -0.1085
46385W        W89479  34.676   1.398  21.647 -0.1196 -0.0179 -0.0468
46386W        W89480  34.498  34.282  24.007 -0.2264  0.0645  0.1948
46387W        W89481  33.221  33.960  23.419 -0.0807  0.0617 -0.1131
46388W        W89482  33.042   3.776  22.466  0.0447  0.2731 -0.0714
46389W        W89483  33.809   0.018  21.441  0.2772 -0.2656 -0.0014
46390W        W89484  33.644   0.356  21.806 -0.2989  0.0286  0.0405
46391W        W89485  33.566   2.640  20.885  0.4034  0.3000  0.3589
46392W        W89486  33.895   1.153  22.711  0.2468  0.0568  0.0190
46393W        W89487  33.324   0.945  22.172 -0.2092 -0.0840  0.0355
46394W        W89488   0.361   0.283  24.753 -0.1096  0.0256  0.0776
46395W        W89489  33.707   2.285  21.739  0.4088 -0.2731  0.2176
46396W        W89490  32.729   1.463  20.483  0.1126  0.1594  0.3107
46397W        W89491  32.811   0.311  20.977 -0.2086 -0.0303 -0.0683
46398W        W89492  34.063   1.627  22.831  0.0103  0.1610 -0.3933
46399W        W89493  34.206   4.450  22.412  0.0232 -0.0583 -0.3452
46400W        W89494   0.434   2.699  21.463  0.1646  0.3363  0.1174
46401W        W89495  32.498   2.841  21.207 -0.0388  0.0306 -0.0410
46402W        W89496  32.827   4.004  22.010  0.1191  0.1168  0.1194
46403W        W89497  34.575   1.861  21.426 -0.0688  0.0000 -0.1967
46404W        W89498  33.506   4.151  23.706 -0.0113 -0.0503 -0.1284
46405W        W89499  33.996   2.908  20.788  0.4098 -0.1097 -0.2082
46406W        W89500  33.389   4.637  23.907  0.1625  0.0092 -0.0934
46407W        W89501  34.495   2.669  22.093 -0.1506 -0.3039 -0.0997
46408W        W89502  34.473   3.447  20.510 -0.1470  0.0019 -0.2593
46409W        W89503   0.271   3.641  24.492 -0.0606  0.2066  0.0988
46410W        W89504  34.098   3.570  22.300 -0.0112  0.2825  0.1471
46411W        W89505   1.508   3.205  21.619  0.0465 -0.0244  0.1263
46412W        W89506   0.766   0.337  19.572 -0.1649 -0.0141  0.0545
46413W        W89507  34.534  32.916  22.434 -0.0985 -0.2603 -0.1961
46414W        W89508  34.239   3.988  20.907  0.0728  0.3322 -0.0628
46415W        W89509  34.619   0.223  22.847  0.2058  0.1119 -0.3086
46416W        W89510  33.720   2.889  21.684 -0.0009  0.1340 -0.2994
46417W        W89511  32.281   1.854  21.239 -0.2263 -0.1919  0.0560
46418W        W89512   0.049   1.404  22.226  0.0243 -0.2596  0.3361
46419W        W89513  33.590   3.712  22.176 -0.1527  0.2547 -0.3856
46420W        W89514  32.210   0.516  23.201 -0.3520 -0.2208 -0.3690
46421W        W89515   0.012  34.391  20.824 -0.0455  0.1116 -0.0122
46422W        W89516  32.709   3.519  23.596 -0.0341 -0.1967  0.0873
46423W        W89517  33.273   1.136  22.645  0.0805  0.1259 -0.1766
46424W        W89518   0.845   1.379  21.543  0.2703 -0.4207 -0.1721
46425W        W89519  34.662   0.336  19.671  0.1881 -0.3358 -0.4908
46426W        W89520  32.763   3.486  21.978  0.0502 -0.2495  0.1246
46427W        W89521   0.064   0.784  22.754 -0.2527 -0.2136  0.1205
46428W        W89522  34.011   3.274  23.308 -0.1611 -0.0896  0.1376
46429W        W89523  33.025   2.808  20.398  0.1789  0.0117  0.0877
46430W        W89524  32.687   3.209  21.497 -0.0586 -0.1469 -0.0239
46431W        W89525   0.493   2.162  21.821 -0.0360  0.2202 -0.0236
46432W        W89526  32.774   1.086  22.673  0.1863  0.0762  0.3327
46433W        W89527   0.303   2.753  21.911  0.1247 -0.3959 -0.2870
46434W        W89528  33.331   1.036  23.169  0.0094 -0.0289 -0.1855
46435W        W89529  33.599   2.172  19.312 -0.0450 -0.1615 -0.4724
46436W        W89530  33.506   1.912  22.940 -0.0269 -0.2783  0.0940
46437W        W89531  33.693   1.657  20.994 -0.2381 -0.5997  0.0072
46438W        W89532  34.004   0.111  23.607  0.0911 -0.1988 -0.3223
46439W        W89533  33.348  34.510  23.167  0.3956  0.2414 -0.1507
46440W        W89534   0.094  34.674  22.336 -0.0408 -0.1546  0.0128
46441W        W89535   0.574   1.182  19.991 -0.0917 -0.0103  0.1521
46442W        W89536  32.421   2.274  19.856  0.1738 -0.2520  0.3296
46443W        W89537  33.167   0.485  22.317  0.3071  0.0321 -0.0331
46444W        W89538  33.778   1.276  21.634 -0.0295  0.2677 -0.1417
46445W        W89539  33.858   4.223  21.127  0.1824 -0.4014 -0.1311
46446W        W89540  34.297   3.232  21.442 -0.0114 -0.0462 -0.1560
46447W        W89541  34.554   0.640  21.080  0.0782 -0.0721 -0.0842
46448W        W89542  34.125   0.870  22.344  0.2400 -0.0665 -0.0833
46449W        W89543  32.732   0.387  19.087  0.1114  0.3946 -0.2405
46450W        W89544  33.125   2.314  19.189 -0.0779  0.0096 -0.1207
46451W        W89545  32.046   2.515  21.856  0.1616 -0.4236 -0.2719
46452W        W89546  34.233   2.918  22.972 -0.1143  0.1190 -0.1176
46453W        W89547  32.954   1.989  23.508  0.0334 -0.0401 -0.2477
46454W        W89548  33.139   0.687  21.205 -0.0149 -0.1661 -0.0730
46455W        W89549   0.487   3.207  23.133 -0.2939  0.2796  0.1145
46456W        W89550  33.482   3.261  23.001  0.0907  0.0650  0.0987
46457W        W89551  34.449   3.651  21.637  0.2656  0.1677 -0.1201
46458W        W89552   1.060   1.668  23.909 -0.1001  0.1626  0.0121
46459W        W89553  32.774   2.029  21.556  0.1994 -0.2865 -0.0064
46460W        W89554  34.114   2.105  22.625  0.1888  0.1878 -0.2027
46461W        W89555  34.685   2.103  19.643  0.1742  0.3572  0.1871
46462W        W89556  32.589   2.708  20.060 -0.1881 -0.0412 -0.0112
46463W        W89557  33.973   0.348  23.133 -0.0162 -0.6145  0.1925
46464W        W89558  33.956   0.951  17.236 -0.2216 -0.0896  0.1824
46465W        W89559   1.816   0.733  24.188  0.0521 -0.0791 -0.0757
46466W        W89560  34.308   0.635  22.891  0.0240 -0.0298 -0.1360
46467W        W89561  33.565   3.272  23.566  0.1880 -0.0190  0.0459
46468W        W89562   0.870   0.335  24.088 -0.0451 -0.1253  0.1443
46469W        W89563  33.203   3.005  21.511 -0.0331  0.1421  0.1032
46470W        W89564   0.405   1.696  21.592  0.1092 -0.1579  0.0654
46471W        W89565  32.818  34.362  22.316 -0.0942  0.2274 -0.1045
46472W        W89566  34.436   2.396  23.422  0.0962  0.3534 -0.1081
46473W        W89567  34.316   1.042  20.981 -0.1536 -0.2018 -0.1287
46474W        W89568  33.208   2.126  21.808  0.2232  0.1751 -0.0778
46475W        W89569  32.379   3.373  22.310  0.0346 -0.1352 -0.1328
46476W        W89570  32.981   1.829  19.859 -0.3032  0.1470  0.0472
46477W        W89571  32.156   1.091  20.615  0.0731  0.2488  0.2441
46478W        W89572  33.599   0.196  22.365  0.0583 -0.0558 -0.0521
46479W        W89573   0.433  34.105  21.950 -0.1225  0.2589 -0.2187
46480W        W89574  33.020   2.698  21.127 -0.0350  0.2224  0.1630
46481W        W89575   1.450   0.644  23.055 -0.4358  0.1634  0.5405
46482W        W89576  33.697   1.624  20.477 -0.2453  0.1649 -0.0077
46483W        W89577   0.279   1.252  22.762  0.0220 -0.2462  0.1064
46484W        W89578  32.658   3.475  19.709  0.1397  0.2990 -0.0336
46485W        W89579  34.413   3.881  19.291  0.0609  0.1756 -0.1812
46486W        W89580  34.007   3.767  21.798  0.1693  0.1810 -0.0774
46487W        W89581  34.330   1.213  23.556  0.0368 -0.2900 -0.2945
46488W        W89582  33.593   1.141  21.109  0.3035 -0.4601  0.2415
46489W        W89583  33.655   2.331  22.753 -0.4908  0.1668 -0.0950
46490W        W89584   0.351   0.505  22.486  0.1005 -0.5570  0.0914
46491W        W89585  33.512   0.214  23.477  0.0219  0.1627 -0.0873
46492W        W89586  34.046   3.079  23.826  0.0956  0.0831  0.1946
46493W        W89587  33.414   1.620  21.790 -0.2598 -0.1379  0.0497
46494W        W89588  32.974   1.465  23.097 -0.2345  0.1339  0.4035
46495W        W89589  34.555   2.081  22.426  0.0849 -0.2502 -0.0411
46496W        W89590   0.009   0.861  23.480  0.2181  0.0772  0.2635
46497W        W89591  34.510   2.017  23.039 -0.2234 -0.1184  0.1026
46498W        W89592  34.097   1.905  20.464  0.0784  0.0923 -0.3823
46499W        W89593  32.728   2.981  21.953 -0.1909  0.1019 -0.1317
46500W        W89594  34.343   1.179  22.014  0.0403 -0.0922  0.0404
46501W        W89595   0.527   0.024  22.070 -0.0043  0.0496 -0.1108
46502W        W89596  32.591   1.539  22.507 -0.1404  0.0638  0.1401
46503W        W89597  33.773   2.808  22.973 -0.0038  0.0115 -0.2320
46504W        W89598   0.146  33.935  21.153 -0.1907  0.1568 -0.1044
46505W        W89599  34.395   1.989  24.136  0.1973 -0.1045 -0.0488
46506W        W89600   0.313   1.989  20.524 -0.1169 -0.0757  0.1150
46507W        W89601  33.942   3.116  22.543  0.3296  0.0770 -0.2918
46508W        W89602   0.212   2.264  21.371  0.3870  0.0759 -0.1050
46509W        W89603  32.450   2.454  21.559  0.2360 -0.0010 -0.1843
46510W        W89604  33.655  33.912  22.551  0.1095  0.2803  0.1941
46511W        W89605  33.701   1.631  22.508 -0.0541 -0.3479  0.3453
46512W        W89606  32.465  33.990  23.478 -0.0855  0.0125  0.0273
46513W        W89607  34.166   2.095  21.571  0.0257  0.1321 -0.2796
46514W        W89608  33.809   1.795  21.457 -0.0391  0.2329  0.1255
46515W        W89609  34.211   2.252  19.828 -0.2766  0.1846  0.0985
46516W        W89610  33.786   1.193  22.246  0.1637  0.0615 -0.0674
46517W        W89611  33.224   4.400  24.425 -0.1773  0.1867  0.3027
46518W        W89612  33.193   1.339  19.836 -0.1362 -0.1524  0.1303
46519W        W89613   0.214   3.650  21.442  0.1801  0.2063 -0.0311
46520W        W89614   1.707   2.048  23.448  0.0760 -0.1622 -0.1265
46521W        W89615  34.624   1.429  21.095 -0.2863  0.0609  0.2652
46522W        W89616  32.623   3.691  20.620  0.8115  0.0922  0.3159
46523W        W89617  33.724   4.227  21.655 -0.0767 -0.0240  0.1135
46524W        W89618  33.135   1.403  22.105 -0.3191 -0.1541  0.3453
46525W        W89619  34.146   2.572  21.727 -0.1211  0.1555  0.0947
46526W        W89620  33.299   1.884  22.244 -0.4440 -0.3862 -0.0661
46527W        W89621  33.149   2.209  22.556 -0.2428  0.0788 -0.0483
46528W        W89622  34.172   2.284  22.128  0.1309  0.1428  0.2104
46529W        W89623  32.943   1.882  24.483  0.2604  0.0501 -0.1233
46530W        W89624   0.670   0.875  21.543  0.0171  0.0681 -0.4232
46531W        W89625  33.091   2.890  23.764 -0.2397  0.1382 -0.1158
46532W        W89626  33.436   3.320  22.510  0.2782  0.1289  0.0492
46533W        W89627  33.680   3.448  21.551  0.0101  0.2521  0.1556
46534W        W89628  34.610   1.189  20.593 -0.1121 -0.0350 -0.1472
46535W        W89629  34.039   3.688  20.526  0.0796 -0.0206 -0.3761
46536W        W89630  31.177   2.390  20.974  0.1270 -0.0574 -0.1507
46537W        W89631  33.591   3.063  21.189  0.1329 -0.2485  0.1419
46538W        W89632   0.234   1.298  23.347 -0.3249 -0.0057  0.1462
46539W        W89633   0.473   0.661  19.866  0.2965 -0.1494 -0.0743
46540W        W89634  33.994   2.002  23.127 -0.2109  0.2993 -0.2091
46541W        W89635  32.104   2.922  22.196  0.1051  0.1079 -0.2798
46542W        W89636  33.848   1.899  22.004 -0.2308  0.0657 -0.2115
46543W        W89637  34.214   1.005  21.492  0.2019  0.0974 -0.0585
46544W        W89638   0.323   0.521  20.570 -0.0435  0.1977  0.0163
46545W        W89639  34.082   4.586  21.977 -0.2353 -0.1490 -0.0029
46546W        W89640  34.058   3.772  21.310 -0.2994 -0.0947  0.3839
46547W        W89641  33.638   4.129  23.132  0.1355  0.0269 -0.5922
46548W        W89642  34.161   0.988  20.419  0.2474  0.1027  0.1177
46549W        W89643  33.988   0.363  22.635  0.0150 -0.0055 -0.2611
46550W        W89644  32.629   2.260  21.995  0.1060  0.0516 -0.0807
46551W        W89645  34.093   2.279  23.792  0.1674  0.2421  0.1585
46552W        W89646   0.428   1.172  19.368  0.2430 -0.0342  0.1156
46553W        W89647  32.563   0.510  22.613  0.0562 -0.1598  0.2729
46554W        W89648  32.937   2.359  20.737  0.0145 -0.0654  0.1700
46555W        W89649  34.474   1.578  23.258  0.0426 -0.2605 -0.1095
46556W        W89650  33.588  33.322  21.533 -0.0962 -0.0727 -0.2464
46557W        W89651  34.124   2.389  20.883 -0.0273 -0.0537  0.2493
46558W        W89652  34.597   1.650  22.676  0.0494 -0.0581 -0.2089
46559W        W89653  34.235   0.329  21.517  0.1109  0.0496  0.2537
46560W        W89654  32.249   2.046  21.738  0.3190 -0.1953  0.1913
46561W        W89655  32.354   3.534  20.226  0.3149 -0.0652  0.0440
46562W        W89656  34.450   2.907  21.057 -0.1672  0.2889 -0.1208
46563W        W89657  34.595   3.565  22.139 -0.1782 -0.0593  0.1429
46564W        W89658  33.449   2.680  24.267 -0.1041  0.2771 -0.2221
46565W        W89659  32.651   1.717  18.972 -0.0356  0.0847 -0.1073
46566W        W89660   0.602   0.985  22.425  0.0393  0.0574 -0.1647
46567W        W89661   0.256   2.364  22.205 -0.0348 -0.1092  0.2281
46568W        W89662   0.008   4.065  20.694  0.1670  0.2900  0.2371
46569W        W89663  34.121   0.432  22.130 -0.2233  0.2976  0.1214
46570W        W89664  34.552   0.250  21.979  0.2822  0.1116  0.1195
46571W        W89665  33.682   2.445  23.314 -0.0838 -0.2793  0.0416
46572W        W89666  34.548   0.650  20.484  0.0708  0.1374 -0.0473
46573W        W89667  32.828   1.741  21.158 -0.0209 -0.3256  0.0102
46574W        W89668  33.579   1.398  22.968  0.3487  0.0165  0.2192
46575W        W89669  33.428   0.300  22.914 -0.0708 -0.1014 -0.1225
46576W        W89670  33.507   2.607  21.361  0.2171  0.0796 -0.2779
46577W        W89671  33.923   0.617  21.268  0.0577 -0.2253  0.0423
46578W        W89672  33.417  33.891  22.031 -0.0900 -0.1704  0.2119
46579W        W89673  32.328   0.449  22.151  0.1898 -0.0349  0.1168
46580W        W89674  33.543   1.764  19.993  0.2355  0.1622  0.2624
46581W        W89675  33.182   2.244  21.191  0.2640  0.1838 -0.4760
46582W        W89676  34.179   1.575  22.325 -0.0567 -0.1576 -0.3758
46583W        W89677   0.519   0.812  23.362 -0.0193  0.1238 -0.0798
46584W        W89678  33.335   0.808  19.883 -0.1531  0.2509  0.0745
46585W        W89679   0.060  34.482  21.867 -0.2078 -0.1322 -0.1899
46586W        W89680   0.429   3.674  23.305 -0.1096 -0.0275 -0.2063
46587W        W89681  34.337   3.931  23.053 -0.0289  0.0239 -0.0938
46588W        W89682  32.950   0.224  23.199  0.2748  0.0977  0.0786
46589W        W89683   0.203   2.724  24.279  0.2181  0.1236  0.2008
46590W        W89684  33.516  33.153  23.299 -0.0532 -0.0294 -0.0911
46591W        W89685  34.665   2.286  23.838 -0.3120  0.4291 -0.0283
46592W        W89686   0.856  33.882  22.947 -0.1660  0.2521 -0.1334
46593W        W89687  32.924   1.939  22.936 -0.0441  0.0249 -0.0055
46594W        W89688  34.144   1.459  20.247  0.0792 -0.4270  0.2071
46595W        W89689   0.309   0.451  23.121  0.2806 -0.0257  0.1637
46596W        W89690  33.992   0.479  20.302  0.1147 -0.1651  0.0283
46597W        W89691   0.733   3.571  22.827  0.0792 -0.1754 -0.2270
46598W        W89692  33.679  33.068  22.032  0.1577 -0.2457  0.3434
46599W        W89693  33.312   1.315  21.435  0.1934 -0.0359  0.0512
46600W        W89694  33.729   2.304  22.252  0.1235 -0.0829  0.0271
46601W        W89695   0.001  34.105  22.292 -0.0954  0.6096 -0.3762
46602W        W89696  34.466   4.439  23.988  0.1104  0.0255 -0.0875
46603W        W89697  33.714   2.469  25.445 -0.1783 -0.0956  0.0980
46604W        W89698  34.614   3.775  24.832 -0.1162 -0.0465  0.1493
46605W        W89699  32.792   1.567  25.447  0.1084  0.1478  0.0642
46606W        W89700  34.044  34.634  25.647 -0.1819 -0.0158 -0.1032
46607W        W89701  34.577   1.843  26.260  0.0584 -0.1156 -0.2538
46608W        W89702  34.221   2.740  26.292 -0.1359  0.0115 -0.3918
46609W        W89703  33.729  34.313  24.795 -0.1401  0.0485 -0.0087
46610W        W89704  33.027   0.865  24.401 -0.3106  0.3884  0.1103
46611W        W89705  33.419   1.697  24.870  0.2057  0.0536 -0.2410
46612W        W89706  33.979   1.494  25.838 -0.0321  0.1981  0.2029
46613W        W89707   0.509   1.223  25.924  0.2466 -0.1382  0.0056
46614W        W89708  34.166   1.240  26.423  0.2111  0.1862 -0.0325
46615W        W89709   0.473   3.197  24.232 -0.1808  0.1246  0.0540
46616W        W89710  33.583   1.564  23.819 -0.1659 -0.0250  0.2083
46617W        W89711  32.293   1.475  25.457  0.5346 -0.1175  0.4390
46618W        W89712  34.426   1.280  25.359 -0.1780 -0.1330 -0.2729
46619W        W89713  33.845   4.971  24.445  0.1031 -0.0760 -0.2815
46620W        W89714   0.775   2.898  25.025 -0.2306  0.1175  0.1303
46621W        W89715  33.622   3.142  24.067  0.0576 -0.0315  0.0049
46622W        W89716  33.822   3.636  24.842 -0.1590 -0.1033  0.0559
46623W        W89717  34.532   1.576  25.825  0.4006  0.0562  0.2316
46624W        W89718  33.981   4.069  26.599 -0.0899  0.2024  0.5186
46625W        W89719  32.990   3.545  22.971  0.2531  0.0062  0.3083
46626W        W89720  34.120   3.255  26.940 -0.1791  0.2223 -0.1333
46627W        W89721   0.761   3.631  24.273  0.1122  0.0433  0.0856
46628W        W89722   0.226   2.630  25.742  0.2829  0.1309 -0.0505
46629W        W89723   0.004   2.446  27.027 -0.1036 -0.2359 -0.1169
46630W        W89724  32.453   2.946  24.711  0.2316  0.0059  0.2251
46631W        W89725   0.672   3.361  24.710 -0.0500  0.2286  0.2100
46632W        W89726  34.012   0.112  24.804 -0.0826 -0.1022  0.4357
46633W        W89727  34.189   0.631  25.692 -0.0050 -0.0311 -0.1217
46634W        W89728  33.968   3.066  25.152 -0.0208  0.1742  0.1941
46635W        W89729   0.303   0.224  25.824 -0.0485  0.1773  0.1121
46636W        W89730  33.535   4.329  28.721  0.0371 -0.2234 -0.1751
46637W        W89731  32.594   3.360  24.544 -0.0053 -0.3552  0.0247
46638W        W89732  33.936   1.131  25.465  0.2742 -0.1245  0.1485
46639W        W89733  33.700   2.595  26.447 -0.1943 -0.0535 -0.0096
46640W        W89734   0.512   2.301  27.651  0.3831  0.0942  0.1564
46641W        W89735  33.849   0.436  24.381  0.1254  0.4120  0.0014
46642W        W89736  33.383   3.507  27.629 -0.2480 -0.0080  0.2485
46643W        W89737   0.340   3.514  25.512 -0.0646  0.1396  0.0085
46644W        W89738  34.359   2.685  23.923  0.0252 -0.3697 -0.3315
46645W        W89739   0.107   0.691  25.664 -0.0312 -0.0079  0.1429
46646W        W89740  34.500   3.228  25.602 -0.1598 -0.1238 -0.1002
46647W        W89741   0.148   2.282  26.150  0.0690  0.2079 -0.2650
46648W        W89742  34.225   2.222  26.296 -0.0515 -0.0366  0.0800
46649W        W89743  32.691   4.500  24.740 -0.3060  0.1864  0.2626
46650W        W89744  32.502   1.921  25.274  0.0464 -0.0878 -0.1948
46651W        W89745  34.397   3.588  24.224  0.3300 -0.1499 -0.3672
46652W        W89746  34.178   2.253  25.517 -0.3602 -0.1210 -0.0177
46653W        W89747  33.736   2.959  26.021  0.0315 -0.1267  0.2449
46654W        W89748  32.392   0.007  26.215  0.1368 -0.1841  0.0859
46655W        W89749  32.767   4.095  25.143  0.0517  0.0876  0.0455
46656W        W89750  32.863   2.562  27.535  0.1470 -0.1525  0.4054
46657W        W89751  33.680   1.307  26.203  0.1362 -0.1068 -0.1102
46658W        W89752  34.197   1.964  25.867 -0.0237 -0.0071  0.1988
46659W        W89753  33.357   0.957  26.276  0.3705  0.2663 -0.1366
46660W        W89754  32.984   0.674  23.898  0.0406 -0.0855 -0.1318
46661W        W89755  34.457   1.061  25.876  0.2188 -0.2309  0.0325
46662W        W89756  32.228   3.580  24.271 -0.0460  0.0568  0.0922
46663W        W89757  32.485   2.135  26.207  0.0669  0.2359  0.1567
46664W        W89758  34.195   1.071  24.021 -0.1959 -0.0419 -0.0199
46665W        W89759  34.463   4.961  26.144  0.0044  0.0150 -0.0010
46666W        W89760  34.216   3.321  24.731  0.0755  0.1039 -0.6019
46667W        W89761  33.102   1.364  24.626 -0.0848 -0.4158  0.1862
46668W        W89762  32.611   2.524  24.951 -0.4348 -0.3108 -0.1367
46669W        W89763  32.633   1.120  24.009  0.4055  0.0911 -0.1194
46670W        W89764   0.145   4.183  25.080  0.0372 -0.0224 -0.1090
46671W        W89765  33.377   2.586  26.130 -0.0398 -0.1352  0.0686
46672W        W89766   0.905   4.684  25.789  0.3542 -0.0296  0.1543
46673W        W89767  33.639   3.498  25.300 -0.0258 -0.1811 -0.1903
46674W        W89768  33.603   1.273  24.688  0.0507 -0.0049 -0.1035
46675W        W89769  33.916   3.551  27.295 -0.0443 -0.1941  0.1201
46676W        W89770  32.368   3.783  28.185  0.2023 -0.2522  0.1007
46677W        W89771   0.135   3.663  26.241 -0.1265 -0.0249 -0.3775
46678W        W89772   0.389   3.226  25.958 -0.2839 -0.0838  0.2027
46679W        W89773  32.250   2.797  25.633 -0.3203  0.0255  0.2181
46680W        W89774   0.238   0.924  27.084  0.1170 -0.0044  0.0710
46681W        W89775  34.525   1.045  23.092  0.2688  0.1932 -0.1908
46682W        W89776  32.213   4.719  24.460  0.0289 -0.1880 -0.0383
46683W        W89777   1.050   0.034  27.290 -0.3919 -0.0174  0.0313
46684W        W89778  33.932   1.128  23.201 -0.0106 -0.0533 -0.1543
46685W        W89779   0.614   0.242  27.470  0.1130  0.4575  0.0507
46686W        W89780  33.734   1.552  26.607 -0.1748  0.0427  0.2558
46687W        W89781  33.638   3.951  25.627 -0.0523  0.1094 -0.2555
46688W        W89782   0.048   0.355  27.702  0.2162  0.1089  0.2355
46689W        W89783  33.997   4.542  24.364 -0.1843  0.0464 -0.0839
46690W        W89784  34.109   3.549  23.800 -0.0018 -0.0056  0.2090
46691W        W89785   0.398  33.656  26.170  0.1189  0.0372 -0.0357
46692W        W89786   1.182   3.082  25.463 -0.1559  0.0550  0.1022
46693W        W89787   0.790   4.273  25.568  0.1029  0.2524  0.0046
46694W        W89788  34.125   4.040  24.099  0.1008 -0.0589 -0.0911
46695W        W89789  32.927   4.634  26.132  0.2378  0.2033 -0.3307
46696W        W89790  33.085   3.087  24.326  0.1445 -0.2362  0.3154
46697W        W89791  32.230   2.544  24.533 -0.1658 -0.2953 -0.1357
46698W        W89792   0.028  34.631  27.421  0.0308  0.0529 -0.1900
46699W        W89793   0.406  34.602  26.183  0.1216 -0.0306  0.2141
46700W        W89794  33.151   3.368  25.439 -0.0349 -0.0572 -0.1663
46701W        W89795  34.290   3.234  27.561 -0.0171  0.0310  0.0061
46702W        W89796  31.429   1.135  23.101 -0.1759  0.1355 -0.2278
46703W        W89797   0.896   1.647  25.968  0.1791  0.1951  0.0699
46704W        W89798  33.378   2.859  23.302  0.0494 -0.0020 -0.1199
46705W        W89799  33.065   2.549  24.655  0.0846  0.1138  0.2200
46706W        W89800  33.952   2.722  24.152  0.3036 -0.0231 -0.1456
46707W        W89801  34.010   0.868  27.352  0.1477  0.1018  0.0263
46708W        W89802  34.685  34.436  25.994  0.3453  0.3503  0.3457
46709W        W89803  34.619   0.395  23.887  0.0014  0.0202  0.0620
46710W        W89804   0.289   0.170  27.033 -0.1806  0.1471 -0.1566
46711W        W89805  34.427   2.430  25.940 -0.2069 -0.0052 -0.0225
46712W        W89806  33.253   3.548  27.103  0.1702  0.0197  0.3538
46713W        W89807  32.150   3.110  25.201  0.1408  0.2953 -0.0246
46714W        W89808  33.052   2.545  25.248  0.0090  0.0061 -0.1757
46715W        W89809  33.596   1.489  25.429  0.1153 -0.0547 -0.1882
46716W        W89810  34.446  34.638  26.997  0.3031  0.1943  0.0560
46717W        W89811  33.455   2.245  25.052 -0.1384  0.1035 -0.0343
46718W        W89812  34.636   2.932  26.061 -0.0703  0.2979  0.0014
46719W        W89813  33.855   3.561  26.521 -0.0953  0.2213 -0.3379
46720W        W89814  33.934   1.183  26.940 -0.0341 -0.0867  0.1900
46721W        W89815  34.413  33.479  26.963 -0.1287  0.0300  0.0403
46722W        W89816  33.291   1.208  26.697  0.0963 -0.3998 -0.0656
46723W        W89817  34.044   2.884  27.307  0.1512 -0.4229  0.0478
46724W        W89818  33.004   0.209  23.710 -0.2032  0.0717  0.1408
46725W        W89819  32.845   2.428  26.065  0.3439 -0.1655 -0.0847
46726W        W89820   0.878   3.790  24.942 -0.0887  0.3184  0.0056
46727W        W89821  34.407   2.481  24.372 -0.1984 -0.2157 -0.2393
46728W        W89822   0.048   1.697  25.329 -0.1544 -0.1375 -0.3578
46729W        W89823  34.633   2.581  24.882  0.1994 -0.4457 -0.2896
46730W        W89824  34.514   0.406  27.073  0.2728  0.0218 -0.1867
46731W        W89825  34.480   1.191  27.144  0.0765  0.3150 -0.1958
46732W        W89826  33.662   2.682  26.911  0.1402  0.0593  0.0122
46733W        W89827  33.458   1.048  25.794 -0.1575 -0.1279 -0.4251
46734W        W89828  33.010   1.504  23.990  0.3640 -0.0026  0.0534
46735W        W89829   0.199   2.767  23.146 -0.4420  0.2928 -0.0027
46736W        W89830  32.042   1.084  25.908  0.2524 -0.1474 -0.0229
46737W        W89831  34.514   3.067  26.597 -0.3472 -0.1299  0.1352
46738W        W89832  33.707   0.757  22.973  0.3289  0.0611 -0.0645
46739W        W89833  34.438   1.534  24.441  0.3170 -0.2466  0.2763
46740W        W89834   1.457   3.130  26.940  0.0428  0.1639  0.0202
46741W        W89835  34.496   0.209  25.633  0.0559  0.1919 -0.0030
46742W        W89836  34.044   1.655  24.766 -0.1342 -0.4497  0.0288
46743W        W89837  34.129   3.528  25.259 -0.0181 -0.2389 -0.3136
46744W        W89838  32.722   3.443  25.996 -0.2562  0.0027  0.0599
46745W        W89839   0.763   4.818  25.148 -0.2527  0.0902  0.1837
46746W        W89840  34.648   2.051  25.634  0.3714  0.2593  0.0791
46747W        W89841  33.730   2.974  24.639 -0.2418  0.2964 -0.2919
46748W        W89842  34.183   4.064  24.599 -0.1079 -0.1123 -0.2330
46749W        W89843  32.960   2.182  27.014  0.0399 -0.0864 -0.0570
46750W        W89844  33.907  33.553  24.571  0.0131  0.1626 -0.4236
46751W        W89845  33.846   3.888  28.740 -0.3182  0.0939 -0.1698
46752W        W89846  33.830   2.090  27.784 -0.2188  0.3180  0.2500
46753W        W89847  32.877   4.630  25.316  0.1141 -0.0598  0.3275
46754W        W89848  34.692   0.989  23.968 -0.0267 -0.0995 -0.0610
46755W        W89849  33.399   3.483  24.435  0.1283  0.3121  0.2329
46756W        W89850  31.741   3.273  24.246  0.0425 -0.2543 -0.3370
46757W        W89851  34.395   4.843  24.832  0.0880  0.1015 -0.1823
46758W        W89852  34.567   1.271  24.854 -0.2428 -0.2465 -0.2786
46759W        W89853  33.461   0.627  24.040  0.2664  0.2560  0.0296
46760W        W89854  34.195   3.434  28.001 -0.0050 -0.0903  0.0261
46761W        W89855  32.549   3.402  27.513 -0.0434 -0.1456 -0.1085
46762W        W89856  33.456   2.174  24.544 -0.1294  0.1726  0.1443
46763W        W89857   0.627   0.703  25.813  0.1671 -0.0168 -0.2259
46764W        W89858  33.621   2.298  24.040 -0.1130  0.0226 -0.1162
46765W        W89859   1.006   4.362  26.202 -0.0042  0.3315  0.1626
46766W        W89860  33.199   2.639  26.575  0.0463 -0.0824  0.0957
46767W        W89861  33.713   1.931  25.690 -0.0303  0.0913 -0.1270
46768W        W89862  32.666   1.982  24.100  0.0137  0.1430  0.0945
46769W        W89863  33.875   1.964  25.138 -0.2160  0.0568  0.2783
46770W        W89864  34.365   0.697  26.382 -0.2364 -0.1113 -0.0623
46771W        W89865  33.378   2.237  26.808  0.0059  0.1069 -0.2614
46772W        W89866   1.312   0.834  23.545  0.3776 -0.0494 -0.1737
46773W        W89867  33.101   0.456  24.737 -0.0380  0.0770 -0.2137
46774W        W89868  34.515   2.695  25.375  0.2501 -0.3795 -0.0675
46775W        W89869  33.872   2.370  25.991 -0.0168 -0.1403 -0.1752
46776W        W89870  34.401  34.616  25.160 -0.1630  0.3929 -0.4215
46777W        W89871   1.126   4.510  24.189 -0.1849 -0.1141 -0.1133
46778W        W89872  32.637   2.814  24.109 -0.0172  0.2364 -0.1612
46779W        W89873   0.900  33.721  24.246 -0.0401 -0.2977  0.2910
46780W        W89874  34.010   0.940  26.045 -0.3764 -0.2095 -0.1189
46781W        W89875  33.860   4.531  25.667  0.2096  0.3224 -0.2251
46782W        W89876   1.125   4.874  23.865 -0.3538  0.3550  0.1143
46783W        W89877   0.535   2.166  27.179 -0.1354 -0.0019  0.0476
46784W        W89878  32.967   2.979  28.246  0.1936 -0.1759  0.0480
46785W        W89879  33.013   2.350  24.200 -0.2129 -0.0578  0.0735
46786W        W89880   0.246   3.267  27.473 -0.2278 -0.0898 -0.3477
46787W        W89881   0.372   4.050  25.529 -0.3077 -0.0053  0.1877
46788W        W89882  34.215   2.846  24.746 -0.0043  0.2479  0.1526
46789W        W89883  33.878   0.577  24.880 -0.1061 -0.2635 -0.0119
46790W        W89884  34.421   0.172  26.132  0.2517  0.0926 -0.0060
46791W        W89885  33.390   3.697  26.623  0.0156  0.0781 -0.1091
46792W        W89886  32.949   0.945  25.497  0.1337 -0.3470 -0.2186
46793W        W89887  34.230   1.538  23.954  0.3146 -0.2090 -0.1830
46794W        W89888  34.086   2.572  25.149 -0.0887 -0.3260  0.2582
46795W        W89889  34.294   2.386  28.150 -0.1704 -0.0202 -0.0346
46796W        W89890  34.051   2.759  23.456 -0.0830  0.0734  0.1638
46797W        W89891  32.600   1.180  25.194  0.1392  0.0431 -0.1460
46798W        W89892  33.315   1.754  25.872  0.0792  0.2819 -0.0866
46799W        W89893  32.590   1.247  25.790  0.2420 -0.0686  0.1207
46800W        W89894  34.048   0.626  23.884  0.0700  0.0312 -0.3631
46801W        W89895  33.557   1.980  23.489  0.1727 -0.0873 -0.1648
46802W        W89896  34.399   1.251  27.747 -0.0966 -0.0226 -0.0409
46803W        W89897  33.777   0.411  27.608 -0.2410 -0.0512 -0.0576
46804W        W89898  31.905   1.353  23.206  0.2908 -0.2385  0.0794
46805W        W89899   0.697   1.062  25.430  0.2765 -0.1325 -0.0310
46806W        W89900  32.500   2.369  27.127  0.0715 -0.0441 -0.0926
46807W        W89901   0.473   2.703  26.370  0.1718  0.0116  0.0612
46808W        W89902  31.941  34.417  26.216  0.2321 -0.1912  0.0944
46809W        W89903   0.799   3.429  26.424 -0.0569 -0.0973  0.3148
46810W        W89904  32.668  34.550  25.378  0.3417  0.1108  0.0573
46811W        W89905  34.494   3.189  28.336 -0.0211 -0.1256 -0.1710
46812W        W89906  33.472   0.741  24.619  0.0001 -0.1734  0.1191
46813W        W89907  33.489   2.831  25.089 -0.0226 -0.3919  0.2929
46814W        W89908  34.434   0.451  24.870  0.0456  0.0540  0.1352
46815W        W89909  34.065   2.716  25.725 -0.3705  0.0666 -0.0537
46816W        W89910  33.456   1.675  24.335 -0.0095 -0.2103  0.0986
46817W        W89911  34.633   2.584  26.497 -0.1715 -0.0186 -0.0793
46818W        W89912  33.290   0.572  25.205  0.1237  0.1991 -0.4346
46819W        W89913  33.782   0.917  24.257 -0.1969 -0.3443  0.0745
46820W        W89914   0.432   1.318  25.033  0.0756 -0.1225  0.0524
46821W        W89915  33.702   0.639  25.507 -0.2643  0.3216 -0.1288
46822W        W89916  34.218   3.733  26.040 -0.1555 -0.2770 -0.2011
46823W        W89917   0.040   3.713  29.692  0.1619 -0.0920  0.2076
46824W        W89918  33.737   1.970  28.802 -0.2600 -0.1876 -0.1256
46825W        W89919  33.838   0.789  29.510 -0.0638  0.0561 -0.2078
46826W        W89920  33.873  33.858  30.519 -0.0184  0.2557  0.1061
46827W        W89921  33.927   2.133  29.222 -0.1560 -0.0936 -0.0808
46828W        W89922  34.318   3.438  29.299 -0.3032 -0.0329 -0.0430
46829W        W89923   0.717  34.421  28.465  0.2151  0.0247 -0.1995
46830W        W89924  32.213   0.449  29.595  0.2557 -0.0107 -0.3442
46831W        W89925  34.176   2.451  27.577 -0.1465 -0.0527 -0.4095
46832W        W89926  34.166   2.480  29.498 -0.0758 -0.1738  0.0550
46833W        W89927   0.219   1.519  29.006  0.0980  0.0905  0.2180
46834W        W89928  34.372   0.638  30.766 -0.0476  0.0187 -0.1020
46835W        W89929   1.254   3.360  28.529  0.1780 -0.2519 -0.0563
46836W        W89930  34.232   0.714  28.879 -0.2059  0.1494 -0.1692
46837W        W89931  33.000   2.528  29.959 -0.0313 -0.0471 -0.0055
46838W        W89932   0.003   2.394  28.772 -0.2493 -0.4235 -0.2732
46839W        W89933   0.397   3.291  30.924  0.2535  0.1203  0.1393
46840W        W89934   0.020   3.257  29.891 -0.2278 -0.4540  0.1313
46841W        W89935  34.125   2.996  29.339 -0.0635 -0.0241 -0.1310
46842W        W89936  33.501   4.094  29.286 -0.1332 -0.1737  0.1463
46843W        W89937  33.700   3.896  26.991 -0.2787  0.0146 -0.2621
46844W        W89938   0.032   2.297  31.128 -0.2062 -0.0490  0.1955
46845W        W89939  33.381   3.881  28.469 -0.0486 -0.2286 -0.2654
46846W        W89940   0.069   3.208  30.492 -0.2978  0.1796 -0.0497
46847W        W89941   0.069   2.941  28.647 -0.1454  0.2704  0.1146
46848W        W89942   0.832   2.580  29.571 -0.1094 -0.2280  0.1053
46849W        W89943  34.315   2.473  30.148 -0.1341  0.1146 -0.1116
46850W        W89944  34.367   3.046  30.174 -0.0712 -0.0374 -0.1836
46851W        W89945  34.018   3.979  28.140  0.0328  0.1221  0.3757
46852W        W89946  34.224   0.277  26.608 -0.0994 -0.1975 -0.0512
46853W        W89947   0.360   1.831  30.062 -0.0191  0.3446  0.2167
46854W        W89948  34.336   2.879  28.018 -0.1441  0.2841  0.0021
46855W        W89949  34.387  34.345  31.065  0.0693 -0.3975  0.3850
46856W        W89950  33.858   3.092  31.379 -0.2550 -0.4519  0.2177
46857W        W89951  33.483   2.264  29.218  0.0032  0.2641  0.3168
46858W        W89952  33.878   1.632  28.002  0.0865  0.1757 -0.2958
46859W        W89953  34.506   2.795  30.598  0.1651 -0.2209 -0.2421
46860W        W89954  33.054   2.245  29.495 -0.0089 -0.1457  0.1393
46861W        W89955  33.715  33.995  28.416 -0.1032 -0.0103 -0.2673
46862W        W89956  33.378   1.597  31.106 -0.0958  0.1392 -0.0040
46863W        W89957  34.437   1.363  30.322  0.1767 -0.1965 -0.0672
46864W        W89958  34.341   1.866  27.900 -0.0034 -0.2049 -0.1213
46865W        W89959   0.023   2.612  28.203  0.0517  0.0940  0.2590
46866W        W89960   0.257   4.328  29.190 -0.0418 -0.0261  0.0213
46867W        W89961  34.164   1.452  29.838 -0.0007  0.0083 -0.0589
46868W        W89962   0.120   2.272  30.640  0.1463  0.3157  0.1413
46869W        W89963  33.163   4.409  28.270  0.1117  0.1635 -0.0849
46870W        W89964  33.645   1.952  30.286  0.1157  0.0993  0.0238
46871W        W89965  33.759   2.625  29.374  0.1702 -0.0407  0.3862
46872W        W89966  33.665   1.381  28.824 -0.0785 -0.0073  0.0647
46873W        W89967   0.085   2.955  29.229 -0.1614  0.1075 -0.1160
46874W        W89968  32.367   1.668  29.867  0.1132  0.1075 -0.2233
46875W        W89969  34.181   2.223  28.728 -0.1216  0.0292 -0.0330
46876W        W89970  32.427   2.385  30.871  0.0865 -0.0951  0.1730
46877W        W89971   0.321   1.428  29.573 -0.0429  0.0002  0.0238
46878W        W89972  34.172   2.960  31.036 -0.0537  0.4126  0.0768
46879W        W89973  32.595   1.115  30.447 -0.2915  0.2373  0.0263
46880W        W89974  33.772   0.502  28.733 -0.0122  0.1840 -0.0409
46881W        W89975   0.715   2.156  29.318 -0.4008  0.0227  0.3598
46882W        W89976  32.917   2.429  28.489  0.1378 -0.2409 -0.0427
46883W        W89977  34.384   0.407  30.262 -0.1093  0.2674  0.0317
46884W        W89978  33.818   0.277  28.285 -0.0091 -0.1095  0.2255
46885W        W89979  34.418   3.898  28.752 -0.0871  0.0148  0.0564
46886W        W89980  33.476   3.307  28.643  0.7022  0.0444 -0.0879
46887W        W89981  34.202   0.659  28.363  0.6480 -0.1023 -0.0393
46888W        W89982   0.371   2.930  30.157  0.2849  0.1054 -0.4405
46889W        W89983  33.968  34.121  27.855 -0.1477  0.3275  0.1552
46890W        W89984  33.831   4.659  28.498  0.1297  0.1377 -0.1721
46891W        W89985  33.049   0.671  29.011 -0.1738  0.0815 -0.3950
46892W        W89986   0.268   3.384  28.393 -0.4425  0.4477  0.0929
46893W        W89987  33.237   1.187  30.294 -0.0423  0.1248  0.1168
46894W        W89988  33.897   2.568  27.971 -0.1077  0.2645  0.3089
46895W        W89989   0.383   1.458  31.290  0.1584 -0.4619 -0.1071
46896W        W89990  34.689   1.261  30.914  0.1720 -0.0875  0.0919
46897W        W89991   0.642   3.571  27.385 -0.1475 -0.0353 -0.3729
46898W        W89992   1.219   1.539  30.018  0.2653 -0.0643  0.2293
46899W        W89993  33.302   2.723  31.079 -0.0159 -0.3190 -0.1039
46900W        W89994  32.876   0.662  30.534  0.0827 -0.3589 -0.1679
46901W        W89995   0.417   0.705  28.359  0.3243  0.2949 -0.3383
46902W        W89996  32.818   4.548  27.903  0.0798  0.0503 -0.2488
46903W        W89997  32.491   0.252   0.248 -0.1243 -0.1603 -0.0602
46904W        W89998  34.491   1.549  28.263  0.0786  0.2035  0.1095
46905W        W89999   0.267   1.281  30.097  0.1836  0.2598  0.2355
46906W        W90000  34.265   1.545  30.747  0.0688 -0.0112  0.3029
46907W        W90001  34.274   3.824  31.967 -0.2694 -0.1342  0.0764
46908W        W90002   0.122   0.479  29.930 -0.1079 -0.0288  0.0074
46909W        W90003  33.475   3.935  27.394 -0.5201  0.3264 -0.0429
46910W        W90004  32.803   3.565  28.619 -0.0428 -0.2676  0.2131
46911W        W90005  34.649   0.931  30.326  0.2100 -0.0523  0.0772
46912W        W90006   1.399   3.975  30.033  0.4691 -0.1858 -0.3065
46913W        W90007  32.887   4.758  27.321 -0.0509 -0.0224  0.2847
46914W        W90008  34.177   3.461  28.545  0.2319  0.1319  0.2965
46915W        W90009  33.363   3.315  30.359 -0.0887 -0.0228  0.1378
46916W        W90010  34.316  34.176  26.891 -0.4775 -0.1246 -0.0566
46917W        W90011  32.638   2.781  29.032 -0.0798  0.2360 -0.0173
46918W        W90012  33.027   1.882  30.390  0.1951 -0.0236 -0.1426
46919W        W90013   1.036   0.569  29.810 -0.1631 -0.3243  0.0103
46920W        W90014   0.462   3.803  30.734 -0.1505 -0.3759 -0.1081
46921W        W90015  34.279   1.899  29.576  0.3321 -0.0847  0.0983
46922W        W90016  33.354   2.033  28.162  0.0501  0.3028 -0.1911
46923W        W90017  33.874   2.994  28.759 -0.0757  0.2230  0.0519
46924W        W90018  32.169   3.550  29.139 -0.0671 -0.2271 -0.1205
46925W        W90019   0.092   1.045  29.176 -0.1703  0.1497  0.1998
46926W        W90020   0.477   2.625  28.572  0.0368  0.0871  0.0514
46927W        W90021  34.330   0.391   0.390  0.3001 -0.1062  0.0291
46928W        W90022  33.775   2.283  29.777 -0.0382 -0.1087 -0.1460
46929W        W90023  34.565   1.489  29.363  0.1071 -0.0460  0.2886
46930W        W90024   0.971   2.191  28.782 -0.2454  0.1719  0.2939
46931W        W90025  33.372   1.628  30.042 -0.0056  0.1924 -0.0275
46932W        W90026  33.823   2.464  30.266  0.0815 -0.1266 -0.3106
46933W        W90027  34.336   2.697  28.547  0.0999  0.3441 -0.1084
46934W        W90028  32.514   2.727  30.072  0.2715 -0.1803 -0.0602
46935W        W90029  34.164   2.611  29.015  0.3005  0.1514 -0.0172
46936W        W90030  33.675   1.003  30.466  0.1101  0.1975 -0.1073
46937W        W90031  33.280   1.832  31.511 -0.0630 -0.1979 -0.0712
46938W        W90032   0.495   2.650  28.011 -0.1477 -0.3392  0.1793
46939W        W90033   0.005   3.901  29.138  0.1668 -0.1016 -0.1518
46940W        W90034   0.046   1.017  29.729 -0.4762 -0.2910  0.0484
46941W        W90035  34.158   0.916  30.420  0.0058  0.0157  0.0613
46942W        W90036  32.016   1.038  30.406 -0.1554 -0.2824  0.0545
46943W        W90037  33.768   1.279  30.887  0.5599 -0.3483  0.5684
46944W        W90038  34.675   0.494  28.560  0.2227  0.1184  0.1967
46945W        W90039   0.604   0.522  27.954 -0.2420 -0.0618  0.1494
46946W        W90040   0.775   3.057  27.192 -0.0115 -0.1150  0.1808
46947W        W90041  32.881   3.087  31.106 -0.0061 -0.0001 -0.0092
46948W        W90042   0.359   1.468  27.211  0.1352  0.0770  0.0140
46949W        W90043  33.487   2.722  29.876  0.0658  0.0244  0.0649
46950W        W90044  33.824   1.120  29.933 -0.2669 -0.0346 -0.1328
46951W        W90045  34.297   2.187  30.592  0.0689 -0.0211  0.3193
46952W        W90046  32.886   1.696  31.108 -0.0962  0.1840  0.0194
46953W        W90047  33.238   1.785  29.611  0.0415  0.0652 -0.3486
46954W        W90048  33.964  33.496  27.635  0.0088 -0.0006 -0.2174
46955W        W90049   1.149   3.943  28.387  0.0076  0.2578 -0.2911
46956W        W90050  33.098   1.443  29.279 -0.1693  0.2359 -0.1380
46957W        W90051   0.480   3.255   0.718  0.2832 -0.0609  0.0818
46958W        W90052  33.798   0.954  28.599 -0.4153  0.0357  0.2708
46959W        W90053  34.660   2.686  27.652 -0.1969  0.4856  0.0734
46960W        W90054   0.284   2.451  29.165 -0.0802 -0.0189 -0.1901
46961W        W90055  34.442   1.285  28.822 -0.2273 -0.0606  0.0339
46962W        W90056  33.374   2.273  28.611 -0.1774  0.3242 -0.3265
46963W        W90057  34.681   4.226  29.571 -0.2022 -0.0893  0.1758
46964W        W90058  32.724   2.767  30.699  0.2704 -0.2813 -0.3191
46965W        W90059   0.626   0.996  28.063  0.1406 -0.1147 -0.0301
46966W        W90060   1.934   2.682  28.617  0.1412 -0.4454  0.3028
46967W        W90061  33.575   3.185  29.160  0.0664  0.0734 -0.2994
46968W        W90062  33.804   1.760  29.648  0.1834 -0.1846  0.0252
46969W        W90063  30.664   1.412  31.475  0.0272 -0.2783 -0.0865
46970W        W90064  34.299   1.047  29.464 -0.0258 -0.0918  0.2249
46971W        W90065  34.231   2.083  31.191  0.5386 -0.1191  0.0917
46972W        W90066  31.420   1.767  30.379  0.1357  0.3115 -0.2540
46973W        W90067  33.822   3.584  29.458 -0.3913  0.1878  0.0610
46974W        W90068  33.451   0.403  27.152  0.1094 -0.1435 -0.1281
46975W        W90069  34.493   3.574  30.214  0.2558 -0.2747 -0.4408
46976W        W90070  32.982   3.660  29.049  0.4457  0.1767 -0.4650
46977W        W90071   0.276   4.760  28.944 -0.1673  0.0378  0.1627
46978W        W90072  34.539   2.151  29.166 -0.1658  0.1707 -0.1222
46979W        W90073  34.146   0.192  28.748  0.2806 -0.0296  0.1960
46980W        W90074   0.189   0.274  31.646  0.2775  0.3818 -0.1457
46981W        W90075  34.146   3.286  29.782 -0.1836 -0.0494  0.0558
46982W        W90076  34.252   0.454  29.770  0.2926  0.1321  0.1798
46983W        W90077  34.676   2.170  29.763  0.1447 -0.3772 -0.2533
46984W        W90078  33.857   2.144  26.656  0.2501 -0.0481 -0.1778
46985W        W90079   0.013   3.489  27.813 -0.1620  0.1797 -0.4218
46986W        W90080  34.276   3.309  30.665 -0.0628 -0.0372  0.1487
46987W        W90081  34.447   4.380  29.102  0.0410 -0.0299  0.0186
46988W        W90082  32.680   1.008  27.695  0.3014  0.0553  0.0960
46989W        W90083  34.548   0.254  31.180  0.2930 -0.1022 -0.1035
46990W        W90084  33.914   0.584  30.128  0.3858 -0.0072  0.3260
46991W        W90085  33.164   2.828  30.307  0.5903  0.0703  0.0699
46992W        W90086  34.575   0.839  27.532  0.1881 -0.1832 -0.0249
46993W        W90087  34.618   0.162  29.522  0.0373  0.1408  0.1476
46994W        W90088   0.249   1.763  28.088  0.2202 -0.0830  0.2820
46995W        W90089   0.663   1.425  29.928  0.1568 -0.0302  0.1638
46996W        W90090  33.753   0.110  29.066 -0.1926  0.0636  0.1148
46997W        W90091  33.939   4.043  27.406 -0.0649 -0.4257 -0.0111
46998W        W90092  32.979   0.240  30.171 -0.1993 -0.0839  0.1361
46999W        W90093   0.869  34.620  29.744 -0.1020 -0.0838  0.0696
47000W        W90094  34.028   2.782  30.582 -0.1118  0.2658 -0.0788
47001W        W90095  33.916   2.993  28.281 -0.2230  0.1282 -0.0549
47002W        W90096   1.166   3.464  26.069 -0.2854 -0.0984 -0.0255
47003W        W90097   1.345   2.883  30.339 -0.0481 -0.0879  0.0771
47004W        W90098   0.100   3.397  31.919 -0.0549  0.0708 -0.0157
47005W        W90099  33.186   2.549  27.995  0.1207  0.0083 -0.1535
47006W        W90100   0.425   2.831  30.633 -0.1220  0.1703 -0.2148
47007W        W90101   0.938   3.110  28.895 -0.1807 -0.2333 -0.1137
47008W        W90102   0.641   3.234  27.829  0.4202  0.0479 -0.1872
47009W        W90103   1.081   2.149  29.832  0.0035 -0.0180 -0.1099
47010W        W90104  33.633   1.317  29.531  0.2255  0.2814 -0.2961
47011W        W90105  34.161   4.259  28.528  0.0340  0.1260  0.0418
47012W        W90106  34.175   2.331  27.069 -0.0238  0.2841 -0.2841
47013W        W90107  34.145   2.760  26.828  0.1514 -0.0571  0.0614
47014W        W90108  33.310   2.372  30.369  0.1243 -0.2034 -0.0811
47015W        W90109  32.796   1.486  30.150 -0.0774 -0.1513 -0.2740
47016W        W90110  33.070   2.013  29.096  0.1354  0.3118  0.1484
47017W        W90111  33.744   0.729  28.040 -0.1200  0.3467  0.1590
47018W        W90112  34.405  34.213  29.546  0.0919  0.2043  0.0558
47019W        W90113  32.686   1.188  29.161  0.2304 -0.1033 -0.1556
47020W        W90114   0.625   1.259  29.156 -0.2340  0.0202 -0.2392
47021W        W90115  32.914   2.049  27.876  0.2413 -0.1502  0.0808
47022W        W90116  34.305   1.836  31.927 -0.2652  0.1027  0.0491
47023W        W90117  34.625   1.621  29.852  0.1284  0.1799  0.0118
47024W        W90118  33.388   0.647  28.437  0.1250 -0.0760 -0.0058
47025W        W90119   1.336   1.795  30.464  0.2810 -0.2555  0.1391
47026W        W90120   0.934   3.802  30.775  0.3539  0.1592  0.3720
47027W        W90121   0.589   3.398  30.496  0.0069  0.2214 -0.0732
47028W        W90122  33.231  33.946  30.449 -0.0792  0.0268  0.2477
47029W        W90123   0.483   3.527  31.678  0.0714 -0.0182 -0.0236
47030W        W90124  33.256   1.207  29.807  0.0373  0.0032  0.0233
47031W        W90125  33.804   1.799  30.702 -0.0862  0.2277  0.3143
47032W        W90126  33.876   1.049  29.092 -0.2011  0.1059  0.3131
47033W        W90127  33.206   2.801  29.317 -0.1676 -0.1496 -0.0011
47034W        W90128   1.163   2.111  28.267 -0.0132  0.0721 -0.0949
47035W        W90129   1.022   1.673  30.916  0.0709 -0.3193 -0.0110
47036W        W90130  34.101   1.615  29.206 -0.4021  0.0659  0.0431
47037W        W90131  34.412   2.549  31.491  0.1016 -0.1042 -0.0387
47038W        W90132  33.733   0.303  29.670 -0.0772  0.2010  0.0392
47039W        W90133   0.470   2.119  28.811  0.1126 -0.1461 -0.0283
47040W        W90134  34.422   1.785  28.752 -0.1654  0.1136 -0.4660
47041W        W90135  34.067   1.473  28.515  0.1707 -0.1233 -0.1395
47042W        W90136   0.003   4.025  31.018 -0.1334 -0.2132  0.2994
47043W        W90137  32.761   0.849  31.532 -0.2173  0.1113  0.0953
47044W        W90138  33.882   1.548  31.257  0.0244  0.2234 -0.0827
47045W        W90139  34.624   2.419   0.086 -0.0197 -0.0654  0.3071
47046W        W90140  33.136   3.064  31.588 -0.0736  0.0593 -0.0019
47047W        W90141   0.609   0.165  30.635 -0.0129 -0.2981 -0.2211
47048W        W90142  33.539  33.964  31.739  0.1656 -0.2217  0.3732
47049W        W90143  34.102   1.938  30.019  0.1316  0.1002 -0.2921
47050W        W90144  33.016   3.709   0.305  0.0926 -0.0665 -0.0435
47051W        W90145  33.092   2.279   0.745  0.1009  0.1280  0.1599
47052W        W90146  32.852   0.512  31.946  0.1813  0.2554  0.1757
47053W        W90147  32.639   1.033   0.335  0.0475  0.2168 -0.0331
47054W        W90148  32.961   1.489  30.662  0.0931  0.0502  0.0769
47055W        W90149  33.231   4.060  31.928 -0.2066 -0.1189 -0.0454
47056W        W90150  33.890   0.372  30.721  0.2363 -0.0062 -0.0678
47057W        W90151  33.925   3.850   0.399  0.0285  0.2904  0.4790
47058W        W90152  33.960   2.291  31.693  0.1135  0.0242  0.5369
47059W        W90153  34.638   2.125  31.654  0.2677  0.0910 -0.2441
47060W        W90154   0.029   1.837  30.841 -0.0820  0.1553  0.0519
47061W        W90155  32.369   0.698  31.901 -0.0151  0.4611  0.0312
47062W        W90156  33.426   1.541  30.572 -0.1049 -0.1754  0.0144
47063W        W90157  33.279   1.540   0.131  0.0657  0.2239 -0.1215
47064W        W90158  34.318   2.503  30.947  0.0061  0.1575  0.0002
47065W        W90159   1.415   1.480   1.313  0.2477  0.2937  0.1660
47066W        W90160  32.918   0.793  30.056 -0.0337 -0.1197 -0.1129
47067W        W90161   0.523   3.282  29.909  0.1883 -0.1153  0.1312
47068W        W90162  33.263   1.159  30.869  0.2447 -0.0703 -0.1625
47069W        W90163  34.470   1.255   0.111  0.0029 -0.0736  0.4232
47070W        W90164   0.564   0.400  31.963  0.3191 -0.0548 -0.0921
47071W        W90165  32.462   3.537   0.152  0.1924 -0.2997 -0.1064
47072W        W90166  33.727   2.081  31.344 -0.3444  0.3032 -0.1464
47073W        W90167   0.362   2.043  31.387 -0.1410  0.2102 -0.0401
47074W        W90168  34.159   1.021  31.018 -0.3537 -0.1537 -0.0956
47075W        W90169  34.320   3.379  31.596  0.0069  0.0716  0.3176
47076W        W90170   0.594   4.072  31.212  0.1785  0.1628  0.3977
47077W        W90171  33.149   0.904   0.724 -0.1579 -0.3770 -0.1046
47078W        W90172  33.443   1.299   0.606  0.1282 -0.1486 -0.0246
47079W        W90173  34.622   3.452  31.087  0.3025 -0.1934 -0.1378
47080W        W90174  32.769   2.115  31.336  0.0084  0.0424 -0.3299
47081W        W90175  31.283  34.087  30.432  0.1389 -0.1187 -0.1598
47082W        W90176  34.057   4.694  18.329 -0.0302 -0.2529  0.0265
47083W        W90177  34.265   5.176  16.734 -0.0343  0.1098  0.1057
47084W        W90178  33.330   3.582  17.185 -0.1617 -0.0557  0.2536
47085W        W90179  33.615   3.364  20.624 -0.0175 -0.3559  0.1360
47086W        W90180  34.273   3.762  18.805 -0.0354  0.2763  0.3376
47087W        W90181  33.946   7.744  18.039 -0.1895 -0.0631  0.2814
47088W        W90182   0.621   3.637  16.707  0.0021  0.0372 -0.0838
47089W        W90183  33.488   3.740  18.442  0.1962  0.3572 -0.1497
47090W        W90184  32.827   5.045  16.741  0.0852  0.1905 -0.0019
47091W        W90185  32.323   5.470  19.709 -0.1934 -0.2013 -0.1798
47092W        W90186  33.006   4.527  18.140  0.0952  0.1124 -0.0393
47093W        W90187   0.062   2.380  17.484  0.0992  0.1032  0.2458
47094W        W90188  34.195   6.517  16.408  0.0917 -0.0716  0.1725
47095W        W90189  32.698   4.737  16.353  0.2059 -0.1164  0.2030
47096W        W90190  32.325   5.199  19.043 -0.0476  0.3675  0.1850
47097W        W90191   0.065   5.646  18.123 -0.0495  0.0242  0.2707
47098W        W90192  33.621   6.347  19.500  0.1185 -0.0732 -0.0389
47099W        W90193  33.588   7.501  17.086 -0.3190 -0.3272 -0.1019
47100W        W90194  31.634   5.897  17.895 -0.0480  0.1399 -0.1198
47101W        W90195  32.418   5.945  18.182 -0.2410  0.0188  0.0398
47102W        W90196  32.763   6.995  16.730  0.0370 -0.0427 -0.1043
47103W        W90197   0.603   6.631  20.085 -0.1609 -0.0617 -0.0753
47104W        W90198  33.819   6.423  16.054  0.2091  0.0244 -0.2546
47105W        W90199  33.631   5.136  18.812 -0.1766  0.0042 -0.1658
47106W        W90200  33.180   7.061  18.239  0.0581  0.0075  0.0433
47107W        W90201   0.032   5.032  19.709  0.2394 -0.3022 -0.0365
47108W        W90202  33.385   5.445  19.762  0.0447  0.2395  0.1416
47109W        W90203  32.767   6.680  17.986 -0.2729  0.0233  0.2555
47110W        W90204  32.111   5.558  16.737 -0.1210  0.0174  0.6116
47111W        W90205  34.578   5.090  16.321  0.2146  0.2682  0.1184
47112W        W90206   0.950   5.762  18.011  0.0873 -0.1553 -0.1111
47113W        W90207   0.200   6.535  17.199 -0.0864  0.0462  0.0901
47114W        W90208  32.675   3.596  17.939  0.0219 -0.2807  0.3973
47115W        W90209  32.819   7.285  18.515 -0.1961 -0.2764 -0.1007
47116W        W90210  32.665   5.458  18.165 -0.0349 -0.2299  0.0030
47117W        W90211  31.073   5.237  17.750  0.2002  0.1672  0.1303
47118W        W90212  31.796   6.216  18.949 -0.0704  0.3569 -0.0377
47119W        W90213  32.863   4.441  19.665  0.2916  0.3434  0.0020
47120W        W90214  34.109   3.778  16.008  0.0632  0.0313 -0.0976
47121W        W90215  33.171   6.205  19.237  0.2149  0.0647  0.0008
47122W        W90216   0.196   6.933  17.467  0.2240  0.1323 -0.3649
47123W        W90217  33.654   6.186  17.296  0.0733  0.1438  0.0661
47124W        W90218  34.139   6.049  16.387  0.0335 -0.1175  0.0246
47125W        W90219  34.012   6.066  19.633  0.0099 -0.0461  0.2234
47126W        W90220  33.868   4.137  18.702  0.0769 -0.3249 -0.2900
47127W        W90221  34.127   5.626  19.441 -0.0812  0.0497 -0.3893
47128W        W90222  32.079   6.029  16.937 -0.0072  0.0185  0.1779
47129W        W90223  32.567   6.825  19.140  0.0902  0.0213  0.0373
47130W        W90224  32.407   5.710  16.388  0.1495 -0.0321 -0.1280
47131W        W90225  33.348   4.971  17.967  0.2075 -0.3042  0.0451
47132W        W90226  34.032   6.627  18.820 -0.1557 -0.0700  0.1952
47133W        W90227  33.022   4.040  17.892 -0.0155  0.0241  0.1101
47134W        W90228  31.764   5.899  17.425  0.0755  0.0679 -0.2118
47135W        W90229  34.113   2.640  17.635  0.0531 -0.3249 -0.2656
47136W        W90230  34.053   4.605  16.077  0.5075  0.2132 -0.0651
47137W        W90231   0.236   3.326  20.340  0.2554 -0.0036 -0.1118
47138W        W90232  33.879   2.683  18.796  0.1459 -0.1365  0.2015
47139W        W90233  33.009   4.523  16.953 -0.0911 -0.0458 -0.2653
47140W        W90234  33.710   4.119  17.475 -0.0044 -0.0951 -0.0319
47141W        W90235  32.154   5.608  17.223 -0.2811  0.1716 -0.0659
47142W        W90236  33.909   3.880  19.166 -0.0588 -0.1789  0.1529
47143W        W90237  32.120   3.845  17.195 -0.1740  0.1997 -0.3175
47144W        W90238   0.250   6.503  17.736 -0.3819 -0.1150  0.1232
47145W        W90239  34.073   6.444  18.194 -0.0058  0.0461 -0.0383
47146W        W90240  34.419   3.926  16.512  0.1416  0.2225  0.2589
47147W        W90241  32.428   6.364  18.470 -0.0061 -0.1019  0.1444
47148W        W90242  32.499   3.748  16.331  0.1793  0.2005  0.0461
47149W        W90243  32.104   6.997  17.541  0.0554 -0.1538  0.0022
47150W        W90244  31.780   5.002  19.248  0.1568  0.0762  0.0922
47151W        W90245  33.124   6.813  17.701  0.1001  0.0155  0.0743
47152W        W90246  32.842   2.632  19.604 -0.1284  0.0020 -0.0456
47153W        W90247  32.838   5.420  16.028  0.0854 -0.0561 -0.0974
47154W        W90248  33.184   4.949  19.549 -0.0886  0.1043 -0.0496
47155W        W90249  33.924   6.630  19.766 -0.0796 -0.0109  0.1018
47156W        W90250   1.737   6.033  17.579  0.1293  0.0352  0.1982
47157W        W90251  33.619   5.181  19.340  0.1280  0.1828  0.1199
47158W        W90252  33.799   6.863  19.277 -0.0173 -0.0969  0.0754
47159W        W90253   0.236   2.817  17.756  0.2417  0.2888  0.0471
47160W        W90254  33.944   4.659  17.445 -0.0186  0.0777  0.0099
47161W        W90255  32.512   7.766  16.060 -0.0542 -0.0192 -0.5241
47162W        W90256   0.037   3.917  18.718  0.3205  0.0668  0.0857
47163W        W90257  33.291   5.042  16.768  0.0296 -0.0597 -0.2469
47164W        W90258  34.354   3.732  16.969  0.1521  0.0280  0.3104
47165W        W90259  32.759   6.382  18.822 -0.1781  0.3601  0.1257
47166W        W90260  31.719   7.643  18.674 -0.0069  0.0083 -0.2314
47167W        W90261  34.578   3.259  19.446  0.0956 -0.3462  0.1944
47168W        W90262  33.407   7.001  17.210 -0.1568  0.0196  0.0985
47169W        W90263  33.566   7.236  16.681  0.0615 -0.4189 -0.2258
47170W        W90264  33.801   3.378  17.078 -0.0235  0.0759  0.2534
47171W        W90265   0.894   7.797  18.972  0.1746  0.1299  0.4480
47172W        W90266  34.094   7.071  16.398 -0.0324 -0.2555  0.4667
47173W        W90267  32.281   5.438  15.934 -0.0865  0.0218  0.0983
47174W        W90268  33.649   5.089  17.569 -0.1841 -0.2298 -0.3431
47175W        W90269  34.347   4.664  16.472 -0.0554  0.3375  0.1554
47176W        W90270  33.288   5.776  17.500  0.0941 -0.1499  0.1601
47177W        W90271  32.370   4.167  16.744 -0.0630  0.2631  0.0009
47178W        W90272   0.474   4.693  17.936  0.0802  0.2496  0.1717
47179W        W90273  33.091   6.663  19.163 -0.0301 -0.1878  0.1634
47180W        W90274  33.118   4.266  21.191 -0.2403  0.0340 -0.2884
47181W        W90275  32.664   4.721  17.229 -0.0638  0.0254 -0.0063
47182W        W90276  34.434   5.994  18.261  0.0019 -0.1390 -0.1141
47183W        W90277  32.410   7.400  17.365  0.1794 -0.3252  0.0825
47184W        W90278  32.379   5.140  16.956  0.2692 -0.0265 -0.0028
47185W        W90279  34.206   5.653  16.755 -0.2754 -0.1553  0.2737
47186W        W90280  33.150   4.063  19.927 -0.0168 -0.1614 -0.1288
47187W        W90281  33.608   4.302  19.135  0.2044 -0.1178 -0.2653
47188W        W90282  32.517   5.328  17.728  0.0052 -0.1963  0.0300
47189W        W90283   0.889   4.845  17.798  0.1784 -0.0122  0.2254
47190W        W90284  34.127   6.180  17.754  0.2327  0.0919 -0.1235
47191W        W90285  33.932   5.617  19.937  0.1716 -0.3185 -0.0229
47192W        W90286  32.295   5.836  17.646  0.0188  0.1822 -0.2303
47193W        W90287  32.305   6.895  18.655 -0.1221 -0.0602  0.0960
47194W        W90288  32.886   5.467  16.511 -0.3909  0.2768  0.0536
47195W        W90289  34.104   3.839  18.322  0.1624  0.1929  0.0168
47196W        W90290  32.834   6.265  18.224  0.1737 -0.1088 -0.0126
47197W        W90291  31.555   4.925  16.544  0.0936  0.1069 -0.0812
47198W        W90292  33.947   5.902  18.105  0.1766 -0.1184 -0.3318
47199W        W90293  34.410   5.238  17.580  0.0429 -0.0002 -0.2285
47200W        W90294  34.151   2.740  18.304 -0.2451  0.0026  0.1017
47201W        W90295  32.428   4.449  17.691 -0.0307  0.1527 -0.1340
47202W        W90296  32.950   4.834  19.983  0.0472 -0.1084  0.4278
47203W        W90297  33.283   4.136  16.189  0.2947 -0.2309 -0.0490
47204W        W90298  32.507   4.657  19.105  0.0970 -0.0178  0.0048
47205W        W90299  33.731   5.331  15.781 -0.0079  0.0477  0.0087
47206W        W90300  32.599   8.116  18.610  0.0032 -0.1694  0.0166
47207W        W90301  34.649   5.977  16.589  0.2813 -0.0966  0.0463
47208W        W90302  33.078   6.228  17.652  0.2992  0.0113 -0.0213
47209W        W90303  33.746   3.482  20.045  0.1410 -0.1240  0.3640
47210W        W90304  34.356   4.310  18.560  0.0484  0.1245  0.2723
47211W        W90305  34.207   2.772  20.151  0.0995 -0.1540 -0.1905
47212W        W90306  31.938   4.131  17.636  0.1307  0.0838  0.1925
47213W        W90307  33.510   4.559  15.905  0.0187 -0.2939  0.2338
47214W        W90308   0.507   8.186  16.507  0.1049  0.0581  0.1492
47215W        W90309  32.497   4.247  17.228  0.1229 -0.2537 -0.1372
47216W        W90310   0.391   7.422  18.811 -0.0168 -0.0548 -0.2612
47217W        W90311  33.040   6.047  17.097 -0.3261 -0.1537 -0.1705
47218W        W90312  33.628   4.965  16.096  0.0079  0.0117  0.3318
47219W        W90313  34.121   6.664  17.733 -0.4598  0.0039  0.3110
47220W        W90314  33.316   4.132  16.673  0.1260  0.0220 -0.3054
47221W        W90315  31.913   6.827  16.764 -0.0550 -0.1862  0.0201
47222W        W90316   0.033   7.703  18.557  0.0255  0.2605 -0.1595
47223W        W90317  32.235   6.498  18.992  0.0183  0.1549  0.0250
47224W        W90318  33.894   5.789  17.193 -0.0589 -0.0054 -0.1866
47225W        W90319  33.721   4.389  16.996 -0.2951  0.1498  0.4066
47226W        W90320  33.076   5.368  17.718 -0.0570  0.0780 -0.1248
47227W        W90321  33.856   5.605  18.927  0.1385  0.4143 -0.0325
47228W        W90322  33.593   4.330  20.225 -0.2781  0.0838 -0.4794
47229W        W90323  33.745   3.846  17.891 -0.3921 -0.2121  0.1632
47230W        W90324  34.117   6.118  20.646  0.2420  0.1404  0.1987
47231W        W90325  32.636   4.248  20.705  0.2122 -0.1721  0.0238
47232W        W90326  32.242   6.604  17.988 -0.1202  0.0665  0.1898
47233W        W90327  33.538   5.411  17.255 -0.0172  0.0486 -0.1823
47234W        W90328  34.609   6.150  17.075  0.1178 -0.2282  0.1679
47235W        W90329  34.502   6.493  17.455  0.0526 -0.2183 -0.0010
47236W        W90330  32.749   5.687  17.387 -0.0489  0.3322  0.1378
47237W        W90331  33.155   5.423  18.205 -0.0608  0.1068  0.2277
47238W        W90332  33.453   3.584  16.701  0.0164  0.1347 -0.0166
47239W        W90333  33.901   4.819  19.747 -0.0801 -0.0963  0.0089
47240W        W90334  33.693   7.433  18.310  0.1959 -0.2298 -0.0242
47241W        W90335  33.195   4.617  16.456  0.2906 -0.0460  0.2297
47242W        W90336  32.904   4.882  18.901 -0.0215 -0.3035 -0.0335
47243W        W90337  33.722   5.750  16.281 -0.0289 -0.1180 -0.1150
47244W        W90338  33.099   7.177  16.433  0.0717  0.0539 -0.0633
47245W        W90339   0.040   5.598  18.586 -0.0521 -0.1566 -0.0298
47246W        W90340  34.284   7.339  18.470 -0.2531 -0.1806 -0.1164
47247W        W90341  32.605   3.056  17.049 -0.0218  0.0177  0.0814
47248W        W90342  33.507   4.477  19.559 -0.0509  0.1406  0.1714
47249W        W90343  31.910   5.182  18.672 -0.3189 -0.1317  0.1868
47250W        W90344  32.694   3.557  19.229  0.2031  0.0536 -0.2215
47251W        W90345   0.701   4.869  16.392  0.1652 -0.0749 -0.4777
47252W        W90346  32.427   3.924  17.647 -0.0376 -0.1556  0.1119
47253W        W90347  33.588   5.441  17.949 -0.0687 -0.0448 -0.0815
47254W        W90348  33.699   6.989  18.751  0.0130  0.1624  0.1107
47255W        W90349  33.225   2.477  16.982 -0.1253 -0.0435  0.1563
47256W        W90350  33.879   7.586  16.689 -0.1017  0.2126 -0.0843
47257W        W90351  34.183   4.275  17.276 -0.0205  0.0672  0.1065
47258W        W90352   1.178   4.286  17.135  0.1346 -0.0648 -0.2241
47259W        W90353  34.097   5.380  18.034 -0.1249  0.2718  0.2541
47260W        W90354  32.565   5.675  16.890 -0.0157  0.0287 -0.2927
47261W        W90355  33.099   7.350  16.989  0.0898 -0.1668  0.0803
47262W        W90356  34.129   6.038  20.151 -0.2642 -0.2207 -0.2134
47263W        W90357  34.168   7.499  19.888  0.0726  0.1558  0.2658
47264W        W90358  34.037   5.312  16.256  0.3526 -0.0706  0.3262
47265W        W90359  33.965   5.101  20.136 -0.0225 -0.0529 -0.1481
47266W        W90360  34.434   7.200  16.065  0.1294 -0.1703  0.1744
47267W        W90361   1.125   6.043  17.511  0.1077  0.0472  0.2088
47268W        W90362  34.502   4.381  16.852  0.3536 -0.1583 -0.5161
47269W        W90363   0.244   4.912  17.514  0.0977  0.0100  0.1279
47270W        W90364  33.430   3.736  20.266  0.1333 -0.1268 -0.2512
47271W        W90365  33.198   4.129  15.670  0.1242 -0.3488 -0.0955
47272W        W90366  33.363   6.290  16.192 -0.1070  0.1988  0.0042
47273W        W90367  32.501   4.506  18.318 -0.2116  0.0349  0.1241
47274W        W90368  34.432   2.406  21.284  0.1778 -0.4254 -0.4116
47275W        W90369  33.939   3.946  20.062 -0.1437 -0.0739 -0.4069
47276W        W90370  34.240   4.270  18.115 -0.0811  0.0292  0.0406
47277W        W90371  32.774   4.936  17.747 -0.3095 -0.0698  0.2223
47278W        W90372   0.100   3.860  17.684  0.2560 -0.0581 -0.0113
47279W        W90373  31.496   4.295  17.394 -0.0277 -0.1110 -0.0412
47280W        W90374  34.033   4.902  17.852  0.1735  0.1483 -0.0383
47281W        W90375  31.350   6.042  16.738 -0.3606 -0.1649  0.1137
47282W        W90376  34.664   4.021  18.205 -0.1376 -0.1028  0.1101
47283W        W90377  34.269   3.589  20.055  0.2593  0.2348 -0.2571
47284W        W90378  31.954   4.351  16.012 -0.0977  0.3735 -0.2080
47285W        W90379  34.032   4.319  19.635 -0.0186 -0.2672 -0.0901
47286W        W90380   0.390   4.161  18.511  0.1359 -0.1302 -0.1548
47287W        W90381   0.426   5.924  17.911  0.2141  0.1830 -0.0707
47288W        W90382  33.588   3.932  19.659 -0.1553 -0.0895 -0.0064
47289W        W90383  32.726   5.385  18.785 -0.2924 -0.0209 -0.0329
47290W        W90384  33.282   2.811  18.876  0.1206 -0.1746 -0.3365
47291W        W90385  33.584   6.131  18.379  0.0817  0.0278  0.0169
47292W        W90386  33.636   2.482  17.716 -0.0850 -0.0822 -0.0946
47293W        W90387  31.988   4.529  19.230 -0.1592  0.0939  0.0102
47294W        W90388  33.585   4.875  17.118  0.3902  0.0560 -0.0947
47295W        W90389   0.428   5.091  19.406  0.0951 -0.1236  0.2396
47296W        W90390   0.651   5.713  17.387 -0.2882  0.1289 -0.0831
47297W        W90391   0.042   6.456  18.211 -0.1512 -0.0243 -0.2741
47298W        W90392  34.553   3.439  18.520  0.3568  0.0912 -0.0198
47299W        W90393  34.680   5.508  16.735  0.1384  0.0229 -0.0124
47300W        W90394  33.655   6.021  15.866  0.1638 -0.0744 -0.0396
47301W        W90395  34.190   5.591  18.447 -0.1244 -0.0163 -0.2527
47302W        W90396   0.255   6.088  17.466 -0.0476  0.2052 -0.0450
47303W        W90397  32.196   6.241  23.426 -0.2153  0.1595  0.0079
47304W        W90398   0.426   5.823  20.082  0.0242 -0.1878  0.1382
47305W        W90399  33.234   4.172  21.699 -0.1875  0.1581  0.0684
47306W        W90400  33.761   3.277  22.081 -0.0762 -0.0831 -0.0012
47307W        W90401  34.606   5.444  23.123 -0.0455  0.1186  0.0436
47308W        W90402  33.763   6.889  23.818  0.1747 -0.1282 -0.0915
47309W        W90403   0.603   3.953  21.674  0.1469  0.2746 -0.0774
47310W        W90404  32.966   2.570  22.269 -0.1826 -0.1028  0.2659
47311W        W90405  32.479   4.020  20.242 -0.0300  0.2828 -0.1234
47312W        W90406  33.020   4.630  21.571 -0.0425  0.2136  0.1160
47313W        W90407   0.671   5.407  20.239 -0.0722  0.2840 -0.0721
47314W        W90408  34.480   3.904  23.737 -0.0559  0.0844 -0.2096
47315W        W90409  34.431   6.398  18.983 -0.0228 -0.1999  0.2654
47316W        W90410  33.245   3.533  19.768  0.0480  0.0177  0.0936
47317W        W90411  32.125   4.334  20.288  0.3679  0.2165 -0.0837
47318W        W90412  34.395   5.957  21.933  0.0006  0.1440  0.0068
47319W        W90413  34.381   6.351  23.380 -0.0281  0.0622 -0.0088
47320W        W90414   0.675   6.377  21.567 -0.1536  0.2195 -0.0179
47321W        W90415  33.970   6.230  22.183  0.2865 -0.0114  0.2540
47322W        W90416  32.082   7.873  21.382 -0.2642 -0.0466  0.3587
47323W        W90417   0.880   6.855  21.493  0.0644 -0.3607 -0.1652
47324W        W90418   0.093   6.431  21.626 -0.0580 -0.3268  0.1236
47325W        W90419  33.287   7.283  19.712  0.3442  0.3999 -0.1013
47326W        W90420  33.790   6.849  22.857 -0.0523 -0.2966 -0.1209
47327W        W90421  34.336   5.671  18.906  0.1921  0.1728  0.4099
47328W        W90422  34.659   5.270  20.757  0.3693 -0.0922 -0.0232
47329W        W90423  34.059   5.413  23.376  0.0274 -0.2609  0.0014
47330W        W90424  33.607   5.448  21.667  0.1046  0.0667  0.0274
47331W        W90425  33.047   5.262  20.166 -0.1127  0.1650 -0.0788
47332W        W90426  34.377   3.991  20.349  0.0475 -0.2857  0.1098
47333W        W90427  33.711   4.787  20.453  0.1226 -0.1805  0.0589
47334W        W90428  34.656   7.128  22.110 -0.1325  0.1157 -0.0060
47335W        W90429   0.629   4.040  22.600  0.0106 -0.2687  0.0447
47336W        W90430  32.051   5.984  23.793 -0.1362  0.0528  0.0142
47337W        W90431  33.350   5.154  21.185 -0.1774 -0.1013  0.1733
47338W        W90432  32.338   5.066  21.315  0.3544  0.1116  0.0103
47339W        W90433  33.120   5.554  21.521 -0.5624  0.1107  0.0377
47340W        W90434  32.507   6.125  24.025  0.2942  0.0681 -0.0004
47341W        W90435  33.995   3.652  19.640 -0.1806  0.0758  0.0895
47342W        W90436  32.485   5.715  23.490  0.3104 -0.0126  0.1362
47343W        W90437  34.681   6.171  22.307  0.2217  0.0425  0.0538
47344W        W90438  33.176   5.038  20.727 -0.0866  0.0632 -0.1271
47345W        W90439  33.825   5.616  20.523 -0.0149  0.1112 -0.1576
47346W        W90440  33.405   6.916  22.029  0.0762  0.3022 -0.1111
47347W        W90441   0.724   4.339  22.144  0.3294 -0.3467  0.1210
47348W        W90442   0.561   5.531  22.741 -0.0905 -0.1257  0.2375
47349W        W90443  34.623   7.171  20.098 -0.0260 -0.1144 -0.0923
47350W        W90444  33.338   6.855  21.551  0.1282 -0.0886  0.1190
47351W        W90445  34.320   6.725  20.126 -0.0209 -0.0738 -0.0354
47352W        W90446  33.111   5.729  22.523  0.1757 -0.1556 -0.5351
47353W        W90447   0.372   5.923  22.471  0.1364 -0.0966  0.1205
47354W        W90448  33.083   3.213  23.366  0.1127 -0.1433 -0.4219
47355W        W90449  33.458   5.875  21.792  0.1817  0.1952 -0.1868
47356W        W90450  31.834   5.343  23.028 -0.1824  0.1237 -0.0005
47357W        W90451  33.191   4.774  22.601 -0.0761  0.2649 -0.0202
47358W        W90452   1.575   4.562  24.791  0.0457 -0.2092 -0.1733
47359W        W90453  33.866   4.128  22.121 -0.0210  0.5162 -0.0375
47360W        W90454  34.131   3.418  19.157  0.0846 -0.2540 -0.0857
47361W        W90455   0.081   4.770  20.865 -0.0019 -0.0039 -0.0403
47362W        W90456  33.074   6.069  22.090  0.1035 -0.0378 -0.2066
47363W        W90457  34.140   4.223  23.592 -0.0550  0.2063 -0.0908
47364W        W90458   0.118   5.327  20.194 -0.0076  0.0661 -0.0433
47365W        W90459  33.786   7.474  20.482 -0.0195 -0.0041 -0.0605
47366W        W90460  34.324   5.890  21.473 -0.1852  0.1976 -0.0636
47367W        W90461   0.242   4.474  20.460  0.3991  0.1042  0.2040
47368W        W90462  33.891   6.016  22.699 -0.2626 -0.0078 -0.0687
47369W        W90463  33.167   3.394  21.190  0.0656 -0.0135  0.0202
47370W        W90464  32.210   6.666  20.416  0.2456 -0.0250 -0.0344
47371W        W90465  32.862   5.461  20.577 -0.2145  0.2978 -0.0171
47372W        W90466   1.023   6.629  20.299  0.0076  0.0710 -0.1339
47373W        W90467  33.179   6.113  25.566 -0.0357 -0.2832 -0.2841
47374W        W90468  33.008   5.566  21.026 -0.0306  0.0768 -0.2770
47375W        W90469  32.623   5.857  22.229 -0.1100  0.0556  0.0353
47376W        W90470  33.350   6.426  23.631  0.1167  0.2510 -0.4705
47377W        W90471  33.859   5.760  21.279 -0.0190 -0.1919  0.0323
47378W        W90472  34.068   5.459  21.693  0.0261 -0.1375  0.3849
47379W        W90473  32.439   7.130  22.497  0.4059  0.0465  0.3226
47380W        W90474   1.902   3.192  22.517  0.1694 -0.0533  0.1792
47381W        W90475  32.737   4.966  20.470 -0.0725  0.1264  0.3559
47382W        W90476  33.163   8.033  18.706 -0.0946  0.1706 -0.1478
47383W        W90477   0.173   3.568  23.902 -0.3304 -0.2042  0.2323
47384W        W90478  33.482   3.891  21.311  0.0451  0.0760 -0.0987
47385W        W90479  33.936   3.806  23.402  0.0129  0.0126  0.2136
47386W        W90480  32.934   7.030  22.258  0.0193 -0.1041 -0.2688
47387W        W90481  32.304   5.655  24.130 -0.2568  0.0692  0.2180
47388W        W90482   2.095   3.906  23.589 -0.0401  0.1905  0.0261
47389W        W90483  33.266   7.394  20.729  0.0385  0.1215 -0.0076
47390W        W90484  33.713   6.089  20.898  0.1290  0.2685  0.1414
47391W        W90485   0.202   5.022  23.020  0.0574 -0.0541  0.0765
47392W        W90486  34.466   6.557  22.027 -0.0796  0.3050  0.2748
47393W        W90487  33.557   5.235  20.342  0.0415 -0.1853  0.1651
47394W        W90488  32.580   6.965  20.524  0.4338 -0.1436  0.1417
47395W        W90489  33.150   8.131  21.316  0.4284 -0.2061 -0.0151
47396W        W90490  33.052   4.077  20.427  0.2219  0.0256  0.0263
47397W        W90491  32.676   4.263  21.643 -0.0847  0.4050 -0.1659
47398W        W90492  34.023   4.462  22.918 -0.2281 -0.0243  0.1261
47399W        W90493   0.201   5.047  22.493 -0.0976  0.0728  0.2437
47400W        W90494  31.475   6.462  21.216  0.0418  0.2988 -0.3638
47401W        W90495  33.304   5.334  22.830 -0.2217  0.1713 -0.1845
47402W        W90496  32.629   4.085  21.182 -0.0299 -0.2287 -0.0571
47403W        W90497  33.546   5.603  20.965  0.3105 -0.0843  0.1684
47404W        W90498  33.661   6.293  21.370  0.0349  0.2057 -0.1053
47405W        W90499  32.381   4.778  20.858 -0.1917  0.3481 -0.3134
47406W        W90500  34.199   6.417  21.565  0.0584 -0.0550 -0.1297
47407W        W90501  34.598   5.239  24.123 -0.2092  0.0504  0.0148
47408W        W90502   1.079   5.567  23.012  0.1092 -0.1697 -0.1053
47409W        W90503  33.534   3.911  20.734  0.2786 -0.4203  0.3271
47410W        W90504   1.017   5.161  22.559  0.1194 -0.1159  0.1389
47411W        W90505   0.612   5.229  23.172  0.1535 -0.0453 -0.1618
47412W        W90506  34.164   5.994  23.790  0.1823 -0.2460  0.1831
47413W        W90507  33.612   6.082  20.405 -0.0928 -0.1395  0.0492
47414W        W90508  33.032   5.154  22.368  0.1912  0.1161  0.0758
47415W        W90509   0.261   5.419  21.215 -0.1075 -0.1235 -0.0656
47416W        W90510  34.563   5.485  22.599 -0.0950  0.0371  0.1428
47417W        W90511  33.267   6.365  21.096 -0.0133  0.4469  0.0366
47418W        W90512  32.525   7.324  20.954 -0.0891  0.1422  0.1773
47419W        W90513  32.136   7.615  22.398  0.0120  0.0535  0.1062
47420W        W90514  34.530   5.791  19.920 -0.1403  0.3815  0.0670
47421W        W90515  33.921   5.114  22.042 -0.2137  0.0323  0.2243
47422W        W90516  32.748   4.767  23.301  0.0207 -0.0365  0.0277
47423W        W90517  32.829   6.113  23.476 -0.0632 -0.0544  0.0716
47424W        W90518  33.537   4.559  21.308 -0.3078  0.1700  0.1800
47425W        W90519  32.692   5.543  22.735 -0.0082  0.1260  0.0493
47426W        W90520  33.709   5.125  20.876  0.0886  0.2052 -0.0607
47427W        W90521  33.950   6.450  23.139  0.0413 -0.1082  0.2855
47428W        W90522  34.302   5.291  19.812 -0.0049 -0.1086  0.0389
47429W        W90523   0.401   5.472  20.617  0.0036  0.3400 -0.1315
47430W        W90524  33.595   3.729  23.903  0.0229 -0.3785  0.3764
47431W        W90525  34.547   4.998  23.413  0.0752  0.2369  0.0180
47432W        W90526  33.208   4.843  23.160 -0.0140  0.0938 -0.1093
47433W        W90527  33.559   5.091  22.496 -0.1651  0.1491 -0.1844
47434W        W90528  33.903   2.415  20.337 -0.2244 -0.0872 -0.2910
47435W        W90529   1.214   7.550  20.317  0.1980  0.2732 -0.0363
47436W        W90530  33.452   4.365  20.774 -0.0027  0.1511 -0.2897
47437W        W90531  34.331   6.743  23.055  0.0829  0.4978 -0.1044
47438W        W90532  32.690   4.048  19.087 -0.3204 -0.0750  0.0801
47439W        W90533  34.588   4.392  20.114  0.5305  0.2593  0.0169
47440W        W90534  34.209   5.236  22.958 -0.1691  0.1843 -0.3045
47441W        W90535   1.191   2.147  20.180 -0.3242  0.0743  0.0139
47442W        W90536  33.165   6.293  21.592 -0.2640  0.0426 -0.0701
47443W        W90537  32.539   6.450  22.248  0.0716  0.0932 -0.0840
47444W        W90538  32.726   4.902  22.667 -0.0387  0.2689 -0.0330
47445W        W90539  33.579   6.416  22.784  0.2311  0.0389 -0.0053
47446W        W90540  34.262   5.727  22.922  0.0727  0.0569 -0.1778
47447W        W90541  33.347   7.483  21.877  0.1310 -0.1460 -0.1250
47448W        W90542  33.226   5.094  21.725 -0.5259  0.1417  0.0058
47449W        W90543  31.585   4.110  22.383 -0.1121  0.3204  0.1549
47450W        W90544  33.724   2.117  20.728  0.0287  0.0349  0.0009
47451W        W90545  32.357   7.917  22.723  0.0839 -0.1176 -0.1138
47452W        W90546  33.257   4.228  22.710  0.1602 -0.0251 -0.0929
47453W        W90547  33.952   6.005  21.742  0.3536  0.1723 -0.2580
47454W        W90548   1.889   5.359  19.013 -0.2015 -0.1279  0.1519
47455W        W90549  33.408   7.765  21.127  0.1405  0.0072  0.1422
47456W        W90550  31.106   6.426  19.400 -0.1601  0.0658 -0.1867
47457W        W90551  33.597   8.021  21.792 -0.2024 -0.3066 -0.0283
47458W        W90552  34.133   5.481  20.991 -0.0972  0.0144 -0.3123
47459W        W90553   0.203   3.885  19.657  0.4349 -0.2025  0.2988
47460W        W90554  33.960   4.892  22.695  0.0700  0.1729 -0.0612
47461W        W90555  31.965   7.050  22.369 -0.0661  0.0584 -0.1893
47462W        W90556  34.590   5.750  20.895  0.2818  0.0622  0.2135
47463W        W90557  34.058   4.627  21.480  0.0099  0.0652  0.1273
47464W        W90558  33.835   7.187  19.677 -0.0201 -0.2136  0.1372
47465W        W90559  33.601   6.438  21.864  0.1450  0.1870  0.1651
47466W        W90560  33.924   5.717  22.151  0.2137  0.0037 -0.0393
47467W        W90561   0.127   6.268  23.258 -0.3301 -0.3536  0.1922
47468W        W90562  32.318   3.348  20.763  0.1194 -0.1817 -0.0447
47469W        W90563  33.923   4.515  23.894 -0.2006 -0.1022 -0.1370
47470W        W90564  34.144   5.066  20.647  0.2572  0.2445  0.3956
47471W        W90565  33.084   5.700  23.057  0.0366 -0.0346  0.0061
47472W        W90566  33.919   4.747  18.871  0.0290  0.1678  0.3826
47473W        W90567  34.468   3.489  21.017  0.2521  0.0418  0.2186
47474W        W90568  34.388   5.040  21.221  0.1940  0.2140  0.3042
47475W        W90569  33.680   4.597  22.418  0.2788 -0.1184 -0.2662
47476W        W90570  34.122   4.443  20.177  0.1759 -0.0628  0.1472
47477W        W90571  32.997   7.853  20.412  0.1423  0.1739  0.0284
47478W        W90572  32.585   5.514  21.321  0.2241 -0.4342  0.0820
47479W        W90573   0.965   4.040  21.152 -0.3069 -0.5181  0.0916
47480W        W90574  32.643   4.630  21.236 -0.0151  0.0952 -0.0702
47481W        W90575  34.159   7.393  20.776  0.2071 -0.0628 -0.2241
47482W        W90576  34.079   6.207  21.137  0.2041  0.0012  0.0825
47483W        W90577   0.434   7.941  22.649  0.0987  0.1662  0.3444
47484W        W90578   0.129   6.225  24.240  0.1561  0.1270  0.1923
47485W        W90579  33.110   5.388  19.171 -0.2018  0.0930 -0.1971
47486W        W90580   0.067   6.725  23.444 -0.0067 -0.1504  0.1790
47487W        W90581   0.667   5.676  20.958  0.4611  0.1208 -0.0384
47488W        W90582   0.178   8.185  20.911 -0.1629  0.0078 -0.0923
47489W        W90583   0.011   5.684  22.162  0.0836  0.0836 -0.1366
47490W        W90584  34.305   4.942  22.340  0.4832 -0.3104 -0.2058
47491W        W90585   0.107   5.832  22.862 -0.5323 -0.2249 -0.1341
47492W        W90586  32.719   5.047  21.635 -0.0888 -0.2529 -0.0037
47493W        W90587  33.474   6.875  21.036  0.2567 -0.2169  0.3055
47494W        W90588  33.855   5.049  21.411 -0.1667 -0.0917 -0.1564
47495W        W90589   0.632   4.113  24.590  0.2147  0.3009 -0.0980
47496W        W90590  32.298   4.684  21.684  0.0021 -0.0861  0.0613
47497W        W90591  33.207   4.567  20.379 -0.0856  0.1204 -0.0111
47498W        W90592  33.240   3.590  21.745 -0.1333  0.0637 -0.0581
47499W        W90593  33.828   3.995  22.624  0.1636  0.0448 -0.0941
47500W        W90594  34.026   2.770  21.297  0.0179  0.2068 -0.1364
47501W        W90595   1.208   4.470  20.437  0.0011 -0.0623 -0.1370
47502W        W90596  32.847   5.923  19.620  0.1037 -0.1760  0.1789
47503W        W90597   0.164   4.839  23.852 -0.3475  0.0151 -0.2272
47504W        W90598   0.324   4.570  24.806  0.1988  0.1435  0.1616
47505W        W90599  32.318   3.628  21.625 -0.0630  0.2702 -0.1668
47506W        W90600  34.453   4.791  22.824  0.0833  0.2890 -0.2340
47507W        W90601  33.798   5.964  23.376 -0.1152  0.0502 -0.1113
47508W        W90602   0.149   6.884  22.940  0.0193 -0.2302 -0.0397
47509W        W90603  34.088   4.894  23.296  0.0072 -0.0731 -0.1715
47510W        W90604  33.677   5.102  23.060  0.0790 -0.0662 -0.1801
47511W        W90605  33.910   2.796  22.176  0.1510  0.0243  0.2845
47512W        W90606  33.091   6.080  23.975  0.2176 -0.2264  0.2334
47513W        W90607  33.543   4.741  21.785  0.0151 -0.0240 -0.1357
47514W        W90608  32.908   6.004  21.288  0.0986  0.2395 -0.3830
47515W        W90609   1.248   4.462  20.991  0.0752 -0.2534 -0.1127
47516W        W90610  34.055   5.393  22.493  0.1777  0.2577  0.0206
47517W        W90611  33.276   5.417  18.668  0.2505  0.0527 -0.1801
47518W        W90612  34.523   7.048  23.786 -0.1513 -0.1156  0.2051
47519W        W90613  33.676   5.142  23.552 -0.1488  0.3816  0.0620
47520W        W90614   0.307   6.004  21.816  0.0906  0.3555  0.2673
47521W        W90615   0.194   6.260  19.993  0.1689 -0.1423  0.3065
47522W        W90616  32.835   5.112  21.134  0.3109  0.2190 -0.2454
47523W        W90617  33.593   5.639  22.528 -0.2721 -0.1161 -0.1519
47524W        W90618  34.323   7.051  27.058 -0.0088 -0.0033 -0.1627
47525W        W90619  33.272   5.936  24.655  0.1190 -0.1802  0.2495
47526W        W90620  33.446   4.830  26.120 -0.1623  0.1642  0.2002
47527W        W90621  33.274   4.713  25.684  0.3777  0.0097 -0.0916
47528W        W90622   0.271   4.742  26.776 -0.2350  0.2053  0.0438
47529W        W90623  33.648   5.906  26.904  0.2162 -0.2516 -0.0322
47530W        W90624   0.567   5.040  25.555  0.2547 -0.2032  0.3159
47531W        W90625  33.234   4.246  25.422  0.3030 -0.2948 -0.0047
47532W        W90626  33.555   5.877  25.090 -0.0020  0.0364  0.0797
47533W        W90627  33.726   4.367  27.042 -0.1926  0.0853 -0.2902
47534W        W90628   0.198   5.398  25.417 -0.0948  0.1020 -0.2706
47535W        W90629  34.204   4.575  25.279 -0.3134  0.0950 -0.0969
47536W        W90630   1.058   6.848  23.266 -0.2570 -0.0140 -0.0336
47537W        W90631  32.770   5.226  24.084 -0.1652  0.3734  0.0160
47538W        W90632  31.929   5.636  25.444  0.0105 -0.2270  0.3385
47539W        W90633  34.582   6.322  27.517  0.0420  0.3044  0.2216
47540W        W90634   0.346   7.098  25.126 -0.1385 -0.0795  0.0559
47541W        W90635  34.560   7.015  26.634 -0.1828 -0.1848 -0.1584
47542W        W90636  32.339   6.429  25.838  0.0777  0.0423  0.0609
47543W        W90637  31.940   7.071  25.830 -0.3085  0.0769 -0.2449
47544W        W90638  34.178   6.197  25.173  0.0342 -0.1302 -0.0496
47545W        W90639  33.604   7.261  27.499 -0.3818  0.3800  0.1260
47546W        W90640  33.547   6.284  24.157  0.0246  0.3192  0.1438
47547W        W90641  33.585   7.311  27.996  0.2130  0.1890  0.0504
47548W        W90642  34.297   6.599  23.805 -0.0906  0.3355 -0.2803
47549W        W90643  34.039   6.051  25.715 -0.0533  0.2353 -0.0631
47550W        W90644  33.504   6.145  28.245 -0.1579  0.4903 -0.1357
47551W        W90645  32.298   6.876  25.556 -0.2879 -0.0120 -0.4525
47552W        W90646  32.749   6.405  26.245  0.1946 -0.1776  0.1610
47553W        W90647  34.558   4.452  24.559  0.1047 -0.1596  0.0186
47554W        W90648   0.523   3.717  25.933 -0.3022 -0.3416  0.1013
47555W        W90649   0.069   7.749  25.793 -0.2003 -0.0023  0.1922
47556W        W90650  34.198   5.403  27.579 -0.1220  0.3705  0.2002
47557W        W90651  33.872   6.873  27.287  0.1410 -0.2430 -0.1872
47558W        W90652  33.984   5.780  25.278 -0.0806 -0.0257 -0.1471
47559W        W90653  33.171   4.859  24.649 -0.1819 -0.2257 -0.1029
47560W        W90654  32.777   5.622  28.033  0.1613 -0.0477 -0.0514
47561W        W90655  33.731   5.310  27.469  0.0989 -0.0363  0.0092
47562W        W90656  34.002   3.597  22.915 -0.3013 -0.1919 -0.1347
47563W        W90657  32.798   6.695  27.686 -0.1027 -0.2421 -0.1491
47564W        W90658   0.114   5.487  24.577  0.0882  0.2281  0.5021
47565W        W90659  32.941   6.517  24.351 -0.0513  0.2761 -0.1648
47566W        W90660  33.675   6.178  25.428  0.0089 -0.0115  0.1711
47567W        W90661  33.127   6.886  26.086 -0.0539  0.3272 -0.0726
47568W        W90662  34.454   5.880  25.902 -0.4430 -0.1633 -0.0326
47569W        W90663  34.638   6.303  26.767 -0.1511 -0.1084  0.0218
47570W        W90664  33.024   7.033  24.401 -0.0538  0.0293  0.1855
47571W        W90665  32.716   5.692  25.244  0.3545  0.0120  0.0626
47572W        W90666  32.792   7.428  24.220 -0.1900 -0.0430  0.0420
47573W        W90667  33.168   4.446  24.957 -0.4259  0.2688  0.0530
47574W        W90668  34.552   6.299  25.601 -0.1888 -0.1250  0.0440
47575W        W90669   0.044   4.979  25.718 -0.3896  0.1606  0.2735
47576W        W90670  33.202   5.597  24.144  0.2135  0.1934 -0.5655
47577W        W90671  32.322   6.720  26.314  0.1838  0.0275  0.0149
47578W        W90672   1.052   5.430  25.735 -0.0666 -0.2483  0.2293
47579W        W90673  32.687   4.566  26.774 -0.1075  0.3695 -0.2018
47580W        W90674  33.398   5.886  26.085  0.0355  0.1867 -0.0867
47581W        W90675  32.117   4.073  24.220  0.0242 -0.2711 -0.1021
47582W        W90676  33.451   6.207  26.511  0.1282 -0.0325  0.2863
47583W        W90677  32.566   6.233  27.234 -0.2362  0.0126 -0.1090
47584W        W90678  33.931   4.772  26.254 -0.2645  0.0800 -0.2450
47585W        W90679  33.545   4.597  22.923 -0.0850 -0.2983  0.1026
47586W        W90680  33.034   7.340  25.662 -0.2991  0.1348  0.0121
47587W        W90681   0.718   7.183  23.468 -0.5214 -0.0106  0.0948
47588W        W90682   1.195   4.044  23.419 -0.1870 -0.0336  0.2846
47589W        W90683  32.414   6.372  27.899  0.2665 -0.0694  0.0307
47590W        W90684  34.028   4.189  26.145  0.0238  0.2429  0.0134
47591W        W90685  33.549   7.394  24.984 -0.0074 -0.1885 -0.1828
47592W        W90686  32.818   6.913  25.425 -0.2273 -0.0331  0.0862
47593W        W90687   1.004   7.290  24.307 -0.2460  0.0132  0.1518
47594W        W90688  33.867   6.300  27.359 -0.0098 -0.0718 -0.1623
47595W        W90689  33.217   3.929  24.198  0.0033 -0.2403 -0.2715
47596W        W90690  33.258   6.353  26.987  0.2630  0.1939 -0.5042
47597W        W90691  32.548   5.630  27.470  0.0325  0.1713 -0.0838
47598W        W90692  34.017   7.921  24.612 -0.0170  0.1089 -0.3194
47599W        W90693  34.667   6.295  24.954  0.2569 -0.1303 -0.0684
47600W        W90694  34.051   6.534  25.524 -0.0392  0.1334  0.0393
47601W        W90695  34.612   4.298  26.833 -0.2356 -0.2531  0.1183
47602W        W90696  32.930   6.738  24.854  0.0572 -0.3396 -0.1592
47603W        W90697  33.508   6.803  23.267 -0.1196 -0.2823  0.1218
47604W        W90698   0.936   3.675  27.758  0.3509  0.0090 -0.0454
47605W        W90699  34.335   5.538  25.023 -0.0590 -0.0638  0.4509
47606W        W90700  34.604   4.295  25.520 -0.0312  0.0774 -0.0603
47607W        W90701  33.442   7.096  26.538  0.2511 -0.0150  0.0675
47608W        W90702  33.944   7.700  27.323 -0.3409 -0.4654 -0.0136
47609W        W90703   0.091   4.532  26.299  0.1976 -0.1612 -0.1437
47610W        W90704  33.770   6.316  24.868 -0.1551  0.0796 -0.0766
47611W        W90705  33.575   4.649  24.707  0.2771 -0.0204  0.3064
47612W        W90706   0.980   5.246  25.244 -0.3368 -0.3828 -0.0924
47613W        W90707   0.818   5.992  26.929 -0.1014  0.0456 -0.2407
47614W        W90708   0.772   6.369  24.165 -0.2602  0.0771 -0.3244
47615W        W90709  34.008   7.043  26.594  0.0656  0.1425  0.0300
47616W        W90710  31.929   6.461  26.465  0.2083  0.0871  0.0450
47617W        W90711  34.409   4.861  24.308 -0.1832 -0.0010 -0.0178
47618W        W90712  32.922   5.064  25.887 -0.2398  0.0170 -0.3824
47619W        W90713  34.194   4.874  25.706  0.1928  0.0931  0.1764
47620W        W90714   2.664   4.177  25.328 -0.0408  0.1839  0.0386
47621W        W90715  34.330   7.158  26.145  0.3289  0.0489 -0.0431
47622W        W90716  33.484   5.439  27.001 -0.2592 -0.1620  0.0664
47623W        W90717  33.665   4.573  23.372 -0.3032  0.1229 -0.0015
47624W        W90718  34.451   5.098  25.319 -0.0016  0.2023  0.0585
47625W        W90719  31.333   6.757  25.088 -0.1951  0.1926 -0.1275
47626W        W90720  33.036   6.258  25.048 -0.1262  0.0740 -0.0725
47627W        W90721   0.270   5.950  26.762  0.0774 -0.0431  0.0884
47628W        W90722  34.214   3.895  26.988  0.3340  0.0344  0.1135
47629W        W90723  34.496   5.373  25.844 -0.0363  0.0395 -0.1101
47630W        W90724   0.553   5.413  25.019  0.1859  0.0069 -0.1990
47631W        W90725   1.470   5.390  25.426 -0.0694  0.1066  0.3319
47632W        W90726  34.656   4.957  28.563 -0.0422  0.0521 -0.1612
47633W        W90727  33.558   6.665  28.316 -0.1065 -0.0391  0.1388
47634W        W90728  33.844   6.363  23.711 -0.0110  0.1706 -0.0322
47635W        W90729  33.011   5.958  26.442  0.2018 -0.1207 -0.0854
47636W        W90730  33.546   7.128  24.449 -0.2162  0.3072 -0.3284
47637W        W90731  34.538   5.480  26.311 -0.1417 -0.1483  0.0517
47638W        W90732  34.225   6.547  26.488  0.2125  0.3241 -0.2102
47639W        W90733  32.227   4.207  25.641 -0.1781  0.1823 -0.0090
47640W        W90734  33.733   6.504  26.861 -0.0000 -0.0532  0.1148
47641W        W90735   0.631   4.661  26.246  0.0751 -0.2685  0.2208
47642W        W90736  34.004   3.277  25.700  0.2373  0.0915 -0.2151
47643W        W90737  32.985   5.535  26.168  0.0340 -0.2160 -0.2153
47644W        W90738  33.964   5.361  28.053  0.4290  0.1160 -0.1758
47645W        W90739  33.672   4.160  24.214 -0.1210  0.0325  0.2342
47646W        W90740  34.609   5.958  27.181 -0.1131 -0.2408  0.3443
47647W        W90741  33.193   6.626  25.305  0.0003 -0.1727  0.0603
47648W        W90742  32.727   6.003  27.757 -0.0125 -0.0603  0.1395
47649W        W90743   0.306   4.558  24.288 -0.2521  0.0684  0.0542
47650W        W90744  33.190   7.913  25.554  0.1994 -0.0046 -0.0729
47651W        W90745  34.169   4.153  25.649  0.0289 -0.1406  0.0114
47652W        W90746  33.531   5.038  28.285  0.4612  0.0780  0.0568
47653W        W90747  33.593   4.678  26.582  0.1872 -0.1469 -0.0338
47654W        W90748  34.452   5.834  25.426  0.2716  0.0184 -0.0486
47655W        W90749  33.909   5.629  24.768  0.2511  0.0270  0.1487
47656W        W90750   0.745   6.765  24.421  0.1897 -0.1342  0.0047
47657W        W90751  32.626   6.178  25.502  0.2322 -0.2196  0.0095
47658W        W90752  33.573   8.147  26.332 -0.2086 -0.1449 -0.0938
47659W        W90753  33.505   4.047  24.657 -0.0596 -0.0793 -0.0104
47660W        W90754  33.527   5.862  23.905  0.1924 -0.0565  0.3862
47661W        W90755  33.998   5.775  27.309  0.0695 -0.3140  0.1668
47662W        W90756   1.407   4.435  23.731 -0.1327 -0.0447 -0.0251
47663W        W90757  31.950   6.041  25.804 -0.1219 -0.0374 -0.1663
47664W        W90758  34.466   7.677  26.207  0.0725  0.2713 -0.1074
47665W        W90759  31.986   5.514  26.571  0.0895  0.0039  0.1294
47666W        W90760  33.570   6.673  25.728  0.2934  0.1251 -0.0644
47667W        W90761   0.269   5.966  25.656  0.0334  0.0114  0.2399
47668W        W90762  34.020   7.139  25.150 -0.1490  0.0313  0.1661
47669W        W90763  33.409   7.620  26.259 -0.0907 -0.2112 -0.2613
47670W        W90764  33.251   4.466  27.070 -0.1317  0.2183  0.0424
47671W        W90765  33.949   4.394  24.865 -0.0877 -0.0048  0.0058
47672W        W90766  32.004   5.401  27.541 -0.1560 -0.1115  0.0615
47673W        W90767  34.199   6.076  26.947 -0.0035 -0.1054 -0.1217
47674W        W90768  33.464   7.096  25.430  0.4153  0.2028 -0.0537
47675W        W90769   0.642   5.681  25.520  0.1586 -0.0237  0.0331
47676W        W90770  32.166   5.886  26.764  0.4812  0.2108 -0.0522
47677W        W90771  31.211   4.924  25.321  0.2078 -0.0239 -0.2897
47678W        W90772  32.504   7.043  25.066 -0.0513 -0.2359 -0.0652
47679W        W90773   0.231   5.826  26.260 -0.0114  0.1800 -0.2971
47680W        W90774   0.652   4.878  23.996  0.0029  0.2228  0.1687
47681W        W90775  34.072   4.870  26.720  0.1288 -0.1017 -0.0668
47682W        W90776  33.354   7.570  27.063  0.1146 -0.2719  0.2837
47683W        W90777  33.740   6.703  25.223  0.1998 -0.2284  0.1748
47684W        W90778   0.290   5.484  25.922 -0.2678  0.1067  0.0262
47685W        W90779   0.805   5.620  23.449  0.0848  0.0945  0.3917
47686W        W90780  33.413   6.898  24.861 -0.3049 -0.2293  0.2338
47687W        W90781  34.485   7.134  25.283  0.1188  0.0166 -0.1274
47688W        W90782  34.363   8.172  24.380 -0.0147 -0.1407 -0.0237
47689W        W90783  33.620   4.447  25.251  0.0165  0.0332 -0.1052
47690W        W90784  33.692   6.701  26.390 -0.1090  0.1527  0.1972
47691W        W90785  34.066   5.352  25.609 -0.0770 -0.0954  0.0774
47692W        W90786  33.650   5.201  26.592  0.1419 -0.2703 -0.3089
47693W        W90787  34.130   5.079  23.781  0.0492  0.2446  0.1898
47694W        W90788  34.607   3.729  25.557  0.0207 -0.2694  0.2261
47695W        W90789  31.739   6.497  25.957 -0.0195 -0.2811 -0.0944
47696W        W90790  34.236   5.994  27.693  0.1912 -0.1824 -0.1273
47697W        W90791  34.156   3.267  26.190  0.0959 -0.0625 -0.0942
47698W        W90792   0.512   7.413  24.129  0.3493 -0.0280 -0.0423
47699W        W90793  33.501   5.233  24.768  0.2819  0.0319  0.0844
47700W        W90794   0.717   4.309  25.050 -0.1145  0.1761 -0.2579
47701W        W90795  33.960   6.119  26.510 -0.0427 -0.6524  0.3738
47702W        W90796  33.900   6.880  24.716 -0.0179 -0.0639  0.0920
47703W        W90797   0.325   5.269  23.662 -0.1626  0.2692 -0.0051
47704W        W90798  34.319   6.399  26.014  0.1460  0.0514  0.2452
47705W        W90799  34.034   5.209  28.782 -0.2871  0.0477  0.0467
47706W        W90800  33.250   5.758  23.518 -0.2262  0.3163 -0.0721
47707W        W90801  33.511   6.274  27.794 -0.1999 -0.3226 -0.1043
47708W        W90802   0.451   5.305  24.143 -0.0896  0.0797 -0.0144
47709W        W90803  33.903   6.635  24.228  0.1937 -0.0441 -0.2485
47710W        W90804  34.251   5.601  24.185  0.0363 -0.0316 -0.0955
47711W        W90805  33.828   3.986  25.183 -0.0865 -0.0263  0.1271
47712W        W90806  33.783   6.310  26.043 -0.2117  0.1332  0.1707
47713W        W90807  33.886   3.570  24.367 -0.0170 -0.1617 -0.1718
47714W        W90808  34.226   7.574  24.301 -0.3900 -0.1092 -0.0033
47715W        W90809  33.194   6.358  26.072 -0.2213  0.2456 -0.0927
47716W        W90810  34.301   4.473  26.517  0.0376  0.0196 -0.4088
47717W        W90811  32.038   4.829  28.963  0.1955 -0.0307  0.0512
47718W        W90812  32.848   6.509  25.765 -0.1064 -0.0996  0.0485
47719W        W90813  33.092   5.565  25.645  0.0043 -0.2330  0.2844
47720W        W90814  33.684   5.404  25.225  0.1010 -0.0132 -0.0737
47721W        W90815  33.526   4.193  26.521  0.0753  0.2577  0.0512
47722W        W90816  33.533   3.806  26.166 -0.1361 -0.0568 -0.1814
47723W        W90817  32.288   7.945  24.030 -0.1503  0.1697 -0.0869
47724W        W90818  33.713   4.862  27.086  0.2359 -0.1317 -0.1136
47725W        W90819  33.639   5.707  25.667  0.0549  0.2114 -0.1691
47726W        W90820  32.909   4.488  22.919  0.5288  0.0090  0.4048
47727W        W90821   0.131   5.812  25.150  0.2918 -0.2461 -0.0876
47728W        W90822  33.989   5.365  27.024  0.0903  0.3832  0.0498
47729W        W90823  33.349   6.838  27.788  0.1169 -0.1724  0.0581
47730W        W90824  32.621   2.886  25.265 -0.2139  0.1707  0.1395
47731W        W90825  34.398   7.543  27.179 -0.0403 -0.0867  0.0519
47732W        W90826  33.208   3.425  25.991  0.0280 -0.0167  0.0364
47733W        W90827  33.384   4.761  27.932  0.0945 -0.2570 -0.0196
47734W        W90828   1.507   5.378  24.939  0.0201 -0.1255  0.2084
47735W        W90829  34.088   5.289  26.342 -0.2257  0.0901  0.1525
47736W        W90830   1.002   5.183  24.304 -0.1582  0.0862  0.1387
47737W        W90831   0.393   4.267  28.706 -0.4604 -0.0122 -0.0086
47738W        W90832  33.411   6.502  24.588 -0.2332  0.0485  0.0423
47739W        W90833   0.021   6.738  27.127  0.1750 -0.0105  0.1027
47740W        W90834  33.196   2.777  25.688  0.1282 -0.2076 -0.0025
47741W        W90835  33.959   7.126  25.634  0.0857  0.0839  0.0897
47742W        W90836   0.152   4.948  24.474  0.0392 -0.2316  0.2072
47743W        W90837  34.498   4.520  25.942 -0.0016  0.1327 -0.1751
47744W        W90838   0.465   7.599  27.427 -0.0407 -0.0306  0.1571
47745W        W90839   1.118   6.967  30.702  0.0712  0.2430  0.3251
47746W        W90840   1.173   5.408  28.799  0.1055 -0.1590  0.1533
47747W        W90841  33.647   4.821  29.018 -0.2250 -0.0386  0.1040
47748W        W90842   0.463   4.173  29.735 -0.0655 -0.0101 -0.2103
47749W        W90843  33.302   5.704  31.223 -0.0408  0.1910 -0.4372
47750W        W90844  34.555   4.768  31.415  0.0353 -0.2316  0.0084
47751W        W90845   0.025   4.890  28.079 -0.0427 -0.2671 -0.0365
47752W        W90846  34.269   5.527  29.322 -0.0207  0.0963 -0.2364
47753W        W90847  32.152   6.376  28.471  0.0858  0.0764  0.0927
47754W        W90848   0.015   5.475  29.703 -0.3709 -0.3286  0.1147
47755W        W90849  33.874   6.446  31.450 -0.0613 -0.4097  0.1181
47756W        W90850  34.136   4.247  30.055 -0.0818 -0.0964  0.2437
47757W        W90851  34.154   6.737  28.365 -0.1424 -0.2862 -0.4114
47758W        W90852  32.748   3.614  27.056  0.1646  0.0954 -0.1067
47759W        W90853  33.002   4.562  29.999  0.1431  0.1762 -0.0125
47760W        W90854  34.666   6.236  30.993 -0.0073 -0.0749 -0.0195
47761W        W90855   0.759   7.130  29.313 -0.0544 -0.2528 -0.0028
47762W        W90856   0.914   6.697  29.190 -0.0296 -0.0394  0.0633
47763W        W90857  33.546   5.991  29.178 -0.2141 -0.0853 -0.2351
47764W        W90858  33.253   8.665  29.614 -0.0974  0.1016 -0.0402
47765W        W90859   0.466   6.407  30.060  0.4070 -0.1638  0.3145
47766W        W90860   0.219   6.154  31.872  0.1912  0.1806 -0.1864
47767W        W90861  33.781   6.762  28.755 -0.0031 -0.3631  0.2087
47768W        W90862  34.253   5.341  30.009 -0.0460  0.0466 -0.1637
47769W        W90863  34.069   5.813  28.204  0.0857 -0.3011 -0.0735
47770W        W90864   2.180   3.951  29.239  0.1976  0.0496 -0.1897
47771W        W90865   0.350   7.122  30.495 -0.0102  0.0407  0.1284
47772W        W90866  33.087   7.171  30.072 -0.0653 -0.1410 -0.2194
47773W        W90867  34.598   6.609  28.485 -0.0077  0.0680  0.0611
47774W        W90868  34.216   5.037  28.330 -0.0381  0.2581 -0.1135
47775W        W90869   0.440   3.270  28.834  0.0366 -0.0276  0.0799
47776W        W90870  34.498   7.127  31.037  0.3820  0.5711  0.2396
47777W        W90871   0.650   3.999  28.397 -0.0655 -0.1562  0.1463
47778W        W90872  33.011   7.163  30.623 -0.0930 -0.2341  0.2829
47779W        W90873  32.937   7.375  31.084  0.2927  0.3749  0.0236
47780W        W90874  32.660   4.174  27.048  0.1238 -0.0602  0.1143
47781W        W90875  33.039   5.394  31.586 -0.1633 -0.5858  0.3021
47782W        W90876   0.071   5.167   1.045  0.1442 -0.2326  0.1480
47783W        W90877   0.336   3.195  26.513  0.0917  0.1693 -0.1114
47784W        W90878  32.016   6.830   0.012  0.2470  0.2267  0.2777
47785W        W90879  33.837   5.625  29.020  0.1638  0.1357 -0.0818
47786W        W90880  33.240   5.822  27.846  0.2386  0.1345  0.0370
47787W        W90881   0.718   5.361  28.594 -0.0564  0.1209 -0.2287
47788W        W90882  34.255   6.603  30.310 -0.1240  0.1952  0.1616
47789W        W90883  34.646   4.934  30.962  0.1051  0.1143  0.2793
47790W        W90884   1.178   5.816  31.457 -0.0905  0.1384 -0.1129
47791W        W90885  33.500   7.057  29.090  0.3489  0.0014  0.1144
47792W        W90886  32.874   5.884  29.843  0.0873  0.0338  0.0173
47793W        W90887  33.405   5.275  28.763 -0.0347  0.3899 -0.0833
47794W        W90888  34.522   4.575   0.439  0.0721 -0.1536 -0.2059
47795W        W90889   0.385   6.714  29.143 -0.1676  0.1572  0.0376
47796W        W90890  33.734   3.977  31.101 -0.3175  0.1608  0.1179
47797W        W90891  33.411   5.353  27.857  0.1765 -0.0119  0.2360
47798W        W90892  32.761   6.004  30.737 -0.1363 -0.2054 -0.0982
47799W        W90893   0.430   5.839  30.436 -0.1388  0.1800  0.2856
47800W        W90894  34.221   3.962  30.922 -0.0953 -0.0304 -0.2586
47801W        W90895  33.186   4.296  31.020 -0.0340  0.1293 -0.1136
47802W        W90896  32.951   4.796  29.567 -0.2618  0.1648  0.1682
47803W        W90897   0.286   4.495  30.085 -0.1771 -0.0269 -0.2103
47804W        W90898  34.255   6.056  29.258  0.1172  0.1019  0.1830
47805W        W90899   0.171   5.185  30.408 -0.0268  0.0140 -0.0324
47806W        W90900  32.565   3.294  28.305  0.3374 -0.0542  0.1487
47807W        W90901  34.359   7.735  29.889  0.0462 -0.2960 -0.0308
47808W        W90902  34.640   5.700  28.936  0.1413  0.0149  0.0604
47809W        W90903  33.788   4.955  27.796 -0.2587  0.2544 -0.1796
47810W        W90904  34.251   6.649  31.116 -0.0225 -0.1544 -0.3576
47811W        W90905  33.466   4.437  27.521  0.3283 -0.0082  0.3819
47812W        W90906  32.373   6.746  27.322 -0.3743  0.2549  0.1334
47813W        W90907  32.295   5.847  29.706 -0.0301 -0.0106 -0.1727
47814W        W90908   1.980   5.059  28.469  0.0085  0.1003  0.0498
47815W        W90909  32.587   4.232  31.234 -0.0025  0.1313 -0.1154
47816W        W90910  33.331   5.547  29.240 -0.0239  0.2312  0.0994
47817W        W90911  33.980   7.069  31.567 -0.3034  0.2273 -0.2588
47818W        W90912  33.784   5.232  29.916  0.1881  0.1131  0.2218
47819W        W90913   0.355   5.404  27.482  0.0797 -0.1898  0.0826
47820W        W90914   0.839   6.540  28.258  0.0800  0.2301 -0.0438
47821W        W90915   0.423   5.425  30.001 -0.1521  0.2390 -0.0993
47822W        W90916  34.182   3.928  29.224 -0.3402  0.0735 -0.3199
47823W        W90917  33.655   5.611  28.435 -0.0801  0.6140 -0.2152
47824W        W90918  33.363   6.991  27.057  0.0319 -0.2567 -0.2116
47825W        W90919  32.986   4.326   0.287  0.0705  0.0280  0.0296
47826W        W90920  33.376   4.919  27.458  0.0392  0.0555 -0.0489
47827W        W90921   1.024   4.652  30.735  0.1758  0.2070  0.0953
47828W        W90922   0.926   5.145  30.945  0.0932 -0.0671  0.2268
47829W        W90923  33.382   7.549  30.342 -0.0786 -0.0068 -0.2918
47830W        W90924   0.641   4.632  31.099 -0.1715 -0.0586  0.1728
47831W        W90925  33.611   7.338  29.535 -0.2435  0.0476  0.2610
47832W        W90926   0.220   5.407  28.443 -0.1115  0.2373 -0.1188
47833W        W90927  34.427   3.739  28.269  0.2937  0.0657 -0.0297
47834W        W90928   0.111   6.238  29.148  0.2964  0.1117  0.1260
47835W        W90929  33.149   5.831  26.931 -0.1307 -0.2251 -0.2523
47836W        W90930  31.716   7.630  30.737  0.1037 -0.3289  0.4316
47837W        W90931  33.805   7.423  30.526  0.2569 -0.0466 -0.2812
47838W        W90932  34.446   3.557  26.686  0.1807 -0.3608  0.1009
47839W        W90933  32.870   6.666  27.157 -0.2278 -0.2966  0.3862
47840W        W90934  34.219   5.733  31.567 -0.1325 -0.0701  0.1134
47841W        W90935   0.610   4.908  29.913  0.0801 -0.1912  0.2376
47842W        W90936  32.847   7.758  30.026 -0.1956  0.0237  0.0781
47843W        W90937   1.388   5.007  30.484 -0.1220  0.0972  0.0504
47844W        W90938  32.470   6.034  28.250 -0.1708 -0.4948 -0.1472
47845W        W90939  33.465   4.559  30.576  0.3223 -0.1501 -0.1057
47846W        W90940  32.314   6.870  29.572 -0.1706  0.0982 -0.1218
47847W        W90941  33.827   5.734  29.505 -0.1528  0.1227 -0.4519
47848W        W90942  34.346   6.163  28.393  0.0013  0.1982 -0.1957
47849W        W90943  34.283   5.224  31.265 -0.0358 -0.0307 -0.0455
47850W        W90944  34.658   5.804  30.719  0.5455 -0.1893  0.0766
47851W        W90945   0.573   4.669  29.316 -0.4557  0.3435  0.0456
47852W        W90946   1.695   5.004  30.082 -0.1988 -0.0341 -0.1230
47853W        W90947   0.929   4.557  29.751  0.1720 -0.1867 -0.1604
47854W        W90948  34.056   7.635   0.248 -0.1853  0.3939 -0.2371
47855W        W90949  33.368   5.387  30.346 -0.0335 -0.1865 -0.0734
47856W        W90950  33.793   6.582  30.582 -0.1110  0.0737  0.0093
47857W        W90951  33.081   5.829  28.377 -0.0743  0.0692  0.0460
47858W        W90952  34.369   4.896  30.265  0.0738  0.0980 -0.1484
47859W        W90953   0.045   5.951  29.547  0.2495 -0.1235 -0.1773
47860W        W90954  33.360   6.768  29.738  0.2207  0.2715 -0.3092
47861W        W90955  33.426   6.140  29.821 -0.2676  0.1148  0.1618
47862W        W90956   0.379   5.160  29.427  0.0691 -0.2468 -0.1686
47863W        W90957  33.848   4.430  30.936 -0.0531 -0.0419  0.1975
47864W        W90958  32.271   4.350  31.625  0.1908  0.3655  0.0407
47865W        W90959  33.045   6.262  31.112  0.2527  0.1583  0.1812
47866W        W90960   0.464   3.752  27.930 -0.0074  0.0100 -0.1067
47867W        W90961  33.726   6.490  30.029 -0.0429 -0.0993  0.0419
47868W        W90962   0.571   5.837  28.383  0.2660  0.0356 -0.0442
47869W        W90963  34.447   5.310  30.668  0.0969  0.0414 -0.2054
47870W        W90964   1.133   6.220  27.759 -0.1628 -0.2862  0.2288
47871W        W90965  34.338   6.610  28.888 -0.1537  0.2355  0.1534
47872W        W90966  34.396   4.422  31.000  0.0254 -0.1256 -0.1443
47873W        W90967  33.359   4.753  31.021 -0.1791  0.2268 -0.0909
47874W        W90968  32.735   4.180  30.183  0.1418  0.2845  0.1817
47875W        W90969  34.102   4.443  31.487  0.2052  0.0107  0.1041
47876W        W90970   0.402   3.346  26.991  0.0468  0.1371 -0.4349
47877W        W90971   0.130   7.338  27.011  0.0127 -0.0423 -0.0529
47878W        W90972  33.811   4.119  30.561  0.0756 -0.1165  0.0120
47879W        W90973   0.001   5.857  31.431  0.5332  0.0176  0.0392
47880W        W90974  32.889   5.167  27.862  0.1057  0.0107  0.0559
47881W        W90975  33.978   6.274  27.999  0.2790  0.0095  0.1509
47882W        W90976   0.615   7.023  28.668 -0.2182 -0.0105 -0.0067
47883W        W90977  34.636   4.542  27.677  0.0680 -0.0156 -0.0285
47884W        W90978  33.047   6.245  28.040  0.0245 -0.0680  0.1184
47885W        W90979  32.929   7.655  30.544  0.3545  0.1207 -0.0857
47886W        W90980  31.844   5.861  31.022 -0.1026 -0.0215  0.1147
47887W        W90981  34.509   7.425  28.919  0.2496 -0.1174  0.0236
47888W        W90982  34.452   5.395  28.028  0.1077  0.4438 -0.2619
47889W        W90983  33.313   6.381  30.297  0.1350  0.1836  0.0765
47890W        W90984  34.240   6.592  29.384  0.1077  0.3106 -0.1654
47891W        W90985  33.012   4.285  31.488  0.2651 -0.2697  0.1647
47892W        W90986   0.029   4.082  27.932 -0.2205  0.1147 -0.1819
47893W        W90987  33.712   6.095  30.499  0.1063 -0.0308  0.2402
47894W        W90988  34.570   6.159  30.275 -0.3347 -0.0771  0.1171
47895W        W90989  34.008   7.087  29.186  0.1778  0.1227 -0.3363
47896W        W90990  34.538   3.564  27.288  0.0870  0.0053 -0.0172
47897W        W90991   0.247   8.455  29.533  0.2219 -0.0627 -0.1223
47898W        W90992  32.336   6.993  27.773  0.2526 -0.3655 -0.0690
47899W        W90993  34.139   7.588  29.270 -0.0794  0.0987 -0.2552
47900W        W90994  33.612   5.042  30.734  0.2772  0.3823 -0.1246
47901W        W90995  33.951   4.534  27.503 -0.2616 -0.1908 -0.3656
47902W        W90996  34.100   5.100  31.687 -0.0827 -0.1600 -0.0729
47903W        W90997  33.410   6.606  30.947 -0.1838  0.1195 -0.0005
47904W        W90998  34.252   4.700  28.788  0.2556 -0.0455 -0.2401
47905W        W90999  33.087   4.997  30.595  0.0540  0.1374 -0.0242
47906W        W91000   1.319   4.925  29.626 -0.1771 -0.1408 -0.0590
47907W        W91001   1.266   6.343  29.045 -0.1142  0.1722  0.0856
47908W        W91002  33.794   6.863  31.145 -0.0782 -0.1181  0.2501
47909W        W91003   1.035   8.227  30.066  0.2201  0.1676  0.2626
47910W        W91004  33.755   3.539  28.273  0.1220  0.1713 -0.0890
47911W        W91005  34.191   4.901  30.876  0.0153 -0.5143  0.1211
47912W        W91006  33.995   4.715  29.987  0.0402  0.2658  0.1498
47913W        W91007  32.532   5.388  29.827  0.4309 -0.0245 -0.2596
47914W        W91008  34.464   5.118  29.025  0.0609 -0.1325 -0.4181
47915W        W91009  33.558   3.807  30.295 -0.0101 -0.0268 -0.1578
47916W        W91010  33.990   5.269  30.464 -0.0450  0.2019 -0.0699
47917W        W91011   0.825   6.170  31.228 -0.2741  0.0349 -0.0964
47918W        W91012  33.857   4.890  31.248  0.0608 -0.0330  0.0534
47919W        W91013   0.391   8.362  27.938 -0.0383  0.4802 -0.0112
47920W        W91014  32.717   3.999  31.905  0.3086  0.2129 -0.0975
47921W        W91015   0.998   4.190  28.901 -0.1274  0.0989  0.0595
47922W        W91016  33.677   5.240  29.398 -0.1214  0.1262 -0.0580
47923W        W91017  34.145   5.927  28.757  0.1548  0.1324  0.0444
47924W        W91018  33.491   6.563  27.357 -0.2049 -0.0039  0.1748
47925W        W91019   1.719   6.379  30.687  0.2908 -0.2604  0.0504
47926W        W91020  33.409   7.116  31.215 -0.0065  0.0739 -0.1710
47927W        W91021  33.182   4.988  26.950  0.0876 -0.0887 -0.3446
47928W        W91022   0.792   6.110  30.743  0.0866 -0.1040  0.0311
47929W        W91023   0.336   6.453  28.698 -0.1477 -0.0945 -0.2415
47930W        W91024   1.525   8.168  28.058  0.1494  0.0307 -0.0637
47931W        W91025   2.859   4.858  29.047  0.0653  0.3530 -0.0993
47932W        W91026  34.221   5.713  31.049  0.2702  0.1359 -0.2950
47933W        W91027   0.627   6.659  30.504 -0.0369 -0.3347 -0.0278
47934W        W91028  31.335   4.931  26.660 -0.0609  0.1414  0.3041
47935W        W91029  34.306   5.841  29.746 -0.1275 -0.0809 -0.0350
47936W        W91030  33.729   5.692  30.121  0.0560 -0.2508  0.1445
47937W        W91031   0.512   5.908  31.553 -0.1735 -0.1357  0.0321
47938W        W91032  34.121   3.897  31.433  0.2280 -0.2084  0.2425
47939W        W91033  33.303   6.049  30.733  0.0161 -0.2309 -0.1848
47940W        W91034  34.234   4.270  27.786  0.2959 -0.1587 -0.2470
47941W        W91035  32.851   4.570  30.547 -0.0554 -0.0108 -0.0643
47942W        W91036  33.183   3.623  29.970 -0.1254 -0.0417  0.1281
47943W        W91037   0.170   3.856  28.425  0.4103 -0.0562  0.0866
47944W        W91038  33.560   6.657  29.296 -0.0589  0.1299  0.0831
47945W        W91039  34.626   4.134  30.074  0.1212  0.3740 -0.3199
47946W        W91040   0.102   4.665  30.530 -0.0815 -0.0528  0.1215
47947W        W91041  32.308   3.783  26.844 -0.0158 -0.1976 -0.2582
47948W        W91042   0.469   4.949  30.786  0.0688 -0.0048  0.0237
47949W        W91043  34.481   6.976  31.623 -0.1787  0.3687 -0.0148
47950W        W91044  33.933   5.874   0.274  0.1633  0.5181  0.2183
47951W        W91045  33.633   3.161  30.842  0.1054  0.1505  0.1375
47952W        W91046  33.855   6.243  30.965  0.1643  0.0103  0.3291
47953W        W91047  33.389   3.347  31.185  0.1072 -0.0866  0.0874
47954W        W91048  31.649   6.552  31.057 -0.0556 -0.2262 -0.0096
47955W        W91049  34.286   4.931  27.856 -0.0922 -0.0844 -0.2299
47956W        W91050  31.956   5.540  30.619  0.2388 -0.1084 -0.2418
47957W        W91051   1.803   5.233  29.421 -0.4219 -0.0076  0.1271
47958W        W91052   0.821   5.504  29.688  0.0067 -0.1759  0.3227
47959W        W91053  33.747   4.443  28.015 -0.0310 -0.0954  0.0141
47960W        W91054   0.275   7.098  29.651 -0.3205 -0.2807 -0.0471
47961W        W91055  33.285   4.536  29.229  0.0298  0.0448  0.0521
47962W        W91056  33.371   5.590  29.773 -0.1049 -0.1470 -0.0741
47963W        W91057  34.629   5.599  30.180 -0.0050 -0.0696  0.0338
47964W        W91058  32.389   5.077  30.321  0.4608  0.1866  0.0996
47965W        W91059   0.274   6.315  30.530 -0.0691 -0.0825 -0.0931
47966W        W91060  33.630   3.053  31.925  0.0290 -0.1034 -0.2236
47967W        W91061  32.951   6.821  31.066  0.1928 -0.0702 -0.0234
47968W        W91062  33.779   5.203   0.131  0.1972  0.0554 -0.1478
47969W        W91063  33.522   5.071  31.586 -0.2980 -0.1306  0.0758
47970W        W91064  33.290   5.200  31.979  0.0823 -0.2766 -0.2897
47971W        W91065   0.310   2.125  31.941 -0.2414  0.1659  0.2638
47972W        W91066  33.167   5.205  31.089 -0.0238 -0.0099  0.0658
47973W        W91067  33.621   6.763  31.933  0.0863 -0.1354  0.0626
47974W        W91068  33.483   7.021  30.678  0.2626  0.1179 -0.1973
47975W        W91069   0.309   4.304   0.592 -0.1893  0.0120 -0.0093
47976W        W91070  34.195   4.414   0.068 -0.0438 -0.1078 -0.4332
47977W        W91071  32.912   3.509  31.799 -0.0599 -0.0942  0.0163
47978W        W91072  32.924   8.126  30.712  0.0184  0.1976 -0.2615
47979W        W91073  32.378   4.466  30.168  0.2659  0.1061  0.1911
47980W        W91074  33.162   8.347  31.318  0.0442  0.0006 -0.2697
47981W        W91075   0.355   5.954  31.009  0.3006 -0.0915 -0.0126
47982W        W91076   0.399   4.515  31.635 -0.1195 -0.0960 -0.4477
47983W        W91077  34.490   6.497  31.559 -0.3239 -0.1582 -0.0494
47984W        W91078  33.658   5.683  30.758  0.0218 -0.0221  0.2092
47985W        W91079  33.975   4.291   0.639  0.1891 -0.1904  0.1644
47986W        W91080  34.363   4.988   0.759 -0.2420 -0.1199  0.0651
47987W        W91081  32.788   6.483  31.590 -0.1183  0.1365  0.0047
47988W        W91082   1.565   5.187  31.385 -0.2802 -0.3695  0.0911
47989W        W91083  33.524   3.710   0.105  0.2511  0.0646  0.0315
47990W        W91084  34.564   6.894   0.174 -0.0391 -0.1946 -0.2024
47991W        W91085  33.655   5.349  31.116 -0.1263 -0.1759 -0.1683
47992W        W91086  33.835   4.670  31.844 -0.2062 -0.0232 -0.0124
47993W        W91087   0.244   5.561  31.836  0.0735 -0.0790 -0.5498
47994W        W91088  32.484   6.179  31.408  0.1730  0.2419  0.2726
47995W        W91089  34.694   3.694  30.643 -0.3757  0.0539 -0.1252
47996W        W91090  34.269   4.898   0.178 -0.1510  0.3139  0.0623
47997W        W91091   0.903   4.084  31.593  0.2745  0.0665  0.1245
47998W        W91092   0.226   8.314  31.839  0.2328  0.0147 -0.0379
47999W        W91093  33.902   7.557  31.674  0.1690 -0.0892  0.3295
48000W        W91094  33.875   5.568  31.871  0.1948 -0.3411 -0.0369
48001W        W91095  33.096   5.388   1.000 -0.0651 -0.1043 -0.0045
48002W        W91096  32.789   5.628  31.100  0.0388  0.3280 -0.1483
48003W        W91097  33.513   4.553  31.498 -0.0011  0.0249  0.1323
48004W        W91098  33.765   4.133  31.708  0.0406 -0.3450 -0.2183
48005W        W91099  33.905  10.663  19.237 -0.0115  0.3217 -0.1744
48006W        W91100  33.466   8.645  16.729 -0.0621 -0.0051 -0.0344
48007W        W91101  31.878   7.904  17.497  0.2831  0.0907  0.0850
48008W        W91102   0.355   7.548  19.807  0.1409  0.1360  0.1111
48009W        W91103  34.352   8.629  19.829  0.1025 -0.1186  0.4663
48010W        W91104  33.321  10.618  20.410  0.0859 -0.2225  0.0404
48011W        W91105  34.423   6.584  16.869 -0.1242 -0.0288  0.1311
48012W        W91106  31.442   8.256  17.526  0.1001 -0.1031  0.2884
48013W        W91107  31.839   9.757  16.370 -0.0452  0.0699 -0.4281
48014W        W91108  33.910   8.207  18.280  0.0874  0.0856  0.1018
48015W        W91109  33.217   7.860  16.798  0.2825 -0.0319  0.0484
48016W        W91110   0.434   7.944  18.917  0.2804  0.4849 -0.1494
48017W        W91111  33.810  10.447  17.707  0.1900  0.0831 -0.1078
48018W        W91112  31.821   7.800  16.811  0.0669 -0.1622 -0.0255
48019W        W91113  33.487   8.394  18.238  0.0573 -0.1994  0.1300
48020W        W91114  32.504   8.238  18.063 -0.0259 -0.1979 -0.2690
48021W        W91115  33.847  11.324  17.661 -0.0205 -0.3074  0.3529
48022W        W91116   0.268  10.715  20.204 -0.0290  0.0461  0.1732
48023W        W91117  32.476   7.933  17.583 -0.1582  0.0130  0.1146
48024W        W91118  33.344  10.650  17.817 -0.0979  0.0464 -0.1894
48025W        W91119  32.221  10.424  17.715 -0.0010  0.1490  0.2349
48026W        W91120   0.627  10.732  20.549  0.0072  0.0957  0.3506
48027W        W91121  32.639   9.644  15.783 -0.3556 -0.0200  0.0260
48028W        W91122  34.294  10.455  19.725  0.0703  0.1712 -0.0033
48029W        W91123  33.649   9.957  17.005  0.1876 -0.2815  0.3327
48030W        W91124  32.932  10.861  17.477  0.0448 -0.1104  0.2430
48031W        W91125  33.537  10.417  19.942  0.4656  0.2312  0.1431
48032W        W91126  32.979  10.984  19.142 -0.3335  0.2391  0.3037
48033W        W91127  33.337   9.630  15.600 -0.1410 -0.2582  0.2938
48034W        W91128  32.628   6.581  17.422 -0.0367 -0.0028  0.0170
48035W        W91129  33.675   6.681  17.498 -0.0935  0.0896  0.0507
48036W        W91130   0.421   8.869  19.138 -0.1519 -0.2572  0.0251
48037W        W91131  34.345   6.940  17.276 -0.1247 -0.1677 -0.0388
48038W        W91132  34.640   8.332  17.597 -0.0614 -0.1254 -0.0865
48039W        W91133  33.671   8.933  18.349 -0.4333 -0.3202  0.2326
48040W        W91134  32.313   9.341  17.246  0.0290 -0.0023 -0.0737
48041W        W91135  33.716   9.069  18.855  0.1560  0.1175 -0.2455
48042W        W91136  33.705   9.234  20.321  0.0210 -0.3558  0.0361
48043W        W91137  33.187   6.308  16.728 -0.3066 -0.2617 -0.0793
48044W        W91138  32.788   9.976  20.973  0.0449 -0.1331 -0.1240
48045W        W91139  34.297  10.077  18.187 -0.2993  0.2288  0.2082
48046W        W91140  32.995   9.308  15.812 -0.0188 -0.1369  0.0046
48047W        W91141  33.203   9.739  16.630  0.2453  0.1181  0.0526
48048W        W91142  34.222   9.645  17.965 -0.1373  0.1203 -0.2932
48049W        W91143  33.236   7.415  18.731 -0.1983 -0.1071  0.1179
48050W        W91144  34.449  10.559  18.930 -0.0938 -0.0080  0.1347
48051W        W91145  32.392  10.183  16.931 -0.0288 -0.2205  0.0227
48052W        W91146  32.007   9.282  16.822  0.1973  0.0503  0.0871
48053W        W91147  31.573   8.667  17.183 -0.2897  0.2677  0.2069
48054W        W91148  32.794   6.742  18.453  0.0161 -0.2596  0.0151
48055W        W91149  33.177   9.047  18.446  0.1431  0.0784 -0.1161
48056W        W91150  34.563   7.518  21.492 -0.2109  0.1266 -0.0293
48057W        W91151  32.854   9.633  16.284 -0.0868  0.1741  0.2803
48058W        W91152  32.236   8.356  18.819 -0.1197  0.0492  0.0596
48059W        W91153  33.669   6.331  17.908  0.0613  0.0645 -0.2728
48060W        W91154  33.340   9.041  21.443  0.1032 -0.1326  0.0543
48061W        W91155  32.959   7.761  18.315  0.1230 -0.0723 -0.1966
48062W        W91156  32.907   7.007  17.238  0.0719 -0.2136 -0.0386
48063W        W91157  34.557   9.213  17.643 -0.3013  0.0244 -0.3725
48064W        W91158  32.079   9.165  16.262  0.3829  0.3778  0.1634
48065W        W91159  34.106   7.279  18.931 -0.2624 -0.0322 -0.4453
48066W        W91160  33.313   6.766  16.065  0.0433 -0.0219 -0.2734
48067W        W91161  31.501  10.879  18.455 -0.1262 -0.0511 -0.0677
48068W        W91162  34.626   9.352  18.828 -0.1535  0.2940 -0.0173
48069W        W91163  32.363   6.964  17.120 -0.1379  0.1764 -0.0021
48070W        W91164   0.095   8.586  19.580  0.4222  0.1060 -0.1830
48071W        W91165  32.217   8.317  16.635  0.1811  0.2231  0.1769
48072W        W91166  32.428  10.562  17.299  0.4109 -0.0560 -0.0092
48073W        W91167  32.195   7.786  18.816  0.3893  0.2138 -0.2133
48074W        W91168   0.603  10.753  16.106 -0.0261 -0.1802 -0.0979
48075W        W91169  34.052   8.926  20.214  0.0149 -0.3177 -0.1416
48076W        W91170  33.172   8.787  17.186  0.0814  0.1188  0.0120
48077W        W91171   0.081   8.115  20.323  0.2919 -0.0703 -0.1072
48078W        W91172  31.959   9.492  20.441  0.1011 -0.0239 -0.0755
48079W        W91173  33.361   8.783  17.963  0.0890 -0.4374 -0.0422
48080W        W91174  34.356   8.425  20.306 -0.0784 -0.2893  0.0040
48081W        W91175  34.028  10.527  18.181  0.2898  0.0414  0.0358
48082W        W91176   0.709   6.780  17.893 -0.0015  0.0182  0.1874
48083W        W91177  34.357   8.333  16.223  0.1412 -0.4981  0.0038
48084W        W91178  31.948  11.899  18.125 -0.0173  0.3349 -0.0343
48085W        W91179   0.412   6.755  19.329  0.2325  0.0154 -0.1425
48086W        W91180  32.179   8.844  17.144  0.1850 -0.1827  0.0169
48087W        W91181  34.381   8.051  19.422 -0.1982  0.0470 -0.0945
48088W        W91182  34.199   9.481  20.240  0.1294  0.1375  0.0481
48089W        W91183  33.683  10.219  20.855  0.1182  0.0019  0.1166
48090W        W91184   0.183   8.942  18.667  0.1871  0.0781 -0.3201
48091W        W91185  33.550  10.194  15.848 -0.1613 -0.1198 -0.0854
48092W        W91186  33.886   9.061  16.639 -0.0605 -0.2786  0.1803
48093W        W91187  34.550   6.841  19.263 -0.4007  0.0678  0.0180
48094W        W91188  34.483  10.607  18.370  0.2109 -0.1980 -0.0584
48095W        W91189  33.988  10.797  16.436  0.4370 -0.0503  0.0144
48096W        W91190  32.261  10.124  16.445 -0.1059 -0.3771 -0.2532
48097W        W91191  33.653  10.099  19.171  0.0375 -0.0467 -0.1490
48098W        W91192  32.849   8.747  16.016  0.4194 -0.1126 -0.0271
48099W        W91193  31.490   9.114  17.670  0.0462  0.2993 -0.3303
48100W        W91194  33.009   8.242  17.332 -0.0439 -0.0114  0.0436
48101W        W91195   0.555   7.775  18.443  0.0966  0.2330 -0.2636
48102W        W91196  30.532  10.240  19.676 -0.3676  0.0163  0.0996
48103W        W91197  34.008   7.114  20.168 -0.0106 -0.2223 -0.0057
48104W        W91198  31.909   8.724  16.690 -0.0477  0.3482  0.2096
48105W        W91199  32.809   9.132  16.698 -0.0563 -0.0393  0.2820
48106W        W91200  34.327  10.599  17.861  0.1027 -0.2982  0.1692
48107W        W91201  32.580   8.678  17.427  0.2135 -0.1303 -0.1447
48108W        W91202  32.707   9.012  18.210 -0.1321  0.1290 -0.3824
48109W        W91203  33.448   7.894  19.502  0.0405 -0.1591  0.3611
48110W        W91204   0.200   7.019  18.001  0.0661 -0.0276  0.2866
48111W        W91205  33.283   6.517  18.131 -0.0036  0.1528  0.1115
48112W        W91206  34.615   8.752  17.320  0.2612 -0.2371  0.1506
48113W        W91207   0.041   8.768  18.121 -0.0608 -0.1144  0.0012
48114W        W91208  33.444  10.149  20.434 -0.0391 -0.0170  0.0298
48115W        W91209  33.749  10.414  16.629  0.1045  0.0991  0.1785
48116W        W91210  34.288   8.912  18.912  0.2078 -0.2445 -0.0722
48117W        W91211  33.885   9.626  18.369  0.2760  0.0028 -0.1195
48118W        W91212  34.432   6.849  18.166 -0.2067 -0.1436  0.3229
48119W        W91213  33.269  10.522  18.658 -0.2801  0.0849  0.2083
48120W        W91214  32.120   9.944  17.960 -0.1727 -0.1511 -0.2072
48121W        W91215  34.613   9.126  19.281 -0.0985  0.0445 -0.0736
48122W        W91216  34.429   7.459  17.338 -0.0445  0.1215  0.0887
48123W        W91217  33.582   6.462  19.023  0.2959 -0.1838  0.0915
48124W        W91218  32.861   7.360  17.957  0.2446 -0.1278  0.2932
48125W        W91219  34.285   8.745  19.393 -0.2437  0.0954 -0.1642
48126W        W91220  34.252   7.932  17.594 -0.3134  0.1745 -0.0907
48127W        W91221  34.286   8.779  18.270 -0.1940 -0.0244  0.1452
48128W        W91222  34.219   9.507  17.504  0.0061 -0.2359 -0.0172
48129W        W91223  33.993   9.778  19.419 -0.0567  0.0316  0.2770
48130W        W91224  34.470   9.236  16.558 -0.1091  0.0906 -0.0841
48131W        W91225   0.063   8.170  18.176  0.5582  0.1913 -0.2541
48132W        W91226  32.948   7.148  19.065 -0.0219 -0.2539  0.2139
48133W        W91227   0.984   9.096  19.816  0.0607 -0.1367  0.0347
48134W        W91228  33.665   7.595  19.985 -0.1634 -0.0116  0.4219
48135W        W91229  34.069   6.515  17.262 -0.0677  0.1440  0.1250
48136W        W91230  32.117   9.121  17.739 -0.4253 -0.1710  0.1357
48137W        W91231   0.804  10.619  16.546  0.2981 -0.0202  0.2184
48138W        W91232  32.591   8.756  19.058 -0.2947  0.0598  0.4368
48139W        W91233  33.812  10.600  20.527 -0.0457 -0.2837 -0.2253
48140W        W91234  33.245   6.877  18.736  0.0597 -0.1469  0.1691
48141W        W91235  33.167   8.034  16.309  0.0958 -0.1978 -0.0408
48142W        W91236   0.062  10.347  17.892 -0.4344 -0.2085 -0.0793
48143W        W91237  34.287   6.587  15.887  0.1784  0.0237  0.2602
48144W        W91238  33.000  10.351  17.641 -0.0008  0.1046 -0.0660
48145W        W91239  34.173  10.223  18.627  0.3966 -0.0483 -0.1922
48146W        W91240  33.714  10.038  18.553  0.1705  0.0287  0.0448
48147W        W91241  33.328  11.030  18.791  0.0964  0.2632 -0.2953
48148W        W91242  33.665  10.844  18.343  0.1724  0.0455  0.1745
48149W        W91243  33.796   9.920  17.449  0.0392  0.2470 -0.1074
48150W        W91244  33.961   8.660  18.628  0.1371 -0.2473 -0.4253
48151W        W91245  32.003   6.933  19.282 -0.0599  0.1619 -0.1136
48152W        W91246  33.116   5.522  16.966  0.0211  0.1767 -0.1675
48153W        W91247  32.436  10.280  20.786  0.0164  0.2721 -0.1589
48154W        W91248  32.620   9.140  17.726 -0.2183  0.1665  0.0190
48155W        W91249  32.554  11.039  16.688  0.2065  0.2275  0.2672
48156W        W91250  33.902   8.562  16.499  0.1910 -0.0520  0.0311
48157W        W91251  34.129   9.270  18.625 -0.0720 -0.5660 -0.3322
48158W        W91252  32.094  10.600  16.249 -0.0559  0.2052  0.0351
48159W        W91253  33.584  10.342  18.178 -0.1089 -0.3465 -0.0909
48160W        W91254   0.392   8.711  17.350 -0.3129  0.2023 -0.0468
48161W        W91255  33.673   8.095  16.672 -0.0585  0.1359  0.1146
48162W        W91256   0.189   8.097  19.778 -0.1579 -0.3332  0.0071
48163W        W91257  32.725  10.068  19.661 -0.2112 -0.2744 -0.1681
48164W        W91258  32.247   7.808  16.527  0.0107  0.3358  0.1403
48165W        W91259  34.052   9.170  17.868  0.0819  0.0699  0.1895
48166W        W91260  33.758   9.697  15.841 -0.1640 -0.1883  0.2837
48167W        W91261  33.059  10.696  16.618  0.4364  0.2539 -0.2205
48168W        W91262  34.207  10.214  19.221  0.4276  0.0691  0.0982
48169W        W91263   0.300   9.947  19.993 -0.1159 -0.0398 -0.0677
48170W        W91264  31.313   7.452  17.892  0.1113 -0.0139 -0.3523
48171W        W91265  34.341   7.786  18.961  0.0874 -0.2207  0.0181
48172W        W91266  33.430   7.740  17.918  0.2489 -0.1855 -0.0929
48173W        W91267  32.804   8.260  19.136  0.1458  0.0726 -0.2711
48174W        W91268  33.637   9.891  16.384  0.1489  0.4626 -0.0057
48175W        W91269  33.779   7.654  17.530  0.2347 -0.1772  0.1499
48176W        W91270  34.480   9.276  18.206 -0.1017 -0.0116  0.1215
48177W        W91271  34.044   9.784  18.846  0.0858  0.4042 -0.2096
48178W        W91272  33.579   6.587  17.017 -0.0185  0.0904  0.1172
48179W        W91273  34.663  11.251  15.917 -0.0707  0.0163  0.0577
48180W        W91274  32.975   8.356  18.326  0.1202 -0.0528 -0.0454
48181W        W91275  34.327   8.755  17.730 -0.3049  0.3733 -0.2299
48182W        W91276  34.328   8.070  18.519 -0.0295 -0.0638 -0.4680
48183W        W91277  32.918   9.862  17.864 -0.0136 -0.0136  0.0372
48184W        W91278  33.842  10.889  17.865  0.0231 -0.3376  0.0076
48185W        W91279  34.473   9.636  19.287 -0.0147 -0.3093  0.0004
48186W        W91280  33.672  10.458  22.278 -0.1916 -0.0407 -0.0389
48187W        W91281  32.830  10.129  16.665  0.3076  0.0661 -0.4571
48188W        W91282  34.580   9.696  18.480 -0.2293 -0.1743  0.0806
48189W        W91283  33.593   8.578  17.498 -0.2211 -0.0685  0.1953
48190W        W91284  33.299  10.253  16.833  0.0034  0.1479 -0.0775
48191W        W91285  34.490   7.605  17.969  0.0170  0.0174 -0.0645
48192W        W91286  33.751   8.154  17.794 -0.1522  0.2269  0.1020
48193W        W91287  34.387   6.915  18.722 -0.0749  0.0282  0.2514
48194W        W91288  31.960  10.051  17.388 -0.2445 -0.0301  0.1168
48195W        W91289  32.279   9.707  16.235 -0.2184  0.1263 -0.1814
48196W        W91290  31.808   8.500  18.982 -0.0288  0.0694  0.2092
48197W        W91291   0.292   7.197  20.556 -0.0037  0.1023  0.1136
48198W        W91292  34.241   8.378  18.970  0.1800 -0.0476  0.2862
48199W        W91293  31.891   8.322  17.982  0.0311 -0.0693  0.0728
48200W        W91294  32.800   7.879  17.017  0.3166  0.0097  0.2225
48201W        W91295  33.862   7.176  17.447  0.0733 -0.3700  0.2499
48202W        W91296  33.601   6.569  18.507  0.0301 -0.0045 -0.0458
48203W        W91297  32.112   7.915  17.917 -0.1690 -0.1117 -0.0865
48204W        W91298  31.813   9.144  17.304 -0.0334  0.2700  0.0439
48205W        W91299  33.855   9.938  17.977  0.2035 -0.2373 -0.3669
48206W        W91300   0.976   5.255  20.762 -0.3255 -0.2548 -0.0662
48207W        W91301  32.251   7.834  17.028  0.0821  0.2996 -0.5123
48208W        W91302   0.812   8.805  18.648  0.0955 -0.1227 -0.1367
48209W        W91303  34.343   9.145  19.760  0.2669 -0.4376  0.2765
48210W        W91304   1.343  10.264  19.300  0.0651 -0.0837  0.1899
48211W        W91305  33.923   6.913  18.332 -0.0649  0.2178  0.1316
48212W        W91306  33.010  10.846  20.055 -0.0699 -0.0815  0.0554
48213W        W91307  33.881   8.219  19.401 -0.1026  0.1110 -0.2340
48214W        W91308  34.321   7.559  20.319  0.1169  0.2526 -0.0551
48215W        W91309  33.708   6.216  16.593 -0.0768 -0.1802  0.5612
48216W        W91310  33.555   9.520  19.077  0.0538  0.1106 -0.0457
48217W        W91311  34.112   8.380  17.490 -0.0960  0.1114 -0.0324
48218W        W91312   0.916  10.093  19.451 -0.2860  0.1087 -0.2594
48219W        W91313  33.329   9.348  17.230  0.0179  0.0499  0.1137
48220W        W91314   1.379   9.941  20.267  0.0627 -0.0726 -0.4714
48221W        W91315  33.586   6.978  17.944 -0.0544 -0.1825 -0.1833
48222W        W91316  33.166   9.086  16.192 -0.2879  0.1267  0.0847
48223W        W91317  33.489   8.245  17.113 -0.3506  0.2036 -0.2592
48224W        W91318  34.112   7.249  17.996  0.0276 -0.1868 -0.1650
48225W        W91319  34.238  11.032  19.148  0.1524 -0.4386 -0.3656
48226W        W91320  33.226  11.235  22.900  0.0001  0.0788  0.0582
48227W        W91321  33.037  10.507  21.726  0.0272 -0.0307 -0.2793
48228W        W91322  32.537   6.825  21.929 -0.3437 -0.2468  0.0031
48229W        W91323   0.352   5.917  23.788  0.1117 -0.1286  0.1822
48230W        W91324  33.293   9.108  22.766 -0.1905 -0.2125 -0.0158
48231W        W91325  34.566  10.692  22.950 -0.0825  0.2055 -0.2230
48232W        W91326   0.156   6.781  20.844 -0.1752  0.0033 -0.0902
48233W        W91327  33.007   7.072  21.063 -0.0914 -0.2460 -0.1300
48234W        W91328  33.529   8.735  21.083  0.2956  0.0189 -0.2682
48235W        W91329  32.787   8.254  20.903 -0.1950 -0.2710 -0.1196
48236W        W91330  34.566   8.008  21.237  0.2072 -0.0041 -0.1017
48237W        W91331  33.811   7.691  22.130  0.1565 -0.1761 -0.1304
48238W        W91332  34.523  10.029  19.655 -0.1684  0.1878  0.1274
48239W        W91333  32.617   8.701  19.593  0.0713 -0.0037  0.1592
48240W        W91334  32.837   7.427  20.500 -0.1802 -0.2180 -0.0542
48241W        W91335  33.749   7.175  21.792  0.0301 -0.0494 -0.0105
48242W        W91336  34.656   9.652  21.962 -0.1714 -0.0364 -0.0535
48243W        W91337  34.690  10.276  22.426 -0.2885 -0.4015  0.3604
48244W        W91338  33.660  10.932  22.213 -0.2914  0.1790 -0.0719
48245W        W91339  32.800  11.956  21.779  0.2045  0.1056 -0.4067
48246W        W91340  34.318  10.010  20.086 -0.4059  0.3523 -0.0300
48247W        W91341   1.474  10.625  23.767  0.0003 -0.0198  0.0414
48248W        W91342  32.679  11.453  21.762  0.1391  0.1069  0.2166
48249W        W91343  34.560  11.464  23.935 -0.0164  0.1432 -0.0038
48250W        W91344  34.065  10.422  21.480 -0.0944  0.0682  0.1459
48251W        W91345  34.160   9.511  21.117 -0.0473 -0.1134 -0.0142
48252W        W91346  33.077   9.189  23.241 -0.0309  0.2350  0.1542
48253W        W91347  33.099   9.833  21.750  0.1768  0.2446 -0.2344
48254W        W91348  33.791   9.142  21.074  0.1698  0.0442 -0.0186
48255W        W91349   0.201   7.595  20.311 -0.1533 -0.1465  0.3079
48256W        W91350   0.360   6.836  21.562  0.4235 -0.0198 -0.3467
48257W        W91351  33.705  11.341  22.584 -0.3426 -0.0640  0.4897
48258W        W91352  32.910   9.291  20.133  0.1553 -0.0240  0.4356
48259W        W91353  32.257  10.038  22.512  0.0835  0.1590  0.3127
48260W        W91354  32.849  10.925  21.982  0.1599  0.1649  0.0995
48261W        W91355  33.125   9.249  21.905 -0.1770 -0.2423 -0.0871
48262W        W91356  31.895   8.708  22.476  0.0342  0.1706  0.1232
48263W        W91357  32.346   8.551  20.707  0.1205  0.0644 -0.0998
48264W        W91358  34.396   6.342  19.820  0.2176 -0.3998 -0.3874
48265W        W91359  32.964  10.191  22.142  0.0812 -0.0947 -0.1012
48266W        W91360  33.765   8.145  22.448 -0.5678 -0.0467  0.3900
48267W        W91361  33.371   9.609  20.336 -0.0692  0.1375  0.1502
48268W        W91362  33.693   9.700  21.961  0.0961 -0.2900 -0.2232
48269W        W91363  33.130  10.196  23.279 -0.1173 -0.3065 -0.2353
48270W        W91364  34.589   9.459  21.389  0.0420  0.0078 -0.0360
48271W        W91365   0.142   9.736  25.063  0.1749 -0.0215  0.1216
48272W        W91366  33.935  10.780  19.882  0.0223 -0.3675  0.0338
48273W        W91367  31.491   8.833  22.199 -0.1088 -0.2903  0.1600
48274W        W91368  33.066  10.865  21.374  0.0937  0.0233 -0.0059
48275W        W91369  32.986   6.705  21.857 -0.1287  0.0412 -0.1365
48276W        W91370  32.558  10.508  21.868  0.1051  0.0287 -0.2463
48277W        W91371   0.287   7.315  21.703  0.3213  0.2107  0.0010
48278W        W91372  33.538  10.421  21.315  0.3950  0.0771  0.0265
48279W        W91373  31.774   9.697  22.092 -0.0337 -0.1582 -0.1885
48280W        W91374  31.796   7.394  20.677  0.1031  0.0732  0.0884
48281W        W91375   0.311   7.120  22.533  0.3714  0.1391 -0.1078
48282W        W91376  33.297   7.300  21.377  0.3274  0.4875 -0.2572
48283W        W91377  34.602   7.639  19.873  0.2191 -0.0346 -0.0641
48284W        W91378  34.242   8.367  21.325 -0.3647  0.3033 -0.3070
48285W        W91379  33.092  10.350  21.161  0.2052  0.1349 -0.2121
48286W        W91380  33.736   7.334  21.077  0.0437  0.0971 -0.0042
48287W        W91381  32.928   7.762  20.977  0.1904  0.0321 -0.0402
48288W        W91382   0.204  12.042  21.884  0.1716 -0.4336 -0.1190
48289W        W91383  34.237   9.520  22.675 -0.0730 -0.0653 -0.2312
48290W        W91384  33.942   7.871  20.819  0.1751 -0.2327 -0.2159
48291W        W91385  32.962  10.788  22.671 -0.1714  0.2078  0.0810
48292W        W91386  34.313   7.464  19.417  0.1680 -0.1162 -0.0426
48293W        W91387  33.218  11.668  21.684 -0.4067  0.0643  0.0291
48294W        W91388  32.198  10.208  21.657  0.0456 -0.0518 -0.0757
48295W        W91389  32.944   9.449  20.684 -0.0082 -0.0938 -0.0209
48296W        W91390  33.022   8.456  23.922  0.4343 -0.4063 -0.0734
48297W        W91391  33.724   9.919  20.036 -0.2495 -0.1699  0.0852
48298W        W91392  33.780   9.727  23.756 -0.0797  0.1103  0.0829
48299W        W91393  32.146   9.948  23.798  0.0222 -0.0630 -0.2415
48300W        W91394  33.808   9.948  21.445  0.1447 -0.2392 -0.0967
48301W        W91395  32.172   8.606  22.077 -0.0046 -0.0693  0.0091
48302W        W91396  31.972   9.594  22.544 -0.1209  0.0766 -0.2182
48303W        W91397  34.422   6.262  22.798 -0.1000 -0.1904 -0.1312
48304W        W91398  32.310   7.487  20.421  0.0042  0.1694  0.0215
48305W        W91399  32.711  10.677  20.434  0.2831 -0.2107  0.2007
48306W        W91400   1.083   6.764  22.617  0.2975  0.0029  0.3006
48307W        W91401  33.444   8.479  19.694  0.0338 -0.1305 -0.0904
48308W        W91402   0.933   7.734  22.085 -0.0833  0.0280  0.3266
48309W        W91403  32.601   8.680  21.097  0.0314  0.2802 -0.0464
48310W        W91404  32.363   9.567  22.857 -0.0148  0.3686 -0.0559
48311W        W91405   1.392   8.839  22.614 -0.3798  0.0613  0.1736
48312W        W91406  33.474  10.740  20.921  0.1170  0.0190  0.1463
48313W        W91407  33.886  10.192  19.648  0.1358  0.1204  0.0698
48314W        W91408  32.133   7.228  23.432  0.1022 -0.2209  0.0549
48315W        W91409  33.611   9.105  23.261  0.0099  0.4189 -0.0857
48316W        W91410  33.258  10.218  19.556 -0.4087 -0.2081  0.0032
48317W        W91411  33.600  11.310  21.480  0.2179  0.2797  0.1207
48318W        W91412  32.493  10.855  22.356  0.1043 -0.0890  0.1187
48319W        W91413  32.727   8.869  20.579 -0.3951  0.0266 -0.1672
48320W        W91414  33.752   7.630  21.583  0.1280  0.1580  0.2571
48321W        W91415  32.037   7.093  21.884  0.0773 -0.0325 -0.2483
48322W        W91416  34.129   7.458  22.945  0.0211 -0.0649  0.1342
48323W        W91417  32.672  10.418  22.465 -0.1373  0.0203  0.0062
48324W        W91418  34.219   8.856  22.558 -0.2381 -0.3086 -0.3426
48325W        W91419  34.373   8.101  19.957  0.1751  0.1425  0.4331
48326W        W91420  32.964   9.704  22.194  0.2969  0.2163  0.0086
48327W        W91421  31.740  10.432  21.471 -0.3091  0.1147  0.2331
48328W        W91422  34.313   8.970  21.224 -0.3440 -0.1245 -0.0234
48329W        W91423   0.308  10.756  23.227 -0.0377  0.1129 -0.0250
48330W        W91424  33.349   7.771  23.229 -0.0219  0.0530  0.2271
48331W        W91425  33.466   8.519  21.529  0.0194  0.1348  0.1864
48332W        W91426  34.353   8.082  20.643  0.2053 -0.0164 -0.0769
48333W        W91427  34.135   9.030  21.930 -0.0919  0.0366 -0.2060
48334W        W91428  33.233   8.025  22.741 -0.2996 -0.1650 -0.1545
48335W        W91429  33.814   9.238  22.683 -0.2100 -0.1577  0.1126
48336W        W91430  34.599   8.894  20.172  0.3551 -0.0167 -0.2340
48337W        W91431  31.454   7.937  21.863  0.1786 -0.1610  0.0297
48338W        W91432  33.270   9.841  20.876 -0.2275 -0.0380  0.0880
48339W        W91433  34.543   8.149  21.705 -0.0869  0.1763  0.0461
48340W        W91434  33.470  10.117  21.811  0.0849 -0.4300 -0.0356
48341W        W91435  33.395   9.976  22.244 -0.0829  0.1538  0.3088
48342W        W91436  32.997  10.978  23.641  0.1181 -0.0346  0.0264
48343W        W91437   1.342   7.549  20.835 -0.1890 -0.1561  0.3350
48344W        W91438   0.670   6.975  22.868  0.0968 -0.0841 -0.4690
48345W        W91439  33.646   8.657  21.973 -0.0205  0.0586 -0.2596
48346W        W91440  32.435   8.318  23.187 -0.1579  0.2313 -0.2652
48347W        W91441  33.713   6.940  20.575  0.0332 -0.0540 -0.0038
48348W        W91442   0.614   8.996  23.248  0.2572  0.3082  0.0487
48349W        W91443   1.264  10.270  19.857 -0.0962  0.1884  0.0157
48350W        W91444  33.069   8.618  21.240 -0.0060  0.0896 -0.0003
48351W        W91445  33.825   8.101  21.284  0.0700 -0.1979  0.3200
48352W        W91446  33.581  10.596  21.748  0.2041  0.0769  0.0716
48353W        W91447  34.566   7.140  23.296  0.0061  0.2808 -0.2030
48354W        W91448  34.479   8.086  23.440 -0.1346 -0.1697 -0.0871
48355W        W91449  32.807   8.341  21.588 -0.0531 -0.1969 -0.1272
48356W        W91450  32.819   7.606  21.578 -0.1225  0.0558  0.2467
48357W        W91451  34.007   8.540  20.946 -0.1059 -0.0989  0.2853
48358W        W91452   0.511  10.318  20.285 -0.5463 -0.1986 -0.1672
48359W        W91453  33.537   7.310  22.367  0.1177 -0.1956 -0.1258
48360W        W91454  33.115  10.779  23.130  0.0765 -0.0364  0.2175
48361W        W91455  33.003   8.291  19.907 -0.1849 -0.1278 -0.2370
48362W        W91456  34.027   9.342  20.688 -0.2426 -0.1983 -0.1235
48363W        W91457  34.308   8.343  22.604  0.0228  0.0700 -0.0748
48364W        W91458   0.103   6.415  19.387  0.0748 -0.1785 -0.0710
48365W        W91459  32.110  10.131  21.159  0.1249 -0.1871  0.0011
48366W        W91460  33.255   9.661  22.698  0.0338 -0.0739  0.1490
48367W        W91461  33.511   8.606  22.940  0.2653 -0.0168  0.0115
48368W        W91462  34.352   9.922  21.468  0.0647  0.1979  0.2692
48369W        W91463  33.139   8.845  22.214  0.0445 -0.1285  0.1893
48370W        W91464  33.904   8.811  21.445  0.0321 -0.1563  0.1326
48371W        W91465  34.018  10.552  21.020 -0.1973  0.1984 -0.1949
48372W        W91466  31.594   7.487  23.324 -0.1515 -0.3315  0.2261
48373W        W91467  33.873   6.756  21.465  0.1464  0.0466 -0.4240
48374W        W91468  32.104  10.648  23.273  0.0915 -0.1703  0.0077
48375W        W91469  32.653   8.981  21.986  0.1483 -0.1772 -0.0871
48376W        W91470  34.138  11.378  21.243  0.0992 -0.1541 -0.0193
48377W        W91471   0.011   7.198  19.599  0.0254  0.1193 -0.2292
48378W        W91472   0.054  10.350  19.963  0.0290  0.3232 -0.0733
48379W        W91473  33.850  10.846  21.378  0.1173 -0.2283  0.2231
48380W        W91474  33.651  11.931  22.244  0.0564  0.0024 -0.5381
48381W        W91475  34.026   8.542  22.249 -0.3228 -0.2050 -0.0513
48382W        W91476   0.109   7.694  19.368 -0.1122 -0.1284  0.3383
48383W        W91477  31.902   7.878  22.061 -0.1571 -0.0101  0.1191
48384W        W91478  32.353  10.893  24.875  0.0070  0.0335  0.1602
48385W        W91479  33.534   8.287  20.826  0.2773 -0.1086 -0.0159
48386W        W91480  33.448   9.421  22.310  0.0211 -0.0716 -0.0775
48387W        W91481  33.755   9.694  20.908  0.1310 -0.1291 -0.2366
48388W        W91482  34.158  10.001  21.015 -0.0309 -0.0059 -0.0681
48389W        W91483  34.055   9.924  22.877 -0.1843  0.1381 -0.0271
48390W        W91484  33.867  10.648  22.691 -0.3564 -0.1846  0.1729
48391W        W91485  31.221   6.617  20.766 -0.0273 -0.1027  0.3022
48392W        W91486  32.573   9.047  22.903  0.0957 -0.1393  0.0990
48393W        W91487  34.245   7.308  21.933 -0.2607  0.3645  0.1559
48394W        W91488  32.492   7.326  21.952  0.1351  0.1340 -0.3787
48395W        W91489  33.958   9.240  19.298  0.2317 -0.0340  0.2146
48396W        W91490  33.530   6.143  22.337  0.1317 -0.0440  0.1220
48397W        W91491  32.492   9.405  20.341 -0.2984 -0.3342  0.0597
48398W        W91492  32.849   7.983  21.897 -0.0038 -0.1317 -0.3101
48399W        W91493  34.678   8.603  21.384 -0.1280 -0.2437 -0.1586
48400W        W91494  34.481  10.178  21.875 -0.0570  0.0787  0.1343
48401W        W91495  31.324   7.222  23.009 -0.1130  0.3009 -0.1967
48402W        W91496   1.095   5.755  20.569  0.0392 -0.0122  0.1546
48403W        W91497  34.183   7.792  21.792 -0.0882 -0.0929 -0.0213
48404W        W91498  33.785   9.791  22.507  0.0094 -0.0641  0.0059
48405W        W91499  33.845   8.886  19.682 -0.0904  0.2120 -0.0602
48406W        W91500  34.554   8.575  23.340 -0.1662  0.5511 -0.0447
48407W        W91501  34.211   9.966  23.462  0.4023  0.1769  0.0639
48408W        W91502  33.192   9.856  19.949  0.0190  0.0120 -0.4801
48409W        W91503   0.339   9.299  22.979 -0.0313 -0.2756  0.0949
48410W        W91504  33.456   9.322  20.763 -0.0131 -0.0484 -0.2630
48411W        W91505  34.209  10.859  20.596  0.2423 -0.2428  0.3943
48412W        W91506   0.410   8.829  21.526 -0.0159  0.0264  0.0664
48413W        W91507  34.418   7.102  22.769  0.0662  0.4491  0.2066
48414W        W91508  33.080   8.502  23.156  0.0604  0.0817  0.3269
48415W        W91509  32.481   9.274  20.833  0.1402  0.1151  0.0726
48416W        W91510   0.030  10.503  19.454 -0.1831  0.1721  0.1279
48417W        W91511  32.859   8.640  22.710  0.3649 -0.3102 -0.0186
48418W        W91512   0.806   6.393  22.927 -0.3251 -0.3711 -0.3927
48419W        W91513  32.780   7.137  21.590 -0.1995 -0.0024 -0.1790
48420W        W91514  32.618   9.205  21.265  0.0952 -0.0510 -0.0938
48421W        W91515  34.102   6.946  20.948 -0.0520  0.0774  0.3227
48422W        W91516  34.027   6.745  21.920  0.2319 -0.0636 -0.1830
48423W        W91517  30.810   6.436  22.141 -0.1482  0.0130 -0.1688
48424W        W91518   0.113   8.584  20.594  0.1941  0.0228  0.5130
48425W        W91519  32.991  10.352  20.135  0.2593  0.1949 -0.1070
48426W        W91520   0.482   8.417  22.319  0.1439  0.1437 -0.1435
48427W        W91521   0.308   7.318  23.098 -0.0321  0.1436  0.2530
48428W        W91522  32.755   7.668  18.771  0.1785  0.1818 -0.0818
48429W        W91523  34.187   7.998  23.057  0.0498  0.0087  0.2595
48430W        W91524  34.639   8.944  22.912  0.2619  0.1484 -0.1561
48431W        W91525   0.640  11.186  24.264 -0.1339 -0.0246 -0.0262
48432W        W91526  33.920   8.141  23.538  0.1381 -0.1885 -0.0884
48433W        W91527   0.217  10.292  23.802 -0.0692 -0.0207  0.0241
48434W        W91528  33.223   6.915  22.706  0.1962 -0.1553 -0.1787
48435W        W91529  33.327   9.617  23.471  0.0929 -0.1745 -0.2676
48436W        W91530  34.540   6.954  21.656  0.0633 -0.1064  0.0821
48437W        W91531  33.201   8.320  21.960  0.1072 -0.0622  0.0432
48438W        W91532  33.693   9.140  21.857  0.0550 -0.3473  0.0880
48439W        W91533   0.016   8.643  22.450 -0.0982 -0.1797 -0.0199
48440W        W91534  34.214   8.917  20.716 -0.4187 -0.0564  0.1127
48441W        W91535   0.504  10.006  22.667 -0.1713  0.2192 -0.0615
48442W        W91536  34.173   7.373  23.477  0.1454 -0.2251  0.0247
48443W        W91537  33.962  10.333  20.164  0.1642 -0.1915  0.2187
48444W        W91538  33.392   9.565  21.464  0.2482  0.0770  0.3782
48445W        W91539   0.552   7.229  21.171 -0.0167  0.2799 -0.0988
48446W        W91540  33.611  10.179  22.835  0.2189  0.2994  0.2686
48447W        W91541  33.827  10.806  27.165 -0.0591  0.0418 -0.1049
48448W        W91542  32.854   7.631  23.357  0.4792  0.1949 -0.0780
48449W        W91543  33.018   7.772  25.081 -0.1896  0.1888  0.1226
48450W        W91544   0.271   7.223  26.253 -0.0834  0.0803  0.0083
48451W        W91545  34.152   9.009  26.064 -0.0979  0.0221  0.2753
48452W        W91546   0.542   9.591  25.852 -0.1602  0.0723 -0.0115
48453W        W91547   0.593   7.980  24.203  0.0474 -0.1146  0.3432
48454W        W91548  32.584   7.869  26.915 -0.1085 -0.1409  0.0131
48455W        W91549  32.616   7.833  24.624 -0.2421  0.0891  0.1706
48456W        W91550  33.151   9.008  27.972 -0.0830  0.1657  0.1689
48457W        W91551  34.332   7.809  23.864 -0.4968  0.2331 -0.0853
48458W        W91552   0.512   6.801  26.326  0.0664 -0.0855 -0.0210
48459W        W91553   0.947   9.446  25.424 -0.0348 -0.1819  0.1004
48460W        W91554  31.354   8.139  22.796 -0.2226 -0.3444 -0.1103
48461W        W91555  34.001   8.004  25.512  0.0811  0.0103  0.2518
48462W        W91556  33.953   9.099  25.080 -0.0014 -0.1496  0.1463
48463W        W91557   0.111   9.426  25.727 -0.1649  0.0812 -0.1196
48464W        W91558   0.871  11.482  25.720  0.2828 -0.1599  0.0773
48465W        W91559  32.867   9.737  24.226  0.2040 -0.1012 -0.0308
48466W        W91560  33.210  10.668  24.666  0.1609  0.1536  0.0795
48467W        W91561  33.072   9.721  24.667 -0.2214  0.3201 -0.0811
48468W        W91562  34.584  10.452  25.343 -0.0320  0.0004  0.1914
48469W        W91563  31.623   9.022  24.107  0.1276  0.0866 -0.2594
48470W        W91564   0.330  10.142  27.204 -0.1093 -0.3933  0.1535
48471W        W91565  33.667   9.629  23.059 -0.2518  0.1405 -0.1483
48472W        W91566  34.011  10.309  25.149  0.3103 -0.0373 -0.1621
48473W        W91567  34.087   7.968  26.364 -0.1041  0.0789 -0.0116
48474W        W91568  34.621   8.891  25.897 -0.2839 -0.0810  0.0934
48475W        W91569  33.184   8.838  23.548 -0.1366 -0.0930  0.1065
48476W        W91570  34.603   7.645  22.086  0.1125  0.1818 -0.0607
48477W        W91571  33.448   7.839  24.788  0.4453 -0.0528 -0.0651
48478W        W91572  34.073   9.884  24.772 -0.0234  0.3302  0.2960
48479W        W91573  33.953   8.229  25.050  0.1365 -0.2541 -0.0230
48480W        W91574  34.211   8.785  26.549 -0.1419  0.0538 -0.3759
48481W        W91575  33.892   7.853  24.059  0.1456  0.0376  0.0406
48482W        W91576  32.050   7.879  23.178  0.1801 -0.2215  0.5391
48483W        W91577  32.284   9.384  25.717 -0.1162  0.0403 -0.1573
48484W        W91578  32.842   9.166  27.683 -0.2150 -0.1605 -0.3211
48485W        W91579  34.020   7.399  24.730  0.3452 -0.1649  0.1676
48486W        W91580  33.690   9.707  26.516 -0.2498 -0.1395 -0.0246
48487W        W91581  33.649   7.767  27.744  0.0091 -0.1660 -0.2652
48488W        W91582  34.627  10.660  23.610  0.4004 -0.0582  0.2823
48489W        W91583  33.924  10.228  23.995 -0.4200  0.3059  0.1545
48490W        W91584  33.165   9.911  25.638  0.0574  0.4542  0.1008
48491W        W91585  34.668   7.152  27.419 -0.1747 -0.1941 -0.1140
48492W        W91586   0.548  11.022  26.183 -0.2615 -0.0211 -0.0814
48493W        W91587  34.185  10.387  23.013 -0.2973  0.0607 -0.4490
48494W        W91588  33.524   9.034  26.253  0.0319 -0.0143  0.1206
48495W        W91589  32.680   8.935  23.846  0.0389 -0.1016 -0.0409
48496W        W91590  32.428   7.773  25.930  0.0833 -0.0423 -0.0164
48497W        W91591  33.810   8.957  24.604 -0.0789 -0.2313 -0.0400
48498W        W91592   0.001   6.725  26.184  0.0486 -0.1559 -0.0672
48499W        W91593  33.690   8.714  23.559  0.0961  0.2119  0.2934
48500W        W91594  33.270   9.520  25.338 -0.3033 -0.0641  0.4439
48501W        W91595  34.334   8.323  23.846 -0.0618  0.1366 -0.2231
48502W        W91596  32.854   7.923  27.680  0.0172  0.0716  0.0796
48503W        W91597  31.706   9.449  25.903 -0.1239 -0.1203  0.0957
48504W        W91598   0.028   7.395  24.114 -0.0282 -0.2620  0.0570
48505W        W91599   0.640   7.727  25.091  0.3961 -0.1496  0.3240
48506W        W91600  33.569   8.533  24.734  0.0031  0.3008 -0.2077
48507W        W91601  34.098   7.235  27.657  0.2570 -0.1053 -0.1767
48508W        W91602  33.293   7.400  24.106  0.0702  0.2011  0.0317
48509W        W91603  32.963  10.457  24.308 -0.1051  0.3836  0.0587
48510W        W91604  32.443   9.209  25.210  0.3575 -0.1441  0.1618
48511W        W91605  34.219   8.791  23.667  0.0136  0.1184 -0.0255
48512W        W91606  33.858   9.356  25.487 -0.1033 -0.3019 -0.2476
48513W        W91607   0.351   7.110  23.766  0.1057 -0.1049  0.0641
48514W        W91608  33.386  10.667  23.611 -0.3439  0.0133 -0.1603
48515W        W91609  34.512   8.626  24.477  0.0838 -0.1276  0.2565
48516W        W91610   0.108   8.811  24.870 -0.0047  0.0294  0.0937
48517W        W91611  33.251   8.609  26.353  0.3113  0.0746  0.4209
48518W        W91612  31.766   8.630  24.567  0.1092 -0.0144 -0.1666
48519W        W91613  34.114   8.422  27.094  0.0437 -0.3033  0.0585
48520W        W91614   0.268   8.051  27.552 -0.0356  0.1053  0.1057
48521W        W91615   2.234  10.482  23.262  0.1230  0.3626  0.2487
48522W        W91616   0.571   9.267  25.183  0.2306  0.0212 -0.1648
48523W        W91617  33.309   9.526  26.177 -0.0760  0.0161  0.3855
48524W        W91618   0.771   8.334  26.462 -0.1520 -0.3351 -0.1842
48525W        W91619  34.030   9.466  23.362  0.1012 -0.2935  0.1494
48526W        W91620  34.165  10.501  23.500 -0.0799  0.1767  0.2384
48527W        W91621   1.467   7.686  28.403 -0.0690  0.0661 -0.1263
48528W        W91622  33.187   7.485  22.762 -0.3357  0.0323 -0.1521
48529W        W91623   1.271   8.020  27.291 -0.2618 -0.1823  0.0348
48530W        W91624  33.429   9.001  27.527  0.0484 -0.0732  0.0757
48531W        W91625  33.867   9.803  27.390  0.1557 -0.0583 -0.1870
48532W        W91626   0.480   7.534  26.723  0.0831  0.1909  0.1509
48533W        W91627  32.761   9.597  23.236  0.3737 -0.1410  0.1055
48534W        W91628  34.423  10.407  24.825 -0.4390 -0.1434 -0.1468
48535W        W91629  34.642   8.166  26.202  0.1712 -0.2294 -0.1622
48536W        W91630  34.351   9.260  25.524 -0.3572 -0.0509  0.1469
48537W        W91631  33.719  10.149  23.325  0.0115 -0.1208 -0.1566
48538W        W91632  31.254   9.409  24.641 -0.3653 -0.0549  0.3167
48539W        W91633  32.743  10.490  25.682 -0.0648 -0.4701  0.1560
48540W        W91634   0.830   9.465  23.225  0.1526  0.2749  0.0167
48541W        W91635  33.465   8.242  23.906  0.1125 -0.2142 -0.0458
48542W        W91636  32.825   7.374  26.098 -0.1482 -0.1369  0.0228
48543W        W91637   0.609   7.582  24.581 -0.1568 -0.0521  0.1471
48544W        W91638  32.917  10.183  24.755 -0.1291 -0.2835 -0.0833
48545W        W91639  34.446   8.357  25.363  0.0448  0.2654 -0.0063
48546W        W91640  33.174   7.918  24.319  0.0604 -0.2532 -0.1708
48547W        W91641  34.008   8.506  24.513 -0.0351 -0.1116 -0.1448
48548W        W91642  32.988   9.865  23.753 -0.1812  0.0092 -0.0740
48549W        W91643  32.383   8.568  22.607 -0.0545  0.1613 -0.0451
48550W        W91644  33.967  10.568  24.398 -0.0372  0.0418  0.1122
48551W        W91645  33.355   8.326  26.777 -0.0318  0.2307  0.2638
48552W        W91646   0.230   8.407  25.153  0.1480 -0.5585  0.0145
48553W        W91647  34.181   6.478  24.655  0.0212 -0.1857 -0.3490
48554W        W91648   0.592   7.528  25.797 -0.0582  0.0595  0.1620
48555W        W91649   1.139   8.643  26.824  0.2080  0.2120 -0.1214
48556W        W91650  34.591   9.104  26.487 -0.1419  0.2125 -0.1172
48557W        W91651  33.185   8.488  24.433 -0.1539 -0.2286  0.1877
48558W        W91652  33.602   8.763  26.660  0.0483  0.2466  0.0734
48559W        W91653  32.051   9.265  24.042 -0.0429  0.0754 -0.1032
48560W        W91654  34.387   8.019  25.828  0.1144 -0.2950 -0.2695
48561W        W91655  34.218  10.784  25.103 -0.3461  0.0424  0.0176
48562W        W91656  34.534   9.535  23.672 -0.0770 -0.2299  0.0968
48563W        W91657  33.793   9.437  25.989 -0.1970 -0.1886  0.1249
48564W        W91658  34.079   9.271  23.843  0.0926  0.0210  0.5162
48565W        W91659  33.670   7.132  28.438  0.2353  0.0274 -0.1615
48566W        W91660  33.291   8.967  27.044  0.0277  0.3591  0.0226
48567W        W91661  32.355   9.449  26.915  0.0100  0.1001  0.1506
48568W        W91662  34.087   7.618  25.158  0.4148  0.3814  0.1748
48569W        W91663  34.203   8.809  25.597  0.0776  0.2668 -0.2364
48570W        W91664  34.594   9.531  23.043 -0.1444 -0.2057  0.0665
48571W        W91665  34.012   9.477  24.502  0.1319  0.2681 -0.1936
48572W        W91666   0.524  10.299  23.301  0.2544  0.0828 -0.3849
48573W        W91667  32.607   9.199  24.286 -0.2654 -0.0256 -0.0876
48574W        W91668  33.048   7.850  26.072  0.0793  0.3179 -0.0200
48575W        W91669  33.938   8.888  26.981 -0.0513 -0.1416 -0.3542
48576W        W91670  33.171   7.848  26.666 -0.1273  0.0127  0.2260
48577W        W91671  32.728   9.079  25.670 -0.2361 -0.4238 -0.2162
48578W        W91672  33.357   8.422  22.479 -0.3835 -0.0449  0.2598
48579W        W91673   0.082  10.999  24.046 -0.0861 -0.2801  0.1661
48580W        W91674  32.065   8.023  24.719 -0.0329  0.2275  0.0245
48581W        W91675  34.505  11.005  27.953  0.1098  0.0330  0.0121
48582W        W91676  34.052   7.072  22.387  0.0852 -0.0050  0.0013
48583W        W91677  34.571   9.149  24.006 -0.4692 -0.2668 -0.1317
48584W        W91678   0.704   8.867  26.581  0.0183  0.0772  0.2510
48585W        W91679   0.999   8.407  24.263 -0.2662  0.3351  0.0806
48586W        W91680  33.465   8.275  23.385 -0.1959  0.0541  0.1131
48587W        W91681  34.286  10.764  27.006  0.1961  0.0532 -0.1397
48588W        W91682  32.972  10.259  25.275  0.0686 -0.2695 -0.2045
48589W        W91683  33.628  10.218  24.701 -0.1817  0.1961 -0.1293
48590W        W91684   0.216   9.559  26.350  0.1327  0.1230 -0.2553
48591W        W91685  33.862   8.579  26.194 -0.0321  0.1512  0.0536
48592W        W91686  33.412  10.416  25.091 -0.1439  0.0550 -0.1791
48593W        W91687  32.860   9.329  26.090 -0.1003  0.4103  0.1428
48594W        W91688   0.185   6.759  24.837  0.0720 -0.2326 -0.0902
48595W        W91689  32.587   9.662  27.721  0.1361 -0.1610  0.1015
48596W        W91690  34.122   9.774  25.594 -0.4086 -0.0373 -0.0487
48597W        W91691  33.641  11.979  24.557  0.3174  0.1161  0.1463
48598W        W91692   0.077   8.039  24.014 -0.0852 -0.1219  0.2287
48599W        W91693  33.099  11.298  25.525 -0.1561  0.4040 -0.0505
48600W        W91694  32.773   8.131  22.905 -0.1194  0.2166  0.1229
48601W        W91695  32.580   9.774  24.670 -0.0124 -0.0728 -0.1018
48602W        W91696   0.215   9.256  24.567  0.0167 -0.4141  0.2743
48603W        W91697   0.554   8.236  23.159  0.0867 -0.0708 -0.3158
48604W        W91698  33.071   9.519  27.899  0.0597 -0.2327  0.1814
48605W        W91699  33.456  10.283  25.587  0.0406 -0.3605 -0.1640
48606W        W91700  33.833   7.693  23.246  0.0246 -0.1175 -0.0095
48607W        W91701   0.149   7.898  24.967 -0.1011  0.1926 -0.0810
48608W        W91702   0.888   9.229  23.650 -0.0674  0.0783 -0.3487
48609W        W91703  34.485  10.480  26.118 -0.0519 -0.0797  0.0606
48610W        W91704  33.296  10.985  26.023 -0.2516  0.2050  0.0052
48611W        W91705  34.492   9.571  24.697  0.2101  0.1596  0.1673
48612W        W91706  34.249   7.045  24.281  0.1101  0.1068  0.1301
48613W        W91707  33.027   9.353  26.868  0.1617 -0.3185 -0.1492
48614W        W91708  33.927   8.425  25.701  0.1517 -0.1166  0.0307
48615W        W91709  33.562   8.803  25.789  0.0477 -0.1175 -0.3115
48616W        W91710  33.658   7.689  22.674  0.2272 -0.0237  0.0923
48617W        W91711  34.534   7.501  24.892 -0.2323 -0.2807 -0.0551
48618W        W91712   0.674   8.130  24.659  0.2576  0.3675  0.1154
48619W        W91713  33.524   9.377  27.843  0.1524  0.1742 -0.2901
48620W        W91714   0.249   7.483  25.384  0.2647 -0.2371  0.2939
48621W        W91715  33.766  11.993  24.057  0.1873  0.1080  0.5820
48622W        W91716  33.411   8.280  25.221 -0.1399  0.1924  0.1293
48623W        W91717  34.314   9.715  24.046 -0.2258 -0.0209  0.1654
48624W        W91718   0.000   8.683  23.823 -0.1033  0.0047  0.2308
48625W        W91719  32.543  10.078  24.126 -0.2099  0.0070 -0.0069
48626W        W91720   0.079   9.858  24.134  0.0240  0.2579  0.0122
48627W        W91721  34.657   8.799  25.384  0.1528  0.0777 -0.0569
48628W        W91722   0.682  10.061  25.942  0.1122 -0.2869 -0.2484
48629W        W91723  31.971   8.396  22.963  0.1308  0.2578  0.0516
48630W        W91724   0.675   8.423  26.938  0.0204  0.1410 -0.1469
48631W        W91725   0.549  11.127  25.588 -0.2574 -0.0710  0.1570
48632W        W91726  34.406  10.186  25.702 -0.3359 -0.0647  0.0413
48633W        W91727   1.193   8.034  24.827  0.2279  0.0605  0.1067
48634W        W91728   0.528   8.177  26.065  0.0876 -0.2409 -0.0261
48635W        W91729  34.063   9.833  26.122 -0.1677 -0.3636  0.2018
48636W        W91730  33.846   7.350  24.036 -0.0680 -0.1299  0.1428
48637W        W91731   0.324   8.608  22.908  0.3287 -0.0748 -0.2071
48638W        W91732  33.441   9.043  25.211  0.4611  0.0359 -0.2911
48639W        W91733  34.409   5.443  28.566  0.0541 -0.0479  0.4748
48640W        W91734  34.064   9.945  26.797 -0.1409  0.1542  0.4309
48641W        W91735   0.242   8.257  24.453  0.3468 -0.1200 -0.2735
48642W        W91736  32.621   6.962  25.914  0.1735  0.2289  0.1807
48643W        W91737  34.221   7.548  25.766  0.1644 -0.0851  0.1082
48644W        W91738  32.816   9.335  24.807 -0.0866  0.3878 -0.2733
48645W        W91739   0.893   8.672  23.546  0.0968 -0.0244  0.1729
48646W        W91740  33.481   9.201  23.750 -0.0975  0.1024 -0.0296
48647W        W91741   0.338   7.884  27.072  0.1623  0.2247 -0.0172
48648W        W91742   0.786   9.339  27.997 -0.0494 -0.1677  0.1249
48649W        W91743  33.670   7.613  24.392  0.1193  0.4593 -0.0069
48650W        W91744  33.601   7.810  25.261  0.0111 -0.1500 -0.3437
48651W        W91745  34.329   8.529  26.118  0.2027  0.0361  0.1433
48652W        W91746   0.239   8.563  26.160  0.3342  0.1918 -0.1334
48653W        W91747  32.882   7.579  27.266  0.0115  0.0312  0.1469
48654W        W91748   0.150   7.697  28.112 -0.0801  0.0509  0.0387
48655W        W91749  33.960   7.530  26.270  0.1693  0.1371 -0.0563
48656W        W91750  33.023   9.940  26.268 -0.0350  0.4388 -0.3240
48657W        W91751  34.378   6.836  25.701  0.0321 -0.0480  0.3807
48658W        W91752  32.981   7.757  23.861  0.1896 -0.2003 -0.0244
48659W        W91753   0.597   9.503  23.965 -0.0669 -0.2085  0.1283
48660W        W91754  34.506   8.087  27.178 -0.1507 -0.0094 -0.0601
48661W        W91755  33.662   8.107  22.949  0.1301 -0.2892  0.2382
48662W        W91756  34.236  11.216  26.524  0.1086  0.0805 -0.1238
48663W        W91757  33.620   8.156  24.403  0.0116  0.0688 -0.0943
48664W        W91758  32.500   8.410  23.833 -0.3362 -0.0034 -0.0372
48665W        W91759  34.200   8.895  24.173 -0.0139  0.1183 -0.1544
48666W        W91760  33.232   9.098  24.738 -0.0866 -0.0422 -0.2475
48667W        W91761  34.570  11.746  26.496  0.2206 -0.0143 -0.1322
48668W        W91762  33.822   9.842  31.245 -0.1324  0.2170  0.2521
48669W        W91763  32.418   8.020  28.569 -0.1161 -0.0961 -0.3069
48670W        W91764  32.921   6.814  29.205  0.5404 -0.1043 -0.0215
48671W        W91765  33.069   7.849  31.725  0.1151  0.3985  0.0924
48672W        W91766  34.262   8.465  28.439  0.4424 -0.0384 -0.2809
48673W        W91767  34.042  10.653  30.874  0.0087 -0.0890 -0.0777
48674W        W91768  34.038   9.501  26.989 -0.0574 -0.2508  0.0847
48675W        W91769  34.084   6.097  30.140  0.0624 -0.4368 -0.0730
48676W        W91770  33.322   8.040  28.231 -0.0532  0.4068 -0.0596
48677W        W91771  33.564   8.998  30.130 -0.0734 -0.2655  0.0797
48678W        W91772  33.838   6.739  27.807  0.1777 -0.1531 -0.0769
48679W        W91773  34.608   7.624  29.443  0.2857  0.0009  0.0539
48680W        W91774  34.296   8.835  28.743  0.0665  0.3221 -0.0569
48681W        W91775  32.581  10.059  27.446  0.0465 -0.2647 -0.0250
48682W        W91776  34.285   8.762  31.300  0.0802  0.2126 -0.3184
48683W        W91777  34.364   8.645  30.106  0.3025  0.1232 -0.0229
48684W        W91778  33.786  10.780  30.044 -0.1281  0.1773 -0.0204
48685W        W91779   0.418  10.520  28.628 -0.4295 -0.1679 -0.1889
48686W        W91780  33.480  10.015  29.270 -0.1040 -0.1976  0.4658
48687W        W91781  33.817  11.956  27.873 -0.0470 -0.0624 -0.0954
48688W        W91782  34.371   8.984  27.977  0.1564 -0.0570 -0.0245
48689W        W91783  33.308  12.059  29.768  0.0227 -0.1574 -0.2657
48690W        W91784  33.957  10.327  27.070 -0.0331  0.2260  0.0633
48691W        W91785  32.867   9.828  30.951 -0.0914 -0.0435  0.1173
48692W        W91786   0.146  10.467  26.860 -0.0916  0.2655 -0.2116
48693W        W91787  33.800  10.322  27.591  0.3477 -0.2069  0.1341
48694W        W91788  33.997   8.768  30.920 -0.1444 -0.1562  0.0619
48695W        W91789  34.148   8.203  30.982  0.0092 -0.2423  0.0706
48696W        W91790  34.592  10.564  27.735  0.0610 -0.0835  0.2059
48697W        W91791  34.236   7.507  26.661  0.0462 -0.0725  0.2437
48698W        W91792   0.818   6.459  28.743 -0.0789  0.0262  0.0314
48699W        W91793  34.052  10.393  29.501  0.1605  0.2378  0.3507
48700W        W91794  34.301   7.306  31.973 -0.1248 -0.2412  0.3691
48701W        W91795  34.370  11.201  31.777 -0.0728  0.3153  0.1092
48702W        W91796  34.511  10.572  29.520  0.1221 -0.0994  0.3380
48703W        W91797  33.946   8.347  28.932 -0.2185  0.1051  0.0439
48704W        W91798  32.961   8.925  31.319  0.5073  0.1459 -0.0023
48705W        W91799  32.435   8.286  30.710  0.1025 -0.4240 -0.3145
48706W        W91800   0.330   8.084  28.318 -0.4643  0.1090 -0.1476
48707W        W91801  32.323  10.922   0.461  0.0228 -0.0371 -0.2563
48708W        W91802  33.833  11.025  30.506 -0.1316 -0.2087 -0.2204
48709W        W91803  33.862   9.273  28.646 -0.2920  0.0021  0.0449
48710W        W91804  33.940   9.386  28.117 -0.6020 -0.2748  0.0041
48711W        W91805  34.585  10.148  29.130  0.1855  0.0441  0.1722
48712W        W91806   0.064   7.511  30.765 -0.0945  0.2739  0.1091
48713W        W91807   1.474   9.990  30.592 -0.0807  0.0131  0.1442
48714W        W91808  34.163  10.946  28.301 -0.3754  0.1596  0.2292
48715W        W91809  32.957   9.901  29.299 -0.2232  0.0807  0.1032
48716W        W91810  34.105   9.861  27.922 -0.0297  0.1695  0.2579
48717W        W91811  33.646   8.469  30.316  0.0625 -0.1715 -0.0580
48718W        W91812  32.988  10.266  31.277  0.1444 -0.1520 -0.1640
48719W        W91813  33.394   8.010  30.868 -0.0789 -0.0627 -0.0885
48720W        W91814  32.378  11.137  29.026 -0.1412 -0.2301 -0.0239
48721W        W91815  33.359   9.605  29.587  0.1564  0.2250 -0.2386
48722W        W91816  33.970  11.401  29.535 -0.0897 -0.0809 -0.0089
48723W        W91817  33.872  10.100  31.705 -0.2584  0.1063 -0.1857
48724W        W91818  33.814   7.861  29.683 -0.0224  0.1061  0.0177
48725W        W91819  32.574   8.234  29.000 -0.0427 -0.2582  0.1097
48726W        W91820   0.079   8.490  28.626 -0.1499  0.0538 -0.0345
48727W        W91821  33.673  10.238  28.835  0.1758 -0.1468 -0.0176
48728W        W91822  33.709   9.376  31.011 -0.0242  0.0117 -0.0681
48729W        W91823  32.478   7.164  29.143 -0.0288  0.3379 -0.0538
48730W        W91824  32.833  11.246  29.409 -0.0206 -0.1596  0.1107
48731W        W91825  33.695   9.513  30.052 -0.1278  0.0821  0.0079
48732W        W91826  33.071   7.119  27.444  0.0956 -0.2391  0.1792
48733W        W91827  32.126   9.577  31.832  0.4523  0.1952 -0.1124
48734W        W91828  33.053   7.322  28.935 -0.4896  0.0040  0.0372
48735W        W91829  33.040  10.737  28.411  0.0606 -0.1382  0.1714
48736W        W91830  32.990   8.194  29.836  0.1253 -0.1456 -0.0893
48737W        W91831  33.140   9.062  28.747 -0.0678  0.0257 -0.0949
48738W        W91832  32.478   8.893  30.825 -0.1011  0.1584  0.3205
48739W        W91833  33.831   7.340  26.905  0.2525 -0.0195  0.2140
48740W        W91834  32.449  10.117  31.807  0.2563 -0.0251 -0.1186
48741W        W91835  33.878   9.051  31.361 -0.2037  0.0697 -0.3346
48742W        W91836   0.161  10.056  27.676 -0.0464  0.2956 -0.0063
48743W        W91837  32.809  10.453  30.482  0.3228  0.2802 -0.2045
48744W        W91838  33.247   8.581  30.892 -0.0786 -0.1807  0.0461
48745W        W91839   0.073   7.651  30.305 -0.2317  0.2056  0.1174
48746W        W91840  34.506   8.721  26.986 -0.1192  0.1526 -0.4867
48747W        W91841  34.171  10.688  27.509 -0.0933 -0.0912  0.2552
48748W        W91842   0.802   5.676  30.156 -0.3585 -0.1367  0.0800
48749W        W91843  32.415   8.179  27.807 -0.1753 -0.1152  0.0398
48750W        W91844  34.592   7.831  31.144  0.2354  0.0164 -0.0769
48751W        W91845  33.905   8.675  29.745  0.0095 -0.0503 -0.1871
48752W        W91846  32.593  10.270  31.000  0.1032  0.1217  0.3575
48753W        W91847   0.343   7.981  30.856  0.1545 -0.0390 -0.0364
48754W        W91848  34.422   9.794  28.848 -0.4407 -0.3301 -0.0869
48755W        W91849  34.171   8.099  27.549 -0.2404  0.1946 -0.1459
48756W        W91850   0.066   8.037  29.735  0.0783 -0.2378 -0.0776
48757W        W91851   0.281   9.946  28.167 -0.1257 -0.3729  0.2032
48758W        W91852  33.393   8.508  27.237 -0.3469 -0.0848  0.2808
48759W        W91853  34.341  10.148  27.586  0.1549  0.0078 -0.2512
48760W        W91854  33.143  10.480  28.904 -0.0680 -0.1334 -0.0846
48761W        W91855  33.911   7.542  28.416 -0.1636 -0.1517  0.0364
48762W        W91856  33.830   8.970  27.842  0.0215  0.1120  0.0105
48763W        W91857  33.138   7.154  29.483 -0.0838  0.1385 -0.1416
48764W        W91858  34.112   8.043  28.177 -0.2215 -0.3415  0.1173
48765W        W91859  34.237  12.183  29.723  0.2206 -0.1774  0.2040
48766W        W91860   1.065   9.993  31.005  0.1320  0.1614 -0.4520
48767W        W91861  33.380   8.346  28.721  0.3833  0.2663  0.2129
48768W        W91862  33.066   7.624  29.370 -0.0195 -0.2313 -0.0486
48769W        W91863  33.521   9.687  28.350  0.0022  0.0321  0.0074
48770W        W91864  34.065   9.082  29.090  0.1413 -0.0575  0.2149
48771W        W91865  33.331   9.085  31.042  0.3574  0.1254  0.0736
48772W        W91866  34.217   9.416  31.046 -0.0346  0.3288  0.0912
48773W        W91867  33.808   7.405  28.831 -0.3401 -0.0276 -0.1946
48774W        W91868  33.831   7.609  30.055  0.1064 -0.1948 -0.1205
48775W        W91869  33.657  10.028  29.742  0.0359  0.2200  0.1377
48776W        W91870  33.507   7.638   0.152 -0.2139  0.0203 -0.0947
48777W        W91871   0.607  10.631  31.513  0.2472  0.1197 -0.2444
48778W        W91872  33.691   8.823  28.682 -0.1383  0.2621  0.2151
48779W        W91873  31.593   9.268  29.184  0.1459 -0.1940  0.1544
48780W        W91874  33.570   9.206  29.129  0.1665 -0.2127 -0.2083
48781W        W91875  34.121   7.840  31.326 -0.2215 -0.0132 -0.3067
48782W        W91876  34.119   8.397  30.508  0.3896  0.3657 -0.0820
48783W        W91877  34.358   9.312  28.511  0.2010 -0.3925 -0.0507
48784W        W91878  33.301  11.205  31.056 -0.2066 -0.0655 -0.0099
48785W        W91879  33.637   8.580  28.173  0.0679  0.0019  0.1520
48786W        W91880   0.736   8.783  29.615 -0.1063  0.2427  0.0230
48787W        W91881  34.529   8.121  30.184 -0.0355  0.1664  0.1448
48788W        W91882  32.457  10.236   0.358 -0.0646 -0.0875 -0.0136
48789W        W91883   0.081   5.952  28.499  0.0628 -0.0488 -0.1548
48790W        W91884  32.965  10.403  31.974 -0.1620 -0.0429 -0.0537
48791W        W91885   1.039  10.120  27.492 -0.4338 -0.2914  0.2965
48792W        W91886  34.593   9.077  30.338  0.1254  0.2581  0.0898
48793W        W91887   0.453   8.686  28.355 -0.2176  0.0946  0.2472
48794W        W91888  34.612   8.755  29.660  0.1298 -0.1428  0.0356
48795W        W91889  33.996   8.256  30.002 -0.0496 -0.0034 -0.2912
48796W        W91890   0.989   6.841   0.238 -0.1032 -0.0694 -0.0159
48797W        W91891  33.086   9.300  31.784 -0.0958 -0.2121 -0.0213
48798W        W91892  34.237   8.680  29.318  0.0639  0.0180 -0.0679
48799W        W91893  32.453   6.801  26.853  0.0252  0.0278 -0.1984
48800W        W91894   1.149   9.848  28.200  0.0989  0.1368 -0.0834
48801W        W91895  33.866   9.555  29.544  0.1832  0.2123  0.0290
48802W        W91896  34.075  12.186  31.678  0.1889 -0.1454 -0.1200
48803W        W91897  33.078   6.759  28.183 -0.0111  0.2358  0.2286
48804W        W91898  34.599   8.127  27.961 -0.2315  0.1574  0.0827
48805W        W91899   0.324  11.395  30.741 -0.0483  0.0141  0.1853
48806W        W91900  33.375   7.679  28.903  0.2027  0.1335 -0.1368
48807W        W91901  33.253  10.809  27.947 -0.0113 -0.0569  0.0654
48808W        W91902  33.487  11.586  28.790 -0.0254 -0.1980 -0.1966
48809W        W91903  33.785  11.201  31.760 -0.1110  0.0127  0.0605
48810W        W91904  33.593  10.693  28.715  0.1865 -0.1477 -0.2002
48811W        W91905  33.732  10.433  31.239 -0.1769 -0.2391 -0.2014
48812W        W91906  34.394  10.815  30.467  0.1746  0.0361  0.0766
48813W        W91907  34.692  10.116  28.560 -0.2633  0.1683  0.0806
48814W        W91908  33.011   8.339   0.067  0.3005  0.2533 -0.4004
48815W        W91909  34.192   7.154  28.634  0.1443  0.0461  0.1457
48816W        W91910  32.804  11.316   0.099 -0.3390  0.0311 -0.0220
48817W        W91911  32.170   9.099  30.196  0.0975 -0.1187  0.3382
48818W        W91912  32.788  11.157  28.656 -0.1754 -0.0958  0.2581
48819W        W91913  34.682   7.652  27.535 -0.0800 -0.1275  0.0871
48820W        W91914   0.297  11.137  29.875  0.2745  0.2615  0.1922
48821W        W91915  33.626  10.155  26.690 -0.3153 -0.2388 -0.0357
48822W        W91916  32.835  10.283  28.516  0.0675  0.0008 -0.0032
48823W        W91917  34.592   9.237  28.982  0.0015 -0.0329 -0.0409
48824W        W91918  33.724   7.803  26.657 -0.2637  0.3804  0.1045
48825W        W91919  33.461   9.781  31.786  0.0666 -0.0262  0.1535
48826W        W91920  34.271  11.089  30.937 -0.0088 -0.3130  0.2058
48827W        W91921  33.075   5.959  29.344 -0.2859 -0.1731  0.0168
48828W        W91922  34.220  10.487  30.033  0.1695  0.2554  0.1415
48829W        W91923   0.342   9.338  26.850 -0.0789 -0.1264  0.2282
48830W        W91924  33.796  11.349  28.471  0.1048 -0.2183  0.2484
48831W        W91925  33.788  11.227  29.013  0.0455  0.0229  0.0866
48832W        W91926  34.181  11.951  30.522 -0.0467 -0.1300  0.2332
48833W        W91927  33.880   6.260  29.593  0.0339 -0.2196 -0.0143
48834W        W91928  32.277   9.380  30.654 -0.1008  0.1476  0.0118
48835W        W91929  34.014   8.913  28.306 -0.1103 -0.1448 -0.0467
48836W        W91930  34.575   8.055  30.687 -0.1242  0.1721  0.0232
48837W        W91931  33.525  10.052  26.114  0.1334 -0.2596  0.0417
48838W        W91932  34.180   7.808  30.353  0.0429  0.2562 -0.0559
48839W        W91933  34.198   9.956  29.791  0.1104 -0.0311 -0.0720
48840W        W91934  34.173   9.067  30.084  0.4000 -0.0741  0.0398
48841W        W91935  33.919   6.352  29.048 -0.5559  0.1210  0.1441
48842W        W91936  34.614   9.436  27.797  0.0651 -0.4322  0.0691
48843W        W91937  33.770   8.333  29.427 -0.2071  0.0496 -0.1963
48844W        W91938  33.343   8.472  29.191  0.1189 -0.1939 -0.0084
48845W        W91939   0.033   8.739  29.122 -0.2704  0.0394  0.4391
48846W        W91940  32.722  10.788  29.647  0.2771 -0.0205 -0.0056
48847W        W91941  34.682  10.921  27.164 -0.1585  0.0549 -0.2411
48848W        W91942  34.309   9.815  31.382  0.1207  0.0246  0.3547
48849W        W91943  33.767  12.298  30.954 -0.4232 -0.1777  0.0548
48850W        W91944  33.473  10.386  27.970  0.2373 -0.0161  0.2458
48851W        W91945  34.114  11.204  29.951  0.2887 -0.4175 -0.1036
48852W        W91946   1.521  11.399  27.376  0.1106 -0.0654 -0.1246
48853W        W91947   0.013   8.853  28.268  0.0645  0.0102 -0.0230
48854W        W91948   1.258   8.612  29.550 -0.0030  0.1305 -0.0808
48855W        W91949  34.415   8.375  28.969 -0.5709 -0.1328 -0.0446
48856W        W91950  34.158   9.978  30.865 -0.2112 -0.0729 -0.0152
48857W        W91951  33.196   8.736  28.399 -0.0568 -0.1225 -0.0372
48858W        W91952  33.938  10.630  26.694 -0.2278 -0.0683  0.0319
48859W        W91953  33.443  10.446  29.831 -0.0979  0.0002  0.0160
48860W        W91954   1.641   7.171  31.615  0.0727  0.0054 -0.0757
48861W        W91955  33.226  10.202  30.750 -0.0036  0.0267  0.0023
48862W        W91956  33.128   9.040  30.281 -0.3871  0.1868 -0.1588
48863W        W91957  32.960   7.740  28.577 -0.2308  0.3611 -0.0591
48864W        W91958  34.139   7.268  30.206 -0.1717  0.2399 -0.4220
48865W        W91959   0.041   8.140  29.247 -0.0302  0.0333  0.0698
48866W        W91960  34.250   7.825  28.859 -0.0437  0.1663  0.1952
48867W        W91961  34.015   9.313  26.525 -0.0278 -0.0596 -0.0430
48868W        W91962   0.369   9.705  31.339  0.1629  0.1374  0.0267
48869W        W91963  33.861   7.839  30.881  0.0912  0.0107  0.2272
48870W        W91964  31.492   6.288  28.459  0.0276  0.1239  0.1328
48871W        W91965   0.317   8.146  30.367 -0.1926 -0.3071 -0.1258
48872W        W91966   0.063  11.742  30.423  0.1279  0.1360 -0.0521
48873W        W91967  33.481  10.785  30.828  0.1210 -0.0311  0.2204
48874W        W91968  33.729   7.999  30.426  0.2477  0.2529  0.0138
48875W        W91969   0.161   9.965  31.773 -0.0157  0.0144  0.3394
48876W        W91970  33.827   5.843  31.340 -0.0565 -0.0789  0.2974
48877W        W91971  34.181  10.031   0.372 -0.2699  0.1171  0.1605
48878W        W91972  34.174   8.048  29.328  0.2899  0.0498  0.0489
48879W        W91973  33.076  10.053  29.783  0.0104  0.0428  0.0678
48880W        W91974  33.760   7.864  29.142  0.1830 -0.3147  0.0739
48881W        W91975  33.684  10.112  30.833  0.0561  0.3300 -0.2256
48882W        W91976  34.238   8.545  27.923  0.0701 -0.0736 -0.1759
48883W        W91977  33.460  10.416  30.337 -0.0826  0.0248 -0.2097
48884W        W91978  34.108   6.946  30.729  0.0253 -0.0058  0.2549
48885W        W91979  33.995   9.950  30.235  0.1016 -0.2143 -0.1086
48886W        W91980   1.304   9.333  29.011  0.0450  0.0163 -0.2555
48887W        W91981  34.509   7.180  30.489 -0.0086  0.0557  0.0819
48888W        W91982  33.635  10.612  29.256  0.0142  0.0493 -0.0078
48889W        W91983  32.894   9.556  31.414  0.0316 -0.0574 -0.1687
48890W        W91984  33.471  10.848  31.459 -0.4351  0.0862  0.0401
48891W        W91985  33.292  10.742  31.897 -0.1792  0.3911  0.1011
48892W        W91986  32.743  10.988  30.671 -0.2635 -0.1488  0.1654
48893W        W91987  32.702   8.506   1.054  0.0524 -0.3772  0.3758
48894W        W91988  33.432   9.382  31.412  0.3470  0.2198  0.0331
48895W        W91989  33.103   8.811   0.133  0.0567  0.3959  0.0849
48896W        W91990  32.363  11.273  30.933  0.3813  0.1707 -0.0855
48897W        W91991  33.304   9.440   0.807 -0.1268  0.1284  0.5590
48898W        W91992  33.408   7.308  31.729 -0.2094 -0.1539  0.0055
48899W        W91993  34.149   8.734   0.370  0.0132 -0.2523  0.2371
48900W        W91994  34.269   8.273   0.815 -0.0369 -0.1073 -0.1779
48901W        W91995  32.058  10.879   0.879 -0.0007  0.2133  0.1607
48902W        W91996  33.889   9.683   0.146  0.1267  0.0022 -0.1536
48903W        W91997  33.175  11.654   0.921  0.2769  0.1071 -0.2370
48904W        W91998  32.342   8.145   1.074  0.0612 -0.1763 -0.2188
48905W        W91999  32.942  10.802  31.440 -0.1034 -0.1020 -0.2825
48906W        W92000  33.942  10.417  30.467  0.0147 -0.3145 -0.1051
48907W        W92001  34.561   9.079   1.501 -0.0153  0.1137 -0.0143
48908W        W92002  32.769   8.511  31.032  0.2534  0.0012 -0.2597
48909W        W92003  32.482  12.348  31.639 -0.0224  0.2782  0.1989
48910W        W92004  32.606   9.529  31.883  0.1221 -0.0028 -0.2162
48911W        W92005   0.032   9.548   1.339 -0.0842  0.1236 -0.1074
48912W        W92006  32.543   7.564  31.533  0.3999 -0.1035 -0.1442
48913W        W92007  34.197  10.577   0.303  0.1869 -0.2604  0.1047
48914W        W92008  34.193   9.493   1.200 -0.0888  0.0273 -0.1018
48915W        W92009   0.946  10.044   0.390  0.3670  0.0765 -0.0962
48916W        W92010   0.512   6.677   0.264  0.1191 -0.1105 -0.2177
48917W        W92011  32.281  10.576   0.126 -0.0351  0.1492 -0.0294
48918W        W92012   0.129   7.729   0.367  0.2638 -0.0806  0.0316
48919W        W92013   1.012  10.459  31.864 -0.1189  0.0068  0.2699
48920W        W92014  34.656   8.605  30.556  0.1172  0.1730  0.0132
48921W        W92015  33.812   9.008   0.652 -0.1534 -0.2834  0.3889
48922W        W92016   0.528  12.538  31.601  0.5476  0.1030  0.4042
48923W        W92017  32.141   8.638   1.181 -0.0046  0.2365 -0.0188
48924W        W92018  32.819   9.127   0.388 -0.1333 -0.2689  0.3959
48925W        W92019   0.539   9.108   0.565  0.5660 -0.0130 -0.1389
48926W        W92020  34.013   9.438  31.641 -0.3614 -0.3013 -0.1181
48927W        W92021  33.516   8.196   0.221 -0.4730 -0.1468 -0.0954
48928W        W92022  34.603  12.831  18.536 -0.0260  0.2059 -0.0851
48929W        W92023  33.527  12.413  17.192 -0.0275  0.0887  0.0364
48930W        W92024  32.058  10.876  17.555  0.0816  0.0333 -0.2674
48931W        W92025  33.368  10.668  19.135 -0.0476  0.1239  0.3562
48932W        W92026  34.033  11.198  20.256  0.0071  0.1087 -0.0505
48933W        W92027  32.053  14.235  18.751  0.0194  0.0473  0.1827
48934W        W92028  32.211  11.946  17.665  0.1962 -0.0247  0.1834
48935W        W92029  32.749  10.678  20.944 -0.0951  0.2238 -0.0923
48936W        W92030  32.656  12.528  18.301 -0.2000  0.1201 -0.1274
48937W        W92031  34.194  11.693  20.857 -0.2332 -0.0258  0.1091
48938W        W92032  33.666  12.972  16.585  0.0815 -0.0543  0.0847
48939W        W92033  34.684  11.874  17.839  0.0105  0.1001  0.0915
48940W        W92034  33.901  12.188  16.599  0.2313  0.1637  0.1122
48941W        W92035  33.217  12.613  16.315 -0.1009  0.1094  0.1833
48942W        W92036  31.241  11.824  17.998  0.0286  0.0953  0.1524
48943W        W92037  34.074  12.764  18.443 -0.0320 -0.1104  0.3571
48944W        W92038  34.404  15.409  19.175  0.2673  0.2640 -0.1100
48945W        W92039   0.042  14.440  18.516  0.4076  0.0708 -0.0963
48946W        W92040  34.062  12.960  18.927  0.0397 -0.2824 -0.0286
48947W        W92041  31.857  13.948  16.245  0.0134 -0.0861  0.0545
48948W        W92042  33.760  13.251  17.426  0.0480 -0.0880 -0.0878
48949W        W92043  33.210  13.405  20.501 -0.0849 -0.0106  0.5377
48950W        W92044  32.569  13.785  16.366  0.0589 -0.1362  0.0684
48951W        W92045   0.454  13.820  19.171  0.0128 -0.3610  0.1082
48952W        W92046  33.385  13.655  17.170 -0.2062  0.1805 -0.1227
48953W        W92047   0.228  13.160  17.249 -0.2810 -0.0094  0.1049
48954W        W92048  34.138  12.957  21.100 -0.0163 -0.3641 -0.0478
48955W        W92049  33.613  13.857  17.546  0.1853 -0.1194  0.0783
48956W        W92050  33.618  14.569  16.745 -0.2025 -0.1485  0.0055
48957W        W92051  33.676  12.309  15.678 -0.0515  0.0141  0.1923
48958W        W92052   0.465  11.901  19.817  0.1440 -0.0175  0.1188
48959W        W92053  33.454  14.773  17.891 -0.1463  0.2157 -0.0422
48960W        W92054  33.140  11.671  19.936 -0.2552 -0.1171 -0.1241
48961W        W92055  32.300  13.873  20.652  0.0457 -0.0096  0.0973
48962W        W92056  34.572  12.290  18.590  0.1315  0.1969  0.0035
48963W        W92057  33.921  12.794  17.433  0.0457  0.3175  0.1671
48964W        W92058  31.847  13.703  17.541 -0.0870  0.1575  0.0962
48965W        W92059  34.343  13.545  20.093 -0.1507 -0.0272  0.3005
48966W        W92060  32.751  11.955  16.540 -0.1413  0.5084  0.1948
48967W        W92061  32.986  14.048  20.538  0.0256 -0.0658  0.2286
48968W        W92062  34.653  12.296  19.794 -0.0324  0.0433  0.2404
48969W        W92063  34.421  12.924  17.072  0.1514 -0.0512 -0.0601
48970W        W92064   0.393  12.630  17.265 -0.2412 -0.0924 -0.1295
48971W        W92065  34.134  14.518  18.558 -0.0312  0.1958  0.0656
48972W        W92066  33.726  12.181  20.337 -0.2825 -0.5196 -0.1815
48973W        W92067   0.463  12.407  19.752 -0.4024 -0.0201 -0.2054
48974W        W92068  32.847  14.154  16.194 -0.0467 -0.0830 -0.3548
48975W        W92069  33.452  13.271  19.644  0.0656  0.2988  0.3501
48976W        W92070  32.195  13.090  17.337 -0.4317 -0.0074 -0.2484
48977W        W92071  32.759  11.131  18.599 -0.1033  0.0504 -0.0667
48978W        W92072   0.015  14.550  19.099  0.0612  0.0566 -0.2586
48979W        W92073  34.350  11.585  20.379 -0.3468 -0.1310  0.1387
48980W        W92074  33.899  12.245  17.495 -0.0093 -0.3172 -0.2511
48981W        W92075  33.586  12.013  18.824 -0.2784 -0.0015  0.0290
48982W        W92076  32.841  11.396  18.112 -0.1355 -0.1115  0.0913
48983W        W92077  33.116  12.585  20.941 -0.0509 -0.0522 -0.0909
48984W        W92078  34.362  10.652  20.177  0.0438  0.2492 -0.2089
48985W        W92079  32.118  10.630  16.785  0.0026 -0.0758  0.1170
48986W        W92080  33.136  11.689  17.247  0.2802 -0.1762 -0.4058
48987W        W92081  32.325  12.794  17.694 -0.1128 -0.0276 -0.2919
48988W        W92082   0.194  10.965  19.750  0.1000  0.0196 -0.1883
48989W        W92083  32.987  11.832  18.212  0.2219 -0.0250 -0.0758
48990W        W92084  33.190  12.795  17.515 -0.0338  0.2465 -0.1077
48991W        W92085  34.215  14.943  18.883  0.0876  0.0381 -0.1881
48992W        W92086  33.985  12.268  18.352 -0.0646 -0.4682 -0.2966
48993W        W92087  32.447  14.409  18.988  0.2042 -0.0262 -0.1854
48994W        W92088  33.155  11.193  16.531 -0.0938 -0.3575 -0.0634
48995W        W92089  34.117  14.700  17.170 -0.0023  0.1090 -0.0731
48996W        W92090  31.578  11.701  18.396 -0.4026 -0.0811  0.0919
48997W        W92091  34.038  13.849  18.657 -0.2200  0.4525 -0.3055
48998W        W92092  33.013  12.284  17.918  0.0418  0.3116 -0.0113
48999W        W92093  33.985  13.121  17.896  0.2704  0.1922  0.2515
49000W        W92094  32.960  14.810  19.744  0.1849 -0.1100 -0.1769
49001W        W92095  32.046  14.513  21.410 -0.1089 -0.2003  0.0236
49002W        W92096  34.593  13.831  18.537  0.0255  0.0465 -0.0500
49003W        W92097   0.032  13.061  18.940  0.4271  0.2978 -0.0254
49004W        W92098  33.562  12.898  17.867  0.0684 -0.0264 -0.1886
49005W        W92099   1.427  11.767  19.927  0.2402  0.2076 -0.0387
49006W        W92100  33.619  11.879  16.969  0.1799 -0.0360  0.0828
49007W        W92101  32.206  13.876  17.284 -0.2510 -0.2796  0.2443
49008W        W92102   0.320  11.343  20.512 -0.4661  0.1496 -0.3343
49009W        W92103  33.756  13.981  16.442  0.1317 -0.2883 -0.1705
49010W        W92104  34.273  12.270  19.423  0.1233  0.0615 -0.0834
49011W        W92105  34.177  11.840  19.634  0.3848 -0.0197 -0.0742
49012W        W92106  32.879  14.612  19.206  0.2415 -0.0954  0.4182
49013W        W92107   0.022  11.315  21.224 -0.0568  0.0660  0.0641
49014W        W92108  33.226  13.375  17.591  0.1279  0.1624  0.1575
49015W        W92109  33.845  14.120  15.909  0.1985 -0.2396  0.0931
49016W        W92110   0.173  11.464  19.939  0.0636 -0.3994  0.2021
49017W        W92111  33.194  12.293  19.058  0.1187  0.2633 -0.0274
49018W        W92112  34.577  13.759  16.711 -0.1279  0.2883 -0.2612
49019W        W92113  33.863  13.649  17.050 -0.1797  0.1355 -0.1801
49020W        W92114  32.987  14.000  16.810 -0.2466  0.3459  0.1463
49021W        W92115  33.255  11.646  17.846 -0.0236  0.0170  0.0047
49022W        W92116  32.536  12.059  18.064  0.4620 -0.3353  0.2038
49023W        W92117  33.775  11.993  19.326  0.0187 -0.0406  0.0451
49024W        W92118  34.054  12.419  18.910  0.1047  0.3819 -0.4194
49025W        W92119  32.939  13.434  20.072  0.3064  0.3341  0.1140
49026W        W92120   0.819  13.448  19.255  0.1442  0.0759  0.1483
49027W        W92121  33.039  12.185  16.195 -0.1345 -0.2704 -0.0148
49028W        W92122  32.566  10.172  17.931 -0.0497 -0.1034  0.0276
49029W        W92123  32.139  14.471  17.794  0.0043 -0.1597 -0.0596
49030W        W92124  31.834  12.760  17.402  0.3498 -0.1146 -0.0630
49031W        W92125  33.589  14.289  17.987  0.5238 -0.3095  0.1714
49032W        W92126  33.733  13.011  20.710 -0.2779 -0.0521  0.0344
49033W        W92127  32.070  11.523  18.482 -0.0315  0.2671  0.0202
49034W        W92128  34.226  11.310  17.174 -0.1620 -0.0305 -0.1256
49035W        W92129  34.457  13.000  18.132 -0.2040 -0.0086  0.1345
49036W        W92130   0.412  11.739  19.366 -0.1895 -0.2039  0.1291
49037W        W92131  34.311  13.608  20.680  0.1007 -0.0380  0.1994
49038W        W92132  34.208  13.072  16.573 -0.3000  0.0498  0.2583
49039W        W92133  32.790  12.248  19.336 -0.0122  0.3785 -0.2046
49040W        W92134  33.972  13.731  17.983 -0.4075  0.1298  0.2274
49041W        W92135   0.296  12.514  18.579  0.0046  0.0792  0.1165
49042W        W92136  32.596  15.042  19.501 -0.3709  0.1047  0.2593
49043W        W92137  34.559  13.264  16.221 -0.1840  0.2289 -0.0470
49044W        W92138  32.977  13.101  18.967 -0.2802  0.1707 -0.0256
49045W        W92139  34.333  12.459  17.225  0.1206 -0.1247  0.1171
49046W        W92140  33.140  11.427  18.955 -0.1582  0.0625 -0.2329
49047W        W92141  33.232  11.375  19.557 -0.2330  0.2104 -0.1129
49048W        W92142  33.681  13.671  19.514  0.1567 -0.1432  0.5666
49049W        W92143  33.995  12.603  17.927  0.0004 -0.0731 -0.0883
49050W        W92144  33.078  14.370  20.086 -0.0555 -0.0460  0.2185
49051W        W92145   1.189  12.664  17.768  0.1612 -0.1831  0.1063
49052W        W92146  32.817  14.646  18.687 -0.0192 -0.1040  0.1519
49053W        W92147  34.653  12.253  16.905 -0.4158  0.3785  0.2129
49054W        W92148  34.652  13.976  19.433  0.2304  0.1335  0.1077
49055W        W92149   0.220  12.407  19.318  0.0558  0.1066  0.1273
49056W        W92150   0.362  12.881  19.455 -0.0237  0.0698 -0.4788
49057W        W92151   0.116  11.402  19.010 -0.0339  0.0243  0.0691
49058W        W92152  32.660  10.652  17.902  0.0415  0.4015 -0.3409
49059W        W92153  32.734  11.305  16.205 -0.1044 -0.3079 -0.2659
49060W        W92154  34.557  13.983  17.937  0.1304 -0.3159 -0.2783
49061W        W92155  31.896  10.592  18.566 -0.2510 -0.1499 -0.1760
49062W        W92156   0.574  15.022  21.170  0.0674 -0.0653  0.5128
49063W        W92157  33.193  12.884  16.708 -0.1736 -0.0585  0.1963
49064W        W92158  33.507  12.469  16.692  0.1073  0.0591 -0.2707
49065W        W92159   1.232  13.986  18.107  0.0969 -0.0320 -0.0871
49066W        W92160  33.171  11.176  17.106  0.2273 -0.0054 -0.1347
49067W        W92161  32.755  12.554  17.162 -0.0244 -0.0489 -0.0684
49068W        W92162  32.064  15.182  19.653 -0.1403 -0.2647  0.0670
49069W        W92163  32.649  13.482  18.678  0.0923  0.1157  0.0323
49070W        W92164  32.738  13.655  17.772  0.0357  0.3133  0.3717
49071W        W92165  34.400  14.118  18.916 -0.2636 -0.0902  0.1044
49072W        W92166  34.155  11.760  17.464  0.1223 -0.3286 -0.0367
49073W        W92167  33.130  12.878  18.521  0.1878 -0.0277 -0.1175
49074W        W92168  32.568  12.815  19.686 -0.1359  0.1490  0.1112
49075W        W92169  33.557  10.971  17.378  0.1808  0.0307  0.0718
49076W        W92170  33.673  13.266  21.237 -0.2121 -0.0490  0.0524
49077W        W92171  33.938  13.289  19.390 -0.0192 -0.3058 -0.0924
49078W        W92172  33.498  14.061  16.859 -0.0991 -0.4332 -0.0552
49079W        W92173  32.819  12.774  17.914  0.0406  0.2007 -0.0739
49080W        W92174  33.588  13.394  18.121  0.1542 -0.0140  0.2176
49081W        W92175  32.514  14.047  18.678  0.0739  0.1083  0.1490
49082W        W92176  32.709  14.373  16.691  0.1574 -0.0352 -0.1010
49083W        W92177   0.360  13.418  19.446  0.0130 -0.3958  0.0916
49084W        W92178  33.087  12.149  16.837  0.1355  0.0425 -0.2061
49085W        W92179   0.116  11.707  20.753  0.1235 -0.1500  0.0402
49086W        W92180  32.476  13.612  20.179 -0.1733  0.1627  0.1878
49087W        W92181   0.047  11.454  18.218 -0.1907  0.0480 -0.1363
49088W        W92182  34.076  13.263  18.366 -0.0547  0.2893  0.0218
49089W        W92183  33.372  13.272  16.269 -0.0118  0.0500  0.0061
49090W        W92184  33.981  14.788  17.647  0.0842 -0.1281 -0.1545
49091W        W92185  34.122  14.501  19.042 -0.0386 -0.2169  0.1472
49092W        W92186   1.421  15.165  18.929 -0.0034  0.2438  0.0313
49093W        W92187  32.344  12.165  16.715 -0.3048 -0.0746 -0.1038
49094W        W92188  34.268  13.381  18.832  0.2507 -0.0106 -0.2584
49095W        W92189  34.667  12.037  19.079 -0.0173 -0.1326 -0.0889
49096W        W92190  31.798  11.554  19.040 -0.1997  0.2735 -0.0194
49097W        W92191  34.298  10.853  15.983 -0.2223  0.1238  0.1687
49098W        W92192  32.352  11.092  18.217 -0.0986 -0.0788 -0.1604
49099W        W92193  32.611  12.827  19.179  0.1848  0.0136  0.2021
49100W        W92194   0.733  12.133  19.337  0.0903  0.1155 -0.1923
49101W        W92195  33.049   9.339  17.970 -0.2002  0.0954 -0.1982
49102W        W92196  33.556  13.725  16.095 -0.0166  0.3706  0.1562
49103W        W92197  31.921  11.099  18.697  0.0750 -0.0603  0.0961
49104W        W92198  32.569  10.555  16.576 -0.0937 -0.0966  0.2024
49105W        W92199  33.235  11.902  19.332  0.2180 -0.0741 -0.1085
49106W        W92200  33.153  14.036  17.403  0.2101 -0.0289  0.2278
49107W        W92201  33.905  14.175  17.131  0.3006 -0.6939 -0.1344
49108W        W92202  34.677  13.536  19.140  0.6478  0.1630  0.0415
49109W        W92203   0.541  14.362  19.171 -0.1638 -0.1106 -0.1739
49110W        W92204  32.206  12.415  17.374  0.0137  0.2826  0.2225
49111W        W92205  34.646  13.283  19.702 -0.0195  0.0156 -0.2280
49112W        W92206  33.568  13.920  18.333 -0.1080 -0.1295  0.2299
49113W        W92207  34.207  13.730  17.472 -0.3144  0.0254  0.1095
49114W        W92208  33.148  12.184  17.408  0.0474  0.0671  0.1512
49115W        W92209  33.339   9.865  18.248 -0.3163  0.3415  0.1341
49116W        W92210  34.193  13.977  20.306  0.0040  0.1564 -0.1355
49117W        W92211  33.192  13.402  15.802  0.0697  0.2145  0.1760
49118W        W92212  33.475  13.590  16.650 -0.0983  0.1240 -0.1475
49119W        W92213  32.524  12.116  18.630  0.3640 -0.0013  0.0694
49120W        W92214   0.935  11.565  20.721 -0.0632 -0.3056  0.0423
49121W        W92215  33.402  10.904  19.671 -0.0733 -0.0691  0.0465
49122W        W92216  32.627  13.029  18.500 -0.0985  0.0994  0.0427
49123W        W92217  32.626  11.601  18.521 -0.0794  0.1784 -0.3941
49124W        W92218  33.761  10.492  18.797 -0.1937  0.2174 -0.0344
49125W        W92219  33.631  11.070  19.137 -0.0726 -0.1067 -0.0141
49126W        W92220  33.214  11.164  17.774  0.1904 -0.2078 -0.0894
49127W        W92221  33.703  13.336  15.845 -0.3705 -0.2749  0.2523
49128W        W92222   1.635  12.906  18.503  0.2865  0.0245 -0.3045
49129W        W92223  33.883  12.052  20.906 -0.3561 -0.1818  0.2160
49130W        W92224  32.201  11.240  16.271 -0.0162  0.0567  0.0303
49131W        W92225  33.266  11.455  18.491 -0.3166  0.2961  0.1836
49132W        W92226   0.544  12.675  18.964  0.0276 -0.0482  0.0380
49133W        W92227  34.645  13.804  20.393 -0.2225 -0.0201  0.4423
49134W        W92228  32.034  10.925  20.394 -0.2326 -0.2195  0.0074
49135W        W92229  33.296  12.603  20.037 -0.2597 -0.0954 -0.1745
49136W        W92230  32.751  11.030  19.589 -0.0834  0.1418  0.2121
49137W        W92231  32.696  14.482  20.349  0.0120  0.0969 -0.0905
49138W        W92232  34.301  11.443  19.878 -0.1696 -0.1698 -0.0306
49139W        W92233  34.564  12.664  19.531  0.0534  0.0400 -0.0445
49140W        W92234  34.219  12.145  17.872 -0.1054  0.4597 -0.0637
49141W        W92235   1.291  13.633  19.554  0.0033 -0.3146  0.1090
49142W        W92236  33.747  13.377  18.772  0.3907  0.0422  0.3152
49143W        W92237  32.916  13.927  20.043 -0.0897  0.1446 -0.0861
49144W        W92238  32.493  10.507  19.888  0.0621 -0.0849 -0.0755
49145W        W92239   0.231  14.141  18.837 -0.2697  0.5926  0.1885
49146W        W92240  33.501  12.460  17.720 -0.1585 -0.1931 -0.0382
49147W        W92241  34.651  11.825  19.588 -0.1601 -0.6245 -0.3343
49148W        W92242  33.311  15.737  19.993 -0.3246 -0.0426 -0.0844
49149W        W92243  34.188  13.772  24.180  0.2724  0.2475  0.0112
49150W        W92244  32.629  12.518  21.174 -0.0189 -0.1119 -0.1741
49151W        W92245  33.967  11.487  21.944 -0.0034  0.1091  0.1303
49152W        W92246  33.505  11.203  23.907  0.2962 -0.2080 -0.2217
49153W        W92247  33.352  11.984  22.995 -0.0536 -0.1176  0.0855
49154W        W92248  32.675  14.689  23.329  0.0700 -0.0664  0.0753
49155W        W92249  34.367  10.873  21.281 -0.0506 -0.1038  0.0426
49156W        W92250  33.081  11.337  21.397  0.2672 -0.2462  0.1293
49157W        W92251  32.590  12.062  20.454  0.1370 -0.0251  0.2267
49158W        W92252  34.357  11.088  23.670 -0.0466 -0.1946  0.0901
49159W        W92253  34.068  13.681  22.235  0.1892  0.0987  0.0305
49160W        W92254  33.563  10.598  23.069 -0.0691 -0.2405 -0.1107
49161W        W92255  33.669  13.256  21.781  0.1241  0.2582  0.0848
49162W        W92256  33.813  12.800  20.261  0.1995 -0.0994  0.0553
49163W        W92257  32.506  11.660  23.120  0.0792 -0.3155 -0.1313
49164W        W92258  32.826  12.423  24.309  0.0292 -0.0282  0.1318
49165W        W92259  32.957  13.649  22.460  0.0580 -0.0301 -0.0745
49166W        W92260   0.360  13.407  22.464  0.0870  0.1570 -0.0145
49167W        W92261   0.090  12.764  21.746 -0.1738  0.0478  0.0132
49168W        W92262  32.917  15.055  22.568  0.1001 -0.1354  0.0593
49169W        W92263  33.735  14.079  22.398  0.2222 -0.0384  0.1306
49170W        W92264  33.953  14.691  23.941 -0.0220  0.0072  0.0183
49171W        W92265  33.640  13.083  22.362  0.1660  0.0049 -0.1703
49172W        W92266  32.555  12.803  23.997  0.2200  0.2990  0.0690
49173W        W92267   0.878  13.258  21.645  0.0181 -0.1173 -0.0710
49174W        W92268   0.101  14.390  22.459 -0.0661  0.1247 -0.2776
49175W        W92269  33.090  12.701  23.982  0.0727  0.0350 -0.1034
49176W        W92270  32.082  12.392  23.185 -0.1448 -0.1427  0.1249
49177W        W92271  33.423  14.609  21.399  0.0152 -0.2082 -0.2967
49178W        W92272  34.048  13.189  20.369 -0.1047 -0.2472  0.0247
49179W        W92273  33.952   9.881  20.493 -0.1200 -0.2181 -0.0011
49180W        W92274  32.581  14.669  22.677 -0.1987  0.0317 -0.1127
49181W        W92275  32.716  11.714  24.371 -0.1863 -0.1759  0.0948
49182W        W92276  34.448  13.781  23.156 -0.1196 -0.0638 -0.0781
49183W        W92277  32.387  11.663  20.794 -0.4155 -0.0385 -0.1723
49184W        W92278  32.600  13.822  21.096  0.1272  0.0579  0.3238
49185W        W92279  31.812  13.240  22.701 -0.1908  0.2047 -0.1172
49186W        W92280  31.736  11.759  23.942  0.3542  0.0715  0.1765
49187W        W92281  33.646  11.203  19.990  0.0722  0.0114  0.0124
49188W        W92282  32.277  12.861  23.495  0.2006 -0.0775 -0.1484
49189W        W92283  33.338  13.618  23.650 -0.2009 -0.1936 -0.0441
49190W        W92284  34.425  12.993  22.047 -0.0265 -0.1293 -0.0994
49191W        W92285  34.025  14.520  22.107 -0.0249  0.0958  0.2307
49192W        W92286  33.832  14.340  24.646 -0.0649  0.2809 -0.2204
49193W        W92287  32.851  12.274  25.171 -0.0320  0.1179 -0.1628
49194W        W92288   0.283  12.672  24.311 -0.2273 -0.0941  0.1371
49195W        W92289  33.780  14.145  20.680 -0.0167 -0.2137 -0.0088
49196W        W92290  31.934  13.552  21.753  0.0739  0.1485 -0.1339
49197W        W92291  33.507  13.623  22.434 -0.1376  0.0010 -0.0512
49198W        W92292  30.930  11.358  23.044  0.0077 -0.0918 -0.0517
49199W        W92293  32.754  12.649  24.909  0.0571  0.0876  0.0923
49200W        W92294  33.183  10.333  22.619 -0.1997 -0.0670 -0.1320
49201W        W92295  32.770  12.789  21.748  0.0131  0.0571 -0.1905
49202W        W92296  32.221  13.100  23.050 -0.1583 -0.0676  0.1819
49203W        W92297  33.210  13.160  22.094  0.3077 -0.1754 -0.2548
49204W        W92298  31.445  12.432  23.855 -0.0306  0.2281 -0.0743
49205W        W92299  33.951  11.332  23.379  0.2099  0.0189  0.0556
49206W        W92300   0.329  10.430  20.850  0.2145  0.0481 -0.0971
49207W        W92301   0.547  12.192  23.500 -0.0403  0.4516 -0.0244
49208W        W92302  33.273  13.089  20.964 -0.1044 -0.1478  0.2204
49209W        W92303  33.305  11.593  22.573 -0.0410 -0.0389  0.0878
49210W        W92304  33.292  13.531  21.464  0.0647 -0.0514 -0.0835
49211W        W92305  33.400  15.087  21.447 -0.0546  0.0372 -0.0061
49212W        W92306  33.395  12.603  22.217 -0.1616  0.1708 -0.2189
49213W        W92307  34.062  12.487  21.218 -0.1583  0.0007 -0.0682
49214W        W92308  33.029  12.860  23.074 -0.0484 -0.1293  0.1671
49215W        W92309  33.904  11.048  20.869  0.0662  0.0013  0.2411
49216W        W92310  32.003  13.919  20.278  0.1189 -0.1528  0.0011
49217W        W92311  32.299  12.189  21.969  0.0468 -0.2931 -0.0775
49218W        W92312  32.985  14.863  23.003 -0.3768  0.4910 -0.0844
49219W        W92313  31.988  12.877  24.847 -0.3046 -0.0583  0.6166
49220W        W92314  34.232  13.032  19.835 -0.1910 -0.3125  0.1305
49221W        W92315  31.595  12.896  24.027  0.0590  0.2334 -0.0490
49222W        W92316  33.090  13.622  24.096  0.2771  0.4224  0.3520
49223W        W92317   0.656  13.434  22.044  0.2519 -0.1489 -0.1850
49224W        W92318   0.713  13.575  23.861  0.0117  0.0273  0.1976
49225W        W92319  33.888  12.805  22.700 -0.1033 -0.0351  0.0584
49226W        W92320  34.191  10.534  22.257  0.3095  0.0801 -0.1357
49227W        W92321   0.199  11.908  21.241  0.1356  0.2682  0.1741
49228W        W92322  32.993  14.348  21.358 -0.1072 -0.1761  0.5589
49229W        W92323  34.602  10.782  22.472  0.4006  0.0977 -0.1828
49230W        W92324  33.065  12.576  19.583  0.1574  0.2696  0.2571
49231W        W92325   0.774  10.666  23.117  0.1664 -0.3913  0.2202
49232W        W92326  32.351  12.238  24.298 -0.0780  0.1994  0.0631
49233W        W92327  32.694  15.200  23.391 -0.1494  0.1729 -0.1107
49234W        W92328   0.411  10.390  24.632 -0.0295  0.2326  0.0313
49235W        W92329  34.213  13.425  21.804  0.0782 -0.2186 -0.0088
49236W        W92330  34.141  14.004  21.036 -0.2247 -0.2779 -0.0109
49237W        W92331  32.663  12.049  22.283  0.1891  0.0030 -0.2276
49238W        W92332  32.993  12.250  23.746  0.0375  0.0691 -0.0294
49239W        W92333  33.803  13.625  20.333  0.0291 -0.1814  0.1186
49240W        W92334  34.429  13.253  22.936 -0.0863 -0.3278  0.0261
49241W        W92335  32.355  14.296  23.020 -0.0828  0.0445  0.1303
49242W        W92336  33.650  12.796  21.230  0.1007 -0.0197  0.0086
49243W        W92337  32.654  11.516  20.298  0.2659 -0.0428  0.1514
49244W        W92338  32.140  11.971  23.843  0.0231  0.0456  0.1323
49245W        W92339   0.410  10.901  22.756  0.0857  0.2202  0.3531
49246W        W92340  33.408  14.989  23.409 -0.3081 -0.1252 -0.2941
49247W        W92341  33.326  12.697  23.542 -0.0305 -0.4674  0.4355
49248W        W92342  33.214  11.478  20.445  0.1280  0.0623 -0.0969
49249W        W92343  34.353  12.548  22.359  0.2763  0.1153  0.2545
49250W        W92344  33.880  13.744  23.238  0.1940  0.1427 -0.0318
49251W        W92345  32.297  13.381  20.585 -0.1438  0.0480 -0.0672
49252W        W92346   0.861  12.710  22.959  0.0033 -0.1496  0.0161
49253W        W92347  32.756  11.228  25.078  0.0263 -0.4857  0.0169
49254W        W92348  34.226  11.566  22.324 -0.2306  0.1163 -0.4810
49255W        W92349  32.848  11.195  23.200 -0.0765  0.0839 -0.2280
49256W        W92350   0.830  10.559  23.721  0.1611  0.1272  0.0680
49257W        W92351  33.718  11.075  22.992 -0.1904 -0.0257  0.1778
49258W        W92352  32.894  14.503  24.340  0.1931 -0.2184  0.1694
49259W        W92353  32.743  13.161  22.287  0.4106  0.1701  0.0510
49260W        W92354  32.890  12.372  22.755 -0.2408 -0.1103  0.0862
49261W        W92355  33.135  12.875  22.593  0.0340 -0.3108 -0.1781
49262W        W92356   0.559  10.673  24.132 -0.3258 -0.2247 -0.0932
49263W        W92357  31.994  13.436  24.034 -0.1570 -0.1903 -0.0030
49264W        W92358   0.272  13.792  22.171  0.0424 -0.2094  0.2708
49265W        W92359  32.657  13.166  23.263 -0.0937 -0.0314  0.0865
49266W        W92360  33.891  12.341  22.314  0.0032  0.1744 -0.0261
49267W        W92361   0.299  10.461  22.864  0.0471 -0.0811 -0.2460
49268W        W92362  31.199  10.875  23.384 -0.4058 -0.2342 -0.0671
49269W        W92363  33.524  12.384  23.831  0.0584 -0.2509  0.1297
49270W        W92364   0.369  10.356  21.366  0.1865  0.1786 -0.1511
49271W        W92365  33.000  12.381  21.482  0.1545 -0.0769 -0.0622
49272W        W92366  33.897  12.767  22.069 -0.3540  0.0452  0.1925
49273W        W92367  33.405  12.470  22.714 -0.0679  0.0388  0.1145
49274W        W92368  34.502  13.071  20.216  0.3211 -0.1973 -0.1070
49275W        W92369   0.562  12.935  22.407 -0.0808  0.1120 -0.0314
49276W        W92370  32.804  10.390  23.008 -0.0318  0.0356 -0.2490
49277W        W92371  34.677  11.928  24.304 -0.0874  0.0133  0.0137
49278W        W92372  32.102  11.889  24.800 -0.1601  0.0016  0.2519
49279W        W92373  32.475  12.734  22.164  0.0613 -0.0509  0.1025
49280W        W92374  34.230  13.464  21.217 -0.1959  0.1538 -0.0194
49281W        W92375   0.336  13.978  21.259  0.0415 -0.0898 -0.0728
49282W        W92376  34.203  10.317  20.603 -0.2044 -0.0289  0.1427
49283W        W92377  32.854  13.201  23.838  0.0804  0.2581 -0.0355
49284W        W92378  33.661  12.487  20.763  0.1014  0.0356  0.3518
49285W        W92379  32.735  13.589  20.625 -0.0357 -0.1730  0.1803
49286W        W92380   0.232  13.321  22.956 -0.0048  0.0100 -0.3274
49287W        W92381   0.041  10.810  20.658 -0.0577  0.0302 -0.2211
49288W        W92382  32.804  13.355  21.818  0.1374  0.2266 -0.1609
49289W        W92383  33.356  15.992  23.589 -0.0740  0.0997 -0.0100
49290W        W92384  32.069  13.415  23.424 -0.1327  0.0713 -0.1234
49291W        W92385  32.961  14.586  23.818  0.5081 -0.2853 -0.0061
49292W        W92386  33.489  12.257  21.343 -0.0947  0.0921 -0.2441
49293W        W92387  32.688  12.103  23.386 -0.0430  0.1280 -0.0598
49294W        W92388  33.729  14.883  22.651  0.1855  0.0989 -0.0094
49295W        W92389  32.468  13.116  24.728 -0.3267  0.0683  0.1753
49296W        W92390   0.802  11.210  23.185 -0.1181 -0.0888  0.4361
49297W        W92391  31.519  13.308  24.414 -0.1236 -0.1696  0.0994
49298W        W92392  33.534  12.765  23.124  0.1042  0.2037 -0.3099
49299W        W92393  32.751  14.269  22.363  0.0265  0.2622  0.0569
49300W        W92394  34.008  12.935  21.579  0.2309 -0.0043 -0.0170
49301W        W92395  33.517  13.170  22.833 -0.0111 -0.0946  0.2342
49302W        W92396  32.732  13.075  20.416  0.1613 -0.0747 -0.0658
49303W        W92397  33.653  14.304  21.894  0.0554 -0.3187  0.2266
49304W        W92398  34.361  11.662  23.399  0.1083 -0.2839 -0.1598
49305W        W92399   0.369   9.934  20.696  0.0427 -0.0393  0.3350
49306W        W92400  31.876  12.413  24.585  0.1022  0.1395 -0.2523
49307W        W92401   0.129  14.358  24.218 -0.1844 -0.0988  0.2968
49308W        W92402  32.881  11.670  20.741  0.0050 -0.3655  0.2298
49309W        W92403   0.144  12.559  23.602 -0.1333 -0.5547  0.0980
49310W        W92404   0.382  14.089  19.604 -0.0947  0.1400 -0.0405
49311W        W92405   0.150  15.301  21.780 -0.0938 -0.0220 -0.0945
49312W        W92406  34.346  13.170  23.455  0.4620  0.1641 -0.1549
49313W        W92407  34.471  14.331  22.116  0.1592  0.1728 -0.0807
49314W        W92408  33.712  11.815  21.697 -0.1918 -0.0727  0.2041
49315W        W92409  33.219  12.159  22.399  0.1479  0.0035  0.1661
49316W        W92410  32.428  12.528  22.626  0.1336 -0.0669 -0.1050
49317W        W92411  32.126  11.502  23.589 -0.2837 -0.0997  0.1978
49318W        W92412   0.650  12.924  20.959  0.0407  0.0323  0.0229
49319W        W92413  33.096  11.936  21.263 -0.1426 -0.1056 -0.0600
49320W        W92414  33.167  13.043  21.465  0.1279  0.0038 -0.4181
49321W        W92415  32.812  12.643  23.523 -0.1177  0.1390 -0.1944
49322W        W92416  33.464  11.369  20.934  0.2148  0.2488  0.1189
49323W        W92417  33.478  13.115  20.140 -0.1268  0.0139 -0.1136
49324W        W92418  32.109  11.507  22.088  0.0238 -0.1510 -0.2616
49325W        W92419  34.165  11.021  22.373 -0.0348  0.0111 -0.1739
49326W        W92420  34.607  12.084  22.316  0.1466  0.0644 -0.2489
49327W        W92421  32.405  13.500  22.098  0.2023 -0.0004  0.2467
49328W        W92422   0.613  13.306  20.649 -0.2198  0.1835  0.0907
49329W        W92423  34.336  12.651  22.819  0.1795 -0.2526 -0.0255
49330W        W92424  33.276  15.654  24.096  0.1433 -0.4030  0.3063
49331W        W92425  32.956  12.960  19.958 -0.2694 -0.0517 -0.0418
49332W        W92426  34.412  12.726  24.397  0.0919 -0.2121  0.0864
49333W        W92427  33.839  12.332  22.808  0.0967  0.2523 -0.1003
49334W        W92428  34.253  14.064  22.464 -0.3194 -0.1874  0.0047
49335W        W92429   0.315  12.583  21.132 -0.0024  0.1144  0.2881
49336W        W92430  34.165  10.963  23.145 -0.0238  0.4495 -0.0066
49337W        W92431  33.400  13.113  23.821  0.0954 -0.0811  0.0622
49338W        W92432  33.485  12.721  19.336  0.3327 -0.0714  0.0568
49339W        W92433  34.386  13.109  20.726 -0.0910 -0.3534  0.4126
49340W        W92434  33.098  12.389  23.219 -0.0918  0.0117 -0.0474
49341W        W92435   1.247  10.104  23.732  0.2479 -0.0061 -0.2584
49342W        W92436  32.340  12.357  24.791  0.0436 -0.3833  0.2123
49343W        W92437  33.401  12.661  21.663  0.0403  0.1425  0.3073
49344W        W92438  33.776  11.668  19.872 -0.0124 -0.0173  0.0847
49345W        W92439  34.058  10.867  21.909  0.1562 -0.0418 -0.0779
49346W        W92440  32.958  11.722  23.286  0.1337  0.0199  0.0128
49347W        W92441  34.509  11.281  20.686  0.0901  0.0653 -0.1751
49348W        W92442  32.237  12.821  20.377  0.0781 -0.2681 -0.0173
49349W        W92443   1.260  11.602  23.987  0.1118  0.0205  0.1372
49350W        W92444  32.771  11.243  22.690 -0.1875 -0.2327  0.1509
49351W        W92445  33.502  11.471  22.056  0.0155 -0.2238  0.0233
49352W        W92446  34.036  12.470  23.202  0.1451 -0.1106 -0.0357
49353W        W92447   1.359  13.058  23.387 -0.2327 -0.0860  0.3781
49354W        W92448  32.805  14.028  24.219 -0.1058  0.2331  0.1579
49355W        W92449  33.871  10.913  23.691 -0.1452  0.0270  0.0994
49356W        W92450  34.480  13.351  23.906 -0.2531  0.2680 -0.0191
49357W        W92451  31.261  11.004  22.856 -0.2371 -0.1501  0.1528
49358W        W92452  34.271  14.250  23.869 -0.2870  0.1005 -0.1164
49359W        W92453  34.673  11.158  23.262 -0.2193  0.0069  0.1043
49360W        W92454  33.152  10.625  22.214  0.1666 -0.0810 -0.0395
49361W        W92455   0.205  12.612  22.217  0.4248  0.3356 -0.0960
49362W        W92456  33.983  12.061  23.609 -0.0743 -0.1028 -0.2482
49363W        W92457  34.548  12.227  21.503  0.1207 -0.0104  0.0561
49364W        W92458   0.103  13.793  22.635  0.0264  0.0893 -0.0844
49365W        W92459  33.615  11.592  23.147  0.1120  0.0716 -0.0034
49366W        W92460  33.223  13.929  22.848 -0.2766 -0.1030 -0.1646
49367W        W92461  33.442  11.138  23.422 -0.0343  0.1795 -0.2034
49368W        W92462  34.226  12.063  22.599 -0.2701  0.3000 -0.0431
49369W        W92463  32.529  14.394  24.001  0.1759 -0.1867 -0.3466
49370W        W92464  33.000  13.010  25.453  0.3255 -0.1318  0.1656
49371W        W92465   0.106  10.709  24.890  0.0495 -0.0452  0.1559
49372W        W92466  32.830  10.772  26.188  0.2147 -0.1460  0.1164
49373W        W92467  34.210   9.553  25.108  0.1042  0.0263  0.3377
49374W        W92468  34.373  12.845  26.905  0.1780  0.0098  0.1989
49375W        W92469  33.958  15.000  27.128  0.1256 -0.0514  0.0683
49376W        W92470   0.045  10.474  24.232 -0.2692  0.0422 -0.4930
49377W        W92471  34.413  10.826  24.557  0.0122 -0.0690 -0.1573
49378W        W92472  32.632  12.129  25.719 -0.0960 -0.0056  0.0246
49379W        W92473  33.930  10.321  26.230 -0.0229 -0.0006  0.0340
49380W        W92474  33.897  11.146  25.114 -0.1724  0.2886  0.1947
49381W        W92475  34.424  10.012  25.218  0.0246  0.1534 -0.1543
49382W        W92476  32.554  13.023  25.225  0.0582 -0.2699 -0.0240
49383W        W92477  31.384  12.487  25.012  0.1180  0.1053  0.3499
49384W        W92478  31.981  12.280  25.125  0.3398 -0.0934  0.1244
49385W        W92479  34.260  12.564  26.096 -0.0673  0.3189  0.0766
49386W        W92480  33.655  14.313  25.456 -0.2160  0.2096 -0.1661
49387W        W92481   1.545  13.245  26.057 -0.1552 -0.1093 -0.2685
49388W        W92482  32.155  12.297  25.693 -0.1723  0.1431 -0.1846
49389W        W92483  32.481  15.307  25.862  0.2533 -0.2249 -0.2461
49390W        W92484  32.847  14.949  24.826  0.3325 -0.0434 -0.2368
49391W        W92485  34.622  13.365  26.158  0.0556 -0.2926 -0.1830
49392W        W92486  31.681  13.474  26.651 -0.2879  0.1431 -0.0012
49393W        W92487  33.926  13.268  26.536  0.3572 -0.0444 -0.0224
49394W        W92488  34.302  13.102  25.173 -0.0552  0.0214 -0.0868
49395W        W92489  34.031  13.943  25.739 -0.3529 -0.2096  0.0464
49396W        W92490  33.576  13.019  26.786 -0.2992 -0.0188 -0.1467
49397W        W92491  33.446  13.725  26.940 -0.2147 -0.0736  0.0807
49398W        W92492  34.275  14.171  24.474 -0.1627  0.0540  0.0089
49399W        W92493   1.006  11.053  23.976 -0.0976  0.0986 -0.0526
49400W        W92494  33.682  11.447  25.420  0.2128 -0.1630  0.0121
49401W        W92495  33.358  13.430  26.526 -0.2233  0.1682  0.1736
49402W        W92496  33.865  12.257  25.482 -0.1826 -0.1864 -0.1546
49403W        W92497  33.529  13.943  25.783  0.0686 -0.0370 -0.0283
49404W        W92498  33.273  12.115  25.989  0.1925 -0.1573 -0.0301
49405W        W92499  33.020  11.893  25.537 -0.1463 -0.0557  0.0061
49406W        W92500  32.608  12.451  26.596  0.1119 -0.2502 -0.3451
49407W        W92501  34.186  12.807  27.623  0.0297 -0.3024 -0.1681
49408W        W92502  33.680  10.980  24.323 -0.0429  0.0052  0.0051
49409W        W92503  33.245  13.689  27.888  0.3694  0.0108  0.0122
49410W        W92504  33.232  12.393  24.666 -0.2251 -0.1374 -0.1227
49411W        W92505  33.052  13.106  24.844 -0.0248  0.1955  0.1207
49412W        W92506  33.591  12.352  25.056 -0.0389  0.1876 -0.3395
49413W        W92507  34.328  13.628  25.264 -0.2260  0.3507 -0.0979
49414W        W92508   0.116  10.878  25.869  0.0834  0.1538 -0.0703
49415W        W92509  34.314  13.753  26.311  0.0560  0.1419  0.0315
49416W        W92510  31.979  13.641  22.991  0.0708  0.0322  0.2794
49417W        W92511  33.624  13.611  27.445 -0.0535  0.3357  0.1651
49418W        W92512  33.373  13.902  24.403  0.0505 -0.0051 -0.1180
49419W        W92513  33.448  10.655  26.886 -0.0702  0.0830  0.2358
49420W        W92514  33.085  12.609  25.900 -0.1151  0.1729 -0.1799
49421W        W92515   0.590   9.866  26.813  0.2622  0.0740 -0.0301
49422W        W92516  32.780  13.580  25.010 -0.0877  0.0539 -0.2654
49423W        W92517  32.603  13.300  26.928 -0.1146 -0.1654 -0.0366
49424W        W92518  32.437  10.962  25.359  0.1187  0.1478 -0.1741
49425W        W92519  34.613  11.665  27.319  0.2074  0.1524 -0.0721
49426W        W92520  34.239  11.121  27.313 -0.0270 -0.0273 -0.5309
49427W        W92521  33.666  11.867  25.168 -0.0759  0.2727  0.3761
49428W        W92522  33.688  11.821  26.142 -0.1068  0.0087 -0.3048
49429W        W92523  29.658  12.370  26.299  0.1430 -0.6352 -0.0633
49430W        W92524  33.148  13.546  27.332  0.2253  0.0003  0.2335
49431W        W92525  31.916  13.713  24.419  0.0480 -0.0545 -0.1417
49432W        W92526  33.517  14.447  26.430  0.2918  0.0970  0.0742
49433W        W92527  33.046  14.003  24.811 -0.1656  0.3298 -0.0041
49434W        W92528  33.285  12.101  24.158  0.2388 -0.1451  0.1160
49435W        W92529  34.120  13.813  28.373 -0.2209  0.0835  0.2307
49436W        W92530  32.928  10.382  23.771 -0.1025  0.0328  0.2246
49437W        W92531  32.212  14.167  24.418 -0.0887  0.0147  0.3346
49438W        W92532  32.340  13.579  24.669 -0.0035  0.0098 -0.2084
49439W        W92533   0.407  13.127  24.623 -0.2932 -0.1675 -0.2495
49440W        W92534  33.128  13.321  28.265 -0.0830  0.0274 -0.0297
49441W        W92535  33.246  11.762  24.641  0.1844 -0.3338  0.3400
49442W        W92536  31.879  14.302  28.718 -0.0230 -0.0825 -0.2036
49443W        W92537  33.409  14.840  29.066 -0.3005 -0.1256  0.1169
49444W        W92538  34.084  12.525  25.069 -0.2820  0.0414 -0.0293
49445W        W92539  33.601  13.388  26.090 -0.1587 -0.2907 -0.2168
49446W        W92540  33.917  12.869  27.200  0.0082 -0.0311 -0.2215
49447W        W92541   0.301  11.882  26.166 -0.2465 -0.3995  0.1311
49448W        W92542  34.146  11.584  24.347 -0.0765 -0.1115 -0.2500
49449W        W92543  32.782  13.501  24.508 -0.3089  0.2085 -0.0707
49450W        W92544   0.157  12.103  27.427 -0.1623  0.2636 -0.0688
49451W        W92545  33.209  11.966  25.088 -0.0654  0.1042 -0.0042
49452W        W92546  34.492  12.489  26.568 -0.1611 -0.3424  0.0322
49453W        W92547  32.435  13.970  27.305  0.2709 -0.0593  0.2420
49454W        W92548  33.538  14.592  27.429 -0.1550 -0.0054  0.2826
49455W        W92549   1.242  12.071  26.512 -0.0540  0.0303  0.0059
49456W        W92550  33.773  15.679  25.086 -0.2178  0.3305 -0.0805
49457W        W92551  33.322  13.602  24.908 -0.2863  0.2092  0.0178
49458W        W92552  34.274  10.670  25.646 -0.0799  0.0621 -0.4198
49459W        W92553  34.177  14.415  26.268 -0.0398  0.0970 -0.0218
49460W        W92554  33.302  13.360  24.469 -0.1343  0.2794  0.0874
49461W        W92555  33.848  13.815  24.606 -0.0572 -0.0566  0.1489
49462W        W92556  32.561  14.335  26.008  0.0466  0.0933  0.0355
49463W        W92557  34.047  11.177  24.617 -0.0436 -0.2423  0.1783
49464W        W92558  32.442  12.700  26.169  0.0237 -0.2994  0.0445
49465W        W92559  34.563  11.835  25.890  0.0678  0.2241 -0.0816
49466W        W92560  33.911  11.600  24.816  0.4034 -0.1184 -0.2991
49467W        W92561  32.985  14.044  25.810 -0.0270 -0.1520 -0.2088
49468W        W92562  34.003  14.309  28.448 -0.2070  0.1649 -0.0190
49469W        W92563  33.247  11.457  25.051 -0.2517  0.0391  0.1786
49470W        W92564  33.137  11.589  25.964 -0.1655 -0.1881 -0.1851
49471W        W92565  33.896  13.302  24.986  0.1148 -0.0050 -0.0587
49472W        W92566  33.195  12.687  25.084 -0.0722 -0.0288  0.0202
49473W        W92567  32.919  12.992  24.383 -0.0535  0.2553 -0.0586
49474W        W92568  34.221  12.434  27.115  0.1292  0.0148  0.0394
49475W        W92569  33.690  12.419  25.967 -0.1789  0.1346 -0.1968
49476W        W92570  33.550  11.319  25.844 -0.3156  0.3989  0.0493
49477W        W92571   1.361  12.448  26.884 -0.1792  0.1638  0.2486
49478W        W92572  34.606  11.375  26.839 -0.1282  0.3358 -0.0286
49479W        W92573  33.887  14.765  28.297 -0.4249 -0.0169 -0.2350
49480W        W92574  32.759  13.721  23.746 -0.3731 -0.2122 -0.2110
49481W        W92575  33.696  13.562  28.164 -0.1206 -0.0374 -0.1531
49482W        W92576  33.063  14.563  25.130 -0.0280  0.1391  0.1751
49483W        W92577   0.432  10.977  26.932 -0.0331  0.1443 -0.0057
49484W        W92578  33.382  13.979  26.489 -0.0971  0.4579 -0.4471
49485W        W92579  33.543  14.108  24.971 -0.0736  0.3739 -0.0118
49486W        W92580  33.351  14.212  27.955 -0.1189  0.0912 -0.0574
49487W        W92581  34.480  11.360  25.686  0.2698  0.2708 -0.1150
49488W        W92582  33.533  11.823  25.661  0.0692  0.3703  0.1362
49489W        W92583  33.036  12.039  27.464  0.0249 -0.0954  0.1935
49490W        W92584  33.644  14.501  28.764 -0.2021  0.1035 -0.2144
49491W        W92585  33.146  10.997  24.215 -0.1477  0.0868 -0.1103
49492W        W92586  32.753  11.792  26.324  0.1342  0.2193  0.1406
49493W        W92587  34.004  12.426  24.030  0.1718 -0.1681  0.1649
49494W        W92588  32.824  13.755  27.054  0.1491 -0.1950 -0.1014
49495W        W92589  33.989  13.119  23.941  0.4955 -0.1895  0.0689
49496W        W92590  33.033  13.108  25.974  0.0721 -0.0915  0.0307
49497W        W92591   0.059   9.913  26.755  0.2226 -0.2166 -0.2446
49498W        W92592   0.043  14.089  27.420  0.1104  0.4097 -0.1570
49499W        W92593  33.452  12.196  27.679 -0.1042 -0.0217 -0.1341
49500W        W92594  33.652  10.653  25.890 -0.0567  0.1860 -0.2566
49501W        W92595  33.993  11.580  23.847 -0.4339  0.0211  0.1640
49502W        W92596  34.621  13.815  24.414  0.1450 -0.0199 -0.2446
49503W        W92597  32.658  12.650  25.627  0.0541  0.0994  0.0602
49504W        W92598  34.594  14.923  26.384  0.0225  0.0232 -0.1762
49505W        W92599  32.194  11.492  24.147 -0.1820  0.1660  0.3008
49506W        W92600  34.412  13.019  25.861 -0.2133  0.1695 -0.0396
49507W        W92601   0.437  11.809  26.991 -0.2081 -0.0034 -0.1039
49508W        W92602   0.663  10.324  25.483  0.0470 -0.2992  0.0815
49509W        W92603  31.213  14.035  24.988  0.2162 -0.2544  0.2100
49510W        W92604  33.886  15.666  26.580 -0.2930  0.1787 -0.1832
49511W        W92605  32.521  14.442  26.537 -0.1690 -0.0991  0.2457
49512W        W92606  32.898  13.484  25.516  0.1317  0.3343  0.1128
49513W        W92607   0.088  12.696  25.707  0.0480  0.0038 -0.0825
49514W        W92608  32.724  11.293  27.146 -0.0317 -0.1866  0.0100
49515W        W92609  33.885  12.615  26.476  0.0128  0.4828  0.0908
49516W        W92610  33.449  13.123  27.349 -0.2319  0.3521  0.0171
49517W        W92611  33.686   9.888  25.323 -0.1021 -0.0225  0.0061
49518W        W92612  31.999  13.967  26.823 -0.0008 -0.2516 -0.4309
49519W        W92613  32.774  11.665  27.603 -0.0538  0.0132 -0.2901
49520W        W92614  33.140  14.080  23.797 -0.3908  0.0651 -0.2086
49521W        W92615  33.402  11.880  23.648 -0.1921 -0.1022 -0.2587
49522W        W92616  33.796  14.064  26.210 -0.0421 -0.1608 -0.2219
49523W        W92617  33.285  14.419  24.628 -0.0661 -0.1942  0.0570
49524W        W92618  32.335  14.060  25.585 -0.2231  0.5709 -0.0593
49525W        W92619  33.192  10.967  25.044  0.0204  0.1497  0.1659
49526W        W92620   0.483  10.172  24.201 -0.2018 -0.1496  0.4803
49527W        W92621  32.803  13.470  27.837 -0.1578 -0.1771 -0.0642
49528W        W92622  33.883  14.152  27.988  0.1534  0.0255  0.0082
49529W        W92623  31.602  12.097  24.830 -0.1250  0.1495  0.0707
49530W        W92624  34.346  12.605  25.494 -0.2336  0.0270 -0.3909
49531W        W92625  33.845  12.526  24.577 -0.3189 -0.1125 -0.0513
49532W        W92626  33.392  13.215  25.218  0.4637 -0.0384  0.0794
49533W        W92627  33.163  13.843  25.356 -0.0577 -0.1120  0.2273
49534W        W92628  33.872  13.726  26.608 -0.0677 -0.2874  0.0078
49535W        W92629  32.469  10.430  24.566  0.0101 -0.3452  0.1775
49536W        W92630  33.931  12.363  27.509  0.3542 -0.0260  0.0411
49537W        W92631  33.274  12.096  27.009 -0.0745  0.0349 -0.0837
49538W        W92632  33.385  12.444  26.358 -0.1497  0.0044  0.2910
49539W        W92633   0.215  10.972  24.534 -0.0016  0.0100 -0.0522
49540W        W92634  33.130  10.368  25.936 -0.2029  0.0223  0.1465
49541W        W92635  32.398  12.045  25.254  0.2992  0.1902  0.1602
49542W        W92636   0.093  12.498  27.075 -0.4125 -0.1863  0.1309
49543W        W92637  33.452  10.516  24.148 -0.1580 -0.0132 -0.2417
49544W        W92638  34.273  15.129  23.177  0.1743 -0.0848 -0.0437
49545W        W92639  32.673  11.085  26.686  0.0422 -0.2354  0.3302
49546W        W92640  34.049  12.091  24.863 -0.2128 -0.3007 -0.0221
49547W        W92641  33.650  12.110  26.642 -0.0743  0.3003  0.0887
49548W        W92642  31.987  15.119  25.610  0.1907 -0.1582  0.1097
49549W        W92643  34.590  14.632  23.812  0.1232  0.0634  0.4305
49550W        W92644  33.401  12.931  26.255  0.1157  0.0816  0.0802
49551W        W92645   0.533  14.476  26.515  0.0409  0.0326 -0.2919
49552W        W92646  32.372  12.544  25.251 -0.1088 -0.1185  0.2117
49553W        W92647   0.402  12.813  27.519  0.1989 -0.1467 -0.1089
49554W        W92648  33.880  13.275  25.543  0.1773  0.2147 -0.0763
49555W        W92649   0.741  14.568  24.438 -0.1124 -0.3228 -0.0315
49556W        W92650   0.515  12.230  25.189 -0.0834 -0.1169 -0.1655
49557W        W92651  33.988  11.074  25.735 -0.2332 -0.0446 -0.2014
49558W        W92652  34.609  12.958  27.407 -0.0713  0.1043  0.1185
49559W        W92653  32.385  13.167  25.867  0.0178  0.1779  0.0086
49560W        W92654  32.191  11.938  23.366  0.2424 -0.2245 -0.0822
49561W        W92655  32.845  12.282  26.180 -0.0926  0.3297  0.0327
49562W        W92656   0.260  11.673  27.860 -0.2204 -0.4975  0.1214
49563W        W92657  33.372  13.222  27.827 -0.1880  0.0546 -0.0976
49564W        W92658  33.417  12.486  25.519 -0.0994  0.1390 -0.0564
49565W        W92659  33.473  10.104  23.792  0.0839  0.2105 -0.1996
49566W        W92660  33.183  11.369  27.769  0.0210  0.5585 -0.3427
49567W        W92661  33.524  10.578  26.374 -0.0271  0.0047 -0.2477
49568W        W92662  34.325  10.117  24.409 -0.0033 -0.2132  0.0254
49569W        W92663  31.872  13.402  24.826  0.1389 -0.0819  0.0246
49570W        W92664  33.851  12.024  27.106  0.1521 -0.0310  0.1551
49571W        W92665  34.028  11.115  27.828  0.3259  0.0412 -0.0590
49572W        W92666  32.720  11.257  24.127 -0.3661 -0.0052  0.1348
49573W        W92667   0.727  11.929  26.551  0.1209 -0.0471 -0.1424
49574W        W92668  33.654  12.456  27.023  0.1813  0.1905 -0.1178
49575W        W92669   0.848  13.374  25.972  0.1463  0.0709  0.1357
49576W        W92670  32.833  10.786  27.075 -0.1537 -0.1146  0.0451
49577W        W92671  33.806  13.405  27.026 -0.0237 -0.2905  0.1062
49578W        W92672  33.292  11.174  26.923 -0.0095  0.2936  0.0491
49579W        W92673  32.881  14.480  28.106  0.1478  0.1603 -0.1467
49580W        W92674  33.137  11.541  24.177  0.0652  0.2787  0.0772
49581W        W92675  33.136  12.577  26.891  0.0729  0.0552  0.0314
49582W        W92676  34.333  11.933  23.936  0.1185 -0.0117  0.0216
49583W        W92677   0.240  12.187  26.629  0.1198 -0.0724 -0.0707
49584W        W92678  33.665  12.848  24.207  0.0457  0.1219  0.0059
49585W        W92679   0.604  13.885  27.396 -0.1710 -0.1171 -0.1413
49586W        W92680  34.122  11.473  26.145 -0.2579 -0.4000  0.1310
49587W        W92681  33.541  12.869  24.658 -0.0601 -0.1036  0.1772
49588W        W92682  33.633  11.586  24.294 -0.0940 -0.0256 -0.0741
49589W        W92683  34.511  13.871  26.732 -0.4454 -0.0458 -0.1137
49590W        W92684  34.232  14.627  26.762  0.1098  0.0621  0.6856
49591W        W92685   0.124  13.120  31.050 -0.1120  0.3205  0.2278
49592W        W92686  33.224  12.551  27.370  0.3108  0.4873 -0.1228
49593W        W92687  33.479  11.839  29.257  0.0576  0.0449 -0.2061
49594W        W92688  34.365  10.187  31.787  0.2638  0.2295  0.0341
49595W        W92689  34.576  13.121  29.468  0.2287 -0.1845  0.2599
49596W        W92690  34.317  14.624  29.720  0.1729 -0.0075  0.1120
49597W        W92691  33.620   9.898  27.825  0.0115  0.2061  0.1352
49598W        W92692  34.203  11.734  30.028 -0.2297  0.0671 -0.0957
49599W        W92693  32.116  11.971  28.046  0.0151  0.1134 -0.1813
49600W        W92694  33.903  13.758  29.625 -0.2208 -0.0230 -0.3631
49601W        W92695   0.395  12.935  28.704 -0.0037  0.2298 -0.0968
49602W        W92696  33.903  13.897  30.406 -0.0544  0.1064 -0.0760
49603W        W92697   0.540  14.616  27.953  0.0550 -0.0787 -0.0904
49604W        W92698  33.784  11.111  26.739  0.4447 -0.1393  0.0710
49605W        W92699  32.921  13.946  28.887  0.2392 -0.1300  0.1151
49606W        W92700  34.432  14.043  30.577  0.1475  0.0017  0.0007
49607W        W92701  34.188  14.533  27.885 -0.6373 -0.1734 -0.5512
49608W        W92702   0.566  14.644  29.310 -0.1411  0.1921  0.1512
49609W        W92703  33.010  13.415  28.768 -0.1386 -0.0509 -0.1374
49610W        W92704   0.837  14.972  27.748 -0.0788  0.0829 -0.0636
49611W        W92705  34.136  12.059  28.296  0.0632 -0.0448 -0.0021
49612W        W92706  33.466  13.954   0.916  0.1828  0.1554  0.3141
49613W        W92707  32.394  13.677  29.859 -0.0146 -0.0701 -0.1739
49614W        W92708  34.023  15.147  31.204 -0.1311 -0.2531  0.6804
49615W        W92709   0.240  14.823  27.294 -0.2218  0.1303  0.1156
49616W        W92710  34.236  13.495  30.421  0.1880 -0.0617 -0.1234
49617W        W92711  34.358  12.520  31.242  0.2628 -0.3514  0.2321
49618W        W92712  33.109  13.644  29.273 -0.1978  0.2988 -0.1346
49619W        W92713  34.145  13.650  27.754 -0.2189 -0.1463  0.2117
49620W        W92714   0.732  11.850  28.055  0.0465  0.1129 -0.0666
49621W        W92715  34.209   8.868  27.390  0.1684  0.0899  0.0359
49622W        W92716  33.372  15.153  29.746  0.0177 -0.0797 -0.2590
49623W        W92717  33.243  10.936  29.382 -0.2318  0.2092  0.0363
49624W        W92718  33.717  14.178  30.837 -0.1360 -0.0521  0.0795
49625W        W92719  33.668  13.318  29.481 -0.0443  0.3118 -0.0502
49626W        W92720  32.373  12.662  28.914  0.0250 -0.1821  0.0483
49627W        W92721  33.150  13.323  30.265 -0.1250 -0.0603 -0.2378
49628W        W92722  32.099  14.655  31.062 -0.0669 -0.1712  0.0223
49629W        W92723  34.069  10.882  28.794 -0.2430 -0.2415 -0.1143
49630W        W92724  31.257  12.824  31.260 -0.1779 -0.0814  0.4555
49631W        W92725  33.694  12.750  28.960  0.1016 -0.1643  0.2374
49632W        W92726   0.034  14.637  26.811  0.1320  0.2985 -0.0444
49633W        W92727  34.448  13.238  27.792 -0.3569  0.1347 -0.1875
49634W        W92728  33.157  16.399  30.123  0.1779 -0.0065  0.3882
49635W        W92729  33.983  11.941  31.235 -0.2212  0.1229 -0.0357
49636W        W92730  33.680  15.097  31.885  0.2867  0.0088 -0.0168
49637W        W92731  32.740  14.335  28.641 -0.2956  0.1112  0.0120
49638W        W92732  32.526  11.593  29.142 -0.2834  0.2234  0.1147
49639W        W92733  32.676  13.790  29.348  0.0514 -0.4217  0.0789
49640W        W92734  33.587  13.050  30.041  0.0778 -0.1507 -0.1282
49641W        W92735  34.527  14.145  29.690  0.2339 -0.1372 -0.1441
49642W        W92736  34.553  13.273  28.793 -0.0559 -0.1872  0.2094
49643W        W92737  34.489  13.891  29.261  0.1748  0.5720 -0.0366
49644W        W92738  33.275  13.020  29.636 -0.1596 -0.0470  0.1621
49645W        W92739  32.303  10.653  29.363  0.0119 -0.0334  0.0176
49646W        W92740  33.575  12.478  31.545 -0.1404 -0.0293 -0.0551
49647W        W92741  32.140  13.545  30.312 -0.1341 -0.2014 -0.0866
49648W        W92742  34.047   9.719  28.530  0.0688 -0.0096  0.1571
49649W        W92743   0.193  13.455  29.211 -0.1581  0.1799 -0.2255
49650W        W92744  33.316  12.960  28.601 -0.1392  0.1028 -0.0058
49651W        W92745  34.003  13.093  29.767 -0.0216 -0.2029 -0.2766
49652W        W92746  33.781  12.700  28.488  0.0246  0.0216 -0.0076
49653W        W92747  34.594  15.266  28.600  0.1004 -0.0564  0.0451
49654W        W92748  34.021  14.303  29.012 -0.3676 -0.2947 -0.0402
49655W        W92749   0.603   9.843  27.443 -0.3796 -0.1716 -0.0322
49656W        W92750  32.509  14.917  31.254  0.3365  0.0780  0.0126
49657W        W92751  33.648  10.848  27.641 -0.0648  0.2038  0.2698
49658W        W92752  34.115  13.653  28.836  0.0128 -0.2163  0.0500
49659W        W92753  32.753  13.019  28.786 -0.1587 -0.0208 -0.1897
49660W        W92754   0.646  13.990  29.180 -0.1215 -0.3360 -0.4038
49661W        W92755  33.765  15.180  30.697 -0.2092 -0.3191  0.2258
49662W        W92756  34.574  13.715  28.648  0.1822 -0.1190 -0.1606
49663W        W92757  33.105  14.572  30.438  0.1198 -0.1261  0.2311
49664W        W92758  32.728  13.301  31.972 -0.3586 -0.1070 -0.2081
49665W        W92759   0.709  11.986  30.210 -0.2564 -0.3735  0.1087
49666W        W92760   0.696  13.454  29.037 -0.0071  0.2044 -0.0394
49667W        W92761  32.425  14.140  30.367 -0.0609 -0.2471  0.0638
49668W        W92762   1.266  11.705  30.536 -0.2218  0.0451 -0.1490
49669W        W92763   0.277  14.186  27.971  0.3872  0.3086 -0.0822
49670W        W92764  33.032  14.854  27.022 -0.0872 -0.1898  0.2438
49671W        W92765  34.244  10.464  29.022 -0.2516  0.2448  0.0729
49672W        W92766   0.319  13.899  28.461  0.3084 -0.2953  0.2391
49673W        W92767   1.109  12.542  30.733  0.5523 -0.2868  0.1479
49674W        W92768  31.848  12.679   0.426 -0.0986 -0.4118  0.4466
49675W        W92769  34.283  13.838  30.040  0.1491  0.0838  0.0593
49676W        W92770   0.033  12.072  29.301 -0.0766  0.1164  0.0421
49677W        W92771  33.809  15.371  27.462 -0.1954 -0.2848  0.2119
49678W        W92772   0.443  14.325  27.015 -0.0116 -0.2901 -0.2073
49679W        W92773  33.834  12.143  30.040 -0.0616 -0.3235 -0.1135
49680W        W92774   0.235  15.731  28.719  0.0356 -0.1066  0.4298
49681W        W92775  33.900  13.910  27.025  0.2574 -0.2984  0.0692
49682W        W92776  34.172  13.469  29.319  0.0917 -0.0952  0.2813
49683W        W92777  32.941  14.932  29.505 -0.0621  0.0502 -0.2710
49684W        W92778   0.683  12.846  27.949 -0.0481 -0.3949  0.0635
49685W        W92779  30.973  11.302  28.308  0.3076  0.0476 -0.1243
49686W        W92780  33.305  12.253  31.202  0.3043  0.1492 -0.0036
49687W        W92781  34.296  11.601  29.146 -0.1431  0.2226 -0.0370
49688W        W92782  34.202  14.721  28.695  0.0106  0.0306 -0.0001
49689W        W92783  33.736  13.330  31.355 -0.0965 -0.0499 -0.1039
49690W        W92784  33.617  11.406  27.923 -0.0893 -0.2172 -0.0044
49691W        W92785  34.166  12.928  28.664  0.2526 -0.0589  0.1490
49692W        W92786  32.954  14.144  29.339 -0.1409 -0.1938  0.1767
49693W        W92787  34.107  12.834  28.125  0.1013 -0.0323  0.1558
49694W        W92788  33.498  14.111  29.782 -0.1365  0.0892 -0.0058
49695W        W92789  32.455  11.424  31.643 -0.3602 -0.0692  0.2065
49696W        W92790  34.515  11.795  28.455 -0.1533 -0.3207 -0.2127
49697W        W92791  32.481  12.093  29.300 -0.3145  0.2681  0.0593
49698W        W92792  34.630  12.762  28.736  0.0561 -0.0518  0.0473
49699W        W92793  33.999  14.271  29.685 -0.2783 -0.2880  0.0756
49700W        W92794  34.271  15.210  31.760  0.0491 -0.0897 -0.1380
49701W        W92795   1.047  12.499  29.125  0.0307 -0.2494 -0.0903
49702W        W92796  32.157  14.056  29.536  0.2447 -0.1217 -0.0836
49703W        W92797  34.662  14.778  28.601 -0.0217 -0.3412  0.1138
49704W        W92798   0.394  12.403  30.065  0.2893 -0.0472  0.2318
49705W        W92799   0.569  13.677  28.120 -0.0932 -0.2671  0.2119
49706W        W92800   0.038  14.528  27.641 -0.2477 -0.2851  0.1057
49707W        W92801  32.779  14.695  30.832 -0.1151 -0.3792 -0.0942
49708W        W92802  34.282  12.019  27.401 -0.0138  0.1084 -0.1034
49709W        W92803   0.237  10.443  29.283 -0.0889 -0.1162 -0.2777
49710W        W92804  32.554  13.273  30.060 -0.2279 -0.2822  0.3068
49711W        W92805  33.934  13.840  31.391 -0.2626  0.2110 -0.0625
49712W        W92806  33.393  10.357  28.434 -0.0879 -0.0875  0.1135
49713W        W92807  34.362  12.708  29.757  0.0156 -0.2842 -0.2190
49714W        W92808   0.278  13.857  29.449  0.0583 -0.0424 -0.1807
49715W        W92809  32.678  14.187  30.855 -0.0069 -0.0680  0.0042
49716W        W92810   1.554  13.067  28.996  0.1912  0.3082  0.1353
49717W        W92811  34.165  12.943  29.281  0.1904 -0.0157 -0.0902
49718W        W92812  33.809  12.473  30.408 -0.2608 -0.3256  0.0294
49719W        W92813  33.676  12.047  31.974 -0.0348  0.1029  0.1081
49720W        W92814  32.982  12.529  31.456 -0.0449 -0.0791 -0.0781
49721W        W92815  32.995  11.600  29.003 -0.1663  0.1618 -0.1063
49722W        W92816  34.196  12.364  27.903  0.1162  0.0141 -0.0583
49723W        W92817   0.980  14.488  27.677  0.2766  0.1795 -0.1602
49724W        W92818  31.986  11.420  30.599 -0.3079 -0.2370  0.0479
49725W        W92819  33.019  14.346   0.062  0.0870  0.0656 -0.1844
49726W        W92820  34.246  13.259  27.245  0.3791  0.2948 -0.1099
49727W        W92821  33.642  13.076  28.226  0.0994 -0.1683 -0.1599
49728W        W92822  34.375  14.381  30.122 -0.2254  0.2440  0.0932
49729W        W92823   0.844  10.744  27.133 -0.1912 -0.1611  0.0807
49730W        W92824  33.616  14.277  29.264  0.0398 -0.0297 -0.1769
49731W        W92825   0.227  14.290  29.265  0.1032 -0.1331  0.0687
49732W        W92826  31.895  13.136  30.718 -0.0351  0.3766 -0.0325
49733W        W92827  33.700  15.053  28.648 -0.2291  0.1644 -0.0118
49734W        W92828  34.491  11.217  29.629  0.1267 -0.0473  0.3463
49735W        W92829  32.555  13.589  28.876 -0.3317 -0.0749 -0.2878
49736W        W92830  34.095  15.214  29.497  0.1114  0.1830  0.1731
49737W        W92831  34.344  10.687  31.776 -0.1723 -0.2196  0.1768
49738W        W92832  33.293  11.793  27.964  0.0099  0.0313  0.1918
49739W        W92833  31.680  14.686  31.334 -0.2986 -0.0002 -0.1497
49740W        W92834  33.649  13.714  29.193 -0.0308 -0.3814 -0.1353
49741W        W92835  34.464  15.002  29.231 -0.1233  0.0856 -0.0621
49742W        W92836   0.347  12.684  28.267  0.0802  0.2359 -0.0790
49743W        W92837  32.486  15.704  29.900 -0.2504 -0.3916  0.0982
49744W        W92838  32.495  15.114  27.545 -0.3811 -0.0647  0.1884
49745W        W92839  33.619  14.059  28.392  0.0182  0.1597 -0.1399
49746W        W92840   0.569  13.254  29.492  0.0162  0.0359 -0.0290
49747W        W92841  34.539  12.429  27.541 -0.0381  0.4480  0.0473
49748W        W92842   0.028  12.239  30.599 -0.5396 -0.0634 -0.3932
49749W        W92843  33.502  14.212  30.383  0.1475  0.2074  0.0672
49750W        W92844  34.517  12.353  28.340  0.1149  0.2215  0.1457
49751W        W92845  33.448  12.305  29.121 -0.0955  0.0891  0.2053
49752W        W92846   0.067  12.813  26.259 -0.2161 -0.0858 -0.0396
49753W        W92847  34.570  14.482  28.216  0.4041 -0.0655  0.0864
49754W        W92848  32.899  13.388  29.726  0.2009 -0.0753 -0.4297
49755W        W92849   0.244  16.015  28.054 -0.1634 -0.0130  0.1725
49756W        W92850  31.703  11.798  28.689  0.3653  0.1983  0.2899
49757W        W92851  33.263  12.531  29.570  0.0736 -0.1979 -0.1871
49758W        W92852  33.632  12.764  27.691 -0.2703 -0.2400  0.3853
49759W        W92853  33.402  13.725  30.373 -0.1103  0.3055 -0.0389
49760W        W92854   1.510  12.350  27.392 -0.2487 -0.0349 -0.1095
49761W        W92855  32.127  10.965  30.055 -0.1221 -0.2756  0.0264
49762W        W92856  33.130  13.892  28.397 -0.0174  0.0842  0.0810
49763W        W92857  33.849  12.640  29.900 -0.0061 -0.2605 -0.1152
49764W        W92858  32.143  11.683  29.619 -0.2695  0.1457  0.1338
49765W        W92859  34.431  14.747  27.252 -0.1532  0.1635  0.1392
49766W        W92860  33.599  11.860  30.348 -0.0362  0.0983 -0.0808
49767W        W92861  34.541  10.611  28.382 -0.1865 -0.1074 -0.3802
49768W        W92862  32.716  13.528  28.378 -0.2353  0.0819 -0.0326
49769W        W92863  32.766  14.730  29.100  0.0037 -0.1685  0.1379
49770W        W92864   0.245  13.843  27.037  0.1876  0.0968  0.2430
49771W        W92865  34.122  13.656  30.908 -0.2117  0.0865  0.2160
49772W        W92866  33.065  15.582  31.264 -0.1188  0.1481  0.0766
49773W        W92867  34.605  13.021  28.335  0.2222  0.1130 -0.1094
49774W        W92868   0.619  14.198  31.293 -0.1507  0.1065  0.1417
49775W        W92869   0.689  14.295  29.607  0.0265 -0.2375  0.3412
49776W        W92870   0.341  15.080  27.790  0.3486 -0.4173 -0.1169
49777W        W92871   0.132  12.246  28.822 -0.1408  0.1634 -0.1312
49778W        W92872  32.286  13.160  29.092 -0.0046  0.3551 -0.0665
49779W        W92873  32.611  13.858  31.193  0.0575  0.0681  0.1335
49780W        W92874  33.277  12.460  28.679 -0.1908 -0.2107 -0.1211
49781W        W92875  33.686  14.089  27.563  0.0430  0.0657 -0.2049
49782W        W92876  33.874  13.262  28.969  0.2015  0.1314  0.2097
49783W        W92877   1.878  10.024   0.465  0.0588  0.1474 -0.2905
49784W        W92878  33.312  12.573  30.096  0.3485 -0.0193 -0.0407
49785W        W92879  32.870  13.167  29.269 -0.0444  0.1125 -0.1906
49786W        W92880  34.126  11.589  28.201 -0.1691 -0.0692  0.1518
49787W        W92881  34.103  12.435  28.813 -0.0069 -0.2909 -0.0862
49788W        W92882  31.419  11.407  29.142 -0.0110  0.0590  0.0091
49789W        W92883  33.836  10.130  28.230  0.0548 -0.1077  0.0610
49790W        W92884  32.307  12.941  26.579 -0.2304  0.0515 -0.0189
49791W        W92885  33.198  12.934   0.714  0.2279  0.1878 -0.1609
49792W        W92886  34.463  12.051  30.990 -0.1729  0.0521  0.1116
49793W        W92887  33.523  11.670  26.928 -0.2955 -0.1973 -0.1068
49794W        W92888  34.587  12.565  29.182  0.0417 -0.0280 -0.0855
49795W        W92889  32.993  14.108  30.433 -0.1648 -0.2151 -0.0231
49796W        W92890  34.085  14.862  30.378 -0.1024  0.2117  0.0443
49797W        W92891  32.641  11.246  29.885  0.0549  0.1596  0.1712
49798W        W92892  34.494  14.942  31.030  0.2904 -0.0610 -0.1377
49799W        W92893   0.519  11.933  31.700 -0.1382  0.5212 -0.1453
49800W        W92894  34.084  14.402  30.493 -0.0963 -0.0000  0.1718
49801W        W92895   0.231  11.245  29.079 -0.2023  0.3227  0.1040
49802W        W92896  32.858  12.859  29.885 -0.3097 -0.0855  0.0941
49803W        W92897   2.187  12.373  29.032 -0.1633  0.1979  0.2352
49804W        W92898   1.059  13.447  30.189 -0.1818 -0.0284  0.0100
49805W        W92899   0.282  13.149  28.028  0.0714 -0.1246 -0.0116
49806W        W92900   1.913  13.770  29.789  0.0007 -0.4377 -0.0469
49807W        W92901  33.937  11.951  29.138 -0.1054 -0.0929  0.0364
49808W        W92902   0.795  13.684  28.550  0.0812 -0.1121  0.0279
49809W        W92903  34.613  12.262  30.117  0.1327  0.0542  0.0658
49810W        W92904  33.728  12.302  29.558 -0.1215 -0.0522 -0.5275
49811W        W92905  33.601  16.037  29.911  0.1129 -0.0617 -0.3899
49812W        W92906  33.568  12.874  30.488 -0.1160  0.1563  0.0285
49813W        W92907  32.618  14.419  31.316 -0.0441  0.0640  0.3080
49814W        W92908   0.072  12.793  31.408  0.0966  0.0141  0.1310
49815W        W92909  34.031  14.766   0.496 -0.0106 -0.0103  0.0380
49816W        W92910  34.356  11.282   0.595 -0.1037  0.1627  0.4571
49817W        W92911   0.721  10.968  30.747 -0.0562  0.2572 -0.1341
49818W        W92912  34.466  11.844  31.557  0.1168 -0.1905  0.1341
49819W        W92913  31.259  14.837  30.987 -0.0502 -0.2492  0.0939
49820W        W92914  32.767  13.157  31.515 -0.2743 -0.1749 -0.0280
49821W        W92915  31.800  12.019  31.877 -0.0036 -0.0561 -0.1484
49822W        W92916  31.681  12.281  31.495  0.0543  0.0318 -0.2551
49823W        W92917  34.591  10.712   0.696  0.1022  0.1723  0.0065
49824W        W92918  32.856  14.709   0.371  0.0032 -0.0372  0.0903
49825W        W92919  34.615  11.060   1.227  0.3273 -0.0418  0.1351
49826W        W92920  30.507  13.187  30.096 -0.0045  0.0166 -0.0360
49827W        W92921  33.255  13.060  31.354  0.0886 -0.1592  0.1991
49828W        W92922  33.644  12.944  31.776 -0.0788 -0.0322  0.1936
49829W        W92923  33.860  13.505  30.038  0.0422 -0.3187  0.2585
49830W        W92924  34.336  11.831   0.601  0.4536 -0.3001 -0.0180
49831W        W92925  32.283  11.932  31.460  0.1765 -0.1902 -0.1322
49832W        W92926  32.614  12.709  31.965 -0.0585 -0.0295 -0.2438
49833W        W92927  33.125  13.794   0.452 -0.2830 -0.0814 -0.2606
49834W        W92928  34.503  13.757  31.532  0.1711  0.2268 -0.0996
49835W        W92929  34.139  10.911   0.856 -0.0326  0.1067  0.0361
49836W        W92930  33.438  14.164  31.278  0.3935  0.1582 -0.1229
49837W        W92931  33.540  12.773  31.079  0.2887  0.4318 -0.1289
49838W        W92932   0.875  12.259  31.974  0.2788 -0.2415 -0.1111
49839W        W92933  33.790  11.144  30.981 -0.1638 -0.0281 -0.0811
49840W        W92934  31.737  14.377  30.264  0.1006 -0.1220  0.1663
49841W        W92935  34.177  10.263  31.259 -0.1246  0.0064  0.3370
49842W        W92936  34.490  13.614  29.662 -0.0057 -0.0948 -0.0925
49843W        W92937  34.027  11.432   1.736  0.0845  0.0595 -0.1173
49844W        W92938  33.819  16.033  31.687 -0.2708 -0.1289 -0.1742
49845W        W92939  34.066  15.677  31.045  0.5711 -0.1871  0.1666
49846W        W92940  33.427  13.725  31.514 -0.1673 -0.1984  0.1064
49847W        W92941  33.180  14.291  30.875  0.1063  0.0279  0.2522
49848W        W92942  33.024  12.969  30.578 -0.2820 -0.0666 -0.0877
49849W        W92943  30.970  13.193   0.225 -0.1950 -0.1838 -0.1958
49850W        W92944   0.297  11.004   0.529  0.1614  0.0394 -0.2227
49851W        W92945  32.521  16.645  20.116 -0.2178  0.2783 -0.1570
49852W        W92946  33.659  15.057  16.745  0.0200  0.0493 -0.0272
49853W        W92947  32.761  15.064  17.256  0.0861  0.0472  0.0976
49854W        W92948  33.036  15.610  19.079  0.0414  0.2144  0.1185
49855W        W92949  33.100  14.036  18.521  0.1172 -0.1958  0.0178
49856W        W92950  33.288  16.306  18.550 -0.1447 -0.0527  0.1111
49857W        W92951  33.971  14.422  16.451 -0.1741  0.1729  0.0341
49858W        W92952  32.245  14.912  17.255 -0.0314  0.0464  0.4083
49859W        W92953  32.753  17.164  17.897 -0.0322  0.0136 -0.0687
49860W        W92954  32.446  14.939  18.934 -0.2864 -0.3944 -0.2644
49861W        W92955  33.597  15.854  17.683 -0.2063 -0.0596 -0.2390
49862W        W92956  33.445  13.831  18.808 -0.1436  0.0385 -0.0967
49863W        W92957   0.592  17.187  17.076  0.0773 -0.1548 -0.1209
49864W        W92958  34.080  16.397  16.680  0.4450 -0.2906  0.1436
49865W        W92959  33.425  15.288  18.297  0.0883 -0.0603  0.0967
49866W        W92960  33.513  15.505  19.318  0.0590 -0.3158 -0.0325
49867W        W92961   1.518  18.039  17.831 -0.0769 -0.0996  0.2805
49868W        W92962   1.115  18.648  18.998 -0.0027 -0.0002 -0.2737
49869W        W92963  30.873  17.180  18.841  0.1984  0.2971  0.0732
49870W        W92964  31.142  18.278  17.320  0.2366 -0.1054  0.1614
49871W        W92965  33.815  17.281  17.097 -0.1651 -0.2910 -0.1009
49872W        W92966  34.119  17.297  20.287 -0.0434  0.0559  0.2065
49873W        W92967  33.353  16.439  16.816 -0.3132 -0.1296  0.1298
49874W        W92968  32.584  17.786  19.009  0.1888 -0.2421  0.1878
49875W        W92969  34.150  17.633  16.846  0.0238  0.0036 -0.1364
49876W        W92970  33.842  17.409  17.902  0.0398 -0.2872  0.0240
49877W        W92971  33.663  16.968  19.375  0.0691  0.1810  0.0503
49878W        W92972  33.814  18.346  18.828  0.2234 -0.4083 -0.1096
49879W        W92973  33.589  17.874  17.060 -0.2247  0.1004  0.2242
49880W        W92974   0.373  15.577  16.095  0.0285  0.3340  0.0334
49881W        W92975  34.454  14.156  17.117  0.2230 -0.3328 -0.1733
49882W        W92976  34.406  17.273  17.066  0.5041  0.2582  0.0833
49883W        W92977  33.946  16.149  19.120  0.1714  0.0315 -0.0995
49884W        W92978  33.364  17.373  18.622  0.0597  0.1727  0.3851
49885W        W92979  33.064  16.366  17.833  0.1519 -0.1603  0.1715
49886W        W92980  32.312  15.166  17.780 -0.2149 -0.2912 -0.0205
49887W        W92981  32.332  16.494  19.322 -0.0346  0.1338  0.2757
49888W        W92982  33.321  15.148  19.996  0.1615 -0.0636 -0.1124
49889W        W92983  33.126  14.590  16.562 -0.0186 -0.0241  0.3450
49890W        W92984  31.582  16.666  18.688  0.1275  0.0405 -0.0079
49891W        W92985  33.305  17.065  18.098 -0.0735  0.0329 -0.3288
49892W        W92986   0.134  18.358  17.442 -0.0986  0.0782  0.1194
49893W        W92987  34.001  15.860  16.807 -0.3612  0.2165 -0.0276
49894W        W92988  33.304  17.047  19.065  0.1165  0.1418 -0.1721
49895W        W92989  33.008  14.213  19.636 -0.1559  0.0091  0.1862
49896W        W92990  34.048  17.023  20.770  0.1207 -0.0927 -0.1438
49897W        W92991  33.735  18.837  16.545  0.0817  0.0758  0.0719
49898W        W92992  31.271  16.704  19.162  0.4354  0.2108 -0.2325
49899W        W92993  33.686  18.201  17.432  0.0555  0.0999 -0.2457
49900W        W92994  33.251  14.429  18.335  0.0854  0.0312  0.1027
49901W        W92995  33.455  16.088  17.257  0.1538  0.1899  0.1578
49902W        W92996  32.291  16.022  19.554  0.0624 -0.0805  0.1355
49903W        W92997  33.133  17.977  17.299 -0.1977 -0.1932  0.0001
49904W        W92998  31.395  17.167  18.921  0.0209  0.2899  0.0333
49905W        W92999  33.084  15.860  17.483 -0.3117 -0.0354 -0.0430
49906W        W93000  32.547  16.137  19.992 -0.0124  0.1909 -0.1555
49907W        W93001  31.465  14.368  16.988  0.3829  0.1922  0.0034
49908W        W93002  31.819  14.727  16.951  0.0662  0.0009 -0.1090
49909W        W93003  34.098  16.557  17.456 -0.0962  0.2614  0.2192
49910W        W93004  31.945  17.782  17.615 -0.1527 -0.1525  0.2266
49911W        W93005  33.393  16.111  20.361 -0.0350  0.3008  0.0779
49912W        W93006  32.944  16.266  17.263 -0.3113 -0.0615  0.1257
49913W        W93007  33.381  20.179  17.760  0.0692  0.0346 -0.0402
49914W        W93008  34.007  18.000  17.810  0.1027  0.1377 -0.1595
49915W        W93009  33.549  14.411  17.447  0.1584  0.0288  0.1616
49916W        W93010  32.385  17.894  20.894 -0.0221 -0.2140 -0.1147
49917W        W93011  33.921  15.310  16.449 -0.1102  0.2871 -0.1451
49918W        W93012  33.638  18.846  17.307 -0.1319 -0.0778 -0.1928
49919W        W93013  32.977  14.795  17.957  0.0926  0.0419 -0.1360
49920W        W93014   1.099  16.568  17.502  0.1095  0.1036  0.1118
49921W        W93015  32.984  16.071  21.895  0.0477  0.0645  0.2116
49922W        W93016  33.016  16.740  17.103 -0.0897  0.0239 -0.0842
49923W        W93017  33.696  17.717  19.397 -0.3976  0.2703 -0.0221
49924W        W93018  32.970  16.038  20.671  0.1602 -0.1509  0.3070
49925W        W93019  33.305  17.946  19.019  0.2065 -0.1969 -0.2255
49926W        W93020   0.247  17.525  18.876  0.0486 -0.0908  0.1251
49927W        W93021  31.579  17.253  18.227  0.2580 -0.0295  0.1370
49928W        W93022  34.504  14.878  18.413 -0.2022 -0.1970  0.0710
49929W        W93023  33.602  16.502  16.345  0.1263 -0.0107 -0.1526
49930W        W93024  32.016  18.215  16.484 -0.3020  0.1347 -0.0088
49931W        W93025  34.156  14.510  20.918  0.1558 -0.2082 -0.0745
49932W        W93026  32.947  15.465  17.063  0.1724 -0.0753 -0.0155
49933W        W93027  33.717  14.740  18.929  0.2818  0.2469 -0.2334
49934W        W93028  32.501  16.888  19.683  0.2718  0.0758 -0.0664
49935W        W93029  31.642  17.104  19.432  0.0492  0.3699  0.0698
49936W        W93030  33.843  14.588  19.446 -0.3698 -0.0499 -0.1332
49937W        W93031  33.182  18.459  16.976  0.1662  0.3043  0.0431
49938W        W93032   0.147  16.442  17.307  0.3557  0.1220  0.0829
49939W        W93033  33.566  14.866  17.183 -0.0238 -0.2130  0.0289
49940W        W93034  33.724  18.230  19.298  0.4172  0.2949 -0.3055
49941W        W93035  33.696  17.322  16.617  0.1887  0.3165 -0.0787
49942W        W93036  33.606  17.661  17.481  0.1411  0.2116  0.4499
49943W        W93037  32.433  17.971  17.304 -0.1174 -0.0735  0.2617
49944W        W93038  33.923  14.941  15.613  0.0971 -0.2593 -0.4368
49945W        W93039  31.931  16.394  17.158  0.1588  0.1568 -0.4020
49946W        W93040  33.333  14.548  19.436 -0.2141  0.2287  0.1405
49947W        W93041  33.177  15.047  19.153  0.0747  0.0237 -0.0825
49948W        W93042  31.684  17.643  18.659  0.0965  0.1141  0.0361
49949W        W93043  33.356  16.652  20.127 -0.1914  0.0015 -0.2198
49950W        W93044  33.132  15.863  16.804  0.2878  0.1642  0.0038
49951W        W93045  33.812  15.577  18.034  0.0658  0.1414 -0.1107
49952W        W93046  33.446  18.082  17.881 -0.1506 -0.1395 -0.1723
49953W        W93047  33.839  15.344  17.145  0.2554  0.0571 -0.0300
49954W        W93048  31.883  17.024  18.872  0.0576  0.0777 -0.2074
49955W        W93049  33.963  15.319  21.376 -0.1554  0.3660 -0.0106
49956W        W93050  34.218  17.102  18.103  0.1529 -0.2239 -0.3087
49957W        W93051  33.204  15.029  17.536 -0.2743  0.2550  0.0877
49958W        W93052  33.881  15.831  17.286 -0.2323  0.0956  0.0156
49959W        W93053  34.045  16.656  19.473 -0.0545  0.1618  0.2372
49960W        W93054  32.752  16.242  19.502 -0.0661  0.0912 -0.3458
49961W        W93055  34.257  15.157  17.476  0.1261  0.2377  0.2230
49962W        W93056  32.442  16.539  18.399  0.2234  0.0435  0.0480
49963W        W93057  33.041  15.673  18.459  0.0897 -0.1777 -0.1304
49964W        W93058  33.452  15.902  18.933 -0.1811 -0.2941  0.1732
49965W        W93059  32.211  17.374  18.009 -0.4319 -0.0181 -0.1187
49966W        W93060  34.212  16.065  16.357 -0.2131 -0.0788 -0.2284
49967W        W93061  32.519  17.624  18.512  0.4101  0.2299 -0.2413
49968W        W93062  34.500  16.364  17.707 -0.3172  0.1444  0.0453
49969W        W93063  34.378  15.455  18.104  0.0177  0.1640  0.2031
49970W        W93064  32.801  17.343  18.878  0.3357 -0.4180  0.0254
49971W        W93065  32.600  16.184  20.935  0.8338 -0.1001  0.0592
49972W        W93066  34.214  15.039  16.066  0.2957 -0.4220 -0.1382
49973W        W93067  32.870  16.258  18.265 -0.1717 -0.0647 -0.0685
49974W        W93068   0.004  17.476  17.427  0.1456  0.0866  0.4135
49975W        W93069  32.047  15.778  18.603 -0.1763  0.0339 -0.0330
49976W        W93070   0.154  14.783  17.663 -0.1802 -0.1452 -0.0063
49977W        W93071  32.898  15.814  17.964 -0.1706  0.0917 -0.1461
49978W        W93072  33.275  14.152  20.993  0.0920  0.0253  0.2511
49979W        W93073  32.871  16.020  18.774 -0.0086  0.0159  0.1967
49980W        W93074  32.573  15.189  21.854 -0.0107  0.2423 -0.4070
49981W        W93075  33.221  14.448  17.019 -0.0290  0.1187 -0.2583
49982W        W93076  34.622  15.146  16.482 -0.1141  0.2395 -0.2398
49983W        W93077  34.162  17.166  16.635 -0.0263  0.1920  0.0843
49984W        W93078  32.157  14.679  18.552 -0.1207 -0.1914  0.0419
49985W        W93079  33.102  17.525  19.191 -0.2342 -0.0122  0.3594
49986W        W93080  33.028  14.591  16.057  0.1663 -0.1337 -0.0316
49987W        W93081  34.541  16.510  16.910 -0.3374  0.2445 -0.0417
49988W        W93082  34.515  17.775  18.729 -0.1571 -0.0238  0.1740
49989W        W93083   0.153  13.817  17.119 -0.1548  0.0191  0.0786
49990W        W93084  33.473  19.018  18.366  0.1167  0.0372  0.1824
49991W        W93085  32.761  16.896  19.178 -0.3530  0.0987  0.2299
49992W        W93086  32.733  16.401  19.013  0.3679  0.1036  0.0452
49993W        W93087   0.061  17.130  17.820 -0.1360  0.0606 -0.2173
49994W        W93088   0.006  17.039  18.856 -0.0919  0.1556 -0.2602
49995W        W93089  32.773  15.261  18.212  0.0733  0.0139 -0.2309
49996W        W93090  33.454  17.928  18.566 -0.1179  0.0492  0.1119
49997W        W93091  32.841  15.409  19.927 -0.1454  0.0265  0.2752
49998W        W93092  33.006  14.236  17.931  0.0094  0.1608  0.2549
49999W        W93093  31.823  17.926  19.544  0.2133  0.0188 -0.0444
50000W        W93094  32.852  16.727  18.086 -0.0758 -0.2271 -0.0304
50001W        W93095  32.290  18.288  16.874  0.1087  0.0335 -0.0907
50002W        W93096  34.338  15.159  16.951  0.1214  0.2214  0.0648
50003W        W93097  33.715  18.606  17.747  0.3179  0.2186  0.1138
50004W        W93098  34.563  17.859  17.108 -0.0964  0.2734 -0.2115
50005W        W93099  34.188  18.231  18.479 -0.0901 -0.2463  0.1896
50006W        W93100  33.474  16.556  18.108 -0.0169  0.1001  0.0671
50007W        W93101  34.417  14.463  17.551 -0.1787 -0.3369  0.1307
50008W        W93102  33.153  16.159  19.202  0.0867  0.0594 -0.0579
50009W        W93103  32.175  17.032  19.287 -0.1529  0.0538 -0.0508
50010W        W93104  32.402  15.477  17.205 -0.0884  0.0294 -0.0002
50011W        W93105  33.301  15.426  17.847 -0.2145  0.3910  0.2813
50012W        W93106   0.576  16.994  16.025  0.0382  0.0394 -0.0323
50013W        W93107  33.100  17.934  18.222  0.3124  0.0793  0.0072
50014W        W93108  32.083  16.905  20.007 -0.2036 -0.3464  0.0466
50015W        W93109  32.595  18.144  18.340  0.1403 -0.0156  0.1534
50016W        W93110  32.734  15.812  16.494  0.0886  0.0108  0.0978
50017W        W93111  33.310  14.859  18.627 -0.1412  0.0456 -0.4301
50018W        W93112  33.841  16.371  17.075  0.0073  0.0073 -0.0385
50019W        W93113  32.369  16.156  18.722  0.0958 -0.1545  0.0665
50020W        W93114  33.625  15.984  16.416  0.3804 -0.0318 -0.0408
50021W        W93115  32.253  14.411  17.310  0.1799 -0.0286  0.3356
50022W        W93116  34.113  18.097  17.144 -0.4305 -0.1338  0.1484
50023W        W93117  32.900  16.714  18.624 -0.0986  0.2234  0.1134
50024W        W93118  33.045  14.571  17.519 -0.1923 -0.3005 -0.1289
50025W        W93119  33.754  16.795  16.758  0.0004 -0.1702 -0.0152
50026W        W93120  33.262  14.378  18.849 -0.2205 -0.3336  0.2607
50027W        W93121  33.560  16.368  17.626  0.1912 -0.0251 -0.0810
50028W        W93122  33.606  16.000  19.510  0.0673 -0.1533  0.1925
50029W        W93123  32.547  18.685  17.083  0.1793  0.2550  0.0310
50030W        W93124  34.618  16.948  16.711  0.0258  0.0875  0.0471
50031W        W93125  34.103  17.675  18.366 -0.1802 -0.0148  0.0924
50032W        W93126  33.817  16.502  19.987 -0.0120  0.2745 -0.1839
50033W        W93127  33.689  16.904  17.792  0.0722  0.3099 -0.1045
50034W        W93128  33.988  17.353  19.463  0.0565  0.3244 -0.3338
50035W        W93129  34.131  17.624  17.324 -0.1737 -0.1322 -0.2745
50036W        W93130  34.192  18.165  16.248  0.3106  0.3734 -0.0348
50037W        W93131  33.921  16.121  18.153 -0.1170  0.0842 -0.2115
50038W        W93132  34.114  15.576  17.639  0.0682 -0.2962 -0.1398
50039W        W93133  33.395  16.838  18.613  0.2624 -0.2256 -0.2073
50040W        W93134  32.723  14.462  17.166  0.1617  0.1545 -0.4720
50041W        W93135  32.705  16.693  17.501  0.0211  0.1718 -0.0219
50042W        W93136  32.570  17.126  18.359 -0.0782  0.0332 -0.1690
50043W        W93137  33.427  13.839  20.552 -0.1896  0.2634  0.0009
50044W        W93138  32.975  15.812  19.659 -0.1237  0.1286 -0.1231
50045W        W93139  32.152  17.755  18.788 -0.0975  0.1928 -0.3025
50046W        W93140  32.552  14.693  16.299  0.0843 -0.2435  0.0975
50047W        W93141  32.302  14.602  16.832  0.0391  0.1356  0.1112
50048W        W93142  32.514  14.842  18.180  0.0954  0.0737  0.0489
50049W        W93143  33.348  13.939  19.267  0.2465 -0.1589 -0.2365
50050W        W93144  33.046  15.375  16.616  0.1614  0.1187  0.0714
50051W        W93145  33.851  14.992  20.052 -0.0177  0.0281  0.1571
50052W        W93146  33.439  14.826  21.915 -0.1554 -0.3122 -0.1288
50053W        W93147  33.166  14.997  16.911 -0.2458  0.1519  0.1761
50054W        W93148  33.794  16.297  18.645  0.0988  0.0286 -0.2377
50055W        W93149  31.855  18.179  18.573  0.3440 -0.2100  0.1492
50056W        W93150  32.981  17.592  19.809 -0.0035  0.0617 -0.0947
50057W        W93151  32.635  14.701  21.275 -0.0971 -0.0274 -0.2029
50058W        W93152  33.838  17.115  18.470  0.0470  0.3363  0.0863
50059W        W93153  32.866  14.134  19.080 -0.3349  0.1599 -0.1033
50060W        W93154  33.429  15.365  18.824 -0.1186  0.3009 -0.0723
50061W        W93155  33.251  13.344  18.563  0.0846  0.1737 -0.1745
50062W        W93156  32.547  15.619  18.528 -0.1410 -0.1967  0.0942
50063W        W93157  33.372  16.027  18.112  0.1059  0.0292 -0.2154
50064W        W93158  33.310  16.230  19.889 -0.1500 -0.2382 -0.0575
50065W        W93159   0.306  16.214  16.865 -0.0055  0.1523  0.1283
50066W        W93160  33.398  18.494  19.654 -0.0130 -0.1435 -0.1302
50067W        W93161  32.990  13.270  18.017 -0.0685 -0.1235  0.2607
50068W        W93162  34.392  15.563  16.584  0.1120  0.3920 -0.0653
50069W        W93163  32.961  17.437  18.294  0.3265  0.3409 -0.2203
50070W        W93164  33.661  15.468  19.768 -0.0650 -0.0144  0.0116
50071W        W93165  32.943  17.806  18.682  0.4542  0.2251 -0.0129
50072W        W93166  32.503  17.577  23.521 -0.2121  0.3272  0.2873
50073W        W93167  33.550  14.578  20.881 -0.0481  0.1070  0.0621
50074W        W93168  32.706  15.635  21.866 -0.0925 -0.3028  0.0087
50075W        W93169  32.093  14.455  23.692  0.0553  0.2153  0.1558
50076W        W93170  33.453  16.922  22.619  0.2464 -0.3788 -0.1646
50077W        W93171  33.538  18.270  23.522  0.0858 -0.0239 -0.0406
50078W        W93172  33.877  13.720  21.507  0.0615 -0.3104  0.0403
50079W        W93173  32.822  15.887  22.708 -0.0224  0.1051  0.2484
50080W        W93174  34.167  16.568  20.922 -0.1837  0.0768  0.0022
50081W        W93175  32.969  16.176  24.442  0.1059  0.0795  0.1751
50082W        W93176  32.945  15.530  22.343  0.0672  0.1246  0.1079
50083W        W93177  33.081  16.779  24.221  0.0071 -0.0368  0.2116
50084W        W93178   1.394  18.787  20.487 -0.1405  0.0540  0.6534
50085W        W93179  33.885  14.921  21.082  0.1993  0.0270 -0.3730
50086W        W93180  32.508  16.592  22.341  0.1862 -0.1509  0.0456
50087W        W93181  32.680  17.194  23.236  0.3193 -0.1874  0.2285
50088W        W93182   0.584  19.018  20.918 -0.4246 -0.0817 -0.2727
50089W        W93183  34.206  18.575  21.080  0.0034  0.3416  0.1697
50090W        W93184  33.181  16.721  22.124  0.3792  0.0154  0.2454
50091W        W93185  32.179  17.880  22.650 -0.0081  0.2205  0.0781
50092W        W93186  32.593  17.409  22.542 -0.2944  0.0548  0.0324
50093W        W93187  32.549  17.794  24.296  0.0265 -0.0447 -0.2634
50094W        W93188  33.574  16.457  19.515  0.0064 -0.2602  0.0741
50095W        W93189  33.845  18.643  22.785 -0.0429  0.0770  0.1986
50096W        W93190   0.818  17.354  19.476 -0.0187 -0.1407  0.2231
50097W        W93191  34.559  17.258  22.027 -0.0477 -0.2750  0.2192
50098W        W93192  33.882  16.200  21.846 -0.0150  0.3130 -0.0462
50099W        W93193  33.644  16.669  21.720  0.0949  0.1284  0.1496
50100W        W93194  34.465  16.255  20.679  0.1870  0.0103 -0.1245
50101W        W93195  33.632  15.419  20.333  0.1816 -0.1182  0.0858
50102W        W93196  33.519  14.633  23.067  0.3813  0.2599 -0.2402
50103W        W93197  32.724  18.305  22.983  0.1455  0.1370  0.1429
50104W        W93198  32.866  15.730  25.413 -0.2310  0.1732 -0.5296
50105W        W93199  32.845  18.221  22.368 -0.0747  0.3101  0.0389
50106W        W93200  32.943  16.432  22.532  0.1932 -0.1905  0.0933
50107W        W93201  32.529  15.736  23.084  0.2144  0.3336 -0.0107
50108W        W93202  33.173  16.038  23.087 -0.1702  0.0727 -0.0603
50109W        W93203  31.522  14.386  24.873  0.1515  0.1805 -0.2037
50110W        W93204  33.601  13.762  21.063  0.0293  0.2267  0.2563
50111W        W93205  33.911  17.884  24.376 -0.1438 -0.1396  0.2532
50112W        W93206  34.004  16.857  23.533 -0.1636  0.0246  0.0783
50113W        W93207  33.222  17.224  20.207  0.1528  0.1709 -0.0439
50114W        W93208  33.462  17.935  19.961 -0.1548 -0.3407 -0.2011
50115W        W93209  33.690  16.872  23.108 -0.1165  0.1261  0.2572
50116W        W93210  31.609  16.672  24.084 -0.2983  0.3694  0.1451
50117W        W93211  33.726  16.091  23.958 -0.1602 -0.0395  0.0943
50118W        W93212  33.363  19.272  19.792 -0.1555  0.0945  0.0229
50119W        W93213  31.496  16.328  21.504 -0.2768 -0.3935  0.1133
50120W        W93214  31.778  17.482  23.800 -0.1701  0.0333 -0.2605
50121W        W93215  32.328  13.977  23.707  0.2354  0.0354 -0.0175
50122W        W93216  34.112  16.147  22.669  0.1572 -0.1933 -0.1036
50123W        W93217  32.733  15.156  24.365 -0.0948 -0.1411  0.1490
50124W        W93218  33.737  17.673  21.981  0.0427 -0.1073  0.1348
50125W        W93219  32.900  16.036  23.891 -0.1606  0.2079 -0.0838
50126W        W93220  32.355  15.728  22.589  0.0826 -0.2083  0.0126
50127W        W93221  33.844  15.779  23.485 -0.2531 -0.4594  0.0149
50128W        W93222  32.185  15.385  23.272 -0.1586 -0.1570  0.0970
50129W        W93223  33.211  15.437  21.097  0.1031  0.1169  0.0897
50130W        W93224   0.403  16.828  20.973  0.1189  0.0277  0.1999
50131W        W93225  34.438  17.091  21.141 -0.0083 -0.4311 -0.2157
50132W        W93226  33.656  16.016  22.926  0.0613  0.1688 -0.2574
50133W        W93227  32.710  16.261  21.437 -0.1925 -0.0426  0.1867
50134W        W93228  31.467  17.595  21.768 -0.1177 -0.1903  0.0886
50135W        W93229  33.793  17.286  21.525  0.0025 -0.0123  0.2584
50136W        W93230  34.515  15.117  20.822 -0.1498 -0.1353  0.4019
50137W        W93231  33.055  17.941  23.680 -0.1125 -0.2096 -0.1187
50138W        W93232  33.132  14.872  21.111  0.0993 -0.1172  0.2716
50139W        W93233  32.929  17.406  20.643  0.2128 -0.1642  0.0201
50140W        W93234  34.335  14.973  21.788  0.0317 -0.0956  0.2060
50141W        W93235  32.836  16.907  21.425 -0.3024 -0.0669 -0.0829
50142W        W93236  31.125  16.710  24.216  0.1223 -0.3089  0.0747
50143W        W93237  32.054  16.603  22.747  0.1088 -0.0076  0.0844
50144W        W93238  33.710  17.139  22.093 -0.2026  0.1126 -0.1227
50145W        W93239  32.392  18.600  24.192 -0.3424 -0.1535  0.2089
50146W        W93240   0.367  17.324  19.790 -0.1307 -0.0705  0.0704
50147W        W93241   0.743  17.873  22.998  0.0315 -0.1461  0.2225
50148W        W93242  32.472  17.276  24.351  0.1559 -0.2304 -0.0771
50149W        W93243  34.551  14.680  23.241  0.3039  0.1280  0.1209
50150W        W93244  34.079  15.130  19.590  0.1615 -0.1649  0.3980
50151W        W93245  32.324  18.366  20.110  0.0223 -0.0243 -0.1036
50152W        W93246   0.255  13.849  23.164 -0.0695 -0.0577  0.3106
50153W        W93247  34.012  16.030  20.982  0.0263  0.0750 -0.0712
50154W        W93248  33.770  15.560  24.049 -0.2009 -0.3411 -0.0224
50155W        W93249  32.246  16.897  23.304  0.2251 -0.1408 -0.3889
50156W        W93250  32.587  18.090  23.437  0.0080  0.0702  0.0168
50157W        W93251   0.626  15.357  24.879  0.2274  0.0705 -0.3237
50158W        W93252  34.530  15.984  21.215  0.0307 -0.1500 -0.4066
50159W        W93253  34.114  16.691  20.354 -0.2904 -0.1832  0.1867
50160W        W93254  34.291  15.439  22.098  0.1230  0.0543 -0.2113
50161W        W93255  32.912  17.912  20.770  0.0536 -0.1922 -0.0658
50162W        W93256  34.237  16.224  20.120  0.0824  0.2529 -0.0776
50163W        W93257  33.610  16.647  20.835  0.2499 -0.2429  0.1350
50164W        W93258  31.774  18.202  23.348  0.2790 -0.0812 -0.0643
50165W        W93259  33.775  14.905  20.565 -0.0590 -0.1492  0.1600
50166W        W93260  33.422  16.135  20.877 -0.1467  0.2314 -0.1394
50167W        W93261  32.466  15.593  23.665  0.0152  0.0029 -0.0067
50168W        W93262  33.788  15.402  22.609  0.1732  0.1184 -0.0852
50169W        W93263  32.384  17.099  23.794  0.2399  0.2157  0.0435
50170W        W93264  32.981  17.194  24.464 -0.2542 -0.0834  0.0363
50171W        W93265  32.535  16.665  21.123 -0.1391 -0.1013 -0.0522
50172W        W93266  34.581  16.816  20.744 -0.2456  0.1633  0.2807
50173W        W93267  31.831  17.605  20.625 -0.0393  0.0607  0.1180
50174W        W93268  34.344  15.840  19.830  0.1607  0.0545  0.2010
50175W        W93269  32.909  17.459  21.546  0.0531 -0.1058 -0.4214
50176W        W93270  33.879  14.186  24.179  0.0622 -0.2515  0.3078
50177W        W93271  34.452  16.478  22.638 -0.2250 -0.1722 -0.2067
50178W        W93272  32.138  16.103  22.356  0.0167  0.2398  0.0895
50179W        W93273  34.459  16.986  22.508  0.0552 -0.0479 -0.1610
50180W        W93274  32.292  16.812  24.309  0.0643 -0.1590  0.1869
50181W        W93275  32.014  17.065  24.656  0.0027 -0.1411 -0.0947
50182W        W93276  34.078  16.415  21.391  0.1781 -0.4395  0.0818
50183W        W93277  32.282  15.952  24.378  0.0803 -0.1030 -0.4165
50184W        W93278  33.150  17.821  21.180  0.1742 -0.2009  0.0957
50185W        W93279   0.203  16.707  21.654  0.0959  0.1354  0.1538
50186W        W93280  32.694  16.635  21.861 -0.0706 -0.4023  0.0672
50187W        W93281  33.879  16.270  20.479 -0.0769 -0.0263 -0.1295
50188W        W93282  32.357  17.526  23.007  0.1525 -0.0855  0.0288
50189W        W93283  33.729  15.690  21.160 -0.0982  0.0622  0.1015
50190W        W93284  32.478  15.157  22.884  0.0967  0.2108  0.1423
50191W        W93285  33.430  15.464  23.599 -0.0390  0.5750  0.2046
50192W        W93286  32.637  15.962  24.766 -0.1190  0.1874 -0.0796
50193W        W93287  33.774  15.800  20.563  0.2341 -0.2539  0.1978
50194W        W93288  34.350  17.590  23.500  0.0793  0.1603 -0.0769
50195W        W93289  33.915  17.011  19.906 -0.0560 -0.1510  0.3633
50196W        W93290  32.699  16.480  24.171 -0.1006 -0.0963  0.0335
50197W        W93291   1.490  17.158  20.314 -0.3294 -0.2131  0.1186
50198W        W93292  34.090  15.939  21.496 -0.3258  0.1586 -0.1553
50199W        W93293  33.508  14.995  23.976 -0.1395  0.3233  0.0318
50200W        W93294  34.508  16.824  23.778 -0.1660 -0.3269 -0.0098
50201W        W93295  32.216  16.899  25.218  0.0141  0.0199  0.1578
50202W        W93296  31.721  16.345  23.715 -0.0660  0.0489 -0.5453
50203W        W93297  32.684  15.788  21.282  0.0229 -0.0243  0.1020
50204W        W93298   1.000  16.608  22.053 -0.0407 -0.0306  0.2683
50205W        W93299  31.443  14.020  23.268  0.1283  0.1260 -0.1033
50206W        W93300  33.233  18.496  24.007  0.2830  0.0094 -0.1948
50207W        W93301  33.631  15.290  20.844  0.0033  0.1170  0.0497
50208W        W93302   0.295  15.356  20.810 -0.0597  0.1348  0.0118
50209W        W93303   0.019  18.105  22.609 -0.0949  0.0046 -0.0914
50210W        W93304  34.125  15.495  20.914  0.1562  0.3302  0.0631
50211W        W93305  31.926  18.199  20.878 -0.4290  0.0164  0.0089
50212W        W93306  33.981  17.782  21.490  0.1011 -0.0128 -0.3412
50213W        W93307  32.939  18.010  24.736  0.2086  0.2405 -0.1740
50214W        W93308  32.986  18.529  19.289  0.1517  0.1433 -0.0374
50215W        W93309  33.973  17.169  22.708  0.0067 -0.0545  0.1146
50216W        W93310  33.923  16.293  23.536 -0.1785  0.2655 -0.1627
50217W        W93311  33.635  17.270  21.017 -0.1827 -0.2504 -0.3048
50218W        W93312  32.746  14.033  25.231  0.0234 -0.1792 -0.2499
50219W        W93313  32.412  14.143  20.073 -0.4967  0.2444 -0.1036
50220W        W93314  32.625  19.633  24.554 -0.1388  0.1784  0.0146
50221W        W93315  32.049  16.466  23.278  0.3530 -0.3189  0.1106
50222W        W93316  32.125  18.666  21.045 -0.2120  0.4084 -0.2363
50223W        W93317   1.044  15.186  21.015 -0.0735 -0.1036  0.0989
50224W        W93318  32.608  17.350  22.032 -0.4082  0.2012 -0.2907
50225W        W93319  31.875  16.678  20.777 -0.0414  0.0218  0.0450
50226W        W93320  33.630  17.557  20.231  0.1333  0.0516 -0.1649
50227W        W93321  33.018  15.274  23.963  0.0195 -0.2539  0.0120
50228W        W93322  34.301  15.752  20.473  0.0317 -0.1883 -0.2408
50229W        W93323  33.227  16.913  23.232  0.3848  0.1367  0.0756
50230W        W93324  31.848  19.122  24.830 -0.1652 -0.1894  0.3164
50231W        W93325  34.196  15.122  22.618  0.1264 -0.0190  0.0236
50232W        W93326  33.558  16.251  21.363  0.0187  0.4553 -0.0718
50233W        W93327  33.182  17.110  19.588  0.0271  0.0581 -0.0911
50234W        W93328  33.458  18.132  21.471 -0.0111 -0.3400 -0.3324
50235W        W93329   0.079  16.962  22.945  0.2045 -0.0013  0.0913
50236W        W93330  34.449  18.715  21.537  0.0555 -0.1986  0.1111
50237W        W93331  31.981  15.734  21.707  0.2753  0.2767 -0.1551
50238W        W93332  33.904  17.520  24.814 -0.0487  0.1583 -0.1048
50239W        W93333  34.173  15.419  19.991  0.2298  0.0938 -0.1404
50240W        W93334  32.457  17.339  25.328  0.0141  0.0973  0.2150
50241W        W93335   0.207  14.739  20.893  0.1489  0.0084  0.1411
50242W        W93336  33.231  16.060  22.415  0.1000 -0.0994  0.2619
50243W        W93337  34.520  15.719  21.726 -0.1137 -0.0070  0.2537
50244W        W93338  33.643  17.822  22.800  0.0223  0.3171  0.2103
50245W        W93339  34.066  14.007  21.874  0.1325  0.0199 -0.1793
50246W        W93340  32.721  17.665  20.252  0.1416  0.0631  0.2567
50247W        W93341  31.519  14.572  22.744  0.0839  0.0422  0.0307
50248W        W93342   0.978  14.757  21.286  0.1406  0.0585  0.2970
50249W        W93343  33.379  15.657  22.614  0.2183  0.1524  0.1058
50250W        W93344  32.432  18.406  22.187  0.2358  0.3196  0.2537
50251W        W93345  33.691  17.012  20.333 -0.0965 -0.3609  0.3877
50252W        W93346  33.544  17.622  23.581  0.1225 -0.2378 -0.1186
50253W        W93347  34.441  17.350  22.851  0.1670 -0.0439 -0.1754
50254W        W93348  33.238  16.992  20.724  0.0503 -0.1096  0.1123
50255W        W93349  33.136  17.634  22.554  0.3187  0.0893  0.0284
50256W        W93350   0.056  17.980  21.020 -0.1058 -0.0343 -0.1428
50257W        W93351  34.287  17.415  21.646 -0.0578  0.0171  0.3019
50258W        W93352   0.532  16.975  21.429 -0.0887 -0.0964 -0.2817
50259W        W93353   0.703  16.062  22.010 -0.0006  0.0125 -0.0985
50260W        W93354  33.437  16.150  21.958  0.0107  0.0345 -0.2060
50261W        W93355  33.653  16.517  22.187  0.0796 -0.1053  0.1593
50262W        W93356  33.645  15.315  21.819 -0.1000 -0.1969  0.1750
50263W        W93357  33.384  17.608  21.587 -0.2663  0.3305 -0.1936
50264W        W93358  33.622  14.765  24.449  0.1989  0.2174  0.1031
50265W        W93359  33.470  16.437  23.231 -0.1362  0.0466 -0.1333
50266W        W93360  33.435  15.093  22.345  0.3432  0.2622 -0.2658
50267W        W93361  34.405  14.818  22.255 -0.2030  0.0623 -0.0892
50268W        W93362  33.908  15.006  22.163  0.3553 -0.3444  0.1868
50269W        W93363  33.358  15.161  22.814 -0.2294  0.1021 -0.0386
50270W        W93364  33.918  14.775  21.618 -0.0053  0.1749  0.0416
50271W        W93365  32.373  16.825  18.792 -0.2145 -0.3370  0.2088
50272W        W93366   0.090  16.540  24.321 -0.0020  0.0221  0.1163
50273W        W93367   0.206  15.185  25.151 -0.1933  0.0639  0.1274
50274W        W93368  32.141  15.549  19.312  0.0980 -0.1376 -0.0552
50275W        W93369  33.879  15.742  21.979 -0.1190  0.0223  0.4864
50276W        W93370   0.168  16.728  23.366 -0.0149 -0.3992  0.3069
50277W        W93371  34.264  18.619  23.002  0.0750  0.0560  0.0103
50278W        W93372  32.472  13.256  24.191 -0.0417  0.1593  0.2418
50279W        W93373  33.731  15.973  22.393  0.0008  0.2613 -0.0333
50280W        W93374  32.792  15.469  24.856  0.0680  0.0214 -0.2084
50281W        W93375  33.078  17.455  23.466  0.0214  0.0742 -0.1375
50282W        W93376  34.024  16.424  23.046 -0.1294  0.3086  0.4334
50283W        W93377  32.621  16.850  22.833 -0.1803  0.1817  0.1509
50284W        W93378  34.530  15.372  21.284 -0.0041 -0.3417 -0.0065
50285W        W93379   1.164  16.152  22.320  0.0015 -0.0319 -0.1190
50286W        W93380  34.441  17.342  20.659 -0.0899  0.3037 -0.0984
50287W        W93381   0.485  18.148  22.546 -0.0439  0.1191  0.0298
50288W        W93382  32.884  15.685  23.424 -0.0955 -0.2876 -0.2818
50289W        W93383  33.131  16.435  21.601  0.0106 -0.1833 -0.2707
50290W        W93384  34.247  16.887  23.011 -0.0193 -0.0979 -0.1697
50291W        W93385  32.914  15.447  22.900  0.1890  0.2183 -0.0524
50292W        W93386   0.407  18.043  23.358  0.1061 -0.0635  0.1501
50293W        W93387  33.632  17.363  25.561  0.2489 -0.0271 -0.0048
50294W        W93388  33.282  16.262  24.047  0.1777 -0.3918  0.1507
50295W        W93389  33.280  15.217  24.417  0.4021 -0.1669 -0.2573
50296W        W93390  34.235  14.203  27.513  0.2027  0.4206  0.1314
50297W        W93391  34.216  15.266  26.482  0.0930 -0.1108  0.0085
50298W        W93392  33.950  18.299  27.183 -0.2657 -0.3283  0.2497
50299W        W93393  33.971  15.089  24.184 -0.2466 -0.0795  0.1119
50300W        W93394  31.594  14.380  26.288 -0.0319 -0.1599  0.2211
50301W        W93395  33.054  16.421  23.550 -0.0528 -0.0635  0.2420
50302W        W93396   0.241  15.387  25.596  0.1403  0.1134  0.0923
50303W        W93397  33.779  16.473  24.364  0.0383  0.0448 -0.1545
50304W        W93398   0.760  15.260  26.972 -0.0371 -0.4153 -0.2586
50305W        W93399  34.141  16.628  25.204  0.1255 -0.0777 -0.0367
50306W        W93400  31.915  16.100  24.773 -0.0241 -0.0600  0.2396
50307W        W93401  33.073  16.064  25.059 -0.1558  0.0493  0.1058
50308W        W93402  33.637  16.937  25.895  0.0065  0.1531  0.0667
50309W        W93403  33.745  17.959  25.491 -0.0471 -0.2236  0.0919
50310W        W93404   1.080  18.431  24.706  0.1213  0.2266  0.3922
50311W        W93405  33.442  16.299  25.475 -0.0062 -0.1268  0.1068
50312W        W93406  32.111  18.806  25.609  0.2073  0.3323 -0.1427
50313W        W93407  32.852  17.360  23.923 -0.2778 -0.0595 -0.1143
50314W        W93408  32.285  18.777  27.324  0.3820  0.1948 -0.0784
50315W        W93409  34.347  18.974  24.617 -0.0781 -0.2124  0.2007
50316W        W93410  33.773  16.463  27.307 -0.0903 -0.1465  0.0001
50317W        W93411  33.503  18.127  25.068  0.0014  0.2060 -0.2884
50318W        W93412  34.563  18.078  25.021  0.0525  0.1233 -0.2429
50319W        W93413  34.028  15.510  26.020  0.0278 -0.3425 -0.0158
50320W        W93414  32.527  17.345  26.145 -0.2492  0.1934  0.0700
50321W        W93415  33.490  17.881  24.634 -0.1453 -0.2740  0.2679
50322W        W93416  34.332  15.858  23.490 -0.1856  0.0029  0.1684
50323W        W93417  34.494  14.004  27.888 -0.1194  0.0014  0.0251
50324W        W93418  34.143  17.494  27.443  0.5197  0.0924  0.3072
50325W        W93419  34.129  15.050  25.847  0.3340 -0.1939 -0.1096
50326W        W93420  33.175  16.696  25.757  0.1296  0.0126  0.0008
50327W        W93421  32.296  14.969  24.856 -0.2561  0.3055 -0.0310
50328W        W93422  34.025  17.001  24.673 -0.0505 -0.0534  0.3609
50329W        W93423  32.949  17.043  27.692 -0.0270 -0.2618 -0.3108
50330W        W93424  32.658  15.896  28.123 -0.1104 -0.1570  0.0730
50331W        W93425  33.302  14.421  24.115 -0.0572  0.1724  0.2161
50332W        W93426  33.882  15.922  27.404  0.5007  0.1623 -0.1328
50333W        W93427  33.680  17.122  25.076  0.0348 -0.0693  0.2680
50334W        W93428   0.569  16.346  24.507 -0.0161  0.0952 -0.0748
50335W        W93429  33.491  17.634  25.097 -0.2623 -0.0343  0.4043
50336W        W93430  32.492  17.943  26.149 -0.0216  0.0185 -0.0477
50337W        W93431  33.221  14.718  25.563 -0.0375 -0.0929  0.1025
50338W        W93432  34.165  16.893  27.268  0.1638 -0.1057  0.0481
50339W        W93433  32.514  17.570  24.897  0.2339  0.0065  0.2424
50340W        W93434  33.478  17.526  26.831 -0.0768  0.2911  0.1022
50341W        W93435  32.883  16.605  24.640 -0.0152  0.0216  0.0142
50342W        W93436  31.470  14.146  25.851 -0.1035 -0.2159 -0.1424
50343W        W93437  33.018  17.548  26.299 -0.0698  0.1227  0.3259
50344W        W93438  32.738  14.967  26.556  0.1769  0.2897  0.0596
50345W        W93439  31.241  16.853  26.362  0.2395  0.0171  0.1066
50346W        W93440  33.595  16.460  25.956  0.1589  0.1036  0.3167
50347W        W93441  33.736  15.353  24.520 -0.2680  0.0966  0.1520
50348W        W93442  33.267  14.922  26.559 -0.0468 -0.2101 -0.3681
50349W        W93443  33.072  15.296  26.783  0.1649 -0.1661 -0.0898
50350W        W93444  31.897  14.213  25.393  0.0681  0.0433 -0.0991
50351W        W93445  34.148  14.532  25.047 -0.0254 -0.1656 -0.0233
50352W        W93446  34.090  14.025  24.965 -0.0492 -0.4271  0.0108
50353W        W93447  33.194  15.853  27.988  0.0692 -0.2510 -0.1636
50354W        W93448  32.405  16.403  24.627 -0.1895  0.0396  0.5352
50355W        W93449  33.017  17.467  24.886 -0.1555 -0.1049 -0.1295
50356W        W93450  34.488  17.732  26.184  0.0603 -0.0875  0.1262
50357W        W93451  33.312  14.387  25.960 -0.1124 -0.0565  0.0886
50358W        W93452  32.433  16.863  26.516  0.3551 -0.4767 -0.0452
50359W        W93453  32.432  14.762  24.434 -0.0987  0.0360 -0.3006
50360W        W93454  32.526  16.093  25.235 -0.2179 -0.2018 -0.1576
50361W        W93455  32.227  16.667  26.084 -0.2009 -0.1382  0.2252
50362W        W93456   0.264  17.223  25.615  0.2204  0.1685  0.0373
50363W        W93457  32.510  17.404  27.814  0.0625  0.1438 -0.0733
50364W        W93458  32.185  15.617  25.548 -0.3668  0.0325 -0.2725
50365W        W93459  33.416  18.064  26.973  0.2544 -0.3923 -0.1958
50366W        W93460  34.017  16.160  27.830 -0.1901 -0.1052  0.3467
50367W        W93461  33.964  18.613  24.368 -0.0731 -0.1107 -0.3349
50368W        W93462  33.360  16.381  26.565 -0.2624  0.1223 -0.1435
50369W        W93463  32.885  16.720  26.596  0.2636 -0.0401 -0.1382
50370W        W93464   0.088  13.938  26.127  0.0872  0.1917 -0.1015
50371W        W93465  33.522  16.646  23.853 -0.1170  0.3468  0.1235
50372W        W93466  34.342  18.759  24.092 -0.1671  0.0103  0.0889
50373W        W93467   1.183  13.745  26.127  0.1199 -0.0279 -0.2976
50374W        W93468  32.677  16.531  25.076  0.1449  0.0556  0.2677
50375W        W93469  34.303  14.188  27.033 -0.2097  0.2924  0.0737
50376W        W93470  34.052  17.266  26.050 -0.0556 -0.3331 -0.2035
50377W        W93471  32.697  20.190  25.830 -0.3082 -0.2733  0.0282
50378W        W93472   0.924  16.414  27.026 -0.0347 -0.1586  0.1013
50379W        W93473  33.867  19.129  24.841  0.1441 -0.0595 -0.2687
50380W        W93474  33.956  17.374  26.989 -0.0028  0.3514  0.0335
50381W        W93475  33.572  14.966  25.744  0.0676  0.0919  0.2329
50382W        W93476   0.001  18.049  27.270  0.1177 -0.0580 -0.1901
50383W        W93477  33.442  17.390  24.649 -0.0367  0.1080 -0.0950
50384W        W93478  34.413  17.789  24.103 -0.1447 -0.1332 -0.0705
50385W        W93479  31.385  16.927  25.865 -0.4527 -0.1468 -0.1104
50386W        W93480  31.920  14.094  24.830 -0.0699 -0.1443 -0.1270
50387W        W93481  30.610  17.158  25.701  0.2771 -0.2016 -0.0525
50388W        W93482  33.190  15.049  26.009  0.1993  0.1615 -0.0770
50389W        W93483  34.130  16.343  24.850 -0.1755  0.0586  0.2003
50390W        W93484  33.285  18.403  24.636  0.1752  0.0676  0.0839
50391W        W93485   0.308  15.072  26.765 -0.3163 -0.1106 -0.0411
50392W        W93486  31.959  15.606  22.834 -0.1267 -0.0822 -0.1321
50393W        W93487  34.042  17.084  25.596 -0.0705  0.1619 -0.1531
50394W        W93488  32.073  19.018  24.359 -0.2259 -0.2223  0.0983
50395W        W93489  34.454  15.112  25.513  0.3713  0.0169 -0.0736
50396W        W93490  32.832  17.678  25.305 -0.2552  0.1544 -0.2497
50397W        W93491  33.920  14.253  26.670  0.0513  0.2445 -0.2066
50398W        W93492   0.454  14.721  25.354 -0.0645 -0.0326  0.1574
50399W        W93493  33.925  14.902  25.369  0.3297  0.4775 -0.1920
50400W        W93494   0.369  15.892  25.546 -0.1085 -0.0239 -0.1598
50401W        W93495  33.688  14.754  26.821  0.2854 -0.2818  0.0765
50402W        W93496  33.188  17.797  27.363 -0.0938 -0.2961  0.0893
50403W        W93497  33.194  16.674  25.190  0.0378 -0.2291 -0.1024
50404W        W93498  33.551  15.975  26.297  0.0013  0.0522 -0.3185
50405W        W93499  33.248  16.942  24.795 -0.0280 -0.1210 -0.0029
50406W        W93500   0.037  16.114  26.003 -0.0788  0.2301 -0.2757
50407W        W93501  32.723  18.344  26.522  0.0217  0.2632  0.2613
50408W        W93502  32.841  17.055  25.033  0.3594 -0.3008  0.0389
50409W        W93503  33.275  17.073  26.674 -0.3083  0.4651  0.0571
50410W        W93504   0.173  14.384  25.679  0.2011  0.2664  0.3215
50411W        W93505  32.870  14.012  26.352 -0.0489 -0.3330  0.2895
50412W        W93506  33.670  16.851  26.456  0.2925  0.0131  0.0499
50413W        W93507  33.700  16.933  26.943  0.1868  0.1079  0.2808
50414W        W93508  32.024  14.719  25.274  0.0632  0.0399  0.0058
50415W        W93509   0.363  15.917  26.400  0.1209  0.0618  0.0246
50416W        W93510  32.754  17.255  26.569 -0.2322  0.0193  0.1337
50417W        W93511  33.112  15.873  25.892  0.0362 -0.2385 -0.3627
50418W        W93512  34.237  17.463  24.456 -0.1096  0.0644  0.0521
50419W        W93513  34.285  17.205  25.031 -0.1764 -0.0236 -0.2127
50420W        W93514  33.440  15.042  27.123  0.1371 -0.0922 -0.0647
50421W        W93515  33.537  15.546  27.107  0.1200  0.2436 -0.1952
50422W        W93516  33.291  15.453  26.337 -0.2282  0.2201 -0.0241
50423W        W93517  32.552  16.359  26.412  0.0910 -0.0354 -0.0884
50424W        W93518  34.438  16.092  23.053  0.0160 -0.2088  0.4068
50425W        W93519   0.465  18.590  23.428 -0.1603  0.2074 -0.0171
50426W        W93520  31.439  16.138  26.237  0.0537  0.0261 -0.0329
50427W        W93521  33.579  18.676  26.087 -0.1863 -0.0532  0.2149
50428W        W93522  32.766  15.684  24.252 -0.2784 -0.2942 -0.0277
50429W        W93523  33.960  17.349  23.704 -0.1373  0.0808  0.0876
50430W        W93524   1.371  17.523  26.097 -0.2009  0.0633  0.0379
50431W        W93525  34.305  14.977  23.674  0.3450  0.0738  0.1345
50432W        W93526  34.000  16.675  22.535  0.0164  0.2060 -0.0826
50433W        W93527  33.275  19.216  26.339 -0.0274  0.0668 -0.1164
50434W        W93528  33.435  15.790  27.503  0.1712  0.2604 -0.1873
50435W        W93529  34.065  17.601  26.514  0.3490  0.0323  0.0318
50436W        W93530   1.070  16.328  26.073 -0.3220 -0.1071 -0.0156
50437W        W93531  34.095  16.041  25.336  0.0048 -0.0012 -0.2119
50438W        W93532  33.600  17.319  26.226 -0.2608  0.0399 -0.0123
50439W        W93533  32.352  15.994  26.819 -0.2569 -0.1532 -0.1789
50440W        W93534  34.523  15.303  26.006  0.0548  0.1879  0.0758
50441W        W93535  31.825  17.190  29.291  0.0812  0.1080  0.0178
50442W        W93536  32.951  16.727  27.294 -0.1801 -0.0066  0.1192
50443W        W93537  32.721  18.968  25.465 -0.0418 -0.1297  0.0085
50444W        W93538  33.880  14.810  23.490 -0.0644 -0.0317 -0.1573
50445W        W93539  34.692  17.477  27.383 -0.1848 -0.2200  0.0829
50446W        W93540  31.910  17.952  25.750 -0.1251 -0.1738  0.0186
50447W        W93541  34.102  17.858  25.905 -0.2776 -0.0107 -0.0139
50448W        W93542   0.077  17.009  25.171 -0.1009 -0.1249 -0.1655
50449W        W93543   0.300  14.786  24.787  0.0308  0.0902 -0.2390
50450W        W93544  33.961  17.486  27.949  0.0851 -0.1350  0.0317
50451W        W93545  32.703  17.776  28.256  0.1330  0.1226  0.1407
50452W        W93546  33.155  15.077  25.192 -0.0027 -0.1851  0.1459
50453W        W93547  33.227  17.259  25.904  0.4551  0.0312 -0.1034
50454W        W93548   0.713  16.635  23.437  0.0253 -0.0630  0.0268
50455W        W93549  33.278  17.730  25.600  0.0118 -0.2699 -0.1426
50456W        W93550  32.215  18.085  23.078 -0.2307 -0.0686  0.3804
50457W        W93551  33.390  18.345  25.527 -0.0035  0.4162  0.0038
50458W        W93552  32.787  14.880  25.763  0.3829  0.0997 -0.5321
50459W        W93553  33.591  15.385  25.449 -0.1049 -0.0954  0.2442
50460W        W93554  34.598  14.634  25.239  0.3609 -0.0587 -0.0489
50461W        W93555  34.084  15.501  25.488  0.2573 -0.1811  0.1381
50462W        W93556  34.040  15.277  25.016 -0.1216 -0.4033 -0.1011
50463W        W93557  32.088  14.557  26.246 -0.0369 -0.3088 -0.0678
50464W        W93558  33.334  16.375  24.636 -0.1220  0.0670 -0.0345
50465W        W93559  33.770  16.166  26.807  0.3403 -0.3848  0.1643
50466W        W93560  32.251  14.608  25.726  0.1412  0.0642  0.0835
50467W        W93561  32.863  17.670  25.871 -0.5036 -0.3962 -0.1085
50468W        W93562  33.734  15.226  26.684  0.0062 -0.0294  0.1087
50469W        W93563   0.296  12.864  25.223 -0.1686 -0.3125 -0.3172
50470W        W93564  32.090  16.027  25.822  0.1082  0.3258 -0.1078
50471W        W93565  32.705  16.800  26.049 -0.0321 -0.1759 -0.3932
50472W        W93566  34.038  17.963  24.940  0.1256 -0.2676 -0.2254
50473W        W93567   0.499  17.926  26.901  0.1290  0.2509 -0.0476
50474W        W93568  33.128  17.769  28.773 -0.0327  0.2464  0.1418
50475W        W93569  33.256  15.586  25.066  0.0019 -0.0781  0.0753
50476W        W93570  33.711  15.640  27.860  0.5326 -0.1327 -0.1431
50477W        W93571  34.057  17.525  25.322  0.0828 -0.2623  0.1730
50478W        W93572  33.856  18.680  25.094  0.0890 -0.2306  0.1055
50479W        W93573   0.273  16.606  23.829  0.0985  0.1624 -0.3786
50480W        W93574  33.746  13.707  25.289 -0.1748  0.0536  0.1511
50481W        W93575  33.694  16.002  25.844  0.0117 -0.1332 -0.1258
50482W        W93576  33.603  15.100  24.901  0.1769 -0.2470 -0.0817
50483W        W93577  33.646  16.766  25.425  0.0073 -0.2284 -0.1647
50484W        W93578  33.216  16.873  26.232 -0.0658 -0.0450 -0.2422
50485W        W93579   1.651  14.690  28.146  0.0251 -0.0655 -0.1993
50486W        W93580  33.657  15.121  26.201 -0.0211 -0.0918  0.0921
50487W        W93581  34.553  15.709  25.692 -0.0100  0.3833 -0.4335
50488W        W93582  33.554  16.175  25.019  0.2433 -0.1130  0.2225
50489W        W93583  32.987  14.621  26.271 -0.0714  0.1632  0.2066
50490W        W93584  32.627  15.280  25.315  0.2433 -0.0273 -0.1890
50491W        W93585  33.503  14.245  26.918  0.1185  0.2133  0.2064
50492W        W93586  32.752  17.210  25.704  0.2273  0.0943  0.2037
50493W        W93587   0.801  15.886  26.091  0.2370 -0.1273 -0.0438
50494W        W93588  33.311  15.806  26.707 -0.2093  0.1447 -0.1585
50495W        W93589  31.731  15.579  25.398 -0.0177  0.1112 -0.0965
50496W        W93590  32.758  15.458  26.271 -0.0975  0.0978  0.0216
50497W        W93591  34.486  17.152  26.182  0.1663  0.0981  0.1317
50498W        W93592  33.536  17.800  26.403 -0.0287 -0.4610  0.1599
50499W        W93593  31.173  13.936  26.277 -0.4537 -0.1415 -0.2156
50500W        W93594  34.470  16.829  25.593 -0.2074  0.2176 -0.1187
50501W        W93595  32.466  14.005  26.768  0.3390 -0.0144  0.1932
50502W        W93596  34.642  16.780  26.542  0.1692 -0.3144 -0.0185
50503W        W93597  34.268  16.132  26.823 -0.0712 -0.1275  0.2234
50504W        W93598  34.513  15.497  25.228  0.4040  0.1212 -0.0983
50505W        W93599   0.301  14.924  24.089  0.2994 -0.2279 -0.0984
50506W        W93600   0.714  15.095  25.946 -0.0129 -0.1679  0.0882
50507W        W93601   0.039  16.503  25.220 -0.0265  0.1696 -0.4431
50508W        W93602  33.996  18.099  26.317  0.1562  0.2006 -0.0223
50509W        W93603  31.879  15.009  26.171 -0.2111 -0.2036 -0.0734
50510W        W93604  34.246  15.773  24.886 -0.0107  0.5050 -0.0875
50511W        W93605   0.376  16.727  24.825  0.2615  0.1024 -0.0253
50512W        W93606  33.557  14.599  25.021  0.3468 -0.0955 -0.0129
50513W        W93607  33.605  18.660  27.091  0.4028 -0.2276  0.1434
50514W        W93608  33.919  17.679  30.370 -0.1626 -0.0972  0.0177
50515W        W93609  33.137  16.274  28.282  0.0199  0.0520  0.1142
50516W        W93610  33.713  15.283  29.180 -0.2581 -0.1845 -0.0163
50517W        W93611  33.045  15.028  30.096  0.3223  0.0047 -0.2869
50518W        W93612  33.024  16.424  28.797  0.0846 -0.2017 -0.0918
50519W        W93613  33.491  17.603  29.446 -0.0976 -0.1478 -0.1890
50520W        W93614   0.538  15.981  27.623  0.0289  0.2823  0.0034
50521W        W93615  32.918  15.440  29.686 -0.2660 -0.2433  0.0109
50522W        W93616  33.921  17.905  28.157  0.0718  0.0395  0.2660
50523W        W93617  33.473  17.360  30.493 -0.2115  0.3604  0.0288
50524W        W93618  34.029  16.075  28.588 -0.0869  0.1525 -0.0531
50525W        W93619   0.318  14.744  30.337 -0.3354  0.1866  0.1944
50526W        W93620   0.464  18.321  27.573  0.0460  0.1875 -0.1602
50527W        W93621  30.977  15.832  28.065 -0.1771  0.2393 -0.0323
50528W        W93622  33.621  16.368  28.517 -0.0183  0.4638 -0.0776
50529W        W93623  32.565  15.713  31.160  0.1079 -0.1729 -0.1302
50530W        W93624   0.491  18.718  28.183  0.0244 -0.0585  0.2640
50531W        W93625  34.520  18.352  30.355 -0.2788  0.2410 -0.0216
50532W        W93626  32.268  17.794  30.933 -0.2579  0.1508  0.1321
50533W        W93627  33.101  17.284  29.369  0.1243  0.0538  0.2006
50534W        W93628  34.279  16.404  27.451 -0.3319 -0.0730 -0.1706
50535W        W93629  34.600  17.863  31.028  0.1894 -0.2631  0.0250
50536W        W93630  33.073  18.142  27.814  0.1835 -0.0687 -0.1234
50537W        W93631  32.840  19.169  30.021  0.0278  0.1139  0.0557
50538W        W93632  33.848  18.724  27.501 -0.0214  0.0628  0.1080
50539W        W93633  33.338  17.045  29.027  0.1455  0.1819 -0.0465
50540W        W93634  33.785  17.489  31.971  0.4504  0.1453 -0.0586
50541W        W93635  32.609  17.093  29.359 -0.0968 -0.1233  0.0630
50542W        W93636  33.450  16.637  28.106  0.0290  0.3029 -0.1029
50543W        W93637   0.065  15.444  27.669  0.0394 -0.0192  0.2067
50544W        W93638   1.146  15.207  27.361  0.0814  0.2878  0.0549
50545W        W93639  33.438  19.800  29.298  0.0691 -0.0313  0.0390
50546W        W93640  33.847  17.270  31.437  0.1111  0.0225 -0.0225
50547W        W93641  33.049  18.143  30.476  0.1354 -0.2637  0.3658
50548W        W93642  34.269  15.339  27.813  0.0326  0.3561 -0.0656
50549W        W93643  33.776  15.150  28.007 -0.2169  0.1380 -0.1867
50550W        W93644  32.814  18.123   1.014 -0.0068 -0.0866  0.0483
50551W        W93645  33.600  16.935   0.202  0.1009 -0.0369 -0.0503
50552W        W93646  33.012  14.956  28.710 -0.1138 -0.0455  0.1436
50553W        W93647  33.614  18.339   0.180 -0.0139 -0.5064 -0.1021
50554W        W93648  33.390  18.113  29.084 -0.0387 -0.0514  0.0500
50555W        W93649  34.215  16.731  26.090 -0.3274 -0.1828  0.2993
50556W        W93650   0.044  16.310  27.571  0.2631 -0.0391 -0.2565
50557W        W93651  33.880  18.331  28.392  0.0829 -0.2453  0.0608
50558W        W93652  34.275  15.334  30.026  0.2942 -0.0933  0.0195
50559W        W93653   0.475  16.512  30.519 -0.0879  0.1999 -0.1753
50560W        W93654  34.542  19.898  26.373  0.3661  0.0366 -0.6545
50561W        W93655  32.578  15.974  30.744  0.0419  0.4444 -0.3634
50562W        W93656  34.218  17.538  28.965  0.1234  0.0567 -0.0430
50563W        W93657  33.797  16.790  29.177 -0.0336 -0.0721 -0.3029
50564W        W93658  33.476  16.787  30.105  0.1345 -0.0342  0.1056
50565W        W93659  33.970  16.244  30.181  0.1490  0.1189 -0.0488
50566W        W93660  32.934  16.945  28.775 -0.1163 -0.0921 -0.1252
50567W        W93661  32.071  16.437  31.553  0.1723 -0.1550  0.1318
50568W        W93662   0.222  14.982  28.996  0.2005  0.3798 -0.0205
50569W        W93663  32.875  16.419  30.572 -0.0354  0.4617  0.0264
50570W        W93664  32.092  16.876  30.733 -0.1952  0.1879  0.0980
50571W        W93665  32.949  15.400  28.013  0.1457  0.2250 -0.0614
50572W        W93666   0.619  16.006  27.119 -0.0019  0.1043  0.1320
50573W        W93667  32.574  16.761  28.497  0.2267 -0.0595  0.0881
50574W        W93668  34.081  16.656  30.998 -0.2033 -0.2033 -0.1785
50575W        W93669  34.104  15.587  27.062 -0.2582 -0.4078  0.1199
50576W        W93670  33.716  18.457  28.875  0.2785  0.1379 -0.2873
50577W        W93671  33.426  18.252  28.129  0.0355 -0.0210 -0.0588
50578W        W93672  34.548  14.946  27.761  0.1110  0.0128  0.1657
50579W        W93673  32.771  17.590  31.108 -0.2051 -0.1683  0.0830
50580W        W93674  33.916  14.861  27.597 -0.0182  0.0583 -0.0815
50581W        W93675  32.559  18.502  28.151  0.1272 -0.3588 -0.1250
50582W        W93676  34.330  14.999  28.194  0.0064  0.1002  0.0975
50583W        W93677   0.389  16.542  26.609 -0.0791  0.1956  0.1048
50584W        W93678  32.606  16.976  30.736  0.2235 -0.0822  0.0345
50585W        W93679  31.951  16.728  28.151 -0.0920 -0.0136  0.1963
50586W        W93680  33.635  18.557  30.418  0.1969 -0.0555 -0.1573
50587W        W93681  31.581  17.855  30.689  0.0581  0.0841  0.1392
50588W        W93682   0.676  17.615  29.424  0.4719  0.0253  0.2405
50589W        W93683  34.622  17.293  29.131  0.0830 -0.2708  0.1061
50590W        W93684  31.896  17.045  31.116  0.1270 -0.0711  0.0810
50591W        W93685  33.954  14.952  29.917  0.1355 -0.4221  0.1361
50592W        W93686  32.785  15.671  27.593  0.0554  0.0412  0.1930
50593W        W93687  32.007  18.570  28.563  0.0762  0.0277  0.0663
50594W        W93688  33.624  15.192  30.235 -0.1411  0.0645  0.0189
50595W        W93689  33.514  16.280  27.714  0.4385  0.2343  0.3892
50596W        W93690  33.708  15.727  30.395 -0.0310 -0.0688 -0.0294
50597W        W93691  33.438  17.006  30.972  0.1275 -0.1042 -0.2141
50598W        W93692  32.580  18.041  30.212 -0.1237  0.0196  0.0022
50599W        W93693   1.460  13.924  29.922 -0.0372 -0.2036  0.0253
50600W        W93694   0.458  17.665  27.316 -0.0581 -0.1269 -0.4292
50601W        W93695  34.231  17.116  26.629  0.4068 -0.1301 -0.1939
50602W        W93696  33.831  14.500  30.094  0.0365 -0.4723  0.1712
50603W        W93697  34.333  17.905  28.408  0.0570  0.0982  0.2704
50604W        W93698  33.431  17.271  27.830  0.2679 -0.0872 -0.1050
50605W        W93699  34.047  17.932  27.636  0.3145  0.0806 -0.1326
50606W        W93700  34.099  18.058  30.062  0.1997 -0.1202 -0.0352
50607W        W93701  33.785  15.650  28.462 -0.0974 -0.1732  0.1375
50608W        W93702  32.140  15.797  28.172  0.2443 -0.0256  0.0402
50609W        W93703  34.301  15.940  30.617 -0.1570  0.2578  0.0495
50610W        W93704  33.515  16.115  29.371  0.1986  0.0078  0.0043
50611W        W93705  32.717  18.192  29.225 -0.1168  0.3004  0.1443
50612W        W93706   0.545  15.575  31.456 -0.2402  0.6132 -0.2887
50613W        W93707  33.275  15.294  29.326  0.0473  0.0478  0.3294
50614W        W93708  34.516  15.869  27.773 -0.0222 -0.0611 -0.1261
50615W        W93709  33.068  17.615  29.734 -0.1141 -0.4347  0.1625
50616W        W93710  33.958  17.980  28.731 -0.0856 -0.1315 -0.0936
50617W        W93711  33.192  17.846  28.253 -0.1570  0.0759  0.0449
50618W        W93712  33.531  17.966  31.099 -0.0864 -0.0904 -0.1725
50619W        W93713   0.154  15.771  29.366  0.2081  0.2033  0.2881
50620W        W93714   0.160  14.854  28.149 -0.1469 -0.0210  0.0410
50621W        W93715  33.904  15.827  29.394  0.0563  0.1078  0.0256
50622W        W93716   1.253  15.859  30.504 -0.1470  0.2276  0.2638
50623W        W93717  33.597  16.718  30.579  0.0255  0.1358 -0.0356
50624W        W93718  33.236  17.329  28.633  0.1724 -0.2115  0.0276
50625W        W93719  32.078  15.423  31.031 -0.2302 -0.2854 -0.0658
50626W        W93720  34.382  17.149  27.670  0.0095  0.2820  0.2846
50627W        W93721   0.391  15.356  29.653  0.2164  0.1916  0.0914
50628W        W93722  31.726  15.815  30.957  0.1172 -0.2811  0.0308
50629W        W93723  34.434  18.165  27.953 -0.0067 -0.1311  0.1018
50630W        W93724  31.445  17.261  31.589 -0.1093  0.1172 -0.2415
50631W        W93725  33.962  16.701  28.653 -0.0422 -0.0486  0.0773
50632W        W93726  34.308  15.715  29.674  0.1064  0.2794  0.3962
50633W        W93727  31.828  15.798  30.020  0.1032 -0.2586 -0.0444
50634W        W93728  32.057  16.921   1.112 -0.0551  0.2606  0.0180
50635W        W93729  33.417  15.374  28.237  0.0326  0.2311 -0.1246
50636W        W93730  34.685  16.490  30.294 -0.0741 -0.1225  0.0161
50637W        W93731  33.686  17.722  27.365 -0.1931  0.0737  0.0360
50638W        W93732  33.029  17.253  30.766 -0.0867  0.0055 -0.3095
50639W        W93733  33.914  16.774  27.747  0.1950 -0.1663  0.3187
50640W        W93734  32.946  16.800  29.892 -0.2030 -0.2445  0.0497
50641W        W93735  32.798  15.276  30.992  0.1930  0.2680  0.0768
50642W        W93736  34.331  16.587  29.863  0.3575  0.2377 -0.1302
50643W        W93737  32.962  16.108  31.008 -0.0212 -0.3112 -0.0332
50644W        W93738  34.505  16.056  30.213 -0.1179  0.1667 -0.1538
50645W        W93739  34.590  15.667  26.924 -0.0484  0.2775  0.0724
50646W        W93740   0.359  17.613  26.532 -0.0747  0.0660 -0.2644
50647W        W93741  32.310  16.053  28.773 -0.2036 -0.3113 -0.0488
50648W        W93742  34.089  18.573  30.234 -0.1288  0.3795 -0.1522
50649W        W93743  33.137  16.219  27.387  0.0916 -0.0567 -0.0654
50650W        W93744  34.410  15.974  27.276 -0.3812 -0.3167  0.3153
50651W        W93745  34.302  16.993  29.547  0.1504 -0.1005 -0.3444
50652W        W93746   0.434  15.446  28.052 -0.0226  0.0131  0.0614
50653W        W93747  33.302  15.857  28.476  0.0461 -0.1567 -0.2204
50654W        W93748  34.503  18.925  28.772 -0.0130  0.2236  0.1732
50655W        W93749  31.483  16.578  30.542  0.0546  0.0873 -0.1918
50656W        W93750  33.344  18.679  28.442  0.0153  0.0994 -0.0311
50657W        W93751  34.092  15.808  30.134  0.0734 -0.1407  0.2799
50658W        W93752  33.500  16.488  28.999  0.0881 -0.0455 -0.4515
50659W        W93753  32.284  17.236  28.973  0.2582  0.1724  0.0083
50660W        W93754  33.834  13.866  31.929  0.0892  0.1088 -0.0560
50661W        W93755  33.739  14.719  29.553 -0.0095 -0.0075 -0.0692
50662W        W93756  33.213  16.956  31.451  0.2179 -0.1168 -0.1784
50663W        W93757  33.520  16.810   0.687  0.0714  0.2523 -0.0169
50664W        W93758  32.978  19.011  28.338  0.0270 -0.2601  0.1820
50665W        W93759  33.324  15.322  28.823 -0.0619 -0.0938 -0.3043
50666W        W93760  34.241  19.326  28.716  0.3347  0.3417 -0.0333
50667W        W93761  32.202  17.675  28.135 -0.0131  0.1139 -0.0245
50668W        W93762  33.058  18.643  28.001  0.2815  0.1879  0.2227
50669W        W93763  32.559  15.844  29.412  0.0622  0.1584  0.0821
50670W        W93764  33.058  14.400  26.711  0.0999  0.0464 -0.2144
50671W        W93765   0.211  17.742   0.283 -0.0036 -0.0148 -0.1018
50672W        W93766  31.882  17.523  31.505 -0.1786 -0.1426  0.0296
50673W        W93767  32.895  15.585  28.535  0.2029  0.0722  0.1395
50674W        W93768  33.925  17.145  30.403 -0.0694  0.1640 -0.0932
50675W        W93769  34.092  16.583  26.822  0.2039 -0.3764  0.1731
50676W        W93770   0.265  18.518  30.036 -0.1209  0.1721  0.0810
50677W        W93771  34.375  17.948  29.594  0.1923 -0.0258  0.2421
50678W        W93772  33.081  18.368  28.813 -0.0420  0.2781  0.4114
50679W        W93773  33.268  14.531  29.524  0.0537 -0.2329 -0.0746
50680W        W93774  34.254  16.544  29.385 -0.0165 -0.1551  0.0799
50681W        W93775  33.839  17.246  28.807 -0.0603  0.1134  0.0122
50682W        W93776  33.851  16.649  29.730  0.2384  0.1631  0.0419
50683W        W93777   1.007  14.806  27.070  0.2072 -0.1763 -0.0581
50684W        W93778  33.932  16.494  28.162 -0.1114 -0.1590 -0.0472
50685W        W93779  31.978  16.376  29.309  0.2213  0.1138  0.1020
50686W        W93780  33.546  16.458  31.086  0.2029  0.0485  0.0090
50687W        W93781  34.092  15.278  28.517  0.1332 -0.0764  0.1890
50688W        W93782   1.039  19.489  27.314  0.0295  0.3103  0.1133
50689W        W93783  34.083  16.208  29.643  0.2526 -0.1479  0.1433
50690W        W93784   0.601  16.034  29.159  0.1314  0.1641  0.0879
50691W        W93785   0.118  16.250  29.202 -0.3162 -0.2003 -0.0998
50692W        W93786  33.525  17.827  27.855 -0.2537  0.0941 -0.1089
50693W        W93787  34.394  16.620  27.904 -0.1456 -0.1977  0.1073
50694W        W93788  34.629  18.046  29.980  0.0034 -0.0465 -0.1355
50695W        W93789  31.399  18.301  31.800 -0.2112  0.2573 -0.1028
50696W        W93790  31.457  17.684  27.441 -0.5180  0.2649  0.0383
50697W        W93791   0.667  15.937  30.588  0.0695  0.0525 -0.1728
50698W        W93792   0.029  16.801  27.481 -0.1147 -0.0361  0.2335
50699W        W93793  33.969  18.407  27.896 -0.0042 -0.1106 -0.3083
50700W        W93794   0.416  16.576  27.739 -0.0269  0.2734 -0.2926
50701W        W93795   0.443  13.982  29.922  0.2978  0.0169  0.1911
50702W        W93796   0.422  16.281  29.598 -0.0175 -0.0948 -0.2822
50703W        W93797  34.429  16.318  28.853  0.1658 -0.0848 -0.3746
50704W        W93798   0.171  16.213  28.577 -0.1363 -0.1837  0.1950
50705W        W93799  33.987  16.955  31.825 -0.1313  0.4183 -0.2331
50706W        W93800  32.451  15.477  30.608 -0.1322  0.0871  0.1162
50707W        W93801  34.333  16.067  31.382 -0.4805  0.0896  0.3519
50708W        W93802  32.414  16.495  30.662 -0.0082  0.2241  0.0768
50709W        W93803  33.954  14.493  27.194 -0.1362  0.1975 -0.1623
50710W        W93804  33.681  15.817  28.920 -0.0058 -0.0718  0.0999
50711W        W93805  34.640  15.558  28.162 -0.1122  0.0285 -0.0259
50712W        W93806  34.459  15.176  26.888  0.0149 -0.2428 -0.2331
50713W        W93807  32.651  16.615  29.518  0.0312 -0.0994  0.1355
50714W        W93808  34.451  17.849  31.873 -0.1413  0.0733 -0.1919
50715W        W93809  33.602  15.428  31.205  0.2980  0.2000  0.2072
50716W        W93810  32.369  14.858  29.334 -0.0015  0.1140 -0.0898
50717W        W93811  33.284  16.494  29.599 -0.1624  0.2229  0.2867
50718W        W93812  33.657  17.509  30.893  0.0395 -0.2041 -0.0618
50719W        W93813  33.229  18.407  31.289 -0.0921  0.1533  0.2809
50720W        W93814  32.684  14.673  29.883  0.1412  0.2467 -0.5298
50721W        W93815  34.238  17.680  31.441  0.0937 -0.0836 -0.0492
50722W        W93816  33.021  14.640  31.261  0.3839 -0.1272 -0.0765
50723W        W93817  33.855  16.129  31.227  0.0127 -0.0275 -0.0367
50724W        W93818  33.235  16.019  28.920 -0.2163 -0.0227 -0.0132
50725W        W93819  33.145  15.949  30.294 -0.0214 -0.2871 -0.2608
50726W        W93820   1.270  15.915  26.940 -0.0561  0.0861  0.2321
50727W        W93821  33.882  16.216  30.720  0.1063  0.4235  0.2765
50728W        W93822   0.154  15.818  27.326  0.2748 -0.2062  0.2021
50729W        W93823  33.303  17.872  31.550 -0.0629 -0.2976 -0.2501
50730W        W93824  33.395  13.527  29.867  0.0819 -0.2373 -0.3395
50731W        W93825  34.277  16.918  29.021 -0.1069  0.1482 -0.2468
50732W        W93826  33.587  17.635  28.429  0.1988 -0.1574 -0.2457
50733W        W93827  34.447  15.808  28.628  0.3044  0.1196  0.0075
50734W        W93828  33.936  17.099  30.877 -0.0982  0.1646  0.1575
50735W        W93829  32.364  16.047   0.413 -0.2474  0.3327  0.2037
50736W        W93830  33.391  16.427   1.618 -0.0022 -0.1762 -0.1446
50737W        W93831  33.693  16.244   0.768 -0.1526 -0.0795 -0.1160
50738W        W93832   0.154  17.068   0.175 -0.0827 -0.1254  0.0835
50739W        W93833  32.987  15.739  30.711  0.2453  0.1783 -0.0246
50740W        W93834  33.564  14.762  31.179 -0.3399 -0.1631  0.1032
50741W        W93835   0.050  16.142  31.130 -0.1469 -0.1027 -0.0844
50742W        W93836  32.631  16.738  30.299  0.1041 -0.1292 -0.3374
50743W        W93837  33.796  17.114   1.092  0.0162 -0.0480  0.1640
50744W        W93838  32.408  13.370   0.384 -0.4527 -0.0341  0.0362
50745W        W93839  32.952  16.449   1.195  0.1181 -0.0237  0.2376
50746W        W93840  32.155  15.498  31.622  0.0518  0.0789  0.0723
50747W        W93841   0.059  16.270  31.589 -0.0035 -0.2672  0.1603
50748W        W93842  33.977  16.601   0.248 -0.3296 -0.1300 -0.1385
50749W        W93843  32.421  19.027  30.509  0.1869  0.0999 -0.0319
50750W        W93844  33.460  15.803   0.845 -0.1445  0.1884 -0.3992
50751W        W93845  34.505  17.338  31.727 -0.3152  0.0571 -0.4330
50752W        W93846  34.683  16.701  31.282 -0.1086  0.0647 -0.3421
50753W        W93847  33.286  17.450  31.249  0.0670  0.0335  0.3263
50754W        W93848  32.550  14.246  31.817  0.4209  0.0588  0.0333
50755W        W93849  32.668  18.437  31.741  0.0031 -0.1542 -0.2841
50756W        W93850  32.254  17.467  31.853  0.1865 -0.3029 -0.2089
50757W        W93851  32.909  15.553   1.772 -0.1717  0.1720  0.1277
50758W        W93852  31.144  15.703  30.771 -0.0299  0.2087 -0.0523
50759W        W93853   0.195  17.826   0.796 -0.0864 -0.1203 -0.5033
50760W        W93854  33.774  15.185   0.651 -0.3574  0.1665 -0.0381
50761W        W93855  32.632  16.509   0.753 -0.0200 -0.0039  0.0916
50762W        W93856  33.697  13.978   0.451  0.1695  0.2209 -0.1177
50763W        W93857  31.653  18.748   0.164 -0.3000  0.0441 -0.1729
50764W        W93858  33.272  14.311   0.547 -0.3003 -0.1837 -0.0735
50765W        W93859  32.972  15.924   0.574  0.0374 -0.3511 -0.0268
50766W        W93860  33.219  15.373  31.901 -0.2446 -0.0121  0.0468
50767W        W93861   1.372  19.634  31.734 -0.0623 -0.1183  0.0465
50768W        W93862  33.148  16.494   0.716  0.1215 -0.0077  0.0838
50769W        W93863  33.648  15.994   1.699  0.3818 -0.0120 -0.1593
50770W        W93864  32.545  13.753   0.752  0.3173 -0.1011 -0.3259
50771W        W93865  34.359  17.135   0.235 -0.0590 -0.0952  0.4512
50772W        W93866  33.596  17.698   2.202 -0.1261  0.0974 -0.1251
50773W        W93867  31.821  15.468   0.522  0.0452 -0.1295 -0.1345
50774W        W93868  33.605  21.777  19.455  0.1722 -0.1449  0.3263
50775W        W93869  32.653  18.566  18.071  0.1752 -0.2944 -0.0997
50776W        W93870  32.673  18.473  17.519 -0.2670  0.1778 -0.2699
50777W        W93871  32.181  18.291  19.472 -0.0167 -0.1155  0.0847
50778W        W93872  33.716  18.884  19.616  0.0168  0.2060 -0.2018
50779W        W93873  34.504  21.308  20.395 -0.3599  0.1999  0.0775
50780W        W93874  34.068  18.619  17.108 -0.1357 -0.1328  0.0275
50781W        W93875  32.239  19.429  18.415  0.0743 -0.0537 -0.1020
50782W        W93876  32.660  20.590  16.689  0.1671 -0.1590  0.1855
50783W        W93877  34.603  19.900  19.481 -0.0222  0.1686  0.0540
50784W        W93878  33.941  19.569  16.930 -0.2809  0.1123  0.3929
50785W        W93879   0.418  19.134  19.418 -0.0652 -0.0087 -0.1487
50786W        W93880  34.049  20.881  17.270 -0.0481 -0.1385 -0.1770
50787W        W93881  33.846  20.107  15.970 -0.2175  0.1937  0.0165
50788W        W93882  32.929  20.210  17.362  0.2435 -0.0791 -0.0958
50789W        W93883  31.913  18.093  19.051 -0.5045 -0.1262  0.1505
50790W        W93884  34.253  20.616  16.918 -0.0827  0.1180 -0.1161
50791W        W93885   0.387  21.292  16.838  0.1989  0.3497 -0.0966
50792W        W93886  32.004  20.373  17.512 -0.2691 -0.0681  0.1510
50793W        W93887  31.225  22.563  16.887 -0.1017 -0.2077  0.0896
50794W        W93888   0.074  19.770  16.725 -0.0514 -0.2563 -0.2706
50795W        W93889  34.488  20.818  19.691  0.0890  0.1194 -0.1036
50796W        W93890  32.539  21.008  16.399  0.1152  0.0245  0.1894
50797W        W93891  33.801  22.130  19.956 -0.3361  0.1091  0.1939
50798W        W93892  33.456  21.948  16.833  0.1897  0.1082  0.1907
50799W        W93893  34.336  21.308  17.932  0.0765  0.1414  0.2230
50800W        W93894  34.389  19.717  19.902  0.0824 -0.2537  0.3602
50801W        W93895  32.917  21.109  18.952 -0.5359 -0.2241 -0.2261
50802W        W93896  33.781  21.444  18.622  0.2373 -0.1555  0.0430
50803W        W93897  34.079  20.698  16.462 -0.0813 -0.0182  0.3070
50804W        W93898  32.980  19.012  17.845  0.1549  0.0543 -0.3914
50805W        W93899  34.440  21.114  17.417  0.3194  0.1660 -0.3525
50806W        W93900  33.326  19.038  19.321  0.3276 -0.1144  0.0379
50807W        W93901  33.345  21.017  19.358 -0.0997 -0.2776  0.1002
50808W        W93902  33.956  19.345  17.378 -0.1400 -0.0231  0.1550
50809W        W93903  32.996  20.289  16.541  0.0802 -0.2911 -0.2121
50810W        W93904  33.882  20.190  17.709  0.2744 -0.2615 -0.0230
50811W        W93905  31.964  19.973  19.948 -0.0735  0.3127 -0.2073
50812W        W93906  33.631  18.480  16.845 -0.1639 -0.0701  0.0481
50813W        W93907  33.943  21.071  20.925  0.1115 -0.0177 -0.2165
50814W        W93908  34.063  20.884  20.158 -0.1586 -0.4426  0.1889
50815W        W93909  32.698  21.759  16.500  0.0465 -0.0698 -0.1671
50816W        W93910  34.294  19.839  16.674 -0.3244  0.0848  0.4953
50817W        W93911  32.392  20.034  18.050  0.1007 -0.1473  0.3458
50818W        W93912  33.159  20.087  18.662  0.1746  0.5285  0.2751
50819W        W93913  34.249  20.654  20.625 -0.0945 -0.1809 -0.1295
50820W        W93914  32.837  21.777  16.991  0.1155  0.0174 -0.0048
50821W        W93915  32.095  21.202  18.539 -0.0177 -0.1269 -0.0900
50822W        W93916  32.685  21.459  17.782  0.0339 -0.2652 -0.0759
50823W        W93917  32.216  18.452  18.333 -0.1330  0.1583 -0.2011
50824W        W93918  33.561  21.348  19.713 -0.0024 -0.1133  0.0684
50825W        W93919  32.001  19.110  19.442 -0.0931  0.3512  0.1816
50826W        W93920  33.462  19.420  17.118 -0.0323  0.1370 -0.0948
50827W        W93921  31.948  19.602  19.207 -0.2696 -0.0816 -0.2277
50828W        W93922  33.076  19.950  19.199  0.0123 -0.1465 -0.0348
50829W        W93923  32.668  17.436  19.354  0.0068  0.1569 -0.1018
50830W        W93924  32.254  18.168  17.862  0.0906  0.2744 -0.0750
50831W        W93925  32.066  19.245  17.659  0.1645  0.1612 -0.2434
50832W        W93926  33.616  19.742  17.798 -0.1696 -0.3447 -0.2630
50833W        W93927  32.365  19.467  16.722 -0.0706  0.1022 -0.0290
50834W        W93928  33.724  19.639  19.830 -0.0550  0.1722 -0.1262
50835W        W93929  33.541  19.363  16.634 -0.0778  0.2343  0.4598
50836W        W93930  33.407  22.314  18.280  0.0829  0.1975 -0.0901
50837W        W93931  32.439  20.161  17.376  0.0096  0.1112  0.1456
50838W        W93932  34.652  18.735  17.713  0.1015 -0.2185 -0.0842
50839W        W93933  33.992  20.112  19.076 -0.1850 -0.0566  0.0488
50840W        W93934  32.826  19.785  16.626  0.0445 -0.1144  0.3534
50841W        W93935  33.071  20.857  16.524  0.1638 -0.2205 -0.0323
50842W        W93936  32.475  20.138  16.412 -0.1251  0.1399 -0.1258
50843W        W93937  33.235  21.709  17.643  0.1518  0.0509 -0.0932
50844W        W93938  32.519  20.052  21.359  0.1007 -0.2172 -0.0939
50845W        W93939  32.683  20.616  17.322  0.0885 -0.3045 -0.1385
50846W        W93940  33.726  20.422  20.132  0.1871  0.2926 -0.3108
50847W        W93941  34.268  20.535  18.856  0.0985  0.1413 -0.0203
50848W        W93942  34.435  20.631  17.430 -0.3313 -0.1753 -0.0579
50849W        W93943   0.955  19.571  18.470  0.2926 -0.4374 -0.1559
50850W        W93944  31.707  20.366  17.102  0.0985  0.0180 -0.0290
50851W        W93945  32.938  18.503  19.787 -0.1002  0.1162 -0.2073
50852W        W93946  34.152  21.409  17.055  0.1575 -0.2303 -0.2596
50853W        W93947  31.771  22.699  16.591 -0.1322 -0.3235  0.0143
50854W        W93948  32.602  18.147  20.440 -0.2111 -0.1371 -0.0634
50855W        W93949  32.051  21.197  16.463  0.3327 -0.0807  0.1121
50856W        W93950   0.189  19.522  18.553  0.1703  0.0212  0.2323
50857W        W93951  32.892  20.285  19.575 -0.3400  0.0792 -0.3431
50858W        W93952  33.395  21.319  20.299  0.0285  0.0913  0.0716
50859W        W93953   0.490  18.029  18.820 -0.0435  0.1932 -0.1028
50860W        W93954  33.101  21.764  18.426  0.1377 -0.1423  0.5368
50861W        W93955  33.214  20.957  15.958 -0.1634 -0.3707 -0.1058
50862W        W93956  32.963  18.867  18.342  0.0458  0.1307 -0.0904
50863W        W93957   1.182  20.277  19.035  0.0845  0.1160 -0.1547
50864W        W93958  32.753  21.063  15.849 -0.1660 -0.2589 -0.0082
50865W        W93959  33.988  20.264  17.195 -0.0832  0.0628 -0.2727
50866W        W93960  31.804  21.226  18.027 -0.0344 -0.0863  0.0722
50867W        W93961  34.302  20.262  15.688  0.2212 -0.0177 -0.3052
50868W        W93962  31.080  20.687  17.193  0.1091 -0.1980  0.2352
50869W        W93963  33.236  19.324  18.080 -0.0041  0.1125  0.0657
50870W        W93964   0.212  19.029  18.578 -0.3168 -0.2243  0.0020
50871W        W93965  32.194  21.526  18.176  0.0711  0.1720  0.1651
50872W        W93966   0.530  18.631  20.561 -0.0252 -0.0141  0.1687
50873W        W93967  31.404  18.823  16.567 -0.2888 -0.3018 -0.0762
50874W        W93968  32.763  19.837  17.695 -0.1798 -0.2149  0.0235
50875W        W93969  33.409  20.448  18.380 -0.0155 -0.1324  0.1948
50876W        W93970  32.759  19.405  18.257  0.0363  0.1457  0.2177
50877W        W93971  34.375  19.272  16.757  0.0188 -0.3139  0.0326
50878W        W93972  32.427  18.808  21.407 -0.2023  0.0138  0.1523
50879W        W93973   0.440  19.928  18.717 -0.4531 -0.0870  0.1371
50880W        W93974  32.681  20.191  16.925  0.1355  0.0977  0.1178
50881W        W93975  34.568  21.356  18.827  0.2431  0.4803 -0.2372
50882W        W93976  33.611  19.860  19.312  0.0943  0.1744 -0.2370
50883W        W93977  34.058  21.294  19.885  0.2796 -0.0716  0.1074
50884W        W93978  33.711  20.152  16.804 -0.3267  0.0586 -0.0686
50885W        W93979  33.107  19.907  18.095  0.1689 -0.1775  0.1766
50886W        W93980  33.005  22.057  17.926 -0.1237 -0.0936 -0.0263
50887W        W93981   0.065  19.394  19.610 -0.0496 -0.3501  0.3560
50888W        W93982  33.170  22.021  19.221  0.1212 -0.2178 -0.1111
50889W        W93983  32.306  21.924  16.267  0.2214  0.0179 -0.0170
50890W        W93984  33.385  21.723  18.881 -0.1341  0.2024 -0.1708
50891W        W93985   0.314  20.054  19.264  0.2226  0.1448  0.0020
50892W        W93986  32.355  18.187  18.771 -0.1062  0.0189 -0.2665
50893W        W93987  32.630  19.149  18.670 -0.4652 -0.0730  0.0109
50894W        W93988  33.301  19.517  21.424  0.1498  0.0236 -0.0332
50895W        W93989  32.084  19.811  17.730 -0.0189  0.1776  0.3129
50896W        W93990  33.052  20.683  19.122  0.1258  0.2096 -0.0436
50897W        W93991  34.511  21.062  16.815 -0.0014  0.1407  0.1967
50898W        W93992  33.204  21.452  19.243  0.1153 -0.2375  0.2111
50899W        W93993   0.355  20.352  16.763 -0.0631  0.2700  0.1601
50900W        W93994  33.960  19.685  18.204  0.2822 -0.0002  0.0394
50901W        W93995  33.738  19.343  19.372 -0.1799  0.0608 -0.0411
50902W        W93996  34.522  20.971  19.157  0.0835  0.0911 -0.2435
50903W        W93997  32.235  17.399  20.216  0.4049  0.0012 -0.0185
50904W        W93998  33.495  19.675  18.312 -0.4476 -0.0836 -0.2932
50905W        W93999  33.671  19.138  16.100 -0.1552  0.2907  0.1648
50906W        W94000  34.168  21.730  16.175 -0.0639 -0.1849  0.1330
50907W        W94001  33.215  19.370  18.629  0.3133  0.0873 -0.0163
50908W        W94002  33.746  21.664  20.115 -0.1486 -0.1631  0.2930
50909W        W94003  32.228  20.624  16.483 -0.4580 -0.1503 -0.2998
50910W        W94004  33.517  21.820  15.778 -0.4567  0.0158  0.4549
50911W        W94005   0.355  21.267  18.730 -0.3138 -0.0771 -0.2806
50912W        W94006  34.667  17.752  16.229  0.1053  0.0147  0.0213
50913W        W94007  33.987  21.715  17.916 -0.1130  0.1175 -0.2054
50914W        W94008  32.510  20.358  20.445 -0.0625 -0.2365  0.2629
50915W        W94009  33.345  20.339  19.386  0.3494 -0.3361  0.1509
50916W        W94010  33.511  21.601  18.184  0.0500  0.2417 -0.1516
50917W        W94011  33.707  20.605  17.995 -0.0017 -0.0967  0.1743
50918W        W94012  34.033  21.072  18.916 -0.1715 -0.0412  0.2296
50919W        W94013  34.128  21.116  19.436  0.1173  0.0494 -0.0094
50920W        W94014  32.606  19.371  20.293  0.3680 -0.1199 -0.2473
50921W        W94015  34.442  17.949  17.568  0.0242 -0.0067 -0.3383
50922W        W94016  33.390  21.292  21.514  0.2375  0.0889 -0.0193
50923W        W94017  32.183  21.173  19.375  0.0540 -0.1574  0.0814
50924W        W94018  32.356  21.036  16.883  0.2960 -0.2207  0.0488
50925W        W94019  34.304  19.843  16.074 -0.0080 -0.1176  0.1977
50926W        W94020  33.164  21.300  18.542 -0.0572 -0.0286  0.0019
50927W        W94021  32.975  21.339  16.226  0.3265  0.3544 -0.1850
50928W        W94022  34.136  20.625  17.825  0.2331  0.0650 -0.0170
50929W        W94023  34.261  20.080  18.049 -0.2146  0.0271  0.1896
50930W        W94024   0.247  17.939  16.615  0.1561  0.2614 -0.0460
50931W        W94025  34.078  19.311  19.783 -0.1439 -0.1056 -0.0430
50932W        W94026  33.492  22.350  20.676 -0.4302  0.2149  0.0317
50933W        W94027  33.348  18.938  16.863 -0.2445  0.1016 -0.0398
50934W        W94028  34.086  20.465  18.281 -0.3385 -0.0061 -0.1753
50935W        W94029  33.157  20.559  16.937 -0.1730  0.1234 -0.1862
50936W        W94030   0.834  23.173  17.539  0.1543 -0.0187  0.1812
50937W        W94031  33.842  22.271  19.437 -0.1630  0.0251  0.3384
50938W        W94032   0.846  21.216  18.421 -0.0856  0.2219  0.0092
50939W        W94033  33.040  18.898  17.311 -0.0264  0.1430  0.2457
50940W        W94034  32.813  20.525  20.095 -0.0115 -0.2772  0.6081
50941W        W94035  33.204  18.567  17.980 -0.2132 -0.2371 -0.1579
50942W        W94036  33.585  19.023  18.857 -0.1836 -0.1952 -0.1099
50943W        W94037   0.125  20.129  16.400  0.2764  0.5973  0.0541
50944W        W94038  33.049  19.419  16.827 -0.0821  0.0004  0.4709
50945W        W94039  33.719  19.815  17.357 -0.1337  0.0677  0.4439
50946W        W94040   0.267  19.620  19.111 -0.1577 -0.3830 -0.1042
50947W        W94041  31.929  19.848  18.220 -0.3411 -0.2460  0.3282
50948W        W94042  33.245  21.419  17.082 -0.2188 -0.1806  0.2543
50949W        W94043  32.810  18.898  19.515  0.0085  0.0341  0.2019
50950W        W94044  34.150  20.058  18.620  0.1872 -0.5033  0.1333
50951W        W94045  32.684  21.496  18.479 -0.1701  0.0904 -0.0595
50952W        W94046  33.105  20.599  17.978 -0.2576  0.0215  0.0404
50953W        W94047  34.040  21.797  16.720 -0.1919  0.0008  0.0295
50954W        W94048  33.830  21.882  19.030  0.0066  0.1288 -0.0205
50955W        W94049   0.006  22.927  20.945  0.0382 -0.0684 -0.1259
50956W        W94050  31.784  20.799  16.279  0.3081 -0.0414  0.0510
50957W        W94051  34.270  18.741  19.943 -0.1823 -0.2267  0.0526
50958W        W94052  34.681  21.479  17.095  0.2628 -0.0857 -0.1803
50959W        W94053  33.801  21.921  18.491  0.0187  0.1057 -0.0434
50960W        W94054   1.356  18.884  18.038 -0.0388 -0.0115  0.3240
50961W        W94055  33.425  20.956  18.272 -0.3334  0.0273 -0.1347
50962W        W94056  33.727  20.098  18.156 -0.0035 -0.2929  0.2964
50963W        W94057  32.662  19.171  16.988  0.3389 -0.1298 -0.0823
50964W        W94058  33.204  20.434  16.093  0.1788 -0.0543 -0.3238
50965W        W94059  33.659  20.628  16.979  0.4006 -0.2844 -0.0054
50966W        W94060   0.093  19.509  20.150 -0.2680 -0.1006 -0.0041
50967W        W94061  32.222  18.864  20.212  0.0140 -0.1803  0.1695
50968W        W94062  31.271  20.273  17.365  0.1441  0.0145 -0.1044
50969W        W94063  33.219  19.787  17.393 -0.1539  0.0488 -0.2309
50970W        W94064  32.258  18.647  17.816  0.1812 -0.0620 -0.0611
50971W        W94065  31.940  20.790  17.784 -0.1963 -0.2736 -0.1675
50972W        W94066  33.741  19.195  17.825  0.0403  0.2527  0.0056
50973W        W94067  31.862  21.162  15.675  0.3676  0.0269  0.0285
50974W        W94068   0.019  18.238  18.649 -0.2358  0.0675 -0.2023
50975W        W94069  32.780  18.053  19.976  0.3044 -0.0200  0.2229
50976W        W94070  33.222  17.538  17.188 -0.2001  0.1360  0.2968
50977W        W94071  32.418  19.543  19.035  0.1711 -0.1190 -0.0405
50978W        W94072  34.279  21.610  19.233  0.0124 -0.1747 -0.3242
50979W        W94073  33.811  20.496  20.994  0.1911  0.0472 -0.1033
50980W        W94074  31.598  18.806  18.443  0.0117 -0.0660  0.1397
50981W        W94075  34.092  21.644  20.726  0.0356  0.1658 -0.0281
50982W        W94076  32.217  17.651  19.311 -0.1776  0.1654 -0.0212
50983W        W94077  32.495  19.992  20.799 -0.0828  0.1748  0.1070
50984W        W94078  32.831  18.226  18.910  0.1336 -0.1502  0.0247
50985W        W94079  34.094  19.777  19.452  0.2262  0.4679 -0.0623
50986W        W94080  34.544  19.533  16.352  0.2977 -0.3409 -0.1792
50987W        W94081  34.586  19.949  18.932  0.1968 -0.1991  0.1030
50988W        W94082  34.095  20.212  16.408  0.1053  0.2250 -0.0509
50989W        W94083   0.483  22.025  19.570 -0.2221 -0.0618 -0.1399
50990W        W94084  32.064  18.685  18.777  0.3781  0.0035  0.4092
50991W        W94085  34.435  19.307  17.588 -0.3122 -0.0175 -0.1380
50992W        W94086  34.616  20.535  16.602 -0.2326 -0.0749  0.1475
50993W        W94087  34.408  20.171  17.571 -0.0998 -0.0600 -0.2638
50994W        W94088   0.168  21.109  20.080 -0.0507 -0.1895 -0.1396
50995W        W94089  34.053  20.125  22.663  0.5206  0.0003  0.1070
50996W        W94090  33.063  20.279  20.483 -0.0150 -0.0017 -0.1163
50997W        W94091  32.846  18.773  21.148 -0.1057  0.0247 -0.0913
50998W        W94092  33.109  18.031  22.795 -0.0883 -0.1809  0.0122
50999W        W94093  33.684  18.795  22.120  0.0038  0.2743  0.0991
51000W        W94094  34.446  20.953  22.345  0.1569  0.0332  0.1447
51001W        W94095  32.753  18.545  20.239 -0.0999 -0.0197 -0.1286
51002W        W94096  32.674  17.847  22.726  0.2847 -0.1060  0.1127
51003W        W94097  32.874  20.044  20.019 -0.0639 -0.0489 -0.1734
51004W        W94098   0.226  19.526  21.843 -0.0217 -0.1939  0.0349
51005W        W94099   0.288  19.912  20.795 -0.0784  0.0008  0.1802
51006W        W94100  34.091  18.359  23.490 -0.1661  0.0232  0.3693
51007W        W94101   0.565  20.205  21.172  0.0901  0.1035 -0.0622
51008W        W94102  32.425  20.271  19.865 -0.1131  0.0465 -0.0735
51009W        W94103  31.941  18.229  22.291 -0.2246  0.4027  0.0775
51010W        W94104  34.610  20.553  22.628  0.2300  0.1100 -0.2612
51011W        W94105  33.283  22.184  22.969  0.1099 -0.1484  0.0100
51012W        W94106   1.108  20.298  23.041  0.0640  0.2913 -0.1463
51013W        W94107  33.291  19.513  22.821  0.1106 -0.0155  0.0750
51014W        W94108  32.212  21.445  22.239 -0.2038 -0.0761 -0.0058
51015W        W94109   0.369  21.558  21.839 -0.0621  0.1781  0.1518
51016W        W94110  34.651  23.479  23.353  0.2654  0.0022  0.0737
51017W        W94111  33.442  21.173  20.831  0.0709  0.3469  0.3204
51018W        W94112  32.907  21.426  23.727  0.0104  0.0334 -0.0368
51019W        W94113   0.323  21.354  20.496  0.2427 -0.1943  0.1288
51020W        W94114  34.465  21.218  20.940 -0.3322  0.1310  0.0833
51021W        W94115  33.792  19.189  22.509 -0.1537 -0.2190  0.0047
51022W        W94116  33.667  20.314  22.339 -0.1324 -0.0093  0.2795
51023W        W94117  34.451  21.482  22.132  0.0069 -0.0718  0.1887
51024W        W94118  32.589  18.613  18.613  0.2101 -0.1222  0.3781
51025W        W94119  33.577  18.495  20.519 -0.0199  0.0357 -0.0582
51026W        W94120  34.600  20.135  22.918 -0.1385  0.0168 -0.0945
51027W        W94121  34.177  19.093  21.674  0.3428  0.0814  0.0779
51028W        W94122  32.334  21.674  23.043  0.0977 -0.2797 -0.1367
51029W        W94123  32.908  19.182  22.558  0.0381  0.1042  0.0624
51030W        W94124  32.848  20.417  21.165  0.3267 -0.1363 -0.2329
51031W        W94125  33.820  20.834  23.983  0.0238  0.1846 -0.1785
51032W        W94126  32.798  20.267  23.431  0.4310 -0.1266  0.0606
51033W        W94127  32.469  18.509  19.131  0.2825 -0.0624  0.2416
51034W        W94128  33.690  21.078  23.269 -0.1961 -0.1802  0.1700
51035W        W94129  34.554  19.894  21.527 -0.0502 -0.0404 -0.2281
51036W        W94130   0.584  19.253  21.429  0.2793  0.0334 -0.2119
51037W        W94131  32.902  19.015  20.517  0.1151  0.0002  0.0180
51038W        W94132  34.431  21.142  23.526 -0.0771 -0.4972  0.1396
51039W        W94133  32.602  18.756  22.986  0.2443  0.1643  0.0852
51040W        W94134   0.401  21.373  23.587 -0.0169 -0.0991  0.2262
51041W        W94135  32.382  20.710  21.623  0.2063  0.0120 -0.3553
51042W        W94136  31.825  21.251  22.004  0.0045 -0.0309 -0.2522
51043W        W94137  33.718  20.797  20.508  0.0027 -0.1276  0.0317
51044W        W94138  32.141  18.440  21.820 -0.0856  0.0949 -0.1526
51045W        W94139   0.192  19.965  22.052  0.0847  0.0320  0.2399
51046W        W94140  33.039  18.515  22.699  0.2059 -0.2092 -0.0303
51047W        W94141  33.367  20.863  21.724  0.2977  0.4173  0.1631
51048W        W94142  33.244  19.975  22.622 -0.0183  0.0776  0.0030
51049W        W94143  33.573  19.178  20.727  0.1059 -0.0351 -0.0042
51050W        W94144  33.725  18.202  21.920  0.1417  0.0981  0.0147
51051W        W94145  32.839  18.742  21.780  0.0033 -0.3288  0.2529
51052W        W94146  32.997  18.294  21.145  0.2088  0.3227 -0.4680
51053W        W94147  33.759  17.848  21.020 -0.1561  0.0547  0.0397
51054W        W94148  33.738  19.368  21.626  0.0098  0.2700 -0.2366
51055W        W94149  34.562  18.205  21.636 -0.0283  0.1169 -0.2310
51056W        W94150  33.809  18.934  20.162  0.0328 -0.1883 -0.0229
51057W        W94151  33.282  21.148  22.625  0.0385 -0.0015 -0.2121
51058W        W94152   0.348  20.642  21.312  0.0615 -0.0430  0.0935
51059W        W94153  34.544  19.826  21.000  0.2676  0.3861 -0.1182
51060W        W94154  33.082  21.351  24.225  0.0431  0.0273  0.1025
51061W        W94155  31.451  18.118  19.834  0.0588 -0.1565 -0.0691
51062W        W94156  33.050  20.923  21.353 -0.1366  0.2266  0.0332
51063W        W94157  33.782  19.974  21.702 -0.1616 -0.1728  0.0285
51064W        W94158   0.660  21.251  22.048  0.0537  0.3010  0.1317
51065W        W94159  33.251  20.101  24.089  0.3434  0.1320 -0.2944
51066W        W94160  33.346  19.908  20.174  0.2194 -0.1568 -0.0325
51067W        W94161  32.545  21.876  22.598 -0.0363 -0.0235  0.3129
51068W        W94162  32.334  19.499  23.598  0.1923  0.1825  0.1119
51069W        W94163   0.056  21.099  21.386  0.0367  0.3739  0.3595
51070W        W94164  34.628  20.686  21.073  0.0037 -0.1455  0.1697
51071W        W94165  33.491  20.186  24.693  0.0607 -0.0070 -0.1905
51072W        W94166  34.301  18.445  22.457  0.2335  0.2657  0.1175
51073W        W94167  32.386  19.428  21.430 -0.1233  0.3823 -0.0675
51074W        W94168  32.834  22.121  21.333  0.0404  0.2389  0.2018
51075W        W94169  33.838  18.935  24.027  0.1504  0.1464  0.1239
51076W        W94170  32.409  19.834  20.298 -0.1482 -0.2038 -0.3035
51077W        W94171  34.136  18.909  22.304  0.2598 -0.1346 -0.1959
51078W        W94172  33.511  19.861  23.745 -0.1023  0.0050  0.0084
51079W        W94173  32.215  21.644  21.753 -0.2173 -0.0137 -0.2237
51080W        W94174   1.283  19.119  21.973  0.0703 -0.0254 -0.2520
51081W        W94175  33.842  20.985  21.661 -0.3185  0.1625  0.0016
51082W        W94176  33.985  19.814  20.774 -0.0828  0.4882 -0.0480
51083W        W94177   0.683  17.905  21.754  0.0726 -0.7345 -0.2745
51084W        W94178   0.394  20.726  21.841  0.3368 -0.0257 -0.0724
51085W        W94179   0.539  21.937  20.055  0.2796 -0.1396 -0.2254
51086W        W94180  32.566  20.589  22.076  0.3102 -0.1054 -0.0988
51087W        W94181  33.688  20.631  23.042  0.0741 -0.2925  0.1634
51088W        W94182  32.080  18.174  21.423 -0.3284 -0.3131  0.2009
51089W        W94183  32.261  19.866  21.723  0.0286 -0.0220  0.2056
51090W        W94184  34.101  19.038  23.152  0.1705 -0.1877 -0.2971
51091W        W94185  34.554  17.665  22.430  0.0124 -0.2308  0.0672
51092W        W94186  31.763  21.687  21.517  0.0231  0.2914  0.2315
51093W        W94187  33.979  19.831  22.165  0.1300 -0.0446  0.0953
51094W        W94188  33.290  18.761  20.863 -0.0360 -0.0001  0.0792
51095W        W94189  33.396  19.378  22.295 -0.1660  0.2412  0.2653
51096W        W94190  33.441  21.155  22.146 -0.3742 -0.1318 -0.0954
51097W        W94191  32.872  19.400  21.879  0.0856  0.2032  0.1843
51098W        W94192  34.114  20.542  22.358 -0.0775 -0.1848 -0.2051
51099W        W94193  32.757  19.674  22.717 -0.1486 -0.0833  0.1460
51100W        W94194  34.569  18.910  22.636 -0.0790  0.0061 -0.0406
51101W        W94195  33.223  17.440  22.064 -0.0748 -0.0614  0.1126
51102W        W94196  34.463  19.032  21.116  0.0699  0.0571 -0.6441
51103W        W94197  33.032  19.918  23.702 -0.0346 -0.0518 -0.4635
51104W        W94198  33.187  19.759  24.556 -0.1102 -0.2266  0.0791
51105W        W94199  33.633  20.214  20.578  0.2239 -0.2717  0.2539
51106W        W94200  33.270  20.332  23.403 -0.2956  0.3470 -0.3139
51107W        W94201  33.732  20.732  22.047 -0.2384 -0.1967  0.2998
51108W        W94202  34.332  19.625  21.867  0.0069  0.0654  0.2924
51109W        W94203   0.342  20.844  22.853 -0.3303 -0.0673 -0.0605
51110W        W94204  34.178  20.436  23.042 -0.0328 -0.0351 -0.4305
51111W        W94205  31.613  21.578  22.494 -0.1325  0.0012  0.2173
51112W        W94206   0.218  18.875  21.329 -0.2851  0.3699  0.0100
51113W        W94207  33.726  18.769  21.536  0.2619  0.0674  0.2088
51114W        W94208  31.800  18.971  23.297  0.0997  0.0531 -0.0041
51115W        W94209  32.869  20.827  23.490  0.3674  0.1719 -0.0337
51116W        W94210  33.409  18.211  20.847 -0.3149  0.3235 -0.3389
51117W        W94211  34.268  20.771  21.914  0.2580  0.2071 -0.4217
51118W        W94212   0.703  21.224  20.019  0.1670  0.2540 -0.1173
51119W        W94213  34.674  20.433  22.089 -0.0436 -0.1017  0.0314
51120W        W94214  34.384  20.363  19.419 -0.1362 -0.0055  0.0118
51121W        W94215  33.227  18.317  20.173  0.2702 -0.0271  0.0545
51122W        W94216  33.907  17.834  23.286  0.0054 -0.1283 -0.1507
51123W        W94217  34.647  18.883  23.170 -0.0738 -0.1094 -0.0964
51124W        W94218  32.662  20.181  22.931 -0.1854 -0.0058  0.1888
51125W        W94219  33.406  19.073  21.273 -0.1186  0.1423 -0.0164
51126W        W94220  31.998  19.273  21.103  0.1063  0.2604  0.1196
51127W        W94221   0.555  22.075  21.854 -0.2811  0.2258 -0.0805
51128W        W94222  33.264  19.113  21.731 -0.2180  0.0623  0.0215
51129W        W94223  32.727  22.216  23.283 -0.2053 -0.1109  0.2651
51130W        W94224  32.354  17.470  20.679  0.0934 -0.0500 -0.1983
51131W        W94225   0.769  21.704  20.925 -0.0332 -0.0581 -0.0423
51132W        W94226  33.508  19.934  23.090 -0.1993 -0.1446 -0.0500
51133W        W94227   0.002  18.429  21.190 -0.1450  0.3336  0.2939
51134W        W94228  31.939  20.354  20.304 -0.0620 -0.2796  0.0416
51135W        W94229  34.292  22.249  24.371  0.2653  0.0040 -0.1961
51136W        W94230  32.190  20.412  22.803  0.0728  0.3480 -0.2226
51137W        W94231  32.929  21.444  22.675  0.0953  0.1606  0.0649
51138W        W94232  33.780  20.467  21.617  0.0685 -0.0743  0.2418
51139W        W94233  32.881  19.739  20.493  0.2608 -0.3065  0.0134
51140W        W94234  33.413  20.377  21.889  0.0090  0.1654 -0.0223
51141W        W94235  32.082  19.439  21.847  0.0769  0.2437 -0.0158
51142W        W94236  33.780  18.064  20.395 -0.1566  0.1918 -0.0663
51143W        W94237  32.075  22.399  23.760  0.2734 -0.1457  0.1678
51144W        W94238  33.740  19.547  21.146  0.0326 -0.4589  0.1952
51145W        W94239   0.199  21.462  20.999  0.4699  0.0048 -0.2572
51146W        W94240  31.878  18.637  19.803  0.3171  0.0391 -0.3641
51147W        W94241  33.508  19.828  22.077  0.1804 -0.1881 -0.1434
51148W        W94242  33.545  19.996  21.075  0.2514  0.0210 -0.0554
51149W        W94243  34.348  21.249  21.734 -0.2484 -0.1408  0.1728
51150W        W94244  34.664  19.380  21.477 -0.1205  0.2265 -0.4987
51151W        W94245  33.181  18.023  19.519 -0.0182 -0.1651  0.1640
51152W        W94246  32.697  20.599  24.716  0.0432  0.4122  0.2606
51153W        W94247  33.741  21.983  23.113 -0.0071 -0.4800 -0.2136
51154W        W94248  31.926  17.772  21.603 -0.3198 -0.0568 -0.1297
51155W        W94249  32.976  19.555  19.963  0.1475  0.0098  0.0210
51156W        W94250  34.341  19.591  20.405  0.0424  0.0275 -0.3021
51157W        W94251   0.677  21.913  21.365  0.2388 -0.0611  0.2472
51158W        W94252  34.141  20.249  21.899 -0.0076 -0.0757 -0.0144
51159W        W94253   0.863  20.766  22.166  0.1050 -0.1103  0.0018
51160W        W94254  32.835  19.188  21.377  0.1016 -0.2521 -0.1976
51161W        W94255  34.164  18.845  23.606  0.0060  0.0151  0.4185
51162W        W94256  32.508  18.790  20.708  0.0180 -0.0100 -0.0435
51163W        W94257   0.039  19.664  22.465 -0.0027 -0.1746 -0.1291
51164W        W94258  33.882  19.396  20.363 -0.0423  0.0211 -0.0745
51165W        W94259  33.003  18.414  20.704  0.1144 -0.2530  0.3161
51166W        W94260  32.691  17.997  19.441  0.0719 -0.0037  0.2057
51167W        W94261  32.768  20.205  24.171  0.1444 -0.0089  0.0394
51168W        W94262  33.213  18.407  21.864 -0.0957 -0.1808  0.2718
51169W        W94263  33.385  21.609  22.895 -0.1348  0.1223 -0.0775
51170W        W94264  33.019  19.748  22.223  0.3243  0.1205  0.2364
51171W        W94265  34.483  19.171  19.959 -0.0175 -0.0621 -0.2143
51172W        W94266  33.305  19.387  20.306  0.3090  0.2067 -0.1757
51173W        W94267  33.225  20.727  22.250  0.2974 -0.1191 -0.0792
51174W        W94268  33.930  21.284  20.396  0.2276 -0.2140 -0.0790
51175W        W94269   0.024  20.133  23.876  0.2661  0.0280  0.1105
51176W        W94270  33.627  20.810  22.539  0.1572  0.1633 -0.2377
51177W        W94271  32.907  20.526  21.676 -0.0102 -0.1462  0.1689
51178W        W94272  34.146  21.604  23.696 -0.0233  0.0124 -0.2827
51179W        W94273   0.602  19.501  20.662  0.0896  0.0211 -0.2876
51180W        W94274  34.404  22.034  22.203 -0.4151 -0.1634 -0.0344
51181W        W94275   0.366  19.008  19.913  0.3467 -0.0507 -0.1686
51182W        W94276  32.170  18.764  22.419 -0.0741  0.0331  0.0327
51183W        W94277  34.019  19.715  23.886  0.0232  0.3380  0.1254
51184W        W94278  32.472  19.141  21.016 -0.0064  0.2332  0.1902
51185W        W94279  33.598  20.863  21.237  0.2046  0.1928  0.0917
51186W        W94280   0.327  20.250  21.622 -0.1912  0.1415  0.0275
51187W        W94281  33.703  18.702  23.291 -0.3049  0.0894 -0.2059
51188W        W94282  33.955  19.305  22.066  0.0579 -0.1117 -0.0518
51189W        W94283  33.107  19.362  20.897 -0.1833  0.2673 -0.1066
51190W        W94284  32.394  18.716  19.716  0.0279  0.2318 -0.0009
51191W        W94285  33.362  17.083  21.730  0.1273  0.0283  0.3877
51192W        W94286  32.135  17.952  20.426 -0.2971  0.2272  0.3470
51193W        W94287  34.250  17.822  20.289  0.1505 -0.0990 -0.0923
51194W        W94288  32.136  19.488  19.953  0.0024  0.1911  0.5218
51195W        W94289   0.375  19.825  22.903 -0.0858  0.2601  0.0096
51196W        W94290  33.375  18.379  22.327 -0.0700  0.2035  0.0975
51197W        W94291  30.597  20.179  20.474 -0.1356  0.1626  0.2722
51198W        W94292   0.518  19.716  22.351 -0.1047  0.3345 -0.2198
51199W        W94293  34.682  21.698  23.686 -0.0896  0.0708 -0.1136
51200W        W94294  33.955  22.781  24.706  0.3898 -0.2032  0.1749
51201W        W94295  33.368  18.906  23.633 -0.3427  0.4361 -0.0498
51202W        W94296  33.105  21.916  22.530  0.1204 -0.1693  0.1715
51203W        W94297  33.373  18.884  22.578 -0.2111 -0.1536 -0.2128
51204W        W94298  33.600  20.359  23.804  0.3900  0.2123 -0.2022
51205W        W94299  32.478  18.337  21.089  0.0075 -0.3086 -0.1274
51206W        W94300  33.989  18.990  21.175 -0.0371 -0.0978 -0.1670
51207W        W94301  33.060  18.934  18.835 -0.1327  0.0454 -0.1504
51208W        W94302  34.366  20.891  24.015 -0.2706 -0.3276 -0.0122
51209W        W94303  32.737  17.238  20.035  0.0196 -0.1512  0.0172
51210W        W94304   0.112  21.458  23.242 -0.3864  0.0427  0.0563
51211W        W94305  34.163  18.586  21.935 -0.0376 -0.2142  0.2327
51212W        W94306   0.970  18.663  20.829 -0.0608 -0.1369  0.1956
51213W        W94307   0.021  20.250  21.174 -0.0278  0.0758  0.1966
51214W        W94308  34.205  17.963  21.872  0.2402 -0.3075  0.1899
51215W        W94309  33.707  21.555  23.440 -0.0910  0.0564  0.1620
51216W        W94310  32.679  21.913  27.312 -0.1594 -0.0343  0.2077
51217W        W94311  32.466  19.813  23.232  0.2367  0.3526  0.2504
51218W        W94312  32.606  18.116  25.156 -0.0638  0.2511  0.2678
51219W        W94313  33.662  17.685  25.935  0.2007  0.0203  0.1201
51220W        W94314  34.383  21.143  26.595  0.0173  0.1441  0.1586
51221W        W94315  33.858  23.552  27.364 -0.0795 -0.2009  0.4781
51222W        W94316   0.497  18.497  23.929 -0.1144  0.0965 -0.0038
51223W        W94317  32.557  18.763  25.951 -0.0347  0.1610  0.1654
51224W        W94318  33.455  21.090  24.373  0.0165 -0.3544  0.0387
51225W        W94319  33.953  20.055  25.628  0.1296  0.0420 -0.1059
51226W        W94320  32.480  19.779  26.034  0.0803 -0.1639 -0.2085
51227W        W94321  33.871  19.085  26.152  0.4139  0.1777 -0.2757
51228W        W94322  34.527  20.861  24.848 -0.0238 -0.2586  0.0457
51229W        W94323  32.260  20.300  23.275  0.0578 -0.0508 -0.1423
51230W        W94324  33.033  20.506  25.572 -0.1744  0.1393 -0.0365
51231W        W94325  34.248  18.930  26.447  0.1064 -0.0618 -0.1029
51232W        W94326   0.610  21.190  26.011  0.2520  0.1585  0.2363
51233W        W94327   1.008  21.012  24.574  0.1831 -0.0461 -0.3518
51234W        W94328  33.149  20.133  26.056  0.1550 -0.1266 -0.0565
51235W        W94329  32.345  22.464  25.548  0.4358 -0.1877  0.1119
51236W        W94330  33.561  20.371  25.632 -0.1321  0.2974  0.0459
51237W        W94331  33.681  21.889  27.030  0.0653  0.2181 -0.0117
51238W        W94332  34.104  21.420  25.335 -0.3436  0.0546  0.0777
51239W        W94333   0.083  20.904  28.077 -0.0090  0.2308 -0.0979
51240W        W94334  33.804  20.129  25.162  0.0090 -0.0073  0.4357
51241W        W94335  34.197  20.873  25.615  0.3692 -0.1310  0.1738
51242W        W94336  34.225  21.705  27.769 -0.3464 -0.0925 -0.3658
51243W        W94337  32.808  21.697  25.686 -0.1120 -0.0579 -0.3816
51244W        W94338  32.881  22.184  24.815 -0.1659  0.0300  0.0047
51245W        W94339  33.651  19.381  23.943 -0.0979 -0.0859 -0.4659
51246W        W94340  32.945  19.414  25.520 -0.0559  0.1007 -0.3233
51247W        W94341  33.683  22.061  26.136  0.0230  0.1415 -0.4122
51248W        W94342  34.054  18.562  26.115 -0.1721 -0.5064  0.2630
51249W        W94343  32.860  21.238  28.251 -0.0388  0.0487 -0.0606
51250W        W94344  34.126  20.467  25.342  0.1989  0.0377 -0.2197
51251W        W94345  33.009  20.960  24.528  0.0711  0.0656 -0.3938
51252W        W94346  32.547  22.186  26.862  0.0937  0.1971 -0.1797
51253W        W94347   0.525  21.104  28.289  0.1244 -0.0172 -0.0176
51254W        W94348  33.060  18.834  22.206  0.1744  0.0259 -0.1988
51255W        W94349  33.263  23.236  27.376 -0.1506 -0.1674 -0.0570
51256W        W94350  32.993  19.660  25.073 -0.3008 -0.0954 -0.4354
51257W        W94351  32.863  20.112  24.793 -0.3591 -0.1603 -0.2604
51258W        W94352   0.187  21.159  24.699  0.1087 -0.0094  0.2236
51259W        W94353  33.159  21.798  27.233 -0.1891 -0.4059 -0.2057
51260W        W94354  34.462  19.288  28.273 -0.1760  0.0948  0.1026
51261W        W94355   0.226  20.998  27.417 -0.0207 -0.0372  0.2979
51262W        W94356  32.895  21.761  23.097 -0.1074  0.1472 -0.1277
51263W        W94357  34.016  21.418  26.309 -0.0077  0.0130 -0.0292
51264W        W94358  33.519  21.624  24.380 -0.0497 -0.1675  0.0566
51265W        W94359  32.362  19.401  26.579 -0.0551  0.0065 -0.1587
51266W        W94360  34.107  20.069  24.437 -0.0871  0.2061  0.1046
51267W        W94361  32.507  19.112  26.998 -0.2807  0.0902 -0.2673
51268W        W94362  34.082  20.935  24.564 -0.2036  0.2559  0.1141
51269W        W94363  32.514  21.609  26.858 -0.1218  0.1905 -0.1233
51270W        W94364  33.526  18.171  26.086  0.1515  0.1339  0.1868
51271W        W94365  32.881  18.936  27.410 -0.0573 -0.2278 -0.0693
51272W        W94366  33.167  19.923  26.527 -0.1535 -0.0409  0.1150
51273W        W94367  33.230  18.753  23.150  0.0725 -0.0289  0.0932
51274W        W94368  33.436  19.259  25.126 -0.0174  0.1025  0.2355
51275W        W94369  32.082  21.187  24.262 -0.0595 -0.1303 -0.1254
51276W        W94370  34.525  18.214  25.929  0.1325 -0.0155  0.2335
51277W        W94371  33.364  18.612  25.056  0.0679  0.1699 -0.0377
51278W        W94372  32.440  23.400  25.135 -0.0514  0.1073  0.1268
51279W        W94373  34.557  21.124  25.878  0.1087  0.1712 -0.0605
51280W        W94374  33.230  19.871  25.586  0.0213 -0.4226 -0.3025
51281W        W94375  31.507  20.469  27.316 -0.0062 -0.0148  0.0995
51282W        W94376  33.726  18.435  23.952 -0.2230 -0.0076  0.0174
51283W        W94377  32.299  22.793  25.174 -0.1133  0.1582  0.2583
51284W        W94378  33.164  20.570  24.950 -0.2163 -0.5793 -0.3206
51285W        W94379  34.619  21.195  25.319 -0.1813 -0.0650 -0.0672
51286W        W94380  31.447  21.385  26.828  0.3821 -0.0211  0.1688
51287W        W94381  33.608  20.726  24.741  0.0626 -0.3125  0.0691
51288W        W94382  32.742  20.570  27.647 -0.0725 -0.1885  0.0232
51289W        W94383  33.944  21.509  28.299 -0.1075 -0.2614 -0.1748
51290W        W94384   0.013  20.693  25.409  0.0865 -0.0036 -0.2594
51291W        W94385  33.590  21.421  27.274 -0.3276  0.0833 -0.0482
51292W        W94386  32.445  21.729  27.869 -0.1995  0.0855  0.2228
51293W        W94387   0.927  17.960  24.683  0.0606 -0.1902 -0.0759
51294W        W94388  32.725  19.686  24.011  0.2142  0.1242  0.0644
51295W        W94389  33.188  22.104  23.511  0.3409 -0.0762 -0.1464
51296W        W94390  34.219  18.754  27.132 -0.1474  0.0091 -0.0018
51297W        W94391  32.977  18.145  24.220  0.2294 -0.0514  0.1009
51298W        W94392   0.984  20.407  26.962  0.1282  0.3328  0.2624
51299W        W94393  33.600  20.098  26.926 -0.0101 -0.1594 -0.1980
51300W        W94394  33.333  22.698  27.311 -0.0300 -0.0946  0.1143
51301W        W94395   1.741  19.217  27.687  0.0195  0.0901 -0.4843
51302W        W94396  34.004  20.458  24.743  0.1262 -0.2556  0.0267
51303W        W94397  33.718  20.433  24.336 -0.0240  0.0385  0.2837
51304W        W94398  33.786  18.764  25.645 -0.0201  0.1314  0.2866
51305W        W94399  33.481  22.948  25.448  0.2401  0.2108 -0.2914
51306W        W94400  33.044  20.471  23.807  0.1333  0.1884  0.1483
51307W        W94401  33.631  22.416  25.629  0.0419  0.1471  0.0206
51308W        W94402  33.533  22.054  25.330 -0.0470  0.0319 -0.0853
51309W        W94403  33.965  19.218  25.332  0.0954  0.1588  0.1114
51310W        W94404  33.760  18.292  24.653 -0.1915  0.0582 -0.1308
51311W        W94405  33.738  19.668  27.111  0.0705  0.0806  0.0053
51312W        W94406  32.983  19.265  24.627 -0.1127  0.1366  0.0199
51313W        W94407  33.109  20.814  26.540  0.0596 -0.0214  0.0845
51314W        W94408  33.976  20.248  27.132  0.1648 -0.2965 -0.1246
51315W        W94409  31.698  20.455  22.988  0.0112  0.2233  0.0308
51316W        W94410  32.686  18.989  26.536 -0.0670  0.0150  0.2262
51317W        W94411  33.501  21.084  25.129 -0.1984 -0.0543 -0.2084
51318W        W94412  33.269  21.862  24.964 -0.3373 -0.0122  0.1061
51319W        W94413  34.191  20.335  26.422 -0.1867  0.1963  0.0336
51320W        W94414  33.748  20.367  28.085  0.2455  0.1776  0.2410
51321W        W94415  33.849  19.156  27.112 -0.1585 -0.1392 -0.0179
51322W        W94416  33.471  19.222  25.845 -0.0784  0.0074 -0.0369
51323W        W94417  32.328  19.028  25.083  0.1254  0.0443 -0.0286
51324W        W94418   0.248  20.125  26.669 -0.1057  0.0837 -0.0348
51325W        W94419  32.829  20.460  27.146  0.1021 -0.1698 -0.0836
51326W        W94420  33.607  19.571  25.511 -0.3080 -0.0071 -0.0529
51327W        W94421  32.273  19.545  27.052 -0.0595  0.0992  0.3770
51328W        W94422  33.243  20.585  24.235 -0.3821  0.0348  0.2847
51329W        W94423  33.435  19.419  26.803 -0.0538 -0.2221 -0.0523
51330W        W94424  33.952  20.829  26.482 -0.1471  0.1288  0.0550
51331W        W94425  33.103  21.007  25.451 -0.2933  0.0043 -0.0732
51332W        W94426  32.838  21.421  27.226  0.0225  0.2369  0.0971
51333W        W94427   0.277  19.354  25.181  0.1241  0.3534  0.6167
51334W        W94428  33.976  19.019  27.951  0.0686 -0.0614  0.3077
51335W        W94429  34.137  19.894  26.678  0.2297  0.1357 -0.1409
51336W        W94430  33.121  20.926  28.536  0.0286 -0.0628 -0.1718
51337W        W94431  33.868  20.207  23.326 -0.0873 -0.0773 -0.1170
51338W        W94432   0.266  21.833  26.604  0.1035  0.0017  0.0931
51339W        W94433  34.346  20.092  23.382 -0.1057 -0.3589  0.2777
51340W        W94434  33.426  20.411  27.250  0.0205  0.2349 -0.2284
51341W        W94435  34.567  20.405  24.999 -0.1629 -0.0348  0.0303
51342W        W94436  34.177  21.940  26.032 -0.1196  0.0427  0.1146
51343W        W94437  33.208  18.980  26.792  0.2093  0.1645  0.2631
51344W        W94438   0.134  20.116  26.025  0.1422  0.1011 -0.0530
51345W        W94439  33.158  19.521  27.487  0.0086 -0.0757  0.4381
51346W        W94440  32.919  20.076  27.513 -0.1872 -0.0760 -0.1816
51347W        W94441  33.338  19.451  23.530 -0.1117 -0.1665  0.0899
51348W        W94442  33.922  21.916  24.041  0.3992  0.1185  0.1640
51349W        W94443  32.396  19.254  25.742 -0.1818  0.0493  0.1028
51350W        W94444  33.923  22.086  28.599  0.0440  0.1480 -0.0557
51351W        W94445  32.432  19.559  25.059 -0.0816  0.4996  0.2047
51352W        W94446  33.992  19.578  25.006 -0.2620  0.4186  0.1806
51353W        W94447   1.535  21.219  26.214  0.1807  0.1199  0.0250
51354W        W94448  34.481  18.117  24.491  0.1456  0.3126 -0.1653
51355W        W94449  32.636  21.590  26.227 -0.3189  0.2036  0.0831
51356W        W94450  33.060  21.877  26.187  0.1414  0.0729  0.0890
51357W        W94451  31.616  20.859  27.069 -0.1494  0.1252 -0.2480
51358W        W94452  33.777  21.187  25.674  0.1825  0.1628 -0.5177
51359W        W94453  33.595  20.824  27.514  0.1378  0.0012  0.3741
51360W        W94454  33.154  21.241  27.572  0.2145  0.1638  0.0154
51361W        W94455  33.933  21.410  26.854 -0.1113 -0.1545 -0.0648
51362W        W94456  33.460  19.953  27.415 -0.0310  0.0409  0.1811
51363W        W94457  34.655  18.555  23.613 -0.0134  0.0696 -0.4536
51364W        W94458  32.510  21.478  28.566 -0.0084 -0.0506 -0.1022
51365W        W94459  32.340  21.257  26.574 -0.1184  0.0144  0.2891
51366W        W94460  33.494  21.237  23.893  0.2132 -0.0175  0.1917
51367W        W94461   0.074  18.270  23.087  0.1375 -0.1184 -0.0118
51368W        W94462  33.545  21.086  26.316  0.0044 -0.0034 -0.0189
51369W        W94463  33.157  21.168  23.268 -0.4336  0.3865  0.2377
51370W        W94464   0.527  20.853  25.608  0.2776 -0.1931 -0.2068
51371W        W94465   0.499  20.620  26.922 -0.2537 -0.1623 -0.0406
51372W        W94466  33.289  17.903  22.191  0.0896  0.2131 -0.1654
51373W        W94467  34.130  20.272  28.411 -0.0910 -0.2071 -0.4758
51374W        W94468  33.475  23.209  28.698  0.2989  0.1786  0.0125
51375W        W94469  32.229  17.567  23.964  0.1112  0.0188 -0.1019
51376W        W94470  34.458  20.702  26.762 -0.2040 -0.1080  0.1018
51377W        W94471  33.647  21.991  23.631  0.2383 -0.2027 -0.0301
51378W        W94472   1.185  22.059  25.126 -0.0187 -0.2826  0.1329
51379W        W94473  32.589  20.900  27.268 -0.0125  0.1316  0.1565
51380W        W94474   0.331  21.660  26.095  0.1921 -0.0561  0.1753
51381W        W94475  30.755  19.919  23.775  0.0159  0.3433 -0.0941
51382W        W94476  34.071  18.485  26.717 -0.2410 -0.2066 -0.0692
51383W        W94477  33.534  19.753  24.956 -0.0121  0.0030 -0.1635
51384W        W94478  33.142  19.830  27.037  0.1583  0.3590 -0.1168
51385W        W94479  33.702  19.784  22.553  0.1820 -0.1111  0.0774
51386W        W94480  32.529  18.954  24.616  0.0130  0.2815  0.0493
51387W        W94481  34.385  20.797  26.205 -0.1289 -0.0148  0.2111
51388W        W94482  33.259  20.490  27.740 -0.2625  0.2048  0.2122
51389W        W94483  32.500  18.565  25.433 -0.0695 -0.0676 -0.0656
51390W        W94484  34.267  21.333  24.860  0.1506  0.0579  0.0612
51391W        W94485  32.272  20.127  25.307 -0.0854  0.0705  0.0395
51392W        W94486  34.053  19.501  25.768 -0.1368  0.1832  0.1819
51393W        W94487  34.472  20.206  26.865  0.0407  0.0018  0.0787
51394W        W94488  33.222  22.484  25.298 -0.0884  0.1639 -0.0422
51395W        W94489  33.927  21.339  24.179  0.1364 -0.1652 -0.3657
51396W        W94490   0.791  21.390  27.008 -0.1249  0.0526  0.0201
51397W        W94491  34.378  22.283  27.348 -0.0962  0.1782  0.1128
51398W        W94492  33.352  20.177  25.195 -0.0405 -0.2091 -0.0067
51399W        W94493  32.967  20.467  28.602 -0.0541  0.0178 -0.5109
51400W        W94494   0.537  21.422  26.459  0.2055 -0.0297  0.0892
51401W        W94495   0.194  21.030  26.286 -0.1099  0.1125 -0.1733
51402W        W94496  34.408  20.364  25.799  0.0844 -0.0050  0.2339
51403W        W94497  34.474  18.608  25.621 -0.0053  0.0738 -0.0099
51404W        W94498  34.252  21.195  27.930  0.0552  0.1485  0.0519
51405W        W94499  32.452  22.082  24.647  0.2043  0.1371  0.1489
51406W        W94500  33.625  20.614  25.255  0.2370 -0.1515  0.1051
51407W        W94501  33.540  20.470  26.478  0.3269 -0.4812  0.0919
51408W        W94502  33.747  17.146  27.405  0.3230  0.3512  0.0428
51409W        W94503  33.676  19.970  26.451 -0.0278  0.3258  0.1844
51410W        W94504  33.273  20.746  26.060 -0.2623  0.0513  0.2579
51411W        W94505  33.257  18.873  25.543 -0.0634 -0.1376 -0.1276
51412W        W94506  33.682  19.016  26.640 -0.1647 -0.0957 -0.1115
51413W        W94507  32.198  19.868  26.482  0.1260 -0.1966  0.1880
51414W        W94508  34.366  18.867  25.129  0.0148  0.1962  0.2282
51415W        W94509  31.913  21.115  24.727  0.6437 -0.0680  0.0563
51416W        W94510  34.616  20.235  28.087 -0.2188 -0.0114 -0.0644
51417W        W94511  34.055  19.917  26.128  0.0648  0.2640  0.0407
51418W        W94512  32.345  19.973  24.358  0.3152  0.1488 -0.0255
51419W        W94513   0.119  21.491  27.132 -0.0011  0.1902  0.1529
51420W        W94514  33.557  20.806  26.989 -0.1008  0.3510 -0.1761
51421W        W94515   0.960  21.802  27.419  0.1857  0.1371 -0.1819
51422W        W94516  32.952  19.363  26.991 -0.1900 -0.1133 -0.3056
51423W        W94517   1.046  20.928  26.974  0.1369  0.2075 -0.1503
51424W        W94518  33.018  17.261  28.162  0.1264  0.1281 -0.1622
51425W        W94519  34.483  20.939  28.930 -0.0923 -0.3570 -0.1607
51426W        W94520  32.980  19.046  25.930 -0.1316  0.0263 -0.0071
51427W        W94521  33.637  19.516  26.236 -0.1814 -0.0777  0.0339
51428W        W94522  33.668  19.861  24.286 -0.3187 -0.1259  0.2308
51429W        W94523   0.356  21.108  26.894  0.1353  0.1036  0.1734
51430W        W94524  33.360  18.971  24.151  0.0452 -0.0306 -0.1005
51431W        W94525   1.604  22.428  27.544 -0.0144  0.0384 -0.0178
51432W        W94526  32.038  19.535  26.130 -0.0147 -0.1883 -0.0673
51433W        W94527  33.643  21.541  25.256 -0.1580 -0.0854  0.0710
51434W        W94528  34.241  20.033  24.933  0.0181  0.0143 -0.2135
51435W        W94529  32.765  18.130  25.664 -0.1846  0.1596  0.1521
51436W        W94530   0.539  22.641  25.387 -0.2313  0.2596 -0.0868
51437W        W94531  34.209  20.752  31.812  0.0517  0.1414 -0.1194
51438W        W94532   1.152  18.929  27.917 -0.0515 -0.3120  0.2289
51439W        W94533  34.649  20.109  28.597  0.1294  0.0081 -0.0246
51440W        W94534  33.040  17.802  29.265  0.2733  0.0498  0.2015
51441W        W94535  33.661  18.004  30.644  0.2530 -0.0451  0.3621
51442W        W94536  34.014  21.577  31.037  0.1780 -0.1139  0.1701
51443W        W94537  33.843  18.894  28.645  0.0621 -0.0568  0.0418
51444W        W94538  33.336  18.987  28.862 -0.1535 -0.3260 -0.2539
51445W        W94539  34.559  20.701  28.473 -0.0539  0.1344  0.1015
51446W        W94540   0.290  19.908  29.433  0.1118 -0.0914  0.1263
51447W        W94541   1.100  19.385  28.428 -0.1342 -0.0837 -0.3255
51448W        W94542  34.170  18.473  28.729 -0.0123  0.1699  0.0481
51449W        W94543   0.293  21.014  28.746 -0.1091 -0.0754  0.0817
51450W        W94544  32.337  20.582  27.024 -0.0700 -0.2582  0.0505
51451W        W94545  32.036  19.576  29.112  0.1387  0.2605 -0.1306
51452W        W94546  33.222  20.244  30.840  0.0458  0.0211 -0.0932
51453W        W94547   0.912  21.043  29.285 -0.1112 -0.0802 -0.1392
51454W        W94548   1.333  21.095  29.860 -0.1024 -0.1844 -0.0801
51455W        W94549  33.829  20.488  29.642  0.0557  0.1238  0.1822
51456W        W94550  31.846  22.018  29.537  0.2868 -0.2511  0.2032
51457W        W94551  34.222  20.302  29.458 -0.2173 -0.1176  0.2684
51458W        W94552  34.534  21.557  31.290 -0.0637 -0.1876 -0.0717
51459W        W94553  32.901  22.254  28.326  0.0399 -0.0570 -0.3279
51460W        W94554  32.699  20.851  31.325 -0.2690 -0.3462  0.1665
51461W        W94555   0.064  21.222  29.417 -0.0452 -0.3219  0.1240
51462W        W94556   0.625  19.435  28.723 -0.0443  0.2330 -0.1237
51463W        W94557   0.812  19.872  29.739 -0.0506 -0.0405  0.1313
51464W        W94558  32.446  20.457  30.731 -0.0585  0.0946 -0.1904
51465W        W94559   0.390  21.514  28.089  0.0192 -0.1129  0.1757
51466W        W94560   0.210  20.118  27.152 -0.4390  0.2263  0.1787
51467W        W94561   0.196  19.083  29.101  0.1139  0.0491  0.2675
51468W        W94562  34.224  21.054  29.610  0.0602  0.1251 -0.0086
51469W        W94563  34.001  18.120  31.224 -0.0951 -0.2791 -0.0425
51470W        W94564   0.250  20.997  30.432  0.0685 -0.4624 -0.3183
51471W        W94565   0.136  20.536  28.817  0.0407  0.6635 -0.1406
51472W        W94566  33.379  19.453  27.969 -0.0614 -0.0942 -0.1137
51473W        W94567  33.009  20.001  29.567 -0.1890  0.2686 -0.1884
51474W        W94568  33.122  20.116   0.020 -0.1752 -0.0068  0.1076
51475W        W94569  34.198  19.733  28.345 -0.2599  0.0121  0.2057
51476W        W94570  33.376  20.409  30.391  0.2121 -0.3077  0.3659
51477W        W94571   0.152  19.545  30.876 -0.1275  0.1644  0.2218
51478W        W94572  33.960  19.851  27.533 -0.1072  0.1968  0.0951
51479W        W94573  33.350  20.220  28.386 -0.0543  0.2415 -0.1624
51480W        W94574  33.855  20.900  29.908  0.2909 -0.0714 -0.1999
51481W        W94575  33.418  17.899  30.221 -0.0287 -0.1422 -0.1118
51482W        W94576   1.372  20.292  30.965  0.2932 -0.1468  0.5038
51483W        W94577  33.276  22.327  28.685  0.2437  0.2247  0.0844
51484W        W94578  33.739  19.430  30.140  0.1760  0.4023 -0.1248
51485W        W94579  31.447  20.973  29.391 -0.0201  0.0121  0.2204
51486W        W94580  33.521  18.915  30.047 -0.0349 -0.0924 -0.2394
51487W        W94581  33.861  21.051  30.573  0.0111 -0.3407 -0.1255
51488W        W94582  34.087  17.725  30.891  0.1683  0.2357 -0.2127
51489W        W94583  34.166  20.132  29.902 -0.3259  0.0644  0.1359
51490W        W94584  34.134  18.409  29.347 -0.0798 -0.1729  0.3241
51491W        W94585   0.656  19.526  29.216  0.0329 -0.2232 -0.0730
51492W        W94586  32.628  18.544  30.342  0.3315 -0.0533  0.0831
51493W        W94587  32.506  19.655  28.851  0.0331 -0.1796  0.2818
51494W        W94588  31.861  17.557  28.937  0.0880 -0.1287 -0.0160
51495W        W94589   0.854  20.633  28.281  0.1137 -0.2429  0.0544
51496W        W94590  33.347  21.520  28.150 -0.0197 -0.1429  0.0680
51497W        W94591  34.173  19.522  29.773  0.2403 -0.3551 -0.4151
51498W        W94592  32.952  18.239  28.358  0.1278 -0.0408  0.0966
51499W        W94593  34.591  20.972  30.914  0.0472  0.1218  0.0140
51500W        W94594   0.764  21.567  30.748  0.2621  0.1098  0.1063
51501W        W94595   0.235  19.594  27.273  0.0373 -0.0789 -0.1882
51502W        W94596  33.395  19.844  30.465 -0.1766  0.0003 -0.3323
51503W        W94597  33.122  18.493  27.280 -0.0468  0.0026 -0.1897
51504W        W94598  33.611  21.167  28.450  0.0322 -0.1255  0.0207
51505W        W94599  34.311  20.459  28.881  0.3553  0.1376 -0.1275
51506W        W94600   0.312  20.478  28.329  0.2766 -0.0797  0.0816
51507W        W94601   0.163  19.552  30.315  0.2745  0.1034 -0.1189
51508W        W94602  31.943  20.816  29.092 -0.0553  0.1519 -0.0629
51509W        W94603  33.475  20.914  30.259  0.1924  0.0659 -0.0311
51510W        W94604  32.887  18.941   0.829 -0.0190 -0.0553 -0.1621
51511W        W94605  33.061  21.413  28.651 -0.0759 -0.0698 -0.2130
51512W        W94606  34.314  21.312  30.723  0.3085  0.0857 -0.0979
51513W        W94607  32.272  21.379  30.830 -0.2457 -0.0254  0.2435
51514W        W94608   0.067  18.296  29.584 -0.2025  0.0127 -0.0663
51515W        W94609  34.216  20.679  27.531 -0.0134 -0.0312  0.1904
51516W        W94610  33.785  21.636  28.794  0.1005 -0.2335  0.1211
51517W        W94611  33.891  17.625  29.687  0.1293  0.1063  0.0145
51518W        W94612  34.631  20.599  27.221  0.1001  0.0589  0.3175
51519W        W94613  34.478  17.181  30.388  0.0368 -0.3872  0.0987
51520W        W94614  33.834  19.072  30.918  0.1621  0.1306  0.0105
51521W        W94615  33.815  19.584  29.000  0.0286  0.2579 -0.1406
51522W        W94616   0.126  18.071  30.652 -0.1956  0.1010 -0.3599
51523W        W94617  34.266  22.338  29.462  0.0917  0.1147 -0.1477
51524W        W94618  33.468  21.779  27.678 -0.2869 -0.1373  0.0061
51525W        W94619  33.677  19.088  29.220 -0.5637 -0.0386  0.1340
51526W        W94620   0.988  20.426  29.969  0.3434 -0.1420  0.1167
51527W        W94621  34.041  20.895  28.377 -0.0221  0.3765  0.1104
51528W        W94622  32.543  21.028  29.351  0.2566 -0.1309  0.0480
51529W        W94623  34.093  20.724  29.234  0.0943  0.0787  0.0891
51530W        W94624  32.439  19.321  27.559  0.0754  0.1891 -0.0020
51531W        W94625  32.557  20.949  28.484  0.1170  0.1936  0.0702
51532W        W94626  32.618  18.994  29.513 -0.1568 -0.0852  0.2463
51533W        W94627   0.227  18.959  29.703  0.2638  0.1881  0.0673
51534W        W94628  32.829  21.445  30.476  0.0293 -0.0611 -0.0214
51535W        W94629   0.499  19.849  30.561 -0.0748 -0.0087 -0.1051
51536W        W94630  31.736  20.352  28.903 -0.0174  0.1314  0.0456
51537W        W94631  34.054  18.996  29.914  0.1326 -0.1455  0.1982
51538W        W94632  32.343  21.252  28.099 -0.1546  0.2766 -0.1797
51539W        W94633  34.162  20.109  27.932  0.3898  0.1821  0.1380
51540W        W94634  33.781  19.506  30.655 -0.0177 -0.3199  0.1121
51541W        W94635  33.078  18.763  30.313 -0.3359  0.1171  0.3599
51542W        W94636  34.254  19.384  29.264  0.1040 -0.0143 -0.0783
51543W        W94637   0.285  19.184  28.027  0.0806 -0.0826  0.0309
51544W        W94638   0.498  18.044  30.232  0.0217 -0.3448 -0.3002
51545W        W94639  34.073  18.691   0.488 -0.3508 -0.0419 -0.0309
51546W        W94640   0.011  21.136   0.258  0.1096 -0.1551 -0.1393
51547W        W94641   0.195  20.059  27.636  0.1350  0.2986  0.1052
51548W        W94642  33.717  19.966  29.679  0.1239 -0.0312 -0.1122
51549W        W94643   0.353  20.410  29.406  0.0842  0.1750 -0.2030
51550W        W94644   0.284  18.159  29.012 -0.0503  0.1213  0.0726
51551W        W94645  33.503  20.754  30.784  0.2768  0.2623  0.0716
51552W        W94646  33.877  20.655  28.826  0.0965  0.0943  0.1339
51553W        W94647  33.032  20.848  31.730  0.0732 -0.0252  0.2414
51554W        W94648   0.755  18.881  29.903  0.0814  0.0588 -0.0901
51555W        W94649  33.865  18.686  29.565  0.0747  0.2844  0.1704
51556W        W94650  32.886  19.142  30.701 -0.0059  0.2870  0.1197
51557W        W94651  32.082  20.920  31.536  0.0771  0.1946 -0.4122
51558W        W94652  33.554  18.212  27.469 -0.1646  0.1776  0.0926
51559W        W94653  34.286  19.995  30.814 -0.3615 -0.0810 -0.4592
51560W        W94654  34.671  20.621  27.691  0.1622 -0.3414 -0.0558
51561W        W94655   0.970  19.991  30.704 -0.0933  0.3029 -0.0597
51562W        W94656   2.091  21.670  27.564 -0.0460  0.1206 -0.1962
51563W        W94657  34.657  20.370  29.770  0.1340  0.2585  0.1055
51564W        W94658  34.214  17.391  29.976 -0.1390 -0.0696  0.1339
51565W        W94659   0.591  20.198   0.679  0.1721 -0.1196  0.1069
51566W        W94660  33.319  19.623  29.958 -0.0150  0.2835 -0.2801
51567W        W94661   0.066  19.641  28.464 -0.1269 -0.1029 -0.2872
51568W        W94662  31.864  19.045  27.601  0.2589  0.2600  0.0917
51569W        W94663   1.670  21.822  27.738  0.1132 -0.2894  0.0304
51570W        W94664  31.986  19.039  28.766 -0.0965 -0.1986 -0.1348
51571W        W94665  33.415  21.169  31.645  0.2614  0.0766  0.1607
51572W        W94666  34.375  20.223  27.458 -0.1169  0.4964 -0.0132
51573W        W94667  34.558  20.755  29.416 -0.2021  0.1079 -0.1224
51574W        W94668   1.207  21.282  30.635  0.0377 -0.1644 -0.0197
51575W        W94669  34.147  19.558  27.874 -0.0511 -0.0669 -0.1385
51576W        W94670  33.146  22.136  30.792  0.1375  0.0991  0.0140
51577W        W94671  33.236  21.328  30.194 -0.1128 -0.2419 -0.1775
51578W        W94672  32.293  21.152  30.316  0.1129 -0.1389  0.1190
51579W        W94673  32.961  20.859  30.122 -0.1276 -0.0832 -0.1105
51580W        W94674  34.658  20.231  29.205 -0.2104  0.2590 -0.0364
51581W        W94675   0.244  19.769  29.874 -0.0454 -0.0521 -0.1184
51582W        W94676  34.392  20.218  30.322 -0.3735 -0.0072 -0.0332
51583W        W94677  32.051  19.905   0.926 -0.0585  0.2257 -0.0735
51584W        W94678   0.030  18.222  28.557 -0.0697 -0.0276  0.3206
51585W        W94679  32.703  21.272  30.983  0.0539 -0.0609 -0.3537
51586W        W94680  33.752  20.239  30.669  0.0803  0.1528  0.2231
51587W        W94681  34.663  21.400  28.975 -0.2221  0.3298  0.2693
51588W        W94682  34.684  18.720  28.309 -0.0441  0.2012  0.0346
51589W        W94683  33.515  21.171  28.946  0.0098 -0.1685 -0.1794
51590W        W94684  31.707  21.143  27.468 -0.0006  0.1844  0.0495
51591W        W94685   0.036  20.592  30.235  0.0422 -0.1299  0.0461
51592W        W94686  34.267  19.293  30.277 -0.0107  0.1650  0.0910
51593W        W94687  33.550  18.921  28.085 -0.1565  0.1869  0.2077
51594W        W94688   0.132  20.013  30.906 -0.1651  0.0644  0.1700
51595W        W94689  32.554  21.632   0.686 -0.3046 -0.0351 -0.1284
51596W        W94690  33.712  19.334  27.543 -0.0635 -0.1660  0.0097
51597W        W94691  34.681  19.654  29.027 -0.0049 -0.2261  0.2571
51598W        W94692  32.426  20.477  28.357 -0.1252 -0.0350  0.1970
51599W        W94693  34.560  21.369  28.497 -0.0607 -0.2714 -0.0447
51600W        W94694  33.457  21.649  29.816  0.5598  0.1253 -0.0571
51601W        W94695  33.332  21.690  29.017 -0.1182  0.1089 -0.2741
51602W        W94696  31.492  18.912  27.893 -0.2085 -0.0050  0.1077
51603W        W94697  33.450  18.390  30.828 -0.0895  0.1295  0.1127
51604W        W94698  34.551  18.574  29.100  0.3684  0.0320  0.2042
51605W        W94699  33.361  19.273  31.017 -0.0526 -0.2121 -0.0354
51606W        W94700   0.725  20.105  29.298 -0.2107  0.0561  0.3800
51607W        W94701  32.488  19.681  29.415 -0.1537  0.0547  0.1539
51608W        W94702   1.236  20.387  30.443  0.1363  0.0386 -0.1745
51609W        W94703   0.868  19.698   0.212 -0.0693  0.1140  0.0242
51610W        W94704  32.369  19.429  28.020 -0.3766 -0.1620 -0.1706
51611W        W94705   1.478  22.823  27.844 -0.0870 -0.3106 -0.0518
51612W        W94706  32.640  19.515  30.374 -0.0919 -0.1771  0.0545
51613W        W94707   0.363  18.608  26.515  0.0307 -0.0454 -0.2000
51614W        W94708  34.296  19.366  30.774  0.0629  0.2290 -0.3260
51615W        W94709  32.744  22.126  27.855 -0.1340  0.4736 -0.0504
51616W        W94710  34.089  22.346  26.401 -0.0355  0.2997  0.0633
51617W        W94711   2.265  20.136  30.735  0.4181  0.1142  0.0430
51618W        W94712  34.052  20.277  31.593  0.0092 -0.0676 -0.1728
51619W        W94713  32.954  21.686  27.732 -0.1481 -0.1104  0.1130
51620W        W94714   0.502  20.428  30.719  0.2196  0.2502  0.3238
51621W        W94715   0.807  20.329  28.799  0.3889  0.1262 -0.0493
51622W        W94716   0.542  21.900  27.741  0.0790  0.1672  0.0805
51623W        W94717   0.788  18.427  26.669  0.3332  0.0010 -0.1104
51624W        W94718   0.956  18.516  28.204  0.2690 -0.2058  0.1245
51625W        W94719   0.927  19.958  31.753  0.2541 -0.3147  0.1599
51626W        W94720  33.373  19.705  28.393 -0.3377 -0.2327 -0.1720
51627W        W94721  34.491  22.731  27.158  0.0529  0.2380  0.2035
51628W        W94722  34.516  19.840  29.578  0.0890 -0.2531 -0.0053
51629W        W94723   0.211  18.410  31.422  0.1899 -0.0724  0.2644
51630W        W94724  32.944  19.625  30.767  0.2092  0.0562  0.0817
51631W        W94725  34.464  19.756  30.075  0.1134  0.0507 -0.0329
51632W        W94726  32.932  19.314  28.722 -0.0517  0.0406  0.2822
51633W        W94727  33.329  19.545  28.850  0.3685  0.2883  0.0532
51634W        W94728  32.432  18.829  29.091 -0.1809 -0.0311 -0.0385
51635W        W94729   0.723  18.622  28.935 -0.1816 -0.1027  0.2696
51636W        W94730  31.487  20.687  28.210  0.0626  0.1048 -0.0688
51637W        W94731   0.209  20.110  30.301 -0.2284 -0.1392 -0.1561
51638W        W94732  34.443  18.180  31.383  0.3133  0.3079  0.0810
51639W        W94733  32.459  19.191  28.482 -0.0361  0.0539 -0.0017
51640W        W94734   1.414  20.831  30.811  0.1913  0.4772 -0.1469
51641W        W94735  33.191  21.099  31.041  0.2023 -0.0159 -0.0599
51642W        W94736   0.092  22.147  29.543  0.2578 -0.4312 -0.2596
51643W        W94737  31.597  18.305  30.430  0.1604 -0.0666 -0.1648
51644W        W94738   1.285  19.496  30.858 -0.0589 -0.4262 -0.1884
51645W        W94739  33.825  19.025  30.380 -0.3208 -0.1148 -0.3951
51646W        W94740   1.543  20.262  31.482  0.1423  0.0338 -0.0624
51647W        W94741   0.293  18.672  28.696 -0.1653  0.0597 -0.1503
51648W        W94742  32.854  19.476  29.646 -0.0809 -0.0609 -0.0689
51649W        W94743   0.326  19.914  28.116  0.3274  0.4153 -0.4276
51650W        W94744  34.484  18.431  31.806  0.0660  0.2556 -0.2667
51651W        W94745  33.850  19.362  28.311  0.0476 -0.0116  0.0271
51652W        W94746  34.291  21.090  31.291 -0.1746 -0.0727  0.2050
51653W        W94747  33.337  19.317  30.441  0.4905  0.2476 -0.2973
51654W        W94748  34.245  19.930  28.894  0.2573 -0.0522 -0.0056
51655W        W94749  34.068  19.868  29.372  0.0451 -0.1931  0.2102
51656W        W94750  33.169  19.313  29.229 -0.1345 -0.0894 -0.1982
51657W        W94751  34.640  20.962  29.872  0.2636  0.1587 -0.0398
51658W        W94752  33.345  19.221  31.522 -0.3324  0.3380 -0.1262
51659W        W94753  32.834  21.781  31.333 -0.2651 -0.0875 -0.1376
51660W        W94754  34.458  20.466   1.710  0.0371  0.0369 -0.0728
51661W        W94755  33.609  21.521   0.504 -0.0341 -0.1406  0.0276
51662W        W94756  34.674  19.240   0.625  0.1138 -0.6441 -0.2386
51663W        W94757   0.033  19.124  30.565  0.1122  0.1692  0.0422
51664W        W94758   0.475  20.076  31.527  0.1684  0.0080 -0.0275
51665W        W94759  33.104  22.244  31.645 -0.1418  0.0132 -0.1161
51666W        W94760   0.462  20.843  31.098  0.5334  0.0269 -0.1294
51667W        W94761   0.434  18.052  31.050  0.2821 -0.1921  0.0010
51668W        W94762  34.403  20.468  31.113  0.4829  0.1734 -0.2223
51669W        W94763  33.370  17.344   0.217  0.0919 -0.1354  0.3860
51670W        W94764  33.615  19.797  31.461 -0.1818  0.0742 -0.3011
51671W        W94765  34.664  19.180  31.122  0.0313 -0.0838  0.0344
51672W        W94766  33.621  21.207   0.132  0.0497  0.0914 -0.0975
51673W        W94767  32.835  20.779   0.221 -0.1883 -0.0812  0.0762
51674W        W94768   0.930  20.291  31.381  0.2601  0.0499 -0.0256
51675W        W94769  33.626  20.323  31.128 -0.0949  0.2373  0.2200
51676W        W94770  34.565  19.794  31.833 -0.2490  0.3953  0.3185
51677W        W94771  34.058  19.822  30.334  0.0873 -0.1702 -0.1570
51678W        W94772   1.610  19.929   0.532  0.0115 -0.2602 -0.1395
51679W        W94773  33.408  20.239  31.590 -0.0159 -0.4456 -0.2273
51680W        W94774   0.457  21.000   0.228 -0.0754  0.0209  0.3106
51681W        W94775  33.167  18.757  31.673  0.0883  0.0392  0.3093
51682W        W94776   0.253  20.391  31.176 -0.0630  0.0326 -0.0423
51683W        W94777  34.132  19.007  31.618  0.0670  0.0237 -0.1802
51684W        W94778  33.224  19.733   0.276  0.1659 -0.1181 -0.3867
51685W        W94779   0.257  18.679   0.945  0.1051  0.0424  0.3507
51686W        W94780  33.080  21.608   0.458 -0.1158  0.0078 -0.1523
51687W        W94781  34.241  18.901  31.125 -0.1373 -0.0628  0.2109
51688W        W94782   0.942  19.014  30.369  0.0543  0.1739  0.2009
51689W        W94783  34.313  18.829  30.629 -0.2130  0.1931  0.1384
51690W        W94784  34.460  21.799  30.766  0.1319  0.4760 -0.1610
51691W        W94785  33.534  20.076   0.465 -0.1294  0.1152 -0.0262
51692W        W94786  34.642  20.295   0.648 -0.2810 -0.1442  0.0199
51693W        W94787  32.741  18.482  31.215 -0.1337 -0.3201 -0.4197
51694W        W94788  32.285  20.711   0.136 -0.1195  0.0229 -0.1387
51695W        W94789  32.803  20.283   0.409 -0.2635  0.0720  0.2267
51696W        W94790  33.671  18.279  30.027  0.0070 -0.1635 -0.0673
51697W        W94791  31.727  24.429  19.611 -0.2020  0.0932  0.0771
51698W        W94792  32.915  24.135  16.492  0.0435 -0.2438 -0.3341
51699W        W94793  32.710  21.883  17.511  0.2025 -0.3343 -0.2101
51700W        W94794  33.417  22.069  20.253  0.3329  0.2503  0.2127
51701W        W94795  34.693  23.200  19.403 -0.0454  0.2257 -0.1375
51702W        W94796   0.283  26.766  18.683  0.0150 -0.0998 -0.0453
51703W        W94797  33.048  22.107  16.506  0.1282  0.1802  0.0921
51704W        W94798  31.383  22.541  17.811  0.0932 -0.0309 -0.4538
51705W        W94799  32.683  24.463  16.845 -0.1580  0.0089 -0.0349
51706W        W94800  33.483  23.661  18.188 -0.3078 -0.2051 -0.0575
51707W        W94801  34.518  23.313  17.833  0.0916 -0.1313 -0.3270
51708W        W94802  33.805  22.555  20.222  0.1259 -0.2714  0.1991
51709W        W94803   1.010  25.410  17.286  0.2549 -0.2743 -0.1538
51710W        W94804  33.751  23.626  16.105 -0.2670 -0.1594  0.1961
51711W        W94805  32.005  23.180  18.309 -0.3477  0.1517  0.0878
51712W        W94806  33.261  23.243  18.453 -0.0264 -0.3733 -0.0651
51713W        W94807  33.574  25.705  17.742 -0.2871  0.0912 -0.1029
51714W        W94808   1.685  24.444  16.622 -0.0079 -0.0116 -0.0461
51715W        W94809  33.684  24.546  17.693  0.2148 -0.2562 -0.0736
51716W        W94810  33.170  26.330  18.114  0.0793  0.2300 -0.1904
51717W        W94811  33.324  24.440  16.184 -0.3162  0.2419  0.0283
51718W        W94812   0.355  25.882  19.070  0.2651 -0.0608 -0.1477
51719W        W94813  33.648  24.653  15.744  0.0538 -0.0706  0.4137
51720W        W94814  33.747  25.773  19.487  0.1863 -0.0343 -0.0510
51721W        W94815  33.878  24.028  16.350  0.4157 -0.0329 -0.2699
51722W        W94816  34.180  25.536  18.708 -0.3894  0.0367  0.0366
51723W        W94817  33.639  23.302  20.178  0.1012 -0.2289 -0.0270
51724W        W94818  33.461  25.341  19.296 -0.0641 -0.0267  0.2561
51725W        W94819  33.112  25.479  16.762 -0.1895  0.3217 -0.0527
51726W        W94820  33.997  22.750  16.625  0.1672  0.1113 -0.0674
51727W        W94821  33.092  21.229  17.522 -0.1323 -0.1109 -0.0423
51728W        W94822  33.311  24.935  18.527  0.0218  0.3290  0.0204
51729W        W94823  34.615  22.571  18.904  0.0791 -0.3457 -0.0815
51730W        W94824  33.681  25.247  18.808  0.0664  0.4496 -0.0245
51731W        W94825  32.599  23.175  17.445 -0.0026  0.1309 -0.3589
51732W        W94826  33.051  22.462  17.571 -0.1538  0.0579  0.2383
51733W        W94827  32.559  23.798  19.324 -0.0670  0.0170 -0.2425
51734W        W94828  33.620  23.326  19.048  0.3511 -0.0378 -0.1375
51735W        W94829  34.020  23.167  16.111  0.1467  0.6097 -0.0821
51736W        W94830  32.776  25.036  18.714 -0.0290 -0.1636  0.1153
51737W        W94831  33.541  24.509  16.994 -0.1273 -0.0142 -0.1218
51738W        W94832  33.055  24.183  15.903 -0.0613 -0.0058 -0.2576
51739W        W94833   0.962  23.222  18.499 -0.2344  0.0371  0.0309
51740W        W94834  34.061  25.653  18.168  0.2385  0.1682  0.1018
51741W        W94835  33.894  22.025  20.461 -0.1827  0.3952 -0.1799
51742W        W94836   0.409  24.540  19.571 -0.0182 -0.3727 -0.0459
51743W        W94837  34.246  24.776  16.278 -0.1087  0.0880  0.2383
51744W        W94838  32.559  24.554  17.873  0.0435 -0.1432  0.0813
51745W        W94839  33.771  24.634  16.255 -0.0173 -0.0986 -0.2130
51746W        W94840  32.832  22.400  18.269 -0.1509 -0.0712  0.0800
51747W        W94841  33.378  24.422  18.445  0.0838  0.1874  0.3307
51748W        W94842  32.519  22.066  20.020  0.0910 -0.1517 -0.0126
51749W        W94843  33.026  24.087  16.970  0.0903 -0.2466  0.0049
51750W        W94844  32.643  24.307  18.309  0.1514 -0.1365  0.4439
51751W        W94845  32.742  22.619  16.645  0.1666  0.0911  0.0604
51752W        W94846  32.899  22.969  20.166 -0.2948  0.1416 -0.0668
51753W        W94847  33.622  22.907  18.562 -0.2912 -0.1032 -0.0120
51754W        W94848  34.058  22.680  17.383 -0.1174 -0.2021  0.0498
51755W        W94849  34.370  23.592  19.265  0.3762  0.1542 -0.0248
51756W        W94850  32.883  23.731  17.451 -0.0000 -0.2460  0.2097
51757W        W94851  33.592  22.991  19.472 -0.3560 -0.0821  0.0952
51758W        W94852  33.445  22.790  17.512 -0.0571 -0.0910 -0.1753
51759W        W94853  33.572  26.290  17.747 -0.1142  0.3901  0.0276
51760W        W94854  34.312  23.843  18.640 -0.0477  0.0417 -0.1919
51761W        W94855  33.681  21.796  17.288 -0.3029 -0.2170  0.2715
51762W        W94856  33.263  23.691  18.809  0.2222 -0.1097 -0.2897
51763W        W94857  33.099  22.571  16.257 -0.1033  0.2251  0.1020
51764W        W94858  32.989  25.183  15.966  0.2651  0.2703 -0.0614
51765W        W94859  33.871  23.907  16.879 -0.3054  0.0555 -0.0309
51766W        W94860  34.193  24.331  18.070  0.0345 -0.0722 -0.5023
51767W        W94861  32.969  24.530  18.703  0.0099 -0.0673  0.3141
51768W        W94862  32.650  23.098  16.922  0.0558  0.2444  0.2070
51769W        W94863  32.449  24.511  18.771 -0.0086 -0.0923  0.0206
51770W        W94864  32.774  22.937  19.700  0.1836  0.2214 -0.0861
51771W        W94865   0.587  23.939  18.189 -0.0125  0.1935  0.0678
51772W        W94866  32.544  24.848  18.274 -0.1181  0.0977  0.2304
51773W        W94867  33.881  23.649  17.298  0.0710 -0.0033  0.1418
51774W        W94868  34.666  21.684  18.431 -0.0777 -0.1172  0.1090
51775W        W94869  33.869  23.402  16.671  0.0836  0.2426  0.4130
51776W        W94870  33.854  25.279  17.832  0.0196 -0.1724  0.1260
51777W        W94871  33.043  22.422  20.936  0.2385 -0.0263  0.0151
51778W        W94872   0.300  24.184  16.739  0.1597  0.1729  0.1450
51779W        W94873   0.402  21.857  20.567  0.1355 -0.1657 -0.1316
51780W        W94874  33.077  22.550  19.897 -0.2033 -0.1558  0.1374
51781W        W94875  32.662  24.818  19.581 -0.1654  0.1566 -0.0436
51782W        W94876  33.072  22.606  21.494  0.0532 -0.1826  0.0670
51783W        W94877   0.206  26.079  16.554  0.1804  0.3084  0.0438
51784W        W94878   0.076  24.598  16.687 -0.0588  0.0728  0.1592
51785W        W94879  33.551  23.271  17.509 -0.0780 -0.1518 -0.0490
51786W        W94880  33.409  25.447  18.213 -0.0882 -0.1065  0.0742
51787W        W94881  32.596  24.843  16.541 -0.1830  0.1597  0.1116
51788W        W94882  32.635  24.264  17.299  0.0892  0.1095 -0.0559
51789W        W94883  34.598  24.683  17.965  0.0401 -0.1171  0.1194
51790W        W94884  33.724  22.661  16.173 -0.1557 -0.3344  0.1163
51791W        W94885  32.125  24.025  17.204  0.4013  0.2056  0.3722
51792W        W94886  32.700  21.239  19.448  0.0010 -0.0946 -0.2380
51793W        W94887  33.470  22.773  20.854 -0.1669 -0.0959  0.0427
51794W        W94888  32.689  25.574  17.755  0.0277  0.1447 -0.1153
51795W        W94889  34.251  24.528  19.571  0.0297 -0.2443  0.2228
51796W        W94890  32.128  22.321  17.373 -0.3829  0.0084  0.0299
51797W        W94891  33.368  23.756  17.192 -0.1665  0.1699 -0.2371
51798W        W94892  33.016  24.634  18.217  0.0743 -0.0522  0.2598
51799W        W94893  34.510  24.644  17.131  0.1719 -0.0177 -0.1628
51800W        W94894  34.283  24.334  17.557  0.1026 -0.2401  0.1374
51801W        W94895  33.444  22.910  21.334  0.1321  0.2273  0.2006
51802W        W94896  33.983  23.736  19.000  0.0180 -0.2968  0.2763
51803W        W94897  33.922  22.473  18.467  0.0861 -0.0431  0.2063
51804W        W94898   0.141  23.754  17.501  0.1235  0.0311 -0.0311
51805W        W94899   0.615  23.409  18.980  0.0829 -0.1933 -0.0507
51806W        W94900  33.940  23.403  19.521  0.0575  0.2307  0.3337
51807W        W94901  33.063  22.965  16.540  0.0718  0.1385 -0.1269
51808W        W94902  31.917  24.529  18.913 -0.3091 -0.0574  0.2301
51809W        W94903  33.192  24.640  16.711 -0.1907  0.1627 -0.0765
51810W        W94904  34.568  22.643  19.814 -0.1374 -0.3535  0.1313
51811W        W94905  32.668  23.327  19.387  0.0989 -0.2980 -0.0042
51812W        W94906   0.289  25.036  16.548 -0.1670 -0.3045  0.1846
51813W        W94907  32.259  24.032  18.574  0.2762 -0.1768 -0.3932
51814W        W94908  32.828  23.482  18.631  0.1309  0.2406 -0.1632
51815W        W94909  34.293  22.111  19.309 -0.0727  0.0867  0.2041
51816W        W94910  31.103  22.934  18.716 -0.0871 -0.3652 -0.0352
51817W        W94911  32.743  24.714  19.088 -0.0887  0.0466  0.0260
51818W        W94912  32.253  22.447  16.395 -0.1284  0.0967 -0.0643
51819W        W94913  32.013  23.187  18.831  0.2309  0.1960 -0.1138
51820W        W94914   0.314  25.518  17.312  0.0556  0.0423  0.0675
51821W        W94915  31.991  23.233  17.590 -0.0492 -0.2810  0.2251
51822W        W94916   0.548  24.950  16.128  0.0952 -0.1030 -0.2682
51823W        W94917  32.565  23.236  18.006 -0.3077 -0.1101  0.3115
51824W        W94918  33.328  22.491  19.340  0.0547 -0.0290  0.2647
51825W        W94919   0.820  23.893  19.092  0.1990  0.1337 -0.3391
51826W        W94920  32.519  22.692  19.366  0.0115 -0.2878  0.0506
51827W        W94921  32.339  22.419  18.210 -0.0572 -0.1342  0.2130
51828W        W94922  32.542  23.244  16.177  0.0295  0.1790 -0.1122
51829W        W94923  32.506  25.073  16.122  0.0567  0.1644  0.0984
51830W        W94924  31.675  23.382  17.957  0.2825  0.0808  0.1895
51831W        W94925  33.808  25.871  20.888 -0.1006  0.1433  0.1128
51832W        W94926  32.973  22.652  15.564 -0.1264  0.3394  0.0513
51833W        W94927   0.438  25.955  17.454 -0.2977 -0.2173  0.0862
51834W        W94928   1.129  25.627  19.332 -0.2197 -0.3537 -0.0132
51835W        W94929  34.325  21.951  17.146  0.2390  0.0870  0.0563
51836W        W94930  33.991  24.706  17.322 -0.0866 -0.2635 -0.1986
51837W        W94931  33.523  25.936  18.164 -0.2381  0.0219 -0.0203
51838W        W94932  32.145  22.750  18.974 -0.0285  0.2923  0.2017
51839W        W94933  34.509  25.141  16.732 -0.1410 -0.1109  0.1680
51840W        W94934  33.601  25.054  17.455  0.0784  0.0121  0.0481
51841W        W94935  33.764  24.587  18.203 -0.0253  0.1960 -0.1066
51842W        W94936  32.723  25.577  19.528  0.1332  0.0135  0.2106
51843W        W94937  31.266  23.617  19.284  0.0046 -0.3195  0.1123
51844W        W94938  33.482  21.019  17.285 -0.1090  0.2073 -0.4055
51845W        W94939  32.324  24.202  19.637 -0.0195  0.1310 -0.0942
51846W        W94940  33.188  24.156  18.877  0.2301 -0.0130 -0.0246
51847W        W94941  34.259  25.632  17.631 -0.0146  0.0689 -0.3742
51848W        W94942  34.325  23.089  16.552  0.3452 -0.1531 -0.1045
51849W        W94943   0.215  25.026  17.108  0.0930 -0.0888 -0.1814
51850W        W94944  32.356  24.046  16.780 -0.1376  0.0305  0.0420
51851W        W94945  34.103  25.162  17.048  0.0760 -0.0313  0.0895
51852W        W94946  33.928  24.243  19.203 -0.0525 -0.2236  0.0473
51853W        W94947  33.075  22.982  15.956 -0.1629  0.1533  0.1516
51854W        W94948  34.291  22.340  20.224  0.1663 -0.3612  0.2966
51855W        W94949  33.332  24.251  19.495 -0.4886 -0.1866 -0.0259
51856W        W94950   0.826  23.735  16.704  0.3062 -0.3486  0.2439
51857W        W94951  34.514  23.300  17.255  0.2339  0.0980  0.3138
51858W        W94952  33.345  23.851  16.301 -0.1581  0.1537 -0.1286
51859W        W94953  34.517  26.030  17.485  0.0837 -0.1637 -0.2554
51860W        W94954  34.239  26.412  17.292  0.0751  0.1119 -0.3534
51861W        W94955  34.409  25.242  17.938 -0.1079  0.5340  0.0168
51862W        W94956  32.165  23.090  17.054  0.0396  0.3816 -0.0437
51863W        W94957  32.943  23.001  21.141  0.0138  0.2448  0.0596
51864W        W94958   0.071  24.216  17.242  0.0118  0.0272  0.1741
51865W        W94959  32.663  21.878  19.306 -0.2813 -0.3126  0.0572
51866W        W94960  33.387  23.535  16.758  0.0440  0.2874  0.2834
51867W        W94961  31.757  22.318  16.994 -0.0405 -0.1111 -0.3259
51868W        W94962  34.325  23.515  16.864  0.1151 -0.2454 -0.0054
51869W        W94963  34.678  25.955  19.699  0.3637  0.0069 -0.1200
51870W        W94964  33.434  20.226  17.258 -0.0250 -0.1990  0.4003
51871W        W94965   0.854  25.909  17.694  0.2084 -0.3745  0.1347
51872W        W94966  32.867  22.814  17.276 -0.2359 -0.0270 -0.2564
51873W        W94967  33.509  22.509  16.662  0.1321  0.0415  0.3089
51874W        W94968  33.315  23.654  17.688  0.1798 -0.2389  0.0786
51875W        W94969  33.728  24.189  17.310 -0.1864  0.0360  0.2454
51876W        W94970  32.827  24.640  16.135 -0.2330  0.0494  0.1044
51877W        W94971  34.543  24.077  18.301  0.3218 -0.0353  0.0717
51878W        W94972  33.514  23.818  19.284 -0.1120 -0.1521 -0.4453
51879W        W94973  32.376  23.768  15.835 -0.1081 -0.3312  0.0960
51880W        W94974  32.980  23.940  18.433 -0.0975  0.3831 -0.0906
51881W        W94975  34.279  23.511  18.280 -0.2000 -0.1519  0.5037
51882W        W94976  34.029  24.744  16.739 -0.2210 -0.2101  0.1611
51883W        W94977   0.016  22.130  18.569  0.2189 -0.3005 -0.3292
51884W        W94978  32.299  22.818  18.470 -0.0911  0.2794  0.2130
51885W        W94979  34.242  22.866  20.160 -0.2922  0.0392  0.0575
51886W        W94980  33.068  22.486  17.005  0.4634 -0.0782  0.3772
51887W        W94981  34.294  24.332  16.505 -0.2113 -0.0953  0.3022
51888W        W94982  33.274  24.248  17.380  0.1539  0.2502  0.3011
51889W        W94983  34.090  21.775  19.674 -0.0241  0.1955  0.1758
51890W        W94984  32.933  22.702  19.068 -0.0451  0.0424  0.1402
51891W        W94985  32.733  24.113  17.790  0.0795  0.0752  0.1417
51892W        W94986  32.245  21.161  17.834 -0.0272 -0.0806  0.0898
51893W        W94987  34.302  22.072  18.293  0.0974  0.1544  0.2400
51894W        W94988  32.217  22.824  17.923 -0.1224 -0.1667  0.0365
51895W        W94989  33.567  22.423  17.205 -0.4065 -0.2428 -0.0354
51896W        W94990  33.441  24.069  16.751 -0.2719  0.1944  0.3005
51897W        W94991   1.440  23.222  20.573  0.2237  0.1706 -0.2462
51898W        W94992   0.214  22.505  20.741 -0.1612  0.1377 -0.1408
51899W        W94993  32.345  21.258  15.626  0.1118  0.0888 -0.0145
51900W        W94994  33.089  23.205  19.032 -0.1072  0.2017 -0.4265
51901W        W94995  33.211  24.949  19.024 -0.0300  0.0685 -0.0145
51902W        W94996  33.486  24.510  19.095 -0.2257  0.0069 -0.0913
51903W        W94997  32.145  21.741  20.894 -0.1223  0.0211 -0.2794
51904W        W94998  34.327  25.742  19.233 -0.1115 -0.1638 -0.5510
51905W        W94999  33.350  22.243  21.337 -0.0648 -0.0907 -0.3093
51906W        W95000  32.617  23.077  18.914  0.2086 -0.1714 -0.0508
51907W        W95001  32.627  22.344  17.232 -0.1417  0.0165  0.0509
51908W        W95002  32.520  23.822  18.196  0.1435  0.1672 -0.4030
51909W        W95003  34.406  23.802  17.289 -0.3865 -0.2486  0.1058
51910W        W95004  34.249  23.154  20.603  0.0056  0.0031  0.4976
51911W        W95005  34.337  22.828  16.982 -0.1298  0.1896  0.1743
51912W        W95006  33.766  24.738  18.701  0.2012  0.2732 -0.3618
51913W        W95007  33.064  22.279  18.730  0.1023  0.0170 -0.2801
51914W        W95008  33.510  23.112  18.016  0.0595 -0.2291 -0.1201
51915W        W95009  34.234  24.620  19.009 -0.0438 -0.0926 -0.1404
51916W        W95010  33.484  22.254  17.736 -0.1460 -0.2604 -0.1596
51917W        W95011  34.513  25.193  18.466 -0.2136  0.0354  0.0828
51918W        W95012  34.227  25.494  22.630  0.1814  0.1932 -0.0563
51919W        W95013  32.377  22.641  20.616 -0.0107 -0.1031  0.0542
51920W        W95014  33.709  21.873  21.522 -0.1550  0.2863 -0.1223
51921W        W95015  32.403  22.036  22.110  0.1516  0.0013  0.2980
51922W        W95016  34.250  23.285  23.054  0.0274  0.1289  0.0065
51923W        W95017  33.722  24.830  20.569 -0.1212 -0.1049  0.0123
51924W        W95018  34.390  21.764  21.149  0.1493 -0.0265 -0.0153
51925W        W95019  32.002  23.602  21.142 -0.1785 -0.4253  0.0955
51926W        W95020  33.116  23.654  21.339  0.0720 -0.0214 -0.2348
51927W        W95021  33.219  21.762  21.982 -0.1674  0.0623 -0.0765
51928W        W95022  33.148  22.636  22.115  0.4151  0.0671  0.2022
51929W        W95023  33.033  23.087  21.633  0.2175  0.1061 -0.0591
51930W        W95024  34.165  23.611  21.538  0.6368 -0.1095  0.0770
51931W        W95025  32.441  22.286  19.041 -0.1292 -0.3283 -0.0486
51932W        W95026  32.887  23.962  21.591 -0.1042  0.0342  0.2077
51933W        W95027  33.388  24.951  22.228  0.0876 -0.0496  0.1014
51934W        W95028  33.981  26.380  21.988 -0.0315 -0.0449  0.2014
51935W        W95029   0.646  25.949  21.612 -0.2812 -0.0081 -0.0099
51936W        W95030  33.480  22.981  21.922  0.1562  0.2888  0.2797
51937W        W95031  32.985  25.625  21.302  0.2994 -0.1089 -0.1509
51938W        W95032  33.963  25.983  21.401  0.1684 -0.3119  0.3237
51939W        W95033  33.623  25.926  23.443 -0.3084  0.2479  0.0634
51940W        W95034  33.461  24.734  21.062 -0.3205 -0.3666  0.2535
51941W        W95035  33.903  25.532  23.104  0.2057 -0.1461 -0.0245
51942W        W95036  34.659  25.115  20.477  0.0769  0.2350 -0.0302
51943W        W95037  34.547  24.394  21.948  0.3118  0.1107 -0.1107
51944W        W95038  32.936  24.589  23.344 -0.1449 -0.1788  0.1158
51945W        W95039  32.738  24.780  21.822  0.2826  0.0254  0.0706
51946W        W95040  33.797  24.190  19.791 -0.3439 -0.2982  0.1855
51947W        W95041   1.324  22.620  20.625  0.1920  0.1496 -0.2825
51948W        W95042   0.102  23.422  22.855 -0.1096  0.2450 -0.1312
51949W        W95043  32.614  24.777  21.242  0.2074  0.1146  0.1486
51950W        W95044   0.249  21.642  22.827 -0.0044 -0.1146 -0.0361
51951W        W95045  32.810  25.634  22.196 -0.1685  0.1398  0.2240
51952W        W95046  33.053  23.175  22.177  0.4734 -0.0165  0.1438
51953W        W95047  33.475  23.735  20.627 -0.1585 -0.0823  0.1637
51954W        W95048  32.136  25.464  23.908  0.2699 -0.1735 -0.3002
51955W        W95049  31.823  22.898  22.728 -0.2387 -0.0248 -0.0035
51956W        W95050   0.608  22.160  20.921  0.1579  0.3214  0.0722
51957W        W95051  32.057  24.774  23.413 -0.0462 -0.3370  0.2632
51958W        W95052  34.114  24.415  21.614  0.2525 -0.1213 -0.0782
51959W        W95053  34.083  23.840  19.634  0.2723 -0.1017 -0.0056
51960W        W95054  33.904  25.396  21.390  0.4356  0.2356 -0.1780
51961W        W95055  32.698  26.577  21.989  0.0766 -0.0059  0.0157
51962W        W95056  34.471  21.221  24.390 -0.0794 -0.0408  0.0774
51963W        W95057  33.652  25.767  23.891  0.0877  0.2272  0.0102
51964W        W95058  33.765  26.181  20.493  0.0946  0.2398  0.2840
51965W        W95059  32.654  23.333  22.537  0.3022 -0.2617  0.0677
51966W        W95060  33.653  23.434  21.473  0.1054 -0.1634  0.0825
51967W        W95061  32.532  22.871  21.569  0.1798  0.1266 -0.0574
51968W        W95062  34.088  24.099  22.026  0.1027 -0.0448  0.1504
51969W        W95063  33.312  22.480  22.557  0.1879  0.0332  0.1002
51970W        W95064  33.216  24.171  21.317 -0.0830 -0.1753 -0.2119
51971W        W95065  33.410  23.900  21.677  0.2255  0.2816 -0.0808
51972W        W95066  33.991  21.754  22.322 -0.0882 -0.0591  0.2187
51973W        W95067  34.434  21.191  23.029  0.1130  0.0026 -0.1077
51974W        W95068  33.017  23.556  21.844  0.2589 -0.2282  0.1094
51975W        W95069  33.812  22.035  21.028 -0.0083 -0.0815 -0.0428
51976W        W95070   0.471  22.989  20.783  0.0905 -0.4282  0.2277
51977W        W95071  33.877  22.972  19.902  0.0092  0.0147  0.3130
51978W        W95072  34.632  23.000  23.574  0.0282 -0.0660  0.4424
51979W        W95073   0.138  21.928  21.038 -0.0881  0.0757 -0.1615
51980W        W95074  32.673  27.289  21.796  0.0353 -0.3211 -0.1816
51981W        W95075  33.533  25.411  22.000 -0.3364 -0.0306  0.1518
51982W        W95076  33.986  23.062  21.445 -0.1055 -0.0371  0.0102
51983W        W95077  33.436  24.704  23.124 -0.0763 -0.0753 -0.1677
51984W        W95078   0.260  22.328  19.885  0.0882 -0.0466  0.0460
51985W        W95079  33.497  24.239  20.814 -0.1226 -0.1944  0.2756
51986W        W95080  32.112  24.486  21.686  0.0654  0.3801  0.0844
51987W        W95081  34.370  25.155  21.591 -0.1568 -0.1024  0.1553
51988W        W95082  32.168  24.406  24.582  0.1606 -0.0783 -0.1636
51989W        W95083  33.501  23.316  20.952  0.2126 -0.0198  0.3900
51990W        W95084  34.144  25.700  23.885  0.1982 -0.0550  0.0324
51991W        W95085  33.076  24.188  24.236 -0.0916  0.1947  0.2641
51992W        W95086  33.923  24.004  20.732 -0.0880  0.1295  0.2876
51993W        W95087   0.279  24.209  21.490  0.2993  0.1080  0.3759
51994W        W95088  33.045  25.121  23.092 -0.1098  0.0020  0.0531
51995W        W95089   0.616  21.330  23.133 -0.0556 -0.1878 -0.2282
51996W        W95090  34.424  23.312  21.217  0.0629  0.0261  0.3016
51997W        W95091  33.994  26.206  19.922  0.2333 -0.0959  0.1202
51998W        W95092  34.670  22.786  23.070 -0.0264  0.1494  0.1086
51999W        W95093  33.011  23.763  20.381 -0.1470  0.2541  0.2996
52000W        W95094   1.315  22.543  24.642  0.1194  0.0173 -0.0457
52001W        W95095  33.774  24.476  21.959  0.1892  0.2113 -0.1412
52002W        W95096  32.255  24.907  20.924 -0.1852  0.1884 -0.1718
52003W        W95097   1.238  22.308  23.195 -0.1784 -0.2292 -0.1946
52004W        W95098  33.886  24.340  20.306 -0.0428  0.0070 -0.3921
52005W        W95099  33.572  23.680  19.797 -0.4535  0.0808 -0.1727
52006W        W95100  34.364  22.383  21.860 -0.4460 -0.1092  0.1587
52007W        W95101  33.559  23.822  21.138 -0.1760 -0.2109  0.0987
52008W        W95102  34.351  24.564  20.441  0.4923  0.2768  0.1671
52009W        W95103  33.891  24.801  21.387  0.2721  0.2145  0.2781
52010W        W95104  32.563  25.224  22.148  0.1219  0.1714 -0.0454
52011W        W95105  33.759  22.474  22.862  0.3632  0.2087 -0.0932
52012W        W95106  33.110  23.901  19.810  0.0892  0.1395 -0.2502
52013W        W95107  34.378  23.625  22.050  0.1805  0.2072  0.1237
52014W        W95108   0.090  24.442  23.992  0.0852  0.4933  0.0264
52015W        W95109  33.043  25.223  21.995 -0.1957  0.1978 -0.2841
52016W        W95110  33.709  22.658  22.336 -0.3036  0.2629  0.5072
52017W        W95111  31.758  23.483  19.323  0.2055 -0.1612  0.0664
52018W        W95112   0.549  23.255  21.734 -0.0162  0.0925  0.1743
52019W        W95113  32.350  26.388  22.418 -0.1457 -0.0189  0.0026
52020W        W95114  34.347  23.641  20.797  0.2984 -0.0467 -0.0218
52021W        W95115  34.111  25.475  21.901 -0.0228  0.3399 -0.1525
52022W        W95116  34.578  22.669  24.056  0.2401 -0.1694  0.0948
52023W        W95117   0.747  21.645  22.636 -0.5640  0.2456  0.0473
52024W        W95118  32.053  22.943  21.877  0.2749 -0.0267 -0.2123
52025W        W95119  34.370  23.954  22.510  0.0988  0.0963  0.1755
52026W        W95120  34.346  23.476  22.605 -0.2904 -0.2391 -0.1372
52027W        W95121  33.279  25.463  23.555 -0.1850  0.0164  0.0970
52028W        W95122  33.334  23.015  19.867 -0.1229  0.1225  0.0751
52029W        W95123  32.475  24.958  22.623 -0.0036 -0.1128  0.0446
52030W        W95124  33.879  25.047  21.816  0.0997 -0.1686 -0.1022
52031W        W95125  34.065  22.525  23.701 -0.1180 -0.0951  0.1423
52032W        W95126  34.149  24.059  23.336 -0.0552 -0.1293 -0.0476
52033W        W95127  33.070  25.758  21.764  0.1612  0.2736 -0.1986
52034W        W95128  32.920  25.754  22.671 -0.2540  0.0846 -0.0192
52035W        W95129  33.270  23.850  23.513  0.2044  0.0855 -0.4722
52036W        W95130  31.787  21.781  22.067  0.2030  0.2459  0.0538
52037W        W95131  33.860  24.185  22.502 -0.1637 -0.2808  0.1791
52038W        W95132  33.150  23.228  23.110 -0.3246 -0.1339  0.0914
52039W        W95133  33.976  21.195  22.242 -0.1168 -0.2269 -0.1456
52040W        W95134  33.953  22.708  21.900 -0.1175 -0.4014 -0.2946
52041W        W95135  34.295  23.021  19.661 -0.1534 -0.0712  0.0689
52042W        W95136  34.033  23.256  21.961 -0.2953  0.0899  0.0747
52043W        W95137  33.939  23.809  20.112 -0.1616  0.0022 -0.1979
52044W        W95138  33.372  24.474  22.400 -0.2633  0.3833  0.1213
52045W        W95139  34.604  22.420  23.478 -0.3018  0.0962  0.0952
52046W        W95140  34.147  22.750  22.698  0.4322 -0.0683  0.3578
52047W        W95141  33.198  22.955  23.551 -0.0541  0.0032 -0.1375
52048W        W95142  33.951  21.431  21.354  0.1258  0.0088  0.1562
52049W        W95143  33.657  24.077  18.694 -0.0612 -0.1205 -0.0464
52050W        W95144  34.488  24.472  21.322  0.0012 -0.0437  0.1016
52051W        W95145  33.066  23.907  20.920 -0.0511 -0.1038  0.0702
52052W        W95146  33.412  26.278  24.548 -0.2454 -0.0332 -0.0680
52053W        W95147  32.182  22.337  20.299 -0.2614 -0.1567 -0.0440
52054W        W95148  34.309  25.421  20.226 -0.2527  0.0903  0.0046
52055W        W95149  34.092  26.357  22.470 -0.1278  0.0285 -0.0108
52056W        W95150  33.870  22.553  21.324 -0.0776  0.0033 -0.0566
52057W        W95151  33.056  23.439  19.978 -0.0004 -0.0632  0.0877
52058W        W95152  32.240  25.264  23.466 -0.1270  0.0853  0.0820
52059W        W95153  33.412  23.364  23.637  0.0695 -0.0873  0.2142
52060W        W95154  33.348  25.294  21.461 -0.1759  0.0649 -0.0540
52061W        W95155  34.269  24.043  21.180 -0.1631 -0.0079  0.1245
52062W        W95156  32.692  23.429  21.441 -0.2274  0.3149 -0.2043
52063W        W95157  32.542  25.590  21.798 -0.3075 -0.2727 -0.0615
52064W        W95158  33.448  23.999  22.679 -0.0019 -0.0595 -0.0585
52065W        W95159  32.736  21.847  21.728  0.0400  0.2102 -0.0532
52066W        W95160  33.153  24.970  23.643  0.1295 -0.0210 -0.1330
52067W        W95161  32.809  22.683  23.343 -0.1708  0.1220  0.3786
52068W        W95162  33.547  26.758  20.522  0.0391 -0.1474 -0.0120
52069W        W95163  34.166  22.151  21.461  0.0242  0.0409  0.2334
52070W        W95164  33.575  26.254  21.492  0.5207  0.2633 -0.0179
52071W        W95165  33.455  24.975  20.064  0.0442  0.0711  0.0215
52072W        W95166  33.819  26.650  21.629 -0.0943 -0.0040  0.0356
52073W        W95167   0.005  23.840  21.177 -0.1242 -0.0294  0.3028
52074W        W95168   0.202  22.136  21.534 -0.1293  0.0727  0.1985
52075W        W95169  33.597  23.551  22.732  0.2237 -0.0988 -0.1692
52076W        W95170  32.638  25.843  24.225  0.2727 -0.0561 -0.0204
52077W        W95171  33.386  22.738  20.368  0.1615  0.1160  0.2550
52078W        W95172  33.931  22.149  21.969  0.1861 -0.0615 -0.0974
52079W        W95173  34.111  25.077  18.832 -0.4188 -0.2056  0.0914
52080W        W95174   0.449  25.559  20.495  0.2030  0.0813 -0.1104
52081W        W95175  33.256  24.944  22.724  0.0576 -0.1113  0.0214
52082W        W95176  34.216  25.983  22.225 -0.1535  0.0002 -0.1006
52083W        W95177  33.772  21.486  21.828 -0.2907 -0.0312 -0.1807
52084W        W95178  33.031  24.041  22.089 -0.2216  0.0936 -0.0054
52085W        W95179  33.420  24.489  20.010 -0.3013 -0.0144  0.1601
52086W        W95180  32.660  22.697  22.054  0.0510  0.1586  0.0973
52087W        W95181  33.812  23.715  21.898  0.1629 -0.3869 -0.1257
52088W        W95182  34.153  21.967  22.796 -0.0007  0.1764 -0.1924
52089W        W95183  32.800  24.401  21.503  0.4437  0.0737  0.0869
52090W        W95184   1.263  22.840  23.197  0.0860  0.0547  0.3508
52091W        W95185  32.093  21.504  20.061 -0.0227  0.3988  0.1624
52092W        W95186  33.141  24.718  19.481 -0.0530 -0.0254  0.1306
52093W        W95187  33.343  22.167  22.231 -0.3493  0.0619 -0.1076
52094W        W95188   1.234  21.704  22.491  0.0221  0.1593 -0.1136
52095W        W95189   0.386  21.757  22.317 -0.0904 -0.0467  0.0943
52096W        W95190  33.430  24.011  20.185 -0.2724  0.0078  0.1477
52097W        W95191  34.108  25.200  19.736 -0.0047  0.0744  0.0851
52098W        W95192  33.735  24.745  22.572 -0.4220 -0.0122  0.0462
52099W        W95193  33.400  25.266  23.965  0.2898 -0.0025 -0.2619
52100W        W95194  33.509  22.440  21.808  0.1260 -0.0473 -0.0884
52101W        W95195   0.309  24.436  24.540  0.1088 -0.5199 -0.0383
52102W        W95196  34.384  24.170  20.700  0.3219  0.2366 -0.0224
52103W        W95197   0.482  27.297  21.356 -0.0672 -0.0412  0.1012
52104W        W95198   0.586  23.772  21.639 -0.0587  0.1974 -0.1205
52105W        W95199  34.465  21.567  22.628  0.1503  0.3019  0.0127
52106W        W95200  33.872  23.977  21.485  0.2632  0.1876 -0.0685
52107W        W95201  33.058  22.229  21.817  0.2393  0.0372 -0.0312
52108W        W95202  33.926  22.507  20.785  0.1528 -0.0057  0.0744
52109W        W95203  33.063  24.813  21.393  0.2010 -0.0115  0.2884
52110W        W95204   0.141  21.572  25.013  0.1350  0.0373  0.0280
52111W        W95205  32.254  24.404  23.826 -0.0772 -0.3175  0.1542
52112W        W95206  32.539  24.240  21.869 -0.1078 -0.3102  0.0008
52113W        W95207  33.538  21.607  21.105 -0.0556  0.1012  0.3916
52114W        W95208  34.074  22.355  22.433  0.1678  0.0090  0.0072
52115W        W95209  34.085  22.677  23.221  0.2419  0.0888 -0.2615
52116W        W95210   0.063  21.937  21.923 -0.2400  0.1044  0.1265
52117W        W95211  31.874  24.987  19.300 -0.5655 -0.3534  0.0050
52118W        W95212   0.498  22.813  22.617 -0.1416  0.0993 -0.1833
52119W        W95213  33.257  22.240  24.375  0.0781 -0.0667 -0.2969
52120W        W95214  31.850  22.615  20.546 -0.1790  0.0645  0.1946
52121W        W95215  34.465  23.152  21.706  0.2222  0.2776 -0.0832
52122W        W95216  33.880  24.864  24.165 -0.3131 -0.0244  0.0807
52123W        W95217  33.130  27.441  24.443  0.0021 -0.0003 -0.0601
52124W        W95218  33.875  21.364  22.862 -0.1427  0.0525 -0.0700
52125W        W95219  33.249  26.607  24.132  0.0443  0.1585 -0.1407
52126W        W95220  33.592  22.649  23.339 -0.0551 -0.1386 -0.1877
52127W        W95221  34.228  24.736  22.517 -0.0734  0.2215  0.2970
52128W        W95222  33.497  21.582  22.427  0.2221  0.1996  0.2256
52129W        W95223  32.727  23.058  22.951  0.0073  0.1914 -0.0270
52130W        W95224  33.958  23.500  21.052  0.0875  0.2330  0.0738
52131W        W95225  33.971  23.661  22.377  0.0005  0.3051  0.1562
52132W        W95226  33.937  23.482  20.515  0.0523  0.2794 -0.1097
52133W        W95227   0.499  25.748  23.234  0.2329 -0.2371 -0.2221
52134W        W95228  32.402  22.327  22.527 -0.1955  0.0537  0.4707
52135W        W95229  33.442  24.834  21.755 -0.3912  0.4913 -0.3763
52136W        W95230   0.038  24.483  20.857 -0.0698 -0.1983  0.0764
52137W        W95231  34.472  23.836  23.011 -0.2589  0.2130 -0.1222
52138W        W95232  33.260  25.872  22.192  0.1459  0.0072  0.2836
52139W        W95233  34.126  24.134  26.574 -0.2277  0.1326 -0.2624
52140W        W95234  33.980  24.380  23.999  0.1830  0.0660  0.1101
52141W        W95235  32.606  21.699  24.117 -0.0301 -0.0512 -0.2095
52142W        W95236  33.350  22.679  26.798  0.0442 -0.0393 -0.2690
52143W        W95237  33.680  23.835  26.463  0.4563  0.0229  0.1639
52144W        W95238  33.117  24.417  26.718  0.1597  0.2168  0.4591
52145W        W95239  33.756  21.285  24.728 -0.2645  0.3566 -0.0426
52146W        W95240  32.161  21.580  25.483  0.0430 -0.0214 -0.0232
52147W        W95241  33.245  23.899  25.060 -0.0402  0.0885 -0.0068
52148W        W95242  32.236  22.292  25.093 -0.0184 -0.0149 -0.2523
52149W        W95243  34.159  22.338  24.902  0.0496  0.1115 -0.0131
52150W        W95244   0.193  22.997  27.410 -0.0786  0.1603  0.0256
52151W        W95245  34.024  25.225  24.673 -0.0098 -0.0219  0.1788
52152W        W95246  34.524  23.216  24.304 -0.2011 -0.0472 -0.1307
52153W        W95247  31.774  24.412  24.878 -0.0731 -0.2504  0.3028
52154W        W95248  33.332  23.748  27.311 -0.3403  0.1285 -0.1683
52155W        W95249  33.841  25.631  26.375  0.0644 -0.0986  0.2100
52156W        W95250   0.536  24.241  25.425 -0.1564 -0.0368  0.1758
52157W        W95251  32.053  24.841  24.868  0.2349 -0.1799 -0.1608
52158W        W95252  32.394  25.408  26.246 -0.0936 -0.1249  0.2610
52159W        W95253  33.729  24.879  24.882  0.1526  0.2084 -0.1513
52160W        W95254  34.618  25.366  28.095  0.3328 -0.0808  0.0349
52161W        W95255  34.652  25.515  25.780  0.0883  0.2238 -0.0813
52162W        W95256  33.557  24.848  26.824  0.3680  0.1662  0.2780
52163W        W95257  33.333  26.098  26.796  0.1265  0.0578 -0.1623
52164W        W95258   0.141  26.259  26.423 -0.1195 -0.1613 -0.0523
52165W        W95259  34.490  24.498  26.649 -0.0197 -0.0059  0.1236
52166W        W95260  32.874  23.981  25.413 -0.0998  0.1079  0.0074
52167W        W95261  33.929  24.707  25.347 -0.2602  0.3996 -0.0495
52168W        W95262  34.429  22.729  24.576  0.0087  0.2547 -0.1185
52169W        W95263  34.202  21.472  25.876  0.2648 -0.3306 -0.0362
52170W        W95264  33.053  24.764  26.371 -0.0707 -0.0132 -0.1821
52171W        W95265  33.767  23.115  27.562 -0.1697  0.0539 -0.2197
52172W        W95266  33.078  25.592  26.984 -0.1282  0.0145 -0.0093
52173W        W95267  32.700  23.397  25.983  0.0478 -0.1872  0.1416
52174W        W95268  33.429  22.921  24.924 -0.0851  0.2768  0.0656
52175W        W95269  31.159  23.474  28.086 -0.1842 -0.0644  0.2393
52176W        W95270  32.342  24.105  27.759  0.1721  0.0568 -0.1742
52177W        W95271  33.242  21.645  23.409  0.1972  0.0174  0.1768
52178W        W95272  33.729  25.346  28.238  0.1429  0.0955  0.1247
52179W        W95273  32.286  23.500  26.252 -0.1387  0.1065 -0.0035
52180W        W95274  33.837  23.522  23.864 -0.1046  0.1718  0.2111
52181W        W95275  34.303  22.820  25.047  0.1264 -0.0162 -0.0882
52182W        W95276  32.790  25.237  27.132 -0.0139 -0.1397  0.2166
52183W        W95277  32.183  23.499  27.930 -0.4720 -0.1999  0.0383
52184W        W95278   0.484  25.713  27.050 -0.3467 -0.1269  0.0131
52185W        W95279  33.591  24.791  23.755  0.0273  0.0573  0.0849
52186W        W95280  32.488  21.976  25.453 -0.1255  0.1229 -0.3436
52187W        W95281  33.686  25.624  24.932 -0.1718  0.2484  0.0012
52188W        W95282  33.060  22.342  26.441 -0.1414 -0.0630 -0.1831
52189W        W95283  34.652  24.072  26.505 -0.1377  0.0059 -0.0157
52190W        W95284  33.294  22.197  27.028 -0.2021  0.1914 -0.2060
52191W        W95285  33.258  23.668  25.501  0.3660 -0.1433 -0.2336
52192W        W95286  32.779  22.982  25.045 -0.1368 -0.1137 -0.1599
52193W        W95287  32.692  22.453  25.206  0.0238  0.1612  0.1383
52194W        W95288  32.970  21.950  26.724  0.0366 -0.2450 -0.3691
52195W        W95289  33.983  21.884  25.005 -0.1376  0.1335  0.2122
52196W        W95290  33.656  22.977  23.799  0.1405  0.2999 -0.1704
52197W        W95291  33.166  23.640  26.015  0.3579 -0.0016  0.0162
52198W        W95292  33.755  23.879  25.428 -0.3743  0.0889  0.1871
52199W        W95293  34.110  23.150  27.177 -0.0613 -0.1560  0.2207
52200W        W95294  32.870  22.118  24.080 -0.2665 -0.3127  0.3082
52201W        W95295  32.978  26.241  26.242 -0.1477 -0.1948  0.1501
52202W        W95296   0.224  24.879  26.597  0.0107  0.1419  0.1287
52203W        W95297  31.839  22.050  26.086 -0.2128 -0.1521  0.0134
52204W        W95298  32.459  23.669  26.773 -0.1746  0.1407  0.1203
52205W        W95299  34.194  23.580  23.457  0.0350  0.3028  0.1090
52206W        W95300  32.451  25.739  23.509 -0.2223 -0.0375  0.2059
52207W        W95301  33.008  23.283  25.347  0.0969  0.2746 -0.0785
52208W        W95302  33.445  24.414  27.083 -0.0620  0.1947  0.0060
52209W        W95303  32.571  24.217  27.343  0.2449  0.0946  0.0377
52210W        W95304  34.021  23.201  24.258 -0.0459 -0.0113 -0.3960
52211W        W95305  32.165  24.651  26.647 -0.0324  0.4602 -0.0009
52212W        W95306  33.102  24.800  27.040 -0.1304 -0.0864 -0.1132
52213W        W95307   0.836  23.731  24.085 -0.1590  0.1704 -0.0296
52214W        W95308   0.175  24.377  25.809 -0.1068 -0.1230 -0.1757
52215W        W95309  31.842  23.799  26.172  0.1561  0.1115 -0.0744
52216W        W95310   0.069  22.067  24.260 -0.1950  0.1319 -0.2138
52217W        W95311  32.534  24.268  24.229  0.0203  0.0397  0.2023
52218W        W95312  32.409  26.415  25.172 -0.0710 -0.3732  0.0865
52219W        W95313   0.492  22.993  26.988  0.0198  0.0777  0.1329
52220W        W95314   0.325  23.512  25.296  0.5141  0.3701  0.1459
52221W        W95315   0.396  23.281  27.812 -0.1642 -0.1333  0.0125
52222W        W95316  33.699  23.868  28.124  0.2228 -0.2162  0.2310
52223W        W95317  32.741  26.061  26.715 -0.2105  0.2704 -0.1545
52224W        W95318  34.656  23.530  27.805 -0.3454  0.0783  0.1007
52225W        W95319  33.614  23.890  25.931 -0.3317 -0.1463  0.0576
52226W        W95320  33.541  25.192  24.488 -0.0925  0.0966 -0.2043
52227W        W95321  34.009  22.466  25.933  0.2452 -0.0054  0.3269
52228W        W95322   0.354  24.461  26.372 -0.0339 -0.2041 -0.2574
52229W        W95323  32.642  24.970  24.633  0.1219 -0.0577 -0.1209
52230W        W95324  32.917  24.861  25.019 -0.1473  0.2373  0.2040
52231W        W95325  32.006  25.209  25.195 -0.1668 -0.3506 -0.3311
52232W        W95326  33.724  23.879  24.916  0.1542  0.0063 -0.1063
52233W        W95327  31.856  24.562  24.204  0.0509 -0.0288 -0.3894
52234W        W95328  33.264  22.092  25.753 -0.1003  0.0018  0.0348
52235W        W95329   0.442  23.213  26.546  0.3164 -0.0568 -0.1392
52236W        W95330  33.476  25.602  26.709  0.2824  0.0649 -0.2179
52237W        W95331   0.222  25.329  27.038 -0.4177  0.2877  0.2762
52238W        W95332  33.113  23.258  24.732  0.1310 -0.0324 -0.1566
52239W        W95333  33.851  22.892  25.786 -0.0070 -0.0299  0.1204
52240W        W95334  33.501  25.843  25.353 -0.0001 -0.0734 -0.1120
52241W        W95335  32.971  23.359  24.245 -0.0498  0.4305 -0.1232
52242W        W95336  32.614  24.447  26.277  0.2943  0.1488  0.0022
52243W        W95337  34.424  24.316  28.528  0.3091  0.0617  0.0773
52244W        W95338   0.219  22.696  26.427 -0.0320 -0.1243 -0.1194
52245W        W95339  33.643  23.378  25.657 -0.0804 -0.1725 -0.0439
52246W        W95340  33.801  22.551  25.170 -0.1846  0.0991  0.1309
52247W        W95341   0.370  24.937  27.416 -0.0276 -0.2234  0.0352
52248W        W95342  34.677  24.471  27.560 -0.0761 -0.2908  0.2255
52249W        W95343  32.395  24.743  24.272 -0.0997 -0.2970  0.0773
52250W        W95344  32.942  22.814  26.392  0.2206 -0.3458 -0.0342
52251W        W95345  34.219  25.223  25.674 -0.2337  0.1298 -0.0278
52252W        W95346  34.565  22.500  26.729 -0.3130  0.3647  0.0346
52253W        W95347  33.223  24.368  26.060  0.4106 -0.2957 -0.2391
52254W        W95348  33.386  24.174  25.556 -0.1103 -0.1430 -0.1667
52255W        W95349  32.037  24.427  26.182  0.2378 -0.2752  0.2278
52256W        W95350  34.238  23.146  25.464  0.0041 -0.2132 -0.0600
52257W        W95351  32.731  22.227  25.798 -0.0422  0.0847  0.0482
52258W        W95352  32.530  23.097  25.553  0.1023 -0.1112  0.2472
52259W        W95353  33.062  23.890  27.724  0.1000 -0.1620 -0.1448
52260W        W95354  32.976  22.536  23.756 -0.2349  0.0970  0.0153
52261W        W95355  33.893  24.028  27.064 -0.0597 -0.4042 -0.0754
52262W        W95356  33.880  23.988  24.392 -0.2970  0.1986 -0.2341
52263W        W95357  33.026  24.158  27.182  0.0971  0.2028  0.0922
52264W        W95358  34.489  24.130  24.341 -0.0358 -0.2385  0.1696
52265W        W95359  34.648  23.777  24.938 -0.2306  0.2692 -0.2945
52266W        W95360  34.000  21.859  26.519  0.3677 -0.0253 -0.5954
52267W        W95361  34.180  22.085  26.931 -0.0791 -0.0970 -0.2669
52268W        W95362  32.733  23.448  27.772  0.0552  0.2779 -0.0371
52269W        W95363  32.329  22.852  27.136  0.1067 -0.0731  0.0531
52270W        W95364  33.800  22.252  24.417 -0.1018 -0.4619 -0.0323
52271W        W95365  33.286  25.302  24.928  0.1030  0.0614  0.4802
52272W        W95366  31.613  22.479  26.040  0.2592 -0.1537  0.2770
52273W        W95367  33.875  25.203  26.622  0.2366 -0.2346 -0.1485
52274W        W95368  32.799  23.901  23.415  0.0442 -0.2347 -0.1116
52275W        W95369  33.683  24.017  23.731 -0.0263 -0.2411  0.3322
52276W        W95370  34.370  23.167  27.673 -0.3499 -0.1737 -0.0336
52277W        W95371  33.072  21.800  24.468  0.2354 -0.0427 -0.1006
52278W        W95372  32.900  25.182  25.412 -0.0759 -0.1365  0.1305
52279W        W95373  34.303  26.145  26.708  0.0844  0.2324  0.0039
52280W        W95374  33.990  24.539  26.837 -0.1407 -0.0796 -0.3110
52281W        W95375  33.567  24.426  26.476  0.0840 -0.0886  0.2522
52282W        W95376  34.579  24.376  24.778 -0.1094 -0.0488  0.0735
52283W        W95377  34.248  23.635  26.322 -0.0350  0.1234  0.1306
52284W        W95378  34.478  24.003  25.880 -0.2322  0.0849 -0.2982
52285W        W95379  32.100  23.121  28.447  0.3640  0.1138  0.1482
52286W        W95380  33.334  23.018  26.155  0.0454 -0.0273  0.0886
52287W        W95381  34.444  24.529  28.041 -0.1192 -0.1907  0.0567
52288W        W95382  32.790  23.695  26.370 -0.3018  0.2149  0.1844
52289W        W95383  32.705  25.975  24.951 -0.1437 -0.1223  0.1259
52290W        W95384   0.096  23.004  25.524 -0.0394 -0.0252  0.1701
52291W        W95385  32.722  24.874  25.808  0.4392 -0.0713  0.3798
52292W        W95386  31.208  24.561  23.947 -0.1221 -0.3365 -0.0740
52293W        W95387  33.364  24.828  25.337  0.0402  0.1182  0.0709
52294W        W95388   0.256  23.802  26.183  0.0253 -0.1427 -0.0932
52295W        W95389  34.175  22.044  23.431  0.0096  0.0861  0.3615
52296W        W95390  33.216  23.436  26.512 -0.3166 -0.1766  0.3945
52297W        W95391  32.665  26.098  28.051 -0.1538 -0.0392  0.1699
52298W        W95392  33.515  23.395  25.140 -0.1762  0.3125  0.0367
52299W        W95393  32.314  23.959  25.920  0.0340 -0.1848  0.1294
52300W        W95394  33.902  24.449  23.512 -0.3181  0.1560  0.1211
52301W        W95395  33.721  25.078  25.817 -0.3605 -0.0062  0.3177
52302W        W95396  34.340  25.355  27.180 -0.2976  0.0020  0.2834
52303W        W95397  33.914  24.276  26.126  0.2349 -0.1130 -0.0002
52304W        W95398  33.538  23.284  24.167  0.0514  0.2322  0.0309
52305W        W95399  34.006  23.496  26.742  0.2346  0.3269 -0.0864
52306W        W95400  34.181  24.045  25.111 -0.1381 -0.1077  0.1618
52307W        W95401  32.988  23.629  26.922  0.2452 -0.1102 -0.1537
52308W        W95402   0.669  24.038  24.557  0.0186 -0.0019 -0.3729
52309W        W95403  34.150  22.465  25.465  0.2147 -0.0944  0.1968
52310W        W95404  34.002  22.890  26.249 -0.1782 -0.0689 -0.5245
52311W        W95405  34.069  23.660  27.799  0.0764  0.1562 -0.1417
52312W        W95406  33.002  22.043  25.340 -0.1842 -0.1663  0.0704
52313W        W95407  33.986  25.584  25.369  0.2845 -0.3770  0.2191
52314W        W95408  33.802  24.371  24.986  0.2020  0.1793 -0.0338
52315W        W95409  34.028  21.714  24.495 -0.0117 -0.0120  0.0868
52316W        W95410  32.630  23.237  26.528 -0.1567 -0.2567  0.1365
52317W        W95411  33.057  25.252  24.459  0.0529  0.1121  0.0354
52318W        W95412  34.301  26.102  24.512  0.1660  0.3048 -0.0948
52319W        W95413   0.898  24.639  27.761  0.3795 -0.1389 -0.0995
52320W        W95414  34.269  25.008  28.070 -0.1618 -0.2076 -0.1175
52321W        W95415  33.577  24.113  23.185 -0.1976  0.1608  0.1194
52322W        W95416  34.540  23.948  27.565 -0.0019  0.0478  0.0008
52323W        W95417  34.393  24.389  26.198 -0.0133 -0.0339  0.0220
52324W        W95418  33.846  24.474  24.462 -0.0876 -0.0013  0.0176
52325W        W95419   0.049  23.447  25.840  0.1634 -0.0322  0.0926
52326W        W95420  34.362  24.644  24.275 -0.2014 -0.2033  0.2006
52327W        W95421  34.140  24.141  27.812 -0.2375  0.0173  0.1654
52328W        W95422  33.359  23.730  24.054  0.1383 -0.0201 -0.5324
52329W        W95423  32.823  24.866  24.058 -0.2042 -0.1514 -0.5116
52330W        W95424  32.782  24.043  25.958  0.2054  0.0764 -0.1935
52331W        W95425  33.512  22.405  28.192  0.1397  0.1086  0.4674
52332W        W95426  32.055  22.886  25.763 -0.0416  0.0959  0.1769
52333W        W95427  31.573  22.950  25.011  0.1492 -0.2495  0.1428
52334W        W95428  31.607  23.306  24.544 -0.2137  0.1400  0.2189
52335W        W95429  34.492  22.038  26.535 -0.0058 -0.0946  0.0872
52336W        W95430  32.478  21.217  25.932 -0.3113  0.2158  0.3273
52337W        W95431   0.487  22.133  24.474 -0.2150  0.1290  0.0976
52338W        W95432  32.914  24.596  24.465  0.1884  0.1599  0.3981
52339W        W95433   0.972  23.039  27.682 -0.2535  0.0876 -0.0075
52340W        W95434  33.768  21.980  28.099 -0.1297  0.0958 -0.0135
52341W        W95435  33.435  20.789  23.572 -0.0807 -0.1074  0.1611
52342W        W95436  34.064  23.594  25.815 -0.2859  0.2962  0.2338
52343W        W95437   0.050  23.096  26.909 -0.1300  0.0574  0.2132
52344W        W95438  33.830  27.390  26.039 -0.0670  0.3185 -0.2739
52345W        W95439  33.591  22.611  26.339  0.0699 -0.0154  0.2024
52346W        W95440   1.813  24.893  27.785 -0.1230 -0.0331  0.2778
52347W        W95441  33.413  22.263  27.536  0.0800  0.2674 -0.1466
52348W        W95442  33.938  25.037  27.168 -0.1579  0.0146  0.0611
52349W        W95443   0.680  21.932  26.320  0.2063  0.1503  0.1103
52350W        W95444  32.601  24.603  26.951 -0.0359 -0.0673  0.1202
52351W        W95445  34.259  23.171  24.725  0.0337  0.1300  0.1361
52352W        W95446  34.470  22.680  28.279  0.2605  0.1900  0.0616
52353W        W95447   0.446  23.880  24.949 -0.1451 -0.2780 -0.1792
52354W        W95448   0.192  25.393  27.552 -0.0875 -0.0573  0.0500
52355W        W95449  34.520  21.511  26.249  0.0102  0.0167  0.0937
52356W        W95450  33.622  24.614  25.884 -0.1674 -0.0686  0.0629
52357W        W95451  33.980  24.240  25.620  0.1408 -0.3016  0.0076
52358W        W95452  32.467  23.085  28.094 -0.1067  0.2912 -0.0691
52359W        W95453  33.996  25.874  27.488  0.2417  0.3532 -0.0521
52360W        W95454   0.123  24.956  31.033  0.1783  0.3184  0.2330
52361W        W95455  33.235  23.450  27.843 -0.1122 -0.1368 -0.0599
52362W        W95456  33.549  22.444  29.530 -0.0651  0.0359  0.0211
52363W        W95457  32.998  21.733  30.009 -0.0350 -0.2028  0.2643
52364W        W95458   0.344  21.339  30.936 -0.0071  0.0455  0.1459
52365W        W95459  34.516  25.914  30.199 -0.1090 -0.2291  0.0517
52366W        W95460  32.847  22.821  29.003  0.0740  0.1383  0.1159
52367W        W95461  33.686  22.217  30.503  0.0303  0.0552 -0.2271
52368W        W95462  33.809  25.556  29.730  0.1192  0.1701  0.0716
52369W        W95463  34.336  23.829  29.739 -0.0869 -0.0010 -0.2372
52370W        W95464  33.591  23.194  29.516 -0.0453 -0.0147  0.0203
52371W        W95465   0.280  22.529  29.185  0.0980 -0.1901  0.0890
52372W        W95466  34.212  25.960  27.963 -0.0541 -0.1566 -0.0222
52373W        W95467  32.284  22.655  28.364 -0.0071  0.0572 -0.2861
52374W        W95468  34.612  23.391  29.195  0.1330 -0.0418 -0.0124
52375W        W95469  34.003  24.218  29.724  0.1595 -0.0706 -0.0643
52376W        W95470  34.045  25.841  29.270 -0.1106 -0.0648  0.1509
52377W        W95471   0.610  25.358  30.255  0.0297  0.1839 -0.0135
52378W        W95472  32.947  24.876  28.525  0.2846 -0.0993 -0.0857
52379W        W95473  32.202  24.958  30.828  0.1871 -0.2119  0.0205
52380W        W95474  33.435  25.087  30.003  0.0618  0.0310 -0.0275
52381W        W95475   0.753  24.384  31.219  0.2900 -0.0268 -0.1502
52382W        W95476  33.625  26.124  27.266 -0.0234 -0.0736  0.1581
52383W        W95477  34.388  24.702  30.936  0.1703  0.2743 -0.3471
52384W        W95478  34.405  25.528  27.671  0.1529  0.0289 -0.3303
52385W        W95479  34.238  24.817  29.046  0.0677 -0.0411  0.0677
52386W        W95480   1.305  24.376  30.889  0.0131 -0.1631 -0.1838
52387W        W95481  34.062  23.356  29.296 -0.0651  0.2931 -0.2771
52388W        W95482  32.631  25.077  28.908 -0.2037  0.0994  0.1221
52389W        W95483  34.397  23.535  27.373  0.0264  0.2737 -0.1427
52390W        W95484  34.506  21.443  29.793 -0.0164 -0.0494 -0.0870
52391W        W95485   0.207  25.630  29.022 -0.1153 -0.0004  0.0093
52392W        W95486   0.495  22.249  30.648 -0.5520  0.1507 -0.2582
52393W        W95487   0.114  24.607  29.535 -0.3201 -0.2477  0.2703
52394W        W95488  33.831  22.887  29.809 -0.0493 -0.3292  0.4261
52395W        W95489  33.689  23.533  29.003  0.0052  0.2033 -0.0307
52396W        W95490  31.714  23.422  30.600 -0.1297  0.1870  0.3387
52397W        W95491  34.031  22.483  28.939  0.0309  0.2686 -0.0188
52398W        W95492  34.054  22.995  28.475  0.2571 -0.2294 -0.1140
52399W        W95493  33.342  23.071  31.051 -0.0103 -0.0651 -0.0729
52400W        W95494  34.284  23.869  29.231  0.2396  0.1942  0.1131
52401W        W95495   0.376  24.525  27.893  0.0739 -0.2092 -0.2945
52402W        W95496  34.225  23.383  28.825  0.3656 -0.0507 -0.3663
52403W        W95497  33.597  25.613  31.084 -0.2096  0.1366  0.0311
52404W        W95498   0.156  22.027  30.945 -0.2523  0.0715 -0.1157
52405W        W95499   0.439  23.616  31.775  0.1386 -0.0312  0.1408
52406W        W95500  32.540  26.089  28.510 -0.0449 -0.1926 -0.3189
52407W        W95501  32.085  24.853  30.251 -0.2102 -0.0168 -0.2845
52408W        W95502  33.849  24.551  29.377 -0.0884  0.4127 -0.0587
52409W        W95503  32.587  22.384  30.763  0.0829 -0.1248 -0.0415
52410W        W95504  33.194  24.547  30.058 -0.0184 -0.1649 -0.0319
52411W        W95505  33.036  21.649  30.849  0.1915 -0.0371  0.0808
52412W        W95506  33.658  23.916  29.994 -0.1750  0.1577 -0.0657
52413W        W95507   0.090  23.618  30.714  0.1556 -0.2709  0.4988
52414W        W95508  34.319  21.881  29.662  0.2537 -0.1054 -0.0377
52415W        W95509  34.315  22.036  31.209  0.0044 -0.2700  0.0316
52416W        W95510  33.741  21.349  30.160 -0.3809  0.0056 -0.0638
52417W        W95511  32.669  21.659  29.636  0.1089  0.0147 -0.1823
52418W        W95512   0.209  24.479  28.364  0.1481  0.0456 -0.1997
52419W        W95513  33.487  25.140  27.781 -0.2999  0.0025 -0.2981
52420W        W95514   0.332  22.769  30.673 -0.0935 -0.0267 -0.1165
52421W        W95515  34.566  22.598  29.786 -0.2740  0.0822  0.1278
52422W        W95516  33.526  26.090  31.225 -0.1259 -0.0843  0.1020
52423W        W95517  34.670  23.183  28.149 -0.2339 -0.2387 -0.0429
52424W        W95518  33.679  23.395  28.024  0.0514 -0.1484  0.0667
52425W        W95519  33.814  23.897  31.064  0.0490  0.3707  0.2467
52426W        W95520  33.232  22.020  28.026  0.0285 -0.4052 -0.1930
52427W        W95521  33.718  25.055  28.657  0.1975  0.0469  0.3148
52428W        W95522  32.565  22.516  29.300  0.0026  0.5904 -0.1303
52429W        W95523   1.345  25.292  28.322 -0.0757 -0.0047 -0.1502
52430W        W95524  33.377  22.156  31.244  0.1284  0.1056  0.2960
52431W        W95525  33.265  22.949  27.935  0.0419 -0.2882  0.3102
52432W        W95526  33.635  24.823  30.350 -0.0270  0.1040 -0.0657
52433W        W95527  34.650  23.929  30.344 -0.2708 -0.1266  0.1556
52434W        W95528  34.171  23.385  28.149  0.1221  0.5450 -0.0407
52435W        W95529  34.027  24.076  28.854 -0.1241  0.0491  0.3362
52436W        W95530  33.806  23.382  31.000  0.0075 -0.0572 -0.1872
52437W        W95531   0.124  22.861  31.177 -0.2033 -0.3381 -0.3229
52438W        W95532  34.159  23.911  28.289  0.0274 -0.0220  0.3631
52439W        W95533  33.666  25.044  29.205 -0.2541 -0.2204  0.1487
52440W        W95534   0.002  20.792  31.362 -0.2085 -0.1168 -0.1724
52441W        W95535  32.835  23.784  28.267  0.0111 -0.1687 -0.1460
52442W        W95536   1.845  19.973  29.778 -0.3448  0.0641  0.1380
52443W        W95537   0.450  23.783  30.420 -0.2109  0.2360 -0.0802
52444W        W95538  33.847  25.605  30.583  0.1697 -0.4095 -0.3364
52445W        W95539   0.742  21.460  31.368 -0.0645  0.1513  0.0148
52446W        W95540  33.839  24.853  28.183  0.2685  0.0424 -0.0222
52447W        W95541   0.342  23.068  28.460  0.3328 -0.2507 -0.1292
52448W        W95542  34.603  20.505  30.715 -0.0864 -0.0199 -0.1125
52449W        W95543  33.774  26.850  28.738 -0.2516  0.0372 -0.0382
52450W        W95544   0.854  24.309  28.232 -0.3004  0.2073  0.2319
52451W        W95545  33.651  25.112  30.841 -0.3371  0.2267  0.0344
52452W        W95546  33.307  26.168  29.854 -0.3177  0.2202 -0.0763
52453W        W95547   0.273  23.494  28.728  0.4755  0.2224 -0.0966
52454W        W95548  33.594  24.073  28.558  0.0278  0.1246 -0.2251
52455W        W95549  34.027  23.041  30.215  0.1718 -0.1957  0.1376
52456W        W95550   0.578  21.995  29.897  0.0119 -0.0349 -0.0795
52457W        W95551  33.336  25.844  30.743 -0.4604  0.0478 -0.2765
52458W        W95552   0.285  23.177  31.473  0.3091 -0.0019  0.1687
52459W        W95553  31.990  23.020  27.941  0.0546  0.1229  0.1032
52460W        W95554   0.074  22.979  29.984 -0.3991  0.0826 -0.0472
52461W        W95555  33.534  24.609  28.543  0.1707  0.2052  0.2237
52462W        W95556  34.376  24.321  29.094  0.2566 -0.0151 -0.2647
52463W        W95557  33.830  25.014  29.664  0.0346  0.1021  0.3232
52464W        W95558  33.817  24.383  31.488  0.2724 -0.2194  0.1255
52465W        W95559   0.355  21.262  29.924 -0.3639 -0.1612 -0.0205
52466W        W95560  34.635  22.051  29.071  0.0662 -0.1194  0.0060
52467W        W95561   0.354  21.824  29.003  0.1825  0.0555 -0.1999
52468W        W95562   1.773  21.868  31.807  0.0810 -0.0710  0.0132
52469W        W95563   0.139  25.511  30.134 -0.0681 -0.0246 -0.0144
52470W        W95564  34.025  22.427  28.204  0.2700 -0.0001  0.1081
52471W        W95565  33.272  24.149  28.177 -0.1350  0.0355  0.1391
52472W        W95566  33.720  24.443  27.881 -0.1065  0.0818 -0.0256
52473W        W95567   1.436  21.978  31.186  0.0319 -0.1080  0.2309
52474W        W95568   0.254  24.930  30.539  0.0228  0.1117  0.1347
52475W        W95569  33.289  25.553  28.026  0.0410  0.0238  0.0883
52476W        W95570  34.177  24.724  30.082  0.3511  0.0745  0.2098
52477W        W95571  34.301  21.747  28.768 -0.1213 -0.2352 -0.1567
52478W        W95572  34.189  21.484  29.300  0.0817  0.3238  0.1131
52479W        W95573  32.849  22.857  30.979  0.0742  0.0827 -0.0457
52480W        W95574  33.401  22.564  31.018  0.0280 -0.0225  0.0863
52481W        W95575  33.850  22.019  29.563 -0.1891  0.0293  0.1420
52482W        W95576  34.461  24.357  29.792  0.0719  0.0490  0.3153
52483W        W95577   1.322  24.314  28.030 -0.0593  0.0394  0.1343
52484W        W95578   0.503  23.288  30.096  0.0767  0.2111 -0.1467
52485W        W95579  34.394  22.254  28.604  0.0267  0.0287  0.1266
52486W        W95580  33.709  22.660  28.631  0.0353 -0.1521 -0.1682
52487W        W95581  33.688  21.225   0.935  0.3122  0.0841 -0.0032
52488W        W95582  33.226  22.709  31.414 -0.0528 -0.3697  0.1516
52489W        W95583  34.240  22.112  30.462 -0.0679  0.2219  0.1278
52490W        W95584  33.947  21.727  30.577  0.1482 -0.1421  0.2010
52491W        W95585  34.431  22.848  29.150  0.0823  0.0957 -0.1152
52492W        W95586   0.031  25.488  28.554 -0.1483 -0.0620  0.1399
52493W        W95587  32.937  22.291  29.657 -0.1914 -0.1077 -0.2298
52494W        W95588  34.390  25.507  30.499  0.1759  0.1350  0.2167
52495W        W95589   0.204  23.939  28.580 -0.0032 -0.1380 -0.0870
52496W        W95590   0.140  24.962  28.173  0.1232  0.2157  0.0173
52497W        W95591  34.184  25.303  29.405  0.0804 -0.1508 -0.0435
52498W        W95592   0.934  21.403  28.933 -0.0066  0.0111 -0.1856
52499W        W95593  33.900  25.362  27.572  0.2816  0.0592  0.0997
52500W        W95594  34.380  25.472  29.943 -0.0810 -0.2327  0.1372
52501W        W95595  34.011  24.529  30.593  0.0830 -0.0465 -0.0132
52502W        W95596  33.848  25.437  28.930  0.0980 -0.1131 -0.0055
52503W        W95597   0.836  22.977  29.788 -0.1116  0.0280  0.1334
52504W        W95598  33.629  22.184  29.032 -0.0105  0.0527 -0.0576
52505W        W95599  33.270  24.376  27.610 -0.2782  0.1702 -0.1303
52506W        W95600  33.717  21.113  31.092 -0.1511 -0.3740  0.1696
52507W        W95601   0.753  21.173  30.413 -0.1864 -0.0329  0.1038
52508W        W95602  34.024  25.299  31.138  0.1116  0.1326 -0.1822
52509W        W95603  33.467  24.209  30.445 -0.1471  0.0261 -0.1066
52510W        W95604  33.235  25.285  29.609 -0.0824  0.0221 -0.1191
52511W        W95605   0.690  23.209  28.822 -0.3262 -0.2521 -0.0544
52512W        W95606  32.900  24.985  29.875  0.1893  0.1370  0.0024
52513W        W95607  32.163  24.190  28.430 -0.4658 -0.0485  0.1983
52514W        W95608  33.524  25.546  29.293 -0.0896  0.2983 -0.0891
52515W        W95609   1.501  23.804  30.059 -0.0364 -0.0618  0.1980
52516W        W95610  33.933  22.740  26.788 -0.1471  0.3706 -0.1707
52517W        W95611  33.894  23.961  30.533 -0.3496  0.1358  0.0848
52518W        W95612  34.271  24.229  30.251  0.3957 -0.0738  0.1007
52519W        W95613  33.670  22.982  27.103  0.0165 -0.3958  0.0204
52520W        W95614  33.912  22.711  29.359 -0.0698 -0.0466 -0.0683
52521W        W95615   1.065  23.650  29.017 -0.1643  0.2324  0.0614
52522W        W95616  34.156  26.179  28.956 -0.1498  0.3314  0.3019
52523W        W95617  34.553  23.581  28.399 -0.1428  0.1242  0.1309
52524W        W95618  33.864  25.352  30.182 -0.1128 -0.0809  0.1173
52525W        W95619  33.949  24.453  27.375  0.0892 -0.3601  0.2348
52526W        W95620  34.556  22.414  30.729  0.0042  0.2117  0.1044
52527W        W95621  33.215  23.452  29.765 -0.1459  0.2067  0.1700
52528W        W95622  33.613  23.006  30.601 -0.0485  0.2625 -0.0842
52529W        W95623   1.404  23.820  27.680 -0.1715 -0.1879  0.1403
52530W        W95624   0.135  21.764  29.977 -0.1201 -0.3905 -0.2034
52531W        W95625  32.993  23.491  30.161 -0.1996 -0.0075 -0.2246
52532W        W95626  34.448  22.217  30.069  0.1221  0.0273  0.1035
52533W        W95627   0.039  21.413  30.390 -0.1844  0.0845 -0.1903
52534W        W95628   1.424  25.694  28.053  0.3221 -0.1279 -0.3146
52535W        W95629  33.703  24.595  29.877  0.2360  0.0779  0.2297
52536W        W95630   1.572  22.867  28.353 -0.3826 -0.3270  0.0157
52537W        W95631   0.427  22.158  28.612  0.2092  0.0426 -0.2244
52538W        W95632  31.745  25.225  29.995  0.0452 -0.1272  0.0016
52539W        W95633  34.618  25.020  27.711 -0.0871  0.0183  0.0364
52540W        W95634   0.515  24.353  29.164  0.0376  0.2464 -0.1326
52541W        W95635  34.375  24.879  31.402  0.2162 -0.3879 -0.0718
52542W        W95636  32.386  24.716  28.571  0.0249  0.2051 -0.0032
52543W        W95637   0.862  24.132  30.815 -0.0664  0.1590  0.0143
52544W        W95638   0.511  24.736  28.697  0.0925  0.0699 -0.3041
52545W        W95639  33.587  26.422  26.511  0.0063  0.1165 -0.0250
52546W        W95640   0.778  22.260  28.989 -0.3043  0.2069 -0.3706
52547W        W95641   0.940  21.884  28.680  0.1671 -0.1608  0.0525
52548W        W95642  34.584  23.371  31.072  0.1720 -0.0823  0.0215
52549W        W95643  32.827  24.323  27.837  0.0523 -0.0715 -0.0989
52550W        W95644  34.242  25.077  28.589 -0.1893  0.1703 -0.2794
52551W        W95645  32.677  24.598  28.951 -0.0237  0.0739 -0.0965
52552W        W95646  34.045  21.682   0.607 -0.2364 -0.1489  0.0625
52553W        W95647  33.836  23.450  30.411 -0.0116  0.1050  0.1324
52554W        W95648  33.816  23.517  28.486  0.0002  0.0987 -0.2604
52555W        W95649  34.091  21.231  28.800 -0.3764  0.3376 -0.0150
52556W        W95650  33.271  22.027  29.375  0.0045 -0.1042  0.0400
52557W        W95651  32.407  21.702  30.338 -0.1852  0.0566  0.0225
52558W        W95652   0.059  22.090  26.980  0.0333  0.2833  0.0786
52559W        W95653  33.939  24.861  27.703 -0.1601  0.0242 -0.0277
52560W        W95654  34.596  22.949  30.711 -0.0718  0.0632  0.2363
52561W        W95655  33.934  21.787   0.114 -0.0587 -0.2056 -0.0838
52562W        W95656  33.415  21.838  28.515 -0.4556 -0.0961  0.0129
52563W        W95657   0.469  22.447  31.109 -0.1304 -0.0995 -0.1520
52564W        W95658  34.475  23.870  28.785  0.1805 -0.0129  0.0319
52565W        W95659   1.263  24.058  30.527 -0.1982 -0.3306  0.2987
52566W        W95660  33.360  20.737  31.327  0.1382  0.1148 -0.0382
52567W        W95661  33.964  24.381  28.317  0.0267 -0.0553 -0.0587
52568W        W95662  34.357  21.706  30.206  0.2601  0.0049  0.1298
52569W        W95663  34.684  23.550  31.546 -0.2710 -0.4140  0.3043
52570W        W95664   0.552  20.743  29.054  0.2019  0.0734  0.1950
52571W        W95665  33.271  24.066  31.004  0.0463 -0.2940  0.2615
52572W        W95666  33.906  23.058  28.951  0.0928 -0.1354 -0.1508
52573W        W95667   1.650  23.087  30.585  0.1834  0.0838  0.0209
52574W        W95668   0.650  24.183  28.705  0.0860  0.2315  0.0103
52575W        W95669   0.455  25.057  29.768  0.3637 -0.2965 -0.0216
52576W        W95670  33.399  21.814  30.382 -0.0616 -0.0944  0.2145
52577W        W95671  32.600  24.411  28.283 -0.2222  0.3748  0.1956
52578W        W95672   0.137  23.813  29.092 -0.4298 -0.0322 -0.0361
52579W        W95673   0.271  21.683  29.446 -0.0053  0.3392  0.1373
52580W        W95674  34.206  26.146  30.586 -0.3164  0.4106  0.2108
52581W        W95675  32.418  22.693  31.186 -0.0086  0.2667 -0.0484
52582W        W95676  34.612  24.568  31.930  0.1256  0.1611 -0.0841
52583W        W95677   0.317  23.961  31.452 -0.0995  0.3514  0.2840
52584W        W95678  33.910  24.743  31.124 -0.4488 -0.1918  0.2346
52585W        W95679   0.666  22.147   0.707 -0.2886  0.0379  0.0148
52586W        W95680  34.112  19.540  31.748 -0.2846  0.1978 -0.0243
52587W        W95681   0.974  24.026  29.712  0.0204 -0.0217  0.0284
52588W        W95682   0.189  24.362  31.040  0.1187 -0.0404  0.1577
52589W        W95683   0.232  24.409   0.298  0.4819  0.0582  0.0447
52590W        W95684  33.626  22.134  31.864 -0.0458 -0.2163  0.0765
52591W        W95685  32.700  21.885   0.257 -0.1187  0.2222  0.1029
52592W        W95686   0.073  21.579   0.066 -0.1296  0.0608  0.2160
52593W        W95687  32.550  23.803  31.500 -0.3003  0.1331 -0.1191
52594W        W95688  34.211  23.693  30.226 -0.0247 -0.0939  0.0022
52595W        W95689  33.390  24.720  31.236 -0.1976 -0.2386 -0.2972
52596W        W95690   0.973  25.080  31.832  0.3904 -0.1819 -0.1260
52597W        W95691   0.889  24.423   0.693  0.0189  0.1672  0.1067
52598W        W95692   0.678  23.909   0.158 -0.0866  0.1475 -0.3326
52599W        W95693  33.857  21.944  31.361  0.1585  0.0510  0.1681
52600W        W95694  33.308  22.261   0.755 -0.3779 -0.2343  0.1487
52601W        W95695  34.103  24.496  31.867 -0.0707 -0.2379  0.3673
52602W        W95696  34.230  23.687   0.618 -0.0967 -0.0285  0.1961
52603W        W95697   0.777  23.807  31.299 -0.0713  0.0797 -0.0288
52604W        W95698  34.230  22.303  31.745 -0.0704 -0.1160 -0.1766
52605W        W95699   0.886  24.956  30.349 -0.1709  0.2863  0.2874
52606W        W95700  34.339  21.175   0.661 -0.2481 -0.1447  0.1409
52607W        W95701  34.505  22.485   0.099  0.0281  0.1120  0.0328
52608W        W95702   1.241  22.077   0.453  0.1592 -0.1328 -0.0155
52609W        W95703  32.674  23.347  30.972 -0.0812 -0.1118  0.5848
52610W        W95704   0.361  22.711  31.777  0.2767  0.1246 -0.2250
52611W        W95705  34.536  23.889  31.145 -0.2304 -0.0555 -0.0147
52612W        W95706   0.364  23.946  30.922  0.1298 -0.1471  0.0730
52613W        W95707  32.620  26.125  31.419 -0.3379  0.1681 -0.0082
52614W        W95708   0.495  25.915  31.499  0.1827  0.0916  0.0811
52615W        W95709  34.552  22.766  31.658  0.0560 -0.2294 -0.2157
52616W        W95710  34.123  23.996  31.602 -0.1142 -0.0741  0.2558
52617W        W95711  34.162  24.277  31.061  0.1497  0.0771  0.0633
52618W        W95712  34.179  23.263  31.684 -0.1413 -0.0769 -0.0597
52619W        W95713  31.924  20.856  30.706 -0.1016  0.1482 -0.1041
52620W        W95714  34.512  28.466  18.267 -0.0322 -0.3285  0.1505
52621W        W95715  33.758  26.486  17.263 -0.0286 -0.2697 -0.4091
52622W        W95716  33.088  26.475  16.753 -0.0139 -0.2194  0.0295
52623W        W95717  32.934  24.764  20.073 -0.0206 -0.1076 -0.3784
52624W        W95718   0.117  28.015  19.373 -0.1005  0.0864 -0.2691
52625W        W95719  33.589  28.556  18.870  0.0163  0.2145  0.0478
52626W        W95720  34.226  25.747  16.664  0.2497 -0.4157  0.2043
52627W        W95721  33.808  26.583  19.384 -0.0043  0.2700  0.2018
52628W        W95722  33.549  28.610  17.885  0.1127 -0.2101 -0.0340
52629W        W95723  31.977  27.695  17.691 -0.0525 -0.1842 -0.0569
52630W        W95724  32.902  25.877  16.470  0.3633  0.0515  0.1364
52631W        W95725  34.691  26.186  19.236  0.1180 -0.2282  0.1386
52632W        W95726   0.422  28.436  17.661 -0.1172 -0.2274 -0.0586
52633W        W95727  33.841  27.979  16.604  0.1256 -0.2094 -0.1248
52634W        W95728  33.551  27.029  18.655 -0.1042  0.0189 -0.0922
52635W        W95729  34.688  27.788  19.797  0.1089  0.2240  0.2987
52636W        W95730  33.910  29.014  16.730 -0.0352 -0.4153  0.0887
52637W        W95731  34.105  29.962  16.936  0.3399 -0.1274  0.1149
52638W        W95732  32.028  27.862  18.172 -0.2847  0.1010 -0.0800
52639W        W95733  31.930  29.142  16.919  0.0810 -0.0364 -0.0994
52640W        W95734  34.096  27.722  16.929  0.0386  0.0786 -0.1525
52641W        W95735  34.140  29.620  21.130 -0.1156 -0.0291 -0.0263
52642W        W95736  33.366  28.892  16.184  0.2664 -0.0779 -0.0900
52643W        W95737  34.135  28.825  18.483  0.2724 -0.4609  0.2750
52644W        W95738  33.949  29.229  17.286  0.0044 -0.0298 -0.1457
52645W        W95739  34.294  28.808  17.482  0.2368  0.4720 -0.0319
52646W        W95740  34.386  29.035  20.105 -0.1601  0.2137 -0.1397
52647W        W95741  32.995  28.250  17.177 -0.2370  0.1508  0.1521
52648W        W95742  33.801  28.289  16.171 -0.0779  0.2713  0.0228
52649W        W95743   0.121  26.612  16.439  0.1889  0.1688  0.2729
52650W        W95744  33.738  25.634  18.535 -0.3146 -0.0198  0.0279
52651W        W95745  32.354  30.576  18.206  0.0814  0.3458 -0.2134
52652W        W95746  34.391  28.075  17.917  0.1166 -0.0844  0.2454
52653W        W95747  33.348  28.880  19.765  0.0501 -0.2276  0.2933
52654W        W95748  33.141  27.119  17.531  0.2808 -0.0515 -0.2436
52655W        W95749  33.706  26.747  18.094 -0.0371  0.0776  0.2510
52656W        W95750  31.820  28.415  20.453 -0.0130  0.1268  0.1714
52657W        W95751  32.643  26.266  20.054 -0.0753  0.1571 -0.1070
52658W        W95752   0.061  25.962  15.766  0.1156 -0.0257 -0.1350
52659W        W95753  32.988  26.286  19.516  0.1162  0.3399 -0.0115
52660W        W95754  32.868  27.268  17.956 -0.0181 -0.1467 -0.0059
52661W        W95755  33.236  27.444  17.166  0.1084  0.1848  0.0154
52662W        W95756  33.502  27.717  17.850  0.1093  0.2483 -0.0040
52663W        W95757  31.095  28.680  18.202 -0.1179 -0.1517 -0.1182
52664W        W95758  34.577  25.673  18.282  0.0219  0.2595 -0.1714
52665W        W95759  34.559  27.908  18.971 -0.2080  0.2095 -0.0415
52666W        W95760  33.682  29.736  17.177  0.0332  0.0812 -0.1388
52667W        W95761  32.311  28.656  18.610  0.3995  0.0484  0.2705
52668W        W95762  33.481  27.475  16.631  0.0426  0.2076  0.2231
52669W        W95763  32.138  24.520  18.375 -0.0559 -0.1428 -0.2435
52670W        W95764  32.491  27.590  18.206  0.2940 -0.5051 -0.3773
52671W        W95765  34.351  26.908  19.326 -0.0560  0.3928  0.1011
52672W        W95766  34.118  28.523  16.581 -0.1509  0.1432  0.1136
52673W        W95767  32.639  28.315  18.845 -0.0502  0.2357  0.1286
52674W        W95768  34.287  26.977  17.673 -0.0022 -0.2375 -0.1590
52675W        W95769   0.331  27.675  19.051  0.0089 -0.0603 -0.2491
52676W        W95770  33.693  26.552  18.855  0.1267 -0.1912  0.5341
52677W        W95771  33.449  26.931  17.098 -0.0373  0.0386  0.0328
52678W        W95772  34.260  27.232  16.841  0.0065  0.2792 -0.1443
52679W        W95773  32.855  28.621  16.259  0.1605  0.0380  0.0888
52680W        W95774  33.545  28.039  18.208  0.1562 -0.1198  0.3342
52681W        W95775  33.252  25.950  16.927 -0.2731 -0.0936 -0.1412
52682W        W95776  33.582  30.263  19.165  0.2058 -0.5000  0.0297
52683W        W95777  34.083  28.110  18.308  0.2815 -0.0787  0.4006
52684W        W95778   0.454  25.808  16.927 -0.2016 -0.2015 -0.1317
52685W        W95779  32.845  28.673  19.205 -0.2304  0.0665  0.2034
52686W        W95780  34.043  26.611  16.198 -0.2047  0.0511 -0.1702
52687W        W95781  33.367  28.183  16.805  0.1052  0.0808  0.5817
52688W        W95782  32.700  26.822  16.708 -0.0171  0.1419  0.2091
52689W        W95783   0.008  28.833  18.659  0.0820 -0.1981 -0.1072
52690W        W95784  32.692  27.827  20.541 -0.0202  0.0080 -0.0674
52691W        W95785   0.133  27.586  16.958  0.1370 -0.0862 -0.1023
52692W        W95786  33.764  29.102  18.897 -0.1241  0.0886 -0.1586
52693W        W95787  32.805  27.166  19.874  0.1707 -0.0245 -0.0579
52694W        W95788   0.669  28.221  18.056  0.0008 -0.1367 -0.0905
52695W        W95789  34.086  27.210  18.570  0.2677  0.2109 -0.0164
52696W        W95790  33.864  27.605  18.276  0.2201  0.2656 -0.1158
52697W        W95791  34.276  26.474  19.078  0.2045 -0.0277  0.2623
52698W        W95792  33.656  27.857  16.168 -0.1735 -0.3612  0.1611
52699W        W95793  33.102  29.329  16.067 -0.1698  0.3716  0.1378
52700W        W95794  34.580  25.886  18.820  0.0166 -0.1767 -0.0404
52701W        W95795  34.538  25.454  17.258 -0.1781 -0.4060  0.0381
52702W        W95796   0.617  26.419  18.502 -0.0886  0.0068 -0.0940
52703W        W95797  33.204  26.634  19.779  0.3472  0.1597 -0.2481
52704W        W95798  33.256  29.170  18.934 -0.0300  0.2479  0.2459
52705W        W95799   0.790  26.423  21.134 -0.0046  0.1165  0.2419
52706W        W95800  33.683  29.470  17.613  0.0856 -0.0800 -0.0814
52707W        W95801  34.369  28.113  16.727 -0.0212  0.0567 -0.0346
52708W        W95802  33.313  27.903  18.677  0.1002  0.1931 -0.2236
52709W        W95803  34.145  28.345  17.513  0.3026  0.1890  0.0555
52710W        W95804  32.957  29.068  17.034 -0.0457  0.0081 -0.0635
52711W        W95805  32.712  29.059  18.459  0.1012 -0.4127  0.0706
52712W        W95806  32.780  27.967  18.548 -0.1269  0.1299 -0.0151
52713W        W95807   0.258  26.780  15.943 -0.0232  0.1444 -0.1948
52714W        W95808  33.582  28.217  17.448  0.0449  0.1261  0.0650
52715W        W95809  34.272  27.391  19.014 -0.4335 -0.1107 -0.1762
52716W        W95810  34.476  26.514  17.700  0.4334 -0.1624  0.1749
52717W        W95811  33.088  29.634  18.810  0.0661 -0.1755  0.1968
52718W        W95812  33.763  28.104  18.642 -0.1497 -0.1194  0.4582
52719W        W95813  32.588  26.361  16.536 -0.4222  0.1663 -0.0831
52720W        W95814  32.695  27.296  17.192 -0.2270  0.0747  0.0246
52721W        W95815   0.776  29.039  18.194  0.0624  0.3663 -0.1490
52722W        W95816  34.068  26.568  16.697  0.2648  0.0684 -0.1604
52723W        W95817  33.805  28.872  17.574  0.0178 -0.1714 -0.0085
52724W        W95818  32.964  29.510  19.730  0.2302 -0.0542 -0.1890
52725W        W95819   0.466  27.266  18.731  0.2900  0.0533  0.1794
52726W        W95820  33.641  25.956  17.326  0.0294  0.1101 -0.0622
52727W        W95821  34.600  26.091  16.988  0.0790 -0.2284  0.3840
52728W        W95822   1.186  26.931  19.991 -0.1368 -0.1818 -0.0116
52729W        W95823   0.246  28.486  20.447  0.2646 -0.0885  0.0358
52730W        W95824  33.903  28.185  17.052  0.2299 -0.0520 -0.1200
52731W        W95825  32.889  27.807  18.996 -0.0944 -0.1627  0.3761
52732W        W95826  34.119  27.676  17.832  0.0575 -0.2083 -0.0657
52733W        W95827   0.063  26.448  17.281 -0.4137 -0.1735  0.0269
52734W        W95828  33.096  28.301  19.009 -0.1499 -0.1577  0.3372
52735W        W95829  33.632  28.623  16.708  0.4191  0.2366  0.0924
52736W        W95830  32.908  27.757  19.602 -0.1170 -0.0331 -0.0433
52737W        W95831  34.042  26.105  17.657  0.0844 -0.1721 -0.0265
52738W        W95832  33.883  25.134  18.305 -0.0041  0.2285  0.0924
52739W        W95833  32.113  28.483  20.008  0.1554  0.1299  0.1813
52740W        W95834  33.238  26.414  20.285  0.1742  0.0647  0.0266
52741W        W95835  34.298  25.280  16.152 -0.2459  0.0663  0.1646
52742W        W95836   0.173  26.916  17.573 -0.0999 -0.0245 -0.3984
52743W        W95837  34.417  28.399  17.132  0.1761  0.0287  0.2364
52744W        W95838  32.710  29.138  18.955 -0.1247 -0.0973 -0.0502
52745W        W95839  34.215  27.888  16.309  0.0871  0.0476 -0.0835
52746W        W95840  33.442  28.932  18.446  0.2470  0.1799  0.0273
52747W        W95841  34.204  25.753  19.708 -0.0837 -0.0822 -0.2763
52748W        W95842  34.158  26.590  20.357 -0.0428  0.3523 -0.0619
52749W        W95843  33.675  27.588  18.853 -0.2373 -0.3065  0.2372
52750W        W95844  32.750  27.020  18.428  0.0675 -0.1347 -0.1698
52751W        W95845  34.630  25.851  16.236  0.1867  0.1778  0.3974
52752W        W95846  34.403  28.967  16.700 -0.0005 -0.2579  0.0070
52753W        W95847  33.350  25.516  17.227  0.2202  0.1102  0.0818
52754W        W95848  33.580  28.139  19.075  0.0635 -0.1094  0.4756
52755W        W95849  32.741  27.185  16.177 -0.0073 -0.2140 -0.0495
52756W        W95850  33.854  27.119  16.091 -0.0046 -0.0151 -0.0986
52757W        W95851   1.457  28.573  19.306  0.1148 -0.1633  0.1123
52758W        W95852   1.018  25.615  16.764 -0.1048 -0.1030 -0.0078
52759W        W95853  33.366  28.599  17.181  0.5509 -0.0409  0.0483
52760W        W95854  34.675  28.583  17.785  0.1434 -0.0135  0.2476
52761W        W95855  32.240  27.330  19.070  0.2133 -0.1913 -0.3904
52762W        W95856  33.258  28.927  17.616  0.2848 -0.2269 -0.0097
52763W        W95857  33.993  26.977  17.175  0.1193 -0.1097 -0.1929
52764W        W95858  33.972  26.728  18.503  0.1715 -0.1557  0.3199
52765W        W95859  32.866  28.076  18.028 -0.3348  0.0402  0.0313
52766W        W95860  32.434  25.925  20.649  0.0341 -0.3676  0.1269
52767W        W95861  33.941  25.251  16.504  0.0698  0.3028  0.2212
52768W        W95862  33.752  29.989  20.852  0.1102 -0.0609 -0.0350
52769W        W95863  32.671  27.434  18.778 -0.2329  0.0216 -0.2546
52770W        W95864  32.793  30.004  16.738 -0.0642  0.3383 -0.0179
52771W        W95865  34.274  27.461  16.003 -0.0823 -0.1937  0.0305
52772W        W95866  32.391  27.909  17.828 -0.3627 -0.2211 -0.0535
52773W        W95867  32.704  28.988  16.575 -0.3935  0.0128  0.2276
52774W        W95868  30.981  30.326  18.738  0.3233  0.1110 -0.1991
52775W        W95869  33.076  27.648  18.266 -0.2133 -0.0841 -0.2727
52776W        W95870  33.817  26.060  16.787 -0.1668 -0.2777 -0.1933
52777W        W95871  34.083  27.886  19.133  0.0523  0.0911 -0.0051
52778W        W95872  33.307  28.163  19.495 -0.1311 -0.0718  0.1966
52779W        W95873  34.502  26.639  16.014 -0.2260  0.1604 -0.0299
52780W        W95874  33.913  27.169  18.040 -0.0998 -0.4225  0.2762
52781W        W95875  34.597  28.350  15.681  0.0548  0.1458  0.1939
52782W        W95876  32.617  28.478  17.900  0.1620  0.2405 -0.2707
52783W        W95877  31.941  29.355  17.745 -0.2634 -0.2582  0.1843
52784W        W95878  32.779  28.482  18.401  0.0702 -0.0262  0.0128
52785W        W95879  33.852  25.453  17.333 -0.0040  0.0061 -0.1230
52786W        W95880  33.365  26.684  19.239 -0.2562  0.3338  0.1965
52787W        W95881  33.989  26.323  18.133 -0.1188 -0.2789  0.3114
52788W        W95882  34.355  27.476  18.241  0.1386  0.0708  0.0787
52789W        W95883  34.631  27.218  17.902 -0.0139  0.1067 -0.0565
52790W        W95884  33.402  27.157  19.215  0.3557  0.0324 -0.0848
52791W        W95885  33.439  27.312  18.209  0.0465  0.0180  0.0073
52792W        W95886  34.175  28.262  19.398 -0.1074  0.1965  0.2710
52793W        W95887  32.882  25.725  17.289  0.0225 -0.2682 -0.0729
52794W        W95888  34.031  29.330  16.350 -0.0910  0.0724  0.0966
52795W        W95889  32.507  25.736  20.097  0.0803 -0.3214  0.1897
52796W        W95890  34.639  27.149  17.220 -0.0149  0.0114 -0.4257
52797W        W95891  32.710  28.093  17.508 -0.0583  0.1758 -0.0856
52798W        W95892  33.119  28.397  17.683  0.0663  0.0017  0.0268
52799W        W95893  34.541  30.289  16.564 -0.1775 -0.0494  0.2699
52800W        W95894  33.605  29.078  18.002  0.0287  0.0389 -0.2540
52801W        W95895  34.108  27.706  21.405 -0.0391  0.0993 -0.1390
52802W        W95896  34.031  27.127  15.635  0.0960 -0.1260 -0.0148
52803W        W95897  34.643  27.542  19.373 -0.1708 -0.1567 -0.1563
52804W        W95898  34.334  27.913  17.333  0.0978 -0.3213  0.1885
52805W        W95899   0.302  29.229  18.133  0.4061  0.2975 -0.0389
52806W        W95900   1.494  27.060  17.916  0.4612  0.4668 -0.0656
52807W        W95901   0.930  27.446  19.147 -0.1041 -0.2294 -0.1882
52808W        W95902  34.044  28.345  20.515 -0.0100  0.2647 -0.0790
52809W        W95903  32.649  28.689  15.636 -0.2959  0.1068  0.0233
52810W        W95904  33.303  28.403  16.338 -0.3698  0.1123  0.0817
52811W        W95905  33.839  28.136  17.883  0.0803 -0.0513  0.0249
52812W        W95906  34.151  26.259  20.908 -0.0202 -0.1188  0.0396
52813W        W95907  33.992  26.943  19.009 -0.1639  0.4580 -0.1774
52814W        W95908  32.385  27.400  17.707  0.0532  0.1317 -0.2490
52815W        W95909  32.948  25.229  18.275 -0.1236  0.5587  0.0831
52816W        W95910  33.666  26.127  18.625  0.2700 -0.4053  0.1415
52817W        W95911  33.062  26.903  18.864  0.0367  0.0138  0.1505
52818W        W95912  34.298  26.910  18.161 -0.1904  0.2295  0.3734
52819W        W95913  33.569  26.578  16.771 -0.1629 -0.1569 -0.2065
52820W        W95914  34.312  28.334  18.745  0.0411 -0.1753  0.1553
52821W        W95915  34.255  26.288  19.528  0.2582  0.2701 -0.1870
52822W        W95916  33.983  25.691  16.023  0.3799  0.0599 -0.0115
52823W        W95917   0.230  26.270  17.752 -0.0411 -0.5145  0.0318
52824W        W95918  34.185  27.757  18.643  0.3146 -0.0307  0.1152
52825W        W95919  33.785  28.540  18.344  0.2888  0.2602 -0.2138
52826W        W95920  33.177  25.397  20.111 -0.0003  0.1533  0.2110
52827W        W95921  32.078  29.824  19.448 -0.1129  0.0045  0.1348
52828W        W95922  34.416  26.837  18.716 -0.0706 -0.1809  0.3026
52829W        W95923  33.066  28.743  20.360  0.2598  0.1242 -0.0157
52830W        W95924  34.008  26.573  17.714  0.0462 -0.2200 -0.1526
52831W        W95925  33.021  26.966  19.496  0.2037 -0.0365 -0.0253
52832W        W95926  34.180  27.430  17.358  0.0757 -0.1740 -0.1552
52833W        W95927   0.924  26.941  19.435  0.0477 -0.0800 -0.2455
52834W        W95928  33.935  27.489  16.465 -0.0262  0.0679 -0.2457
52835W        W95929   1.008  28.415  19.102  0.1036  0.2700 -0.0256
52836W        W95930  33.042  25.202  19.627  0.0655 -0.2522  0.0310
52837W        W95931   0.420  28.635  18.145 -0.3311 -0.0145  0.2439
52838W        W95932  33.175  27.894  17.539 -0.0592  0.0335 -0.3448
52839W        W95933  33.202  27.423  18.745 -0.0501  0.1194  0.1161
52840W        W95934  34.141  29.598  17.908 -0.0282 -0.0700 -0.0715
52841W        W95935  32.199  28.904  22.332  0.0886  0.2855  0.1038
52842W        W95936  33.468  26.749  21.202  0.1783  0.3490 -0.0573
52843W        W95937  33.105  26.385  21.304  0.1227 -0.0293 -0.2084
52844W        W95938  32.242  24.824  21.997 -0.0813  0.1079 -0.0945
52845W        W95939  33.776  27.710  20.872  0.0369 -0.0264  0.1233
52846W        W95940  33.560  29.641  23.723 -0.0901 -0.2200  0.3062
52847W        W95941  34.243  25.880  20.445  0.0343 -0.0919 -0.0811
52848W        W95942  32.268  25.700  22.181  0.0232 -0.3031 -0.0619
52849W        W95943  32.836  28.072  20.115 -0.1730 -0.0332 -0.4182
52850W        W95944  33.834  27.707  22.742 -0.1781  0.2175 -0.1070
52851W        W95945  33.903  27.039  20.141 -0.0053  0.2251 -0.1201
52852W        W95946  32.888  26.541  23.809  0.0382  0.2042 -0.0296
52853W        W95947   0.003  29.120  20.806  0.1945  0.1690  0.1873
52854W        W95948  32.592  26.688  19.775 -0.1411 -0.1745 -0.2842
52855W        W95949  33.356  27.161  22.001  0.0249 -0.1401  0.0812
52856W        W95950  32.397  27.245  23.319  0.1782 -0.4152 -0.1349
52857W        W95951   0.506  29.524  23.277 -0.0745  0.1135  0.4058
52858W        W95952   1.381  30.033  22.167 -0.1275 -0.1896  0.0894
52859W        W95953  33.267  27.761  21.110  0.0907  0.2319  0.0962
52860W        W95954  32.134  29.674  22.437  0.1162 -0.1238 -0.0325
52861W        W95955  33.372  29.607  20.528  0.1076  0.2666  0.0379
52862W        W95956  32.849  29.090  25.348  0.3305 -0.0019 -0.0281
52863W        W95957  32.218  28.611  21.595  0.1826 -0.6685  0.2820
52864W        W95958  33.693  29.898  24.728 -0.0803  0.4696 -0.1767
52865W        W95959  33.487  28.177  20.837 -0.2812 -0.0006  0.1858
52866W        W95960   0.213  29.114  21.272  0.1110 -0.0183 -0.4269
52867W        W95961  33.437  28.516  24.467  0.1162 -0.1765 -0.3334
52868W        W95962  33.749  29.101  22.948  0.0932  0.0273  0.0354
52869W        W95963  33.699  29.010  19.390  0.3260 -0.1514  0.1530
52870W        W95964   0.121  27.050  19.540  0.1806  0.1404 -0.2527
52871W        W95965   0.452  26.959  21.708  0.3825  0.1549 -0.0714
52872W        W95966  32.689  29.725  22.270  0.0197  0.3706 -0.0022
52873W        W95967  34.025  26.755  20.997 -0.3775 -0.1425 -0.1538
52874W        W95968  33.883  28.329  23.723  0.1444 -0.0204  0.0929
52875W        W95969  32.872  26.839  21.536  0.1202 -0.2473 -0.3063
52876W        W95970  32.612  26.627  21.102  0.2317 -0.1422  0.0670
52877W        W95971  32.048  26.894  23.537  0.0738  0.1654 -0.1436
52878W        W95972  32.911  28.605  24.437 -0.1455  0.0931  0.0545
52879W        W95973  34.479  26.023  17.963  0.0243 -0.1052 -0.1393
52880W        W95974  32.079  28.032  23.739  0.0303 -0.3863  0.0819
52881W        W95975  33.578  28.375  23.200 -0.1467  0.2491  0.0877
52882W        W95976  33.661  27.000  19.627 -0.0621  0.2917  0.0417
52883W        W95977  33.796  28.027  22.215  0.1125  0.0007 -0.4290
52884W        W95978  32.847  27.583  24.056 -0.0051  0.2416 -0.0970
52885W        W95979  33.694  26.367  24.107  0.1392 -0.0691 -0.0467
52886W        W95980  34.600  28.838  22.896 -0.1525 -0.0131 -0.1331
52887W        W95981  33.399  28.442  19.964  0.0388  0.0429  0.0029
52888W        W95982  32.166  27.343  22.757  0.0647  0.1485 -0.1403
52889W        W95983  32.643  27.618  20.001 -0.2128 -0.0994  0.0422
52890W        W95984  32.671  26.464  22.803  0.3598 -0.2487  0.0674
52891W        W95985  33.067  29.017  22.657 -0.0100  0.1078  0.0468
52892W        W95986  33.497  26.093  22.589 -0.0677  0.2976  0.2427
52893W        W95987  32.920  27.425  20.911 -0.1167  0.0655  0.3809
52894W        W95988  31.488  26.905  23.569 -0.0434  0.2828 -0.1230
52895W        W95989  34.489  26.620  20.812 -0.1060  0.1039 -0.0784
52896W        W95990  33.453  26.385  23.672  0.0817  0.0510 -0.1531
52897W        W95991  32.143  25.299  21.859 -0.1968  0.0798  0.2844
52898W        W95992  33.610  26.406  20.946 -0.0097 -0.1394 -0.1436
52899W        W95993  33.207  27.696  20.626 -0.5321  0.2804 -0.0526
52900W        W95994  32.240  28.882  20.882 -0.1075  0.1411 -0.1791
52901W        W95995  32.886  26.826  23.106 -0.0570 -0.0312 -0.1438
52902W        W95996  33.160  26.641  20.812 -0.1535 -0.1952 -0.0750
52903W        W95997  32.714  29.988  19.966 -0.0858  0.3147 -0.1315
52904W        W95998  34.168  28.307  21.486  0.0567  0.2153  0.1712
52905W        W95999  34.348  25.309  21.081  0.1259 -0.0843 -0.1635
52906W        W96000  31.953  28.012  21.934 -0.4828  0.1971  0.1399
52907W        W96001  34.602  25.576  20.588 -0.2354 -0.2206 -0.1202
52908W        W96002  33.048  29.212  20.549  0.2248  0.1696  0.0618
52909W        W96003  33.843  27.494  19.902 -0.0209  0.2526  0.0328
52910W        W96004  34.307  28.549  21.020 -0.0678  0.4012  0.2023
52911W        W96005  32.111  29.481  24.910 -0.1742  0.2188  0.0015
52912W        W96006  33.381  25.687  19.759 -0.3484 -0.3048 -0.0284
52913W        W96007  33.987  28.634  22.889  0.0490 -0.2321 -0.4098
52914W        W96008  31.947  28.538  23.707  0.0005 -0.0939 -0.2370
52915W        W96009   0.439  28.614  21.344  0.0810 -0.0157  0.0466
52916W        W96010  34.075  28.808  23.931  0.2062 -0.0439  0.0289
52917W        W96011  32.408  28.405  20.617 -0.0930 -0.0144 -0.0886
52918W        W96012  33.909  25.187  22.357 -0.2030 -0.1469  0.2405
52919W        W96013  34.221  27.935  19.797 -0.0041 -0.0668 -0.0805
52920W        W96014  31.921  29.234  20.740  0.2311  0.0194 -0.1305
52921W        W96015  33.336  25.573  23.009 -0.1448  0.2354  0.0833
52922W        W96016  32.287  27.893  20.957 -0.3824 -0.1189 -0.2244
52923W        W96017  33.577  25.143  23.052 -0.1941 -0.0341 -0.0166
52924W        W96018  32.574  28.259  24.420  0.0893  0.0372  0.1526
52925W        W96019  32.165  29.174  23.651 -0.2631  0.3952  0.2701
52926W        W96020  34.536  26.316  23.709 -0.0489 -0.1067  0.1149
52927W        W96021  34.115  29.266  21.660 -0.1005 -0.1353 -0.1371
52928W        W96022  33.224  29.444  19.311  0.1185  0.1888 -0.4379
52929W        W96023  33.767  25.896  21.900  0.2165 -0.3131 -0.0659
52930W        W96024  33.546  28.720  22.645 -0.2744  0.0855 -0.2429
52931W        W96025  34.072  28.944  19.673  0.0661  0.1994  0.1073
52932W        W96026  33.297  28.545  21.692  0.2525  0.0906 -0.0059
52933W        W96027  33.407  27.727  22.304  0.1815  0.1519  0.2990
52934W        W96028  32.732  26.427  20.536 -0.1055  0.3126 -0.1944
52935W        W96029  32.110  27.512  20.250  0.0542 -0.0234  0.2923
52936W        W96030  33.227  26.978  22.742  0.0115  0.4730  0.0697
52937W        W96031   0.189  26.518  22.864  0.2943  0.1089  0.0211
52938W        W96032  32.446  28.354  22.037 -0.1875 -0.1308  0.2050
52939W        W96033   0.896  28.435  24.515  0.1710  0.0007  0.1917
52940W        W96034  32.894  25.910  20.379  0.0677  0.1830 -0.1546
52941W        W96035  33.661  27.516  21.298  0.0271  0.0418  0.0862
52942W        W96036  33.148  28.281  21.326 -0.1294  0.0547  0.0013
52943W        W96037  33.801  27.904  19.529 -0.0169 -0.0266 -0.2202
52944W        W96038  33.584  29.129  20.555 -0.0232 -0.1260  0.0668
52945W        W96039  32.548  26.381  24.211  0.1713 -0.0959  0.3199
52946W        W96040  33.057  28.004  22.585  0.1143 -0.0011 -0.0230
52947W        W96041  33.110  27.487  20.193  0.0761 -0.4182  0.1763
52948W        W96042  33.091  28.288  23.325 -0.0864  0.0733 -0.1046
52949W        W96043  33.273  27.219  24.022  0.0699  0.1488 -0.1407
52950W        W96044  33.488  29.413  24.241  0.2668 -0.0448  0.2102
52951W        W96045   1.057  27.724  19.909 -0.0107 -0.3096 -0.1271
52952W        W96046  32.025  28.371  22.300  0.0284 -0.1212 -0.1103
52953W        W96047  33.802  27.406  19.319 -0.0674  0.1886 -0.0945
52954W        W96048  34.117  27.136  23.294 -0.0732  0.1068 -0.1395
52955W        W96049  33.331  29.857  22.742 -0.1091 -0.1329 -0.1471
52956W        W96050  32.965  29.082  19.495 -0.0815 -0.1429 -0.0139
52957W        W96051  31.689  28.184  23.363  0.0533 -0.1113 -0.0890
52958W        W96052   0.060  26.897  21.220  0.0643 -0.2069  0.1981
52959W        W96053  33.651  26.660  22.672 -0.4058  0.1642 -0.3805
52960W        W96054  32.217  26.496  23.827  0.1820 -0.2971  0.0259
52961W        W96055  32.587  28.527  23.031  0.1135  0.0829 -0.0667
52962W        W96056  34.384  25.704  21.431 -0.0953 -0.2548 -0.1981
52963W        W96057  33.005  28.495  22.745  0.0855  0.0304 -0.0560
52964W        W96058  33.038  28.271  20.656  0.1905 -0.0423 -0.0579
52965W        W96059  32.617  28.767  22.560 -0.0158  0.0667  0.1209
52966W        W96060  34.418  27.130  20.857 -0.1492  0.0528 -0.1674
52967W        W96061  33.663  27.564  21.873 -0.2809 -0.0194 -0.5085
52968W        W96062  32.962  26.374  23.258 -0.1081  0.2510  0.2446
52969W        W96063  33.659  28.882  24.166 -0.1158  0.1259  0.2331
52970W        W96064  32.804  26.988  24.051 -0.1192  0.1265 -0.1712
52971W        W96065  31.355  24.927  21.648  0.0310  0.1290  0.0309
52972W        W96066  33.968  27.142  20.706 -0.0041 -0.1731 -0.0938
52973W        W96067   0.410  29.356  20.790 -0.1970  0.1236 -0.1429
52974W        W96068  32.562  26.107  22.114  0.0605 -0.3270  0.2671
52975W        W96069  32.613  28.230  23.521 -0.3034  0.0116 -0.0775
52976W        W96070  33.737  26.594  20.024  0.0340 -0.3454  0.2589
52977W        W96071  34.590  28.764  21.445 -0.0689  0.1399 -0.0554
52978W        W96072   0.336  28.985  21.821 -0.0532  0.1126  0.0080
52979W        W96073  34.419  24.945  20.057 -0.3613 -0.2205 -0.3652
52980W        W96074  32.969  28.539  19.662 -0.3351 -0.2393 -0.2208
52981W        W96075  32.421  29.408  21.599 -0.0797 -0.1342  0.3099
52982W        W96076  33.311  28.836  23.115  0.0774 -0.0304  0.0779
52983W        W96077  33.661  28.343  21.246 -0.1461 -0.0204  0.2137
52984W        W96078  32.632  28.243  22.528 -0.0935  0.1851 -0.1942
52985W        W96079  33.002  26.977  21.098 -0.1268  0.3398 -0.1297
52986W        W96080  31.381  29.368  22.538 -0.1349  0.0088 -0.1034
52987W        W96081  30.819  26.278  22.921  0.2294 -0.0442 -0.0685
52988W        W96082  34.324  26.560  21.403 -0.0549 -0.1561  0.1774
52989W        W96083  32.457  30.460  24.496 -0.1628  0.2043 -0.1062
52990W        W96084  32.771  28.438  21.648  0.1048  0.0765  0.2246
52991W        W96085  32.353  29.364  22.089  0.0920 -0.0859 -0.1618
52992W        W96086  34.167  27.208  19.658 -0.0862 -0.1103  0.0717
52993W        W96087  34.015  28.768  21.385 -0.3877 -0.1166 -0.1221
52994W        W96088  31.726  29.623  20.896 -0.0216 -0.2360 -0.2266
52995W        W96089  33.511  27.972  21.539 -0.2488 -0.0820  0.2839
52996W        W96090  33.984  27.561  22.259 -0.0470  0.2643 -0.1061
52997W        W96091   0.744  27.123  19.871  0.0114 -0.0956 -0.1112
52998W        W96092  33.598  28.146  24.850  0.0101  0.1454 -0.2796
52999W        W96093  33.030  27.859  23.658  0.1320  0.0217 -0.2964
53000W        W96094  32.557  25.262  20.962  0.0216  0.0874  0.0456
53001W        W96095  32.925  29.603  20.286  0.2204  0.0482  0.2112
53002W        W96096  32.077  28.469  21.090 -0.0810 -0.2737 -0.2801
53003W        W96097  33.403  29.630  21.100 -0.1172 -0.0151  0.1742
53004W        W96098  32.947  29.564  22.673 -0.2372 -0.0084 -0.3768
53005W        W96099  34.038  29.589  23.047 -0.0637 -0.4289  0.0557
53006W        W96100  32.890  24.372  19.840 -0.2134 -0.0559 -0.0157
53007W        W96101  33.638  26.825  23.876 -0.0328  0.0877  0.1222
53008W        W96102  32.254  26.601  21.481 -0.1174 -0.1979  0.2435
53009W        W96103  33.356  27.555  23.587 -0.2682 -0.1957 -0.1215
53010W        W96104  34.603  27.313  19.922  0.1637 -0.1446  0.2227
53011W        W96105  33.498  26.314  22.181  0.1586 -0.0852  0.1050
53012W        W96106  32.667  27.319  20.425  0.0408 -0.3319  0.0493
53013W        W96107  33.707  26.311  23.112 -0.3652  0.1423 -0.0435
53014W        W96108  32.453  25.933  22.567 -0.1907  0.1224 -0.1501
53015W        W96109  34.686  28.281  21.226 -0.0631  0.0602 -0.0470
53016W        W96110  32.934  25.744  23.311 -0.1063 -0.3408 -0.0501
53017W        W96111   0.268  26.456  20.919  0.0796 -0.1008  0.0246
53018W        W96112  32.606  27.727  22.646 -0.2953  0.0480 -0.2215
53019W        W96113  33.287  29.366  22.070  0.2622 -0.2060  0.3948
53020W        W96114  34.623  30.140  20.405  0.0811  0.2523  0.3495
53021W        W96115  33.415  28.605  23.631 -0.0736 -0.2333  0.2810
53022W        W96116  34.357  29.606  23.976 -0.1854 -0.2304  0.1296
53023W        W96117  33.128  27.133  20.547  0.1732  0.3686 -0.0986
53024W        W96118  34.082  27.545  23.624  0.2174  0.1346 -0.0052
53025W        W96119  34.294  28.520  21.917  0.2184 -0.1608  0.1371
53026W        W96120  33.899  28.896  20.855 -0.0245  0.0381 -0.3112
53027W        W96121  34.591  27.040  21.669 -0.0611 -0.0865 -0.0104
53028W        W96122  34.297  26.192  21.706  0.0240  0.1540 -0.0407
53029W        W96123  33.673  27.177  22.449  0.1025 -0.2593 -0.0815
53030W        W96124  31.623  27.411  21.215 -0.0764  0.0913 -0.1523
53031W        W96125  33.301  27.655  19.218  0.0421 -0.3385 -0.0093
53032W        W96126  33.172  27.601  21.841 -0.3618  0.0724  0.2898
53033W        W96127  32.440  26.546  23.323 -0.3129  0.0822 -0.1488
53034W        W96128  32.403  26.933  24.782  0.1283 -0.0847  0.2589
53035W        W96129  32.100  27.460  21.315 -0.2245 -0.3657  0.3046
53036W        W96130  33.044  26.216  21.884  0.2529 -0.3298  0.2609
53037W        W96131  33.293  25.466  22.477  0.0476  0.0060  0.4171
53038W        W96132  31.814  24.686  20.561  0.0596 -0.1955  0.2146
53039W        W96133  33.454  27.320  20.913 -0.2896  0.0661 -0.1476
53040W        W96134  32.148  28.804  20.390  0.1435  0.0532 -0.1166
53041W        W96135  33.627  27.582  24.502  0.0180  0.1576 -0.0684
53042W        W96136  34.380  26.338  23.083 -0.0196  0.1156  0.0290
53043W        W96137  34.186  26.744  19.789  0.1129 -0.0292  0.0037
53044W        W96138  33.197  26.851  23.587 -0.2718 -0.1343 -0.1307
53045W        W96139  33.181  27.233  23.194 -0.0983 -0.2349 -0.2189
53046W        W96140  33.878  29.345  23.925  0.1264 -0.1800  0.2706
53047W        W96141  32.847  25.272  22.558  0.2087 -0.0217  0.1762
53048W        W96142  32.894  27.346  23.603 -0.0509 -0.1075  0.1491
53049W        W96143  33.227  26.531  22.860 -0.2047 -0.1425 -0.2926
53050W        W96144  32.284  26.894  22.951  0.1831 -0.1469  0.2102
53051W        W96145  33.345  25.686  20.958  0.1998  0.3272 -0.1277
53052W        W96146  32.646  27.253  22.846  0.1291 -0.1560 -0.0710
53053W        W96147  34.636  27.382  20.483  0.1477 -0.0997 -0.0498
53054W        W96148  34.062  26.709  22.926  0.0563  0.3527  0.1589
53055W        W96149  33.304  27.939  20.076  0.0901  0.0338 -0.1623
53056W        W96150  34.121  29.198  24.291 -0.0531  0.1014 -0.0947
53057W        W96151  31.920  24.909  21.601 -0.0854  0.0540  0.0106
53058W        W96152  33.957  28.674  20.036 -0.1018  0.4239 -0.2674
53059W        W96153  34.247  27.686  20.681  0.2962 -0.0747 -0.1978
53060W        W96154  33.760  25.700  22.348  0.0156  0.1563 -0.0079
53061W        W96155  34.361  29.203  23.674  0.0660 -0.4320  0.2546
53062W        W96156  33.920  29.835  26.804 -0.0580  0.0724  0.0217
53063W        W96157  31.736  25.579  25.325  0.3956  0.0316  0.1055
53064W        W96158  32.707  26.560  25.581  0.1314  0.1448  0.1469
53065W        W96159  33.431  25.620  27.440  0.0840  0.1005 -0.0563
53066W        W96160  32.878  27.829  27.103 -0.1074  0.0576  0.1136
53067W        W96161  33.907  28.859  26.354  0.1675  0.2443  0.1900
53068W        W96162  34.272  25.941  25.715  0.0080 -0.0076 -0.0437
53069W        W96163  33.027  25.927  28.372  0.1626 -0.4153  0.5987
53070W        W96164  32.401  28.327  25.734  0.0706 -0.2169 -0.5034
53071W        W96165  34.123  27.447  25.638 -0.0013 -0.1190 -0.0155
53072W        W96166  33.584  25.974  25.840 -0.0907 -0.0179  0.1669
53073W        W96167  34.659  26.908  26.108 -0.0596 -0.3696  0.0437
53074W        W96168  33.454  28.091  23.661 -0.0002  0.1207 -0.1406
53075W        W96169  31.422  25.735  24.419  0.0852  0.0007 -0.0321
53076W        W96170  33.063  28.151  25.860 -0.3118 -0.2795  0.0388
53077W        W96171  32.630  28.082  26.724 -0.2885  0.2820  0.1612
53078W        W96172  34.614  29.649  25.729  0.0197  0.1494 -0.1619
53079W        W96173   1.751  28.244  25.327 -0.0415  0.0613 -0.1354
53080W        W96174  32.352  29.889  25.232 -0.3548 -0.0833  0.1426
53081W        W96175  32.473  29.089  25.915  0.1080  0.2140  0.1575
53082W        W96176  34.200  29.387  26.978  0.0831 -0.1659 -0.3594
53083W        W96177  33.748  29.400  27.569 -0.0844  0.0475 -0.1684
53084W        W96178  33.346  27.704  24.070  0.2365  0.1387  0.0168
53085W        W96179  34.520  30.695  27.665  0.1687  0.0158  0.2677
53086W        W96180  32.210  30.755  26.219 -0.2157 -0.0314  0.0261
53087W        W96181  32.854  29.765  25.372 -0.0342  0.5421 -0.0229
53088W        W96182  33.338  29.059  27.381 -0.2636 -0.0010 -0.0241
53089W        W96183  33.481  29.133  26.377  0.1140 -0.0866  0.0838
53090W        W96184  33.314  29.817  25.104 -0.0123  0.2189 -0.3069
53091W        W96185  32.733  25.328  23.539  0.3003 -0.1923 -0.1534
53092W        W96186  33.206  24.029  26.385  0.0418 -0.0916  0.0010
53093W        W96187  31.522  31.052  24.868  0.1750  0.2940  0.1980
53094W        W96188  32.468  24.930  25.235 -0.1878 -0.3843  0.0375
53095W        W96189  32.858  30.221  26.770  0.1101 -0.2511 -0.1455
53096W        W96190  34.391  25.675  26.174  0.0697  0.0982 -0.2279
53097W        W96191  33.861  26.592  25.213  0.3279  0.1723 -0.2620
53098W        W96192  32.904  28.812  27.029 -0.4670 -0.1242  0.1189
53099W        W96193  34.598  27.185  27.477 -0.0974  0.3062 -0.1271
53100W        W96194  32.010  25.635  24.397  0.1098 -0.1847  0.0974
53101W        W96195  31.873  29.049  27.175 -0.3182 -0.0948  0.1359
53102W        W96196   1.063  28.267  25.796 -0.0909  0.0685  0.1655
53103W        W96197  33.772  27.196  24.810 -0.2489  0.1742  0.1646
53104W        W96198  33.610  27.359  25.471 -0.1901 -0.4271 -0.0667
53105W        W96199  33.872  29.007  26.974  0.0729  0.1029 -0.0156
53106W        W96200  33.604  26.555  27.745 -0.2392 -0.3196  0.1473
53107W        W96201  34.154  28.293  28.256  0.1268 -0.1090 -0.0137
53108W        W96202  32.301  29.974  24.104  0.0365 -0.1231 -0.0526
53109W        W96203  32.008  29.120  25.762 -0.1600 -0.0319 -0.1214
53110W        W96204  32.904  28.518  25.559  0.0888  0.1677  0.1181
53111W        W96205  32.858  26.871  27.078 -0.1508 -0.2693 -0.3971
53112W        W96206  34.162  28.334  25.834 -0.0750 -0.0148 -0.1229
53113W        W96207  32.328  25.784  28.191 -0.1725 -0.0454  0.3174
53114W        W96208  33.511  27.798  25.818 -0.0447 -0.1482 -0.0473
53115W        W96209  31.949  28.611  25.593 -0.3900  0.0889  0.2153
53116W        W96210  32.483  25.656  25.286 -0.0695 -0.0267 -0.1268
53117W        W96211  33.825  27.162  27.019  0.1688 -0.0677  0.2055
53118W        W96212  33.682  27.796  26.409  0.1263  0.1519  0.0929
53119W        W96213  32.277  25.987  23.908 -0.0336 -0.3287  0.0013
53120W        W96214  34.658  27.183  24.480  0.0311 -0.0862 -0.0031
53121W        W96215  30.907  27.712  24.973  0.1229 -0.0274 -0.1118
53122W        W96216  33.086  26.809  26.149 -0.1617 -0.1262 -0.0537
53123W        W96217  33.422  26.403  26.022 -0.2407  0.1160 -0.1074
53124W        W96218  32.907  29.728  26.663  0.1278 -0.1097  0.2486
53125W        W96219  32.029  30.177  26.787 -0.1665  0.1267  0.0166
53126W        W96220  32.877  26.270  24.575  0.0107 -0.1418 -0.1043
53127W        W96221  33.943  30.304  27.201  0.1197 -0.1078  0.1280
53128W        W96222  32.266  26.793  24.264 -0.1275  0.1761  0.1123
53129W        W96223  32.041  27.868  24.600 -0.3228  0.1098  0.3901
53130W        W96224  32.622  27.251  24.406  0.1634  0.0539  0.2205
53131W        W96225  34.679  29.239  24.100 -0.1978 -0.1697 -0.0814
53132W        W96226  33.782  27.414  27.479 -0.1553 -0.1992  0.2354
53133W        W96227  32.490  27.387  25.631  0.3709  0.0492 -0.0580
53134W        W96228  33.626  30.935  26.874  0.2198 -0.2002  0.2724
53135W        W96229  32.649  28.556  26.527 -0.1170  0.0429 -0.0468
53136W        W96230   0.314  28.832  23.946  0.0283  0.2544  0.0827
53137W        W96231  34.363  28.849  27.024  0.2171 -0.1708 -0.0080
53138W        W96232  32.771  28.553  26.025 -0.2157  0.1419 -0.1596
53139W        W96233  34.030  26.070  26.274  0.1188  0.0090 -0.0605
53140W        W96234  34.504  26.433  24.229 -0.1077  0.0815 -0.0010
53141W        W96235  31.935  29.749  24.409  0.0546  0.0287  0.1107
53142W        W96236  34.095  26.643  26.430  0.1244  0.0847  0.0594
53143W        W96237  31.945  26.801  24.627  0.0320  0.4179  0.0670
53144W        W96238  34.073  27.534  26.479 -0.2038  0.2329 -0.1540
53145W        W96239  32.571  26.277  25.975 -0.0296 -0.0547 -0.1158
53146W        W96240  31.881  28.168  28.180  0.1263  0.1233 -0.3534
53147W        W96241  33.679  26.729  28.205  0.2184  0.1409  0.0589
53148W        W96242  33.366  29.549  26.623 -0.2647  0.1089 -0.2699
53149W        W96243   0.045  28.540  24.921  0.0102  0.2347  0.0947
53150W        W96244  33.776  26.890  25.611  0.3148  0.0612  0.1206
53151W        W96245  33.208  31.088  25.983  0.2040  0.1074 -0.0787
53152W        W96246  33.976  27.912  23.946  0.2186  0.1250 -0.0150
53153W        W96247  33.738  29.032  25.343  0.0094  0.1435  0.1296
53154W        W96248  32.637  30.469  26.065  0.0587  0.0773  0.0157
53155W        W96249  32.625  26.889  23.601 -0.0961 -0.1841 -0.4048
53156W        W96250  33.072  28.046  24.340 -0.1567 -0.0319 -0.1413
53157W        W96251  33.449  27.697  27.231  0.0655  0.1853 -0.1182
53158W        W96252  34.280  26.349  27.145  0.0767 -0.0831  0.0421
53159W        W96253  33.327  29.147  26.912  0.2053 -0.0209 -0.3038
53160W        W96254  34.647  27.862  27.184 -0.0800 -0.0463  0.1006
53161W        W96255  33.227  27.825  24.825  0.0029 -0.0889 -0.0659
53162W        W96256  33.992  27.840  26.005 -0.0506  0.0824  0.1732
53163W        W96257  31.855  30.012  25.818 -0.0912  0.0570  0.3982
53164W        W96258  33.271  27.048  24.734  0.0377 -0.0237 -0.2689
53165W        W96259  33.072  28.309  26.339 -0.0338 -0.3782  0.3758
53166W        W96260  34.319  27.099  26.490 -0.1387  0.5335 -0.0041
53167W        W96261  34.411  27.003  25.633 -0.0233  0.0198  0.1019
53168W        W96262  32.609  27.561  25.186  0.1065  0.1681 -0.2442
53169W        W96263  34.007  27.956  25.398 -0.1468  0.2778 -0.0341
53170W        W96264   0.346  27.601  26.923  0.1655 -0.2891 -0.1030
53171W        W96265  31.804  28.734  27.552  0.2100  0.0776  0.1237
53172W        W96266  33.883  27.689  24.999  0.0762 -0.3061  0.0603
53173W        W96267  33.068  27.776  26.246 -0.1020 -0.0987  0.1583
53174W        W96268  32.910  27.990  25.325  0.3959 -0.1371  0.4238
53175W        W96269  34.350  27.426  26.074 -0.3027  0.0608 -0.1748
53176W        W96270  33.636  29.532  27.108  0.0179  0.1861  0.0568
53177W        W96271  32.456  29.045  25.016 -0.0733 -0.2832 -0.3589
53178W        W96272  33.057  28.248  27.808  0.1070 -0.3495  0.1451
53179W        W96273  33.094  25.784  25.957  0.1605 -0.0549  0.0047
53180W        W96274  33.811  25.632  27.065  0.0689 -0.1918 -0.0759
53181W        W96275  32.810  27.174  27.514 -0.0402  0.1443  0.1991
53182W        W96276  33.162  28.182  27.301 -0.1236 -0.0915 -0.1652
53183W        W96277  32.242  25.944  24.688  0.0319  0.2064  0.3099
53184W        W96278  34.095  28.097  28.855 -0.0910  0.0966 -0.0126
53185W        W96279  34.418  28.346  24.535  0.2028  0.1283  0.1906
53186W        W96280  33.045  28.345  26.822  0.1792 -0.2497 -0.2493
53187W        W96281  34.527  27.262  25.252 -0.0991  0.0599  0.1095
53188W        W96282   0.031  28.342  27.246  0.2419  0.1391 -0.0968
53189W        W96283  32.948  26.560  26.683 -0.4095 -0.1950 -0.3967
53190W        W96284  34.096  26.923  26.012 -0.2078 -0.1234 -0.0057
53191W        W96285  31.963  27.084  28.200 -0.0355  0.1435  0.2765
53192W        W96286  33.561  28.134  26.987 -0.0843 -0.0398 -0.1538
53193W        W96287  32.860  26.799  24.549 -0.0181  0.1502  0.0461
53194W        W96288  32.450  28.643  24.737 -0.5431  0.1149  0.0534
53195W        W96289  32.286  26.871  25.745 -0.0902  0.0428 -0.0114
53196W        W96290  33.877  29.362  28.073 -0.1402  0.1132  0.0157
53197W        W96291  32.981  26.127  24.110 -0.0779  0.1605 -0.1128
53198W        W96292  33.395  27.441  25.043  0.1089  0.2742 -0.0692
53199W        W96293   0.355  29.937  25.780 -0.1340  0.0285  0.1592
53200W        W96294   0.342  25.965  25.518 -0.0930  0.1846  0.0819
53201W        W96295  32.074  28.748  25.111  0.0575 -0.0132  0.0804
53202W        W96296  34.077  29.811  27.254 -0.0382 -0.3923 -0.0769
53203W        W96297  33.295  27.804  26.704 -0.0675 -0.1074  0.4874
53204W        W96298  34.612  28.874  28.269 -0.0653 -0.1422  0.0879
53205W        W96299   0.182  28.681  25.935 -0.1594  0.1365  0.1464
53206W        W96300  34.063  29.292  26.034 -0.1298 -0.1012  0.1886
53207W        W96301  32.813  29.555  25.808  0.2600 -0.1285 -0.2198
53208W        W96302  32.719  29.233  29.193  0.1525  0.0246 -0.2192
53209W        W96303  33.900  26.465  25.991 -0.0483  0.0139  0.0325
53210W        W96304  32.782  30.028  28.657 -0.0585  0.1111  0.2260
53211W        W96305  32.632  28.126  27.504 -0.2500 -0.0311  0.3442
53212W        W96306  33.411  30.486  26.038  0.4368 -0.3095  0.0580
53213W        W96307  33.918  26.146  25.398  0.0792  0.2138 -0.0863
53214W        W96308  33.510  28.312  25.688  0.1176  0.4422 -0.0187
53215W        W96309  32.127  28.161  24.216  0.3336 -0.0367  0.2464
53216W        W96310  33.825  28.804  25.836 -0.3526 -0.4263 -0.0221
53217W        W96311   0.768  27.989  26.710 -0.1586 -0.0072  0.4224
53218W        W96312  34.255  26.191  25.014  0.0024 -0.0177 -0.0512
53219W        W96313  33.609  27.195  27.883  0.0215  0.1477 -0.2675
53220W        W96314   0.084  29.269  27.890 -0.1155 -0.0824  0.2711
53221W        W96315  32.260  27.427  24.720 -0.1147 -0.2189  0.0578
53222W        W96316  33.507  28.598  26.590 -0.4562 -0.0656  0.1783
53223W        W96317  34.238  29.031  23.239  0.1377 -0.3339 -0.0937
53224W        W96318  33.403  28.681  26.095  0.0675 -0.1030  0.1770
53225W        W96319  34.168  29.825  26.364  0.0706  0.0357 -0.1163
53226W        W96320  34.603  30.141  25.825 -0.2327  0.3205 -0.0412
53227W        W96321  32.287  25.300  24.668  0.2294 -0.2099  0.0898
53228W        W96322  33.831  27.723  26.896 -0.1109  0.0909  0.1744
53229W        W96323  34.474  27.781  25.724 -0.1119  0.0016  0.2998
53230W        W96324   0.767  28.780  27.026  0.1113 -0.1109 -0.3550
53231W        W96325  33.603  26.656  24.822  0.1940  0.2856 -0.0784
53232W        W96326  33.017  25.683  25.275  0.2250  0.2128 -0.2300
53233W        W96327  32.285  27.939  25.408 -0.0745  0.2083  0.1968
53234W        W96328   0.291  27.351  26.169  0.1934  0.2826 -0.0980
53235W        W96329  33.175  24.876  25.929 -0.0290  0.1208  0.1165
53236W        W96330  33.198  29.625  24.577 -0.0916 -0.0849  0.0191
53237W        W96331  32.842  26.534  25.068  0.2109 -0.0816 -0.0840
53238W        W96332  34.263  26.442  25.628  0.0421  0.1214  0.0887
53239W        W96333  32.176  27.763  25.954  0.2497 -0.0126 -0.2622
53240W        W96334  32.976  29.061  25.882 -0.0689  0.2168  0.0713
53241W        W96335  33.878  28.469  24.712 -0.1513  0.0364  0.1848
53242W        W96336   0.864  29.673  26.795 -0.4883  0.1219 -0.0469
53243W        W96337   0.431  29.590  27.614  0.2580  0.1188  0.1491
53244W        W96338  32.852  27.235  24.838 -0.2824 -0.2841  0.0995
53245W        W96339  34.531  28.844  26.538  0.4032 -0.1951  0.0285
53246W        W96340  32.836  29.104  24.660  0.1040  0.1642 -0.1157
53247W        W96341  34.308  28.770  25.101  0.2062 -0.0529 -0.2923
53248W        W96342   0.484  26.472  25.529  0.0021  0.4028 -0.1524
53249W        W96343   0.090  26.202  27.047 -0.4113 -0.3115  0.0927
53250W        W96344  34.167  28.221  27.020  0.2646  0.2216 -0.3743
53251W        W96345  31.801  27.275  24.853 -0.0336  0.2931 -0.0003
53252W        W96346  32.856  30.101  24.963 -0.1090  0.1682 -0.2018
53253W        W96347  32.287  28.654  26.093  0.0064 -0.1406  0.0651
53254W        W96348  33.356  26.299  28.484 -0.1334 -0.0763  0.1906
53255W        W96349  33.601  28.450  27.575  0.1284  0.3113 -0.2772
53256W        W96350  33.476  27.911  25.307 -0.2999 -0.1003 -0.2431
53257W        W96351  32.290  26.301  25.596 -0.1626  0.0247 -0.1026
53258W        W96352  32.690  25.567  25.832 -0.0181 -0.2475  0.1633
53259W        W96353  33.808  27.020  26.508  0.1012  0.0987 -0.2414
53260W        W96354  33.243  26.860  25.660  0.0214 -0.0150  0.0165
53261W        W96355  32.533  27.709  23.605  0.0451  0.0046 -0.0232
53262W        W96356   0.436  28.580  27.418  0.2545 -0.1558 -0.0122
53263W        W96357  34.495  26.711  27.729 -0.1140  0.1242  0.0765
53264W        W96358  32.092  26.127  23.410  0.0294 -0.0365  0.4750
53265W        W96359   0.821  26.451  25.870 -0.1229 -0.2134  0.1583
53266W        W96360  34.084  28.593  26.734 -0.3563  0.1653 -0.2329
53267W        W96361   0.522  30.066  27.642 -0.2410 -0.1529 -0.3733
53268W        W96362  32.669  25.804  27.106 -0.0703 -0.0737 -0.0048
53269W        W96363  33.944  28.239  27.828 -0.0781  0.2789 -0.0756
53270W        W96364  33.745  26.217  28.151  0.0551  0.1722 -0.2501
53271W        W96365  33.514  28.663  27.142  0.1552  0.2972 -0.0122
53272W        W96366  33.352  25.457  25.590  0.0102 -0.0782  0.1708
53273W        W96367  33.076  27.361  26.894  0.0919 -0.0114 -0.3775
53274W        W96368  33.487  26.994  25.222 -0.1932 -0.0179 -0.1169
53275W        W96369   0.612  28.431  25.801  0.2404 -0.1033 -0.0372
53276W        W96370  34.012  27.110  25.242 -0.1838 -0.3308  0.4991
53277W        W96371  33.313  30.961  26.497 -0.0774  0.1388  0.0260
53278W        W96372  33.377  26.028  27.705  0.0221 -0.2698 -0.0533
53279W        W96373  33.264  28.339  25.220 -0.2293 -0.0155  0.2152
53280W        W96374  34.444  28.274  25.250  0.2604  0.3267 -0.0138
53281W        W96375  33.455  26.612  27.205 -0.0712  0.0855  0.0410
53282W        W96376  34.562  28.430  26.276 -0.1359 -0.1031  0.1222
53283W        W96377  34.012  28.446  31.022  0.0087 -0.0955  0.2892
53284W        W96378  33.329  26.738  28.662 -0.0798  0.1283 -0.2124
53285W        W96379  33.306  26.122  29.132 -0.3264 -0.2215 -0.3138
53286W        W96380  33.268  24.700  30.722  0.3803  0.2112 -0.1195
53287W        W96381  33.820  26.379  30.377 -0.0473  0.0715 -0.0442
53288W        W96382   0.411  28.517  29.385  0.2560  0.0148 -0.1421
53289W        W96383  34.451  26.875  28.252 -0.1039  0.0654  0.1730
53290W        W96384  34.106  25.090  30.597 -0.0261  0.1325 -0.1421
53291W        W96385  32.961  28.682  30.303 -0.0337  0.1635 -0.1272
53292W        W96386  33.190  27.944  29.676 -0.2502 -0.0134 -0.0630
53293W        W96387  33.148  26.630  29.089  0.1673  0.0630  0.0673
53294W        W96388  33.935  26.566  30.922 -0.0779 -0.1944 -0.0354
53295W        W96389   0.771  28.230  28.377 -0.1251 -0.1199 -0.1545
53296W        W96390  33.145  26.370  28.028  0.0002 -0.0656 -0.2414
53297W        W96391  33.036  26.526  29.600  0.0433  0.1400  0.1755
53298W        W96392  32.294  28.130  29.722 -0.0645  0.0004 -0.0355
53299W        W96393   0.458  29.908  29.606 -0.0706 -0.0411 -0.1701
53300W        W96394  34.515  29.225  29.549  0.0668  0.1935 -0.1629
53301W        W96395  31.929  28.615  30.214 -0.0844  0.1981 -0.0248
53302W        W96396  33.805  29.811  29.174  0.1359 -0.0190 -0.2679
53303W        W96397  33.595  27.698  28.676 -0.1023  0.0996  0.3436
53304W        W96398  33.221  30.063   0.125  0.2765 -0.1415  0.1628
53305W        W96399  34.042  27.828  28.383 -0.2921 -0.1525  0.2464
53306W        W96400  33.234  28.742  31.440  0.3001 -0.0539 -0.3437
53307W        W96401  33.924  29.126  28.519 -0.1830 -0.0052  0.2581
53308W        W96402  33.448  27.898  27.703  0.0279 -0.2348 -0.0010
53309W        W96403  33.721  27.154  30.918 -0.0080 -0.1228 -0.0032
53310W        W96404  33.168  28.783  29.678  0.1321 -0.2873 -0.0677
53311W        W96405  33.346  27.093  29.009 -0.1284  0.0666  0.0220
53312W        W96406  32.330  27.757  26.976  0.0576 -0.0622  0.0006
53313W        W96407  34.170  25.490  28.224  0.1981  0.0240 -0.2334
53314W        W96408  34.592  29.910  30.335 -0.1919  0.1200 -0.0373
53315W        W96409  34.277  26.625  30.514 -0.4006 -0.0087  0.0039
53316W        W96410  33.069  28.214  30.480  0.3331 -0.0653 -0.1141
53317W        W96411  32.668  27.832  29.715 -0.1505  0.1940  0.1647
53318W        W96412  33.522  28.044  30.119 -0.0398  0.1851 -0.3199
53319W        W96413  32.686  27.951  31.375  0.1505  0.1174 -0.0867
53320W        W96414  33.298  26.850  30.846  0.1963 -0.1204 -0.1212
53321W        W96415  34.029  26.941  27.875  0.0369 -0.0898  0.0230
53322W        W96416  34.226  29.014  29.994  0.1804  0.0971 -0.1433
53323W        W96417  33.148  29.039  29.203  0.0885  0.0440  0.0021
53324W        W96418  33.576  29.212  25.834 -0.0998 -0.1714 -0.0411
53325W        W96419  34.333  27.418  28.000  0.2796 -0.0508 -0.1983
53326W        W96420  34.199  29.505  29.884 -0.1538  0.0989 -0.2477
53327W        W96421  33.525  27.830  30.600 -0.0104 -0.1810 -0.2372
53328W        W96422  34.648  29.088  31.787 -0.2679 -0.1944 -0.0426
53329W        W96423  32.586  29.475  28.721 -0.2145 -0.0500  0.0069
53330W        W96424  32.824  27.241  30.225 -0.1643  0.0029 -0.0986
53331W        W96425  31.708  28.243  27.639  0.0417 -0.2105  0.3561
53332W        W96426  31.990  24.584  31.037  0.3843 -0.1457 -0.0489
53333W        W96427  34.497  28.090  30.602  0.1715 -0.0181  0.0241
53334W        W96428  33.012  25.864  30.186  0.0811  0.3594  0.0154
53335W        W96429  32.456  28.912  29.637  0.0398  0.2948  0.0325
53336W        W96430  32.569  26.636  29.803 -0.2748 -0.2031  0.3441
53337W        W96431  33.986  26.780  30.036  0.2896  0.2573 -0.0784
53338W        W96432  34.476  26.609  31.506  0.1332  0.0219 -0.3719
53339W        W96433  32.608  26.092  29.786  0.0763 -0.0891  0.1814
53340W        W96434  33.617  25.987  29.485  0.0972 -0.0593 -0.3944
53341W        W96435  33.199  26.834  27.804  0.0918 -0.1119 -0.0786
53342W        W96436  31.493  28.208  29.529 -0.1302  0.2147  0.0364
53343W        W96437  33.433  26.591  31.248 -0.1774  0.0084 -0.0550
53344W        W96438  31.469  26.627  27.309  0.0043 -0.1135  0.0869
53345W        W96439  31.979  29.051  27.960 -0.2037 -0.1837 -0.5178
53346W        W96440  32.921  28.381  29.870 -0.1306  0.1942 -0.1131
53347W        W96441  33.049  25.800  29.608 -0.2217  0.0278  0.1026
53348W        W96442  34.165  28.534  30.286 -0.1204  0.1197  0.1378
53349W        W96443  32.942  26.336  28.770 -0.1380 -0.3152  0.1969
53350W        W96444  31.940  29.099  29.449 -0.1188 -0.0123 -0.6248
53351W        W96445  32.281  26.886  29.487 -0.1818 -0.2247  0.0767
53352W        W96446  33.760  29.777  29.735  0.3331 -0.0770 -0.1148
53353W        W96447  33.055  26.966   0.142  0.0172 -0.1733  0.2106
53354W        W96448  32.767  28.728  29.210 -0.0153  0.0409 -0.0580
53355W        W96449  33.760  29.261  31.947 -0.1736  0.0829 -0.1003
53356W        W96450  32.456  27.759   0.675 -0.2589 -0.1960  0.1138
53357W        W96451   1.643  28.287  27.263  0.2137 -0.1831 -0.2006
53358W        W96452   0.813  28.572  30.612  0.1865  0.0269 -0.2762
53359W        W96453  32.529  27.703  30.216  0.2231  0.1218 -0.0931
53360W        W96454  33.232  26.347  30.320  0.2384 -0.0234  0.1446
53361W        W96455   0.536  26.839  26.401  0.3058  0.1562 -0.1853
53362W        W96456  33.048  30.140  29.082 -0.0867  0.1428 -0.1795
53363W        W96457  34.232  25.928  29.740 -0.0433  0.0421 -0.1731
53364W        W96458  34.192  27.650  27.277 -0.0246  0.1615 -0.2270
53365W        W96459  34.171  26.548  31.908 -0.2630  0.0957 -0.0654
53366W        W96460  32.531  26.290  30.665 -0.0324 -0.1685  0.2875
53367W        W96461  34.288  29.261  30.915 -0.0153  0.2569  0.2946
53368W        W96462   0.158  26.564  30.888  0.1990 -0.0778 -0.1183
53369W        W96463  33.205  28.539  29.107 -0.1646 -0.0767  0.1419
53370W        W96464  34.663  28.286  28.160  0.0695  0.0144 -0.2161
53371W        W96465   0.482  27.476  28.591  0.0110  0.3698 -0.1982
53372W        W96466   0.216  26.853  30.440 -0.0078  0.0618 -0.0257
53373W        W96467  34.424  27.900  28.031  0.1302 -0.0575 -0.0725
53374W        W96468  33.073  29.545  28.965  0.2044  0.1765  0.0592
53375W        W96469  34.256  29.631  29.420 -0.2260  0.1454 -0.0849
53376W        W96470  34.020  26.402  27.558  0.0001  0.2322  0.2112
53377W        W96471  33.122  27.449  28.706  0.0747 -0.1260  0.0621
53378W        W96472  33.503  26.742  29.900 -0.2409  0.1275  0.1214
53379W        W96473   0.618  25.129  30.758  0.2231  0.1081  0.0689
53380W        W96474  33.328  29.477  30.798 -0.3058  0.0935  0.0794
53381W        W96475   0.524  28.012  31.310  0.1826 -0.0306 -0.2195
53382W        W96476  33.401  27.516  30.225  0.0562  0.2936  0.4025
53383W        W96477  34.220  27.147  30.197 -0.0178  0.1539  0.0752
53384W        W96478  33.353  29.644  30.319  0.0837  0.3895  0.2959
53385W        W96479  33.014  26.968  28.261  0.0602 -0.0009  0.3128
53386W        W96480  33.236  29.555  27.605 -0.0991 -0.1664 -0.2443
53387W        W96481  34.134  26.936   0.225  0.0598 -0.1044 -0.0388
53388W        W96482  33.280  27.039  30.368  0.0886 -0.1420 -0.0110
53389W        W96483  34.367  27.019  28.765  0.2931  0.0666  0.0646
53390W        W96484  34.214  27.624  28.833 -0.2243  0.2311  0.1550
53391W        W96485  32.865  26.667  30.600  0.3689  0.2856  0.1751
53392W        W96486  32.590  27.544  30.871 -0.2220  0.3578  0.1403
53393W        W96487  34.247  27.855  29.711 -0.2334  0.0419  0.0571
53394W        W96488  32.889  27.220  29.221 -0.0967 -0.0624 -0.2393
53395W        W96489  33.642  28.897  29.307 -0.0721 -0.0636  0.0366
53396W        W96490   0.829  26.425  29.507 -0.1021  0.1000  0.1945
53397W        W96491   0.773  28.390  31.070 -0.1864  0.1281 -0.1784
53398W        W96492  32.075  29.580  28.610 -0.0359 -0.0489  0.1227
53399W        W96493  32.707  28.231  31.749 -0.0608  0.1237  0.0323
53400W        W96494   0.384  26.508  29.343 -0.1513  0.3601 -0.2255
53401W        W96495  34.529  26.240  31.069 -0.0067  0.2523  0.0191
53402W        W96496  34.064  26.269  31.356 -0.0082 -0.1506  0.2622
53403W        W96497  33.768  26.964  31.747 -0.2395  0.0502 -0.0384
53404W        W96498  33.717  25.917  28.905  0.2494  0.0493  0.2026
53405W        W96499  33.413  28.503  30.078 -0.1130  0.0400  0.0489
53406W        W96500  34.522  27.952  29.111  0.2504  0.0260 -0.1735
53407W        W96501   0.933  27.724  29.758 -0.0744 -0.1660  0.1532
53408W        W96502  34.340  28.016  27.508 -0.0894 -0.1834  0.2480
53409W        W96503  32.687  29.113  30.045  0.3926  0.1091  0.2815
53410W        W96504  33.793  26.186  29.898  0.0383 -0.1840  0.5183
53411W        W96505  33.851  27.395  30.444 -0.1086  0.1972  0.1182
53412W        W96506  32.792  25.872  30.771  0.2107  0.1711  0.0075
53413W        W96507  33.547  25.961  30.322 -0.0471 -0.2145 -0.0483
53414W        W96508   0.119  28.116  27.746  0.0230  0.0251 -0.3845
53415W        W96509  34.498  27.985  28.549  0.0890 -0.1641 -0.1227
53416W        W96510  33.234  25.327  28.423  0.1510 -0.0918 -0.0751
53417W        W96511  33.812  29.295  30.101  0.4469  0.0862  0.1740
53418W        W96512  33.952  27.725  27.915 -0.0960  0.0076  0.2161
53419W        W96513  33.646  28.069  28.219  0.0834 -0.1370  0.0785
53420W        W96514  34.563  29.513  29.057 -0.2058  0.0525 -0.0006
53421W        W96515  33.546  25.797  28.366 -0.0654  0.1751  0.2762
53422W        W96516  31.868  28.700  28.495  0.2068 -0.0259 -0.0920
53423W        W96517   0.211  29.006  31.378  0.0047  0.0755  0.3295
53424W        W96518  33.441  27.118  31.402 -0.1374  0.0736  0.0070
53425W        W96519  34.119  28.279  29.380 -0.0770  0.0865 -0.0594
53426W        W96520   0.328  27.061  28.945  0.0967  0.0310 -0.3985
53427W        W96521  32.673  26.704  29.223 -0.2426  0.1774  0.3594
53428W        W96522  34.585  27.910  31.105 -0.2665  0.2605  0.1640
53429W        W96523  32.719  26.544  31.727 -0.0918 -0.0650  0.1824
53430W        W96524  34.569  26.165  27.622 -0.0734 -0.3893  0.0969
53431W        W96525  33.237  30.153  31.138  0.1883  0.4175  0.0010
53432W        W96526  32.983  27.177  31.181 -0.0617 -0.2726 -0.1143
53433W        W96527  32.946  29.167  27.755  0.0205  0.3206 -0.2349
53434W        W96528  33.275  25.604  28.832  0.0718 -0.0466  0.2308
53435W        W96529  32.279  29.730  29.463  0.1335 -0.2767  0.0833
53436W        W96530  33.422  29.214  27.921  0.0927 -0.0317 -0.3252
53437W        W96531  33.684  28.340  30.517 -0.2585 -0.2371  0.0044
53438W        W96532  32.977  27.692  30.620  0.4127  0.0169 -0.2401
53439W        W96533   0.147  27.131  28.460 -0.0260 -0.1399  0.2325
53440W        W96534  33.529  27.772  31.639 -0.0818  0.1940 -0.3924
53441W        W96535  32.516  30.482  30.722 -0.0569  0.1692 -0.0284
53442W        W96536  32.990  25.129  27.991 -0.0543  0.1515 -0.0386
53443W        W96537  33.722  28.465  29.114  0.0160 -0.0538  0.0598
53444W        W96538  34.669  27.562  28.294  0.0156  0.3583  0.0558
53445W        W96539  34.035  30.361  29.031  0.2310  0.0845  0.1986
53446W        W96540  33.934  29.383  28.958 -0.2184 -0.1426 -0.1592
53447W        W96541   0.455  28.266  30.320 -0.0461  0.0370 -0.5840
53448W        W96542  33.166  28.028  28.824 -0.1180  0.0979  0.1694
53449W        W96543  32.649  27.137  29.757 -0.3446  0.0805 -0.1623
53450W        W96544   0.029  27.590  28.780  0.3210  0.1124 -0.2406
53451W        W96545  32.455  26.951  31.292  0.0279  0.3002 -0.1288
53452W        W96546  33.704  28.007  29.174 -0.2843 -0.0431 -0.2581
53453W        W96547  34.005  25.848  30.183  0.0690  0.0274 -0.0771
53454W        W96548  33.005  28.602  28.612  0.1975 -0.1035 -0.0308
53455W        W96549   0.077  26.347  30.394  0.1681  0.0228 -0.0470
53456W        W96550  33.505  26.475  29.448  0.0437  0.0958 -0.0721
53457W        W96551  34.617  27.636  27.666 -0.1407  0.0294 -0.0906
53458W        W96552  33.048  27.897  30.123 -0.0827  0.2684 -0.1585
53459W        W96553  33.739  25.812  27.931  0.1316 -0.1132  0.3525
53460W        W96554  34.651  27.312  30.414  0.0426  0.4387 -0.3706
53461W        W96555  33.017  29.523  28.090  0.0855  0.0653 -0.0969
53462W        W96556  33.693  27.962  29.659 -0.1254 -0.0973  0.2582
53463W        W96557  34.014  28.082  30.175  0.0379  0.2634 -0.2935
53464W        W96558  34.515  29.355  31.404 -0.1332  0.1411  0.1431
53465W        W96559  33.507  27.133  28.462  0.3196  0.0700 -0.1401
53466W        W96560  34.348  28.882  30.597 -0.3424  0.3651 -0.0337
53467W        W96561  34.159  28.778  29.337 -0.0019 -0.0309  0.0904
53468W        W96562  34.367  29.364  28.327 -0.2274  0.0634 -0.1681
53469W        W96563   0.178  27.980  29.462  0.1139 -0.0096  0.2403
53470W        W96564   1.918  26.138  29.034 -0.2479  0.1290  0.0172
53471W        W96565  34.202  27.116  30.676 -0.2269  0.5339 -0.1637
53472W        W96566  33.988  28.765  28.837  0.2085  0.1298 -0.1791
53473W        W96567  33.777  28.670  28.097  0.3360  0.1862 -0.1745
53474W        W96568  34.384  29.440  30.421  0.1568  0.0564 -0.0545
53475W        W96569   0.400  26.144   0.164  0.2087  0.0576  0.0549
53476W        W96570  33.331  27.405  30.850  0.1629  0.2281  0.0224
53477W        W96571  33.894  29.259  29.530  0.0390 -0.1077 -0.0504
53478W        W96572  32.716  25.509  28.059  0.0409  0.3334  0.2697
53479W        W96573  34.670  24.844  28.644 -0.1737  0.0378 -0.3565
53480W        W96574  33.781  26.890  30.531 -0.0201  0.0758  0.2008
53481W        W96575  34.022  27.244  29.683 -0.1654  0.0706  0.0834
53482W        W96576  33.331  27.580  28.201  0.0124 -0.0899  0.1483
53483W        W96577  32.767  26.339  30.167  0.0721  0.0785  0.1115
53484W        W96578   0.013  25.859  30.634  0.4178 -0.0447  0.0216
53485W        W96579  32.455  27.051  28.354 -0.0451 -0.0869  0.0299
53486W        W96580  34.634  28.556  31.036  0.0609  0.1746  0.2228
53487W        W96581   0.617  28.866  29.131 -0.1066 -0.3807  0.0223
53488W        W96582   0.684  29.714  30.570 -0.0926 -0.0182 -0.2933
53489W        W96583  33.567  24.164   0.316 -0.2677 -0.3190 -0.0666
53490W        W96584   0.279  28.728  31.798  0.1295  0.1513 -0.1338
53491W        W96585  34.026  25.757  31.381 -0.0460  0.0711 -0.0930
53492W        W96586  33.077  28.080  30.974 -0.0135 -0.0578  0.1910
53493W        W96587   0.087  25.744  29.539  0.2565  0.1890 -0.3099
53494W        W96588  33.401  28.384  29.553 -0.0904 -0.0853  0.0330
53495W        W96589  33.936  26.449  28.534  0.1503  0.3779 -0.0005
53496W        W96590   0.353  27.488  29.202 -0.2278 -0.1252 -0.2213
53497W        W96591  34.297  26.899  26.991  0.0654 -0.2131  0.1291
53498W        W96592  34.627  30.027  31.108 -0.3348  0.2280 -0.3184
53499W        W96593  33.107  25.802  31.325  0.0081  0.4568 -0.0675
53500W        W96594   0.042  28.958  29.203 -0.1855 -0.4783 -0.2008
53501W        W96595   0.635  28.059  27.876 -0.2808 -0.0320 -0.0563
53502W        W96596  34.637  26.362  29.530  0.2797  0.2007  0.1235
53503W        W96597   0.629  29.020  30.512  0.1017  0.1965 -0.2146
53504W        W96598  32.982  25.651  31.771 -0.1957  0.0364  0.1337
53505W        W96599  32.400  30.564   0.212  0.1847 -0.1438 -0.1677
53506W        W96600  34.588  28.561  31.563 -0.4499  0.2273 -0.2129
53507W        W96601  32.992  30.357  31.591 -0.0680  0.3635 -0.2847
53508W        W96602   0.672  26.497  31.911 -0.0639 -0.3063  0.1422
53509W        W96603   0.798  25.988  31.110  0.0345 -0.0493  0.5908
53510W        W96604  33.961  28.022  30.739 -0.0274 -0.1416  0.0919
53511W        W96605  34.261  29.761  30.798 -0.1557 -0.2542 -0.1709
53512W        W96606  33.288  26.788  31.715 -0.2117 -0.0552  0.0137
53513W        W96607  32.935  25.772   0.797  0.3750 -0.0884  0.0048
53514W        W96608  33.985  24.221   0.628  0.2204 -0.1644 -0.3091
53515W        W96609  32.980  26.251  31.072 -0.1769  0.4264  0.1318
53516W        W96610  34.381  29.910   0.101  0.1003 -0.0709 -0.1186
53517W        W96611   0.171  27.187  31.823  0.2282 -0.1210 -0.2209
53518W        W96612  33.745  30.140  31.293  0.2683 -0.2996  0.0232
53519W        W96613  33.146  28.053  31.581  0.0765  0.1963  0.1955
53520W        W96614  33.847  27.367   0.082  0.2357 -0.0856  0.1222
53521W        W96615  34.400  27.798  30.221  0.1195  0.0646 -0.0138
53522W        W96616  33.993  26.841  31.348  0.1631 -0.0106  0.4327
53523W        W96617  33.646  26.453  31.698  0.1790  0.2221  0.1474
53524W        W96618  34.300  27.352  31.948  0.0548 -0.1212  0.0375
53525W        W96619  33.756  28.934  30.785  0.0719  0.0608  0.1764
53526W        W96620   0.797  28.836  31.428  0.3252  0.1830  0.0219
53527W        W96621  33.417  26.357  30.754 -0.1044  0.4529 -0.0826
53528W        W96622   0.210  29.094   0.704 -0.0053  0.1709  0.0641
53529W        W96623  32.419  25.916  30.238  0.0081  0.1886 -0.0974
53530W        W96624   0.695  27.238  31.694 -0.0579  0.0916 -0.1920
53531W        W96625  34.496  24.361  31.408  0.1541  0.4411 -0.0702
53532W        W96626  31.224  27.746  30.989  0.2757 -0.2957  0.0979
53533W        W96627  34.421  27.326  31.042 -0.0865 -0.1314  0.3219
53534W        W96628  34.604  28.861   0.289 -0.0184  0.0560 -0.1772
53535W        W96629   1.204  26.766  30.494  0.3168 -0.2074 -0.2730
53536W        W96630  34.559  29.445   1.059  0.3682  0.0223 -0.1161
53537W        W96631  33.899  27.436  31.588 -0.3206 -0.0797  0.0463
53538W        W96632  33.672  26.295   0.273 -0.0262  0.1354  0.1051
53539W        W96633  31.566  25.844   0.319 -0.2497 -0.1048  0.2539
53540W        W96634  32.989  28.002   0.158 -0.0107 -0.0836 -0.1713
53541W        W96635  33.132  27.546  31.429  0.2441  0.0041  0.0999
53542W        W96636  33.495  24.947   0.282  0.3472  0.1308 -0.0024
53543W        W96637  31.990  31.830  18.808  0.0637 -0.3159  0.0114
53544W        W96638  32.264  31.327  16.543 -0.1101 -0.3504 -0.0611
53545W        W96639  33.107  29.813  18.343  0.0667 -0.2375  0.0355
53546W        W96640  33.232  29.241  20.088  0.5476  0.1513  0.1851
53547W        W96641   0.351  30.183  17.695 -0.1475 -0.1928  0.1401
53548W        W96642  33.921  30.918  18.862  0.1909 -0.4275 -0.1438
53549W        W96643  33.169  30.307  16.638  0.0050  0.0594  0.0644
53550W        W96644  32.142  29.750  18.521  0.1032  0.1310  0.0791
53551W        W96645  34.387  31.318  17.185  0.3479 -0.4288  0.2288
53552W        W96646  32.802  29.704  17.903  0.2283 -0.1433  0.0134
53553W        W96647  33.503  31.147  16.852 -0.1250  0.1180 -0.0155
53554W        W96648   0.383  29.480  19.454 -0.1744  0.2105  0.0996
53555W        W96649  34.684  33.766  16.509  0.0236  0.0951  0.1955
53556W        W96650  32.287  30.910  15.862 -0.1739  0.0004 -0.1590
53557W        W96651  32.124  30.065  17.282 -0.1014  0.0557 -0.1864
53558W        W96652  32.603  30.859  18.784 -0.1017 -0.2095  0.0281
53559W        W96653  34.108  32.788  18.328 -0.0070  0.0083 -0.0074
53560W        W96654   0.362  32.396  17.830  0.2063 -0.0718  0.0179
53561W        W96655  32.159  31.516  17.568  0.1317  0.1349  0.3332
53562W        W96656  34.146  32.663  17.587 -0.0983 -0.0521 -0.2707
53563W        W96657  34.209  30.787  17.379 -0.1540  0.2361  0.4811
53564W        W96658  33.629  32.426  20.451 -0.0552 -0.1830 -0.2873
53565W        W96659  34.264  32.560  16.328  0.0338  0.3644 -0.1441
53566W        W96660  33.061  31.993  19.807 -0.0865 -0.4104  0.0473
53567W        W96661  33.727  32.515  16.690  0.4974 -0.0214  0.2873
53568W        W96662  34.488  32.470  18.051  0.1699 -0.1731 -0.0725
53569W        W96663  33.963  32.043  20.327 -0.1109 -0.3670  0.2075
53570W        W96664  33.452  32.436  17.114 -0.0226  0.1183 -0.3816
53571W        W96665  33.487  31.989  16.723  0.0736 -0.0031  0.1762
53572W        W96666  33.130  28.752  16.714  0.0577  0.0510  0.1539
53573W        W96667  34.201  29.693  18.440  0.2296 -0.3898  0.3453
53574W        W96668  33.259  33.105  17.396 -0.1026  0.3293 -0.0842
53575W        W96669  34.264  29.163  18.810  0.2087  0.0114  0.0446
53576W        W96670   0.038  33.170  18.455  0.2986  0.2031  0.1198
53577W        W96671  32.607  31.460  16.848 -0.3731 -0.0701 -0.2622
53578W        W96672  33.649  30.833  17.324 -0.1158 -0.0129 -0.0609
53579W        W96673  33.137  32.172  19.352  0.0683 -0.2774 -0.5391
53580W        W96674  32.740  32.393  18.861  0.1442 -0.1590 -0.4100
53581W        W96675  33.958  30.121  16.382 -0.0979  0.3100 -0.3152
53582W        W96676  32.280  33.247  19.610 -0.1378 -0.0003  0.1392
53583W        W96677  33.878  31.734  17.582  0.2092  0.0897  0.0040
53584W        W96678  33.735  31.479  16.508 -0.3891  0.0269 -0.1308
53585W        W96679   0.139  31.543  17.374 -0.1771 -0.1115 -0.0502
53586W        W96680  32.956  33.023  17.933  0.0668 -0.0152 -0.3030
53587W        W96681  33.970  29.269  18.372  0.0052  0.1284 -0.0439
53588W        W96682  34.420  32.002  19.637 -0.1004  0.0757 -0.0412
53589W        W96683  34.262  31.783  17.176 -0.0231 -0.2440 -0.1333
53590W        W96684  33.243  33.008  19.376  0.1471  0.0946  0.1839
53591W        W96685  33.532  30.588  16.869 -0.0293  0.2405  0.3137
53592W        W96686  31.837  29.959  20.436  0.1634  0.0013 -0.2259
53593W        W96687  34.386  31.602  17.615 -0.2377  0.1942 -0.0237
53594W        W96688   0.120  29.278  19.106 -0.1383  0.2530  0.3027
53595W        W96689  31.853  31.603  16.478 -0.0918  0.0655  0.0768
53596W        W96690  33.102  28.714  18.065  0.3366  0.2173  0.0741
53597W        W96691  32.548  30.124  17.676 -0.0458  0.0266 -0.1316
53598W        W96692  33.745  30.582  18.277  0.1569  0.0690 -0.0651
53599W        W96693  33.244  29.448  17.923 -0.2286  0.3952  0.2841
53600W        W96694  33.195  29.777  16.939  0.0980 -0.2024 -0.0535
53601W        W96695  33.387  31.963  17.285  0.3268 -0.0578  0.0653
53602W        W96696  32.643  30.908  17.336  0.0808  0.0239  0.0263
53603W        W96697  34.624  31.586  19.671 -0.2032 -0.3238  0.0287
53604W        W96698  33.144  31.637  16.875 -0.1522 -0.0608 -0.0722
53605W        W96699  34.275  32.315  18.556  0.0506 -0.0931 -0.1202
53606W        W96700  34.258  32.118  17.792  0.1877  0.1299  0.0133
53607W        W96701  33.866  28.801  16.214  0.0166  0.3290  0.2268
53608W        W96702  33.599  31.504  18.158 -0.1404 -0.1671  0.1983
53609W        W96703  34.539  29.337  16.324 -0.2170  0.1473 -0.5023
53610W        W96704  33.229  31.656  16.353 -0.0137  0.0605 -0.1235
53611W        W96705  32.507  32.871  18.099  0.0251 -0.1861  0.0488
53612W        W96706   1.919  31.637  17.641 -0.3193 -0.2638 -0.0278
53613W        W96707  32.618  31.396  19.545 -0.0230 -0.2017 -0.1416
53614W        W96708  31.391  30.413  16.121 -0.0442 -0.1925 -0.0088
53615W        W96709  33.472  33.032  18.818  0.0632 -0.1088 -0.1909
53616W        W96710  33.287  31.116  19.501  0.2412  0.1148 -0.0455
53617W        W96711   0.113  32.083  17.204  0.0903 -0.3316  0.0094
53618W        W96712  34.296  31.863  18.753  0.1465 -0.1710 -0.0465
53619W        W96713  31.839  31.705  18.327 -0.0318 -0.0518  0.1087
53620W        W96714  34.404  29.678  18.921 -0.4498  0.0958 -0.1132
53621W        W96715  33.692  30.717  16.003  0.0393 -0.1600  0.0322
53622W        W96716  32.689  32.988  15.693  0.3221  0.1261 -0.0342
53623W        W96717  34.071  28.610  19.106 -0.1602 -0.2975 -0.2028
53624W        W96718  32.539  30.877  16.450 -0.0588  0.0983 -0.0993
53625W        W96719  34.363  30.787  19.468 -0.2074 -0.1483 -0.0764
53626W        W96720  33.031  31.737  20.248  0.0570 -0.0969  0.2003
53627W        W96721  32.818  31.562  17.888 -0.0137  0.2181 -0.3562
53628W        W96722  34.533  29.682  19.454 -0.3223 -0.1080  0.0345
53629W        W96723  33.670  32.830  17.425  0.1264  0.4475 -0.0884
53630W        W96724  33.766  32.692  16.202  0.2026  0.1355 -0.2524
53631W        W96725  32.622  29.626  18.447  0.1514 -0.2018  0.0923
53632W        W96726   0.504  31.940  18.018  0.1402 -0.2581 -0.4576
53633W        W96727  33.003  32.681  17.455 -0.0653 -0.1749 -0.2252
53634W        W96728  32.771  33.128  17.131 -0.2896 -0.0994 -0.2811
53635W        W96729  32.404  32.500  18.448 -0.1190  0.0757 -0.0734
53636W        W96730   0.054  31.451  16.329  0.0068 -0.2250 -0.1779
53637W        W96731  32.993  31.192  16.589  0.0897  0.0203 -0.1839
53638W        W96732  33.309  28.699  19.245  0.4517 -0.0470  0.1516
53639W        W96733   0.612  30.132  18.108 -0.0799 -0.1669 -0.0550
53640W        W96734  32.585  32.056  18.028  0.0573  0.0795  0.0465
53641W        W96735   0.371  31.499  19.437  0.2596 -0.1360  0.3763
53642W        W96736  34.117  30.015  15.636 -0.1851  0.0215  0.0218
53643W        W96737  34.600  28.936  18.133 -0.0358 -0.0849 -0.1843
53644W        W96738  33.005  32.029  16.022 -0.0927  0.0768  0.2409
53645W        W96739  31.842  30.584  15.814 -0.1705  0.0624 -0.0338
53646W        W96740  32.069  31.357  17.052  0.1296  0.0820  0.1911
53647W        W96741  32.878  30.996  19.231  0.0544 -0.1164 -0.1461
53648W        W96742  32.891  29.850  17.428 -0.0819  0.0412 -0.2308
53649W        W96743  32.410  29.121  16.982  0.2896  0.0823 -0.0019
53650W        W96744   0.320  29.714  17.848  0.1710 -0.2948  0.0147
53651W        W96745  33.560  29.473  18.631 -0.0397 -0.3193 -0.1265
53652W        W96746  33.601  32.692  19.628  0.0169 -0.0003  0.0178
53653W        W96747  34.353  31.705  16.718 -0.0688 -0.0114  0.0309
53654W        W96748  32.224  30.299  18.591  0.3268 -0.2427  0.2317
53655W        W96749  33.139  31.186  18.196 -0.1599 -0.1353 -0.1918
53656W        W96750  34.251  30.648  18.083 -0.1354 -0.2433  0.0424
53657W        W96751  33.349  31.613  17.725 -0.0451  0.0179 -0.0798
53658W        W96752  34.451  33.204  17.328  0.4010  0.0099 -0.1077
53659W        W96753  33.048  32.735  18.394  0.0749  0.0803  0.0962
53660W        W96754  33.327  31.247  16.090 -0.1182 -0.0529  0.1338
53661W        W96755  33.534  29.143  17.019  0.1472  0.0499  0.0280
53662W        W96756  34.130  30.155  18.927  0.1117  0.2038 -0.2604
53663W        W96757  33.823  29.954  18.574  0.1829  0.0019  0.0279
53664W        W96758  33.615  29.552  16.721  0.0168  0.0765 -0.0318
53665W        W96759  33.708  30.409  18.750  0.1585  0.3246 -0.1806
53666W        W96760  34.373  32.219  16.729 -0.0238  0.0820  0.3582
53667W        W96761  34.120  30.140  18.214 -0.1570  0.1270  0.3937
53668W        W96762   0.547  32.162  16.509  0.1428 -0.0871 -0.0566
53669W        W96763  33.507  30.364  17.597 -0.0447 -0.1972 -0.2716
53670W        W96764  33.969  29.871  19.301 -0.1005  0.2806 -0.0605
53671W        W96765  32.274  31.696  19.243 -0.0473 -0.1214  0.0603
53672W        W96766  33.671  29.630  18.125  0.2200  0.2350  0.3571
53673W        W96767  31.570  28.743  18.110  0.0658 -0.1298  0.2035
53674W        W96768  32.986  32.225  17.177  0.0673 -0.1987 -0.1223
53675W        W96769   1.029  32.098  17.179 -0.0715 -0.0865 -0.2274
53676W        W96770  31.463  29.906  18.745  0.2250  0.0363 -0.0583
53677W        W96771  33.421  32.302  18.236  0.0021 -0.0010  0.3304
53678W        W96772  33.223  29.266  16.587 -0.4372 -0.1090 -0.1785
53679W        W96773   0.423  31.182  16.100  0.2617  0.1549 -0.2447
53680W        W96774   0.455  33.386  19.086  0.1769  0.2350  0.0437
53681W        W96775  34.689  28.207  17.493 -0.1833 -0.0786  0.0173
53682W        W96776  33.443  32.780  17.905  0.5421 -0.1147  0.0552
53683W        W96777  34.400  33.003  17.882  0.0139  0.0565  0.2950
53684W        W96778  32.016  31.810  17.200 -0.0837 -0.2475 -0.1040
53685W        W96779  32.939  31.679  17.325  0.1836 -0.0273  0.0796
53686W        W96780  33.345  30.241  17.160 -0.1106  0.1924  0.1368
53687W        W96781  32.354  31.109  19.181 -0.3296 -0.0688  0.1765
53688W        W96782  32.326  32.212  19.082  0.2267 -0.0443  0.0420
53689W        W96783  32.417  31.196  17.782  0.1164 -0.2234  0.1078
53690W        W96784  33.000  30.154  17.928  0.1449 -0.0108  0.2758
53691W        W96785  32.203  32.317  19.928 -0.2018 -0.0671  0.0489
53692W        W96786  32.702  31.914  19.404  0.0452 -0.0387  0.1356
53693W        W96787  33.112  32.809  17.015  0.2526 -0.2050 -0.1776
53694W        W96788  34.149  31.571  16.211 -0.3805 -0.2304  0.0508
53695W        W96789  32.118  31.012  17.423  0.0541  0.0066  0.2558
53696W        W96790  33.596  32.978  16.888 -0.0958  0.0032 -0.1761
53697W        W96791  33.614  33.884  17.128 -0.2706  0.0100 -0.1196
53698W        W96792  34.007  31.488  18.462 -0.0620 -0.2381 -0.1261
53699W        W96793   0.080  29.536  16.716  0.3759 -0.0525 -0.1353
53700W        W96794  33.633  31.498  19.377 -0.1988  0.0113  0.0141
53701W        W96795  32.953  34.091  19.208  0.1834 -0.1730 -0.1379
53702W        W96796  32.947  31.072  17.770  0.1876  0.1232  0.0040
53703W        W96797  33.839  29.983  17.675 -0.2013  0.0288  0.0354
53704W        W96798  33.187  32.433  15.807 -0.0395 -0.0999 -0.0713
53705W        W96799  33.683  33.668  17.611 -0.0581 -0.1213  0.4087
53706W        W96800  34.145  31.609  18.031  0.1793  0.2522  0.2017
53707W        W96801  33.964  32.054  18.213  0.0278  0.4560  0.0895
53708W        W96802  32.136  30.446  16.592  0.1690  0.0067  0.0387
53709W        W96803  33.344  30.078  18.641 -0.0936 -0.0572  0.0502
53710W        W96804  32.075  30.207  17.841 -0.0166  0.0269  0.0136
53711W        W96805  32.326  31.121  18.287 -0.2936  0.1564 -0.1274
53712W        W96806  34.067  31.813  15.841  0.0045 -0.0311 -0.0929
53713W        W96807  33.498  31.169  17.811 -0.4666  0.0979  0.1963
53714W        W96808  33.758  31.631  16.984 -0.1557  0.2049  0.1037
53715W        W96809  33.271  31.537  18.641 -0.0013  0.0914  0.0312
53716W        W96810  33.359  29.886  17.601  0.1243  0.1929 -0.0678
53717W        W96811  33.963  32.972  16.568  0.2882 -0.0383  0.0649
53718W        W96812  32.061  30.351  19.507  0.0066  0.0557  0.5201
53719W        W96813  34.570  29.941  16.934  0.3743  0.0297  0.1322
53720W        W96814   0.128  30.587  18.653  0.0160 -0.0831 -0.1135
53721W        W96815  33.182  32.442  16.618  0.0632  0.1780  0.2301
53722W        W96816  33.923  32.081  16.491  0.0585  0.0046 -0.0251
53723W        W96817  33.842  32.466  17.935  0.1760 -0.0673 -0.0936
53724W        W96818  33.380  33.082  19.869  0.1615  0.2122  0.0164
53725W        W96819  31.639  30.573  16.519 -0.1762 -0.2545  0.2386
53726W        W96820  33.305  31.205  19.025  0.0591 -0.1236 -0.2897
53727W        W96821   0.121  32.975  17.570 -0.1950  0.3780 -0.1315
53728W        W96822  33.793  32.284  17.488 -0.1748  0.0602  0.1743
53729W        W96823   0.499  29.848  17.307  0.2565 -0.2679 -0.0889
53730W        W96824  33.344  31.334  17.307  0.0975  0.0746 -0.3080
53731W        W96825   0.613  31.024  19.063 -0.1398 -0.0217  0.1275
53732W        W96826  30.814  30.352  16.149 -0.6469  0.0942  0.1385
53733W        W96827  34.288  32.624  15.795  0.0750  0.1625 -0.1523
53734W        W96828  32.527  31.420  17.300  0.2117  0.0399 -0.0362
53735W        W96829  33.718  29.488  19.457  0.1587  0.1940 -0.0927
53736W        W96830  32.493  30.699  19.411  0.3631 -0.0890 -0.1937
53737W        W96831  32.673  30.658  17.802  0.1118 -0.1526  0.2351
53738W        W96832  32.043  30.762  17.882  0.4288  0.0261 -0.1037
53739W        W96833  33.127  29.291  18.364  0.1159 -0.0413  0.0307
53740W        W96834  31.289  29.479  18.887 -0.0029  0.1798  0.0617
53741W        W96835  33.775  30.246  15.947  0.0508  0.3323  0.0042
53742W        W96836  31.981  31.271  16.075 -0.0518 -0.0521  0.0615
53743W        W96837  34.572  30.047  18.521  0.5041  0.0354  0.0288
53744W        W96838  34.616  30.276  19.197 -0.0438  0.1601 -0.0432
53745W        W96839  33.253  30.785  16.422  0.1318  0.2887 -0.1266
53746W        W96840  33.518  30.801  19.154 -0.0526  0.0513  0.1551
53747W        W96841   0.045  31.106  18.850 -0.3572 -0.2172 -0.0524
53748W        W96842  33.926  33.182  19.855  0.2110  0.1957  0.1803
53749W        W96843  33.633  28.604  20.451 -0.1091 -0.1052 -0.2353
53750W        W96844  33.888  31.259  17.388 -0.2721 -0.1992 -0.2281
53751W        W96845  33.938  29.649  20.281 -0.1065 -0.4251 -0.0631
53752W        W96846  33.440  31.843  19.048  0.1657 -0.1027 -0.2023
53753W        W96847  34.144  29.473  16.888 -0.0969  0.2229  0.0225
53754W        W96848  32.024  30.632  17.065 -0.2312 -0.2363  0.0847
53755W        W96849   0.516  32.504  16.087 -0.1876 -0.2411 -0.0219
53756W        W96850  34.258  31.331  18.856 -0.0816  0.2145  0.0809
53757W        W96851   0.146  31.915  16.702  0.0155  0.0052 -0.0726
53758W        W96852   0.175  33.144  19.930  0.0895 -0.1851  0.1546
53759W        W96853  33.055  30.088  19.053  0.1682  0.0870  0.0501
53760W        W96854  34.017  30.982  16.947  0.1328  0.0426 -0.1403
53761W        W96855  33.573  30.125  18.082 -0.2742  0.2319 -0.1229
53762W        W96856  33.908  29.552  18.946  0.0895 -0.3769  0.0711
53763W        W96857  33.547  31.911  18.464  0.3637 -0.0865 -0.0912
53764W        W96858   0.506  30.545  24.288 -0.2386 -0.2436  0.1402
53765W        W96859  34.000  30.704  22.028  0.3507 -0.3911  0.1613
53766W        W96860  31.320  29.997  22.513  0.1212 -0.1755  0.2645
53767W        W96861  33.852  29.029  22.290  0.0022  0.1006  0.2994
53768W        W96862   0.707  30.311  22.950  0.1704  0.0644 -0.0751
53769W        W96863  33.276  32.616  22.866  0.1460  0.2756 -0.2890
53770W        W96864  33.181  30.195  20.343 -0.0324  0.2209 -0.0230
53771W        W96865  32.154  28.743  22.854  0.4513  0.0853  0.3668
53772W        W96866  33.961  30.759  21.506 -0.1311 -0.0354  0.0838
53773W        W96867   0.805  31.391  23.618  0.0213  0.3948 -0.0531
53774W        W96868  33.806  29.236  21.223  0.1489 -0.0028  0.2848
53775W        W96869  32.918  30.194  22.371 -0.2246 -0.0579 -0.0204
53776W        W96870   0.815  31.746  21.519  0.2936 -0.2612 -0.1492
53777W        W96871  33.140  30.493  19.386  0.0814 -0.0538  0.3028
53778W        W96872  33.486  31.663  22.213 -0.3144  0.3265 -0.2111
53779W        W96873  33.223  30.258  21.817  0.1197 -0.5900  0.0718
53780W        W96874   0.363  32.824  22.642 -0.0885  0.0755  0.0066
53781W        W96875   0.443  32.806  23.587 -0.0834  0.2665 -0.0704
53782W        W96876  32.605  31.461  21.519  0.1912  0.2266 -0.3479
53783W        W96877  34.446  33.300  20.032  0.5710  0.2627 -0.1113
53784W        W96878  33.270  31.312  21.407 -0.0672 -0.0611  0.0980
53785W        W96879  34.045  32.654  24.279  0.0033  0.0389  0.2502
53786W        W96880  33.114  32.270  20.310 -0.0863  0.0161 -0.2357
53787W        W96881   0.341  31.511  23.980  0.4289 -0.0633 -0.0321
53788W        W96882  33.840  32.753  20.179 -0.2996 -0.1204  0.0090
53789W        W96883  33.861  31.137  21.989 -0.1046  0.3212 -0.0358
53790W        W96884  34.376  32.241  23.640  0.1261  0.2162  0.1048
53791W        W96885  33.119  32.145  23.100  0.1460 -0.2394 -0.0448
53792W        W96886  32.582  31.952  20.475 -0.1645  0.2719 -0.0443
53793W        W96887  33.961  31.245  20.782 -0.4229 -0.3405 -0.1003
53794W        W96888  33.529  28.849  21.278 -0.1652  0.0460  0.3364
53795W        W96889  33.738  32.242  21.459  0.0054  0.1160  0.1951
53796W        W96890  33.350  31.243  23.054  0.0824 -0.2778  0.2917
53797W        W96891  33.171  32.827  23.947  0.1989 -0.0835  0.0514
53798W        W96892  33.809  30.931  22.526 -0.3629 -0.2969  0.1722
53799W        W96893  32.019  31.542  19.666  0.0581  0.2640 -0.2876
53800W        W96894  32.334  30.997  22.443 -0.1319 -0.0276 -0.2409
53801W        W96895  32.830  30.335  23.412  0.0309  0.0782  0.1894
53802W        W96896  33.700  29.222  19.951 -0.1526 -0.0217 -0.0625
53803W        W96897  33.439  31.762  22.987 -0.1195  0.2309 -0.1111
53804W        W96898  34.464  30.654  22.200 -0.0409 -0.0891  0.4231
53805W        W96899  34.576  32.509  21.401 -0.0508  0.2572  0.3067
53806W        W96900  34.675  31.889  21.448 -0.2765  0.2657 -0.0319
53807W        W96901  33.970  31.386  23.681  0.1079  0.1012 -0.0861
53808W        W96902   0.230  30.098  23.862 -0.1013  0.3999 -0.2721
53809W        W96903   1.237  31.823  25.034 -0.2185  0.0573  0.1426
53810W        W96904  34.046  33.870  20.765  0.0239 -0.0050 -0.0430
53811W        W96905  31.039  30.938  22.845 -0.2006 -0.3599 -0.0066
53812W        W96906  32.413  30.791  21.285  0.2347  0.0088 -0.0132
53813W        W96907  31.905  30.637  22.550  0.3059  0.0721 -0.1325
53814W        W96908  34.459  30.932  23.767  0.0753 -0.0445 -0.1061
53815W        W96909  32.102  29.691  22.931 -0.1325  0.0229 -0.0870
53816W        W96910  33.857  31.235  21.517  0.1517 -0.1199  0.1817
53817W        W96911  32.944  31.832  23.695 -0.0392 -0.2125  0.2798
53818W        W96912  32.112  30.041  19.952  0.2211  0.0257  0.3679
53819W        W96913  33.493  29.276  22.535  0.0419  0.3033  0.0795
53820W        W96914  32.972  29.906  23.162  0.0156 -0.4844  0.2053
53821W        W96915  33.435  29.691  19.864  0.1603 -0.2645 -0.0017
53822W        W96916   0.451  30.718  21.893  0.2422 -0.0530 -0.2508
53823W        W96917  33.015  31.306  20.805  0.1766  0.0725  0.0249
53824W        W96918  33.135  28.970  24.162 -0.0113  0.0280 -0.1148
53825W        W96919  33.001  30.819  19.812 -0.0432 -0.0281  0.0287
53826W        W96920  32.869  33.050  20.315  0.4178 -0.1160 -0.1456
53827W        W96921  33.745  31.388  22.668 -0.1004  0.2034 -0.2066
53828W        W96922  33.891  30.583  20.027 -0.1171  0.0079  0.2260
53829W        W96923  33.930  30.948  23.960 -0.1010  0.0508 -0.1987
53830W        W96924  32.769  30.570  20.181  0.1229 -0.1434 -0.1370
53831W        W96925  33.275  32.699  20.133  0.2056  0.1589  0.0004
53832W        W96926  32.960  31.021  20.279  0.1450  0.0307  0.1151
53833W        W96927  33.987  32.295  20.774  0.1088 -0.0726 -0.1022
53834W        W96928  33.697  30.520  24.098  0.1702  0.0411 -0.0005
53835W        W96929  32.842  29.722  21.315  0.3086 -0.1372 -0.1481
53836W        W96930  33.708  30.077  22.351 -0.0446  0.0282 -0.2569
53837W        W96931  33.334  30.993  23.801 -0.0512 -0.0155  0.0633
53838W        W96932   0.000  31.342  22.969 -0.2579  0.1488 -0.1700
53839W        W96933  34.084  30.853  23.383  0.2529  0.1913 -0.1968
53840W        W96934  32.931  30.331  22.857  0.1927  0.0529  0.1216
53841W        W96935  34.250  29.993  23.184 -0.1176 -0.0580 -0.2816
53842W        W96936   0.229  30.536  19.750 -0.2580  0.0845 -0.1526
53843W        W96937  31.892  32.350  18.775  0.0493  0.0007 -0.3174
53844W        W96938  34.550  29.957  23.627  0.1925 -0.1821 -0.0062
53845W        W96939  33.580  30.922  21.241  0.1394  0.1638 -0.2543
53846W        W96940   0.954  29.208  23.817 -0.1060 -0.0916  0.1834
53847W        W96941  33.624  30.755  22.996 -0.1267 -0.0963 -0.1364
53848W        W96942  33.012  31.558  23.199 -0.4255  0.1662 -0.0022
53849W        W96943   1.420  30.135  24.402  0.1702 -0.1529 -0.2827
53850W        W96944  34.129  32.515  21.196 -0.0175  0.2144 -0.2521
53851W        W96945  33.679  30.599  19.622 -0.0347  0.4906 -0.0338
53852W        W96946  33.220  30.226  24.412 -0.1636  0.2398 -0.1602
53853W        W96947  33.170  30.832  22.706  0.0583  0.0116 -0.2844
53854W        W96948  33.424  31.660  19.859  0.0452 -0.1330 -0.0556
53855W        W96949  33.949  31.516  20.254 -0.1700  0.1021  0.1344
53856W        W96950  32.190  31.706  20.797  0.2905  0.1260  0.3641
53857W        W96951  32.472  30.479  20.793 -0.2791  0.0242  0.1090
53858W        W96952  33.067  31.535  19.300 -0.0307  0.0143 -0.0614
53859W        W96953  33.541  30.469  21.469  0.0523 -0.1598 -0.0289
53860W        W96954  34.051  29.678  23.590 -0.1648 -0.3379  0.3354
53861W        W96955  34.034  31.609  21.868  0.2285  0.1712 -0.0631
53862W        W96956   0.041  31.562  25.333 -0.1410  0.2219  0.0561
53863W        W96957  32.990  30.719  20.973  0.0797  0.0746 -0.0491
53864W        W96958   0.383  30.259  22.045 -0.1406 -0.3996 -0.2948
53865W        W96959  32.283  32.435  20.461  0.0192  0.2147  0.0667
53866W        W96960  34.119  31.195  19.788 -0.0543  0.0565 -0.0953
53867W        W96961  34.655  29.867  21.941 -0.0695  0.2252 -0.1117
53868W        W96962   0.316  30.998  24.130  0.1099  0.3262  0.0694
53869W        W96963  33.363  29.568  21.599 -0.2642  0.0919  0.0150
53870W        W96964  32.825  28.949  23.175 -0.1252 -0.2851  0.3924
53871W        W96965  33.628  29.165  21.723 -0.1219  0.3445  0.1217
53872W        W96966  34.504  31.381  24.047  0.2587  0.0498  0.0485
53873W        W96967  33.712  32.224  24.499  0.0166  0.2393  0.0749
53874W        W96968  34.225  30.281  21.766  0.1430  0.2282  0.0815
53875W        W96969  32.376  30.423  21.699 -0.1172 -0.0921  0.0156
53876W        W96970  34.153  29.785  21.705 -0.0232  0.1062  0.0529
53877W        W96971   0.224  29.843  22.389  0.0926 -0.0621 -0.0365
53878W        W96972  32.551  32.809  24.134  0.2409  0.3300 -0.0416
53879W        W96973  34.341  31.217  20.263  0.0519 -0.1490  0.2176
53880W        W96974  34.002  30.453  23.027 -0.2908  0.0907  0.0982
53881W        W96975   0.699  29.937  22.527 -0.0591 -0.1503 -0.0033
53882W        W96976  34.493  28.761  24.253 -0.1772 -0.0749  0.1547
53883W        W96977  32.680  30.323  23.992 -0.2353  0.1090  0.1502
53884W        W96978  33.790  30.899  24.520  0.2318 -0.1211 -0.2359
53885W        W96979  33.357  28.708  20.873 -0.0985 -0.2477 -0.0615
53886W        W96980   0.470  31.574  23.215 -0.0081 -0.2753  0.0466
53887W        W96981   0.041  31.119  21.999 -0.0610 -0.3347  0.0041
53888W        W96982  34.510  30.496  23.440 -0.3965  0.1256  0.0211
53889W        W96983  33.538  32.040  20.933 -0.2043  0.0751  0.3095
53890W        W96984  33.489  30.822  21.753 -0.2260  0.0061  0.3049
53891W        W96985  33.574  30.586  23.494  0.0636  0.3279  0.3808
53892W        W96986   0.359  29.856  22.924 -0.0199 -0.0267  0.2733
53893W        W96987  32.926  28.240  24.858 -0.1072 -0.1466  0.0216
53894W        W96988  32.178  30.327  21.223  0.1754  0.1571  0.3488
53895W        W96989  34.370  30.955  20.671 -0.1857 -0.2074 -0.1022
53896W        W96990  34.659  31.400  21.147  0.2061  0.0766  0.2931
53897W        W96991  31.114  30.554  23.157 -0.1265 -0.0127 -0.1385
53898W        W96992  32.788  32.594  24.603  0.1031  0.0747 -0.1039
53899W        W96993  34.160  30.130  20.232 -0.0730 -0.1757  0.2578
53900W        W96994  34.423  31.621  20.782 -0.0211 -0.1547 -0.2851
53901W        W96995   1.147  31.693  22.758  0.0262  0.3307  0.0311
53902W        W96996   0.491  29.868  20.848 -0.1650 -0.4342  0.0014
53903W        W96997  33.355  31.297  20.241  0.2674  0.0686 -0.0120
53904W        W96998  34.537  31.999  22.500  0.1552 -0.2063 -0.1006
53905W        W96999  33.022  31.630  24.503 -0.2514 -0.0628  0.1371
53906W        W97000  32.786  32.490  20.638  0.1883 -0.0305  0.1995
53907W        W97001   0.790  31.161  22.356 -0.0682  0.2574 -0.2487
53908W        W97002   0.308  30.520  23.264 -0.1704 -0.1639 -0.0481
53909W        W97003  32.906  31.129  22.337 -0.0939 -0.0961  0.0107
53910W        W97004  32.906  31.249  23.671 -0.1085  0.3824  0.0145
53911W        W97005  33.280  29.843  22.193 -0.0799 -0.0475 -0.0033
53912W        W97006  33.121  32.193  24.565  0.1896  0.3940 -0.1802
53913W        W97007  31.929  31.270  22.634 -0.1152 -0.3139  0.0652
53914W        W97008   0.357  32.863  21.379 -0.0211  0.1129  0.1503
53915W        W97009  34.597  30.840  20.002  0.2035 -0.1676  0.0342
53916W        W97010  32.926  32.433  21.921  0.0025 -0.0793  0.1288
53917W        W97011  33.571  30.979  19.914 -0.0246 -0.1410 -0.0259
53918W        W97012  32.691  32.304  20.048 -0.1493 -0.0289 -0.1383
53919W        W97013  33.789  30.016  22.888  0.2026 -0.0333  0.0593
53920W        W97014  34.504  29.922  21.392  0.2267 -0.2560 -0.2005
53921W        W97015  34.184  30.087  24.048  0.4276 -0.1292  0.4017
53922W        W97016  31.470  32.234  22.312 -0.0405  0.1876  0.3188
53923W        W97017  33.308  30.071  21.326  0.1582 -0.0700  0.1431
53924W        W97018   0.020  30.742  20.984  0.3507  0.2953 -0.2318
53925W        W97019   0.778  31.688  19.676  0.2865  0.1880 -0.2711
53926W        W97020  34.148  33.642  22.761  0.0978  0.1462  0.3391
53927W        W97021  33.621  32.271  23.071  0.1076 -0.0475 -0.0718
53928W        W97022  34.236  31.601  21.332  0.0491 -0.2391  0.0356
53929W        W97023  32.486  29.736  20.431  0.2426 -0.1307  0.3111
53930W        W97024  33.362  30.372  22.698  0.1907  0.0075 -0.1384
53931W        W97025  33.925  29.581  22.565 -0.1601  0.0117 -0.0374
53932W        W97026  33.643  30.031  24.076  0.0162 -0.1773  0.2699
53933W        W97027  33.782  30.416  20.538  0.0945 -0.1044 -0.0742
53934W        W97028  32.871  29.563  21.806  0.1857 -0.0769 -0.0548
53935W        W97029  32.693  31.416  20.477 -0.1456 -0.0140  0.3479
53936W        W97030   1.257  29.921  23.216 -0.1184 -0.2738 -0.1797
53937W        W97031  32.983  28.625  22.173  0.2222  0.1098 -0.1314
53938W        W97032  34.137  33.091  20.437  0.1259  0.1217 -0.1219
53939W        W97033  32.590  30.931  21.709  0.2429 -0.2053  0.1180
53940W        W97034   0.796  29.535  21.186 -0.1548  0.1549  0.2155
53941W        W97035  34.097  30.393  22.403  0.0652  0.0569 -0.1028
53942W        W97036  34.567  33.279  20.661 -0.1369 -0.2085  0.0993
53943W        W97037  33.558  32.609  19.149  0.2004 -0.1112  0.0719
53944W        W97038  33.119  31.524  22.648 -0.4380  0.0074  0.1569
53945W        W97039  34.263  32.854  24.663  0.1593  0.1027  0.0180
53946W        W97040  32.395  30.472  19.868 -0.0271  0.0120  0.1804
53947W        W97041   1.435  30.319  23.574 -0.1192 -0.0650 -0.1379
53948W        W97042  34.300  31.216  22.246  0.1887 -0.1043 -0.1639
53949W        W97043  34.563  32.772  21.943  0.0587  0.1168  0.0106
53950W        W97044  33.983  30.752  20.922 -0.3533 -0.0833  0.0404
53951W        W97045  33.285  29.319  22.953  0.2243 -0.1394 -0.0248
53952W        W97046   0.269  30.618  23.733  0.1305  0.1789 -0.2540
53953W        W97047  34.287  30.517  18.537 -0.0664 -0.2018 -0.0166
53954W        W97048  31.364  31.523  20.589  0.0362  0.4086 -0.2650
53955W        W97049  33.385  31.102  22.304  0.0361 -0.1801 -0.1023
53956W        W97050  34.335  28.245  24.044  0.2673 -0.5093 -0.1068
53957W        W97051  32.465  29.937  21.498  0.0290  0.0816  0.1711
53958W        W97052  33.466  31.354  21.858  0.2015  0.3961  0.0943
53959W        W97053  33.739  29.644  22.105  0.0874 -0.0053  0.3629
53960W        W97054  32.182  29.949  20.844  0.2095 -0.0402 -0.1254
53961W        W97055  31.916  29.477  21.720  0.0744 -0.2534  0.3065
53962W        W97056  34.299  29.123  21.211  0.0846  0.0513  0.0477
53963W        W97057  33.029  31.043  18.654  0.2102 -0.3099  0.0386
53964W        W97058   0.616  29.738  24.659  0.1980  0.0094 -0.2222
53965W        W97059   0.760  29.799  23.733  0.0657  0.1101  0.0667
53966W        W97060  31.915  29.995  21.501 -0.0488 -0.0164  0.1185
53967W        W97061   0.973  32.188  22.950 -0.1856  0.2540 -0.1233
53968W        W97062   1.344  30.759  23.290  0.0286  0.4726 -0.1408
53969W        W97063  34.235  31.496  22.714 -0.4948 -0.0568  0.1941
53970W        W97064  32.653  29.775  23.642  0.2153  0.4275  0.0164
53971W        W97065  34.077  31.026  22.939  0.2915 -0.2370 -0.1816
53972W        W97066  32.366  29.889  24.720  0.0384 -0.3330 -0.1353
53973W        W97067  32.366  30.355  22.762  0.2635  0.0549 -0.4288
53974W        W97068  33.776  30.107  21.838  0.1329  0.2614 -0.0841
53975W        W97069   0.237  31.256  21.529 -0.0270 -0.0558 -0.1986
53976W        W97070  33.394  30.638  20.289 -0.2270 -0.1321 -0.1483
53977W        W97071   1.095  31.726  22.199 -0.0901  0.1707 -0.2675
53978W        W97072   0.900  30.960  20.962 -0.3531  0.2712 -0.4790
53979W        W97073  33.797  31.422  23.182 -0.2045 -0.6033 -0.0357
53980W        W97074  31.986  30.254  23.116  0.3509  0.0748  0.4982
53981W        W97075  34.238  31.061  21.202 -0.2832  0.1168  0.0374
53982W        W97076  33.540  31.418  21.018 -0.2691  0.3820 -0.0367
53983W        W97077  32.882  30.321  21.315 -0.0395 -0.1546 -0.1068
53984W        W97078  33.799  33.945  23.578  0.1176  0.4163  0.3293
53985W        W97079  33.993  32.345  27.567  0.2888 -0.2590  0.1528
53986W        W97080  34.584  29.962  24.278 -0.2258  0.0530 -0.2259
53987W        W97081  33.036  30.667  25.192  0.0974  0.1566 -0.4044
53988W        W97082  33.665  31.164  27.407  0.2720 -0.2785  0.1360
53989W        W97083  34.588  30.560  25.504 -0.0960  0.0513 -0.0274
53990W        W97084  33.586  32.566  27.526  0.1172 -0.0247 -0.4034
53991W        W97085   0.231  30.449  25.004  0.0750 -0.1509 -0.1688
53992W        W97086  33.509  30.074  27.014 -0.2575 -0.1303  0.1306
53993W        W97087  32.762  30.786  24.221 -0.4533 -0.0708  0.0614
53994W        W97088  32.752  31.043  25.683 -0.3726 -0.4081  0.1036
53995W        W97089  34.191  30.169  24.622 -0.0235  0.2079  0.0644
53996W        W97090  32.974  30.605  26.375 -0.0875  0.2743  0.2091
53997W        W97091  34.146  32.805  25.333 -0.0599 -0.3035 -0.1080
53998W        W97092  33.823  30.146  23.482 -0.2384 -0.0300 -0.4552
53999W        W97093  33.976  31.330  26.175  0.0784  0.0359  0.1498
54000W        W97094  33.984  31.437  27.067  0.2761 -0.2176 -0.0874
54001W        W97095   1.685  31.881  26.247  0.1114  0.3810  0.0009
54002W        W97096   0.957  32.493  24.473  0.3406  0.1168  0.0527
54003W        W97097  33.399  32.891  25.225 -0.0749  0.1248  0.0602
54004W        W97098  33.170  31.943  25.277  0.0032  0.0657  0.2787
54005W        W97099   0.018  31.822  26.198  0.0361  0.3935  0.1107
54006W        W97100  34.388  32.337  27.893  0.0486 -0.1416  0.2811
54007W        W97101  33.758  31.865  23.815  0.4501 -0.0920  0.1027
54008W        W97102  33.993  31.500  27.609 -0.4752  0.0783 -0.0198
54009W        W97103  34.406  32.288  24.719 -0.0800  0.0165 -0.2858
54010W        W97104  33.992  32.150  26.634  0.2852  0.2139  0.0845
54011W        W97105  33.563  32.154  28.485  0.0556 -0.0967 -0.0235
54012W        W97106  31.535  31.361  25.896  0.1609  0.2918 -0.1768
54013W        W97107  33.667  31.414  24.192  0.1318  0.0551  0.1516
54014W        W97108  33.695  29.466  25.128 -0.0968 -0.0960 -0.0170
54015W        W97109   0.167  29.070  25.224  0.1823 -0.0648 -0.0466
54016W        W97110  34.332  32.993  27.040 -0.2664  0.0011  0.1439
54017W        W97111   0.288  31.638  25.801  0.0327  0.0917  0.0973
54018W        W97112  32.913  32.652  27.556 -0.0340  0.0909 -0.0953
54019W        W97113  32.966  31.964  25.783  0.1444  0.1053  0.1315
54020W        W97114  34.524  31.888  25.046 -0.2198  0.2919 -0.0655
54021W        W97115  33.306  31.780  28.688 -0.1259  0.0372  0.0041
54022W        W97116  33.734  30.746  26.343  0.1119 -0.1831 -0.1957
54023W        W97117  34.654  28.278  25.748  0.0767  0.1575 -0.0518
54024W        W97118  33.860  31.959  27.095  0.1440  0.1607  0.0043
54025W        W97119  34.161  32.377  27.072  0.0365 -0.1572  0.0345
54026W        W97120  33.094  30.815  23.276  0.3323 -0.1890 -0.3199
54027W        W97121  34.538  31.149  25.692 -0.5065  0.0286 -0.3395
54028W        W97122  32.665  32.376  26.649  0.1628 -0.2376 -0.1099
54029W        W97123  33.313  31.787  27.190  0.2141  0.0995 -0.0940
54030W        W97124   0.279  33.432  27.135 -0.4249 -0.1211  0.1993
54031W        W97125  33.394  31.968  23.447 -0.1377  0.1628 -0.0733
54032W        W97126  32.106  31.970  25.483 -0.1789 -0.0848  0.2997
54033W        W97127  34.093  31.956  24.717 -0.0841  0.0994  0.1507
54034W        W97128  30.918  29.953  25.991 -0.0530 -0.3330  0.2502
54035W        W97129  32.618  32.272  27.420  0.0333 -0.0508 -0.1103
54036W        W97130  33.660  31.051  25.905  0.1066 -0.2365  0.0038
54037W        W97131  34.208  31.033  24.897  0.0262 -0.1511 -0.1796
54038W        W97132  31.945  31.356  24.994 -0.0128 -0.1027 -0.0429
54039W        W97133  34.233  30.879  25.373 -0.0226 -0.0046  0.0432
54040W        W97134  33.537  30.607  27.220  0.0123 -0.1246  0.0579
54041W        W97135  32.440  31.413  25.073  0.0340 -0.1299  0.1171
54042W        W97136  32.259  31.027  25.388  0.0349  0.1590  0.1180
54043W        W97137  34.232  29.618  24.714  0.0904 -0.1129  0.0715
54044W        W97138  33.210  31.997  24.089 -0.0920 -0.0988 -0.0882
54045W        W97139   0.225  30.426  27.511  0.4382 -0.1113  0.0412
54046W        W97140  33.763  29.955  25.298 -0.0301  0.0444  0.0084
54047W        W97141  32.554  32.129  25.319 -0.0112  0.3644 -0.1479
54048W        W97142  34.333  32.655  27.463  0.2945  0.0764  0.0180
54049W        W97143  33.572  30.696  25.543 -0.1172  0.1211 -0.0646
54050W        W97144  33.587  33.210  27.816  0.1717  0.0468  0.1730
54051W        W97145  33.482  29.711  23.213  0.3210  0.1826 -0.0019
54052W        W97146  33.877  32.302  26.148  0.1330  0.4866  0.0353
54053W        W97147  31.051  31.508  25.590  0.2230 -0.3121  0.0359
54054W        W97148   0.698  32.233  25.443  0.4915 -0.0347  0.2860
54055W        W97149  33.151  32.248  27.522 -0.1505 -0.0340 -0.1217
54056W        W97150  34.687  30.456  24.513  0.0264  0.2040  0.2428
54057W        W97151  33.071  33.696  25.807 -0.2418 -0.5256 -0.1225
54058W        W97152  31.978  33.198  26.485 -0.0387  0.3869 -0.0233
54059W        W97153  34.661  31.019  25.119  0.1637 -0.1120  0.0866
54060W        W97154   1.174  31.931  27.182  0.4019 -0.2596  0.0825
54061W        W97155  32.314  32.078  27.034  0.0877  0.0138 -0.0607
54062W        W97156   1.025  30.556  26.938  0.0018 -0.1488  0.0986
54063W        W97157   0.700  30.317  23.869  0.3982 -0.4728  0.1021
54064W        W97158  32.788  32.409  25.705  0.4663 -0.2203 -0.0333
54065W        W97159  33.940  30.353  26.149 -0.0309  0.2811  0.0270
54066W        W97160  33.453  32.111  24.923 -0.1951  0.1449  0.2196
54067W        W97161   0.510  31.306  27.234 -0.0440  0.1593 -0.0384
54068W        W97162  33.528  31.390  26.360 -0.0059 -0.0552  0.0386
54069W        W97163  33.456  34.554  26.715  0.0786 -0.0931  0.0537
54070W        W97164   0.496  30.819  27.182  0.1833  0.1495  0.1974
54071W        W97165  32.361  32.070  25.927 -0.0639 -0.0509  0.1713
54072W        W97166  34.465  31.868  25.563  0.0122 -0.0079  0.0672
54073W        W97167  33.074  30.022  26.333 -0.0651  0.0736  0.0810
54074W        W97168  33.824  31.691  26.680  0.0919  0.0048 -0.1164
54075W        W97169  34.363  32.466  23.210 -0.0301 -0.2135  0.0040
54076W        W97170  34.339  32.172  24.209 -0.0193  0.0388 -0.2507
54077W        W97171  33.900  31.853  25.650  0.4105 -0.1754 -0.1630
54078W        W97172  32.765  30.708  23.702  0.3766 -0.0505 -0.3018
54079W        W97173  32.010  30.373  24.164 -0.3141  0.1387  0.0266
54080W        W97174  34.514  31.046  26.786  0.3881 -0.0649  0.0940
54081W        W97175   1.656  30.624  27.943 -0.1259  0.0144  0.1202
54082W        W97176  33.309  33.426  26.397 -0.1805  0.0749 -0.0881
54083W        W97177  33.881  32.314  28.125 -0.1008 -0.3645  0.1977
54084W        W97178  32.288  30.651  23.892 -0.0139  0.0632 -0.2404
54085W        W97179  34.169  29.214  25.051 -0.1516  0.0023 -0.0165
54086W        W97180  34.347  32.113  26.111 -0.0815  0.0481  0.3527
54087W        W97181  34.209  30.105  25.147 -0.2340 -0.1872 -0.0752
54088W        W97182  34.231  31.481  25.230 -0.0153  0.0358  0.1770
54089W        W97183  32.940  30.499  27.153  0.3196  0.2236  0.3930
54090W        W97184  33.235  29.561  26.039  0.1070 -0.1114  0.2289
54091W        W97185  33.967  29.729  24.294 -0.0848  0.0179  0.1489
54092W        W97186  34.425  31.124  26.218  0.1395  0.3672 -0.2158
54093W        W97187  33.396  31.550  27.791  0.0145  0.0950 -0.1030
54094W        W97188   0.299  33.157  27.847  0.0744  0.1207  0.3701
54095W        W97189  33.016  32.817  26.730  0.0944 -0.2288  0.0153
54096W        W97190  32.956  31.490  25.396  0.0641  0.0082  0.0086
54097W        W97191   0.800  31.679  25.579 -0.3208  0.2285 -0.1522
54098W        W97192  34.279  30.695  26.465  0.1015  0.0631  0.3430
54099W        W97193  32.355  31.991  26.541  0.1017 -0.2939 -0.1098
54100W        W97194   0.261  31.733  24.818  0.0404  0.0286  0.1714
54101W        W97195  34.165  33.323  25.469  0.1839  0.0810  0.2438
54102W        W97196   1.206  29.897  25.880  0.2871 -0.2521  0.1517
54103W        W97197  32.930  30.038  25.834  0.3679  0.1945  0.0327
54104W        W97198  32.767  32.153  26.212 -0.0614 -0.1354  0.3278
54105W        W97199  34.150  30.598  27.947  0.0685  0.2762 -0.0614
54106W        W97200  32.599  29.854  26.199 -0.0917  0.5694  0.3549
54107W        W97201  34.089  30.785  25.950  0.4131 -0.1399 -0.2689
54108W        W97202  34.142  30.582  24.288  0.2206 -0.1575 -0.0112
54109W        W97203  32.942  31.307  26.527 -0.1151 -0.0419  0.0022
54110W        W97204   0.197  30.869  24.594  0.0986  0.0701 -0.0965
54111W        W97205  34.352  32.031  27.414  0.1982  0.2271  0.0814
54112W        W97206  34.424  30.273  26.331 -0.2945  0.0255 -0.0268
54113W        W97207  34.132  31.919  27.820 -0.3326 -0.1076  0.4521
54114W        W97208  33.132  30.033  27.368 -0.1883 -0.1666  0.2361
54115W        W97209  32.216  31.871  25.024  0.1706 -0.0714  0.0004
54116W        W97210  34.207  28.819  24.618  0.0497 -0.0765  0.1137
54117W        W97211   0.300  32.939  24.104 -0.0443 -0.0883 -0.1086
54118W        W97212  32.086  29.886  26.254  0.2968  0.0770 -0.0699
54119W        W97213  34.473  33.517  27.452 -0.0660 -0.2855  0.0845
54120W        W97214   0.010  30.135  23.147  0.1206 -0.3495 -0.0416
54121W        W97215   0.224  32.245  25.807  0.0546 -0.1785 -0.2548
54122W        W97216  32.764  31.850  28.158 -0.1879  0.0619  0.4217
54123W        W97217  33.752  29.587  25.636 -0.3037 -0.1871  0.2044
54124W        W97218  31.958  32.858  24.201  0.1134 -0.2493 -0.0199
54125W        W97219  32.004  32.115  24.610  0.0216  0.3253  0.2286
54126W        W97220  32.541  31.623  26.291  0.0181  0.1815 -0.1172
54127W        W97221  34.494  32.380  25.253 -0.0479 -0.0678  0.1539
54128W        W97222  33.700  31.822  26.225 -0.2121  0.1002 -0.0547
54129W        W97223  34.347  31.532  25.950 -0.2887 -0.0292  0.1735
54130W        W97224  32.842  32.769  26.150  0.0194  0.0560 -0.0929
54131W        W97225  31.903  31.817  27.837 -0.2392  0.0171  0.2709
54132W        W97226  33.879  30.473  25.072  0.2435  0.4591  0.0655
54133W        W97227  32.979  33.242  27.720 -0.1582 -0.0758  0.2714
54134W        W97228  32.230  30.738  26.718 -0.1869  0.0235 -0.1503
54135W        W97229  33.481  32.595  24.775 -0.1499 -0.0100 -0.4889
54136W        W97230  34.068  30.528  23.751  0.0727 -0.2199 -0.1635
54137W        W97231  33.253  32.394  26.272 -0.0177  0.0078  0.1694
54138W        W97232  32.247  33.652  24.784  0.0286 -0.0129  0.1830
54139W        W97233  32.849  32.395  24.134 -0.2894 -0.2684 -0.3898
54140W        W97234  33.290  30.506  26.768 -0.1310  0.0342  0.1009
54141W        W97235   0.428  29.975  23.430 -0.1612  0.0716 -0.0013
54142W        W97236  33.518  32.086  25.811  0.1532 -0.1527 -0.1378
54143W        W97237  31.213  32.864  26.859 -0.2998 -0.0489 -0.2376
54144W        W97238  33.653  30.394  24.577 -0.1343 -0.2255 -0.1683
54145W        W97239   0.194  32.229  24.856 -0.0196  0.2723  0.0292
54146W        W97240   0.468  31.056  23.402  0.0676 -0.3510 -0.1471
54147W        W97241  33.985  32.746  26.012  0.0471  0.1460  0.0440
54148W        W97242  32.862  33.246  25.955 -0.1664  0.0451 -0.0342
54149W        W97243   0.798  32.418  26.406 -0.0296 -0.1937 -0.1710
54150W        W97244  32.998  29.973  23.957  0.2155 -0.2061 -0.2143
54151W        W97245  33.619  30.806  27.954  0.1162 -0.2079 -0.0456
54152W        W97246   0.305  31.973  25.334  0.0720 -0.1643  0.0609
54153W        W97247  32.334  31.280  25.976  0.2883  0.2427  0.1457
54154W        W97248   0.507  29.306  23.932 -0.1596  0.3983  0.2660
54155W        W97249  31.920  30.709  25.192 -0.0248 -0.0700  0.1045
54156W        W97250  33.247  32.445  25.530  0.0622 -0.4613 -0.1653
54157W        W97251  34.679  31.450  27.081 -0.1919  0.1608 -0.1865
54158W        W97252  33.027  30.638  25.732 -0.0382 -0.0795  0.0890
54159W        W97253   0.396  33.502  24.301  0.0609 -0.3751  0.0708
54160W        W97254  32.885  31.127  25.096  0.0855 -0.1426  0.2095
54161W        W97255   0.748  29.874  25.509  0.1186 -0.0899 -0.0817
54162W        W97256  33.192  31.529  24.963  0.1016 -0.0196  0.1796
54163W        W97257  30.390  33.869  25.506  0.1496 -0.0554 -0.2453
54164W        W97258  34.019  31.771  24.259 -0.3984  0.0180  0.0805
54165W        W97259   0.676  32.264  28.501 -0.1875 -0.2896  0.1448
54166W        W97260   0.352  33.767  28.184 -0.2463  0.4780 -0.2458
54167W        W97261  34.419  30.566  24.967 -0.1176  0.1712 -0.0852
54168W        W97262  34.287  32.482  26.367  0.2580 -0.0977 -0.0425
54169W        W97263   0.559  31.991  26.345 -0.0797 -0.2103 -0.1356
54170W        W97264  33.948  32.444  24.895 -0.0176 -0.3244 -0.0992
54171W        W97265   0.509  30.629  26.055 -0.2292  0.2331 -0.1128
54172W        W97266   0.229  31.208  26.044  0.0317 -0.0926  0.0597
54173W        W97267  33.304  31.837  28.196  0.1634 -0.2110  0.3526
54174W        W97268  32.919  30.608  24.706  0.2536 -0.0400 -0.0908
54175W        W97269  32.639  31.606  23.997 -0.1978 -0.4060 -0.0108
54176W        W97270  33.252  32.739  27.175  0.1666  0.0493  0.3072
54177W        W97271  34.570  28.318  26.762  0.0428 -0.0077  0.0366
54178W        W97272  32.381  30.614  25.624  0.1486 -0.1270 -0.0428
54179W        W97273  33.987  31.162  26.648 -0.1240  0.1149  0.2045
54180W        W97274  33.503  30.832  24.926 -0.1291  0.1002 -0.4073
54181W        W97275  31.978  30.946  25.778 -0.0843 -0.0350  0.4122
54182W        W97276  31.012  29.425  25.902 -0.0114 -0.2696 -0.0549
54183W        W97277  33.356  30.318  24.957 -0.0813 -0.0117  0.1686
54184W        W97278  33.459  31.783  24.471 -0.1333 -0.1327  0.1798
54185W        W97279  34.480  31.596  27.613  0.4494  0.3108 -0.3107
54186W        W97280   0.082  31.496  26.545 -0.1382  0.0341 -0.1126
54187W        W97281  31.473  30.345  24.028  0.2029  0.0757 -0.2199
54188W        W97282   0.727  31.555  26.052  0.2379  0.2539  0.2474
54189W        W97283  33.118  31.776  26.196 -0.0803  0.0809 -0.1414
54190W        W97284  34.583  32.643  26.784  0.2556 -0.4825 -0.1672
54191W        W97285  30.901  29.626  26.395  0.0808 -0.3680  0.0911
54192W        W97286  33.962  32.993  27.433  0.1164 -0.2506  0.4009
54193W        W97287  33.157  29.633  27.111  0.0165  0.0176  0.1696
54194W        W97288   1.727  32.456  28.409  0.0098 -0.0107 -0.2724
54195W        W97289  33.981  31.283  25.640  0.0090 -0.0511  0.1228
54196W        W97290  33.769  31.418  24.708  0.2447 -0.0117 -0.2181
54197W        W97291  33.198  29.418  25.493 -0.0054 -0.2400 -0.1720
54198W        W97292   1.365  31.640  27.781 -0.1396 -0.0546 -0.3523
54199W        W97293  34.137  31.246  24.426  0.1449  0.2602 -0.0035
54200W        W97294   0.139  33.604  26.573 -0.2731 -0.1271 -0.0604
54201W        W97295  33.829  31.107  25.187 -0.3066 -0.5431  0.0541
54202W        W97296  34.569  30.414  24.029 -0.2003 -0.1620  0.1290
54203W        W97297  34.192  31.704  26.413 -0.1303 -0.0630 -0.1562
54204W        W97298  33.243  30.216  25.455  0.0717  0.2343  0.1803
54205W        W97299  33.578  32.025  27.661 -0.3555 -0.3226 -0.1385
54206W        W97300  33.671  31.217  29.511 -0.1384 -0.2741 -0.1035
54207W        W97301   0.143  31.044  27.464 -0.0367 -0.1976 -0.1392
54208W        W97302  33.506  30.845  28.432  0.2404 -0.2835 -0.2003
54209W        W97303  34.684  29.009  30.218 -0.0691 -0.3032 -0.0937
54210W        W97304  32.710  30.512  31.249 -0.0644  0.2647 -0.0160
54211W        W97305  33.606  31.811  29.716  0.1515 -0.0928  0.0065
54212W        W97306  33.110  27.569  27.597  0.0634  0.1440  0.2290
54213W        W97307  34.320  29.991  29.855 -0.2776  0.0814 -0.0636
54214W        W97308   0.481  32.480  29.309  0.0577  0.2306 -0.0260
54215W        W97309  33.603  30.271  29.743 -0.1019  0.1005 -0.1015
54216W        W97310  34.399  30.255  28.629  0.2520  0.1103 -0.1534
54217W        W97311   0.476  29.573   0.304  0.1994 -0.1087  0.1961
54218W        W97312  34.091  31.719  29.770 -0.0443  0.0469 -0.1942
54219W        W97313  33.985  30.967  28.322  0.3417 -0.1547 -0.1251
54220W        W97314  32.804  30.903  30.781  0.2720  0.1288 -0.1232
54221W        W97315  32.363  30.861  29.395 -0.1278 -0.0520  0.2228
54222W        W97316  33.785  33.715  29.364 -0.1142  0.2916  0.1557
54223W        W97317  34.248  32.759  29.026  0.0171  0.1552 -0.0786
54224W        W97318  33.550  31.579  29.103  0.1099  0.3805  0.0989
54225W        W97319  33.192  32.589  29.325  0.0401 -0.0629 -0.0032
54226W        W97320  34.422  32.307  28.672  0.2237 -0.0582  0.0133
54227W        W97321  34.297  33.579  30.560 -0.0693 -0.1583  0.1307
54228W        W97322  32.809  33.806  27.844 -0.1306  0.2666 -0.1352
54229W        W97323  34.549  32.612  30.700 -0.1138 -0.0970  0.2939
54230W        W97324  34.223  32.697  28.339  0.2124 -0.1832  0.1708
54231W        W97325   0.126  33.033  28.813 -0.1623  0.0072 -0.0430
54232W        W97326  33.170  31.056  29.930 -0.1971  0.0836  0.0683
54233W        W97327  31.443  31.670  28.817 -0.1350 -0.1717 -0.1530
54234W        W97328  33.440  33.917  25.559  0.0429  0.0834 -0.0450
54235W        W97329  34.574  30.240  27.869 -0.1030 -0.2837  0.0791
54236W        W97330  33.508  29.446  29.278 -0.2767 -0.2084 -0.0329
54237W        W97331  34.102  33.363  29.684 -0.1449  0.0880 -0.0915
54238W        W97332   0.270  29.587  31.395  0.0533  0.2103 -0.0971
54239W        W97333  32.813  32.137  29.201  0.0179  0.0168  0.0249
54240W        W97334  33.174  29.986  28.295 -0.0777  0.0792  0.1700
54241W        W97335  32.190  30.470  28.706 -0.3406 -0.3481 -0.1228
54242W        W97336  32.275  30.737  29.867 -0.3935 -0.0141  0.2951
54243W        W97337  34.112  30.823   0.236 -0.1238  0.2510  0.0202
54244W        W97338  33.690  30.394  27.770 -0.3224  0.3714  0.4205
54245W        W97339  34.074  31.973  30.647  0.1015  0.2383  0.0471
54246W        W97340  33.662  30.726  30.062  0.1740 -0.2621 -0.2023
54247W        W97341  33.914  32.483  28.667  0.5232 -0.0388 -0.1344
54248W        W97342  34.195  31.047  27.858 -0.0642  0.2563  0.0628
54249W        W97343  34.531  32.832  29.469  0.0855 -0.1363 -0.1021
54250W        W97344   0.406  30.055  31.384  0.2091 -0.0990  0.0056
54251W        W97345  34.214  32.375  30.380  0.1059  0.1145  0.2254
54252W        W97346  33.547  33.223  28.412 -0.1731 -0.1118  0.0721
54253W        W97347  32.751  30.205  28.068  0.2415  0.0559 -0.0913
54254W        W97348  32.491  33.569  29.043  0.1751  0.1089  0.2739
54255W        W97349  32.770  30.815  30.246  0.1042 -0.2576 -0.0584
54256W        W97350  33.465  33.066  29.673  0.0755 -0.0464 -0.0657
54257W        W97351   0.715  31.045  30.253  0.0599 -0.1165  0.1016
54258W        W97352  32.372  32.780  28.615 -0.1440  0.3902 -0.0291
54259W        W97353  33.567  30.126  30.219 -0.0298  0.0218  0.0710
54260W        W97354  33.872  30.659  29.553  0.3870 -0.0371 -0.0656
54261W        W97355   0.464  29.202  30.061 -0.1742  0.2949 -0.1396
54262W        W97356  34.123  30.219  29.484 -0.0866 -0.0572  0.1949
54263W        W97357  34.551  30.074  29.144  0.3763  0.0093  0.0373
54264W        W97358   0.207  32.187  28.762  0.3935 -0.1676  0.0450
54265W        W97359  31.308  30.925  27.618  0.1946 -0.1567  0.1075
54266W        W97360   1.483  29.272  30.072  0.1058  0.1053 -0.1373
54267W        W97361  32.667  29.754  29.133  0.1515  0.1738  0.1161
54268W        W97362  32.365  31.812  29.079 -0.0665  0.0093 -0.1289
54269W        W97363  32.890  31.855  27.631  0.0582  0.2738 -0.0169
54270W        W97364  34.677  29.736  28.044 -0.0539 -0.0034  0.2498
54271W        W97365  34.073  32.675  29.619  0.0644  0.1688 -0.4062
54272W        W97366  33.562  30.081  26.374  0.0212 -0.0775 -0.0684
54273W        W97367  31.904  32.058  28.891  0.0511 -0.1671 -0.2158
54274W        W97368  33.230  31.158  29.259  0.0671 -0.1482  0.1547
54275W        W97369  33.574  30.584  30.582  0.3411  0.0837 -0.1914
54276W        W97370  33.007  32.126  30.886 -0.2435 -0.0309  0.1744
54277W        W97371   0.071  31.399  28.541  0.1277 -0.2622 -0.0680
54278W        W97372  33.098  32.115  29.625 -0.1391  0.0556 -0.3067
54279W        W97373  33.873  32.488  30.786  0.1238  0.0513 -0.1190
54280W        W97374   0.752  32.679  29.622  0.3151 -0.3135  0.1206
54281W        W97375  34.083  31.167  29.809  0.2679  0.1567 -0.0775
54282W        W97376  33.234  30.669  28.856  0.0654  0.1730  0.1375
54283W        W97377   0.777  29.550  31.322 -0.0923 -0.2566 -0.3145
54284W        W97378  33.298  31.342  26.861  0.0712  0.1862  0.0307
54285W        W97379  32.716  32.868  27.990  0.2079 -0.1017  0.3015
54286W        W97380   0.048  30.713  31.910 -0.1017  0.0314 -0.2021
54287W        W97381  34.297  31.821  26.985  0.0461  0.1605  0.3861
54288W        W97382  34.517  31.266  30.989 -0.2026  0.1867  0.1017
54289W        W97383  33.667  31.224  30.511  0.0513  0.0225  0.1252
54290W        W97384  32.924  32.596  29.860 -0.0075  0.0205 -0.1619
54291W        W97385   1.414  31.621   0.057 -0.0245 -0.1606  0.1568
54292W        W97386  34.392  33.668  28.882  0.0150  0.2054  0.3758
54293W        W97387  32.830  32.292  27.892  0.0825 -0.2617  0.2409
54294W        W97388   0.696  28.951  29.677 -0.0667  0.0190  0.0353
54295W        W97389  33.230  33.548  30.116  0.0256 -0.2330  0.0921
54296W        W97390  32.962  33.668  28.791  0.3334  0.1543 -0.3157
54297W        W97391  34.393  33.135  28.637  0.0070 -0.0749  0.0070
54298W        W97392  31.480  32.748  29.767  0.0166 -0.0853 -0.1994
54299W        W97393  34.319  31.142  27.402  0.3010  0.0454 -0.1401
54300W        W97394  34.078  31.987  28.474 -0.1428  0.0560  0.1666
54301W        W97395   0.323  29.875  30.089 -0.0019  0.0009 -0.0876
54302W        W97396  34.481  30.601  29.130  0.0337 -0.2633 -0.0166
54303W        W97397  31.082  32.849  28.481 -0.0522  0.1227  0.1878
54304W        W97398  33.802  31.553  31.322 -0.2377  0.3396  0.0731
54305W        W97399  33.975  29.834  30.218  0.2992  0.0157  0.0919
54306W        W97400  34.044  30.392  29.988 -0.0519 -0.1076  0.0168
54307W        W97401  32.881  31.038  28.876 -0.1556  0.3444  0.1041
54308W        W97402  33.772  31.290  27.978 -0.2051 -0.3099 -0.1801
54309W        W97403  33.418  32.348  27.980 -0.0932 -0.0764  0.1167
54310W        W97404   0.340  31.327  29.917  0.1723  0.0144  0.2607
54311W        W97405   0.447  30.196  30.454 -0.0622 -0.0986 -0.0213
54312W        W97406   1.625  29.497  29.648 -0.0290 -0.1291 -0.0466
54313W        W97407  34.485  31.872  28.982  0.3218  0.1717 -0.0481
54314W        W97408   0.257  31.494  30.959  0.1804 -0.0216  0.1021
54315W        W97409  33.388  32.364  31.119 -0.1532 -0.0968  0.0724
54316W        W97410   0.023  32.545  29.085 -0.0093 -0.2545  0.0019
54317W        W97411  32.732  30.534  28.404  0.5569  0.1973  0.0071
54318W        W97412  33.382  33.573  29.575  0.0745  0.0016 -0.2240
54319W        W97413  34.399  30.898  31.607 -0.1988 -0.0516  0.1179
54320W        W97414  33.531  30.374  29.125 -0.1500 -0.2778 -0.2028
54321W        W97415   0.053  32.708  27.894  0.0101  0.0098  0.1917
54322W        W97416  32.716  31.239  29.282 -0.3088  0.1395  0.2048
54323W        W97417  34.685  30.359  29.563  0.1142  0.2170 -0.0262
54324W        W97418  33.844  28.386  29.822 -0.0120  0.0774  0.4372
54325W        W97419   0.010  29.763  29.606  0.0803  0.0414  0.1521
54326W        W97420  33.785  31.659  31.871  0.3519 -0.0080 -0.2128
54327W        W97421  34.420  29.067  28.805 -0.0970 -0.1767 -0.2953
54328W        W97422   0.598  31.162  29.500  0.0746  0.0418 -0.4121
54329W        W97423  33.597  32.748  28.289  0.1295 -0.1334  0.0179
54330W        W97424  34.631  31.044  30.063 -0.3548  0.2268  0.0067
54331W        W97425   0.819  31.705  27.460 -0.3576  0.0225 -0.2192
54332W        W97426  34.306  31.476  28.663  0.2697  0.3311 -0.0434
54333W        W97427  34.642  30.269  30.660  0.1175  0.1521 -0.0965
54334W        W97428  34.005  30.623  31.378  0.0783  0.2213  0.0113
54335W        W97429  32.714  31.401  30.778  0.1052  0.2341  0.0816
54336W        W97430  32.374  30.157  28.449  0.0903  0.3162  0.2788
54337W        W97431  34.457  30.241  27.282 -0.0913 -0.0264  0.1461
54338W        W97432   1.778  32.841  28.006  0.0130 -0.3083 -0.2495
54339W        W97433  32.793  29.868  27.711 -0.0700 -0.0543 -0.1550
54340W        W97434  32.781  32.299  30.425  0.2140 -0.1981  0.0790
54341W        W97435   0.088  30.564  28.750 -0.0234  0.2315  0.4676
54342W        W97436   0.201  32.629  27.189  0.1063 -0.0607  0.0974
54343W        W97437   0.028  32.344  29.551  0.0771 -0.0633 -0.0517
54344W        W97438   0.989  28.859  27.565  0.1835 -0.0523 -0.1672
54345W        W97439  32.746  33.095  28.537  0.2334 -0.1585  0.0054
54346W        W97440  32.574  34.153  29.811  0.5019 -0.0557  0.1280
54347W        W97441  32.712  31.748  29.505 -0.1467 -0.0978  0.2925
54348W        W97442  33.232  32.366  28.834 -0.0700 -0.2040  0.1746
54349W        W97443  33.673  31.362  29.976  0.0178 -0.0529  0.0631
54350W        W97444  33.419  30.745  29.603  0.0115  0.1880 -0.0301
54351W        W97445  33.819  31.931  28.901  0.4459  0.1048  0.0196
54352W        W97446  33.212  30.507  30.057  0.1731  0.1185  0.4085
54353W        W97447  33.323  30.005  27.826  0.1561 -0.3811  0.1705
54354W        W97448  33.069  32.152  31.452  0.3821  0.1167  0.1506
54355W        W97449  33.473  31.670  30.326  0.0224  0.0632 -0.1715
54356W        W97450  33.969  33.223  28.142 -0.1077 -0.4003  0.0648
54357W        W97451   0.091  30.384  28.294 -0.1863  0.1204  0.1587
54358W        W97452  33.026  32.201  28.409 -0.3295  0.0244 -0.0227
54359W        W97453  32.226  32.864  28.104  0.0664 -0.0025  0.1620
54360W        W97454  33.770  32.911  29.272  0.2934  0.0337 -0.0559
54361W        W97455  32.751  30.514  28.890  0.1143  0.0710 -0.1110
54362W        W97456  34.058  30.774  27.018  0.3074 -0.1684  0.1540
54363W        W97457   0.026  29.448  30.013 -0.0444  0.3337 -0.1199
54364W        W97458  33.165  33.037  30.096 -0.2211  0.2070 -0.0928
54365W        W97459  33.674  32.301  29.653  0.1866 -0.0320  0.0762
54366W        W97460  33.911  31.953  29.365 -0.2468  0.0715 -0.1541
54367W        W97461   2.133  32.210  27.571  0.1839 -0.1088 -0.2396
54368W        W97462  32.163  32.582  29.072 -0.1880  0.0400 -0.1924
54369W        W97463  31.837  31.977  30.267  0.2592 -0.1858  0.0878
54370W        W97464  33.900  33.538  30.093 -0.4246  0.0491 -0.1706
54371W        W97465  33.385  29.348  28.409 -0.2894  0.0766 -0.0186
54372W        W97466  33.546  30.277  31.822 -0.0244 -0.3634 -0.2560
54373W        W97467  34.246  30.724  28.696 -0.0079  0.0376  0.0691
54374W        W97468  34.452  30.726  30.480  0.2714 -0.0877 -0.0822
54375W        W97469  34.185  31.002  29.318  0.2108 -0.1986 -0.0669
54376W        W97470  33.254  30.816  30.931 -0.0923 -0.0530  0.0250
54377W        W97471  33.944  31.257  28.943  0.1199  0.0712 -0.2103
54378W        W97472  34.485  31.573  30.046 -0.1897 -0.0562  0.0960
54379W        W97473  33.629  29.858  27.483  0.1249 -0.0149 -0.2583
54380W        W97474  34.614  31.867  28.425 -0.2316  0.2012  0.1154
54381W        W97475  34.079  30.951  30.259  0.2403  0.0585  0.0734
54382W        W97476   1.355  30.100  29.494 -0.0154 -0.2788 -0.0664
54383W        W97477  33.914  30.351  28.296 -0.4239  0.1217 -0.3638
54384W        W97478  31.949  32.991  28.867  0.0750 -0.1971  0.1554
54385W        W97479   0.470  32.655  28.830  0.1098  0.3948 -0.0749
54386W        W97480  33.767  32.650  30.335 -0.0315 -0.0373 -0.1966
54387W        W97481  34.085  32.028  31.666  0.4315  0.3735  0.1091
54388W        W97482  33.490  32.795  28.852  0.0869  0.1397  0.2051
54389W        W97483  33.201  31.382  30.794  0.2418  0.1239 -0.2756
54390W        W97484  33.773  31.403  28.457  0.2773  0.3096  0.0209
54391W        W97485   0.101  33.561  29.654 -0.1565 -0.1112  0.0555
54392W        W97486  34.328  31.395  28.183  0.0266 -0.2025  0.0214
54393W        W97487   0.761  29.670  28.949  0.3550  0.1608  0.0798
54394W        W97488  32.054  31.481  30.207  0.3815 -0.1182 -0.5317
54395W        W97489  33.166  30.568  27.603 -0.1189 -0.0351 -0.0506
54396W        W97490  33.937  32.962  28.684  0.1480  0.2999 -0.3024
54397W        W97491  32.601  31.003  28.406  0.0337 -0.1886 -0.0915
54398W        W97492  33.842  29.459  30.675  0.0840  0.2570 -0.1462
54399W        W97493  32.755  30.724  31.750 -0.0552 -0.0842 -0.0092
54400W        W97494  32.421  31.322  29.745  0.2081  0.1315  0.1332
54401W        W97495  33.736  29.799  28.334  0.1128  0.3054  0.1265
54402W        W97496  34.170  29.805  28.803  0.2486  0.0077  0.1110
54403W        W97497  33.196  28.729  27.783 -0.0260  0.2084  0.5810
54404W        W97498   1.216  29.729  29.893 -0.1388  0.1478 -0.0276
54405W        W97499  32.390  32.574  27.767  0.0026  0.1030 -0.2116
54406W        W97500  34.604  30.746  31.065  0.0092  0.0609 -0.1755
54407W        W97501   0.159  30.094   0.420  0.0637  0.0578 -0.2271
54408W        W97502  31.866  29.957  27.655  0.0794  0.0286  0.1443
54409W        W97503   0.381  31.676  28.884 -0.0150  0.1131 -0.1165
54410W        W97504  33.958  31.631  30.302 -0.2008  0.0003  0.0547
54411W        W97505  33.445  32.878  31.091  0.1083  0.0476 -0.2598
54412W        W97506  33.256  30.089  30.584 -0.1004  0.0683 -0.0614
54413W        W97507  33.908  31.306   0.221  0.1884  0.0977  0.0990
54414W        W97508  32.435  31.129  31.816 -0.0596  0.2471 -0.2083
54415W        W97509   0.177  32.360  30.275 -0.0384  0.3419  0.2714
54416W        W97510   0.393  31.113  28.983  0.1902  0.0910  0.2920
54417W        W97511  32.755  30.040  29.518  0.0527 -0.0617 -0.1256
54418W        W97512   0.805  31.229  28.719 -0.0171  0.2574 -0.1202
54419W        W97513  34.243  30.245  30.405  0.0922  0.0262  0.0522
54420W        W97514  33.955  30.749  27.530  0.3074  0.1013 -0.3460
54421W        W97515   0.408  33.813  29.945  0.1573  0.1039 -0.0142
54422W        W97516  33.094  29.491  31.253  0.0859 -0.3531 -0.0180
54423W        W97517  34.394  30.700  29.778 -0.0244 -0.2006  0.3526
54424W        W97518   0.047  31.443  29.167  0.1532 -0.0940  0.0755
54425W        W97519  33.627  31.186  31.025  0.1418 -0.2379 -0.0893
54426W        W97520  33.980  34.305  30.258  0.1304  0.1576 -0.0226
54427W        W97521  33.932  31.204  31.682 -0.0102  0.4492 -0.2904
54428W        W97522  33.316  31.480  31.586  0.1839 -0.1763 -0.2099
54429W        W97523  33.908  32.536   0.463 -0.2251  0.0510 -0.3752
54430W        W97524  33.586  32.196   0.640 -0.4162 -0.1842 -0.2465
54431W        W97525  32.961  29.814  31.692  0.0486  0.1445 -0.2291
54432W        W97526  34.693  29.577  30.895  0.2270  0.1822  0.0002
54433W        W97527  34.206  31.716  31.063  0.1200  0.1737 -0.1776
54434W        W97528  33.056  31.579  30.016  0.0045  0.0789  0.2129
54435W        W97529  33.453  31.889   1.005 -0.1218  0.0878  0.4416
54436W        W97530  33.496  29.693  31.687 -0.0805 -0.1509  0.2861
54437W        W97531  32.233  30.704  31.722 -0.0493  0.0100  0.2509
54438W        W97532  33.224  29.197   1.687 -0.0587  0.1200  0.0312
54439W        W97533  33.557  32.014  31.580 -0.1002 -0.1060 -0.1494
54440W        W97534   0.659  30.101   0.584  0.0351 -0.2374  0.2338
54441W        W97535  32.984  32.651  31.305 -0.3081 -0.0095 -0.1309
54442W        W97536  31.997  30.677   0.591 -0.2339  0.0254 -0.0677
54443W        W97537  34.591  32.135  31.726  0.3313  0.0108  0.3094
54444W        W97538  33.449  32.108  30.666 -0.2367 -0.0959 -0.1718
54445W        W97539  34.479  30.418   0.252 -0.0891  0.3809  0.1609
54446W        W97540  32.736  29.391   0.864  0.0233  0.0430 -0.0977
54447W        W97541  33.715  30.862   1.534 -0.3191 -0.2137  0.1377
54448W        W97542  32.883  31.165   0.080  0.1929  0.2672 -0.1793
54449W        W97543   0.053  33.258  31.316  0.1365 -0.0220 -0.0772
54450W        W97544   0.041  29.598  31.892  0.1528  0.1163 -0.0399
54451W        W97545   0.626  31.273  31.227 -0.0152 -0.1629  0.2391
54452W        W97546  33.513  30.554  31.377  0.0850 -0.0516  0.3940
54453W        W97547  33.749  30.889   0.606  0.0578 -0.3641 -0.1290
54454W        W97548  33.408  29.720   0.961 -0.2314  0.0836 -0.0483
54455W        W97549  32.156  31.214   0.817  0.1836 -0.3063  0.0974
54456W        W97550  33.964  30.009  31.754 -0.1493 -0.1127 -0.1271
54457W        W97551  34.048  33.005   0.534  0.0796 -0.1511  0.1088
54458W        W97552   0.671  30.981   0.236  0.0679 -0.0594  0.0627
54459W        W97553  33.778  32.442  31.959  0.0766  0.1511  0.0371
54460W        W97554  33.427  32.140   0.041 -0.2509  0.0268  0.2420
54461W        W97555  34.437  31.518  31.528  0.1709  0.3413  0.0601
54462W        W97556  32.903  31.281  30.361  0.0138 -0.0404 -0.2247
54463W        W97557  33.741  32.465  31.463 -0.2241  0.1213  0.0137
54464W        W97558  31.916  30.441   0.069  0.3217 -0.5237  0.2041
54465W        W97559  33.459  30.477   0.349  0.0288 -0.1040  0.0378
54466W        W97560  34.514   0.741  16.449  0.0506 -0.0016 -0.2546
54467W        W97561  32.836  33.838  17.876 -0.4218 -0.0996 -0.0327
54468W        W97562  32.433  31.990  18.628  0.1402 -0.0578 -0.4533
54469W        W97563   0.834  33.381  17.829 -0.3158 -0.0550 -0.1961
54470W        W97564  34.542  33.738  17.522 -0.0572  0.1253  0.0098
54471W        W97565  33.264  33.394  16.984 -0.3337 -0.0177 -0.0476
54472W        W97566  33.419   0.111  16.475 -0.0585 -0.2985  0.0849
54473W        W97567  33.745  34.320  18.227  0.0347 -0.1406 -0.0940
54474W        W97568  34.493  34.602  16.198  0.1400 -0.0838  0.2783
54475W        W97569  33.631  32.578  18.579 -0.0698 -0.1393  0.2510
54476W        W97570  34.674   0.677  16.944  0.1246  0.0050  0.1109
54477W        W97571  32.627   0.046  17.882 -0.1330 -0.1498 -0.0536
54478W        W97572  33.889  34.283  18.737 -0.1199 -0.2643  0.2857
54479W        W97573   0.170   0.726  18.475  0.0368 -0.2410  0.2901
54480W        W97574  33.290  34.008  16.317  0.1411  0.0138  0.1285
54481W        W97575  33.605  34.294  16.702  0.1265 -0.1411 -0.0137
54482W        W97576  34.514   0.103  17.507 -0.1140  0.0984 -0.0292
54483W        W97577  33.775   0.141  17.984 -0.2313  0.0634  0.0895
54484W        W97578  32.961   0.011  17.463  0.1719  0.0862  0.0927
54485W        W97579  32.578   0.789  20.835 -0.2306 -0.2730  0.1489
54486W        W97580  32.770   0.902  18.950 -0.2533  0.1694 -0.0708
54487W        W97581  33.846  33.429  16.838  0.1430  0.0259 -0.2108
54488W        W97582  34.197  34.464  19.200 -0.0992  0.1906  0.1150
54489W        W97583  32.194  33.008  18.585  0.1196  0.0964  0.0407
54490W        W97584  31.847  33.420  18.574 -0.3328  0.1229  0.2558
54491W        W97585  30.981  34.243  18.887 -0.4348  0.0122 -0.1173
54492W        W97586  33.046  34.426  16.728 -0.3128 -0.2295  0.0471
54493W        W97587  33.101  33.461  20.204 -0.3604 -0.1075 -0.0272
54494W        W97588  34.552  32.723  18.556 -0.2965  0.1659  0.0638
54495W        W97589  32.560  32.621  17.170 -0.0094  0.1471 -0.0644
54496W        W97590  34.667   0.302  18.329 -0.0839  0.1267  0.0663
54497W        W97591  33.854  33.664  18.143  0.2216  0.0172  0.3448
54498W        W97592  33.937   0.046  16.478 -0.1669 -0.1884  0.0311
54499W        W97593  34.275  33.710  16.806 -0.0876  0.1515 -0.1380
54500W        W97594  32.926  32.947  16.123  0.0615  0.2022 -0.0695
54501W        W97595   0.157  34.429  17.278  0.0207 -0.0245  0.0324
54502W        W97596  33.526   0.199  20.377  0.0444 -0.2145  0.2009
54503W        W97597  32.526  34.026  17.446  0.0856 -0.0789  0.1916
54504W        W97598   0.375  33.647  19.678  0.1967 -0.2160 -0.0842
54505W        W97599  33.648  33.221  16.271  0.1169 -0.0786 -0.1047
54506W        W97600  33.762  33.418  18.942  0.0199  0.4578  0.0168
54507W        W97601  34.025   0.544  17.788 -0.0471  0.0260 -0.1910
54508W        W97602  33.442  33.501  18.537  0.2853  0.0770 -0.0635
54509W        W97603   0.314  34.218  19.763  0.1625  0.2711  0.1758
54510W        W97604  32.947  32.202  18.397 -0.3379 -0.1109  0.0637
54511W        W97605  34.092  33.657  17.272  0.0015  0.4151  0.2463
54512W        W97606  32.925   0.307  16.463  0.1951 -0.0347 -0.0652
54513W        W97607  34.558  34.489  19.970 -0.0237  0.0788  0.1163
54514W        W97608  34.232  33.573  18.986 -0.3174 -0.0059 -0.1900
54515W        W97609  34.579   0.265  20.186  0.3505 -0.0474  0.1823
54516W        W97610  33.298  34.332  17.152  0.0015  0.1203  0.1369
54517W        W97611   2.123  34.063  17.147  0.2432  0.0115 -0.2700
54518W        W97612  34.444   0.224  16.600 -0.0943 -0.0243  0.1322
54519W        W97613  33.348   1.303  19.331  0.2095 -0.2016 -0.0515
54520W        W97614   0.841  34.611  17.962  0.1146 -0.2054  0.3196
54521W        W97615  33.924  33.201  17.247  0.1165  0.0152  0.1034
54522W        W97616  34.622  33.829  19.760  0.3331  0.0831 -0.2796
54523W        W97617  34.451  32.855  19.816 -0.1591  0.1196  0.2756
54524W        W97618   1.200   0.659  18.002 -0.2766  0.1088 -0.0111
54525W        W97619   0.736  33.523  17.166 -0.1158 -0.1648  0.1145
54526W        W97620  33.804  34.142  19.235 -0.0845 -0.0307  0.0435
54527W        W97621  33.641   0.368  19.792  0.1491  0.1056  0.2270
54528W        W97622  32.186  33.792  18.754  0.1054  0.1800  0.1851
54529W        W97623  33.797  33.855  16.632 -0.0914  0.1441 -0.0212
54530W        W97624  34.187  33.437  17.753  0.1385 -0.1070 -0.0566
54531W        W97625  32.219   0.761  18.916  0.2731 -0.2280 -0.0761
54532W        W97626  33.897  32.230  19.005 -0.0055  0.2238 -0.0585
54533W        W97627  34.452   0.764  19.300  0.0196 -0.0891  0.1911
54534W        W97628  33.383  33.952  19.492  0.0351  0.0444  0.3179
54535W        W97629  33.561  34.658  17.569  0.0412  0.0072  0.0663
54536W        W97630  34.171  34.186  16.774  0.0259  0.0692 -0.1256
54537W        W97631  33.127  33.945  17.382  0.0063  0.2251 -0.2843
54538W        W97632  33.000  34.518  16.217 -0.2932 -0.0654  0.0868
54539W        W97633   0.996  33.823  16.211  0.2302  0.1351  0.4801
54540W        W97634  32.926  34.081  15.870 -0.0639  0.0097 -0.0227
54541W        W97635   0.515   0.832  18.872 -0.0028  0.2641  0.0479
54542W        W97636  34.326  33.465  18.273  0.1077 -0.4362  0.1189
54543W        W97637  33.516  33.972  18.492 -0.0871 -0.1291  0.0013
54544W        W97638  34.352  34.104  18.857 -0.2550  0.1388  0.3623
54545W        W97639  34.040   0.188  16.980  0.2326  0.0327  0.1022
54546W        W97640   0.820  34.517  18.523 -0.0417 -0.0519 -0.1547
54547W        W97641  33.330  33.819  15.774  0.2075  0.0530  0.0055
54548W        W97642  33.093   0.938  19.464 -0.1501 -0.0412 -0.0930
54549W        W97643  33.351  34.511  18.029 -0.1353 -0.0190 -0.0007
54550W        W97644   0.951   1.026  18.691  0.2385  0.6070  0.1090
54551W        W97645  33.735  33.757  16.152 -0.0350 -0.2445 -0.2406
54552W        W97646  33.819   0.035  18.488  0.0105 -0.1203 -0.0740
54553W        W97647   0.260   1.057  17.051  0.1902 -0.2407 -0.0693
54554W        W97648  32.902  34.324  18.716 -0.0410  0.0325  0.0108
54555W        W97649   0.618   0.436  16.140  0.0531 -0.2086 -0.0469
54556W        W97650  33.935  33.248  18.380 -0.2377  0.1138 -0.0646
54557W        W97651   0.449   0.584  17.091  0.1575 -0.2863 -0.0803
54558W        W97652  33.500   1.030  18.923  0.0867 -0.1056  0.0890
54559W        W97653  33.442  33.502  16.553  0.2241  0.0912  0.2855
54560W        W97654  34.261  34.158  17.377 -0.1572 -0.2032  0.0423
54561W        W97655  34.005  33.470  15.802 -0.0747  0.2423  0.1642
54562W        W97656  34.285   0.473  18.604  0.1526 -0.0841 -0.0691
54563W        W97657   0.332   0.268  17.865 -0.0651 -0.0435  0.0750
54564W        W97658  34.326   0.565  17.287  0.1338  0.0488 -0.0013
54565W        W97659  32.972   0.447  19.550  0.0910 -0.1425  0.1525
54566W        W97660  33.156   0.352  16.009 -0.0279  0.2686  0.0499
54567W        W97661   0.233  32.616  20.484  0.2734  0.2342  0.1713
54568W        W97662  34.239  34.298  18.381 -0.0571 -0.0686  0.1806
54569W        W97663  32.579  34.225  16.934 -0.1359  0.0407 -0.0450
54570W        W97664  33.612  32.007  17.881  0.0971  0.0768 -0.1471
54571W        W97665  33.359  32.385  17.653  0.2420 -0.1508  0.0164
54572W        W97666  31.262  33.247  17.655 -0.1684 -0.1816 -0.2336
54573W        W97667  33.775  34.297  16.188  0.1210  0.0665  0.0973
54574W        W97668   0.255   0.022  20.496 -0.0211  0.0161 -0.0313
54575W        W97669  34.240  33.886  19.361 -0.2019  0.2166 -0.0036
54576W        W97670  33.278  32.901  16.491  0.3864  0.1297 -0.0639
54577W        W97671   0.197  32.254  19.024 -0.0626  0.0103  0.1834
54578W        W97672  32.622   0.168  20.002  0.2076  0.0246 -0.1850
54579W        W97673  33.093  34.158  18.287 -0.2105 -0.0399 -0.3703
54580W        W97674  34.596  33.930  18.130  0.1026 -0.1445  0.0467
54581W        W97675  32.584  33.378  17.870 -0.2776 -0.1602 -0.0635
54582W        W97676  34.631  33.990  15.701 -0.2432 -0.0950  0.0508
54583W        W97677   0.353   0.112  19.995  0.0347 -0.0974 -0.2696
54584W        W97678   0.124   0.173  17.014 -0.0213 -0.0096 -0.2341
54585W        W97679  33.443  33.140  18.213  0.0795 -0.1719 -0.1777
54586W        W97680  34.373   0.945  17.625  0.2765 -0.2315 -0.0991
54587W        W97681  34.586   0.500  17.892  0.0286 -0.1422  0.1033
54588W        W97682  34.172  33.913  17.799 -0.0927 -0.0378 -0.6268
54589W        W97683  33.705  34.078  19.892  0.0752 -0.1164 -0.4738
54590W        W97684  33.360  33.014  21.156  0.2443  0.1019  0.0885
54591W        W97685  33.780  32.817  23.035 -0.3475 -0.2930 -0.0381
54592W        W97686  34.255  33.700  23.285 -0.4111 -0.0588  0.1875
54593W        W97687   0.259  33.562  20.781  0.2920 -0.0168  0.1426
54594W        W97688  33.010  31.649  22.177  0.3362  0.0379 -0.1753
54595W        W97689  33.325  34.623  21.711 -0.1106  0.2046 -0.0974
54596W        W97690  34.214   0.714  23.391  0.4419 -0.0039  0.3136
54597W        W97691  33.718  32.861  20.683  0.3440  0.0602 -0.1460
54598W        W97692  34.685  32.820  23.403 -0.0588  0.2914  0.2929
54599W        W97693  33.311  34.402  20.161  0.1020  0.1414 -0.1396
54600W        W97694  32.881   1.157  21.282 -0.1280  0.1289  0.2495
54601W        W97695  34.358  32.473  22.669 -0.1301  0.1017  0.0590
54602W        W97696  34.552   0.353  23.379 -0.2220 -0.1152  0.2582
54603W        W97697  33.059   0.099  20.361 -0.0744 -0.2551 -0.0627
54604W        W97698  33.624  33.274  22.847  0.1836  0.1269  0.0380
54605W        W97699  34.533  33.632  22.427 -0.1015 -0.0782 -0.0305
54606W        W97700  33.600  32.595  22.006 -0.0588  0.0184 -0.2150
54607W        W97701  33.663  33.820  21.478 -0.2581 -0.0772 -0.1324
54608W        W97702  33.501  34.400  23.636  0.0683 -0.2612  0.1015
54609W        W97703  33.314  33.322  22.416 -0.2773 -0.1607  0.0336
54610W        W97704  34.063  32.580  19.379  0.0512 -0.3677  0.0447
54611W        W97705  34.015  34.301  25.232 -0.0799  0.2327 -0.2468
54612W        W97706  31.799  32.824  23.744  0.0206 -0.1729 -0.1673
54613W        W97707  32.987  32.635  23.277  0.0288 -0.0592  0.5629
54614W        W97708  33.250  33.562  23.064 -0.4797  0.0373 -0.1239
54615W        W97709  33.054  34.251  20.564 -0.2067  0.0569 -0.0844
54616W        W97710  33.390  33.547  23.586  0.0849 -0.2308 -0.2605
54617W        W97711  32.337  33.252  22.619 -0.0915  0.0446 -0.1703
54618W        W97712  32.156  32.718  21.706  0.3326 -0.0142 -0.1426
54619W        W97713  34.177  34.618  20.248  0.3613 -0.0175  0.0089
54620W        W97714  34.412  32.926  22.927  0.0523  0.2071  0.4917
54621W        W97715  32.346  33.677  19.279 -0.1813  0.0531 -0.0129
54622W        W97716  33.869  34.203  21.158  0.0018  0.0757 -0.2088
54623W        W97717  33.076  33.654  19.754 -0.1290  0.1929  0.0607
54624W        W97718  33.076  33.225  20.730  0.1236 -0.1556 -0.1526
54625W        W97719  33.977   1.584  23.419 -0.1868 -0.2008  0.1670
54626W        W97720  33.174   0.631  19.056 -0.0919  0.0999  0.0285
54627W        W97721   0.022  31.827  23.395  0.2136 -0.3433 -0.3568
54628W        W97722  33.841   0.837  19.963  0.0629  0.3456  0.3645
54629W        W97723  34.022  33.262  23.179  0.3269 -0.3542 -0.0737
54630W        W97724  33.933  33.918  22.184 -0.3299 -0.3076  0.1014
54631W        W97725   1.345  32.890  23.944  0.0467 -0.1477  0.1539
54632W        W97726   0.436  32.497  24.475  0.0114 -0.1443  0.1497
54633W        W97727  33.645  32.530  21.041  0.1707  0.2213 -0.1237
54634W        W97728   0.778  32.783  21.823 -0.0932  0.0063  0.2739
54635W        W97729  33.026   0.501  20.085  0.0948 -0.0660 -0.2179
54636W        W97730  33.401  32.812  22.429  0.0946  0.3266  0.2011
54637W        W97731  33.843  33.340  23.630  0.1194  0.0059 -0.0320
54638W        W97732  34.193  34.219  23.537 -0.0813 -0.2215 -0.0037
54639W        W97733  32.780  34.413  20.175  0.0760  0.3308  0.1987
54640W        W97734  34.555  33.868  20.650  0.2577 -0.2480 -0.7043
54641W        W97735  34.137  34.341  19.691 -0.1278  0.0313 -0.0989
54642W        W97736  34.345  33.444  24.391  0.0335  0.0417  0.0977
54643W        W97737  34.299  34.599  23.027  0.2405  0.2946  0.0300
54644W        W97738  33.382  34.027  20.973  0.2081  0.0429 -0.1380
54645W        W97739   0.595  32.799  20.984  0.0094  0.3618 -0.2804
54646W        W97740  33.834  34.295  23.966  0.1060  0.1877  0.0161
54647W        W97741  34.666  33.934  23.673  0.1286 -0.2070 -0.3141
54648W        W97742  33.615  32.000  22.572 -0.2291  0.2015  0.0649
54649W        W97743  34.057  33.458  21.378  0.2138  0.1006  0.1889
54650W        W97744  33.343  34.428  24.100 -0.1007  0.2290  0.1088
54651W        W97745  32.982   0.914  24.957  0.0800 -0.1411 -0.0103
54652W        W97746  34.047  33.370  20.846  0.1142  0.1439 -0.0927
54653W        W97747  33.903  33.505  21.834 -0.0396 -0.0368  0.0531
54654W        W97748  33.189   0.526  21.793 -0.4167  0.2628  0.0176
54655W        W97749  34.035  31.853  23.368  0.3595  0.0814  0.1905
54656W        W97750  32.845  33.846  23.098 -0.1174  0.2222  0.2487
54657W        W97751  33.253   0.215  24.206 -0.1477 -0.2207 -0.4927
54658W        W97752  34.248  34.508  21.595 -0.3187 -0.3571 -0.1752
54659W        W97753  33.002  33.640  18.308  0.4234  0.1424 -0.0092
54660W        W97754  33.193  33.543  21.713  0.2068  0.2531  0.0159
54661W        W97755  33.280  33.508  19.229  0.0415 -0.0480 -0.0546
54662W        W97756  33.775  34.616  19.989 -0.2098 -0.1143  0.2461
54663W        W97757  34.519  33.398  19.451 -0.0283  0.1429  0.0529
54664W        W97758   0.412  33.766  22.495  0.1170 -0.0992  0.0719
54665W        W97759  34.368  34.101  21.124 -0.0468  0.0130 -0.1052
54666W        W97760  33.865  33.012  21.170 -0.0895 -0.2762 -0.2217
54667W        W97761  32.629  33.394  19.981  0.1283  0.2849 -0.0040
54668W        W97762   0.141  33.488  20.303 -0.0896  0.1161 -0.1240
54669W        W97763   0.663  33.160  22.751  0.1437  0.0514  0.0844
54670W        W97764  33.585  33.496  20.060  0.4821  0.2443 -0.0850
54671W        W97765  32.678  33.075  23.407 -0.1147  0.0995  0.1409
54672W        W97766  31.883  32.990  22.716 -0.2273  0.2855 -0.2425
54673W        W97767  34.169  32.214  22.267  0.0710  0.0020 -0.0857
54674W        W97768  32.878  32.825  21.053 -0.3825 -0.1994 -0.2517
54675W        W97769  33.333  34.481  22.599  0.1020 -0.2941 -0.1825
54676W        W97770   0.048   0.319  21.531 -0.2288  0.1732 -0.1964
54677W        W97771  34.329  34.693  22.534  0.2988  0.0050 -0.3333
54678W        W97772  33.995  33.060  22.603  0.4132 -0.2380  0.0272
54679W        W97773  33.760  34.600  22.799  0.0608 -0.1171 -0.3483
54680W        W97774   0.012  34.529  21.356  0.0534 -0.3268 -0.2530
54681W        W97775   0.456  34.375  22.428 -0.1260 -0.0572 -0.1122
54682W        W97776  34.138  33.898  21.590 -0.0658  0.2512 -0.0213
54683W        W97777  32.726  33.371  23.009 -0.0644  0.0196  0.1807
54684W        W97778  34.048  32.029  22.786 -0.1563  0.0783  0.1566
54685W        W97779  33.652  32.053  21.923 -0.1767 -0.1697  0.2012
54686W        W97780  34.591  32.928  20.322  0.1134  0.1564 -0.4124
54687W        W97781  34.035  31.749  22.356  0.0020  0.1629 -0.1903
54688W        W97782  33.857  34.477  23.259  0.0446 -0.1080  0.1643
54689W        W97783  32.627  33.488  20.537  0.0017 -0.0221  0.0645
54690W        W97784  34.612  30.868  23.141 -0.2631  0.0965 -0.0306
54691W        W97785  33.723  33.713  23.099 -0.4086 -0.2104 -0.0121
54692W        W97786  33.936  34.663  21.965  0.0894  0.3367 -0.0416
54693W        W97787  33.455  34.448  19.580 -0.0513 -0.0599  0.4870
54694W        W97788   0.613  33.658  22.017 -0.0588  0.2960 -0.0165
54695W        W97789   0.193  33.293  22.474  0.1487  0.1338  0.3107
54696W        W97790  33.784  34.145  20.397  0.0256 -0.1866  0.0123
54697W        W97791  34.023  34.115  22.990 -0.2038  0.0700  0.1763
54698W        W97792  34.646  30.991  22.576 -0.0780  0.2064 -0.4623
54699W        W97793  32.626  34.617  20.724 -0.0220 -0.1720 -0.0951
54700W        W97794  33.845   1.179  23.683  0.1431 -0.0196 -0.1726
54701W        W97795  32.257  33.874  22.288  0.0371  0.0582  0.1488
54702W        W97796  32.521  31.597  23.483  0.3827 -0.2614  0.0279
54703W        W97797  33.263  33.897  20.161  0.0542 -0.0163 -0.1061
54704W        W97798  34.217  33.585  23.783  0.0356 -0.2689 -0.1770
54705W        W97799  34.345  34.679  21.066 -0.1383 -0.1263 -0.1039
54706W        W97800   0.458   0.418  23.711  0.2024  0.0287  0.0015
54707W        W97801  34.691  34.052  21.622  0.0821 -0.1962  0.0087
54708W        W97802  33.549  32.633  23.428  0.1635 -0.1571 -0.0634
54709W        W97803   0.514   0.003  21.358 -0.1530 -0.1227  0.0743
54710W        W97804   0.501   0.515  21.249 -0.1095  0.0430 -0.2519
54711W        W97805  33.828  33.478  22.369 -0.1688 -0.2958  0.1971
54712W        W97806  34.460  34.276  25.568  0.0897 -0.1571 -0.0242
54713W        W97807  32.639  33.184  25.499  0.1015  0.0525 -0.0810
54714W        W97808  34.009  33.747  27.171  0.2362 -0.0619  0.0936
54715W        W97809  34.604  33.972  26.231 -0.1670  0.0035  0.0408
54716W        W97810  34.496  34.673  23.650 -0.0442 -0.0316 -0.3756
54717W        W97811  33.581  33.766  26.072  0.4142  0.0058  0.2272
54718W        W97812  33.354  33.645  24.381  0.0328  0.3467 -0.0227
54719W        W97813  33.537  33.725  27.096  0.1140 -0.0751 -0.0209
54720W        W97814  33.628  33.802  24.949 -0.1431 -0.1012  0.3123
54721W        W97815  33.434  33.135  26.776 -0.4185  0.0401  0.0601
54722W        W97816  33.201   0.614  23.403 -0.2173 -0.1868 -0.1446
54723W        W97817  32.956   0.033  26.611 -0.1290  0.0325 -0.0728
54724W        W97818  34.115  33.779  26.122 -0.1282 -0.1740 -0.0471
54725W        W97819  33.139  34.029  27.506 -0.0492  0.0866 -0.0280
54726W        W97820  33.970  33.141  24.228 -0.2827 -0.1460  0.0294
54727W        W97821  33.287  32.931  26.329  0.1808  0.3435  0.0940
54728W        W97822  33.895  33.296  26.901 -0.0428 -0.2205 -0.2315
54729W        W97823  33.635  33.402  25.261 -0.0654 -0.2281 -0.0981
54730W        W97824  33.493  34.103  26.479 -0.1374 -0.1140  0.0861
54731W        W97825  34.247   0.756  26.890 -0.2454 -0.1851  0.1884
54732W        W97826   0.563  34.493  27.295 -0.2214 -0.0195  0.0949
54733W        W97827  32.759  33.221  23.858 -0.2841  0.4359  0.3182
54734W        W97828   0.002  33.050  27.377  0.1631  0.0104  0.2116
54735W        W97829  32.359  33.071  27.064 -0.1653  0.2179 -0.2131
54736W        W97830  32.571  33.492  27.320  0.0420  0.1698  0.0019
54737W        W97831  32.446  34.446  25.790 -0.0942 -0.0250 -0.0292
54738W        W97832  34.032  32.092  25.249  0.0283 -0.0332 -0.2906
54739W        W97833  33.923  34.610  26.824 -0.1316 -0.0866  0.1428
54740W        W97834  32.673  33.984  25.969  0.1686 -0.2298 -0.1005
54741W        W97835  32.612  32.741  25.079 -0.0873 -0.1797  0.2717
54742W        W97836  34.214  32.393  25.707  0.0961 -0.1737 -0.2104
54743W        W97837  34.077  32.887  26.628 -0.0156 -0.0215 -0.0920
54744W        W97838  33.385  33.985  23.896  0.0389  0.5604 -0.2152
54745W        W97839  33.724  34.535  24.391  0.1581  0.3337 -0.1507
54746W        W97840  33.040  33.587  23.997  0.2833 -0.2169  0.0928
54747W        W97841  34.117   0.350  25.271 -0.0928  0.1568  0.0861
54748W        W97842  33.147   0.206  27.511 -0.1619 -0.4241 -0.1542
54749W        W97843  33.522  33.246  24.019 -0.2021  0.5373 -0.2424
54750W        W97844   0.821  33.637  27.116  0.1053 -0.1004 -0.2329
54751W        W97845   0.409  34.095  24.144 -0.1118  0.4658  0.2246
54752W        W97846   0.681  33.379  27.517 -0.0602 -0.3087 -0.0025
54753W        W97847  34.196  34.379  24.509 -0.2248 -0.1942  0.1952
54754W        W97848   0.602  32.999  26.954 -0.2701  0.0468  0.0733
54755W        W97849   0.968  32.832  27.366  0.1358 -0.1532 -0.1453
54756W        W97850   1.285  31.711  25.901  0.0942  0.2129  0.0765
54757W        W97851   0.755  32.409  23.396  0.0839 -0.1239  0.2156
54758W        W97852  33.166   1.318  25.171 -0.3154 -0.1573 -0.1902
54759W        W97853  33.740  32.985  25.589 -0.0888  0.2361  0.1414
54760W        W97854  34.478  32.917  26.254  0.1767 -0.0641  0.2376
54761W        W97855   1.612  33.795  26.479  0.0238 -0.0726  0.2420
54762W        W97856  32.301  32.918  23.705 -0.0550 -0.1184 -0.1599
54763W        W97857   0.155  34.592  25.425  0.0128  0.0792 -0.2613
54764W        W97858   0.061  34.488  24.862  0.2396  0.1235 -0.0409
54765W        W97859  33.925  34.662  27.860 -0.0291  0.5604  0.2769
54766W        W97860   0.268  33.656  25.259 -0.0658  0.2905  0.1344
54767W        W97861   0.272  32.522  25.365  0.0771  0.0857  0.1131
54768W        W97862   0.957  32.829  25.161 -0.1434 -0.0227  0.1240
54769W        W97863  33.503  33.208  27.277  0.0604 -0.3898 -0.2292
54770W        W97864   1.156  33.492  26.750 -0.3103 -0.1505 -0.0185
54771W        W97865   0.195  33.168  25.223  0.2017  0.1276  0.0063
54772W        W97866  33.766  32.753  27.053  0.2301  0.0693  0.1554
54773W        W97867  34.101  33.703  28.155 -0.0290  0.0430 -0.3642
54774W        W97868  33.371   2.002  27.218  0.0083 -0.4275  0.1333
54775W        W97869  34.424  33.186  23.550  0.0707  0.2168  0.3428
54776W        W97870  33.765   0.894  26.517 -0.1104  0.4675 -0.0082
54777W        W97871  34.626   1.131  26.634 -0.1991  0.3012 -0.0446
54778W        W97872   0.061  34.147  26.661 -0.1909 -0.1721  0.0424
54779W        W97873  33.999  34.165  26.425  0.1917 -0.1996  0.0903
54780W        W97874  33.080  33.596  27.245 -0.2435 -0.0216 -0.0356
54781W        W97875  33.776  34.163  26.933 -0.1528  0.1051 -0.2554
54782W        W97876  33.708  32.798  23.924 -0.1953 -0.1309  0.1062
54783W        W97877  33.085  33.925  26.313  0.2707  0.1113 -0.2384
54784W        W97878  32.529  34.606  24.548  0.0324  0.0444  0.0156
54785W        W97879  34.174   0.128  24.068 -0.0207 -0.2265  0.3772
54786W        W97880   0.774  32.670  25.565 -0.1805  0.0869 -0.0336
54787W        W97881  34.543  33.948  25.124  0.0371  0.3588 -0.0251
54788W        W97882  32.051   0.061  25.800 -0.1970 -0.0520  0.0903
54789W        W97883  33.515  34.628  27.268 -0.2213 -0.0722  0.1717
54790W        W97884  33.793  33.664  24.066  0.0334 -0.2556  0.0128
54791W        W97885  33.508  32.990  24.472  0.1626 -0.3140  0.0433
54792W        W97886   0.101  33.139  24.522  0.0043 -0.1473 -0.1519
54793W        W97887   0.231  33.139  22.963 -0.1923 -0.0630 -0.3669
54794W        W97888  34.321  33.812  26.583 -0.2828  0.1028 -0.1098
54795W        W97889  32.730   0.139  24.968  0.3317 -0.0066  0.0464
54796W        W97890   0.119   0.689  26.193 -0.0629 -0.1757  0.0803
54797W        W97891  33.042  34.057  24.257  0.1135  0.0682 -0.1983
54798W        W97892   0.490  34.414  26.705 -0.3661 -0.1917 -0.0355
54799W        W97893  33.599   0.156  25.746 -0.2766 -0.0641 -0.0674
54800W        W97894  33.710  34.047  27.439 -0.3922 -0.3297 -0.1236
54801W        W97895   0.601   0.092  23.265  0.2703 -0.0164 -0.1757
54802W        W97896  32.710  33.545  26.299 -0.0877 -0.0143 -0.2688
54803W        W97897  33.491   0.182  24.727 -0.2622 -0.0369 -0.1738
54804W        W97898   0.429   0.662  26.684 -0.0425  0.5094  0.1331
54805W        W97899  32.386  32.382  24.311 -0.0329 -0.0124  0.1087
54806W        W97900  33.116  33.821  26.791  0.3049 -0.2413  0.1446
54807W        W97901  34.187  33.921  24.186  0.2572  0.3121 -0.3382
54808W        W97902  33.653   0.074  25.177 -0.0748 -0.0511 -0.0194
54809W        W97903  34.678  33.830  24.338 -0.0388 -0.1373  0.2118
54810W        W97904  33.652  32.616  26.533  0.2943  0.2223  0.0985
54811W        W97905  33.637  34.402  25.540 -0.1733  0.2655 -0.0278
54812W        W97906  31.466  33.231  22.772  0.3842 -0.1460 -0.0359
54813W        W97907   0.479  32.748  27.581 -0.0753 -0.0592 -0.1866
54814W        W97908  34.272  33.423  25.007 -0.0177 -0.0775  0.1126
54815W        W97909  32.866  34.600  26.065  0.0411  0.0807  0.0011
54816W        W97910  33.985  33.762  25.269  0.0337  0.0227  0.0447
54817W        W97911  34.213  34.296  26.028  0.0150  0.3108  0.5369
54818W        W97912  33.455  33.216  25.956  0.1382 -0.0147  0.1453
54819W        W97913  34.629  32.644  25.785 -0.0126 -0.1371 -0.0696
54820W        W97914   0.155  34.337  27.083 -0.0042  0.1184  0.0429
54821W        W97915   1.147  34.206  27.890 -0.1087 -0.0274  0.2616
54822W        W97916  33.266  34.101  24.665 -0.0173  0.1484 -0.3541
54823W        W97917   0.866  34.251  27.002  0.1466  0.0253  0.0256
54824W        W97918  30.938  32.787  28.019  0.1435 -0.1540  0.3062
54825W        W97919  33.777  33.517  25.714  0.0213 -0.0214 -0.3143
54826W        W97920  33.146  33.311  25.442  0.3631  0.4637  0.0723
54827W        W97921  34.400  33.765  25.589 -0.1120  0.0433 -0.0839
54828W        W97922   0.287   0.287  24.205 -0.0150  0.2667  0.0017
54829W        W97923   1.046   2.094  25.726  0.1738 -0.0330 -0.1832
54830W        W97924   0.722  34.134  23.489  0.2157  0.1170  0.1296
54831W        W97925  33.512  32.329  27.080 -0.1530  0.0174  0.1684
54832W        W97926  32.345  34.230  24.037  0.1915 -0.2429  0.0711
54833W        W97927  33.332  34.664  26.143 -0.0048 -0.3676 -0.2303
54834W        W97928  33.209  34.220  25.934  0.0077 -0.1197  0.1849
54835W        W97929  33.867  32.815  27.879  0.1225  0.2028  0.1518
54836W        W97930  34.028  34.482  27.346  0.0886  0.1551 -0.0713
54837W        W97931  34.000  33.192  30.466 -0.1400  0.1699  0.0328
54838W        W97932   0.152  33.785  29.046  0.1001 -0.1748  0.2083
54839W        W97933  34.312  33.103  27.732 -0.0037 -0.0309 -0.1397
54840W        W97934  33.204  31.595  29.493  0.0208 -0.2493 -0.1478
54841W        W97935  33.275   0.349  28.059  0.0779  0.4030  0.1478
54842W        W97936  33.600  34.107  29.557  0.0999 -0.1493  0.1264
54843W        W97937   0.094  34.394  29.086 -0.3041 -0.0878 -0.0851
54844W        W97938   0.087  34.476  29.799  0.1248 -0.1383 -0.2855
54845W        W97939  33.049   0.005  27.077  0.2000  0.3388  0.0279
54846W        W97940  32.931  34.657  29.679  0.0749  0.1595 -0.0032
54847W        W97941  33.638  34.503  28.307  0.1317  0.1563 -0.0684
54848W        W97942   1.039   0.159  30.167  0.0934  0.3062 -0.1602
54849W        W97943  34.624  33.047  28.212  0.0470 -0.0678  0.1536
54850W        W97944   1.201  33.629  28.834  0.2345 -0.1976 -0.0104
54851W        W97945  34.130   0.381  29.225  0.0368  0.0906  0.0193
54852W        W97946  32.392  33.421  28.551  0.1818  0.0888  0.0016
54853W        W97947  33.478   0.766  29.991  0.0749  0.1940  0.2418
54854W        W97948  33.467   0.291  30.148  0.1359 -0.2617 -0.2790
54855W        W97949  33.594  33.980  30.058 -0.1452 -0.3703 -0.2074
54856W        W97950   0.212  32.282  27.692  0.0228  0.1513  0.1144
54857W        W97951  34.410  33.743  29.360 -0.2513 -0.1940  0.0267
54858W        W97952   0.347  33.320  30.019  0.0619 -0.1950 -0.4135
54859W        W97953  32.775  33.695  29.807  0.0068 -0.2566  0.0500
54860W        W97954  32.978  33.037  29.483  0.1234 -0.0785  0.0921
54861W        W97955  34.536  34.563  28.686 -0.0617  0.2656 -0.0211
54862W        W97956  34.221  33.035  31.541  0.0827  0.0223  0.0365
54863W        W97957  32.292  31.819  29.881  0.0857 -0.0694  0.4512
54864W        W97958  33.249  34.163  28.164  0.0220  0.2401  0.2298
54865W        W97959   0.853   1.028  28.693 -0.0344 -0.0055 -0.3237
54866W        W97960  34.374   0.019  30.657  0.0598 -0.1529  0.1708
54867W        W97961  33.412  33.615  27.550 -0.3261 -0.2474  0.3223
54868W        W97962   0.833   0.236  29.299 -0.3050 -0.0335 -0.0836
54869W        W97963  33.575  33.654  28.043 -0.0020  0.1974 -0.0788
54870W        W97964  33.341  34.688  29.363 -0.1126  0.1658  0.1044
54871W        W97965  33.308   0.637  30.799  0.3031 -0.0923  0.0447
54872W        W97966  32.817  33.939  29.231 -0.4404  0.0212  0.0949
54873W        W97967  34.571  33.175  29.804 -0.1100 -0.0752 -0.1994
54874W        W97968  34.571  33.441  26.168  0.0526  0.0531 -0.1413
54875W        W97969   0.679  32.860  31.073  0.1673  0.0722 -0.3382
54876W        W97970  33.452  34.480  27.776  0.2341  0.1909 -0.2109
54877W        W97971  34.496  31.869  29.528  0.0261 -0.1005 -0.3044
54878W        W97972   0.351  34.234  31.176 -0.2416  0.0133 -0.3386
54879W        W97973  33.550  33.348  29.039  0.1047 -0.2493 -0.1494
54880W        W97974   0.370  34.670  28.715  0.0333 -0.0790  0.0234
54881W        W97975  32.312  34.382  28.045  0.0266  0.1360  0.0599
54882W        W97976   0.324  33.271  28.406 -0.0679  0.2949 -0.2817
54883W        W97977  34.490  33.245  29.156 -0.0656 -0.3095  0.0633
54884W        W97978  34.197  33.530   0.414  0.3872 -0.1142 -0.1309
54885W        W97979  32.687  34.311  27.659 -0.2393 -0.0166 -0.0250
54886W        W97980  33.056  33.433  29.224 -0.4359  0.2214  0.0403
54887W        W97981  34.196   0.652  27.856 -0.0660 -0.1617  0.1307
54888W        W97982  33.596   0.330  31.173 -0.2214 -0.3381 -0.1057
54889W        W97983   1.494   0.015  29.383  0.1910 -0.0301  0.1261
54890W        W97984  34.155  34.366  28.215  0.0003  0.3451  0.1013
54891W        W97985   0.329   0.563  30.423 -0.0044  0.0368  0.0538
54892W        W97986  33.782   0.554  31.570 -0.1665  0.1429  0.2024
54893W        W97987   0.430  33.731  30.496  0.0252  0.0480 -0.0948
54894W        W97988   1.241  34.235  29.587  0.0826 -0.1174 -0.1063
54895W        W97989  34.142  32.229  29.771 -0.0126 -0.0722  0.2784
54896W        W97990  32.298  34.268  30.924 -0.0070 -0.0296 -0.3596
54897W        W97991  32.857   0.419  31.129  0.0126  0.0250 -0.1316
54898W        W97992  33.952  33.452  28.580  0.0699  0.1973  0.0713
54899W        W97993  34.331  34.134  30.583  0.0136  0.0759  0.0996
54900W        W97994  33.457  34.467  30.447  0.1157  0.2377 -0.0345
54901W        W97995   0.056  33.935  30.818  0.0667  0.0268  0.2053
54902W        W97996   0.023   0.626   0.062 -0.2149 -0.2001 -0.3183
54903W        W97997  34.502  32.782  31.208  0.3195  0.1826 -0.0534
54904W        W97998  31.194  33.720  28.827  0.0987  0.2505  0.2915
54905W        W97999  33.886  33.889  28.891 -0.1018 -0.1239  0.0539
54906W        W98000  32.378  32.107  29.484  0.1422  0.1596  0.0801
54907W        W98001  33.955   0.343  27.078 -0.2300  0.0236  0.0646
54908W        W98002  34.293  33.990  28.481 -0.0368 -0.1836  0.0996
54909W        W98003   0.475  34.229  28.085  0.0621  0.2244  0.2409
54910W        W98004  34.622   0.640  29.407 -0.0572 -0.0568 -0.1135
54911W        W98005  32.707   0.107  28.775 -0.0096  0.0138 -0.0320
54912W        W98006   0.299  32.806  29.792 -0.0146 -0.3886  0.0983
54913W        W98007  33.338  33.838  29.076 -0.0664 -0.1807 -0.0044
54914W        W98008  34.301   0.150  28.194 -0.2076  0.1061 -0.0509
54915W        W98009   0.111   0.107  30.253  0.2019 -0.1148  0.2037
54916W        W98010  33.992  34.387  28.738 -0.0606 -0.1046  0.1523
54917W        W98011  33.378  34.530  30.972  0.1428 -0.0326 -0.0285
54918W        W98012  32.805  32.617  28.909 -0.0987 -0.0207  0.0409
54919W        W98013  34.405  34.549  30.144 -0.1150 -0.2085  0.0028
54920W        W98014  32.531   0.618  29.121 -0.1926  0.0354  0.2470
54921W        W98015  32.762  34.102  31.198 -0.0914 -0.1786  0.0984
54922W        W98016  33.419  32.612  29.948  0.1761  0.0533  0.0240
54923W        W98017  34.336  34.130  29.050  0.2725 -0.0964 -0.2034
54924W        W98018   0.856  34.569  27.697  0.1545 -0.0135  0.1425
54925W        W98019  33.906  34.379  29.235  0.1917  0.0975 -0.1897
54926W        W98020  33.423   1.075  29.123  0.0768  0.0878 -0.1230
54927W        W98021  34.300   0.912  29.920 -0.0691 -0.1616  0.1448
54928W        W98022  32.586  33.065  28.995  0.0972  0.0412 -0.3139
54929W        W98023  34.057  33.865  29.764 -0.0700 -0.1110 -0.0175
54930W        W98024   1.027  32.363  28.097  0.1537  0.0416  0.1025
54931W        W98025  33.065  34.582  28.514  0.2830  0.2847  0.1824
54932W        W98026   1.980   0.490  29.415  0.0922  0.2601  0.1808
54933W        W98027  33.285  31.995  29.195 -0.3205  0.3205 -0.2003
54934W        W98028  33.125   0.808  31.195 -0.0940  0.0988 -0.0201
54935W        W98029  32.044  33.799  28.565 -0.3671  0.1172 -0.0631
54936W        W98030  33.620  34.271  31.343 -0.0727 -0.0525  0.2188
54937W        W98031  34.155  34.656  29.690 -0.0829 -0.3233 -0.1606
54938W        W98032  32.332  33.886  28.164 -0.2774  0.3507  0.2080
54939W        W98033  33.793  32.439  29.156 -0.2457 -0.3247  0.0402
54940W        W98034  34.579  33.508  30.134  0.0362 -0.2792  0.1741
54941W        W98035  32.591  33.375  28.123  0.2453 -0.1024  0.2575
54942W        W98036   0.186  32.637  28.406 -0.2470 -0.1690  0.2179
54943W        W98037  33.611   0.844  31.136 -0.1670  0.1535  0.0190
54944W        W98038   0.092  34.491  30.749 -0.2523  0.2937  0.0858
54945W        W98039  32.220  33.464  27.777 -0.1222 -0.0151  0.1741
54946W        W98040  33.015   0.131  30.684  0.1234 -0.3675  0.1479
54947W        W98041  33.260  32.567  30.466 -0.2417 -0.1121  0.2264
54948W        W98042  33.814  33.287  31.403 -0.0085 -0.1351  0.0951
54949W        W98043  33.361  33.627  28.552 -0.1161 -0.0125 -0.0548
54950W        W98044  33.096  34.052  29.679 -0.6244  0.0137  0.2679
54951W        W98045   1.517  34.659  29.924  0.0495  0.1512 -0.3353
54952W        W98046   0.975  32.893  30.563 -0.0867 -0.2155 -0.0945
54953W        W98047  34.340  34.102  27.387 -0.0077 -0.1449  0.2590
54954W        W98048  33.074  32.706  28.399 -0.0996  0.1447  0.1332
54955W        W98049   0.488   0.566  28.912  0.0286 -0.0600  0.0197
54956W        W98050  34.558   0.338  29.008 -0.0197  0.0872 -0.1852
54957W        W98051   0.067  34.139  28.673 -0.0472  0.1314  0.0076
54958W        W98052  33.196  34.533  31.467 -0.0661 -0.1420  0.0258
54959W        W98053  32.792  34.402   0.515 -0.3248  0.1057 -0.2306
54960W        W98054  32.179  34.129  31.920  0.1071 -0.0729  0.0885
54961W        W98055  33.917  32.031   0.213  0.1511  0.1464  0.1621
54962W        W98056  33.552  33.605  31.220  0.1006 -0.1569  0.0708
54963W        W98057  31.309  33.371   1.023 -0.3561  0.0349  0.1201
54964W        W98058  32.824  34.586  31.074 -0.4030 -0.1331  0.0795
54965W        W98059  33.825   0.999   1.467 -0.0182 -0.0018  0.1988
54966W        W98060   0.954  33.881  29.800  0.0934  0.2010  0.1522
54967W        W98061  33.658  33.116  30.120  0.1716 -0.4129  0.0990
54968W        W98062  33.575  34.058   0.301  0.0005 -0.0260 -0.3053
54969W        W98063  33.502   0.490   0.632  0.0276 -0.2951  0.1358
54970W        W98064  34.076  34.256  31.481 -0.1666 -0.1073 -0.1623
54971W        W98065   0.075   0.271  30.759 -0.2758 -0.4013 -0.0393
54972W        W98066  33.884  33.416  30.901  0.1303 -0.0779 -0.0320
54973W        W98067  34.192  34.573   0.303  0.3079  0.1325 -0.0066
54974W        W98068  31.934  34.468  31.636 -0.1432 -0.2029  0.1354
54975W        W98069  33.280  32.553  31.694 -0.2743 -0.1480  0.0311
54976ION     NA98070  22.824   3.744   3.385 -0.0583  0.4638 -0.1950
54977ION     NA98071  15.350  16.563  30.528  0.2396 -0.1013  0.7115
54978ION     NA98072   9.068  28.014   1.486  0.0831 -0.2978  0.4033
54979ION     NA98073  19.334  10.384   7.923  0.0614  0.1591 -0.5142
54980ION     NA98074  34.498  32.583   1.507  0.1006 -0.0220  0.4117
54981ION     NA98075  23.223   6.370   2.721  0.1615  0.0603  0.2599
54982ION     NA98076  16.870  18.868  29.233  0.0355  0.4170 -0.0082
54983ION     NA98077  21.127   6.191   1.082 -0.0763 -0.5301 -0.2030
54984ION     NA98078  30.169  17.122   4.325 -0.0997 -0.3478 -0.1501
54985ION     NA98079  14.829  16.934   0.401 -0.7563 -0.2519  0.1743
54986ION     NA98080  14.236  25.452   2.009  0.0672 -0.0743 -0.0854
54987ION     NA98081   7.494   7.600   0.420  0.5629 -0.2920 -0.5518
54988ION     NA98082  13.121  15.307   8.538 -0.3407 -0.0764 -0.1845
54989ION     NA98083  28.520  33.000   3.786 -0.0063 -0.2475  0.0974
54990ION     NA98084  29.617  15.490   7.371 -0.1442  0.1662  0.0049
54991ION     NA98085  29.953  26.418   4.817 -0.4423  0.2906  0.0565
54992ION     NA98086  19.691  14.577  30.278  0.4979 -0.0948 -0.0891
54993ION     NA98087  27.022  30.930   8.778  0.1137 -0.0430 -0.3424
54994ION     NA98088  11.189  34.661   6.352  0.0481  0.2790  0.0091
54995ION     NA98089  22.485  11.766   6.682 -0.2109 -0.6432 -0.0910
54996ION     NA98090  16.507  26.191   7.801  0.1169  0.1250  0.4112
54997ION     NA98091  25.977  34.329   9.132  0.1713 -0.1226 -0.1125
54998ION     NA98092  18.549  24.583   6.713 -0.0726  0.1890 -0.2789
54999ION     NA98093  28.170   2.911   9.932 -0.0217 -0.2854  0.3819
55000ION     NA98094  31.172  14.981   2.276  0.1212 -0.6085 -0.5374
55001ION     NA98095  21.122  21.639   8.915 -0.4145 -0.4671 -0.3846
55002ION     NA98096  33.339   6.340   3.350  0.5475  0.0344  0.5815
55003ION     NA98097  14.657  26.312   3.283  0.3420  0.4924 -0.0113
55004ION     NA98098  24.377  20.749   5.292  0.4347  0.6419 -0.1183
55005ION     NA98099  28.321   9.487   2.741 -0.6544  0.1311 -0.3449
55006ION     NA98100  24.824   2.883   6.170 -0.0207 -0.4409  0.2617
55007ION     NA98101   9.896  17.803   9.021  0.5602 -0.0682 -0.0423
55008ION     NA98102   0.503  21.437   8.056  0.2931 -0.5533 -0.4923
55009ION     NA98103  14.845   7.136   6.482 -0.0981  0.2014  0.1333
55010ION     NA98104   7.216  20.013   1.777  0.2849  0.1786 -0.0144
55011ION     NA98105   9.699  11.827   0.136 -0.4063 -0.1672  0.4431
55012ION     NA98106  20.485   6.563   4.839  0.2007  0.3570  0.4745
55013ION     NA98107  20.568  34.478   1.875 -0.0136 -0.0708 -0.0212
55014ION     NA98108   9.059  26.590   5.882  0.0886 -0.3275  0.4605
55015ION     NA98109   8.552  16.100   7.455 -0.0951 -0.1333  0.3990
55016ION     NA98110  19.439  13.463   5.644 -0.3556  0.0225  0.2208
55017ION     NA98111  15.238  29.343   7.859 -0.1683 -0.4606  0.2250
55018ION     NA98112  31.795  22.699   6.338  0.3071  0.5337 -0.6638
55019ION     NA98113  10.884  18.705   7.265  0.1837 -0.2834  0.0354
55020ION     NA98114  29.061  32.815  31.864  0.3497 -0.4105  0.0979
55021ION     NA98115  11.794   4.296   6.608  0.0920 -0.4758 -0.5182
55022ION     NA98116   0.923  31.724   2.152  0.0041 -0.0710  0.2081
55023ION     NA98117   3.203  24.832   3.466  0.1791 -0.3359  0.4372
55024ION     NA98118  22.876  33.049   6.387 -0.2807  0.2357 -0.6845
55025ION     NA98119  21.119  19.600  31.326  0.5785 -0.2171 -0.0763
55026ION     NA98120   7.195   2.826   8.109 -0.1557  0.0690  0.3758
55027ION     NA98121  27.035  23.688   9.363  0.4295 -0.2383 -0.0328
55028ION     NA98122  33.325  25.543   2.243  0.4325 -0.2155 -0.0550
55029ION     NA98123  22.613   2.588   9.091  0.3404  0.4996 -0.1438
55030ION     NA98124  16.282  18.855   2.891 -0.0808  0.4847 -0.1209
55031ION     NA98125  20.465  23.760   5.706 -0.2855  0.4518  0.3603
55032ION     NA98126   5.530   3.088   1.316  0.2560 -0.1809  0.4474
55033ION     NA98127   7.120  34.647   9.887 -0.1419  0.1315 -0.5154
55034ION     NA98128   3.776  14.396   6.971  0.5862  0.4162  0.3013
55035ION     NA98129   8.448   7.983   5.950  0.4394 -0.2250  0.0719
55036ION     NA98130   2.081  15.244   2.260 -0.0313 -0.0830  0.3452
55037ION     NA98131  11.411  18.146   0.719 -0.1630  0.1318 -0.5420
55038ION     NA98132  10.288   1.174   9.531  0.0971  0.1197 -0.0619
55039ION     NA98133   8.450   8.072   3.570  0.0057  0.1867 -0.3469
55040ION     NA98134  18.941  30.361   5.994 -0.2915 -0.2275 -0.0656
55041ION     NA98135   0.396  10.306   3.146 -0.3738 -0.3355 -0.4510
55042ION     NA98136  27.452  28.662   7.158 -0.0864  0.4092 -0.8320
55043ION     NA98137  32.887  12.248   1.266  0.2599  0.3988 -0.2258
55044ION     NA98138  18.708   1.857   2.289 -0.3448 -0.6701 -0.3812
55045ION     NA98139   0.969  29.192   6.467  0.3481 -0.0180  0.4946
55046ION     NA98140   8.209   4.876   5.582 -0.3925 -0.1177 -0.3414
55047ION     NA98141  21.584  26.007   6.804 -0.6838 -0.2764  0.3247
55048ION     NA98142  26.916  16.381   5.669  0.7980 -0.3336 -0.1743
55049ION     NA98143   8.625  18.025   1.663  0.3297  0.3312  0.4248
55050ION     NA98144   2.461  24.762   4.075 -0.3576  0.4043 -0.4312
55051ION     NA98145  32.191  23.919   1.335  0.4166 -0.1586  0.0196
55052ION     NA98146  13.651  27.408   1.171  0.0057  0.5653 -0.1434
55053ION     NA98147  31.923  23.983   1.941  0.1881 -0.0203  0.3706
55054ION     NA98148  11.006   6.024   1.306 -0.3428 -0.3983 -0.5237
55055ION     NA98149  26.546  22.302   4.294  0.1120  0.0006 -0.4765
55056ION     NA98150  30.742   2.004   9.047  0.0163  0.0696  0.3565
55057ION     NA98151  29.063  33.115   4.431  0.7914 -0.2030  0.0150
55058ION     NA98152  27.768  23.903   5.201  0.6889  0.1971  0.2705
55059ION     NA98153  23.379  26.318   4.789  0.0809  0.1322 -0.0906
55060ION     NA98154  33.741  32.794   3.990  0.1919  0.5315  0.5604
55061ION     NA98155  20.770  27.397   3.237 -0.0526 -0.0701 -0.1792
55062ION     NA98156  28.591   9.910   8.018 -0.2452  0.4426 -0.1523
55063ION     NA98157   4.087  21.595   8.000  0.0082 -0.1838 -0.0756
55064ION     NA98158  17.110   9.721   3.618  0.3153 -0.0749  0.0775
55065ION     NA98159  20.213  24.055   3.316 -0.3395 -0.0666  0.0126
55066ION     NA98160   8.122  11.506   5.991  0.5648  0.0462  0.3502
55067ION     NA98161  14.730   1.989   3.727 -0.3482 -0.0404 -0.1150
55068ION     NA98162   6.889  29.197   2.191  0.0983  0.4478  0.0870
55069ION     NA98163  10.427   7.136   5.691  0.0552  0.0429  0.0090
55070ION     NA98164  32.807   1.140   4.274 -0.1344 -0.3036  0.0280
55071ION     NA98165   1.819  28.709   5.567 -0.6937  0.3939 -0.5128
55072ION     NA98166  17.993  33.985   0.914  0.3900 -0.1861 -0.0380
55073ION     NA98167  10.812   1.487   5.851  0.1184  0.2990  0.6643
55074ION     NA98168  21.902  14.079   9.513 -0.2305 -0.3832  0.5726
55075ION     NA98169  16.248   2.216   4.361  0.0497 -0.1944  0.1157
55076ION     NA98170   6.464  33.470   1.642  0.5316 -0.5105 -0.1844
55077ION     NA98171  33.459  27.529   7.786 -0.2528 -0.1212 -0.0499
55078ION     NA98172  10.515  16.111   7.822  0.2257 -0.5641  0.2752
55079ION     NA98173   3.600   2.244  31.925 -0.6307 -0.4378  0.5306
55080ION     NA98174   2.683  26.840   9.056  0.3159 -0.1495 -0.5802
55081ION     NA98175   1.450  20.604   6.515 -0.5660  0.5324  0.0608
55082ION     NA98176  31.739  10.320   5.688  0.3625 -0.2775 -0.0538
55083ION     NA98177  25.890  13.238   4.248 -0.0295 -0.4041  0.3381
55084ION     NA98178  24.700  20.992   7.856  0.2835 -0.7707  0.3102
55085ION     NA98179  17.881   1.289   4.511  0.0788  0.3815  0.0042
55086ION     NA98180  25.963   9.568   2.935  0.3048  0.0224  0.1752
55087ION     NA98181  30.762  17.265   1.619  0.2787  0.5739  0.9375
55088ION     NA98182   3.168   0.269   8.323 -0.3015 -0.3699  0.3398
55089ION     NA98183   4.219   5.036   7.538  0.1983 -0.1003  0.0603
55090ION     NA98184  28.878   3.879   5.186 -0.4564  0.1533  0.4130
55091ION     NA98185  19.515   2.460   7.305  0.2487  0.4101 -0.2939
55092ION     NA98186  29.074  12.850   6.493 -0.8680 -0.2772  0.0402
55093ION     NA98187   2.139   4.941   3.803  0.1280  0.7032 -0.1619
55094ION     NA98188   8.014  22.963   7.325 -0.2661  0.2828  0.6177
55095ION     NA98189   7.391  16.657   7.719  0.4447 -0.2185 -0.0826
55096ION     NA98190  10.115   9.676   7.484 -0.0619 -0.0592 -0.1563
55097ION     NA98191  24.032  25.424   8.152  0.3857  0.4781 -0.5727
55098ION     NA98192   7.947  20.577   5.491  0.6936 -0.1111  0.2585
55099ION     NA98193  25.481   8.438   9.289 -0.1461  0.1038 -0.4835
55100ION     NA98194   0.102  17.367   7.008  0.0143 -0.5753  0.1361
55101ION     NA98195  25.336   7.180   5.637 -0.0209  0.6757 -0.0952
55102ION     NA98196  27.572   2.277  31.907 -0.3360  0.4342  0.2221
55103ION     NA98197  15.490   8.453   1.678 -0.2106 -0.2638  0.3647
55104ION     NA98198  31.907   0.842   7.885  0.1865 -0.1644 -0.1453
55105ION     NA98199  15.364   5.271   9.080 -0.1490 -0.1379  0.4444
55106ION     NA98200  15.268   2.125   1.255 -0.5049  0.2175  0.2326
55107ION     NA98201  11.567   3.667   2.169 -0.4059 -0.3006  0.2222
55108ION     NA98202  10.378  16.781   8.741  0.1870  0.0742 -0.0384
55109ION     NA98203  25.680   2.315  31.635 -0.2669 -0.2708  0.0358
55110ION     NA98204  21.979  27.579   5.587  0.1188 -0.0972  0.2321
55111ION     NA98205   0.588  26.885   1.458 -0.1556 -0.7243  0.1572
55112ION     NA98206  20.540  11.195   3.949 -0.2960 -0.0181 -0.4871
55113ION     NA98207  28.834   0.702   3.261  0.2401  0.3418  0.6386
55114ION     NA98208  29.354  20.094   6.375 -0.0904  0.5894  0.4114
55115ION     NA98209  12.750  21.385   8.708  0.1121 -0.1245  0.2561
55116ION     NA98210   6.314  24.888   5.990 -0.3591  0.3762  0.0595
55117ION     NA98211  24.026   1.921   1.893  0.0814  0.0146  0.2308
55118ION     NA98212  28.131  13.318   1.360 -0.7807 -0.5613  0.0170
55119ION     NA98213  25.452  31.768   4.482  0.3060  0.4703  0.3277
55120ION     NA98214  33.531  22.008   2.461  0.7023 -0.6958 -0.0929
55121ION     NA98215   9.234  33.337   2.338 -0.3989 -0.0318  0.3340
55122ION     NA98216  20.687  32.634  31.946  0.0650 -0.1861  0.2519
55123ION     NA98217  15.392  28.263   2.860 -0.2133 -0.2159 -0.4797
55124ION     NA98218   9.868  13.965   8.185 -0.3198  0.0973  0.5680
55125ION     NA98219  24.747   4.571   1.524  0.2148  0.3274 -0.3129
55126ION     NA98220   8.741  23.740   4.296 -0.1878  0.1627  0.0741
55127ION     NA98221   6.216  24.916   7.601  0.5205 -0.2753 -0.3151
55128ION     NA98222  13.311  23.866   7.814 -0.5098 -0.3863 -0.1875
55129ION     NA98223   2.119  20.032   7.251  0.1877  0.6904  0.2094
55130ION     NA98224   0.043  34.292   6.174  0.0796 -0.0832 -0.3127
55131ION     NA98225  27.577   4.589   8.247 -0.2700  0.3535 -0.0710
55132ION     NA98226   0.319   8.707   8.343  0.0315 -0.2077 -0.3338
55133ION     NA98227  20.318   5.309   0.481 -0.2418 -0.0427 -0.0223
55134ION     NA98228   6.954  26.586   8.869  0.2197  0.3959 -0.0473
55135ION     NA98229   4.486   9.367   7.334  0.4527  0.3324  0.2658
55136ION     NA98230  18.827  16.126   5.057  0.2862  0.3079  0.2309
55137ION     NA98231  21.787  30.559   3.513  0.0250 -0.3614 -0.0291
55138ION     NA98232  31.317  31.388   1.696  0.1821 -0.0368  0.0390
55139ION     NA98233  25.372   4.733   9.400 -0.0037 -0.0978  0.0291
55140ION     NA98234   7.517  29.724   7.704  0.0580  0.3145 -0.0897
55141ION     NA98235  28.881  14.223   2.299 -0.4875  0.1637  0.2527
55142ION     NA98236  11.890  27.515   7.865  0.0470  0.0957  0.0391
55143ION     NA98237  13.174  27.322   3.724  0.2833 -0.3391 -0.1087
55144ION     NA98238  14.136  14.835   2.367  0.2891  0.4904  0.0853
55145ION     NA98239  21.579   5.288   3.221  0.2814 -0.3162  0.6325
55146ION     NA98240  29.883  27.275   2.813  0.2440  1.2132 -0.1190
55147ION     NA98241  19.210  32.793   5.261  0.0674  0.2396 -0.2888
55148ION     NA98242   7.434  26.583   6.645 -0.2549 -0.1747  0.0806
55149ION     NA98243   0.207  21.211   5.538 -0.8190 -0.1237  0.1516
55150ION     NA98244  19.457   0.861   5.988 -0.2019  0.1053 -0.3958
55151ION     NA98245  18.928  24.692   7.839 -0.0997 -0.0431 -0.8628
55152ION     NA98246  22.323  31.850   5.325  0.1855  0.4549  0.1540
55153ION     NA98247  28.879  12.312   7.101 -0.5557 -0.2072  0.3950
55154ION     NA98248  33.737  11.301   1.480 -0.2280  0.4043  0.5465
55155ION     NA98249  16.047  11.990   3.301 -0.6833  0.8604 -0.5917
55156ION     NA98250  21.406   8.215   5.327  0.0872 -0.1071  0.8769
55157ION     NA98251  33.446   7.175   7.076  0.5891 -0.0791  0.5917
55158ION     NA98252  25.274  23.840   0.457 -0.0780  0.1343 -0.8825
55159ION     NA98253   1.635  13.125   3.630 -0.0146 -0.0785 -0.5674
55160ION     NA98254   8.348  14.093   8.671  0.1033  0.1852 -0.3160
55161ION     NA98255  26.832  18.793   4.322  0.3335  0.0932 -0.3412
55162ION     NA98256   7.872  10.642   1.828 -0.3850 -0.2355 -0.4696
55163ION     NA98257  31.811  11.070   1.211 -0.4046  0.0027  0.2254
55164ION     NA98258   7.521  28.283   4.810 -0.0714 -0.2702 -0.3251
55165ION     NA98259  16.113  24.720  31.342  0.1948 -0.0488  0.1513
55166ION     NA98260  25.549  15.764   5.183 -0.0465  0.7936 -0.6392
55167ION     NA98261  22.765  27.307   2.436 -0.0365 -0.1807  0.3632
55168ION     NA98262  18.455   6.521   5.770 -0.2443 -0.2249 -0.1986
55169ION     NA98263  22.558   1.104   5.446 -0.1596  0.5172  0.4718
55170ION     NA98264   4.898  29.638   4.456  0.0829  0.1608  0.2192
55171ION     NA98265  21.698   7.573   9.485  0.0128 -0.1176 -0.2033
55172ION     NA98266  26.183   1.061   1.040  0.3975  0.0431 -0.5332
55173ION     NA98267  27.323  30.317   3.085 -0.0081 -0.0621 -0.4503
55174ION     NA98268  16.903  17.063   3.583 -0.2130  0.2505  0.1517
55175ION     NA98269   4.583  13.323   1.003  0.0521  0.3946  0.6995
55176ION     NA98270  30.623  31.343   9.158  0.0249  0.1386  0.1882
55177ION     NA98271  20.539  10.596   7.405  0.2012 -0.1901  0.4976
55178ION     NA98272   8.008  13.669   2.343  0.0758 -0.0321  0.2159
55179ION     NA98273  25.217  27.748   2.808  0.0396  0.0173  0.2525
55180ION     NA98274   1.702  29.429   3.306  0.1144  0.2782  0.1912
55181ION     NA98275   1.320  12.086   4.888  0.4496 -0.5834 -0.1360
55182ION     NA98276  11.979  16.591   8.490 -0.0200 -0.1194 -0.4578
55183ION     NA98277  19.363   3.096   2.881 -0.7844  0.3281 -0.0901
55184ION     NA98278  28.082  29.539   3.802 -0.2830 -0.5132 -0.0577
55185ION     NA98279  24.804  32.009   1.621  0.1865  0.0522  0.2976
55186ION     NA98280   9.498   9.529   4.980 -0.5408 -0.7004 -0.0634
55187ION     NA98281  10.759  12.068   8.969  0.4290 -0.2565 -0.3651
55188ION     NA98282  26.658  11.502   9.399 -0.1365 -0.2123  0.0633
55189ION     NA98283  30.595  27.671   5.749  0.0090 -0.6307 -0.2099
55190ION     NA98284  29.918  21.066   3.649 -0.1899  0.2086  0.0040
55191ION     NA98285   2.872  21.064   1.432  0.1706  0.2332 -0.1049
55192ION     NA98286   0.234   2.346   4.237 -0.0476  0.1647  0.2073
55193ION     NA98287   4.326  32.348   3.088  0.2076 -0.2233 -0.5041
55194ION     NA98288  27.454  18.299   5.330  0.2356  0.4386 -0.1367
55195ION     NA98289  12.824   2.966   2.480 -0.2656 -0.5603 -0.0548
55196ION     NA98290  19.259  14.590   8.152  0.3807 -0.5431 -0.2030
55197ION     NA98291  10.445  32.586   9.236 -0.2250 -0.4377  0.2728
55198ION     NA98292  12.254  26.101   2.404 -0.3330  0.1181  0.3663
55199ION     NA98293  13.985   9.991   9.157 -0.1218  0.0549  0.5262
55200ION     NA98294  11.583  25.865   4.098  0.1329 -0.0868 -0.0709
55201ION     NA98295  17.704   4.464   0.741 -0.4866  0.3928  0.3241
55202ION     NA98296  34.545  12.197   0.767  0.1097 -0.4801  0.1017
55203ION     NA98297  17.828  16.329   7.932 -0.2879 -0.2977 -0.0001
55204ION     NA98298   9.088  25.189   4.748  0.0063 -0.0524 -0.4518
55205ION     NA98299   5.141  21.221   1.510  0.4217  0.0096  0.1261
55206ION     NA98300   0.390  14.407   4.057 -0.4330 -0.0082  0.2411
55207ION     NA98301  30.902  20.916   2.317 -0.1680  0.5146  0.3127
55208ION     NA98302  24.529   9.196   8.473  0.4262  0.3792 -0.1677
55209ION     NA98303  32.503   9.107   6.976 -0.4352 -0.0989  0.1777
55210ION     NA98304  23.606   2.627   8.764 -0.0875  0.0074 -0.1458
55211ION     NA98305   8.124  22.115   1.425 -0.5714 -0.9553  0.2032
55212ION     NA98306  11.622  33.211   7.599 -0.1989 -0.4673  0.0290
55213ION     NA98307   0.780  10.284   8.027 -0.3365 -0.6105  0.2918
55214ION     NA98308  23.189  24.810   5.648  0.1081  0.3879  0.0807
55215ION     NA98309  17.975  24.690   5.642 -0.2152  0.0623  0.0139
55216ION     NA98310   9.633   3.358   1.547 -0.7600 -0.0212 -0.6251
55217ION     NA98311  16.226  18.090   6.850 -0.3106 -0.2946  0.0658
55218ION     NA98312  32.046   9.206   1.812 -0.3179  0.1896  0.4464
55219ION     NA98313  32.812  20.797   2.433  0.2444  0.4361  0.1474
55220ION     NA98314  15.117  22.325   7.304 -0.5161  0.4088  0.1334
55221ION     NA98315  12.586   8.065   1.288  0.0384  0.2511 -0.3923
55222ION     NA98316  19.788  29.930   5.134  0.0985  0.1965 -0.0753
55223ION     NA98317  22.443   7.475   8.685 -0.0992 -0.4832 -0.2901
55224ION     NA98318   4.804  25.003   7.689 -0.1843 -0.1972 -0.4384
55225ION     NA98319   7.073  20.909   1.334 -0.3553  0.0825  0.1464
55226ION     NA98320  33.246  26.214   3.314 -0.0834  0.1102  0.1610
55227ION     NA98321  22.783  16.277   5.163  0.2990 -0.4759  0.1587
55228ION     NA98322   2.559  21.497   5.549  0.3341 -0.1538  0.1271
55229ION     NA98323   9.359   3.360   6.542  0.0855 -0.0293  0.2164
55230ION     NA98324  31.634  11.725   1.119 -0.3276  0.0424 -0.0373
55231ION     NA98325  29.330  22.126   3.490 -0.6740  0.1134 -0.1087
55232ION     NA98326  12.505  27.778   1.001 -0.3051  0.0658 -0.4767
55233ION     NA98327  16.844   8.790  31.150 -0.1696 -0.2354 -0.0843
55234ION     NA98328  12.351  15.127   2.721 -0.4203  0.5794 -0.0498
55235ION     NA98329   0.825  22.056   2.159 -0.3822 -0.1825 -0.4709
55236ION     NA98330  23.287  20.294   3.176 -0.3435 -0.1387  0.4122
55237ION     NA98331  32.918  20.179   3.902  0.0042  0.1374  0.0644
55238ION     NA98332  14.159  18.369  30.775  0.4819  0.2561  0.2261
55239ION     NA98333  21.874  14.288   8.043 -0.0187 -0.3078 -0.0689
55240ION     NA98334  27.496  18.611   2.857  0.0597  0.0756  0.7319
55241ION     NA98335  26.750  32.545   5.502 -0.0165  0.2939 -0.4106
55242ION     NA98336  32.060  17.013   4.305 -0.0006  0.0851 -0.3990
55243ION     NA98337  17.666  29.188   6.739  0.0829  0.4094 -0.3693
55244ION     NA98338  14.971   2.881   7.389 -0.1751 -0.1517 -0.4040
55245ION     NA98339  30.203   5.126   4.234  0.4451  0.0043  0.5942
55246ION     NA98340  16.459   2.322   2.231 -0.3664 -0.1558  0.1509
55247ION     NA98341  12.117   4.005   2.996  0.1977  0.3044  0.0050
55248ION     NA98342  34.410  29.215   0.136  0.0694  0.3187  0.4465
55249ION     NA98343   9.109  20.756   1.011  0.2223 -0.9466 -0.0498
55250ION     NA98344  20.264  15.860   7.386 -0.2599 -0.2442  0.5566
55251ION     NA98345  17.646   3.055   3.941 -0.1868  0.2687 -0.1728
55252ION     NA98346  33.041   6.139   4.941 -0.4352 -0.0315  0.2388
55253ION     NA98347  15.057  14.042  31.788 -0.4443 -0.3723  0.3651
55254ION     NA98348  14.317  25.216   0.972 -0.2707  0.4069 -0.2899
55255ION     NA98349  10.224  26.245   1.703 -0.5106 -0.1374  0.8383
55256ION     NA98350   6.661  13.921   8.629  0.2197  0.3000  0.2952
55257ION     NA98351  27.709  11.182   7.181 -0.4355  0.1834  0.0631
55258ION     NA98352   2.267  33.787   6.017 -0.3217  0.5002  0.1751
55259ION     NA98353   0.848  33.684   1.210 -0.2069 -0.4498 -0.1692
55260ION     NA98354  23.932  30.734   6.881 -0.2701 -0.4150  0.3266
55261ION     NA98355  32.723   8.621   0.114  0.8042 -0.3966  0.1188
55262ION     NA98356  12.875  14.049   3.684 -0.6495 -0.4721 -0.2168
55263ION     NA98357  32.518  16.030   8.835  0.4412 -0.1358 -0.5472
55264ION     NA98358   8.006  24.488   5.823 -0.1856 -0.1165  0.1312
55265ION     NA98359  18.441  21.059   5.665 -0.0987 -0.7036  0.3274
55266ION     NA98360  22.804   4.149   8.889  0.5750  0.3863 -0.0603
55267ION     NA98361  19.667   5.928   5.276  0.1833 -0.0483  0.4368
55268ION     NA98362  17.985   0.626   5.958 -0.0412  0.0970 -0.3646
55269ION     NA98363  21.603  13.316   8.871 -0.3387  0.2132  0.3371
55270ION     NA98364  28.325  24.819   6.610 -0.2688 -0.0571 -0.2600
55271ION     NA98365   6.868  25.979   2.450 -0.2495  0.1242  0.2823
55272ION     NA98366  16.571  15.519   4.432 -0.0462 -0.0501 -0.1576
55273ION     NA98367  25.675  26.731   4.332 -0.8764 -0.2910  0.0502
55274ION     NA98368  29.356  19.478   1.324 -0.5022 -0.2820 -0.2358
55275ION     NA98369  27.275  33.678   2.663  0.2380 -0.2690 -0.2356
55276ION     NA98370  11.901  18.639  30.832 -0.1680 -0.4527  0.0126
55277ION     NA98371  27.355  20.290   4.073 -0.2433  0.7197 -0.2241
55278ION     NA98372  14.745  20.276   4.884 -0.3017  0.4838 -0.5852
55279ION     NA98373  15.441  33.660   7.735  0.3690 -0.2179 -0.1891
55280ION     NA98374  29.305   3.647   3.180  0.2965 -0.4909 -0.1348
55281ION     NA98375  13.159   1.148   8.915 -0.2900 -0.2672 -0.3619
55282ION     NA98376   2.407  32.067   3.470  0.0996 -0.0566  0.0317
55283ION     NA98377   5.815  13.064   1.027 -0.4575  0.0486  0.3797
55284ION     NA98378  20.084   4.757   4.212 -0.3649 -0.1571  0.0303
55285ION     NA98379  29.504  13.259   1.040  0.3243  0.0187 -0.3958
55286ION     NA98380   4.893   2.608   6.574 -0.4137 -0.2040 -0.0257
55287ION     NA98381  28.748  12.454   2.046 -0.1316  0.3097  0.2056
55288ION     NA98382  34.371  30.427   2.474 -0.1519 -0.1330  0.1747
55289ION     NA98383   8.571  17.184   8.743  0.2924 -0.4914 -0.0140
55290ION     NA98384  22.537  34.614   0.972 -0.1300  0.3932 -0.0535
55291ION     NA98385   8.277  19.110   8.427  0.5407 -0.0937 -0.1878
55292ION     NA98386  28.131   2.989   8.003  0.5071 -0.1947 -0.1447
55293ION     NA98387  21.242  26.837   4.735 -0.1434  0.6850 -0.3436
55294ION     NA98388  17.628   1.331   8.843  0.5219  0.4240 -0.0813
55295ION     NA98389  15.482  27.456   2.004  0.0087 -0.1058 -0.5756
55296ION     NA98390  15.218  10.979   1.818  0.7650  0.4038 -0.1744
55297ION     NA98391   5.520  10.872  31.933  0.0914 -0.3094 -0.2665
55298ION     NA98392  27.046   8.162   4.287 -0.1856 -0.2896  0.1983
55299ION     NA98393   8.446   6.684   7.591  0.0526  0.0793  0.0653
55300ION     NA98394  27.762   9.798   6.738 -0.0299  0.3528 -0.0544
55301ION     NA98395  26.316  31.116   7.857 -0.3524  0.6439 -0.3642
55302ION     NA98396   1.591  20.677   0.950  0.0471 -0.7396  0.4773
55303ION     NA98397  28.870  23.221   4.528 -0.9514  0.6148  0.0036
55304ION     NA98398  29.796  17.854   1.506  0.2505 -0.0108 -0.0641
55305ION     NA98399  32.948  32.046   7.057 -0.4611  0.1405  0.2384
55306ION     NA98400  12.276   1.135   8.878 -0.3780 -0.5196 -0.2990
55307ION     NA98401  10.533   6.175   7.378 -0.3525 -0.4306  0.1180
55308ION     NA98402  13.759   6.844   0.734 -0.0226 -0.5203 -0.2526
55309ION     NA98403   4.167  14.172   2.556  0.5509  0.1839  0.1611
55310ION     NA98404  15.294  23.343  31.391  0.1837  0.0529 -0.9271
55311ION     NA98405  10.500  17.270   7.673 -0.0888 -0.0154 -0.2783
55312ION     NA98406  30.843  27.047   0.064 -0.2445 -0.3402 -0.0679
55313ION     NA98407  24.974  19.757   1.610  0.2738 -0.9015 -0.3933
55314ION     NA98408   1.750  15.989   3.474 -0.0968  0.5396  0.1583
55315ION     NA98409  16.674  19.508  31.835  0.2163  0.6618 -0.4340
55316ION     NA98410  34.475  22.957   4.230 -0.1338 -0.1620  0.0586
55317ION     NA98411  21.256  26.028   9.095  0.0076 -0.6109 -0.3601
55318ION     NA98412  17.636  25.635   4.193  0.4275  0.0930  0.3411
55319ION     NA98413   0.016  23.433   1.638 -0.1951  0.1566 -0.1849
55320ION     NA98414  23.030  16.408   3.956  0.4181  0.3510  0.1753
55321ION     NA98415   2.161   2.217   4.574  0.1576 -0.4079  0.4356
55322ION     NA98416   3.885   3.474   0.466 -0.4576 -0.1077 -0.3668
55323ION     NA98417  13.283  17.756   1.688  0.4425  0.2968 -0.1419
55324ION     NA98418  12.454   3.811   3.741 -0.1652 -0.2246  0.1248
55325ION     NA98419  10.211  31.159   8.385 -0.3105 -0.6293  0.5715
55326ION     NA98420  16.878  20.435   3.420  0.1389 -0.3083 -0.3496
55327ION     NA98421  27.727  20.038   9.454 -0.3148  0.2260 -0.1070
55328ION     NA98422  23.406  24.648   3.898 -0.0990  0.2852  0.1206
55329ION     NA98423  20.721  24.122  31.883  0.0135  0.1718  0.0699
55330ION     NA98424  18.711  12.114   1.674  0.1585  0.4040 -0.5969
55331ION     NA98425  28.715  32.544   5.765 -0.2502  0.2430 -0.0355
55332ION     NA98426  13.364   8.627   7.966 -0.5485  0.1785  0.2152
55333ION     NA98427  19.175  11.381   1.511  0.3504  0.0095 -0.2149
55334ION     NA98428  19.326  21.485   8.656 -0.3301  0.7037  0.2108
55335ION     NA98429  15.115  29.108   9.031 -0.2318  0.1081  0.1860
55336ION     NA98430  11.459  11.701   8.515  0.2456  0.3749 -0.2911
55337ION     NA98431   7.625  13.868   4.009 -0.3240 -0.3816 -0.0563
55338ION     NA98432  18.566   5.654   2.709  0.2211 -0.1567  0.3527
55339ION     NA98433   7.825  32.106   0.388  0.2628 -0.2344 -0.2391
55340ION     NA98434  14.244  24.519   5.734 -0.6105 -0.3188  0.0739
55341ION     NA98435  26.033  10.462   0.924  0.4379 -0.1094  0.2302
55342ION     NA98436  27.640   2.341   9.017  0.0196  0.3911 -0.0607
55343ION     NA98437   2.196  25.426   6.414 -0.0071  0.1658  0.2810
55344ION     NA98438  29.150  16.284   7.861  0.2747  0.6340  0.1179
55345ION     NA98439   9.133  25.623   5.270 -0.3969 -0.1685 -0.5795
55346ION     NA98440   1.931  33.411   6.759  0.0617 -0.4045 -0.2008
55347ION     NA98441  26.552  22.856   5.840  0.2807  0.1477 -0.5475
55348ION     NA98442  16.797  31.568   4.973  0.0441  0.1173 -0.5137
55349ION     NA98443   6.473  23.623   8.477 -0.3666 -0.2895 -0.0457
55350ION     NA98444  17.701  22.011   3.852 -0.7812 -0.2105 -0.4362
55351ION     NA98445  27.102  26.283   7.823 -0.5007  0.4610 -0.7927
55352ION     NA98446  34.135  34.584   2.073 -0.3557 -0.1564  0.2408
55353ION     NA98447   4.939  13.174   1.592 -0.2909  0.0571  0.2055
55354ION     NA98448  12.417   6.786  31.358  0.4225  0.3139 -0.0706
55355ION     NA98449  27.689   5.179   3.875  0.2615 -0.0963  0.2086
55356ION     NA98450   1.240   7.518   4.773  0.3535 -0.1778  0.0709
55357ION     NA98451  14.598  17.226   6.571 -0.3836  0.5273 -0.2830
55358ION     NA98452  18.904   9.939   6.462 -0.0688  0.0120 -0.2092
55359ION     NA98453  11.135  28.124   3.792  0.0113 -0.5181  0.1975
55360ION     NA98454   7.196   9.811   8.358 -0.0562  0.1568 -0.2122
55361ION     NA98455  30.588  29.144   2.237  0.3308 -0.0607 -0.4058
55362ION     NA98456  33.467  27.255   1.121  0.3692 -0.2066 -0.3002
55363ION     NA98457   0.040   8.250   7.848  0.0958 -0.5174 -0.3850
55364ION     NA98458  27.742  29.881   8.819 -0.2273 -0.0051 -0.1486
55365ION     NA98459   7.654   8.003   4.838 -0.1469  0.3956  0.1432
55366ION     NA98460  13.273   5.655   0.907  0.2075  0.3255  0.9708
55367ION     NA98461  15.730  20.394   6.925  0.0017  0.0585 -0.0685
55368ION     NA98462  10.639   2.346   9.839 -0.5616 -0.0477  0.3635
55369ION     NA98463  19.234  15.843   0.893 -0.1033  0.1563  0.5500
55370ION     NA98464   4.565   0.154   8.807 -0.5587  0.3876  0.1698
55371ION     NA98465  20.267   3.644   7.312 -0.2964 -0.0444 -0.0414
55372ION     NA98466   8.821  27.213   0.457 -0.4715  0.2893 -0.3456
55373ION     NA98467  15.415   6.974   4.053  0.3937  0.0850 -0.3063
55374ION     NA98468   1.710   7.365   6.186 -0.0410 -0.5797 -0.3549
55375ION     NA98469  33.683  17.733   0.788 -0.1389  0.0535  0.0721
55376ION     NA98470  23.884   0.390   2.818 -0.0454 -0.3082  0.0972
55377ION     NA98471  11.147   7.259   8.107  0.0666 -0.0353  0.1806
55378ION     NA98472   4.423   7.535   4.000  0.0771  0.1091  0.6570
55379ION     NA98473  32.592   7.837   5.120  0.3303 -0.8503 -0.2454
55380ION     NA98474   4.028  23.599   1.324  0.0399  0.3065  0.0879
55381ION     NA98475  10.825   4.827  31.047 -0.2794 -0.3131 -0.0489
55382ION     NA98476  34.537  18.968   5.636  0.1133 -0.3835 -0.0176
55383ION     NA98477  11.386  21.352   3.747  0.2004  0.5353  0.1871
55384ION     NA98478  21.377  32.604   2.576 -0.1738 -0.0898  0.1980
55385ION     NA98479  15.394  28.351   4.653 -0.3352 -0.5953 -0.2579
55386ION     NA98480  32.784   3.375   2.945 -0.5520 -0.3729  0.4473
55387ION     NA98481   3.292   7.003   8.969 -0.4697  0.8963  0.1225
55388ION     NA98482  21.396  18.012  31.172 -0.0532 -0.2245  0.6052
55389ION     NA98483  13.967  34.292   9.171  0.1841 -0.0195  0.2277
55390ION     NA98484  29.034  34.644   6.620 -0.4491 -0.0798 -0.0981
55391ION     NA98485   2.655   7.333   7.244 -0.0522 -0.2205 -0.6082
55392ION     NA98486  10.233  22.884   3.609  0.0264  0.2797 -0.5205
55393ION     NA98487   6.429   9.922   7.960  0.1078  0.2088  0.0194
55394ION     NA98488  34.406  19.702   2.345 -0.0917 -0.0849 -0.2079
55395ION     NA98489  13.645   2.968   5.853 -0.0804 -0.3375 -0.0796
55396ION     NA98490  24.435   2.057   7.681 -0.7923 -0.0157  0.0840
55397ION     NA98491  14.739  14.113   3.241 -0.5827 -0.3834  0.0438
55398ION     NA98492  30.757  21.373   7.882 -0.1969  0.0128 -0.6420
55399ION     NA98493  28.513  29.315  31.742 -0.1345  0.0319  0.5205
55400ION     NA98494  23.086  24.220   3.391  0.2135  0.4012  0.0952
55401ION     NA98495  23.032  25.692   6.346 -0.1173 -0.4740  0.2175
55402ION     NA98496   4.439  23.688   1.807  0.0621 -0.4057  0.5626
55403ION     NA98497  10.845   4.166   0.368  0.0256 -0.6853  0.2876
55404ION     NA98498  23.139  10.981   6.028  0.1617 -0.2387 -0.2229
55405ION     NA98499  14.876   3.543   4.879  0.5948 -0.0710  0.1709
55406ION     NA98500  18.426  21.334   4.279  0.6253 -0.3734 -0.3545
55407ION     NA98501  22.980  13.885   7.436  0.0017 -0.2596 -0.4147
55408ION     NA98502  31.969  12.535   5.131 -0.0040  0.4967  0.5939
55409ION     NA98503  28.004   3.051   3.276 -0.1949 -0.4264  0.0274
55410ION     NA98504  32.304  21.186   6.544  0.5838 -0.1194 -0.1360
55411ION     NA98505  15.166  29.600   3.655  0.0543  0.2722 -0.1588
55412ION     NA98506  16.656  24.881   8.049 -0.1833 -0.2632 -1.2288
55413ION     NA98507  28.361  12.068   6.120  0.2914 -0.0999 -0.4501
55414ION     NA98508  31.664  22.825   1.986 -0.4673  0.3005  0.2081
55415ION     NA98509  34.108  34.098   4.506  0.1452  0.1276 -0.2991
55416ION     NA98510   8.104   6.868   5.878  0.5857 -0.0431 -0.5913
55417ION     NA98511  25.257   5.376   5.125  0.2650  0.0494  0.1392
55418ION     NA98512  27.513   2.031   6.792 -0.1723  0.1188 -0.0466
55419ION     NA98513  31.044  13.219   9.625 -0.6611 -0.0896  0.2792
55420ION     NA98514   2.717  28.118   1.321 -0.1579  0.6273 -0.1333
55421ION     NA98515  10.653  22.890   6.414  0.1943  0.1909  0.0023
55422ION     NA98516  29.546   6.640   0.438  0.4840  0.2431  0.1842
55423ION     NA98517  26.331  27.102   7.349  0.2122  0.3594  0.0367
55424ION     NA98518  26.317   4.900   6.843  0.3433 -0.1802  0.0662
55425ION     NA98519  20.832  30.369   2.766 -0.3161  0.2173 -0.3952
55426ION     NA98520   9.193   8.713   0.828 -0.2364  0.1793  0.1257
55427ION     NA98521  22.939  18.525   5.570  0.3066 -0.1394  0.5359
55428ION     NA98522  28.425   1.053   8.457 -0.0095  0.0755 -0.7242
55429ION     NA98523  29.144  25.088   6.222 -0.1901  0.4338 -0.0277
55430ION     NA98524  18.429   3.868   3.986 -0.0695  0.0047  0.3177
55431ION     NA98525  27.006  16.413   1.762 -0.2324  0.1179 -0.1564
55432ION     NA98526   6.101  27.010  30.879 -0.0338 -0.4351  0.3648
55433ION     NA98527  20.253  19.594   2.479  0.3250  0.5110 -0.2352
55434ION     NA98528  10.811  14.048   8.798 -0.0567 -0.0967 -0.4121
55435ION     NA98529  16.788   1.714   1.987  0.5303 -0.4678 -0.1748
55436ION     NA98530  30.696  32.737   1.271  0.5088  0.3888  0.0572
55437ION     NA98531  32.393  25.447   8.530  0.4641 -0.1547 -0.5666
55438ION     NA98532   6.484  18.966   0.288  0.4348 -0.3254  0.4811
55439ION     NA98533   0.544  12.672   2.872  0.2920 -0.2118  0.0475
55440ION     NA98534   4.493  29.615   2.339  0.6235 -0.4461 -0.1170
55441ION     NA98535  25.163   3.889   1.613 -0.9045  0.3481  0.2897
55442ION     NA98536   3.514   0.298   6.413  0.1717  0.1771 -0.0944
55443ION     NA98537  13.146  15.639   1.979 -0.0624  0.3143  0.0678
55444ION     NA98538  10.843   3.834   4.098 -0.0095 -0.3354  0.2676
55445ION     NA98539  21.760  32.082   9.084  0.4944  0.1027 -0.2683
55446ION     NA98540  17.819  15.805   0.439  0.2540  0.3373 -0.2306
55447ION     NA98541  12.958  27.554   2.694  0.0904  0.4039  0.1242
55448ION     NA98542  12.936  31.290   3.814  0.0921  0.1393 -0.0679
55449ION     NA98543  16.651  34.222   1.794  0.5760 -0.3315  0.1509
55450ION     NA98544  30.780   1.138   3.984  0.3352 -0.3514  0.2807
55451ION     NA98545  13.918  28.716   8.695  0.4173  0.3050 -0.3621
55452ION     NA98546  21.732  17.260   1.746  0.1815  0.2563 -0.3432
55453ION     NA98547   5.313  29.348   0.706 -0.1724 -0.2580  0.1040
55454ION     NA98548  11.832  13.853   7.576 -0.5455  0.2220  0.0685
55455ION     NA98549   9.484  12.270  30.502  0.0025  0.0984 -0.3683
55456ION     NA98550  27.694  30.386   0.652  0.1116  0.3011 -0.3538
55457ION     NA98551   3.502  31.761   2.457  0.6600 -0.3895 -0.2013
55458ION     NA98552  27.965  15.365   9.243  0.2901  0.4066  0.1190
55459ION     NA98553  19.674  34.600   2.532 -0.3365  0.2254 -0.1462
55460ION     NA98554  22.676  30.801   8.954 -0.8313  0.0066 -0.2008
55461ION     NA98555  15.226  25.549   3.899  0.1795 -0.2285  0.5651
55462ION     NA98556  28.695  24.179   1.566 -0.7561 -0.0957  0.1001
55463ION     NA98557   8.117  13.539   5.795 -0.3664 -0.2662  0.1781
55464ION     NA98558  34.630  16.113   9.141 -0.2554  0.1925  0.4903
55465ION     NA98559  33.928  28.005   6.426 -0.2609  0.0975 -0.1674
55466ION     NA98560  34.121   6.498   5.390  0.1992  0.1793 -0.2052
55467ION     NA98561  25.609  25.154   7.877 -0.0877  0.2540 -0.5011
55468ION     NA98562   6.744   7.928   8.721 -0.4988  0.0574  0.3534
55469ION     NA98563  30.087   7.512   8.534  0.0110  0.2333 -0.3237
55470ION     NA98564  26.294  22.006   9.554  0.4731  0.4262  0.1697
55471ION     NA98565  31.452  32.890   7.004 -0.1944 -0.0699  0.1499
55472ION     NA98566  26.469  17.259   9.027  0.1940 -0.1181  0.1968
55473ION     NA98567  19.540  17.391   8.225  0.0815  0.4439  0.1432
55474ION     NA98568  25.325   5.697   3.357 -0.0893  0.4188  0.0465
55475ION     NA98569  33.710  13.067   1.465  0.2886 -0.0637  0.0260
55476ION     NA98570   1.294  22.177   9.339 -0.2331  0.0463 -0.4347
55477ION     NA98571   1.111  17.417   7.966  0.2193  0.1596 -0.4809
55478ION     NA98572  30.047  21.689   6.612  0.2376  0.2865  0.3466
55479ION     NA98573  21.325  15.902   2.316 -0.0921  0.1034 -0.2526
55480ION     NA98574   9.682  27.599   8.025 -0.1662 -0.4116  0.2475
55481ION     NA98575   6.132   4.430   3.476 -0.0290 -0.1537 -0.2170
55482ION     NA98576  16.393  33.444   7.185  0.3068 -0.1851  0.0538
55483ION     NA98577  10.929  26.041   4.924 -0.0060  0.1737  0.5588
55484ION     NA98578  16.926   8.285   1.369 -0.0097  0.1186  0.4719
55485ION     NA98579  17.389  24.220   6.648  0.0164  0.0440  0.0633
55486ION     NA98580  16.181  28.641   5.440 -0.0452 -0.2760 -0.0691
55487ION     NA98581  30.680  28.417   2.967 -0.0299 -0.3275 -0.2166
55488ION     NA98582  11.742  18.755   4.761  0.4132  0.1746  0.1641
55489ION     NA98583   2.902  30.556   7.179 -0.0851  0.3842 -0.3556
55490ION     NA98584  12.766  19.101   8.366 -0.0080  0.3764 -0.1838
55491ION     NA98585   3.986  12.217   3.210 -0.3125 -0.2978  0.4626
55492ION     NA98586  16.700  21.831   4.212  0.1831  0.0685  0.1705
55493ION     NA98587  13.741   0.306   2.673 -0.6869 -0.5410  0.5599
55494ION     NA98588  33.302   6.330   1.548 -0.2747 -0.1708 -0.1460
55495ION     NA98589  13.934  21.430   5.270  0.6162  0.0568  0.4291
55496ION     NA98590  26.538   0.509  31.977  0.4756 -0.0174  0.3718
55497ION     NA98591   5.330  21.091   6.944  0.6158  0.0334  0.4582
55498ION     NA98592  33.599   5.758   2.630 -0.2782 -0.7291  0.0278
55499ION     NA98593  20.893   1.247   5.621  0.0280 -0.0547 -0.0949
55500ION     NA98594  26.604  31.504   8.939 -0.3660  0.5360 -0.2369
55501ION     NA98595  10.160  27.987   1.528 -0.0063 -0.5668  0.2104
55502ION     NA98596  29.125  31.265   1.546  0.3430 -0.3406  0.0713
55503ION     NA98597  11.974   9.745   5.883 -0.3107 -0.0354 -0.2738
55504ION     NA98598   1.968  34.112   7.744  0.6874 -0.0195  0.3452
55505ION     NA98599  19.210   0.768   3.267 -0.4496 -0.2888  0.2268
55506ION     NA98600  22.936  18.104   1.959  0.5025  0.3127  0.2324
55507ION     NA98601  32.822  19.812   7.610 -0.2584 -0.5436 -0.0510
55508ION     NA98602  31.434   5.818   3.873 -0.1972  0.2551 -0.1660
55509ION     NA98603   3.817   3.378   2.944 -0.2920  0.1708  0.3148
55510ION     NA98604  32.977  15.824   7.036 -0.4334  0.1149 -0.1529
55511ION     NA98605   4.600  28.702   5.132 -0.3162 -0.4123 -0.6625
55512ION     NA98606  32.384   2.881   1.637 -0.0605  0.3359 -0.0798
55513ION     NA98607  15.114  29.877   0.889 -0.0054  0.4605 -0.0241
55514ION     NA98608  19.828  17.037   6.867  0.1922 -0.4408  0.7022
55515ION     NA98609  19.648  32.770   1.687 -0.1347 -0.3350  0.3610
55516W        W98610   2.041   2.676   3.315  0.1118  0.2149  0.1861
55517W        W98611   0.492   1.341   2.061  0.0514 -0.1864  0.3231
55518W        W98612   3.365   0.436  31.564  0.1288 -0.0192 -0.0907
55519W        W98613   2.839   1.589   0.554 -0.2923 -0.2541 -0.0883
55520W        W98614   0.424   1.514   0.784 -0.0770 -0.1485 -0.1508
55521W        W98615   2.373   3.106   2.007 -0.1037  0.3841  0.2551
55522W        W98616  34.429   0.187   2.674  0.0505 -0.3666 -0.2219
55523W        W98617   1.412   2.971   2.709 -0.4381  0.1945  0.0719
55524W        W98618   2.571   3.088   1.551 -0.1991  0.1020  0.1050
55525W        W98619   1.925   3.227   0.379 -0.1844 -0.2160 -0.1582
55526W        W98620   2.759   1.828   2.408  0.0749  0.3658  0.2054
55527W        W98621   0.135   1.858   3.330 -0.0183 -0.1202 -0.1544
55528W        W98622   1.987   2.163   1.209  0.0076  0.1470 -0.0674
55529W        W98623   1.112   0.067   2.144  0.0498 -0.1120 -0.5225
55530W        W98624   4.508   0.869   2.473  0.0159  0.1596  0.0514
55531W        W98625   0.012   1.663   2.279 -0.3629  0.1075 -0.2297
55532W        W98626   0.112   1.493   1.674 -0.0515  0.1704 -0.3128
55533W        W98627   3.250   1.580   1.641  0.4014  0.2043 -0.3211
55534W        W98628   1.743   3.955   0.729  0.0786 -0.1547 -0.3059
55535W        W98629   1.808   0.823   2.744  0.1795 -0.1588 -0.0347
55536W        W98630   3.100  34.527   2.568 -0.1139 -0.4050 -0.3594
55537W        W98631   1.331   2.555   0.530 -0.1874  0.1587 -0.1541
55538W        W98632   0.637   1.148   0.489 -0.2852 -0.1923 -0.0406
55539W        W98633  34.071   3.294   2.244  0.0441  0.2166 -0.0113
55540W        W98634   1.447   1.959   2.661  0.1379 -0.1834  0.2239
55541W        W98635   0.605   0.144   1.350  0.0588 -0.1130  0.3163
55542W        W98636   3.977   1.078   1.192 -0.0507  0.0397  0.1216
55543W        W98637   1.054   2.172   2.264 -0.0083 -0.1693 -0.0304
55544W        W98638   3.031   2.508   0.663 -0.0916 -0.0830  0.1293
55545W        W98639   3.607   2.415   2.065 -0.2544  0.0174 -0.0351
55546W        W98640   0.360   2.226   1.547 -0.0458 -0.0352 -0.2415
55547W        W98641  34.033   3.370   0.948 -0.4568 -0.1481  0.1711
55548W        W98642   0.767   2.343   2.665 -0.2040 -0.0258 -0.1282
55549W        W98643   4.508   3.398   0.884  0.0208 -0.0687 -0.1124
55550W        W98644   2.873   2.662   4.304 -0.0024 -0.2834 -0.0807
55551W        W98645   1.031   3.621   3.428  0.2283 -0.3360  0.1296
55552W        W98646  34.626   3.780  31.607  0.1120  0.1449  0.2044
55553W        W98647   1.470   3.855   4.269 -0.3375  0.0082  0.4402
55554W        W98648   0.456   2.129   4.590  0.2368 -0.2572 -0.4052
55555W        W98649   1.862   1.488   2.533 -0.3737  0.1360 -0.0063
55556W        W98650   2.871   1.812   1.837 -0.3106 -0.0280  0.2685
55557W        W98651   1.475   2.664   0.019  0.1116  0.0396 -0.1504
55558W        W98652  33.924   2.730   2.408  0.0060  0.1578  0.1079
55559W        W98653   0.144   2.409   3.251  0.2871 -0.3767  0.1059
55560W        W98654   0.611   1.637   3.094  0.0391 -0.3047  0.0570
55561W        W98655   4.144   2.479   4.983 -0.3617 -0.3454 -0.3368
55562W        W98656   0.859   4.694  31.549 -0.0488 -0.0862  0.0912
55563W        W98657   3.347   0.749  31.133  0.0824  0.2385 -0.1821
55564W        W98658   1.611   2.120   0.111 -0.0285  0.2694  0.3136
55565W        W98659   2.939   1.511  31.724 -0.0884  0.0588  0.0353
55566W        W98660   1.539   0.387   1.856 -0.1406 -0.0069 -0.1263
55567W        W98661   0.438   2.649   2.505 -0.0424  0.0948 -0.0041
55568W        W98662   1.642   2.189   0.688  0.0189 -0.0744  0.3006
55569W        W98663   3.944   3.901   3.786 -0.0391  0.1957  0.1945
55570W        W98664   1.628   1.878   1.552 -0.0241 -0.2262 -0.0831
55571W        W98665   3.713   1.958   1.702  0.2654 -0.1764  0.1452
55572W        W98666   0.013   1.663   2.803  0.2702  0.0491  0.0277
55573W        W98667  33.884   2.384   1.168 -0.1656 -0.2549  0.1755
55574W        W98668   2.055   2.177   0.267  0.2295 -0.3668  0.3224
55575W        W98669   3.926   2.683   1.110 -0.1569 -0.2464  0.5266
55576W        W98670   1.656   3.031   0.764  0.0651 -0.2913  0.0052
55577W        W98671   0.893   1.423  31.372  0.0976  0.0900  0.2090
55578W        W98672  34.662   2.054   4.451  0.0553 -0.2198 -0.1159
55579W        W98673  34.662   2.169   2.835 -0.0126 -0.1007  0.0342
55580W        W98674   0.638  33.896  30.984  0.0834 -0.1644 -0.0758
55581W        W98675   3.288   3.977   2.682  0.2178  0.2851 -0.0974
55582W        W98676  34.210   2.624   2.825  0.1827 -0.0087 -0.4558
55583W        W98677   4.291   1.659   2.283 -0.0831 -0.1456  0.0867
55584W        W98678   1.109   2.167   3.009  0.0851 -0.0088  0.2549
55585W        W98679   2.509   2.733   2.359 -0.1105  0.1599  0.2276
55586W        W98680   3.344   2.479   0.288 -0.2013  0.1933 -0.1177
55587W        W98681   2.095   0.469   2.505  0.0714 -0.0993  0.2035
55588W        W98682   3.268   0.578   2.258  0.1094  0.2341 -0.1243
55589W        W98683   1.576   2.166  31.618  0.1178 -0.0968 -0.0939
55590W        W98684   1.810   2.642   0.433 -0.1899  0.0261  0.4856
55591W        W98685   4.225   2.959   2.339  0.0104  0.2569 -0.1541
55592W        W98686   3.085   2.488  31.809  0.1371  0.0128  0.0566
55593W        W98687  34.561   4.075   2.691  0.3221  0.2184  0.1815
55594W        W98688   2.069   0.949   1.750  0.1768 -0.2635  0.0619
55595W        W98689   0.806   2.884   3.798 -0.1458  0.3522 -0.2914
55596W        W98690  34.671   3.485   1.344  0.2786  0.0137 -0.0475
55597W        W98691  34.626   3.692   2.405 -0.1525 -0.0111  0.0513
55598W        W98692  34.654   3.403   0.840  0.3685  0.1811  0.3746
55599W        W98693   0.251  34.591   1.001 -0.0444 -0.3887  0.2261
55600W        W98694   0.940   1.623   2.044 -0.0628  0.1039  0.2671
55601W        W98695   3.617   1.186   1.602  0.0597  0.1377  0.3222
55602W        W98696   0.591   0.163   0.755  0.1355 -0.0233 -0.1670
55603W        W98697   1.931  34.624   2.753  0.4818  0.1524 -0.2093
55604W        W98698   1.099   1.799   1.532 -0.1311 -0.1063 -0.2741
55605W        W98699   3.038   4.405   0.856  0.1227  0.0888 -0.0191
55606W        W98700   4.734   0.787   0.711 -0.0420  0.1319 -0.0246
55607W        W98701   3.497   2.967   1.201  0.0402  0.0014 -0.1911
55608W        W98702  33.759   1.393   2.641  0.0738 -0.1241  0.0009
55609W        W98703   0.925   0.297   1.719 -0.0578 -0.0359 -0.3387
55610W        W98704   0.646   1.216   3.441  0.0806 -0.2528 -0.2348
55611W        W98705   0.802  34.459   1.098  0.0349  0.1921  0.0456
55612W        W98706   2.864   1.307   3.679 -0.0031  0.2055  0.0474
55613W        W98707  34.651   0.003   0.486  0.0393 -0.2454  0.0376
55614W        W98708   4.496   1.601   1.800  0.0420  0.3151  0.0930
55615W        W98709   0.575   0.703   1.150  0.0102 -0.0012 -0.3400
55616W        W98710  34.315   3.094   0.579 -0.1640 -0.1364  0.0637
55617W        W98711   3.781  34.636   5.626 -0.2550  0.1616 -0.2351
55618W        W98712   2.533   3.626   0.511 -0.1733 -0.1296  0.2459
55619W        W98713   2.744   3.585   1.363 -0.3590  0.1488 -0.2709
55620W        W98714  33.918   0.890   2.877 -0.1190  0.0248 -0.0106
55621W        W98715   0.720   0.876   1.719  0.1296  0.0994 -0.3978
55622W        W98716  34.359   3.328   3.549 -0.0149  0.1577 -0.1519
55623W        W98717   1.416   1.588   2.346 -0.2344  0.0448 -0.0983
55624W        W98718   2.836   1.064   0.022 -0.0106 -0.0919 -0.1286
55625W        W98719   2.797   2.770   1.921  0.2230  0.0359 -0.3195
55626W        W98720   1.992   2.652   1.349  0.0223 -0.0347 -0.1216
55627W        W98721  34.469   2.889   3.239  0.1304 -0.0580 -0.2924
55628W        W98722   4.165   0.991   3.629  0.0508 -0.1388  0.0430
55629W        W98723   4.427   2.444   2.572  0.0144 -0.1733  0.0712
55630W        W98724   2.918   2.198   1.220  0.1513 -0.2063 -0.1096
55631W        W98725   0.457  34.635   0.267  0.2655 -0.0269 -0.0477
55632W        W98726   2.446   2.821   1.132  0.1986 -0.0458  0.2029
55633W        W98727   0.543   2.722   0.619  0.1716  0.0559  0.2976
55634W        W98728  33.892   0.643   0.361 -0.0156  0.1037 -0.1530
55635W        W98729   1.062   2.691   1.271  0.2920  0.2823  0.3361
55636W        W98730   4.600   1.787   2.637  0.0099 -0.0159  0.3001
55637W        W98731   0.180   2.148   5.403  0.1668  0.0110 -0.1112
55638W        W98732   3.919   2.598   2.494 -0.1354  0.2389  0.1729
55639W        W98733  34.682   1.395   0.588 -0.3571 -0.2002 -0.4580
55640W        W98734  34.349   1.985   3.275  0.1045 -0.0063 -0.2720
55641W        W98735   2.549   0.395   1.577  0.0417 -0.1257 -0.4343
55642W        W98736   3.600   1.479   1.233  0.3265 -0.1138 -0.0527
55643W        W98737   1.520   1.046   3.695 -0.4085  0.0063  0.3477
55644W        W98738   2.142   2.997   0.732 -0.0359  0.3092  0.2902
55645W        W98739   3.430   1.806  31.862  0.2296 -0.2560 -0.1032
55646W        W98740   2.702   2.113   0.684 -0.2727  0.0361  0.0060
55647W        W98741   1.643   2.412   3.518  0.2983  0.0881 -0.2502
55648W        W98742   1.484   2.597   1.014 -0.0352 -0.0372  0.3087
55649W        W98743   1.876   3.070   3.509  0.0205  0.1556 -0.1274
55650W        W98744   1.494   1.369  31.431 -0.0330  0.2670 -0.3527
55651W        W98745   4.241   3.227   0.513  0.0417  0.2447  0.1322
55652W        W98746   0.465   2.636   3.004 -0.0421  0.3533 -0.0199
55653W        W98747   2.674   2.914   4.688  0.4225  0.2127  0.0480
55654W        W98748   2.724   2.077   3.007  0.1186  0.2951  0.1750
55655W        W98749   0.122   0.922   1.608  0.0439 -0.1458  0.4207
55656W        W98750   1.360   2.110   1.222  0.0313 -0.1443  0.1564
55657W        W98751   1.801   1.659   0.392  0.1798  0.0297 -0.0455
55658W        W98752  33.770   2.646  31.069 -0.2357 -0.0199  0.0273
55659W        W98753   2.846   0.806   3.549 -0.1679  0.1937  0.3233
55660W        W98754   1.848   1.711   2.074  0.3210  0.0032  0.1840
55661W        W98755   3.632   2.107   2.836 -0.2903  0.1994 -0.2920
55662W        W98756   2.585   0.998   4.013 -0.0304  0.2458 -0.0504
55663W        W98757   3.396   1.947   1.261 -0.1955  0.0557 -0.0949
55664W        W98758   2.361   1.978   2.063  0.1153  0.1848  0.1019
55665W        W98759   0.814   0.869  31.974  0.0098  0.0142 -0.2368
55666W        W98760   3.414   1.070   2.947 -0.2640 -0.0148  0.0623
55667W        W98761   2.084   2.112   4.129  0.1891  0.1794  0.2355
55668W        W98762  33.471   2.370   3.751 -0.0923 -0.1407 -0.0550
55669W        W98763   3.116   2.294   1.733  0.2961  0.0725 -0.1434
55670W        W98764   3.543   2.858   2.297  0.0661 -0.0011  0.1400
55671W        W98765   1.807   1.221   3.239 -0.0120 -0.2781 -0.0947
55672W        W98766   2.015   0.019   0.695  0.3729 -0.1602 -0.2401
55673W        W98767   2.025   4.520  31.727 -0.0407  0.0252 -0.0241
55674W        W98768   0.078   2.903   0.950  0.3797  0.2678  0.0695
55675W        W98769   1.620   0.506   1.294 -0.0756  0.2564  0.0543
55676W        W98770   1.599   2.638   3.048 -0.3383 -0.3022 -0.0779
55677W        W98771   2.435   3.058  31.230  0.2013  0.0799 -0.2405
55678W        W98772   3.513   2.584   2.735 -0.0506  0.1869  0.2158
55679W        W98773  34.686   2.194   1.233 -0.0126  0.1612  0.2874
55680W        W98774   2.946   0.485   1.903 -0.4187 -0.1435  0.1212
55681W        W98775  34.532   4.527   1.612 -0.0161  0.0780  0.0886
55682W        W98776  34.240   0.778   0.056  0.1951 -0.2795  0.0491
55683W        W98777  34.172   2.138   1.817 -0.0023 -0.0675 -0.1182
55684W        W98778   2.413   1.723   2.871 -0.0654  0.0609 -0.0745
55685W        W98779   2.061   1.648  30.836  0.0170 -0.1644 -0.0041
55686W        W98780  34.260   2.096   0.961  0.1296  0.0156  0.2061
55687W        W98781   2.043   1.946   2.502  0.0147  0.1206 -0.0251
55688W        W98782  33.618   3.158   2.505 -0.1218 -0.0455  0.1030
55689W        W98783   2.546   2.535   3.220 -0.0404 -0.0212 -0.0238
55690W        W98784   3.016   0.540  31.969  0.0835 -0.1902  0.1113
55691W        W98785   2.825   4.090   2.905 -0.2721 -0.4160 -0.3195
55692W        W98786   1.452   0.917   4.174 -0.1632  0.0083 -0.1876
55693W        W98787  34.572   0.816  31.252  0.0366  0.2214  0.1069
55694W        W98788   2.848   1.344   2.052  0.1773  0.0658  0.2107
55695W        W98789   1.283   2.023   0.438 -0.0856 -0.0497 -0.0410
55696W        W98790   0.428   2.006   2.806  0.2652  0.1855 -0.0147
55697W        W98791   0.889   3.927   1.656 -0.1622 -0.1885 -0.2726
55698W        W98792   0.483   2.044   0.904  0.0417  0.2581 -0.0417
55699W        W98793   0.781   1.432   1.604 -0.0560  0.1627  0.1038
55700W        W98794   0.371   0.835   2.121  0.1053 -0.0940  0.1679
55701W        W98795   3.872   3.090   3.271 -0.0586 -0.1178  0.0961
55702W        W98796   1.756   1.222   2.114  0.1514 -0.0782  0.0048
55703W        W98797   2.349   1.634   0.599  0.0282 -0.0140 -0.1096
55704W        W98798   2.320   2.653   1.833 -0.1723  0.3070 -0.3155
55705W        W98799   3.104   2.190   2.668 -0.0425 -0.3571 -0.0115
55706W        W98800   2.126   2.455   2.209  0.1178  0.1938  0.1430
55707W        W98801   0.570   2.625   3.485  0.0620  0.2922  0.1241
55708W        W98802   1.559  34.400   2.242  0.1093  0.2737 -0.1280
55709W        W98803   0.869   3.155   1.390  0.2602 -0.0865 -0.1268
55710W        W98804   2.920   1.854   3.628 -0.0835 -0.1631 -0.1533
55711W        W98805   0.920   1.834   2.648 -0.3614  0.1220  0.2857
55712W        W98806  34.693   1.994   1.896 -0.0914 -0.1384  0.0185
55713W        W98807   0.820   2.214   1.285 -0.0111  0.0856 -0.0818
55714W        W98808   2.992   2.340   3.553 -0.2433  0.1815 -0.0715
55715W        W98809  34.646   2.579   2.513 -0.0587 -0.0235  0.0047
55716W        W98810   0.980   3.851   0.137  0.1538 -0.0622 -0.3005
55717W        W98811  33.921   2.531   3.277 -0.1259 -0.1628 -0.0856
55718W        W98812   4.041   0.066   1.656 -0.2677  0.2085  0.0497
55719W        W98813   2.000   1.561   1.112 -0.2842 -0.1245 -0.1601
55720W        W98814   3.206   1.176   1.297 -0.0324  0.0583 -0.0841
55721W        W98815   4.620   0.212   3.211  0.1804 -0.1070  0.1798
55722W        W98816   2.255   2.218  30.746 -0.1112  0.1975  0.1595
55723W        W98817   3.734   1.568   2.973 -0.1943  0.2239  0.0566
55724W        W98818   1.374   1.459   1.853  0.4586  0.0355 -0.3574
55725W        W98819   3.070   2.603   2.444 -0.3055  0.0413 -0.0562
55726W        W98820  34.542   1.071   2.087  0.0764 -0.2686  0.0386
55727W        W98821   1.315   3.287   4.452 -0.0743  0.0280  0.0170
55728W        W98822   1.955   1.356   3.780  0.0220  0.3270  0.1732
55729W        W98823   2.497   1.960   0.216  0.1108  0.1476  0.0418
55730W        W98824   2.635   0.717  31.638  0.0075 -0.5088 -0.1314
55731W        W98825   2.404   1.904   3.410  0.0818 -0.0857 -0.1622
55732W        W98826   4.084   2.573   1.567 -0.2109 -0.3442 -0.0586
55733W        W98827   0.217   2.330   0.571 -0.1640  0.3749  0.0523
55734W        W98828   5.570   1.398   1.747  0.0858 -0.0646 -0.1154
55735W        W98829   0.243   0.902   2.911  0.2284  0.1387  0.2923
55736W        W98830   4.531   1.345   1.373  0.0779  0.1344 -0.0973
55737W        W98831   2.779   2.401   0.275  0.1508  0.2108  0.0812
55738W        W98832   3.272   2.009   3.159  0.0153  0.3902 -0.1734
55739W        W98833   1.361   0.393   2.985  0.1593 -0.1876  0.3553
55740W        W98834   2.548   2.177   1.651 -0.1895  0.0940  0.1564
55741W        W98835   2.541   0.765   1.855  0.1166 -0.0575  0.0524
55742W        W98836   2.403   1.385   1.842 -0.1002  0.0610  0.3096
55743W        W98837   2.692   1.329   2.571  0.0364 -0.3019  0.2372
55744W        W98838   1.534   1.590   3.606 -0.2189 -0.0630  0.0947
55745W        W98839  34.477   1.175   2.837  0.0803  0.1477  0.0096
55746W        W98840   3.043   3.834   3.329 -0.0298  0.3408 -0.0197
55747W        W98841   2.584   1.817   1.256 -0.1811  0.1158  0.1299
55748W        W98842   5.025   0.660   2.626  0.1930  0.1208  0.0808
55749W        W98843   6.214   1.224   0.161  0.1371 -0.0048  0.0543
55750W        W98844   3.325   1.529   0.810 -0.0425 -0.0248 -0.2923
55751W        W98845   1.075   0.164   0.817  0.0684  0.1286 -0.1106
55752W        W98846   2.867   2.882   3.324  0.0258 -0.2027 -0.2297
55753W        W98847   1.027   1.150   2.058  0.0763 -0.0672  0.1101
55754W        W98848   2.826   0.316   2.418 -0.3500  0.2093 -0.2462
55755W        W98849   1.427   3.589   0.192 -0.1423  0.2352 -0.0338
55756W        W98850   3.890   1.506   1.891 -0.1009  0.0901  0.4934
55757W        W98851   3.688   1.832   0.855 -0.0333  0.0825 -0.0281
55758W        W98852   1.139   0.636   1.389  0.2102 -0.0755  0.2935
55759W        W98853   0.579   2.323   5.146 -0.0421 -0.0345 -0.0651
55760W        W98854   0.896   1.595   0.488  0.4752 -0.0234 -0.1570
55761W        W98855   0.982   2.249   1.716 -0.0093 -0.0097 -0.1513
55762W        W98856   1.620   2.117   3.133 -0.5709 -0.0085  0.0015
55763W        W98857   2.803   1.758   4.105 -0.0224  0.0850  0.2241
55764W        W98858   3.576   0.748   1.399  0.1339 -0.0035  0.1238
55765W        W98859   2.682   0.594   3.153 -0.0950  0.2174 -0.1876
55766W        W98860   0.547   2.942   1.095  0.1709 -0.1026 -0.1078
55767W        W98861   2.262   1.445   3.385  0.0268 -0.4577  0.0999
55768W        W98862   0.131   3.856   3.029 -0.0622  0.0397 -0.1743
55769W        W98863  34.378   1.476   4.949  0.4015  0.2548 -0.1548
55770W        W98864   1.863   2.692   1.874  0.0746  0.1271 -0.2120
55771W        W98865   1.474   0.858   1.673  0.2304 -0.2049 -0.4622
55772W        W98866   4.534   2.088   2.197 -0.2335  0.0106  0.0998
55773W        W98867   1.479   1.264   2.873  0.0035  0.1146 -0.0329
55774W        W98868   4.363   1.387   2.749 -0.2026  0.2027  0.1374
55775W        W98869   1.834   1.624   4.126 -0.1304  0.0332  0.2047
55776W        W98870   1.603   0.746   3.304 -0.1375 -0.0290  0.0386
55777W        W98871   0.601   3.950   3.432  0.1973 -0.2745  0.0960
55778W        W98872   4.454   2.419   0.697 -0.2193  0.1101 -0.0495
55779W        W98873   2.400   2.312   2.575 -0.1631  0.0247  0.0228
55780W        W98874   0.058   0.375   1.454  0.2159  0.2883  0.0798
55781W        W98875   2.230   1.217   2.772 -0.0125  0.1761  0.0407
55782W        W98876   2.337   2.851   3.653 -0.0653 -0.3106 -0.1872
55783W        W98877   1.296   0.116   1.317  0.2284  0.1608  0.1208
55784W        W98878   0.819   1.928  31.282 -0.0860  0.4207  0.1191
55785W        W98879   0.842   2.944   4.648 -0.1576 -0.0175 -0.1962
55786W        W98880  34.282   1.395   2.389  0.0489 -0.0085 -0.2700
55787W        W98881   0.307   2.504   1.051  0.2493  0.0528  0.0581
55788W        W98882   2.754   2.594   1.460 -0.2254  0.2755 -0.0061
55789W        W98883   2.793   2.766  31.482 -0.1623 -0.0418  0.1813
55790W        W98884   2.479   3.766   2.684  0.3087  0.0180  0.0227
55791W        W98885   2.017   1.188   0.335  0.2581  0.0321  0.1149
55792W        W98886   0.254   3.048   3.187 -0.0509  0.3016  0.0516
55793W        W98887  34.076   3.460  31.162  0.1807 -0.1916 -0.2173
55794W        W98888   1.510   2.728  31.457 -0.1615  0.0307  0.0076
55795W        W98889   0.512   2.906   1.967 -0.1696  0.2280 -0.1247
55796W        W98890   3.778   2.188   4.041 -0.0793 -0.3655  0.0633
55797W        W98891   4.839   1.047   1.121  0.0096  0.1995 -0.3252
55798W        W98892   4.834   2.111   0.937  0.2924 -0.1671 -0.0008
55799W        W98893   3.522   1.029   2.134  0.2615  0.2450 -0.0183
55800W        W98894   2.022   2.995   4.020 -0.0164  0.0595  0.0403
55801W        W98895  33.966   1.151   1.971 -0.1720  0.0188 -0.0612
55802W        W98896   2.181   0.639  31.708  0.2658 -0.2692  0.0400
55803W        W98897   0.921   0.349   3.811  0.0076  0.0272  0.0769
55804W        W98898   5.269   0.392   4.027 -0.2389  0.2184  0.0832
55805W        W98899  34.420   4.356   3.668  0.1780  0.0589  0.1000
55806W        W98900   2.414   2.315   1.081 -0.3935  0.0241  0.1127
55807W        W98901   2.296   1.170   1.401 -0.4308 -0.0324 -0.0455
55808W        W98902   1.816   2.328   2.695 -0.1840  0.1715 -0.1011
55809W        W98903   3.510   1.478   4.710  0.0198  0.1200 -0.2194
55810W        W98904   3.188   2.445  31.312 -0.0317 -0.2176  0.0018
55811W        W98905   2.264   1.034   2.232  0.3828  0.1327  0.2593
55812W        W98906   1.679   2.731   2.355 -0.1683 -0.1000  0.3214
55813W        W98907  34.526   3.387   2.985 -0.0649 -0.0609 -0.1373
55814W        W98908   0.983   2.872   1.790 -0.0834  0.1289 -0.1043
55815W        W98909   1.501   0.475   0.810 -0.1281 -0.0187 -0.1467
55816W        W98910   4.847   2.197   0.317  0.1497 -0.1879 -0.0186
55817W        W98911  34.691   0.772   2.483 -0.0947 -0.0967  0.2195
55818W        W98912   3.913   1.335   3.947  0.3964 -0.0460  0.2241
55819W        W98913   2.016   0.599   0.836  0.0582  0.1053 -0.0152
55820W        W98914   3.057   1.970   0.286 -0.0302  0.2287 -0.1793
55821W        W98915   3.086   2.064   4.435  0.1651 -0.0331 -0.1692
55822W        W98916  34.453   1.466   3.368  0.0790 -0.4444  0.1701
55823W        W98917   2.057   0.603   0.292  0.3262 -0.0107 -0.2276
55824W        W98918   4.578   2.403   3.039  0.0962  0.0651  0.0001
55825W        W98919   2.132   1.780   1.551  0.0916  0.0779  0.1282
55826W        W98920   2.557   2.249   4.469 -0.0029  0.3339 -0.0583
55827W        W98921   0.454  34.138   1.259  0.0144 -0.1834 -0.0501
55828W        W98922   3.521   1.060   0.915  0.2873  0.0815  0.1795
55829W        W98923   0.619   1.892   1.813  0.2832  0.1764 -0.2292
55830W        W98924   1.018   1.391   2.713  0.4483  0.0229 -0.1578
55831W        W98925   2.784   2.697   3.810  0.2030  0.1046 -0.3432
55832W        W98926   0.401   1.216   1.311  0.2101  0.0603  0.1127
55833W        W98927   3.073   0.908  31.599  0.2076  0.0378 -0.0527
55834W        W98928   4.845   2.430   2.358 -0.2405 -0.0559  0.1674
55835W        W98929   0.463   3.501   1.205 -0.2137  0.0704 -0.0092
55836W        W98930   4.581   2.258   1.715  0.0558 -0.0637  0.1081
55837W        W98931   3.825   3.370   3.841 -0.1472 -0.2961 -0.2485
55838W        W98932  34.206   0.315   2.203 -0.1855 -0.0419  0.0042
55839W        W98933   2.091   3.563   3.291  0.0216  0.3105  0.1445
55840W        W98934   4.912   2.630   1.849  0.1038 -0.1591  0.1278
55841W        W98935   2.204  34.375   0.955 -0.3266  0.0065  0.0039
55842W        W98936   0.236   1.037   0.219 -0.1520 -0.0720  0.2537
55843W        W98937   0.128   3.842   0.988 -0.2196  0.3436 -0.0902
55844W        W98938   3.178   0.591   3.194 -0.0227 -0.3343 -0.2811
55845W        W98939   1.673   0.743   2.274 -0.1143 -0.0909 -0.3811
55846W        W98940   0.847   2.375   0.383  0.0448 -0.0218  0.3292
55847W        W98941   2.339   0.978   5.099  0.1062  0.0788 -0.0717
55848W        W98942   1.851   3.098   3.025 -0.0913 -0.0154  0.1240
55849W        W98943   0.335   3.058   3.777  0.1997  0.0456 -0.2080
55850W        W98944   1.662   2.159   2.244  0.3223 -0.2465 -0.1100
55851W        W98945   4.268   2.769   3.240 -0.1723 -0.1138 -0.1636
55852W        W98946   1.373   1.948   1.951  0.0601 -0.1449 -0.1023
55853W        W98947   0.882   4.366   0.489 -0.1289  0.1052 -0.0596
55854W        W98948   3.752   3.102   1.633 -0.0458  0.0344 -0.0327
55855W        W98949   2.816   1.332   1.521  0.1050  0.1670 -0.2049
55856W        W98950   3.042   3.145   1.406 -0.0544 -0.1736 -0.0031
55857W        W98951   2.146   1.120   0.897 -0.0465  0.0787 -0.3337
55858W        W98952   4.467   0.252   1.466  0.2311  0.0370  0.1189
55859W        W98953   3.907   1.367   0.808  0.0203  0.3413 -0.1741
55860W        W98954   2.206   2.316   3.609 -0.1746 -0.3083 -0.0263
55861W        W98955   0.475   2.577   0.099  0.2789 -0.3747  0.1181
55862W        W98956   2.481   2.606   0.643 -0.3272 -0.1503  0.2551
55863W        W98957   0.623   2.151   3.219 -0.0447  0.2011 -0.0143
55864W        W98958   1.866   0.715   3.757 -0.3754 -0.4809 -0.0745
55865W        W98959   0.141   0.838   3.372 -0.2798  0.3206 -0.0212
55866W        W98960  32.891   1.372   2.511 -0.0558 -0.1326  0.0617
55867W        W98961   0.846   1.663   1.046 -0.3045  0.2326 -0.0134
55868W        W98962   3.253   3.032  31.842  0.4014  0.0287 -0.1074
55869W        W98963   0.974   0.866   2.930 -0.1614 -0.2719  0.1628
55870W        W98964   1.909   2.662  31.168  0.1434  0.0592 -0.0149
55871W        W98965   4.646   1.668   0.619 -0.1724 -0.1153  0.1051
55872W        W98966   1.978   0.279   1.596 -0.2057 -0.0911  0.0846
55873W        W98967   3.747   3.797   2.886  0.0725 -0.3048 -0.2225
55874W        W98968   0.969   2.187   0.804  0.1658  0.1419  0.2817
55875W        W98969   1.935   1.705   3.034  0.2214  0.3100 -0.2712
55876W        W98970   0.672   0.755   4.633 -0.1122  0.0909  0.1855
55877W        W98971  33.358   0.478   0.121  0.1257  0.0040 -0.0834
55878W        W98972  34.290   1.610   1.897  0.2676  0.2653 -0.1319
55879W        W98973   2.226   3.532   2.329  0.3314 -0.2223  0.2032
55880W        W98974   1.886   2.485  31.861 -0.2063  0.1055 -0.2704
55881W        W98975   2.700   2.318   2.123 -0.1380  0.0462 -0.1564
55882W        W98976   1.440   1.903   4.020 -0.0103 -0.2215  0.3592
55883W        W98977   0.383   0.433   1.803 -0.1011  0.0966  0.0611
55884W        W98978   2.115   2.038   0.754  0.1592  0.2572 -0.2203
55885W        W98979   0.844   2.286   3.741  0.2918 -0.2858  0.0883
55886W        W98980   4.176   2.001   1.545 -0.2852 -0.1808 -0.0042
55887W        W98981   3.861  33.599   2.145 -0.0497  0.0463  0.4847
55888W        W98982   4.052   2.221   1.978 -0.0175 -0.0411  0.3180
55889W        W98983   0.571   0.581   2.684 -0.0862 -0.0880  0.1407
55890W        W98984   1.152   1.212   3.246  0.1355  0.1773 -0.0374
55891W        W98985   4.125   1.552   3.311 -0.1776 -0.4958 -0.0656
55892W        W98986   1.557  33.726   1.097  0.0543 -0.2289  0.2796
55893W        W98987   2.563   1.479   0.137 -0.1612 -0.2131 -0.0004
55894W        W98988   1.980   2.554   0.865 -0.2578  0.3612 -0.0132
55895W        W98989  34.459   2.094   2.389  0.1741  0.1635 -0.1864
55896W        W98990   1.831   1.386   1.618  0.2668  0.3328 -0.0533
55897W        W98991   2.304   1.552   2.345  0.0859  0.0962  0.0967
55898W        W98992   2.117   2.854   2.686  0.0278 -0.0986 -0.0710
55899W        W98993   3.050   3.086   2.359 -0.0714 -0.0979 -0.1045
55900W        W98994   0.797   1.148   0.951 -0.1626 -0.2852  0.2435
55901W        W98995   3.138   1.492   0.180  0.1624  0.0262  0.2478
55902W        W98996   2.366   3.077   3.219 -0.1187 -0.0823 -0.0305
55903W        W98997   2.128   4.017   2.952 -0.3516 -0.4018 -0.0082
55904W        W98998   0.559   3.552   3.030  0.0504  0.2155  0.3141
55905W        W98999   3.253   2.107   2.185 -0.1728  0.0096 -0.1723
55906W        W99000   1.920  34.024   1.935  0.1292 -0.1055  0.2755
55907W        W99001   0.359   2.127   2.293 -0.2894  0.0411  0.4324
55908W        W99002   2.149   2.203   3.023  0.0190 -0.2432 -0.1030
55909W        W99003   3.175   1.090   2.506  0.1021 -0.0009  0.1372
55910W        W99004   0.699   1.029   2.483 -0.3165  0.1154  0.0820
55911W        W99005   3.138   0.691   1.068 -0.0168 -0.3155 -0.2389
55912W        W99006   1.325   2.516   2.646  0.3541 -0.2817 -0.1716
55913W        W99007   1.190   3.403   1.682  0.0927  0.0033 -0.1277
55914W        W99008   0.717   2.235   5.840 -0.0526 -0.0563  0.1763
55915W        W99009   1.192   0.940   4.686 -0.2185  0.1672  0.0272
55916W        W99010   2.710   1.317   4.362 -0.0419 -0.0047 -0.3167
55917W        W99011   4.021   2.018   5.292 -0.0088 -0.0920 -0.0064
55918W        W99012   0.289   1.014   5.315  0.2695 -0.0684 -0.0374
55919W        W99013   3.092   3.212   4.426  0.1371 -0.2746 -0.0942
55920W        W99014   2.214  33.747   7.846 -0.1397 -0.1964 -0.0695
55921W        W99015   2.929   2.303   5.316  0.0367 -0.1808 -0.0221
55922W        W99016   2.645   3.074   4.148 -0.1487  0.1016 -0.0196
55923W        W99017   2.713   2.221   3.915  0.0851  0.0550  0.1477
55924W        W99018  34.516  34.653   6.327 -0.2230  0.1290 -0.1645
55925W        W99019   2.157   2.385   5.893  0.1335  0.2760 -0.0463
55926W        W99020   1.199   0.834   5.389  0.0433  0.1146  0.0703
55927W        W99021  34.555   0.366   3.432  0.1169 -0.0982  0.1445
55928W        W99022   3.097   1.801   5.363  0.2233 -0.3178 -0.1313
55929W        W99023  34.035   1.854   4.947  0.2811 -0.1230 -0.2832
55930W        W99024   0.868  34.583   5.249  0.2026 -0.1930 -0.0871
55931W        W99025   1.046  33.609   3.596 -0.2193  0.1863 -0.1474
55932W        W99026   1.192   3.256   3.933  0.2170 -0.0072  0.1125
55933W        W99027   0.922   0.929   7.195 -0.3164  0.3459 -0.1039
55934W        W99028   2.635  33.589   6.957  0.1862 -0.4033  0.4191
55935W        W99029   0.827   3.807   4.891  0.1301 -0.1639 -0.1090
55936W        W99030   0.251   1.346   3.176 -0.2974  0.3520 -0.2071
55937W        W99031   0.506   0.236   6.846 -0.1075  0.0280 -0.0253
55938W        W99032   0.932   0.519   6.951  0.2839 -0.2592  0.1077
55939W        W99033   2.854  34.521   4.281  0.1912 -0.0210  0.3210
55940W        W99034   2.304   0.853   6.029  0.0036  0.0845 -0.3269
55941W        W99035   1.776   3.321   4.583 -0.0733 -0.1640 -0.1613
55942W        W99036   2.733   3.034   6.449  0.1842  0.1193  0.1456
55943W        W99037   2.271   0.019   5.580  0.0261  0.0951  0.1340
55944W        W99038   0.418   1.815   5.002 -0.4785 -0.2508 -0.3048
55945W        W99039   0.931   1.976   5.374  0.1955  0.3042 -0.1377
55946W        W99040   0.889   2.447   4.677  0.5534  0.0516 -0.1075
55947W        W99041   4.261   2.363   5.551  0.0649  0.1365 -0.1455
55948W        W99042   2.844   2.942   5.978 -0.0864 -0.3469  0.1878
55949W        W99043   0.995   3.100   6.898  0.4926  0.1248  0.0488
55950W        W99044   0.116   1.735   4.130  0.0731 -0.0917 -0.0230
55951W        W99045   1.981   1.929   6.800 -0.0783  0.0817 -0.2882
55952W        W99046   0.939   4.071   6.930 -0.1997  0.1236  0.2068
55953W        W99047   2.441  34.320   4.745  0.0064  0.2198 -0.2788
55954W        W99048   1.964   1.961   5.241  0.2311 -0.1226 -0.2075
55955W        W99049   0.672   3.451   4.510 -0.0842 -0.0346  0.3305
55956W        W99050   0.815   0.712   5.907  0.0141 -0.1737 -0.2192
55957W        W99051   2.047   2.005   7.419 -0.3028 -0.1710  0.0446
55958W        W99052   1.041   2.224   4.227  0.0396  0.0156 -0.0899
55959W        W99053   3.079   0.502   6.459  0.2808  0.1481  0.1875
55960W        W99054  34.460   2.829   4.783  0.0936 -0.1070 -0.1027
55961W        W99055   2.204  34.283   3.456  0.4277 -0.0812  0.2670
55962W        W99056   1.222   1.369   3.936  0.1147  0.0445  0.1070
55963W        W99057   3.830   0.949   2.762  0.0749 -0.0245  0.2177
55964W        W99058   1.534  33.681   6.410 -0.0836 -0.0869 -0.1848
55965W        W99059   1.069   3.982   6.259 -0.1717 -0.0082  0.2674
55966W        W99060   1.672  33.942   5.669 -0.1389 -0.2165 -0.2204
55967W        W99061   2.655   1.182   5.881 -0.0602  0.1113  0.0391
55968W        W99062   1.610   0.697   4.606  0.0574  0.1306  0.1535
55969W        W99063   1.363   0.438   5.022 -0.1708  0.2268 -0.0411
55970W        W99064   0.771   1.920   6.696 -0.2347  0.0616  0.0556
55971W        W99065  34.054   0.849   4.836  0.0157 -0.0822  0.1034
55972W        W99066   2.254   2.570   4.821  0.0119  0.1497 -0.1507
55973W        W99067   4.614   2.937   3.838 -0.1566 -0.2519 -0.3304
55974W        W99068   3.226   2.942   3.997 -0.1123  0.3250 -0.2663
55975W        W99069  34.454   1.403   4.163 -0.4936  0.4214  0.1508
55976W        W99070   0.212   2.205   7.248 -0.2357 -0.1667 -0.0292
55977W        W99071   0.679   1.472   6.925 -0.2491 -0.1657 -0.0491
55978W        W99072   0.437   0.371   4.505 -0.0156  0.1298 -0.0507
55979W        W99073   3.529   1.848   7.277 -0.2284 -0.0981  0.0168
55980W        W99074   1.672   3.298   7.459  0.0448 -0.1558 -0.0441
55981W        W99075   2.733   1.296   5.370 -0.0350  0.2003 -0.3811
55982W        W99076   0.185   2.281   5.931  0.1239 -0.0424  0.1821
55983W        W99077   3.382   2.177   5.469  0.4154  0.1056  0.0945
55984W        W99078   3.054   1.510   4.965 -0.0721 -0.0457  0.1252
55985W        W99079   2.242  33.988   4.464  0.0532 -0.0291  0.0278
55986W        W99080   3.175  34.204   5.914 -0.2419 -0.1595  0.0250
55987W        W99081   1.821   1.597   5.499  0.0519 -0.1932 -0.1851
55988W        W99082   1.809   2.360   4.842  0.0449  0.0694  0.2079
55989W        W99083   2.934   3.085   5.094  0.3020 -0.0058  0.0010
55990W        W99084   2.717   1.829   4.674 -0.2451  0.0709 -0.0911
55991W        W99085  34.565   1.083   6.379 -0.2371 -0.2159 -0.1681
55992W        W99086   1.230   1.126   5.798  0.1758  0.4041 -0.0802
55993W        W99087   1.635   2.381   7.441 -0.2162  0.0217  0.0586
55994W        W99088   0.674   3.118   2.578  0.1761 -0.0342  0.0700
55995W        W99089  34.444   1.389   5.983 -0.2425  0.2272  0.1288
55996W        W99090  34.543   2.566   5.639 -0.2227 -0.1022  0.0764
55997W        W99091  34.100   1.149   6.809 -0.3465 -0.1127  0.0520
55998W        W99092   0.388   0.915   5.848  0.0357 -0.0779 -0.1764
55999W        W99093   3.371   1.881   3.981 -0.0737  0.0843  0.0226
56000W        W99094   0.164   0.535   7.587 -0.2522  0.0451  0.1290
56001W        W99095   4.633   0.928   5.850  0.0181 -0.1016  0.1302
56002W        W99096   0.637   1.331   4.829  0.1322 -0.0978 -0.1722
56003W        W99097   4.070   3.002   4.291 -0.0198  0.0002  0.2920
56004W        W99098   3.014   0.128   2.977 -0.0646  0.2918 -0.0883
56005W        W99099   2.542   2.767   5.190 -0.3470  0.0049 -0.0920
56006W        W99100   0.282   0.153   6.432  0.1917 -0.0920 -0.1249
56007W        W99101   0.882  34.455   5.734  0.1122 -0.2086  0.2108
56008W        W99102   0.303   0.089   7.318 -0.0691 -0.4485 -0.1223
56009W        W99103  34.088   0.092   5.528 -0.1064 -0.3136 -0.0206
56010W        W99104   2.228   0.533   4.755  0.1981 -0.0920  0.1042
56011W        W99105   0.819   0.950   5.085 -0.0945  0.1101  0.0526
56012W        W99106   2.378  34.406   4.223  0.0170 -0.0785 -0.2369
56013W        W99107   0.959   1.617   3.440 -0.0430 -0.1515  0.1463
56014W        W99108  33.626   2.210   4.678 -0.0013 -0.0447 -0.0749
56015W        W99109   2.629   0.006   5.224  0.1498 -0.0860 -0.2032
56016W        W99110   1.767   3.970   4.641 -0.0323 -0.0739 -0.1685
56017W        W99111   3.042   3.262   5.636  0.0308  0.0429  0.1372
56018W        W99112   2.424   3.909   3.823 -0.0755 -0.0665  0.0664
56019W        W99113   2.342  34.283   7.503  0.0940 -0.0606  0.0455
56020W        W99114   0.577   0.684   3.202 -0.1647 -0.0200 -0.1014
56021W        W99115  34.092   4.595   5.650  0.0477 -0.4141  0.1409
56022W        W99116   0.979   1.900   6.210 -0.1000  0.0073 -0.2633
56023W        W99117   1.804  34.088   3.239 -0.0053 -0.3780 -0.2053
56024W        W99118   3.577   3.177   4.288 -0.0214 -0.0606 -0.1883
56025W        W99119   1.529   1.370   4.431 -0.1490 -0.0344 -0.1392
56026W        W99120   1.019   1.270   7.714  0.1947  0.0994  0.1887
56027W        W99121   3.335   0.193   6.818  0.0553  0.1675 -0.1713
56028W        W99122   2.111   0.213   6.211 -0.4206  0.0450  0.0293
56029W        W99123   1.699   0.060   6.432 -0.0379 -0.1455  0.0794
56030W        W99124   0.268   0.367   2.318 -0.0862  0.1813  0.1327
56031W        W99125   2.465   2.178   5.001  0.0166 -0.2537  0.2878
56032W        W99126   1.219   2.914   5.224 -0.1172  0.0872  0.1548
56033W        W99127  34.595   0.699   4.847  0.1731  0.0989 -0.2974
56034W        W99128   1.610   2.420   6.009 -0.0694 -0.2176  0.1913
56035W        W99129   2.382   1.397   4.788  0.1865  0.1492  0.1473
56036W        W99130   0.440   1.914   7.602  0.0239  0.2422 -0.2958
56037W        W99131   1.323   0.029   7.675  0.0589  0.3993  0.0632
56038W        W99132   0.442   0.389   3.573 -0.2357  0.1803 -0.1267
56039W        W99133   1.750   1.367   6.786  0.0368 -0.3452 -0.1054
56040W        W99134   1.826  34.640   4.054 -0.0281  0.5088 -0.0931
56041W        W99135   3.247   0.133   4.472  0.0712  0.0267 -0.3373
56042W        W99136   2.500   0.814   5.555  0.1823  0.0016 -0.2842
56043W        W99137   3.381   3.035   4.880  0.0452  0.0448  0.1274
56044W        W99138   4.241   1.509   4.277  0.0342 -0.1370 -0.0739
56045W        W99139   1.003  34.553   3.938  0.2736 -0.1670  0.2197
56046W        W99140   1.502   2.655   6.989  0.3911  0.2427 -0.4026
56047W        W99141   1.998   2.565   4.393 -0.0039  0.3712  0.0032
56048W        W99142   2.150   2.500   5.370  0.2030  0.2104 -0.0808
56049W        W99143   3.652   0.908   3.875 -0.0585  0.0823  0.1385
56050W        W99144   4.956   3.631   4.795  0.0990  0.2136 -0.2706
56051W        W99145  34.523   1.477   6.899 -0.1876  0.3128  0.0764
56052W        W99146   1.727   1.697   8.310 -0.1883  0.1862  0.1577
56053W        W99147   2.175   1.836   4.745  0.1695  0.1820 -0.0209
56054W        W99148   1.688  34.414   6.049  0.1319 -0.1146  0.0732
56055W        W99149   1.849   1.939   3.554  0.2571 -0.2831  0.1685
56056W        W99150   1.796  33.675   4.640 -0.1057 -0.2174  0.1081
56057W        W99151   0.652   2.549   4.214 -0.1407  0.3232  0.1071
56058W        W99152   2.718  34.525   6.098  0.0678  0.3092  0.2386
56059W        W99153   3.064   0.032   5.052  0.1721  0.2141 -0.1277
56060W        W99154   3.327   0.004   5.803 -0.2316  0.0274 -0.3413
56061W        W99155   3.105   0.992   6.770 -0.1051  0.1902 -0.2537
56062W        W99156   2.888   1.047   4.818 -0.0327  0.1188  0.0421
56063W        W99157   2.918   1.335   6.399  0.1177 -0.2816 -0.1098
56064W        W99158   1.140   1.469   4.843 -0.1535  0.1147 -0.0229
56065W        W99159   2.066   0.317   6.732  0.0631  0.0109  0.0788
56066W        W99160   0.376   1.045   7.176  0.0487 -0.0780 -0.0272
56067W        W99161   1.059   3.888   5.730 -0.3645  0.1093  0.1168
56068W        W99162   0.972   2.311   7.856  0.0767 -0.0318  0.1505
56069W        W99163   2.947   2.090   5.798 -0.1511 -0.2429  0.3967
56070W        W99164   1.917  33.966   6.158  0.0693 -0.0951 -0.0643
56071W        W99165   1.052  34.037   4.002 -0.0961  0.1595  0.1600
56072W        W99166   2.212   3.252   4.934 -0.0986  0.0332  0.1155
56073W        W99167   0.478   2.050   4.082 -0.0668  0.2576  0.0145
56074W        W99168   1.292  33.896   6.011  0.0058  0.0557 -0.1010
56075W        W99169   0.741   4.199   7.415 -0.0174 -0.1957  0.2831
56076W        W99170   1.066   3.232   2.923 -0.1984  0.1668  0.2443
56077W        W99171   1.268   1.463   6.698  0.1983 -0.0781  0.1650
56078W        W99172   1.730   2.198   5.605  0.0418  0.1435  0.2125
56079W        W99173   2.655   0.249   4.631 -0.3821 -0.2092 -0.1685
56080W        W99174  34.606   2.948   5.242  0.0383  0.3771  0.2600
56081W        W99175   0.723   0.538   5.403 -0.1597  0.4375  0.0909
56082W        W99176  33.460   0.526   4.975 -0.1124  0.0626  0.1059
56083W        W99177   2.861   0.666   4.438 -0.0290  0.0779  0.1752
56084W        W99178   3.278   1.551   4.311  0.1846 -0.0486 -0.2265
56085W        W99179   1.286   0.071   6.134 -0.0828  0.0748  0.2113
56086W        W99180   1.806  33.519   5.931 -0.1075  0.0602 -0.3114
56087W        W99181   0.002   2.769   6.389  0.0943 -0.0043  0.3785
56088W        W99182   1.524   1.051   6.348 -0.1077 -0.1496  0.0103
56089W        W99183   3.388   0.699   4.260 -0.4548 -0.0564  0.0201
56090W        W99184   1.262   1.457   6.187  0.0696  0.2679 -0.2272
56091W        W99185   1.740   1.622   6.360  0.0509  0.0350  0.1114
56092W        W99186   0.131   1.582   4.650 -0.1171  0.0877 -0.4061
56093W        W99187   4.346   1.431   6.913 -0.2888  0.2452 -0.3781
56094W        W99188   2.368   1.731   4.276  0.1657  0.1602 -0.1701
56095W        W99189   0.173   2.302   6.444  0.1282  0.0885 -0.1457
56096W        W99190   3.280   2.468   5.840 -0.1417  0.0478 -0.0695
56097W        W99191   0.119   1.518   5.237  0.1702 -0.1409 -0.1166
56098W        W99192   1.129   1.661   4.364  0.1252  0.0671  0.2603
56099W        W99193   1.549   0.408   6.771  0.1240 -0.0272  0.0083
56100W        W99194   3.525   1.342   5.968  0.2611  0.1294 -0.0686
56101W        W99195   0.512   1.050   6.268  0.0828 -0.0893 -0.3522
56102W        W99196   0.173  34.688   3.536  0.1556  0.0494  0.1039
56103W        W99197   1.665   1.044   5.467  0.1100 -0.0939  0.0372
56104W        W99198   3.173   2.049   4.907  0.0154 -0.0611  0.0656
56105W        W99199   2.269  34.551   7.062  0.2596  0.4419 -0.4185
56106W        W99200   0.929   3.007   8.001 -0.0255 -0.0478 -0.2600
56107W        W99201   1.684   0.162   4.639  0.2120  0.1184 -0.0300
56108W        W99202   4.320   1.973   3.596 -0.0315  0.0431  0.4406
56109W        W99203   2.011   1.136   6.379 -0.1316 -0.1422 -0.0880
56110W        W99204   0.882   1.932   4.813  0.3737 -0.0806 -0.0158
56111W        W99205  34.042   1.148   6.272 -0.2932  0.0444 -0.0388
56112W        W99206   1.480   2.411   4.438 -0.2229  0.0326 -0.1891
56113W        W99207   0.457   0.026   4.975 -0.1572 -0.2653 -0.2447
56114W        W99208   0.387   2.596   5.535  0.0394 -0.1903  0.0288
56115W        W99209   1.860   2.891   4.864  0.0239  0.0744 -0.1197
56116W        W99210   1.410   1.947   6.502 -0.0970  0.0143 -0.3035
56117W        W99211   2.586   0.285   4.097 -0.1579  0.1882  0.3886
56118W        W99212   1.325   1.704   3.064  0.2963  0.0686  0.1988
56119W        W99213   0.754   1.064   5.588 -0.1567 -0.1565 -0.0670
56120W        W99214   4.571   0.623   7.601 -0.2198 -0.2029  0.0038
56121W        W99215   3.472   1.372   3.807  0.2939  0.0019 -0.0265
56122W        W99216   3.217   0.011   6.292  0.0717 -0.1285  0.0225
56123W        W99217   1.469  34.139   6.529 -0.0478 -0.2952  0.1155
56124W        W99218   4.577   2.769   5.161  0.0378 -0.0231  0.1729
56125W        W99219   0.871   0.088   7.226 -0.0321  0.0023  0.1502
56126W        W99220   1.897   2.865   7.382  0.3315 -0.0316  0.1451
56127W        W99221   1.285   2.807   6.604  0.1456  0.0711 -0.2950
56128W        W99222   1.488  34.304   4.163  0.0364  0.0316  0.1282
56129W        W99223  34.456  34.376   3.654 -0.2092  0.0216  0.0600
56130W        W99224   0.497   0.137   5.613  0.0850 -0.1396 -0.1918
56131W        W99225   4.230   3.239   5.125 -0.0948 -0.3842 -0.2246
56132W        W99226   1.977   1.315   5.157  0.0081 -0.2326 -0.1398
56133W        W99227   2.242   0.163   4.441  0.2741 -0.1769 -0.1038
56134W        W99228   1.607   1.686   7.131  0.3749 -0.1834  0.2938
56135W        W99229   1.550   0.472   5.458  0.2543 -0.0594  0.0426
56136W        W99230   1.615   1.622   4.917 -0.0059  0.1044  0.1594
56137W        W99231   1.454   1.914   5.289  0.1746 -0.0736  0.1364
56138W        W99232   1.082   0.469   7.496  0.3098  0.0293  0.2366
56139W        W99233   2.372   2.975   6.108 -0.1951  0.3114 -0.1520
56140W        W99234   3.336   1.002   3.443  0.3772  0.0526 -0.0976
56141W        W99235   2.529   0.249   6.988  0.0315  0.1448  0.0382
56142W        W99236   3.044   0.378   5.399  0.0008  0.0621  0.0463
56143W        W99237   0.887   1.114   6.667  0.1660 -0.0166 -0.1900
56144W        W99238  34.654   0.115   6.837  0.0330  0.1888  0.0342
56145W        W99239   2.904   1.897   6.258 -0.0140  0.0457  0.1996
56146W        W99240   3.948   0.994   4.294  0.1427  0.0480 -0.4097
56147W        W99241   3.031   0.859   5.366  0.0636  0.0392  0.0317
56148W        W99242   2.340   1.623   5.206 -0.1370  0.3457  0.1865
56149W        W99243   0.922   0.947   3.837 -0.0676 -0.0334 -0.1590
56150W        W99244  33.588  33.593   5.541 -0.0975  0.1349  0.1730
56151W        W99245   2.391   1.429   6.270  0.1546  0.1182  0.1291
56152W        W99246  34.605   0.913   4.038  0.2694 -0.1164 -0.0035
56153W        W99247   2.245   0.443   5.337 -0.1482  0.0100  0.0307
56154W        W99248   1.604   2.858   4.200  0.0700 -0.2803 -0.4926
56155W        W99249   3.552   2.422   4.969 -0.1274  0.1449  0.1817
56156W        W99250   1.408   0.501   3.796 -0.1205  0.0567 -0.2554
56157W        W99251   0.497   0.791   6.753  0.0400  0.2231  0.2400
56158W        W99252   1.180   2.329   6.290 -0.0223  0.0369  0.2479
56159W        W99253   0.201   0.353   3.100  0.1729 -0.1953  0.2123
56160W        W99254   3.190   1.604   2.672  0.0575  0.0252  0.1573
56161W        W99255   3.032   2.397   6.284 -0.1346 -0.3519  0.1995
56162W        W99256   2.028   2.416   7.120 -0.1371  0.0532  0.2151
56163W        W99257   2.328   0.489   3.735  0.0495 -0.3499 -0.1835
56164W        W99258   4.050   1.397   6.493  0.1936  0.5385  0.1574
56165W        W99259   1.367   2.006   4.728  0.1573 -0.0882 -0.0257
56166W        W99260   3.546  34.577   4.887  0.1643  0.2392  0.0372
56167W        W99261   0.765   3.583   6.073  0.2104 -0.0575  0.2014
56168W        W99262   1.081   2.336   6.776  0.2743 -0.1558  0.0780
56169W        W99263   1.783   3.459   5.097 -0.0118 -0.0073  0.2470
56170W        W99264   1.799   0.217   5.834  0.0559  0.1077 -0.1651
56171W        W99265   1.004   0.644   4.271 -0.1165  0.5992 -0.2435
56172W        W99266   1.310   0.599   5.881  0.1839 -0.2233 -0.0308
56173W        W99267   2.656   0.830   6.840  0.4418  0.1770 -0.1058
56174W        W99268   1.575   2.171   7.009  0.1759 -0.1011  0.0288
56175W        W99269   0.275   1.226   4.340 -0.1723 -0.2169 -0.0690
56176W        W99270   2.591   1.660   5.810  0.2088  0.1779 -0.4073
56177W        W99271   2.796   2.399   6.776 -0.1050  0.0233 -0.2533
56178W        W99272   1.859   0.720   5.072  0.0990  0.0798 -0.0632
56179W        W99273  34.639   0.575   6.555 -0.0106  0.2587 -0.1061
56180W        W99274   1.953   0.789   6.841  0.0358  0.1138 -0.0986
56181W        W99275   2.242   1.205   5.619  0.3185  0.1834  0.1608
56182W        W99276   0.591  34.267   3.978 -0.0709 -0.1355  0.0336
56183W        W99277   2.200   3.018   4.483 -0.3928 -0.0597  0.0623
56184W        W99278   1.114   2.262   7.366 -0.2341  0.2911 -0.3568
56185W        W99279   0.281   1.853   6.723  0.3927  0.3963 -0.0003
56186W        W99280   1.256   4.072   4.683 -0.1635  0.1549  0.0249
56187W        W99281   2.472   2.079   5.559 -0.3991  0.0822 -0.1418
56188W        W99282   2.780   1.552   3.209 -0.2371  0.2755  0.0486
56189W        W99283   3.853   2.822   5.912  0.0130 -0.2856  0.0638
56190W        W99284   1.544   1.125   4.964  0.0830  0.0181  0.1737
56191W        W99285   0.777   2.700   6.604  0.0195  0.1057 -0.0619
56192W        W99286  33.926   2.080   4.070  0.0721  0.1014  0.2868
56193W        W99287   1.370   2.406   3.930  0.0094 -0.1805  0.0469
56194W        W99288   1.085   2.756   4.256  0.1543  0.1209  0.1173
56195W        W99289   2.807   1.394   7.148  0.3160 -0.1887  0.1843
56196W        W99290   4.191   0.576   4.561 -0.3211  0.0618 -0.0178
56197W        W99291   3.098   1.591   5.842  0.0364 -0.0064 -0.1775
56198W        W99292   3.199   0.529   4.857  0.0280  0.2053 -0.2510
56199W        W99293   2.584   0.323   6.283 -0.0218 -0.0443  0.1372
56200W        W99294   0.759   0.626   6.415  0.1892 -0.0206 -0.1422
56201W        W99295  34.214   0.828   2.352 -0.0214  0.0426 -0.3271
56202W        W99296   1.957   0.398   7.658  0.1743 -0.1565  0.2332
56203W        W99297   4.949   0.338   7.690  0.2534  0.2429  0.1008
56204W        W99298  34.145   2.819   6.419  0.0582  0.1337 -0.0926
56205W        W99299   4.251   3.502   4.126 -0.0559 -0.3394 -0.0790
56206W        W99300  34.203   0.199   4.796 -0.2421 -0.1310  0.0581
56207W        W99301   0.014   0.033   5.456  0.0567  0.2672 -0.4774
56208W        W99302   3.170  34.356   6.759  0.1164 -0.0915 -0.0311
56209W        W99303   2.429   1.527   3.835 -0.2396 -0.4098 -0.3219
56210W        W99304   0.748   0.228   6.053 -0.0845 -0.0535 -0.1263
56211W        W99305   1.048   3.157   6.203  0.0082  0.0441  0.1549
56212W        W99306   1.234   2.240   5.672  0.0723 -0.1380 -0.0435
56213W        W99307   0.300   3.530   6.661 -0.1024 -0.3700 -0.0865
56214W        W99308   0.284   0.055   2.720 -0.1092  0.1751  0.3739
56215W        W99309   2.938   0.772   5.852 -0.2105 -0.2037  0.2650
56216W        W99310   1.156   1.431   7.189 -0.5675 -0.0670 -0.1175
56217W        W99311   3.665  34.612   6.518 -0.1556 -0.1167  0.0176
56218W        W99312   0.860   1.167   4.432  0.1145 -0.3412 -0.1826
56219W        W99313   2.466   0.967   4.617 -0.1216  0.0162 -0.0647
56220W        W99314   1.118   1.652   5.679  0.0563 -0.0208  0.2602
56221W        W99315   1.320  34.596   6.697 -0.0289  0.4956  0.1093
56222W        W99316   1.951   1.076   4.680  0.4090  0.1146  0.0308
56223W        W99317   2.351  34.580   6.501 -0.1487 -0.0792 -0.0187
56224W        W99318   3.341   2.684   4.517 -0.1163  0.1624 -0.1199
56225W        W99319   2.815   2.910   6.980 -0.2224  0.0052 -0.2022
56226W        W99320   0.233   1.081   4.816  0.2495 -0.2069  0.0583
56227W        W99321   3.083   1.040   4.148  0.1123  0.0220  0.0740
56228W        W99322   0.126   1.523   6.301 -0.1363 -0.1333  0.2406
56229W        W99323   1.294   0.612   6.432 -0.0703 -0.0310  0.0511
56230W        W99324   3.428   3.345   8.218 -0.0171  0.1018  0.1103
56231W        W99325   1.048  34.311   4.470  0.1636  0.1492  0.1280
56232W        W99326   3.311   2.716   3.553 -0.1746 -0.5646  0.1154
56233W        W99327   3.689   2.561   5.413  0.0571 -0.0914 -0.1422
56234W        W99328   0.004   2.997   4.269 -0.0537  0.0457 -0.0096
56235W        W99329   3.227   2.414   3.983  0.1259 -0.0761  0.1658
56236W        W99330   2.480   2.066   6.071  0.1801 -0.0042 -0.4187
56237W        W99331   0.535  34.419   6.214 -0.0709 -0.1573  0.1226
56238W        W99332   3.082   3.826   5.470  0.1551  0.3221 -0.2274
56239W        W99333   3.429   2.002   6.080 -0.0107  0.2249 -0.1602
56240W        W99334   1.399  34.536   5.247 -0.0593  0.2694 -0.2514
56241W        W99335   0.141   0.741   4.437 -0.1210  0.2428  0.1195
56242W        W99336   1.184   2.425   5.158  0.2616 -0.3105  0.0268
56243W        W99337   2.717   0.600   5.053  0.1033 -0.2144 -0.0603
56244W        W99338   3.197   0.949   6.301 -0.3300  0.2692  0.0026
56245W        W99339   1.095   2.594   3.355 -0.0839 -0.0219  0.0420
56246W        W99340   4.478  34.522   7.198 -0.2985 -0.0811 -0.0907
56247W        W99341   2.565   2.519   6.285  0.2031 -0.0938 -0.1075
56248W        W99342  34.605   2.975   7.040  0.2284  0.0412  0.0127
56249W        W99343   0.639   1.362   3.974  0.0166 -0.0316 -0.0955
56250W        W99344   0.844   1.459   5.276  0.3574  0.0076  0.1803
56251W        W99345   0.474   1.659   5.514  0.1831 -0.2827  0.0200
56252W        W99346   1.234   3.931   5.181 -0.3195  0.2782 -0.1597
56253W        W99347   1.752   2.392   6.594 -0.1207  0.0342  0.2057
56254W        W99348   0.804   0.351   4.903 -0.0615 -0.2990 -0.0608
56255W        W99349   2.141   3.398   5.546 -0.1640 -0.2808  0.0045
56256W        W99350   0.591  34.529   4.482 -0.1865 -0.4997  0.1009
56257W        W99351   4.451   0.791   4.943  0.1083 -0.0358 -0.1095
56258W        W99352   2.625  34.336   3.740  0.2261 -0.2230 -0.0980
56259W        W99353   1.060   0.971   6.212 -0.1306 -0.0466 -0.3984
56260W        W99354  33.462   2.098   4.139 -0.0188 -0.0305 -0.3195
56261W        W99355   1.670   3.140   5.472  0.1839  0.2470  0.1896
56262W        W99356  33.586   1.311   5.474 -0.2637 -0.2270 -0.2631
56263W        W99357   2.775  34.132   7.751  0.1867  0.3141  0.0911
56264W        W99358  34.486   0.839   7.372 -0.3274  0.0967 -0.1950
56265W        W99359   0.203   1.327   5.766  0.3104  0.0113  0.0850
56266W        W99360  34.613   0.223   5.029  0.3731 -0.2281 -0.2605
56267W        W99361   3.910   2.580   4.546 -0.1063  0.1688 -0.3091
56268W        W99362   1.111   0.212   5.561 -0.0838  0.0338 -0.0513
56269W        W99363   0.292  34.202   5.796 -0.1997 -0.2883  0.2488
56270W        W99364   2.374   2.553   4.123 -0.0518 -0.0903 -0.1893
56271W        W99365   2.604   3.433   4.635  0.1741  0.1583 -0.0519
56272W        W99366   0.354   0.576   5.016 -0.0028  0.0800  0.1792
56273W        W99367   2.305   2.285   6.689  0.2641 -0.2635 -0.3187
56274W        W99368   0.528   1.769   3.623  0.0332 -0.1546 -0.0344
56275W        W99369   1.827   0.611   6.352 -0.0259 -0.0602  0.1096
56276W        W99370   2.871  34.072   7.254  0.1354 -0.2542  0.1235
56277W        W99371  34.501   0.660   2.986 -0.2884 -0.0224  0.2063
56278W        W99372   1.884  34.390   5.584  0.1672 -0.0869 -0.2814
56279W        W99373   2.085   2.958   5.272  0.3100 -0.0004  0.0480
56280W        W99374   3.655   2.683   4.106  0.1678 -0.1401  0.0860
56281W        W99375   0.654   2.237   6.322 -0.1161 -0.0503 -0.0082
56282W        W99376   0.382   2.968   6.810 -0.0506 -0.1436  0.1598
56283W        W99377  34.431  34.513   7.311  0.0794  0.0990 -0.0379
56284W        W99378   2.303   0.635   4.252 -0.2244 -0.0578  0.0284
56285W        W99379   2.461   1.821   6.558 -0.0871  0.1320 -0.1148
56286W        W99380   3.806   2.902   4.994 -0.0241  0.0905 -0.0903
56287W        W99381   3.260  34.188   3.949  0.1615 -0.2415  0.1693
56288W        W99382   2.271   0.956   3.650  0.0131  0.0217  0.1197
56289W        W99383   0.512   0.538   7.251 -0.2350 -0.0611  0.1937
56290W        W99384   1.228   2.595   8.168  0.2813 -0.1223  0.0028
56291W        W99385   4.282   2.886   4.734  0.0536 -0.5067 -0.0163
56292W        W99386   0.927   0.218   4.444  0.1278  0.1387 -0.2102
56293W        W99387   0.836   0.236   3.099 -0.1183  0.2397 -0.1475
56294W        W99388   1.362   2.716   5.663  0.0985 -0.1829  0.2666
56295W        W99389   0.741   1.423   5.938 -0.0212  0.0517 -0.0258
56296W        W99390   0.406  34.249   3.428 -0.1877 -0.1238 -0.1621
56297W        W99391   2.287   0.688   6.488  0.2537  0.3004 -0.0401
56298W        W99392   1.718   1.346   5.956  0.0441  0.0137 -0.0532
56299W        W99393   3.759   0.658   6.248  0.1145  0.1412 -0.1948
56300W        W99394   2.108   1.113   4.150  0.0046 -0.0526  0.0415
56301W        W99395   5.038   2.271   4.808 -0.2418 -0.1480  0.3142
56302W        W99396   2.664   2.353   7.309  0.0604 -0.1434  0.1302
56303W        W99397   2.960   4.066   7.319  0.2842  0.1685 -0.0376
56304W        W99398   1.512   1.882   5.981  0.1083  0.1426 -0.0879
56305W        W99399   2.957   2.488   4.839 -0.0151  0.0998 -0.3204
56306W        W99400   0.546  34.040   6.604 -0.0503 -0.3206  0.0757
56307W        W99401   0.160  34.669   5.949  0.3339 -0.2248  0.0043
56308W        W99402   1.402   1.459   5.326 -0.1372 -0.2576  0.1145
56309W        W99403   1.854   0.713   5.839 -0.0155  0.0323  0.2540
56310W        W99404   1.983  34.429   4.548 -0.0482 -0.1095  0.1755
56311W        W99405   2.139   0.081   3.249  0.1627  0.1962  0.0396
56312W        W99406  34.694   3.483   5.418 -0.2198 -0.0990 -0.0794
56313W        W99407   2.579   1.226   7.574  0.4635  0.0114 -0.0017
56314W        W99408   1.787   2.151   9.719  0.0991  0.0522 -0.5734
56315W        W99409   3.166   0.090   9.613 -0.1552  0.0595  0.0737
56316W        W99410   2.649  33.703   5.934 -0.0504  0.2584  0.2109
56317W        W99411   3.802   0.995   8.012  0.0442  0.3058 -0.0498
56318W        W99412  34.253   1.220   8.378 -0.0219  0.0034  0.2289
56319W        W99413   2.183   3.425   7.511 -0.0667  0.1358  0.1569
56320W        W99414   2.017   0.958   9.137  0.2242  0.2702 -0.1167
56321W        W99415   3.748   2.734   9.456  0.1719 -0.2483  0.1571
56322W        W99416   2.978   1.912   7.157  0.2959 -0.2766 -0.1717
56323W        W99417   2.831   0.269   9.216  0.0093 -0.0206 -0.2655
56324W        W99418   1.590   0.140   8.192 -0.0270  0.1039  0.3502
56325W        W99419   0.799  33.486   7.916 -0.2339 -0.0652 -0.5060
56326W        W99420   3.664   1.354   9.525  0.2787  0.1121 -0.1920
56327W        W99421   0.093   1.221   8.222 -0.1498 -0.2338 -0.3343
56328W        W99422  33.701   2.544  10.057  0.0650 -0.0734  0.0128
56329W        W99423   1.649   1.326   8.994 -0.1640 -0.0340  0.0708
56330W        W99424   2.356   3.288   8.157  0.1600  0.1611 -0.1118
56331W        W99425   3.139  34.187  10.242 -0.0601 -0.1017 -0.1064
56332W        W99426   1.555   2.655   8.918 -0.0162 -0.1327 -0.0640
56333W        W99427   0.630   0.940   7.634  0.0757  0.1796  0.1580
56334W        W99428  33.397  33.017   9.592 -0.1562 -0.1677 -0.0036
56335W        W99429   0.496   2.979   9.193  0.0971  0.1354 -0.0718
56336W        W99430   3.199   1.176   9.600 -0.2905  0.0797 -0.1142
56337W        W99431   3.771   1.184   8.978  0.1097  0.0683 -0.1701
56338W        W99432   2.309   2.833   8.413  0.1201  0.0572  0.1120
56339W        W99433   3.397   2.376   9.574 -0.0892 -0.1250 -0.2533
56340W        W99434   0.993   2.940   8.519 -0.3400 -0.2442 -0.1210
56341W        W99435  34.220   2.135   8.375 -0.1996 -0.2052  0.0945
56342W        W99436   1.473   2.289   7.885 -0.1269  0.1304  0.0067
56343W        W99437   4.676   2.729   8.266  0.1107 -0.1425  0.1107
56344W        W99438   1.388   2.121   8.368  0.1221  0.1749 -0.5046
56345W        W99439   3.298   1.475  10.316  0.1406 -0.0036  0.0716
56346W        W99440   3.307   1.185   8.640  0.1170 -0.1778 -0.3231
56347W        W99441   1.857   3.060   8.250 -0.0826  0.1183 -0.0391
56348W        W99442   1.763   2.722   7.842  0.0682  0.4524  0.0613
56349W        W99443  33.715   2.830   8.876 -0.0558 -0.1845 -0.1576
56350W        W99444   1.143   3.673   7.129 -0.1167 -0.1534 -0.3742
56351W        W99445   1.708   1.217   7.280  0.2450 -0.1032  0.1613
56352W        W99446   0.769   0.071   6.501 -0.2638  0.3107  0.1989
56353W        W99447   3.780   0.714   7.249  0.3351 -0.1196 -0.0267
56354W        W99448   2.331   0.330   9.352  0.0302  0.1554 -0.2164
56355W        W99449   0.787   2.020   9.380  0.2387 -0.2406 -0.1959
56356W        W99450   1.268  33.866   9.165 -0.1302  0.2906  0.1759
56357W        W99451   2.081   1.523   7.267  0.0267 -0.2362  0.1079
56358W        W99452   2.882   1.223   9.240  0.4177  0.3740 -0.3616
56359W        W99453   1.254   2.238   9.731 -0.2735 -0.0671  0.4002
56360W        W99454  34.460   1.683   8.325 -0.1643  0.0636  0.3154
56361W        W99455   2.443   1.925   7.019  0.4566  0.1230  0.0840
56362W        W99456   3.506   2.798   9.953  0.0726 -0.0731 -0.0862
56363W        W99457   2.584   1.740   7.504 -0.0785  0.2534  0.0187
56364W        W99458   1.097   1.399   8.172 -0.0388  0.4598  0.2497
56365W        W99459   3.274  33.648   7.472  0.5563  0.1805  0.1953
56366W        W99460   3.399  34.690   7.645 -0.0949 -0.1024 -0.2625
56367W        W99461   0.506   0.397   9.294  0.2500 -0.0148 -0.0502
56368W        W99462   4.170   0.992   9.576 -0.1884 -0.0389  0.0715
56369W        W99463   2.451   1.311   6.814  0.3762 -0.0382 -0.4631
56370W        W99464   3.109  33.707  10.008 -0.1940  0.0973 -0.0454
56371W        W99465   2.263   1.065   7.230  0.2771  0.0329  0.0789
56372W        W99466   1.953   1.673   8.742  0.1653  0.0225  0.0582
56373W        W99467   1.941   2.864   9.244  0.0615  0.0530 -0.1334
56374W        W99468   2.988   0.506   6.986 -0.3077 -0.1041 -0.0891
56375W        W99469  34.430   1.617   9.442  0.0962  0.0676 -0.0961
56376W        W99470   0.485   3.199   7.745 -0.2746 -0.0774 -0.1210
56377W        W99471   0.475   1.612   9.412 -0.2082 -0.3284  0.0324
56378W        W99472   0.718   2.528   8.389 -0.1529 -0.0175  0.2650
56379W        W99473   0.429  34.503   8.926  0.2396 -0.0896  0.0931
56380W        W99474  33.525   1.323   9.258  0.1803  0.1386 -0.1319
56381W        W99475   2.883  34.632   7.724 -0.1731 -0.2581 -0.0768
56382W        W99476   3.366  34.631   8.984  0.0814 -0.0218  0.1811
56383W        W99477   0.997   1.931   8.840 -0.3109  0.0723  0.0774
56384W        W99478   3.209   4.369   8.218  0.2328 -0.1728 -0.0047
56385W        W99479   4.097   0.577   7.995 -0.0141 -0.0606 -0.0815
56386W        W99480   4.386   1.120   8.684  0.0762  0.2557  0.0943
56387W        W99481   1.414   1.002   9.284  0.1642  0.0441 -0.4968
56388W        W99482  33.544   1.681   8.841 -0.2004 -0.0440  0.0312
56389W        W99483   2.329  34.566   9.105 -0.1562  0.1090  0.1119
56390W        W99484   0.331   0.498   8.635  0.1304  0.2434  0.0628
56391W        W99485   3.607   0.561   8.175  0.0456 -0.3175  0.3282
56392W        W99486   2.685   0.353   8.398 -0.0533  0.1121  0.1629
56393W        W99487  34.297   1.056   7.813  0.2611  0.3674  0.1375
56394W        W99488   2.162   3.891   7.377 -0.0033  0.2202  0.2182
56395W        W99489   2.930   2.492   9.320  0.2238  0.0744 -0.0082
56396W        W99490   2.464   2.527   8.051 -0.2665  0.1148 -0.2563
56397W        W99491   2.867  34.605  10.198  0.1978 -0.0502 -0.0261
56398W        W99492   1.242   0.554   8.891 -0.0153 -0.3075  0.1366
56399W        W99493   0.467   3.692   9.427 -0.1317 -0.3225 -0.0712
56400W        W99494   1.812   0.797   8.147  0.2416  0.0716 -0.3301
56401W        W99495   1.165   0.097   8.555 -0.4129  0.0933 -0.0371
56402W        W99496   4.877   3.917  10.034  0.2029 -0.0677 -0.3776
56403W        W99497   1.838   1.880   7.889  0.1903  0.2324 -0.0766
56404W        W99498   3.394   0.989   9.150 -0.2030 -0.1615 -0.0723
56405W        W99499   2.650   1.675   7.970  0.0152  0.1741 -0.0126
56406W        W99500   1.476   0.565   7.868  0.0790 -0.1461 -0.1266
56407W        W99501   2.479   2.734   9.359 -0.0840  0.4358 -0.5493
56408W        W99502  34.629   2.472   8.711 -0.0505  0.1769  0.0625
56409W        W99503   0.917   1.023   8.494  0.1309 -0.2040 -0.1445
56410W        W99504   0.536   1.868   8.977  0.1517  0.4478 -0.0040
56411W        W99505   2.261   0.885   9.947 -0.4389  0.0663 -0.0656
56412W        W99506   1.228   1.484   8.714 -0.2463 -0.1194  0.2331
56413W        W99507   3.743   0.281   9.453  0.0766 -0.6225  0.2795
56414W        W99508   4.177   0.294   7.349  0.4445 -0.0192  0.6107
56415W        W99509   4.017   2.333   8.333  0.2285  0.1592  0.2773
56416W        W99510   2.531   0.627   7.280  0.0035 -0.1445 -0.2105
56417W        W99511   2.442   0.094   7.481 -0.0223  0.0670 -0.4312
56418W        W99512   2.706   3.222   8.641 -0.4255  0.2236 -0.2234
56419W        W99513   1.271   1.801   9.338  0.3552 -0.2294  0.3555
56420W        W99514   1.403   0.900   6.874  0.1046 -0.1100 -0.4459
56421W        W99515   2.715   2.113   8.163  0.3285  0.0301 -0.0671
56422W        W99516   0.619   2.895   9.687  0.2118  0.1057 -0.0508
56423W        W99517   2.643   3.365   7.747 -0.2490  0.1240  0.1116
56424W        W99518   1.355  33.342   9.296 -0.0401  0.2231 -0.1826
56425W        W99519   1.959  34.278   6.658  0.1602 -0.1132 -0.3506
56426W        W99520   1.813  33.604   9.171 -0.1715 -0.0707  0.2498
56427W        W99521  34.530   3.248   6.608  0.5538  0.3272  0.2082
56428W        W99522   3.987   0.241   8.504 -0.1954  0.0039  0.4854
56429W        W99523   2.143   0.415   8.908  0.2421 -0.0749 -0.3639
56430W        W99524   3.621   0.810   8.710  0.1137  0.1147  0.0644
56431W        W99525   2.680   0.825   9.633 -0.0308 -0.3795  0.0621
56432W        W99526   0.316   1.254   6.710  0.0152  0.0508  0.3151
56433W        W99527   2.304   1.180   9.551 -0.2125  0.0581  0.2392
56434W        W99528   0.891   2.470   9.523  0.2156 -0.0202 -0.2971
56435W        W99529   1.678   2.599   8.395  0.0954 -0.1619  0.1853
56436W        W99530   2.748  33.964   8.192 -0.0819  0.0235  0.2004
56437W        W99531   0.371   2.200   8.564  0.1863 -0.3921  0.3957
56438W        W99532   1.474   1.487   7.615 -0.0838 -0.0601  0.2657
56439W        W99533   2.398  34.431   9.958  0.1233 -0.0153  0.1111
56440W        W99534   3.011  34.261   9.733  0.0711 -0.0552  0.4941
56441W        W99535   1.167   2.712   7.701 -0.1003 -0.0433  0.0098
56442W        W99536  34.315   6.669  10.060  0.1298  0.1206 -0.1312
56443W        W99537  34.544   2.714   9.534  0.2978 -0.0893 -0.1262
56444W        W99538   4.172  34.523   8.751  0.1735 -0.0924 -0.1620
56445W        W99539  33.615   2.075   6.911  0.2876 -0.1223  0.1143
56446W        W99540   1.836   1.313   7.980 -0.1487 -0.1400 -0.4781
56447W        W99541   0.881   2.061   8.368 -0.1743 -0.1176 -0.0559
56448W        W99542   3.007   0.295   8.758 -0.0148  0.0210 -0.1329
56449W        W99543   3.132   2.732   6.608  0.0639 -0.2218  0.0605
56450W        W99544   0.830  34.091   9.345  0.0780  0.0752 -0.3555
56451W        W99545   2.617   0.015   9.626  0.1442 -0.3077 -0.1871
56452W        W99546   0.421   4.241  10.145 -0.0047 -0.1866  0.1983
56453W        W99547   2.432   0.096   7.981 -0.1295 -0.1739  0.1013
56454W        W99548   1.626   0.617   7.262 -0.1108 -0.0799 -0.2121
56455W        W99549   5.179   0.989   9.311 -0.4851  0.3680 -0.0908
56456W        W99550   1.676  34.406   9.663 -0.1182 -0.0209 -0.1754
56457W        W99551   0.264   3.400   9.100 -0.0875 -0.2656  0.1955
56458W        W99552  34.352   1.542   8.971 -0.2602  0.1018  0.0164
56459W        W99553   0.108   1.338   9.160 -0.0301 -0.0978 -0.4164
56460W        W99554  34.467   2.320   9.192 -0.0914  0.0256 -0.2705
56461W        W99555  33.730   1.968   9.943 -0.0617  0.0181 -0.0737
56462W        W99556   2.002   1.178   8.653  0.1371 -0.4790  0.0599
56463W        W99557   1.133   1.081   8.920 -0.1209  0.0175 -0.0467
56464W        W99558   3.793   1.755   9.171 -0.1943  0.2815 -0.2475
56465W        W99559   1.752   1.424   9.712  0.1076  0.0739 -0.0198
56466W        W99560   3.427  34.372   9.426  0.0815 -0.3150  0.2346
56467W        W99561   2.173  32.369   9.369  0.4828  0.2319  0.0779
56468W        W99562   4.239   2.966   9.479 -0.2115 -0.2937  0.0158
56469W        W99563   1.130   2.479   8.691  0.1398  0.0110  0.5409
56470W        W99564  34.251   2.596   9.919  0.0780 -0.0684 -0.1796
56471W        W99565   2.380   0.068   8.618  0.0758  0.0496  0.1054
56472W        W99566   5.223   1.770  10.288  0.1785 -0.0519  0.0757
56473W        W99567   0.333   2.329   9.673  0.2527 -0.3299 -0.1180
56474W        W99568   0.652   3.270   8.806 -0.1155 -0.0396  0.2980
56475W        W99569  33.730   2.284   9.023  0.1400 -0.1331 -0.0206
56476W        W99570   3.796   0.190   7.020 -0.1700 -0.3971  0.0686
56477W        W99571   1.758   2.363   9.284  0.4274 -0.1525  0.1014
56478W        W99572   2.762  34.499   8.222 -0.3796 -0.1367  0.2099
56479W        W99573   2.800   1.028   8.258  0.3504  0.2752  0.3756
56480W        W99574   0.480  33.692   9.593  0.0620  0.0640 -0.2208
56481W        W99575   1.825   2.136   8.516 -0.1688 -0.1234 -0.2627
56482W        W99576   4.058   0.420   9.964  0.0776 -0.1992  0.1777
56483W        W99577   1.282   0.585   8.424 -0.0105  0.1684 -0.1420
56484W        W99578   3.836   1.157  10.010 -0.0019 -0.1604 -0.2445
56485W        W99579   2.919   1.506   8.509  0.0630 -0.2273  0.1848
56486W        W99580   2.003   2.310   8.033 -0.2599  0.0826 -0.5156
56487W        W99581   4.705   1.192   9.165  0.2459 -0.0995 -0.0543
56488W        W99582   2.387   0.910  11.200  0.2076 -0.2503  0.1470
56489W        W99583   3.476   0.308   8.599 -0.2192 -0.0653  0.2326
56490W        W99584   2.383   0.606   7.788 -0.0784  0.0973  0.0878
56491W        W99585   0.501   2.258   8.053 -0.0005 -0.1887  0.1256
56492W        W99586   3.123   0.683   9.568  0.2792 -0.0155  0.2183
56493W        W99587   2.603   0.687   8.708 -0.1834  0.3188 -0.0988
56494W        W99588   2.815   2.670   8.552  0.0137 -0.4328 -0.2629
56495W        W99589   1.773   0.155   5.150  0.2293  0.2513  0.2140
56496W        W99590   4.724   0.761   9.440 -0.1546  0.1606  0.0473
56497W        W99591   3.523   1.693   8.620 -0.1192  0.0838  0.0036
56498W        W99592   2.332   0.847   8.269 -0.0311  0.1218  0.0533
56499W        W99593  33.614   0.667   9.716 -0.0619 -0.2435 -0.1873
56500W        W99594   2.791  33.618   7.782  0.0005 -0.0646 -0.0908
56501W        W99595   2.170   3.857   7.854  0.0223  0.0643 -0.2501
56502W        W99596   2.197   2.983   7.762 -0.1010 -0.0882 -0.1005
56503W        W99597   3.359   0.458   9.170 -0.2643 -0.2309  0.1107
56504W        W99598  33.505   0.403   8.980 -0.3651  0.1990  0.1565
56505W        W99599   1.969  34.588   7.820  0.0319 -0.3563 -0.3894
56506W        W99600   1.188   1.879   7.994 -0.4691 -0.3064 -0.2075
56507W        W99601   3.193   2.515   8.833 -0.2683  0.0060 -0.1327
56508W        W99602   2.880   0.399   7.967 -0.2129  0.1297  0.1501
56509W        W99603   1.142   3.248   7.433  0.1649  0.0291 -0.1147
56510W        W99604   2.969  34.238   9.222 -0.0914 -0.4803  0.0123
56511W        W99605   2.816   1.104  10.076 -0.0464 -0.1797  0.0240
56512W        W99606   1.080   3.446   8.841 -0.1685 -0.6469  0.0527
56513W        W99607   4.115  32.566  10.599  0.1123 -0.1562 -0.3426
56514W        W99608   3.630   0.798   9.635  0.0321 -0.2541  0.2869
56515W        W99609   2.303   1.458   9.115 -0.2095 -0.3090 -0.1809
56516W        W99610   0.390   1.385   9.807  0.2045  0.1116  0.1325
56517W        W99611   2.975   0.712   9.040  0.0840  0.0856 -0.1927
56518W        W99612   0.913   1.284   9.573  0.0387 -0.0399  0.0778
56519W        W99613   2.647   2.031   9.225  0.3578  0.0488  0.2351
56520W        W99614   0.663   0.700   8.099  0.2368  0.0361 -0.0981
56521W        W99615   2.462   2.120   7.770  0.1291  0.0960 -0.2418
56522W        W99616  34.055   0.746   8.491  0.1224 -0.1083  0.0132
56523W        W99617   1.422   3.915   9.826 -0.0953  0.3652  0.2703
56524W        W99618   3.527   0.628   6.678 -0.3028  0.1688  0.2127
56525W        W99619   2.745   2.962   8.131  0.2002  0.1764  0.2117
56526W        W99620   3.751   3.159   8.561 -0.0140  0.0277  0.2477
56527W        W99621   2.224   1.834   8.317  0.0684  0.2040 -0.0427
56528W        W99622   0.998   2.780   9.105 -0.3419 -0.1828  0.1135
56529W        W99623   0.612   2.411   7.542  0.0217  0.0405 -0.0174
56530W        W99624   3.279   2.930   8.515 -0.0768  0.0497  0.0222
56531W        W99625   1.566   3.586   8.947  0.1341 -0.0810 -0.0912
56532W        W99626   3.006  34.645   7.205  0.2650 -0.0409 -0.0872
56533W        W99627   4.247   0.862   9.090 -0.1724 -0.0364  0.2614
56534W        W99628   4.201   1.300   8.271  0.3169  0.0494 -0.1496
56535W        W99629   2.563   1.733   8.767 -0.0834 -0.3765 -0.0192
56536W        W99630   2.540  34.140   5.769  0.2076 -0.3226 -0.2524
56537W        W99631   3.672   5.097   7.662 -0.1331 -0.2307  0.0370
56538W        W99632   1.986   0.638   9.574 -0.3186 -0.2374 -0.0874
56539W        W99633   3.358   1.468   9.021  0.0148 -0.2451  0.2430
56540W        W99634   4.383  33.636   9.684  0.1106 -0.1944 -0.0891
56541W        W99635   1.148   1.873   7.041 -0.4017 -0.0510  0.6344
56542W        W99636   3.842   0.700   9.197  0.2625  0.0370  0.3261
56543W        W99637   0.426   2.715   8.739  0.0822  0.0111 -0.2277
56544W        W99638   2.190   1.864   9.683 -0.0152 -0.2840 -0.0513
56545W        W99639  34.634   1.678   9.882 -0.0076 -0.1833 -0.0121
56546W        W99640  34.584   1.141   8.726  0.2590 -0.1124  0.2214
56547W        W99641   5.106   1.492   8.542 -0.0035 -0.0990  0.1900
56548W        W99642   2.685  33.728   9.657  0.1713  0.2137 -0.1247
56549W        W99643   1.171   0.132  10.001  0.0127 -0.1949 -0.1038
56550W        W99644   2.605  34.217   6.844  0.1710 -0.2117  0.1486
56551W        W99645   1.695   0.592   9.145 -0.0111 -0.2874  0.2863
56552W        W99646   1.766   0.830   9.977 -0.0179  0.4171  0.2409
56553W        W99647   2.056   0.379   7.180 -0.1563 -0.1119  0.0406
56554W        W99648   2.709   0.911   6.296 -0.4548  0.1668 -0.2943
56555W        W99649   2.361   1.475   9.996 -0.1477 -0.1186  0.1393
56556W        W99650   2.822   0.863   7.768  0.0831 -0.1158 -0.1702
56557W        W99651   1.549   1.986   8.873 -0.0947  0.0252  0.0036
56558W        W99652   3.116   1.911   9.866 -0.2392 -0.3889 -0.0005
56559W        W99653   0.431   0.993   8.488  0.0895 -0.1538  0.0619
56560W        W99654   3.037   1.308   7.896 -0.1833  0.0297 -0.0806
56561W        W99655   3.757   1.230   8.482 -0.2001 -0.1255 -0.3059
56562W        W99656   1.888   3.506   8.501 -0.0984  0.0196 -0.1097
56563W        W99657   3.190   1.861   8.161  0.2112  0.0095 -0.0808
56564W        W99658   3.533   2.903   9.000  0.1805  0.0090  0.0525
56565W        W99659   0.146   0.802   8.977  0.2353  0.3396 -0.0220
56566W        W99660   0.975   1.720   9.763  0.3530 -0.0211 -0.2763
56567W        W99661   3.540   1.872   9.625  0.2039  0.2522 -0.3724
56568W        W99662   2.070  34.575   8.293  0.2323 -0.0806  0.1981
56569W        W99663   2.154  34.647   9.577 -0.0418  0.1229  0.1161
56570W        W99664  34.019   1.859   9.521  0.1313 -0.0080  0.3292
56571W        W99665   4.727   0.530   8.883  0.0438 -0.1456  0.1086
56572W        W99666   2.365   2.878   7.249 -0.0901  0.0267  0.1745
56573W        W99667   1.844   1.787   9.306  0.0896 -0.1635 -0.0368
56574W        W99668   0.698   1.759   7.966 -0.2311  0.2342 -0.2746
56575W        W99669   1.983   0.903   7.683 -0.2243 -0.0036 -0.4440
56576W        W99670   1.206   2.341   9.191  0.2238 -0.1344 -0.0960
56577W        W99671   3.483   2.215   8.514  0.2199  0.1093 -0.1135
56578W        W99672   2.588   1.615   9.507 -0.2351 -0.0051 -0.1746
56579W        W99673   3.128   2.440   8.204  0.0379 -0.1198 -0.2563
56580W        W99674   2.118   0.376   8.270 -0.0070 -0.2698  0.1176
56581W        W99675   4.488   0.250   8.427  0.0919  0.2828  0.1158
56582W        W99676   3.846  34.563   7.376 -0.0581  0.1519  0.0270
56583W        W99677  33.977   4.520   9.834  0.0439  0.0754  0.1008
56584W        W99678  34.526   0.815   8.217 -0.1319  0.1002  0.4570
56585W        W99679   1.711   3.955   8.162  0.0924 -0.1121 -0.0844
56586W        W99680   0.686   0.805   9.765  0.1538 -0.1036 -0.0003
56587W        W99681  34.506   1.186   9.726  0.2570 -0.0415 -0.2008
56588W        W99682   1.317   0.484   9.397 -0.1756  0.0718 -0.0033
56589W        W99683   2.749   2.802   7.610 -0.0634 -0.1946  0.1526
56590W        W99684   2.206   0.349   9.909 -0.1414 -0.1052  0.0040
56591W        W99685   1.261   0.802   9.760  0.3497  0.0161  0.0378
56592W        W99686   3.413   1.415   8.183 -0.1421 -0.0188  0.2863
56593W        W99687   1.474   2.730   9.440 -0.1974  0.0652  0.1157
56594W        W99688   2.393  34.103   6.376  0.0953  0.3215  0.0982
56595W        W99689   0.688   1.336   7.381 -0.0563 -0.0486  0.0476
56596W        W99690   0.232   0.512   8.149  0.3634 -0.0103  0.2384
56597W        W99691   0.927   1.544   9.154 -0.0512  0.0048  0.3287
56598W        W99692   1.458   1.943   7.527  0.1212 -0.3266 -0.2072
56599W        W99693   3.083   3.431   6.862 -0.2645 -0.0386  0.0984
56600W        W99694   5.356   0.012   8.825 -0.0272 -0.1827  0.0024
56601W        W99695   2.241   1.519   7.805 -0.0818  0.0360 -0.1300
56602W        W99696   3.136   1.819   7.645 -0.0364  0.0693  0.0279
56603W        W99697   2.181  32.736   9.939  0.1324  0.1391 -0.0702
56604W        W99698   3.132   0.681   8.520  0.1006  0.0979  0.1173
56605W        W99699   3.558   3.262   9.405 -0.1841  0.3238  0.0490
56606W        W99700   1.155  33.844   9.687 -0.2325 -0.0096  0.1427
56607W        W99701   3.684  34.502   8.605 -0.0421 -0.1227 -0.0826
56608W        W99702   3.313   2.463   7.696  0.2215  0.0246 -0.1151
56609W        W99703   4.020   2.232   9.583  0.2426  0.3171  0.1077
56610W        W99704   2.354   1.362   8.247  0.0613 -0.2866  0.1478
56611W        W99705   2.027   2.522   8.748  0.0404 -0.1741 -0.0105
56612W        W99706   1.146   0.917   8.033 -0.2046  0.1302  0.0294
56613W        W99707   3.857   1.580   6.986 -0.3081 -0.0084 -0.0601
56614W        W99708   2.897   2.873   8.974 -0.2200 -0.1039  0.0554
56615W        W99709   2.251   2.284   9.460  0.1069  0.3081  0.0012
56616W        W99710   3.843   2.560   8.728  0.5430  0.0509  0.0264
56617W        W99711   0.680  34.546   9.696 -0.1140 -0.1462  0.1887
56618W        W99712   0.734   1.578   8.511  0.4141 -0.1431  0.0592
56619W        W99713   1.635   0.871   8.746  0.2928 -0.0753 -0.1885
56620W        W99714   5.941  34.486   9.679 -0.0147  0.1092  0.3667
56621W        W99715   0.690   0.816   8.890 -0.1069 -0.2218  0.3578
56622W        W99716   3.193  34.345   8.023  0.3770  0.3047  0.0579
56623W        W99717   1.090   3.032   9.624  0.1541  0.1049  0.1660
56624W        W99718   4.411   3.287   9.948  0.0363 -0.0968  0.2365
56625W        W99719   0.394   6.222   3.444  0.0327 -0.2247 -0.1631
56626W        W99720   1.541   5.673   0.208  0.3219  0.2378  0.0771
56627W        W99721   3.719   3.636   0.862  0.1303  0.0220 -0.2180
56628W        W99722   3.264   5.603   2.025  0.3225  0.0893  0.0098
56629W        W99723  34.185   3.731   2.766 -0.0388  0.1515  0.1046
56630W        W99724   4.194   6.481  31.776  0.1987  0.0290  0.1024
56631W        W99725   0.160   3.029   2.736 -0.1001 -0.2062  0.0484
56632W        W99726   4.026   8.113   1.992 -0.0304 -0.0276 -0.2350
56633W        W99727   2.696   7.727   1.192  0.0845  0.0425  0.0926
56634W        W99728   3.828   5.893  31.958 -0.0770  0.4575 -0.2155
56635W        W99729   0.879   4.972   1.256 -0.1193  0.1194  0.0583
56636W        W99730   0.055   6.750   2.617  0.0231  0.1189 -0.2325
56637W        W99731   1.349   4.215   0.381  0.3199 -0.1940  0.0053
56638W        W99732  33.855   4.977   1.394 -0.3540 -0.0034  0.1272
56639W        W99733   3.676   3.785   2.379  0.0647 -0.1847  0.0946
56640W        W99734   0.536   5.427   1.229 -0.3345  0.1210  0.0887
56641W        W99735   1.230   5.853   1.576 -0.5017  0.0157  0.4667
56642W        W99736   1.802   5.018   0.753 -0.2058 -0.1830 -0.3100
56643W        W99737   1.862   6.335   2.070  0.0217 -0.0563  0.1113
56644W        W99738  34.478   4.373   2.271  0.1481  0.1350 -0.1475
56645W        W99739   1.709   4.311   1.653 -0.0383  0.1830  0.2413
56646W        W99740   2.617   7.296   1.527  0.1892  0.0886 -0.0236
56647W        W99741   1.695   3.545  31.314 -0.2572 -0.1621 -0.1682
56648W        W99742  34.165   5.886   1.377 -0.0869 -0.4006 -0.3021
56649W        W99743  34.565   5.510   1.789  0.1160  0.3471 -0.2180
56650W        W99744   3.950   4.504   2.362  0.0508  0.2316  0.1076
56651W        W99745   2.043   5.694   2.780 -0.0630  0.1332 -0.0688
56652W        W99746   0.859   6.960   3.065 -0.3467 -0.2056  0.0055
56653W        W99747   0.768   5.665   1.803 -0.2614 -0.2403  0.2670
56654W        W99748   2.382   5.012   3.109  0.2860  0.1334 -0.2997
56655W        W99749  33.805   7.190   0.089 -0.0790  0.0861  0.0553
56656W        W99750   0.078   6.924   1.367 -0.0157 -0.1475 -0.1406
56657W        W99751   1.654   6.044  31.887 -0.1814 -0.0720 -0.1899
56658W        W99752   3.852   6.664   0.665  0.1265  0.1886 -0.1562
56659W        W99753   2.358   6.961   0.809  0.2896  0.1661  0.1846
56660W        W99754  34.481   7.070   3.569  0.0491 -0.3448  0.1945
56661W        W99755   0.571   7.500  31.653  0.1510 -0.1380  0.1060
56662W        W99756   2.583   6.462   2.721 -0.3498  0.0359  0.2905
56663W        W99757   1.242   6.775   3.405 -0.2201  0.0440 -0.2888
56664W        W99758   1.207   5.416  31.879 -0.0262 -0.2749  0.1862
56665W        W99759   2.395   5.685   1.265 -0.0126  0.2187  0.0806
56666W        W99760   1.129   5.936   0.063  0.0828  0.3755  0.0345
56667W        W99761   2.766   5.695   0.792 -0.1103 -0.2093 -0.1170
56668W        W99762   1.688   6.485   2.557 -0.0998  0.0621  0.1764
56669W        W99763   0.190   6.229   2.588 -0.2435 -0.1432 -0.0062
56670W        W99764   3.331   4.867   2.632 -0.4194 -0.1765  0.0558
56671W        W99765   0.740   7.133   0.567 -0.1140  0.0752  0.0342
56672W        W99766   3.329   4.227   0.426 -0.0294  0.2248 -0.1709
56673W        W99767   2.190   6.328   0.014 -0.1732 -0.3770  0.1979
56674W        W99768   2.646   4.580   2.989 -0.0924 -0.3896  0.3144
56675W        W99769   1.139   4.985   0.852  0.1156  0.0067 -0.1111
56676W        W99770   0.911   6.835   1.114 -0.2075 -0.0070 -0.3153
56677W        W99771   0.364   3.947   1.441 -0.1592  0.0358 -0.0548
56678W        W99772   2.636   6.122   2.310  0.1856 -0.0138  0.0741
56679W        W99773   1.911   5.358   0.370  0.1763  0.6448  0.2110
56680W        W99774   1.774   5.503   1.901 -0.0318 -0.0172 -0.2025
56681W        W99775   0.660   6.046   2.603  0.1850 -0.2293  0.2055
56682W        W99776   0.214   5.720   2.487  0.0167 -0.0660  0.3106
56683W        W99777   3.198   6.587   0.978 -0.0564 -0.0748 -0.1438
56684W        W99778   1.991   8.346   1.435  0.1507  0.3690  0.0650
56685W        W99779   1.791   7.600   1.466  0.2791 -0.0705 -0.5007
56686W        W99780   0.924   6.329   0.374 -0.2068 -0.2352 -0.0253
56687W        W99781  34.671   6.067   2.175  0.2270 -0.3060  0.3802
56688W        W99782   0.334   4.663   2.452 -0.3384 -0.1203  0.0451
56689W        W99783   2.206   5.290  31.967  0.0582  0.3243 -0.1332
56690W        W99784   2.440   7.480   2.940 -0.0181 -0.0459  0.0247
56691W        W99785   0.586   6.472   2.137 -0.4248 -0.0183  0.1190
56692W        W99786   3.351   3.480   0.459  0.0252 -0.1716 -0.0359
56693W        W99787   1.292   4.140   2.011  0.1370 -0.0818  0.1400
56694W        W99788   3.661   7.127   2.545  0.2412 -0.2014 -0.3101
56695W        W99789   2.991   5.206   0.574 -0.1655 -0.2461  0.0268
56696W        W99790   3.841   4.167   1.965 -0.2108 -0.0605 -0.1150
56697W        W99791   1.567   3.530   3.464  0.0298 -0.1575  0.1164
56698W        W99792   1.164   6.336  31.589 -0.2630  0.0385 -0.2732
56699W        W99793   2.516   6.124   1.052 -0.0631 -0.0757 -0.0283
56700W        W99794   4.265   4.716   2.727 -0.0000 -0.2961 -0.0891
56701W        W99795   4.162   4.360   0.131  0.1690  0.1118  0.1182
56702W        W99796   1.561   8.662   1.473 -0.0660 -0.1414  0.1365
56703W        W99797   1.074   4.614   2.655 -0.2160  0.1453  0.1433
56704W        W99798   2.336   5.649   2.405 -0.0340 -0.1809  0.2653
56705W        W99799   2.667   7.169  31.802  0.0090  0.0206 -0.2839
56706W        W99800   0.206   6.407   1.812  0.1594  0.1690 -0.0854
56707W        W99801   0.561   5.679   0.691  0.0778 -0.1504  0.1326
56708W        W99802   0.254   4.167   2.357  0.2699 -0.1998  0.3942
56709W        W99803   0.295   6.828   1.989  0.1392 -0.1595 -0.2532
56710W        W99804   2.049   3.156   1.189  0.1204 -0.1246 -0.2058
56711W        W99805   0.177   3.633   1.766  0.1036 -0.0427  0.1032
56712W        W99806   3.375   4.065   1.823 -0.1204 -0.2283 -0.1107
56713W        W99807   0.687   6.416  31.765 -0.0526  0.1944 -0.0209
56714W        W99808   3.486   7.517   1.007 -0.0722  0.1278  0.0208
56715W        W99809   2.124   4.403   1.981 -0.0868  0.0783 -0.0866
56716W        W99810   2.854   5.892   0.248  0.2320 -0.1868  0.0362
56717W        W99811   1.137   5.760   2.566 -0.0259 -0.4289  0.0049
56718W        W99812   0.961   6.412   1.329 -0.0265  0.0908  0.1348
56719W        W99813   0.427   3.622   2.513  0.3209 -0.2299  0.0990
56720W        W99814   0.633   4.537   2.849  0.1424 -0.1090  0.2140
56721W        W99815   2.125   4.570   3.125  0.2386  0.1977 -0.0730
56722W        W99816   1.498   4.365   1.033 -0.1048  0.0019 -0.0625
56723W        W99817   2.611   4.490   2.066 -0.1901  0.1805 -0.0058
56724W        W99818   2.703   6.748   0.113  0.1327  0.0259  0.0293
56725W        W99819  34.530   6.444   1.439 -0.0793  0.0913 -0.0340
56726W        W99820   3.519   4.419   3.683  0.1787  0.1228  0.1482
56727W        W99821   2.492   7.608  31.972  0.0520 -0.1123  0.1773
56728W        W99822   3.094   7.081   2.377  0.0913 -0.1992 -0.0957
56729W        W99823   2.957   6.418   1.348  0.0186  0.0476  0.0368
56730W        W99824   0.264   4.901   2.934 -0.0052 -0.1168  0.1407
56731W        W99825   1.017   4.841   0.377  0.1675  0.0689  0.0358
56732W        W99826  34.135   6.969   0.425 -0.0818 -0.1751 -0.3613
56733W        W99827   1.639   6.904   4.023 -0.0848  0.2551 -0.0252
56734W        W99828   1.222   4.246   1.429  0.3199 -0.0225 -0.1715
56735W        W99829   2.939   7.606   2.086 -0.3720  0.0442 -0.3073
56736W        W99830   2.552   6.038  31.321 -0.2504 -0.0913 -0.0909
56737W        W99831   0.310   7.182   2.367  0.1585  0.0267  0.0479
56738W        W99832   1.300   2.062   3.546  0.0827  0.2876  0.0295
56739W        W99833   2.964   6.181   2.687  0.1240 -0.2615 -0.0553
56740W        W99834   2.217   4.019   0.792  0.1011 -0.2057 -0.1704
56741W        W99835   1.001   4.464   0.005  0.2171  0.1004  0.0587
56742W        W99836   2.591   7.403   0.812 -0.0047 -0.3632  0.0206
56743W        W99837   0.604   6.114   0.849  0.1693  0.4010 -0.0013
56744W        W99838   0.815   4.833   2.326  0.1684  0.1461  0.1533
56745W        W99839   0.506   6.659   1.426  0.1524 -0.0278 -0.3424
56746W        W99840   2.526   4.968   2.276  0.2394 -0.0108  0.0447
56747W        W99841  33.935   4.669   3.872  0.0128  0.2620  0.1988
56748W        W99842   0.862   3.298   2.154 -0.2151 -0.3102 -0.0621
56749W        W99843   1.422   5.147   0.236  0.1378 -0.1250  0.0926
56750W        W99844   0.152   6.529   3.029 -0.4017 -0.1680  0.1731
56751W        W99845   3.295   3.576   1.533 -0.2386  0.0802  0.0324
56752W        W99846   2.272   3.247   0.007  0.3008 -0.0044 -0.1932
56753W        W99847   2.994   5.388   1.634 -0.2190  0.0273  0.1028
56754W        W99848   2.957   3.859   0.437 -0.1275  0.1583  0.2433
56755W        W99849   3.375   4.649  31.958 -0.0102 -0.2815  0.3245
56756W        W99850   2.105   3.736   0.347  0.0960 -0.0161  0.0225
56757W        W99851   0.011   5.223   2.577 -0.0302  0.2366  0.0220
56758W        W99852   2.575   5.113   1.405 -0.0451  0.1022 -0.0202
56759W        W99853   1.174   6.844   1.605  0.0688  0.0142 -0.1592
56760W        W99854   1.337   4.140  31.854 -0.0539  0.3917 -0.1782
56761W        W99855   4.789   8.058   0.693 -0.0141  0.1786  0.1692
56762W        W99856  33.985   5.349   3.043  0.3674  0.1516 -0.0748
56763W        W99857   2.451   5.212   2.693 -0.2066  0.0425  0.1796
56764W        W99858   2.456   6.623   1.212 -0.0368 -0.2074 -0.1092
56765W        W99859   0.690   3.479   1.740 -0.1447  0.3430 -0.4658
56766W        W99860   1.529   7.457  31.975 -0.2632 -0.2826 -0.3740
56767W        W99861   1.950   4.449   0.884  0.0488  0.0527  0.1086
56768W        W99862   1.055   6.858  31.707  0.1578 -0.0196  0.2865
56769W        W99863   2.492   3.189   2.739  0.0502 -0.0126  0.1075
56770W        W99864   1.552   3.786   1.713  0.2034 -0.0839  0.0441
56771W        W99865   0.938   2.759   2.897 -0.1988  0.2091  0.1469
56772W        W99866   2.854   4.852   3.538  0.0357 -0.0809  0.0275
56773W        W99867   3.010   5.360   1.098  0.1245 -0.0392  0.2754
56774W        W99868   3.361   6.102   1.257  0.1902 -0.0896  0.0840
56775W        W99869   1.012   5.897   0.543  0.0411  0.1718  0.1675
56776W        W99870   1.332   3.158   2.153  0.2078 -0.1072  0.3406
56777W        W99871  34.069   4.799   1.889  0.2034 -0.0993  0.1195
56778W        W99872   0.738   7.414   2.677  0.0238 -0.3800 -0.1959
56779W        W99873   0.818   6.895   1.967 -0.1143  0.1819 -0.1046
56780W        W99874   2.036   6.222   1.610 -0.0656  0.0780 -0.1871
56781W        W99875   2.923   4.082   2.308  0.1622  0.0562  0.0994
56782W        W99876   1.445   4.671   0.553 -0.0044 -0.2466 -0.2640
56783W        W99877   1.382   5.955   0.924  0.0943 -0.0186  0.1271
56784W        W99878   1.974   6.541   1.263  0.1011 -0.0910 -0.5295
56785W        W99879   1.335   2.544   2.085  0.0626  0.0794 -0.1350
56786W        W99880   2.167   6.680   2.647  0.0742 -0.0934 -0.1136
56787W        W99881   1.620   6.250  31.201  0.0346  0.0609 -0.2143
56788W        W99882   2.841   6.682   3.375 -0.1905 -0.1806 -0.1191
56789W        W99883   1.185   8.120  31.319 -0.0105  0.0945  0.1507
56790W        W99884   3.059   4.041   1.315 -0.0647  0.2230 -0.1757
56791W        W99885  33.669   5.842   1.620  0.0449  0.2790 -0.0863
56792W        W99886  34.440   6.033   0.495  0.1825  0.0160 -0.1332
56793W        W99887   0.827   5.173  31.886  0.3970  0.3153 -0.3275
56794W        W99888   2.441   4.429   1.016  0.3173  0.0847 -0.0495
56795W        W99889   4.652   6.695  31.710  0.1400 -0.2710  0.3292
56796W        W99890   0.388   4.770   1.359  0.1264 -0.0373  0.1739
56797W        W99891   1.556   3.831   1.197 -0.0418  0.1025  0.0515
56798W        W99892  34.553   7.560   1.505  0.1094 -0.2127 -0.1340
56799W        W99893   2.765   4.868   1.796 -0.0357 -0.0086 -0.1871
56800W        W99894   3.783   3.484  31.297 -0.1259  0.1186  0.3689
56801W        W99895   2.234   7.097   1.992 -0.0963  0.0010 -0.0869
56802W        W99896   1.538   5.398   2.510 -0.0746 -0.0684  0.2473
56803W        W99897   0.506   5.457  31.352 -0.0608  0.0475  0.1152
56804W        W99898   3.647   4.648   3.172  0.4297  0.0083  0.0653
56805W        W99899   1.680   3.408   1.410 -0.1287  0.0625  0.0305
56806W        W99900  34.318   6.859   1.088 -0.0236  0.1124 -0.1844
56807W        W99901   2.490   6.735   1.735  0.0310  0.0627 -0.1444
56808W        W99902   2.041   5.811   0.048 -0.0791 -0.1256  0.0733
56809W        W99903  34.550   5.292  31.660 -0.0649 -0.1633  0.0504
56810W        W99904   1.917   3.666   3.752  0.0606 -0.0409  0.1598
56811W        W99905   3.927   5.526   2.763  0.2172  0.2714  0.0285
56812W        W99906   0.603   4.704   0.890  0.2413 -0.2784  0.2142
56813W        W99907   0.341   5.832   1.616 -0.0539 -0.1487 -0.0039
56814W        W99908   2.256   3.595   1.226  0.1408 -0.1189  0.0724
56815W        W99909   1.852   6.863   2.232 -0.1813  0.0988  0.1848
56816W        W99910   2.917   3.827   1.797  0.0673  0.3654 -0.1435
56817W        W99911   2.999   6.928   2.832  0.3559  0.1394  0.1775
56818W        W99912   1.332   3.096   0.387  0.2187 -0.0201  0.0474
56819W        W99913   4.350   7.714   0.440  0.1021 -0.1659 -0.0301
56820W        W99914   1.858   5.573   3.595  0.1534 -0.0244 -0.1354
56821W        W99915   2.298   6.688   0.412  0.1345  0.0536 -0.1204
56822W        W99916   0.300   6.219   1.298  0.0785 -0.0054 -0.2185
56823W        W99917   1.754   5.628   0.902 -0.2488  0.1893 -0.3891
56824W        W99918   1.468   2.401   1.602 -0.1892  0.4224  0.2033
56825W        W99919  34.483   5.545   2.886 -0.1146  0.2926 -0.0184
56826W        W99920   1.330   6.462   0.066  0.3448  0.1968 -0.4089
56827W        W99921   0.755   5.008   2.873  0.1273  0.0319 -0.1530
56828W        W99922   1.482   3.480   0.795  0.0342  0.0611  0.0876
56829W        W99923   3.336   6.940  31.573 -0.0700  0.0593 -0.1236
56830W        W99924   1.843   4.986  31.753  0.1613  0.0348  0.1307
56831W        W99925   3.132   4.844   3.085 -0.1218  0.1467  0.2676
56832W        W99926   2.104   3.496   0.799 -0.1624  0.0872  0.1129
56833W        W99927   1.866   3.455   1.977  0.2130 -0.2294 -0.0658
56834W        W99928   0.258   5.298   2.031  0.1209  0.1672  0.0131
56835W        W99929   3.422   7.104   1.360 -0.1986  0.2024 -0.0981
56836W        W99930  33.205   3.847   2.351  0.1638  0.2351 -0.1590
56837W        W99931   2.434   6.902   2.981  0.0367  0.1156 -0.0462
56838W        W99932   0.521   5.190   2.501  0.2734  0.1592 -0.3602
56839W        W99933   2.032   4.134   1.272  0.0622  0.1069  0.3310
56840W        W99934   0.611   4.741   0.157 -0.2479 -0.0130 -0.1161
56841W        W99935   1.137   4.659   1.972 -0.2485  0.0232 -0.0710
56842W        W99936   3.736   8.406   3.302 -0.0190  0.0024  0.1658
56843W        W99937   2.886   5.884   1.261  0.1997 -0.1124  0.0575
56844W        W99938   3.694   4.972   2.096 -0.3183  0.1692 -0.1069
56845W        W99939   0.760   5.574   2.282  0.1698 -0.0522  0.2261
56846W        W99940   2.001   6.022   1.115  0.0847  0.2063 -0.1723
56847W        W99941   4.097   5.213   0.508  0.1265  0.0509  0.2138
56848W        W99942   1.966   4.650   1.345  0.0136  0.0769  0.2573
56849W        W99943   0.611   4.461   2.040 -0.1936  0.5003 -0.1865
56850W        W99944   3.758   5.448   1.976 -0.0489  0.2272 -0.1661
56851W        W99945   2.952   3.347   3.239 -0.2378 -0.0720  0.0647
56852W        W99946   1.917   3.985   2.194 -0.1167 -0.0170 -0.3082
56853W        W99947   2.110   4.132   3.491 -0.1200 -0.3234 -0.2715
56854W        W99948   2.047   3.915   1.700  0.0465 -0.0489  0.0806
56855W        W99949  33.996   4.062   3.131 -0.3643 -0.1118  0.1359
56856W        W99950   2.490   8.957   3.559  0.2619  0.0659 -0.0969
56857W        W99951   3.436   4.231  31.656 -0.0681 -0.2933  0.0219
56858W        W99952   3.806   4.184   3.242 -0.0061  0.1307 -0.1608
56859W        W99953   3.088   6.127   2.186  0.1458 -0.2099 -0.0567
56860W        W99954   2.537   5.049   0.329 -0.1357  0.0729 -0.0373
56861W        W99955  34.154   3.940   1.781  0.2129 -0.1007  0.0272
56862W        W99956   1.879   4.672   3.609 -0.1207 -0.0453  0.2481
56863W        W99957   2.820   5.459  31.907  0.1538  0.1369  0.0744
56864W        W99958   2.747   2.709   2.814 -0.1258 -0.1045 -0.0453
56865W        W99959   1.613   7.962  31.883  0.3520 -0.0935 -0.2239
56866W        W99960   1.283   7.285   1.331 -0.0812 -0.1211 -0.1175
56867W        W99961   1.989   5.313   1.415 -0.3656 -0.1674 -0.2257
56868W        W99962  33.660   4.922   2.229  0.0041  0.2683 -0.2100
56869W        W99963  34.495   5.972   2.650  0.2687  0.0693  0.0440
56870W        W99964   2.372   4.916  31.678 -0.1425  0.0388 -0.1724
56871W        W99965   3.043   6.123   0.804 -0.0166 -0.1296  0.2205
56872W        W99966   2.016   4.805   2.236 -0.1122 -0.0744 -0.0676
56873W        W99967   2.303   7.153   3.458  0.0741 -0.0243  0.1659
56874W        W99968   2.806   3.449  31.234  0.3124 -0.1833 -0.1499
56875W        W99969   2.577   4.247   3.328 -0.0029 -0.0617  0.0903
56876W        W99970  33.892   6.433   0.470 -0.1553 -0.0388 -0.3863
56877W        W99971   2.930   3.255   1.865 -0.0339  0.0132  0.1007
56878W        W99972   1.186   6.389   0.896 -0.3887 -0.4100 -0.2200
56879W        W99973  33.997   5.675   2.596 -0.2688  0.2338 -0.0946
56880W        W99974   1.325   4.890  31.749  0.3917 -0.0691 -0.0057
56881W        W99975   2.068   3.084   1.661 -0.0844 -0.1384 -0.2880
56882W        W99976   2.275   4.700   2.689 -0.0842 -0.3861  0.0977
56883W        W99977   0.975   5.429   1.433  0.0869  0.2334  0.0279
56884W        W99978   3.551   5.421   3.663 -0.1179 -0.3174 -0.1610
56885W        W99979   1.755   5.787   1.440  0.2854  0.4408  0.1753
56886W        W99980   1.354   4.698   1.442 -0.0345  0.3541 -0.2927
56887W        W99981   1.517   5.010   2.158 -0.4839  0.1028 -0.2594
56888W        W99982   3.972   7.398   2.305  0.0613 -0.2749  0.0497
56889W        W99983   0.560   6.000   0.253 -0.1966  0.1892  0.0697
56890W        W99984   0.710   3.409   3.857 -0.0006 -0.0897  0.1532
56891W        W99985   1.605   4.379   2.303  0.0870 -0.1757  0.3752
56892W        W99986   2.920   6.488   1.863 -0.2092  0.4828  0.0052
56893W        W99987   0.135   2.494   1.945 -0.0526 -0.1712  0.2996
56894W        W99988   3.316   5.672   0.879  0.2385  0.1168 -0.2016
56895W        W99989  34.520   6.096   3.754  0.0779  0.0296 -0.1165
56896W        W99990   1.345   5.656   2.081  0.2087  0.0815 -0.1550
56897W        W99991   2.179   6.386   0.796  0.0317 -0.0202 -0.2670
56898W        W99992   3.516   6.097   0.611 -0.3564  0.1286  0.1666
56899W        W99993   4.278   5.633   0.184 -0.1181  0.4319 -0.0524
56900W        W99994   3.675   6.792   2.953 -0.3551 -0.0568 -0.2554
56901W        W99995   2.076   5.321  31.442  0.0781  0.0673 -0.0611
56902W        W99996   0.781   7.094   1.531 -0.2661 -0.1909  0.1615
56903W        W99997  33.627   6.158  31.941  0.3453 -0.0590 -0.2140
56904W        W99998   2.795   7.758   0.427 -0.3639 -0.0999  0.0929
56905W        W99999   1.888   6.872   0.720  0.1831 -0.2101  0.2459
56906W        W    0   2.999   7.447   2.694 -0.2296 -0.1412  0.1446
56907W        W    1   3.508   5.315   1.141  0.0233 -0.1752 -0.1204
56908W        W    2   3.129   5.123   2.255  0.3870 -0.1666  0.0322
56909W        W    3   2.672   5.464   2.105 -0.2326  0.0815  0.0214
56910W        W    4   1.924   7.113   2.986 -0.1588 -0.4416 -0.0759
56911W        W    5   0.974   3.686   1.269  0.0161  0.0756 -0.0052
56912W        W    6   2.470   3.169  30.595 -0.2981 -0.2353 -0.0374
56913W        W    7   0.279   5.402   3.074  0.1394  0.0298  0.0874
56914W        W    8   4.439   4.487   2.343 -0.3155  0.2220  0.0068
56915W        W    9  34.313   5.653   4.793 -0.1667  0.3357 -0.0651
56916W        W   10   2.695   6.494   0.727  0.1338  0.1437  0.1188
56917W        W   11   1.210   4.773  31.234  0.0770 -0.0693 -0.1413
56918W        W   12   2.792   5.868   1.798  0.0933 -0.0399 -0.0139
56919W        W   13   3.454   3.337   2.620 -0.0870 -0.0875  0.1891
56920W        W   14   3.269   5.660   0.357 -0.1188  0.1695 -0.2135
56921W        W   15   2.282   5.584   1.746 -0.0432 -0.2860 -0.1394
56922W        W   16   1.348   5.290   1.697 -0.0221 -0.0327  0.0793
56923W        W   17   0.602   7.334   1.933  0.1491 -0.0281  0.3604
56924W        W   18   1.308   6.379   1.919 -0.0278  0.2155  0.2380
56925W        W   19  34.427   3.543   0.389  0.0258  0.2627 -0.0317
56926W        W   20   2.654   3.883   0.962 -0.2067  0.1724  0.0141
56927W        W   21   0.988   6.024   2.099 -0.2313  0.0950  0.2027
56928W        W   22   4.076   4.380   3.664 -0.0388  0.0476 -0.2775
56929W        W   23   1.509   5.264   1.224 -0.1724 -0.1784 -0.0369
56930W        W   24   2.458   4.239   2.472 -0.0629  0.1194  0.0428
56931W        W   25   3.323   5.018   1.817 -0.2884 -0.2583  0.1181
56932W        W   26  34.115   3.691   1.384  0.2527  0.1326 -0.1797
56933W        W   27   2.374   4.671   0.593 -0.0933 -0.0570 -0.0065
56934W        W   28   2.938   5.697   2.493 -0.0047  0.0433 -0.1481
56935W        W   29   2.373   5.572   0.318  0.3177 -0.1797 -0.3425
56936W        W   30   2.130   7.148   2.530 -0.1833 -0.1820 -0.3438
56937W        W   31   0.121   4.686   1.967  0.0642  0.1431  0.0435
56938W        W   32   1.939   4.755   0.346  0.0479 -0.1880 -0.1311
56939W        W   33  34.572   6.417   0.236  0.2521 -0.2575  0.2054
56940W        W   34   0.609   4.967   1.853 -0.0404 -0.1208  0.1340
56941W        W   35   2.372   6.586   2.189  0.1399  0.1632 -0.2242
56942W        W   36   1.016   4.435   0.981 -0.0599  0.2584  0.2399
56943W        W   37   2.421   6.123   0.437 -0.1174  0.1632  0.0512
56944W        W   38   3.221   5.826   3.526  0.1331 -0.1917 -0.3374
56945W        W   39   1.351   6.728   0.535  0.0959 -0.2748 -0.2419
56946W        W   40   2.508   6.250   3.315  0.3388  0.2142  0.2452
56947W        W   41   2.182   7.522   1.731  0.2257  0.2397  0.0925
56948W        W   42  34.507   5.091   2.120  0.0405 -0.0574 -0.1889
56949W        W   43   3.390   6.751   2.537  0.0332 -0.0725 -0.1880
56950W        W   44   4.154   6.941   2.730  0.3984  0.2339 -0.3911
56951W        W   45   2.581   4.034   1.521  0.0326 -0.0176 -0.2552
56952W        W   46   0.827   4.486   1.592 -0.0650  0.1795  0.0257
56953W        W   47  33.372   7.201   0.715  0.1290 -0.0301 -0.1040
56954W        W   48   3.773   5.130   3.326  0.3921  0.0208  0.2195
56955W        W   49   3.235   4.313   3.161 -0.1527  0.1758  0.0213
56956W        W   50   1.165   7.331  31.627  0.4107 -0.0983  0.5165
56957W        W   51   3.444   3.188   3.547 -0.1847 -0.2186 -0.0522
56958W        W   52   1.430   6.035   2.338  0.2154 -0.1186  0.0819
56959W        W   53   1.952   5.119   3.373 -0.1486  0.0325 -0.0924
56960W        W   54   1.020   5.549   0.935 -0.0365 -0.2305  0.1178
56961W        W   55   0.431   6.991   2.827  0.1184  0.1246  0.1237
56962W        W   56   1.618   5.991   1.845 -0.3246  0.1836  0.1615
56963W        W   57   0.791   7.375   1.052 -0.1519 -0.2074 -0.0670
56964W        W   58   2.181   7.439   1.197 -0.3508 -0.0798 -0.0243
56965W        W   59   3.375   5.618   1.515  0.0467  0.0640 -0.0360
56966W        W   60   3.197   6.128   1.711  0.1361 -0.1669  0.0622
56967W        W   61   2.412   4.465   1.577  0.2196  0.2391 -0.0067
56968W        W   62   3.690   4.862   1.478 -0.1635 -0.3440 -0.0176
56969W        W   63   2.442   3.544   1.776 -0.1304 -0.2415  0.0033
56970W        W   64   0.855   4.219   2.452 -0.1852  0.2126 -0.0320
56971W        W   65   0.088   5.735   0.278 -0.0684  0.1032 -0.3404
56972W        W   66   0.819   7.183  31.309  0.2512 -0.0542 -0.0675
56973W        W   67   1.383   5.440   0.626  0.2586 -0.2419 -0.0927
56974W        W   68   1.768   4.125   3.931 -0.0031  0.0358  0.1900
56975W        W   69   0.953   2.721   2.342 -0.1824  0.0580  0.2022
56976W        W   70  34.366   5.538   2.291 -0.2102 -0.1230  0.1313
56977W        W   71  34.054   4.501   1.479 -0.0864  0.2257  0.1256
56978W        W   72   3.802   6.977  31.338 -0.4756 -0.3474  0.3098
56979W        W   73   0.592   3.905   2.067  0.0449  0.0869 -0.0760
56980W        W   74  34.499   4.736   2.677 -0.1069 -0.0630  0.0540
56981W        W   75   1.443   6.296   1.380  0.2647  0.0120  0.1790
56982W        W   76   3.829   5.670   0.967 -0.0102  0.2375 -0.0341
56983W        W   77   1.756   4.934   1.731  0.1755 -0.4488  0.0292
56984W        W   78   3.347   7.303   2.989  0.0594  0.1188  0.0097
56985W        W   79   2.002   5.999  31.500  0.1097 -0.1574 -0.1459
56986W        W   80   2.227   5.020   1.836 -0.3485 -0.0216 -0.0371
56987W        W   81   0.959   4.252   3.145  0.1243  0.0969 -0.0140
56988W        W   82   0.290   3.175   1.504  0.3131  0.0701 -0.0101
56989W        W   83   3.125   4.428   2.646 -0.0188 -0.1704 -0.0997
56990W        W   84   3.424   5.740   2.752 -0.1279 -0.1753  0.6491
56991W        W   85   2.950   7.863  31.893  0.0404  0.1819  0.1015
56992W        W   86   2.225   5.513   3.232 -0.1176  0.0642  0.0129
56993W        W   87   1.169   6.343   3.765  0.0663  0.2641 -0.1707
56994W        W   88  34.083   3.209   2.725  0.0666 -0.0427 -0.0032
56995W        W   89   2.809   4.638   1.297 -0.2215 -0.3176 -0.3073
56996W        W   90   2.038   6.254   3.014 -0.0477  0.2850 -0.2378
56997W        W   91   3.973   6.248   2.089 -0.0062 -0.3239 -0.0870
56998W        W   92   2.772   3.474   2.312 -0.0031  0.0773  0.0736
56999W        W   93   2.897   5.792  31.519 -0.1456  0.2032  0.1641
57000W        W   94  34.542   2.269   4.030 -0.2185  0.0395  0.1391
57001W        W   95   0.581   5.696   3.383  0.2391  0.1429 -0.1058
57002W        W   96   4.017   6.630   1.764 -0.2064  0.0599 -0.0068
57003W        W   97   0.723   3.850   0.665  0.2131  0.0004 -0.2103
57004W        W   98   2.777   4.905   0.913 -0.1399 -0.2385 -0.1417
57005W        W   99   3.359   6.044   0.072 -0.3799  0.1057 -0.3095
57006W        W  100   0.770   5.864   1.317  0.3660 -0.1018 -0.1896
57007W        W  101   2.125   4.277   0.399 -0.1044  0.0847 -0.0526
57008W        W  102   1.642   4.792   2.613  0.1761 -0.1214  0.2197
57009W        W  103   1.206   7.142   0.777  0.2510  0.0211 -0.1068
57010W        W  104   3.257   6.904   1.904 -0.0198  0.0167 -0.0404
57011W        W  105   2.249   5.705   0.777  0.1820 -0.0984 -0.2845
57012W        W  106   4.739   5.571   1.075  0.1045 -0.1557 -0.2055
57013W        W  107   1.374   5.386   3.496 -0.0695  0.0404 -0.3966
57014W        W  108   3.024   5.766   3.070  0.0264 -0.3357 -0.3753
57015W        W  109   1.063   7.224   3.597 -0.1220  0.1306  0.0454
57016W        W  110   1.832   4.365   2.803  0.1863 -0.1533 -0.1338
57017W        W  111  33.754   3.747   1.935  0.2052 -0.3236  0.1074
57018W        W  112   0.440   5.974   2.121 -0.0247  0.2018 -0.0526
57019W        W  113   1.663   6.364   0.895  0.1920  0.2886 -0.0903
57020W        W  114   3.128   5.329   2.724 -0.0582  0.0554  0.0488
57021W        W  115   1.006   5.221   2.062 -0.1862  0.3351 -0.2502
57022W        W  116   1.356   3.066   1.135  0.1459 -0.2550  0.3036
57023W        W  117   0.237   6.872   3.860 -0.0192 -0.3548  0.1580
57024W        W  118   0.793   6.815   2.528  0.3718  0.0518 -0.1554
57025W        W  119   1.247   6.446   6.692  0.1163  0.0339 -0.3756
57026W        W  120   0.996   5.014   4.649 -0.0569  0.0439  0.2761
57027W        W  121   2.843   4.895   2.632  0.1235 -0.3059  0.0718
57028W        W  122   2.413   5.186   3.566  0.0109 -0.0008  0.1505
57029W        W  123   1.042   3.285   4.920  0.2711  0.3961 -0.0860
57030W        W  124   3.480   6.199   5.448  0.2800  0.3191  0.0788
57031W        W  125   0.671   3.839   6.520 -0.0885 -0.1192  0.1745
57032W        W  126   3.010   4.958   5.896  0.0965  0.0255 -0.1006
57033W        W  127   4.002   7.461   4.807 -0.1504  0.0766  0.2977
57034W        W  128   1.267   3.632   2.177 -0.0702 -0.0951  0.1651
57035W        W  129   2.506   4.700   7.690 -0.1519  0.1988 -0.1503
57036W        W  130   1.344   6.063   6.032 -0.0512 -0.0985 -0.0399
57037W        W  131   2.210   4.405   3.965 -0.1213  0.0044 -0.5196
57038W        W  132   0.092   2.467   5.018  0.1122 -0.4460  0.0870
57039W        W  133   2.570   4.959   6.130 -0.0770  0.2477 -0.0525
57040W        W  134   0.035   5.179   3.652 -0.1029 -0.1724 -0.0543
57041W        W  135   1.703   4.511   6.395 -0.0941 -0.0902  0.2504
57042W        W  136   1.121   5.482   4.576  0.0609  0.0395  0.1453
57043W        W  137   3.320   6.618   5.180  0.0076  0.1688 -0.0198
57044W        W  138   2.093   4.174   6.343  0.0115  0.0362  0.4106
57045W        W  139   2.605   3.757   7.148 -0.0627  0.0679 -0.0373
57046W        W  140   1.671   7.027   5.451 -0.4023  0.0622  0.0214
57047W        W  141   0.224   5.939   2.991 -0.0714 -0.1828  0.3810
57048W        W  142  34.669   3.923   4.309  0.0999  0.3548  0.0369
57049W        W  143   0.773   5.243   5.862  0.0959 -0.1253  0.1407
57050W        W  144   2.799   4.452   5.755  0.2750  0.1561 -0.0812
57051W        W  145   4.256   5.596   4.977 -0.0201 -0.2532  0.0408
57052W        W  146   0.678   7.191   6.872  0.0223  0.1757  0.1111
57053W        W  147   1.768   6.500   3.574 -0.1699 -0.3491 -0.3261
57054W        W  148   2.237   4.829   8.110  0.0376  0.0500  0.1901
57055W        W  149   1.102   6.152   4.713 -0.2222  0.0190 -0.0857
57056W        W  150  33.172   7.467   5.592 -0.4100  0.2418 -0.2094
57057W        W  151   1.151   6.489   6.188 -0.0489  0.2228  0.3044
57058W        W  152   2.261   5.700   4.846 -0.2512  0.0835 -0.0314
57059W        W  153   3.397   5.620   6.273  0.0070 -0.1083  0.1858
57060W        W  154   0.197   7.947   6.871  0.1584 -0.2705 -0.0588
57061W        W  155  34.273   5.175   4.973 -0.0464  0.0773 -0.2226
57062W        W  156   1.126   7.263   7.647  0.1106  0.1169  0.3089
57063W        W  157   1.692   7.354   7.606 -0.2146  0.0888  0.0054
57064W        W  158   1.369   4.857   6.256  0.1078  0.0425  0.0797
57065W        W  159   2.250   4.952   4.326  0.3028  0.1673 -0.3173
57066W        W  160  34.087   6.428   4.174  0.1393 -0.5517  0.0427
57067W        W  161   2.037   6.170   4.850  0.0106  0.0430 -0.1437
57068W        W  162   1.020   6.139   7.137 -0.1419 -0.1475 -0.0709
57069W        W  163   0.378   5.209   4.969 -0.2023 -0.1116  0.0195
57070W        W  164   3.163   3.829   6.423 -0.3263 -0.2410 -0.0077
57071W        W  165  34.315   6.910   4.030  0.0686  0.0015 -0.2674
57072W        W  166   1.473   3.488   2.611 -0.1102 -0.0084  0.0224
57073W        W  167   1.356   3.983   3.640  0.2179  0.0426  0.1149
57074W        W  168   3.681   3.742   4.172 -0.0042  0.1294 -0.1690
57075W        W  169   2.229   5.107   5.749 -0.3177 -0.0984  0.1285
57076W        W  170   1.852   6.610   6.677 -0.0805 -0.0907  0.5805
57077W        W  171   1.174   4.363   5.926 -0.0354 -0.0602 -0.0005
57078W        W  172   3.234   4.934   6.323  0.1614  0.0674 -0.1697
57079W        W  173   2.212   4.452   4.470  0.1002 -0.1215  0.1824
57080W        W  174   2.226   5.243   6.319  0.0127  0.1847  0.2323
57081W        W  175   0.724   6.710   7.921 -0.1067 -0.3241 -0.0036
57082W        W  176   1.431   4.943   4.323 -0.0374 -0.0421  0.1127
57083W        W  177   1.997   7.642   3.200 -0.2888  0.0696 -0.4824
57084W        W  178   3.582   5.194   5.459  0.1364  0.1192  0.0912
57085W        W  179   1.928   5.110   2.835 -0.1597 -0.2496  0.2087
57086W        W  180   0.424   3.136   5.411 -0.1713  0.3202 -0.1488
57087W        W  181   0.415   5.663   5.927  0.3172 -0.1921  0.0128
57088W        W  182   1.856   3.685   6.325  0.3406 -0.3711  0.0171
57089W        W  183   0.763   3.147   3.372  0.1761  0.0874 -0.0762
57090W        W  184   4.078   4.919   6.730 -0.2939 -0.2345  0.1585
57091W        W  185   0.239   5.163   6.605 -0.1367 -0.0817 -0.0484
57092W        W  186   3.074   5.220   5.383 -0.0070 -0.0573  0.0124
57093W        W  187   0.140   5.845   5.490 -0.0500 -0.4607 -0.0209
57094W        W  188   2.301   6.680   6.722  0.2130  0.0412  0.0080
57095W        W  189   3.543   5.349   2.486 -0.3010  0.0957 -0.1469
57096W        W  190   2.549   3.131   5.620 -0.2322  0.1341  0.0432
57097W        W  191   1.532   3.335   6.523 -0.0066  0.0536  0.2326
57098W        W  192   0.604   5.013   3.973  0.1873  0.0686  0.0588
57099W        W  193   1.049   4.800   3.170 -0.1236 -0.0712  0.3052
57100W        W  194   3.006   4.710   4.932 -0.0498  0.0674 -0.0342
57101W        W  195   1.792   5.669   4.085  0.3091  0.3787 -0.2129
57102W        W  196  33.662   6.636   7.750 -0.1215  0.0623  0.1638
57103W        W  197   1.355   4.754   7.734 -0.2029  0.0358 -0.1511
57104W        W  198   0.211   6.256   6.704  0.0466  0.2762  0.1481
57105W        W  199   1.659   6.095   3.287 -0.1663  0.3181 -0.1422
57106W        W  200   0.111   4.848   5.795 -0.0640 -0.3227  0.0758
57107W        W  201  33.441   4.657   3.718  0.0136  0.1185 -0.1600
57108W        W  202  34.494   3.823   7.384  0.3098 -0.1182  0.4811
57109W        W  203   1.135   5.234   6.575 -0.2230  0.1317 -0.2794
57110W        W  204   2.565   4.856   3.982 -0.4150  0.0122 -0.1755
57111W        W  205   0.724   3.486   5.512 -0.2449  0.0601  0.2063
57112W        W  206   2.048   1.704   5.925  0.0080 -0.1388  0.1358
57113W        W  207   1.742   5.728   5.087 -0.0084  0.0016  0.0587
57114W        W  208   3.328   5.700   4.926 -0.0521  0.1908  0.2963
57115W        W  209   3.099   5.336   3.826  0.0034 -0.1932  0.1438
57116W        W  210   1.372   4.837   3.561  0.1266 -0.1072 -0.0012
57117W        W  211   0.854   4.861   6.355  0.0224  0.0645 -0.0223
57118W        W  212   0.775   4.197   4.538  0.2990  0.2567 -0.0309
57119W        W  213   0.560   4.081   5.969 -0.1744  0.2103 -0.0562
57120W        W  214   0.384   3.871   4.584  0.0779  0.1306 -0.1027
57121W        W  215   2.813   5.172   7.090  0.1529 -0.0703  0.0735
57122W        W  216   1.650   2.685   5.261 -0.1584 -0.0464 -0.1115
57123W        W  217   2.124   3.936   4.252  0.0565  0.1966 -0.0942
57124W        W  218   1.527   4.133   5.557 -0.0697  0.1107 -0.2125
57125W        W  219   0.505   4.917   4.455 -0.3615  0.0554  0.1270
57126W        W  220   2.451   4.233   7.289 -0.0556 -0.0433 -0.1102
57127W        W  221   1.667   6.554   3.100 -0.2913 -0.0852  0.0081
57128W        W  222   4.109   6.887   5.655 -0.3634  0.1582  0.2176
57129W        W  223   2.572   6.410   7.028  0.3711  0.0054 -0.5227
57130W        W  224   1.474   3.210   6.989  0.0660 -0.2577 -0.1021
57131W        W  225   1.143   4.526   4.380  0.5342  0.0101  0.3143
57132W        W  226   0.398   6.759   7.452 -0.1290 -0.1513 -0.0468
57133W        W  227   1.776   5.271   6.044  0.2052 -0.2507 -0.1386
57134W        W  228   1.312   3.447   5.333  0.1257  0.1507  0.0154
57135W        W  229   3.584   5.536   4.561  0.0380 -0.1743 -0.2656
57136W        W  230   2.301   6.641   4.840  0.0656 -0.0693 -0.0934
57137W        W  231   0.658   5.480   6.324  0.0704  0.0022  0.0048
57138W        W  232   1.797   2.878   6.631  0.0102  0.0728  0.1438
57139W        W  233   2.487   5.471   6.714 -0.1708  0.2626  0.0716
57140W        W  234   3.291   5.421   5.802  0.0416  0.2843 -0.3068
57141W        W  235  34.478   3.075   2.390 -0.1492 -0.2424  0.3263
57142W        W  236   2.546   6.560   4.124 -0.0794 -0.2655 -0.0637
57143W        W  237   0.465   5.029   3.361  0.2894 -0.1148  0.0384
57144W        W  238   0.642   5.894   4.749  0.3903  0.0722  0.0454
57145W        W  239   1.358   7.217   4.532  0.2955 -0.0925 -0.4597
57146W        W  240   3.260   3.457   3.930 -0.0251  0.2265  0.1240
57147W        W  241   0.062   4.686   6.796 -0.3077 -0.1046  0.1325
57148W        W  242   4.541   4.666   6.796 -0.0781  0.1338  0.0254
57149W        W  243   0.175   4.412   2.948  0.0301  0.2042 -0.0993
57150W        W  244  33.885   5.789   7.600 -0.0019 -0.0231 -0.1161
57151W        W  245   2.062   3.883   5.255  0.1245  0.0473 -0.3488
57152W        W  246   3.860   4.311   4.145  0.0896  0.1723 -0.0118
57153W        W  247   2.641   3.934   6.708  0.1741 -0.2207  0.3187
57154W        W  248   2.116   6.174   4.059 -0.0919 -0.4822  0.0938
57155W        W  249   2.383   4.669   3.550 -0.3630  0.3316  0.0810
57156W        W  250   2.840   3.291   3.699 -0.1595 -0.2894  0.0044
57157W        W  251   0.342   6.299   7.595 -0.0902  0.0685  0.1564
57158W        W  252   2.071   6.671   3.871  0.3138 -0.3531 -0.2453
57159W        W  253   0.752   6.131   6.596  0.0558  0.1105 -0.2614
57160W        W  254   1.670   4.776   3.156 -0.0770  0.0960  0.1124
57161W        W  255   2.532   5.314   4.650 -0.3261 -0.3364  0.2364
57162W        W  256  34.479   5.153   6.925 -0.1091  0.2106  0.1925
57163W        W  257   2.648   5.836   7.857  0.0640  0.3850 -0.1935
57164W        W  258   2.148   6.387   5.258  0.0925 -0.2580  0.0319
57165W        W  259   0.759   4.074   5.410 -0.0003 -0.2827 -0.1312
57166W        W  260   0.491   4.067   4.045  0.2166  0.2644  0.0397
57167W        W  261   2.062   3.994   5.806 -0.3955 -0.3189  0.0351
57168W        W  262   0.150   5.802   4.733  0.2803  0.3400  0.2716
57169W        W  263   2.291   2.812   6.655 -0.2725 -0.1736 -0.2340
57170W        W  264   1.993   2.103   6.303 -0.0874  0.2040  0.0195
57171W        W  265   2.628   2.557   5.705 -0.0518  0.0613 -0.2167
57172W        W  266   3.504   4.362   7.077  0.0873 -0.1043  0.0347
57173W        W  267   2.117   4.654   4.957 -0.4002  0.0355  0.0155
57174W        W  268   3.023   5.807   5.973  0.2860  0.2205  0.1077
57175W        W  269   1.381   4.436   2.989  0.3537 -0.0015 -0.2272
57176W        W  270   2.148   3.786   6.828 -0.0500 -0.0533  0.2295
57177W        W  271   1.192   5.783   6.780  0.2007  0.0906 -0.1661
57178W        W  272   0.771   6.691   5.733  0.0864 -0.4768  0.2100
57179W        W  273   3.247   5.316   6.697  0.2559  0.1301 -0.1841
57180W        W  274   2.014   4.586   5.533  0.1312 -0.1018 -0.2212
57181W        W  275   1.734   3.855   7.627  0.0237  0.0610 -0.0005
57182W        W  276   1.286   4.093   2.549 -0.0794  0.0058 -0.2546
57183W        W  277   1.325   7.420   5.274 -0.1833 -0.2122 -0.3593
57184W        W  278  34.577   4.454   4.185  0.1575  0.3075  0.1225
57185W        W  279   1.116   3.133   5.671 -0.0093 -0.1971 -0.1633
57186W        W  280  34.671   6.044   5.914 -0.1715  0.0759 -0.0927
57187W        W  281   0.724   5.487   3.828 -0.0845 -0.1144 -0.2168
57188W        W  282   2.403   5.159   7.422  0.0839 -0.1282  0.0279
57189W        W  283  34.544   5.960   5.122  0.0320 -0.1267  0.1040
57190W        W  284   2.490   4.062   5.547  0.3451  0.2431 -0.2118
57191W        W  285   0.332   7.677   7.537 -0.0939  0.1270 -0.1943
57192W        W  286   1.058   4.160   4.058 -0.2679  0.0356 -0.3571
57193W        W  287   0.158   3.456   3.413  0.3996  0.2164 -0.0995
57194W        W  288   2.616   3.453   5.191 -0.0895  0.3168 -0.1600
57195W        W  289   3.190   5.270   3.338  0.1527 -0.0483  0.1397
57196W        W  290  34.663   4.369   5.198 -0.0604 -0.1107  0.1928
57197W        W  291   0.715   3.549   6.953 -0.2209  0.0063 -0.2753
57198W        W  292  34.124   5.660   5.256  0.1751 -0.1459  0.0236
57199W        W  293   1.946   6.128   6.935 -0.1086 -0.0738  0.0756
57200W        W  294   2.983   3.870   3.831 -0.1749 -0.0076  0.2113
57201W        W  295   1.637   7.311   7.040  0.0984 -0.3076 -0.2106
57202W        W  296   1.065   5.533   7.174 -0.0379  0.1323  0.1865
57203W        W  297   0.529   4.069   2.803 -0.3457 -0.1717 -0.1750
57204W        W  298   3.568   4.040   6.254 -0.1149  0.1396  0.1385
57205W        W  299   1.309   6.638   4.209  0.1571  0.1776 -0.1244
57206W        W  300  34.550   7.151   6.850 -0.0194  0.0185  0.0927
57207W        W  301   2.391   5.892   6.955 -0.0194  0.0957  0.1920
57208W        W  302   1.033   3.653   4.256  0.1920  0.2927 -0.3486
57209W        W  303   1.136   7.018   4.970 -0.2404 -0.0768 -0.0765
57210W        W  304   1.098   4.012   8.722 -0.2166 -0.2553  0.1173
57211W        W  305   2.269   5.099   6.901 -0.4591  0.1633  0.0593
57212W        W  306   2.089   5.251   4.943  0.0424  0.1043 -0.0974
57213W        W  307   1.874   4.901   4.645  0.0880 -0.5561 -0.0498
57214W        W  308   1.465   2.908   6.155  0.2230  0.0877 -0.0183
57215W        W  309   0.826   6.069   5.232 -0.0415 -0.1112  0.0829
57216W        W  310   1.854   3.186   6.081 -0.2583  0.0355 -0.0443
57217W        W  311   0.217   5.772   7.499 -0.1907 -0.0975  0.0830
57218W        W  312   1.902   2.786   5.729 -0.0289  0.0231 -0.0858
57219W        W  313   2.272   5.704   4.356 -0.1051  0.1059  0.0101
57220W        W  314   1.792   5.826   8.322  0.1263  0.2989  0.2853
57221W        W  315   0.726   6.063   3.787 -0.3676 -0.3708  0.0343
57222W        W  316   0.664   5.034   5.454 -0.2300  0.0801  0.0303
57223W        W  317   1.187   6.231   2.716  0.1289 -0.0789  0.1277
57224W        W  318   2.025   4.832   6.103 -0.0593 -0.2177  0.0449
57225W        W  319   0.863   6.383   7.565 -0.0289  0.2448  0.0133
57226W        W  320   1.736   6.626   5.155  0.0063 -0.3189  0.1663
57227W        W  321  34.401   6.138   6.886  0.0563  0.0151  0.2040
57228W        W  322   2.161   3.442   4.212 -0.2426 -0.1178  0.0742
57229W        W  323   2.733   5.315   3.173  0.3998 -0.0578  0.0861
57230W        W  324   1.828   5.475   5.493 -0.0101 -0.0495 -0.0066
57231W        W  325   3.177   5.716   7.676  0.1530  0.2616 -0.0478
57232W        W  326   1.364   5.835   5.560 -0.1413  0.0881 -0.0386
57233W        W  327   2.180   2.472   7.594 -0.1355  0.2461 -0.1615
57234W        W  328   2.158   4.697   7.293 -0.2380 -0.2219  0.1064
57235W        W  329   2.571   5.871   5.608  0.0032 -0.0560  0.4755
57236W        W  330   0.440   3.990   7.009 -0.1866 -0.3316  0.0363
57237W        W  331   3.080   6.637   7.279 -0.1564  0.0744  0.0783
57238W        W  332   1.456   5.271   6.951  0.0093 -0.1866  0.1383
57239W        W  333   1.889   2.526   3.885  0.2685 -0.4096 -0.0994
57240W        W  334   1.651   3.313   4.064 -0.0940  0.1641  0.3805
57241W        W  335   2.297   4.737   6.544 -0.0551 -0.2155 -0.0626
57242W        W  336   2.203   5.880   5.335  0.1091  0.2911  0.0353
57243W        W  337   0.903   5.855   4.307  0.1131  0.0582 -0.1086
57244W        W  338   2.619   3.940   5.089 -0.2684 -0.0440  0.0350
57245W        W  339   0.867   6.087   6.068 -0.1839 -0.1716  0.0525
57246W        W  340   2.541   4.470   5.258  0.3814 -0.0203 -0.0744
57247W        W  341   0.614   2.444   1.991  0.0432  0.0722  0.0247
57248W        W  342   0.943   5.366   3.229  0.0937  0.1367  0.0290
57249W        W  343   1.463   3.091   7.885 -0.0737  0.0271 -0.0602
57250W        W  344   2.983   5.328   6.228  0.0323 -0.0970  0.2236
57251W        W  345   3.928   4.302   5.035  0.1685 -0.2559  0.0002
57252W        W  346   1.959   2.688   6.236  0.0532  0.0983 -0.1784
57253W        W  347   3.076   3.499   6.074 -0.0742  0.1302  0.2581
57254W        W  348   1.084   5.674   6.331 -0.1672  0.1313 -0.2391
57255W        W  349   0.630   3.711   7.460 -0.0615 -0.1347  0.4050
57256W        W  350   1.523   6.228   7.082 -0.0314  0.1271 -0.0064
57257W        W  351   2.048   6.483   4.395 -0.2206 -0.2703  0.0792
57258W        W  352   3.235   4.526   6.045 -0.1592 -0.0861 -0.2968
57259W        W  353   2.463   6.231   4.596  0.0399 -0.0748  0.2107
57260W        W  354   1.214   3.833   2.977  0.0114  0.2129 -0.1551
57261W        W  355   0.585   5.568   5.472 -0.0681 -0.0681 -0.2170
57262W        W  356   1.395   5.268   7.471 -0.1203  0.0468  0.3438
57263W        W  357   0.182   4.197   3.406 -0.3190  0.3788 -0.0358
57264W        W  358   2.683   3.298   7.289  0.0939  0.0445  0.1159
57265W        W  359  34.216   5.705   3.811 -0.1313 -0.0455  0.1629
57266W        W  360   2.145   7.462   6.264 -0.0884 -0.1786 -0.4152
57267W        W  361   1.594   4.314   4.382 -0.2228  0.0113  0.0267
57268W        W  362  33.224   4.625   4.847 -0.1431  0.0811 -0.3000
57269W        W  363   0.367   6.048   6.225 -0.1555  0.1984  0.1404
57270W        W  364  34.089   4.470   4.317  0.0024  0.1819 -0.1954
57271W        W  365   1.064   5.258   2.542  0.3566 -0.0182 -0.3182
57272W        W  366   2.079   5.597   7.307  0.2812  0.1012 -0.2055
57273W        W  367   3.435   5.248   8.886  0.2216 -0.1025  0.3985
57274W        W  368   1.402   3.085   3.258 -0.1403 -0.1629 -0.2588
57275W        W  369   2.616   5.290   7.936 -0.1253 -0.2461 -0.1804
57276W        W  370   0.659   5.404   4.459 -0.0893  0.0999 -0.1920
57277W        W  371   1.700   4.273   5.040 -0.1908  0.2144  0.2232
57278W        W  372  34.483   6.029   6.389  0.2947  0.0133  0.2144
57279W        W  373  33.940   5.924   7.148 -0.0686 -0.1082  0.0256
57280W        W  374   1.206   7.019   5.641  0.0301  0.1922  0.0208
57281W        W  375   2.279   4.328   6.775 -0.1603  0.1729  0.2983
57282W        W  376   2.189   6.129   5.919  0.1347 -0.3100  0.1375
57283W        W  377   1.601   5.623   6.474  0.1738 -0.1669  0.3851
57284W        W  378   3.441   4.415   4.999  0.1750  0.0339 -0.0218
57285W        W  379   1.723   5.612   7.717 -0.1345  0.1497 -0.0235
57286W        W  380   1.783   4.991   5.197  0.2471 -0.3736 -0.0756
57287W        W  381   2.135   5.752   6.443 -0.1175 -0.1677  0.0156
57288W        W  382   2.483   5.953   2.855  0.1886  0.2735  0.0818
57289W        W  383   0.999   6.605   5.283  0.1090 -0.2555 -0.0106
57290W        W  384  34.024   5.117   6.645 -0.0134  0.3806 -0.1525
57291W        W  385   1.584   4.309   7.718 -0.0303 -0.1353 -0.1710
57292W        W  386   1.470   5.220   4.798 -0.2562  0.0334  0.1112
57293W        W  387   1.754   1.946   4.447 -0.0775 -0.0600  0.0961
57294W        W  388   2.560   6.158   3.794 -0.0638  0.0662 -0.0252
57295W        W  389   1.043   6.029   7.930  0.4527 -0.3713  0.0996
57296W        W  390   1.151   4.904   5.772  0.1399  0.1668 -0.0246
57297W        W  391   0.238   5.485   4.197  0.2816  0.3624 -0.2823
57298W        W  392   2.261   6.023   2.059  0.0211 -0.1743 -0.4532
57299W        W  393   1.696   5.465   3.101 -0.1141 -0.1972  0.0151
57300W        W  394   1.803   6.158   5.526 -0.5729  0.3056  0.1902
57301W        W  395   1.943   3.580   2.760  0.0755  0.1301 -0.2429
57302W        W  396   0.831   7.035   6.270  0.1450 -0.0820  0.0987
57303W        W  397  33.574   5.999   3.501  0.0106 -0.2862 -0.0435
57304W        W  398   2.630   6.949   2.484 -0.3437 -0.0531  0.0985
57305W        W  399   2.368   6.999   5.837 -0.4084 -0.1395  0.1464
57306W        W  400   3.231   5.736   5.434 -0.3002 -0.1408 -0.1385
57307W        W  401   2.308   3.369   3.732 -0.4923  0.1421  0.0692
57308W        W  402   3.873   4.826   4.941 -0.2396  0.2406 -0.0331
57309W        W  403   3.825   3.400   4.691 -0.0095 -0.0145  0.0514
57310W        W  404   2.300   5.858   8.266  0.1436 -0.2051  0.2380
57311W        W  405   1.924   5.241   8.094  0.0639 -0.1036 -0.0379
57312W        W  406   0.979   3.616   2.598  0.2426  0.2085  0.2726
57313W        W  407  34.620   4.253   7.083 -0.2056 -0.1490 -0.0409
57314W        W  408   3.031   3.995   5.959  0.0821 -0.2047 -0.0854
57315W        W  409  34.680   6.817   8.314 -0.0589 -0.1760 -0.0278
57316W        W  410   3.748   8.021   4.816  0.0575  0.2591 -0.2163
57317W        W  411   0.493   3.052   4.240  0.2515  0.1451 -0.2495
57318W        W  412   1.205   5.334   5.483 -0.1388 -0.2408 -0.2578
57319W        W  413   3.550   3.750   5.721 -0.1855  0.3348  0.2147
57320W        W  414   1.041   4.428   3.597 -0.0328  0.0997 -0.0019
57321W        W  415   2.868   4.001   4.343  0.1271 -0.2259 -0.1677
57322W        W  416   2.002   7.335   5.839  0.0347 -0.2342  0.2176
57323W        W  417   1.450   6.867   7.509 -0.2873  0.2414  0.2290
57324W        W  418   1.645   6.555   6.210 -0.1335 -0.1122  0.4168
57325W        W  419   0.831   2.778   5.458  0.1354 -0.2576 -0.1216
57326W        W  420   2.697   4.416   4.649  0.3139  0.1245 -0.0833
57327W        W  421   0.852   3.499   7.863 -0.1944 -0.0919 -0.1113
57328W        W  422   2.119   3.289   6.517  0.3300  0.2080 -0.0994
57329W        W  423   1.937   5.389   4.507  0.0451  0.0899 -0.0848
57330W        W  424   2.640   5.709   3.495 -0.0110 -0.4327 -0.0231
57331W        W  425   1.954   5.484   6.831  0.0399  0.2402  0.2478
57332W        W  426   2.648   4.686   7.186  0.0540 -0.1178 -0.0801
57333W        W  427   1.559   4.366   3.456  0.0648 -0.0677 -0.1940
57334W        W  428   2.397   5.999   7.448  0.1752  0.1020  0.2863
57335W        W  429   2.022   5.316   2.340  0.1115 -0.0243 -0.1039
57336W        W  430   2.771   6.841   6.817 -0.0022 -0.1587  0.0052
57337W        W  431   1.119   4.375   5.018 -0.1523  0.2206  0.1046
57338W        W  432  34.294   4.962   4.515 -0.0243  0.1181 -0.0139
57339W        W  433   1.409   3.500   6.039  0.0385 -0.4886 -0.0805
57340W        W  434   2.563   6.931   7.312  0.3490  0.3443  0.0095
57341W        W  435   1.723   3.618   5.673  0.1098  0.0564  0.3153
57342W        W  436   3.354   6.480   3.483 -0.0933 -0.2462  0.1565
57343W        W  437   3.591   4.943   6.861  0.1903  0.1709 -0.1815
57344W        W  438   1.607   6.039   3.837 -0.2153 -0.3662  0.0180
57345W        W  439   2.684   4.939   5.451 -0.1591 -0.2001 -0.2940
57346W        W  440   1.320   6.191   5.127 -0.0112 -0.3492  0.2667
57347W        W  441   1.728   4.432   5.933 -0.1174  0.1270 -0.0951
57348W        W  442   1.696   5.743   5.920 -0.2415  0.1911  0.0423
57349W        W  443   2.194   5.605   7.840  0.1033 -0.3465 -0.0478
57350W        W  444   2.637   3.603   5.766  0.0972  0.0220 -0.1498
57351W        W  445   1.668   5.013   5.649 -0.0675 -0.0003 -0.0142
57352W        W  446   1.293   5.717   3.048  0.0596 -0.1217  0.2175
57353W        W  447   3.231   4.714   5.509  0.0996 -0.1489 -0.0052
57354W        W  448   1.792   4.101   6.718 -0.0243  0.2707 -0.1326
57355W        W  449  34.099   6.550   3.727  0.0956 -0.0094  0.1912
57356W        W  450   2.542   3.388   6.711 -0.3203 -0.1026  0.0300
57357W        W  451   2.583   7.108   6.359 -0.0835 -0.0033 -0.0532
57358W        W  452   0.602   7.170   7.620  0.0160  0.3071 -0.2956
57359W        W  453   1.091   5.218   4.106  0.1599 -0.0943  0.2859
57360W        W  454   0.700   5.676   6.781  0.0714  0.0610  0.2568
57361W        W  455   0.946   7.422   5.814 -0.0230 -0.1527  0.0733
57362W        W  456   2.964   6.576   4.813 -0.4306 -0.1098  0.1893
57363W        W  457   2.056   6.279   6.409 -0.0682  0.0061  0.0360
57364W        W  458   2.283   4.193   4.895 -0.1477  0.0728  0.1005
57365W        W  459   4.386   5.582   6.064 -0.1889  0.1980 -0.0440
57366W        W  460   1.404   3.819   6.641  0.1464  0.0451 -0.4483
57367W        W  461   3.444   3.518   3.147  0.0473 -0.1193 -0.2786
57368W        W  462   2.706   3.559   4.102 -0.0027 -0.1387  0.4341
57369W        W  463   0.985   5.719   5.799 -0.2843 -0.0437  0.0064
57370W        W  464   0.525   3.440   5.046  0.0410  0.0346 -0.2820
57371W        W  465   0.829   6.758   3.850 -0.2551  0.2151 -0.2246
57372W        W  466   0.521   6.141   5.685  0.1010  0.0658  0.2463
57373W        W  467   2.609   3.860   7.640 -0.1854  0.3286  0.0804
57374W        W  468   1.119   4.518   7.351 -0.0112  0.1443 -0.0709
57375W        W  469   0.817   5.458   5.020 -0.2211  0.1442  0.1823
57376W        W  470   1.533   4.009   6.069  0.1663  0.0282 -0.0462
57377W        W  471   1.603   5.147   3.905  0.3103 -0.2405  0.1151
57378W        W  472   0.444   4.203   5.047  0.0628 -0.1527  0.1434
57379W        W  473   1.013   2.661   5.983 -0.3717  0.1060 -0.3054
57380W        W  474   1.431   4.549   3.984 -0.0675 -0.0226 -0.2355
57381W        W  475   2.526   6.425   5.632  0.2383  0.2786 -0.0736
57382W        W  476   2.314   4.478   5.927  0.3598 -0.1766  0.0202
57383W        W  477   3.707   6.127   6.428 -0.0433 -0.1466  0.0653
57384W        W  478   0.668   4.558   4.183  0.1844 -0.0345  0.2159
57385W        W  479   1.354   3.571   7.869 -0.0152  0.1018  0.1267
57386W        W  480   1.449   4.430   8.283  0.0667  0.1469  0.0158
57387W        W  481  34.252   4.047   4.029 -0.2612 -0.4098  0.4768
57388W        W  482   2.483   4.947   4.977 -0.0154 -0.0686 -0.0227
57389W        W  483   1.860   7.304   4.458 -0.0077  0.0327  0.0099
57390W        W  484   2.731   7.843   4.214 -0.2265  0.0802  0.1410
57391W        W  485   1.563   6.118   6.503 -0.2920 -0.1685  0.0380
57392W        W  486   0.525   6.794   8.375  0.0378  0.0987 -0.1887
57393W        W  487   0.672   3.176   6.468 -0.3557 -0.1630  0.0784
57394W        W  488   1.371   5.086   2.931 -0.0851 -0.0158  0.0210
57395W        W  489   1.013   6.283   5.643 -0.1421 -0.1696  0.3869
57396W        W  490   2.748   5.606   5.233  0.2197  0.0500  0.0289
57397W        W  491   4.702   4.377   6.017 -0.4052 -0.1488  0.2144
57398W        W  492   2.809   4.459   4.133  0.1474 -0.1371 -0.0273
57399W        W  493   0.767   4.336   6.393  0.1396  0.2103  0.2669
57400W        W  494   1.353   5.656   8.090  0.1158 -0.3346 -0.1908
57401W        W  495   2.693   5.372   5.765 -0.4198  0.1628  0.4253
57402W        W  496   1.375   2.915   4.740 -0.0683  0.1880 -0.0095
57403W        W  497   2.173   3.695   4.670  0.3458 -0.2575  0.6432
57404W        W  498   2.169   6.662   3.339  0.1870  0.3870 -0.2818
57405W        W  499   1.401   4.601   5.463  0.1581 -0.3097  0.1827
57406W        W  500   1.864   4.748   4.112 -0.2135 -0.2043 -0.1273
57407W        W  501   1.879   4.695   6.868 -0.0224 -0.0779 -0.0939
57408W        W  502   1.494   6.595   5.634  0.0059 -0.3638 -0.2202
57409W        W  503   2.688   5.579   7.430 -0.0800  0.0541 -0.2280
57410W        W  504   1.321   6.124   4.212  0.2211  0.0781 -0.0530
57411W        W  505   2.587   5.336   4.156 -0.0619  0.1181  0.2018
57412W        W  506   2.184   5.616   5.814  0.0079  0.0378 -0.1435
57413W        W  507   3.940   6.869   7.254 -0.1032  0.0426 -0.1675
57414W        W  508   2.104   6.974   6.256 -0.3550 -0.0471  0.1637
57415W        W  509   2.725   5.023   6.611  0.3014 -0.1772 -0.1404
57416W        W  510   0.881   4.537   5.406 -0.1771 -0.3536  0.1752
57417W        W  511   0.931   5.036   3.637  0.0428  0.0441 -0.1905
57418W        W  512   1.247   5.652   5.112 -0.0048  0.0928 -0.1366
57419W        W  513   2.865   4.544   6.405 -0.1063 -0.2432  0.0131
57420W        W  514   1.417   4.725   4.782 -0.2282 -0.2361 -0.0847
57421W        W  515   1.709   3.912   3.144  0.0225 -0.0367 -0.0612
57422W        W  516   1.383   6.954   8.028 -0.1034  0.0810 -0.3788
57423W        W  517   2.583   5.694   6.179 -0.1073 -0.1107 -0.1894
57424W        W  518   1.816   6.696   9.526  0.5214 -0.5180  0.3079
57425W        W  519   1.438   3.296   9.923  0.1251  0.0329  0.1021
57426W        W  520   2.665   5.038   8.545  0.1588 -0.1669  0.2841
57427W        W  521   3.536   4.713   8.318  0.3935  0.3156 -0.1690
57428W        W  522  34.417   2.096  10.469  0.2320 -0.1771 -0.0230
57429W        W  523   3.571   6.531   8.197 -0.0224 -0.0539  0.1700
57430W        W  524   2.052   6.682   9.073  0.2417 -0.1975  0.1767
57431W        W  525   2.232   5.384   8.423  0.0043 -0.0610  0.2720
57432W        W  526   1.796   6.531   7.329 -0.0691  0.1317 -0.0749
57433W        W  527   2.453   0.743   9.162 -0.0119  0.0189 -0.1927
57434W        W  528   0.727   2.374   8.959 -0.1892 -0.0007 -0.0293
57435W        W  529  34.509   3.563   8.919 -0.0428 -0.0279 -0.2480
57436W        W  530   5.277   5.303   9.524  0.1847 -0.0334  0.2497
57437W        W  531   0.239   4.069   7.482 -0.2017 -0.0826 -0.5151
57438W        W  532   2.441   3.292   9.180  0.0769  0.1452  0.2226
57439W        W  533   2.620   6.388  10.257  0.1052  0.1090 -0.0105
57440W        W  534   1.883   7.873   8.581 -0.1808  0.0336  0.2884
57441W        W  535   3.001   3.354   9.194  0.1144 -0.0907  0.1801
57442W        W  536   0.641   6.473   7.140  0.2700 -0.2354 -0.3218
57443W        W  537   1.381   4.749   6.744 -0.1367  0.0974 -0.0350
57444W        W  538  34.341   2.098   9.913 -0.1182  0.5573 -0.2100
57445W        W  539   0.855   4.989   9.790  0.0652  0.0792 -0.3275
57446W        W  540   2.704   7.307  10.076  0.0701  0.2752 -0.1144
57447W        W  541   2.667   3.519   9.617 -0.2504  0.3573 -0.1102
57448W        W  542   0.901   5.755   8.374  0.1573  0.0094 -0.3824
57449W        W  543   2.084   6.081   8.977 -0.1246  0.1215  0.0121
57450W        W  544   1.649   6.170   9.330 -0.1240  0.2324  0.1303
57451W        W  545   0.008   6.428   9.027 -0.1355  0.1829 -0.2280
57452W        W  546   1.790   6.576   7.804 -0.2594 -0.0919  0.1277
57453W        W  547   2.749   5.595   8.370 -0.0609 -0.0924  0.1056
57454W        W  548   0.664   5.233   7.351  0.1126  0.4030  0.0307
57455W        W  549   3.107   4.123   9.466  0.0794 -0.1801 -0.0705
57456W        W  550   2.423   5.074   8.972 -0.1344 -0.1073  0.2638
57457W        W  551   1.347   6.328   7.506 -0.0926 -0.3649  0.2948
57458W        W  552   2.739   5.734   9.775  0.1291 -0.0690  0.1769
57459W        W  553  33.927   7.224  10.038 -0.2831  0.1300 -0.0333
57460W        W  554   1.336   6.110   8.380  0.2074  0.0966  0.0066
57461W        W  555   2.723   4.707   9.470  0.1254  0.2651  0.3983
57462W        W  556   2.434   4.601   8.996  0.0238  0.4296  0.3738
57463W        W  557   2.084   4.301   7.642 -0.4265 -0.1283 -0.0405
57464W        W  558   1.765   3.292   9.521 -0.2493  0.1512  0.2591
57465W        W  559   0.682   6.217  10.176 -0.1802 -0.0188  0.1788
57466W        W  560   2.220   4.934   9.391  0.1454  0.0193  0.1062
57467W        W  561   1.434   4.264   9.069  0.0703 -0.0762 -0.2111
57468W        W  562   3.833   4.953   9.154  0.4261 -0.2546  0.0493
57469W        W  563   3.338   5.525   9.682 -0.1269  0.0348 -0.4559
57470W        W  564   0.800   5.481   8.806  0.0504 -0.0126  0.0978
57471W        W  565   2.722   6.191   6.069 -0.2133 -0.1108 -0.1761
57472W        W  566   4.030   6.498   7.866  0.2319  0.0180  0.2046
57473W        W  567   3.224   7.571   7.368  0.3360 -0.1637 -0.0138
57474W        W  568   0.074   5.151   8.449 -0.1454  0.0887 -0.2415
57475W        W  569   0.621   2.432   7.053 -0.0685  0.1750  0.1889
57476W        W  570   3.641   3.988   8.808 -0.0951  0.1452  0.0388
57477W        W  571   2.707   5.283   9.410  0.1729 -0.2599 -0.1380
57478W        W  572   3.791   6.229   9.283 -0.0275 -0.0133  0.3926
57479W        W  573   2.908   6.154   7.564 -0.0153 -0.1935 -0.0027
57480W        W  574   3.200   3.433   8.699 -0.0758  0.0212 -0.1426
57481W        W  575   2.514   2.721   9.883  0.0124 -0.2545 -0.3027
57482W        W  576   0.474   5.991   7.156  0.2283  0.0680  0.2303
57483W        W  577   2.164   6.353   8.419 -0.0272 -0.0077 -0.2820
57484W        W  578   2.867   6.540   9.393  0.1615 -0.3376  0.2781
57485W        W  579   4.096   4.134   7.234 -0.0409 -0.0599  0.2024
57486W        W  580   1.904   5.606   9.734  0.3037  0.0903 -0.2159
57487W        W  581   1.140   6.226   9.263  0.1873 -0.0624 -0.3315
57488W        W  582  34.311   4.997   9.917  0.0965  0.3271 -0.2776
57489W        W  583   0.987   5.063   7.665 -0.1195  0.0629 -0.0146
57490W        W  584   0.677   3.776  10.062  0.1144  0.0948  0.0051
57491W        W  585   3.089   6.392   9.935 -0.0701 -0.1672  0.0442
57492W        W  586   3.614   4.158   8.071  0.1317 -0.0878  0.1181
57493W        W  587   2.944   3.458   8.216 -0.1727  0.3044 -0.1845
57494W        W  588   1.201   5.175   9.458 -0.2698 -0.0918 -0.2698
57495W        W  589   2.494   7.122   8.327  0.0022 -0.0437 -0.2359
57496W        W  590   1.864   4.789   7.755  0.3503 -0.0780 -0.3395
57497W        W  591   3.258   6.648   7.763 -0.3051  0.0889  0.0371
57498W        W  592  34.475   4.727   9.475 -0.0413  0.1209  0.0014
57499W        W  593   0.864   3.972   9.617 -0.1052  0.0382  0.3379
57500W        W  594   1.994   3.616   9.895 -0.1250 -0.2020  0.1387
57501W        W  595   0.284   3.533   8.607 -0.0966 -0.5353  0.0569
57502W        W  596   2.594   2.453   8.917  0.0903 -0.0192 -0.0540
57503W        W  597   1.273   5.661   8.656 -0.1273 -0.0356 -0.0951
57504W        W  598   1.233   4.718   9.760 -0.0584 -0.2983  0.3047
57505W        W  599   3.509   6.993   8.019  0.1667 -0.1184 -0.4169
57506W        W  600   5.147   4.707   8.518  0.3077  0.3109  0.0659
57507W        W  601   3.200   6.443   8.648  0.0042  0.0870 -0.3750
57508W        W  602   1.426   1.753  10.112  0.0957  0.1004  0.1944
57509W        W  603   0.655   3.837   8.987  0.4215 -0.2130 -0.0977
57510W        W  604   1.599   7.575   8.842 -0.2113 -0.1379 -0.1064
57511W        W  605   2.788   6.122   8.547  0.1985 -0.4271 -0.0780
57512W        W  606   2.339   2.908   8.886  0.0343  0.0692  0.0633
57513W        W  607   3.149   5.747   8.651 -0.1639 -0.0037 -0.1260
57514W        W  608   1.435   4.791   8.682 -0.0936 -0.0947  0.1681
57515W        W  609   5.318   3.588   9.735 -0.1254  0.0641  0.0341
57516W        W  610   3.599   5.991   9.652 -0.0969  0.0803  0.4912
57517W        W  611   0.219   3.472   7.211  0.1914  0.0718 -0.1039
57518W        W  612   4.906   6.833   9.523 -0.1521 -0.0302 -0.1865
57519W        W  613  34.193   6.103   8.439  0.1171 -0.2815  0.0809
57520W        W  614   0.396   4.885   9.581  0.3718 -0.0600  0.4427
57521W        W  615   2.981   6.174   9.040 -0.4172  0.0774 -0.1044
57522W        W  616   3.235   2.907   9.425 -0.0323 -0.2510  0.0490
57523W        W  617   0.935   3.424   8.351 -0.2408 -0.1986  0.0442
57524W        W  618   1.814   3.052   8.777  0.0043  0.0362 -0.0750
57525W        W  619   3.299   4.327   6.591 -0.0912  0.1148  0.2317
57526W        W  620   2.828   4.605   8.680  0.1247 -0.1657  0.0500
57527W        W  621   1.934   4.390   8.101  0.2686  0.0799 -0.1353
57528W        W  622   2.880   4.970   7.588 -0.0150 -0.2322  0.0125
57529W        W  623   2.603   6.274   8.072 -0.1346 -0.1538  0.2076
57530W        W  624   4.139   6.131   9.658 -0.3706 -0.0022  0.1810
57531W        W  625   2.017   3.268   7.004 -0.3245 -0.0577 -0.0991
57532W        W  626   3.422   4.219   7.589  0.2504 -0.2788  0.1864
57533W        W  627  34.396   4.124   9.330  0.0761 -0.2802  0.0778
57534W        W  628   2.357   7.722   9.489  0.2715 -0.2135 -0.5124
57535W        W  629   0.460   1.047   9.363  0.0235  0.0981  0.0130
57536W        W  630   2.765   3.819   9.185  0.3440  0.0350  0.0368
57537W        W  631   1.837   4.464   8.637 -0.2552 -0.1031 -0.0512
57538W        W  632  34.377   6.156   7.406 -0.1015 -0.1331  0.3345
57539W        W  633   3.404   3.276   9.921 -0.5225  0.1235 -0.0063
57540W        W  634   0.895   0.787  10.183 -0.1900 -0.2163 -0.1265
57541W        W  635   2.022   4.054   9.007  0.0146 -0.4917  0.2162
57542W        W  636   4.256   5.150   8.502  0.0179 -0.1580  0.3139
57543W        W  637   1.672   3.785   7.107 -0.1785 -0.2569  0.2080
57544W        W  638   3.387   4.359   8.674  0.2620  0.1823 -0.1935
57545W        W  639   1.507   9.256  10.103 -0.0073 -0.2174 -0.0203
57546W        W  640   3.003   4.373   9.066 -0.0537  0.1346 -0.2201
57547W        W  641   1.024   4.777   8.306 -0.0844  0.3396 -0.2344
57548W        W  642   1.588   6.080   7.921  0.0909  0.0386 -0.0620
57549W        W  643   1.039   5.242   8.444 -0.2011  0.0568  0.1517
57550W        W  644   0.243   1.591   8.709  0.0883  0.0255 -0.1515
57551W        W  645   2.277   5.873   9.696  0.3209  0.0662 -0.1896
57552W        W  646   1.324   5.821   7.548 -0.2006 -0.2151 -0.0498
57553W        W  647   1.995   4.531  12.112  0.1064  0.0838  0.1808
57554W        W  648  34.687   5.197   7.419  0.2931  0.0182  0.2042
57555W        W  649   3.926   3.165   9.933  0.1161 -0.3345 -0.0142
57556W        W  650  33.807   6.756   9.835 -0.1604 -0.1733 -0.0541
57557W        W  651   1.127   4.020   8.169  0.2166  0.3319 -0.1238
57558W        W  652   0.973   6.105   9.721 -0.2168 -0.0267 -0.4057
57559W        W  653   3.146   3.228   7.831 -0.1584  0.1194  0.1185
57560W        W  654   2.340   5.585   8.879  0.2079  0.1900  0.0997
57561W        W  655  34.341   5.068   9.070  0.0950  0.1739  0.1472
57562W        W  656   2.457   3.740   8.302 -0.1640 -0.0683 -0.1653
57563W        W  657  34.065   8.198   9.815  0.0609 -0.2095  0.1536
57564W        W  658   2.881   4.304   6.880  0.0181  0.2079  0.1967
57565W        W  659  33.999   3.807   7.233 -0.0862 -0.1371 -0.0025
57566W        W  660   3.644   2.272   9.127  0.2410  0.0220  0.2023
57567W        W  661   0.929   3.469   9.812 -0.0802 -0.2123  0.0774
57568W        W  662   0.497   5.883   9.679  0.0747 -0.1644  0.1545
57569W        W  663  34.241   5.559   9.891  0.3877  0.0559 -0.1709
57570W        W  664   1.607   3.997   8.673 -0.1697 -0.1246 -0.0054
57571W        W  665   1.345   6.929   9.523  0.2402 -0.1941 -0.4049
57572W        W  666   2.980   4.819  12.232  0.0248  0.0440 -0.0005
57573W        W  667   0.862   4.751   9.313 -0.4240  0.0466  0.0583
57574W        W  668   1.676   4.521   9.482  0.0784 -0.2332 -0.1369
57575W        W  669   2.082   5.159   9.780  0.2605 -0.0929 -0.0806
57576W        W  670   3.091   5.515  10.189  0.2212 -0.0643 -0.0852
57577W        W  671   2.558   6.282   9.682  0.0476  0.2318 -0.1338
57578W        W  672   0.779   2.289   9.984  0.1552  0.2194 -0.1366
57579W        W  673   4.352   6.029   6.905 -0.2707 -0.1234 -0.0171
57580W        W  674   0.642   5.023   8.034 -0.3517 -0.0417 -0.0900
57581W        W  675   0.226   4.438   9.324  0.1841  0.1093 -0.0946
57582W        W  676   1.293   3.502   9.485 -0.0726 -0.2627  0.2153
57583W        W  677   6.002   0.261  10.435  0.1092  0.1322  0.2282
57584W        W  678   1.683   5.651   9.331 -0.3022 -0.3197 -0.0323
57585W        W  679   0.451   5.888   7.919 -0.1688 -0.1677  0.1774
57586W        W  680   2.139   6.238   9.408  0.0147 -0.3104  0.2284
57587W        W  681   2.437   4.252   8.010 -0.1580 -0.1437 -0.2112
57588W        W  682   1.804   5.660   8.816 -0.2664 -0.3710 -0.0987
57589W        W  683   1.957   3.060   9.966  0.2903 -0.3624 -0.0581
57590W        W  684   3.432   6.153   7.861 -0.0441 -0.0286 -0.2907
57591W        W  685   2.165   2.105   8.996  0.5233  0.1735  0.0730
57592W        W  686   2.920   6.785   8.865  0.0513  0.0982  0.0272
57593W        W  687   2.828   5.418   8.856 -0.2027 -0.0700 -0.0321
57594W        W  688   1.876   3.466   7.939  0.0038 -0.2119  0.1088
57595W        W  689   4.206   4.856  10.096  0.0127 -0.2380 -0.0767
57596W        W  690   3.794   5.489   9.252 -0.1819 -0.0848 -0.1651
57597W        W  691   1.980   5.213   8.994  0.2982  0.1968  0.1670
57598W        W  692   3.252   4.640   9.486  0.3250  0.2758  0.0666
57599W        W  693   0.183   6.225  10.278  0.3181  0.2174  0.0756
57600W        W  694   2.808   4.134   8.376 -0.2574 -0.2008 -0.1481
57601W        W  695   0.598   5.082   8.574  0.1787  0.1039  0.1925
57602W        W  696   1.824   6.043   7.484  0.0302 -0.2313  0.0691
57603W        W  697   3.647   6.622   9.632 -0.1040 -0.1226 -0.0453
57604W        W  698   3.552   4.195   9.747  0.2358  0.2310  0.3362
57605W        W  699   2.251   8.301   9.220 -0.3644  0.0962 -0.2577
57606W        W  700   2.902   4.408   7.779  0.1369 -0.1194 -0.1037
57607W        W  701   3.027   2.507   9.819  0.3415  0.0536  0.1212
57608W        W  702   4.144   4.302   9.102 -0.2735 -0.1506 -0.0544
57609W        W  703   2.418   4.446   8.476  0.1693  0.2034  0.1283
57610W        W  704   1.172   3.688  10.224  0.0562  0.0563 -0.1039
57611W        W  705   1.238   4.322   6.604 -0.0599 -0.2270  0.1003
57612W        W  706   2.264   6.517   7.523 -0.1131  0.0915 -0.2935
57613W        W  707   3.261   5.603   9.165  0.0815  0.1431  0.0648
57614W        W  708   2.980   4.972   9.066  0.0503  0.2109 -0.2285
57615W        W  709   0.168   3.718   9.991 -0.0051 -0.2280  0.1620
57616W        W  710   0.456   5.396   7.737 -0.1633 -0.0080 -0.0308
57617W        W  711   1.811   5.123   7.199 -0.0852  0.1523  0.3491
57618W        W  712   3.137   6.853   9.628  0.1867  0.1234 -0.0825
57619W        W  713   1.597   4.657   7.301  0.1931  0.3300 -0.0295
57620W        W  714   1.343   6.728   8.577 -0.1227 -0.3588  0.0645
57621W        W  715   3.948   1.995   8.707  0.0666 -0.1675 -0.0602
57622W        W  716   0.623   7.385  10.228 -0.0604  0.0002  0.1239
57623W        W  717   2.074   6.989   7.672  0.2191 -0.0936  0.1803
57624W        W  718   2.262   3.176   9.625  0.0650  0.0968  0.2318
57625W        W  719   3.045   5.030   9.805 -0.0218  0.0349 -0.1554
57626W        W  720   3.690   6.402   8.851  0.1184 -0.3527 -0.0963
57627W        W  721   1.711   6.502   8.303  0.0187 -0.1557  0.0229
57628W        W  722   4.243   5.250   9.293 -0.0196  0.2517 -0.3400
57629W        W  723   1.471   6.686   9.133 -0.4698  0.0230  0.0248
57630W        W  724   2.340   3.639   8.817 -0.3019 -0.3571 -0.0795
57631W        W  725   0.433   3.551   8.147  0.1179 -0.0130 -0.2996
57632W        W  726   0.908   5.497   7.909 -0.3184  0.5336 -0.0822
57633W        W  727   0.158   5.087   8.969 -0.0974  0.2197  0.1245
57634W        W  728   1.074   5.580   9.197  0.2203  0.1576 -0.1794
57635W        W  729   2.114   6.121   7.886  0.1336 -0.0513  0.3279
57636W        W  730   0.743   4.316   8.380  0.0779 -0.1705  0.0698
57637W        W  731   2.626   7.226   9.563  0.3220  0.4149  0.0078
57638W        W  732   1.729   3.772   9.367 -0.2951  0.0554 -0.3544
57639W        W  733   1.482   6.061   8.839 -0.0622  0.0354  0.2627
57640W        W  734  34.186   5.393   7.641  0.2000  0.0425 -0.2139
57641W        W  735   3.458   6.123   7.336 -0.0861  0.0594 -0.0673
57642W        W  736   1.467   6.501   9.765 -0.0256  0.0706 -0.2695
57643W        W  737   2.323   3.509   6.126 -0.3911 -0.4522 -0.2634
57644W        W  738   3.103   3.975   8.822  0.0882  0.1555 -0.2524
57645W        W  739   3.993   4.122   8.442  0.2040  0.4297 -0.2955
57646W        W  740  33.621   3.647  11.924 -0.0566 -0.1518  0.1692
57647W        W  741   0.912   4.478   7.859  0.5042 -0.0972 -0.2788
57648W        W  742   3.470   6.887   7.020 -0.0705  0.0891  0.4045
57649W        W  743   1.416   3.202   8.562 -0.1032 -0.4035  0.0608
57650W        W  744   1.692   4.881   9.904 -0.1134  0.0812 -0.4254
57651W        W  745   2.572   1.184   8.759 -0.0991 -0.2457 -0.2456
57652W        W  746   1.345   4.739   9.215 -0.1512  0.0579 -0.3561
57653W        W  747   3.423   4.687   9.953 -0.1505  0.1126 -0.2593
57654W        W  748   1.682   7.296   9.694 -0.0845  0.1361 -0.1321
57655W        W  749  34.047   6.301   9.848  0.2364 -0.1805 -0.0030
57656W        W  750   3.945   6.709   9.242 -0.1491 -0.0605  0.2273
57657W        W  751   0.121   3.626   7.708 -0.2951  0.0815 -0.0121
57658W        W  752   4.214   4.708   7.842 -0.1229 -0.3383  0.1904
57659W        W  753   0.104   5.182   9.986 -0.3536 -0.1938 -0.0079
57660W        W  754   1.237   3.851   9.174  0.0850  0.2631 -0.0026
57661W        W  755   2.269   3.736   9.391  0.0893 -0.0390 -0.1710
57662W        W  756  33.552   5.889   9.748 -0.2506  0.1565 -0.4305
57663W        W  757   1.316   4.855  10.209  0.0127  0.2440 -0.1464
57664W        W  758   1.554   5.230   8.504 -0.1641 -0.0064  0.2211
57665W        W  759   1.962   4.293   7.147  0.1477 -0.0070 -0.1740
57666W        W  760   0.893   4.638  10.385  0.2372  0.0893 -0.2365
57667W        W  761   2.093   4.068   8.454 -0.1346 -0.0156  0.0057
57668W        W  762   2.281   5.458   9.374  0.1445 -0.0465  0.0628
57669W        W  763   2.548   4.931   9.892  0.1298  0.0726  0.1631
57670W        W  764  34.096   3.818   7.741 -0.1944 -0.1112  0.0129
57671W        W  765   2.900   5.706   6.657  0.2799  0.1548 -0.0894
57672W        W  766   5.338   2.984   8.909  0.1081 -0.0241 -0.0572
57673W        W  767   1.186   6.495   7.915 -0.0644 -0.0814 -0.0423
57674W        W  768   3.604   5.488   8.419 -0.1081  0.0388  0.0159
57675W        W  769   3.088   6.349   8.148 -0.0665 -0.0281  0.0790
57676W        W  770   0.389   1.922  10.137  0.3122 -0.0398  0.2305
57677W        W  771   1.671   7.809   9.769  0.2441  0.1148  0.0719
57678W        W  772   5.703   4.248   9.000 -0.2684 -0.0832 -0.0685
57679W        W  773   1.352   3.646   8.352 -0.2504 -0.0730 -0.2388
57680W        W  774   3.404   5.148   9.374  0.1534 -0.0091  0.1237
57681W        W  775  34.659   7.866   9.169  0.2514  0.0549 -0.2293
57682W        W  776   3.262   3.820   8.345  0.0097 -0.2921  0.1697
57683W        W  777   2.054   7.773   6.773 -0.0934  0.2925 -0.0188
57684W        W  778   4.244   4.848   8.924  0.0213  0.1179  0.2357
57685W        W  779   1.405   4.185   7.089  0.0949 -0.0424 -0.2145
57686W        W  780   1.392   5.302   9.902 -0.2278  0.2374  0.2580
57687W        W  781   1.788   6.446   8.750  0.0072 -0.2342 -0.2200
57688W        W  782   2.641   5.825   9.271  0.2395 -0.1885  0.0554
57689W        W  783   1.717   4.831   8.246 -0.0959  0.0850  0.0174
57690W        W  784   4.705   4.887   8.790  0.2762  0.2860 -0.0195
57691W        W  785   2.139   4.572   9.882  0.1870 -0.1661  0.1196
57692W        W  786   4.858   3.604   8.050  0.0567  0.2178 -0.2706
57693W        W  787   3.489   2.903   7.884  0.0490  0.2845 -0.2206
57694W        W  788   3.104   6.013   9.535  0.0421 -0.0630 -0.1498
57695W        W  789  34.595   3.705   8.137 -0.0608 -0.0663 -0.2392
57696W        W  790   0.771   5.858   7.520  0.2127 -0.0189  0.1034
57697W        W  791   1.692   5.182   9.472  0.2031 -0.1874  0.0567
57698W        W  792   0.435   4.767  10.106 -0.0263  0.0142  0.0548
57699W        W  793   0.536   3.040   8.323 -0.0148 -0.0468  0.0132
57700W        W  794   3.686   7.433   7.859  0.5414 -0.3318 -0.0183
57701W        W  795   1.988   3.388   9.088  0.1786  0.0213 -0.1412
57702W        W  796   0.406   3.256   9.956  0.2612 -0.0419 -0.3944
57703W        W  797   2.117   4.890   8.628 -0.0126 -0.0430 -0.0985
57704W        W  798   2.704   6.588   7.712  0.2852  0.1820  0.0539
57705W        W  799   1.929   4.047   9.713 -0.1319 -0.0044 -0.1360
57706W        W  800  34.656   6.029   7.863 -0.0873  0.1294 -0.2082
57707W        W  801  33.996   4.359   6.463  0.2984 -0.1203  0.0664
57708W        W  802   3.414   4.716   8.979  0.1478  0.1490  0.2761
57709W        W  803   3.107   7.607   8.364 -0.2394 -0.0079  0.1742
57710W        W  804   3.618   7.865   7.559  0.2767  0.2737 -0.1303
57711W        W  805  34.006   0.399   9.937 -0.1370 -0.1174 -0.4007
57712W        W  806   2.742   4.732   8.173 -0.0552 -0.0957 -0.3481
57713W        W  807   3.608   5.658   7.934 -0.4357 -0.1739 -0.0492
57714W        W  808   2.630   4.192   9.529  0.2937 -0.3151 -0.0221
57715W        W  809   2.590   4.142   8.862  0.1342  0.1265 -0.0216
57716W        W  810   3.528   4.324   9.247 -0.2453  0.2324  0.0827
57717W        W  811   1.979   2.637   9.710  0.1008  0.0294 -0.2050
57718W        W  812   2.972   3.896   7.938  0.1121 -0.0893  0.1871
57719W        W  813   1.722   7.011   8.721 -0.2084  0.0864 -0.1228
57720W        W  814   0.386   4.222   8.752  0.1274  0.0206 -0.3638
57721W        W  815   1.388   3.110   9.082 -0.4330 -0.3859 -0.2345
57722W        W  816   3.196   4.904   8.578 -0.1269  0.1005  0.0015
57723W        W  817   1.926   4.683   9.060  0.1229  0.0827 -0.3605
57724W        W  818   3.813   4.969   8.646  0.1756  0.1163 -0.0961
57725W        W  819   2.474   6.391   9.079  0.0717 -0.0166 -0.3033
57726W        W  820   1.585   4.364   9.932  0.2724 -0.1672 -0.1604
57727W        W  821   3.242   4.861   7.903 -0.2268 -0.1545 -0.0959
57728W        W  822  33.311   3.968   9.637 -0.3964 -0.2389 -0.0641
57729W        W  823   1.031   5.023   8.906 -0.0067 -0.1920  0.3154
57730W        W  824   2.330   4.042   9.971  0.1218  0.0498 -0.2919
57731W        W  825  34.589   0.333  10.084 -0.0619 -0.1796 -0.2819
57732W        W  826   0.179   5.706  10.054 -0.3071  0.0367 -0.0027
57733W        W  827   2.203   4.314   9.372 -0.0060  0.4054  0.2345
57734W        W  828   0.589   6.868  10.258 -0.0181 -0.2278  0.1951
57735W        W  829   4.542   5.582   8.425  0.0470 -0.0557 -0.2009
57736W        W  830   2.564  10.704   4.760  0.1980 -0.0256  0.1758
57737W        W  831   1.966   7.992   1.768 -0.2523 -0.1945 -0.0216
57738W        W  832   1.816   7.977   0.561  0.3481 -0.0566 -0.0241
57739W        W  833   3.202   8.981   1.026 -0.2384 -0.1180 -0.2212
57740W        W  834   0.605   8.963   2.053  0.1084  0.2706  0.1777
57741W        W  835   2.482  10.525  31.556 -0.0025 -0.1125 -0.0244
57742W        W  836  34.157   6.926   2.752  0.2547 -0.3490 -0.2100
57743W        W  837   2.943  10.614  31.708 -0.1836 -0.1461  0.1925
57744W        W  838   2.474  10.468   1.854 -0.1714  0.0983 -0.1528
57745W        W  839   1.741   8.317  30.860 -0.0157  0.0721 -0.0237
57746W        W  840   0.272   8.566   2.226  0.1765 -0.3466  0.0535
57747W        W  841   0.684  11.406   2.436  0.0445 -0.0663 -0.1688
57748W        W  842   1.497   6.960   0.072 -0.1611  0.1871 -0.2670
57749W        W  843   0.747   7.717   1.582 -0.1430 -0.3288  0.2360
57750W        W  844   1.522   8.357   3.911 -0.2741 -0.2054  0.0033
57751W        W  845   0.506   7.848   1.165  0.0496  0.0893 -0.2898
57752W        W  846   1.499   7.575   3.343 -0.1440 -0.1313  0.2023
57753W        W  847   1.421   7.629   0.931  0.1307  0.0529 -0.2511
57754W        W  848   2.383  10.758   2.277  0.2117  0.0892  0.0225
57755W        W  849   0.911   7.829   4.538 -0.1515  0.1149 -0.0398
57756W        W  850   0.936   6.726   4.544 -0.1066 -0.2645 -0.0910
57757W        W  851   0.304  10.642  31.169  0.2980  0.2216 -0.0773
57758W        W  852   0.795   8.881   1.040 -0.3209 -0.2314  0.0668
57759W        W  853   0.120   8.642   2.716  0.1494  0.0460  0.1303
57760W        W  854   0.014   7.225   1.865 -0.0478  0.0406 -0.0832
57761W        W  855   3.031   9.394   2.158 -0.3304  0.0781 -0.0854
57762W        W  856   1.904   8.938   1.778 -0.1230 -0.0657  0.0505
57763W        W  857   2.087  10.602   1.379 -0.1931 -0.0810 -0.1870
57764W        W  858   0.638  10.144  31.441 -0.0715  0.0591 -0.3625
57765W        W  859   4.124   8.507   3.083  0.0940  0.1574 -0.2294
57766W        W  860  34.355   8.608   2.142  0.2444 -0.1346  0.0014
57767W        W  861   1.345   9.651   2.018 -0.2790 -0.1988  0.3098
57768W        W  862   0.549  10.805  31.980  0.0301  0.3235  0.1738
57769W        W  863   2.628   9.321   0.296  0.0024 -0.0875 -0.2461
57770W        W  864   4.290  10.480   3.221  0.1714  0.1718 -0.0973
57771W        W  865   0.611   9.120   3.410  0.0821 -0.2574  0.2378
57772W        W  866  32.926   9.600   0.307  0.0987 -0.0595 -0.0545
57773W        W  867   3.579  10.840   4.129  0.1886 -0.0150 -0.0597
57774W        W  868   3.191   9.188   2.974 -0.1024 -0.1857 -0.3830
57775W        W  869   1.932   8.414   2.819 -0.0425  0.1835 -0.0847
57776W        W  870   1.224   8.661   2.723  0.1695 -0.0269  0.0051
57777W        W  871  34.447  10.740  31.273 -0.0542 -0.0107 -0.0543
57778W        W  872   0.352   9.434   2.227 -0.0190  0.0477  0.1750
57779W        W  873   0.430   7.366   3.132  0.3754  0.1414 -0.0742
57780W        W  874  34.641  10.156   1.734  0.0891 -0.2309  0.1279
57781W        W  875   3.643   7.648   2.667 -0.2299  0.3115  0.0748
57782W        W  876   0.913  12.422   1.332  0.1614  0.0862 -0.2763
57783W        W  877   2.244   9.161   0.544  0.1866 -0.1723 -0.1762
57784W        W  878   0.344   8.959   0.111 -0.1677  0.3446 -0.0450
57785W        W  879   2.356   7.854   0.737 -0.1431  0.1363 -0.2267
57786W        W  880   1.567   7.219   2.498 -0.3371  0.0751 -0.0096
57787W        W  881   0.343  10.255   1.371 -0.1567  0.3030  0.0887
57788W        W  882   0.892   6.020   3.159  0.1635 -0.2466  0.1228
57789W        W  883   2.266  10.030   1.660 -0.0241  0.0273 -0.0322
57790W        W  884   0.515   8.261   1.665  0.1917 -0.0318  0.3594
57791W        W  885   3.100   8.399   2.432  0.2612  0.0584  0.3330
57792W        W  886   1.124   9.322   3.456 -0.3354 -0.1489  0.3538
57793W        W  887   1.387   9.135   1.941 -0.2376  0.0510 -0.1047
57794W        W  888   2.868  11.621  31.730  0.1812 -0.0821  0.1258
57795W        W  889   1.885  11.040  31.822  0.3200 -0.0499  0.2808
57796W        W  890   1.698   8.861   0.597  0.2077 -0.1293 -0.0269
57797W        W  891   0.832   9.454   0.271 -0.1351  0.3911  0.0381
57798W        W  892  33.369   8.991   3.723 -0.5142  0.0743  0.2036
57799W        W  893  34.249   9.079   1.941 -0.1759 -0.2143  0.0871
57800W        W  894   0.246   6.758  31.817  0.2435  0.1210 -0.1450
57801W        W  895   3.726  10.257   2.749  0.0165  0.0480 -0.1947
57802W        W  896   1.012   9.581   3.895 -0.0675 -0.0056 -0.0224
57803W        W  897   4.848   7.103   0.761 -0.1657 -0.3056 -0.1364
57804W        W  898   0.490   8.680   3.128 -0.0865 -0.1561  0.2133
57805W        W  899   4.141   9.980   2.778  0.0748  0.0026 -0.0758
57806W        W  900   2.998  10.113  31.628  0.0806  0.1937  0.0575
57807W        W  901   1.602   5.981   2.800  0.3564 -0.2534 -0.0942
57808W        W  902   1.829   7.880   1.064 -0.2416  0.0663 -0.1332
57809W        W  903   1.172  10.582  31.324  0.2384  0.0463  0.1572
57810W        W  904   1.214   8.367   0.769 -0.0002  0.1476  0.0628
57811W        W  905   5.537  10.586   2.836 -0.0621  0.1523 -0.0478
57812W        W  906   3.402   9.362   0.744 -0.0919  0.0807 -0.1852
57813W        W  907   0.669   9.446   3.039 -0.0913 -0.3425  0.1770
57814W        W  908   1.171   8.728   1.859  0.0373 -0.0643  0.2299
57815W        W  909   1.053  11.084   3.738 -0.2355 -0.3116 -0.1103
57816W        W  910   0.013  10.168  31.300  0.1518  0.0116 -0.2267
57817W        W  911  34.322   9.430   2.888  0.0496  0.2482 -0.0107
57818W        W  912   0.642   8.486   0.233 -0.1371 -0.0788  0.1590
57819W        W  913   0.989   8.149   1.720 -0.5442 -0.1776 -0.1113
57820W        W  914   1.549   9.978   1.703  0.3605 -0.0337 -0.2091
57821W        W  915   3.453   8.454   0.270 -0.2157  0.1285 -0.2114
57822W        W  916   0.328   7.749   2.661 -0.0586  0.1777 -0.0441
57823W        W  917   3.029   6.886   0.547 -0.1325  0.0366 -0.0453
57824W        W  918   0.755   9.373   0.927 -0.0476  0.1045  0.2263
57825W        W  919   2.386  10.073   0.553 -0.0349 -0.0340 -0.1639
57826W        W  920   2.472   8.259   1.735 -0.3258 -0.0874  0.2751
57827W        W  921   2.559  10.627   0.707  0.1417 -0.3067 -0.1035
57828W        W  922  33.099   7.694   3.912  0.0977  0.1191 -0.2485
57829W        W  923   0.424   6.947   0.987 -0.4270 -0.0923  0.2285
57830W        W  924   0.767   8.049   3.487 -0.0230  0.0583  0.0179
57831W        W  925   1.376   8.785   1.019 -0.0195 -0.0289 -0.0449
57832W        W  926   2.443   8.918   2.965 -0.0399 -0.0925 -0.2213
57833W        W  927   0.639   7.086  31.898  0.0250  0.1178 -0.2672
57834W        W  928   2.131   7.395  31.662  0.0096 -0.2093  0.1490
57835W        W  929   1.907   8.875   2.776 -0.2266 -0.0230  0.2189
57836W        W  930  33.535   8.101   1.966  0.0484  0.0094  0.0453
57837W        W  931   3.548   8.173   3.727  0.0943  0.0412  0.1428
57838W        W  932   0.861  11.078   1.435  0.0052 -0.1948 -0.0723
57839W        W  933   3.337  11.129   2.130 -0.0503  0.1464  0.4882
57840W        W  934   2.189  11.615   1.739  0.0370  0.0075 -0.1199
57841W        W  935  34.404   6.786   1.820 -0.0407 -0.1434  0.2541
57842W        W  936   1.681   8.731   2.228 -0.1508  0.0429  0.2090
57843W        W  937   1.374  10.107   2.206 -0.1154 -0.1922  0.0908
57844W        W  938   0.966  10.012   1.821  0.1026 -0.0956  0.0277
57845W        W  939  34.429   7.895   0.609  0.1242  0.2471 -0.5221
57846W        W  940   3.610  10.813   2.467 -0.1784  0.2054 -0.0826
57847W        W  941   0.904   9.912   0.849  0.2103  0.5808 -0.3010
57848W        W  942   0.675   8.507   2.635 -0.1167  0.0712  0.0646
57849W        W  943   2.920  10.338   1.750 -0.2613 -0.0892  0.3353
57850W        W  944   2.859   9.106   1.812  0.0408 -0.1405 -0.0463
57851W        W  945   3.223   7.891   2.459  0.2248  0.0751 -0.1008
57852W        W  946  34.556   8.601  31.686 -0.1936 -0.2441  0.4190
57853W        W  947   1.870   9.971   2.219  0.0340 -0.1633  0.0859
57854W        W  948   1.609  10.633   2.817 -0.1681  0.2880 -0.0878
57855W        W  949  34.297   8.364   1.654 -0.2749  0.1727 -0.0491
57856W        W  950   1.787   9.426   1.798  0.0444 -0.0216 -0.3368
57857W        W  951   2.633   7.743   1.716 -0.3618 -0.0755  0.1596
57858W        W  952  34.657   8.527   3.238  0.1439  0.1149 -0.0789
57859W        W  953   2.245   8.179   4.385  0.3297 -0.1889  0.0797
57860W        W  954   1.610  10.032   0.900  0.1762 -0.0660  0.2326
57861W        W  955  34.327   8.779   3.499 -0.1569 -0.1226 -0.1919
57862W        W  956   1.663   7.193   1.806  0.0207 -0.1744 -0.1375
57863W        W  957   2.406   8.716   0.832 -0.1917 -0.0088  0.1922
57864W        W  958   2.548   9.756   3.352  0.1076  0.0510  0.0893
57865W        W  959   0.881   8.703   0.566  0.1509  0.1825 -0.0716
57866W        W  960   0.728   7.938  31.450 -0.3006  0.2104  0.2651
57867W        W  961   2.090   7.930  31.656  0.1631  0.1218 -0.1876
57868W        W  962  34.566   7.384   4.058 -0.2173  0.0489  0.2485
57869W        W  963   0.791  10.065   1.367 -0.4042 -0.2822 -0.0634
57870W        W  964   2.744   9.876   1.897 -0.0071  0.2260 -0.2746
57871W        W  965   1.113   8.745  31.347 -0.2729 -0.0369 -0.0215
57872W        W  966   2.891   9.703  30.800 -0.1831  0.0194 -0.4495
57873W        W  967  33.783   8.844   3.421 -0.1724  0.2399  0.2051
57874W        W  968   2.505  10.018   3.793  0.4299 -0.0558 -0.1521
57875W        W  969   1.986  11.383   0.727  0.0981 -0.1077 -0.0802
57876W        W  970   2.113   6.159   2.540  0.0181  0.1567  0.1454
57877W        W  971   2.138   9.563   0.248  0.0808 -0.1365  0.0326
57878W        W  972   3.717   6.652   1.128  0.1719 -0.1505  0.0240
57879W        W  973  34.522  10.085   1.229  0.0360  0.2162  0.1769
57880W        W  974   2.256   8.510   3.365  0.1283  0.2635  0.2602
57881W        W  975   2.144   7.715   2.586 -0.4173  0.1317 -0.1616
57882W        W  976   1.848   5.816   2.299 -0.2600  0.0436  0.0919
57883W        W  977   1.973   8.542   4.579 -0.1447  0.0487  0.1027
57884W        W  978   2.895   9.617  31.516  0.1644 -0.1135  0.1650
57885W        W  979   3.134   8.267   4.100  0.3816 -0.1050  0.0052
57886W        W  980  33.326   9.853  31.312  0.0044  0.0796 -0.1768
57887W        W  981   1.709   8.211   2.357  0.2619 -0.0868 -0.3459
57888W        W  982   0.288   8.229   3.505 -0.1973  0.1462 -0.2168
57889W        W  983   0.997  10.524   1.527 -0.2197  0.3146 -0.2629
57890W        W  984   2.229   9.290   2.661  0.2533  0.0112 -0.1482
57891W        W  985   1.611   9.679   1.259 -0.3179  0.1441  0.0723
57892W        W  986   1.723   7.036   3.538  0.0350 -0.0625 -0.2683
57893W        W  987   1.520   6.769   1.221  0.2851  0.1302 -0.3231
57894W        W  988   1.212  10.892   0.144 -0.2437  0.1400  0.2153
57895W        W  989   1.588  11.410  31.949  0.0641  0.2382 -0.2000
57896W        W  990   0.677   6.504   2.899  0.0306 -0.1565 -0.0006
57897W        W  991   1.719   9.519   2.369 -0.3634  0.3213 -0.1483
57898W        W  992   1.361   9.746   0.540 -0.0447 -0.1923  0.3755
57899W        W  993   2.783   8.817   2.536  0.1192  0.0125  0.0188
57900W        W  994   1.724  10.655   0.212  0.1842  0.0049 -0.2043
57901W        W  995   1.570   7.734   2.454  0.2231 -0.0791 -0.1621
57902W        W  996  34.675   9.624   2.647  0.1389 -0.0643  0.1315
57903W        W  997   0.321   8.640   0.722 -0.1126 -0.0706  0.1214
57904W        W  998  33.832  10.416   1.883  0.0650 -0.2922 -0.1532
57905W        W  999   3.679   7.198   1.753  0.1844 -0.2693 -0.0948
57906W        W 1000   3.065   9.702   0.565  0.2103 -0.0416  0.1877
57907W        W 1001  34.672   8.223   2.456 -0.1138 -0.1709  0.1034
57908W        W 1002   0.371   8.184   2.929  0.1802  0.0286  0.0870
57909W        W 1003   1.028  11.552   2.032 -0.1224  0.0842 -0.3728
57910W        W 1004   2.362   8.678   4.133  0.3008 -0.0339  0.1858
57911W        W 1005   2.164   8.347   0.548  0.0127  0.1166  0.1833
57912W        W 1006   3.136  10.202   2.730 -0.0652 -0.1004 -0.2738
57913W        W 1007   1.835   8.856   3.900  0.1845  0.2377 -0.1209
57914W        W 1008   0.302   8.210  31.336 -0.1735 -0.0448 -0.0831
57915W        W 1009   2.892   8.420   5.029 -0.5971 -0.2812 -0.0079
57916W        W 1010   0.262   7.800   1.693  0.0334 -0.1727 -0.0972
57917W        W 1011  34.002   8.992   2.898 -0.1657  0.1941 -0.0326
57918W        W 1012   1.181   9.432   2.976  0.2231  0.1297  0.0146
57919W        W 1013   0.087   9.312  31.245 -0.4143  0.2531  0.2861
57920W        W 1014   0.338   9.083   1.233  0.0711  0.1188 -0.0117
57921W        W 1015   1.172   8.353   3.531 -0.1847 -0.0943 -0.2355
57922W        W 1016   2.035   8.940   3.318  0.1305  0.3578 -0.1341
57923W        W 1017   1.260   8.477   2.285  0.4273 -0.1346 -0.1003
57924W        W 1018   2.450   8.841   1.896  0.1941 -0.2882  0.0061
57925W        W 1019   1.691   7.894   2.902  0.0635 -0.0822  0.2223
57926W        W 1020   2.580  10.353   1.385 -0.1848 -0.0279 -0.1225
57927W        W 1021   2.238   8.040   2.992  0.0663  0.1944 -0.4138
57928W        W 1022   1.984  10.051   4.821  0.0283 -0.0574 -0.1370
57929W        W 1023   1.944   6.034   0.469 -0.2182  0.1152 -0.2078
57930W        W 1024   2.835  10.928   1.573  0.1836 -0.1738  0.4067
57931W        W 1025   1.755   9.343   4.262  0.1145  0.2673  0.2706
57932W        W 1026   0.715   8.772   1.561 -0.2291  0.0482  0.0160
57933W        W 1027  34.122   8.133   2.233 -0.0685 -0.1628  0.0260
57934W        W 1028   1.692  10.223  31.864  0.1361  0.1920 -0.4461
57935W        W 1029   2.276   7.903   1.363  0.2012 -0.1463  0.1252
57936W        W 1030   1.453   9.073   2.486 -0.2006 -0.3077  0.2455
57937W        W 1031   2.941  10.676   1.016  0.1122  0.2434  0.0178
57938W        W 1032   1.559   9.704   3.279  0.0477  0.1789  0.0747
57939W        W 1033   4.375   7.243   0.500  0.2830  0.0697  0.1536
57940W        W 1034   2.291   8.285   1.030  0.2485  0.0292 -0.2842
57941W        W 1035   2.627   8.433   2.175  0.0978  0.0645 -0.1525
57942W        W 1036   3.748   7.297   3.376  0.1105  0.1580 -0.0670
57943W        W 1037   2.798   9.605   0.996  0.1005 -0.0067 -0.0708
57944W        W 1038   1.722   8.013   3.582 -0.0124 -0.2022  0.0274
57945W        W 1039  34.093   7.486   3.436 -0.1940  0.0913  0.3261
57946W        W 1040   2.121  10.320   0.913  0.2651  0.0509 -0.2644
57947W        W 1041  33.562   7.135   2.084 -0.3009  0.0512  0.1271
57948W        W 1042   3.447   9.711   2.883  0.1591 -0.1125 -0.0778
57949W        W 1043  34.425   9.276   3.436 -0.1229 -0.0954  0.3190
57950W        W 1044   2.009   8.460   1.979 -0.0310  0.0483  0.0632
57951W        W 1045   0.534   7.677  30.513 -0.0082 -0.4429  0.0870
57952W        W 1046  34.568   7.770   2.810 -0.2312  0.3004 -0.1244
57953W        W 1047   3.461   8.318   2.784 -0.0757 -0.1971  0.1065
57954W        W 1048   1.429  10.216   0.304  0.2485  0.0941 -0.0898
57955W        W 1049   2.339   7.893   2.122 -0.0569  0.2364 -0.1491
57956W        W 1050  34.276   8.597   2.647  0.3164 -0.4131  0.0799
57957W        W 1051   2.428   8.605   1.360  0.0393  0.1510 -0.0923
57958W        W 1052   1.855   9.578  31.661 -0.0123 -0.1841 -0.1030
57959W        W 1053  34.001   9.974   1.190 -0.3417  0.0478  0.1077
57960W        W 1054   1.420   7.202   3.022  0.1348  0.0388 -0.1757
57961W        W 1055   3.549   9.206   2.050  0.1892 -0.3919  0.0835
57962W        W 1056   2.737   9.024   1.321 -0.1915  0.0704 -0.4453
57963W        W 1057   2.925   7.912   3.762  0.0993  0.0770 -0.0294
57964W        W 1058   2.938   9.827   2.392  0.0383 -0.0333 -0.1578
57965W        W 1059   1.029   8.835   3.409  0.0590  0.1010  0.0885
57966W        W 1060  33.642   6.937   4.876 -0.1259 -0.1059  0.2519
57967W        W 1061   2.102  10.425   2.596  0.0164 -0.2652 -0.0792
57968W        W 1062   3.589   8.622   0.972  0.0422 -0.4072  0.0714
57969W        W 1063   3.659   8.175   2.367  0.4058 -0.1862  0.4345
57970W        W 1064   3.277   9.793   1.007  0.4419  0.1224  0.0784
57971W        W 1065   3.244   9.704  31.915 -0.0941 -0.1631  0.3158
57972W        W 1066   0.518   9.025   2.527  0.1736 -0.0902 -0.2050
57973W        W 1067   3.309   8.632   3.615  0.0268  0.2458 -0.1045
57974W        W 1068   0.611   8.060  31.974 -0.0804 -0.0182 -0.2866
57975W        W 1069   2.818   7.126   1.983  0.0731 -0.1624 -0.2150
57976W        W 1070   1.075  11.859   0.311  0.2302  0.2391 -0.1181
57977W        W 1071   2.400   9.692   2.400  0.0854  0.0107 -0.1023
57978W        W 1072   1.491   8.961  31.585  0.0614 -0.1000  0.0432
57979W        W 1073   0.775   8.032   2.573 -0.0594 -0.1890  0.2384
57980W        W 1074   2.486  12.405   3.164  0.0271 -0.0671 -0.2626
57981W        W 1075  33.928   8.931   1.452 -0.0141  0.0293  0.1480
57982W        W 1076   1.765   9.233   0.943 -0.0275  0.0961  0.0326
57983W        W 1077   2.843  10.996   3.533 -0.0772  0.1459  0.0652
57984W        W 1078   4.200   8.304   2.511 -0.2183  0.1706  0.1148
57985W        W 1079   1.576   7.609  31.292 -0.0653 -0.1844 -0.2052
57986W        W 1080   2.272   7.598   4.213 -0.3320  0.1045  0.1070
57987W        W 1081   2.107   9.518   1.241  0.1274 -0.0151  0.3431
57988W        W 1082   1.573   7.785   1.987 -0.0466 -0.2141  0.1305
57989W        W 1083   0.722  11.558   1.602 -0.3926 -0.0431 -0.1741
57990W        W 1084  33.159   9.316   2.941 -0.0811  0.0740  0.2556
57991W        W 1085   0.553   9.890   2.045 -0.2024 -0.0481  0.1528
57992W        W 1086   1.303   6.768   2.783  0.2124 -0.0656  0.0650
57993W        W 1087   1.931   7.460   2.177 -0.1393  0.2716 -0.2852
57994W        W 1088   1.203   7.715   3.692 -0.1196 -0.0413  0.0190
57995W        W 1089   2.424   8.724   4.667  0.0033  0.1624 -0.2648
57996W        W 1090   2.019   9.144   2.202  0.1179 -0.1299 -0.2078
57997W        W 1091   0.882   9.354   2.581 -0.0679  0.1264 -0.2483
57998W        W 1092   3.270  11.734   3.068  0.0016 -0.0686 -0.2151
57999W        W 1093   3.744   9.078   0.990 -0.3319  0.3805 -0.1526
58000W        W 1094  34.557   9.829   2.170 -0.0669 -0.3008 -0.1548
58001W        W 1095  34.116   7.658   2.895 -0.0497  0.1673  0.0129
58002W        W 1096   3.385   9.769   4.697  0.0535  0.3113 -0.4305
58003W        W 1097   2.053   8.343   3.950 -0.1628 -0.2697  0.1682
58004W        W 1098   1.549   8.267   1.801 -0.2536  0.1399 -0.1435
58005W        W 1099   2.083  10.677  30.821  0.3855 -0.1574 -0.0755
58006W        W 1100   1.309  10.832   4.223  0.2455 -0.1160 -0.1627
58007W        W 1101  34.110   9.273   2.453  0.2190  0.5312 -0.0489
58008W        W 1102   0.648  11.915   0.820  0.0138 -0.2086  0.0265
58009W        W 1103   2.363   8.999  31.808  0.3413  0.0036  0.2857
58010W        W 1104   1.478   9.126   1.438  0.0791 -0.0297  0.2220
58011W        W 1105   2.879   9.723   2.898  0.0851  0.4016 -0.2038
58012W        W 1106   1.736   8.365   0.884  0.1671  0.1947 -0.0973
58013W        W 1107   0.455  11.270   1.921 -0.3264 -0.0466  0.3136
58014W        W 1108   0.037   9.208   0.835  0.0647  0.1042  0.2038
58015W        W 1109   2.357   9.195   0.989 -0.1172 -0.1958 -0.4458
58016W        W 1110   1.886  10.110   1.342 -0.3774 -0.1999  0.2960
58017W        W 1111   3.823   8.979   4.062  0.0999  0.0497  0.0094
58018W        W 1112   2.890   9.150  31.869 -0.0252 -0.0677 -0.0089
58019W        W 1113   3.178   7.368   1.706  0.1862  0.3911  0.1915
58020W        W 1114   3.571   9.454   1.291 -0.0327 -0.1582 -0.1220
58021W        W 1115   3.769  10.043   4.514  0.0617 -0.0519 -0.0909
58022W        W 1116   2.599   8.482   2.821  0.1919 -0.1696  0.0264
58023W        W 1117   0.655   7.574   0.241 -0.2509  0.0460 -0.1799
58024W        W 1118   1.594   9.196   3.447 -0.2137 -0.0727 -0.0117
58025W        W 1119   2.642   7.894   3.336 -0.0318  0.0815  0.0026
58026W        W 1120   0.764   9.684   3.451  0.2599  0.1054  0.1632
58027W        W 1121   1.674  12.614  31.529 -0.0312  0.0583  0.0187
58028W        W 1122   1.135   7.811  31.797  0.0316  0.3744  0.0652
58029W        W 1123   1.425   8.976   3.060 -0.1593  0.0200 -0.0140
58030W        W 1124   2.581   8.277   3.969  0.0061 -0.0357 -0.0880
58031W        W 1125   0.841  10.579   0.375 -0.0047  0.0203  0.1143
58032W        W 1126   3.057   8.482   0.883 -0.3213  0.1665  0.0100
58033W        W 1127   1.468  12.477   0.509  0.0973 -0.1143 -0.1728
58034W        W 1128   1.177   9.917   2.980 -0.1561 -0.1287  0.2321
58035W        W 1129   2.568   9.210   2.254  0.2439 -0.2358  0.2282
58036W        W 1130   0.057   8.250   0.873  0.1120 -0.2822 -0.1607
58037W        W 1131   1.178   8.418   0.201  0.2904 -0.0204 -0.4470
58038W        W 1132   1.728   9.296   2.949 -0.2599  0.0114  0.2442
58039W        W 1133   3.886   7.758   3.760  0.0711  0.1044 -0.3695
58040W        W 1134   0.240   8.806   1.726 -0.0846 -0.0035 -0.2393
58041W        W 1135   2.642   8.324   0.627  0.1423 -0.2370 -0.1164
58042W        W 1136   3.287   9.522   3.370  0.1072 -0.2501 -0.2511
58043W        W 1137   1.213   7.965   2.268 -0.1015  0.2009 -0.1178
58044W        W 1138  34.647   9.808  30.952 -0.2105  0.2988  0.1326
58045W        W 1139   3.264   8.229   3.298  0.0077  0.0711  0.2238
58046W        W 1140   2.378   9.499  31.639  0.0821  0.3055 -0.0070
58047W        W 1141   4.694  10.386   3.442 -0.1142  0.1002 -0.2066
58048W        W 1142   2.089   7.380   0.625 -0.1892 -0.1043  0.0563
58049W        W 1143   1.432   8.918   0.153  0.0415  0.2950 -0.1797
58050W        W 1144  34.211  10.418   0.957 -0.0006  0.0277  0.1587
58051W        W 1145   0.981   7.462   3.142 -0.1564  0.3751  0.3125
58052W        W 1146   3.824  11.907   2.086  0.0850 -0.0574  0.0478
58053W        W 1147   1.010   7.587   0.637  0.1632 -0.1684  0.2959
58054W        W 1148   3.712  10.870  31.739 -0.3295  0.0422  0.2554
58055W        W 1149   4.387   7.483   2.689 -0.0574  0.0832 -0.0274
58056W        W 1150   0.890  10.208  30.561  0.1462 -0.0509 -0.3321
58057W        W 1151   2.264   8.205   2.479  0.1333  0.1023  0.0005
58058W        W 1152   3.312  10.258   3.272  0.0044  0.1704  0.0605
58059W        W 1153   0.114   7.645   2.125 -0.3664  0.3040  0.2989
58060W        W 1154   2.217   9.412   3.267  0.4906  0.0701 -0.1079
58061W        W 1155   2.142  11.213   2.040  0.4471 -0.1986 -0.3191
58062W        W 1156   1.267   7.774   1.556 -0.0976 -0.3199 -0.2295
58063W        W 1157   1.909  10.258   3.018 -0.3228  0.0070 -0.1993
58064W        W 1158   0.212   9.125   2.919  0.1333  0.2643  0.0332
58065W        W 1159   3.948   7.378   2.955 -0.0680  0.0388  0.0113
58066W        W 1160   3.326   8.574   1.445 -0.0756 -0.2378  0.1736
58067W        W 1161   1.611   9.697   0.097 -0.4783  0.1965  0.1654
58068W        W 1162   4.084   7.337   3.744 -0.1485  0.1353 -0.1968
58069W        W 1163   2.014   9.720   2.770  0.1404  0.4160  0.0544
58070W        W 1164   3.317   9.778   5.769  0.2951  0.1521 -0.1525
58071W        W 1165  34.516   9.100  30.841 -0.2827 -0.0095  0.1821
58072W        W 1166   2.046  10.176   3.968  0.0365  0.2062 -0.1448
58073W        W 1167   1.678   9.317   0.437  0.1238 -0.4089  0.2465
58074W        W 1168   1.447  11.720  31.532  0.0747 -0.0215 -0.1007
58075W        W 1169   2.435   9.608   0.653 -0.1570 -0.0974  0.0203
58076W        W 1170   1.240   9.578   1.546  0.0739  0.1776  0.0530
58077W        W 1171   4.603   9.661   1.433 -0.1866 -0.0525  0.0641
58078W        W 1172   1.193   7.659   2.743 -0.0461 -0.3329 -0.1576
58079W        W 1173   4.655   9.076   1.486 -0.3122  0.0074 -0.0550
58080W        W 1174   1.363   6.865   2.070 -0.0387  0.1016  0.1846
58081W        W 1175   1.245  10.432   3.118  0.1512 -0.1029 -0.4884
58082W        W 1176  34.052   8.834  31.827 -0.2961 -0.0717 -0.0862
58083W        W 1177   1.115  10.364   0.717  0.0735  0.0501 -0.1831
58084W        W 1178  34.228  10.292   1.550  0.1675  0.1079  0.1323
58085W        W 1179   1.203   6.345   3.271  0.0183 -0.1209  0.2342
58086W        W 1180   0.862   8.320   3.036 -0.1278  0.2372 -0.1458
58087W        W 1181  33.782   9.947   1.710 -0.2493 -0.0759 -0.0782
58088W        W 1182   1.375   7.880  30.912 -0.1604 -0.2138 -0.2754
58089W        W 1183   4.360   9.880   0.624 -0.0211  0.3932  0.4491
58090W        W 1184  34.233   7.928   1.159  0.0727  0.1147 -0.2726
58091W        W 1185   0.247   8.534   1.296 -0.2295 -0.1452 -0.3530
58092W        W 1186   2.911  10.342   2.230 -0.2311 -0.1986  0.0146
58093W        W 1187   3.122   8.911   2.160  0.0750 -0.1723 -0.2065
58094W        W 1188   1.509   8.437  31.735  0.0198 -0.2298  0.0367
58095W        W 1189   2.729   9.187   3.218 -0.1229 -0.0306 -0.0267
58096W        W 1190   0.356   9.859   1.072 -0.0356 -0.0242 -0.1197
58097W        W 1191   1.677   8.582   3.497 -0.0442  0.2802  0.0047
58098W        W 1192   2.213   7.893   3.745  0.1240 -0.2981 -0.0254
58099W        W 1193  34.666   7.186   0.948  0.1049 -0.0952 -0.1010
58100W        W 1194  34.478   8.315   3.671 -0.1228 -0.0830  0.5057
58101W        W 1195   3.045   9.471   1.426 -0.0468  0.3329  0.1486
58102W        W 1196   1.720  10.452   0.714 -0.1166  0.0161 -0.2294
58103W        W 1197   3.276  10.299   1.024 -0.3443 -0.1752 -0.0293
58104W        W 1198   2.804   9.439   3.686  0.0119 -0.1049 -0.0227
58105W        W 1199   1.087   7.396   1.809 -0.1325  0.0850 -0.1498
58106W        W 1200   2.033   8.840   1.110 -0.0464  0.1761 -0.0895
58107W        W 1201   1.577  10.789   5.057  0.1863  0.1347 -0.5091
58108W        W 1202   2.494   9.955  31.480 -0.1775 -0.1059  0.1409
58109W        W 1203   4.423   7.195   3.076  0.0562  0.0271  0.1519
58110W        W 1204   1.621   8.411   0.410 -0.1793  0.0384  0.0465
58111W        W 1205  34.653   6.545   3.635  0.0356  0.0402 -0.0381
58112W        W 1206   0.670   8.547   3.602 -0.0447 -0.4400  0.0527
58113W        W 1207   3.269   9.967   1.879 -0.1752  0.0340 -0.3821
58114W        W 1208   1.113   6.487   2.332 -0.1519 -0.0081  0.0739
58115W        W 1209   1.915   9.135  31.943  0.0486  0.3241 -0.2335
58116W        W 1210   2.193  10.528   0.379 -0.0644  0.0606  0.0081
58117W        W 1211   0.945   9.182   1.408 -0.1889 -0.0971 -0.0214
58118W        W 1212   1.207   9.092   0.610 -0.1401 -0.0357 -0.0629
58119W        W 1213   2.236   8.755   2.457  0.3477 -0.0124  0.0436
58120W        W 1214   1.920   9.657   0.765 -0.0101 -0.2308 -0.1781
58121W        W 1215   3.521   8.666   2.386 -0.1180  0.1564 -0.0349
58122W        W 1216   0.432   9.387   1.723  0.3285 -0.0683 -0.0187
58123W        W 1217   2.846  10.156   0.755  0.1213 -0.3038 -0.1587
58124W        W 1218   0.779  10.179   3.243  0.2277  0.0737  0.1677
58125W        W 1219   4.549  11.604   2.536 -0.0623  0.1275  0.3786
58126W        W 1220   2.994   9.908   3.423  0.1973 -0.1557  0.0992
58127W        W 1221   2.263   9.565   1.892  0.1775 -0.0602 -0.2385
58128W        W 1222   0.186   6.957   3.281 -0.1267  0.3059 -0.4027
58129W        W 1223   1.254   8.154   2.716 -0.0849  0.0753 -0.2248
58130W        W 1224   2.557   9.595   1.475 -0.1817  0.0461  0.0282
58131W        W 1225   2.946   8.152   2.889  0.2353 -0.3043  0.0443
58132W        W 1226   1.075   7.280   2.275 -0.0113  0.3292 -0.1248
58133W        W 1227   2.131   8.743   0.251  0.1242 -0.0490 -0.0406
58134W        W 1228   3.116  11.158   2.973 -0.0595 -0.1119 -0.1104
58135W        W 1229   2.394   9.901   1.068  0.0265  0.0900 -0.3305
58136W        W 1230   1.130   8.471   8.188 -0.0059 -0.1394  0.0546
58137W        W 1231   0.004   7.759   4.406 -0.2484  0.2907 -0.4544
58138W        W 1232   2.686   6.963   4.643 -0.1433 -0.2384 -0.2102
58139W        W 1233   3.340   8.768   4.072  0.0224 -0.0582  0.0593
58140W        W 1234   0.200   7.294   5.100  0.0102 -0.0901 -0.2194
58141W        W 1235   3.368  10.856   5.464  0.0334  0.1449  0.1471
58142W        W 1236   1.163   6.977   6.646 -0.0162  0.0493 -0.3080
58143W        W 1237   3.905   8.508   4.365 -0.2153 -0.0318 -0.2461
58144W        W 1238   3.190  10.469   5.765  0.1719  0.0149 -0.0200
58145W        W 1239   1.504   8.738   4.259 -0.2816  0.1332  0.0449
58146W        W 1240   2.114   8.486   7.267 -0.2199  0.1679  0.0932
58147W        W 1241   1.296   8.447   6.340 -0.0428  0.0798 -0.0532
58148W        W 1242   2.004   6.566   5.678 -0.0286  0.1556  0.1648
58149W        W 1243   0.565   6.467   6.216  0.2339  0.2967 -0.1847
58150W        W 1244   3.391   8.977   6.198  0.0622 -0.2537 -0.1840
58151W        W 1245   0.644   8.557   4.270 -0.1458 -0.2447 -0.1409
58152W        W 1246  34.594   7.781   6.421  0.1921 -0.3698 -0.1990
58153W        W 1247   2.448   8.477   5.581  0.1182 -0.0151  0.1518
58154W        W 1248   1.348  11.545   5.560  0.3763  0.1027 -0.1583
58155W        W 1249   1.498   6.844   7.001 -0.0128 -0.1425  0.0729
58156W        W 1250   3.587   7.145   5.097 -0.0840 -0.0676  0.2109
58157W        W 1251   2.249  10.287   4.434 -0.0985 -0.1114  0.1352
58158W        W 1252   0.140   8.353   4.039  0.0689  0.1877 -0.1026
58159W        W 1253   0.257   8.813   4.674  0.2400  0.2055 -0.1440
58160W        W 1254   0.848   9.306   8.292 -0.1832 -0.0879 -0.1533
58161W        W 1255   2.507   7.563   5.925 -0.0803  0.0540 -0.2864
58162W        W 1256   3.021   7.120   6.070 -0.0270  0.0952  0.1312
58163W        W 1257   0.024  11.227   5.728 -0.0219  0.0478 -0.1924
58164W        W 1258   2.618   9.388   6.050  0.2147 -0.2558 -0.1297
58165W        W 1259   3.890   8.436   7.492 -0.1180 -0.0955  0.1158
58166W        W 1260   0.911   9.107   3.849  0.0700 -0.1926  0.0809
58167W        W 1261  34.620  10.752   5.530  0.4307 -0.0868 -0.0270
58168W        W 1262   1.737   9.865   4.340 -0.0628 -0.4098  0.0940
58169W        W 1263   4.346   9.145   4.163  0.0917  0.0056 -0.0753
58170W        W 1264   2.660   9.552   4.169  0.1533  0.2169  0.3146
58171W        W 1265   2.803  10.068   6.703 -0.0232  0.0431  0.3342
58172W        W 1266   1.528   9.573   4.681  0.1974  0.1891  0.1759
58173W        W 1267   2.951  11.040   7.319  0.0898 -0.0681 -0.1618
58174W        W 1268   1.861   9.439   7.479  0.0205 -0.0675  0.2976
58175W        W 1269   2.556   8.952   5.825 -0.2964 -0.2051 -0.1231
58176W        W 1270   1.448   8.144   5.925  0.0248  0.0211  0.1329
58177W        W 1271   1.856  10.639   3.727  0.0890  0.5366  0.2266
58178W        W 1272   1.881   8.623   5.168  0.1632  0.0441 -0.2137
58179W        W 1273   0.358   8.868   7.459 -0.2506  0.2265  0.1549
58180W        W 1274  33.793   9.946   5.590 -0.1499  0.1247 -0.2509
58181W        W 1275   3.662   6.554   7.491  0.2013 -0.1157  0.1041
58182W        W 1276   2.177  10.269   3.462  0.1219 -0.0181 -0.0420
58183W        W 1277   1.393   8.570   4.902 -0.2049 -0.2393 -0.1397
58184W        W 1278   1.557   7.466   3.956 -0.1372  0.1656  0.3284
58185W        W 1279   2.084   7.867   5.194 -0.1961  0.3463 -0.0098
58186W        W 1280   1.163   7.834   5.469  0.2353  0.2304 -0.0901
58187W        W 1281   1.795  10.519   5.449  0.2267  0.1254  0.1910
58188W        W 1282   2.177   8.646   5.959  0.0634  0.2782 -0.2845
58189W        W 1283   2.713   9.880   5.216 -0.0826 -0.1577 -0.1958
58190W        W 1284   1.644   7.924   5.503 -0.2343 -0.2267  0.0534
58191W        W 1285   0.088  10.358   6.900 -0.1542  0.2004 -0.2260
58192W        W 1286  34.380   8.607   4.860  0.3294  0.0214  0.2086
58193W        W 1287   3.110   9.077   3.523  0.0686  0.0500  0.1074
58194W        W 1288   3.299  10.209   4.966  0.1373 -0.0841  0.0340
58195W        W 1289   2.383  10.929   4.213 -0.1675 -0.0360 -0.0275
58196W        W 1290   1.329   7.998   4.778  0.1342 -0.0917 -0.0490
58197W        W 1291   1.055   9.487   7.406  0.0229 -0.1973  0.0971
58198W        W 1292  34.665   8.556   7.512 -0.3788  0.3299 -0.0422
58199W        W 1293  34.384   7.403   4.538 -0.0418  0.0193 -0.0582
58200W        W 1294   3.005   9.629   6.575 -0.1576  0.0257  0.2077
58201W        W 1295  34.493  10.030   6.330 -0.2457  0.2882 -0.0623
58202W        W 1296   3.018   9.203   4.130 -0.2048  0.1078 -0.1725
58203W        W 1297  34.287   7.657   4.976 -0.0617 -0.0239 -0.1015
58204W        W 1298   4.458   9.499   5.556 -0.1664  0.1429 -0.0505
58205W        W 1299   3.439   9.410   3.871  0.0048 -0.0497 -0.2937
58206W        W 1300   3.260   6.449   5.952  0.0467 -0.4525  0.1253
58207W        W 1301   1.159   7.308   7.142  0.0871  0.2699  0.0040
58208W        W 1302   1.484   8.410   3.080 -0.3751 -0.0306 -0.1000
58209W        W 1303   1.062   8.554   3.935 -0.3696 -0.0057 -0.0850
58210W        W 1304   4.018   9.214   5.591  0.2105 -0.0462 -0.0609
58211W        W 1305   2.044   9.814   3.652  0.0735  0.0740 -0.0541
58212W        W 1306   0.192  10.821   5.956 -0.1063  0.0415  0.0433
58213W        W 1307   1.942   7.023   8.185 -0.2490  0.1586 -0.0232
58214W        W 1308   1.893   9.906   5.851  0.1803 -0.0315  0.0099
58215W        W 1309   1.178  10.883   2.680 -0.1778  0.0824  0.2213
58216W        W 1310   0.872   9.984   6.675  0.1608  0.2179  0.0075
58217W        W 1311   0.113   9.540   4.689 -0.2587  0.1849 -0.0696
58218W        W 1312   0.977   7.964   6.444  0.1243 -0.0748  0.4703
58219W        W 1313   1.191  10.239   5.399 -0.0813 -0.3143 -0.2950
58220W        W 1314   2.928   7.145   3.756  0.0940 -0.0528 -0.1604
58221W        W 1315   0.564   8.003   7.234  0.1949  0.0724  0.0905
58222W        W 1316   2.935   6.730   5.726 -0.1889 -0.2114 -0.2293
58223W        W 1317   0.385  10.531   5.616 -0.0980  0.2528  0.1619
58224W        W 1318   3.919   9.457   4.236  0.1429  0.0639 -0.3256
58225W        W 1319   3.289   7.518   3.442 -0.0644  0.0361  0.5097
58226W        W 1320   3.392  10.735   3.092 -0.1937 -0.1403 -0.3291
58227W        W 1321   0.014   8.575   5.734  0.0809  0.0872  0.3082
58228W        W 1322   0.119   7.490   5.582 -0.0606 -0.1730 -0.0192
58229W        W 1323   0.170   6.870   7.896  0.1073  0.0817  0.1499
58230W        W 1324   0.294   7.922   7.930  0.1440 -0.0725  0.5032
58231W        W 1325   3.192   8.727   5.744  0.0013  0.1612 -0.1403
58232W        W 1326   0.429   6.045   4.331 -0.3518 -0.0110  0.0170
58233W        W 1327   3.724   9.020   5.024 -0.1759 -0.0756  0.0324
58234W        W 1328   0.870   8.496   5.201 -0.2683 -0.0700  0.0448
58235W        W 1329  33.990   7.359   4.194 -0.2834  0.0234  0.0137
58236W        W 1330   3.891   5.931   7.070  0.0727  0.1749  0.0888
58237W        W 1331   2.305   9.176   3.970  0.1781  0.0248 -0.3332
58238W        W 1332   3.359  10.731   6.477  0.1576 -0.1037  0.1328
58239W        W 1333   2.932  10.077   5.651  0.1828 -0.0698  0.0544
58240W        W 1334   1.587   8.598   7.449 -0.2720 -0.2968 -0.1563
58241W        W 1335   1.313  10.033   4.772  0.3370 -0.0321 -0.1099
58242W        W 1336   0.966  10.773   6.703  0.1388  0.0240 -0.0397
58243W        W 1337   0.805  10.567   5.363 -0.0996 -0.2365  0.2184
58244W        W 1338   0.442   6.770   4.380 -0.0790 -0.3213  0.2363
58245W        W 1339   2.521   9.193   5.320 -0.0235 -0.0414  0.4610
58246W        W 1340   2.080   9.496   4.687  0.3681  0.1155 -0.0325
58247W        W 1341   0.580   9.567   6.804 -0.1584  0.0819  0.2833
58248W        W 1342   2.949   7.098   7.598 -0.0344 -0.1002 -0.0666
58249W        W 1343   5.221   8.247   5.404 -0.1298  0.1186  0.0117
58250W        W 1344   1.880   8.334   5.676 -0.2352 -0.0929  0.2838
58251W        W 1345   0.347   5.843   3.877 -0.0740  0.0265 -0.2292
58252W        W 1346   2.976  10.852   4.086 -0.1135 -0.1529  0.2146
58253W        W 1347   1.062  10.265   4.372 -0.0756  0.0280  0.4394
58254W        W 1348  34.321   8.440   5.384 -0.1417  0.1748  0.1413
58255W        W 1349   2.376   9.896   5.694 -0.2858  0.1394  0.2476
58256W        W 1350   3.008   6.159   5.546 -0.3837  0.2710  0.1100
58257W        W 1351   0.680   9.406   7.838 -0.2828  0.4405  0.0002
58258W        W 1352   1.902   8.859   7.728 -0.1772  0.1806 -0.0293
58259W        W 1353   0.800   7.623   4.083  0.2592  0.1700 -0.0425
58260W        W 1354   0.554   9.410   7.323 -0.1417  0.0184 -0.2233
58261W        W 1355   1.665   7.088   4.937  0.1575  0.1258  0.1459
58262W        W 1356   3.396   7.693   3.851 -0.1218 -0.1385  0.0232
58263W        W 1357   3.752   8.692   6.545 -0.0679 -0.2241 -0.1874
58264W        W 1358   3.477   9.416   4.400  0.0453 -0.2763  0.1839
58265W        W 1359   2.816   7.295   3.243  0.0409 -0.1543  0.1397
58266W        W 1360   2.485   7.454   2.289  0.1320  0.0625 -0.5317
58267W        W 1361   0.410   9.828   7.599 -0.1111  0.1435  0.1966
58268W        W 1362   2.513   9.789   4.588  0.1292 -0.0210  0.0181
58269W        W 1363   2.376   8.670   5.145 -0.0864 -0.1443  0.0513
58270W        W 1364   2.034   7.812   4.696 -0.1350 -0.0839  0.1944
58271W        W 1365   4.340  10.230   4.089 -0.2929 -0.1759 -0.0183
58272W        W 1366   0.156   7.806   5.162  0.0786 -0.0883  0.1408
58273W        W 1367   2.808   8.934   7.943 -0.2843  0.0808  0.2129
58274W        W 1368   1.662  10.361   4.381 -0.0591  0.1378  0.0032
58275W        W 1369   1.579   7.525   6.586 -0.0509  0.1997 -0.0705
58276W        W 1370   1.620   8.208   4.398 -0.0125 -0.1975  0.0797
58277W        W 1371   0.208   6.919   5.440 -0.2796  0.1544  0.0268
58278W        W 1372   3.392  10.193   3.748  0.0699 -0.2596  0.2518
58279W        W 1373   2.027   7.268   6.691  0.3189  0.1283  0.0881
58280W        W 1374   2.762   6.812   5.211  0.2373  0.0691 -0.0493
58281W        W 1375   2.613   7.689   6.482 -0.0828  0.0051 -0.0823
58282W        W 1376   3.609   8.862   7.568  0.1262 -0.2802  0.0407
58283W        W 1377   2.510   8.042   5.319 -0.0679  0.0986  0.0832
58284W        W 1378   1.640   9.477   5.601 -0.0230  0.0004  0.2184
58285W        W 1379   1.214   7.963   3.232  0.0548 -0.2954  0.3128
58286W        W 1380   2.250   7.695   7.706  0.1124 -0.0540  0.0092
58287W        W 1381   0.394   8.330   8.204  0.0898  0.1649  0.0330
58288W        W 1382   0.720  10.278   6.995 -0.2306 -0.0610  0.0082
58289W        W 1383   1.867   9.181   5.994  0.0497  0.1196 -0.1526
58290W        W 1384   1.007   8.393   5.804 -0.0467  0.1162  0.1241
58291W        W 1385   2.289   8.786   6.847  0.0791 -0.1481 -0.2256
58292W        W 1386   1.104   8.074   4.092  0.2661  0.1988 -0.0158
58293W        W 1387   1.493  11.744   4.126  0.1158  0.0107 -0.1569
58294W        W 1388   2.734  10.322   4.275  0.4874  0.1688  0.0268
58295W        W 1389   0.453   8.172   4.470 -0.2043  0.1236  0.3430
58296W        W 1390  34.541   8.272   6.665 -0.0063 -0.2124 -0.2864
58297W        W 1391   0.811   8.327   4.716 -0.1198 -0.5010  0.2875
58298W        W 1392   3.190   9.182   5.440  0.1891  0.1764  0.4158
58299W        W 1393   0.515  10.406   4.599 -0.0450  0.1514  0.0219
58300W        W 1394   2.389   6.565   6.090  0.0409  0.0427  0.1658
58301W        W 1395  34.309  10.218   4.410  0.1408  0.2799 -0.1935
58302W        W 1396   0.765   7.962   5.040  0.0842 -0.0340 -0.1334
58303W        W 1397   0.421   7.720   4.697 -0.1430 -0.1962 -0.1379
58304W        W 1398   3.442   6.607   4.683 -0.0836  0.1225  0.1800
58305W        W 1399   4.152   8.764   3.513  0.3373 -0.1075 -0.1178
58306W        W 1400   1.788   7.785   6.130 -0.2724 -0.2311 -0.1070
58307W        W 1401   2.865   7.804   5.592 -0.0429 -0.0384 -0.3944
58308W        W 1402  34.236   9.458   5.596 -0.0806  0.0478  0.0437
58309W        W 1403   1.317   8.281   5.337  0.3062 -0.0762  0.1771
58310W        W 1404   3.324   6.196   4.942 -0.4191  0.0754 -0.2075
58311W        W 1405   1.683  11.413   6.321 -0.3424 -0.0947 -0.0277
58312W        W 1406   2.281   9.134   6.311 -0.2480  0.1869  0.0526
58313W        W 1407   0.249   7.723   3.962 -0.0144 -0.0406 -0.0818
58314W        W 1408   2.586   8.066   5.929  0.0820 -0.2933  0.2430
58315W        W 1409   0.549   7.031   4.817 -0.2793 -0.0338  0.4263
58316W        W 1410   1.090   9.716   5.207 -0.1315 -0.0493  0.3341
58317W        W 1411   0.640   8.892   6.851  0.1640  0.1028 -0.3498
58318W        W 1412   0.559   9.423   3.829  0.1706 -0.2407  0.0748
58319W        W 1413   1.323  10.722   5.518 -0.0078  0.2170 -0.2505
58320W        W 1414   0.725   8.539   6.447  0.3724  0.4834 -0.1300
58321W        W 1415   2.348   7.404   5.485  0.2823  0.1358  0.0053
58322W        W 1416   1.062   7.453   6.600 -0.1655 -0.0267  0.1908
58323W        W 1417   0.855   7.328   4.510 -0.2601  0.1904  0.1648
58324W        W 1418   1.736   8.217   4.926  0.2268 -0.2377 -0.1561
58325W        W 1419   2.143   8.898   5.535 -0.0259 -0.0912  0.0422
58326W        W 1420   2.710   8.553   6.052  0.3111  0.2563 -0.1424
58327W        W 1421   0.999   9.984   8.307 -0.2128  0.2818 -0.0220
58328W        W 1422   2.648   6.096   5.192  0.3309 -0.1628  0.1102
58329W        W 1423   2.276   9.637   5.155  0.0038 -0.0596 -0.0639
58330W        W 1424   2.750   8.708   6.623 -0.4272 -0.4222 -0.4310
58331W        W 1425   1.674  10.168   3.524 -0.0754 -0.0184  0.1028
58332W        W 1426  34.108   7.996   7.393 -0.0943  0.0220 -0.0574
58333W        W 1427  34.629   9.200   6.060 -0.1755 -0.1487  0.0765
58334W        W 1428   1.308   7.738   6.125  0.0238  0.1691 -0.2080
58335W        W 1429   0.412  10.342   6.130  0.0639 -0.5978 -0.0774
58336W        W 1430   1.513   9.595   3.740 -0.0519  0.2448  0.3234
58337W        W 1431   0.763   8.491   7.218 -0.0979  0.2605  0.2292
58338W        W 1432   2.032   7.451   3.778  0.0317  0.0129  0.1421
58339W        W 1433   1.418   9.129   3.917 -0.4157 -0.0654 -0.1700
58340W        W 1434   1.529   7.497   5.753 -0.1344  0.0445 -0.1730
58341W        W 1435   4.536   7.439   5.664  0.0690 -0.0485 -0.0592
58342W        W 1436   2.800   9.002   4.915  0.3336 -0.0173 -0.1106
58343W        W 1437   2.838   6.665   6.199 -0.2396 -0.2568  0.0273
58344W        W 1438   1.620   7.007   6.500  0.0335 -0.0837  0.3646
58345W        W 1439   3.933   8.704   5.427  0.1868  0.0404  0.0468
58346W        W 1440   1.782   7.750   7.862 -0.1256 -0.0152  0.0226
58347W        W 1441   3.142  10.268   6.416 -0.0674 -0.0643 -0.7012
58348W        W 1442   1.289   7.768   8.426  0.1288 -0.1905 -0.4340
58349W        W 1443   2.257   8.259   4.896 -0.0332  0.0146 -0.2180
58350W        W 1444   0.587   7.036   3.536  0.5673  0.2185  0.1733
58351W        W 1445   1.853   8.379   6.231  0.0832 -0.0641  0.2976
58352W        W 1446   5.077   9.363   4.783 -0.1910  0.0304 -0.3162
58353W        W 1447   1.691   8.947   4.870  0.0250  0.1959 -0.0204
58354W        W 1448   3.700   8.916   5.822 -0.0177 -0.1287 -0.1903
58355W        W 1449   0.354   7.865   5.803 -0.3357  0.1263 -0.2623
58356W        W 1450   3.193   7.438   5.227  0.4170  0.1353 -0.1224
58357W        W 1451   2.820   8.797   5.387 -0.0524 -0.1128  0.2484
58358W        W 1452   0.423   8.316   5.067  0.0019  0.0684  0.4904
58359W        W 1453   0.072   8.050   7.424 -0.1270  0.1599 -0.1184
58360W        W 1454   3.089   8.142   6.006  0.0870  0.1059  0.1661
58361W        W 1455   2.856   7.814   5.058  0.0109  0.1415 -0.1120
58362W        W 1456   3.124   7.067   4.928 -0.0895 -0.1592 -0.0934
58363W        W 1457   3.288   7.968   5.509  0.1716 -0.0956 -0.4887
58364W        W 1458   2.435   8.150   6.769 -0.0770  0.0657 -0.0173
58365W        W 1459   0.202   6.893   8.874 -0.2242 -0.1333  0.0401
58366W        W 1460   2.876  10.610   6.157  0.3117  0.0969 -0.2204
58367W        W 1461   1.806   7.891   4.075 -0.2564 -0.0158  0.1236
58368W        W 1462   3.572   7.294   6.123  0.1697 -0.1251 -0.1092
58369W        W 1463   3.781   9.904   4.009  0.2013 -0.1357 -0.1895
58370W        W 1464   2.748   8.199   4.545 -0.1842 -0.0014 -0.0568
58371W        W 1465   0.286   7.270   7.242  0.0568  0.0784  0.4048
58372W        W 1466   2.290   8.501   6.434 -0.2302 -0.3738  0.1288
58373W        W 1467   0.292   7.295   4.328 -0.0506  0.1004 -0.2117
58374W        W 1468   3.296   8.341   7.291  0.0419 -0.2267  0.1612
58375W        W 1469   2.868   8.731   3.956  0.0632 -0.1887  0.1208
58376W        W 1470   3.636   9.483   5.405  0.0998  0.1820  0.2616
58377W        W 1471   2.205   9.088   4.950  0.0332  0.1250 -0.1075
58378W        W 1472   0.657   8.134   5.508 -0.0109  0.0561  0.0636
58379W        W 1473   0.501  10.687   6.991 -0.0514  0.0445 -0.1140
58380W        W 1474   0.658   8.124   3.965  0.0761 -0.0710 -0.0136
58381W        W 1475   0.778   9.004   4.313 -0.2192 -0.1713 -0.1112
58382W        W 1476   1.575   9.581   6.086 -0.4001  0.0590  0.2395
58383W        W 1477   5.082   8.587   6.237  0.2976 -0.4786 -0.0046
58384W        W 1478   2.224   7.173   4.816  0.0748 -0.2290  0.1996
58385W        W 1479   2.389   7.865   7.166  0.0563 -0.0507  0.1630
58386W        W 1480   0.100   8.185   5.460 -0.1271 -0.2545  0.0473
58387W        W 1481   1.889   7.440   5.270  0.0004  0.4447  0.0554
58388W        W 1482   0.095  10.848   7.237 -0.0972 -0.1283  0.0127
58389W        W 1483   0.759   9.139   6.470  0.1840 -0.0729 -0.0970
58390W        W 1484   1.050  11.135   5.478  0.1853  0.6227  0.0436
58391W        W 1485   2.179   6.939   5.266 -0.0411 -0.4807  0.0969
58392W        W 1486   2.802   7.244   5.612 -0.2239  0.3381 -0.1053
58393W        W 1487   0.431   9.347   6.140  0.1242  0.0061  0.0126
58394W        W 1488   3.652   9.327   7.426 -0.1014 -0.1719  0.2451
58395W        W 1489   3.531   9.944   6.364 -0.1324 -0.0800  0.1603
58396W        W 1490   1.869   8.232   6.691 -0.2526  0.1407 -0.2919
58397W        W 1491   3.288   9.655   7.370 -0.2445  0.0478 -0.0412
58398W        W 1492   5.224   9.072   4.437  0.3188  0.4170 -0.0739
58399W        W 1493   0.677   7.692   6.791  0.0866  0.0365  0.2865
58400W        W 1494  34.583   6.522   7.619  0.0196  0.1726 -0.1675
58401W        W 1495   2.927   7.961   7.838  0.0941 -0.1891 -0.3510
58402W        W 1496   1.146   9.786   5.723 -0.4995  0.0034 -0.0545
58403W        W 1497   0.658   7.564   3.634 -0.1381  0.4026 -0.1328
58404W        W 1498   3.287  10.773   3.693  0.1724  0.0198  0.0178
58405W        W 1499  34.263  10.865   5.868 -0.1516 -0.1624  0.1029
58406W        W 1500   0.256   8.519   6.584  0.1365 -0.3050 -0.0613
58407W        W 1501   1.211  10.589   4.756 -0.1735  0.1563  0.0415
58408W        W 1502   3.853   9.877   3.192 -0.0601 -0.0624  0.0019
58409W        W 1503   2.924   8.307   5.517  0.1006  0.2201 -0.0360
58410W        W 1504   3.568  10.229   5.441  0.5995 -0.0650  0.1705
58411W        W 1505   1.325   7.696   4.317 -0.3035 -0.0662  0.3481
58412W        W 1506   1.437  11.217   5.176  0.0166 -0.0703 -0.0871
58413W        W 1507  34.245   9.216   4.120 -0.1531 -0.2685 -0.0819
58414W        W 1508   4.642   9.909   3.641  0.1059 -0.2092 -0.1525
58415W        W 1509   1.668  11.331   4.386  0.2594  0.1535 -0.0316
58416W        W 1510   3.426   9.065   6.673 -0.3570  0.2769 -0.6827
58417W        W 1511   3.068   7.428   4.154  0.0873  0.1433  0.4559
58418W        W 1512   4.395   8.578   5.756 -0.0218  0.2125  0.1596
58419W        W 1513   3.202   8.810   5.058  0.0505  0.1369  0.1081
58420W        W 1514   2.861   8.463   7.795  0.4090 -0.1381 -0.2169
58421W        W 1515   0.417   7.998   6.383 -0.1126 -0.0632  0.1411
58422W        W 1516   0.777   6.536   3.386 -0.0472  0.2088 -0.4992
58423W        W 1517   1.188   7.831   6.928  0.2483  0.0236 -0.0654
58424W        W 1518   3.854   8.102   7.102 -0.0472 -0.0033 -0.1486
58425W        W 1519   0.382  11.205   7.742 -0.3145 -0.2342  0.1107
58426W        W 1520   4.434  10.887   2.904  0.0834  0.1803  0.1088
58427W        W 1521   0.498   7.197   5.828  0.0785  0.1287 -0.0449
58428W        W 1522  34.185   7.829   4.324 -0.0589 -0.2133 -0.0750
58429W        W 1523   4.142   5.969   6.414  0.1182 -0.3552 -0.0699
58430W        W 1524   1.835   9.418   5.103  0.0467  0.0147  0.1919
58431W        W 1525   2.118   7.894   5.735  0.1297 -0.0426  0.1045
58432W        W 1526   0.298  10.712   5.161  0.1468  0.1412 -0.1281
58433W        W 1527   2.000  10.561   4.916 -0.1775 -0.1122  0.0431
58434W        W 1528   1.429   9.121   6.270 -0.2410 -0.1867  0.1859
58435W        W 1529   0.160   6.754   4.923  0.1124  0.1089  0.3768
58436W        W 1530   3.413   8.900   4.606 -0.1609 -0.3822 -0.0333
58437W        W 1531  34.616   9.651   6.615  0.2465 -0.1684 -0.0444
58438W        W 1532   4.141   5.949   5.941 -0.1286  0.1248  0.0218
58439W        W 1533   0.904   7.460   4.985  0.1595 -0.0296  0.0440
58440W        W 1534   3.317   9.281   4.943  0.0699  0.3134 -0.3171
58441W        W 1535   3.435   8.545   5.393 -0.0751  0.1791 -0.0285
58442W        W 1536   0.280   8.449   7.113 -0.3442  0.1360 -0.0693
58443W        W 1537   2.070   9.004   4.441 -0.0938  0.2260 -0.0167
58444W        W 1538   4.329   9.616   6.586  0.0043 -0.0819  0.0551
58445W        W 1539   1.219   9.264   4.385 -0.0797  0.4195  0.0204
58446W        W 1540   4.118  10.579   7.015 -0.0443 -0.1287 -0.2634
58447W        W 1541   0.718   7.089   5.359 -0.1288 -0.1227 -0.1276
58448W        W 1542   3.022   6.858   4.325 -0.0954  0.0570 -0.1960
58449W        W 1543  34.618   8.883   4.001  0.2242  0.2981  0.1466
58450W        W 1544   1.564   8.084   7.072 -0.0319  0.1195 -0.0407
58451W        W 1545   2.972   9.167   6.436  0.1797 -0.2113 -0.2863
58452W        W 1546   0.134   6.398   4.587  0.0021  0.4777  0.0555
58453W        W 1547   3.714   9.316   3.121 -0.1220  0.1318  0.3492
58454W        W 1548   3.650   8.603   7.072 -0.0228 -0.0808  0.2347
58455W        W 1549   3.797  10.473   3.216  0.2344  0.2168  0.0700
58456W        W 1550   2.849   9.561   5.602  0.0621  0.1298 -0.2893
58457W        W 1551   2.024  10.074   5.358  0.1407  0.1495  0.0138
58458W        W 1552   0.839   7.651   8.325  0.2745 -0.1525  0.3145
58459W        W 1553   2.623  10.155   6.268 -0.0027  0.1272 -0.0322
58460W        W 1554   3.995   9.029   4.560  0.0902 -0.2659  0.0904
58461W        W 1555   1.716   6.820   4.523  0.0143 -0.0381  0.1386
58462W        W 1556   1.643   8.656   6.878 -0.1764 -0.1255 -0.1287
58463W        W 1557   1.388  10.558   3.740  0.2839  0.5206 -0.1070
58464W        W 1558   3.112   7.875   6.595 -0.3154 -0.1081  0.1626
58465W        W 1559   2.747   8.244   6.425 -0.2822 -0.1222 -0.1621
58466W        W 1560   3.547  11.686   4.121 -0.1751  0.1147 -0.3262
58467W        W 1561   3.358   5.855   6.755  0.0455  0.2205  0.1123
58468W        W 1562   0.914   9.485   6.144  0.0054 -0.0405 -0.0041
58469W        W 1563   1.064  10.858   7.737 -0.1987 -0.0367 -0.2070
58470W        W 1564   0.535   8.936   5.095 -0.0293  0.1753 -0.0222
58471W        W 1565   1.907   7.697   7.242  0.0373 -0.1529 -0.1579
58472W        W 1566   2.197   9.408   5.674 -0.2843  0.3402 -0.0882
58473W        W 1567   2.429  10.227   4.934  0.0206  0.1056  0.0168
58474W        W 1568   3.395   9.491   6.915  0.0281 -0.1737 -0.0717
58475W        W 1569   1.146   7.112   4.089 -0.1877 -0.3915 -0.2790
58476W        W 1570   5.167  10.164   4.474 -0.0365  0.0641 -0.0809
58477W        W 1571   1.683   6.993   5.950 -0.0799  0.1554  0.3371
58478W        W 1572   2.613   7.175   4.173  0.1165  0.1262  0.0472
58479W        W 1573   4.550   7.754   4.759 -0.1880 -0.0965  0.0579
58480W        W 1574   0.431   8.391   7.661 -0.1762  0.2066  0.4756
58481W        W 1575   0.216   7.797   3.246  0.0007  0.0772 -0.2163
58482W        W 1576   0.683   7.828   3.030  0.1746 -0.0325 -0.1786
58483W        W 1577   0.904   7.921   5.914  0.3867 -0.0388 -0.2797
58484W        W 1578   2.913   8.206   6.900 -0.0241  0.1789  0.3368
58485W        W 1579   0.116   8.138   8.730 -0.0688  0.2202  0.1800
58486W        W 1580   1.454   8.013   6.509 -0.3272 -0.1688 -0.3502
58487W        W 1581   1.227   5.830   3.571 -0.1646  0.2727  0.1019
58488W        W 1582   2.786   9.263   2.706 -0.0706 -0.2502 -0.1188
58489W        W 1583   2.560   6.171   6.523  0.2473 -0.1343 -0.1719
58490W        W 1584   0.632   7.639   5.439  0.0484  0.0436 -0.2040
58491W        W 1585   2.949   8.694   4.517 -0.2136  0.1295 -0.0724
58492W        W 1586   3.843   9.521   4.746 -0.0141 -0.0309  0.3423
58493W        W 1587   0.842   6.378   4.224 -0.0396 -0.0955 -0.1523
58494W        W 1588   3.875   9.148   6.368  0.0368  0.0346 -0.1913
58495W        W 1589   0.945   8.826   4.794 -0.1626  0.0324 -0.0599
58496W        W 1590   2.192   8.006   6.317 -0.0150  0.0554  0.2678
58497W        W 1591   1.042   6.424   8.851 -0.2460 -0.2391  0.1710
58498W        W 1592  34.130   7.262   1.979 -0.0216 -0.0311 -0.2376
58499W        W 1593   1.662   9.163   6.770 -0.1666  0.0438  0.0249
58500W        W 1594   2.645  10.462   5.718  0.1295 -0.1036  0.1171
58501W        W 1595   4.293   9.786   4.431 -0.1729 -0.1273  0.2795
58502W        W 1596   0.507   8.648   5.575  0.0719 -0.2590 -0.2739
58503W        W 1597   2.184  10.028   6.741 -0.2032  0.2517  0.3425
58504W        W 1598   1.016   9.218   6.927  0.3086  0.0235 -0.0169
58505W        W 1599   3.403   9.512   6.367 -0.0941  0.3109 -0.1486
58506W        W 1600   0.861   9.036   7.383  0.2793 -0.2679 -0.2706
58507W        W 1601   2.781   8.410   3.529 -0.0885 -0.3326 -0.1343
58508W        W 1602   3.805   6.359   5.040 -0.0177  0.1833  0.1142
58509W        W 1603   2.676   7.292   5.103 -0.0494 -0.4948  0.1245
58510W        W 1604   2.101   7.326   8.682 -0.0781  0.0181 -0.0330
58511W        W 1605   0.120   9.560   9.740 -0.1819  0.1694 -0.1096
58512W        W 1606   4.338   9.133   6.862  0.0319 -0.1218 -0.0713
58513W        W 1607   0.740   6.630   6.634  0.0218 -0.2613 -0.0776
58514W        W 1608   1.406   8.807   5.332  0.3004 -0.1048 -0.0527
58515W        W 1609   2.543   9.174   4.479  0.1877  0.0014  0.1694
58516W        W 1610  34.526   8.726   6.171  0.0488  0.1210  0.0637
58517W        W 1611   2.174   9.651   4.141 -0.1841  0.2745 -0.0378
58518W        W 1612   1.536   8.789   5.818  0.1998 -0.0195 -0.1164
58519W        W 1613   2.372  10.609   6.172 -0.0737  0.1280  0.0169
58520W        W 1614   4.260   9.155   6.053 -0.3790 -0.0913 -0.2663
58521W        W 1615   1.200   8.423   4.455 -0.1847 -0.0859  0.0748
58522W        W 1616   4.670   9.451   3.878 -0.1860 -0.2085  0.0113
58523W        W 1617   3.329  10.740   7.557  0.0774  0.3403  0.1893
58524W        W 1618   3.152   8.563   6.315 -0.0247  0.1592  0.1474
58525W        W 1619  34.431   9.892   5.846  0.1669  0.0603 -0.3328
58526W        W 1620   3.679   7.647   5.263 -0.1956  0.0180 -0.0530
58527W        W 1621   0.539   6.506   5.309  0.1843  0.1261 -0.1888
58528W        W 1622   1.276   9.156   4.965  0.1449 -0.2604  0.0002
58529W        W 1623   1.634   7.576   4.774  0.1174 -0.1356 -0.0453
58530W        W 1624   2.965   7.340   6.609 -0.2497  0.0196 -0.0454
58531W        W 1625   0.713   7.551   7.290 -0.1214  0.0737 -0.1877
58532W        W 1626   2.209   6.962   4.354  0.1265  0.0154 -0.0195
58533W        W 1627   0.736  10.758   5.860  0.1336  0.0222  0.2478
58534W        W 1628   1.323   9.925   6.885  0.2821 -0.2307 -0.0848
58535W        W 1629   2.446   9.097   9.543  0.0544 -0.0529  0.0480
58536W        W 1630   0.573   7.092   9.145  0.2155 -0.0978  0.2031
58537W        W 1631   2.450   7.253   6.881  0.1235  0.1283  0.0223
58538W        W 1632   3.791   8.660   8.109 -0.2130  0.0503  0.0241
58539W        W 1633   0.979   7.080   9.997  0.2935 -0.0670 -0.2111
58540W        W 1634   2.165  10.359   5.765 -0.0635 -0.0841 -0.0205
58541W        W 1635   3.280  10.463   8.684  0.0563 -0.1573  0.4010
58542W        W 1636   2.474  10.244   9.210 -0.1385  0.2909 -0.0359
58543W        W 1637   2.515   9.695   6.421 -0.1378  0.0499  0.0040
58544W        W 1638   1.287  10.061   9.357  0.1021  0.1170  0.4138
58545W        W 1639   1.255   7.230   8.480  0.0037  0.2318 -0.1497
58546W        W 1640   0.124   7.347   9.920  0.1164 -0.3740  0.1587
58547W        W 1641   2.124   9.658   9.811  0.0095  0.1682 -0.1609
58548W        W 1642   1.555  10.024   8.122  0.1113 -0.0028  0.1698
58549W        W 1643   0.170   7.800  10.220 -0.5458  0.2478 -0.1752
58550W        W 1644   0.976   7.232   9.501  0.2059  0.2767 -0.1352
58551W        W 1645   0.724  11.296   8.081  0.0544 -0.1316 -0.0384
58552W        W 1646   0.888   8.953   9.309 -0.1432 -0.2611  0.0496
58553W        W 1647   1.465   9.183   7.456  0.0906  0.0017 -0.2259
58554W        W 1648  34.165   8.926   8.271 -0.0859 -0.1035  0.0473
58555W        W 1649  33.905  10.017  10.149  0.1264  0.3017  0.0163
58556W        W 1650  33.611   8.283  10.074 -0.2496 -0.3991  0.0992
58557W        W 1651   1.438   8.128   8.726 -0.0710 -0.0529  0.0998
58558W        W 1652   2.922   9.000   9.354 -0.0234  0.2118 -0.2373
58559W        W 1653  34.430   9.141   9.994 -0.0203 -0.2713 -0.1619
58560W        W 1654   2.632  10.598   9.912  0.2888 -0.0272 -0.0014
58561W        W 1655   0.038   9.495   8.442  0.2976 -0.0434 -0.0416
58562W        W 1656   0.310  11.706   8.743  0.1537  0.1647  0.1247
58563W        W 1657   2.739  10.802   9.325 -0.0014 -0.2845  0.0180
58564W        W 1658   3.553   8.558   9.188 -0.1335 -0.0425  0.1183
58565W        W 1659   0.031  10.755   7.816  0.1864 -0.1437 -0.1826
58566W        W 1660   2.859   8.017   7.354  0.1364  0.0814 -0.1561
58567W        W 1661   2.507   8.838   8.653  0.0781 -0.0434  0.1111
58568W        W 1662   1.189   9.587   8.079  0.0656 -0.4083  0.0650
58569W        W 1663   2.584   9.339   8.230 -0.0933 -0.1864 -0.1005
58570W        W 1664   0.566  10.111   8.846 -0.4881 -0.1158 -0.0180
58571W        W 1665   0.735  10.290   7.550  0.0566 -0.0280  0.1895
58572W        W 1666   3.354   8.324   7.810 -0.2124  0.0543  0.1522
58573W        W 1667   2.714   7.596   7.597 -0.1667 -0.1273 -0.0305
58574W        W 1668   3.504   8.291   8.319  0.1977 -0.0554 -0.0298
58575W        W 1669   2.239   6.804   8.584  0.2995  0.0983 -0.0085
58576W        W 1670   1.521  10.868   8.826  0.0831 -0.0616 -0.2643
58577W        W 1671   2.567   8.393  10.035 -0.0744  0.0031  0.0381
58578W        W 1672   1.569   9.094   8.931  0.0363 -0.2346  0.2254
58579W        W 1673   4.390   6.225   8.881  0.3042  0.0497  0.0299
58580W        W 1674   2.717   9.216   8.937  0.0713  0.0357 -0.0475
58581W        W 1675   0.226   7.801   9.632 -0.1378 -0.2556 -0.0250
58582W        W 1676   3.203   9.274   7.654 -0.0603 -0.2129 -0.2607
58583W        W 1677   2.907  10.172   7.787 -0.0127 -0.2053 -0.0424
58584W        W 1678   3.628   9.338   9.461 -0.2691 -0.0416  0.1441
58585W        W 1679  34.117   8.181   9.297 -0.0994  0.0516  0.2160
58586W        W 1680   1.583   5.724   7.140 -0.2314  0.2780 -0.1345
58587W        W 1681   3.483   5.990   8.367 -0.0605 -0.0702  0.0449
58588W        W 1682   2.595   9.305  10.147 -0.3691  0.0321 -0.0085
58589W        W 1683   3.507   9.543   8.967 -0.1091 -0.1501 -0.1025
58590W        W 1684   2.674   9.179   6.795  0.0841  0.0434 -0.0918
58591W        W 1685   3.317   6.571   9.182  0.1162  0.0543 -0.3782
58592W        W 1686   2.681   7.831   9.958  0.2499  0.3577  0.0273
58593W        W 1687   1.002   8.122   7.429 -0.4545  0.1133 -0.0307
58594W        W 1688   0.847   9.342   9.029 -0.1135  0.1773 -0.0153
58595W        W 1689   2.469   8.855  10.092  0.0442 -0.0847  0.1157
58596W        W 1690   2.797   9.562   7.789  0.2550  0.1236 -0.0242
58597W        W 1691   0.913   9.701   9.412  0.2532 -0.2857 -0.1364
58598W        W 1692  34.385  10.762   7.475 -0.0324  0.1094 -0.3263
58599W        W 1693  33.231  12.624  10.688 -0.0025 -0.0149  0.0331
58600W        W 1694   0.554   9.775   8.221  0.1823  0.3008 -0.4011
58601W        W 1695  33.716   9.512  10.391 -0.4288 -0.3429  0.0700
58602W        W 1696   1.547   8.621   9.145  0.2161  0.2110  0.0644
58603W        W 1697   2.034   8.776   9.197 -0.0043 -0.1938 -0.1006
58604W        W 1698   4.466   6.523   9.752 -0.1498 -0.0472  0.3722
58605W        W 1699   1.121   9.093   7.832  0.0997  0.0286  0.1439
58606W        W 1700   2.921  10.671   7.840 -0.0078  0.1869  0.2034
58607W        W 1701   2.895   8.027   8.325  0.1754  0.1335  0.0293
58608W        W 1702   2.481  10.353   7.620  0.0304 -0.0777 -0.1443
58609W        W 1703  34.546   8.155   9.546  0.0251 -0.5853 -0.2499
58610W        W 1704   1.419   5.836   9.708  0.1409 -0.0356 -0.1571
58611W        W 1705   0.890   8.944   9.842 -0.1383  0.1490 -0.0438
58612W        W 1706  34.086   7.140   8.880  0.1000  0.3342  0.1681
58613W        W 1707   1.852   7.737   9.310 -0.0177  0.0161 -0.0575
58614W        W 1708   0.697   8.573   8.566 -0.1946 -0.1168 -0.1637
58615W        W 1709  34.255   8.620   8.712 -0.0533  0.0030  0.1489
58616W        W 1710   1.735  10.304   6.682 -0.1188  0.0760  0.2915
58617W        W 1711   4.890  13.436   9.254  0.3077 -0.1525 -0.3289
58618W        W 1712   3.660   9.912   7.105 -0.1096  0.2271 -0.5352
58619W        W 1713  34.630  10.300   9.042 -0.2084 -0.1542 -0.4700
58620W        W 1714   0.700   7.456   8.763  0.1877  0.0449 -0.2860
58621W        W 1715  33.806   9.685   9.542 -0.3067  0.3536 -0.1401
58622W        W 1716   1.953   9.840   9.350  0.0056  0.4861  0.0056
58623W        W 1717   1.363   9.055   9.475 -0.0923  0.0824 -0.4314
58624W        W 1718   3.883  10.018   8.597 -0.4764  0.1476  0.2378
58625W        W 1719   2.934   9.777   6.108 -0.0745  0.2561 -0.1749
58626W        W 1720   2.713   8.222   8.919 -0.0491 -0.1163 -0.1741
58627W        W 1721   3.025   6.860   8.110  0.0096  0.0426  0.0016
58628W        W 1722   0.285   6.428   8.078  0.4919 -0.1783 -0.0996
58629W        W 1723   1.533   9.932   8.910 -0.0375 -0.2857  0.1793
58630W        W 1724   1.476  10.410   8.656 -0.1935  0.0087 -0.2265
58631W        W 1725   1.108   8.881   8.905  0.1558  0.1398  0.4281
58632W        W 1726  34.102  10.887  10.198 -0.3064  0.2512 -0.3623
58633W        W 1727   3.724   6.940   8.842  0.0799  0.1095  0.3285
58634W        W 1728   1.293   7.590   7.979 -0.6005 -0.4108 -0.0719
58635W        W 1729   2.539   7.547   8.547 -0.2805  0.1291 -0.1602
58636W        W 1730   3.915   7.015   7.758 -0.2175  0.1390 -0.0911
58637W        W 1731   3.037   8.653   8.865  0.1235 -0.1131 -0.1204
58638W        W 1732   3.094   8.563   8.284  0.1736  0.1031  0.2618
58639W        W 1733   3.378   7.835   8.006  0.3542  0.2859  0.1358
58640W        W 1734   1.648   9.578   8.369 -0.1156  0.1588 -0.0380
58641W        W 1735   3.284   9.487   9.737 -0.0028 -0.3103 -0.2948
58642W        W 1736   2.903   9.029   8.439 -0.2231 -0.0782 -0.1254
58643W        W 1737   4.279   8.746   8.325  0.0254 -0.1297  0.2017
58644W        W 1738   0.349   8.270  10.346  0.0916 -0.0829 -0.1064
58645W        W 1739   1.957   9.721   8.043 -0.0706 -0.1463  0.3819
58646W        W 1740   2.417   6.762   9.455 -0.2560  0.1034 -0.0520
58647W        W 1741   1.123   8.385   8.993 -0.2092 -0.2142  0.1768
58648W        W 1742   1.171   8.351   6.801  0.1919 -0.2607 -0.1145
58649W        W 1743  34.398  10.329   7.247  0.1988 -0.0539 -0.3389
58650W        W 1744   2.959   7.751   8.817 -0.2685  0.2006  0.0539
58651W        W 1745   1.851   6.199   9.820 -0.1260 -0.1140  0.0824
58652W        W 1746   1.921   8.185   7.661 -0.0617 -0.1063 -0.3650
58653W        W 1747   2.168   8.069   9.808 -0.1373  0.0678  0.3383
58654W        W 1748   0.329   8.199   9.362 -0.1497  0.1134  0.2419
58655W        W 1749   2.355   6.929  10.448 -0.2224  0.0014 -0.3759
58656W        W 1750  34.540   8.720   9.696 -0.2021 -0.2264  0.0629
58657W        W 1751   2.311   9.290   7.749 -0.1332  0.2419  0.1704
58658W        W 1752   0.798   8.139   8.069 -0.0016 -0.1083  0.0402
58659W        W 1753   1.879   8.861   6.409 -0.0399 -0.0476  0.0470
58660W        W 1754   1.929   8.977   7.221 -0.1679 -0.2548 -0.3186
58661W        W 1755  34.383   7.542  10.355 -0.1542  0.3720  0.0631
58662W        W 1756   0.456   9.440  10.111 -0.2978 -0.0715  0.1838
58663W        W 1757   2.074   9.404   6.709  0.1001  0.1477 -0.2010
58664W        W 1758   3.386   8.914   9.572  0.0615  0.1806 -0.0485
58665W        W 1759   1.966   9.705   7.079  0.3543  0.1198 -0.1995
58666W        W 1760   2.240   6.551   9.887 -0.3205  0.3845  0.0383
58667W        W 1761  34.676   9.880   9.326  0.1945  0.1438  0.0333
58668W        W 1762   0.855   8.029   9.336 -0.0356 -0.3643 -0.0093
58669W        W 1763  34.617   8.490   8.390 -0.1341  0.0420 -0.0157
58670W        W 1764   3.003   7.192   9.211 -0.0393  0.0852 -0.0300
58671W        W 1765   2.310   9.282   7.252  0.1874 -0.0169  0.2257
58672W        W 1766   1.326   8.748  10.019 -0.0110  0.0106 -0.4053
58673W        W 1767   1.225   6.522  10.204 -0.0774  0.0279 -0.0525
58674W        W 1768  34.066   9.788   7.265 -0.1524 -0.1294 -0.1104
58675W        W 1769   4.077   7.753   8.612 -0.1637 -0.2005  0.2796
58676W        W 1770  34.534   6.528  10.562 -0.3086 -0.0188  0.1332
58677W        W 1771   2.529   8.753   9.120  0.3914  0.0015 -0.4128
58678W        W 1772   1.806   8.168   9.021  0.4101  0.1621  0.0091
58679W        W 1773   0.142   9.750   8.838  0.1940 -0.0543 -0.3038
58680W        W 1774   4.036   9.570   9.602 -0.0028  0.1703 -0.1818
58681W        W 1775   2.057   8.415   8.125  0.2146 -0.1444  0.0567
58682W        W 1776   0.509   9.035   8.590 -0.1791  0.2989  0.0154
58683W        W 1777   2.835   7.747   9.412 -0.0496 -0.1337  0.0497
58684W        W 1778   0.005   9.566  10.293  0.1941 -0.0611 -0.2991
58685W        W 1779   0.103   6.725   9.777  0.1108  0.2002 -0.1350
58686W        W 1780   1.682   7.470   8.322 -0.2467 -0.2311 -0.2096
58687W        W 1781   2.429  10.137   9.709 -0.0196 -0.2011  0.0407
58688W        W 1782   2.333   8.101   8.537 -0.0610  0.0481 -0.1107
58689W        W 1783   1.520   8.324   9.829  0.2839 -0.0295 -0.0014
58690W        W 1784   4.169   8.545   7.042  0.2972 -0.0985  0.2034
58691W        W 1785   1.449   9.769   7.579  0.3150 -0.3153  0.1735
58692W        W 1786   0.509   8.922   9.065 -0.4024 -0.1527 -0.0417
58693W        W 1787   0.683   9.653   8.685  0.1185 -0.4725  0.1475
58694W        W 1788   1.845   8.241   9.510 -0.2984  0.0799  0.1092
58695W        W 1789  33.962   9.063  10.324 -0.1266 -0.2475  0.0498
58696W        W 1790   0.904   8.092   8.546 -0.1640  0.1730  0.0626
58697W        W 1791   1.527  10.282   9.752  0.1824 -0.1494 -0.3499
58698W        W 1792   4.122   7.417   7.581 -0.0717 -0.0527 -0.1642
58699W        W 1793   1.476  10.204   5.790  0.0370 -0.2059 -0.2498
58700W        W 1794   0.346   7.208   8.513 -0.0420  0.1301  0.1776
58701W        W 1795   1.193   8.860   6.616  0.0724 -0.0429  0.3220
58702W        W 1796  34.435   7.669   9.565  0.3410  0.2888 -0.1835
58703W        W 1797   4.135   9.458   7.594  0.0186  0.2809 -0.2341
58704W        W 1798   2.204   7.809   8.951 -0.3183  0.2514 -0.0106
58705W        W 1799   0.862   6.959   8.692  0.4267 -0.0546 -0.0499
58706W        W 1800   1.202   8.569   9.511  0.3338  0.1209 -0.0885
58707W        W 1801   5.038   9.238   8.990  0.1307 -0.0086 -0.0189
58708W        W 1802   1.421   9.597   9.311 -0.4459  0.0422  0.1209
58709W        W 1803   2.908   7.253   8.711 -0.3206  0.1233  0.0522
58710W        W 1804  34.303   9.730   9.634  0.0013 -0.0754 -0.0815
58711W        W 1805   3.976   9.122   8.379 -0.2721 -0.0637  0.0131
58712W        W 1806   1.206   8.668   7.143  0.3344 -0.2022 -0.4339
58713W        W 1807   2.059   9.072   9.970 -0.5153 -0.2754 -0.2447
58714W        W 1808   3.696   9.769   9.905 -0.0478 -0.0503  0.0018
58715W        W 1809   2.579   7.474   9.082 -0.1152  0.2698  0.4085
58716W        W 1810   4.969   9.119   9.984  0.0387  0.1744  0.1733
58717W        W 1811   4.310   7.168   7.163  0.3728  0.1648  0.0762
58718W        W 1812   5.983   4.637   8.986  0.0406 -0.1934 -0.1311
58719W        W 1813   4.015   7.248   8.568 -0.0812  0.1599 -0.0093
58720W        W 1814   2.440   8.213   7.575 -0.1722  0.3345 -0.0587
58721W        W 1815  34.556   8.160  10.111 -0.1518 -0.1803  0.0165
58722W        W 1816   0.904   6.712   9.295 -0.0998 -0.0369 -0.0452
58723W        W 1817   2.548   9.663   6.904 -0.2149 -0.0379 -0.2154
58724W        W 1818   2.445   9.600   9.244  0.1327  0.0515 -0.0438
58725W        W 1819   3.198   7.375   7.882 -0.0724 -0.2407 -0.0198
58726W        W 1820  34.553   8.400   9.034 -0.2302  0.2531 -0.0332
58727W        W 1821  34.266   8.095   8.835 -0.1246 -0.0426 -0.0947
58728W        W 1822   2.218   9.143   8.891 -0.0512  0.0592 -0.0238
58729W        W 1823   3.167   8.403   9.450 -0.1615 -0.2402 -0.1665
58730W        W 1824   2.534   7.090   7.842  0.0711  0.1395 -0.1570
58731W        W 1825   2.148   9.415   8.444  0.2524 -0.0033  0.0611
58732W        W 1826   2.693   8.236   9.568 -0.0995  0.0093 -0.0064
58733W        W 1827   1.026   9.605  10.320 -0.1162 -0.2028 -0.0995
58734W        W 1828   1.520  10.461   9.227 -0.0372 -0.0783  0.0808
58735W        W 1829   2.110   7.270   9.463  0.1719 -0.0494  0.0215
58736W        W 1830   3.217   9.103   8.935 -0.2891 -0.0379 -0.0907
58737W        W 1831   1.520   8.623   8.635  0.1820 -0.0806 -0.0109
58738W        W 1832   1.881   9.514   9.009  0.0849 -0.1927 -0.0119
58739W        W 1833   3.655  10.405   7.827  0.1359  0.1003  0.0184
58740W        W 1834   1.237   8.983   8.281 -0.0780  0.1988 -0.1234
58741W        W 1835   2.468   8.037   8.044 -0.0228  0.2687  0.0395
58742W        W 1836   2.454   6.998   9.010  0.0615 -0.0280  0.0073
58743W        W 1837   2.069  10.223   8.077  0.0873  0.0821 -0.0265
58744W        W 1838   0.634  10.837  10.314 -0.0600 -0.3030  0.0436
58745W        W 1839   1.474  10.763   8.034 -0.2453  0.4197 -0.2189
58746W        W 1840   3.718   9.372   7.981 -0.1826  0.1370  0.3726
58747W        W 1841   2.102   9.582   6.200  0.0367 -0.0627  0.1427
58748W        W 1842   2.005  10.326   9.461  0.0911  0.1376 -0.4232
58749W        W 1843   2.160   7.505   8.149  0.0203 -0.0884  0.1475
58750W        W 1844   1.052  10.008   9.810 -0.1374 -0.1107  0.0131
58751W        W 1845  34.683   8.899   9.108  0.0660  0.1198 -0.2705
58752W        W 1846   4.518  10.006   6.886 -0.0196 -0.0742 -0.3400
58753W        W 1847   0.236  11.170   8.750  0.3042  0.3171  0.1427
58754W        W 1848   2.046   6.903   7.069 -0.1774 -0.1608  0.0585
58755W        W 1849   4.469   8.352   8.577  0.2163 -0.0596  0.1812
58756W        W 1850   3.476   7.056   7.513 -0.1543 -0.2923  0.1639
58757W        W 1851   4.031   8.652  10.180 -0.1025  0.0376  0.1372
58758W        W 1852   1.298   7.685   7.473  0.1040  0.4534  0.2746
58759W        W 1853   3.336  10.044   8.309 -0.0091 -0.1888 -0.0235
58760W        W 1854   0.373   6.638   9.311 -0.1563  0.1979 -0.2701
58761W        W 1855   2.743   9.469   9.689  0.2335 -0.1180 -0.3059
58762W        W 1856   5.211   8.309   9.401 -0.2044  0.1842 -0.5078
58763W        W 1857   1.653   9.220   8.011 -0.0482 -0.1178  0.0470
58764W        W 1858   1.342   7.995   9.277 -0.2877  0.0129 -0.0226
58765W        W 1859   0.207  11.027   8.266 -0.3475 -0.0901  0.0028
58766W        W 1860   1.230   9.479   8.719  0.1844  0.1255  0.0066
58767W        W 1861   3.102   9.497   9.227 -0.0083 -0.2054  0.0659
58768W        W 1862  34.542   7.166   8.657  0.3266  0.0287 -0.2007
58769W        W 1863   3.368   6.881   8.476  0.0842 -0.1298  0.0475
58770W        W 1864   1.340   7.514   9.364  0.0830 -0.1529 -0.1579
58771W        W 1865   1.197   7.157   9.046 -0.2420 -0.1601 -0.0015
58772W        W 1866   4.414   7.993   8.975 -0.1557  0.1328 -0.1397
58773W        W 1867   2.374   9.898   8.405 -0.1807  0.1124  0.2426
58774W        W 1868   1.408   8.097  10.251  0.1539  0.0147 -0.3572
58775W        W 1869   0.541   9.252   9.582  0.0597 -0.0643 -0.2294
58776W        W 1870   2.991   7.649   6.166 -0.1621  0.0055 -0.0662
58777W        W 1871   1.833   7.841  10.243  0.0448 -0.1654 -0.4185
58778W        W 1872   2.235   7.309   7.303 -0.0995 -0.1312 -0.1791
58779W        W 1873   1.393   8.134   7.807  0.2253 -0.1763  0.0083
58780W        W 1874  34.457   9.133   9.483 -0.1615 -0.1126 -0.0027
58781W        W 1875   1.669   6.910   9.994  0.1584  0.0576  0.0047
58782W        W 1876   3.176   8.694   6.929 -0.1062 -0.1023  0.0602
58783W        W 1877   4.527   8.461   9.951  0.2668  0.1005 -0.2874
58784W        W 1878   1.449   9.502   7.056  0.0857  0.0367 -0.2918
58785W        W 1879   1.631   8.236   8.289  0.0450  0.0640  0.1688
58786W        W 1880   2.715  10.192   8.724 -0.1249 -0.1397 -0.1397
58787W        W 1881   0.647   8.044   9.826  0.1933  0.2410 -0.0104
58788W        W 1882   1.794  10.567   8.359 -0.1448  0.2302  0.0948
58789W        W 1883   4.046   9.456   9.080  0.1105  0.3585  0.1446
58790W        W 1884   2.314   6.674   8.050  0.0116  0.3879 -0.1827
58791W        W 1885  34.226   9.513  10.545 -0.0904  0.0419 -0.2499
58792W        W 1886   1.572   9.637   9.756  0.2411  0.1355 -0.0238
58793W        W 1887   2.795   8.716   9.718  0.0854 -0.2935 -0.0723
58794W        W 1888   0.890   9.920   7.805  0.0215  0.2383 -0.0731
58795W        W 1889   1.957   9.294   9.453  0.2071  0.2036  0.1675
58796W        W 1890   0.830   7.092   8.191  0.2308 -0.0220  0.2743
58797W        W 1891   1.497   8.726   7.941 -0.0602  0.2636 -0.2096
58798W        W 1892   0.705  10.114  10.157  0.1872 -0.1573  0.0934
58799W        W 1893   2.914  10.325   8.282 -0.1203  0.1260 -0.1746
58800W        W 1894   2.658   7.555   8.081  0.1980  0.0678 -0.1519
58801W        W 1895   2.512   8.517   8.252 -0.2223 -0.3065 -0.2453
58802W        W 1896   0.602   7.512   9.722  0.0798 -0.0132 -0.0145
58803W        W 1897   4.442   7.031   8.040  0.1684  0.1360  0.0943
58804W        W 1898   2.672   6.632   8.398  0.0081 -0.2246 -0.0152
58805W        W 1899   3.582   8.086   9.345  0.1464  0.0212  0.0588
58806W        W 1900  34.480   7.768   7.787 -0.2417  0.1375 -0.1293
58807W        W 1901   1.841   9.046   8.502  0.0508  0.0640  0.1392
58808W        W 1902  34.658   8.932   8.542 -0.2894  0.0552 -0.0320
58809W        W 1903   0.604   7.587   9.254  0.1877  0.1315  0.0782
58810W        W 1904   3.123   9.391   8.126 -0.0858  0.1911  0.0094
58811W        W 1905  34.560   5.193   9.524 -0.0362 -0.2801  0.0624
58812W        W 1906   0.532   7.033   9.742 -0.0112 -0.3913 -0.0472
58813W        W 1907   2.443   8.774   7.602  0.2890 -0.0960 -0.2542
58814W        W 1908   2.973   9.251   7.158  0.3632 -0.0646  0.0157
58815W        W 1909   2.303   7.087   9.953 -0.0204 -0.1053  0.0157
58816W        W 1910   0.012   8.940   6.931 -0.3553 -0.1622 -0.0007
58817W        W 1911   0.230   7.521   8.858  0.0943  0.2753 -0.0888
58818W        W 1912   1.093   7.899   9.731 -0.2364 -0.1216 -0.0134
58819W        W 1913   1.023  10.653   7.254 -0.1372 -0.1075 -0.1123
58820W        W 1914   2.454   9.946   7.913  0.0667  0.0567  0.1641
58821W        W 1915   0.336  10.847   9.709 -0.1474  0.1574  0.0683
58822W        W 1916   3.813   9.049   6.985  0.0734  0.2252 -0.3060
58823W        W 1917   4.185   8.940   7.414 -0.1368  0.0174 -0.0678
58824W        W 1918   4.112   7.211   9.064  0.1011  0.2021  0.1648
58825W        W 1919   2.740   8.577   7.218 -0.0129  0.0527 -0.0199
58826W        W 1920   4.721   8.672   9.452  0.3759  0.1037 -0.1863
58827W        W 1921   0.578   5.311  10.061 -0.2807 -0.0707 -0.4310
58828W        W 1922   3.834   8.083   7.955  0.0559  0.1226  0.2137
58829W        W 1923   2.114   9.937   7.529 -0.0695 -0.2114 -0.0134
58830W        W 1924  34.660  11.448   9.104 -0.2161 -0.2160 -0.0514
58831W        W 1925   2.236   8.990   8.145  0.1468  0.0537 -0.0413
58832W        W 1926   3.270   8.161   8.926  0.2183 -0.0826 -0.2485
58833W        W 1927   0.607   7.958   8.948  0.1776  0.0346 -0.0719
58834W        W 1928   3.958   8.195   8.971 -0.1481  0.1386  0.2796
58835W        W 1929   2.077  12.097   9.620  0.1750 -0.0958  0.0216
58836W        W 1930   0.697  10.440   9.809  0.2715  0.0615 -0.0967
58837W        W 1931   2.471   9.573   8.764 -0.0197 -0.0510  0.1002
58838W        W 1932  33.220   5.492   9.726  0.2150 -0.2020 -0.0184
58839W        W 1933   1.125   7.660   8.952 -0.0340  0.0006 -0.0132
58840W        W 1934   1.911   9.994   8.515 -0.0521  0.4086  0.0954
58841W        W 1935   1.993   8.461  10.110  0.1145 -0.0237 -0.1256
58842W        W 1936   0.751   7.980  10.282 -0.2226  0.0096 -0.0226
58843W        W 1937   3.054   7.161   7.096 -0.1401  0.1337 -0.1242
58844W        W 1938   0.925   9.430   9.837 -0.1592  0.1118  0.1801
58845W        W 1939   0.812   9.112  10.358  0.2614 -0.1750 -0.0291
58846W        W 1940   0.409  13.661   2.894  0.0358 -0.0744 -0.4604
58847W        W 1941   0.152  12.830   1.123  0.1474  0.0348 -0.1550
58848W        W 1942   3.744  11.389   0.334  0.2158  0.5238 -0.0429
58849W        W 1943   3.375  13.579   1.134  0.3107 -0.1779  0.0847
58850W        W 1944  34.561  12.420   1.111  0.1584  0.0022 -0.2265
58851W        W 1945   2.878  15.840   0.864 -0.2231  0.1711  0.5089
58852W        W 1946   0.431  10.335   4.099 -0.1387  0.1978 -0.0122
58853W        W 1947   2.467  13.311   1.962 -0.1068  0.1547 -0.3921
58854W        W 1948   2.736  14.423   3.599  0.0280 -0.2408  0.0013
58855W        W 1949   2.423  13.504  31.606  0.0373 -0.1418  0.0677
58856W        W 1950   0.553  10.802   1.956 -0.5002 -0.0694 -0.2353
58857W        W 1951   2.369  14.952   2.975  0.1858 -0.0839 -0.0931
58858W        W 1952   1.369  10.418  30.893 -0.0930 -0.4524  0.0790
58859W        W 1953   1.093   9.787   2.537 -0.0436 -0.3968  0.1697
58860W        W 1954   1.583  11.131   2.906 -0.1144  0.1031 -0.1490
58861W        W 1955  34.094  15.163   0.226  0.1221  0.1648 -0.0183
58862W        W 1956   0.569  10.320   1.782  0.1559  0.1367  0.0042
58863W        W 1957   2.448  12.230   0.985 -0.0874 -0.0346  0.0013
58864W        W 1958   2.774  15.077   1.732  0.3243 -0.4673  0.0567
58865W        W 1959   1.022  11.990   2.934 -0.0394  0.3228 -0.1136
58866W        W 1960   2.736  10.286   3.243 -0.0972 -0.1160  0.1020
58867W        W 1961   1.663  14.636   0.555  0.1377 -0.0405  0.1363
58868W        W 1962   0.988  13.164  31.577 -0.0170  0.0941  0.2184
58869W        W 1963  34.063  12.117   0.928 -0.2550 -0.0194 -0.0581
58870W        W 1964   1.199  10.384   2.594  0.0324 -0.0873 -0.0843
58871W        W 1965   3.069  10.693   2.626 -0.1359  0.2808  0.2614
58872W        W 1966   3.284  12.626   1.269 -0.2343  0.0397  0.1319
58873W        W 1967   2.503  14.678   1.636 -0.2435  0.1042  0.0272
58874W        W 1968   2.527  13.582   2.435 -0.0490  0.3126  0.0532
58875W        W 1969   2.614  12.308   2.487 -0.2240  0.1357 -0.0513
58876W        W 1970   1.399  13.723   1.238  0.1660  0.1491 -0.1471
58877W        W 1971  34.630  14.142   1.239 -0.2014  0.1545 -0.1024
58878W        W 1972   1.369  13.898   0.398  0.2005 -0.2507  0.2257
58879W        W 1973   3.739  13.752   1.447 -0.2032 -0.0489 -0.1932
58880W        W 1974   1.909  14.216   0.725 -0.0747 -0.0880 -0.0854
58881W        W 1975   1.230  13.488   4.230 -0.0774 -0.0565  0.1532
58882W        W 1976  33.856  13.389   0.379  0.1329 -0.2133  0.2392
58883W        W 1977   1.439  14.927   3.068 -0.1759 -0.1711 -0.2895
58884W        W 1978   0.517  12.707   1.916 -0.2408 -0.2270  0.3475
58885W        W 1979   2.647  12.723   2.727  0.2923  0.1777 -0.1425
58886W        W 1980   0.332  12.412   0.108  0.1516 -0.0377 -0.2144
58887W        W 1981   1.877  13.248   0.238 -0.0817 -0.1419 -0.1430
58888W        W 1982   2.514  12.935   2.328 -0.3072 -0.1513  0.1901
58889W        W 1983   1.141  14.367   3.762  0.2636 -0.2379  0.4259
58890W        W 1984  33.786  12.511   3.056  0.2616 -0.1249  0.0258
58891W        W 1985   4.184  12.549   3.397 -0.1238 -0.3413  0.1409
58892W        W 1986   1.613  15.143  31.171  0.1573  0.1450  0.0606
58893W        W 1987   2.575  12.745   0.526 -0.2139 -0.1343  0.2117
58894W        W 1988   0.203  12.436   0.694  0.0976 -0.0047  0.4976
58895W        W 1989   2.870  11.885   0.233  0.0445  0.2536  0.2768
58896W        W 1990   0.570  11.000   0.983 -0.1222  0.1153 -0.0844
58897W        W 1991   1.137  15.588   1.455 -0.0792  0.0666 -0.0240
58898W        W 1992   1.368  11.978   1.349  0.3801  0.1037  0.2509
58899W        W 1993   2.296  14.942   4.393  0.4119 -0.3781 -0.1786
58900W        W 1994   0.508  13.795   0.633 -0.1682  0.1352 -0.1119
58901W        W 1995   1.068  12.036   1.774  0.1134 -0.0034  0.0266
58902W        W 1996  33.973  13.593   2.997 -0.1433  0.1976 -0.2032
58903W        W 1997   0.078  11.468   2.381  0.1222  0.0249 -0.0392
58904W        W 1998   3.052  13.643  31.874 -0.1800  0.0191 -0.0731
58905W        W 1999   2.350  14.488   0.638 -0.1305 -0.4705  0.2330
58906W        W 2000   1.798  15.489  31.755 -0.1071 -0.0117  0.3610
58907W        W 2001   0.989  12.563   1.853  0.0865 -0.0494  0.0647
58908W        W 2002  34.043  12.990   4.797 -0.1234  0.0127 -0.0239
58909W        W 2003   1.265  12.238   2.513 -0.0255 -0.0290 -0.1450
58910W        W 2004   1.105  10.776  30.421  0.0359  0.0076 -0.2152
58911W        W 2005   2.479  13.074   3.385  0.1563  0.1522  0.1320
58912W        W 2006   0.294  13.529   4.353  0.0613  0.0103  0.1485
58913W        W 2007   2.247  11.018   0.366  0.1370  0.0565 -0.2665
58914W        W 2008   0.831  12.869   3.154  0.1821  0.0858  0.1012
58915W        W 2009   2.036  13.166   1.352 -0.0006 -0.2005  0.0773
58916W        W 2010   2.431  11.883   2.303  0.1219 -0.2098  0.6328
58917W        W 2011   2.372  10.149   2.223  0.0142  0.2229 -0.1074
58918W        W 2012   2.293   9.134   1.523 -0.1598 -0.1229  0.0247
58919W        W 2013   0.813  12.853   0.037  0.4023 -0.1429 -0.0657
58920W        W 2014   0.762  13.145   0.997 -0.1561  0.0967  0.0118
58921W        W 2015   3.758  13.895   2.577 -0.0038 -0.3551  0.0859
58922W        W 2016   1.758  12.845   1.075  0.1201  0.0294 -0.2106
58923W        W 2017   2.773  14.090   2.314  0.0711  0.0890 -0.2875
58924W        W 2018   1.456  12.613   2.058 -0.0014 -0.1481  0.3765
58925W        W 2019   0.795  13.758   4.290 -0.3563  0.1725 -0.1723
58926W        W 2020  33.378  14.062  31.890  0.0242  0.0105 -0.0221
58927W        W 2021  34.115  12.851   3.400 -0.1654  0.0390  0.1891
58928W        W 2022  34.357  13.022   1.285  0.0173 -0.0062  0.2959
58929W        W 2023   0.132  10.527   2.109  0.2788  0.0427  0.1486
58930W        W 2024   0.091  13.150   4.102 -0.1487 -0.2492 -0.1113
58931W        W 2025   1.793  11.404   1.594  0.0494 -0.0804  0.1043
58932W        W 2026   0.754  11.430   3.462  0.1603 -0.1263 -0.3342
58933W        W 2027   5.739   8.917   1.134 -0.1635 -0.2434  0.0514
58934W        W 2028   1.423  13.738   1.724  0.1514  0.2568 -0.4372
58935W        W 2029   2.172  15.620   0.108  0.1605 -0.0130 -0.0267
58936W        W 2030   3.784  13.279   1.506  0.0834 -0.3013 -0.2378
58937W        W 2031   2.409  14.616   1.091  0.2880 -0.0262 -0.2286
58938W        W 2032   1.000  11.842   2.447  0.2071  0.2530 -0.0810
58939W        W 2033  34.412  11.632   2.023  0.2586  0.0125 -0.3386
58940W        W 2034   0.087  12.359   3.141  0.4062 -0.0250 -0.1090
58941W        W 2035   0.136  11.929   3.349  0.0538 -0.1640 -0.1441
58942W        W 2036   3.100  11.413   1.817  0.2152  0.1380 -0.2264
58943W        W 2037   0.745  11.379  31.629 -0.1072 -0.0456 -0.1333
58944W        W 2038   2.062  12.041   1.346  0.0402 -0.1009  0.1169
58945W        W 2039   1.599  12.912   1.602  0.2239 -0.0433 -0.0267
58946W        W 2040   1.446  14.187   0.850 -0.0753 -0.0787  0.2282
58947W        W 2041   3.193  11.303   4.055 -0.3542 -0.1078  0.0800
58948W        W 2042   2.864  15.354  31.638 -0.1030 -0.2870 -0.0310
58949W        W 2043   3.699  13.366   3.844 -0.2123 -0.0743  0.1707
58950W        W 2044   3.269  14.028   2.351  0.2691  0.1805 -0.3780
58951W        W 2045   2.116  11.375   4.017 -0.1352 -0.0446 -0.1391
58952W        W 2046  34.545  11.905   1.114 -0.3085 -0.1652  0.1150
58953W        W 2047   1.067  14.075   1.917 -0.0749 -0.0085 -0.0994
58954W        W 2048   2.186  12.695   1.264  0.2686 -0.0104 -0.0907
58955W        W 2049   0.383  12.854   0.357  0.0987 -0.0900  0.2150
58956W        W 2050   4.061  14.088   1.738 -0.3313  0.6059  0.2462
58957W        W 2051   0.827  12.998   0.544  0.1252  0.0006  0.1782
58958W        W 2052   0.447  14.177   3.128  0.1700  0.4000 -0.1017
58959W        W 2053   3.482  10.490   4.540  0.0550  0.0763 -0.1594
58960W        W 2054   4.049  12.471   2.882  0.0463 -0.1210  0.0106
58961W        W 2055   1.861  12.528   1.813  0.0946  0.0357 -0.1341
58962W        W 2056   0.957  11.053   0.610  0.4478 -0.1521  0.2773
58963W        W 2057   1.689  15.605   0.345 -0.2506 -0.1780  0.1121
58964W        W 2058  34.458  13.119  31.742  0.2348  0.0042 -0.0191
58965W        W 2059   0.923  13.071   2.035 -0.1108 -0.0253 -0.0815
58966W        W 2060   2.511  13.886   0.524  0.0546  0.0737  0.1975
58967W        W 2061   3.369  11.529   1.220 -0.2854  0.0403 -0.3848
58968W        W 2062   1.017  11.998   3.439 -0.2728  0.1276 -0.0365
58969W        W 2063   2.226  12.802   3.024 -0.2595  0.2121  0.1090
58970W        W 2064  34.408  11.604   0.149 -0.1861  0.0551  0.2633
58971W        W 2065  34.620  14.429   4.025 -0.0740 -0.1393  0.1643
58972W        W 2066   2.042  10.420   2.034  0.1876  0.1865  0.1303
58973W        W 2067   3.037  12.610   0.563  0.0277 -0.0899 -0.0644
58974W        W 2068   1.183  13.979   2.425  0.3822 -0.1080 -0.1791
58975W        W 2069   2.143  14.808   0.331  0.0840 -0.0263 -0.0972
58976W        W 2070   2.916  12.076   0.735  0.2918  0.1290  0.0658
58977W        W 2071   3.541  11.756  31.673  0.0218  0.2086 -0.0031
58978W        W 2072   1.040  12.634   4.566 -0.0890 -0.3037 -0.2504
58979W        W 2073   2.013  14.825   0.907 -0.2978  0.1030 -0.4255
58980W        W 2074   3.819  13.209   2.843  0.0046 -0.0199  0.1896
58981W        W 2075   1.183  12.784   0.855  0.1456 -0.0281  0.0954
58982W        W 2076   3.703  14.345   0.910 -0.2278 -0.1686  0.0949
58983W        W 2077   0.529  13.837   3.506  0.2363 -0.1572 -0.1739
58984W        W 2078   1.401  13.960   3.524 -0.2557 -0.2436 -0.2014
58985W        W 2079   2.322  14.211   1.517 -0.0815  0.1731  0.2183
58986W        W 2080   1.651  10.481   2.353  0.1238  0.2496 -0.0160
58987W        W 2081   2.312  13.316   0.489  0.2455  0.0132 -0.0675
58988W        W 2082   1.798  10.843   1.991 -0.0084 -0.0233 -0.3030
58989W        W 2083  33.533  14.731   1.377  0.0190 -0.1188 -0.0431
58990W        W 2084   2.484  11.304   1.448  0.3354 -0.2587 -0.0748
58991W        W 2085   1.565  10.486   1.203  0.0798  0.0590 -0.2180
58992W        W 2086   1.906  10.716   3.188 -0.0069 -0.1071  0.0623
58993W        W 2087   5.176  12.214   3.461  0.0748 -0.1407 -0.0257
58994W        W 2088   2.313  13.557   0.065 -0.1155 -0.1183  0.0124
58995W        W 2089   1.233  12.450   3.398 -0.0180 -0.1081  0.1319
58996W        W 2090  34.547  12.704  30.829 -0.0912  0.3624 -0.1981
58997W        W 2091   0.704  10.610   2.972  0.1467  0.0554 -0.0836
58998W        W 2092   0.479  13.277   3.361 -0.0793 -0.1281 -0.0523
58999W        W 2093  34.274  12.434   3.112 -0.0952  0.0892 -0.1177
59000W        W 2094   2.850  13.760   4.652 -0.2657 -0.0175 -0.1310
59001W        W 2095   1.996  13.808   0.408 -0.1394  0.1478 -0.0836
59002W        W 2096   2.551  11.325   3.783  0.1455 -0.2951  0.3695
59003W        W 2097   0.973  11.373   0.083  0.0303 -0.0618 -0.1556
59004W        W 2098   0.125  15.218   0.601  0.0799  0.1163  0.2205
59005W        W 2099  34.611  14.212  31.958  0.0859 -0.0968  0.3123
59006W        W 2100   1.970  11.952   0.866  0.1536  0.0958  0.0918
59007W        W 2101   2.079  13.926   2.174 -0.3056 -0.0315  0.0809
59008W        W 2102   0.155  13.301  31.491  0.1517  0.1562  0.0766
59009W        W 2103   2.925  10.736   3.149 -0.0257  0.3131  0.1184
59010W        W 2104   1.788  14.969   1.388  0.2324  0.0547 -0.1284
59011W        W 2105   4.176  10.665   3.759 -0.1026  0.2665  0.1988
59012W        W 2106   0.039  13.374   3.085 -0.0766 -0.1347 -0.0506
59013W        W 2107  34.312  13.231   0.540 -0.0343  0.0634 -0.0454
59014W        W 2108   0.505  14.070   1.071  0.0184 -0.2906 -0.0758
59015W        W 2109   2.392  10.051   2.848  0.1235 -0.2475 -0.0773
59016W        W 2110   3.015  13.669   2.029  0.1701 -0.0522  0.2006
59017W        W 2111   2.403  10.656   3.044 -0.1851 -0.0523  0.0369
59018W        W 2112   1.157  10.779   2.152 -0.1752 -0.1891  0.1259
59019W        W 2113  34.034  13.376   1.418  0.1977 -0.1606  0.2874
59020W        W 2114   2.969  14.004   3.749 -0.0086  0.5146 -0.0744
59021W        W 2115   0.512  12.062   1.691 -0.0853  0.1195 -0.1150
59022W        W 2116   2.958  13.326   4.256 -0.0680  0.1943 -0.1950
59023W        W 2117   2.095  12.622   3.416  0.0268  0.1063  0.2787
59024W        W 2118  34.684  10.504   0.222  0.2456  0.2962 -0.0187
59025W        W 2119   1.733  12.016   1.760 -0.0290 -0.2341 -0.0238
59026W        W 2120   0.294  11.682   1.375 -0.1354 -0.1431 -0.0509
59027W        W 2121   0.764  14.289   1.525  0.2945 -0.0049  0.1454
59028W        W 2122   2.286  14.386   2.070  0.1163 -0.0982 -0.0321
59029W        W 2123   0.176  13.001   1.608 -0.0634 -0.1125 -0.0544
59030W        W 2124   0.956  14.323   1.015  0.0207 -0.1478  0.1562
59031W        W 2125   0.646  11.857   2.133 -0.0121 -0.0523 -0.0528
59032W        W 2126   4.486  12.718   3.945 -0.0517 -0.0066 -0.1457
59033W        W 2127   2.032  10.858   0.772 -0.1923 -0.1509  0.1755
59034W        W 2128   0.564  11.437   0.609 -0.1652  0.2222  0.0879
59035W        W 2129   1.329  13.221   0.944  0.0345 -0.1812 -0.3206
59036W        W 2130   2.065  13.431   3.085  0.0685  0.1346 -0.0406
59037W        W 2131   2.544  12.635   3.779  0.0481 -0.0226 -0.1549
59038W        W 2132   0.673  12.758   4.199 -0.0962  0.2061 -0.0995
59039W        W 2133   2.152  11.560   1.206 -0.1428 -0.0744 -0.3435
59040W        W 2134   3.490  15.721  31.604 -0.5465  0.0343  0.3564
59041W        W 2135   2.555  13.194   3.932 -0.1461  0.0004  0.0489
59042W        W 2136  34.473  14.090   0.744 -0.1586 -0.1819 -0.1926
59043W        W 2137   1.077  12.772   2.468 -0.0777  0.1968 -0.2876
59044W        W 2138  34.284  14.486   1.016 -0.0307  0.0576 -0.2296
59045W        W 2139   2.615  10.954   2.699 -0.0422  0.2733  0.3466
59046W        W 2140   1.160  13.430   2.571  0.1781 -0.2896  0.1275
59047W        W 2141  34.114  14.256   0.421 -0.4364 -0.0935 -0.2793
59048W        W 2142  34.618  12.819   3.003 -0.2492 -0.4261  0.4333
59049W        W 2143   1.557  11.144  31.444  0.3945 -0.1165  0.1380
59050W        W 2144   1.628  15.390  30.771 -0.0558  0.0839  0.0160
59051W        W 2145   2.211  12.143   1.921  0.0770 -0.1815 -0.0605
59052W        W 2146   2.872  11.818   2.672  0.2180  0.0569 -0.1052
59053W        W 2147   2.869  12.183   1.987 -0.2114 -0.0758 -0.3295
59054W        W 2148   3.234   9.887   4.184  0.1146 -0.3146  0.2872
59055W        W 2149   1.494  10.450   1.797 -0.0831  0.0126  0.0005
59056W        W 2150   2.833  13.955   1.419  0.2976  0.0632 -0.2952
59057W        W 2151   0.922  11.520   2.939 -0.3203  0.1334 -0.2458
59058W        W 2152   0.745  14.164   3.923  0.1189  0.2782 -0.0859
59059W        W 2153   0.848  13.335   2.971  0.4641  0.1365  0.0464
59060W        W 2154   1.742  11.193   0.359  0.1110  0.0757 -0.3643
59061W        W 2155  34.603  12.790   0.129 -0.0874 -0.1430 -0.0936
59062W        W 2156   0.531  12.784   2.464 -0.0083 -0.2071  0.0430
59063W        W 2157   2.589  13.052   1.302  0.0895  0.0597 -0.0873
59064W        W 2158   0.805  14.200   0.288  0.2667  0.0973  0.1351
59065W        W 2159   2.510  10.826   1.163  0.0844 -0.1247  0.1697
59066W        W 2160   0.681  13.333   2.400 -0.1309  0.2038  0.0739
59067W        W 2161   0.855  13.643   1.120 -0.2779 -0.1447  0.2172
59068W        W 2162   1.937  13.485   1.822  0.1723 -0.1020  0.0665
59069W        W 2163   1.520  13.166   2.454 -0.0095  0.1571  0.2030
59070W        W 2164   2.716  11.975   3.184  0.1484 -0.2924  0.1301
59071W        W 2165   2.375  13.452   1.144 -0.2329 -0.2328 -0.0240
59072W        W 2166   2.993  11.281   2.514 -0.2315 -0.0771 -0.0174
59073W        W 2167   2.030  11.525   2.682  0.0585  0.1642 -0.1684
59074W        W 2168   1.630  11.310   2.100  0.2545 -0.1273  0.3100
59075W        W 2169   1.965  11.678   2.243 -0.1873 -0.1573  0.4155
59076W        W 2170  33.735  11.808   3.765  0.0037  0.1597  0.2355
59077W        W 2171   3.742  13.763   3.493  0.0926 -0.0426  0.0198
59078W        W 2172   4.008  11.724  31.418 -0.0126  0.0679 -0.1864
59079W        W 2173   2.256  10.919   1.693  0.0930  0.2901 -0.1351
59080W        W 2174   3.120  11.816   1.561 -0.0243  0.0805 -0.0473
59081W        W 2175   2.274  12.986   0.878  0.1395  0.1258  0.1920
59082W        W 2176   0.648  12.942   1.463 -0.0298 -0.3053  0.0437
59083W        W 2177   2.950  13.006   3.533  0.0361 -0.0059  0.0834
59084W        W 2178   1.569  11.870   0.555  0.0476 -0.1028 -0.2120
59085W        W 2179   3.929  10.900   3.012  0.1099  0.0449  0.4518
59086W        W 2180   1.107  16.255   1.096 -0.0598  0.1900 -0.2709
59087W        W 2181   1.714  15.287   0.683 -0.3419 -0.0715  0.2171
59088W        W 2182   2.522  12.540   1.984  0.0155  0.0612 -0.2575
59089W        W 2183   0.546   9.729   2.571  0.2584 -0.5365 -0.0047
59090W        W 2184   0.912  13.274   3.614 -0.2329 -0.2624 -0.0284
59091W        W 2185   1.474  13.583  31.926  0.1672  0.2157 -0.0304
59092W        W 2186   0.325  14.649   0.272  0.4382 -0.0781  0.1900
59093W        W 2187   1.891  12.913   2.147  0.0413 -0.2429 -0.0706
59094W        W 2188   2.607  12.838   4.497  0.0114 -0.2800  0.0557
59095W        W 2189   2.689  12.091  31.638  0.3476  0.4366 -0.0091
59096W        W 2190   3.728  12.002   3.445 -0.1402  0.4785  0.0796
59097W        W 2191  34.558  14.615   0.443  0.0449 -0.2005  0.1924
59098W        W 2192   1.603  11.594   1.053  0.0001 -0.1344 -0.0253
59099W        W 2193   1.698  14.597   2.686  0.0214  0.1477  0.1845
59100W        W 2194   0.360  13.090   2.826  0.0185  0.2769 -0.0563
59101W        W 2195   1.892  13.318   0.870  0.0872  0.0610  0.2203
59102W        W 2196   1.545  11.350   3.828  0.0811  0.1900  0.1477
59103W        W 2197   2.292  11.635   3.194 -0.0212 -0.0655 -0.3076
59104W        W 2198   0.818  12.504   3.748 -0.2351  0.0939 -0.3499
59105W        W 2199   4.111  11.822   3.287  0.1359  0.1765  0.0544
59106W        W 2200   1.515  13.482   3.216  0.1143  0.0963  0.1748
59107W        W 2201   1.071  13.332   1.503  0.0902  0.2242  0.3172
59108W        W 2202   4.822  13.146   3.814  0.1187 -0.0558  0.2706
59109W        W 2203   2.694  12.612   1.007  0.1231 -0.1052 -0.2309
59110W        W 2204   1.621  13.716   0.767  0.0013  0.2331 -0.1122
59111W        W 2205   0.052  12.635   4.039  0.2426  0.0446  0.0016
59112W        W 2206   1.160  12.074   3.918 -0.0587  0.1824 -0.0776
59113W        W 2207   2.823  12.247   1.301 -0.0881 -0.1496  0.3828
59114W        W 2208  34.648  12.199   0.346 -0.2214 -0.0451 -0.1081
59115W        W 2209   1.365  15.274   1.044  0.1871  0.0307  0.1736
59116W        W 2210  34.474  14.484   3.472  0.0771  0.1954  0.0701
59117W        W 2211   0.059  11.983   2.749 -0.0583 -0.0682 -0.0566
59118W        W 2212   0.184  14.347   0.732 -0.1465 -0.0539 -0.2604
59119W        W 2213   3.042  12.470  31.469  0.1107  0.0636 -0.0357
59120W        W 2214   2.252  13.021  31.619 -0.0658  0.0961  0.1773
59121W        W 2215   2.964  15.521   1.350 -0.0813  0.3607 -0.1253
59122W        W 2216   2.649  13.134   0.161  0.4467  0.2822 -0.0553
59123W        W 2217   0.549  13.338   1.787 -0.0479 -0.0256  0.4281
59124W        W 2218   0.508  13.396   0.333 -0.1509 -0.2434 -0.1377
59125W        W 2219   3.454  13.084   2.356 -0.1256  0.3307 -0.0490
59126W        W 2220   0.136  14.853   1.838 -0.3887  0.0965  0.0984
59127W        W 2221   4.077  13.323   4.510 -0.2059 -0.1369 -0.2790
59128W        W 2222   1.939  11.543  31.646 -0.3751  0.2197 -0.0159
59129W        W 2223   2.613  11.307   2.002 -0.2353  0.1271 -0.0212
59130W        W 2224   3.163  13.205  31.791  0.0899  0.0801 -0.0970
59131W        W 2225   2.361  14.046   3.255 -0.1373 -0.2180 -0.4529
59132W        W 2226   2.041  11.118   1.242  0.1099  0.2607 -0.1735
59133W        W 2227   0.308  11.655  31.176  0.2320  0.1070  0.1303
59134W        W 2228  34.213  11.372   2.713 -0.1252 -0.0751  0.1699
59135W        W 2229   4.522  11.404   3.438 -0.4296 -0.1500  0.0498
59136W        W 2230  34.221  13.526   3.866  0.0068 -0.0925  0.1679
59137W        W 2231   3.336  15.216  31.693 -0.0770 -0.0337  0.0921
59138W        W 2232   0.122  11.450   0.934  0.0509  0.2040 -0.2932
59139W        W 2233   1.890  12.014   2.654 -0.0001  0.5704 -0.2152
59140W        W 2234   3.347  11.906   1.974 -0.2232  0.0397 -0.0460
59141W        W 2235   1.175  15.480   0.582  0.0155  0.1209  0.2150
59142W        W 2236   1.742  12.286   2.233 -0.0043  0.1499 -0.0613
59143W        W 2237   0.740  17.414   1.727 -0.1332  0.0562 -0.1791
59144W        W 2238   2.068  14.315   2.516 -0.2849 -0.1500  0.0950
59145W        W 2239   1.589  13.646   2.223  0.2171 -0.1363  0.1472
59146W        W 2240   1.204  11.470   1.466 -0.5046  0.0409 -0.0989
59147W        W 2241   2.329  12.054   2.825 -0.0082 -0.2611 -0.4037
59148W        W 2242   1.930  13.032   2.686 -0.0242  0.0328 -0.5072
59149W        W 2243   5.244  11.776   3.721 -0.1074 -0.1055 -0.0315
59150W        W 2244   1.193  12.840   1.370  0.1575 -0.1437  0.2004
59151W        W 2245   3.068  12.940   0.986 -0.2623  0.0961  0.0034
59152W        W 2246   2.118  12.757   4.515  0.2853  0.1786 -0.0065
59153W        W 2247   1.378  12.427   1.565 -0.0994  0.0485  0.0432
59154W        W 2248   0.889  12.521  31.174  0.2217  0.0378 -0.1532
59155W        W 2249   2.995  12.359   2.921  0.0129  0.0544 -0.1740
59156W        W 2250   2.322  12.802   0.052 -0.1071  0.0480 -0.1086
59157W        W 2251   3.067  14.817   4.233 -0.0752  0.0488 -0.1299
59158W        W 2252   0.901  10.385   2.121  0.0280 -0.0136  0.0444
59159W        W 2253   1.632  12.932   0.536  0.1351 -0.1671 -0.3707
59160W        W 2254   1.610  12.624   2.563 -0.3960 -0.0026 -0.2645
59161W        W 2255   1.590  10.058   2.697 -0.1319 -0.0497 -0.3127
59162W        W 2256   2.905  14.355   4.112  0.3206  0.0481 -0.0036
59163W        W 2257   1.269  10.113   1.279 -0.0068  0.0519 -0.0447
59164W        W 2258   3.417  14.977   0.192 -0.4041  0.0214 -0.0483
59165W        W 2259   2.645  10.426   2.693  0.0056  0.1264  0.2692
59166W        W 2260   0.849  15.367  31.939 -0.1213  0.0286  0.3454
59167W        W 2261   2.410  12.382   1.537  0.2962 -0.0637  0.2481
59168W        W 2262   3.492  13.403   1.901 -0.1594  0.0646  0.3686
59169W        W 2263   0.133  11.950   2.265 -0.0589 -0.0490 -0.1466
59170W        W 2264   2.232  14.480   3.523 -0.1655  0.1824 -0.2401
59171W        W 2265   4.723  13.625   3.451  0.1878  0.2271  0.0439
59172W        W 2266   0.189  11.656   1.851 -0.2911  0.0254 -0.0076
59173W        W 2267   0.746  11.503   1.098 -0.2570 -0.0857 -0.0629
59174W        W 2268  34.214  13.731   0.555  0.0124  0.0419 -0.2482
59175W        W 2269   3.747  12.376   1.299  0.0320  0.0195 -0.0496
59176W        W 2270   3.122  12.189   2.409 -0.2017 -0.0678  0.1549
59177W        W 2271   1.549  14.863   0.104 -0.0117  0.4111 -0.0560
59178W        W 2272   2.294  11.114   3.376 -0.1801 -0.2489  0.4388
59179W        W 2273   2.944  13.133   1.997 -0.1327 -0.1681  0.4172
59180W        W 2274  34.686  14.324   2.993  0.0460 -0.0993  0.1299
59181W        W 2275   0.578  13.891  31.717  0.2152  0.3239  0.1327
59182W        W 2276   2.467  11.353   2.463  0.0323 -0.0513 -0.0326
59183W        W 2277   0.970  13.458   0.670  0.1743 -0.1328  0.0638
59184W        W 2278   1.790  14.433   1.210  0.0959 -0.0870 -0.0140
59185W        W 2279   2.230  12.890   1.773  0.1565  0.1613 -0.1343
59186W        W 2280   1.267  11.391   0.510  0.1177  0.0925  0.0981
59187W        W 2281   2.972  14.201   1.876  0.0977  0.3413 -0.2303
59188W        W 2282   0.252  13.237   0.768  0.0133 -0.1371 -0.2867
59189W        W 2283   3.385  12.321   1.671  0.2832  0.0740 -0.3070
59190W        W 2284   1.844  12.195   0.304  0.0645 -0.1609 -0.2765
59191W        W 2285   0.444  12.283   2.682  0.0041 -0.0966 -0.2122
59192W        W 2286  34.127  12.833   0.848 -0.1529 -0.2783 -0.1622
59193W        W 2287  34.343  15.297   0.672  0.1392  0.0877  0.0574
59194W        W 2288   0.530  14.114   1.956  0.1148 -0.1533  0.4003
59195W        W 2289   3.007  11.725   3.897  0.1274 -0.1143  0.4249
59196W        W 2290   1.424  11.898   2.138  0.0182 -0.0894  0.0812
59197W        W 2291   0.282  13.114   2.120  0.1573 -0.1984 -0.1511
59198W        W 2292  34.617  12.893   0.675  0.1697 -0.1301 -0.1841
59199W        W 2293   3.565  13.542  31.910  0.1635 -0.1546 -0.3152
59200W        W 2294   1.836  11.020   2.474  0.0312  0.1449  0.1085
59201W        W 2295   0.143   9.865   3.705 -0.2474  0.0239  0.2369
59202W        W 2296   2.357  11.824  31.948  0.0885 -0.2254 -0.2703
59203W        W 2297   2.320  13.978   1.018 -0.0917  0.2085 -0.3090
59204W        W 2298   1.603  11.074   0.892 -0.0685 -0.1847 -0.0538
59205W        W 2299   3.469  13.541   4.315  0.2976  0.1251  0.0046
59206W        W 2300   0.133  13.740   1.009 -0.1622  0.0087 -0.0637
59207W        W 2301   1.035  13.566   2.030  0.1563 -0.0581  0.3436
59208W        W 2302   0.411  10.809   4.215  0.0464  0.3095  0.2718
59209W        W 2303  32.678   9.897   0.689  0.0249 -0.0415 -0.0150
59210W        W 2304   1.439  10.975   1.442 -0.3918 -0.2642  0.0378
59211W        W 2305   1.239  15.037   1.472  0.2441  0.0100 -0.0075
59212W        W 2306   2.560  15.120   0.315 -0.0674 -0.2992  0.0869
59213W        W 2307   1.416  13.214   1.953  0.0556 -0.1244  0.3509
59214W        W 2308   1.009  13.743   3.847  0.3041 -0.1023 -0.0513
59215W        W 2309   1.260  11.411   3.293 -0.0217  0.3368 -0.0272
59216W        W 2310   2.611  14.633   0.140  0.0780  0.0769 -0.0823
59217W        W 2311   0.381  12.779   3.268 -0.0647  0.0569  0.2905
59218W        W 2312   3.462  12.462   2.158 -0.3683  0.1282  0.2684
59219W        W 2313   2.839  11.737   1.166 -0.0904  0.2511 -0.0535
59220W        W 2314   0.553  13.334  31.083 -0.2615  0.2125 -0.0047
59221W        W 2315  34.372  10.985   4.169 -0.2027 -0.2570  0.0625
59222W        W 2316   0.340  12.428   3.660  0.3351  0.3619  0.1170
59223W        W 2317   3.395  13.565   2.435  0.2956 -0.0111  0.0773
59224W        W 2318   0.376  11.168   1.434  0.0012 -0.1272 -0.0970
59225W        W 2319   1.177  11.278   1.021 -0.3876 -0.3637  0.1669
59226W        W 2320   2.841  13.504   0.412  0.0233 -0.1489  0.2525
59227W        W 2321   0.337  12.523   1.509  0.1813  0.0937  0.1363
59228W        W 2322   0.995  13.304   0.155  0.1367 -0.2571  0.2675
59229W        W 2323   2.868  12.542   3.427  0.0785  0.1330  0.2126
59230W        W 2324   2.248  15.053   1.339  0.1389 -0.2704  0.0220
59231W        W 2325   2.120  13.805   2.708 -0.1227 -0.1660  0.1014
59232W        W 2326   0.374  13.330   1.294 -0.1930 -0.2570 -0.3587
59233W        W 2327   3.451  12.835   1.755 -0.0399  0.0287 -0.0371
59234W        W 2328   2.596  13.554   3.067 -0.2303  0.1977  0.2800
59235W        W 2329   3.638  13.894   3.971  0.2101 -0.0862 -0.0735
59236W        W 2330  34.227  15.408   2.344 -0.0303 -0.2985  0.1363
59237W        W 2331   2.037  13.380   2.323  0.3257 -0.1546 -0.0466
59238W        W 2332   1.430  11.741   2.677 -0.1100 -0.1209 -0.1663
59239W        W 2333   0.862  11.902   1.288 -0.0241 -0.1316 -0.1023
59240W        W 2334   1.847  14.095   1.658 -0.0553  0.1916 -0.0387
59241W        W 2335   1.825  13.037   3.277 -0.1138 -0.1699  0.0380
59242W        W 2336   0.716  12.546   0.919 -0.1295  0.1065  0.1860
59243W        W 2337   1.370  10.746   0.583  0.1475  0.1923 -0.0380
59244W        W 2338  34.606  14.457   2.490 -0.0215  0.1320 -0.2352
59245W        W 2339   2.596  11.920   1.651  0.1087  0.0818  0.0305
59246W        W 2340   1.368  14.071   6.999  0.1700 -0.1080  0.0494
59247W        W 2341   1.021  12.031   5.794 -0.0505  0.1107  0.1781
59248W        W 2342   2.114  11.584   4.541 -0.3178  0.1551  0.2467
59249W        W 2343   3.405  11.693   3.597  0.0236  0.0100  0.3738
59250W        W 2344  34.408  11.115   4.655  0.0244 -0.0731 -0.1159
59251W        W 2345   1.409  14.378   5.611 -0.0061 -0.0581  0.1428
59252W        W 2346   0.461  11.830   6.352  0.1095 -0.1876  0.1679
59253W        W 2347   2.039  12.930   6.525 -0.0983  0.0857  0.0031
59254W        W 2348   2.858  14.347   5.433  0.0061  0.1851 -0.0041
59255W        W 2349   1.683  13.491   2.763 -0.1629  0.2999 -0.1264
59256W        W 2350   1.895  12.565   6.984  0.2775  0.1075 -0.0570
59257W        W 2351   0.880  13.897   7.094 -0.1949 -0.2565 -0.4817
59258W        W 2352   1.826  10.696   5.906 -0.1080  0.1048  0.1893
59259W        W 2353   1.160  10.354   6.509  0.1034  0.2265  0.3314
59260W        W 2354   3.211  12.627   7.064 -0.1558  0.1255 -0.2757
59261W        W 2355   0.598  11.989   3.679  0.0713  0.1063  0.0980
59262W        W 2356   2.278  13.055   5.544  0.0845 -0.0359  0.0154
59263W        W 2357   1.524  12.113   3.041 -0.1306 -0.0531  0.0025
59264W        W 2358   0.685  13.925   5.207  0.2795  0.0115 -0.1383
59265W        W 2359   2.349  10.822   5.693 -0.0188 -0.2249 -0.0032
59266W        W 2360   2.372  10.510   6.655 -0.0695 -0.0909 -0.0462
59267W        W 2361   0.479  13.474   3.870  0.0736  0.0265  0.3065
59268W        W 2362   1.639  12.217   3.537  0.2387  0.1072  0.0463
59269W        W 2363   0.664  12.455   5.163 -0.0916 -0.2836 -0.2168
59270W        W 2364   1.693  11.997   5.570 -0.2083  0.1149 -0.0574
59271W        W 2365   2.558  12.299   6.249 -0.3609 -0.0014 -0.0407
59272W        W 2366   1.532  12.766   5.315 -0.2525 -0.1300 -0.0665
59273W        W 2367   0.324  12.875   4.970 -0.1540  0.1193 -0.0456
59274W        W 2368   0.484  14.408   5.363 -0.1403  0.1898 -0.4458
59275W        W 2369   2.256  11.780   8.056  0.0588 -0.0652  0.0840
59276W        W 2370   0.492  12.935   3.746 -0.0017 -0.0565 -0.0086
59277W        W 2371   0.633  15.480   6.259  0.0580 -0.2026 -0.2357
59278W        W 2372   0.539  13.120   4.597 -0.2160 -0.1458  0.1039
59279W        W 2373   2.321  14.838   5.724  0.0909 -0.2101  0.1178
59280W        W 2374   4.171  13.486   6.834 -0.0535  0.1332  0.0989
59281W        W 2375   0.949  15.301   6.553 -0.0177 -0.0799 -0.0528
59282W        W 2376  33.800  14.195   4.256  0.0375  0.1718 -0.0297
59283W        W 2377   2.364  12.761   6.993  0.0963  0.2152  0.0422
59284W        W 2378   0.315  14.559   6.404 -0.1826 -0.0288 -0.2052
59285W        W 2379   1.745  13.258   5.480 -0.4111 -0.1514  0.0863
59286W        W 2380   1.463  12.346   4.543 -0.1137  0.0742  0.0269
59287W        W 2381   1.360  13.028   4.439 -0.2143 -0.3220  0.1470
59288W        W 2382  34.369  13.298   4.409  0.1233 -0.1999  0.1098
59289W        W 2383   1.596  12.651   8.351  0.1605  0.2755 -0.2450
59290W        W 2384  34.338  12.945   5.995 -0.0811  0.1812 -0.1120
59291W        W 2385   3.213  11.950   7.739 -0.2796  0.2193  0.2312
59292W        W 2386   0.656  14.495   3.526  0.1693 -0.2625  0.2434
59293W        W 2387   1.954  11.868   3.618  0.1234  0.1759  0.1298
59294W        W 2388   1.310  12.747   2.933  0.2609  0.0430 -0.2637
59295W        W 2389   3.649  11.370   3.063 -0.0428  0.1482 -0.0224
59296W        W 2390   1.470  10.120   3.979 -0.0768  0.1276  0.0040
59297W        W 2391  34.269  14.271   5.759  0.0289 -0.1528 -0.0785
59298W        W 2392   1.175  11.491   6.707  0.0339 -0.4327  0.1651
59299W        W 2393   3.425  13.117   7.435  0.1179  0.1259 -0.1803
59300W        W 2394   2.213  12.275   3.827 -0.0589  0.0993 -0.0905
59301W        W 2395   2.604  12.255   5.345 -0.0476 -0.1608  0.1680
59302W        W 2396   0.433  14.173   7.115 -0.3663 -0.2415 -0.0533
59303W        W 2397  34.690  11.661   6.289  0.0458  0.1366 -0.4848
59304W        W 2398   1.730  13.154   4.105  0.3867 -0.1112 -0.0430
59305W        W 2399   1.985  13.736   4.744  0.1175 -0.2704  0.2260
59306W        W 2400   1.228  12.972   3.412 -0.0045 -0.2712  0.2524
59307W        W 2401  33.761  13.991   5.543  0.0531  0.2448  0.0305
59308W        W 2402   1.257  13.160   7.436  0.2228  0.1659 -0.2066
59309W        W 2403   1.295  13.365   6.481  0.0214 -0.2409  0.0645
59310W        W 2404   0.832  10.641   4.085 -0.0873 -0.0549  0.2696
59311W        W 2405   4.031  13.476   7.369  0.2567 -0.1566 -0.0236
59312W        W 2406   0.753  13.202   7.545 -0.1497 -0.1040  0.3304
59313W        W 2407   2.511  10.996   5.220  0.0763  0.3043  0.1409
59314W        W 2408   1.165  13.247   5.390  0.0032 -0.0933 -0.0341
59315W        W 2409   3.324  13.870   6.121 -0.2691  0.0164 -0.0526
59316W        W 2410   2.814  13.241   4.693  0.1913 -0.1102  0.1191
59317W        W 2411   3.221   9.712   5.172 -0.2300  0.3577  0.1256
59318W        W 2412   2.515  10.785   7.111  0.3921 -0.0710 -0.2129
59319W        W 2413   1.241  12.653   4.080 -0.0002 -0.1809 -0.1483
59320W        W 2414   1.806  13.163   4.686 -0.0842  0.2336  0.0609
59321W        W 2415   3.814  13.457   5.525  0.1119  0.3133 -0.1238
59322W        W 2416   4.184  12.421   2.255 -0.1889 -0.0207 -0.1950
59323W        W 2417   0.770  13.551   5.642  0.2259  0.0049  0.1215
59324W        W 2418   0.771  12.391   6.643 -0.0644  0.2946 -0.2888
59325W        W 2419   1.645  13.837   6.669  0.1789  0.2226  0.1148
59326W        W 2420  33.074  14.409   3.783 -0.1653 -0.1530 -0.0262
59327W        W 2421  34.250  13.494   4.893 -0.2743 -0.1749 -0.4983
59328W        W 2422  32.440  14.248   3.699  0.0252 -0.4484  0.0108
59329W        W 2423   1.652  12.073   6.067  0.2039 -0.0874  0.0447
59330W        W 2424   0.884  14.299   6.207  0.2768 -0.0983  0.0873
59331W        W 2425   3.883  12.042   4.188  0.1148  0.1924  0.0036
59332W        W 2426   0.752  11.273   5.846  0.3772  0.5950  0.0979
59333W        W 2427   3.144  11.642   4.410  0.3408 -0.2325 -0.0522
59334W        W 2428  34.593  13.867   4.877  0.0248  0.0614 -0.1306
59335W        W 2429   2.374  14.321   4.929 -0.0014  0.1305 -0.1617
59336W        W 2430   2.894  12.753   4.103  0.1696 -0.0495  0.1593
59337W        W 2431   1.275  13.795   2.933  0.2430  0.1406  0.2136
59338W        W 2432   1.338  11.544   7.156 -0.2806  0.0096  0.1881
59339W        W 2433   1.412  12.394   5.659 -0.0131  0.0449 -0.2068
59340W        W 2434   2.110  10.072   6.245  0.1248 -0.1796  0.2577
59341W        W 2435   1.257  10.658   6.060 -0.0561 -0.0899  0.0828
59342W        W 2436   2.675  12.351   6.709  0.0020  0.1176  0.0984
59343W        W 2437   0.424  10.268   3.603 -0.0854 -0.2324 -0.0974
59344W        W 2438   2.736  11.311   4.273 -0.1758  0.1786 -0.2056
59345W        W 2439   1.709  12.682   4.276  0.0269 -0.0403  0.2054
59346W        W 2440  34.617  13.488   3.598  0.0899  0.1916 -0.1709
59347W        W 2441   3.197  11.331   5.539 -0.1113 -0.0202 -0.1722
59348W        W 2442   2.663  13.705   4.076  0.0783  0.1607  0.1140
59349W        W 2443   3.611  14.584   6.054  0.0134  0.1339  0.1002
59350W        W 2444   2.032  13.791   5.390  0.0871 -0.3235 -0.0416
59351W        W 2445   1.978  12.615   7.908  0.0281  0.0945  0.1585
59352W        W 2446   0.669  12.338   3.264 -0.1581  0.0561  0.0478
59353W        W 2447   0.182  14.840   5.469  0.1836  0.0463  0.0061
59354W        W 2448   1.631  13.101   6.221 -0.2033  0.1855  0.2136
59355W        W 2449  34.143  11.650   4.450  0.1618 -0.3549 -0.0857
59356W        W 2450   2.675  13.767   6.685 -0.0958 -0.2609 -0.1224
59357W        W 2451   3.010  12.881   5.063  0.0320 -0.1312  0.3795
59358W        W 2452   0.895  11.596   6.227 -0.1825  0.0819  0.0481
59359W        W 2453   2.492  10.272   7.125  0.0520 -0.2557 -0.1080
59360W        W 2454   2.337  11.328   6.502  0.4135 -0.0878  0.0622
59361W        W 2455   3.031  11.953   5.397 -0.3091  0.1670 -0.1665
59362W        W 2456   0.542  11.759   3.140 -0.1770 -0.1612 -0.1520
59363W        W 2457   2.189  13.120   6.104  0.1078  0.1412  0.0251
59364W        W 2458  34.588  15.674   3.924  0.1081  0.1440 -0.0127
59365W        W 2459   0.026  12.429   4.733  0.1513 -0.0866  0.0726
59366W        W 2460   0.615  14.212   4.407 -0.0770 -0.1961 -0.1188
59367W        W 2461   4.194  12.018   6.050 -0.1676 -0.1665  0.1990
59368W        W 2462   0.726  12.742   6.242  0.0056 -0.3080 -0.0885
59369W        W 2463   2.078  10.533   7.304 -0.0537  0.0933 -0.2096
59370W        W 2464   0.082  11.277   4.203  0.1373  0.1543  0.1354
59371W        W 2465   1.047  14.848   7.430 -0.2486  0.0064 -0.0327
59372W        W 2466   3.309  11.041   4.477 -0.3040  0.0068  0.2187
59373W        W 2467   4.243  10.480   5.547  0.1077  0.2094  0.0546
59374W        W 2468   2.747  12.091   7.457 -0.1218  0.5143 -0.1301
59375W        W 2469   2.117  13.232   3.669 -0.1737  0.3090 -0.1954
59376W        W 2470   1.723  11.214   3.375  0.3308  0.0196 -0.0579
59377W        W 2471   2.139  11.116   2.920 -0.1610 -0.1055 -0.0018
59378W        W 2472  34.653  12.573   7.298 -0.2070  0.1023  0.1784
59379W        W 2473   2.410  12.502   4.991  0.3538  0.1497  0.0060
59380W        W 2474   2.009  12.245   4.468  0.1404  0.1716 -0.1844
59381W        W 2475   2.408  10.502   3.906 -0.0712  0.0688 -0.1880
59382W        W 2476   3.521  13.049   5.677 -0.0877  0.1094  0.0166
59383W        W 2477  33.992  12.531   6.005  0.0480  0.0995 -0.1797
59384W        W 2478   2.051  14.165   8.864 -0.1781 -0.0627 -0.0151
59385W        W 2479   2.220  13.670   6.354 -0.1740  0.1811  0.2619
59386W        W 2480   1.018   9.623   4.733  0.2024  0.0504  0.0027
59387W        W 2481   1.155  11.341   4.238  0.2756  0.2811 -0.2031
59388W        W 2482   3.010  10.672   4.580 -0.2248  0.1144 -0.1650
59389W        W 2483  34.079  14.438   3.936 -0.0547  0.2256 -0.0223
59390W        W 2484   1.970  11.115   6.044 -0.0178 -0.1629 -0.0747
59391W        W 2485   1.932  10.831   4.434 -0.1552 -0.1032 -0.2947
59392W        W 2486   2.175  11.980   5.418  0.1948  0.0575 -0.2216
59393W        W 2487   3.164  11.921   8.424 -0.3062  0.2218 -0.1509
59394W        W 2488   1.987  11.858   4.143 -0.2590  0.0492 -0.0879
59395W        W 2489   3.254  12.088   7.202 -0.1060 -0.0790  0.0300
59396W        W 2490   0.890  12.459   2.866 -0.0013 -0.1042 -0.1067
59397W        W 2491   1.603  10.365   6.216  0.0453 -0.0623 -0.2518
59398W        W 2492   0.821  13.787   6.080 -0.1046 -0.0185  0.1655
59399W        W 2493   0.103  14.019   6.696  0.3802  0.0383 -0.0220
59400W        W 2494   3.085  12.738   8.197 -0.0379 -0.4437 -0.0942
59401W        W 2495   2.491  12.412   4.228 -0.1528 -0.1476 -0.0165
59402W        W 2496   1.786  11.593   8.088  0.0638 -0.0217 -0.0501
59403W        W 2497   3.766  10.840   3.553  0.0731 -0.1499 -0.0815
59404W        W 2498  34.565  13.745   4.258 -0.2290 -0.0091  0.3015
59405W        W 2499   0.401  14.226   4.865  0.1046 -0.1845  0.0100
59406W        W 2500   0.523   8.306   6.014  0.1312 -0.0776 -0.3180
59407W        W 2501   1.363  12.924   5.793  0.0781 -0.0766 -0.2304
59408W        W 2502   0.980  14.167   3.267  0.0854 -0.0217  0.4373
59409W        W 2503   1.319  13.810   7.421  0.2558  0.0709 -0.2424
59410W        W 2504   0.198  14.751   4.904  0.1861  0.1264  0.0026
59411W        W 2505   4.121  10.837   5.244 -0.0677 -0.0345 -0.1364
59412W        W 2506  34.064  13.356   6.181 -0.3409 -0.2624  0.0197
59413W        W 2507  34.520  12.521   3.572 -0.2293 -0.3295 -0.2302
59414W        W 2508   0.553  11.233   4.987  0.0301  0.0394 -0.4711
59415W        W 2509   4.083  10.466   4.463 -0.1406 -0.0045  0.3402
59416W        W 2510   3.174  13.920   4.185  0.0278  0.0390  0.1890
59417W        W 2511   1.678  10.086   7.182 -0.0477 -0.4297 -0.0636
59418W        W 2512   1.704  11.087   5.559  0.0559 -0.1097 -0.1157
59419W        W 2513  34.009  13.884   6.055 -0.1885  0.0077 -0.0713
59420W        W 2514   2.750  11.778   6.488  0.2863 -0.0484  0.0399
59421W        W 2515   3.376  11.217   3.506  0.0465 -0.0429  0.3875
59422W        W 2516   2.934  12.574   6.319  0.2448 -0.0970  0.0628
59423W        W 2517   2.658  11.686   7.686 -0.1841  0.2184  0.1696
59424W        W 2518  34.001  10.346   4.805  0.1723  0.0484 -0.1243
59425W        W 2519   2.652  12.761   5.381 -0.2430 -0.3221 -0.0582
59426W        W 2520   1.637  11.862   4.548 -0.3795  0.2018  0.0241
59427W        W 2521   0.201  13.911   5.339 -0.0371  0.0265 -0.1492
59428W        W 2522   2.131  13.230   7.182 -0.1535  0.1540 -0.2518
59429W        W 2523   0.627  11.500   5.368  0.2519  0.4529  0.0972
59430W        W 2524  34.520  12.925   4.991  0.0968  0.3842 -0.0348
59431W        W 2525   0.463  11.667   7.556 -0.0298 -0.1444 -0.0139
59432W        W 2526   2.586  12.829   8.391  0.0774 -0.2431  0.3734
59433W        W 2527   1.204  12.102   5.305 -0.0097  0.0633  0.0936
59434W        W 2528   1.420  11.765   3.652 -0.1186 -0.0647  0.3595
59435W        W 2529   2.361  11.643   6.879  0.0562 -0.1431  0.2191
59436W        W 2530   2.503  12.832   6.399  0.2526 -0.3672 -0.5852
59437W        W 2531   2.636  11.816   5.637  0.0024 -0.1539 -0.1950
59438W        W 2532   2.118  12.229   8.170  0.1780 -0.3449  0.1069
59439W        W 2533   2.272  11.344   5.581  0.4216 -0.2772  0.0002
59440W        W 2534   2.406  13.595   4.501  0.0508  0.0837  0.1146
59441W        W 2535   3.075  11.538   7.381 -0.2166 -0.0064 -0.0982
59442W        W 2536   1.277  12.487   5.001  0.1417 -0.1357  0.2693
59443W        W 2537   0.025  12.163   6.106  0.1614 -0.3144 -0.0391
59444W        W 2538   0.917  12.183   4.355  0.4323 -0.1120  0.0092
59445W        W 2539   1.673  11.327   6.826  0.2731 -0.0504  0.1920
59446W        W 2540   0.318  12.100   5.042 -0.1506  0.2931 -0.1957
59447W        W 2541   0.275  12.000   4.579  0.0774  0.3905  0.0613
59448W        W 2542   0.881  12.905   4.966  0.1203  0.0482  0.0565
59449W        W 2543   3.755  10.404   4.045 -0.1487  0.0286  0.0463
59450W        W 2544   1.463  13.539   3.758 -0.4272  0.3284 -0.0494
59451W        W 2545   1.091  11.150   6.356 -0.1339 -0.0112 -0.2254
59452W        W 2546   2.510  11.394   7.299 -0.2315  0.3590  0.0192
59453W        W 2547   3.519  12.009   4.599 -0.0899  0.0354 -0.0777
59454W        W 2548   3.627  11.933   6.762  0.1429  0.1213 -0.2085
59455W        W 2549   1.161  12.115   6.254 -0.1657  0.0864 -0.0673
59456W        W 2550   0.998  14.301   5.164 -0.1301 -0.0014  0.1550
59457W        W 2551   0.508  12.297   6.222 -0.2772  0.4459  0.0302
59458W        W 2552   2.401  15.575   7.357 -0.1768 -0.1078  0.1919
59459W        W 2553   1.803  12.129   7.803 -0.5020 -0.2701  0.0187
59460W        W 2554   0.963  11.652   3.887 -0.0895 -0.1669  0.0743
59461W        W 2555   0.922  10.566   3.556  0.0399  0.2833 -0.3085
59462W        W 2556   1.031  12.574   5.893 -0.0163  0.0164 -0.0393
59463W        W 2557   2.917  11.996   6.078 -0.0995 -0.0783  0.0228
59464W        W 2558   0.306  13.980   4.044 -0.1926  0.1656  0.0023
59465W        W 2559   3.222  11.675   6.325 -0.1169 -0.3025 -0.1115
59466W        W 2560   1.525  11.844   6.602 -0.0173 -0.0409  0.0408
59467W        W 2561   2.963  12.166   4.935  0.0811 -0.2374 -0.1988
59468W        W 2562   1.622  12.703   3.713  0.3632  0.0231 -0.3275
59469W        W 2563   0.609  13.440   5.125 -0.0269 -0.1776  0.0739
59470W        W 2564   1.738  11.576   5.824  0.0195 -0.0458  0.1467
59471W        W 2565   2.643  12.924   5.896  0.3503 -0.2728 -0.0218
59472W        W 2566   1.474  11.687   5.045 -0.0570 -0.2441 -0.2769
59473W        W 2567   2.462  11.615   6.114  0.1962 -0.1762  0.1394
59474W        W 2568   1.463  12.772   7.168 -0.0214 -0.0645 -0.1434
59475W        W 2569   1.534  12.603   6.123 -0.2375 -0.0093 -0.3157
59476W        W 2570   1.458  10.832   6.516 -0.1438 -0.0058 -0.0890
59477W        W 2571   2.474  15.534   6.725 -0.1173  0.0947  0.0026
59478W        W 2572   3.658  12.443   3.683 -0.0524  0.1647 -0.1614
59479W        W 2573   4.189  10.029   5.429  0.1614 -0.2881  0.0148
59480W        W 2574   3.548  12.106   5.276 -0.1117 -0.0521  0.2416
59481W        W 2575   1.680  12.254   4.032  0.1195  0.2230 -0.1295
59482W        W 2576   1.560  12.822   6.621  0.0549 -0.0950  0.0674
59483W        W 2577   3.392  12.549   7.542 -0.2062 -0.0156 -0.0611
59484W        W 2578   0.898  11.042   3.141  0.0734 -0.1988  0.2399
59485W        W 2579   1.278  10.997   7.026  0.0379 -0.2102 -0.1799
59486W        W 2580   1.916  14.737   4.074 -0.1967  0.0150 -0.0194
59487W        W 2581   2.107  11.892   4.902  0.1276 -0.0915 -0.1355
59488W        W 2582   1.926  12.456   5.436  0.1727 -0.0501 -0.0083
59489W        W 2583  33.438  12.698   5.932  0.2504 -0.0874  0.1320
59490W        W 2584   1.614  13.217   7.020  0.1166  0.2482  0.2391
59491W        W 2585   1.782  12.530   3.025 -0.0972 -0.4023 -0.2767
59492W        W 2586   1.286  13.082   3.874 -0.1203  0.0117  0.1352
59493W        W 2587   1.808  13.379   6.584 -0.2691 -0.0360  0.2366
59494W        W 2588   4.708  13.151   7.609  0.3260 -0.3141 -0.1520
59495W        W 2589   2.877  10.131   4.715 -0.2642  0.1813  0.1793
59496W        W 2590   1.821  11.118   7.908  0.1054  0.1406 -0.1455
59497W        W 2591  33.771  13.452   5.545  0.2338  0.3782 -0.1314
59498W        W 2592   2.588  11.827   5.095 -0.0042 -0.2676 -0.0402
59499W        W 2593   0.581  14.032   5.727 -0.0042 -0.0281 -0.1659
59500W        W 2594   0.395  13.606   6.877  0.2916 -0.0942  0.1114
59501W        W 2595   1.175  13.876   6.480  0.1647  0.1115 -0.0373
59502W        W 2596   2.543  11.114   6.032  0.1466 -0.0025 -0.0035
59503W        W 2597   2.283  11.424   5.109  0.0812 -0.1854 -0.2036
59504W        W 2598  34.356  12.207   5.760 -0.0262 -0.1322 -0.0013
59505W        W 2599   3.777  11.365   7.999  0.1116  0.0148 -0.0578
59506W        W 2600   2.458  12.961   7.592  0.0873 -0.0420 -0.1756
59507W        W 2601   0.610  12.564   5.707 -0.2206  0.1146  0.1687
59508W        W 2602   3.175  13.639   6.621  0.0255  0.2040 -0.1200
59509W        W 2603   3.760  12.115   5.853 -0.3291  0.0667 -0.2299
59510W        W 2604   1.369  13.091   4.956 -0.2808 -0.4981  0.1617
59511W        W 2605   0.315  13.161   7.218  0.1920 -0.0545  0.1797
59512W        W 2606   3.783  10.424   8.274 -0.3044 -0.0150  0.1883
59513W        W 2607   2.143  12.035   5.889 -0.0289  0.1203  0.1363
59514W        W 2608   1.335  11.106   4.673  0.0846  0.1679  0.0579
59515W        W 2609   1.864  13.697   3.532 -0.0852  0.1505 -0.1234
59516W        W 2610   0.627  14.898   8.062 -0.3512 -0.0257  0.1458
59517W        W 2611   0.445  12.592   7.023  0.0846  0.1983 -0.0071
59518W        W 2612   0.055  13.905   3.314 -0.2790  0.0878  0.0606
59519W        W 2613   1.765  13.589   4.338  0.1028 -0.1337 -0.2555
59520W        W 2614   2.161  12.843   4.010  0.1445 -0.3990  0.0575
59521W        W 2615   2.193  13.174   4.338 -0.0346 -0.0135  0.1871
59522W        W 2616   2.478  11.842   3.668 -0.0608  0.0244  0.0362
59523W        W 2617   0.052  13.051   6.355 -0.3790 -0.0194 -0.1257
59524W        W 2618  34.218  13.196   5.511  0.3819  0.1166 -0.2470
59525W        W 2619   1.408  13.956   4.125  0.2294  0.1799  0.1380
59526W        W 2620   1.772  14.878   6.334  0.1931  0.1750  0.1721
59527W        W 2621   3.343  13.140   8.282 -0.3289  0.1477  0.1961
59528W        W 2622   4.413  10.914   3.411  0.2336 -0.1629  0.1425
59529W        W 2623   2.587  11.907   4.604  0.1908 -0.1801  0.2802
59530W        W 2624   3.403  10.725   4.949  0.0710 -0.0531 -0.0121
59531W        W 2625   3.204  14.132   7.524 -0.1197 -0.1183 -0.2236
59532W        W 2626   0.852  11.711   7.135 -0.0948 -0.1727  0.0062
59533W        W 2627   2.913  11.512   3.373  0.0994 -0.0440 -0.0042
59534W        W 2628   0.994  12.996   6.670 -0.1592 -0.2194 -0.4941
59535W        W 2629   3.793   9.515   6.678  0.0434 -0.1977 -0.2148
59536W        W 2630   0.647  14.257   6.667  0.2655 -0.0985 -0.0139
59537W        W 2631   2.068  14.489   4.493  0.1242  0.3199  0.0097
59538W        W 2632  34.327  11.619   5.102 -0.0364 -0.0157 -0.1201
59539W        W 2633   1.655  12.722   4.827  0.0473  0.4150 -0.0106
59540W        W 2634   2.597   9.771   7.424 -0.1536 -0.3113  0.3596
59541W        W 2635   0.817  13.213   4.093 -0.1371 -0.2255 -0.3294
59542W        W 2636   2.035  10.949   5.232  0.1677 -0.0421  0.0915
59543W        W 2637   2.142  13.682   6.892 -0.1142  0.1119  0.2619
59544W        W 2638  34.417  14.790   7.575  0.1357 -0.1168  0.1759
59545W        W 2639   1.395  13.519   4.658 -0.2118  0.0673 -0.1721
59546W        W 2640   0.168  10.919   4.671 -0.0052 -0.1811  0.0743
59547W        W 2641   3.683  12.494   4.629 -0.2699  0.1178  0.2947
59548W        W 2642   1.998  10.794   6.488 -0.3432 -0.1014  0.0304
59549W        W 2643   3.941   9.661   6.202  0.2305 -0.2258 -0.0502
59550W        W 2644   0.412  13.132   5.954 -0.0059 -0.2199  0.0930
59551W        W 2645   2.450  11.203   4.686 -0.0434 -0.1355  0.2245
59552W        W 2646   2.824  13.037   6.704 -0.2839 -0.1230 -0.0273
59553W        W 2647   0.141  11.665   5.344  0.0628  0.0720  0.1192
59554W        W 2648   0.410  12.336   4.217 -0.0205 -0.1167  0.3080
59555W        W 2649   3.382  12.585   6.519  0.0746 -0.1618  0.1492
59556W        W 2650   5.017  11.555   3.311 -0.2530  0.2000  0.2601
59557W        W 2651   2.380  14.271   7.017  0.0084 -0.0277  0.1635
59558W        W 2652   0.548  11.701   4.842  0.2988 -0.0613 -0.3527
59559W        W 2653   2.951   9.496   4.615  0.2794 -0.0783  0.0522
59560W        W 2654   1.027  12.727   5.411 -0.4237  0.0748 -0.2324
59561W        W 2655   2.227  11.757   7.409 -0.1019  0.0516 -0.4782
59562W        W 2656   2.886  13.029   7.246  0.0249 -0.1069  0.1494
59563W        W 2657   1.082  11.687   4.561 -0.1771 -0.0893  0.0693
59564W        W 2658   4.314  12.453   5.164  0.3821 -0.1875 -0.2368
59565W        W 2659   2.847  12.410   5.773 -0.0358 -0.0626  0.1305
59566W        W 2660   1.330  14.776   3.963  0.1612  0.1182  0.1030
59567W        W 2661   1.916  12.821   5.810  0.5254 -0.3223 -0.2309
59568W        W 2662   1.520  14.098   5.265 -0.0359 -0.0885  0.1616
59569W        W 2663   1.328  11.689   6.093  0.0524  0.0431  0.2106
59570W        W 2664   1.593  13.696   6.192 -0.2616  0.3825 -0.3058
59571W        W 2665   3.313  12.299   5.761 -0.1108  0.2324 -0.1798
59572W        W 2666   2.809  11.013   5.618 -0.1207  0.0170  0.2651
59573W        W 2667   0.293  12.141   5.648 -0.0721 -0.1250 -0.4434
59574W        W 2668  34.193  14.118   4.880  0.0975 -0.4498  0.1939
59575W        W 2669   2.951  10.533   6.760  0.0382  0.0381 -0.1723
59576W        W 2670   2.687  10.916   6.606  0.0113  0.1600 -0.2437
59577W        W 2671   1.034  13.631   3.335 -0.0205 -0.1109  0.0802
59578W        W 2672   3.650  10.454   7.203  0.1870 -0.2799  0.1092
59579W        W 2673   1.578  14.266   7.433  0.1855 -0.1523 -0.1648
59580W        W 2674   0.775  13.236   7.046  0.0700 -0.0580 -0.1095
59581W        W 2675   0.436  13.747   4.777 -0.3429 -0.2272 -0.1675
59582W        W 2676   1.697  12.218   5.022  0.0513  0.3858 -0.1272
59583W        W 2677   1.630  13.533   5.111  0.0174  0.3007  0.3289
59584W        W 2678   1.089  14.797   4.886 -0.0534  0.0394  0.0805
59585W        W 2679   3.049  14.779   6.727  0.1314  0.1298  0.3251
59586W        W 2680   2.346  12.476   5.714  0.0276  0.0199  0.0184
59587W        W 2681   3.170  12.751   5.948  0.2261  0.1693 -0.2028
59588W        W 2682   2.122  12.515   6.191 -0.2165 -0.2264  0.0282
59589W        W 2683   3.458  12.680   5.015  0.0241 -0.3518  0.0118
59590W        W 2684   2.346  10.507   5.301  0.2553 -0.1367  0.2531
59591W        W 2685   0.772  13.268   6.261  0.0978 -0.0131 -0.0253
59592W        W 2686   0.048  12.022   3.844  0.0024  0.1604  0.0942
59593W        W 2687  33.434  12.770   5.381 -0.0103  0.1315 -0.1022
59594W        W 2688   0.183  12.651   6.016  0.0644  0.1421  0.2443
59595W        W 2689   3.115  11.172   6.407 -0.0128 -0.1019 -0.0154
59596W        W 2690   1.867  11.996   7.058 -0.0121 -0.2493  0.0475
59597W        W 2691  33.052  13.216   5.700  0.4526 -0.1594  0.0777
59598W        W 2692   0.715  11.166   4.055  0.0832  0.2940  0.2543
59599W        W 2693   3.352  13.833   4.701 -0.4069  0.1212  0.0488
59600W        W 2694   0.437  11.690   5.763 -0.0540  0.0569  0.1583
59601W        W 2695   0.085  11.120   5.176  0.3696 -0.3814  0.2786
59602W        W 2696   3.712  13.097   4.332 -0.1335  0.0752 -0.0074
59603W        W 2697   2.552  14.107   4.406  0.1908  0.0183  0.0195
59604W        W 2698   2.832  10.526   3.655 -0.0712 -0.1825 -0.0419
59605W        W 2699   2.570  13.856   7.771 -0.0586 -0.1699 -0.1659
59606W        W 2700  33.828  13.389   3.540  0.3202 -0.1300 -0.4935
59607W        W 2701   1.388  11.247   7.619 -0.2907 -0.1915 -0.0078
59608W        W 2702   0.525  10.774   7.492  0.0345 -0.0913  0.0877
59609W        W 2703   0.892  10.938   4.515  0.1599 -0.3204  0.1030
59610W        W 2704   1.853  11.547   5.348 -0.3226  0.1677  0.0184
59611W        W 2705   2.656  13.259   5.241  0.0943 -0.3920 -0.1976
59612W        W 2706   1.848  13.955   3.117 -0.0963 -0.2074  0.3063
59613W        W 2707   1.918  13.539   5.894 -0.3657 -0.1467  0.1785
59614W        W 2708   1.647  12.350   6.547  0.2625  0.3570 -0.4216
59615W        W 2709   1.200  10.151   7.346 -0.0218 -0.1983 -0.2301
59616W        W 2710   3.008  13.100   5.612  0.1082 -0.0095  0.3383
59617W        W 2711   1.238  13.408   5.949 -0.0193 -0.0324 -0.3924
59618W        W 2712   3.663  13.394   4.772  0.2946 -0.2701  0.1277
59619W        W 2713   4.562   9.995   6.401  0.2056 -0.0291  0.4054
59620W        W 2714   2.998  12.064   4.306  0.4428 -0.0685 -0.2990
59621W        W 2715   0.593  10.735   8.007 -0.2747  0.2221  0.1798
59622W        W 2716   0.340  12.666   6.500 -0.1828  0.1197  0.1438
59623W        W 2717   3.018  13.138   6.275  0.3879  0.0191 -0.0430
59624W        W 2718   2.049  11.933   6.346 -0.2455 -0.2054 -0.0591
59625W        W 2719   2.816  12.212   3.827  0.0989  0.3740 -0.3921
59626W        W 2720   2.344  13.062   4.809 -0.0302  0.1640  0.2849
59627W        W 2721   0.578  12.948   5.420 -0.0408  0.0392  0.1357
59628W        W 2722   1.872  11.242   4.869  0.2374 -0.2884  0.3528
59629W        W 2723   1.517  13.714   5.615  0.3468  0.0650 -0.0597
59630W        W 2724   2.019  12.836   5.125 -0.1865  0.1829 -0.1384
59631W        W 2725   2.184  12.392   8.771  0.2890 -0.1165 -0.0700
59632W        W 2726   0.904  12.122   4.820  0.0449 -0.1434 -0.2472
59633W        W 2727   3.933  12.980   5.321 -0.1770  0.2298 -0.3187
59634W        W 2728   2.195  14.713   6.837  0.2810  0.1118 -0.2134
59635W        W 2729   3.443  14.401   6.572  0.2305  0.3713 -0.2842
59636W        W 2730   1.196  12.550   6.564  0.0881  0.0701 -0.3335
59637W        W 2731   2.713  13.520   5.645  0.1352 -0.0293 -0.2907
59638W        W 2732   0.859   8.950   5.995 -0.0937 -0.2072  0.4122
59639W        W 2733  34.272  12.761   4.468 -0.4283  0.1501 -0.1104
59640W        W 2734   0.550  12.531   4.673 -0.1196  0.2432  0.2058
59641W        W 2735   3.611  11.633   5.483 -0.3956  0.2741  0.1438
59642W        W 2736   0.728  11.984   5.303  0.0715 -0.0882 -0.1332
59643W        W 2737   3.245  10.408   4.172  0.0810  0.1032  0.0079
59644W        W 2738   1.179  14.350   6.639  0.1498  0.3009  0.1953
59645W        W 2739   2.357  12.210   7.105 -0.1593  0.0650  0.0130
59646W        W 2740  34.561  11.554   8.585  0.4589  0.1456 -0.1656
59647W        W 2741   1.220  12.454   8.553  0.4645 -0.1921  0.4992
59648W        W 2742   2.756  10.931   8.278  0.1049 -0.3532 -0.4825
59649W        W 2743   3.177  12.272   9.111  0.0803  0.0377  0.0928
59650W        W 2744  33.601  11.879   9.101 -0.0580 -0.0461  0.1485
59651W        W 2745   2.260  14.259   8.018 -0.0483 -0.0381  0.1629
59652W        W 2746   2.217  13.414   9.651 -0.0697  0.1576 -0.1083
59653W        W 2747   2.555  16.241   9.127 -0.0394  0.3450  0.0500
59654W        W 2748   1.864  12.921   7.522  0.0442 -0.4159 -0.0189
59655W        W 2749   1.660  11.353   9.204  0.1963 -0.2544  0.0671
59656W        W 2750   1.896  10.913   9.875  0.3895 -0.3942  0.3375
59657W        W 2751   0.542  10.636   8.802  0.1097 -0.1915  0.0820
59658W        W 2752   2.030  11.593   9.444 -0.0424 -0.0545 -0.2382
59659W        W 2753   0.654  12.426   8.265  0.1195  0.1680 -0.2827
59660W        W 2754   0.061  12.464   9.807 -0.1189 -0.1691 -0.1007
59661W        W 2755   1.029  11.711   8.292  0.1883  0.0804  0.0755
59662W        W 2756   1.594  14.808   8.139 -0.0298  0.1785  0.2981
59663W        W 2757   1.864   9.545  10.219 -0.0909  0.1189 -0.1498
59664W        W 2758  34.689  11.882   9.614  0.1688 -0.0054  0.2308
59665W        W 2759   0.890  11.920   6.599  0.0687  0.1142 -0.1400
59666W        W 2760   0.507  13.074   9.246 -0.2169  0.1236  0.4313
59667W        W 2761   3.267  13.408   8.824 -0.2302 -0.0236 -0.2434
59668W        W 2762   2.598  11.545   9.062 -0.0256 -0.0275  0.0469
59669W        W 2763   2.136  13.719   8.730 -0.0118 -0.0129  0.2000
59670W        W 2764  34.621  15.106   9.087 -0.0376  0.1056 -0.0480
59671W        W 2765   2.769  15.422   9.857  0.0768 -0.0707 -0.4047
59672W        W 2766   1.151  13.571   8.904  0.0560  0.1394  0.3778
59673W        W 2767  33.729  14.227   8.772 -0.4765  0.1880 -0.4297
59674W        W 2768   0.911  14.164   8.598  0.1222 -0.1997  0.0690
59675W        W 2769   3.656  13.955   8.128 -0.0255  0.1512  0.2211
59676W        W 2770   0.535  14.169   7.703 -0.0520  0.0355 -0.1827
59677W        W 2771   2.426   9.921  10.187 -0.0782 -0.0022 -0.1708
59678W        W 2772   3.371  13.001   9.171 -0.0944 -0.3439  0.2378
59679W        W 2773   1.237  13.511   7.835 -0.0429  0.1234  0.0781
59680W        W 2774   2.910  13.197   9.100  0.0322 -0.0413  0.0538
59681W        W 2775  34.392  13.502   8.492 -0.0001  0.1667  0.2619
59682W        W 2776   1.247  14.555   7.853 -0.0543 -0.0125 -0.2208
59683W        W 2777   2.535  10.990   7.658 -0.2542  0.1064 -0.0829
59684W        W 2778  34.581  11.156   6.309  0.1493  0.2602  0.1849
59685W        W 2779   2.261  11.373   7.775 -0.0952 -0.2572  0.1521
59686W        W 2780  34.660  13.003   8.569 -0.0184 -0.0603 -0.1067
59687W        W 2781   1.161  14.741   9.319 -0.1232 -0.2716 -0.2727
59688W        W 2782  34.586   9.996   9.976 -0.3010 -0.1489  0.2949
59689W        W 2783   1.586  12.190   8.694  0.1488  0.1610 -0.1506
59690W        W 2784   3.160  12.268   9.587  0.2861  0.0056  0.1823
59691W        W 2785  34.495  13.285   9.561 -0.0196  0.4903  0.2873
59692W        W 2786  34.072  12.228   9.160  0.3128  0.2457 -0.1015
59693W        W 2787   2.455  14.295   7.543  0.3449 -0.5167 -0.0964
59694W        W 2788   3.591  12.155   8.644  0.0221 -0.0457  0.2474
59695W        W 2789   2.748  13.427   7.572  0.2439 -0.0744 -0.0299
59696W        W 2790   1.001  12.155   7.994 -0.1933 -0.0836 -0.0329
59697W        W 2791   0.789   9.855   7.293 -0.3412 -0.2665  0.0045
59698W        W 2792   1.825  10.893   9.374  0.1288  0.2588  0.3385
59699W        W 2793   2.552  14.160   9.056  0.3607 -0.4653 -0.1239
59700W        W 2794   3.099  13.609   9.372 -0.1883  0.0211 -0.0539
59701W        W 2795   3.637  12.843   7.108 -0.2429 -0.2146  0.1359
59702W        W 2796   1.988  10.101   9.975  0.1361  0.2332  0.0345
59703W        W 2797   1.660  11.914   9.362  0.0207  0.1721  0.0066
59704W        W 2798   3.307  12.306   8.122  0.1273  0.1954 -0.1445
59705W        W 2799   3.500  14.593   9.997  0.1937 -0.0736  0.2986
59706W        W 2800   5.137  15.165   9.122 -0.0504 -0.0968 -0.1060
59707W        W 2801   2.862  11.437   8.583  0.0699  0.2157 -0.1577
59708W        W 2802   0.873  13.223   8.278 -0.0867  0.3459 -0.0813
59709W        W 2803   0.466  13.155   6.630  0.4556  0.1437 -0.0907
59710W        W 2804   0.643  15.372   9.887 -0.0770  0.3315  0.0182
59711W        W 2805   0.267  14.861   8.474  0.0234 -0.1461 -0.1342
59712W        W 2806   0.803  10.222   9.292  0.1544  0.3357 -0.0129
59713W        W 2807   2.543  11.116   9.769  0.3473  0.0877 -0.0739
59714W        W 2808   1.711  10.266   7.703  0.1893  0.0532 -0.1253
59715W        W 2809   2.835   9.819   8.219 -0.1436 -0.2308 -0.1410
59716W        W 2810   1.166  12.325   7.426  0.1420  0.0391  0.0801
59717W        W 2811   3.325  16.917   8.986 -0.1461 -0.2219  0.0556
59718W        W 2812   2.139  11.203   6.992 -0.2437  0.1026 -0.0669
59719W        W 2813   3.178  13.637   8.359  0.0687  0.1270 -0.0032
59720W        W 2814  34.365  14.175   9.355  0.1516 -0.0800  0.0172
59721W        W 2815   1.180  12.246   9.702  0.1078 -0.0289 -0.1959
59722W        W 2816   1.719  11.061   8.377 -0.0117  0.0864 -0.0929
59723W        W 2817   0.640  11.990   8.457 -0.1245  0.0201  0.3805
59724W        W 2818   3.211  10.979   8.559 -0.0235 -0.0288 -0.1125
59725W        W 2819   0.375  13.268   8.285  0.3187  0.0416 -0.3104
59726W        W 2820  34.415  13.538   9.156  0.2401  0.2860  0.1742
59727W        W 2821   2.142  14.493   8.444  0.0231  0.0205 -0.0271
59728W        W 2822   3.763  14.309   8.503  0.1075  0.0064  0.0087
59729W        W 2823   2.555  15.304   9.000  0.1660  0.0873 -0.0980
59730W        W 2824  33.989  11.268   8.315 -0.0989 -0.0376 -0.3379
59731W        W 2825   0.750  11.896   9.056 -0.1798 -0.2576  0.1084
59732W        W 2826  33.798  15.053   9.468  0.1754 -0.0833  0.4065
59733W        W 2827   1.814  13.120   8.602 -0.0699  0.0335  0.1079
59734W        W 2828   2.775  12.004   8.043  0.2662  0.1804  0.0202
59735W        W 2829   3.442  13.907   8.862 -0.0507 -0.3734  0.0521
59736W        W 2830   2.684  13.220   9.852 -0.3599 -0.0441  0.0554
59737W        W 2831   3.752  14.786   9.533  0.0380  0.0102  0.1232
59738W        W 2832   0.959  12.830   9.596 -0.4227  0.2342 -0.0333
59739W        W 2833   0.585  11.404   6.649  0.0158 -0.0098 -0.0069
59740W        W 2834   1.900  15.029   8.545  0.2172  0.1736  0.2716
59741W        W 2835  33.701  13.282   7.618 -0.4511  0.0080 -0.2474
59742W        W 2836   0.929  11.886   7.613 -0.2356  0.5268 -0.1808
59743W        W 2837   0.770  15.011   9.390 -0.0314  0.0582  0.2316
59744W        W 2838   3.894  10.200   9.620  0.0232  0.2316 -0.2569
59745W        W 2839   0.381  11.773   6.927  0.0161  0.2016  0.0356
59746W        W 2840   1.020  10.899   8.239  0.3189  0.1374  0.0641
59747W        W 2841   2.185  10.854   8.252  0.2146  0.1514  0.0797
59748W        W 2842   2.588  12.317   8.412 -0.0560 -0.1993  0.0904
59749W        W 2843   1.784  10.730   6.913 -0.1385 -0.0555 -0.1357
59750W        W 2844   2.933  10.431   7.339 -0.1500 -0.0891 -0.0289
59751W        W 2845   1.698  14.413   9.160  0.1787 -0.0044 -0.0694
59752W        W 2846   1.931  15.227   9.076 -0.2396 -0.2620  0.2536
59753W        W 2847   0.880  11.711   9.524  0.0122 -0.2210  0.2461
59754W        W 2848   4.234  14.360   8.617 -0.2688 -0.2001  0.1280
59755W        W 2849   1.070  13.237   9.241 -0.2508  0.0812  0.0681
59756W        W 2850   3.693  13.484   8.229  0.0959  0.1770  0.0244
59757W        W 2851   1.763   8.729   9.621  0.0429 -0.0208  0.2238
59758W        W 2852   1.838  12.328   9.089  0.1108 -0.1823 -0.2692
59759W        W 2853   1.337  11.478   9.548  0.0508  0.1114  0.0365
59760W        W 2854  34.209  14.075   7.766 -0.0007  0.1525  0.0174
59761W        W 2855   4.575   9.717   9.398  0.0763  0.1224  0.2751
59762W        W 2856   0.333   8.985  10.556  0.2027 -0.3433  0.2201
59763W        W 2857   2.863  11.920   9.346 -0.1989 -0.0365  0.2476
59764W        W 2858   4.060  12.769   8.767  0.3441 -0.1301  0.1249
59765W        W 2859  34.586  11.892   6.799 -0.0546 -0.0808 -0.2613
59766W        W 2860   4.812   6.198   9.387  0.1640 -0.0843 -0.0066
59767W        W 2861   2.009  14.448   9.591 -0.0642 -0.2190 -0.0126
59768W        W 2862   2.173  12.584   7.401 -0.0949  0.1748 -0.1461
59769W        W 2863   1.321  11.699   7.878  0.2105 -0.0808 -0.0777
59770W        W 2864   1.180  14.549   8.748 -0.1923  0.2367 -0.1558
59771W        W 2865   2.567  13.455   8.807 -0.1899 -0.4799  0.0929
59772W        W 2866   1.177  11.090  10.217 -0.2882 -0.1977 -0.0434
59773W        W 2867   0.178  11.627  10.008 -0.0404  0.0167 -0.0347
59774W        W 2868   2.429  13.164   8.063 -0.1674 -0.3223  0.0706
59775W        W 2869   0.538   9.909   9.668 -0.0257 -0.0291 -0.2567
59776W        W 2870   0.762  14.537   9.081 -0.0026  0.1668 -0.3390
59777W        W 2871   3.255  10.767   9.099 -0.3708  0.3699  0.2663
59778W        W 2872  33.696  13.820   8.357  0.0159 -0.1464 -0.4086
59779W        W 2873   1.198  13.052   8.677  0.2844 -0.0217  0.0243
59780W        W 2874   0.908  12.689   7.133  0.2150  0.1217 -0.1614
59781W        W 2875   2.235  10.441   8.555  0.0935 -0.0437 -0.0123
59782W        W 2876   3.253  11.584   8.075 -0.0599 -0.1642  0.0804
59783W        W 2877   0.122  10.107   8.517 -0.4240  0.1774 -0.0096
59784W        W 2878   1.038  10.630   8.808  0.0712 -0.0912  0.0569
59785W        W 2879  32.549  16.089   9.850 -0.4702 -0.0529  0.0975
59786W        W 2880   1.360  10.526   6.911 -0.1402 -0.1215 -0.1171
59787W        W 2881   1.544  10.646   7.475  0.0666 -0.0033  0.1324
59788W        W 2882   4.961  11.850   9.071  0.0591 -0.1169  0.0526
59789W        W 2883   2.809  11.328   9.409  0.2097 -0.1583 -0.0048
59790W        W 2884   0.579  13.702   8.423 -0.2009  0.0345 -0.2725
59791W        W 2885   3.522  15.221   8.605 -0.0329  0.2043  0.1578
59792W        W 2886   1.430  12.016   8.240 -0.1448 -0.0446  0.1729
59793W        W 2887   0.011  13.964   9.007  0.1706 -0.0650  0.0738
59794W        W 2888   4.409  12.984   9.056  0.0611 -0.0617 -0.2148
59795W        W 2889   1.644  12.422   9.580 -0.0113 -0.1765 -0.1787
59796W        W 2890   1.440  12.936   9.436  0.1237 -0.1817 -0.0672
59797W        W 2891   1.653  11.728   8.908 -0.0126  0.3663 -0.1790
59798W        W 2892   2.480  14.396   9.574 -0.2067 -0.2686 -0.0761
59799W        W 2893   2.108  11.477   8.940 -0.2164  0.1322  0.0368
59800W        W 2894   2.107  10.655   7.788 -0.1089 -0.0406 -0.1266
59801W        W 2895   3.097  13.878   7.952 -0.3015 -0.1572 -0.1137
59802W        W 2896   0.035  12.878   8.069  0.2582  0.0223 -0.2526
59803W        W 2897   0.403  14.461   9.458 -0.1453 -0.0211 -0.0439
59804W        W 2898   1.450  12.912   7.858  0.0902 -0.0681  0.0877
59805W        W 2899   1.460  11.016   9.691  0.2209 -0.2296 -0.2802
59806W        W 2900   2.288  10.711   9.534 -0.0686 -0.2599 -0.2717
59807W        W 2901   0.950  14.348   9.623 -0.0410  0.0248  0.0888
59808W        W 2902   1.119  11.974   8.734  0.2162 -0.0513 -0.2115
59809W        W 2903   2.485  10.512   8.111 -0.1629  0.1054 -0.0561
59810W        W 2904   2.192  13.428   7.695 -0.2153 -0.1307  0.4791
59811W        W 2905   3.010  12.725   9.389 -0.5578 -0.2800 -0.0132
59812W        W 2906   1.894  11.054   7.390 -0.1313  0.0278  0.0102
59813W        W 2907  34.422  10.996   8.485 -0.0066 -0.1886 -0.0746
59814W        W 2908   3.977  13.013   8.247 -0.0957  0.2664  0.1277
59815W        W 2909   2.426  11.802   8.594 -0.3328 -0.2912 -0.2293
59816W        W 2910   1.167  10.345   7.807 -0.3001 -0.1747  0.1597
59817W        W 2911   3.531  12.616   8.950  0.0947 -0.1651 -0.0972
59818W        W 2912   2.930  11.302   7.808 -0.0324 -0.1145 -0.0093
59819W        W 2913   1.901  13.139   8.041 -0.1515  0.1370 -0.2784
59820W        W 2914   5.534  10.266   8.355 -0.0486  0.0685 -0.1796
59821W        W 2915   1.456  14.423   9.756 -0.3962 -0.1813  0.0982
59822W        W 2916   1.704  13.693   8.010 -0.1208 -0.3406 -0.0578
59823W        W 2917   1.853  14.120   8.305 -0.0054 -0.1178 -0.0243
59824W        W 2918   1.315  13.910   9.857  0.0828  0.0538 -0.0981
59825W        W 2919   1.030  11.681  10.015  0.2595 -0.1629 -0.1704
59826W        W 2920   2.336  12.861   8.853 -0.0196  0.0895 -0.0548
59827W        W 2921   1.479  17.733   9.674 -0.0661 -0.0566  0.0716
59828W        W 2922   3.319  10.129   7.530 -0.0917 -0.2316  0.0379
59829W        W 2923   3.208  10.638   9.964 -0.1759  0.1343 -0.3895
59830W        W 2924   3.128  12.407   8.657  0.2377 -0.1431 -0.0800
59831W        W 2925   2.327  12.188   7.691  0.0882 -0.2461  0.3201
59832W        W 2926  34.039  13.207   9.338  0.0215  0.1990 -0.0941
59833W        W 2927   1.522  11.924   7.418  0.0775 -0.0079  0.0028
59834W        W 2928   1.424  14.100   7.857 -0.3823 -0.0259 -0.2730
59835W        W 2929   3.149  13.173   9.666 -0.0672 -0.1883 -0.0711
59836W        W 2930   1.292  11.299   8.147 -0.3802 -0.2245  0.0714
59837W        W 2931   0.744  12.425   8.753  0.0710  0.3211 -0.1539
59838W        W 2932   1.930  11.841   8.516  0.0290  0.1594  0.1063
59839W        W 2933   0.389  12.748   7.520 -0.0140  0.2016 -0.0802
59840W        W 2934   4.759  10.506   9.316  0.4812  0.1514  0.1666
59841W        W 2935   1.695   9.745   6.584  0.3867  0.2903 -0.1030
59842W        W 2936   0.624  12.896   7.967 -0.1599 -0.2264  0.2746
59843W        W 2937   2.100  11.327   8.360  0.1144 -0.1553 -0.3134
59844W        W 2938  33.771  14.829  10.314 -0.0791 -0.1219 -0.0634
59845W        W 2939   1.567  14.886   9.081  0.3320 -0.2165  0.1543
59846W        W 2940   3.390   8.134  10.244  0.0217  0.1499 -0.0028
59847W        W 2941   4.388  11.850   9.026  0.0472  0.0876 -0.1356
59848W        W 2942   1.324  10.026  10.275  0.0175  0.0342  0.1373
59849W        W 2943   2.132  13.867   9.378 -0.1526 -0.1391  0.0071
59850W        W 2944   2.643  14.866   9.704 -0.0333 -0.1176  0.1290
59851W        W 2945   1.092  13.267   9.736  0.1126  0.3104  0.0751
59852W        W 2946   3.102  14.959   9.915  0.0514 -0.2688  0.1964
59853W        W 2947   1.158  10.455   8.336  0.0614 -0.1286  0.0203
59854W        W 2948   1.763  14.477   6.685  0.0172  0.2577 -0.1064
59855W        W 2949   0.643  13.750   8.928  0.3033 -0.3559 -0.0060
59856W        W 2950   0.371  15.005   7.629 -0.0243 -0.4536 -0.2520
59857W        W 2951   2.989  12.993   7.775 -0.1915 -0.2357  0.4280
59858W        W 2952   2.761  13.541   8.086 -0.0350 -0.1214 -0.2566
59859W        W 2953  34.361  12.324   9.580  0.1593  0.0008 -0.3202
59860W        W 2954   1.466  11.620   8.500 -0.2893 -0.0046 -0.1262
59861W        W 2955   0.099  14.657   9.157 -0.0633 -0.2590 -0.0670
59862W        W 2956  34.618  13.367   8.095  0.3725 -0.1366  0.0827
59863W        W 2957   3.896  14.835   8.562  0.0246  0.2030  0.2055
59864W        W 2958  34.240  15.940   9.552 -0.1338 -0.2175 -0.0137
59865W        W 2959   3.290  10.591   8.189 -0.5381 -0.2528 -0.2627
59866W        W 2960   2.601  12.594   9.768 -0.2008  0.1248  0.0708
59867W        W 2961   2.818  10.726   8.742 -0.0951  0.0464 -0.4188
59868W        W 2962   1.607  10.524  10.166  0.1087 -0.0516  0.0817
59869W        W 2963   1.165  11.204   8.612  0.1108  0.2153 -0.1793
59870W        W 2964   2.568  14.650   7.960  0.2052 -0.2354  0.2163
59871W        W 2965   1.535  12.710   8.838 -0.0239 -0.0985 -0.0253
59872W        W 2966   1.926  12.808   9.100  0.1703  0.0571 -0.2723
59873W        W 2967   3.025   9.559  10.249  0.2906 -0.1962 -0.1385
59874W        W 2968   2.026  13.921   7.782 -0.1908 -0.2134 -0.3545
59875W        W 2969   2.982  10.398   9.357 -0.1831  0.1255  0.1650
59876W        W 2970   1.675  14.015   9.525  0.1657  0.2752  0.0491
59877W        W 2971   1.930  15.661   9.390  0.0449  0.0567  0.2626
59878W        W 2972  32.131  13.425  10.325  0.2313 -0.1623 -0.1796
59879W        W 2973   0.783  11.092   7.063 -0.3033 -0.0672 -0.3505
59880W        W 2974   3.929  10.738   8.825 -0.5357 -0.1846  0.0302
59881W        W 2975  33.862  11.506   9.753  0.3206  0.1621  0.1075
59882W        W 2976   2.582  13.569   9.327 -0.0339 -0.0021 -0.0263
59883W        W 2977   1.625  13.600   8.582 -0.3440  0.0280  0.3874
59884W        W 2978   3.658  13.030   8.727  0.1825 -0.2434 -0.3307
59885W        W 2979   2.479  11.663   9.631  0.3435  0.0457  0.0272
59886W        W 2980   2.108  12.712   8.392  0.0973  0.1595  0.0965
59887W        W 2981   1.838  11.542   7.597  0.3684 -0.0671  0.0267
59888W        W 2982  34.581  11.421   8.029  0.1702 -0.3478  0.1473
59889W        W 2983   1.747  12.357   7.389 -0.0001  0.1824  0.0412
59890W        W 2984   1.095  12.755   8.136 -0.0249  0.1359 -0.0618
59891W        W 2985   1.847  11.533   9.922 -0.0252 -0.0096 -0.2411
59892W        W 2986   0.229  12.327   9.286 -0.3108 -0.0456  0.0300
59893W        W 2987   3.463  12.871   7.874  0.0233  0.0016 -0.3292
59894W        W 2988   2.202   9.960   8.915  0.0048  0.2244  0.0034
59895W        W 2989   1.335  15.400   8.205 -0.1104  0.0798 -0.1323
59896W        W 2990   2.814  13.231   8.430 -0.3738  0.0766 -0.3319
59897W        W 2991   2.969  13.887   8.757 -0.1868 -0.2402 -0.2666
59898W        W 2992   0.078  12.978  10.004 -0.2288  0.0052 -0.0574
59899W        W 2993   4.520  12.546   9.688 -0.0481  0.0706 -0.1303
59900W        W 2994   4.543  12.241   8.766 -0.3544 -0.3380  0.0791
59901W        W 2995   3.708  11.720   8.902  0.2344 -0.0508  0.2171
59902W        W 2996   1.884  13.029   9.593 -0.1265  0.2330 -0.0611
59903W        W 2997   0.878  15.323   7.436 -0.0108  0.0125 -0.0373
59904W        W 2998   3.779  11.029   9.372 -0.0355  0.0482 -0.0651
59905W        W 2999   1.695  14.833   7.564  0.0644 -0.1878  0.0280
59906W        W 3000   5.471  11.798   7.631  0.2447  0.1247 -0.1200
59907W        W 3001   1.432  13.292   8.217  0.0054 -0.0730 -0.1702
59908W        W 3002   2.110  13.311   8.996  0.0092  0.2318  0.0491
59909W        W 3003   1.468  14.395   8.327  0.1265 -0.1555 -0.2038
59910W        W 3004   2.267  13.777   8.236  0.0418  0.0840 -0.1864
59911W        W 3005   1.199  14.123   9.123 -0.2432 -0.1462 -0.1103
59912W        W 3006   4.924  12.781   7.857  0.1311  0.2038  0.0244
59913W        W 3007   0.579  11.295   9.552  0.1134 -0.3052  0.1914
59914W        W 3008   4.560  10.343   7.292 -0.0725  0.1263  0.2436
59915W        W 3009   1.904  10.366   8.907  0.2217 -0.1078  0.0317
59916W        W 3010  34.306  11.836   9.305  0.0216  0.0819  0.0088
59917W        W 3011  34.266  11.562   6.517  0.0715  0.0145 -0.4617
59918W        W 3012   1.403  12.424   7.850  0.0337  0.0007 -0.1087
59919W        W 3013   1.617  11.950   9.844  0.0079 -0.0281  0.0128
59920W        W 3014   0.149  13.915   9.578  0.2163 -0.1489 -0.1215
59921W        W 3015   0.654  10.402   8.404  0.1513 -0.1177 -0.2212
59922W        W 3016   4.761  12.331   8.253  0.0013  0.1846 -0.1393
59923W        W 3017   1.154  10.562   9.564  0.3011  0.2342  0.0460
59924W        W 3018  33.804  10.742   8.064 -0.1860  0.0783  0.3131
59925W        W 3019   0.604  14.833   9.895 -0.0858  0.0113 -0.2006
59926W        W 3020   1.133  13.657   8.434  0.0707 -0.1387  0.2962
59927W        W 3021   2.490  11.174   8.667  0.1101 -0.2731 -0.2110
59928W        W 3022  33.538  11.584   8.109  0.1323 -0.1621 -0.1209
59929W        W 3023  34.533  10.245   7.783  0.1713 -0.0350  0.1316
59930W        W 3024   4.267   9.067   8.813  0.2336  0.0402  0.2533
59931W        W 3025   2.922  14.852   8.833 -0.0182  0.0228 -0.0909
59932W        W 3026   3.122  13.531   7.248  0.1416  0.2462 -0.1052
59933W        W 3027   0.056  11.133  10.034  0.1878 -0.0687  0.0191
59934W        W 3028   2.759  12.081   8.848  0.0459 -0.0181 -0.1338
59935W        W 3029   4.541  13.451   8.522  0.1381 -0.1553  0.2360
59936W        W 3030   3.592  10.527   9.423 -0.1791 -0.3717 -0.2085
59937W        W 3031   1.658  13.380   7.622  0.3072 -0.1654 -0.1026
59938W        W 3032   3.879  12.917   9.202  0.1814  0.0867 -0.1462
59939W        W 3033   0.692  11.119   9.043 -0.4777  0.0406  0.0363
59940W        W 3034   0.752  11.541   8.684  0.0236 -0.3518  0.3941
59941W        W 3035   0.651  12.829   8.529  0.2031  0.1398  0.1682
59942W        W 3036   0.488  11.997   9.688  0.1535 -0.0596  0.0239
59943W        W 3037   2.481  12.621   7.951  0.2040  0.1579  0.1306
59944W        W 3038   2.256  13.300   8.499 -0.1135  0.2115 -0.2837
59945W        W 3039   1.779  13.682   7.301 -0.0477 -0.0963  0.4098
59946W        W 3040   3.671  12.140   7.617 -0.1492  0.1729  0.1523
59947W        W 3041   1.712  15.007   9.544  0.0822 -0.0787  0.1128
59948W        W 3042   2.599  14.665   9.166 -0.2279  0.0872  0.3139
59949W        W 3043   2.987  14.826   8.323  0.1093  0.2015  0.2697
59950W        W 3044   1.151  11.008   9.269  0.0944  0.1280 -0.0624
59951W        W 3045   1.584  13.851   9.092 -0.1074  0.1923 -0.0854
59952W        W 3046   0.096  13.891   8.478 -0.0808  0.0872  0.0416
59953W        W 3047   4.513   9.522   8.848  0.1430  0.0773 -0.0020
59954W        W 3048   2.004  10.961   8.842 -0.0153 -0.3678  0.1402
59955W        W 3049   2.179  11.985   9.032 -0.1308 -0.0395  0.0052
59956W        W 3050  33.367  13.979  10.027 -0.0453  0.0020  0.0484
59957W        W 3051   4.801  11.387   9.276  0.0731  0.1027  0.3345
59958W        W 3052   0.066  16.998   3.333  0.0737  0.1574 -0.1193
59959W        W 3053   1.407  14.657  30.648  0.1745  0.0789 -0.2780
59960W        W 3054   3.221  15.376  31.217  0.0342  0.2946 -0.1627
59961W        W 3055   3.977  17.596  31.578 -0.2338  0.0641 -0.2298
59962W        W 3056   1.054  15.061   1.989 -0.0776 -0.1634  0.1123
59963W        W 3057   3.471  16.894   1.078 -0.0468 -0.1104  0.3780
59964W        W 3058  33.815  13.790   3.931 -0.0833 -0.4435 -0.0238
59965W        W 3059   2.532  16.842   1.750  0.3881  0.0887 -0.0151
59966W        W 3060   3.801  17.464   0.705  0.2518  0.3752 -0.1979
59967W        W 3061   3.002  16.649   0.240  0.0475 -0.0150  0.1390
59968W        W 3062   0.793  14.864   2.386 -0.1615 -0.0720  0.0562
59969W        W 3063   2.300  18.107   3.133  0.1102 -0.0702  0.2267
59970W        W 3064   1.053  15.755   0.997  0.1259  0.0225  0.0158
59971W        W 3065  34.240  14.223   1.548 -0.0643  0.2661 -0.4144
59972W        W 3066   3.534  16.385   1.932  0.2754  0.2585  0.1047
59973W        W 3067   1.600  16.973   0.700 -0.3185  0.2867  0.2834
59974W        W 3068   0.657  17.069   3.491  0.0445 -0.2694  0.1605
59975W        W 3069   0.078  16.487   0.160 -0.2342  0.2081  0.1147
59976W        W 3070   2.155  17.241  31.569  0.0098  0.0057 -0.2254
59977W        W 3071   0.490  15.151   2.758  0.1552  0.0127 -0.2760
59978W        W 3072   3.446  13.044   3.472 -0.0841  0.0373  0.0414
59979W        W 3073   1.839  17.424   0.742 -0.0004 -0.0460 -0.1907
59980W        W 3074  34.413  16.675   0.427 -0.0948 -0.2341 -0.1293
59981W        W 3075   0.317  14.996   1.405  0.1298 -0.3093  0.2392
59982W        W 3076   1.522  15.432   2.924  0.0145 -0.1256  0.1211
59983W        W 3077   2.443  15.616   1.034  0.0940 -0.2365 -0.2835
59984W        W 3078   3.232  16.048   1.708 -0.0024 -0.2113 -0.0380
59985W        W 3079   1.939  17.144   2.770  0.0464  0.0191 -0.2592
59986W        W 3080   2.280  17.495   1.137  0.2914  0.0197 -0.2170
59987W        W 3081   0.727  15.907   2.562 -0.0440 -0.0535 -0.1663
59988W        W 3082   0.688  17.169   1.323  0.0302 -0.1084  0.3221
59989W        W 3083  34.072  17.499   1.303 -0.2051  0.1817 -0.1528
59990W        W 3084   1.486  17.088   2.936  0.0879  0.3225  0.3017
59991W        W 3085   3.423  17.758   1.032  0.0996  0.4055  0.2213
59992W        W 3086   4.356  17.513   3.306  0.0132 -0.0065 -0.1246
59993W        W 3087   2.003  18.044   3.908  0.2963 -0.0860 -0.0013
59994W        W 3088   2.069  16.271   1.423 -0.1434  0.1946  0.2053
59995W        W 3089   2.122  16.095   2.724 -0.0231  0.1551  0.0296
59996W        W 3090   0.928  18.442   1.683  0.0151 -0.3949  0.1321
59997W        W 3091   2.428  17.375   2.711  0.0392  0.0957  0.2301
59998W        W 3092   2.421  16.064   0.776  0.1680 -0.0345 -0.0255
59999W        W 3093   1.701  18.409   0.903 -0.0462 -0.0456 -0.2191
60000W        W 3094   2.784  16.274   1.046  0.2168  0.0091 -0.0062
60001W        W 3095   1.437  16.301   3.181  0.0124  0.2475 -0.1337
60002W        W 3096   0.312  16.359   1.144 -0.0285  0.0106  0.0814
60003W        W 3097   2.516  15.701   2.748  0.1559 -0.0615 -0.0979
60004W        W 3098   0.324  17.449  31.828  0.0540  0.0293  0.2586
60005W        W 3099   2.253  16.114   0.291  0.2660 -0.0424  0.0942
60006W        W 3100  34.637  15.594  30.385 -0.0332  0.1375  0.1840
60007W        W 3101   3.566  16.701   0.588 -0.2651  0.1141 -0.2304
60008W        W 3102   1.915  13.653   1.301  0.1247  0.3882 -0.2137
60009W        W 3103  34.592  17.717   2.806 -0.0847  0.1470 -0.0042
60010W        W 3104   0.279  14.138   2.665 -0.1619  0.0798  0.0626
60011W        W 3105   1.760  15.856   3.061 -0.0095 -0.2870 -0.1321
60012W        W 3106   2.433  16.549   0.269  0.0848  0.1702  0.0394
60013W        W 3107   1.614  16.157   2.626  0.2462 -0.0568  0.0306
60014W        W 3108   1.851  17.462   3.255 -0.2505  0.1864  0.1960
60015W        W 3109  33.856  15.093   2.140 -0.0403  0.0349  0.0977
60016W        W 3110   2.662  16.816  31.866  0.3142  0.0158 -0.3235
60017W        W 3111   3.317  16.291   0.305  0.1384 -0.0496 -0.0278
60018W        W 3112   2.361  16.888  30.587 -0.0342 -0.2696  0.1363
60019W        W 3113  34.263  16.261  31.907 -0.0193 -0.0320  0.1513
60020W        W 3114   0.576  16.260   3.664 -0.0919 -0.1451  0.1728
60021W        W 3115   0.197  16.818   4.427  0.2123 -0.0886  0.0300
60022W        W 3116  34.588  14.720  31.743  0.0218 -0.3140  0.2604
60023W        W 3117   4.092  16.645   4.101 -0.2789 -0.0160 -0.3785
60024W        W 3118  34.241  17.047   3.509  0.0563  0.0518  0.0272
60025W        W 3119   3.391  16.055   1.134  0.1223  0.0028  0.0353
60026W        W 3120   1.770  16.150   2.109 -0.3425 -0.0482  0.2581
60027W        W 3121   3.011  16.773   3.107 -0.1302 -0.2325 -0.3111
60028W        W 3122   3.033  16.701  31.400  0.0218  0.0210  0.0562
60029W        W 3123   1.567  15.795   0.867 -0.2067  0.1930 -0.0976
60030W        W 3124   2.581  14.695   2.639 -0.1269 -0.3240  0.1756
60031W        W 3125   2.096  16.443  30.647 -0.0200  0.2686  0.2138
60032W        W 3126   1.318  17.054  31.600 -0.1058 -0.2304 -0.1677
60033W        W 3127   4.655  15.799   2.330 -0.0052 -0.1569 -0.1309
60034W        W 3128   3.032  17.621  31.399  0.2085 -0.2997 -0.0797
60035W        W 3129   0.022  18.405   2.275 -0.0888 -0.1822  0.0176
60036W        W 3130   1.567  14.136   2.129 -0.1594  0.0738  0.1236
60037W        W 3131   2.821  16.974   4.719 -0.0357 -0.0812 -0.1234
60038W        W 3132   0.837  17.368   0.914 -0.0408 -0.2641  0.3035
60039W        W 3133   0.143  17.879   2.153 -0.1441  0.0850 -0.0232
60040W        W 3134   0.267  16.795  31.731  0.1566 -0.0381  0.0768
60041W        W 3135   0.814  14.568   1.966  0.1921  0.0510  0.0861
60042W        W 3136   2.151  16.563   2.349  0.0284 -0.0143 -0.1341
60043W        W 3137   4.006  15.596  31.738 -0.3007 -0.1209 -0.1063
60044W        W 3138  33.139  14.968   3.822 -0.1271 -0.1961  0.1631
60045W        W 3139   2.897  14.383   1.148  0.2976  0.2617 -0.0410
60046W        W 3140   2.100  16.841   0.557 -0.0950 -0.1321  0.1727
60047W        W 3141   3.065  19.242   0.577 -0.1464  0.0081 -0.1066
60048W        W 3142   4.267  16.938   0.135  0.3790  0.4019 -0.1933
60049W        W 3143   2.622  17.864  31.697  0.0586  0.1248 -0.1162
60050W        W 3144   0.324  17.422   2.524  0.2430 -0.1428  0.0243
60051W        W 3145   0.241  15.761  31.886  0.1247  0.1325  0.0849
60052W        W 3146  34.310  14.893   3.214 -0.0907 -0.0836 -0.0247
60053W        W 3147  34.151  13.851   2.585 -0.2533 -0.0024  0.1752
60054W        W 3148   1.847  16.191   3.904 -0.6101  0.2332  0.0912
60055W        W 3149  34.536  15.479   0.224  0.0754  0.0005 -0.1069
60056W        W 3150   2.737  14.842   0.650 -0.0188 -0.2113  0.2495
60057W        W 3151   0.298  14.369   1.601  0.1265 -0.2058  0.0841
60058W        W 3152   0.238  16.995   1.179 -0.2248  0.1351 -0.0840
60059W        W 3153   1.665  14.012   2.617  0.1140 -0.1501  0.1925
60060W        W 3154   2.816  17.543   0.614  0.0325  0.3515  0.1469
60061W        W 3155   3.297  17.928   3.214  0.2036 -0.2166  0.1588
60062W        W 3156   3.907  17.199   2.246  0.0947 -0.1290  0.3216
60063W        W 3157   0.910  16.245   3.170 -0.0360  0.2703  0.0562
60064W        W 3158  33.703  16.796  31.392 -0.0464 -0.3776  0.1781
60065W        W 3159   0.194  19.157   1.724  0.2268 -0.2898  0.0090
60066W        W 3160   0.588  16.959   2.642 -0.0206 -0.1958  0.3338
60067W        W 3161   0.836  15.105   0.404 -0.0511  0.0371 -0.1366
60068W        W 3162   3.626  18.036   1.932 -0.2015  0.0861 -0.0268
60069W        W 3163   1.353  16.951   1.162 -0.1013  0.0261  0.0615
60070W        W 3164   0.930  16.515   2.334  0.1343  0.1801  0.0940
60071W        W 3165   4.196  14.532   2.784  0.0166  0.1819 -0.1953
60072W        W 3166   3.127  15.889   2.546  0.2109 -0.3434 -0.3576
60073W        W 3167   2.254  15.927   1.909 -0.1241  0.1828  0.3122
60074W        W 3168   1.109  14.528   0.569 -0.1434  0.0056  0.3747
60075W        W 3169   1.847  18.433   1.786 -0.1625  0.0395  0.1300
60076W        W 3170   1.585  16.931   0.038  0.1207 -0.2676  0.1271
60077W        W 3171  34.329  16.179   1.992 -0.0601  0.1819  0.1063
60078W        W 3172   2.917  16.934   1.352  0.1683 -0.1203  0.0503
60079W        W 3173   2.302  15.631   2.313 -0.0508  0.1869 -0.0398
60080W        W 3174  33.587  15.854   3.575 -0.1189 -0.0078  0.0343
60081W        W 3175   1.442  15.743   2.029  0.0785  0.0499 -0.1634
60082W        W 3176   0.464  16.591   0.604  0.1426 -0.0669  0.0950
60083W        W 3177   0.525  18.124   4.003  0.0565 -0.0011  0.1162
60084W        W 3178   1.329  14.995   0.544 -0.3021  0.0928  0.0249
60085W        W 3179   3.972  16.928  31.439 -0.1337  0.0177 -0.1342
60086W        W 3180   1.807  16.780   3.242 -0.2535  0.0594  0.1455
60087W        W 3181   2.363  16.333  31.785  0.1032  0.0774  0.2287
60088W        W 3182   2.205  15.953  30.622  0.0875 -0.2939 -0.1992
60089W        W 3183   2.570  15.215  31.281 -0.0670  0.1691  0.0059
60090W        W 3184   0.864  17.354   3.831  0.0306  0.2264  0.2039
60091W        W 3185   1.770  16.836  31.562 -0.0162 -0.1919  0.4432
60092W        W 3186   1.610  15.318   2.240  0.0028 -0.0767  0.1492
60093W        W 3187   1.444  16.324   0.163 -0.1021 -0.2095 -0.1732
60094W        W 3188   3.949  17.036   0.977 -0.2652 -0.0767 -0.1612
60095W        W 3189   0.343  17.416   2.028  0.0264  0.0610 -0.1538
60096W        W 3190   1.756  16.272   4.828  0.4141 -0.2639 -0.0149
60097W        W 3191   2.860  16.149   0.488 -0.0453  0.1735 -0.0665
60098W        W 3192   0.322  14.529   2.206  0.3815 -0.1329  0.1495
60099W        W 3193   0.094  15.725   0.628 -0.3593 -0.2033 -0.1433
60100W        W 3194   0.446  15.487   0.267  0.3517  0.1565 -0.1462
60101W        W 3195  33.978  18.019  31.976  0.2867  0.0287 -0.0652
60102W        W 3196   2.924  14.979   2.373 -0.1557  0.2254 -0.0181
60103W        W 3197   2.713  14.618   2.125  0.0617 -0.3430  0.1299
60104W        W 3198   0.167  14.958   2.431 -0.1857 -0.1184 -0.3496
60105W        W 3199   1.099  15.905   4.350 -0.4599 -0.1660 -0.0212
60106W        W 3200   2.948  16.034  31.464  0.0756  0.3625 -0.0066
60107W        W 3201   2.593  15.917   1.460 -0.1642 -0.1969  0.1301
60108W        W 3202   2.918  16.236  30.912 -0.0006  0.4351 -0.1203
60109W        W 3203   1.832  15.127   2.629 -0.2079  0.1325 -0.4464
60110W        W 3204   0.231  16.720   3.748 -0.1678  0.1603  0.0027
60111W        W 3205   1.738  18.615   2.775 -0.0644  0.1129 -0.2628
60112W        W 3206   2.928  16.627   4.267  0.2105 -0.1795  0.0770
60113W        W 3207   2.509  16.576   1.343 -0.0510 -0.0155  0.1288
60114W        W 3208   1.299  15.941   3.546 -0.3460  0.1398  0.1213
60115W        W 3209   1.853  16.083   0.012  0.1929 -0.1716 -0.0226
60116W        W 3210   1.114  16.648   1.529  0.1067  0.3235  0.0890
60117W        W 3211   2.833  16.223  31.973  0.2885 -0.1960  0.0155
60118W        W 3212   1.272  15.679   2.553 -0.0585 -0.0178 -0.1732
60119W        W 3213   2.890  17.629   3.117 -0.1704 -0.0397  0.3409
60120W        W 3214   1.424  16.704  31.126  0.0146  0.0853  0.2105
60121W        W 3215   1.078  16.185   2.728 -0.1986 -0.0078 -0.0077
60122W        W 3216   0.821  17.990   1.758  0.1150  0.0497  0.0150
60123W        W 3217   3.791  14.852   2.781 -0.1243  0.0921  0.1858
60124W        W 3218   1.318  17.502   2.636  0.1837 -0.1799 -0.0442
60125W        W 3219   0.097  15.703  31.400  0.1184 -0.0865  0.0693
60126W        W 3220   0.421  16.955   1.665  0.1420  0.0973  0.3211
60127W        W 3221   2.004  15.343   1.064 -0.0309 -0.1050 -0.1060
60128W        W 3222   4.864  15.926   0.795 -0.3328  0.0410 -0.3692
60129W        W 3223   0.730  15.549   4.054  0.2548 -0.0837  0.1431
60130W        W 3224   1.259  14.229   1.398  0.0348  0.1111  0.1038
60131W        W 3225  34.667  17.186   2.825  0.2127  0.2291  0.0322
60132W        W 3226   2.097  15.004   1.885 -0.2759 -0.1347  0.1650
60133W        W 3227   4.177  16.023   0.438 -0.1613  0.1646 -0.0425
60134W        W 3228   2.986  17.141   2.717 -0.0485  0.1149 -0.1604
60135W        W 3229   0.990  16.531   3.569  0.1087 -0.0700  0.0045
60136W        W 3230   0.898  15.851   0.404 -0.1650 -0.0488  0.2518
60137W        W 3231   3.663  15.289   2.006  0.2001  0.0690  0.1968
60138W        W 3232  34.217  14.584   2.766  0.2049  0.2514  0.2247
60139W        W 3233   0.754  16.651   1.138 -0.0172 -0.0297  0.0529
60140W        W 3234   2.335  16.959   2.149 -0.0715  0.2099  0.0392
60141W        W 3235   0.567  14.942  31.835  0.0237 -0.0505  0.0627
60142W        W 3236   0.819  17.609   2.649  0.0475 -0.1854 -0.1410
60143W        W 3237  33.962  15.712   3.873  0.1631  0.0782  0.1233
60144W        W 3238   2.605  16.796   2.634 -0.0387 -0.0534 -0.3124
60145W        W 3239   1.869  16.525   2.824 -0.2281 -0.0531  0.1675
60146W        W 3240   0.813  14.726   1.329 -0.1129 -0.1779 -0.2858
60147W        W 3241   1.057  16.016   2.204 -0.1186  0.0797  0.0986
60148W        W 3242   3.028  16.494   2.602  0.2041 -0.0187 -0.0860
60149W        W 3243   0.855  16.889   1.910  0.1265 -0.0478  0.1313
60150W        W 3244   0.369  16.380   4.117  0.0597  0.0528 -0.0657
60151W        W 3245   2.422  13.188   2.759 -0.1454  0.0136 -0.0297
60152W        W 3246   3.775  17.728   1.503  0.2193 -0.1177 -0.3391
60153W        W 3247   3.203  14.610   3.571  0.0292  0.1074  0.0269
60154W        W 3248   2.134  15.633   1.449 -0.0525  0.1650 -0.1165
60155W        W 3249  34.097  17.671   2.036 -0.1787  0.2037 -0.0448
60156W        W 3250   1.701  16.423   1.700  0.0674 -0.3080  0.1020
60157W        W 3251   0.921  15.399   2.370  0.2310  0.0531 -0.0106
60158W        W 3252   0.614  18.031   3.454  0.1642 -0.3172  0.0910
60159W        W 3253   1.331  15.840   0.151  0.1080 -0.1451  0.2190
60160W        W 3254   1.441  18.215   2.660  0.3467  0.2869  0.1626
60161W        W 3255   3.618  15.301   0.535  0.0137 -0.0922 -0.2496
60162W        W 3256   3.588  16.998  30.925  0.0732  0.0991  0.1751
60163W        W 3257   0.769  15.952   1.290  0.1922  0.0195  0.2032
60164W        W 3258   2.679  14.998   3.468 -0.1187 -0.1475 -0.1275
60165W        W 3259   3.393  16.708  30.342 -0.0633 -0.2667 -0.3070
60166W        W 3260   3.128  13.548   3.767 -0.2157  0.0263 -0.2038
60167W        W 3261  34.613  13.976   2.335 -0.3261  0.2331 -0.1848
60168W        W 3262   3.377  17.909   2.439  0.0830  0.1048 -0.0505
60169W        W 3263  34.574  15.740   2.938  0.3083 -0.0742  0.2720
60170W        W 3264   2.469  18.936   3.968 -0.4852 -0.0285  0.3155
60171W        W 3265   0.718  16.793   3.889 -0.1010  0.1105 -0.1883
60172W        W 3266   1.257  16.079   0.617 -0.0968  0.0052 -0.0877
60173W        W 3267   1.357  15.336  31.525  0.1657 -0.0253 -0.1215
60174W        W 3268   0.375  18.012   2.546  0.1236 -0.0066 -0.1796
60175W        W 3269   3.248  17.315   1.197 -0.1677  0.1609  0.3314
60176W        W 3270   2.664  17.045  31.408  0.1237  0.0144  0.1745
60177W        W 3271   3.780  16.636   1.538  0.1332  0.1344 -0.0176
60178W        W 3272   2.433  17.582   3.243  0.5225  0.1018  0.2187
60179W        W 3273   2.665  17.199   0.976 -0.0377 -0.2300  0.1587
60180W        W 3274   2.726  16.584   0.706  0.0064 -0.1856  0.0737
60181W        W 3275   0.374  16.898   2.189  0.3012  0.1329 -0.1998
60182W        W 3276   0.583  14.512   2.763 -0.2841  0.0813  0.0679
60183W        W 3277   2.039  17.107   1.734  0.1277  0.2860  0.1122
60184W        W 3278   2.410  15.421   1.780 -0.0478 -0.0829 -0.3282
60185W        W 3279   3.325  13.952   2.891 -0.2931  0.2647 -0.2801
60186W        W 3280   1.936  15.545   1.954 -0.1025 -0.1875  0.1862
60187W        W 3281   1.280  15.791   3.098 -0.2437  0.1150 -0.1553
60188W        W 3282  33.526  14.646   3.543  0.0380  0.2445  0.0577
60189W        W 3283   2.893  17.503   4.527 -0.1902 -0.0878  0.1215
60190W        W 3284   2.571  15.794  31.823  0.0916 -0.2082 -0.1329
60191W        W 3285   3.369  14.063   3.388 -0.0087 -0.2920  0.3265
60192W        W 3286   4.251  16.518   1.281  0.1823  0.4648  0.2595
60193W        W 3287   2.877  14.494  31.349  0.3092  0.0320  0.1377
60194W        W 3288   0.361  14.566   1.152 -0.0468 -0.1455  0.1712
60195W        W 3289   2.351  17.581   4.783  0.1061  0.0279  0.0960
60196W        W 3290  34.204  14.548   0.086 -0.1312  0.0782  0.2781
60197W        W 3291   0.831  14.279   2.337 -0.1534  0.0684 -0.0974
60198W        W 3292   2.343  17.169  30.114  0.5050  0.2012 -0.1511
60199W        W 3293   3.240  17.754   1.533  0.2919 -0.1571  0.1347
60200W        W 3294   3.256  15.043   1.998  0.0876  0.0418 -0.0215
60201W        W 3295   0.364  16.053   1.548  0.3687 -0.0122  0.2415
60202W        W 3296   0.415  17.639   4.153  0.1217 -0.0895 -0.0673
60203W        W 3297  33.703  16.480  31.753 -0.0331  0.0223 -0.2415
60204W        W 3298   1.997  16.833  30.258  0.2764  0.0172  0.1098
60205W        W 3299   2.563  16.725   3.449  0.1756 -0.0246  0.1974
60206W        W 3300   3.365  16.914   3.511  0.0783 -0.3180 -0.1058
60207W        W 3301   0.530  15.638   2.177  0.0508  0.1756  0.0575
60208W        W 3302   2.263  15.047   3.771  0.3034 -0.0876 -0.3258
60209W        W 3303   0.650  17.892   0.509  0.0026  0.0156  0.3399
60210W        W 3304   1.595  15.246   1.708  0.2006 -0.2907  0.0472
60211W        W 3305   1.651  16.898   2.484 -0.4404  0.1627 -0.2214
60212W        W 3306  34.412  16.716   2.900 -0.1483  0.0588  0.3293
60213W        W 3307   1.929  17.694   2.840  0.0914 -0.1286  0.1868
60214W        W 3308   3.071  14.663   1.748  0.0584 -0.2352  0.0558
60215W        W 3309   3.300  15.112   0.907 -0.1317  0.0671 -0.1263
60216W        W 3310   1.765  15.899   1.604  0.0821  0.0342 -0.0338
60217W        W 3311   2.663  14.584   4.488  0.0564 -0.2423  0.2667
60218W        W 3312   1.277  16.911   3.953 -0.1467  0.0354 -0.6221
60219W        W 3313   1.209  16.106   1.726  0.1880 -0.0693  0.0961
60220W        W 3314   3.610  16.536   3.205 -0.0721 -0.2641  0.3982
60221W        W 3315   2.381  15.246   2.603 -0.0931  0.0483 -0.1040
60222W        W 3316   0.363  18.312   1.397  0.0897  0.0495 -0.2303
60223W        W 3317  33.691  16.336   2.052 -0.0788 -0.4699 -0.1619
60224W        W 3318   0.631  15.197   3.294 -0.1924  0.3425  0.0370
60225W        W 3319   2.752  15.861   1.925 -0.0714  0.0869 -0.1071
60226W        W 3320   0.604  16.173   2.071 -0.0549 -0.1833  0.1474
60227W        W 3321   2.397  16.117  31.092 -0.0657  0.0789  0.3326
60228W        W 3322  33.969  17.932   3.435  0.2523 -0.0160 -0.1416
60229W        W 3323   0.379  15.433   1.641 -0.2976  0.0629 -0.0217
60230W        W 3324   2.198  16.523   0.927  0.0721  0.0623  0.0192
60231W        W 3325   3.113  17.138  31.590  0.0128 -0.0928  0.1305
60232W        W 3326   4.962  15.739   1.871 -0.0507  0.1343 -0.1447
60233W        W 3327   4.184  17.518   1.652 -0.0384 -0.1740  0.0405
60234W        W 3328   1.188  14.897  31.738 -0.0343  0.1468 -0.0215
60235W        W 3329   0.645  17.770   2.174  0.0441 -0.0222 -0.3753
60236W        W 3330  34.573  16.008   0.246  0.2041  0.0755  0.2353
60237W        W 3331   2.916  17.656   1.090  0.2211 -0.0411 -0.0158
60238W        W 3332   1.186  18.420   0.913  0.1067  0.1331  0.2255
60239W        W 3333   3.413  17.445   3.594 -0.0548  0.0131  0.5461
60240W        W 3334   4.011  13.807  30.360  0.4729  0.2824  0.0345
60241W        W 3335   3.711  15.389   1.176  0.0741  0.0819 -0.2506
60242W        W 3336   2.107  15.584   0.613 -0.1000  0.2225  0.2299
60243W        W 3337   3.335  17.212   3.027 -0.0332 -0.0879 -0.2673
60244W        W 3338   1.564  17.449   3.705 -0.0721  0.2402  0.1290
60245W        W 3339   2.576  15.285  30.699  0.1722  0.1615 -0.0310
60246W        W 3340   0.556  16.525   4.574  0.1131 -0.1425  0.2915
60247W        W 3341   4.723  14.537   3.334  0.0773  0.0830  0.3382
60248W        W 3342  34.459  17.737   4.035  0.2289  0.2966  0.0397
60249W        W 3343   3.763  19.207   1.510 -0.1419  0.0210 -0.3680
60250W        W 3344   0.505  14.955   0.847  0.0211 -0.1752  0.1190
60251W        W 3345   1.472  17.863   3.110 -0.0490  0.0982  0.2762
60252W        W 3346   2.954  15.430   2.787  0.1153 -0.3816  0.1774
60253W        W 3347   2.895  16.918  30.107  0.1164 -0.0705 -0.3279
60254W        W 3348   0.153  15.905   2.017 -0.0012 -0.0698 -0.1403
60255W        W 3349   1.872  18.948   1.798 -0.3611 -0.1585 -0.1203
60256W        W 3350   1.382  16.596   2.763 -0.1068  0.0625 -0.0636
60257W        W 3351   1.110  18.088   3.503 -0.1980 -0.1607 -0.2482
60258W        W 3352  33.369  17.357  31.707  0.0962 -0.1304 -0.0379
60259W        W 3353   4.145  16.686   0.577 -0.2197  0.1923 -0.4474
60260W        W 3354   0.970  15.039   2.914 -0.2703  0.0946 -0.0125
60261W        W 3355   3.267  14.991   3.242 -0.0864  0.0631  0.2141
60262W        W 3356  34.678  17.134   1.801  0.0989 -0.1736  0.1023
60263W        W 3357   3.752  16.187   0.613 -0.0664 -0.1388  0.2595
60264W        W 3358   2.701  16.615   2.152  0.0282  0.1523  0.1913
60265W        W 3359   0.356  17.705   2.948 -0.0847 -0.0230 -0.0729
60266W        W 3360   2.149  15.871  31.607  0.3357 -0.2723 -0.0494
60267W        W 3361   2.517  15.379   3.194 -0.1161 -0.1672 -0.2584
60268W        W 3362   1.805  15.559  31.258  0.0935 -0.4422  0.2277
60269W        W 3363   2.962  16.435   3.529 -0.1276  0.1849  0.3515
60270W        W 3364   0.302  13.868   1.519  0.3738  0.1428 -0.0697
60271W        W 3365   1.620  15.546   1.322 -0.0892  0.3309  0.1528
60272W        W 3366   0.249  17.370   1.475 -0.0402 -0.1232 -0.0797
60273W        W 3367   1.141  15.282   3.273 -0.3010 -0.0382 -0.0445
60274W        W 3368   4.240  17.975   3.098  0.4138  0.1192 -0.0296
60275W        W 3369  34.204  15.777   1.484 -0.1478  0.1674  0.0446
60276W        W 3370   4.271  17.112   1.367 -0.0883 -0.3007  0.1273
60277W        W 3371   3.643  15.862   2.044 -0.2270  0.2555 -0.4813
60278W        W 3372   0.525  17.995  31.545 -0.0569 -0.1882 -0.2733
60279W        W 3373   4.227  16.779   2.141  0.0767  0.1716  0.1070
60280W        W 3374   3.191  16.823   2.303 -0.0163  0.0793  0.1511
60281W        W 3375  34.251  16.153   2.903 -0.1403 -0.1980 -0.2565
60282W        W 3376   2.800  17.138   2.085  0.3499 -0.2947  0.0683
60283W        W 3377   3.735  17.247   2.727  0.0646  0.2536 -0.3102
60284W        W 3378   2.174  14.816   2.372 -0.2127 -0.1767 -0.2465
60285W        W 3379   0.887  15.505   2.867 -0.0944 -0.0863 -0.0742
60286W        W 3380   0.295  18.630  31.940 -0.1760 -0.0751 -0.1541
60287W        W 3381   2.574  16.037   2.425 -0.0145  0.0815 -0.1341
60288W        W 3382   2.607  14.525   3.109 -0.0971  0.1698 -0.0705
60289W        W 3383   1.321  16.834   2.037 -0.0257  0.1193 -0.0383
60290W        W 3384   2.682  13.596   3.575  0.0733  0.3439 -0.1130
60291W        W 3385   3.433  16.748   2.774  0.2389  0.3393 -0.0115
60292W        W 3386   1.214  18.148   4.500 -0.1508  0.1359  0.0172
60293W        W 3387   1.506  15.957  31.658 -0.2088  0.1015  0.0130
60294W        W 3388   1.002  16.699   3.050 -0.3006 -0.1984  0.0723
60295W        W 3389   1.595  17.489   1.611  0.2066  0.1326 -0.0027
60296W        W 3390   1.684  16.618   0.409 -0.2764  0.2207  0.2463
60297W        W 3391   3.369  17.363   2.328  0.2032  0.1234 -0.0997
60298W        W 3392   2.506  15.114   2.179  0.1123 -0.0120  0.0733
60299W        W 3393   3.608  17.480   1.897 -0.0071 -0.1524  0.1221
60300W        W 3394   2.967  13.673   2.694 -0.0130 -0.0829  0.2006
60301W        W 3395   2.497  14.142   2.787 -0.0932 -0.2944 -0.1525
60302W        W 3396   3.359  14.642  31.518  0.0508 -0.2793 -0.2321
60303W        W 3397   1.134  17.538   3.447  0.2346 -0.0251 -0.0820
60304W        W 3398  34.395  15.432  31.330  0.1193 -0.2039  0.0231
60305W        W 3399   2.099  16.757  31.953 -0.1647 -0.1463 -0.2241
60306W        W 3400  34.462  16.624   1.127  0.0131  0.2215 -0.2281
60307W        W 3401   0.051  14.271   4.449 -0.1003  0.1822  0.1376
60308W        W 3402  34.378  15.398   3.204 -0.0149 -0.1291 -0.0303
60309W        W 3403   0.001  19.019   1.252 -0.0042 -0.5292 -0.1036
60310W        W 3404   0.657  14.508   0.645 -0.0054  0.0645  0.0300
60311W        W 3405   3.640  18.689   0.681  0.1785  0.3323 -0.2895
60312W        W 3406   1.224  14.584   2.256 -0.2220 -0.1172  0.4625
60313W        W 3407  34.615  14.325   1.918  0.2154  0.2188  0.3142
60314W        W 3408   4.754  16.870   0.394 -0.2795  0.1173 -0.0753
60315W        W 3409   1.828  16.756   2.036 -0.0145  0.1192  0.1613
60316W        W 3410   0.805  15.784   1.813  0.1933 -0.1038 -0.3267
60317W        W 3411   3.856  16.044   3.269 -0.2296 -0.0564 -0.0907
60318W        W 3412  34.205  16.217   0.528  0.0170  0.2182 -0.0766
60319W        W 3413   2.044  15.909   1.046  0.0544  0.1485  0.0007
60320W        W 3414   0.446  15.604   3.019  0.0035  0.1789  0.2817
60321W        W 3415   1.215  13.804  30.405 -0.2066 -0.1325  0.0491
60322W        W 3416   2.534  15.466   3.698 -0.0368  0.0700 -0.0899
60323W        W 3417   1.669  16.271   1.089  0.2403  0.0819  0.1040
60324W        W 3418   3.926  18.290   0.602  0.0312 -0.0997 -0.1613
60325W        W 3419   2.168  17.072   3.513  0.1284  0.0996  0.0438
60326W        W 3420   2.116  18.323   2.700  0.0612 -0.1866 -0.0986
60327W        W 3421  33.757  14.852   3.004 -0.0919  0.1406 -0.1397
60328W        W 3422   3.826  17.072   0.318  0.1513  0.0283  0.1125
60329W        W 3423   1.864  16.682   4.115 -0.0760  0.1197  0.0426
60330W        W 3424   3.550  16.779   0.011  0.0368  0.1511 -0.1259
60331W        W 3425   3.314  14.920   2.720  0.2601 -0.2518  0.1372
60332W        W 3426   3.047  16.745   1.793 -0.2816 -0.3728  0.1203
60333W        W 3427  33.987  15.173   2.754 -0.2449 -0.1517  0.1162
60334W        W 3428   0.467  17.635   4.819  0.1955  0.2042 -0.0482
60335W        W 3429   2.903  14.862   1.138 -0.3497 -0.0156  0.4910
60336W        W 3430   1.323  14.711   1.085 -0.0996  0.0093  0.0736
60337W        W 3431   1.915  15.194   0.160 -0.2390 -0.1066  0.0350
60338W        W 3432   2.302  17.475   0.644 -0.0569 -0.1492  0.1162
60339W        W 3433   0.499  16.739   3.122  0.1334  0.0507  0.4217
60340W        W 3434   1.772  16.091   0.506  0.0955 -0.1061  0.1888
60341W        W 3435   1.143  16.993   2.567  0.3709 -0.1847 -0.1013
60342W        W 3436   2.300  16.412   1.898  0.1087  0.1743  0.3591
60343W        W 3437   2.755  16.351   3.059 -0.0612  0.2913 -0.0094
60344W        W 3438   1.063  16.362  31.390 -0.3460 -0.2765  0.0435
60345W        W 3439   3.852  16.455   0.198 -0.1210 -0.0755 -0.0080
60346W        W 3440   3.041  19.504   3.439 -0.0257  0.1929  0.4100
60347W        W 3441   2.936  17.507   3.999 -0.3430  0.2392 -0.1001
60348W        W 3442   2.575  17.083   3.075 -0.1351  0.1942  0.4091
60349W        W 3443   2.753  16.339   1.722  0.1184  0.1937  0.0172
60350W        W 3444   0.165  13.474   2.493 -0.1017  0.1110 -0.1290
60351W        W 3445   0.716  15.800  31.896 -0.1882 -0.0868  0.0202
60352W        W 3446   1.395  16.428   2.285 -0.3298 -0.0251  0.2221
60353W        W 3447   1.840  15.733   2.478 -0.2383 -0.1012  0.1331
60354W        W 3448   1.319  15.085   2.560 -0.2660  0.0139 -0.1808
60355W        W 3449   1.687  14.746   2.204 -0.1726 -0.3489  0.0051
60356W        W 3450   2.855  18.203   3.868  0.0104  0.0276 -0.2342
60357W        W 3451   2.630  17.353   1.518  0.0023  0.0470 -0.1936
60358W        W 3452   1.865  17.769   5.675  0.1078 -0.1830 -0.2020
60359W        W 3453   0.920  15.249   5.107  0.2005 -0.0473 -0.0556
60360W        W 3454   2.072  15.112   5.280 -0.5318  0.0469 -0.0389
60361W        W 3455   2.930  15.347   4.165 -0.0085  0.1038  0.2204
60362W        W 3456  34.543  15.600   4.488  0.2838 -0.1218  0.0506
60363W        W 3457   2.069  16.593   3.619 -0.1097  0.1840  0.0458
60364W        W 3458  34.252  14.229   7.267 -0.1573 -0.2589 -0.2908
60365W        W 3459   2.694  16.775   5.784  0.3556  0.2864  0.1016
60366W        W 3460   4.270  17.567   6.189  0.0063 -0.0823 -0.0359
60367W        W 3461   1.339  16.901   3.376 -0.0231  0.1467 -0.1056
60368W        W 3462   2.097  16.487   6.614 -0.0480  0.2569  0.0166
60369W        W 3463   2.590  18.137   6.488  0.2835 -0.0996 -0.2507
60370W        W 3464   1.622  14.344   4.275  0.0416  0.0124 -0.0132
60371W        W 3465  33.614  15.633   5.937 -0.1199  0.2723 -0.0666
60372W        W 3466   2.503  15.712   6.168  0.1013 -0.3437 -0.0929
60373W        W 3467   0.789  15.819   3.403 -0.0614  0.0610 -0.0728
60374W        W 3468   1.766  14.882   4.929 -0.1234 -0.1897 -0.0954
60375W        W 3469   2.204  16.545   4.859 -0.1054 -0.1387  0.0562
60376W        W 3470   1.749  18.107   5.370  0.0262  0.1053  0.2269
60377W        W 3471   0.442  14.723   6.861 -0.0788  0.2236 -0.2778
60378W        W 3472   1.901  14.101   7.010 -0.0311  0.1325  0.2413
60379W        W 3473   2.132  18.026   4.825  0.4660 -0.2689  0.0509
60380W        W 3474  34.514  15.232   2.721  0.1871  0.0469 -0.1275
60381W        W 3475   0.330  15.787   6.645 -0.1220  0.0897  0.1499
60382W        W 3476   1.483  17.372   4.886  0.1883 -0.1147 -0.1144
60383W        W 3477   1.782  14.522   5.334  0.1896  0.0960  0.0500
60384W        W 3478   3.389  15.934   6.276  0.1003 -0.1344 -0.1128
60385W        W 3479   1.330  18.373   5.144  0.0875 -0.2791 -0.1251
60386W        W 3480   3.285  17.020   5.918  0.1888  0.2590  0.0396
60387W        W 3481   2.878  15.269   6.531  0.1555 -0.0438  0.0857
60388W        W 3482   0.621  17.448   5.584  0.0229 -0.0220 -0.0652
60389W        W 3483  34.272  17.924   5.966  0.0766 -0.0124 -0.0328
60390W        W 3484   2.653  17.884   5.045  0.1794  0.2119 -0.3996
60391W        W 3485   3.570  16.973   5.410  0.1691 -0.1407 -0.0279
60392W        W 3486   2.054  17.447   5.160  0.0736  0.5292  0.1926
60393W        W 3487   2.581  18.715   6.357  0.2208  0.0397 -0.3163
60394W        W 3488  34.339  17.535   3.603  0.2591  0.0812 -0.1627
60395W        W 3489   2.191  18.385   5.710  0.2016  0.1829 -0.1335
60396W        W 3490   1.410  17.426   7.215  0.0484  0.0959 -0.4874
60397W        W 3491   1.516  15.483   5.826  0.1082  0.2565  0.1408
60398W        W 3492   0.977  16.694   5.153  0.0988  0.2143 -0.1404
60399W        W 3493   2.295  16.949   3.988  0.0680 -0.1502 -0.0433
60400W        W 3494   0.523  17.173   6.105  0.0272 -0.3194  0.1639
60401W        W 3495   2.211  17.218   6.911  0.2119  0.2289 -0.4236
60402W        W 3496  34.486  17.346   5.416  0.3951 -0.1038 -0.1112
60403W        W 3497   2.956  14.281   6.981 -0.1823 -0.0169 -0.1327
60404W        W 3498   1.913  17.802   4.384 -0.3366 -0.1484  0.1599
60405W        W 3499   1.925  14.924   3.171  0.1494  0.3053 -0.1237
60406W        W 3500   0.936  14.615   3.158 -0.0317 -0.0582 -0.0043
60407W        W 3501   2.053  14.428   3.007 -0.3120  0.4290 -0.1483
60408W        W 3502   2.162  14.111   6.615  0.4158 -0.4782  0.0212
60409W        W 3503   1.527  18.923   6.381  0.3614 -0.1522  0.3935
60410W        W 3504   0.339  14.977   6.186  0.0242 -0.0486  0.1563
60411W        W 3505   1.874  16.559   6.113  0.1301  0.2398 -0.3450
60412W        W 3506   1.641  15.003   3.590 -0.1799 -0.2982 -0.4498
60413W        W 3507   2.475  16.106   6.611  0.4041 -0.1341 -0.0843
60414W        W 3508   0.829  18.043   6.462  0.1444  0.1013 -0.4764
60415W        W 3509   0.697  14.561   4.698  0.2173 -0.2114 -0.1092
60416W        W 3510   2.928  16.861   3.774 -0.1625  0.2744  0.0032
60417W        W 3511   3.854  19.249   5.263  0.0787  0.2747  0.0266
60418W        W 3512   4.221  17.649   3.813  0.0541 -0.1172  0.0721
60419W        W 3513   0.515  15.542   4.673  0.1732 -0.0236  0.1122
60420W        W 3514   1.008  15.668   5.982 -0.0104  0.0235 -0.1294
60421W        W 3515   0.433  16.383   6.746  0.2171 -0.1289  0.0799
60422W        W 3516  34.588  15.007   3.619  0.1603  0.1583  0.3525
60423W        W 3517   3.707  15.929   7.367 -0.0994 -0.0179  0.1654
60424W        W 3518  34.185  16.760   6.802  0.0882 -0.2589 -0.0600
60425W        W 3519   0.891  14.000   4.770 -0.0300  0.3142  0.2078
60426W        W 3520   0.798  18.250   5.456  0.0486  0.2128 -0.1188
60427W        W 3521   3.018  17.443   5.083  0.0925 -0.1346  0.2160
60428W        W 3522   1.596  15.733   3.852 -0.1260 -0.1489  0.0189
60429W        W 3523   0.573  15.027   5.671 -0.0472  0.1386  0.0618
60430W        W 3524   2.701  13.898   6.162 -0.2221 -0.3250  0.0144
60431W        W 3525   0.519  15.068   4.162  0.5311  0.4371 -0.0337
60432W        W 3526   0.410  17.466   3.658  0.2159 -0.2086 -0.1665
60433W        W 3527   4.124  17.427   7.552 -0.0041  0.0820  0.0309
60434W        W 3528   2.429  15.915   5.702 -0.1455  0.1346  0.3406
60435W        W 3529   0.527  18.929   6.229  0.2292 -0.1922  0.2047
60436W        W 3530   1.089  15.550   6.981  0.3148  0.0484 -0.0350
60437W        W 3531   1.919  17.529   6.530  0.0811 -0.0579 -0.0980
60438W        W 3532   0.181  19.687   4.389  0.2241  0.0550  0.3596
60439W        W 3533   0.024  17.216   6.245 -0.0894  0.0318 -0.1360
60440W        W 3534   0.978  17.382   5.917  0.0723 -0.1383 -0.2958
60441W        W 3535   0.116  15.490   6.280  0.1218 -0.0233  0.0511
60442W        W 3536   1.180  17.608   6.271  0.2088 -0.3884  0.1324
60443W        W 3537   3.927  15.729   3.643  0.0892  0.0732 -0.0369
60444W        W 3538   0.326  15.109   7.169  0.3844 -0.2120  0.1081
60445W        W 3539   3.546  15.300   5.352 -0.3209 -0.0758  0.0025
60446W        W 3540   0.475  18.441   5.085  0.0378  0.0383  0.3340
60447W        W 3541   3.304  18.431   3.929 -0.0823  0.1715  0.0606
60448W        W 3542   2.327  17.105   4.824  0.1641 -0.0154  0.2459
60449W        W 3543   2.075  15.705   3.704  0.0420 -0.2184 -0.0285
60450W        W 3544  34.658  16.036   6.285  0.2855  0.0323  0.2950
60451W        W 3545   1.789  16.206   5.739 -0.0461  0.0316  0.1452
60452W        W 3546   1.329  14.984   6.759 -0.2464  0.0556 -0.1614
60453W        W 3547  34.607  14.260   6.275  0.2532 -0.0513 -0.0346
60454W        W 3548   2.953  15.483   7.388  0.0169  0.3656  0.3509
60455W        W 3549  34.217  15.306   3.732  0.0697  0.1299  0.2096
60456W        W 3550   3.004  16.030   4.708 -0.1557 -0.1238  0.2957
60457W        W 3551   0.113  15.141   4.637  0.2173 -0.1124  0.1834
60458W        W 3552   0.026  17.162   4.838  0.3234 -0.0589  0.0758
60459W        W 3553   2.388  15.341   5.676 -0.1109 -0.2261  0.0201
60460W        W 3554   1.569  17.940   4.882 -0.0990 -0.0359 -0.2367
60461W        W 3555   3.547  17.907   5.829 -0.0221 -0.1367  0.2544
60462W        W 3556   1.752  17.201   4.127  0.1087 -0.2999 -0.1993
60463W        W 3557   1.327  16.079   7.087 -0.2627  0.0943 -0.1817
60464W        W 3558  32.833  15.209   3.403  0.1500 -0.0824 -0.1250
60465W        W 3559   1.480  19.492   7.305 -0.0082  0.1453 -0.1332
60466W        W 3560   1.492  16.699   4.930  0.2413 -0.0616  0.0533
60467W        W 3561   1.169  13.735   5.089 -0.1806 -0.1311  0.2176
60468W        W 3562   3.835  18.511   4.799  0.0398 -0.0334 -0.0298
60469W        W 3563   1.042  17.093   4.827  0.1247 -0.1298  0.1420
60470W        W 3564  34.654  17.174   7.596  0.1078 -0.2767  0.1443
60471W        W 3565   1.851  14.663   5.849  0.2782  0.2453 -0.1967
60472W        W 3566   3.025  16.744   7.379 -0.2027  0.1150  0.1739
60473W        W 3567   1.812  15.596   5.479 -0.2176 -0.0564  0.1579
60474W        W 3568  34.684  14.764   2.882  0.1294  0.1626 -0.0045
60475W        W 3569   1.631  18.540   6.024 -0.3277  0.1073  0.1805
60476W        W 3570   0.805  17.515   4.418  0.0179 -0.1609  0.2260
60477W        W 3571   0.716  17.786   5.235  0.0602 -0.1202 -0.2154
60478W        W 3572   1.829  18.619   3.870 -0.0646 -0.0101 -0.0368
60479W        W 3573   4.059  14.855   5.848  0.2960  0.0695 -0.4078
60480W        W 3574  34.360  16.568   6.038 -0.3506 -0.2210  0.0815
60481W        W 3575   2.615  15.973   7.075 -0.0409  0.2036  0.2584
60482W        W 3576  33.766  15.203   3.898  0.1413 -0.2897 -0.1551
60483W        W 3577   1.531  17.252   6.320  0.2542 -0.0927 -0.1867
60484W        W 3578   1.800  14.113   5.734 -0.0025  0.2245 -0.1969
60485W        W 3579   2.956  15.859   3.059  0.1212 -0.3023 -0.0622
60486W        W 3580   3.123  16.924   8.518  0.0172  0.2631  0.1826
60487W        W 3581   2.081  15.362   3.369 -0.1549 -0.1747 -0.3427
60488W        W 3582   1.545  14.366   3.146 -0.0736 -0.2777 -0.0757
60489W        W 3583   0.817  13.918   2.753  0.2527 -0.0107  0.0815
60490W        W 3584   0.791  16.934   5.636 -0.1422  0.2263  0.4994
60491W        W 3585   1.463  18.050   6.589  0.0378  0.0165 -0.4134
60492W        W 3586   1.899  17.344   4.655  0.2494  0.0879  0.0487
60493W        W 3587   1.913  14.192   3.858  0.4710  0.0966 -0.0807
60494W        W 3588   3.335  18.735   4.879 -0.3659 -0.2004 -0.3271
60495W        W 3589   1.450  16.812   6.513  0.4926 -0.5027 -0.4428
60496W        W 3590   3.281  17.982   7.223 -0.0653  0.0504  0.1021
60497W        W 3591   2.997  17.828   5.434  0.3091 -0.1347  0.0245
60498W        W 3592   2.418  13.288   6.653  0.1044 -0.0121 -0.0284
60499W        W 3593   0.082  15.619   3.394 -0.1466 -0.3076 -0.1449
60500W        W 3594   1.725  15.372   5.003  0.0906  0.0519 -0.1175
60501W        W 3595  34.214  17.231   4.737  0.1608  0.2978  0.0728
60502W        W 3596   2.826  14.825   5.723 -0.1493 -0.0564 -0.1756
60503W        W 3597   2.609  13.453   7.089  0.0074 -0.1321  0.0290
60504W        W 3598   1.303  14.672   6.293  0.0122  0.0850  0.1893
60505W        W 3599   2.919  16.310   7.025 -0.3246  0.3101  0.2727
60506W        W 3600   2.382  14.540   4.034 -0.1276  0.1745  0.0875
60507W        W 3601   1.074  15.688   4.948 -0.0474 -0.4228 -0.1903
60508W        W 3602   0.211  14.271   3.612 -0.1838  0.0719 -0.4477
60509W        W 3603   0.866  15.075   6.945 -0.1664 -0.1649 -0.0194
60510W        W 3604   0.672  17.093   6.808  0.0795  0.2046  0.1741
60511W        W 3605   0.270  19.093   6.769 -0.0037 -0.3261  0.3067
60512W        W 3606   2.408  17.573   6.697  0.1697  0.1790 -0.2416
60513W        W 3607   2.182  15.299   4.732  0.0210  0.1035 -0.1666
60514W        W 3608   2.007  15.381   6.337 -0.0974  0.0841 -0.0511
60515W        W 3609   1.403  14.959   5.919  0.1894  0.2076  0.0363
60516W        W 3610   1.068  18.761   5.368 -0.2365  0.0487  0.0241
60517W        W 3611   1.452  15.755   4.646 -0.1985 -0.2409  0.0379
60518W        W 3612   2.108  13.359   5.129  0.0716  0.1607  0.0840
60519W        W 3613   0.805  17.871   5.826 -0.3121  0.0879  0.1371
60520W        W 3614   1.861  16.733   4.610 -0.1505  0.0558 -0.2260
60521W        W 3615   2.548  17.896   5.780 -0.1198  0.0373 -0.0152
60522W        W 3616   1.353  18.934   4.573 -0.0792 -0.3206  0.0886
60523W        W 3617   2.992  14.128   6.522  0.1532 -0.1354  0.1904
60524W        W 3618   0.354  16.001   4.716  0.1792  0.2692  0.0380
60525W        W 3619   0.117  15.163   3.121  0.0958 -0.0648  0.0262
60526W        W 3620   0.322  17.003   5.451 -0.0302 -0.1495 -0.4456
60527W        W 3621   1.887  14.158   4.944 -0.1188 -0.2784 -0.0154
60528W        W 3622   4.739  17.510   2.621 -0.2541 -0.0533 -0.1241
60529W        W 3623   1.427  16.240   6.612  0.2224 -0.0391  0.0081
60530W        W 3624   1.605  14.259   6.276  0.0635  0.1516 -0.0758
60531W        W 3625   0.638  18.630   5.703  0.1327  0.1317 -0.1265
60532W        W 3626   2.186  16.136   6.157 -0.0320  0.3945 -0.3029
60533W        W 3627   1.475  14.473   4.939  0.1642  0.0331 -0.0021
60534W        W 3628   2.449  18.736   5.495  0.0250 -0.3285 -0.2547
60535W        W 3629   1.050  16.641   7.379 -0.4167  0.3341 -0.0591
60536W        W 3630  33.872  15.260   3.328  0.1241 -0.2030 -0.1200
60537W        W 3631   2.510  16.566   6.273 -0.1348  0.0830 -0.0301
60538W        W 3632   2.331  15.381   4.132  0.2795 -0.4192 -0.3245
60539W        W 3633   0.914  18.193   4.956 -0.0842 -0.2664 -0.0191
60540W        W 3634   2.655  17.277   5.821  0.0662 -0.3224 -0.2640
60541W        W 3635   0.920  15.086   3.832 -0.0676  0.0190 -0.2313
60542W        W 3636   0.302  17.972   6.471  0.0336  0.0942 -0.0538
60543W        W 3637   1.621  15.716   6.952 -0.0876  0.0764  0.3174
60544W        W 3638   2.869  17.034   6.252 -0.0045 -0.3590 -0.1305
60545W        W 3639   1.046  15.664   5.469 -0.1566  0.0273 -0.3022
60546W        W 3640   0.757  14.634   4.043  0.0021  0.0342 -0.0925
60547W        W 3641   1.772  15.317   4.447  0.0048  0.0936  0.0883
60548W        W 3642   1.366  15.306   5.306 -0.0139  0.0958  0.2515
60549W        W 3643   2.324  15.484   8.198  0.2737  0.1343 -0.2190
60550W        W 3644   0.928  17.859   7.198  0.1121  0.2345 -0.0234
60551W        W 3645   0.914  14.413   5.736 -0.2795  0.0107 -0.1019
60552W        W 3646   3.377  17.625   4.470  0.1605 -0.2893 -0.2776
60553W        W 3647   2.992  16.545   6.474 -0.0568  0.2017  0.4967
60554W        W 3648   0.400  15.803   3.762  0.0845  0.0956  0.3033
60555W        W 3649   0.288  16.517   7.320 -0.2012 -0.1955 -0.0876
60556W        W 3650   0.541  15.930   4.267 -0.1788 -0.2382  0.1363
60557W        W 3651   0.893  14.926   6.054  0.2307 -0.2817 -0.1713
60558W        W 3652   1.009  17.166   6.405  0.5146  0.2047  0.1004
60559W        W 3653   1.249  17.376   4.134  0.1052 -0.1164 -0.0025
60560W        W 3654   1.005  16.146   5.209  0.0967  0.1551  0.0191
60561W        W 3655   2.145  13.606   3.984 -0.1160  0.1099  0.0797
60562W        W 3656   1.687  16.180   4.372  0.0749 -0.1600 -0.1335
60563W        W 3657   2.075  16.064   5.371  0.0725 -0.1726  0.0707
60564W        W 3658   2.681  15.236   7.074 -0.2336 -0.1629 -0.3132
60565W        W 3659   2.468  15.967   3.916 -0.0564  0.1990  0.0964
60566W        W 3660   1.768  16.254   6.983 -0.1725  0.1137 -0.2255
60567W        W 3661   0.635  14.837   5.191 -0.0393 -0.1367 -0.3248
60568W        W 3662   3.163  17.910   4.884  0.0950 -0.1053  0.3680
60569W        W 3663   1.390  17.015   5.325 -0.1056  0.2605 -0.0526
60570W        W 3664   3.555  19.089   7.817 -0.1560  0.2172 -0.1258
60571W        W 3665   1.565  15.891   6.102  0.0018  0.1680 -0.4370
60572W        W 3666   2.484  16.039   4.840 -0.0369 -0.1479  0.0437
60573W        W 3667   1.611  14.459   3.639  0.1689  0.1033 -0.0262
60574W        W 3668   0.385  16.789   4.954 -0.1324  0.1175 -0.2368
60575W        W 3669   5.067  16.726   5.959 -0.0496  0.3569  0.3683
60576W        W 3670   1.383  16.642   4.362 -0.5616 -0.3791 -0.0537
60577W        W 3671   3.462  14.576   4.942  0.0366  0.0770 -0.0226
60578W        W 3672   0.060  16.547   5.301  0.1325 -0.2140  0.0505
60579W        W 3673   3.566  15.599   4.775  0.1159 -0.2637 -0.2152
60580W        W 3674   2.162  16.276   4.387  0.1226 -0.0678 -0.1145
60581W        W 3675   0.587  18.930   5.289 -0.0941 -0.2670 -0.0469
60582W        W 3676   0.939  14.627   6.982  0.3209  0.0861  0.2452
60583W        W 3677   2.780  15.733   5.398  0.2988  0.1042 -0.0248
60584W        W 3678   1.069  13.927   5.539  0.1646  0.0655  0.0297
60585W        W 3679   1.420  15.256   6.338  0.3257 -0.0292  0.0881
60586W        W 3680   3.214  16.725   6.915  0.0043 -0.0171  0.0183
60587W        W 3681   1.614  17.543   5.330  0.2957 -0.0085  0.1965
60588W        W 3682  34.646  14.254   7.631 -0.1553 -0.1544 -0.0469
60589W        W 3683   3.482  17.897   5.309  0.5103  0.0256  0.2043
60590W        W 3684   2.635  16.221   4.355  0.1318 -0.0260 -0.1684
60591W        W 3685   2.587  14.438   6.581  0.1425  0.1712  0.0401
60592W        W 3686   2.393  14.835   4.893  0.0054 -0.1816  0.3370
60593W        W 3687   1.139  15.545   3.748 -0.4038 -0.1570  0.1849
60594W        W 3688  34.541  14.696   4.468 -0.0072 -0.1742 -0.0774
60595W        W 3689   2.248  16.217   7.597  0.1848  0.1642  0.0022
60596W        W 3690  34.552  14.241   5.213 -0.6314  0.1343 -0.0281
60597W        W 3691   1.752  15.983   7.485 -0.1085 -0.0700 -0.0754
60598W        W 3692   2.023  17.498   3.787 -0.0208 -0.2485 -0.0118
60599W        W 3693   2.782  16.145   6.183 -0.1753 -0.0652  0.3883
60600W        W 3694   1.983  15.744   4.164  0.0556  0.3636 -0.1804
60601W        W 3695   0.017  15.584   5.442  0.1190  0.2064  0.0694
60602W        W 3696   0.060  18.004   7.206 -0.1581  0.3302  0.3093
60603W        W 3697   0.315  14.766   3.825 -0.1153  0.0212  0.1553
60604W        W 3698   1.012  17.251   3.023  0.0139 -0.0889  0.2383
60605W        W 3699   1.880  17.115   5.498 -0.4799 -0.0799  0.1702
60606W        W 3700   3.330  16.262   6.665  0.3331 -0.0057 -0.0329
60607W        W 3701   2.855  13.995   3.233  0.3567  0.2231  0.0918
60608W        W 3702   2.936  15.726   5.940 -0.1312  0.3358  0.1761
60609W        W 3703  34.492  17.926   3.333  0.2760 -0.3647  0.4633
60610W        W 3704   0.925  13.505   4.706 -0.2727  0.2058  0.0733
60611W        W 3705   1.808  19.355   6.310  0.0306  0.1716 -0.0013
60612W        W 3706  34.680  16.169   5.783 -0.0305  0.1679 -0.1625
60613W        W 3707   1.403  17.076   4.519 -0.2950 -0.0161 -0.4229
60614W        W 3708   1.743  14.951   7.054 -0.1648  0.0015  0.2671
60615W        W 3709   2.647  14.338   5.962 -0.0786 -0.0321 -0.1815
60616W        W 3710   1.278  16.222   4.696  0.0993  0.1876 -0.2926
60617W        W 3711   3.303  16.245   7.363 -0.1490  0.0720 -0.1519
60618W        W 3712   1.024  17.650   4.853  0.0696 -0.1289  0.2708
60619W        W 3713   0.253  16.083   5.333  0.0900 -0.1592 -0.0397
60620W        W 3714   2.239  17.461   5.623 -0.1209  0.0852 -0.0077
60621W        W 3715   3.356  17.422   5.602 -0.0488  0.1663 -0.4589
60622W        W 3716   0.656  17.975   4.551  0.0716 -0.1650 -0.1288
60623W        W 3717  33.911  15.573   7.537 -0.0400 -0.0785 -0.0140
60624W        W 3718   3.515  16.439   5.862  0.0527 -0.2050  0.1369
60625W        W 3719   2.686  18.249   5.459  0.0910 -0.0031 -0.0897
60626W        W 3720   0.459  14.558   5.891 -0.0429  0.0458  0.1957
60627W        W 3721   1.557  16.442   3.623  0.0460  0.1119  0.0300
60628W        W 3722  34.657  18.354   7.861 -0.1306 -0.2621 -0.1055
60629W        W 3723   1.016  14.947   4.365 -0.1853 -0.2046  0.1285
60630W        W 3724   0.830  16.304   4.222  0.1953  0.0770  0.0896
60631W        W 3725   3.829  16.389   4.524 -0.4110  0.0813 -0.0232
60632W        W 3726   2.709  16.483   4.756 -0.0850  0.0568  0.1556
60633W        W 3727   1.316  17.760   5.740  0.1258  0.0603 -0.1097
60634W        W 3728   1.521  14.769   4.479 -0.2071 -0.4174 -0.2397
60635W        W 3729  34.584  18.518   7.274  0.1052  0.2674 -0.0312
60636W        W 3730   0.533  17.186   4.606 -0.3079 -0.1762  0.0894
60637W        W 3731   2.745  17.150   4.241 -0.1067  0.1140 -0.3144
60638W        W 3732   0.261  18.961   5.751 -0.0298 -0.3414 -0.1337
60639W        W 3733   3.748  17.731   6.208 -0.0364  0.1425 -0.1050
60640W        W 3734   2.478  15.767   4.406  0.1008 -0.3440 -0.2480
60641W        W 3735   3.159  16.635   5.575  0.0854 -0.2876  0.1411
60642W        W 3736   2.412  14.095   3.791  0.1408 -0.0762 -0.1542
60643W        W 3737   3.298  17.560   6.121 -0.1108  0.2034 -0.0551
60644W        W 3738   1.895  16.598   5.207  0.3337 -0.0093 -0.0697
60645W        W 3739   1.300  16.244   3.988 -0.3557  0.2903 -0.0388
60646W        W 3740   1.682  17.151   6.883 -0.1145  0.0046  0.0536
60647W        W 3741   3.684  15.254   6.048  0.0270 -0.0920 -0.1303
60648W        W 3742  34.311  17.914   7.543  0.0167 -0.0575  0.1192
60649W        W 3743   3.355  18.321   4.629 -0.0011 -0.1001  0.1218
60650W        W 3744   0.076  13.359   4.797 -0.1440 -0.2561 -0.1444
60651W        W 3745   0.619  15.063   4.675  0.0759  0.1814 -0.0044
60652W        W 3746   3.737  14.124   6.103  0.1206  0.0983  0.0734
60653W        W 3747   1.612  15.457   3.425  0.1633  0.1182  0.2716
60654W        W 3748   1.292  14.031   5.983  0.1423 -0.1845  0.0668
60655W        W 3749   0.363  17.889   5.594  0.2630 -0.0052 -0.0158
60656W        W 3750   0.560  18.210   7.064 -0.0057  0.2501 -0.0460
60657W        W 3751   1.432  17.152   5.818  0.0973 -0.3359  0.1003
60658W        W 3752  34.357  14.877   4.015  0.1295  0.2652  0.0472
60659W        W 3753   3.430  16.198   4.290 -0.0067 -0.2356 -0.0787
60660W        W 3754   1.241  15.746   6.494  0.1044 -0.0872 -0.0772
60661W        W 3755   2.237  15.620   5.152  0.1983  0.0760  0.4176
60662W        W 3756   0.812  16.090   4.708  0.1846 -0.3729  0.3451
60663W        W 3757   3.133  15.148   5.049 -0.1399  0.2703  0.0405
60664W        W 3758   2.143  16.968   5.875 -0.0068 -0.3212 -0.2247
60665W        W 3759   1.940  15.176   5.882 -0.2033  0.1023 -0.0386
60666W        W 3760   1.140  14.381   2.753  0.4436  0.1249  0.2327
60667W        W 3761   3.591  16.638   6.338  0.2699  0.2633  0.2184
60668W        W 3762   1.315  15.292   4.201 -0.0416 -0.0783  0.0946
60669W        W 3763   3.275  19.024   6.011 -0.1757 -0.1385 -0.1242
60670W        W 3764   0.242  15.494   4.221 -0.1531 -0.1387 -0.0190
60671W        W 3765   2.091  14.002   4.287 -0.0744  0.1043 -0.0000
60672W        W 3766   0.447  17.131   4.059 -0.1667 -0.0134 -0.1824
60673W        W 3767   0.141  16.746   6.034  0.1572  0.1052 -0.1322
60674W        W 3768   3.189  18.523   5.963  0.1178  0.1445 -0.0943
60675W        W 3769  34.550  15.145   5.132  0.1031 -0.0826  0.0416
60676W        W 3770   4.466  18.029   4.043  0.1989 -0.1283  0.1695
60677W        W 3771   3.224  16.492   4.608 -0.2013  0.0169  0.0011
60678W        W 3772   2.489  18.621   3.370 -0.0688 -0.3677 -0.2068
60679W        W 3773   0.162  17.369   5.788 -0.1037  0.2199  0.1123
60680W        W 3774   3.517  17.493   5.020  0.2138 -0.2306  0.4424
60681W        W 3775   0.572  15.778   5.117 -0.1543  0.1432  0.2324
60682W        W 3776   2.237  17.911   5.314  0.0728  0.0524  0.2237
60683W        W 3777   4.311  17.141   5.752 -0.2451 -0.0993  0.0159
60684W        W 3778   1.142  14.410   4.415 -0.0594 -0.0656 -0.0817
60685W        W 3779   1.058  15.208   5.686 -0.0268  0.2578  0.2225
60686W        W 3780   0.150  17.813   6.037  0.0644  0.0283  0.0980
60687W        W 3781   3.244  15.511   6.252  0.0292  0.3545 -0.1166
60688W        W 3782   2.416  15.138   6.124  0.2849 -0.4226  0.2729
60689W        W 3783   2.376  18.475   3.923 -0.0629  0.0263 -0.2124
60690W        W 3784   3.381  14.066   6.946 -0.0684  0.0604 -0.2515
60691W        W 3785   1.854  17.372   5.957 -0.4542  0.4188 -0.2235
60692W        W 3786   0.846  17.579   6.732 -0.1997 -0.3207 -0.0736
60693W        W 3787   0.008  16.042   3.566  0.0274 -0.2550 -0.1068
60694W        W 3788   1.565  16.690   5.731 -0.0427  0.0168  0.0037
60695W        W 3789   0.677  17.256   5.138 -0.0847 -0.1924 -0.1524
60696W        W 3790   1.557  18.492   4.701  0.0648  0.1492 -0.0805
60697W        W 3791   4.915  17.051   4.257 -0.1569  0.3260  0.0587
60698W        W 3792   1.998  15.870   4.727 -0.2176 -0.3253  0.0387
60699W        W 3793   4.981  17.891   4.812  0.0340 -0.1364  0.3112
60700W        W 3794   1.848  15.328   3.928  0.0175  0.1185  0.3749
60701W        W 3795   2.860  14.209   4.930  0.0738 -0.0344 -0.3106
60702W        W 3796   3.264  14.039   5.240 -0.2571 -0.0599  0.0998
60703W        W 3797   1.644  17.798   6.205 -0.0432 -0.1411  0.1545
60704W        W 3798  33.514  16.573   3.077  0.0111 -0.0436 -0.2928
60705W        W 3799   0.487  17.254   3.049 -0.1279 -0.1098  0.1281
60706W        W 3800   0.379  15.312   5.095 -0.2252 -0.1731  0.1860
60707W        W 3801   1.376  16.618   6.945 -0.2411  0.2755  0.0179
60708W        W 3802  34.692  16.511   6.454  0.1654 -0.3301 -0.0115
60709W        W 3803   1.061  16.455   5.637 -0.1690  0.0489 -0.1795
60710W        W 3804   0.284  14.780   3.332  0.0749  0.1764 -0.0160
60711W        W 3805   2.212  17.281   4.318  0.3647 -0.0778 -0.2500
60712W        W 3806  34.635  13.334   5.886  0.0806 -0.2745 -0.2243
60713W        W 3807   1.483  15.869   5.125 -0.0669 -0.1259 -0.2577
60714W        W 3808   2.579  17.387   5.250 -0.1011  0.0586 -0.0757
60715W        W 3809   1.737  16.913   3.700  0.0467  0.1750  0.0428
60716W        W 3810   1.284  15.199   4.725 -0.0260 -0.0048  0.0848
60717W        W 3811   2.251  17.812   6.258 -0.0477 -0.1511  0.1896
60718W        W 3812   1.978  16.258   3.232 -0.0660  0.1881  0.0721
60719W        W 3813   1.993  16.777   7.054 -0.1069  0.3953  0.3571
60720W        W 3814   1.831  15.513   7.359  0.0330  0.2675  0.1483
60721W        W 3815  32.989  15.700   3.281  0.0138 -0.1207  0.2643
60722W        W 3816   1.864  15.824   6.528  0.1118  0.2125  0.1154
60723W        W 3817   1.890  17.014   5.007  0.0459  0.1385 -0.1530
60724W        W 3818   2.844  18.734   3.694 -0.2117  0.2092 -0.0320
60725W        W 3819   0.373  16.461   5.668 -0.1745  0.2446  0.1355
60726W        W 3820   1.908  18.323   7.023  0.2230  0.1245 -0.0208
60727W        W 3821   0.582  15.562   7.046  0.5068  0.0365  0.1065
60728W        W 3822   2.700  15.449   5.001 -0.1474  0.0121 -0.0046
60729W        W 3823   2.795  17.225   6.862 -0.0324 -0.2264 -0.2803
60730W        W 3824   3.357  17.135   4.507 -0.0452  0.3568  0.2068
60731W        W 3825   2.967  13.956   5.762 -0.1305  0.2485 -0.0050
60732W        W 3826   2.685  14.941   4.000  0.0664 -0.1113 -0.3765
60733W        W 3827   1.994  15.735   7.888 -0.0706  0.1109  0.0733
60734W        W 3828  34.347  16.244   7.791 -0.3332  0.1951  0.0059
60735W        W 3829   2.726  17.694   6.209  0.2041 -0.0106 -0.0513
60736W        W 3830   1.101  14.744   5.404  0.2154  0.2590  0.0984
60737W        W 3831   2.171  14.539   6.307  0.3093 -0.2641 -0.3152
60738W        W 3832   2.420  16.233   3.484  0.0150 -0.2494 -0.1510
60739W        W 3833   0.960  15.421   4.477 -0.1091 -0.2712  0.0902
60740W        W 3834   1.210  14.841   3.500 -0.0793  0.0010  0.0635
60741W        W 3835   2.501  16.951   6.585  0.0569 -0.0766 -0.0412
60742W        W 3836   2.247  16.468   5.753  0.1132  0.2243 -0.0288
60743W        W 3837   4.115  17.031   6.253 -0.2284 -0.0181  0.0677
60744W        W 3838   0.996  16.627   4.658  0.0504  0.1685  0.1521
60745W        W 3839   2.832  15.937   3.516 -0.2621  0.3718 -0.1355
60746W        W 3840   4.376  19.304   7.561  0.1829 -0.1609  0.1334
60747W        W 3841   3.542  19.152   7.184 -0.0139  0.1836  0.1253
60748W        W 3842   1.160  18.708   5.846  0.1446  0.0323  0.0941
60749W        W 3843   3.991  17.863   5.447 -0.2896  0.0314 -0.0972
60750W        W 3844  33.578  14.115   6.204  0.2387  0.0294 -0.2291
60751W        W 3845   0.308  15.274   3.719 -0.0411 -0.1454  0.1693
60752W        W 3846   0.920  15.956   3.875 -0.1977 -0.1108 -0.2325
60753W        W 3847   1.994  15.722   5.906 -0.1159 -0.2978 -0.0117
60754W        W 3848   0.838  14.750   6.500  0.0797  0.0788  0.0468
60755W        W 3849   2.218  14.262   5.393 -0.2291  0.0518 -0.0747
60756W        W 3850   1.427  17.559   6.709 -0.0986  0.0438  0.1294
60757W        W 3851   1.460  16.397   5.287 -0.0282  0.2329 -0.2328
60758W        W 3852   1.614  16.943   9.068  0.0616 -0.1713 -0.1035
60759W        W 3853   1.590  17.497   8.784  0.3326  0.1352 -0.4407
60760W        W 3854   3.431  15.514   7.595 -0.0407  0.3772  0.1949
60761W        W 3855   2.946  17.220   7.428 -0.3176 -0.0202  0.0408
60762W        W 3856  34.492  15.766   7.531 -0.1456  0.2175  0.1023
60763W        W 3857   2.311  17.619   9.110  0.3235  0.0066  0.0184
60764W        W 3858   1.374  16.493   9.794  0.0251  0.0059  0.2981
60765W        W 3859   3.715  18.192   8.737 -0.1031  0.1942 -0.0450
60766W        W 3860   2.283  17.326   6.182 -0.1163  0.0604  0.4357
60767W        W 3861   2.605  16.917   9.717  0.1587  0.0968 -0.0610
60768W        W 3862   0.398  15.596   7.540  0.4001 -0.1664 -0.1466
60769W        W 3863  34.303  14.630   8.905 -0.0828 -0.0956 -0.0994
60770W        W 3864   2.863  17.604   9.622  0.0926  0.0987 -0.0343
60771W        W 3865   0.589  16.266   7.665 -0.4321  0.0480 -0.1927
60772W        W 3866   1.685  17.282  10.013  0.4133  0.2616 -0.3466
60773W        W 3867   0.662  15.503   8.994  0.0339  0.2896 -0.0109
60774W        W 3868   2.474  18.102   8.012 -0.0874 -0.1780  0.1670
60775W        W 3869   2.896  16.457   8.834  0.0828 -0.2132  0.0571
60776W        W 3870   1.810  17.218   9.382  0.2521  0.1968 -0.0524
60777W        W 3871   0.677  16.002   6.394 -0.1681 -0.1760 -0.2434
60778W        W 3872   0.465  15.708   8.488  0.4137  0.0374  0.3004
60779W        W 3873   0.141  18.042   9.555 -0.0297 -0.2420 -0.1677
60780W        W 3874   4.374  14.840   8.573  0.1464  0.0175 -0.2317
60781W        W 3875   2.126  14.740   8.975  0.0365 -0.1902  0.0459
60782W        W 3876   1.436  18.938   8.530 -0.3996  0.1916 -0.0930
60783W        W 3877   1.912  18.395   8.658  0.2205  0.0995 -0.0939
60784W        W 3878  34.221  15.787   7.936  0.2290 -0.0631  0.0325
60785W        W 3879   0.042  19.059   8.237  0.2991 -0.1370 -0.3843
60786W        W 3880   1.992  17.377   7.962  0.1005  0.0780  0.1348
60787W        W 3881   3.892  17.019   7.323  0.1065  0.1347 -0.1603
60788W        W 3882   0.505  16.735   6.443 -0.2176 -0.2320  0.0061
60789W        W 3883   2.853  15.251   9.387  0.1188 -0.1528  0.2140
60790W        W 3884   2.524  17.242   7.674  0.1123  0.1255 -0.1109
60791W        W 3885   2.307  18.024   7.004 -0.0778 -0.0037 -0.1469
60792W        W 3886   1.972  17.219   8.799  0.1182 -0.1626 -0.2347
60793W        W 3887   0.862  17.223   8.735  0.0693 -0.0021  0.1729
60794W        W 3888   2.241  18.254   7.426 -0.1000 -0.3340  0.0182
60795W        W 3889   1.862  15.804   8.385  0.1819 -0.2024 -0.0478
60796W        W 3890   1.158  15.078   7.833 -0.4930  0.2194 -0.1476
60797W        W 3891   3.654  15.075   8.077  0.1629  0.4180 -0.0991
60798W        W 3892  33.328  18.144  12.167 -0.0147  0.2015  0.2907
60799W        W 3893   1.453  19.207   9.007  0.0850 -0.1302 -0.1294
60800W        W 3894   1.244  16.691   9.283 -0.0465  0.5470  0.0603
60801W        W 3895   0.949  17.802   7.996  0.2372 -0.0008  0.0180
60802W        W 3896   2.848  15.659   8.092 -0.0097  0.1952 -0.1275
60803W        W 3897   0.081  17.538   9.414 -0.1024  0.1747  0.1776
60804W        W 3898   0.684  15.174   8.510 -0.1228 -0.1722  0.2336
60805W        W 3899   3.352  19.761   7.451  0.3786 -0.2664 -0.1498
60806W        W 3900   2.854  17.085   8.917  0.1714  0.0566 -0.3068
60807W        W 3901   3.083  17.421   6.544 -0.2349  0.2368  0.2880
60808W        W 3902   1.026  16.199   8.113 -0.0181 -0.2460  0.0107
60809W        W 3903   1.825  14.452   7.820 -0.0572  0.2935  0.1068
60810W        W 3904   2.637  16.763   9.237 -0.0711  0.1198  0.1566
60811W        W 3905   0.879  17.100   9.324 -0.2194  0.0531 -0.2335
60812W        W 3906   1.469  15.861   9.066  0.0803  0.1363 -0.2996
60813W        W 3907   2.141  15.812   7.016  0.0437 -0.1436  0.0286
60814W        W 3908   2.417  15.108   8.521  0.1953  0.1479  0.1768
60815W        W 3909   2.633  14.563   8.575 -0.1162  0.0346  0.0980
60816W        W 3910   1.214  17.009   8.126 -0.0278  0.1013  0.0438
60817W        W 3911   1.564  17.877   7.144  0.4530  0.0259  0.1357
60818W        W 3912   5.570  17.103   9.703  0.2450 -0.1566 -0.1193
60819W        W 3913   2.700  16.266   7.971 -0.1186  0.2280 -0.1930
60820W        W 3914   1.208  17.604   7.586  0.2286 -0.1669 -0.0760
60821W        W 3915   1.793  18.650   7.390  0.1379  0.3090  0.0177
60822W        W 3916  33.758  16.924   8.733  0.0858 -0.0176 -0.1637
60823W        W 3917   0.070  17.862   7.779 -0.1047  0.0410  0.2291
60824W        W 3918  34.078  15.045   9.050  0.0586  0.1593  0.0729
60825W        W 3919   2.144  17.042   8.346 -0.0847  0.0742 -0.1889
60826W        W 3920   2.172  14.905   8.064 -0.2037  0.0843 -0.1217
60827W        W 3921   1.659  15.468   8.652  0.1997  0.1946 -0.1549
60828W        W 3922   0.519  16.858   7.610 -0.0157 -0.1329  0.2644
60829W        W 3923   3.906  19.165   8.232 -0.2916 -0.1357 -0.0576
60830W        W 3924   3.326  16.842   8.068  0.0987 -0.3116  0.1518
60831W        W 3925   3.924  16.960   6.755  0.1286  0.2628 -0.0906
60832W        W 3926   0.923  17.124   9.866  0.4096  0.1208 -0.3029
60833W        W 3927  33.963  15.031   8.582 -0.2532 -0.1260  0.0064
60834W        W 3928  33.945  13.973   9.193  0.0799  0.1358  0.1349
60835W        W 3929   0.290  14.561   7.859 -0.0399  0.1801 -0.2135
60836W        W 3930   1.764  16.812   8.127 -0.0058  0.2318 -0.3241
60837W        W 3931   1.442  16.625   7.802  0.0498 -0.0547 -0.2602
60838W        W 3932  33.847  15.542   6.920 -0.1246  0.2314 -0.1972
60839W        W 3933   2.701  17.975   7.382  0.2616  0.1106 -0.3840
60840W        W 3934   4.616  16.557   9.679  0.2393 -0.0656 -0.0385
60841W        W 3935   3.797  18.590   7.933 -0.3534  0.0086  0.0968
60842W        W 3936   0.130  14.975   9.614 -0.3903 -0.0969 -0.2746
60843W        W 3937  34.390  15.497   6.590 -0.0452  0.0382  0.1587
60844W        W 3938  34.336  18.565   8.528  0.2849 -0.0568 -0.0360
60845W        W 3939   1.349  17.736   9.222 -0.0714 -0.2737  0.2724
60846W        W 3940   0.579  14.669   7.361 -0.0328  0.2901  0.0714
60847W        W 3941   3.491  17.485   9.718  0.0474  0.1804  0.1701
60848W        W 3942   1.892  16.635   7.503  0.2654  0.1534  0.3602
60849W        W 3943   2.378  15.734   9.148 -0.3773 -0.0238  0.1622
60850W        W 3944   3.003  17.134   9.951  0.0404  0.0736 -0.2471
60851W        W 3945  33.924  13.323   7.180  0.1431  0.1515 -0.1082
60852W        W 3946   3.715  17.877   9.461 -0.1716 -0.2729  0.2678
60853W        W 3947   0.129  16.961   6.689 -0.1037  0.0916 -0.2613
60854W        W 3948  33.255  16.852   8.458  0.0573  0.1452 -0.0635
60855W        W 3949   2.052  17.896   7.997  0.0039  0.0416 -0.1073
60856W        W 3950   1.585  13.238   9.066 -0.0553  0.0778  0.2769
60857W        W 3951   1.158  16.137   7.636  0.4787  0.4268 -0.0400
60858W        W 3952   1.064  14.236   7.452 -0.2588  0.0044 -0.1534
60859W        W 3953   2.789  13.922   7.323 -0.3175 -0.0305 -0.2225
60860W        W 3954   3.494  17.276   7.724 -0.1117 -0.0397  0.0165
60861W        W 3955   2.600  17.490   7.234 -0.2526  0.0717  0.6797
60862W        W 3956   1.503  15.899   7.988 -0.2027 -0.0485 -0.1819
60863W        W 3957   2.212  16.873   7.900 -0.0073  0.2267  0.1199
60864W        W 3958   2.647  19.765   9.930 -0.2545 -0.2157 -0.0027
60865W        W 3959   2.729  15.169   8.089 -0.0614 -0.0581  0.0652
60866W        W 3960   3.122  17.222   9.417  0.0284  0.2233  0.0166
60867W        W 3961  33.045  15.636  10.057 -0.0675 -0.1000 -0.1891
60868W        W 3962   2.763  17.626   8.988 -0.3569  0.0496  0.4893
60869W        W 3963   0.674  15.936   9.297 -0.0138  0.2968  0.0202
60870W        W 3964   1.328  15.692   7.461 -0.4081  0.4093  0.2271
60871W        W 3965   2.272  15.287   7.741  0.1248  0.0759  0.2962
60872W        W 3966   0.834  19.195   7.068 -0.2706 -0.0411 -0.0176
60873W        W 3967   1.222  13.684   9.414  0.2184 -0.0797 -0.1184
60874W        W 3968   3.376  15.555   9.457 -0.2773  0.3265  0.0865
60875W        W 3969   2.919  16.297   9.665 -0.2921 -0.0660  0.0928
60876W        W 3970   2.282  16.326   7.089 -0.0730  0.2690 -0.2614
60877W        W 3971  34.260  14.705   6.458  0.1433 -0.1334  0.1847
60878W        W 3972   3.612  13.918   9.431  0.0195 -0.3499 -0.2869
60879W        W 3973   1.312  17.209   9.564  0.1244  0.2866  0.0726
60880W        W 3974   3.252  17.672   9.252 -0.0540 -0.3313  0.0545
60881W        W 3975   2.237  14.738   7.582  0.2131 -0.1171  0.1670
60882W        W 3976   1.961  17.659   6.996  0.0839  0.0030 -0.2949
60883W        W 3977   0.850  16.646   6.963 -0.1546 -0.0353  0.1619
60884W        W 3978   2.521  14.014   8.577  0.1907  0.0430  0.2251
60885W        W 3979   2.960  19.340   9.846 -0.2685  0.2461  0.0177
60886W        W 3980   0.989  17.131   7.657  0.0089 -0.1316  0.1383
60887W        W 3981   2.197  17.180   9.654  0.0207  0.2987  0.1458
60888W        W 3982   1.339  18.287   7.450  0.1645 -0.0381 -0.3263
60889W        W 3983   4.229  13.073   7.817 -0.1386 -0.0189 -0.0601
60890W        W 3984   0.514  18.299   8.053  0.2611  0.3042  0.2128
60891W        W 3985   0.798  15.939   7.302  0.3194 -0.0554 -0.0308
60892W        W 3986   0.274  16.962   8.023 -0.1268  0.0150  0.0677
60893W        W 3987   2.680  15.035   7.583 -0.1815  0.2410  0.1135
60894W        W 3988   3.719  16.354   7.887 -0.2483 -0.0601  0.0125
60895W        W 3989  34.202  17.139   9.588  0.1519  0.3849 -0.0609
60896W        W 3990   2.566  15.739   8.603  0.0884 -0.0362  0.0864
60897W        W 3991   1.392  18.385   8.671  0.0361 -0.0523 -0.2079
60898W        W 3992   2.612  14.750   7.155  0.4048 -0.0806  0.1602
60899W        W 3993   0.057  15.554   7.921 -0.2718  0.3445 -0.0003
60900W        W 3994   6.171  15.161   9.379  0.4048 -0.0484  0.2882
60901W        W 3995   0.880  16.107   6.867  0.2491  0.1218 -0.4213
60902W        W 3996   0.552  17.954   7.607  0.0353 -0.3771  0.2358
60903W        W 3997   2.604  17.256   9.339 -0.0585  0.0409  0.3278
60904W        W 3998   0.300  16.029   7.223 -0.0478  0.0122 -0.0152
60905W        W 3999   0.312  16.329   8.998  0.2016  0.2810 -0.0486
60906W        W 4000   2.239  17.039   9.140 -0.1574  0.1846 -0.1070
60907W        W 4001   1.925  16.275   7.940  0.1055 -0.0969  0.3330
60908W        W 4002   0.442  16.298   8.158  0.0293  0.0526 -0.2155
60909W        W 4003   1.867  16.270   8.567 -0.1605  0.0934 -0.1007
60910W        W 4004   2.407  16.257   8.640  0.0497  0.2417 -0.0938
60911W        W 4005   1.002  15.072   8.927  0.0579 -0.0107 -0.0163
60912W        W 4006   1.843  15.298   8.140 -0.0121  0.0879 -0.0158
60913W        W 4007   3.361  17.022   6.550  0.2194 -0.2282 -0.0681
60914W        W 4008   1.038  15.913   8.955  0.0743 -0.2829  0.3005
60915W        W 4009  33.494  17.789   9.065 -0.0238 -0.1891 -0.1354
60916W        W 4010   1.207  17.462   8.404 -0.2164  0.1068 -0.0010
60917W        W 4011   2.061  16.478   9.085  0.1110  0.1458  0.1619
60918W        W 4012   1.042  16.378   8.636  0.0090 -0.0670  0.2007
60919W        W 4013   0.874  16.836   8.423  0.0787  0.1066  0.2155
60920W        W 4014  33.571  15.959   8.713 -0.0616 -0.3709  0.0601
60921W        W 4015   2.279  13.787   7.355 -0.1319  0.0482  0.0631
60922W        W 4016   2.784  17.738   7.841 -0.0871  0.0003  0.1249
60923W        W 4017   1.454  14.066   8.658 -0.2987 -0.0745  0.0512
60924W        W 4018   3.022  17.453   8.421  0.3410  0.1587 -0.0005
60925W        W 4019   0.287  16.591   9.450  0.3009 -0.0854  0.0979
60926W        W 4020   4.280  17.835   9.634 -0.1192  0.0366  0.2259
60927W        W 4021   1.027  15.632   7.831 -0.0230 -0.1612  0.2115
60928W        W 4022   1.390  15.225   7.296  0.1465 -0.1980  0.0774
60929W        W 4023   1.283  16.876   8.708  0.3989  0.1383  0.1582
60930W        W 4024   2.560  17.423  10.007  0.0953 -0.0969 -0.0683
60931W        W 4025   1.577  17.186   7.773  0.1107 -0.0469 -0.2218
60932W        W 4026   2.975  16.017   8.479  0.1149  0.1265  0.1654
60933W        W 4027   1.127  18.493   9.164  0.0090  0.0572  0.2119
60934W        W 4028   3.636  16.017   8.270  0.0907  0.2562  0.2667
60935W        W 4029   1.451  16.926   7.313  0.1627  0.1847 -0.2971
60936W        W 4030   1.806  16.776   8.630  0.3745  0.0189 -0.2501
60937W        W 4031   4.049  16.513   9.565  0.0550 -0.2114 -0.1082
60938W        W 4032   3.271  15.576   8.282  0.2049 -0.1640 -0.1117
60939W        W 4033   4.386  17.349   9.850 -0.0182  0.1133  0.1039
60940W        W 4034   3.114  16.452   7.787 -0.1860  0.0408 -0.1570
60941W        W 4035   5.709  15.066   9.586 -0.3101 -0.1835 -0.2670
60942W        W 4036   3.778  15.682   8.622 -0.0908  0.1856 -0.0289
60943W        W 4037   2.431  16.828   8.744  0.3060 -0.1259  0.1365
60944W        W 4038   0.781  16.429   9.084  0.0218 -0.0293  0.1480
60945W        W 4039   1.270  13.554   7.003 -0.0824  0.0604 -0.1039
60946W        W 4040   2.639  17.062   8.239 -0.2534 -0.1382 -0.0800
60947W        W 4041   3.110  18.251   9.595  0.1279  0.1760  0.2773
60948W        W 4042   3.346  14.654   8.645  0.0155  0.1044  0.1099
60949W        W 4043  34.293  15.320   8.285  0.2994 -0.3287  0.0074
60950W        W 4044   0.963  16.550   6.485 -0.0021  0.2859 -0.0056
60951W        W 4045   2.468  17.539   8.126 -0.3098 -0.3168 -0.2034
60952W        W 4046   1.260  17.271   9.059 -0.0292  0.0907 -0.1016
60953W        W 4047   2.179  15.128   7.271 -0.2095 -0.0525 -0.0736
60954W        W 4048   0.304  17.012   7.185  0.1943 -0.1973 -0.1120
60955W        W 4049   1.404  15.026   8.616 -0.0285  0.1018  0.0230
60956W        W 4050   0.746  19.786   9.120  0.1336  0.1471 -0.2989
60957W        W 4051   1.430  18.172   8.059  0.1277 -0.3733  0.2661
60958W        W 4052   2.438  13.016   9.359 -0.0775 -0.1956  0.5457
60959W        W 4053   3.680  17.160   8.717 -0.0759 -0.1809  0.0937
60960W        W 4054   1.838  16.684   9.484  0.4320  0.1043 -0.2796
60961W        W 4055   0.516  16.581   8.565  0.2917 -0.1430  0.1262
60962W        W 4056   3.987  16.183   8.665 -0.0920  0.1947  0.0978
60963W        W 4057   0.476  17.428   7.744 -0.0394  0.5368 -0.0264
60964W        W 4058   1.755  16.147   9.361 -0.1159 -0.1739  0.2425
60965W        W 4059   0.679  13.887   9.442 -0.4400 -0.0022 -0.0792
60966W        W 4060   2.820  17.794   6.905 -0.2023  0.1621 -0.0003
60967W        W 4061  34.607  18.497   9.387  0.1417 -0.2671  0.2981
60968W        W 4062   1.487  18.618   7.015  0.2003  0.2555  0.0473
60969W        W 4063   3.160  17.664   7.564 -0.0927 -0.0706 -0.0573
60970W        W 4064   2.972  17.291   7.920  0.2807  0.5043  0.0799
60971W        W 4065   2.587  18.115   9.679 -0.1445  0.0360  0.2909
60972W        W 4066   2.043  15.323   6.853 -0.1384  0.0694 -0.0187
60973W        W 4067   0.724  19.114   9.567  0.1186 -0.0100 -0.1374
60974W        W 4068  34.341  16.702   7.413  0.2641  0.0335  0.2736
60975W        W 4069   3.438  18.027   7.708  0.1994  0.2866  0.1591
60976W        W 4070   1.021  19.561   8.096  0.0113 -0.0284  0.1223
60977W        W 4071   1.898  14.551   7.239 -0.1490  0.1695 -0.0161
60978W        W 4072   2.343  16.001   8.212 -0.0041  0.0110  0.0997
60979W        W 4073   4.184  15.292   8.790  0.0854 -0.0055 -0.0622
60980W        W 4074   0.502  17.344   9.140  0.0628  0.3339 -0.2468
60981W        W 4075   1.408  14.593   7.160 -0.0138  0.0978 -0.1848
60982W        W 4076   3.697  18.284   7.215 -0.1320 -0.0579  0.0580
60983W        W 4077  34.055  15.988   7.309 -0.0207 -0.2194  0.0361
60984W        W 4078   1.437  15.358   9.076  0.2900 -0.2058 -0.0309
60985W        W 4079   3.597  14.909   8.981 -0.0743 -0.3245 -0.1056
60986W        W 4080   2.304  17.743   7.585 -0.1243  0.1528 -0.1049
60987W        W 4081   1.420  15.963   8.580 -0.2039 -0.3794 -0.0205
60988W        W 4082   1.555  17.899   8.434 -0.1030  0.3057 -0.1382
60989W        W 4083   0.789  18.108   8.952  0.0374  0.3814 -0.1123
60990W        W 4084   0.869  18.062   8.432 -0.0836  0.1848 -0.0355
60991W        W 4085  34.327  15.442   8.759  0.0688  0.1449 -0.3541
60992W        W 4086   3.100  16.733   9.616  0.0031  0.1629 -0.1288
60993W        W 4087   0.575  17.557   9.682 -0.0469 -0.3135 -0.0991
60994W        W 4088   0.972  15.750   8.331  0.0931 -0.2132 -0.3436
60995W        W 4089   4.576  17.290   8.453  0.0832 -0.1020 -0.0970
60996W        W 4090   4.477  17.378   9.349  0.0943 -0.5018 -0.0336
60997W        W 4091  32.762  16.738   9.698  0.0373  0.1837  0.0683
60998W        W 4092   1.499  16.393   7.374  0.0870  0.3315 -0.0018
60999W        W 4093   2.346  16.735   7.478 -0.0760  0.4389 -0.1361
61000W        W 4094  34.675  15.297   7.471  0.1125  0.1321 -0.0188
61001W        W 4095   2.696  16.379   7.421  0.1839 -0.1856  0.0871
61002W        W 4096   0.169  16.147   8.575  0.0000 -0.0410  0.1143
61003W        W 4097   3.945  16.957   9.124 -0.1845 -0.1017 -0.0040
61004W        W 4098   0.537  15.841   8.003 -0.3191 -0.2913  0.0146
61005W        W 4099   3.541  18.201   6.201 -0.0754 -0.2541  0.0822
61006W        W 4100   6.176  18.629   9.740  0.0058  0.0499 -0.2542
61007W        W 4101   3.127  17.880   6.569 -0.1698 -0.0936 -0.2079
61008W        W 4102   4.564  16.717   8.600 -0.1234  0.1042  0.2625
61009W        W 4103   4.361  18.892   8.577  0.2375 -0.0372 -0.2111
61010W        W 4104   1.476  16.383   8.279 -0.0523 -0.0273  0.0433
61011W        W 4105   2.318  17.645   9.633  0.3536  0.1023 -0.0067
61012W        W 4106   2.208  14.978   9.421 -0.0293 -0.1142 -0.1131
61013W        W 4107   1.698  14.613   8.680 -0.3883  0.1647  0.0495
61014W        W 4108   0.172  16.032   9.538 -0.0375  0.0248  0.1318
61015W        W 4109  34.646  16.565   6.966 -0.0535  0.0665 -0.0376
61016W        W 4110  32.561  11.155   9.774 -0.2949  0.3228  0.0245
61017W        W 4111   1.947  17.002   6.381 -0.0012  0.0341  0.3093
61018W        W 4112   2.246  16.419   9.572  0.2638 -0.1236  0.0959
61019W        W 4113   0.331  15.787   5.977 -0.1335 -0.4214 -0.2681
61020W        W 4114   1.018  15.439   9.345 -0.1127 -0.0964  0.1733
61021W        W 4115   1.709  18.591   8.204 -0.0318 -0.0005 -0.2455
61022W        W 4116   5.064  16.969   9.517 -0.1586 -0.0745 -0.6050
61023W        W 4117   2.775  16.590   8.339  0.0961 -0.1113 -0.0043
61024W        W 4118   5.626  18.818   9.531 -0.0787  0.0888  0.0766
61025W        W 4119   1.043  14.852   8.312 -0.3306  0.0744 -0.2207
61026W        W 4120   3.451  16.151   8.780 -0.1020 -0.1275 -0.1116
61027W        W 4121   3.104  15.214   7.796  0.2240  0.0760 -0.0545
61028W        W 4122  32.451  18.222   8.446  0.3042 -0.0048 -0.1123
61029W        W 4123   0.842  16.641   7.937 -0.1096  0.0973 -0.0787
61030W        W 4124   1.404  16.405   6.124  0.0729 -0.2172 -0.1254
61031W        W 4125  34.462  16.962   8.023  0.5119 -0.0365  0.0619
61032W        W 4126  34.454  16.148   8.242  0.0406 -0.1376 -0.0529
61033W        W 4127   1.092  15.482   8.720  0.1831  0.4835  0.0486
61034W        W 4128   3.621  17.608   7.409  0.2285 -0.1381 -0.0645
61035W        W 4129   0.162  15.424   8.763 -0.1882 -0.2447 -0.1201
61036W        W 4130  34.666  14.466   8.599  0.0838 -0.0306  0.0356
61037W        W 4131   2.473  17.338   8.661 -0.1836 -0.0389  0.2150
61038W        W 4132   3.904  17.685   9.894 -0.0341 -0.1073  0.0758
61039W        W 4133   0.658  15.380   8.044 -0.3021 -0.2009  0.0281
61040W        W 4134  34.548  16.250   7.334  0.0044 -0.0964 -0.0167
61041W        W 4135  34.553  13.733   7.725 -0.2789  0.0637 -0.0698
61042W        W 4136   1.899  15.891   8.917  0.1196 -0.2850  0.2735
61043W        W 4137   1.992  17.611   8.464 -0.1848 -0.0416 -0.2776
61044W        W 4138   3.077  19.438   7.700  0.2884 -0.2312  0.1033
61045W        W 4139   0.171  17.605   8.609  0.4855 -0.0387 -0.0288
61046W        W 4140   2.719  16.820   7.808 -0.0318  0.1204 -0.1672
61047W        W 4141   3.468  17.094   7.166  0.1775 -0.3115  0.0669
61048W        W 4142   2.287  15.409   9.636 -0.1005 -0.2857 -0.1645
61049W        W 4143   3.562  17.266   8.237 -0.0828 -0.1473 -0.0695
61050W        W 4144   3.739  16.453   9.085 -0.2615  0.1647 -0.2215
61051W        W 4145   0.641  16.112   8.714 -0.2471  0.0511 -0.0156
61052W        W 4146   2.560  16.701   7.003  0.1036 -0.1113  0.2884
61053W        W 4147   2.047  17.273   7.463 -0.0865 -0.1206  0.4017
61054W        W 4148  34.391  17.701   8.867  0.1368 -0.2129 -0.0755
61055W        W 4149   1.649  17.231   8.374  0.0857 -0.1394  0.1159
61056W        W 4150   2.008  17.907   8.871 -0.2673 -0.1694 -0.1787
61057W        W 4151   1.480  17.631   7.980  0.3839 -0.1484 -0.2277
61058W        W 4152   3.188  17.525   7.094  0.1558 -0.1897  0.0008
61059W        W 4153   4.294  16.073   9.640 -0.0279 -0.3096  0.0710
61060W        W 4154   2.515  19.111   9.025 -0.3465 -0.2155  0.0132
61061W        W 4155   3.266  16.469   9.239  0.0897  0.0689  0.0337
61062W        W 4156   0.206  13.555   9.271 -0.1209  0.2210 -0.4202
61063W        W 4157  34.535  16.408   8.831  0.0153  0.1108 -0.0866
61064W        W 4158   1.521  16.416   8.931  0.1412 -0.2437  0.0278
61065W        W 4159   3.134  16.031   9.202 -0.0411 -0.0514  0.2418
61066W        W 4160   0.348  15.406   9.375  0.2758 -0.1981 -0.1916
61067W        W 4161   0.833  13.593   6.662 -0.0508 -0.0338  0.1365
61068W        W 4162   0.130  17.869   9.044 -0.0619 -0.1479  0.1760
61069W        W 4163   2.279  16.487   8.229  0.0599  0.2165 -0.2538
61070W        W 4164   0.404  19.949   2.779  0.3305 -0.1083 -0.2773
61071W        W 4165   1.273  18.469  31.665  0.1136 -0.0091 -0.1216
61072W        W 4166   2.614  18.634  31.328  0.0361 -0.0019  0.0650
61073W        W 4167   3.524  19.104   1.962  0.1205 -0.1167  0.1219
61074W        W 4168   1.462  18.236   0.456  0.1811  0.0248  0.0376
61075W        W 4169   3.245  21.953   1.483 -0.4377 -0.3016 -0.0073
61076W        W 4170   1.559  18.190   3.621  0.2115  0.0679 -0.1417
61077W        W 4171   1.940  21.019   2.295  0.1285 -0.2514 -0.2871
61078W        W 4172   3.084  20.711   2.143 -0.1949 -0.0967  0.1891
61079W        W 4173   2.234  20.303   0.414  0.1033 -0.0744  0.1797
61080W        W 4174   3.149  18.813   0.918 -0.0544  0.3651 -0.0734
61081W        W 4175   2.148  19.422   3.722 -0.2480 -0.2337  0.0464
61082W        W 4176   1.374  19.157  31.475  0.2748 -0.3096  0.1477
61083W        W 4177  34.609  18.315   0.846 -0.3349  0.4009 -0.4139
61084W        W 4178   2.966  19.571   2.377 -0.0699  0.2407  0.1421
61085W        W 4179   1.499  18.843   0.955 -0.0316 -0.3397 -0.1291
61086W        W 4180   2.237  17.648   1.690 -0.0712  0.0202 -0.1824
61087W        W 4181   2.438  18.021   2.048  0.1384 -0.1340  0.0464
61088W        W 4182   2.868  21.742   1.776  0.1592 -0.0041 -0.1630
61089W        W 4183   2.123  18.897   3.632  0.0102 -0.0460 -0.0414
61090W        W 4184   3.321  17.075   4.038  0.0115 -0.0874 -0.0076
61091W        W 4185   1.947  19.888   1.402  0.0488  0.0227 -0.1839
61092W        W 4186   0.719  19.533   1.190 -0.3073 -0.0618  0.0685
61093W        W 4187  34.361  19.391   2.603  0.0805  0.0877 -0.2789
61094W        W 4188   1.101  18.966   2.082  0.1259  0.2232  0.1174
61095W        W 4189   2.532  17.906   2.685 -0.3022  0.0288 -0.0997
61096W        W 4190   3.769  19.770   1.540 -0.1117  0.1278 -0.0164
61097W        W 4191   2.425  19.110   1.253  0.0260  0.1095  0.0555
61098W        W 4192   1.509  21.044   2.585  0.1474 -0.2712 -0.1170
61099W        W 4193   3.675  18.909   3.400  0.2524  0.1460 -0.0256
61100W        W 4194  33.742  20.890   1.283  0.1720  0.2116  0.2047
61101W        W 4195  33.770  21.639   2.330 -0.3010  0.1669 -0.3387
61102W        W 4196   2.230  20.811   0.476  0.1131 -0.0759  0.1559
61103W        W 4197   3.844  19.381  31.970 -0.2026  0.3100 -0.3016
61104W        W 4198   3.477  20.543   2.740  0.0636 -0.1921 -0.0212
61105W        W 4199   1.084  20.092   3.428  0.2123  0.1716  0.0470
61106W        W 4200   0.825  20.530   1.003  0.0858 -0.1323  0.1613
61107W        W 4201   2.226  20.118   3.222  0.0869 -0.1895 -0.0209
61108W        W 4202   2.674  20.887   2.251  0.0017  0.3122 -0.1239
61109W        W 4203   2.045  19.355   1.506  0.1652  0.0397 -0.0128
61110W        W 4204   2.520  17.534   0.220  0.2340 -0.1784  0.0329
61111W        W 4205   2.095  20.926   1.096 -0.0184  0.1392  0.1076
61112W        W 4206   2.554  18.451  31.791 -0.2709  0.3223  0.2422
61113W        W 4207   1.163  19.535   3.384 -0.0306  0.2173  0.1448
61114W        W 4208   0.065  20.212   2.570  0.1141 -0.2037 -0.0468
61115W        W 4209   3.984  18.038   3.992 -0.4154 -0.2005  0.1978
61116W        W 4210   1.786  21.002   0.525 -0.0025  0.0220 -0.0843
61117W        W 4211   3.433  19.145  31.698  0.1377  0.1260 -0.1193
61118W        W 4212   1.123  17.348  31.223 -0.0910  0.0827 -0.0737
61119W        W 4213   3.634  18.796   1.279  0.0170 -0.0515  0.0772
61120W        W 4214   2.633  18.453   2.844  0.0578  0.0357  0.1366
61121W        W 4215   1.319  20.544   1.262  0.0335 -0.0237 -0.0846
61122W        W 4216   1.805  18.225   3.063 -0.1698  0.0405  0.0119
61123W        W 4217   3.870  19.480   1.923 -0.1093 -0.2011  0.2204
61124W        W 4218   1.776  19.081  31.185  0.1437 -0.1665 -0.0628
61125W        W 4219   3.361  19.534   1.614 -0.2095 -0.1753  0.1471
61126W        W 4220   0.858  20.565   3.631  0.0841  0.1884 -0.3244
61127W        W 4221   0.139  19.523   1.140 -0.0277  0.1122 -0.0721
61128W        W 4222   3.566  20.864  31.570  0.3487  0.1279  0.0213
61129W        W 4223   4.288  20.982  31.374 -0.0812 -0.2337  0.1372
61130W        W 4224   2.572  22.779   2.108 -0.0823 -0.0880 -0.1777
61131W        W 4225   0.336  19.745   1.713  0.2333  0.3437 -0.1574
61132W        W 4226   0.913  20.252   4.719 -0.1015  0.1128 -0.1669
61133W        W 4227   0.814  18.465   3.777  0.0654  0.4108 -0.0786
61134W        W 4228   1.034  16.169  31.870 -0.3284  0.1135 -0.0701
61135W        W 4229   4.321  19.955   3.748  0.3021 -0.2739  0.1662
61136W        W 4230   0.896  22.007   4.241  0.1356 -0.2787  0.1282
61137W        W 4231   4.429  19.004   1.209  0.0414 -0.0799 -0.0017
61138W        W 4232   0.594  20.295   2.475  0.0084 -0.0759  0.2120
61139W        W 4233   2.261  21.212   3.036  0.0404  0.1937  0.0207
61140W        W 4234   3.148  20.029   0.096  0.0259 -0.1585 -0.0659
61141W        W 4235   1.460  18.047   1.112 -0.1963  0.0458  0.1623
61142W        W 4236   2.998  18.061   2.781 -0.1507 -0.1959 -0.0243
61143W        W 4237   2.060  19.393   1.989 -0.0017 -0.0489  0.1569
61144W        W 4238   1.664  18.631  30.865 -0.0239 -0.0606 -0.0022
61145W        W 4239   3.341  20.287   1.950 -0.0164 -0.1279  0.0289
61146W        W 4240   4.178  19.579   0.428  0.0983  0.2155  0.2931
61147W        W 4241   1.297  19.824   1.972  0.1198  0.0976  0.2616
61148W        W 4242   1.665  19.159   3.638  0.3936 -0.1503  0.1583
61149W        W 4243   1.681  20.178   3.075  0.0515  0.0432  0.0263
61150W        W 4244  34.423  20.715   0.316 -0.2033 -0.0090  0.0292
61151W        W 4245  34.176  20.375   1.198  0.3185  0.1684  0.1641
61152W        W 4246   1.098  20.517  31.824  0.1905  0.1388  0.0667
61153W        W 4247  34.384  18.014   2.304 -0.1671  0.1408 -0.0883
61154W        W 4248   2.467  19.314   2.305 -0.4170 -0.0631 -0.0750
61155W        W 4249   3.181  18.239   1.772 -0.1507 -0.1627  0.0325
61156W        W 4250   1.698  18.729   3.329  0.0110  0.2375  0.3367
61157W        W 4251   5.179  17.589   2.421  0.2833 -0.0682 -0.1286
61158W        W 4252   1.202  19.575   1.075 -0.0615  0.1359  0.0145
61159W        W 4253   2.986  21.469   1.381 -0.3812 -0.2566  0.3677
61160W        W 4254   3.286  20.057   1.459  0.1584  0.0453  0.0182
61161W        W 4255   2.865  19.401   1.390  0.2776 -0.1204 -0.1621
61162W        W 4256   1.784  18.737   2.252  0.0633 -0.0622  0.0327
61163W        W 4257  34.245  19.517   1.178 -0.0869 -0.0592  0.2582
61164W        W 4258  34.541  19.015   2.204  0.0269 -0.0939  0.2302
61165W        W 4259   0.797  18.528   2.212 -0.1999 -0.1735  0.0319
61166W        W 4260   3.510  19.433   3.179  0.1303  0.0959 -0.0007
61167W        W 4261   1.287  17.099  30.822 -0.1460 -0.1098 -0.4669
61168W        W 4262   4.776  19.544   1.172 -0.0566  0.4361  0.3555
61169W        W 4263   1.868  17.802   1.036 -0.1091 -0.0039  0.0035
61170W        W 4264   1.069  19.953   0.582  0.1109 -0.0189  0.0607
61171W        W 4265   2.264  16.649   3.070  0.2384  0.2497  0.2084
61172W        W 4266   2.632  21.908  31.697  0.0285  0.1504 -0.0629
61173W        W 4267   3.098  22.487   2.290 -0.0257 -0.0149  0.2566
61174W        W 4268   3.030  22.809   1.071  0.1492  0.0350  0.1130
61175W        W 4269   0.920  18.573   3.298 -0.0550 -0.1900 -0.0915
61176W        W 4270   1.188  18.151   0.029 -0.2147 -0.4080 -0.1646
61177W        W 4271   1.277  22.516   2.290  0.1423  0.1924  0.0887
61178W        W 4272   2.360  19.301   2.802  0.2509 -0.1745 -0.0872
61179W        W 4273   1.960  18.508   0.468 -0.1675  0.3333 -0.0080
61180W        W 4274   3.105  22.070  31.856  0.1384  0.1475  0.3972
61181W        W 4275   4.152  19.880   0.957 -0.0794 -0.4017 -0.1050
61182W        W 4276   0.814  20.648   2.104 -0.2151  0.0095  0.2116
61183W        W 4277   3.107  17.786   2.014 -0.0314 -0.1168  0.1979
61184W        W 4278   4.072  17.884   2.032  0.0207  0.0692  0.3647
61185W        W 4279   3.203  19.373   1.030 -0.1481 -0.3314 -0.4873
61186W        W 4280   1.910  16.284  31.520  0.1815  0.2345  0.0297
61187W        W 4281   2.893  21.967   2.230  0.1335  0.1140 -0.1195
61188W        W 4282   1.332  21.361   0.638  0.0357  0.1560 -0.2194
61189W        W 4283   0.679  20.253   0.152  0.0739 -0.1944 -0.0034
61190W        W 4284   1.981  20.312   1.709 -0.0429  0.0759 -0.3507
61191W        W 4285   4.563  17.869   1.736 -0.0909  0.0767  0.0188
61192W        W 4286   1.009  20.205   2.805 -0.1205  0.2205  0.0805
61193W        W 4287   2.077  19.994   2.279  0.1218 -0.0268 -0.3565
61194W        W 4288   0.309  18.278   0.478 -0.0815  0.1205  0.2183
61195W        W 4289   0.458  21.005   2.898 -0.2558  0.1327  0.0902
61196W        W 4290   2.319  17.039   1.340 -0.3928  0.0875  0.0321
61197W        W 4291   3.551  18.670  31.661 -0.3638  0.1015 -0.1270
61198W        W 4292   2.070  20.208   2.752  0.0292 -0.2516  0.1591
61199W        W 4293   4.309  21.041   1.301 -0.0366  0.2060  0.0492
61200W        W 4294   1.168  17.620  31.841  0.3319  0.0244 -0.1479
61201W        W 4295   3.448  17.737  31.734 -0.0600 -0.0353  0.1787
61202W        W 4296   0.912  21.614   3.932  0.2357  0.1895 -0.2668
61203W        W 4297   2.497  20.401   1.886 -0.2662 -0.1561 -0.1986
61204W        W 4298   2.805  20.190   1.534  0.1809 -0.1706 -0.2137
61205W        W 4299   2.043  18.051   0.658 -0.0833 -0.1652  0.1620
61206W        W 4300   2.392  21.731   0.342  0.1704  0.1523 -0.0096
61207W        W 4301   0.142  19.549   2.521 -0.2295  0.1967 -0.1590
61208W        W 4302   3.132  20.347   3.071  0.2287  0.0981 -0.3278
61209W        W 4303   2.615  21.778   2.553  0.0403  0.0677  0.0956
61210W        W 4304   2.107  17.889   2.442 -0.1328 -0.3693 -0.0607
61211W        W 4305   0.227  18.136  31.948  0.1754  0.1424  0.1566
61212W        W 4306   1.340  17.356   0.925 -0.0665  0.2841  0.1697
61213W        W 4307   1.351  20.566   2.851 -0.0172 -0.1426  0.1064
61214W        W 4308   1.456  18.561   1.361  0.3793  0.1091  0.2007
61215W        W 4309   2.881  20.268   2.192 -0.1061  0.1124 -0.2091
61216W        W 4310   1.343  18.659   3.643 -0.0803 -0.1979 -0.1065
61217W        W 4311   4.392  22.036   2.659 -0.1611 -0.0958 -0.0995
61218W        W 4312   3.758  19.451  31.437  0.0393  0.0456 -0.2911
61219W        W 4313   1.799  19.806   1.893  0.0156 -0.3528  0.3057
61220W        W 4314   1.166  19.132  31.921  0.2840  0.0701 -0.2196
61221W        W 4315   0.757  19.759   3.559 -0.0446 -0.3275  0.0720
61222W        W 4316   0.076  19.339   3.623  0.2336 -0.0235  0.4139
61223W        W 4317   0.933  21.063   1.286 -0.0607  0.1736  0.1107
61224W        W 4318   3.095  21.571   3.398  0.0069 -0.1090 -0.1114
61225W        W 4319   2.514  19.270   1.743  0.2018  0.0635  0.0173
61226W        W 4320   2.482  19.151   3.471 -0.0077  0.0260  0.1963
61227W        W 4321   1.684  18.422  31.962  0.0739  0.4148  0.3706
61228W        W 4322   1.841  20.485   0.600  0.1857 -0.0394 -0.0211
61229W        W 4323   1.745  18.937   0.497 -0.0481 -0.0102 -0.2983
61230W        W 4324   1.561  17.860   4.064 -0.0333  0.0167  0.3253
61231W        W 4325   2.802  20.613   1.258 -0.2273  0.2190 -0.2913
61232W        W 4326   2.277  19.833   1.849  0.3894 -0.1780  0.0495
61233W        W 4327   2.393  18.666   1.496  0.4346 -0.3500  0.1921
61234W        W 4328   2.272  22.150  31.966  0.1658 -0.4466 -0.3158
61235W        W 4329   5.259  16.725   2.293  0.1484 -0.0017 -0.0479
61236W        W 4330   0.198  20.791   2.517 -0.0081  0.2498 -0.1281
61237W        W 4331   2.802  18.851   0.408  0.0107 -0.1536  0.3157
61238W        W 4332   0.312  18.790   0.445  0.3374  0.1707 -0.0661
61239W        W 4333   1.800  19.411   1.081  0.2405 -0.0353  0.0349
61240W        W 4334   3.215  20.089  31.562  0.2681  0.0162 -0.0727
61241W        W 4335   1.492  18.214   2.051  0.1544  0.0156  0.0025
61242W        W 4336   1.162  17.237   1.621  0.0030 -0.0221  0.1330
61243W        W 4337   1.242  20.624   2.275  0.0740 -0.2531  0.0263
61244W        W 4338   2.451  19.856   2.752  0.1598  0.0750 -0.1089
61245W        W 4339   3.249  18.468   0.475  0.1437 -0.1921  0.2163
61246W        W 4340   2.214  20.737   2.628 -0.0301 -0.3019  0.0917
61247W        W 4341   2.817  18.452   0.695 -0.1385  0.0580 -0.1047
61248W        W 4342   2.132  19.064   0.828  0.0233  0.0499  0.1887
61249W        W 4343   3.227  19.163   2.827  0.0112 -0.0904 -0.1858
61250W        W 4344   1.206  17.640   1.286 -0.0068 -0.2503  0.2534
61251W        W 4345   0.622  20.234   1.373 -0.1008  0.3987 -0.1074
61252W        W 4346   2.341  21.115   1.959  0.2290  0.2887 -0.2196
61253W        W 4347   1.760  18.778  31.583 -0.0673  0.2381 -0.0707
61254W        W 4348   0.908  21.265   0.846  0.1260 -0.0489  0.0631
61255W        W 4349   1.210  19.378   3.831 -0.0334 -0.0724 -0.3680
61256W        W 4350   3.251  19.074   1.523 -0.1804 -0.1033 -0.0923
61257W        W 4351   2.123  18.356   2.209 -0.0315 -0.1162 -0.2421
61258W        W 4352   0.810  17.249   2.264  0.3260  0.0923 -0.0010
61259W        W 4353   2.564  18.954  31.953  0.0404 -0.1182 -0.1142
61260W        W 4354   2.320  20.466   1.356 -0.0944  0.0559  0.0936
61261W        W 4355   3.186  18.581   1.380  0.1236  0.3589 -0.0556
61262W        W 4356   2.690  21.271   5.240  0.0689 -0.3312 -0.0863
61263W        W 4357   2.059  18.390   3.471  0.0936 -0.0753 -0.1075
61264W        W 4358   3.906  21.111   0.455  0.3477 -0.0041  0.2356
61265W        W 4359   3.276  18.394   2.285  0.0421  0.2129  0.0574
61266W        W 4360   1.351  19.459   0.400  0.0258  0.0353  0.0375
61267W        W 4361   1.028  18.059   2.307 -0.0306 -0.1899  0.1750
61268W        W 4362   2.569  19.927   0.778  0.0949 -0.1267  0.2377
61269W        W 4363   2.648  18.944   3.035 -0.0320  0.0847 -0.0220
61270W        W 4364   1.238  18.906   2.994 -0.2521 -0.2709 -0.2276
61271W        W 4365   1.891  19.438   0.561 -0.1192  0.1857  0.2481
61272W        W 4366   1.697  19.545   2.299 -0.3511 -0.0573  0.1820
61273W        W 4367   3.777  19.502   1.126  0.0176  0.1541 -0.2445
61274W        W 4368   1.172  20.873   0.786 -0.0013  0.1663  0.1077
61275W        W 4369   1.420  18.730   1.813  0.0870  0.1175  0.2349
61276W        W 4370   3.979  18.336   2.836 -0.0332 -0.3198  0.0443
61277W        W 4371   3.393  20.233   0.616 -0.2734  0.0862 -0.0432
61278W        W 4372   2.659  19.526   3.752 -0.1845 -0.0109 -0.0410
61279W        W 4373   1.459  17.329   2.170 -0.3005 -0.3673 -0.2602
61280W        W 4374   3.054  20.964   1.041 -0.0648 -0.0038 -0.0636
61281W        W 4375   0.320  18.745   2.196 -0.1713  0.1196 -0.1058
61282W        W 4376   2.706  21.095   2.758 -0.0671  0.3916 -0.2042
61283W        W 4377   0.349  18.466   2.647  0.1439  0.1654 -0.0204
61284W        W 4378   3.111  18.114   1.258 -0.1565 -0.3823 -0.0382
61285W        W 4379   0.947  16.870  31.212 -0.0541  0.0736 -0.2560
61286W        W 4380   2.294  18.506   0.854 -0.1752  0.1038  0.2249
61287W        W 4381   3.700  20.327   1.549  0.4473  0.2532 -0.0627
61288W        W 4382   1.867  19.320  31.628  0.0488 -0.2206 -0.0710
61289W        W 4383   4.046  18.160   1.560  0.1834  0.0144  0.2974
61290W        W 4384   2.521  19.834   2.295 -0.0671  0.3818  0.0288
61291W        W 4385   4.443  19.161   0.368 -0.2510 -0.0447  0.2162
61292W        W 4386   2.095  19.359   0.115 -0.3300  0.0420 -0.1806
61293W        W 4387   2.656  18.957   0.833  0.0459  0.0307 -0.2327
61294W        W 4388   2.258  18.404   4.472 -0.5223 -0.1542 -0.2019
61295W        W 4389   2.966  19.908   1.188 -0.0987  0.2616 -0.2347
61296W        W 4390   3.456  18.265   0.865  0.2110 -0.0579  0.0183
61297W        W 4391   3.086  18.973   3.317  0.2895 -0.3547 -0.0419
61298W        W 4392   3.056  18.650   2.608 -0.3061 -0.0294 -0.2605
61299W        W 4393   2.832  19.472   2.971 -0.0223  0.0900  0.1465
61300W        W 4394  34.534  18.698   3.901 -0.1627  0.0694  0.1862
61301W        W 4395   2.229  21.421   3.870 -0.1267 -0.2616  0.4339
61302W        W 4396   3.984  18.574  31.321  0.1530 -0.3147  0.3538
61303W        W 4397   3.490  18.254   2.775  0.1582  0.1741  0.1468
61304W        W 4398   5.205  19.412   2.187  0.1382 -0.1852 -0.1266
61305W        W 4399   2.971  19.645  30.358 -0.1921  0.0019 -0.1858
61306W        W 4400   1.988  18.845   1.244 -0.1838 -0.0980 -0.0123
61307W        W 4401   3.376  19.261   3.691  0.1784  0.1899 -0.0854
61308W        W 4402   2.485  17.805  30.769  0.4456  0.0113 -0.1614
61309W        W 4403   3.065  19.041   3.998  0.2020 -0.0031  0.2283
61310W        W 4404   1.787  21.553   0.941  0.0728 -0.3524 -0.1553
61311W        W 4405   4.129  21.251   1.799  0.1458 -0.1355  0.1145
61312W        W 4406   2.765  19.485   0.879 -0.1234  0.2016  0.0093
61313W        W 4407   0.076  17.861   1.262 -0.1927  0.3950  0.1950
61314W        W 4408   0.353  21.947   2.808 -0.1021 -0.0882  0.2913
61315W        W 4409   0.446  19.317  31.285 -0.0048  0.2820 -0.1229
61316W        W 4410   0.225  18.486  30.884  0.2076 -0.1820  0.0821
61317W        W 4411   2.190  20.357   3.903  0.0081  0.1129 -0.0959
61318W        W 4412   5.727  19.422   3.008 -0.1871 -0.1277 -0.0409
61319W        W 4413   3.122  17.135  31.091  0.0186  0.1176 -0.0827
61320W        W 4414   3.833  19.419   3.533  0.1960 -0.2181  0.0318
61321W        W 4415   1.513  22.783   0.962  0.1533 -0.1498 -0.0030
61322W        W 4416   1.590  16.930   1.622 -0.3053 -0.0785  0.1359
61323W        W 4417   1.654  20.274   2.101  0.2851 -0.3264 -0.0521
61324W        W 4418   0.650  19.302   3.306  0.2236  0.0132 -0.0191
61325W        W 4419   2.025  19.145   2.475 -0.1156  0.3308  0.2289
61326W        W 4420   1.971  17.302   2.292 -0.1410 -0.0458 -0.3487
61327W        W 4421   2.679  18.416   1.819  0.1693  0.1297 -0.0167
61328W        W 4422   2.293  19.097  31.434 -0.2614 -0.1367 -0.4949
61329W        W 4423   4.135  19.856   2.910 -0.1705 -0.1413  0.0142
61330W        W 4424   2.914  20.535   2.665 -0.0374  0.0025  0.3035
61331W        W 4425   1.499  19.258   1.923  0.0374 -0.0386 -0.1152
61332W        W 4426   3.162  20.944   2.682 -0.0568  0.3013 -0.1025
61333W        W 4427   2.128  18.621  31.918 -0.1649  0.1085 -0.3752
61334W        W 4428   2.992  19.245   1.972 -0.2279 -0.0889 -0.2795
61335W        W 4429  33.723  19.752   3.224  0.1056 -0.0775  0.4683
61336W        W 4430   2.581  20.361   2.934  0.2184 -0.5261 -0.2030
61337W        W 4431   2.642  20.807   1.673 -0.0946 -0.0211 -0.0751
61338W        W 4432   0.007  19.727   0.721 -0.1253  0.0849 -0.1298
61339W        W 4433   2.860  20.347   0.656 -0.2181 -0.1364 -0.2914
61340W        W 4434  32.935  21.268   3.473 -0.0601  0.0258  0.2056
61341W        W 4435   1.175  19.477   2.282  0.1360 -0.0047  0.1129
61342W        W 4436   1.635  21.086   0.998  0.1452  0.2661  0.0225
61343W        W 4437   2.959  21.138   0.115  0.0215  0.2999  0.4152
61344W        W 4438   1.889  20.437   1.109  0.1676  0.0742 -0.2030
61345W        W 4439   2.389  21.900   1.645 -0.3615 -0.1418  0.0926
61346W        W 4440   0.955  19.116   0.992  0.0558 -0.0578  0.0399
61347W        W 4441   2.975  19.750   1.763  0.0240 -0.1342  0.1528
61348W        W 4442  34.405  19.417   0.276  0.1320 -0.2184  0.0838
61349W        W 4443   3.725  21.215   1.464  0.3954  0.1212  0.1576
61350W        W 4444   2.356  22.783   1.616  0.0363 -0.0168  0.2277
61351W        W 4445   2.329  21.228   2.483 -0.1010  0.1689  0.2775
61352W        W 4446   2.870  18.319   0.184 -0.0420  0.2522 -0.3022
61353W        W 4447   3.485  20.780   1.183 -0.0561  0.0609 -0.1994
61354W        W 4448   4.224  19.387   0.925  0.0434  0.0257  0.2686
61355W        W 4449   3.149  20.535   1.558 -0.0341  0.3806  0.3110
61356W        W 4450   2.777  18.922   1.595  0.0606  0.0250 -0.0516
61357W        W 4451   2.928  19.164  31.606 -0.1443  0.0053  0.1455
61358W        W 4452   2.358  18.734   2.469  0.0261 -0.3409 -0.0778
61359W        W 4453   4.186  18.000   2.555  0.2964 -0.0258 -0.2432
61360W        W 4454  34.655  20.974   3.446  0.1417 -0.2084  0.1825
61361W        W 4455   2.399  20.631  30.872  0.3047 -0.2254 -0.0708
61362W        W 4456   1.504  19.121   1.396  0.2045 -0.1943  0.0544
61363W        W 4457   1.445  19.082   2.483  0.2184 -0.1588 -0.2445
61364W        W 4458   3.455  16.258   2.446 -0.0198 -0.3072 -0.0012
61365W        W 4459   3.107  18.745  31.305 -0.2177 -0.1224 -0.0416
61366W        W 4460   3.584  19.127   0.872 -0.0619 -0.1733 -0.1552
61367W        W 4461   3.284  21.086   1.545 -0.5409  0.3224  0.2060
61368W        W 4462   1.045  20.135   2.263 -0.1167  0.0372 -0.1612
61369W        W 4463   1.804  20.697   2.943  0.0254  0.0952  0.2942
61370W        W 4464   0.798  18.763   0.154  0.4039 -0.0614 -0.2340
61371W        W 4465   4.838  19.730   2.054  0.0824  0.1602  0.0448
61372W        W 4466   1.136  19.323   2.839 -0.3828 -0.2674  0.2717
61373W        W 4467   4.729  17.803   3.082 -0.3421  0.1898  0.0257
61374W        W 4468  34.502  18.633   1.761 -0.0526 -0.1233 -0.0179
61375W        W 4469   3.632  18.526   1.954 -0.2489  0.0681 -0.2347
61376W        W 4470   2.061  21.319   1.325  0.2449  0.2044 -0.1789
61377W        W 4471   2.173  18.798   2.989 -0.1066 -0.1120  0.1054
61378W        W 4472   2.409  17.996   1.030  0.1915 -0.1066 -0.2324
61379W        W 4473   4.003  20.064   4.469 -0.1118 -0.0988 -0.3903
61380W        W 4474   3.585  18.898  31.246  0.2104 -0.3413  0.2042
61381W        W 4475   3.247  20.810   3.155  0.1234  0.2381  0.2075
61382W        W 4476   0.871  19.770   2.555  0.1669 -0.2994 -0.0436
61383W        W 4477   3.070  18.607  31.798  0.2010  0.2117  0.1278
61384W        W 4478   0.505  19.095   1.272 -0.1860 -0.3559  0.3993
61385W        W 4479   1.807  17.723   1.985  0.0827 -0.1030  0.0128
61386W        W 4480   1.976  22.267   3.802  0.1171 -0.0708  0.1613
61387W        W 4481   1.854  17.961   1.542 -0.2126  0.3236 -0.0268
61388W        W 4482   4.439  19.905   0.197  0.1847  0.2523 -0.0636
61389W        W 4483   3.746  19.979   2.001  0.2983  0.2521 -0.0112
61390W        W 4484   0.157  22.066  31.908  0.0727  0.0035  0.2750
61391W        W 4485   3.936  21.201   0.965  0.1956 -0.0887  0.3299
61392W        W 4486   2.950  22.401   2.862 -0.1759  0.0769 -0.1059
61393W        W 4487  34.124  19.791   1.955 -0.0697  0.1521  0.1810
61394W        W 4488   2.548  21.419   1.536 -0.2770  0.4826  0.0410
61395W        W 4489   3.138  21.436   2.879 -0.0393 -0.1467 -0.0031
61396W        W 4490   1.967  18.365   1.280  0.3115  0.2575 -0.1591
61397W        W 4491   2.328  18.809   1.983  0.1909 -0.2311 -0.0673
61398W        W 4492   0.562  21.684   0.886 -0.2638  0.1526  0.1647
61399W        W 4493   3.155  18.719   1.886  0.0788 -0.2736 -0.1068
61400W        W 4494   2.080  19.191   3.217 -0.0779 -0.2553  0.3455
61401W        W 4495   0.592  21.913  31.103 -0.0142 -0.0378  0.0105
61402W        W 4496   3.299  18.477   3.443 -0.1300  0.3917 -0.1604
61403W        W 4497   1.470  19.624   1.489 -0.0795 -0.0480  0.0085
61404W        W 4498   0.453  20.744   3.861  0.0656  0.1048  0.0971
61405W        W 4499   0.879  18.767  30.828  0.1730  0.2465  0.0730
61406W        W 4500   3.366  19.650   2.759  0.2498  0.1113  0.1072
61407W        W 4501   2.058  20.007   0.796 -0.1330  0.3074  0.1262
61408W        W 4502   1.469  21.507   0.179  0.0900  0.3103  0.0641
61409W        W 4503   2.465  19.830   1.292 -0.2059  0.0733 -0.0735
61410W        W 4504   1.591  17.813   0.101 -0.1896 -0.0704  0.0535
61411W        W 4505   4.546  21.168   2.124  0.1282  0.2373  0.1600
61412W        W 4506   1.942  17.921   3.417  0.1652  0.1692  0.3776
61413W        W 4507   2.486  17.487   2.231  0.0665 -0.0974  0.1476
61414W        W 4508   2.336  18.124   1.526  0.0074  0.3250 -0.0139
61415W        W 4509   1.994  19.653   2.713  0.2253 -0.0805 -0.0184
61416W        W 4510   1.990  17.697   0.345 -0.2419  0.2747  0.0063
61417W        W 4511   0.473  19.134   0.746  0.1933  0.0281  0.1316
61418W        W 4512   3.015  20.004   2.693 -0.4636  0.2416 -0.0437
61419W        W 4513   0.970  17.902   4.068  0.0908  0.1204 -0.0096
61420W        W 4514   1.304  18.608   2.398 -0.0771 -0.2880 -0.2797
61421W        W 4515   1.060  19.315   1.578 -0.1233 -0.0180 -0.1128
61422W        W 4516   0.520  18.197   0.917  0.2344 -0.1650 -0.0563
61423W        W 4517   3.198  20.575  31.289 -0.1578 -0.4566 -0.1223
61424W        W 4518   0.367  17.801   1.705  0.3123  0.0852 -0.0773
61425W        W 4519   0.703  18.613   1.201  0.1547 -0.1547  0.1728
61426W        W 4520   3.891  20.311   0.980 -0.1770 -0.1205 -0.3745
61427W        W 4521   1.328  21.401   1.226  0.2666 -0.0868 -0.1668
61428W        W 4522   1.938  16.734   1.374 -0.3841  0.0753  0.0832
61429W        W 4523   4.508  21.438   3.908  0.4235 -0.1808  0.0950
61430W        W 4524   2.496  19.345   0.430  0.1539  0.0076 -0.0112
61431W        W 4525   2.713  19.197   4.338 -0.3395  0.2729 -0.2690
61432W        W 4526   0.164  19.288   3.126 -0.0486 -0.1716  0.0177
61433W        W 4527   0.984  18.069  31.552  0.1909  0.0731  0.0823
61434W        W 4528   2.763  17.897   1.572 -0.0957 -0.2292  0.0040
61435W        W 4529   1.971  22.373   1.913  0.0577 -0.0269 -0.3246
61436W        W 4530   3.185  20.095  30.971 -0.0111 -0.0123 -0.0530
61437W        W 4531   2.108  20.619   2.101 -0.1677  0.3491  0.0372
61438W        W 4532   2.808  20.753   3.872  0.0883 -0.2303 -0.0338
61439W        W 4533   0.482  18.264   1.979  0.0797 -0.0359 -0.2459
61440W        W 4534   3.624  19.882  31.769 -0.0115 -0.0466  0.0513
61441W        W 4535   1.823  20.117   4.774 -0.0738  0.3158 -0.2812
61442W        W 4536   4.212  20.783   0.749 -0.3979  0.0121  0.2037
61443W        W 4537   4.345  17.427   2.232 -0.0171 -0.2337  0.2994
61444W        W 4538   2.523  19.434  31.854  0.4183  0.2993 -0.3424
61445W        W 4539   1.439  18.962   4.047 -0.1214  0.1127 -0.1146
61446W        W 4540   1.907  19.957   3.594  0.1159  0.1128  0.3194
61447W        W 4541   1.942  21.008   3.391 -0.1616  0.0294  0.0012
61448W        W 4542   1.326  18.136   1.592  0.2103 -0.0234 -0.1770
61449W        W 4543   3.375  18.079   0.065  0.1450 -0.1884  0.0917
61450W        W 4544   2.808  21.354   0.695 -0.2148 -0.0481  0.3193
61451W        W 4545   1.502  19.684   2.833 -0.0340  0.1784 -0.3312
61452W        W 4546   4.144  18.845   0.140  0.1054 -0.0029 -0.1285
61453W        W 4547   2.789  18.819   2.177 -0.0885 -0.0715 -0.1087
61454W        W 4548   1.110  20.294   1.769 -0.0456  0.0635 -0.1512
61455W        W 4549   2.248  20.687   3.168 -0.2953  0.0952 -0.0215
61456W        W 4550   0.890  19.244   0.375 -0.2276  0.1584 -0.1543
61457W        W 4551   4.670  19.877   2.599 -0.1354 -0.0896 -0.0437
61458W        W 4552   2.123  20.939   3.891  0.2255  0.2748 -0.2962
61459W        W 4553   3.632  20.096   2.995 -0.2846 -0.1419 -0.2013
61460W        W 4554   2.985  21.950   2.950 -0.1506  0.1919 -0.0505
61461W        W 4555   4.497  20.240   2.868 -0.0380 -0.1646 -0.0056
61462W        W 4556   0.556  18.917   3.590 -0.0106 -0.0162 -0.0616
61463W        W 4557   2.275  19.794   0.400  0.0973  0.1504 -0.3463
61464W        W 4558   0.863  18.807  31.570  0.1510 -0.5509 -0.1105
61465W        W 4559   3.800  17.663   2.469  0.1921  0.0929  0.4492
61466W        W 4560   1.827  17.186   1.191 -0.3803 -0.1691  0.2744
61467W        W 4561   0.795  18.099   1.294 -0.0563  0.0531 -0.5462
61468W        W 4562   2.503  20.414   3.524 -0.0783 -0.2234 -0.2451
61469W        W 4563   2.719  18.449   1.187 -0.1900  0.0915 -0.1629
61470W        W 4564   0.194  21.318   6.695  0.1750  0.0342 -0.3011
61471W        W 4565   1.362  19.759   4.310 -0.1961 -0.2927 -0.3893
61472W        W 4566   3.383  18.683   3.010 -0.2293 -0.1072  0.1844
61473W        W 4567   2.849  21.891   5.400 -0.0310 -0.0439 -0.0568
61474W        W 4568   1.301  18.350   4.075 -0.0380 -0.1035 -0.2485
61475W        W 4569   2.819  21.720   4.923  0.0274 -0.0496 -0.0555
61476W        W 4570   2.227  18.497   6.687  0.4504  0.0171 -0.0320
61477W        W 4571   2.020  21.605   5.824 -0.0378 -0.2654 -0.1466
61478W        W 4572   4.247  22.637   6.347  0.2646  0.0741 -0.1159
61479W        W 4573   4.534  21.054   2.956 -0.2447  0.1182 -0.2196
61480W        W 4574   1.780  19.515   5.531 -0.2900 -0.0414 -0.0924
61481W        W 4575   1.349  22.248   6.009 -0.2285  0.0348 -0.0908
61482W        W 4576   1.798  18.317   4.289 -0.0517  0.0163  0.0765
61483W        W 4577  33.778  17.896   5.854 -0.1815  0.2786 -0.0123
61484W        W 4578   2.570  19.964   6.099 -0.0502  0.1663  0.2122
61485W        W 4579   0.495  20.880   3.410 -0.0615 -0.1946  0.3657
61486W        W 4580   2.237  19.392   5.259  0.3374 -0.1455 -0.0132
61487W        W 4581   1.557  18.651   5.476  0.0392  0.2388  0.1666
61488W        W 4582   2.505  20.918   5.559  0.3624 -0.0422 -0.2035
61489W        W 4583   1.838  19.054   7.062 -0.2695  0.1436  0.0093
61490W        W 4584   3.731  18.732   7.470  0.1991  0.4055  0.0239
61491W        W 4585   3.255  21.895   4.931  0.2874 -0.0008 -0.2310
61492W        W 4586   1.697  19.122   2.932 -0.0238  0.1597  0.1651
61493W        W 4587   0.946  19.681   6.237  0.0578  0.4711  0.0563
61494W        W 4588   1.919  19.853   6.461 -0.0788 -0.5653 -0.2824
61495W        W 4589   2.304  20.394   5.482  0.1616  0.1040 -0.1939
61496W        W 4590   3.893  20.533   5.240  0.2305 -0.0196 -0.0877
61497W        W 4591   3.342  22.166   5.531 -0.2424 -0.1652 -0.1071
61498W        W 4592   2.418  21.265   5.875  0.1715 -0.3599  0.1828
61499W        W 4593   1.747  19.946   7.566 -0.0652  0.1655  0.1628
61500W        W 4594   0.570  20.199   3.773 -0.1388 -0.0260  0.5407
61501W        W 4595   0.973  20.627   5.099 -0.0326  0.1318 -0.0384
61502W        W 4596   2.519  20.675   5.145  0.1752  0.3723 -0.1887
61503W        W 4597   3.247  20.816   5.843  0.0058  0.1717 -0.1730
61504W        W 4598   3.957  21.468   6.830  0.0954 -0.0504 -0.0789
61505W        W 4599   1.464  21.651   6.574  0.0392  0.2386 -0.1859
61506W        W 4600   1.149  20.779   3.997 -0.1570  0.1140  0.1598
61507W        W 4601   1.405  21.671   7.135  0.0992 -0.0574 -0.2425
61508W        W 4602   0.004  21.852   6.794  0.0505  0.0650  0.0044
61509W        W 4603   3.135  20.970   7.086  0.0297  0.0910  0.1041
61510W        W 4604   2.733  19.149   5.416  0.1877 -0.0140  0.2627
61511W        W 4605   1.895  20.490   3.453 -0.0586 -0.0451  0.0457
61512W        W 4606   2.089  19.697   5.976 -0.1202  0.1510  0.2504
61513W        W 4607   0.841  21.186   7.934  0.1160  0.2756  0.1285
61514W        W 4608  34.115  21.061   5.946  0.0459 -0.2182 -0.1904
61515W        W 4609   3.887  19.183   6.314  0.0061  0.3066  0.0698
61516W        W 4610  34.380  20.484   3.304 -0.3143 -0.0393  0.1169
61517W        W 4611   2.786  19.135   2.594 -0.0099 -0.0440  0.0915
61518W        W 4612   1.536  20.091   2.572 -0.0545 -0.0289 -0.1880
61519W        W 4613   3.800  17.819   3.560  0.0334  0.0647 -0.0741
61520W        W 4614   1.335  19.738   5.688  0.0939 -0.0375 -0.0405
61521W        W 4615   0.584  20.835   5.171  0.2420  0.1214 -0.1890
61522W        W 4616   3.112  18.834   6.416  0.1081  0.1011 -0.0525
61523W        W 4617   4.444  22.312   6.736  0.4005  0.1884 -0.2671
61524W        W 4618   1.315  19.543   5.249 -0.0927 -0.0856 -0.0303
61525W        W 4619   2.254  19.786   6.900 -0.0074  0.1779  0.0094
61526W        W 4620   0.761  22.104   7.504 -0.1901  0.2430 -0.1686
61527W        W 4621   0.328  20.826   5.641 -0.1229  0.0477 -0.1862
61528W        W 4622   4.739  20.344   3.345 -0.1847  0.1460  0.0232
61529W        W 4623   3.200  20.597   4.946 -0.3183 -0.2182  0.2047
61530W        W 4624   2.420  21.135   3.514 -0.0876  0.0601 -0.2976
61531W        W 4625  33.937  19.573   5.627 -0.0577  0.1473  0.0712
61532W        W 4626  33.890  20.509   8.089  0.0451 -0.1827 -0.1760
61533W        W 4627  34.400  18.933   7.582  0.1145  0.1256  0.2167
61534W        W 4628   1.075  19.043   3.469 -0.1118 -0.0835 -0.0957
61535W        W 4629   3.747  20.238   6.827  0.0524 -0.0880 -0.1679
61536W        W 4630   0.414  21.926   8.055  0.3292 -0.0167  0.0365
61537W        W 4631   4.742  18.570   4.214  0.0656  0.1191  0.0930
61538W        W 4632   0.711  21.664   6.038 -0.0563  0.0497  0.0148
61539W        W 4633   2.900  21.423   6.222  0.1972 -0.5760  0.0533
61540W        W 4634   4.013  21.018   3.300 -0.0801  0.1472 -0.1981
61541W        W 4635   2.385  18.350   5.119  0.1414 -0.2822 -0.0404
61542W        W 4636   3.487  19.292   4.853 -0.2352 -0.0564  0.4716
61543W        W 4637   3.289  20.569   3.834  0.1096 -0.2322 -0.2146
61544W        W 4638   0.944  20.366   4.156 -0.1093  0.1301 -0.0447
61545W        W 4639   4.478  22.127   6.270 -0.2089  0.3885 -0.0398
61546W        W 4640   4.613  19.027   4.548 -0.2245  0.5097  0.0504
61547W        W 4641   0.894  20.922   6.075 -0.1833 -0.0010  0.0432
61548W        W 4642   2.642  18.987   6.772 -0.0189  0.0835  0.4427
61549W        W 4643   1.960  20.923   7.204  0.0774 -0.1407 -0.0884
61550W        W 4644   0.464  22.090   3.385 -0.0399 -0.1617  0.2968
61551W        W 4645   0.558  20.320   5.082 -0.0474 -0.1894  0.1986
61552W        W 4646   0.326  21.049   4.251 -0.1628  0.1020 -0.1457
61553W        W 4647  34.255  18.748   6.182 -0.1007  0.0496  0.0531
61554W        W 4648   1.321  20.700   6.079  0.0541  0.1684 -0.1552
61555W        W 4649   3.791  18.485   4.273 -0.2444 -0.1268 -0.0198
61556W        W 4650   2.167  19.162   7.439  0.2386 -0.0942  0.0459
61557W        W 4651   3.929  20.005   5.030  0.4251  0.3157  0.1600
61558W        W 4652  34.238  19.739   5.295 -0.0139  0.1907  0.0672
61559W        W 4653   4.087  21.643   5.525  0.1022  0.0654  0.0248
61560W        W 4654   4.321  20.334   4.976  0.0047  0.2630  0.0541
61561W        W 4655   2.405  20.324   2.401  0.1154  0.4814 -0.4858
61562W        W 4656  34.567  19.876   5.627 -0.4016  0.1167  0.0943
61563W        W 4657   0.372  18.411   4.450 -0.0721 -0.0681  0.1390
61564W        W 4658   1.267  18.516   6.506 -0.0673 -0.0184  0.0447
61565W        W 4659   1.179  20.253   5.859 -0.0805 -0.2486  0.0006
61566W        W 4660   2.981  19.798   7.085  0.2317 -0.2290 -0.3264
61567W        W 4661  34.655  17.147   3.782 -0.0703 -0.1014 -0.0099
61568W        W 4662   2.774  18.818   5.900 -0.3093 -0.1306 -0.0466
61569W        W 4663   0.767  20.424   6.814  0.0512 -0.1131  0.3976
61570W        W 4664  34.352  19.421   4.977 -0.3639 -0.1064 -0.3017
61571W        W 4665   2.778  19.207   6.307  0.1869 -0.0758 -0.2877
61572W        W 4666   3.285  21.474   4.670 -0.0398  0.2285 -0.0211
61573W        W 4667   3.829  22.648   6.017 -0.2370 -0.0078  0.2680
61574W        W 4668   2.644  20.014   5.502 -0.1160  0.0761  0.2870
61575W        W 4669   0.264  20.492   7.002  0.1613 -0.0796 -0.2606
61576W        W 4670   1.019  19.293   4.314  0.0408  0.0037 -0.0636
61577W        W 4671   1.051  21.529   5.284 -0.1028 -0.1166 -0.0196
61578W        W 4672   0.814  21.150   4.166 -0.1745 -0.0934 -0.0071
61579W        W 4673   1.857  19.734   4.446 -0.1923 -0.0973 -0.1309
61580W        W 4674   2.760  20.905   6.038 -0.0971  0.1102 -0.1939
61581W        W 4675   2.536  20.001   4.528  0.1311 -0.2183 -0.0696
61582W        W 4676   0.608  19.604   6.843  0.1350  0.1000  0.3262
61583W        W 4677   3.034  18.038   5.908 -0.0245 -0.0912 -0.0860
61584W        W 4678   3.457  19.680   5.175  0.2199  0.1336 -0.1329
61585W        W 4679   3.270  20.437   6.405  0.0060  0.1447 -0.0211
61586W        W 4680  33.983  18.920   2.970  0.0397  0.0236  0.1564
61587W        W 4681   2.706  20.361   5.827 -0.0094 -0.1694 -0.1900
61588W        W 4682   1.267  21.279   3.952  0.3149  0.2490 -0.1104
61589W        W 4683   0.909  20.233   5.453 -0.0358  0.1466  0.1385
61590W        W 4684   2.360  21.067   4.931 -0.0244  0.1592 -0.4632
61591W        W 4685   3.377  18.754   4.362 -0.2110  0.0125  0.1799
61592W        W 4686   1.149  20.428   8.016  0.1074  0.2180 -0.1375
61593W        W 4687   2.697  18.984   7.244 -0.1659 -0.0399 -0.1201
61594W        W 4688   0.413  19.869   4.864  0.0403  0.1259  0.2657
61595W        W 4689   0.762  20.817   7.193 -0.0956 -0.0443 -0.1763
61596W        W 4690   2.013  19.245   4.736  0.1028 -0.0955 -0.2001
61597W        W 4691   2.822  17.745   3.585 -0.0724 -0.2774 -0.2097
61598W        W 4692   3.042  19.565   6.522  0.0944  0.1468 -0.0002
61599W        W 4693   3.744  21.279   4.520 -0.0696 -0.2590 -0.0203
61600W        W 4694   3.790  18.170   2.382 -0.0931 -0.2127 -0.2136
61601W        W 4695   3.721  18.215   3.234 -0.1597  0.4087  0.0133
61602W        W 4696   0.953  20.754   7.654 -0.1048  0.0464 -0.0556
61603W        W 4697   2.572  19.574   5.712 -0.1224 -0.0668 -0.0533
61604W        W 4698   2.790  18.279   2.279  0.3309 -0.0666 -0.0715
61605W        W 4699   4.350  21.941   4.150 -0.2657  0.0328 -0.1932
61606W        W 4700   0.329  20.805   6.162  0.1861 -0.2797 -0.2007
61607W        W 4701   2.232  20.793   6.703 -0.0044 -0.1739 -0.0430
61608W        W 4702   3.073  19.724   4.753  0.1698  0.1567 -0.2641
61609W        W 4703   1.189  18.116   6.100 -0.1041  0.0261 -0.4842
61610W        W 4704   0.839  19.719   3.074  0.1098  0.1515  0.3435
61611W        W 4705   1.929  18.541   5.216 -0.1440  0.0684  0.0580
61612W        W 4706  33.975  22.419   3.143 -0.2417  0.0986  0.2116
61613W        W 4707   3.082  18.307   5.126  0.1214 -0.0353 -0.2906
61614W        W 4708   1.753  20.114   5.782  0.1350  0.1402 -0.1140
61615W        W 4709   1.713  18.447   6.525 -0.0643  0.2698  0.1620
61616W        W 4710   3.506  19.897   8.367  0.2966 -0.2499 -0.2180
61617W        W 4711   3.168  19.544   3.987  0.1781  0.3305 -0.1452
61618W        W 4712   3.024  20.259   3.541  0.0477  0.4854  0.0094
61619W        W 4713   2.491  19.648   8.082 -0.0258 -0.1604 -0.0038
61620W        W 4714   0.412  19.522   7.402  0.3405 -0.2340 -0.0364
61621W        W 4715  34.549  22.110   7.197 -0.3105 -0.0135  0.2637
61622W        W 4716   2.741  19.983   6.635  0.0101 -0.0204  0.1404
61623W        W 4717   3.576  19.848   4.625  0.0443 -0.0626  0.2466
61624W        W 4718   3.034  19.001   8.023  0.1020 -0.2518 -0.1231
61625W        W 4719   3.227  19.880   3.193 -0.1510  0.0180 -0.2963
61626W        W 4720   1.403  20.427   4.909 -0.1682 -0.0291 -0.3141
61627W        W 4721   2.115  20.230   4.419  0.0825 -0.2076 -0.1439
61628W        W 4722   1.313  18.282   5.644  0.1290 -0.0241 -0.1136
61629W        W 4723   1.932  21.638   6.313  0.1416  0.1112 -0.1664
61630W        W 4724   0.147  19.398   4.774  0.1662 -0.1332  0.1610
61631W        W 4725   2.443  21.616   6.278 -0.0616 -0.1021 -0.5289
61632W        W 4726   0.571  21.242   5.815  0.2118 -0.1155  0.0703
61633W        W 4727   3.121  18.764   5.445 -0.1549 -0.1075 -0.0398
61634W        W 4728  34.466  20.936   4.611  0.2163 -0.2160 -0.2332
61635W        W 4729   0.768  19.176   4.783 -0.1749 -0.1949  0.0769
61636W        W 4730  34.511  19.010   4.853  0.0896  0.0269 -0.0425
61637W        W 4731   2.818  16.753   5.204  0.0203  0.0211  0.2670
61638W        W 4732   5.510  20.374   3.902  0.1443  0.1928  0.1002
61639W        W 4733   1.150  19.864   7.731 -0.0865 -0.1292 -0.2067
61640W        W 4734   1.721  19.048   5.893  0.2349  0.0039 -0.2675
61641W        W 4735   0.462  22.000   6.822 -0.0265 -0.0418  0.3268
61642W        W 4736   3.372  19.143   5.382  0.0932  0.4257  0.0794
61643W        W 4737   2.799  18.343   4.672 -0.1065  0.0077 -0.0295
61644W        W 4738   1.441  20.890   6.817 -0.1058 -0.0162 -0.2890
61645W        W 4739   1.351  20.853   7.306  0.1034 -0.0436 -0.0963
61646W        W 4740   0.371  18.413   3.527  0.3294 -0.2733 -0.3082
61647W        W 4741   4.272  18.666   4.968  0.1671 -0.2638  0.1419
61648W        W 4742   2.375  18.932   4.534 -0.0087  0.3883 -0.0867
61649W        W 4743   1.427  20.919   5.194  0.0545  0.0505 -0.0682
61650W        W 4744   2.579  21.768   7.260  0.0247 -0.3272 -0.0142
61651W        W 4745   1.032  19.185   5.189 -0.2067 -0.0327 -0.0690
61652W        W 4746   0.505  20.287   5.683 -0.0323  0.3518  0.2151
61653W        W 4747   1.960  18.049   6.620  0.1318 -0.3834 -0.2454
61654W        W 4748   3.147  19.978   6.228  0.1482  0.0408 -0.1985
61655W        W 4749   2.197  18.885   5.049  0.1167 -0.3173  0.0813
61656W        W 4750   2.304  20.178   5.006  0.2958 -0.0081 -0.3189
61657W        W 4751   2.237  19.238   5.729 -0.0373 -0.0660 -0.1410
61658W        W 4752   2.980  21.060   4.407 -0.2897 -0.0565 -0.0231
61659W        W 4753   1.780  20.394   6.755 -0.0766 -0.2645 -0.2667
61660W        W 4754   0.798  23.194   8.804  0.1749  0.0073  0.0804
61661W        W 4755   0.938  18.686   4.804  0.4234 -0.2165  0.0822
61662W        W 4756   4.355  20.631   3.133 -0.1258  0.1282 -0.2363
61663W        W 4757   2.564  20.407   7.590  0.1609  0.0373 -0.1597
61664W        W 4758   2.366  19.586   3.312  0.1574  0.1430 -0.4876
61665W        W 4759  34.685  21.415   7.255 -0.0105  0.0288  0.0225
61666W        W 4760   2.846  20.237   4.916 -0.0647  0.1419 -0.2996
61667W        W 4761   1.760  19.981   7.029  0.0591 -0.1701  0.2040
61668W        W 4762   0.826  19.577   5.468 -0.2192 -0.3608 -0.2585
61669W        W 4763   2.806  20.847   4.818 -0.1493  0.3905  0.3087
61670W        W 4764   0.327  20.389   6.538 -0.1242 -0.0195  0.0078
61671W        W 4765   2.527  17.306   3.716  0.2952 -0.0580  0.1701
61672W        W 4766   2.715  19.890   3.226 -0.1347 -0.2881  0.2796
61673W        W 4767   2.620  19.716   5.045  0.0749  0.1608  0.1583
61674W        W 4768   2.245  20.243   6.551 -0.1095  0.3628  0.2350
61675W        W 4769   3.727  20.596   3.183 -0.0593 -0.0191  0.0528
61676W        W 4770   3.233  17.714   8.049 -0.1263 -0.1231 -0.0515
61677W        W 4771   2.104  18.626   6.235  0.0034  0.2999 -0.2361
61678W        W 4772   2.915  21.661   4.433 -0.5064 -0.2111  0.0413
61679W        W 4773   0.721  20.357   6.128 -0.1199 -0.0572 -0.0243
61680W        W 4774   2.629  22.775   6.603  0.2075 -0.0163  0.2156
61681W        W 4775   0.436  19.366   5.582  0.1487 -0.0648  0.1129
61682W        W 4776   2.415  19.533   4.648 -0.0209  0.0836  0.2414
61683W        W 4777   0.114  19.118   5.256 -0.0075  0.1327 -0.2101
61684W        W 4778   1.635  20.273   6.320 -0.1004  0.0491  0.1157
61685W        W 4779   2.588  20.816   7.085 -0.3057  0.0432 -0.0150
61686W        W 4780   2.409  20.754   4.278  0.0464 -0.2483 -0.1643
61687W        W 4781   3.534  20.393   5.958  0.2656  0.1932 -0.0541
61688W        W 4782   0.677  19.729   7.744  0.0410 -0.2004 -0.2968
61689W        W 4783   3.516  19.869   5.936  0.1687  0.1752 -0.0290
61690W        W 4784   2.597  20.194   4.090  0.0694  0.1173 -0.0079
61691W        W 4785   1.364  19.955   6.722  0.2101  0.0117  0.2376
61692W        W 4786   2.254  19.247   6.927 -0.2003  0.2712  0.1997
61693W        W 4787   2.025  20.841   5.413 -0.1524  0.1678 -0.3587
61694W        W 4788   1.727  18.877   4.933  0.1691  0.3209 -0.0322
61695W        W 4789   2.660  18.354   5.968  0.3955  0.1073 -0.0494
61696W        W 4790   2.655  19.502   6.812  0.1081  0.0373  0.1336
61697W        W 4791  34.502  20.816   6.200  0.2124  0.3096 -0.0622
61698W        W 4792   0.883  19.706   7.312 -0.2963  0.0835  0.3695
61699W        W 4793   1.151  23.257   6.481 -0.1746 -0.2791 -0.0060
61700W        W 4794   3.671  19.310   4.178  0.1183 -0.2138 -0.1329
61701W        W 4795   4.414  18.396   5.387 -0.0901  0.3115 -0.1750
61702W        W 4796   3.232  19.232   4.419 -0.3167  0.4509  0.0131
61703W        W 4797   3.815  21.579   3.428 -0.1467  0.2000 -0.1254
61704W        W 4798   1.331  19.873   4.809 -0.0645  0.0791 -0.2433
61705W        W 4799   3.624  20.921   8.934  0.2286  0.0029  0.2679
61706W        W 4800   0.949  19.903   4.012 -0.1312  0.2269  0.0686
61707W        W 4801   3.544  17.831   6.853 -0.1478 -0.2399  0.0991
61708W        W 4802   1.592  20.704   3.808 -0.1642 -0.0794 -0.0870
61709W        W 4803   3.974  19.423   2.954 -0.0775 -0.0607  0.0360
61710W        W 4804   3.088  19.513   5.993 -0.1283 -0.0468 -0.3380
61711W        W 4805   0.055  19.566   5.267 -0.0879  0.0537  0.0679
61712W        W 4806   0.152  22.079   8.524  0.0938  0.0675  0.0706
61713W        W 4807   0.042  18.261   4.089 -0.2355  0.0680 -0.1323
61714W        W 4808   1.690  19.572   3.316 -0.1072 -0.0251  0.1880
61715W        W 4809   1.093  22.347   6.436 -0.2079 -0.1766 -0.0560
61716W        W 4810   3.787  20.098   7.637 -0.0477 -0.0853  0.3190
61717W        W 4811   2.048  19.182   4.165 -0.1226 -0.3068  0.0582
61718W        W 4812   3.493  20.260   7.300  0.0003  0.2001  0.0254
61719W        W 4813  33.855  20.323   4.141  0.0535  0.4332  0.2331
61720W        W 4814   2.434  19.613   6.397  0.3573 -0.0803 -0.0795
61721W        W 4815   1.123  22.901   5.800  0.1340  0.0731  0.2648
61722W        W 4816  33.722  20.591   7.374 -0.0971 -0.1338 -0.0056
61723W        W 4817   0.970  21.126   4.962  0.1512  0.0165  0.0483
61724W        W 4818   1.929  18.148   6.042  0.0539 -0.1909 -0.1161
61725W        W 4819   2.889  20.595   6.770  0.1353 -0.1935  0.0953
61726W        W 4820   1.439  20.513   5.478 -0.1408 -0.2728  0.2509
61727W        W 4821   3.607  18.763   6.314  0.0245  0.1217 -0.4234
61728W        W 4822   1.741  21.756   7.585 -0.2012 -0.2639 -0.2101
61729W        W 4823   2.111  19.910   5.441  0.1462  0.2550 -0.0895
61730W        W 4824   2.651  21.284   7.349  0.0212 -0.1530  0.0671
61731W        W 4825   5.464  20.599   4.673 -0.1828 -0.0525 -0.0224
61732W        W 4826   0.806  20.717   5.626 -0.1737  0.1563 -0.4065
61733W        W 4827  34.599  19.985   7.244 -0.0809 -0.1017 -0.0014
61734W        W 4828   2.558  20.085   7.187  0.2433  0.2014 -0.1381
61735W        W 4829   3.027  20.971   5.442  0.2712  0.0015  0.0051
61736W        W 4830   1.415  17.684   4.518  0.3099 -0.0664 -0.1047
61737W        W 4831   1.304  21.898   4.655 -0.0979 -0.0739 -0.0690
61738W        W 4832   0.029  20.435   7.471 -0.0870 -0.3488  0.0862
61739W        W 4833   1.137  20.269   6.405 -0.2954 -0.0491  0.1653
61740W        W 4834   0.068  21.756   3.513  0.1061  0.1937 -0.2977
61741W        W 4835   2.892  21.177   1.918 -0.0643 -0.1657 -0.1522
61742W        W 4836   3.860  19.895   3.376 -0.1290 -0.1681  0.1653
61743W        W 4837   3.525  22.660   7.090 -0.1289  0.2276  0.0751
61744W        W 4838   2.259  19.697   4.124 -0.1377  0.1037 -0.0425
61745W        W 4839   0.574  21.021   6.736  0.3264  0.4049  0.2305
61746W        W 4840  34.215  20.939   3.711  0.0827  0.0894 -0.1339
61747W        W 4841   4.985  21.173   3.195  0.2613  0.2210  0.1575
61748W        W 4842   2.517  20.486   4.654 -0.1377  0.1354 -0.0781
61749W        W 4843   3.544  21.100   6.799 -0.2837 -0.0951 -0.0296
61750W        W 4844   2.432  18.052   3.628  0.0575  0.0838  0.3393
61751W        W 4845   3.117  19.621   5.505  0.1764  0.0010  0.0996
61752W        W 4846   4.201  19.057   3.244  0.3899 -0.0731  0.0664
61753W        W 4847   3.583  21.275   7.326 -0.1021 -0.1150 -0.1696
61754W        W 4848   1.282  20.409   6.882 -0.1304 -0.0262 -0.2156
61755W        W 4849   1.886  19.038   5.415 -0.1770  0.2562  0.1339
61756W        W 4850   1.976  18.942   6.574 -0.0158 -0.0606 -0.0608
61757W        W 4851   3.930  19.754   6.694  0.0676 -0.3800  0.4395
61758W        W 4852  34.443  21.315   7.864  0.0368 -0.0380 -0.2619
61759W        W 4853   4.099  21.185   3.762 -0.0944 -0.0977  0.0761
61760W        W 4854   0.264  18.018   5.076 -0.0906  0.2787 -0.3338
61761W        W 4855   1.411  19.137   5.513 -0.0061  0.1797 -0.2033
61762W        W 4856   4.190  19.008   5.978 -0.1934 -0.1340 -0.0199
61763W        W 4857   2.496  21.223   4.244 -0.0021 -0.1382  0.2494
61764W        W 4858   4.028  18.232   5.127  0.1934  0.0830 -0.3219
61765W        W 4859   1.876  20.384   5.229 -0.1705  0.1650 -0.0876
61766W        W 4860   0.454  21.309   6.271  0.2146 -0.1058  0.0491
61767W        W 4861   1.628  21.400   5.459 -0.2477  0.1275 -0.0462
61768W        W 4862   0.995  18.538   2.783 -0.0607 -0.1671 -0.1271
61769W        W 4863   3.935  19.718   4.015  0.0662  0.2360 -0.0606
61770W        W 4864   0.173  19.963   7.637 -0.2937 -0.0299  0.2598
61771W        W 4865   3.051  19.264   6.970 -0.1542  0.3113  0.0304
61772W        W 4866   1.768  20.094   4.061  0.1087  0.2839 -0.0890
61773W        W 4867   3.012  17.995   4.287  0.0236  0.2139 -0.2353
61774W        W 4868   1.815  20.780   6.325  0.1689 -0.1264  0.2236
61775W        W 4869   0.251  20.976   7.124  0.1435 -0.1083 -0.0139
61776W        W 4870   3.052  20.113   4.458 -0.0574  0.0258 -0.4383
61777W        W 4871   3.601  20.794   7.278 -0.1132 -0.0373  0.0082
61778W        W 4872   3.440  19.612   2.149 -0.3863 -0.0508  0.0256
61779W        W 4873   2.228  22.464   6.703  0.1891 -0.3250  0.0048
61780W        W 4874   0.852  19.844   5.046  0.4209  0.1376  0.2586
61781W        W 4875   2.927  18.825   4.673  0.1045 -0.1256  0.2524
61782W        W 4876   1.516  19.991   5.303 -0.4960  0.5270  0.0391
61783W        W 4877   1.800  19.049   7.726 -0.1840  0.0823 -0.0943
61784W        W 4878   2.968  22.750   7.000  0.0194  0.2510 -0.0121
61785W        W 4879  34.513  18.663   5.286 -0.0129  0.1873 -0.2860
61786W        W 4880   3.978  22.366   2.757 -0.1748  0.1216 -0.1445
61787W        W 4881   3.599  19.410   5.750  0.0726 -0.0589 -0.1816
61788W        W 4882   2.021  21.461   4.294 -0.1779  0.2373  0.1159
61789W        W 4883   4.178  18.982   3.737  0.3594 -0.1118 -0.1136
61790W        W 4884   4.177  21.835   6.009  0.1701 -0.0042 -0.1817
61791W        W 4885  34.474  19.405   5.674 -0.1030  0.1636  0.0695
61792W        W 4886   2.713  20.431   6.334  0.0225  0.0042  0.0675
61793W        W 4887   4.992  20.701   6.283 -0.2291  0.1718 -0.0352
61794W        W 4888   2.825  18.604   4.234 -0.0265 -0.1965 -0.1217
61795W        W 4889   2.586  19.200   4.929 -0.0974  0.1970 -0.0204
61796W        W 4890   0.312  21.304   3.806  0.1659  0.0753  0.0549
61797W        W 4891   3.976  19.563   4.618  0.0256  0.2014  0.1766
61798W        W 4892   3.137  18.969   7.494  0.0743  0.0139  0.0603
61799W        W 4893   1.053  20.731   4.523 -0.1640 -0.1286 -0.2180
61800W        W 4894   3.116  18.791   6.958 -0.2360 -0.1416 -0.3442
61801W        W 4895   2.310  21.289   6.936 -0.1347 -0.0169  0.0332
61802W        W 4896   1.763  21.330   6.873 -0.0647  0.1513 -0.0132
61803W        W 4897   0.462  18.843   3.002 -0.0287 -0.0330  0.0474
61804W        W 4898   1.998  19.615   7.297  0.2485 -0.1298 -0.0941
61805W        W 4899   1.562  21.408   6.064  0.3059 -0.1504  0.0382
61806W        W 4900   1.599  20.774   4.625  0.0567 -0.2447  0.0253
61807W        W 4901   2.853  21.320   6.847  0.3154  0.0705 -0.1957
61808W        W 4902   3.500  19.781   3.684 -0.1553  0.3059 -0.2505
61809W        W 4903   4.263  20.979   6.049  0.0515  0.1306  0.1061
61810W        W 4904   0.173  18.380   5.477 -0.2105 -0.4186  0.3087
61811W        W 4905   3.718  17.531   3.981  0.0245  0.4496 -0.1308
61812W        W 4906   1.889  18.788   4.365  0.0120 -0.3540  0.0800
61813W        W 4907   1.015  20.750   6.530  0.1753  0.0262  0.0445
61814W        W 4908  34.207  19.114   5.306  0.0875 -0.3889  0.2867
61815W        W 4909   1.845  20.583   4.196  0.1024  0.1396  0.2135
61816W        W 4910  34.471  20.781   5.569 -0.0323 -0.3564  0.2146
61817W        W 4911   3.011  18.373   6.403  0.0736  0.1689 -0.0397
61818W        W 4912   1.283  20.381   7.522  0.1559  0.1254 -0.1436
61819W        W 4913  34.514  19.849   4.738 -0.0353  0.0222 -0.1603
61820W        W 4914   0.130  17.851   3.700  0.0999 -0.5543  0.1420
61821W        W 4915   3.897  21.861   2.697 -0.1722 -0.2502  0.4112
61822W        W 4916   1.480  19.777   6.248 -0.0330 -0.0612 -0.0697
61823W        W 4917   0.488  19.428   5.114  0.2595  0.0710 -0.2108
61824W        W 4918   3.406  21.300   5.982  0.0010  0.2006  0.1287
61825W        W 4919   3.478  21.139   5.504  0.2503 -0.0038 -0.0150
61826W        W 4920   1.257  19.391   4.766 -0.1280 -0.0089  0.2931
61827W        W 4921   1.418  19.829   3.701 -0.0223  0.0160 -0.3141
61828W        W 4922   2.878  20.002   7.563 -0.0248  0.1347 -0.0052
61829W        W 4923   2.294  19.106   6.183  0.1037  0.1750 -0.1496
61830W        W 4924  34.513  18.304   3.609 -0.2055 -0.0348 -0.0647
61831W        W 4925   2.298  20.717   6.013 -0.1127 -0.3606  0.0792
61832W        W 4926   3.436  20.841   4.559  0.0552  0.2225 -0.0929
61833W        W 4927   1.675  21.342   3.754 -0.1519 -0.1730 -0.0528
61834W        W 4928   2.477  21.783   6.754  0.0062 -0.4831  0.3017
61835W        W 4929   1.435  21.119   6.407  0.0842 -0.0684  0.0998
61836W        W 4930   1.726  19.513   6.869 -0.2734 -0.0540  0.1378
61837W        W 4931   2.927  20.562   4.359  0.1134  0.0370 -0.0376
61838W        W 4932   1.068  21.390   6.837  0.2089 -0.3160  0.0364
61839W        W 4933   3.660  21.775   6.074 -0.2078  0.2689 -0.2745
61840W        W 4934   3.800  18.995   4.515  0.0305  0.6126 -0.3251
61841W        W 4935   2.781  19.697   4.240 -0.1439  0.1448  0.1472
61842W        W 4936   1.148  17.097   6.857  0.0850 -0.1448 -0.3452
61843W        W 4937   0.571  21.112   7.536 -0.1353 -0.0480 -0.3375
61844W        W 4938   3.141  21.034   6.435  0.0191  0.3096  0.1783
61845W        W 4939   1.076  17.393   5.441 -0.4361 -0.0525  0.1472
61846W        W 4940   3.045  19.316   5.074  0.0100  0.1060  0.1500
61847W        W 4941   2.062  20.582   4.772  0.0021  0.1216  0.1827
61848W        W 4942   0.916  19.993   6.943 -0.0102 -0.1236  0.3087
61849W        W 4943   2.743  20.736   3.260  0.2531  0.1203  0.1741
61850W        W 4944   3.409  20.575   6.887  0.0889  0.0323  0.0554
61851W        W 4945   1.926  21.086   5.862  0.2449  0.3386 -0.2321
61852W        W 4946   3.104  20.384   7.720 -0.1223 -0.0106  0.1405
61853W        W 4947   3.143  20.084   3.997 -0.1535 -0.0226  0.3230
61854W        W 4948   3.286  20.096   5.076 -0.2840 -0.0931  0.0519
61855W        W 4949   0.913  22.829   6.237  0.0474  0.0487 -0.1093
61856W        W 4950   3.519  21.600   6.938 -0.2026  0.3478 -0.0269
61857W        W 4951   1.441  22.750   6.428  0.0128 -0.1220 -0.0126
61858W        W 4952   2.955  20.432   5.352 -0.1024 -0.0197 -0.2118
61859W        W 4953   1.305  19.371   6.449  0.0592  0.1682  0.3512
61860W        W 4954   0.572  20.603   4.399  0.0762 -0.0086 -0.0536
61861W        W 4955   1.703  19.518   3.935  0.0062 -0.0209 -0.0320
61862W        W 4956   2.701  19.482   7.369  0.2267  0.2652 -0.1157
61863W        W 4957   2.742  18.733   5.100 -0.0634 -0.2059  0.0566
61864W        W 4958   1.592  19.292   4.401  0.1433 -0.1050 -0.5292
61865W        W 4959   0.941  21.969   5.682 -0.2365 -0.1031  0.1111
61866W        W 4960   2.189  21.169   6.338 -0.1910 -0.3554  0.1626
61867W        W 4961   2.951  21.923   9.362  0.1242  0.1709  0.0360
61868W        W 4962   1.479  19.790   8.975  0.0872 -0.3002  0.2104
61869W        W 4963   2.755  20.191   7.997  0.2219  0.0057 -0.0475
61870W        W 4964   3.902  20.648   8.106  0.2935 -0.2516  0.1393
61871W        W 4965   1.462  19.005   7.381  0.1068  0.2728  0.1725
61872W        W 4966   2.363  22.475   8.266  0.3310 -0.0007 -0.0055
61873W        W 4967   2.640  21.163   7.848 -0.2596  0.1144  0.0593
61874W        W 4968   4.710  23.356  10.477 -0.1897 -0.0070 -0.0263
61875W        W 4969   3.656  21.003   7.808  0.1377 -0.3776  0.3761
61876W        W 4970   1.974  18.992   9.979 -0.0311  0.0080 -0.1043
61877W        W 4971   1.790  17.688   7.577  0.0461  0.1829 -0.3054
61878W        W 4972   0.016  17.299   8.969 -0.2225  0.1503 -0.2619
61879W        W 4973   5.709  20.063   9.844  0.1557  0.3688  0.1380
61880W        W 4974   0.708  20.682   8.138 -0.1506  0.0092  0.1187
61881W        W 4975   0.238  19.448   9.532 -0.0559 -0.0517  0.1052
61882W        W 4976   3.315  18.298   9.085 -0.2060 -0.0112  0.1283
61883W        W 4977   2.092  22.226   8.588  0.1273 -0.1011  0.2923
61884W        W 4978   3.922  18.613   8.438  0.2932 -0.1793 -0.1065
61885W        W 4979   2.149  22.076   7.991 -0.0258 -0.0801  0.4347
61886W        W 4980   0.805  20.252   7.402  0.3189  0.3688  0.2076
61887W        W 4981  34.520  18.242  10.276  0.1829 -0.3108 -0.0627
61888W        W 4982   1.891  21.218   8.971  0.2499 -0.0124 -0.1593
61889W        W 4983   3.934  18.138   9.134  0.1241 -0.0891  0.0183
61890W        W 4984   4.088  19.332   9.070 -0.0943  0.3476  0.1157
61891W        W 4985   2.652  21.648   9.050  0.0236  0.0525  0.0142
61892W        W 4986   0.850  21.706   8.179  0.1747 -0.0102 -0.5012
61893W        W 4987   0.116  21.355   9.714  0.2372  0.0670  0.2102
61894W        W 4988  34.050  21.671   8.764  0.2397  0.3032 -0.0177
61895W        W 4989   1.445  22.500   9.103 -0.3898 -0.0204 -0.0420
61896W        W 4990   3.851  21.845   8.853 -0.0671  0.0287  0.0569
61897W        W 4991   0.429  20.659   7.565 -0.0434  0.1724  0.0166
61898W        W 4992   2.030  20.363   8.405  0.0425  0.1246  0.1124
61899W        W 4993   2.279  19.890   8.527 -0.0758 -0.0457 -0.1776
61900W        W 4994   2.086  21.670   7.165 -0.0048 -0.0786 -0.0148
61901W        W 4995   2.129  21.672   8.264  0.1723  0.1463 -0.1109
61902W        W 4996   0.926  22.136   9.591 -0.1528  0.2246 -0.0379
61903W        W 4997   1.310  22.114   7.945 -0.1831 -0.0330  0.0133
61904W        W 4998   2.684  18.616   8.011  0.0928  0.0929  0.0836
61905W        W 4999   1.329  19.078   6.860  0.0446 -0.0832  0.2010
61906W        W 5000   2.812  18.818   8.798  0.0321 -0.1675 -0.1113
61907W        W 5001   2.581  18.651   9.248 -0.1645  0.1313 -0.0426
61908W        W 5002   2.349  22.263   9.973 -0.0257 -0.2963 -0.3240
61909W        W 5003   1.267  19.105   9.836 -0.3597  0.2100  0.1447
61910W        W 5004   2.304  19.336   8.466 -0.1113 -0.2802 -0.0640
61911W        W 5005   2.716  17.819   8.476 -0.1831  0.0989 -0.1684
61912W        W 5006   2.920  21.298   9.264  0.0148  0.0035 -0.1309
61913W        W 5007   0.980  20.065   9.442  0.1792 -0.1153  0.0675
61914W        W 5008   3.443  19.609   6.900  0.1354  0.0346 -0.4544
61915W        W 5009   3.486  21.395   8.606  0.1336 -0.3574  0.1330
61916W        W 5010   1.690  21.350   7.908  0.2478  0.1164  0.2596
61917W        W 5011   0.167  20.125   9.092 -0.0173  0.2328  0.1915
61918W        W 5012   2.809  18.381   6.947  0.0110  0.1474  0.1162
61919W        W 5013   3.098  20.344   8.826 -0.0596  0.0416 -0.1041
61920W        W 5014   1.504  20.242   9.300 -0.1119 -0.2786  0.2308
61921W        W 5015   5.286  22.963   9.964  0.1964  0.0380 -0.0894
61922W        W 5016   2.662  20.977   6.507  0.0974  0.1378 -0.0027
61923W        W 5017   3.921  17.995   7.572  0.3899  0.2265  0.1640
61924W        W 5018   3.665  18.488   9.447  0.1873  0.0245 -0.0157
61925W        W 5019   1.068  19.287   7.585 -0.3255  0.1817  0.1443
61926W        W 5020   1.354  20.993   7.783  0.1623 -0.1636  0.1115
61927W        W 5021   2.166  20.626   7.992 -0.0399  0.0441 -0.0811
61928W        W 5022   2.601  20.797   8.786  0.3681  0.1400 -0.2565
61929W        W 5023   0.926  18.546   9.620  0.0420  0.1394 -0.2589
61930W        W 5024   0.353  21.866   7.305 -0.0835 -0.1455  0.0600
61931W        W 5025   3.327  20.877  10.384 -0.0350  0.1133  0.0542
61932W        W 5026  34.125  20.688   7.651 -0.0131  0.3198  0.1944
61933W        W 5027   1.168  17.811   8.776  0.1023  0.3202  0.1250
61934W        W 5028   3.414  20.207   9.980 -0.2019  0.1382  0.3426
61935W        W 5029   4.118  18.028   8.035 -0.1845 -0.2472 -0.1825
61936W        W 5030   4.361  15.439   9.531  0.3351 -0.3069  0.0616
61937W        W 5031   2.030  21.259  10.018  0.2826 -0.1051 -0.1424
61938W        W 5032   3.702  21.901   7.889 -0.1733 -0.2506 -0.1710
61939W        W 5033   2.704  20.398   9.144 -0.0037 -0.3515 -0.2800
61940W        W 5034   3.068  22.466   6.409  0.0490 -0.1261  0.3329
61941W        W 5035   1.322  20.330   9.808  0.1622 -0.1876 -0.0065
61942W        W 5036   0.368  20.751   9.982 -0.2947  0.1104 -0.0260
61943W        W 5037   0.447  18.784   9.141  0.1733 -0.3197  0.0558
61944W        W 5038   0.559  18.709   7.037 -0.4429 -0.0145 -0.3119
61945W        W 5039   3.557  18.894   9.201  0.0539 -0.2030 -0.2808
61946W        W 5040   3.050  19.227   9.006 -0.1189 -0.0760  0.0324
61947W        W 5041  34.352  19.909   8.238 -0.1521 -0.2227  0.2116
61948W        W 5042   2.620  21.580   8.164 -0.0522  0.2585 -0.2187
61949W        W 5043   3.856  22.431  10.497  0.1570 -0.0626 -0.3422
61950W        W 5044   4.118  20.264  10.372 -0.1985  0.1012 -0.0392
61951W        W 5045   2.274  19.634   8.991 -0.1528  0.2311  0.2248
61952W        W 5046   2.116  18.952   8.197 -0.1583  0.0712 -0.0199
61953W        W 5047   1.193  21.778   9.310 -0.0463  0.1588  0.0016
61954W        W 5048   2.422  22.488   7.671 -0.2091  0.0708  0.1926
61955W        W 5049   1.665  18.215   9.081  0.0124  0.1343 -0.0992
61956W        W 5050   4.224  21.819   9.986 -0.1332  0.1662  0.0461
61957W        W 5051   2.130  22.073   7.497 -0.0921  0.0260  0.2486
61958W        W 5052   3.928  19.982   9.994 -0.0155  0.1641  0.1542
61959W        W 5053   4.459  19.667   9.341 -0.0358 -0.0074 -0.1174
61960W        W 5054   0.915  18.822   7.816 -0.0824 -0.1730 -0.0936
61961W        W 5055   2.015  22.821   7.851  0.0988  0.1158 -0.0370
61962W        W 5056   1.714  22.045   9.297  0.2785 -0.1095  0.2688
61963W        W 5057   0.786  20.307   9.028 -0.0334  0.0379 -0.0270
61964W        W 5058   1.598  22.218   8.627 -0.0764  0.0218  0.2368
61965W        W 5059   2.907  18.358   8.840  0.0406  0.4472 -0.0398
61966W        W 5060   1.811  19.301   8.250 -0.1928  0.0300 -0.0542
61967W        W 5061   3.166  18.216   8.158 -0.0830  0.1370 -0.0247
61968W        W 5062   4.078  18.977   7.804  0.2239  0.0352  0.0604
61969W        W 5063   3.639  20.425   9.612 -0.0235  0.0096 -0.0759
61970W        W 5064   2.291  18.742   7.141  0.0101  0.0337 -0.0673
61971W        W 5065   1.672  20.391   7.972 -0.4008 -0.0960  0.2803
61972W        W 5066   2.175  20.886   8.595  0.0268 -0.0167 -0.0383
61973W        W 5067   3.251  20.187   9.300  0.0658  0.2023  0.2142
61974W        W 5068   2.232  18.713   7.641 -0.1913 -0.2023  0.1933
61975W        W 5069   4.436  21.021   8.556  0.0573  0.2177  0.0020
61976W        W 5070   0.238  19.745   9.942 -0.0960 -0.1401 -0.0794
61977W        W 5071   2.370  21.239   8.937  0.3315 -0.0479  0.1999
61978W        W 5072   2.114  18.562   9.725 -0.0724  0.1598 -0.2285
61979W        W 5073   2.173  20.260   6.012  0.0607  0.0141  0.1086
61980W        W 5074   2.267  18.058   8.456 -0.0534  0.1931 -0.0111
61981W        W 5075   0.637  21.592   6.623  0.0091 -0.0756 -0.4648
61982W        W 5076   4.057  20.675   9.457  0.3060  0.0578  0.2422
61983W        W 5077   5.656  15.508   9.845  0.0824 -0.0701 -0.0721
61984W        W 5078   2.711  20.693   8.131  0.1673 -0.0067  0.1953
61985W        W 5079   4.086  20.428   9.888  0.0366  0.0648 -0.1065
61986W        W 5080   0.546  20.225   7.855 -0.1922 -0.2407 -0.0263
61987W        W 5081   4.167  20.148   9.436 -0.0547 -0.1314 -0.2428
61988W        W 5082   0.836  20.813   9.103 -0.0272 -0.1794 -0.0795
61989W        W 5083   3.070  20.804   8.536  0.0526 -0.1672 -0.0457
61990W        W 5084   1.013  18.930   8.829  0.3159  0.0406  0.0861
61991W        W 5085   0.128  22.617   8.585 -0.0296  0.1281 -0.0434
61992W        W 5086   0.914  20.434   8.521 -0.1252 -0.1409 -0.0720
61993W        W 5087   0.458  16.850   8.987 -0.0480 -0.0829 -0.2755
61994W        W 5088   6.376  21.875   9.804  0.1148  0.0670 -0.0299
61995W        W 5089   1.639  20.926   8.626 -0.0808 -0.0502 -0.0664
61996W        W 5090   6.537  20.859   9.149 -0.1387  0.2747 -0.1312
61997W        W 5091   1.303  21.860   8.823 -0.0873  0.0681 -0.0779
61998W        W 5092   5.914  17.220   9.198  0.1898 -0.0786 -0.1124
61999W        W 5093  34.357  21.004   8.307  0.1110  0.2156  0.0671
62000W        W 5094   0.399  19.982   7.192  0.1581 -0.0588 -0.1123
62001W        W 5095  33.921  20.091   7.578  0.1137  0.0002  0.2074
62002W        W 5096   2.891  19.934   8.384 -0.1771 -0.2060  0.1036
62003W        W 5097   3.809  19.815   7.227 -0.0982 -0.2769 -0.3273
62004W        W 5098   3.799  19.305   9.479  0.2001  0.1125  0.3438
62005W        W 5099   2.229  18.085   9.355 -0.2184  0.0984  0.1940
62006W        W 5100   3.003  20.564  10.109 -0.0463 -0.5501 -0.1775
62007W        W 5101   3.512  18.875   8.283 -0.0086  0.1322  0.2112
62008W        W 5102   1.826  19.832   8.225  0.0925 -0.0739 -0.0703
62009W        W 5103   2.593  19.527   9.465 -0.0768 -0.1201 -0.1985
62010W        W 5104   1.960  20.404   9.410  0.0972  0.0634  0.1818
62011W        W 5105   1.173  20.838   8.775 -0.0037 -0.0006 -0.1161
62012W        W 5106   3.747  20.977  10.618 -0.0278  0.0315 -0.0196
62013W        W 5107   2.068  20.350   7.569  0.0299  0.0613  0.3035
62014W        W 5108  34.344  22.638   8.749 -0.0654  0.1679 -0.3042
62015W        W 5109   2.128  20.786   9.068  0.0928 -0.2308  0.2184
62016W        W 5110   3.759  18.909   9.773 -0.0238  0.1867 -0.2649
62017W        W 5111   1.401  18.680   7.755  0.1863 -0.1721 -0.2890
62018W        W 5112   3.506  19.504   9.096 -0.2566  0.3012 -0.0490
62019W        W 5113   3.029  19.697   9.206  0.2995  0.1097  0.1132
62020W        W 5114   2.709  19.461   8.705  0.3188 -0.3534  0.1329
62021W        W 5115   0.484  17.042   9.562 -0.0666  0.0388  0.1345
62022W        W 5116   4.115  21.429   8.727 -0.0757  0.4418 -0.0338
62023W        W 5117   1.044  21.201   9.532  0.4431  0.1866  0.0749
62024W        W 5118   3.909  21.418  10.387 -0.1704  0.0055 -0.1424
62025W        W 5119   1.689  20.877   8.144 -0.0643 -0.3718 -0.0087
62026W        W 5120   4.778  17.713   9.561 -0.0463 -0.0354  0.1107
62027W        W 5121   1.637  21.570   9.179 -0.0301 -0.3207  0.0467
62028W        W 5122   0.375  19.835   8.134 -0.1666  0.1986 -0.0359
62029W        W 5123   3.134  21.472   9.640 -0.4828 -0.0607  0.2160
62030W        W 5124   3.240  17.408   8.874 -0.1861 -0.0807  0.2343
62031W        W 5125   2.360  20.864   7.551 -0.1293 -0.1718  0.0141
62032W        W 5126   1.162  18.120   9.440  0.1335  0.0571 -0.0669
62033W        W 5127   3.151  19.822   7.981 -0.1574 -0.2411  0.0366
62034W        W 5128   1.842  19.950   9.578  0.0001 -0.1966 -0.3113
62035W        W 5129   4.855  20.241   9.053 -0.0157  0.0328  0.0323
62036W        W 5130   3.081  18.606   8.443  0.0441 -0.1682 -0.3264
62037W        W 5131   2.556  19.149   7.876 -0.1566  0.1837 -0.1317
62038W        W 5132   3.027  20.579   9.556 -0.2879  0.0232  0.3784
62039W        W 5133   4.283  19.392   8.443 -0.1312 -0.0458 -0.0216
62040W        W 5134   1.695  20.417   7.254 -0.3607  0.0440 -0.0773
62041W        W 5135   4.758  18.743   8.331 -0.2875 -0.2153  0.1067
62042W        W 5136   1.989  19.134   8.876 -0.1575  0.0346  0.2333
62043W        W 5137   2.573  20.921   9.256  0.0935 -0.0860 -0.2361
62044W        W 5138   2.372  19.809   7.566  0.2416  0.2424  0.0337
62045W        W 5139   1.670  20.052   8.616  0.2485  0.1811 -0.1314
62046W        W 5140   4.339  20.326   9.008 -0.0792  0.1230  0.4299
62047W        W 5141   3.456  18.666   8.756 -0.0515  0.1753  0.0538
62048W        W 5142   3.062  22.884   9.149 -0.0384 -0.1002  0.0957
62049W        W 5143   3.112  19.086   8.498 -0.2731  0.2651  0.1594
62050W        W 5144   3.288  19.272   9.476 -0.1105 -0.0764 -0.2933
62051W        W 5145   3.665  19.911   9.466 -0.2421 -0.0731  0.0678
62052W        W 5146   2.177  18.482   8.061 -0.0543  0.0873 -0.4135
62053W        W 5147   0.293  21.048   7.891 -0.0091  0.1025 -0.3273
62054W        W 5148   1.318  19.956   7.258 -0.0311  0.2820  0.1292
62055W        W 5149   1.913  21.903   6.750 -0.2476  0.1378 -0.2201
62056W        W 5150   1.814  21.361   8.419 -0.0584 -0.0852  0.0326
62057W        W 5151   1.868  19.562   8.677  0.1139 -0.2990  0.2493
62058W        W 5152  33.874  19.655   9.558 -0.1030  0.2810  0.0666
62059W        W 5153   1.008  18.299   6.900  0.3459 -0.0893  0.0573
62060W        W 5154   2.032  19.516   7.862  0.0751  0.0626 -0.0479
62061W        W 5155   2.220  20.346   8.877  0.1348 -0.0492  0.1916
62062W        W 5156   2.971  18.164   7.731 -0.0971  0.1180  0.3755
62063W        W 5157   0.068  21.302   8.229 -0.1572 -0.1123 -0.0228
62064W        W 5158   4.776  15.843   9.681 -0.2642  0.0684  0.0541
62065W        W 5159   3.576  21.940  10.251  0.0890 -0.2058 -0.2095
62066W        W 5160   2.847  22.202   8.401  0.3927  0.0192 -0.3881
62067W        W 5161   2.712  18.613   9.760 -0.1391 -0.1836  0.0059
62068W        W 5162   4.295  18.588   8.051  0.0625  0.0487  0.1322
62069W        W 5163   2.157  21.132   8.065 -0.1335 -0.1699  0.4982
62070W        W 5164   1.846  21.824   9.791  0.1642 -0.1999  0.0199
62071W        W 5165   3.986  19.815   9.092 -0.1120  0.0216 -0.1151
62072W        W 5166   0.899  21.488   8.610 -0.3114  0.2119 -0.0831
62073W        W 5167   2.563  21.155   8.407  0.2523 -0.1078 -0.0980
62074W        W 5168   1.016  19.115   8.347  0.1690 -0.2406  0.0595
62075W        W 5169   1.769  22.136   7.194 -0.2112  0.0196  0.1811
62076W        W 5170   1.850  19.475   9.253 -0.1102  0.0483 -0.0653
62077W        W 5171   1.965  22.361   9.012 -0.4009 -0.3460 -0.1906
62078W        W 5172   3.567  20.440   8.584  0.0388 -0.3954  0.3346
62079W        W 5173   1.760  20.785   7.653  0.1112 -0.0822 -0.0760
62080W        W 5174   2.873  22.359   9.936  0.0386 -0.3625  0.1689
62081W        W 5175   2.620  18.963   8.378  0.2970  0.0986 -0.2921
62082W        W 5176   2.120  22.357   9.520  0.0438  0.1494  0.1134
62083W        W 5177  34.169  21.194   8.780 -0.3041 -0.4070 -0.2172
62084W        W 5178   2.888  21.687   7.661 -0.1558 -0.3456 -0.2325
62085W        W 5179   1.027  22.226   9.032 -0.0582 -0.0731  0.3315
62086W        W 5180   3.213  18.480   7.380 -0.2071  0.0251  0.4119
62087W        W 5181   4.066  20.585   8.649 -0.2613 -0.0764 -0.0187
62088W        W 5182   3.892  19.357   7.405 -0.0286  0.0149 -0.0500
62089W        W 5183   3.150  19.756   9.686 -0.4268  0.1872 -0.0105
62090W        W 5184   2.736  18.285   8.375 -0.3720 -0.2008 -0.0316
62091W        W 5185   3.201  21.235   7.728  0.3152 -0.1736 -0.1605
62092W        W 5186   0.087  20.503   8.787 -0.1814  0.2005 -0.2421
62093W        W 5187   1.936  19.955   9.069 -0.3999 -0.3237  0.0504
62094W        W 5188   5.228  20.278   9.946  0.0249 -0.0662 -0.2055
62095W        W 5189   1.646  21.291   7.399 -0.1343  0.3318 -0.0031
62096W        W 5190   3.914  18.939   8.856  0.2128  0.1197 -0.1818
62097W        W 5191   1.516  21.843   8.341 -0.0062  0.0604 -0.1030
62098W        W 5192   1.503  22.839  10.625 -0.1494 -0.0947  0.0560
62099W        W 5193  33.988  19.147   8.208 -0.2584 -0.1558  0.3741
62100W        W 5194   4.091  21.030   9.052  0.0135  0.1598  0.1580
62101W        W 5195   3.392  19.143  10.140 -0.0332 -0.2376 -0.0437
62102W        W 5196   1.673  19.032   9.436 -0.1490 -0.0665  0.1185
62103W        W 5197   3.514  19.198   8.727 -0.2533 -0.0911 -0.2053
62104W        W 5198   4.548  19.679   9.879 -0.0300 -0.0790  0.0963
62105W        W 5199  34.396  18.845   9.065  0.0409  0.0604  0.0836
62106W        W 5200   1.148  20.948   8.265 -0.1459 -0.0300  0.0191
62107W        W 5201   3.185  20.292   8.244 -0.0024 -0.2122 -0.2112
62108W        W 5202   1.392  19.603   8.496  0.0092 -0.3453  0.0624
62109W        W 5203   3.310  18.617   7.816 -0.2140  0.0071 -0.0142
62110W        W 5204   1.010  21.248   9.025  0.0464  0.1465  0.1179
62111W        W 5205   2.221  19.085   9.466  0.1655  0.0642  0.0364
62112W        W 5206   0.533  19.840   8.626 -0.1874  0.2843 -0.2479
62113W        W 5207   2.865  20.817   7.614  0.2908 -0.0105  0.2327
62114W        W 5208   3.641  17.779   8.973  0.1330 -0.1560 -0.3906
62115W        W 5209   1.161  23.151   7.786  0.4652  0.0528  0.0419
62116W        W 5210   3.891  19.671   8.536 -0.3641 -0.1787  0.2944
62117W        W 5211   3.734  21.441   9.064  0.1690 -0.0747 -0.3102
62118W        W 5212   2.497  20.518   9.620 -0.0433  0.0766 -0.0365
62119W        W 5213   5.046  20.753   9.041 -0.4073 -0.1877  0.1588
62120W        W 5214   2.458  20.750  10.071  0.0650  0.0921  0.2380
62121W        W 5215   3.443  19.397   8.198 -0.3831  0.1746  0.0250
62122W        W 5216   1.753  20.498   8.897  0.2373 -0.1144  0.2311
62123W        W 5217  34.561  20.501   9.250 -0.1582  0.2977 -0.2409
62124W        W 5218   4.131  18.837   9.306 -0.3057  0.0180  0.2749
62125W        W 5219   2.133  21.309   7.535 -0.1629 -0.0259  0.2475
62126W        W 5220   3.481  21.258  10.036  0.0602 -0.1951  0.2163
62127W        W 5221   0.415  20.303   8.424  0.1874 -0.3227  0.0279
62128W        W 5222   1.297  21.395   8.232  0.0985 -0.1517  0.0934
62129W        W 5223   1.548  22.931   8.222  0.2355  0.1546 -0.1844
62130W        W 5224   3.099  21.209   8.233 -0.2351  0.3013 -0.2184
62131W        W 5225   2.435  18.535   8.723  0.3192 -0.2751 -0.3042
62132W        W 5226   3.699  21.524   9.565 -0.0473 -0.0062 -0.1810
62133W        W 5227   2.136  19.574   9.698 -0.0189  0.0099 -0.3935
62134W        W 5228   5.074  18.416   7.210  0.0896  0.1322 -0.3619
62135W        W 5229   4.168  18.433   7.534  0.1372 -0.3072 -0.0488
62136W        W 5230   2.771  20.076   9.515 -0.0553 -0.2388  0.0639
62137W        W 5231   1.076  19.966   8.764  0.1293 -0.0515  0.1358
62138W        W 5232   1.414  21.393   8.754 -0.2436  0.3900  0.0880
62139W        W 5233   2.321  20.006   9.325  0.2552 -0.0847 -0.0386
62140W        W 5234   0.753  20.431   9.708  0.1086  0.3439  0.1804
62141W        W 5235   1.773  18.280   7.698 -0.0646 -0.3147 -0.1663
62142W        W 5236   3.266  20.725   8.105  0.2110  0.1655 -0.3458
62143W        W 5237   2.074  18.633   9.225  0.0182  0.3503  0.1867
62144W        W 5238   0.409  19.230   8.682  0.0239  0.0063  0.0145
62145W        W 5239   2.190  20.426   7.095 -0.1123 -0.0706 -0.0532
62146W        W 5240   3.154  21.986   7.290  0.3168  0.1496 -0.1715
62147W        W 5241   2.683  18.538   7.457  0.2045 -0.2100 -0.4554
62148W        W 5242   1.471  20.954   9.146  0.0406  0.0772  0.1704
62149W        W 5243   1.341  20.021   8.177 -0.0544  0.0737 -0.0977
62150W        W 5244   4.233  18.491   8.911  0.0201  0.2167 -0.3447
62151W        W 5245   2.371  21.672   7.714 -0.0392 -0.0489  0.3031
62152W        W 5246   1.937  22.538   6.309  0.2382  0.1566 -0.1213
62153W        W 5247   0.650  18.031   9.514 -0.0716  0.0799  0.1604
62154W        W 5248   4.379  20.548   7.719  0.3228  0.0223 -0.1737
62155W        W 5249   3.635  20.930   8.422  0.0663  0.6140 -0.0157
62156W        W 5250   4.647  18.203   8.151 -0.0482 -0.0652  0.1467
62157W        W 5251   2.198  20.089   7.986  0.2654  0.2360 -0.1568
62158W        W 5252   2.715  20.732  10.558 -0.1951  0.1312 -0.0701
62159W        W 5253   2.810  18.117   9.243 -0.1753  0.0187  0.1404
62160W        W 5254   2.521  18.051   8.867  0.2783 -0.2571 -0.2100
62161W        W 5255   1.685  22.321   7.636 -0.0078  0.0482 -0.0933
62162W        W 5256   2.584  20.316   8.526 -0.2610  0.0629 -0.1632
62163W        W 5257   1.617  18.742   9.042  0.0537  0.3176  0.4357
62164W        W 5258   1.639  20.770   9.549 -0.1011  0.1754  0.0990
62165W        W 5259   1.393  19.120   7.997 -0.2663  0.1032 -0.0866
62166W        W 5260   4.775  21.289   8.199  0.0800 -0.0612  0.1353
62167W        W 5261   2.891  21.207   8.770  0.0617  0.0557  0.0412
62168W        W 5262   2.468  21.870   8.549 -0.0042 -0.0710  0.0214
62169W        W 5263   5.205  19.144   9.520  0.0381  0.1234  0.2194
62170W        W 5264   1.136  19.449   9.422  0.3694 -0.2036 -0.2311
62171W        W 5265   1.432  20.481   8.422  0.0530  0.1309  0.0785
62172W        W 5266   1.538  19.559   7.867 -0.1583 -0.1383 -0.1040
62173W        W 5267   5.023  19.566   9.669 -0.1881  0.1833  0.0398
62174W        W 5268  34.522  19.194   8.719 -0.2567  0.0192 -0.1325
62175W        W 5269   3.657  18.171   8.234 -0.0919 -0.1731 -0.1125
62176W        W 5270   3.900  20.889   9.979  0.2553  0.1944 -0.1959
62177W        W 5271   4.045  21.211   9.579 -0.2393  0.2842 -0.0068
62178W        W 5272  34.604  24.832   2.211 -0.1120 -0.0845  0.1366
62179W        W 5273   1.275  23.699   1.121  0.0921 -0.2394 -0.0489
62180W        W 5274   1.636  23.095  31.089 -0.2495 -0.0006 -0.0021
62181W        W 5275   3.113  23.412   0.972 -0.0975  0.0451 -0.0322
62182W        W 5276  34.382  21.740   1.512 -0.0492  0.1364  0.0842
62183W        W 5277   3.191  25.304   1.067 -0.1214  0.1157 -0.3563
62184W        W 5278   2.420  19.963   3.648  0.0543 -0.3637  0.0765
62185W        W 5279   3.624  24.627   1.860  0.1333  0.0671  0.1902
62186W        W 5280   2.469  25.601   2.576  0.0976  0.2492  0.2772
62187W        W 5281   2.603  24.317   0.109  0.0545  0.1487 -0.0240
62188W        W 5282   1.777  20.550   2.478 -0.2280  0.0407 -0.0757
62189W        W 5283   1.256  24.711   2.835  0.1255  0.3355  0.0140
62190W        W 5284   1.961  21.461   0.289  0.3995  0.0048 -0.0736
62191W        W 5285   0.650  22.361   1.891 -0.0857 -0.2230  0.1419
62192W        W 5286   1.283  23.033   2.015  0.0903 -0.4225  0.0849
62193W        W 5287  34.575  23.779   1.305 -0.1665  0.1593  0.1948
62194W        W 5288   1.158  22.079   2.505  0.2318  0.0586  0.1195
62195W        W 5289   0.462  22.006   1.305  0.2760  0.0771  0.2957
62196W        W 5290   0.754  25.174   1.650  0.0978  0.0395  0.1741
62197W        W 5291   1.609  21.647   1.571  0.0746 -0.1489  0.1377
62198W        W 5292   2.167  21.550   3.399 -0.0824 -0.1517 -0.1527
62199W        W 5293  34.598  25.082   1.346 -0.0228  0.1756 -0.1975
62200W        W 5294   0.052  22.318   0.448  0.0223  0.2718 -0.0786
62201W        W 5295   0.158  24.397   1.436  0.2173 -0.0649  0.1986
62202W        W 5296   0.337  23.911   2.656  0.0853 -0.0598  0.1453
62203W        W 5297   3.439  24.723   1.424 -0.0457  0.2426  0.2563
62204W        W 5298   3.526  22.857   0.896 -0.1787 -0.4383 -0.0194
62205W        W 5299  34.564  25.114   2.705 -0.1198  0.2200  0.1009
62206W        W 5300   1.795  24.981   1.144 -0.0755 -0.2185 -0.2433
62207W        W 5301   2.485  23.164   2.862  0.0360 -0.1123 -0.1099
62208W        W 5302  34.550  24.718   1.686  0.1135  0.0929 -0.0329
62209W        W 5303  33.613  25.605   1.311 -0.2484 -0.3220  0.3034
62210W        W 5304   0.558  24.072   0.629 -0.2144  0.1177 -0.1180
62211W        W 5305   2.707  25.616   0.285 -0.0529  0.1550  0.0208
62212W        W 5306   3.545  24.938   2.314 -0.0521 -0.2072  0.1932
62213W        W 5307   2.777  25.774   4.352  0.1640 -0.2094 -0.1207
62214W        W 5308   1.903  23.855  31.799 -0.2156 -0.0325 -0.2247
62215W        W 5309   2.146  25.897   2.846  0.1572  0.1950 -0.2032
62216W        W 5310  34.680  25.525   2.213 -0.1186 -0.2901 -0.5285
62217W        W 5311   1.239  22.577   1.427 -0.1175  0.2735 -0.1852
62218W        W 5312   0.675  24.027   1.441 -0.0357 -0.3158 -0.1524
62219W        W 5313   1.181  24.555  31.890 -0.1505 -0.1276  0.0887
62220W        W 5314   0.837  24.797   1.009 -0.0307  0.2678 -0.1253
62221W        W 5315   0.845  24.695   3.118 -0.0932  0.2937 -0.1110
62222W        W 5316  33.440  25.296   2.615  0.0033 -0.0229 -0.0557
62223W        W 5317   2.450  23.547   3.298 -0.2076  0.2452  0.1874
62224W        W 5318  34.423  26.173   0.634  0.2802 -0.2780  0.4499
62225W        W 5319   2.100  22.531  31.094 -0.0018  0.2237  0.0466
62226W        W 5320   2.574  21.181  30.657  0.2536  0.2408 -0.2590
62227W        W 5321   2.969  22.554  31.619  0.2324  0.0153 -0.1949
62228W        W 5322   1.915  21.334   1.860  0.3321  0.1388  0.0363
62229W        W 5323  34.614  25.285   3.199  0.2191  0.0736  0.2293
62230W        W 5324   0.638  23.603   2.317  0.1937  0.3220  0.0736
62231W        W 5325   2.583  24.005   1.437 -0.1207 -0.1083  0.1570
62232W        W 5326   2.048  22.927   2.041 -0.0694  0.1409 -0.2560
62233W        W 5327   1.258  23.506   1.868  0.1021  0.0589 -0.1494
62234W        W 5328   1.962  24.458   1.031  0.2047 -0.1645  0.3475
62235W        W 5329   1.066  22.224   0.953 -0.0973 -0.2153 -0.1088
62236W        W 5330   2.752  25.697  31.748 -0.0416 -0.2501 -0.1954
62237W        W 5331   2.668  25.535   0.774 -0.2319 -0.1926  0.1577
62238W        W 5332   2.308  25.050  30.804 -0.0272 -0.2093 -0.1034
62239W        W 5333   0.195  23.094   0.845 -0.0460 -0.1935 -0.0354
62240W        W 5334  33.974  22.993   3.058  0.0130 -0.0968  0.1336
62241W        W 5335   0.194  24.717   2.694 -0.0201 -0.1517  0.0745
62242W        W 5336  34.461  21.216  31.760  0.0926  0.1108 -0.1043
62243W        W 5337   3.238  24.263   2.113  0.2764  0.0017 -0.1335
62244W        W 5338  33.938  25.223   3.451 -0.3996  0.0119 -0.0172
62245W        W 5339   3.630  22.771   2.312  0.3143 -0.0164  0.1996
62246W        W 5340   0.689  23.860   3.037  0.0305  0.0522  0.0073
62247W        W 5341   1.890  25.240   3.855  0.0943 -0.1431 -0.2415
62248W        W 5342   4.619  23.465   0.406 -0.2033  0.0764  0.1258
62249W        W 5343   3.713  21.341   2.645  0.1144 -0.0066  0.2899
62250W        W 5344   1.995  22.061   3.281  0.0878 -0.2322 -0.1667
62251W        W 5345   1.402  23.510   0.586 -0.1352 -0.1096 -0.0158
62252W        W 5346   1.044  23.290   0.951 -0.0465  0.0720 -0.0639
62253W        W 5347   3.347  25.580   1.845 -0.3547  0.1166  0.0857
62254W        W 5348   3.299  24.471  31.925 -0.2471  0.0525 -0.0511
62255W        W 5349  33.530  24.480   1.345  0.1593  0.1605  0.1344
62256W        W 5350   1.267  23.944   1.567 -0.5014  0.0182 -0.0991
62257W        W 5351   2.653  24.351   4.110  0.0699  0.2775 -0.0329
62258W        W 5352  34.608  25.058   0.033  0.3160  0.0336  0.5175
62259W        W 5353  32.861  24.503   1.757 -0.0151 -0.0165  0.0290
62260W        W 5354   1.723  24.087   1.250 -0.0727 -0.0634 -0.1777
62261W        W 5355   0.768  23.748   1.829 -0.3172  0.2199  0.1043
62262W        W 5356   1.579  23.309   2.834  0.0037 -0.1350  0.2632
62263W        W 5357   2.652  23.832   0.325  0.1263  0.0334 -0.0336
62264W        W 5358   1.120  21.899   1.609 -0.0331 -0.0498  0.0599
62265W        W 5359   2.965  22.847   1.725 -0.0058  0.0769  0.0940
62266W        W 5360   0.111  24.371   0.782  0.1269  0.0865 -0.0907
62267W        W 5361   4.037  24.764   2.190 -0.0463  0.1050  0.0617
62268W        W 5362   3.569  24.170   1.486 -0.2347 -0.0466 -0.1617
62269W        W 5363   4.150  25.414  31.689 -0.2244 -0.0230  0.2125
62270W        W 5364   0.985  23.847   2.595 -0.2034 -0.2036 -0.0386
62271W        W 5365   0.746  23.541   1.314 -0.0101 -0.0360  0.2449
62272W        W 5366   0.790  21.721   2.577  0.0114  0.0230 -0.2574
62273W        W 5367   0.096  21.989   0.811  0.1823 -0.2115  0.0732
62274W        W 5368   1.793  24.933   2.380 -0.1015 -0.2719 -0.0486
62275W        W 5369   1.745  22.312   1.111 -0.0981  0.0623  0.0464
62276W        W 5370   3.132  22.971   0.559  0.1859 -0.0289 -0.0985
62277W        W 5371   1.132  22.365   1.852 -0.1435  0.0106  0.1333
62278W        W 5372  34.040  23.764   1.140 -0.1136  0.2612  0.1076
62279W        W 5373   1.863  21.761   3.918  0.3035  0.1039 -0.0279
62280W        W 5374   0.343  25.355   1.459  0.0541 -0.2530 -0.0651
62281W        W 5375   5.046  24.739   3.438  0.1217  0.1778  0.0864
62282W        W 5376   3.127  24.248   1.543 -0.0884  0.1236  0.0814
62283W        W 5377  34.519  22.760   3.038 -0.0180 -0.0295  0.3679
62284W        W 5378   0.364  21.364   0.535  0.1209  0.1330 -0.1108
62285W        W 5379   0.074  25.854   3.454 -0.1715 -0.2150 -0.0828
62286W        W 5380   2.155  23.673   0.197  0.5397 -0.3562  0.2268
62287W        W 5381   1.123  21.387   1.654  0.1167 -0.2454  0.1361
62288W        W 5382   2.643  24.537   1.445  0.0324  0.0120  0.1970
62289W        W 5383   1.392  24.065   0.805 -0.0705 -0.0977  0.3216
62290W        W 5384   0.002  24.351   2.942 -0.1157 -0.0533 -0.2305
62291W        W 5385   2.586  21.706   4.046 -0.0732  0.0331  0.0399
62292W        W 5386   2.822  24.136   1.893 -0.6205 -0.0343  0.1474
62293W        W 5387   1.217  23.141   1.454  0.3075  0.0940  0.1215
62294W        W 5388   1.723  22.401   0.102  0.1537  0.3760  0.2365
62295W        W 5389   4.392  24.512   1.371  0.1278 -0.3110 -0.0258
62296W        W 5390  34.569  24.752   0.465  0.3094 -0.3918 -0.1773
62297W        W 5391   0.128  24.844   3.190 -0.0445  0.0981 -0.0533
62298W        W 5392   3.032  24.676   1.799 -0.0566 -0.0847 -0.3821
62299W        W 5393   2.492  22.380   1.857  0.0083 -0.0373 -0.3542
62300W        W 5394  34.289  24.031   3.647  0.0875 -0.2441  0.0730
62301W        W 5395   2.160  23.421   2.036 -0.0488 -0.1164  0.2514
62302W        W 5396  33.944  22.399   0.168 -0.1263 -0.2571 -0.1116
62303W        W 5397   1.288  25.502   1.505 -0.0530 -0.0958 -0.1617
62304W        W 5398   2.185  22.336   1.457  0.0041  0.0306 -0.1496
62305W        W 5399   4.362  22.265  31.887 -0.0011 -0.1393  0.2347
62306W        W 5400   1.285  22.025   3.004  0.0468  0.1729  0.0222
62307W        W 5401   3.050  22.516   0.290 -0.1766  0.2866 -0.0296
62308W        W 5402   2.251  21.270   0.733  0.0977 -0.0839  0.4065
62309W        W 5403   1.978  21.809   1.349  0.3544 -0.0256 -0.2283
62310W        W 5404  33.329  24.225   2.556 -0.0191  0.0737  0.1773
62311W        W 5405   1.409  24.023  31.755 -0.1433  0.1835  0.1025
62312W        W 5406   1.066  24.351   1.731  0.1331  0.1680  0.0087
62313W        W 5407   1.721  22.888   0.415 -0.0379 -0.2617  0.2171
62314W        W 5408   4.083  25.331   0.747  0.4220 -0.1923 -0.1183
62315W        W 5409   0.368  24.815   1.317  0.2143 -0.0626  0.0220
62316W        W 5410   2.380  23.747   2.329  0.1662 -0.0507  0.2760
62317W        W 5411   1.324  25.180   1.071  0.0653 -0.3732  0.0997
62318W        W 5412   1.595  21.212   3.052  0.0100 -0.2503  0.1959
62319W        W 5413   0.951  22.511   0.476  0.0609  0.0238  0.1430
62320W        W 5414   2.603  22.765   0.471 -0.0890 -0.3108  0.4607
62321W        W 5415  34.082  24.689   1.502  0.0627 -0.0141  0.1209
62322W        W 5416   2.700  22.515   1.357  0.0361 -0.1862 -0.2089
62323W        W 5417   2.159  21.681   2.816 -0.1624  0.0033  0.0829
62324W        W 5418   0.273  21.351   3.205  0.1989  0.3754 -0.1388
62325W        W 5419   4.639  23.261   3.470 -0.1354  0.1899  0.2575
62326W        W 5420   2.587  23.652   1.838 -0.3242  0.3340  0.0791
62327W        W 5421   1.662  22.852   2.302  0.0473 -0.2305 -0.0039
62328W        W 5422   0.197  22.871   0.261  0.0585 -0.1431  0.0373
62329W        W 5423   1.384  21.046   3.464 -0.4274  0.0075  0.1498
62330W        W 5424   0.894  24.315   2.234 -0.0612  0.3149 -0.3070
62331W        W 5425  34.335  25.642   2.706 -0.1810 -0.1838  0.1683
62332W        W 5426   2.315  24.525   2.396  0.1068 -0.0761 -0.3228
62333W        W 5427   3.063  24.049   0.059 -0.2048  0.1103  0.3184
62334W        W 5428   3.352  22.703   2.728  0.4231 -0.2382 -0.0490
62335W        W 5429   1.252  22.671   0.143 -0.2619  0.3515  0.2554
62336W        W 5430   1.069  25.618   0.638 -0.0455  0.0097 -0.2515
62337W        W 5431   0.961  23.751   0.571  0.2083  0.2409  0.1744
62338W        W 5432   1.569  21.074   1.533 -0.1617 -0.2455  0.1540
62339W        W 5433   0.491  24.735   0.634  0.0418  0.0544 -0.0176
62340W        W 5434   2.318  23.438  31.743  0.3198 -0.1165 -0.0933
62341W        W 5435   3.233  24.650   2.555 -0.0443  0.0591 -0.1998
62342W        W 5436   0.436  24.884   1.852  0.0574 -0.0864 -0.2597
62343W        W 5437   3.139  22.967   2.180 -0.0193 -0.0527 -0.0605
62344W        W 5438  33.709  25.099   2.223 -0.0207  0.0179  0.2968
62345W        W 5439   0.351  21.855   0.402 -0.0428 -0.1391 -0.2702
62346W        W 5440  34.049  23.978   0.202  0.4268  0.1102  0.1063
62347W        W 5441   2.398  22.152   1.009 -0.1392  0.0788 -0.3705
62348W        W 5442   3.239  24.157  31.094 -0.0231 -0.0992  0.2397
62349W        W 5443  34.668  23.841   2.311  0.0020 -0.5112 -0.1529
62350W        W 5444   2.001  21.655   2.332 -0.1108 -0.2671 -0.1431
62351W        W 5445  34.134  24.110   2.190 -0.4961 -0.0615  0.0977
62352W        W 5446   2.163  22.590   2.409  0.1950  0.1843  0.1373
62353W        W 5447   2.808  21.904   0.820  0.0757  0.0150 -0.2848
62354W        W 5448   2.383  23.135   2.398 -0.0311  0.1768  0.0054
62355W        W 5449   0.928  23.347   2.891 -0.0587  0.1121 -0.0537
62356W        W 5450  34.212  22.189   0.558 -0.0395 -0.0763 -0.0625
62357W        W 5451   3.865  21.645   1.759  0.0855 -0.2409 -0.2733
62358W        W 5452   2.083  23.273   1.502  0.2105  0.2030 -0.1282
62359W        W 5453  33.293  24.705   2.130 -0.0569  0.1221  0.0764
62360W        W 5454   1.248  24.913   1.514  0.1393  0.0794 -0.1886
62361W        W 5455   0.092  23.204  31.944 -0.4389  0.1837 -0.1512
62362W        W 5456   0.292  23.987   1.102  0.3814 -0.0230 -0.3128
62363W        W 5457   1.298  24.090   2.056  0.0200  0.1403 -0.1765
62364W        W 5458   2.063  25.425   2.869  0.1261  0.1357  0.2145
62365W        W 5459   1.575  23.287   1.145  0.1699 -0.0086 -0.2375
62366W        W 5460   0.855  22.272   1.395 -0.0630 -0.0116  0.1626
62367W        W 5461   1.141  24.394   1.209 -0.1731 -0.0447  0.1595
62368W        W 5462   3.444  24.214   2.796  0.1118 -0.1619 -0.0732
62369W        W 5463   0.739  22.816   2.821 -0.0022  0.1746 -0.1083
62370W        W 5464   1.353  26.027   4.007 -0.3209 -0.0807 -0.3036
62371W        W 5465   1.537  21.000   2.033  0.1432  0.0304 -0.2786
62372W        W 5466   4.504  26.568   1.555 -0.0143  0.3366  0.1441
62373W        W 5467   1.605  22.561   2.747  0.3984 -0.1114  0.0219
62374W        W 5468   0.089  23.007   1.363  0.1032  0.1941  0.1817
62375W        W 5469   0.422  25.684   3.137  0.0157  0.0881  0.3119
62376W        W 5470   1.553  24.777   2.001  0.1434  0.1722  0.1300
62377W        W 5471   2.995  22.479   3.385  0.2784 -0.3052  0.4106
62378W        W 5472  33.730  24.438   2.196 -0.1407  0.0671 -0.4105
62379W        W 5473   1.399  24.700   0.933 -0.0879  0.0647 -0.1375
62380W        W 5474   0.303  25.209   2.392 -0.0073 -0.0038  0.1157
62381W        W 5475   3.200  21.144  31.649 -0.0682 -0.1033 -0.2379
62382W        W 5476   1.802  24.339   0.600  0.1385 -0.0598  0.2504
62383W        W 5477   1.645  22.248   1.580  0.0220 -0.0821  0.5219
62384W        W 5478   3.565  21.207   3.119  0.2578  0.0126 -0.3071
62385W        W 5479   2.563  23.152   0.154 -0.1818  0.1004 -0.0601
62386W        W 5480   1.523  21.954   3.519 -0.1888  0.0690 -0.1685
62387W        W 5481   0.255  22.962   2.814  0.0245 -0.0174  0.0686
62388W        W 5482   2.880  24.555  31.676 -0.1194 -0.0814  0.1937
62389W        W 5483   0.397  23.467   2.817 -0.1204 -0.0177  0.2069
62390W        W 5484   1.017  24.236   2.938  0.2557 -0.0834  0.0074
62391W        W 5485   1.634  22.881   3.130  0.1651 -0.1897  0.1684
62392W        W 5486   3.064  22.067  30.614 -0.1506 -0.0617 -0.0978
62393W        W 5487  34.543  21.630   0.500 -0.0715  0.6148 -0.0768
62394W        W 5488   0.488  24.350   2.854 -0.2167 -0.1355  0.1230
62395W        W 5489   3.714  24.432   2.429 -0.4119 -0.0553  0.2119
62396W        W 5490   2.019  23.448   1.035 -0.0268 -0.1553  0.1065
62397W        W 5491   3.594  23.532   1.192  0.2892  0.0872  0.0923
62398W        W 5492   1.750  24.244   1.815  0.3527  0.0156  0.0564
62399W        W 5493   0.813  24.702   1.494 -0.0581 -0.3626  0.0494
62400W        W 5494   0.426  25.308   0.950  0.1571 -0.0390  0.0150
62401W        W 5495   0.882  23.391   0.242 -0.0089  0.2146  0.1589
62402W        W 5496   1.563  20.636   1.682 -0.0627 -0.0432 -0.2474
62403W        W 5497   2.176  23.963   1.069  0.3118  0.0488  0.2832
62404W        W 5498   2.419  22.907   1.127 -0.1601  0.0867  0.1515
62405W        W 5499   2.816  22.872   2.546  0.1821 -0.0279  0.0888
62406W        W 5500   1.592  22.690   1.858 -0.1139  0.1889 -0.3256
62407W        W 5501   1.185  21.523   2.947  0.2546 -0.1416 -0.4749
62408W        W 5502  34.571  22.858   2.353 -0.0208  0.4308 -0.3747
62409W        W 5503   2.803  24.357   2.355 -0.0458 -0.1716  0.1201
62410W        W 5504   3.520  23.319   0.686  0.0764 -0.2087  0.4360
62411W        W 5505   3.541  22.226   2.491  0.0506 -0.1247  0.1516
62412W        W 5506   3.545  22.991   1.882 -0.2237 -0.0837 -0.1967
62413W        W 5507   1.841  23.830   0.678 -0.0082  0.1566 -0.2003
62414W        W 5508   0.434  23.260   1.592  0.1698  0.0314  0.0673
62415W        W 5509   2.368  24.544   3.181 -0.4295 -0.2293  0.0979
62416W        W 5510   1.900  20.706   0.123 -0.0568 -0.0007 -0.0089
62417W        W 5511   2.969  21.323   3.984 -0.2288 -0.1742 -0.1519
62418W        W 5512   3.027  25.875   0.725  0.0403  0.0534  0.2944
62419W        W 5513   2.220  24.737   0.378  0.4723 -0.1133  0.1450
62420W        W 5514   2.406  22.297   0.435  0.1944  0.1932  0.1739
62421W        W 5515  33.924  23.101   1.360  0.0614  0.3412  0.0046
62422W        W 5516  34.472  25.715   4.029  0.2394 -0.0810 -0.1105
62423W        W 5517   0.476  22.342   0.208 -0.1040 -0.0423 -0.3219
62424W        W 5518   2.718  22.793  30.691 -0.0281 -0.0839  0.0010
62425W        W 5519   1.978  23.445   2.552 -0.1946  0.1325 -0.0161
62426W        W 5520   1.852  23.811   3.033  0.1921 -0.0531 -0.0505
62427W        W 5521   2.472  21.243   0.284  0.0888  0.1562  0.0143
62428W        W 5522   3.527  22.517   3.614  0.2097  0.3535 -0.0517
62429W        W 5523   0.715  24.414   0.200 -0.1192 -0.5425 -0.3275
62430W        W 5524   1.928  21.857   1.897 -0.0708 -0.1931  0.1273
62431W        W 5525  33.925  27.444   2.360  0.1418  0.0673 -0.1446
62432W        W 5526   0.551  25.555   3.630  0.1388  0.0327  0.0269
62433W        W 5527   1.602  24.577   1.368 -0.1977  0.0209 -0.2540
62434W        W 5528   1.720  22.313   2.313 -0.1256  0.3455 -0.0805
62435W        W 5529   1.788  22.721   1.406  0.0089  0.2870 -0.1998
62436W        W 5530   0.885  24.763   1.994 -0.2092 -0.0307 -0.0648
62437W        W 5531   4.205  23.360   1.661  0.1407 -0.1144 -0.1807
62438W        W 5532   1.009  25.307   2.724  0.2172  0.1694  0.0418
62439W        W 5533   0.288  23.831   1.637  0.1084 -0.1396  0.3826
62440W        W 5534   2.115  25.365   1.872 -0.0187  0.5386 -0.1637
62441W        W 5535   2.476  23.572   1.170  0.1676 -0.1538 -0.0191
62442W        W 5536   2.155  24.311   1.521 -0.2434 -0.0058 -0.1040
62443W        W 5537  34.373  23.035   3.416  0.1277  0.2315 -0.1484
62444W        W 5538   1.519  24.102   2.872  0.0556 -0.1368  0.0482
62445W        W 5539   1.697  23.139   1.741  0.0749  0.2046 -0.2044
62446W        W 5540   2.474  21.650   1.069 -0.1774 -0.1176  0.0554
62447W        W 5541   0.678  25.269   0.515  0.0206  0.3486 -0.1621
62448W        W 5542  34.469  26.978   2.895 -0.2355 -0.4569 -0.0317
62449W        W 5543   0.431  24.644   2.291 -0.0456  0.0110  0.2732
62450W        W 5544   0.091  24.356   2.051 -0.0092  0.1953 -0.0429
62451W        W 5545   2.801  24.166  31.292 -0.0225  0.0481  0.2145
62452W        W 5546   3.853  24.765   0.496 -0.1972  0.1919 -0.0069
62453W        W 5547   2.120  24.859   1.567  0.0119 -0.0162 -0.0409
62454W        W 5548   2.185  22.645   0.144 -0.1273  0.2782 -0.2934
62455W        W 5549  34.184  24.489   1.919  0.0253  0.0314  0.1387
62456W        W 5550   0.032  25.757  31.215 -0.2028  0.3301  0.1119
62457W        W 5551   2.605  25.031   1.705  0.1452  0.4078  0.2745
62458W        W 5552   0.588  26.125   3.358  0.2816  0.0067  0.1714
62459W        W 5553   2.323  24.046   3.104  0.0267 -0.3394  0.0117
62460W        W 5554   3.555  21.832  31.424  0.0411  0.2225 -0.1146
62461W        W 5555   3.098  23.748   1.333 -0.0169 -0.3774 -0.0488
62462W        W 5556   2.094  21.898   0.695  0.3700  0.3207  0.0048
62463W        W 5557   0.466  25.203   2.979 -0.3697  0.1230  0.1082
62464W        W 5558   1.483  22.026   2.039  0.3518 -0.2692 -0.2468
62465W        W 5559   2.931  19.282   0.110 -0.0948 -0.0012  0.3048
62466W        W 5560   1.705  23.671   3.970  0.0124  0.1651  0.0511
62467W        W 5561   4.117  22.759   2.373  0.2376  0.2085  0.3571
62468W        W 5562  34.382  25.649   1.849 -0.1093 -0.1238 -0.2676
62469W        W 5563   4.565  24.852   1.659  0.3004  0.2095  0.1556
62470W        W 5564  33.896  22.675   1.126  0.1404  0.1791 -0.0528
62471W        W 5565   0.816  22.784   1.566 -0.0668  0.1392  0.2969
62472W        W 5566   2.508  21.565   2.118  0.1283  0.2625  0.0102
62473W        W 5567   1.681  23.941   0.242 -0.0888  0.2645  0.0173
62474W        W 5568   1.757  22.025   2.817 -0.0101  0.0372  0.0251
62475W        W 5569   0.111  25.554   2.786 -0.0126  0.0380  0.1331
62476W        W 5570  33.387  24.317   1.819  0.2192 -0.2596  0.0650
62477W        W 5571   0.313  25.894   2.342 -0.0041  0.1286 -0.0785
62478W        W 5572  32.691  21.771   1.469 -0.2633 -0.0250 -0.0790
62479W        W 5573   4.654  23.800   0.775 -0.0894  0.1641 -0.2809
62480W        W 5574   0.585  23.087   3.259 -0.1803  0.0812 -0.0882
62481W        W 5575   3.870  22.227   3.404 -0.1158  0.1997  0.0258
62482W        W 5576  34.233  24.016   2.746  0.2343  0.0517 -0.0993
62483W        W 5577   2.765  24.416   0.567 -0.0299  0.2617 -0.2036
62484W        W 5578   1.972  22.973   2.772  0.2920 -0.1905  0.0481
62485W        W 5579   0.195  23.925   3.168 -0.0048  0.0953  0.0862
62486W        W 5580   1.887  23.336   0.553  0.0061  0.1911  0.4074
62487W        W 5581   3.074  23.771   2.286 -0.2987  0.1312  0.1450
62488W        W 5582   0.821  22.791  30.589 -0.0040 -0.2667  0.1580
62489W        W 5583   1.655  24.338   3.701  0.1892 -0.0740 -0.2823
62490W        W 5584   1.108  21.747   0.841  0.3103 -0.1550  0.2069
62491W        W 5585   2.232  23.808  31.424 -0.3888  0.0186 -0.0465
62492W        W 5586  33.626  23.454   1.755  0.3082  0.1665 -0.1286
62493W        W 5587   1.672  23.635   1.581 -0.0769 -0.2528 -0.3642
62494W        W 5588   1.775  25.232   3.325 -0.3081  0.2375  0.1536
62495W        W 5589   0.178  22.183   1.710 -0.1082 -0.1973 -0.0462
62496W        W 5590   4.556  25.004   0.915  0.0420  0.0798 -0.2327
62497W        W 5591   2.813  23.339   2.203 -0.1109 -0.0983  0.2683
62498W        W 5592   0.606  25.399  31.627  0.1203  0.0113  0.3777
62499W        W 5593   2.317  24.834   1.089  0.2154  0.1112 -0.2511
62500W        W 5594   3.657  25.792   2.283 -0.2074 -0.3494 -0.1542
62501W        W 5595   0.105  23.331   2.393  0.0331 -0.1519  0.0023
62502W        W 5596   3.734  24.110   1.926 -0.0444 -0.0563  0.0515
62503W        W 5597   3.458  24.385   0.439 -0.2423 -0.1279  0.1856
62504W        W 5598   1.447  21.913   1.195  0.0579 -0.0498  0.1379
62505W        W 5599   0.363  22.975   2.038 -0.0083 -0.2391 -0.0951
62506W        W 5600   0.087  25.440   0.520  0.1984  0.0514 -0.0621
62507W        W 5601   2.778  23.536   2.663  0.4298 -0.1152  0.1757
62508W        W 5602   2.483  22.611   2.942  0.0206 -0.5445  0.1144
62509W        W 5603   1.531  24.886  31.639 -0.0017 -0.0554  0.3853
62510W        W 5604   3.618  22.391   4.109  0.0948  0.3041  0.2871
62511W        W 5605   1.924  25.428   2.345 -0.0787 -0.0964  0.0985
62512W        W 5606   0.352  26.091   2.803  0.0121  0.0175 -0.2460
62513W        W 5607   0.613  23.072   1.110  0.0811 -0.2602  0.0107
62514W        W 5608   2.257  25.785   2.105  0.2792  0.2599  0.1290
62515W        W 5609   2.024  25.924   0.831 -0.1863 -0.0965 -0.2971
62516W        W 5610   0.856  25.331   1.168 -0.0538 -0.0890  0.1227
62517W        W 5611   3.541  24.609   0.920  0.2031 -0.1963 -0.3869
62518W        W 5612   2.699  23.256   0.808 -0.0187  0.0028  0.1345
62519W        W 5613   3.265  24.443   3.221 -0.1300  0.0839 -0.2484
62520W        W 5614   2.206  22.592   0.765  0.0185 -0.1157  0.1209
62521W        W 5615   2.777  22.432   0.857 -0.0836  0.2138  0.0730
62522W        W 5616   3.502  20.833   1.897 -0.2021  0.1138 -0.0091
62523W        W 5617   1.151  22.507   2.861  0.5549 -0.0786  0.1879
62524W        W 5618  33.595  23.615  31.423  0.0350 -0.1242 -0.4281
62525W        W 5619  34.288  23.025  31.277  0.2865  0.0827 -0.1716
62526W        W 5620  33.987  24.298   1.143  0.1106 -0.0732  0.1195
62527W        W 5621   1.213  21.555   3.508  0.2372 -0.0324  0.4785
62528W        W 5622   1.894  22.940   3.510  0.1508  0.0004  0.2401
62529W        W 5623   0.419  22.443   2.888  0.2348 -0.1659 -0.2012
62530W        W 5624   1.668  21.874   0.433 -0.2750 -0.0922 -0.0378
62531W        W 5625   2.344  24.336  31.557 -0.0684 -0.1817  0.1746
62532W        W 5626   0.421  22.077   2.230 -0.4388  0.2540  0.2300
62533W        W 5627   0.403  22.529   1.464 -0.3786 -0.0319 -0.2255
62534W        W 5628   2.057  24.338   0.129 -0.0878 -0.0438 -0.0479
62535W        W 5629   2.372  23.603   0.688 -0.1737 -0.0948  0.1174
62536W        W 5630   1.956  22.965   0.918 -0.0226 -0.1037 -0.0404
62537W        W 5631   4.008  25.108   3.308  0.3158  0.1683  0.0595
62538W        W 5632   0.721  24.601  31.664  0.0731 -0.0610  0.0718
62539W        W 5633   1.544  23.361   3.483  0.2798 -0.0946 -0.0181
62540W        W 5634   0.612  23.166   2.490  0.2781 -0.0917  0.3214
62541W        W 5635  33.561  21.846   0.893 -0.0917  0.0100 -0.3750
62542W        W 5636   2.289  22.051   2.217  0.2207 -0.1640 -0.3633
62543W        W 5637   1.907  25.675  31.977  0.0095  0.0089 -0.3899
62544W        W 5638   2.964  25.910  30.850  0.0155  0.1587 -0.2853
62545W        W 5639   1.945  24.317   3.299 -0.2628  0.0717 -0.0271
62546W        W 5640   0.994  25.807   3.498 -0.0220 -0.1167  0.2261
62547W        W 5641   0.457  21.462   2.763  0.0010 -0.0694  0.0072
62548W        W 5642   3.351  23.093   1.332 -0.1004 -0.4502  0.0336
62549W        W 5643   0.830  25.958   2.967 -0.1051 -0.0077 -0.0461
62550W        W 5644   4.955  23.323   1.043  0.5168 -0.1249  0.1045
62551W        W 5645   3.326  22.035   3.514 -0.1315  0.2124 -0.0254
62552W        W 5646   1.233  22.786  31.579 -0.3063 -0.0434  0.0662
62553W        W 5647   0.887  21.113   3.641  0.1643 -0.1263 -0.3345
62554W        W 5648   0.409  24.009   2.116  0.2489 -0.1098  0.1756
62555W        W 5649   2.522  24.537   1.915 -0.0462  0.1189  0.1367
62556W        W 5650  34.468  21.273   1.529  0.1175  0.4672  0.1644
62557W        W 5651   2.280  23.079   0.595  0.0141  0.0672 -0.0409
62558W        W 5652   1.104  26.650   0.829 -0.2256 -0.0302 -0.2579
62559W        W 5653   0.509  24.392   1.791 -0.2517 -0.0749 -0.0392
62560W        W 5654   2.848  22.048   0.354  0.0709 -0.1362 -0.1580
62561W        W 5655   1.129  23.372   2.374  0.1702  0.0358 -0.0909
62562W        W 5656   2.711  25.256   1.207  0.0269  0.4064 -0.0776
62563W        W 5657   2.593  24.062   2.699 -0.0653  0.2150 -0.1527
62564W        W 5658   0.536  23.520   0.863 -0.0088 -0.0915 -0.1410
62565W        W 5659   3.060  24.378   1.061  0.1906  0.0098  0.0224
62566W        W 5660   1.243  24.904   2.321 -0.0622  0.0574  0.1640
62567W        W 5661   2.894  25.154   2.602  0.2979 -0.2203  0.2525
62568W        W 5662   1.402  24.438   2.452  0.1636  0.0900  0.2268
62569W        W 5663   2.460  24.915  31.775  0.0303  0.0896 -0.4061
62570W        W 5664   0.857  22.863   2.217 -0.1242  0.3682  0.1858
62571W        W 5665   2.126  23.826   1.534 -0.0274 -0.1282  0.2428
62572W        W 5666   0.907  23.993   1.008 -0.1103  0.0787 -0.0611
62573W        W 5667   2.609  23.176   1.809  0.0872  0.1947  0.2107
62574W        W 5668   2.013  20.860   1.602 -0.0033 -0.1934 -0.2023
62575W        W 5669   4.291  21.471   0.410 -0.0438 -0.0870 -0.0714
62576W        W 5670   0.015  25.169   1.852  0.0386 -0.1965 -0.2815
62577W        W 5671   2.210  24.115   2.018  0.2382  0.2641  0.1256
62578W        W 5672   1.120  24.189   6.141 -0.1177 -0.1441 -0.0551
62579W        W 5673   0.331  23.432   4.181 -0.2975 -0.0826  0.0150
62580W        W 5674   2.053  23.997   2.630  0.0838 -0.2546  0.2470
62581W        W 5675   4.489  23.423   4.264 -0.0905  0.4470  0.2533
62582W        W 5676   1.061  22.876   3.210  0.0201  0.2713 -0.2406
62583W        W 5677   1.954  24.910   2.956  0.1023 -0.0594  0.2231
62584W        W 5678   1.035  21.263   7.343  0.3337 -0.1455  0.0092
62585W        W 5679   1.182  24.401   5.577 -0.2949 -0.1686 -0.1826
62586W        W 5680   3.150  24.352   4.877  0.1304  0.1681 -0.2574
62587W        W 5681   1.863  24.353   2.306  0.0815 -0.2460  0.0980
62588W        W 5682   1.649  22.706   5.061 -0.1466  0.1296 -0.3809
62589W        W 5683   0.586  24.554   7.305  0.0387  0.0493  0.1533
62590W        W 5684   1.821  21.058   4.957 -0.4795 -0.1436 -0.4956
62591W        W 5685   0.920  22.021   5.030  0.1754 -0.0303  0.0052
62592W        W 5686   2.608  22.452   6.206 -0.2030  0.0411 -0.2318
62593W        W 5687   1.336  23.650   3.074  0.0684 -0.1559 -0.2450
62594W        W 5688   0.636  22.329   5.429  0.0140 -0.2475  0.1072
62595W        W 5689   1.208  22.373   4.453 -0.0473 -0.1002  0.0005
62596W        W 5690   2.037  26.593   4.036 -0.0500 -0.1062 -0.0659
62597W        W 5691   1.030  21.843   6.589 -0.1597  0.0702 -0.1523
62598W        W 5692   2.269  22.832   6.081 -0.2847 -0.1115 -0.0836
62599W        W 5693   0.955  24.816   4.707 -0.1927  0.4774  0.0218
62600W        W 5694   1.605  21.535   2.658  0.0530 -0.0283  0.0212
62601W        W 5695   1.273  22.364   5.122  0.2254  0.2210 -0.2377
62602W        W 5696   1.340  23.269   5.517  0.1975  0.2331 -0.4510
62603W        W 5697   2.559  22.133   3.161  0.2359 -0.0609 -0.1164
62604W        W 5698   1.696  22.676   4.012 -0.0998 -0.1782  0.0021
62605W        W 5699   1.606  24.623   5.495 -0.1475 -0.1589 -0.2036
62606W        W 5700   0.550  25.368   4.917 -0.2375  0.2359  0.0510
62607W        W 5701   4.000  22.757   7.283 -0.0870 -0.0445 -0.0316
62608W        W 5702  34.130  23.709   5.247  0.1352  0.0538 -0.0049
62609W        W 5703  34.117  25.174   3.927  0.1192 -0.0301 -0.2440
62610W        W 5704   0.180  23.534   3.584  0.1457 -0.0307  0.2280
62611W        W 5705   2.851  23.115   4.506 -0.1728  0.1863  0.1957
62612W        W 5706   2.615  25.084   6.433 -0.0976 -0.0212 -0.2099
62613W        W 5707   1.594  25.005   6.313  0.5261 -0.0505  0.2719
62614W        W 5708  34.461  26.121   4.805 -0.1078 -0.2812 -0.4277
62615W        W 5709   1.693  25.281   7.781 -0.0351 -0.3342 -0.2825
62616W        W 5710   0.591  23.675   7.080 -0.3547  0.1399 -0.2079
62617W        W 5711   1.695  22.725   5.976 -0.0843  0.0979  0.0119
62618W        W 5712   2.666  24.145   4.753  0.0814  0.2125  0.0233
62619W        W 5713   1.169  24.292   3.462  0.1253 -0.3314 -0.0588
62620W        W 5714   0.887  24.557   5.183  0.0190 -0.2167  0.3640
62621W        W 5715   0.811  24.462   7.799 -0.0841 -0.0501  0.1897
62622W        W 5716   1.686  24.845   4.745 -0.1179  0.0824 -0.0011
62623W        W 5717   4.669  21.971   7.953  0.0781  0.0310 -0.1907
62624W        W 5718  33.624  25.597   3.717  0.1442 -0.3679 -0.1568
62625W        W 5719   1.939  21.600   5.014  0.0250 -0.3427 -0.3610
62626W        W 5720   1.467  21.500   2.139 -0.1810 -0.1025  0.0045
62627W        W 5721   2.410  23.299   4.241  0.2649 -0.0873 -0.2799
62628W        W 5722   2.529  21.874   5.828  0.0144 -0.2144 -0.0471
62629W        W 5723   1.393  25.512   4.113  0.0619  0.1249 -0.0580
62630W        W 5724   1.819  23.164   5.208  0.0532  0.0508 -0.1152
62631W        W 5725   3.029  24.501   6.681 -0.1037  0.1786  0.1094
62632W        W 5726   2.858  23.202   3.965 -0.1285 -0.0527  0.2355
62633W        W 5727   2.951  22.540   5.331 -0.0883 -0.0627 -0.3253
62634W        W 5728   0.346  24.002   5.532 -0.0691  0.1040 -0.1002
62635W        W 5729   1.097  22.431   5.566 -0.0154 -0.2609 -0.1718
62636W        W 5730   2.419  25.008   2.745 -0.0082  0.1544 -0.4525
62637W        W 5731   2.381  24.491   4.495  0.1730 -0.1704  0.1901
62638W        W 5732   1.297  25.543   3.091 -0.1517 -0.1542 -0.1287
62639W        W 5733   0.756  23.046   4.999 -0.3127 -0.2780 -0.0041
62640W        W 5734   0.442  23.747   6.428 -0.0213 -0.5982  0.3660
62641W        W 5735   1.025  23.719   6.174 -0.4676  0.0434 -0.0793
62642W        W 5736   2.043  20.998   4.542 -0.0589  0.0931  0.3865
62643W        W 5737   3.525  24.404   6.735  0.0004 -0.1688  0.1222
62644W        W 5738  34.663  25.160   6.188 -0.0543 -0.3766 -0.0410
62645W        W 5739   2.520  22.288   5.339 -0.4169 -0.0590 -0.0844
62646W        W 5740   2.468  22.594   4.954 -0.0032 -0.1232 -0.0279
62647W        W 5741   3.775  23.611   5.611  0.1883  0.0371  0.2608
62648W        W 5742   1.952  24.466   2.763  0.0664 -0.2305 -0.0524
62649W        W 5743   3.198  21.785   5.899 -0.1082 -0.2954  0.1529
62650W        W 5744   2.192  22.352   5.844  0.0416 -0.0432  0.1339
62651W        W 5745   1.313  24.006   3.919 -0.1034 -0.0841 -0.0147
62652W        W 5746   1.117  22.692   4.801  0.0437 -0.1684  0.2919
62653W        W 5747   2.720  23.481   5.388 -0.2642  0.1492 -0.3263
62654W        W 5748   1.503  23.742   2.516  0.1465 -0.0983  0.0802
62655W        W 5749   0.164  24.303   4.669 -0.2238  0.0588 -0.2582
62656W        W 5750   1.585  22.180   6.441  0.0523 -0.0015  0.0205
62657W        W 5751   1.632  22.972   6.887 -0.0332 -0.4715 -0.0256
62658W        W 5752   0.019  25.312   3.748  0.3170 -0.0663 -0.1294
62659W        W 5753  34.547  22.836   5.656 -0.1142  0.1416 -0.3368
62660W        W 5754   0.044  24.383   5.641  0.1470  0.0337  0.2690
62661W        W 5755   1.136  21.671   7.677 -0.0273  0.5486  0.2063
62662W        W 5756   0.992  24.118   4.359  0.2467 -0.0612  0.0302
62663W        W 5757   2.656  22.204   3.992 -0.0995  0.1458 -0.0110
62664W        W 5758   0.589  21.158   8.408  0.1867  0.1000  0.4031
62665W        W 5759   4.044  21.034   6.664 -0.0349  0.3007  0.0422
62666W        W 5760   1.362  23.162   4.963  0.1266  0.0103  0.0545
62667W        W 5761   2.847  23.896   5.594 -0.0984 -0.1270 -0.1178
62668W        W 5762   2.551  23.603   3.828  0.1274 -0.1041 -0.0946
62669W        W 5763   1.498  24.873   3.688  0.1080  0.0337  0.1083
62670W        W 5764  34.504  22.584   6.190  0.1009  0.1519 -0.0706
62671W        W 5765   0.401  22.058   5.887  0.1852  0.0209 -0.0600
62672W        W 5766   0.876  22.580   7.424 -0.1430  0.0166  0.0004
62673W        W 5767   0.194  21.597   5.705  0.2422  0.2496  0.1331
62674W        W 5768   3.005  23.132   6.640 -0.1354  0.1414 -0.2583
62675W        W 5769   0.421  22.628   3.868  0.1526  0.0932  0.0748
62676W        W 5770   4.050  22.586   4.365 -0.0121  0.1990  0.2395
62677W        W 5771   0.672  23.510   3.707  0.1740 -0.2163 -0.2999
62678W        W 5772  34.066  23.006   5.025  0.2743 -0.0844  0.0460
62679W        W 5773   3.776  22.363   7.959  0.0321  0.2927  0.1361
62680W        W 5774   2.353  23.085   3.804  0.2410 -0.0394 -0.4930
62681W        W 5775   2.508  25.942   8.094 -0.1790  0.1885 -0.1502
62682W        W 5776   1.866  25.747   4.552  0.2915  0.0710  0.3055
62683W        W 5777   0.854  23.270   5.973  0.1745 -0.1999  0.1497
62684W        W 5778   0.012  22.279   3.154  0.2310 -0.0135 -0.1782
62685W        W 5779   0.019  26.674   5.045 -0.0554  0.1953 -0.2703
62686W        W 5780   1.614  23.667   4.901  0.1679 -0.1067 -0.2127
62687W        W 5781   0.868  22.909   3.682 -0.0423  0.2705 -0.1548
62688W        W 5782   2.864  25.253   4.820  0.0541  0.2840 -0.0278
62689W        W 5783   1.825  23.087   4.736  0.0155 -0.0039  0.2174
62690W        W 5784  34.352  24.730   6.210  0.1012 -0.2043  0.2165
62691W        W 5785   3.498  23.054   8.075  0.2193  0.2449 -0.1081
62692W        W 5786   3.048  23.022   5.610  0.0742 -0.0160 -0.0756
62693W        W 5787   3.009  22.806   4.864 -0.2031 -0.4441 -0.2393
62694W        W 5788   0.787  22.102   2.972 -0.0016  0.1312  0.2155
62695W        W 5789   1.412  24.116   5.241 -0.3025 -0.0105 -0.0187
62696W        W 5790   0.109  24.757   3.790  0.0198  0.1410  0.0983
62697W        W 5791   0.121  23.357   6.539  0.0122  0.1847  0.0781
62698W        W 5792   2.270  23.075   5.025  0.3819 -0.1554  0.1762
62699W        W 5793   3.102  21.922   4.015 -0.1984  0.0132  0.0960
62700W        W 5794  33.742  23.912   7.086 -0.1244 -0.2042  0.1228
62701W        W 5795   2.645  22.709   5.671 -0.1013  0.0534  0.0924
62702W        W 5796   1.502  23.929   3.450  0.1598  0.1089  0.0930
62703W        W 5797   0.619  24.477   5.616 -0.1008  0.1508 -0.2629
62704W        W 5798   1.407  21.421   4.981  0.1391  0.3156 -0.0597
62705W        W 5799   3.895  22.069   4.317  0.0614  0.0970 -0.1198
62706W        W 5800   2.736  24.120   6.680 -0.1884 -0.2673 -0.1269
62707W        W 5801   2.086  23.547   3.640 -0.0520 -0.2869  0.2733
62708W        W 5802   2.658  21.558   3.548 -0.0493  0.2106 -0.0850
62709W        W 5803   2.724  21.319   4.713  0.0461  0.2771  0.0361
62710W        W 5804   0.645  23.106   6.854  0.0729 -0.1049  0.6384
62711W        W 5805   1.613  23.167   3.959  0.1010 -0.0621 -0.1763
62712W        W 5806   2.555  23.269   6.334 -0.2808 -0.0766 -0.2885
62713W        W 5807   0.999  22.016   3.438 -0.1170  0.0736  0.3065
62714W        W 5808   2.725  24.712   4.748 -0.4942  0.4389 -0.5074
62715W        W 5809  34.641  23.437   5.585  0.3470 -0.1443 -0.2213
62716W        W 5810   1.769  24.301   7.535 -0.1313 -0.1220  0.0992
62717W        W 5811   2.196  24.745   4.871  0.0156  0.1659 -0.0090
62718W        W 5812   1.298  21.794   6.130  0.3286 -0.0719 -0.0603
62719W        W 5813   2.351  21.698   4.586 -0.0868  0.0113 -0.0357
62720W        W 5814   1.179  22.413   3.772  0.1549  0.1431  0.1457
62721W        W 5815   0.487  27.067   3.683 -0.3551  0.3969  0.3106
62722W        W 5816   3.825  22.309   6.384  0.2833  0.0309  0.1925
62723W        W 5817   2.206  21.303   5.358 -0.1023 -0.2217  0.1140
62724W        W 5818   0.111  22.255   6.358 -0.0815 -0.1724  0.3537
62725W        W 5819   3.308  22.580   5.733  0.1390 -0.0536  0.0876
62726W        W 5820   2.796  24.198   3.137 -0.1120 -0.1230 -0.0248
62727W        W 5821   2.056  22.543   4.639 -0.1548 -0.2556 -0.0915
62728W        W 5822   1.966  23.027   4.272  0.0572 -0.0338  0.0256
62729W        W 5823   2.275  22.146   6.321 -0.0147  0.1785 -0.1364
62730W        W 5824   0.840  23.203   5.435 -0.0204  0.1101 -0.3055
62731W        W 5825  34.583  25.155   6.752 -0.1573 -0.1478  0.0100
62732W        W 5826   3.392  24.863   6.405 -0.0981 -0.2292  0.0102
62733W        W 5827   2.200  23.507   5.403  0.0993  0.1290  0.1095
62734W        W 5828   2.669  22.255   6.717  0.0508  0.3357 -0.0407
62735W        W 5829   2.341  22.089   4.889  0.1119  0.0627 -0.1524
62736W        W 5830   0.627  25.645   2.632  0.1093  0.0278 -0.0320
62737W        W 5831   1.400  23.835   4.408 -0.1925 -0.2756  0.4480
62738W        W 5832   0.774  22.408   5.992  0.1045 -0.3554 -0.1295
62739W        W 5833   1.257  24.499   3.934  0.0724  0.2470  0.1198
62740W        W 5834   0.534  24.929   3.456  0.1776 -0.2599  0.0912
62741W        W 5835   3.021  23.542   6.342 -0.0243 -0.2694  0.3320
62742W        W 5836  34.049  24.948   4.432  0.0478 -0.0779  0.0272
62743W        W 5837   3.792  22.062   5.698 -0.0795 -0.0418 -0.1103
62744W        W 5838  34.122  23.780   4.342  0.1095 -0.0210 -0.2397
62745W        W 5839   0.963  23.068   4.511 -0.2269  0.0848 -0.1160
62746W        W 5840   0.768  23.703   4.214  0.2391 -0.0852  0.0128
62747W        W 5841   3.387  22.378   5.018 -0.2137 -0.2350 -0.0843
62748W        W 5842   2.726  22.754   4.202  0.4824  0.5631  0.1937
62749W        W 5843   0.712  21.562   4.821  0.0651 -0.0212 -0.4086
62750W        W 5844   1.470  21.956   5.179 -0.0546 -0.3730 -0.1923
62751W        W 5845  34.346  25.360   5.365 -0.1888 -0.2504 -0.0819
62752W        W 5846   1.608  22.286   4.773 -0.2271 -0.2135 -0.2048
62753W        W 5847   3.063  22.402   3.863 -0.0451 -0.3877  0.1486
62754W        W 5848   1.935  24.641   6.362 -0.0322  0.0152 -0.3431
62755W        W 5849   1.507  24.441   7.062  0.0564 -0.0054  0.0085
62756W        W 5850   0.234  22.761   3.340 -0.2292 -0.2933  0.1038
62757W        W 5851   3.965  23.190   6.100  0.3315  0.4376 -0.2033
62758W        W 5852   1.813  21.877   4.624 -0.0334  0.1114 -0.4133
62759W        W 5853  33.506  24.889   5.053 -0.0319 -0.2759  0.2551
62760W        W 5854   1.355  25.018   5.133 -0.1432 -0.0690  0.0796
62761W        W 5855   0.620  24.304   3.417 -0.0941 -0.0200 -0.1149
62762W        W 5856   0.832  24.143   3.849  0.1991 -0.0358 -0.0881
62763W        W 5857   0.526  22.596   7.086 -0.3141 -0.1659  0.1282
62764W        W 5858   3.987  23.266   7.218 -0.0907  0.0062 -0.1102
62765W        W 5859   1.226  22.826   5.276  0.0365 -0.1188 -0.1760
62766W        W 5860   0.506  21.536   4.369  0.2935 -0.1040 -0.0757
62767W        W 5861   3.722  22.510   5.543 -0.1758 -0.1046  0.1171
62768W        W 5862   1.931  23.910   5.176  0.1569  0.1807 -0.0274
62769W        W 5863   1.985  21.961   5.427  0.1444  0.1515  0.0882
62770W        W 5864   1.084  24.826   6.408 -0.0454 -0.2518 -0.1605
62771W        W 5865   2.869  21.967   6.360 -0.2325  0.0938 -0.0296
62772W        W 5866   3.238  24.900   3.028  0.4216  0.1777  0.1489
62773W        W 5867   2.459  23.753   5.836 -0.1327 -0.0079 -0.0535
62774W        W 5868   0.400  23.904   3.866  0.0638 -0.1866 -0.0131
62775W        W 5869   0.359  23.264   5.045 -0.1058  0.0767  0.0006
62776W        W 5870   1.085  24.041   4.846  0.0108 -0.1957 -0.0870
62777W        W 5871   0.624  21.106   4.606 -0.3178 -0.4213 -0.2672
62778W        W 5872   0.421  24.392   5.138  0.1028  0.1347  0.1625
62779W        W 5873  33.951  24.262   4.301 -0.3197  0.2580  0.1784
62780W        W 5874   0.696  23.665   5.737 -0.3029 -0.0235  0.0838
62781W        W 5875   4.009  21.590   4.144  0.0071  0.5177  0.0221
62782W        W 5876   2.040  24.043   3.693 -0.0206 -0.1175 -0.0702
62783W        W 5877   1.679  21.360   4.592 -0.2878 -0.1799 -0.1776
62784W        W 5878   4.085  21.369   6.284 -0.0112 -0.0791 -0.2537
62785W        W 5879   2.765  22.804   3.661  0.1495 -0.0188  0.0858
62786W        W 5880   2.122  23.454   6.115  0.0196  0.1042 -0.1608
62787W        W 5881   1.160  21.478   5.791  0.2022 -0.0846 -0.0482
62788W        W 5882   1.835  24.440   5.107 -0.0808 -0.3727  0.1373
62789W        W 5883  33.218  22.484   7.342 -0.0721  0.0460  0.2168
62790W        W 5884   2.091  24.161   7.825 -0.0299  0.3801 -0.1267
62791W        W 5885   0.087  23.829   6.862 -0.0730  0.2504  0.1587
62792W        W 5886   2.553  22.390   4.496 -0.2676  0.2317  0.0195
62793W        W 5887   1.287  21.956   3.910 -0.2875 -0.0131  0.0941
62794W        W 5888   2.771  23.876   7.158  0.3317  0.1124  0.0318
62795W        W 5889   1.319  24.533   4.923 -0.1131 -0.1989  0.0450
62796W        W 5890   1.172  23.626   5.167 -0.1062 -0.0182 -0.0128
62797W        W 5891   3.325  23.399   3.739 -0.0517  0.2808 -0.2999
62798W        W 5892   0.186  23.943   5.001  0.0870 -0.1066 -0.0331
62799W        W 5893   4.545  24.300   5.113 -0.0097  0.0919 -0.2575
62800W        W 5894   2.861  22.225   4.975  0.1107  0.1982  0.2376
62801W        W 5895   1.006  23.584   4.711 -0.0151  0.1457  0.2439
62802W        W 5896   0.037  22.821   7.212 -0.0308 -0.0980 -0.1990
62803W        W 5897   3.129  23.316   5.207 -0.0662  0.0381 -0.0599
62804W        W 5898   2.359  22.922   4.530 -0.2236 -0.2239  0.3432
62805W        W 5899   1.673  23.602   5.433  0.2065 -0.1669 -0.0121
62806W        W 5900   1.588  22.684   4.511  0.3858 -0.1983  0.0040
62807W        W 5901   1.824  22.053   5.998 -0.2013  0.0865  0.0209
62808W        W 5902  33.904  21.885   8.380  0.1147 -0.2417 -0.0778
62809W        W 5903   2.416  24.771   6.017 -0.2920  0.0485  0.0171
62810W        W 5904   3.150  22.512   4.363  0.2469  0.0768 -0.3320
62811W        W 5905   3.191  23.876   5.970 -0.0670  0.0327 -0.1581
62812W        W 5906   3.654  23.395   5.109  0.3886 -0.1579 -0.3437
62813W        W 5907   2.436  22.957   3.302 -0.2699 -0.0399 -0.1398
62814W        W 5908  33.961  22.013   5.240 -0.1438  0.2138  0.2572
62815W        W 5909   2.966  24.610   7.148  0.1107 -0.1114  0.0015
62816W        W 5910   0.335  22.649   2.434  0.1806 -0.0449 -0.2255
62817W        W 5911   1.593  23.916   7.263  0.0796 -0.1241  0.2491
62818W        W 5912   1.820  24.084   4.226 -0.1394  0.0944  0.3095
62819W        W 5913   2.138  24.455   3.985  0.0881 -0.2423 -0.0899
62820W        W 5914   1.494  21.653   4.234  0.1258 -0.1820 -0.3428
62821W        W 5915  34.346  23.387   6.199 -0.0672  0.0272  0.0269
62822W        W 5916   1.870  26.247   6.310  0.4556 -0.1453 -0.0384
62823W        W 5917   1.668  22.443   3.461  0.1983  0.0599 -0.0184
62824W        W 5918   1.401  22.901   3.602  0.0504  0.5311 -0.0714
62825W        W 5919   2.568  24.807   5.533  0.1828 -0.1181 -0.0359
62826W        W 5920   3.856  23.901   8.147  0.0535  0.0507 -0.1459
62827W        W 5921   1.319  20.304   3.843 -0.0755  0.2441  0.2095
62828W        W 5922   4.135  22.560   8.263 -0.0596 -0.0332 -0.3032
62829W        W 5923  34.256  24.556   4.765 -0.3736 -0.2531 -0.1998
62830W        W 5924   2.181  22.833   5.598 -0.0177 -0.0438 -0.1545
62831W        W 5925  34.336  24.757   5.340  0.0638  0.0565 -0.2097
62832W        W 5926  34.425  24.176   4.415 -0.5098 -0.1074 -0.0359
62833W        W 5927   0.977  24.844   3.580 -0.1475 -0.0663 -0.0475
62834W        W 5928   3.365  21.942   6.468 -0.1259 -0.0173 -0.0641
62835W        W 5929   4.228  22.727   5.440 -0.0545  0.2523  0.0921
62836W        W 5930   1.145  23.887   5.669  0.3686  0.2358  0.1662
62837W        W 5931   3.449  22.722   7.712 -0.2267  0.0756  0.0037
62838W        W 5932   2.554  24.264   5.829  0.1087 -0.1295 -0.2029
62839W        W 5933   0.469  23.170   6.340  0.0282  0.3363  0.2168
62840W        W 5934   2.944  24.583   5.737 -0.0702  0.0141  0.1481
62841W        W 5935   3.090  23.534   4.662 -0.0212  0.2357 -0.0129
62842W        W 5936  34.598  24.419   5.083  0.0696  0.1246 -0.0826
62843W        W 5937  34.153  22.146   7.919  0.1848  0.5730 -0.2471
62844W        W 5938   2.885  23.392   7.354 -0.2211 -0.1957 -0.0678
62845W        W 5939   2.673  22.975   5.258  0.0060 -0.2034  0.0317
62846W        W 5940   0.806  22.603   4.191  0.4681 -0.2253  0.1800
62847W        W 5941   1.414  23.320   4.463 -0.1637 -0.1260 -0.1261
62848W        W 5942   0.828  25.329   5.881 -0.0610  0.0211  0.0880
62849W        W 5943   1.734  23.484   6.671  0.1212 -0.1765  0.2179
62850W        W 5944   0.450  25.066   3.923 -0.2117 -0.1848  0.0524
62851W        W 5945   1.770  25.303   4.423 -0.1419 -0.1098 -0.2570
62852W        W 5946   2.285  22.569   4.098 -0.1195  0.2032  0.0521
62853W        W 5947   2.630  24.452   6.319  0.3128 -0.0814  0.0632
62854W        W 5948   1.202  22.950   2.612 -0.3783 -0.4499 -0.0018
62855W        W 5949  34.639  23.568   5.103 -0.0694  0.1014  0.2082
62856W        W 5950   0.101  24.373   3.494 -0.0472  0.1471 -0.1202
62857W        W 5951   2.686  26.246   4.569 -0.1375  0.1124 -0.3291
62858W        W 5952   0.129  24.038   6.004  0.1540 -0.3004 -0.0800
62859W        W 5953   3.919  24.230   6.997  0.0333  0.1133  0.1742
62860W        W 5954   4.341  22.632   2.872  0.0842 -0.1618 -0.0102
62861W        W 5955   2.112  23.552   4.903  0.2204  0.1402  0.2061
62862W        W 5956   3.573  22.578   4.579  0.0455 -0.1062 -0.0068
62863W        W 5957   2.247  24.554   7.506  0.2806  0.2673  0.1471
62864W        W 5958   2.581  23.116   7.002 -0.0087 -0.1639 -0.0597
62865W        W 5959   1.653  21.028   4.194  0.1148  0.1323 -0.0139
62866W        W 5960   1.293  23.880   6.644  0.0847 -0.0066 -0.0236
62867W        W 5961   3.110  22.294   6.885 -0.0466 -0.1103 -0.0454
62868W        W 5962   1.424  25.884   6.223  0.3660  0.4074  0.1460
62869W        W 5963   2.591  25.465   3.042  0.0916 -0.2549 -0.1077
62870W        W 5964   1.191  23.479   3.971 -0.0285 -0.1512  0.0605
62871W        W 5965   1.251  22.841   4.138  0.1116  0.0437 -0.2517
62872W        W 5966   2.997  21.780   6.839 -0.1881 -0.2234  0.1031
62873W        W 5967  34.587  23.275   3.963  0.0188  0.0115  0.0499
62874W        W 5968   2.240  22.082   4.225  0.1709 -0.1769  0.0418
62875W        W 5969   1.342  25.613   5.237  0.0903 -0.0801  0.2160
62876W        W 5970   0.570  23.668   5.229  0.2090 -0.1528 -0.2045
62877W        W 5971   0.683  25.014   5.408 -0.1127 -0.0477  0.2352
62878W        W 5972   0.081  23.235   4.581 -0.2849 -0.2419  0.2053
62879W        W 5973   2.817  23.614   4.217 -0.0137  0.3923 -0.2794
62880W        W 5974   0.660  22.786   5.709 -0.0818 -0.1088  0.2545
62881W        W 5975   2.884  22.907   6.178 -0.2122 -0.0659 -0.1236
62882W        W 5976   1.647  22.870   5.536  0.0256  0.0091  0.0028
62883W        W 5977   1.977  22.566   3.129  0.1111  0.1306 -0.0524
62884W        W 5978   2.038  23.943   5.669  0.1974 -0.0656 -0.0069
62885W        W 5979   0.658  22.514   6.603 -0.1206 -0.1178  0.0479
62886W        W 5980   0.697  22.572   3.362 -0.2803 -0.1352 -0.1379
62887W        W 5981   3.038  24.145   7.478  0.2347  0.2806 -0.1016
62888W        W 5982   2.540  24.075   3.579  0.1082  0.1660  0.1977
62889W        W 5983   3.379  24.947   6.963 -0.0440  0.0317  0.1076
62890W        W 5984   0.415  22.087   5.033  0.1350 -0.3370 -0.1535
62891W        W 5985   2.391  21.720   5.224 -0.1467 -0.1888  0.0123
62892W        W 5986   0.155  22.455   5.815  0.0393 -0.0542  0.2639
62893W        W 5987   1.083  22.810   6.822  0.1429 -0.0438  0.3451
62894W        W 5988   2.641  25.392   7.317 -0.1916  0.1176 -0.0999
62895W        W 5989   0.134  22.708   4.275  0.0286  0.0001 -0.1323
62896W        W 5990   1.998  24.748   3.601  0.1712  0.3600 -0.1866
62897W        W 5991   2.199  23.354   6.673 -0.0981 -0.0078 -0.1092
62898W        W 5992   1.868  25.932   2.359 -0.1773 -0.0380 -0.0430
62899W        W 5993   3.394  22.876   5.195  0.2282 -0.0935  0.3603
62900W        W 5994   1.049  26.574   3.965 -0.3558  0.2778  0.0557
62901W        W 5995   0.126  22.357   6.845  0.2794 -0.3056 -0.1579
62902W        W 5996   3.200  24.075   7.004 -0.0108 -0.1044 -0.1410
62903W        W 5997   2.975  24.511   3.749  0.4581 -0.3106 -0.0808
62904W        W 5998   1.820  20.593   5.818 -0.2015  0.0371 -0.2702
62905W        W 5999   0.405  23.189   5.597  0.0100  0.0325 -0.0020
62906W        W 6000   0.029  24.294   3.991  0.0629 -0.1087 -0.2720
62907W        W 6001   4.410  22.276   4.556 -0.0180 -0.1424 -0.1028
62908W        W 6002   2.928  22.281   5.802  0.2367 -0.2110  0.2745
62909W        W 6003   1.523  25.160   2.747 -0.0820  0.3158  0.0039
62910W        W 6004   3.106  21.494   7.243  0.0731  0.0533 -0.0338
62911W        W 6005   2.746  23.568   6.760 -0.0029  0.1274  0.0311
62912W        W 6006   3.335  23.567   6.788 -0.0877 -0.1070  0.2983
62913W        W 6007   0.951  23.806   3.442 -0.0947 -0.2112 -0.1915
62914W        W 6008   1.565  24.024   6.288  0.3425  0.0148  0.0871
62915W        W 6009   0.857  24.087   5.300 -0.0295 -0.3509 -0.2755
62916W        W 6010   0.686  24.412   4.737  0.3637  0.0000  0.1548
62917W        W 6011   2.528  23.691   4.596  0.1430  0.1155 -0.1204
62918W        W 6012   1.621  21.643   3.172  0.1950 -0.0317 -0.0226
62919W        W 6013   4.120  23.849   4.524  0.1791 -0.0618 -0.1593
62920W        W 6014   1.399  20.984   5.721 -0.0979  0.2740  0.1194
62921W        W 6015   3.162  21.479   5.311  0.1809  0.0457 -0.0755
62922W        W 6016   2.311  21.939   3.640  0.1432 -0.4242 -0.5306
62923W        W 6017   1.587  24.144   5.786  0.1316  0.0181  0.0537
62924W        W 6018   1.070  23.353   3.408  0.0196  0.0352  0.0349
62925W        W 6019  33.912  23.284   3.495 -0.2754  0.0725 -0.0730
62926W        W 6020   1.380  24.494   4.419 -0.3411  0.1798  0.0481
62927W        W 6021   2.717  22.885   7.442 -0.0694  0.2024 -0.0150
62928W        W 6022   0.618  22.095   6.346  0.1967  0.2467 -0.1712
62929W        W 6023  34.456  22.952   6.484 -0.1339  0.3125  0.3862
62930W        W 6024  34.422  21.891   3.908 -0.2046 -0.0093 -0.0232
62931W        W 6025   2.505  24.581   3.657 -0.1579 -0.1757  0.1975
62932W        W 6026   0.551  21.786   5.451  0.0484 -0.2342 -0.0841
62933W        W 6027   0.126  22.133   5.471 -0.1895 -0.2941  0.2282
62934W        W 6028   3.331  23.757   4.103  0.0716  0.0486  0.0381
62935W        W 6029   3.046  25.708   4.777  0.1039  0.0690 -0.0633
62936W        W 6030   1.093  21.408   4.552  0.0314  0.1678 -0.2772
62937W        W 6031   4.332  24.645   6.537  0.0122  0.1194 -0.1533
62938W        W 6032  34.402  24.653   4.192  0.3089 -0.0532 -0.1046
62939W        W 6033   1.461  23.230   6.125  0.1248  0.4856  0.3440
62940W        W 6034   1.334  22.668   7.693 -0.1735 -0.0505  0.1903
62941W        W 6035   0.688  22.210   3.875 -0.0943  0.1781 -0.1704
62942W        W 6036   1.485  21.913   5.682  0.0583 -0.1513 -0.1758
62943W        W 6037   1.597  24.145   4.743  0.1663  0.0600 -0.0867
62944W        W 6038   3.547  26.317   2.509  0.2780 -0.0084 -0.1062
62945W        W 6039   2.238  24.469   5.446 -0.1067  0.4333 -0.1085
62946W        W 6040   2.486  24.627   6.830  0.1711 -0.0258  0.1345
62947W        W 6041  33.603  22.005   6.158 -0.0818 -0.0707  0.0562
62948W        W 6042   3.307  23.299   4.265  0.1294 -0.0799  0.2878
62949W        W 6043   2.459  23.738   6.345 -0.2243  0.0289  0.0650
62950W        W 6044   3.346  24.839   3.895 -0.0534 -0.0111  0.1632
62951W        W 6045   4.921  22.154   6.665  0.0371  0.0651  0.1587
62952W        W 6046   1.993  23.310   3.197  0.1812 -0.2025 -0.0201
62953W        W 6047   0.668  21.578   7.548  0.0041 -0.3066 -0.1740
62954W        W 6048   2.211  23.832   6.798  0.3630  0.1866 -0.0459
62955W        W 6049   3.185  23.986   6.450  0.0148 -0.1941  0.1548
62956W        W 6050   1.683  22.354   5.515 -0.0737  0.1256  0.1812
62957W        W 6051   3.695  21.878   3.877 -0.0332 -0.1601 -0.1487
62958W        W 6052   3.243  25.403   2.350 -0.2152  0.1168  0.2019
62959W        W 6053  34.353  22.283   6.648 -0.0139 -0.1633 -0.1099
62960W        W 6054   2.365  22.495   3.516  0.2917 -0.2866  0.1701
62961W        W 6055   1.874  23.220   5.738 -0.4217  0.1005  0.2109
62962W        W 6056   2.678  23.396   4.933  0.1629 -0.0227  0.1371
62963W        W 6057   2.626  24.920   7.352 -0.4360  0.3971  0.0242
62964W        W 6058   1.952  23.566   4.423 -0.0041 -0.0862  0.0471
62965W        W 6059   4.578  23.696   4.751 -0.1627  0.1477 -0.0273
62966W        W 6060   2.808  25.054   6.900 -0.2600  0.1929  0.2245
62967W        W 6061   3.485  25.196   6.053 -0.1160  0.0040  0.2134
62968W        W 6062   2.221  24.247   6.535 -0.0525  0.0451  0.2210
62969W        W 6063   2.448  23.965   5.214  0.0079 -0.0915  0.2268
62970W        W 6064  34.692  21.235   5.965  0.1182  0.1128 -0.0219
62971W        W 6065   0.567  23.920   4.650 -0.1840  0.2074 -0.0232
62972W        W 6066   0.748  23.189   4.094  0.1391  0.0534 -0.1925
62973W        W 6067   3.455  21.616   4.216 -0.2150  0.3887  0.0214
62974W        W 6068   1.049  21.398   6.352 -0.2372 -0.0564  0.1134
62975W        W 6069   2.918  21.315   5.763 -0.2858 -0.1877 -0.0854
62976W        W 6070   0.539  24.857   4.928  0.0652 -0.2477 -0.2873
62977W        W 6071   2.039  22.419   5.131 -0.3467 -0.1030 -0.0621
62978W        W 6072   2.060  24.399   8.931 -0.0961  0.1890 -0.0050
62979W        W 6073   0.931  23.280   7.234 -0.1140  0.1060  0.3000
62980W        W 6074   2.225  22.528   7.221 -0.0286  0.1105  0.3173
62981W        W 6075   3.252  23.788   8.325  0.2348 -0.1034  0.2131
62982W        W 6076  34.374  22.296   8.370  0.0867  0.3290  0.2199
62983W        W 6077   1.677  25.798   7.937 -0.0683 -0.2505 -0.0637
62984W        W 6078   3.574  24.012   9.876 -0.1022  0.0569  0.0316
62985W        W 6079   1.098  24.404   8.547  0.1924 -0.2003  0.0318
62986W        W 6080   1.829  23.393   7.193  0.0433 -0.0864 -0.2126
62987W        W 6081   1.531  21.494   9.889  0.3746 -0.0679 -0.0018
62988W        W 6082   2.132  23.268   8.775 -0.1017  0.0202  0.3578
62989W        W 6083   0.667  22.509   9.748 -0.0904 -0.0958 -0.0754
62990W        W 6084   2.901  23.365   8.203  0.2134  0.0097 -0.1534
62991W        W 6085   1.441  22.716   9.944 -0.0168 -0.0043 -0.0654
62992W        W 6086   2.606  22.299   9.488  0.1282  0.1923  0.1271
62993W        W 6087   1.800  22.766   7.337  0.2044 -0.1927  0.2045
62994W        W 6088   2.528  24.265   8.834  0.1443 -0.0372  0.2051
62995W        W 6089   2.037  23.353   7.880 -0.0964  0.1756  0.3676
62996W        W 6090   0.998  24.835   7.334  0.0712 -0.0662  0.0863
62997W        W 6091  34.397  22.740   8.046  0.2255 -0.0659  0.0378
62998W        W 6092   1.502  23.771   8.426  0.0023  0.0458 -0.1524
62999W        W 6093   1.069  23.925   8.610  0.1383  0.0429  0.2565
63000W        W 6094   3.730  23.445   9.645 -0.1682  0.0413 -0.0773
63001W        W 6095   3.471  22.779  10.790  0.0513  0.1925 -0.2683
63002W        W 6096   1.653  26.098   8.611  0.2989 -0.0305  0.0048
63003W        W 6097   1.981  24.824   9.129 -0.0549  0.2161  0.2245
63004W        W 6098  33.890  24.347  10.434 -0.2017 -0.0184  0.2666
63005W        W 6099   0.570  25.231   8.290 -0.0254 -0.0163  0.2521
63006W        W 6100   1.066  24.875   8.709 -0.0565  0.0068 -0.2642
63007W        W 6101   2.645  24.096   8.039  0.3338 -0.2267 -0.0391
63008W        W 6102   1.056  23.777   7.190 -0.0160 -0.4903  0.1885
63009W        W 6103   2.523  23.696   9.053 -0.0703 -0.0829 -0.1938
63010W        W 6104   1.577  23.887   7.835 -0.0069  0.1541 -0.0547
63011W        W 6105   0.216  24.898   7.076 -0.0618  0.0898 -0.0653
63012W        W 6106   1.170  25.078   9.156 -0.0273  0.0709 -0.0934
63013W        W 6107  34.532  23.133   8.771  0.0132 -0.0492  0.3465
63014W        W 6108   1.376  24.917   6.822 -0.0611 -0.1607 -0.1592
63015W        W 6109   2.060  22.919   8.301 -0.5633  0.3175  0.0882
63016W        W 6110   1.665  22.127   4.233  0.0667  0.3908 -0.1066
63017W        W 6111   1.875  23.464   8.331 -0.3667  0.0238  0.1264
63018W        W 6112   2.143  21.733   9.134  0.0142 -0.1972  0.1675
63019W        W 6113   2.064  25.020   9.634 -0.5477  0.1782  0.1214
63020W        W 6114   0.873  24.743   9.186 -0.0474 -0.2579 -0.3372
63021W        W 6115   2.417  23.379   8.386  0.2763 -0.4415  0.2708
63022W        W 6116   2.992  22.882  10.078 -0.1757 -0.0954  0.0310
63023W        W 6117   1.559  26.348   9.032 -0.0859 -0.0446  0.0047
63024W        W 6118   0.213  23.432   8.836  0.1847 -0.0673  0.0467
63025W        W 6119   3.542  24.641   7.277 -0.1939  0.1263 -0.2282
63026W        W 6120   3.186  25.022   8.039  0.1172 -0.2768 -0.1864
63027W        W 6121   2.663  22.903   8.437  0.0728 -0.0653 -0.1151
63028W        W 6122  34.535  24.514   7.543 -0.1954  0.0402 -0.3790
63029W        W 6123   0.322  22.475   7.549 -0.2912  0.1773 -0.1245
63030W        W 6124   3.957  22.935   7.991  0.0238  0.0302  0.1499
63031W        W 6125   1.318  24.502   7.779  0.0525  0.0768 -0.3464
63032W        W 6126   3.717  23.718   8.592 -0.1440 -0.2645 -0.1817
63033W        W 6127   2.367  23.584   7.271 -0.0269 -0.0141  0.0056
63034W        W 6128   2.910  21.706   8.584  0.0517  0.4967  0.3377
63035W        W 6129   2.317  22.758   8.753  0.0542 -0.1848 -0.3696
63036W        W 6130   0.384  23.334   7.801  0.1707  0.0697  0.0862
63037W        W 6131   2.251  24.260   8.374  0.2025 -0.0211  0.2657
63038W        W 6132   6.218  24.842  10.177 -0.0215 -0.2010 -0.1303
63039W        W 6133   2.462  22.931   7.975  0.0374  0.1538  0.0713
63040W        W 6134   1.189  27.181   9.344 -0.1105 -0.0034  0.3361
63041W        W 6135   1.470  24.494   6.501 -0.1797 -0.2270 -0.1692
63042W        W 6136   1.101  25.000  10.022  0.2326  0.2924  0.0036
63043W        W 6137  34.187  24.390   8.905  0.1083 -0.0957 -0.0122
63044W        W 6138   0.281  24.309   9.788 -0.2997  0.1739 -0.2639
63045W        W 6139   0.481  25.134   9.166 -0.0830 -0.0510  0.0619
63046W        W 6140   4.588  21.533   8.760 -0.0523  0.1551  0.3457
63047W        W 6141   3.897  23.392   9.076  0.3089 -0.0078  0.2484
63048W        W 6142   0.247  23.651   7.393 -0.6300  0.2872  0.2045
63049W        W 6143   0.329  25.629   8.413 -0.0389  0.2383  0.3436
63050W        W 6144   3.113  22.864   8.291  0.0401  0.0506  0.0247
63051W        W 6145   0.812  23.514   6.643  0.2663 -0.0428  0.0591
63052W        W 6146   3.052  24.082   9.786 -0.1757  0.0341  0.0556
63053W        W 6147   0.349  23.052   8.383  0.0336 -0.2829  0.4296
63054W        W 6148   1.785  22.272   9.880  0.0020 -0.0607 -0.0615
63055W        W 6149   0.774  23.136   8.087 -0.0064 -0.0401 -0.2052
63056W        W 6150   2.635  22.727   9.648 -0.1291  0.2049 -0.3064
63057W        W 6151   1.770  22.511   6.871  0.1133 -0.0337 -0.0437
63058W        W 6152   0.351  22.943   8.887 -0.0386 -0.0668 -0.0345
63059W        W 6153   0.049  25.638   6.647 -0.2733  0.1550  0.0993
63060W        W 6154   2.538  22.670  10.230  0.1450 -0.6047 -0.1076
63061W        W 6155   3.568  25.153   9.099 -0.0903  0.3939 -0.0385
63062W        W 6156  34.350  21.724   9.545  0.3608  0.1352  0.3657
63063W        W 6157  34.554  24.026   7.568 -0.1587  0.2115  0.1498
63064W        W 6158   1.879  25.976   9.368 -0.0963  0.2761  0.0355
63065W        W 6159  33.952  24.403   9.911  0.2279 -0.1596 -0.4820
63066W        W 6160   1.259  22.088   7.420 -0.1960 -0.1298  0.1479
63067W        W 6161   3.088  25.527   8.208  0.0161  0.0174  0.3455
63068W        W 6162   1.279  25.002   7.745  0.1184 -0.0745  0.1945
63069W        W 6163   1.683  19.393   9.778 -0.0604  0.3995 -0.2249
63070W        W 6164   2.952  23.604  10.007 -0.0648  0.4510  0.0131
63071W        W 6165  33.626  22.358   7.610 -0.0702  0.1433  0.1321
63072W        W 6166   2.041  25.751   8.820 -0.1370 -0.5314 -0.0163
63073W        W 6167   1.058  25.335   7.329 -0.0073  0.0196  0.0475
63074W        W 6168  33.504  22.244   8.456  0.2159  0.0085  0.1660
63075W        W 6169   1.257  25.882   8.266 -0.0851  0.0362 -0.2434
63076W        W 6170   3.907  22.259  10.037  0.0720 -0.2531  0.2067
63077W        W 6171   0.278  23.658   8.161  0.0403  0.1006 -0.2203
63078W        W 6172   3.141  22.167   7.762 -0.0081  0.5368  0.1118
63079W        W 6173   3.345  22.257   8.263 -0.0206 -0.0180 -0.1590
63080W        W 6174   1.505  24.633   8.297  0.1927 -0.1773 -0.1688
63081W        W 6175   1.642  23.648   5.945 -0.0611 -0.2471  0.1375
63082W        W 6176   2.691  22.241   7.337 -0.5945  0.0002  0.0447
63083W        W 6177   0.642  23.660   8.463  0.1998 -0.0313 -0.1387
63084W        W 6178   0.878  25.220   9.576 -0.1241  0.0216  0.0412
63085W        W 6179   1.313  23.011   7.298 -0.0838 -0.0122  0.1255
63086W        W 6180   2.876  25.383   7.726 -0.1421 -0.1167  0.1750
63087W        W 6181   0.509  24.126   9.295  0.1488 -0.3810 -0.1415
63088W        W 6182   3.835  25.584   9.273 -0.1692  0.1390  0.1801
63089W        W 6183   1.004  22.552  10.525 -0.2328 -0.2840  0.2052
63090W        W 6184   0.911  22.245   7.016  0.0742  0.0107  0.1087
63091W        W 6185   3.210  21.751   8.157  0.1374  0.1867 -0.2205
63092W        W 6186   0.287  24.588   7.747 -0.0056 -0.0385 -0.1918
63093W        W 6187   3.140  22.619   9.603 -0.2627  0.2115 -0.3442
63094W        W 6188   5.280  23.038   9.283 -0.2115 -0.0872 -0.6314
63095W        W 6189   3.203  23.029   7.319 -0.0429 -0.0064  0.1913
63096W        W 6190   2.600  23.183  10.202 -0.0887  0.0816 -0.0250
63097W        W 6191   0.675  24.034   7.491 -0.1586  0.2006  0.4092
63098W        W 6192   3.822  22.487   9.606 -0.1264 -0.0385 -0.2869
63099W        W 6193   0.910  27.096  12.115  0.0772 -0.2148  0.1186
63100W        W 6194   2.705  24.555   8.364 -0.0684  0.1537 -0.1293
63101W        W 6195   1.726  22.667   8.625  0.2910 -0.1012 -0.0470
63102W        W 6196   1.149  25.379   8.372  0.0862 -0.0070 -0.1810
63103W        W 6197   0.254  24.249   7.327 -0.0509 -0.1195  0.1544
63104W        W 6198   0.820  19.786   9.834  0.0384 -0.0969 -0.2526
63105W        W 6199   2.121  23.860   8.625 -0.3121  0.0337  0.1595
63106W        W 6200   2.027  23.983   6.161  0.1770  0.0376 -0.2046
63107W        W 6201   3.897  24.436   8.174 -0.0460 -0.2743 -0.1324
63108W        W 6202   1.220  26.289   7.932  0.0055 -0.0807  0.1508
63109W        W 6203   5.876  22.397   9.841  0.1799  0.1031  0.0056
63110W        W 6204  34.271  24.882   9.030 -0.0242  0.1386 -0.1724
63111W        W 6205   0.769  23.582   7.608 -0.0922  0.0370  0.2728
63112W        W 6206   0.250  23.941   8.643 -0.1783 -0.0169 -0.3559
63113W        W 6207   3.738  22.276   9.055 -0.1805 -0.3849  0.1084
63114W        W 6208   2.820  24.655   8.965 -0.1515 -0.0127  0.0283
63115W        W 6209   1.271  23.179   9.778  0.1515  0.1725  0.1278
63116W        W 6210   1.961  21.412   9.540 -0.0843  0.0162 -0.0336
63117W        W 6211  34.411  24.912   9.592  0.0874  0.1212 -0.1166
63118W        W 6212   1.834  23.037   6.455 -0.1899  0.1364  0.0671
63119W        W 6213  33.891  23.476   7.364  0.1898  0.3785  0.0711
63120W        W 6214   5.183  21.915   9.928  0.1298 -0.0969  0.0615
63121W        W 6215   2.169  22.916   9.531  0.0805  0.0225 -0.2306
63122W        W 6216   0.185  24.882   8.281 -0.4041  0.2381 -0.0302
63123W        W 6217   2.663  25.139   9.026 -0.0878 -0.3625  0.1680
63124W        W 6218   0.115  22.859   7.777  0.1954  0.0491 -0.1433
63125W        W 6219   0.596  24.644   9.634 -0.1730  0.0227  0.3213
63126W        W 6220   2.943  23.385   9.236  0.1550 -0.1280  0.2441
63127W        W 6221   1.115  24.608   9.597  0.1361 -0.2097  0.1697
63128W        W 6222   2.495  24.082   9.955  0.2679  0.0734  0.2195
63129W        W 6223   1.509  24.332   9.819  0.0449 -0.3225 -0.2132
63130W        W 6224   2.616  23.328   7.740 -0.0837 -0.1461 -0.1231
63131W        W 6225   1.753  23.166   9.718 -0.0326 -0.1555 -0.0879
63132W        W 6226   2.450  22.165   9.038 -0.5133  0.0745  0.2820
63133W        W 6227   2.261  23.794   8.119  0.0066  0.1169 -0.4134
63134W        W 6228   1.105  24.904   8.164  0.0070 -0.1008  0.0366
63135W        W 6229  32.912  22.693   9.836 -0.0656 -0.1666  0.3252
63136W        W 6230   0.803  25.678   8.421  0.1472 -0.4108 -0.3812
63137W        W 6231   3.576  19.617   9.891 -0.2658 -0.1608 -0.2938
63138W        W 6232   0.853  25.334   8.818  0.2855 -0.2043 -0.0975
63139W        W 6233  34.452  24.840   7.994 -0.0072  0.1216 -0.0734
63140W        W 6234  34.281  24.153   9.329 -0.0337  0.3889 -0.5372
63141W        W 6235   3.376  21.683   7.609  0.2697  0.3489 -0.2328
63142W        W 6236   1.640  24.733   7.445 -0.0116  0.0136  0.4524
63143W        W 6237   2.228  23.117   7.482  0.0984 -0.1001 -0.0171
63144W        W 6238   1.775  24.063   6.744 -0.0813  0.0674 -0.1542
63145W        W 6239   3.061  19.932  10.235 -0.1404 -0.1102 -0.0065
63146W        W 6240   3.474  24.566   9.891  0.2855  0.0367 -0.1671
63147W        W 6241   2.642  22.663   9.161  0.1352 -0.1370  0.1986
63148W        W 6242   1.024  22.087   8.532  0.2474  0.3785  0.2455
63149W        W 6243   1.564  23.783   9.844 -0.0330 -0.3844  0.2114
63150W        W 6244   3.170  24.864   9.449  0.0868 -0.5845  0.0453
63151W        W 6245   2.310  25.019   8.266 -0.1206 -0.3576  0.0010
63152W        W 6246   3.349  23.531   8.957 -0.4195  0.0756  0.0764
63153W        W 6247   1.273  24.166   8.112 -0.0153 -0.1236  0.1536
63154W        W 6248   2.630  23.148   8.915 -0.0657 -0.4257  0.1836
63155W        W 6249   1.668  25.663   7.214  0.1691  0.0172 -0.1153
63156W        W 6250   0.543  24.924   8.682 -0.3542 -0.2997 -0.0156
63157W        W 6251   3.388  24.112   8.856  0.0511  0.1534  0.3093
63158W        W 6252   3.168  22.384   9.167  0.1362 -0.1281  0.1307
63159W        W 6253   1.760  25.080   8.209  0.4287 -0.0975 -0.1053
63160W        W 6254   4.375  22.506   7.163 -0.0897  0.3795 -0.1291
63161W        W 6255   3.582  23.063   8.903 -0.0478 -0.2502 -0.0571
63162W        W 6256   3.921  23.404   8.079 -0.1141  0.0974  0.1624
63163W        W 6257   1.481  23.420   8.058  0.2568 -0.0492  0.1000
63164W        W 6258   0.790  22.730   8.632 -0.1577  0.2114  0.0774
63165W        W 6259   1.337  22.538   7.179  0.1727 -0.0331 -0.1369
63166W        W 6260   1.822  24.620   7.927  0.2852 -0.0898  0.4696
63167W        W 6261   1.994  22.759   9.985  0.0034 -0.0847 -0.0326
63168W        W 6262   3.685  23.691   7.131  0.0723 -0.0178 -0.0344
63169W        W 6263  34.655  22.091   7.695 -0.0794 -0.3346  0.4002
63170W        W 6264   1.350  22.114   6.861  0.0912 -0.1232 -0.3112
63171W        W 6265   1.131  23.963   7.678 -0.0946  0.1717 -0.0074
63172W        W 6266   1.093  25.628   9.227  0.1461 -0.0416 -0.0395
63173W        W 6267   1.656  23.141   7.617  0.4142  0.1211 -0.1930
63174W        W 6268   0.654  24.703   8.186 -0.5883  0.0726 -0.1344
63175W        W 6269   2.330  21.889   9.584  0.2182 -0.0567  0.4098
63176W        W 6270   1.661  25.250   9.224 -0.0034 -0.1247  0.0152
63177W        W 6271   2.607  26.259   9.177  0.2639  0.2038 -0.2004
63178W        W 6272   1.963  20.466   9.919  0.3493  0.1013  0.2675
63179W        W 6273   2.527  23.243   9.398  0.0684 -0.1289  0.1472
63180W        W 6274   1.513  23.143  10.237 -0.0933  0.0794 -0.2787
63181W        W 6275   1.507  24.147   8.826  0.0733 -0.1337 -0.3532
63182W        W 6276   4.903  24.139   8.963  0.2016  0.0439 -0.4881
63183W        W 6277   0.062  23.444   9.395 -0.1545 -0.0456 -0.1610
63184W        W 6278   1.379  25.320   8.846 -0.0783 -0.1145  0.0510
63185W        W 6279   1.810  22.477   8.210 -0.0275 -0.0136 -0.3856
63186W        W 6280   2.023  24.575   7.012  0.2719 -0.5563 -0.3874
63187W        W 6281  34.398  22.894  10.258 -0.0841  0.2869  0.0274
63188W        W 6282  34.259  25.425   7.092 -0.0665 -0.2396 -0.0151
63189W        W 6283   2.948  23.695   7.837  0.1535 -0.3658  0.1199
63190W        W 6284   2.454  23.847   7.671 -0.0306  0.1050 -0.0198
63191W        W 6285   2.730  24.899   7.866 -0.1048  0.1198 -0.0345
63192W        W 6286   1.615  23.229   8.680 -0.1550 -0.0854 -0.0917
63193W        W 6287   0.603  25.916   8.752 -0.0140  0.1078 -0.0605
63194W        W 6288   0.445  25.276   6.691  0.1747 -0.2173  0.1643
63195W        W 6289   2.632  23.936   8.473  0.0959 -0.0612  0.0204
63196W        W 6290   1.155  25.791   8.766 -0.2539 -0.2510  0.0621
63197W        W 6291   4.134  22.019   8.139 -0.2260 -0.0115 -0.0214
63198W        W 6292   2.773  24.457   9.398 -0.0889 -0.0626  0.1552
63199W        W 6293   4.237  23.177   7.639  0.0786 -0.0310  0.1099
63200W        W 6294   3.558  22.972   9.835 -0.1552  0.2224  0.0653
63201W        W 6295   2.106  22.995   7.005 -0.0460 -0.2573 -0.0245
63202W        W 6296   3.394  25.769   8.557  0.0796  0.1646  0.2437
63203W        W 6297  34.129  22.265   7.368 -0.0615 -0.0368  0.0069
63204W        W 6298   2.017  23.689   9.651 -0.0687 -0.1218 -0.1480
63205W        W 6299   5.379  21.315   9.885  0.1491 -0.0591  0.1388
63206W        W 6300   0.825  24.076   6.509  0.0378 -0.0604 -0.2007
63207W        W 6301   4.497  23.007  10.200  0.1564  0.4260 -0.3057
63208W        W 6302   1.961  24.656   8.436 -0.1791 -0.0963  0.0152
63209W        W 6303   0.008  25.018   9.202  0.3970 -0.1098  0.3140
63210W        W 6304   3.900  21.184  12.625  0.0525  0.0797  0.0139
63211W        W 6305   0.404  22.746   9.384 -0.0600  0.0625  0.0822
63212W        W 6306   3.973  22.703   8.737  0.2146 -0.1487  0.1334
63213W        W 6307   1.595  24.079   9.360 -0.2242 -0.1186 -0.2330
63214W        W 6308   0.465  23.054   7.406  0.1147  0.0882  0.0304
63215W        W 6309   3.484  23.359   8.444 -0.0091  0.1938 -0.1489
63216W        W 6310  32.984  23.305   9.374  0.2217  0.0134 -0.2479
63217W        W 6311   0.987  24.173   9.101 -0.2865 -0.3687  0.2796
63218W        W 6312   1.309  23.381   6.951  0.0663 -0.1119  0.1353
63219W        W 6313   2.122  24.075   7.225 -0.0041  0.1677  0.2771
63220W        W 6314   1.872  22.887   9.058  0.0217  0.1298  0.0093
63221W        W 6315   3.116  23.134   8.731 -0.0159 -0.2008 -0.0144
63222W        W 6316   0.285  23.975   7.776 -0.3547 -0.1610 -0.1724
63223W        W 6317   0.201  22.342   9.532  0.1732  0.1015 -0.3499
63224W        W 6318   1.277  22.530   8.348  0.1805 -0.0937  0.3110
63225W        W 6319   2.697  24.476   7.658  0.0968 -0.2758  0.2940
63226W        W 6320   4.555  22.995   9.662 -0.1571 -0.0312  0.0012
63227W        W 6321   1.242  26.525   8.519  0.0550 -0.3764  0.1923
63228W        W 6322   1.783  24.133   8.286  0.0520 -0.1009  0.2385
63229W        W 6323   3.904  24.378   9.652 -0.1022  0.0715  0.0796
63230W        W 6324   0.543  23.254   9.222  0.1117 -0.1542 -0.2277
63231W        W 6325   1.612  24.774   9.549  0.2622  0.0293 -0.0678
63232W        W 6326   3.852  23.612   7.637 -0.2422  0.0859 -0.0269
63233W        W 6327   2.932  22.627   8.751 -0.1390  0.0215 -0.1279
63234W        W 6328   0.749  23.720   8.967 -0.0963  0.0377  0.4452
63235W        W 6329   0.080  25.067   7.626  0.2864 -0.0815 -0.1315
63236W        W 6330   4.806  22.113   8.789 -0.2693 -0.3788  0.0398
63237W        W 6331   0.587  25.101   6.275  0.1699 -0.1406 -0.0969
63238W        W 6332   1.467  24.586   9.106 -0.1553  0.3212  0.0138
63239W        W 6333   0.730  23.993   8.093 -0.1609  0.1299  0.1368
63240W        W 6334   0.712  26.235   8.301  0.0451 -0.3962  0.0276
63241W        W 6335   0.933  25.410   7.857  0.1602 -0.0075 -0.2905
63242W        W 6336   3.417  23.900   9.329  0.0126  0.0116  0.2543
63243W        W 6337   1.946  23.703   7.556  0.3875  0.2667  0.1368
63244W        W 6338   4.065  25.131   9.300  0.2757 -0.1161 -0.0514
63245W        W 6339   2.704  21.872   9.850  0.1024  0.0043  0.1219
63246W        W 6340   3.628  22.660   8.354  0.0202  0.1128  0.0054
63247W        W 6341   3.396  22.630   8.774  0.0246  0.0707  0.0616
63248W        W 6342  33.608  23.993  10.046 -0.0135 -0.0294 -0.2140
63249W        W 6343  34.366  24.662   6.819  0.0816 -0.0447 -0.2292
63250W        W 6344   0.606  24.991   7.773  0.0283 -0.0006  0.0208
63251W        W 6345   0.973  23.449   9.389 -0.2392  0.0326  0.1816
63252W        W 6346   1.403  23.021   9.182 -0.0173  0.1793  0.1417
63253W        W 6347   0.106  22.433   8.087  0.1523  0.1582  0.4076
63254W        W 6348   4.229  24.698   9.447 -0.0585 -0.2609  0.2420
63255W        W 6349   2.428  21.383   9.441  0.0865 -0.2623  0.0214
63256W        W 6350  34.168  22.436   9.163 -0.1537 -0.1116  0.3226
63257W        W 6351   2.926  24.555   9.956 -0.2005  0.0032  0.0608
63258W        W 6352   3.560  24.501   7.859 -0.0032 -0.0528  0.0326
63259W        W 6353   2.672  22.088   7.912  0.1475 -0.0829 -0.2705
63260W        W 6354  34.160  23.993   6.808 -0.1757  0.1490  0.1755
63261W        W 6355   0.237  22.812   6.676 -0.1201 -0.1169 -0.2857
63262W        W 6356   2.558  23.668   9.684 -0.0723 -0.0130  0.0664
63263W        W 6357   3.044  25.342   9.425 -0.0454  0.0359  0.1535
63264W        W 6358   3.052  24.496   8.001  0.1056  0.0154  0.0685
63265W        W 6359   0.474  20.076   9.470  0.5225  0.0951  0.0905
63266W        W 6360   1.047  23.644   8.122  0.0253 -0.0254  0.2063
63267W        W 6361   4.098  25.539   8.220 -0.1489  0.2180 -0.1289
63268W        W 6362   4.797  22.455   9.845  0.0137  0.0229 -0.2040
63269W        W 6363   3.417  23.536   7.921 -0.1519  0.1492 -0.1798
63270W        W 6364   2.898  23.133   9.662  0.2789 -0.1069  0.4067
63271W        W 6365   1.738  23.675   8.936 -0.1740  0.1309 -0.1010
63272W        W 6366   2.916  22.075   8.883  0.1664  0.2620 -0.0637
63273W        W 6367   2.151  26.278   8.007  0.0710  0.2584 -0.0750
63274W        W 6368   3.401  22.171   9.816  0.2409  0.2744 -0.2274
63275W        W 6369   1.713  22.700   9.525 -0.3818 -0.0387 -0.1498
63276W        W 6370   2.108  23.922   9.147  0.0416  0.0651  0.0712
63277W        W 6371   0.554  22.649   7.947  0.1483 -0.0055 -0.2313
63278W        W 6372   2.116  25.517   7.366 -0.2759  0.0426  0.1696
63279W        W 6373   1.988  24.166   9.871  0.2133  0.0472 -0.0279
63280W        W 6374   2.157  25.288   9.137 -0.0290  0.1225  0.0009
63281W        W 6375   2.976  23.807   8.819  0.1035  0.0735 -0.1870
63282W        W 6376  34.117  23.937   9.999 -0.2407  0.3347 -0.1488
63283W        W 6377  34.634  23.215   8.071  0.2039  0.1883 -0.0095
63284W        W 6378   2.016  23.331   9.287  0.0884  0.2106  0.1352
63285W        W 6379   3.378  24.595   8.956  0.1479 -0.5072 -0.2692
63286W        W 6380   3.255  23.567   9.637  0.2266  0.0149 -0.3091
63287W        W 6381   1.327  23.550   7.550  0.0268 -0.1573 -0.0763
63288W        W 6382   0.672  24.206   8.759  0.4468 -0.1679  0.1252
63289W        W 6383   0.338  25.067   9.601 -0.0649  0.0785 -0.1336
63290W        W 6384   1.371  27.633   2.819  0.2051  0.1292 -0.0403
63291W        W 6385   1.397  26.075   1.720 -0.2215 -0.0316 -0.2825
63292W        W 6386   1.944  26.636  31.465  0.3025 -0.2437 -0.1583
63293W        W 6387   2.708  26.317   1.361  0.2409  0.1150 -0.1990
63294W        W 6388  33.598  26.558   1.270 -0.1250  0.0627  0.3272
63295W        W 6389   2.307  28.432   1.483  0.2750 -0.0311  0.1504
63296W        W 6390   0.323  26.698   2.623  0.0826 -0.1679 -0.2637
63297W        W 6391   2.784  28.294   0.357  0.2937 -0.0946 -0.4001
63298W        W 6392   4.290  28.641   2.011 -0.0607 -0.0976 -0.0878
63299W        W 6393   1.181  27.071  31.881  0.0299 -0.0556 -0.2180
63300W        W 6394   3.240  25.097   1.964  0.0701  0.0039 -0.0048
63301W        W 6395   0.644  28.498   3.119 -0.1173  0.0368  0.0019
63302W        W 6396  34.483  25.440   1.008  0.0285  0.0968 -0.2078
63303W        W 6397  33.904  25.502   0.845  0.1106  0.0102 -0.4537
63304W        W 6398   2.407  28.411   3.001  0.1618  0.0285 -0.2498
63305W        W 6399  33.857  28.668   1.659  0.0147  0.1374 -0.1732
63306W        W 6400   0.625  28.039   2.740  0.0958 -0.1172  0.2786
63307W        W 6401   2.425  27.089   1.696 -0.0789  0.2136 -0.0362
63308W        W 6402   2.548  29.211   1.782  0.2169 -0.0898  0.0305
63309W        W 6403   1.249  25.963   2.661  0.0814  0.0597  0.1668
63310W        W 6404   1.239  25.097   3.238  0.2751  0.2849 -0.0169
63311W        W 6405   2.826  26.963  31.871  0.1389  0.1625 -0.0330
63312W        W 6406  34.318  28.472   0.512 -0.0175  0.4641 -0.3261
63313W        W 6407   0.345  27.825   1.494  0.4806 -0.3206 -0.3343
63314W        W 6408   0.009  27.379   2.034  0.1604  0.1883 -0.0782
63315W        W 6409   2.517  25.532   1.644  0.0901  0.1626 -0.0226
63316W        W 6410   1.964  26.627   1.176 -0.1517 -0.0742 -0.1950
63317W        W 6411   1.637  28.121   2.231 -0.0473  0.2727 -0.0901
63318W        W 6412   3.686  30.147   1.394 -0.1032  0.0408 -0.1635
63319W        W 6413   2.187  26.910   2.621 -0.0573  0.3226  0.2517
63320W        W 6414  34.072  28.915   0.290 -0.0375  0.3736  0.1549
63321W        W 6415  34.256  28.981   1.823  0.1574  0.1792 -0.0464
63322W        W 6416   1.480  28.927   0.554  0.0109 -0.0021 -0.1233
63323W        W 6417   3.103  29.108   1.233  0.1875  0.1389  0.2491
63324W        W 6418   3.150  29.577   3.042  0.1005  0.2427 -0.2975
63325W        W 6419   2.138  27.444   2.608 -0.0038  0.0112  0.0514
63326W        W 6420   0.068  29.996   0.963  0.1432  0.0398  0.1043
63327W        W 6421   3.210  28.193   2.543 -0.1828 -0.2199 -0.0325
63328W        W 6422   0.704  29.441   3.150  0.0173 -0.1886 -0.0078
63329W        W 6423   2.714  25.933   2.283 -0.0491  0.0190  0.2114
63330W        W 6424   2.497  27.907   0.614 -0.2014 -0.1429  0.3333
63331W        W 6425   1.441  28.200   0.048  0.1294  0.1864  0.0363
63332W        W 6426   3.764  28.479   1.725 -0.0755 -0.0983  0.2759
63333W        W 6427   1.098  28.223   3.025  0.0272 -0.0694 -0.2118
63334W        W 6428   0.166  28.252   1.107 -0.0913 -0.0245  0.1666
63335W        W 6429   2.386  26.952   3.211 -0.1840  0.0388 -0.1300
63336W        W 6430   0.982  28.746   0.742 -0.0220  0.0011  0.0865
63337W        W 6431   4.523  28.661   0.293  0.2094  0.0218  0.1084
63338W        W 6432   2.052  24.702  31.417  0.2569 -0.3363  0.0401
63339W        W 6433   2.390  26.311  31.513  0.1674  0.3917 -0.1004
63340W        W 6434   0.794  25.657   1.561  0.1098 -0.0033  0.1747
63341W        W 6435   0.730  29.791   1.214  0.2095 -0.0727 -0.0268
63342W        W 6436   2.007  26.200   3.232 -0.0709  0.3231 -0.0194
63343W        W 6437   2.090  28.343   2.225 -0.1581 -0.1942  0.4262
63344W        W 6438   3.326  26.146  31.818  0.1527 -0.3694  0.1685
63345W        W 6439   1.745  26.246   2.778 -0.4487  0.0391  0.0125
63346W        W 6440   2.126  28.838   2.095  0.0038 -0.0775 -0.0107
63347W        W 6441   1.296  26.266   2.194  0.0226 -0.2026 -0.0924
63348W        W 6442   2.908  27.776   0.386  0.2024 -0.1588  0.0793
63349W        W 6443   3.286  28.634   1.928 -0.1890  0.0590 -0.0392
63350W        W 6444   1.434  27.602  31.297  0.3056  0.1114  0.1306
63351W        W 6445   1.193  27.152   0.981 -0.0403 -0.1793  0.1613
63352W        W 6446   0.259  29.397   3.387 -0.0276  0.2362 -0.0156
63353W        W 6447  33.443  27.828   2.323 -0.1494  0.0822  0.2682
63354W        W 6448   0.427  24.808   0.030 -0.0146 -0.0877  0.1504
63355W        W 6449   5.550  29.464   3.388  0.1491 -0.2105  0.0633
63356W        W 6450  33.136  27.997   1.861  0.0893  0.0308  0.0109
63357W        W 6451   4.263  26.427   1.956  0.1057  0.0994  0.1030
63358W        W 6452   1.809  27.755   1.117  0.1168  0.1841 -0.0149
63359W        W 6453   2.473  29.827   2.950  0.0307 -0.0490  0.0775
63360W        W 6454   0.646  27.994  30.726 -0.0386  0.0100 -0.1114
63361W        W 6455   2.084  26.409   0.731 -0.1706  0.1747  0.1059
63362W        W 6456   2.167  25.289   1.337 -0.0788  0.0380  0.2050
63363W        W 6457   0.388  28.478  31.278 -0.1539 -0.2305  0.3883
63364W        W 6458   0.606  27.834   0.378  0.0471  0.3593  0.0038
63365W        W 6459   3.933  28.470   2.473 -0.0677 -0.2653 -0.0145
63366W        W 6460   2.164  26.436   0.092  0.0160  0.0279  0.0821
63367W        W 6461   0.467  28.652   1.509  0.4120  0.0679 -0.0608
63368W        W 6462   0.617  26.550   3.565 -0.0528  0.1705 -0.0554
63369W        W 6463   1.503  27.730   4.503  0.2669  0.1128 -0.1579
63370W        W 6464   0.544  29.739  31.825 -0.1348  0.1103  0.4719
63371W        W 6465  34.336  29.964   1.801  0.1209 -0.0566 -0.0809
63372W        W 6466   0.651  28.318  31.705 -0.2554  0.1289  0.1414
63373W        W 6467  34.344  27.086   1.445 -0.3010 -0.0525 -0.1275
63374W        W 6468   2.244  26.731   2.083 -0.1923  0.1854 -0.0172
63375W        W 6469   4.092  24.812   0.936 -0.1665  0.1700 -0.0532
63376W        W 6470   1.805  27.829   2.729 -0.0020 -0.0552  0.0746
63377W        W 6471   3.391  26.139   2.925 -0.4014 -0.1822 -0.0750
63378W        W 6472   0.587  28.253   1.839 -0.1831 -0.0308 -0.2222
63379W        W 6473   3.327  29.567   0.271 -0.0256 -0.1083  0.0587
63380W        W 6474   1.385  26.428   1.204 -0.2725 -0.1872  0.1706
63381W        W 6475   1.968  27.654   0.056  0.0436 -0.1298  0.1935
63382W        W 6476   0.105  27.134   2.521  0.2623  0.1990 -0.3055
63383W        W 6477  34.320  26.109   1.554  0.1220  0.0841 -0.0232
63384W        W 6478   0.238  26.649   4.501 -0.0702  0.1746 -0.2755
63385W        W 6479  34.366  27.710   2.247  0.2587 -0.2193  0.3127
63386W        W 6480   2.889  27.525   1.829 -0.0414  0.0382 -0.1083
63387W        W 6481  34.677  26.363   1.015 -0.0736 -0.0461  0.1560
63388W        W 6482   3.142  24.857   0.803 -0.2946  0.3641  0.1747
63389W        W 6483   1.697  27.447   1.860  0.1719 -0.1816 -0.0823
63390W        W 6484  34.337  27.975   0.468 -0.4447  0.2542 -0.0369
63391W        W 6485   2.841  26.799   2.215  0.0213 -0.2395  0.0575
63392W        W 6486   2.476  28.654   0.066  0.2659  0.0251 -0.2681
63393W        W 6487   4.082  28.170   1.995  0.3248  0.2743  0.0850
63394W        W 6488   3.221  28.538  31.741 -0.0995 -0.2168 -0.0384
63395W        W 6489   1.559  27.605   3.632 -0.1073  0.2592  0.0685
63396W        W 6490   0.557  26.474   1.720  0.1377  0.2395  0.4147
63397W        W 6491  34.677  28.735   1.826  0.1430 -0.1012 -0.0627
63398W        W 6492   1.995  27.169   2.083  0.2281 -0.2130 -0.0573
63399W        W 6493   0.333  26.385   2.215  0.0334  0.0748  0.0461
63400W        W 6494   3.266  28.646   1.371  0.0523  0.2532  0.0726
63401W        W 6495   3.538  28.421   0.959 -0.2314 -0.1173  0.0264
63402W        W 6496   1.561  28.827   1.889 -0.1501  0.2216 -0.0929
63403W        W 6497   2.313  25.094   2.218 -0.2935 -0.2074  0.0704
63404W        W 6498   1.845  28.866   3.049 -0.1760  0.1719 -0.3352
63405W        W 6499   1.950  25.850   1.600 -0.1328  0.3992 -0.1608
63406W        W 6500   0.860  26.132  29.923  0.0028  0.0666  0.1911
63407W        W 6501   2.593  28.287   0.937  0.0091  0.0923  0.0340
63408W        W 6502  34.346  28.357   0.980  0.1563 -0.1336  0.0038
63409W        W 6503   0.126  28.299   1.597  0.2091  0.1899 -0.1349
63410W        W 6504   2.366  27.539   1.895  0.3066  0.0823  0.1739
63411W        W 6505   3.202  26.078   1.248  0.2094 -0.1985 -0.1515
63412W        W 6506   0.422  27.481   2.264  0.2084 -0.1368  0.0515
63413W        W 6507   2.861  27.685   2.328  0.4184 -0.4599  0.1238
63414W        W 6508  34.324  27.114  31.498  0.0645 -0.0982 -0.1458
63415W        W 6509   1.269  28.442   2.182  0.1386 -0.2076  0.0964
63416W        W 6510   1.796  25.518   1.004  0.1472  0.1063 -0.1155
63417W        W 6511   3.068  25.324   1.552  0.0741  0.1398 -0.4055
63418W        W 6512   2.812  26.865   3.482  0.2040  0.3312 -0.1894
63419W        W 6513   3.457  28.933   0.915 -0.2586 -0.0121  0.0485
63420W        W 6514   3.723  25.658   1.538 -0.2227 -0.1100  0.0135
63421W        W 6515   3.742  25.574   1.085  0.1091 -0.3267 -0.2009
63422W        W 6516   0.201  30.234   3.114 -0.1916  0.2342 -0.0016
63423W        W 6517   1.560  27.778   0.669  0.2181 -0.2498  0.1094
63424W        W 6518   1.408  27.653   2.199 -0.0280  0.0387  0.0486
63425W        W 6519   2.347  25.392  31.932  0.0118 -0.0022 -0.0765
63426W        W 6520   4.823  29.099   0.130  0.0319 -0.0521  0.3881
63427W        W 6521   1.041  27.995   1.975 -0.0885 -0.0305  0.1112
63428W        W 6522   3.735  28.944   2.604 -0.1155  0.4026 -0.2914
63429W        W 6523   1.665  25.220   1.619  0.3455  0.0554  0.0170
63430W        W 6524   0.801  26.574   0.446 -0.3229  0.1304  0.0729
63431W        W 6525   0.453  25.564   2.003  0.2420  0.0987 -0.0442
63432W        W 6526  33.863  28.701   0.773  0.0029  0.3619  0.2774
63433W        W 6527   3.003  25.669   2.684  0.5032 -0.0419  0.0362
63434W        W 6528   2.181  26.295   2.471  0.1682 -0.0087 -0.0530
63435W        W 6529   1.537  25.584   3.639  0.1832 -0.4254  0.2372
63436W        W 6530   2.457  27.188   2.215  0.0293  0.0269  0.1019
63437W        W 6531   1.627  26.250   0.137 -0.3194 -0.0513  0.0322
63438W        W 6532   1.648  27.947   1.645 -0.2851  0.0555  0.1153
63439W        W 6533  34.404  26.777   0.714 -0.2749  0.0883  0.1642
63440W        W 6534   2.433  25.919   3.242  0.1278  0.0998 -0.3109
63441W        W 6535  34.394  30.013   3.274 -0.5634  0.1148  0.2065
63442W        W 6536   0.727  28.982   2.371 -0.2219 -0.3089  0.2521
63443W        W 6537   4.541  28.845   3.173 -0.3141  0.1058 -0.0992
63444W        W 6538   3.461  27.480   1.758 -0.1838 -0.1136  0.2628
63445W        W 6539   2.014  26.719   3.529 -0.5587  0.1353  0.0222
63446W        W 6540   1.920  26.140  31.682 -0.1914  0.0261  0.0398
63447W        W 6541   1.861  29.014   0.962 -0.0845 -0.2325  0.2721
63448W        W 6542   1.028  26.725   1.318 -0.0351  0.2122 -0.2469
63449W        W 6543   0.075  25.971   1.910 -0.0189  0.0425 -0.5260
63450W        W 6544   2.415  28.628   2.484 -0.2512  0.0293  0.2787
63451W        W 6545   1.940  29.650   0.956 -0.1416 -0.0680 -0.0778
63452W        W 6546   2.692  28.090   3.146  0.1657 -0.1008 -0.0118
63453W        W 6547   0.593  28.792   1.023  0.0415 -0.1979 -0.0116
63454W        W 6548   4.004  25.636   1.978 -0.0267 -0.2595  0.1159
63455W        W 6549  34.432  31.176   1.433 -0.3125 -0.0594 -0.0314
63456W        W 6550   0.429  27.471   1.146  0.0747  0.1843 -0.0974
63457W        W 6551  33.974  27.137   1.075 -0.1457  0.0882  0.0925
63458W        W 6552   3.143  26.761   2.690  0.1140  0.1054  0.1085
63459W        W 6553   1.451  27.650   0.105  0.1907 -0.0651 -0.0172
63460W        W 6554   0.950  27.255   3.811  0.2339 -0.0219 -0.0057
63461W        W 6555   3.160  27.345   2.729 -0.0481  0.2039  0.3294
63462W        W 6556   0.888  29.588   2.251  0.2324 -0.0711  0.0164
63463W        W 6557   2.518  26.415   3.140  0.0700  0.1236  0.1252
63464W        W 6558   2.994  25.214   0.453 -0.0775 -0.0301 -0.0923
63465W        W 6559   4.611  28.996   1.748  0.0597 -0.0960  0.0648
63466W        W 6560   1.613  28.078   3.084  0.2111 -0.1838  0.3834
63467W        W 6561   0.204  27.166   0.816  0.0710  0.2934  0.1041
63468W        W 6562   3.251  26.944   1.855  0.3264 -0.2453  0.3430
63469W        W 6563   0.332  26.893   2.162  0.1068 -0.0424  0.1994
63470W        W 6564  33.572  27.781   1.852 -0.1596  0.2260 -0.0138
63471W        W 6565   2.853  29.518   1.539 -0.2080  0.3558  0.1251
63472W        W 6566   0.615  25.992   1.881  0.0237  0.1999  0.0736
63473W        W 6567  33.924  29.268   2.436  0.0832  0.1989 -0.1830
63474W        W 6568   1.563  26.502   3.888 -0.2303 -0.2578 -0.2739
63475W        W 6569   2.189  26.156   1.214  0.3009 -0.2116 -0.3081
63476W        W 6570   1.026  27.303   2.010 -0.0820 -0.3173  0.1703
63477W        W 6571   1.219  25.226   1.916 -0.3539 -0.0256 -0.1782
63478W        W 6572   1.578  26.822   0.909 -0.0776 -0.0425 -0.1962
63479W        W 6573   3.530  27.294   2.199  0.0199 -0.0908 -0.0650
63480W        W 6574   1.134  26.738   3.335 -0.0106 -0.0789  0.0885
63481W        W 6575   0.639  29.660   4.191 -0.2148 -0.0697  0.1387
63482W        W 6576   0.845  24.710   2.543 -0.0813  0.1683 -0.1108
63483W        W 6577   3.885  29.876   0.401 -0.1429  0.2409  0.3884
63484W        W 6578   3.698  28.065   2.682  0.0440 -0.1076  0.1755
63485W        W 6579   0.359  26.134   0.744 -0.0291 -0.1849  0.1205
63486W        W 6580  34.199  27.179   3.481 -0.0492 -0.1964 -0.0333
63487W        W 6581   1.725  27.208   0.263  0.0011  0.0666  0.1610
63488W        W 6582   1.549  26.357   0.675 -0.1240  0.1512 -0.1940
63489W        W 6583   1.892  28.367   1.186 -0.1695  0.0999  0.2256
63490W        W 6584   1.144  28.649   0.255  0.0264  0.0026 -0.0411
63491W        W 6585   0.102  28.118   0.622 -0.1175 -0.1648  0.0199
63492W        W 6586   3.272  26.544   1.526 -0.1664  0.0188  0.0477
63493W        W 6587   2.753  25.783   1.293  0.0258 -0.0585  0.0910
63494W        W 6588   1.287  26.466   2.855 -0.3517 -0.0740  0.4716
63495W        W 6589   4.399  25.763   3.312  0.0989 -0.1443 -0.0907
63496W        W 6590   2.571  26.636   0.545  0.0556 -0.0102 -0.0031
63497W        W 6591   3.721  25.233   1.905  0.2165  0.0008 -0.0585
63498W        W 6592   0.817  26.502   2.137 -0.0943  0.1126 -0.1287
63499W        W 6593   1.271  27.561   1.583  0.2770  0.3417 -0.2158
63500W        W 6594   0.075  27.306   1.415  0.0977 -0.2785 -0.2610
63501W        W 6595   3.069  29.506   4.189  0.0003  0.1558  0.0308
63502W        W 6596   0.864  27.591   2.511 -0.0788  0.2293  0.0342
63503W        W 6597   2.030  26.061   0.354  0.1026 -0.1314 -0.6022
63504W        W 6598   0.881  26.254   0.932  0.4267  0.1341  0.1493
63505W        W 6599   0.664  27.635   1.834 -0.1880 -0.1604 -0.0442
63506W        W 6600   2.768  27.826   1.009 -0.3215 -0.2049  0.1204
63507W        W 6601   1.843  28.123   0.396  0.0865 -0.0727 -0.3045
63508W        W 6602   3.487  27.951   1.046  0.1331  0.0323 -0.3213
63509W        W 6603   0.556  28.987   2.859  0.0623  0.0814 -0.1253
63510W        W 6604   1.321  26.870   0.416 -0.2104 -0.0269  0.0691
63511W        W 6605   0.965  26.175   1.439  0.1581 -0.1837  0.0581
63512W        W 6606  34.419  28.305   1.989  0.1158  0.1590 -0.1703
63513W        W 6607   0.745  27.709   3.143 -0.0359  0.1533  0.1254
63514W        W 6608   2.491  25.996   1.727 -0.3104  0.2761 -0.0081
63515W        W 6609   1.666  25.976   1.239  0.3353 -0.0453 -0.2283
63516W        W 6610   1.610  26.493   3.301 -0.0336 -0.1419  0.0476
63517W        W 6611   1.477  26.838   1.531  0.1659 -0.0578 -0.1502
63518W        W 6612   0.339  27.422   3.287 -0.0575 -0.0788  0.0869
63519W        W 6613  34.032  25.876   3.870  0.2064  0.0911 -0.2951
63520W        W 6614   2.394  28.235   3.534 -0.4946  0.0721  0.0544
63521W        W 6615   4.670  26.207   0.131 -0.1610  0.2288 -0.1005
63522W        W 6616   4.342  26.242   3.195  0.4741 -0.0448 -0.1208
63523W        W 6617   3.437  28.219   1.482 -0.0996 -0.0753 -0.1083
63524W        W 6618   0.838  27.736   1.391 -0.0682  0.1211 -0.1451
63525W        W 6619  34.156  26.603   2.711 -0.0381 -0.0191 -0.0661
63526W        W 6620   3.742  27.654   3.383 -0.1522 -0.1444 -0.2826
63527W        W 6621   1.532  25.408  31.792  0.3134  0.0970  0.4101
63528W        W 6622   1.180  25.797   1.141  0.1044  0.0808 -0.3007
63529W        W 6623   2.320  28.511  31.537  0.4845 -0.0038 -0.4124
63530W        W 6624   2.441  27.449   0.313 -0.1211  0.0092 -0.0658
63531W        W 6625   0.348  25.899   1.457 -0.1534  0.1452 -0.0109
63532W        W 6626  33.689  27.389   1.480  0.1267 -0.1237  0.0573
63533W        W 6627   0.879  30.114   1.825 -0.2323 -0.2213  0.2029
63534W        W 6628   0.762  26.423   2.647 -0.1247  0.1269 -0.1132
63535W        W 6629   2.035  26.100  31.173  0.0645 -0.1751  0.1744
63536W        W 6630   2.576  27.722   3.483  0.1417 -0.1112 -0.1462
63537W        W 6631   5.052  28.441   2.551 -0.1879  0.3533 -0.1140
63538W        W 6632   3.129  25.409  30.669 -0.2923  0.1251  0.1202
63539W        W 6633   4.776  25.890   4.160 -0.3170 -0.1264  0.3170
63540W        W 6634   0.957  28.674   1.780  0.0918 -0.4164  0.1656
63541W        W 6635   1.939  24.779  31.977  0.2265 -0.1459  0.0073
63542W        W 6636   1.133  28.605   4.031 -0.1774 -0.0252 -0.1181
63543W        W 6637  33.428  28.322   1.490  0.3202  0.3631 -0.0884
63544W        W 6638   1.643  29.052   1.432 -0.0756  0.0692 -0.1379
63545W        W 6639   2.595  26.085   2.763  0.1566  0.2316 -0.0031
63546W        W 6640   4.073  27.666   3.020 -0.1610  0.1859 -0.1215
63547W        W 6641   2.370  27.510  31.770 -0.3027 -0.1448  0.0420
63548W        W 6642   3.455  27.688   2.910  0.0611  0.0444  0.0311
63549W        W 6643   3.005  28.472   2.911 -0.1954 -0.3875  0.0976
63550W        W 6644   0.455  27.150   1.748  0.2618  0.0483  0.1583
63551W        W 6645   3.360  29.038   3.011  0.1980  0.0943 -0.0640
63552W        W 6646   2.840  27.134   0.378  0.0089  0.0297 -0.1603
63553W        W 6647  34.309  28.507   1.513  0.0213 -0.4338 -0.1417
63554W        W 6648  34.015  27.371   4.800  0.0211  0.4455 -0.3964
63555W        W 6649   2.824  27.224   3.852  0.0685 -0.2027  0.0210
63556W        W 6650   1.265  27.600   1.109  0.2129 -0.1567  0.4427
63557W        W 6651  34.595  26.009   2.568 -0.1881 -0.0286  0.1853
63558W        W 6652   0.669  27.220  31.010 -0.1192  0.0619  0.0585
63559W        W 6653   0.885  28.819   4.559  0.2411  0.1916  0.2202
63560W        W 6654   0.563  29.398   2.607 -0.0807  0.2506  0.1811
63561W        W 6655   0.849  29.329   1.126 -0.1794  0.1279  0.0661
63562W        W 6656   1.647  27.376  31.751  0.1732  0.1932 -0.1929
63563W        W 6657   2.569  26.105   0.450 -0.0219 -0.2074  0.1428
63564W        W 6658   1.619  29.209   2.685  0.2311 -0.0292 -0.1225
63565W        W 6659   1.517  25.886   0.781  0.0142  0.0792  0.2109
63566W        W 6660   0.760  28.495   2.198  0.0344 -0.1441  0.1398
63567W        W 6661   0.594  28.322   0.798 -0.0045 -0.1245 -0.0483
63568W        W 6662   3.281  29.056  31.865  0.1338 -0.2350 -0.1244
63569W        W 6663   2.265  27.979   1.299  0.1867 -0.0239 -0.0393
63570W        W 6664   4.782  27.191   2.860 -0.0227  0.1401 -0.1458
63571W        W 6665   1.872  25.190   0.208  0.0908  0.1035  0.0132
63572W        W 6666   3.916  27.421   1.558 -0.4419  0.1498  0.2053
63573W        W 6667   4.012  26.261   0.817 -0.0706  0.3666  0.1032
63574W        W 6668   3.449  28.243   4.541 -0.2296  0.1897 -0.0885
63575W        W 6669   1.340  25.420   2.389 -0.2592 -0.0641 -0.0143
63576W        W 6670   0.988  26.260  31.478  0.3827 -0.1786 -0.2067
63577W        W 6671   1.681  27.319   2.473 -0.2439 -0.1812  0.0786
63578W        W 6672   4.143  25.788   2.500  0.1774 -0.1789 -0.0424
63579W        W 6673  34.419  29.176   2.322 -0.2270  0.0470  0.0840
63580W        W 6674   3.997  28.953   0.841  0.0525  0.3767  0.0542
63581W        W 6675   0.903  27.203   1.439 -0.0478  0.1122  0.0914
63582W        W 6676   0.855  28.277   0.375  0.1628 -0.1172 -0.4660
63583W        W 6677   3.615  25.222   3.026  0.5186  0.1337  0.0672
63584W        W 6678   0.920  27.704  31.076  0.2402 -0.0067 -0.3021
63585W        W 6679   1.218  27.332   0.506 -0.0948 -0.3427 -0.0984
63586W        W 6680   0.699  29.606   1.666 -0.0275 -0.1544  0.6176
63587W        W 6681   1.975  27.684   2.198 -0.0146 -0.1226 -0.0174
63588W        W 6682   0.446  28.521   2.645  0.0501  0.0597  0.0331
63589W        W 6683  33.321  26.035   1.065 -0.0019 -0.1673 -0.1367
63590W        W 6684   3.921  26.678   2.496  0.1007  0.1992 -0.2525
63591W        W 6685   0.803  25.162   2.256 -0.3459 -0.2370 -0.0362
63592W        W 6686   3.214  25.964   2.248 -0.2334  0.0509 -0.0623
63593W        W 6687   0.779  26.985   2.283  0.1847 -0.0874 -0.0389
63594W        W 6688   3.422  26.542   0.795  0.2850  0.1270 -0.0167
63595W        W 6689   1.975  28.302   2.725  0.1254 -0.0450  0.2212
63596W        W 6690   0.587  27.987   2.254 -0.1190  0.2213 -0.1192
63597W        W 6691   0.526  26.430   1.206 -0.0194  0.1162  0.2421
63598W        W 6692   3.095  27.691   3.299  0.2261  0.1504  0.3075
63599W        W 6693   1.488  25.925  31.812  0.2602 -0.3151 -0.0340
63600W        W 6694   4.046  29.353   2.434 -0.2486  0.2465  0.1039
63601W        W 6695  34.348  26.582   1.380  0.2870 -0.0226  0.0084
63602W        W 6696   3.394  25.465   0.655 -0.2093 -0.1176  0.0216
63603W        W 6697   1.148  27.970   2.487 -0.0798  0.0256  0.0383
63604W        W 6698   1.236  26.774   2.413 -0.0452 -0.2441 -0.1484
63605W        W 6699   3.372  29.479   3.818 -0.0383  0.0581 -0.1012
63606W        W 6700  34.669  25.641   1.441  0.0199 -0.1609 -0.2471
63607W        W 6701   3.031  28.751  30.890  0.2706  0.0404  0.3028
63608W        W 6702   2.886  25.467   2.032 -0.0783  0.1619 -0.2119
63609W        W 6703   1.251  29.397   0.579  0.1276 -0.0569 -0.2691
63610W        W 6704   2.898  28.191   2.167  0.0210  0.1102 -0.0798
63611W        W 6705   3.218  28.989   2.536  0.0591  0.0070 -0.0905
63612W        W 6706   0.048  26.756   1.729 -0.2543  0.1646  0.2271
63613W        W 6707   1.865  29.716   2.348 -0.1072 -0.0667  0.1381
63614W        W 6708   4.575  26.857   1.970  0.2722  0.1646 -0.0932
63615W        W 6709   2.475  25.188   0.375  0.1211 -0.0184 -0.0634
63616W        W 6710   1.953  26.936   1.613  0.1964  0.0229 -0.4132
63617W        W 6711   1.438  30.423   0.880 -0.1212 -0.2266  0.2719
63618W        W 6712   2.130  26.255   1.885 -0.1770  0.3231 -0.0667
63619W        W 6713   3.016  25.944   1.709 -0.0953  0.0839 -0.0262
63620W        W 6714   0.911  27.927  31.882  0.2731  0.0609 -0.1727
63621W        W 6715   2.049  24.669   1.989 -0.1995  0.0470  0.0972
63622W        W 6716   2.726  28.990   2.697  0.3740 -0.1699 -0.0036
63623W        W 6717   1.502  28.728   3.749  0.0932  0.0134  0.0756
63624W        W 6718  34.175  29.041  31.795  0.1221  0.0777 -0.0603
63625W        W 6719   1.623  27.873   4.069  0.1649 -0.3000 -0.1438
63626W        W 6720   1.086  28.434   1.086  0.3091 -0.0912 -0.0645
63627W        W 6721   1.700  27.235   1.227  0.0214  0.0879  0.2951
63628W        W 6722   3.391  27.656   0.566  0.3362 -0.2323  0.0383
63629W        W 6723   1.580  26.717  31.845 -0.0053  0.1859 -0.0654
63630W        W 6724   3.586  29.337   1.290 -0.0093  0.3081 -0.0289
63631W        W 6725   0.809  25.960   2.326  0.0143  0.2231  0.1817
63632W        W 6726   4.369  25.678   1.122 -0.1989  0.0188  0.1063
63633W        W 6727   5.031  25.635   0.753  0.0519  0.1179 -0.1847
63634W        W 6728   1.018  28.918   3.119  0.0202 -0.2617 -0.0083
63635W        W 6729   0.007  27.724   1.129  0.3719  0.0389 -0.1595
63636W        W 6730   0.925  27.970   0.951 -0.0274 -0.0144 -0.1717
63637W        W 6731   1.101  28.119   1.492 -0.1084  0.1601  0.0230
63638W        W 6732   0.909  25.659   4.002 -0.0252  0.2647 -0.2555
63639W        W 6733   0.241  27.652   2.862  0.0632 -0.3741 -0.3068
63640W        W 6734   0.100  28.029   2.467  0.2238 -0.1968 -0.0568
63641W        W 6735   0.879  26.889   1.810  0.2394  0.3578  0.1999
63642W        W 6736   2.712  28.280  31.789 -0.0704  0.0963 -0.4569
63643W        W 6737   0.760  27.041   3.230  0.0652 -0.0112  0.2885
63644W        W 6738  33.431  25.183   1.100 -0.0461 -0.0817 -0.0350
63645W        W 6739   2.754  28.668   1.237  0.1736  0.1688  0.2142
63646W        W 6740   2.797  29.890  31.699 -0.0170  0.0823  0.2785
63647W        W 6741   1.166  26.513   1.721 -0.2837 -0.2800 -0.2139
63648W        W 6742   3.884  28.097   3.195  0.1750  0.0894 -0.1036
63649W        W 6743   0.310  29.129   0.144 -0.2075  0.0631 -0.0212
63650W        W 6744   1.070  28.146   4.930 -0.0470  0.0368  0.0217
63651W        W 6745   2.438  25.111   3.870  0.1302 -0.1009  0.0514
63652W        W 6746   0.828  26.095   0.458  0.4282  0.2132 -0.0485
63653W        W 6747   3.071  27.237   2.256  0.1932 -0.0993 -0.1629
63654W        W 6748   2.595  27.542   1.413 -0.0653 -0.2093 -0.0240
63655W        W 6749   2.899  29.907   0.305  0.1005 -0.1220  0.1545
63656W        W 6750   1.265  28.902   2.393  0.1340 -0.1570 -0.2346
63657W        W 6751   0.191  29.709   3.894  0.0270 -0.1592 -0.0708
63658W        W 6752  34.244  25.879   2.226 -0.1713  0.0268 -0.0887
63659W        W 6753   2.487  26.691   1.052 -0.1665 -0.0462  0.2597
63660W        W 6754   1.776  26.744   2.406  0.1300  0.1325 -0.1148
63661W        W 6755   2.408  26.839  31.654  0.0267  0.2503 -0.0414
63662W        W 6756   3.627  25.086   0.868 -0.0153 -0.1217  0.1485
63663W        W 6757   3.086  27.245   1.457  0.2619  0.2374 -0.0836
63664W        W 6758  34.010  26.043   2.692  0.4067  0.1234 -0.0843
63665W        W 6759   1.065  29.195   1.917  0.2091  0.2342 -0.1678
63666W        W 6760   3.814  27.703   2.002  0.0754  0.0436  0.0807
63667W        W 6761  34.149  25.051   1.851 -0.0847  0.0531  0.0140
63668W        W 6762   2.247  25.270   0.804 -0.0374  0.0871 -0.1104
63669W        W 6763   3.051  28.109  31.479 -0.1461  0.0902  0.0207
63670W        W 6764   1.819  26.345   1.514  0.3480  0.1663  0.3615
63671W        W 6765   2.911  26.054   0.097 -0.1018  0.0183  0.2049
63672W        W 6766   3.339  28.162   3.047  0.1117 -0.2078 -0.1869
63673W        W 6767   2.668  28.196   2.612 -0.1976  0.2467  0.2588
63674W        W 6768   2.543  28.555   1.935 -0.0003 -0.0597  0.0670
63675W        W 6769   0.850  27.471   0.108  0.0425 -0.5601  0.1661
63676W        W 6770   3.212  27.459   0.105  0.1005  0.0801  0.2590
63677W        W 6771   2.368  28.908   3.036  0.0593  0.1868  0.2714
63678W        W 6772   4.707  28.115   4.788 -0.1434  0.2068 -0.0291
63679W        W 6773   2.777  29.928   1.287 -0.2106 -0.1834  0.1526
63680W        W 6774   2.642  27.964   1.743  0.0546  0.1113 -0.2230
63681W        W 6775  34.628  26.446   2.899 -0.0958  0.0888 -0.1818
63682W        W 6776   0.645  27.004   1.016 -0.1498  0.0810 -0.1610
63683W        W 6777   0.667  28.207   1.315 -0.0754 -0.0515 -0.1083
63684W        W 6778   2.323  26.581   1.534 -0.1076 -0.0586 -0.1166
63685W        W 6779   1.113  25.777   1.995  0.1921  0.0047 -0.1823
63686W        W 6780   2.656  24.902   0.695  0.0595  0.0525 -0.1547
63687W        W 6781   1.053  29.415   3.978  0.1437  0.0181  0.0009
63688W        W 6782   2.187  27.174   1.159 -0.1003  0.1590 -0.0816
63689W        W 6783   2.565  27.219   6.441  0.0038 -0.2127  0.0279
63690W        W 6784  34.423  26.845   4.304 -0.0916  0.0918  0.2911
63691W        W 6785   1.632  26.527   1.921 -0.1301  0.2825 -0.2121
63692W        W 6786   2.773  27.659   4.315  0.3369 -0.1294 -0.0563
63693W        W 6787   0.599  26.787   4.061  0.1512  0.0945 -0.2072
63694W        W 6788   3.911  28.267   4.342 -0.3411  0.1881 -0.0405
63695W        W 6789   0.638  24.645   6.511  0.2068 -0.2642  0.0067
63696W        W 6790   2.336  27.582   4.558  0.0042  0.1972 -0.4759
63697W        W 6791   3.314  29.110   6.166 -0.1168  0.4250  0.2614
63698W        W 6792   3.636  26.493   4.713 -0.2666 -0.0211 -0.1964
63699W        W 6793   1.711  26.504   5.793 -0.1835 -0.1079 -0.0608
63700W        W 6794   1.639  27.839   5.019  0.4858 -0.2316  0.1645
63701W        W 6795   1.926  25.739   3.988  0.0919 -0.1980 -0.2119
63702W        W 6796   0.095  25.753   5.027  0.0883 -0.1912  0.1096
63703W        W 6797   2.674  26.552   5.411  0.0431  0.3429  0.1227
63704W        W 6798  34.589  27.550   4.790 -0.3510  0.2344 -0.1780
63705W        W 6799   0.519  28.172   5.023 -0.0563 -0.1078 -0.1389
63706W        W 6800   1.250  27.263   3.338  0.2048 -0.2844  0.1655
63707W        W 6801   3.012  28.243   4.815  0.0052  0.3212 -0.2677
63708W        W 6802   2.189  25.150   5.648  0.1590 -0.0320 -0.1236
63709W        W 6803   3.051  25.698   7.315  0.4189 -0.2935 -0.0378
63710W        W 6804   1.554  28.275   4.788  0.1990 -0.1799 -0.2347
63711W        W 6805  34.533  27.949   3.069  0.0540 -0.0081  0.0864
63712W        W 6806  34.645  26.480   5.622 -0.1499  0.2216 -0.0260
63713W        W 6807   2.160  27.278   6.140  0.2296  0.2968 -0.2125
63714W        W 6808   2.079  26.971   4.531 -0.1528 -0.2334 -0.0623
63715W        W 6809   3.841  28.076   5.934  0.1899 -0.5065  0.0187
63716W        W 6810   1.372  28.668   4.515 -0.0164 -0.1002 -0.0089
63717W        W 6811   3.626  27.653   3.884 -0.0805  0.0717 -0.0832
63718W        W 6812   2.980  25.996   6.007  0.0651  0.1540  0.0042
63719W        W 6813   0.214  27.175   4.710  0.0097 -0.0859 -0.3305
63720W        W 6814  33.809  28.701   4.967  0.0271 -0.0693 -0.0663
63721W        W 6815   1.090  30.188   4.076  0.1627 -0.1067 -0.2019
63722W        W 6816   4.211  28.565   5.143  0.0144 -0.0435 -0.0761
63723W        W 6817   3.172  28.063   7.162 -0.0514  0.3635  0.2575
63724W        W 6818   2.980  28.466   6.934  0.1927 -0.1466  0.1458
63725W        W 6819   1.047  28.072   3.944  0.2305  0.1017  0.1169
63726W        W 6820   2.156  29.877   6.708 -0.1779  0.0875 -0.3378
63727W        W 6821   1.826  28.312   6.277 -0.2428 -0.3492 -0.0513
63728W        W 6822   1.946  27.772   6.190  0.1902  0.2803 -0.0186
63729W        W 6823   1.691  27.349   5.247  0.1110  0.1735  0.0129
63730W        W 6824   1.915  29.229   4.004 -0.1268  0.0046 -0.0239
63731W        W 6825   1.539  27.342   4.148 -0.1195 -0.1635  0.0934
63732W        W 6826   0.613  27.030   6.503  0.0251 -0.0133 -0.1610
63733W        W 6827   0.113  28.863   5.749 -0.0603 -0.3316 -0.1486
63734W        W 6828   4.457  24.942   6.053  0.0346  0.2116 -0.3276
63735W        W 6829   1.544  28.186   3.663  0.0420 -0.0322 -0.1239
63736W        W 6830   2.662  27.280   2.670 -0.0535 -0.2558 -0.1319
63737W        W 6831   1.573  26.929   3.594 -0.2654 -0.1421 -0.0237
63738W        W 6832   2.209  26.069   3.776 -0.0199  0.3741  0.0282
63739W        W 6833   1.687  25.335   5.482 -0.1015  0.1138 -0.2294
63740W        W 6834   1.012  30.518   4.960 -0.1084 -0.2764 -0.2735
63741W        W 6835   1.368  25.412   5.994  0.1706 -0.2238  0.0347
63742W        W 6836   2.291  27.713   5.645 -0.0753  0.4655  0.0908
63743W        W 6837   3.258  26.950   3.177  0.0169  0.2045 -0.0252
63744W        W 6838   1.980  26.439   4.590  0.2277 -0.0427  0.1298
63745W        W 6839   1.338  28.534   5.364  0.2048 -0.0060 -0.0553
63746W        W 6840   0.823  25.476   4.478  0.0057  0.1490 -0.0007
63747W        W 6841   3.535  27.379   4.659 -0.3799 -0.0542  0.1758
63748W        W 6842   3.424  28.217   5.563 -0.1605 -0.3578  0.2147
63749W        W 6843   3.253  29.040   3.504 -0.3395  0.0638  0.0211
63750W        W 6844  34.376  26.975   4.789  0.1303 -0.0574 -0.0088
63751W        W 6845   0.337  27.727   6.991  0.0763  0.2482 -0.1652
63752W        W 6846   0.267  26.831   5.925  0.0621 -0.0484 -0.0272
63753W        W 6847   1.446  26.020   3.164  0.1655 -0.1791 -0.2020
63754W        W 6848   4.344  27.722   8.152 -0.1018 -0.0172  0.1081
63755W        W 6849   0.273  28.343   7.574  0.0103  0.1809  0.0628
63756W        W 6850   4.585  26.467   5.033 -0.0679  0.0206 -0.1521
63757W        W 6851   0.760  26.770   6.016  0.2480  0.1805 -0.2648
63758W        W 6852   2.707  28.221   5.771  0.2469 -0.0194 -0.3683
63759W        W 6853   3.766  28.931   2.078  0.0293  0.0310 -0.2794
63760W        W 6854   2.968  24.098   4.401 -0.2235 -0.0343  0.0139
63761W        W 6855   2.503  25.894   5.857 -0.1731  0.1814  0.1129
63762W        W 6856   1.940  27.120   3.022 -0.2273  0.1922 -0.0462
63763W        W 6857   0.332  28.303   3.924  0.0897 -0.2396  0.1796
63764W        W 6858   3.046  27.682   6.375  0.0150  0.0229 -0.0468
63765W        W 6859   2.491  25.650   3.890  0.1836 -0.0993  0.0556
63766W        W 6860   0.189  28.082   6.056  0.1460  0.1612  0.1422
63767W        W 6861   1.765  24.987   5.842 -0.2111  0.2416 -0.3249
63768W        W 6862   1.525  28.711   6.343  0.2356  0.0937  0.0657
63769W        W 6863   2.883  28.975   4.047 -0.2035 -0.2216 -0.0566
63770W        W 6864   0.437  28.958   4.980  0.3135  0.0043 -0.0820
63771W        W 6865   1.464  28.306   2.618  0.1712  0.0018  0.0510
63772W        W 6866  34.199  26.599   5.101  0.0471  0.1186  0.1771
63773W        W 6867   2.668  27.557   5.325 -0.0921  0.3067 -0.1375
63774W        W 6868   3.473  28.111   3.521 -0.3364  0.1045 -0.2558
63775W        W 6869   0.934  25.690   6.193 -0.0358 -0.0343  0.1117
63776W        W 6870   2.676  25.703   5.201 -0.1198  0.0010 -0.3265
63777W        W 6871   0.163  27.305   5.189  0.1046  0.0636  0.2807
63778W        W 6872   3.635  28.641   4.146  0.0129  0.0802  0.0125
63779W        W 6873   3.732  25.814   3.931 -0.1578  0.0420  0.2064
63780W        W 6874   4.377  28.200   3.274 -0.1534  0.4007  0.0229
63781W        W 6875   0.867  27.394   6.141  0.0372 -0.0229  0.1072
63782W        W 6876   0.637  27.232   5.669 -0.2146  0.0939 -0.2162
63783W        W 6877   0.386  26.357   5.973 -0.1132  0.0007  0.4104
63784W        W 6878   1.368  26.691   6.071  0.2801  0.0009 -0.0097
63785W        W 6879   2.469  26.269   7.093 -0.1493  0.2882 -0.2750
63786W        W 6880  33.048  25.116   4.778 -0.0606  0.1251  0.3363
63787W        W 6881   2.142  25.805   6.201  0.1703  0.1723 -0.0975
63788W        W 6882   1.199  26.253   3.541 -0.1299 -0.0967 -0.1009
63789W        W 6883  33.195  28.351   6.005  0.1082  0.3465  0.0850
63790W        W 6884   2.547  24.332   7.203 -0.1462  0.0714  0.2573
63791W        W 6885   3.705  28.746   3.692  0.0206  0.0580  0.1377
63792W        W 6886   2.945  27.299   6.146 -0.2365  0.0777 -0.1214
63793W        W 6887   2.095  28.832   5.225  0.0650 -0.0540  0.0171
63794W        W 6888   0.856  26.231   5.627  0.2827 -0.1556 -0.0832
63795W        W 6889   0.199  26.076   3.946  0.0403  0.0375  0.1069
63796W        W 6890   0.928  28.593   5.034  0.1765 -0.0885 -0.0389
63797W        W 6891   1.606  28.373   4.124  0.1757 -0.0435  0.5870
63798W        W 6892  34.433  24.940   3.477  0.2246 -0.0319 -0.0923
63799W        W 6893   4.064  29.146   5.793  0.1423  0.0334 -0.0468
63800W        W 6894   2.424  27.805   2.744 -0.1247 -0.1498 -0.0160
63801W        W 6895   2.197  28.104   5.927 -0.0880  0.4646 -0.0599
63802W        W 6896   0.875  25.465   5.360  0.0390 -0.2996 -0.1461
63803W        W 6897   3.348  25.751   5.238  0.0997  0.3761 -0.0947
63804W        W 6898   3.367  26.937   3.770  0.3234 -0.1204  0.3602
63805W        W 6899   0.331  27.022   3.010  0.0696  0.0041  0.2326
63806W        W 6900   3.960  28.417   4.802 -0.1292  0.1398  0.0418
63807W        W 6901   2.111  27.951   3.105 -0.0200 -0.0555 -0.1316
63808W        W 6902   0.491  27.681   4.858  0.0444 -0.0278 -0.2369
63809W        W 6903   1.311  29.352   5.192 -0.1422  0.1431  0.3216
63810W        W 6904   3.359  25.323   4.068  0.0610  0.0434 -0.2681
63811W        W 6905   0.183  26.900   7.914  0.0608  0.1224  0.3087
63812W        W 6906   2.616  25.649   6.426 -0.2673 -0.0708 -0.1203
63813W        W 6907   0.127  27.916   3.502  0.0291  0.2049  0.0347
63814W        W 6908   1.274  26.492   7.419 -0.2090  0.0872  0.0905
63815W        W 6909   2.231  25.503   3.510 -0.0731  0.2255 -0.0224
63816W        W 6910   3.150  25.759   3.914  0.1519  0.0481  0.0562
63817W        W 6911   1.641  26.608   7.738 -0.2834  0.0081 -0.4516
63818W        W 6912   3.443  28.151   4.026  0.2711  0.1437 -0.0610
63819W        W 6913   2.622  26.745   2.732  0.0152  0.4382 -0.2044
63820W        W 6914   1.541  24.523   3.193 -0.0266 -0.0111  0.0780
63821W        W 6915  34.548  26.370   6.088 -0.1565  0.0283  0.0497
63822W        W 6916   1.880  26.458   5.116  0.3166  0.1521 -0.0718
63823W        W 6917   2.016  28.106   4.424 -0.0548  0.0204  0.1454
63824W        W 6918   1.627  25.342   4.924  0.1850  0.2583  0.0476
63825W        W 6919   3.352  27.368   3.530 -0.2346 -0.0871 -0.1139
63826W        W 6920   0.169  28.334   5.616  0.1379  0.2263 -0.0026
63827W        W 6921   2.461  27.028   5.297 -0.2673  0.2307 -0.0754
63828W        W 6922   2.531  28.043   5.318  0.2499  0.1501 -0.1849
63829W        W 6923   0.846  24.711   5.992  0.4621 -0.2100  0.1335
63830W        W 6924   0.660  28.076   3.479 -0.1710  0.2550 -0.1466
63831W        W 6925   2.185  26.258   5.866  0.0473  0.0169 -0.1044
63832W        W 6926   0.060  29.119   4.685 -0.2474 -0.1143  0.0971
63833W        W 6927   1.213  26.531   5.115 -0.0519  0.1984 -0.1015
63834W        W 6928   2.241  25.602   5.322  0.0782  0.4306  0.2111
63835W        W 6929   1.086  25.297   6.466 -0.1920  0.0837  0.2825
63836W        W 6930   3.031  25.942   6.494 -0.2932 -0.0852 -0.0628
63837W        W 6931   2.115  25.265   4.803 -0.0656  0.1132  0.0451
63838W        W 6932   1.695  26.831   5.429  0.0609  0.1239  0.1850
63839W        W 6933   0.589  27.557   3.678  0.1267 -0.2098 -0.0269
63840W        W 6934   2.450  25.187   5.153 -0.4027  0.0482  0.1547
63841W        W 6935   1.375  27.433   6.045  0.0185  0.1122 -0.2430
63842W        W 6936   1.159  28.673   6.795 -0.2109  0.1273 -0.0064
63843W        W 6937   4.066  26.140   5.758  0.2022  0.1417  0.0735
63844W        W 6938   2.403  27.107   3.693  0.1646  0.2045 -0.2919
63845W        W 6939   2.554  25.761   7.612 -0.5264  0.1906 -0.0466
63846W        W 6940   0.917  25.808   4.877  0.2014 -0.0311 -0.0147
63847W        W 6941   2.376  29.020   3.987  0.1966 -0.0761  0.0024
63848W        W 6942   0.760  28.367   4.263  0.1943  0.3839  0.2094
63849W        W 6943   0.856  25.437   3.196 -0.0171 -0.1366  0.4855
63850W        W 6944   2.645  28.859   4.501  0.0444 -0.2905  0.3382
63851W        W 6945   1.969  27.591   4.210  0.0568  0.2775  0.2089
63852W        W 6946   2.516  28.478   6.448  0.1187  0.1270 -0.0112
63853W        W 6947   1.068  29.306   4.498  0.2359  0.2384  0.1129
63854W        W 6948   2.365  26.135   5.419 -0.0358 -0.0588 -0.0821
63855W        W 6949  34.295  29.353   4.619 -0.1373  0.1516  0.0267
63856W        W 6950   1.627  26.812   4.322 -0.0501 -0.0907  0.4063
63857W        W 6951  32.748  28.297   4.787  0.0770 -0.0543  0.1654
63858W        W 6952   3.137  25.104   4.487  0.1544  0.0270  0.0221
63859W        W 6953   3.695  26.935   4.307  0.0334 -0.3053  0.1054
63860W        W 6954   0.435  25.820   4.693 -0.3689 -0.2044 -0.0500
63861W        W 6955   1.914  25.471   5.923 -0.1244  0.1439  0.3306
63862W        W 6956  34.564  28.469   5.980 -0.0160  0.2489 -0.1997
63863W        W 6957   3.056  27.915   5.277  0.2746 -0.2230 -0.1506
63864W        W 6958   2.603  26.404   2.076 -0.2162  0.0678 -0.3493
63865W        W 6959   2.888  26.906   5.069  0.0305  0.1882 -0.0362
63866W        W 6960   1.689  27.340   6.412  0.0125 -0.2251  0.1105
63867W        W 6961   0.792  26.278   4.973 -0.1513  0.2972  0.1529
63868W        W 6962   4.041  26.571   6.048 -0.2784 -0.0323  0.0610
63869W        W 6963   1.117  25.359   3.684 -0.1132  0.0208  0.0004
63870W        W 6964  34.231  28.400   4.920  0.1368  0.0151  0.0367
63871W        W 6965   2.065  28.417   4.812  0.1284  0.0708  0.2775
63872W        W 6966   1.018  27.771   3.553 -0.0814  0.0639  0.2669
63873W        W 6967  34.351  28.379   5.441 -0.0175  0.0078 -0.1427
63874W        W 6968   1.323  26.220   5.933 -0.0751 -0.0518 -0.0003
63875W        W 6969   2.989  26.010   5.527  0.0516 -0.4330 -0.2310
63876W        W 6970   1.109  26.053   5.249 -0.0345  0.0220  0.1627
63877W        W 6971  34.127  26.486   4.504 -0.3161  0.1816 -0.0520
63878W        W 6972   1.315  25.701   4.576 -0.0397  0.1760  0.1383
63879W        W 6973   2.686  26.354   5.848 -0.0927 -0.0114 -0.0912
63880W        W 6974   1.570  27.975   5.994  0.1347 -0.0208 -0.0725
63881W        W 6975   0.677  28.245   7.281  0.1704  0.1665 -0.1520
63882W        W 6976   1.978  24.947   5.264  0.0845  0.3284 -0.1294
63883W        W 6977   3.851  29.215   4.050  0.0879  0.1441 -0.0562
63884W        W 6978   2.557  26.166   6.336 -0.1153  0.2581  0.1079
63885W        W 6979  33.056  28.496   4.321  0.0324  0.1632  0.0166
63886W        W 6980  33.928  28.222   6.058  0.0167 -0.1025 -0.0342
63887W        W 6981   0.887  28.976   5.334 -0.3293 -0.0777 -0.1175
63888W        W 6982   1.025  25.317   4.911 -0.1841  0.0959  0.0852
63889W        W 6983   0.017  27.255   5.674 -0.0143  0.1742  0.0696
63890W        W 6984   0.659  28.655   3.812  0.4274 -0.0357 -0.2297
63891W        W 6985   1.107  27.885   6.183 -0.0636 -0.2880  0.0922
63892W        W 6986   2.836  25.552   3.530 -0.0557  0.0168 -0.0914
63893W        W 6987   3.510  28.561   2.768  0.0547  0.0583 -0.2382
63894W        W 6988   0.849  25.991   4.381  0.1540 -0.3499 -0.1632
63895W        W 6989   3.096  25.130   7.305 -0.1801  0.0259 -0.2234
63896W        W 6990   2.353  27.447   3.124 -0.4539  0.0969  0.0384
63897W        W 6991   3.510  25.480   7.210  0.1646 -0.0606 -0.0241
63898W        W 6992   1.176  25.824   5.697 -0.0622  0.4087 -0.2350
63899W        W 6993   3.212  28.574   3.892 -0.0234 -0.2337 -0.4653
63900W        W 6994  34.164  26.552   5.617 -0.0022  0.6693  0.0275
63901W        W 6995   2.618  28.800   6.835 -0.2346 -0.0740  0.1932
63902W        W 6996   1.180  27.040   6.439  0.2387  0.0924 -0.2375
63903W        W 6997   1.506  26.167   4.863 -0.2262 -0.1610 -0.1964
63904W        W 6998   0.598  25.064   4.423 -0.1444  0.0706  0.1474
63905W        W 6999   1.360  28.063   5.407 -0.0034 -0.0239  0.1069
63906W        W 7000   2.614  28.241   4.539 -0.2662  0.1415 -0.0783
63907W        W 7001   2.403  27.559   3.917  0.2564  0.3184  0.3673
63908W        W 7002   1.611  26.864   4.817  0.0497 -0.1223 -0.0409
63909W        W 7003   0.542  27.739   5.358  0.1678  0.1349 -0.0221
63910W        W 7004   2.526  26.816   6.108  0.0558  0.1699  0.0335
63911W        W 7005   1.984  27.085   4.061  0.2071 -0.0538  0.2400
63912W        W 7006   0.603  27.870   4.062  0.1904  0.1697 -0.2683
63913W        W 7007   0.884  26.213   6.130  0.1964 -0.1283 -0.1539
63914W        W 7008   2.489  26.640   4.860 -0.3610 -0.0890  0.0837
63915W        W 7009   1.425  26.342   4.408  0.1239 -0.0454 -0.2117
63916W        W 7010   2.486  25.619   4.769 -0.0618  0.2443 -0.1130
63917W        W 7011   2.230  26.706   7.102 -0.2306 -0.0956 -0.2275
63918W        W 7012   1.630  26.774   6.500 -0.1230 -0.2153 -0.0155
63919W        W 7013   0.568  25.242   7.192 -0.0196 -0.0633  0.0125
63920W        W 7014   3.278  27.129   6.566 -0.2515 -0.2707 -0.0710
63921W        W 7015   4.526  27.538   3.164  0.0727  0.1350 -0.1303
63922W        W 7016   2.865  26.328   6.776  0.1171 -0.2720  0.0510
63923W        W 7017   3.003  28.416   5.320 -0.1957  0.0072 -0.1538
63924W        W 7018   3.011  27.727   3.901 -0.1271  0.2200  0.0332
63925W        W 7019   1.692  25.893   5.788 -0.5111 -0.1106 -0.0275
63926W        W 7020   3.398  26.210   6.211  0.3299  0.2782 -0.0640
63927W        W 7021   0.936  26.846   2.799  0.0606  0.5342  0.0468
63928W        W 7022   1.909  25.099   6.734 -0.0438 -0.1286 -0.0231
63929W        W 7023   1.988  27.800   3.627 -0.1833  0.3016  0.2538
63930W        W 7024   2.500  28.059   4.089 -0.1961  0.1265 -0.3763
63931W        W 7025   3.210  26.146   4.416 -0.0491  0.1681  0.0704
63932W        W 7026   0.443  26.385   5.317 -0.0496 -0.2840  0.1616
63933W        W 7027   1.688  27.545   6.874  0.0561 -0.3095 -0.0463
63934W        W 7028  34.694  25.072   4.158 -0.1666  0.0294  0.3310
63935W        W 7029   1.476  27.008   2.051 -0.2075 -0.0159  0.1556
63936W        W 7030   2.509  27.153   4.255  0.1027 -0.0032 -0.1901
63937W        W 7031   3.221  27.275   7.592  0.1298 -0.1505  0.3250
63938W        W 7032   1.985  26.661   2.948  0.2809 -0.0540 -0.0747
63939W        W 7033   4.689  27.109   6.575 -0.2692  0.2808 -0.0561
63940W        W 7034   0.220  28.173   4.388  0.1553 -0.6177  0.0225
63941W        W 7035   2.112  24.916   4.271 -0.0249  0.1512  0.0533
63942W        W 7036   1.002  29.686   5.936  0.0914 -0.2577  0.0060
63943W        W 7037   0.329  26.916   5.407 -0.0821 -0.1024 -0.0320
63944W        W 7038  34.687  28.690   5.206 -0.0313 -0.0295 -0.2661
63945W        W 7039   3.347  24.287   4.113  0.1695 -0.0065 -0.3015
63946W        W 7040   2.276  26.693   5.631 -0.1170  0.0360  0.0728
63947W        W 7041   0.928  27.630   5.046 -0.2253 -0.0350 -0.1334
63948W        W 7042   3.670  26.093   6.720 -0.0148  0.0201  0.1192
63949W        W 7043   3.252  27.471   5.638 -0.1111  0.2006  0.0841
63950W        W 7044   0.797  27.417   4.567  0.1745  0.0492 -0.1313
63951W        W 7045   2.890  27.962   6.816  0.0906 -0.2066 -0.2597
63952W        W 7046   3.185  27.775   4.837  0.4049  0.0380 -0.2192
63953W        W 7047   0.001  27.772   5.558  0.0541 -0.5562 -0.1181
63954W        W 7048  34.413  26.635   7.276 -0.2095 -0.4133 -0.3331
63955W        W 7049   2.220  26.077   6.692  0.0542 -0.0580  0.2455
63956W        W 7050   2.980  27.341   4.659  0.4362  0.6733 -0.0982
63957W        W 7051   1.621  24.910   4.146 -0.0895  0.2902  0.0449
63958W        W 7052   1.954  27.206   3.497 -0.0512 -0.0637 -0.1829
63959W        W 7053   0.695  27.280   7.006  0.1379 -0.0417  0.0156
63960W        W 7054   0.939  26.624   6.534  0.1064  0.1156  0.0339
63961W        W 7055   2.514  28.764   3.606  0.2145 -0.1839  0.0720
63962W        W 7056   2.160  26.079   4.906  0.0960 -0.0689  0.2921
63963W        W 7057   4.704  27.772   3.976 -0.5257  0.1514 -0.1771
63964W        W 7058   2.665  28.769   5.450  0.0173  0.1000  0.0563
63965W        W 7059   1.622  25.631   1.950  0.3494 -0.1157  0.0361
63966W        W 7060   0.843  30.323   4.559 -0.0736 -0.0358 -0.0905
63967W        W 7061   0.594  28.984   3.390  0.0078  0.2489 -0.2855
63968W        W 7062   2.719  27.719   4.888 -0.0099  0.2554  0.2217
63969W        W 7063   1.082  29.774   4.411 -0.1769  0.0278 -0.1066
63970W        W 7064   3.201  27.864   5.921 -0.2041  0.3733  0.0481
63971W        W 7065   2.769  26.751   1.663 -0.0791 -0.0515 -0.2360
63972W        W 7066   2.791  26.179   5.100 -0.0248  0.1593 -0.0469
63973W        W 7067   2.938  26.868   4.432  0.1851 -0.1171  0.2711
63974W        W 7068   2.893  27.438   6.755  0.1476 -0.0427  0.1871
63975W        W 7069   1.220  27.056   5.224  0.1873 -0.3765 -0.2805
63976W        W 7070   1.887  25.735   3.297 -0.0604 -0.0429  0.0969
63977W        W 7071   1.650  26.066   6.748 -0.1055  0.3182 -0.1492
63978W        W 7072   1.918  24.510   5.880  0.1732 -0.2054  0.0578
63979W        W 7073   1.434  28.632   7.507 -0.1459  0.3305 -0.0597
63980W        W 7074   4.203  28.041   4.971  0.1118  0.1317  0.0496
63981W        W 7075   0.238  26.252   4.850 -0.0509  0.1404 -0.0968
63982W        W 7076   2.413  26.640   4.352  0.2176 -0.1952  0.1024
63983W        W 7077   3.681  24.462   4.910  0.0372 -0.1380 -0.0676
63984W        W 7078   1.118  26.956   4.246 -0.1377 -0.1704 -0.0938
63985W        W 7079   1.782  26.150   4.170 -0.1958  0.4224  0.0296
63986W        W 7080   2.222  28.505   5.560 -0.0930 -0.1134  0.2062
63987W        W 7081   1.718  28.783   4.885 -0.0748  0.0834 -0.0079
63988W        W 7082   0.438  28.537   4.692 -0.0231 -0.0069  0.2610
63989W        W 7083  33.894  25.931   3.351  0.2618 -0.1639 -0.0539
63990W        W 7084   2.934  25.438   6.006 -0.1034 -0.0596 -0.0133
63991W        W 7085   1.615  26.213   5.415 -0.1427 -0.0297  0.0932
63992W        W 7086   2.976  24.784   5.218 -0.2088  0.0734 -0.1340
63993W        W 7087   1.000  26.931   4.789  0.0514 -0.1376 -0.3829
63994W        W 7088   2.792  26.213   4.070 -0.3947 -0.1248  0.0403
63995W        W 7089   2.554  27.109   4.783 -0.1465 -0.1400  0.3909
63996W        W 7090   1.789  25.821   5.134  0.1752 -0.1091 -0.1029
63997W        W 7091   2.020  26.955   5.049  0.1272 -0.0223  0.2981
63998W        W 7092   3.209  26.046   7.017 -0.1520 -0.1926 -0.0186
63999W        W 7093   3.750  26.963   3.427  0.1253  0.5043  0.2609
64000W        W 7094   2.013  27.919   7.007  0.2068 -0.1266  0.3198
64001W        W 7095   0.430  26.226   4.322 -0.2481 -0.0742  0.1452
64002W        W 7096   2.739  26.123   3.525  0.1172 -0.1004 -0.0813
64003W        W 7097   0.803  26.486   4.478  0.1618 -0.0311  0.0260
64004W        W 7098   2.350  26.763   7.998  0.0778  0.1632  0.0625
64005W        W 7099   2.480  27.744   6.907 -0.3651 -0.1097 -0.0081
64006W        W 7100   0.300  24.678   4.334  0.2856 -0.1990 -0.1167
64007W        W 7101   4.291  27.754   4.623  0.0408  0.1538 -0.0946
64008W        W 7102   3.535  25.103   7.625 -0.1275  0.1737  0.1520
64009W        W 7103   3.033  28.119   4.238  0.0157  0.1582 -0.0377
64010W        W 7104   3.328  27.738   4.360  0.0549  0.3430  0.0903
64011W        W 7105   1.914  29.322   5.207 -0.2672  0.5063  0.0627
64012W        W 7106   0.474  26.360   6.537 -0.0120  0.1378  0.5423
64013W        W 7107   3.852  27.121   5.744 -0.0456 -0.1744 -0.0581
64014W        W 7108   5.317  27.828   6.136 -0.0076 -0.1827  0.0298
64015W        W 7109   1.905  24.510   4.449 -0.2152  0.3127 -0.0896
64016W        W 7110   1.686  26.127   3.602 -0.2262  0.0529 -0.2420
64017W        W 7111   0.851  30.371   3.688  0.0715  0.3265 -0.0852
64018W        W 7112   4.856  26.124   6.062 -0.2729  0.2000  0.0689
64019W        W 7113   2.404  25.445   6.010 -0.0413  0.3556  0.1075
64020W        W 7114   1.782  27.589   3.199  0.0150 -0.1001 -0.0358
64021W        W 7115   3.959  24.834   6.835  0.0880 -0.1270  0.1248
64022W        W 7116   3.129  29.918   5.292  0.1370  0.0353  0.1248
64023W        W 7117   1.319  26.562   6.910 -0.0013  0.4099  0.1490
64024W        W 7118   0.236  27.701   4.459  0.0930 -0.0034 -0.7153
64025W        W 7119   2.942  26.872   5.665  0.3208 -0.1073  0.0262
64026W        W 7120   1.855  28.840   4.337 -0.1016  0.0681  0.0144
64027W        W 7121   1.319  27.292   4.704  0.1245 -0.0064  0.1513
64028W        W 7122   3.848  28.268   6.408  0.0466  0.1435 -0.0522
64029W        W 7123   2.992  26.283   2.554  0.1364  0.1994  0.1028
64030W        W 7124   4.483  27.120   4.656  0.0434  0.2509  0.1690
64031W        W 7125   2.448  26.550   3.661  0.1381 -0.0640  0.1229
64032W        W 7126   3.531  26.230   3.881 -0.1077 -0.0590 -0.3872
64033W        W 7127   3.331  26.174   4.938  0.0920 -0.0241  0.4114
64034W        W 7128   2.105  27.568   6.594  0.0392  0.0571  0.0953
64035W        W 7129   0.604  27.227   2.711 -0.1858  0.1752 -0.2799
64036W        W 7130   0.080  29.238   2.845  0.1549  0.3507 -0.1119
64037W        W 7131   0.455  27.249   4.125  0.1058 -0.0804 -0.2441
64038W        W 7132   2.361  25.287   6.829 -0.2449  0.0892 -0.3473
64039W        W 7133   1.380  26.355   6.469 -0.2560  0.1335  0.2115
64040W        W 7134   1.224  26.637   5.648 -0.3335  0.0984 -0.0595
64041W        W 7135  34.378  26.662   3.237 -0.0228  0.2573 -0.3337
64042W        W 7136   4.168  27.860   4.047 -0.0444 -0.1260 -0.0880
64043W        W 7137   1.347  25.118   4.562 -0.0222  0.2015  0.0212
64044W        W 7138  34.365  26.942   5.430 -0.0269 -0.0591  0.0980
64045W        W 7139   2.815  26.713   3.994 -0.0881 -0.3089  0.1825
64046W        W 7140   4.127  28.649   3.450 -0.3277 -0.2713  0.1450
64047W        W 7141   1.046  25.122   4.133  0.1438  0.4078  0.0613
64048W        W 7142   2.843  26.852   6.676  0.3121 -0.3135 -0.0077
64049W        W 7143   0.187  28.941   2.468 -0.2955  0.0349 -0.0186
64050W        W 7144   2.959  25.968   7.861  0.3249 -0.0721  0.4285
64051W        W 7145   1.646  26.276   8.110  0.1400 -0.0712 -0.0588
64052W        W 7146   0.428  26.558   3.089  0.4484  0.1879  0.2814
64053W        W 7147   1.334  27.572   5.443 -0.2810  0.2394  0.0673
64054W        W 7148   3.494  29.383   4.381  0.2997  0.1739 -0.2326
64055W        W 7149   3.155  28.611   4.403 -0.1113  0.1022 -0.2006
64056W        W 7150   0.753  27.954   4.556  0.0916  0.2830 -0.4090
64057W        W 7151   0.802  28.244   5.423 -0.0474 -0.1442  0.0486
64058W        W 7152  33.971  27.657   5.514  0.1057 -0.0253 -0.0412
64059W        W 7153   3.578  27.868   5.181 -0.0741 -0.2849 -0.3838
64060W        W 7154   2.095  27.225   5.583  0.1140  0.2183  0.2022
64061W        W 7155   3.901  27.473   4.362 -0.0631 -0.1967  0.0492
64062W        W 7156   3.137  25.273   5.233 -0.2399 -0.3267 -0.3559
64063W        W 7157   3.314  27.237   4.220  0.0967 -0.2280  0.0184
64064W        W 7158   1.655  25.172   7.226 -0.0615  0.1158  0.1563
64065W        W 7159   2.072  28.616   6.651 -0.0545  0.8933 -0.0877
64066W        W 7160   3.184  26.422   5.821 -0.0104 -0.2727 -0.0598
64067W        W 7161   2.541  25.098   4.429 -0.1370 -0.1608  0.3004
64068W        W 7162   2.249  26.050   4.280  0.3233  0.0014 -0.0389
64069W        W 7163   2.899  28.191   3.704  0.0225 -0.1623 -0.3717
64070W        W 7164   0.631  27.213   4.994  0.0987 -0.0003  0.3367
64071W        W 7165   1.088  27.642   4.254  0.0721  0.1891 -0.1766
64072W        W 7166   2.935  26.482   6.252 -0.2862 -0.0700 -0.0836
64073W        W 7167   2.046  28.207   3.959 -0.2563  0.1683  0.1369
64074W        W 7168   3.065  26.401   8.066  0.0594  0.0806  0.1240
64075W        W 7169   1.849  27.382   4.655  0.1105  0.0081  0.2602
64076W        W 7170   4.046  26.686   3.057 -0.3468  0.2006 -0.1802
64077W        W 7171   2.223  27.492   5.124 -0.2814 -0.3101 -0.2798
64078W        W 7172   3.387  28.900   7.750  0.2501  0.1545 -0.0339
64079W        W 7173   2.208  28.044   6.549  0.1132 -0.0144 -0.2067
64080W        W 7174   3.573  27.829   6.355  0.2052  0.2116 -0.1548
64081W        W 7175   0.622  25.935   5.266  0.0318 -0.4980 -0.2187
64082W        W 7176  34.642  27.325   4.271 -0.0028 -0.0657  0.2269
64083W        W 7177   1.688  27.091   5.895 -0.0986  0.3767  0.3454
64084W        W 7178   3.644  26.149   5.326  0.0889 -0.1056  0.0348
64085W        W 7179   0.137  25.334   4.611 -0.0377 -0.4048 -0.0369
64086W        W 7180   2.908  25.866   3.115  0.1228  0.1402  0.1529
64087W        W 7181   2.129  27.960   4.926  0.3664 -0.0470  0.0484
64088W        W 7182   1.149  27.101   5.772 -0.0219 -0.1609  0.1615
64089W        W 7183   2.002  28.661   9.568  0.3938  0.0544 -0.1938
64090W        W 7184   1.511  27.767   7.952  0.0843 -0.0483 -0.2492
64091W        W 7185   2.609  26.348   7.801 -0.0636 -0.2257  0.1332
64092W        W 7186   3.481  25.168   8.520  0.0957  0.0239  0.0133
64093W        W 7187  33.553  26.032   7.260  0.1288 -0.1000  0.2854
64094W        W 7188   3.221  29.406   8.007 -0.1929  0.0074 -0.2502
64095W        W 7189   2.783  27.341  10.116  0.1147 -0.1834 -0.2498
64096W        W 7190   4.171  28.116   8.837 -0.1508  0.1163  0.0599
64097W        W 7191   2.854  27.043   7.171  0.1793 -0.2350 -0.2155
64098W        W 7192   1.249  27.369   9.816  0.0117 -0.1811 -0.3606
64099W        W 7193   1.814  26.810   9.173  0.1691  0.0364  0.3057
64100W        W 7194   0.095  25.745   7.669 -0.2019 -0.0815 -0.1296
64101W        W 7195   3.288  28.328   9.552  0.1837 -0.0722 -0.1748
64102W        W 7196   0.955  26.851   7.297 -0.1164 -0.3342 -0.1331
64103W        W 7197   0.274  27.256   9.403 -0.2259 -0.1001  0.1560
64104W        W 7198   1.771  25.455   6.371  0.0492 -0.1716 -0.0270
64105W        W 7199   1.602  28.635   8.292 -0.0721  0.1550 -0.0201
64106W        W 7200   3.058  25.059   9.977 -0.1672 -0.0091 -0.3528
64107W        W 7201   2.879  29.769   8.567 -0.0187 -0.2495  0.2898
64108W        W 7202   0.890  25.588   6.837 -0.1697 -0.0351  0.2316
64109W        W 7203  34.133  26.185   8.857  0.0432  0.1665 -0.2515
64110W        W 7204   1.710  27.884   9.778  0.4484  0.0723 -0.1597
64111W        W 7205   2.843  25.856   8.997  0.1678 -0.2387 -0.1602
64112W        W 7206   2.559  26.737  10.058 -0.1400 -0.2250 -0.2649
64113W        W 7207   1.439  28.145  10.140  0.1378  0.3635  0.0884
64114W        W 7208   3.010  29.816   9.164 -0.0344 -0.1177 -0.0862
64115W        W 7209   1.025  29.122   8.916  0.2294  0.0474  0.3351
64116W        W 7210   0.573  27.210  10.026  0.0587  0.1646  0.4264
64117W        W 7211   2.867  27.879   7.537 -0.1737  0.0661 -0.0107
64118W        W 7212   2.916  27.659   7.993  0.1660 -0.2495 -0.4097
64119W        W 7213   1.835  27.095   7.876  0.0822  0.3782 -0.0418
64120W        W 7214   2.917  26.052   8.509  0.2646 -0.0253  0.3106
64121W        W 7215   3.168  28.223   9.051  0.0105 -0.0244 -0.0036
64122W        W 7216   1.252  27.943   6.888 -0.0400  0.0938 -0.0628
64123W        W 7217   3.428  27.623   8.402  0.1834  0.2427 -0.1190
64124W        W 7218   0.782  27.997   9.060  0.1345  0.0102  0.0577
64125W        W 7219   0.420  27.357   7.502 -0.4082 -0.3806  0.0583
64126W        W 7220   2.176  27.479   7.849 -0.1672  0.1336 -0.1326
64127W        W 7221   2.037  26.712   6.200 -0.3100 -0.0816 -0.2961
64128W        W 7222   2.545  26.551   8.756 -0.1936 -0.1651 -0.3090
64129W        W 7223   2.658  26.781   9.601 -0.2150 -0.1652  0.3752
64130W        W 7224   0.820  27.369   9.065  0.3124  0.0806  0.1790
64131W        W 7225   1.371  26.707   9.594  0.0561  0.2714 -0.0322
64132W        W 7226   2.726  27.230   8.189 -0.0639 -0.0176 -0.0094
64133W        W 7227   2.454  28.484   9.899 -0.0411  0.1431  0.2548
64134W        W 7228  34.599  28.378   9.114  0.3589  0.1541  0.3067
64135W        W 7229   0.668  26.535   8.701 -0.2163  0.2171 -0.1553
64136W        W 7230   3.186  28.909   6.697  0.1357  0.3050  0.2741
64137W        W 7231   4.037  28.154   7.822  0.2708  0.0363 -0.0205
64138W        W 7232   1.756  27.556   5.721  0.3338 -0.0368 -0.0114
64139W        W 7233   2.486  28.413   7.803 -0.1788 -0.2398 -0.4090
64140W        W 7234   2.010  25.284   8.597 -0.2108  0.1372 -0.1007
64141W        W 7235   3.032  26.569   9.301 -0.1037  0.1287 -0.0912
64142W        W 7236   1.608  28.565   8.815 -0.1300  0.2336  0.0837
64143W        W 7237   2.550  29.540   9.876  0.0709  0.0782 -0.1619
64144W        W 7238   3.305  27.755   7.688  0.0462 -0.3201  0.0106
64145W        W 7239   2.126  27.189   9.733 -0.1553  0.1104 -0.0624
64146W        W 7240   4.527  26.439   9.940 -0.1990  0.0038  0.0572
64147W        W 7241   1.967  25.654   6.794 -0.0680  0.1709 -0.1292
64148W        W 7242   1.685  28.164   8.382  0.4535  0.1883 -0.1429
64149W        W 7243   2.851  28.062   9.432 -0.1584 -0.1473 -0.1707
64150W        W 7244   3.329  25.591   7.765 -0.0255  0.0279  0.2494
64151W        W 7245   0.223  27.591   9.813  0.2530  0.1795 -0.1100
64152W        W 7246   0.788  27.767   7.096 -0.1385  0.1350 -0.1538
64153W        W 7247   0.235  25.639   9.993  0.0666  0.0456  0.0133
64154W        W 7248   0.205  28.070   6.592 -0.0224 -0.3548  0.0893
64155W        W 7249  33.886  25.198   9.068  0.0137 -0.0718  0.2255
64156W        W 7250   0.673  31.363  10.267  0.0623 -0.2131 -0.2066
64157W        W 7251   2.215  27.348   8.414 -0.0642  0.0108 -0.0262
64158W        W 7252   2.835  25.016   8.452  0.0344 -0.3044 -0.0526
64159W        W 7253   0.964  27.846   7.947  0.4402  0.0446 -0.3266
64160W        W 7254   4.162  28.650   7.799 -0.1580 -0.0598  0.4224
64161W        W 7255   3.923  26.336   8.209 -0.1466  0.3790 -0.0893
64162W        W 7256   2.258  27.055   7.569 -0.2132  0.1860 -0.2335
64163W        W 7257  34.044  26.938   8.226  0.4114  0.4477  0.2233
64164W        W 7258  34.144  26.192   9.913  0.4421 -0.0273 -0.1895
64165W        W 7259  34.358  25.837   9.139  0.2209 -0.1540  0.1729
64166W        W 7260   0.056  25.453   7.184  0.1425 -0.1976  0.1727
64167W        W 7261   3.890  26.834   9.008 -0.0196  0.2866 -0.3516
64168W        W 7262   1.649  27.110   9.541  0.2977  0.1256  0.1976
64169W        W 7263   0.774  27.434   8.400  0.0376  0.3735  0.0645
64170W        W 7264   2.368  29.462   7.893 -0.0261 -0.2282  0.1946
64171W        W 7265   3.648  31.282   9.262 -0.3722 -0.0848  0.1427
64172W        W 7266   3.504  28.599   9.176  0.0507 -0.1499  0.1205
64173W        W 7267  34.366  25.407   8.897 -0.1144 -0.0322 -0.2335
64174W        W 7268   0.293  25.532   6.180 -0.3659 -0.0180 -0.2235
64175W        W 7269   0.204  28.691   8.837  0.2974 -0.0555 -0.1488
64176W        W 7270   3.026  26.878   9.933  0.0001  0.0419 -0.1342
64177W        W 7271   1.081  24.253   7.237 -0.0306  0.1198 -0.1518
64178W        W 7272   2.595  29.553   8.911  0.3479 -0.0781 -0.5326
64179W        W 7273   1.862  29.478   7.944  0.0202  0.1477 -0.0803
64180W        W 7274   3.155  27.677   9.454  0.1619  0.3352 -0.2200
64181W        W 7275   3.432  26.747   8.532  0.0460 -0.2928 -0.2426
64182W        W 7276   1.189  25.022   5.632  0.0589 -0.0726 -0.1276
64183W        W 7277   2.460  29.752   8.310 -0.2263  0.0121 -0.0740
64184W        W 7278   0.027  27.965   7.731  0.1148 -0.1948  0.0024
64185W        W 7279   0.584  26.916   9.203  0.0640 -0.0583 -0.3098
64186W        W 7280   1.576  29.083   8.901  0.1849 -0.0264  0.2720
64187W        W 7281   3.783  25.997   9.595 -0.0557 -0.0714 -0.2121
64188W        W 7282   1.971  26.249   7.135 -0.0447  0.0038  0.2087
64189W        W 7283   1.577  25.726   9.048 -0.1490  0.0008 -0.0618
64190W        W 7284   2.320  26.866   8.472  0.1975 -0.1503 -0.2430
64191W        W 7285   2.681  27.316   7.614 -0.3727 -0.1262  0.2235
64192W        W 7286   1.620  25.605   8.526  0.0670  0.1913  0.0556
64193W        W 7287   1.416  24.610   6.021 -0.0796 -0.1774 -0.0486
64194W        W 7288   1.460  27.072   6.915 -0.0819  0.0234  0.1943
64195W        W 7289   2.690  28.163   8.985 -0.1749  0.0993  0.1642
64196W        W 7290   2.162  24.999   7.171  0.0838 -0.3060  0.0815
64197W        W 7291   5.062  28.113   7.684 -0.2644 -0.0004 -0.0167
64198W        W 7292   0.997  28.329   9.871  0.2452 -0.0886 -0.0354
64199W        W 7293   4.652  28.777   9.510  0.1092 -0.2735 -0.0839
64200W        W 7294   0.130  25.811   8.881  0.2273 -0.0874  0.2059
64201W        W 7295   2.408  26.572   6.596 -0.2890  0.0202 -0.1076
64202W        W 7296   2.461  27.682   9.350  0.0933  0.0752  0.1926
64203W        W 7297  34.600  29.752   7.750  0.1047  0.1791  0.1954
64204W        W 7298   2.595  25.547   9.960  0.2041 -0.0061 -0.2887
64205W        W 7299   3.484  26.432   9.573  0.2164 -0.0250 -0.0840
64206W        W 7300   2.509  25.782   7.041  0.0442  0.1203  0.2042
64207W        W 7301   2.578  28.161   8.511 -0.0251  0.0250 -0.2547
64208W        W 7302   1.948  26.530   6.736 -0.1168 -0.2113  0.0755
64209W        W 7303   0.803  26.945   9.654 -0.2698  0.1383 -0.1385
64210W        W 7304   0.848  29.847   9.282  0.0650  0.1645  0.0473
64211W        W 7305   3.650  28.184   8.808  0.0214 -0.0204 -0.0053
64212W        W 7306   2.404  26.052   8.597  0.2900 -0.0081  0.1792
64213W        W 7307   1.684  27.921   9.008  0.2124 -0.0088 -0.2332
64214W        W 7308   1.578  27.901   6.518 -0.0234  0.2541  0.4498
64215W        W 7309  33.702  24.756  10.323 -0.2525 -0.0025 -0.0045
64216W        W 7310   2.970  28.153   8.164 -0.0329  0.3247 -0.1176
64217W        W 7311   2.555  27.196   5.782  0.2394 -0.1383  0.3300
64218W        W 7312   1.838  26.451   9.473 -0.0096 -0.4049  0.2696
64219W        W 7313   0.544  27.876   7.584 -0.2053  0.2325  0.0816
64220W        W 7314   2.275  24.848   8.772 -0.1248  0.0083  0.1077
64221W        W 7315   0.100  26.978   7.248  0.3595 -0.0899  0.1891
64222W        W 7316   1.819  26.715   8.704 -0.2490  0.0463 -0.0137
64223W        W 7317   0.015  27.379   7.827  0.1688  0.3974 -0.0014
64224W        W 7318   2.173  25.545   7.894  0.0036  0.2706 -0.0780
64225W        W 7319   3.367  26.783   8.071  0.1729  0.0741 -0.0845
64226W        W 7320   2.001  25.518   9.540 -0.0697 -0.3826 -0.0266
64227W        W 7321   3.120  25.083   8.903  0.1247  0.1359 -0.1397
64228W        W 7322   1.067  26.289   9.765  0.0251 -0.2027  0.0092
64229W        W 7323   3.195  24.700   7.601 -0.0237 -0.1365  0.0695
64230W        W 7324   0.479  26.348   7.294 -0.3868 -0.0944 -0.1400
64231W        W 7325   1.668  26.795  10.000 -0.3368  0.0164 -0.0625
64232W        W 7326   1.034  26.706   7.821 -0.0033  0.1452  0.1565
64233W        W 7327   1.744  28.140   7.367  0.0448  0.2394 -0.2465
64234W        W 7328   3.666  29.531   9.633 -0.4225 -0.0285 -0.0800
64235W        W 7329   0.928  27.463   7.528  0.0833 -0.1731 -0.0640
64236W        W 7330   1.188  27.408   7.125  0.0197 -0.0742  0.1603
64237W        W 7331   2.732  30.206  10.187  0.0883 -0.2100  0.0129
64238W        W 7332   1.016  25.786   9.788 -0.1534  0.2541 -0.0539
64239W        W 7333   0.736  27.489   9.613 -0.1900  0.2121  0.1480
64240W        W 7334   2.348  27.578   8.862  0.0387 -0.2041 -0.1111
64241W        W 7335   2.535  28.610   8.792  0.0876  0.0285 -0.0711
64242W        W 7336   2.814  27.344   9.602  0.2867 -0.2323  0.0008
64243W        W 7337   0.154  25.277   8.723  0.2151 -0.1506 -0.0719
64244W        W 7338   3.268  28.225   6.603  0.1448 -0.0242 -0.0498
64245W        W 7339   1.763  26.710   7.207  0.3547 -0.0286  0.1546
64246W        W 7340   1.397  28.147   9.338 -0.0077 -0.2546 -0.1851
64247W        W 7341   2.086  28.414   8.111  0.1344 -0.0438 -0.1173
64248W        W 7342   2.079  26.515  10.011 -0.0594 -0.1490 -0.1315
64249W        W 7343  34.440  27.285   9.660  0.2604 -0.1839 -0.2547
64250W        W 7344   1.585  28.292   6.854  0.2893 -0.0778 -0.1440
64251W        W 7345   1.913  30.811   9.127  0.0818 -0.0340 -0.1983
64252W        W 7346   2.922  25.456   8.671  0.2017 -0.0481 -0.3459
64253W        W 7347   2.412  27.225   6.929  0.1518  0.1360 -0.0927
64254W        W 7348   2.429  27.170   9.321 -0.2444 -0.1473  0.0569
64255W        W 7349   1.938  28.485   7.618  0.1205  0.0361 -0.2874
64256W        W 7350  34.520  27.033   8.216  0.2770 -0.1209 -0.0566
64257W        W 7351   2.269  27.510   7.288 -0.2061 -0.1290  0.2404
64258W        W 7352   2.138  26.540   7.547 -0.1235  0.4621  0.1559
64259W        W 7353   0.477  25.530   7.910  0.0444 -0.2165  0.3186
64260W        W 7354   1.873  27.903  10.250  0.1913 -0.1506  0.1046
64261W        W 7355   4.138  23.220   9.938 -0.1117 -0.0013  0.0808
64262W        W 7356   2.494  27.758   6.204 -0.2107 -0.1082  0.1840
64263W        W 7357   2.600  26.028  10.172  0.1191  0.1972 -0.3961
64264W        W 7358   1.530  28.716   9.368 -0.0395  0.2334  0.1380
64265W        W 7359   2.641  26.651   7.443  0.0735  0.0641  0.3034
64266W        W 7360   1.349  26.830   8.177  0.0496  0.1135 -0.3020
64267W        W 7361   1.248  27.302   8.019 -0.2707 -0.2399 -0.1730
64268W        W 7362   3.268  28.538   8.133  0.1316 -0.1268 -0.1534
64269W        W 7363   2.362  25.767   9.223  0.1527 -0.1969 -0.0184
64270W        W 7364   3.252  29.364   9.261  0.0910  0.2793  0.2208
64271W        W 7365   3.927  27.401   6.548 -0.0697  0.0303  0.2666
64272W        W 7366   3.832  26.908   9.502 -0.1577 -0.0368  0.0826
64273W        W 7367   3.461  26.088   8.008 -0.0917 -0.1426  0.2216
64274W        W 7368   2.676  27.141   8.685  0.4554  0.1238  0.1182
64275W        W 7369   1.193  27.251   8.604 -0.0370  0.4596 -0.0741
64276W        W 7370   1.015  26.057   6.622  0.3321 -0.0905 -0.2056
64277W        W 7371   2.126  28.969   7.073  0.1761  0.3690 -0.1584
64278W        W 7372   2.880  28.776   7.803 -0.0183  0.0627 -0.1907
64279W        W 7373   1.856  26.716   8.222 -0.1272 -0.0079  0.0187
64280W        W 7374   0.068  26.407   8.055 -0.0696  0.1161 -0.5197
64281W        W 7375   0.085  26.421   7.553 -0.2377  0.0436 -0.3116
64282W        W 7376   2.344  27.976   7.432  0.4363 -0.0973  0.2920
64283W        W 7377   3.258  28.646   9.998 -0.0739  0.2326  0.1924
64284W        W 7378   0.893  26.261   7.569  0.1001 -0.0376 -0.1328
64285W        W 7379   0.849  26.745   8.297 -0.2125  0.2873  0.0218
64286W        W 7380   1.639  24.921   8.719  0.0783 -0.2109 -0.3108
64287W        W 7381   0.162  29.016   9.342  0.0252  0.1416 -0.0773
64288W        W 7382   0.657  27.093   7.938  0.0653  0.1796 -0.0756
64289W        W 7383   3.134  22.268  10.360  0.0507 -0.0692 -0.2695
64290W        W 7384   2.763  25.870   9.532 -0.4381 -0.1568 -0.0142
64291W        W 7385   1.177  28.218   8.853 -0.0552 -0.3691  0.0842
64292W        W 7386   1.315  27.799   8.380 -0.0416 -0.0759 -0.0593
64293W        W 7387   3.217  28.240   7.627  0.1999  0.0934  0.0088
64294W        W 7388   2.305  27.246  10.305  0.0623  0.0578 -0.3162
64295W        W 7389   3.340  27.077   9.471  0.1149 -0.2462  0.0228
64296W        W 7390   1.633  26.191   9.859  0.1930  0.1828  0.0089
64297W        W 7391   1.850  28.886   7.941 -0.2110  0.3723  0.0654
64298W        W 7392   0.124  26.821   9.306 -0.1512 -0.0184  0.1980
64299W        W 7393   0.336  28.264   8.551  0.1616  0.0482  0.0234
64300W        W 7394   3.243  28.059   8.559  0.0184 -0.1891  0.2553
64301W        W 7395   2.524  27.939   7.965  0.3372  0.0263 -0.3292
64302W        W 7396   2.836  27.710   8.609 -0.1783  0.1067 -0.1279
64303W        W 7397   2.844  26.143   7.361 -0.3480 -0.1355 -0.1263
64304W        W 7398   0.718  28.566   8.372  0.1153  0.3147  0.2651
64305W        W 7399   0.476  28.707   5.488 -0.1942 -0.1202  0.0239
64306W        W 7400   2.865  28.116   6.216 -0.2900  0.0882 -0.3954
64307W        W 7401  34.668  27.589   7.405 -0.2632  0.1872 -0.1852
64308W        W 7402   3.292  25.567   9.068 -0.1903 -0.2329 -0.0758
64309W        W 7403   2.881  28.018  10.358 -0.2582 -0.0776 -0.0929
64310W        W 7404   3.697  24.733   9.359 -0.0527 -0.0831 -0.1039
64311W        W 7405   2.298  26.679   9.255 -0.0173 -0.0977  0.1350
64312W        W 7406   2.114  26.062   7.591  0.1025 -0.0488 -0.0249
64313W        W 7407   1.876  29.991   7.230  0.0095  0.1577 -0.1451
64314W        W 7408  34.404  25.777   7.931  0.0925 -0.0229  0.0881
64315W        W 7409   1.889  28.193   9.372 -0.1073  0.1919 -0.0242
64316W        W 7410   3.959  24.166   8.589 -0.2312  0.1046 -0.1899
64317W        W 7411   1.893  27.212   7.220 -0.3044 -0.1131  0.0750
64318W        W 7412   2.499  25.280   9.501  0.0786 -0.0440  0.0685
64319W        W 7413   1.586  28.267   7.895  0.2228  0.2198  0.1644
64320W        W 7414   1.545  28.520   9.805  0.4627  0.1910 -0.0624
64321W        W 7415   0.701  28.514   8.851  0.0910 -0.0296  0.2596
64322W        W 7416  34.276  25.346   8.064  0.2369  0.0160 -0.2477
64323W        W 7417   3.479  26.634   9.111  0.0323  0.0326  0.1477
64324W        W 7418   0.707  28.892   9.219  0.1391  0.0706 -0.0162
64325W        W 7419   1.223  28.303   8.254  0.2204 -0.1219 -0.0756
64326W        W 7420   2.028  25.913   8.278  0.0584  0.0841  0.3082
64327W        W 7421   3.120  29.398   9.752  0.0240  0.2666  0.0397
64328W        W 7422  34.254  26.323   9.435  0.2076  0.1657  0.3077
64329W        W 7423   3.108  27.293   8.608  0.0907 -0.0087 -0.1302
64330W        W 7424   3.232  24.681   8.433  0.1267  0.0845  0.1564
64331W        W 7425   1.346  26.876   8.878  0.1942  0.3067 -0.0327
64332W        W 7426   3.388  25.712   6.198 -0.0314  0.2770 -0.2202
64333W        W 7427   2.279  28.051   9.122 -0.2252 -0.0995 -0.2909
64334W        W 7428   1.743  27.432  10.079 -0.1752 -0.1832  0.2014
64335W        W 7429   0.342  26.034   8.022  0.1593  0.0325 -0.0826
64336W        W 7430   3.020  27.561   7.210 -0.1416 -0.0724 -0.1523
64337W        W 7431   3.146  31.261   9.898  0.2119  0.0516  0.2505
64338W        W 7432   2.511  28.266   6.924  0.2463  0.2332  0.0327
64339W        W 7433   3.123  26.633   7.043 -0.1180  0.0278  0.0769
64340W        W 7434   4.894  32.435  10.548  0.4566 -0.2538 -0.1537
64341W        W 7435   0.265  26.262   8.683  0.2574 -0.0428  0.1233
64342W        W 7436   2.540  29.987   9.206  0.1778  0.1113 -0.0510
64343W        W 7437   2.877  28.538   9.329 -0.3757  0.1579 -0.0634
64344W        W 7438   1.665  27.334   9.003 -0.0959  0.4367 -0.0337
64345W        W 7439   1.021  26.676   9.196 -0.2217  0.0157 -0.1237
64346W        W 7440   0.585  27.612   8.782 -0.3349 -0.3233 -0.0897
64347W        W 7441   2.315  26.247   9.605 -0.1266  0.0250 -0.6074
64348W        W 7442   2.797  29.719   7.481  0.2649 -0.1610  0.1331
64349W        W 7443   1.885  29.097   9.354  0.0019  0.0302 -0.4083
64350W        W 7444   1.643  26.065   7.480 -0.0684 -0.1425 -0.2111
64351W        W 7445   2.657  28.631   8.278  0.1644  0.1555 -0.3067
64352W        W 7446   2.384  28.902   7.945  0.1042 -0.2775 -0.3806
64353W        W 7447   4.321  28.663   8.665 -0.0407  0.2998  0.0276
64354W        W 7448   1.773  27.627   8.576 -0.1081 -0.0208  0.0319
64355W        W 7449   4.716  28.096   8.877  0.1347  0.1278 -0.0586
64356W        W 7450   2.066  26.291   8.974 -0.1262 -0.0298 -0.0761
64357W        W 7451   2.633  25.368   8.112 -0.0269  0.2513 -0.0291
64358W        W 7452   0.942  26.250   7.073  0.0497 -0.0047 -0.0730
64359W        W 7453   1.075  27.746   9.340  0.0293 -0.0677  0.3889
64360W        W 7454   0.678  25.824   7.348  0.0707 -0.2656 -0.2795
64361W        W 7455   1.246  25.848   7.045 -0.0416  0.0964 -0.1328
64362W        W 7456   0.455  26.521   9.586 -0.1317  0.1924 -0.0749
64363W        W 7457   0.713  27.045   8.698  0.3803  0.1059 -0.2258
64364W        W 7458   1.476  25.536   6.711  0.2119 -0.1095 -0.2181
64365W        W 7459   3.844  29.624   8.014  0.1830 -0.0644 -0.0019
64366W        W 7460   1.520  27.589   9.423 -0.0569  0.2095 -0.2708
64367W        W 7461   1.383  25.321   9.613  0.1053  0.3440 -0.2056
64368W        W 7462   2.579  26.419   8.298 -0.1040 -0.2229 -0.2730
64369W        W 7463   3.120  28.998   8.373 -0.1974 -0.3645 -0.2419
64370W        W 7464   2.179  27.040   8.879  0.2453 -0.0788  0.0343
64371W        W 7465   1.254  27.885   7.457  0.0555  0.1819 -0.0113
64372W        W 7466   0.505  25.913   6.420 -0.0361  0.1194  0.2198
64373W        W 7467   2.950  27.153   9.148  0.2332  0.2477 -0.1940
64374W        W 7468   2.318  28.762   7.470 -0.0385  0.0307  0.0470
64375W        W 7469   3.546  28.724   6.332 -0.1948 -0.0166  0.3861
64376W        W 7470   0.791  26.004   9.429 -0.0946  0.0232  0.0126
64377W        W 7471   2.059  27.030   6.616 -0.1773  0.1696  0.0731
64378W        W 7472   2.839  28.938   9.050  0.4277 -0.0779 -0.2765
64379W        W 7473   3.903  26.451   9.281  0.0833 -0.0457 -0.0925
64380W        W 7474   1.379  27.055   7.543 -0.0206 -0.1150  0.0919
64381W        W 7475   0.869  29.328   9.525  0.1163 -0.2329 -0.2713
64382W        W 7476   2.419  25.553   8.547 -0.0463  0.1440 -0.0767
64383W        W 7477   3.026  26.782   8.844 -0.0931 -0.1494  0.0502
64384W        W 7478   2.005  29.153   7.547 -0.0848 -0.0225 -0.0145
64385W        W 7479  34.267  26.325   7.744 -0.0427  0.0886  0.1084
64386W        W 7480   2.090  26.395   8.473 -0.1401 -0.1946 -0.2803
64387W        W 7481   2.914  26.811   8.370  0.0158 -0.1736 -0.0762
64388W        W 7482   2.021  28.027   7.844  0.2268 -0.0997  0.3249
64389W        W 7483   4.790  27.209   7.879 -0.3659 -0.4011 -0.2122
64390W        W 7484   4.368  28.581   9.113  0.2293 -0.1555  0.1145
64391W        W 7485   0.123  28.121   9.510 -0.2158  0.2862 -0.2920
64392W        W 7486   2.857  27.690   9.074 -0.1440 -0.0329  0.0595
64393W        W 7487  34.379  26.813   9.800  0.0338 -0.2573 -0.0564
64394W        W 7488   1.942  27.678   9.346 -0.1167 -0.1260  0.2389
64395W        W 7489   1.732  27.573   7.516 -0.1781 -0.0489 -0.0831
64396W        W 7490   3.134  26.253   8.922 -0.1773 -0.0389 -0.0552
64397W        W 7491   1.109  27.688   8.829  0.2204  0.0401  0.1224
64398W        W 7492   2.297  25.075   7.719 -0.0863 -0.3572 -0.1472
64399W        W 7493   1.953  28.756  10.124 -0.4132 -0.1768 -0.2632
64400W        W 7494   2.344  27.839  10.489 -0.1053 -0.0552  0.2477
64401W        W 7495   2.213  32.510   1.873  0.3333 -0.2133 -0.1157
64402W        W 7496   0.853  29.677   0.738 -0.1267  0.0483 -0.1813
64403W        W 7497   3.006  30.450   0.553  0.0205 -0.1424 -0.1856
64404W        W 7498   3.206  30.286   2.026 -0.2084  0.0717 -0.0829
64405W        W 7499   0.052  29.991   2.080  0.1308 -0.1890  0.0845
64406W        W 7500   4.250  32.655   1.017  0.0543  0.2901 -0.0062
64407W        W 7501   0.029  27.837   4.004  0.6542 -0.0479  0.0813
64408W        W 7502   3.064  33.520   2.474 -0.3731 -0.1263  0.0818
64409W        W 7503   2.960  32.401   3.114  0.1242 -0.2173 -0.3607
64410W        W 7504   1.301  31.927   0.410 -0.2706 -0.0723  0.0853
64411W        W 7505   1.224  31.489   2.345 -0.0491 -0.0898 -0.1491
64412W        W 7506   2.728  31.821   1.405 -0.1072 -0.2133 -0.1464
64413W        W 7507   2.293  28.403   0.493  0.2351 -0.1722 -0.0892
64414W        W 7508  34.687  28.733   1.273 -0.4426 -0.4143 -0.1454
64415W        W 7509   3.757  29.761   0.992 -0.2181  0.0998 -0.1800
64416W        W 7510  34.305  32.272  31.018 -0.0784  0.0403 -0.1671
64417W        W 7511   0.681  30.744   2.350  0.4116  0.0474 -0.2585
64418W        W 7512   2.231  28.686   1.035 -0.0902  0.1402 -0.5835
64419W        W 7513   3.161  32.193   1.289 -0.0314  0.2320 -0.1353
64420W        W 7514   1.612  30.271   3.060  0.3407 -0.0210 -0.0721
64421W        W 7515   3.493  28.558   3.270  0.0647  0.2004  0.5137
64422W        W 7516   3.731  31.855   1.319  0.0196 -0.2380  0.2561
64423W        W 7517  34.009  32.183   1.173 -0.1770 -0.1710  0.0533
64424W        W 7518   0.451  32.313   0.443  0.0283  0.5424  0.3570
64425W        W 7519   0.426  31.185   2.934 -0.1479  0.2019  0.1566
64426W        W 7520   3.218  29.836   0.677 -0.0372 -0.2355  0.2463
64427W        W 7521   3.387  31.164   1.966  0.1496 -0.0721  0.3559
64428W        W 7522   3.139  32.987   1.903 -0.1734 -0.0645 -0.1716
64429W        W 7523   2.584  33.602   2.388 -0.1223 -0.0361  0.2702
64430W        W 7524   4.190  29.599   3.189 -0.2553 -0.0231  0.1027
64431W        W 7525   0.753  32.554   0.800  0.2933  0.1351  0.0696
64432W        W 7526   0.556  33.006   1.632  0.1167  0.1993  0.1221
64433W        W 7527   0.815  33.087   0.021  0.1580  0.1501 -0.0992
64434W        W 7528   4.181  33.094   0.244  0.0507 -0.0381 -0.1022
64435W        W 7529   2.835  32.762   2.703 -0.0073  0.1175  0.2134
64436W        W 7530   2.586  34.169   2.240 -0.0407 -0.0252  0.2324
64437W        W 7531   0.141  31.696   0.086  0.7630  0.2356  0.2131
64438W        W 7532   2.021  32.916   2.509  0.2392  0.0148  0.0824
64439W        W 7533   0.695  32.792   2.644 -0.0249  0.0770 -0.1301
64440W        W 7534   2.583  29.697   3.446  0.0293 -0.1192 -0.1542
64441W        W 7535   1.562  31.489   1.123 -0.1509 -0.0059 -0.1915
64442W        W 7536   1.053  31.888  30.563  0.1065  0.2366 -0.0508
64443W        W 7537   2.359  31.888   1.759  0.0133 -0.0330 -0.2630
64444W        W 7538   0.893  32.691   3.200 -0.1805  0.4111  0.2224
64445W        W 7539   0.405  32.873   2.225 -0.2355 -0.1021 -0.1524
64446W        W 7540   3.741  29.501   2.830 -0.2381 -0.2584 -0.0151
64447W        W 7541   0.679  33.598   0.046  0.1236 -0.1726  0.1559
64448W        W 7542   4.177  30.303   0.380  0.0767  0.1694  0.0681
64449W        W 7543   1.908  31.313   1.399  0.1166 -0.0175  0.0386
64450W        W 7544   3.443  30.477   1.609  0.0823 -0.1996 -0.0541
64451W        W 7545   0.479  28.822   1.972  0.0948 -0.0885 -0.0090
64452W        W 7546   2.244  32.900   0.450 -0.0917  0.0701 -0.0479
64453W        W 7547   0.836  29.845   3.761  0.3297 -0.1206 -0.3069
64454W        W 7548   2.617  31.177   3.446 -0.4066  0.1091  0.0075
64455W        W 7549   2.128  28.092   0.879  0.2778  0.3136 -0.3016
64456W        W 7550   3.891  30.250   3.392 -0.2660  0.3371 -0.1675
64457W        W 7551   2.621  34.177   1.725  0.1121  0.1237  0.2913
64458W        W 7552   0.170  31.898   1.261  0.0385  0.1637  0.1237
64459W        W 7553   3.775  32.886   0.551  0.0870  0.0802 -0.0662
64460W        W 7554   4.668  32.945   2.432 -0.1512  0.1569 -0.0031
64461W        W 7555   2.714  33.441   0.371 -0.1251 -0.1085 -0.1617
64462W        W 7556   0.721  31.824   1.341 -0.0212 -0.1172  0.0871
64463W        W 7557   1.247  31.953   3.664 -0.1230 -0.1166 -0.2627
64464W        W 7558   0.087  30.813   3.217 -0.3487 -0.2657 -0.2886
64465W        W 7559  34.373  30.214  31.485 -0.1327  0.0465 -0.0900
64466W        W 7560   3.595  32.055   2.774  0.3660  0.1016  0.0078
64467W        W 7561   0.101  32.599   4.007  0.0832  0.1554  0.2806
64468W        W 7562   4.163  29.331   1.195 -0.1564 -0.2968  0.0047
64469W        W 7563   2.213  30.581   2.740  0.1070 -0.2839  0.0044
64470W        W 7564   2.857  33.750   2.002  0.0505  0.0534 -0.1976
64471W        W 7565   3.134  32.227  31.279  0.0500 -0.1963  0.1466
64472W        W 7566   2.079  27.537   1.502  0.3375 -0.1511 -0.2603
64473W        W 7567   2.348  30.799   2.327  0.0434  0.0793 -0.1457
64474W        W 7568   0.828  31.194   0.661 -0.1091 -0.0874 -0.1743
64475W        W 7569   2.481  32.171   0.086  0.3124 -0.0727  0.0178
64476W        W 7570   3.514  32.156   2.275 -0.0151  0.1025  0.2749
64477W        W 7571   5.118  31.356   1.007 -0.1027 -0.1146 -0.1385
64478W        W 7572  34.136  33.211   3.195  0.2215 -0.1357 -0.1135
64479W        W 7573   1.678  30.419   2.567  0.1138  0.0053  0.0989
64480W        W 7574   3.205  32.691   3.479 -0.0408 -0.2950 -0.0703
64481W        W 7575   0.840  34.373   0.061  0.0168 -0.2195  0.3033
64482W        W 7576   1.142  32.046   2.338 -0.1585  0.1201 -0.2256
64483W        W 7577   0.617  31.534   0.970 -0.2428 -0.0413 -0.0571
64484W        W 7578   0.994  30.130   2.297 -0.0914 -0.0818 -0.1130
64485W        W 7579   0.250  31.096   2.455 -0.0117  0.0932 -0.2022
64486W        W 7580   4.205  29.946   0.735  0.4266  0.0054 -0.1281
64487W        W 7581   0.397  29.732   2.974 -0.3390  0.0212  0.1261
64488W        W 7582   3.314  28.497   0.249 -0.1850 -0.0845  0.1101
64489W        W 7583   0.972  30.970  31.841  0.1815 -0.0570 -0.2565
64490W        W 7584   4.371  34.449   1.160 -0.0699  0.0337  0.0992
64491W        W 7585   3.879  30.190  31.218  0.3433  0.2333  0.3348
64492W        W 7586   2.156  30.964   0.496  0.1195  0.0069 -0.1511
64493W        W 7587   0.663  30.701   2.889  0.0408  0.1288 -0.0191
64494W        W 7588   1.630  31.986   1.064 -0.1033 -0.1266 -0.2814
64495W        W 7589   0.985  30.335   2.747  0.2902  0.1911  0.1467
64496W        W 7590   2.113  30.022   2.107 -0.2710  0.1302  0.0273
64497W        W 7591   3.557  29.934   3.749 -0.1128  0.4179 -0.3155
64498W        W 7592  34.580  29.474   1.945 -0.2525  0.2766  0.1428
64499W        W 7593   3.061  28.277   1.098 -0.2490 -0.2143  0.2695
64500W        W 7594   2.148  29.481   1.960 -0.1383  0.0576 -0.2652
64501W        W 7595   0.098  33.373   1.025  0.0518  0.2334 -0.0083
64502W        W 7596   4.329  29.594   2.769  0.0327  0.0057  0.0881
64503W        W 7597   1.683  33.448   0.662  0.0560  0.0691  0.0647
64504W        W 7598   4.711  32.959   4.089  0.1812  0.1430  0.0103
64505W        W 7599   4.012  33.202   1.795  0.2811 -0.1676 -0.0618
64506W        W 7600  34.512  31.393   2.367  0.1731  0.0891 -0.2186
64507W        W 7601   0.383  30.376   1.109  0.1475  0.1313  0.2395
64508W        W 7602   0.446  33.273   2.604 -0.4001 -0.0891  0.0725
64509W        W 7603   1.782  32.761   1.026  0.4010  0.1641 -0.1581
64510W        W 7604   0.918  30.621   1.899 -0.1104  0.0500 -0.4222
64511W        W 7605   5.097  33.402   1.978 -0.0693  0.1604 -0.0313
64512W        W 7606   2.708  32.196   0.884 -0.0184  0.2993 -0.2625
64513W        W 7607   1.471  31.298   1.632  0.1218  0.3212  0.0589
64514W        W 7608   2.450  29.171   2.297 -0.0611  0.1179 -0.2209
64515W        W 7609   2.345  29.574   1.239  0.0780  0.0199  0.0328
64516W        W 7610   3.515  30.595   0.996  0.0614 -0.2221  0.2026
64517W        W 7611  34.119  30.482  31.876  0.0655 -0.0619 -0.3141
64518W        W 7612   3.640  32.400   1.518  0.0984 -0.0316  0.0441
64519W        W 7613   0.323  33.026  31.956 -0.2238 -0.1912 -0.0061
64520W        W 7614  34.647  31.509   1.746  0.3022 -0.4424  0.2853
64521W        W 7615   2.300  32.025   0.662  0.0480  0.0829 -0.0487
64522W        W 7616   2.875  29.480   2.489 -0.0098 -0.0241  0.0891
64523W        W 7617  34.495  32.152   3.909 -0.1599 -0.2924 -0.0539
64524W        W 7618   3.202  30.976   3.377  0.1193 -0.0648 -0.2789
64525W        W 7619   1.921  30.530   0.994 -0.0587  0.2564  0.3412
64526W        W 7620   0.716  32.460   2.092 -0.0528  0.0777 -0.2436
64527W        W 7621   4.081  29.604   0.022  0.0094 -0.3381  0.2912
64528W        W 7622   4.187  29.810   1.389 -0.2566 -0.0096 -0.1824
64529W        W 7623   2.507  31.386   1.553 -0.0889  0.0752 -0.1072
64530W        W 7624   3.529  31.371   1.284 -0.0408 -0.2629  0.1487
64531W        W 7625   3.049  31.149   0.495 -0.0932 -0.2527  0.0814
64532W        W 7626   2.326  29.671  31.187 -0.0643  0.2666 -0.1639
64533W        W 7627   0.383  32.853   3.109  0.0461 -0.0055  0.2087
64534W        W 7628   4.326  33.110   0.852  0.1806  0.1531 -0.2984
64535W        W 7629   2.971  32.007   2.331  0.1192 -0.0663 -0.3646
64536W        W 7630   2.506  30.192   0.475  0.0320 -0.0329  0.2844
64537W        W 7631   4.468  33.223   1.431 -0.2815 -0.2023  0.0729
64538W        W 7632   0.813  32.297   2.722 -0.1260  0.0430  0.0635
64539W        W 7633   2.657  32.293   2.688  0.0159 -0.1457 -0.1611
64540W        W 7634   3.409  31.692   2.058 -0.0724 -0.1860 -0.1180
64541W        W 7635   3.219  29.947   1.586  0.0267  0.0033 -0.0144
64542W        W 7636   1.369  29.864   0.933 -0.0177 -0.0103  0.1625
64543W        W 7637   1.790  29.329   0.575 -0.2225 -0.1833  0.2175
64544W        W 7638   0.580  33.375  31.089  0.2363  0.2479 -0.3360
64545W        W 7639   4.142  30.574   1.967 -0.2471  0.0593 -0.2073
64546W        W 7640   2.237  30.471   1.925 -0.3682 -0.5481  0.0054
64547W        W 7641   0.951  28.613   2.714  0.2543  0.0877 -0.0228
64548W        W 7642   4.302  31.749   3.443  0.3258  0.0522 -0.0250
64549W        W 7643   3.312  31.754   1.555 -0.1219 -0.1983 -0.1865
64550W        W 7644   2.402  30.597   0.853  0.1994  0.1285  0.1073
64551W        W 7645   0.354  30.940   0.728 -0.3233  0.0589  0.0853
64552W        W 7646   3.068  29.290   4.655  0.0334  0.1017 -0.1491
64553W        W 7647   1.262  30.565   2.266 -0.0009  0.3170 -0.0390
64554W        W 7648  32.943  33.279   2.806  0.1089  0.0194  0.1454
64555W        W 7649   1.610  31.937   3.243 -0.0461 -0.1129 -0.1456
64556W        W 7650   1.990  31.478   1.830  0.3359 -0.0896  0.1452
64557W        W 7651   3.848  29.974   2.660 -0.0567  0.0209 -0.2165
64558W        W 7652   2.282  28.070  31.688  0.5877  0.4115 -0.2467
64559W        W 7653   1.554  32.128   0.037  0.2219 -0.0355 -0.1857
64560W        W 7654   0.967  32.787   1.236 -0.0919  0.4063 -0.2442
64561W        W 7655   1.257  29.804   1.864  0.2340 -0.0361 -0.0311
64562W        W 7656   3.307  32.159   1.797 -0.0885  0.0608  0.1808
64563W        W 7657   2.510  33.804   0.127 -0.2753  0.0999 -0.0117
64564W        W 7658   2.553  31.246   2.482 -0.1582 -0.0043  0.0510
64565W        W 7659   1.602  32.691   2.588  0.2258  0.3138 -0.2014
64566W        W 7660   2.169  29.733   0.537 -0.2728 -0.0358 -0.1426
64567W        W 7661  33.926  32.142   1.690  0.2034  0.1529  0.1939
64568W        W 7662   1.782  30.105   0.612 -0.1314 -0.1384 -0.0757
64569W        W 7663  34.658  32.076   0.321  0.1886  0.4669 -0.0622
64570W        W 7664   3.331  29.464   1.740  0.0900  0.0245  0.2588
64571W        W 7665   4.300  31.705   1.422  0.3222  0.2440 -0.3621
64572W        W 7666   1.141  29.520   3.454  0.0544  0.3111 -0.0478
64573W        W 7667   1.432  30.761   1.773  0.2776  0.0497  0.0085
64574W        W 7668   2.749  30.674   2.617 -0.1370  0.1530  0.0338
64575W        W 7669   3.437  29.973  31.181 -0.0842 -0.0509  0.0304
64576W        W 7670   2.586  32.249   2.164 -0.3386 -0.1938  0.2199
64577W        W 7671   2.224  31.968   2.311 -0.0146  0.0413  0.1008
64578W        W 7672  34.124  30.871   1.164  0.3488 -0.1259 -0.1859
64579W        W 7673   4.435  30.579   2.777  0.2725  0.1620 -0.0160
64580W        W 7674   1.070  31.066   2.105 -0.2366  0.0809  0.1296
64581W        W 7675   0.496  32.816   1.139 -0.1085  0.1402 -0.2276
64582W        W 7676   2.955  33.050   1.416  0.2526 -0.1328 -0.0611
64583W        W 7677   2.198  31.704   1.255 -0.1404 -0.2399 -0.2931
64584W        W 7678   1.132  32.486   1.857  0.1221  0.0861 -0.1491
64585W        W 7679   0.460  31.900   2.922 -0.5574 -0.1446  0.0220
64586W        W 7680   2.739  30.580   2.016 -0.0021 -0.0977  0.1118
64587W        W 7681   0.855  29.759   2.731 -0.0785 -0.3951 -0.2278
64588W        W 7682  34.078  28.930   1.214 -0.1932  0.0317 -0.1821
64589W        W 7683   1.609  31.195   2.136 -0.2392  0.2245  0.2230
64590W        W 7684   3.429  31.114   2.470  0.0610  0.0401 -0.2017
64591W        W 7685   1.637  30.600   3.457 -0.1073 -0.0714  0.1215
64592W        W 7686   1.524  30.050   2.193 -0.1697  0.1813 -0.2047
64593W        W 7687   2.159  27.967   1.799 -0.2619 -0.2097 -0.0698
64594W        W 7688   4.223  33.936   1.068  0.0515 -0.1616  0.2589
64595W        W 7689   2.101  30.458   3.227  0.2994 -0.0772 -0.1631
64596W        W 7690   1.937  31.071  31.489 -0.0898 -0.1660  0.0649
64597W        W 7691  34.502  31.033   0.894 -0.0044  0.1874  0.1725
64598W        W 7692   1.092  31.564   0.635 -0.1970 -0.1278  0.1887
64599W        W 7693   1.945  29.078   3.514 -0.2372 -0.1030 -0.2480
64600W        W 7694   1.408  31.683   1.931 -0.0452 -0.2287 -0.1550
64601W        W 7695   1.771  32.137   0.536  0.0416  0.1539  0.2863
64602W        W 7696   0.770  31.403   2.372 -0.1543  0.1404 -0.0197
64603W        W 7697   4.271  28.051   0.788 -0.0788  0.0787  0.1233
64604W        W 7698   2.660  30.930   1.331  0.0406  0.0427  0.0756
64605W        W 7699   1.153  28.977   1.373 -0.1093 -0.0537 -0.0086
64606W        W 7700   4.394  30.006   2.539  0.4451 -0.0774 -0.1002
64607W        W 7701   2.994  30.433   1.475  0.1899 -0.0968  0.1192
64608W        W 7702   1.457  29.092   3.297  0.3171 -0.0375  0.2691
64609W        W 7703   1.383  29.519   3.004 -0.0616 -0.2242  0.2015
64610W        W 7704   4.010  32.243   1.124 -0.5124 -0.0800 -0.1059
64611W        W 7705  34.510  28.996   4.125 -0.0459  0.3559 -0.2795
64612W        W 7706   2.750  32.861   3.619  0.2923  0.2055 -0.2093
64613W        W 7707   2.149  30.933   3.252  0.2101  0.1301  0.0353
64614W        W 7708   2.910  28.863   0.266 -0.1143 -0.0305 -0.1296
64615W        W 7709   1.351  30.463   1.350  0.2350  0.1497 -0.1203
64616W        W 7710   1.790  31.756   2.246  0.1001  0.1103 -0.0224
64617W        W 7711   4.845  33.131   0.951  0.1331 -0.0821  0.2225
64618W        W 7712   3.483  31.351   0.732 -0.0092  0.1670 -0.0483
64619W        W 7713   2.637  29.775   0.742  0.1632 -0.0334 -0.4452
64620W        W 7714   0.542  31.925   2.305 -0.0250  0.1140  0.1234
64621W        W 7715   2.762  30.270   0.937  0.1211 -0.0209 -0.2058
64622W        W 7716   1.631  30.935   1.256 -0.1282 -0.1078  0.1974
64623W        W 7717   0.475  31.463   0.392  0.2665 -0.0519 -0.0648
64624W        W 7718   0.561  30.189   4.171  0.0697  0.0049  0.1292
64625W        W 7719   2.941  31.324   0.999  0.1220 -0.0088 -0.3098
64626W        W 7720   2.527  29.064   1.334 -0.0835  0.0749 -0.0985
64627W        W 7721   2.874  28.756   2.269  0.2307  0.3693 -0.0208
64628W        W 7722   3.517  29.361   2.310  0.2248  0.0126 -0.2786
64629W        W 7723   1.281  31.462   3.463  0.2624 -0.0081  0.2407
64630W        W 7724  34.086  29.290   4.011 -0.0659  0.0037 -0.0152
64631W        W 7725   4.473  34.243   2.674  0.1575  0.2109  0.2437
64632W        W 7726   4.573  29.628   0.869  0.0128 -0.3747  0.1220
64633W        W 7727   3.183  30.744   2.273 -0.0018  0.2487  0.0168
64634W        W 7728   3.613  30.518   3.719  0.0834  0.1395  0.0324
64635W        W 7729   3.232  30.892   1.243  0.1532 -0.4252  0.1056
64636W        W 7730  34.686  30.442   1.817  0.0668  0.4840  0.0327
64637W        W 7731   3.313  30.978   3.884  0.1350 -0.2519  0.3128
64638W        W 7732   0.939  29.772   0.211 -0.2403  0.1012  0.1623
64639W        W 7733   2.611  30.325   2.958 -0.2282 -0.0163 -0.4636
64640W        W 7734   1.694  32.610  31.854 -0.1311 -0.0379  0.2149
64641W        W 7735   3.059  31.516   2.473  0.2774  0.2307  0.1529
64642W        W 7736   2.735  30.093   1.807  0.0126 -0.1158  0.1382
64643W        W 7737  34.300  30.344   1.050 -0.2298  0.1241 -0.2963
64644W        W 7738   1.200  33.416   2.967 -0.0935 -0.0649  0.0621
64645W        W 7739   1.405  28.539   1.490  0.2969 -0.0913  0.1703
64646W        W 7740   0.782  33.099   0.833  0.2968  0.1612 -0.2271
64647W        W 7741   1.593  32.303   2.314 -0.6294  0.0820  0.0156
64648W        W 7742   4.741  29.989   4.114 -0.0281 -0.0911  0.0177
64649W        W 7743   2.998  28.606   0.713  0.1510 -0.1563  0.0425
64650W        W 7744   4.330  30.099   4.345 -0.0362 -0.2120 -0.0906
64651W        W 7745  34.497  33.703   0.826  0.0572 -0.3071  0.0113
64652W        W 7746   2.586  29.669   2.030 -0.1315 -0.0943  0.1082
64653W        W 7747   2.717  32.746   1.811 -0.0735 -0.2205 -0.0787
64654W        W 7748   0.869  32.234   3.385 -0.1484 -0.1193  0.0198
64655W        W 7749   2.926  31.794   1.893  0.1327 -0.2813  0.2977
64656W        W 7750   1.542  29.369   1.796  0.0229  0.0464 -0.2109
64657W        W 7751   3.207  30.173   1.079  0.5340  0.2124 -0.1768
64658W        W 7752   1.392  30.261   1.768  0.4000 -0.1146 -0.3099
64659W        W 7753   4.397  30.415   3.291 -0.0078  0.2195 -0.2455
64660W        W 7754   2.341  32.697   2.885  0.1139  0.0486  0.0364
64661W        W 7755   0.924  31.444   1.773 -0.1972 -0.1776 -0.1405
64662W        W 7756   2.947  33.236   2.896 -0.0957  0.2391 -0.2125
64663W        W 7757   4.148  32.801   1.490  0.2623  0.1838 -0.0871
64664W        W 7758   1.131  30.764   1.060 -0.1979  0.0395  0.1177
64665W        W 7759  34.217  30.441   2.073 -0.2119  0.2457  0.4131
64666W        W 7760   1.218  31.463   2.937  0.0126  0.1423  0.0456
64667W        W 7761   3.215  32.635   1.600 -0.2580 -0.2078 -0.1224
64668W        W 7762   0.697  29.144   0.651 -0.4801 -0.3502  0.0289
64669W        W 7763   1.859  31.638  31.795 -0.0352  0.1777 -0.1844
64670W        W 7764   1.441  32.421   3.247  0.2933  0.1933 -0.5492
64671W        W 7765  34.062  31.516   3.552  0.1178  0.0660  0.3534
64672W        W 7766   0.888  33.932   0.842 -0.0942 -0.0122  0.1853
64673W        W 7767   3.043  30.857   1.763 -0.3638 -0.1966  0.0728
64674W        W 7768   3.190  30.517   2.930  0.2569 -0.1541 -0.2191
64675W        W 7769   2.463  33.705   1.651 -0.0346 -0.1113  0.1267
64676W        W 7770   2.158  31.244   0.088 -0.4102  0.4833  0.6240
64677W        W 7771   1.550  32.717   2.035  0.1243  0.0286  0.0729
64678W        W 7772   0.268  33.744  31.280  0.1215 -0.2305 -0.0050
64679W        W 7773   2.315  32.186   1.155  0.0915  0.0196 -0.0467
64680W        W 7774   1.266  32.569   0.898 -0.0531 -0.0173  0.0687
64681W        W 7775   2.516  31.588   2.113 -0.1961  0.1412  0.2126
64682W        W 7776   3.561  27.984   0.246 -0.0976 -0.1904 -0.0717
64683W        W 7777   3.773  32.002   1.892 -0.1982  0.0235  0.0784
64684W        W 7778   4.035  30.594   1.468  0.3371  0.0969  0.0368
64685W        W 7779   4.101  32.375   3.674  0.0469  0.1086 -0.3771
64686W        W 7780   0.577  31.072   1.914 -0.1440  0.1143  0.0000
64687W        W 7781   2.416  27.900   0.132 -0.4186 -0.0302  0.2789
64688W        W 7782   1.091  30.045   3.118 -0.2672 -0.1574  0.0852
64689W        W 7783   3.785  28.978   3.273 -0.4061 -0.2307  0.2839
64690W        W 7784   1.022  33.044   4.228  0.1609 -0.0237 -0.1669
64691W        W 7785   2.000  32.428   0.205 -0.0303  0.2807  0.3977
64692W        W 7786   0.701  29.111   1.598  0.0119  0.0126 -0.0788
64693W        W 7787   1.432  31.206   0.732  0.3121 -0.4157 -0.2920
64694W        W 7788   3.558  29.450   3.370  0.1426 -0.2426  0.0570
64695W        W 7789   3.026  31.735   0.043 -0.1538  0.0315 -0.1156
64696W        W 7790   2.728  29.311   1.017 -0.0641  0.1179 -0.0753
64697W        W 7791   1.854  32.144   1.830 -0.0495  0.0246 -0.2107
64698W        W 7792   1.914  30.963   1.789  0.0502 -0.1224  0.1721
64699W        W 7793   2.050  33.024   2.052  0.0939  0.0622  0.3347
64700W        W 7794  33.908  31.813   0.878  0.0707  0.0515 -0.0828
64701W        W 7795   3.681  30.812   3.203  0.2591 -0.1706  0.1468
64702W        W 7796   0.840  31.273   3.735 -0.2864  0.0385 -0.1110
64703W        W 7797   3.622  29.801   2.001 -0.1898 -0.2665  0.0526
64704W        W 7798   2.443  31.316   1.055  0.0246  0.2856 -0.0059
64705W        W 7799   2.957  30.001   3.025 -0.1526  0.1566  0.1614
64706W        W 7800   2.400  30.970   1.811 -0.0819 -0.0509 -0.0149
64707W        W 7801  34.339  30.159   2.826  0.1448 -0.4102 -0.1889
64708W        W 7802   3.242  31.744   1.059  0.1771 -0.1076 -0.1406
64709W        W 7803   3.477  31.500   2.775 -0.2158 -0.2451  0.1515
64710W        W 7804   2.794  32.001   0.421  0.1344  0.2383  0.1631
64711W        W 7805   2.805  33.574   3.451 -0.4614 -0.1038  0.1695
64712W        W 7806   2.218  29.232   0.741 -0.1445  0.1074 -0.1137
64713W        W 7807   2.454  30.275   2.371 -0.4710 -0.0305 -0.1601
64714W        W 7808   1.464  32.221   1.515  0.0084 -0.0587  0.0006
64715W        W 7809   0.930  31.061   2.690  0.0648  0.0977  0.1144
64716W        W 7810   4.592  32.431   4.096  0.3638 -0.0469 -0.1699
64717W        W 7811   0.425  30.123   1.575 -0.1444 -0.1656 -0.0535
64718W        W 7812   4.126  31.187   1.456  0.0813 -0.1016 -0.0570
64719W        W 7813   2.946  28.891   1.662  0.0815 -0.3077  0.1010
64720W        W 7814   0.987  32.002   1.840 -0.1172 -0.1647  0.0360
64721W        W 7815   3.656  30.694   2.094  0.1026  0.0026 -0.2493
64722W        W 7816   3.031  32.578   2.270  0.0085  0.1782  0.0072
64723W        W 7817   0.056  29.137   1.608  0.1985 -0.0036  0.1574
64724W        W 7818   3.144  33.740   2.912 -0.0669  0.2308  0.2091
64725W        W 7819   3.873  31.813   2.337 -0.0077  0.0567 -0.1231
64726W        W 7820   1.458  28.107   1.096  0.0088  0.1295 -0.3392
64727W        W 7821  34.596  31.151   2.834 -0.2661 -0.1142  0.0754
64728W        W 7822   0.192  32.867   0.735  0.1056 -0.3126 -0.0449
64729W        W 7823   3.805  30.230   1.864  0.1193  0.3637  0.4677
64730W        W 7824   2.543  30.966   3.001 -0.0756  0.1353  0.1098
64731W        W 7825   2.672  34.062   0.574 -0.2130  0.1357  0.0845
64732W        W 7826   4.705  28.353   2.927 -0.0405 -0.2052 -0.2705
64733W        W 7827   2.029  31.723   2.759  0.1386 -0.0720 -0.2020
64734W        W 7828   2.224  33.205   1.641  0.0106  0.2884  0.0833
64735W        W 7829   1.218  31.181   0.214  0.0688 -0.1775 -0.0177
64736W        W 7830   2.073  31.373   2.295 -0.1068  0.0861  0.0386
64737W        W 7831   1.726  31.762   1.536  0.2727 -0.2238  0.1867
64738W        W 7832   1.312  33.929   1.985 -0.0124 -0.2726  0.0344
64739W        W 7833   3.788  31.445   1.733 -0.1016 -0.1273  0.0055
64740W        W 7834   2.579  28.906   0.724  0.3287 -0.2603  0.1328
64741W        W 7835   4.689  32.744   1.323 -0.0761 -0.0516  0.0458
64742W        W 7836   1.186  29.504   1.417  0.1447  0.0756 -0.1205
64743W        W 7837   3.192  29.619   1.120  0.2056 -0.1614 -0.1071
64744W        W 7838   4.864  30.557   1.062 -0.1706 -0.0933 -0.0077
64745W        W 7839   1.368  30.852   2.668 -0.3072  0.0873  0.3260
64746W        W 7840  33.676  29.780   0.161 -0.1120  0.1515 -0.0891
64747W        W 7841  33.971  32.827  31.126  0.3028 -0.0601  0.2122
64748W        W 7842   1.181  31.738   1.473 -0.2313 -0.1902  0.4687
64749W        W 7843   2.666  28.507   4.027  0.0469 -0.0160  0.0498
64750W        W 7844   1.186  30.799   3.577  0.2388 -0.0401  0.2187
64751W        W 7845   1.008  30.190   1.013  0.0430  0.4266 -0.2105
64752W        W 7846   0.399  30.564   0.394 -0.3390 -0.1959 -0.1000
64753W        W 7847   4.758  32.683   0.719  0.1793 -0.2417  0.2185
64754W        W 7848   0.150  29.625   2.452 -0.2506 -0.1931  0.0893
64755W        W 7849  34.628  30.647   1.215 -0.2426 -0.0931  0.3383
64756W        W 7850   4.975  31.883   0.799  0.1755  0.0857  0.0330
64757W        W 7851   3.369  34.637   0.528  0.0821 -0.1019  0.0283
64758W        W 7852   1.178  30.018   1.416  0.2192 -0.2045  0.0377
64759W        W 7853   4.540  32.643   3.608  0.1411  0.0454 -0.0384
64760W        W 7854   1.211  30.174   0.523  0.3142 -0.0596  0.1816
64761W        W 7855   2.234  29.486   2.641 -0.0302  0.0525  0.0605
64762W        W 7856   1.391  28.606   3.230 -0.0540  0.1038  0.2774
64763W        W 7857  33.276  28.938   0.098 -0.0544  0.4023 -0.2007
64764W        W 7858   2.121  28.915   1.599  0.0362  0.0427  0.0664
64765W        W 7859   4.185  32.152   1.593  0.3215  0.1872 -0.2461
64766W        W 7860   1.935  32.389   1.366  0.1561 -0.1082 -0.0736
64767W        W 7861   2.760  32.229   1.699 -0.0771  0.0429  0.0885
64768W        W 7862   1.952  33.474   2.437 -0.0131 -0.0313  0.0753
64769W        W 7863   0.687  29.689   4.716 -0.0339  0.2437 -0.1070
64770W        W 7864   3.811  32.829   1.076 -0.2090 -0.0198  0.1589
64771W        W 7865   2.135  33.314   3.063  0.0496 -0.0172  0.0628
64772W        W 7866   2.107  31.636  31.255 -0.1097  0.1747 -0.1540
64773W        W 7867   4.404  31.142   2.207  0.1508 -0.0813 -0.0496
64774W        W 7868   1.844  30.492   1.485  0.0407 -0.0050  0.1132
64775W        W 7869   1.067  28.978   3.626 -0.4414  0.2139 -0.2773
64776W        W 7870   0.794  31.667   3.206  0.0388 -0.2008  0.0626
64777W        W 7871   4.836  30.673   1.988 -0.2464 -0.0187  0.0100
64778W        W 7872  33.625  28.759  31.854 -0.2338  0.2074 -0.2784
64779W        W 7873   2.879  30.333   0.044  0.0930 -0.1661  0.2892
64780W        W 7874   2.814  32.588   1.291  0.0055 -0.0976  0.1262
64781W        W 7875   0.826  30.474   1.420 -0.1190  0.1749  0.1709
64782W        W 7876   1.952  29.491   0.135 -0.0415  0.0921 -0.0361
64783W        W 7877   1.048  30.967   1.566 -0.0966 -0.0953  0.1586
64784W        W 7878   1.794  31.656   0.710  0.1497  0.1789 -0.1431
64785W        W 7879   2.842  30.688   3.271 -0.2226  0.2504  0.2205
64786W        W 7880   1.774  30.034   1.219 -0.0688  0.3291  0.0505
64787W        W 7881   3.188  32.127   0.711  0.0457 -0.0685  0.1150
64788W        W 7882   3.477  33.348   2.787 -0.0703  0.0182 -0.1848
64789W        W 7883   3.141  33.711   4.728 -0.0313 -0.1699  0.0318
64790W        W 7884   2.097  32.406   2.503  0.1490 -0.1103 -0.4398
64791W        W 7885   2.882  31.177   2.100 -0.0573  0.1983 -0.1371
64792W        W 7886   0.090  30.114   2.544  0.0882  0.2106 -0.0897
64793W        W 7887   2.285  29.874   1.632 -0.1910  0.1486 -0.1397
64794W        W 7888   1.741  30.478   2.069 -0.0836  0.0301  0.1278
64795W        W 7889   2.038  31.141   2.737 -0.0834  0.0096 -0.0335
64796W        W 7890   1.725  29.967   1.734  0.0264 -0.2058 -0.0714
64797W        W 7891   2.233  29.064  31.869 -0.4365 -0.1988 -0.2207
64798W        W 7892   3.094  34.004   2.458 -0.0158  0.2177 -0.0863
64799W        W 7893   2.096  30.092   2.681 -0.0993 -0.2600 -0.0074
64800W        W 7894   0.832  30.998   6.309 -0.0159  0.0086 -0.1656
64801W        W 7895   0.217  30.833   5.246  0.3109  0.3185 -0.2737
64802W        W 7896   2.543  30.386   4.033  0.2464  0.0701 -0.0384
64803W        W 7897   4.262  31.225   5.400 -0.1421 -0.6942 -0.0068
64804W        W 7898  34.565  30.871   6.071 -0.1818  0.2477  0.1964
64805W        W 7899   2.155  33.902   4.961 -0.1249 -0.1665  0.1092
64806W        W 7900   1.607  28.790   7.061  0.2435 -0.1985  0.2681
64807W        W 7901   3.577  31.660   4.578 -0.0678 -0.0918  0.0455
64808W        W 7902   3.901  31.291   5.728 -0.0398  0.0220 -0.2132
64809W        W 7903   2.995  31.473   3.624 -0.3080  0.1610  0.0615
64810W        W 7904   1.902  31.188   5.151  0.1150  0.0964 -0.3243
64811W        W 7905   1.801  31.663   5.313  0.2223 -0.2168 -0.0656
64812W        W 7906   1.996  29.927   4.509  0.1148 -0.1781  0.2237
64813W        W 7907   0.386  29.486   5.023 -0.3531  0.0128 -0.1278
64814W        W 7908   2.973  28.641   6.269  0.0124 -0.1795  0.1769
64815W        W 7909   1.645  32.326   3.727  0.0064  0.2400 -0.4372
64816W        W 7910   0.539  29.747   5.827  0.0898  0.0111 -0.0375
64817W        W 7911   2.033  30.391   4.336  0.0258  0.1357  0.0736
64818W        W 7912   2.288  30.774   4.394  0.4185  0.2883 -0.0629
64819W        W 7913   2.074  29.512   7.180 -0.0386  0.0392 -0.1970
64820W        W 7914   2.399  29.904   5.389 -0.0851  0.1846 -0.2370
64821W        W 7915   2.663  31.483   4.000  0.0130 -0.0035  0.1394
64822W        W 7916   2.558  31.975   3.943 -0.4008  0.0726  0.0786
64823W        W 7917   0.881  29.523   5.396  0.0280  0.0112 -0.3958
64824W        W 7918   1.004  30.610   5.525 -0.0527  0.1321 -0.2413
64825W        W 7919   2.643  30.400   5.903  0.0414 -0.2837  0.0632
64826W        W 7920   4.600  30.462   7.275 -0.0167  0.1391  0.0630
64827W        W 7921   3.894  31.249   3.388 -0.3076  0.4412 -0.0188
64828W        W 7922   3.493  31.555   5.727  0.1229  0.2411  0.2316
64829W        W 7923   2.842  29.166   6.410  0.0041  0.1446  0.1858
64830W        W 7924   1.407  31.673   5.573  0.3430  0.3284  0.2107
64831W        W 7925  34.495  33.242   5.135 -0.0143 -0.2868  0.2232
64832W        W 7926   0.867  32.156   3.935  0.0540  0.2482  0.2091
64833W        W 7927   4.610  31.281   4.986  0.1923  0.0573  0.1699
64834W        W 7928   3.244  30.543   6.585  0.0363 -0.2648 -0.3722
64835W        W 7929   1.905  33.245   6.385  0.2256  0.0379  0.2349
64836W        W 7930   0.485  31.961   4.743  0.1740  0.2756  0.1919
64837W        W 7931   1.807  31.341   6.275  0.0448 -0.0091  0.1414
64838W        W 7932   1.528  32.558   6.749 -0.0790 -0.0639 -0.1832
64839W        W 7933   2.171  30.551   4.787  0.0101  0.0406  0.0848
64840W        W 7934   2.996  30.062   5.767  0.0780  0.0470  0.1378
64841W        W 7935   1.308  31.529   4.488  0.1238  0.1677 -0.0550
64842W        W 7936   2.669  30.705   4.757  0.1748  0.0209 -0.2402
64843W        W 7937   1.460  30.935   6.965  0.0976  0.2021  0.1833
64844W        W 7938   0.635  31.628   5.633 -0.0986 -0.1013 -0.2087
64845W        W 7939   2.868  29.598   5.657 -0.3565 -0.1011 -0.0807
64846W        W 7940   1.172  32.021   3.070 -0.1554 -0.3666  0.2521
64847W        W 7941   4.400  31.299   3.678  0.0023  0.0771  0.1509
64848W        W 7942   1.792  29.746   2.895 -0.2496 -0.0789  0.0609
64849W        W 7943   2.806  29.890   3.936  0.1240  0.3493 -0.1068
64850W        W 7944   1.778  28.401   5.205 -0.1260  0.0273 -0.0321
64851W        W 7945   2.655  32.888   5.084 -0.2968 -0.0635 -0.1234
64852W        W 7946   0.401  30.093   4.635  0.0390 -0.1824  0.0270
64853W        W 7947   3.333  29.350   6.924 -0.0581 -0.1203  0.1453
64854W        W 7948   2.437  31.085   4.960 -0.0956 -0.2260  0.1511
64855W        W 7949   2.135  28.931   4.757 -0.4033  0.3166  0.0923
64856W        W 7950   0.848  31.925   6.898  0.1102  0.2127 -0.0496
64857W        W 7951   1.392  31.058   4.461 -0.0858 -0.0859  0.2148
64858W        W 7952   2.278  30.955   3.916  0.3097 -0.0289  0.2246
64859W        W 7953   4.080  31.518   4.615 -0.1307  0.0630 -0.1939
64860W        W 7954   2.625  31.762   2.587 -0.2762  0.1476 -0.0942
64861W        W 7955   1.763  31.375   4.172  0.0454 -0.4748 -0.3241
64862W        W 7956   0.853  30.406   6.565 -0.0296  0.1493  0.1615
64863W        W 7957   0.485  28.696   7.937  0.0002  0.2073  0.0656
64864W        W 7958   1.744  28.673   2.442 -0.1587  0.2986 -0.3143
64865W        W 7959   3.112  30.887   5.090 -0.2213 -0.0835 -0.0049
64866W        W 7960   1.110  32.171   6.529 -0.0520 -0.0020 -0.0492
64867W        W 7961   4.045  29.556   5.282 -0.1101 -0.3442 -0.2032
64868W        W 7962   1.011  31.175   4.828  0.1069  0.2085  0.0006
64869W        W 7963   3.706  31.403   6.178  0.2059 -0.0757  0.0228
64870W        W 7964   2.713  30.178   3.537 -0.2969  0.2629  0.5606
64871W        W 7965   3.443  28.346   5.056  0.3669  0.2885  0.1190
64872W        W 7966   3.116  28.626   5.741  0.0798  0.1780 -0.1136
64873W        W 7967   1.727  30.742   2.988 -0.0535  0.4240  0.1171
64874W        W 7968   2.253  31.263   4.296  0.2196  0.2004 -0.2544
64875W        W 7969   3.833  32.013   6.187  0.1826  0.0769  0.1343
64876W        W 7970   3.954  29.708   4.229 -0.1128  0.1482  0.0126
64877W        W 7971   1.771  32.507   5.381  0.2096 -0.2229 -0.2462
64878W        W 7972   1.183  30.703   5.977 -0.1470 -0.1592 -0.4726
64879W        W 7973   2.430  31.484   6.114  0.4576 -0.1824 -0.0790
64880W        W 7974   0.558  32.550   3.720  0.1052  0.0972  0.2989
64881W        W 7975   0.297  30.142   5.735  0.1438  0.0879  0.2066
64882W        W 7976   0.229  31.600   3.780  0.3706  0.1297  0.1866
64883W        W 7977   0.498  28.794   6.025  0.2796  0.4220 -0.0678
64884W        W 7978   1.896  30.361   6.650  0.0708 -0.2054  0.0130
64885W        W 7979   3.791  29.781   4.717 -0.0451 -0.1007 -0.0074
64886W        W 7980   1.350  30.207   5.313 -0.1296  0.0369 -0.0151
64887W        W 7981   2.556  28.757   5.935  0.0571 -0.2031  0.2616
64888W        W 7982   1.822  30.853   4.128 -0.1318  0.1191  0.3245
64889W        W 7983   4.168  32.026   4.343 -0.1694 -0.0333 -0.0130
64890W        W 7984   3.941  29.559   3.659  0.1710 -0.1348  0.0405
64891W        W 7985   2.834  30.909   3.828 -0.2771  0.3295 -0.2281
64892W        W 7986  34.121  30.861   6.335 -0.0582  0.0058 -0.1872
64893W        W 7987   0.704  30.316   3.192 -0.1278  0.0941 -0.1048
64894W        W 7988   0.971  29.953   6.344  0.2965  0.0327 -0.0064
64895W        W 7989   0.792  30.098   5.570 -0.0153  0.0535 -0.0963
64896W        W 7990   3.750  30.661   6.913 -0.0576  0.0319  0.2255
64897W        W 7991   0.867  29.265   4.946 -0.0784  0.0876 -0.1579
64898W        W 7992   2.947  29.677   6.148 -0.1368 -0.5144 -0.0939
64899W        W 7993   1.777  30.088   3.709 -0.0069  0.3702 -0.1582
64900W        W 7994   0.409  31.420   4.454 -0.1922  0.3628 -0.0995
64901W        W 7995   3.842  28.672   7.345 -0.0614  0.0094 -0.1549
64902W        W 7996   1.757  31.458   3.082  0.1907  0.3333 -0.1283
64903W        W 7997   3.708  30.873   5.976 -0.1489 -0.1658 -0.0929
64904W        W 7998   2.678  31.949   4.462  0.0998 -0.3659  0.0754
64905W        W 7999   1.059  30.207   8.222  0.0188 -0.0424 -0.0045
64906W        W 8000   1.359  29.824   3.944 -0.0811 -0.0421 -0.1305
64907W        W 8001   0.912  32.535   5.477 -0.0078  0.2141  0.1697
64908W        W 8002   2.052  30.794   5.599 -0.0023 -0.1498 -0.0874
64909W        W 8003   2.069  28.679   3.888 -0.0615  0.1577 -0.2820
64910W        W 8004   3.312  32.500   6.513  0.2051 -0.0244 -0.0862
64911W        W 8005   4.051  31.524   3.981  0.1089 -0.1348  0.1610
64912W        W 8006   0.114  31.971   6.425  0.0277  0.2700 -0.2294
64913W        W 8007   2.918  29.118   5.862  0.0923 -0.0341  0.1096
64914W        W 8008   4.763  30.751   6.935 -0.2009 -0.0594  0.0665
64915W        W 8009   3.140  30.491   4.733  0.1943 -0.1952 -0.2006
64916W        W 8010   1.899  28.455   3.455  0.2782  0.2676 -0.1484
64917W        W 8011   3.848  31.586   5.327  0.1232 -0.0019  0.1089
64918W        W 8012   1.130  32.565   3.629 -0.1076  0.1368  0.2539
64919W        W 8013   0.343  31.131   4.885  0.0858  0.1196 -0.1494
64920W        W 8014   0.936  32.173   4.581 -0.3554  0.0670  0.2704
64921W        W 8015   2.292  30.054   4.893  0.1761 -0.1524 -0.0627
64922W        W 8016   0.103  30.402   6.113  0.0991  0.2338 -0.1487
64923W        W 8017   4.447  29.861   5.305  0.1120  0.0063  0.2100
64924W        W 8018   0.236  30.342   3.746  0.3961  0.2727  0.1295
64925W        W 8019   1.057  31.543   7.392 -0.0172  0.2198 -0.0702
64926W        W 8020   2.267  29.982   3.748  0.2044 -0.0555 -0.1393
64927W        W 8021   4.298  27.783   3.574 -0.0141 -0.1212 -0.0135
64928W        W 8022   2.134  31.091   6.020 -0.3068 -0.1547 -0.0446
64929W        W 8023   3.314  31.453   3.243  0.0396  0.2884  0.0361
64930W        W 8024   3.449  30.360   2.432  0.1653  0.2937  0.0280
64931W        W 8025   2.413  29.526   3.891  0.3624  0.1627  0.0122
64932W        W 8026   1.027  31.042   6.827 -0.2808 -0.0233 -0.0077
64933W        W 8027   2.163  31.517   3.786  0.1382  0.3577  0.2490
64934W        W 8028   1.901  30.342   5.260 -0.3207 -0.4187 -0.0029
64935W        W 8029   1.818  29.188   2.199 -0.1992  0.1544  0.1391
64936W        W 8030   4.621  32.192   3.390  0.0908 -0.4592 -0.1794
64937W        W 8031  34.180  32.306   5.670 -0.1115  0.0544 -0.3128
64938W        W 8032   2.304  30.948   7.003 -0.0660  0.0872  0.1918
64939W        W 8033   3.130  32.108   4.719 -0.2466  0.0797 -0.0023
64940W        W 8034   1.451  28.842   5.838  0.0902  0.1333 -0.1290
64941W        W 8035   2.098  29.952   3.245  0.2138  0.0833 -0.0810
64942W        W 8036   1.834  29.823   5.347  0.2793  0.3244  0.0797
64943W        W 8037  34.457  33.453   4.256 -0.0339  0.0676 -0.4441
64944W        W 8038   1.770  29.197   6.105 -0.0300  0.4174  0.0165
64945W        W 8039   2.138  29.518   6.281 -0.5296  0.2408  0.0050
64946W        W 8040   2.796  28.332   7.387 -0.0883 -0.0944  0.0376
64947W        W 8041   4.712  30.945   8.394  0.0266 -0.0523  0.1432
64948W        W 8042   3.437  29.856   4.277 -0.3630 -0.0472  0.2965
64949W        W 8043   2.403  30.137   6.343  0.2181  0.3234  0.0546
64950W        W 8044   0.361  29.899   3.512  0.1942 -0.1724  0.3645
64951W        W 8045   1.322  29.793   5.531  0.2721 -0.2288  0.4723
64952W        W 8046   0.862  29.198   6.852  0.3378 -0.1325 -0.1474
64953W        W 8047   1.176  32.357   8.292 -0.2214  0.0954  0.2634
64954W        W 8048   2.620  31.013   6.069  0.0927 -0.0507 -0.3402
64955W        W 8049   3.263  30.309   3.461  0.2652 -0.1315 -0.4004
64956W        W 8050   2.073  29.611   5.810  0.2789  0.3606  0.0136
64957W        W 8051   2.867  29.046   3.207  0.1098 -0.0464 -0.0168
64958W        W 8052   1.949  34.124   3.971  0.1936 -0.0467 -0.0949
64959W        W 8053   1.675  31.598   3.739  0.0706  0.0334 -0.0607
64960W        W 8054   1.694  28.379   5.761  0.4143  0.0312  0.1135
64961W        W 8055   1.803  30.800   4.641  0.1843 -0.0370 -0.2898
64962W        W 8056   1.610  31.324   2.607  0.2528 -0.0701  0.2693
64963W        W 8057   3.434  30.337   5.952 -0.2353  0.1132 -0.1054
64964W        W 8058   0.283  32.108   3.856 -0.4710 -0.3109  0.0989
64965W        W 8059   2.977  28.788   4.938  0.3532 -0.1424  0.0367
64966W        W 8060   0.424  31.909   5.295  0.0494  0.2276 -0.0804
64967W        W 8061   2.972  28.605   3.420 -0.1038 -0.0076  0.2414
64968W        W 8062   0.274  30.941   4.430  0.0131 -0.0211 -0.0397
64969W        W 8063   2.583  29.177   4.859 -0.0255  0.2158  0.3516
64970W        W 8064   3.869  31.846   3.645  0.1800  0.0492  0.0431
64971W        W 8065   0.943  29.906   5.097 -0.0974 -0.2231  0.0524
64972W        W 8066   2.415  29.339   5.451 -0.1620  0.3628  0.0882
64973W        W 8067   0.997  32.018   5.369  0.1622 -0.1414 -0.4261
64974W        W 8068   2.248  30.732   6.536 -0.1078 -0.1028 -0.0947
64975W        W 8069   4.151  29.099   3.637 -0.0656  0.0920 -0.2403
64976W        W 8070   2.778  33.147   6.008  0.1784  0.0033  0.1727
64977W        W 8071   1.166  29.560   6.640 -0.0378 -0.2808 -0.0692
64978W        W 8072   0.894  31.310   4.316 -0.2891  0.1177 -0.0357
64979W        W 8073   3.139  29.817   7.112  0.0915 -0.2355  0.3046
64980W        W 8074   2.106  29.385   4.429 -0.0720 -0.2315  0.1883
64981W        W 8075   0.061  33.068   4.084  0.0992 -0.2213 -0.1151
64982W        W 8076   2.641  32.314   5.297  0.0859  0.0971  0.0830
64983W        W 8077   0.567  30.704   4.030  0.2284  0.0147  0.1505
64984W        W 8078   1.761  32.813   4.944 -0.0460 -0.2954  0.3392
64985W        W 8079   1.348  29.089   6.655  0.0634 -0.0443  0.0199
64986W        W 8080   3.490  30.206   6.943  0.1533 -0.0122  0.3500
64987W        W 8081   2.434  29.206   3.463  0.1715  0.0831  0.1138
64988W        W 8082   1.594  29.443   3.700 -0.3442 -0.1107  0.1496
64989W        W 8083   2.938  30.711   4.309 -0.4608 -0.1836 -0.0964
64990W        W 8084   3.739  31.069   5.328 -0.1436  0.0968 -0.3766
64991W        W 8085   1.501  30.621   5.060  0.0668 -0.1356  0.1712
64992W        W 8086   2.108  31.730   6.442 -0.1875  0.0434  0.0391
64993W        W 8087   2.289  28.548   4.314 -0.1696 -0.0846 -0.1584
64994W        W 8088   3.182  29.789   6.616  0.3228  0.1666  0.1588
64995W        W 8089   1.570  31.830   4.137  0.2253  0.0900 -0.0040
64996W        W 8090  34.072  30.922   5.859  0.2123 -0.2414 -0.0015
64997W        W 8091   1.878  31.017   3.653 -0.1957 -0.0108 -0.0976
64998W        W 8092   1.917  27.984   5.477 -0.0351  0.1359 -0.0364
64999W        W 8093   0.752  31.125   5.699 -0.0963  0.1798 -0.0535
65000W        W 8094   0.569  33.283   3.383 -0.0584 -0.1799 -0.2827
65001W        W 8095   1.224  31.695   6.390 -0.4176 -0.2769 -0.2669
65002W        W 8096   4.391  28.522   4.485  0.0471  0.4938 -0.0879
65003W        W 8097   2.632  31.938   3.135  0.1935 -0.1181  0.0423
65004W        W 8098   1.438  30.524   3.973 -0.1530  0.0660  0.1742
65005W        W 8099   4.013  28.975   6.238  0.0295 -0.0140 -0.4406
65006W        W 8100   2.452  30.624   3.565 -0.0622 -0.0109  0.0869
65007W        W 8101   1.569  28.951   5.338  0.1966 -0.1548 -0.3114
65008W        W 8102   1.630  29.491   5.682  0.1385 -0.0085 -0.1410
65009W        W 8103   3.109  31.573   4.763  0.0736  0.2969 -0.1424
65010W        W 8104   0.638  28.828   6.597  0.3152 -0.3361  0.1173
65011W        W 8105   2.474  32.417   6.488 -0.1903 -0.0951  0.2238
65012W        W 8106   1.194  30.175   5.949 -0.1288 -0.2684 -0.0619
65013W        W 8107   2.798  30.208   4.982 -0.0497 -0.1150 -0.1297
65014W        W 8108   1.194  30.630   3.070  0.2284  0.1893  0.1326
65015W        W 8109   2.309  31.304   5.585  0.0762  0.2120  0.0839
65016W        W 8110   2.822  31.319   6.440 -0.0511  0.1309 -0.0744
65017W        W 8111   2.574  30.283   4.519  0.4182 -0.0896  0.3700
65018W        W 8112   2.541  29.457   5.988  0.0057 -0.1143 -0.2777
65019W        W 8113   0.973  30.531   7.141 -0.3566 -0.2390  0.0343
65020W        W 8114   3.556  30.088   5.514 -0.1509 -0.1787 -0.1332
65021W        W 8115   2.036  29.574   3.530  0.1525 -0.1972  0.1396
65022W        W 8116   1.263  30.202   3.556  0.0751  0.1287 -0.0027
65023W        W 8117   1.159  29.261   5.678 -0.0707  0.0879 -0.1316
65024W        W 8118   3.620  31.260   4.846  0.4278  0.1311 -0.2245
65025W        W 8119   3.396  29.805   6.018 -0.3043 -0.3435  0.1797
65026W        W 8120   2.021  30.516   3.798  0.0170 -0.2643  0.3207
65027W        W 8121   2.624  29.707   6.990  0.2085 -0.2264  0.0399
65028W        W 8122   1.475  29.786   6.998  0.0851 -0.0272  0.1296
65029W        W 8123   0.747  29.180   5.921  0.3191 -0.1106 -0.3656
65030W        W 8124   3.698  32.293   6.730  0.0007 -0.0405  0.0025
65031W        W 8125   3.946  30.225   3.966 -0.0098  0.1424 -0.0344
65032W        W 8126   3.623  29.148   6.586 -0.3461 -0.4686 -0.1769
65033W        W 8127   2.789  31.186   4.584  0.0645 -0.2808 -0.2378
65034W        W 8128   1.887  29.733   4.001 -0.1738  0.0074 -0.0646
65035W        W 8129   0.576  30.458   5.296  0.0790  0.0784 -0.0091
65036W        W 8130   2.051  30.592   6.095 -0.0557 -0.0960 -0.2522
65037W        W 8131   1.407  31.067   3.180 -0.0277 -0.0955  0.0832
65038W        W 8132   2.844  29.239   6.954 -0.2195  0.2955  0.0831
65039W        W 8133   1.940  32.378   3.345  0.4436 -0.1472 -0.0836
65040W        W 8134   2.470  31.530   4.668 -0.0425 -0.0026 -0.1031
65041W        W 8135   3.032  30.074   4.385  0.0384 -0.1238  0.2081
65042W        W 8136   1.238  28.930   4.917  0.1747  0.1393  0.0240
65043W        W 8137   1.508  32.117   7.636  0.1582 -0.1790  0.0308
65044W        W 8138   1.089  30.875   4.084  0.0830 -0.2750 -0.1715
65045W        W 8139   1.841  30.871   2.405 -0.0024 -0.2000  0.0055
65046W        W 8140   2.296  31.606   5.161 -0.0847  0.1229  0.1907
65047W        W 8141   2.706  30.951   7.296 -0.1233 -0.0004  0.0131
65048W        W 8142   2.032  29.326   3.041  0.3185 -0.2176  0.3426
65049W        W 8143   2.766  28.813   7.322 -0.0203  0.0145  0.1420
65050W        W 8144   0.857  33.078   5.504 -0.4123  0.1091  0.1506
65051W        W 8145   2.506  28.496   5.061 -0.3295  0.0956  0.2014
65052W        W 8146   0.572  32.318   6.615 -0.0007 -0.0755 -0.0047
65053W        W 8147   0.228  31.245   6.390 -0.1755  0.0616  0.0326
65054W        W 8148   1.074  31.853   5.870  0.3755  0.0585 -0.3266
65055W        W 8149   1.660  30.051   5.785  0.1472 -0.1663  0.2210
65056W        W 8150   2.830  29.574   5.087  0.1315 -0.2632  0.2726
65057W        W 8151   1.921  31.326   4.639 -0.0859 -0.1867 -0.0838
65058W        W 8152   4.105  29.374   6.700  0.0682  0.1222  0.0367
65059W        W 8153   2.619  30.917   5.437  0.2147  0.2491 -0.1751
65060W        W 8154  34.539  31.359   6.040 -0.1066 -0.1346  0.1433
65061W        W 8155   3.457  31.940   6.982  0.2622 -0.1688  0.0770
65062W        W 8156   2.851  31.312   5.166 -0.0612  0.2162  0.0466
65063W        W 8157   2.279  33.390   6.122  0.1983  0.0810 -0.1927
65064W        W 8158   0.213  29.363   5.983  0.4354 -0.0025  0.0846
65065W        W 8159   2.607  29.695   6.512 -0.2549 -0.2242  0.0354
65066W        W 8160   2.909  30.240   6.812  0.2670  0.0135 -0.0305
65067W        W 8161   1.536  29.542   4.324  0.1752  0.1969  0.0352
65068W        W 8162   2.023  32.018   3.818 -0.0104 -0.3065 -0.0950
65069W        W 8163   2.292  32.541   7.828 -0.3453  0.1229 -0.2783
65070W        W 8164   1.406  32.227   6.162 -0.5131 -0.1486  0.1109
65071W        W 8165   1.682  32.783   3.553 -0.0261 -0.0207  0.1061
65072W        W 8166   4.420  32.020   3.863 -0.1525  0.0879  0.1729
65073W        W 8167   2.487  33.170   2.646  0.3893  0.0972 -0.0756
65074W        W 8168   2.147  32.829   5.943 -0.1024  0.2652  0.2319
65075W        W 8169   2.543  29.375   2.989  0.0191  0.1141 -0.1171
65076W        W 8170   1.706  32.318   4.893 -0.0730 -0.4142  0.0978
65077W        W 8171   0.917  31.060   3.264  0.3123  0.0144  0.2415
65078W        W 8172   2.260  32.248   4.290 -0.0640 -0.4195 -0.0152
65079W        W 8173   1.632  31.844   4.728 -0.4820  0.0167 -0.0433
65080W        W 8174   3.129  30.813   6.174 -0.2443 -0.2655 -0.2543
65081W        W 8175   4.527  27.340   3.658  0.2092  0.0013  0.0812
65082W        W 8176   3.293  30.399   5.266  0.1025  0.0932 -0.1813
65083W        W 8177   4.550  29.308   3.418 -0.0496  0.0829  0.1278
65084W        W 8178   2.271  31.644   6.966  0.2195 -0.1085 -0.0915
65085W        W 8179   1.081  30.081   6.912  0.0281  0.0204  0.0521
65086W        W 8180   1.563  29.862   3.358 -0.1319  0.1765  0.0573
65087W        W 8181   1.745  31.257   5.606  0.0333  0.0541 -0.0052
65088W        W 8182   3.167  29.360   7.394  0.0220  0.1414  0.1950
65089W        W 8183   0.040  32.524   7.654  0.1199 -0.1872  0.0577
65090W        W 8184   3.379  32.220   3.713  0.0845 -0.1849 -0.0312
65091W        W 8185   0.487  29.956   5.140  0.2233 -0.2551  0.0044
65092W        W 8186   0.922  33.561   4.147 -0.1724 -0.1620  0.0268
65093W        W 8187   3.313  29.386   5.743 -0.1721 -0.3115  0.0171
65094W        W 8188   2.245  32.124   2.922 -0.3498  0.0654 -0.0549
65095W        W 8189   1.570  29.239   4.771 -0.2525  0.5039  0.1872
65096W        W 8190   2.193  32.018   4.766  0.1257  0.2479 -0.1628
65097W        W 8191   2.453  32.953   6.366  0.0179  0.0667 -0.2827
65098W        W 8192   1.506  31.399   4.987  0.0644  0.2257 -0.1567
65099W        W 8193  34.542  29.335   3.789 -0.3309 -0.2280  0.2822
65100W        W 8194   3.028  30.379   3.943  0.0292 -0.0567  0.1878
65101W        W 8195   1.596  30.577   5.626  0.0030  0.1105  0.1884
65102W        W 8196   4.169  29.894   5.739  0.0554  0.1111 -0.0252
65103W        W 8197   1.427  31.163   3.851  0.4355  0.2234  0.1048
65104W        W 8198   2.884  29.372   3.762  0.0877 -0.1058  0.4268
65105W        W 8199   2.521  31.794   5.560 -0.3165  0.1459 -0.0632
65106W        W 8200   1.548  30.452   6.166  0.1225 -0.2556  0.0041
65107W        W 8201   2.267  31.415   3.103  0.0237 -0.1352  0.1794
65108W        W 8202   3.869  31.479   7.656 -0.2816 -0.0329 -0.2207
65109W        W 8203   1.304  29.904   2.624 -0.0784  0.2053  0.0777
65110W        W 8204   4.177  32.211   7.612  0.1574 -0.1770  0.2664
65111W        W 8205   0.863  30.793   4.505 -0.0330  0.2722 -0.0078
65112W        W 8206   3.101  29.776   3.519  0.0895 -0.0200 -0.2649
65113W        W 8207  34.043  31.989   3.739 -0.2081 -0.2067 -0.1169
65114W        W 8208   1.631  31.744   6.094 -0.0065  0.0161  0.0285
65115W        W 8209   3.318  31.068   6.613 -0.2483  0.1631  0.0671
65116W        W 8210   0.191  29.614   5.462 -0.0321  0.0314  0.3064
65117W        W 8211   4.000  32.110   3.231 -0.0660 -0.2766  0.1186
65118W        W 8212   4.147  31.063   4.827  0.1574 -0.0418  0.2065
65119W        W 8213   1.129  32.634   2.377  0.1084  0.1399 -0.0200
65120W        W 8214   2.367  30.531   5.256 -0.0012  0.1203  0.1911
65121W        W 8215   3.187  31.279   6.066 -0.0281 -0.0135 -0.3883
65122W        W 8216  34.507  31.257   5.145  0.0247  0.1130 -0.1134
65123W        W 8217   2.874  31.733   6.037 -0.2064  0.0154 -0.2086
65124W        W 8218   4.466  29.487   5.696 -0.2551 -0.2900 -0.1136
65125W        W 8219   3.026  29.175   5.312 -0.1199  0.2289 -0.1414
65126W        W 8220   1.387  30.997   5.456 -0.2756 -0.2958 -0.1031
65127W        W 8221   0.433  33.243   5.616  0.0923 -0.1950 -0.0300
65128W        W 8222   4.167  30.825   5.738  0.1368 -0.2103 -0.1066
65129W        W 8223   4.720  29.700   4.909  0.2171 -0.1813 -0.2394
65130W        W 8224   1.736  33.266   3.299  0.1285 -0.0391 -0.0310
65131W        W 8225   3.667  29.119   8.113  0.2529 -0.1374  0.3675
65132W        W 8226   3.159  31.534   6.851  0.0695 -0.0829 -0.0298
65133W        W 8227   1.259  31.536   6.938 -0.0821  0.0568 -0.2789
65134W        W 8228   0.676  31.586   5.070  0.0186  0.2842 -0.0174
65135W        W 8229   1.683  30.799   7.429 -0.1495 -0.2637 -0.1294
65136W        W 8230   0.357  31.268   5.365  0.0989  0.1834 -0.1144
65137W        W 8231   1.196  33.101   3.362  0.0950 -0.1195  0.0125
65138W        W 8232   3.324  31.028   5.582 -0.0089  0.0709  0.0349
65139W        W 8233   2.409  29.864   4.252 -0.1348 -0.3369  0.1685
65140W        W 8234   4.905  30.229   3.438 -0.0638 -0.2246 -0.1460
65141W        W 8235   2.207  29.571   4.915 -0.1187  0.3409  0.1233
65142W        W 8236   4.881  28.707   4.807  0.2649  0.3638 -0.1001
65143W        W 8237   2.598  29.404   4.365  0.0489  0.3038 -0.0366
65144W        W 8238   0.520  32.238   7.078 -0.2636  0.1011 -0.0486
65145W        W 8239  34.543  30.055   3.748  0.1298 -0.0136 -0.1344
65146W        W 8240   0.886  31.774   2.692  0.1117 -0.2178 -0.0005
65147W        W 8241   0.271  31.147   5.925  0.0372 -0.0929 -0.1882
65148W        W 8242   2.338  29.059   6.300  0.1890 -0.1476  0.0706
65149W        W 8243   1.470  30.076   6.544  0.1960  0.2717 -0.0781
65150W        W 8244   0.819  31.478   6.127 -0.0677 -0.0037  0.0534
65151W        W 8245   1.429  29.089   4.158  0.2893 -0.2727 -0.0811
65152W        W 8246   3.527  31.827   5.023 -0.3550 -0.1703 -0.0733
65153W        W 8247   1.730  30.293   4.771  0.0422  0.0564 -0.2653
65154W        W 8248  34.148  29.711   3.627  0.1026  0.3741 -0.0081
65155W        W 8249   4.073  30.614   4.245  0.3497  0.1115 -0.2830
65156W        W 8250   4.491  31.717   4.760 -0.2651 -0.0694  0.0041
65157W        W 8251   3.405  29.024   3.976 -0.1929 -0.0072  0.1510
65158W        W 8252   2.415  31.780   8.954 -0.3225  0.0055  0.1257
65159W        W 8253   0.111  31.554   3.077  0.0546 -0.1896 -0.0281
65160W        W 8254   2.668  30.637   6.383 -0.2476  0.0587  0.0843
65161W        W 8255   1.873  30.065   6.222 -0.0277 -0.3330 -0.3514
65162W        W 8256  33.934  30.290   1.662 -0.0848  0.1153 -0.1984
65163W        W 8257   1.265  30.133   4.757 -0.1972  0.0238  0.1416
65164W        W 8258   2.803  31.471   2.993  0.1167 -0.2910 -0.0573
65165W        W 8259   2.535  33.068   3.200  0.0853  0.2072 -0.1818
65166W        W 8260   1.301  31.297   5.924  0.2523  0.0140  0.2491
65167W        W 8261   2.912  32.282   6.290  0.0750  0.1516 -0.0267
65168W        W 8262   0.600  28.247   5.853 -0.1362 -0.3608 -0.0924
65169W        W 8263   3.439  30.649   4.229 -0.1077  0.1046  0.0711
65170W        W 8264   1.751  30.847   6.521 -0.0108  0.1513 -0.3016
65171W        W 8265   4.270  29.970   3.540 -0.1236  0.2215  0.1575
65172W        W 8266   3.391  28.813   5.272 -0.0907  0.2887 -0.1484
65173W        W 8267   2.548  31.682   3.557  0.0835 -0.0732  0.0194
65174W        W 8268   0.941  27.793   5.724 -0.3539 -0.1361 -0.0427
65175W        W 8269   1.586  32.009   6.585  0.2491  0.1882  0.1060
65176W        W 8270   2.992  30.163   6.310 -0.0035 -0.1099  0.0962
65177W        W 8271   1.993  28.723   6.019  0.0134  0.0128  0.0303
65178W        W 8272   3.481  30.142   4.902  0.1941  0.1059 -0.1817
65179W        W 8273   3.515  31.885   3.303 -0.0642  0.2649  0.0224
65180W        W 8274  33.756  29.863   5.368  0.0404  0.1230 -0.2157
65181W        W 8275   2.604  29.773   4.661 -0.1490  0.0056  0.1632
65182W        W 8276   1.377  31.224   6.478 -0.0187 -0.2254  0.2853
65183W        W 8277   1.141  31.791   4.916  0.0262  0.0534 -0.2332
65184W        W 8278   1.645  30.944   5.992 -0.2124 -0.0776 -0.1464
65185W        W 8279   1.361  30.548   4.489 -0.1747 -0.2424  0.0859
65186W        W 8280   3.811  31.071   3.890 -0.0246 -0.3054  0.1135
65187W        W 8281   2.680  31.744   6.613  0.0817 -0.1124  0.1179
65188W        W 8282   3.028  32.081   6.749 -0.1119  0.1074  0.0996
65189W        W 8283   3.358  31.396   5.208  0.1169  0.2304  0.1830
65190W        W 8284   2.430  29.939   5.911 -0.4070  0.0560  0.0241
65191W        W 8285   1.487  29.721   4.782 -0.2282 -0.0049  0.1420
65192W        W 8286   1.102  31.704   4.069 -0.3084 -0.2365  0.1393
65193W        W 8287   0.772  30.986   5.205 -0.0848 -0.0626  0.1041
65194W        W 8288   3.206  29.741   4.738 -0.0794 -0.2827 -0.1538
65195W        W 8289   1.566  30.133   4.285  0.1658 -0.3543  0.0891
65196W        W 8290   4.104  29.333   4.834  0.2315 -0.1745 -0.1126
65197W        W 8291   2.018  31.664   5.802  0.1709 -0.1401 -0.1363
65198W        W 8292   2.679  31.895   4.965 -0.1962 -0.1312  0.1860
65199W        W 8293   0.643  29.073  10.678 -0.0515  0.1160  0.1971
65200W        W 8294   1.131  29.910   8.636 -0.0007 -0.2882  0.1034
65201W        W 8295   2.506  30.515   6.904 -0.1579 -0.1841 -0.0583
65202W        W 8296   4.403  30.404   7.750  0.2137 -0.2318 -0.1461
65203W        W 8297   1.798  29.573   9.605 -0.0459  0.1770 -0.1883
65204W        W 8298   2.869  33.058   7.650 -0.1651  0.2551  0.1030
65205W        W 8299   2.108  31.973   8.409 -0.0302 -0.1123 -0.3501
65206W        W 8300   3.927  32.252   8.278  0.1146 -0.3347 -0.3290
65207W        W 8301   2.445  32.200   6.940  0.2622 -0.1033  0.1737
65208W        W 8302   2.314  28.112   9.621 -0.2074  0.1678 -0.3722
65209W        W 8303   0.529  28.156   8.062 -0.1340  0.1100 -0.0738
65210W        W 8304  33.814  28.244   9.464  0.0545  0.1722  0.2036
65211W        W 8305   3.131  31.244   9.381  0.2159  0.0813 -0.0630
65212W        W 8306   1.510  29.148   7.553 -0.1735  0.0687  0.1791
65213W        W 8307   1.092  28.793   9.536 -0.1543 -0.2532  0.0198
65214W        W 8308   0.437  29.463   6.732 -0.2166  0.4537 -0.1943
65215W        W 8309   2.735  32.914   9.959 -0.1510 -0.2250  0.1786
65216W        W 8310   2.763  27.840   9.899 -0.1170  0.2109  0.0169
65217W        W 8311   3.314  32.237   7.809  0.0050 -0.2952 -0.4214
65218W        W 8312   0.297  30.300   6.602  0.0259  0.1840  0.0072
65219W        W 8313   0.889  30.137   9.679  0.1765  0.1020  0.2451
65220W        W 8314   0.926  30.789   9.752 -0.1442  0.0516 -0.1855
65221W        W 8315   2.789  29.370   8.245  0.0146  0.0931 -0.1804
65222W        W 8316   2.591  29.063   8.557  0.0490  0.2337 -0.0578
65223W        W 8317   2.416  31.565   9.522  0.0351  0.0714 -0.0767
65224W        W 8318   3.175  33.691   8.880 -0.1920 -0.0322  0.4061
65225W        W 8319   0.894  31.124   8.396 -0.0493 -0.1449 -0.2391
65226W        W 8320   1.215  32.094   9.450  0.0987 -0.1646 -0.2041
65227W        W 8321   1.361  31.165   7.399 -0.1164 -0.0438  0.2073
65228W        W 8322   3.417  31.413   7.510 -0.3936  0.3407 -0.1396
65229W        W 8323   1.484  31.748   7.294 -0.1551 -0.4994  0.0845
65230W        W 8324   3.239  31.396   8.360 -0.0221 -0.2156 -0.3100
65231W        W 8325   2.925  30.755   9.529 -0.1517 -0.1650  0.2662
65232W        W 8326   1.247  31.525   8.174 -0.0283  0.1745  0.0566
65233W        W 8327   2.464  31.056   8.365 -0.0910  0.0377  0.0408
65234W        W 8328  34.497  31.942   8.978 -0.1341  0.0357 -0.0277
65235W        W 8329   2.333  32.741   6.905 -0.1717 -0.3597 -0.1788
65236W        W 8330   3.158  30.843   7.530 -0.0029  0.3039 -0.0872
65237W        W 8331   1.457  29.714   6.181 -0.0474  0.1228  0.2311
65238W        W 8332   3.706  30.313  10.042  0.0414  0.2072 -0.4602
65239W        W 8333   2.200  28.839   8.415  0.0709 -0.0135  0.1500
65240W        W 8334   0.295  31.209   9.290 -0.0013 -0.2505 -0.1766
65241W        W 8335   2.411  28.859  10.311  0.3383 -0.0763 -0.1446
65242W        W 8336   1.876  31.037   8.653  0.2830  0.1177  0.4125
65243W        W 8337   4.143  29.800  10.023 -0.1757 -0.1018 -0.2680
65244W        W 8338   1.419  31.257   8.588  0.3141 -0.1685 -0.3121
65245W        W 8339   0.933  30.744   8.825  0.2043 -0.3138 -0.2642
65246W        W 8340   3.856  32.511   7.824 -0.1479 -0.0966 -0.0101
65247W        W 8341   3.451  32.070   8.301  0.0810  0.4880 -0.1584
65248W        W 8342   2.884  33.173   6.702  0.2456 -0.2218 -0.1710
65249W        W 8343   0.494  29.438   9.192 -0.2403  0.0387 -0.0407
65250W        W 8344   1.619  29.323   7.108  0.1216  0.1259  0.0284
65251W        W 8345   3.659  30.169   8.005  0.0378 -0.2906  0.0892
65252W        W 8346   1.854  29.394  10.077 -0.0685 -0.2679  0.0870
65253W        W 8347   3.580  32.171   9.123 -0.0923  0.3214 -0.3922
65254W        W 8348   3.166  31.167   7.148  0.2559  0.0377  0.1161
65255W        W 8349   2.644  30.574   7.619 -0.0713  0.0162 -0.1047
65256W        W 8350   4.313  28.396   9.666  0.0535 -0.0076  0.2079
65257W        W 8351   1.919  31.173   7.652  0.1230  0.3011 -0.2188
65258W        W 8352   2.325  30.682   8.074  0.2496  0.1715 -0.0615
65259W        W 8353   2.587  31.891  10.054  0.0375 -0.0678  0.1875
65260W        W 8354   3.705  30.972   8.352 -0.0706 -0.1337 -0.0162
65261W        W 8355  34.484  31.068   8.527  0.3709  0.2231  0.0071
65262W        W 8356  34.647  32.502   8.186 -0.4269  0.2605 -0.0843
65263W        W 8357   0.291  31.498   8.788 -0.1576  0.2160  0.1050
65264W        W 8358   1.553  30.147   8.323 -0.2175 -0.0383 -0.0764
65265W        W 8359  34.008  29.465   9.630 -0.1246 -0.0815  0.1493
65266W        W 8360   1.625  30.005   8.811 -0.0731  0.2250 -0.0525
65267W        W 8361   3.663  29.844   7.302  0.1463  0.0357 -0.3499
65268W        W 8362   3.191  28.918   9.574 -0.3452  0.0769  0.1635
65269W        W 8363   0.572  29.996   8.465  0.1995  0.0283 -0.0656
65270W        W 8364   4.118  33.163   7.560 -0.4582  0.3759  0.1568
65271W        W 8365   4.547  30.474   8.472  0.1565 -0.1432  0.4997
65272W        W 8366   2.100  30.234   5.724 -0.0702 -0.2135  0.2324
65273W        W 8367   0.004  29.656   9.143 -0.0881  0.0748 -0.0230
65274W        W 8368   0.844  29.729   9.967  0.1457 -0.1023  0.1462
65275W        W 8369   0.148  30.204   9.693 -0.1466  0.2523 -0.0606
65276W        W 8370   0.227  28.942   6.895 -0.1249 -0.1435  0.2625
65277W        W 8371   2.565  31.048   7.758  0.0731 -0.1187 -0.4220
65278W        W 8372   1.781  29.519   9.111  0.2155  0.0039 -0.0815
65279W        W 8373   1.357  30.718   8.270  0.0393  0.0266  0.1251
65280W        W 8374   3.737  32.018   7.888  0.2319  0.2711 -0.0954
65281W        W 8375   1.590  31.778   9.461 -0.2269 -0.1248  0.1282
65282W        W 8376   2.524  32.737   7.449  0.1285 -0.2481 -0.1314
65283W        W 8377   2.834  29.907   9.631  0.1431  0.0232  0.3882
65284W        W 8378  34.444  30.450   6.533 -0.2577  0.0309  0.1805
65285W        W 8379   0.994  33.918   7.285  0.0146 -0.1913  0.0749
65286W        W 8380   2.810  30.735  10.112  0.0173 -0.2775  0.3908
65287W        W 8381  34.484  28.406   7.460  0.2551  0.2122 -0.0265
65288W        W 8382   3.477  32.385   8.711 -0.0014  0.1945  0.1353
65289W        W 8383   2.989  31.870   8.292 -0.0514  0.1824  0.0141
65290W        W 8384   4.619  31.629   9.995  0.1424  0.0654 -0.0479
65291W        W 8385   2.171  28.351  10.406  0.2263  0.1478 -0.1483
65292W        W 8386   3.263  33.355   7.983 -0.2927  0.0809 -0.2907
65293W        W 8387  33.747  32.167   7.596  0.1121 -0.1706 -0.0864
65294W        W 8388  34.295  30.279   8.475  0.3041 -0.1203 -0.0740
65295W        W 8389   2.275  32.451   8.337 -0.0937 -0.1274  0.1818
65296W        W 8390   2.834  30.729   8.066  0.0317 -0.2402 -0.1746
65297W        W 8391   1.343  29.536   8.813 -0.0468  0.3546 -0.0245
65298W        W 8392   1.149  28.789   8.519  0.0136  0.1705 -0.0009
65299W        W 8393   3.674  29.647   6.775  0.0812 -0.1439 -0.2069
65300W        W 8394   3.478  30.699   7.890 -0.1641  0.1801  0.0794
65301W        W 8395   2.018  29.125   5.660  0.1283  0.1973  0.2054
65302W        W 8396   2.040  28.459   7.121  0.1634  0.0877  0.2638
65303W        W 8397   1.993  31.646   7.466  0.1863 -0.2001  0.0301
65304W        W 8398   1.523  32.839   9.415 -0.0016  0.2343 -0.1341
65305W        W 8399   1.917  30.332   7.632  0.2171 -0.1992 -0.0876
65306W        W 8400   3.082  32.827   8.646  0.0117 -0.0029  0.0118
65307W        W 8401   2.702  31.129   9.742  0.1419 -0.1621  0.4730
65308W        W 8402   3.198  31.947   9.921 -0.1000 -0.1898 -0.1212
65309W        W 8403   2.437  29.475  10.402  0.2082 -0.3213 -0.0222
65310W        W 8404   0.869  28.854   7.620  0.0611 -0.1116  0.2018
65311W        W 8405   2.086  29.136   8.838 -0.4093 -0.0387 -0.3819
65312W        W 8406  34.294  32.340   8.724  0.1943 -0.1097 -0.1075
65313W        W 8407   3.224  30.341  10.308 -0.0915  0.0411  0.0639
65314W        W 8408   2.332  29.803   7.471  0.0840 -0.0995 -0.0958
65315W        W 8409   4.242  30.248   9.561  0.2627 -0.2636 -0.0107
65316W        W 8410   3.158  29.861  10.085  0.0200 -0.0819  0.1018
65317W        W 8411   0.665  29.663   7.587  0.3342  0.3044  0.4599
65318W        W 8412   2.935  28.281   9.887 -0.2060 -0.1303 -0.1773
65319W        W 8413   2.573  31.548   8.460  0.2020  0.1663  0.1810
65320W        W 8414   3.161  30.581   8.763  0.0761 -0.2079 -0.0969
65321W        W 8415   2.092  28.341   8.700 -0.0743  0.1598  0.1233
65322W        W 8416   0.562  32.857   7.582  0.1705 -0.2120  0.0194
65323W        W 8417   2.007  32.480   7.224 -0.1483  0.0340 -0.3260
65324W        W 8418   2.147  27.904   8.383 -0.1047  0.0413  0.2826
65325W        W 8419   1.096  32.609   9.350  0.2172 -0.1954 -0.5813
65326W        W 8420   2.543  32.070   7.959 -0.1211 -0.2648  0.0418
65327W        W 8421   3.506  34.057   9.848 -0.1067  0.3911 -0.0788
65328W        W 8422   0.804  32.474   7.882  0.1282  0.2324 -0.3589
65329W        W 8423   3.756  29.225   8.900  0.0348 -0.2638 -0.0993
65330W        W 8424   0.106  32.401   8.834 -0.1021 -0.0240 -0.0651
65331W        W 8425   0.532  29.196   7.297  0.0789 -0.1471  0.1673
65332W        W 8426   0.761  31.537   8.113  0.0780 -0.4652  0.0624
65333W        W 8427   2.518  31.747   7.590  0.0438 -0.0304  0.0601
65334W        W 8428   3.512  30.313   7.465 -0.1923  0.0565 -0.2033
65335W        W 8429   1.320  29.321   9.338  0.1030  0.4351 -0.2385
65336W        W 8430   2.670  28.901   9.705 -0.1905  0.1188  0.1089
65337W        W 8431   1.142  31.475   8.911 -0.1808  0.2727 -0.1274
65338W        W 8432   2.794  29.260   7.733 -0.2574  0.0218 -0.1356
65339W        W 8433   0.628  29.890   6.690  0.0340 -0.3042  0.2750
65340W        W 8434   3.741  30.807  10.516 -0.1984  0.1020  0.2295
65341W        W 8435   1.960  29.920   9.248  0.3161  0.0155  0.2360
65342W        W 8436   0.339  32.299   7.980  0.0431 -0.2343 -0.4831
65343W        W 8437   1.281  32.992   8.893  0.0294  0.0647  0.1380
65344W        W 8438   1.276  29.295   6.191 -0.1553 -0.0674  0.1218
65345W        W 8439   1.392  31.949   8.553  0.0863  0.1087  0.1726
65346W        W 8440   5.011  31.970   9.315  0.1591 -0.2682  0.0070
65347W        W 8441   1.411  29.891   9.297  0.0540 -0.1133  0.1474
65348W        W 8442   0.197  28.820   7.422  0.0655  0.2219  0.1599
65349W        W 8443   3.309  29.886   9.585  0.0459  0.2190 -0.3580
65350W        W 8444   2.193  31.300   9.034  0.0373 -0.0811  0.0709
65351W        W 8445   3.732  28.498   9.698 -0.0343  0.0733  0.2766
65352W        W 8446   2.429  28.482   9.263  0.2733  0.1041  0.0748
65353W        W 8447   4.563  32.796   7.585  0.1150 -0.1797 -0.1731
65354W        W 8448   1.920  31.264   9.463  0.0457 -0.1407  0.1186
65355W        W 8449  34.194  30.673  10.003  0.1749 -0.4238  0.1088
65356W        W 8450   1.908  30.720   9.640 -0.0178 -0.0249 -0.0186
65357W        W 8451   0.623  30.412  10.065  0.2392  0.0488  0.2498
65358W        W 8452   1.466  31.454   9.824 -0.0277 -0.3571 -0.1350
65359W        W 8453   0.738  31.614   8.629 -0.2639 -0.3522 -0.4268
65360W        W 8454   1.184  31.361  10.202 -0.1142  0.3475  0.0343
65361W        W 8455   2.762  29.451   9.364 -0.1298 -0.0357 -0.3768
65362W        W 8456   1.917  30.534   7.079 -0.1033 -0.1068 -0.0423
65363W        W 8457   3.050  30.371   9.847  0.1118  0.0288  0.0568
65364W        W 8458   2.216  30.825   7.523 -0.0131  0.0102  0.2865
65365W        W 8459   0.610  28.995   8.751  0.1852  0.0819  0.0908
65366W        W 8460   3.756  31.733   9.162  0.1318 -0.2667  0.0559
65367W        W 8461   2.619  30.533   8.509 -0.0485  0.0342 -0.0945
65368W        W 8462   1.763  29.138   8.427  0.4201  0.2837  0.0676
65369W        W 8463   3.433  30.794  10.060 -0.1861 -0.0031 -0.1750
65370W        W 8464   4.240  33.388  10.153  0.2310  0.1510 -0.1051
65371W        W 8465   1.428  30.462   6.919  0.2163  0.1014 -0.0707
65372W        W 8466   2.597  30.127   8.756 -0.3332  0.0390  0.1242
65373W        W 8467   1.812  30.728   7.949 -0.0013  0.2517  0.2136
65374W        W 8468   2.975  30.171   7.396 -0.2443 -0.2195  0.0578
65375W        W 8469   1.346  29.726   8.052 -0.0629 -0.0953  0.1716
65376W        W 8470   1.689  31.621   8.338 -0.0946  0.2142 -0.1352
65377W        W 8471   3.276  30.798   9.185  0.3866  0.1200 -0.1669
65378W        W 8472   2.907  31.119   8.575  0.4189  0.0417 -0.0444
65379W        W 8473   2.032  31.822   9.203  0.0751 -0.1663 -0.3356
65380W        W 8474   4.272  29.784   6.941 -0.0076 -0.0572 -0.0500
65381W        W 8475   5.049  28.669   9.845 -0.4857 -0.0631 -0.1860
65382W        W 8476   4.812  29.894   8.532 -0.0687  0.0943  0.1229
65383W        W 8477   2.536  30.133   7.906  0.0898 -0.0149 -0.0343
65384W        W 8478   1.040  31.142   7.801  0.0760 -0.2230  0.0124
65385W        W 8479   1.170  29.000   7.203  0.0544 -0.2449  0.2477
65386W        W 8480   3.601  32.706   7.472 -0.0694 -0.1086 -0.0689
65387W        W 8481   1.828  32.210   8.750  0.0353  0.4771 -0.0436
65388W        W 8482   1.792  30.544   8.624  0.0368  0.2568 -0.2685
65389W        W 8483   1.185  31.065   9.209  0.3276 -0.0444 -0.1788
65390W        W 8484   1.051  29.621   7.151  0.1217  0.0936  0.2393
65391W        W 8485   1.446  30.233   7.347 -0.1639  0.2383 -0.0119
65392W        W 8486   3.197  32.185   9.530 -0.0398 -0.2391 -0.0047
65393W        W 8487   1.825  29.053   6.673 -0.0216 -0.1795  0.2143
65394W        W 8488   0.172  32.113   8.372 -0.0559 -0.0544 -0.0267
65395W        W 8489   2.229  27.649   9.852 -0.0287 -0.1027 -0.0921
65396W        W 8490   2.945  31.699   9.516  0.0445 -0.0217  0.0299
65397W        W 8491   1.604  32.729   8.585  0.5239  0.0993  0.0321
65398W        W 8492   2.369  30.128   9.649  0.1890  0.0509  0.4076
65399W        W 8493   3.475  30.348   8.458 -0.2732  0.0234  0.2129
65400W        W 8494   1.219  32.884   8.266 -0.0810  0.0730  0.0877
65401W        W 8495   1.625  30.345   9.284  0.1978 -0.2718 -0.1957
65402W        W 8496   3.547  29.699   9.128  0.0271 -0.1091  0.2521
65403W        W 8497   1.269  30.415   8.722  0.0807 -0.1459  0.2272
65404W        W 8498   2.030  31.277   8.233 -0.1267  0.1913 -0.0402
65405W        W 8499   1.113  29.292   8.431  0.4032  0.0080  0.0762
65406W        W 8500   1.760  31.542   6.806 -0.3555 -0.0677 -0.1411
65407W        W 8501   3.401  30.495   9.590 -0.2420 -0.1704 -0.4832
65408W        W 8502   1.794  32.933   8.031 -0.1680  0.0775  0.0128
65409W        W 8503   2.894  32.257   7.196 -0.2723  0.1310 -0.2872
65410W        W 8504   3.393  31.658   7.932  0.0651  0.0677  0.0307
65411W        W 8505  33.932  30.155  11.994  0.0226 -0.2714 -0.2623
65412W        W 8506   2.063  29.889   7.889  0.1108  0.0983  0.1605
65413W        W 8507   0.663  30.761   9.254  0.0475 -0.3775 -0.2046
65414W        W 8508   0.588  31.375   7.629 -0.4611  0.2210 -0.0116
65415W        W 8509   2.720  31.759   7.177 -0.1313  0.2001  0.0267
65416W        W 8510   0.829  32.303   9.758 -0.2864  0.6361  0.1327
65417W        W 8511   3.285  29.869   7.727  0.0466 -0.2326  0.2699
65418W        W 8512   3.097  29.338   8.828 -0.3678  0.0627  0.3597
65419W        W 8513   3.638  30.869   7.416  0.1271 -0.0738 -0.1313
65420W        W 8514   3.131  29.667  10.619  0.0709 -0.1589  0.2365
65421W        W 8515   1.173  28.354   7.207 -0.1901  0.0116 -0.2003
65422W        W 8516   3.528  31.699   8.695  0.2961 -0.1291 -0.0920
65423W        W 8517   0.784  29.018   8.172 -0.1456  0.2365  0.3644
65424W        W 8518   2.829  29.789   7.962 -0.2185  0.0853  0.0834
65425W        W 8519   2.360  29.017   9.303 -0.3672  0.0114 -0.0396
65426W        W 8520   1.963  32.234   6.175  0.0958  0.0338  0.4275
65427W        W 8521   3.559  28.119   8.013  0.1441 -0.1148  0.0893
65428W        W 8522   1.798  32.428   8.196  0.1200  0.1472  0.2637
65429W        W 8523   1.404  32.400   8.946  0.3376 -0.1781 -0.2117
65430W        W 8524   2.987  31.590   8.754 -0.1929  0.1465 -0.1080
65431W        W 8525   0.475  29.263   7.901  0.3526  0.1465  0.2239
65432W        W 8526   4.213  29.763   9.540  0.1425 -0.0117 -0.0535
65433W        W 8527   3.822  31.207  10.008 -0.1191 -0.0191 -0.0320
65434W        W 8528   2.200  29.333   8.354 -0.0035  0.0437  0.0315
65435W        W 8529   3.385  31.126   8.722  0.2314  0.3094 -0.2443
65436W        W 8530   0.329  30.397   8.722 -0.2128  0.1940  0.0520
65437W        W 8531   0.609  28.037   9.636  0.1492  0.4556 -0.0942
65438W        W 8532   1.399  30.267   7.851 -0.0837  0.2571  0.2345
65439W        W 8533   2.279  31.262   6.530  0.0477  0.0644 -0.0883
65440W        W 8534   0.231  28.962   8.371 -0.0087 -0.0765  0.2417
65441W        W 8535   2.349  31.315   7.385  0.2364  0.2509  0.0196
65442W        W 8536   0.726  29.524   8.711  0.0097  0.0428  0.1406
65443W        W 8537   1.815  30.063   9.739  0.2036  0.3185 -0.0093
65444W        W 8538  34.585  28.055   7.115 -0.0928  0.2284  0.0244
65445W        W 8539   2.900  30.869   6.776  0.2731  0.2057 -0.1406
65446W        W 8540   4.215  31.719   8.553 -0.2608  0.0050  0.1079
65447W        W 8541   2.010  32.083   7.673  0.0111 -0.0225 -0.1473
65448W        W 8542   2.299  32.220   8.887  0.1845  0.1146  0.0119
65449W        W 8543   4.130  33.211   8.801 -0.0012  0.0507 -0.0415
65450W        W 8544   1.728  31.081  10.024  0.1539 -0.0813  0.1020
65451W        W 8545   2.744  32.987   8.959 -0.1481 -0.1207  0.2521
65452W        W 8546   3.418  30.217   9.203  0.2208  0.0795  0.2620
65453W        W 8547   2.351  29.308   6.746 -0.0441  0.0718 -0.0633
65454W        W 8548   2.443  30.596   9.728 -0.1236  0.1609  0.0982
65455W        W 8549   0.149  32.856   9.557 -0.1747  0.0072 -0.0914
65456W        W 8550   4.052  29.273   9.803 -0.0040  0.0457  0.1338
65457W        W 8551   2.198  32.628   5.180 -0.0677 -0.0878  0.1148
65458W        W 8552   4.040  32.244   9.985 -0.2122 -0.0253 -0.1616
65459W        W 8553   0.496  30.526   7.014  0.0855  0.1651  0.4279
65460W        W 8554   2.747  31.493   7.994  0.0826 -0.0698  0.0953
65461W        W 8555   1.910  32.024   7.117  0.0323 -0.2664  0.1838
65462W        W 8556   4.343  33.249   9.313  0.1148 -0.0132 -0.2134
65463W        W 8557   2.088  30.139   8.757 -0.0601  0.0351 -0.3379
65464W        W 8558   4.060  32.813  10.089  0.1256  0.0072  0.0350
65465W        W 8559   1.120  28.641   9.079  0.3876  0.1714 -0.2415
65466W        W 8560   3.908  28.767   8.937  0.0902  0.0813 -0.3529
65467W        W 8561   3.007  28.550   8.635  0.1291  0.0418 -0.0087
65468W        W 8562   1.644  29.017   9.811  0.2961 -0.0000 -0.2364
65469W        W 8563   1.733  29.663   8.407 -0.0837  0.1473 -0.1188
65470W        W 8564   0.410  31.804   7.821  0.2487 -0.0064  0.1840
65471W        W 8565   0.812  31.180  10.723 -0.0981  0.1070 -0.0389
65472W        W 8566   1.111  30.423   9.394  0.3832 -0.2237 -0.1031
65473W        W 8567   0.342  27.807   8.398  0.0110  0.0943  0.3592
65474W        W 8568   2.697  32.552   8.124  0.0365 -0.2996  0.5181
65475W        W 8569   2.264  29.503   9.276  0.1652 -0.1734 -0.0302
65476W        W 8570   0.528  28.846   9.799  0.2849  0.0712 -0.1383
65477W        W 8571   2.947  31.849   7.737  0.3121 -0.0497 -0.5304
65478W        W 8572   2.804  30.836   8.979  0.0858 -0.3363 -0.2597
65479W        W 8573   2.469  30.197   7.249 -0.0092  0.1284  0.1827
65480W        W 8574   1.439  29.211   8.053 -0.0465 -0.2281  0.0507
65481W        W 8575   0.826  30.075   7.339 -0.2335  0.1174 -0.3684
65482W        W 8576   2.932  30.367   9.188 -0.0407  0.2023  0.1054
65483W        W 8577   2.219  31.681   7.993  0.2297 -0.1066 -0.0719
65484W        W 8578   2.855  32.620   6.791  0.1200  0.2465 -0.1361
65485W        W 8579   1.384  29.729   9.863 -0.1220 -0.0363  0.1118
65486W        W 8580   3.764  30.795   8.946 -0.0427 -0.2623  0.1345
65487W        W 8581   3.224  30.804   8.326  0.0876  0.0134 -0.0289
65488W        W 8582   2.312  30.464   9.225  0.2096  0.1032 -0.0336
65489W        W 8583   3.314  29.822   8.259  0.1508 -0.2066 -0.0436
65490W        W 8584   3.509  32.398   9.903  0.0091  0.1088  0.1121
65491W        W 8585   1.996  28.717   9.070  0.0874 -0.2322 -0.3945
65492W        W 8586   2.511  29.299   7.343  0.0461 -0.2586 -0.2915
65493W        W 8587   2.439  32.218   7.441  0.1137 -0.1058  0.0546
65494W        W 8588   1.524  30.965   9.580  0.0804  0.1236 -0.3697
65495W        W 8589   3.264  30.008   8.741 -0.1232  0.0985 -0.4031
65496W        W 8590   2.656  32.281   9.700  0.1529  0.0620 -0.1870
65497W        W 8591   1.724  29.551   6.637 -0.2402 -0.0643 -0.0075
65498W        W 8592   3.076  31.135   7.914 -0.0510 -0.1962  0.1129
65499W        W 8593   2.302  30.845   8.828  0.2065 -0.2522  0.2020
65500W        W 8594   1.572  31.831   8.987 -0.1885 -0.0424 -0.2004
65501W        W 8595   5.841  33.003   9.590  0.1871  0.1525 -0.0027
65502W        W 8596   0.304  28.125   9.001 -0.1786  0.1375 -0.3103
65503W        W 8597   1.626  31.609   7.811 -0.1048 -0.1461  0.0723
65504W        W 8598   1.877  31.182   7.163 -0.1531  0.4992 -0.5035
65505W        W 8599   3.849  30.312   8.804  0.0664 -0.1059  0.2620
65506W        W 8600   1.711  29.694   7.584 -0.4381 -0.1676  0.0039
65507W        W 8601   3.100  30.343   7.845  0.3528 -0.0496  0.0067
65508W        W 8602   1.453  31.806  10.418  0.3942  0.2020  0.2274
65509W        W 8603   2.036  30.307   8.231 -0.3322  0.1303  0.2651
65510W        W 8604   1.084  33.957   0.263 -0.1213  0.0034  0.2010
65511W        W 8605   2.918  33.459  31.892 -0.0956 -0.0454 -0.0158
65512W        W 8606   3.383   1.045   0.387 -0.1775  0.2984  0.0752
65513W        W 8607   0.665  33.873   1.915  0.1633  0.1093 -0.2436
65514W        W 8608   1.284  32.366   2.755  0.2115  0.0889  0.1682
65515W        W 8609   4.304   0.080   0.668 -0.1101 -0.3253  0.0135
65516W        W 8610   1.839   0.083   2.082 -0.2592 -0.0343  0.1403
65517W        W 8611   0.804  31.980   0.704  0.1688  0.0756  0.0092
65518W        W 8612   0.697  32.520   1.595  0.2811 -0.0348 -0.2499
65519W        W 8613   3.534  34.507   3.132  0.1424 -0.0835 -0.1322
65520W        W 8614   0.410  33.690   1.506 -0.2385 -0.1422 -0.0728
65521W        W 8615   3.128   0.243   1.462  0.0519  0.3249  0.3994
65522W        W 8616   1.812  33.695   1.534 -0.1809 -0.2736 -0.3456
65523W        W 8617   1.203  33.409   2.050 -0.0154  0.0849  0.1923
65524W        W 8618   2.232  33.413   3.580 -0.1027 -0.1364  0.1945
65525W        W 8619   0.408  34.027   0.098 -0.2486 -0.1646 -0.1643
65526W        W 8620  34.648  33.925   2.233 -0.1867  0.5187 -0.0300
65527W        W 8621   1.143   0.660   2.018 -0.0193 -0.0667  0.1980
65528W        W 8622   3.898  33.935   0.495 -0.1619 -0.0375  0.0360
65529W        W 8623   1.279   1.016   2.487  0.1677 -0.1032  0.2070
65530W        W 8624   2.619  34.506   3.156 -0.2826  0.0838  0.1726
65531W        W 8625   2.099  34.266   2.426  0.1567 -0.0744  0.0270
65532W        W 8626   0.526   1.552   2.568 -0.0695  0.2549 -0.2073
65533W        W 8627   2.882  33.870   3.845  0.0877  0.0570 -0.2704
65534W        W 8628   3.228  33.163  31.036 -0.0561 -0.0944 -0.2867
65535W        W 8629   0.414  34.498  31.740 -0.0502  0.0943 -0.0937
65536W        W 8630   2.410   0.372   0.651 -0.0177 -0.1611 -0.3650
65537W        W 8631   1.399  32.670   1.404  0.1323  0.1167  0.0251
65538W        W 8632   2.741  33.953   2.752  0.3347 -0.1343  0.1352
65539W        W 8633   2.933   0.203   0.609  0.1373 -0.2266  0.1397
65540W        W 8634   2.939  34.438   1.433  0.2135 -0.2534 -0.0146
65541W        W 8635   0.745   0.441   2.202 -0.2155 -0.1064  0.0198
65542W        W 8636   2.155   0.074   0.157  0.0780  0.0160 -0.0708
65543W        W 8637   0.541   0.553   4.091 -0.0384  0.0801 -0.1420
65544W        W 8638  33.619   0.319   3.426  0.1120 -0.2248 -0.3082
65545W        W 8639   1.042  33.139  31.163 -0.2247 -0.3619 -0.1305
65546W        W 8640   5.243  34.349   0.719  0.0761 -0.0381 -0.2234
65547W        W 8641   3.570  33.556   3.236 -0.0518  0.3686 -0.1990
65548W        W 8642   3.954  32.950   2.694 -0.2272  0.0329  0.0700
65549W        W 8643   3.343  34.514   1.735  0.0930 -0.2367  0.1129
65550W        W 8644   3.048  33.963   1.605 -0.2559  0.0416 -0.3054
65551W        W 8645  34.337  32.957   1.623 -0.1000  0.4527  0.0323
65552W        W 8646   4.888   0.513   1.352  0.1066 -0.2314  0.1964
65553W        W 8647   1.333  32.828   2.967 -0.1372 -0.2450 -0.3282
65554W        W 8648   3.930  33.814   1.641  0.2028  0.1200 -0.1536
65555W        W 8649   2.780  33.605   1.272  0.0683 -0.1877 -0.1692
65556W        W 8650   0.559  33.597   3.008  0.1289 -0.0895 -0.0920
65557W        W 8651   0.694  33.515   0.539 -0.3587  0.0604 -0.2572
65558W        W 8652   0.415  33.745   2.386  0.0587  0.1535 -0.1641
65559W        W 8653   1.030  33.161   2.485  0.2459 -0.2752  0.3752
65560W        W 8654   5.290  34.079   3.356 -0.2130 -0.1109 -0.3924
65561W        W 8655  33.952  33.296  31.956 -0.2560 -0.2146  0.2054
65562W        W 8656   2.414  34.494   0.499  0.3040 -0.1235  0.1138
65563W        W 8657   2.191  33.676   1.192 -0.1594  0.1308  0.2328
65564W        W 8658   4.082  32.523   4.146  0.0581 -0.0643  0.1132
65565W        W 8659   0.921  34.276   2.152  0.1251  0.2415  0.1727
65566W        W 8660   0.163  33.816   0.485 -0.2197  0.2513  0.1159
65567W        W 8661   1.745  34.173   1.066 -0.1093  0.2560  0.2429
65568W        W 8662   3.501  33.776   2.471  0.2057  0.1042  0.4193
65569W        W 8663   2.732  34.670   1.925 -0.2452 -0.2176 -0.0602
65570W        W 8664   1.591  33.874   0.244 -0.0365  0.0221  0.0442
65571W        W 8665  32.960   0.079   0.205  0.3947  0.1804  0.3184
65572W        W 8666   3.017  34.281   2.009 -0.1261 -0.2001  0.2680
65573W        W 8667  34.464  34.621   3.129 -0.1180 -0.0984 -0.2342
65574W        W 8668   1.790   0.312   3.496 -0.0305 -0.0726 -0.1629
65575W        W 8669   1.551  33.707  31.762  0.0727 -0.0013  0.1987
65576W        W 8670   3.592  32.928   1.629 -0.2120 -0.2379 -0.0156
65577W        W 8671   5.244  33.991   0.325  0.0372  0.4548 -0.1937
65578W        W 8672   1.264  34.360   1.140  0.0696  0.3360  0.1796
65579W        W 8673   0.296  34.677  31.171  0.0219  0.0038  0.0396
65580W        W 8674   1.317  34.269  31.809 -0.0563  0.2633  0.2972
65581W        W 8675   2.583  34.054   1.124  0.3193  0.1656 -0.0606
65582W        W 8676   1.632   0.294   0.380  0.0762  0.1776 -0.1223
65583W        W 8677   3.215  33.904   1.106 -0.4495  0.0686 -0.0269
65584W        W 8678   4.454  34.478   1.659  0.1841  0.2352 -0.1664
65585W        W 8679   3.336  33.434   2.073  0.0062 -0.2364 -0.0520
65586W        W 8680   1.055  32.229   1.191  0.0214  0.1052  0.0045
65587W        W 8681   3.077   0.195   4.011  0.1868  0.2098  0.3722
65588W        W 8682   2.587   0.826   0.936 -0.0785  0.0750 -0.0398
65589W        W 8683   2.752   0.130   3.575  0.1818 -0.0519 -0.1890
65590W        W 8684   1.716   1.263  30.593  0.1815  0.1792 -0.3056
65591W        W 8685   2.896  34.038   4.413 -0.2400 -0.1055 -0.0548
65592W        W 8686   4.025  34.327   4.095 -0.4829  0.0011  0.2753
65593W        W 8687   2.449  32.824  31.274 -0.0969 -0.0616 -0.1138
65594W        W 8688   1.376  33.032   0.972 -0.0258 -0.0716 -0.2669
65595W        W 8689   2.834  33.028   2.297 -0.2924  0.1887 -0.0743
65596W        W 8690   2.181  34.005   0.377 -0.0732  0.0334 -0.2704
65597W        W 8691  33.311  33.884   1.963  0.0182 -0.1097  0.1274
65598W        W 8692   2.528   1.141   0.519  0.0192 -0.0769  0.1423
65599W        W 8693   1.225  34.577   2.728 -0.0038  0.0742 -0.1055
65600W        W 8694   3.158  33.491   1.609 -0.0426 -0.0052  0.2560
65601W        W 8695   4.328  33.975   3.066 -0.0833 -0.0838 -0.0260
65602W        W 8696   3.453  34.316   0.173  0.1508  0.0284 -0.1486
65603W        W 8697   1.860   0.384   2.978  0.0648 -0.0787  0.0296
65604W        W 8698  33.751  33.692   1.580 -0.0133 -0.0830 -0.3154
65605W        W 8699   3.142  33.181   3.358  0.1121 -0.0131  0.2178
65606W        W 8700   1.572  33.275   0.110  0.3755 -0.3224 -0.1959
65607W        W 8701   0.052  34.345   0.105 -0.0901  0.2138 -0.4098
65608W        W 8702   0.652  34.661   1.991 -0.0374 -0.0491  0.1140
65609W        W 8703   2.044  34.202   1.452 -0.2005  0.2366 -0.0033
65610W        W 8704   1.839  33.252   1.341  0.0437  0.0339 -0.4492
65611W        W 8705   1.791  34.313   0.520  0.0935  0.1017 -0.0607
65612W        W 8706   3.102  34.512   3.447  0.0115  0.2486 -0.0733
65613W        W 8707   1.871  32.836   1.648 -0.1388 -0.2369 -0.1783
65614W        W 8708   3.748   0.747   3.247 -0.1706 -0.1064 -0.1691
65615W        W 8709   3.205   0.101   2.118 -0.1343  0.0142 -0.0552
65616W        W 8710   4.508  33.641   0.663  0.0481  0.1434 -0.1506
65617W        W 8711   2.069  33.203   0.878  0.0790  0.2749  0.0936
65618W        W 8712   4.794  33.841   2.649  0.0076  0.1967  0.0953
65619W        W 8713   3.654   0.221   1.342 -0.2614  0.3833 -0.0459
65620W        W 8714   2.654  34.057   3.284 -0.3730  0.2247  0.1543
65621W        W 8715   1.791  32.300   2.852 -0.4250 -0.0119 -0.1261
65622W        W 8716   0.302  34.264   2.140  0.1277  0.0871  0.1983
65623W        W 8717   0.113  34.516   4.131  0.1249  0.2045 -0.0976
65624W        W 8718   2.417  34.546   1.415  0.0981  0.0421 -0.3530
65625W        W 8719  33.640  32.960   1.587 -0.2938  0.3700  0.1048
65626W        W 8720   2.758   0.857   1.418  0.1941 -0.2642 -0.0959
65627W        W 8721   4.075   1.091   2.193  0.1013 -0.0966 -0.0258
65628W        W 8722   0.833  33.541   1.610 -0.1276 -0.0512 -0.1724
65629W        W 8723   2.806  33.183   0.771 -0.0349 -0.1727 -0.0776
65630W        W 8724   2.347   0.099   2.284 -0.2014  0.1728  0.0131
65631W        W 8725   3.293  32.801   1.167  0.1916 -0.0163  0.0707
65632W        W 8726   3.841  34.081   3.313  0.2315  0.0708  0.0260
65633W        W 8727   4.556  34.133   3.715  0.1673 -0.1219 -0.0864
65634W        W 8728   2.187  34.460   1.875  0.0155  0.0654 -0.1111
65635W        W 8729  34.202  33.313   2.676 -0.2054 -0.0313 -0.0473
65636W        W 8730   4.335   0.735   0.346 -0.1539 -0.1140  0.0801
65637W        W 8731   4.867  33.326   2.728  0.1342 -0.1617 -0.0635
65638W        W 8732   3.405   0.471   1.766  0.0766 -0.0235 -0.1379
65639W        W 8733   1.711   0.690  31.929 -0.0287  0.0119  0.1328
65640W        W 8734   1.328  33.577   1.563  0.0845  0.0847  0.2589
65641W        W 8735   3.797   1.815   3.659 -0.2950  0.0180  0.1920
65642W        W 8736   2.657  33.899  31.677 -0.0427  0.0185 -0.3349
65643W        W 8737   3.934  34.181   2.362  0.2890  0.1495 -0.0685
65644W        W 8738   3.455  34.366   2.310  0.0606 -0.0503 -0.2720
65645W        W 8739   0.907  33.662   2.608  0.0606 -0.3090 -0.1962
65646W        W 8740   0.261  33.305   0.389  0.1455 -0.2706 -0.0892
65647W        W 8741   1.330  34.524   0.321 -0.0876 -0.0227  0.0340
65648W        W 8742   1.165  33.333  31.677 -0.0725  0.4425 -0.2154
65649W        W 8743   4.311  33.883   4.111  0.3014  0.0839 -0.0755
65650W        W 8744   3.735  32.978   2.116  0.0410 -0.2713 -0.0531
65651W        W 8745   1.744  33.910   2.417 -0.0259 -0.0738  0.1726
65652W        W 8746   3.502  34.045   1.543 -0.2443 -0.0042 -0.3097
65653W        W 8747   1.841   1.012   1.273  0.1728  0.0553 -0.4892
65654W        W 8748   4.139  34.371   3.626 -0.2633  0.0595  0.2042
65655W        W 8749  33.498  34.477   1.379 -0.2121 -0.0692 -0.0926
65656W        W 8750  32.523  33.597   3.585 -0.0421 -0.3799 -0.2369
65657W        W 8751   2.473  33.693   0.783  0.2939 -0.3638 -0.0584
65658W        W 8752   1.403  34.060   1.498  0.2585 -0.0562  0.2797
65659W        W 8753   4.147   0.223  30.737  0.0598 -0.1749  0.1771
65660W        W 8754   1.966  33.591   0.089 -0.3420 -0.3199 -0.0302
65661W        W 8755   4.906  34.150  31.948  0.0714 -0.1440 -0.1918
65662W        W 8756   2.156  33.556   1.996 -0.0834  0.0931  0.0989
65663W        W 8757   2.029  33.001   0.044  0.3874 -0.0231  0.2760
65664W        W 8758   1.188   0.524   2.516  0.0415 -0.3541 -0.3098
65665W        W 8759   4.758  31.680   3.217  0.1995  0.2106 -0.1606
65666W        W 8760   0.940  34.049   1.358 -0.0723 -0.0344 -0.2184
65667W        W 8761   1.880  34.362   0.057  0.0145  0.0632  0.0518
65668W        W 8762   3.366  33.927   1.985  0.3265  0.0103 -0.2452
65669W        W 8763   2.694  33.261   1.819 -0.1060  0.2259 -0.1018
65670W        W 8764  33.607  33.580   0.280  0.1644  0.1550  0.0254
65671W        W 8765   3.427   0.273   2.724  0.0953  0.0430  0.1324
65672W        W 8766   1.544   0.209   2.509 -0.1777  0.0144  0.0777
65673W        W 8767   5.197  33.626   2.940  0.0455  0.1767  0.1182
65674W        W 8768   0.673  33.278  31.559 -0.1933 -0.3192  0.2166
65675W        W 8769   4.328  34.103   0.187 -0.3175  0.0363  0.1808
65676W        W 8770   0.244  33.751   3.377  0.1822  0.2135  0.1753
65677W        W 8771   1.945  33.717  31.346 -0.3671  0.1503 -0.3380
65678W        W 8772   3.899   0.529   3.672  0.1768  0.0445  0.1208
65679W        W 8773   2.254  33.421   0.406  0.2111 -0.0204 -0.1391
65680W        W 8774   1.668  33.584   2.059  0.2732  0.0013 -0.0325
65681W        W 8775   2.941  34.436   0.385  0.0251  0.0422 -0.1576
65682W        W 8776   2.198   0.186   1.138  0.2736 -0.0098  0.2638
65683W        W 8777   1.094   0.642   3.414  0.2296 -0.1175 -0.3660
65684W        W 8778   0.228  31.557   2.595 -0.1413  0.0746  0.0128
65685W        W 8779   4.078  33.479   3.118  0.2137  0.0248 -0.2700
65686W        W 8780   2.605   1.357   1.045  0.1797 -0.1372  0.0612
65687W        W 8781   0.775  33.175   2.968 -0.2897 -0.0179  0.0114
65688W        W 8782   2.091  32.438  31.163  0.1977  0.0169  0.0531
65689W        W 8783   1.162  34.517   1.728  0.0567  0.0437 -0.0967
65690W        W 8784   4.382  33.158   2.805  0.0124  0.0987 -0.0251
65691W        W 8785   3.844  33.063   3.203 -0.1755  0.1476  0.3187
65692W        W 8786   3.240  32.415   2.704 -0.1631 -0.1324  0.3687
65693W        W 8787   2.662   0.168   0.176  0.1262  0.1990 -0.2039
65694W        W 8788   1.646  34.423   1.726 -0.0496 -0.3578 -0.0158
65695W        W 8789   3.914  34.263   1.868 -0.3457  0.2011  0.0560
65696W        W 8790   5.386  34.648   1.106 -0.2659  0.3926  0.0339
65697W        W 8791   2.475   0.780   2.604 -0.3130 -0.2249 -0.0069
65698W        W 8792  33.292  34.256   0.869  0.2478  0.3199  0.1426
65699W        W 8793   2.489  33.171   3.921 -0.1953 -0.4240 -0.1668
65700W        W 8794   1.559  33.117   2.322  0.0831  0.1672 -0.1399
65701W        W 8795   0.190  34.052   1.697  0.0592  0.2873  0.0424
65702W        W 8796   1.110  32.829   0.477  0.3993 -0.1951  0.0566
65703W        W 8797   1.413  31.830   2.659 -0.1888 -0.1910 -0.2043
65704W        W 8798   0.998  32.978   1.934 -0.0364 -0.0901 -0.0870
65705W        W 8799   2.096  32.472   0.743  0.2736  0.0311 -0.3594
65706W        W 8800   1.948  32.637   4.037  0.1531  0.0995 -0.3824
65707W        W 8801   2.638  34.435   2.659  0.1475 -0.0955  0.0182
65708W        W 8802  34.472  33.148   0.145 -0.3715  0.3519 -0.3048
65709W        W 8803   2.093   0.532   1.981  0.2086  0.2090 -0.0943
65710W        W 8804  33.813  32.970   2.805 -0.1053  0.0501 -0.0813
65711W        W 8805   3.858  34.411   0.823  0.0296  0.3753 -0.0130
65712W        W 8806   3.040   1.654   1.210  0.3037  0.1014 -0.0891
65713W        W 8807   2.195  33.775   3.259 -0.0666  0.1516 -0.1596
65714W        W 8808   1.782  32.938   0.509 -0.0382  0.2009  0.1211
65715W        W 8809   3.262  33.038   0.680 -0.1927  0.2315 -0.0972
65716W        W 8810  34.653  33.833   1.279  0.4495 -0.1560  0.1807
65717W        W 8811   2.655  34.565   0.917  0.1658 -0.0574 -0.0731
65718W        W 8812   2.884   1.080   3.157  0.0148 -0.1600 -0.3605
65719W        W 8813   2.021   1.450  31.452 -0.0298 -0.1337 -0.0951
65720W        W 8814   4.072   0.534   1.480 -0.0540  0.1535 -0.2687
65721W        W 8815  34.383  32.753   3.245 -0.2126  0.3316  0.0245
65722W        W 8816   0.547   1.229  31.723 -0.1039  0.1388  0.2746
65723W        W 8817   2.252   0.683   1.318  0.1304  0.0871  0.0620
65724W        W 8818   4.323  33.571   1.921 -0.3934 -0.1080 -0.0809
65725W        W 8819   1.478  33.100   1.686  0.2400 -0.0813  0.4175
65726W        W 8820   3.710  33.286   0.944 -0.0458  0.2118  0.1437
65727W        W 8821   0.719  34.658   3.531  0.3009  0.1834  0.2739
65728W        W 8822   3.393   0.467   3.723 -0.0426  0.2686 -0.0702
65729W        W 8823   4.215  34.107   5.175  0.1876 -0.4049 -0.0884
65730W        W 8824   0.908  32.740   4.720 -0.0336 -0.0226  0.2590
65731W        W 8825   1.458  32.919   6.330  0.1269 -0.3044  0.1764
65732W        W 8826   2.107   0.771   3.152 -0.1264  0.3499 -0.0979
65733W        W 8827   0.950  33.275   6.531  0.0034  0.2804  0.0117
65734W        W 8828   2.485  32.468   3.330 -0.0121  0.1784  0.1347
65735W        W 8829   0.543  33.260   4.408 -0.0655 -0.0205  0.0806
65736W        W 8830   3.094  33.950   5.546  0.0830 -0.0239  0.0893
65737W        W 8831  34.200   1.120   3.831 -0.1293  0.4403 -0.2895
65738W        W 8832   2.228  32.399   5.653  0.3278 -0.0004 -0.0236
65739W        W 8833   2.052  33.605   4.156 -0.3540  0.0650  0.0499
65740W        W 8834   2.342  33.323   5.625 -0.0147  0.5045 -0.3264
65741W        W 8835   3.299  32.018   7.410 -0.4237  0.2736 -0.3380
65742W        W 8836   1.610  34.610   3.179  0.0409  0.0646  0.1731
65743W        W 8837  34.666   0.164   4.483  0.0148  0.1302 -0.0310
65744W        W 8838   1.984  33.869   7.411  0.3186  0.0053  0.1940
65745W        W 8839   3.625  32.724   4.157 -0.1298 -0.0428  0.0162
65746W        W 8840   2.453   0.302   2.856 -0.0600 -0.3383  0.0259
65747W        W 8841   3.535  32.882   6.768  0.0126 -0.0064 -0.0349
65748W        W 8842   2.187  34.428   6.076  0.0228 -0.0993 -0.4378
65749W        W 8843   1.338  33.605   5.595 -0.2611 -0.0235  0.2527
65750W        W 8844   4.897   0.069   8.130 -0.0092 -0.0688 -0.0274
65751W        W 8845   2.263   0.000   3.781  0.0047  0.4684  0.0295
65752W        W 8846   2.238  34.265   2.871 -0.2411  0.3937 -0.0120
65753W        W 8847   2.341  32.798   4.328  0.1390  0.1228  0.0971
65754W        W 8848  34.605  34.231   5.412 -0.0546 -0.2903  0.0963
65755W        W 8849   1.670  33.318   4.934 -0.2592  0.1378 -0.0688
65756W        W 8850   1.841   0.443   4.251 -0.2176  0.1822 -0.2158
65757W        W 8851   2.281  33.415   5.150  0.2546 -0.0149  0.1536
65758W        W 8852   0.509  32.793   5.173  0.1749  0.0416  0.0883
65759W        W 8853   1.690  33.216   2.784  0.6003 -0.1648  0.0828
65760W        W 8854   0.480  34.384   8.006 -0.1619  0.2652  0.0562
65761W        W 8855   0.793  34.652   7.750  0.0422 -0.0927  0.1525
65762W        W 8856   2.584  33.565   3.016 -0.4397 -0.1992  0.0786
65763W        W 8857   3.551  32.310   5.046 -0.1017 -0.2611 -0.1494
65764W        W 8858   2.476  31.998   6.132 -0.2121  0.1297 -0.0489
65765W        W 8859   3.315  32.430   5.500  0.0928 -0.0350 -0.0520
65766W        W 8860   3.226  33.733   4.194  0.0497  0.0738 -0.0849
65767W        W 8861   2.171  33.910   6.948  0.0926  0.0750  0.0961
65768W        W 8862   0.285  33.274   5.119 -0.2512 -0.0881 -0.0797
65769W        W 8863   3.729  33.598   4.216  0.1751 -0.0743  0.1752
65770W        W 8864   0.983  32.679   6.451  0.1895  0.2098  0.0305
65771W        W 8865   3.614  32.000   5.470 -0.0586  0.0098 -0.0792
65772W        W 8866   4.298  33.608   5.060 -0.1840  0.1000  0.3043
65773W        W 8867   1.401  33.106   5.406 -0.2798  0.0634 -0.0258
65774W        W 8868   1.490  32.069   5.284  0.0598 -0.1354  0.0053
65775W        W 8869   3.237  33.215   6.279 -0.0358  0.0177  0.1068
65776W        W 8870   0.741  32.355   5.024 -0.1014  0.1868 -0.2095
65777W        W 8871   4.276  33.144   7.008 -0.1294 -0.1862  0.1648
65778W        W 8872   0.865  33.017   3.745 -0.0751 -0.0181  0.3728
65779W        W 8873   2.934  34.521   5.623  0.1806  0.1145 -0.0118
65780W        W 8874   1.537  34.194   4.649 -0.2661 -0.2154  0.1252
65781W        W 8875   3.616  32.851   5.010  0.2269  0.4955 -0.0026
65782W        W 8876   1.450  32.556   7.299 -0.0198  0.1441 -0.1505
65783W        W 8877   0.620  34.230   2.550  0.2380  0.0929  0.1070
65784W        W 8878   1.468  32.818   4.076 -0.3335  0.2995  0.3294
65785W        W 8879   3.827  32.377   5.780 -0.2017 -0.1106  0.1184
65786W        W 8880   2.168  33.882   5.625 -0.0682 -0.1038 -0.0091
65787W        W 8881   1.866  32.797   3.038  0.1226  0.0110  0.0839
65788W        W 8882  33.899  34.341   5.878  0.1249 -0.2563  0.1934
65789W        W 8883   3.085  31.929   5.354 -0.0650  0.0141  0.2465
65790W        W 8884   1.338   0.932   7.519  0.5446 -0.1535  0.0477
65791W        W 8885   2.867  34.145   6.344 -0.2832  0.0742  0.0569
65792W        W 8886   0.081  34.432   4.998 -0.0652 -0.0259 -0.1208
65793W        W 8887   3.104  31.356   4.145 -0.0542 -0.1415 -0.0075
65794W        W 8888   3.680  32.655   3.501  0.1329  0.3431  0.2144
65795W        W 8889   3.607  34.365   3.638  0.1233  0.1379  0.2023
65796W        W 8890   2.975  33.268   3.807  0.3287  0.0539  0.0276
65797W        W 8891   3.090  32.985   5.331  0.1638 -0.0628 -0.1534
65798W        W 8892   1.910  32.984   6.904 -0.2276  0.0271  0.1296
65799W        W 8893   1.260  34.247   3.103 -0.1060 -0.1263  0.0051
65800W        W 8894   2.538  32.530   5.999 -0.1837  0.3063 -0.0350
65801W        W 8895   5.128  33.393   4.712 -0.3589 -0.1271 -0.1018
65802W        W 8896   3.068  32.509   5.056 -0.2508  0.1770 -0.0635
65803W        W 8897   1.961  32.713   6.452 -0.0013 -0.0806 -0.1538
65804W        W 8898   4.297  33.671   7.469  0.0193  0.2102 -0.0199
65805W        W 8899   3.852   0.487   4.204  0.3592 -0.1281  0.5340
65806W        W 8900   2.882  34.238   5.210  0.2797  0.2144  0.0385
65807W        W 8901   0.757   0.041   2.566  0.2260  0.0020  0.0236
65808W        W 8902   2.176  32.101   5.253 -0.2864 -0.0883 -0.3795
65809W        W 8903   3.145  33.692   8.380 -0.2173  0.1583 -0.2198
65810W        W 8904   2.186  32.873   3.553  0.1334  0.1681 -0.0580
65811W        W 8905   2.544  32.370   4.797  0.3585  0.2936  0.2809
65812W        W 8906   3.710  32.195   4.476  0.3198 -0.2751  0.0527
65813W        W 8907   1.006  34.237   3.565  0.0822 -0.3272 -0.2286
65814W        W 8908  34.329  33.785   3.901 -0.0600  0.1580  0.0114
65815W        W 8909   3.533  31.482   3.773 -0.0499 -0.0387 -0.4211
65816W        W 8910   1.012  32.799   7.397  0.0464 -0.1328  0.0450
65817W        W 8911   2.011  33.062   5.413  0.0914 -0.0604 -0.0954
65818W        W 8912   2.318  34.270   5.302  0.0746 -0.1173 -0.0387
65819W        W 8913   3.075  34.296   2.988  0.4747 -0.1739  0.3397
65820W        W 8914   1.370   0.176   7.177 -0.3442 -0.0195  0.0143
65821W        W 8915   0.120  34.072   3.878  0.2868  0.1749 -0.3005
65822W        W 8916   3.670  33.614   6.200 -0.1629 -0.1924  0.1310
65823W        W 8917   1.248  33.490   5.105  0.1186 -0.1542  0.0923
65824W        W 8918   1.408  33.577   2.496 -0.0485  0.1489 -0.0448
65825W        W 8919   1.699  34.312   7.444 -0.1546 -0.0575  0.0673
65826W        W 8920   1.047  33.410   4.607  0.0644 -0.2124 -0.1285
65827W        W 8921   1.045  33.950   4.950 -0.0127  0.3272 -0.0326
65828W        W 8922   3.789  33.242   5.304  0.3340  0.1435  0.2475
65829W        W 8923   3.521  32.888   5.602 -0.1150  0.0178  0.2012
65830W        W 8924   1.779  32.136   5.731 -0.0959 -0.0408 -0.0861
65831W        W 8925   3.621  33.698   6.678 -0.3733 -0.1848 -0.5029
65832W        W 8926   2.767  32.435   4.135 -0.2216 -0.0474 -0.0862
65833W        W 8927   3.947  32.712   5.388 -0.1129  0.2821  0.1057
65834W        W 8928   1.305  33.027   4.868  0.0758 -0.1025 -0.1427
65835W        W 8929   4.069  32.715   6.909  0.1259 -0.0627  0.0465
65836W        W 8930   3.592   0.925   4.781 -0.2699 -0.0125 -0.0850
65837W        W 8931   3.179  33.756   6.102  0.2110 -0.0162 -0.1477
65838W        W 8932   1.216  32.925   6.959 -0.2312 -0.2108  0.1316
65839W        W 8933   1.698  33.073   5.803 -0.1007  0.2933 -0.1153
65840W        W 8934   1.597   0.216   9.695  0.0608  0.1046 -0.0734
65841W        W 8935   3.034  31.942   3.394 -0.1578  0.1340 -0.1255
65842W        W 8936   1.236  34.687   3.481  0.2228  0.0705 -0.1478
65843W        W 8937   1.391  34.505   5.700  0.0059 -0.0428  0.1993
65844W        W 8938   3.322  33.167   4.330 -0.3540 -0.2044 -0.2132
65845W        W 8939   1.257  33.770   6.816  0.3432 -0.1589 -0.3332
65846W        W 8940   2.998  34.326   4.757  0.1941  0.0694 -0.1879
65847W        W 8941   2.272  33.497   4.623 -0.2827 -0.0655 -0.2389
65848W        W 8942   3.092  32.783   4.069 -0.1581  0.2866  0.0578
65849W        W 8943   2.850  32.306   3.643 -0.1131  0.2668 -0.1398
65850W        W 8944   2.079  33.707   6.484  0.1132  0.2433 -0.1551
65851W        W 8945   0.947  34.274   6.793  0.4970 -0.0267 -0.1323
65852W        W 8946   0.148  32.902   7.946 -0.1045  0.0096  0.0073
65853W        W 8947   4.710  33.468   4.416  0.0773  0.3249 -0.1191
65854W        W 8948   3.808  33.078   6.234 -0.0126  0.1883  0.3552
65855W        W 8949   1.909  32.985   4.488 -0.0414  0.0512  0.0419
65856W        W 8950   3.888   0.044   3.824 -0.0852 -0.0274  0.0279
65857W        W 8951   1.872  33.147   3.978 -0.3709 -0.0563  0.1092
65858W        W 8952   4.050  33.997   7.061 -0.0142 -0.1273 -0.1470
65859W        W 8953   1.823  33.655   3.674 -0.0656 -0.1172  0.0549
65860W        W 8954   2.692  33.230   4.574  0.0515  0.0321  0.0196
65861W        W 8955   2.114  32.559   4.692  0.0835  0.1029 -0.3962
65862W        W 8956  34.555  32.813   4.429  0.1577 -0.1332  0.1669
65863W        W 8957   2.238  33.780   2.698 -0.2095 -0.2434 -0.0304
65864W        W 8958   1.396   0.154   4.238 -0.2527 -0.1759  0.1681
65865W        W 8959   2.070  31.860   3.290 -0.1021 -0.1506  0.1275
65866W        W 8960   4.216  34.213   7.518  0.0475 -0.0403 -0.2901
65867W        W 8961   3.270  32.243   4.259  0.2153 -0.0393  0.2872
65868W        W 8962   2.927  32.216   5.769  0.2535  0.1960  0.0745
65869W        W 8963   1.459  33.714   4.044 -0.0848  0.2034  0.0203
65870W        W 8964   1.570  33.899   5.099  0.0372 -0.1210 -0.0555
65871W        W 8965   4.364  34.060   8.478 -0.0529  0.1456  0.2922
65872W        W 8966   1.526  33.283   6.668 -0.0607 -0.0125 -0.2043
65873W        W 8967   0.301  32.355   6.094 -0.1883 -0.2521 -0.2693
65874W        W 8968   2.074  31.737   4.369 -0.0739  0.0766 -0.1901
65875W        W 8969   2.491  32.694   2.289 -0.0532 -0.0571  0.3102
65876W        W 8970   4.162  32.687   3.279 -0.1966  0.1286  0.2277
65877W        W 8971   4.986  34.287   4.656 -0.1143 -0.1471  0.2298
65878W        W 8972   2.410  33.855   3.766  0.0744 -0.1196 -0.4666
65879W        W 8973   1.835  33.540   5.346 -0.0417  0.2787 -0.0412
65880W        W 8974   1.779  33.670   2.872  0.1162 -0.0952  0.1855
65881W        W 8975   1.187  34.186   7.649 -0.1559  0.1116 -0.3195
65882W        W 8976   4.306  32.417   8.029  0.2302  0.2698 -0.2551
65883W        W 8977   0.700  33.920   4.438 -0.0657 -0.2398 -0.2599
65884W        W 8978   2.205  33.015   4.882 -0.0484  0.1275 -0.0648
65885W        W 8979   4.236  32.271   6.061  0.2677  0.0373  0.2534
65886W        W 8980   1.506  33.335   4.394 -0.1396  0.1673 -0.3619
65887W        W 8981  34.099  34.174   2.214  0.0405  0.3246 -0.1900
65888W        W 8982   4.202  33.923   6.100  0.2621  0.1048 -0.1576
65889W        W 8983   1.616  33.327   7.158 -0.5436  0.1057  0.0828
65890W        W 8984   3.016  32.716   5.783 -0.1092  0.1174 -0.0976
65891W        W 8985   1.417  33.280   3.789  0.3247 -0.0712  0.0815
65892W        W 8986   3.147  33.047   4.819 -0.1928  0.0581 -0.1909
65893W        W 8987   1.131  33.422   7.378 -0.1226  0.1276  0.0415
65894W        W 8988   1.521  34.065   3.649 -0.0011  0.0734 -0.1625
65895W        W 8989   3.882  33.536   7.136 -0.0525 -0.2770 -0.3278
65896W        W 8990   4.210  33.809   3.584 -0.2428 -0.1665 -0.1485
65897W        W 8991   1.432  32.574   4.575  0.0326  0.0842  0.3936
65898W        W 8992   2.807  32.748   4.579  0.1295 -0.0331  0.2491
65899W        W 8993   1.297  33.336   6.012  0.1573 -0.1564  0.2863
65900W        W 8994   2.199   0.078   4.957  0.0417 -0.0471 -0.2083
65901W        W 8995   1.770  32.220   4.336  0.0281 -0.1410  0.1649
65902W        W 8996   3.336  33.364   5.769 -0.0394 -0.1261 -0.2054
65903W        W 8997   2.789  33.365   5.128 -0.0678  0.0994 -0.1465
65904W        W 8998   1.192  32.809   5.844  0.1509  0.1969 -0.0301
65905W        W 8999   2.363  32.403   3.834  0.2581 -0.2566  0.0220
65906W        W 9000   1.735  33.754   6.851  0.0793 -0.0493 -0.1099
65907W        W 9001   2.910  33.460   5.607 -0.1249  0.3002 -0.3391
65908W        W 9002   3.355  31.895   6.416  0.1998  0.0242  0.1731
65909W        W 9003   4.116  32.667   7.381 -0.2249 -0.1897 -0.1220
65910W        W 9004   0.685  33.596   5.214  0.3815 -0.1331  0.4702
65911W        W 9005   0.718  32.977   6.160 -0.0015 -0.0527 -0.1501
65912W        W 9006   3.853  33.278   5.773  0.3213 -0.0140 -0.0346
65913W        W 9007   4.027  32.237   5.310  0.0878  0.1257 -0.0849
65914W        W 9008   2.348  33.319   7.621 -0.3907  0.0446  0.3422
65915W        W 9009  33.745  34.207   2.776  0.1133 -0.0729 -0.4207
65916W        W 9010   2.949  32.773   6.294 -0.0741  0.0545  0.1320
65917W        W 9011   0.524  33.730   7.478  0.0514 -0.1819 -0.0642
65918W        W 9012   0.442  34.403   5.395  0.0673  0.0845  0.0187
65919W        W 9013   1.463  33.701   3.324 -0.0534 -0.1704  0.1481
65920W        W 9014   1.665  32.626   5.971  0.0207 -0.3891 -0.3835
65921W        W 9015   0.267  33.671   4.287  0.2788  0.2529  0.1423
65922W        W 9016   1.313  32.260   4.155 -0.0951 -0.1080  0.0563
65923W        W 9017   1.789  34.684   6.940  0.1148  0.2179 -0.1315
65924W        W 9018   3.042  33.820   6.683  0.1046  0.1978 -0.2145
65925W        W 9019  33.753  32.685   3.159  0.0496 -0.3568  0.1032
65926W        W 9020   2.614  33.814   5.373  0.0402  0.0838 -0.4204
65927W        W 9021   0.864  32.457   6.008 -0.2066  0.0950 -0.2936
65928W        W 9022   4.097  32.826   5.894  0.1480 -0.0304 -0.0730
65929W        W 9023   2.632  33.757   4.846 -0.1364  0.2466 -0.1768
65930W        W 9024   0.970  32.514   6.923 -0.4464 -0.1184 -0.1623
65931W        W 9025   1.205  32.440   5.041 -0.0274  0.0074  0.1447
65932W        W 9026   3.055  31.829   4.033  0.0345  0.3043 -0.1046
65933W        W 9027   1.512  33.846   7.300  0.0476  0.0583  0.2050
65934W        W 9028   1.651  34.198   2.766 -0.0128 -0.0619  0.2769
65935W        W 9029   2.117  33.450   7.192 -0.4745  0.1633  0.3611
65936W        W 9030   0.530   0.061   3.997  0.1928 -0.1810 -0.1151
65937W        W 9031   3.759  34.664   4.320  0.1569 -0.2764  0.0189
65938W        W 9032   0.706  31.426   7.040  0.0318  0.2693 -0.0786
65939W        W 9033   1.219  34.683   4.777  0.1604  0.0233  0.0519
65940W        W 9034   1.844  34.282   5.106  0.3512  0.0494 -0.2115
65941W        W 9035   2.558  33.653   4.252 -0.2602  0.2344  0.2547
65942W        W 9036   0.224  34.193   4.576  0.0816  0.1766 -0.1652
65943W        W 9037   3.643  31.911   4.083 -0.0081  0.2575  0.1797
65944W        W 9038   1.651  33.787   7.750 -0.0225  0.1128  0.0453
65945W        W 9039   3.422  33.166   7.507  0.0505  0.1642  0.2149
65946W        W 9040   3.720  34.096   7.408 -0.1152 -0.1671  0.0724
65947W        W 9041   1.462  32.013   9.927  0.1677  0.0143 -0.0235
65948W        W 9042   2.675  33.962  10.167  0.2191 -0.0668 -0.3455
65949W        W 9043   2.544  33.125   7.183  0.2090  0.3406 -0.1353
65950W        W 9044  34.166  31.599   9.747  0.3361  0.1153  0.1253
65951W        W 9045   3.902  34.515   9.674 -0.0605 -0.1158  0.0690
65952W        W 9046   1.198  33.691   7.781  0.2239 -0.1627  0.2388
65953W        W 9047   0.069  32.220  10.225  0.0306  0.1057 -0.1006
65954W        W 9048   2.303  34.214   8.014 -0.0626 -0.2816  0.0554
65955W        W 9049   1.563  32.272  10.375  0.2070  0.0920 -0.1619
65956W        W 9050   0.211  33.689   5.964 -0.0464  0.2068 -0.1802
65957W        W 9051   1.003  33.424   8.822 -0.0316  0.2099  0.5424
65958W        W 9052   1.705  33.320   9.656  0.1048  0.0970 -0.3047
65959W        W 9053   1.310  33.332  10.033  0.1686  0.1091  0.1573
65960W        W 9054   3.714  33.950   9.445  0.0811 -0.3283 -0.1479
65961W        W 9055   3.148   1.663   9.403  0.2942  0.3524 -0.1772
65962W        W 9056   2.063  33.381   8.152  0.1720 -0.0228 -0.2662
65963W        W 9057   3.812   0.336   7.648  0.1820  0.0040 -0.2821
65964W        W 9058   0.968  33.929   8.662  0.0207 -0.0333  0.0728
65965W        W 9059   2.676  33.652   8.675 -0.0533  0.1254  0.2329
65966W        W 9060   2.244  32.825   8.923  0.2082 -0.3806  0.2250
65967W        W 9061   2.235  31.046   9.820 -0.1067  0.0254 -0.1310
65968W        W 9062   2.394  34.290   8.621  0.1126  0.0032 -0.0623
65969W        W 9063   2.290  33.336   9.086 -0.0520 -0.0816  0.3773
65970W        W 9064   1.491  34.293   9.153 -0.2154 -0.1351 -0.0019
65971W        W 9065  34.468  33.275   7.822 -0.0780  0.3141 -0.2328
65972W        W 9066   0.669  33.264   7.352  0.0186 -0.0846 -0.0746
65973W        W 9067   3.739  33.027   7.861  0.3371  0.1568  0.0773
65974W        W 9068   3.641  32.928   8.810 -0.1190 -0.2599 -0.1686
65975W        W 9069   2.160  31.978   9.705  0.1287 -0.2225  0.1624
65976W        W 9070   3.476  34.097   8.355  0.0375 -0.1363  0.2425
65977W        W 9071  34.623  30.873   9.434  0.0631  0.0968 -0.4329
65978W        W 9072   4.282  32.924   8.037  0.0009 -0.2628 -0.1825
65979W        W 9073   3.762  33.240  10.163  0.0850  0.0022 -0.2999
65980W        W 9074   4.306  33.571   8.447  0.0351 -0.4597 -0.1388
65981W        W 9075  33.269  34.086  10.129 -0.0021 -0.1745 -0.3115
65982W        W 9076   0.719  32.884  10.735  0.0690  0.1332 -0.1050
65983W        W 9077   0.057  31.860   9.620 -0.3079 -0.0919  0.0340
65984W        W 9078   0.803  32.898   8.661  0.1884 -0.3433 -0.0272
65985W        W 9079   2.957  32.451  10.055 -0.1916 -0.1869 -0.0522
65986W        W 9080   0.864  33.956   8.129  0.0680  0.1753  0.0279
65987W        W 9081  34.157  31.090   9.588 -0.0925 -0.2262  0.1608
65988W        W 9082   2.428  33.032   8.056  0.2096  0.2511 -0.1456
65989W        W 9083   2.517  33.025   8.523 -0.0258 -0.1565  0.1049
65990W        W 9084   1.838   0.077   9.229  0.1307 -0.2515  0.1502
65991W        W 9085  34.423  32.653   7.235  0.0846 -0.2572 -0.1691
65992W        W 9086  34.224  33.928   8.541  0.2168  0.4060 -0.0298
65993W        W 9087   3.046  33.377   9.575 -0.2114 -0.1351 -0.2633
65994W        W 9088   0.052  33.296   8.219  0.2793 -0.1609 -0.0861
65995W        W 9089   2.939  32.991   8.233  0.1601  0.1995  0.0883
65996W        W 9090   2.795  33.479   9.144 -0.1208  0.2651 -0.0564
65997W        W 9091   4.566  34.079   7.144 -0.0405  0.0312 -0.1160
65998W        W 9092   3.772  32.596   6.332  0.1261 -0.2765 -0.0914
65999W        W 9093   2.611  33.657   6.468 -0.0415  0.0308  0.1659
66000W        W 9094   3.847  30.026   9.687  0.1013 -0.1576  0.2643
66001W        W 9095   1.079  33.392   8.301 -0.0082 -0.0793 -0.1581
66002W        W 9096   2.034  33.895   8.764 -0.0267 -0.1584  0.0483
66003W        W 9097   2.038  34.108   9.172 -0.0660  0.0482  0.0658
66004W        W 9098   1.068  32.125  10.250  0.0178 -0.0193 -0.0015
66005W        W 9099   3.487   0.034   8.146 -0.2932 -0.1248 -0.0836
66006W        W 9100   3.827  34.434   9.179 -0.1470  0.1059  0.1303
66007W        W 9101   0.356  33.837   7.935 -0.1130 -0.0604 -0.0760
66008W        W 9102   2.660  31.365   9.168  0.3059 -0.1524  0.0822
66009W        W 9103   3.436  33.358   7.020 -0.2770  0.1818 -0.2312
66010W        W 9104   2.059  31.574   8.684  0.0943  0.1422 -0.0088
66011W        W 9105   2.787   0.386   9.903 -0.0799  0.3221  0.2566
66012W        W 9106   0.727  33.048   6.935 -0.2416  0.0893  0.1273
66013W        W 9107  33.618   0.478   8.477 -0.2832  0.3910 -0.0006
66014W        W 9108   3.274  33.184   9.074 -0.0548 -0.2670  0.1246
66015W        W 9109  33.643  32.231  10.106 -0.1397  0.4404  0.1937
66016W        W 9110   1.747  33.685   8.361 -0.0818  0.1644 -0.2789
66017W        W 9111   3.759  33.691   7.714  0.0256 -0.1098  0.4110
66018W        W 9112   0.247  32.646   7.196  0.2251 -0.1278 -0.3823
66019W        W 9113   4.857  33.615   9.344 -0.3321 -0.1454  0.0986
66020W        W 9114   0.669  32.327   9.215 -0.0950 -0.2357  0.0752
66021W        W 9115   1.546  34.347   7.947 -0.2093 -0.1743 -0.1335
66022W        W 9116   2.298  33.251   9.769 -0.0592 -0.1835  0.1592
66023W        W 9117   0.819  33.041   9.197 -0.1553 -0.0478  0.2315
66024W        W 9118   1.626  33.264   8.500  0.1188  0.1548 -0.0401
66025W        W 9119   2.559  34.218   9.478  0.1534 -0.0174 -0.2368
66026W        W 9120   2.083  32.943   9.401 -0.0953  0.2034  0.0048
66027W        W 9121   1.524  32.044   8.110 -0.1900 -0.3439  0.2185
66028W        W 9122   0.826  33.302   9.646  0.0495  0.0040 -0.1015
66029W        W 9123   4.904  33.575   7.693  0.0211 -0.0118  0.0661
66030W        W 9124   2.130  33.379   8.637 -0.2985 -0.0646 -0.1674
66031W        W 9125   4.600  34.360   7.990  0.4696 -0.0168  0.2997
66032W        W 9126   1.703  32.894   9.893  0.0852 -0.2448 -0.0726
66033W        W 9127   2.311  33.751   8.375 -0.2339  0.0171  0.0315
66034W        W 9128   1.827  32.518   7.695 -0.2014 -0.0490  0.0698
66035W        W 9129   0.592   1.299   8.907 -0.1905 -0.0270 -0.0552
66036W        W 9130   3.395  33.155   8.393  0.0890 -0.0728 -0.2439
66037W        W 9131   1.556  34.348   8.502  0.1148 -0.1307 -0.0827
66038W        W 9132   2.801  34.551   8.891  0.2154  0.3392 -0.0415
66039W        W 9133   2.661  32.559   8.689  0.0464  0.1275  0.1620
66040W        W 9134   4.157  33.633   6.592 -0.3029 -0.0563 -0.0320
66041W        W 9135   4.561  33.067   9.914  0.2680 -0.1881 -0.2984
66042W        W 9136   4.113  34.471   8.251  0.0112  0.2945  0.0274
66043W        W 9137   3.656  34.363   6.970 -0.1643  0.1179  0.0301
66044W        W 9138   1.391   0.135   9.025 -0.1573  0.2135 -0.0267
66045W        W 9139   1.062  33.115   7.798  0.0861 -0.0573 -0.1814
66046W        W 9140   3.459  34.110   8.947 -0.1184  0.1813 -0.0537
66047W        W 9141  34.568  32.477   9.750  0.0725 -0.2257  0.0350
66048W        W 9142   0.023  33.026   7.441  0.0473 -0.4665  0.0124
66049W        W 9143   1.956  34.454   8.810 -0.2892 -0.1209 -0.0744
66050W        W 9144   1.513  33.040   7.611 -0.0582  0.0902 -0.2002
66051W        W 9145   3.060  32.571   9.157  0.3168  0.3510  0.1570
66052W        W 9146   2.033  32.918   8.452 -0.2226 -0.0107 -0.2576
66053W        W 9147   2.718  33.421  10.055 -0.0890  0.3717  0.1247
66054W        W 9148   2.662  33.099   9.426  0.2310 -0.1247  0.1005
66055W        W 9149   0.258  31.804   9.171 -0.0080 -0.0777  0.1149
66056W        W 9150   1.884  33.363   7.641  0.1105  0.0512 -0.0092
66057W        W 9151   2.465  33.775   7.434  0.0354 -0.0481  0.1058
66058W        W 9152   3.603  32.711   8.326  0.2855  0.1071 -0.0051
66059W        W 9153   4.852  33.942   8.487  0.1597 -0.0056 -0.1313
66060W        W 9154   4.659  33.236   7.299  0.4798 -0.0479 -0.1539
66061W        W 9155   3.480  34.591   9.981 -0.3786 -0.3096  0.3086
66062W        W 9156   3.404  32.648   6.017  0.2016  0.1917 -0.0499
66063W        W 9157   1.880  34.123   8.218  0.0101 -0.2409  0.1115
66064W        W 9158   1.020   0.332   8.037 -0.2425  0.0211  0.0951
66065W        W 9159   3.497  33.135   9.511 -0.2420 -0.0602  0.0151
66066W        W 9160   1.799  33.154   8.998 -0.1856  0.2152 -0.0079
66067W        W 9161   0.486  32.518   8.395  0.2498 -0.2637  0.1690
66068W        W 9162   5.137  34.243   9.380 -0.0023  0.1625  0.0792
66069W        W 9163   0.648  32.775   9.574  0.0336 -0.1641 -0.2017
66070W        W 9164   0.366  32.440   9.847  0.0666  0.1264 -0.3222
66071W        W 9165   3.305  32.796   7.902 -0.1366  0.0961 -0.0504
66072W        W 9166   1.253  32.628  10.596  0.1978 -0.1427 -0.0112
66073W        W 9167   3.390   0.337   7.281  0.3050  0.4022 -0.2102
66074W        W 9168   3.378  33.903   7.077 -0.0056 -0.5551 -0.1207
66075W        W 9169   1.154  31.578   9.400 -0.0765  0.0231  0.0286
66076W        W 9170   2.927  32.485   7.671  0.3125  0.2440  0.2895
66077W        W 9171   1.694   0.304   8.673  0.2811 -0.2300  0.2600
66078W        W 9172   1.964   0.272  12.211 -0.0030 -0.1520  0.1547
66079W        W 9173  34.571  31.990   7.903 -0.3082 -0.1538 -0.0179
66080W        W 9174   3.924  33.002   9.268  0.2076 -0.0451  0.1081
66081W        W 9175   4.756   0.411   9.790 -0.0757  0.1072  0.0310
66082W        W 9176   0.270  33.282   9.879 -0.0641  0.0198  0.0473
66083W        W 9177   3.018  32.913   7.158 -0.2186 -0.0812  0.0247
66084W        W 9178   1.384  33.723   8.727 -0.1426  0.0632  0.1191
66085W        W 9179   3.231  33.915   9.441  0.0582 -0.1497  0.0267
66086W        W 9180   3.671  33.623   8.247 -0.2934  0.0726  0.0031
66087W        W 9181   1.333  32.481   9.895 -0.0562  0.1629  0.1396
66088W        W 9182   3.637  33.421   8.741 -0.0590 -0.1272 -0.0781
66089W        W 9183   2.676  33.429   8.243 -0.2098 -0.2022 -0.2723
66090W        W 9184   1.184  34.577   9.470 -0.1234  0.0799 -0.1786
66091W        W 9185   0.601   0.162   8.187  0.1518 -0.3125  0.1377
66092W        W 9186   1.335  33.907   8.238 -0.0897  0.0007 -0.1139
66093W        W 9187   0.699  32.991   8.163 -0.0378  0.0198  0.1498
66094W        W 9188   1.533  31.150   8.066  0.1330 -0.0117  0.1038
66095W        W 9189   1.085  32.018   8.953  0.0451 -0.0906  0.2020
66096W        W 9190   2.499  34.000   9.021 -0.0272 -0.2701 -0.0423
66097W        W 9191   2.334  33.297   6.690  0.0708 -0.0906  0.1784
66098W        W 9192   0.330  34.148   9.270 -0.1928 -0.1251 -0.2742
66099W        W 9193   0.420  31.464   9.820 -0.2808 -0.2085 -0.0214
66100W        W 9194   2.410  30.943   9.304 -0.0453 -0.0566  0.1158
66101W        W 9195   3.196  34.570   8.505 -0.0135 -0.2933 -0.0848
66102W        W 9196   1.701  32.226   9.373 -0.0980 -0.1311 -0.0776
66103W        W 9197   3.019  34.113   8.691  0.3166 -0.0868 -0.1174
66104W        W 9198   1.649  33.881   9.541  0.2750 -0.2563  0.1545
66105W        W 9199   2.873  33.421   7.329  0.6028  0.3143  0.1610
66106W        W 9200   1.084  34.450   8.138 -0.0053  0.2011  0.0838
66107W        W 9201   3.334  33.912   7.927 -0.2446  0.0148 -0.1393
66108W        W 9202   3.097  32.127   8.807  0.0964 -0.0350 -0.0750
66109W        W 9203   0.933   0.794   9.304  0.0216  0.1632 -0.2906
66110W        W 9204   0.814   0.463   8.551 -0.0630 -0.0294 -0.0346
66111W        W 9205   2.170  33.851   9.591 -0.0524  0.0719 -0.0257
66112W        W 9206   1.846  32.346   9.869  0.1916  0.0288  0.1551
66113W        W 9207   3.134  32.465   8.346 -0.1896  0.2965 -0.0909
66114W        W 9208   4.277   3.395   3.085  0.0238  0.0938  0.1861
66115W        W 9209   5.844   1.450   0.870 -0.2323  0.0216 -0.2341
66116W        W 9210   7.081   0.252  31.137  0.3093 -0.3063 -0.1288
66117W        W 9211   6.987   2.797   0.730  0.1607 -0.3061 -0.0225
66118W        W 9212   4.198   1.143   1.658 -0.0978  0.3696 -0.0802
66119W        W 9213   6.138   4.229   0.964 -0.0237 -0.2135  0.2060
66120W        W 9214   4.654   0.350   4.169  0.0316  0.1106 -0.2017
66121W        W 9215   6.743   1.201   0.693  0.0645 -0.3057  0.1559
66122W        W 9216   7.048   2.414   4.322 -0.0631  0.0253  0.2309
66123W        W 9217   5.288  34.121  31.519 -0.2595 -0.0885  0.0076
66124W        W 9218   6.162   1.007   2.403 -0.1651  0.0978 -0.0298
66125W        W 9219   5.410   2.557   2.980  0.3170 -0.3183 -0.1423
66126W        W 9220   6.881  34.005   0.478  0.1047  0.1693  0.0279
66127W        W 9221   3.118   0.970   1.747  0.1643 -0.0363  0.2872
66128W        W 9222   7.381  34.581   1.495  0.0337 -0.0339  0.0581
66129W        W 9223   4.603   1.210   0.368 -0.0380 -0.1505 -0.2674
66130W        W 9224   3.681   0.235   3.338  0.0070 -0.1731  0.1312
66131W        W 9225   6.218   1.129   0.712  0.1713  0.2866  0.1842
66132W        W 9226   5.838   3.150   1.038 -0.0785  0.3542 -0.0676
66133W        W 9227   6.820   0.311   3.622 -0.0393  0.0299  0.1895
66134W        W 9228   6.139   1.485   4.200  0.0985 -0.0420  0.0527
66135W        W 9229   5.436   2.971  31.215 -0.2571  0.1937  0.2010
66136W        W 9230   3.716   0.398  31.230 -0.3850 -0.0776  0.1034
66137W        W 9231   4.774   2.956   2.207 -0.0427  0.0258  0.2051
66138W        W 9232   7.076   1.384   3.284 -0.0783 -0.1526  0.3183
66139W        W 9233   7.637   0.405   1.635 -0.0715  0.0629 -0.1864
66140W        W 9234   6.790   1.606   1.403  0.3004 -0.0844 -0.0134
66141W        W 9235   4.650   2.927   0.525 -0.1130  0.1754 -0.2161
66142W        W 9236   6.495   3.031   1.818  0.0430 -0.2289  0.0792
66143W        W 9237   6.653   0.585   4.496  0.1499 -0.2011  0.1191
66144W        W 9238   4.913   1.707   2.271 -0.0389 -0.0497  0.1418
66145W        W 9239   2.909   2.873   1.025  0.2717  0.1899 -0.0445
66146W        W 9240   5.625   1.791  31.729 -0.1106  0.3118  0.2758
66147W        W 9241   6.974   2.091   1.255  0.2045 -0.1242  0.0970
66148W        W 9242   6.259   1.899   1.552 -0.0651 -0.3234 -0.2098
66149W        W 9243   5.014   2.500   3.809 -0.0659  0.2378 -0.0270
66150W        W 9244   4.910   2.562  31.936  0.3394 -0.2485 -0.0203
66151W        W 9245   5.881   2.035   3.762  0.1993 -0.1922 -0.4646
66152W        W 9246   4.099   2.400   3.643  0.1763  0.2845  0.2232
66153W        W 9247   5.257   1.845   1.681  0.1618 -0.1737 -0.2267
66154W        W 9248   5.742   1.960   1.601  0.0148 -0.1134 -0.0153
66155W        W 9249   5.679   4.242   1.178 -0.2373 -0.0560 -0.0381
66156W        W 9250   6.095   2.042   2.972  0.1646 -0.0097 -0.0856
66157W        W 9251   4.726   1.602   4.117  0.0507  0.0536 -0.2049
66158W        W 9252   4.461   2.933   2.775  0.0981  0.0131  0.0908
66159W        W 9253   7.381   0.927   4.780  0.3114  0.2948 -0.0434
66160W        W 9254   4.066   3.371   0.019 -0.2761  0.0802 -0.0246
66161W        W 9255   5.947   0.270  31.624 -0.3293  0.1175 -0.0747
66162W        W 9256   5.734   1.511   0.291  0.0746  0.0324  0.1702
66163W        W 9257   6.325   0.003  31.748 -0.0099  0.2394 -0.0281
66164W        W 9258   5.499   0.388   1.374  0.2326 -0.0184 -0.0805
66165W        W 9259   4.040   3.899   1.492  0.2049 -0.0257 -0.1975
66166W        W 9260   5.578   1.612   2.764  0.1156  0.0246 -0.2445
66167W        W 9261   6.184   2.509   2.795  0.3548  0.1857  0.1041
66168W        W 9262   7.176   2.288  31.223 -0.1399  0.0807  0.1337
66169W        W 9263   6.026   0.184   1.068  0.0211  0.1443  0.2008
66170W        W 9264   5.004   2.546   3.280  0.1456  0.0063  0.1589
66171W        W 9265   5.813   2.641  31.483 -0.4042 -0.1086  0.2486
66172W        W 9266   7.959   4.220  31.885 -0.0993 -0.4297  0.2666
66173W        W 9267   7.387   3.372   1.401 -0.2422 -0.1644  0.2266
66174W        W 9268   7.177   3.813  31.828  0.1025 -0.2490 -0.0512
66175W        W 9269   5.389   1.530   0.713  0.0998  0.0326 -0.0390
66176W        W 9270   5.082   0.626   3.101  0.1983 -0.1261  0.2205
66177W        W 9271   4.446   2.535   2.068  0.1250 -0.2933 -0.1921
66178W        W 9272   6.310  34.011   1.251 -0.4558  0.2821 -0.1765
66179W        W 9273   7.277   1.297   3.825 -0.2650 -0.1434 -0.0816
66180W        W 9274   2.504   3.783   3.170  0.1894  0.3556  0.0017
66181W        W 9275   5.726   1.025   0.379  0.0879 -0.0647 -0.1344
66182W        W 9276   6.380   1.965   3.500 -0.0727 -0.1175  0.1955
66183W        W 9277   7.059   2.044   1.867  0.0591 -0.0116  0.2786
66184W        W 9278   7.823   2.004   0.156 -0.0507  0.2372 -0.2060
66185W        W 9279   6.347   0.075   1.513  0.0891  0.3008 -0.1553
66186W        W 9280   7.347   0.093   2.382 -0.0948 -0.0062  0.0858
66187W        W 9281   4.703   1.661   0.110  0.0981 -0.1571 -0.0710
66188W        W 9282   6.435   2.563   0.346  0.0271 -0.0817 -0.0636
66189W        W 9283   6.835   1.628   3.721  0.2036  0.2441  0.0213
66190W        W 9284   7.064   2.322  31.693  0.2685  0.1127  0.0108
66191W        W 9285   5.127   2.629   0.406  0.1671  0.1168 -0.1510
66192W        W 9286   6.143   0.750   3.318 -0.0550  0.0458 -0.3629
66193W        W 9287   6.766   1.749   3.238  0.1450  0.0208  0.0357
66194W        W 9288   4.096   4.428  30.582  0.2745  0.0809  0.0088
66195W        W 9289   3.294   2.840   1.836 -0.4577 -0.0876  0.0154
66196W        W 9290   3.517   2.809   0.699  0.3036  0.1373 -0.0332
66197W        W 9291   6.007  34.522   3.117  0.4327 -0.0276 -0.1755
66198W        W 9292   5.418   3.569   1.890 -0.0596  0.1093 -0.1590
66199W        W 9293   7.014  34.167   1.435 -0.0206 -0.0423 -0.0907
66200W        W 9294   3.765   1.247   3.461  0.0572 -0.1357 -0.0347
66201W        W 9295   6.758   0.196   2.570 -0.1148  0.0573 -0.1351
66202W        W 9296   4.089   1.564   1.285 -0.0118  0.1076  0.1461
66203W        W 9297   7.574   3.557   0.466 -0.0235  0.1301  0.1532
66204W        W 9298   6.669   0.926   0.037  0.0076  0.2989  0.1323
66205W        W 9299   8.664   3.116  30.520 -0.1370 -0.0577 -0.2370
66206W        W 9300   4.587   1.286   2.133  0.0012  0.0929 -0.0365
66207W        W 9301   5.613   0.435   1.892 -0.0229 -0.0197 -0.0236
66208W        W 9302   4.603   0.580   2.903  0.2977  0.0056 -0.0514
66209W        W 9303   5.112   1.744   2.856  0.0131 -0.1364  0.0770
66210W        W 9304   7.894   1.925   3.475 -0.1330 -0.2994  0.4082
66211W        W 9305   5.204   0.792   1.649  0.0524  0.0674  0.0918
66212W        W 9306   6.785   1.360   2.829 -0.1410 -0.2283 -0.0787
66213W        W 9307   6.248   0.635   1.050  0.0810  0.0852  0.4478
66214W        W 9308   4.828   1.831   1.463  0.3190 -0.0105  0.2496
66215W        W 9309   7.497  34.481   4.899  0.0625  0.0734  0.1716
66216W        W 9310   5.732   3.452   1.383  0.1415  0.2149  0.0968
66217W        W 9311   7.205   1.891   4.573 -0.0034  0.2486  0.1626
66218W        W 9312   6.320   3.769   0.732 -0.1058  0.2021 -0.0369
66219W        W 9313   5.487   0.854   2.610  0.1465  0.0316  0.0834
66220W        W 9314   5.689   1.944   0.584  0.3278 -0.1600 -0.0229
66221W        W 9315   3.033   3.548   2.804 -0.1722  0.2063  0.1023
66222W        W 9316   4.474   3.022   0.039  0.1611 -0.0855 -0.1644
66223W        W 9317   5.104   0.841  31.727  0.3477  0.1627  0.1309
66224W        W 9318   7.851   2.735   1.956  0.4182 -0.1253 -0.0927
66225W        W 9319   6.781   1.380   0.223  0.2718 -0.0528 -0.0169
66226W        W 9320   5.081   0.691   3.656 -0.2873  0.0178  0.1201
66227W        W 9321   5.791  34.548   2.215 -0.0546  0.0409  0.3741
66228W        W 9322   6.565   0.652   2.751  0.0451  0.0117  0.0782
66229W        W 9323   5.452   2.399   0.704  0.0293  0.0338 -0.1885
66230W        W 9324   5.624   0.491   0.348  0.1040  0.1723  0.2376
66231W        W 9325   5.397   3.362   0.995 -0.1557 -0.1007 -0.2514
66232W        W 9326   5.007   2.779  31.427 -0.1456 -0.0294 -0.1517
66233W        W 9327   4.998   1.222   0.711 -0.1147  0.1690  0.1939
66234W        W 9328   5.904   2.416   0.448 -0.2290 -0.0621  0.1447
66235W        W 9329   7.615  34.510   1.935  0.0550  0.0012 -0.0238
66236W        W 9330   3.300   1.467   3.244 -0.0438 -0.0690 -0.1375
66237W        W 9331   7.574   0.783   2.978  0.0252 -0.0823 -0.0935
66238W        W 9332   4.383   1.264  31.871 -0.2873  0.1602 -0.3345
66239W        W 9333   4.063   2.424   2.896 -0.1635 -0.1634 -0.4285
66240W        W 9334   7.189   0.028   0.417  0.2245  0.0065 -0.0702
66241W        W 9335   7.339   0.050  31.494 -0.1005 -0.0035 -0.0291
66242W        W 9336   7.322   1.810   2.874 -0.1886 -0.1165 -0.2438
66243W        W 9337   7.043   1.915   0.006 -0.0166  0.0563  0.1571
66244W        W 9338   6.099   0.215   0.125  0.0333 -0.5298 -0.2863
66245W        W 9339   5.987  34.067  31.495  0.2124 -0.1952  0.2588
66246W        W 9340   3.692   2.487   3.205  0.3227 -0.3542 -0.1627
66247W        W 9341   5.578   2.614   1.151 -0.1605 -0.2446  0.0912
66248W        W 9342   7.805   2.101   2.798  0.1059 -0.2140  0.2007
66249W        W 9343   6.598  34.298   0.158 -0.1075 -0.2613 -0.0577
66250W        W 9344   8.173   3.256   0.567 -0.0162 -0.0186 -0.0266
66251W        W 9345   3.538   2.390   1.536  0.1112 -0.1458  0.0772
66252W        W 9346   6.686   0.291   3.111  0.0878 -0.2513 -0.2785
66253W        W 9347   6.243   2.122   0.722  0.1224 -0.0397  0.1109
66254W        W 9348   6.080   0.222   1.945 -0.1126  0.2178  0.1242
66255W        W 9349   4.794   1.242  30.839 -0.0412 -0.0113 -0.0244
66256W        W 9350   5.169   0.307   2.150  0.4043 -0.3685  0.0071
66257W        W 9351   1.483   3.019   1.642  0.1430 -0.1472  0.4290
66258W        W 9352   7.180   0.432   3.254  0.1786 -0.0642 -0.1264
66259W        W 9353   5.345  34.614   2.533  0.0455 -0.1284 -0.1098
66260W        W 9354   6.378  34.495   2.440 -0.1262  0.1975  0.1075
66261W        W 9355   7.909   1.818   2.288 -0.3539  0.0859  0.0390
66262W        W 9356   6.253   1.503  31.469 -0.0993  0.1438  0.3923
66263W        W 9357   5.983   2.423   1.551  0.0800 -0.0027 -0.0236
66264W        W 9358   5.519   1.002  31.418 -0.1713  0.0985  0.0156
66265W        W 9359   5.862   1.228   2.840  0.3512 -0.3113  0.0560
66266W        W 9360   3.972   2.070   3.249  0.0147 -0.3973  0.0348
66267W        W 9361   4.139   3.449   1.745  0.1630  0.0633 -0.1213
66268W        W 9362   6.008   2.278   2.249 -0.1926 -0.0674 -0.0063
66269W        W 9363   6.078   2.672   1.006 -0.1444 -0.1481  0.1735
66270W        W 9364   6.851  33.671   3.534 -0.2014 -0.1708  0.2193
66271W        W 9365   6.252   0.863  30.854 -0.1274  0.0589 -0.0839
66272W        W 9366   4.636   2.810   1.388  0.2372  0.2650 -0.2058
66273W        W 9367   6.519   2.742   1.404  0.0190  0.2550 -0.0530
66274W        W 9368   5.707   0.899   1.589  0.2358 -0.1278 -0.1799
66275W        W 9369   6.004   1.859   1.996 -0.0516  0.2204 -0.1587
66276W        W 9370   4.533   3.453   1.422  0.1374  0.1611 -0.2089
66277W        W 9371   6.836   2.051   2.754  0.0028  0.1643  0.1395
66278W        W 9372   3.110   2.931   0.412 -0.0392 -0.2248 -0.0054
66279W        W 9373   6.314  32.687   2.137  0.2082  0.0067  0.2514
66280W        W 9374   3.425   3.260   1.996  0.1659 -0.2355  0.1547
66281W        W 9375   4.692   0.827   0.033  0.2144 -0.2242  0.2789
66282W        W 9376   4.151   1.874   0.686 -0.1995  0.3164 -0.2759
66283W        W 9377   7.552   0.737   0.265 -0.3576  0.3988  0.1644
66284W        W 9378   7.603   2.747  31.906  0.2612 -0.1598 -0.1169
66285W        W 9379   5.523   0.906   2.103  0.0965  0.1007 -0.0188
66286W        W 9380   6.473   0.955   1.982 -0.1181  0.0398 -0.3030
66287W        W 9381   4.926   2.730   2.738  0.3839  0.0110 -0.0176
66288W        W 9382   7.915  34.536   1.234  0.2142 -0.0634 -0.1230
66289W        W 9383   6.632  33.717   0.118 -0.1885 -0.2226  0.0939
66290W        W 9384   7.742   1.639   3.083  0.0278  0.2745  0.2028
66291W        W 9385   6.389   1.974   3.991  0.2306 -0.0455  0.0579
66292W        W 9386   3.933  34.322   1.362 -0.1189  0.2778 -0.2003
66293W        W 9387   7.610  34.678   2.930  0.0556 -0.0224  0.0427
66294W        W 9388   6.483  33.173  31.432  0.0474 -0.0283  0.2580
66295W        W 9389   4.467   2.395   1.167  0.3260 -0.1872  0.1932
66296W        W 9390   6.279   3.314   2.813  0.0662  0.5120 -0.0861
66297W        W 9391   4.626   2.180  31.788 -0.0641 -0.1743 -0.1411
66298W        W 9392   3.223   2.016   0.785 -0.0889 -0.1687  0.0363
66299W        W 9393   5.854   1.552   4.645  0.0143  0.0648 -0.1448
66300W        W 9394   6.276   0.332   2.471 -0.0049 -0.3384  0.0046
66301W        W 9395   7.536   1.412   1.985  0.0834  0.0117 -0.1071
66302W        W 9396   5.575   1.549   1.254 -0.0076  0.0745 -0.1602
66303W        W 9397   6.568   1.873   1.917 -0.0588 -0.1567  0.2201
66304W        W 9398   7.140   2.432   2.926 -0.1634  0.1677  0.0836
66305W        W 9399   6.975   0.893   2.464  0.3971  0.0106 -0.0734
66306W        W 9400   4.258   1.997   4.081 -0.0718 -0.1300  0.0854
66307W        W 9401   4.466   0.080   2.680 -0.0178 -0.1667 -0.1264
66308W        W 9402   7.711   5.160  31.525 -0.0442  0.1174 -0.1959
66309W        W 9403   7.329   1.759   3.565  0.0494 -0.3124  0.3193
66310W        W 9404   4.377   2.077   0.251  0.2136 -0.3652 -0.4035
66311W        W 9405   4.344   2.946   1.826  0.0080  0.1102  0.0845
66312W        W 9406   5.518   3.047  31.714  0.1545  0.1050  0.2460
66313W        W 9407   7.123   1.054   2.002  0.1195 -0.0211 -0.1793
66314W        W 9408   5.142   1.074   3.338 -0.0638 -0.0147 -0.1188
66315W        W 9409   4.044   1.137   0.402  0.1151  0.0923 -0.1505
66316W        W 9410   5.197   3.069   1.968 -0.1622 -0.0740 -0.2405
66317W        W 9411   6.601   0.102   0.211  0.1097  0.0377  0.3164
66318W        W 9412   7.135   2.413  30.057  0.1876  0.0407 -0.0061
66319W        W 9413   6.737  33.945   0.968  0.0656 -0.0109  0.0492
66320W        W 9414   7.441  33.622   3.774 -0.0075 -0.1594 -0.1744
66321W        W 9415   7.394   1.922  31.602  0.1217 -0.2546 -0.1871
66322W        W 9416   6.896   0.697   4.065 -0.2624  0.2070  0.1155
66323W        W 9417   6.018   0.471   3.867 -0.0021 -0.2211 -0.3664
66324W        W 9418   6.562   2.550   0.866 -0.2273  0.5293  0.1458
66325W        W 9419   3.179   2.496   3.094  0.1587 -0.1551  0.0607
66326W        W 9420   6.635   2.412   3.851 -0.1316 -0.0286  0.0520
66327W        W 9421   3.745   1.677   4.314  0.2073 -0.2805  0.1514
66328W        W 9422   6.797   1.003   1.556 -0.3168 -0.0909  0.1545
66329W        W 9423   4.555   0.383   0.948 -0.0311 -0.0006  0.0345
66330W        W 9424   4.740   1.527   3.451  0.1723  0.1752 -0.0405
66331W        W 9425   7.165   1.431   2.358 -0.2369 -0.0368  0.2052
66332W        W 9426   6.888   2.452   0.232 -0.1574 -0.0741 -0.3385
66333W        W 9427   6.652   1.312   2.310 -0.1878  0.5195  0.2092
66334W        W 9428   3.981   3.029   2.772 -0.3435  0.3075 -0.2100
66335W        W 9429   7.144   1.443  31.870 -0.1061  0.0730 -0.1813
66336W        W 9430   6.311   1.473  30.972 -0.0383  0.1335 -0.1396
66337W        W 9431   5.854   1.288  31.801  0.1258 -0.2227 -0.1451
66338W        W 9432   6.348   0.329   3.465 -0.1212  0.0208 -0.1571
66339W        W 9433   6.147   3.609   1.240  0.1013  0.1578 -0.0110
66340W        W 9434   7.807   0.272   2.135  0.3602  0.1383  0.1130
66341W        W 9435   6.569   0.285   1.089  0.1449  0.0858  0.0979
66342W        W 9436   7.541   0.143   3.440  0.0392  0.2868  0.5158
66343W        W 9437   5.996   0.553   5.295  0.2427 -0.3546  0.3228
66344W        W 9438   4.507   1.260   5.157 -0.1249 -0.1513  0.0251
66345W        W 9439   6.881   2.665   3.311  0.0528  0.1990 -0.0625
66346W        W 9440   8.005   0.871  30.962 -0.1513 -0.0670 -0.0999
66347W        W 9441   7.365  34.182   2.309 -0.0159  0.2715  0.2623
66348W        W 9442   5.875   1.022   1.105 -0.2774  0.3477  0.2640
66349W        W 9443   7.128   0.998  30.992  0.1257 -0.3224  0.0636
66350W        W 9444   5.782   2.068   1.067 -0.2994 -0.0240 -0.0388
66351W        W 9445   8.239   1.572   3.721  0.1154  0.0764 -0.0544
66352W        W 9446   4.446   0.803   1.258  0.2997  0.2833 -0.1116
66353W        W 9447   7.006  34.085   4.121 -0.1091  0.0252 -0.1781
66354W        W 9448   6.669   4.121  31.161 -0.1412 -0.1676 -0.4297
66355W        W 9449   6.466   1.410   1.721 -0.1179  0.1400  0.1127
66356W        W 9450   8.205   1.710   0.229 -0.1093  0.0123  0.0908
66357W        W 9451   2.746   0.355   1.130 -0.1396  0.1936  0.2110
66358W        W 9452   6.407   2.658   2.302 -0.2218 -0.0157 -0.2050
66359W        W 9453   6.506  33.858  31.037  0.2508  0.1793  0.1799
66360W        W 9454   5.232   1.510   0.233  0.0710 -0.0427  0.3388
66361W        W 9455   7.194   1.002   4.312 -0.0622  0.0848 -0.0745
66362W        W 9456   7.037   0.465   1.267  0.0261  0.0963 -0.0672
66363W        W 9457   7.070  33.434   4.532  0.0560 -0.0908 -0.1125
66364W        W 9458   3.916   2.176   1.183  0.2015 -0.1187 -0.1694
66365W        W 9459   6.188  34.143   2.925  0.1844  0.2640 -0.0245
66366W        W 9460   6.731   2.603   2.689 -0.1199 -0.1625  0.0235
66367W        W 9461   3.933   2.780   2.023 -0.0027  0.4537  0.0473
66368W        W 9462   5.193   2.857   1.315 -0.1183 -0.2447 -0.1309
66369W        W 9463   6.219   0.282   2.975 -0.4338  0.2397 -0.1076
66370W        W 9464   7.198   0.688   1.668  0.0532  0.1928 -0.1670
66371W        W 9465   6.192   1.744   1.083 -0.0180 -0.1960 -0.0018
66372W        W 9466   7.830   0.429   3.198 -0.0985  0.0872  0.1214
66373W        W 9467   5.688   3.239   2.157  0.0699  0.3437  0.0186
66374W        W 9468   6.679   1.804   0.904  0.0661 -0.0465  0.1460
66375W        W 9469   5.374   2.074   3.214 -0.1158 -0.1706 -0.0557
66376W        W 9470   6.885   2.202   0.668 -0.1735 -0.2593 -0.0489
66377W        W 9471   5.193   3.690  31.510 -0.1055  0.1344  0.0462
66378W        W 9472   3.571   2.260   3.605  0.1218  0.2260 -0.2813
66379W        W 9473   5.895   0.636   4.806  0.2892 -0.1226 -0.0121
66380W        W 9474   7.085   0.858   3.010 -0.1767 -0.0562 -0.0004
66381W        W 9475   5.019   0.268   0.892 -0.1706  0.2638 -0.0870
66382W        W 9476   7.835   2.532  31.020  0.1267 -0.0119  0.1408
66383W        W 9477   5.304   3.528   2.390 -0.1010  0.0988  0.1654
66384W        W 9478   4.121   1.826   2.807 -0.0611 -0.1792 -0.1164
66385W        W 9479   4.168   3.081   1.388  0.0497  0.0809 -0.1917
66386W        W 9480   7.280   3.523  30.960  0.1488  0.1321 -0.2125
66387W        W 9481   6.496   2.185  31.889  0.1773  0.2266 -0.2679
66388W        W 9482   6.909   2.337   2.324 -0.0026 -0.5375 -0.1745
66389W        W 9483   5.559   0.877  31.892  0.0988  0.0732 -0.0257
66390W        W 9484   3.761   3.490   1.340  0.1240  0.2317 -0.1382
66391W        W 9485   3.803   3.061   0.302  0.1934 -0.3266  0.1199
66392W        W 9486   6.399   4.636   1.657  0.0236  0.3998  0.0237
66393W        W 9487   4.430   4.238   1.409 -0.0870  0.1184  0.0177
66394W        W 9488   7.086   1.483   5.141 -0.0012  0.1684  0.2325
66395W        W 9489   5.937   0.772  31.494  0.2666 -0.0895 -0.4302
66396W        W 9490   7.392   1.852   2.156 -0.2897 -0.1530  0.1875
66397W        W 9491   6.234   1.611   0.549  0.2402  0.0989 -0.1323
66398W        W 9492   6.192   2.385   4.238  0.1187 -0.1620  0.1933
66399W        W 9493   5.269   2.107   2.437  0.0742 -0.2170 -0.2162
66400W        W 9494   5.124   0.432   0.061 -0.1365  0.1096 -0.2181
66401W        W 9495   5.301   2.092   3.760 -0.2354  0.0467  0.0361
66402W        W 9496   6.842  34.251   3.182  0.2542  0.1085 -0.2364
66403W        W 9497   4.304   4.420   3.196 -0.1288 -0.4214 -0.0897
66404W        W 9498   7.286   4.967  31.615  0.1899 -0.0558 -0.1749
66405W        W 9499   6.039   1.411   1.421 -0.1353 -0.2773  0.0883
66406W        W 9500   5.474   1.029   0.813  0.1817 -0.0189  0.1925
66407W        W 9501   7.014  32.919   4.342 -0.1450  0.0560 -0.2932
66408W        W 9502   5.185   0.986   0.260  0.1097  0.1123  0.0104
66409W        W 9503   5.716   0.431   2.386 -0.1569 -0.1295 -0.0336
66410W        W 9504   5.303   1.124   1.329 -0.3158 -0.1372  0.1470
66411W        W 9505   6.962   3.050   1.579 -0.1567  0.2893  0.0156
66412W        W 9506   5.370   3.410   3.366  0.1161  0.1474 -0.1663
66413W        W 9507   4.720  34.606  31.738 -0.1668 -0.0308  0.0313
66414W        W 9508   8.310  34.149   1.428  0.0826 -0.2459 -0.0070
66415W        W 9509   4.101   1.080   3.143 -0.4784 -0.2083 -0.2933
66416W        W 9510   6.537  34.526   2.927  0.1490 -0.1186 -0.1616
66417W        W 9511   6.016   0.464   1.474 -0.0236  0.3035  0.3848
66418W        W 9512   7.164   0.881   0.750  0.2167  0.0700  0.2089
66419W        W 9513   5.493   1.395   3.258 -0.2143  0.1455  0.2055
66420W        W 9514   6.083   0.092   4.205  0.0924  0.1734 -0.2800
66421W        W 9515   6.004   1.156  31.201  0.2845 -0.1300  0.0698
66422W        W 9516   8.099   2.177   4.524 -0.0194 -0.0677  0.4207
66423W        W 9517   6.698   3.151  31.431  0.2079 -0.0654  0.1073
66424W        W 9518   4.719   3.004   3.305 -0.1728 -0.2005 -0.2199
66425W        W 9519   5.207   0.705   1.081 -0.1611  0.2176 -0.1240
66426W        W 9520   6.732   1.321  31.597 -0.3505  0.1188  0.1547
66427W        W 9521   5.310   2.989   2.492  0.1490 -0.1078  0.2100
66428W        W 9522   6.450   1.281   1.142  0.0767  0.0476 -0.1271
66429W        W 9523   7.929   2.054   3.979  0.0065  0.2209  0.0232
66430W        W 9524   3.359   1.587   2.159  0.0572  0.0287  0.2642
66431W        W 9525   7.932   2.140   0.736  0.2136  0.0708  0.1611
66432W        W 9526   7.553   1.039   2.429  0.3707 -0.0995  0.1271
66433W        W 9527   5.870   3.153   0.124  0.1770 -0.0279  0.1078
66434W        W 9528   7.107   3.746   0.456  0.0929  0.0601 -0.2529
66435W        W 9529   7.206   4.052   1.807 -0.2043  0.0753 -0.0527
66436W        W 9530   4.662   1.080   3.119 -0.1237 -0.0009  0.0540
66437W        W 9531   6.412   2.073   2.452  0.0200  0.2383  0.1058
66438W        W 9532   6.341   2.388   1.876  0.1174 -0.0207  0.3059
66439W        W 9533   6.416  34.079   0.550 -0.3237  0.0634  0.0514
66440W        W 9534   5.446   1.691   2.165  0.0445  0.1917 -0.1342
66441W        W 9535   4.321   4.134   1.918 -0.0832 -0.2892  0.2339
66442W        W 9536   8.005   0.773   2.267  0.0139 -0.1269  0.0163
66443W        W 9537   7.048  34.597   3.445  0.1679  0.2254 -0.0202
66444W        W 9538   6.120   2.039   0.186 -0.0162 -0.1000 -0.3203
66445W        W 9539   5.337  34.423   3.815  0.0790 -0.0982  0.1466
66446W        W 9540   4.487   1.794   3.126  0.0239 -0.4403  0.0854
66447W        W 9541   4.734   2.041   3.873  0.0850  0.0716  0.1712
66448W        W 9542   4.858   1.285  31.807 -0.0538 -0.1413 -0.0622
66449W        W 9543   5.480   2.610   2.181  0.1045 -0.0045 -0.3353
66450W        W 9544   5.244   1.908   1.214 -0.0930  0.0821  0.2879
66451W        W 9545   5.434   2.230   0.204 -0.3386 -0.0561 -0.0545
66452W        W 9546   7.380   1.725   1.590 -0.0888  0.2644 -0.4492
66453W        W 9547   6.055   1.347   1.978 -0.2808 -0.2313  0.3294
66454W        W 9548   6.993   1.515   1.835  0.0835  0.2954 -0.2575
66455W        W 9549   4.597   0.212   1.948  0.0505  0.0002 -0.2497
66456W        W 9550   6.816   0.285   0.663  0.0073 -0.0651  0.2227
66457W        W 9551   7.286  33.994   0.827 -0.0357 -0.0866  0.0075
66458W        W 9552   5.579   2.144   2.060  0.0118  0.0397 -0.2483
66459W        W 9553   4.118   1.710  31.228  0.0218  0.0300  0.2452
66460W        W 9554   3.545   2.071   0.410 -0.1997 -0.1308  0.1107
66461W        W 9555   4.431   1.900   1.095  0.2727 -0.0978 -0.3310
66462W        W 9556   7.010  33.554   4.017  0.0905 -0.1617  0.2846
66463W        W 9557   4.674   1.053   3.612  0.4711 -0.1652  0.3587
66464W        W 9558   5.897   2.837   2.511  0.0486 -0.0556  0.1987
66465W        W 9559   4.725   0.361   0.456  0.0307 -0.0755 -0.0303
66466W        W 9560   6.076   2.708  31.965 -0.3611  0.3665 -0.7806
66467W        W 9561   4.839   1.251   2.607 -0.0224  0.1347  0.2295
66468W        W 9562   3.348   0.518   0.561 -0.4235 -0.0096  0.0549
66469W        W 9563   6.212   3.046  31.593 -0.0304 -0.0906 -0.2157
66470W        W 9564   7.443   2.796   1.511 -0.0972 -0.1595  0.2033
66471W        W 9565   4.970   0.849   2.164  0.0821 -0.1826 -0.2441
66472W        W 9566   6.806   2.397   4.859 -0.3008  0.1213  0.0366
66473W        W 9567   3.667   2.176  31.527  0.1703  0.1139  0.1479
66474W        W 9568   6.835  34.568   3.901 -0.3220 -0.3941  0.0645
66475W        W 9569   7.071  34.653   2.929  0.0798 -0.1590  0.0946
66476W        W 9570   4.265   0.999  30.079  0.0208 -0.1403 -0.0488
66477W        W 9571   7.005   0.906   3.595 -0.1335 -0.0390  0.3134
66478W        W 9572   6.028   2.904   1.454 -0.1848  0.3701  0.0070
66479W        W 9573   6.910   4.478   1.578 -0.2614 -0.2226 -0.0923
66480W        W 9574   4.955   2.209   2.823  0.0980 -0.0792 -0.2532
66481W        W 9575   6.240   1.571   3.060 -0.1912 -0.0668 -0.3068
66482W        W 9576   3.648   1.410   2.507 -0.0394 -0.0420 -0.0651
66483W        W 9577   6.782   1.866  31.531  0.3471  0.0807 -0.1819
66484W        W 9578   4.878   2.073   3.370  0.0368 -0.1673 -0.2369
66485W        W 9579   8.593   2.581  31.872  0.0687 -0.0025 -0.1632
66486W        W 9580   7.240  33.268   2.885  0.0662  0.1169  0.1260
66487W        W 9581   6.597   0.721   0.468 -0.1755  0.3572  0.0869
66488W        W 9582   5.547   1.144   3.677 -0.0373 -0.0794 -0.2847
66489W        W 9583   6.281   1.544   2.509  0.1135  0.0826 -0.0584
66490W        W 9584   7.669   1.591   3.921 -0.1802 -0.1082  0.1192
66491W        W 9585   5.667   0.020   1.658  0.0832  0.1608 -0.1751
66492W        W 9586   6.707   0.813   1.079 -0.0190 -0.4174  0.1857
66493W        W 9587   5.872   3.189  31.132 -0.0438  0.0194  0.3766
66494W        W 9588   5.020   2.156   1.977 -0.1094 -0.3210  0.1053
66495W        W 9589   6.588   1.946   0.355 -0.0705 -0.2102  0.0071
66496W        W 9590   6.346   1.039   2.913 -0.3411 -0.0629  0.0320
66497W        W 9591   6.022   2.740   2.043 -0.0596 -0.1184  0.2526
66498W        W 9592   7.612   2.382   4.279 -0.3138  0.0191 -0.1781
66499W        W 9593   6.367   0.638  31.275  0.2143  0.0975 -0.2033
66500W        W 9594   7.995   2.687  30.277 -0.1115 -0.1753 -0.3301
66501W        W 9595   6.206   3.207   2.188  0.2035  0.1286 -0.2474
66502W        W 9596   6.813   2.754   5.306 -0.1183 -0.2979 -0.0686
66503W        W 9597   5.835   1.778   3.358  0.2518  0.0562 -0.1672
66504W        W 9598   7.620   1.567   2.568  0.0043 -0.1181  0.0986
66505W        W 9599   6.051   0.725   1.930  0.4247 -0.0938 -0.2140
66506W        W 9600   4.909   1.550   1.055  0.2391  0.0024  0.1004
66507W        W 9601   6.937   3.286   1.080  0.0457 -0.2473  0.1465
66508W        W 9602   6.275   0.951   1.496  0.0035  0.0147  0.1310
66509W        W 9603   7.038  34.610   1.012 -0.1123 -0.0031  0.0655
66510W        W 9604   6.716  33.736   1.451  0.1280 -0.0350  0.3589
66511W        W 9605   4.804   3.471   3.768 -0.2227 -0.2372  0.0717
66512W        W 9606   7.302   1.278   2.886  0.1914 -0.1811  0.0312
66513W        W 9607   4.304   1.907   6.301  0.0206 -0.0825  0.0118
66514W        W 9608   5.154   0.635   4.579 -0.1221  0.0022 -0.0508
66515W        W 9609   7.603   1.363   5.100 -0.1442  0.0247  0.0287
66516W        W 9610   7.209   0.945   5.792  0.1541  0.1581 -0.3192
66517W        W 9611   3.781   1.148   5.602  0.1383 -0.0921  0.1776
66518W        W 9612   7.125   3.369   5.002  0.0084 -0.0045  0.1274
66519W        W 9613   5.057  33.362   6.172  0.2232 -0.0123 -0.0288
66520W        W 9614   6.791   2.133   5.981 -0.1928  0.2084  0.0364
66521W        W 9615   7.133   4.003   6.227  0.3555  0.0544 -0.1640
66522W        W 9616   8.336   1.961   3.227  0.2118  0.0745  0.0454
66523W        W 9617   5.732   1.080   7.037  0.0423 -0.2060  0.1726
66524W        W 9618   3.097   2.503   7.173  0.1510 -0.3148  0.1251
66525W        W 9619   4.159   0.102   3.338  0.0075 -0.3493  0.0655
66526W        W 9620   3.776  34.247   6.021  0.1341 -0.1597 -0.1686
66527W        W 9621   7.869   1.694   5.835 -0.2730  0.2815  0.1601
66528W        W 9622   4.093   1.529   5.381  0.3170  0.0720 -0.1838
66529W        W 9623   5.233   0.953   6.897  0.1441  0.2513 -0.1463
66530W        W 9624   5.479   0.339   4.864  0.0294 -0.0974  0.0779
66531W        W 9625   6.524   3.971   5.007  0.0904 -0.2412  0.0348
66532W        W 9626   5.646   0.628   7.188  0.1851  0.2591  0.0899
66533W        W 9627   6.061   0.399   7.153 -0.0351 -0.1063 -0.0144
66534W        W 9628   4.996   1.719   5.714  0.5888 -0.0830  0.0400
66535W        W 9629   4.337   1.456   3.749 -0.0445 -0.1848 -0.2140
66536W        W 9630   4.051   1.003   5.127 -0.0144  0.0909 -0.2337
66537W        W 9631   5.154   1.840   6.782 -0.1867  0.0175 -0.1351
66538W        W 9632   7.793   0.759   6.376  0.1297  0.0409  0.2710
66539W        W 9633   6.891   0.713   5.485 -0.4043 -0.1057 -0.1236
66540W        W 9634   5.063   2.193   5.508 -0.0667 -0.2954  0.0920
66541W        W 9635   6.253   2.312   5.765 -0.2096 -0.0385  0.0245
66542W        W 9636   7.643   1.646   7.312  0.0431  0.2530  0.1543
66543W        W 9637   5.128   1.875   5.182 -0.0875 -0.2641  0.1652
66544W        W 9638   3.999   4.816   4.185 -0.1967  0.0548 -0.1678
66545W        W 9639   5.770   2.355   5.899 -0.0947 -0.3536 -0.1811
66546W        W 9640   7.277   2.642   5.324 -0.0782  0.0335 -0.3306
66547W        W 9641   5.715   2.269   6.462 -0.4234 -0.0787 -0.0491
66548W        W 9642   5.560   2.963   5.833  0.0025  0.1346 -0.1929
66549W        W 9643   4.602   3.700   1.876  0.0807  0.1677  0.0352
66550W        W 9644   5.377   2.572   6.133 -0.3494 -0.2807 -0.0722
66551W        W 9645   5.790   3.549   6.502  0.3154 -0.1746  0.0311
66552W        W 9646   5.591   2.015   5.552 -0.2535 -0.1792 -0.2027
66553W        W 9647   6.032   1.023   5.522  0.0110 -0.2504 -0.1369
66554W        W 9648   4.694   1.500   6.426  0.2101 -0.0552  0.0187
66555W        W 9649   5.208   1.509   6.119 -0.2816 -0.1285  0.2363
66556W        W 9650   3.587   2.673   7.285 -0.2335  0.0654  0.0624
66557W        W 9651   4.789   3.211   5.218  0.0216 -0.1901  0.0268
66558W        W 9652   7.688   0.080   7.656  0.2999 -0.2323 -0.3234
66559W        W 9653   5.130   1.481   4.818  0.1768 -0.0467 -0.3279
66560W        W 9654   7.314   0.987   5.254 -0.0654  0.2019  0.0407
66561W        W 9655   6.623   0.774   3.286 -0.1176 -0.0051 -0.1752
66562W        W 9656   8.271   0.602   3.310 -0.1037 -0.2873 -0.1548
66563W        W 9657   5.523  33.264   5.505  0.0427  0.2359 -0.0075
66564W        W 9658   5.024   3.626   5.298  0.1275  0.4214 -0.0381
66565W        W 9659   4.755  33.660   5.877 -0.0373  0.1262 -0.4271
66566W        W 9660   7.331   2.540   7.489 -0.1650 -0.0241 -0.0923
66567W        W 9661   5.596   0.635   3.641  0.3036  0.0470 -0.0077
66568W        W 9662   7.559   0.628   5.935 -0.2729  0.1753  0.2210
66569W        W 9663   4.568   3.358   6.252  0.0671  0.2191 -0.0126
66570W        W 9664   3.681   1.290   5.135  0.2074  0.2307  0.0525
66571W        W 9665   7.412   2.021   3.999  0.3582 -0.2786 -0.1182
66572W        W 9666   7.903   4.156   6.229 -0.1577 -0.3467 -0.1370
66573W        W 9667   6.931   2.015   4.051 -0.0269  0.1154 -0.1358
66574W        W 9668   4.957   0.716   5.427  0.1080 -0.0269  0.2051
66575W        W 9669   3.593   1.228   6.576  0.3544  0.0179 -0.1275
66576W        W 9670   5.164   1.332   6.603  0.0529 -0.0364  0.4152
66577W        W 9671   5.940  33.747   3.829  0.3000  0.0620 -0.2699
66578W        W 9672   8.016   3.031   7.676  0.1810  0.0264 -0.0468
66579W        W 9673   5.081   3.032   6.507  0.3359 -0.0836  0.0857
66580W        W 9674   8.008   0.402   6.637  0.1448  0.3310  0.0318
66581W        W 9675   6.870   1.634   5.973  0.1123  0.0565 -0.1749
66582W        W 9676   6.883   2.521   6.540 -0.0800  0.0495 -0.3789
66583W        W 9677   6.631   1.174   3.878  0.0861  0.0375 -0.0810
66584W        W 9678   6.350  34.332   5.555  0.1402  0.0808  0.0612
66585W        W 9679   7.123  34.208   5.062 -0.0519 -0.0342 -0.0925
66586W        W 9680   4.613   2.246   5.157 -0.2009 -0.1921 -0.2683
66587W        W 9681   5.417   1.548   5.527  0.0145 -0.1015 -0.0440
66588W        W 9682   7.369   2.050   7.273 -0.0995 -0.1366 -0.1217
66589W        W 9683   8.164   1.407   3.151 -0.1110 -0.2117 -0.0487
66590W        W 9684   4.531   3.622   5.219  0.2400 -0.0312  0.0256
66591W        W 9685   6.042   1.349   6.666 -0.1210  0.3293 -0.2179
66592W        W 9686   4.887   2.411   6.095  0.4140  0.2330 -0.2952
66593W        W 9687   4.127   2.867   3.772  0.0395  0.2558  0.1513
66594W        W 9688   4.085   2.883   5.476 -0.2990  0.2919 -0.2897
66595W        W 9689   5.323   3.320   5.046  0.2107  0.1472  0.1896
66596W        W 9690   3.412  34.443   5.358  0.0990  0.1056  0.2422
66597W        W 9691   5.179   2.312   6.467  0.0905  0.0917  0.1551
66598W        W 9692   8.184   1.065   6.347  0.0660 -0.0751  0.0974
66599W        W 9693   4.194   0.753   6.584 -0.1689  0.4067 -0.0402
66600W        W 9694   7.605   0.462   7.005 -0.1262  0.4407 -0.1588
66601W        W 9695   3.575   1.759   5.098  0.0875 -0.1007 -0.0276
66602W        W 9696   7.051   2.879   4.896 -0.1587  0.1301  0.0321
66603W        W 9697   7.660   1.999   4.857 -0.0076 -0.1000  0.2187
66604W        W 9698   5.710   1.886   4.231  0.0652 -0.0224 -0.1941
66605W        W 9699   3.914   1.727   6.088  0.1780 -0.0134 -0.2254
66606W        W 9700   4.682   0.740   4.491 -0.1278 -0.1948 -0.2447
66607W        W 9701   5.539   0.304   6.668 -0.0674 -0.1276 -0.3241
66608W        W 9702   4.988   0.456   4.999  0.0297  0.0123  0.2692
66609W        W 9703   7.628   1.654   8.112  0.3403  0.3299 -0.2065
66610W        W 9704   4.198  34.327   5.797  0.0946 -0.2608 -0.0757
66611W        W 9705   9.370   1.240   5.772  0.2232 -0.3118 -0.1042
66612W        W 9706   5.470   1.012   4.687 -0.3908  0.0961  0.1222
66613W        W 9707   4.500   2.427   4.649  0.0451  0.5363 -0.0214
66614W        W 9708   6.846   0.149   6.246 -0.0065 -0.3045  0.1514
66615W        W 9709   6.648   2.304   5.413 -0.0405 -0.1044  0.0818
66616W        W 9710   6.648   3.050   7.379 -0.1445  0.1205 -0.2737
66617W        W 9711   8.002   3.057   5.744  0.1017 -0.1094  0.0844
66618W        W 9712   4.476   0.273   7.892 -0.0938 -0.0661  0.2006
66619W        W 9713   4.848   0.823   4.054 -0.1232 -0.2325  0.0157
66620W        W 9714   4.088   3.722   4.950 -0.2104  0.1668  0.0191
66621W        W 9715   5.669   1.730   5.946 -0.0300 -0.0009 -0.1769
66622W        W 9716   5.658   0.533   4.357 -0.1677 -0.0817 -0.0781
66623W        W 9717   8.186   3.304   5.303 -0.0912 -0.0822  0.0482
66624W        W 9718   6.912   1.294   5.613  0.1022  0.0956 -0.3678
66625W        W 9719   3.201   2.762   5.361  0.0450 -0.0634  0.1492
66626W        W 9720   6.362   1.034   6.408  0.1864  0.1431  0.5083
66627W        W 9721   7.746   2.415   7.724  0.0248 -0.2768  0.0565
66628W        W 9722   5.935   0.419   6.379  0.1580  0.3258  0.0787
66629W        W 9723   5.140   0.206   3.482 -0.3216 -0.0557  0.4576
66630W        W 9724   8.190   3.157   6.265  0.0823  0.4653 -0.0640
66631W        W 9725   3.377   3.597   4.583  0.3468 -0.0504 -0.1612
66632W        W 9726   3.544   0.819   5.303  0.2010 -0.2134 -0.3913
66633W        W 9727   5.427   2.523   5.656  0.1416  0.0740  0.0711
66634W        W 9728   7.291   0.080   7.244  0.0993  0.1407  0.2396
66635W        W 9729   3.306   1.568   6.339 -0.1076 -0.1713  0.0971
66636W        W 9730   6.866   1.608   6.666 -0.1067  0.0511 -0.0039
66637W        W 9731   4.244   0.585   3.325 -0.2460  0.2151 -0.0113
66638W        W 9732   4.378   2.779   5.937 -0.4076  0.2400 -0.0978
66639W        W 9733   4.471  33.943   5.574  0.3540 -0.1443 -0.1693
66640W        W 9734   7.494   0.009   6.122  0.1651 -0.1311  0.0519
66641W        W 9735   6.352   2.296   7.780  0.2417  0.1673 -0.4430
66642W        W 9736   5.938   2.678   4.971 -0.1496 -0.2629 -0.0742
66643W        W 9737   7.239   0.508   4.429 -0.0122 -0.2055 -0.4574
66644W        W 9738   7.879   1.463   4.678  0.2973 -0.0853 -0.4063
66645W        W 9739   3.498   1.039   7.059 -0.1486 -0.2739 -0.1486
66646W        W 9740   6.306   2.350   4.799 -0.1128  0.0380 -0.0596
66647W        W 9741   6.537   1.564   6.335  0.4154  0.1477  0.0022
66648W        W 9742   8.204   1.609   4.230  0.2087 -0.2164  0.2137
66649W        W 9743   8.608   2.699   4.929 -0.3747  0.3345  0.1113
66650W        W 9744   4.826   3.474   5.762 -0.1473  0.1558  0.1006
66651W        W 9745   5.534   2.230   6.901 -0.1589  0.1420 -0.2158
66652W        W 9746   5.362   2.766   4.801 -0.0289  0.0391  0.2508
66653W        W 9747   5.705   0.022   5.601  0.0130 -0.2478 -0.0048
66654W        W 9748   5.937   1.193   3.345  0.0711 -0.2939  0.3238
66655W        W 9749   6.007   0.304   5.871 -0.1920  0.1055 -0.2775
66656W        W 9750   4.072   3.498   2.613 -0.0106 -0.1063  0.1376
66657W        W 9751   8.676   1.459   7.248  0.1183 -0.1221 -0.3806
66658W        W 9752   6.094   1.434   6.045 -0.0956  0.0984 -0.2208
66659W        W 9753   7.139   0.204   5.747 -0.1618  0.1654 -0.1534
66660W        W 9754   7.894   1.464   7.682 -0.1127 -0.2360  0.0115
66661W        W 9755   7.422   1.359   5.560 -0.0530  0.0201 -0.2782
66662W        W 9756   7.263   1.206   6.714  0.1522 -0.0798  0.2070
66663W        W 9757   6.759   0.980   4.846 -0.2069 -0.0900 -0.0137
66664W        W 9758   6.034   0.845   6.118  0.3625 -0.2831 -0.3055
66665W        W 9759   4.636   1.862   6.819 -0.2016  0.1711  0.0546
66666W        W 9760   3.335   1.408   7.342 -0.3832  0.1686 -0.1255
66667W        W 9761   7.523   2.917   7.770 -0.2002 -0.2026 -0.3202
66668W        W 9762   7.313   1.907   5.942 -0.1942  0.0434  0.0066
66669W        W 9763   7.353   1.523   6.292 -0.2231  0.0609 -0.2422
66670W        W 9764   5.928   1.038   4.386 -0.2306 -0.2373 -0.2575
66671W        W 9765   4.587   2.495   3.521 -0.1666 -0.2906  0.1079
66672W        W 9766   4.520   1.139   4.113  0.1208 -0.0436  0.1969
66673W        W 9767   7.126  34.424   5.922 -0.1059  0.0903 -0.1523
66674W        W 9768   5.452   1.853   6.410  0.1317  0.3784 -0.2266
66675W        W 9769   4.743   2.042   4.429 -0.1035  0.0104  0.1614
66676W        W 9770   7.477   2.010   7.824 -0.0441  0.1534  0.0306
66677W        W 9771   4.871   2.876   4.750 -0.2766 -0.0834 -0.0202
66678W        W 9772   7.125   0.937   7.145 -0.0820  0.0433 -0.1084
66679W        W 9773   5.271   2.782   4.308 -0.0662 -0.1825 -0.1416
66680W        W 9774   5.427   0.852   4.050 -0.0676 -0.0378  0.1888
66681W        W 9775   4.255   1.199   5.728 -0.2379 -0.1355 -0.2703
66682W        W 9776   7.207   0.028   5.256  0.5044 -0.2968  0.1340
66683W        W 9777   8.188   1.316   5.079  0.4555  0.0471  0.0554
66684W        W 9778   3.628   0.427   5.634  0.1863  0.1493 -0.1262
66685W        W 9779   5.427   0.981   5.340  0.3095 -0.1824  0.1057
66686W        W 9780   3.789   2.222   5.827  0.2656 -0.0135  0.0549
66687W        W 9781   6.861   0.654   6.014  0.0983  0.0480  0.0095
66688W        W 9782   6.985   0.122   4.296  0.1174  0.3672 -0.0079
66689W        W 9783   6.267   3.020   6.497 -0.1467 -0.0285  0.0921
66690W        W 9784   4.896   2.310   6.917  0.1636 -0.1957  0.3249
66691W        W 9785   5.016   1.365   5.273  0.2133  0.1384 -0.0724
66692W        W 9786   7.368   1.025   6.246  0.0534  0.0074 -0.0797
66693W        W 9787   4.906   0.998   4.871  0.1987 -0.0878 -0.1581
66694W        W 9788   4.562   1.770   5.399 -0.3197 -0.2773 -0.0613
66695W        W 9789   6.713   2.628   5.827 -0.4677 -0.3715 -0.1022
66696W        W 9790   7.142   1.472   4.249  0.1437  0.0293  0.1500
66697W        W 9791   5.045   2.669   5.168 -0.0327  0.2742 -0.0021
66698W        W 9792   5.682   1.741   6.873 -0.1077  0.2317  0.3043
66699W        W 9793   5.969   1.807   6.349  0.1640 -0.2336  0.3256
66700W        W 9794   6.203   0.874   7.157  0.1527  0.0783  0.1858
66701W        W 9795   4.547   1.503   5.926 -0.1493  0.0337  0.1295
66702W        W 9796   5.391   0.974   6.169  0.0041  0.2708  0.1589
66703W        W 9797   7.961   2.120   7.229  0.2636 -0.0609  0.1354
66704W        W 9798   3.985   0.483   5.084  0.1512  0.0134  0.0640
66705W        W 9799   3.724   1.836   6.521  0.4956 -0.1356 -0.0003
66706W        W 9800   6.631   0.585   7.055  0.3199 -0.0040 -0.3935
66707W        W 9801   7.122   2.049   5.089 -0.1833  0.0014 -0.2849
66708W        W 9802   6.387   0.522   6.187  0.1645  0.1668  0.0417
66709W        W 9803   4.084   0.135   4.698 -0.0684 -0.1529 -0.1639
66710W        W 9804   3.400   0.902   5.754 -0.0601 -0.0714 -0.0207
66711W        W 9805   5.238   2.210   4.247  0.1031  0.1990  0.1053
66712W        W 9806   6.244  33.485   6.603  0.0743  0.1094  0.2520
66713W        W 9807   4.442   3.478   4.663  0.1624 -0.1681  0.1349
66714W        W 9808   4.052   2.049   4.698 -0.1436 -0.0791 -0.2990
66715W        W 9809   2.886   1.723   6.723 -0.0918  0.1353  0.0176
66716W        W 9810   8.157   0.096   4.505  0.0260  0.2309 -0.1558
66717W        W 9811   6.139   1.942   4.436  0.1794  0.1880 -0.2175
66718W        W 9812   6.491   1.003   5.277  0.2327 -0.1819  0.0122
66719W        W 9813   8.470   1.051   7.096  0.0494 -0.0185  0.1180
66720W        W 9814   7.800   2.983   5.290  0.0749  0.0676 -0.0547
66721W        W 9815   6.978   0.232   6.704 -0.1012 -0.1714 -0.2065
66722W        W 9816   4.591   0.443   5.801 -0.0003 -0.0139 -0.1750
66723W        W 9817   7.117   2.272   5.599  0.2359 -0.2262 -0.1608
66724W        W 9818   3.960   1.074   6.895 -0.1564 -0.0387  0.0799
66725W        W 9819   4.654   2.802   6.885 -0.0840 -0.1527 -0.1113
66726W        W 9820   4.820   1.511   7.599 -0.1755  0.1013  0.2720
66727W        W 9821   5.265  34.161   5.065  0.2793  0.2383 -0.0056
66728W        W 9822   5.006  33.997   5.554  0.0239  0.3281 -0.2138
66729W        W 9823   4.454   1.830   7.438  0.0385  0.0028  0.2929
66730W        W 9824   7.320   3.121   5.439  0.2148 -0.0687  0.3539
66731W        W 9825   5.103   1.166   5.773  0.2387 -0.0302 -0.0407
66732W        W 9826   8.191   0.006   6.905 -0.0919 -0.1790  0.1310
66733W        W 9827   4.523   2.313   6.559 -0.0524 -0.4459 -0.2613
66734W        W 9828   6.855   1.510   4.661  0.1406  0.1381  0.1177
66735W        W 9829   6.646   1.596   4.235 -0.1245 -0.3175 -0.1341
66736W        W 9830   4.574   2.850   6.416  0.0521 -0.3404 -0.3924
66737W        W 9831   5.368  34.332   7.495  0.0188 -0.3726  0.2997
66738W        W 9832   7.916   1.336   5.528 -0.0692  0.0507  0.1109
66739W        W 9833   6.714  34.580   4.973 -0.0788  0.1878 -0.5270
66740W        W 9834   6.518   1.032   5.869  0.1867  0.1205  0.3287
66741W        W 9835   6.353   1.841   5.975 -0.0829 -0.1062  0.0448
66742W        W 9836   4.748   2.543   5.602  0.2129 -0.0268 -0.1773
66743W        W 9837   4.747   1.024   7.414 -0.1848  0.0065 -0.0043
66744W        W 9838   8.455   2.909   5.942  0.2588  0.0687 -0.0368
66745W        W 9839   7.558   0.839   3.979  0.0191  0.1779 -0.0942
66746W        W 9840   7.483   0.076   6.673  0.0010 -0.0012 -0.0825
66747W        W 9841   8.670   1.870   5.604  0.0122  0.6827 -0.0002
66748W        W 9842   6.277   0.971   4.792 -0.1163 -0.1666  0.0237
66749W        W 9843   4.233   1.884   5.748  0.1440 -0.1778 -0.3909
66750W        W 9844   7.297   0.323   7.857  0.2080 -0.1005 -0.1931
66751W        W 9845   6.451  34.287   4.142  0.2064 -0.4397  0.1111
66752W        W 9846   6.732   0.684   6.509  0.1649  0.0942  0.1124
66753W        W 9847   6.665   2.722   4.353 -0.2029  0.2017  0.1166
66754W        W 9848   7.133   2.007   6.462  0.2567 -0.0249 -0.1373
66755W        W 9849   6.678   0.213   5.372  0.3811  0.0368  0.4104
66756W        W 9850   2.606   0.346   5.786  0.3225  0.2150 -0.1970
66757W        W 9851   3.581   3.603   6.534 -0.3764  0.1638  0.2103
66758W        W 9852   4.629   0.265   4.701  0.2338  0.3103 -0.0374
66759W        W 9853   5.565   1.278   4.173  0.1158 -0.1844 -0.0029
66760W        W 9854   5.306   2.085   5.998  0.2382 -0.0185 -0.0674
66761W        W 9855   7.334   1.517   7.740 -0.0186  0.0353  0.1361
66762W        W 9856   6.182  34.336   5.033 -0.0101 -0.2072 -0.2993
66763W        W 9857   8.374   1.496   6.872  0.2202 -0.0932  0.0573
66764W        W 9858   5.988   1.055   3.899  0.2246 -0.2671  0.0373
66765W        W 9859   5.761  33.638   5.202 -0.1655 -0.2035 -0.4244
66766W        W 9860   4.579   4.053   4.666 -0.2191 -0.2010 -0.0838
66767W        W 9861   3.611   2.546   6.257  0.1495  0.0146  0.1231
66768W        W 9862   5.992   2.283   5.349 -0.0499 -0.3971 -0.1503
66769W        W 9863   6.523   0.083   5.837  0.1618 -0.1669  0.2832
66770W        W 9864   8.176   1.539   6.368  0.0218 -0.1078  0.1864
66771W        W 9865   6.464   0.211   6.719 -0.2799  0.1269  0.3306
66772W        W 9866   8.863   1.709   6.832  0.1431 -0.1533 -0.0471
66773W        W 9867   4.882   3.026   6.064  0.0050 -0.1472  0.3440
66774W        W 9868   5.036   0.651   5.919 -0.0476 -0.2082  0.4417
66775W        W 9869   7.961   2.818   6.680  0.1770  0.2729  0.2455
66776W        W 9870   7.572   3.047   4.761 -0.1495  0.1130  0.2373
66777W        W 9871   4.556   3.072   5.606  0.2328 -0.0137  0.0169
66778W        W 9872   3.779   1.238   7.377 -0.0525 -0.2332  0.0514
66779W        W 9873   5.790   2.615   7.654  0.2816  0.0915 -0.3226
66780W        W 9874   5.878   2.733   6.217 -0.1188 -0.0151  0.0216
66781W        W 9875   5.831   1.155   5.035  0.2853  0.0214  0.2501
66782W        W 9876   5.232   1.701   4.138 -0.2378 -0.0305  0.0197
66783W        W 9877   3.480   3.735   7.832  0.2673 -0.0583  0.2468
66784W        W 9878   4.664   2.043   5.917  0.0844  0.0188  0.3201
66785W        W 9879   6.008   3.135   5.137 -0.1664 -0.5391 -0.2279
66786W        W 9880   5.689   2.433   4.618 -0.2272  0.2535  0.1050
66787W        W 9881   8.114   1.817   5.202 -0.0319  0.0115  0.1848
66788W        W 9882   7.184   3.956   7.255 -0.1399 -0.3082 -0.1623
66789W        W 9883   5.594   0.148   3.760 -0.0343  0.1150 -0.0728
66790W        W 9884   5.542   2.965   5.266  0.0124 -0.0609 -0.0179
66791W        W 9885   3.491   3.810   3.626  0.1474 -0.2153 -0.1938
66792W        W 9886   6.218   3.594   5.308 -0.0903 -0.0122  0.1507
66793W        W 9887   4.583   3.094   4.407  0.0435 -0.2182  0.3711
66794W        W 9888   7.975   2.308   8.171 -0.2553 -0.2544  0.2935
66795W        W 9889   6.680  33.752   4.329 -0.0585 -0.0509  0.0121
66796W        W 9890   8.470   2.903   6.824 -0.2312 -0.0477  0.2294
66797W        W 9891   7.791   0.228   5.033 -0.5072 -0.2890  0.0013
66798W        W 9892   6.847   2.523   7.314  0.1236  0.0259 -0.0517
66799W        W 9893   4.027   0.694   5.579 -0.2334  0.1462 -0.1836
66800W        W 9894   5.099   1.253   3.921  0.1385 -0.2096  0.0274
66801W        W 9895   2.993   0.925   7.297  0.0555  0.1023 -0.0039
66802W        W 9896   7.003  34.033   8.771 -0.4151  0.1514 -0.0747
66803W        W 9897   3.216   3.085   7.258 -0.0574 -0.2188 -0.0143
66804W        W 9898   6.365   1.445   4.666  0.0150  0.0560  0.2073
66805W        W 9899   4.278   0.643   4.031 -0.1091 -0.2328 -0.0969
66806W        W 9900   4.656   1.345   4.622 -0.3071 -0.2956  0.1247
66807W        W 9901   7.298   0.407   6.278 -0.1261  0.2496 -0.1184
66808W        W 9902   5.033   1.102   4.406 -0.2198 -0.4550  0.2673
66809W        W 9903   6.635  34.102   5.202  0.2599  0.1026  0.1263
66810W        W 9904   6.770   3.658   5.291 -0.2289  0.1721 -0.2749
66811W        W 9905   3.706   2.382   6.916 -0.2620  0.2040 -0.0089
66812W        W 9906   4.360   3.706   5.741 -0.3616  0.1770 -0.0405
66813W        W 9907   4.002   1.553   4.899 -0.0207 -0.1900  0.1242
66814W        W 9908   8.123   0.890   6.768 -0.2241 -0.0480 -0.0393
66815W        W 9909   4.419   1.072   6.276 -0.4384  0.1658 -0.0591
66816W        W 9910   7.425  34.162   7.805 -0.0050 -0.1857 -0.1702
66817W        W 9911   4.848   1.969   6.368  0.0065  0.0510 -0.1816
66818W        W 9912   8.526   0.550   5.105  0.3675  0.1108 -0.1702
66819W        W 9913   6.887   1.998   6.961 -0.0153  0.0844 -0.0058
66820W        W 9914   4.243   0.399   6.900 -0.0676 -0.2468  0.0339
66821W        W 9915   6.617   1.249   3.366  0.0286  0.1147 -0.0125
66822W        W 9916   8.006   1.920   7.771 -0.2451  0.1909  0.1092
66823W        W 9917   7.348  34.504   3.841 -0.0123 -0.0320  0.3815
66824W        W 9918   6.584   2.849   6.929  0.0950  0.0096  0.2665
66825W        W 9919   4.629   0.595   6.301 -0.0496  0.0667 -0.0113
66826W        W 9920   6.601   1.465   5.121 -0.0818 -0.0252 -0.0828
66827W        W 9921   4.917   1.057   6.219  0.1296  0.1035 -0.3998
66828W        W 9922   5.648   1.347   6.357 -0.2399 -0.0169 -0.0690
66829W        W 9923   7.654   3.278   7.430 -0.1779  0.0641  0.0802
66830W        W 9924   3.708   0.196   6.073  0.1802  0.3323  0.5238
66831W        W 9925   8.104   1.701   2.717 -0.1115 -0.2492 -0.2221
66832W        W 9926   8.107   2.294   6.632  0.1519 -0.0063  0.1162
66833W        W 9927   5.711   2.427   4.047  0.2092  0.2953 -0.1826
66834W        W 9928   7.605   1.837   5.376 -0.1624 -0.1256 -0.0354
66835W        W 9929   6.286   1.871   5.418  0.2217  0.1125 -0.1969
66836W        W 9930   3.630   1.711   5.557  0.0332 -0.0591  0.0991
66837W        W 9931   6.471   2.645   6.246  0.2626 -0.0065 -0.2834
66838W        W 9932   8.210   2.012   6.007 -0.0192  0.0626 -0.0850
66839W        W 9933   6.023  34.476   5.896 -0.1708 -0.0074 -0.0540
66840W        W 9934   4.268   0.270   5.436  0.1356 -0.1529 -0.2500
66841W        W 9935   4.573   4.468   4.944 -0.1417 -0.0337  0.4500
66842W        W 9936   8.738  34.166   7.318  0.1880 -0.0570 -0.0938
66843W        W 9937   7.266   0.750   6.673 -0.0834  0.0549  0.1547
66844W        W 9938   6.220   1.458   3.669 -0.1042  0.1528 -0.2415
66845W        W 9939   6.413   0.558   5.616  0.0674  0.1473  0.4007
66846W        W 9940   5.844   3.045   6.708  0.1220 -0.2163  0.4933
66847W        W 9941   4.212   2.704   7.198  0.1012 -0.1593 -0.1424
66848W        W 9942   5.397   1.946   4.766 -0.0664  0.1653 -0.1498
66849W        W 9943   5.426   3.075   7.017  0.2547  0.0910  0.1128
66850W        W 9944   3.933   1.128   6.074 -0.0550  0.2514 -0.1336
66851W        W 9945   6.535   3.339   3.976  0.1101 -0.1228 -0.2252
66852W        W 9946   6.866   1.740   5.447  0.0083  0.1278 -0.1713
66853W        W 9947   4.829   1.447   7.046 -0.3690  0.1076  0.3037
66854W        W 9948   7.336   2.371   6.173  0.1214  0.0080 -0.4185
66855W        W 9949   4.721   1.022   6.688  0.0394  0.0054  0.3417
66856W        W 9950   7.863  34.533   5.352  0.0705  0.2582  0.1457
66857W        W 9951   7.571   0.231   3.997  0.1712 -0.0789 -0.2423
66858W        W 9952   5.148   0.672   6.517 -0.4419  0.2771 -0.0495
66859W        W 9953   3.576   2.065   4.576 -0.2302  0.2498  0.1093
66860W        W 9954   5.202   1.627   3.643 -0.0264  0.1723  0.0811
66861W        W 9955   5.314   3.350   5.591  0.1810  0.2688  0.0728
66862W        W 9956   5.471   0.501   6.071  0.2491  0.0147  0.1071
66863W        W 9957   4.026   0.285   6.433 -0.1455 -0.1243  0.0898
66864W        W 9958   4.247   1.140   4.680  0.2299 -0.0048 -0.0557
66865W        W 9959   4.400  34.526   4.943 -0.2137  0.1087 -0.4413
66866W        W 9960   6.515   1.957   4.934 -0.0233  0.1941 -0.0192
66867W        W 9961   5.080   0.172   5.849  0.3271 -0.0244 -0.3636
66868W        W 9962   3.300   0.490   6.066  0.0801  0.1516 -0.0108
66869W        W 9963   6.367   2.650   5.363 -0.0175  0.0610  0.1343
66870W        W 9964   5.908   2.061   4.892 -0.0644  0.0849  0.4035
66871W        W 9965   6.399   0.755   3.793 -0.1259 -0.1504 -0.0215
66872W        W 9966   8.597   2.407   6.710 -0.2617 -0.0955  0.1341
66873W        W 9967   3.454   3.037   3.004 -0.1368  0.0492 -0.0907
66874W        W 9968   5.872   2.100   7.740 -0.3546  0.0215  0.0600
66875W        W 9969   5.714   0.876   6.552 -0.1267 -0.1247 -0.0759
66876W        W 9970   4.435  34.111   4.585  0.0253  0.1357  0.1491
66877W        W 9971   5.371   0.352   5.467 -0.0015  0.1876 -0.1193
66878W        W 9972   5.005   3.906   3.914  0.4548 -0.0818 -0.1203
66879W        W 9973   7.048   3.435   4.231  0.0033 -0.2487  0.1680
66880W        W 9974   5.013   1.928   7.285 -0.2321 -0.0364  0.1696
66881W        W 9975   4.056   3.067   6.311 -0.0598  0.0684 -0.0767
66882W        W 9976   4.985  34.413   7.023  0.0404  0.1522 -0.2600
66883W        W 9977   6.281   2.832   4.638  0.1424  0.4250 -0.1437
66884W        W 9978   3.914   3.054   7.071 -0.2048  0.1796  0.1119
66885W        W 9979   7.389   2.484   4.866  0.0854  0.0433 -0.0079
66886W        W 9980   7.861  34.389   6.609 -0.1084  0.0599 -0.1375
66887W        W 9981   7.314   1.429   4.711  0.1055 -0.0152 -0.1831
66888W        W 9982   5.180   0.505   8.152 -0.1187  0.1598 -0.1695
66889W        W 9983   4.109   1.997   6.841  0.0424 -0.1368  0.0661
66890W        W 9984   7.616   2.110   6.754  0.2325  0.2191 -0.2006
66891W        W 9985   5.352  34.420   5.469 -0.2650 -0.1117 -0.0835
66892W        W 9986   5.949   1.550   5.560  0.2479  0.3208  0.1726
66893W        W 9987   6.420   1.413   5.596  0.1456 -0.2727  0.1356
66894W        W 9988   4.199   0.664   6.051  0.0699 -0.1063 -0.2447
66895W        W 9989   5.687   0.736   5.718 -0.2225  0.1639 -0.0637
66896W        W 9990   5.095   1.645   8.994 -0.0242  0.0689  0.2265
66897W        W 9991   7.142   2.913   7.233 -0.1371  0.0419 -0.2441
66898W        W 9992   6.338   1.674   6.801 -0.2673  0.3069 -0.0383
66899W        W 9993   4.627   1.830   4.889  0.1288  0.0163  0.0505
66900W        W 9994   8.796   2.350   4.071  0.3779  0.0487 -0.1049
66901W        W 9995   5.984   3.166   6.104 -0.0925  0.0471  0.2112
66902W        W 9996   8.362   3.465   7.673  0.2432 -0.0375  0.2845
66903W        W 9997   6.167   2.247   6.249  0.0018  0.1122  0.1376
66904W        W 9998   7.792   2.192   5.747 -0.0088  0.0666 -0.2923
66905W        W 9999   3.362  32.592   4.600  0.1273  0.2015 -0.0717
66906W        W10000   3.298   1.370   5.457 -0.0317  0.1990 -0.1824
66907W        W10001   6.116   1.585   5.069  0.2094  0.0145  0.1901
66908W        W10002   7.795   1.161   6.004  0.2465  0.0899 -0.0563
66909W        W10003   5.676   1.208   5.822 -0.2827 -0.1760 -0.1292
66910W        W10004   6.203   0.140   5.440  0.0445 -0.3013 -0.1361
66911W        W10005   4.202   2.339   6.110  0.3870 -0.1710 -0.0442
66912W        W10006   6.608   2.054   6.412  0.0739  0.1862 -0.3736
66913W        W10007   4.804   2.612   8.862 -0.2689 -0.0648  0.0157
66914W        W10008   5.061   2.402   8.274  0.1496  0.0215  0.1409
66915W        W10009   7.749   1.212   6.580  0.0438 -0.0360  0.0658
66916W        W10010   7.678   2.335   8.593  0.0305 -0.0506  0.3678
66917W        W10011   4.648   1.390   8.343  0.0064  0.3495 -0.2331
66918W        W10012   6.059   2.069   6.811  0.3417  0.0131 -0.3241
66919W        W10013   8.578   2.292   9.723 -0.0332  0.2187  0.1397
66920W        W10014   7.115   3.378   9.088  0.0895 -0.1983  0.3756
66921W        W10015   5.580   2.367   8.359  0.0284  0.0860  0.1143
66922W        W10016   4.342  34.139   9.890 -0.1261 -0.0043 -0.4561
66923W        W10017   5.730   0.516   8.084  0.1566  0.2224 -0.1571
66924W        W10018   5.982  32.887  10.228  0.4641  0.2649  0.1693
66925W        W10019   6.029   0.807  10.549 -0.2773  0.2140 -0.2314
66926W        W10020   4.667   1.542   8.802 -0.1767 -0.1721 -0.0938
66927W        W10021   5.034   1.799   9.843  0.0491 -0.4558 -0.0757
66928W        W10022   5.906   1.620   7.835  0.1134 -0.0594  0.2015
66929W        W10023   3.606   3.715   9.732  0.0572  0.0494  0.0374
66930W        W10024   6.559  33.968  11.155  0.0681 -0.2478  0.0356
66931W        W10025   5.523   1.827   9.165 -0.2302  0.0153  0.0271
66932W        W10026   2.851   0.031   6.652 -0.0979  0.2454 -0.1341
66933W        W10027   3.446   0.775  12.338  0.0067  0.1165 -0.0690
66934W        W10028   4.170   2.513   9.159  0.0551 -0.0691  0.1891
66935W        W10029   6.447   0.239   9.440 -0.1683  0.1876 -0.1722
66936W        W10030   7.749   1.838   9.495  0.1694 -0.0828 -0.0828
66937W        W10031   6.934   1.347   8.636 -0.0151 -0.1562  0.0210
66938W        W10032   7.047   2.375   9.971  0.1450  0.0691  0.1433
66939W        W10033   3.588   2.072   7.868  0.2779 -0.1728  0.0797
66940W        W10034   2.914   3.084   9.834  0.1064  0.1362 -0.0283
66941W        W10035   6.113   2.926   9.084  0.2763 -0.2669 -0.2446
66942W        W10036   6.863   2.474   9.407 -0.0424  0.0641  0.1761
66943W        W10037   4.454   2.253   7.099 -0.1774 -0.1801  0.0214
66944W        W10038   5.558   0.943   9.616 -0.2011  0.3354 -0.0328
66945W        W10039   6.797   1.401   7.865  0.1410 -0.1330  0.1577
66946W        W10040   6.425   2.035   7.305 -0.0508 -0.0040  0.2703
66947W        W10041   6.493   1.744   9.223 -0.1254  0.2652  0.2042
66948W        W10042   3.678   2.738   8.291  0.0418 -0.3121  0.0341
66949W        W10043   3.961   3.033   7.597 -0.1252 -0.4031  0.0462
66950W        W10044   5.897   0.644   7.594 -0.0578  0.0289 -0.0785
66951W        W10045   5.561   1.841   7.367  0.1267  0.0903  0.1641
66952W        W10046   6.696   1.035   7.362  0.2489  0.0238 -0.1421
66953W        W10047   6.327  34.179   9.587  0.1944 -0.2371 -0.2348
66954W        W10048   4.910   3.102   8.476 -0.1348 -0.1200  0.1235
66955W        W10049   6.405   1.052   9.739 -0.2189 -0.0199  0.0297
66956W        W10050   5.323   1.129   8.331  0.0735  0.0955  0.3131
66957W        W10051   6.882   0.120   9.107 -0.0772 -0.1979 -0.1549
66958W        W10052   4.644   3.589  10.291 -0.0039  0.0866  0.1210
66959W        W10053   5.274   0.058   9.320  0.1114 -0.0226 -0.2986
66960W        W10054   7.446   1.653   6.724 -0.1783 -0.1628  0.2891
66961W        W10055   7.279   3.243   8.126 -0.1038  0.0370  0.0258
66962W        W10056   5.425   2.397   7.853 -0.0037 -0.2279 -0.1918
66963W        W10057   3.982   1.753   7.477 -0.1136 -0.0224 -0.2002
66964W        W10058   5.010   1.481   8.042 -0.0641  0.0473  0.0950
66965W        W10059   7.397   0.215   9.259 -0.1637 -0.1285 -0.0051
66966W        W10060   6.755   2.791  10.421 -0.2575 -0.3313  0.2357
66967W        W10061   8.623   1.783   9.871 -0.0571 -0.1046 -0.2121
66968W        W10062   7.054   1.740   8.093 -0.2918 -0.0420  0.3779
66969W        W10063   6.773   0.953  10.896  0.1979 -0.2044  0.0114
66970W        W10064   6.990   0.280   9.602  0.0709 -0.0161  0.1697
66971W        W10065   4.265   1.850   8.363  0.1426  0.3055  0.1341
66972W        W10066   6.075   2.030   8.192 -0.2779 -0.0661 -0.1194
66973W        W10067   6.301   2.603  10.335 -0.0087 -0.3776  0.5378
66974W        W10068   8.021   0.866   7.777 -0.2508  0.1196  0.2015
66975W        W10069   5.704   2.623  10.241 -0.1838 -0.4178 -0.2221
66976W        W10070   4.849   2.593   7.850  0.0336  0.2062 -0.2119
66977W        W10071   3.883   3.205   8.052  0.0815 -0.0358  0.2916
66978W        W10072   5.288   2.485   8.818 -0.0315 -0.2140  0.0481
66979W        W10073   4.075   0.803   8.454 -0.0881  0.1371  0.2185
66980W        W10074   4.134   1.767   9.743  0.0693  0.0743  0.1893
66981W        W10075   7.616  34.274  10.468  0.0036 -0.0493  0.0291
66982W        W10076   7.196   1.114   9.372  0.2690 -0.1925 -0.1024
66983W        W10077   4.481   2.274   8.174  0.1883 -0.0715  0.2831
66984W        W10078   6.236   3.445   9.382 -0.0714 -0.1062  0.2399
66985W        W10079   7.356   1.571   8.552  0.0462  0.1012  0.0912
66986W        W10080   6.939   1.854   7.506  0.2370  0.4935  0.0589
66987W        W10081   2.366   2.262   8.468 -0.0868  0.3456 -0.1428
66988W        W10082   6.042   1.675   9.006  0.1692  0.0808 -0.0463
66989W        W10083   5.064   1.438   9.500 -0.1416 -0.1129  0.0406
66990W        W10084   5.418   0.175   7.274  0.0191  0.1413  0.2451
66991W        W10085   5.305   1.954   8.576  0.4056  0.0412 -0.2237
66992W        W10086   5.124   2.124   9.163 -0.2412 -0.0865 -0.3690
66993W        W10087   4.017   1.385   7.820  0.1761  0.2050  0.2712
66994W        W10088   6.130   2.476   8.584 -0.2461  0.1892 -0.0434
66995W        W10089   4.640   4.071   9.038  0.4017 -0.0128  0.2562
66996W        W10090   6.622   3.192   9.088 -0.0774  0.2277 -0.1896
66997W        W10091   4.537  32.803  10.388  0.1144  0.0309 -0.0272
66998W        W10092   5.012   0.636   7.277 -0.0475  0.0850 -0.0036
66999W        W10093   3.142   3.613   9.572  0.0560 -0.0140  0.1351
67000W        W10094   6.562   1.562   8.280  0.1120  0.1610 -0.0109
67001W        W10095   5.858   0.149   7.571  0.1233  0.3374 -0.0694
67002W        W10096   7.238   4.506   9.128 -0.1066  0.1411 -0.1531
67003W        W10097   6.985   1.953   8.540  0.1284 -0.0357  0.0551
67004W        W10098   5.942  33.965   9.905  0.0691 -0.0525  0.0185
67005W        W10099   5.474   1.472   9.889 -0.2564 -0.2112  0.1443
67006W        W10100   4.996  34.629   7.462  0.0909 -0.1001  0.0998
67007W        W10101   5.860   1.764   9.881  0.0069 -0.2425 -0.1089
67008W        W10102   3.868   2.568   7.813  0.1274 -0.0388  0.4091
67009W        W10103   3.569   1.577   7.740  0.1164  0.1235 -0.0902
67010W        W10104   4.981   3.774   9.421 -0.0039  0.0409  0.4379
67011W        W10105   7.679   1.631  10.006  0.0205 -0.0038 -0.3233
67012W        W10106   5.592   1.732   8.179 -0.2107  0.1372  0.1049
67013W        W10107   6.306  34.540   8.254 -0.0031 -0.2647  0.3743
67014W        W10108   6.877   0.820   8.614  0.0476  0.2487  0.0484
67015W        W10109   7.862   2.772   8.244 -0.1194 -0.0324 -0.0779
67016W        W10110   6.844   1.166   6.279  0.2323 -0.0012 -0.3121
67017W        W10111   6.550  34.381   7.786 -0.1591 -0.2846 -0.1864
67018W        W10112   6.536   2.566   9.847  0.0018 -0.0443 -0.1367
67019W        W10113   5.797   1.712  10.440  0.5353 -0.2262  0.0262
67020W        W10114   5.829   1.164   7.530 -0.0416 -0.2664  0.2920
67021W        W10115   8.956   3.882   8.203 -0.0248 -0.1346 -0.2722
67022W        W10116   4.287   0.517   9.499 -0.0141 -0.1245 -0.3227
67023W        W10117   8.496   2.917  10.089 -0.1389  0.0580 -0.0262
67024W        W10118   5.168  34.026  10.010  0.1871  0.0710 -0.1870
67025W        W10119   4.058   2.010   7.924 -0.2065  0.2165 -0.1404
67026W        W10120   6.500   0.710   7.843 -0.1108  0.2159  0.3543
67027W        W10121   3.609   2.822   6.760  0.2450  0.0882  0.2899
67028W        W10122   7.197   2.521  10.426  0.0829  0.2715 -0.3356
67029W        W10123   7.183  34.084  10.978  0.0970 -0.0609  0.3224
67030W        W10124   5.807   1.270   8.261 -0.2662 -0.0500 -0.0407
67031W        W10125   5.871   1.115  10.125 -0.2232 -0.0292 -0.1583
67032W        W10126   3.322   1.537   6.855 -0.5474  0.0042  0.1802
67033W        W10127   6.914   1.800  10.315 -0.0734  0.2289 -0.0896
67034W        W10128   4.125   2.842   8.414  0.0728 -0.2314  0.0091
67035W        W10129   6.766   1.083   9.071  0.0016  0.0816  0.1303
67036W        W10130   6.375   0.176   7.601  0.0003  0.2093  0.0807
67037W        W10131   5.976   3.030   8.568 -0.1438  0.0429  0.2398
67038W        W10132   3.879   2.264   7.406  0.3627  0.2717 -0.1870
67039W        W10133   5.282  33.307   9.824 -0.0887 -0.1461 -0.1861
67040W        W10134   6.215   1.485  10.119 -0.1570  0.2191 -0.1841
67041W        W10135   4.866   2.392   7.421 -0.0381  0.2321 -0.1726
67042W        W10136   6.798  34.558  10.272 -0.0840  0.0732  0.1694
67043W        W10137   4.807   3.025   9.202  0.1755  0.0779  0.0909
67044W        W10138   8.452  32.381  10.142  0.1822  0.0689  0.2031
67045W        W10139   4.014   3.493   9.574  0.2688 -0.1432 -0.2087
67046W        W10140   5.273   1.007   7.411  0.1330 -0.1272  0.2507
67047W        W10141   3.424   0.994   7.591 -0.2705 -0.2893 -0.0552
67048W        W10142   7.310  34.636  10.285  0.2222  0.3042 -0.1235
67049W        W10143   6.636   2.043   8.197 -0.1346  0.1288 -0.0058
67050W        W10144   6.139  34.611   9.235  0.0885  0.0469  0.0091
67051W        W10145   5.072  32.244   9.856  0.0455  0.0529 -0.1536
67052W        W10146   3.453   5.188  10.024 -0.1642  0.1979  0.1897
67053W        W10147   7.868  34.193   8.186 -0.0806 -0.1499 -0.0661
67054W        W10148   5.331   1.422   7.086  0.0853  0.0478 -0.1996
67055W        W10149   9.660   2.105  11.192 -0.3414 -0.0817  0.1758
67056W        W10150   5.537   1.366   9.240  0.1686  0.0938  0.1600
67057W        W10151   3.791   3.666   8.409  0.3267 -0.0801 -0.1718
67058W        W10152   7.379   3.172   9.410 -0.1441  0.0641  0.0017
67059W        W10153   4.481   1.644   7.916  0.0824 -0.2171 -0.0395
67060W        W10154   4.469   3.760   9.775 -0.1888 -0.3149  0.1580
67061W        W10155   8.877   3.678   9.652 -0.0172  0.2327 -0.2972
67062W        W10156   5.639   0.451   9.293 -0.0477 -0.1462  0.0598
67063W        W10157   4.564   1.340   9.614  0.1306 -0.1705  0.0698
67064W        W10158   6.554   0.772   9.384  0.0060 -0.2551 -0.0250
67065W        W10159   7.281   2.520  10.952 -0.0833 -0.1852  0.0491
67066W        W10160   6.362   1.626   9.685  0.1174 -0.0710  0.0340
67067W        W10161   5.663  34.483   9.188  0.2704 -0.2454 -0.3050
67068W        W10162   8.997   1.651   8.834  0.1511  0.2077 -0.3379
67069W        W10163   4.354   1.321   7.454 -0.4468 -0.3516  0.0131
67070W        W10164   4.782   2.995  10.136 -0.2492  0.0603 -0.1297
67071W        W10165   6.005   2.563   9.493 -0.1036 -0.0452 -0.2002
67072W        W10166   6.034   0.832   9.507  0.1330  0.2947  0.1472
67073W        W10167   4.908   0.967   8.682  0.2806  0.0182  0.3908
67074W        W10168   5.468   2.869   7.961 -0.0014  0.3617  0.2862
67075W        W10169   4.073   2.985   8.924 -0.3288 -0.2388  0.1704
67076W        W10170   7.048   0.012   8.231 -0.1016 -0.0393  0.0511
67077W        W10171   7.146   1.174   8.168 -0.3419 -0.1221 -0.3083
67078W        W10172   6.095   0.348   9.050 -0.2052  0.2806 -0.3508
67079W        W10173   6.384   1.285   7.583 -0.2974  0.0186  0.0729
67080W        W10174   5.984   0.297   9.636 -0.2334  0.1619 -0.0588
67081W        W10175   7.249   1.016   8.851 -0.2558 -0.1582 -0.0543
67082W        W10176   7.436   0.176   8.611  0.2818  0.0563  0.0899
67083W        W10177   5.339   1.140   8.837 -0.3209  0.1682  0.1079
67084W        W10178   5.459   0.746  10.141 -0.2143  0.0974 -0.0903
67085W        W10179   7.483   2.179   9.823 -0.0786 -0.0650  0.1860
67086W        W10180   6.054   1.642   8.476  0.0237 -0.2352  0.1494
67087W        W10181   7.133   1.557  10.752  0.4077  0.1842 -0.1610
67088W        W10182   3.812   1.630   8.180  0.1666 -0.1073  0.2844
67089W        W10183   5.905   1.244   8.811  0.4590  0.0439  0.0922
67090W        W10184   6.955   2.474   8.254  0.2565 -0.1859 -0.3222
67091W        W10185   4.566   2.155   9.726  0.0408  0.1823 -0.1145
67092W        W10186   8.327   0.458   9.667  0.1088  0.1885  0.2855
67093W        W10187   5.905   0.232   8.479  0.2755 -0.2538 -0.1588
67094W        W10188   5.627   2.336   9.206  0.1526  0.0286  0.2416
67095W        W10189   7.399   2.013   8.351  0.0265  0.2039 -0.0939
67096W        W10190   7.463   2.005  10.319 -0.1220 -0.0786 -0.0015
67097W        W10191   7.903   0.798   8.331  0.0283 -0.0748  0.0878
67098W        W10192   6.389   0.037   8.785 -0.0489 -0.0323  0.3557
67099W        W10193   5.557   1.573   8.655  0.1550  0.3603  0.1616
67100W        W10194   5.008   0.874   7.798 -0.1989  0.1748 -0.0320
67101W        W10195   6.142   3.064   7.178  0.1568  0.2031  0.0183
67102W        W10196   6.389   2.249   9.551 -0.1571 -0.0413  0.1196
67103W        W10197   6.257   1.188   8.476  0.1019 -0.0824 -0.0345
67104W        W10198   4.241   1.385   9.202 -0.0324  0.0110  0.0246
67105W        W10199   4.109   0.853   7.600 -0.2997 -0.0600 -0.1172
67106W        W10200   4.756   2.044   7.836 -0.1260 -0.2645 -0.1571
67107W        W10201   7.193   1.631   9.770  0.1789 -0.1190  0.1962
67108W        W10202   6.129  34.055   8.223 -0.0149  0.0287 -0.3497
67109W        W10203   4.677   3.509   8.734  0.2025 -0.2458  0.1986
67110W        W10204   6.320  34.183  10.159 -0.1776 -0.2838 -0.1569
67111W        W10205   4.956   2.866   9.694 -0.0233  0.1302 -0.0156
67112W        W10206   5.440   2.593   9.793  0.2704 -0.1992 -0.1320
67113W        W10207   6.592   0.482   8.973  0.0067  0.1787 -0.0649
67114W        W10208   6.359   0.602   8.477 -0.1996  0.0469  0.0012
67115W        W10209   6.721   2.249  10.326  0.3894  0.0144  0.0386
67116W        W10210   4.147  34.627   7.753  0.1123  0.2074 -0.0321
67117W        W10211   7.372   2.325   9.267  0.0559  0.4054  0.0245
67118W        W10212   2.610   2.192   9.854  0.1972  0.0012 -0.0870
67119W        W10213   6.439   1.838  10.466 -0.0641  0.1204  0.1289
67120W        W10214   5.993   1.506   7.184 -0.1064 -0.1473 -0.2869
67121W        W10215   5.305   3.494   6.698 -0.0169 -0.0776 -0.0399
67122W        W10216   4.064   1.501   8.732 -0.0437 -0.1586  0.1380
67123W        W10217   3.745   3.990   6.792  0.2543  0.1319  0.3709
67124W        W10218   7.183   1.504   7.197  0.3469 -0.0757 -0.0333
67125W        W10219   6.470   1.462   8.808  0.1069  0.1618 -0.2186
67126W        W10220   7.058   2.982  10.033 -0.0271  0.1148  0.0056
67127W        W10221   6.504   2.362   6.807 -0.3368  0.2588  0.2251
67128W        W10222   4.647   2.524  10.625  0.1972 -0.3392 -0.1851
67129W        W10223   4.344   2.306   7.607 -0.2016  0.0428  0.2513
67130W        W10224   6.900   2.764   7.817 -0.1136  0.0693  0.0166
67131W        W10225   5.547   3.237   8.542  0.0063  0.2040 -0.0352
67132W        W10226   6.669  34.476   6.579  0.0862  0.1233 -0.2122
67133W        W10227   6.976   1.659   9.043 -0.0255 -0.1814 -0.1356
67134W        W10228   8.427   1.761   9.000 -0.1408 -0.3203 -0.1855
67135W        W10229   4.830   2.109   8.770 -0.3630  0.0196 -0.3376
67136W        W10230   5.070   0.132   6.373 -0.1990 -0.3771  0.1718
67137W        W10231   7.841   2.832   9.413  0.0970  0.0024  0.2923
67138W        W10232   3.205   0.876   8.070 -0.0430 -0.3206  0.0011
67139W        W10233   6.225   1.291   9.267  0.2642  0.0963  0.2096
67140W        W10234   9.356  34.667  11.004 -0.0237  0.1299  0.0004
67141W        W10235   5.241   1.936   7.805  0.1783  0.1749 -0.0747
67142W        W10236   5.027   2.298   9.590  0.2303 -0.2864 -0.3809
67143W        W10237   4.307   2.780   7.877  0.1286 -0.0865 -0.0585
67144W        W10238   4.397   2.646   9.792  0.1903 -0.0648  0.2455
67145W        W10239   5.778   3.394   9.529 -0.0538  0.3172 -0.3585
67146W        W10240   3.719  34.342   7.856  0.0612 -0.0554 -0.0396
67147W        W10241   9.239   2.005   8.482  0.0258  0.2420  0.3992
67148W        W10242   6.868   0.573  10.535 -0.1402 -0.1375 -0.0530
67149W        W10243   4.913   1.366  10.026 -0.0299 -0.0565  0.3740
67150W        W10244   7.296   1.148   9.863  0.1574 -0.0181  0.0619
67151W        W10245   5.197   2.899  10.441 -0.0572 -0.0567  0.1874
67152W        W10246   4.966   0.902   9.861 -0.2310 -0.1773  0.0529
67153W        W10247   5.876   2.200   7.233  0.1854 -0.1665 -0.1197
67154W        W10248   6.498   1.811   7.737 -0.2244 -0.2932 -0.0857
67155W        W10249   4.365   0.806  10.053  0.1407  0.0762 -0.1288
67156W        W10250   7.115   0.991   7.677 -0.0301  0.0316 -0.1543
67157W        W10251   4.373   2.012   9.094  0.0689 -0.1681  0.1570
67158W        W10252   4.765   1.820   9.333 -0.4009 -0.0141  0.0625
67159W        W10253   4.260   0.410   8.905  0.2481  0.2350  0.0072
67160W        W10254   7.662   3.230   8.477  0.4147 -0.1329 -0.0871
67161W        W10255   6.822   2.146   9.004 -0.1732  0.0485 -0.0369
67162W        W10256   7.058   2.242   7.786 -0.2886 -0.1451  0.2087
67163W        W10257   8.958   2.414   8.385  0.0831 -0.0944 -0.1079
67164W        W10258   7.512   3.661   9.009  0.0796  0.0828 -0.3993
67165W        W10259   5.391   0.550  11.284 -0.0838 -0.1675  0.3325
67166W        W10260   8.274   4.536   9.362  0.2557  0.0120  0.1144
67167W        W10261   8.916   2.586   9.956  0.1856  0.2340 -0.0563
67168W        W10262   5.862   0.811   8.467  0.0620  0.1428 -0.0120
67169W        W10263   4.767  34.258  10.166  0.2153  0.2760 -0.0120
67170W        W10264   4.196   3.379   8.543 -0.1523  0.3268  0.0477
67171W        W10265   7.882   2.127  10.781 -0.0247  0.2277  0.1815
67172W        W10266   6.260   2.855   7.735 -0.0440  0.0235  0.1918
67173W        W10267   4.854   3.353   9.719  0.4393 -0.1173 -0.2915
67174W        W10268   4.385   0.851   7.128  0.2066 -0.1793 -0.0382
67175W        W10269   5.469   1.910   9.632 -0.1314 -0.0242 -0.1208
67176W        W10270   5.693   2.898   9.317 -0.0258 -0.2365 -0.1027
67177W        W10271   7.361   2.793   8.486 -0.3226 -0.1037  0.0532
67178W        W10272   5.541   0.952   7.942  0.0764 -0.3329 -0.1730
67179W        W10273   8.257   1.908   9.447 -0.0256  0.0864  0.2740
67180W        W10274   6.045   0.633  10.042 -0.1663 -0.1990  0.0651
67181W        W10275   7.495   0.136   9.730 -0.3864  0.0672 -0.1045
67182W        W10276   6.112   0.981   8.027 -0.1701  0.1823  0.0413
67183W        W10277   6.779   1.948   9.786 -0.2958  0.2110  0.1386
67184W        W10278   3.323   0.522   7.751 -0.0419  0.2138 -0.0332
67185W        W10279   3.249   2.176   6.681  0.1553  0.1033 -0.1360
67186W        W10280   4.378   2.443   8.727 -0.1642  0.0097  0.4515
67187W        W10281   4.662   2.531   9.379 -0.0196  0.2462  0.0814
67188W        W10282   4.527   1.089   7.874 -0.1110 -0.0025  0.0170
67189W        W10283   7.201   2.365   8.764 -0.1562 -0.1845 -0.0050
67190W        W10284   5.880   1.353   9.558  0.0120 -0.3036 -0.2907
67191W        W10285   3.812   0.196   8.985 -0.0291 -0.2999 -0.1038
67192W        W10286   6.643   1.001   8.158 -0.0553 -0.0060  0.4134
67193W        W10287   6.334   2.090  10.004 -0.0094 -0.1235  0.0002
67194W        W10288   6.166   0.359   8.020  0.0638  0.0574 -0.2680
67195W        W10289   4.183   3.255   5.907 -0.1455 -0.4701  0.3046
67196W        W10290   5.118   0.218   6.922 -0.0484 -0.1459 -0.2822
67197W        W10291   6.531   0.514   9.858  0.2753 -0.0796 -0.3689
67198W        W10292   5.226   2.642   9.298 -0.1905 -0.1872 -0.2691
67199W        W10293   6.463   1.957   8.736  0.3841 -0.1110  0.0559
67200W        W10294   4.313   0.018   9.252  0.1850  0.0327 -0.2049
67201W        W10295   7.580   0.868   9.305  0.1770  0.0142 -0.0073
67202W        W10296   7.446   2.423   8.152  0.0507 -0.0836 -0.1152
67203W        W10297   7.418   0.660   9.783  0.0989 -0.3919  0.0090
67204W        W10298   6.674   1.501   7.188 -0.0148  0.2521  0.2485
67205W        W10299   8.160   1.988  10.394  0.2219 -0.3080  0.1303
67206W        W10300   5.168   0.497   9.077 -0.0099 -0.3395 -0.2019
67207W        W10301   5.230   0.573   9.558 -0.0035  0.2877 -0.3659
67208W        W10302   5.787   2.058   8.787  0.1356 -0.0749  0.2290
67209W        W10303   2.947   2.099   8.599 -0.0794  0.1673 -0.1241
67210W        W10304   6.944  34.662   7.731 -0.0530  0.0656 -0.1719
67211W        W10305   6.803   1.306  10.004 -0.0281 -0.1824 -0.1237
67212W        W10306   5.354   0.081   7.770 -0.1533 -0.0698 -0.2719
67213W        W10307   8.586   1.089   8.986 -0.1583  0.0051  0.2428
67214W        W10308   6.442   2.323  10.728  0.0021  0.3771 -0.1671
67215W        W10309   6.048   2.874  10.054 -0.2888  0.0682 -0.1626
67216W        W10310   8.257   2.491  10.144  0.1548  0.0997 -0.2042
67217W        W10311   3.935  33.806  10.009  0.0495  0.1587 -0.0665
67218W        W10312   6.013   2.584   8.099 -0.0544 -0.2020 -0.0466
67219W        W10313   4.891   1.899   8.276  0.2063 -0.0631 -0.2487
67220W        W10314   8.186   1.559   9.968 -0.0791  0.0162  0.0480
67221W        W10315   4.265   1.410  10.009  0.0497 -0.1943 -0.3374
67222W        W10316   6.032  34.367   7.695 -0.2156  0.0842 -0.1171
67223W        W10317   6.417   0.496  10.343 -0.1664 -0.2197  0.2560
67224W        W10318   6.787   1.408   9.493  0.0650  0.1089 -0.0234
67225W        W10319   3.871   6.569   4.440  0.0786 -0.2222 -0.3349
67226W        W10320   3.509   4.538   1.845 -0.1618 -0.3281  0.0479
67227W        W10321   7.446   4.589   0.746 -0.1702  0.1750  0.0192
67228W        W10322   8.811   6.359   0.072 -0.1278 -0.0716  0.0201
67229W        W10323   2.465   3.978   2.047  0.0404  0.4210 -0.1189
67230W        W10324   6.342   6.916  31.516  0.0605  0.0309 -0.2815
67231W        W10325   5.466   2.439   1.605 -0.3271 -0.3548 -0.3094
67232W        W10326   6.405   6.667   1.516 -0.3049 -0.2171  0.2822
67233W        W10327   7.810   7.395   2.543 -0.1951  0.1969 -0.0257
67234W        W10328   4.845   4.260   1.815 -0.0126  0.1448  0.1101
67235W        W10329   4.177   3.735   2.173  0.1894 -0.1016 -0.0100
67236W        W10330   4.792   3.940   3.226  0.1418  0.0779 -0.2356
67237W        W10331   4.643   3.536   0.402  0.1222  0.0995  0.4557
67238W        W10332   1.885   3.226   2.440 -0.1465  0.2786 -0.4669
67239W        W10333   6.498   5.135   2.495  0.2548 -0.0291  0.2946
67240W        W10334   4.601   6.210   0.804 -0.5140 -0.1092 -0.1748
67241W        W10335   4.400   5.464   2.016  0.3490 -0.0582  0.3504
67242W        W10336   6.331   4.801   2.194 -0.2284  0.1482  0.1085
67243W        W10337   5.279   8.161  31.829 -0.0732  0.1392  0.0202
67244W        W10338   4.820   3.122   1.692  0.0228 -0.0541  0.2482
67245W        W10339   5.909   2.329   3.352  0.4050 -0.0552 -0.1793
67246W        W10340   5.870   5.260  31.333 -0.2236  0.0079  0.4403
67247W        W10341   5.265   6.108   0.664 -0.1801 -0.0436 -0.3615
67248W        W10342   4.643   6.632   3.133  0.2399 -0.0451  0.4187
67249W        W10343   5.138   4.382   2.462  0.2631 -0.3089  0.0784
67250W        W10344   6.647   3.963   1.610  0.1320  0.0400 -0.1215
67251W        W10345   6.529   5.311   1.925 -0.0104 -0.3207  0.1638
67252W        W10346   6.067   6.934   0.717  0.1213 -0.1251  0.2255
67253W        W10347   4.900   7.308   1.206 -0.1224  0.0071  0.0435
67254W        W10348   7.078   3.265   2.357  0.0945 -0.0462  0.0874
67255W        W10349   4.482   7.314   1.576 -0.2138 -0.2022 -0.1895
67256W        W10350   4.205   6.543   1.215  0.0296  0.0881  0.2474
67257W        W10351   4.936   4.045  31.879  0.0955  0.0636 -0.1203
67258W        W10352   6.926   5.625   0.362  0.0079  0.1215  0.0340
67259W        W10353   5.162   4.389   3.660  0.1606  0.0419 -0.3254
67260W        W10354   5.268   5.251   3.098  0.1340 -0.0095  0.2404
67261W        W10355   4.600   6.603   0.255  0.2561  0.1951 -0.0357
67262W        W10356   7.407   6.583   2.139  0.2637  0.2206  0.2372
67263W        W10357   5.006   5.600   3.386  0.1618 -0.2924 -0.1002
67264W        W10358   7.807   3.767   3.534 -0.3941  0.1025 -0.1788
67265W        W10359   4.323   6.223   2.514  0.1130 -0.1271  0.0951
67266W        W10360   4.757   6.141  31.836  0.1523 -0.1280  0.3123
67267W        W10361   5.625   7.075   0.896  0.0894  0.1319  0.0876
67268W        W10362   4.538   6.661   3.831  0.2783 -0.1603 -0.1719
67269W        W10363   2.521   6.170   1.566 -0.0517 -0.2683 -0.1519
67270W        W10364   6.909   3.935   3.153 -0.1507  0.2218 -0.1547
67271W        W10365   5.449   6.311  31.747  0.2732 -0.2667 -0.0198
67272W        W10366   6.425   5.389   0.450  0.0065  0.1076 -0.2518
67273W        W10367   4.186   3.673  31.593  0.0052  0.1298  0.0565
67274W        W10368   5.274   5.347   1.069 -0.1817  0.3370 -0.4152
67275W        W10369   5.319   3.163   0.224  0.0619  0.0279 -0.2540
67276W        W10370   4.177   7.844   0.889  0.0278  0.0604 -0.0776
67277W        W10371   4.912   3.440   2.064 -0.0306 -0.4693  0.0659
67278W        W10372   6.882   6.559   1.421 -0.4493 -0.0705 -0.1126
67279W        W10373   4.598   5.574   2.546  0.1059 -0.0634  0.2136
67280W        W10374   5.411   6.248   1.497 -0.0663  0.2282  0.2003
67281W        W10375   5.530   5.426   3.527  0.2003 -0.0433 -0.2210
67282W        W10376   5.318   4.104   0.735  0.1419  0.0482 -0.1579
67283W        W10377   6.223   5.858   0.429 -0.2427 -0.0972  0.0938
67284W        W10378   8.936   7.132   1.275  0.0181 -0.0212  0.0942
67285W        W10379   5.309   5.925   0.162 -0.3853  0.2641 -0.0021
67286W        W10380   3.914   6.541   2.563 -0.0621  0.0340 -0.0892
67287W        W10381   3.047   5.485   4.313 -0.1431 -0.1023 -0.3477
67288W        W10382   3.213   6.525   2.996  0.0455 -0.1759 -0.3236
67289W        W10383   4.108   2.772   0.609  0.1271 -0.2326 -0.0764
67290W        W10384   5.773   5.294   2.952 -0.1192  0.0711 -0.1232
67291W        W10385   3.759   6.820   3.466  0.0793  0.1928 -0.0807
67292W        W10386   6.150   4.008   1.921 -0.2154 -0.5006  0.0962
67293W        W10387   4.599   5.680   3.101 -0.0665 -0.1054 -0.0074
67294W        W10388   7.860   6.386   2.379  0.2200 -0.0397  0.1493
67295W        W10389   6.467   5.652   0.922 -0.0223  0.0881  0.0202
67296W        W10390   6.617   3.081   2.493 -0.3043  0.3851 -0.0657
67297W        W10391   6.044   2.909   3.100 -0.1818  0.0200 -0.2607
67298W        W10392   4.103   6.182   0.822  0.3098  0.0113  0.1789
67299W        W10393   6.115   5.201   0.890  0.0734  0.1606  0.2206
67300W        W10394   6.152   5.569   2.672 -0.1015 -0.3959  0.1715
67301W        W10395   6.641   5.538   1.391  0.1737 -0.0690 -0.1771
67302W        W10396   4.664   6.430   2.049 -0.1930  0.1188  0.0245
67303W        W10397   5.876   3.808   2.940 -0.1489 -0.3316  0.2485
67304W        W10398   5.789   7.147   3.576  0.0905  0.1896  0.1973
67305W        W10399   5.076   6.681   0.011  0.2641  0.0721  0.0162
67306W        W10400   3.709   5.805   2.335 -0.0757  0.2646 -0.1847
67307W        W10401   5.364   5.587   0.512  0.3469  0.1074  0.1449
67308W        W10402   4.961   4.669   1.481 -0.1462 -0.0659  0.0462
67309W        W10403   4.159   5.486   3.198 -0.3369 -0.2445  0.0329
67310W        W10404   6.560   4.055   1.154 -0.0036 -0.1419  0.2174
67311W        W10405   5.733   3.722   0.917  0.2633  0.0262  0.0113
67312W        W10406   8.046   3.704   1.689 -0.0171 -0.0398  0.4368
67313W        W10407   4.763   4.595   0.977 -0.0782  0.0240 -0.1003
67314W        W10408   7.333   6.263   0.192  0.0646 -0.1629 -0.1352
67315W        W10409   6.614   5.105   0.946  0.1303  0.0032 -0.2894
67316W        W10410   6.198   5.669  31.176  0.0105 -0.0443  0.2054
67317W        W10411   3.363   4.922   3.663  0.0694  0.1427 -0.2371
67318W        W10412   3.463   4.278   2.304 -0.1775 -0.1434 -0.0809
67319W        W10413   4.439   3.865   3.640 -0.0754 -0.3165 -0.0726
67320W        W10414   4.204   5.770   2.355  0.0304  0.3035  0.3158
67321W        W10415   6.524   4.048   2.436  0.3062 -0.3130 -0.1195
67322W        W10416   3.545   3.930   1.300  0.1288 -0.1465 -0.3401
67323W        W10417   5.830   5.692   2.127  0.1276 -0.1981 -0.2602
67324W        W10418   5.262   4.584  31.687  0.0458  0.0862  0.2321
67325W        W10419   5.763   3.745   2.153 -0.1994 -0.1098 -0.0806
67326W        W10420   7.014   4.849   3.315 -0.3340 -0.0480 -0.2669
67327W        W10421   5.762   5.986   0.441  0.0122 -0.3157  0.0609
67328W        W10422   6.737   7.140   2.644 -0.3998  0.0302 -0.0495
67329W        W10423   3.943   7.000   1.365  0.1975  0.1066  0.2796
67330W        W10424   4.088   3.881   4.431 -0.1393  0.0059 -0.0572
67331W        W10425   4.208   4.633   1.075 -0.0610 -0.0891  0.0556
67332W        W10426   2.997   7.329   1.212  0.0594 -0.2819  0.0459
67333W        W10427   5.314   6.933   0.375 -0.2234  0.0901  0.1164
67334W        W10428   3.679   3.654   1.844  0.0638  0.0924  0.0713
67335W        W10429   7.441   6.827   1.633  0.0003  0.0786 -0.0923
67336W        W10430   4.390   6.110   0.335 -0.5441 -0.1366 -0.1624
67337W        W10431   3.414   7.476   2.129  0.1364 -0.1989  0.2711
67338W        W10432   7.262   3.737   2.539  0.1150  0.2537 -0.1400
67339W        W10433   6.656   5.615   2.765  0.1475  0.2812  0.1473
67340W        W10434   6.276   5.745   1.749 -0.0892  0.0274  0.0670
67341W        W10435   6.063   3.592  31.799  0.3731 -0.0640 -0.1640
67342W        W10436   6.102   6.590   1.079  0.3057 -0.2936 -0.1832
67343W        W10437   1.610   7.363   0.560 -0.1368 -0.1190  0.3854
67344W        W10438   2.973   3.346   0.146  0.0242 -0.2049 -0.0539
67345W        W10439   6.786   7.533   0.057  0.3170  0.2658 -0.1570
67346W        W10440   5.926   4.470   1.904  0.2207  0.2851  0.1817
67347W        W10441   3.425   5.792   4.018 -0.1752 -0.2286  0.0522
67348W        W10442   6.649   2.126   4.462  0.0106  0.1339 -0.2340
67349W        W10443   4.023   4.628   1.821 -0.0880 -0.0707 -0.4872
67350W        W10444   3.904   6.007   2.771  0.0614 -0.0180  0.0582
67351W        W10445   5.569   3.604  31.961 -0.0999 -0.0696 -0.2165
67352W        W10446   6.307   4.889   0.529  0.0609 -0.0674  0.1099
67353W        W10447   6.701   4.508   2.452 -0.0464  0.1224 -0.0469
67354W        W10448   7.023   6.338  31.145 -0.3866  0.2560  0.1325
67355W        W10449   4.045   3.827   0.085  0.1069 -0.2291  0.1564
67356W        W10450   6.647   4.122   0.582  0.1263  0.1677  0.0230
67357W        W10451   4.121   6.577   3.133  0.0235 -0.2207 -0.0424
67358W        W10452   5.030   6.559   0.632 -0.1315  0.2707 -0.1450
67359W        W10453   5.990   6.426   1.560  0.0438 -0.1148 -0.1092
67360W        W10454   6.181   6.202  31.580  0.0602 -0.3755  0.0333
67361W        W10455   6.890   6.589   0.449 -0.1881  0.0892  0.1565
67362W        W10456   4.643   6.136   3.911 -0.0381 -0.0467 -0.1308
67363W        W10457   6.035   4.198   3.787 -0.0314  0.2425  0.1116
67364W        W10458   7.343   6.310  31.647  0.1183  0.3007  0.2113
67365W        W10459   5.608   3.099   2.846  0.0054 -0.1030 -0.1492
67366W        W10460   4.538   3.991   0.170 -0.0194  0.0013 -0.0561
67367W        W10461   5.390   3.836   1.331 -0.1064  0.1919 -0.3378
67368W        W10462   3.537   8.106  31.304 -0.1829 -0.0961  0.0243
67369W        W10463   7.170   3.521   1.875  0.1449  0.2348 -0.0656
67370W        W10464   5.023   2.406   1.363  0.3122 -0.0528  0.3874
67371W        W10465   5.791   1.563   3.847 -0.0043 -0.2504 -0.1730
67372W        W10466   6.082   4.222   3.112  0.0145 -0.1982  0.1782
67373W        W10467   6.594   6.822   0.927  0.1031  0.2120 -0.3471
67374W        W10468   5.860   3.380   3.170  0.0371 -0.1963 -0.1843
67375W        W10469   3.915   5.450   1.434  0.3249 -0.1457 -0.0706
67376W        W10470   6.916   2.829   2.111  0.3657  0.1786 -0.1885
67377W        W10471   4.549   5.225   3.353  0.1183  0.1835  0.2127
67378W        W10472   4.530   6.666   2.619  0.1451  0.0056 -0.1617
67379W        W10473   7.182   6.626   3.760 -0.0352 -0.0328 -0.0538
67380W        W10474   4.795   6.016   2.385 -0.0167  0.1200 -0.0246
67381W        W10475   6.531   2.915   3.001 -0.0691 -0.1463  0.0813
67382W        W10476   5.916   4.682   1.407 -0.4377  0.2556 -0.3656
67383W        W10477   5.906   7.199  31.533  0.3372  0.1091  0.3317
67384W        W10478   5.054   6.350   1.050  0.1738  0.0601 -0.2125
67385W        W10479   5.660   3.363   0.591  0.0918  0.0042 -0.1149
67386W        W10480   4.260   6.682   2.184 -0.3093 -0.3064 -0.0101
67387W        W10481   4.941   5.573   1.620  0.0219  0.0493  0.0288
67388W        W10482   6.548   4.982   3.658 -0.1026 -0.3356 -0.1911
67389W        W10483   5.555   6.500   0.811 -0.4120 -0.0535 -0.1280
67390W        W10484   6.871   1.836   2.278  0.1176 -0.0822 -0.5428
67391W        W10485   3.749   6.856   2.131  0.0505  0.2408 -0.1531
67392W        W10486   4.051   4.123   1.014  0.5156  0.0175 -0.0277
67393W        W10487   4.537   4.716   1.887 -0.2294 -0.1409 -0.0026
67394W        W10488   6.770   4.995   1.478  0.1318 -0.0574 -0.4279
67395W        W10489   7.239   6.189   1.677  0.1169 -0.0178 -0.0370
67396W        W10490   4.448   4.249   2.786 -0.1980 -0.1011 -0.1441
67397W        W10491   6.236   3.683   2.285  0.0135  0.2034 -0.1760
67398W        W10492   3.943   7.594   1.808  0.1058 -0.1438 -0.3468
67399W        W10493   6.312   2.863   4.024 -0.1104 -0.3619 -0.0521
67400W        W10494   6.301   3.983   0.180 -0.0304 -0.0979  0.0634
67401W        W10495   5.190   6.879   1.051 -0.2916 -0.1403 -0.3610
67402W        W10496   4.095   6.248   4.133 -0.0278  0.0700  0.0522
67403W        W10497   3.819   6.236   1.503 -0.1051  0.1626  0.1776
67404W        W10498   7.546   4.384   1.783  0.0323  0.2511 -0.0843
67405W        W10499   4.981   3.258   0.642 -0.0111 -0.0185  0.1067
67406W        W10500   4.941   6.226   0.291 -0.2071 -0.1606 -0.0370
67407W        W10501   4.203   6.361   3.582 -0.1375 -0.1312 -0.3438
67408W        W10502   5.648   4.950  31.793  0.0508 -0.0369  0.0248
67409W        W10503   5.795   6.152   1.205 -0.0702  0.0371  0.1540
67410W        W10504   5.247   3.876   3.459  0.1742  0.0375 -0.3342
67411W        W10505   5.188   6.350   2.530 -0.3672 -0.2748  0.2902
67412W        W10506   5.228   4.860   2.737  0.3301  0.1492  0.0805
67413W        W10507   4.848   3.973   0.605  0.0886 -0.0343  0.1842
67414W        W10508   5.416   5.758   1.740  0.1544  0.2603  0.0032
67415W        W10509   5.867   6.019   2.473  0.2464  0.1296 -0.1332
67416W        W10510   6.362   5.795   2.276 -0.0679 -0.1102 -0.0330
67417W        W10511   2.738   5.894   4.199  0.0660  0.1289 -0.4358
67418W        W10512   5.827   3.452   2.594 -0.0632  0.0393 -0.1359
67419W        W10513   6.903   6.564  31.938 -0.1101  0.0399  0.0252
67420W        W10514   6.385   2.618   3.408  0.4937  0.1110  0.1033
67421W        W10515   5.555   4.536   0.066  0.2906 -0.1362 -0.2308
67422W        W10516   4.398   6.784   0.687 -0.2587  0.0818  0.3929
67423W        W10517   6.581   4.529   0.277 -0.2085  0.2037  0.1053
67424W        W10518   4.595   4.346   3.676 -0.3907 -0.2922  0.1974
67425W        W10519   4.962   6.795   2.367 -0.1708  0.0550 -0.3394
67426W        W10520   5.166   7.192  31.858 -0.3065 -0.0120 -0.0335
67427W        W10521   4.963   7.526   2.646  0.0489  0.1907  0.1467
67428W        W10522   6.648   3.281   0.631 -0.0082 -0.2219  0.4001
67429W        W10523   6.092   4.199   1.485  0.0171 -0.1285  0.1879
67430W        W10524   5.427   3.969   2.519 -0.1195  0.0596 -0.1866
67431W        W10525   7.689   3.603   2.168  0.0635 -0.0182 -0.1047
67432W        W10526   7.354   6.701   1.162 -0.2788 -0.0195  0.1167
67433W        W10527   5.670   2.382   2.623 -0.1386  0.1783  0.0930
67434W        W10528   5.650   2.927   1.713 -0.1628  0.4209 -0.0226
67435W        W10529   8.523   5.906   2.954  0.0819  0.3949  0.3684
67436W        W10530   4.159   4.911   3.200 -0.1176 -0.3079  0.1001
67437W        W10531   6.183   7.644   4.372 -0.0250  0.5247  0.0787
67438W        W10532   5.618   7.182   4.019 -0.0948 -0.2195 -0.2822
67439W        W10533   7.318   5.744   2.091  0.1520 -0.0739 -0.1187
67440W        W10534   4.106   5.094   1.797 -0.1576  0.3483 -0.3838
67441W        W10535   5.112   5.281   2.472 -0.0889 -0.2506 -0.1284
67442W        W10536   6.699   7.054  31.886  0.1706 -0.3066 -0.2036
67443W        W10537   6.106   8.000  30.592  0.2402  0.0836  0.2296
67444W        W10538   5.494   4.843   1.711  0.2161  0.0945 -0.1194
67445W        W10539   4.272   5.853   3.565  0.3505 -0.1509  0.0386
67446W        W10540   6.276   6.064   1.329 -0.1011  0.2715  0.2577
67447W        W10541   6.513   6.187   1.762 -0.0388  0.0787 -0.3011
67448W        W10542   4.051   7.467   1.339 -0.2146  0.4472  0.0944
67449W        W10543   5.578   2.944   3.380  0.1506 -0.1099  0.3121
67450W        W10544   5.606   4.500   2.837  0.0482 -0.0791  0.0038
67451W        W10545   6.645   3.432   1.549  0.1855  0.0662  0.0528
67452W        W10546   6.245   3.646   3.371  0.0355  0.1252 -0.5585
67453W        W10547   6.642   3.450   2.058  0.2800 -0.1876 -0.0305
67454W        W10548   5.386   4.087   3.053  0.0458 -0.1389 -0.1127
67455W        W10549   5.232   3.376   1.468  0.0296  0.0503  0.1332
67456W        W10550   8.308   5.698   2.005 -0.0323  0.0776 -0.1814
67457W        W10551   7.774   6.201   0.571  0.0516  0.1383 -0.2171
67458W        W10552   7.010   3.019   2.845  0.2219  0.1553 -0.0813
67459W        W10553   7.870   4.287   1.028  0.3710  0.1013 -0.1971
67460W        W10554   4.868   5.138   1.889  0.0772 -0.0485 -0.1924
67461W        W10555   4.874   5.121   1.331 -0.0390  0.1113 -0.0317
67462W        W10556   5.977   3.224   3.761  0.0673  0.1740 -0.4045
67463W        W10557   5.689   2.850   0.666 -0.3287 -0.1537 -0.0135
67464W        W10558   5.104   2.922   3.532  0.2379 -0.1520  0.3367
67465W        W10559   5.693   8.538  31.239  0.4045 -0.1560  0.0227
67466W        W10560   6.229   7.051   0.081  0.0737  0.1703 -0.0762
67467W        W10561   6.573   4.322   1.998 -0.1120 -0.2007  0.2555
67468W        W10562   3.897   3.302   2.170  0.1516  0.1346 -0.0390
67469W        W10563   3.252   7.839   2.981 -0.3103  0.0179  0.1417
67470W        W10564   4.579   3.908  30.892  0.0175  0.1241 -0.2977
67471W        W10565   7.476   3.262  30.610 -0.2396 -0.0457  0.0243
67472W        W10566   4.827   6.421   1.528  0.1767  0.0631  0.0405
67473W        W10567   7.057   5.638   3.284 -0.0181 -0.0326 -0.0269
67474W        W10568   7.493   5.610   0.955  0.0376 -0.0927 -0.1347
67475W        W10569   7.501   3.895   3.160 -0.0363 -0.1593 -0.1323
67476W        W10570   4.464   5.489   1.470 -0.1143  0.0964  0.1488
67477W        W10571   4.978   3.668   1.013 -0.2693 -0.3140  0.2615
67478W        W10572   4.996   6.730   4.064 -0.1303 -0.2480  0.0860
67479W        W10573   3.666   5.648   3.183  0.3475  0.2217 -0.1990
67480W        W10574   5.936   5.646   0.813  0.1124  0.1391  0.1518
67481W        W10575   6.121   3.499   1.722 -0.2463  0.1491  0.0920
67482W        W10576   6.271   5.076   1.579  0.2021  0.3164  0.2463
67483W        W10577   5.333   5.265   1.536 -0.0537  0.0923 -0.2527
67484W        W10578   8.518   4.806   3.280  0.1500  0.0822 -0.2739
67485W        W10579   5.572   5.454   2.557 -0.0875  0.0280 -0.1354
67486W        W10580   4.060   5.201   2.362 -0.0786 -0.2887 -0.1572
67487W        W10581   5.665   6.726   1.755 -0.3058 -0.1078 -0.0018
67488W        W10582   8.384   4.898   2.106 -0.0443 -0.0455  0.0791
67489W        W10583   5.003   7.547   3.485  0.2749 -0.0327  0.0979
67490W        W10584   4.315   5.208   2.772 -0.1016  0.2024 -0.1596
67491W        W10585   5.127   5.244   3.788 -0.0239 -0.1443  0.1659
67492W        W10586   7.269   5.896   2.857  0.2315  0.0246  0.0246
67493W        W10587   5.359   4.132  31.344 -0.0591 -0.0529  0.4066
67494W        W10588   6.097   6.215  31.102 -0.1321  0.0347 -0.1873
67495W        W10589   2.315   5.705   3.866 -0.0191 -0.0232 -0.1108
67496W        W10590   2.951   6.625   2.353  0.0465  0.1266  0.3948
67497W        W10591   4.180   5.992  31.089 -0.0846  0.2271  0.3385
67498W        W10592   8.197   7.083   1.539  0.0094  0.2860  0.2420
67499W        W10593   5.477   6.045  31.220 -0.0306  0.0353  0.1566
67500W        W10594   5.757   8.278   1.878 -0.0106  0.1161 -0.1234
67501W        W10595   4.817   3.159  31.705 -0.0078 -0.1183 -0.2696
67502W        W10596   3.528   6.608   0.296 -0.0857 -0.0220  0.2266
67503W        W10597   5.003   7.485  31.475 -0.0731  0.3536 -0.1022
67504W        W10598   6.704   6.775  30.891 -0.1390 -0.0561 -0.1270
67505W        W10599   5.231   7.377   0.607 -0.1043 -0.5024  0.2194
67506W        W10600   5.898   5.625   3.757  0.0346 -0.2162  0.0223
67507W        W10601   6.819   5.055   0.293  0.0493  0.1256  0.1548
67508W        W10602   7.047   5.308   1.787 -0.4775  0.1867 -0.2132
67509W        W10603   6.801   4.788   1.975  0.1474  0.0882 -0.3576
67510W        W10604   6.782   6.568   1.911  0.3121 -0.0236  0.0657
67511W        W10605   4.775   4.794   2.975 -0.0508 -0.1325 -0.1252
67512W        W10606   4.864   3.181   1.116  0.1474  0.2186  0.1199
67513W        W10607   3.653   6.313   3.124  0.2457  0.0721  0.2217
67514W        W10608   7.384   2.815   3.789 -0.0273 -0.4345  0.1163
67515W        W10609   3.220   6.969   3.322 -0.2478 -0.2442 -0.0503
67516W        W10610   6.667   7.360  30.640 -0.2626  0.0172  0.1455
67517W        W10611   5.142   4.870   0.852 -0.0419  0.2792  0.0274
67518W        W10612   5.537   3.998   3.856 -0.2136 -0.1090 -0.0286
67519W        W10613   7.327   2.494   2.040 -0.1983  0.0528  0.0302
67520W        W10614   6.055   6.233   0.749  0.2931 -0.1571 -0.1317
67521W        W10615   5.837   5.462   1.681 -0.0579 -0.0310 -0.0472
67522W        W10616   5.611   6.655   1.243 -0.2684 -0.2081 -0.0591
67523W        W10617   5.819   6.002   1.667 -0.0357  0.2593 -0.4599
67524W        W10618   4.768   7.093   2.758 -0.1187  0.3247  0.0189
67525W        W10619   3.907   4.359   1.403 -0.2911 -0.0647 -0.2183
67526W        W10620   7.962   5.262   0.879 -0.0339  0.0324 -0.0761
67527W        W10621   4.848   3.856   1.454 -0.0043 -0.2181  0.2056
67528W        W10622   7.500   3.111   2.638  0.0624 -0.1545 -0.3044
67529W        W10623   4.550   5.047   0.830  0.3369 -0.1138 -0.0050
67530W        W10624   6.439   3.190   1.106  0.1786  0.0050 -0.0500
67531W        W10625   5.917   4.966   1.929 -0.0742  0.3834 -0.1226
67532W        W10626   4.861   5.570   2.110 -0.0132 -0.3326 -0.0541
67533W        W10627   4.951   4.461   0.149  0.2977 -0.0809  0.3023
67534W        W10628   6.952   4.306   3.581  0.3379 -0.0053  0.1011
67535W        W10629   6.654   4.527   1.168  0.1098  0.1433  0.3220
67536W        W10630   6.240   6.952   2.735 -0.1616  0.1355 -0.0505
67537W        W10631   3.000   4.426   1.687 -0.2585 -0.2976 -0.2898
67538W        W10632   5.757   3.845   1.612 -0.1714 -0.0266 -0.0895
67539W        W10633   5.126   6.734   2.912  0.0317 -0.0106  0.1369
67540W        W10634   4.960   3.846   2.676  0.0162 -0.0461  0.2603
67541W        W10635   6.435   6.338   2.333 -0.0154  0.1334  0.3282
67542W        W10636   3.228   3.715   2.215 -0.0293 -0.1522  0.1933
67543W        W10637   7.747   5.851  31.432  0.0635  0.0606  0.2355
67544W        W10638   7.148   5.125   2.257 -0.3226  0.0412  0.2188
67545W        W10639   5.756   7.698  30.746  0.1719  0.1081 -0.1787
67546W        W10640   7.400   5.231   3.053 -0.1984  0.0181  0.0434
67547W        W10641   5.885   6.313   0.002 -0.4186 -0.0210 -0.3413
67548W        W10642   3.609   5.948   1.879 -0.1452  0.0678  0.0564
67549W        W10643   6.639   7.156   0.390  0.0435  0.1738  0.0468
67550W        W10644   5.673   6.872   2.776  0.0744  0.2314 -0.0080
67551W        W10645   4.427   4.888   1.421 -0.0708 -0.3099  0.0242
67552W        W10646   5.368   4.301   1.636  0.1106 -0.2544  0.1764
67553W        W10647   2.976   6.895   1.495 -0.0481  0.2406 -0.1451
67554W        W10648   7.928   2.843   2.485 -0.0461 -0.3329  0.0643
67555W        W10649   7.993   2.858   2.974  0.0682 -0.3167 -0.2418
67556W        W10650   5.900   6.621  31.504  0.2416 -0.1549  0.5369
67557W        W10651   7.074   3.132   3.408 -0.0140 -0.1005 -0.0293
67558W        W10652   6.045   6.159   2.059 -0.0531 -0.1100  0.0960
67559W        W10653   4.528   5.248   5.485 -0.0517  0.0177  0.0272
67560W        W10654   4.189   5.275   1.076  0.0261  0.0177  0.1279
67561W        W10655   3.455   6.252   2.588  0.0764 -0.3341 -0.0221
67562W        W10656   5.510   5.184   2.095 -0.1135 -0.2328 -0.0619
67563W        W10657   6.612   7.879  31.648 -0.0153  0.0733 -0.1498
67564W        W10658   6.519   5.595   3.240 -0.1848  0.4131 -0.0557
67565W        W10659   6.144   5.578   1.271  0.3069  0.0597 -0.3186
67566W        W10660   7.238   7.344   0.261  0.0157 -0.1553 -0.0879
67567W        W10661   4.571   3.996   2.342 -0.3291  0.0503 -0.0347
67568W        W10662   7.130   4.319   0.393 -0.2275 -0.1436  0.1244
67569W        W10663   5.979   4.685   0.946  0.2596 -0.0522  0.0557
67570W        W10664   4.186   6.066   3.163 -0.0806 -0.1358  0.2810
67571W        W10665   3.922   4.437  31.130  0.1231 -0.1348  0.0584
67572W        W10666   4.584   5.235   0.341 -0.0011  0.2076  0.1115
67573W        W10667   3.490   7.070   0.853  0.0785 -0.0461  0.0303
67574W        W10668   4.814   3.445   3.115  0.1224  0.0305  0.2615
67575W        W10669   3.654   6.027   3.557 -0.3423 -0.3291 -0.1062
67576W        W10670   4.164   7.109   1.953 -0.0616  0.0947  0.2462
67577W        W10671   3.190   4.997   1.383 -0.1188  0.4311  0.3204
67578W        W10672   7.034   6.499  30.622 -0.1228 -0.1583 -0.1526
67579W        W10673   4.517   3.931   1.005  0.0899  0.2508 -0.0865
67580W        W10674   2.585   3.304   1.009  0.3471  0.0546 -0.0976
67581W        W10675   6.325   6.583  31.877 -0.0261  0.2374 -0.1091
67582W        W10676   6.251   7.083   1.180  0.0432 -0.1756  0.0360
67583W        W10677   5.282   3.664   0.574  0.1688 -0.1911 -0.2441
67584W        W10678   6.765   5.102   4.122  0.0121 -0.1200 -0.0694
67585W        W10679   4.768   5.932  31.339 -0.2577 -0.0704 -0.1170
67586W        W10680   6.585   4.323   2.993  0.1949 -0.2233  0.0783
67587W        W10681   4.072   4.068   2.549 -0.0019 -0.3041  0.0848
67588W        W10682   3.935   3.216   0.928 -0.2223 -0.0117 -0.0207
67589W        W10683   6.422   3.856   2.942 -0.0929  0.0498  0.2171
67590W        W10684   4.342   5.597   0.733 -0.1800  0.0028 -0.2218
67591W        W10685   5.873   6.802  30.346 -0.2357 -0.2010  0.0926
67592W        W10686   5.475   4.174   2.102 -0.4126  0.1184 -0.2571
67593W        W10687   5.522   6.685   3.292  0.2016 -0.1113 -0.1539
67594W        W10688   4.501   3.371   2.336 -0.2655 -0.1595 -0.0883
67595W        W10689   5.055   6.046   1.891  0.1440  0.2223 -0.0007
67596W        W10690   5.532   5.931   3.585 -0.1109 -0.0833 -0.1349
67597W        W10691   7.761   5.709   1.764 -0.2195 -0.1732  0.0929
67598W        W10692   6.825   3.955   2.070 -0.0977  0.2148 -0.3300
67599W        W10693   3.500   6.427   2.057 -0.0035 -0.1477  0.1920
67600W        W10694   4.880   3.258   2.621  0.2551  0.1050 -0.2764
67601W        W10695   3.242   5.910   4.478  0.0663  0.0012  0.0842
67602W        W10696   5.931   6.502   2.426  0.0850  0.1201 -0.2145
67603W        W10697   5.256   2.912   0.856 -0.1638  0.2449 -0.1760
67604W        W10698   5.090   3.912   2.111  0.1887 -0.0076  0.2087
67605W        W10699   6.774   6.243  31.593  0.2512  0.2962  0.2650
67606W        W10700   4.552   5.945   1.911 -0.1421 -0.1872 -0.2471
67607W        W10701   5.063   4.239   1.188  0.4167  0.0775  0.1307
67608W        W10702   4.498   4.974   2.362 -0.1071 -0.1419 -0.3415
67609W        W10703   6.052   6.870  31.099  0.0666  0.2035 -0.2553
67610W        W10704   6.222   5.134   4.045 -0.2451 -0.0193 -0.1427
67611W        W10705   4.273   5.858   1.200 -0.3800  0.4168  0.0638
67612W        W10706   7.764   6.152   1.930  0.0211  0.0106  0.0749
67613W        W10707   5.493   5.749   3.079 -0.1816  0.1422  0.4792
67614W        W10708   7.667   8.022   3.348 -0.0195 -0.1735 -0.0349
67615W        W10709   5.509   6.235   2.000 -0.3279  0.0104 -0.0685
67616W        W10710   6.778   6.052   2.531  0.1102  0.2224  0.0265
67617W        W10711   3.636   4.370   2.771  0.1261 -0.0342 -0.1480
67618W        W10712   6.795   5.757   1.898  0.1832 -0.0685  0.1205
67619W        W10713   4.690   6.176   2.845  0.1373 -0.1660  0.0588
67620W        W10714   7.364   2.176   2.533 -0.0719  0.0249  0.1517
67621W        W10715   5.329   3.534   2.906  0.0045  0.2289 -0.0193
67622W        W10716   6.364   3.249   0.013  0.1688 -0.1149  0.1180
67623W        W10717   5.400   5.911   2.351 -0.0068 -0.4032 -0.0684
67624W        W10718   6.087   5.300   2.212  0.0950  0.0116 -0.1338
67625W        W10719   4.738   5.940   5.898  0.0990 -0.1013 -0.3082
67626W        W10720   3.884   4.822   3.710  0.0944 -0.1054 -0.2904
67627W        W10721   6.900   3.005   3.946 -0.1526 -0.2325  0.0127
67628W        W10722   6.353   5.152   2.931 -0.0341  0.0312 -0.1502
67629W        W10723   5.426   4.106   4.610 -0.1354 -0.1484 -0.1514
67630W        W10724   8.148   6.286   5.339  0.0168 -0.1238  0.1248
67631W        W10725   3.970   3.530   5.459  0.1259  0.0876 -0.0215
67632W        W10726   6.145   6.251   3.862  0.2315  0.0483 -0.0799
67633W        W10727   7.468   7.310   4.915 -0.1871 -0.0715  0.0767
67634W        W10728   5.784   6.083   4.157  0.0004  0.2333 -0.0949
67635W        W10729   4.049   3.544   6.930 -0.1495 -0.2047 -0.1786
67636W        W10730   5.589   5.071   5.514  0.1851  0.2200  0.0529
67637W        W10731   5.494   2.825   3.898  0.0401  0.1335 -0.0994
67638W        W10732   4.838   3.590   4.281  0.0680  0.1110 -0.0526
67639W        W10733   6.754   3.651   6.506  0.2078 -0.1821 -0.1399
67640W        W10734   2.788   4.916   4.475  0.3548 -0.1057 -0.0961
67641W        W10735   5.347   3.852   5.675  0.0474  0.1357  0.1671
67642W        W10736   4.368   4.436   4.072  0.0595  0.0591 -0.1126
67643W        W10737   7.171   6.807   4.423 -0.0794 -0.0113  0.2507
67644W        W10738   4.405   3.227   6.789 -0.1982  0.0622 -0.2258
67645W        W10739   7.431   4.974   6.316  0.0880  0.1144  0.2713
67646W        W10740   5.586   4.698   3.828  0.1906 -0.1479 -0.2573
67647W        W10741   3.031   4.398   3.673  0.1583 -0.1117  0.0747
67648W        W10742   3.715   5.382   5.030 -0.0404  0.2140 -0.0873
67649W        W10743   4.221   4.376   5.761 -0.0217  0.2313 -0.4345
67650W        W10744   6.460   3.168   5.501  0.2116 -0.4002  0.0227
67651W        W10745   6.036   4.652   5.493 -0.0347 -0.2662  0.0166
67652W        W10746   5.695   6.931   5.421 -0.1337 -0.1022 -0.0369
67653W        W10747   6.157   6.163   5.149  0.0209  0.0834 -0.0046
67654W        W10748   6.851   3.752   6.977  0.0263  0.1644 -0.1585
67655W        W10749   5.077   5.366   4.268  0.1027 -0.2853 -0.3469
67656W        W10750   3.804   5.851   4.997 -0.2163  0.0598  0.0910
67657W        W10751   6.281   3.582   6.404  0.4215 -0.1455  0.0975
67658W        W10752   8.899   5.476   4.411  0.4706 -0.3118  0.2044
67659W        W10753   7.156   5.055   5.374 -0.2904 -0.5423  0.0539
67660W        W10754   5.458   5.908   6.437 -0.1721  0.0651 -0.1644
67661W        W10755   5.129   6.237   3.131  0.0517  0.0493  0.1378
67662W        W10756   4.960   5.239   7.411  0.0114 -0.1024  0.1687
67663W        W10757   4.233   5.677   5.474 -0.1049  0.1719 -0.0881
67664W        W10758   5.610   5.063   4.427  0.2176  0.0990  0.1287
67665W        W10759   6.563   5.458   4.534  0.1303 -0.1041 -0.1416
67666W        W10760   5.061   5.682   2.812  0.1799  0.0253 -0.2042
67667W        W10761   6.003   4.654   4.123 -0.0602  0.2928  0.2484
67668W        W10762   4.784   5.276   5.881  0.1165  0.5709 -0.1828
67669W        W10763   4.592   5.830   4.690 -0.0357 -0.0098  0.3517
67670W        W10764   6.906   2.934   6.281  0.1371 -0.0305 -0.0186
67671W        W10765   4.590   5.720   4.227  0.2176  0.1658  0.0314
67672W        W10766   6.718   3.563   3.556  0.2006  0.0361 -0.0026
67673W        W10767   5.365   3.376   3.842 -0.0470 -0.3553 -0.0845
67674W        W10768   7.370   4.490   4.840 -0.0680  0.0794  0.0686
67675W        W10769   5.501   2.334   5.087  0.3310  0.2970  0.0771
67676W        W10770   5.432   5.531   5.238  0.0689 -0.0172  0.2098
67677W        W10771   4.136   4.120   6.399 -0.1992  0.2369  0.0859
67678W        W10772   7.294   4.845   5.873  0.1660  0.1471 -0.2418
67679W        W10773   5.114   5.042   4.668 -0.2905 -0.0711 -0.4127
67680W        W10774   7.863   4.693   6.342  0.0612 -0.1671  0.1726
67681W        W10775   4.789   5.491   5.047 -0.3561  0.1789  0.3021
67682W        W10776   3.290   5.015   4.493  0.2963  0.0968  0.2171
67683W        W10777   7.592   5.698   3.139 -0.3510  0.0811  0.1347
67684W        W10778   7.511   6.201   4.757  0.0261  0.3451 -0.1284
67685W        W10779   4.639   6.145   3.363  0.2198 -0.0905 -0.1193
67686W        W10780   3.358   4.160   4.034 -0.0642  0.1491 -0.1498
67687W        W10781   3.145   4.740   6.835  0.1868  0.0735 -0.3211
67688W        W10782   3.738   4.394   5.894 -0.2876  0.1477  0.0765
67689W        W10783   4.235   3.910   3.111 -0.0164 -0.1978 -0.2973
67690W        W10784   6.774   5.642   6.268  0.3727 -0.0444 -0.0346
67691W        W10785   3.149   5.297   8.248  0.0116 -0.0244  0.0104
67692W        W10786   8.650   2.946   4.417 -0.3482  0.2321 -0.2506
67693W        W10787   5.060   5.511   5.603 -0.0444 -0.2244  0.1304
67694W        W10788   7.627   5.608   5.419  0.0740  0.1368  0.0866
67695W        W10789   6.723   5.679   4.084  0.0916  0.3812  0.2372
67696W        W10790   6.268   2.855   5.873  0.1364 -0.0985  0.2169
67697W        W10791   7.793   3.477   6.059 -0.3219 -0.1638 -0.2709
67698W        W10792   3.938   5.716   4.042  0.0026  0.0646 -0.1829
67699W        W10793   4.861   4.488   4.046  0.1866  0.1846  0.0560
67700W        W10794   7.448   5.463   6.349  0.1492  0.2743  0.4643
67701W        W10795   6.525   4.519   4.950  0.1439 -0.2395  0.2701
67702W        W10796   5.301   6.784   4.744 -0.0803 -0.0408 -0.0614
67703W        W10797   6.624   3.316   6.891  0.3024 -0.3257 -0.4199
67704W        W10798   6.171   6.507   6.036  0.2971  0.1070  0.0325
67705W        W10799   4.041   6.155   5.470  0.0555  0.0716 -0.0692
67706W        W10800   3.720   4.686   5.375  0.0526 -0.0510 -0.1770
67707W        W10801   5.036   5.774   3.915  0.0818  0.1947 -0.4929
67708W        W10802   3.521   3.932   5.182 -0.1581  0.0475 -0.2094
67709W        W10803   4.446   5.154   6.483  0.0914 -0.0708  0.1307
67710W        W10804   7.201   2.935   4.398  0.0100 -0.0241 -0.0769
67711W        W10805   3.291   3.204   6.441  0.0359  0.0903 -0.2566
67712W        W10806   7.809   2.799   6.090 -0.1832  0.1904  0.1385
67713W        W10807   5.463   5.641   4.154 -0.1178 -0.0359 -0.2487
67714W        W10808   7.952   6.472   4.946  0.6151 -0.3636 -0.4062
67715W        W10809   6.489   4.507   3.828 -0.1232 -0.0223 -0.2667
67716W        W10810   6.736   5.865   3.588 -0.0054  0.1469 -0.0333
67717W        W10811   3.106   4.570   7.331  0.4455 -0.3112 -0.0319
67718W        W10812   4.182   4.384   4.565  0.1170  0.1589 -0.0565
67719W        W10813   3.543   3.323   7.552  0.4342 -0.0763 -0.0560
67720W        W10814   4.379   4.108   5.294 -0.2892  0.0989 -0.2526
67721W        W10815   7.607   3.720   7.039  0.0732  0.1675 -0.3745
67722W        W10816   3.851   4.996   2.778 -0.4401  0.0761  0.0834
67723W        W10817   7.822   4.286   5.066  0.1094 -0.0395  0.0509
67724W        W10818   5.905   2.753   5.556 -0.2922 -0.1684 -0.1020
67725W        W10819   2.102   5.996   3.459  0.0706 -0.2946 -0.0879
67726W        W10820   7.858   2.634   7.288 -0.0858 -0.3682 -0.0666
67727W        W10821   6.358   7.449   2.769 -0.6006  0.1604  0.0621
67728W        W10822   6.307   5.894   4.326  0.0231 -0.0656  0.0364
67729W        W10823   8.519   5.471   4.018 -0.0160 -0.2006  0.0924
67730W        W10824   3.348   2.951   5.998  0.0847 -0.1439  0.1694
67731W        W10825   4.957   4.099   4.387  0.1685  0.1029 -0.2663
67732W        W10826   4.100   7.356   5.857 -0.0338 -0.2966 -0.2959
67733W        W10827   6.033   6.285   4.622  0.0602  0.1626 -0.0601
67734W        W10828   5.286   4.634   3.241  0.2501 -0.1663  0.1629
67735W        W10829   9.043   5.455   5.402  0.2572  0.1598 -0.2865
67736W        W10830   4.967   4.960   3.419 -0.1950 -0.1567  0.5231
67737W        W10831   4.258   4.610   5.289  0.3563 -0.2747  0.1427
67738W        W10832   6.516   4.497   7.899  0.2763  0.0567  0.1717
67739W        W10833   6.293   4.973   6.979 -0.0333 -0.1032  0.0456
67740W        W10834   6.588   4.340   5.860 -0.0058 -0.1155  0.2416
67741W        W10835   4.340   3.297   3.572 -0.1518 -0.0782 -0.1468
67742W        W10836   7.245   5.938   5.212  0.1617  0.0927 -0.2263
67743W        W10837   3.041   6.219   3.899 -0.0447  0.1172 -0.1408
67744W        W10838   3.516   4.697   4.126 -0.0131 -0.0696 -0.0459
67745W        W10839   5.768   5.160   3.846 -0.3243  0.2022  0.0791
67746W        W10840   6.901   3.768   4.738 -0.1265  0.4578  0.4795
67747W        W10841   5.358   4.938   6.554  0.2632  0.1877  0.0678
67748W        W10842   6.049   2.582   6.731  0.3332 -0.2378 -0.2675
67749W        W10843   4.645   4.558   4.473  0.0663  0.2056  0.1994
67750W        W10844   5.176   5.138   5.270  0.3882 -0.2243 -0.1637
67751W        W10845   6.354   3.442   4.829 -0.0695 -0.2178  0.1463
67752W        W10846   5.750   3.906   3.417  0.1709 -0.1858 -0.1474
67753W        W10847   7.185   4.513   5.508 -0.1731  0.1985 -0.0901
67754W        W10848   6.873   5.256   3.114 -0.1509  0.0601  0.0318
67755W        W10849   7.491   3.461   4.534 -0.3539 -0.1019 -0.2333
67756W        W10850   5.974   2.689   3.678  0.3881  0.2080 -0.0505
67757W        W10851   3.638   5.549   7.417  0.0233  0.1773  0.2144
67758W        W10852   7.937   5.385   4.912 -0.0803  0.1850 -0.1848
67759W        W10853   6.943   5.856   4.748  0.0710 -0.1374  0.0701
67760W        W10854   6.244   4.496   2.684  0.2487  0.0850 -0.1624
67761W        W10855   6.939   4.897   2.757  0.2533  0.1904  0.0872
67762W        W10856   4.049   5.142   5.302  0.0495  0.1382  0.2224
67763W        W10857   6.477   5.592   5.484  0.1949  0.1539 -0.3249
67764W        W10858   6.978   5.476   5.105  0.3782 -0.3574  0.0560
67765W        W10859   6.007   3.964   4.919 -0.1034 -0.1564 -0.0268
67766W        W10860   5.916   4.216   2.386 -0.1580 -0.1094  0.0832
67767W        W10861   6.279   3.567   5.793  0.2531 -0.0804  0.2290
67768W        W10862   4.438   7.122   4.653  0.1872 -0.2112 -0.1676
67769W        W10863   7.175   3.445   7.236 -0.1303 -0.1389  0.3705
67770W        W10864   5.335   3.910   5.120  0.2298  0.1944  0.3733
67771W        W10865   5.488   3.492   6.036  0.2585 -0.0212 -0.1339
67772W        W10866   7.614   4.343   5.827 -0.0841  0.1931 -0.0929
67773W        W10867   6.879   4.219   4.193  0.0454  0.0163 -0.0670
67774W        W10868   5.888   5.782   5.430  0.1514  0.2124 -0.2287
67775W        W10869   5.170   4.704   2.050 -0.4487  0.0058  0.2095
67776W        W10870   4.536   3.594   7.136  0.0429 -0.2096 -0.0573
67777W        W10871   3.677   3.354   6.019  0.2224  0.1832  0.1419
67778W        W10872   4.041   5.940   7.607 -0.1508  0.0749 -0.3945
67779W        W10873   6.039   5.344   5.334  0.2082 -0.0592 -0.0505
67780W        W10874   6.434   5.208   5.073 -0.0549 -0.1151  0.3340
67781W        W10875   6.002   3.938   8.090 -0.1234 -0.0321 -0.2254
67782W        W10876   5.680   3.309   4.245  0.0234 -0.4401 -0.2109
67783W        W10877   4.125   5.750   4.547 -0.0050  0.0103  0.1538
67784W        W10878   3.909   5.208   4.591  0.1570  0.0481  0.1279
67785W        W10879   5.291   3.254   4.579 -0.2191 -0.0686 -0.2519
67786W        W10880   5.636   4.960   5.051  0.0236  0.2069  0.2523
67787W        W10881   5.963   6.699   3.765 -0.0985  0.2026  0.1477
67788W        W10882   6.700   5.085   6.652  0.2055 -0.0890  0.1053
67789W        W10883   5.220   6.233   4.111 -0.1022 -0.1470  0.0640
67790W        W10884   7.381   3.891   4.963 -0.1784  0.2702  0.0656
67791W        W10885   4.341   6.479   5.265  0.0624 -0.1578  0.2560
67792W        W10886   5.848   2.863   4.220 -0.2615  0.1143 -0.1370
67793W        W10887   3.156   4.512   4.481  0.1413  0.1231 -0.2472
67794W        W10888   7.515   3.132   6.442 -0.1851 -0.2439 -0.1430
67795W        W10889   7.223   6.109   3.379 -0.0582 -0.2715  0.1445
67796W        W10890   3.907   4.009   5.525 -0.1322  0.1099 -0.1988
67797W        W10891   5.897   3.257   5.573 -0.2292 -0.0080  0.0521
67798W        W10892   3.759   5.671   5.479  0.1818 -0.2370 -0.0462
67799W        W10893   6.435   3.945   6.794  0.1535  0.0183 -0.0199
67800W        W10894   7.251   3.616   5.444 -0.0763 -0.1355 -0.2302
67801W        W10895   6.553   5.388   6.990  0.2903  0.0307  0.1797
67802W        W10896   6.999   4.339   7.053  0.2049 -0.2191 -0.0152
67803W        W10897   4.442   4.865   3.635 -0.4028 -0.0125 -0.2583
67804W        W10898   7.254   5.042   4.749  0.0527 -0.0046  0.1738
67805W        W10899   4.796   4.751   6.332 -0.1756 -0.0604 -0.0166
67806W        W10900   3.255   7.038   5.456  0.0745 -0.0851  0.2240
67807W        W10901   4.280   6.505   5.970  0.0955  0.0229  0.0247
67808W        W10902   4.809   5.273   2.871 -0.3107 -0.2441 -0.1042
67809W        W10903   3.093   6.719   3.868  0.2188 -0.2901 -0.1640
67810W        W10904   4.942   3.208   7.002 -0.0770  0.0032 -0.0413
67811W        W10905   7.463   4.389   6.283 -0.1215 -0.0777  0.1914
67812W        W10906   5.022   3.992   6.095  0.1394 -0.1385  0.0817
67813W        W10907   4.541   3.951   4.147 -0.1226 -0.1933 -0.1601
67814W        W10908   5.770   4.586   6.403  0.1753 -0.0459  0.2174
67815W        W10909   6.331   4.761   5.968 -0.0149  0.0449  0.4069
67816W        W10910   5.973   3.868   6.126 -0.3433  0.0752 -0.4156
67817W        W10911   3.675   5.465   6.878  0.0750 -0.2572  0.0723
67818W        W10912   5.512   3.072   6.287 -0.0804 -0.1746 -0.4043
67819W        W10913   7.596   6.350   3.721  0.1321 -0.0922  0.0154
67820W        W10914   7.298   4.020   6.763 -0.1514 -0.0253 -0.1775
67821W        W10915   5.137   4.567   4.844 -0.1755 -0.1402  0.1313
67822W        W10916   3.664   5.201   6.431  0.3061  0.3273 -0.3726
67823W        W10917   4.347   6.971   5.172 -0.2614 -0.0486  0.3433
67824W        W10918   5.799   3.694   5.704  0.1678  0.1510  0.2503
67825W        W10919   6.155   5.147   4.616  0.1274  0.3385  0.2176
67826W        W10920   3.539   4.941   5.970  0.1433 -0.0999  0.1339
67827W        W10921   3.998   5.328   5.810 -0.1407  0.3910 -0.0330
67828W        W10922   6.484   4.073   3.442 -0.2000  0.1413  0.1219
67829W        W10923   6.432   5.452   3.711 -0.0262  0.0124  0.3349
67830W        W10924   6.358   5.424   6.392 -0.1992  0.2232 -0.0292
67831W        W10925   8.166   4.227   7.643 -0.0541  0.1079 -0.1861
67832W        W10926   6.739   4.970   4.593 -0.1932 -0.3118  0.1770
67833W        W10927   6.942   2.822   9.021 -0.1203 -0.1958  0.1426
67834W        W10928   5.579   4.224   5.430 -0.3998 -0.1339  0.0486
67835W        W10929   7.146   5.470   4.409  0.0731 -0.2071  0.1541
67836W        W10930   2.526   3.951   6.149 -0.1534  0.0774  0.0625
67837W        W10931   6.879   6.194   6.870 -0.2759  0.0492  0.4968
67838W        W10932   5.001   4.813   5.821  0.0274  0.1607 -0.1923
67839W        W10933   6.453   3.988   3.990  0.4527 -0.1885  0.0380
67840W        W10934   4.827   2.614   4.241 -0.1284 -0.2227  0.1864
67841W        W10935   4.742   3.977   5.647 -0.1210 -0.4616 -0.1618
67842W        W10936   6.539   3.917   6.095 -0.2250 -0.0793  0.0948
67843W        W10937   5.247   4.821   4.166  0.0983 -0.0311 -0.2396
67844W        W10938   7.265   3.866   4.377  0.0206  0.2096  0.0655
67845W        W10939   5.415   5.450   4.733 -0.2853 -0.0235  0.1190
67846W        W10940   7.049   4.407   6.003  0.2302 -0.2320  0.1184
67847W        W10941   7.564   5.819   3.628 -0.0229  0.0841  0.2976
67848W        W10942   4.634   4.965   4.131 -0.0071 -0.2648  0.0826
67849W        W10943   4.106   3.586   6.447 -0.3050  0.0148 -0.2090
67850W        W10944   6.560   6.533   5.767  0.1870 -0.0006  0.0204
67851W        W10945   7.009   4.012   5.647 -0.4267  0.2132 -0.1421
67852W        W10946   6.638   4.055   7.309  0.0559 -0.3192  0.4013
67853W        W10947   6.711   3.694   7.659  0.0016  0.4293  0.0645
67854W        W10948   5.381   5.553   7.945 -0.0522 -0.1429 -0.1404
67855W        W10949   4.093   2.677   6.640 -0.1217 -0.1154  0.1866
67856W        W10950   7.555   6.753   4.815  0.2042  0.2146 -0.0312
67857W        W10951   6.516   4.167   4.537 -0.3536  0.1206 -0.2962
67858W        W10952   8.092   3.864   6.743  0.1868 -0.0529 -0.2524
67859W        W10953   6.455   4.688   4.346 -0.1060  0.2008 -0.0180
67860W        W10954   6.528   2.332   3.067  0.1005  0.2920 -0.3644
67861W        W10955   4.776   4.892   5.053 -0.1284 -0.4204 -0.1548
67862W        W10956   7.836   5.143   6.560  0.0158  0.2054  0.3127
67863W        W10957   5.179   3.063   3.050  0.1421 -0.3302 -0.0061
67864W        W10958   7.209   2.732   5.879  0.3046 -0.1398  0.1412
67865W        W10959   6.709   6.708   4.776 -0.3912 -0.2299  0.1904
67866W        W10960   6.013   5.513   5.878 -0.0414  0.0705  0.4141
67867W        W10961   6.055   4.280   5.806 -0.1255 -0.0405 -0.1684
67868W        W10962   3.648   4.586   4.583 -0.1698 -0.0231 -0.2549
67869W        W10963   5.402   5.416   6.410  0.2753  0.1599  0.0803
67870W        W10964   3.716   5.217   4.100  0.1858  0.0140 -0.2530
67871W        W10965   5.596   3.668   4.638  0.2352 -0.2465 -0.0114
67872W        W10966   5.823   5.015   5.980 -0.2086  0.2543  0.2413
67873W        W10967   6.712   4.646   6.333 -0.0678  0.1110  0.0834
67874W        W10968   6.773   3.193   4.556 -0.1790  0.0404  0.0183
67875W        W10969   7.367   4.707   7.239 -0.1618 -0.0078 -0.0897
67876W        W10970   6.341   6.618   4.094  0.3318 -0.1076 -0.2981
67877W        W10971   5.718   3.602   5.228  0.1438  0.0057  0.1558
67878W        W10972   5.531   6.338   4.521  0.0887 -0.3361  0.0049
67879W        W10973   3.893   5.592   6.222 -0.0451 -0.0340  0.1484
67880W        W10974   4.820   6.546   6.008  0.2331  0.1124  0.2425
67881W        W10975   5.418   3.900   6.376  0.1435 -0.1378 -0.0194
67882W        W10976   6.689   4.379   5.395 -0.1997 -0.3831 -0.0642
67883W        W10977   5.524   4.640   5.749 -0.3338  0.0777 -0.4415
67884W        W10978   7.652   3.725   6.504 -0.0943 -0.1915 -0.0024
67885W        W10979   6.908   4.851   7.066 -0.2259  0.2592 -0.0330
67886W        W10980   3.321   5.175   7.287 -0.0737  0.0269  0.2670
67887W        W10981   6.042   6.637   6.540  0.2714  0.2632 -0.0415
67888W        W10982   7.662   5.349   4.439  0.1790  0.0178 -0.1141
67889W        W10983   5.623   5.857   4.568 -0.0608  0.0393 -0.1839
67890W        W10984   4.082   4.220   7.721 -0.1106  0.1550  0.2224
67891W        W10985   6.623   5.004   7.998  0.1637 -0.0038 -0.1162
67892W        W10986   6.439   5.279   5.923 -0.0103  0.0432  0.0839
67893W        W10987   5.458   2.465   3.506 -0.3005  0.1715  0.2155
67894W        W10988   6.097   5.281   3.341 -0.3042  0.1021 -0.1567
67895W        W10989   3.164   6.738   6.573  0.1716  0.1062 -0.1643
67896W        W10990   3.045   3.672   5.003  0.2570 -0.0126 -0.2449
67897W        W10991   4.787   6.196   4.999 -0.1218  0.3063 -0.1575
67898W        W10992   7.235   5.571   3.952  0.1995  0.1115  0.0304
67899W        W10993   7.813   6.049   4.039 -0.0161 -0.0630  0.3321
67900W        W10994   5.888   6.057   5.950  0.2378 -0.0540 -0.2713
67901W        W10995   5.337   4.343   4.165  0.2385 -0.2782 -0.1349
67902W        W10996   3.657   7.472   4.261  0.1123  0.2240  0.2286
67903W        W10997   2.547   6.805   3.723 -0.0139 -0.2450 -0.1428
67904W        W10998   5.982   5.762   3.083  0.1133  0.1966 -0.1003
67905W        W10999   4.001   6.678   3.934 -0.1372  0.0084 -0.1317
67906W        W11000   7.034   5.218   6.220 -0.1491 -0.1630  0.0795
67907W        W11001   6.634   3.704   4.343  0.0616  0.5113  0.0686
67908W        W11002   7.722   4.842   4.831 -0.0380  0.1075  0.0480
67909W        W11003   6.459   3.958   5.546 -0.1180 -0.4235 -0.0612
67910W        W11004   7.042   6.319   6.066  0.1052  0.2980  0.1282
67911W        W11005   5.140   4.320   5.742  0.4612 -0.1753  0.1226
67912W        W11006   6.094   4.818   3.593 -0.0308 -0.3622 -0.1007
67913W        W11007   4.771   4.278   6.496 -0.0752 -0.0633  0.1929
67914W        W11008   6.502   2.684   8.227 -0.3166 -0.0792 -0.0842
67915W        W11009   3.731   6.704   5.408  0.2097 -0.2863  0.1406
67916W        W11010   7.833   6.978   3.906 -0.0063 -0.2452  0.0470
67917W        W11011   4.235   5.367   4.254  0.0112  0.3718 -0.0043
67918W        W11012   6.522   4.857   5.489  0.1477 -0.0610 -0.0661
67919W        W11013   8.725   2.896   6.419  0.2464 -0.0750  0.0095
67920W        W11014   5.730   4.441   3.405  0.1066  0.1559 -0.1444
67921W        W11015   4.948   5.278   6.314  0.1256  0.1416 -0.0900
67922W        W11016   6.695   6.140   4.201  0.0928  0.1273 -0.1995
67923W        W11017   5.386   6.663   6.615  0.1411 -0.0357  0.0680
67924W        W11018   4.781   6.340   6.942  0.0534  0.0149  0.0328
67925W        W11019   4.317   2.593   4.106 -0.0385  0.5289  0.0103
67926W        W11020   8.670   3.326   6.201  0.0667 -0.2322 -0.1164
67927W        W11021   5.581   3.838   6.882 -0.0277  0.1713 -0.1403
67928W        W11022   7.515   4.060   5.400  0.1462  0.0383 -0.4010
67929W        W11023   4.879   4.121   5.096 -0.2125  0.0398  0.3943
67930W        W11024   7.450   2.646   6.559  0.0279  0.0412 -0.0579
67931W        W11025   4.601   6.206   6.314  0.1052 -0.1633 -0.0339
67932W        W11026   3.961   3.756   5.991 -0.0037  0.1989 -0.2100
67933W        W11027   6.257   3.273   4.376  0.2730 -0.1736 -0.0352
67934W        W11028   8.267   5.046   7.377  0.1527 -0.2979 -0.2040
67935W        W11029   5.667   4.663   2.318 -0.1001 -0.0798  0.0344
67936W        W11030   6.569   6.493   5.274  0.0575 -0.1463 -0.0744
67937W        W11031   5.091   2.931   5.569  0.0195 -0.0084 -0.0660
67938W        W11032   4.953   4.367   2.926  0.2680  0.1093  0.1370
67939W        W11033   3.075   4.898   4.041  0.2761  0.3829 -0.1402
67940W        W11034   4.535   3.866   6.243  0.1303  0.0260  0.1582
67941W        W11035   6.333   5.838   6.053  0.2122 -0.0886 -0.4130
67942W        W11036   3.187   4.047   4.713 -0.1624 -0.0128 -0.0589
67943W        W11037   6.476   4.604   3.351 -0.1764  0.1450 -0.3508
67944W        W11038   6.543   3.293   6.117  0.0769  0.2236  0.1773
67945W        W11039   5.749   6.526   5.021  0.0964  0.0377  0.1703
67946W        W11040   5.960   3.682   3.890  0.0437  0.1858  0.2171
67947W        W11041   6.987   5.447   5.634 -0.3373 -0.1618  0.2032
67948W        W11042   4.059   5.063   6.223  0.0698  0.0102  0.5139
67949W        W11043   5.325   5.145   5.959  0.2721 -0.1672  0.2011
67950W        W11044   9.887   5.007   5.106 -0.3751  0.0225  0.0200
67951W        W11045   6.601   3.053   4.996 -0.0242 -0.0391 -0.1157
67952W        W11046   4.700   5.294   4.563  0.2700  0.0249 -0.2685
67953W        W11047   2.368   5.350   5.318 -0.0410 -0.0418 -0.0688
67954W        W11048   7.810   3.461   5.563 -0.0586  0.0189  0.0190
67955W        W11049   8.176   3.739   6.238 -0.3131 -0.2172 -0.0882
67956W        W11050   5.716   6.153   2.915  0.2998 -0.5821 -0.0140
67957W        W11051   8.267   2.610   6.285 -0.0692 -0.0203 -0.0582
67958W        W11052   5.176   5.993   5.387 -0.0041  0.1145  0.5551
67959W        W11053   4.941   6.060   7.368  0.0377  0.1615  0.2670
67960W        W11054   3.013   5.293   4.808 -0.2066 -0.0726  0.0483
67961W        W11055   5.194   4.405   6.256  0.4841  0.3681 -0.0031
67962W        W11056   5.868   4.136   4.229  0.3489 -0.1748 -0.0199
67963W        W11057   4.498   6.200   4.411 -0.1430 -0.0927  0.1825
67964W        W11058   7.811   4.876   5.836  0.0999 -0.1321 -0.1290
67965W        W11059   5.577   4.594   4.514 -0.2524 -0.2203 -0.0446
67966W        W11060   7.382   5.920   4.363 -0.2385 -0.1142 -0.0616
67967W        W11061   5.724   4.435   5.003 -0.1152  0.0653  0.0836
67968W        W11062   7.474   3.157   5.894 -0.4298 -0.2143  0.3111
67969W        W11063   7.628   3.458   5.112  0.1068 -0.1910  0.3008
67970W        W11064   4.773   6.335   5.470 -0.1520 -0.0451  0.0954
67971W        W11065   3.861   3.633   3.380 -0.2594 -0.0282  0.2757
67972W        W11066   4.544   5.402   3.860 -0.1127  0.0025  0.4142
67973W        W11067   4.005   4.843   5.739  0.0604 -0.0503  0.1469
67974W        W11068   6.127   3.466   6.854  0.3095 -0.1926  0.0507
67975W        W11069   4.413   3.154   7.275 -0.0901 -0.0226  0.1165
67976W        W11070   3.010   4.253   5.260 -0.2489 -0.0802 -0.2480
67977W        W11071   4.319   5.065   4.883  0.0774 -0.0059  0.1314
67978W        W11072   6.241   5.914   3.524  0.3284 -0.0205 -0.0907
67979W        W11073   5.245   4.594   5.351 -0.0078  0.2205 -0.2150
67980W        W11074   3.673   4.008   4.659  0.2599 -0.1816 -0.0323
67981W        W11075   7.082   6.110   3.921 -0.1480 -0.0721  0.2343
67982W        W11076   6.742   5.934   5.795 -0.1938  0.2471 -0.0436
67983W        W11077   5.740   3.053   4.681 -0.3438 -0.0192  0.3664
67984W        W11078   7.782   5.998   6.653  0.0658 -0.2843  0.2196
67985W        W11079   2.093   5.299   4.009  0.1357  0.0699  0.0030
67986W        W11080   7.055   3.018   6.762 -0.2984  0.0623  0.1317
67987W        W11081   5.297   2.830   7.473  0.1458  0.1237  0.0401
67988W        W11082   4.516   3.699   2.783  0.3298 -0.0232  0.1500
67989W        W11083   6.314   4.300   6.312  0.1698 -0.2605 -0.1351
67990W        W11084   5.643   4.982   3.339  0.0583 -0.2146 -0.0921
67991W        W11085   6.578   6.926   3.158 -0.2096  0.0544  0.0718
67992W        W11086   4.583   5.676   6.482  0.1069  0.1449 -0.3122
67993W        W11087   4.828   6.737   6.464  0.1246 -0.1061 -0.1490
67994W        W11088   3.589   3.043   5.582  0.0525 -0.0701  0.0831
67995W        W11089   6.040   4.411   4.650 -0.2366 -0.2551  0.2082
67996W        W11090   4.237   6.151   4.905  0.1965  0.0456 -0.1849
67997W        W11091   7.886   5.554   3.974  0.0205  0.1907  0.0811
67998W        W11092   8.878   2.045   7.352  0.1260 -0.2606 -0.0546
67999W        W11093   6.057   4.694   3.103  0.1223 -0.0711  0.0616
68000W        W11094   5.057   3.527   6.217  0.2105 -0.0243 -0.1050
68001W        W11095   3.419   4.965   5.017 -0.1697  0.1829 -0.0814
68002W        W11096   5.983   5.602   4.863 -0.1805 -0.1268 -0.2065
68003W        W11097   4.995   3.135   4.116 -0.2131 -0.4827 -0.2407
68004W        W11098   6.911   3.095   5.797  0.0764  0.1562  0.1301
68005W        W11099   7.070   6.382   4.993  0.2193 -0.0532  0.2071
68006W        W11100   3.370   4.236   5.591  0.1741  0.0458 -0.0702
68007W        W11101   6.085   3.746   4.471 -0.1337 -0.1408  0.0659
68008W        W11102   5.751   2.710   7.154 -0.2577  0.3136 -0.0791
68009W        W11103   6.670   6.326   3.745 -0.1862 -0.1352  0.0276
68010W        W11104   6.815   4.883   5.926  0.0773 -0.0464  0.0361
68011W        W11105   5.330   3.712   4.265  0.1269  0.1888  0.0285
68012W        W11106   7.380   5.064   4.142  0.0148 -0.1191  0.0638
68013W        W11107   5.266   6.253   5.949 -0.1049 -0.1435 -0.0634
68014W        W11108   7.799   5.592   5.957 -0.2204 -0.2101  0.0130
68015W        W11109   5.620   6.289   5.549  0.3890 -0.3381  0.1950
68016W        W11110   6.103   4.812   5.020 -0.0307  0.2484  0.3171
68017W        W11111   3.489   3.408   5.243  0.2409 -0.0515 -0.0442
68018W        W11112   4.103   5.270   3.639 -0.1709 -0.0194 -0.1371
68019W        W11113   6.002   5.491   4.282 -0.2090  0.0512 -0.1780
68020W        W11114   5.554   4.169   5.999 -0.0156 -0.0145 -0.0535
68021W        W11115   4.429   4.840   5.982  0.1317 -0.0587 -0.1627
68022W        W11116   8.046   4.568   3.311  0.1445 -0.0762 -0.2957
68023W        W11117   6.131   6.190   6.384 -0.0445  0.2650 -0.1887
68024W        W11118   5.673   6.011   5.036  0.1184  0.2125 -0.2615
68025W        W11119   5.285   4.423   9.306  0.1384 -0.3008  0.2033
68026W        W11120   4.838   3.450   7.511  0.1041  0.0381 -0.1184
68027W        W11121   6.795   3.229   7.963  0.2493  0.1134  0.0781
68028W        W11122   7.439   4.175   8.146 -0.1282 -0.2267  0.0029
68029W        W11123   4.500   3.150   8.186  0.1101  0.0583  0.2658
68030W        W11124   6.723   5.992   8.049 -0.0189  0.0800 -0.0141
68031W        W11125   7.639   3.825   9.507 -0.0043  0.0138 -0.1072
68032W        W11126   7.253   5.954   9.184 -0.0561 -0.1897 -0.2043
68033W        W11127   7.090   5.125   7.628  0.2794 -0.0779  0.1705
68034W        W11128   5.692   6.262   8.583  0.0447  0.1389  0.2702
68035W        W11129   4.945   3.045   7.933 -0.2053 -0.0128 -0.0967
68036W        W11130   4.482   3.431   9.175 -0.2098  0.3294 -0.2040
68037W        W11131   5.717   2.685   8.838  0.0953  0.2200 -0.1752
68038W        W11132   3.441   3.737   9.135 -0.0394 -0.0695 -0.0306
68039W        W11133   5.482   6.083   8.145  0.1818 -0.0151 -0.4212
68040W        W11134   5.320   3.301   8.104 -0.0616 -0.0426 -0.0276
68041W        W11135   6.967   5.607   7.639  0.0216 -0.0894 -0.1861
68042W        W11136   5.777   7.602   8.497 -0.3073 -0.1050 -0.2846
68043W        W11137   5.775   6.681   8.173  0.0506 -0.0735  0.0273
68044W        W11138   4.036   4.459   6.868  0.1009  0.1089 -0.1579
68045W        W11139   3.858   4.509   8.795 -0.1018 -0.2469 -0.0739
68046W        W11140   5.559   5.318   8.837 -0.0334 -0.2241 -0.3233
68047W        W11141   6.510   3.663   8.275 -0.0104  0.2668  0.1634
68048W        W11142   6.212   4.190   9.046 -0.1643 -0.0167  0.0440
68049W        W11143   5.706   6.108   9.400 -0.0877 -0.1666 -0.3329
68050W        W11144   6.343   7.360   8.557  0.1646  0.3933  0.3361
68051W        W11145   4.716   5.833   8.986 -0.1970 -0.3369 -0.0013
68052W        W11146   5.091   5.489   8.992 -0.0444 -0.0366  0.1078
68053W        W11147   5.223   6.681   8.137  0.0443  0.0579  0.1982
68054W        W11148   7.883   5.356   8.433 -0.0817 -0.0596  0.2369
68055W        W11149   5.011   5.843   6.677  0.3056  0.2163  0.1078
68056W        W11150   5.745   5.467   9.361 -0.3727 -0.0389 -0.0676
68057W        W11151   5.666   4.378   7.330 -0.3972  0.0812 -0.3474
68058W        W11152   5.415   6.050   6.925 -0.0586 -0.0065  0.2903
68059W        W11153   5.469   4.451   8.110  0.0848  0.1259  0.1759
68060W        W11154   4.193   6.706   8.740 -0.1687 -0.1185 -0.1643
68061W        W11155   5.092   6.285   6.431 -0.2047  0.0031  0.1332
68062W        W11156   6.329   3.524   7.303 -0.1567 -0.2703 -0.0129
68063W        W11157   5.127   3.927   6.777  0.0649 -0.1443 -0.0044
68064W        W11158   6.501   4.039   7.965  0.3389  0.1002 -0.2269
68065W        W11159   5.282   2.293  10.550  0.3342  0.0629 -0.2422
68066W        W11160   4.719   6.581   8.746  0.6132  0.0728  0.1329
68067W        W11161   5.239   4.405   7.585  0.1612 -0.0120  0.1814
68068W        W11162   5.061   4.637   6.746  0.1174  0.2273 -0.2024
68069W        W11163   5.519   3.952   9.343 -0.1286 -0.1361 -0.2504
68070W        W11164   5.257   5.702   8.515 -0.0440 -0.0070 -0.1779
68071W        W11165   4.513   3.967   7.637  0.0528 -0.0934 -0.1756
68072W        W11166   7.237   5.786   6.064  0.0531 -0.0068 -0.0875
68073W        W11167   8.076   6.992   8.489 -0.0084 -0.1336 -0.2730
68074W        W11168   6.874   8.469   7.987  0.1089  0.1071  0.1222
68075W        W11169   5.603   3.746   8.649 -0.0499 -0.3182 -0.0717
68076W        W11170   5.527   2.664   6.644  0.0237 -0.1567  0.0581
68077W        W11171   6.372   3.500   9.861 -0.0109  0.0304 -0.3553
68078W        W11172   4.899   5.867   8.136 -0.0809  0.1047 -0.0553
68079W        W11173   9.082   4.056   9.914  0.2023 -0.0008 -0.1265
68080W        W11174   7.071   5.975   6.476  0.0700  0.1466 -0.0018
68081W        W11175   6.860   2.949   8.403 -0.3383  0.1136  0.3422
68082W        W11176   8.515   5.023   9.495  0.0454 -0.1373  0.0627
68083W        W11177   5.848   5.171   6.465 -0.0294 -0.3502  0.0552
68084W        W11178   6.189   6.096   7.666  0.1168  0.1166 -0.0217
68085W        W11179   7.046   7.626   8.804  0.2341  0.0350 -0.1205
68086W        W11180   6.550   4.543   6.855  0.3240  0.0776  0.0006
68087W        W11181   4.919   6.991   8.515  0.2885 -0.2360 -0.1126
68088W        W11182   4.979   5.669   7.618 -0.1389  0.0062 -0.3204
68089W        W11183   4.802   4.675   7.204 -0.1045  0.1935 -0.1542
68090W        W11184   4.928   5.163   6.799 -0.0371 -0.1058  0.0879
68091W        W11185   3.213   2.067   9.070 -0.2404 -0.1330 -0.1028
68092W        W11186   5.401   6.001   7.609  0.1398  0.0604 -0.3703
68093W        W11187   6.995   3.768   8.226  0.3380 -0.0254  0.0455
68094W        W11188   6.524   3.777   9.040 -0.2095 -0.0517 -0.1613
68095W        W11189   3.936   6.029   8.067 -0.2660 -0.2205  0.1760
68096W        W11190   8.189   6.689   8.046  0.0417  0.2608 -0.0197
68097W        W11191   7.534   5.196   7.306 -0.1500  0.0014 -0.0784
68098W        W11192   5.117   5.903   4.887 -0.3110 -0.0596 -0.0904
68099W        W11193   4.827   4.136   8.548  0.0974  0.1312  0.0319
68100W        W11194   5.006   4.708   7.914 -0.1528  0.4137  0.0226
68101W        W11195   4.272   3.857   9.330 -0.4985  0.3935  0.0474
68102W        W11196   4.355   4.012   6.828 -0.0226 -0.0721 -0.0226
68103W        W11197   7.300   3.772   7.834 -0.0536 -0.2802  0.1225
68104W        W11198   5.712   4.828   7.508  0.1836 -0.1919 -0.2748
68105W        W11199   4.856   6.550   7.441  0.1043 -0.2597  0.0383
68106W        W11200   6.289   6.805   8.127 -0.2751  0.0922 -0.1528
68107W        W11201   3.216   7.862   9.826 -0.0940 -0.2202 -0.0129
68108W        W11202   6.494   6.845   8.572  0.1278 -0.2378  0.1194
68109W        W11203   4.210   4.762   9.407  0.2163  0.1398 -0.0010
68110W        W11204   5.922   3.123   8.033 -0.0410 -0.0870  0.2593
68111W        W11205   5.552   5.807   8.993 -0.0739 -0.0775 -0.1547
68112W        W11206   5.047   6.275   7.951  0.1917 -0.2473  0.2290
68113W        W11207   4.633   4.559   9.213  0.0283 -0.0080  0.4223
68114W        W11208   7.039   6.421   9.172  0.0335  0.1075 -0.2636
68115W        W11209   5.792   3.522   7.237 -0.0425 -0.0055  0.1569
68116W        W11210   7.301   7.092   9.635 -0.0140 -0.0830  0.1359
68117W        W11211   5.888   4.819   8.233 -0.2185 -0.0717  0.2727
68118W        W11212   3.221   3.892   6.913 -0.1475  0.0781  0.0149
68119W        W11213   6.877   6.830   8.911  0.0883  0.0009 -0.3356
68120W        W11214   3.896   5.085   7.224  0.0576  0.1331  0.1993
68121W        W11215   5.208   3.613   7.189 -0.2771  0.2742  0.3080
68122W        W11216   6.038   5.800   9.005 -0.1717 -0.5116  0.1472
68123W        W11217   6.573   5.547   9.065 -0.1091 -0.0157 -0.0007
68124W        W11218   3.676   4.610   6.371  0.0126 -0.2474 -0.0896
68125W        W11219   5.571   2.108  10.171 -0.2674 -0.1181  0.0759
68126W        W11220   7.203   3.254   7.674  0.2586  0.1722  0.0599
68127W        W11221   5.418   5.365   7.333  0.0061  0.0199  0.3366
68128W        W11222   5.795   3.101   7.562 -0.1841  0.3261  0.0182
68129W        W11223   6.281   2.506   7.228 -0.1096  0.2034 -0.0559
68130W        W11224   7.328   5.977   6.917 -0.1739 -0.0160  0.0275
68131W        W11225   5.399   5.093   8.268 -0.0746  0.1742 -0.1707
68132W        W11226   5.291   3.309   7.565  0.2532 -0.1586  0.0511
68133W        W11227   7.390   6.568   7.536 -0.0972  0.0790 -0.4526
68134W        W11228   4.835   5.091   9.295 -0.3246 -0.1712  0.1467
68135W        W11229   6.578   5.920   8.626 -0.0178 -0.1263 -0.2426
68136W        W11230   4.432   4.291   8.136  0.0149  0.2336 -0.1620
68137W        W11231   7.490   5.664   7.431 -0.2680 -0.1259  0.0806
68138W        W11232   5.926   3.765   9.098  0.2991 -0.0358 -0.2605
68139W        W11233   3.547   7.088   6.572 -0.1013 -0.0358  0.1291
68140W        W11234   6.580   3.050   9.964 -0.1359 -0.0391  0.0908
68141W        W11235   7.148   3.691   8.695 -0.2401 -0.3504 -0.1105
68142W        W11236   6.870   4.678   7.519 -0.1011 -0.0229 -0.1501
68143W        W11237   6.234   4.327   7.513  0.1764  0.2368 -0.1752
68144W        W11238   4.272   4.637   6.389  0.2058 -0.1405 -0.2491
68145W        W11239   5.290   3.142   9.425 -0.1146 -0.0017 -0.0025
68146W        W11240   6.134   6.398   9.704  0.1047 -0.0796  0.3913
68147W        W11241   7.254   5.075   8.968  0.2639 -0.1229 -0.1034
68148W        W11242   6.368   4.291   8.385  0.3608 -0.0741 -0.1340
68149W        W11243   4.562   6.224   7.901 -0.4419  0.0437 -0.1320
68150W        W11244   5.657   4.734   6.872  0.2181  0.1636  0.2571
68151W        W11245   4.483   3.028   8.733  0.0033  0.0041  0.0116
68152W        W11246   5.318   6.624   8.638 -0.0013  0.3113 -0.3166
68153W        W11247   6.811   4.149   6.537 -0.2467 -0.0282  0.1102
68154W        W11248   6.423   4.357   9.895 -0.0268 -0.0053  0.1295
68155W        W11249   5.874   5.251   8.451  0.0017 -0.0461 -0.0438
68156W        W11250   6.839   4.414   8.864 -0.1390  0.1682 -0.0181
68157W        W11251   3.079   5.862   8.132  0.1359  0.0994 -0.1346
68158W        W11252   4.728   3.641   6.616  0.2435  0.1962 -0.0412
68159W        W11253   4.427   3.792   8.292  0.2071 -0.0199  0.0879
68160W        W11254   5.326   4.202   8.562  0.1044  0.1453  0.2448
68161W        W11255   7.947   5.415   7.576  0.1075 -0.0329  0.0158
68162W        W11256   4.889   5.300   8.008  0.2648 -0.1660 -0.1294
68163W        W11257   6.016   2.167  10.389  0.1813 -0.0526  0.1476
68164W        W11258   5.182   4.941   8.983  0.1763  0.0640 -0.1874
68165W        W11259   6.684   2.459   8.647  0.1773  0.0491 -0.0552
68166W        W11260   3.557   3.379   6.995 -0.1549 -0.0299  0.0292
68167W        W11261   4.702   4.745   9.664 -0.0094 -0.3998 -0.0085
68168W        W11262   5.174   4.343   7.108 -0.2299  0.0806  0.1653
68169W        W11263   3.916   5.025   8.110 -0.1976 -0.1045  0.2711
68170W        W11264   5.975   6.980   9.383  0.0182  0.1213  0.3364
68171W        W11265   4.039   3.774   7.924 -0.3397  0.2843 -0.1761
68172W        W11266   4.062   5.510   8.221 -0.3894 -0.2501 -0.0040
68173W        W11267   8.234   5.881   9.458  0.2728  0.0238 -0.3293
68174W        W11268   5.869   2.312   9.877 -0.3870 -0.2141  0.0684
68175W        W11269   4.619   4.424   7.685 -0.2248 -0.1802  0.1702
68176W        W11270   6.063   4.472   6.934  0.1057  0.2319 -0.0782
68177W        W11271   7.525   7.579   9.649 -0.1876  0.1931 -0.2635
68178W        W11272   6.468   4.836   8.934 -0.0465  0.2035 -0.0810
68179W        W11273   5.518   3.084   9.891 -0.4321 -0.3251  0.0113
68180W        W11274   8.669   7.737   7.164  0.0713  0.1190 -0.0368
68181W        W11275   6.148   5.355   7.272 -0.0595 -0.0677  0.0455
68182W        W11276   4.005   5.430   8.802 -0.2704  0.1765  0.1457
68183W        W11277   4.047   5.434   7.648  0.0731 -0.0265  0.1067
68184W        W11278   9.167   5.632   9.304 -0.2394 -0.0952 -0.1482
68185W        W11279   5.657   4.589   9.845  0.1074 -0.1151 -0.3799
68186W        W11280   5.769   5.134   7.088 -0.0736 -0.1112  0.1964
68187W        W11281   4.022   5.908   8.531 -0.0530 -0.0671 -0.2134
68188W        W11282   8.112   3.079   7.183  0.0829 -0.3888  0.1225
68189W        W11283   6.363   5.815   7.211 -0.0646  0.0314  0.1267
68190W        W11284   6.738   3.398   8.631 -0.3617 -0.1635 -0.1702
68191W        W11285   7.042   5.299   7.138  0.0763  0.1118 -0.4552
68192W        W11286   6.314   1.419  11.945 -0.1953 -0.2408 -0.3961
68193W        W11287   7.771   6.596   8.403 -0.1353  0.2806 -0.1513
68194W        W11288   6.716   3.995   8.619  0.2422 -0.0567 -0.2255
68195W        W11289   5.314   2.866   8.420 -0.0521 -0.1138 -0.1530
68196W        W11290   4.380   5.213   7.932 -0.2040  0.0833  0.2543
68197W        W11291   7.399   6.251   8.255 -0.2488 -0.1574 -0.2737
68198W        W11292   6.284   4.905   6.463  0.2687  0.1426  0.1525
68199W        W11293   7.239   4.222   8.631  0.0216 -0.3489 -0.2483
68200W        W11294   4.432   3.411   7.781 -0.0268 -0.0618  0.0511
68201W        W11295   7.495   5.401   7.835  0.0289 -0.0809 -0.1008
68202W        W11296   5.809   3.525   7.811 -0.0646  0.0519 -0.0058
68203W        W11297   3.721   4.582   7.807  0.0047  0.0134  0.1592
68204W        W11298   5.608   4.832   8.697 -0.2913  0.0138  0.1507
68205W        W11299   6.457   2.951   8.695 -0.0428  0.1023 -0.0584
68206W        W11300   5.607   4.028   9.864  0.3093  0.0933 -0.1591
68207W        W11301   6.402   5.629   7.700  0.2023  0.0299 -0.3082
68208W        W11302   5.860   4.243   8.469 -0.0039 -0.0592  0.0305
68209W        W11303   5.233   4.897   7.132  0.2856  0.1271 -0.2164
68210W        W11304   5.706   3.324   8.993 -0.0900 -0.0743  0.0054
68211W        W11305   4.158   5.875   9.256  0.1479  0.3519  0.3082
68212W        W11306   4.020   3.537   7.426 -0.0362  0.3068 -0.1199
68213W        W11307   4.645   5.582   6.981 -0.0005  0.0233 -0.2127
68214W        W11308   6.028   6.643   8.562  0.0060 -0.1533  0.0319
68215W        W11309   6.080   3.858   7.576 -0.0645 -0.1278 -0.0425
68216W        W11310   4.992   3.953   7.624 -0.0481 -0.0388 -0.0191
68217W        W11311   5.369   2.313   7.360 -0.1216 -0.0210 -0.0980
68218W        W11312   4.710   4.486   5.442 -0.4804  0.2236 -0.0900
68219W        W11313   6.231   5.630   9.448 -0.1994  0.3640 -0.0180
68220W        W11314   6.159   2.229   9.060  0.0365  0.2407 -0.0823
68221W        W11315   4.115   4.633   7.353 -0.0885  0.0752  0.1338
68222W        W11316   6.751   1.314  10.555  0.3091  0.1481  0.0226
68223W        W11317   4.639   7.614   9.745 -0.1010  0.2016  0.3119
68224W        W11318   4.474   6.102   8.385 -0.0991 -0.0056 -0.2909
68225W        W11319   5.697   3.485  10.121 -0.1208 -0.2079 -0.1547
68226W        W11320   6.595   5.186   9.483 -0.0648 -0.0172 -0.3728
68227W        W11321   7.353   5.281   8.471 -0.0272  0.2421 -0.1899
68228W        W11322   4.533   6.598   8.282  0.1161 -0.3202 -0.0867
68229W        W11323   6.680   5.482   8.161 -0.3977  0.0936  0.1238
68230W        W11324   4.476   5.420   7.470  0.1472  0.0477 -0.1781
68231W        W11325   5.267   6.377   9.484 -0.1214  0.2904 -0.1864
68232W        W11326   4.005   3.840   9.941 -0.1143 -0.1222 -0.1181
68233W        W11327   5.507   5.681   5.876  0.1397 -0.0471 -0.1984
68234W        W11328   4.621   5.667   9.435 -0.1345  0.0071 -0.2478
68235W        W11329   5.218   7.613   8.529 -0.1408 -0.1822 -0.1298
68236W        W11330   5.539   5.563   6.817  0.1917  0.1424  0.1074
68237W        W11331   5.888   4.083   6.548  0.0908 -0.1543  0.0356
68238W        W11332   7.110   5.767   8.332  0.0420  0.0366 -0.3021
68239W        W11333   5.478   3.793   8.117 -0.0584 -0.2219  0.0503
68240W        W11334   4.514   5.350   8.923 -0.0580  0.2736  0.1685
68241W        W11335   3.083   5.603   7.084 -0.2408  0.2001  0.0811
68242W        W11336   7.621   6.853   6.689 -0.3590  0.3138  0.0464
68243W        W11337   3.712   5.877   8.946  0.1896 -0.2714  0.0369
68244W        W11338   7.203   3.204   8.672  0.1369 -0.0839  0.0057
68245W        W11339   7.912   7.109   8.023 -0.2353 -0.2479  0.1471
68246W        W11340   7.203   6.105   7.393  0.2568 -0.0908 -0.1689
68247W        W11341   5.561   6.479   7.753  0.2111  0.0403 -0.1219
68248W        W11342   5.145   2.716   6.914 -0.0851  0.3517 -0.0612
68249W        W11343   8.152   7.424   7.623 -0.3697 -0.1650 -0.3288
68250W        W11344   4.769   2.890   7.509  0.2739  0.1261  0.0691
68251W        W11345   5.960   4.415   7.983  0.0119  0.1240 -0.0808
68252W        W11346   7.545   4.389   9.552 -0.2057 -0.3244 -0.3322
68253W        W11347   5.479   4.290   6.699  0.0562 -0.1367 -0.0710
68254W        W11348   7.853   3.418   9.391 -0.3075  0.1129 -0.0487
68255W        W11349   5.423   7.040   8.452  0.1645  0.1941 -0.2578
68256W        W11350   6.435   6.391   8.364 -0.2219  0.0163 -0.2238
68257W        W11351   6.571   6.444   8.889 -0.1851 -0.0990  0.1883
68258W        W11352   4.583   4.818   8.303 -0.0939  0.0600  0.2525
68259W        W11353   7.128   4.595   6.612 -0.3808  0.0593  0.1209
68260W        W11354   6.832   4.369   8.326  0.1802  0.0121  0.0783
68261W        W11355   5.526   3.903   7.615  0.1321  0.1795  0.1303
68262W        W11356   7.034   4.176   7.677  0.2016 -0.4610  0.2798
68263W        W11357   4.482   5.222   9.721  0.2500 -0.1852  0.0745
68264W        W11358   5.207   4.805   9.644  0.0575 -0.2666  0.0309
68265W        W11359   5.815   5.773   7.939  0.0992  0.0399 -0.2241
68266W        W11360   6.141   3.874   8.653 -0.0336 -0.1898 -0.0619
68267W        W11361   3.911   3.529   8.982  0.5830 -0.1277 -0.0975
68268W        W11362   6.008   3.535   8.325  0.1878  0.1951  0.1705
68269W        W11363   4.112   4.636   8.332 -0.0168 -0.3664 -0.1399
68270W        W11364   5.181   6.105   8.942  0.0575  0.1124  0.1827
68271W        W11365   3.817   3.987   9.375 -0.1064 -0.0436  0.3266
68272W        W11366   6.905   5.785   7.142 -0.1988  0.0098  0.3175
68273W        W11367   6.421   4.355  10.412 -0.0563 -0.2487 -0.0942
68274W        W11368   4.153   5.497   7.114  0.1027 -0.0653  0.1123
68275W        W11369   7.070   6.364   7.891 -0.0793  0.0683 -0.1038
68276W        W11370   7.399   6.005   8.733 -0.0932  0.0626  0.1799
68277W        W11371   3.872   5.113   9.686  0.0707  0.2964 -0.1680
68278W        W11372   6.442   6.617   9.380 -0.0126  0.1531 -0.0229
68279W        W11373   7.829   8.047   9.539  0.0783  0.1374  0.0269
68280W        W11374   6.884   2.939   9.493  0.2624 -0.4014 -0.1172
68281W        W11375   5.287   5.030   7.682  0.0355  0.0322  0.2828
68282W        W11376   3.448   7.342   8.819 -0.1274  0.0716  0.0993
68283W        W11377   6.313   5.460   8.587 -0.0645 -0.1465  0.4384
68284W        W11378   5.226   6.381   5.071  0.0363 -0.3865  0.2455
68285W        W11379   4.955   4.480  10.095  0.2675 -0.2274  0.3767
68286W        W11380   3.688   3.842   7.261 -0.0756  0.3036  0.0599
68287W        W11381   6.628   5.150   7.443  0.2003  0.1089  0.4040
68288W        W11382   6.102   2.788  10.731 -0.1475 -0.2091  0.1003
68289W        W11383   6.288   4.951   8.468 -0.2288 -0.0430  0.0721
68290W        W11384   7.493   8.322   8.529  0.1216  0.2683 -0.0515
68291W        W11385   4.407   5.052   7.154  0.0223  0.2735  0.2553
68292W        W11386   7.125   3.056  10.582  0.0887  0.1499 -0.0906
68293W        W11387   6.454   2.606   9.076  0.0444 -0.1059  0.0394
68294W        W11388   5.098   3.384  10.140  0.0448 -0.1018 -0.0644
68295W        W11389   3.572   4.737   7.373  0.4381  0.0160 -0.2272
68296W        W11390   5.059   5.749   6.198 -0.0979 -0.0451  0.2825
68297W        W11391   5.113   3.649   8.512  0.2568 -0.1223 -0.1996
68298W        W11392   4.435   4.469   8.691  0.0401  0.5720  0.1589
68299W        W11393   4.852   2.456  10.015  0.3587 -0.3710  0.0433
68300W        W11394   6.942   7.616   7.584  0.1320  0.0604  0.0189
68301W        W11395   6.269   3.419   7.824  0.0332 -0.0257 -0.1801
68302W        W11396   4.256   3.850   8.815  0.1102  0.0447  0.0424
68303W        W11397   5.890   5.697   6.321 -0.0586  0.1409 -0.0824
68304W        W11398   6.908   6.639   9.658  0.0115 -0.1619  0.0553
68305W        W11399   5.218   3.444   8.991 -0.1237  0.1960 -0.1022
68306W        W11400   4.082   5.411   6.640  0.0105  0.1873 -0.1777
68307W        W11401   3.070   3.587   7.410 -0.1321 -0.1426 -0.0530
68308W        W11402   4.974   4.425   8.904 -0.3704 -0.0730 -0.0145
68309W        W11403   6.738   6.014   7.575  0.2270  0.1749  0.0637
68310W        W11404   6.696   7.262   6.768 -0.2090 -0.1625 -0.0382
68311W        W11405   4.106   5.593   9.725  0.1586 -0.1710  0.4644
68312W        W11406   7.601   5.744   8.230 -0.0850 -0.1260  0.1027
68313W        W11407   7.807   5.955   7.763  0.1604 -0.2014  0.0574
68314W        W11408   7.794   4.648   9.112  0.0831 -0.2210 -0.1307
68315W        W11409   5.769   5.779   8.479  0.3885 -0.1209  0.1295
68316W        W11410   8.689   6.641   8.779  0.4036 -0.0152 -0.1865
68317W        W11411   5.165   3.918   8.963  0.4392 -0.1730  0.1488
68318W        W11412   6.379   3.182   8.279 -0.1722  0.2350  0.3188
68319W        W11413   5.755   5.734   7.250  0.1496 -0.0231  0.1477
68320W        W11414   4.132   4.240   9.652 -0.1797  0.2591  0.1082
68321W        W11415   6.002   3.960   7.107  0.0758 -0.2432  0.0702
68322W        W11416   6.025   6.238   8.086  0.0554 -0.0702 -0.1224
68323W        W11417   5.138   5.669   7.113  0.1206  0.0400  0.2670
68324W        W11418   5.897   6.017   6.824  0.1483 -0.0310  0.0473
68325W        W11419   5.937   4.336   9.435  0.0051  0.1044  0.0251
68326W        W11420   5.296   7.739   9.883  0.0272 -0.1943 -0.1602
68327W        W11421   6.149   6.169   8.685  0.1903 -0.1184 -0.1762
68328W        W11422   4.657   4.219   9.583 -0.2728  0.0604 -0.1279
68329W        W11423   4.632   4.894   7.625 -0.2843  0.1636  0.1329
68330W        W11424   4.735   4.085   7.191 -0.0028  0.1616 -0.0404
68331W        W11425   8.776   4.660   9.640  0.0259  0.4149  0.0659
68332W        W11426   5.042   4.156   8.068 -0.0006 -0.3081 -0.2005
68333W        W11427   6.248   3.396   8.804 -0.0675 -0.1125  0.0583
68334W        W11428   6.069   5.122   9.662 -0.0725  0.2545 -0.1243
68335W        W11429   7.090   5.179   8.094  0.1706  0.0085 -0.1938
68336W        W11430   5.166   9.661   2.765 -0.0421 -0.2479  0.1196
68337W        W11431   4.672   7.993   0.142 -0.0703 -0.1317  0.0731
68338W        W11432   7.519   8.382   0.620 -0.3442  0.1276 -0.1628
68339W        W11433   7.265   8.191   1.883 -0.0103  0.0248 -0.2810
68340W        W11434   4.583   7.682   1.280  0.5284 -0.0893 -0.0050
68341W        W11435   5.543  11.160   2.038 -0.0439  0.0307 -0.0507
68342W        W11436   4.840   9.001   2.403 -0.0527  0.1993 -0.1447
68343W        W11437   6.315  10.114   1.094 -0.0187  0.3190 -0.0878
68344W        W11438   6.584  10.311   3.755  0.0579 -0.1546 -0.2493
68345W        W11439   5.562   9.678  30.494 -0.1439  0.1372 -0.0558
68346W        W11440   5.406   8.277   2.763  0.1299  0.0368 -0.2119
68347W        W11441   6.183   8.652   1.544 -0.1282 -0.2957  0.1289
68348W        W11442   5.288   6.652  31.075  0.0134  0.2820 -0.1254
68349W        W11443   3.316   8.486   1.976 -0.1680 -0.1732 -0.0882
68350W        W11444   7.242   7.886   1.252  0.1541  0.1116 -0.2061
68351W        W11445   5.009   9.845  31.421  0.0917  0.3124 -0.0203
68352W        W11446   3.876   8.631   2.724  0.1015 -0.3676  0.0601
68353W        W11447   6.962   8.669   2.096 -0.0076  0.3255  0.1563
68354W        W11448   5.220  10.914   0.770  0.0519  0.0714  0.0515
68355W        W11449   5.677   7.305   1.919  0.0443  0.1269 -0.0794
68356W        W11450   6.513   7.428   3.259  0.2228  0.1064 -0.0007
68357W        W11451   4.382  11.796   0.413 -0.0165 -0.4663 -0.1351
68358W        W11452   3.832   7.911  31.702 -0.1277  0.1612 -0.2723
68359W        W11453   3.745   8.791   1.407  0.0310 -0.1447  0.0104
68360W        W11454   5.113   7.274   2.148 -0.2440 -0.2380  0.2724
68361W        W11455   6.962   7.836   3.585  0.3571 -0.1931  0.1893
68362W        W11456   6.517  10.935   0.842  0.0310 -0.2693 -0.1295
68363W        W11457   3.794  11.908   0.562  0.1391 -0.0685  0.1553
68364W        W11458   4.507  10.224   0.231  0.0569 -0.0392 -0.1893
68365W        W11459   6.152   8.101   2.137 -0.0745 -0.1295  0.1463
68366W        W11460   4.890   8.268   1.118  0.1062  0.1217 -0.1528
68367W        W11461   3.763  10.498   1.289 -0.0789 -0.1579  0.2026
68368W        W11462   5.225  10.112   1.905 -0.1004  0.0639  0.0535
68369W        W11463   6.568   8.514   0.205 -0.3054 -0.0905 -0.0599
68370W        W11464   4.575  10.255   2.857 -0.1113  0.1270  0.2315
68371W        W11465   6.863  10.370   3.128  0.2032  0.1587 -0.1116
68372W        W11466   3.195  10.613   0.578  0.1146 -0.4128 -0.1578
68373W        W11467   5.792  10.728   2.032  0.0258 -0.1144  0.1002
68374W        W11468   5.770   9.348   2.625 -0.2200 -0.1609  0.0219
68375W        W11469   6.105   7.904   0.683  0.1483  0.0765 -0.0400
68376W        W11470   3.744   9.350  30.759 -0.3742  0.0623 -0.1946
68377W        W11471   4.427  10.853   0.863 -0.2968  0.1441 -0.1743
68378W        W11472   5.473  10.667   0.331 -0.1271  0.1643 -0.1662
68379W        W11473   4.768   8.763   1.977  0.1626 -0.1488  0.0461
68380W        W11474   3.209  10.559   1.422  0.1288 -0.0113 -0.1479
68381W        W11475   7.508   7.081   3.555  0.1163  0.2258 -0.2072
68382W        W11476   4.169  10.035  31.816  0.2399 -0.2441 -0.0682
68383W        W11477   6.955   7.729  30.400 -0.2806  0.0036 -0.2843
68384W        W11478   4.962   8.836  31.808 -0.1827 -0.0220  0.0501
68385W        W11479   6.252   7.148   1.794  0.0099  0.0398 -0.1384
68386W        W11480   6.321   7.479   2.251  0.0731 -0.2810 -0.1819
68387W        W11481   5.009  11.830   2.820 -0.0465 -0.0414 -0.1530
68388W        W11482   5.079   7.289   3.082 -0.2111 -0.3183 -0.2278
68389W        W11483   8.490  10.108   2.272  0.2101 -0.1423 -0.0067
68390W        W11484   6.919   9.044   0.548 -0.1699 -0.0837 -0.1950
68391W        W11485   6.453   7.743   1.830  0.3394 -0.2348 -0.2055
68392W        W11486   4.909  11.026   3.381  0.0114 -0.0902  0.1021
68393W        W11487   3.952   7.943   1.391 -0.1266 -0.0403  0.0765
68394W        W11488   6.855  10.181  30.113  0.3763 -0.1533 -0.0382
68395W        W11489   5.840  10.242   1.168  0.1884  0.0246 -0.2859
68396W        W11490   6.732  11.767   0.873 -0.3018 -0.1280  0.0414
68397W        W11491   6.209   9.671   0.799 -0.1824 -0.0383  0.1001
68398W        W11492   4.004   9.453   2.152  0.1028  0.0288 -0.3480
68399W        W11493   3.042   8.656   3.017 -0.3039 -0.1580 -0.1578
68400W        W11494   4.714   7.179  31.697 -0.0881 -0.1856  0.1873
68401W        W11495   8.718  10.421   2.554  0.1664 -0.1792 -0.2915
68402W        W11496   2.891   8.621   1.640 -0.4724 -0.0475 -0.2828
68403W        W11497   5.856   6.703   0.271 -0.1571 -0.1065  0.0841
68404W        W11498   3.717   8.360   1.649 -0.2191 -0.2226 -0.0067
68405W        W11499   6.529  10.801   1.324 -0.1112 -0.0243  0.2000
68406W        W11500   5.920  10.870   0.132  0.1651 -0.2251  0.0605
68407W        W11501   5.383   7.188   2.565  0.1318  0.1626  0.0637
68408W        W11502   6.725   7.014   1.719  0.1729  0.0137 -0.0297
68409W        W11503   5.295   9.077  31.489 -0.2293 -0.2884  0.4180
68410W        W11504   4.721  10.050  31.013 -0.4264 -0.4154  0.0269
68411W        W11505   8.779   9.922   2.631  0.1429 -0.1362  0.0416
68412W        W11506   5.756   8.387  30.696 -0.1569 -0.0976  0.1990
68413W        W11507   4.586  11.777   1.817 -0.1384  0.0289 -0.2530
68414W        W11508   5.882   8.068   3.348  0.1972  0.0799 -0.0213
68415W        W11509   6.137  10.020   2.944 -0.0042 -0.0224  0.0212
68416W        W11510   2.335  11.315  31.910  0.1235 -0.2104  0.3771
68417W        W11511   2.979   7.952   0.859  0.4385  0.2411 -0.1334
68418W        W11512   3.888   8.289   0.675 -0.3415  0.0649  0.2134
68419W        W11513   3.510   7.672   1.486 -0.3133 -0.1572  0.0320
68420W        W11514   6.401   9.002   1.340  0.0435 -0.1561  0.1086
68421W        W11515   7.134   8.609   1.609  0.0958 -0.2907 -0.1301
68422W        W11516   5.289   7.565   1.621 -0.0052  0.1284 -0.0978
68423W        W11517   7.634   6.399   1.426  0.0514 -0.1394 -0.1200
68424W        W11518   4.155  10.873   1.324 -0.2574  0.2052 -0.2614
68425W        W11519   7.413   9.558   1.261  0.0101  0.3079  0.1498
68426W        W11520   6.768   8.058   0.095 -0.3103 -0.2419  0.0934
68427W        W11521   7.103   8.576   0.212 -0.2354  0.0613  0.1388
68428W        W11522   3.923   8.038   2.911  0.1480 -0.1713 -0.1139
68429W        W11523   4.420   8.158   1.368  0.3698  0.1016  0.1115
68430W        W11524   5.313   7.133   3.490  0.0107 -0.0656  0.1042
68431W        W11525   3.012   8.231   0.363 -0.2298 -0.0991  0.1145
68432W        W11526   7.547   8.298   2.857 -0.3019 -0.2842  0.3879
68433W        W11527   5.156   7.835   1.027 -0.0973 -0.0084 -0.1114
68434W        W11528   6.590   9.445   0.453  0.1341  0.1437 -0.1654
68435W        W11529   4.895   8.038   1.644  0.0087 -0.3037 -0.0509
68436W        W11530   3.510   9.676   2.296  0.0794 -0.3690 -0.1014
68437W        W11531   6.409   7.878   3.070 -0.3047 -0.1591  0.0752
68438W        W11532   5.443  10.101  31.469 -0.0228  0.1313 -0.0057
68439W        W11533   6.138   9.983   2.393  0.0384 -0.0078 -0.0367
68440W        W11534   4.875  10.637   2.695 -0.1766 -0.1007 -0.0101
68441W        W11535   4.745   8.031   2.138 -0.3687  0.1641  0.2557
68442W        W11536   4.344   7.030   0.040 -0.2048  0.1881 -0.2966
68443W        W11537   3.511  10.085   1.480  0.1296 -0.0801 -0.2178
68444W        W11538   6.230  10.561   0.848  0.1901 -0.2603 -0.2013
68445W        W11539   4.692   6.675   1.048 -0.1734  0.0840 -0.4595
68446W        W11540   6.492  11.330   1.270  0.4944 -0.0157  0.1588
68447W        W11541   4.290   9.104   1.161 -0.2423 -0.2077 -0.0626
68448W        W11542   3.424  10.160   2.331  0.1188  0.1450  0.1654
68449W        W11543   7.848   6.678   1.852 -0.1682  0.0634  0.0289
68450W        W11544   7.678   9.634   3.347 -0.4425 -0.0143  0.0008
68451W        W11545   5.759   8.350   1.392 -0.2848  0.1270 -0.1637
68452W        W11546   4.094   7.408  31.692  0.1315  0.1546 -0.0835
68453W        W11547   5.672   9.884   1.650 -0.0239  0.0467 -0.0787
68454W        W11548   2.144  10.030  31.972  0.1310  0.1630  0.1415
68455W        W11549   4.110   8.720   0.854 -0.2051 -0.0857 -0.2177
68456W        W11550   5.376  10.038   0.099  0.0118  0.0245  0.0419
68457W        W11551   8.043   7.076  31.321 -0.1360  0.3616 -0.3743
68458W        W11552   3.930  10.004   2.362 -0.4846  0.1050  0.4314
68459W        W11553   5.802   7.772   2.266 -0.0154 -0.0180 -0.3323
68460W        W11554   4.014   7.194   0.788 -0.0174  0.0562 -0.1005
68461W        W11555   4.355   9.698   2.412  0.2131  0.0245 -0.2088
68462W        W11556   5.595   7.729   0.595 -0.0773  0.1046 -0.1809
68463W        W11557   8.296   7.738   0.550 -0.1839 -0.1481  0.1544
68464W        W11558   5.591   8.029   3.828  0.0882 -0.0065  0.2653
68465W        W11559   5.637  10.753   1.060  0.4360  0.0582  0.0423
68466W        W11560   4.726   8.577   0.292 -0.4259  0.3721  0.0985
68467W        W11561   6.799   8.107  29.481 -0.2389  0.0264  0.0184
68468W        W11562   5.608   8.739   1.736  0.3007 -0.1261  0.0596
68469W        W11563   4.879   9.934   0.460 -0.0296  0.2069  0.0537
68470W        W11564   4.950   8.887   1.120 -0.1608  0.0429  0.1759
68471W        W11565   7.408   7.954   0.785 -0.4033 -0.0251 -0.0822
68472W        W11566   6.932  11.561   1.347  0.0783 -0.3222  0.0138
68473W        W11567   3.723  10.273   1.924  0.0300  0.2050 -0.0858
68474W        W11568   5.471   8.717   2.983 -0.1642  0.2580  0.3322
68475W        W11569   6.244   8.176   1.654 -0.2630  0.0200  0.0889
68476W        W11570   7.817   7.419   1.176  0.1418  0.2016  0.1020
68477W        W11571   5.014   9.025  31.077  0.3041  0.0042 -0.3105
68478W        W11572   7.203   7.266  31.745 -0.0045 -0.1915  0.3547
68479W        W11573   3.788   9.931   1.056 -0.0547  0.0962 -0.4326
68480W        W11574   6.634   7.437   1.493  0.0974  0.0582  0.0038
68481W        W11575   6.202   6.652   1.956 -0.2521 -0.0408  0.0991
68482W        W11576   4.914   8.094   2.701  0.0608 -0.0930  0.2533
68483W        W11577   8.390   9.646   2.804 -0.0009 -0.2057 -0.0808
68484W        W11578   6.069   8.288   0.333  0.3616  0.1062 -0.0067
68485W        W11579   6.469   9.405   1.668 -0.2304 -0.0304  0.0661
68486W        W11580   5.090   8.549   0.621 -0.1976  0.1984  0.1319
68487W        W11581   5.966   6.991   2.301  0.1600  0.0077  0.1092
68488W        W11582   4.074   7.820   2.460  0.1455 -0.0033  0.3393
68489W        W11583   3.957  11.310   3.438  0.0402  0.0121  0.0319
68490W        W11584   7.185  10.854   3.261  0.0200 -0.4138 -0.2810
68491W        W11585   6.968   9.531   0.863 -0.1949  0.0033 -0.0229
68492W        W11586   5.014   8.517   3.204  0.0492 -0.1556  0.1614
68493W        W11587   6.216   8.724   0.979 -0.0311  0.2789 -0.1302
68494W        W11588   3.834  11.308   2.103  0.1906  0.0507  0.2245
68495W        W11589   2.046  10.500  31.334  0.3102 -0.1697  0.1228
68496W        W11590   5.122   6.608   1.905 -0.3606  0.0773  0.0852
68497W        W11591   5.406   9.979   2.397  0.3216  0.0244  0.1595
68498W        W11592   3.609  10.935   0.475 -0.0289 -0.0650 -0.3333
68499W        W11593   5.868   9.195   1.575 -0.2354 -0.0532  0.2124
68500W        W11594   4.494  10.412   1.421  0.0314 -0.0300  0.0262
68501W        W11595   7.787   7.955   1.209  0.0237  0.1011 -0.1277
68502W        W11596   3.568  11.310   2.557  0.0133 -0.0286  0.1827
68503W        W11597   5.720   8.962  31.699 -0.3164 -0.1751 -0.0532
68504W        W11598   3.070   7.406   0.721  0.0512 -0.1373 -0.0843
68505W        W11599   6.789   7.433  31.530 -0.0961  0.2180  0.0391
68506W        W11600   6.142   9.533   0.230  0.1604  0.1571  0.0708
68507W        W11601   3.465   6.592   1.582  0.1871  0.1051 -0.0400
68508W        W11602   6.369   7.683   1.016 -0.2199 -0.0007  0.1630
68509W        W11603   5.481  11.819   2.545  0.3066  0.0403 -0.1409
68510W        W11604   6.996   9.040   1.784  0.1288 -0.3830 -0.1451
68511W        W11605   7.052   6.963   0.798 -0.0773 -0.1893 -0.3141
68512W        W11606   5.589   9.525   1.198  0.2330  0.2001 -0.0993
68513W        W11607   4.169   7.601   3.318 -0.1319 -0.2706 -0.0365
68514W        W11608   3.138   8.787   0.460 -0.0521  0.2750  0.0178
68515W        W11609   7.133   8.190   2.556 -0.2881  0.4065 -0.0536
68516W        W11610   5.263   7.051   1.583  0.2535  0.1531  0.2419
68517W        W11611   2.904  10.859   2.107 -0.0093  0.1377 -0.0344
68518W        W11612   4.940  10.030   1.458  0.1459 -0.0208 -0.0646
68519W        W11613   6.225  10.620  31.750 -0.0867  0.2983 -0.0089
68520W        W11614   3.975   8.377   1.186  0.0618 -0.3290  0.0920
68521W        W11615   4.396   7.813   1.736 -0.1647 -0.0568  0.1899
68522W        W11616   6.097   8.559   2.018 -0.1558  0.0861 -0.0861
68523W        W11617   6.952   7.926   3.068 -0.0433 -0.1763 -0.4442
68524W        W11618   5.225   7.872   3.025  0.0125 -0.3729 -0.1121
68525W        W11619   6.777   8.238   1.786  0.1423  0.0001  0.0314
68526W        W11620   6.658  10.613   2.200  0.0213 -0.0911 -0.0127
68527W        W11621   4.815   7.708   3.895  0.4311  0.0735  0.6330
68528W        W11622   5.164   8.314   2.277 -0.1727  0.0362 -0.2305
68529W        W11623   5.163   5.855   1.169 -0.1144  0.2137  0.2514
68530W        W11624   8.269  11.486   1.817  0.0965  0.4157 -0.2043
68531W        W11625   6.062  10.699   1.302 -0.0950 -0.1732  0.1482
68532W        W11626   3.952   9.913  31.303  0.2968 -0.2408  0.1870
68533W        W11627   4.400   8.283   0.882  0.2085 -0.1969 -0.1173
68534W        W11628   3.107  10.209   0.115  0.0098  0.1953  0.0130
68535W        W11629   6.528   7.609   4.017 -0.1680  0.1697  0.2458
68536W        W11630   4.933   9.725   1.950  0.0463 -0.1029 -0.2293
68537W        W11631   3.918   9.624   0.708  0.1338  0.0826 -0.3095
68538W        W11632   4.119   9.017   3.062 -0.0944  0.1721 -0.1243
68539W        W11633   6.773   7.786  29.892  0.0985  0.1308  0.0113
68540W        W11634   4.929   9.941  31.910 -0.2312 -0.0173 -0.0293
68541W        W11635   6.466   8.307   0.625  0.0061  0.4491 -0.1212
68542W        W11636   8.023   8.393   3.283 -0.0522 -0.0352 -0.0834
68543W        W11637   6.301   9.067  31.615  0.0084  0.0376 -0.3411
68544W        W11638   5.336   7.847   2.519  0.0217  0.2843  0.3338
68545W        W11639   5.402   6.612   3.802 -0.6153 -0.2015  0.1173
68546W        W11640   6.202   9.525   2.054  0.0370  0.1610 -0.0546
68547W        W11641   3.074   7.875   1.535 -0.0956  0.2367  0.0665
68548W        W11642   6.471  10.684   4.079 -0.1495  0.2059  0.1615
68549W        W11643   4.551   8.478   3.497  0.0925  0.0042 -0.0437
68550W        W11644   4.783   6.948   3.485  0.2110  0.1705 -0.1461
68551W        W11645   4.966   5.550   0.122  0.1362  0.0360  0.0245
68552W        W11646   5.281   8.841   2.185 -0.2573 -0.2045  0.3940
68553W        W11647   7.837   9.228   2.308  0.1996  0.2071 -0.2187
68554W        W11648   2.592  10.231  31.940 -0.1990 -0.0889  0.0170
68555W        W11649   5.471   6.780   2.223  0.1770 -0.3002  0.0849
68556W        W11650   5.372   8.018   1.473  0.0957 -0.0560  0.0645
68557W        W11651   5.688   9.880   0.815  0.1718 -0.0467  0.2898
68558W        W11652   7.153  10.825   0.874  0.1642 -0.3078  0.1606
68559W        W11653   5.434   9.973   1.206  0.1232  0.3032 -0.0007
68560W        W11654   6.821   6.609   4.123  0.2886 -0.3485 -0.0934
68561W        W11655   5.206   9.671   0.730  0.1234 -0.1739 -0.3234
68562W        W11656   6.763   7.344   0.942 -0.1810  0.0751 -0.1093
68563W        W11657   5.834   7.402   2.614  0.3207 -0.3827  0.0268
68564W        W11658   6.871   8.598   2.570  0.0770  0.3181 -0.2275
68565W        W11659   4.356   8.883   2.173 -0.1247  0.1675 -0.0796
68566W        W11660   5.146   9.314   3.985 -0.1155  0.0628 -0.1242
68567W        W11661   6.200  10.971   2.256 -0.2855 -0.0696  0.0174
68568W        W11662   5.857   8.900  30.648  0.0704 -0.0702  0.1382
68569W        W11663   7.218   8.271   3.519  0.1821  0.1222  0.0316
68570W        W11664   5.929   8.108  31.117  0.1219 -0.1150 -0.1931
68571W        W11665   6.123   7.840  31.564 -0.1658 -0.0767  0.0404
68572W        W11666   4.843   7.553   1.748  0.0143 -0.0888 -0.1302
68573W        W11667   6.741   9.115   3.302 -0.2326  0.1146 -0.0232
68574W        W11668   5.624   7.765  31.697  0.3032 -0.2211  0.2867
68575W        W11669   7.529   7.826   1.685  0.1215 -0.0220  0.1238
68576W        W11670   5.179  10.316  31.046  0.1446  0.1682 -0.2007
68577W        W11671   6.684  11.020  31.864 -0.0937 -0.0036 -0.0865
68578W        W11672   6.715   7.918  30.780  0.0526  0.0464 -0.1175
68579W        W11673   2.954   8.095   2.020 -0.3380 -0.0838  0.0431
68580W        W11674   4.719  11.274   3.846 -0.0845  0.2134 -0.0027
68581W        W11675   4.113   8.956  31.061  0.1936 -0.3331  0.1697
68582W        W11676   5.403   9.208  30.753 -0.1286 -0.2533  0.2738
68583W        W11677   5.260   9.084   2.678  0.1425 -0.1026 -0.2508
68584W        W11678   6.528   8.732   3.007 -0.2383 -0.2335  0.0104
68585W        W11679   5.413   7.238  30.875 -0.0986 -0.0174 -0.2420
68586W        W11680   6.752   7.951   2.203 -0.2539 -0.0638 -0.0798
68587W        W11681   4.802   9.346  31.660 -0.0444 -0.0438 -0.2702
68588W        W11682   6.207   7.427   0.513  0.0899 -0.1662  0.1018
68589W        W11683   5.229  11.423   2.623  0.1092  0.1454 -0.2828
68590W        W11684   3.351  10.595   2.132 -0.0570  0.0113 -0.1792
68591W        W11685   4.610  11.076   2.445  0.2025  0.1062  0.0952
68592W        W11686   5.807   7.105   1.428 -0.4434  0.0250 -0.0480
68593W        W11687   6.392   7.876   3.575  0.2515  0.2116  0.4888
68594W        W11688   4.706   9.486   0.573 -0.0108  0.2055 -0.0332
68595W        W11689   8.341   8.179   4.132  0.0334  0.0732 -0.2149
68596W        W11690   6.354   8.698   2.504  0.0421 -0.4239  0.0515
68597W        W11691   5.131   9.537   1.466  0.0585  0.1905 -0.0797
68598W        W11692   5.750   9.115   2.148  0.0811  0.0780 -0.1187
68599W        W11693   7.815   9.634   1.612  0.2155 -0.1635 -0.0982
68600W        W11694   4.361  10.300   2.257 -0.1790  0.0943 -0.1239
68601W        W11695   4.814   9.488   2.426  0.2347  0.1620  0.2222
68602W        W11696   4.950   8.745   4.041 -0.4574 -0.0862  0.0363
68603W        W11697   4.878   9.991   2.361 -0.1784 -0.0070 -0.0022
68604W        W11698   5.403   8.191   0.817 -0.1621 -0.0216  0.0073
68605W        W11699   5.795  10.340   0.064 -0.0702  0.0509  0.0687
68606W        W11700   4.257   9.764   1.913 -0.1768 -0.0104 -0.0011
68607W        W11701   3.330   9.054   1.625 -0.0566 -0.2719  0.0179
68608W        W11702   2.811  11.007   0.582  0.1021  0.2105  0.0669
68609W        W11703   7.123  10.728  31.280 -0.2521  0.0524 -0.1140
68610W        W11704   6.855   9.849  31.953  0.2331 -0.1523 -0.0783
68611W        W11705   5.139  10.999   2.419 -0.0844  0.0354 -0.1710
68612W        W11706   5.077   9.131   0.672  0.2521  0.1755 -0.2151
68613W        W11707   4.043   9.557   1.438 -0.0344 -0.0795 -0.0591
68614W        W11708   4.167   9.367  31.816 -0.1457  0.1376 -0.0624
68615W        W11709   6.091   8.705  31.888 -0.2467 -0.0717 -0.1138
68616W        W11710   3.716   9.723   1.807 -0.1520 -0.1686  0.2234
68617W        W11711   5.521   7.607   3.484 -0.3544  0.5116 -0.1544
68618W        W11712   6.740   7.274  30.145 -0.1999 -0.0965 -0.0737
68619W        W11713   6.774  10.565   0.626 -0.0660  0.3437 -0.0674
68620W        W11714   6.320   7.411  31.724 -0.0500 -0.3982 -0.1998
68621W        W11715   6.008  10.131   3.524  0.1331 -0.1260 -0.0637
68622W        W11716   6.147   7.652   1.441 -0.5611  0.2774  0.0883
68623W        W11717   4.812   7.039   1.793 -0.0597 -0.0411 -0.1307
68624W        W11718   5.268   7.892   1.992 -0.1857  0.1918 -0.0088
68625W        W11719   6.923   6.579   2.465  0.1667 -0.0142 -0.0272
68626W        W11720   4.628  10.750   3.886 -0.0591  0.1587  0.2904
68627W        W11721   5.316  12.332  30.957  0.0662 -0.1115 -0.2653
68628W        W11722   2.728   8.224   1.273  0.0647 -0.0860 -0.1828
68629W        W11723   7.198   7.280   2.537  0.0421  0.0379  0.1198
68630W        W11724   7.231   7.266   1.818  0.3181  0.0806 -0.1237
68631W        W11725   6.531   8.669  31.680 -0.0262 -0.1364  0.1652
68632W        W11726   6.606   9.211   0.935 -0.0852 -0.1649 -0.0513
68633W        W11727   5.708  10.232   2.128  0.0863  0.2068  0.0361
68634W        W11728   3.989   8.608   2.077  0.0937  0.1780  0.1832
68635W        W11729   4.326   9.988   3.252  0.0657 -0.1761 -0.0848
68636W        W11730   5.742   7.282   0.402 -0.3718  0.0188 -0.0547
68637W        W11731   8.010   9.486   0.372  0.0061  0.1967 -0.3640
68638W        W11732   4.278   8.625   3.990 -0.0734  0.0830  0.1845
68639W        W11733   7.328   7.503   3.471  0.0380 -0.1930  0.0289
68640W        W11734   5.335   8.539   1.201  0.0378 -0.1288  0.3048
68641W        W11735   5.912   7.500   0.962  0.2191 -0.0306 -0.1061
68642W        W11736   5.828   7.904   2.886  0.2093 -0.1480  0.1584
68643W        W11737   3.487   8.093   1.154 -0.0655 -0.2213 -0.1692
68644W        W11738   6.104   9.198   0.645 -0.1212  0.1296  0.1330
68645W        W11739   6.598   9.582   2.335  0.0022  0.2413 -0.2407
68646W        W11740   4.788   7.965  30.532 -0.0085  0.1746  0.3836
68647W        W11741   5.796  11.322   3.466 -0.0422 -0.2118 -0.2955
68648W        W11742   5.723   7.927   1.135  0.0160  0.1434 -0.3593
68649W        W11743   5.950   7.550   0.027  0.0599 -0.2777  0.0437
68650W        W11744   4.037   9.049   1.775  0.2489  0.0820  0.1678
68651W        W11745   4.429   7.939   2.767 -0.1200  0.0156 -0.3872
68652W        W11746   8.411  11.155   2.256  0.1875 -0.0434  0.0487
68653W        W11747   5.239   8.400   1.824  0.1624 -0.4173 -0.0532
68654W        W11748   6.379  10.231  31.399  0.1820  0.2338  0.2222
68655W        W11749   6.915   8.669   0.814 -0.1042  0.1083 -0.1646
68656W        W11750   3.702  10.509   0.775 -0.0540  0.1360 -0.0698
68657W        W11751   4.532   9.987   1.062  0.1412 -0.0347  0.0282
68658W        W11752   7.277  10.047   3.089 -0.0575  0.1332  0.1924
68659W        W11753   3.420   7.243   0.398 -0.0450  0.0192  0.2753
68660W        W11754   5.596   9.296   0.765 -0.0767  0.0754  0.1245
68661W        W11755   7.760  10.777   2.211  0.2439 -0.0884 -0.1418
68662W        W11756   5.681   8.028   0.182 -0.1211 -0.3499 -0.1737
68663W        W11757   4.510   7.621   2.254 -0.2613 -0.1089 -0.0896
68664W        W11758   2.951  10.053   1.302  0.3543 -0.0624  0.3543
68665W        W11759   8.264   7.400   2.871  0.0233 -0.1743  0.0240
68666W        W11760   6.973   7.761   1.687  0.0579 -0.1063 -0.1744
68667W        W11761   6.065   8.949  31.082 -0.1941  0.0030  0.1540
68668W        W11762   7.023   6.826   2.894 -0.1314  0.0539  0.3304
68669W        W11763   6.613   8.760   1.744  0.1127  0.1693 -0.0783
68670W        W11764   6.200   9.581   2.818  0.0588 -0.0025 -0.0382
68671W        W11765   3.706   9.075  31.614 -0.4641 -0.0774 -0.2713
68672W        W11766   5.503   9.433   1.793  0.0983 -0.0717  0.2089
68673W        W11767   4.783   9.439   1.042 -0.0157  0.0078 -0.0901
68674W        W11768   4.497   9.324   1.949 -0.1888 -0.0696 -0.0506
68675W        W11769   8.568   9.603   2.329 -0.0136 -0.1812  0.0832
68676W        W11770   5.352   9.073   1.381  0.0781  0.1784 -0.1476
68677W        W11771   5.346  10.480  31.819 -0.2060  0.2324 -0.1168
68678W        W11772   4.439   6.820   1.522  0.0045  0.0750  0.0306
68679W        W11773   6.697   6.815  29.775  0.0464 -0.1860 -0.0283
68680W        W11774   5.418   7.554   0.144 -0.0772 -0.1681 -0.3651
68681W        W11775   5.046   9.121   1.808  0.0651 -0.2405 -0.3240
68682W        W11776   5.413   7.366   1.192 -0.0685  0.3150 -0.1398
68683W        W11777   5.286   9.517  31.173 -0.1121 -0.1746 -0.1807
68684W        W11778   4.087  10.543   1.701  0.0704 -0.1895  0.0571
68685W        W11779   6.384   6.004   2.888  0.0341  0.0552 -0.1769
68686W        W11780   3.457   7.931   1.961 -0.0499  0.0543  0.0124
68687W        W11781   4.181   8.611   1.618  0.0507  0.1484  0.0025
68688W        W11782   5.546   8.824   0.650 -0.3891  0.0240  0.0718
68689W        W11783   7.535  10.286   0.529 -0.1193 -0.1099  0.0635
68690W        W11784   4.438   8.390   1.954 -0.1089 -0.1268  0.2229
68691W        W11785   3.980   7.315   0.256  0.2272  0.0253 -0.2371
68692W        W11786   7.353   9.271   0.048  0.3864  0.2538 -0.2428
68693W        W11787   5.280  10.179   0.689  0.1748  0.0055  0.2633
68694W        W11788   5.764   8.292  31.716  0.2417 -0.0669 -0.3123
68695W        W11789   6.578   9.994   2.642 -0.0401  0.1233  0.2064
68696W        W11790   3.898  11.514  30.943  0.1639 -0.1808  0.3065
68697W        W11791   6.300   7.207   3.635  0.0041  0.0744  0.0645
68698W        W11792   6.078   6.509   2.941 -0.0113  0.0116 -0.0482
68699W        W11793   2.160   7.023   1.496  0.1642 -0.1142  0.1240
68700W        W11794   6.496   6.969   2.239 -0.1704  0.4639  0.0514
68701W        W11795   4.602   9.641   0.062  0.0890 -0.1581  0.1536
68702W        W11796   5.390  11.392   1.580  0.1133 -0.2125 -0.0576
68703W        W11797   5.433   8.243   3.262  0.0570  0.2339 -0.2016
68704W        W11798   5.158  10.223   2.810 -0.1832 -0.1520  0.0288
68705W        W11799   2.679   7.867   2.622  0.0772  0.0601  0.0652
68706W        W11800   6.165  10.690  31.255 -0.2989  0.2761 -0.1083
68707W        W11801   5.769   7.805   1.710  0.0887  0.0793 -0.2533
68708W        W11802   7.000  10.150  31.227 -0.2464 -0.1740 -0.2345
68709W        W11803   7.368   7.420   1.301  0.1216  0.1113 -0.0533
68710W        W11804   4.654   8.442  30.528 -0.0556 -0.2437 -0.0676
68711W        W11805   3.668   7.874   3.323 -0.1144  0.1975 -0.0825
68712W        W11806   5.220   9.353   2.217 -0.0226 -0.2292  0.0616
68713W        W11807   6.925  10.271   1.788 -0.1947  0.0699 -0.0643
68714W        W11808   4.511   7.069   2.348 -0.0579 -0.3110  0.2493
68715W        W11809   4.870   7.638   0.460  0.0153 -0.2791  0.1843
68716W        W11810   5.633  11.343  30.818 -0.1591  0.4400  0.0354
68717W        W11811   5.872   8.390   0.820  0.0553  0.0871 -0.2035
68718W        W11812   5.305   8.960   0.178  0.2327 -0.2198  0.1722
68719W        W11813   6.611   7.942   1.378 -0.1546 -0.0732  0.2171
68720W        W11814   4.890  10.485   1.644  0.2299 -0.0537  0.0683
68721W        W11815   5.678   8.270   2.367 -0.0265 -0.0665 -0.0036
68722W        W11816   4.677   8.922  31.411 -0.1980 -0.1486 -0.1070
68723W        W11817   8.299   9.159   1.561  0.0652  0.3155  0.0651
68724W        W11818   5.770   9.665   2.256  0.2103  0.1638 -0.4048
68725W        W11819   8.037  10.684   4.637 -0.1788 -0.0471 -0.0103
68726W        W11820   4.899  11.016   1.885  0.0739 -0.0426  0.1887
68727W        W11821   6.742   9.974   0.837 -0.1029  0.0637  0.0356
68728W        W11822   4.707   7.697   3.111 -0.1106  0.0374 -0.1207
68729W        W11823   4.498   8.974  31.980 -0.2171  0.0822 -0.0860
68730W        W11824   6.075   9.298   1.089 -0.0823 -0.2360 -0.1315
68731W        W11825   6.385   9.012   0.173 -0.1213  0.1161  0.1726
68732W        W11826   6.200   8.099   1.155 -0.0327  0.0100  0.1380
68733W        W11827   6.415   6.566   0.352 -0.1029 -0.0305 -0.0059
68734W        W11828   4.787  11.352   2.935  0.0480  0.2912 -0.0158
68735W        W11829   6.574   8.393   2.209 -0.2280  0.2023  0.5912
68736W        W11830   6.202   7.852   5.644  0.1734  0.0690 -0.1788
68737W        W11831   4.917   8.078   4.587 -0.1277 -0.0150 -0.0398
68738W        W11832   5.596   7.251   3.088  0.1313 -0.2176  0.1859
68739W        W11833   6.939   8.509   3.157 -0.2073 -0.2240 -0.1321
68740W        W11834   3.892   6.813   4.875  0.0316  0.1915 -0.1394
68741W        W11835   5.650   9.390   4.433 -0.2411 -0.0896  0.1919
68742W        W11836   4.481   5.889   7.445  0.0195 -0.3655 -0.0097
68743W        W11837   6.304   9.237   3.856  0.1088 -0.0666  0.2291
68744W        W11838   5.568   9.533   5.176  0.0746  0.1509  0.1532
68745W        W11839   6.107   9.055   2.910  0.1856  0.0744 -0.2866
68746W        W11840   6.518   6.778   6.313 -0.2778  0.1231  0.1244
68747W        W11841   5.981   9.773   6.019 -0.1234 -0.2223 -0.0624
68748W        W11842   4.985   6.430   3.601 -0.1710  0.1176 -0.0433
68749W        W11843   3.495   6.876   5.863  0.0502  0.0581  0.1233
68750W        W11844   6.368   7.358   6.260 -0.0290 -0.5280  0.0290
68751W        W11845   2.883   7.506   4.643  0.2758  0.1553 -0.2285
68752W        W11846   5.249   6.609   5.615 -0.1066  0.1874 -0.1300
68753W        W11847   4.056   8.241   3.603 -0.0504 -0.0237 -0.2825
68754W        W11848   6.111   9.653   3.713  0.2368  0.1083  0.3022
68755W        W11849   5.231   7.131   5.092  0.1907  0.1994 -0.0427
68756W        W11850   6.047   5.482   6.802  0.1462  0.3382  0.0062
68757W        W11851   5.585   9.790   3.732  0.0113 -0.1137  0.1710
68758W        W11852   4.605   8.525   2.927 -0.0141 -0.0461  0.1534
68759W        W11853   3.306   7.518   5.776  0.0291 -0.0063  0.0655
68760W        W11854   5.799   8.086   6.018 -0.0982 -0.0712  0.0808
68761W        W11855   6.794   8.029   4.957  0.2125  0.0803  0.1744
68762W        W11856   7.401   8.090   5.225  0.1338  0.0657 -0.0135
68763W        W11857   5.081   9.699   5.198  0.1338  0.5543  0.0593
68764W        W11858   5.395   9.812   4.798  0.0041  0.1829 -0.2153
68765W        W11859   6.188   7.795   7.194 -0.0119 -0.3961 -0.0835
68766W        W11860   3.785   8.591   3.817 -0.1877  0.0506 -0.3454
68767W        W11861   3.791   9.867   5.720  0.0906  0.3386 -0.1120
68768W        W11862   5.112   8.445   4.976 -0.0916 -0.1099  0.1629
68769W        W11863   7.183   9.897   4.480  0.3147 -0.0302  0.0970
68770W        W11864   6.374   8.290   5.960  0.0409  0.3963  0.1395
68771W        W11865   5.326   9.949   6.422  0.2104  0.2695  0.0387
68772W        W11866   3.634   9.087   3.548  0.1663 -0.2040 -0.2480
68773W        W11867   6.242   8.580   6.849 -0.1744  0.5128 -0.1170
68774W        W11868   5.130   8.101   6.073  0.2211 -0.1365 -0.2109
68775W        W11869   5.938   8.614   4.827 -0.1466 -0.2445  0.0363
68776W        W11870   5.098   8.061   4.072 -0.1487 -0.3214 -0.1134
68777W        W11871   5.418   8.931   3.966  0.1738 -0.1250  0.2291
68778W        W11872   5.561   8.983   4.904 -0.2290  0.1346  0.0011
68779W        W11873   5.673   8.765   7.267  0.0483  0.0268 -0.0278
68780W        W11874   4.229   9.703   3.915  0.1948  0.3414  0.0350
68781W        W11875   8.145   7.573   7.025  0.2842 -0.2237  0.0606
68782W        W11876   6.090  10.532   3.831  0.1459 -0.4790 -0.1268
68783W        W11877   7.695   8.946   4.017  0.0070 -0.0046 -0.1864
68784W        W11878   5.007   8.012   3.514  0.2050  0.0080 -0.3240
68785W        W11879   7.568   7.444   4.148  0.3237 -0.3410  0.1868
68786W        W11880   6.068   6.547   5.425 -0.0357  0.0826  0.0033
68787W        W11881   5.302   9.712   4.262 -0.0346 -0.0641 -0.2147
68788W        W11882   4.926   6.469   4.552 -0.0767  0.2052 -0.0548
68789W        W11883   6.575   9.279   5.754 -0.1624  0.2202 -0.5185
68790W        W11884   6.488   7.428   4.661  0.0629 -0.1223 -0.2283
68791W        W11885   6.280   7.037   6.636  0.0657  0.4367 -0.1907
68792W        W11886   4.958   8.550   5.778  0.2389 -0.2056 -0.0725
68793W        W11887   4.137   8.102   4.087 -0.1715 -0.1969  0.0441
68794W        W11888   5.913  10.361   2.613  0.0965 -0.0075  0.1258
68795W        W11889   5.960   9.870   4.134 -0.1017  0.0623 -0.4454
68796W        W11890   6.258   9.191   2.428 -0.3225 -0.2136  0.1052
68797W        W11891   5.191   8.459   3.708 -0.1042  0.2285 -0.2284
68798W        W11892   3.697   8.149   5.309 -0.1939  0.1508  0.2292
68799W        W11893   3.315   7.911   7.029  0.0552  0.3305 -0.1346
68800W        W11894   4.367   6.697   4.297 -0.2519  0.1513  0.1240
68801W        W11895   6.855   9.401   5.299  0.0113 -0.0624 -0.1065
68802W        W11896   5.039   9.598   6.579 -0.0344 -0.0877  0.2543
68803W        W11897   7.075   6.312   4.498 -0.2327  0.0523  0.1813
68804W        W11898   4.664   8.570   5.317 -0.2387  0.1743 -0.2624
68805W        W11899   6.180   9.314   6.027 -0.0035  0.1864 -0.2762
68806W        W11900   6.345   9.375   3.228 -0.0892 -0.2455  0.0956
68807W        W11901   7.791   7.955   5.623  0.1238  0.1113 -0.0377
68808W        W11902   6.977   6.836   5.323 -0.3163  0.2332  0.2997
68809W        W11903   4.584   8.444   4.355  0.0223  0.0802  0.3065
68810W        W11904   6.103   7.975   4.052 -0.0468 -0.3213  0.1035
68811W        W11905   7.450   9.110   5.424 -0.1615  0.0445  0.5146
68812W        W11906   6.120  10.018   1.862  0.2925 -0.3320 -0.1626
68813W        W11907   4.681   9.963   5.293 -0.1829 -0.2505 -0.3026
68814W        W11908   5.687   6.381   6.249  0.4330 -0.1063 -0.1120
68815W        W11909   5.537   7.496   6.812  0.1766 -0.0651 -0.4200
68816W        W11910   5.142   9.673   3.659 -0.0638 -0.0929  0.0540
68817W        W11911   5.622   8.382   5.141 -0.0380 -0.1252  0.2103
68818W        W11912   5.469   9.314   3.573  0.2649 -0.0418 -0.0178
68819W        W11913   4.054   8.257   5.716 -0.0351 -0.1023 -0.1284
68820W        W11914   5.778   9.262   3.985 -0.1936  0.0016  0.0386
68821W        W11915   6.539   7.094   5.028 -0.1929 -0.1581 -0.2898
68822W        W11916   4.167   6.469   6.455 -0.1649 -0.1201 -0.1830
68823W        W11917   7.837   6.013   5.051  0.1001 -0.1958 -0.0257
68824W        W11918   4.710   9.494   3.343  0.0803 -0.1105  0.2851
68825W        W11919   7.460  10.057   3.588  0.2051  0.0684 -0.1240
68826W        W11920   7.703   8.475   3.672 -0.2519 -0.3212  0.1381
68827W        W11921   7.832  10.163   2.391 -0.1906 -0.3330 -0.1700
68828W        W11922   3.595   9.432   5.894  0.1547 -0.0075  0.0708
68829W        W11923   4.541   7.395   6.140 -0.0996  0.0039  0.1979
68830W        W11924   3.746   7.313   7.206  0.0904  0.0963 -0.0423
68831W        W11925   3.679   7.255   5.605  0.0992  0.1347 -0.0883
68832W        W11926   8.275   7.593   5.366  0.4875 -0.0575  0.1187
68833W        W11927   4.916   6.978   4.503 -0.0621 -0.2938 -0.0443
68834W        W11928   6.801   7.201   6.264 -0.2278  0.1095 -0.0009
68835W        W11929   4.301   9.234   3.620  0.0559  0.0668 -0.0182
68836W        W11930   4.406   9.293   4.648 -0.0535  0.1229 -0.2143
68837W        W11931   5.083   7.171   5.609 -0.1266 -0.5245  0.0757
68838W        W11932   5.576   9.161   3.073 -0.0912  0.1059 -0.1903
68839W        W11933   7.750   9.203   6.814 -0.0056  0.3996 -0.0673
68840W        W11934   5.814  10.588   5.788  0.0973 -0.0240  0.1039
68841W        W11935   4.971   7.116   6.112 -0.0913 -0.3249  0.0776
68842W        W11936   2.996   6.299   4.401  0.3448  0.0234  0.3268
68843W        W11937   3.754   9.921   5.062 -0.3351 -0.1450  0.1061
68844W        W11938   6.044   8.841   3.987  0.0612  0.0150  0.3586
68845W        W11939   3.607   6.298   3.934  0.0019  0.0622 -0.2568
68846W        W11940   6.897   9.702   4.930 -0.1008  0.0426 -0.0993
68847W        W11941   5.695   8.496   3.650 -0.0804 -0.2980  0.0250
68848W        W11942   5.447   7.102   6.316  0.3352 -0.2318 -0.0569
68849W        W11943   7.378   6.317   6.593 -0.0786 -0.0240 -0.1598
68850W        W11944   6.009   9.140   5.026  0.3165 -0.0920 -0.2227
68851W        W11945   6.404   7.729   5.160  0.1237 -0.5146 -0.0375
68852W        W11946   4.634   8.484   2.376 -0.0566  0.1017 -0.1600
68853W        W11947   6.744  10.228   5.862 -0.0408 -0.1793  0.1486
68854W        W11948   4.776   9.296   4.390 -0.0535  0.0192  0.1093
68855W        W11949   4.561   7.926   4.292  0.3066  0.1959  0.0403
68856W        W11950   5.138  10.724   3.694  0.0955  0.0926  0.0443
68857W        W11951   7.539   6.424   5.276 -0.3406  0.2471 -0.1893
68858W        W11952   4.115   7.908   7.596  0.1041  0.4833 -0.0952
68859W        W11953   6.424   6.397   6.719 -0.0650 -0.1999  0.1158
68860W        W11954   4.397   7.875   3.720  0.0999  0.1159 -0.1615
68861W        W11955   3.290  11.003   6.918 -0.1457  0.1287 -0.2440
68862W        W11956   6.319   6.957   4.528  0.1234  0.2675 -0.0419
68863W        W11957   7.573   7.113   2.963 -0.1606 -0.1386  0.0098
68864W        W11958   5.975   7.549   5.923 -0.0886 -0.1307 -0.0269
68865W        W11959   6.087   9.040   4.531  0.1274  0.1936  0.1917
68866W        W11960   5.981   7.536   3.226  0.1402  0.0020  0.0714
68867W        W11961   6.091   6.989   3.258  0.0018 -0.0028  0.1930
68868W        W11962   4.953   9.368   6.048 -0.0295 -0.1266 -0.1424
68869W        W11963   5.737  10.618   4.179  0.4863 -0.0416  0.1554
68870W        W11964   6.621   8.559   5.181  0.0421 -0.4200  0.0769
68871W        W11965   4.539   7.384   3.596  0.0075 -0.3272  0.1921
68872W        W11966   5.953   9.863   5.118 -0.0561 -0.1540 -0.0498
68873W        W11967   3.917   8.102   6.199 -0.0734 -0.3280 -0.1797
68874W        W11968   6.952   9.336   6.676  0.2014 -0.1141 -0.1766
68875W        W11969   7.369   9.799   5.421  0.1919 -0.3750 -0.3291
68876W        W11970   6.088   7.001   6.006  0.4529  0.1222  0.3579
68877W        W11971   4.956   7.207   3.878  0.1352 -0.1870  0.0143
68878W        W11972   4.641   6.817   5.646 -0.0211 -0.2176 -0.1465
68879W        W11973   4.218  11.159   3.845  0.2014  0.2887  0.2351
68880W        W11974   7.696   7.003   5.849  0.2502  0.0136 -0.1449
68881W        W11975   6.579   6.200   4.814 -0.0204 -0.3699  0.3166
68882W        W11976   5.350   7.082   7.035  0.1888  0.4510  0.1918
68883W        W11977   7.122   7.641   7.061 -0.2456  0.2388 -0.1335
68884W        W11978   6.624   9.292   2.822  0.3925  0.2439 -0.1025
68885W        W11979   6.964   8.012   7.267  0.1110  0.3074  0.3361
68886W        W11980   4.349   8.849   2.640 -0.0338  0.2228 -0.2326
68887W        W11981   6.908   6.769   5.965 -0.3716  0.0903  0.1231
68888W        W11982   5.070   7.186   6.611 -0.0857 -0.0536  0.0423
68889W        W11983   4.429   8.281   6.205  0.2553  0.0448 -0.0636
68890W        W11984   5.939   8.591   6.057 -0.3061  0.0228 -0.4154
68891W        W11985   6.679   9.252   4.275 -0.3988 -0.4738  0.1598
68892W        W11986   5.719   7.787   7.213  0.0148 -0.2101 -0.1059
68893W        W11987   6.971   5.289   3.626 -0.0258  0.0812 -0.1584
68894W        W11988   5.871  10.754   3.409 -0.3812 -0.1486 -0.2476
68895W        W11989   4.877   8.568   1.513  0.1370  0.2218  0.3851
68896W        W11990   3.721   6.074   4.523 -0.0898 -0.1505 -0.2401
68897W        W11991   5.764   7.908   6.668  0.2015 -0.1167  0.1020
68898W        W11992   4.642   8.962   3.128 -0.1625 -0.0105  0.1527
68899W        W11993   6.365   8.838   6.174  0.2780  0.1334  0.2824
68900W        W11994   5.736   9.867   2.757 -0.1661  0.3890 -0.1437
68901W        W11995   6.344   6.091   5.598  0.1425  0.1829  0.1153
68902W        W11996   4.781   9.826   4.205 -0.0547  0.1441 -0.0806
68903W        W11997   4.171   7.610   4.267 -0.0932  0.0034 -0.4769
68904W        W11998   3.360   8.426   4.569  0.1131 -0.0608 -0.0630
68905W        W11999   7.223   7.144   5.732  0.0217 -0.0942 -0.2321
68906W        W12000   6.139   8.380   3.719 -0.1444  0.1385  0.3086
68907W        W12001   3.493   8.249   6.710  0.0752 -0.2152  0.0416
68908W        W12002   5.311   7.650   3.949  0.1797  0.0215 -0.3996
68909W        W12003   4.733   8.899   4.767  0.5489  0.1113 -0.3462
68910W        W12004   4.761   8.012   5.167  0.0170 -0.1484  0.1260
68911W        W12005   7.980   7.772   4.171 -0.3168  0.0825 -0.2602
68912W        W12006   5.821   8.232   5.559  0.0377  0.1751  0.2738
68913W        W12007   4.551   7.519   6.823 -0.0516  0.2473 -0.0190
68914W        W12008   3.230   7.914   4.427 -0.1974  0.2768  0.1001
68915W        W12009   7.661   8.488   4.797 -0.1533 -0.0200 -0.0313
68916W        W12010   5.794   6.775   4.506 -0.2212 -0.0670  0.1679
68917W        W12011   2.977  10.387   5.268  0.0591  0.0925 -0.0930
68918W        W12012   6.132   8.576   5.337  0.1123 -0.0404 -0.1346
68919W        W12013   4.419   8.093   3.242 -0.2298  0.3504 -0.3009
68920W        W12014   4.243   8.871   5.071  0.3694 -0.0786  0.0702
68921W        W12015   4.872   7.696   6.411 -0.0126  0.0404  0.0097
68922W        W12016   6.780   7.722   6.580  0.0163  0.2807 -0.2696
68923W        W12017   6.058   7.418   5.424 -0.0673 -0.3808 -0.1832
68924W        W12018   6.188   6.654   4.930  0.0683  0.0342 -0.1174
68925W        W12019   5.408   7.191   4.472  0.0046 -0.2076 -0.1262
68926W        W12020   7.146   9.431   5.729 -0.1457  0.0956  0.1311
68927W        W12021   5.316   6.700   6.097 -0.3391 -0.1751  0.2638
68928W        W12022   4.737   8.701   6.626  0.0563 -0.0635  0.1343
68929W        W12023   5.753   6.489   6.949 -0.0972 -0.1783 -0.2204
68930W        W12024   7.821  10.516   5.463 -0.2566 -0.0460  0.0721
68931W        W12025   7.318   7.882   5.750 -0.1363 -0.0254 -0.1347
68932W        W12026   4.221   8.318   5.222 -0.0624 -0.1141 -0.0691
68933W        W12027   3.999   8.639   6.111 -0.1477  0.3990  0.1409
68934W        W12028   5.628   8.780   4.433  0.2348 -0.1217  0.2022
68935W        W12029   4.727   5.812   5.419  0.1916  0.0583 -0.1749
68936W        W12030   4.599   9.017   5.487 -0.1817  0.1821 -0.0519
68937W        W12031   5.299  10.469   4.084  0.1444  0.0261  0.0399
68938W        W12032   4.639   8.823   6.102 -0.1466  0.1426  0.0836
68939W        W12033   6.591   6.470   2.866 -0.1277 -0.3608  0.0125
68940W        W12034   3.476   8.820   3.117 -0.1239 -0.2151 -0.1162
68941W        W12035   6.449   5.734   4.940  0.0594 -0.1179  0.0579
68942W        W12036   5.892   7.395   6.406  0.0905  0.1055 -0.0856
68943W        W12037   5.683   7.814   4.260 -0.0144  0.1151  0.1385
68944W        W12038   6.883   7.188   7.301  0.2099 -0.0731  0.0575
68945W        W12039   4.396   6.954   6.586 -0.3751 -0.1366  0.4098
68946W        W12040   5.993   9.765   4.644 -0.2334  0.3145 -0.2898
68947W        W12041   4.008   7.031   6.241  0.0714 -0.1689  0.0332
68948W        W12042   6.139  10.891   6.813 -0.2413 -0.5809 -0.3878
68949W        W12043   3.671   6.676   6.324 -0.1834  0.0121 -0.0567
68950W        W12044   6.503   8.136   5.432 -0.0251 -0.2159 -0.0282
68951W        W12045   3.523   6.723   4.085  0.2173 -0.1703 -0.1692
68952W        W12046   4.532   8.268   6.789  0.0085  0.2918  0.1821
68953W        W12047   5.927   7.892   5.149 -0.0483 -0.2234  0.1660
68954W        W12048   6.783   9.002   3.840 -0.1447 -0.0470 -0.1471
68955W        W12049   7.554   7.856   4.423 -0.1079  0.0989 -0.1270
68956W        W12050   4.394   7.871   6.525  0.0057  0.0887 -0.3045
68957W        W12051   6.390   8.811   3.569  0.0651 -0.0422  0.0557
68958W        W12052   6.208   8.499   4.370  0.0883 -0.5246 -0.1687
68959W        W12053   5.256   8.498   4.303  0.1470 -0.2252 -0.1807
68960W        W12054   4.402   6.678   6.974  0.0163  0.0736 -0.0726
68961W        W12055   7.190   8.154   4.164 -0.0324 -0.1310  0.0441
68962W        W12056   4.686   7.350   5.205  0.2799  0.0482  0.3270
68963W        W12057   6.970   8.173   6.786 -0.0356 -0.1496  0.1042
68964W        W12058   6.828   7.261   5.444  0.1474 -0.0878 -0.1283
68965W        W12059   5.777   7.032   6.732  0.0590 -0.1261  0.0143
68966W        W12060   2.998   6.197   7.007 -0.1741  0.0948 -0.1241
68967W        W12061   5.901   9.842   7.090  0.3276  0.1468 -0.0046
68968W        W12062   7.715   7.585   3.109  0.1124  0.2193 -0.0099
68969W        W12063   7.240   7.597   6.534  0.0206 -0.0340  0.0150
68970W        W12064   7.429   8.600   4.352  0.2216  0.2449  0.3156
68971W        W12065   6.366   6.419   3.339 -0.0303  0.0187  0.1229
68972W        W12066   3.664   6.356   6.942 -0.0860 -0.2362  0.0476
68973W        W12067   7.032   7.591   6.013 -0.2570 -0.1739  0.0424
68974W        W12068   4.273   6.925   3.489 -0.2277  0.3792 -0.0913
68975W        W12069   6.565   5.851   6.675 -0.0265 -0.2462 -0.1746
68976W        W12070   5.097   9.257   3.145 -0.0494 -0.0168 -0.1868
68977W        W12071   6.641   8.453   4.626  0.0051  0.1154  0.1952
68978W        W12072   6.757   7.114   4.299 -0.1825  0.0341  0.2583
68979W        W12073   3.301   8.145   5.018  0.0060  0.2203 -0.0569
68980W        W12074   4.696   9.014   7.205 -0.1035 -0.2172  0.0203
68981W        W12075   3.580   7.274   3.825 -0.0551  0.2495 -0.0157
68982W        W12076   5.431   8.829   3.485 -0.2202 -0.1220 -0.0985
68983W        W12077   4.477   6.889   6.088  0.0612  0.0485  0.0813
68984W        W12078   7.318  10.306   5.350 -0.1089  0.1173 -0.2050
68985W        W12079   6.762   6.078   3.176  0.0466  0.2056  0.1859
68986W        W12080   7.034   7.062   4.865 -0.0099 -0.3034 -0.3389
68987W        W12081   3.893  10.165   3.585  0.1048  0.3560  0.1266
68988W        W12082   8.533   6.417   4.386  0.0159  0.1437  0.1892
68989W        W12083   4.413   9.694   5.974  0.0358  0.1229 -0.0678
68990W        W12084   4.687   9.427   5.078 -0.0514  0.0731 -0.0196
68991W        W12085   4.576   8.423   4.854 -0.0054  0.0615 -0.0245
68992W        W12086   5.779   6.655   5.849  0.2768  0.1189 -0.3177
68993W        W12087   5.961   8.095   4.622  0.0928 -0.0114 -0.2850
68994W        W12088   4.765   8.029   5.721  0.1698 -0.0842 -0.0700
68995W        W12089   5.943   8.238   7.091  0.0872  0.0985  0.2514
68996W        W12090   5.600   7.543   5.198 -0.0046 -0.3627  0.5094
68997W        W12091   4.153   7.857   5.059  0.0299 -0.0234  0.3215
68998W        W12092   6.087  10.370   6.653  0.1592 -0.2976  0.1076
68999W        W12093   6.391   8.300   3.277  0.3809  0.0026  0.3548
69000W        W12094   5.411  10.210   5.806  0.2447  0.0787  0.3247
69001W        W12095   2.795   7.643   7.022  0.1367  0.0186 -0.1335
69002W        W12096   5.381   8.332   7.286 -0.0249  0.1111 -0.2769
69003W        W12097   6.347   6.952   5.546  0.0502 -0.0268  0.0606
69004W        W12098   4.478   7.105   4.031  0.1669 -0.0297  0.0365
69005W        W12099   4.664   9.764   2.862  0.0322  0.2903  0.0191
69006W        W12100   4.678   9.492   6.978  0.4150  0.1115 -0.1502
69007W        W12101   4.582   8.688   7.630 -0.0217 -0.0079  0.0242
69008W        W12102   4.875  10.270   3.927 -0.1434 -0.3011  0.1032
69009W        W12103   5.827   9.551   3.274  0.1788 -0.1690  0.1560
69010W        W12104   6.097   8.313   2.759  0.1988 -0.0374  0.0412
69011W        W12105   6.092   8.973   5.641 -0.1376 -0.1648  0.0592
69012W        W12106   5.870   6.346   3.333 -0.0039 -0.0157  0.0853
69013W        W12107   4.863  10.538   4.357 -0.1718  0.1602 -0.1991
69014W        W12108   3.519   9.253   2.562  0.0136 -0.0458  0.1939
69015W        W12109   5.369   9.708   3.230  0.0232  0.0903  0.1110
69016W        W12110   3.768  10.682   5.641  0.1278  0.0603 -0.2387
69017W        W12111   6.388  10.656   5.707 -0.1807 -0.1012  0.2073
69018W        W12112   7.072   7.647   4.016  0.1479  0.1073 -0.1444
69019W        W12113   7.671   9.570   5.757  0.1772 -0.1305 -0.3476
69020W        W12114   7.874   7.558   3.663 -0.1283  0.0392 -0.0005
69021W        W12115   5.855   9.896   6.514 -0.1726 -0.1605 -0.0708
69022W        W12116   5.571   7.194   5.806  0.1819  0.0663  0.0355
69023W        W12117   5.016   5.985   4.439 -0.2714  0.1701 -0.3613
69024W        W12118   4.014   7.315   6.764  0.1386  0.1058 -0.0868
69025W        W12119   7.914   6.791   6.242  0.0549 -0.1515 -0.3127
69026W        W12120   4.629   9.221   6.437 -0.1745  0.2313 -0.5847
69027W        W12121   7.240   9.436   3.129  0.2654  0.1569  0.1553
69028W        W12122   4.521   6.610   4.799 -0.1536 -0.1678  0.1638
69029W        W12123   3.657   8.106   4.268 -0.1916  0.1437  0.0832
69030W        W12124   7.404   6.638   5.688 -0.3421  0.0881 -0.1061
69031W        W12125   5.970   7.522   3.846 -0.1234 -0.2690  0.2758
69032W        W12126   6.475   9.022   5.282 -0.1780  0.2980 -0.2560
69033W        W12127   4.934   9.039   3.613  0.0032 -0.0182 -0.2089
69034W        W12128   4.128   7.686   7.118 -0.1148  0.1117 -0.1918
69035W        W12129   4.419  10.303   5.072  0.2584 -0.0665  0.0678
69036W        W12130   2.562   7.529   3.695 -0.2886  0.0789  0.5066
69037W        W12131   8.271   8.417   4.534  0.0438 -0.1466 -0.1932
69038W        W12132   3.797   7.812   6.688  0.0851  0.0984 -0.2957
69039W        W12133   7.818   8.672   6.285  0.0810 -0.0896  0.0755
69040W        W12134   4.011   7.075   4.323  0.1424  0.0250  0.1386
69041W        W12135   7.144   8.620   3.864 -0.2763  0.0661 -0.3270
69042W        W12136   6.093   8.316   6.443  0.1320  0.0291 -0.1298
69043W        W12137   3.995   7.513   6.297  0.1290  0.0145 -0.1446
69044W        W12138   6.749   8.392   3.602 -0.0648 -0.5680  0.1423
69045W        W12139   7.237   8.482   7.107  0.1871 -0.2254 -0.0119
69046W        W12140   6.994   7.381   3.052  0.2045  0.3286  0.0056
69047W        W12141   5.955  10.548   7.090  0.0421 -0.0738 -0.3711
69048W        W12142   3.562   7.122   4.609  0.2743  0.1479 -0.0703
69049W        W12143   6.223   7.849   2.549 -0.0138 -0.1705  0.1845
69050W        W12144   4.223   8.192   4.634  0.0478 -0.1322  0.0984
69051W        W12145   4.359   7.910   5.483 -0.4269  0.2571 -0.3883
69052W        W12146   6.275  11.473   7.145  0.1737 -0.0372  0.0025
69053W        W12147   5.142   7.665   4.378 -0.0599  0.2288  0.1585
69054W        W12148   6.601   8.150   2.671  0.0776 -0.1722  0.2133
69055W        W12149   7.655   7.523   5.913 -0.1579 -0.1069 -0.0500
69056W        W12150   4.649  11.501   4.840  0.2616 -0.0552 -0.2240
69057W        W12151   6.633   9.491   3.606  0.0009 -0.1017  0.4030
69058W        W12152   4.972  11.023   5.604  0.1230  0.1602  0.1430
69059W        W12153   3.412   7.482   6.799 -0.3324 -0.0725  0.0515
69060W        W12154   6.570   8.386   6.562 -0.3195 -0.1913  0.1821
69061W        W12155   5.955  10.335   4.918  0.2632  0.0957 -0.0229
69062W        W12156   6.641   6.844   3.680  0.0466 -0.1917  0.0311
69063W        W12157   3.801   6.375   5.890 -0.0568  0.1586  0.3905
69064W        W12158   3.920   9.559   2.678 -0.0917 -0.2611 -0.0144
69065W        W12159   7.124   7.021   6.574 -0.3236  0.0315 -0.1274
69066W        W12160   5.491   7.814   5.652  0.0065 -0.0041 -0.2243
69067W        W12161   6.228  11.103   3.682 -0.1718 -0.2649  0.1656
69068W        W12162   7.941   6.991   4.968 -0.0698 -0.2567  0.0089
69069W        W12163   5.031  10.064   6.053  0.1881 -0.2516  0.2402
69070W        W12164   5.572   9.013   6.777 -0.1706 -0.0451 -0.0797
69071W        W12165   3.900   8.990   2.340 -0.0176  0.1684  0.1182
69072W        W12166   6.442   7.422   5.753  0.0665  0.2082 -0.1500
69073W        W12167   4.803   9.773   4.697 -0.1675 -0.0793  0.0032
69074W        W12168   5.601  10.430   3.675  0.1548  0.1436 -0.1977
69075W        W12169   6.882   9.839   5.491 -0.0278  0.2112  0.0358
69076W        W12170   6.074   7.352   4.934  0.0636  0.2569 -0.2321
69077W        W12171   7.766   8.621   5.265 -0.1144 -0.3313  0.0163
69078W        W12172   5.901   7.227   4.480 -0.1457 -0.0639  0.3516
69079W        W12173   7.225   7.095   3.996 -0.0575 -0.3146 -0.3675
69080W        W12174   8.593   6.712   4.012 -0.0012 -0.2060 -0.1567
69081W        W12175   5.240   8.828   7.152 -0.1055  0.2538  0.0310
69082W        W12176   4.566   9.253   2.736 -0.2158 -0.0436 -0.1878
69083W        W12177   4.211   9.489   3.088  0.1544 -0.1449  0.1124
69084W        W12178   5.733   8.413   4.156  0.0405  0.1756 -0.1847
69085W        W12179   6.582   6.246   6.257 -0.0903  0.1299  0.1105
69086W        W12180   3.914   6.799   6.741 -0.0851  0.0020 -0.0732
69087W        W12181   4.300   7.795   5.977  0.0044 -0.1050 -0.1746
69088W        W12182   4.718   7.420   4.284  0.1823 -0.1653 -0.1371
69089W        W12183   6.844   9.755   3.137 -0.0489  0.1414 -0.0808
69090W        W12184   3.767   7.825   5.732 -0.0364  0.2878 -0.2518
69091W        W12185   3.733   8.571   4.934  0.2559 -0.0232  0.1665
69092W        W12186   7.255   7.803   4.857  0.0762 -0.2127 -0.1097
69093W        W12187   5.605  10.137   3.238  0.1291 -0.1636  0.1803
69094W        W12188   5.768   7.653   4.712  0.1939  0.1358 -0.3000
69095W        W12189   6.493  10.500   7.068  0.0836  0.2273  0.0269
69096W        W12190   5.045   8.629   2.688  0.1551 -0.1004 -0.1103
69097W        W12191   6.032   8.979   7.045 -0.2184  0.0020 -0.3555
69098W        W12192   5.302   6.367   7.295  0.0190  0.1727  0.1457
69099W        W12193   2.803   5.847   4.677 -0.0636  0.0333 -0.3820
69100W        W12194   5.682   7.057   4.925 -0.0389  0.1182  0.0938
69101W        W12195   5.476  10.455   4.931  0.3004  0.1316 -0.1450
69102W        W12196   6.857  10.305   4.429  0.0067  0.2645  0.1942
69103W        W12197   3.608   8.318   5.863  0.2331  0.0341 -0.0032
69104W        W12198   5.216   8.758   5.394  0.0337 -0.3672  0.2128
69105W        W12199   4.845   6.787   5.173 -0.2099  0.3352 -0.0698
69106W        W12200   5.947   9.122   3.470  0.1661  0.1458 -0.3936
69107W        W12201   4.879   7.948   6.990  0.1726 -0.0281 -0.2361
69108W        W12202   5.501   8.275   4.651 -0.0966 -0.1434 -0.1591
69109W        W12203   7.363   6.715   6.248 -0.1383  0.1372 -0.0163
69110W        W12204   6.907   7.770   4.483  0.0936  0.2691 -0.3028
69111W        W12205   4.179   7.410   5.339  0.1258 -0.2459 -0.0496
69112W        W12206   4.282   8.763   6.491 -0.0834 -0.0741 -0.3474
69113W        W12207   6.397   8.821   4.843  0.1346 -0.1439 -0.3689
69114W        W12208   3.393   7.573   4.799 -0.3107 -0.2025 -0.0310
69115W        W12209   8.042   6.013   3.596 -0.0666 -0.1863 -0.1001
69116W        W12210   6.914   9.569   3.996 -0.0920 -0.2125 -0.2707
69117W        W12211   3.461   7.827   6.186 -0.2080  0.1179 -0.0542
69118W        W12212   6.243   7.192   4.119  0.3017  0.0243  0.0164
69119W        W12213   5.470   7.724   6.315 -0.3135  0.2016  0.1275
69120W        W12214   7.326   7.472   5.354  0.2000 -0.0217  0.0519
69121W        W12215   7.624   8.137   6.087  0.4984  0.1299 -0.0032
69122W        W12216   4.704   8.311   3.891  0.0390 -0.2590  0.0021
69123W        W12217   5.958   8.622   3.201 -0.1679 -0.1100 -0.0956
69124W        W12218   6.536   9.713   6.071 -0.0048 -0.2568  0.0310
69125W        W12219   6.243  11.259   6.446  0.0432  0.1501 -0.1460
69126W        W12220   5.641   9.086   5.429 -0.1635  0.0441 -0.2913
69127W        W12221   6.552   8.686   5.699 -0.1437  0.1606 -0.1673
69128W        W12222   3.514   5.893   5.874  0.0865  0.0019  0.0187
69129W        W12223   5.046   7.631   5.429 -0.0363 -0.0160  0.1541
69130W        W12224   5.232   7.836   4.998  0.2080 -0.1555  0.0744
69131W        W12225   6.877   7.792   5.509 -0.0266  0.1306 -0.4156
69132W        W12226   4.967   7.410   4.802  0.0547  0.3802 -0.1654
69133W        W12227   6.828   7.375   3.682 -0.1077 -0.0329  0.0817
69134W        W12228   3.576  11.351   6.470  0.2563  0.0533 -0.0334
69135W        W12229   6.311   8.259   5.008  0.3592 -0.0068 -0.0855
69136W        W12230   4.168   8.940   9.398 -0.0712 -0.0362  0.0309
69137W        W12231   4.961   7.823   8.108  0.0579 -0.0706  0.4154
69138W        W12232   7.696   7.962   8.287  0.0637 -0.0312 -0.1834
69139W        W12233   6.421   8.524   7.832  0.0300 -0.0010  0.0094
69140W        W12234   4.907   7.211   8.014  0.0210  0.1251 -0.0653
69141W        W12235   7.258  11.583   9.761 -0.0476 -0.1354 -0.1283
69142W        W12236   6.391   9.419   8.479 -0.1299  0.1082 -0.2116
69143W        W12237   7.397   8.559   9.201 -0.4068 -0.3461 -0.0859
69144W        W12238   6.989   8.964   5.914  0.1625  0.0331 -0.0492
69145W        W12239   6.156   9.197   9.437  0.0394 -0.0540 -0.1938
69146W        W12240   6.420   6.353   7.308  0.1057 -0.0889 -0.2537
69147W        W12241   3.765   4.631   9.568 -0.0731 -0.2991 -0.1601
69148W        W12242   5.392   7.461   8.095  0.2327 -0.1506  0.0818
69149W        W12243   4.001   8.285   8.418  0.1780 -0.0079 -0.1361
69150W        W12244   3.534   7.862   8.604 -0.0023 -0.2620  0.4056
69151W        W12245   7.564   7.542   7.900 -0.0224 -0.1350 -0.2268
69152W        W12246   6.906   9.933   7.765  0.4770 -0.2488 -0.0009
69153W        W12247   1.641   7.166   9.199  0.2378  0.0669 -0.0767
69154W        W12248   5.727  10.501   7.896 -0.2289 -0.1869  0.0880
69155W        W12249   4.870   7.280   7.081 -0.2659  0.2968  0.1082
69156W        W12250   3.561   7.455   8.344  0.0753  0.1701 -0.1216
69157W        W12251   1.950   7.283  10.238 -0.2058  0.2966  0.2589
69158W        W12252   6.863   6.726   8.217 -0.0390  0.0816 -0.1268
69159W        W12253   5.655   7.906   9.106 -0.0305  0.1560 -0.1316
69160W        W12254   5.826   9.798   7.583 -0.0624 -0.1143  0.0102
69161W        W12255   5.047  10.090   7.432 -0.0241 -0.1230  0.1969
69162W        W12256   2.850   9.921   9.446 -0.1536 -0.0829  0.0578
69163W        W12257   2.952   9.949   7.170 -0.0624 -0.2406  0.2121
69164W        W12258   6.439   9.774   7.567 -0.1118 -0.0432 -0.0938
69165W        W12259   6.515  10.315   8.057 -0.0562 -0.3311 -0.1120
69166W        W12260   3.612   9.633   8.463  0.0405  0.2660  0.1609
69167W        W12261   3.279   7.612   9.193 -0.0855 -0.0144 -0.1240
69168W        W12262   5.971   7.597   7.629  0.2156  0.1082 -0.0539
69169W        W12263   4.301   9.597   8.036 -0.1616 -0.1776 -0.1861
69170W        W12264   5.910   9.572   8.458  0.4236 -0.0059 -0.2368
69171W        W12265   3.190   9.910   8.817 -0.1140 -0.1740 -0.1482
69172W        W12266   5.131   9.364   7.101 -0.1876 -0.3394  0.1707
69173W        W12267   6.484   8.816   7.412  0.0464  0.0851  0.1217
69174W        W12268   5.222   7.647   7.220 -0.1200 -0.2778  0.1093
69175W        W12269   7.845   7.072   7.166 -0.0073 -0.3172  0.0947
69176W        W12270   4.451   7.038   8.537 -0.0893  0.0678 -0.3476
69177W        W12271   4.451  10.028   8.645 -0.0665 -0.0813  0.0899
69178W        W12272   4.926   8.371   8.941  0.3752 -0.1006 -0.1863
69179W        W12273   5.196   8.588   6.762 -0.3272  0.1108  0.1688
69180W        W12274   6.039   6.623   9.027 -0.0610 -0.1559  0.0251
69181W        W12275   4.467   8.598   9.047  0.1235  0.1862  0.2168
69182W        W12276   3.346   9.758   7.880  0.0124  0.1342 -0.0765
69183W        W12277   7.485  10.312   5.863  0.0648  0.0889  0.3483
69184W        W12278   8.342   9.921   8.857  0.1189  0.0847 -0.1950
69185W        W12279   6.438   9.317   6.466 -0.0901  0.1341 -0.2330
69186W        W12280   4.522   7.621   7.862 -0.1841  0.2871  0.1671
69187W        W12281   4.394   6.809   7.551  0.4179  0.3135  0.1417
69188W        W12282   6.166   5.246   9.064  0.1546  0.0569 -0.6428
69189W        W12283   5.750   8.105   8.582 -0.1480 -0.0132 -0.0339
69190W        W12284   7.120   9.514   8.052  0.1964 -0.2149  0.1272
69191W        W12285   6.827   8.801   6.378  0.0791  0.0314 -0.2009
69192W        W12286   5.572   6.398   9.025 -0.2167  0.0358 -0.2025
69193W        W12287   6.457   7.068   9.120 -0.3477 -0.2604 -0.1566
69194W        W12288   5.306   9.076   8.114  0.2530 -0.2430  0.0738
69195W        W12289   7.618  12.135   9.419 -0.1891 -0.0714  0.1612
69196W        W12290   6.848   8.530   7.494  0.2301  0.2995 -0.0204
69197W        W12291   4.802   9.595   9.950  0.1464  0.0735  0.0292
69198W        W12292   4.351  10.085   8.114  0.1763 -0.3537  0.1018
69199W        W12293   4.854   8.953   8.071  0.1479  0.0425  0.2836
69200W        W12294   4.202   9.584   7.070 -0.0206 -0.1536 -0.1032
69201W        W12295   4.896   7.716   9.093  0.2299  0.1294 -0.0385
69202W        W12296   3.822   9.128   9.884 -0.0001  0.1296 -0.2616
69203W        W12297   7.801   8.271   7.428  0.2851 -0.0638 -0.0933
69204W        W12298   6.637   6.238   9.676 -0.2184 -0.0351  0.1480
69205W        W12299   3.831   9.931   8.064  0.0551 -0.0591 -0.3850
69206W        W12300   6.957   9.998   8.707 -0.0547  0.0552 -0.2780
69207W        W12301   7.087   8.074   6.305 -0.0792 -0.2489 -0.1154
69208W        W12302   6.216  10.167   7.313 -0.0415  0.1157 -0.0613
69209W        W12303   3.077   8.502  10.056  0.0216  0.1888  0.0262
69210W        W12304   4.361   8.019   9.823 -0.0336 -0.2163 -0.0666
69211W        W12305   4.462   6.605   9.252 -0.1105 -0.2733 -0.0568
69212W        W12306   4.997   6.249   8.483 -0.2475  0.0116  0.4810
69213W        W12307   5.558   9.653   8.788 -0.1568 -0.3060  0.2147
69214W        W12308   5.046   8.355   8.442 -0.2160  0.0757 -0.1620
69215W        W12309   3.143   8.816   7.459 -0.1207  0.3192  0.0432
69216W        W12310   5.430   9.741   7.227 -0.1714  0.0974  0.3571
69217W        W12311   7.911   9.867   8.623 -0.2421  0.0131  0.1471
69218W        W12312   5.616   8.205   9.588 -0.0551 -0.0462 -0.3182
69219W        W12313   3.644   7.574   9.582 -0.1133  0.0689  0.3659
69220W        W12314   4.174   6.356   7.346 -0.1773  0.2457  0.0974
69221W        W12315   2.376  11.148   9.305 -0.3907  0.1273  0.0331
69222W        W12316   5.969   8.627   9.543  0.2325 -0.0944  0.3335
69223W        W12317   4.029   6.400   8.428  0.0176  0.2507  0.3284
69224W        W12318   6.560  10.808   8.401 -0.1790 -0.1152 -0.1001
69225W        W12319   5.448  10.832   7.496  0.2587  0.0432 -0.0121
69226W        W12320   7.245   9.051   9.455  0.4777 -0.0512 -0.0545
69227W        W12321   5.022   9.071   6.730  0.2668 -0.0116 -0.2369
69228W        W12322   4.108   7.538   8.140 -0.1254 -0.2487  0.0636
69229W        W12323   6.580  10.042   6.906  0.0770 -0.0998 -0.2558
69230W        W12324   4.603   9.220   7.756  0.2946  0.2337  0.1573
69231W        W12325   3.460   9.150   8.444 -0.1957 -0.2655  0.3236
69232W        W12326   5.026   9.794   8.729 -0.0973  0.1269  0.4083
69233W        W12327   5.688   8.560   8.732  0.0423 -0.5197  0.1126
69234W        W12328   4.755   8.767   8.570  0.1626 -0.3951 -0.0197
69235W        W12329   7.243   5.911   7.908  0.2182 -0.0024  0.0128
69236W        W12330   7.292   8.265   8.060 -0.4249  0.0833 -0.2145
69237W        W12331   6.838   9.097   7.180 -0.0056 -0.1492  0.5645
69238W        W12332   8.101   8.190   6.100  0.1950  0.1212  0.1174
69239W        W12333   6.145   6.738   7.061  0.3295 -0.0422 -0.2465
69240W        W12334   6.469   9.264   7.583  0.0072 -0.1278  0.0218
69241W        W12335   6.180   9.980   8.319  0.0168  0.3089  0.0277
69242W        W12336   6.214   8.064   7.707  0.0984  0.0933 -0.0429
69243W        W12337   6.984  10.186   8.172  0.0255  0.0320  0.0419
69244W        W12338   4.623   7.882  10.257  0.2759  0.0308 -0.2765
69245W        W12339   6.878   9.859   6.568  0.3580 -0.0493 -0.0018
69246W        W12340   4.427   7.501   8.797  0.1517 -0.0940  0.1970
69247W        W12341   5.135   7.553   5.989  0.1846 -0.0091 -0.2287
69248W        W12342   6.527   8.707   8.303 -0.4081 -0.0562  0.2943
69249W        W12343   4.110  10.098   7.129 -0.2843  0.2964  0.2715
69250W        W12344   6.102   7.385   9.095  0.3671 -0.1918 -0.1931
69251W        W12345   2.252   8.616   9.686 -0.2925  0.2298 -0.3290
69252W        W12346   6.157   8.220   8.211  0.2136 -0.0021  0.0259
69253W        W12347   5.085   8.285   7.937  0.2382  0.2590 -0.1053
69254W        W12348   5.042   8.014   7.491  0.1712 -0.1028 -0.0498
69255W        W12349   5.983   7.035   9.920 -0.1040  0.1105  0.2170
69256W        W12350   3.719  10.203   9.028 -0.0926 -0.0694 -0.2383
69257W        W12351   7.028   8.600   8.450 -0.1296 -0.2131 -0.0828
69258W        W12352   6.442   7.450   7.530 -0.1243  0.0604  0.0178
69259W        W12353   3.452   9.798   9.395 -0.2049 -0.0952  0.2303
69260W        W12354   4.922   8.197   6.513 -0.0979  0.0260  0.0469
69261W        W12355   5.004   7.889   9.521  0.3782  0.0879 -0.3343
69262W        W12356   4.611   9.104   9.185  0.0547 -0.0240 -0.2382
69263W        W12357   6.054   9.417   6.824  0.1886 -0.3224 -0.1425
69264W        W12358   7.122   9.485   9.194  0.0959 -0.1706  0.0670
69265W        W12359   3.063   9.457   8.598  0.0277  0.1189 -0.3671
69266W        W12360   5.393   8.016   8.238 -0.0735  0.0174  0.1454
69267W        W12361   5.445   9.510   8.286  0.0367  0.1271  0.0651
69268W        W12362   5.911   7.260   7.159  0.2137  0.1451 -0.3623
69269W        W12363   4.170   8.487   7.886  0.1755  0.1637  0.1043
69270W        W12364   6.956   7.188   8.486  0.0654  0.1575 -0.0827
69271W        W12365   7.046   9.356   7.554  0.2693 -0.3393  0.0973
69272W        W12366   2.481   8.077  10.463 -0.2424  0.0220  0.0394
69273W        W12367   5.020   7.344   9.467 -0.0077 -0.1620 -0.0056
69274W        W12368   3.324  11.061   8.009 -0.0396 -0.0464  0.1152
69275W        W12369   7.554   7.022   7.713  0.2799  0.0975  0.1006
69276W        W12370   5.444   7.839   7.708  0.0944 -0.0306 -0.3068
69277W        W12371   6.143   7.846   9.267 -0.1531 -0.1971  0.3100
69278W        W12372   4.798   7.973   8.619 -0.0127 -0.2159  0.2487
69279W        W12373   3.568   8.595  10.007 -0.0054 -0.0725  0.2541
69280W        W12374   5.725  10.661   8.848 -0.0002  0.0778 -0.4046
69281W        W12375   3.988   8.390   9.529  0.1290 -0.2871  0.3031
69282W        W12376   4.136   8.977   7.888 -0.1060  0.1647  0.0199
69283W        W12377   6.691   8.514   8.820  0.0822 -0.0584 -0.1781
69284W        W12378   5.874   7.844   8.045 -0.1023  0.1756  0.0202
69285W        W12379   5.873   6.285   7.353  0.0921  0.3402  0.3142
69286W        W12380   5.721   6.547   9.564 -0.1848 -0.2630 -0.1121
69287W        W12381   6.024   9.018   7.702 -0.1230 -0.0833  0.0833
69288W        W12382   4.034   7.103   9.548 -0.0112  0.1047  0.0315
69289W        W12383   5.572   6.899   8.989 -0.1268  0.2261 -0.2941
69290W        W12384   7.997  10.315   9.099 -0.2111 -0.2116 -0.2154
69291W        W12385   4.454   9.817   7.440 -0.4260 -0.0765  0.0659
69292W        W12386   4.590  10.207   9.714 -0.1130  0.0864  0.1977
69293W        W12387   5.576   8.866   6.306  0.1620  0.1289 -0.2240
69294W        W12388   5.225   8.856   8.698 -0.1731  0.1049 -0.0304
69295W        W12389   4.449   9.224   9.745  0.1217 -0.4886  0.0635
69296W        W12390   5.216   9.163   7.588 -0.0331  0.3825 -0.0858
69297W        W12391   5.009   8.364   9.843 -0.0881 -0.0184  0.1860
69298W        W12392   6.590   6.463   7.830  0.0480  0.1082 -0.2489
69299W        W12393   7.306   9.012   6.907  0.2081 -0.3338 -0.1012
69300W        W12394   6.261   6.172   9.278  0.0721  0.4845 -0.0314
69301W        W12395   6.154   7.827   6.299 -0.1442  0.3059  0.0419
69302W        W12396   4.435   7.520   9.284  0.2111  0.1972 -0.2036
69303W        W12397   6.593  10.268   7.592  0.1237  0.1315 -0.0707
69304W        W12398   7.721   6.467   7.946  0.0575 -0.0772  0.0524
69305W        W12399   5.512   7.341   7.454  0.0157  0.0426 -0.0305
69306W        W12400   4.518   8.214   9.382  0.1078  0.0638 -0.1773
69307W        W12401   6.647  11.572   8.513  0.1635  0.0488  0.1434
69308W        W12402   6.887   9.782   7.269  0.0186  0.2304  0.1084
69309W        W12403   6.730   8.002   7.812 -0.0288  0.1058  0.0743
69310W        W12404   4.995   9.250   8.494 -0.1777  0.1369  0.1130
69311W        W12405   5.588   8.790   7.772  0.0074  0.0522  0.1910
69312W        W12406   4.352   8.139   7.226  0.2561 -0.0624  0.0856
69313W        W12407   5.624   9.220   9.244 -0.1550 -0.0680  0.2379
69314W        W12408   7.049   8.183   8.915 -0.1110  0.2441 -0.0406
69315W        W12409   4.123   7.547   9.876 -0.1631  0.3963  0.1763
69316W        W12410   5.480  11.571   9.154 -0.1023  0.0236 -0.4233
69317W        W12411   7.633   7.509   6.917  0.5806 -0.0492 -0.1655
69318W        W12412   5.660   9.013   9.692  0.2908 -0.2119  0.1298
69319W        W12413   6.399   8.597   9.188  0.1784  0.1066  0.0702
69320W        W12414   6.429   7.669   7.992  0.1797 -0.1113 -0.0468
69321W        W12415   3.261   7.400  10.153 -0.0327 -0.0991 -0.2639
69322W        W12416   5.065   7.523   7.682  0.2728 -0.0962 -0.0356
69323W        W12417   5.568  10.157   6.829 -0.1132 -0.2872  0.2127
69324W        W12418   6.417   8.184   9.568  0.1932  0.1435  0.3804
69325W        W12419   6.098   9.408   7.334 -0.3743 -0.0918 -0.3263
69326W        W12420   2.719   6.789   9.969  0.1920 -0.1236  0.0499
69327W        W12421   5.233   6.908   7.510  0.1039 -0.1099 -0.2056
69328W        W12422   4.627   7.695   7.333 -0.1802 -0.1890 -0.2674
69329W        W12423   6.610   9.468   9.055  0.2768  0.2872  0.2719
69330W        W12424   6.397   7.179   7.150 -0.1169  0.0168  0.1177
69331W        W12425   4.150   9.602   8.476  0.1058  0.1382  0.2171
69332W        W12426   5.087   5.767   9.383 -0.2331  0.1674 -0.0256
69333W        W12427   4.822  10.022   9.112  0.2029 -0.0519  0.1252
69334W        W12428   4.523   9.266   8.365  0.0342  0.1891  0.1770
69335W        W12429   5.611   7.401   9.267  0.0644 -0.1026  0.1295
69336W        W12430   6.292   7.904   8.600  0.3726  0.1736 -0.0638
69337W        W12431   5.769   9.112   8.257 -0.1397  0.3555  0.0765
69338W        W12432   4.633   8.452   8.133  0.0910 -0.1775 -0.1874
69339W        W12433   5.967   8.871   9.092  0.2281 -0.0343 -0.1912
69340W        W12434   5.171   8.831   9.238 -0.1161  0.0023  0.0437
69341W        W12435   6.118   9.567   7.983  0.2975  0.2333  0.1531
69342W        W12436   6.035   7.110   7.629  0.1379 -0.0738 -0.1338
69343W        W12437   5.301   8.020   6.803  0.1931 -0.0220 -0.1137
69344W        W12438   5.845  10.072   8.706  0.0369  0.1468  0.0582
69345W        W12439   4.386  10.689   7.921 -0.2210  0.0257  0.3334
69346W        W12440   6.274  11.139   7.595  0.0467  0.1601 -0.0593
69347W        W12441   4.867   9.557   7.476  0.1140  0.1813  0.0420
69348W        W12442   6.273   9.117   8.137  0.2744  0.1065  0.0494
69349W        W12443   5.755   8.531   6.735  0.2175  0.0091  0.0296
69350W        W12444   4.191  10.226   7.614 -0.0803 -0.0713 -0.4231
69351W        W12445   4.749   9.943   7.847  0.0596  0.1013 -0.0643
69352W        W12446   7.230   9.437   7.099  0.0002  0.1064  0.0332
69353W        W12447   4.268  10.339   9.356 -0.1872 -0.1280  0.1780
69354W        W12448   6.231   7.494   6.782  0.1918 -0.1631 -0.0617
69355W        W12449   6.785   8.978   9.312 -0.3046 -0.0631  0.0433
69356W        W12450   6.115   8.974   8.597  0.1755 -0.0477 -0.2423
69357W        W12451   3.715   7.585  10.099 -0.1558 -0.0887 -0.0723
69358W        W12452   4.896   6.799   6.967  0.0050  0.0379 -0.1707
69359W        W12453   8.286  10.642   9.411 -0.0578  0.1593 -0.0642
69360W        W12454   4.729   7.518   8.358  0.2881  0.4367 -0.1414
69361W        W12455   5.515   8.604   8.273  0.1887 -0.0846 -0.2039
69362W        W12456   6.493   7.069   9.690  0.0641 -0.1098 -0.0154
69363W        W12457   6.000   8.943   6.495 -0.1689 -0.0179 -0.1509
69364W        W12458   7.779   7.365   8.797 -0.2330 -0.3255  0.0764
69365W        W12459   4.265  10.466   8.577  0.1473  0.0217  0.0863
69366W        W12460   5.712  10.650   9.352  0.2442 -0.0073 -0.3738
69367W        W12461   5.592  10.134   9.226 -0.1791  0.0850  0.0934
69368W        W12462   4.708   7.190   7.541  0.1713 -0.0987  0.0912
69369W        W12463   7.095   8.834   8.897 -0.2292  0.0781  0.0389
69370W        W12464   3.764   8.072   9.798 -0.1698  0.2844 -0.0859
69371W        W12465   6.076   6.599   7.705 -0.2488  0.0709  0.0149
69372W        W12466   6.647   7.206   8.011  0.2045  0.0952 -0.1990
69373W        W12467   6.390   8.707   9.764 -0.0198 -0.0463  0.1318
69374W        W12468   1.980   8.571   8.592  0.1336  0.2542  0.2344
69375W        W12469   6.420   8.016   6.791 -0.2572  0.2218 -0.4219
69376W        W12470   6.032   7.354   8.089 -0.3451 -0.3030 -0.4188
69377W        W12471   4.348   7.975   8.250  0.0985  0.1588 -0.0578
69378W        W12472   7.374   7.417   7.421  0.0837 -0.3929  0.2046
69379W        W12473   3.081   9.013  10.092 -0.1124 -0.2449  0.2038
69380W        W12474   2.171   7.549   9.904  0.0641  0.2085  0.3055
69381W        W12475   4.800   6.790   7.843  0.0318  0.0037  0.1008
69382W        W12476   7.633   8.768   7.278 -0.0271 -0.2260 -0.1489
69383W        W12477   6.070  10.129   7.855 -0.1434  0.0728  0.0036
69384W        W12478   5.500   9.662   6.090 -0.0651 -0.1101 -0.2175
69385W        W12479   5.620   9.142   8.757 -0.1577  0.1401 -0.4408
69386W        W12480   7.034   9.962   9.213 -0.0112 -0.3434 -0.1171
69387W        W12481   1.955   6.583  10.244 -0.1415  0.1004 -0.0407
69388W        W12482   6.895   9.299   9.707 -0.2533  0.0817  0.0261
69389W        W12483   6.930   7.768   9.263  0.1443 -0.1728  0.0001
69390W        W12484   6.517   6.866   7.529 -0.0525 -0.2687 -0.1342
69391W        W12485   5.610   8.270   7.882  0.0403 -0.1466 -0.1199
69392W        W12486   5.029  10.117   9.576  0.2146 -0.2597 -0.2702
69393W        W12487   6.371   4.740   9.462  0.1107 -0.3264  0.0192
69394W        W12488   5.184   8.987   5.894  0.0783  0.1083 -0.2740
69395W        W12489   5.137   9.678   9.320 -0.0040  0.1176 -0.0001
69396W        W12490   4.810   8.393   7.274 -0.0900  0.1486  0.0725
69397W        W12491   6.125  10.646   7.536 -0.2089 -0.1472  0.2821
69398W        W12492   5.349   9.812   7.733  0.0757 -0.3641  0.1946
69399W        W12493   6.374  10.760   7.935 -0.0511 -0.0159  0.0529
69400W        W12494   4.572   8.109   7.697 -0.0018 -0.1705 -0.0171
69401W        W12495   6.975  10.325   7.270 -0.0930 -0.2050  0.0966
69402W        W12496   5.068   6.689   9.096  0.0559 -0.2770  0.0827
69403W        W12497   7.934   7.924   7.803  0.2462 -0.1752 -0.0795
69404W        W12498   7.363   6.526   7.029  0.1562 -0.3012  0.2304
69405W        W12499   3.574   7.125   9.814 -0.1964 -0.2295  0.2760
69406W        W12500   3.346   8.859   7.970  0.0408 -0.3017 -0.0723
69407W        W12501   3.502   8.689   8.660 -0.0733 -0.0038  0.1737
69408W        W12502   3.185  11.006   9.510 -0.3125  0.2439  0.0833
69409W        W12503   3.962   8.707   8.725 -0.1992  0.2349 -0.1754
69410W        W12504   4.370   5.736   7.925 -0.1881 -0.3041  0.2852
69411W        W12505   7.735   8.868   7.813  0.1677 -0.3395  0.4496
69412W        W12506   4.471   7.118   9.713 -0.1008 -0.0694  0.1830
69413W        W12507   4.727   7.115   9.010 -0.0776 -0.3019  0.3431
69414W        W12508   6.449   8.226   7.281  0.1977 -0.1768 -0.3171
69415W        W12509   7.422  10.586   7.032 -0.1128 -0.1259 -0.1306
69416W        W12510   5.939   7.118   8.728  0.0016 -0.0136  0.2464
69417W        W12511   4.059   8.294   6.658 -0.0386  0.0175  0.1423
69418W        W12512   3.237   6.151   6.332  0.0649  0.2102 -0.0390
69419W        W12513   4.076   7.849   9.456 -0.0656  0.1523 -0.0290
69420W        W12514   7.686  10.628   9.305 -0.0680 -0.1921 -0.0712
69421W        W12515   6.437  11.163   8.739  0.2474 -0.0432 -0.0823
69422W        W12516   3.131   7.400   9.652  0.2829  0.0590  0.0824
69423W        W12517   6.637   9.488   7.981  0.3229 -0.0796 -0.1897
69424W        W12518   7.919   7.960   6.857  0.2827  0.0550 -0.3358
69425W        W12519   6.202   8.458   8.683 -0.1936  0.1000  0.1222
69426W        W12520   6.811   8.646   6.890  0.0893  0.1145  0.0775
69427W        W12521   9.516  10.330   9.641  0.3809 -0.1006  0.2140
69428W        W12522   3.960   6.841   8.272  0.1452 -0.1699 -0.3164
69429W        W12523   5.585   7.036   7.892  0.2129  0.0274  0.2054
69430W        W12524   7.244   9.042   6.339 -0.0431 -0.1654 -0.4603
69431W        W12525   2.864   8.725  10.432 -0.0459 -0.0809 -0.0938
69432W        W12526   6.503   8.995   6.803  0.0273  0.0695  0.0701
69433W        W12527   5.635   9.702   9.352 -0.0837  0.0935 -0.0595
69434W        W12528   5.118   8.672   7.609  0.3141 -0.3266  0.4117
69435W        W12529   8.910   9.404   6.736  0.2739 -0.4235  0.1846
69436W        W12530   6.932  12.488   9.523 -0.0245  0.0985  0.1221
69437W        W12531   6.403  11.681   8.930 -0.1001 -0.1943  0.1981
69438W        W12532   6.792   9.137   8.299  0.3253 -0.0536 -0.0738
69439W        W12533   3.456   7.060   9.364  0.0757  0.2102 -0.3043
69440W        W12534   5.023   9.466   8.024 -0.2207  0.1191  0.0666
69441W        W12535   5.650   9.271   7.267  0.1521  0.0630  0.0673
69442W        W12536   6.061  10.477   8.329  0.1308  0.1550  0.4405
69443W        W12537   3.842   7.692   9.006  0.2519 -0.0404  0.0321
69444W        W12538   5.671   6.774   7.379 -0.1019 -0.0663 -0.1858
69445W        W12539   7.120  12.048   9.643 -0.3140 -0.0710 -0.2692
69446W        W12540   6.520   7.555   9.426  0.1992  0.0659 -0.4894
69447W        W12541   5.206  13.043   1.996  0.2701 -0.0919 -0.2733
69448W        W12542   4.417  12.495  31.721  0.0790  0.2381 -0.1622
69449W        W12543   5.763  11.741   0.972  0.0434 -0.0345 -0.0761
69450W        W12544   6.040  11.180   1.202 -0.0587  0.3901 -0.0335
69451W        W12545   4.176  10.521   2.702 -0.2495 -0.0400  0.2671
69452W        W12546   6.291  13.551   0.812  0.0710 -0.0308 -0.0658
69453W        W12547   5.403  10.868   3.287 -0.0280  0.0572 -0.1738
69454W        W12548   6.703  13.124   1.469  0.3639  0.0775  0.1838
69455W        W12549   6.319  13.243   1.786 -0.1319 -0.0760 -0.0842
69456W        W12550   5.950  12.697  31.229 -0.0209 -0.0017 -0.0863
69457W        W12551   5.992  11.894   2.425  0.0097 -0.1164 -0.1124
69458W        W12552   5.024  13.593   1.332 -0.1804  0.2287  0.4184
69459W        W12553   4.146  10.015   1.377 -0.1097  0.4418 -0.2170
69460W        W12554   3.581  12.360   3.076  0.2306  0.1140 -0.0466
69461W        W12555   5.361  12.112   2.950 -0.0569 -0.0262  0.2178
69462W        W12556   3.190  13.115   0.276 -0.2470 -0.0828  0.0508
69463W        W12557   5.047  12.366   2.737 -0.1681 -0.1146 -0.1464
69464W        W12558   5.471  12.948   0.309 -0.1291 -0.0331 -0.0985
69465W        W12559   4.651  12.835   1.418  0.1791  0.1922 -0.4106
69466W        W12560   5.881  12.322   2.234 -0.4090  0.1671 -0.0207
69467W        W12561   6.019  11.598   4.312  0.1351 -0.1962  0.0824
69468W        W12562   5.068  14.152   0.059 -0.1161  0.1288 -0.1798
69469W        W12563   2.938  12.762  31.880  0.1298  0.3040  0.1230
69470W        W12564   2.047  12.121   3.189  0.2735  0.1590  0.2026
69471W        W12565   4.592  12.254   2.524  0.0912 -0.0430  0.0150
69472W        W12566   5.985  11.844   1.921  0.1083 -0.0521 -0.2317
69473W        W12567   6.530  11.998   2.256 -0.0988 -0.0822 -0.3398
69474W        W12568   2.506  13.833   1.985 -0.0578 -0.0645 -0.1175
69475W        W12569   5.088  12.653   1.608 -0.0743 -0.3421  0.2542
69476W        W12570   6.780  10.950   3.660  0.0772  0.0440  0.0236
69477W        W12571   3.859  13.498   2.347  0.2013  0.2255 -0.0421
69478W        W12572   2.913  13.134   2.511  0.1868 -0.2745 -0.2114
69479W        W12573   3.731  14.033   0.166  0.1674 -0.0181  0.0614
69480W        W12574   5.225  11.682   1.035 -0.2201 -0.1936  0.2723
69481W        W12575   6.247  13.831   1.938 -0.3234 -0.1667 -0.0666
69482W        W12576   5.496  14.076   2.329 -0.1623  0.2705  0.2442
69483W        W12577   3.884  13.423   0.996 -0.3318  0.0689  0.1425
69484W        W12578   6.308  15.051   2.760  0.2055  0.0152  0.0035
69485W        W12579   4.222  13.631   3.647 -0.1489 -0.2706  0.5284
69486W        W12580   4.885  12.947   2.862  0.2349  0.3693  0.2730
69487W        W12581   4.295  12.595   0.618  0.1407 -0.3335  0.0512
69488W        W12582   5.500  13.770   0.949 -0.2267  0.0444  0.0587
69489W        W12583   7.174  10.850   2.189 -0.2507  0.0293 -0.1845
69490W        W12584   5.792  14.290   5.002 -0.0000 -0.0007 -0.0494
69491W        W12585   3.918  12.795   1.435  0.0841 -0.1138 -0.0240
69492W        W12586   6.300  11.141   5.477 -0.1917  0.0281  0.1263
69493W        W12587   3.322  14.188   0.566  0.3416 -0.1690  0.0579
69494W        W12588   5.945  12.667   1.098  0.1322  0.1182  0.1080
69495W        W12589   4.662  11.957  30.309  0.0130 -0.0719  0.1383
69496W        W12590   6.516  11.347   0.611 -0.0221  0.0465 -0.3227
69497W        W12591   5.369  10.382   1.471  0.2795  0.0475  0.0782
69498W        W12592   5.924  13.510   1.681 -0.0182 -0.1251  0.1946
69499W        W12593   4.688  12.606   2.205  0.0121  0.0087 -0.0872
69500W        W12594   7.144  12.487   2.046  0.3755  0.2057  0.1037
69501W        W12595   5.468  12.771   1.262 -0.2033 -0.0941 -0.1174
69502W        W12596   6.816  10.848   1.784  0.2497 -0.1024  0.3107
69503W        W12597   3.175  14.418   3.120 -0.0656 -0.1851 -0.4516
69504W        W12598   4.215  11.392   2.960 -0.0188  0.0302 -0.0603
69505W        W12599   5.293  13.906   0.453  0.2347  0.1016  0.0856
69506W        W12600   6.668  12.333   1.532  0.1088 -0.0630  0.0685
69507W        W12601   6.962  14.169   0.827 -0.3209  0.2567 -0.1574
69508W        W12602   3.358  12.658   0.173  0.0287 -0.0654 -0.4105
69509W        W12603   2.833  13.049   3.037  0.2233  0.2356  0.0810
69510W        W12604   5.757  11.938   3.955  0.0321 -0.3081  0.1757
69511W        W12605   3.690  11.353   0.876  0.2580  0.2516 -0.2344
69512W        W12606   6.887  14.347   3.744  0.2868  0.1053 -0.0407
69513W        W12607   4.205  12.953   3.002  0.4428 -0.0307  0.1150
69514W        W12608   7.321  11.268   2.433  0.0130  0.1633  0.3317
69515W        W12609   5.174  13.643   3.203  0.2044  0.0246  0.1373
69516W        W12610   6.518  12.654   1.205  0.1164 -0.1476  0.3152
69517W        W12611   6.394  11.825   0.356 -0.2391 -0.1629  0.0252
69518W        W12612   6.386  10.456   1.669 -0.1404  0.3649  0.2702
69519W        W12613   7.234  10.490   1.406  0.1916 -0.5582  0.0416
69520W        W12614   3.355  13.755   0.337  0.1119  0.0867  0.1895
69521W        W12615   4.221  12.160   1.808  0.1800 -0.0003  0.2540
69522W        W12616   7.474  12.776   2.648  0.2423  0.0651  0.2696
69523W        W12617   4.369  11.925  31.845 -0.3830  0.2284 -0.0882
69524W        W12618   2.875  14.955   2.963 -0.1556  0.0067  0.0291
69525W        W12619   6.181  11.552   3.849 -0.2050  0.3370 -0.2246
69526W        W12620   6.336  13.076   3.040  0.2101 -0.1305  0.0120
69527W        W12621   4.720  14.565   1.048 -0.1389 -0.0049 -0.1137
69528W        W12622   3.922  12.846   2.541 -0.2339  0.0463  0.0675
69529W        W12623   3.230  13.740   1.585  0.2688  0.2944 -0.3301
69530W        W12624   3.907  11.389   4.282 -0.0693  0.1365  0.1510
69531W        W12625   5.182  12.763   0.757  0.0650  0.0399 -0.1521
69532W        W12626   6.387  13.488   1.325  0.2729 -0.1098 -0.0310
69533W        W12627   3.719  10.828   1.763 -0.1994  0.0440  0.0623
69534W        W12628   6.892  11.269   0.924  0.2002  0.2855 -0.1685
69535W        W12629   4.724  13.057   1.937  0.3871 -0.1066  0.0552
69536W        W12630   6.343  14.705   2.344  0.0201  0.0791  0.2979
69537W        W12631   7.249  11.450   1.886 -0.0498 -0.2447  0.0568
69538W        W12632   8.105  12.202  31.242  0.1116  0.0730 -0.3544
69539W        W12633   4.254  13.151   1.673 -0.1595  0.0133 -0.2117
69540W        W12634   3.669  11.899   1.571 -0.0907  0.1752  0.0927
69541W        W12635   5.847   8.803   2.553 -0.0916 -0.1088 -0.3396
69542W        W12636   3.591  11.472   1.709  0.0929 -0.2094  0.0236
69543W        W12637   6.303  13.100   3.776  0.1713  0.0964 -0.0979
69544W        W12638   3.962  10.996   0.133 -0.0507 -0.4331 -0.1445
69545W        W12639   7.502  11.292   1.460 -0.0762  0.5394 -0.0919
69546W        W12640   4.523  10.129   1.825 -0.0452 -0.1408  0.2277
69547W        W12641   3.749  11.876   1.080  0.1109 -0.0813 -0.0485
69548W        W12642   6.588  10.721   4.629  0.0118  0.0765  0.3472
69549W        W12643   5.338  13.266   1.579  0.0121  0.0387  0.3593
69550W        W12644   6.989  14.215   2.144  0.4753  0.3191 -0.1568
69551W        W12645   8.400  13.588   1.557  0.1273  0.1707  0.1104
69552W        W12646   5.703  11.854   3.445  0.0565  0.0295  0.0239
69553W        W12647   3.830  10.543   0.187 -0.2018 -0.4209 -0.1866
69554W        W12648   3.692  14.357   2.007 -0.0883  0.0286 -0.0952
69555W        W12649   5.189  12.139   1.301  0.2453  0.4486  0.0543
69556W        W12650   4.073  12.211   0.853  0.0796  0.0067 -0.1335
69557W        W12651   8.034  15.142   1.820 -0.0009 -0.3433 -0.0450
69558W        W12652   3.847  12.722   0.907  0.0207 -0.0800 -0.0133
69559W        W12653   4.158  13.854   2.227  0.2312  0.0293 -0.0333
69560W        W12654   6.428   9.930   3.302  0.3873  0.1887  0.0167
69561W        W12655   6.887  12.676   3.153 -0.0845  0.0684  0.0456
69562W        W12656   4.336  11.405   2.112 -0.0294 -0.0985 -0.3991
69563W        W12657   2.469  11.258   0.874 -0.0077 -0.1297  0.2816
69564W        W12658   6.488  13.172  31.435  0.1844  0.0001  0.2769
69565W        W12659   3.863  14.511  31.555  0.0677 -0.1638  0.1118
69566W        W12660   4.288  12.509   1.184  0.1453  0.0321 -0.2873
69567W        W12661   6.298  12.269   1.886  0.0745  0.0923  0.0533
69568W        W12662   6.731  11.955   2.687  0.2954 -0.1809  0.0307
69569W        W12663   3.321  12.654   2.639  0.2545 -0.3626 -0.3254
69570W        W12664   6.609  12.205   3.904  0.0934  0.3163 -0.4035
69571W        W12665   4.094  14.184  31.856 -0.2534 -0.2048  0.2180
69572W        W12666   3.208  12.609   3.752  0.2003 -0.0647  0.0675
69573W        W12667   4.225  11.739   0.864  0.1848  0.1172 -0.0735
69574W        W12668   7.466  10.854   1.755  0.1544  0.0012 -0.0768
69575W        W12669   5.413  12.860   2.890 -0.1758  0.1610  0.0142
69576W        W12670   4.637  11.733   1.257 -0.0489  0.0089 -0.1761
69577W        W12671   7.175  10.716   0.356  0.1061  0.1859 -0.6420
69578W        W12672   4.917  12.570   1.141 -0.0118 -0.0375  0.2053
69579W        W12673   5.333  13.309   3.790 -0.0116 -0.1606 -0.1469
69580W        W12674   4.673  13.912   1.328 -0.0598 -0.0392  0.3114
69581W        W12675   6.221  13.621   2.675  0.1303 -0.0199  0.1113
69582W        W12676   4.863  11.206   1.092  0.1373 -0.3062  0.1175
69583W        W12677   8.159  13.242   0.654 -0.0386  0.1133 -0.1395
69584W        W12678   4.522  13.349   3.014 -0.1072  0.1666 -0.1521
69585W        W12679   6.308  12.025   2.990  0.0585  0.0373  0.1121
69586W        W12680   7.237  12.282   1.560  0.1418 -0.1849 -0.0309
69587W        W12681   4.362  10.905   1.922  0.1518  0.2147  0.0743
69588W        W12682   4.194  13.712   0.315 -0.2369  0.1476 -0.2662
69589W        W12683   6.344  10.495   2.715  0.1804 -0.0956  0.2494
69590W        W12684   3.640  14.538   0.051 -0.2727 -0.2696 -0.0850
69591W        W12685   6.006  10.796   2.874 -0.2229 -0.4397 -0.2566
69592W        W12686   4.967  11.476   2.163  0.2041 -0.0337  0.1907
69593W        W12687   6.422  11.090   2.727  0.2451 -0.1900  0.0639
69594W        W12688   6.636  11.992   5.103 -0.0167 -0.2312 -0.3302
69595W        W12689   5.831  13.232   0.088 -0.0413 -0.0675  0.3548
69596W        W12690   6.301  12.360   2.583 -0.0414 -0.2077  0.2019
69597W        W12691   5.003  12.000  31.893  0.3877 -0.1530 -0.1201
69598W        W12692   6.349  10.505   3.339  0.0336  0.1807  0.2408
69599W        W12693   4.654  12.386   3.469  0.2104  0.0383  0.3043
69600W        W12694   5.934  13.442   3.904  0.0560  0.1949 -0.0662
69601W        W12695   6.169  13.021   2.518  0.1098  0.0597  0.0263
69602W        W12696   4.618  12.141   0.763  0.0942  0.1599  0.1018
69603W        W12697   5.990  10.711   4.617 -0.2158  0.0845 -0.2496
69604W        W12698   3.382  11.307  31.828 -0.0719  0.1468 -0.1051
69605W        W12699   3.821  13.865   0.693  0.0100  0.2040 -0.3410
69606W        W12700   4.543  14.444  31.965  0.1492  0.3796 -0.1151
69607W        W12701   5.000  10.577   3.167 -0.2145  0.2726 -0.1864
69608W        W12702   4.975  13.092   1.192  0.1833  0.1215 -0.0263
69609W        W12703   4.062  13.004   0.394 -0.0407  0.2043 -0.3709
69610W        W12704   6.365  11.642   2.699 -0.0578 -0.1821 -0.1194
69611W        W12705   4.910  14.356   1.476 -0.0215  0.0897 -0.1737
69612W        W12706   6.246  10.481   0.292  0.0758 -0.2008 -0.1492
69613W        W12707   4.007  13.521   1.866  0.0735  0.4246  0.1444
69614W        W12708   3.269  10.875   0.046 -0.1875  0.2389 -0.2951
69615W        W12709   3.868  13.056   2.052  0.1541  0.0425 -0.1927
69616W        W12710   6.202  10.447   2.128  0.2432 -0.0489 -0.2263
69617W        W12711   4.962  12.451  31.693  0.2870 -0.0222 -0.0738
69618W        W12712   3.762  11.900   2.957 -0.0795  0.1691  0.0963
69619W        W12713   6.974  11.832   1.773 -0.0759 -0.3375 -0.0804
69620W        W12714   3.646  14.812   2.304  0.2839 -0.2691 -0.0854
69621W        W12715   5.859  12.184   2.827  0.2863 -0.1204 -0.2313
69622W        W12716   5.998  11.393   0.661  0.0899  0.4569 -0.1687
69623W        W12717   6.697  12.756   1.892 -0.2061  0.0124  0.2024
69624W        W12718   4.239  13.238   2.531  0.4350  0.2672  0.3087
69625W        W12719   2.436  11.774   0.833 -0.0558 -0.0758  0.0963
69626W        W12720   6.962  10.580   4.017 -0.2419  0.1778 -0.2730
69627W        W12721   4.628  10.902   1.504 -0.2180  0.0962  0.1564
69628W        W12722   4.457  13.873   1.846 -0.2414  0.2674  0.1117
69629W        W12723   6.061  13.406   2.202  0.1269 -0.0172  0.1086
69630W        W12724   4.422  13.731   0.943  0.0186  0.3027 -0.0841
69631W        W12725   4.483  13.452   2.086 -0.1254  0.2596 -0.3113
69632W        W12726   5.494  11.706   4.369  0.0802 -0.1445  0.0290
69633W        W12727   6.862  12.487   4.346 -0.2846  0.2959  0.1563
69634W        W12728   5.070  11.789   1.621 -0.2545 -0.1637  0.5634
69635W        W12729   3.971  10.647   2.201 -0.1527  0.1760  0.0147
69636W        W12730   5.514  12.183   1.869 -0.0696  0.0565 -0.0346
69637W        W12731   6.250  12.703   1.595  0.1336  0.1207 -0.0512
69638W        W12732   6.007  11.077   4.243  0.0516  0.0982 -0.0320
69639W        W12733   3.766  12.728   3.290 -0.0929 -0.2083  0.1811
69640W        W12734   4.860  10.600   1.129  0.2716 -0.1711  0.0704
69641W        W12735   6.170  13.445  30.985 -0.0905  0.2101 -0.0928
69642W        W12736   6.237  12.185   4.241  0.0713 -0.3449 -0.1626
69643W        W12737   4.700  13.991  31.722 -0.3002  0.2914  0.0677
69644W        W12738   2.981  12.721   2.232  0.1683  0.1109 -0.0682
69645W        W12739   3.300  12.108   1.159 -0.0112  0.3508 -0.1469
69646W        W12740   5.627  10.903   2.492 -0.0648 -0.1060  0.0997
69647W        W12741   3.771  14.378   2.518 -0.0185  0.0739  0.1101
69648W        W12742   3.523  13.084   1.140 -0.1395 -0.0277 -0.1508
69649W        W12743   4.651  12.844   3.317 -0.1690 -0.0945  0.1536
69650W        W12744   6.680  11.388   1.767 -0.0783 -0.0891  0.2078
69651W        W12745   5.694  13.181  30.976  0.0037  0.1285  0.2541
69652W        W12746   4.306  12.875   2.113  0.1851  0.0309  0.0573
69653W        W12747   7.287  10.973   3.783  0.0463 -0.0901 -0.0727
69654W        W12748   5.382  13.911  31.543  0.2809 -0.2301 -0.2235
69655W        W12749   6.855  11.348   2.706  0.0714 -0.0869  0.1371
69656W        W12750   4.777  10.592   2.182 -0.1494 -0.2248 -0.0604
69657W        W12751   6.515  11.875   1.534 -0.1361 -0.2456 -0.0993
69658W        W12752   4.312  12.646   1.699 -0.0162  0.1811  0.1121
69659W        W12753   6.175  15.786   2.853  0.1206  0.1715 -0.2175
69660W        W12754   3.229  12.163   3.364  0.1498  0.0910 -0.0740
69661W        W12755   4.945  13.492   0.800  0.0766  0.2019 -0.3266
69662W        W12756   3.383  10.912   0.963  0.0855  0.2588 -0.0979
69663W        W12757   5.548  13.566   2.430  0.0232 -0.0984 -0.1538
69664W        W12758   7.390  14.163   2.969  0.1252  0.3042 -0.0650
69665W        W12759   5.289  13.412  31.913 -0.2135  0.2428  0.1729
69666W        W12760   7.435  12.615   1.184 -0.2025  0.0073  0.0273
69667W        W12761   4.554  12.410   3.018  0.0107  0.2038  0.1458
69668W        W12762   6.889  12.664   0.592 -0.1103 -0.0233 -0.1846
69669W        W12763   4.599  14.095   0.323 -0.0662 -0.2656  0.0343
69670W        W12764   3.701  11.048   1.315  0.2363  0.0183  0.0003
69671W        W12765   6.217  11.724   3.378 -0.0985  0.1326 -0.1256
69672W        W12766   6.349  11.566   2.149  0.2160  0.2309 -0.0850
69673W        W12767   5.618  12.221   1.035  0.2618 -0.0881  0.0277
69674W        W12768   5.170  11.079   2.926 -0.2107  0.0248 -0.1772
69675W        W12769   7.596  12.115   3.806  0.0061  0.3708 -0.0334
69676W        W12770   5.641  13.082   2.481 -0.1014 -0.0881  0.1884
69677W        W12771   5.398  11.638   3.039 -0.0972 -0.3410 -0.2142
69678W        W12772   5.722  14.860   2.529 -0.1821 -0.0054  0.1945
69679W        W12773   6.510  11.471  31.967 -0.0662 -0.0667  0.0744
69680W        W12774   7.937  11.584   3.546 -0.1813 -0.1934  0.0133
69681W        W12775   7.021  12.069   2.262  0.1152 -0.1719 -0.2558
69682W        W12776   5.686  11.195  31.728 -0.2663  0.2396  0.2025
69683W        W12777   2.127  12.572   2.484  0.2699 -0.0964  0.0062
69684W        W12778   5.954  13.342   3.372  0.3302  0.0687  0.2058
69685W        W12779   5.247  11.006  31.656  0.1313  0.0585 -0.0155
69686W        W12780   6.218  11.274   3.163  0.0914 -0.0514  0.1960
69687W        W12781   5.382  14.396   0.903 -0.1220 -0.1943  0.1314
69688W        W12782   4.711  11.583   0.741  0.0137  0.0853 -0.1291
69689W        W12783   6.982  11.163  31.513  0.1447  0.1332  0.0449
69690W        W12784   3.656  12.143   2.512  0.3119 -0.2500  0.1195
69691W        W12785   4.125  13.995   4.125  0.1745 -0.0283 -0.2297
69692W        W12786   4.610  11.999  30.942  0.2792  0.1848 -0.1778
69693W        W12787   5.881  13.939   0.692 -0.2011  0.1045 -0.1522
69694W        W12788   6.252  12.697   2.167 -0.2090 -0.0490  0.0237
69695W        W12789   8.145  14.369   2.983 -0.0595  0.2344  0.0568
69696W        W12790   6.202  11.097  31.755 -0.1709  0.0572 -0.1331
69697W        W12791   7.606  11.176   3.467 -0.1245 -0.2294 -0.0934
69698W        W12792   4.238  13.719   1.448 -0.2525  0.0908  0.2192
69699W        W12793   6.022   9.787   1.317 -0.1070  0.1114 -0.1228
69700W        W12794   5.007  14.050   1.942  0.1181  0.0482  0.2410
69701W        W12795   3.317  13.231   2.896 -0.1361 -0.2709  0.0531
69702W        W12796   5.687  13.121   1.976  0.0846  0.0138  0.1483
69703W        W12797   5.299  10.502   2.377 -0.4206  0.1555  0.1271
69704W        W12798   5.353  11.766   2.057 -0.1329  0.0484  0.0675
69705W        W12799   4.623  13.378   1.415  0.2962  0.0747  0.0016
69706W        W12800   7.314  13.369   4.437 -0.2172  0.2481  0.2038
69707W        W12801   4.516  14.124   3.160 -0.1672  0.1330 -0.0299
69708W        W12802   5.247  10.929   1.345  0.2306  0.1676  0.0205
69709W        W12803   5.695  14.844   3.014  0.0203 -0.4226  0.2020
69710W        W12804   5.920  13.527   1.112  0.0754  0.1319 -0.2314
69711W        W12805   4.329  13.774   2.704 -0.1831  0.3021 -0.2551
69712W        W12806   2.646  11.400   2.933  0.0229 -0.0871 -0.0166
69713W        W12807   4.705  11.797   3.701 -0.2749  0.1231  0.0241
69714W        W12808   4.726  13.355   2.551 -0.2901 -0.4265  0.2868
69715W        W12809   2.872  11.564   0.690  0.3588 -0.1829 -0.2270
69716W        W12810   5.734  15.222  30.776 -0.0365  0.2732  0.5064
69717W        W12811   3.331  13.037   4.636  0.0061 -0.3888  0.1315
69718W        W12812   5.011  12.668   3.714 -0.1252 -0.3457 -0.0946
69719W        W12813   3.168  14.604   0.796  0.1149 -0.1399  0.0918
69720W        W12814   7.029  12.868  31.485 -0.0005  0.1060  0.1467
69721W        W12815   5.472  13.004  31.682  0.0517  0.3756 -0.0234
69722W        W12816   6.220  12.229   1.221 -0.1198 -0.0504  0.1052
69723W        W12817   4.150  13.161  31.922 -0.0435 -0.1809 -0.0524
69724W        W12818   4.655  13.864   2.335 -0.1619 -0.2563  0.2535
69725W        W12819   3.343  15.837   0.485 -0.0436 -0.1760  0.0383
69726W        W12820   6.980  12.502   1.103  0.3902 -0.2821 -0.1503
69727W        W12821   2.792  13.464   1.617  0.2658 -0.1212 -0.2115
69728W        W12822   7.001  14.511   3.214  0.0387 -0.2530 -0.0987
69729W        W12823   7.544  11.761   0.182 -0.2027 -0.0394 -0.2696
69730W        W12824   7.366  13.601   1.662  0.0759 -0.0826  0.2224
69731W        W12825   5.575  11.816   1.491 -0.1083 -0.4362 -0.2360
69732W        W12826   6.376  12.560   3.028  0.0192 -0.1287 -0.0501
69733W        W12827   3.178  13.533   3.257  0.0819 -0.0983  0.0650
69734W        W12828   4.958  10.448   0.305  0.2813  0.1061 -0.0753
69735W        W12829   4.176  12.157   3.721  0.4179  0.0110 -0.0758
69736W        W12830   7.502  11.646   3.231  0.0466 -0.1012  0.1818
69737W        W12831   3.704  14.266   3.626  0.1146  0.0705 -0.2344
69738W        W12832   6.274  13.215  31.952 -0.2796 -0.0821 -0.0680
69739W        W12833   2.897  11.240   1.122  0.0933 -0.1332  0.2975
69740W        W12834   4.430  12.762   2.605 -0.3045  0.0920  0.0000
69741W        W12835   2.795  12.988  31.394  0.0334 -0.3019  0.2185
69742W        W12836   6.701  11.119   2.207 -0.0039 -0.0186  0.4199
69743W        W12837   2.923  12.709   1.610 -0.0075  0.1041 -0.0193
69744W        W12838   2.371  13.737   1.517 -0.0271  0.0941  0.1115
69745W        W12839   6.253  14.064   1.495  0.2390  0.1309  0.0577
69746W        W12840   3.445  12.422   0.834 -0.1070 -0.0472  0.2424
69747W        W12841   7.473  12.122   1.088  0.0566 -0.0299  0.1456
69748W        W12842   4.106  11.142   2.515 -0.2533  0.0495  0.0860
69749W        W12843   7.094  10.004   2.177  0.2070  0.2869 -0.2428
69750W        W12844   4.689  12.226   1.428  0.2789  0.2423 -0.1860
69751W        W12845   5.891  10.442   1.683 -0.1615  0.2135  0.0904
69752W        W12846   6.072  13.894   3.242  0.3283 -0.1746 -0.3215
69753W        W12847   5.984  12.260   3.315  0.0804 -0.0057 -0.0887
69754W        W12848   4.814  11.360   1.539  0.0542  0.1099  0.0012
69755W        W12849   6.548  12.505   3.464 -0.1150  0.0857 -0.1734
69756W        W12850   4.789  12.944  31.170  0.2053  0.5340  0.1029
69757W        W12851   7.819  13.134   2.448  0.3205 -0.1224 -0.2450
69758W        W12852   3.901  11.529   1.314 -0.2314 -0.2293 -0.1074
69759W        W12853   5.372  10.816  31.167  0.1569 -0.1320  0.0109
69760W        W12854   3.231  13.383   0.684  0.1730 -0.0746  0.2267
69761W        W12855   4.625  13.631   4.030  0.1238 -0.2347  0.0787
69762W        W12856   5.556  12.566   3.240  0.1352  0.0142 -0.2626
69763W        W12857   3.431  10.105   0.598 -0.2527 -0.1312 -0.0244
69764W        W12858   5.172  12.366   0.215 -0.0540  0.0137  0.0116
69765W        W12859   7.426  12.580   3.223  0.0472  0.1417  0.0773
69766W        W12860   7.093  14.572   0.471 -0.0866  0.0536  0.1298
69767W        W12861   4.851  12.275   1.879 -0.3384  0.1342 -0.1409
69768W        W12862   5.678  13.460   0.566 -0.1263  0.0062 -0.1493
69769W        W12863   5.220  13.318   2.732 -0.0861 -0.0486 -0.3286
69770W        W12864   6.069  13.128   0.663  0.1828 -0.4069  0.4380
69771W        W12865   7.320  13.245   2.553 -0.0598  0.2077  0.0013
69772W        W12866   5.073  11.025   0.158  0.1443 -0.2873  0.1392
69773W        W12867   4.370  13.152   3.584  0.1031 -0.0154  0.1553
69774W        W12868   3.472  14.198   1.572  0.0281  0.0786  0.2883
69775W        W12869   7.035  12.095   3.098  0.0169  0.1885 -0.1472
69776W        W12870   7.176  11.746   2.723 -0.1323  0.3498 -0.2966
69777W        W12871   5.435  14.342  31.251  0.3267 -0.0327  0.0416
69778W        W12872   8.072  11.474   2.240  0.0858 -0.0716 -0.0877
69779W        W12873   6.582  12.792   2.633 -0.1986  0.3934  0.0752
69780W        W12874   3.650  13.861   1.978  0.0066  0.0502 -0.0489
69781W        W12875   3.745  13.364   0.503  0.0592 -0.0967  0.0368
69782W        W12876   5.481  13.547   4.669 -0.1856  0.0811  0.1438
69783W        W12877   5.120  11.907   0.542 -0.0411  0.3067 -0.0011
69784W        W12878   4.815  12.553   0.469  0.1094  0.1455 -0.3562
69785W        W12879   6.640  13.245   2.172 -0.3321 -0.1009  0.0603
69786W        W12880   6.064  11.702   1.406  0.1115  0.1689  0.1217
69787W        W12881   5.681  12.777   0.723 -0.1553 -0.1241  0.1169
69788W        W12882   7.042  11.026   1.389 -0.2222  0.0197 -0.0472
69789W        W12883   7.595  10.802   1.172 -0.2348  0.0953 -0.1880
69790W        W12884   6.893  11.577   2.280 -0.3105  0.1180  0.1673
69791W        W12885   5.406  12.906   3.533 -0.1030 -0.3441 -0.0247
69792W        W12886   3.334  12.212   0.399 -0.2158  0.0872 -0.2369
69793W        W12887   4.410  13.803  31.389  0.5094 -0.0098  0.2836
69794W        W12888   5.161  12.722   2.391 -0.1063  0.0580 -0.1867
69795W        W12889   4.931   9.985   3.164 -0.1368 -0.0763 -0.1312
69796W        W12890   5.211  12.212   2.285 -0.1995  0.5389  0.0712
69797W        W12891   4.909  12.817   4.222  0.0654  0.4478 -0.0633
69798W        W12892   3.242  11.325   0.402  0.1360 -0.1201  0.0504
69799W        W12893   5.342  12.911  31.165 -0.1344  0.3460 -0.0053
69800W        W12894   4.291  11.921   2.233 -0.1500  0.1276 -0.0365
69801W        W12895   3.265  11.089   1.420 -0.1831 -0.1810 -0.2077
69802W        W12896   6.297  12.703   0.734  0.2031  0.1861  0.0626
69803W        W12897   7.594  11.996   0.636 -0.1341  0.0097 -0.1475
69804W        W12898   4.645  10.295   0.682  0.1628 -0.2888 -0.0646
69805W        W12899   5.847  15.322   3.011  0.0799 -0.0129 -0.2584
69806W        W12900   4.175  14.674  31.903  0.2920  0.0067  0.1099
69807W        W12901   5.888  11.687   2.959  0.0722 -0.0736  0.3267
69808W        W12902   5.764  11.750   4.783 -0.3423 -0.2164 -0.0540
69809W        W12903   2.335  12.075   0.437  0.0920  0.0413 -0.0435
69810W        W12904   6.866  10.834   2.684 -0.2645  0.2413 -0.2893
69811W        W12905   4.309  14.202   0.766 -0.0111 -0.0121  0.1481
69812W        W12906   6.685  14.609   0.806 -0.0870  0.0564  0.1104
69813W        W12907   4.925  14.370   3.782  0.1826 -0.0353 -0.1272
69814W        W12908   5.908  13.283   2.815 -0.3673  0.0446  0.0101
69815W        W12909   4.081  10.939   4.289 -0.0270  0.1147 -0.0652
69816W        W12910   4.929  13.685   0.136 -0.2223 -0.0667  0.1388
69817W        W12911   4.281  14.315   2.154 -0.1278 -0.0782 -0.0394
69818W        W12912   7.770  11.343  31.415 -0.2147 -0.0744  0.0673
69819W        W12913   7.677  10.429   1.477 -0.0242  0.2350  0.0685
69820W        W12914   4.800  11.908   2.233 -0.3528 -0.1287 -0.2531
69821W        W12915   4.119  11.662   1.757 -0.2299 -0.4356 -0.2489
69822W        W12916   4.615  11.854   3.155  0.3109  0.2426 -0.0440
69823W        W12917   6.741  12.461   2.323  0.2883 -0.2266 -0.1271
69824W        W12918   4.200  12.211   0.238 -0.0287 -0.3698 -0.0292
69825W        W12919   5.290  10.685   1.912  0.1064 -0.2141  0.0451
69826W        W12920   5.028  14.344   0.507  0.0204  0.0436 -0.2421
69827W        W12921   3.822  12.512   1.845  0.1838  0.0104 -0.1256
69828W        W12922   4.130  11.982   1.334 -0.0629 -0.2971  0.0835
69829W        W12923   5.557  12.432   2.602 -0.0556 -0.0711  0.0109
69830W        W12924   6.585  12.260   0.833 -0.0936 -0.1742  0.2126
69831W        W12925   7.259  13.052   3.027 -0.1690  0.0063 -0.0004
69832W        W12926   5.218  13.376   0.438  0.0444 -0.2741  0.0283
69833W        W12927   7.706  11.682   1.138 -0.0267 -0.1471 -0.0361
69834W        W12928   5.829  13.015   1.483 -0.3742  0.0126  0.0786
69835W        W12929   6.812  14.740   4.079 -0.1403  0.1103  0.0909
69836W        W12930   5.108  13.660   2.308  0.0835  0.0273 -0.0616
69837W        W12931   5.577  12.676   1.883  0.2810  0.1263  0.0286
69838W        W12932   3.963  11.736   2.530 -0.1185 -0.1313 -0.0992
69839W        W12933   3.214  13.197   1.466  0.2103 -0.1150  0.2597
69840W        W12934   4.249  13.138   1.191  0.0163 -0.1089 -0.3258
69841W        W12935   7.051  12.522   2.740  0.0893 -0.0331  0.0374
69842W        W12936   4.039  11.188   1.685 -0.2342  0.0985 -0.0921
69843W        W12937   5.746  10.976   1.537  0.0662 -0.1482  0.0633
69844W        W12938   5.500  13.585   1.946  0.1030 -0.0534 -0.0957
69845W        W12939   5.864  12.404   1.559  0.3760  0.2556  0.1070
69846W        W12940   4.015  13.163   6.348  0.2288  0.0258  0.1999
69847W        W12941   2.947  11.311   4.766  0.0755 -0.1017  0.0544
69848W        W12942   6.392  11.326   4.567 -0.0629 -0.1068 -0.0931
69849W        W12943   7.166  12.698   5.748 -0.0194  0.1645 -0.1320
69850W        W12944   3.379  12.159   6.245  0.1054  0.0620  0.0607
69851W        W12945   5.573  14.046   4.547  0.1453  0.1055  0.1323
69852W        W12946   3.710  10.387   6.733 -0.0282  0.2185  0.1003
69853W        W12947   4.780  13.229   5.640  0.1240 -0.0169 -0.0422
69854W        W12948   7.382  14.638   4.029  0.3901 -0.0259  0.1682
69855W        W12949   5.529  13.270   3.141 -0.1039  0.0655 -0.2254
69856W        W12950   4.987  10.384   5.413  0.0543 -0.2438 -0.1159
69857W        W12951   4.681  14.322   7.148  0.2047  0.0901 -0.1792
69858W        W12952   4.585  10.127   5.787 -0.1232  0.0546  0.1346
69859W        W12953   5.060   9.237   5.446 -0.0993 -0.1854  0.0891
69860W        W12954   5.087  11.237   6.110  0.1524 -0.2688 -0.1288
69861W        W12955   4.177  13.473   5.001  0.4061  0.1109  0.2679
69862W        W12956   4.553  11.597   6.889 -0.1520  0.3050  0.0188
69863W        W12957   6.496  12.261   4.689  0.0251 -0.1401 -0.1449
69864W        W12958   5.436  13.883   5.792 -0.0329  0.2141 -0.0273
69865W        W12959   4.197  11.327   6.522  0.0406 -0.3728  0.1931
69866W        W12960   3.822  10.871   6.650  0.1530  0.1859  0.1746
69867W        W12961   5.195  15.010   4.228  0.0593  0.0857  0.1166
69868W        W12962   3.864  12.914   4.831 -0.0198  0.0776 -0.2798
69869W        W12963   3.289  10.995   5.975  0.1763 -0.1774  0.1594
69870W        W12964   4.990  13.109   6.078 -0.2754  0.0365 -0.0298
69871W        W12965   6.327  10.040   6.407  0.0025  0.0368 -0.0991
69872W        W12966   5.482  12.600   4.624 -0.1500 -0.0390 -0.1936
69873W        W12967   4.781  14.029   5.215 -0.1790  0.0239 -0.0046
69874W        W12968   5.067  13.636   4.925 -0.1382 -0.2826 -0.2049
69875W        W12969   6.703  11.883   5.981 -0.1288  0.0984  0.1965
69876W        W12970   4.545  13.598   4.499  0.1221 -0.0914 -0.1269
69877W        W12971   3.669  13.707   5.160 -0.1174 -0.3988 -0.0569
69878W        W12972   6.250  14.009   4.351  0.1023  0.2319 -0.1874
69879W        W12973   6.886  13.465   5.385 -0.0806 -0.0640 -0.1402
69880W        W12974   5.856  12.801   5.716  0.2358  0.0263 -0.2276
69881W        W12975   3.718  14.813   6.998 -0.0487 -0.1799  0.1203
69882W        W12976   3.639  13.631   3.007 -0.0016 -0.0598 -0.0725
69883W        W12977   5.589  14.210   7.860 -0.0501 -0.1132 -0.0321
69884W        W12978   4.895  14.152   6.635 -0.2482 -0.0462 -0.1547
69885W        W12979   5.329  10.983   6.497 -0.2932  0.1551  0.1677
69886W        W12980   5.205  12.208   4.027  0.0873 -0.0600 -0.0815
69887W        W12981   4.723  14.033   4.711  0.1156 -0.1618 -0.0922
69888W        W12982   5.077  11.840   4.913 -0.0977 -0.0818  0.0585
69889W        W12983   4.941  12.557   6.865  0.1436  0.0875  0.1614
69890W        W12984   3.223  13.590   5.513 -0.0136  0.2460  0.0008
69891W        W12985   6.185  11.536   6.034  0.0067  0.3748  0.2035
69892W        W12986   5.087  13.328   4.260 -0.1193  0.1665  0.2511
69893W        W12987   7.001  11.951   4.071  0.1668  0.3267 -0.0458
69894W        W12988   5.599  12.217   4.355  0.2909 -0.2030  0.1030
69895W        W12989   6.636  12.033   3.379 -0.0789 -0.1419  0.0148
69896W        W12990   5.834  10.047   5.643  0.4146 -0.2792 -0.0516
69897W        W12991   4.828  14.554   5.255  0.1726  0.1538  0.1232
69898W        W12992   5.075  12.267   5.919  0.2838 -0.1667 -0.1113
69899W        W12993   6.541  12.281   6.274  0.3141  0.2776  0.0317
69900W        W12994   5.384  12.714   4.051  0.2425  0.0809  0.1556
69901W        W12995   4.730  11.259   6.481 -0.1085 -0.1426  0.2772
69902W        W12996   4.577  13.958   6.299 -0.2103  0.1279  0.0032
69903W        W12997   2.786  11.429   5.330  0.4298 -0.2195 -0.3233
69904W        W12998   6.517  14.721   3.665 -0.0730 -0.1385 -0.1892
69905W        W12999   7.183  14.353   5.362  0.3270  0.0263  0.2035
69906W        W13000   6.881  13.816   3.794  0.3147  0.0893  0.0425
69907W        W13001   3.597  11.433   4.659 -0.0295  0.1836  0.3819
69908W        W13002   3.665  12.564   6.032  0.0200 -0.0050  0.0338
69909W        W13003   3.779  11.889   8.166 -0.0494 -0.1514  0.1206
69910W        W13004   5.273  11.234   3.705  0.1543 -0.0498 -0.4392
69911W        W13005   5.026  13.356   7.140  0.1107 -0.2642  0.0426
69912W        W13006   3.940  12.254   6.448  0.0732  0.0304  0.0315
69913W        W13007   5.597  11.042   5.317  0.0851  0.2371  0.0903
69914W        W13008   4.356  12.951   5.017 -0.0050 -0.3271  0.1739
69915W        W13009   5.687  14.156   6.772 -0.2027 -0.0990 -0.0429
69916W        W13010   5.055  12.598   3.189  0.0974  0.0458  0.1244
69917W        W13011   6.957   9.932   3.602  0.2040 -0.1623  0.2726
69918W        W13012   5.370   9.538   5.629  0.1510  0.1708  0.5399
69919W        W13013   4.384  12.935   4.444  0.2557 -0.5196 -0.1763
69920W        W13014   4.049  12.523   4.176 -0.1990  0.0516 -0.1728
69921W        W13015   6.493  14.352   6.462 -0.3319 -0.0901 -0.0186
69922W        W13016   5.908  11.298   4.700 -0.1538  0.1537 -0.1210
69923W        W13017   3.791  14.222   5.206 -0.0387 -0.0280 -0.4212
69924W        W13018   4.898  10.797   6.468 -0.1016  0.0668 -0.0804
69925W        W13019   5.323  13.496   6.745  0.1354  0.0261  0.3408
69926W        W13020   4.398  14.487   3.920  0.0287 -0.0214 -0.2454
69927W        W13021   4.208  12.222   5.599 -0.2881  0.1795 -0.0211
69928W        W13022   4.699  12.322   4.071  0.0862 -0.0064  0.0068
69929W        W13023   4.127  10.631   6.051 -0.2901 -0.1205 -0.1395
69930W        W13024   5.410  13.976   5.299  0.1327 -0.4674  0.0707
69931W        W13025   6.214  10.267   5.429  0.0114 -0.0168 -0.0414
69932W        W13026   3.281  10.165   6.892 -0.3162 -0.0451 -0.1042
69933W        W13027   6.696  10.294   5.383 -0.0783  0.0855  0.0001
69934W        W13028   3.488  13.146   5.197  0.0152  0.2932  0.3373
69935W        W13029   7.832  15.266   5.059 -0.1887  0.1033  0.0230
69936W        W13030   6.658  12.898   4.575  0.1386  0.4193  0.1317
69937W        W13031   7.121  14.493   2.654 -0.3690 -0.1506 -0.3168
69938W        W13032   3.160  12.168   6.735 -0.0823  0.0194  0.2327
69939W        W13033   3.379  11.215   5.071  0.0950  0.1188 -0.2501
69940W        W13034   4.461  11.707   6.339 -0.1201 -0.1839 -0.2374
69941W        W13035   4.164   9.407   5.149  0.1372 -0.0247  0.1988
69942W        W13036   6.136  12.131   6.047 -0.2452 -0.0400 -0.2211
69943W        W13037   4.285  12.013   2.813  0.0055  0.3996  0.0014
69944W        W13038   4.881  12.233   5.034  0.1393 -0.0297  0.2759
69945W        W13039   4.464  13.006   6.074  0.0607 -0.1776  0.0059
69946W        W13040   3.145  12.453   5.326  0.1204  0.3139 -0.1050
69947W        W13041   5.894  11.517   7.544 -0.2185  0.0004 -0.2393
69948W        W13042   5.361  14.608   3.931  0.2362 -0.1487  0.2214
69949W        W13043   8.148  14.856   4.817  0.0042 -0.3375 -0.4998
69950W        W13044   6.063  14.338   5.387 -0.0419 -0.0441  0.3061
69951W        W13045   3.705  10.421   6.211  0.0668 -0.1050  0.3307
69952W        W13046   4.215  11.802   4.622 -0.0048  0.0005 -0.2542
69953W        W13047   3.189  14.753   5.335 -0.0782  0.2843 -0.0029
69954W        W13048   4.393  14.237   5.485  0.0282  0.0558  0.1058
69955W        W13049   4.686  11.072   5.020 -0.0495  0.1507  0.0246
69956W        W13050   6.654  13.935   6.232  0.1821 -0.0913 -0.3790
69957W        W13051   5.860  12.662   4.224  0.4298  0.1870 -0.1492
69958W        W13052   3.293  13.376   5.958  0.0214  0.4287 -0.0063
69959W        W13053   5.946  11.690   6.673  0.1236  0.1567  0.1303
69960W        W13054   7.210  12.777   6.706 -0.0068  0.1134 -0.0867
69961W        W13055   5.202  12.719   5.134 -0.1409 -0.2565 -0.0643
69962W        W13056   3.851   9.606   3.577  0.2256  0.2411 -0.2526
69963W        W13057   5.395  14.560   4.480 -0.2262  0.0325 -0.1550
69964W        W13058   2.673  15.107   5.308 -0.0383 -0.1576 -0.0450
69965W        W13059   4.008  12.896   5.878 -0.2070 -0.1832 -0.0992
69966W        W13060   4.461  15.228   4.110 -0.2450  0.0070 -0.2289
69967W        W13061   6.457  10.040   5.029 -0.1640 -0.1570 -0.0164
69968W        W13062   3.793  12.875   6.646  0.2597  0.3153 -0.0934
69969W        W13063   5.762  12.299   7.543  0.0557 -0.2158  0.2048
69970W        W13064   2.474  11.762   4.145  0.1311 -0.3772  0.1515
69971W        W13065   3.431  14.384   5.620 -0.3421  0.2550  0.0377
69972W        W13066   7.559  10.013   4.939  0.0077  0.0769 -0.1815
69973W        W13067   7.707  10.782   4.218  0.1122  0.0966  0.1232
69974W        W13068   5.393  13.468   6.180 -0.0644 -0.0857  0.1063
69975W        W13069   5.637  12.399   3.729 -0.2088 -0.1527 -0.2287
69976W        W13070   5.961  11.329   1.933  0.0835  0.1370 -0.5198
69977W        W13071   6.312  10.974   1.706  0.1197  0.2110 -0.0756
69978W        W13072   2.607  13.352   6.188 -0.2058 -0.0978 -0.2248
69979W        W13073   5.186  14.203   4.926 -0.0127  0.1031 -0.1032
69980W        W13074   5.910  13.324   5.767 -0.1031  0.1020 -0.1018
69981W        W13075   6.635  10.924   3.173 -0.1224 -0.2944 -0.3228
69982W        W13076   6.701  15.015   4.650 -0.1334 -0.1339  0.2747
69983W        W13077   4.105  11.798   6.728 -0.0307  0.1211  0.0715
69984W        W13078   4.936  13.637   6.487 -0.0119  0.0164  0.4961
69985W        W13079   5.192  15.622   4.655  0.3877  0.2757 -0.1685
69986W        W13080   4.276   9.807   4.969 -0.0976 -0.2816 -0.1917
69987W        W13081   4.784  10.594   4.951 -0.1428  0.0735  0.1396
69988W        W13082   6.158   9.446   4.265  0.1106 -0.1694 -0.1543
69989W        W13083   3.909  13.234   3.326  0.1229 -0.2190  0.2101
69990W        W13084   5.662  11.320   6.782  0.1552 -0.0234 -0.2216
69991W        W13085   4.765  11.759   5.320  0.0051  0.1160  0.2552
69992W        W13086   4.442  10.870   7.415 -0.3543  0.2305 -0.1417
69993W        W13087   7.144  12.321   6.319  0.0546  0.1018  0.1113
69994W        W13088   5.378  12.244   4.997 -0.1037  0.0819  0.1086
69995W        W13089   5.168  11.471   6.748  0.2002  0.0003 -0.0519
69996W        W13090   4.402  11.991   4.156  0.2418  0.3780 -0.2867
69997W        W13091   5.466  11.484   6.332 -0.1909  0.1493 -0.1836
69998W        W13092   4.502  12.259   6.551  0.0778  0.1854  0.2258
69999W        W13093   4.130  13.823   6.444  0.1303  0.2727 -0.0911
70000W        W13094   6.327  14.253   5.977 -0.1179  0.2766 -0.3292
70001W        W13095   5.111  13.189   5.165 -0.1081  0.1236  0.1035
70002W        W13096   5.518   9.502   6.800 -0.3072 -0.0410 -0.0850
70003W        W13097   7.172  10.075   4.029  0.1121 -0.2314  0.1314
70004W        W13098   5.470  15.133   3.842  0.0199  0.0286  0.3146
70005W        W13099   6.132  13.831   4.841  0.1021 -0.3249 -0.5065
70006W        W13100   3.937  10.453   4.951 -0.3021 -0.0495 -0.0361
70007W        W13101   4.211  14.698   6.691 -0.0272 -0.0421  0.5078
70008W        W13102   4.132  13.242   4.046  0.0106 -0.1129 -0.1812
70009W        W13103   5.896  12.679   6.626  0.1323 -0.1330  0.1772
70010W        W13104   5.309  14.590   3.226  0.0175 -0.0391  0.1515
70011W        W13105   5.262  10.506   6.305  0.1110 -0.0912  0.4240
70012W        W13106   3.178  13.459   4.997  0.0781 -0.0668  0.1357
70013W        W13107   3.966  11.679   3.815 -0.1236  0.1410 -0.1021
70014W        W13108   3.854  11.669   5.040 -0.2070 -0.1430 -0.0331
70015W        W13109   6.511  11.253   4.101  0.0533 -0.2601 -0.3378
70016W        W13110   6.517  13.887   5.745  0.0458  0.0640 -0.4666
70017W        W13111   5.293  11.428   7.298  0.0742  0.3690  0.2976
70018W        W13112   4.614  11.376   5.768 -0.2695  0.2285  0.1669
70019W        W13113   2.477  15.011   6.611  0.0911 -0.1483 -0.0901
70020W        W13114   5.547  11.339   5.755 -0.1827  0.1891 -0.2242
70021W        W13115   6.574  11.773   4.202  0.0667  0.1805 -0.2188
70022W        W13116   5.269  12.634   6.285  0.2192 -0.1674 -0.1669
70023W        W13117   4.408  13.499   6.134  0.1518 -0.1446 -0.0319
70024W        W13118   3.778  11.149   5.419 -0.1058 -0.0265 -0.3196
70025W        W13119   5.797  11.805   6.159 -0.3948 -0.2886  0.0596
70026W        W13120   4.222  11.041   5.728 -0.0608  0.2948 -0.3212
70027W        W13121   2.173  12.387   6.643 -0.0122 -0.2377  0.1950
70028W        W13122   6.181  13.895   5.344 -0.0461  0.3499 -0.0254
70029W        W13123   3.424  12.532   4.195  0.0574 -0.1805 -0.0228
70030W        W13124   3.846  12.519   5.456  0.0083  0.1750 -0.2294
70031W        W13125   4.197  12.241   7.539 -0.1716  0.2510  0.1986
70032W        W13126   5.278  12.959   7.101 -0.0127  0.1916  0.0346
70033W        W13127   4.673  10.919   5.985  0.0864 -0.0715 -0.2254
70034W        W13128   5.121  11.478   4.175  0.2896  0.0616  0.1897
70035W        W13129   4.933  12.085   6.729  0.2729  0.3064 -0.0849
70036W        W13130   5.484  12.475   5.686  0.0445 -0.0641  0.1238
70037W        W13131   5.301  12.909   8.691 -0.3164 -0.1215  0.1141
70038W        W13132   3.737  13.526   6.069 -0.0055  0.2633  0.0544
70039W        W13133   6.429   9.448   4.720  0.1449  0.0512  0.1181
70040W        W13134   7.619  14.918   4.782 -0.1723  0.2342 -0.1527
70041W        W13135   5.359  12.125   6.285  0.3432 -0.0494  0.0332
70042W        W13136   3.253  12.724   3.162  0.1594 -0.2845  0.1815
70043W        W13137   3.289  11.765   5.837  0.0085  0.0481  0.0502
70044W        W13138   5.307  13.059   4.642 -0.3779  0.1119 -0.0373
70045W        W13139   4.111  10.097   6.082  0.1461  0.0817 -0.0322
70046W        W13140   4.208  13.942   5.902  0.0716 -0.0982  0.0491
70047W        W13141   3.273  13.115   3.940 -0.0511  0.1830  0.3009
70048W        W13142   2.452  13.801   4.993  0.3638 -0.1911  0.1375
70049W        W13143   5.371  11.436   4.783 -0.0066 -0.1209  0.1199
70050W        W13144   5.857  12.700   2.841  0.1045 -0.3549  0.3232
70051W        W13145   5.488  11.083   4.335 -0.0261  0.1672  0.0118
70052W        W13146   6.197  10.228   5.944  0.0686 -0.0589 -0.0256
70053W        W13147   5.962  13.548   4.430 -0.2384 -0.1089  0.0068
70054W        W13148   6.615  10.436   6.508  0.1696 -0.0499 -0.1998
70055W        W13149   5.654  10.928   3.812 -0.2690 -0.0024  0.0254
70056W        W13150   5.659  12.670   5.270  0.0212  0.0928  0.0275
70057W        W13151   3.595  11.137   8.878 -0.1042  0.2673  0.1399
70058W        W13152   6.038  13.605   7.448  0.1456  0.0885 -0.0544
70059W        W13153   3.868  12.556   7.976 -0.1388  0.1507  0.1543
70060W        W13154   4.704  11.962   4.534 -0.0656  0.2902  0.0786
70061W        W13155   5.642  11.240   2.980  0.1230  0.2097 -0.2435
70062W        W13156   4.901  13.603   5.981  0.2503  0.2218 -0.1839
70063W        W13157   4.747  12.875   5.317 -0.1436  0.1221 -0.1580
70064W        W13158   6.196  13.132   4.282 -0.0686  0.2609 -0.0479
70065W        W13159   7.027  12.339   4.955  0.2003 -0.3011 -0.0715
70066W        W13160   3.095  12.568   4.590  0.0318 -0.3668 -0.4294
70067W        W13161   4.995  11.722   6.264  0.1467  0.2004  0.1865
70068W        W13162   5.940  12.262   4.720 -0.1055 -0.6930  0.0717
70069W        W13163   4.172  12.699   6.382  0.0121  0.2256  0.3652
70070W        W13164   5.478   8.284   6.369  0.0184  0.3077 -0.2880
70071W        W13165   6.289  12.915   5.326 -0.2752 -0.2594 -0.2297
70072W        W13166   4.412  10.849   6.452 -0.1583  0.3901  0.2218
70073W        W13167   5.686  13.273   7.867 -0.3935 -0.0340  0.0781
70074W        W13168   5.689  12.672   7.068  0.1805  0.1849  0.3523
70075W        W13169   4.462  12.700   7.502  0.2564 -0.2032 -0.7956
70076W        W13170   4.979  11.053   6.878  0.1500  0.0594  0.1429
70077W        W13171   6.622  14.287   5.393 -0.0582 -0.3506 -0.1603
70078W        W13172   7.586  13.080   3.834  0.5788  0.1555 -0.0456
70079W        W13173   5.130  12.044   5.440  0.5332  0.0184 -0.1827
70080W        W13174   7.525  15.047   5.992 -0.0993 -0.2607  0.2626
70081W        W13175   6.125  12.559   3.810  0.2481 -0.1850 -0.0019
70082W        W13176   2.949  11.434   5.958  0.0060  0.1052 -0.1292
70083W        W13177   5.501  12.388   6.679  0.1706 -0.0151  0.1563
70084W        W13178   4.971  11.241   4.588  0.1061  0.0866  0.0423
70085W        W13179   5.644  10.271   7.387  0.1395 -0.0530 -0.1065
70086W        W13180   4.303  14.140   5.032  0.2437  0.0137 -0.1465
70087W        W13181   5.736  13.647   5.103  0.0144  0.2205 -0.1639
70088W        W13182   5.835  11.486   5.294 -0.2403 -0.2370 -0.1489
70089W        W13183   3.572  11.370   5.922  0.0842  0.0544  0.0585
70090W        W13184   4.444  13.589   7.722  0.2502 -0.0409 -0.0997
70091W        W13185   5.016  13.176   3.351  0.0929  0.0849 -0.1605
70092W        W13186   5.602  13.245   4.257  0.0549 -0.4377 -0.0499
70093W        W13187   4.515  14.640   4.861  0.1227 -0.0243 -0.0701
70094W        W13188   5.834  13.188   6.931  0.0903  0.0680 -0.1491
70095W        W13189   6.976  10.253   4.904 -0.3503  0.0140  0.0352
70096W        W13190   6.586  11.242   5.885  0.2774  0.1418  0.3789
70097W        W13191   4.121  13.851   4.586 -0.0753  0.0794  0.1395
70098W        W13192   5.489   8.495   5.892 -0.2077  0.1478 -0.2249
70099W        W13193   3.585  13.924   5.647  0.0804  0.0987 -0.2412
70100W        W13194   3.330  13.070   6.751 -0.3521  0.1802 -0.1644
70101W        W13195   4.635  13.539   5.136 -0.0130  0.3013 -0.0278
70102W        W13196   5.471  10.562   5.435  0.1570  0.0269 -0.0071
70103W        W13197   5.119  11.578   5.708 -0.0861  0.0123  0.4208
70104W        W13198   4.703  12.287   5.515 -0.0736  0.2373  0.0265
70105W        W13199   7.087  11.566   5.846 -0.1147  0.0127 -0.1565
70106W        W13200   5.045  13.723   5.535 -0.1854 -0.1395 -0.0654
70107W        W13201   5.920  12.184   6.531  0.0030 -0.2292 -0.0942
70108W        W13202   5.085  15.142   7.052  0.0570 -0.2002  0.1930
70109W        W13203   5.778  12.938   4.855  0.1121  0.2059 -0.1832
70110W        W13204   3.191  14.415   4.553  0.1671  0.3785  0.3659
70111W        W13205   2.824  11.373   6.808  0.0110 -0.0128  0.0552
70112W        W13206   5.502  12.995   6.030  0.0340 -0.0169 -0.0242
70113W        W13207   6.733  14.491   4.484 -0.3223  0.0213 -0.2470
70114W        W13208   4.309  10.829   4.774  0.0130  0.0598  0.2335
70115W        W13209   5.674  13.729   3.570  0.2471  0.0512  0.2646
70116W        W13210   3.803  13.349   7.770  0.0858 -0.2124 -0.0482
70117W        W13211   2.803  11.843   7.020 -0.1752 -0.1078 -0.0203
70118W        W13212   3.958  12.865   3.808  0.0999  0.2281 -0.1934
70119W        W13213   6.351  14.296   4.946 -0.0678  0.2192  0.3843
70120W        W13214   5.569  14.208   3.673  0.0879  0.1842 -0.0737
70121W        W13215   6.026  14.400   4.502 -0.3473  0.1313  0.0163
70122W        W13216   4.181  11.301   4.824 -0.0142  0.0577  0.0481
70123W        W13217   2.828  13.849   5.290 -0.3197  0.0580 -0.2036
70124W        W13218   4.274  14.332   4.544  0.1203  0.3832 -0.2070
70125W        W13219   5.937  13.967   3.924 -0.4276  0.1385 -0.2826
70126W        W13220   4.837  15.035   5.020 -0.0830 -0.2979 -0.0854
70127W        W13221   8.418  13.896   6.624 -0.3476 -0.0665 -0.0236
70128W        W13222   6.959  11.407   3.920  0.0708 -0.1293 -0.2143
70129W        W13223   6.881  11.982   4.538 -0.0407  0.2669  0.3143
70130W        W13224   6.285  11.515   5.064 -0.4359  0.1924 -0.0336
70131W        W13225   6.563  13.764   7.311 -0.0849  0.0547 -0.0622
70132W        W13226   4.709  12.754   6.440  0.3848  0.4023  0.0529
70133W        W13227   5.024  11.350   5.211 -0.0289  0.3222 -0.0852
70134W        W13228   4.990  11.539   7.672  0.2234  0.0945 -0.0686
70135W        W13229   6.724  10.733   6.159 -0.1158 -0.3729  0.3264
70136W        W13230   3.578  13.583   7.038 -0.0537  0.5183 -0.0580
70137W        W13231   6.314  14.527   4.131 -0.0751 -0.0380  0.2121
70138W        W13232   3.320  12.117   3.937 -0.1228 -0.0875  0.1154
70139W        W13233   5.041  10.595   5.889 -0.1367  0.0973 -0.2681
70140W        W13234   5.463  10.062   5.297 -0.1442 -0.3302 -0.0249
70141W        W13235   4.830  13.769   2.831 -0.0772  0.0710  0.0173
70142W        W13236   5.337  12.283   7.147  0.1327  0.0066 -0.3258
70143W        W13237   4.438  11.995   5.031  0.0899  0.1125  0.4428
70144W        W13238   5.896  14.417   5.855 -0.0640  0.1320  0.3877
70145W        W13239   3.910  15.621   5.725  0.1650 -0.0846  0.0796
70146W        W13240   2.960  10.941   5.099 -0.1196  0.2419 -0.2706
70147W        W13241   7.690  12.613   4.393 -0.0924  0.1007  0.0106
70148W        W13242   4.118  12.459   7.013  0.0565 -0.1848 -0.1008
70149W        W13243   6.807  11.058   5.466  0.1253 -0.2857  0.2273
70150W        W13244   4.227  11.737   5.468  0.1126 -0.1901 -0.1462
70151W        W13245   6.219  10.273   4.425 -0.1199  0.1968 -0.1710
70152W        W13246   4.795  12.726   5.792  0.0381  0.0706 -0.2140
70153W        W13247   3.820  11.724   6.313 -0.0017 -0.1137  0.0993
70154W        W13248   3.965  12.146   4.947 -0.2272  0.0348 -0.1379
70155W        W13249   6.545  13.061   6.242 -0.0478  0.3013 -0.0514
70156W        W13250   6.019  11.350   2.516  0.1551 -0.0555  0.0663
70157W        W13251   5.715  14.655   7.596  0.1760 -0.0566  0.1722
70158W        W13252   5.023  10.939   4.141 -0.0276  0.3243  0.1040
70159W        W13253   5.641  11.465   3.968  0.2515  0.0514  0.1377
70160W        W13254   4.373  12.718   5.601  0.1849 -0.0208 -0.0014
70161W        W13255   4.542  13.700   5.606 -0.3956 -0.1149 -0.1963
70162W        W13256   5.528  13.013   6.520  0.4345 -0.2043 -0.4623
70163W        W13257   5.207  10.181   3.547  0.1694  0.3070  0.2583
70164W        W13258   5.804  13.000   3.837 -0.0335 -0.1951  0.0119
70165W        W13259   5.451  10.911   5.992 -0.2719  0.0893 -0.1832
70166W        W13260   5.439  14.080   3.172  0.0103  0.4352  0.2534
70167W        W13261   6.727  13.125   5.046  0.0679  0.1224 -0.2550
70168W        W13262   5.980  13.892   5.795 -0.0091 -0.3236  0.0161
70169W        W13263   3.792  11.406   6.875  0.1279  0.2265 -0.2104
70170W        W13264   5.924  14.358   6.349  0.1060  0.0401 -0.0521
70171W        W13265   5.681  13.918   6.262  0.0849 -0.0630 -0.1757
70172W        W13266   5.653  10.165   4.451  0.0677 -0.0156  0.1584
70173W        W13267   3.779  10.969   4.703 -0.0700  0.2058 -0.2039
70174W        W13268   3.717  14.787   5.438 -0.2009  0.0680  0.0810
70175W        W13269   5.963  10.650   5.309 -0.1282  0.3131  0.0088
70176W        W13270   5.723  13.024   7.411 -0.1149  0.1869  0.2296
70177W        W13271   6.706  12.728   3.937  0.0175 -0.2921  0.0405
70178W        W13272   5.666  10.217   6.227 -0.1587  0.3079  0.0289
70179W        W13273   4.736  14.102   5.837  0.0072 -0.1090 -0.0284
70180W        W13274   4.694  13.279   8.107 -0.0206  0.1071  0.1099
70181W        W13275   4.676  12.616   4.827  0.0141  0.1354  0.1285
70182W        W13276   4.630  13.208   6.617  0.0306  0.1916 -0.0935
70183W        W13277   6.653  12.995   3.480  0.1859  0.1471  0.0834
70184W        W13278   5.209  14.269   5.619  0.1545 -0.0607 -0.0771
70185W        W13279   7.029  13.916   5.497 -0.0185 -0.4229  0.1104
70186W        W13280   4.610  10.808   5.403  0.1049  0.2041  0.0698
70187W        W13281   6.744  14.623   5.018 -0.2051 -0.4150 -0.0853
70188W        W13282   5.031  10.177   4.955  0.0857 -0.0278 -0.3874
70189W        W13283   7.244  10.912   4.258 -0.0180  0.3738 -0.2237
70190W        W13284   6.512   9.829   3.913 -0.0384  0.0033  0.0260
70191W        W13285   4.344  13.281   5.428 -0.0690 -0.0510  0.0242
70192W        W13286   3.261  11.701   4.982 -0.0101  0.1877 -0.0351
70193W        W13287   5.535  13.733   4.141  0.0763  0.3220 -0.0838
70194W        W13288   3.525  12.999   6.249 -0.0051 -0.4301  0.3447
70195W        W13289   4.937  10.255   6.583 -0.1318 -0.1874  0.1845
70196W        W13290   4.963  11.755   7.213  0.0741 -0.1554 -0.1411
70197W        W13291   4.092  11.486   5.901 -0.3023 -0.1438 -0.2109
70198W        W13292   3.710  11.236   3.903 -0.1005 -0.3473  0.0955
70199W        W13293   6.468  13.493   4.625 -0.0720 -0.2584  0.0659
70200W        W13294   3.046   9.161   5.899  0.1999 -0.0878  0.0398
70201W        W13295   3.765  10.948   6.160 -0.1603  0.2748  0.2037
70202W        W13296   6.571  13.743   5.074 -0.0354  0.1454  0.2260
70203W        W13297   6.739  14.134   4.144 -0.0449  0.0347  0.0368
70204W        W13298   4.339  12.373   4.545  0.0857 -0.1126 -0.3401
70205W        W13299   7.177  13.920   6.206 -0.0239 -0.1221  0.1727
70206W        W13300   2.064  15.496   2.886 -0.0969 -0.0341 -0.1560
70207W        W13301   3.592  11.607   7.294  0.4252 -0.0949  0.3750
70208W        W13302   4.186  10.425   6.531  0.1255 -0.1217 -0.0547
70209W        W13303   3.339  11.721   2.395 -0.2002 -0.0214 -0.0440
70210W        W13304   4.366  11.287   5.374 -0.0032  0.0856  0.1543
70211W        W13305   6.437  14.414   3.206  0.1487 -0.2263  0.0664
70212W        W13306   6.258  14.087   2.802  0.0011  0.0257 -0.3982
70213W        W13307   4.791  14.655   6.738 -0.1740  0.1679 -0.1516
70214W        W13308   4.399  14.229   6.653 -0.3629  0.2422 -0.0444
70215W        W13309   3.749  10.970   7.191 -0.1983 -0.0557  0.0376
70216W        W13310   6.874  14.126   5.020  0.1852  0.0093 -0.3119
70217W        W13311   4.231  12.955   6.843 -0.0978 -0.3016 -0.4412
70218W        W13312   6.344  12.643   4.258  0.0542  0.1443 -0.0296
70219W        W13313   5.161  10.827   5.155 -0.0527 -0.0503  0.0290
70220W        W13314   6.118  12.462   5.166  0.1388  0.2172  0.1702
70221W        W13315   5.671   9.365   7.816 -0.1824 -0.0166  0.0550
70222W        W13316   4.413  13.921   8.665 -0.0978 -0.0160  0.0390
70223W        W13317   6.396  12.575   5.725 -0.1933 -0.0154 -0.2666
70224W        W13318   4.546  10.205   4.596 -0.3046  0.1449 -0.2379
70225W        W13319   6.177  12.082   3.750  0.0411  0.1986 -0.1217
70226W        W13320   7.295  14.177   3.568  0.4896 -0.0937  0.4922
70227W        W13321   4.725  11.941   5.860  0.3195 -0.0964  0.1389
70228W        W13322   4.527  12.406   6.047  0.0349 -0.0327 -0.1064
70229W        W13323   4.325  11.054   6.944  0.0724  0.0031  0.1929
70230W        W13324   6.650  13.989   4.625  0.3463 -0.1536 -0.3600
70231W        W13325   6.768  12.623   6.529 -0.1787  0.0448  0.0946
70232W        W13326   4.585  10.983   4.401 -0.0126  0.4141  0.2396
70233W        W13327   7.683  13.365   2.910  0.1485  0.0915 -0.2156
70234W        W13328   4.995  15.072   6.534  0.4511 -0.0154 -0.2255
70235W        W13329   6.374  14.750   5.710  0.1884 -0.0804  0.1600
70236W        W13330   4.841  14.585   6.181  0.0338  0.1700 -0.1073
70237W        W13331   6.180  13.306   5.012  0.1767 -0.0917 -0.1926
70238W        W13332   4.900   9.739   5.677 -0.0890 -0.0967 -0.0322
70239W        W13333   5.050  12.367   4.517 -0.2518 -0.3324  0.0352
70240W        W13334   4.491  11.497   4.305  0.2396  0.1204 -0.0203
70241W        W13335   5.486  11.825   6.668  0.1629  0.0143 -0.0391
70242W        W13336   5.198  10.782   4.634 -0.0668 -0.2704  0.1931
70243W        W13337   6.734  11.620   4.823  0.2632 -0.0577 -0.4240
70244W        W13338   4.058  13.867   5.400 -0.1002  0.1837  0.0586
70245W        W13339   4.788  13.136   4.742 -0.1946  0.2469  0.1870
70246W        W13340   4.061  12.461   9.466 -0.0476 -0.0970  0.0948
70247W        W13341   4.487  11.856   7.409 -0.2177  0.2286 -0.2901
70248W        W13342   6.195  10.781   6.286 -0.0323  0.1595  0.2206
70249W        W13343   6.669  13.250   7.639 -0.0764 -0.1476  0.3169
70250W        W13344   2.403  10.693   8.976  0.1109  0.1699 -0.1637
70251W        W13345   5.228  14.405   6.919  0.0080  0.1794  0.0930
70252W        W13346   6.766  14.199   7.531  0.3871 -0.0214  0.0686
70253W        W13347   6.973  13.638   7.684 -0.1452 -0.2777 -0.4610
70254W        W13348   5.851  11.771   8.085 -0.1357 -0.2619  0.1821
70255W        W13349   5.412  12.023   8.851  0.1894 -0.1645 -0.1660
70256W        W13350   4.679   9.714   8.332  0.0814  0.0458  0.0744
70257W        W13351   3.771   9.057   9.071  0.3267  0.0855  0.0195
70258W        W13352   6.897  12.782   9.954 -0.2869  0.0650 -0.3444
70259W        W13353   4.034  11.180   7.556 -0.0852 -0.0637 -0.0745
70260W        W13354   5.361  11.969   9.466 -0.2776  0.0985 -0.2844
70261W        W13355   4.945  11.890   8.022 -0.1790  0.1513 -0.3560
70262W        W13356   5.451  14.255   8.354  0.1877  0.3654 -0.0949
70263W        W13357   6.590   7.569   8.923 -0.1828  0.3253 -0.1058
70264W        W13358   4.595  13.831   6.878 -0.0529 -0.1392 -0.0329
70265W        W13359   3.925  11.992   7.168 -0.2833  0.1025  0.1035
70266W        W13360   2.631  12.357   9.304 -0.2851  0.0509 -0.0639
70267W        W13361   5.952  12.668   9.162  0.1393 -0.2438 -0.0918
70268W        W13362   6.111  12.073   9.032 -0.1709 -0.1274 -0.0249
70269W        W13363   6.770  11.907   7.992 -0.3694 -0.0056 -0.1420
70270W        W13364   4.344  14.111   9.110 -0.0739  0.0852 -0.0020
70271W        W13365   6.423  13.371   9.080 -0.0986  0.0561  0.1261
70272W        W13366   3.596  12.355   6.948  0.0764  0.1110  0.2939
70273W        W13367   3.493  14.587   8.165  0.0635  0.1808  0.0123
70274W        W13368   3.557  14.405   9.153 -0.0632 -0.0362 -0.1538
70275W        W13369   8.312  13.128   7.931 -0.0074  0.3110  0.0450
70276W        W13370   2.746  12.549   7.315  0.2828  0.0604  0.3668
70277W        W13371   8.162  13.283   8.347 -0.0355 -0.1122 -0.1510
70278W        W13372   5.813  11.185   9.230  0.1504  0.0689 -0.0195
70279W        W13373   5.766  13.122   8.876 -0.0759 -0.3459  0.1174
70280W        W13374   6.732  13.348   8.098 -0.1759 -0.2329  0.3577
70281W        W13375   6.456  13.928   9.302 -0.2132 -0.2162  0.2830
70282W        W13376   4.168  14.078   8.187 -0.0476 -0.2150 -0.0199
70283W        W13377   5.740  12.447   6.111 -0.2949 -0.0171 -0.1975
70284W        W13378   5.170  10.412   6.990  0.0061 -0.1701 -0.0925
70285W        W13379   7.423  11.136   8.326 -0.0053 -0.0873  0.0254
70286W        W13380   5.140   9.952   8.257  0.0782 -0.2790  0.0338
70287W        W13381   4.732  14.266   8.503 -0.0598 -0.0029  0.3640
70288W        W13382   6.312  11.243   8.135 -0.0709 -0.1259 -0.2367
70289W        W13383   5.243  10.967   9.338  0.2651 -0.0093  0.1714
70290W        W13384   5.323  10.789   7.952  0.3045  0.4682 -0.1497
70291W        W13385   4.754  13.038   9.921 -0.0492  0.0538  0.1926
70292W        W13386   4.015  11.851   9.433 -0.4192  0.1252 -0.0303
70293W        W13387   5.505  13.504   7.256 -0.4303 -0.1577 -0.2113
70294W        W13388   7.612  14.110   8.551 -0.1803  0.1134 -0.0858
70295W        W13389   7.472  13.162   7.953  0.2615  0.3336 -0.0222
70296W        W13390   3.771  10.877   7.886  0.1975  0.1643 -0.3086
70297W        W13391   5.342   9.264   6.363  0.3571 -0.0645 -0.3348
70298W        W13392   6.601  12.376   7.819  0.0337 -0.1377  0.0286
70299W        W13393   4.993  13.595   7.814 -0.0428 -0.0062  0.0049
70300W        W13394   7.149  14.302   8.360 -0.1569 -0.0398 -0.3691
70301W        W13395   6.216  13.309   8.659 -0.0470 -0.2107  0.0185
70302W        W13396   6.608  10.189   9.103 -0.3397  0.0436 -0.2211
70303W        W13397   7.169  12.182   9.087 -0.1209  0.1118  0.1627
70304W        W13398   4.913  13.893   7.341  0.2176  0.3863  0.1768
70305W        W13399   6.151  12.817   7.161  0.1327 -0.3860 -0.0161
70306W        W13400  10.341  12.236   8.935 -0.0481  0.0374  0.0214
70307W        W13401   6.276  12.391   7.385  0.0171 -0.0323 -0.3714
70308W        W13402   4.857  13.743   8.788 -0.2689  0.0032 -0.1277
70309W        W13403   4.096  14.331   7.755  0.1475  0.2749  0.2751
70310W        W13404   2.253  12.921   9.887  0.5044  0.0095  0.2597
70311W        W13405   4.404  11.933   7.930  0.2422 -0.0549  0.2111
70312W        W13406   6.150  10.230   9.379  0.0927 -0.0963  0.4117
70313W        W13407   6.242  13.133   8.183 -0.0262  0.3419  0.2385
70314W        W13408   6.898  10.686   8.034  0.2343 -0.0489 -0.0517
70315W        W13409   5.937  12.079   8.579  0.0555 -0.1271 -0.0443
70316W        W13410   3.332  13.395   7.840  0.1806  0.2481  0.3026
70317W        W13411   7.107  14.408   7.816 -0.1985 -0.0661 -0.3045
70318W        W13412   6.761  12.170   7.349 -0.0034 -0.1467  0.1413
70319W        W13413   6.304  13.317   7.159 -0.1800 -0.0591  0.0470
70320W        W13414   4.398  13.543   9.051  0.1676  0.1673 -0.1922
70321W        W13415   4.455  11.448   7.733 -0.0854  0.2880 -0.1080
70322W        W13416   2.903  10.068  10.090 -0.0465 -0.1033 -0.0113
70323W        W13417   4.645  10.435   6.138 -0.0183  0.2525 -0.0715
70324W        W13418   6.954  10.961   8.698  0.0013  0.2332 -0.1245
70325W        W13419   5.209  11.075   8.332 -0.1208  0.2075 -0.0530
70326W        W13420   3.186  11.700   8.923 -0.2636 -0.2287  0.0028
70327W        W13421   6.779  13.137   7.053  0.0673  0.0059  0.1645
70328W        W13422   6.020  15.715   9.597 -0.1228 -0.3521 -0.0175
70329W        W13423   7.935  14.024   7.962 -0.0895 -0.0528  0.1725
70330W        W13424   3.423  11.379   9.327  0.3765 -0.1170 -0.1571
70331W        W13425   3.486  11.207   7.563 -0.1758  0.0673 -0.2264
70332W        W13426   5.065  12.325   8.644 -0.1121  0.1746  0.3839
70333W        W13427   6.531  14.528   9.641  0.1133  0.2402 -0.1252
70334W        W13428   3.799   9.872   7.584  0.0072 -0.0675 -0.2768
70335W        W13429   8.210  13.759   8.391 -0.4222 -0.2333 -0.1979
70336W        W13430   5.705  12.292   9.452 -0.2479 -0.0392  0.1521
70337W        W13431   4.888   9.292   9.541 -0.1287  0.1832  0.1852
70338W        W13432   5.739  12.313   8.119  0.0781 -0.0634 -0.2601
70339W        W13433   5.706   9.844   8.043  0.0086 -0.4715 -0.1102
70340W        W13434   4.563  15.307   6.797  0.1001  0.1686  0.0356
70341W        W13435   3.907  12.742   7.496  0.2505 -0.3959  0.1533
70342W        W13436   4.462  12.732   8.466  0.1024 -0.0493  0.0663
70343W        W13437   3.969  12.301   8.982  0.0316  0.0180 -0.0360
70344W        W13438   7.200  11.377   8.743 -0.1071 -0.1437  0.4384
70345W        W13439   4.170  11.498   7.192 -0.0281 -0.4302  0.1702
70346W        W13440   7.265  11.744   9.275  0.0658  0.1011 -0.0611
70347W        W13441   7.099  12.314   6.839 -0.0869 -0.0406  0.1883
70348W        W13442   6.724  15.073   9.344 -0.2379  0.1871  0.0824
70349W        W13443   6.309  12.385   6.731  0.2255  0.3276  0.1147
70350W        W13444   6.134  11.508   8.522  0.2672 -0.3198  0.0891
70351W        W13445   6.556  12.845   7.951 -0.1194  0.0363  0.1106
70352W        W13446   6.270  13.679   9.908 -0.0179  0.2787  0.0802
70353W        W13447   5.580  10.737   6.843  0.3191 -0.1195 -0.1617
70354W        W13448   7.450  13.938   9.413  0.2484 -0.1117 -0.0658
70355W        W13449   4.395  12.621   7.999 -0.2149  0.0801 -0.1188
70356W        W13450   7.690  13.673   8.262 -0.1189 -0.0230  0.1125
70357W        W13451   5.721  11.577   9.573  0.1220  0.0249  0.0368
70358W        W13452   6.424  11.771   6.450  0.0360  0.2480  0.0870
70359W        W13453   6.173  12.107   7.821  0.1614  0.1105  0.1393
70360W        W13454   3.606  13.949   6.547 -0.2778 -0.2183  0.1088
70361W        W13455   6.738  11.840   9.267 -0.1237  0.0240  0.0613
70362W        W13456   6.079  10.948   8.447  0.1494  0.0680 -0.0547
70363W        W13457   6.684  11.504   6.817 -0.1363 -0.0158 -0.0920
70364W        W13458   5.644  12.809   8.158  0.0682 -0.0267  0.2196
70365W        W13459   4.732  11.272   7.248 -0.2866 -0.1729 -0.0881
70366W        W13460   5.162  11.546   9.709  0.4521  0.0576 -0.1081
70367W        W13461   5.262  14.594   8.675 -0.0820  0.1194  0.1123
70368W        W13462   6.359  12.877   6.664 -0.0510 -0.1852 -0.1703
70369W        W13463   3.295  11.585   6.888 -0.1053 -0.0662 -0.0781
70370W        W13464   4.593  13.816   8.208  0.0268  0.0001 -0.2431
70371W        W13465   4.710  12.969   7.090 -0.0584  0.1605  0.0460
70372W        W13466   6.198  10.375   8.897  0.2651  0.1241  0.2165
70373W        W13467   6.438  12.883   8.965  0.1163 -0.2971 -0.2534
70374W        W13468   4.380  13.854   7.347  0.2928 -0.1249  0.0760
70375W        W13469   7.770  11.773   8.001 -0.0068 -0.3006 -0.1507
70376W        W13470   4.811  13.952   9.374  0.3285 -0.2804 -0.2500
70377W        W13471   6.722  11.616   9.711 -0.0430  0.1884 -0.2564
70378W        W13472   4.898  12.825   8.406  0.0073 -0.1656 -0.0355
70379W        W13473   2.931  12.458   7.801  0.2085  0.0284 -0.1183
70380W        W13474   2.814  12.653   8.930  0.0403  0.3874  0.2440
70381W        W13475   6.995  11.813   8.827 -0.1463 -0.0641  0.2457
70382W        W13476   7.162  12.875   7.206 -0.3041  0.1990 -0.3674
70383W        W13477   6.341  11.240   9.366  0.3534 -0.3699  0.1590
70384W        W13478   4.199  11.557   8.243 -0.0190 -0.3563 -0.2801
70385W        W13479   2.120  15.497   8.694  0.3547 -0.1192  0.2536
70386W        W13480   6.737  10.743   7.471  0.1906 -0.1156  0.3449
70387W        W13481   4.109  11.336   9.012 -0.2148  0.3797 -0.0312
70388W        W13482   6.670  10.804   9.065  0.0775 -0.0504 -0.1973
70389W        W13483   4.770  12.197   9.341  0.1354 -0.0207  0.0640
70390W        W13484   4.103  12.332   8.336  0.1665 -0.2114  0.2416
70391W        W13485   9.148  14.878   9.491 -0.0182  0.0137 -0.1947
70392W        W13486   4.458  12.521   9.158  0.4108  0.0021  0.0305
70393W        W13487   5.468  12.715   7.738 -0.0449  0.0349 -0.0295
70394W        W13488   5.717  14.449   8.881  0.1148 -0.1417 -0.0132
70395W        W13489   3.838  13.334   9.480  0.0470 -0.0329 -0.1399
70396W        W13490   4.852  11.039   8.832  0.1836 -0.2255  0.1954
70397W        W13491   6.051   9.366   8.954  0.2251  0.1088  0.0407
70398W        W13492   4.852  13.174   8.769 -0.1398  0.0857  0.1563
70399W        W13493   5.872  11.899  10.002  0.2502  0.1140 -0.3158
70400W        W13494   6.101   9.728   9.278  0.1205 -0.0329  0.0082
70401W        W13495   7.508  14.834   5.234  0.1097  0.2018 -0.2929
70402W        W13496   5.230  12.552   8.182 -0.2364 -0.0612  0.0129
70403W        W13497   4.093  13.321   8.664  0.4218 -0.1018  0.1381
70404W        W13498   4.977  12.663   7.376  0.1618 -0.1474  0.0953
70405W        W13499   7.214  11.023   9.114  0.0674 -0.0595  0.1432
70406W        W13500   8.186  13.145   9.322 -0.0272  0.0765 -0.0764
70407W        W13501   4.537  13.446   7.183 -0.1804 -0.1553 -0.1435
70408W        W13502   3.593  12.358   9.413  0.2467  0.3407  0.2592
70409W        W13503   5.831   9.403   6.372  0.3719  0.0204  0.1901
70410W        W13504   6.123  12.710   7.764 -0.0009 -0.0673  0.2082
70411W        W13505   5.018   9.852   7.017  0.4939  0.0279 -0.1223
70412W        W13506   5.349  13.944   8.804 -0.0010  0.2250 -0.0156
70413W        W13507   5.191  10.452   9.086  0.1363  0.2721 -0.0851
70414W        W13508   7.628  13.221   9.121 -0.0641  0.0851  0.4186
70415W        W13509   5.653  10.776   8.335  0.1486  0.2718 -0.2710
70416W        W13510   6.292   9.816   8.779 -0.0710 -0.1356 -0.0656
70417W        W13511   7.506  12.715  12.200 -0.1609  0.0426  0.1624
70418W        W13512   6.256  13.874   8.838 -0.0149 -0.0266  0.1886
70419W        W13513   5.490  13.267   9.391  0.0053  0.3794  0.0194
70420W        W13514   8.486  11.209   8.171  0.1162  0.0687  0.3288
70421W        W13515   5.241  12.266   7.808 -0.0764 -0.2040 -0.1533
70422W        W13516   7.190  11.448   7.871 -0.0038  0.0757 -0.0887
70423W        W13517   5.228  13.133   7.562 -0.0601 -0.2042 -0.2845
70424W        W13518   4.909  12.668   8.910  0.0403 -0.2225 -0.1737
70425W        W13519   7.972  12.303   8.092 -0.2108  0.2706  0.1217
70426W        W13520   5.517  11.261   7.752 -0.1516 -0.2158 -0.1186
70427W        W13521   6.398  14.316   8.928 -0.2201 -0.2303 -0.1873
70428W        W13522   7.345  13.239   7.498 -0.0277 -0.1648  0.0456
70429W        W13523   7.502  10.216   8.906  0.3450 -0.0048 -0.1611
70430W        W13524   6.756  11.232   7.788 -0.0797  0.5507  0.0845
70431W        W13525   7.497  12.789   7.609 -0.0887 -0.1840  0.1396
70432W        W13526   5.155  10.587   8.484  0.0402  0.3356 -0.3537
70433W        W13527   4.406  12.058   6.999 -0.3559 -0.0290  0.2757
70434W        W13528   5.086  13.482   8.430 -0.0083 -0.1619  0.0555
70435W        W13529   7.415  12.737   8.821  0.0538  0.0093  0.1397
70436W        W13530   6.033  12.855   8.591 -0.3609 -0.2054 -0.2524
70437W        W13531   3.275  10.209   9.657 -0.0177  0.2133  0.0299
70438W        W13532   4.009  11.755   7.609 -0.0723  0.1650  0.2120
70439W        W13533   5.275  11.590   8.114  0.0056  0.0923  0.2892
70440W        W13534   6.911  12.746   8.741 -0.2407 -0.0867  0.1112
70441W        W13535   6.524   9.526   7.013 -0.1065 -0.2797  0.1407
70442W        W13536   4.220  12.962  10.181 -0.2270  0.0648  0.0829
70443W        W13537   4.735  10.406   8.760  0.3746 -0.1166  0.2752
70444W        W13538   3.805  15.371   9.122  0.2036 -0.0648 -0.2126
70445W        W13539   3.884  13.823   8.556  0.3393 -0.0519 -0.1915
70446W        W13540   6.931   9.499   8.587  0.1438 -0.2781  0.4254
70447W        W13541   7.445  11.999  10.018 -0.2906  0.2718  0.0056
70448W        W13542   5.308  10.917   8.854  0.0671 -0.4440  0.2519
70449W        W13543   5.061  11.843   8.548  0.2251 -0.1006 -0.2996
70450W        W13544   7.514  12.626   8.271 -0.1990 -0.2070 -0.1160
70451W        W13545   4.751  12.993   9.447 -0.0121  0.2631 -0.1547
70452W        W13546   6.250  12.415   8.221 -0.1826  0.0044 -0.0703
70453W        W13547   4.764  11.422   8.164  0.1171 -0.2248 -0.1335
70454W        W13548   6.189  13.213   7.694 -0.2772  0.3854 -0.2306
70455W        W13549   4.562  11.671   9.617 -0.0263 -0.2460  0.2282
70456W        W13550   4.081  14.789   8.074  0.0681 -0.1580  0.0138
70457W        W13551   7.117  14.007   6.833  0.1323 -0.3112 -0.1566
70458W        W13552   6.517  13.716   7.786 -0.4050 -0.0236 -0.0616
70459W        W13553   4.631  15.173   9.061  0.0708  0.0849 -0.2651
70460W        W13554   4.814  10.328   8.239 -0.2565 -0.0679 -0.0108
70461W        W13555   6.467  12.635   9.470  0.0812  0.0935  0.3281
70462W        W13556   1.581  15.315   7.732 -0.3020  0.2664  0.2416
70463W        W13557   7.048  12.911   9.354  0.0731  0.1421  0.2876
70464W        W13558   2.748  14.197   8.172  0.3959 -0.0677 -0.1239
70465W        W13559   7.130  11.715   7.003 -0.1722  0.0242  0.2886
70466W        W13560   8.029  12.681   7.618 -0.3513 -0.1172 -0.1191
70467W        W13561   6.736  12.562   7.064  0.0495  0.2790  0.1937
70468W        W13562   5.502  12.437   8.589  0.1711 -0.0581 -0.2938
70469W        W13563   4.744  10.590   6.849  0.0650  0.4681  0.3364
70470W        W13564   7.560  14.244   7.086 -0.0801  0.0874 -0.0164
70471W        W13565   4.393  10.918   9.136  0.1959  0.3093 -0.0343
70472W        W13566   5.229  13.134   8.125  0.0371 -0.0240 -0.1652
70473W        W13567   8.359  10.474   8.722 -0.0213  0.1581 -0.0673
70474W        W13568   5.073  13.041   6.626 -0.0454  0.1193 -0.2352
70475W        W13569   6.953  11.238   8.288 -0.0243  0.1594 -0.1659
70476W        W13570   5.975  13.640   9.482  0.3082  0.0073 -0.2278
70477W        W13571   4.036  12.912   9.700  0.0667  0.0899 -0.1885
70478W        W13572   5.219  12.818   9.342  0.1591 -0.3224  0.1842
70479W        W13573   4.001  10.656   7.527 -0.0425  0.3168 -0.1224
70480W        W13574   8.208  11.518   8.519 -0.1613 -0.2603 -0.1983
70481W        W13575   3.570  12.798   9.638 -0.0118 -0.0877  0.1633
70482W        W13576   4.230  11.106   8.491 -0.0179 -0.0534 -0.0456
70483W        W13577   6.744  11.352   9.114 -0.1517 -0.1838  0.1814
70484W        W13578   5.654  11.277   8.254 -0.3409 -0.1545  0.0245
70485W        W13579   3.055  11.195   9.003 -0.0789  0.4275  0.0025
70486W        W13580   5.643  11.832   7.130 -0.2098  0.1411  0.0166
70487W        W13581   6.491  11.980   6.915 -0.1899  0.1324  0.0450
70488W        W13582   4.207   9.912   9.046  0.0888  0.2521  0.1862
70489W        W13583   4.933  10.762   7.297 -0.1306 -0.2535  0.0841
70490W        W13584   4.741  12.223   7.702  0.2884  0.0055 -0.0499
70491W        W13585   5.146  11.406   8.781  0.0703 -0.2303 -0.1261
70492W        W13586   4.766  10.463   7.720 -0.3079 -0.1689  0.0631
70493W        W13587   5.990  13.680   6.892 -0.2109 -0.0535 -0.2666
70494W        W13588   7.612  11.554   8.504 -0.0847  0.0758  0.0027
70495W        W13589   3.957  13.809   7.707  0.1558 -0.0195 -0.1200
70496W        W13590   7.672  12.061   8.413 -0.0185 -0.1330  0.2341
70497W        W13591   6.871  13.975   8.049  0.1253  0.0621 -0.2371
70498W        W13592   5.088  12.415   9.677 -0.1823  0.0580 -0.1844
70499W        W13593   6.076  13.119   9.310 -0.1304 -0.1123  0.3341
70500W        W13594   7.097  13.235   8.751  0.2374 -0.0548  0.0331
70501W        W13595   5.236  10.319   7.902  0.0086  0.1062 -0.0493
70502W        W13596   4.662  11.449   8.675  0.1805 -0.2890  0.0014
70503W        W13597   4.202  13.474   8.173  0.1957 -0.2845  0.1301
70504W        W13598   6.157  10.834   9.064  0.1775 -0.4068  0.0237
70505W        W13599   5.325  13.876   7.047  0.1379 -0.1745 -0.1080
70506W        W13600   6.229  11.741   9.427 -0.1881  0.2350 -0.0172
70507W        W13601   3.735  11.454   8.487  0.0395  0.0807 -0.1133
70508W        W13602   6.703  13.464   8.628 -0.0627 -0.3810  0.1391
70509W        W13603   5.341  14.316   9.153 -0.0903 -0.0924 -0.1117
70510W        W13604   7.325  14.601   6.834  0.0395 -0.0633  0.1217
70511W        W13605   5.949  11.606   9.028 -0.1321  0.1617  0.1049
70512W        W13606   6.792  12.438   8.290  0.1419  0.1847 -0.0594
70513W        W13607   3.453  11.901   9.279 -0.0066 -0.1319 -0.1386
70514W        W13608   7.257  11.829   8.250 -0.0027  0.2408 -0.1479
70515W        W13609   6.320  11.619   7.780  0.0678 -0.0992  0.3012
70516W        W13610   6.539  12.892   8.458  0.1190 -0.0107  0.1105
70517W        W13611   3.540  12.661   8.426 -0.1661 -0.3116  0.0906
70518W        W13612   3.663  13.448   6.507 -0.1340 -0.0383 -0.0831
70519W        W13613   3.725  13.482   9.052 -0.1455  0.1654  0.3374
70520W        W13614   4.538  11.869   8.433 -0.3967 -0.2293  0.0930
70521W        W13615   4.687  10.773   8.409  0.0899  0.3185 -0.0656
70522W        W13616   8.653  13.427   8.573 -0.0608  0.1798  0.0358
70523W        W13617   4.217  11.119   8.020 -0.1938 -0.0943 -0.2074
70524W        W13618   2.589  11.446   8.190  0.2199 -0.2002 -0.6235
70525W        W13619   7.052  12.796   7.876 -0.1783 -0.1945  0.1315
70526W        W13620   8.279  13.004   8.785  0.3024 -0.0220 -0.0745
70527W        W13621   5.925  10.955   7.957  0.0597 -0.0105  0.1183
70528W        W13622   3.153  12.941   8.725  0.1917  0.1847  0.1393
70529W        W13623   3.995   9.971   6.651 -0.0742  0.1862 -0.1030
70530W        W13624   6.435   8.136   8.997 -0.0732  0.1385 -0.1806
70531W        W13625   5.523  13.740   7.679 -0.1899  0.0203  0.0795
70532W        W13626   7.351  13.556   6.721  0.2761 -0.1062  0.0062
70533W        W13627   3.751  10.970   8.383  0.0147  0.0931 -0.2111
70534W        W13628   7.027  10.466   8.638 -0.2371  0.0787  0.2600
70535W        W13629   8.028  13.556   7.867 -0.2639  0.0186  0.0737
70536W        W13630   9.752   9.398   8.803  0.2154 -0.0144 -0.0209
70537W        W13631   5.946  12.256   7.041 -0.0335  0.0056 -0.0230
70538W        W13632   7.913  13.152   7.603 -0.1086  0.0457  0.0186
70539W        W13633   4.794  10.980   7.885 -0.1366 -0.0846 -0.1101
70540W        W13634   5.636  11.667   8.521 -0.4524 -0.1339 -0.0409
70541W        W13635   5.821  13.479   6.456 -0.0836  0.1278 -0.0158
70542W        W13636   4.048  11.926   8.632  0.0054 -0.2614  0.0921
70543W        W13637   6.462  12.104   8.680 -0.1760  0.0585 -0.1567
70544W        W13638   5.075  13.982   8.272 -0.1942  0.1817  0.2002
70545W        W13639   5.823  11.057   7.193 -0.1881 -0.0703 -0.1129
70546W        W13640   6.679  12.711   7.495 -0.0771  0.0646 -0.4010
70547W        W13641   3.051  14.388   9.019 -0.0043 -0.0281  0.2233
70548W        W13642   6.472  13.235   9.577 -0.1042  0.0698  0.2463
70549W        W13643   9.014  12.613   9.119 -0.0360 -0.0600 -0.2629
70550W        W13644   5.512  10.291   9.709  0.2030  0.2240 -0.0420
70551W        W13645   5.383  12.055   8.221  0.1452  0.1653 -0.0800
70552W        W13646   4.841  12.239   7.215 -0.0812  0.3271 -0.0715
70553W        W13647   7.132  12.291   8.589  0.1570  0.0999 -0.2606
70554W        W13648   5.768  11.220   8.758 -0.2411 -0.1758  0.3549
70555W        W13649   6.084  11.915   7.340  0.0910 -0.1170  0.1420
70556W        W13650   5.296  12.396   9.139 -0.0666  0.1628 -0.0630
70557W        W13651   7.082  13.869   8.545 -0.2679  0.0633  0.3601
70558W        W13652   4.437  16.282   2.306 -0.2527  0.5486  0.0164
70559W        W13653   4.033  15.610   1.558  0.0141 -0.1907  0.0279
70560W        W13654   7.110  14.849   0.956  0.2263  0.2154 -0.0722
70561W        W13655   7.433  16.633   0.988  0.0393 -0.0627  0.2744
70562W        W13656   2.943  13.951   0.770  0.0243 -0.0179 -0.1017
70563W        W13657   7.482  18.705   0.313 -0.0080 -0.2824  0.0833
70564W        W13658   5.114  14.742   2.799 -0.3237 -0.0018 -0.0827
70565W        W13659   4.911  18.761   1.731  0.0044 -0.1754  0.0568
70566W        W13660   7.899  18.098   0.959  0.1742 -0.0406 -0.1633
70567W        W13661   5.625  16.348   1.578 -0.1322  0.1537  0.2503
70568W        W13662   5.154  15.000   2.225 -0.1093 -0.2235 -0.0251
70569W        W13663   6.218  17.603   1.951 -0.0464 -0.0929 -0.1756
70570W        W13664   5.724  14.620  31.612  0.0572  0.1573 -0.0857
70571W        W13665   2.980  14.419   2.635  0.1231 -0.4036 -0.0177
70572W        W13666   6.235  15.671   1.873 -0.1460 -0.0316  0.0470
70573W        W13667   4.689  15.625   1.182 -0.1949 -0.1033  0.2204
70574W        W13668   5.609  14.325   2.792 -0.0626 -0.0042 -0.1419
70575W        W13669   4.127  15.187   0.666  0.2582  0.2667  0.2939
70576W        W13670   5.213  17.436   0.242  0.1532 -0.2072  0.1611
70577W        W13671   5.109  14.864   1.732 -0.3904  0.1600  0.0029
70578W        W13672   7.022  15.455   2.428  0.2430 -0.1306  0.0013
70579W        W13673   8.538  18.033  31.645 -0.4263  0.1601 -0.1369
70580W        W13674   5.859  14.426   0.102 -0.5715  0.1600  0.0493
70581W        W13675   3.246  16.330   0.782 -0.0810  0.0043  0.0369
70582W        W13676   5.183  15.569   2.308 -0.1666  0.1234  0.2596
70583W        W13677   5.400  14.367   1.959  0.1595 -0.1179 -0.2473
70584W        W13678   7.459  15.740   1.349  0.2988  0.3487 -0.1820
70585W        W13679   6.304  16.595   1.147 -0.0814 -0.0071  0.2022
70586W        W13680   4.174  18.544   2.447 -0.0083  0.1415 -0.1047
70587W        W13681   7.495  15.802   2.399  0.0921 -0.1778 -0.0429
70588W        W13682   3.367  17.504   0.439  0.2558 -0.0961  0.1710
70589W        W13683   5.603  17.237   1.422  0.1006  0.1470  0.0471
70590W        W13684   6.045  18.128   0.324  0.2185  0.4209  0.2019
70591W        W13685   6.460  18.142   0.676 -0.2969  0.1161  0.3493
70592W        W13686   7.854  18.467   3.893 -0.1146  0.0537  0.0370
70593W        W13687   5.136  18.168   2.232 -0.0336  0.1439 -0.2272
70594W        W13688   5.148  15.629   0.354 -0.0107  0.2374 -0.1847
70595W        W13689   7.209  16.900   2.078  0.0379  0.1462 -0.2331
70596W        W13690   4.829  18.080   0.934  0.0769 -0.1251 -0.0055
70597W        W13691   4.184  15.335   2.193  0.0522 -0.0751 -0.0824
70598W        W13692   4.241  15.337   1.211  0.1799  0.4758  0.4090
70599W        W13693   4.229  17.032  30.839  0.0493 -0.1085 -0.3159
70600W        W13694   6.478  16.752   2.891  0.1038  0.1233  0.0439
70601W        W13695   3.873  16.268   3.895 -0.1925 -0.1123 -0.0348
70602W        W13696   4.089  16.352   1.887 -0.1157  0.0913 -0.0965
70603W        W13697   5.821  14.853   4.141 -0.0068 -0.0073  0.2168
70604W        W13698   4.661  19.611   0.625  0.1305 -0.0700  0.0537
70605W        W13699   7.194  15.858   0.597 -0.0791  0.1218 -0.1765
70606W        W13700   6.442  16.643   1.659 -0.0510  0.1258  0.0696
70607W        W13701   5.748  15.577   0.560 -0.3864 -0.1654  0.1044
70608W        W13702   5.383  13.292   0.937  0.1317 -0.0827 -0.0560
70609W        W13703   4.964  17.965   1.440  0.1792  0.0065 -0.3245
70610W        W13704   5.408  14.548   2.420 -0.0870 -0.3684 -0.1867
70611W        W13705   7.243  17.499   0.783 -0.0950  0.0063 -0.1204
70612W        W13706   4.873  15.429   0.723 -0.1554 -0.2134  0.1814
70613W        W13707   6.188  16.184   1.502 -0.1706 -0.0239 -0.1649
70614W        W13708   6.120  17.589   2.869  0.1503 -0.2346 -0.1762
70615W        W13709   3.263  15.325   2.401 -0.0815 -0.0493  0.0675
70616W        W13710   6.106  17.331  31.037 -0.2218  0.0484 -0.0900
70617W        W13711   7.345  17.144   1.097  0.1438  0.1993 -0.2297
70618W        W13712   5.342  17.512  31.016  0.0119 -0.1322 -0.2495
70619W        W13713   4.388  15.715   0.799  0.0056 -0.1331  0.0127
70620W        W13714   3.984  16.697   3.615  0.1549  0.2259  0.2875
70621W        W13715   3.746  15.193   3.177 -0.1631  0.0840  0.2782
70622W        W13716   6.060  13.661   0.201  0.1709 -0.0475  0.3515
70623W        W13717   6.223  15.681   5.188  0.1368  0.1331 -0.1750
70624W        W13718   4.169  15.792   2.016 -0.3285 -0.4039 -0.2716
70625W        W13719   5.756  13.583  31.684 -0.3321 -0.0897 -0.4316
70626W        W13720   5.696  15.563   1.694 -0.0204  0.0408 -0.0637
70627W        W13721   4.531  16.735   0.910  0.2251  0.1218  0.2116
70628W        W13722   7.649  15.564   0.428  0.1988 -0.1627 -0.0992
70629W        W13723   5.848  14.092   1.206 -0.1938 -0.0855  0.1902
70630W        W13724   5.499  14.487   1.470 -0.1310  0.2883 -0.4322
70631W        W13725   5.197  15.063   0.283 -0.0218  0.0930 -0.2967
70632W        W13726   3.855  15.697   0.734  0.1524  0.0619  0.2085
70633W        W13727   8.443  17.368   2.083  0.1265 -0.3065 -0.0117
70634W        W13728   8.001  16.656  31.839 -0.1321  0.1632 -0.1355
70635W        W13729   6.045  17.052   1.950  0.2319 -0.0384 -0.4577
70636W        W13730   3.956  15.498   4.076 -0.0558 -0.0686  0.1058
70637W        W13731   4.754  16.060   3.853  0.0269  0.1675  0.0354
70638W        W13732   4.848  17.150   0.809 -0.3512 -0.0213  0.2232
70639W        W13733   3.633  15.816   2.522 -0.0088 -0.1518 -0.0381
70640W        W13734   4.963  16.199   0.130 -0.1874  0.2590 -0.3872
70641W        W13735   3.294  15.064   1.459 -0.0991 -0.3483 -0.1218
70642W        W13736   5.763  17.036   3.445 -0.0276  0.2649 -0.4777
70643W        W13737   7.310  13.761  31.830 -0.0459  0.1622 -0.2598
70644W        W13738   4.540  14.049   3.709 -0.1226  0.3692 -0.1007
70645W        W13739   7.341  15.018   2.502 -0.0711 -0.4144  0.1286
70646W        W13740   5.100  16.537   2.703  0.0883  0.0756 -0.1108
70647W        W13741   8.210  18.121   1.529  0.0404  0.2679 -0.1418
70648W        W13742   8.121  16.691   0.871  0.1267 -0.3018 -0.0999
70649W        W13743   7.325  18.241   0.422 -0.1941  0.1162  0.3006
70650W        W13744   4.972  16.275   2.132  0.0251 -0.0257  0.1619
70651W        W13745   3.497  15.610   1.574 -0.0378  0.0900 -0.2363
70652W        W13746   5.050  14.864   3.658 -0.2091  0.0844  0.1690
70653W        W13747   3.273  14.494   2.223 -0.2775 -0.1624 -0.4695
70654W        W13748   7.254  15.986   2.015 -0.2699 -0.1777 -0.2089
70655W        W13749   4.675  14.796  31.244 -0.2638  0.4849  0.1873
70656W        W13750   6.469  15.426   2.513 -0.1641 -0.0760 -0.0817
70657W        W13751   4.127  15.091   1.693  0.0752  0.1802 -0.0636
70658W        W13752   4.224  18.809   0.776  0.0015 -0.0448 -0.3290
70659W        W13753   6.747  16.053   3.904  0.2584  0.1122  0.0673
70660W        W13754   5.561  18.747   1.448 -0.3220 -0.0118 -0.0845
70661W        W13755   7.226  17.316   1.806 -0.1072  0.1655 -0.1297
70662W        W13756   7.686  19.377   1.543  0.1681  0.1805 -0.0984
70663W        W13757   5.512  15.668   3.248 -0.1500  0.3047  0.0303
70664W        W13758   3.556  15.031  31.225  0.1518 -0.0820 -0.2252
70665W        W13759   4.692  18.681   0.437  0.1399 -0.0350  0.1217
70666W        W13760   6.377  14.850   1.676 -0.2086 -0.2082 -0.1979
70667W        W13761   4.034  15.533   0.279 -0.1782  0.0503 -0.1290
70668W        W13762   7.391  17.879   2.832 -0.0111  0.1403 -0.1379
70669W        W13763   5.884  16.019   1.840 -0.2639 -0.0389 -0.1616
70670W        W13764   3.841  16.195   2.822 -0.0999 -0.1363 -0.2066
70671W        W13765   5.430  15.206   2.700  0.1673  0.0257  0.1476
70672W        W13766   8.515  16.573   1.781  0.4087  0.1179  0.2293
70673W        W13767   6.713  15.659   2.030 -0.0313 -0.0229 -0.1075
70674W        W13768   5.241  16.339  31.669  0.0775  0.1753  0.0558
70675W        W13769   6.990  17.803   1.142 -0.2289 -0.1971 -0.2205
70676W        W13770   3.882  18.073   0.059  0.1043  0.2545 -0.1536
70677W        W13771   6.143  16.353   2.824 -0.0742  0.0164 -0.0866
70678W        W13772   7.365  18.685   1.385 -0.0346 -0.0757  0.0056
70679W        W13773   7.092  14.524   1.705  0.2451  0.1685 -0.1455
70680W        W13774   5.428  15.998   4.831  0.2953  0.0095  0.0780
70681W        W13775   6.686  15.181   1.957  0.1752 -0.1377  0.0204
70682W        W13776   4.706  16.344   0.586  0.1724 -0.1731 -0.0034
70683W        W13777   5.390  17.282   2.065 -0.2473  0.0102  0.1130
70684W        W13778   6.728  14.505   1.365  0.1771 -0.0204 -0.0278
70685W        W13779   7.418  14.651   1.347 -0.1460  0.1231 -0.2137
70686W        W13780   4.124  16.475   3.165 -0.0120 -0.0988  0.1532
70687W        W13781   7.362  15.983   0.136  0.3800 -0.1980  0.1544
70688W        W13782   7.788  16.194  31.668 -0.0843  0.1878 -0.2876
70689W        W13783   6.731  15.486   0.007  0.1123 -0.0410  0.0208
70690W        W13784   3.766  16.983   3.188 -0.0103  0.0024  0.0453
70691W        W13785   7.169  16.965   0.004 -0.0754 -0.1825  0.2431
70692W        W13786   5.859  17.883   1.640 -0.0896  0.1487  0.0814
70693W        W13787   6.607  16.270   1.245 -0.2092 -0.1729 -0.0465
70694W        W13788   8.393  17.562   0.203  0.1077  0.0162 -0.1213
70695W        W13789   4.395  16.030   1.311  0.1519 -0.5147 -0.1444
70696W        W13790   5.166  15.907   3.558 -0.0138  0.1875  0.0733
70697W        W13791   7.931  18.045  31.714  0.2547 -0.1096  0.0925
70698W        W13792   5.527  13.719   1.425 -0.1772 -0.0176 -0.2119
70699W        W13793   5.155  16.447   1.703 -0.1676  0.2209 -0.1989
70700W        W13794   4.946  15.438  31.973  0.2172  0.0758  0.0961
70701W        W13795   3.772  17.637   0.190 -0.4172 -0.1677  0.0233
70702W        W13796   5.952  15.336   2.545 -0.0689  0.1127  0.0389
70703W        W13797   5.905  14.428   2.341  0.4641 -0.0793  0.2346
70704W        W13798   6.798  15.177   2.823  0.1060  0.3498  0.0838
70705W        W13799   5.591  16.500   4.404  0.1272 -0.1933  0.0254
70706W        W13800   6.970  16.805   1.123 -0.2949  0.1413  0.0440
70707W        W13801   5.570  14.848   1.997  0.0358 -0.1433  0.1589
70708W        W13802   3.655  15.055  30.642 -0.0900  0.0634 -0.3530
70709W        W13803   4.726  14.498   1.937  0.0930  0.1997  0.0401
70710W        W13804   4.077  15.255   3.593  0.1890  0.0060 -0.0598
70711W        W13805   4.986  16.860   1.883  0.2312  0.1804 -0.1661
70712W        W13806   7.007  15.915   3.110 -0.0164 -0.1524  0.0831
70713W        W13807   8.001  16.511   1.795  0.2574  0.0671 -0.2385
70714W        W13808   4.551  14.886   2.974 -0.0359 -0.0876  0.0243
70715W        W13809   6.362  14.046   0.951 -0.0739  0.0034 -0.3182
70716W        W13810   4.240  17.417   0.228 -0.3271  0.1654 -0.0967
70717W        W13811   4.891  15.995   1.417  0.0930 -0.2328 -0.1362
70718W        W13812   4.161  14.689   0.982  0.1271 -0.1745 -0.0899
70719W        W13813   6.136  19.133   0.120 -0.1119  0.0542 -0.1043
70720W        W13814   5.759  16.630   0.038  0.2172 -0.2300 -0.2041
70721W        W13815   5.868  17.532   2.348 -0.1272 -0.0850 -0.3426
70722W        W13816   5.776  17.453   1.849 -0.1415 -0.1068 -0.1800
70723W        W13817   6.417  14.253   2.388 -0.2284  0.5330 -0.2067
70724W        W13818   3.676  16.715   2.249  0.1194 -0.0021 -0.2035
70725W        W13819   6.010  15.192   0.901  0.0238  0.0665 -0.2724
70726W        W13820   4.320  17.182   0.649 -0.2524  0.4934 -0.2463
70727W        W13821   7.332  14.120   1.247  0.2548  0.3216  0.1222
70728W        W13822   7.627  16.436   0.166  0.1218  0.0068 -0.2563
70729W        W13823   3.057  16.198   2.161 -0.0558 -0.2526 -0.3297
70730W        W13824   4.383  14.320   1.378 -0.2508  0.1877 -0.1277
70731W        W13825   5.598  17.768   2.714  0.1738  0.2290  0.0880
70732W        W13826   7.290  16.601   2.470  0.0544 -0.1247 -0.0240
70733W        W13827   6.767  13.422  31.913  0.0141  0.4764  0.1896
70734W        W13828   5.854  18.124   3.052  0.0658 -0.1328  0.2119
70735W        W13829   5.143  15.723   4.031  0.1148 -0.1315  0.0003
70736W        W13830   4.542  14.654   0.600  0.0543 -0.2504  0.2896
70737W        W13831   6.680  14.614   1.951  0.0947 -0.1429  0.0004
70738W        W13832   4.116  14.835   2.249 -0.2591 -0.1467 -0.1300
70739W        W13833   3.109  17.935   0.653 -0.2330 -0.1605 -0.2768
70740W        W13834   6.384  18.312   2.248  0.0782 -0.0484  0.4548
70741W        W13835   5.228  17.060   0.515 -0.1933  0.1329  0.1421
70742W        W13836   4.559  16.622   1.757 -0.1694  0.0178  0.1193
70743W        W13837   4.779  15.053   4.528 -0.1683 -0.0934  0.1207
70744W        W13838   7.170  16.174   1.013 -0.0002 -0.1264 -0.0545
70745W        W13839   3.994  14.023   1.140  0.1309  0.1879  0.3232
70746W        W13840   3.560  15.461   0.050 -0.0261 -0.2188  0.0237
70747W        W13841   4.268  16.249   0.859  0.2430  0.1561 -0.2248
70748W        W13842   5.624  16.127   3.486 -0.0328 -0.1768  0.1365
70749W        W13843   4.269  15.791   3.260  0.0146  0.2716 -0.0619
70750W        W13844   4.968  16.763   3.185 -0.4942  0.3980 -0.1174
70751W        W13845   7.530  14.421   0.254 -0.1244  0.1452  0.2470
70752W        W13846   8.527  17.133  31.343  0.3276 -0.0623  0.3176
70753W        W13847   4.825  16.174   2.627 -0.0090  0.3389 -0.2571
70754W        W13848   5.281  16.671   0.189  0.1651 -0.0603  0.5066
70755W        W13849   3.755  15.301   2.528 -0.1682  0.1608 -0.3072
70756W        W13850   6.054  16.436   1.987 -0.0910 -0.1130 -0.1867
70757W        W13851   5.323  15.711   1.371 -0.0372 -0.1020  0.0353
70758W        W13852   5.393  17.690   1.640 -0.0648  0.1400 -0.1017
70759W        W13853   5.631  16.548   0.579  0.1875  0.0879 -0.0966
70760W        W13854   3.933  16.212   2.319 -0.1627  0.1378 -0.2465
70761W        W13855   8.066  15.963  30.918  0.0699  0.0437  0.2769
70762W        W13856   6.266  17.750   1.454  0.1807  0.1384  0.1924
70763W        W13857   5.897  14.751   1.634 -0.0824  0.1661  0.0151
70764W        W13858   7.527  14.464   1.832  0.0684  0.1209  0.1537
70765W        W13859   7.078  15.945   1.503  0.1836  0.0113  0.2047
70766W        W13860   6.707  15.730   2.798  0.0394 -0.2127 -0.0821
70767W        W13861   3.996  14.117   2.944 -0.0365 -0.0602  0.1037
70768W        W13862   8.342  17.338   0.748  0.1357 -0.1737  0.2302
70769W        W13863   4.685  14.816   2.315  0.1476 -0.2629 -0.0878
70770W        W13864   6.793  17.035   3.279  0.0419 -0.0511 -0.2160
70771W        W13865   5.689  17.338   3.038 -0.4083  0.1812  0.2481
70772W        W13866   4.499  14.803   1.414 -0.1617  0.2752  0.2011
70773W        W13867   5.189  14.071   1.225  0.0519 -0.0527 -0.0474
70774W        W13868   5.571  16.831   1.792 -0.1083  0.0229  0.0586
70775W        W13869   5.948  16.903   1.458  0.1521 -0.1332 -0.0017
70776W        W13870   5.777  16.048   1.213  0.4097  0.1577  0.0130
70777W        W13871   8.056  16.355   1.270 -0.0730  0.0358 -0.2380
70778W        W13872   6.037  17.065   2.790  0.0239  0.2021  0.0197
70779W        W13873   5.607  15.294   2.202  0.0610  0.1488 -0.0229
70780W        W13874   5.734  16.033   0.728  0.1429 -0.1328  0.6572
70781W        W13875   4.750  17.008   1.266  0.2180 -0.2584  0.1011
70782W        W13876   5.962  13.918   2.364 -0.0797  0.1429 -0.0437
70783W        W13877   6.313  17.189   2.391  0.1227  0.3681 -0.0969
70784W        W13878   5.051  14.835   0.665  0.1474  0.1181 -0.3418
70785W        W13879   6.160  15.123   2.131  0.3209  0.0711  0.1369
70786W        W13880   6.155  16.270   3.469  0.2131 -0.0261  0.1522
70787W        W13881   4.802  16.528   1.339  0.0577 -0.0005  0.0169
70788W        W13882   5.138  13.762   3.775  0.1186 -0.0248  0.0341
70789W        W13883   7.568  17.947   2.350  0.1292 -0.2935  0.1801
70790W        W13884   6.907  14.982   1.469 -0.3036 -0.0307 -0.0327
70791W        W13885   7.192  14.666   2.154  0.4621 -0.0339 -0.1827
70792W        W13886   7.711  15.445   1.040  0.3657  0.1591 -0.0218
70793W        W13887   6.994  15.672   1.077 -0.2997  0.2938  0.2620
70794W        W13888   5.466  15.879   2.058  0.0411  0.2173 -0.4576
70795W        W13889   7.424  17.156   3.282 -0.1807 -0.2685 -0.1170
70796W        W13890   4.824  15.214   1.522 -0.0269  0.0466  0.2051
70797W        W13891   7.605  14.379   2.505  0.0340 -0.0505  0.0002
70798W        W13892   6.376  18.582   1.511 -0.4350  0.0198  0.2313
70799W        W13893   7.695  17.304   1.519  0.1765  0.4059 -0.3481
70800W        W13894   4.614  15.060   0.993 -0.1002 -0.3384 -0.1329
70801W        W13895   3.621  14.803   1.762  0.0783 -0.1761 -0.1592
70802W        W13896   4.033  16.629   2.600 -0.1634 -0.1629  0.0652
70803W        W13897   5.971  14.964   0.453  0.1235  0.1735 -0.0181
70804W        W13898   6.920  17.372   0.298  0.0712 -0.2129 -0.1034
70805W        W13899   6.498  16.627   3.373 -0.2484  0.0773  0.2160
70806W        W13900   5.537  15.688   2.642  0.0760 -0.2714  0.1197
70807W        W13901   6.585  16.367   0.316 -0.3228  0.3033  0.3095
70808W        W13902   6.348  15.348   3.628 -0.0964 -0.1054 -0.0399
70809W        W13903   3.712  17.227   1.422  0.1439  0.0124  0.0550
70810W        W13904   6.738  13.650   1.831 -0.0576 -0.1076  0.3081
70811W        W13905   5.642  16.467   2.712 -0.0006 -0.0324  0.0798
70812W        W13906   3.271  16.255   2.948  0.0542  0.1701  0.2941
70813W        W13907   4.582  17.230   1.781  0.3160 -0.0825  0.3577
70814W        W13908   5.658  15.442   1.152  0.1170  0.1470  0.2423
70815W        W13909   7.560  16.343   1.408  0.0922 -0.2568  0.0621
70816W        W13910   5.379  15.718   0.817 -0.1521 -0.0959 -0.0480
70817W        W13911   6.856  16.270   3.444 -0.1035  0.2631  0.0580
70818W        W13912   6.473  16.678   4.410 -0.0377  0.1807 -0.0805
70819W        W13913   4.583  14.974   1.861  0.0371 -0.1799  0.1773
70820W        W13914   6.975  16.581   3.019 -0.2392 -0.0209 -0.2342
70821W        W13915   5.944  16.193   2.400  0.0748  0.0146 -0.3845
70822W        W13916   6.827  16.862   2.531  0.2233  0.2227  0.3276
70823W        W13917   2.991  15.427   3.413  0.2871  0.2496  0.0322
70824W        W13918   3.687  14.462   3.199  0.2288 -0.1003  0.3276
70825W        W13919   5.917  15.696   2.209  0.0145  0.1600  0.0818
70826W        W13920   3.984  15.033   0.211 -0.0164  0.0072 -0.1926
70827W        W13921   4.660  17.537   1.371  0.0458  0.4247  0.2356
70828W        W13922   4.229  17.505   2.790 -0.2688  0.0071 -0.1392
70829W        W13923   4.579  15.640   2.831 -0.1040  0.0550  0.0331
70830W        W13924   5.103  17.303   1.640  0.2852 -0.1429 -0.2577
70831W        W13925   6.065  17.367   1.260 -0.3024 -0.3094  0.0821
70832W        W13926   5.338  18.185   1.735  0.0551  0.3555 -0.2094
70833W        W13927   6.742  19.197   2.581  0.0344  0.1247 -0.3452
70834W        W13928   6.223  16.523   0.645  0.1171 -0.2494 -0.1310
70835W        W13929   2.947  17.599   2.472 -0.2545  0.0329 -0.1782
70836W        W13930   4.774  19.488   0.089 -0.2044 -0.0463  0.0173
70837W        W13931   7.538  17.883   0.678 -0.2418  0.0934 -0.2082
70838W        W13932   4.042  17.012   1.758 -0.2135  0.1271 -0.3142
70839W        W13933   5.188  16.020   2.972  0.1711  0.0698 -0.1727
70840W        W13934   6.486  15.325   1.378 -0.3455 -0.1994 -0.2708
70841W        W13935   8.000  15.270   0.581 -0.0074  0.2885  0.0361
70842W        W13936   6.793  15.211   0.966 -0.3630  0.0379 -0.0619
70843W        W13937   5.451  16.901   4.077 -0.0619 -0.1414 -0.1926
70844W        W13938   5.728  16.065   3.010 -0.0549  0.0128 -0.0174
70845W        W13939   5.475  15.026   1.460 -0.1131 -0.1600  0.0418
70846W        W13940   4.408  16.153   2.885 -0.0850  0.0086 -0.1370
70847W        W13941   5.907  15.111   4.521 -0.1457  0.2343 -0.1115
70848W        W13942   4.273  18.517   3.993  0.1828  0.0983 -0.2865
70849W        W13943   6.711  17.240   0.730  0.2291 -0.0157 -0.1865
70850W        W13944   3.457  14.608   1.312  0.2351  0.0184 -0.1019
70851W        W13945   4.795  16.614  31.662  0.0674  0.3184  0.1029
70852W        W13946   7.609  15.277   1.527 -0.3191  0.2966  0.0311
70853W        W13947   5.642  18.260   0.603 -0.2038 -0.0278  0.1902
70854W        W13948   5.155  14.798   1.175  0.0316  0.2224 -0.3747
70855W        W13949   5.099  17.493   1.110 -0.0599  0.2054  0.1153
70856W        W13950   5.427  16.949   2.993  0.1250  0.1992  0.0035
70857W        W13951   5.192  18.422   1.266 -0.0197  0.2004 -0.4734
70858W        W13952   2.640  15.700   0.423  0.0528 -0.3040 -0.0554
70859W        W13953   7.862  16.019   0.318  0.1221  0.0401  0.3896
70860W        W13954   5.766  13.799   2.806 -0.0620 -0.1153  0.3298
70861W        W13955   6.198  14.396   1.929  0.2518  0.0469  0.5045
70862W        W13956   7.224  16.428   0.521 -0.1278  0.0356 -0.1256
70863W        W13957   7.848  14.557   1.074  0.2240 -0.0178 -0.1691
70864W        W13958   4.720  17.117   3.420  0.0284  0.2315  0.1601
70865W        W13959   2.290  15.817   3.244  0.0804 -0.0437 -0.2120
70866W        W13960   4.507  15.574   1.712  0.1366  0.1494  0.2089
70867W        W13961   6.468  16.044   3.155  0.2730  0.0338  0.2086
70868W        W13962   6.216  16.779   0.190 -0.4209 -0.2563 -0.1641
70869W        W13963   6.749  17.337   2.028 -0.2370 -0.0099 -0.0475
70870W        W13964   3.295  15.571   0.951  0.3505 -0.1084 -0.0756
70871W        W13965   6.010  14.436   0.772  0.2174  0.3447  0.1981
70872W        W13966   3.745  16.078   1.489 -0.0285 -0.0054  0.1734
70873W        W13967   4.825  15.213   2.636  0.1494 -0.0785  0.2506
70874W        W13968   5.105  17.996   2.792 -0.1046  0.0144  0.0136
70875W        W13969   3.312  14.125   1.104 -0.1580 -0.1175  0.1657
70876W        W13970   7.801  17.319  31.103 -0.2258  0.1763  0.1175
70877W        W13971   8.196  15.934   2.553 -0.1931  0.0517  0.1568
70878W        W13972   5.114  17.870  31.451  0.1195  0.4576 -0.2554
70879W        W13973   6.805  16.915   1.625  0.2118 -0.1231 -0.2030
70880W        W13974   7.120  19.121   1.548 -0.0446 -0.2540  0.3180
70881W        W13975   3.117  15.545   1.934 -0.1562  0.0313  0.1915
70882W        W13976   7.057  17.806   2.445 -0.1028 -0.0387  0.1300
70883W        W13977   6.987  16.428   1.500 -0.0307 -0.1758  0.2120
70884W        W13978   4.679  13.195   0.323  0.1128  0.3397  0.0947
70885W        W13979   5.281  15.342   1.859 -0.1806  0.3275  0.0613
70886W        W13980   4.146  17.554   1.104 -0.1650  0.0822 -0.0120
70887W        W13981   6.122  15.696   1.302  0.2076  0.0305  0.0527
70888W        W13982   5.350  16.110   2.484  0.0928 -0.1699  0.0982
70889W        W13983   3.943  19.158   0.500  0.2784 -0.1040  0.0217
70890W        W13984   6.368  15.419   3.146  0.0637  0.0079  0.2106
70891W        W13985   4.719  18.498   2.279  0.2221  0.1365 -0.2304
70892W        W13986   4.689  16.712   2.272 -0.4169 -0.0495  0.2376
70893W        W13987   5.472  15.903  31.403  0.2864 -0.2143 -0.1573
70894W        W13988   4.761  16.328   3.241  0.1367 -0.0006  0.0361
70895W        W13989   6.290  18.161   1.765  0.1474  0.2791  0.0656
70896W        W13990   5.019  17.887   0.020 -0.0237  0.1331 -0.0506
70897W        W13991   7.636  18.599   1.835  0.2586  0.0362 -0.1696
70898W        W13992   5.775  14.117   1.751 -0.1428  0.2379  0.0025
70899W        W13993   6.584  15.805   1.377  0.1895  0.1192  0.0333
70900W        W13994   3.898  14.440   1.367 -0.1925  0.3122  0.0643
70901W        W13995   6.761  14.001   1.263  0.1215  0.2190  0.0083
70902W        W13996   4.699  12.903   0.757  0.1944  0.2982 -0.1445
70903W        W13997   5.532  16.373   2.123  0.1562  0.3468  0.0052
70904W        W13998   5.272  16.253   1.123  0.3188 -0.1230 -0.1537
70905W        W13999   5.233  16.883   1.444 -0.2111  0.0113  0.2885
70906W        W14000   4.548  16.037   1.819  0.2479 -0.0445 -0.0975
70907W        W14001   4.967  14.066   3.389  0.4809  0.0605  0.1736
70908W        W14002   3.567  14.943   4.084  0.0411  0.0588  0.1158
70909W        W14003   3.256  16.514   1.398 -0.3018 -0.1268  0.0212
70910W        W14004   2.942  14.454  31.829  0.2986  0.0669 -0.4280
70911W        W14005   7.104  18.590  31.390 -0.2004 -0.3104  0.0842
70912W        W14006   4.189  14.611   1.746  0.0858  0.1012  0.1664
70913W        W14007   2.810  15.317   0.919  0.1130 -0.1961 -0.0226
70914W        W14008   5.968  17.879   0.802 -0.2183  0.2680  0.2429
70915W        W14009   6.068  18.169   1.208 -0.0303  0.1616 -0.0313
70916W        W14010   5.103  15.317   1.145 -0.0558 -0.1423  0.0028
70917W        W14011   6.459  16.143   4.332 -0.0616  0.1644 -0.0293
70918W        W14012   3.116  15.358   0.367  0.0643  0.0949  0.0847
70919W        W14013   4.161  14.336   3.451 -0.0072  0.0565  0.1184
70920W        W14014   5.314  13.875   2.747  0.0973 -0.0749 -0.2379
70921W        W14015   4.886  13.985   0.804 -0.2326 -0.0875 -0.0644
70922W        W14016   5.024  14.261   2.883 -0.1802  0.1537 -0.1822
70923W        W14017   6.588  18.112   1.178 -0.2794 -0.0595  0.3469
70924W        W14018   6.936  18.251   0.830 -0.0635  0.2269  0.3472
70925W        W14019   4.392  18.768   2.865  0.1982  0.3731  0.0457
70926W        W14020   6.958  18.298   3.561  0.2726  0.1508 -0.0817
70927W        W14021   4.110  13.698   3.165 -0.1107  0.0300 -0.4001
70928W        W14022   6.679  15.947   0.832 -0.0886 -0.0049  0.2895
70929W        W14023   5.647  18.884   3.623 -0.4204 -0.1872  0.1453
70930W        W14024   6.681  18.233  31.171  0.0925 -0.0852 -0.3173
70931W        W14025   7.733  15.289   2.420  0.1271  0.4303 -0.3759
70932W        W14026   5.971  15.201   1.466 -0.2958  0.2839  0.0218
70933W        W14027   3.669  14.796   3.589 -0.0786  0.1828  0.2620
70934W        W14028   5.623  18.240   2.524 -0.3535  0.1796  0.2297
70935W        W14029   7.276  16.894   1.559  0.0126  0.1613  0.0143
70936W        W14030   3.747  14.906   1.061  0.1367 -0.0113 -0.4259
70937W        W14031   6.829  14.947   2.409 -0.2152 -0.0008  0.2257
70938W        W14032   6.440  18.628   0.973  0.4718 -0.1378 -0.0282
70939W        W14033   4.529  16.625   2.836  0.0569  0.3607 -0.0598
70940W        W14034   4.797  15.309   2.133 -0.2576 -0.2321 -0.0582
70941W        W14035   4.495  15.346   3.208 -0.5350  0.2122  0.0964
70942W        W14036   7.591  16.982   2.536  0.0986 -0.0879 -0.0582
70943W        W14037   6.456  16.446   2.375 -0.5108 -0.0088 -0.0194
70944W        W14038   5.669  14.802   1.068 -0.2052 -0.0033  0.2843
70945W        W14039   6.901  17.835  31.602 -0.0153  0.2183  0.2201
70946W        W14040   5.344  18.691   2.667  0.0001  0.3280  0.1225
70947W        W14041   7.861  17.727   2.699 -0.3943 -0.2048 -0.1297
70948W        W14042   6.024  18.309   3.472  0.1471 -0.0283 -0.2246
70949W        W14043   7.720  15.999   1.039  0.0290  0.0396  0.2239
70950W        W14044   4.927  13.572   1.835  0.0402 -0.0303 -0.3544
70951W        W14045   4.628  17.585   0.860 -0.0005 -0.0048  0.1598
70952W        W14046   5.747  17.063   0.446 -0.0401 -0.3768 -0.0324
70953W        W14047   4.587  14.243   2.622 -0.1015  0.3133 -0.1186
70954W        W14048   2.790  15.553   2.348  0.0839  0.3326 -0.0939
70955W        W14049   6.378  14.620   0.405  0.0389  0.2686  0.1017
70956W        W14050   6.525  18.329   2.808 -0.1473 -0.3388  0.1489
70957W        W14051   5.766  16.799   2.359  0.1548 -0.1693 -0.3021
70958W        W14052   5.932  16.845   6.180  0.0215  0.0235 -0.0166
70959W        W14053   4.278  15.661   4.456 -0.0877  0.1434  0.0837
70960W        W14054   6.376  15.916   2.361 -0.0071 -0.0136 -0.5942
70961W        W14055   5.733  15.295   5.161 -0.2418 -0.2378 -0.1122
70962W        W14056   2.908  14.724   4.912  0.4151 -0.3407  0.1096
70963W        W14057   6.506  18.218   3.361  0.3356 -0.0863  0.1178
70964W        W14058   3.947  14.400   5.690 -0.0243 -0.3469  0.0037
70965W        W14059   6.530  16.888   5.698  0.0452 -0.0446 -0.3166
70966W        W14060   5.857  18.560   5.011  0.0437 -0.2680 -0.2517
70967W        W14061   4.975  15.035   3.158 -0.0383 -0.0028 -0.2236
70968W        W14062   4.984  15.312   5.637 -0.1122 -0.2501 -0.0726
70969W        W14063   6.457  16.942   4.860  0.3575  0.3547  0.3993
70970W        W14064   3.919  14.484   4.091 -0.3458 -0.0005  0.0254
70971W        W14065   2.451  13.918   5.713 -0.1554  0.1521 -0.1882
70972W        W14066   4.921  15.917   5.021  0.2638  0.1960 -0.1287
70973W        W14067   2.530  16.459   3.922  0.1788  0.2579  0.1303
70974W        W14068   4.323  15.100   4.798 -0.0208  0.2424 -0.0712
70975W        W14069   3.465  15.614   3.354 -0.4032  0.5781 -0.2246
70976W        W14070   4.170  17.516   4.838  0.1883 -0.0253 -0.2311
70977W        W14071   3.372  14.507   7.155  0.1244 -0.0689 -0.1887
70978W        W14072   5.674  14.731   6.898  0.1732  0.1925 -0.0233
70979W        W14073   6.579  17.924   4.780  0.0948 -0.3958  0.0457
70980W        W14074   3.095  15.089   3.775  0.0562  0.2116 -0.0757
70981W        W14075   4.100  16.567   6.415  0.1630  0.1210  0.0131
70982W        W14076   5.779  16.256   5.533 -0.0029  0.0030  0.2626
70983W        W14077   5.329  16.886   6.815  0.1931  0.4142 -0.1511
70984W        W14078   6.966  16.118   5.675  0.1666  0.0563  0.1579
70985W        W14079   5.166  17.292   6.071 -0.0974  0.0224 -0.1403
70986W        W14080   6.723  17.699   5.249  0.1278  0.1671 -0.0097
70987W        W14081   6.699  15.860   7.363  0.0261 -0.0773 -0.1062
70988W        W14082   4.121  17.659   4.321 -0.1300 -0.1094 -0.2052
70989W        W14083   4.268  16.991   3.208  0.1788  0.0581 -0.1687
70990W        W14084   6.033  16.730   4.198  0.1939  0.0014  0.0113
70991W        W14085   7.472  17.971   5.389 -0.1961  0.0277  0.1059
70992W        W14086   7.039  16.612   5.661 -0.0551 -0.0669 -0.0743
70993W        W14087   5.135  17.448   7.558  0.2656 -0.0607 -0.0605
70994W        W14088   3.961  17.281   3.517  0.0321  0.3551 -0.1788
70995W        W14089   5.687  18.521   5.691 -0.0119 -0.0840 -0.1453
70996W        W14090   4.922  16.529   6.779  0.1919 -0.2374  0.3019
70997W        W14091   6.361  17.143   6.106  0.1179 -0.3085 -0.3153
70998W        W14092   3.740  14.990   4.956 -0.1218  0.0060  0.1420
70999W        W14093   4.540  16.686   3.481 -0.1666 -0.1542  0.1378
71000W        W14094   6.279  16.727   5.317 -0.2126  0.2272  0.0419
71001W        W14095   4.972  16.902   6.423  0.0450 -0.2826 -0.0103
71002W        W14096   4.290  17.068   7.029  0.5048  0.1470 -0.0543
71003W        W14097   8.609  14.499   6.815 -0.0106 -0.1208 -0.1543
71004W        W14098   4.215  17.088   2.587  0.3410 -0.0951  0.2760
71005W        W14099   4.733  15.814   3.320 -0.1319 -0.0881 -0.4032
71006W        W14100   6.181  14.882   3.200  0.0916 -0.3848 -0.3217
71007W        W14101   5.351  15.121   4.707 -0.3711  0.1524  0.0479
71008W        W14102   3.759  14.189   4.714  0.2276  0.1859 -0.2232
71009W        W14103   3.973  17.316   5.319 -0.0231 -0.1127  0.0598
71010W        W14104   4.551  15.267   5.367 -0.0888 -0.1550  0.0562
71011W        W14105   7.351  16.319   6.457  0.2140  0.0386 -0.2564
71012W        W14106   5.090  16.563   4.121 -0.0447 -0.1086 -0.1360
71013W        W14107   5.872  15.679   6.598  0.0223 -0.0695  0.1511
71014W        W14108   6.028  17.113   5.707  0.0381 -0.0325 -0.1441
71015W        W14109   2.892  16.225   5.657 -0.0816 -0.2216  0.1009
71016W        W14110   6.851  17.074   4.258  0.1497 -0.1504  0.0617
71017W        W14111   7.101  18.035   5.041 -0.3149  0.1097 -0.0683
71018W        W14112   5.882  16.658   3.146 -0.1104  0.1450 -0.0483
71019W        W14113   5.277  15.571   5.256  0.0049 -0.0672 -0.1406
71020W        W14114   3.843  16.209   6.281  0.1342 -0.2974  0.1600
71021W        W14115   3.205  15.901   6.994 -0.0144 -0.0106 -0.3129
71022W        W14116   5.024  14.243   2.376 -0.1648 -0.0114  0.1321
71023W        W14117   6.655  17.167   6.628 -0.1749 -0.2233 -0.1158
71024W        W14118   4.206  18.338   6.949  0.0855  0.0410 -0.0662
71025W        W14119   6.731  15.615   5.885 -0.0710 -0.2203 -0.0975
71026W        W14120   4.016  15.213   5.329  0.0983 -0.0453  0.0417
71027W        W14121   6.966  18.035   5.587  0.3377 -0.0508  0.0186
71028W        W14122   5.017  16.371   3.659  0.3143 -0.0239  0.0906
71029W        W14123   6.001  15.149   7.042 -0.2211 -0.0542  0.0146
71030W        W14124   5.725  14.815   6.297  0.0070 -0.3021 -0.1461
71031W        W14125   5.816  15.295   3.529  0.0278 -0.1718 -0.1804
71032W        W14126   5.300  17.144   3.447  0.1736 -0.0154 -0.0796
71033W        W14127   7.752  17.567   6.620  0.1818  0.1334 -0.2270
71034W        W14128   7.582  16.542   4.929  0.1559  0.2033 -0.1801
71035W        W14129   4.760  17.515   5.945  0.1524  0.1072  0.0984
71036W        W14130   6.067  15.099   5.891  0.2441 -0.1923 -0.1094
71037W        W14131   7.357  17.123   7.001  0.3453 -0.0024  0.0141
71038W        W14132   4.629  18.224   2.671 -0.0088 -0.2222 -0.1061
71039W        W14133   3.235  16.944   4.988 -0.0645  0.0953 -0.2937
71040W        W14134   4.346  17.054   3.802 -0.3831 -0.0020 -0.0378
71041W        W14135   3.214  15.832   5.171  0.0089  0.2085 -0.0710
71042W        W14136   4.486  16.190   6.672  0.1645 -0.0636 -0.0407
71043W        W14137   7.293  15.206   3.899 -0.2274  0.1665 -0.0863
71044W        W14138   3.632  15.213   6.668 -0.0465 -0.3075 -0.1504
71045W        W14139   6.547  15.229   6.215  0.0703 -0.2304  0.0961
71046W        W14140   3.795  17.059   3.914 -0.0126 -0.1318  0.0811
71047W        W14141   6.304  19.439   5.398  0.0859 -0.0870 -0.0744
71048W        W14142   7.928  15.298   4.032 -0.2466  0.1055 -0.1289
71049W        W14143   7.169  17.014   3.902 -0.0147  0.0381 -0.1799
71050W        W14144   2.991  17.140   5.487 -0.4400  0.0014  0.1297
71051W        W14145   4.583  14.691   5.714 -0.0591  0.3010 -0.0150
71052W        W14146   2.836  14.757   6.265  0.1057 -0.0515  0.0792
71053W        W14147   3.904  14.828   6.322  0.1347 -0.3439 -0.2462
71054W        W14148   5.428  17.005   7.564 -0.1774 -0.2439 -0.0041
71055W        W14149   3.464  15.463   4.223 -0.3674 -0.0897  0.2037
71056W        W14150   5.793  15.608   5.667  0.1713 -0.1758 -0.2270
71057W        W14151   4.282  16.192   4.459  0.1451 -0.2378 -0.0255
71058W        W14152   2.295  16.864   5.373 -0.1390  0.3030 -0.4469
71059W        W14153   7.083  14.453   7.219 -0.2527  0.1571 -0.0307
71060W        W14154   6.370  17.678   4.319  0.0109 -0.1810  0.0329
71061W        W14155   6.982  17.474   6.131 -0.1182  0.0887  0.1230
71062W        W14156   6.154  17.388   4.729  0.1319  0.0070  0.1273
71063W        W14157   5.244  15.744   5.840  0.1478 -0.1284 -0.2438
71064W        W14158   4.102  14.833   3.285  0.2055 -0.0047 -0.0777
71065W        W14159   3.766  18.761   5.311  0.0053 -0.1531  0.0905
71066W        W14160   5.652  17.455   4.866  0.1382  0.0433  0.2968
71067W        W14161   3.838  14.772   4.518  0.3122  0.1132 -0.3359
71068W        W14162   7.329  17.939   5.900  0.1427  0.0365  0.3138
71069W        W14163   5.127  16.218   4.442 -0.1622 -0.1411 -0.0757
71070W        W14164   4.681  16.491   6.300  0.3422  0.1924  0.0823
71071W        W14165   4.734  14.715   7.763 -0.2026 -0.1444 -0.1124
71072W        W14166   7.066  15.938   6.150  0.0378 -0.0900  0.0075
71073W        W14167   5.310  16.159   5.335 -0.1690 -0.0408  0.0596
71074W        W14168   4.799  14.763   4.050  0.2015  0.2392  0.0370
71075W        W14169   6.179  16.746   6.671 -0.0724 -0.2713  0.0565
71076W        W14170   4.741  17.394   3.823 -0.0902 -0.1615  0.1256
71077W        W14171   2.508  16.301   5.284 -0.0854 -0.1962 -0.0731
71078W        W14172   4.460  17.294   4.270  0.1041 -0.1364  0.4535
71079W        W14173   6.152  14.872   6.606  0.0910  0.0462 -0.0081
71080W        W14174   3.641  15.721   6.778 -0.2357 -0.2333 -0.2945
71081W        W14175   5.404  14.464   6.046 -0.1076  0.0246  0.0113
71082W        W14176   3.108  15.487   4.622 -0.0212 -0.1764  0.0278
71083W        W14177   4.965  17.802   6.395 -0.1219 -0.2611 -0.2291
71084W        W14178   5.884  14.824   5.382  0.0918 -0.0998 -0.1430
71085W        W14179   6.265  14.776   4.696  0.1481  0.0214 -0.1734
71086W        W14180   5.679  16.800   7.107 -0.2734 -0.0465  0.4582
71087W        W14181   7.141  16.002   4.699  0.0064 -0.0166  0.0260
71088W        W14182   5.430  15.098   3.333 -0.3886 -0.3552  0.0511
71089W        W14183   6.091  14.564   2.750 -0.0407  0.3066 -0.2850
71090W        W14184   4.472  15.721   5.855  0.0056 -0.2695 -0.0516
71091W        W14185   5.177  16.747   5.478  0.1672 -0.0058  0.0348
71092W        W14186   5.573  17.217   5.287  0.0422  0.2633  0.0358
71093W        W14187   6.078  14.915   3.746  0.2380 -0.1418 -0.0028
71094W        W14188   6.706  17.417   4.791  0.0166 -0.0406  0.1259
71095W        W14189   4.232  16.579   5.962 -0.0315  0.1471  0.0083
71096W        W14190   6.847  16.932   6.166  0.2306 -0.0114  0.1426
71097W        W14191   6.008  18.166   5.831 -0.2247  0.4027 -0.2463
71098W        W14192   4.013  15.600   7.110 -0.3263  0.0074 -0.0806
71099W        W14193   3.369  16.087   3.604  0.1208  0.2145  0.1495
71100W        W14194   5.637  14.853   5.793 -0.0946 -0.0974 -0.2205
71101W        W14195   3.805  18.463   3.772  0.1345  0.4883  0.1417
71102W        W14196   5.048  14.273   7.904 -0.3791 -0.2312  0.0018
71103W        W14197   5.242  15.059   6.044  0.0653 -0.0196 -0.0862
71104W        W14198   3.949  13.978   6.972 -0.3167  0.0962  0.2788
71105W        W14199   6.397  16.672   7.167  0.1323 -0.2971  0.2485
71106W        W14200   6.514  15.547   4.074 -0.0211  0.3027 -0.1732
71107W        W14201   5.128  16.251   5.769  0.0972 -0.1199  0.1263
71108W        W14202   3.166  15.671   3.805  0.2907 -0.0204 -0.0516
71109W        W14203   4.768  15.316   6.087 -0.0692  0.0936 -0.2122
71110W        W14204   2.568  15.866   7.746 -0.1170 -0.3236  0.0173
71111W        W14205   4.575  18.601   5.918 -0.1234  0.2956 -0.0326
71112W        W14206   6.057  15.787   7.065  0.1990 -0.1399  0.0041
71113W        W14207   5.514  15.420   4.331 -0.0836 -0.2079  0.0652
71114W        W14208   5.336  15.345   7.592  0.0694 -0.3680  0.0264
71115W        W14209   3.396  14.370   4.140  0.0084 -0.0717  0.2830
71116W        W14210   5.286  17.400   3.912 -0.0477 -0.0228 -0.2686
71117W        W14211   3.822  16.950   4.918  0.0210  0.1964 -0.0139
71118W        W14212   4.622  14.106   4.205  0.0695  0.1149  0.1796
71119W        W14213   4.868  17.157   5.640  0.0236 -0.3722 -0.0132
71120W        W14214   3.794  17.392   4.599 -0.0795  0.2651  0.2068
71121W        W14215   6.353  17.279   5.345 -0.1548 -0.0461 -0.1067
71122W        W14216   5.324  17.208   4.576  0.0157 -0.3794 -0.0936
71123W        W14217   6.994  14.894   5.457 -0.3515 -0.1627  0.2103
71124W        W14218   4.916  17.743   5.443  0.0384  0.3672  0.0389
71125W        W14219   5.559  15.960   4.321  0.1030  0.1518  0.0954
71126W        W14220   4.664  16.994   6.073 -0.2517  0.1408 -0.2655
71127W        W14221   4.404  16.066   4.942  0.1916 -0.0408  0.2223
71128W        W14222   5.764  16.360   5.044 -0.0725  0.1191 -0.3841
71129W        W14223   3.061  15.277   5.512 -0.0196  0.1812  0.1500
71130W        W14224   6.245  15.593   5.919  0.1786 -0.0302 -0.0736
71131W        W14225   3.770  17.397   6.840 -0.0361 -0.1575 -0.0080
71132W        W14226   5.694  16.470   6.516  0.1464  0.2676 -0.2510
71133W        W14227   6.110  14.372   3.711  0.0274 -0.0366 -0.1252
71134W        W14228   7.620  17.490   5.161  0.1303  0.1417 -0.1880
71135W        W14229   4.279  16.409   7.765 -0.0254 -0.2171 -0.5022
71136W        W14230   3.477  16.077   4.852  0.2010  0.0696  0.0513
71137W        W14231   7.951  14.976   6.841 -0.0167 -0.1387  0.4674
71138W        W14232   3.413  15.536   2.853 -0.2763  0.2879  0.0671
71139W        W14233   3.880  16.917   5.790  0.0605 -0.2079 -0.1146
71140W        W14234   5.423  17.721   6.307 -0.1001 -0.3941 -0.0197
71141W        W14235   3.945  16.165   5.220  0.0452 -0.2857  0.1261
71142W        W14236   4.396  17.942   5.089  0.0916  0.2088 -0.0480
71143W        W14237   4.421  15.554   7.927 -0.0294 -0.6020  0.0883
71144W        W14238   5.678  15.493   7.231 -0.0790  0.0211  0.0864
71145W        W14239   3.692  15.774   5.260  0.4745 -0.1621 -0.0635
71146W        W14240   3.423  15.089   4.604  0.1597  0.0300 -0.0152
71147W        W14241   4.136  15.388   6.528  0.2460  0.0042 -0.1509
71148W        W14242   6.392  16.582   6.227 -0.0341 -0.1145  0.0037
71149W        W14243   4.573  15.704   6.398  0.2863  0.1341 -0.1685
71150W        W14244   3.795  18.687   6.909  0.0813  0.0872 -0.1349
71151W        W14245   5.310  15.037   5.182  0.0037 -0.0118 -0.3507
71152W        W14246   7.000  18.893   4.765 -0.0788 -0.2016  0.1372
71153W        W14247   5.784  17.032   6.685 -0.1453  0.1458 -0.2301
71154W        W14248   3.822  15.912   4.234 -0.3878  0.2391  0.1730
71155W        W14249   3.915  17.422   5.816 -0.3760 -0.2851 -0.0370
71156W        W14250   4.549  16.476   3.968 -0.0864 -0.3336 -0.0495
71157W        W14251   5.117  14.790   5.564  0.3535  0.4996  0.0356
71158W        W14252   4.172  16.861   5.306  0.1460 -0.0001  0.0861
71159W        W14253   4.351  17.016   4.872 -0.0888 -0.1861  0.1927
71160W        W14254   4.490  16.841   6.600  0.1787 -0.0552 -0.1509
71161W        W14255   5.990  15.328   3.999 -0.3080  0.2939 -0.1192
71162W        W14256   6.406  16.452   3.854  0.0605  0.0439 -0.0833
71163W        W14257   5.449  14.587   5.244 -0.2274  0.2901 -0.1994
71164W        W14258   8.664  15.312   5.692 -0.1304 -0.1745  0.3859
71165W        W14259   5.904  17.133   3.961 -0.1112 -0.1756 -0.1530
71166W        W14260   5.749  14.056   7.349  0.2295  0.0518  0.2074
71167W        W14261   4.431  15.397   7.398  0.2821  0.1326 -0.0151
71168W        W14262   6.785  16.675   5.225  0.1113 -0.0894 -0.1908
71169W        W14263   2.886  15.254   6.023  0.1155  0.4057  0.4702
71170W        W14264   6.854  17.963   6.233  0.1361 -0.0074 -0.3027
71171W        W14265   4.502  16.442   7.332  0.1182 -0.0615 -0.2556
71172W        W14266   4.704  15.563   4.807 -0.0309 -0.0431 -0.1073
71173W        W14267   4.314  14.825   5.360 -0.0031  0.1337  0.1478
71174W        W14268   4.087  16.983   4.435 -0.0197 -0.0565 -0.0667
71175W        W14269   7.273  16.328   5.973  0.0198 -0.2684  0.2096
71176W        W14270   5.926  16.204   4.015 -0.1015 -0.0999  0.2650
71177W        W14271   4.729  15.735   4.280 -0.3151 -0.1716  0.0630
71178W        W14272   4.602  17.302   5.198 -0.1412  0.0175  0.2073
71179W        W14273   6.695  16.114   5.213  0.2771 -0.0297  0.0262
71180W        W14274   6.329  16.934   3.820 -0.2934 -0.0398 -0.0155
71181W        W14275   4.661  16.674   5.041 -0.0122 -0.2929  0.1170
71182W        W14276   3.075  14.937   7.244  0.0048 -0.0838 -0.0909
71183W        W14277   5.764  15.834   5.228  0.2955 -0.0746  0.0304
71184W        W14278   4.876  15.299   3.921 -0.0427 -0.0198  0.3522
71185W        W14279   5.533  14.963   7.260  0.1775 -0.2306  0.0001
71186W        W14280   5.117  15.992   6.672 -0.0302  0.1467 -0.1549
71187W        W14281   4.376  16.896   8.205 -0.1841 -0.2665 -0.0393
71188W        W14282   3.411  14.793   7.622 -0.0004 -0.0969  0.0973
71189W        W14283   6.668  17.419   5.737  0.1503 -0.0589 -0.1626
71190W        W14284   6.695  16.221   2.753  0.1675 -0.1766  0.0025
71191W        W14285   6.221  14.713   6.152 -0.0229  0.1031  0.1204
71192W        W14286   6.413  15.078   4.175  0.1498  0.2567 -0.1543
71193W        W14287   5.110  15.486   2.971  0.0158  0.0835 -0.0971
71194W        W14288   3.596  16.780   4.265 -0.0270 -0.0412 -0.2082
71195W        W14289   5.589  15.968   6.891 -0.1233 -0.2771  0.0636
71196W        W14290   4.509  14.955   3.599  0.0757 -0.0035 -0.3266
71197W        W14291   7.490  15.102   6.703  0.0619 -0.0655 -0.1512
71198W        W14292   5.382  16.623   3.672 -0.2140  0.2456 -0.0230
71199W        W14293   4.511  16.744   4.456 -0.1606  0.1181 -0.0678
71200W        W14294   5.719  14.373   4.150  0.1109 -0.0831  0.3397
71201W        W14295   3.385  15.751   5.663 -0.3763 -0.0053  0.1455
71202W        W14296   4.523  18.834   7.626  0.0039 -0.2289 -0.0453
71203W        W14297   3.567  15.290   3.687 -0.0448  0.0687  0.1718
71204W        W14298   5.388  16.198   3.946  0.2039 -0.2057  0.0801
71205W        W14299   6.670  17.165   7.252 -0.0008  0.3088  0.1095
71206W        W14300   5.885  16.403   7.042  0.1284  0.0121  0.0128
71207W        W14301   6.624  14.690   2.813  0.5872  0.4746  0.0063
71208W        W14302   6.443  15.354   6.697  0.6252 -0.1815 -0.1271
71209W        W14303   2.411  16.794   4.437  0.2154 -0.0906  0.0069
71210W        W14304   6.208  15.294   5.451 -0.2484  0.4635  0.0995
71211W        W14305   5.136  17.445   5.070  0.0937  0.0962 -0.0333
71212W        W14306   4.125  16.634   7.107  0.0331  0.1231  0.4567
71213W        W14307   5.525  17.062   5.770  0.1658 -0.0544 -0.0965
71214W        W14308   4.117  15.125   7.004 -0.0022 -0.0963  0.1210
71215W        W14309   6.235  15.227   4.917 -0.1856 -0.5896  0.1262
71216W        W14310   4.811  16.345   5.365 -0.1498 -0.1815  0.1646
71217W        W14311   6.315  14.763   5.204  0.2904 -0.0390  0.3660
71218W        W14312   6.393  17.239   7.751  0.1236  0.2724 -0.0186
71219W        W14313   3.553  16.537   4.983 -0.2047 -0.3441 -0.2000
71220W        W14314   5.794  17.574   5.728 -0.0841 -0.2652  0.3443
71221W        W14315   7.267  16.870   4.463  0.0067  0.1422 -0.2519
71222W        W14316   4.217  16.571   4.852 -0.0757  0.2187 -0.1708
71223W        W14317   3.150  14.362   6.067  0.0331  0.1010  0.1492
71224W        W14318   4.562  15.950   7.470  0.3236 -0.0039  0.0227
71225W        W14319   6.095  16.556   5.784  0.6505 -0.1507  0.2039
71226W        W14320   5.225  14.205   4.141 -0.0321 -0.2372  0.0219
71227W        W14321   5.435  16.475   3.175  0.0509 -0.0147 -0.0228
71228W        W14322   3.663  17.692   8.455 -0.1913 -0.0227  0.1595
71229W        W14323   4.339  16.395   5.399 -0.0687  0.2614 -0.3237
71230W        W14324   4.914  18.087   4.334  0.5588  0.1555 -0.0856
71231W        W14325   7.159  16.025   4.199 -0.0572  0.3069  0.0755
71232W        W14326   5.723  16.717   5.438 -0.0486 -0.0596 -0.0052
71233W        W14327   5.919  17.831   6.260 -0.2707  0.0573  0.0223
71234W        W14328   3.902  15.634   2.941  0.1236 -0.0881 -0.0311
71235W        W14329   2.969  16.275   5.132 -0.0336 -0.0673  0.1373
71236W        W14330   2.554  17.928   4.530 -0.1617  0.0144 -0.2254
71237W        W14331   5.988  17.052   5.096 -0.0224 -0.1324 -0.2061
71238W        W14332   4.230  18.795   5.567 -0.0329  0.1799  0.0174
71239W        W14333   6.982  16.806   7.005  0.0755  0.4625  0.1619
71240W        W14334   6.726  15.008   3.292 -0.3056  0.0704 -0.1828
71241W        W14335   7.553  16.648   5.672  0.2622 -0.0916 -0.2304
71242W        W14336   7.516  15.628   4.020  0.0690  0.1812  0.0195
71243W        W14337   6.495  17.603   6.211 -0.1185 -0.1220  0.0123
71244W        W14338   6.129  16.161   6.635  0.0521  0.1284  0.0185
71245W        W14339   5.702  14.741   3.520 -0.3383  0.3082  0.1094
71246W        W14340   3.215  15.970   7.921  0.0841 -0.2200  0.1619
71247W        W14341   5.654  13.206   5.312  0.0403 -0.2600  0.2519
71248W        W14342   3.889  18.406   5.660  0.2062 -0.1266  0.0266
71249W        W14343   6.057  17.632   3.406 -0.2399  0.1156 -0.0397
71250W        W14344   4.060  14.938   4.043  0.0291 -0.1123  0.2623
71251W        W14345   4.355  16.180   3.573  0.2092 -0.0923  0.0539
71252W        W14346   6.180  13.940   6.556  0.0559  0.1561  0.1982
71253W        W14347   5.164  16.438   4.986 -0.1708 -0.0061  0.0390
71254W        W14348   4.818  15.792   5.486 -0.4081  0.3213  0.0934
71255W        W14349   5.002  16.997   4.986  0.2128 -0.1633 -0.1125
71256W        W14350   4.931  18.352   6.222  0.2025 -0.0010  0.0249
71257W        W14351   5.096  17.926   5.949  0.0737  0.2253 -0.4642
71258W        W14352   1.372  14.001   4.675 -0.0735  0.1241  0.4887
71259W        W14353   7.020  15.598   3.941 -0.1475  0.0047  0.2681
71260W        W14354   5.148  15.531   6.373  0.0499 -0.0414 -0.3094
71261W        W14355   7.232  14.795   6.423 -0.3296 -0.1931  0.2508
71262W        W14356   3.972  15.700   6.200  0.2679 -0.0284 -0.1875
71263W        W14357   5.757  14.774   4.877 -0.0271  0.0873 -0.1415
71264W        W14358   6.457  16.027   5.992  0.0949 -0.1822 -0.1646
71265W        W14359   3.196  15.387   6.941  0.0625  0.1498  0.1053
71266W        W14360   5.115  15.391   3.526 -0.0056 -0.0061 -0.1265
71267W        W14361   6.712  16.118   6.548  0.1852 -0.0396 -0.1383
71268W        W14362   6.014  15.801   3.342 -0.1787  0.2297  0.0735
71269W        W14363   6.193  17.366   6.543  0.0079 -0.0892  0.3725
71270W        W14364   3.920  14.323   6.547 -0.0756 -0.0831 -0.1109
71271W        W14365   5.581  15.682   3.746 -0.2679 -0.2512 -0.2298
71272W        W14366   4.350  16.103   6.206 -0.2479  0.7138 -0.2580
71273W        W14367   4.086  15.907   6.621 -0.0256  0.2430 -0.1469
71274W        W14368   8.318  18.220   5.359  0.1437 -0.1556 -0.2564
71275W        W14369   5.072  13.809   4.436  0.1351  0.1932 -0.3689
71276W        W14370   5.516  16.810   4.985 -0.0700 -0.0419  0.1558
71277W        W14371   8.877  15.661   5.298  0.2195 -0.1057  0.0887
71278W        W14372   5.605  18.832   4.302  0.1313  0.0292 -0.2725
71279W        W14373   7.174  16.343   3.833  0.0950 -0.0833  0.0608
71280W        W14374   5.592  16.549   5.949 -0.0261 -0.1093  0.3908
71281W        W14375   3.398  14.893   5.752  0.0891 -0.5037 -0.0487
71282W        W14376   7.788  18.184   5.700  0.4175 -0.1995  0.1338
71283W        W14377   7.144  16.759   6.558  0.2684  0.3043  0.0668
71284W        W14378   3.881  15.288   4.530 -0.1684 -0.0064  0.0411
71285W        W14379   4.161  15.523   4.944  0.0878 -0.0689 -0.0154
71286W        W14380   3.376  17.956   3.802  0.1652 -0.1165 -0.1625
71287W        W14381   5.637  15.522   6.152 -0.2198  0.1052 -0.0108
71288W        W14382   6.579  14.491   7.090  0.0172 -0.0794 -0.6757
71289W        W14383   5.046  16.993   2.669  0.1206 -0.0570 -0.0436
71290W        W14384   6.100  14.380   6.792  0.3164 -0.1156  0.0653
71291W        W14385   6.069  17.364   7.002  0.1482 -0.2302 -0.2981
71292W        W14386   5.721  17.342   6.213 -0.4404  0.0110 -0.0592
71293W        W14387   4.194  15.824   2.542  0.1970 -0.4223 -0.0942
71294W        W14388   4.574  17.430   7.297 -0.3265  0.0941 -0.1821
71295W        W14389   6.543  16.370   5.610 -0.0758 -0.1247  0.0053
71296W        W14390   4.212  18.231   3.579  0.0272  0.1248 -0.1911
71297W        W14391   6.799  16.400   6.097 -0.0925 -0.0630 -0.1322
71298W        W14392   6.418  15.455   4.525  0.0343  0.1013  0.2827
71299W        W14393   6.178  16.280   5.222  0.1530  0.1787  0.3062
71300W        W14394   5.449  15.253   5.590  0.1957 -0.1959  0.1230
71301W        W14395   6.201  15.987   5.575  0.1660  0.3181 -0.3613
71302W        W14396   7.128  15.033   4.864 -0.3803  0.0460 -0.0750
71303W        W14397   4.559  17.759   6.873  0.0060  0.1259 -0.2505
71304W        W14398   3.419  16.517   3.862 -0.0828 -0.0060  0.0156
71305W        W14399   2.976  16.247   3.987  0.0828 -0.2913  0.3074
71306W        W14400   5.212  16.405   6.383 -0.2084  0.2891 -0.1362
71307W        W14401   4.841  15.129   7.519 -0.0407  0.0638  0.0412
71308W        W14402   4.041  16.094   5.820 -0.2628  0.2138 -0.0404
71309W        W14403   3.437  16.228   5.395  0.5141  0.1756 -0.0161
71310W        W14404   4.386  14.774   4.378 -0.0426 -0.1750 -0.1671
71311W        W14405   6.712  15.597   5.374  0.3346 -0.0365  0.0963
71312W        W14406   4.278  14.366   6.182 -0.0850 -0.0652 -0.1402
71313W        W14407   2.671  15.120   4.631 -0.3551  0.1483 -0.0178
71314W        W14408   7.403  17.398   3.781 -0.3374 -0.0114 -0.0693
71315W        W14409   6.737  18.472   5.484 -0.1817  0.2153  0.1015
71316W        W14410   4.888  14.493   4.510 -0.4677  0.0867 -0.0932
71317W        W14411   6.845  18.253   7.737  0.2285 -0.3333 -0.3089
71318W        W14412   3.115  15.804   4.251 -0.1293 -0.2842  0.2030
71319W        W14413   4.994  16.638   7.257  0.0481  0.0684 -0.1037
71320W        W14414   4.175  14.425   7.125 -0.0794  0.2527 -0.1491
71321W        W14415   4.234  15.218   2.765 -0.0696  0.5214 -0.1275
71322W        W14416   4.892  15.559   7.792 -0.0594  0.0945  0.1395
71323W        W14417   5.161  16.716   4.598  0.0414 -0.1734 -0.0658
71324W        W14418   6.751  17.864   3.670 -0.1368 -0.1927  0.3469
71325W        W14419   6.322  17.754   5.737 -0.0112  0.1116  0.0867
71326W        W14420   5.438  16.926   6.316  0.0665 -0.0954  0.0325
71327W        W14421   3.346  15.003   6.274  0.0220 -0.1578 -0.1062
71328W        W14422   6.427  15.890   4.793  0.1336  0.1645 -0.3314
71329W        W14423   4.957  17.032   7.642  0.3162 -0.3218 -0.4078
71330W        W14424   6.041  16.627   4.721  0.0577  0.1171  0.1290
71331W        W14425   6.721  14.675   6.102  0.0196 -0.0369 -0.2427
71332W        W14426   4.757  16.310   4.745 -0.0098  0.1796 -0.1818
71333W        W14427   3.576  15.304   7.219 -0.1270  0.0732  0.0733
71334W        W14428   4.247  15.261   5.952 -0.0887 -0.0671  0.0718
71335W        W14429   7.696  15.631   5.377  0.0563  0.3107 -0.2474
71336W        W14430   4.035  14.614   4.977  0.0436 -0.3147  0.3973
71337W        W14431   5.883  15.630   4.757 -0.2095 -0.5364  0.0560
71338W        W14432   5.813  17.052   4.582  0.2604  0.0770  0.2017
71339W        W14433   3.876  16.517   5.546  0.0893 -0.3220 -0.2169
71340W        W14434   4.483  15.550   3.705 -0.2004 -0.0905  0.0369
71341W        W14435   4.138  16.075   7.206 -0.2824 -0.1071  0.4810
71342W        W14436   6.001  16.134   4.633  0.3223 -0.2401  0.0661
71343W        W14437   4.074  16.384   8.257  0.0234  0.1856  0.1583
71344W        W14438   4.291  15.943   3.979 -0.1909  0.0285 -0.0466
71345W        W14439   7.903  16.283   4.406  0.0494  0.1322  0.0927
71346W        W14440   5.979  18.151   7.794 -0.2069 -0.2615  0.0007
71347W        W14441   7.041  18.124   8.826 -0.2325 -0.0557 -0.2767
71348W        W14442   6.063  18.971   7.437  0.0042  0.2541  0.1827
71349W        W14443   5.614  16.014   5.917 -0.3102 -0.0189  0.3355
71350W        W14444   2.210  14.121   6.088  0.1367  0.1545  0.2691
71351W        W14445   3.946  15.967   4.759  0.3015  0.3532 -0.0146
71352W        W14446   4.288  15.830   5.381  0.2400 -0.0532 -0.1386
71353W        W14447   5.541  16.009   6.378  0.1405 -0.0122  0.0265
71354W        W14448   4.363  14.867   6.207 -0.3408 -0.2740 -0.3586
71355W        W14449   5.860  14.375   3.217 -0.2150 -0.2563 -0.1101
71356W        W14450   4.899  18.671   6.601  0.1360 -0.0467 -0.2603
71357W        W14451   5.341  16.398   6.901 -0.3270 -0.0558 -0.1509
71358W        W14452   5.121  18.355   8.260 -0.1402  0.0333 -0.2202
71359W        W14453   3.359  15.692   8.891  0.1799  0.2089  0.1218
71360W        W14454   7.845  13.894   6.779  0.2577  0.3550  0.0428
71361W        W14455   7.523  16.345   7.988  0.2333  0.1203 -0.0884
71362W        W14456   3.608  16.654   8.635 -0.0849  0.1603 -0.1666
71363W        W14457   6.354  17.693   7.246  0.1969  0.1313 -0.4683
71364W        W14458   6.568  18.193   9.638 -0.0515  0.0448 -0.1319
71365W        W14459   6.758  16.901   8.812  0.0724  0.0110  0.1483
71366W        W14460   7.271  16.511   8.444 -0.0735  0.1202  0.0745
71367W        W14461   6.626  14.685   8.620 -0.1856 -0.2627  0.3182
71368W        W14462   5.278  14.289   7.430  0.1796 -0.0795 -0.0185
71369W        W14463   3.277  14.174   8.485 -0.1763 -0.0963 -0.0084
71370W        W14464   6.216  15.545   9.125  0.0581  0.1034 -0.2392
71371W        W14465   3.485  16.816   7.581 -0.3621 -0.0040 -0.1167
71372W        W14466   3.956  14.331   9.471 -0.1161 -0.2861  0.1498
71373W        W14467   4.529  14.542   8.157 -0.0636 -0.0772 -0.1403
71374W        W14468   5.704  19.405   7.630 -0.2870  0.1647 -0.2588
71375W        W14469   7.682  12.330   8.892 -0.4010  0.3437 -0.2700
71376W        W14470   5.021  17.534   8.150 -0.1547  0.0697  0.2835
71377W        W14471   4.491  15.737   6.925  0.2610  0.0092  0.1220
71378W        W14472   5.342  15.074   8.667  0.0155 -0.1259  0.1263
71379W        W14473   5.389  16.152   8.833 -0.0693  0.0793 -0.2562
71380W        W14474   6.718  15.091   8.388 -0.0712  0.1319  0.0008
71381W        W14475   5.742  15.138   7.809 -0.2649 -0.0200 -0.3148
71382W        W14476   6.016  18.748   9.216 -0.1149  0.0765 -0.2062
71383W        W14477   6.606  17.888   8.975 -0.0867 -0.1916  0.2623
71384W        W14478   3.577  16.913   9.500 -0.0299 -0.1444 -0.3194
71385W        W14479   3.162  17.901   8.690  0.2561  0.1666 -0.2176
71386W        W14480   4.054  16.817   7.788  0.0297  0.2279  0.1643
71387W        W14481   6.325  17.651   9.328 -0.1536  0.1389  0.0447
71388W        W14482   4.636  16.746   5.598 -0.0987 -0.1260 -0.0849
71389W        W14483   4.478  16.826   9.223 -0.0402 -0.1408 -0.0556
71390W        W14484   6.145  16.217   8.495 -0.1360  0.0830 -0.1098
71391W        W14485   5.499  17.894   7.057  0.0806 -0.1291 -0.1163
71392W        W14486   7.205  15.972   9.599 -0.1525 -0.0396 -0.1770
71393W        W14487   4.265  16.461   9.012 -0.2320  0.0195  0.1154
71394W        W14488   5.087  17.637   6.900  0.1295  0.2259 -0.0439
71395W        W14489   7.554  14.330   7.566 -0.1506  0.2037  0.2510
71396W        W14490   4.901  16.002   6.167  0.0925  0.2086  0.1180
71397W        W14491   6.614  15.017   6.984 -0.0546 -0.1536 -0.0709
71398W        W14492   5.305  13.401   8.872 -0.1329  0.1075  0.0139
71399W        W14493   5.529  19.008   7.873  0.0600 -0.0043  0.0380
71400W        W14494   3.192  14.824   9.302 -0.0311  0.3363  0.0006
71401W        W14495   4.825  14.994   9.489  0.2383 -0.1167 -0.1193
71402W        W14496   7.155  13.519   9.216  0.1102 -0.3688 -0.0648
71403W        W14497   5.303  17.505   9.630 -0.0184  0.1962  0.0294
71404W        W14498   6.125  14.713   9.756  0.0120  0.2498  0.2715
71405W        W14499   7.461  17.013   7.940  0.1492 -0.1204 -0.2912
71406W        W14500   7.266  17.783   9.188 -0.0009 -0.2222  0.1317
71407W        W14501   6.283  17.858   6.739 -0.0830  0.1224 -0.2961
71408W        W14502   5.215  16.642   7.921  0.2302 -0.0460 -0.0634
71409W        W14503   3.697  14.147   7.354  0.0324  0.0820 -0.1005
71410W        W14504   8.367  13.953   7.661 -0.2284 -0.0788 -0.1060
71411W        W14505   5.775  15.966   9.239  0.0964 -0.1074 -0.1443
71412W        W14506   7.898  18.037  10.059 -0.1088  0.1189  0.1728
71413W        W14507   6.586  16.400   8.134  0.3539  0.2070 -0.2114
71414W        W14508   6.220  14.040   7.660 -0.1722 -0.0707  0.0584
71415W        W14509   3.179  15.236   8.988  0.3016  0.1427 -0.0398
71416W        W14510   5.531  17.299   7.075 -0.2134 -0.0064 -0.0805
71417W        W14511   6.311  17.766   7.748 -0.0248 -0.1828  0.0345
71418W        W14512   7.153  16.034   8.658  0.1116  0.0435  0.2506
71419W        W14513   6.165  15.191   7.586  0.2413  0.0132 -0.0479
71420W        W14514   5.043  16.850   8.763  0.1933 -0.2440  0.1292
71421W        W14515   4.145  18.935   6.614  0.0855  0.2021 -0.1205
71422W        W14516   4.086  18.443   9.682 -0.2604 -0.1592  0.0423
71423W        W14517   4.464  16.905   7.466 -0.1758 -0.3790  0.0194
71424W        W14518   4.405  13.487   9.586  0.0723 -0.0184  0.1156
71425W        W14519   5.325  15.575   9.474  0.2021  0.1732  0.1036
71426W        W14520   7.921  14.874   8.092 -0.1354 -0.3001  0.0099
71427W        W14521   7.024  13.597   7.143  0.0955  0.1292 -0.4799
71428W        W14522   3.819  17.636   7.939  0.0255 -0.0625  0.0519
71429W        W14523   7.551  16.465   9.367  0.0346  0.0204 -0.0622
71430W        W14524   7.103  14.960   7.606  0.2514  0.2458 -0.2998
71431W        W14525   7.610  16.909   7.410  0.2400  0.3398  0.0399
71432W        W14526   4.811  16.371   8.923  0.2666 -0.1756  0.2160
71433W        W14527   4.465  15.671   8.663  0.1730  0.0852 -0.0325
71434W        W14528   4.816  14.856   8.699 -0.1022  0.1624  0.0448
71435W        W14529   3.521  13.687   7.497 -0.2231  0.1563 -0.0729
71436W        W14530   7.481  15.054   8.197 -0.0847  0.1043  0.1421
71437W        W14531   4.547  16.215   8.530  0.1871 -0.0489 -0.2517
71438W        W14532   4.222  17.391   6.651 -0.0903 -0.0551  0.0345
71439W        W14533   4.764  17.292   6.739  0.1829 -0.1746 -0.0598
71440W        W14534   8.024  15.226   8.910  0.1727  0.0635 -0.2284
71441W        W14535   6.395  17.237   8.812  0.3126  0.2120 -0.0891
71442W        W14536   5.971  15.018   8.908  0.2200 -0.2590  0.2629
71443W        W14537   4.590  15.207   8.381  0.0373 -0.0576  0.0412
71444W        W14538   4.187  18.115   8.594 -0.0295 -0.0176 -0.3280
71445W        W14539   6.802  18.398  10.106 -0.0524  0.2188 -0.0530
71446W        W14540   5.528  15.179   6.535  0.0086 -0.0924  0.1404
71447W        W14541   6.764  17.250   9.196  0.2286  0.0214 -0.2430
71448W        W14542   6.897  17.210   7.767 -0.2052  0.0193 -0.3082
71449W        W14543   6.564  14.940   9.894  0.2883  0.0871 -0.1784
71450W        W14544   5.424  16.491   7.359 -0.0240  0.1755  0.0252
71451W        W14545   4.594  14.209   7.644  0.0047 -0.2570  0.1564
71452W        W14546   5.493  18.551   8.664 -0.2738 -0.2566  0.0545
71453W        W14547   4.720  18.375   7.610  0.2918 -0.1850  0.3103
71454W        W14548   3.774  16.753   8.179  0.0380 -0.1349 -0.0196
71455W        W14549   5.481  16.608   8.838 -0.1044 -0.0178 -0.1449
71456W        W14550   6.103  14.616   8.617  0.2871 -0.1679  0.1779
71457W        W14551   4.583  16.027   7.971 -0.0542  0.3206  0.0834
71458W        W14552   5.492  14.798   8.183  0.0678  0.3380 -0.1205
71459W        W14553   7.631  15.139   7.229 -0.0804  0.1052 -0.2378
71460W        W14554   7.067  16.169   8.152  0.1882  0.0238 -0.1244
71461W        W14555   4.901  16.102   7.111  0.0898  0.2704 -0.1315
71462W        W14556   5.327  15.541   6.850 -0.0365  0.0683 -0.0734
71463W        W14557   5.382  16.720   8.399  0.1200 -0.3781 -0.5376
71464W        W14558   6.433  16.700   8.512 -0.0015  0.1471  0.0048
71465W        W14559   4.395  15.075   7.824 -0.0412 -0.4114  0.3413
71466W        W14560   7.825  16.956   8.884  0.1134  0.4211 -0.1442
71467W        W14561   0.586  16.003  12.373 -0.0946 -0.1540  0.0521
71468W        W14562   6.680  17.060   8.231  0.0973 -0.0991 -0.4341
71469W        W14563   3.887  14.068   9.039 -0.2464 -0.0166 -0.1428
71470W        W14564   4.939  15.416   8.667 -0.0112  0.0055 -0.1646
71471W        W14565   6.175  14.916   8.062  0.0929 -0.1245  0.1592
71472W        W14566   4.139  18.895   7.252 -0.1428 -0.0137 -0.0163
71473W        W14567   8.038  14.297   8.516  0.0496  0.0491 -0.0360
71474W        W14568   6.448  14.248   8.392 -0.1520 -0.2014 -0.3487
71475W        W14569   6.328  15.719   7.640 -0.1053  0.0925 -0.1168
71476W        W14570   6.232  15.704   8.528 -0.0451  0.3066 -0.1209
71477W        W14571   3.817  16.231   6.859 -0.1764  0.0374 -0.0948
71478W        W14572   6.962  15.156   8.890 -0.2947 -0.1806  0.0961
71479W        W14573   2.501  19.042   9.887 -0.0066 -0.0761 -0.1212
71480W        W14574   5.592  16.288   8.359 -0.4930  0.0351 -0.1537
71481W        W14575   5.276  14.849   7.743 -0.0859 -0.0887 -0.0935
71482W        W14576   3.838  18.315   6.590  0.1281  0.0368  0.2011
71483W        W14577   4.462  17.723   8.257 -0.0079  0.0104  0.0392
71484W        W14578   5.889  14.095   8.561  0.0120 -0.1946 -0.0079
71485W        W14579   6.380  17.556   8.429  0.1173 -0.1667  0.0498
71486W        W14580   5.848  17.593   7.463 -0.3622  0.0654 -0.0359
71487W        W14581   5.693  14.432   9.536 -0.1345  0.0789  0.1213
71488W        W14582   5.541  18.088   8.088  0.0195  0.2186 -0.0941
71489W        W14583   8.607  12.564   8.804 -0.1572 -0.3269  0.1441
71490W        W14584   4.860  17.260   9.034 -0.1046  0.0707 -0.1360
71491W        W14585   3.911  14.899   7.632 -0.1114 -0.1624 -0.0037
71492W        W14586   2.909  14.489   7.421  0.0455 -0.1866 -0.5796
71493W        W14587   6.566  14.868   7.563 -0.2944 -0.1429  0.0627
71494W        W14588   5.564  18.067   7.536 -0.0359  0.0675 -0.1557
71495W        W14589   4.033  14.622   9.045 -0.1619 -0.0767  0.0914
71496W        W14590   5.670  13.308   8.420 -0.4578 -0.2905 -0.2700
71497W        W14591   5.132  17.373   8.644  0.1217 -0.3295  0.1589
71498W        W14592   6.623  13.948   6.845  0.0170  0.1591  0.2804
71499W        W14593   5.010  16.305   8.503 -0.3929  0.1504  0.1828
71500W        W14594   7.701  17.462   9.447 -0.2770 -0.0878  0.0389
71501W        W14595   4.793  15.618   9.133 -0.0839  0.0866 -0.2238
71502W        W14596   4.965  17.007   8.240  0.3211  0.1543 -0.1411
71503W        W14597   7.132  16.928   9.871  0.0154 -0.3545 -0.0089
71504W        W14598   3.701  15.620   7.957  0.0908  0.1411  0.0715
71505W        W14599   5.158  16.121   8.048 -0.2191 -0.3106 -0.0183
71506W        W14600   6.381  15.935   8.114 -0.1978 -0.0078  0.1584
71507W        W14601   5.049  14.796  12.500  0.1962  0.1076  0.2154
71508W        W14602   4.497  14.680   9.201  0.0378  0.1449 -0.1857
71509W        W14603   6.889  15.513   9.428 -0.0159  0.2209  0.0816
71510W        W14604   6.465  15.489   9.758  0.1305  0.1373 -0.1735
71511W        W14605   7.822  16.190   9.796  0.0191 -0.1222 -0.0918
71512W        W14606   7.131  14.622   9.072 -0.0539 -0.1657 -0.0056
71513W        W14607   7.519  17.458   7.771 -0.1286 -0.1009  0.2558
71514W        W14608   4.071  17.275   8.257 -0.0130  0.2164 -0.0430
71515W        W14609   3.170  17.833   9.931  0.1447 -0.0468 -0.2166
71516W        W14610   5.006  16.457   9.416  0.2516  0.0819 -0.0929
71517W        W14611   6.365  15.978   8.939 -0.0527 -0.2948  0.0334
71518W        W14612   3.985  17.223   9.535  0.0886 -0.0530  0.2031
71519W        W14613   4.093  17.535   9.125 -0.2238 -0.1268  0.0371
71520W        W14614   6.250  18.928  10.189  0.0857  0.0513 -0.0835
71521W        W14615   8.771  13.685   7.393  0.1728  0.0900  0.2531
71522W        W14616   6.622  18.142   7.014  0.1966 -0.1591  0.1153
71523W        W14617   5.525  14.823   9.107  0.1404 -0.1304 -0.1336
71524W        W14618   6.170  16.560   7.579 -0.0645 -0.0111 -0.0586
71525W        W14619   2.980  12.749  10.078  0.1472 -0.1658 -0.3385
71526W        W14620   6.503  16.188   7.713  0.1852  0.0011 -0.0710
71527W        W14621   4.982  14.704   7.334 -0.1764 -0.0156 -0.2201
71528W        W14622   5.260  14.670   6.509 -0.2705 -0.0525 -0.2686
71529W        W14623   5.513  16.396   9.271  0.0208 -0.0614  0.2629
71530W        W14624   5.796  15.845   8.175  0.0239  0.0713 -0.0226
71531W        W14625   4.538  17.320   7.973 -0.0296  0.0390 -0.1161
71532W        W14626   6.835  15.856   7.862  0.0140  0.1992 -0.3425
71533W        W14627   6.026  18.076   9.554  0.0530  0.0142  0.2499
71534W        W14628   5.314  15.664   7.997  0.3738 -0.0800 -0.0244
71535W        W14629   3.724  16.448   7.357 -0.0371  0.0510  0.0406
71536W        W14630   4.069  16.755   8.619 -0.0968  0.0431 -0.0155
71537W        W14631   6.080  16.314   7.972  0.1783  0.4276 -0.0589
71538W        W14632   6.118  14.601   9.253 -0.1945  0.0640 -0.3976
71539W        W14633   7.160  16.368  10.020  0.0985  0.0611  0.2588
71540W        W14634   5.895  16.045   7.504 -0.0527 -0.0550 -0.1928
71541W        W14635   4.726  14.374   9.641 -0.0905  0.1601  0.0533
71542W        W14636   7.678  14.326   9.100  0.1531  0.2807  0.0510
71543W        W14637   6.345  16.174   7.183 -0.0859 -0.0592 -0.1739
71544W        W14638   5.250  15.266   9.883 -0.1602  0.3248 -0.0345
71545W        W14639   4.457  14.771   7.340 -0.1262  0.3077 -0.1446
71546W        W14640   4.991  17.877   7.349 -0.0429 -0.0619  0.0035
71547W        W14641   5.769  15.634   7.724  0.0001 -0.1797 -0.1925
71548W        W14642   6.605  14.672   8.014  0.0093  0.1903 -0.0899
71549W        W14643   4.894  14.208   8.936  0.2995  0.2160  0.5627
71550W        W14644   2.963  15.943   7.472  0.4333  0.1546 -0.4967
71551W        W14645   4.918  16.337   7.648 -0.1590  0.2019  0.0130
71552W        W14646   6.434  16.873   9.383 -0.0089 -0.0870  0.2792
71553W        W14647   6.002  14.413   8.099 -0.1420 -0.0653 -0.1151
71554W        W14648   3.345  18.365   6.801 -0.1484  0.3437  0.0211
71555W        W14649   5.913  14.059   9.193 -0.1531 -0.3105 -0.1353
71556W        W14650   5.041  17.905   8.484 -0.2651  0.1067 -0.1345
71557W        W14651   6.420  18.122   7.492  0.2172  0.1219 -0.0464
71558W        W14652   2.765  15.797   9.468 -0.4958 -0.0130 -0.0847
71559W        W14653   6.503  16.079   9.437 -0.0872 -0.0172 -0.0526
71560W        W14654   5.838  15.923   8.739  0.0603 -0.1027 -0.1152
71561W        W14655   3.713  15.930   9.177  0.0380 -0.0228 -0.4031
71562W        W14656   7.107  16.479   8.954 -0.0587  0.2314 -0.0021
71563W        W14657   4.707  18.786   9.577  0.0095 -0.0074  0.2296
71564W        W14658   6.738  19.644   9.853  0.0758  0.3859  0.0912
71565W        W14659   5.527  13.770   8.192  0.2869 -0.0457 -0.0659
71566W        W14660   5.629  18.474   7.150  0.4112  0.1562  0.1330
71567W        W14661   4.167  17.595   8.626  0.0525  0.1157 -0.0472
71568W        W14662   3.626  17.332   9.193 -0.2556  0.1191  0.0439
71569W        W14663   6.303  18.589   7.801  0.1447 -0.0071  0.2149
71570W        W14664   4.744  16.599   8.091 -0.1903  0.1168 -0.1054
71571W        W14665   6.621  19.006   8.714 -0.2515 -0.2200 -0.1366
71572W        W14666   5.186  14.037   6.207  0.1679  0.1669  0.1864
71573W        W14667   4.491  17.994   9.109 -0.0241 -0.0729  0.0195
71574W        W14668   3.671  17.272   6.270 -0.2277  0.1673  0.1919
71575W        W14669   6.137  18.506   7.329  0.1073 -0.3163  0.0020
71576W        W14670   4.594  17.786   7.749 -0.2181 -0.3175  0.0841
71577W        W14671   7.869  13.313   6.155 -0.0065 -0.2259  0.1306
71578W        W14672   5.226  15.819   9.922 -0.0656 -0.1911 -0.0539
71579W        W14673   7.861  14.596   7.191 -0.1563 -0.1739  0.1765
71580W        W14674   5.946  16.219   9.725 -0.1642  0.0996  0.0412
71581W        W14675   5.298  15.936   7.501 -0.1941 -0.2134  0.1397
71582W        W14676   8.016  18.329   8.184 -0.0828 -0.4043 -0.2839
71583W        W14677   4.304  17.169   8.803  0.0421 -0.1952  0.0022
71584W        W14678   5.545  15.265   8.269 -0.3460 -0.1033  0.1174
71585W        W14679   7.068  14.830   8.094 -0.1497 -0.0394 -0.0939
71586W        W14680   4.665  17.637   8.771 -0.1337  0.0605 -0.0221
71587W        W14681   7.132  15.438   8.520  0.1285  0.2708 -0.0876
71588W        W14682   4.091  17.763   7.054  0.0849 -0.2541  0.0390
71589W        W14683   4.928  15.915   8.766  0.3432  0.1302 -0.0539
71590W        W14684   5.809  18.136   8.571 -0.3241 -0.0002  0.2019
71591W        W14685   3.080  14.502   7.881  0.2803 -0.0074  0.2401
71592W        W14686   8.846  15.394   8.653  0.1848  0.4453  0.4328
71593W        W14687   4.173  13.867   9.559  0.4078 -0.2388  0.1449
71594W        W14688   4.070  15.297   8.249 -0.0478 -0.2437  0.0068
71595W        W14689   7.623  15.594   8.204  0.0701 -0.0663 -0.5518
71596W        W14690   5.104  17.904   9.233 -0.2367 -0.0984 -0.2375
71597W        W14691   4.145  15.013   9.312 -0.1395 -0.1747 -0.0970
71598W        W14692   4.945  15.592   7.310  0.0322 -0.2484  0.0330
71599W        W14693   6.118  15.486   8.007 -0.2687 -0.1691  0.0025
71600W        W14694   2.868  15.673   8.984  0.0502  0.0610 -0.1827
71601W        W14695   7.845  14.503   6.703 -0.4944  0.1393  0.1721
71602W        W14696   4.830  15.761   8.297  0.0410  0.0130 -0.0945
71603W        W14697   5.376  16.588   9.717 -0.2687  0.0744 -0.2105
71604W        W14698   2.880  15.357   8.579 -0.3030 -0.0127  0.3127
71605W        W14699   7.559  16.639   6.834 -0.2382 -0.1130 -0.0776
71606W        W14700   7.149  14.822   8.570 -0.0998  0.3007  0.0002
71607W        W14701   5.482  18.194   6.180  0.0751 -0.0763 -0.2020
71608W        W14702   6.623  16.737   7.632  0.0062  0.0123 -0.0581
71609W        W14703   6.745  19.499   8.798  0.1608  0.1987  0.4027
71610W        W14704   4.129  15.756   9.009  0.2442  0.0406 -0.3832
71611W        W14705   6.355  17.752   9.817  0.0945 -0.0473  0.1070
71612W        W14706   7.892  18.447   8.793  0.0129  0.2850 -0.1712
71613W        W14707   5.093  15.235   8.036 -0.2617 -0.4249 -0.2320
71614W        W14708   5.393  15.626   8.965 -0.0386 -0.1033  0.1587
71615W        W14709   4.507  18.029   7.282  0.0558  0.0869  0.1274
71616W        W14710   7.689  15.800   9.439 -0.0676  0.2323  0.3048
71617W        W14711   5.244  18.406   7.726 -0.1862 -0.4260 -0.0719
71618W        W14712   4.624  20.299  10.057 -0.0624 -0.2249  0.0237
71619W        W14713   4.074  15.985   7.858 -0.1355 -0.2317  0.0262
71620W        W14714   5.884  16.799   9.435 -0.1976 -0.0652 -0.0870
71621W        W14715   5.911  17.271   7.926 -0.0122 -0.1286  0.0944
71622W        W14716   6.809  17.805   9.455 -0.2179  0.0012 -0.3541
71623W        W14717   4.575  16.053   9.215 -0.0032  0.0930 -0.0338
71624W        W14718   6.175  17.225   9.641  0.0629 -0.0974  0.0512
71625W        W14719   5.955  13.711   7.975  0.2824 -0.0089 -0.3132
71626W        W14720   8.364  14.270   8.089 -0.0707 -0.2367 -0.0662
71627W        W14721   6.452  13.734   8.294  0.1806 -0.3187  0.1714
71628W        W14722   5.646  19.080   8.426 -0.3281 -0.0562  0.2779
71629W        W14723   3.312  16.380   8.243  0.1365 -0.0105 -0.1145
71630W        W14724   4.521  16.195   5.756  0.1696 -0.6826 -0.2092
71631W        W14725   5.420  17.201   8.123  0.1237  0.1549  0.1044
71632W        W14726   4.179  15.855   8.315  0.1374 -0.1022 -0.1763
71633W        W14727   3.967  15.404   7.597 -0.1848 -0.3245 -0.0971
71634W        W14728   7.265  17.447   8.232 -0.0668  0.2420  0.2359
71635W        W14729   4.975  14.664   9.151 -0.0419 -0.2099  0.0200
71636W        W14730   3.566  14.338   7.764  0.1483 -0.0090  0.0755
71637W        W14731   6.601  18.706   8.179  0.1255  0.1677 -0.1998
71638W        W14732   5.467  17.660   7.867  0.1934 -0.0264  0.0148
71639W        W14733   4.976  14.790   8.228 -0.6067  0.1064 -0.1703
71640W        W14734   5.009  17.141   7.136 -0.2311  0.0801  0.1663
71641W        W14735   2.847  15.769   6.544  0.1890  0.3570 -0.0133
71642W        W14736   6.203  15.233   8.432  0.1404 -0.0782  0.3075
71643W        W14737   5.906  17.644   8.669  0.0553 -0.2200  0.1413
71644W        W14738   6.581  19.135   7.162 -0.3108  0.2049 -0.1276
71645W        W14739   3.143  15.842   9.819 -0.0589 -0.3700  0.1311
71646W        W14740   6.790  17.669   7.491 -0.1583  0.2145 -0.0004
71647W        W14741   7.138  17.321   6.578  0.0840 -0.0711  0.0732
71648W        W14742   7.515  15.348   7.759  0.0291  0.0465 -0.0756
71649W        W14743   5.578  16.303   7.816  0.1732 -0.0335 -0.1897
71650W        W14744   8.924  15.860   9.595 -0.3135  0.0809 -0.0515
71651W        W14745   5.807  13.600   8.978  0.0843 -0.1455 -0.0023
71652W        W14746   6.125  14.677   7.196 -0.0586 -0.1141  0.1485
71653W        W14747   5.963  18.063   7.224  0.1862 -0.1788 -0.0433
71654W        W14748   7.219  15.592   9.058  0.3370 -0.1911  0.3101
71655W        W14749   5.851  15.448   8.677  0.1241 -0.0600 -0.1396
71656W        W14750   6.089  16.814   8.975 -0.1070 -0.0110  0.1250
71657W        W14751   5.117  15.973   9.259  0.0151 -0.0627  0.0205
71658W        W14752   6.756  16.393   7.296  0.2024  0.0123 -0.1533
71659W        W14753   6.920  17.892   9.969  0.1588  0.0130  0.0499
71660W        W14754   8.118  17.466   9.988 -0.0554 -0.0733 -0.2262
71661W        W14755   5.800  16.746   7.884  0.1574 -0.2250 -0.4640
71662W        W14756   6.089  14.176   9.619 -0.0763  0.0237  0.0508
71663W        W14757   5.327  15.857   8.419  0.2677 -0.0923 -0.0767
71664W        W14758   5.384  17.022   9.122 -0.2622  0.1910  0.0749
71665W        W14759   6.743  15.631   8.808  0.0261  0.3672 -0.3848
71666W        W14760   4.186  16.884  10.083  0.1346 -0.0478  0.3393
71667W        W14761   6.488  13.421   6.687 -0.0469 -0.1468 -0.0493
71668W        W14762   4.551  18.287   9.571 -0.2027  0.1897  0.0241
71669W        W14763   5.980  16.314   9.016  0.2464  0.2872  0.3485
71670W        W14764   5.284  20.770   1.234 -0.1193 -0.1386 -0.2643
71671W        W14765   4.450  18.513   1.444 -0.1839  0.2409 -0.1331
71672W        W14766   8.250  19.378  31.730  0.1507  0.1890  0.0434
71673W        W14767   6.883  20.210   0.701 -0.1261 -0.1669 -0.0532
71674W        W14768   5.530  18.755   0.413 -0.0890 -0.2331 -0.0942
71675W        W14769   6.298  21.485   0.467 -0.0768 -0.3664  0.2590
71676W        W14770   5.475  17.231   2.553 -0.0730 -0.2634  0.1769
71677W        W14771   6.486  21.289   1.599 -0.0625  0.0374  0.0150
71678W        W14772   6.533  20.057   3.089 -0.2123  0.4051 -0.0998
71679W        W14773   5.245  21.829   0.534 -0.0434  0.0566  0.1284
71680W        W14774   4.586  18.722   3.521  0.0185 -0.0930  0.1602
71681W        W14775   6.017  19.667   2.264  0.0296  0.0223 -0.1717
71682W        W14776   5.992  19.267  31.648 -0.2075  0.4672  0.1799
71683W        W14777   3.547  16.987   1.861 -0.0440  0.0011 -0.0975
71684W        W14778   6.164  20.284   3.351 -0.1013 -0.1822  0.1501
71685W        W14779   5.892  20.314   0.601 -0.0036 -0.2683  0.0585
71686W        W14780   5.393  19.124   1.780 -0.2920 -0.3424 -0.1810
71687W        W14781   5.629  17.663   1.204 -0.1207 -0.1049 -0.2852
71688W        W14782   5.576  21.397   1.932  0.3915 -0.3132  0.0627
71689W        W14783   4.445  19.427   2.926 -0.1864  0.0990  0.2248
71690W        W14784   7.041  17.327   2.450  0.0431 -0.1012 -0.1369
71691W        W14785   4.209  20.845  30.836 -0.2617  0.2064  0.2160
71692W        W14786   4.501  20.449  31.249 -0.0164 -0.1518  0.1626
71693W        W14787   3.649  18.693   2.494  0.1071 -0.2239  0.0062
71694W        W14788   5.440  18.600   2.079 -0.0546  0.0462 -0.0752
71695W        W14789   6.251  19.482   2.835  0.1584  0.0774  0.0920
71696W        W14790   6.723  20.056   1.160 -0.0759  0.1394  0.3583
71697W        W14791   6.534  20.747   1.669  0.2531  0.3091 -0.0804
71698W        W14792   5.468  20.460   2.866 -0.1079 -0.0962  0.0154
71699W        W14793   7.070  18.864   3.802 -0.2090  0.1762 -0.3923
71700W        W14794   4.142  20.372   1.867  0.4696  0.0735  0.3256
71701W        W14795   3.671  22.272   1.130 -0.0997 -0.0519  0.0462
71702W        W14796   5.200  20.974  31.849  0.0697 -0.0386  0.0142
71703W        W14797   5.980  20.479   0.110  0.0907  0.0803 -0.0304
71704W        W14798   6.705  21.172   2.991 -0.1848  0.0242  0.0432
71705W        W14799   5.370  21.313   3.466 -0.1211 -0.0769  0.1807
71706W        W14800   3.433  20.970   0.108 -0.0714  0.1561  0.0964
71707W        W14801   5.002  21.779   3.508 -0.0045  0.2149 -0.1275
71708W        W14802   5.663  21.616   3.677  0.0967 -0.1756 -0.0092
71709W        W14803   5.758  21.046   2.650  0.2090  0.0023 -0.0274
71710W        W14804   4.611  19.932   1.598  0.0234  0.0760 -0.0198
71711W        W14805   4.216  20.655   0.274  0.0757 -0.1585  0.0421
71712W        W14806   5.109  20.558   1.668 -0.0948 -0.0289  0.2548
71713W        W14807   4.900  20.677   2.976 -0.2316 -0.2233 -0.0734
71714W        W14808   3.435  21.316   1.056 -0.0714 -0.1643 -0.0451
71715W        W14809   8.361  18.875   3.481 -0.1033 -0.0308 -0.0329
71716W        W14810   5.571  21.928   0.199 -0.1276 -0.1319  0.2635
71717W        W14811   6.461  19.323  31.430  0.1217 -0.3172 -0.1816
71718W        W14812   3.961  18.474   1.110 -0.0604  0.0089  0.1534
71719W        W14813   7.517  18.850  31.609 -0.1943 -0.2756 -0.0187
71720W        W14814   5.056  18.907   2.261 -0.1105  0.3228 -0.0375
71721W        W14815   5.780  22.060   1.395 -0.0496 -0.2803  0.0176
71722W        W14816   4.621  17.952   2.186  0.0193  0.0265 -0.1115
71723W        W14817   6.572  21.614   3.043  0.0685  0.1399 -0.2901
71724W        W14818   5.863  19.949  31.769  0.0608 -0.0012  0.0715
71725W        W14819   5.608  19.059   2.307  0.1362 -0.1437  0.1168
71726W        W14820   4.513  21.669   1.885 -0.2007 -0.1254 -0.1175
71727W        W14821   4.264  20.096   2.368 -0.0133 -0.2507 -0.1979
71728W        W14822   5.540  22.830   1.300 -0.0714 -0.0722  0.0282
71729W        W14823   7.046  21.328   1.427 -0.0956  0.0039 -0.1924
71730W        W14824   5.711  21.726  31.688 -0.2671 -0.4033  0.3675
71731W        W14825   5.371  19.826   1.947 -0.0921 -0.0134  0.1423
71732W        W14826   5.058  20.143   2.994  0.0632 -0.0278  0.0827
71733W        W14827   4.852  18.891   2.734  0.4006  0.1657 -0.1540
71734W        W14828   5.496  17.906   0.302 -0.0452  0.0981 -0.0017
71735W        W14829   6.618  20.719   3.224 -0.0855  0.1127  0.2422
71736W        W14830   3.551  20.243   3.460  0.1406 -0.1769 -0.0568
71737W        W14831   7.670  19.009   0.786  0.0958  0.3342 -0.0963
71738W        W14832   5.656  20.110   2.350 -0.0249  0.0802 -0.1064
71739W        W14833   6.333  20.692   2.101  0.0182 -0.2500 -0.2881
71740W        W14834   6.656  21.334   0.057 -0.2948  0.1317  0.0980
71741W        W14835   6.729  18.463   1.881  0.0861  0.0614 -0.1078
71742W        W14836   6.779  17.248   3.702  0.3241 -0.0563 -0.0928
71743W        W14837   5.143  18.589   0.116 -0.1352 -0.2571 -0.1067
71744W        W14838   6.499  20.299  31.598 -0.0061 -0.1178  0.0329
71745W        W14839   6.154  21.764   4.379 -0.0707  0.0388  0.1451
71746W        W14840   6.741  19.906   0.374  0.1766 -0.1745 -0.1774
71747W        W14841   2.827  22.016   1.280 -0.2453 -0.1735  0.0512
71748W        W14842   4.265  19.594   3.378 -0.0486  0.2262 -0.0263
71749W        W14843   6.182  20.970   4.372  0.0238  0.1837  0.2586
71750W        W14844   4.676  21.775   0.623 -0.0037 -0.0749  0.2644
71751W        W14845   3.857  20.750  31.950 -0.1499 -0.1032  0.1460
71752W        W14846   4.893  17.250   2.194  0.3057  0.0930  0.0759
71753W        W14847   4.673  20.257   2.010 -0.3075 -0.1930 -0.1620
71754W        W14848   7.122  17.850   1.939  0.3347 -0.0750 -0.1071
71755W        W14849   3.996  18.721   1.626  0.1649  0.0589  0.0994
71756W        W14850   7.463  19.234   1.932 -0.1383  0.3770 -0.2462
71757W        W14851   4.154  20.072   1.413 -0.0275  0.2210  0.1280
71758W        W14852   6.200  21.650   1.359  0.2675  0.0173 -0.0814
71759W        W14853   8.539  19.474   0.106  0.1831  0.1253 -0.3580
71760W        W14854   7.161  21.842  31.951 -0.2063  0.1109 -0.2396
71761W        W14855   3.964  18.921   2.159  0.1755 -0.1346  0.1018
71762W        W14856   4.393  19.292  31.851 -0.0871  0.2663 -0.2895
71763W        W14857   4.080  18.582   3.194  0.0665 -0.0237 -0.3871
71764W        W14858   6.057  18.461   0.792  0.4221  0.0504  0.2630
71765W        W14859   6.524  19.140   3.064  0.1483  0.2572 -0.1823
71766W        W14860   5.013  16.669   0.794  0.0531  0.1213 -0.1222
71767W        W14861   6.572  19.072   0.679  0.0668  0.1836 -0.3977
71768W        W14862   6.349  19.127   1.354  0.2249 -0.1433 -0.0064
71769W        W14863   3.207  19.598  31.668  0.2969  0.0451 -0.0460
71770W        W14864   7.889  19.314   3.679 -0.2113  0.3481  0.2250
71771W        W14865   5.324  20.974   2.809 -0.1957  0.0394 -0.2361
71772W        W14866   7.711  22.685   3.419  0.2358  0.0280 -0.0883
71773W        W14867   6.987  22.237   0.709  0.2654 -0.1288 -0.1532
71774W        W14868   4.151  19.091   2.571 -0.0165 -0.0185 -0.1519
71775W        W14869   5.096  19.086   0.303 -0.0833 -0.0413 -0.0695
71776W        W14870   3.684  20.650   0.589  0.2211 -0.2101  0.0973
71777W        W14871   5.510  20.209   1.635 -0.0166 -0.1073 -0.0529
71778W        W14872   6.093  19.612   1.233 -0.0131  0.3323 -0.1908
71779W        W14873   7.106  21.280   2.132 -0.1065 -0.1994 -0.0965
71780W        W14874   6.032  22.019   0.025 -0.1629 -0.1060  0.0241
71781W        W14875   5.146  19.960   2.517 -0.4463  0.0188 -0.3086
71782W        W14876   6.854  18.564   1.242  0.4772 -0.1104  0.0407
71783W        W14877   6.995  19.218   2.144  0.1098 -0.0831  0.1924
71784W        W14878   6.227  19.414   1.836  0.2149  0.0340 -0.1326
71785W        W14879   4.408  17.532  30.856 -0.0250  0.0096 -0.1965
71786W        W14880   6.101  21.497   1.816 -0.0059 -0.1370  0.0798
71787W        W14881   5.084  20.918   0.379 -0.1182 -0.4038  0.0725
71788W        W14882   3.634  20.921   2.395  0.3288  0.1473  0.0121
71789W        W14883   4.247  22.506   1.541  0.0916 -0.1346  0.1985
71790W        W14884   6.372  18.845   2.720 -0.2316  0.3551 -0.0010
71791W        W14885   3.618  20.885   3.584 -0.1254  0.2937 -0.0308
71792W        W14886   6.672  19.644   3.354 -0.1797  0.1202 -0.3102
71793W        W14887   2.100  17.673  31.804  0.1057 -0.1257 -0.3080
71794W        W14888   5.171  20.262   4.390  0.3192 -0.1410 -0.1703
71795W        W14889   6.802  19.024   1.185  0.1552 -0.0223  0.1017
71796W        W14890   8.714  18.532  31.544  0.0537 -0.1182  0.1214
71797W        W14891   5.464  19.375   4.244  0.0336  0.1849  0.3319
71798W        W14892   6.652  20.906   1.210  0.1027 -0.2248 -0.1930
71799W        W14893   6.959  19.019   0.210 -0.0089 -0.0999 -0.3319
71800W        W14894   5.731  18.453  30.508  0.4036  0.1909 -0.4045
71801W        W14895   3.800  20.227   3.945  0.2410  0.2346 -0.2335
71802W        W14896   6.680  21.841   0.204 -0.2758 -0.0546  0.4385
71803W        W14897   5.365  20.084   0.436  0.4006  0.1598  0.0172
71804W        W14898   6.818  18.314  31.678  0.1698 -0.0022  0.0849
71805W        W14899   7.404  21.059   0.535 -0.0370  0.0519 -0.0328
71806W        W14900   4.453  20.787   1.769 -0.0621  0.3766 -0.3034
71807W        W14901   6.809  20.290   4.100 -0.0133  0.1931 -0.0402
71808W        W14902   6.566  21.171   2.108  0.0593 -0.1111 -0.1169
71809W        W14903   5.011  18.170   3.367 -0.0347  0.3527  0.5139
71810W        W14904   6.028  17.977  31.751  0.0172  0.1443 -0.3175
71811W        W14905   5.865  19.955   1.880 -0.0769 -0.4112  0.2039
71812W        W14906   3.769  22.616   0.601  0.3088 -0.2816  0.3276
71813W        W14907   5.986  19.107   3.290 -0.2754 -0.1326  0.1178
71814W        W14908   6.592  17.623   3.202  0.0530 -0.4531  0.0186
71815W        W14909   6.576  17.628   2.514  0.1657 -0.1001  0.0607
71816W        W14910   7.245  18.749   4.331  0.0302  0.1458 -0.2113
71817W        W14911   7.719  19.059  31.091  0.0660 -0.2193  0.0368
71818W        W14912   5.991  20.325   3.904 -0.1544 -0.1093  0.1936
71819W        W14913   5.076  20.384   0.139 -0.1230 -0.0712  0.1034
71820W        W14914   5.077  18.934   3.626  0.1980 -0.0789  0.2884
71821W        W14915   4.820  19.309   2.519 -0.2168  0.0059  0.1208
71822W        W14916   3.011  22.299   1.840 -0.2859 -0.0723 -0.1824
71823W        W14917   7.090  20.844   4.012 -0.1738 -0.0579  0.5743
71824W        W14918   6.573  19.173  31.883 -0.0732  0.0778 -0.1054
71825W        W14919   2.822  18.170   3.311 -0.0777  0.1565 -0.0664
71826W        W14920   5.301  18.014   0.911 -0.2945  0.2320 -0.0430
71827W        W14921   5.779  21.329   1.334  0.1710  0.4083 -0.2146
71828W        W14922   4.565  21.062   0.520 -0.0069  0.0177  0.2266
71829W        W14923   5.609  18.148   1.265  0.1619 -0.3482 -0.2479
71830W        W14924   5.466  20.857   3.827  0.0271 -0.0330  0.0667
71831W        W14925   5.110  21.032   1.917  0.1160  0.2574 -0.3799
71832W        W14926   5.904  19.022   2.750  0.1498  0.0961 -0.4423
71833W        W14927   4.639  20.865  31.964  0.1831 -0.1445 -0.1460
71834W        W14928   6.877  18.711   2.800 -0.1020 -0.0753 -0.1763
71835W        W14929   2.241  22.202   2.729 -0.1573  0.2690 -0.0755
71836W        W14930   4.643  20.332  31.946  0.3818 -0.2015  0.0866
71837W        W14931   3.903  19.024  31.630 -0.1188  0.2909 -0.1269
71838W        W14932   7.401  19.312   1.139 -0.1615  0.2484  0.4966
71839W        W14933   6.187  21.037   1.259  0.0521 -0.1927 -0.3516
71840W        W14934   5.588  19.572   2.539 -0.0578 -0.1611 -0.3330
71841W        W14935   4.821  18.288   1.849 -0.1327  0.4894 -0.1923
71842W        W14936   4.041  20.842   2.151 -0.1044  0.0378 -0.1996
71843W        W14937   6.138  20.672   3.072 -0.0225 -0.3912  0.1943
71844W        W14938   6.653  19.551   1.256 -0.1392  0.1634 -0.2040
71845W        W14939   6.807  20.014   3.679  0.2140 -0.2672 -0.0025
71846W        W14940   4.463  20.436   3.760 -0.0311  0.0641  0.0008
71847W        W14941   4.685  19.114   0.778 -0.0890  0.0672  0.2258
71848W        W14942   8.248  19.736   1.797 -0.0346  0.0880  0.3257
71849W        W14943   6.441  20.397   2.698 -0.0229 -0.0333  0.2059
71850W        W14944   3.576  19.534   0.647 -0.0213  0.2020 -0.1631
71851W        W14945   6.039  20.062   2.773 -0.0288  0.4485  0.1872
71852W        W14946   6.480  19.463   0.249 -0.1450 -0.1996 -0.0628
71853W        W14947   5.122  20.467   0.688 -0.1465  0.1511  0.2307
71854W        W14948   5.071  18.842   3.164  0.1926  0.0473 -0.2876
71855W        W14949   7.097  19.415   3.192  0.1389  0.1797  0.0820
71856W        W14950   6.147  19.095   2.302  0.0433  0.2140  0.2088
71857W        W14951   5.140  18.313   0.561 -0.1220  0.0377 -0.2077
71858W        W14952   5.513  19.805   1.232  0.1146 -0.0352 -0.0247
71859W        W14953   7.294  20.376   2.421  0.1874 -0.1820  0.5067
71860W        W14954   4.667  19.859   3.290 -0.0579  0.0312  0.2482
71861W        W14955   4.684  20.921   4.644  0.2591  0.1860  0.1778
71862W        W14956   5.375  18.344   2.977 -0.1913 -0.3765 -0.0377
71863W        W14957   8.664  21.434   0.455 -0.1153 -0.1116 -0.0802
71864W        W14958   5.661  19.481   3.535  0.0751 -0.2523  0.2514
71865W        W14959   6.027  19.441   0.515  0.0406  0.4538  0.1778
71866W        W14960   3.895  20.892   2.844  0.2181 -0.3653 -0.1326
71867W        W14961   4.329  20.231   0.649  0.0240 -0.2345  0.0939
71868W        W14962   5.193  19.413   3.761  0.0762  0.1636 -0.0361
71869W        W14963   4.297  22.023   1.560 -0.1248  0.0190  0.1215
71870W        W14964   4.698  20.522   0.987 -0.0475 -0.0598 -0.0093
71871W        W14965   4.302  21.546   1.379  0.2529  0.3958 -0.1508
71872W        W14966   7.440  17.573   0.035 -0.2754 -0.2053  0.2570
71873W        W14967   7.014  21.172   0.918  0.1364  0.1608 -0.1406
71874W        W14968   5.807  18.386   1.690 -0.0505 -0.0592 -0.0605
71875W        W14969   8.826  19.144   3.484 -0.2233 -0.4438 -0.0642
71876W        W14970   6.437  19.661   0.796  0.1358  0.0517  0.0046
71877W        W14971   5.588  18.089   3.621 -0.1716  0.1190 -0.1205
71878W        W14972   5.485  17.801   2.108  0.0088 -0.1100 -0.0868
71879W        W14973   6.156  20.090   1.012  0.0735  0.0764 -0.0472
71880W        W14974   4.286  19.558   2.470 -0.4403  0.2345 -0.0902
71881W        W14975   6.209  21.539   3.859 -0.2539  0.1330 -0.1246
71882W        W14976   3.756  20.452   2.231  0.1442 -0.0401 -0.2165
71883W        W14977   6.003  18.725   1.226 -0.2210  0.2706 -0.0086
71884W        W14978   5.329  18.233  31.818 -0.0772 -0.0611 -0.0021
71885W        W14979   4.462  20.642   2.498  0.2024 -0.1859 -0.2978
71886W        W14980   7.917  20.600   1.565 -0.0315  0.0156  0.0750
71887W        W14981   6.414  18.573   0.483 -0.0610  0.0204 -0.2574
71888W        W14982   7.356  18.769   2.296  0.0099 -0.0743  0.0835
71889W        W14983   6.324  19.944   3.679 -0.0439  0.0259  0.3777
71890W        W14984   6.002  18.659   0.258  0.0550  0.4359  0.2385
71891W        W14985   7.203  20.940  31.520 -0.0222  0.1529  0.1420
71892W        W14986   4.698  20.585   0.459 -0.0815 -0.3589 -0.1635
71893W        W14987   3.242  19.014   2.360  0.1017  0.0568  0.0911
71894W        W14988   6.018  21.013   1.781 -0.0769 -0.1036 -0.0026
71895W        W14989   5.853  19.191   1.492  0.2018  0.0426  0.0336
71896W        W14990   7.217  19.090   2.806  0.1429  0.0123 -0.2834
71897W        W14991   6.726  19.478   1.746 -0.1949 -0.0772 -0.1058
71898W        W14992   4.507  18.933   2.300 -0.0833  0.2155 -0.1360
71899W        W14993   3.852  19.764   2.502  0.1828 -0.2228  0.0449
71900W        W14994   5.936  20.622   2.557 -0.1230  0.1607 -0.1186
71901W        W14995   7.930  18.887  31.900 -0.0939  0.1237 -0.0145
71902W        W14996   7.809  18.856   3.528 -0.1406 -0.3455 -0.0216
71903W        W14997   7.030  19.521   0.208  0.4219 -0.0145 -0.1702
71904W        W14998   7.314  19.665  31.838  0.2428 -0.1408  0.0967
71905W        W14999   5.752  19.365   0.947  0.2563  0.1177 -0.1034
71906W        W15000   6.094  18.003   2.595 -0.4381  0.2975 -0.1977
71907W        W15001   4.401  18.325   0.744  0.3137  0.0157  0.3180
71908W        W15002   6.221  18.139   3.935 -0.0798  0.1899  0.0466
71909W        W15003   5.719  20.851  31.847  0.1781  0.0206 -0.0965
71910W        W15004   5.625  19.806   0.750  0.2256  0.1352  0.1048
71911W        W15005   6.660  18.963   1.760 -0.2693 -0.0416 -0.2183
71912W        W15006   4.362  18.444   1.935 -0.0087 -0.0205 -0.1965
71913W        W15007   4.252  21.116   2.531 -0.0064 -0.1056  0.0515
71914W        W15008   5.328  18.689  31.595  0.1662 -0.3759 -0.1481
71915W        W15009   5.516  20.819  30.863 -0.1045 -0.0307 -0.3539
71916W        W15010   5.042  21.027   4.156  0.1598 -0.3684  0.0935
71917W        W15011   7.823  20.322   3.888 -0.1321 -0.0025 -0.1313
71918W        W15012   5.130  19.868   0.928 -0.1759  0.2304 -0.0658
71919W        W15013   8.413  19.486   2.748 -0.0891 -0.0925  0.1422
71920W        W15014   4.107  20.607   1.398 -0.2886 -0.1522 -0.1048
71921W        W15015   6.640  18.794   2.255 -0.1556  0.0629 -0.4394
71922W        W15016   3.321  21.534   1.842 -0.2749 -0.1908  0.0183
71923W        W15017   4.785  21.954   3.118 -0.0729  0.0487 -0.1132
71924W        W15018   3.666  21.508   0.640  0.1263  0.2348 -0.2196
71925W        W15019   5.686  18.475   3.865  0.0656 -0.1726 -0.0624
71926W        W15020   6.818  20.125   1.673  0.2759  0.1581 -0.1961
71927W        W15021   5.561  20.398   1.014 -0.2688  0.0602  0.0739
71928W        W15022   9.087  20.074   2.000  0.1007  0.0065  0.0327
71929W        W15023   5.642  19.960   3.620  0.0157 -0.1832  0.0472
71930W        W15024   4.451  19.387   2.046  0.0782 -0.2690 -0.0555
71931W        W15025   6.808  20.669   4.428  0.1728  0.2223  0.1492
71932W        W15026   6.910  20.521   1.375 -0.3732 -0.1253 -0.3380
71933W        W15027   4.851  21.420   1.247  0.0556 -0.3245  0.1794
71934W        W15028   4.260  19.124   1.693  0.1686 -0.2275 -0.0302
71935W        W15029   4.855  19.388   4.169  0.1423  0.1146 -0.0161
71936W        W15030   8.032  18.944  30.040 -0.1954 -0.0389  0.3821
71937W        W15031   3.129  17.304   1.746 -0.0655  0.1476  0.3313
71938W        W15032   4.812  20.804  31.457  0.3305 -0.0833  0.1922
71939W        W15033   3.469  21.749   3.108 -0.0311  0.0538 -0.2976
71940W        W15034   3.722  19.003   2.935 -0.1376 -0.0251 -0.2718
71941W        W15035   3.524  22.876   0.271 -0.3822 -0.1035 -0.0850
71942W        W15036   8.241  21.405   0.138 -0.1206  0.0712 -0.0939
71943W        W15037   6.364  20.243   0.535  0.2083  0.0466 -0.2063
71944W        W15038   5.795  21.034   3.168  0.1503 -0.0797  0.0998
71945W        W15039   5.822  18.585  31.290  0.1375 -0.0173  0.1877
71946W        W15040   3.726  21.301   2.099 -0.0488 -0.0696 -0.0388
71947W        W15041   2.753  20.879   0.606  0.2078  0.0633  0.0401
71948W        W15042   6.038  20.668   0.939  0.0165 -0.1004 -0.1093
71949W        W15043   3.224  21.241   2.271  0.0753  0.0516 -0.1187
71950W        W15044   7.355  20.775   4.409 -0.0001 -0.6216 -0.0968
71951W        W15045   7.706  18.097  30.431 -0.0509  0.1058 -0.0892
71952W        W15046   6.152  20.421   1.733 -0.2141  0.0617 -0.1333
71953W        W15047   7.461  18.553   0.863  0.0396 -0.0467  0.1255
71954W        W15048   5.270  21.288   2.390  0.1245  0.0256  0.1415
71955W        W15049   4.866  20.702   2.179 -0.1799  0.0742 -0.0690
71956W        W15050   5.123  19.628   0.404 -0.1299 -0.0482 -0.0535
71957W        W15051   4.640  20.912   3.539 -0.2040 -0.0885 -0.0057
71958W        W15052   8.129  17.062   3.960 -0.2104  0.1535  0.0868
71959W        W15053   3.161  21.027   3.598 -0.1290 -0.2112  0.0491
71960W        W15054   7.207  20.829   0.108  0.1137  0.1825 -0.0932
71961W        W15055   4.610  20.412   1.488 -0.0159 -0.0317 -0.1878
71962W        W15056   5.304  21.266   1.117  0.4436  0.3531  0.1219
71963W        W15057   8.337  17.934   2.872  0.2154 -0.2299 -0.2180
71964W        W15058   4.738  22.240   0.731  0.1034 -0.2517  0.2263
71965W        W15059   5.945  19.972   0.261  0.1085  0.1734  0.4312
71966W        W15060   6.365  21.905  31.338  0.0507 -0.1248 -0.2375
71967W        W15061   5.077  21.536   1.794  0.1286  0.1149  0.2563
71968W        W15062   5.926  21.159   3.659  0.0452 -0.1518 -0.2151
71969W        W15063   4.713  18.617   1.011 -0.0225  0.1068  0.4101
71970W        W15064   7.812  18.926   1.377  0.3636 -0.5179  0.1546
71971W        W15065   5.258  19.231   2.776  0.2704  0.2039 -0.0153
71972W        W15066   6.507  17.255   2.813  0.3149  0.1357 -0.0634
71973W        W15067   4.659  19.997   1.035  0.1895 -0.0232  0.1006
71974W        W15068   6.239  18.721   1.963 -0.1961  0.0110  0.0798
71975W        W15069   6.544  20.451   3.639  0.0297  0.1623  0.1873
71976W        W15070   4.960  20.432   2.560 -0.3024  0.0282 -0.1190
71977W        W15071   6.174  18.760  31.728  0.1397 -0.0290  0.0422
71978W        W15072   7.482  19.913   4.409 -0.0153  0.2521  0.0175
71979W        W15073   7.376  20.153  31.795 -0.0285 -0.2792  0.0323
71980W        W15074   6.296  22.025   3.159  0.0074 -0.0067  0.0390
71981W        W15075   5.019  17.730   1.963 -0.2529 -0.0328 -0.2165
71982W        W15076   7.175  18.971   0.842 -0.1705 -0.1646 -0.0583
71983W        W15077   4.269  19.898   1.937 -0.0019  0.2327  0.0576
71984W        W15078   5.024  19.658   2.937 -0.3953 -0.2138 -0.0298
71985W        W15079   6.923  21.008   3.509 -0.2331 -0.0153  0.2808
71986W        W15080   3.904  17.921   0.972 -0.1721 -0.1414 -0.4539
71987W        W15081   7.326  20.372   0.272  0.1124  0.2063 -0.0522
71988W        W15082   6.407  19.865   2.540 -0.2642  0.1493  0.0099
71989W        W15083   4.665  21.251   1.652 -0.0999 -0.1463  0.0860
71990W        W15084   6.407  19.889   1.492 -0.0866 -0.1958 -0.0460
71991W        W15085   6.414  21.929   1.694 -0.2594  0.2843  0.0610
71992W        W15086   5.124  18.797   0.770  0.0704 -0.2122 -0.2049
71993W        W15087   7.187  21.602   2.846  0.2226  0.0309 -0.1530
71994W        W15088   7.714  21.523   2.603 -0.0844  0.0548 -0.0108
71995W        W15089   5.416  19.231   1.289  0.1275  0.0104  0.2301
71996W        W15090   4.231  19.560   1.417  0.0949  0.1184  0.2885
71997W        W15091   3.724  19.818   0.292  0.0664  0.2099 -0.0016
71998W        W15092   6.999  20.010   3.161 -0.3318 -0.0281 -0.1743
71999W        W15093   6.524  18.688   3.233 -0.1038  0.4398  0.1325
72000W        W15094   6.365  20.702   0.426  0.0752 -0.1278 -0.0682
72001W        W15095   7.128  18.326   4.090 -0.3429  0.3231 -0.1765
72002W        W15096   5.958  21.364   4.660  0.0239  0.0190  0.1690
72003W        W15097   4.539  21.469   4.535 -0.4854  0.2485 -0.2839
72004W        W15098   4.835  20.090   0.487 -0.2517 -0.1505 -0.2016
72005W        W15099   6.674  21.593   4.198  0.0348  0.0136  0.0654
72006W        W15100   5.400  22.326   1.156 -0.0810  0.0732 -0.1045
72007W        W15101   5.294  20.776   3.264  0.0879 -0.0721  0.1733
72008W        W15102   5.216  20.287   2.089  0.0660 -0.2639  0.2519
72009W        W15103   5.509  17.095   0.955  0.1106  0.2779  0.0858
72010W        W15104   6.394  20.867   2.583  0.1446 -0.0025  0.1006
72011W        W15105   5.852  20.596   1.388  0.2384 -0.1172  0.5514
72012W        W15106   6.872  18.313   2.461 -0.1465  0.2257  0.3069
72013W        W15107   8.048  19.372   0.323  0.3782  0.0647  0.2737
72014W        W15108   3.441  20.126   2.472  0.1652 -0.3832  0.0490
72015W        W15109   3.996  20.233   0.009 -0.0065  0.0726  0.2010
72016W        W15110   3.635  21.404  31.671  0.1524 -0.2433 -0.0591
72017W        W15111   3.536  19.933   1.023  0.2383 -0.2340 -0.1648
72018W        W15112   5.420  17.846   3.227 -0.1565 -0.2775 -0.0471
72019W        W15113   4.374  19.891   4.765  0.2927 -0.1844  0.1071
72020W        W15114   3.613  19.307   2.548  0.3623 -0.2278  0.0257
72021W        W15115   4.391  18.005   1.213  0.0622  0.0113 -0.0526
72022W        W15116   6.931  22.301   1.286 -0.1317 -0.0564  0.1910
72023W        W15117   4.941  19.062   1.239 -0.1226 -0.0677  0.0739
72024W        W15118   3.547  18.181   1.394 -0.0819  0.1934 -0.0701
72025W        W15119   5.492  20.878   0.772  0.1948  0.1079 -0.2423
72026W        W15120   6.384  19.897   1.996  0.0758 -0.2556 -0.3493
72027W        W15121   5.802  18.870   1.845 -0.0471 -0.0967  0.0124
72028W        W15122   7.438  21.882   4.584 -0.2054  0.1253 -0.1101
72029W        W15123   3.113  19.821   0.690  0.1616  0.3952  0.1413
72030W        W15124   7.026  18.949   3.325  0.0193  0.5547  0.2638
72031W        W15125   4.609  17.865   3.539  0.0248 -0.1573 -0.1697
72032W        W15126   4.343  18.028  31.734  0.0762  0.2038 -0.1090
72033W        W15127   6.212  19.407   3.649 -0.1052  0.0800  0.1609
72034W        W15128   5.500  21.009   1.658  0.1859  0.2190  0.0112
72035W        W15129   5.551  21.401   0.506  0.1504  0.1861  0.2962
72036W        W15130   5.255  19.325   3.234 -0.1593  0.1626 -0.2893
72037W        W15131   5.881  20.510   4.349 -0.0617  0.0540 -0.2913
72038W        W15132   4.579  18.389   3.203 -0.1225 -0.1204 -0.2787
72039W        W15133   6.918  20.045  31.913  0.1126 -0.0277 -0.0300
72040W        W15134   6.424  21.298   3.400 -0.0641 -0.1834  0.2915
72041W        W15135   8.400  21.235   1.446 -0.2881  0.0440 -0.3132
72042W        W15136   6.791  17.805   1.597  0.1345  0.3162  0.1834
72043W        W15137   4.827  20.868   1.358  0.0678  0.1543  0.0683
72044W        W15138   5.133  17.495   2.927  0.1278 -0.0799 -0.0670
72045W        W15139   6.517  19.459   2.217  0.0740  0.1393 -0.0050
72046W        W15140   6.860  20.714   2.708  0.1774 -0.2585  0.0458
72047W        W15141   5.476  17.558   0.710 -0.1163  0.3277  0.1298
72048W        W15142   5.126  19.698   1.483  0.2364  0.0937 -0.0979
72049W        W15143   6.836  20.985   0.462  0.0661  0.1742 -0.1309
72050W        W15144   4.018  20.392   2.748 -0.2160 -0.0989 -0.0136
72051W        W15145   6.023  18.975   0.706  0.0687 -0.1382 -0.0397
72052W        W15146   5.376  19.841   4.024 -0.0161 -0.0882 -0.0357
72053W        W15147   6.129  20.247   2.293  0.0166  0.0871  0.1499
72054W        W15148   7.282  20.184   3.742  0.0909  0.1495 -0.0967
72055W        W15149   4.949  20.895   0.846  0.2688  0.1257 -0.2578
72056W        W15150   6.838  20.468   0.274 -0.2300 -0.1745 -0.0353
72057W        W15151   6.212  21.316   2.745 -0.0140  0.1287 -0.3347
72058W        W15152   7.863  22.045   4.274  0.0628  0.1654  0.1804
72059W        W15153   4.569  21.536   2.712 -0.0694 -0.0115  0.0917
72060W        W15154   7.159  20.423   1.924  0.2457  0.0415 -0.1241
72061W        W15155   4.659  17.157   2.932 -0.4446  0.3065 -0.1426
72062W        W15156   5.655  18.931  31.962 -0.0901 -0.1354  0.0242
72063W        W15157   4.772  19.285   1.703  0.0125 -0.1514  0.1010
72064W        W15158   6.653  17.912   2.133 -0.1265  0.1261  0.2476
72065W        W15159   5.687  19.477   1.969  0.0355  0.0638  0.3528
72066W        W15160   3.378  22.010   1.976 -0.1761  0.0259 -0.0936
72067W        W15161   5.527  19.953   3.037 -0.1413  0.2248 -0.1308
72068W        W15162   5.757  19.415   6.286 -0.3718 -0.0040 -0.1429
72069W        W15163   5.792  20.415   5.298  0.4756 -0.1169  0.4696
72070W        W15164   7.974  17.817   4.456 -0.0989 -0.1398  0.2570
72071W        W15165   7.725  19.087   3.043 -0.2210 -0.1650  0.0844
72072W        W15166   4.603  18.340   4.738 -0.1385 -0.2300 -0.0758
72073W        W15167   7.613  21.025   4.889  0.0348  0.0273  0.3702
72074W        W15168   5.353  18.101   6.643  0.0934 -0.0182  0.2644
72075W        W15169   5.858  20.642   5.781 -0.0788  0.0186  0.2296
72076W        W15170   6.693  22.312   4.922  0.1127  0.0845 -0.1069
72077W        W15171   5.024  20.197   3.882 -0.1336  0.2150  0.3070
72078W        W15172   5.055  18.914   5.467 -0.1883  0.5313 -0.0328
72079W        W15173   7.794  20.222   6.838 -0.2011  0.0406  0.0933
72080W        W15174   5.568  17.567   3.598  0.0166 -0.0927  0.0230
72081W        W15175   3.727  17.938   4.813 -0.3840 -0.0282  0.1067
72082W        W15176   8.219  20.380   6.295  0.0217 -0.4482  0.2601
72083W        W15177   4.407  20.528   6.352  0.1750  0.0145  0.0783
72084W        W15178   4.525  19.508   6.016 -0.1336 -0.3007  0.1159
72085W        W15179   5.881  19.711   4.131 -0.0783 -0.0844  0.2623
72086W        W15180   6.521  22.005   5.782 -0.1210  0.1769 -0.1643
72087W        W15181   5.616  19.037   7.099  0.0483 -0.1558 -0.0615
72088W        W15182   6.159  19.440   7.444  0.1097 -0.0138  0.2432
72089W        W15183   7.068  19.861   4.101  0.1847 -0.0981  0.1414
72090W        W15184   4.644  18.965   3.941 -0.0314 -0.0359 -0.2159
72091W        W15185   3.111  20.105   5.706 -0.1547  0.2080 -0.2221
72092W        W15186   5.770  19.100   6.630 -0.1474  0.1672  0.4989
72093W        W15187   5.506  18.806   5.304 -0.1555 -0.0003  0.1257
72094W        W15188   6.406  19.786   4.920  0.0307  0.1034 -0.1009
72095W        W15189   6.459  22.491   6.921 -0.1484  0.0662 -0.2463
72096W        W15190   5.793  20.044   5.797 -0.1154  0.3463  0.2025
72097W        W15191   7.146  20.478   6.153 -0.1317  0.2160 -0.0980
72098W        W15192   4.452  21.255   5.583 -0.0273 -0.5050  0.0957
72099W        W15193   3.372  22.217   6.062 -0.2033 -0.1851  0.1090
72100W        W15194   4.714  21.412   5.063 -0.0282  0.0276 -0.2148
72101W        W15195   7.945  20.219   4.788 -0.1407 -0.1750  0.0646
72102W        W15196   7.429  22.091   5.711 -0.0673  0.2961  0.4482
72103W        W15197   5.781  21.923   8.123 -0.0289 -0.0286  0.3714
72104W        W15198   4.457  20.858   4.076  0.1311  0.1640  0.0389
72105W        W15199   5.962  20.814   7.464 -0.1042 -0.4114 -0.2917
72106W        W15200   6.071  20.453   7.004  0.1294  0.2431 -0.0906
72107W        W15201   6.833  18.995   6.315  0.1884  0.1460 -0.2167
72108W        W15202   5.667  21.131   5.931 -0.0776  0.0298 -0.4063
72109W        W15203   3.883  21.309   5.841  0.0500 -0.1486  0.1320
72110W        W15204   5.591  20.857   5.143  0.1583 -0.0904  0.3796
72111W        W15205   5.848  21.524   6.756 -0.1492  0.2505  0.1641
72112W        W15206   3.476  20.417   4.264  0.0402 -0.0400 -0.3171
72113W        W15207   6.901  18.321   8.280  0.2033  0.0319 -0.0803
72114W        W15208   4.909  21.637   4.201 -0.1144  0.2300 -0.1522
72115W        W15209   6.125  19.751   3.257 -0.1578  0.0325  0.0384
72116W        W15210   6.094  18.602   4.076  0.1435 -0.0072  0.0271
72117W        W15211   6.480  19.587   4.061  0.5644  0.2374 -0.2560
72118W        W15212   4.970  17.867   3.848  0.0885 -0.2599 -0.1989
72119W        W15213   5.084  21.736   6.108 -0.1242  0.1503  0.0554
72120W        W15214   6.098  18.726   4.545 -0.0502  0.1393 -0.0305
72121W        W15215   8.319  21.120   7.040  0.0245 -0.1085  0.0450
72122W        W15216   5.120  20.527   5.094 -0.1554  0.1128 -0.1940
72123W        W15217   6.397  19.257   6.041 -0.1524 -0.0401  0.1706
72124W        W15218   5.704  21.086   6.464 -0.3331 -0.1125 -0.2851
72125W        W15219   4.520  19.675   5.535  0.2163 -0.1992 -0.4392
72126W        W15220   7.483  22.219   3.919  0.0599  0.0014  0.1595
72127W        W15221   6.159  22.450   4.976  0.1033 -0.4053  0.3131
72128W        W15222   6.240  20.804   3.546 -0.1343 -0.4241  0.1944
72129W        W15223   3.739  20.418   4.781  0.0555 -0.4091 -0.1715
72130W        W15224   5.245  19.103   6.393 -0.2637 -0.0023  0.0901
72131W        W15225   3.987  19.649   6.164 -0.1963 -0.0521 -0.1566
72132W        W15226   3.356  17.630   2.829 -0.0732 -0.1426  0.1651
72133W        W15227   7.275  21.351   6.078 -0.0047 -0.1835  0.0248
72134W        W15228   4.534  21.082   6.452  0.2718 -0.0396  0.0070
72135W        W15229   7.122  19.546   4.531 -0.0035 -0.3094 -0.1865
72136W        W15230   4.414  20.211   5.443 -0.0012  0.3088  0.0904
72137W        W15231   6.711  21.161   5.711 -0.0045 -0.2824 -0.0360
72138W        W15232   8.728  20.387   5.615 -0.0305  0.1279  0.2937
72139W        W15233   6.340  19.092   4.175  0.1538 -0.0052  0.1242
72140W        W15234   7.266  18.791   5.770  0.0986 -0.0672  0.0829
72141W        W15235   4.258  20.171   3.310  0.1219 -0.1241 -0.2793
72142W        W15236   4.389  20.958   5.083 -0.0843 -0.0943  0.0298
72143W        W15237   7.409  20.543   4.926 -0.0333  0.1736  0.2718
72144W        W15238   7.224  20.081   5.350  0.0739  0.1427  0.1794
72145W        W15239   5.224  21.239   6.122  0.0233 -0.1603 -0.2517
72146W        W15240   4.300  19.580   7.060  0.1890 -0.0437  0.3447
72147W        W15241   6.308  20.569   6.526  0.2041 -0.1177 -0.1449
72148W        W15242   3.432  22.300   3.048 -0.0064 -0.2170 -0.0763
72149W        W15243   3.216  20.117   6.807 -0.1248 -0.0291  0.0232
72150W        W15244   4.217  21.434   5.025  0.1642  0.0370  0.1690
72151W        W15245   4.573  18.610   7.034 -0.4015  0.1261 -0.1354
72152W        W15246   3.811  20.803   5.772  0.0612 -0.2193  0.1652
72153W        W15247   6.894  19.127   4.259 -0.0100  0.0359  0.0800
72154W        W15248   4.870  18.152   6.825  0.0427 -0.0568 -0.2075
72155W        W15249   7.974  17.870   5.358  0.1472 -0.1094  0.1860
72156W        W15250   3.334  21.075   5.027  0.2569 -0.2989 -0.1571
72157W        W15251   6.387  23.563   4.281 -0.4391 -0.0172  0.2250
72158W        W15252   7.263  19.759   3.532  0.0604  0.0170 -0.2373
72159W        W15253   6.455  22.379   3.931 -0.0229  0.1030 -0.1157
72160W        W15254   5.015  19.683   5.584  0.3540  0.0578 -0.0327
72161W        W15255   3.602  20.151   5.515  0.1307 -0.1182 -0.0375
72162W        W15256   4.530  19.077   6.918  0.0492  0.0859 -0.3784
72163W        W15257   3.746  18.935   5.784  0.0702  0.2235 -0.0729
72164W        W15258   7.611  20.339   6.299 -0.0006  0.1718  0.0654
72165W        W15259   2.393  17.772   4.068  0.0729 -0.1111 -0.1103
72166W        W15260   6.218  18.281   4.920  0.1101  0.1776  0.2872
72167W        W15261   4.385  19.718   4.269  0.0171  0.0268  0.0936
72168W        W15262   5.530  21.414   2.926  0.0796 -0.0250 -0.0347
72169W        W15263   7.248  17.611   6.943  0.3383 -0.0922 -0.2866
72170W        W15264   5.388  21.440   4.023  0.1362 -0.3443 -0.2716
72171W        W15265   6.876  21.656   5.571 -0.0881 -0.1133 -0.0044
72172W        W15266   6.996  21.632   4.547  0.1695  0.0200  0.0463
72173W        W15267   4.483  18.312   6.520  0.0663  0.2088 -0.0988
72174W        W15268   5.884  19.191   4.010 -0.1494  0.0625 -0.0927
72175W        W15269   5.068  22.625   5.458  0.2368  0.0916 -0.2383
72176W        W15270   5.817  22.368   6.296  0.1530  0.0742 -0.1102
72177W        W15271   6.632  18.443   3.878  0.0088 -0.0603  0.0244
72178W        W15272   7.075  21.902   5.060  0.2536 -0.1095  0.1155
72179W        W15273   6.750  19.678   2.862  0.1956 -0.0950  0.1490
72180W        W15274   5.043  19.337   5.967  0.0551  0.4233 -0.1662
72181W        W15275   6.622  18.535   6.246 -0.1316 -0.1081  0.0313
72182W        W15276   8.308  20.550   5.740  0.0866  0.0831 -0.0541
72183W        W15277   6.476  20.690   5.350  0.0168  0.2548  0.0476
72184W        W15278   3.639  18.905   3.942  0.0679 -0.0509  0.1269
72185W        W15279   6.509  22.316   5.386 -0.1439  0.1662 -0.1752
72186W        W15280   4.529  22.562   3.996 -0.1022 -0.1789  0.3097
72187W        W15281   3.981  19.859   5.576 -0.2296 -0.1240  0.0238
72188W        W15282   5.199  21.528   5.247  0.0079  0.1280 -0.0688
72189W        W15283   6.270  18.623   5.910  0.1175 -0.2662 -0.1297
72190W        W15284   4.292  20.597   6.820 -0.1880 -0.1524 -0.1891
72191W        W15285   6.574  19.225   6.680 -0.1339  0.1731  0.1743
72192W        W15286   4.174  19.116   4.823  0.0019  0.0580 -0.0071
72193W        W15287   4.745  20.624   6.701 -0.2931 -0.0193 -0.1255
72194W        W15288   5.972  17.844   4.642  0.0379  0.1746  0.0266
72195W        W15289   7.803  18.561   4.423 -0.1644  0.1181  0.0923
72196W        W15290   6.434  19.839   6.537  0.1759 -0.2566 -0.0005
72197W        W15291   7.057  20.807   5.307  0.2658 -0.1985 -0.1435
72198W        W15292   7.000  18.137   3.027  0.0332 -0.0756 -0.2387
72199W        W15293   5.298  18.401   4.214  0.1633 -0.1406  0.1996
72200W        W15294   4.096  20.988   7.623 -0.0499 -0.0049  0.0252
72201W        W15295   3.720  20.996   6.294  0.0873 -0.2963  0.2028
72202W        W15296   5.583  21.871   5.424  0.1874 -0.0515 -0.0483
72203W        W15297   6.357  17.453   3.850 -0.1784  0.2866 -0.0106
72204W        W15298   6.978  24.111   5.135  0.1169 -0.2746 -0.1543
72205W        W15299   4.961  21.052   6.686  0.0784 -0.0119 -0.1946
72206W        W15300   5.744  21.249   7.661  0.1492 -0.0025 -0.1020
72207W        W15301   7.331  22.994   4.923 -0.1395  0.2830 -0.1384
72208W        W15302   4.786  17.325   4.710 -0.2028 -0.3155 -0.0048
72209W        W15303   4.845  20.580   4.293  0.1939  0.2377  0.1887
72210W        W15304   5.569  18.166   4.789  0.2960 -0.0563  0.1432
72211W        W15305   2.813  22.012   3.562 -0.0196  0.0066  0.1159
72212W        W15306   7.465  18.825   6.899 -0.0553 -0.3819  0.1257
72213W        W15307   6.302  19.121   4.630 -0.1605  0.0702 -0.0348
72214W        W15308   5.567  17.969   5.663 -0.1891  0.1863  0.3421
72215W        W15309   7.367  19.492   7.470  0.3855 -0.1569 -0.0146
72216W        W15310   7.429  19.204   3.474 -0.4542 -0.1628 -0.3806
72217W        W15311   5.962  19.000   5.497 -0.2696 -0.0284  0.0190
72218W        W15312   5.057  19.220   4.679 -0.0389  0.2223  0.0210
72219W        W15313   5.948  18.451   6.321 -0.1014  0.4853 -0.1549
72220W        W15314   5.843  18.085   6.670 -0.0018 -0.0623  0.0162
72221W        W15315   4.416  20.952   8.000 -0.3083  0.0535 -0.2009
72222W        W15316   6.692  21.980   6.313  0.1503 -0.1559 -0.1197
72223W        W15317   7.013  20.922   4.830  0.1483 -0.1851  0.1257
72224W        W15318   5.281  18.799   7.425  0.0578 -0.0528  0.0494
72225W        W15319   6.175  19.585   4.505  0.1906  0.0761  0.0759
72226W        W15320   5.482  21.542   5.756  0.1545  0.1495  0.5423
72227W        W15321   5.548  21.632   4.481  0.2527 -0.1258 -0.0788
72228W        W15322   5.824  17.478   4.342 -0.1188 -0.0572  0.3825
72229W        W15323   5.559  21.621   6.274  0.2050 -0.1054  0.1526
72230W        W15324   4.238  21.775   3.674  0.3121 -0.1073  0.0407
72231W        W15325   5.821  20.533   6.510 -0.3121  0.1214 -0.3278
72232W        W15326   4.070  20.595   4.464 -0.2973  0.1622 -0.1518
72233W        W15327   6.296  18.961   5.134 -0.0170  0.2164 -0.1870
72234W        W15328   4.983  22.205   6.133 -0.2032 -0.0592  0.0969
72235W        W15329   5.433  17.717   4.530 -0.0857 -0.0755  0.3066
72236W        W15330   4.229  19.234   4.296  0.0566  0.1263 -0.0965
72237W        W15331   5.531  17.753   5.230  0.1373  0.1099 -0.0879
72238W        W15332   8.492  19.852   4.216 -0.0793 -0.1224 -0.1141
72239W        W15333   4.068  18.525   6.252  0.2682  0.1569 -0.1634
72240W        W15334   5.479  17.855   4.068 -0.0940  0.0821  0.0036
72241W        W15335   4.533  21.772   5.357 -0.1762 -0.1649 -0.0716
72242W        W15336   5.114  20.658   7.539  0.1425  0.2053  0.0119
72243W        W15337   6.702  18.068   4.235  0.3140 -0.0445 -0.2916
72244W        W15338   6.830  20.278   6.533 -0.2515 -0.4082  0.1417
72245W        W15339   5.723  19.736   6.641  0.0189 -0.1983  0.0092
72246W        W15340   2.976  17.212   3.437 -0.0395  0.0455  0.0521
72247W        W15341   7.917  19.459   6.608  0.0485 -0.0041  0.0945
72248W        W15342   5.933  18.120   5.348  0.0750 -0.0004  0.1425
72249W        W15343   3.582  21.655   5.582  0.0781  0.2493 -0.1169
72250W        W15344   7.707  21.740   6.043  0.0738 -0.0902  0.1594
72251W        W15345   4.370  19.475   3.864  0.3743  0.0270  0.0666
72252W        W15346   3.902  21.003   4.864 -0.0318  0.2769 -0.0535
72253W        W15347   5.717  17.591   6.699 -0.2202 -0.3094 -0.0795
72254W        W15348   6.728  19.348   4.780 -0.4422 -0.1659 -0.1308
72255W        W15349   6.255  18.549   5.388 -0.0656 -0.0152 -0.0269
72256W        W15350   4.893  18.298   5.192 -0.2204  0.1548  0.2877
72257W        W15351   6.735  18.781   5.867  0.1662  0.0215  0.0998
72258W        W15352   6.320  21.647   5.512 -0.3811 -0.0944 -0.2414
72259W        W15353   5.363  19.400   6.778 -0.1101 -0.2213  0.1808
72260W        W15354   3.901  21.816   6.491 -0.2816 -0.3078 -0.0636
72261W        W15355   5.013  16.950   3.829 -0.0019 -0.3535  0.0177
72262W        W15356   7.172  22.764   4.203 -0.3950  0.0609 -0.4119
72263W        W15357   7.140  19.852   8.822 -0.0999  0.2858 -0.1826
72264W        W15358   3.891  20.813   4.003  0.0078 -0.1921 -0.3293
72265W        W15359   4.584  21.532   6.091 -0.4631 -0.4409  0.1028
72266W        W15360   5.336  20.301   3.396 -0.2198  0.2350 -0.0944
72267W        W15361   5.415  18.749   6.702 -0.1099 -0.1026  0.0367
72268W        W15362   4.961  20.948   7.164  0.0123 -0.1696  0.2494
72269W        W15363   4.226  21.825   4.725 -0.0754  0.3061  0.1724
72270W        W15364   5.497  19.648   5.833 -0.3514 -0.0522  0.1410
72271W        W15365   6.078  18.651   3.041 -0.2100  0.1979  0.0402
72272W        W15366   7.899  21.340   3.756  0.0848  0.1279 -0.3113
72273W        W15367   4.786  19.929   4.259 -0.1823  0.0088  0.1342
72274W        W15368   8.240  18.915   6.090 -0.2785 -0.0732 -0.1758
72275W        W15369   6.984  19.809   4.936  0.2739 -0.2727 -0.2237
72276W        W15370   6.575  18.162   5.873  0.1148 -0.2186  0.2423
72277W        W15371   5.471  18.278   5.245  0.0365  0.2811  0.1143
72278W        W15372   7.706  20.232   5.312 -0.0966 -0.0316 -0.0652
72279W        W15373   3.433  19.190   6.631 -0.0319  0.1342 -0.2918
72280W        W15374   6.412  22.710   8.462  0.0094 -0.1638  0.0320
72281W        W15375   4.038  20.311   5.771  0.1622  0.0805  0.2924
72282W        W15376   5.492  20.159   4.892  0.1065  0.1169  0.3250
72283W        W15377   3.572  18.042   4.278 -0.2098  0.3382 -0.0016
72284W        W15378   5.541  20.669   6.150  0.1315 -0.3209  0.1073
72285W        W15379   6.353  20.785   5.822 -0.3617 -0.2051  0.1734
72286W        W15380   4.797  20.940   5.460 -0.0917  0.1498  0.2306
72287W        W15381   7.069  19.325   6.750 -0.2808 -0.1676  0.1622
72288W        W15382   4.891  20.190   5.506  0.0672 -0.0162 -0.1629
72289W        W15383   7.526  19.908   4.953 -0.1149  0.2927  0.2812
72290W        W15384   5.557  18.820   3.131 -0.0505  0.2836 -0.3513
72291W        W15385   4.713  19.805   5.120 -0.3233  0.2051  0.1145
72292W        W15386   5.394  19.793   7.527  0.0048 -0.3202 -0.2231
72293W        W15387   8.263  20.786   4.729 -0.0142 -0.1849 -0.0043
72294W        W15388   7.241  19.379   4.940  0.0972  0.0704 -0.1951
72295W        W15389   7.510  18.277   6.234 -0.0340  0.1678  0.1245
72296W        W15390   6.938  18.738   6.768  0.0515  0.2380  0.1082
72297W        W15391   6.143  19.807   6.105  0.0467 -0.0716 -0.5350
72298W        W15392   4.156  17.880   6.560 -0.3634 -0.0912  0.1174
72299W        W15393   7.019  22.688   4.658  0.1371 -0.0544  0.0334
72300W        W15394   6.595  18.643   4.336  0.0587 -0.2267  0.1439
72301W        W15395   7.576  19.367   7.021 -0.0429 -0.1007 -0.0676
72302W        W15396   7.012  19.523   5.390 -0.1188  0.1368 -0.0885
72303W        W15397   5.403  19.283   4.986 -0.2439  0.1974 -0.1192
72304W        W15398   4.090  18.023   5.971  0.1428 -0.1021  0.0031
72305W        W15399   6.130  19.305   6.959  0.0193 -0.1744 -0.0345
72306W        W15400   5.104  18.422   4.645  0.1620  0.1842 -0.0389
72307W        W15401   7.223  18.690   6.391  0.2444  0.0264 -0.0067
72308W        W15402   6.956  22.325   4.050 -0.1868 -0.1146 -0.1795
72309W        W15403   6.511  20.229   4.596  0.2725  0.1772 -0.1775
72310W        W15404   7.355  19.050   5.360  0.0663 -0.0433  0.0454
72311W        W15405   3.608  20.034   6.402 -0.1279  0.3006 -0.2860
72312W        W15406   6.107  22.771   6.476  0.1798 -0.0561 -0.0028
72313W        W15407   5.010  17.578   3.452 -0.3048  0.0376  0.1975
72314W        W15408   4.616  19.247   3.483 -0.3149  0.0844  0.0192
72315W        W15409   7.090  21.262   5.220  0.1803 -0.1195 -0.1000
72316W        W15410   6.872  20.489   5.697 -0.1248 -0.0761 -0.1581
72317W        W15411   6.242  17.039   3.256  0.0862  0.1331  0.1093
72318W        W15412   8.599  19.880   7.555  0.1754  0.1395  0.1197
72319W        W15413   4.233  21.145   4.434 -0.1465 -0.1495 -0.2979
72320W        W15414   7.714  18.595   5.303  0.1450 -0.3131 -0.0884
72321W        W15415   5.779  21.015   6.930 -0.0270 -0.3235  0.1725
72322W        W15416   4.623  19.079   5.726 -0.0619  0.1543  0.2976
72323W        W15417   5.774  21.874   4.104  0.1083  0.1145  0.1630
72324W        W15418   6.033  18.804   6.918 -0.0479  0.2449 -0.1937
72325W        W15419   6.012  19.359   4.960  0.1142  0.3233  0.1283
72326W        W15420   6.120  20.388   6.106  0.1113  0.3502 -0.3610
72327W        W15421   8.246  19.656   6.170  0.0077  0.0427 -0.1145
72328W        W15422   5.190  20.308   6.549 -0.1308 -0.1641  0.0343
72329W        W15423   5.379  20.734   6.661 -0.0121  0.2919  0.2204
72330W        W15424   6.059  20.877   6.223  0.0427 -0.0895  0.0136
72331W        W15425   6.714  20.512   4.939  0.0704  0.0316  0.0417
72332W        W15426   4.392  21.712   6.585  0.0035  0.1074 -0.1121
72333W        W15427   3.883  19.265   6.886 -0.0674  0.3115  0.4129
72334W        W15428   5.736  19.555   7.157  0.1475 -0.1215  0.2652
72335W        W15429   6.154  21.243   5.706  0.0438  0.1012 -0.0432
72336W        W15430   4.809  18.327   3.777  0.1130 -0.0866 -0.0748
72337W        W15431   5.058  21.360   4.643  0.1361  0.0335  0.0745
72338W        W15432   4.532  22.047   7.385 -0.0712  0.1610 -0.1095
72339W        W15433   4.053  21.098   7.144 -0.2779 -0.1444  0.0491
72340W        W15434   3.807  21.876   5.193  0.0229 -0.2276  0.0654
72341W        W15435   6.678  19.792   4.450  0.3422  0.2621 -0.2887
72342W        W15436   7.704  20.376   2.787  0.2072 -0.1302 -0.1514
72343W        W15437   5.634  22.381   5.534 -0.0500 -0.0803 -0.2289
72344W        W15438   6.369  18.914   3.685 -0.0960 -0.2518 -0.0102
72345W        W15439   3.438  20.635   5.438  0.1595 -0.2009  0.1135
72346W        W15440   4.904  21.296   3.693  0.2177  0.3680  0.0073
72347W        W15441   6.155  20.471   4.942  0.1387 -0.0633  0.1001
72348W        W15442   4.084  22.231   3.848  0.0027 -0.1543 -0.2670
72349W        W15443   7.754  20.985   7.418 -0.0577  0.0329  0.1998
72350W        W15444   7.240  17.364   4.506 -0.3666  0.1451  0.0667
72351W        W15445   7.584  20.913   5.369  0.3243 -0.1278  0.0446
72352W        W15446   6.991  19.883   5.785 -0.0840 -0.3750  0.3542
72353W        W15447   6.051  20.347   7.502  0.0434 -0.2867  0.0797
72354W        W15448   5.015  18.860   6.031  0.3259 -0.0697 -0.1271
72355W        W15449   4.187  18.143   4.624  0.0171  0.0561  0.2190
72356W        W15450   4.269  20.083   6.498  0.0026 -0.1352  0.3251
72357W        W15451   6.331  18.098   6.260  0.0238  0.0841 -0.2644
72358W        W15452   3.101  22.529   7.414  0.2299  0.0333  0.0290
72359W        W15453   7.522  21.099   3.468  0.0852 -0.0547 -0.2313
72360W        W15454   4.224  18.684   4.501 -0.0093  0.1364  0.0354
72361W        W15455   5.398  20.155   5.402 -0.0484 -0.0932  0.1563
72362W        W15456   6.362  18.881   6.428  0.0142 -0.0060 -0.2756
72363W        W15457   5.502  21.220   4.799  0.2979  0.0552 -0.0503
72364W        W15458   5.838  19.157   4.543  0.0775  0.1174  0.1599
72365W        W15459   5.010  21.015   5.004  0.0285  0.0156 -0.2885
72366W        W15460   5.313  20.575   5.669  0.1566  0.3235 -0.1214
72367W        W15461   4.638  21.839   6.959 -0.0729  0.1038  0.0258
72368W        W15462   4.844  19.303   6.602 -0.1991 -0.5945  0.1636
72369W        W15463   8.467  18.706   4.859 -0.0026 -0.4274 -0.2409
72370W        W15464   5.930  18.941   6.134  0.0792  0.0387 -0.2687
72371W        W15465   7.458  17.485   6.230 -0.2376 -0.0978 -0.3868
72372W        W15466   4.395  20.342   4.273 -0.2075  0.1832 -0.1667
72373W        W15467   5.141  19.764   4.552 -0.1872 -0.1786  0.0114
72374W        W15468   6.184  19.405   6.489  0.2676  0.1229  0.1597
72375W        W15469   5.513  19.098   5.922 -0.1806  0.3187  0.3052
72376W        W15470   4.698  19.553   4.668 -0.1323  0.2154 -0.2249
72377W        W15471   8.632  20.600   6.170  0.2376  0.1363  0.0936
72378W        W15472   5.665  20.059   4.435  0.2225  0.0385 -0.0427
72379W        W15473   6.183  21.433   5.083  0.0521 -0.0052  0.1190
72380W        W15474   3.858  20.485   6.384  0.3677 -0.2345 -0.0254
72381W        W15475   5.275  18.465   3.631  0.0737 -0.1838 -0.1705
72382W        W15476   4.282  20.712   5.564  0.0408 -0.1372  0.1937
72383W        W15477   5.983  19.365   5.831  0.1588  0.0850  0.1804
72384W        W15478   7.371  21.232   6.555 -0.0730  0.0966  0.3346
72385W        W15479   5.376  19.341   5.464 -0.2370 -0.0000 -0.0710
72386W        W15480   7.043  22.175   4.582  0.1862  0.1293  0.0505
72387W        W15481   6.815  19.279   5.826  0.1533 -0.2430  0.3670
72388W        W15482   5.967  20.796   3.979 -0.1437 -0.0995 -0.1294
72389W        W15483   7.127  21.375   4.141  0.2343  0.1925 -0.3644
72390W        W15484   7.301  22.614   6.431  0.0488 -0.2328 -0.2353
72391W        W15485   3.407  18.304   5.537  0.1592  0.1344  0.4277
72392W        W15486   7.143  22.098   6.499 -0.0770 -0.1608 -0.1001
72393W        W15487   7.432  20.876   6.229  0.0352 -0.1920 -0.0962
72394W        W15488   5.865  16.635   3.709  0.1049 -0.2509 -0.3253
72395W        W15489   5.089  18.970   4.206  0.4291  0.3846  0.2133
72396W        W15490   3.638  21.423   5.134  0.0859 -0.0098  0.1492
72397W        W15491   7.806  18.733   6.395  0.1282 -0.0936  0.0161
72398W        W15492   7.456  19.656   6.603  0.1418 -0.5341 -0.1672
72399W        W15493   4.758  20.247   4.716 -0.0915 -0.3506  0.1335
72400W        W15494   5.202  18.400   5.781  0.0374  0.0515 -0.0565
72401W        W15495   5.609  20.142   6.255 -0.1051  0.0598 -0.3462
72402W        W15496   4.522  21.179   7.428  0.0105 -0.0216 -0.2023
72403W        W15497   5.906  20.883   4.739  0.0240 -0.2591  0.2766
72404W        W15498   7.086  19.119   7.216 -0.4306 -0.1941  0.0591
72405W        W15499   4.009  21.082   5.364  0.0090  0.0591  0.1145
72406W        W15500   5.696  21.306   5.336 -0.3998 -0.1564  0.0948
72407W        W15501   8.159  22.281   6.073  0.3482  0.1482 -0.1653
72408W        W15502   4.895  19.332   5.187  0.2364 -0.0005 -0.1869
72409W        W15503   7.394  21.482   4.935  0.4207 -0.0494 -0.1803
72410W        W15504   4.143  19.392   5.641  0.1787 -0.0501  0.1309
72411W        W15505   7.570  18.215   4.963 -0.3074  0.0040 -0.0574
72412W        W15506   6.148  17.707   5.192  0.4125 -0.1572 -0.1607
72413W        W15507   6.587  20.101   6.078  0.0476  0.1733  0.1121
72414W        W15508   3.980  20.492   3.555 -0.0228  0.1211  0.3476
72415W        W15509   5.177  19.813   3.410  0.0481  0.1267  0.1985
72416W        W15510   4.829  20.542   5.840  0.0618  0.4400  0.1952
72417W        W15511   6.521  18.643   7.062  0.1251  0.0809  0.2767
72418W        W15512   4.874  19.511   7.080 -0.0474  0.0793 -0.0508
72419W        W15513   3.414  21.054   4.096 -0.4761 -0.0985 -0.3171
72420W        W15514   4.781  19.776   3.747 -0.0055  0.0691  0.0638
72421W        W15515   7.602  20.961   3.957  0.0013 -0.0386  0.2626
72422W        W15516   4.973  17.554   4.302 -0.0252 -0.1048  0.0153
72423W        W15517   4.402  17.689   5.637  0.1007 -0.2364 -0.3436
72424W        W15518   6.444  20.897   4.803 -0.0179 -0.3093 -0.1228
72425W        W15519   7.147  20.202   4.672 -0.0532  0.0480 -0.1778
72426W        W15520   5.782  18.210   4.299  0.0948 -0.4517  0.0150
72427W        W15521   6.246  20.326   5.640 -0.0391 -0.1212 -0.2596
72428W        W15522   5.005  20.675   3.751 -0.3501 -0.1435 -0.0078
72429W        W15523   5.370  21.103   7.972 -0.1859  0.1879  0.2464
72430W        W15524   6.137  19.100   8.804  0.0943 -0.0952  0.5265
72431W        W15525   3.806  17.645   3.014  0.0604  0.0580 -0.1332
72432W        W15526   5.314  17.500   5.588  0.2321 -0.1003 -0.2965
72433W        W15527   6.680  21.117   4.388  0.0114 -0.3013 -0.0461
72434W        W15528   7.190  23.661   3.552 -0.0304 -0.0960  0.0768
72435W        W15529   5.288  19.776   6.360  0.0567 -0.0994 -0.1522
72436W        W15530   4.936  21.435   7.269  0.0626 -0.0858  0.1050
72437W        W15531   4.575  17.958   6.115  0.1737  0.0653  0.3173
72438W        W15532   6.309  20.038   4.209 -0.0674  0.2904 -0.0394
72439W        W15533   6.648  20.128   5.299 -0.1200  0.1267 -0.1782
72440W        W15534   7.090  19.516   2.498  0.2431 -0.0582  0.2052
72441W        W15535   8.175  18.258   6.047 -0.1407  0.2487 -0.2566
72442W        W15536   5.399  18.822   4.792  0.0835 -0.0132 -0.2657
72443W        W15537   4.764  18.137   5.684  0.1213  0.2716 -0.1928
72444W        W15538   5.475  18.667   6.205 -0.1011 -0.0609 -0.3486
72445W        W15539   6.052  20.946   5.296 -0.1841 -0.1612 -0.0254
72446W        W15540   4.570  17.774   4.520 -0.1608  0.0031 -0.1685
72447W        W15541   7.415  20.504   5.630  0.1730  0.0180 -0.0913
72448W        W15542   5.952  21.748   5.869  0.3087 -0.0867 -0.1952
72449W        W15543   4.846  18.829   5.008 -0.1584 -0.3529 -0.0126
72450W        W15544   6.711  19.241   3.649  0.0189  0.0412 -0.2252
72451W        W15545   5.270  19.727   5.146  0.2113 -0.5210  0.0638
72452W        W15546   6.186  20.036   5.255 -0.2154  0.0083  0.1788
72453W        W15547   6.877  19.987   7.191 -0.0473  0.1191 -0.1498
72454W        W15548   6.050  20.045   4.716  0.1193  0.0356  0.1066
72455W        W15549   8.107  20.728   4.093  0.0741  0.0597  0.1415
72456W        W15550   6.886  21.298   6.345 -0.1822 -0.3387  0.0731
72457W        W15551   6.694  21.154   6.859  0.3118  0.0561  0.1353
72458W        W15552   6.103  21.388   6.207 -0.2159  0.2085 -0.0784
72459W        W15553   6.944  19.782   6.712 -0.2592 -0.4025 -0.0483
72460W        W15554   3.692  19.545   7.832  0.1786 -0.3289  0.0902
72461W        W15555   5.191  20.185   5.993  0.0224 -0.1401  0.2464
72462W        W15556   4.438  19.092   5.236  0.3015  0.1354 -0.1427
72463W        W15557   7.181  19.984   6.284  0.1418  0.2881  0.3679
72464W        W15558   4.227  19.551   5.115  0.1354 -0.4668  0.1811
72465W        W15559   5.970  17.712   3.923 -0.1530 -0.2785 -0.0437
72466W        W15560   4.915  21.656   6.595 -0.5436 -0.0215  0.0548
72467W        W15561   5.748  19.656   5.271 -0.2095 -0.4520 -0.2384
72468W        W15562   5.484  20.409   9.095  0.0156 -0.3053 -0.0904
72469W        W15563   4.535  18.907   6.327 -0.2799 -0.0005 -0.1716
72470W        W15564   7.085  18.043   7.175  0.3416  0.2190 -0.1052
72471W        W15565   7.396  20.163   8.150 -0.2452  0.0723  0.1317
72472W        W15566   3.458  21.070   9.492  0.5422 -0.1306  0.1010
72473W        W15567   6.603  21.300   8.097  0.0248 -0.0500  0.0065
72474W        W15568   7.496  21.176   8.755  0.0964  0.4113 -0.0083
72475W        W15569   7.437  20.463   9.907 -0.0243  0.0056 -0.0790
72476W        W15570   6.056  18.553   8.786  0.1271 -0.0517  0.0195
72477W        W15571   4.897  18.055   9.896  0.1745  0.1150 -0.0599
72478W        W15572   4.797  19.117   7.372 -0.2064 -0.0294  0.1605
72479W        W15573   3.218  19.579   8.668 -0.0689 -0.5011 -0.2272
72480W        W15574   5.819  20.932   8.022 -0.5468  0.2764 -0.2902
72481W        W15575   4.172  19.578   7.975  0.2400  0.2796 -0.1481
72482W        W15576   4.913  18.333   9.205  0.1816  0.3527  0.2311
72483W        W15577   5.295  20.412   8.123 -0.4178  0.1350  0.0751
72484W        W15578   5.924  22.031   8.624  0.1652 -0.1096  0.1283
72485W        W15579   3.097  18.719   9.227  0.0569  0.3625  0.2106
72486W        W15580   8.122  21.932   9.400  0.3599  0.0524  0.1228
72487W        W15581   4.502  20.072   5.956  0.1531  0.3950  0.1419
72488W        W15582   4.902  19.377   8.405  0.0846  0.3521 -0.0750
72489W        W15583   5.391  18.089   8.876 -0.0062 -0.1131 -0.1873
72490W        W15584   7.073  19.426   9.365  0.2989 -0.1003 -0.1170
72491W        W15585   7.556  21.238   8.236 -0.0129  0.0712 -0.1680
72492W        W15586   5.567  20.593   9.529  0.1190  0.1914  0.1382
72493W        W15587   5.140  18.772   9.222  0.0471 -0.0920  0.2150
72494W        W15588   4.165  20.985  10.385 -0.0971  0.2799  0.0569
72495W        W15589   4.244  22.083   9.152 -0.1055  0.0828  0.1494
72496W        W15590   4.042  21.218   8.257  0.2561 -0.4481 -0.0805
72497W        W15591   8.124  20.327   8.521  0.0352  0.1029  0.3933
72498W        W15592   4.553  21.213   6.922  0.3342  0.2285 -0.1984
72499W        W15593   4.643  20.058   9.521  0.0499 -0.0941 -0.1171
72500W        W15594   5.099  19.172   8.911 -0.2497  0.0416  0.0369
72501W        W15595   6.456  20.184   6.880  0.1967 -0.1985 -0.3325
72502W        W15596   5.980  20.561   9.945  0.0869  0.1951 -0.0869
72503W        W15597   3.231  21.616   8.972  0.0599  0.2866  0.0732
72504W        W15598   3.847  21.807   7.331  0.0151  0.1790  0.1478
72505W        W15599   7.049  18.325   5.987  0.1697 -0.3473 -0.2272
72506W        W15600   5.022  19.914   8.662  0.1983 -0.3628  0.1302
72507W        W15601   7.450  19.182   8.376  0.0874 -0.0667  0.0074
72508W        W15602   6.552  19.247   7.794  0.1213  0.2964  0.1254
72509W        W15603   4.340  21.958   8.672 -0.0434  0.0477  0.2919
72510W        W15604   3.232  18.886   9.765  0.1754 -0.3317  0.1146
72511W        W15605   7.586  20.588   8.234  0.2584 -0.4878 -0.2481
72512W        W15606   6.466  20.027   9.640  0.1365  0.1679 -0.0186
72513W        W15607   5.730  21.504   9.574  0.1271 -0.1688  0.3999
72514W        W15608   4.389  19.859   8.308  0.1993  0.3458 -0.0949
72515W        W15609   6.741  19.509   6.273  0.0084 -0.3052 -0.0679
72516W        W15610   7.115  21.459   8.305  0.2525 -0.0212 -0.1105
72517W        W15611   6.178  21.300   7.843 -0.3366  0.0663  0.4762
72518W        W15612   3.784  20.344   9.158 -0.1749  0.0062 -0.1890
72519W        W15613   5.310  17.338   6.562 -0.2523 -0.1802 -0.1867
72520W        W15614   8.123  21.371   9.967  0.0522 -0.1162 -0.2022
72521W        W15615   5.700  20.879   9.199 -0.0309 -0.2938 -0.0423
72522W        W15616   8.009  21.997   9.868  0.0046 -0.0651 -0.0393
72523W        W15617   5.607  20.194   6.859 -0.3391  0.1446  0.1636
72524W        W15618   6.642  16.601   9.934  0.0724 -0.0877 -0.3033
72525W        W15619   7.274  20.316   8.607 -0.1144 -0.1697  0.0792
72526W        W15620   5.035  20.119   7.447  0.1446  0.1237 -0.1525
72527W        W15621   5.914  19.870   7.497 -0.0798  0.2810  0.1195
72528W        W15622   9.326  21.584   9.681 -0.0950 -0.0765 -0.0650
72529W        W15623   7.763  19.679   6.116  0.0432  0.0541 -0.2255
72530W        W15624   4.820  23.280   9.300  0.5745  0.0394 -0.0516
72531W        W15625   6.595  22.007   6.796 -0.0814  0.1644 -0.2391
72532W        W15626   4.422  22.288  10.186  0.1907  0.0450 -0.2897
72533W        W15627   4.385  20.517   8.293  0.0336  0.0116 -0.0026
72534W        W15628   1.822  18.097   9.764  0.0362 -0.0466 -0.1760
72535W        W15629   4.602  21.946   9.714  0.0826  0.4806  0.0379
72536W        W15630   7.365  18.378   7.931  0.2039  0.0100 -0.1822
72537W        W15631   7.387  18.299   8.460 -0.0492 -0.0645  0.0808
72538W        W15632   4.831  21.427   9.628 -0.1251 -0.1547 -0.0223
72539W        W15633   7.015  21.981   8.444 -0.4608 -0.1698 -0.0503
72540W        W15634   7.724  19.411   8.742  0.0984  0.0186 -0.0071
72541W        W15635   7.497  20.653   6.768  0.1350  0.2650  0.0953
72542W        W15636   4.592  19.328   8.936 -0.2649 -0.1528  0.1051
72543W        W15637   4.687  19.559   8.013  0.0238  0.3858  0.1123
72544W        W15638   6.097  17.160   8.370 -0.2599 -0.3753 -0.0039
72545W        W15639   5.301  19.353   7.287 -0.0070 -0.2308 -0.0541
72546W        W15640   7.133  19.905   9.344 -0.2087  0.0289 -0.0335
72547W        W15641   5.271  20.046   9.435  0.2112  0.1458 -0.0744
72548W        W15642   3.507  21.945   9.329  0.2497  0.1266 -0.3996
72549W        W15643   7.277  21.811   7.990  0.4829 -0.4265  0.2018
72550W        W15644   7.613  23.044   9.724  0.2222 -0.1096 -0.2989
72551W        W15645   6.545  22.561   9.271  0.2102 -0.1657 -0.0121
72552W        W15646   3.706  20.512  10.283 -0.0882  0.0586 -0.1198
72553W        W15647   5.231  21.160   7.505 -0.0942 -0.2505 -0.0990
72554W        W15648   3.854  23.742  10.177 -0.4127 -0.4385 -0.0912
72555W        W15649   5.972  21.306   9.028  0.2816 -0.1315 -0.4665
72556W        W15650   4.884  21.019   7.814 -0.0424  0.2305 -0.0537
72557W        W15651   7.346  21.934   9.086 -0.0073 -0.3169  0.2438
72558W        W15652   7.231  20.830   8.472 -0.0256  0.2736 -0.3120
72559W        W15653   6.156  19.782   9.280 -0.0934 -0.1838 -0.0933
72560W        W15654   5.235  21.304   8.422  0.1151  0.1301  0.2296
72561W        W15655   4.397  19.482   6.556 -0.1345  0.1593  0.0397
72562W        W15656   7.226  22.383   8.843 -0.1106  0.0890  0.1168
72563W        W15657   3.568  21.408   8.045  0.2660 -0.2845  0.1973
72564W        W15658   4.654  20.553   8.728  0.1578  0.0616 -0.1106
72565W        W15659   5.011  22.270   8.206  0.0585  0.1917  0.0979
72566W        W15660   6.896  18.893   9.549  0.3007 -0.1444  0.2494
72567W        W15661   5.003  19.961   7.902 -0.2415  0.1707 -0.2456
72568W        W15662   6.247  19.618   8.802  0.1637 -0.1266 -0.1340
72569W        W15663   7.674  18.691   8.252 -0.0764 -0.0957  0.3051
72570W        W15664   6.103  19.960   8.353 -0.4964  0.3293  0.0471
72571W        W15665   7.885  20.250   5.822  0.1369 -0.2403  0.1436
72572W        W15666   7.900  19.759   7.144  0.2131  0.2992 -0.1407
72573W        W15667   5.335  21.370   6.640 -0.1328 -0.0940 -0.0840
72574W        W15668   6.592  21.977   9.329  0.3080  0.2387  0.1636
72575W        W15669   6.403  19.352   8.354  0.2195  0.2339  0.1379
72576W        W15670   7.712  20.568   7.656 -0.0505  0.1367 -0.0751
72577W        W15671   5.669  19.941   7.964  0.2859  0.2037  0.0689
72578W        W15672   6.244  20.545   7.941  0.2730 -0.1743  0.0280
72579W        W15673   5.623  18.413   9.220 -0.1893  0.1993 -0.0703
72580W        W15674   4.908  19.826   6.080  0.2084 -0.0944  0.1891
72581W        W15675   6.065  19.184   7.898 -0.0199  0.2514  0.0650
72582W        W15676   3.529  22.267   7.431  0.2872  0.1683  0.2116
72583W        W15677   5.211  18.934   8.325 -0.1897  0.0568  0.0573
72584W        W15678   6.338  18.040   8.576 -0.0140 -0.1657 -0.0576
72585W        W15679   7.645  20.543   9.455 -0.1710  0.0800  0.1014
72586W        W15680   5.601  17.931   9.327 -0.1552  0.1007 -0.2160
72587W        W15681   3.506  19.548   6.321  0.0761  0.1459  0.2614
72588W        W15682   5.297  13.779   9.303  0.0350 -0.1592  0.2071
72589W        W15683   4.372  21.555   9.458 -0.1060  0.4442 -0.0875
72590W        W15684   6.579  19.894   8.462  0.0186  0.1237  0.1197
72591W        W15685   6.872  19.528   7.438 -0.4131 -0.0035 -0.2441
72592W        W15686   5.590  20.625   7.748 -0.1600  0.2867 -0.1972
72593W        W15687   5.769  21.401   8.167  0.0370 -0.3754  0.4114
72594W        W15688   5.453  17.490   9.038 -0.0366  0.1491  0.0950
72595W        W15689   6.477  21.151   9.548 -0.1305 -0.0317 -0.0198
72596W        W15690   5.502  20.789   7.263 -0.0985  0.0724 -0.2382
72597W        W15691   4.090  19.650   9.618  0.1824 -0.0911  0.0360
72598W        W15692   5.303  21.778   8.209 -0.2410  0.1592  0.0142
72599W        W15693   6.241  21.606   9.385  0.2997  0.1745  0.2056
72600W        W15694   5.812  21.862   9.894 -0.2904 -0.0580 -0.3958
72601W        W15695   4.497  20.727   7.228 -0.1784 -0.0604 -0.0182
72602W        W15696   3.047  20.809   9.091  0.3903 -0.0621 -0.1065
72603W        W15697   6.783  18.460   9.070 -0.1416  0.0946  0.0530
72604W        W15698   8.560  20.642   7.019 -0.2063 -0.1515  0.0849
72605W        W15699   6.387  19.201   9.708 -0.0508 -0.1535  0.0806
72606W        W15700   5.909  16.688   8.477  0.0031  0.0120  0.0771
72607W        W15701   4.369  18.149  10.071 -0.2954 -0.2205 -0.4917
72608W        W15702   7.889  18.886   8.614 -0.3899 -0.0037  0.0636
72609W        W15703   4.001  20.113   8.091  0.0451  0.0591 -0.1921
72610W        W15704   6.957  21.117   9.353  0.0883  0.0889  0.0610
72611W        W15705   5.350  20.846   8.622 -0.1028  0.1340  0.2152
72612W        W15706   4.579  20.838   9.087  0.0493  0.0594  0.1347
72613W        W15707   6.816  21.121   8.589 -0.2661  0.0568 -0.1101
72614W        W15708   4.760  19.641   7.558  0.3194 -0.0433 -0.0053
72615W        W15709   5.061  21.621   8.829 -0.2801  0.0786 -0.1895
72616W        W15710   6.793  21.481   9.729 -0.0376 -0.0131 -0.1613
72617W        W15711   6.016  17.880   8.174  0.1423  0.1397  0.2422
72618W        W15712   6.174  19.646   7.910 -0.4292  0.4292  0.0734
72619W        W15713   5.488  20.010   8.437 -0.1179 -0.0377  0.1446
72620W        W15714   7.171  21.538   8.804 -0.0052 -0.4128 -0.1141
72621W        W15715   7.090  20.470   9.384  0.1473 -0.1713  0.0178
72622W        W15716   7.972  15.956   8.785  0.0381 -0.2720 -0.1390
72623W        W15717   9.147  21.385   8.724 -0.0438  0.0253 -0.1498
72624W        W15718   4.737  20.115   6.447 -0.0342  0.0111 -0.2498
72625W        W15719   6.461  20.574   9.786  0.1076 -0.2174 -0.2060
72626W        W15720   4.479  21.489   7.805 -0.0459  0.2017 -0.1849
72627W        W15721   6.698  19.853   9.161  0.0942 -0.3349 -0.2765
72628W        W15722   5.922  20.018   8.783 -0.1454 -0.0724 -0.2132
72629W        W15723   3.976  21.980   9.528 -0.0534  0.0444  0.0794
72630W        W15724   6.016  20.962   9.593  0.5464  0.3295 -0.1699
72631W        W15725   7.314  17.898   6.458 -0.1854 -0.2429  0.1119
72632W        W15726   6.151  19.768   6.996 -0.0395 -0.2338 -0.1658
72633W        W15727   5.401  19.474   8.643  0.0570  0.1215 -0.0828
72634W        W15728   7.363  21.252   7.520  0.0814  0.3133 -0.0784
72635W        W15729   3.987  19.310  10.001  0.1477  0.1583 -0.0177
72636W        W15730   7.283  20.945   7.911  0.4248 -0.2709  0.0134
72637W        W15731   6.441  19.847   7.499 -0.2180  0.1166 -0.4532
72638W        W15732   4.965  18.773   7.842  0.1709 -0.4604 -0.2965
72639W        W15733   4.952  19.711   9.143 -0.0800  0.0617  0.0583
72640W        W15734   7.526  20.021   9.613  0.2296  0.0479 -0.0743
72641W        W15735   4.069  20.484   7.358  0.0164 -0.1832 -0.1003
72642W        W15736   5.496  19.547   9.348  0.0649 -0.1823 -0.1785
72643W        W15737   4.901  20.986   9.915  0.0086  0.2362  0.0380
72644W        W15738   7.695  19.112   9.168 -0.2243  0.1458  0.2874
72645W        W15739   5.501  20.261   7.369  0.1840  0.2147 -0.0691
72646W        W15740   6.526  21.059  10.061  0.0468  0.1067 -0.1373
72647W        W15741   7.939  20.244   9.942  0.1822 -0.2430  0.0968
72648W        W15742   6.070  17.945   8.988 -0.3725 -0.0889 -0.2739
72649W        W15743   8.307  21.446   9.524  0.1381  0.1484  0.0347
72650W        W15744   7.941  19.309   8.279 -0.0122  0.4169  0.0600
72651W        W15745   7.377  20.192   9.082 -0.0070  0.1490 -0.1553
72652W        W15746   8.293  20.162   9.589 -0.0597 -0.1066 -0.1954
72653W        W15747   7.504  20.320   7.292 -0.2412  0.1229  0.1409
72654W        W15748   5.023  18.688   8.730  0.1485  0.1664  0.1408
72655W        W15749   5.327  19.654   8.114 -0.1211 -0.0328 -0.1241
72656W        W15750   5.123  20.462   7.049 -0.1909 -0.1398  0.3164
72657W        W15751   6.689  20.684   8.673 -0.2348 -0.0220 -0.0172
72658W        W15752   6.478  18.127   8.057  0.2809 -0.3693  0.0064
72659W        W15753   2.881  19.436   8.213 -0.2800  0.4066 -0.1433
72660W        W15754   5.066  18.994   7.017 -0.1955 -0.0461  0.1582
72661W        W15755   6.661  19.683   8.007  0.0383 -0.0639  0.3603
72662W        W15756   6.414  21.284   8.797 -0.1396 -0.0681  0.0626
72663W        W15757   6.738  18.774   7.636 -0.2972 -0.1359 -0.2132
72664W        W15758   2.781  21.025   9.727  0.1337 -0.0058 -0.1242
72665W        W15759   4.753  19.206   9.873 -0.3428  0.2963 -0.1556
72666W        W15760   4.753  22.693   8.383 -0.1507  0.3328  0.2163
72667W        W15761   5.434  22.079   8.656 -0.3633  0.1522  0.1233
72668W        W15762   5.589  19.031   8.980 -0.1374 -0.0252  0.3551
72669W        W15763   6.540  20.406   9.329  0.2181 -0.2425 -0.2219
72670W        W15764   6.019  19.254   9.272  0.0555 -0.0645 -0.0359
72671W        W15765   5.837  20.394   8.207  0.0417  0.3385 -0.1163
72672W        W15766   8.152  20.541   8.088  0.2379 -0.0800  0.0320
72673W        W15767   4.754  21.806   9.213  0.4609  0.0734  0.0678
72674W        W15768   6.655  21.640   8.614  0.1785 -0.2605 -0.1119
72675W        W15769   5.060  19.308   7.850  0.2180 -0.0795 -0.0895
72676W        W15770   4.912  21.063   8.655  0.0906  0.1661  0.1482
72677W        W15771   3.420  20.760   9.882 -0.1739 -0.3699  0.1283
72678W        W15772   5.400  22.200   7.857  0.0899  0.1658 -0.1620
72679W        W15773   7.315  21.007   7.063 -0.1893  0.0944 -0.2079
72680W        W15774   7.532  19.657   9.196  0.0023 -0.2372 -0.0996
72681W        W15775   6.686  21.491   9.197 -0.1665  0.1662 -0.1142
72682W        W15776   6.942  19.186   8.383  0.1340  0.1626 -0.1295
72683W        W15777   4.365  21.602   8.319  0.1068 -0.1578 -0.1849
72684W        W15778   3.936  21.429   7.613 -0.0031 -0.1469 -0.4468
72685W        W15779   7.653  21.903   6.987  0.0207 -0.0894 -0.1865
72686W        W15780   4.306  22.354   9.704  0.3923 -0.0970 -0.0634
72687W        W15781   6.258  18.381   6.693  0.2596 -0.1488 -0.1810
72688W        W15782   7.223  21.530   9.342  0.3666  0.1711 -0.1122
72689W        W15783   6.429  20.390   8.391  0.1458 -0.4945 -0.1721
72690W        W15784   5.785  18.596   7.629 -0.1046 -0.0056 -0.0918
72691W        W15785   8.605  22.676   8.607  0.3658 -0.0631  0.1201
72692W        W15786   4.213  19.832   7.560  0.0139  0.1292  0.1479
72693W        W15787   4.297  19.172   9.635 -0.1100  0.0813  0.1462
72694W        W15788   7.025  19.017   9.013 -0.1741  0.0294 -0.0366
72695W        W15789   4.265  20.061   7.070  0.0380  0.1615 -0.0732
72696W        W15790   7.264  19.395   8.804 -0.1904  0.1055 -0.2589
72697W        W15791   5.607  22.431   8.238 -0.1904  0.0125 -0.0026
72698W        W15792   4.852  21.793   8.412 -0.0365 -0.1543 -0.0837
72699W        W15793   6.095  21.354   9.877  0.1655 -0.1782  0.1410
72700W        W15794   3.971  20.138   8.679 -0.2323 -0.2065  0.1885
72701W        W15795   7.924  19.260  10.010 -0.0167 -0.1180  0.0160
72702W        W15796   5.531  18.094   9.808  0.2735  0.2246 -0.2274
72703W        W15797   6.254  21.019   8.414 -0.1050 -0.0416  0.0047
72704W        W15798   7.489  18.871   8.824  0.1058  0.2800 -0.1618
72705W        W15799   4.865  21.259   9.137 -0.0634  0.0502  0.1654
72706W        W15800   6.511  20.099  10.158  0.1021 -0.1569 -0.1448
72707W        W15801   6.039  20.107   6.620  0.0598  0.2744 -0.0383
72708W        W15802   7.212  20.488   7.683 -0.3317 -0.2048 -0.1539
72709W        W15803   4.670  18.811   9.104 -0.0131 -0.2864  0.0512
72710W        W15804   6.610  19.623   7.047 -0.0675 -0.1016 -0.0407
72711W        W15805   5.215  20.378   8.646  0.2803  0.0218 -0.1158
72712W        W15806   5.818  17.630   9.695  0.0689  0.0056 -0.0808
72713W        W15807   5.040  17.924   7.845  0.0059  0.0247 -0.3244
72714W        W15808   7.149  19.669   8.373 -0.0936  0.0908  0.0226
72715W        W15809   5.415  19.900   8.980 -0.2140  0.1520  0.0834
72716W        W15810   7.111  23.007   7.412 -0.1553 -0.0827 -0.0721
72717W        W15811   7.175  20.785   8.981  0.1678  0.1842 -0.0180
72718W        W15812   7.767  21.419   9.395 -0.1085 -0.3362 -0.1561
72719W        W15813   4.738  19.246   9.384 -0.2762  0.0829 -0.0265
72720W        W15814   6.728  22.536   8.823 -0.1598 -0.0653  0.1318
72721W        W15815   8.720  20.461   9.607  0.1856  0.2973 -0.0773
72722W        W15816   6.065  18.419   8.243 -0.1577 -0.0291 -0.0856
72723W        W15817   5.648  17.139   8.666  0.3033  0.1660 -0.0296
72724W        W15818   4.225  21.901   7.703 -0.1605 -0.2551  0.0404
72725W        W15819   8.274  20.705   9.832 -0.1492 -0.2617 -0.2084
72726W        W15820   4.821  20.214   8.305 -0.0301 -0.3825  0.0030
72727W        W15821   6.450  18.902   9.261 -0.0775 -0.0010 -0.1972
72728W        W15822   4.947  20.724   8.324 -0.0472  0.0126  0.1314
72729W        W15823   7.302  20.196   6.683 -0.0597 -0.0731 -0.1034
72730W        W15824   5.732  21.753   9.097 -0.3123 -0.1456  0.5081
72731W        W15825   7.873  22.234   8.596  0.1251 -0.4103 -0.1744
72732W        W15826   5.744  20.537   8.707  0.0205  0.0461  0.0947
72733W        W15827   8.336  21.705   8.868 -0.0031  0.0294 -0.0050
72734W        W15828   5.463  17.659   8.363 -0.1477  0.0917  0.1025
72735W        W15829   6.878  17.372   8.667  0.1887 -0.1416  0.1932
72736W        W15830   6.533  18.480   8.625 -0.2803 -0.0042  0.0228
72737W        W15831   5.785  20.067   9.352  0.1298 -0.2007 -0.2864
72738W        W15832   3.478  19.954   8.903 -0.0460  0.1194  0.0551
72739W        W15833   4.354  21.585   7.275 -0.0146  0.0326 -0.2458
72740W        W15834   4.525  21.033   9.537  0.1239  0.1432  0.2660
72741W        W15835   4.435  19.860   8.856 -0.0053  0.0588  0.1245
72742W        W15836   5.297  19.887   6.981  0.0414 -0.2394 -0.0898
72743W        W15837   7.522  21.798   8.561 -0.1349 -0.0529  0.0428
72744W        W15838   4.192  18.862  10.072  0.0490 -0.2603 -0.0412
72745W        W15839   4.687  18.178   8.700 -0.1297 -0.1426 -0.0107
72746W        W15840   6.675  20.787   8.112  0.0512  0.3644 -0.0713
72747W        W15841   7.715  21.451   7.825 -0.0325 -0.1484  0.2281
72748W        W15842   7.151  18.851   8.015  0.1630  0.5271 -0.1248
72749W        W15843   2.937  20.475   7.271  0.1335 -0.2439 -0.3217
72750W        W15844   4.473  20.065   7.913  0.1014  0.1878  0.3241
72751W        W15845   5.766  19.567   8.929  0.0249  0.3412  0.1101
72752W        W15846   5.781  21.108   8.598 -0.0983  0.1141  0.0674
72753W        W15847   6.755  20.307   7.805  0.1587  0.2310 -0.0156
72754W        W15848   5.891  19.469   8.350 -0.2956 -0.1285 -0.0537
72755W        W15849   8.011  20.272   7.331 -0.2234  0.0584 -0.2949
72756W        W15850   7.831  20.165   7.936  0.2194  0.1093 -0.1689
72757W        W15851   6.256  19.636  10.047 -0.0612 -0.2737  0.1159
72758W        W15852   6.323  20.072   7.921  0.5788 -0.0064 -0.2216
72759W        W15853   8.551  22.782   9.666  0.3448 -0.1166 -0.2129
72760W        W15854   4.526  19.083   8.061  0.0052  0.2326  0.0326
72761W        W15855   6.176  18.891   8.378 -0.0065  0.0623 -0.0330
72762W        W15856   6.540  20.434   7.399  0.0676 -0.2133  0.1843
72763W        W15857   4.596  20.530   9.492  0.0330  0.3286  0.0046
72764W        W15858   7.551  18.413   7.335  0.1696  0.1735  0.1281
72765W        W15859   5.088  20.537   9.494 -0.0192 -0.1266  0.2921
72766W        W15860   4.579  20.242   7.392  0.2470 -0.0215  0.0387
72767W        W15861   7.589  19.883   8.616 -0.1482 -0.4495  0.3211
72768W        W15862   6.028  20.498   9.302  0.2738 -0.0184 -0.0663
72769W        W15863   7.358  20.924   9.708  0.1961 -0.3184 -0.1646
72770W        W15864   8.860  20.217  10.253  0.1195 -0.3978 -0.1778
72771W        W15865   5.232  18.453   9.637 -0.0647  0.2179 -0.0569
72772W        W15866   4.817  20.411   7.833  0.1247 -0.1000  0.0975
72773W        W15867   5.325  20.776   9.933 -0.0020  0.1333 -0.1828
72774W        W15868   8.696  18.192  12.076  0.2708  0.0495  0.2015
72775W        W15869   5.615  18.606   8.153 -0.2796  0.0640  0.2261
72776W        W15870   6.995  18.509   7.353 -0.1094  0.0241  0.2529
72777W        W15871   4.302  23.392   9.469 -0.0057 -0.0690  0.1650
72778W        W15872   6.366  20.239   8.844  0.0623 -0.2128 -0.0214
72779W        W15873   5.499  24.549   3.252  0.1183 -0.0273 -0.1315
72780W        W15874   3.941  21.911  31.834  0.1445  0.1095  0.0031
72781W        W15875   7.649  21.258  30.056 -0.0834 -0.1654 -0.0465
72782W        W15876   5.773  21.497   2.395 -0.1449 -0.1361 -0.0293
72783W        W15877   3.711  24.748  31.945 -0.2123  0.0173 -0.0494
72784W        W15878   5.913  25.019   0.418  0.1100 -0.0844  0.0911
72785W        W15879   5.208  22.201   2.948  0.2474 -0.1706 -0.0818
72786W        W15880   6.408  24.391   2.691 -0.1466 -0.1394 -0.0800
72787W        W15881   7.181  25.203   2.551  0.0796  0.2236 -0.0285
72788W        W15882   6.296  23.724   0.289 -0.1392 -0.2793 -0.0496
72789W        W15883   5.471  21.826   2.677 -0.2396 -0.1976 -0.0082
72790W        W15884   3.796  23.307   3.169  0.0669  0.1681  0.2106
72791W        W15885   5.007  21.591  31.686  0.0504  0.1148  0.3538
72792W        W15886   4.149  21.689   0.829 -0.1036  0.2960 -0.0109
72793W        W15887   7.338  24.708   3.869 -0.0738  0.0188 -0.0331
72794W        W15888   5.084  23.799   1.317 -0.1250  0.4356  0.0626
72795W        W15889   4.740  23.485   1.601 -0.0381 -0.3135 -0.0231
72796W        W15890   5.514  21.690   0.930  0.0609 -0.2513  0.1474
72797W        W15891   6.224  26.007   2.017 -0.2584 -0.2937 -0.0561
72798W        W15892   5.015  23.663   3.348  0.1442 -0.0487 -0.1861
72799W        W15893   7.152  22.432   3.289  0.3440 -0.2339  0.4422
72800W        W15894   4.509  24.473   2.262  0.1183  0.2272 -0.2946
72801W        W15895   6.023  23.389  31.419 -0.1149 -0.1987 -0.2821
72802W        W15896   3.228  22.567   1.433 -0.0335 -0.2548  0.0966
72803W        W15897   4.775  23.736   2.527 -0.1244  0.1002  0.0120
72804W        W15898   7.062  22.739   1.876  0.0863  0.2373  0.1232
72805W        W15899   6.534  22.033   1.129  0.0976  0.0974  0.2452
72806W        W15900   5.915  25.850   2.385 -0.1836  0.0442 -0.0112
72807W        W15901   5.426  25.031   1.924 -0.0506 -0.1815  0.3034
72808W        W15902   7.139  23.178   3.668  0.1195  0.0133  0.1257
72809W        W15903   2.905  23.514  31.943  0.0600  0.4679 -0.1083
72810W        W15904   3.144  25.588   0.181 -0.1294  0.1689 -0.0685
72811W        W15905   5.379  24.062   0.996 -0.0132  0.0793 -0.2746
72812W        W15906   7.432  23.909  31.897 -0.1753  0.2876  0.1669
72813W        W15907   6.459  25.824   3.665  0.1628 -0.1191 -0.0656
72814W        W15908   5.554  25.475   2.427  0.0570  0.2358 -0.0063
72815W        W15909   4.966  25.174  30.717  0.0919 -0.0256 -0.3740
72816W        W15910   5.986  24.958   2.739 -0.2356  0.1714  0.2491
72817W        W15911   4.636  24.729   3.844 -0.1622 -0.0840 -0.2724
72818W        W15912   5.915  22.765   2.386  0.1772  0.0082 -0.1182
72819W        W15913   7.045  23.207   1.672  0.2998  0.1817 -0.0572
72820W        W15914   5.651  23.609   1.310 -0.1969 -0.1516 -0.0224
72821W        W15915   5.869  23.587   1.851  0.0877  0.1737  0.1213
72822W        W15916   3.798  24.390   3.820  0.0810 -0.0345 -0.1128
72823W        W15917   2.754  23.944   0.809 -0.2950 -0.2265  0.0179
72824W        W15918   6.398  23.958   4.557  0.1062  0.1562 -0.1011
72825W        W15919   4.624  25.311   1.364  0.0928  0.6748 -0.2775
72826W        W15920   6.076  22.435   0.440 -0.2547  0.1247  0.4588
72827W        W15921   4.989  23.949  31.596  0.1735 -0.0870  0.0339
72828W        W15922   6.144  22.321   1.423 -0.0997 -0.5127 -0.2806
72829W        W15923   4.849  21.504   2.277  0.0476  0.1260  0.2469
72830W        W15924   4.330  25.141   3.811  0.0964  0.0655 -0.4166
72831W        W15925   6.776  21.959   2.709 -0.0886  0.0114  0.4174
72832W        W15926   5.242  24.166   3.472 -0.1816 -0.0016  0.2333
72833W        W15927   6.084  21.947   0.997 -0.2923  0.3010  0.4418
72834W        W15928   5.879  22.906   3.103  0.2075 -0.2595 -0.2237
72835W        W15929   4.615  23.908   3.196  0.1016 -0.1215 -0.1748
72836W        W15930   4.056  23.707   2.069 -0.4430  0.1849 -0.2986
72837W        W15931   7.399  26.217  31.738 -0.0331  0.0530  0.3314
72838W        W15932   7.923  23.442   1.535 -0.0086 -0.0630 -0.1709
72839W        W15933   6.153  23.633   1.437  0.1875 -0.2761  0.0314
72840W        W15934   3.776  23.787   0.624  0.1195  0.0844 -0.0184
72841W        W15935   2.404  25.052   3.339  0.1122  0.0435  0.2547
72842W        W15936   2.665  22.371   2.431  0.2921  0.0110 -0.0478
72843W        W15937   5.639  22.135  31.095  0.2432 -0.1208 -0.1396
72844W        W15938   6.812  23.920   2.360 -0.1174  0.1851 -0.0011
72845W        W15939   7.086  22.112   1.754  0.1001  0.0497  0.0178
72846W        W15940   4.447  25.056   2.324  0.0133 -0.1017  0.0018
72847W        W15941   6.767  25.250   3.112 -0.3966 -0.0145 -0.0016
72848W        W15942   5.623  22.735   0.548  0.1205  0.2224 -0.0305
72849W        W15943   6.166  22.280   1.964 -0.1095 -0.1278  0.2512
72850W        W15944   6.964  20.925   1.759  0.0475  0.1616 -0.0205
72851W        W15945   5.135  23.698   0.652  0.2571 -0.2315  0.1223
72852W        W15946   6.727  23.479   2.073 -0.0777 -0.2847 -0.2834
72853W        W15947   6.647  25.153   2.274 -0.1137 -0.0230  0.0639
72854W        W15948   6.521  22.592  31.612  0.2775  0.1902  0.0075
72855W        W15949   3.573  25.679   2.754 -0.2807  0.0854  0.0615
72856W        W15950   5.082  23.948   2.880  0.1683  0.0670 -0.1994
72857W        W15951   5.327  23.374   3.004  0.2636  0.2601 -0.0294
72858W        W15952   4.590  25.442  31.515  0.1239 -0.1113  0.2728
72859W        W15953   2.497  24.327   0.949 -0.2364 -0.0409  0.2302
72860W        W15954   5.643  23.896   0.374  0.0977 -0.0136  0.0458
72861W        W15955   3.464  22.816   3.200  0.0149  0.2159  0.1530
72862W        W15956   4.901  23.506   2.103  0.0101 -0.0433 -0.0206
72863W        W15957   6.310  21.693   2.264  0.0488  0.1902  0.1354
72864W        W15958   3.444  22.497   1.924 -0.0268 -0.2267 -0.0066
72865W        W15959   6.675  21.448   2.590 -0.1354 -0.2214  0.1137
72866W        W15960   4.299  24.333   0.902  0.2912 -0.1302  0.0218
72867W        W15961   6.100  25.599   1.588  0.2616  0.2838 -0.2256
72868W        W15962   7.596  21.574  31.830 -0.0994 -0.0042 -0.0223
72869W        W15963   7.875  23.615  31.918  0.3702 -0.0999  0.0426
72870W        W15964   3.858  22.880   2.775 -0.0926  0.0594  0.1006
72871W        W15965   4.671  24.594   0.478 -0.0076 -0.0446 -0.0574
72872W        W15966   5.304  22.017   4.279 -0.1605 -0.3362 -0.1754
72873W        W15967   3.294  21.926   0.954  0.0667 -0.1270 -0.3866
72874W        W15968   7.072  21.888   4.115  0.1152  0.0299 -0.0654
72875W        W15969   3.096  21.628  31.609 -0.2420  0.0505 -0.0773
72876W        W15970   3.726  22.189   1.652 -0.1357 -0.2581 -0.0010
72877W        W15971   5.391  23.809   2.135 -0.2036 -0.2361 -0.0172
72878W        W15972   3.064  23.350   1.787 -0.1735 -0.0303  0.2555
72879W        W15973   6.643  22.891   2.650 -0.1419 -0.2766 -0.1394
72880W        W15974   6.045  24.131   2.807 -0.1097 -0.0355  0.1455
72881W        W15975   6.761  25.660   2.190 -0.1755  0.2794 -0.1509
72882W        W15976   6.776  24.829   1.914  0.1685  0.0548 -0.1378
72883W        W15977   5.859  23.096   2.003 -0.0656  0.0996 -0.3576
72884W        W15978   3.414  22.535  31.921  0.1532  0.1831 -0.0776
72885W        W15979   4.235  25.171   1.849  0.1437 -0.1519  0.1980
72886W        W15980   4.964  24.366   1.390 -0.1757  0.1115  0.1539
72887W        W15981   4.663  22.408   0.299 -0.1652 -0.0002  0.2573
72888W        W15982   7.188  24.290   1.107  0.1747  0.5544  0.4111
72889W        W15983   5.029  21.876   0.986 -0.0337  0.0549 -0.1207
72890W        W15984   4.738  23.438   2.975  0.2774  0.2374  0.1662
72891W        W15985   6.026  21.943   3.547  0.0846  0.3189  0.0012
72892W        W15986   7.748  23.995   2.380  0.0406  0.1949 -0.1184
72893W        W15987   6.948  23.931   1.879  0.1007 -0.1052  0.5036
72894W        W15988   4.467  21.329   0.920  0.1253  0.0571  0.0434
72895W        W15989   5.514  24.669   1.489  0.0565 -0.1201  0.0991
72896W        W15990   6.125  25.761   1.010 -0.0414 -0.3355  0.3891
72897W        W15991   3.333  23.401   0.113 -0.0941 -0.2877 -0.0212
72898W        W15992   5.879  24.100   1.791  0.1056  0.0619 -0.0797
72899W        W15993   7.101  21.156   2.599 -0.1396 -0.0530 -0.0590
72900W        W15994   2.928  24.024   3.866  0.2069 -0.4188  0.0754
72901W        W15995   6.681  22.829   3.690  0.0837  0.4013 -0.1667
72902W        W15996   2.305  24.088   0.515 -0.0167  0.5372 -0.0500
72903W        W15997   4.277  23.168   2.751 -0.2573  0.0035  0.3125
72904W        W15998   5.280  22.146   1.720 -0.3927 -0.0531 -0.1398
72905W        W15999   5.259  22.139  29.612  0.0184  0.0253  0.2039
72906W        W16000   6.375  23.923   1.841 -0.1618 -0.2001 -0.0320
72907W        W16001   7.689  25.024   1.073 -0.1997 -0.2517 -0.0018
72908W        W16002   6.826  21.639  29.887 -0.3304 -0.1254  0.2848
72909W        W16003   6.254  21.591  31.773 -0.1758 -0.0562 -0.2014
72910W        W16004   4.232  25.014   2.855 -0.1319 -0.0347 -0.1423
72911W        W16005   5.821  24.257   1.219 -0.0800 -0.4289 -0.3601
72912W        W16006   4.293  24.301   3.165 -0.1071 -0.0506 -0.3432
72913W        W16007   6.481  22.613   2.176 -0.0361 -0.1920 -0.1056
72914W        W16008   6.749  24.902   1.401 -0.1836  0.0764 -0.0019
72915W        W16009   3.464  23.445   2.177 -0.5262  0.3025 -0.2309
72916W        W16010   5.616  24.023   3.115 -0.0198  0.1051  0.1365
72917W        W16011   7.206  25.951   0.571 -0.3108  0.0491 -0.2831
72918W        W16012   5.760  20.623   3.489 -0.0165 -0.2455 -0.1619
72919W        W16013   5.291  21.996  31.740 -0.2570 -0.2429  0.1825
72920W        W16014   5.291  21.745   2.148  0.1563 -0.3754 -0.4506
72921W        W16015   3.295  25.076  31.166  0.0641  0.1343 -0.3340
72922W        W16016   5.960  21.618   3.191  0.3428 -0.2295  0.0123
72923W        W16017   5.718  20.601   1.960  0.1204  0.1379 -0.0221
72924W        W16018   4.201  21.556   2.339 -0.1975 -0.2541  0.0449
72925W        W16019   5.119  24.428   4.445 -0.0816 -0.0163 -0.1013
72926W        W16020   6.368  23.216   0.194 -0.1635 -0.2501 -0.0289
72927W        W16021   4.974  23.080   1.857  0.0226 -0.1102 -0.1482
72928W        W16022   4.049  22.945  30.678 -0.2532  0.2006  0.3300
72929W        W16023   5.655  22.408   3.345  0.0974  0.0123  0.0658
72930W        W16024   3.506  23.854   3.197  0.4138 -0.3230 -0.4293
72931W        W16025   4.272  25.762   3.822  0.1471 -0.0226  0.2393
72932W        W16026   5.870  25.272   3.121  0.3661 -0.2583 -0.0549
72933W        W16027   5.413  24.190   1.584 -0.0792 -0.2467 -0.0980
72934W        W16028   6.377  23.091   2.257  0.3367  0.1615  0.2516
72935W        W16029   5.353  21.670   1.408 -0.0788  0.0762  0.0307
72936W        W16030   5.252  25.840   1.691  0.0002  0.0310 -0.1019
72937W        W16031   4.844  23.196   0.076  0.0122  0.2224  0.1193
72938W        W16032   4.837  21.050   2.610 -0.1052 -0.0763  0.1964
72939W        W16033   4.678  24.715   2.814 -0.2005 -0.1980  0.0113
72940W        W16034   4.369  23.152   1.250 -0.2789 -0.1211 -0.0113
72941W        W16035   4.570  24.207   2.721 -0.1414  0.0601 -0.0556
72942W        W16036   3.885  24.453   1.237  0.0102  0.0577 -0.4284
72943W        W16037   7.158  20.874   3.096  0.2666 -0.1313 -0.1543
72944W        W16038   4.169  24.382   1.842  0.2360 -0.0272 -0.1445
72945W        W16039   4.930  22.535  30.400 -0.1301 -0.2070 -0.2373
72946W        W16040   3.841  23.417   0.240  0.0480  0.2498  0.2831
72947W        W16041   6.799  21.764   1.445 -0.4601  0.0348 -0.0904
72948W        W16042   7.333  22.628  31.874  0.0917  0.3131  0.1261
72949W        W16043   4.406  22.580   2.049  0.0613  0.1912  0.1244
72950W        W16044   5.563  22.627   2.776  0.0240 -0.0137  0.0875
72951W        W16045   3.574  25.207   1.402  0.1364 -0.1603 -0.0274
72952W        W16046   6.322  23.715   3.671  0.0885 -0.0133 -0.1114
72953W        W16047   5.937  21.743  31.209  0.3028 -0.2119 -0.2871
72954W        W16048   5.428  24.120   2.542  0.0563 -0.2029  0.1023
72955W        W16049   4.836  22.934   3.090 -0.0821  0.2702  0.1867
72956W        W16050   4.270  22.006   0.351  0.1396 -0.1814  0.1176
72957W        W16051   8.140  23.282   1.160  0.0375 -0.2560  0.0460
72958W        W16052   5.652  22.539   2.008  0.0968 -0.0592  0.1923
72959W        W16053   4.791  25.599   1.728  0.2210 -0.1096  0.2305
72960W        W16054   4.664  24.283   3.522 -0.1257 -0.0886  0.0963
72961W        W16055   4.266  23.223   0.037 -0.2339  0.0046  0.0579
72962W        W16056   4.290  24.308   0.354  0.3238 -0.2879  0.0752
72963W        W16057   5.559  23.652   2.685 -0.0207  0.1405  0.0387
72964W        W16058   7.582  24.016   2.858  0.1998  0.1564 -0.2552
72965W        W16059   3.949  22.347   2.169  0.2292 -0.1335 -0.2769
72966W        W16060   5.464  20.817   2.283  0.3749 -0.1363  0.0827
72967W        W16061   4.488  22.931   1.720  0.0587 -0.0097 -0.0080
72968W        W16062   7.123  24.754   1.070 -0.2813 -0.0754  0.1084
72969W        W16063   5.783  23.367   3.073  0.0666 -0.0410  0.0424
72970W        W16064   3.030  23.819   3.407 -0.0552  0.3556 -0.1653
72971W        W16065   6.025  21.782   2.675 -0.0522 -0.3388  0.0192
72972W        W16066   7.161  24.963  31.147  0.1149 -0.1921 -0.0722
72973W        W16067   6.157  23.064   2.723 -0.0823 -0.4460 -0.0380
72974W        W16068   3.829  24.270   0.716 -0.2573 -0.0982 -0.3688
72975W        W16069   1.617  23.377   2.190 -0.0573 -0.0549 -0.1750
72976W        W16070   5.194  24.309   0.579  0.1395 -0.1674  0.2338
72977W        W16071   5.780  22.143   2.965 -0.2686  0.4532 -0.1579
72978W        W16072   3.353  23.816   1.838 -0.0227  0.0396 -0.0137
72979W        W16073   5.592  23.246   0.989  0.3858  0.1441 -0.0094
72980W        W16074   4.171  24.593   2.639  0.2250 -0.0281 -0.1116
72981W        W16075   7.050  22.264   0.186  0.4722  0.2543 -0.1341
72982W        W16076   5.345  23.657   1.690  0.3794  0.1557  0.0625
72983W        W16077   4.969  24.157   2.354  0.0908 -0.0723  0.1363
72984W        W16078   6.378  22.870   3.124 -0.1634  0.1639  0.0821
72985W        W16079   6.665  22.132   2.107 -0.5125  0.1866 -0.2791
72986W        W16080   6.047  22.523   2.888  0.0301 -0.0492  0.1743
72987W        W16081   4.387  22.081   2.116  0.2320 -0.0716 -0.1759
72988W        W16082   7.588  24.857   2.689 -0.2389 -0.0588  0.1706
72989W        W16083   3.306  23.405   3.169  0.0278 -0.1336  0.3057
72990W        W16084   5.459  25.271   4.584 -0.0919  0.0415  0.0027
72991W        W16085   3.003  24.892   1.292  0.2481 -0.1449 -0.0831
72992W        W16086   6.333  22.170   2.623  0.0112 -0.1471 -0.2272
72993W        W16087   4.123  22.808   0.995  0.2634  0.3465 -0.0757
72994W        W16088   4.799  22.871   2.244 -0.2471  0.1261  0.0288
72995W        W16089   7.362  24.326   2.528 -0.2779  0.0997  0.0474
72996W        W16090   4.978  23.936   1.829 -0.0411 -0.0218 -0.3685
72997W        W16091   8.010  21.889   1.009  0.1791 -0.2860 -0.0520
72998W        W16092   3.888  23.219   2.344 -0.1703 -0.1707  0.1361
72999W        W16093   5.937  23.398   2.374  0.0195 -0.2608  0.0641
73000W        W16094   4.470  22.905   0.376 -0.0035 -0.1541 -0.0337
73001W        W16095   4.851  24.840   1.277 -0.1784 -0.1323 -0.0916
73002W        W16096   3.674  23.484   1.652 -0.0611 -0.2996 -0.2458
73003W        W16097   7.420  24.192   2.053 -0.1358 -0.1028  0.2284
73004W        W16098   7.652  22.377   2.940 -0.0952  0.1098  0.0351
73005W        W16099   7.342  22.744   2.362 -0.1833  0.2278 -0.1092
73006W        W16100   6.289  23.084   4.435 -0.0233 -0.0887 -0.0849
73007W        W16101   4.525  24.813   3.381 -0.0276  0.0939 -0.0355
73008W        W16102   4.775  22.762   3.633  0.0848 -0.1312  0.0699
73009W        W16103   7.300  26.972   1.890  0.3792  0.0570  0.0111
73010W        W16104   6.681  22.380   1.672  0.0748 -0.0546 -0.2081
73011W        W16105   7.683  22.673   1.984 -0.1961 -0.3735  0.0294
73012W        W16106   7.013  21.418   3.275  0.3288 -0.2007 -0.0559
73013W        W16107   6.427  22.539   0.824 -0.2369  0.0030 -0.2557
73014W        W16108   3.974  23.087   0.601 -0.0803 -0.0476  0.1705
73015W        W16109   5.487  23.569   3.420  0.0123  0.0779  0.3000
73016W        W16110   4.908  22.368  31.784 -0.0040  0.0086  0.1096
73017W        W16111   6.649  22.444   2.998  0.2680 -0.0906 -0.1196
73018W        W16112   5.425  23.497   0.109  0.0266  0.0435 -0.0869
73019W        W16113   5.913  23.875   0.845 -0.0365 -0.1335 -0.0852
73020W        W16114   7.325  21.719   2.366  0.2355  0.1487  0.4481
73021W        W16115   4.431  23.672   1.197  0.2592 -0.4918  0.2772
73022W        W16116   4.518  25.372   4.198 -0.0004  0.0533 -0.0679
73023W        W16117   3.705  23.196  31.765 -0.0332 -0.0773 -0.0746
73024W        W16118   5.531  23.008   0.115 -0.2165 -0.0788  0.1233
73025W        W16119   6.202  24.472   3.128 -0.0106  0.0726  0.2345
73026W        W16120   6.012  23.933   4.021 -0.1271  0.2386 -0.2518
73027W        W16121   5.308  21.493   0.078  0.1477  0.0772 -0.1170
73028W        W16122   7.059  23.397   3.174  0.2067  0.2044  0.3426
73029W        W16123   4.560  25.464   0.717  0.1753  0.0285  0.0273
73030W        W16124   6.020  21.073   2.253  0.1141 -0.3681  0.1007
73031W        W16125   5.597  24.026   3.790 -0.1021  0.2783 -0.1789
73032W        W16126   1.672  25.678   2.770  0.0806 -0.3074  0.0179
73033W        W16127   4.558  23.944   2.120  0.0752 -0.1509  0.0959
73034W        W16128   3.285  21.726   2.406 -0.2466 -0.0207  0.0613
73035W        W16129   5.928  23.177   1.444  0.3059  0.0086 -0.3908
73036W        W16130   6.678  23.602   1.607  0.0069  0.0858  0.0835
73037W        W16131   6.753  23.785   3.364 -0.0078  0.2416  0.1447
73038W        W16132   5.531  24.942   2.964  0.1279  0.1163  0.2542
73039W        W16133   4.887  21.993   2.006  0.2444 -0.0661 -0.2593
73040W        W16134   5.593  24.686   2.371  0.1626 -0.0704 -0.3460
73041W        W16135   7.366  23.210   2.118  0.0709 -0.5561 -0.0556
73042W        W16136   5.424  25.060   1.261 -0.2294 -0.2077  0.1018
73043W        W16137   2.855  23.283   3.484  0.0125 -0.0420 -0.1339
73044W        W16138   4.775  22.422   2.946  0.2751 -0.3510 -0.2407
73045W        W16139   5.612  23.144   2.687 -0.1645  0.2132  0.2351
73046W        W16140   3.328  21.498   0.027 -0.0114  0.0398 -0.0686
73047W        W16141   4.887  23.065   0.614 -0.0325 -0.1461  0.0727
73048W        W16142   2.850  25.097   3.663 -0.2009 -0.2964 -0.0675
73049W        W16143   3.314  23.704   2.773  0.1454  0.3014  0.0632
73050W        W16144   5.888  25.003   1.583  0.0327  0.1875  0.1775
73051W        W16145   6.944  23.133   1.166 -0.3179 -0.2410 -0.0315
73052W        W16146   5.203  23.237   1.440 -0.3349  0.0191  0.0393
73053W        W16147   5.309  25.369   2.857  0.0294  0.1877  0.2455
73054W        W16148   5.889  21.778   0.583 -0.0705 -0.0479 -0.0393
73055W        W16149   2.846  24.849   2.218  0.2907 -0.0341  0.4262
73056W        W16150   4.784  24.446   0.940  0.2934 -0.1116  0.0876
73057W        W16151   6.125  24.572   0.740  0.0569  0.1094 -0.1131
73058W        W16152   3.749  23.905   2.426 -0.1950  0.0156 -0.2085
73059W        W16153   6.451  24.674   3.562 -0.0934 -0.2057 -0.2187
73060W        W16154   6.063  22.947   0.540 -0.1323  0.3784 -0.1579
73061W        W16155   8.180  23.422   3.597  0.1690 -0.0681 -0.1582
73062W        W16156   7.867  21.751   2.095 -0.1412 -0.1410 -0.1291
73063W        W16157   6.469  24.083   4.032 -0.0738  0.0537  0.1442
73064W        W16158   4.412  23.339   2.101  0.1551 -0.2167  0.0073
73065W        W16159   6.486  22.151  31.834 -0.0883 -0.0580 -0.0450
73066W        W16160   5.189  24.489   3.959  0.1745 -0.0312 -0.0598
73067W        W16161   7.403  23.010   3.225 -0.1097  0.0323 -0.0910
73068W        W16162   2.708  24.587   2.823 -0.1480 -0.2082  0.1909
73069W        W16163   7.033  24.830  31.762 -0.1712 -0.1236  0.0546
73070W        W16164   4.457  24.000  31.393  0.0540 -0.0291 -0.2013
73071W        W16165   5.066  23.299   2.526  0.0824  0.1014 -0.1775
73072W        W16166   8.027  21.918   3.281  0.2330 -0.3330  0.1162
73073W        W16167   5.921  23.709  31.937  0.0255  0.2565 -0.0374
73074W        W16168   5.048  21.565   2.900 -0.1785 -0.3880 -0.3576
73075W        W16169   5.494  25.422   1.631 -0.0146  0.0544 -0.1830
73076W        W16170   4.149  24.125   2.315  0.1141 -0.3509  0.0891
73077W        W16171   4.829  25.191   2.615 -0.0970 -0.2705  0.0550
73078W        W16172   2.616  21.309  31.624  0.1072 -0.1388 -0.1853
73079W        W16173   9.307  21.785   1.399 -0.1716 -0.1538  0.0023
73080W        W16174   5.069  22.762   2.711  0.2683 -0.1151 -0.1488
73081W        W16175   6.922  21.927   3.355 -0.1955 -0.0385 -0.1316
73082W        W16176   2.968  23.422   0.432 -0.0060 -0.0202 -0.2003
73083W        W16177   6.607  22.863   1.804  0.1632  0.1905 -0.0237
73084W        W16178   5.195  24.549   2.756 -0.1660 -0.2232  0.1841
73085W        W16179   3.245  23.198   2.685  0.2005 -0.0150  0.0978
73086W        W16180   5.413  22.841   2.335  0.3209 -0.0359 -0.3625
73087W        W16181   6.832  25.741   3.264  0.3266  0.1636 -0.0345
73088W        W16182   5.619  22.456   0.131  0.0381 -0.1679  0.1561
73089W        W16183   6.650  24.674   3.092  0.0274 -0.2353 -0.1339
73090W        W16184   3.756  21.685   1.224  0.0085 -0.1730  0.0343
73091W        W16185   6.138  22.799   1.163  0.2433 -0.1214  0.0076
73092W        W16186   4.073  24.813   1.549 -0.3392  0.1650  0.0713
73093W        W16187   6.209  24.239   2.185  0.2245  0.2246 -0.0132
73094W        W16188   6.265  24.753   5.586  0.0404 -0.0990 -0.1202
73095W        W16189   3.766  22.031   0.681 -0.0143 -0.0622 -0.3660
73096W        W16190   7.407  23.533   1.700 -0.0057  0.1016 -0.1096
73097W        W16191   7.348  23.714   2.249  0.1695 -0.0747  0.0089
73098W        W16192   6.635  24.604   0.597  0.0524 -0.0789 -0.3523
73099W        W16193   6.574  23.296   3.004  0.0208  0.1151 -0.1498
73100W        W16194   7.689  25.832   2.909 -0.0416 -0.2987 -0.1273
73101W        W16195   2.674  21.598   3.039  0.2893  0.1346  0.3437
73102W        W16196   6.597  24.438   1.713  0.1167  0.1501 -0.2995
73103W        W16197   7.671  25.755   1.995  0.0215  0.0209  0.0308
73104W        W16198   5.969  21.308   0.864 -0.0258  0.2747  0.2929
73105W        W16199   4.116  23.905   1.633  0.3892  0.0552  0.0006
73106W        W16200   5.032  25.201   1.572  0.2472 -0.2294 -0.2722
73107W        W16201   7.161  22.214   2.248  0.0586  0.0855 -0.2410
73108W        W16202   6.780  22.414   2.543 -0.2093 -0.0958 -0.0326
73109W        W16203   5.853  25.316   1.217 -0.1816 -0.0179  0.1788
73110W        W16204   8.398  21.102   3.960  0.1288  0.0069  0.3173
73111W        W16205   5.793  25.313   3.709  0.3217 -0.0043  0.1416
73112W        W16206   3.356  25.234   3.541 -0.0388 -0.1835  0.0134
73113W        W16207   5.659  22.609  31.270 -0.0384 -0.0949  0.2239
73114W        W16208   4.142  24.632   3.575  0.3159  0.1898 -0.2604
73115W        W16209   4.919  22.328   1.227 -0.0024 -0.2314  0.3022
73116W        W16210   5.857  23.899   2.348 -0.1628  0.0947  0.0348
73117W        W16211   6.961  24.639   2.525 -0.2442  0.0649 -0.0528
73118W        W16212   5.581  22.214   0.630  0.0367  0.0988  0.0004
73119W        W16213   7.357  24.025   1.557  0.0089  0.0486 -0.0721
73120W        W16214   4.025  23.441   0.924 -0.2108 -0.3559  0.0624
73121W        W16215   6.786  21.488   0.577  0.0802 -0.1723  0.0748
73122W        W16216   6.806  21.667   1.896  0.2381 -0.1009  0.2537
73123W        W16217   2.324  23.609   2.814  0.1158  0.1133 -0.3922
73124W        W16218   2.746  23.035  31.636  0.0671  0.0808  0.1487
73125W        W16219   5.152  23.873   0.100  0.2148 -0.1243 -0.3159
73126W        W16220   3.987  23.963   1.119  0.0452 -0.0933  0.3693
73127W        W16221   5.728  22.082   4.575  0.2241  0.1402 -0.2941
73128W        W16222   4.322  23.757   2.649 -0.0142  0.2823  0.0504
73129W        W16223   3.237  23.870   0.548  0.1880  0.1575 -0.0766
73130W        W16224   3.864  23.133   1.356  0.0157 -0.2660 -0.0217
73131W        W16225   5.906  24.803   1.147 -0.0591 -0.0451  0.3464
73132W        W16226   4.001  23.045   1.941 -0.0005 -0.1026 -0.0429
73133W        W16227   3.784  22.689   1.606  0.2262  0.1761 -0.0880
73134W        W16228   6.481  23.278   1.310  0.1686  0.1900 -0.1172
73135W        W16229   6.188  25.503   0.092 -0.0595  0.0918  0.1208
73136W        W16230   5.844  21.939   2.095 -0.0077 -0.2456  0.0090
73137W        W16231   6.806  25.524   3.838  0.1076 -0.1344 -0.1643
73138W        W16232   4.060  23.802  31.914  0.3729  0.0609  0.1015
73139W        W16233   5.910  23.778   3.452 -0.1105 -0.1685  0.0642
73140W        W16234   5.855  21.351   4.158  0.0527  0.3206 -0.4233
73141W        W16235   2.809  21.597   0.103  0.2963 -0.3292 -0.3461
73142W        W16236   7.288  21.629   1.814 -0.1781 -0.0157  0.0876
73143W        W16237   6.379  24.155   0.837 -0.1856  0.2356  0.0629
73144W        W16238   5.776  25.068  31.506  0.2809 -0.1455  0.1951
73145W        W16239   5.731  24.500   2.804 -0.1544  0.0400  0.0591
73146W        W16240   5.479  25.436   4.129  0.3608 -0.0965  0.1249
73147W        W16241   2.865  21.188   3.232 -0.0039  0.3634  0.2273
73148W        W16242   6.095  23.633   2.755  0.0892 -0.3301 -0.0588
73149W        W16243   5.869  25.085   2.196  0.0475 -0.1461 -0.0117
73150W        W16244   6.993  23.719   1.227 -0.0068  0.0664 -0.1726
73151W        W16245   6.638  21.938   3.786  0.1410  0.2594  0.1826
73152W        W16246   5.116  22.554   2.027 -0.0865  0.0822  0.1861
73153W        W16247   2.964  22.996   3.051  0.0493 -0.1931  0.2461
73154W        W16248   3.399  24.122   3.611 -0.0686  0.0449  0.0610
73155W        W16249   5.964  24.829   3.443 -0.1319  0.2559  0.0162
73156W        W16250   4.017  22.806   0.160  0.0912 -0.1034  0.0365
73157W        W16251   7.528  21.973   0.865 -0.3037  0.0767 -0.0287
73158W        W16252   6.861  24.158   1.429  0.0510 -0.0241 -0.0479
73159W        W16253   4.220  21.910   3.112 -0.1052  0.0697 -0.1416
73160W        W16254   4.864  21.929   1.477 -0.1979  0.0602  0.0737
73161W        W16255   6.871  23.025   2.203 -0.0950  0.1286 -0.2674
73162W        W16256   6.325  25.182   1.454 -0.1154  0.0621 -0.1421
73163W        W16257   6.618  23.817   2.817 -0.1974 -0.0361 -0.2000
73164W        W16258   4.435  23.209   0.790 -0.0080 -0.1765  0.0695
73165W        W16259   6.408  24.674   2.245  0.1566  0.1566  0.2344
73166W        W16260   5.905  25.699   4.055  0.1227  0.1579  0.1709
73167W        W16261   6.717  25.749   4.506 -0.0517 -0.0921  0.0587
73168W        W16262   5.397  24.899   3.733  0.2124 -0.1816 -0.0122
73169W        W16263   7.290  24.493   2.952  0.0503 -0.1460 -0.0485
73170W        W16264   5.350  22.320   2.431  0.1075  0.1333  0.1079
73171W        W16265   4.577  24.030   1.497 -0.0501 -0.1512 -0.1411
73172W        W16266   4.239  22.485   0.507 -0.0089 -0.0710 -0.0371
73173W        W16267   8.144  23.645   2.332  0.2053  0.0375  0.1183
73174W        W16268   3.768  21.823   2.239 -0.0840 -0.0634  0.0940
73175W        W16269   6.402  21.092   0.749  0.1027 -0.1746 -0.3006
73176W        W16270   4.489  25.305   3.290 -0.0088 -0.1378 -0.0808
73177W        W16271   6.298  23.379   1.843 -0.1004  0.1311  0.1827
73178W        W16272   3.627  23.935   6.607  0.3445  0.0050 -0.0504
73179W        W16273   4.383  22.732   4.902  0.1347  0.1941 -0.2218
73180W        W16274   7.615  23.365   3.644  0.0286 -0.2249 -0.2277
73181W        W16275   5.032  23.925   4.496 -0.0986  0.1344  0.2043
73182W        W16276   3.968  22.347   5.045  0.1221  0.2157 -0.4710
73183W        W16277   6.705  26.299   5.769  0.1583  0.0273  0.1631
73184W        W16278   5.992  22.350   6.761 -0.2392  0.1984 -0.1482
73185W        W16279   5.731  24.390   6.307  0.0808 -0.3876 -0.1690
73186W        W16280   8.468  26.212   7.470  0.0372 -0.0882 -0.4825
73187W        W16281   5.615  24.313   4.258  0.0344  0.1690  0.2629
73188W        W16282   5.116  23.017   6.342  0.0717 -0.4480  0.1010
73189W        W16283   5.844  23.779   6.596  0.1122  0.0324 -0.0846
73190W        W16284   4.731  21.081   5.995  0.1854  0.1321 -0.2602
73191W        W16285   5.322  22.673   5.925 -0.0014 -0.2183 -0.2366
73192W        W16286   6.573  23.309   6.336 -0.0334 -0.1007 -0.0072
73193W        W16287   4.671  24.657   4.370  0.3814 -0.0183  0.2028
73194W        W16288   6.054  22.608   7.527  0.0117  0.3035  0.3734
73195W        W16289   4.896  24.843   5.515 -0.5489 -0.0214 -0.0133
73196W        W16290   5.860  25.608   5.813 -0.1308 -0.0768  0.0865
73197W        W16291   5.317  22.365   6.917 -0.2571  0.0654  0.1938
73198W        W16292   6.053  22.044   5.352 -0.0443 -0.1718  0.0879
73199W        W16293   5.639  24.929   4.187  0.3334  0.1353 -0.1370
73200W        W16294   3.983  22.655   3.191 -0.1084  0.0457  0.0777
73201W        W16295   3.278  23.705   5.467 -0.3062  0.3619 -0.3108
73202W        W16296   6.537  22.926   6.669 -0.1621 -0.3045  0.1362
73203W        W16297   6.779  22.738   5.643 -0.1260  0.3095 -0.1266
73204W        W16298   6.974  22.858   6.086 -0.0112  0.0834  0.1125
73205W        W16299   4.723  25.305   5.842  0.0119  0.3376 -0.1174
73206W        W16300   5.330  24.467   6.034  0.0505  0.0162  0.1600
73207W        W16301   6.217  21.202   6.661  0.2161  0.0586 -0.1366
73208W        W16302   2.409  23.241   5.797  0.2121  0.0965  0.0024
73209W        W16303   3.827  24.988   3.832  0.1704 -0.2010 -0.2296
73210W        W16304   3.750  23.688   3.712  0.0371  0.2685 -0.0228
73211W        W16305   6.555  24.462   4.427 -0.1460 -0.0184 -0.4771
73212W        W16306   6.992  24.151   7.743 -0.0286 -0.1356  0.0300
73213W        W16307   5.409  25.763   6.157  0.1481 -0.1955 -0.0317
73214W        W16308   2.820  24.740   3.266 -0.0875  0.1364  0.0603
73215W        W16309   5.683  25.256   6.740 -0.0884  0.0490  0.0909
73216W        W16310   3.283  25.449   5.653  0.0753  0.3352 -0.0231
73217W        W16311   6.732  21.764   8.085 -0.0253  0.3585  0.0969
73218W        W16312   6.413  23.463   5.486  0.1283 -0.2032  0.0413
73219W        W16313   6.363  25.433   4.150 -0.3141  0.0916  0.0174
73220W        W16314   6.334  24.437   5.957 -0.1052 -0.0497 -0.0323
73221W        W16315   5.278  25.386   5.888  0.0196 -0.0990 -0.0774
73222W        W16316   4.524  23.959   6.592  0.2281  0.1888 -0.1715
73223W        W16317   6.351  22.269   7.692 -0.2745 -0.0802 -0.2254
73224W        W16318   3.675  24.753   2.875 -0.0889  0.2464 -0.0474
73225W        W16319   4.870  22.778   4.876  0.1200  0.3567 -0.3762
73226W        W16320   5.066  22.477   3.946 -0.1710  0.0926  0.3084
73227W        W16321   6.549  22.673   4.325  0.0821 -0.0291  0.2289
73228W        W16322   5.663  22.232   5.044 -0.0433 -0.0824 -0.1465
73229W        W16323   5.012  25.334   5.476 -0.1278 -0.3893  0.1440
73230W        W16324   6.030  22.229   5.823  0.1672  0.1183 -0.1655
73231W        W16325   7.265  24.098   6.235 -0.0664 -0.2745 -0.0605
73232W        W16326   4.575  23.228   4.913  0.1475  0.5327 -0.0078
73233W        W16327   6.258  20.956   7.113 -0.0006  0.2103  0.1202
73234W        W16328   4.169  24.493   7.332 -0.0169  0.0307  0.1593
73235W        W16329   3.865  22.859   5.160  0.1171 -0.0945 -0.0696
73236W        W16330   5.823  26.414   5.278  0.0609  0.3884 -0.0737
73237W        W16331   7.616  26.652   5.788 -0.0192 -0.0674  0.2290
73238W        W16332   6.813  25.303   4.388 -0.0252  0.2597 -0.1590
73239W        W16333   3.726  23.728   6.137  0.0811 -0.0109  0.1627
73240W        W16334   3.555  22.817   6.608 -0.1119  0.0094 -0.1971
73241W        W16335   4.860  22.656   6.690  0.0156  0.1666 -0.2365
73242W        W16336   4.439  22.348   3.367 -0.1573  0.5066  0.2094
73243W        W16337   6.513  24.750   7.295  0.0902  0.0469  0.1754
73244W        W16338   2.783  24.009   6.157  0.2688  0.0303 -0.0291
73245W        W16339   7.330  24.407   4.414  0.3592  0.0964  0.0027
73246W        W16340   5.266  24.901   5.116 -0.1441 -0.2188  0.2376
73247W        W16341   7.595  26.186   5.958 -0.1535  0.5571  0.0965
73248W        W16342   6.220  23.269   3.368  0.1436  0.1060  0.2695
73249W        W16343   5.244  22.865   4.459 -0.1239  0.1654 -0.1796
73250W        W16344   7.760  21.287   6.278 -0.2524  0.2885 -0.1839
73251W        W16345   4.526  21.493   3.255 -0.1895 -0.1626  0.1863
73252W        W16346   5.318  23.280   3.848 -0.1424 -0.1017 -0.1145
73253W        W16347   7.264  25.677   7.503  0.0646  0.1485  0.5250
73254W        W16348   6.174  23.427   4.954 -0.3054 -0.1324 -0.1215
73255W        W16349   3.066  23.862   5.068  0.0640 -0.2664 -0.1212
73256W        W16350   6.516  21.554   6.015  0.1202  0.0262 -0.1889
73257W        W16351   4.385  24.173   7.030 -0.1315  0.0047 -0.3449
73258W        W16352   3.819  26.408   4.213  0.0398  0.1445  0.0825
73259W        W16353   4.765  23.601   6.319 -0.3405 -0.0615 -0.0543
73260W        W16354   3.222  22.894   3.870  0.1375 -0.1301 -0.0919
73261W        W16355   4.810  22.361   7.726  0.1577 -0.4406  0.1513
73262W        W16356   5.257  24.376   6.497  0.3752 -0.2089 -0.0761
73263W        W16357   5.394  23.339   4.461  0.2727 -0.2535 -0.0592
73264W        W16358   5.589  22.011   6.655  0.5523  0.1823 -0.1856
73265W        W16359   5.812  23.269   4.607  0.1664  0.2394  0.1166
73266W        W16360   4.291  24.423   4.045  0.0623 -0.0725 -0.0112
73267W        W16361   7.204  25.506   5.368  0.4128 -0.0689 -0.1439
73268W        W16362   5.624  22.986   4.112  0.2519 -0.1218  0.0144
73269W        W16363   6.892  23.666   4.584 -0.0730  0.0357 -0.1065
73270W        W16364   3.876  23.004   4.686 -0.0347  0.0679 -0.0268
73271W        W16365   4.395  23.060   3.963  0.0138  0.4383 -0.0412
73272W        W16366   6.216  23.212   7.438  0.1744 -0.2785  0.1124
73273W        W16367   4.205  22.189   5.446 -0.2274 -0.1007  0.1326
73274W        W16368   8.114  23.667   6.177  0.1458  0.2228 -0.2876
73275W        W16369   4.624  22.010   5.803  0.4194  0.2769 -0.0707
73276W        W16370   5.950  23.709   5.530  0.3308 -0.2753  0.0951
73277W        W16371   4.886  23.200   4.564 -0.1034  0.1429 -0.1691
73278W        W16372   5.285  21.041   5.475  0.1376  0.2902 -0.0136
73279W        W16373   6.948  21.360   7.239 -0.1785 -0.0499  0.1942
73280W        W16374   6.551  25.664   5.030  0.1381 -0.0672 -0.1971
73281W        W16375   8.957  25.982   7.449  0.1974 -0.2084 -0.1921
73282W        W16376   6.721  26.125   6.236  0.1760  0.3462  0.0795
73283W        W16377   5.850  23.067   7.788 -0.0211 -0.0714  0.0921
73284W        W16378   5.295  22.086   3.757 -0.0828  0.3867 -0.0565
73285W        W16379   4.892  24.475   5.837 -0.1810  0.1806  0.2541
73286W        W16380   4.473  23.027   7.160 -0.3210 -0.2691 -0.0338
73287W        W16381   5.409  23.122   5.771 -0.1904 -0.0612  0.1705
73288W        W16382   7.226  26.466   6.314 -0.1373 -0.2334  0.1834
73289W        W16383   5.199  23.663   5.979 -0.0493  0.1558 -0.0996
73290W        W16384   3.341  23.716   7.457  0.2212  0.0209 -0.4178
73291W        W16385   7.002  22.624   6.888  0.4172 -0.0152 -0.1905
73292W        W16386   7.723  23.600   6.586  0.1134  0.0115 -0.0962
73293W        W16387   6.491  24.327   4.917  0.1015 -0.0208  0.0678
73294W        W16388   4.011  23.216   4.217 -0.0885  0.1533  0.0635
73295W        W16389   6.601  23.773   5.030  0.1407 -0.1981  0.0787
73296W        W16390   3.798  24.314   3.257 -0.3279  0.2315 -0.5428
73297W        W16391   4.315  23.797   5.252 -0.0406  0.0924  0.0284
73298W        W16392   4.230  24.574   4.568 -0.2228  0.0496 -0.2049
73299W        W16393   8.050  21.888   6.419 -0.1084 -0.1515  0.2124
73300W        W16394   4.524  23.527   7.328  0.2256 -0.0097  0.0816
73301W        W16395   6.553  24.112   5.462 -0.0224 -0.3027 -0.1425
73302W        W16396   4.375  22.944   4.498 -0.4688  0.1229  0.0046
73303W        W16397   3.109  24.405   6.164 -0.0604  0.3349 -0.0886
73304W        W16398   5.973  22.382   3.774 -0.2650 -0.3874  0.1914
73305W        W16399   6.972  24.007   4.201 -0.1731  0.2052  0.3427
73306W        W16400   6.935  23.680   6.183  0.0864 -0.0816 -0.1691
73307W        W16401   6.032  24.244   5.515  0.0895 -0.1012 -0.1545
73308W        W16402   5.782  23.142   3.616  0.1316  0.3340 -0.0131
73309W        W16403   5.286  22.715   3.194 -0.4821  0.1040 -0.3138
73310W        W16404   4.843  23.909   7.578 -0.0021  0.1278  0.0285
73311W        W16405   4.874  24.558   4.826 -0.2516 -0.1890  0.1266
73312W        W16406   4.820  23.578   5.401 -0.0707 -0.2318  0.0637
73313W        W16407   6.594  22.407   3.456 -0.0927 -0.0724  0.1184
73314W        W16408   7.407  27.059   5.868 -0.1200  0.0044  0.0603
73315W        W16409   3.911  23.416   6.665  0.2281 -0.1776  0.2465
73316W        W16410   6.332  23.313   6.873 -0.1276  0.2932 -0.1485
73317W        W16411   6.706  24.877   5.826 -0.1491  0.2300  0.1157
73318W        W16412   6.527  21.586   7.072 -0.0988  0.1366 -0.1225
73319W        W16413   4.941  21.923   2.514 -0.1869  0.1192 -0.5152
73320W        W16414   5.648  21.670   4.974 -0.0523 -0.2109  0.0318
73321W        W16415   3.964  25.546   3.520 -0.1526 -0.0791  0.0519
73322W        W16416   7.243  23.171   5.429 -0.1005  0.0022  0.2652
73323W        W16417   6.335  22.307   6.419  0.3185  0.2135 -0.1187
73324W        W16418   7.027  20.796   6.579  0.2457  0.1529  0.0253
73325W        W16419   7.023  23.366   4.986  0.0160 -0.0477 -0.1170
73326W        W16420   6.227  22.326   4.442 -0.3615  0.5999 -0.0828
73327W        W16421   5.970  22.778   5.959  0.2128 -0.2267  0.2332
73328W        W16422   4.283  23.493   3.106 -0.0741 -0.0190 -0.0137
73329W        W16423   6.830  22.195   7.872  0.1177 -0.0138  0.0325
73330W        W16424   4.509  22.924   8.068 -0.3346 -0.0370  0.3206
73331W        W16425   3.214  24.958   5.629 -0.0368  0.0192 -0.2617
73332W        W16426   6.802  23.759   7.547  0.0090  0.2190  0.0648
73333W        W16427   6.143  24.247   3.610  0.1371  0.0690  0.1123
73334W        W16428   6.892  22.722   7.742 -0.0836  0.4495  0.1759
73335W        W16429   5.321  22.360   4.657  0.0950 -0.1153 -0.0967
73336W        W16430   3.976  25.325   4.594  0.1367  0.0880 -0.2433
73337W        W16431   3.283  24.641   4.533 -0.2496  0.1062 -0.0355
73338W        W16432   4.129  23.252   5.398  0.0905  0.0758 -0.1505
73339W        W16433   6.743  24.627   6.296 -0.2202  0.1586 -0.0342
73340W        W16434   5.393  25.237   3.378 -0.0592  0.3014 -0.4210
73341W        W16435   5.467  23.934   6.245  0.1139  0.0589  0.1753
73342W        W16436   2.335  23.953   4.207  0.0724 -0.2360  0.4944
73343W        W16437   6.159  21.964   4.853 -0.4249  0.2619 -0.2303
73344W        W16438   3.716  24.000   4.188 -0.2587 -0.0016  0.1691
73345W        W16439   4.823  22.101   4.291  0.0734  0.0220  0.0862
73346W        W16440   3.423  22.042   4.468  0.0518 -0.0756  0.0379
73347W        W16441   6.923  22.690   5.144  0.0886  0.1313  0.1829
73348W        W16442   5.693  24.497   3.768 -0.1148 -0.0971 -0.0168
73349W        W16443   4.155  21.961   6.987  0.1052  0.0364  0.0391
73350W        W16444   5.136  21.960   5.623 -0.0312  0.0571 -0.2857
73351W        W16445   3.529  24.095   5.741  0.0445  0.0177  0.2110
73352W        W16446   7.288  24.897   5.897  0.2379 -0.3633  0.3038
73353W        W16447   6.567  21.946   4.590 -0.0129 -0.2771 -0.0045
73354W        W16448   5.995  24.452   4.655  0.0233 -0.1130  0.1418
73355W        W16449   5.106  23.886   6.604 -0.0979 -0.1319 -0.1922
73356W        W16450   4.671  22.057   3.758 -0.2700  0.3826  0.0535
73357W        W16451   6.535  23.892   5.913  0.0668 -0.1563  0.3581
73358W        W16452   5.186  21.832   4.743 -0.0837 -0.3269 -0.1444
73359W        W16453   3.505  24.049   4.651 -0.1564 -0.0098 -0.0748
73360W        W16454   6.208  25.507   6.796  0.2511  0.0929 -0.2616
73361W        W16455   4.921  22.938   4.067 -0.2155  0.1080  0.2600
73362W        W16456   4.139  24.845   4.173  0.0028 -0.3601 -0.1193
73363W        W16457   5.657  23.023   7.275  0.1703  0.1186  0.1515
73364W        W16458   6.815  24.132   6.448 -0.1236 -0.1899 -0.0945
73365W        W16459   5.461  23.536   5.563 -0.1287 -0.0225  0.0991
73366W        W16460   4.740  21.872   4.898  0.0466  0.0436 -0.0266
73367W        W16461   5.846  23.129   5.535  0.0548 -0.1086  0.0115
73368W        W16462   6.862  25.611   6.269  0.0453 -0.0495  0.2941
73369W        W16463   6.405  21.651   6.549  0.2526  0.0601  0.0423
73370W        W16464   4.111  25.026   8.309 -0.0600  0.1385 -0.0793
73371W        W16465   6.043  21.894   6.334 -0.0230  0.1196 -0.1255
73372W        W16466   7.455  24.847   3.279  0.5682 -0.0026  0.0365
73373W        W16467   5.389  23.628   6.976 -0.0797  0.0880  0.4015
73374W        W16468   3.643  23.958   5.212 -0.2480 -0.0944 -0.1556
73375W        W16469   3.479  23.292   6.425 -0.0479 -0.0013  0.0509
73376W        W16470   4.193  24.156   3.620 -0.1378  0.0191 -0.4259
73377W        W16471   6.577  21.812   7.626 -0.1210 -0.1430 -0.1005
73378W        W16472   4.111  23.450   4.871 -0.1766 -0.2474 -0.1898
73379W        W16473   4.596  24.208   4.573  0.3286  0.1115  0.0790
73380W        W16474   3.848  24.663   6.349  0.0016  0.0430 -0.1277
73381W        W16475   7.481  21.258   4.475  0.2274  0.2143  0.1721
73382W        W16476   5.547  24.764   4.640 -0.2771  0.1677  0.1372
73383W        W16477   4.888  23.065   5.833  0.1459  0.3883  0.0277
73384W        W16478   7.256  22.464   7.296  0.3239  0.0609  0.2689
73385W        W16479   6.353  24.017   3.178  0.2467 -0.1054  0.1952
73386W        W16480   7.317  22.270   8.183 -0.2120  0.1636 -0.0097
73387W        W16481   5.547  22.121   5.984  0.0651 -0.1209 -0.0826
73388W        W16482   5.856  25.002   5.884  0.1418  0.0905 -0.1420
73389W        W16483   4.891  22.403   7.161  0.1050 -0.0151 -0.0217
73390W        W16484   5.292  26.189   7.045 -0.0602  0.1176  0.2009
73391W        W16485   4.114  22.944   6.830 -0.3281 -0.4029  0.2434
73392W        W16486   6.057  22.578   5.456  0.2017 -0.0333  0.0007
73393W        W16487   5.614  20.951   4.306 -0.2129  0.0567  0.1387
73394W        W16488   6.482  24.186   7.325 -0.1584  0.0648  0.0117
73395W        W16489   8.099  25.900   5.936  0.1625 -0.0121 -0.3142
73396W        W16490   5.476  23.767   4.778  0.0395  0.0627 -0.1453
73397W        W16491   6.787  22.505   6.414 -0.4973 -0.1833  0.0705
73398W        W16492   3.980  22.278   7.326  0.0464  0.0172 -0.4924
73399W        W16493   5.364  24.273   4.868 -0.4640 -0.3394 -0.0554
73400W        W16494   4.970  22.338   3.480 -0.1094  0.0611  0.1681
73401W        W16495   3.928  24.443   5.853  0.2156 -0.0815 -0.0776
73402W        W16496   4.806  20.064   6.966  0.0718  0.1202 -0.1172
73403W        W16497   7.323  22.696   5.431 -0.1460  0.1451 -0.0006
73404W        W16498   6.476  22.768   4.809 -0.3345 -0.0206 -0.1575
73405W        W16499   6.722  23.207   5.842 -0.2312 -0.0041  0.0087
73406W        W16500   7.024  22.249   5.487  0.3556 -0.2964 -0.1034
73407W        W16501   5.250  22.543   6.452 -0.0517 -0.3398  0.3808
73408W        W16502   3.627  22.064   6.877  0.0871 -0.2467 -0.0113
73409W        W16503   6.713  25.104   6.844  0.1653  0.2234  0.1144
73410W        W16504   6.740  23.689   3.885  0.3119 -0.0662  0.0354
73411W        W16505   7.828  23.287   6.122 -0.0946 -0.2870  0.0914
73412W        W16506   6.066  22.974   5.059  0.2927 -0.1383 -0.0663
73413W        W16507   5.078  23.862   3.807 -0.1157 -0.2330 -0.1104
73414W        W16508   4.792  22.677   6.224  0.1525  0.3265 -0.0197
73415W        W16509   7.001  21.649   6.719 -0.2617  0.1296 -0.2315
73416W        W16510   4.366  22.924   3.267  0.0774 -0.1043 -0.2703
73417W        W16511   6.881  20.804   7.384  0.3103 -0.3208  0.0022
73418W        W16512   6.595  25.027   4.023 -0.0218 -0.1950 -0.3350
73419W        W16513   7.432  25.468   6.605 -0.0900  0.2462  0.0478
73420W        W16514   6.355  22.988   5.615 -0.1220  0.2037  0.0308
73421W        W16515   3.428  21.449   6.441 -0.3727 -0.1271 -0.0769
73422W        W16516   4.656  25.434   7.084 -0.0413  0.3869 -0.2576
73423W        W16517   4.756  22.373   2.457 -0.1999 -0.2172  0.1150
73424W        W16518   4.438  24.128   6.146  0.1116  0.3696  0.2917
73425W        W16519   6.375  23.896   6.378 -0.0232 -0.1947  0.1033
73426W        W16520   6.655  24.450   6.867 -0.0203 -0.1583 -0.1190
73427W        W16521   5.605  23.362   5.069 -0.0645  0.2600 -0.3347
73428W        W16522   7.456  22.986   6.135 -0.0109 -0.0146  0.1042
73429W        W16523   2.872  23.446   5.836  0.2279  0.0590 -0.4186
73430W        W16524   6.565  21.151   5.214 -0.3791  0.1501  0.3570
73431W        W16525   4.992  24.947   6.045  0.0892  0.3030  0.0065
73432W        W16526   4.111  23.782   6.925 -0.0544 -0.2371  0.2819
73433W        W16527   5.133  24.995   4.197 -0.0984  0.1427  0.0237
73434W        W16528   7.097  21.837   6.028  0.1227  0.0277 -0.1282
73435W        W16529   5.854  22.700   4.639 -0.0371  0.2006 -0.0856
73436W        W16530   4.375  23.492   5.746 -0.0195 -0.4187 -0.1334
73437W        W16531   7.690  23.047   6.561  0.0770  0.0965 -0.0479
73438W        W16532   4.008  24.987   5.831  0.2604 -0.0177 -0.2567
73439W        W16533   5.332  23.440   6.413  0.0417 -0.0046  0.0066
73440W        W16534   5.091  25.222   6.904 -0.1139 -0.1571 -0.0873
73441W        W16535   6.743  24.787   4.769 -0.3638  0.0351 -0.2545
73442W        W16536   5.129  23.932   5.547  0.1363 -0.0851 -0.0114
73443W        W16537   3.656  23.171   7.573 -0.1506  0.1488 -0.0971
73444W        W16538   5.382  23.868   7.513  0.0867  0.1007 -0.0536
73445W        W16539   6.394  22.523   5.871  0.1669 -0.4655 -0.0703
73446W        W16540   4.008  22.755   3.832  0.1486  0.0302 -0.2935
73447W        W16541   6.080  24.395   4.142 -0.0800  0.1081 -0.0303
73448W        W16542   4.270  25.285   6.353 -0.0180  0.0496  0.1503
73449W        W16543   3.552  23.147   6.965 -0.1743 -0.0613  0.2061
73450W        W16544   3.645  24.773   3.476  0.0429  0.1784 -0.1798
73451W        W16545   6.815  25.441   5.773 -0.2012 -0.2764  0.1481
73452W        W16546   5.142  23.149   3.430  0.1040  0.0399  0.1682
73453W        W16547   7.351  25.900   6.934 -0.0742 -0.0743 -0.0678
73454W        W16548   5.013  23.531   4.197  0.2119 -0.0468 -0.0181
73455W        W16549   4.241  23.920   4.059  0.2302  0.0862 -0.1219
73456W        W16550   3.566  25.678   3.231  0.0448  0.1099 -0.0259
73457W        W16551   8.006  24.771   3.812 -0.2015 -0.0259 -0.1438
73458W        W16552   5.503  24.873   6.250  0.0054  0.1481 -0.0061
73459W        W16553   7.989  23.893   6.939 -0.1113  0.0018 -0.0962
73460W        W16554   6.899  22.923   3.212  0.2780 -0.1019  0.0702
73461W        W16555   7.391  23.709   5.416 -0.2543 -0.0036  0.2669
73462W        W16556   7.695  23.632   4.318  0.2321  0.0982  0.2098
73463W        W16557   5.722  24.411   7.327  0.1785 -0.1212 -0.3174
73464W        W16558   3.391  22.929   6.100  0.1859 -0.1359 -0.1802
73465W        W16559   4.049  21.395   2.946  0.1659 -0.0049  0.2725
73466W        W16560   5.068  25.796   7.283 -0.1853  0.1412  0.1250
73467W        W16561   7.073  22.045   7.026 -0.0578 -0.0683 -0.0034
73468W        W16562   2.669  24.430   5.211 -0.2721  0.0512  0.0017
73469W        W16563   7.240  25.437   5.983 -0.1732  0.2413  0.0956
73470W        W16564   4.578  23.733   3.694 -0.0897 -0.0680 -0.1562
73471W        W16565   5.383  24.912   5.738  0.0590  0.0040  0.0388
73472W        W16566   7.667  21.241   5.803 -0.2969 -0.2329 -0.2313
73473W        W16567   4.896  24.327   3.106  0.0567  0.3298  0.2974
73474W        W16568   5.610  22.717   5.155 -0.2238 -0.2909  0.0373
73475W        W16569   6.701  24.512   3.915  0.1464 -0.1175 -0.3594
73476W        W16570   4.412  25.109   5.545 -0.1769  0.0075  0.1098
73477W        W16571   5.009  24.115   6.173  0.0895  0.1899  0.1369
73478W        W16572   3.603  22.930   4.225  0.0344 -0.0377  0.0558
73479W        W16573   7.539  24.262   5.107 -0.3496 -0.0902 -0.1538
73480W        W16574   5.204  21.834   7.039  0.0497  0.0019  0.0009
73481W        W16575   8.277  22.612   6.547  0.0036  0.0172 -0.0621
73482W        W16576   4.453  23.156   6.348 -0.2447 -0.2131  0.0930
73483W        W16577   7.605  23.448   4.786  0.4006  0.2294 -0.0181
73484W        W16578   5.605  23.963   5.247  0.2315  0.2325 -0.1082
73485W        W16579   3.934  22.471   6.850  0.1216 -0.0156  0.3881
73486W        W16580   6.092  22.745   4.077  0.3857  0.0121 -0.0781
73487W        W16581   8.020  24.372   6.734 -0.1145 -0.0503 -0.0097
73488W        W16582   6.215  23.235   3.838 -0.1778 -0.1424 -0.4563
73489W        W16583   6.796  26.497   7.797 -0.1155  0.0801  0.0469
73490W        W16584   5.044  23.483   4.907 -0.0096  0.1279  0.4127
73491W        W16585   5.518  22.619   3.781 -0.3429 -0.3086  0.0224
73492W        W16586   3.689  23.586   4.446 -0.0057  0.0177  0.1168
73493W        W16587   4.313  22.892   5.924  0.1675  0.0195  0.0691
73494W        W16588   6.288  24.406   6.488  0.1271 -0.0715  0.0738
73495W        W16589   3.747  21.720   4.697  0.0712 -0.1810 -0.4325
73496W        W16590   6.698  24.643   5.301  0.1295 -0.3257  0.0635
73497W        W16591   7.343  23.391   6.350  0.1153  0.0370  0.0626
73498W        W16592   5.897  25.298   4.377  0.0196 -0.1506 -0.4401
73499W        W16593   6.584  23.106   5.195  0.0286  0.1375 -0.1594
73500W        W16594   6.512  25.079   6.290  0.1866  0.3914 -0.0076
73501W        W16595   4.200  23.645   6.316  0.2935  0.2535  0.1997
73502W        W16596   6.677  25.931   6.670 -0.1120 -0.1934  0.0659
73503W        W16597   8.168  24.873   7.479  0.0253  0.1942 -0.0034
73504W        W16598   6.545  21.429   4.738  0.1727  0.0890  0.0840
73505W        W16599   4.677  22.952   5.300 -0.0833  0.0141 -0.2889
73506W        W16600   3.902  24.861   4.792 -0.1183  0.3002 -0.4343
73507W        W16601   6.887  23.559   5.482 -0.0795  0.0030 -0.0130
73508W        W16602   7.404  21.484   7.005 -0.3464 -0.1418 -0.0689
73509W        W16603   6.138  24.999   3.919 -0.1004  0.0237  0.1341
73510W        W16604   7.730  21.869   7.584 -0.1438  0.0232  0.1507
73511W        W16605   4.744  25.257   6.551 -0.2350 -0.0448 -0.1610
73512W        W16606   4.882  26.175   6.646 -0.1261  0.2614  0.4240
73513W        W16607   3.672  23.102   3.599 -0.2758  0.2459  0.0318
73514W        W16608   4.635  24.923   6.881  0.3206 -0.2598 -0.0072
73515W        W16609   6.960  24.517   3.455 -0.0295  0.0674  0.0270
73516W        W16610   5.042  25.492   4.955  0.0864 -0.1865 -0.0962
73517W        W16611   7.660  26.298   6.495 -0.3161 -0.0574  0.0583
73518W        W16612   5.089  23.125   5.377  0.1287  0.0171  0.0086
73519W        W16613   7.737  25.480   5.025 -0.1174  0.4459 -0.0015
73520W        W16614   4.952  21.437   5.707  0.2046 -0.0357  0.1437
73521W        W16615   6.731  23.212   4.113  0.2229  0.2055  0.0431
73522W        W16616   6.576  21.883   5.137 -0.0756 -0.0617  0.2027
73523W        W16617   3.723  22.970   5.632  0.1190  0.2179 -0.1716
73524W        W16618   3.979  23.839   3.246 -0.2324 -0.4388 -0.1159
73525W        W16619   3.877  23.544   2.729 -0.1896 -0.5343  0.2532
73526W        W16620   4.657  22.490   5.743  0.0853  0.0011 -0.3279
73527W        W16621   5.605  22.946   6.307 -0.1372 -0.3204  0.0183
73528W        W16622   4.350  22.936   8.565  0.0454  0.0383  0.0374
73529W        W16623   4.974  23.225   6.956 -0.0496  0.1350 -0.1548
73530W        W16624   4.169  23.364   3.578 -0.5608  0.1053 -0.2989
73531W        W16625   5.825  24.549   5.871  0.2633  0.0842 -0.1686
73532W        W16626   5.417  22.986   6.845 -0.1797 -0.0453  0.3670
73533W        W16627   3.442  23.401   5.845  0.1202 -0.1032  0.0747
73534W        W16628   6.032  24.041   6.012  0.1672 -0.0143 -0.0996
73535W        W16629   6.992  25.525   6.815 -0.1058 -0.1309  0.1455
73536W        W16630   5.122  22.150   5.147  0.1516  0.0003 -0.1485
73537W        W16631   7.903  25.703   6.726 -0.1778 -0.2609 -0.4327
73538W        W16632   2.142  24.122   4.760 -0.3926  0.1857  0.0007
73539W        W16633   7.037  23.074   6.586 -0.2150 -0.0502 -0.1561
73540W        W16634   5.044  21.496   7.851  0.1845  0.0080  0.0706
73541W        W16635   3.971  24.134   2.816 -0.1363  0.1896  0.0196
73542W        W16636   6.086  23.407   6.425  0.1507 -0.0161  0.0316
73543W        W16637   4.979  23.968   4.990  0.2265  0.1690 -0.0657
73544W        W16638   7.346  25.412   4.686 -0.0472  0.0912 -0.2628
73545W        W16639   4.063  24.175   6.467  0.0017  0.0820  0.0502
73546W        W16640   3.454  24.650   5.905 -0.2835  0.1359  0.0914
73547W        W16641   4.507  22.274   8.342  0.0060 -0.1065 -0.0245
73548W        W16642   5.859  23.455   4.138  0.0100  0.1073 -0.1055
73549W        W16643   5.089  23.430   7.441 -0.2385  0.0722  0.0830
73550W        W16644   7.725  24.377   3.921  0.0598 -0.2780  0.2376
73551W        W16645   7.437  22.773   7.724  0.0763 -0.1641  0.0400
73552W        W16646   5.640  22.488   4.229  0.2023 -0.0983  0.1722
73553W        W16647   4.411  22.449   8.792 -0.0764 -0.1655 -0.1642
73554W        W16648   4.451  24.182   7.575 -0.2781  0.4857 -0.1457
73555W        W16649   7.739  24.565   6.387  0.1402 -0.0013 -0.3159
73556W        W16650   4.639  22.366   5.114 -0.4091  0.0155  0.1939
73557W        W16651   7.170  23.572   4.176  0.0562 -0.1267 -0.2554
73558W        W16652   5.460  23.817   4.238  0.1654  0.0171  0.1748
73559W        W16653   3.405  23.135   4.753  0.0440 -0.3317 -0.4046
73560W        W16654   5.442  21.793   3.263  0.1031  0.0978 -0.2551
73561W        W16655   5.570  24.031   5.747 -0.1743 -0.0358  0.3677
73562W        W16656   7.233  24.655   6.309  0.0262  0.1305 -0.3392
73563W        W16657   5.163  24.116   7.158 -0.2211  0.1999  0.0034
73564W        W16658   4.707  24.118   4.044  0.1359  0.0109  0.1418
73565W        W16659   7.791  23.861   4.797  0.0275 -0.0992 -0.1111
73566W        W16660   6.878  24.355   5.924 -0.1105  0.0952  0.1486
73567W        W16661   7.162  25.926   6.436  0.1664  0.0538 -0.3108
73568W        W16662   5.824  25.936   5.407 -0.0344 -0.0134 -0.1401
73569W        W16663   7.081  23.910   5.780  0.2085 -0.0419 -0.0336
73570W        W16664   5.527  21.391   7.174 -0.1325  0.1000 -0.0448
73571W        W16665   5.913  23.769   4.539  0.1782 -0.0420  0.1355
73572W        W16666   5.199  24.440   5.446 -0.0609 -0.1338  0.2120
73573W        W16667   7.741  22.759   5.074  0.0243  0.0630  0.2785
73574W        W16668   4.682  24.074   5.574  0.1912 -0.0493 -0.0260
73575W        W16669   6.076  23.964   5.029 -0.0759 -0.1337 -0.0968
73576W        W16670   5.099  24.870   6.559 -0.1603 -0.4409 -0.3007
73577W        W16671   6.154  23.456   5.937 -0.0351  0.3959  0.1148
73578W        W16672   3.304  24.378   9.436  0.0101  0.0734 -0.2116
73579W        W16673   6.293  22.072   7.166  0.0381  0.1415  0.0367
73580W        W16674   7.425  22.844   6.929 -0.1731 -0.0106  0.1715
73581W        W16675   6.258  23.275   8.285 -0.0034  0.3558 -0.2633
73582W        W16676   3.394  22.085   8.735  0.2328  0.1715  0.0760
73583W        W16677   6.312  26.048   6.980  0.2370 -0.1030 -0.2372
73584W        W16678   6.651  26.609   9.443  0.0118 -0.0510 -0.1764
73585W        W16679   7.293  25.803   9.200  0.1219 -0.0681 -0.1024
73586W        W16680   6.008  24.408   8.083 -0.2124 -0.1100 -0.1472
73587W        W16681   4.701  23.724   8.644 -0.2088  0.1683 -0.2273
73588W        W16682   6.847  22.949   9.134  0.2997 -0.2516 -0.2906
73589W        W16683   7.350  21.593   9.807  0.0976  0.0705 -0.1299
73590W        W16684   5.619  24.754   8.574 -0.0222 -0.3100  0.2235
73591W        W16685   3.768  22.996  10.313 -0.0063 -0.3000  0.2024
73592W        W16686   7.732  22.437   9.706  0.1100 -0.1056 -0.3523
73593W        W16687   6.156  22.371   8.133  0.3439  0.0082  0.1640
73594W        W16688   6.557  26.766   8.608  0.1194 -0.1249 -0.0008
73595W        W16689   7.608  21.908   9.515 -0.2676 -0.1608  0.0273
73596W        W16690   5.223  24.587   6.992 -0.1648  0.0298 -0.1670
73597W        W16691   4.226  22.333   5.937 -0.3370 -0.2455 -0.1188
73598W        W16692   5.499  21.936   9.484  0.0010 -0.0360 -0.2145
73599W        W16693   5.262  24.316   9.295 -0.1225  0.2490 -0.1566
73600W        W16694   6.034  22.630   9.337  0.1846 -0.0447 -0.2005
73601W        W16695   7.179  23.256   7.864  0.0888 -0.0904  0.0055
73602W        W16696   5.543  27.429   9.640  0.1092  0.1368 -0.4312
73603W        W16697   4.587  26.145   7.470 -0.2591  0.0601 -0.0306
73604W        W16698   3.741  24.643   8.555  0.1454 -0.1921  0.2876
73605W        W16699   4.631  24.487   9.178  0.4278 -0.1128 -0.2957
73606W        W16700   4.452  25.121   7.397 -0.1576  0.0175  0.1122
73607W        W16701   6.981  24.427   8.141  0.3850 -0.2418  0.4857
73608W        W16702   2.379  24.577   7.967  0.0560 -0.1978 -0.1152
73609W        W16703   5.334  24.812   8.006  0.0585 -0.2318  0.0168
73610W        W16704   4.386  23.419   8.920  0.0157  0.1651  0.0527
73611W        W16705   4.860  24.313   6.789  0.2018 -0.2067 -0.2251
73612W        W16706   5.135  24.921   8.503 -0.0432  0.0138  0.2736
73613W        W16707   4.784  24.857   9.616  0.1668  0.0341 -0.1485
73614W        W16708   3.978  25.233   7.870 -0.1155  0.2393  0.1988
73615W        W16709   6.980  22.291   6.012  0.2516 -0.2911 -0.0021
73616W        W16710   5.692  23.448   6.064 -0.0937 -0.0147 -0.0075
73617W        W16711   6.805  23.390   7.110 -0.1143  0.0431  0.0468
73618W        W16712   6.749  23.030   8.196  0.0798 -0.2531 -0.1749
73619W        W16713   4.685  27.164   9.347  0.2518  0.0518 -0.0380
73620W        W16714   4.949  22.666   9.426  0.0877  0.0143  0.0795
73621W        W16715   5.835  24.832   8.190 -0.1853  0.1629  0.1529
73622W        W16716   5.495  23.602   8.564 -0.0250  0.1141  0.0433
73623W        W16717   7.114  26.229   9.493 -0.0337  0.0659 -0.2693
73624W        W16718   3.923  23.866   9.434 -0.0402 -0.1380  0.0024
73625W        W16719   5.079  25.718   6.762  0.0139  0.1017  0.2564
73626W        W16720   6.343  26.120   8.579  0.1405  0.0217 -0.1599
73627W        W16721   5.840  23.409   6.988  0.0039  0.0967 -0.2836
73628W        W16722   3.962  23.000   9.459  0.1007 -0.0621  0.0281
73629W        W16723   5.541  21.686   7.739  0.2226 -0.0142  0.1805
73630W        W16724   7.723  22.527   8.189 -0.1613 -0.2910  0.1630
73631W        W16725   4.806  24.808   8.124 -0.0783 -0.0026 -0.0384
73632W        W16726   7.418  24.029   9.984  0.2649  0.0081 -0.0235
73633W        W16727   7.224  23.860   6.691  0.4405 -0.2297 -0.1083
73634W        W16728   8.040  22.736   9.948 -0.1592  0.1591 -0.0240
73635W        W16729   6.123  23.327   9.099 -0.0530 -0.5005 -0.0149
73636W        W16730   4.524  23.423   6.827 -0.2220  0.2035  0.1552
73637W        W16731   5.433  23.477   7.845 -0.3420  0.1911 -0.0459
73638W        W16732   6.126  26.577   8.735 -0.0679 -0.1552  0.1386
73639W        W16733   7.209  23.516   7.408 -0.0757  0.2076 -0.0659
73640W        W16734   4.339  24.356   8.019 -0.0092  0.1738  0.0368
73641W        W16735   3.793  25.225   6.520 -0.0291  0.4293 -0.1212
73642W        W16736   4.845  22.771   8.864 -0.1695  0.3112  0.1126
73643W        W16737   5.595  24.174   6.889 -0.1283 -0.0187 -0.2606
73644W        W16738   7.073  21.952   9.632  0.0898 -0.3061  0.0391
73645W        W16739   6.006  24.560   9.458  0.0804  0.0831 -0.3303
73646W        W16740   7.811  23.313   6.985  0.0687 -0.0606  0.0025
73647W        W16741   7.838  21.714   8.996  0.2676  0.1018 -0.1350
73648W        W16742   4.663  23.471   7.795 -0.1323  0.0467  0.0283
73649W        W16743   7.232  26.246   7.925  0.1455  0.3523 -0.3738
73650W        W16744   7.171  23.761   8.102 -0.0600 -0.1518 -0.0680
73651W        W16745   5.982  25.765   7.226 -0.1245 -0.0770  0.0714
73652W        W16746   4.336  23.611  10.171 -0.1095 -0.0691  0.0938
73653W        W16747   5.161  22.298   9.582  0.2157  0.1012  0.1591
73654W        W16748   5.388  21.218   8.972  0.2635 -0.1004 -0.1753
73655W        W16749   6.185  21.590   8.418 -0.0103  0.0777  0.1452
73656W        W16750   8.261  22.215   9.012  0.0198 -0.0475  0.3360
73657W        W16751   5.015  23.547   8.300  0.1322 -0.3370 -0.0597
73658W        W16752   4.786  23.164   8.560  0.1707 -0.3793 -0.2453
73659W        W16753   5.920  24.878   7.222  0.1745  0.1419  0.2318
73660W        W16754   4.758  25.429   9.225 -0.4072 -0.2120 -0.3361
73661W        W16755   6.582  25.661   7.194  0.0103 -0.0893 -0.1215
73662W        W16756   6.036  22.074   9.471 -0.0027  0.2140  0.2464
73663W        W16757   5.132  22.815   7.205  0.2814 -0.0629  0.3243
73664W        W16758   4.840  25.761   7.897  0.1703  0.0114 -0.2833
73665W        W16759   4.963  26.136   8.171 -0.0219 -0.3450 -0.3601
73666W        W16760   5.333  22.999   7.645  0.1123  0.3838 -0.2100
73667W        W16761   6.383  25.027   9.650  0.0939 -0.1382 -0.0437
73668W        W16762   4.831  25.404   7.515 -0.0317  0.1035  0.1826
73669W        W16763   5.511  24.118   9.739 -0.1106  0.1018 -0.0275
73670W        W16764   5.047  24.748   9.172  0.3261  0.0671 -0.0228
73671W        W16765   4.466  22.981   9.115  0.1933  0.1301 -0.2481
73672W        W16766   6.469  26.434   8.181  0.0956 -0.1899 -0.2909
73673W        W16767   4.469  26.025   5.532 -0.2897  0.0734  0.0124
73674W        W16768   3.010  24.279   8.616  0.1870 -0.2211 -0.1698
73675W        W16769   6.044  26.222   7.372 -0.0122 -0.0003 -0.0825
73676W        W16770   6.859  21.978   8.917  0.0721  0.2728 -0.0840
73677W        W16771   2.899  22.597   7.896 -0.0430  0.0047  0.2869
73678W        W16772   6.459  22.121   8.470 -0.0610 -0.1559  0.0458
73679W        W16773   6.584  22.846   7.329 -0.0743  0.1087  0.3654
73680W        W16774   5.768  25.617   8.242  0.3321  0.1033 -0.1332
73681W        W16775   6.743  22.254   7.371 -0.0568  0.2024  0.1766
73682W        W16776   5.879  22.091   7.637  0.3276  0.2327  0.0572
73683W        W16777   5.781  25.641   6.418 -0.1518 -0.1473  0.2845
73684W        W16778   5.787  24.256   8.772  0.0645  0.0801  0.1386
73685W        W16779   7.450  23.887   7.702  0.0433  0.1251  0.0105
73686W        W16780   6.168  25.267   7.868 -0.0491 -0.0525 -0.1339
73687W        W16781   4.064  24.635   8.943 -0.2405  0.4117 -0.0743
73688W        W16782   5.849  25.666   7.743 -0.0777 -0.3096  0.2214
73689W        W16783   6.366  22.388   9.717 -0.1908 -0.0310  0.2036
73690W        W16784   6.387  24.052   6.857  0.1305 -0.1242 -0.0422
73691W        W16785   5.511  23.080   8.233  0.1062 -0.0306  0.2235
73692W        W16786   1.183  25.771   7.545  0.0627  0.0268 -0.0838
73693W        W16787   8.124  21.840   8.402  0.0192  0.1193 -0.2269
73694W        W16788   6.222  22.250   9.029  0.0851  0.2064 -0.0325
73695W        W16789   6.927  24.043   7.034 -0.2506 -0.0957 -0.2805
73696W        W16790   5.689  23.302   9.999 -0.2200 -0.0399  0.3877
73697W        W16791   3.064  23.079   7.805 -0.0133 -0.0293 -0.2006
73698W        W16792   7.324  22.582   9.947  0.0312  0.3458 -0.1593
73699W        W16793   3.353  25.459  10.039  0.0741 -0.1677 -0.0259
73700W        W16794   4.938  24.434   7.846 -0.1343  0.3417 -0.0124
73701W        W16795   5.806  23.219   9.496  0.2460  0.0710 -0.3625
73702W        W16796   4.546  25.711   6.555  0.1904 -0.0259  0.0888
73703W        W16797   3.967  24.258   7.718 -0.2058 -0.2114  0.0072
73704W        W16798   6.256  21.836   7.983 -0.0950  0.1441 -0.0524
73705W        W16799   6.090  25.429   9.177 -0.3398 -0.0296 -0.0705
73706W        W16800   3.954  25.135   7.312  0.0289  0.0027 -0.0481
73707W        W16801   4.009  26.525   9.861 -0.1365 -0.3864 -0.2640
73708W        W16802   4.423  24.155   8.819  0.1386 -0.2644  0.2095
73709W        W16803   8.187  23.235   9.793 -0.1504 -0.0307 -0.2773
73710W        W16804   3.622  26.584  10.551  0.1956  0.1117 -0.3717
73711W        W16805   6.070  22.898   6.968  0.1327  0.3293  0.1550
73712W        W16806   3.439  22.602  10.147 -0.2957  0.1112  0.1688
73713W        W16807   6.966  21.353   7.806 -0.2736 -0.0116  0.0782
73714W        W16808   7.334  23.412   6.936  0.0249 -0.0351 -0.1657
73715W        W16809   3.390  23.150   9.345 -0.1263 -0.3570  0.0144
73716W        W16810   6.197  21.740   8.903 -0.1568  0.1634 -0.1478
73717W        W16811   4.661  25.584   8.348  0.3528 -0.1581  0.0760
73718W        W16812   6.847  22.527   8.309 -0.1757 -0.1812  0.0359
73719W        W16813   4.250  23.807   7.863 -0.0759  0.1252 -0.1059
73720W        W16814   9.180  24.245   9.987 -0.2705 -0.0275  0.1164
73721W        W16815   5.716  24.080   8.289  0.1266 -0.0497 -0.1215
73722W        W16816   4.320  23.968   8.331 -0.0413  0.1799 -0.3665
73723W        W16817   6.168  24.685   8.539 -0.2060  0.0969  0.1164
73724W        W16818   4.932  24.927   7.298 -0.0548  0.1415  0.0909
73725W        W16819   4.992  25.771   8.940 -0.3161 -0.4037  0.2396
73726W        W16820   7.966  25.688   9.913  0.3321 -0.1465 -0.2988
73727W        W16821   3.998  24.864   9.846 -0.1365  0.0494 -0.0213
73728W        W16822   6.061  22.873   9.928 -0.2269  0.2890  0.0700
73729W        W16823   5.340  23.936   8.023 -0.1229  0.2417 -0.1208
73730W        W16824   5.576  25.490   9.245  0.0306 -0.0125  0.0142
73731W        W16825   5.162  25.162   9.432 -0.2434  0.2313 -0.3085
73732W        W16826   6.085  20.838   8.878  0.2617  0.2692 -0.3275
73733W        W16827   8.463  27.006   7.813  0.3371  0.0447 -0.2625
73734W        W16828   4.434  23.451   8.252  0.0408  0.0174  0.0151
73735W        W16829   4.602  23.798   9.246 -0.0500 -0.4414 -0.1164
73736W        W16830   5.267  24.577   7.520  0.3227  0.3446 -0.1960
73737W        W16831   5.561  23.428   9.038 -0.0157 -0.0401 -0.2981
73738W        W16832   2.417  24.759   9.317  0.0370  0.1497  0.0519
73739W        W16833   4.709  26.421   9.495  0.2575  0.3022 -0.0726
73740W        W16834   2.388  24.504   9.763 -0.0834 -0.0075 -0.3184
73741W        W16835   7.113  21.831   7.526  0.3053 -0.1719 -0.2190
73742W        W16836   6.156  24.480   7.007 -0.2446 -0.0348  0.1504
73743W        W16837   5.337  23.088   8.739  0.1116  0.0911  0.1925
73744W        W16838   5.024  25.282   8.071 -0.0805 -0.1254 -0.2325
73745W        W16839   4.967  23.858   9.935 -0.0167 -0.2121 -0.0544
73746W        W16840   5.415  25.106   8.900 -0.3611 -0.0559 -0.2502
73747W        W16841   4.153  22.601   9.185 -0.3408  0.1726 -0.1923
73748W        W16842   6.021  21.524   7.225 -0.2205  0.0491  0.1233
73749W        W16843   6.863  23.894   9.344  0.3571 -0.2811 -0.1266
73750W        W16844   6.489  24.360   8.222 -0.0212  0.2588  0.3858
73751W        W16845   6.010  23.995   7.264 -0.1944  0.1894  0.4656
73752W        W16846   6.700  24.353   8.920 -0.1728  0.0860 -0.1999
73753W        W16847   4.845  23.864  10.444 -0.2567  0.0127  0.1232
73754W        W16848   7.172  23.111  10.052 -0.0122 -0.1531 -0.0999
73755W        W16849   6.396  23.969   7.762  0.0432  0.2149 -0.1811
73756W        W16850   4.534  24.686   7.630  0.1466 -0.2540  0.0861
73757W        W16851   6.458  23.583   9.334 -0.3870 -0.0771  0.0271
73758W        W16852   5.927  22.836   8.240 -0.0802  0.2642  0.1787
73759W        W16853   4.123  25.215  10.430 -0.1639  0.0083 -0.0889
73760W        W16854   6.158  23.526   7.784  0.1554  0.0850 -0.1261
73761W        W16855   7.597  23.696   9.038 -0.0779  0.1322 -0.1454
73762W        W16856   7.930  23.853   7.598  0.2869 -0.0810  0.0479
73763W        W16857   6.635  24.506   7.730 -0.3612  0.0179  0.0910
73764W        W16858   5.881  23.062   8.665  0.0874 -0.2654 -0.1079
73765W        W16859   4.975  21.898   7.514  0.0686 -0.0474  0.0144
73766W        W16860   6.174  24.960   6.795 -0.1204  0.3161 -0.5194
73767W        W16861   5.401  25.353   8.395 -0.1703  0.1142  0.2612
73768W        W16862   7.671  23.095   8.107  0.1524 -0.1655  0.0385
73769W        W16863   5.186  22.059   9.109 -0.1111 -0.2680 -0.2293
73770W        W16864   3.756  21.717   8.369 -0.0695 -0.1700 -0.2945
73771W        W16865   4.764  23.811   6.990  0.1620  0.2346  0.0907
73772W        W16866   4.533  25.089   8.523 -0.2970  0.2006  0.5059
73773W        W16867   5.764  21.959   7.115  0.1612  0.2455  0.0556
73774W        W16868   4.784  24.406   7.264 -0.0936 -0.1633  0.1345
73775W        W16869   4.456  21.345  10.003 -0.2240 -0.1625 -0.1609
73776W        W16870   3.527  25.086   9.749  0.0874  0.2449 -0.2148
73777W        W16871   4.038  25.895   8.569 -0.0797 -0.0660 -0.2368
73778W        W16872   4.680  22.272   9.283 -0.0463 -0.1177 -0.0035
73779W        W16873   6.666  23.037   9.860 -0.2842  0.1465 -0.2327
73780W        W16874   5.065  23.840   9.403  0.0678  0.1560  0.2053
73781W        W16875   4.254  24.187   9.320 -0.1556 -0.3888  0.0625
73782W        W16876   5.935  24.991   9.029 -0.1845 -0.0083  0.0436
73783W        W16877   5.149  25.786   8.412  0.0583  0.1642  0.4548
73784W        W16878   5.455  25.012   7.211  0.1684  0.0638 -0.0873
73785W        W16879   5.627  21.609   8.646  0.4048  0.3292 -0.3533
73786W        W16880   5.749  23.496   7.468  0.1590 -0.0340  0.2959
73787W        W16881   5.136  25.077   9.915 -0.0400  0.2425 -0.1628
73788W        W16882   4.480  25.144   7.949  0.2675  0.0989 -0.3076
73789W        W16883   6.605  25.556   7.914  0.2887  0.1805 -0.0553
73790W        W16884   6.707  24.676   8.484  0.0906  0.2446 -0.3244
73791W        W16885   4.489  28.794  10.447 -0.0900 -0.1416 -0.1702
73792W        W16886   5.789  23.604   8.130 -0.0997 -0.0719 -0.1083
73793W        W16887   4.393  26.537   9.076 -0.0960  0.4032 -0.0191
73794W        W16888   3.377  25.561   6.756  0.3085  0.0716  0.0334
73795W        W16889   5.855  25.284   7.439 -0.0057  0.2354  0.1639
73796W        W16890   4.486  25.008   9.083 -0.1399  0.2562  0.0939
73797W        W16891   7.626  23.608   8.138 -0.1353  0.0127 -0.0402
73798W        W16892   6.886  23.311   9.499  0.1257 -0.0149  0.0189
73799W        W16893   7.444  24.138   8.275 -0.0970  0.0304 -0.0350
73800W        W16894   4.745  23.891   8.065  0.0842  0.2391 -0.1313
73801W        W16895   6.608  20.653   6.891 -0.2238  0.0575  0.2289
73802W        W16896   6.855  26.145   7.176  0.1966 -0.2558  0.0880
73803W        W16897   5.124  22.651   7.945  0.1275  0.1392  0.1784
73804W        W16898   5.552  22.575   9.473 -0.2948 -0.4361 -0.2808
73805W        W16899   8.228  22.977   9.325 -0.1449  0.1623 -0.2013
73806W        W16900   4.242  25.570   7.343  0.0256 -0.0358 -0.2427
73807W        W16901   6.233  22.834   8.955 -0.1896  0.0397 -0.0813
73808W        W16902   3.661  24.902   8.108 -0.0754  0.0419  0.0542
73809W        W16903   4.818  24.638   8.749  0.0381 -0.0742  0.3805
73810W        W16904   4.260  25.503   8.971  0.2877 -0.1950 -0.1283
73811W        W16905   3.589  22.709   9.248 -0.2104  0.1792 -0.0391
73812W        W16906   6.963  22.955   8.644 -0.1626 -0.1427  0.1026
73813W        W16907   4.078  23.835   8.961 -0.0871  0.1838 -0.5362
73814W        W16908   4.268  22.481   7.714  0.3405 -0.1491  0.0880
73815W        W16909   7.339  22.901   9.001 -0.1356  0.0737 -0.1558
73816W        W16910   7.612  26.514  10.142  0.0697 -0.1982 -0.1361
73817W        W16911   4.187  23.258  10.511  0.2699  0.1577 -0.0191
73818W        W16912   4.713  22.847   7.604  0.0206 -0.1306 -0.0460
73819W        W16913   6.397  22.933   6.103 -0.1629 -0.0452 -0.1599
73820W        W16914   5.930  22.542   8.632  0.1183 -0.0011 -0.0628
73821W        W16915   6.025  23.598   8.599 -0.6878 -0.2383 -0.0352
73822W        W16916   4.372  24.415   9.871 -0.0066  0.3419  0.1907
73823W        W16917   4.716  24.271   8.389 -0.0500 -0.1755  0.0911
73824W        W16918   4.003  22.499  11.041 -0.1013 -0.3306  0.2472
73825W        W16919   6.996  25.125   6.368 -0.1663  0.3805  0.1885
73826W        W16920   6.231  23.338   9.720 -0.0730 -0.5029 -0.1502
73827W        W16921   3.555  24.252   6.229  0.2957 -0.2530  0.3077
73828W        W16922   5.922  23.945   7.775 -0.0449 -0.3301  0.1543
73829W        W16923   6.289  24.053   8.690 -0.1837  0.0233  0.0630
73830W        W16924   5.317  22.578   9.002  0.1286  0.2191  0.2505
73831W        W16925   5.641  27.459   9.114  0.1698 -0.0583 -0.2393
73832W        W16926   7.362  23.995   9.475 -0.1482  0.0779  0.4850
73833W        W16927   5.709  22.255   9.064 -0.3029 -0.0444  0.0112
73834W        W16928   4.857  24.233   9.606  0.1813  0.1364 -0.0764
73835W        W16929   3.495  24.243   8.394  0.2159 -0.5273 -0.1879
73836W        W16930   7.437  23.306   9.323 -0.1885  0.4011 -0.0355
73837W        W16931   5.626  25.229   7.945  0.0523 -0.0873  0.0025
73838W        W16932   4.531  25.893   9.818 -0.1707 -0.1304 -0.1058
73839W        W16933   4.030  23.296   8.555 -0.0321 -0.2284 -0.0530
73840W        W16934   4.290  25.996   6.905  0.0852 -0.2623 -0.1059
73841W        W16935   5.366  25.784   7.908 -0.0622 -0.3109 -0.1426
73842W        W16936   6.186  25.879   8.098 -0.3451  0.2436 -0.1097
73843W        W16937   5.646  22.574   7.783  0.5280  0.0149 -0.2421
73844W        W16938   5.550  23.724   9.445 -0.0211  0.2045  0.0788
73845W        W16939   5.201  21.559   9.334 -0.2892 -0.2060 -0.0578
73846W        W16940   6.429  20.876   7.637  0.0300 -0.1617  0.0611
73847W        W16941   1.347  26.051   9.377 -0.1628 -0.0381 -0.0577
73848W        W16942   4.075  23.940   7.362  0.3282  0.3481 -0.0607
73849W        W16943   3.355  24.062   7.928  0.0463  0.1867  0.1557
73850W        W16944   5.103  23.538   8.873 -0.3944  0.1002 -0.1165
73851W        W16945   3.779  24.262   9.144  0.2483  0.1283 -0.2015
73852W        W16946   6.380  22.889   7.849 -0.1323 -0.1633  0.0369
73853W        W16947   7.049  24.621   7.226 -0.3057 -0.3245  0.1609
73854W        W16948   4.917  22.731  10.347 -0.0284  0.1018  0.0285
73855W        W16949   4.428  23.895   9.682 -0.1034 -0.0385 -0.3098
73856W        W16950   5.756  24.791   7.669 -0.1329  0.2471  0.0961
73857W        W16951   6.916  25.225   7.336 -0.3238  0.3331 -0.1685
73858W        W16952   5.796  19.352   9.739 -0.0354  0.0108 -0.1985
73859W        W16953   3.553  24.151   7.425 -0.2039 -0.0972  0.2032
73860W        W16954   3.821  22.242   8.534 -0.0910 -0.2426  0.1160
73861W        W16955   5.449  23.903   9.004  0.1633  0.3128 -0.0210
73862W        W16956   4.893  26.315   8.987  0.0213  0.0086 -0.0518
73863W        W16957   4.394  20.828   9.971 -0.1294  0.1281  0.0574
73864W        W16958   6.419  23.663   7.250  0.0737 -0.0149  0.1903
73865W        W16959   8.242  26.089   7.911 -0.0140  0.2155  0.4467
73866W        W16960   7.059  23.392   8.970  0.1140 -0.0321 -0.2439
73867W        W16961   6.702  23.271   7.566  0.5602 -0.2714 -0.0894
73868W        W16962   5.041  24.539   9.931 -0.3114 -0.2691 -0.1308
73869W        W16963   4.132  22.747   9.956  0.0049 -0.1459  0.3364
73870W        W16964   7.900  22.598   7.571  0.1144  0.2331 -0.3598
73871W        W16965   6.162  24.476   7.551  0.0636 -0.3444 -0.2234
73872W        W16966   5.280  24.367   8.312  0.1246  0.1555 -0.2321
73873W        W16967   5.247  22.664   8.481 -0.2849  0.2541  0.1057
73874W        W16968   5.979  23.795   9.024  0.1469 -0.2599  0.0046
73875W        W16969   5.384  22.316   7.390 -0.0585 -0.2043  0.1708
73876W        W16970   6.740  23.676   6.652  0.0032 -0.2447  0.0591
73877W        W16971   3.671  28.214  10.092 -0.2305  0.2453  0.1618
73878W        W16972   5.912  25.886   9.388  0.2878 -0.1414 -0.2136
73879W        W16973   6.086  25.193   8.515  0.0981 -0.0011 -0.1285
73880W        W16974   5.251  21.058   9.454  0.1095  0.1246  0.0450
73881W        W16975   5.548  24.412   7.865 -0.2562 -0.0103  0.1590
73882W        W16976   4.981  23.095   8.071  0.3063  0.2517 -0.2495
73883W        W16977   7.394  22.099  10.084 -0.1987  0.1047 -0.2174
73884W        W16978   6.897  22.404   9.692  0.0410  0.1394  0.0954
73885W        W16979   6.547  21.329   7.516 -0.2587 -0.1479 -0.0226
73886W        W16980   4.718  23.415   9.863 -0.2160 -0.4916 -0.0699
73887W        W16981   5.620  24.653   9.153  0.2202 -0.1133  0.1193
73888W        W16982   4.906  27.775   2.404 -0.2087 -0.2403 -0.1271
73889W        W16983   4.151  25.206   1.227  0.1969 -0.2050  0.0706
73890W        W16984   6.016  24.018  31.538  0.0596  0.3618 -0.2367
73891W        W16985   5.760  26.581   0.883 -0.1383  0.1769  0.0188
73892W        W16986   3.960  25.963   1.224  0.2179  0.2176 -0.0176
73893W        W16987   8.014  29.959   0.987  0.0710 -0.2545  0.0774
73894W        W16988   4.942  25.043   3.059 -0.0286  0.5004  0.0161
73895W        W16989   6.169  26.039   2.912 -0.0166 -0.1371  0.2103
73896W        W16990   7.750  27.887   1.941 -0.3901 -0.3808  0.1738
73897W        W16991   5.780  26.708  31.451 -0.3865  0.0173 -0.0243
73898W        W16992   4.613  26.046   1.657 -0.1242  0.0670  0.3306
73899W        W16993   6.376  28.499   3.026  0.2201 -0.0981 -0.0708
73900W        W16994   5.229  24.816   0.524 -0.1959  0.0285 -0.0959
73901W        W16995   3.135  26.391   2.013 -0.0252  0.1077 -0.2177
73902W        W16996   5.363  27.764   1.760 -0.1491 -0.0325 -0.1518
73903W        W16997   5.163  27.376   1.385 -0.1896 -0.4827  0.0524
73904W        W16998   4.929  26.942   2.410 -0.2854  0.2497 -0.1770
73905W        W16999   5.302  25.960   2.787  0.3035  0.1660  0.0345
73906W        W17000   5.434  29.995   2.220 -0.1442 -0.2439 -0.0882
73907W        W17001   4.432  25.431   2.650  0.3445 -0.0720  0.0621
73908W        W17002   5.106  26.224   3.892  0.1378  0.0263  0.0052
73909W        W17003   5.612  29.267   1.363  0.1163  0.1948 -0.2060
73910W        W17004   5.323  25.856   0.445 -0.1478  0.0748  0.0490
73911W        W17005   4.286  27.635   1.233 -0.0793  0.1327 -0.0390
73912W        W17006   4.718  26.620   2.846  0.1625  0.2720  0.0403
73913W        W17007   5.508  25.736   3.324  0.0046 -0.4424  0.2777
73914W        W17008   8.063  27.790   1.504  0.0754  0.0915 -0.1406
73915W        W17009   6.416  28.639   2.304 -0.1338 -0.2723  0.1741
73916W        W17010   6.350  28.141   2.100  0.0597  0.2297 -0.0282
73917W        W17011   7.734  26.576   3.918  0.0767  0.1296  0.1145
73918W        W17012   3.902  27.930   1.581  0.1557  0.1515  0.0790
73919W        W17013   4.005  28.233   1.169 -0.2645  0.0555  0.4570
73920W        W17014   5.385  27.806   2.590  0.0110  0.2099  0.1381
73921W        W17015   7.001  29.761   0.004  0.1836  0.1010 -0.0939
73922W        W17016   6.290  27.837   3.706  0.3864  0.3318  0.0487
73923W        W17017   4.689  29.880   2.016 -0.2441 -0.0129 -0.0357
73924W        W17018   3.539  29.430   0.702 -0.0408 -0.2153  0.0527
73925W        W17019   5.505  28.416   4.143 -0.0272  0.1010 -0.1545
73926W        W17020   5.695  28.981   3.480 -0.0418  0.1325 -0.1437
73927W        W17021   5.432  25.980   2.281 -0.0515 -0.3192 -0.2356
73928W        W17022   5.948  28.061   1.797 -0.0257  0.4068 -0.1021
73929W        W17023   5.627  28.487   1.235  0.1198  0.1853 -0.2190
73930W        W17024   5.659  27.943   1.365  0.1724 -0.0992  0.2548
73931W        W17025   5.658  29.051   4.018  0.1085  0.2596 -0.1089
73932W        W17026   4.663  28.382   1.840 -0.0824  0.1536 -0.0539
73933W        W17027   6.803  26.339   4.478  0.3166  0.3366  0.1629
73934W        W17028   5.214  28.405   0.944  0.0791 -0.2462 -0.2143
73935W        W17029   7.193  25.237   1.220  0.0189 -0.4946  0.0739
73936W        W17030   5.742  26.197  31.712  0.0547 -0.0192  0.0138
73937W        W17031   6.213  25.898   0.350 -0.3324  0.0423 -0.0786
73938W        W17032   4.907  25.194   2.140 -0.0776 -0.0749  0.1875
73939W        W17033   4.444  30.343   1.259 -0.3625  0.1249  0.1916
73940W        W17034   4.755  26.467   2.126  0.1423  0.2249  0.3576
73941W        W17035   6.718  26.378   2.518 -0.0591 -0.1639  0.2951
73942W        W17036   5.457  27.683   0.896 -0.0350 -0.1931  0.0797
73943W        W17037   5.097  26.008   3.388  0.2416  0.1528  0.1361
73944W        W17038   3.310  29.747   2.623 -0.1601 -0.0242 -0.1845
73945W        W17039   3.906  27.711   0.932  0.1737  0.3183  0.1990
73946W        W17040   6.846  28.164  31.081  0.0929 -0.0643  0.1440
73947W        W17041   7.497  28.724   1.912 -0.1237 -0.1640 -0.1822
73948W        W17042   5.613  27.399   1.284 -0.0179 -0.2529  0.0946
73949W        W17043   5.506  26.376   1.314 -0.0736  0.1840  0.1144
73950W        W17044   4.221  28.115   2.803  0.0538  0.0528 -0.1624
73951W        W17045   3.605  28.265   2.186  0.0191  0.1909  0.1420
73952W        W17046   5.269  26.031   1.052  0.1110 -0.2577  0.2953
73953W        W17047   6.702  28.248   3.370 -0.1058  0.1649  0.1355
73954W        W17048   3.080  29.797   2.131 -0.4125 -0.1603  0.2716
73955W        W17049   7.467  27.339   0.949  0.1163  0.3956  0.0112
73956W        W17050   5.053  28.071   1.932 -0.0029  0.1096  0.1972
73957W        W17051   6.089  27.106   3.052  0.1772 -0.1869 -0.0632
73958W        W17052   5.630  27.178  31.958  0.0022 -0.0601 -0.1079
73959W        W17053   6.519  24.942   2.690 -0.2378  0.0323 -0.1581
73960W        W17054   5.390  25.931   4.146 -0.2465 -0.0122 -0.1704
73961W        W17055   4.760  26.802  31.511  0.0380 -0.2085  0.1572
73962W        W17056   4.301  27.564  31.589 -0.0810 -0.1392 -0.2274
73963W        W17057   7.917  28.007   3.300  0.2470  0.0352  0.1315
73964W        W17058   6.292  26.204   0.766 -0.1770 -0.0578 -0.1414
73965W        W17059   4.923  28.851   2.827  0.0488 -0.1839  0.2084
73966W        W17060   5.131  27.806   4.299 -0.0753 -0.1767  0.0612
73967W        W17061   5.422  28.661   3.732  0.1759 -0.1988  0.0662
73968W        W17062   4.007  27.192   1.034 -0.1899 -0.0855 -0.0515
73969W        W17063   4.756  28.751   2.213 -0.1062  0.0578 -0.1594
73970W        W17064   3.114  28.099   0.049  0.0110 -0.1399 -0.0805
73971W        W17065   3.775  27.533   2.579  0.0954  0.0468 -0.1065
73972W        W17066   4.734  29.345   3.001 -0.5240 -0.1387 -0.0711
73973W        W17067   5.676  25.855   1.313 -0.0299  0.0516 -0.2393
73974W        W17068   4.499  25.560   2.152  0.2060  0.1598  0.2270
73975W        W17069   6.658  26.167   2.076  0.2929  0.0196 -0.1427
73976W        W17070   4.318  28.546   0.799 -0.4063  0.0725 -0.1318
73977W        W17071   7.086  30.458   0.326 -0.1214 -0.1005  0.0136
73978W        W17072   5.293  26.311   1.871 -0.1119  0.0145 -0.1648
73979W        W17073   7.398  27.680  31.828  0.3063  0.3684 -0.1137
73980W        W17074   2.425  27.957   2.239  0.1769 -0.0018  0.0137
73981W        W17075   3.908  26.732   0.661 -0.2561  0.2235  0.1403
73982W        W17076   3.693  26.065   4.505 -0.2621  0.1575 -0.0242
73983W        W17077   5.223  26.845   1.495 -0.0913 -0.0504  0.3857
73984W        W17078   6.291  26.217   3.353  0.0860  0.1180  0.2891
73985W        W17079   4.742  24.079   0.334 -0.0288  0.0576 -0.0372
73986W        W17080   5.920  26.383   1.741  0.0604  0.0409 -0.4174
73987W        W17081   4.752  27.661   1.559  0.0049  0.0718 -0.1183
73988W        W17082   3.768  26.504   1.975  0.1073 -0.2138  0.2237
73989W        W17083   6.545  26.310   3.942  0.2124  0.3276  0.0608
73990W        W17084   6.459  30.161   1.835 -0.0120  0.0943 -0.0856
73991W        W17085   7.710  28.691   2.396  0.0562  0.0488  0.0430
73992W        W17086   7.905  29.650   1.739 -0.3985  0.1455 -0.3746
73993W        W17087   4.936  26.248   2.501 -0.1846  0.1228 -0.1392
73994W        W17088   3.935  27.240   0.520  0.2895  0.2161 -0.4645
73995W        W17089   4.665  29.845   1.413 -0.1143 -0.1818 -0.1521
73996W        W17090   6.428  29.381   1.409  0.0082  0.0062  0.0341
73997W        W17091   5.091  24.707   1.763 -0.1884 -0.0368  0.1052
73998W        W17092   7.524  27.427   1.744  0.1375 -0.0420  0.0171
73999W        W17093   6.077  27.123  31.667 -0.1434 -0.0127  0.1319
74000W        W17094   4.500  26.896   3.295  0.0601 -0.0697  0.2354
74001W        W17095   6.811  25.016   3.600  0.1587  0.1216  0.4784
74002W        W17096   6.608  27.244   2.885 -0.0509 -0.1875 -0.2509
74003W        W17097   5.942  26.857   2.577  0.3823 -0.1981 -0.1346
74004W        W17098   4.952  25.773  31.592 -0.0135  0.0078  0.1387
74005W        W17099   6.045  27.901   2.502 -0.1279 -0.0177  0.0687
74006W        W17100   3.809  28.193   0.607 -0.2804  0.0144  0.2035
74007W        W17101   4.413  25.965   0.678  0.0963  0.2251 -0.0735
74008W        W17102   5.546  28.607   0.663  0.2100  0.1452  0.0179
74009W        W17103   6.639  25.461   2.688  0.1826 -0.1608 -0.2195
74010W        W17104   4.251  26.547   3.578  0.0313  0.2583 -0.1574
74011W        W17105   6.408  26.072   4.663  0.0868  0.1362  0.0531
74012W        W17106   4.213  27.303   0.091 -0.0332  0.0417  0.0251
74013W        W17107   4.515  27.607   2.681  0.0478 -0.0194  0.2111
74014W        W17108   5.703  26.566   2.145  0.0547 -0.0752 -0.1134
74015W        W17109   8.209  27.040  31.652  0.3025 -0.1623 -0.2384
74016W        W17110   5.626  27.887   4.155 -0.1293 -0.1874  0.1361
74017W        W17111   6.376  26.941  31.206  0.1335 -0.0462 -0.2196
74018W        W17112   5.499  24.538   0.916  0.1309 -0.0777  0.2581
74019W        W17113   6.258  25.345   0.731 -0.0103  0.3341  0.4741
74020W        W17114   4.215  27.192   2.877  0.1991  0.0452  0.1071
74021W        W17115   6.107  28.979   1.942 -0.1624 -0.2880 -0.1397
74022W        W17116   6.489  27.598   3.330  0.0328 -0.0004 -0.2367
74023W        W17117   6.018  27.722   1.082  0.0205 -0.0775 -0.0427
74024W        W17118   7.441  28.228   1.129 -0.1830 -0.3600 -0.0767
74025W        W17119   4.408  28.036   1.515 -0.0644 -0.1106  0.0594
74026W        W17120   4.806  26.432   3.327  0.1092  0.0691 -0.0246
74027W        W17121   6.638  27.654   1.935 -0.1676  0.0175  0.2758
74028W        W17122   4.472  26.286   2.615 -0.0439  0.1000  0.1818
74029W        W17123   4.785  26.686   1.135 -0.1947  0.0866 -0.1348
74030W        W17124   6.138  26.621   0.575  0.0428 -0.2762  0.1772
74031W        W17125   3.621  28.755  31.498  0.0019  0.0163 -0.2102
74032W        W17126   7.270  26.072   3.167  0.1557  0.1910 -0.1919
74033W        W17127   6.443  26.367   1.638  0.2425 -0.0310  0.0739
74034W        W17128   4.827  25.955   4.696  0.1499  0.0319  0.0181
74035W        W17129   6.553  26.946   3.264  0.2744 -0.1621  0.0172
74036W        W17130   6.498  26.826   2.547  0.1094  0.1181 -0.0159
74037W        W17131   5.277  26.903   3.978 -0.0765  0.2545 -0.2004
74038W        W17132   3.205  28.105   0.608 -0.5968  0.1627 -0.1454
74039W        W17133   5.276  25.681   3.713  0.0021  0.0014 -0.0727
74040W        W17134   4.188  26.796   4.335 -0.2666  0.1127  0.1919
74041W        W17135   5.264  27.368   3.098 -0.0815 -0.1494  0.1281
74042W        W17136   6.086  28.919   3.174 -0.2501 -0.1022 -0.2088
74043W        W17137   7.227  26.405   1.205 -0.1411  0.0507 -0.0061
74044W        W17138   5.619  27.344   4.147 -0.1526  0.0521 -0.1990
74045W        W17139   5.214  26.474   0.872  0.1301 -0.1138  0.0883
74046W        W17140   4.271  27.518   0.719  0.2551 -0.0509 -0.0337
74047W        W17141   3.560  27.215   0.847  0.1014 -0.1090 -0.0171
74048W        W17142   5.509  24.318   2.042 -0.1733  0.1175  0.0821
74049W        W17143   5.136  26.831   1.974 -0.2192  0.1386  0.3466
74050W        W17144   5.064  28.511   1.544 -0.2144 -0.0858 -0.2088
74051W        W17145   6.200  26.619   2.986  0.3584 -0.0787 -0.3376
74052W        W17146   5.708  28.223   2.687 -0.3404  0.0316  0.2550
74053W        W17147   6.441  25.918   2.488 -0.0311 -0.1585 -0.2872
74054W        W17148   2.957  30.165   2.506  0.0470  0.0230  0.3020
74055W        W17149   3.740  27.027   1.780 -0.0406 -0.0991 -0.0119
74056W        W17150   4.931  24.907   0.141 -0.1599  0.3903  0.1178
74057W        W17151   6.249  24.660   1.479 -0.1506 -0.1686  0.1690
74058W        W17152   6.358  27.464   0.853  0.0275 -0.0832  0.1241
74059W        W17153   3.879  25.238   2.596  0.3919 -0.1833 -0.0775
74060W        W17154   6.237  26.418   2.469  0.1174 -0.1840  0.0035
74061W        W17155   4.036  28.889   1.643 -0.2182 -0.1357 -0.0189
74062W        W17156   5.564  28.077   2.209  0.0204 -0.2714  0.0344
74063W        W17157   4.417  25.930  31.710 -0.0606  0.3467 -0.1794
74064W        W17158   5.872  28.526   2.130 -0.0626 -0.1243 -0.0597
74065W        W17159   5.554  28.202   3.490  0.1779 -0.0657  0.2384
74066W        W17160   3.691  27.421   0.162  0.7167  0.3450  0.1297
74067W        W17161   7.655  28.111   3.749 -0.3093  0.0850  0.1585
74068W        W17162   5.715  25.997   1.875 -0.0577 -0.1141  0.0779
74069W        W17163   3.016  27.845   1.431 -0.0470  0.0222 -0.1723
74070W        W17164   7.183  29.204   1.844  0.1962  0.0848  0.1279
74071W        W17165   3.343  27.045   0.391 -0.0652  0.0951 -0.0920
74072W        W17166   5.106  28.986   1.817 -0.3475  0.3571 -0.2446
74073W        W17167   5.033  27.408   3.964  0.1609  0.1430  0.0798
74074W        W17168   7.225  26.595   3.078 -0.1670 -0.1920  0.2764
74075W        W17169   4.146  26.684   1.091 -0.1222  0.0787 -0.1318
74076W        W17170   5.224  25.564   2.082 -0.0052 -0.2775  0.1382
74077W        W17171   6.341  26.737   2.044 -0.2419 -0.1299  0.2817
74078W        W17172   6.943  27.477   2.312 -0.1297 -0.0034 -0.1725
74079W        W17173   5.311  26.574   3.529  0.0252 -0.2767  0.0715
74080W        W17174   4.133  27.260   3.358 -0.2956  0.0986  0.0055
74081W        W17175   5.073  25.565   4.419 -0.0115  0.0913  0.0003
74082W        W17176   6.683  29.559   0.963  0.0740  0.1600  0.2092
74083W        W17177   6.303  26.809   3.658  0.1185  0.4178  0.0415
74084W        W17178   4.686  27.361   0.507 -0.0290  0.2387  0.0934
74085W        W17179   2.963  28.299   1.625  0.0283 -0.0827 -0.0662
74086W        W17180   5.610  27.503   2.222 -0.4264 -0.1870 -0.2356
74087W        W17181   4.927  25.668   2.554 -0.1784 -0.2196 -0.0342
74088W        W17182   3.133  29.175   2.057 -0.0445 -0.2777  0.2287
74089W        W17183   5.409  27.220   1.842 -0.1668  0.2677 -0.0077
74090W        W17184   3.767  28.745   1.256  0.1984  0.1268  0.2337
74091W        W17185   7.192  25.349   0.023  0.0398 -0.0406  0.0457
74092W        W17186   6.175  28.598   0.112  0.2212 -0.0239 -0.3295
74093W        W17187   5.799  25.548   2.019 -0.0881  0.0199 -0.0166
74094W        W17188   8.316  26.590   3.175  0.2283  0.2420 -0.1631
74095W        W17189   6.710  26.835   0.855  0.1364  0.1609  0.3406
74096W        W17190   6.365  25.337   3.627 -0.0321 -0.0796  0.0561
74097W        W17191   4.273  25.672   1.575 -0.0437  0.0424 -0.0917
74098W        W17192   7.594  26.977   1.439 -0.1075  0.2308  0.1635
74099W        W17193   3.701  27.286   3.053  0.2589  0.0916  0.0525
74100W        W17194   6.350  29.907   3.195 -0.1176 -0.0919  0.0510
74101W        W17195   2.823  27.337   3.148  0.0774 -0.1281  0.2953
74102W        W17196   5.882  26.321   0.230  0.0212  0.2725 -0.4491
74103W        W17197   5.289  25.543   1.207 -0.0653  0.1858 -0.0307
74104W        W17198   4.025  27.065   2.217  0.0562 -0.2435  0.0657
74105W        W17199   7.689  27.824   1.103  0.1552  0.2398 -0.0555
74106W        W17200   7.052  28.009   0.301 -0.1699  0.0012  0.0203
74107W        W17201   6.501  25.995   1.237  0.2421 -0.3575  0.0100
74108W        W17202   4.616  27.882   2.017 -0.0715  0.1998 -0.0051
74109W        W17203   5.668  26.660   2.982 -0.0030  0.0216  0.0687
74110W        W17204   5.181  27.019   0.280 -0.5025  0.0847  0.0501
74111W        W17205   4.798  27.065   1.559  0.0747  0.3428  0.0618
74112W        W17206   4.872  25.157   3.599  0.0012 -0.1016 -0.0734
74113W        W17207   6.681  26.512   1.248 -0.0443  0.3791 -0.0430
74114W        W17208   5.812  25.712   2.900 -0.2530  0.0424  0.0036
74115W        W17209   6.073  26.104   3.828  0.0140 -0.2326  0.1849
74116W        W17210   4.805  25.978   2.959  0.0618 -0.0012  0.2671
74117W        W17211   4.968  27.464   3.463 -0.0832  0.2455  0.0144
74118W        W17212   3.298  26.616   4.218  0.0794  0.0043  0.0698
74119W        W17213   7.490  30.233   1.750 -0.0777 -0.2073 -0.1077
74120W        W17214   6.260  26.573  31.626 -0.0581  0.3153 -0.2370
74121W        W17215   6.888  27.314   3.589 -0.3221  0.0127  0.1040
74122W        W17216   6.865  27.189   1.804 -0.0013 -0.2085 -0.0888
74123W        W17217   6.968  25.751   1.302 -0.1304  0.1363  0.0890
74124W        W17218   5.206  26.427   2.906  0.1272 -0.0694  0.0038
74125W        W17219   5.954  26.577   3.418  0.3150  0.4321 -0.1364
74126W        W17220   5.091  27.410   0.749 -0.1804 -0.0369  0.1770
74127W        W17221   5.000  26.309   4.413 -0.1062 -0.5115 -0.1058
74128W        W17222   5.125  28.779  31.905  0.2499  0.1289  0.1266
74129W        W17223   5.471  28.242   1.707  0.0666  0.2722 -0.0788
74130W        W17224   6.263  26.699   1.076 -0.1884  0.0838  0.0327
74131W        W17225   3.375  26.761   2.271 -0.0936  0.0668  0.1521
74132W        W17226   4.527  28.098   4.284 -0.3394 -0.0499 -0.2158
74133W        W17227   3.342  26.219   0.396 -0.3381 -0.0325 -0.1217
74134W        W17228   4.335  27.043   1.375 -0.1472  0.3659  0.2000
74135W        W17229   6.435  28.238   2.605  0.1369 -0.2770  0.3614
74136W        W17230   7.334  26.946   3.712 -0.0012  0.1352  0.0643
74137W        W17231   5.982  24.604   1.875 -0.4075  0.0483  0.3085
74138W        W17232   7.207  25.562   4.161  0.0945  0.0825  0.2884
74139W        W17233   3.909  29.140   0.300  0.2457  0.3248  0.2344
74140W        W17234   4.912  25.936   2.076 -0.5805  0.0577 -0.0272
74141W        W17235   5.482  29.038   0.944 -0.0196 -0.3217 -0.1869
74142W        W17236   4.016  28.574   2.996 -0.0763 -0.1015  0.1141
74143W        W17237   6.117  29.095   2.672 -0.0058  0.0295  0.0666
74144W        W17238   4.765  25.619   3.743 -0.3781  0.0577  0.1009
74145W        W17239   6.083  26.563   4.032  0.1217 -0.2457 -0.0579
74146W        W17240   6.212  27.700   1.527  0.3361 -0.2045  0.0799
74147W        W17241   7.377  27.729   2.363 -0.1653 -0.4296  0.0758
74148W        W17242   5.667  26.214   3.133 -0.1772  0.1744  0.3396
74149W        W17243   5.311  28.622   2.081  0.1873  0.1560  0.1886
74150W        W17244   6.492  28.685   1.740 -0.1660 -0.2176 -0.3098
74151W        W17245   6.786  27.412   0.354  0.1327  0.0324  0.0019
74152W        W17246   4.200  27.802   2.292  0.1193 -0.1916  0.0983
74153W        W17247   4.446  26.773   2.462  0.0755 -0.0344  0.2651
74154W        W17248   6.608  27.607   4.193 -0.0825 -0.1757  0.1933
74155W        W17249   5.780  27.498   1.717  0.0119 -0.0428  0.3461
74156W        W17250   6.318  25.004   1.887 -0.0640  0.1041 -0.1788
74157W        W17251   5.978  28.655   0.919 -0.0207 -0.1872  0.3469
74158W        W17252   5.865  26.962   3.830  0.4762  0.2045  0.1487
74159W        W17253   3.499  29.014   1.653 -0.0636  0.3611  0.1088
74160W        W17254   4.928  28.735   0.698 -0.2456  0.2296  0.0295
74161W        W17255   6.681  27.527   1.403  0.0841 -0.0504 -0.0860
74162W        W17256   5.510  25.411   0.424 -0.0949 -0.0336 -0.0278
74163W        W17257   7.280  29.500   2.299 -0.1489 -0.0270 -0.1019
74164W        W17258   5.341  26.931   0.893 -0.2164 -0.0853  0.3466
74165W        W17259   4.531  28.769   1.321  0.1903 -0.2780 -0.0474
74166W        W17260   1.997  27.786  31.401  0.0065 -0.2486 -0.1143
74167W        W17261   7.275  27.551   0.549 -0.1346 -0.0406  0.3635
74168W        W17262   2.947  29.340   0.560 -0.0914  0.0747 -0.2982
74169W        W17263   6.392  27.312   3.872  0.0936  0.3035 -0.4178
74170W        W17264   6.151  24.189   0.416  0.2482  0.2184  0.1549
74171W        W17265   7.739  27.221  31.808 -0.0176  0.1907 -0.0295
74172W        W17266   6.827  25.378   1.588  0.0579 -0.2603  0.1888
74173W        W17267   6.651  28.792   3.378  0.2036  0.2433  0.0271
74174W        W17268   6.169  27.667   2.047  0.1011  0.4031  0.1440
74175W        W17269   5.573  25.728  31.661 -0.1499 -0.1986 -0.1013
74176W        W17270   3.871  26.064   3.446 -0.1409 -0.3783 -0.0803
74177W        W17271   6.907  26.004   4.098 -0.2689  0.3209 -0.2281
74178W        W17272   4.459  28.299   3.768  0.2782  0.1017  0.1084
74179W        W17273   6.746  27.782   0.692  0.1894 -0.2902  0.1333
74180W        W17274   3.886  25.254   0.178 -0.3333 -0.0759 -0.2302
74181W        W17275   6.141  27.202   1.245  0.0733  0.1758 -0.0715
74182W        W17276   7.447  26.056   4.078  0.2351 -0.0360  0.0669
74183W        W17277   4.530  26.440   0.723 -0.1394  0.0047 -0.1390
74184W        W17278   4.746  24.392   1.840  0.2648 -0.0888  0.1855
74185W        W17279   4.658  29.345   1.249 -0.0182  0.0914 -0.0818
74186W        W17280   4.415  29.478   1.725  0.1951  0.0713 -0.1401
74187W        W17281   5.737  28.601   3.126 -0.3469  0.3005  0.2285
74188W        W17282   5.057  25.148   0.918 -0.1812  0.2819 -0.0901
74189W        W17283   7.825  27.382   1.364  0.2472  0.1176 -0.3967
74190W        W17284   3.632  26.890   2.801  0.1496 -0.0712  0.0596
74191W        W17285   6.158  25.470   2.601 -0.1923 -0.1763  0.0823
74192W        W17286   5.099  27.914   1.251  0.1702  0.0322  0.1037
74193W        W17287   5.977  27.159   2.054 -0.2646  0.0728  0.4054
74194W        W17288   6.019  27.328   3.516 -0.1727  0.2740  0.2741
74195W        W17289   3.201  27.934   1.912 -0.2023  0.1603 -0.1028
74196W        W17290   5.875  27.233   0.832  0.2823 -0.1500  0.1385
74197W        W17291   7.409  27.617   3.699  0.1153 -0.4124 -0.0192
74198W        W17292   5.199  27.028  31.727  0.0891 -0.1097 -0.4343
74199W        W17293   6.787  29.630   3.009  0.0425 -0.0694  0.0947
74200W        W17294   4.920  26.146   0.614  0.0361  0.2014 -0.2460
74201W        W17295   5.732  25.311  31.967 -0.1741 -0.0157 -0.0646
74202W        W17296   3.576  27.507   1.226 -0.3003 -0.0802 -0.1424
74203W        W17297   5.524  27.021   2.336  0.1011 -0.0485  0.0163
74204W        W17298   6.504  29.114   2.971  0.1868 -0.1795 -0.1306
74205W        W17299   4.359  25.067   0.411  0.0125  0.3673  0.2769
74206W        W17300   7.090  28.106  31.738  0.2057 -0.3368 -0.2490
74207W        W17301   6.944  26.972   2.292  0.2249  0.5148 -0.2159
74208W        W17302   5.189  28.407   0.339 -0.1433  0.1619  0.0825
74209W        W17303   6.355  27.241   1.757  0.2127  0.2261  0.0220
74210W        W17304   6.834  28.049   2.389  0.0339  0.0070 -0.2275
74211W        W17305   4.075  26.286   1.541  0.0713 -0.1176 -0.3441
74212W        W17306   6.933  28.826   1.997  0.1635 -0.1517 -0.1028
74213W        W17307   7.866  27.857   2.450 -0.5035  0.0657  0.0986
74214W        W17308   6.600  25.423   1.162 -0.0169  0.5520  0.0800
74215W        W17309   5.720  26.948   1.211 -0.0744 -0.0486  0.1217
74216W        W17310   5.379  29.029   0.439  0.3589  0.0678  0.0186
74217W        W17311   5.669  26.829   1.736  0.0366 -0.1796 -0.1485
74218W        W17312   5.771  27.706   3.613  0.0503 -0.0075 -0.0109
74219W        W17313   6.420  28.622   0.729  0.1591 -0.1309  0.1909
74220W        W17314   5.603  26.101   3.680  0.0906  0.1651  0.2344
74221W        W17315   6.510  27.657   2.578 -0.2663  0.1169  0.4112
74222W        W17316   5.260  28.940   3.183  0.1475 -0.2975  0.1471
74223W        W17317   4.268  28.229   0.293 -0.0065  0.0241 -0.0762
74224W        W17318   5.943  28.144   3.873 -0.1419 -0.1057  0.0435
74225W        W17319   4.987  27.452   1.960  0.2508 -0.1131  0.1427
74226W        W17320   5.301  26.565   2.403 -0.2114 -0.1286 -0.0677
74227W        W17321   6.514  27.234   2.232 -0.1236  0.1432  0.1517
74228W        W17322   6.104  26.834   1.562  0.1184  0.3526  0.1101
74229W        W17323   7.022  27.657   2.772  0.0093 -0.1969  0.2232
74230W        W17324   4.976  26.308   1.432 -0.0556  0.2221  0.0618
74231W        W17325   6.705  26.299   0.526 -0.1435 -0.0875  0.1247
74232W        W17326   6.612  25.789   1.683  0.0267 -0.3655  0.0497
74233W        W17327   5.219  28.345   3.011  0.1799  0.3016  0.1312
74234W        W17328   3.532  26.985   1.342  0.0888 -0.3407 -0.1833
74235W        W17329   4.751  27.201   1.073 -0.0665 -0.1293  0.3295
74236W        W17330   4.395  27.368   1.743 -0.2038  0.0849 -0.0055
74237W        W17331   7.598  25.091   4.035 -0.0306 -0.1050  0.1508
74238W        W17332   2.833  25.325   4.125 -0.1344 -0.2108  0.1076
74239W        W17333   4.719  28.188   1.129 -0.0004 -0.0092  0.2782
74240W        W17334   4.420  26.173   1.178 -0.0706  0.0776 -0.0532
74241W        W17335   6.308  29.029   0.432  0.2082 -0.0960 -0.0476
74242W        W17336   5.041  24.716   2.262 -0.2179  0.3329 -0.0957
74243W        W17337   3.511  26.085   1.788  0.0401  0.0438  0.2144
74244W        W17338   7.186  27.705   1.924 -0.2775  0.0825  0.1712
74245W        W17339   7.379  28.874   1.485 -0.1159  0.0208  0.6131
74246W        W17340   4.997  25.271   0.459  0.5742 -0.2179 -0.0950
74247W        W17341   7.363  28.639   3.305  0.1005  0.0746  0.0996
74248W        W17342   2.318  27.581   1.011  0.0885 -0.0620 -0.2887
74249W        W17343   3.103  26.446   3.667 -0.3875 -0.2828  0.0539
74250W        W17344   5.014  25.532   3.234 -0.1576 -0.3955  0.0145
74251W        W17345   4.830  26.838   0.540  0.0371  0.0211  0.1318
74252W        W17346   4.389  26.923   3.861 -0.0475 -0.4182  0.1925
74253W        W17347   6.542  28.182   0.282  0.3333 -0.1381 -0.2348
74254W        W17348   6.571  26.975   1.422  0.1505  0.1442 -0.1086
74255W        W17349   5.185  27.334   2.478 -0.0010  0.0091 -0.0403
74256W        W17350   5.416  27.889   3.080 -0.0884 -0.0206 -0.0138
74257W        W17351   4.050  25.581   2.997  0.4633  0.1373  0.0399
74258W        W17352   6.865  28.406   1.178 -0.0783  0.1490 -0.0693
74259W        W17353   4.575  29.224   2.526 -0.1636 -0.1934 -0.1614
74260W        W17354   6.601  25.660  31.403 -0.2266  0.2095  0.0350
74261W        W17355   7.592  25.627   3.375 -0.0425 -0.2041  0.1173
74262W        W17356   6.561  27.980   1.139  0.1164 -0.0098 -0.0845
74263W        W17357   3.933  26.178   2.838 -0.2202  0.1571  0.3107
74264W        W17358   4.506  28.259   2.320 -0.1092  0.0799 -0.0022
74265W        W17359   7.017  28.505   2.393 -0.2071  0.0815  0.0213
74266W        W17360   6.040  26.256   1.279 -0.1491 -0.0988  0.0667
74267W        W17361   6.421  27.066   0.538 -0.0834 -0.3589  0.1600
74268W        W17362   5.958  28.529   1.576 -0.4545  0.0407  0.3285
74269W        W17363   3.668  26.360   1.232  0.4924 -0.1082  0.0521
74270W        W17364   4.725  27.713   0.957  0.2055  0.3940  0.1166
74271W        W17365   4.984  27.004   3.259  0.0168  0.0064  0.0456
74272W        W17366   5.646  29.506   2.515  0.2163  0.0253  0.5326
74273W        W17367   6.787  28.329   1.982  0.2811  0.0227  0.0090
74274W        W17368   6.093  28.221   1.234  0.1831  0.0578  0.1882
74275W        W17369   8.298  25.836  31.931 -0.3743  0.0202  0.0133
74276W        W17370   6.836  29.015   2.628 -0.1188 -0.1866  0.0872
74277W        W17371   7.960  30.456   4.253  0.1751 -0.1050  0.4136
74278W        W17372   7.145  29.433   2.741 -0.0397 -0.0233 -0.1714
74279W        W17373   7.067  28.177   2.917 -0.2673  0.0630  0.3302
74280W        W17374   4.000  26.206   2.325 -0.2114  0.1762  0.1386
74281W        W17375   5.121  29.040   1.238  0.2284  0.5951  0.0642
74282W        W17376   4.565  27.304   2.248 -0.2622  0.2282  0.2197
74283W        W17377   6.084  27.340   2.572 -0.1747  0.1868  0.0939
74284W        W17378   5.294  25.049   2.478  0.3001  0.1076 -0.2031
74285W        W17379   5.655  25.648   0.830  0.3726  0.2161  0.0495
74286W        W17380   4.939  28.626   3.400  0.1352  0.2283  0.1203
74287W        W17381   5.598  27.301   2.785 -0.2901  0.3051 -0.1539
74288W        W17382   6.155  28.905   6.995 -0.0857 -0.0426 -0.3369
74289W        W17383   3.229  26.451   5.298 -0.4590 -0.1463 -0.1221
74290W        W17384   7.289  26.422   3.527  0.0330 -0.0097  0.1331
74291W        W17385   5.659  28.018   5.051  0.1370  0.0303 -0.0991
74292W        W17386   4.095  24.189   4.924 -0.0748  0.1149 -0.0946
74293W        W17387   5.969  28.962   5.016  0.0817 -0.3793 -0.0942
74294W        W17388   4.116  24.037   5.636  0.2440 -0.0721  0.1329
74295W        W17389   5.192  26.414   5.806 -0.1708 -0.2186 -0.0301
74296W        W17390   7.772  29.483   6.969  0.1447  0.2650  0.0639
74297W        W17391   6.564  26.886   4.076  0.1509  0.2039 -0.0254
74298W        W17392   7.021  27.225   7.346  0.1344 -0.3292 -0.0758
74299W        W17393   6.193  29.009   5.765 -0.2771 -0.1192  0.2605
74300W        W17394   5.929  26.167   4.327 -0.0921 -0.0199  0.3775
74301W        W17395   3.416  24.998   4.930 -0.3271  0.0592 -0.0577
74302W        W17396   6.716  27.037   7.693  0.1710 -0.0260  0.2504
74303W        W17397   3.122  27.365   5.169  0.0241  0.1648 -0.2354
74304W        W17398   4.527  26.477   5.860 -0.1122  0.0067  0.1519
74305W        W17399   4.071  26.689   5.478  0.0840 -0.0602  0.0151
74306W        W17400   5.296  28.952   4.896  0.2444  0.0545 -0.0981
74307W        W17401   5.876  26.558   6.430 -0.1309  0.1389  0.0830
74308W        W17402   5.823  26.060   6.179 -0.0422  0.0227 -0.0822
74309W        W17403   4.898  27.987   5.944  0.2003  0.0565  0.0123
74310W        W17404   3.884  27.232   3.951 -0.2761 -0.0314  0.1551
74311W        W17405   4.375  27.030   5.858 -0.0135 -0.0752  0.1098
74312W        W17406   4.911  25.815   5.711  0.3221 -0.1330 -0.1356
74313W        W17407   6.380  27.551   5.770  0.1925  0.0832 -0.0506
74314W        W17408   6.853  26.885   5.531  0.2113  0.5992 -0.0904
74315W        W17409   5.533  28.109   5.757 -0.0837 -0.1012  0.1920
74316W        W17410   6.814  27.819   5.754 -0.0278 -0.0473 -0.1575
74317W        W17411   8.180  26.433   6.982 -0.0332  0.1930  0.2496
74318W        W17412   3.327  26.969   5.334  0.0655  0.1183  0.1012
74319W        W17413   4.399  28.900   4.806  0.2330 -0.0781  0.0501
74320W        W17414   5.127  28.843   5.878 -0.0215 -0.2251 -0.3443
74321W        W17415   6.125  29.137   4.268 -0.0947  0.1825 -0.0523
74322W        W17416   6.934  29.915   7.124 -0.0765 -0.0411  0.1559
74323W        W17417   5.081  29.060   6.807  0.1324  0.1150 -0.2637
74324W        W17418   5.425  27.365   3.641  0.1515 -0.0083 -0.1248
74325W        W17419   6.533  29.606   8.522 -0.5259 -0.2208  0.4952
74326W        W17420   4.854  27.604   6.413  0.1942 -0.0854 -0.2237
74327W        W17421   6.009  27.189   6.553 -0.1272 -0.3782  0.0843
74328W        W17422   6.129  27.055   4.297 -0.0378 -0.4815  0.0268
74329W        W17423   6.033  28.722   4.581  0.1718 -0.5045  0.0617
74330W        W17424   5.454  27.568   5.700 -0.2415  0.0464 -0.0137
74331W        W17425   6.904  27.683   7.161 -0.0217 -0.3904 -0.1400
74332W        W17426   4.150  28.277   5.529 -0.0325  0.1076  0.3506
74333W        W17427   7.325  26.172   7.410  0.2560 -0.0179 -0.1864
74334W        W17428   6.110  29.405   4.765 -0.1203 -0.0131 -0.0131
74335W        W17429   7.027  27.298   3.107 -0.0938 -0.0307 -0.2375
74336W        W17430   4.587  26.172   3.756 -0.2456 -0.0516 -0.0948
74337W        W17431   6.377  25.933   4.166  0.2173  0.0148  0.1094
74338W        W17432   6.034  24.772   6.288 -0.1531  0.3305  0.3306
74339W        W17433   4.480  28.953   6.078  0.1995  0.0627  0.0094
74340W        W17434   5.928  26.818   5.616  0.5160  0.1970 -0.0625
74341W        W17435   7.890  28.891   7.650 -0.0908  0.0270 -0.1901
74342W        W17436   5.965  27.762   5.435 -0.1355 -0.0408 -0.0176
74343W        W17437   7.131  26.318   6.759 -0.1120 -0.1052 -0.0490
74344W        W17438   4.585  28.535   6.798 -0.2749  0.0567 -0.0520
74345W        W17439   4.698  25.167   5.113 -0.1281 -0.0894 -0.2183
74346W        W17440   7.248  28.109   3.421  0.0028 -0.1766 -0.1582
74347W        W17441   7.191  29.855   3.919  0.0598 -0.1046  0.2835
74348W        W17442   5.920  30.023   3.609 -0.3295 -0.3938  0.0212
74349W        W17443   4.267  25.811   4.394 -0.0792 -0.1903 -0.0512
74350W        W17444   3.549  27.377   6.126  0.1111  0.1010 -0.0754
74351W        W17445   3.591  26.644   6.248 -0.3273 -0.1196 -0.1029
74352W        W17446   4.418  26.005   2.143  0.2193 -0.1347 -0.0789
74353W        W17447   7.891  28.356   7.681 -0.2232 -0.1347 -0.2532
74354W        W17448   4.037  29.433   8.405 -0.1172  0.0952  0.2122
74355W        W17449   6.656  26.798   5.072  0.1283 -0.0977 -0.1745
74356W        W17450   5.235  27.212   6.238  0.0912  0.0133 -0.1256
74357W        W17451   6.442  28.701   6.274  0.1844 -0.1382 -0.1034
74358W        W17452   6.182  27.912   4.913 -0.0555 -0.2350  0.2180
74359W        W17453   7.097  26.649   5.843  0.0690  0.2422 -0.2163
74360W        W17454   5.353  26.271   6.308 -0.0166  0.2000  0.0057
74361W        W17455   6.100  28.026   3.218 -0.2605 -0.4035  0.2910
74362W        W17456   5.984  28.623   4.080 -0.0560 -0.0153  0.0749
74363W        W17457   7.105  29.104   6.777 -0.0368 -0.0506 -0.1212
74364W        W17458   5.501  27.090   5.251  0.1398  0.3573  0.0419
74365W        W17459   4.864  27.460   6.936 -0.1744  0.3260 -0.1492
74366W        W17460   4.574  25.623   5.316 -0.2963  0.0174  0.2032
74367W        W17461   6.689  27.938   6.520 -0.2553 -0.3169  0.0117
74368W        W17462   4.757  30.172   2.872 -0.3564  0.1032 -0.0834
74369W        W17463   4.113  27.188   5.291  0.1282 -0.2010  0.1598
74370W        W17464   4.119  26.289   4.682  0.3730  0.0057  0.0729
74371W        W17465   2.750  25.258   5.611 -0.1087 -0.0246 -0.0787
74372W        W17466   5.063  28.040   6.546 -0.0139 -0.2587  0.1069
74373W        W17467   7.940  24.988   4.694  0.0581  0.1439 -0.2036
74374W        W17468   5.470  26.855   7.077 -0.1957  0.0322 -0.3292
74375W        W17469   7.402  26.264   5.472  0.1675  0.2917  0.0876
74376W        W17470   3.968  27.122   4.764  0.0415  0.1150  0.1729
74377W        W17471   7.185  29.013   4.212 -0.0713  0.2343 -0.0889
74378W        W17472   6.879  26.776   3.569  0.1264  0.3877 -0.4195
74379W        W17473   5.898  27.601   3.005 -0.0913  0.0459  0.3827
74380W        W17474   3.678  25.394   5.176 -0.1973  0.2716 -0.0739
74381W        W17475   4.198  25.419   5.044 -0.0832 -0.3541  0.0925
74382W        W17476   5.244  26.587   6.714 -0.1558 -0.5541 -0.0185
74383W        W17477   2.940  24.883   6.146 -0.0018  0.3090 -0.0714
74384W        W17478   8.486  28.422   6.560 -0.0856  0.0590 -0.0490
74385W        W17479   3.025  26.414   3.135  0.1465  0.2823  0.0704
74386W        W17480   6.444  26.105   5.237 -0.1721  0.2706  0.5099
74387W        W17481   6.097  25.529   5.042 -0.0616 -0.0288 -0.0187
74388W        W17482   3.344  26.934   4.823  0.0886 -0.0741 -0.2100
74389W        W17483   7.222  24.892   6.770 -0.0059  0.1125 -0.1361
74390W        W17484   6.151  29.880   4.154 -0.0505  0.0409  0.1117
74391W        W17485   7.406  29.690   7.293  0.1160  0.2266 -0.2456
74392W        W17486   6.507  30.040   6.209  0.1708 -0.1494  0.0755
74393W        W17487   5.365  26.309   5.308 -0.3821 -0.2748 -0.0779
74394W        W17488   6.326  25.102   3.146 -0.2359  0.4225 -0.0791
74395W        W17489   3.730  27.669   5.650 -0.1158  0.1379 -0.1817
74396W        W17490   3.565  26.593   3.159 -0.2798  0.0496  0.1853
74397W        W17491   6.747  28.659   5.844 -0.1550  0.0205  0.0428
74398W        W17492   4.043  27.600   5.052 -0.0261  0.2958  0.1509
74399W        W17493   4.356  27.416   6.763 -0.1386 -0.2632  0.1721
74400W        W17494   7.042  26.896   6.573 -0.0516  0.0071 -0.0963
74401W        W17495   8.776  27.439   7.012 -0.0435 -0.2034 -0.2582
74402W        W17496   6.320  28.054   5.729  0.3522  0.0378  0.1383
74403W        W17497   2.271  25.550   4.324  0.0218 -0.2070 -0.1572
74404W        W17498   6.229  30.242   5.192  0.1239  0.1596  0.1238
74405W        W17499   5.027  28.279   3.882 -0.4642  0.1230 -0.4194
74406W        W17500   4.162  26.267   5.249 -0.1465  0.2171  0.0807
74407W        W17501   6.372  26.966   4.729  0.0683  0.1760  0.0594
74408W        W17502   6.925  26.405   5.298 -0.3450  0.1547  0.2784
74409W        W17503   3.754  27.305   7.576  0.2331 -0.0129 -0.4083
74410W        W17504   6.533  26.995   6.602  0.0151  0.0342 -0.1621
74411W        W17505   5.477  26.231   4.602 -0.2544 -0.0025  0.2332
74412W        W17506   4.171  27.771   5.524 -0.3076  0.0600  0.1443
74413W        W17507   6.461  25.794   5.857  0.1452 -0.1680 -0.0071
74414W        W17508   8.134  25.806   4.727  0.1546 -0.2645 -0.0287
74415W        W17509   5.860  26.986   6.116  0.0013 -0.0631 -0.1675
74416W        W17510   7.501  28.640   3.868 -0.1461  0.1166 -0.1846
74417W        W17511   5.611  25.485   5.045 -0.3171 -0.1759 -0.3442
74418W        W17512   5.691  24.619   5.332 -0.0746  0.2131  0.0468
74419W        W17513   4.561  28.384   5.828  0.0695 -0.1084 -0.0730
74420W        W17514   5.546  26.433   4.072  0.4095 -0.2799  0.3356
74421W        W17515   4.956  27.362   4.966 -0.0035 -0.1370 -0.0270
74422W        W17516   4.601  26.598   4.483 -0.2193  0.1356  0.2103
74423W        W17517   8.064  29.552   3.433 -0.0897  0.0021 -0.1266
74424W        W17518   4.517  27.413   5.445 -0.0670 -0.1324  0.0457
74425W        W17519   7.298  28.606   8.228 -0.1703 -0.1138  0.2197
74426W        W17520   5.939  29.292   5.382 -0.0453 -0.0848  0.2355
74427W        W17521   3.980  25.027   5.326 -0.0076 -0.3050  0.2058
74428W        W17522   4.860  26.973   3.719  0.0712 -0.1275  0.0258
74429W        W17523   5.715  26.494   5.936 -0.0594  0.0989  0.0426
74430W        W17524   5.538  28.616   4.584 -0.0727  0.1461 -0.3670
74431W        W17525   6.264  26.718   5.962 -0.2555  0.1071 -0.4188
74432W        W17526   6.371  26.591   5.499 -0.3106 -0.1154  0.0540
74433W        W17527   5.698  24.724   6.772 -0.0915 -0.2329  0.1102
74434W        W17528   8.349  28.266   6.104 -0.1323  0.2076 -0.0427
74435W        W17529   6.875  26.102   4.939 -0.0391  0.0013  0.2339
74436W        W17530   5.878  27.889   5.983 -0.1912 -0.0937  0.2746
74437W        W17531   3.411  27.751   2.322 -0.3367 -0.0790  0.0845
74438W        W17532   4.784  26.525   7.870  0.1910  0.0912  0.0780
74439W        W17533   4.106  27.818   6.953  0.0954 -0.0082 -0.6609
74440W        W17534   3.280  28.664   7.261  0.0342  0.4364 -0.2657
74441W        W17535   7.606  28.597   7.309  0.1274 -0.0643 -0.0752
74442W        W17536   5.275  28.324   6.113 -0.0189  0.0228  0.1305
74443W        W17537   4.355  26.829   6.308  0.3121  0.0289 -0.2741
74444W        W17538   4.350  25.901   4.938 -0.5051 -0.2368  0.3283
74445W        W17539   5.965  28.748   5.438  0.0882 -0.1150 -0.1938
74446W        W17540   5.274  26.907   2.809 -0.0839 -0.0021 -0.1910
74447W        W17541   4.809  24.516   6.320 -0.2988  0.0048 -0.0617
74448W        W17542   5.533  28.635   5.661 -0.2335  0.2348  0.1366
74449W        W17543   6.387  29.421   3.913  0.2225  0.3830 -0.0573
74450W        W17544   6.397  27.456   6.800  0.2820 -0.2036 -0.0073
74451W        W17545   5.110  29.387   5.025 -0.2026 -0.0395  0.0841
74452W        W17546   6.280  26.251   6.183  0.1359  0.0415 -0.0194
74453W        W17547   3.641  29.272   5.426  0.4395  0.5457 -0.1896
74454W        W17548   3.045  26.528   4.770  0.2777 -0.2311 -0.4191
74455W        W17549   3.857  25.906   4.963 -0.2325 -0.1563 -0.0316
74456W        W17550   6.438  25.261   4.680  0.0359  0.2256  0.1247
74457W        W17551   6.551  27.915   2.971 -0.3053  0.2189  0.3307
74458W        W17552   3.400  26.891   5.884 -0.1162  0.2757  0.3117
74459W        W17553   4.364  25.049   4.591 -0.1312 -0.0867 -0.2645
74460W        W17554   3.321  28.312   6.092  0.0054  0.2727  0.3754
74461W        W17555   6.608  26.427   6.686 -0.0195  0.1491 -0.0027
74462W        W17556   6.830  26.251   3.477 -0.0689  0.2346  0.0321
74463W        W17557   6.182  28.535   5.858  0.1478 -0.0863 -0.0236
74464W        W17558   5.627  27.058   7.527 -0.0940 -0.2021  0.1178
74465W        W17559   3.299  26.099   3.390 -0.0863 -0.0829  0.0518
74466W        W17560   8.438  27.881   6.621 -0.1490  0.0283  0.1804
74467W        W17561   4.284  25.501   5.751 -0.0965  0.1348 -0.0020
74468W        W17562   4.316  28.731   5.629  0.1682  0.0553  0.0465
74469W        W17563   5.918  27.297   5.710 -0.0760 -0.0632  0.3509
74470W        W17564   3.778  26.656   3.802  0.0110  0.0433 -0.0653
74471W        W17565   5.447  27.592   5.153 -0.2757  0.2745  0.6134
74472W        W17566   5.279  25.342   6.377 -0.1468  0.4029  0.1661
74473W        W17567   7.275  27.703   7.510  0.0358 -0.2532  0.2159
74474W        W17568   5.570  27.226   6.702  0.0330  0.2346  0.0237
74475W        W17569   4.977  25.005   4.675  0.0366  0.0876  0.0474
74476W        W17570   6.279  26.457   4.963  0.2258  0.0773  0.2810
74477W        W17571   6.696  26.742   6.197 -0.2813 -0.1555  0.0850
74478W        W17572   4.473  26.337   6.374  0.1543 -0.0973  0.1685
74479W        W17573   7.649  29.638   6.501 -0.2476 -0.2400 -0.0973
74480W        W17574   6.368  25.636   6.322 -0.0720 -0.0220 -0.0900
74481W        W17575   7.256  30.071   4.462 -0.1751  0.2814  0.1906
74482W        W17576   7.974  27.240   7.054  0.0434  0.0397  0.0693
74483W        W17577   6.402  26.587   4.414  0.2075 -0.0767 -0.1500
74484W        W17578   2.090  25.048   6.211 -0.1299  0.1443  0.0242
74485W        W17579   5.628  27.003   3.372 -0.0892  0.0377  0.1485
74486W        W17580   4.665  26.883   5.456 -0.1841  0.0023 -0.3385
74487W        W17581   4.226  27.876   6.422  0.1857  0.2240  0.2127
74488W        W17582   4.725  28.639   4.191  0.2772 -0.0963  0.2466
74489W        W17583   3.806  27.377   7.064  0.2276  0.1281  0.0971
74490W        W17584   6.050  26.872   5.094  0.1711 -0.0999  0.0835
74491W        W17585   5.850  28.246   5.463 -0.1345 -0.0208  0.1176
74492W        W17586   5.438  27.074   5.831 -0.1159 -0.2454  0.0916
74493W        W17587   7.573  26.961   7.906  0.0871 -0.0597 -0.3597
74494W        W17588   5.452  28.094   4.596  0.1786  0.1413  0.1232
74495W        W17589   7.585  26.506   7.681  0.1695  0.2155  0.1105
74496W        W17590   5.573  25.350   5.483  0.1710  0.0670 -0.2553
74497W        W17591   7.539  29.107   5.502  0.0669  0.0981  0.0241
74498W        W17592   3.821  25.634   7.616  0.0488 -0.0197  0.2699
74499W        W17593   5.032  29.564   7.919 -0.0725  0.2413  0.0508
74500W        W17594   4.579  28.003   6.828 -0.0772  0.0228  0.0446
74501W        W17595   6.334  25.284   5.796 -0.1229  0.1555 -0.0617
74502W        W17596   3.623  25.016   4.388 -0.3438 -0.0840 -0.0963
74503W        W17597   5.430  26.758   6.229 -0.0832 -0.1141 -0.3921
74504W        W17598   7.139  27.719   6.648  0.3607  0.2254  0.2994
74505W        W17599   5.007  28.370   4.465  0.3428  0.0334 -0.0096
74506W        W17600   7.260  26.974   4.487  0.0716  0.2349 -0.1989
74507W        W17601   3.585  26.803   6.827 -0.1635 -0.1190 -0.0851
74508W        W17602   7.024  27.634   5.086  0.1715 -0.0906  0.3631
74509W        W17603   6.808  26.892   4.545 -0.3286 -0.1549  0.1857
74510W        W17604   5.603  26.890   4.374  0.2714 -0.0487 -0.0617
74511W        W17605   5.287  25.748   5.414 -0.0035  0.1586 -0.1342
74512W        W17606   6.029  27.405   5.086  0.2128 -0.1434 -0.0760
74513W        W17607   6.149  25.704   4.523 -0.1590  0.0880  0.1659
74514W        W17608   5.501  26.072   5.744 -0.1553  0.6475 -0.0214
74515W        W17609   8.420  27.850   7.167  0.0001 -0.0226 -0.0929
74516W        W17610   6.111  26.785   6.807 -0.1230 -0.0031 -0.2523
74517W        W17611   4.275  26.912   6.782 -0.1291  0.2350  0.0552
74518W        W17612   6.032  28.450   6.655  0.0429  0.0987  0.0978
74519W        W17613   7.710  27.547   3.222  0.0159 -0.3159 -0.0330
74520W        W17614   7.826  26.744   6.700 -0.1720  0.1933  0.1272
74521W        W17615   7.155  25.926   4.511  0.1573 -0.0293  0.0024
74522W        W17616   5.128  26.865   4.593  0.2501  0.1035  0.0048
74523W        W17617   3.882  26.075   6.211 -0.1001 -0.3157 -0.1708
74524W        W17618   6.936  28.529   7.876 -0.0128 -0.1877  0.1493
74525W        W17619   4.005  25.382   4.107 -0.1036  0.2326  0.2591
74526W        W17620   8.415  28.398   7.527  0.4023  0.1604  0.0807
74527W        W17621   5.202  28.395   4.996  0.2380 -0.1855 -0.1570
74528W        W17622   7.606  29.084   6.471 -0.2658  0.2013  0.1038
74529W        W17623   5.920  26.042   4.841 -0.0081  0.1111  0.0156
74530W        W17624   4.460  24.586   5.622 -0.3494 -0.1388 -0.5641
74531W        W17625   4.761  29.498   6.088  0.0025  0.0610  0.2562
74532W        W17626   3.163  25.426   3.113  0.2588 -0.0517  0.0190
74533W        W17627   5.587  28.634   5.143  0.2867  0.1068  0.0531
74534W        W17628   6.686  27.422   6.386  0.1591 -0.0069  0.4309
74535W        W17629   7.721  28.909   6.956 -0.0104 -0.0813 -0.1121
74536W        W17630   5.409  25.947   4.963  0.1014  0.1986  0.1047
74537W        W17631   8.535  28.098   8.055  0.1105  0.3223 -0.0479
74538W        W17632   3.994  28.968   4.495  0.4064 -0.1592  0.0183
74539W        W17633   6.224  25.637   5.462 -0.2438  0.0154 -0.0647
74540W        W17634   4.769  29.443   7.091 -0.2580 -0.0354  0.2825
74541W        W17635   4.412  27.364   6.222 -0.2050  0.2673 -0.2082
74542W        W17636   4.731  28.290   5.230  0.0910  0.0478 -0.3450
74543W        W17637   6.079  25.251   6.285 -0.1035 -0.2463 -0.2174
74544W        W17638   6.878  27.272   6.870  0.5256  0.1887  0.4351
74545W        W17639   4.779  27.399   5.928 -0.2934 -0.3521  0.0087
74546W        W17640   6.992  28.704   6.404  0.0274 -0.0443  0.3107
74547W        W17641   5.742  27.980   6.491 -0.1366 -0.1189  0.2537
74548W        W17642   3.616  27.380   5.180 -0.2429 -0.2545  0.1704
74549W        W17643   6.208  28.236   6.276  0.3233  0.0481 -0.0297
74550W        W17644   7.856  28.991   4.162 -0.0271  0.0330  0.1517
74551W        W17645   4.428  27.844   5.929  0.0982  0.3247 -0.1140
74552W        W17646   3.394  27.557   6.765  0.0576  0.2791 -0.0358
74553W        W17647   6.859  26.803   7.008  0.0802  0.1602  0.1874
74554W        W17648   4.572  27.674   5.039  0.0523  0.0591 -0.2701
74555W        W17649   6.201  24.862   4.420 -0.0949 -0.2228  0.0245
74556W        W17650   5.152  28.846   4.402  0.0776 -0.0737  0.0518
74557W        W17651   5.110  28.493   6.867 -0.0561  0.1089  0.1501
74558W        W17652   3.909  27.029   6.201 -0.0455  0.1097  0.0460
74559W        W17653   6.088  28.456   5.072 -0.0570  0.0125 -0.0132
74560W        W17654   6.226  28.042   4.281  0.0517 -0.2463  0.0399
74561W        W17655   5.924  28.244   4.649  0.1667  0.0727 -0.0663
74562W        W17656   5.206  28.008   5.328  0.2394  0.0278  0.0916
74563W        W17657   4.354  26.256   4.206  0.1026 -0.0154  0.2758
74564W        W17658   5.308  29.358   4.436  0.1519  0.0018  0.0613
74565W        W17659   4.787  27.966   3.524 -0.0071  0.0677  0.2638
74566W        W17660   6.611  29.196   4.307  0.1340  0.0133 -0.0568
74567W        W17661   4.825  29.237   4.618  0.0155  0.2047  0.0063
74568W        W17662   7.490  28.571   6.395  0.0414 -0.2045 -0.0307
74569W        W17663   6.740  26.013   2.862  0.0280 -0.0861  0.1653
74570W        W17664   7.096  28.448   5.225 -0.0670  0.0344  0.1962
74571W        W17665   7.564  27.909   5.796  0.0705 -0.0058  0.2357
74572W        W17666   6.861  29.485   6.558 -0.1066 -0.0406 -0.0208
74573W        W17667   4.038  27.544   5.990 -0.0058  0.4625  0.0358
74574W        W17668   4.766  27.012   4.248 -0.2228 -0.3670  0.1131
74575W        W17669   4.536  28.308   7.806  0.1056 -0.0846 -0.1091
74576W        W17670   8.530  25.867   6.636  0.0776 -0.3164 -0.0560
74577W        W17671   3.505  27.707   7.270 -0.2713  0.0680  0.2738
74578W        W17672   6.952  28.640   3.058  0.2502 -0.0812  0.2550
74579W        W17673   3.764  24.524   4.299  0.2246 -0.1977  0.1416
74580W        W17674   4.788  26.400   5.466 -0.1127  0.1696  0.4011
74581W        W17675   7.401  27.198   6.775 -0.1663  0.0399 -0.0034
74582W        W17676   6.083  29.442   3.329  0.0914 -0.3262 -0.0401
74583W        W17677   5.577  26.735   4.861 -0.0927  0.3512 -0.1514
74584W        W17678   5.489  29.096   5.315  0.3065  0.4610 -0.0265
74585W        W17679   5.798  28.545   7.078 -0.1842 -0.1226 -0.0146
74586W        W17680   4.740  29.060   5.665  0.1311  0.0362 -0.2160
74587W        W17681   4.904  26.857   5.011  0.2015  0.0792 -0.1749
74588W        W17682   6.461  27.747   5.287  0.2567  0.0953 -0.2106
74589W        W17683   5.560  26.024   6.676  0.2978  0.4144  0.1784
74590W        W17684   7.636  25.693   6.198 -0.2967 -0.0493  0.1759
74591W        W17685   3.723  27.844   4.723 -0.0640  0.1645 -0.0493
74592W        W17686   7.833  27.126   3.763 -0.2601 -0.0682  0.1406
74593W        W17687   6.776  27.220   5.945 -0.1275  0.1539  0.0323
74594W        W17688   3.998  26.961   7.304  0.0608  0.0741  0.0175
74595W        W17689   5.700  27.660   4.683 -0.0794 -0.0370  0.1134
74596W        W17690   8.871  28.677   6.357  0.0055  0.2851 -0.0802
74597W        W17691   7.036  26.651   4.039 -0.3209  0.0579  0.0801
74598W        W17692   7.154  29.414   7.661  0.2945  0.0151  0.1931
74599W        W17693   4.038  24.499   5.331 -0.1637  0.1820  0.0237
74600W        W17694   5.969  26.630   4.578 -0.1273 -0.2789 -0.2346
74601W        W17695   4.228  26.759   4.963  0.3732 -0.0619 -0.2521
74602W        W17696   6.457  26.508   7.133  0.1215  0.4788  0.0600
74603W        W17697   6.655  28.235   6.095  0.0155  0.0224  0.2833
74604W        W17698   2.879  24.783   4.160 -0.0237 -0.0125 -0.0078
74605W        W17699   8.226  28.140   3.989  0.0911  0.1590  0.0572
74606W        W17700   7.212  27.548   5.622  0.0476 -0.1549  0.3881
74607W        W17701   5.715  29.652   3.007  0.1845 -0.0124 -0.0019
74608W        W17702   6.759  28.266   5.529 -0.1059  0.2569 -0.1973
74609W        W17703   7.628  28.314   6.823 -0.3355  0.0290  0.0129
74610W        W17704   3.542  24.624   5.421 -0.0486 -0.0527  0.0684
74611W        W17705   8.474  28.369   7.034 -0.0323  0.2866  0.0223
74612W        W17706   8.667  29.187   5.571 -0.1086  0.2791 -0.2814
74613W        W17707   5.646  25.736   4.548 -0.0841 -0.1062  0.0578
74614W        W17708   3.806  25.380   5.670 -0.0897 -0.0399 -0.1295
74615W        W17709   3.573  28.791   4.660 -0.3624  0.2596  0.1579
74616W        W17710   7.364  26.769   7.024  0.0750 -0.4029  0.0349
74617W        W17711   7.708  26.838   7.347 -0.1545  0.0034 -0.0060
74618W        W17712   6.195  28.974   3.654  0.2823  0.1166  0.0703
74619W        W17713   7.333  24.781   8.276  0.1653 -0.0344 -0.0609
74620W        W17714   6.806  28.153   6.985  0.2300 -0.0092 -0.0553
74621W        W17715   5.357  27.640   6.595 -0.0551  0.0344 -0.0537
74622W        W17716   4.727  26.581   4.010  0.1400  0.1124 -0.0890
74623W        W17717   5.684  27.463   6.206  0.0083  0.1963  0.3729
74624W        W17718   5.030  28.340   5.686 -0.1488  0.1781 -0.0869
74625W        W17719   5.708  29.640   4.254 -0.3541  0.2522 -0.2992
74626W        W17720   5.674  29.077   5.821 -0.1269 -0.0003  0.0741
74627W        W17721   5.268  27.356   4.563  0.4670 -0.0944  0.1796
74628W        W17722   6.467  28.392   4.768 -0.1131 -0.1182  0.0765
74629W        W17723   3.455  26.005   5.766  0.2352 -0.0896  0.0686
74630W        W17724   7.047  27.106   5.045 -0.0483  0.0638  0.0738
74631W        W17725   6.018  25.154   5.417 -0.0635  0.1610  0.0180
74632W        W17726   5.918  27.612   6.807 -0.1674 -0.2125 -0.2046
74633W        W17727   3.527  25.589   4.704  0.1044 -0.0200 -0.0207
74634W        W17728   4.763  27.594   4.577  0.0729  0.1334  0.0527
74635W        W17729   4.819  27.763   5.485 -0.0010 -0.0658 -0.0114
74636W        W17730   5.533  26.516   7.526  0.1280 -0.3761  0.0170
74637W        W17731   4.681  27.018   7.123  0.0018 -0.0587  0.2081
74638W        W17732   3.644  26.550   5.608  0.4742  0.1882  0.0501
74639W        W17733   4.366  24.789   5.152 -0.0195  0.1788  0.0889
74640W        W17734   6.782  27.944   3.749 -0.0370 -0.0004 -0.2348
74641W        W17735   3.123  24.244   5.416 -0.1420 -0.2907  0.0418
74642W        W17736   3.926  25.541   6.105  0.1129  0.2716 -0.0305
74643W        W17737   6.997  28.576   4.155 -0.2175 -0.0203 -0.4063
74644W        W17738   6.518  28.630   4.341 -0.0418  0.1272  0.0364
74645W        W17739   4.602  25.472   4.683  0.2292 -0.1583  0.1217
74646W        W17740   8.147  30.141   7.860 -0.5239 -0.0319 -0.0891
74647W        W17741   4.430  27.364   4.235 -0.0047 -0.1491 -0.1127
74648W        W17742   6.382  26.650   7.576 -0.1884  0.3955 -0.2081
74649W        W17743   3.981  26.497   6.577 -0.0681  0.2350  0.2813
74650W        W17744   2.907  27.773   2.790  0.1034 -0.1352 -0.0398
74651W        W17745   5.895  27.183   7.045 -0.1045 -0.1773  0.1018
74652W        W17746   6.409  27.091   5.358  0.1863 -0.0028  0.2544
74653W        W17747   6.711  29.514   2.511 -0.0591 -0.1237  0.0104
74654W        W17748   5.461  28.966   7.322  0.0937  0.3696  0.0876
74655W        W17749   5.213  29.357   5.790 -0.2986  0.0869 -0.1364
74656W        W17750   2.891  25.543   6.870 -0.1296  0.3103 -0.0093
74657W        W17751   6.205  27.494   4.597 -0.1873  0.0223 -0.2637
74658W        W17752   6.318  27.941   6.838  0.3605 -0.3950 -0.0388
74659W        W17753   6.968  28.529   3.665  0.1355 -0.0591  0.2634
74660W        W17754   7.844  27.090   6.024  0.0516 -0.1923  0.2572
74661W        W17755   5.893  27.140   4.715  0.0239  0.0567  0.2288
74662W        W17756   4.941  25.658   6.249 -0.1240 -0.3804  0.4496
74663W        W17757   5.478  28.012   6.910 -0.0427 -0.0866  0.0734
74664W        W17758   8.808  28.112   6.284  0.0017  0.2637 -0.1107
74665W        W17759   4.867  26.017   5.200 -0.2222 -0.0258  0.0434
74666W        W17760   6.808  27.387   5.449 -0.2509  0.1207  0.4535
74667W        W17761   6.638  28.961   3.832 -0.2159 -0.1375  0.1874
74668W        W17762   3.310  27.224   7.103  0.2244 -0.1597  0.3240
74669W        W17763   5.087  26.383   4.879  0.1290 -0.3324  0.0808
74670W        W17764   4.879  26.646   6.376 -0.1464 -0.0260 -0.0067
74671W        W17765   7.429  27.252   5.277  0.0854 -0.0586  0.0709
74672W        W17766   6.882  28.154   7.574  0.0585  0.4529 -0.0749
74673W        W17767   6.549  27.360   4.970  0.2145  0.2478  0.1209
74674W        W17768   6.821  28.061   4.358 -0.1307  0.0998  0.2697
74675W        W17769   6.533  28.835   5.377  0.1329 -0.0190 -0.6038
74676W        W17770   7.118  28.651   7.392  0.1623  0.3544 -0.0084
74677W        W17771   5.721  28.424   6.086  0.0199  0.0888  0.3409
74678W        W17772   7.349  28.916   7.709  0.1719 -0.4668 -0.2687
74679W        W17773   3.113  25.301   6.444  0.0611  0.1462  0.1561
74680W        W17774   3.745  26.824   5.105 -0.2263 -0.1211  0.0005
74681W        W17775   5.118  27.835   4.817 -0.4697  0.0468  0.1159
74682W        W17776   7.152  27.899   6.096 -0.0099  0.2237 -0.0207
74683W        W17777   5.082  27.329   5.531  0.2209  0.1625  0.0505
74684W        W17778   5.913  25.147   4.867  0.3569  0.1887 -0.2200
74685W        W17779   4.874  28.564   6.325 -0.2595  0.1104  0.1267
74686W        W17780   5.157  26.815   5.458  0.0240 -0.1783 -0.0016
74687W        W17781   5.134  27.730   9.096  0.3605 -0.1958 -0.1128
74688W        W17782   5.520  25.906   7.472 -0.2936  0.2751 -0.2384
74689W        W17783   7.421  27.566   8.235 -0.1465  0.0208 -0.2672
74690W        W17784   9.184  26.895   8.995 -0.0792 -0.0132  0.0438
74691W        W17785   3.877  25.444   9.893  0.1922  0.0895  0.3790
74692W        W17786   7.664  29.335   7.573  0.0367  0.0144 -0.1203
74693W        W17787   6.847  29.168   8.640  0.2246  0.0322 -0.1448
74694W        W17788   6.883  29.632   8.937  0.2203 -0.3358  0.2199
74695W        W17789   7.149  27.912   8.001  0.2684  0.4618 -0.0630
74696W        W17790   5.693  26.474   9.262 -0.2571  0.0585  0.3669
74697W        W17791   5.112  26.203   7.667  0.0034  0.1049  0.1813
74698W        W17792   2.005  24.392   9.444 -0.2720  0.0894  0.1677
74699W        W17793   7.537  27.725   9.372  0.5933  0.2228  0.3744
74700W        W17794   3.603  26.031   9.059  0.1153 -0.4468  0.0423
74701W        W17795   5.859  26.175   8.889  0.0011 -0.1426 -0.2437
74702W        W17796   5.001  26.493   8.504  0.0453 -0.1820 -0.1006
74703W        W17797   5.263  29.060   8.880  0.1426  0.2472 -0.3192
74704W        W17798   3.915  28.348   9.247 -0.1840  0.0599 -0.1094
74705W        W17799   6.458  27.022   7.210 -0.1249 -0.0858  0.2374
74706W        W17800   5.098  27.261   8.284  0.0226 -0.1540 -0.0663
74707W        W17801   4.401  25.522  10.095  0.2914  0.0826  0.3863
74708W        W17802   6.119  26.665   9.733 -0.0267  0.1857  0.1812
74709W        W17803   6.552  28.553  10.093  0.2161  0.1297 -0.0146
74710W        W17804   5.535  26.883   9.682 -0.0140  0.1971 -0.3684
74711W        W17805   6.008  28.295   8.032  0.1159  0.2792 -0.0351
74712W        W17806   6.111  29.305   8.761  0.0647 -0.1470  0.1860
74713W        W17807   3.321  27.909   9.866 -0.0348  0.0788  0.0795
74714W        W17808   2.960  30.209   8.267 -0.1682 -0.1285  0.0119
74715W        W17809   5.009  27.938   7.079 -0.0074 -0.0612  0.1401
74716W        W17810   7.574  28.625   9.015  0.0053 -0.0961 -0.0589
74717W        W17811   5.339  27.241   7.880  0.2731 -0.0300 -0.2526
74718W        W17812   5.899  27.968   7.659  0.1728 -0.2795  0.0149
74719W        W17813   6.203  28.634   8.433  0.1798  0.1162  0.1915
74720W        W17814   5.865  28.910   8.170  0.0889 -0.0324 -0.2474
74721W        W17815   5.922  28.341   8.781 -0.4874 -0.2812  0.0093
74722W        W17816  33.756  26.378  12.958 -0.0359  0.2724  0.1521
74723W        W17817   6.241  28.338   7.525  0.2399  0.3255  0.0347
74724W        W17818   8.058  26.638   7.843  0.3574  0.0771  0.4670
74725W        W17819   6.331  27.187   6.063  0.2494 -0.0658  0.0035
74726W        W17820   7.401  28.281   7.593 -0.0517 -0.2512  0.2927
74727W        W17821   4.092  26.357  10.371  0.0993 -0.1576  0.2206
74728W        W17822   4.400  29.105   8.965  0.1064  0.2256  0.1149
74729W        W17823   6.694  27.340   9.718 -0.1462 -0.0346 -0.0443
74730W        W17824   4.678  26.626   6.813  0.3013 -0.1800  0.0865
74731W        W17825   7.443  26.690   9.626  0.1801 -0.2060 -0.0530
74732W        W17826   8.325  27.992  11.662  0.1470 -0.0257 -0.0697
74733W        W17827   3.939  27.964   9.551  0.0573 -0.1438  0.1539
74734W        W17828   6.635  28.455   6.626 -0.0511  0.3422 -0.2059
74735W        W17829   7.226  28.824   8.694  0.2953 -0.1316 -0.0502
74736W        W17830   5.466  28.891   7.863 -0.0253 -0.3314 -0.1523
74737W        W17831   3.186  26.448   7.557  0.1192  0.0768 -0.1420
74738W        W17832   4.044  24.742   7.794  0.2112  0.0789 -0.1519
74739W        W17833   7.938  26.611   9.611  0.0332  0.0486 -0.1084
74740W        W17834   4.106  28.870   9.464 -0.2967  0.1016  0.0885
74741W        W17835   8.279  29.420  10.387  0.1667 -0.0914 -0.1108
74742W        W17836   7.208  27.261   7.832  0.0681 -0.0767 -0.0076
74743W        W17837   6.504  26.928   9.064 -0.0401 -0.1330  0.1121
74744W        W17838   5.689  26.098   8.417 -0.0126 -0.0769 -0.2246
74745W        W17839   4.616  28.152   6.302  0.1645 -0.0526 -0.3529
74746W        W17840   5.111  27.060   7.382 -0.0842 -0.0655 -0.2724
74747W        W17841   6.100  28.008  10.254  0.1941  0.1362 -0.0232
74748W        W17842   7.336  27.077   8.380 -0.2533 -0.0747  0.2176
74749W        W17843   4.482  29.217   9.575 -0.3161 -0.0871  0.0192
74750W        W17844   3.478  29.410   8.510  0.2525  0.1413 -0.1371
74751W        W17845   3.096  26.502  10.279 -0.1175 -0.1817  0.1256
74752W        W17846   2.880  26.873   7.838 -0.1511  0.0456 -0.0970
74753W        W17847   3.950  27.305   8.664  0.1289  0.0073 -0.1409
74754W        W17848   5.211  28.016   8.187 -0.4749  0.2551 -0.2324
74755W        W17849   6.564  25.374   8.877 -0.1051 -0.0781  0.1322
74756W        W17850   5.732  24.163   9.279  0.0378 -0.0546  0.1209
74757W        W17851   3.915  27.962   8.363 -0.0028 -0.0147 -0.0840
74758W        W17852   7.380  30.493   7.627  0.1461 -0.0588 -0.0735
74759W        W17853   7.343  26.660   8.707 -0.0755 -0.1862  0.0266
74760W        W17854   6.228  27.535   7.268  0.2742  0.2135 -0.0840
74761W        W17855   4.262  26.688   8.221  0.0553 -0.0382 -0.1175
74762W        W17856   4.304  26.361   7.767 -0.2018 -0.2186  0.0778
74763W        W17857   3.245  26.027   9.862  0.1869  0.0514 -0.2618
74764W        W17858   3.476  26.066   7.493 -0.5672 -0.2873 -0.0886
74765W        W17859   5.991  26.480   8.256  0.0137 -0.0669  0.1256
74766W        W17860   5.793  26.158   7.842 -0.1462  0.2101  0.0855
74767W        W17861   3.735  28.498   8.456  0.1853 -0.1789  0.0386
74768W        W17862   7.490  30.347   8.627  0.0637 -0.2533 -0.0508
74769W        W17863   6.487  29.309  10.432 -0.0351  0.0488 -0.1698
74770W        W17864   7.878  29.154   8.467  0.1594  0.1332  0.3259
74771W        W17865   5.572  25.673   9.739  0.5092  0.2594 -0.0346
74772W        W17866   3.788  25.551   8.785  0.1542  0.0410 -0.0149
74773W        W17867   4.159  27.899  10.057 -0.3062  0.1117  0.4000
74774W        W17868   6.418  28.206   8.403 -0.4143 -0.0735 -0.0876
74775W        W17869   5.211  26.267   9.477  0.2850 -0.1905 -0.2258
74776W        W17870   7.042  30.196   8.938  0.3335  0.2195  0.0679
74777W        W17871   5.827  28.683   7.636  0.2286 -0.0966 -0.1483
74778W        W17872   8.366  27.939   9.863 -0.1103 -0.2694 -0.1946
74779W        W17873   7.465  27.619   8.821 -0.2598  0.0921  0.2670
74780W        W17874   4.042  25.773   5.417 -0.1890 -0.0746 -0.1118
74781W        W17875   6.307  29.384   7.843 -0.2047 -0.2016 -0.0183
74782W        W17876   4.701  28.318   7.202  0.1385 -0.1692  0.0941
74783W        W17877   3.183  27.255   8.098 -0.1067 -0.0090  0.1626
74784W        W17878   5.495  29.413   7.969 -0.0072  0.0879  0.0022
74785W        W17879   4.997  25.341   8.757 -0.0553 -0.0271  0.0274
74786W        W17880   3.591  26.252   8.565  0.2284 -0.0321 -0.1251
74787W        W17881   6.917  27.454   8.120 -0.1063 -0.0020 -0.0749
74788W        W17882   6.967  27.019   8.845  0.0252  0.0428 -0.1117
74789W        W17883   7.744  27.893   8.445  0.0147 -0.0603 -0.1778
74790W        W17884   7.875  27.404   8.585 -0.1595 -0.1368 -0.1384
74791W        W17885   5.927  26.728   7.330 -0.0682 -0.1655 -0.0605
74792W        W17886   7.076  27.456   8.624  0.3147 -0.0183  0.0438
74793W        W17887   6.617  28.014   7.985 -0.1324 -0.2687 -0.0870
74794W        W17888   5.896  26.328   6.918 -0.2990  0.2855 -0.0426
74795W        W17889   8.025  29.555   8.707 -0.0131 -0.0361  0.1001
74796W        W17890   3.229  27.541  10.372 -0.0735  0.1931 -0.0453
74797W        W17891   5.822  29.435   9.154 -0.2623  0.1302  0.1736
74798W        W17892   5.301  24.429   8.799  0.1948 -0.0149 -0.1207
74799W        W17893   5.128  27.080   6.749 -0.1229  0.1216 -0.2684
74800W        W17894   5.288  26.168   8.681 -0.0877  0.1079 -0.0066
74801W        W17895   4.811  28.380   8.489  0.1472 -0.0606 -0.1666
74802W        W17896   5.465  25.621   8.779  0.6282  0.1169 -0.1429
74803W        W17897   6.581  27.284   8.631  0.2406  0.1933 -0.0550
74804W        W17898   7.059  28.336   8.847 -0.2318 -0.0897 -0.0379
74805W        W17899   6.298  27.118   9.447 -0.0843 -0.1422  0.0573
74806W        W17900   4.432  25.848   6.001  0.0809 -0.3627  0.0719
74807W        W17901   6.514  25.651   8.416 -0.2775  0.0126  0.0409
74808W        W17902   3.228  29.405  10.208  0.0494 -0.1234 -0.1671
74809W        W17903   7.217  27.950   8.517  0.0119  0.0836 -0.3404
74810W        W17904   3.975  25.912   7.976 -0.0749  0.6386  0.0748
74811W        W17905   4.996  27.645   7.991 -0.1235  0.0925  0.3238
74812W        W17906   6.333  28.438   7.037 -0.2235  0.2123 -0.1906
74813W        W17907   4.392  25.124   9.739  0.0023  0.0170 -0.0900
74814W        W17908   5.526  27.912   9.445  0.1223  0.0919  0.0140
74815W        W17909   6.213  27.691   6.396 -0.1770  0.1127  0.0750
74816W        W17910   5.321  28.243   9.710 -0.0616 -0.6005  0.1272
74817W        W17911   4.230  27.222   7.898  0.3006 -0.2195  0.1566
74818W        W17912   5.993  25.676   8.682  0.1468  0.1522  0.0919
74819W        W17913   3.457  28.832   8.748  0.4032 -0.0957  0.0668
74820W        W17914   3.712  26.464   7.211  0.0683  0.1076 -0.1115
74821W        W17915   3.939  25.063   8.774 -0.0196  0.2429 -0.1672
74822W        W17916   6.618  25.088   7.721 -0.0625 -0.0108 -0.2952
74823W        W17917   7.274  27.991   7.028  0.0882 -0.0641  0.3295
74824W        W17918   4.355  27.121   8.980  0.0580  0.2469  0.0444
74825W        W17919   4.249  26.214   9.556 -0.1664  0.0089  0.2196
74826W        W17920   2.194  29.101   9.751 -0.2283 -0.1150 -0.0027
74827W        W17921   6.312  25.270   7.349  0.2000  0.0603 -0.0703
74828W        W17922   3.869  25.805   7.077  0.0176 -0.2166 -0.1230
74829W        W17923   6.941  28.092   9.790 -0.4405  0.2279  0.0433
74830W        W17924   5.273  26.586   9.035  0.1073  0.1057  0.0043
74831W        W17925   3.814  27.095   8.240  0.0537 -0.1143  0.0509
74832W        W17926   4.922  30.806   9.772  0.0292  0.1508 -0.1713
74833W        W17927   4.087  26.101   7.409 -0.1721  0.1314  0.0600
74834W        W17928   3.322  27.641   8.934 -0.0130 -0.1251  0.2432
74835W        W17929   7.791  29.343  10.686 -0.1931  0.0467  0.2428
74836W        W17930   5.565  27.897   8.856  0.0663 -0.0857 -0.3617
74837W        W17931   4.425  26.005   8.198  0.0409  0.1555 -0.1307
74838W        W17932   3.370  27.367   9.922 -0.1427 -0.2637  0.0346
74839W        W17933   7.918  28.086  10.153  0.0994  0.0318  0.2433
74840W        W17934   4.408  27.675   9.672  0.0942  0.0966  0.0367
74841W        W17935   4.107  25.986  10.012 -0.2078  0.1201 -0.0628
74842W        W17936   7.260  29.192   9.567 -0.0586 -0.2089 -0.0799
74843W        W17937   3.767  26.393   7.700 -0.0528  0.0850  0.1724
74844W        W17938   4.818  25.432   9.724 -0.2596  0.0817 -0.0336
74845W        W17939   4.115  27.721   7.503 -0.0359 -0.2473  0.0801
74846W        W17940   4.622  27.698   9.138 -0.0030  0.0788 -0.0741
74847W        W17941   6.300  28.967  10.155 -0.0946 -0.0819  0.0443
74848W        W17942   5.514  27.560   8.260  0.0272 -0.1894 -0.1200
74849W        W17943   5.133  28.830  10.374  0.0244  0.0893  0.0332
74850W        W17944   6.214  26.331   9.299 -0.1780  0.2560 -0.0139
74851W        W17945   6.432  28.492   7.967 -0.1257 -0.1787  0.3839
74852W        W17946   7.974  27.663   9.711  0.1234  0.0618 -0.0200
74853W        W17947   6.407  27.325   8.156 -0.1665 -0.0107 -0.3481
74854W        W17948   5.223  27.152   9.168 -0.0106  0.1624 -0.0145
74855W        W17949   6.456  30.183   8.782 -0.0777 -0.0071 -0.0939
74856W        W17950   6.169  27.134   7.609 -0.0048 -0.0956 -0.0371
74857W        W17951   3.298  26.431   6.628 -0.1849 -0.1209 -0.2058
74858W        W17952   4.986  27.681   9.584  0.2270  0.0984  0.0804
74859W        W17953   6.988  29.547   9.803  0.3282 -0.1423  0.1232
74860W        W17954   6.394  27.729   8.915 -0.1927 -0.1969 -0.2315
74861W        W17955   5.617  27.015   8.823 -0.2873  0.2141 -0.2314
74862W        W17956   3.573  26.835   9.937 -0.0374  0.2838 -0.0622
74863W        W17957   6.471  27.949   7.376  0.1088 -0.2712  0.1843
74864W        W17958   7.463  27.589   7.060 -0.1906 -0.0403  0.3389
74865W        W17959   5.516  27.009   8.310  0.2580  0.2320 -0.0662
74866W        W17960   7.729  28.782   8.163 -0.1492 -0.0144  0.0023
74867W        W17961   6.212  27.751   8.240  0.0422 -0.2223 -0.0359
74868W        W17962   7.247  31.608  10.968  0.0550  0.0090  0.3238
74869W        W17963   7.103  26.745   7.484 -0.0404  0.3803  0.0438
74870W        W17964   6.807  25.908   9.196 -0.2886 -0.1227 -0.1545
74871W        W17965   7.262  27.216   9.204 -0.1007 -0.0165  0.0953
74872W        W17966   5.778  26.741   7.900  0.2627 -0.4367 -0.0735
74873W        W17967   4.373  26.783   9.622  0.0524  0.1715 -0.3796
74874W        W17968   4.145  25.984   9.032 -0.3775 -0.1978 -0.4476
74875W        W17969   7.458  29.418   8.509 -0.2485  0.0301 -0.0473
74876W        W17970   6.260  28.688   8.986 -0.2209  0.2655  0.2706
74877W        W17971   5.846  27.305   7.966  0.0877  0.2194 -0.0350
74878W        W17972   3.592  26.306  10.080 -0.2575  0.0804  0.1976
74879W        W17973   4.535  27.747   7.204  0.2769  0.1532 -0.4288
74880W        W17974   4.935  26.540   7.281 -0.1384  0.2081 -0.5622
74881W        W17975   6.024  29.114   9.710 -0.2499  0.1318  0.2940
74882W        W17976   5.479  25.636   7.020 -0.2579  0.1610 -0.2006
74883W        W17977   4.017  28.903   8.348 -0.1349  0.4035 -0.0898
74884W        W17978   6.805  27.589   7.646 -0.3134  0.0989 -0.1205
74885W        W17979   5.274  29.694   9.561 -0.2021  0.0463 -0.1759
74886W        W17980   5.431  27.830   7.748 -0.0397 -0.2807  0.0880
74887W        W17981   4.804  26.801   9.040 -0.0626 -0.0457 -0.0023
74888W        W17982   5.174  28.208   9.185  0.2607  0.0217 -0.1689
74889W        W17983   6.286  26.883   8.047  0.0683 -0.2113  0.0134
74890W        W17984   4.858  27.258   8.837  0.2304 -0.0988  0.0629
74891W        W17985   8.314  29.940  10.606  0.0095  0.2496 -0.0418
74892W        W17986   4.820  28.261   9.502  0.0272  0.0313 -0.2656
74893W        W17987   7.332  28.720   9.779 -0.0365 -0.0460 -0.0121
74894W        W17988   5.318  25.394   7.587  0.0772 -0.3449 -0.2185
74895W        W17989   5.752  27.528   7.453  0.0935 -0.0413 -0.3986
74896W        W17990   5.125  25.565  10.161 -0.0712 -0.1663 -0.0157
74897W        W17991   4.436  30.085   8.118  0.1398  0.2552 -0.0229
74898W        W17992   6.729  28.717   9.004 -0.2072 -0.1726  0.1557
74899W        W17993   7.718  29.286   8.021 -0.0109 -0.0748  0.0296
74900W        W17994   6.697  28.894   9.444  0.3272 -0.1543 -0.0001
74901W        W17995   4.993  27.526   7.473 -0.1147  0.2003 -0.5310
74902W        W17996   3.832  30.465   9.372 -0.0442 -0.1090 -0.0469
74903W        W17997   2.753  27.663   5.815 -0.0957 -0.0868  0.2959
74904W        W17998   6.095  29.650   7.505 -0.1635  0.3230 -0.0597
74905W        W17999   4.932  27.717   8.572 -0.0085 -0.1439  0.4059
74906W        W18000   8.755  27.481   5.598  0.2285 -0.3819 -0.1312
74907W        W18001   7.144  28.743   9.318  0.0053 -0.2404 -0.0198
74908W        W18002   8.158  26.214   8.776 -0.1343 -0.0763  0.0059
74909W        W18003   6.020  27.765   9.236 -0.1990  0.1560 -0.2049
74910W        W18004   6.338  26.180   7.794  0.2954  0.0945 -0.1526
74911W        W18005   8.271  28.917   8.297 -0.1366 -0.1354  0.0146
74912W        W18006   3.195  26.026   9.378 -0.1502 -0.1107  0.1065
74913W        W18007   4.159  27.424   9.332 -0.2044 -0.0756 -0.1913
74914W        W18008   7.198  22.892   9.558  0.2188 -0.0747 -0.2441
74915W        W18009   6.641  28.606   7.432 -0.1536  0.1435 -0.1809
74916W        W18010   6.908  28.270   8.321  0.0135 -0.1237  0.3239
74917W        W18011   5.883  29.391   8.265 -0.2577 -0.1460 -0.4591
74918W        W18012   3.849  27.734   8.895 -0.2417 -0.1639 -0.1090
74919W        W18013   6.221  27.553   9.706 -0.0758  0.1210  0.0354
74920W        W18014   4.019  25.694   6.537  0.1057  0.2534 -0.4907
74921W        W18015   7.059  27.090  10.013  0.2968 -0.1199  0.1309
74922W        W18016   3.430  27.113   8.932  0.1028 -0.1028  0.2615
74923W        W18017   3.911  30.679   9.821 -0.0423 -0.1234 -0.1061
74924W        W18018   7.069  27.598   9.414 -0.1289  0.1663 -0.5264
74925W        W18019   4.647  29.918  10.369  0.0660  0.0233 -0.0801
74926W        W18020   5.154  26.924   8.690  0.0452 -0.2399  0.2194
74927W        W18021   4.216  26.508   7.214 -0.1070 -0.0750 -0.0405
74928W        W18022   7.589  27.329   7.541 -0.1312  0.0736  0.0965
74929W        W18023   4.299  25.574   9.566 -0.0256 -0.1885 -0.2229
74930W        W18024   6.792  26.991   8.247  0.2804  0.2118  0.1766
74931W        W18025   4.378  27.594   8.772  0.2238 -0.2443 -0.0312
74932W        W18026   6.258  29.463   9.394  0.1632 -0.2041  0.0101
74933W        W18027   4.362  25.638   7.802 -0.1376 -0.3201 -0.1914
74934W        W18028   7.684  27.803   7.807 -0.1783 -0.1247  0.2582
74935W        W18029   7.681  27.010   9.340  0.0095  0.1146  0.0991
74936W        W18030   4.739  28.015   8.184  0.1218  0.1057 -0.0444
74937W        W18031   7.898  28.657   8.635  0.0302  0.0518 -0.0682
74938W        W18032   4.854  28.660   8.972  0.2067 -0.2527  0.3380
74939W        W18033   2.148  25.877   9.959 -0.0503  0.2287  0.2765
74940W        W18034   6.758  29.990   9.644  0.0639  0.1582 -0.1346
74941W        W18035   6.209  30.614  10.355 -0.1853 -0.1316  0.2988
74942W        W18036   4.498  26.835   7.581  0.0623 -0.1852  0.4820
74943W        W18037   4.808  26.898   8.257 -0.1533  0.1572  0.1253
74944W        W18038   4.343  29.293  10.333  0.0475 -0.1228 -0.2036
74945W        W18039   5.056  26.797   9.533 -0.3556  0.2669 -0.1508
74946W        W18040   5.844  29.196   7.744  0.0219 -0.0797 -0.1043
74947W        W18041   4.047  28.640  10.059  0.4650 -0.0911 -0.2020
74948W        W18042   4.340  27.302   7.397 -0.1527  0.0413  0.1039
74949W        W18043   5.813  28.907   8.766  0.1542  0.2530  0.0430
74950W        W18044   5.371  27.428   7.121  0.2024 -0.2580 -0.4447
74951W        W18045   7.002  29.150   9.114 -0.1960  0.1310 -0.0093
74952W        W18046   6.307  27.587   7.755  0.1011  0.2148 -0.0526
74953W        W18047  10.109  28.352  10.509 -0.1775 -0.3155 -0.1930
74954W        W18048   4.171  25.382   6.885  0.3017  0.0290 -0.0974
74955W        W18049   7.152  26.238   8.949 -0.0505 -0.0773 -0.2462
74956W        W18050   6.874  26.414   8.488 -0.3461  0.0768  0.1384
74957W        W18051   5.178  28.158   8.676  0.0035  0.0518  0.0827
74958W        W18052   3.925  26.863   7.799 -0.1081 -0.2325  0.0402
74959W        W18053   3.716  28.530   7.818  0.2077 -0.2001  0.2516
74960W        W18054   4.422  27.231   8.400 -0.2027 -0.0716  0.1480
74961W        W18055   2.873  26.395   9.850 -0.5167 -0.2889  0.2104
74962W        W18056   4.330  24.581   8.498 -0.4959 -0.1093 -0.2081
74963W        W18057   9.081  28.672   8.329 -0.1170 -0.0282 -0.0469
74964W        W18058   4.548  26.753   8.622 -0.2671  0.1310  0.0619
74965W        W18059   3.602  25.516   8.150  0.3450  0.1953 -0.0651
74966W        W18060   7.911  27.507   9.125  0.1215  0.0472  0.0170
74967W        W18061   8.042  28.446   9.218  0.2777 -0.0573 -0.0759
74968W        W18062   4.618  25.913   9.287  0.2134 -0.1097 -0.0511
74969W        W18063   3.854  27.639   7.986  0.4144 -0.0021  0.2089
74970W        W18064   3.540  26.858   7.455 -0.2745 -0.4539  0.0923
74971W        W18065   6.716  27.807   8.450  0.0106  0.0919 -0.1813
74972W        W18066   7.961  28.137   8.833 -0.1765  0.2888  0.0186
74973W        W18067   6.622  30.240   8.339  0.1210  0.1491  0.3026
74974W        W18068   2.863  23.869   9.391 -0.2044  0.4127 -0.1130
74975W        W18069   7.979  27.652   7.406 -0.1625  0.0345 -0.0938
74976W        W18070   8.539  28.054   8.658  0.1197 -0.0236 -0.1250
74977W        W18071   5.344  27.421   8.747 -0.2629 -0.2651 -0.1812
74978W        W18072   6.799  28.688   8.473 -0.3099 -0.1064 -0.0294
74979W        W18073   6.745  29.441   9.381  0.0228 -0.1120  0.0040
74980W        W18074   3.423  25.572   9.575 -0.0112 -0.0999  0.0735
74981W        W18075   5.943  26.850   9.217 -0.2360 -0.2187 -0.3298
74982W        W18076   7.475  28.045   8.989 -0.1732 -0.2367  0.0937
74983W        W18077   3.623  27.425   9.271 -0.1970  0.2639  0.1542
74984W        W18078   4.632  26.118   8.646 -0.3073 -0.1535 -0.1131
74985W        W18079   6.950  27.831   8.974  0.3901 -0.0056 -0.0061
74986W        W18080   5.193  26.787   7.804 -0.1754  0.1380  0.0798
74987W        W18081   8.024  27.616   8.137  0.2186  0.1505 -0.2782
74988W        W18082   5.975  28.059   9.631 -0.1331 -0.2726 -0.1241
74989W        W18083   6.498  27.924   9.904  0.0492 -0.0116  0.0257
74990W        W18084   6.213  28.229   9.249 -0.0502  0.0230  0.1612
74991W        W18085   3.347  23.368  10.123  0.1331 -0.2758  0.0278
74992W        W18086   5.404  26.417   8.125 -0.3813  0.2602 -0.0149
74993W        W18087   5.927  28.046   7.178  0.2117  0.1205  0.1912
74994W        W18088   6.099  22.699  12.246  0.3230  0.2221  0.2864
74995W        W18089   4.148  26.414   8.663 -0.2275 -0.1042  0.2393
74996W        W18090   6.087  26.020   6.582  0.0757 -0.0957  0.0491
74997W        W18091   3.890  27.517   9.759  0.0844  0.0442 -0.1129
74998W        W18092   7.601  27.127   8.852  0.1823  0.0866 -0.4087
74999W        W18093   5.735  32.016   1.855  0.2235  0.1959 -0.0739
75000W        W18094   3.686  30.229   0.714  0.1024  0.0951 -0.0809
75001W        W18095   6.040  30.254  31.742  0.5219 -0.0900  0.2625
75002W        W18096   6.617  30.901   0.921  0.5756 -0.1525  0.2119
75003W        W18097   3.352  29.028   0.386  0.1285  0.0273 -0.0619
75004W        W18098   7.373  31.323   2.268 -0.0192 -0.0338  0.6036
75005W        W18099   5.663  29.165   2.951 -0.0770  0.2302 -0.1456
75006W        W18100   6.883  30.580   1.814 -0.1151 -0.2081  0.0453
75007W        W18101   7.195  31.534   1.733 -0.2201 -0.2595 -0.2799
75008W        W18102   6.632  31.397  31.531 -0.0576  0.1832  0.0368
75009W        W18103   5.262  30.873   3.282  0.2811  0.1268 -0.1136
75010W        W18104   5.129  33.051   2.345  0.0173 -0.2485  0.0809
75011W        W18105   5.205  30.027   0.267 -0.1297 -0.0117  0.1673
75012W        W18106   2.085  29.027   2.655 -0.2612 -0.1688  0.3107
75013W        W18107   6.371  30.928   2.437  0.1358 -0.1465  0.0481
75014W        W18108   3.951  31.464   1.034 -0.1105 -0.0224  0.1216
75015W        W18109   6.000  30.549   2.491  0.1135 -0.0556 -0.0622
75016W        W18110   6.301  28.144   0.744 -0.1896  0.2377 -0.1891
75017W        W18111   5.607  33.585   0.775  0.3825  0.1477  0.1790
75018W        W18112   5.037  30.495   2.621 -0.0048 -0.2335 -0.0869
75019W        W18113   6.485  30.771   3.145 -0.1988 -0.1799 -0.4713
75020W        W18114   6.409  30.756   1.721 -0.1872  0.1006 -0.4612
75021W        W18115   5.876  29.883   0.625 -0.0781  0.1710  0.1478
75022W        W18116   3.970  31.191   2.832  0.2412  0.3030 -0.2820
75023W        W18117   5.201  30.353   3.080  0.0283 -0.0490 -0.1233
75024W        W18118   7.875  28.297   2.178  0.0371  0.2027 -0.2344
75025W        W18119   6.341  29.849   2.284  0.1549 -0.0577  0.4288
75026W        W18120   5.023  31.170   1.759 -0.0845 -0.0015  0.0998
75027W        W18121   5.678  32.186   4.063 -0.1013  0.4447  0.0777
75028W        W18122   7.269  30.956   3.221  0.1949 -0.0768  0.1152
75029W        W18123   4.217  31.564   1.971  0.0249 -0.0382  0.4006
75030W        W18124   3.383  34.510   1.209  0.2589  0.1886 -0.1341
75031W        W18125   5.745  31.927   0.428 -0.2627  0.1086  0.1530
75032W        W18126   7.626  30.779   2.913 -0.0850 -0.0254  0.3030
75033W        W18127   6.416  32.673   2.922  0.0359  0.1995 -0.1082
75034W        W18128   5.158  33.657   2.420 -0.3408 -0.0510 -0.0112
75035W        W18129   3.995  31.929   0.205  0.0276 -0.3550 -0.1404
75036W        W18130   5.870  33.289   3.579 -0.0329 -0.0943  0.2512
75037W        W18131   5.928  32.302   2.310 -0.0588  0.2192  0.0628
75038W        W18132   3.914  30.473   2.852 -0.1651  0.1608 -0.1029
75039W        W18133   5.280  30.740   0.809 -0.0023 -0.0549 -0.0131
75040W        W18134   6.375  31.294   1.082 -0.3249 -0.0144  0.2422
75041W        W18135   6.811  31.532   1.443  0.1303  0.2733  0.1164
75042W        W18136   4.397  33.135   3.298  0.1085 -0.0883 -0.0603
75043W        W18137   5.936  31.569   1.665  0.2086 -0.2016 -0.0304
75044W        W18138   7.506  29.254   3.945 -0.0114 -0.1589  0.0849
75045W        W18139   6.077  31.006   0.774  0.1953  0.2222 -0.0473
75046W        W18140   6.770  30.437  30.687  0.0229 -0.0582 -0.3063
75047W        W18141   3.290  29.718  31.720  0.2727  0.1001 -0.0140
75048W        W18142   6.062  30.048  31.189  0.2015  0.1846  0.4042
75049W        W18143   5.178  29.563   2.276  0.1343 -0.0280  0.1326
75050W        W18144   6.452  32.240   1.921 -0.0665  0.1016 -0.0287
75051W        W18145   6.057  30.500   0.657 -0.2366 -0.2313  0.0458
75052W        W18146   8.471  32.883   3.722  0.1971  0.1660  0.1447
75053W        W18147   6.473  30.981  31.215 -0.2836 -0.0380  0.0241
75054W        W18148   7.237  29.003   2.367 -0.0839  0.1966 -0.1773
75055W        W18149   4.364  32.629   2.747 -0.1426 -0.4318 -0.0107
75056W        W18150   3.568  30.747   2.734  0.0724 -0.5418  0.1041
75057W        W18151   7.287  30.768   1.604  0.1878 -0.0590 -0.1968
75058W        W18152   7.625  31.975   3.414 -0.3850  0.0613  0.0178
75059W        W18153   6.222  31.784   0.473 -0.1395 -0.1894 -0.2134
75060W        W18154   4.337  31.819   0.893  0.1070  0.1059  0.0926
75061W        W18155   4.330  31.921   2.922  0.1358 -0.0792  0.1145
75062W        W18156   4.585  31.885   2.479 -0.0252 -0.0190  0.0174
75063W        W18157   4.733  30.074  31.794 -0.0957 -0.3461 -0.0926
75064W        W18158   6.274  31.418   5.883 -0.1093 -0.0091 -0.2612
75065W        W18159   3.447  32.868   2.964  0.4195  0.0490 -0.1173
75066W        W18160   8.236  30.441   2.334 -0.3719 -0.0419  0.0159
75067W        W18161   5.476  31.486   1.482 -0.4264  0.1640 -0.1418
75068W        W18162   7.553  32.329   3.723 -0.4194 -0.3178  0.0670
75069W        W18163   7.120  31.098  31.123  0.0382  0.1749 -0.0691
75070W        W18164   6.989  29.159   3.203  0.0376  0.0992 -0.2631
75071W        W18165   7.089  29.016   3.712  0.3898 -0.0956  0.1480
75072W        W18166   5.921  30.176   1.092  0.1752  0.3982  0.0632
75073W        W18167   4.946  32.313   1.060 -0.1115  0.0576  0.0356
75074W        W18168   7.764  32.517   4.330 -0.0053 -0.0297  0.1832
75075W        W18169   7.477  30.624   0.577  0.0973 -0.2080  0.0552
75076W        W18170   4.238  33.315   2.404  0.0154  0.0721  0.0736
75077W        W18171   4.783  30.691   3.590  0.1819 -0.2791 -0.0728
75078W        W18172   5.848  32.768   3.457 -0.2379  0.1682  0.0953
75079W        W18173   5.247  31.764   0.372  0.3080  0.0095  0.2117
75080W        W18174   5.162  32.770   0.261 -0.1279  0.0608  0.1711
75081W        W18175   4.429  32.251   0.698  0.0890 -0.0624 -0.0856
75082W        W18176   5.223  29.346   2.783 -0.0211  0.2608  0.3501
75083W        W18177   4.894  31.252   2.964  0.0986 -0.1378  0.1606
75084W        W18178   7.143  29.761   1.140  0.3859  0.3929  0.3994
75085W        W18179   4.271  29.161   2.062 -0.3539 -0.1261 -0.1423
75086W        W18180   7.407  29.662   1.867 -0.0602 -0.1196  0.0738
75087W        W18181   4.507  31.814   0.344  0.0829 -0.1667 -0.0143
75088W        W18182   7.153  33.092   2.040 -0.0918  0.1092  0.1306
75089W        W18183   7.900  30.423   0.810  0.1176  0.1641 -0.1739
75090W        W18184   6.304  30.897   0.376  0.5468 -0.0679 -0.0357
75091W        W18185   3.434  30.044   2.992 -0.0890  0.2911  0.2404
75092W        W18186   5.193  30.537   1.440  0.1670 -0.4061  0.0756
75093W        W18187   4.643  29.777   3.260  0.0651 -0.0740 -0.3691
75094W        W18188   4.975  29.441   1.611  0.0339  0.0219 -0.0798
75095W        W18189   8.199  30.394   2.849  0.1198 -0.1093 -0.3911
75096W        W18190   4.318  30.050  31.571  0.0419 -0.3143 -0.2283
75097W        W18191   7.965  30.492   0.250  0.1057  0.1239  0.2721
75098W        W18192   5.704  30.934   0.464 -0.2370 -0.1509 -0.1214
75099W        W18193   5.178  32.706   1.296  0.1539  0.1271  0.0070
75100W        W18194   6.002  30.810   4.682  0.3067 -0.0810 -0.1383
75101W        W18195   6.855  31.035   1.459 -0.0770  0.3687 -0.2183
75102W        W18196   7.683  32.821   3.846 -0.1943  0.3634  0.2117
75103W        W18197   7.051  32.914   0.726  0.0496  0.3354 -0.2040
75104W        W18198   5.257  30.426   2.061 -0.0937 -0.0921  0.1786
75105W        W18199   5.342  29.819   0.730  0.2523  0.0392 -0.1154
75106W        W18200   5.741  32.841   1.546  0.2107  0.1408  0.0304
75107W        W18201   5.262  31.865   1.761 -0.2623 -0.1281  0.0327
75108W        W18202   5.259  29.535   1.148 -0.3831 -0.1144  0.1534
75109W        W18203   7.253  30.863   2.525  0.0295 -0.2093  0.1357
75110W        W18204   5.544  31.169   0.882  0.1530  0.0630  0.0675
75111W        W18205   3.936  32.382   2.127 -0.2277 -0.0543  0.0505
75112W        W18206   5.976  29.397   2.180 -0.0370 -0.1458  0.1986
75113W        W18207   7.470  32.236   2.750 -0.2368  0.2953 -0.0845
75114W        W18208   6.744  30.298   2.238 -0.1295  0.1117  0.0896
75115W        W18209   5.943  29.118   0.682  0.0144  0.0318 -0.1142
75116W        W18210   7.179  32.569   2.145 -0.4360 -0.1168 -0.1738
75117W        W18211   5.395  33.144   1.052 -0.0850 -0.0938 -0.0049
75118W        W18212   4.430  31.236   0.195  0.0337  0.1607 -0.1764
75119W        W18213   6.624  32.086   1.168  0.1682  0.2626  0.1164
75120W        W18214   6.880  29.143   0.668  0.2342  0.3198 -0.0724
75121W        W18215   3.450  32.352   3.131 -0.0551 -0.0458 -0.1954
75122W        W18216   5.329  29.872   2.668 -0.0748  0.0744  0.2894
75123W        W18217   4.499  31.343   1.089  0.0177 -0.0333 -0.0734
75124W        W18218   4.757  31.914   4.262  0.0183  0.0674 -0.0546
75125W        W18219   5.266  30.595   0.249  0.0746 -0.2693 -0.0724
75126W        W18220   7.225  30.037   0.461  0.0176  0.0520  0.2777
75127W        W18221   5.955  31.611   2.582 -0.0101 -0.0098  0.0441
75128W        W18222   6.432  31.713   1.812  0.0467  0.1158  0.0485
75129W        W18223   7.168  28.481   0.153  0.3701 -0.1638  0.3231
75130W        W18224   6.498  29.045  30.059 -0.2113 -0.2829  0.0071
75131W        W18225   4.705  32.297   2.846  0.0571 -0.0986  0.1160
75132W        W18226   6.326  31.725   1.336 -0.2081  0.2093 -0.1014
75133W        W18227   6.600  31.147   1.953 -0.0638  0.1380 -0.2261
75134W        W18228   6.573  30.546   1.299  0.0298  0.0855  0.5957
75135W        W18229   7.902  31.467   1.210 -0.0452  0.1745  0.2699
75136W        W18230   4.986  32.648   2.132  0.1062 -0.1981 -0.0464
75137W        W18231   5.617  32.178   3.343 -0.0148  0.4478 -0.1206
75138W        W18232   6.985  31.776   1.016 -0.2850 -0.3710  0.0540
75139W        W18233   5.744  29.468   0.973 -0.0938 -0.0892 -0.0629
75140W        W18234   6.074  29.957   1.513 -0.3209 -0.0137 -0.4212
75141W        W18235   5.647  28.979  31.731 -0.3130  0.0255 -0.2527
75142W        W18236   3.427  34.030  31.651 -0.0135 -0.0068  0.1281
75143W        W18237   7.183  30.067   2.175 -0.0833 -0.0681 -0.0725
75144W        W18238   7.121  28.450   1.603 -0.0269  0.0310  0.2019
75145W        W18239   6.533  29.984   2.736  0.1197  0.1358 -0.3097
75146W        W18240   9.190  31.292   3.187  0.5355 -0.2000 -0.0608
75147W        W18241   9.220  29.372   0.898  0.2946 -0.0308  0.1037
75148W        W18242   6.410  29.659   1.844 -0.1132 -0.5158  0.1206
75149W        W18243   3.417  30.756   0.532  0.0120 -0.2254  0.0188
75150W        W18244   5.357  30.912   2.763 -0.4284  0.2125 -0.1074
75151W        W18245   3.161  31.048   2.855  0.0881 -0.2238 -0.3940
75152W        W18246   4.306  33.315   4.023 -0.0640 -0.0826  0.2522
75153W        W18247   7.945  31.748   3.054  0.2600  0.1354 -0.2589
75154W        W18248   5.892  29.877   1.937  0.1570 -0.3053  0.1935
75155W        W18249   6.043  30.260   2.895 -0.1386  0.0751 -0.1537
75156W        W18250   6.038  29.244  31.644 -0.2670 -0.0483 -0.0397
75157W        W18251   5.246  33.861   1.733 -0.0831 -0.0236  0.4580
75158W        W18252   4.904  32.928   1.736 -0.0289 -0.0299 -0.2210
75159W        W18253   5.998  28.618   2.654 -0.1116 -0.0338 -0.2222
75160W        W18254   5.456  32.949   1.908 -0.2162  0.0919  0.1267
75161W        W18255   5.500  32.261   1.053  0.1801 -0.1443 -0.2025
75162W        W18256   7.890  32.080   2.514 -0.4509  0.1728 -0.1351
75163W        W18257   3.528  32.134   0.238 -0.3441 -0.0540 -0.1343
75164W        W18258   7.451  28.196   2.465  0.2592 -0.1234 -0.0356
75165W        W18259   4.221  32.803   2.274 -0.2203 -0.2970 -0.0115
75166W        W18260   4.982  30.782  31.357 -0.1989  0.0169 -0.3132
75167W        W18261   5.190  31.193   2.232 -0.2381 -0.4390 -0.0292
75168W        W18262   5.844  29.951   2.599 -0.1943 -0.0352 -0.0851
75169W        W18263   7.665  29.615  31.658  0.1924 -0.0550 -0.0421
75170W        W18264   5.539  31.112   1.837 -0.0465 -0.0720  0.0709
75171W        W18265   6.643  29.186   1.792  0.4424  0.0549 -0.1523
75172W        W18266   3.480  32.585   2.005 -0.1620 -0.2537 -0.0844
75173W        W18267   6.798  30.891   2.820  0.0543  0.2769 -0.0160
75174W        W18268   5.653  27.190  31.435 -0.2092 -0.1447  0.2829
75175W        W18269   6.822  31.623   2.095  0.2266  0.1428  0.3070
75176W        W18270   6.436  32.246   2.497 -0.1508 -0.2666  0.0471
75177W        W18271   4.442  30.476  31.883 -0.3279  0.3823  0.0410
75178W        W18272   8.546  30.295   3.404  0.1083  0.0083  0.0148
75179W        W18273   7.077  31.094   1.940 -0.0804  0.2105 -0.0441
75180W        W18274   4.801  33.638   1.183  0.2125 -0.0922  0.0278
75181W        W18275   5.449  32.648   3.137 -0.2590  0.4893  0.2780
75182W        W18276   5.508  32.433   0.069 -0.1517 -0.0372 -0.0642
75183W        W18277   6.036  33.264   0.823 -0.0889  0.0291  0.2827
75184W        W18278   5.193  30.884   3.814 -0.0923  0.0334  0.1192
75185W        W18279   8.239  31.333   2.794  0.3056 -0.2477  0.2143
75186W        W18280   6.425  30.132   0.923  0.2176  0.0778 -0.0489
75187W        W18281   6.257  30.218   0.267 -0.0807  0.0452  0.2093
75188W        W18282   6.472  31.772   2.530 -0.2705 -0.2083 -0.1668
75189W        W18283   6.823  31.985   1.698  0.2349 -0.1885  0.3673
75190W        W18284   5.642  30.138   3.169 -0.1561  0.1997 -0.3126
75191W        W18285   5.023  32.765   2.762  0.2936 -0.2746 -0.0748
75192W        W18286   5.633  28.867   1.735  0.1701 -0.0764  0.0907
75193W        W18287   9.064  32.430   1.013 -0.0892  0.0031  0.0940
75194W        W18288   5.584  30.205   1.637 -0.2497  0.1471  0.2103
75195W        W18289   4.771  30.990   1.322 -0.1613 -0.1020 -0.5250
75196W        W18290   3.844  31.311   2.258 -0.3386  0.2431 -0.4369
75197W        W18291   5.859  30.959  31.972 -0.2276  0.2058  0.2862
75198W        W18292   6.448  29.137   2.257 -0.1209 -0.0808  0.0536
75199W        W18293   4.494  32.628   1.856 -0.1897 -0.0695  0.1051
75200W        W18294   4.818  30.955   0.752 -0.1967  0.1732  0.2512
75201W        W18295   4.277  32.046   2.059  0.0812  0.0091  0.0372
75202W        W18296   6.887  28.913   1.418  0.1204  0.0523  0.2433
75203W        W18297   5.555  30.370   0.594  0.1179 -0.2138 -0.0829
75204W        W18298   5.356  30.236  31.815  0.0845  0.1915  0.0546
75205W        W18299   7.528  30.126   3.509 -0.1709 -0.1068  0.3506
75206W        W18300   6.086  29.590  31.314 -0.1889 -0.2112 -0.1073
75207W        W18301   6.202  30.338   3.891 -0.3601 -0.0065 -0.0999
75208W        W18302   5.169  29.016   2.327 -0.0706 -0.1046 -0.0215
75209W        W18303   7.596  31.657   2.621  0.4188 -0.1870  0.0253
75210W        W18304   4.231  30.095   2.981  0.3296 -0.0359 -0.0056
75211W        W18305   5.986  33.399   4.229  0.2621 -0.0532  0.0661
75212W        W18306   4.539  30.397   3.901 -0.1276  0.0157  0.1225
75213W        W18307   4.923  29.394   0.589 -0.1829 -0.0425 -0.0181
75214W        W18308   6.083  28.978   1.336  0.0451  0.0300  0.2361
75215W        W18309   5.405  30.210   1.069  0.0564  0.0484  0.1278
75216W        W18310   8.918  31.825   2.993 -0.0024  0.0266 -0.1980
75217W        W18311   7.336  31.960   0.700 -0.1309  0.2914 -0.2405
75218W        W18312   8.750  29.888   1.617  0.1966  0.4211 -0.3118
75219W        W18313   5.740  31.527   2.155  0.0230 -0.5591 -0.1397
75220W        W18314   7.126  30.379   1.369  0.1282  0.2936 -0.1307
75221W        W18315   5.750  30.484   0.152 -0.0429 -0.1025 -0.0327
75222W        W18316   4.777  31.464   0.539  0.4863  0.3007  0.3582
75223W        W18317   4.948  30.054   2.388  0.1747  0.1511 -0.3396
75224W        W18318   5.520  30.406   2.602 -0.2344  0.2888  0.2735
75225W        W18319   6.430  28.673   1.228  0.1686 -0.0450 -0.3445
75226W        W18320   6.767  30.276   3.045  0.0683 -0.1009  0.3043
75227W        W18321   7.224  29.971   3.105  0.1109 -0.1431 -0.1216
75228W        W18322   6.198  31.371   2.087  0.0731  0.0567  0.1390
75229W        W18323   5.234  27.824   3.779  0.1184 -0.1180  0.0213
75230W        W18324   6.904  31.618   2.785  0.0544  0.1449 -0.2013
75231W        W18325   8.743  28.955   0.148 -0.0307 -0.2640  0.0335
75232W        W18326   6.866  31.283   3.234 -0.1037 -0.2777 -0.2060
75233W        W18327   8.569  30.809   2.754  0.1380 -0.2388 -0.0166
75234W        W18328   7.542  30.700   1.104  0.2974  0.2716  0.0127
75235W        W18329   4.476  29.365   0.381  0.1192 -0.0770  0.3063
75236W        W18330   6.465  30.765   3.746 -0.1093 -0.0793  0.2154
75237W        W18331   5.525  29.519   0.398  0.1505  0.2502 -0.1101
75238W        W18332   5.990  30.320   4.375  0.0002  0.2818  0.0970
75239W        W18333   7.054  30.674   0.867 -0.0822 -0.2360  0.4789
75240W        W18334   7.023  31.237   0.990 -0.0243 -0.2101  0.0763
75241W        W18335   7.385  31.102   0.631 -0.2471  0.3024 -0.2848
75242W        W18336   4.189  29.766   2.092 -0.1037 -0.1451  0.1290
75243W        W18337   5.020  32.557   3.423  0.1594 -0.1771  0.2098
75244W        W18338   5.932  28.285  31.752 -0.0316  0.0815 -0.3959
75245W        W18339   4.553  32.138   1.249 -0.0080  0.0088  0.1520
75246W        W18340   7.181  31.827   2.392  0.0894 -0.1184 -0.1500
75247W        W18341   7.275  31.813   3.019 -0.0890 -0.1038  0.1022
75248W        W18342   5.762  28.942   2.327 -0.0735  0.2066 -0.1168
75249W        W18343   7.836  30.550   3.751 -0.2301 -0.1847 -0.1238
75250W        W18344   4.037  33.515   0.686 -0.2106 -0.0520  0.2572
75251W        W18345   6.627  29.940   1.418 -0.0369  0.1386 -0.0566
75252W        W18346   4.713   0.365   2.402  0.0066  0.4700  0.0503
75253W        W18347   3.105  31.966   2.829 -0.4135 -0.0971 -0.0248
75254W        W18348   6.376  33.456   2.044 -0.1349  0.1760 -0.1161
75255W        W18349   6.834  29.777   2.090 -0.3682 -0.1282 -0.1779
75256W        W18350   7.065  29.994   1.706 -0.0546  0.0565  0.1561
75257W        W18351   6.180  30.795   1.212  0.0875 -0.1600 -0.0969
75258W        W18352   6.975  30.451   2.631 -0.0629 -0.0838 -0.2317
75259W        W18353   5.881  31.715   3.336  0.0079 -0.0556  0.2218
75260W        W18354   5.965  30.918   2.076  0.1587  0.0717 -0.3041
75261W        W18355   4.911  31.443   4.514 -0.0824  0.0346  0.2116
75262W        W18356   6.539  30.326   3.465 -0.2161  0.0117 -0.1352
75263W        W18357   5.501  31.826   0.866  0.2521  0.1946 -0.1172
75264W        W18358   4.113  29.131   2.874  0.0760 -0.3148  0.0193
75265W        W18359   5.497  31.482   2.636 -0.1655 -0.2140 -0.1810
75266W        W18360   5.809  30.334   2.095  0.1648  0.0081  0.0093
75267W        W18361   4.519  29.001   0.803  0.2633  0.0933  0.1605
75268W        W18362   5.106  31.930   1.298 -0.3528  0.0161 -0.1162
75269W        W18363   5.593  32.413   2.663  0.2672 -0.1343  0.2484
75270W        W18364   3.644  32.590   2.481  0.1528 -0.1368 -0.1889
75271W        W18365   5.339  32.737   0.797 -0.1710  0.1723 -0.0123
75272W        W18366   7.494  30.326  31.401 -0.1591  0.2431  0.0265
75273W        W18367   6.559  31.304   0.599 -0.1304 -0.0932 -0.3872
75274W        W18368   6.163  32.589   3.778 -0.2186 -0.2668 -0.1137
75275W        W18369   6.571  30.466   0.577  0.0387 -0.0952  0.3527
75276W        W18370   5.706  33.075   0.470 -0.0654 -0.1638 -0.1371
75277W        W18371   3.004  32.463   0.316 -0.1059 -0.1971 -0.1783
75278W        W18372   7.301  30.603   2.117 -0.0605 -0.0093  0.1392
75279W        W18373   5.747  31.875   1.316 -0.1433 -0.2372  0.0033
75280W        W18374   7.600  32.377   4.843 -0.1773  0.1605 -0.0147
75281W        W18375   7.115  29.556   0.578 -0.0678  0.4938  0.1394
75282W        W18376   8.008  31.309   2.035 -0.3583 -0.3065  0.0517
75283W        W18377   7.797  30.309   1.288 -0.2501 -0.0495 -0.0372
75284W        W18378   6.878  32.299   4.191  0.1851  0.0793  0.3666
75285W        W18379   6.366  29.130   0.935  0.3258  0.0442  0.0822
75286W        W18380   5.798  28.135   0.810 -0.3517 -0.2606  0.3099
75287W        W18381   3.911  31.639   3.004  0.1523  0.3817 -0.6304
75288W        W18382   7.877  30.011   3.892  0.0840 -0.1667  0.0609
75289W        W18383   4.618  33.553   3.093 -0.2119 -0.2177 -0.1691
75290W        W18384   8.067  32.097   1.823  0.0931  0.2088 -0.1798
75291W        W18385   3.602  30.941   1.549  0.0121 -0.2130  0.2616
75292W        W18386   4.501  30.723   1.606  0.1164  0.0387 -0.2489
75293W        W18387   7.802  29.694   2.251 -0.1272 -0.5367  0.2004
75294W        W18388   7.431  32.450   0.990 -0.1916 -0.0338 -0.1376
75295W        W18389   7.746  30.070   0.456  0.0096  0.0328  0.2775
75296W        W18390   5.891  33.069   2.081  0.3124 -0.1448  0.0646
75297W        W18391   4.748  31.956   1.649  0.1994  0.2067 -0.1800
75298W        W18392   4.889  32.102   2.109  0.2077  0.1970 -0.4145
75299W        W18393   4.498  30.460   0.757  0.0080  0.3585 -0.1800
75300W        W18394   7.884  30.879   1.448 -0.0482  0.0846  0.3024
75301W        W18395   5.446  32.397   2.083 -0.0681 -0.0012 -0.1377
75302W        W18396   7.391  29.015   2.907 -0.1669  0.3636 -0.0540
75303W        W18397   4.509  31.210   1.747 -0.1148  0.2806 -0.0435
75304W        W18398   8.241  29.966   1.589 -0.1621  0.2962  0.3668
75305W        W18399   7.257  32.243   3.265 -0.0356 -0.1043 -0.2899
75306W        W18400   4.360  30.175   1.738  0.0702  0.1721  0.4593
75307W        W18401   5.383  32.428  31.455  0.1321 -0.0369 -0.1078
75308W        W18402   7.859  32.566   2.638  0.1899  0.2828 -0.0519
75309W        W18403   7.415  30.034  31.774  0.1890 -0.1283 -0.0526
75310W        W18404   6.441  33.677   3.821 -0.0893  0.2804 -0.0898
75311W        W18405   4.079  29.462   0.708 -0.2204 -0.0238 -0.0856
75312W        W18406   7.079  30.510  31.167 -0.0253 -0.0031  0.1227
75313W        W18407   5.516  30.799   2.311 -0.2033  0.0578  0.0669
75314W        W18408   6.331  31.220   1.553  0.0746 -0.1099 -0.0513
75315W        W18409   5.921  32.490   4.429 -0.0973 -0.2230  0.2064
75316W        W18410   4.349  30.801   1.126  0.1193 -0.1762  0.3130
75317W        W18411   7.467  31.510   0.864 -0.2423 -0.1025  0.0471
75318W        W18412   7.444  30.326   2.528 -0.0445 -0.3335  0.1050
75319W        W18413   5.185  32.889  31.706 -0.1996  0.3725  0.0182
75320W        W18414   6.848  30.868   0.439  0.1645 -0.0366  0.0694
75321W        W18415   6.849  32.191   2.790  0.2381  0.1161  0.0149
75322W        W18416   4.774  29.338   2.090  0.1153  0.1291 -0.0846
75323W        W18417   7.127  32.594   2.949 -0.0727 -0.1617 -0.1611
75324W        W18418   9.291  31.100   2.331 -0.3201  0.0116 -0.0331
75325W        W18419   6.352  29.523   0.542  0.1816 -0.4683  0.0305
75326W        W18420   4.836  31.462   2.535 -0.0664 -0.4076  0.0079
75327W        W18421   5.443  33.543   0.292  0.0804  0.0694  0.1261
75328W        W18422   6.871  30.717   3.449  0.1040  0.0343 -0.1799
75329W        W18423   6.981  29.934   2.577  0.2721 -0.3743 -0.1801
75330W        W18424   5.301  30.977   1.275  0.3518 -0.2958  0.0088
75331W        W18425   6.424  30.520   2.711  0.0419  0.2408 -0.0547
75332W        W18426   6.401  31.938   2.974  0.1268  0.2093 -0.0924
75333W        W18427   5.245  33.049   4.270 -0.2806 -0.2520 -0.3453
75334W        W18428   5.360  32.277   0.556  0.0818 -0.0439  0.2056
75335W        W18429   6.937  32.432   1.755 -0.0895 -0.2813  0.4085
75336W        W18430   6.064  30.445   1.521  0.1750  0.1377  0.1604
75337W        W18431   6.088  32.773   0.720 -0.0623  0.4667 -0.1476
75338W        W18432   7.276  31.282   2.846 -0.1904  0.0823  0.0344
75339W        W18433   7.451  30.225   0.937 -0.0179  0.0837 -0.1904
75340W        W18434   7.692  30.234   2.952  0.2395 -0.2338  0.2350
75341W        W18435   5.641  29.818   1.322  0.2183 -0.1389  0.1885
75342W        W18436   7.893  29.107   1.663  0.2527 -0.2273 -0.1876
75343W        W18437   6.164  29.738   1.095 -0.1976 -0.0361  0.1108
75344W        W18438   5.116  32.165   2.522 -0.0064 -0.1789  0.2417
75345W        W18439   3.840  30.925   1.095 -0.0230  0.1533  0.3129
75346W        W18440   4.068  31.579   0.503  0.1747 -0.1616  0.1107
75347W        W18441   4.954  32.396   1.690 -0.1050  0.1461 -0.1210
75348W        W18442   6.172  28.485   3.570 -0.0314 -0.1147 -0.0664
75349W        W18443   4.423  29.629   3.946  0.1811  0.0218 -0.1843
75350W        W18444   4.251  31.528   2.472  0.1015 -0.0383 -0.4978
75351W        W18445   4.243  29.425  31.507  0.1786  0.1379  0.0175
75352W        W18446   7.601  30.980   1.925 -0.3476  0.1333  0.1910
75353W        W18447   5.498  29.261   1.997 -0.1425 -0.1076 -0.2183
75354W        W18448   3.803  29.369   1.840  0.3210 -0.0872 -0.4101
75355W        W18449   7.648  32.340   2.126  0.0267  0.2169 -0.0784
75356W        W18450   7.441  32.748   1.772 -0.1717  0.0737  0.0413
75357W        W18451   5.157  29.981   1.409  0.0965  0.0579  0.0113
75358W        W18452   8.041  32.471   3.804 -0.0782 -0.3518  0.1814
75359W        W18453   3.140  31.662   0.581 -0.2092 -0.2217 -0.1206
75360W        W18454   6.243  29.563   2.819 -0.1318 -0.1139  0.0600
75361W        W18455   6.096  30.842   2.878 -0.1581 -0.0290  0.0713
75362W        W18456   3.740  28.691   0.523 -0.1517  0.0632 -0.1281
75363W        W18457   8.422  29.505   1.610  0.3399  0.0503 -0.1510
75364W        W18458   6.858  32.143   2.227 -0.2964  0.0141 -0.0111
75365W        W18459   6.443  32.610   1.482 -0.3438  0.2995 -0.1527
75366W        W18460   4.548  32.410   2.321 -0.1218  0.0645  0.1076
75367W        W18461   5.523  33.405   3.162  0.1990 -0.2662 -0.1113
75368W        W18462   5.434  28.710   2.763  0.0925  0.2740 -0.5026
75369W        W18463   7.750  30.167   2.154 -0.1328  0.2758 -0.1396
75370W        W18464   4.967  32.142   3.843  0.0195 -0.2045  0.0006
75371W        W18465   7.977  31.763   0.263 -0.0177 -0.0001 -0.1436
75372W        W18466   8.480  29.355   3.250  0.1259  0.0689 -0.0079
75373W        W18467   5.657  29.922   0.140 -0.0647  0.0362 -0.1759
75374W        W18468   4.912  27.794   3.002  0.3026  0.1233 -0.1999
75375W        W18469   4.729  31.561   2.031  0.0950  0.2281  0.0822
75376W        W18470   6.363  31.688   3.954 -0.0708 -0.0976  0.0676
75377W        W18471   5.359  29.690   1.738  0.1066  0.0898  0.2568
75378W        W18472   6.327  30.491   2.139  0.4828  0.0441  0.1042
75379W        W18473   6.666  32.945   1.926 -0.2687  0.1195  0.0093
75380W        W18474   4.154  32.217   2.561  0.3413  0.2354 -0.1522
75381W        W18475   6.914  30.186   0.898  0.1337 -0.2597 -0.0419
75382W        W18476   5.016  30.849   4.262  0.3324  0.0032  0.2327
75383W        W18477   7.676  31.531   1.653  0.0644  0.1516  0.1518
75384W        W18478   7.416  31.457   3.315 -0.0164  0.1638  0.0053
75385W        W18479   5.730  30.705   1.058 -0.2561 -0.3874 -0.2389
75386W        W18480   9.090  29.954   2.030  0.1220  0.3707  0.0452
75387W        W18481   5.978  32.064   2.772 -0.0360  0.1366 -0.4651
75388W        W18482   7.119  32.512   4.614  0.2515  0.3100  0.2893
75389W        W18483   5.505  33.430   1.711  0.3587  0.0355 -0.0387
75390W        W18484   6.779  31.261   2.467  0.2226 -0.0427 -0.1435
75391W        W18485   4.029  30.320   2.393 -0.1869 -0.2503  0.1765
75392W        W18486   5.869  31.180   1.290  0.2243  0.0182 -0.0905
75393W        W18487   5.881  31.533   0.897 -0.1723  0.0723 -0.0082
75394W        W18488   7.220  30.479   3.088 -0.3994 -0.2680 -0.0669
75395W        W18489   5.103  30.305   0.637  0.1451 -0.1010  0.0190
75396W        W18490   6.698  29.973   0.515 -0.2283  0.0812  0.2023
75397W        W18491   6.163  33.735   2.559 -0.2422 -0.1204  0.3355
75398W        W18492   5.658  30.727   1.584 -0.1178  0.1138  0.4314
75399W        W18493   5.754  33.169   7.442 -0.0205  0.0712  0.0124
75400W        W18494   4.398  28.634   2.661  0.0361  0.2326 -0.0284
75401W        W18495   7.628  29.653   3.672  0.0672  0.1710 -0.0076
75402W        W18496   6.953  31.578   3.625  0.0172  0.0221 -0.2264
75403W        W18497   4.125  28.705   4.025  0.2131 -0.3243 -0.2545
75404W        W18498   7.379  32.141   4.213  0.0928 -0.0475 -0.2396
75405W        W18499   5.529  28.427   6.577  0.0855  0.1747 -0.0822
75406W        W18500   6.699  32.142   5.100 -0.3101 -0.2019 -0.1689
75407W        W18501   6.615  32.115   5.645 -0.0520  0.3602 -0.1675
75408W        W18502   6.537  31.639   4.922 -0.3448  0.1589 -0.3128
75409W        W18503   5.034  30.339   5.964  0.2874 -0.0194  0.2193
75410W        W18504   6.093  31.256   6.298 -0.3476 -0.0902  0.3135
75411W        W18505   3.911  30.141   5.149  0.0150  0.2534  0.1145
75412W        W18506   3.942  28.575   5.968 -0.0412 -0.1448  0.1763
75413W        W18507   5.329  30.751   6.825  0.2064  0.2841  0.1258
75414W        W18508   5.591  31.960   2.367  0.1275 -0.1644  0.0668
75415W        W18509   4.178  30.623   6.320 -0.2775  0.0042  0.4560
75416W        W18510   4.619  28.862   3.715 -0.1264  0.1821 -0.0547
75417W        W18511   4.762  31.686   3.716 -0.0053 -0.0831  0.1851
75418W        W18512   7.309  29.137   7.255  0.1514 -0.1039 -0.1232
75419W        W18513   6.899  29.482   7.245 -0.2475  0.2782  0.0931
75420W        W18514   6.701  32.379   3.219  0.2812 -0.2687  0.3836
75421W        W18515   4.353  30.932   3.327 -0.0598  0.1983 -0.1036
75422W        W18516   3.865  28.939   5.021  0.1651 -0.0077  0.0656
75423W        W18517   3.501  30.159   6.428 -0.0327  0.0663  0.1820
75424W        W18518   5.749  30.654   5.780  0.2417  0.2950 -0.1364
75425W        W18519   7.776  30.957   7.246  0.0658 -0.1670  0.0676
75426W        W18520   6.615  30.932   5.708 -0.3067 -0.3344  0.1264
75427W        W18521   6.189  32.595   6.467  0.2167  0.2441 -0.0844
75428W        W18522   7.476  31.094   7.698 -0.0672 -0.2345  0.0810
75429W        W18523   5.012  31.601   5.029 -0.1809  0.0135  0.0312
75430W        W18524   4.773  32.985   4.609  0.0177 -0.2203 -0.0834
75431W        W18525   5.104  31.093   4.806 -0.0063  0.0253 -0.2528
75432W        W18526   7.743  31.806   5.482  0.0473  0.0473 -0.0459
75433W        W18527   6.681  31.329   6.608  0.1962 -0.1952  0.4749
75434W        W18528   5.669  32.563   7.139  0.2671  0.2830  0.0217
75435W        W18529   4.082  30.672   3.660 -0.2292 -0.0909 -0.1986
75436W        W18530   5.530  30.763   7.326 -0.0265 -0.4962  0.0075
75437W        W18531   2.651  31.325   6.949 -0.1205 -0.2339  0.0546
75438W        W18532   6.048  30.871   7.215 -0.2217  0.3731  0.0180
75439W        W18533   5.507  30.426   6.165  0.0819  0.0231 -0.1433
75440W        W18534   5.155  32.252   3.033 -0.2263 -0.0612  0.0580
75441W        W18535   6.273  31.667   4.451  0.0341  0.1389 -0.2042
75442W        W18536   5.156  31.093   7.080 -0.1666  0.0393  0.3933
75443W        W18537   4.571  32.388   5.423 -0.0313 -0.2013 -0.0489
75444W        W18538   7.774  29.928   8.385 -0.0097  0.0906  0.1651
75445W        W18539   4.959  32.033   4.774 -0.0642  0.1880 -0.1926
75446W        W18540   6.701  31.333   3.979 -0.1735  0.0793 -0.5633
75447W        W18541   4.885  29.746   3.747 -0.0561 -0.2118  0.0977
75448W        W18542   5.506  30.701   4.722  0.1806 -0.1734  0.1108
75449W        W18543   5.030  28.742   5.294 -0.4431 -0.0684 -0.0391
75450W        W18544   3.969  32.494   4.779  0.1481 -0.5820  0.1110
75451W        W18545   4.255  29.892   4.840  0.0573  0.0044  0.0701
75452W        W18546   7.662  31.903   6.867 -0.0604 -0.1665 -0.2966
75453W        W18547   6.113  29.944   5.578  0.1691 -0.0684 -0.2211
75454W        W18548   6.230  30.476   6.985  0.0761  0.1389  0.0161
75455W        W18549   6.529  31.747   6.885 -0.1935 -0.1514  0.1219
75456W        W18550   3.687  30.579   5.516 -0.1568  0.0692  0.0064
75457W        W18551   8.136  32.041   3.491  0.4458  0.0441  0.2050
75458W        W18552   7.275  31.109   6.044  0.1199  0.0878 -0.1969
75459W        W18553   6.036  32.044   3.755 -0.2046 -0.2580 -0.3183
75460W        W18554   5.347  29.482   3.834  0.0907 -0.0472 -0.2546
75461W        W18555   2.867  31.408   7.508  0.1724  0.2844 -0.1522
75462W        W18556   4.104  30.177   7.180 -0.1068  0.0847 -0.1349
75463W        W18557   5.669  30.635   3.077 -0.2934 -0.2432  0.2273
75464W        W18558   6.848  32.217   6.755 -0.0674  0.0748 -0.0241
75465W        W18559   4.997  30.809   7.476  0.0850  0.0978  0.1245
75466W        W18560   6.592  29.826   5.715 -0.1409 -0.2842 -0.1402
75467W        W18561   5.682  31.138   6.979  0.2195  0.0451  0.0314
75468W        W18562   5.958  32.123   6.355 -0.2255 -0.0590 -0.0225
75469W        W18563   7.900  31.519   3.530  0.0006 -0.2811 -0.2365
75470W        W18564   6.417  28.960   4.723 -0.0619 -0.3635  0.0630
75471W        W18565   6.882  30.004   6.628  0.5122  0.2960 -0.1378
75472W        W18566   5.765  31.154   3.072  0.2592  0.1431 -0.3193
75473W        W18567   5.960  30.723   4.057  0.1682  0.1500 -0.1757
75474W        W18568   6.090  32.424   6.922  0.0839 -0.2015 -0.2056
75475W        W18569   6.860  31.933   3.290 -0.4041  0.2053 -0.2310
75476W        W18570   4.477  31.907   5.759  0.0447  0.0262  0.1125
75477W        W18571   5.335  29.944   7.067 -0.0388  0.2125 -0.1678
75478W        W18572   6.078  32.907   7.191 -0.1644 -0.1542  0.1455
75479W        W18573   4.906  31.219   3.494  0.0200 -0.1628 -0.1366
75480W        W18574   3.922  29.790   6.421 -0.1144  0.0953 -0.2751
75481W        W18575   5.471  30.622   4.246 -0.0590 -0.0920 -0.1693
75482W        W18576   3.562  28.860   5.775  0.2651 -0.1187  0.1395
75483W        W18577   6.051  31.039   5.675 -0.2677  0.0635 -0.1501
75484W        W18578   6.439  30.659   4.724 -0.1752  0.0064 -0.0755
75485W        W18579   4.618  27.775   7.693  0.0494 -0.0727 -0.0313
75486W        W18580   7.084  29.791   4.942  0.4277  0.1670  0.1720
75487W        W18581   5.172  31.844   3.402  0.2051 -0.2311 -0.2731
75488W        W18582   6.569  32.686   5.112 -0.2018 -0.0216 -0.2945
75489W        W18583   7.393  30.621   3.552  0.1919  0.0275 -0.4162
75490W        W18584   5.913  30.872   3.467  0.2042 -0.1045  0.0147
75491W        W18585   4.134  31.103   4.339  0.0404 -0.1270 -0.1506
75492W        W18586   3.570  29.725   5.173 -0.1297 -0.4424 -0.0755
75493W        W18587   3.629  29.343   7.632  0.0804 -0.0048 -0.1840
75494W        W18588   4.498  30.399   5.966  0.1336  0.1735 -0.1561
75495W        W18589   6.984  31.151   7.017  0.3756 -0.2411  0.1043
75496W        W18590   3.958  28.157   3.671  0.0948 -0.3103  0.2442
75497W        W18591   6.721  30.209   5.264  0.3362  0.0992 -0.0992
75498W        W18592   5.337  30.273   4.921  0.5121  0.2086  0.0793
75499W        W18593   4.804  30.697   3.040  0.1332 -0.3401  0.0974
75500W        W18594   6.735  29.591   6.109  0.2688  0.2584 -0.2704
75501W        W18595   5.410  31.567   4.667  0.1360 -0.0402 -0.1213
75502W        W18596   6.951  32.901   6.835  0.3069  0.2814  0.2030
75503W        W18597   8.154  32.544   5.297 -0.0365 -0.1452 -0.0836
75504W        W18598   5.454  28.973   6.278  0.1586  0.2280  0.0636
75505W        W18599   5.037  29.389   3.398  0.4164  0.0683 -0.1604
75506W        W18600   4.446  31.376   5.898 -0.2924 -0.1401  0.0104
75507W        W18601   5.797  32.165   5.000 -0.0300 -0.1281  0.0186
75508W        W18602   5.522  30.133   4.493  0.1109  0.2019  0.0847
75509W        W18603   6.172  32.032   5.866 -0.0298 -0.0114 -0.0185
75510W        W18604   5.985  31.339   5.242 -0.1802  0.0935 -0.0032
75511W        W18605   3.994  31.846   6.780 -0.0684  0.0491  0.0329
75512W        W18606   5.828  29.353   6.211  0.0315 -0.0200  0.1618
75513W        W18607   6.514  30.321   6.613 -0.0740 -0.1453 -0.0036
75514W        W18608   6.027  30.794   5.183  0.0882  0.0380 -0.3265
75515W        W18609   4.796  30.332   1.633  0.1667 -0.2374  0.0048
75516W        W18610   5.207  33.022   5.791  0.0928  0.1530 -0.0099
75517W        W18611   5.450  32.490   3.689 -0.0557 -0.1745  0.0698
75518W        W18612   2.829  31.325   5.701  0.2917 -0.3314 -0.0498
75519W        W18613   5.999  31.663   4.913  0.1406 -0.1675  0.0262
75520W        W18614   6.925  30.681   4.864 -0.0403 -0.1446  0.1812
75521W        W18615   3.934  30.258   6.666  0.2164 -0.1614  0.0208
75522W        W18616   6.462  30.028   6.994 -0.0380  0.0117 -0.1408
75523W        W18617   5.552  30.564   3.616 -0.3181  0.3814  0.1369
75524W        W18618   4.512  29.946   7.475  0.2430 -0.0977 -0.3779
75525W        W18619   5.651  30.133   5.665  0.1962  0.0538 -0.1437
75526W        W18620   5.665  30.227   4.005 -0.0474 -0.1926 -0.1343
75527W        W18621   5.390  30.129   8.064  0.3365 -0.2916 -0.1376
75528W        W18622   7.328  31.684   4.404 -0.0130 -0.0819  0.2094
75529W        W18623   5.724  29.141   4.554  0.0147  0.2124 -0.0558
75530W        W18624   5.834  29.454   3.796 -0.0803 -0.0529 -0.0095
75531W        W18625   4.029  30.992   7.690  0.2552  0.3131  0.0021
75532W        W18626   4.787  30.740   4.879  0.3540  0.1072  0.0432
75533W        W18627   6.552  31.071   6.171 -0.0893  0.0897  0.0899
75534W        W18628   5.600  31.162   4.950  0.2202  0.2960 -0.2288
75535W        W18629   7.076  33.386   6.138  0.0845  0.2474 -0.0565
75536W        W18630   5.347  31.348   7.470  0.0721  0.0733  0.0220
75537W        W18631   7.189  32.479   7.605 -0.1456 -0.0032 -0.0911
75538W        W18632   6.704  31.683   5.847  0.1254  0.0849  0.0748
75539W        W18633   6.020  29.733   5.145  0.0480  0.0049  0.1959
75540W        W18634   6.060  31.339   3.652  0.0438 -0.0752  0.0782
75541W        W18635   4.910  29.621   5.449 -0.1138 -0.1483  0.1259
75542W        W18636   4.457  32.184   4.953 -0.0496  0.0503  0.1251
75543W        W18637   6.229  30.529   5.634 -0.1291 -0.0890 -0.2180
75544W        W18638   4.278  29.064   5.257  0.1266  0.1369  0.0926
75545W        W18639   6.589  29.015   6.650 -0.0842 -0.0886  0.0295
75546W        W18640   6.820  30.967   7.520 -0.1744  0.0588  0.4127
75547W        W18641   6.481  31.175   3.504 -0.0455  0.1336 -0.0947
75548W        W18642   5.876  30.543   6.658 -0.0028  0.0212  0.2003
75549W        W18643   5.224  31.666   2.199  0.1641 -0.0727  0.2404
75550W        W18644   4.384  29.922   6.195 -0.3535 -0.0369 -0.4904
75551W        W18645   4.768  29.947   7.073  0.3658 -0.2968 -0.0838
75552W        W18646   3.750  32.256   7.352 -0.1836  0.0247  0.1982
75553W        W18647   5.564  31.966   7.711  0.0101 -0.0735  0.2671
75554W        W18648   6.826  31.691   5.332  0.1721 -0.0939 -0.0404
75555W        W18649   5.618  29.591   7.429 -0.0597 -0.1419 -0.1054
75556W        W18650   5.633  29.498   4.908 -0.0808  0.1804 -0.2381
75557W        W18651   5.049  32.633   3.911 -0.1810 -0.0069 -0.1312
75558W        W18652   4.849  33.029   3.535  0.2314 -0.3141  0.1470
75559W        W18653   4.732  29.112   5.190 -0.0119 -0.0833  0.0575
75560W        W18654   4.903  31.772   5.992 -0.0248 -0.0864 -0.1976
75561W        W18655   5.017  33.323   3.890 -0.1754  0.0064 -0.2389
75562W        W18656   6.415  32.131   6.566  0.0422  0.0538  0.0809
75563W        W18657   4.698  33.301   4.960 -0.0385  0.1750 -0.0504
75564W        W18658   6.384  29.236   6.244  0.0548  0.0721  0.2295
75565W        W18659   4.799  31.469   5.501 -0.1529 -0.3168 -0.1497
75566W        W18660   4.327  31.416   3.100  0.2030  0.1960 -0.1816
75567W        W18661   4.589  30.547   4.355  0.2027  0.1859 -0.0805
75568W        W18662   6.698  29.546   4.680 -0.1698 -0.2604 -0.2484
75569W        W18663   8.284  32.010   2.766  0.0773  0.1117  0.3111
75570W        W18664   5.263  29.594   6.265  0.2222  0.0673  0.3328
75571W        W18665   5.363  29.811   5.281  0.2949  0.1494  0.0407
75572W        W18666   3.931  31.790   5.782  0.2103  0.1266  0.1486
75573W        W18667   6.112  32.053   7.637  0.2643  0.1690 -0.0298
75574W        W18668   5.659  30.495   5.336  0.1475  0.1263  0.2741
75575W        W18669   6.553  31.708   7.741 -0.0111 -0.1902  0.0552
75576W        W18670   6.420  32.107   7.260 -0.0866 -0.1011 -0.3233
75577W        W18671   4.851  30.863   2.417  0.0047  0.1003  0.0517
75578W        W18672   6.416  31.735   6.275 -0.2072  0.0872 -0.0865
75579W        W18673   5.545  31.679   5.201 -0.1270 -0.3813 -0.3826
75580W        W18674   4.960  32.431   4.423  0.3093  0.0156  0.0999
75581W        W18675   4.656  31.408   6.368  0.0709  0.2535  0.0928
75582W        W18676   5.181  29.868   3.189  0.1222 -0.0219  0.1711
75583W        W18677   4.768  30.471   5.491 -0.2686  0.1162  0.0085
75584W        W18678   4.909  29.997   8.052 -0.2345 -0.0463  0.0079
75585W        W18679   6.750  33.147   6.477  0.1042 -0.2341 -0.0316
75586W        W18680   3.714  29.659   5.703  0.3078 -0.2120  0.1336
75587W        W18681   5.283  31.278   5.335 -0.1059  0.1628  0.3440
75588W        W18682   3.682  30.625   6.414 -0.0059 -0.1002  0.1418
75589W        W18683   6.082  31.407   6.846  0.1469  0.0617 -0.3995
75590W        W18684   5.783  30.483   7.740 -0.0605 -0.1568 -0.1803
75591W        W18685   5.105  31.596   7.895  0.2653 -0.0200  0.0819
75592W        W18686   4.709  29.993   5.767 -0.0165 -0.0531 -0.2061
75593W        W18687   7.937  32.835   4.755  0.2405 -0.3900  0.3625
75594W        W18688   5.590  30.997   8.004 -0.0192 -0.1505  0.1316
75595W        W18689   4.464  31.094   2.761  0.1328  0.4550 -0.1564
75596W        W18690   4.288  31.498   7.032  0.0337  0.2543 -0.0465
75597W        W18691   5.377  31.341   3.695  0.0844 -0.2979 -0.0435
75598W        W18692   4.597  30.920   6.064  0.0916  0.0355  0.0348
75599W        W18693   4.145  31.533   6.452 -0.1055  0.2471  0.2054
75600W        W18694   4.403  30.871   3.983 -0.1930 -0.1697 -0.2293
75601W        W18695   5.301  31.578   6.975  0.0597 -0.2036 -0.1127
75602W        W18696   6.004  29.933   4.681 -0.2073 -0.0540  0.0654
75603W        W18697   6.697  32.002   4.514  0.0153 -0.0335  0.2384
75604W        W18698   5.737  29.832   6.136  0.0100  0.1304 -0.2626
75605W        W18699   7.354  29.687   8.089 -0.0525  0.1971  0.0494
75606W        W18700   6.317  31.180   4.873  0.2635 -0.0773 -0.3577
75607W        W18701   7.469  30.395   7.006  0.3904 -0.1534 -0.0848
75608W        W18702   3.765  28.559   5.399 -0.1625 -0.1131 -0.1933
75609W        W18703   7.026  31.189   5.495 -0.4865  0.1018 -0.0678
75610W        W18704   4.576  29.083   6.604 -0.0326 -0.4871 -0.4061
75611W        W18705   5.908  32.519   7.578 -0.1871 -0.0883 -0.2913
75612W        W18706   4.251  30.469   9.102 -0.0721 -0.0356 -0.0687
75613W        W18707   5.149  30.215   5.481  0.0239 -0.0298  0.1204
75614W        W18708   4.791  29.648   2.611 -0.2440 -0.0220  0.2520
75615W        W18709   5.386  30.094   7.548  0.0643  0.0217  0.0394
75616W        W18710   6.966  30.728   5.966 -0.1577  0.1498  0.4193
75617W        W18711   4.865  31.301   3.998  0.3144 -0.0870  0.0312
75618W        W18712   6.357  29.495   5.426  0.1477 -0.0993  0.4312
75619W        W18713   3.728  29.382   6.152 -0.1921 -0.1910  0.0805
75620W        W18714   6.873  29.561   5.387  0.1408 -0.0555  0.3105
75621W        W18715   6.426  30.723   4.220 -0.0686 -0.1261  0.2566
75622W        W18716   5.202  30.827   6.205  0.1377 -0.0554  0.1566
75623W        W18717   4.602  29.574   6.610  0.0647  0.2231  0.1403
75624W        W18718   7.730  31.778   6.392 -0.0224 -0.3044 -0.1939
75625W        W18719   5.669  29.533   5.694  0.1039 -0.1665  0.0285
75626W        W18720   6.018  30.215   6.047  0.0556  0.0176  0.0429
75627W        W18721   6.415  29.653   6.523  0.3987  0.1904  0.1462
75628W        W18722   6.060  29.322   6.693 -0.1871 -0.0180 -0.1354
75629W        W18723   4.594  28.795   7.618  0.2810 -0.1494 -0.1972
75630W        W18724   6.433  32.336   6.134 -0.2245  0.0603 -0.1240
75631W        W18725   8.521  30.762   4.604 -0.0004  0.2179 -0.0474
75632W        W18726   7.684  29.962   6.928  0.2719  0.1692 -0.1401
75633W        W18727   7.205  31.604   5.723  0.0090 -0.0984 -0.0669
75634W        W18728   6.247  32.248   3.352  0.0573 -0.1340 -0.2264
75635W        W18729   4.209  30.371   5.557 -0.0462 -0.2682  0.1187
75636W        W18730   8.027  30.222   8.731  0.2210  0.0553  0.1270
75637W        W18731   5.099  29.004   3.897 -0.0552 -0.0874  0.2421
75638W        W18732   5.923  29.290   7.177 -0.2430 -0.0139 -0.1324
75639W        W18733   5.292  31.909   4.275  0.1851 -0.1044  0.3594
75640W        W18734   5.858  31.910   5.475  0.3853  0.0073  0.0872
75641W        W18735   6.554  29.797   5.088 -0.0907 -0.0365  0.0773
75642W        W18736   2.750  30.331   5.459 -0.3179 -0.1161  0.0892
75643W        W18737   4.595  31.886   7.185 -0.1682 -0.1832  0.0201
75644W        W18738   4.512  30.471   2.323 -0.0365  0.0157  0.1357
75645W        W18739   6.273  31.385   2.986 -0.0966 -0.0047  0.2060
75646W        W18740   6.723  31.491   7.344 -0.1873 -0.2816 -0.3798
75647W        W18741   7.822  31.888   8.316 -0.3245  0.0267 -0.0091
75648W        W18742   6.868  29.393   3.959  0.0202  0.1045  0.1284
75649W        W18743   5.795  31.139   7.523 -0.1494 -0.1197 -0.2496
75650W        W18744   3.727  30.609   5.032  0.0361  0.1428  0.1492
75651W        W18745   5.960  28.875   6.314  0.1760  0.1187 -0.0213
75652W        W18746   5.028  31.169   5.855  0.3307 -0.0194 -0.0443
75653W        W18747   3.835  31.233   7.110 -0.0476 -0.0146 -0.1803
75654W        W18748   5.225  32.225   5.678 -0.1793  0.1016 -0.1548
75655W        W18749   5.286  29.876   5.816  0.0872  0.0003 -0.1485
75656W        W18750   7.099  29.951   5.667 -0.4589 -0.2844 -0.0605
75657W        W18751   5.633  29.668   6.633  0.1886  0.2421  0.1358
75658W        W18752   6.978  31.464   6.204 -0.1923 -0.3662  0.2846
75659W        W18753   6.260  31.594   7.297  0.0485  0.0546 -0.3053
75660W        W18754   4.588  31.023   4.525  0.2535  0.1747 -0.1174
75661W        W18755   5.943  33.515   7.807 -0.3499  0.3462  0.0172
75662W        W18756   7.541  30.716   6.285 -0.1656  0.2309  0.3765
75663W        W18757   5.883  29.905   7.030  0.0175  0.0436  0.2661
75664W        W18758   4.277  28.587   6.382 -0.1750  0.2949 -0.0997
75665W        W18759   4.793  30.616   8.033 -0.2811 -0.0910 -0.1780
75666W        W18760   6.350  31.769   5.325  0.2728 -0.1462  0.2046
75667W        W18761   4.747  30.064   4.593 -0.0652 -0.2406 -0.3508
75668W        W18762   6.101  31.839   2.152  0.2015 -0.1134  0.0512
75669W        W18763   3.807  33.043   7.195  0.1099 -0.0178 -0.0607
75670W        W18764   4.995  32.184   6.956 -0.0446 -0.4452  0.0428
75671W        W18765   3.813  33.788   5.104 -0.0452  0.0653 -0.2604
75672W        W18766   5.885  31.303   4.573  0.5074 -0.0857 -0.0659
75673W        W18767   6.348  31.720   3.465 -0.2110 -0.1336  0.0589
75674W        W18768   5.391  32.576   4.335 -0.1472  0.1326 -0.0694
75675W        W18769   5.114  30.388   4.506  0.0506 -0.3655 -0.3715
75676W        W18770   4.876  32.478   4.972  0.1647  0.0679  0.1635
75677W        W18771   4.481  31.537   4.239 -0.2803  0.2700  0.2161
75678W        W18772   5.735  32.947   4.480 -0.0015 -0.0049  0.0233
75679W        W18773   4.879  32.011   5.341  0.2055  0.3194 -0.0822
75680W        W18774   6.886  32.077   6.185  0.4399  0.2693 -0.1801
75681W        W18775   6.384  29.883   3.717 -0.2561 -0.1304  0.2635
75682W        W18776   6.999  30.622   5.436 -0.0871  0.0662  0.0773
75683W        W18777   6.812  30.961   4.449  0.0473 -0.2620 -0.0239
75684W        W18778   5.930  31.910   8.121  0.2051  0.0515  0.0585
75685W        W18779   4.707  30.547   6.385 -0.0968  0.3131 -0.1602
75686W        W18780   6.720  30.301   3.902  0.2599 -0.0668  0.1144
75687W        W18781   4.966  31.097   7.922  0.0273  0.1557  0.0377
75688W        W18782   7.262  29.369   6.319 -0.0792  0.3306  0.0448
75689W        W18783   4.468  31.868   6.243  0.3511 -0.1589  0.0128
75690W        W18784   7.607  31.837   4.862 -0.2698  0.2812 -0.0585
75691W        W18785   4.463  29.549   4.458 -0.1573  0.2486 -0.3250
75692W        W18786   4.692  30.991   5.427 -0.1239 -0.0471 -0.1223
75693W        W18787   6.201  29.522   5.889 -0.1038  0.2090  0.0306
75694W        W18788   4.664  32.749   3.151  0.2158 -0.1310 -0.3965
75695W        W18789   5.596  30.940   5.394 -0.2122  0.2624  0.2243
75696W        W18790   5.606  33.234   4.967 -0.1444  0.0884 -0.0975
75697W        W18791   4.383  31.805   5.305  0.0704 -0.1739  0.1432
75698W        W18792   5.455  32.522   6.060  0.1200 -0.4243 -0.0947
75699W        W18793   4.446  30.326   5.070 -0.1377  0.0537 -0.0342
75700W        W18794   6.930  30.364   6.311  0.1186 -0.1006  0.0367
75701W        W18795   4.312  28.643   7.217 -0.2099 -0.1012  0.1128
75702W        W18796   8.277  31.215   7.077 -0.0898 -0.2494 -0.3620
75703W        W18797   5.530  31.120   5.862  0.0825 -0.1181 -0.0105
75704W        W18798   7.232  30.270   5.007  0.2110 -0.0608 -0.1001
75705W        W18799   5.928  31.603   7.716  0.0216 -0.0704  0.0213
75706W        W18800   4.493  30.208   6.709 -0.2090  0.0729 -0.3090
75707W        W18801   5.866  31.109   2.540 -0.2995 -0.1568 -0.1963
75708W        W18802   6.459  31.154   7.079 -0.4078 -0.0507 -0.1383
75709W        W18803   5.905  31.702   4.114 -0.0800  0.2455  0.3692
75710W        W18804   6.629  33.880   7.436  0.1749 -0.1049  0.3541
75711W        W18805   4.916  30.113   5.104  0.5744 -0.0597  0.1071
75712W        W18806   5.819  30.361   4.866 -0.2612 -0.1424 -0.1829
75713W        W18807   4.174  30.466   4.726  0.2163 -0.4859  0.1723
75714W        W18808   5.302  29.408   7.024 -0.3135  0.0628 -0.1223
75715W        W18809   8.170  31.603   7.939 -0.0692  0.1412 -0.0933
75716W        W18810   4.465  29.074   4.187 -0.0877 -0.1025  0.0747
75717W        W18811   7.365  31.656   3.840  0.0726 -0.1962 -0.2641
75718W        W18812   6.787  30.276   5.785 -0.1667  0.0516  0.1907
75719W        W18813   5.318  33.823   4.721 -0.2344 -0.0592  0.0642
75720W        W18814   6.461  31.305   5.359  0.1586 -0.2722 -0.2911
75721W        W18815   7.774  31.156   5.004  0.1001  0.1007 -0.1758
75722W        W18816   4.286  29.483   6.177  0.1160  0.1890  0.3657
75723W        W18817   6.475  32.726   6.893 -0.2421 -0.1099  0.0670
75724W        W18818   8.019  31.528   6.785  0.0420 -0.0680 -0.0640
75725W        W18819   5.182  30.669   5.183 -0.1481 -0.0916  0.2977
75726W        W18820   3.267  30.998   4.655  0.2629  0.3684 -0.4203
75727W        W18821   4.032  31.981   4.817  0.2772  0.2545 -0.2123
75728W        W18822   7.399  30.918   6.803 -0.1623 -0.0662  0.0231
75729W        W18823   7.063  30.903   6.437  0.0773  0.3068  0.0764
75730W        W18824   5.436  33.124   2.777  0.1162  0.2913 -0.2630
75731W        W18825   7.920  29.696   7.880 -0.3563 -0.0101  0.3616
75732W        W18826   5.874  31.683   6.178 -0.0961  0.0972  0.0554
75733W        W18827   5.306  33.733   8.582 -0.4351 -0.1999 -0.1268
75734W        W18828   5.361  30.061   3.643 -0.2028 -0.0290  0.1482
75735W        W18829   4.459  30.939   6.596 -0.1253 -0.0110 -0.1806
75736W        W18830   5.396  31.433   3.185  0.0993  0.3873 -0.3343
75737W        W18831   5.690  32.413   5.507 -0.3405 -0.0989 -0.1430
75738W        W18832   6.479  32.936   6.143  0.2003 -0.0292  0.3844
75739W        W18833   4.913  29.965   6.275  0.0001 -0.2327  0.2139
75740W        W18834   8.045  30.695   6.287  0.1032 -0.1668 -0.0271
75741W        W18835   5.205  29.799   4.759  0.1218  0.0370  0.1082
75742W        W18836   8.362  30.022   4.810  0.4284 -0.0218  0.2164
75743W        W18837   6.459  30.151   4.339 -0.1125  0.1321  0.0473
75744W        W18838   3.979  31.003   6.629  0.0052  0.0165  0.0886
75745W        W18839   5.081  31.748   2.847 -0.1696 -0.0110  0.0453
75746W        W18840   3.997  30.841   2.401 -0.0761  0.1278 -0.1278
75747W        W18841   4.743  31.445   6.858  0.0858 -0.1139  0.0079
75748W        W18842   7.057  29.914   7.696  0.0114  0.1527  0.2926
75749W        W18843   4.778  28.932   7.200 -0.0559  0.0467  0.1593
75750W        W18844   3.925  30.186   5.996  0.1335 -0.0128  0.0490
75751W        W18845   4.183  30.740   5.199  0.0064 -0.3219  0.0795
75752W        W18846   7.800  32.018   4.389  0.1565 -0.0362  0.0641
75753W        W18847   4.987  29.107   6.263  0.0638 -0.1294  0.0490
75754W        W18848   3.609  29.308   4.867  0.1900  0.1275 -0.3759
75755W        W18849   6.269  32.026   4.878  0.0399  0.2226  0.1141
75756W        W18850   6.893  31.830   4.088  0.1865  0.0360 -0.2933
75757W        W18851   5.204  30.713   5.671  0.1412 -0.1038 -0.0629
75758W        W18852   6.758  32.508   7.228  0.1059 -0.1595 -0.1210
75759W        W18853   3.559  31.248   4.288 -0.1114  0.1220 -0.0778
75760W        W18854   6.571  29.910   7.742  0.0939  0.3892 -0.1863
75761W        W18855   5.625  29.083   6.808  0.0777 -0.1185  0.0632
75762W        W18856   5.195  29.884   4.261 -0.1505 -0.1190  0.0463
75763W        W18857   3.701  30.275   4.495 -0.4683  0.0143 -0.0224
75764W        W18858   6.850  32.928   3.249  0.3500  0.1116  0.0951
75765W        W18859   7.569  33.117   3.261  0.0399 -0.3102  0.1070
75766W        W18860   5.664  31.030   6.492  0.1232  0.0551 -0.4517
75767W        W18861   4.556  32.019   8.264 -0.3438 -0.1535 -0.3456
75768W        W18862   3.716  28.129   7.379 -0.0520 -0.0444 -0.0482
75769W        W18863   6.187  31.158   4.229  0.0624 -0.0973 -0.2794
75770W        W18864   5.171  30.455   7.187 -0.0649  0.2019 -0.1181
75771W        W18865   8.420  32.652   5.767  0.0955 -0.1054  0.1279
75772W        W18866   7.367  30.119   6.555  0.1531  0.1378 -0.2923
75773W        W18867   6.034  30.775   6.163 -0.2303  0.1231  0.0796
75774W        W18868   3.617  27.998   6.881  0.1737 -0.2771  0.0554
75775W        W18869   4.342  32.256   7.053  0.2482 -0.2684 -0.2694
75776W        W18870   7.217  31.482   7.425 -0.0531 -0.0770  0.0972
75777W        W18871   4.914  29.410   4.115 -0.0978 -0.0442  0.4305
75778W        W18872   5.837  31.465   5.684  0.2582 -0.2693  0.1327
75779W        W18873   7.188  32.778   5.030  0.1914 -0.1694 -0.4179
75780W        W18874   2.997  30.683   5.678 -0.1221  0.1733 -0.0068
75781W        W18875   5.726  31.166   4.015  0.2030 -0.0255 -0.2727
75782W        W18876   5.062  29.730   6.702  0.1236  0.1076  0.1060
75783W        W18877   7.326  31.746   5.248  0.1304 -0.1866  0.2911
75784W        W18878   8.793  31.120   7.152 -0.0129 -0.2436  0.0728
75785W        W18879   6.050  30.400   3.349 -0.1280 -0.1705 -0.2759
75786W        W18880   7.561  31.334   5.437  0.0967 -0.0686  0.1391
75787W        W18881   7.026  33.381   7.121  0.0207 -0.0168 -0.1414
75788W        W18882   7.084  32.119   7.237 -0.2502  0.0893  0.2612
75789W        W18883   5.418  31.521   6.112 -0.0712  0.3050  0.1773
75790W        W18884   6.042  30.091   6.539 -0.2331  0.0888 -0.1764
75791W        W18885   4.145  28.267   6.779 -0.2311 -0.0092  0.2905
75792W        W18886   5.064  30.403   3.993 -0.0482  0.0934 -0.0940
75793W        W18887   3.750  30.858   4.606  0.0071  0.0732 -0.0740
75794W        W18888   6.473  30.582   6.119  0.0557  0.1714 -0.0254
75795W        W18889   4.105  31.095   6.171  0.2178  0.0996  0.2400
75796W        W18890   6.533  28.348   3.919  0.0226 -0.1734 -0.0295
75797W        W18891   5.777  31.559   7.196 -0.1665  0.0654  0.0412
75798W        W18892   4.997  30.295   6.662  0.1075 -0.1166  0.0535
75799W        W18893   7.056  33.085   9.281 -0.2953  0.1478 -0.2945
75800W        W18894   4.953  29.070   7.998 -0.1267 -0.5668 -0.1143
75801W        W18895   6.809  31.494   8.616 -0.0384 -0.1086  0.1614
75802W        W18896   7.321  30.942   9.409 -0.0991  0.1245 -0.0471
75803W        W18897   3.522  31.556   9.680  0.1991 -0.0963 -0.1820
75804W        W18898   7.331  31.979  10.203 -0.0720 -0.2227  0.1630
75805W        W18899   7.035  30.460  11.510 -0.0165 -0.1901 -0.2929
75806W        W18900   8.684  32.570   9.765 -0.1654 -0.1023 -0.0945
75807W        W18901   5.084  32.140   7.821  0.1997  0.3696  0.2150
75808W        W18902   5.846  30.693  10.007 -0.1664  0.0783 -0.0121
75809W        W18903   6.819  29.651   8.073  0.3519 -0.1348 -0.0577
75810W        W18904   4.783  29.586   9.437  0.0707 -0.1452 -0.0328
75811W        W18905   6.627  32.098  11.140 -0.0824  0.2194 -0.2729
75812W        W18906   4.059  29.655   8.851  0.0370  0.1453  0.0511
75813W        W18907   5.481  29.213   9.816 -0.0256 -0.0604  0.3318
75814W        W18908   6.199  29.847   8.245  0.2471  0.1157 -0.0635
75815W        W18909   7.255  32.126   9.234  0.0474  0.2594 -0.0038
75816W        W18910   5.340  29.361  10.292 -0.1239  0.2193  0.3208
75817W        W18911   6.856  30.840   9.284  0.4226 -0.0564  0.1546
75818W        W18912   4.877  30.262   7.647 -0.2507 -0.1927  0.3120
75819W        W18913   5.056  32.044   8.339 -0.0194 -0.3072  0.0298
75820W        W18914   6.053  31.897   9.047 -0.3299  0.0400  0.1297
75821W        W18915   7.474  28.377   9.453 -0.1046  0.0801 -0.2149
75822W        W18916   7.060  31.160  10.633  0.0718  0.1526  0.0363
75823W        W18917   4.488  32.682   8.845 -0.3168 -0.0111 -0.0333
75824W        W18918   6.790  32.164   9.286  0.2062 -0.1730 -0.0285
75825W        W18919   3.854  31.313   8.707  0.1203  0.1060 -0.1115
75826W        W18920   4.800  32.383   9.473  0.1206  0.0099 -0.3922
75827W        W18921   6.579  32.483   9.657  0.1943  0.0472  0.2491
75828W        W18922   8.285  32.844   9.982  0.1389 -0.0279  0.4040
75829W        W18923   2.654  32.058   8.571  0.3364  0.3433 -0.2752
75830W        W18924   6.088  30.766   9.010  0.0373 -0.0363  0.4770
75831W        W18925   5.873  30.828   8.434  0.3211  0.2181 -0.0767
75832W        W18926   4.239  30.567   6.865  0.0113 -0.0362 -0.1905
75833W        W18927   5.862  31.351   8.318  0.0875 -0.0762 -0.0020
75834W        W18928   4.959  32.785  10.041  0.5309 -0.0226 -0.2087
75835W        W18929   4.295  31.630   7.495  0.1488  0.2143  0.1938
75836W        W18930   6.759  32.227   7.665 -0.2422  0.1146  0.0069
75837W        W18931   3.791  29.209   7.028 -0.2777  0.4551 -0.0119
75838W        W18932   7.327  30.835   8.919 -0.1688  0.0915 -0.0124
75839W        W18933   5.709  28.099   8.368  0.0040 -0.0437  0.1846
75840W        W18934   5.356  32.361   9.185  0.2605  0.0517  0.0196
75841W        W18935   4.989  29.180   9.641  0.0420  0.0491  0.1481
75842W        W18936   6.990  30.632   8.352  0.1100  0.0878 -0.2871
75843W        W18937   6.352  29.113   8.426 -0.0803 -0.0568  0.1033
75844W        W18938   3.496  31.036   9.657  0.3555 -0.1787 -0.0378
75845W        W18939   4.657  29.958   9.778 -0.2940 -0.0593 -0.1127
75846W        W18940   6.854  33.283   8.037  0.2718 -0.0335 -0.0542
75847W        W18941   8.087  33.269  10.140 -0.2845  0.0780  0.0824
75848W        W18942   6.934  31.145   8.938 -0.3979  0.0205 -0.2557
75849W        W18943   4.556  31.169   9.249 -0.0952  0.0317  0.1794
75850W        W18944   5.485  28.273   7.341  0.1930 -0.2955 -0.1801
75851W        W18945  10.016  28.948  11.400 -0.4938 -0.4752 -0.1093
75852W        W18946   5.557  30.843   8.836 -0.0281 -0.0111  0.3500
75853W        W18947   8.132  32.175   9.820  0.0216 -0.1402 -0.0987
75854W        W18948   7.723  31.483   7.330  0.2985  0.3231 -0.1832
75855W        W18949   7.239  29.594   9.278 -0.1625 -0.1303 -0.1428
75856W        W18950   6.488  29.168   9.042  0.2247 -0.2413  0.1088
75857W        W18951   5.457  30.197   6.668 -0.2191  0.2020  0.0834
75858W        W18952   4.803  31.450   8.379  0.0071 -0.2247  0.1504
75859W        W18953   6.890  32.880   9.715 -0.1904 -0.0630 -0.0096
75860W        W18954   7.321  31.942   8.237 -0.0091  0.3484 -0.1890
75861W        W18955   4.494  32.563   9.878  0.2972 -0.0671  0.1356
75862W        W18956   5.567  32.111   6.821  0.0359 -0.0049  0.1092
75863W        W18957   2.445  31.409  10.022  0.0531  0.1736 -0.2933
75864W        W18958   4.495  32.198   9.059 -0.0517  0.0473 -0.0038
75865W        W18959   4.500  29.876   9.132 -0.3314  0.3569 -0.0259
75866W        W18960   3.850  31.943  10.290  0.2654 -0.0944 -0.1752
75867W        W18961   6.918  30.426   7.730 -0.2652 -0.0882  0.0616
75868W        W18962   7.106  29.860   8.525  0.3874  0.1080  0.0721
75869W        W18963   4.632  30.812   8.893  0.0658  0.0336  0.1679
75870W        W18964   7.487  32.530   9.015  0.0305  0.1917 -0.2415
75871W        W18965   6.999  31.602   9.874 -0.2844  0.1734 -0.1004
75872W        W18966   7.343  32.306   6.836 -0.1236 -0.1520  0.1580
75873W        W18967   5.774  29.600   9.639 -0.0267 -0.0227  0.2096
75874W        W18968   5.293  29.685   8.340 -0.0434  0.0072 -0.2462
75875W        W18969   4.053  28.710  11.819  0.1769  0.2760 -0.0490
75876W        W18970   4.246  28.169   7.349  0.3557 -0.0527  0.1806
75877W        W18971   7.019  29.101  10.000  0.1990  0.0719 -0.1804
75878W        W18972   3.506  31.619  10.165 -0.2457 -0.2236 -0.1188
75879W        W18973   4.425  31.322   8.710  0.1526 -0.0845 -0.0427
75880W        W18974   6.431  32.125   8.034  0.0325 -0.1496 -0.1575
75881W        W18975   7.092   0.356  10.143 -0.0939  0.0927  0.0205
75882W        W18976   7.866  32.524   8.482 -0.1428 -0.2249  0.0198
75883W        W18977   4.213  30.283  10.123 -0.1960 -0.5007 -0.0992
75884W        W18978   5.291  30.579   7.804  0.0435  0.3140  0.0707
75885W        W18979   4.417  32.691   9.379 -0.1933 -0.0847  0.0211
75886W        W18980   6.230  31.657   8.622  0.1160  0.1225  0.0453
75887W        W18981   5.043  30.334   8.425  0.1484 -0.2105 -0.0239
75888W        W18982   8.185  33.693  10.988  0.0596 -0.3454 -0.1890
75889W        W18983   5.626  30.856   9.369  0.0079  0.0712 -0.2629
75890W        W18984   8.158  32.704  10.501  0.1411  0.2288  0.1514
75891W        W18985   5.590  30.373   9.067  0.0608  0.1890 -0.2848
75892W        W18986   4.160  29.594   7.361 -0.0678  0.0174  0.0840
75893W        W18987   6.148  32.913   9.185  0.1440 -0.0427 -0.2278
75894W        W18988   4.617  31.959   7.773  0.0910  0.1709 -0.3568
75895W        W18989   3.947  30.543   7.821  0.1647 -0.2813  0.1675
75896W        W18990   6.452  33.268   9.469 -0.1297 -0.0055 -0.2262
75897W        W18991   5.516  30.160   9.604 -0.1050  0.1037  0.1234
75898W        W18992   4.317  30.801   8.094  0.1001  0.2057 -0.0386
75899W        W18993   4.972  29.779   7.490 -0.2742  0.0409  0.1262
75900W        W18994   6.367  31.149   7.580 -0.0478  0.0742  0.0713
75901W        W18995   6.603  31.692   9.088  0.0395 -0.1748 -0.0623
75902W        W18996   5.716  30.346   7.204 -0.1935  0.1134 -0.1873
75903W        W18997   6.279  31.512   8.096  0.0255  0.2865  0.1780
75904W        W18998   6.350  29.750   9.795  0.1763 -0.0763 -0.1441
75905W        W18999   6.513  29.863   9.177  0.0470  0.0233  0.2356
75906W        W19000   5.492  30.439   8.531 -0.0459  0.4404 -0.1483
75907W        W19001   7.517  32.419   8.183 -0.0411 -0.0785 -0.3654
75908W        W19002   4.199  30.866  10.175  0.1211  0.0243 -0.0083
75909W        W19003   7.846  32.514  10.949 -0.1886 -0.0216 -0.0019
75910W        W19004   6.024  30.155   9.787 -0.1274 -0.1419 -0.3023
75911W        W19005   5.547  28.359   7.955  0.2601 -0.0065 -0.1713
75912W        W19006   4.530  29.585   8.103 -0.1328  0.3019  0.2828
75913W        W19007   3.357  32.476   7.045  0.0708 -0.3752  0.1103
75914W        W19008   6.797  31.246  10.178 -0.2646  0.1065  0.2182
75915W        W19009   5.161  30.112   8.814 -0.2565  0.3311 -0.0399
75916W        W19010   7.258  31.281   8.413 -0.2856  0.2759 -0.2673
75917W        W19011   5.582  29.484   8.745  0.3017  0.0608 -0.4522
75918W        W19012   5.107  29.266   7.521  0.1294  0.0987  0.0537
75919W        W19013   7.670  29.098  10.087  0.2641  0.3729 -0.0446
75920W        W19014   1.986  31.525   9.847 -0.1598  0.0363  0.2116
75921W        W19015   6.894  30.826   9.801  0.2213 -0.1226 -0.4521
75922W        W19016   4.102  29.071   7.532  0.1889  0.3281  0.2181
75923W        W19017   6.218  32.442   9.285  0.0384  0.3284  0.0686
75924W        W19018   4.810  31.342   7.371 -0.0277 -0.0085  0.0554
75925W        W19019   5.523  28.618   8.481  0.0360 -0.1998  0.0052
75926W        W19020   6.159  32.131   9.913 -0.1897  0.2703  0.1101
75927W        W19021   5.324  32.302   7.365 -0.0046  0.0213 -0.2419
75928W        W19022   7.991  29.970  10.231  0.2536  0.0492  0.2303
75929W        W19023   5.707  31.726   8.581  0.3949  0.0439 -0.0646
75930W        W19024   6.123  30.023  10.263  0.0129  0.0080  0.2905
75931W        W19025   2.577  32.593   9.230  0.2565 -0.1085 -0.0801
75932W        W19026   5.097  28.526   8.084  0.1054  0.0390  0.3266
75933W        W19027   4.268  30.097   8.724  0.0245  0.0581  0.1601
75934W        W19028   5.914  31.213   8.808 -0.2857 -0.3246  0.1877
75935W        W19029   8.261  32.160   8.384 -0.1227  0.2681 -0.1924
75936W        W19030   4.654  28.409  10.096 -0.2186 -0.0140  0.2740
75937W        W19031   8.441  29.383  10.853 -0.1080 -0.0968 -0.0248
75938W        W19032   4.144  31.227   8.246  0.2225  0.0450  0.0202
75939W        W19033   7.116  30.160   8.122 -0.1759  0.1428  0.2438
75940W        W19034   4.336  29.186   7.100  0.2288  0.0452  0.2217
75941W        W19035   7.567  30.182  11.160 -0.1422 -0.0301  0.0822
75942W        W19036   4.706  28.971  10.014  0.3339  0.0841 -0.2767
75943W        W19037   4.699  33.217   9.005  0.1392  0.1671  0.1925
75944W        W19038   6.077  33.298   9.969 -0.2785  0.0385  0.1875
75945W        W19039   4.658  30.481   9.386  0.1557  0.0553 -0.0246
75946W        W19040   4.201  31.969   9.461 -0.2439  0.1035  0.1166
75947W        W19041   7.749  31.978  11.013  0.0738  0.1689  0.0600
75948W        W19042   5.371  29.307   9.316 -0.0126  0.0938  0.1397
75949W        W19043   4.846  29.184  10.582  0.0577 -0.0233  0.0242
75950W        W19044   5.882  28.634  10.027  0.0588 -0.1787  0.0578
75951W        W19045   6.714  30.744  10.244 -0.0917 -0.0345 -0.1874
75952W        W19046   5.409  30.653   9.770 -0.0156 -0.0078  0.1303
75953W        W19047   5.158  28.809   9.335  0.1037 -0.2634 -0.3564
75954W        W19048   7.396  32.933   8.675  0.1651  0.1088 -0.0251
75955W        W19049   5.167  31.691   8.790 -0.2439  0.0540 -0.0603
75956W        W19050   4.167  30.834   8.656 -0.0707  0.4162  0.1498
75957W        W19051   5.475  31.310   8.953  0.2294 -0.0395 -0.0085
75958W        W19052   6.521  29.234   9.773 -0.0780  0.2570 -0.1051
75959W        W19053   4.821  33.121   9.508  0.0298  0.1679 -0.2683
75960W        W19054   3.557  31.177   7.927  0.1574  0.0912  0.1884
75961W        W19055   6.311   0.439  10.814  0.3075  0.0633 -0.1257
75962W        W19056   6.400  29.565   7.085  0.0496  0.2957 -0.0545
75963W        W19057   7.481  31.437   6.916  0.2382  0.1447  0.1022
75964W        W19058   6.145  29.812   8.818  0.0314  0.2191 -0.2142
75965W        W19059   5.981  31.150  10.231  0.1512 -0.0234  0.0773
75966W        W19060   5.002  28.838   8.501  0.1372 -0.0178  0.1150
75967W        W19061   7.043  31.702   9.310 -0.2562 -0.0314 -0.0969
75968W        W19062   6.122  30.864   7.952  0.2371  0.1717  0.4486
75969W        W19063   3.669  28.548   6.885 -0.1488 -0.0709 -0.0798
75970W        W19064   5.531  31.444   9.988  0.2085  0.1995  0.0021
75971W        W19065   7.483  32.989  11.191 -0.0998  0.1742 -0.2457
75972W        W19066   5.816  30.351   8.189  0.0726  0.0360 -0.1169
75973W        W19067   5.985  30.102   9.274  0.0095 -0.1195 -0.0188
75974W        W19068   6.004  31.685   9.653  0.1522 -0.1599 -0.0423
75975W        W19069   7.268  30.773  10.327 -0.1100  0.2025  0.1444
75976W        W19070   6.214  31.756  10.307  0.0836 -0.0358 -0.2510
75977W        W19071   5.023  31.492   9.181 -0.0935  0.0970  0.0870
75978W        W19072   7.530  31.216  10.445  0.0577 -0.2028 -0.1632
75979W        W19073   7.762  30.188   9.607 -0.2056  0.1555 -0.1037
75980W        W19074   6.691  33.279  10.006  0.2274 -0.1322  0.0484
75981W        W19075   6.762  30.399   7.182 -0.0474 -0.3238  0.0321
75982W        W19076   6.416  31.269  10.457  0.2714  0.0194 -0.0811
75983W        W19077   7.840  30.884  10.227  0.2187 -0.1471 -0.1281
75984W        W19078   6.834  31.835   8.155 -0.0564 -0.0146  0.3322
75985W        W19079   4.963  29.636  10.123  0.2701 -0.0537  0.0394
75986W        W19080   4.495  29.140   8.401 -0.0154  0.1836 -0.1893
75987W        W19081   6.287  31.398   9.292 -0.1047  0.0003 -0.2415
75988W        W19082   7.515  31.584  10.028  0.1241  0.1369 -0.1282
75989W        W19083   7.079  30.363   9.446  0.1144  0.1057  0.0313
75990W        W19084   4.006  30.436   8.328  0.2519 -0.0254  0.1399
75991W        W19085   4.526  30.979   7.685 -0.1247  0.0096 -0.2132
75992W        W19086   6.333  30.645   8.550  0.0747  0.1820  0.1538
75993W        W19087   5.970  30.573   9.501  0.0788 -0.0274 -0.1042
75994W        W19088   6.312  28.916   7.631  0.2990 -0.0892  0.2197
75995W        W19089   5.729  32.630   9.253  0.3091  0.1297 -0.2682
75996W        W19090   5.429  28.528   8.941  0.2055  0.2052  0.2316
75997W        W19091   5.581  31.935   9.885  0.0432  0.1232  0.5099
75998W        W19092   3.529  32.651   9.353 -0.4569 -0.0977 -0.3992
75999W        W19093   5.511  29.817   9.144 -0.0770 -0.1294 -0.0055
76000W        W19094   4.979  30.047   9.354  0.0927 -0.3468 -0.0510
76001W        W19095   6.766  30.636   8.853 -0.1486 -0.0250 -0.0724
76002W        W19096   4.638  31.805   8.798 -0.1236 -0.1908 -0.1536
76003W        W19097   7.770  31.038   9.199  0.1531  0.0474 -0.0481
76004W        W19098   5.367  31.331   8.434  0.0019 -0.2733 -0.0622
76005W        W19099   6.513  30.259  10.095 -0.2792 -0.1897  0.1901
76006W        W19100   4.627  28.678   8.144  0.0843 -0.1396 -0.0309
76007W        W19101   6.620  32.823   9.213  0.5092 -0.0177  0.0164
76008W        W19102   3.748  31.963   9.612  0.0887  0.1178 -0.1865
76009W        W19103   4.235  31.648   9.079 -0.1032 -0.1119 -0.0198
76010W        W19104   7.637  31.657   7.766 -0.3974  0.0051  0.2926
76011W        W19105   6.400  30.356   9.251 -0.0885  0.1025  0.0158
76012W        W19106   6.234  32.475  10.323 -0.0433 -0.4241  0.0826
76013W        W19107   4.292  29.097   7.970 -0.1533  0.1355  0.1722
76014W        W19108   5.454  31.706   9.338  0.1144 -0.2104 -0.1179
76015W        W19109   5.043  31.891   7.427  0.4824 -0.0302  0.0507
76016W        W19110   7.243  32.445   8.569 -0.0532  0.2323 -0.0252
76017W        W19111   4.661  32.648   8.365 -0.0424 -0.0994 -0.1046
76018W        W19112   6.271  30.340   7.898 -0.1237 -0.0867  0.0081
76019W        W19113   8.156  30.716  10.871  0.1461 -0.0581  0.0028
76020W        W19114   8.285  29.952   9.031  0.1315  0.3255  0.2857
76021W        W19115   4.132  31.706   9.887  0.0640  0.0325 -0.0451
76022W        W19116   5.114  28.599   7.468 -0.3815  0.1922 -0.2281
76023W        W19117   7.612  32.111   7.400  0.2942  0.0168  0.4126
76024W        W19118   4.118  31.144   9.107 -0.0529  0.0801 -0.0064
76025W        W19119   7.525  30.700  11.436 -0.1519 -0.2354 -0.1906
76026W        W19120   7.561  30.673  10.907  0.4564 -0.3999  0.2359
76027W        W19121   5.459  31.785   8.145  0.0121 -0.2694 -0.0419
76028W        W19122   6.626  30.681   8.032 -0.0207 -0.0914 -0.0817
76029W        W19123   5.600  32.248   8.300 -0.2103 -0.1350 -0.2099
76030W        W19124   5.042  30.304   9.765  0.0215  0.1102 -0.1787
76031W        W19125   5.809  32.140   9.448 -0.1805  0.0793 -0.2107
76032W        W19126   4.051  29.380   9.282 -0.2228 -0.0327 -0.2107
76033W        W19127   7.290  31.176  10.057 -0.1128 -0.1184  0.1342
76034W        W19128   5.256  30.860   8.339  0.0051  0.2689  0.0662
76035W        W19129   5.060  30.979   9.179  0.0391 -0.0658  0.1407
76036W        W19130   8.339  30.533  10.380 -0.1209 -0.2053 -0.4080
76037W        W19131   4.692  33.317  10.441 -0.2024  0.1995 -0.0364
76038W        W19132   5.743  28.339   9.323  0.0172 -0.2806 -0.2032
76039W        W19133   6.280  31.144   8.472  0.0027 -0.0307  0.1321
76040W        W19134   6.136  30.129   7.387  0.2802  0.2272  0.2483
76041W        W19135   4.534  29.534   8.753 -0.0043 -0.0511  0.1659
76042W        W19136   6.674  31.250   7.982 -0.0935 -0.0249 -0.2247
76043W        W19137   5.152  30.625   8.853 -0.2191  0.1251 -0.0328
76044W        W19138   4.407  31.136   9.754  0.2353 -0.0956 -0.1413
76045W        W19139   3.539  27.921   9.275  0.3144 -0.2335 -0.2555
76046W        W19140   8.924  32.156   8.575 -0.2813  0.0631 -0.0919
76047W        W19141   6.036  29.455  10.139  0.2598  0.2164  0.0779
76048W        W19142   6.222  33.529   8.352 -0.0147 -0.1754 -0.1571
76049W        W19143   6.843  31.266   9.561 -0.1191  0.0922  0.1106
76050W        W19144   7.796  32.966   9.891 -0.1998 -0.1626 -0.2310
76051W        W19145   4.417  32.217  10.300  0.3687  0.1322  0.1998
76052W        W19146   6.716  31.890  10.317  0.0286 -0.1135 -0.2268
76053W        W19147   8.265  33.260   9.108  0.0343  0.4745 -0.0911
76054W        W19148   4.873  29.216   9.119 -0.1865 -0.0141 -0.2075
76055W        W19149   5.374  31.212   9.543 -0.1402  0.5077 -0.1688
76056W        W19150   4.478  31.500   7.992  0.0551  0.0058 -0.1036
76057W        W19151   9.361  31.400  10.379  0.0681 -0.0355  0.1820
76058W        W19152   4.395  31.053   7.183  0.0507 -0.5156  0.0410
76059W        W19153   5.157  33.794  11.476 -0.0956  0.0174  0.2122
76060W        W19154   4.118  29.988   7.795 -0.3339 -0.0578 -0.3025
76061W        W19155   5.353  32.137   8.731  0.1776 -0.1666  0.0318
76062W        W19156   6.543  33.313   8.980  0.2044  0.0052 -0.2907
76063W        W19157   7.978  32.577   9.539  0.2151  0.0588 -0.1034
76064W        W19158   5.752  29.886   8.492 -0.0444 -0.1501 -0.0175
76065W        W19159   7.018  32.342  10.472 -0.3265  0.0760  0.2257
76066W        W19160   5.574  28.700   9.626 -0.1562  0.0263  0.1440
76067W        W19161   7.077  30.370  10.053  0.3220  0.0837  0.2423
76068W        W19162   7.675  30.075   7.446 -0.0629  0.0897 -0.0334
76069W        W19163   5.151  30.509   9.335 -0.2609 -0.1323  0.3251
76070W        W19164   3.292  30.664   7.079  0.2618 -0.0540  0.1977
76071W        W19165   4.109  30.637   7.385  0.0143  0.0968 -0.2888
76072W        W19166   4.026  31.417   9.528  0.1275 -0.1120 -0.0603
76073W        W19167   3.834  29.911   8.488 -0.0734 -0.2156  0.0941
76074W        W19168   4.179  30.804   9.445  0.0944 -0.1009  0.1481
76075W        W19169   8.172  31.924   8.891  0.3019 -0.0575  0.1031
76076W        W19170   3.653  28.977   9.812  0.0419 -0.1371 -0.0822
76077W        W19171   3.972  30.012   9.184 -0.2307  0.1626 -0.1741
76078W        W19172   7.128  31.864   8.772  0.1752 -0.1326 -0.0466
76079W        W19173   7.352  31.424   9.579  0.0804  0.2224  0.0221
76080W        W19174   5.442  29.117   8.351  0.2075  0.0439  0.1532
76081W        W19175   4.860  31.284   9.617 -0.1675  0.1291 -0.0645
76082W        W19176   4.061  28.811   6.722 -0.3098  0.1540 -0.0549
76083W        W19177   5.882  28.880   9.254  0.2640  0.2121 -0.4466
76084W        W19178   7.793  32.127   9.456  0.1106  0.0188 -0.0195
76085W        W19179   7.369  31.336   9.065  0.2885 -0.0417 -0.0104
76086W        W19180   4.266  28.362   8.274 -0.3692  0.2584 -0.1033
76087W        W19181   6.761  31.036   8.460 -0.2927 -0.2903  0.0122
76088W        W19182   7.559  32.093   8.689 -0.4196  0.0845  0.0771
76089W        W19183   6.460  30.520   9.720 -0.1406 -0.2139  0.1337
76090W        W19184   5.961  30.325   8.745 -0.1747  0.1756 -0.1152
76091W        W19185   6.705  32.774  10.169 -0.0514 -0.0967  0.1362
76092W        W19186   5.040  29.631   8.984 -0.0853  0.1065 -0.3915
76093W        W19187   7.552  30.353   9.112 -0.0857 -0.2079  0.1639
76094W        W19188   7.224  31.513   7.962 -0.0072 -0.1535 -0.0055
76095W        W19189   4.713  30.312   8.902 -0.0940  0.0124 -0.0810
76096W        W19190   5.894  29.960   7.849  0.1711 -0.4753  0.0270
76097W        W19191   5.535  32.389   9.761 -0.2506  0.0473  0.0599
76098W        W19192   6.462  31.066   8.947  0.1527  0.3913  0.1149
76099W        W19193   7.908  32.875   9.131  0.2134 -0.1356  0.3307
76100W        W19194   7.214  32.027  11.270  0.0902  0.0087  0.0192
76101W        W19195   5.810  31.363   9.301 -0.2088  0.0437  0.1335
76102W        W19196   7.061  31.971  10.754 -0.2927 -0.3004  0.1549
76103W        W19197   4.368  28.067   9.298 -0.3112  0.1969  0.1015
76104W        W19198   5.336  29.864  10.451  0.1596 -0.0556  0.1754
76105W        W19199   4.975  29.332   8.470  0.4295  0.2804 -0.0054
76106W        W19200   7.584  30.240  10.076  0.2176  0.1952 -0.0052
76107W        W19201   3.610  29.047   9.351  0.0433 -0.4414  0.0485
76108W        W19202   4.578  29.294   7.600  0.3690  0.1063 -0.1047
76109W        W19203   5.473  30.270  10.093  0.3304  0.0497  0.1448
76110W        W19204   5.871  31.160   9.736 -0.1254 -0.1686  0.1868
76111W        W19205   6.351  34.676   0.671  0.0530  0.0059  0.0595
76112W        W19206   7.759  33.763   0.962 -0.0028 -0.6585  0.1198
76113W        W19207   7.185   1.064  31.533 -0.2543 -0.3025 -0.0398
76114W        W19208   4.533  34.046   2.024  0.2330  0.0888  0.0788
76115W        W19209   3.324  33.032   2.406  0.2366  0.1524  0.1320
76116W        W19210   7.062  32.818   0.153  0.2334  0.0370 -0.3279
76117W        W19211   5.426  34.588   3.092  0.1353  0.1588  0.1144
76118W        W19212   6.764  33.168   0.394 -0.0033 -0.0039  0.1726
76119W        W19213   3.604  33.469   1.465  0.0427 -0.2946 -0.0997
76120W        W19214   7.193   0.220   1.890  0.2458 -0.2725  0.0028
76121W        W19215   4.332  34.261   0.681  0.0359  0.1005 -0.0832
76122W        W19216   4.645   0.953   1.667 -0.0176  0.0172  0.3086
76123W        W19217   6.168  33.611  31.432 -0.2347  0.3268 -0.1534
76124W        W19218   6.273  33.129   2.933 -0.3875  0.0651 -0.1786
76125W        W19219   6.233  33.071   4.512 -0.2309 -0.2200  0.0298
76126W        W19220   3.301   2.549   1.069  0.1148  0.0917  0.0147
76127W        W19221   5.222   1.248   2.314  0.0105 -0.1069  0.1620
76128W        W19222   4.936  34.445   2.983 -0.2272 -0.3525 -0.1491
76129W        W19223   6.580  33.092   1.402  0.2650  0.1309 -0.2397
76130W        W19224   6.945  34.553  31.879 -0.0422 -0.1065  0.1874
76131W        W19225   6.543  33.853   3.224 -0.1083  0.0481 -0.0615
76132W        W19226   5.683  34.383   3.471 -0.2283  0.2790  0.1315
76133W        W19227   5.203  34.191   1.261 -0.1589 -0.0025 -0.0397
76134W        W19228   8.808  33.393   4.731  0.0830 -0.0405 -0.1848
76135W        W19229   5.616  33.796  31.406  0.0215  0.0453  0.1635
76136W        W19230   4.680  33.165   0.444 -0.1712 -0.1565 -0.1279
76137W        W19231   6.290  33.499   1.222 -0.1681  0.1074 -0.0037
76138W        W19232   5.961  33.611   2.143  0.1663 -0.0286 -0.1925
76139W        W19233   4.759  34.548   2.319  0.1993 -0.2179  0.0824
76140W        W19234   5.546  34.402   0.305  0.1619 -0.1430  0.0271
76141W        W19235   5.944  33.255   2.552 -0.1183  0.2388  0.3685
76142W        W19236   3.070   0.654   2.703 -0.1766  0.4699  0.3140
76143W        W19237   3.795   0.747   1.834 -0.0095  0.0772  0.0538
76144W        W19238   5.537  34.641   4.257 -0.0743  0.0190 -0.0954
76145W        W19239   3.962   0.406   2.910 -0.5245  0.0522 -0.2257
76146W        W19240   5.821  32.513   0.406 -0.0841 -0.1386  0.2087
76147W        W19241   7.576  32.815   2.292  0.0032  0.0967  0.1617
76148W        W19242   7.024  32.917   1.613 -0.0787  0.1662 -0.1137
76149W        W19243   7.248  32.759   3.456 -0.2781 -0.1039 -0.1556
76150W        W19244   6.537  34.323   1.585 -0.2021  0.2772 -0.1048
76151W        W19245   4.515  34.409   3.239  0.0322 -0.5094 -0.1195
76152W        W19246   4.192   0.293   2.294  0.0296  0.1268 -0.0329
76153W        W19247   7.637  32.424   1.482 -0.1380 -0.2154  0.1314
76154W        W19248   5.517  33.355   2.245  0.2342 -0.2737 -0.2748
76155W        W19249   5.975  33.557   1.654 -0.2057 -0.3158 -0.0069
76156W        W19250   8.025  33.257   0.694 -0.1149  0.0687  0.0424
76157W        W19251   3.629  34.031   2.851  0.1554 -0.2551 -0.3395
76158W        W19252   3.705   0.194   2.042  0.4029 -0.0715 -0.0318
76159W        W19253   3.851  32.975   4.497  0.2047 -0.1491 -0.0104
76160W        W19254   3.743  33.793   1.088  0.1006 -0.1086 -0.3861
76161W        W19255   6.688  34.028   2.723  0.0940 -0.0280  0.2778
76162W        W19256   5.240  34.502  31.863  0.1295  0.2673  0.2045
76163W        W19257   6.943  34.451   2.405  0.1031  0.0266 -0.0486
76164W        W19258   5.140   0.184   1.672  0.0297  0.0174 -0.1016
76165W        W19259   6.590  32.554   4.496 -0.0790  0.2861 -0.0730
76166W        W19260   4.025  34.408   2.937 -0.0955  0.7070 -0.0239
76167W        W19261   4.448  34.567   0.233 -0.1215 -0.3867 -0.2334
76168W        W19262   5.628  34.057  31.935 -0.1169 -0.2774  0.3683
76169W        W19263   6.587  33.856   2.288 -0.2846  0.2902  0.1646
76170W        W19264   4.782  33.616   1.716  0.4099  0.1210 -0.0242
76171W        W19265   3.491   0.762  31.954  0.2228 -0.1931 -0.1983
76172W        W19266   2.479  33.177   1.168 -0.1620 -0.0048 -0.1011
76173W        W19267   7.297  33.629   2.045 -0.0278 -0.0644 -0.3752
76174W        W19268   3.433  34.303   4.436  0.0583  0.3002 -0.0200
76175W        W19269   6.101  33.616   3.103 -0.2738 -0.1705 -0.1915
76176W        W19270   5.353   0.101   0.569 -0.4310  0.0375 -0.2388
76177W        W19271   6.879  33.325   0.964 -0.3291  0.0765 -0.0707
76178W        W19272   7.678  33.705   1.641  0.1383  0.0833 -0.1098
76179W        W19273   6.464  31.765   0.888 -0.0045  0.2568 -0.0665
76180W        W19274   7.040  33.390   0.009  0.0988  0.4208  0.0289
76181W        W19275   5.760  32.677  31.744 -0.0629 -0.0015  0.1921
76182W        W19276   5.281  34.094   2.799 -0.0504  0.1818  0.3439
76183W        W19277   5.173  33.469  30.853  0.3741 -0.1508 -0.2234
76184W        W19278   6.150  32.062   1.584  0.0375 -0.2690  0.2094
76185W        W19279   6.760  33.087   2.792 -0.1739 -0.3234 -0.1039
76186W        W19280   5.727  34.075   1.613 -0.0654 -0.2372  0.2915
76187W        W19281   5.139  33.067   3.136 -0.2533 -0.0440  0.2072
76188W        W19282   7.425  33.662   4.286 -0.0168 -0.3095 -0.0320
76189W        W19283   7.658   0.277   0.483 -0.1916 -0.1658  0.1045
76190W        W19284   6.340  33.904   1.782 -0.4203 -0.0881  0.1371
76191W        W19285   4.722  34.168  31.322 -0.1548 -0.1633 -0.1204
76192W        W19286   5.073  33.454   3.396 -0.0534  0.1339 -0.2046
76193W        W19287   5.820  32.980   3.050  0.0331 -0.0632  0.0121
76194W        W19288   5.807  33.290   1.289  0.2180 -0.2194  0.1662
76195W        W19289   4.842  31.533   1.423 -0.1685 -0.2810  0.0454
76196W        W19290   6.770  32.654   2.422 -0.1281  0.0185 -0.1905
76197W        W19291   4.792  33.648   0.205  0.2695  0.2027  0.0336
76198W        W19292   3.419  34.100   0.626 -0.0085  0.0367  0.0486
76199W        W19293   6.871   0.012   1.509 -0.0339 -0.0166 -0.2135
76200W        W19294   4.736  33.634   2.211  0.0075  0.3539  0.0569
76201W        W19295   5.674  33.898   3.106 -0.1547  0.2147 -0.0493
76202W        W19296   6.488  34.510   3.449 -0.0860  0.1169 -0.1679
76203W        W19297   5.518  32.876  31.335 -0.4047 -0.1123 -0.0129
76204W        W19298   5.688  34.544   5.097 -0.1849  0.1812  0.0816
76205W        W19299   3.904  33.614   2.703  0.0311 -0.2805 -0.0003
76206W        W19300   6.481  33.077   2.427 -0.1985 -0.1884 -0.0627
76207W        W19301   4.576  34.036   1.468  0.2125  0.1457 -0.0197
76208W        W19302   3.976   0.501  31.780 -0.1650  0.1566  0.1756
76209W        W19303   4.488   0.019   3.728 -0.0810  0.1406  0.2436
76210W        W19304   6.058  34.412   1.786  0.0703  0.2597 -0.0717
76211W        W19305   6.298  33.439  31.848  0.2900  0.4087 -0.1519
76212W        W19306   6.024  34.312   0.823 -0.0063  0.0293 -0.2446
76213W        W19307   6.779   0.550   2.105  0.1898 -0.2501  0.0731
76214W        W19308   5.957  32.469   1.787 -0.1794 -0.2420  0.0497
76215W        W19309   6.632  34.127   3.710  0.0151  0.0555  0.1383
76216W        W19310   5.665  33.619   2.643  0.1087 -0.1471 -0.1192
76217W        W19311   7.579  31.998   0.037  0.0812 -0.1953 -0.2745
76218W        W19312   5.501  34.002   2.292  0.2423 -0.0276 -0.3077
76219W        W19313   7.205  33.112   3.861 -0.0877 -0.0260 -0.0658
76220W        W19314   5.934  34.433   1.295  0.3662 -0.1030 -0.1635
76221W        W19315   7.264  32.604   4.064  0.0374  0.0881 -0.0252
76222W        W19316   4.217  34.526   2.153  0.1496  0.0298 -0.2629
76223W        W19317   5.463   0.433   2.819 -0.1825  0.0164  0.0938
76224W        W19318   5.004   0.209   2.827 -0.2361 -0.0313 -0.6040
76225W        W19319   6.062  32.162   0.848  0.1536 -0.0985  0.1685
76226W        W19320   4.755  33.684  30.884  0.2386  0.1304  0.3706
76227W        W19321   4.590   0.521   3.677 -0.1503 -0.0934 -0.1325
76228W        W19322   7.065  34.425   1.915  0.1394  0.1367  0.1173
76229W        W19323   5.826   1.879   2.459  0.2140  0.0960 -0.2127
76230W        W19324   4.803  34.090   0.965  0.3887 -0.2884  0.0468
76231W        W19325   4.937  34.608   4.029 -0.3375  0.2420 -0.2352
76232W        W19326   7.118  32.145   1.290 -0.0429 -0.3774  0.0215
76233W        W19327   6.771  32.722   3.674 -0.0024 -0.2173 -0.1113
76234W        W19328   5.023  33.828   3.808 -0.4002  0.0241 -0.1927
76235W        W19329   4.113  32.903   3.751  0.1180  0.0928 -0.2105
76236W        W19330   7.823  33.713  31.328  0.1299  0.0432 -0.0136
76237W        W19331   7.820  33.288   3.664  0.0382 -0.0830 -0.0276
76238W        W19332   5.674  33.370  31.112 -0.0104  0.0183 -0.1190
76239W        W19333   6.513  33.552   0.624  0.0596  0.1774 -0.2270
76240W        W19334   4.994  34.102   2.272  0.1153  0.0783 -0.1009
76241W        W19335   6.537  33.482   4.706 -0.0311  0.1411  0.1263
76242W        W19336   5.218  33.172   0.544  0.0909 -0.1887 -0.2740
76243W        W19337   6.660  33.262   4.250 -0.1467  0.1548  0.0270
76244W        W19338   6.530  34.481   1.084  0.1276  0.0838 -0.0632
76245W        W19339   4.280  33.822   2.411 -0.0690  0.0183 -0.1108
76246W        W19340   5.058  34.202  30.964  0.1242 -0.1899  0.3538
76247W        W19341   5.660   0.579   0.894 -0.3571 -0.3189 -0.0869
76248W        W19342   5.772  33.562  31.858  0.0375  0.1706  0.1095
76249W        W19343   6.515  33.358   3.286  0.0757 -0.1048  0.0268
76250W        W19344   6.835  33.391   1.844 -0.1501 -0.0461  0.2577
76251W        W19345   5.569  32.828   2.367  0.0416  0.1225  0.0403
76252W        W19346   6.556  33.537   2.754  0.1825  0.0808 -0.0660
76253W        W19347   6.625   0.480   1.564  0.0248  0.1404 -0.0288
76254W        W19348   7.133  33.329   3.347 -0.1324 -0.0330  0.2785
76255W        W19349   4.320   0.644   1.946  0.1776  0.0173 -0.0201
76256W        W19350   3.883  33.452   3.642 -0.1717 -0.0738  0.1560
76257W        W19351   4.555  33.179  31.956 -0.3419 -0.1075 -0.1773
76258W        W19352   6.188  33.043   0.326 -0.1904 -0.0264  0.3187
76259W        W19353   7.179  32.842  31.617  0.2311 -0.0414  0.0628
76260W        W19354   8.379  32.411   0.940  0.2249  0.0511  0.1286
76261W        W19355   7.349  33.330   1.613 -0.2468 -0.0062  0.0737
76262W        W19356   4.971  34.422   3.456 -0.1048  0.1047 -0.0573
76263W        W19357   6.082  33.761   0.791  0.1690 -0.3154 -0.3067
76264W        W19358   3.702  33.875   4.657 -0.2312 -0.0852  0.3330
76265W        W19359   7.929  33.644   4.043  0.0716 -0.1288 -0.0160
76266W        W19360   5.632  34.087   0.972  0.0785 -0.1734  0.3304
76267W        W19361   5.852   0.059   0.567 -0.1994  0.2682 -0.0324
76268W        W19362   8.015  32.891   3.479 -0.0768 -0.1138 -0.1091
76269W        W19363   6.196  33.131   1.693 -0.1127  0.0514 -0.0775
76270W        W19364   4.768  34.100   0.466 -0.0439  0.2214 -0.3249
76271W        W19365   7.622  32.982   2.756 -0.1463 -0.0179  0.2166
76272W        W19366   5.971   0.709   2.822  0.2742 -0.2697  0.2190
76273W        W19367   5.951  32.463   3.053  0.1355  0.1602  0.1587
76274W        W19368   5.276   1.208   2.893  0.2152 -0.0330 -0.1050
76275W        W19369   6.889  33.906   1.882 -0.2269  0.1211  0.2227
76276W        W19370   4.803  33.973   3.219 -0.1792  0.3558  0.3226
76277W        W19371   6.019   0.766   0.028 -0.1661 -0.1358  0.1322
76278W        W19372   6.949  33.664   2.989 -0.2556  0.0037 -0.4153
76279W        W19373   6.694  33.077  31.887  0.2485  0.2818 -0.0730
76280W        W19374   4.442  33.100   1.927  0.1667  0.2276  0.0449
76281W        W19375   7.629  32.938   0.728  0.2909  0.0896 -0.2361
76282W        W19376   2.792   0.856   2.233  0.3226  0.1515 -0.4864
76283W        W19377   5.785  34.207   2.646 -0.1840  0.1905  0.0618
76284W        W19378   5.427  33.335  31.566  0.0257  0.2735  0.2117
76285W        W19379   6.562  34.267   2.047  0.3367  0.1422 -0.0587
76286W        W19380   7.197  33.685   1.309  0.0188 -0.0516  0.0128
76287W        W19381   3.840   0.038   2.563 -0.0464 -0.1882  0.0055
76288W        W19382   7.350  33.014   1.122  0.3490  0.0029 -0.2354
76289W        W19383   3.831   1.927   2.398  0.2070 -0.0279 -0.1697
76290W        W19384   6.903  33.353   2.376  0.0741 -0.2099 -0.1369
76291W        W19385   6.093  32.728   2.580  0.0048  0.0700  0.2251
76292W        W19386   6.738  33.205   3.671  0.2886 -0.2121  0.1261
76293W        W19387   5.291  33.702   1.202  0.2079  0.1665  0.0761
76294W        W19388   5.892  33.802   1.258  0.1039 -0.2262  0.0723
76295W        W19389   7.374  32.030   1.748  0.3269  0.2377  0.0368
76296W        W19390   7.511  31.187   1.338 -0.1164 -0.0169  0.0548
76297W        W19391   5.878   0.301   3.366  0.2614 -0.1156  0.0713
76298W        W19392   4.984   1.363   1.632 -0.1357  0.0664  0.0975
76299W        W19393   5.420  33.012   3.551 -0.2919 -0.0856  0.0349
76300W        W19394   4.603  34.459   4.297  0.1525 -0.1745  0.1769
76301W        W19395   5.818   0.009   2.686 -0.1153  0.2207  0.1577
76302W        W19396   6.118  34.387   0.327  0.0490  0.0702 -0.0294
76303W        W19397   5.052  33.259   1.410 -0.0214 -0.3196 -0.0767
76304W        W19398   3.804   0.573   2.338  0.0982 -0.3230  0.2045
76305W        W19399   8.130  33.415   1.618  0.0144 -0.2600 -0.0333
76306W        W19400   5.583  33.307   4.012 -0.2743  0.0678 -0.0433
76307W        W19401   6.527  34.670   4.523 -0.0132 -0.0381  0.1366
76308W        W19402   4.884  32.944  30.097 -0.2582  0.3552  0.3889
76309W        W19403   6.712   0.053   2.067 -0.1228 -0.1527  0.2185
76310W        W19404   3.885  32.477   2.907 -0.3612  0.1032 -0.0093
76311W        W19405   8.315  33.817   3.725  0.1014  0.0639 -0.1754
76312W        W19406   7.722  33.333   1.246 -0.1333 -0.1035 -0.1181
76313W        W19407   3.474  33.055   3.785  0.0749  0.0502  0.1735
76314W        W19408   6.062  33.557   0.354  0.0326 -0.0248 -0.0909
76315W        W19409   7.365  33.093   0.382  0.2818  0.0175 -0.2081
76316W        W19410   5.557   0.865   3.174  0.1029 -0.0888  0.2483
76317W        W19411   6.136  33.236  31.014  0.0175  0.2497 -0.0897
76318W        W19412   6.100  34.636   3.686 -0.2844 -0.2263 -0.1145
76319W        W19413   5.721  33.972   0.490  0.0492  0.1821 -0.0874
76320W        W19414   7.380  34.077   1.731 -0.0605 -0.1822 -0.0968
76321W        W19415   4.961  34.286   1.740 -0.0453 -0.1902  0.3181
76322W        W19416   5.205   0.655   0.611  0.1010  0.2423 -0.1029
76323W        W19417   5.717   1.273   2.383 -0.0269  0.0995 -0.0880
76324W        W19418   8.099  33.826   2.801 -0.0691  0.1589  0.4519
76325W        W19419   5.333  34.511   2.039  0.2049  0.1954 -0.0344
76326W        W19420   5.475  32.319   1.568  0.2266 -0.0124  0.5288
76327W        W19421   4.631  34.444   5.653  0.1364  0.2816 -0.0345
76328W        W19422   6.184  33.856   4.279  0.1402 -0.1183  0.0983
76329W        W19423   7.573  34.045   5.754 -0.2456  0.0505  0.1287
76330W        W19424   2.574  32.920   5.638  0.2579 -0.3301  0.1216
76331W        W19425   4.173  32.338   6.543 -0.0464  0.1734  0.1211
76332W        W19426   5.809   0.066   4.642 -0.1126 -0.1438  0.0979
76333W        W19427   5.886  33.776   7.318 -0.1553  0.2686  0.2614
76334W        W19428   5.194  32.840   4.791 -0.0744  0.0577 -0.0288
76335W        W19429   4.884  32.889   6.218 -0.0432 -0.3280 -0.0244
76336W        W19430   8.197  34.394   7.295 -0.0207 -0.5745 -0.1320
76337W        W19431   4.487   0.755   5.395  0.0819 -0.4765 -0.1425
76338W        W19432   5.118  32.390   6.411  0.0217 -0.3467  0.0466
76339W        W19433   3.633   0.410   4.648 -0.2231 -0.3694 -0.3130
76340W        W19434   5.668  32.574   6.627 -0.1720 -0.1279 -0.1364
76341W        W19435   5.454  32.580   8.727  0.0188  0.3282  0.2708
76342W        W19436   4.198  33.471   4.609 -0.0611 -0.2554 -0.2808
76343W        W19437   4.666  33.694   6.397 -0.0153  0.1383 -0.1005
76344W        W19438   4.157  33.103   4.986  0.1611  0.0207 -0.0187
76345W        W19439   7.172  33.964   6.114  0.1903 -0.0280 -0.2559
76346W        W19440   5.947   0.061   6.723  0.1385  0.1459 -0.0137
76347W        W19441   6.514  32.960   7.474  0.0929 -0.1283  0.1641
76348W        W19442   5.800  34.423   7.194  0.0355 -0.0906  0.0637
76349W        W19443   5.947  32.856   5.355 -0.3324  0.1387 -0.2788
76350W        W19444   7.285  32.925   7.829 -0.2267  0.0393  0.2272
76351W        W19445   6.439  34.008   4.719 -0.1588  0.1142  0.1990
76352W        W19446   5.133  34.674   5.043  0.0973 -0.2507 -0.1711
76353W        W19447   6.498  32.822   4.089  0.1579  0.0824  0.0628
76354W        W19448   5.331  31.201   4.350 -0.0184 -0.0585  0.0424
76355W        W19449   5.467  32.000   6.361  0.1335  0.2678  0.0070
76356W        W19450   6.027  34.267   4.563  0.0733  0.0672  0.2349
76357W        W19451   5.547   0.022   6.164  0.2372 -0.3029  0.0079
76358W        W19452   3.540   0.276   5.154 -0.1900  0.1378 -0.0236
76359W        W19453   4.700  34.160   6.166  0.3044  0.0217  0.0325
76360W        W19454   4.779   0.580   6.839  0.1815 -0.0893 -0.0021
76361W        W19455   5.191  33.831   6.137  0.2320 -0.3306 -0.2181
76362W        W19456   4.612  33.509   3.672  0.0998  0.0194  0.1809
76363W        W19457   6.961  33.394   5.505 -0.1872 -0.0918  0.0571
76364W        W19458   6.088  33.447   5.489 -0.3314  0.2511  0.0935
76365W        W19459   7.384  33.044   7.023 -0.0532 -0.0308  0.0486
76366W        W19460   7.393  34.454   4.327 -0.0741 -0.0992  0.2513
76367W        W19461   5.850  34.314   6.430 -0.1693  0.1828  0.0960
76368W        W19462   3.833  33.269   6.717  0.0409 -0.1147 -0.2454
76369W        W19463   6.190  32.128   4.229  0.1668 -0.5155 -0.0692
76370W        W19464   5.652  31.578   6.611  0.0571  0.2056 -0.1021
76371W        W19465   5.405  32.245   4.680  0.0561 -0.1641 -0.2744
76372W        W19466   7.108  32.120   3.698 -0.1114  0.1133 -0.0766
76373W        W19467   3.257  34.267   7.439  0.1616 -0.1072 -0.0332
76374W        W19468   5.659  32.858   5.752 -0.1486  0.1250 -0.4032
76375W        W19469   5.638  34.257   8.245 -0.3084  0.0881 -0.2418
76376W        W19470   4.420  32.560   4.570  0.0121 -0.0082 -0.1775
76377W        W19471   8.281  33.903   7.454 -0.4281  0.2784 -0.4426
76378W        W19472   3.282  34.018   3.358  0.0656 -0.1190  0.0419
76379W        W19473   5.720  33.796   6.219 -0.0664  0.0753  0.3373
76380W        W19474   5.635  33.955   4.383 -0.1708 -0.0401 -0.0085
76381W        W19475   7.804  33.518   7.230  0.0474 -0.1679 -0.3305
76382W        W19476   4.858  34.078   7.505 -0.2278  0.2587 -0.2157
76383W        W19477   4.271  33.310   5.482  0.2965  0.1288  0.3114
76384W        W19478   5.500  34.349   4.665  0.1936  0.3153 -0.1929
76385W        W19479   6.811  33.362   7.564  0.2207  0.1965  0.1446
76386W        W19480   5.529  33.857   5.594  0.7601  0.2591  0.3310
76387W        W19481   3.935  34.309   4.622  0.0438 -0.1117 -0.3016
76388W        W19482   3.384  34.050   5.037  0.2109  0.0514 -0.1670
76389W        W19483   6.712  32.571   6.456 -0.0121 -0.0574 -0.0514
76390W        W19484   4.669  34.486   8.515 -0.4166 -0.1369 -0.3641
76391W        W19485   6.255  34.647   6.300 -0.3211 -0.1059 -0.0954
76392W        W19486   5.151   0.099   4.520  0.1024 -0.0231  0.4436
76393W        W19487   5.317  32.206   5.163 -0.2206  0.0995  0.0365
76394W        W19488   7.694  32.288   5.508  0.0017  0.2255 -0.1424
76395W        W19489   6.135  33.170   5.001 -0.2285 -0.2831 -0.1048
76396W        W19490   5.042  33.115   5.261 -0.0522  0.2536  0.1150
76397W        W19491   5.755  34.054   4.921  0.1535 -0.0864 -0.2099
76398W        W19492   4.983  31.791   6.498 -0.1866 -0.1399  0.4724
76399W        W19493   5.813  34.228   3.965 -0.1414 -0.0857  0.2373
76400W        W19494   4.654  32.539   6.538 -0.0517 -0.0665 -0.0365
76401W        W19495   7.363  33.058   5.875 -0.0075 -0.0882  0.1121
76402W        W19496   6.019  32.583   5.994  0.3347 -0.3385 -0.0766
76403W        W19497   5.448  32.471   7.879  0.1327 -0.2247  0.1199
76404W        W19498   6.940  34.217   7.990 -0.0050  0.0685 -0.1436
76405W        W19499   6.854  34.318   4.589  0.0404  0.0088 -0.0736
76406W        W19500   6.193  33.974   6.189  0.3174  0.0407  0.2766
76407W        W19501   4.779  33.824   4.844  0.3109 -0.1987  0.1079
76408W        W19502   5.519  33.016   6.920  0.0034 -0.2328 -0.2088
76409W        W19503   6.241  34.171   7.305  0.2292  0.2390 -0.1853
76410W        W19504   3.791  34.154   5.475 -0.0783 -0.2476  0.0581
76411W        W19505   5.224  31.722   5.589  0.1027  0.1681 -0.2249
76412W        W19506   6.546  33.266   7.039 -0.0025  0.0260  0.1924
76413W        W19507   5.236  33.601   5.209 -0.1148 -0.1665 -0.0485
76414W        W19508   3.547  33.794   5.716 -0.0936  0.2159 -0.1761
76415W        W19509   6.908  32.507   5.403  0.4203  0.2702 -0.0023
76416W        W19510   4.540  32.659   5.928  0.0243 -0.1378  0.0390
76417W        W19511   5.971  33.391   7.010  0.0919 -0.1146  0.0044
76418W        W19512   6.233   0.648   6.689  0.2871  0.2948 -0.0897
76419W        W19513   6.321  32.894   3.400  0.2547  0.0566  0.0687
76420W        W19514   4.672   0.263   7.201 -0.0213  0.0016 -0.0859
76421W        W19515   3.318  33.617   3.694  0.1508 -0.2553  0.1659
76422W        W19516   7.026  33.956   5.619  0.2180  0.1408 -0.2358
76423W        W19517   5.624  32.060   5.888 -0.2004 -0.0841 -0.1626
76424W        W19518   6.528   0.333   4.030  0.0689 -0.3190 -0.0478
76425W        W19519   5.001  33.603   7.153 -0.0187  0.1468  0.2647
76426W        W19520   7.153  34.474   6.412 -0.0702 -0.5565 -0.0139
76427W        W19521   5.340  32.710   5.335 -0.2705  0.3234 -0.0536
76428W        W19522   5.746  33.467   6.578  0.0846 -0.0774  0.1979
76429W        W19523   5.877  33.936   6.830 -0.3595  0.2782 -0.0973
76430W        W19524   5.980  33.003   6.728 -0.3050 -0.0557  0.1408
76431W        W19525   7.152  33.395   8.576  0.3695 -0.1040  0.1136
76432W        W19526   6.412  33.798   7.018 -0.0054  0.2394  0.0345
76433W        W19527   6.179  33.869   5.213  0.0893 -0.1617  0.1813
76434W        W19528   6.193  33.476   6.086 -0.0656  0.3625  0.0859
76435W        W19529   6.987  34.060   6.589  0.2041  0.0583 -0.1156
76436W        W19530   6.435   0.536   5.050 -0.0153 -0.1247  0.0061
76437W        W19531   5.750  33.052   6.259 -0.2950 -0.0011  0.1266
76438W        W19532   4.798  32.247   6.076  0.0851 -0.0794 -0.2666
76439W        W19533   5.234  33.815   8.041  0.0555  0.0254  0.2876
76440W        W19534   4.157  34.566   6.836  0.3055  0.1028  0.2874
76441W        W19535   5.186  33.531   5.713  0.2780 -0.2060  0.0004
76442W        W19536   5.159  33.682   4.287 -0.3362  0.1306 -0.1566
76443W        W19537   4.606   0.158   6.598 -0.0714 -0.0008 -0.1515
76444W        W19538   6.610  33.610   5.215 -0.1164  0.1214  0.1985
76445W        W19539   3.958  34.558   5.149 -0.0138 -0.1089  0.1893
76446W        W19540   7.442  34.482   5.567 -0.0112 -0.2368  0.1214
76447W        W19541   5.157  31.257   6.580 -0.3916  0.1407 -0.2222
76448W        W19542   5.312  32.872   6.465  0.1761  0.1435  0.1373
76449W        W19543   8.008  32.960   7.090 -0.1603 -0.0369 -0.1879
76450W        W19544   6.649  34.324   7.046 -0.0941 -0.2305  0.4365
76451W        W19545   6.260  34.653   7.164  0.2321  0.0896 -0.0909
76452W        W19546   5.144  33.458   6.646 -0.2589 -0.1687  0.0414
76453W        W19547   7.516  34.073   4.049 -0.0468 -0.1821 -0.3341
76454W        W19548   7.704  34.514   7.093  0.0309 -0.2325  0.0579
76455W        W19549   6.726  33.055   4.734 -0.3845 -0.1035 -0.0631
76456W        W19550   7.007   0.503   5.046  0.2619  0.0374 -0.2348
76457W        W19551   4.984  33.069   6.910  0.2867  0.1318 -0.0540
76458W        W19552   8.293  34.329   8.373 -0.0443  0.0855  0.1797
76459W        W19553   4.973  32.594   5.745  0.0668  0.0121  0.3259
76460W        W19554   7.274  31.880   6.527  0.0733 -0.5367  0.3246
76461W        W19555   6.497  33.118   5.340  0.1087  0.0694  0.1220
76462W        W19556   4.156  34.529   6.327  0.3179  0.0895  0.0213
76463W        W19557   5.227  34.189   4.250  0.0558  0.3463  0.0362
76464W        W19558   5.523  33.692   3.589  0.0390 -0.0370 -0.2728
76465W        W19559   6.266  33.183   3.862 -0.0113 -0.0677  0.4719
76466W        W19560   7.431  34.094   7.290  0.0282  0.0994 -0.3971
76467W        W19561   5.651  32.646   4.952 -0.0822 -0.1100  0.0586
76468W        W19562   6.304  33.484   7.423  0.0354 -0.0224 -0.2332
76469W        W19563   6.911  34.457   5.490  0.1390  0.0503 -0.0034
76470W        W19564   6.659  33.626   6.206  0.0997  0.1581  0.3141
76471W        W19565   8.225  33.551   8.452 -0.1591 -0.1323 -0.2156
76472W        W19566   3.896  34.110   6.556 -0.0848  0.0695  0.0342
76473W        W19567   4.516  33.619   6.912 -0.2595 -0.0551  0.2798
76474W        W19568   4.594   0.051   6.103  0.1852 -0.3419 -0.1639
76475W        W19569   5.162  34.386   5.967  0.0792 -0.0506 -0.0677
76476W        W19570   7.439  32.984   4.669 -0.0754  0.0829  0.3155
76477W        W19571   7.303  33.691   5.240  0.0841 -0.1030 -0.1668
76478W        W19572   7.363  32.406   6.070 -0.0449  0.1209  0.3045
76479W        W19573   4.863  34.382   6.567  0.1627 -0.1581  0.2905
76480W        W19574   4.775  33.939   4.288 -0.2364  0.1131 -0.1200
76481W        W19575   5.029  32.713   7.282 -0.0212 -0.4246  0.1536
76482W        W19576   5.741  33.709   8.162  0.0331  0.0456  0.1517
76483W        W19577   3.814  33.969   3.810  0.0280  0.2361 -0.3531
76484W        W19578   5.614  33.460   5.930 -0.1149 -0.0188  0.0156
76485W        W19579   7.802  33.279   6.780 -0.0835  0.0859 -0.0160
76486W        W19580   6.807  33.588   6.669  0.1293  0.2194 -0.0902
76487W        W19581   3.552  33.362   4.805 -0.1184 -0.3970 -0.1907
76488W        W19582   6.159  32.545   4.888 -0.0012  0.0170 -0.0898
76489W        W19583   4.740  33.504   8.256  0.1320 -0.1883 -0.1724
76490W        W19584   8.154  32.831   7.617  0.2734  0.0980 -0.0142
76491W        W19585   5.815  34.235   5.460 -0.1043  0.0033 -0.3891
76492W        W19586   6.166  32.232   5.339  0.0290  0.0738 -0.3301
76493W        W19587   4.391  34.109   6.600  0.3286  0.0311  0.3944
76494W        W19588   5.986  33.618   4.692 -0.0227  0.2110 -0.0875
76495W        W19589   7.371  33.409   8.053 -0.0061  0.1126  0.0086
76496W        W19590   6.051  33.976   3.411 -0.2375  0.0000  0.1802
76497W        W19591   4.622  32.970   5.484 -0.0064  0.1295 -0.1343
76498W        W19592   5.557  33.474   4.471  0.0381  0.0166  0.1408
76499W        W19593   4.161   0.163   5.937  0.1977 -0.4245 -0.0352
76500W        W19594   5.601  34.203   5.958 -0.0239  0.1051  0.1595
76501W        W19595   3.823  31.737   7.273 -0.1816  0.0184  0.4678
76502W        W19596   8.402  34.087   6.967 -0.0577 -0.2459  0.0556
76503W        W19597   5.964  33.848   5.751  0.0255  0.0563  0.2040
76504W        W19598   4.583  32.767   6.977  0.0183 -0.2755  0.3248
76505W        W19599   5.582  31.831   3.722 -0.0383  0.2861 -0.0342
76506W        W19600   5.475  33.548   7.061 -0.1005  0.4267 -0.0199
76507W        W19601   7.372  33.582   5.788 -0.0024  0.1859  0.0532
76508W        W19602   5.357  34.006   7.125 -0.0095  0.0890  0.0748
76509W        W19603   6.377  32.542   7.676  0.1076 -0.1498 -0.1702
76510W        W19604   4.556  33.169   5.940 -0.0732  0.1008 -0.1058
76511W        W19605   4.742  33.563   5.403 -0.1329  0.1190 -0.4712
76512W        W19606   7.173  31.389   4.826 -0.2207 -0.3148  0.0785
76513W        W19607   5.574  31.866   2.966 -0.0373  0.3111  0.0146
76514W        W19608   5.465  34.525   6.828 -0.1968 -0.2167  0.1835
76515W        W19609   4.245   0.101   4.214 -0.1583 -0.0091  0.0136
76516W        W19610   6.463  31.508   9.886 -0.0737 -0.1070  0.1676
76517W        W19611   4.587  33.236   7.853  0.0587  0.0406  0.1183
76518W        W19612   3.435  34.129   6.396 -0.1222 -0.2910 -0.1643
76519W        W19613   4.036  33.724   5.641  0.0662  0.1611  0.0068
76520W        W19614   4.717  34.185   5.178 -0.0931 -0.2597 -0.1469
76521W        W19615   4.178  33.383   6.166 -0.1032 -0.3282 -0.1207
76522W        W19616   4.748   0.160   5.398  0.2441 -0.3000 -0.1410
76523W        W19617   5.440   0.127   8.322  0.1591 -0.0673  0.1969
76524W        W19618   5.707  33.998   7.803 -0.0849  0.1116  0.4144
76525W        W19619   3.257  33.567   5.212  0.0764 -0.0884 -0.0471
76526W        W19620   5.344  34.281   6.381  0.1782 -0.1486 -0.2607
76527W        W19621   4.482  31.928   6.727  0.2577  0.0722 -0.2297
76528W        W19622   8.487  33.905   6.531 -0.0311 -0.0390 -0.2500
76529W        W19623   6.622  34.314   6.034 -0.0435  0.1030  0.2576
76530W        W19624   3.648  31.482   6.646 -0.1377  0.1462 -0.2407
76531W        W19625   4.450  32.700   5.040  0.1012 -0.3079 -0.0862
76532W        W19626   5.789  31.946   4.533  0.0774 -0.4528 -0.0836
76533W        W19627   4.613  33.230   6.583 -0.2438  0.1915  0.3534
76534W        W19628   6.510  33.800   5.686  0.0357 -0.0399 -0.3352
76535W        W19629   5.407  33.867   6.660  0.0098  0.1217  0.0021
76536W        W19630   6.216   0.091   4.942 -0.0671  0.0264  0.2221
76537W        W19631   7.372  34.010   4.671  0.1659 -0.1682 -0.1397
76538W        W19632   3.368  32.137   5.995 -0.2834  0.2015 -0.3668
76539W        W19633   5.643   1.692   5.109 -0.0571 -0.1959 -0.4326
76540W        W19634   6.513   1.029   4.347 -0.1550  0.0694  0.1077
76541W        W19635   7.461  34.101   6.733 -0.0055  0.0990 -0.0051
76542W        W19636   6.081  31.928   6.820  0.0315 -0.1598 -0.2509
76543W        W19637   5.696  32.796   4.025  0.0026  0.0841 -0.0919
76544W        W19638   4.534  33.103   8.504 -0.0726 -0.1057 -0.0656
76545W        W19639   6.979  33.888   7.069  0.2393 -0.1987 -0.0914
76546W        W19640   7.099   0.607   9.174  0.1269 -0.3797  0.1187
76547W        W19641   4.120  32.751   8.507 -0.4251 -0.2114 -0.0950
76548W        W19642   7.066  33.756   8.254  0.1631  0.3001 -0.1259
76549W        W19643   6.685  29.731  10.204  0.0350  0.0305  0.0251
76550W        W19644   4.944  33.002   8.135 -0.0857 -0.1111 -0.1726
76551W        W19645   3.266  31.756   9.166  0.5750 -0.5644  0.0327
76552W        W19646   6.749  34.421  11.321 -0.1811 -0.1735 -0.0439
76553W        W19647   4.771   0.292   9.273  0.2278 -0.2523  0.1485
76554W        W19648   5.969   1.944   9.415  0.0586  0.0521  0.2688
76555W        W19649   5.641   0.246   9.980  0.2984  0.1894 -0.2052
76556W        W19650   7.588  33.270  10.337 -0.4387 -0.0823  0.1205
76557W        W19651   4.743   0.687   8.245  0.0551  0.1379 -0.4098
76558W        W19652   4.555  33.759  10.206 -0.2833 -0.5027  0.0574
76559W        W19653   5.106  31.884  10.275  0.2752 -0.0681  0.1497
76560W        W19654   7.234  33.824   9.792  0.0296 -0.2603  0.2641
76561W        W19655   6.645  33.603  11.563  0.0167 -0.2049  0.2570
76562W        W19656   6.417  33.599  10.872  0.0055  0.2300  0.0912
76563W        W19657   3.892  33.215   8.358  0.1331  0.4808  0.0928
76564W        W19658   7.154  34.399   6.952 -0.0688 -0.0984 -0.3944
76565W        W19659   5.413  33.631   7.544 -0.1255 -0.0802  0.0558
76566W        W19660   7.345  33.776  10.608 -0.1304  0.2568 -0.0479
76567W        W19661   5.828  32.073   7.261  0.0080 -0.0014 -0.0509
76568W        W19662   6.175  33.672   9.399  0.1137 -0.4436  0.0105
76569W        W19663   5.874  33.344   9.188 -0.0935  0.0631 -0.1345
76570W        W19664   5.931  33.370  10.635 -0.2513  0.0714  0.0596
76571W        W19665   4.800  33.973   9.690  0.1089  0.0504 -0.0275
76572W        W19666   4.250  34.198   9.404 -0.1770 -0.3051  0.1158
76573W        W19667   4.870  32.276   8.743 -0.3054  0.0514 -0.1411
76574W        W19668   7.546  32.880   9.419  0.2718  0.2042  0.0179
76575W        W19669   7.565  32.399   9.791 -0.2148  0.3152 -0.0664
76576W        W19670   8.749  31.607  11.054 -0.2006  0.1446  0.0234
76577W        W19671   6.648   0.239   8.023 -0.0262 -0.1650 -0.2149
76578W        W19672   3.104  32.839   9.555 -0.1377 -0.1061 -0.2465
76579W        W19673   6.911  32.514   8.923  0.1370 -0.1450  0.0240
76580W        W19674   6.549  32.276  10.674  0.0545  0.2130  0.0219
76581W        W19675   7.131  33.759   7.614  0.0441 -0.4167 -0.1060
76582W        W19676   5.701  32.989   8.895  0.0971  0.3565  0.0662
76583W        W19677   5.132  31.672   9.819  0.1693  0.0252  0.0212
76584W        W19678   4.191  31.876   8.022  0.0221  0.0743 -0.0189
76585W        W19679   4.256  32.853   6.416  0.1355  0.2265  0.0749
76586W        W19680   7.841  31.968  10.188 -0.2226 -0.0991 -0.1389
76587W        W19681   5.578  33.692  10.087  0.2193 -0.1773 -0.5317
76588W        W19682   5.039  31.111   8.704 -0.0097  0.1543  0.0222
76589W        W19683   5.171  32.553   8.273  0.0767  0.3623  0.1294
76590W        W19684   5.355  33.153   9.294 -0.0806 -0.1867 -0.0668
76591W        W19685   6.461  33.769   9.811 -0.2309  0.1970 -0.0556
76592W        W19686   5.590  33.772   9.004  0.2409 -0.0052  0.1808
76593W        W19687   5.174  34.366   8.401  0.1018 -0.0393 -0.0350
76594W        W19688   7.934  32.490  10.133  0.0060  0.4069 -0.0356
76595W        W19689   5.094  34.339   7.933  0.1332 -0.0185  0.1726
76596W        W19690   7.410  31.972   9.716 -0.2736 -0.1661  0.1159
76597W        W19691   7.020  34.265   7.457 -0.0636 -0.2401 -0.1758
76598W        W19692   7.786  33.096   7.807 -0.0551 -0.1843 -0.0042
76599W        W19693   6.197  33.930   7.722 -0.1261  0.1853  0.0337
76600W        W19694   6.223  34.353   6.774  0.2128  0.0683 -0.2296
76601W        W19695   3.975  32.549   8.958  0.0276  0.1733 -0.0456
76602W        W19696   5.253  32.624   6.880 -0.0339 -0.0694  0.2300
76603W        W19697   6.143  33.607   8.840  0.1269 -0.1380 -0.0089
76604W        W19698   7.587  33.308  10.817 -0.0058  0.0345 -0.0979
76605W        W19699   6.357  30.933   9.437  0.0175  0.3913 -0.2107
76606W        W19700   7.080  32.827   8.293  0.0990 -0.0464  0.1140
76607W        W19701   6.815  33.897  10.671  0.1188  0.4456  0.2531
76608W        W19702   4.970   0.221   8.582  0.0453  0.1080 -0.2388
76609W        W19703   4.547  31.638   9.445  0.1086  0.0011 -0.1339
76610W        W19704   5.309  32.904   7.683 -0.2614 -0.0199  0.0612
76611W        W19705   5.307  33.330   8.318  0.1359  0.0313  0.1108
76612W        W19706   6.274  34.038  10.645  0.0141  0.0002 -0.0576
76613W        W19707   5.419   0.606   8.624 -0.1123 -0.2780 -0.1255
76614W        W19708   5.704   0.897   9.080  0.2825  0.0152 -0.0176
76615W        W19709   7.079  32.360   9.956  0.2389  0.1621 -0.6029
76616W        W19710   3.963  33.344   9.674  0.0247  0.1998 -0.1758
76617W        W19711   6.395  31.025   9.962  0.1579  0.3023 -0.1041
76618W        W19712   6.549  32.131   8.829  0.1116  0.0729 -0.0854
76619W        W19713   4.050  33.992   8.084 -0.2032  0.2159 -0.2154
76620W        W19714   7.735   0.010  11.246 -0.0196 -0.0414  0.0451
76621W        W19715   5.500  32.482  10.287  0.1237 -0.2086 -0.0988
76622W        W19716   5.393   0.575   7.639 -0.3976  0.1415 -0.3962
76623W        W19717   6.727   0.274  11.073  0.1981  0.1727 -0.0250
76624W        W19718   6.307  34.550  10.492 -0.0229 -0.0164 -0.1402
76625W        W19719   4.149  33.491   7.957  0.1888 -0.0562 -0.1935
76626W        W19720   6.224  33.059   8.724 -0.0784  0.0051  0.1729
76627W        W19721   5.866  34.528  10.190  0.0527  0.0579 -0.1835
76628W        W19722   5.968  32.563   9.671 -0.0106 -0.4467 -0.1073
76629W        W19723   6.365  31.960   9.430  0.1538  0.0502  0.0313
76630W        W19724   6.624  32.506   8.434 -0.1484 -0.1647  0.3210
76631W        W19725   5.406  34.169   8.807 -0.2225 -0.0642  0.0831
76632W        W19726   6.047  33.366  11.154 -0.0865 -0.1110 -0.1740
76633W        W19727   5.824  32.312   8.906 -0.1198  0.0639 -0.1400
76634W        W19728   6.857  34.490   8.670 -0.2757 -0.1820  0.1068
76635W        W19729   5.996  32.396   8.021 -0.0310  0.0319  0.0645
76636W        W19730   6.105  32.175   8.523 -0.1106  0.3236  0.0967
76637W        W19731   7.673   0.333  10.880 -0.1827 -0.1612  0.2183
76638W        W19732   2.756  32.123   9.196 -0.1011  0.0719 -0.1288
76639W        W19733   7.404  34.508  10.910  0.0262 -0.2104 -0.2828
76640W        W19734   6.376  32.934   9.813 -0.0111 -0.0501 -0.0627
76641W        W19735   7.849  34.241   7.615 -0.1867 -0.0069 -0.0131
76642W        W19736   8.251   0.211  10.745  0.0890 -0.0619  0.3534
76643W        W19737   6.549  33.822   9.116 -0.1788 -0.0625  0.0806
76644W        W19738   5.687  33.441   8.664  0.0131 -0.1146  0.1973
76645W        W19739   4.824  33.484   9.834 -0.0654 -0.1735 -0.3635
76646W        W19740   6.588  33.676   8.677  0.1569 -0.3531 -0.1731
76647W        W19741   6.864  33.539   9.632  0.1569 -0.0738 -0.3450
76648W        W19742   4.690  34.422   9.424  0.0001  0.0547 -0.3770
76649W        W19743   4.565  34.225   8.915  0.0430 -0.0364  0.0333
76650W        W19744   4.924  33.924   6.783  0.1373 -0.2906  0.1358
76651W        W19745   6.372  33.333   7.888  0.0370  0.0442 -0.0772
76652W        W19746   5.895  32.653   8.498 -0.2559  0.0054 -0.0447
76653W        W19747   4.465  30.606   9.849 -0.1458 -0.1574 -0.2830
76654W        W19748   6.898   0.355  11.521  0.0438  0.3504  0.1282
76655W        W19749   6.336   0.076  10.051 -0.5132  0.2897  0.0487
76656W        W19750   5.708  34.054   9.464  0.5192  0.0243 -0.3068
76657W        W19751   5.183  33.211   7.321 -0.1537 -0.1142 -0.1378
76658W        W19752   5.920  34.460   8.722  0.0369  0.0091  0.0142
76659W        W19753   6.644  33.756   8.020 -0.0351 -0.0595  0.3197
76660W        W19754   7.125   0.185  10.697 -0.0794 -0.0264  0.2062
76661W        W19755   7.394  34.283   9.947 -0.0207  0.0474 -0.1257
76662W        W19756   6.370  32.880   8.210 -0.0305  0.1077 -0.0801
76663W        W19757   4.347  32.322   8.592 -0.1513 -0.2867 -0.1126
76664W        W19758   3.868  32.034   8.777 -0.0158  0.0327  0.2086
76665W        W19759   4.487  33.688   8.912 -0.0797  0.1534 -0.1375
76666W        W19760   5.048  31.239  10.108 -0.0376  0.0112 -0.1748
76667W        W19761   6.759  32.018   9.803 -0.0592 -0.3627  0.1217
76668W        W19762   4.752  32.349   7.473  0.1164 -0.0588  0.1471
76669W        W19763   6.825  34.417  10.807  0.1814  0.1005  0.2703
76670W        W19764   8.427  34.297  10.941 -0.0872 -0.1143  0.0890
76671W        W19765   3.917  33.983   8.686 -0.3665 -0.3228 -0.2451
76672W        W19766   6.721  34.569   9.765  0.3551  0.3338 -0.1083
76673W        W19767   3.514  33.566   9.207  0.2991  0.2158 -0.0203
76674W        W19768   6.754   0.100   7.238  0.2042 -0.2131  0.4897
76675W        W19769   6.494  33.990   6.595  0.2588 -0.0109 -0.1175
76676W        W19770   3.801  31.556   8.253  0.2781 -0.1097  0.2751
76677W        W19771   6.675  34.085   8.388  0.0401 -0.1669  0.2009
76678W        W19772   6.208   0.828   8.908  0.1719 -0.0089 -0.1840
76679W        W19773   7.001  33.554   9.057 -0.2790 -0.1376  0.0599
76680W        W19774   5.765  33.526   9.634  0.2314 -0.0699  0.1321
76681W        W19775   7.712  33.344  11.494  0.2758  0.2771 -0.0661
76682W        W19776   6.869   0.852   9.829  0.2253 -0.4098  0.1328
76683W        W19777   4.045  33.642   9.130  0.0091 -0.1115 -0.1401
76684W        W19778   5.160  33.401   8.933  0.1430 -0.1450  0.0906
76685W        W19779   4.948  32.745   9.125  0.1190  0.1889  0.0047
76686W        W19780   9.881  33.746  11.026  0.0754 -0.0458  0.1195
76687W        W19781   5.310  33.368  10.293  0.0402 -0.2432 -0.1536
76688W        W19782   5.233  32.790   9.585 -0.1161  0.0311 -0.1399
76689W        W19783   8.271  32.659   8.930  0.0669 -0.2297 -0.3145
76690W        W19784   7.062  32.580   9.365 -0.3371 -0.2217 -0.0095
76691W        W19785   6.279  32.581   8.810 -0.2166  0.1673 -0.1192
76692W        W19786   2.979  33.280   8.656  0.0371  0.0526  0.0774
76693W        W19787   4.886  34.601   8.963  0.0672  0.2169  0.0206
76694W        W19788   4.981  32.924   8.622 -0.2038 -0.1908 -0.1777
76695W        W19789   5.429  34.392   9.712 -0.1079  0.0767 -0.2449
76696W        W19790   3.521  33.565   9.826  0.1730  0.0140  0.2379
76697W        W19791   5.928  33.104   8.260  0.1545 -0.0845 -0.2243
76698W        W19792   4.542  33.875   7.980  0.0928  0.4732 -0.1301
76699W        W19793   6.770  33.397  10.555 -0.2571 -0.0291 -0.0419
76700W        W19794   3.214  33.181  10.051 -0.0735 -0.3126  0.2627
76701W        W19795   9.034  33.183  10.866  0.1353 -0.0155  0.1017
76702W        W19796   5.831  34.672   8.024  0.0026  0.3840 -0.1377
76703W        W19797   4.794  32.520   7.932  0.1400 -0.2833  0.1647
76704W        W19798   6.590  33.229   8.451  0.1406 -0.2024  0.0533
76705W        W19799   5.307  33.789   9.570 -0.1872  0.2202 -0.1000
76706W        W19800   6.065  34.048   9.103  0.1664 -0.0033  0.1545
76707W        W19801   5.850  33.945   8.625  0.2780 -0.0133 -0.1688
76708W        W19802   7.076  34.479   9.429 -0.0243  0.2361  0.0494
76709W        W19803   5.448  32.931  10.093 -0.0671  0.1155  0.3534
76710W        W19804   5.003  33.970   8.966  0.0747  0.2761 -0.2077
76711W        W19805   5.419   1.426   7.611  0.0510 -0.0243 -0.1235
76712W        W19806   7.325  32.380  10.969 -0.0854  0.0685 -0.1333
76713W        W19807   3.952  32.442   9.454  0.0533  0.0585  0.2149
76714W        W19808   6.053  32.929   7.792 -0.1954 -0.0273  0.1337
76715W        W19809   7.768   2.080   1.905 -0.0352 -0.0736  0.2862
76716W        W19810   6.850   0.260  31.617  0.2950  0.1090  0.1389
76717W        W19811  11.590  34.617   0.296  0.0214  0.3162 -0.1716
76718W        W19812  12.208   0.666  31.467 -0.0198 -0.1527  0.0166
76719W        W19813   7.304   0.634  31.751 -0.1737 -0.0965  0.0052
76720W        W19814   8.707   2.586   0.889  0.0108 -0.1085  0.0732
76721W        W19815   8.721  33.949   1.684  0.0801  0.1597  0.0219
76722W        W19816   9.212   2.678   1.105 -0.0337 -0.1002 -0.0705
76723W        W19817   9.718   2.989   1.781 -0.1356  0.2447  0.1226
76724W        W19818   9.729   1.817  31.591  0.0063  0.0466  0.0744
76725W        W19819   7.966   1.023   0.906 -0.0860  0.1693  0.0294
76726W        W19820   8.728   2.451   2.475 -0.1833 -0.1909 -0.0068
76727W        W19821   7.281   0.352   0.822  0.0398  0.0808 -0.2371
76728W        W19822   7.060  33.822   2.536  0.2298  0.1430 -0.1386
76729W        W19823   9.801   1.885   1.831 -0.2165  0.1717  0.0476
76730W        W19824   9.073   1.895  31.663 -0.0616  0.0866 -0.2306
76731W        W19825   8.461   0.814   2.496 -0.0944 -0.0421 -0.0698
76732W        W19826   9.120   1.940   0.195  0.0416  0.2280 -0.0624
76733W        W19827   9.520   3.500   1.166  0.0232 -0.1456 -0.1883
76734W        W19828   9.043   0.631   2.723 -0.3605 -0.1311 -0.1648
76735W        W19829   7.907   0.508   3.692 -0.2309 -0.1305  0.0916
76736W        W19830   6.840   3.760   0.879  0.2668  0.0594 -0.0290
76737W        W19831  10.570   2.956   0.484  0.1910  0.3740 -0.0888
76738W        W19832   7.007   1.249   1.122  0.0124  0.3573  0.0010
76739W        W19833   9.034   2.232   0.871  0.0610 -0.0125 -0.2540
76740W        W19834  11.004   1.473   0.840 -0.0257 -0.2146 -0.0470
76741W        W19835  11.126   2.054   1.392 -0.0227 -0.2824 -0.4105
76742W        W19836   7.186   3.227   0.612  0.3342  0.1840 -0.1987
76743W        W19837   9.115   3.345   2.340  0.0329  0.3164 -0.0298
76744W        W19838   9.138   1.927   3.928 -0.0564 -0.0345 -0.2804
76745W        W19839   7.368   2.411   0.648 -0.0894  0.1239  0.0483
76746W        W19840   7.883   2.911   1.213  0.3536 -0.0787  0.1458
76747W        W19841   7.000   2.601   1.211  0.3804  0.1220  0.4415
76748W        W19842  11.373   2.451   1.657 -0.1868  0.3436 -0.3854
76749W        W19843   9.342   3.805   2.422  0.2920  0.0661  0.1510
76750W        W19844   8.623   4.183   2.692  0.1051  0.0462  0.0373
76751W        W19845   7.661   2.322  31.662  0.0396 -0.4442 -0.1989
76752W        W19846   9.379   2.181   3.143 -0.0142 -0.0545  0.1751
76753W        W19847   8.309   3.842   2.919  0.2572 -0.2147 -0.1868
76754W        W19848   9.871   1.697   0.972  0.0228 -0.1682 -0.0274
76755W        W19849   8.977   0.567   0.916 -0.1749 -0.2443 -0.1629
76756W        W19850   9.339   2.379   0.351  0.1271  0.1507 -0.0791
76757W        W19851   9.569   0.640   0.106 -0.1142 -0.0989  0.2519
76758W        W19852   9.631   3.755   4.071 -0.1890  0.1059  0.0054
76759W        W19853   7.437   3.066   2.064  0.1828  0.1078  0.1645
76760W        W19854  10.763   0.360   2.905 -0.0827 -0.1229  0.0071
76761W        W19855   8.682   3.156  31.932  0.1287 -0.1619  0.0746
76762W        W19856  10.273   1.574  30.342 -0.0106  0.0896  0.3124
76763W        W19857   8.010   1.238   0.032  0.0577  0.2082  0.1015
76764W        W19858  12.142   2.049   1.248  0.0457  0.0671  0.2696
76765W        W19859   9.090  34.613   0.232  0.1032  0.2405 -0.0178
76766W        W19860   8.545   3.095   1.022  0.2428  0.1841  0.0697
76767W        W19861   9.432   0.630   1.802 -0.3198  0.1390 -0.0234
76768W        W19862  10.321   1.945   3.163  0.2263  0.0820 -0.3246
76769W        W19863   9.543   1.644   0.459  0.2792 -0.0165 -0.0292
76770W        W19864  11.389   1.136   2.474  0.0376  0.2069  0.0339
76771W        W19865   7.655   2.507   1.042  0.1236 -0.1062 -0.2706
76772W        W19866   7.273   1.223   1.524 -0.3595  0.2190  0.2728
76773W        W19867  11.835   3.434   0.146 -0.1462  0.3059  0.1202
76774W        W19868  10.563   2.957   1.052 -0.1339  0.0221  0.0047
76775W        W19869  10.554   2.150  31.920  0.0142 -0.1396 -0.1345
76776W        W19870   7.124   0.949   0.243  0.0945 -0.0284  0.0431
76777W        W19871   7.683   1.226   4.265 -0.2791 -0.0740  0.0195
76778W        W19872   8.963   1.409   1.820  0.1191  0.0662 -0.0620
76779W        W19873   8.001  34.668   0.620 -0.5388 -0.2942  0.2112
76780W        W19874  11.436   2.808   2.339 -0.3125 -0.2562  0.0502
76781W        W19875   7.973   2.394   3.163 -0.1737  0.0084  0.0318
76782W        W19876  11.948   0.704   1.391  0.1710  0.3156  0.1135
76783W        W19877   8.318   1.785   1.882 -0.1319 -0.0180 -0.0976
76784W        W19878  10.495   2.099   2.662  0.0577 -0.1369 -0.0655
76785W        W19879  11.566   1.673   0.163 -0.2395 -0.0752  0.3553
76786W        W19880  10.770   0.328   0.993 -0.1322 -0.1344  0.0241
76787W        W19881   9.529   1.852   2.703  0.3484 -0.3155 -0.0298
76788W        W19882   9.642   0.442  31.099 -0.1714  0.1027 -0.2319
76789W        W19883   8.190   1.643   0.889 -0.2844 -0.1263  0.2851
76790W        W19884  10.211   4.605   1.178 -0.0125  0.0653  0.0401
76791W        W19885  12.210   2.413   0.340 -0.1887 -0.0195 -0.2136
76792W        W19886   8.716   4.175   1.031 -0.0280 -0.0032 -0.1875
76793W        W19887   8.450  33.918   4.143 -0.1655 -0.1933  0.2252
76794W        W19888   9.337   1.124   3.234  0.0319 -0.1981 -0.0975
76795W        W19889   8.082   2.777  31.422  0.0300 -0.1435  0.0853
76796W        W19890   8.735   2.231   1.941  0.0659  0.0685 -0.2809
76797W        W19891   7.262   2.827   0.336 -0.1317 -0.1580 -0.0069
76798W        W19892   8.454   0.998   2.987 -0.0926 -0.2203 -0.2364
76799W        W19893  10.092   1.716   1.427  0.1817  0.2685 -0.2563
76800W        W19894  11.898  33.259   1.959  0.4168 -0.1170  0.2109
76801W        W19895   8.294   1.307   2.517  0.0623  0.2050 -0.1542
76802W        W19896  11.226  34.636   1.428  0.0917  0.1346  0.1299
76803W        W19897   7.181   1.865   0.495 -0.1661 -0.1108  0.0868
76804W        W19898  10.533   3.428   1.466  0.0260 -0.1375 -0.1990
76805W        W19899  10.956  34.171   1.985 -0.2210  0.2285  0.0995
76806W        W19900  11.963   1.776  31.887  0.1988 -0.2566 -0.0238
76807W        W19901   7.910   1.689   1.619 -0.1615 -0.0295 -0.1721
76808W        W19902   7.716   0.329   2.593  0.1475 -0.0783 -0.2090
76809W        W19903   8.007   0.051   3.654 -0.0641  0.0471 -0.2264
76810W        W19904   7.246   0.433   2.725 -0.3812 -0.0900 -0.0155
76811W        W19905  10.202   2.092   3.857  0.1968 -0.1267  0.0452
76812W        W19906   7.514  33.214  31.862  0.1230 -0.3730  0.0813
76813W        W19907  11.889   0.341   0.204 -0.0020  0.3702  0.0945
76814W        W19908   9.146   1.734   0.724  0.1367 -0.1816 -0.2358
76815W        W19909   6.633   2.751  31.808 -0.1308 -0.1214 -0.3535
76816W        W19910  10.589   0.594   3.325  0.4871 -0.0227  0.1132
76817W        W19911  10.798   1.715   0.477 -0.2697  0.2795  0.0880
76818W        W19912  10.158   2.731   1.886 -0.0994  0.3494 -0.1383
76819W        W19913  10.177   2.637   1.210  0.3147  0.5211 -0.1095
76820W        W19914   9.000   0.917   2.267  0.0856 -0.0163  0.2005
76821W        W19915   7.687   1.165   0.460 -0.1651 -0.1326 -0.1130
76822W        W19916   8.803   2.399   1.391 -0.0013  0.0811 -0.1328
76823W        W19917   7.983   1.931  31.685 -0.0541 -0.1115  0.1999
76824W        W19918  10.066   0.474   0.197  0.3543 -0.1043  0.0049
76825W        W19919  10.243   3.781   1.682  0.2574  0.2683 -0.1608
76826W        W19920   9.816   1.160   0.838  0.1387 -0.0472  0.0330
76827W        W19921   8.506   2.936   2.779  0.2430 -0.0518  0.0435
76828W        W19922   9.357   0.974   3.746 -0.2367  0.1659  0.1776
76829W        W19923  12.343   1.793   2.102  0.3809 -0.0561 -0.0355
76830W        W19924  10.889   2.578   0.812  0.4679  0.0948  0.1036
76831W        W19925   7.403   0.240   0.029 -0.0124 -0.0367 -0.0460
76832W        W19926  10.098   2.980   0.715  0.1017  0.1278 -0.2496
76833W        W19927   8.355   3.705  31.130  0.2515  0.1991 -0.1799
76834W        W19928   7.781   1.160   1.493  0.0440 -0.2297  0.1983
76835W        W19929   7.220   1.348   0.543 -0.2110 -0.0725 -0.1840
76836W        W19930  10.895   0.500   2.048  0.1486  0.0242  0.2642
76837W        W19931   8.184   2.944   4.665 -0.0312 -0.0217  0.2330
76838W        W19932  11.239   1.241   3.281  0.1189 -0.1690 -0.3700
76839W        W19933   8.840   2.350  31.495 -0.0437  0.2594  0.1965
76840W        W19934   8.207   2.318   2.013  0.0957  0.0617  0.1042
76841W        W19935  10.421   0.071   1.966 -0.2088  0.1845  0.1969
76842W        W19936  10.578  34.443  31.110  0.0784 -0.0994 -0.0625
76843W        W19937   9.175   2.298   2.229  0.1806 -0.1440  0.0181
76844W        W19938   9.199   0.102  31.325 -0.0038  0.1403 -0.0608
76845W        W19939  10.225   1.219   0.172 -0.1392 -0.0440 -0.1362
76846W        W19940  10.835   0.338   0.385  0.3845 -0.0230 -0.0420
76847W        W19941   7.699   2.383   3.613  0.2932  0.1783 -0.3868
76848W        W19942   9.510   2.116   0.874  0.1845 -0.1429 -0.1881
76849W        W19943  10.084   2.146   1.066 -0.1829  0.0149 -0.0349
76850W        W19944   9.562   0.643   1.048  0.0675 -0.0553  0.1450
76851W        W19945  10.184   4.232   0.796 -0.0195 -0.1933 -0.1463
76852W        W19946   8.397   2.193   1.553 -0.0002  0.0935 -0.0502
76853W        W19947   8.714   2.543   3.558 -0.0040  0.0566  0.0319
76854W        W19948  10.592   2.397   1.145  0.0025  0.0416  0.1798
76855W        W19949   8.788   1.378   1.366  0.2539 -0.1373 -0.0965
76856W        W19950   9.544   2.082   0.026  0.3354 -0.2045  0.2860
76857W        W19951  11.169   1.564   2.222 -0.2884  0.0415 -0.4155
76858W        W19952   6.894   4.696   0.687  0.0350  0.0381 -0.1113
76859W        W19953  11.043   1.972   0.870 -0.1419  0.5081 -0.3004
76860W        W19954   9.465   1.742   2.153  0.0945  0.2441  0.1260
76861W        W19955   8.407   1.266   1.060  0.0868  0.0712 -0.0389
76862W        W19956  11.460   1.544   3.562  0.1610  0.3193 -0.1136
76863W        W19957  10.727   0.792   0.675 -0.2063  0.1891  0.1195
76864W        W19958   9.422   1.435   0.926 -0.3247 -0.2279  0.1315
76865W        W19959   8.659   2.034  31.942  0.1499 -0.1065 -0.3042
76866W        W19960   8.588   1.085   2.046 -0.2371 -0.2277 -0.2917
76867W        W19961   8.648   1.481   3.214  0.2416  0.0552 -0.0065
76868W        W19962   7.830   3.278   3.742 -0.1251 -0.1599 -0.1141
76869W        W19963   9.568   2.758   2.269  0.2721  0.1040 -0.1085
76870W        W19964  10.710   2.530   0.283  0.2422  0.0051 -0.0134
76871W        W19965   8.855   0.982   3.225 -0.0491  0.1503 -0.0252
76872W        W19966   8.236   0.284   1.330 -0.2207 -0.4633 -0.0660
76873W        W19967   8.584   4.612   0.103  0.1534  0.0467 -0.1215
76874W        W19968   8.705   2.016   0.581 -0.1842  0.0799  0.0787
76875W        W19969   7.906  34.239   1.701  0.0401  0.0566 -0.4080
76876W        W19970   9.314   0.842   0.663  0.0062  0.0667  0.1582
76877W        W19971   9.170   2.406  31.870 -0.0508  0.1764  0.0830
76878W        W19972  10.264   0.984   3.426 -0.0931 -0.0269 -0.3835
76879W        W19973   7.395   4.279   1.304  0.2917  0.2852 -0.0649
76880W        W19974   8.958   0.885   1.762  0.0543 -0.2849 -0.1541
76881W        W19975   7.768   3.276   0.897 -0.1713  0.1431 -0.0837
76882W        W19976   8.596   1.126  31.574 -0.2491 -0.1358  0.1361
76883W        W19977   7.480   1.098  31.917  0.2024 -0.0694  0.0204
76884W        W19978  11.211   0.029   0.834 -0.1457 -0.3769  0.1648
76885W        W19979  11.059   2.014  31.322 -0.0857  0.2254 -0.3023
76886W        W19980   8.068   0.672   2.810  0.1464 -0.1668  0.2642
76887W        W19981  11.479   0.848   1.494  0.0170  0.5912 -0.2468
76888W        W19982   7.008   2.131   3.391 -0.1845  0.1254  0.0131
76889W        W19983  10.281   1.729   1.943  0.0424 -0.3135 -0.0296
76890W        W19984  10.847  34.393   1.520  0.0576 -0.0811  0.2518
76891W        W19985   9.917   1.064   3.062 -0.0280  0.2955 -0.1812
76892W        W19986  10.069   0.485   3.656 -0.1535  0.1023  0.0453
76893W        W19987   8.511   1.953  31.454  0.0326  0.1673  0.1606
76894W        W19988  11.038   0.801   3.028 -0.1343  0.0623 -0.0742
76895W        W19989  10.661   1.242   0.538 -0.1484  0.2613  0.0213
76896W        W19990   6.906   2.515   1.689  0.0149 -0.2232  0.0006
76897W        W19991   8.327   3.234   1.799  0.0011  0.0795  0.0021
76898W        W19992   8.120   2.363  31.850  0.2312  0.0142 -0.1006
76899W        W19993   7.350   3.493  31.432  0.1238 -0.2645 -0.3882
76900W        W19994   7.972   0.980   3.282  0.0905 -0.6098  0.0441
76901W        W19995  11.129   1.025   2.070  0.1957  0.0947  0.1416
76902W        W19996  10.168   0.977   1.772 -0.0494  0.1335 -0.0538
76903W        W19997   8.536   0.530   1.799  0.1753  0.2210  0.0276
76904W        W19998   9.338   0.386   2.286 -0.0699  0.1049  0.0013
76905W        W19999  10.890   2.253   1.799 -0.5901 -0.2175  0.1384
76906W        W20000   9.462   0.725   2.968  0.3576  0.0316  0.0710
76907W        W20001   8.818   3.029   3.412  0.1170  0.0563  0.0987
76908W        W20002   9.147   0.630   1.386  0.0845 -0.0210  0.2216
76909W        W20003  10.740   3.902   0.687 -0.3494  0.2520 -0.2952
76910W        W20004   9.916   1.907   2.290  0.1289  0.0272  0.0613
76911W        W20005   9.018   2.856  31.655 -0.0100  0.3832  0.0117
76912W        W20006   8.069   1.285   2.027  0.4644  0.0246 -0.1151
76913W        W20007   7.737   2.918   0.607  0.2055  0.0868  0.1425
76914W        W20008   9.670   2.289   2.099 -0.0520  0.2110  0.0816
76915W        W20009   7.364   3.582   0.908 -0.1659 -0.3016 -0.0857
76916W        W20010   8.244   2.764   0.161 -0.2584 -0.1353 -0.0085
76917W        W20011   7.806   2.366   2.367 -0.1375  0.2595 -0.1676
76918W        W20012  11.337   0.395   1.226 -0.3908 -0.3652  0.0262
76919W        W20013   9.993   0.914  31.832 -0.1493 -0.0727 -0.1803
76920W        W20014   8.737   1.206   0.623  0.0752  0.1086  0.0949
76921W        W20015   9.499   0.827   2.486 -0.1120 -0.0117 -0.0313
76922W        W20016  10.568   0.005   0.633  0.0441  0.0731  0.0324
76923W        W20017   9.628   1.293   2.670 -0.1084 -0.4008  0.2092
76924W        W20018   8.583   1.550   2.228  0.2014 -0.2882 -0.0626
76925W        W20019  10.023   2.073  31.936 -0.0117 -0.1828 -0.0448
76926W        W20020   7.616   1.328   3.419 -0.2828 -0.2808 -0.2662
76927W        W20021  10.500   2.799   3.744  0.2551 -0.0185 -0.2305
76928W        W20022   8.702   1.604   2.703 -0.0613  0.0265 -0.0249
76929W        W20023  11.134   1.218   1.596  0.0234  0.0357 -0.3376
76930W        W20024   6.933   0.450   0.086  0.1615 -0.3066  0.0445
76931W        W20025  10.550   1.317   1.470 -0.2263 -0.1663 -0.0651
76932W        W20026  11.774   1.098   1.823  0.3189  0.1316  0.0785
76933W        W20027   9.226   2.070   1.301  0.3632  0.4666  0.3556
76934W        W20028  11.667   1.315   1.408 -0.0329  0.1827  0.1013
76935W        W20029   8.512   3.368   3.097  0.2424  0.0751  0.2850
76936W        W20030  11.589   2.797   0.837  0.0165  0.1255  0.0600
76937W        W20031  10.359   0.478   0.640  0.1914  0.0068 -0.2270
76938W        W20032   7.152   1.684   0.932  0.3911  0.2025 -0.1324
76939W        W20033   8.610  34.286   3.737  0.0789  0.1874  0.1741
76940W        W20034  10.383   1.770   0.963  0.0237 -0.2627  0.2334
76941W        W20035  11.884   0.446   1.889 -0.1324  0.0428  0.0060
76942W        W20036   8.462   0.813   0.888  0.0316  0.1760  0.6231
76943W        W20037  12.666   1.903   3.043 -0.0936 -0.2733 -0.2512
76944W        W20038  10.481   2.245   2.085  0.1165  0.0297  0.0119
76945W        W20039   7.925   1.120   3.746  0.0227  0.0972  0.2094
76946W        W20040   9.734   2.489   1.622 -0.1665 -0.1837 -0.1696
76947W        W20041  10.161   1.475   0.598  0.0862  0.1356  0.3322
76948W        W20042   9.734   0.832   3.460 -0.2005 -0.2266 -0.1736
76949W        W20043  12.205   0.408   1.044 -0.1014 -0.1252 -0.3025
76950W        W20044  10.721   1.444   0.058  0.0015  0.2522 -0.2229
76951W        W20045   7.300   0.587   2.263 -0.4300 -0.0535 -0.0461
76952W        W20046  11.059   2.523   3.598 -0.0877  0.2238  0.0793
76953W        W20047   8.672   1.600   0.311 -0.4109  0.1741 -0.1199
76954W        W20048  10.310   1.267   2.802  0.2079  0.0004 -0.0618
76955W        W20049   7.977   2.062   1.297  0.3935  0.1050 -0.0954
76956W        W20050   9.712   2.069   1.342  0.2522 -0.0126 -0.0543
76957W        W20051  11.181   1.523   2.760 -0.4146  0.2303 -0.2300
76958W        W20052   8.364   0.353   2.255  0.3794  0.2926  0.0550
76959W        W20053   8.495   2.411   3.165  0.2232 -0.0307  0.3588
76960W        W20054   7.669   1.488  31.639  0.0677  0.1460  0.1443
76961W        W20055  10.555   1.936  31.147 -0.3569 -0.1298  0.1963
76962W        W20056  10.339   1.640   2.422 -0.4313 -0.0372 -0.1884
76963W        W20057  11.755   1.726   4.930  0.2132 -0.0859  0.0910
76964W        W20058   9.155  34.538   1.343  0.0034 -0.0855 -0.0793
76965W        W20059  10.458   0.698   3.852 -0.1370 -0.1901 -0.0100
76966W        W20060   7.712   3.594  31.961  0.3703  0.1606 -0.0305
76967W        W20061   9.847   0.777   2.097 -0.2235 -0.0348 -0.3698
76968W        W20062   8.510   2.769   1.691 -0.0203 -0.1119  0.0824
76969W        W20063   7.467   2.112   3.235 -0.0617  0.2331  0.2390
76970W        W20064   8.792   3.230   1.812 -0.2074  0.2909 -0.0271
76971W        W20065   9.584   0.286   2.695  0.2135  0.2129 -0.2519
76972W        W20066  11.491   1.962   2.308 -0.0038  0.0296 -0.0471
76973W        W20067   9.158   1.045   1.129  0.1925 -0.2537 -0.1652
76974W        W20068  12.063   1.591   1.712 -0.0091 -0.1679 -0.0312
76975W        W20069  11.034   2.571   2.896  0.2669 -0.2735 -0.0826
76976W        W20070   8.507   3.222   2.350 -0.2813 -0.0440  0.3240
76977W        W20071  10.082   2.497   2.348  0.1964  0.0126  0.2306
76978W        W20072  11.267   1.144   1.151 -0.1066  0.0961  0.3820
76979W        W20073   7.372   2.305   1.490 -0.0471  0.1056 -0.0408
76980W        W20074   7.741  34.049   3.089 -0.2705  0.1114 -0.3188
76981W        W20075   9.153   1.489   2.369 -0.1745 -0.1335  0.0034
76982W        W20076   9.425   3.021   1.327 -0.3008 -0.0657 -0.4056
76983W        W20077   8.326   1.534  31.692  0.3401 -0.1755  0.1912
76984W        W20078   9.314   2.768  31.072  0.0329  0.0880 -0.0759
76985W        W20079   8.006   3.398   4.817  0.3529  0.1624  0.0998
76986W        W20080   8.378   2.047   2.397 -0.2328  0.2636 -0.2528
76987W        W20081   7.088   5.311   1.230 -0.1621  0.0919 -0.1672
76988W        W20082  10.216   1.607  31.757  0.4020  0.0908  0.0115
76989W        W20083   9.900   0.343  31.538 -0.0595 -0.0518 -0.2523
76990W        W20084  10.174   3.126   1.582  0.1505  0.0160  0.1083
76991W        W20085   7.476   1.209   1.000  0.5205  0.1979 -0.1809
76992W        W20086   7.683   1.617   1.195  0.2650  0.1403 -0.2057
76993W        W20087   6.149   3.181   0.616 -0.0410  0.0667  0.0311
76994W        W20088  10.262   2.356   0.272  0.1110 -0.0109  0.1418
76995W        W20089   7.882   2.497   1.548 -0.2529 -0.0041 -0.0038
76996W        W20090  11.229   3.775   3.999  0.0605  0.0051  0.1316
76997W        W20091  11.021  33.723   0.930 -0.0568 -0.1122  0.0164
76998W        W20092  11.654   1.567   1.999 -0.2089  0.1382  0.3089
76999W        W20093  12.150   0.171  31.387  0.0107  0.0854 -0.0392
77000W        W20094   9.133   2.275   2.727  0.0299 -0.1166  0.0769
77001W        W20095   8.385  34.622   0.966 -0.1840  0.1109 -0.1498
77002W        W20096   8.274   0.285  31.696 -0.3999 -0.2844  0.0181
77003W        W20097  10.006   1.753   2.800  0.1098 -0.1006 -0.1730
77004W        W20098  11.464   0.661   2.284 -0.1027 -0.1554  0.2507
77005W        W20099   7.041   4.160   5.143  0.0658 -0.2021  0.0194
77006W        W20100  10.374   2.580   0.731  0.1229 -0.0165  0.1053
77007W        W20101   6.052   0.617   0.559  0.1894 -0.2492  0.2843
77008W        W20102   8.129   0.797   1.772  0.1946  0.1510  0.1155
77009W        W20103  10.421  34.682   2.849  0.0774  0.1197 -0.0046
77010W        W20104  10.637   2.356  31.439  0.0779  0.2655  0.3075
77011W        W20105  10.675   1.090   1.046 -0.1718  0.0618 -0.3063
77012W        W20106   7.235   4.832   1.690  0.1441  0.1750 -0.1938
77013W        W20107   8.737   3.841   0.571  0.1780  0.0350  0.1128
77014W        W20108   8.264   3.966   1.228 -0.1502 -0.2664 -0.1212
77015W        W20109   7.849   0.333  31.959 -0.0448  0.3166  0.0130
77016W        W20110  12.079   0.637   0.611 -0.1986 -0.2668  0.1635
77017W        W20111   9.095   2.882   2.515  0.1664 -0.0056 -0.0445
77018W        W20112  10.952   0.758   2.488  0.2007 -0.1420 -0.2201
77019W        W20113   7.616   0.907   1.927 -0.2093  0.1970 -0.4334
77020W        W20114  10.994   0.732   1.319  0.1736  0.2730 -0.1775
77021W        W20115  10.861   1.683   1.823  0.0247 -0.0592 -0.3914
77022W        W20116   9.194   2.567   1.766 -0.0654  0.0650 -0.1033
77023W        W20117   9.357   1.505  31.726  0.1424 -0.1891  0.1519
77024W        W20118  11.024   1.737   3.217  0.0709 -0.0474 -0.2092
77025W        W20119  10.048   0.651   0.989 -0.0275  0.3484 -0.0151
77026W        W20120   9.542   3.486   1.962  0.1204  0.0779  0.0131
77027W        W20121   8.156   0.488   0.820 -0.1721 -0.1329 -0.1909
77028W        W20122   9.381   0.930  31.106  0.0085 -0.0431 -0.0027
77029W        W20123   8.726   1.866   1.073 -0.0330 -0.1600 -0.1174
77030W        W20124  10.159   0.194   3.211 -0.1220  0.1904  0.0128
77031W        W20125  10.322   2.437   4.206  0.0701 -0.1687  0.3158
77032W        W20126   7.823  34.561   2.431 -0.0099  0.0277 -0.0348
77033W        W20127  11.272   3.351  31.836  0.0795  0.0802  0.0201
77034W        W20128  10.550   1.366   2.108 -0.4288  0.0358 -0.0351
77035W        W20129   8.520   3.641  31.591  0.1125  0.0447  0.0851
77036W        W20130  11.269   2.487   1.121  0.4317 -0.0974  0.2121
77037W        W20131   9.989   3.381   1.964 -0.0661  0.2218 -0.1972
77038W        W20132   7.491   0.788   3.487  0.3521 -0.2025 -0.1530
77039W        W20133  10.148   2.197   1.646 -0.0150 -0.0762  0.2424
77040W        W20134  11.521   3.450   1.417  0.1559  0.0301  0.0355
77041W        W20135  10.018  33.907   0.754  0.1239 -0.0729  0.0480
77042W        W20136   9.450   1.659   1.502 -0.0584  0.0677  0.0377
77043W        W20137   8.310   2.626   1.224  0.0545  0.1321  0.0250
77044W        W20138  11.392   1.629   1.129  0.2153 -0.2995 -0.0694
77045W        W20139  10.796   1.228   2.686 -0.1040  0.0667  0.0624
77046W        W20140   9.265   3.017   1.871 -0.0678 -0.0272  0.0641
77047W        W20141   9.961   0.579   2.929 -0.0896 -0.2492  0.0155
77048W        W20142  10.627   1.677   2.876  0.2893  0.2458 -0.1365
77049W        W20143   8.701   3.323   3.981 -0.0711  0.0854  0.1716
77050W        W20144   9.122   2.826   0.173  0.0364 -0.0498 -0.2527
77051W        W20145   8.881   3.194   2.849  0.4196  0.0680 -0.1882
77052W        W20146   9.256   2.056   1.793  0.1261 -0.2807  0.0778
77053W        W20147   8.433   5.278   0.680 -0.2783 -0.4242  0.1321
77054W        W20148  10.514   3.285   2.473  0.0181  0.0594 -0.2581
77055W        W20149  10.187   1.182   1.167 -0.1492  0.0965  0.0936
77056W        W20150  12.043   2.833   1.237  0.1652 -0.1071  0.0921
77057W        W20151   9.755   0.539   0.591 -0.1893 -0.1525 -0.1500
77058W        W20152  11.558  34.381   0.720  0.2940  0.1396 -0.3511
77059W        W20153  10.005  34.541   1.875  0.3032 -0.0226  0.2474
77060W        W20154   8.842   2.785   2.062  0.2013  0.2729 -0.0475
77061W        W20155   7.352   2.968   1.000  0.3146  0.1172 -0.2207
77062W        W20156   8.283   2.268   0.338 -0.4467  0.1059 -0.0688
77063W        W20157   7.703   1.684   0.644  0.0242  0.2494 -0.0489
77064W        W20158   9.434   0.090   4.128  0.2586  0.1036  0.0677
77065W        W20159   7.905   1.172   2.776  0.0449 -0.0479 -0.2119
77066W        W20160   8.891   1.937   2.393 -0.3078 -0.0800  0.0399
77067W        W20161   8.222   1.183   0.464 -0.1106 -0.1138 -0.0640
77068W        W20162   9.640   3.804   1.613  0.1841  0.0982  0.0547
77069W        W20163   8.197  33.832   1.873 -0.1243 -0.0254  0.0748
77070W        W20164   7.534  34.083   1.247  0.2316 -0.0809  0.0940
77071W        W20165   9.703   2.573   1.090  0.1742 -0.0493  0.2921
77072W        W20166   9.107   2.842   0.678 -0.0805  0.1255  0.2098
77073W        W20167   9.877   0.579   1.517 -0.0744 -0.1061  0.0442
77074W        W20168  10.449   2.767   2.722 -0.2611 -0.1885 -0.1867
77075W        W20169   8.234   2.370  30.728  0.0434  0.1024 -0.2819
77076W        W20170   8.692   1.756   3.682 -0.0571  0.0181 -0.2105
77077W        W20171   8.555   0.103   4.786  0.2851 -0.2366 -0.0449
77078W        W20172   6.791   0.757  31.523 -0.1796 -0.1193  0.1431
77079W        W20173  10.564   2.011   1.457 -0.3143 -0.0537 -0.1306
77080W        W20174   7.797   3.186   1.647 -0.1138  0.2429  0.1588
77081W        W20175   8.705   3.431   1.306 -0.1033  0.0718  0.0562
77082W        W20176   8.149   3.337   2.735 -0.0823 -0.1096 -0.0871
77083W        W20177   9.104   1.152   2.738 -0.0177  0.4354 -0.2900
77084W        W20178   8.081  34.326   2.862 -0.1989 -0.1054 -0.0581
77085W        W20179  11.486   1.711   0.651  0.2045  0.0032  0.1127
77086W        W20180   8.723   2.061   2.834  0.0574 -0.2028  0.2018
77087W        W20181  11.218   2.624   0.484  0.1271 -0.1562  0.1458
77088W        W20182  10.484   0.471   2.444  0.0318  0.1740  0.1922
77089W        W20183   8.878   1.414  31.297 -0.0205 -0.2784  0.0267
77090W        W20184   7.779  33.567   3.091  0.0430  0.0021 -0.0186
77091W        W20185   8.423   2.018   4.003 -0.2521 -0.1271 -0.1538
77092W        W20186  10.969   3.256   2.128 -0.2905 -0.6838 -0.0747
77093W        W20187   8.533  34.543   2.924 -0.0505  0.1967 -0.2929
77094W        W20188  10.790   0.315   1.558  0.0303  0.3017  0.1359
77095W        W20189  10.183   2.298  31.044 -0.1366 -0.0528  0.0861
77096W        W20190   8.329   1.734   1.363  0.0630  0.1689 -0.1726
77097W        W20191   9.971   0.800  31.293  0.1136  0.1053  0.1875
77098W        W20192   9.106   1.686   3.065 -0.1880  0.2636 -0.0964
77099W        W20193   9.813   1.520   0.025  0.0169 -0.1052 -0.2232
77100W        W20194  12.285   2.173   1.717 -0.1708 -0.0374 -0.0959
77101W        W20195   9.195   1.396   0.220  0.3511  0.1511  0.2390
77102W        W20196  11.740   0.587  31.232 -0.4769  0.0530  0.1368
77103W        W20197  10.011   3.361   2.447  0.1387 -0.0782 -0.1188
77104W        W20198  10.734   2.190   3.240 -0.2808 -0.1338 -0.1458
77105W        W20199   8.931   2.939   1.390 -0.0517 -0.1090 -0.0330
77106W        W20200  11.272   2.065   0.353 -0.0941 -0.1576 -0.3185
77107W        W20201   7.958  32.730   1.140  0.1414 -0.0426 -0.1885
77108W        W20202   7.908   0.667   1.294 -0.0560 -0.0964  0.4068
77109W        W20203   7.433   2.068   1.019 -0.0089 -0.2412 -0.0549
77110W        W20204  11.959   0.455   2.412 -0.0907 -0.2332 -0.0799
77111W        W20205   7.402   0.764   1.188  0.0757 -0.0718  0.0372
77112W        W20206  10.584  34.044   1.129  0.2602  0.0467  0.1320
77113W        W20207   9.484   3.174   2.687 -0.2134  0.1615  0.3124
77114W        W20208  11.194   2.812   1.897  0.2486 -0.3571  0.3150
77115W        W20209   9.351   2.237   7.274 -0.1279 -0.0958 -0.0086
77116W        W20210   9.569   1.073   4.302 -0.1486 -0.0852  0.0792
77117W        W20211  11.771   0.599   3.285 -0.2813  0.0065  0.0423
77118W        W20212  10.109   0.678   5.379 -0.2399  0.2198  0.2369
77119W        W20213   7.893  34.423   5.820  0.0728  0.1724 -0.0867
77120W        W20214   9.774   3.486   3.692 -0.0569 -0.3997  0.2032
77121W        W20215   8.532  34.399   6.591  0.1051  0.1779  0.1458
77122W        W20216  10.194   2.827   5.320 -0.3142  0.0670 -0.2529
77123W        W20217  10.835   2.008   5.693  0.0613  0.0415  0.1183
77124W        W20218   9.174   1.485   3.581  0.0336 -0.1112  0.0294
77125W        W20219   8.038   0.850   7.231  0.0198 -0.0772 -0.0993
77126W        W20220   9.770   3.421   6.745 -0.0765  0.1514 -0.1843
77127W        W20221   9.660  34.185   4.911 -0.1550  0.0233  0.1390
77128W        W20222   7.471  33.666   6.392 -0.2308  0.1728  0.0238
77129W        W20223  10.765  34.655   6.905 -0.2647  0.1452 -0.0369
77130W        W20224   7.869   2.538   4.825 -0.0146 -0.0788 -0.0060
77131W        W20225   9.601   0.551   5.300 -0.1628  0.1766  0.1363
77132W        W20226   8.398   1.145   4.112  0.1680  0.4506 -0.0090
77133W        W20227  10.089   3.427   4.562  0.4743 -0.0386 -0.3079
77134W        W20228   9.616   0.124   6.654 -0.1669 -0.1007  0.0399
77135W        W20229   8.729  34.227   8.173  0.1623  0.0133  0.1630
77136W        W20230   9.567   1.790   3.721 -0.1605  0.3297 -0.1685
77137W        W20231   7.734   0.741   4.420 -0.1753 -0.0711  0.2193
77138W        W20232   7.757   1.818   6.296 -0.0961  0.0784 -0.1146
77139W        W20233   9.872   0.792   4.974  0.2654  0.0639  0.2008
77140W        W20234   9.468   0.978   8.098  0.0090  0.3491 -0.1783
77141W        W20235  10.122   0.300   5.749 -0.1788 -0.0740 -0.4661
77142W        W20236   9.108   1.473   5.405 -0.3165 -0.2535 -0.1286
77143W        W20237  10.863   2.452   7.068  0.3792 -0.0952  0.1984
77144W        W20238  10.158   1.510   7.017 -0.2841 -0.3255  0.2302
77145W        W20239   8.326   2.233   4.923 -0.1102 -0.2794 -0.4583
77146W        W20240   7.459   3.429   3.975  0.1529 -0.0333  0.2761
77147W        W20241   9.502   2.702   6.040 -0.0996  0.0008  0.1403
77148W        W20242  12.632   0.518   4.882 -0.2197 -0.1557 -0.1069
77149W        W20243  10.124   2.505   6.908 -0.0547 -0.0728  0.0858
77150W        W20244   9.108   2.960   9.624  0.1754 -0.0391  0.1624
77151W        W20245   7.780   2.361   5.276  0.1582  0.0904 -0.2151
77152W        W20246   9.044   4.156   7.586 -0.1048  0.1383  0.1036
77153W        W20247  11.153   3.402   6.272  0.0144 -0.0053 -0.3295
77154W        W20248   9.300   0.621   4.904 -0.1832 -0.1444  0.1613
77155W        W20249  10.033   2.071   5.476 -0.0297 -0.1573 -0.3356
77156W        W20250   8.333   3.306   3.577 -0.4060 -0.1711 -0.1863
77157W        W20251   9.707   3.209   6.242 -0.1836 -0.0916  0.0155
77158W        W20252   9.733   1.986   7.099 -0.0636  0.0075 -0.1092
77159W        W20253   7.799   2.292   6.261  0.2220 -0.0271  0.0891
77160W        W20254  11.114  33.684   8.019  0.2847 -0.4173  0.0626
77161W        W20255   8.350   2.847   3.338  0.1399 -0.0036 -0.0492
77162W        W20256  10.003   0.895   2.571  0.2249 -0.1030 -0.1587
77163W        W20257   9.237   0.626   3.427  0.1654 -0.2518  0.3558
77164W        W20258  10.255   2.356   3.425  0.1878 -0.0379  0.4167
77165W        W20259   8.245  33.828   4.672 -0.1552 -0.1725 -0.0433
77166W        W20260   7.659   2.704   5.630  0.0735  0.1253 -0.1680
77167W        W20261   9.276   0.994   7.092 -0.0365 -0.0529  0.0913
77168W        W20262  11.745   2.245   6.187 -0.1363  0.0279  0.0446
77169W        W20263   9.490   1.086   4.811  0.1279  0.0120 -0.0747
77170W        W20264  10.032   1.944   4.951  0.0267 -0.2028 -0.0118
77171W        W20265   9.163   1.647   7.246 -0.2360 -0.0914 -0.1831
77172W        W20266   8.266   1.688   7.377  0.0643 -0.1422  0.2154
77173W        W20267   9.420   2.689   2.965  0.2979  0.0414  0.1700
77174W        W20268  10.804   1.894   4.811  0.0858 -0.2182 -0.0660
77175W        W20269   9.546   4.255   4.089 -0.0467 -0.1032 -0.4984
77176W        W20270   7.672   0.885   5.535 -0.0559  0.4566  0.0967
77177W        W20271   8.389   2.759   7.412  0.0419 -0.1295 -0.0017
77178W        W20272   7.924   1.318   7.103  0.1013 -0.2054 -0.1166
77179W        W20273   9.004  34.501   3.210  0.2032  0.4933 -0.4372
77180W        W20274  11.394   2.958   6.442  0.1095 -0.0799 -0.2230
77181W        W20275   9.015   2.699   6.813  0.1327  0.5392 -0.0007
77182W        W20276  10.230  34.304   3.740  0.0689 -0.3027  0.2434
77183W        W20277   8.567   2.039   4.492  0.0001 -0.0394  0.2215
77184W        W20278  11.478   3.371   6.719 -0.2079  0.0602 -0.0182
77185W        W20279  12.298   1.668   2.787 -0.0768  0.1542 -0.1382
77186W        W20280  10.125  34.555   6.787  0.0931  0.0671  0.0462
77187W        W20281  11.077  34.222   6.615 -0.3228 -0.0451  0.1979
77188W        W20282   8.808   1.842   1.658 -0.2171  0.1955 -0.1668
77189W        W20283  10.445   2.152   5.236  0.1271 -0.0500  0.1941
77190W        W20284  12.389   2.737   7.549  0.1421 -0.1758  0.1155
77191W        W20285  10.234   1.462   3.246  0.1942  0.0519 -0.0008
77192W        W20286   9.147   2.310   5.900  0.2406  0.3199 -0.0065
77193W        W20287   8.807   0.471   7.822  0.0453  0.1992  0.0394
77194W        W20288  10.491   1.280   5.627  0.1576 -0.1308 -0.1236
77195W        W20289   7.967   4.108   3.174 -0.0730  0.5656 -0.0550
77196W        W20290   7.241   2.435   7.006 -0.0137  0.1754 -0.2064
77197W        W20291   7.418   2.664   3.298 -0.2600  0.2550  0.3621
77198W        W20292   7.671   0.961   6.941  0.1754 -0.1127  0.4170
77199W        W20293   9.711   2.777   7.716  0.2779 -0.2962  0.0075
77200W        W20294  11.215   0.647   4.087 -0.1370  0.0123  0.4160
77201W        W20295   8.467   0.436   8.419 -0.0405  0.2172 -0.1485
77202W        W20296  10.415  34.152   5.734 -0.1120 -0.2609 -0.0573
77203W        W20297   8.214   2.317   3.618  0.2314  0.1199 -0.1506
77204W        W20298   9.802   3.145   4.032 -0.0239  0.0549 -0.0667
77205W        W20299  10.983   1.452   3.692 -0.3924 -0.0637  0.2826
77206W        W20300   9.599   2.349   2.599  0.4075 -0.0198  0.0588
77207W        W20301   8.523   0.304   6.641 -0.0638  0.2065 -0.1383
77208W        W20302   8.516  34.294   5.113  0.2585 -0.3039  0.2438
77209W        W20303   9.306   0.117   7.091 -0.1683 -0.0762  0.1254
77210W        W20304   7.892   0.338   6.150  0.3485 -0.1701  0.1718
77211W        W20305  11.289   1.749   7.843 -0.1028 -0.3211  0.2293
77212W        W20306   8.883   0.952   4.974  0.0062 -0.4503  0.0580
77213W        W20307  10.403   0.968   4.755 -0.0545  0.1895  0.3065
77214W        W20308  10.963   0.826   5.351  0.2279  0.0909 -0.1843
77215W        W20309   8.340   1.677   4.719 -0.0439  0.0893  0.1439
77216W        W20310  10.118   1.187   7.367 -0.1792 -0.1724  0.0834
77217W        W20311  10.525   3.655   4.310 -0.1553 -0.1660 -0.3486
77218W        W20312  12.619   1.805   7.754 -0.2197  0.2275  0.2825
77219W        W20313  10.565   3.661   4.923  0.1099 -0.1412 -0.0198
77220W        W20314   8.897   0.361   7.307  0.0315  0.3095  0.0497
77221W        W20315   8.161   1.045   4.541 -0.0334  0.1361  0.0375
77222W        W20316   8.184   2.705   5.177 -0.0153 -0.2186 -0.2487
77223W        W20317   9.987   1.799   5.930  0.0365  0.1910 -0.1939
77224W        W20318  10.419   0.186   3.714 -0.2304 -0.0811  0.0062
77225W        W20319  10.633   1.729   5.277 -0.2282  0.2334  0.1619
77226W        W20320  10.360   0.744   6.311 -0.3484 -0.1256  0.2242
77227W        W20321   9.190   3.069   7.798  0.0958  0.1427 -0.2203
77228W        W20322  10.098   0.611   7.298 -0.1797 -0.1232  0.0682
77229W        W20323  10.829   1.144   6.367 -0.1614 -0.0737  0.1087
77230W        W20324  10.002   1.277   4.820  0.0807 -0.2142  0.0990
77231W        W20325   8.051   0.387   4.148  0.0727  0.0820 -0.0512
77232W        W20326   9.782   2.770   6.526 -0.2627  0.2128  0.1257
77233W        W20327   8.815   3.488   3.510 -0.3264  0.1097 -0.0660
77234W        W20328   8.078   0.522   5.358 -0.0400  0.0344  0.1174
77235W        W20329   9.177   2.725   3.450 -0.1011  0.0141  0.1460
77236W        W20330  11.218  33.637   4.844 -0.0930 -0.0293 -0.0848
77237W        W20331   7.788   1.129   8.941 -0.1168 -0.0292  0.1446
77238W        W20332  10.576   1.327   7.214  0.0993  0.0576 -0.0292
77239W        W20333   8.269   0.022   5.158  0.1797  0.2847  0.0269
77240W        W20334   8.498   2.001   6.980  0.1550 -0.3569  0.2275
77241W        W20335   9.104   0.871   4.410  0.0636  0.1339 -0.0330
77242W        W20336  11.770   0.242   2.962  0.1784  0.1940 -0.0227
77243W        W20337   9.670   1.411   6.080  0.0456  0.2162 -0.1489
77244W        W20338  10.374   1.317   3.803  0.0255 -0.1717  0.1584
77245W        W20339   8.800   0.637   3.654 -0.0257 -0.1441  0.0866
77246W        W20340   8.317  34.550   4.065 -0.1408 -0.1072  0.0695
77247W        W20341   8.284   2.484   7.038  0.0317 -0.0817  0.0663
77248W        W20342   9.429   2.650   4.808 -0.1337 -0.0411  0.3051
77249W        W20343   8.619   1.352   6.417  0.2368  0.3905  0.3186
77250W        W20344   8.572   0.621   4.626 -0.2583 -0.1399 -0.0446
77251W        W20345  10.367   2.178   4.697  0.1387  0.1496 -0.0321
77252W        W20346   9.340   2.514   7.699  0.0294 -0.2066  0.3470
77253W        W20347  11.181   1.385   6.059 -0.1229  0.0582  0.0530
77254W        W20348   9.916   2.157   6.588 -0.2520 -0.1061 -0.4127
77255W        W20349   9.563  34.315   8.210  0.1247  0.1715 -0.1125
77256W        W20350   8.957   1.114   4.021  0.1532 -0.1970  0.1061
77257W        W20351  10.754   1.213   5.104 -0.1679  0.0397  0.1374
77258W        W20352   8.591   3.228   4.942 -0.1843 -0.1778  0.2976
77259W        W20353  11.319   0.365   6.186 -0.1645 -0.2415  0.2135
77260W        W20354  10.433  34.585   4.174 -0.2905  0.0295  0.0199
77261W        W20355   8.965   0.950   6.309  0.4672 -0.3767 -0.0657
77262W        W20356  11.247   2.672   6.853 -0.2649  0.0041 -0.3294
77263W        W20357  11.762   1.904   3.483 -0.0566 -0.1753 -0.1072
77264W        W20358  10.884   0.923   3.627 -0.2601 -0.2980 -0.0074
77265W        W20359   9.432   1.083   1.669  0.0875 -0.2851 -0.0047
77266W        W20360   9.524   0.589   7.198  0.2051  0.1911 -0.0906
77267W        W20361   9.184   1.469   6.369  0.0235  0.1966 -0.1661
77268W        W20362   7.577   3.004   6.981  0.2184  0.0167 -0.2244
77269W        W20363  10.321   2.235   6.035  0.0148 -0.2018  0.1660
77270W        W20364  10.400   1.016   4.279  0.0160 -0.0176  0.3148
77271W        W20365   9.994   0.407   6.225  0.1023  0.0012 -0.2504
77272W        W20366   9.129   0.323   4.468  0.1896  0.1529 -0.2731
77273W        W20367   8.724   3.819   5.799  0.0967 -0.0812 -0.1437
77274W        W20368  10.094   2.350   2.938 -0.0452  0.4287  0.0543
77275W        W20369   8.569   0.816   6.583 -0.1503  0.2936 -0.1148
77276W        W20370   9.161   3.305   7.239  0.0172  0.4287 -0.1890
77277W        W20371   7.607   2.561   2.832 -0.0483 -0.1485  0.1347
77278W        W20372   9.862   0.966   6.987 -0.0659 -0.2444  0.0594
77279W        W20373   8.839   2.486   4.544 -0.4358  0.2982  0.1691
77280W        W20374  10.604  33.849   6.173  0.0259 -0.5448  0.5139
77281W        W20375   9.025   1.976   6.381  0.1596 -0.0793 -0.0423
77282W        W20376   7.862  34.566   4.183  0.0858  0.3660  0.2567
77283W        W20377   8.272   0.988   5.418 -0.1848  0.0523  0.0725
77284W        W20378  10.061  33.713   4.876 -0.2374  0.0074  0.3203
77285W        W20379  10.515   1.539   4.206  0.0665 -0.0450 -0.0455
77286W        W20380   8.536   0.727   7.504  0.0598 -0.3155  0.2631
77287W        W20381  10.335   0.457   4.294  0.1184  0.0922  0.1799
77288W        W20382   8.180   2.546   5.733  0.0198 -0.2372  0.4311
77289W        W20383   9.084   0.665   5.829 -0.3126  0.1366  0.0812
77290W        W20384  10.831   1.169   4.093 -0.0766  0.1345 -0.2133
77291W        W20385  10.648   3.126   6.288 -0.1529 -0.0190  0.0763
77292W        W20386   9.491   1.178   6.646 -0.1151 -0.0197 -0.3080
77293W        W20387   9.174   1.777   5.022 -0.1753  0.1066 -0.2276
77294W        W20388  11.879  33.766   6.233 -0.0210 -0.2078 -0.3074
77295W        W20389   9.398   0.058   5.356 -0.0100 -0.0858  0.1238
77296W        W20390   8.202   3.121   4.135  0.0511 -0.1887  0.1429
77297W        W20391  10.434   2.535   6.411  0.6569 -0.3051  0.0176
77298W        W20392   8.882   2.084   3.312  0.1579  0.1553 -0.0865
77299W        W20393   8.273   2.177   5.464 -0.2767  0.1109 -0.0979
77300W        W20394   9.416   1.824   6.700  0.0811  0.2897 -0.0384
77301W        W20395  10.320   1.326   6.111 -0.4219  0.1877 -0.1479
77302W        W20396   8.836   0.894   5.464 -0.1467 -0.2570 -0.3524
77303W        W20397   8.855   0.484   6.243  0.0539  0.1068  0.1124
77304W        W20398   9.067   0.118   4.905  0.3553 -0.1208  0.1643
77305W        W20399  10.750   1.695   6.193  0.0188  0.0619  0.0854
77306W        W20400   9.648   1.374   7.175  0.1062  0.0390  0.2722
77307W        W20401   8.396   3.619   8.216 -0.0928 -0.0265 -0.0613
77308W        W20402   9.203  33.059   6.245 -0.2222 -0.0971 -0.1194
77309W        W20403  10.976   3.775   5.304  0.1451  0.0418  0.3267
77310W        W20404   9.808   2.371   7.391  0.2116 -0.0726  0.2726
77311W        W20405   9.387   2.288   4.502  0.0327 -0.3347 -0.0470
77312W        W20406   8.220   0.132   5.827  0.0401 -0.0137  0.0482
77313W        W20407   9.651   1.497   3.304  0.2089  0.2124  0.0637
77314W        W20408   9.465  34.403   5.698  0.0367  0.0219 -0.1498
77315W        W20409   9.129   2.095   5.432 -0.1982 -0.0364  0.0159
77316W        W20410   8.356   2.575   4.252  0.0347  0.3792 -0.2994
77317W        W20411   8.675   1.955   5.116  0.0496  0.0676 -0.1010
77318W        W20412  10.748  34.516   3.733 -0.0576  0.1459 -0.2000
77319W        W20413   9.453   2.698   3.929  0.2689 -0.3897  0.0517
77320W        W20414   9.109   0.399   6.731  0.0944 -0.0369  0.2594
77321W        W20415  10.522   0.212   7.533 -0.1740  0.0871  0.0888
77322W        W20416  11.009   2.062   2.818  0.1006 -0.1551  0.2347
77323W        W20417   9.541  34.010   7.745 -0.1326  0.1725 -0.0571
77324W        W20418   8.436   0.219   7.496  0.2710 -0.1320 -0.2034
77325W        W20419  11.126   0.375   5.083  0.1808 -0.1580  0.2298
77326W        W20420   8.344   0.479   6.192  0.0438  0.1972  0.0465
77327W        W20421  10.032   3.248   8.971 -0.0080 -0.0653 -0.0130
77328W        W20422   8.374   2.270   7.595 -0.2118 -0.4323 -0.0320
77329W        W20423  10.037   1.684   3.698 -0.1090 -0.1980  0.3452
77330W        W20424   9.376  34.453   4.643 -0.2083 -0.0595 -0.1176
77331W        W20425   8.641   0.485   5.698  0.3302 -0.0147  0.2042
77332W        W20426  10.896   1.047   5.828 -0.2006 -0.1046 -0.0029
77333W        W20427   9.917   2.481   5.159 -0.2571  0.3349  0.0749
77334W        W20428  11.681   0.305   5.309 -0.2553  0.1017  0.3545
77335W        W20429   8.604   2.352   5.934  0.0281  0.1350 -0.2247
77336W        W20430  10.606   0.556   5.091  0.2391 -0.0003 -0.0198
77337W        W20431  10.027   1.407   4.253 -0.1373 -0.1426  0.3031
77338W        W20432   9.152   1.423   4.601 -0.1875  0.0706  0.4092
77339W        W20433   9.202  34.293   7.241 -0.0119  0.1825 -0.0876
77340W        W20434  10.012   1.232   5.756  0.0338 -0.0576 -0.1695
77341W        W20435  10.372  33.709   4.499 -0.0443  0.2457 -0.4161
77342W        W20436  10.923  33.823   5.748  0.2637 -0.1637 -0.2340
77343W        W20437   9.997   0.498   6.781  0.3655  0.0427  0.0652
77344W        W20438   8.862   1.315   5.948  0.1541 -0.0088  0.3729
77345W        W20439   7.582   0.533   8.889  0.1107  0.0154 -0.3536
77346W        W20440  10.163   3.767   6.765 -0.1683 -0.3939  0.1310
77347W        W20441  10.575   1.689   3.504 -0.1500  0.0676  0.0239
77348W        W20442  10.279  33.131   5.636 -0.0573  0.2294  0.1242
77349W        W20443  10.783  33.852   4.903 -0.0805 -0.0134 -0.1542
77350W        W20444   9.927   2.435   4.606 -0.1401 -0.2358 -0.1683
77351W        W20445   7.598   0.607   7.517  0.1683  0.1506  0.3260
77352W        W20446  10.551   2.112   6.528 -0.0386  0.3756  0.3571
77353W        W20447   9.353  34.242   4.158  0.4006  0.0986 -0.2372
77354W        W20448   9.905   1.085   8.616 -0.2135  0.1211 -0.0271
77355W        W20449   9.241   2.954   4.398  0.0363  0.2485 -0.2524
77356W        W20450  10.074   1.561   5.416 -0.1166 -0.2144  0.1228
77357W        W20451  11.264   0.155   3.891  0.1506  0.0854  0.2824
77358W        W20452   8.532  34.214   6.032  0.0371  0.1320 -0.4895
77359W        W20453   8.690   3.012   8.580  0.1077 -0.1235  0.1187
77360W        W20454   8.558  34.678   3.434  0.0887  0.0208  0.0623
77361W        W20455   9.026   1.946   4.570 -0.0714  0.1108  0.2146
77362W        W20456   9.979   2.535   5.701 -0.0490 -0.1225  0.3035
77363W        W20457  10.180   2.631   7.685  0.2292  0.1045  0.0832
77364W        W20458  10.530  34.295   3.309 -0.0447 -0.4273 -0.2467
77365W        W20459   9.661   0.969   7.508  0.0333 -0.0728  0.0042
77366W        W20460   8.735   1.440   4.936 -0.1340 -0.2215  0.0808
77367W        W20461   9.994  34.627   4.627 -0.0988 -0.0609  0.1267
77368W        W20462   8.960   2.780   5.896  0.3936  0.0228  0.3340
77369W        W20463   8.285   2.582   8.480  0.2778 -0.1886 -0.1389
77370W        W20464   8.423   3.530   4.451  0.1758 -0.0193 -0.1004
77371W        W20465   9.472  32.963   7.720 -0.0741  0.0116  0.2963
77372W        W20466  10.340   0.225   6.521 -0.1216 -0.0345 -0.0073
77373W        W20467   9.660   1.718   4.465 -0.2301 -0.0241  0.2838
77374W        W20468  11.701   1.798   7.235  0.1255 -0.1246 -0.1687
77375W        W20469   9.764   2.239   6.081  0.1324  0.0420 -0.0083
77376W        W20470   9.109   1.759   5.847 -0.2761  0.1138 -0.4680
77377W        W20471  10.335   2.111   7.790 -0.0878  0.0154 -0.0519
77378W        W20472  11.288   1.119   4.466 -0.2076 -0.1700  0.4394
77379W        W20473   8.544   0.871   6.027 -0.0772  0.2272  0.1513
77380W        W20474   7.536   1.191   7.416 -0.1739  0.1889 -0.0929
77381W        W20475  10.176   2.122   8.280  0.0585  0.1597 -0.1002
77382W        W20476   9.011   0.457   5.281 -0.0931  0.0325 -0.5780
77383W        W20477   9.511   0.675   6.694  0.1355  0.0337  0.0591
77384W        W20478   8.955   2.891   4.004  0.2205  0.1498 -0.1585
77385W        W20479   7.737   4.000   8.659 -0.1773  0.0763  0.1372
77386W        W20480   8.656   1.733   6.094  0.1644 -0.2622 -0.0112
77387W        W20481   8.026   3.310   3.184  0.3734 -0.3915 -0.1738
77388W        W20482  10.024   0.838   4.515  0.2932 -0.0967  0.2409
77389W        W20483  10.136   1.934   4.311  0.0757 -0.1038 -0.0891
77390W        W20484   9.253   3.079   5.624  0.1210  0.1178  0.1437
77391W        W20485   8.422   0.374   3.757  0.3443  0.1196 -0.0435
77392W        W20486   8.538   1.396   5.449  0.0906  0.0324 -0.0998
77393W        W20487   7.668   2.991   4.214  0.1439 -0.2320 -0.2537
77394W        W20488  10.826   2.402   4.705  0.0318 -0.0038  0.0771
77395W        W20489   7.136   2.399   3.811 -0.2373 -0.0805  0.1054
77396W        W20490  11.336   2.584   7.464  0.0385 -0.2145  0.1298
77397W        W20491  11.134  34.625   3.376 -0.0916 -0.0562 -0.1156
77398W        W20492  11.596   0.691   6.456  0.1906 -0.2186  0.1624
77399W        W20493  11.788   0.305   4.353  0.0225  0.1246  0.1260
77400W        W20494  11.069   2.409   8.013  0.0195  0.0140  0.2095
77401W        W20495  10.289   1.107   5.210  0.0803 -0.1007 -0.0323
77402W        W20496   9.237  33.962   4.799  0.0766  0.1407 -0.0003
77403W        W20497   8.643   1.733   7.681  0.1789  0.1186 -0.0216
77404W        W20498  10.046  34.216   7.920 -0.1832 -0.2798  0.0691
77405W        W20499   8.007   3.563   8.483 -0.1068 -0.2721  0.4404
77406W        W20500  11.410   2.520   4.608  0.6556  0.1267  0.0369
77407W        W20501   7.642   0.123   4.548  0.0094  0.3858 -0.0955
77408W        W20502   9.326   1.468   4.101 -0.0916  0.1284 -0.1986
77409W        W20503  10.768   0.046   6.363 -0.2310  0.2548 -0.0505
77410W        W20504   9.670   2.231   4.102  0.0301 -0.1726  0.1029
77411W        W20505  11.021   0.854   4.819  0.2284 -0.2167  0.0518
77412W        W20506   8.951   2.468   6.316 -0.0557 -0.0742 -0.1813
77413W        W20507   9.543   2.105   5.057 -0.1900  0.2116  0.1381
77414W        W20508   9.071   2.177   6.832 -0.1111 -0.1373  0.0777
77415W        W20509   7.333   0.523   5.411 -0.2428 -0.3185  0.1220
77416W        W20510  11.607   0.976   7.398 -0.1251 -0.1883  0.0323
77417W        W20511   8.437   1.411   8.072  0.2202 -0.0411  0.1264
77418W        W20512  10.623  32.891   5.984  0.0376 -0.1993  0.1587
77419W        W20513   9.313   0.973   5.272 -0.2143 -0.4219  0.1314
77420W        W20514  10.622   0.232   4.694  0.0709 -0.0562 -0.0580
77421W        W20515   9.722   0.511   7.702 -0.1371 -0.2506  0.1116
77422W        W20516   7.734   0.241   5.626  0.1947  0.3130 -0.0287
77423W        W20517   8.678   0.712   4.115  0.1256 -0.3325  0.2377
77424W        W20518  10.572   2.888   6.818  0.1519  0.3519  0.0461
77425W        W20519   9.859   1.998   3.361  0.0512  0.2118  0.0935
77426W        W20520  10.854   4.386   7.076 -0.1721  0.1482 -0.0074
77427W        W20521   6.881   0.548   7.576 -0.2573 -0.1279 -0.1202
77428W        W20522   9.940   0.765   4.040 -0.3879 -0.0680  0.2441
77429W        W20523  10.191   0.420   4.765  0.1555  0.3064 -0.0533
77430W        W20524   8.400   0.517   7.072  0.0431 -0.2121 -0.0200
77431W        W20525  10.092   1.767   7.469 -0.1339  0.1642 -0.0734
77432W        W20526   6.216   0.556   4.342  0.2714  0.0077 -0.0946
77433W        W20527  10.430   1.543   4.840 -0.1967 -0.0032 -0.4956
77434W        W20528  10.905   0.501   7.138  0.0657 -0.1127  0.1401
77435W        W20529   8.367   2.784   3.813  0.0814 -0.1766  0.1785
77436W        W20530  11.531   0.608   2.789 -0.1001  0.0244 -0.0832
77437W        W20531  11.080   2.544   5.583  0.1917 -0.0477  0.3031
77438W        W20532   7.794   0.487   7.981 -0.1974 -0.0274 -0.0684
77439W        W20533  10.832   2.431   6.032 -0.0249  0.1736  0.1658
77440W        W20534  10.237   2.002   6.920  0.1361 -0.1473 -0.0386
77441W        W20535   9.639   0.247   5.746 -0.0236  0.0348  0.4794
77442W        W20536   9.563   0.579   4.342 -0.0716  0.0507  0.4777
77443W        W20537   7.873   2.828   3.516  0.2693 -0.1242 -0.1545
77444W        W20538  10.076  34.074   6.984  0.4155 -0.1732  0.0749
77445W        W20539   9.781   0.151   7.136  0.4371  0.2032 -0.4542
77446W        W20540   8.022   3.266   2.234 -0.2008 -0.1068  0.0992
77447W        W20541   9.434  33.459   7.789 -0.1227  0.0238 -0.0165
77448W        W20542   8.425   1.985   6.439 -0.1013  0.0581  0.1361
77449W        W20543   8.792   2.645   7.669 -0.2187  0.0583 -0.1978
77450W        W20544   8.792   1.604   4.209 -0.0080  0.0165 -0.2095
77451W        W20545   9.587   1.657   5.461  0.2467  0.0255 -0.3061
77452W        W20546   9.055   2.300   4.964 -0.2553 -0.0190 -0.1800
77453W        W20547   7.681   3.921   4.032 -0.4898  0.1514 -0.3523
77454W        W20548  11.290   1.169   5.280  0.3382  0.1142 -0.0407
77455W        W20549  10.702   1.235   3.251  0.0273 -0.2462 -0.0599
77456W        W20550  11.935   0.740   5.289 -0.0186 -0.4095 -0.1346
77457W        W20551   9.086   0.173   5.751  0.0361  0.1460 -0.0760
77458W        W20552  10.005  33.803   4.010 -0.0234 -0.1108  0.3092
77459W        W20553   9.885  34.358   4.149 -0.2764  0.3476 -0.3918
77460W        W20554   9.405   0.945   6.127 -0.2040  0.0851 -0.1081
77461W        W20555   8.705   1.112   4.492  0.0815 -0.0876  0.2633
77462W        W20556   8.914   2.620   3.020  0.2592  0.0191  0.1815
77463W        W20557   8.672   0.075   5.433  0.0675 -0.1488 -0.0341
77464W        W20558   8.798  32.502   6.921 -0.3449  0.2767 -0.0629
77465W        W20559   7.956   0.323   7.301  0.0989 -0.1090  0.1337
77466W        W20560   8.058   0.728   5.865  0.1436  0.1867 -0.0618
77467W        W20561   8.861   1.218   6.828 -0.0956 -0.0023  0.1278
77468W        W20562  10.116   2.819   3.118 -0.0038 -0.3130 -0.2025
77469W        W20563   8.880  34.384   5.696  0.0551 -0.0815 -0.2796
77470W        W20564   7.625  34.205   6.220 -0.1359  0.1110  0.0000
77471W        W20565  11.258   0.610   5.689  0.0336 -0.4611 -0.1825
77472W        W20566  10.490   2.474   5.646 -0.1158  0.0202 -0.0693
77473W        W20567   9.149   0.559   4.018 -0.4025  0.0205  0.1922
77474W        W20568  11.005   3.749   7.905 -0.1001 -0.1797  0.3199
77475W        W20569   7.690   1.833   4.389  0.1385 -0.0496  0.1461
77476W        W20570   8.944   1.281   7.945 -0.3323  0.0898  0.1218
77477W        W20571   9.091  34.255   9.164  0.0927  0.0306  0.2025
77478W        W20572   7.846   0.925   5.058 -0.3351  0.3087  0.0253
77479W        W20573   9.904   0.907   6.308 -0.2429 -0.0135 -0.0180
77480W        W20574   9.659   3.700   4.637  0.1248  0.0282 -0.0419
77481W        W20575  10.913   2.377   4.170 -0.2917 -0.1126  0.1931
77482W        W20576  10.337   0.756   5.835  0.3010 -0.2668 -0.2028
77483W        W20577   9.591   2.177   5.604 -0.2629  0.1019 -0.1421
77484W        W20578   8.620  34.600   8.589  0.1955 -0.0462  0.0928
77485W        W20579  11.856   1.456   3.157  0.0592  0.0664  0.1762
77486W        W20580   9.368   1.314   7.656 -0.1577 -0.0976 -0.0681
77487W        W20581  11.367   1.845   4.694 -0.0855 -0.2174 -0.0578
77488W        W20582  10.763  34.150   5.340 -0.3049 -0.0981  0.3581
77489W        W20583   9.771   1.178   5.319 -0.0488  0.0495  0.3406
77490W        W20584   8.226  33.893   8.051  0.0189 -0.1736  0.1765
77491W        W20585   9.485   1.831   6.149 -0.0609  0.0721  0.1130
77492W        W20586  12.401   1.232   5.520  0.1370  0.1461  0.0663
77493W        W20587   9.081  34.524   6.733  0.0152  0.0663 -0.1115
77494W        W20588  10.631  34.419   4.810 -0.1690 -0.3353 -0.0972
77495W        W20589  10.425   1.781   5.739 -0.0358  0.2884  0.0355
77496W        W20590   8.286   1.282   5.934 -0.0784 -0.0743 -0.1679
77497W        W20591  10.378   0.083   5.213  0.1675 -0.1298  0.0184
77498W        W20592   9.171   1.730   7.795 -0.0259  0.0997 -0.1023
77499W        W20593   9.781   0.733   5.858  0.3403 -0.0772 -0.1656
77500W        W20594   9.994   1.782   7.944 -0.0834  0.2866 -0.0931
77501W        W20595   9.678   1.634   4.998  0.0532 -0.1438 -0.1161
77502W        W20596  11.685   0.843   4.318  0.1067 -0.1969  0.1018
77503W        W20597   9.597   3.203   7.422 -0.1334  0.1278  0.0574
77504W        W20598  10.961   3.645   7.369  0.0153 -0.0257 -0.1566
77505W        W20599  10.621   3.590   6.137 -0.1005 -0.3261 -0.0662
77506W        W20600   9.946  34.541   5.619 -0.1409  0.1488 -0.0256
77507W        W20601   8.626  33.538   7.398 -0.3767 -0.2037  0.2789
77508W        W20602   9.408   2.283   3.637  0.1472 -0.1897  0.0297
77509W        W20603   8.777   2.473   5.467 -0.0674  0.0007  0.2292
77510W        W20604  10.238   1.237   6.568 -0.2160 -0.0985 -0.0932
77511W        W20605   8.109   0.545   4.757 -0.0385 -0.0119 -0.2102
77512W        W20606   9.880   1.219   3.759 -0.0600  0.2276  0.0312
77513W        W20607   7.915   3.270   6.723  0.2160 -0.2039  0.1729
77514W        W20608  11.110   1.658   6.551  0.0902  0.2095  0.3056
77515W        W20609   8.270   1.376  11.212 -0.2620 -0.0403 -0.1510
77516W        W20610  10.433   1.321   8.636  0.3226  0.0068  0.2134
77517W        W20611   8.470   0.965   8.455 -0.0709 -0.0566 -0.1150
77518W        W20612  12.534   1.776   8.264  0.4255 -0.1063 -0.0285
77519W        W20613   9.059   0.781   9.285  0.0658 -0.0155 -0.1148
77520W        W20614  10.875   1.549   8.610  0.1577  0.1579  0.1744
77521W        W20615  11.045   2.583   8.975  0.1779 -0.4228  0.0570
77522W        W20616  11.428   3.375   9.885  0.1841 -0.0279  0.0075
77523W        W20617   9.887   1.350   7.803 -0.1778  0.0953 -0.0022
77524W        W20618   7.404   0.486  10.481 -0.2742 -0.1452  0.6245
77525W        W20619   9.350   0.732   8.529  0.0410 -0.3990 -0.3245
77526W        W20620   7.642   0.950  10.247 -0.0564 -0.2413  0.1258
77527W        W20621   9.495   1.748  10.449  0.4488  0.0082 -0.1940
77528W        W20622   8.509   2.282   8.175 -0.3289 -0.1482  0.1442
77529W        W20623   8.167   1.601  10.805  0.0563  0.1038  0.3224
77530W        W20624   9.728   1.929   8.409 -0.0902  0.1229 -0.0149
77531W        W20625  10.890   2.399   8.517  0.2045 -0.0628  0.1345
77532W        W20626   8.146   1.070  10.413 -0.0560 -0.1298 -0.4274
77533W        W20627   7.728   3.187   9.000  0.0699 -0.0402  0.1464
77534W        W20628   7.941   1.721   6.804  0.0459 -0.0405  0.0874
77535W        W20629   7.076   1.974   9.406  0.0146 -0.1112  0.1577
77536W        W20630   8.349   0.524  10.314  0.1644  0.0021  0.0891
77537W        W20631  10.172   0.446   9.661  0.0216  0.2037 -0.0123
77538W        W20632  10.104   1.891  11.260  0.3554  0.1725 -0.0948
77539W        W20633  10.962   3.620   8.684  0.0163  0.0640 -0.0872
77540W        W20634   9.841   3.843   9.669 -0.1689 -0.0807 -0.0520
77541W        W20635   7.380   1.947   8.920 -0.2344  0.3491 -0.2652
77542W        W20636   8.606   3.088   9.551  0.1984 -0.0637 -0.0355
77543W        W20637   9.066   3.440   8.717  0.0854 -0.0709  0.0592
77544W        W20638  11.315   1.628   8.863 -0.1220 -0.1572 -0.1729
77545W        W20639   8.842   3.294   8.183  0.2608  0.0326 -0.0660
77546W        W20640   9.021   1.307  10.589  0.2931  0.3809  0.2833
77547W        W20641   9.988   1.697   8.721  0.0944 -0.0681  0.0149
77548W        W20642   8.672   3.358   9.078 -0.1260 -0.2175 -0.0486
77549W        W20643   8.539   1.954  10.732 -0.1062 -0.0806  0.0803
77550W        W20644   8.988   2.391  10.868 -0.0846 -0.0690  0.0169
77551W        W20645   9.401   2.449   8.716 -0.0135  0.1296  0.2197
77552W        W20646  10.647   0.411   5.590 -0.2587 -0.2321 -0.0715
77553W        W20647   9.497  34.495   7.521  0.1542  0.0279  0.1020
77554W        W20648  10.446   1.516   7.725  0.0559 -0.0696  0.4167
77555W        W20649   8.617   0.151  10.006 -0.0036 -0.0472 -0.1642
77556W        W20650  10.556   4.259  10.103  0.0564 -0.0541 -0.0432
77557W        W20651  10.242   1.383  10.622  0.1208  0.1899 -0.3146
77558W        W20652  10.824   1.837   7.766  0.0646  0.3039 -0.1965
77559W        W20653   8.655   0.971   9.521 -0.0430 -0.2542 -0.3879
77560W        W20654   9.952   2.542   9.295 -0.2972 -0.1737  0.1710
77561W        W20655   9.018   1.120   8.779 -0.0946 -0.2534 -0.0065
77562W        W20656  10.031   2.743   8.172  0.4282  0.0189  0.2420
77563W        W20657  12.124   3.529   9.233  0.0196 -0.3421  0.1279
77564W        W20658  10.367   2.292   7.318  0.0953  0.0085  0.0191
77565W        W20659   8.173   1.007   9.370  0.0963 -0.1306 -0.0213
77566W        W20660   7.593   0.023   8.142 -0.0027  0.0221  0.0106
77567W        W20661  10.013   0.072   8.867  0.2301 -0.3682  0.0959
77568W        W20662   8.512   1.578  10.385  0.1775  0.1363 -0.1291
77569W        W20663  11.074   0.608  11.145 -0.1805  0.0184 -0.1668
77570W        W20664  10.622   1.585   6.730 -0.2547 -0.3713 -0.0188
77571W        W20665   9.122   0.117   9.955 -0.5104  0.0247 -0.4049
77572W        W20666   9.517   1.412   9.973  0.0751 -0.1033  0.2696
77573W        W20667   9.537   2.559   8.214  0.0071 -0.1399 -0.1623
77574W        W20668   9.282   1.638   9.214  0.0907  0.0791  0.1453
77575W        W20669  11.034   2.575   9.980 -0.3176 -0.0559  0.0192
77576W        W20670  11.434   2.313   9.087 -0.0565  0.0423 -0.0291
77577W        W20671   8.603   4.209   9.744  0.0436  0.0173  0.0158
77578W        W20672   8.823   3.606   7.696  0.0756  0.0343  0.0355
77579W        W20673   8.125   2.064   9.880  0.1142  0.0435 -0.3696
77580W        W20674   8.793   2.980   7.189 -0.0773 -0.0151  0.1253
77581W        W20675   7.313   1.408  10.304 -0.4015  0.0451 -0.1376
77582W        W20676   8.598   2.233   9.150 -0.0111  0.1295  0.0261
77583W        W20677  10.479  34.269   8.207  0.1613 -0.0438  0.1069
77584W        W20678   9.696  34.526   9.236 -0.0793 -0.0390 -0.0740
77585W        W20679   8.252   2.661   7.928  0.1796  0.0148 -0.2865
77586W        W20680  11.451   1.731   9.761 -0.2594  0.2053  0.0233
77587W        W20681  10.809   0.459   8.958  0.1047  0.1179  0.0144
77588W        W20682  10.483   1.757   8.177  0.0929 -0.0954  0.1493
77589W        W20683   8.214   1.410   8.627 -0.3018 -0.2874  0.4174
77590W        W20684   7.937   0.612   9.938 -0.0568  0.1576  0.0611
77591W        W20685   8.647   0.679  10.763  0.3069  0.3693 -0.1597
77592W        W20686   6.527   1.126   6.873  0.1752  0.2650 -0.0190
77593W        W20687   9.294   0.254   9.330 -0.2497 -0.1795  0.2299
77594W        W20688   9.437   2.058   9.425 -0.0131 -0.3075  0.2094
77595W        W20689   7.805   1.729   8.694 -0.2087 -0.1596  0.2165
77596W        W20690   9.968   3.717   8.640  0.1508 -0.2710 -0.0744
77597W        W20691  11.772   3.889  10.054  0.0747 -0.1360  0.1749
77598W        W20692  11.003   1.988   8.237 -0.0052  0.0071  0.4150
77599W        W20693   7.944  34.409  10.865  0.0849  0.1725  0.0472
77600W        W20694   7.266  34.522   8.967 -0.0243 -0.0438 -0.0882
77601W        W20695   8.446   3.614   9.946 -0.0742 -0.0258  0.1935
77602W        W20696  10.390   3.730   9.759 -0.0691  0.3224 -0.0789
77603W        W20697   8.242  34.391   8.873 -0.0859  0.2173  0.0947
77604W        W20698  10.721   3.709   9.205  0.0561  0.1575 -0.0310
77605W        W20699   9.854   2.206   9.763 -0.0109 -0.1438 -0.3255
77606W        W20700  10.528   0.776  11.047 -0.1295 -0.2673 -0.5266
77607W        W20701  10.227   0.881   9.842 -0.1368 -0.2268  0.0905
77608W        W20702   7.647  34.206   8.830 -0.0900 -0.0479  0.0603
77609W        W20703  10.207   3.748   9.280  0.1179 -0.2039  0.0636
77610W        W20704   8.909   2.592   8.823  0.0144  0.1113  0.0769
77611W        W20705   7.448   1.546   9.218 -0.0207  0.1079 -0.1306
77612W        W20706   9.462   2.503   9.250  0.4622  0.1533 -0.0213
77613W        W20707   9.492   1.234  10.425 -0.3396  0.1293  0.1096
77614W        W20708   6.911   0.323   8.620 -0.1174  0.2053  0.0480
77615W        W20709  10.475   0.070   8.715  0.2069 -0.0590 -0.2916
77616W        W20710  10.181   0.379   8.484  0.2392 -0.0404 -0.0094
77617W        W20711  10.800   2.334   9.391 -0.2437 -0.0635 -0.0272
77618W        W20712   9.427   1.883   9.915 -0.0997 -0.2368  0.2784
77619W        W20713   9.541   0.319   8.885 -0.0720  0.0002 -0.2422
77620W        W20714   8.763   1.803   9.393 -0.3233  0.0569  0.0068
77621W        W20715  11.358   1.830  10.828  0.1690  0.0598  0.0137
77622W        W20716   8.838   0.666   8.702  0.0433 -0.1993  0.0155
77623W        W20717  11.187   2.980   9.659  0.1752  0.1308  0.0816
77624W        W20718   7.818   2.380  10.338  0.1771  0.0188 -0.3151
77625W        W20719   9.704   1.639   9.524  0.1780  0.0466 -0.1290
77626W        W20720   9.968   0.543  10.188 -0.0241 -0.0151 -0.1869
77627W        W20721   8.326   1.218   7.552 -0.0468  0.0896  0.1272
77628W        W20722   9.147   1.041  10.154 -0.2323  0.2624 -0.0812
77629W        W20723   7.239   3.470   6.199  0.0677 -0.0939  0.0478
77630W        W20724  12.152   0.679  10.571  0.0953 -0.0296 -0.1249
77631W        W20725  10.976  34.610  10.496  0.1217 -0.1169 -0.0865
77632W        W20726  11.354   1.671   8.336 -0.1522 -0.0974  0.0195
77633W        W20727   9.687   0.034   7.923  0.0799  0.0488 -0.1979
77634W        W20728   8.927   2.187   7.815 -0.0659  0.0801  0.2072
77635W        W20729   7.496   1.691  11.485  0.1207 -0.1341 -0.1083
77636W        W20730  11.157   4.339   9.159  0.2668 -0.3282  0.0661
77637W        W20731  10.672  34.496  10.079 -0.0453  0.1972  0.0616
77638W        W20732   8.705   1.421   8.509 -0.0460  0.1621 -0.0322
77639W        W20733   8.498   3.497   8.666  0.3458  0.1014  0.0272
77640W        W20734   9.394   2.294   6.406 -0.3390 -0.2367 -0.0637
77641W        W20735  10.654  34.669  10.896 -0.0655 -0.1284  0.0917
77642W        W20736   6.410   1.059  10.187  0.1240 -0.1555 -0.1113
77643W        W20737  10.104   3.033   6.870  0.0134  0.1484 -0.2058
77644W        W20738  12.973   3.081  11.539 -0.0299 -0.1272 -0.0604
77645W        W20739   9.539   2.016   8.884  0.0271  0.0342 -0.1539
77646W        W20740  10.509  34.363   9.074 -0.0578 -0.5107 -0.2240
77647W        W20741  10.188   2.783   9.697  0.2309 -0.0926  0.0100
77648W        W20742   9.551   1.412   8.730  0.1576  0.0457  0.1555
77649W        W20743   8.190   2.135   8.761  0.2188 -0.2463 -0.1786
77650W        W20744  11.360  34.318   8.527 -0.2033 -0.2872  0.0142
77651W        W20745  11.730   1.516   8.616  0.4516  0.1887  0.2423
77652W        W20746   7.588   0.799  11.078 -0.1518  0.1617  0.0167
77653W        W20747   9.169   0.335  11.353  0.0300 -0.1061 -0.3281
77654W        W20748  10.193   1.634   9.609  0.2363 -0.0382  0.0365
77655W        W20749  10.681   0.466   8.378 -0.3431 -0.0106  0.0820
77656W        W20750   7.412   0.660   8.267  0.1649  0.2080 -0.2378
77657W        W20751  11.259   1.490   9.359 -0.1884 -0.0761  0.0942
77658W        W20752   8.738   1.288   9.903  0.1145 -0.0058  0.0771
77659W        W20753   8.655   2.810   9.178  0.0165 -0.3664  0.1953
77660W        W20754  10.615   1.826  10.289 -0.0494  0.1386  0.2405
77661W        W20755   9.161   1.440   8.348 -0.3776  0.1124  0.2393
77662W        W20756   9.542   2.692  10.355  0.1488  0.0627  0.0576
77663W        W20757  11.921   1.095  10.325  0.1482  0.1999  0.0939
77664W        W20758   9.487   0.756  10.538  0.0730 -0.0344 -0.0796
77665W        W20759   7.870   0.305   9.334  0.1689 -0.1376 -0.2020
77666W        W20760   8.009   1.513   9.191 -0.0212  0.0252  0.1061
77667W        W20761  11.062  34.580   9.667  0.0011 -0.2182 -0.2491
77668W        W20762   8.351   5.246  12.325  0.0061  0.0331 -0.2139
77669W        W20763  10.546   0.232  10.386  0.0456 -0.2825  0.0551
77670W        W20764   9.557   3.459   8.958  0.0311  0.3920 -0.2034
77671W        W20765   7.975   1.325   8.195 -0.0992  0.0100 -0.0627
77672W        W20766   8.916   1.332   9.284  0.0528  0.0534 -0.1140
77673W        W20767   9.026   1.615  10.183 -0.2947  0.1707 -0.4572
77674W        W20768   9.221   0.598   9.792 -0.2237  0.2738  0.3670
77675W        W20769  10.753   1.456  10.598 -0.1841  0.0017  0.0666
77676W        W20770   9.346   3.827   7.819  0.1827  0.1898 -0.0316
77677W        W20771   9.281   1.533  11.521  0.0397 -0.1092  0.1733
77678W        W20772   9.012  34.250   7.734 -0.1198  0.0439  0.2548
77679W        W20773   9.875   2.272   7.923  0.1485 -0.2649  0.0217
77680W        W20774   8.089   0.733   8.821 -0.0481  0.2123 -0.1180
77681W        W20775  11.799   3.370   8.466 -0.0999 -0.0588  0.1003
77682W        W20776   7.550   1.414  11.073 -0.0506  0.2657 -0.0615
77683W        W20777  10.623   2.381   8.971 -0.1891  0.1125 -0.1717
77684W        W20778  10.242   0.753   8.857  0.0063 -0.1025  0.0466
77685W        W20779   7.556   1.110   8.474  0.1236 -0.0064  0.0243
77686W        W20780   8.609   2.113  10.222 -0.3307  0.1009 -0.1150
77687W        W20781  10.404   2.427  10.584 -0.0851 -0.2359 -0.1219
77688W        W20782  10.959   2.843   8.271 -0.2819 -0.0185 -0.0357
77689W        W20783  11.019   0.285  10.074 -0.5118 -0.0256  0.1852
77690W        W20784   9.145   1.986  11.188  0.2580 -0.0495  0.1610
77691W        W20785  10.582   0.541  10.034 -0.0773 -0.3117  0.3677
77692W        W20786  10.559   1.824   7.287  0.0054 -0.0068 -0.1094
77693W        W20787   7.823   2.103   9.062  0.3738 -0.0077  0.1908
77694W        W20788  10.886   1.487   8.122  0.2154  0.2141  0.2076
77695W        W20789  10.148   0.799   9.345  0.2701  0.2134 -0.0337
77696W        W20790  10.095   1.832  10.387  0.0100  0.0614 -0.0055
77697W        W20791   9.638   1.489   8.182  0.1458 -0.0630  0.2289
77698W        W20792  10.187  34.493   9.422  0.0574  0.2142  0.1495
77699W        W20793  11.136   0.392   8.129  0.1046  0.1694  0.0669
77700W        W20794   8.904   1.075   7.423 -0.4426 -0.2248  0.0415
77701W        W20795   8.577   2.584  10.531  0.1292  0.1026 -0.0140
77702W        W20796   9.036   0.235   8.429 -0.2832  0.1980 -0.0625
77703W        W20797   9.683   3.174   8.554  0.0073  0.0553 -0.4478
77704W        W20798   9.622   0.707   9.527  0.0191 -0.0485  0.0730
77705W        W20799  11.469   2.159   8.177 -0.5411 -0.2415 -0.0238
77706W        W20800   9.402   1.186   9.304 -0.0659 -0.2329 -0.0571
77707W        W20801   8.340   0.509   7.952  0.0813  0.3845 -0.1407
77708W        W20802   9.639   1.945   7.628  0.0040  0.1105 -0.0606
77709W        W20803  10.518   3.558  10.923  0.0071 -0.1030 -0.1049
77710W        W20804  10.083  34.074   9.022 -0.0559 -0.2438 -0.1136
77711W        W20805   8.158   3.109   8.748  0.1423  0.0508  0.3349
77712W        W20806   9.826  34.360   9.789 -0.2444 -0.2102 -0.0164
77713W        W20807   6.989   3.443   9.756  0.0939 -0.0768 -0.0812
77714W        W20808   8.655   2.798   8.153 -0.0945 -0.3013  0.0906
77715W        W20809   9.110   0.000   8.881 -0.0364 -0.2707  0.1476
77716W        W20810  11.475   0.846  10.203  0.1529  0.2302 -0.0490
77717W        W20811   9.097   1.559   9.695 -0.1719 -0.0988  0.0097
77718W        W20812   9.125   2.176  10.268  0.0279 -0.0702  0.1287
77719W        W20813  11.875   2.415   8.366  0.0606  0.0636  0.3795
77720W        W20814   8.693   1.669  11.081 -0.3579 -0.0416 -0.1266
77721W        W20815   9.646   0.930  10.000  0.0993 -0.0649  0.0040
77722W        W20816   7.848   0.015  10.416 -0.2455 -0.0494 -0.1113
77723W        W20817   9.840   1.638   6.534 -0.4673 -0.0973 -0.0948
77724W        W20818   6.199   0.899  11.991  0.1556 -0.1398 -0.2512
77725W        W20819   8.638   4.525   7.614 -0.4234  0.1705  0.1836
77726W        W20820   9.867   2.650   8.713  0.0039  0.1683  0.2399
77727W        W20821   9.398   2.090   8.009  0.0599  0.2269  0.0257
77728W        W20822   9.921   3.663  10.177 -0.2792  0.2428  0.0956
77729W        W20823   9.224   0.776   7.721  0.0119  0.0682  0.0661
77730W        W20824  10.362   2.815   9.092 -0.1077 -0.0781  0.0340
77731W        W20825   7.837   2.755   8.739 -0.0976 -0.2550 -0.1729
77732W        W20826  10.410   4.040   7.827 -0.0245  0.0755 -0.0643
77733W        W20827   7.480   3.672   8.308  0.0252  0.0960 -0.4550
77734W        W20828   9.874   0.679   8.234  0.1240  0.2088  0.2111
77735W        W20829  10.539   1.038   9.148 -0.3779  0.0168  0.1344
77736W        W20830  11.920  34.487   8.406 -0.0030 -0.1089  0.0402
77737W        W20831   7.302   0.341  11.200 -0.0222 -0.0402  0.3935
77738W        W20832   7.982  33.994   9.111  0.0145  0.2458 -0.4698
77739W        W20833  11.343   3.866   9.133 -0.0856  0.0389  0.4939
77740W        W20834   8.108   0.053   7.924 -0.1822 -0.0796  0.5239
77741W        W20835   7.977   0.020   9.802 -0.2576 -0.0763 -0.2568
77742W        W20836   9.629   0.216   9.658  0.0369 -0.0167 -0.2304
77743W        W20837  10.346   2.601   8.566  0.5335  0.1753  0.0660
77744W        W20838   8.450   0.643   9.189 -0.0266 -0.1573 -0.0598
77745W        W20839   9.216   2.880   8.529  0.0039  0.1894  0.0213
77746W        W20840   8.149   3.233   9.775  0.1865 -0.1781 -0.5089
77747W        W20841  11.107   4.009  10.004  0.2914 -0.1622 -0.0815
77748W        W20842   7.801   0.039   8.921 -0.2485 -0.3208  0.0475
77749W        W20843  10.764   0.929   8.642  0.1538  0.0449  0.2545
77750W        W20844   7.095   0.963  10.272 -0.2453 -0.0256  0.2379
77751W        W20845   9.116   1.068   9.680 -0.1078 -0.1341 -0.0033
77752W        W20846  10.564   1.997   8.689 -0.0495 -0.0022 -0.1031
77753W        W20847   9.960   2.007   9.264  0.3107  0.1826 -0.2304
77754W        W20848   8.164   0.619  11.029  0.1331 -0.1020  0.2681
77755W        W20849   8.772   0.342   9.056 -0.3338  0.1425 -0.2313
77756W        W20850   9.624   0.789   9.009 -0.2167 -0.0829  0.0410
77757W        W20851   8.402  33.628  10.456  0.1638 -0.0709 -0.2280
77758W        W20852   8.865   0.719   6.973 -0.0753 -0.0548  0.0343
77759W        W20853   8.763   3.695  10.363 -0.1840  0.0203  0.0239
77760W        W20854   8.462   1.450   9.543 -0.0007 -0.0981 -0.1499
77761W        W20855   6.860  34.161   9.942  0.0533 -0.1723 -0.1468
77762W        W20856  10.918   1.950   6.922 -0.0981  0.0753 -0.1055
77763W        W20857  10.479   1.816  10.806  0.3052  0.0556  0.0870
77764W        W20858   9.489   4.265   9.719 -0.0015 -0.2085  0.1635
77765W        W20859  10.412   3.332   9.368 -0.0870  0.0573  0.0283
77766W        W20860  10.609   1.874   9.767 -0.2697  0.2402  0.1273
77767W        W20861   8.567   1.239  10.818  0.0303  0.2115  0.1901
77768W        W20862  12.078   2.833   9.842 -0.0760  0.0024  0.3857
77769W        W20863  11.938   3.431  10.033 -0.1559 -0.0978 -0.1285
77770W        W20864   9.403  33.969   9.670 -0.0385 -0.1252  0.0040
77771W        W20865   7.735   1.385  10.512  0.0482  0.0488 -0.2040
77772W        W20866   8.298   3.965   8.673  0.3082 -0.0547 -0.0402
77773W        W20867  10.934   0.758  10.322  0.1741 -0.0251 -0.1235
77774W        W20868   9.339   2.782   7.268  0.0698 -0.2421 -0.3479
77775W        W20869   7.064   4.511   9.689  0.0892 -0.1993 -0.1571
77776W        W20870   8.252   1.846   8.281 -0.0630 -0.1278 -0.0533
77777W        W20871  10.133   2.261   8.877 -0.1703  0.3330  0.1262
77778W        W20872   9.586   2.953   9.087  0.1698  0.3208  0.3405
77779W        W20873  12.120   3.756   9.692  0.0085 -0.0395  0.0069
77780W        W20874   9.904   1.285   9.175  0.1592 -0.0300  0.2063
77781W        W20875  13.844   1.504   9.304 -0.2011 -0.0665 -0.1526
77782W        W20876   9.864   0.370   9.284 -0.0457 -0.4566  0.1443
77783W        W20877  10.976  34.226   9.258  0.2138  0.2144 -0.3327
77784W        W20878  10.792  34.686   7.875 -0.6523  0.0827  0.0610
77785W        W20879   7.167   0.691  10.896 -0.1420  0.1569  0.3157
77786W        W20880   7.588   1.059   7.961  0.0695 -0.1439  0.2739
77787W        W20881   8.855   1.789   8.200  0.1256  0.0428  0.0363
77788W        W20882   9.405   2.440   9.864  0.1323 -0.0877  0.0807
77789W        W20883   8.740   2.046   8.640  0.0690  0.0808 -0.0011
77790W        W20884   8.459  34.400   9.751 -0.1412  0.0518 -0.1235
77791W        W20885  11.827   4.369   7.319 -0.2324  0.2275 -0.2456
77792W        W20886   9.258  33.718  10.804  0.2265 -0.0838  0.1804
77793W        W20887   7.798   1.102   9.770 -0.0455  0.0538 -0.0551
77794W        W20888  10.874   0.984   8.185  0.2500  0.0629 -0.1830
77795W        W20889  11.348   2.954   9.189 -0.1558  0.0199  0.0690
77796W        W20890   9.609   0.103  10.145 -0.1338  0.0516 -0.1222
77797W        W20891   8.325   2.632   9.522 -0.0207  0.1050 -0.1280
77798W        W20892   6.975   0.651   8.070 -0.1783 -0.0042 -0.2658
77799W        W20893  10.190   1.348   8.145 -0.2710  0.1148  0.2720
77800W        W20894   9.729   2.252  10.261 -0.0031 -0.2078 -0.0939
77801W        W20895  10.305   3.080   8.528 -0.1428 -0.4892 -0.3685
77802W        W20896   8.129   1.026  12.159  0.4344 -0.3041  0.0217
77803W        W20897  10.486   1.078   7.889 -0.1514  0.1022 -0.0352
77804W        W20898  12.078   0.940   7.524 -0.0087 -0.1417 -0.0832
77805W        W20899  10.689   0.197   9.699  0.1582 -0.1874 -0.1004
77806W        W20900  10.325   2.261   9.543 -0.0942  0.0833 -0.0900
77807W        W20901  11.469   2.309  10.024 -0.2205 -0.5392 -0.0758
77808W        W20902   8.699   0.983  10.374 -0.2055  0.1268  0.4663
77809W        W20903  11.450  34.014   8.131 -0.0631 -0.2261  0.0042
77810W        W20904  11.513   3.037   7.234 -0.0317 -0.3385  0.1871
77811W        W20905   7.444   1.980  10.833  0.3514  0.2476  0.1658
77812W        W20906   7.967  34.636   8.456 -0.1232  0.2361 -0.0332
77813W        W20907   9.681   2.808   9.611 -0.0011 -0.1861 -0.2872
77814W        W20908   8.975   2.481   9.452 -0.0477  0.1264  0.0125
77815W        W20909  11.214   4.364   7.447  0.0215 -0.0528  0.3481
77816W        W20910   9.088   2.147   9.048 -0.3392 -0.0722 -0.1610
77817W        W20911   9.499   5.070  12.227 -0.1874  0.0156 -0.0113
77818W        W20912   9.901   1.215   9.700 -0.1559 -0.0115  0.2874
77819W        W20913   7.018  33.920  11.460 -0.1913  0.0081 -0.2162
77820W        W20914   8.246   2.607   8.986  0.3963 -0.2077 -0.4049
77821W        W20915   8.946   0.796   8.247 -0.0122 -0.1360 -0.0949
77822W        W20916  10.536   2.711  10.189 -0.1841 -0.0706 -0.0907
77823W        W20917   7.906   0.593  10.552 -0.3144  0.2115 -0.2117
77824W        W20918   9.425   0.393   8.151  0.2088 -0.0339 -0.1424
77825W        W20919   6.680   3.763   9.543  0.2411 -0.0125 -0.2045
77826W        W20920  10.038   2.143  10.784 -0.0553 -0.0446  0.3888
77827W        W20921   9.468   6.803   1.127 -0.0932 -0.1011  0.2067
77828W        W20922   7.426   6.121   1.022 -0.1802  0.1472  0.0816
77829W        W20923  10.556   2.939  30.781  0.2761  0.1757  0.0257
77830W        W20924  11.426   4.776   0.203 -0.2346 -0.0957 -0.0510
77831W        W20925   7.007   4.540  31.930  0.3408  0.1005  0.0320
77832W        W20926  10.591   6.532  31.688 -0.1010 -0.0031  0.1035
77833W        W20927   8.276   3.718   3.387  0.1029  0.0540 -0.1736
77834W        W20928  10.109   5.965   1.260 -0.2639 -0.1024 -0.2827
77835W        W20929  10.306   6.795   0.821 -0.1088 -0.3100  0.1229
77836W        W20930   8.107   4.255  30.834 -0.1558  0.1719  0.1341
77837W        W20931   7.909   4.632   2.423  0.0443  0.2559  0.1586
77838W        W20932   7.961   4.276   2.076 -0.0972 -0.1545  0.0593
77839W        W20933   8.075   3.381   1.263 -0.1101 -0.2695 -0.2353
77840W        W20934   6.469   2.239   1.259  0.0429  0.2073  0.1659
77841W        W20935  10.448   5.030   0.984 -0.4201  0.0294 -0.0017
77842W        W20936   6.960   7.025   1.281 -0.0890  0.3064  0.2116
77843W        W20937   8.137   5.210   1.786  0.0516 -0.0311  0.2785
77844W        W20938   8.123   4.720   1.011 -0.1351 -0.0750 -0.0596
77845W        W20939   9.854   7.043   0.862  0.2799 -0.3789  0.2574
77846W        W20940   8.755   3.618   2.616  0.0619  0.0649 -0.1156
77847W        W20941   9.059   4.015   3.492  0.1045 -0.0683 -0.3084
77848W        W20942   9.240   7.069   1.984 -0.0394  0.1177 -0.1035
77849W        W20943   6.233   6.569  30.591 -0.2490  0.0889 -0.2757
77850W        W20944   7.333   5.431   2.609  0.1322 -0.0770 -0.1403
77851W        W20945   7.951   5.107   1.373  0.1014  0.2128 -0.1589
77852W        W20946   9.877   3.113   1.130 -0.0365 -0.0208  0.0838
77853W        W20947   9.818   4.984  31.737  0.0575 -0.0081  0.0709
77854W        W20948   7.985   7.655   1.553 -0.0314  0.0925 -0.1333
77855W        W20949  10.421   7.166   2.604  0.1712  0.0375  0.3375
77856W        W20950   9.765   4.920   2.105 -0.0160 -0.0864  0.2429
77857W        W20951   7.655   7.129   0.313  0.3326  0.1196 -0.0384
77858W        W20952   7.706   6.578   0.219 -0.1828  0.0312 -0.3873
77859W        W20953   9.470   7.826   2.740  0.0112  0.1622  0.1815
77860W        W20954  11.386   6.715   0.805 -0.0618  0.0677  0.3592
77861W        W20955  11.117   7.536   0.720  0.1758  0.0652  0.1015
77862W        W20956   9.822   5.723   4.126  0.0250 -0.2399 -0.1444
77863W        W20957   6.492   5.635   0.045  0.0022  0.0376  0.0722
77864W        W20958   9.752   7.414   2.601  0.1992 -0.0822  0.0403
77865W        W20959   9.803   6.861   2.870 -0.1798 -0.0220  0.4194
77866W        W20960   8.798   5.123   1.858  0.0809  0.1955  0.2032
77867W        W20961   9.252   5.047   0.410  0.0575  0.2784 -0.3272
77868W        W20962  10.244   7.271   0.614  0.0468 -0.1302 -0.2661
77869W        W20963   8.411   4.835   1.632 -0.1224  0.3084  0.0430
77870W        W20964   8.962   5.864   3.324  0.0126 -0.0330 -0.1526
77871W        W20965   9.172   6.925   2.503  0.0642  0.3024  0.0180
77872W        W20966   9.780   3.280   3.154  0.0894  0.0715 -0.1199
77873W        W20967   9.193   7.559   1.738  0.1954  0.0972 -0.1145
77874W        W20968   9.589   4.113  31.549  0.0206  0.1396 -0.1076
77875W        W20969   8.249   4.543  31.563  0.0615 -0.0404  0.0866
77876W        W20970  11.228   3.991   0.490  0.0985  0.0029  0.0783
77877W        W20971   8.421   3.668   2.162 -0.2642 -0.2968  0.2293
77878W        W20972   7.354   7.451   0.806  0.2532  0.3128 -0.2896
77879W        W20973   9.984   4.417   2.329 -0.0536  0.2078  0.1507
77880W        W20974  11.157   6.372   2.577 -0.0824  0.3048 -0.2962
77881W        W20975   9.413   5.893  31.624 -0.1744 -0.0878 -0.2786
77882W        W20976   9.788   4.192   1.869  0.1345 -0.1656 -0.1730
77883W        W20977   8.360   6.723   2.075 -0.2056  0.0939  0.0253
77884W        W20978   7.866   5.776   2.265 -0.2543 -0.2467 -0.0605
77885W        W20979  10.319   6.984  31.795 -0.3640  0.2498 -0.1050
77886W        W20980  10.135   5.261   0.595 -0.0209 -0.0197  0.2704
77887W        W20981   9.355   5.530   0.576 -0.0746 -0.1210 -0.1114
77888W        W20982   7.713   4.810  30.766  0.0488  0.0908 -0.3607
77889W        W20983   8.381   4.901   2.626 -0.0228  0.2721 -0.0803
77890W        W20984   6.963   4.099   2.616 -0.2142 -0.2878  0.0180
77891W        W20985   7.567   4.552   0.182 -0.2114  0.2913  0.0530
77892W        W20986  10.259   5.396   2.732  0.2625  0.0119 -0.0123
77893W        W20987   7.585   7.110   2.139 -0.2832  0.0435 -0.0574
77894W        W20988   9.506   3.433   0.697 -0.0473 -0.1021  0.1372
77895W        W20989   8.371   4.466   2.334  0.1756  0.4117 -0.1683
77896W        W20990  11.359   5.886   2.340 -0.0903  0.0835  0.0469
77897W        W20991   8.657   7.016  31.916  0.1082  0.2783 -0.0854
77898W        W20992  11.053   4.223   2.217 -0.0641 -0.0373  0.1719
77899W        W20993   9.215   3.439   1.511  0.0729  0.5326  0.3333
77900W        W20994   9.162   4.993  31.892 -0.0447 -0.2662 -0.1194
77901W        W20995   9.160   7.501   2.323 -0.0591  0.3640 -0.2500
77902W        W20996  10.111   7.318   2.143  0.2602 -0.2209 -0.2182
77903W        W20997  10.583   5.126   0.303 -0.0036 -0.1534 -0.0580
77904W        W20998   7.844   6.887   1.254  0.2801 -0.0914 -0.2247
77905W        W20999   8.554   5.611   1.605 -0.3625  0.1908  0.0345
77906W        W21000  10.296   6.349   3.340  0.2126 -0.4783 -0.1476
77907W        W21001   8.286   6.577   0.235 -0.3007 -0.2054 -0.1954
77908W        W21002   7.012   6.974   2.165  0.0145  0.2088  0.1063
77909W        W21003   7.429   6.748  31.844  0.1171 -0.2586 -0.2537
77910W        W21004   7.766   3.625   2.836 -0.0789  0.0026 -0.1682
77911W        W21005   8.846   5.029   2.902 -0.0178 -0.0798  0.1850
77912W        W21006   9.201   3.789   0.867  0.0311 -0.2253  0.1339
77913W        W21007   9.488   3.959   3.090  0.0936  0.2413 -0.1947
77914W        W21008  11.181   4.005   0.957  0.0666 -0.1482  0.1681
77915W        W21009   9.797   6.536   0.716  0.3289  0.0808 -0.1944
77916W        W21010  11.964   7.759   0.257  0.0044 -0.1146  0.1923
77917W        W21011  10.245   4.599   0.100  0.0054  0.1526 -0.0075
77918W        W21012  10.168   5.829  31.418  0.2415  0.2406  0.0536
77919W        W21013   8.100   5.729   3.090  0.2815 -0.0190  0.0056
77920W        W21014   8.292   5.711   2.535  0.0770 -0.2664 -0.0651
77921W        W21015   8.764   4.954   3.718 -0.2552 -0.1414  0.1505
77922W        W21016   8.275   6.333   0.950  0.1062  0.3441 -0.1896
77923W        W21017  10.166   5.000   1.756  0.0753 -0.0572  0.2317
77924W        W21018   7.480   5.030   0.973 -0.2601  0.3286 -0.1092
77925W        W21019   9.774   4.416   1.011 -0.1481 -0.0207  0.0493
77926W        W21020   9.466   4.200   0.142  0.0325  0.2828  0.2570
77927W        W21021   6.936   6.469   0.944 -0.0680 -0.0856  0.3477
77928W        W21022  11.513   4.133   2.427 -0.0342  0.0388 -0.1588
77929W        W21023   9.295   5.941   0.948  0.0828 -0.4491 -0.0966
77930W        W21024  10.625   6.408   3.729 -0.0440  0.0928 -0.1050
77931W        W21025   9.428   6.786   0.404 -0.0065  0.2785  0.0205
77932W        W21026   8.435   3.614   0.891 -0.0087 -0.0462 -0.0253
77933W        W21027   8.562   3.108  31.464  0.1902 -0.1776  0.1903
77934W        W21028   7.928   7.984   0.717  0.0463  0.2580 -0.1098
77935W        W21029   8.869   5.118   1.392 -0.1185 -0.2485 -0.1612
77936W        W21030   8.811   3.343   0.493  0.2045 -0.1878  0.2047
77937W        W21031   9.743   6.435   0.217  0.2198 -0.2415  0.3252
77938W        W21032   7.754   5.475   0.451 -0.2479  0.1678 -0.0200
77939W        W21033   7.395   6.158   2.432  0.1765 -0.3524  0.3176
77940W        W21034   9.516   4.298   1.470 -0.2964  0.0951  0.0697
77941W        W21035  10.331   5.532   2.025 -0.2765  0.3614 -0.0727
77942W        W21036   9.869   7.664  31.747 -0.2037  0.0296 -0.0298
77943W        W21037   7.015   4.234   0.963 -0.0243  0.0200 -0.2090
77944W        W21038  10.304   6.919   1.742  0.3677  0.2674  0.0700
77945W        W21039   7.150   7.863   0.315 -0.0594  0.3475  0.0655
77946W        W21040   8.995   5.137  31.150 -0.0356 -0.3135 -0.0708
77947W        W21041   8.902   6.401   1.969 -0.0388  0.2686  0.0414
77948W        W21042  11.582   6.793   1.850 -0.1872  0.1146  0.2654
77949W        W21043   7.171   3.465   3.014 -0.0146 -0.2660 -0.0045
77950W        W21044   9.882   3.828   2.263 -0.0109 -0.2616 -0.2187
77951W        W21045   7.859   4.309   0.530  0.0756  0.0049  0.2045
77952W        W21046   8.255   6.214   1.982 -0.0441  0.2547 -0.1289
77953W        W21047   8.639   3.863   1.555  0.0444  0.1217  0.1103
77954W        W21048  10.034   3.556   1.206  0.0704 -0.2044 -0.3208
77955W        W21049   9.174   5.043   4.430 -0.2683  0.1946 -0.0954
77956W        W21050   9.914   5.693  31.813  0.0886 -0.0365  0.1170
77957W        W21051  10.125   4.953  29.903  0.1023  0.1075 -0.1414
77958W        W21052   8.887   3.692  31.954 -0.1451  0.0198  0.0757
77959W        W21053   7.486   6.810   2.578  0.3431  0.1963  0.0361
77960W        W21054  10.591   6.167   0.739  0.1148 -0.0572  0.0714
77961W        W21055   8.811   5.584   0.909  0.0818 -0.1694 -0.1603
77962W        W21056   9.184   3.839   0.377 -0.0033  0.1529 -0.0767
77963W        W21057  11.618   6.099   0.030 -0.3361  0.3468  0.0827
77964W        W21058   8.690   5.384   2.505 -0.0244 -0.0966  0.2461
77965W        W21059   8.575   7.202   3.319 -0.1823  0.0036 -0.0202
77966W        W21060  10.791   7.611   1.129 -0.1881  0.0134  0.2129
77967W        W21061   9.704   3.613   2.816 -0.0697  0.1594 -0.1912
77968W        W21062   7.641   3.838  31.290  0.2311  0.0566  0.0510
77969W        W21063   8.439   3.640   0.172  0.0797 -0.2248  0.0833
77970W        W21064   7.309   6.782  31.329  0.2703 -0.2368 -0.1885
77971W        W21065  10.630   4.368   1.564  0.1682  0.0705  0.0117
77972W        W21066   8.872   4.168   2.232 -0.0425  0.1330  0.0549
77973W        W21067  10.793   4.626   2.372 -0.0416  0.0053  0.1174
77974W        W21068  10.496   6.041   1.755  0.2857 -0.1540 -0.0476
77975W        W21069  10.099   6.456   1.071 -0.1350  0.2237  0.1584
77976W        W21070   9.464   4.804   2.533  0.0119  0.0265 -0.1154
77977W        W21071   6.938   5.348  31.863  0.2246 -0.0392 -0.0072
77978W        W21072   8.309   4.119   0.755 -0.2699  0.1851  0.1849
77979W        W21073   8.338   5.331   2.900  0.1101  0.1839 -0.1244
77980W        W21074   7.235   6.402   2.818  0.1867 -0.4717 -0.3351
77981W        W21075   9.773   6.238   1.959 -0.0385  0.1163 -0.0789
77982W        W21076  11.224   7.840   1.103 -0.2300 -0.1480  0.1150
77983W        W21077   9.930   4.101   2.814 -0.2050  0.4395  0.0769
77984W        W21078   9.067   3.269   0.912 -0.1456 -0.1179  0.2031
77985W        W21079   9.892   8.044   1.094 -0.0995  0.2785  0.4860
77986W        W21080   8.490   4.690  30.995  0.1545  0.0153 -0.1613
77987W        W21081   8.044   3.900   2.507 -0.0548  0.2249  0.2005
77988W        W21082  10.570   6.525   1.849  0.0659 -0.1871  0.0958
77989W        W21083   8.089   6.186  31.328 -0.3338  0.0096  0.1457
77990W        W21084  10.173   6.102   0.409  0.1470  0.1839 -0.0375
77991W        W21085   8.714   7.238   0.815  0.2573 -0.2233 -0.0266
77992W        W21086  11.170   3.718   2.247 -0.1770 -0.1965  0.3575
77993W        W21087   5.946   4.967   2.640 -0.3376 -0.1144 -0.0542
77994W        W21088   8.091   4.641   0.105 -0.1350 -0.0180 -0.1366
77995W        W21089   8.415   5.220   1.240  0.2139  0.2029  0.0932
77996W        W21090  10.059   4.194   1.419  0.1712  0.1596  0.2350
77997W        W21091  10.559   5.006  30.751 -0.0225  0.0697  0.0438
77998W        W21092   7.588   4.091   2.728 -0.0041  0.0466 -0.2981
77999W        W21093   8.472   4.366   1.414  0.2404 -0.2274  0.0294
78000W        W21094   9.160   6.168   1.627  0.0463 -0.1578  0.1036
78001W        W21095   9.242   4.792   1.643  0.0916 -0.0337 -0.3152
78002W        W21096   9.822   3.844   0.225  0.1412 -0.5419 -0.1795
78003W        W21097   9.641   7.394   2.013 -0.2976  0.3521  0.2075
78004W        W21098   8.464   4.218   1.881 -0.1937 -0.3938  0.0945
78005W        W21099   7.492   4.009   0.181 -0.1063  0.0924  0.2248
78006W        W21100  10.608   6.015   1.186 -0.2361 -0.0006  0.1316
78007W        W21101   8.980   5.761   1.351  0.3449 -0.2879  0.1450
78008W        W21102   7.778   6.470   0.964  0.1805 -0.0078  0.1927
78009W        W21103  10.369   7.719   2.368 -0.0044 -0.2060  0.0670
78010W        W21104   8.765   4.643  31.621  0.2305  0.0928 -0.2562
78011W        W21105   8.582   6.337   2.351  0.0051 -0.1721  0.1080
78012W        W21106   9.008   5.563   2.931 -0.3257  0.1574  0.2451
78013W        W21107  10.248   5.772   0.839 -0.5091  0.2697  0.3109
78014W        W21108   7.619   4.890   3.332 -0.0144  0.3099 -0.3854
78015W        W21109   7.866   6.045   1.180 -0.1044  0.2526 -0.3220
78016W        W21110  10.991   5.193   1.654 -0.0152  0.0486  0.1181
78017W        W21111   9.561   6.488   1.586  0.0525  0.1356  0.1998
78018W        W21112   8.189   5.129   4.089  0.0311 -0.2012 -0.2935
78019W        W21113   8.180   5.921   1.574  0.1889 -0.3200  0.1409
78020W        W21114   9.241   3.336   0.247  0.0929 -0.3169  0.1222
78021W        W21115  10.734   7.122   1.243  0.2277  0.0557  0.1435
78022W        W21116   9.440   4.544   2.076  0.1441  0.1215 -0.3234
78023W        W21117   9.084   5.356  31.572  0.2965  0.2759  0.1950
78024W        W21118   8.108   5.283   2.349  0.3442 -0.0378  0.2228
78025W        W21119   7.041   5.897  31.835  0.0376 -0.1363 -0.4641
78026W        W21120   8.816   4.641   0.932  0.1318  0.3394  0.2377
78027W        W21121   8.305   7.514   2.395 -0.1279 -0.2203 -0.3077
78028W        W21122   8.170   5.003  30.534  0.1857  0.2722 -0.0977
78029W        W21123   8.225   7.216   0.907  0.0179 -0.1946  0.0181
78030W        W21124  10.363   3.178   0.055 -0.1087 -0.1876 -0.0428
78031W        W21125   9.418   6.351  30.276  0.0197  0.2014 -0.1736
78032W        W21126   8.966   5.136   0.861 -0.2091  0.2022 -0.0577
78033W        W21127   9.322   4.462   3.512 -0.1928  0.0754 -0.1573
78034W        W21128   7.599   4.983   2.643  0.1794 -0.1025 -0.2691
78035W        W21129  10.281   6.062  31.853 -0.0813 -0.0285 -0.2841
78036W        W21130   7.982   4.444   1.569  0.2167  0.0599  0.0508
78037W        W21131  10.098   7.216   3.075  0.1383 -0.0472 -0.3155
78038W        W21132   9.963   5.936   3.376 -0.2804  0.1791  0.1180
78039W        W21133   7.534   5.245   1.595  0.1224  0.1127 -0.1701
78040W        W21134   7.788   4.864   0.575 -0.2393 -0.0561  0.3120
78041W        W21135   9.570   5.785   1.416  0.0456 -0.0076  0.1127
78042W        W21136  10.592   7.159   2.135 -0.1625 -0.2721  0.0130
78043W        W21137   8.446   5.891   0.535  0.5234  0.1592 -0.1749
78044W        W21138   8.892   4.588   1.983 -0.0921  0.2558 -0.1607
78045W        W21139   8.312   6.447   2.762 -0.1357  0.0437  0.0518
78046W        W21140   9.075   3.990  31.551 -0.0519 -0.0050  0.0838
78047W        W21141   9.007   5.119  30.638  0.1756 -0.1040  0.0912
78048W        W21142   7.209   5.794   1.452  0.0335 -0.3580  0.1092
78049W        W21143   7.523   3.834   1.540  0.2105  0.1583  0.0124
78050W        W21144  11.443   7.216   0.539 -0.0566 -0.2491 -0.1029
78051W        W21145   9.193   3.904   1.423  0.0343 -0.0480 -0.1593
78052W        W21146  10.544   2.808   2.197 -0.1132  0.0829 -0.0532
78053W        W21147  10.389   4.626   2.046  0.3642  0.1425 -0.0937
78054W        W21148   8.621   4.580   2.907 -0.1776  0.1422  0.1004
78055W        W21149   8.284   4.737   3.726  0.0829  0.0453  0.0664
78056W        W21150  10.486   5.736   3.315  0.0045 -0.0979 -0.0477
78057W        W21151   8.492   4.079  31.759 -0.0992 -0.1863 -0.1429
78058W        W21152  11.932   3.996   2.214  0.0500  0.0002 -0.0905
78059W        W21153   8.736   4.936   0.472  0.3594 -0.2873  0.1692
78060W        W21154   9.537   4.393  31.037  0.1663  0.0623 -0.1265
78061W        W21155   8.786   6.118   1.003  0.2638 -0.1169  0.3084
78062W        W21156  10.357   3.766   2.503  0.2881 -0.1011 -0.0798
78063W        W21157   6.517   4.556  31.779 -0.0676 -0.2079 -0.3580
78064W        W21158  10.879   3.589   2.614  0.4040 -0.1927  0.0604
78065W        W21159   8.483   5.614   0.115  0.1371  0.0849  0.0620
78066W        W21160   8.404   5.873   1.101  0.0781 -0.0891 -0.3271
78067W        W21161   8.807   5.598  30.877 -0.0077 -0.2695  0.3416
78068W        W21162   7.072   4.416   2.136 -0.0847  0.2185 -0.0999
78069W        W21163   8.762   6.730   2.795 -0.2514  0.2335  0.1381
78070W        W21164   7.106   5.243   0.711  0.2757 -0.0239 -0.0754
78071W        W21165   8.107   5.141   0.288  0.0985 -0.2707 -0.1370
78072W        W21166   9.261   5.289   2.566 -0.4546 -0.1850 -0.3981
78073W        W21167   9.822   5.157   2.580  0.0855  0.1897  0.3543
78074W        W21168   8.326   4.702   0.537 -0.0101  0.0600 -0.0880
78075W        W21169  10.485   3.171   2.981 -0.0371  0.1126  0.2783
78076W        W21170   8.073   6.767   0.612 -0.1121 -0.2855  0.4457
78077W        W21171   8.401   2.181   0.945  0.2337 -0.1450  0.1267
78078W        W21172   8.557   7.470   1.836  0.0668 -0.0725 -0.0589
78079W        W21173   7.801   4.865   3.837 -0.0383 -0.1015 -0.3374
78080W        W21174   7.317   6.464   0.671 -0.2803 -0.1711  0.2695
78081W        W21175   8.760   3.771   3.122  0.0362 -0.1207  0.0879
78082W        W21176  10.590   4.904   1.455 -0.0263 -0.1373  0.0590
78083W        W21177  10.770   5.415   0.672 -0.0467 -0.4195 -0.0219
78084W        W21178  11.785   6.397   1.584  0.1736 -0.2259 -0.0094
78085W        W21179   9.395   4.895   1.188 -0.1063  0.0176 -0.4126
78086W        W21180   8.722   5.920   1.999 -0.1602  0.0699 -0.2152
78087W        W21181  10.090   5.853   2.860 -0.0465 -0.1807  0.2760
78088W        W21182  10.972   5.732   0.978  0.1921 -0.1377 -0.0306
78089W        W21183   8.980   5.548   2.163  0.0450  0.1343  0.1938
78090W        W21184   8.229   4.188   3.695 -0.2356 -0.1105 -0.2450
78091W        W21185   8.881   5.849   2.567 -0.0513  0.1618  0.1242
78092W        W21186  10.998   5.226   1.098  0.2872 -0.0804  0.0923
78093W        W21187   7.027   3.697   1.385 -0.1804  0.0334  0.0432
78094W        W21188   9.961   7.354   1.631  0.1732 -0.0272  0.0188
78095W        W21189   7.030   6.175   2.150  0.1157 -0.2037  0.1584
78096W        W21190   7.484   4.107   2.210 -0.1609 -0.0328  0.1021
78097W        W21191   8.780   6.783   2.261  0.0008 -0.0896 -0.0494
78098W        W21192   9.815   5.463  30.557  0.0933 -0.0710 -0.1178
78099W        W21193   9.429   5.485   0.017  0.1021 -0.2394  0.1157
78100W        W21194  10.941   8.253   0.309 -0.1426  0.1005 -0.4551
78101W        W21195   8.642   5.522  31.588 -0.0096 -0.2289 -0.4526
78102W        W21196   7.999   7.876   2.465  0.0482  0.0588 -0.0648
78103W        W21197   6.595   5.983  31.222 -0.1613  0.0164 -0.0714
78104W        W21198  10.846   6.761   0.871  0.0669  0.3685 -0.2544
78105W        W21199   8.225   7.203   0.398  0.0959 -0.0551 -0.2209
78106W        W21200   9.634   5.224   1.644 -0.2493  0.2465 -0.1067
78107W        W21201   9.657   2.658   0.006 -0.1210  0.0457 -0.1789
78108W        W21202   9.763   4.844   0.625 -0.0827  0.2402 -0.1470
78109W        W21203  10.673   4.589   0.312 -0.1944 -0.1554 -0.0899
78110W        W21204   9.851   6.214   4.187  0.4620 -0.4312  0.0945
78111W        W21205   9.007   4.335   3.089 -0.1349  0.4167  0.3101
78112W        W21206   9.902   4.437   0.411  0.2428  0.2525 -0.3173
78113W        W21207   8.961   4.540   2.544  0.1110  0.0094 -0.3548
78114W        W21208   9.962   2.630   3.841  0.0768  0.2080  0.2061
78115W        W21209   9.323   6.592   2.867  0.1576 -0.0717 -0.0512
78116W        W21210  11.717   7.352   0.012  0.1381  0.3240 -0.0211
78117W        W21211   8.326   4.149   0.243  0.1522 -0.0228 -0.0963
78118W        W21212   9.286   4.619   0.713  0.2381 -0.0179  0.0941
78119W        W21213  11.930   3.126   1.626  0.0139 -0.0522  0.0349
78120W        W21214   9.345   6.582   2.056 -0.1812  0.0300 -0.0544
78121W        W21215   8.941   4.361   1.525 -0.1220  0.0129 -0.3558
78122W        W21216   8.403   7.014   2.570 -0.1351 -0.1484  0.4017
78123W        W21217  10.169   6.306   2.681  0.3151 -0.0585  0.0802
78124W        W21218  10.221   6.768   2.286 -0.1293 -0.0675 -0.2550
78125W        W21219   5.827   5.143   1.288 -0.1009  0.0081  0.0985
78126W        W21220  10.545   5.499   1.197 -0.0216  0.1994 -0.0057
78127W        W21221   9.694   4.679   3.762  0.3850 -0.1000  0.3541
78128W        W21222  11.820   4.319   3.032 -0.0694  0.4050 -0.2498
78129W        W21223   7.592   4.749   1.361  0.0406 -0.2032  0.3783
78130W        W21224   9.563   4.743   0.141  0.1378 -0.0377  0.0450
78131W        W21225   9.426   5.952   2.378 -0.4248  0.0405 -0.1775
78132W        W21226   7.278   3.537   3.547 -0.1100  0.0843 -0.0187
78133W        W21227   9.726   5.182   0.264 -0.2685 -0.2207 -0.0875
78134W        W21228  10.873   6.152   2.142 -0.0732  0.0701 -0.0313
78135W        W21229   9.903   3.254   0.231  0.2696 -0.0578 -0.0442
78136W        W21230  10.779   6.720   4.072 -0.2462 -0.4494  0.5273
78137W        W21231   6.812   5.480   2.339 -0.0867 -0.1371 -0.0110
78138W        W21232   9.742   4.607  31.462  0.2195  0.0525  0.0962
78139W        W21233   8.718   6.614   1.338  0.1739 -0.0850  0.1144
78140W        W21234   9.426   5.758   1.906 -0.0832  0.2710 -0.1366
78141W        W21235   9.313   7.282   2.859  0.1968  0.0817  0.0097
78142W        W21236   6.909   3.410  31.797 -0.0282 -0.1614  0.2867
78143W        W21237  10.356   5.351  30.299 -0.0561 -0.0871 -0.1549
78144W        W21238  10.202   5.113   2.295  0.1606  0.2424 -0.0296
78145W        W21239   8.978   6.773   0.874 -0.1766 -0.2852  0.2960
78146W        W21240  10.313   4.773   0.561  0.1905 -0.0194  0.1289
78147W        W21241  10.518   7.683   0.569 -0.0425  0.0448  0.0325
78148W        W21242   6.758   3.552   2.608  0.2729  0.0468  0.1432
78149W        W21243  10.513   7.432   1.639 -0.0659 -0.0539 -0.1357
78150W        W21244   9.680   6.211   1.230  0.0186  0.2672 -0.1877
78151W        W21245   8.731   4.416   0.536 -0.1272 -0.0569  0.2696
78152W        W21246   7.791   4.836   1.775  0.0451 -0.2825  0.0988
78153W        W21247   7.644   6.939   0.758  0.0764 -0.0071  0.0071
78154W        W21248  11.542   4.548   2.110  0.1562  0.1435  0.0018
78155W        W21249  11.421   2.924   2.811 -0.3230 -0.1010  0.0145
78156W        W21250   7.334   5.484   0.183  0.3677 -0.0536  0.3665
78157W        W21251   9.307   3.154   3.154  0.1239  0.2049  0.3393
78158W        W21252   9.619   7.797   2.274 -0.4017  0.0389  0.1721
78159W        W21253   8.682   7.928   3.904  0.0188  0.0233 -0.0729
78160W        W21254   8.153   5.025  31.780  0.1688 -0.0805 -0.1616
78161W        W21255   9.039   4.825   3.310  0.2169  0.1141 -0.2680
78162W        W21256   9.045   6.811   0.056 -0.2952  0.4070  0.1206
78163W        W21257   9.079   6.286   2.461 -0.0907  0.0108  0.1793
78164W        W21258  11.021   5.864   0.530  0.1234  0.0519 -0.1824
78165W        W21259   9.310   5.377   1.113 -0.0939 -0.1639  0.1218
78166W        W21260  12.129   6.455   0.788 -0.2442 -0.0966 -0.0415
78167W        W21261   7.842   3.794   0.859 -0.0899  0.1141  0.0153
78168W        W21262  11.113   4.210   1.639 -0.0262  0.0978 -0.1147
78169W        W21263   9.694   3.979   1.156  0.3263  0.0010  0.1717
78170W        W21264   9.629   5.658   2.729 -0.2914 -0.3636  0.1405
78171W        W21265   7.835   5.275  31.055  0.2141 -0.0166 -0.1062
78172W        W21266   6.434   5.709  30.712  0.3159  0.0828 -0.2955
78173W        W21267   7.140   4.718   1.192  0.0687  0.0657 -0.0693
78174W        W21268   9.752   2.551   3.326  0.0533  0.0951 -0.2328
78175W        W21269   7.849   4.378   3.974 -0.2133 -0.1048 -0.3066
78176W        W21270   8.767   5.340   3.326 -0.1077  0.2624  0.0087
78177W        W21271   8.583   4.260  31.253 -0.1157 -0.0011  0.0917
78178W        W21272  10.765   7.447  31.848  0.2242  0.0094  0.0684
78179W        W21273   7.496   4.728   2.188 -0.2027 -0.1675  0.0361
78180W        W21274   7.206   2.691   2.501  0.0932 -0.2355 -0.0935
78181W        W21275   8.705   6.851   0.450 -0.2037 -0.0263 -0.0543
78182W        W21276  10.151   6.574   0.005 -0.0514  0.0001  0.1192
78183W        W21277   8.000   3.783   0.396 -0.1412  0.1564 -0.0145
78184W        W21278  10.837   6.712   2.194 -0.0033  0.0616  0.2302
78185W        W21279   7.410   5.509  31.660 -0.2544  0.2346  0.1740
78186W        W21280   8.580   5.061   4.364 -0.2465  0.0830  0.4214
78187W        W21281  10.085   3.600   4.038 -0.0247 -0.2766  0.1290
78188W        W21282   6.604   6.132   0.885 -0.4036  0.1003 -0.0441
78189W        W21283  10.948   4.087   2.690 -0.1081  0.2038  0.0013
78190W        W21284   9.527   5.931   0.151 -0.1076  0.0810  0.1895
78191W        W21285  11.580   7.098  31.245 -0.1857 -0.2017  0.0883
78192W        W21286   8.789   6.360   3.159  0.2733 -0.0615 -0.2220
78193W        W21287   9.633   5.548   3.694  0.0358  0.0297 -0.2557
78194W        W21288   8.321   2.754   2.216  0.3350  0.0661 -0.3901
78195W        W21289  10.534   5.535  31.309 -0.1358  0.0971 -0.2802
78196W        W21290   9.162   5.426   1.659 -0.3451 -0.4019  0.0059
78197W        W21291  11.656   5.731  31.674 -0.1023 -0.0840  0.0261
78198W        W21292  11.390   3.297   2.440 -0.1811  0.0592  0.0165
78199W        W21293  10.686   3.876   2.089  0.2388 -0.0325 -0.0769
78200W        W21294   8.430   4.189   3.236  0.2950  0.2903  0.0282
78201W        W21295   7.903   5.393   3.514  0.2187  0.1237 -0.3218
78202W        W21296  10.320   6.738   3.022  0.2595 -0.2002  0.2203
78203W        W21297   7.420   4.050   0.729 -0.0289  0.0490 -0.1093
78204W        W21298   9.182   4.444  31.789 -0.0007  0.1161  0.0913
78205W        W21299   8.729   7.000   1.704  0.0764 -0.0303  0.1788
78206W        W21300   7.826   5.475   2.742 -0.0550  0.0395 -0.1148
78207W        W21301   8.028   5.783   0.807  0.0800 -0.0928 -0.2339
78208W        W21302   9.840   4.362   3.309  0.0633 -0.1678 -0.1242
78209W        W21303  10.231   7.256   1.237 -0.0519  0.1414 -0.0604
78210W        W21304   9.337   5.162   2.051  0.0357 -0.0236 -0.1456
78211W        W21305   9.042   4.638   0.261 -0.1091 -0.0044 -0.2216
78212W        W21306  12.018   5.982   1.097  0.4245  0.0484 -0.0476
78213W        W21307   9.663   8.108   3.150 -0.0679  0.1096 -0.2822
78214W        W21308  10.423   6.904   3.473 -0.1240 -0.0317  0.1831
78215W        W21309   9.864   7.675   2.986 -0.0522 -0.2717  0.3379
78216W        W21310   9.871   5.672   0.443  0.1455 -0.0429 -0.4107
78217W        W21311   8.237   2.397   2.721  0.1484  0.0018 -0.1734
78218W        W21312   8.908   5.419   0.449 -0.1344 -0.4625  0.0025
78219W        W21313   7.878   5.597   1.305 -0.0678  0.1243  0.0919
78220W        W21314   9.939   5.817   1.805  0.0140  0.1028  0.1393
78221W        W21315   7.619   5.341   2.124 -0.1227  0.0941  0.2529
78222W        W21316   9.254   4.272   1.088 -0.0175 -0.1792  0.1070
78223W        W21317   9.299   7.193   3.874  0.2352  0.1927 -0.4532
78224W        W21318   9.887   5.428   0.968  0.1201  0.1640 -0.0638
78225W        W21319   9.930   6.739   6.206 -0.0594  0.1862  0.0624
78226W        W21320   8.724   4.449   6.681 -0.1389  0.0213  0.0219
78227W        W21321   9.372   3.558   3.392 -0.3692  0.1630 -0.1877
78228W        W21322  11.144   4.725   4.876 -0.1160 -0.1498 -0.0402
78229W        W21323   8.750   4.401   5.104  0.3143  0.1792 -0.1097
78230W        W21324  10.018   6.643   4.486  0.1808  0.3030 -0.0495
78231W        W21325   9.231   2.886   6.411 -0.0078 -0.1311  0.1583
78232W        W21326  10.912   6.624   5.492  0.0322  0.1304  0.0094
78233W        W21327   9.143   6.742   3.759 -0.1859  0.2250 -0.0534
78234W        W21328   9.667   4.524   6.757 -0.1767 -0.2737 -0.1229
78235W        W21329   9.827   8.232   5.442 -0.2815 -0.0145 -0.2264
78236W        W21330   9.695   4.043   5.053  0.4294  0.5492  0.2348
78237W        W21331   8.582   3.580   5.361 -0.2441  0.0391 -0.2188
78238W        W21332   9.505   5.093   6.106 -0.0736  0.1922 -0.1677
78239W        W21333   7.395   4.068   3.577  0.0063 -0.0562 -0.0652
78240W        W21334   8.471   3.502   6.603 -0.1006  0.0886 -0.1110
78241W        W21335   9.203   4.218   4.870  0.1268  0.1630 -0.2901
78242W        W21336   8.736   8.138   4.436  0.0468  0.0766 -0.2685
78243W        W21337   9.611   4.312   7.660 -0.1435 -0.0547 -0.1682
78244W        W21338  10.465   3.247   7.435 -0.1738 -0.0872 -0.1194
78245W        W21339   9.453   5.830   5.471  0.2248  0.1272  0.0490
78246W        W21340   6.586   3.027   3.558  0.1905 -0.3176 -0.2354
78247W        W21341   6.176   4.248   5.289  0.1952  0.2622 -0.0113
78248W        W21342   9.087   5.770   6.474 -0.0344  0.0579  0.0819
78249W        W21343   9.941   2.897   4.891 -0.2063 -0.1314  0.2613
78250W        W21344  11.580   6.131   5.461 -0.3296 -0.1156  0.1668
78251W        W21345   7.870   8.297   4.205  0.0334  0.2150  0.0124
78252W        W21346   9.647   4.871   3.316  0.3171  0.3809  0.0022
78253W        W21347  10.790   5.722   6.679 -0.2693 -0.1132  0.2787
78254W        W21348   9.344   5.524   4.254 -0.2278 -0.1054  0.0247
78255W        W21349   7.891   6.481   5.843  0.0244  0.1896 -0.0906
78256W        W21350   8.352   5.914   4.330 -0.0493 -0.3068  0.2835
78257W        W21351  10.938   6.978   5.014  0.2276  0.0847  0.2727
78258W        W21352  10.627   6.783   5.891 -0.0614  0.3369  0.0107
78259W        W21353   9.917   6.821   7.450  0.0620 -0.1183  0.1996
78260W        W21354   7.746   7.233   1.638  0.2175  0.0396 -0.3951
78261W        W21355  10.469   7.032   5.032 -0.2473 -0.0652 -0.1980
78262W        W21356   8.794   4.982   7.831  0.0146 -0.0800  0.1845
78263W        W21357   9.202   4.719   6.246  0.1060 -0.0549  0.3950
78264W        W21358   9.325   5.072   3.681 -0.1542 -0.2492 -0.2185
78265W        W21359   7.724   6.177   3.235  0.1611 -0.0592  0.2623
78266W        W21360   9.483   5.467   5.008 -0.0624  0.3637 -0.0771
78267W        W21361   8.663   6.490   5.450  0.0732  0.2404 -0.1031
78268W        W21362   9.491   6.682   4.332  0.1243  0.1489  0.1149
78269W        W21363  13.886   4.879   7.338  0.0418 -0.0596  0.0615
78270W        W21364   9.507   6.957   3.212  0.3047 -0.0089  0.0688
78271W        W21365  10.213   3.906   4.545 -0.1447 -0.3482  0.1755
78272W        W21366   8.499   5.778   3.485  0.0240  0.0223 -0.0608
78273W        W21367   9.483   4.764   4.781 -0.0627  0.4843 -0.1199
78274W        W21368   8.901   3.391   4.421  0.0794 -0.0114  0.2078
78275W        W21369   8.524   7.266   5.132  0.1077  0.3593  0.0808
78276W        W21370   9.250   4.611   7.360 -0.1319 -0.0907 -0.2133
78277W        W21371  10.567   6.565   6.734 -0.4089  0.2537 -0.0787
78278W        W21372  10.575   5.606   4.783  0.1093 -0.0608 -0.2945
78279W        W21373   9.489   3.688   7.339 -0.0208 -0.2545 -0.1501
78280W        W21374   8.287   4.905   6.527 -0.2041 -0.0645  0.1786
78281W        W21375   8.425   4.030   5.412  0.0315 -0.1974  0.4132
78282W        W21376   9.427   6.365   4.833  0.0350  0.1169  0.1366
78283W        W21377  11.293   5.689   5.409 -0.4070 -0.1054  0.0761
78284W        W21378   8.298   7.249   4.698 -0.2201 -0.1935  0.2317
78285W        W21379   8.994   5.283   4.888 -0.1575  0.0996  0.0570
78286W        W21380   7.577   5.505   6.795  0.0608 -0.3206  0.0338
78287W        W21381   7.274   3.485   6.728  0.1465 -0.1839 -0.1829
78288W        W21382   7.948   2.613   4.004  0.3401 -0.0766  0.0731
78289W        W21383  10.766   6.286   7.754  0.1587 -0.1250  0.2543
78290W        W21384   8.199   5.787   6.161 -0.3276 -0.0642  0.3198
78291W        W21385   9.640   2.979   3.492 -0.0703  0.2231 -0.2533
78292W        W21386   8.840   6.474   4.883 -0.1575  0.1740 -0.0156
78293W        W21387  11.067   6.161   5.474  0.1813  0.3774 -0.1673
78294W        W21388   9.923   5.462   3.176 -0.1877  0.0938 -0.1298
78295W        W21389   9.504   3.122   5.192  0.0654 -0.1450  0.4547
78296W        W21390  10.040   3.330   7.684  0.1642  0.0811  0.4091
78297W        W21391   8.854   5.895   4.153 -0.0061  0.1428  0.0746
78298W        W21392   9.742   5.087   4.162  0.2782  0.0312  0.0265
78299W        W21393  10.913   4.854   5.330 -0.0599 -0.1311  0.0927
78300W        W21394  10.468   4.259   2.441 -0.4901  0.1310  0.0968
78301W        W21395   6.982   6.354   5.556  0.3464  0.3408  0.1474
78302W        W21396   8.471   3.839   7.365 -0.0164  0.2747  0.1013
78303W        W21397  10.069   6.925   5.769 -0.0630  0.1535  0.4206
78304W        W21398   7.508   6.449   4.229  0.0623  0.0742  0.1309
78305W        W21399   6.948   4.733   5.054  0.1783  0.0996 -0.1006
78306W        W21400   8.363   5.247   3.558  0.0556  0.1562 -0.1018
78307W        W21401   9.796   2.985   5.695  0.2787 -0.1699  0.2831
78308W        W21402   8.459   7.024   5.690 -0.0923  0.4853 -0.1531
78309W        W21403  10.240   4.402   4.470  0.1495  0.0807 -0.0478
78310W        W21404   8.939   3.766   7.204 -0.1672 -0.2968  0.3727
78311W        W21405  10.221   4.665   5.638  0.3414  0.1896 -0.2257
78312W        W21406   8.798   6.077   4.623  0.0474 -0.3110  0.3104
78313W        W21407  11.179   5.596   4.927  0.3321  0.0304 -0.3015
78314W        W21408  10.509   3.976   2.995 -0.1185 -0.1458 -0.0355
78315W        W21409   9.761   6.671   3.912 -0.0116 -0.0831 -0.2448
78316W        W21410   8.320   5.165   5.122  0.0219 -0.2520  0.1369
78317W        W21411   8.241   4.628   4.231  0.2050 -0.0102 -0.1892
78318W        W21412   7.736   3.888   7.683 -0.0795 -0.2138  0.0214
78319W        W21413   8.324   3.529   5.775 -0.2091  0.0688 -0.0415
78320W        W21414   9.789   6.285   7.397  0.3290  0.0977 -0.1227
78321W        W21415   8.027   3.792   5.232  0.1038  0.5179  0.0079
78322W        W21416   9.255   4.515   5.355 -0.0032 -0.1876 -0.0786
78323W        W21417   8.608   4.634   5.602  0.3653 -0.3520  0.3037
78324W        W21418   8.350   6.119   4.883 -0.0311 -0.3983 -0.0659
78325W        W21419  11.035   5.585   6.253  0.1710  0.0825  0.0064
78326W        W21420   9.723   7.132   4.230 -0.1738 -0.1927 -0.1774
78327W        W21421   9.932   7.078   7.059 -0.0476  0.1559 -0.3036
78328W        W21422   9.645   7.175   4.803  0.1787 -0.0414 -0.0547
78329W        W21423  10.093   4.775   6.614 -0.0848 -0.1872  0.3699
78330W        W21424   8.725   4.224   4.603 -0.1787 -0.1889  0.4956
78331W        W21425   8.429   7.499   3.770 -0.0118 -0.1251  0.0046
78332W        W21426   9.185   6.181   6.280  0.0823 -0.0419 -0.1692
78333W        W21427   7.901   3.855   4.756  0.0567  0.1853  0.0690
78334W        W21428  10.587   7.127   4.302  0.0169 -0.0400 -0.1445
78335W        W21429  10.093   4.973   3.022  0.1617  0.0839 -0.2098
78336W        W21430   7.817   4.351   6.683  0.1451 -0.2442  0.0774
78337W        W21431  10.208   4.401   7.522  0.2048 -0.0065 -0.0065
78338W        W21432   9.930   6.261   5.833  0.2655  0.1410  0.1198
78339W        W21433   9.924   6.216   4.729  0.0228  0.3108  0.1569
78340W        W21434   7.604   4.153   4.558 -0.1987  0.1047 -0.2910
78341W        W21435  10.189   7.979   4.565 -0.1515  0.0419 -0.2019
78342W        W21436   6.905   6.525   3.341 -0.0263  0.1343 -0.0511
78343W        W21437   6.986   4.239   4.695  0.0519  0.2421  0.1867
78344W        W21438   9.002   6.866   5.681  0.1810 -0.3005  0.0695
78345W        W21439  10.199   3.410   6.408 -0.2852  0.0532 -0.3364
78346W        W21440   7.081   5.539   6.701  0.1392 -0.0553 -0.1703
78347W        W21441   9.281   5.740   5.936  0.1673 -0.1487  0.0940
78348W        W21442   7.915   3.491   4.320 -0.0462 -0.1182 -0.0357
78349W        W21443   8.095   5.679   5.269 -0.1463  0.0485 -0.0724
78350W        W21444  10.439   3.041   7.921  0.1937 -0.0156 -0.1113
78351W        W21445  10.883   3.625   3.251  0.0970 -0.1866  0.1925
78352W        W21446   8.695   4.748   6.261  0.1695 -0.0507 -0.1407
78353W        W21447  10.802   7.171   5.482  0.3233  0.2177 -0.1518
78354W        W21448   9.487   4.304   2.556  0.1319  0.1002  0.0215
78355W        W21449   9.081   4.021   2.733  0.2056 -0.2297  0.0969
78356W        W21450   8.160   5.173   6.075  0.0385 -0.1398 -0.1675
78357W        W21451   9.513   5.348   5.687  0.0709  0.0843  0.2824
78358W        W21452   9.597   5.558   6.290  0.2297  0.1030  0.3080
78359W        W21453   9.254   4.084   1.873 -0.3470 -0.0642  0.1533
78360W        W21454   9.677   5.709   4.595  0.1860  0.2600  0.1946
78361W        W21455   9.028   4.732   4.897 -0.0563  0.0193 -0.1312
78362W        W21456   9.660   5.465   6.752 -0.2814  0.3038 -0.2266
78363W        W21457  10.941   5.995   4.701  0.0259  0.2384 -0.1685
78364W        W21458   9.044   3.636   6.380  0.0564  0.2881  0.1025
78365W        W21459   7.635   4.682   4.309  0.1245 -0.1153  0.2604
78366W        W21460   9.538   4.003   3.644  0.4645  0.1178 -0.0211
78367W        W21461   8.327   6.220   3.274 -0.0819 -0.0079 -0.1411
78368W        W21462   9.676   3.497   5.827 -0.2070  0.1453 -0.0826
78369W        W21463   9.540   3.591   5.205  0.1031 -0.1145  0.0458
78370W        W21464   9.598   2.516   6.902  0.0161  0.1436  0.2263
78371W        W21465  11.050   4.247   6.638 -0.0078 -0.2018  0.2026
78372W        W21466   9.972   5.157   3.649  0.0406  0.3485 -0.0753
78373W        W21467   9.365   4.982   5.276  0.0665  0.1456  0.0731
78374W        W21468   7.045   3.824   3.892 -0.1897  0.0473  0.2949
78375W        W21469   9.810   3.749   8.126 -0.1575  0.0396 -0.3710
78376W        W21470   7.966   4.753   6.920 -0.2069  0.2056 -0.2280
78377W        W21471   7.872   5.777   4.582 -0.0677 -0.1463 -0.1884
78378W        W21472   9.940   7.165   5.335 -0.1416 -0.1572  0.0869
78379W        W21473  10.360   5.617   5.378 -0.0484  0.2080 -0.0077
78380W        W21474  10.441   3.632   8.351 -0.0409 -0.0375  0.3168
78381W        W21475   9.352   3.397   4.246 -0.1638  0.0011 -0.0147
78382W        W21476   8.988   6.275   3.628 -0.0375  0.1290 -0.1304
78383W        W21477   9.819   6.318   3.050  0.0652 -0.1044  0.0601
78384W        W21478   8.549   2.946   5.423 -0.0140 -0.2018  0.3557
78385W        W21479   9.453   8.718   7.177 -0.0559 -0.0143  0.0361
78386W        W21480   7.972   6.633   3.399 -0.3404 -0.3696  0.1503
78387W        W21481  10.679   6.275   5.911 -0.1543  0.1694 -0.0453
78388W        W21482   7.959   7.229   3.301  0.0495  0.1072  0.1452
78389W        W21483   9.458   2.631   5.366 -0.2273 -0.3648  0.2154
78390W        W21484   7.458   5.225   3.659  0.1232  0.0423 -0.2585
78391W        W21485   7.976   5.052   2.997  0.3933 -0.1218  0.1472
78392W        W21486   8.351   5.541   4.627  0.3181 -0.2632  0.0478
78393W        W21487   9.107   3.689   4.814 -0.2099  0.2096  0.0990
78394W        W21488  10.932   5.230   3.387 -0.1942 -0.0537 -0.0732
78395W        W21489   8.016   3.668   7.326  0.1977  0.1821 -0.2488
78396W        W21490   7.142   4.644   4.417 -0.1003 -0.0763 -0.2291
78397W        W21491   9.985   5.353   5.583 -0.0795 -0.3010 -0.2661
78398W        W21492  10.017   4.360   3.953 -0.1037  0.1840  0.0138
78399W        W21493  11.398   5.648   4.250  0.0722 -0.1507 -0.0639
78400W        W21494   9.697   6.623   7.041 -0.0022 -0.0951  0.1337
78401W        W21495   7.387   4.584   3.663 -0.1082 -0.0007  0.2777
78402W        W21496  10.168   4.260   5.942  0.0715  0.2793 -0.2628
78403W        W21497   8.961   3.286   6.757  0.0494 -0.2698  0.0608
78404W        W21498   7.859   7.447   4.577 -0.3062 -0.2684  0.1075
78405W        W21499   9.637   6.292   5.370 -0.0931 -0.0275  0.1552
78406W        W21500   9.191   5.733   4.747 -0.0475 -0.0495  0.1739
78407W        W21501   7.914   6.005   2.684 -0.0771  0.1638  0.0306
78408W        W21502   8.146   3.587   9.003  0.4306 -0.2068 -0.1183
78409W        W21503  10.359   6.481   6.214 -0.1953 -0.0309 -0.0743
78410W        W21504   9.948   3.453   7.205 -0.2219 -0.3289  0.0901
78411W        W21505   8.117   4.015   4.318 -0.0561 -0.3960  0.1868
78412W        W21506  10.602   5.195   4.369 -0.3137  0.0418  0.2593
78413W        W21507  11.310   5.104   6.285 -0.0454 -0.0873  0.1714
78414W        W21508   9.752   4.891   5.713 -0.0236 -0.1104 -0.1731
78415W        W21509   8.717   6.361   6.979  0.0340  0.0177  0.1279
78416W        W21510   9.914   4.068   7.201  0.2635  0.3435 -0.0437
78417W        W21511  11.899   6.162   4.997  0.1977  0.1581 -0.1855
78418W        W21512   9.838   4.569   6.199 -0.1060 -0.0478  0.0707
78419W        W21513   9.699   5.221   4.637  0.1636 -0.0112  0.2405
78420W        W21514   7.359   4.259   4.049  0.1984  0.0071  0.2787
78421W        W21515   8.535   3.773   4.911  0.2051  0.0351  0.3849
78422W        W21516   8.524   3.400   7.135  0.2892  0.0118 -0.1942
78423W        W21517   9.117   4.465   4.390  0.0175 -0.1765 -0.1624
78424W        W21518   9.324   6.049   2.824  0.2267  0.1232  0.0710
78425W        W21519   8.451   6.439   6.579 -0.0408 -0.0527  0.3937
78426W        W21520   9.209   3.592   2.903 -0.0708  0.2106 -0.2347
78427W        W21521   8.628   6.651   3.478  0.0101 -0.2588  0.0420
78428W        W21522   8.621   3.937   6.399 -0.2174  0.1829  0.2961
78429W        W21523  11.257   4.289   5.419 -0.0299 -0.0702  0.2831
78430W        W21524   9.422   5.200   3.012  0.2682 -0.3122 -0.0405
78431W        W21525  10.122   3.814   6.174  0.1604  0.1387  0.1491
78432W        W21526   9.885   3.779   7.627 -0.0721  0.0286 -0.3514
78433W        W21527   9.922   5.735   5.951 -0.2171  0.0428 -0.1081
78434W        W21528   8.542   4.282   6.002  0.0745  0.1868 -0.1253
78435W        W21529   9.346   7.212   7.596  0.0656  0.4436 -0.0334
78436W        W21530   8.299   6.115   6.923 -0.0110 -0.0218  0.1604
78437W        W21531   9.077   4.193   3.953  0.2352 -0.3135  0.2180
78438W        W21532   8.331   3.635   3.923  0.1945  0.0452 -0.2250
78439W        W21533   9.079   4.089   6.742  0.0561  0.1793  0.0844
78440W        W21534  11.093   6.975   5.988  0.1134 -0.1557 -0.0819
78441W        W21535   9.051   6.040   5.124 -0.0972  0.4116 -0.3339
78442W        W21536   9.743   4.054   6.044 -0.2618  0.2378  0.2778
78443W        W21537   9.657   6.053   6.193 -0.1153 -0.1481 -0.0401
78444W        W21538  10.417   4.086   3.468 -0.0745  0.2205 -0.0673
78445W        W21539   8.544   4.839   4.835  0.0103  0.0252 -0.0502
78446W        W21540   9.157   6.419   5.402  0.0993 -0.3812 -0.0764
78447W        W21541   7.829   2.373   9.524 -0.1132  0.0529 -0.2577
78448W        W21542  10.208   6.009   5.046 -0.0725 -0.1376  0.2313
78449W        W21543   9.434   4.398   5.876 -0.1406  0.3316 -0.1201
78450W        W21544  10.722   4.337   5.504  0.2349  0.3082  0.4085
78451W        W21545   9.744   4.820   7.715  0.0533 -0.3137  0.3215
78452W        W21546   8.397   5.637   7.265  0.1189  0.0708 -0.0487
78453W        W21547   8.807   3.927   8.670 -0.2890 -0.0159 -0.0902
78454W        W21548  11.209   6.378   5.951  0.0560 -0.0890  0.2354
78455W        W21549  10.629   5.056   1.966  0.1594  0.0010  0.0598
78456W        W21550  10.347   2.796   7.250 -0.1564  0.2941 -0.0270
78457W        W21551  10.208   4.163   5.322  0.1054 -0.0041 -0.0721
78458W        W21552   9.902   3.807   3.288 -0.1392  0.0077  0.1027
78459W        W21553   9.269   3.855   5.966  0.2161  0.1180 -0.0559
78460W        W21554  10.665   5.683   7.561 -0.0716 -0.0322  0.1418
78461W        W21555   8.178   4.452   2.788 -0.0619 -0.1223 -0.0837
78462W        W21556  10.451   5.489   7.031 -0.1141 -0.2908 -0.1778
78463W        W21557   8.692   6.886   4.589  0.0193 -0.3147  0.2120
78464W        W21558   8.962   6.032   5.647 -0.0964 -0.0055  0.5422
78465W        W21559  10.311   4.525   3.055 -0.2443 -0.0143  0.0942
78466W        W21560   8.278   4.365   6.419  0.0090 -0.0743 -0.0538
78467W        W21561   8.512   5.621   5.583 -0.0211 -0.1704  0.0391
78468W        W21562   7.580   3.132   3.248  0.1614 -0.1098  0.2155
78469W        W21563   9.414   6.059   4.383  0.3891  0.0208 -0.0098
78470W        W21564   8.928   6.418   5.956  0.0472  0.4182  0.0132
78471W        W21565  10.542   5.632   6.220  0.0542  0.1054 -0.0303
78472W        W21566   9.558   3.241   4.677 -0.2049 -0.1838 -0.1933
78473W        W21567  10.640   4.635   7.505 -0.0788 -0.0815  0.0432
78474W        W21568   9.301   5.850   3.822  0.1920  0.2574  0.1385
78475W        W21569   8.976   2.871   5.217 -0.2561 -0.0589  0.1702
78476W        W21570   7.995   5.999   5.750  0.0679  0.0291  0.0898
78477W        W21571   7.368   5.046   6.796  0.1473  0.0561  0.0587
78478W        W21572   8.982   5.262   6.108 -0.0146 -0.0997 -0.0081
78479W        W21573   9.685   3.923   6.784  0.1209  0.1457  0.1118
78480W        W21574  10.076   3.725   5.022 -0.0619 -0.0102 -0.1349
78481W        W21575   9.749   7.360   5.732 -0.0700  0.4064 -0.0698
78482W        W21576   9.833   6.378   6.604  0.3104  0.3652  0.0585
78483W        W21577   8.792   7.425   5.586 -0.3369 -0.3584 -0.1682
78484W        W21578  10.445   6.794   5.430  0.0706  0.0970 -0.1029
78485W        W21579  10.921   4.700   3.825  0.2103 -0.2149 -0.1949
78486W        W21580   8.208   7.251   4.209 -0.0546 -0.2065  0.0674
78487W        W21581   7.875   4.720   7.453 -0.2584  0.0919  0.4322
78488W        W21582   8.928   5.020   7.223  0.0301 -0.0925  0.2554
78489W        W21583   9.007   4.891   5.823 -0.2429  0.2911 -0.0356
78490W        W21584   9.117   3.704   3.881  0.2442  0.2271 -0.1603
78491W        W21585   9.650   5.940   5.021  0.2337  0.1220 -0.2075
78492W        W21586   6.915   6.500   7.346  0.0043 -0.1615 -0.1735
78493W        W21587   7.697   4.651   5.361 -0.1894  0.0735 -0.0991
78494W        W21588   7.009   7.043   3.386 -0.2660 -0.2651 -0.3234
78495W        W21589  10.150   4.708   3.479 -0.2250  0.2068  0.2577
78496W        W21590   9.391   6.230   5.830 -0.2245 -0.4777  0.2066
78497W        W21591  10.137   7.140   4.673  0.1629 -0.0980 -0.0995
78498W        W21592  10.364   5.039   4.761 -0.1156  0.0312 -0.1503
78499W        W21593   8.982   5.507   3.848  0.1632  0.2000  0.0146
78500W        W21594   7.398   6.639   3.240  0.2166 -0.3016 -0.1578
78501W        W21595  10.127   5.376   4.362 -0.1138 -0.1967 -0.1651
78502W        W21596   9.074   7.380   3.347 -0.0871  0.2133 -0.0445
78503W        W21597  10.498   6.102   6.848  0.1168 -0.2784 -0.2046
78504W        W21598   9.897   2.808   2.654  0.0506 -0.0831  0.0857
78505W        W21599   9.427   4.026   5.495 -0.1477 -0.1666  0.0171
78506W        W21600  10.443   4.154   4.899 -0.2298 -0.1098 -0.0993
78507W        W21601  10.706   6.477   7.148 -0.1157 -0.0525 -0.1036
78508W        W21602   8.951   4.300   6.261  0.1757 -0.1992  0.2362
78509W        W21603   9.768   4.208   4.549  0.0326  0.1560  0.0191
78510W        W21604   8.135   4.304   7.054  0.1156  0.5016  0.0741
78511W        W21605  10.264   4.441   6.966  0.5177 -0.3113 -0.2061
78512W        W21606   7.588   6.198   6.133 -0.0729 -0.1418 -0.0550
78513W        W21607  10.674   7.347   4.737  0.0187  0.1357  0.0059
78514W        W21608   8.218   4.311   4.708  0.0676 -0.1224 -0.1809
78515W        W21609   8.644   3.941   3.735 -0.0086  0.1088  0.0623
78516W        W21610  10.245   3.340   5.886 -0.4684  0.0031  0.0021
78517W        W21611   8.769   7.227   2.824  0.0019  0.3386  0.1278
78518W        W21612   9.232   3.251   6.087  0.2449  0.0545 -0.0163
78519W        W21613   9.050   7.625   3.780 -0.0551  0.3508  0.0381
78520W        W21614   8.841   8.037   5.691  0.1685  0.0204 -0.0695
78521W        W21615   8.654   5.690   5.016  0.1862 -0.0235  0.1079
78522W        W21616   6.858   3.599   5.857  0.1014 -0.2698  0.2416
78523W        W21617  12.198   6.029   4.123 -0.1773 -0.1952  0.1518
78524W        W21618   8.558   5.112   5.753  0.0655 -0.2879 -0.1562
78525W        W21619  10.681   2.989   5.708 -0.4197 -0.1513  0.2884
78526W        W21620   8.125   4.404   5.644  0.2769 -0.2489 -0.3244
78527W        W21621   9.760   4.393   5.523  0.2975  0.0251 -0.0241
78528W        W21622   9.989   6.645   5.382 -0.2140  0.3094 -0.0699
78529W        W21623   8.808   4.946   6.703 -0.2655 -0.0105 -0.0455
78530W        W21624   8.930   4.986   2.301  0.0505  0.2195  0.0245
78531W        W21625  11.722   5.057   8.468  0.0625  0.0127  0.0049
78532W        W21626   9.890   4.662   2.758 -0.0843  0.1997  0.3994
78533W        W21627  10.449   7.276   6.900 -0.0475 -0.1128  0.0717
78534W        W21628   9.067   3.423   5.296 -0.1889  0.1297  0.0095
78535W        W21629   8.559   4.279   4.094 -0.2389 -0.2317 -0.2239
78536W        W21630   8.742   5.700   5.982 -0.0161  0.1960 -0.0004
78537W        W21631   8.619   3.974   6.911  0.0962  0.2264  0.2075
78538W        W21632   9.279   6.553   6.709  0.1959  0.1459 -0.1303
78539W        W21633   6.954   4.644   3.963 -0.0503 -0.0413  0.0529
78540W        W21634   9.438   4.559   2.982 -0.1711  0.0170  0.0430
78541W        W21635  11.181   4.789   3.237  0.0759 -0.1038 -0.2557
78542W        W21636   9.029   6.938   4.181 -0.2580 -0.0218  0.2125
78543W        W21637  10.116   5.460   4.905 -0.1557 -0.0671  0.1250
78544W        W21638  10.444   7.419   5.340  0.0905  0.1155  0.4103
78545W        W21639   7.953   3.933   5.780 -0.0086 -0.1243  0.0713
78546W        W21640  10.269   7.953   6.369  0.2968  0.2598 -0.1680
78547W        W21641  12.066   7.940   5.941 -0.0409  0.6326  0.0087
78548W        W21642   9.945   3.876   5.615  0.2461 -0.1279  0.3790
78549W        W21643   8.810   4.952   5.266 -0.0322  0.1217  0.1927
78550W        W21644   8.122   6.454   3.846 -0.1112 -0.1599  0.0565
78551W        W21645  10.425   3.621   5.413  0.1107  0.2915  0.2144
78552W        W21646   9.990   4.184   6.481 -0.1612 -0.0120  0.1386
78553W        W21647   9.005   6.388   4.227  0.1532  0.0804 -0.0221
78554W        W21648   9.823   2.875   7.206  0.1836  0.0854  0.0479
78555W        W21649   8.357   7.736   6.328 -0.0921 -0.2976  0.0331
78556W        W21650   8.911   7.258   7.190  0.1466  0.1379 -0.0057
78557W        W21651   7.228   4.330   3.086 -0.2361 -0.0729 -0.0790
78558W        W21652   7.416   5.309   5.822 -0.0035  0.0980 -0.3387
78559W        W21653   8.144   5.050   4.606  0.2152 -0.1234  0.3492
78560W        W21654   8.426   6.802   5.041  0.2638 -0.1497 -0.1992
78561W        W21655  10.745   6.402   5.053 -0.0070 -0.1463  0.0597
78562W        W21656   9.146   3.971   4.388 -0.0703 -0.0933 -0.0253
78563W        W21657  12.036   5.334   5.801  0.0802 -0.1392  0.2738
78564W        W21658   9.295   3.656   6.840 -0.0648 -0.0688  0.0673
78565W        W21659   9.967   3.420   5.410 -0.0451  0.1271  0.1209
78566W        W21660  10.305   3.135   4.215  0.1456  0.0321  0.1032
78567W        W21661   7.457   6.115   5.640 -0.2008  0.0383  0.0176
78568W        W21662   7.329   4.512   2.552 -0.0178  0.3279  0.0459
78569W        W21663   8.627   6.106   1.499 -0.1381  0.0135 -0.1097
78570W        W21664   7.726   5.120   5.295  0.0957  0.2934  0.0332
78571W        W21665   9.348   3.490   8.248  0.0256 -0.0538  0.1312
78572W        W21666   8.609   4.065   7.830  0.3102  0.0853 -0.3706
78573W        W21667   8.234   4.664   5.196  0.1166 -0.1562  0.1566
78574W        W21668   9.302   3.209   3.783 -0.2267  0.0039  0.0608
78575W        W21669  10.485   4.630   5.181  0.2192 -0.1621 -0.2404
78576W        W21670   7.454   3.870   5.846  0.0811  0.3016  0.2198
78577W        W21671   8.736   3.836   4.228 -0.0078 -0.1502  0.0211
78578W        W21672  10.410   5.245   3.282 -0.0202 -0.0818  0.0608
78579W        W21673  10.742   5.894   5.201  0.1377 -0.1046  0.1585
78580W        W21674   8.928   3.909   5.290  0.0504 -0.3493 -0.0049
78581W        W21675  11.321   5.886   5.944 -0.0698  0.1722 -0.0848
78582W        W21676   7.962   6.864   2.401  0.0228  0.1154  0.2946
78583W        W21677   9.460   4.126   8.182 -0.0274 -0.1649 -0.0248
78584W        W21678   8.852   4.380   7.182  0.2028 -0.0813  0.1080
78585W        W21679   6.649   3.439   3.063  0.3114  0.2582  0.2195
78586W        W21680   9.194   4.678   6.801  0.0263 -0.2391 -0.0716
78587W        W21681   9.967   7.733   5.442 -0.1545 -0.4099 -0.2840
78588W        W21682  10.347   6.390   4.224  0.0689  0.3663 -0.1013
78589W        W21683   8.272   4.672   6.014  0.3073 -0.0781 -0.1021
78590W        W21684   8.648   6.143   6.283  0.0748  0.1594 -0.0440
78591W        W21685   8.634   3.099   7.767  0.0673  0.0235  0.2074
78592W        W21686  10.177   5.878   4.446  0.0070  0.0584  0.3775
78593W        W21687   8.407   6.613   6.084 -0.0786  0.1104  0.1288
78594W        W21688  10.491   6.200   4.670 -0.0907  0.2921  0.1938
78595W        W21689  10.855   3.441   5.702  0.3715  0.1594  0.3273
78596W        W21690   9.950   4.805   4.556  0.2234  0.0483  0.2848
78597W        W21691   8.764   2.501   7.215 -0.0282 -0.0833 -0.0479
78598W        W21692   8.241   6.863   6.748  0.2285 -0.0392  0.1374
78599W        W21693  10.308   6.304   5.453 -0.0599  0.0192  0.0893
78600W        W21694   9.764   2.879   4.447  0.2419 -0.1900  0.0006
78601W        W21695  10.351   5.948   5.796  0.2252  0.1364 -0.1386
78602W        W21696   8.817   7.403   4.648 -0.3098  0.0145 -0.2536
78603W        W21697   7.418   5.621   4.825  0.1488  0.0939 -0.0119
78604W        W21698   9.260   5.456   3.383  0.4684  0.2473 -0.1858
78605W        W21699   8.475   5.252   6.907 -0.0080 -0.2275 -0.0864
78606W        W21700   9.558   6.868   5.796  0.1535 -0.1953  0.2271
78607W        W21701  10.001   5.190   6.983 -0.1722  0.0874 -0.1714
78608W        W21702   9.438   6.414   3.420  0.1531  0.0084  0.1820
78609W        W21703  10.709   5.273   2.415 -0.0770 -0.0956 -0.0959
78610W        W21704   9.761   6.702   4.915 -0.2244 -0.3178 -0.0377
78611W        W21705  11.342   7.176   6.845 -0.2068 -0.0281 -0.2228
78612W        W21706   9.349   6.739   6.212  0.0661  0.2263  0.3367
78613W        W21707  10.058   5.198   6.197 -0.1012 -0.2703  0.1124
78614W        W21708   9.080   3.191   4.847  0.2111 -0.1568 -0.0638
78615W        W21709   8.760   4.405   3.541  0.0473  0.0208 -0.0764
78616W        W21710   8.972   4.340   5.733 -0.1403 -0.2618  0.3088
78617W        W21711  11.032   3.617   6.750  0.1006  0.0278  0.0989
78618W        W21712   8.815   3.291   5.723 -0.1277 -0.1707  0.1787
78619W        W21713   7.675   4.584   2.915 -0.1692 -0.1433  0.2242
78620W        W21714   8.849   6.687   6.376 -0.1381  0.2648 -0.1465
78621W        W21715  10.699   3.906   6.929 -0.2006 -0.0893  0.2334
78622W        W21716   9.169   5.674  10.655  0.0561 -0.2442  0.0856
78623W        W21717   8.909   5.419   8.056 -0.1968 -0.0984 -0.3421
78624W        W21718  10.973   5.335   7.845 -0.2936  0.1359 -0.2104
78625W        W21719  11.378   5.153   8.122  0.1461  0.1684 -0.0437
78626W        W21720   7.932   5.084   7.925  0.1841 -0.0318  0.0850
78627W        W21721  10.816   7.390   8.785  0.1829  0.0446 -0.5805
78628W        W21722   9.579   5.848   9.161  0.1245  0.0936  0.3400
78629W        W21723  11.025   6.036   9.320 -0.1684 -0.1661 -0.1854
78630W        W21724  10.632   4.683   6.619 -0.0067  0.3988  0.0939
78631W        W21725  10.761   4.501   9.682  0.0486 -0.1022 -0.0991
78632W        W21726   9.824   3.370   9.429  0.0355  0.1613 -0.1215
78633W        W21727   9.018   2.087   9.730 -0.0842  0.2941  0.2193
78634W        W21728   9.793   4.636   9.487  0.1943 -0.2145 -0.1852
78635W        W21729   7.736   3.388   7.931  0.4015 -0.0918  0.0848
78636W        W21730   7.500   2.853  10.221 -0.3154 -0.2653  0.4453
78637W        W21731   9.657   5.035   6.561 -0.1001 -0.0566  0.3991
78638W        W21732   7.685   6.886   8.882  0.0309  0.0672 -0.0339
78639W        W21733  11.297   2.479  10.947 -0.0616 -0.0423  0.1861
78640W        W21734  10.586   6.762   7.806 -0.3837  0.2784  0.0920
78641W        W21735   7.516   4.330   7.652 -0.2878  0.2269 -0.1646
78642W        W21736   8.114   4.452   9.808  0.2516 -0.0512 -0.0620
78643W        W21737  10.664   4.878   8.799  0.1186  0.3780 -0.0048
78644W        W21738  10.674   4.489   8.571 -0.0395 -0.1389  0.1178
78645W        W21739  10.439   5.184   9.330  0.0577 -0.0247  0.2772
78646W        W21740   9.445   7.080   8.778  0.0709 -0.1117 -0.0157
78647W        W21741  10.435   7.043   8.820 -0.4186 -0.0283  0.3596
78648W        W21742   6.769   6.016   9.217 -0.0116 -0.0117 -0.1505
78649W        W21743   7.069   8.003   8.457  0.1635 -0.2487 -0.2131
78650W        W21744   9.475   5.012   7.082  0.0287 -0.0092  0.0449
78651W        W21745  12.382   8.696   9.112  0.3962 -0.2039 -0.0731
78652W        W21746   6.902   6.543   6.500 -0.2727 -0.0290 -0.1212
78653W        W21747  10.416   5.952   9.563  0.2345 -0.0952 -0.3589
78654W        W21748   9.636   4.770   8.981  0.6035  0.0506 -0.1404
78655W        W21749   9.477   5.987   6.644 -0.2088 -0.0586 -0.0207
78656W        W21750   9.787   7.044   9.649 -0.4767 -0.2115 -0.1999
78657W        W21751   7.855   6.098   8.500 -0.2918  0.0060  0.0495
78658W        W21752   7.189   7.245   7.990  0.0452  0.1648 -0.0571
78659W        W21753   9.525   5.149   8.052 -0.2108  0.2021 -0.1643
78660W        W21754   9.277   5.471   7.507  0.0012 -0.2373 -0.0945
78661W        W21755   9.970   4.341   8.005 -0.1246  0.2541  0.0541
78662W        W21756   9.409   3.198  10.525  0.1122  0.1231  0.1033
78663W        W21757   8.707   6.818   9.357  0.0432 -0.0191  0.2592
78664W        W21758  10.789   4.026   9.644 -0.0591  0.2404 -0.2065
78665W        W21759   9.199   5.212   6.531  0.3430  0.1868  0.1400
78666W        W21760   8.088   4.078   9.473 -0.0263  0.2337 -0.5906
78667W        W21761   9.207   4.640   9.927 -0.0739 -0.1265 -0.0283
78668W        W21762   7.677   5.042   9.347 -0.3163  0.3392  0.1763
78669W        W21763  11.288   5.868   6.607 -0.0495 -0.2431  0.0106
78670W        W21764  10.633   8.038  10.224  0.2827  0.0288  0.1874
78671W        W21765  10.415   6.888   7.282 -0.2506  0.3468  0.1609
78672W        W21766   7.931   6.522   9.271 -0.1673  0.1265 -0.1822
78673W        W21767   9.450   3.021   6.815  0.0503 -0.1280 -0.0726
78674W        W21768  10.583   3.665  10.283  0.0888  0.1687 -0.1825
78675W        W21769   9.402   5.633   8.022  0.0295 -0.2546 -0.1304
78676W        W21770  11.342   6.730   9.073  0.1067  0.1659  0.1882
78677W        W21771  11.403   5.249   7.607 -0.3300  0.1036  0.1081
78678W        W21772  10.753   2.909   8.778  0.0844 -0.2403  0.1734
78679W        W21773  11.686   3.604   9.406 -0.2247  0.0045  0.0290
78680W        W21774   7.946   5.257   7.058 -0.5205  0.1433  0.1091
78681W        W21775   8.553   6.184   7.423  0.0215 -0.2656  0.0042
78682W        W21776  11.065   7.044  10.147 -0.1100  0.3412  0.0584
78683W        W21777  10.619   5.209   7.441  0.0993  0.1447  0.1356
78684W        W21778   9.023   7.673   7.951  0.2141  0.2683 -0.1616
78685W        W21779   8.654   5.788   6.691  0.4423 -0.0742  0.4962
78686W        W21780   6.190   3.959   9.580 -0.2254  0.3346  0.1536
78687W        W21781   6.207   5.834   8.283 -0.0432  0.0195  0.0937
78688W        W21782   6.643   4.292   9.295  0.0725  0.2924  0.2153
78689W        W21783   7.661   6.380   8.910  0.0311  0.3284  0.1801
78690W        W21784  10.919   3.189   7.804 -0.1846  0.2172  0.1171
78691W        W21785  10.413   3.033  10.695  0.3500  0.0976  0.2324
78692W        W21786   9.256   6.190   8.652  0.0794 -0.3078  0.1431
78693W        W21787  11.113   7.843   9.016 -0.0613 -0.2826  0.1532
78694W        W21788  11.184   3.988   7.067  0.2096 -0.2764 -0.0562
78695W        W21789  10.268   6.477   7.582  0.1985 -0.1777  0.0224
78696W        W21790   7.128   4.012   9.157 -0.1185  0.0321  0.2580
78697W        W21791   7.616   4.499   8.655 -0.0339  0.1339  0.1869
78698W        W21792   8.731   6.076   8.666 -0.0072 -0.0035 -0.1599
78699W        W21793   8.185   3.085   9.252  0.0108  0.1027  0.1252
78700W        W21794  10.743   4.085   8.288  0.2183 -0.2508  0.0873
78701W        W21795   9.105   4.745   8.757 -0.1629 -0.1301  0.2248
78702W        W21796   5.813   5.321   7.726 -0.1650 -0.2095 -0.2218
78703W        W21797   9.159   7.609   7.474 -0.1462 -0.0215  0.2136
78704W        W21798   8.400   8.015   9.874  0.1406  0.0040 -0.1589
78705W        W21799  10.798   7.981   8.104  0.1002  0.0676  0.1193
78706W        W21800   9.154   4.615   9.322  0.1891 -0.5177 -0.0184
78707W        W21801   9.056   4.809   8.270 -0.0483 -0.0385  0.1282
78708W        W21802   8.402   6.377   8.397 -0.2049 -0.1814  0.1317
78709W        W21803   8.678   6.316   9.118 -0.0288  0.3402 -0.2393
78710W        W21804   8.997   5.843   8.270  0.0521  0.0917  0.0472
78711W        W21805  11.361   7.454   8.452 -0.0171  0.1804  0.3538
78712W        W21806   8.823   5.775   7.679 -0.0985  0.2271  0.2198
78713W        W21807  11.029   5.111   9.149 -0.0307  0.0624  0.0086
78714W        W21808  11.403   3.877   9.659  0.0380 -0.2172 -0.3369
78715W        W21809   8.255   3.145   8.209  0.0461 -0.2343 -0.0640
78716W        W21810  10.587  10.525   9.542 -0.2993 -0.3536 -0.4971
78717W        W21811   8.001   6.859   7.617  0.1361 -0.0361  0.1658
78718W        W21812   8.706   5.244   8.975  0.2937 -0.2600  0.0682
78719W        W21813   9.626   6.930   8.331 -0.1925  0.1729 -0.0197
78720W        W21814  11.200   3.412   9.261 -0.0733  0.0899 -0.0563
78721W        W21815   8.417   5.161   8.161 -0.4016  0.5046 -0.5836
78722W        W21816  10.531   3.350   8.871 -0.1086  0.2084  0.4293
78723W        W21817  10.464   4.253   6.410  0.1604  0.3005  0.1827
78724W        W21818   9.708   5.206   8.710  0.0633 -0.0606 -0.1378
78725W        W21819  10.102   4.817   8.042 -0.0154  0.0547 -0.3158
78726W        W21820  10.809   2.683   7.519  0.3459  0.0533 -0.0695
78727W        W21821   9.481   5.643   9.664  0.2221 -0.1626 -0.1360
78728W        W21822   9.359   7.181  11.905  0.0552 -0.0258 -0.0204
78729W        W21823   9.789   4.556   7.226 -0.0928 -0.2599  0.0230
78730W        W21824  10.985   6.828   7.372  0.4329  0.4804 -0.0202
78731W        W21825   7.353   6.746   8.115  0.2079 -0.3445  0.0976
78732W        W21826   9.755   6.819   9.183  0.1899  0.0305 -0.0408
78733W        W21827  10.157   5.112   9.785 -0.3560  0.2517 -0.1264
78734W        W21828   9.353   4.163   7.148  0.1767  0.2558 -0.1704
78735W        W21829   9.367   3.369   9.843  0.1973 -0.2402 -0.1501
78736W        W21830   7.415   7.982   7.598  0.0304  0.2473  0.1077
78737W        W21831  10.129   3.292   9.879  0.0292  0.1512  0.0931
78738W        W21832   9.619   6.549   9.703  0.0825  0.2020  0.2706
78739W        W21833  10.514   4.261   9.212 -0.0392 -0.1453  0.1467
78740W        W21834  11.465   4.426   9.959  0.0181 -0.1458 -0.1474
78741W        W21835   8.505   5.390   7.742 -0.1247  0.1462 -0.1437
78742W        W21836   8.230   1.945  11.120  0.1821 -0.0414 -0.0353
78743W        W21837   8.804   7.876   9.517  0.2630  0.2801 -0.0543
78744W        W21838  11.538   6.835   9.694 -0.1570 -0.1026 -0.0713
78745W        W21839  11.011   3.145   7.345 -0.0034 -0.0534  0.1474
78746W        W21840   8.327   5.856   7.684  0.0218 -0.1946  0.0508
78747W        W21841   8.546   5.364   6.369  0.1662 -0.1258 -0.1237
78748W        W21842   8.840   3.312   9.975 -0.2150 -0.3937 -0.0316
78749W        W21843   8.699   6.750   8.088  0.1798  0.0807  0.0457
78750W        W21844  10.711   7.282   5.969  0.0539 -0.0725 -0.1635
78751W        W21845  11.262   4.743   9.409 -0.0128  0.0428  0.0643
78752W        W21846   8.150   6.777   8.900 -0.0610 -0.0922 -0.0502
78753W        W21847  10.664   2.748   9.664 -0.0462  0.1626 -0.0423
78754W        W21848   5.594   4.877   9.259  0.3685 -0.1520 -0.1675
78755W        W21849   9.767   5.267   7.441  0.0519  0.3055  0.0317
78756W        W21850   7.834   4.483   7.993  0.0862  0.0352  0.1521
78757W        W21851  11.619   4.285   9.368 -0.1731  0.1557 -0.0484
78758W        W21852   9.977   6.533   8.451  0.0649  0.1029 -0.0045
78759W        W21853   8.116   4.391   8.814  0.0832 -0.1927  0.2706
78760W        W21854   9.068   4.139   9.436  0.4213 -0.0629  0.0380
78761W        W21855   6.972   6.293   8.507  0.5695  0.2629 -0.1594
78762W        W21856  10.567   3.518   7.874 -0.0264 -0.0962 -0.1414
78763W        W21857   8.283   4.283   8.112 -0.1859 -0.0216  0.0163
78764W        W21858  11.319   5.499   9.289 -0.1300 -0.0998  0.2517
78765W        W21859   9.479   5.016   9.755 -0.0269 -0.0792 -0.0262
78766W        W21860   8.135   6.315   7.639 -0.2207 -0.1551  0.3031
78767W        W21861  13.231   7.650   9.511 -0.1554  0.2178 -0.2350
78768W        W21862   8.074   5.610   8.016  0.1113  0.0373 -0.2461
78769W        W21863   7.951   5.751   7.109  0.0325  0.0594  0.0795
78770W        W21864  11.220   7.657   9.586 -0.1335  0.2608  0.0811
78771W        W21865   6.706   5.702   9.737  0.0258  0.0980 -0.0843
78772W        W21866   8.498   3.941   9.161 -0.1033 -0.0354 -0.0129
78773W        W21867   9.050   5.190   9.478 -0.1564 -0.0347 -0.0316
78774W        W21868  11.611   4.819   8.977 -0.2572  0.0199 -0.1952
78775W        W21869  10.597   3.219  10.011  0.0934 -0.1417  0.0680
78776W        W21870  10.899   3.468   9.697 -0.0384 -0.1051  0.2229
78777W        W21871  11.498   7.474   7.965  0.2060  0.3523  0.1558
78778W        W21872   8.541   5.762   8.127 -0.0874  0.0977 -0.0232
78779W        W21873   4.972   5.275   8.498 -0.1252 -0.0521 -0.1472
78780W        W21874   7.995   5.419   8.948 -0.0583  0.0569  0.3152
78781W        W21875   8.031   6.054  12.285 -0.4953  0.1404  0.0127
78782W        W21876   7.851   5.893   8.975 -0.0597 -0.0679  0.0280
78783W        W21877   8.935   5.434   6.950  0.1974 -0.0587  0.1825
78784W        W21878   8.154   6.116   8.096  0.2008 -0.3032 -0.1028
78785W        W21879  10.575   2.411   8.130 -0.0314  0.1999 -0.0299
78786W        W21880   9.228   6.063  10.088 -0.1563  0.0460 -0.0405
78787W        W21881  10.426   3.870   8.793 -0.0573  0.2027  0.0683
78788W        W21882   9.274   6.073   9.633  0.0326 -0.1254 -0.2960
78789W        W21883   7.862   2.806   9.881 -0.4001 -0.0239  0.2300
78790W        W21884  10.338   6.068   8.718 -0.1797  0.2128  0.3064
78791W        W21885  10.260   4.085   8.369 -0.0498  0.0883  0.0472
78792W        W21886   9.073   4.296   8.478  0.0161 -0.0841  0.0391
78793W        W21887   8.935   6.363   8.299  0.1125 -0.0644 -0.1174
78794W        W21888   8.680   5.527   9.458 -0.0609  0.0833 -0.1257
78795W        W21889  10.442   6.291   8.215 -0.1986  0.0600  0.4195
78796W        W21890  13.522   3.516   9.863 -0.0647  0.1848 -0.0220
78797W        W21891   7.535   4.830   8.251 -0.0154 -0.0305 -0.0276
78798W        W21892  10.677   4.152   7.468 -0.0864 -0.2422 -0.1743
78799W        W21893   9.209   5.253   8.556 -0.1166  0.0149  0.0229
78800W        W21894   7.195   3.921   9.698  0.3388  0.0164 -0.3438
78801W        W21895  10.257   4.597   8.926 -0.2008 -0.1430 -0.0585
78802W        W21896  10.006   4.794   8.549 -0.0178  0.1824 -0.0286
78803W        W21897   7.696   6.021   9.465 -0.2430 -0.0765 -0.0440
78804W        W21898  11.263   4.329   8.281 -0.0737 -0.1100 -0.0377
78805W        W21899  11.328   3.014  10.672  0.2186  0.1134  0.3651
78806W        W21900  11.939   3.984   9.183  0.0216 -0.1076  0.1559
78807W        W21901   9.042   3.810   9.066  0.1968  0.0853 -0.3857
78808W        W21902   7.962   3.748   9.841  0.0489  0.2999  0.3683
78809W        W21903  10.159   4.925   7.431  0.1245 -0.1360 -0.0502
78810W        W21904   9.364   6.240   7.053  0.0570  0.2237 -0.1944
78811W        W21905  12.348   3.976  10.094 -0.2229 -0.0190  0.0759
78812W        W21906  10.487   4.488   8.012 -0.0327  0.3727  0.0972
78813W        W21907   8.181   4.906   9.002 -0.2457  0.0087  0.0211
78814W        W21908   7.682   5.031   8.745  0.1364 -0.1443 -0.0189
78815W        W21909   9.822   6.026   6.973  0.1009  0.1561  0.1711
78816W        W21910  10.491   4.761  10.030 -0.0929  0.3138 -0.0644
78817W        W21911   9.195   4.423   7.952 -0.0531 -0.1814 -0.1266
78818W        W21912   7.846   6.447   6.854  0.0609 -0.1015  0.1426
78819W        W21913  11.983   4.503  10.198 -0.3280  0.0742  0.0233
78820W        W21914   8.502   7.143   8.964 -0.0952 -0.3128 -0.1530
78821W        W21915   8.562   6.296   7.918  0.2957 -0.3529  0.1255
78822W        W21916  11.022   3.534  10.161 -0.1030  0.3474  0.0015
78823W        W21917   9.735   4.278   8.581 -0.0388  0.0704  0.2057
78824W        W21918   7.801   6.725   9.747  0.0588 -0.0155 -0.1603
78825W        W21919   9.130   3.176   9.205 -0.1992 -0.0924 -0.1526
78826W        W21920   9.455   4.352  10.346  0.0265  0.3996 -0.1992
78827W        W21921   8.654   4.902   8.571  0.1382  0.1488 -0.1265
78828W        W21922   9.967   5.565   9.995  0.2372 -0.1343  0.2688
78829W        W21923   7.393   2.683   9.626  0.0087 -0.2113 -0.0946
78830W        W21924  10.370   5.546   7.994 -0.2960  0.1898 -0.2861
78831W        W21925   6.233   5.311   8.027 -0.0561  0.1546 -0.1060
78832W        W21926   9.112   6.815   9.019 -0.0526  0.0993 -0.0654
78833W        W21927   9.099   6.843   8.474  0.2550  0.1266 -0.3072
78834W        W21928   9.516   6.279   8.197  0.0001  0.1000  0.0097
78835W        W21929  10.186   6.477   9.460  0.3564 -0.1165 -0.0733
78836W        W21930   9.599   4.629   8.206  0.1357 -0.2478 -0.2296
78837W        W21931   8.574   5.720   9.030 -0.2328 -0.2747  0.4013
78838W        W21932   8.119   5.535   6.672  0.1905 -0.4994  0.2038
78839W        W21933  10.330   6.012   7.787  0.0840 -0.0862 -0.0003
78840W        W21934   7.879   7.499   8.322  0.1084 -0.0317 -0.0166
78841W        W21935   9.694   3.222   8.005 -0.4431 -0.3056 -0.0178
78842W        W21936   9.275   5.018   7.673 -0.0644 -0.0622  0.0113
78843W        W21937  11.242   4.682   7.917 -0.3817 -0.1500 -0.3559
78844W        W21938  10.740   4.656   9.234  0.1461 -0.3182 -0.1507
78845W        W21939   8.291   4.739   7.899 -0.0457  0.1380  0.1291
78846W        W21940   9.865   6.589   7.925 -0.1601  0.0653 -0.0445
78847W        W21941   7.909   3.910   8.137  0.2941 -0.1116 -0.5413
78848W        W21942  10.143   5.563   9.383 -0.1889  0.1561  0.3513
78849W        W21943  11.722   3.383   8.957  0.0550  0.1618 -0.2570
78850W        W21944  10.229   6.426   7.077  0.0461 -0.0258 -0.0659
78851W        W21945  11.566   4.267   8.750 -0.0306  0.1970  0.0645
78852W        W21946   8.397   7.584   9.061  0.0689  0.1554 -0.2948
78853W        W21947   8.818   6.057   9.526 -0.0359  0.1480 -0.2782
78854W        W21948  11.923   7.814   9.678  0.0810 -0.1144  0.1180
78855W        W21949   7.186   4.737   8.619 -0.1564 -0.0829  0.2380
78856W        W21950  12.537   3.815   8.925 -0.2020  0.1454 -0.1791
78857W        W21951   8.612   4.420   8.642 -0.0482 -0.1094 -0.0355
78858W        W21952   7.514   5.515   8.902 -0.2118  0.3966 -0.0168
78859W        W21953  10.229   4.180   9.612  0.2121 -0.0427 -0.0306
78860W        W21954   8.720   4.783   9.119  0.1061  0.3951 -0.1011
78861W        W21955   6.988   4.879   9.387 -0.0758  0.1371 -0.1987
78862W        W21956   9.966   5.346   8.282  0.1065 -0.0175  0.2635
78863W        W21957  10.220   5.490   7.496 -0.0209 -0.0223 -0.1484
78864W        W21958   9.989   5.002   9.197 -0.1811 -0.1332 -0.1058
78865W        W21959   9.751   4.633  10.054  0.0254 -0.1637 -0.1164
78866W        W21960   9.016   6.382   7.363 -0.4409 -0.0616 -0.2525
78867W        W21961   8.261   7.062   9.979 -0.0337 -0.2501 -0.3323
78868W        W21962   8.711   4.508   8.130 -0.0739 -0.2779  0.2157
78869W        W21963  10.027   5.909   8.209  0.1717  0.2185 -0.0733
78870W        W21964   9.900   5.963   9.642 -0.2862 -0.1165  0.1231
78871W        W21965   8.814   6.898   7.540 -0.2933 -0.1046 -0.0636
78872W        W21966   9.173   5.178   9.029 -0.2006 -0.2503  0.1106
78873W        W21967  11.534   8.252   8.755 -0.0931 -0.3784 -0.3425
78874W        W21968   9.970   4.199  10.011 -0.3149  0.0893 -0.0619
78875W        W21969  13.610   9.250   8.759  0.1577 -0.0904 -0.1638
78876W        W21970  10.989   7.575  10.269  0.2653 -0.0198  0.0715
78877W        W21971   9.472   4.287   9.123  0.1713 -0.1131  0.0948
78878W        W21972   9.772   5.765   7.386  0.1674  0.0004  0.0358
78879W        W21973   8.249   5.739   8.553 -0.2826 -0.2563  0.1946
78880W        W21974  12.302   4.664   8.951  0.0371 -0.0816  0.1884
78881W        W21975   9.453   6.873   5.283 -0.0912  0.0268  0.0808
78882W        W21976   8.271   6.179   8.869 -0.1588 -0.1784 -0.1086
78883W        W21977   8.194   4.822   8.446 -0.0637 -0.0501  0.1517
78884W        W21978   8.893   5.935   7.146 -0.0828  0.3286  0.2457
78885W        W21979   9.465   7.840   9.493  0.0239  0.1341  0.0393
78886W        W21980  10.481   6.637   9.126 -0.1107  0.1756  0.1787
78887W        W21981   9.916   5.609   7.870 -0.0589 -0.0048 -0.0446
78888W        W21982  10.852   6.655   8.297 -0.0591 -0.1942 -0.2226
78889W        W21983   9.296   3.620   9.414 -0.3384 -0.4035  0.0360
78890W        W21984  11.342   3.745  10.440 -0.0286  0.0337 -0.0855
78891W        W21985  11.257   3.438   8.174  0.1290 -0.3946 -0.0552
78892W        W21986   9.960   4.195   9.054 -0.0184  0.1112 -0.1193
78893W        W21987   7.479   4.825   7.734 -0.3925 -0.1531 -0.2744
78894W        W21988   7.554   4.245   7.126 -0.2411 -0.0001 -0.0946
78895W        W21989   6.969   5.555   8.789  0.3079  0.1524 -0.4837
78896W        W21990   6.807   4.082  10.139 -0.2096 -0.1914 -0.0009
78897W        W21991   7.671   4.157   9.139  0.0442  0.1122  0.1666
78898W        W21992   9.871   7.468   9.320  0.1876  0.1834 -0.3567
78899W        W21993   7.464   2.760   9.057  0.0982  0.1435  0.3009
78900W        W21994   7.591   3.248   9.847  0.3646 -0.2173  0.0870
78901W        W21995  11.080   5.570   8.393 -0.2519 -0.0019  0.1357
78902W        W21996   9.730   7.046   7.843 -0.3834 -0.1561 -0.0440
78903W        W21997  10.951   4.152   8.765  0.4213 -0.2972 -0.0119
78904W        W21998   8.482   4.698   7.022  0.2479 -0.1440  0.1771
78905W        W21999   7.085   4.689   8.026  0.0140  0.1752 -0.1086
78906W        W22000  10.804   3.076   9.260 -0.1323 -0.1226 -0.1364
78907W        W22001   9.724   6.080   7.786 -0.0687  0.1123 -0.1599
78908W        W22002  10.721   7.195   7.628 -0.4489  0.2735 -0.0464
78909W        W22003   6.363   2.922   9.496 -0.0061  0.1255  0.1755
78910W        W22004   9.047   5.633   8.800 -0.2543 -0.0089  0.0926
78911W        W22005  10.863   6.845   8.897  0.1720  0.0234 -0.3333
78912W        W22006  12.666   3.662   9.432 -0.1074  0.0221 -0.0516
78913W        W22007   9.004   2.907  10.420 -0.0711  0.0070 -0.1272
78914W        W22008  10.567   6.135   9.163  0.0602 -0.0907 -0.0096
78915W        W22009   8.369   3.592   9.464  0.1220  0.0376 -0.2926
78916W        W22010  11.375   2.563   8.545  0.0085 -0.2383  0.0846
78917W        W22011   9.343   5.984   7.482  0.1676 -0.0162  0.0146
78918W        W22012   6.776   5.163   8.487 -0.0850 -0.0961 -0.3773
78919W        W22013   9.222   2.832  10.873  0.1072 -0.2169 -0.0661
78920W        W22014  10.757   7.399   9.808 -0.1772 -0.2457 -0.0858
78921W        W22015  10.114   5.687   6.710 -0.1927 -0.1506 -0.2572
78922W        W22016  10.839   5.999   7.183  0.1626  0.0347 -0.0980
78923W        W22017   9.308   7.431   9.714 -0.4398 -0.5118  0.1761
78924W        W22018   7.316   8.014   9.404  0.0609 -0.2721 -0.3033
78925W        W22019  11.801   4.701   9.568  0.0854 -0.1959  0.3867
78926W        W22020   7.018   5.484   9.370  0.1693  0.0252  0.2689
78927W        W22021   8.702   5.457   8.533 -0.4436 -0.0454 -0.4695
78928W        W22022   8.966   4.272   8.971  0.1219  0.1313  0.2675
78929W        W22023  11.140   4.621   8.703 -0.0371  0.2031  0.1017
78930W        W22024   9.337   3.898   8.686  0.2813 -0.1557  0.0383
78931W        W22025  10.790   3.287   8.376  0.0079 -0.0606  0.2263
78932W        W22026   9.157   6.496   9.419  0.1141 -0.2395 -0.0468
78933W        W22027  10.836   5.880   8.080  0.0772 -0.0746  0.0104
78934W        W22028   9.533   9.588   1.386  0.2661 -0.0037 -0.0676
78935W        W22029   7.641   8.193   2.390  0.1833  0.2396 -0.0780
78936W        W22030   9.754   8.593  30.515 -0.3676  0.1015 -0.0450
78937W        W22031  11.293   9.663  31.623 -0.0694 -0.2691 -0.0549
78938W        W22032   8.636   7.893   0.899 -0.0425 -0.0965 -0.1401
78939W        W22033   8.964  13.647   1.049  0.1587 -0.1123  0.1693
78940W        W22034   8.557   7.781   2.750  0.2001  0.0845 -0.2109
78941W        W22035  10.111  10.302   0.335 -0.1512  0.0849 -0.1140
78942W        W22036  12.231  11.189   1.555  0.1633  0.0707  0.0100
78943W        W22037  10.313   9.468   0.850  0.2462  0.0269  0.3503
78944W        W22038   8.205   9.072   4.033 -0.0049 -0.0213  0.1290
78945W        W22039   9.587   9.977   3.267 -0.3412  0.0690 -0.2826
78946W        W22040   9.129   8.044   2.424 -0.1714 -0.0073 -0.0021
78947W        W22041   7.820   7.479   0.697  0.0630  0.4060 -0.1356
78948W        W22042  10.557   9.295   2.302  0.2589 -0.3082  0.0005
78949W        W22043   7.509   8.791  31.859  0.2505 -0.1257  0.0136
78950W        W22044   7.355   9.451   1.799 -0.0802 -0.0907 -0.1735
78951W        W22045   9.480   7.059  31.971  0.2594  0.0950  0.0423
78952W        W22046   8.415  12.357   0.773  0.1077  0.0298 -0.2077
78953W        W22047   8.308   9.202   2.537 -0.0598 -0.3351 -0.1519
78954W        W22048   9.518   5.829   3.209 -0.1505 -0.1084  0.1115
78955W        W22049   9.097  10.737   1.014  0.3411 -0.0404 -0.1218
78956W        W22050   8.902   8.102  30.699  0.1037  0.0353 -0.1860
78957W        W22051   6.516   9.570   1.197 -0.0442  0.2628  0.2903
78958W        W22052   9.163   9.595   1.064  0.1773 -0.1879 -0.1533
78959W        W22053  11.245   8.888   1.795  0.3439 -0.1253 -0.1270
78960W        W22054  11.324   8.626   1.371  0.1361 -0.0034 -0.0281
78961W        W22055   9.986   8.695   0.437  0.0332 -0.1473 -0.2283
78962W        W22056   8.836  10.482   1.564 -0.0834  0.1621 -0.5358
78963W        W22057   8.714   7.727   3.374 -0.1574  0.3261 -0.0265
78964W        W22058   6.875   8.857   1.287 -0.0088 -0.0139  0.1155
78965W        W22059   8.502  10.090   1.227 -0.2103  0.1951 -0.0040
78966W        W22060   9.094  11.229   0.778 -0.3517  0.0887  0.0970
78967W        W22061  10.492   8.407   0.594  0.1660 -0.1082  0.1513
78968W        W22062  11.613   9.903   3.311  0.0410 -0.2586  0.2898
78969W        W22063  10.096  10.942   3.819  0.0831 -0.3112 -0.0115
78970W        W22064   8.201   9.171   0.670 -0.0174 -0.1155 -0.1944
78971W        W22065  10.708   9.696   2.050  0.1600  0.0841  0.0879
78972W        W22066   7.102  10.447   3.581  0.1286 -0.1641 -0.3075
78973W        W22067   9.893   9.227   2.303  0.0283 -0.2356 -0.1947
78974W        W22068   9.104   7.343  31.799 -0.0974 -0.1164 -0.1790
78975W        W22069   7.864  10.458   0.888  0.1037  0.0126  0.1172
78976W        W22070   9.398   9.420   1.870  0.0115  0.0346 -0.1071
78977W        W22071   8.281  11.160   2.725  0.1118 -0.0285 -0.3215
78978W        W22072   7.394   9.291   2.551 -0.1991  0.0508  0.2842
78979W        W22073  11.711   5.996   4.026 -0.1298 -0.2774 -0.2996
78980W        W22074   7.954   8.557   0.541 -0.1471 -0.3290 -0.2091
78981W        W22075  11.387   9.203  31.368  0.1016  0.2716  0.5788
78982W        W22076  11.156   7.288  31.325 -0.3253 -0.0136  0.0500
78983W        W22077  10.865   7.797   0.248 -0.1476 -0.0678 -0.1120
78984W        W22078   8.122   7.154   2.025 -0.3566  0.0061  0.1013
78985W        W22079   8.081  10.721   1.309  0.2166  0.3483 -0.1933
78986W        W22080   9.396   7.997   1.913 -0.1291 -0.0639 -0.0049
78987W        W22081  10.797  10.216   2.578  0.1724 -0.3691 -0.0592
78988W        W22082   8.552   7.421   1.286 -0.1501 -0.2338  0.2733
78989W        W22083  10.080   8.229   2.412 -0.0357 -0.2025  0.0415
78990W        W22084   6.201   9.029   1.936  0.3889 -0.1557 -0.1515
78991W        W22085   6.316   7.846   0.191  0.1087  0.1570 -0.0495
78992W        W22086   8.833  10.800   0.577  0.1823  0.1751  0.1249
78993W        W22087   8.454  11.531   1.338 -0.1987 -0.0610 -0.0301
78994W        W22088   8.003  12.680  31.812 -0.0496  0.0529 -0.5675
78995W        W22089   6.680   7.729   0.531 -0.2016  0.2397 -0.0785
78996W        W22090   8.815  10.309   3.045  0.0393 -0.1721 -0.0156
78997W        W22091   6.794   7.652   2.583  0.3285 -0.2465 -0.0238
78998W        W22092   7.950   7.933  31.767  0.1647  0.1138  0.1554
78999W        W22093  11.861   9.054   3.134  0.3892  0.3587  0.1759
79000W        W22094   7.014  10.236   2.661 -0.0082 -0.0565  0.1336
79001W        W22095  11.763   8.423  31.639 -0.1266  0.2713 -0.1460
79002W        W22096   8.885   8.389   1.757  0.1208 -0.1042 -0.0996
79003W        W22097  10.979  12.247   1.267 -0.0551 -0.1246  0.2543
79004W        W22098   9.977   9.236   0.479  0.0057  0.0038  0.0175
79005W        W22099   9.924   8.732   2.343  0.1859 -0.0950 -0.1589
79006W        W22100   9.388   7.835   1.231 -0.0042 -0.2297 -0.1361
79007W        W22101   9.729   8.989  31.495 -0.0144  0.4860 -0.2815
79008W        W22102   8.210   9.579   1.378 -0.1226  0.1513  0.1472
79009W        W22103  11.453  10.800   2.046 -0.0400 -0.0828 -0.0279
79010W        W22104  10.544  10.048  30.925  0.1235  0.4925 -0.0497
79011W        W22105   7.644  10.830   0.671  0.0075 -0.0999 -0.0450
79012W        W22106   8.153   9.128   3.088 -0.0946 -0.0823  0.4027
79013W        W22107   8.432  11.506   3.163 -0.1415 -0.0433 -0.0322
79014W        W22108   7.484   9.752   0.225 -0.1194  0.1678  0.0628
79015W        W22109   7.850   8.677   2.319  0.0936 -0.2828 -0.0658
79016W        W22110   6.009  10.087   0.511  0.1422 -0.0339 -0.1046
79017W        W22111   7.293   7.724   2.088 -0.1030  0.0928  0.3298
79018W        W22112   8.756   9.293   1.917  0.0628  0.1293 -0.1019
79019W        W22113   9.504   7.123  31.379 -0.1127 -0.0416  0.1252
79020W        W22114   7.397   7.772   2.593  0.0623 -0.0711 -0.3364
79021W        W22115  11.813   8.157   0.777 -0.0944 -0.4040  0.0699
79022W        W22116   7.819   9.072   0.158  0.0470  0.2651  0.1925
79023W        W22117   9.069  12.507   0.421 -0.1125  0.1941 -0.0182
79024W        W22118  11.186   9.823   0.141 -0.2247  0.1514 -0.2846
79025W        W22119   9.539   9.862  31.052 -0.0045 -0.1220  0.1718
79026W        W22120   6.856   7.919   0.948  0.1304  0.0206  0.1429
79027W        W22121   8.092   8.152   0.262 -0.0502 -0.4550  0.0922
79028W        W22122   9.143   9.060   2.993  0.0792 -0.0291  0.2067
79029W        W22123   7.627   7.997   0.269 -0.0928  0.3316  0.1759
79030W        W22124  10.535   8.995   3.653  0.0557 -0.0475 -0.2607
79031W        W22125   8.471   6.812   0.964  0.0780  0.3938 -0.0362
79032W        W22126  10.871   8.921   1.473  0.1518 -0.2484 -0.5076
79033W        W22127   7.369   8.691   1.130  0.1055 -0.1237  0.1530
79034W        W22128   6.933   9.317   1.347  0.3183  0.2227  0.2882
79035W        W22129  11.048   7.050   4.400 -0.3177  0.2379 -0.0595
79036W        W22130   8.454  11.367  31.376 -0.0046  0.2070  0.2698
79037W        W22131  11.269  12.221   2.105  0.1069  0.0243 -0.1798
79038W        W22132   9.565  11.818   1.505 -0.3067 -0.2407 -0.1332
79039W        W22133   9.014   7.643   2.859  0.1064  0.0589  0.0397
79040W        W22134   7.361   8.227  31.928 -0.2276 -0.0068 -0.0768
79041W        W22135   7.970  11.175   1.380 -0.2428  0.1919  0.0404
79042W        W22136   7.816   9.131   1.784 -0.0330  0.0432 -0.0265
79043W        W22137   9.044   7.677   0.577  0.3048 -0.0144 -0.1478
79044W        W22138  10.291  11.147   0.498  0.0441 -0.1521 -0.1950
79045W        W22139   9.710   9.204   1.122  0.1996 -0.0701  0.2804
79046W        W22140   9.646   8.791   0.754  0.1770 -0.0567  0.2555
79047W        W22141  10.789   8.898   2.028  0.3072  0.2156 -0.1741
79048W        W22142  10.804   9.446   3.544  0.0418 -0.0899  0.1296
79049W        W22143  10.053   8.497   2.834  0.0422 -0.1111  0.1291
79050W        W22144   9.805   6.022   0.764  0.0132  0.2480  0.2891
79051W        W22145   8.661  12.034   1.205  0.2491  0.0447 -0.2125
79052W        W22146   8.396  10.237   0.763 -0.0716 -0.1528  0.0492
79053W        W22147   7.044   8.242   0.601 -0.1527  0.0000 -0.3593
79054W        W22148   9.069  10.028   1.350 -0.3358 -0.0249  0.2751
79055W        W22149  10.720   8.986   0.871 -0.1281 -0.1221 -0.2428
79056W        W22150   7.599   9.526   4.643 -0.0152  0.0466 -0.0079
79057W        W22151   9.729   9.058   3.347  0.0658  0.0539 -0.4527
79058W        W22152   7.842   8.390   1.020 -0.2226 -0.0315 -0.0491
79059W        W22153   9.220  10.027   2.829 -0.0219 -0.0583  0.2238
79060W        W22154   9.617   5.451  31.535 -0.1572  0.2281 -0.0138
79061W        W22155  10.902   9.841  31.247 -0.2684  0.2090  0.1871
79062W        W22156   9.758   9.177   4.188  0.0561 -0.1915 -0.3095
79063W        W22157   9.740  10.008   0.277  0.1765  0.0860  0.0379
79064W        W22158   9.729   8.053   0.197  0.0288  0.4612 -0.3099
79065W        W22159  11.174   7.603   1.568  0.2502  0.0233  0.1810
79066W        W22160   8.019   9.719   2.418  0.0216  0.0226  0.0276
79067W        W22161   8.805   8.924   0.132  0.2310  0.2471 -0.0909
79068W        W22162  10.789   9.676   2.579 -0.0761 -0.2137 -0.0150
79069W        W22163  10.871   9.387   0.250 -0.1279 -0.0011  0.0678
79070W        W22164   8.681  10.184  31.825  0.0843  0.2385  0.2187
79071W        W22165   8.498   8.505   1.437  0.1224 -0.2209 -0.3442
79072W        W22166  10.017  10.367   4.160  0.3142 -0.1063 -0.3283
79073W        W22167   9.677  11.225   0.627  0.2233 -0.3161  0.1888
79074W        W22168   8.771   8.478   2.274  0.4099 -0.3187  0.0392
79075W        W22169   8.913   7.896  31.953 -0.1371 -0.0838 -0.0029
79076W        W22170   9.937   8.700   1.790  0.1448  0.0314 -0.1620
79077W        W22171   7.543  11.262   0.940 -0.2327  0.0266  0.0491
79078W        W22172  11.550   7.010   3.358 -0.0459 -0.0417 -0.2245
79079W        W22173   8.848   7.907   1.817 -0.1580  0.0419  0.0023
79080W        W22174  10.875   6.569   2.985  0.2581  0.0613 -0.0725
79081W        W22175  11.373   7.192   3.792 -0.1524  0.0330  0.0091
79082W        W22176  10.234   8.903   0.060  0.0799 -0.0861 -0.3162
79083W        W22177  10.472  10.252   3.421  0.0051  0.0729 -0.0753
79084W        W22178   9.208   8.107   0.355 -0.0922  0.2392  0.0177
79085W        W22179   8.535   9.970   3.194  0.0301 -0.1112  0.1317
79086W        W22180   7.566  10.620   3.473  0.0474  0.4256  0.1409
79087W        W22181  10.242  10.495   2.516  0.1932  0.0272 -0.2972
79088W        W22182   9.500   8.354   1.088  0.2089  0.3217  0.1276
79089W        W22183   9.499   9.014   1.546  0.0093 -0.2249 -0.1655
79090W        W22184  10.172   5.331   0.064 -0.0094 -0.0030 -0.0436
79091W        W22185   8.024  10.069   1.304 -0.2907 -0.0360  0.0643
79092W        W22186  10.107   9.166  31.213 -0.0304  0.3487  0.1819
79093W        W22187   9.705   7.840   1.570  0.2445  0.1841 -0.1955
79094W        W22188   9.349  10.405   1.665  0.1584  0.0447  0.2237
79095W        W22189   9.888  10.258   0.807  0.1798  0.0400 -0.2742
79096W        W22190   9.513   8.659   3.003 -0.2109  0.1146 -0.2057
79097W        W22191   8.685   9.410   1.127 -0.3368 -0.0591 -0.0166
79098W        W22192  10.142   7.807   1.922  0.2538 -0.3794 -0.2036
79099W        W22193   8.119  10.467   2.140 -0.0432  0.1488  0.0388
79100W        W22194   8.932   8.516   0.533 -0.0890 -0.1415 -0.2710
79101W        W22195   7.311   9.824   0.722 -0.0069 -0.2830  0.0317
79102W        W22196  11.693   7.666   0.844 -0.1011  0.2180 -0.2469
79103W        W22197   9.766  10.190  31.753  0.0752  0.0141  0.2232
79104W        W22198   7.522   8.297   1.386  0.0737 -0.0593 -0.0458
79105W        W22199   9.273   7.185   0.899 -0.1899 -0.2596 -0.1287
79106W        W22200   8.197  10.626   2.648  0.3437  0.0406  0.1677
79107W        W22201   8.995   8.974   2.258 -0.0060 -0.1144 -0.3288
79108W        W22202  11.324   7.343  30.875 -0.0512 -0.3403  0.1270
79109W        W22203   9.147  11.903   0.793  0.0313 -0.1841 -0.0178
79110W        W22204   8.013   9.282   4.688  0.0446  0.0310 -0.2716
79111W        W22205   9.686   7.400   1.184  0.1757 -0.2945  0.2095
79112W        W22206   9.606   8.290   2.505 -0.2206 -0.2006  0.0042
79113W        W22207   8.025   8.647   1.848 -0.2376  0.2012  0.0033
79114W        W22208   7.759   9.575   0.865 -0.0056 -0.1213 -0.2362
79115W        W22209   9.955   9.983   2.078 -0.2646  0.2185  0.0831
79116W        W22210   7.793   9.215   1.283 -0.5957  0.1283 -0.2267
79117W        W22211   8.684   8.959   0.759 -0.1502  0.2911  0.2475
79118W        W22212   6.762   9.071   2.316 -0.0062 -0.2238  0.1129
79119W        W22213  10.666   9.851   1.102  0.1262 -0.1686  0.2053
79120W        W22214   8.102   8.511   2.756  0.1771  0.1117  0.0316
79121W        W22215   8.639   7.868   2.260 -0.2892  0.2435  0.0204
79122W        W22216   8.985   7.594   1.137  0.1070  0.4249  0.2254
79123W        W22217  10.747   9.385   1.186  0.4639  0.1090  0.1038
79124W        W22218   9.453   8.954   2.491  0.2415 -0.1043 -0.3219
79125W        W22219   7.068   9.367   3.607 -0.0330  0.5903  0.0240
79126W        W22220  10.441   5.914   2.474  0.2760  0.1826  0.1062
79127W        W22221  10.909  10.762   0.227 -0.2190 -0.1751  0.1901
79128W        W22222  10.029   8.880   3.802  0.0296 -0.1576 -0.0265
79129W        W22223   9.023   6.903  31.553  0.0255  0.1892 -0.1405
79130W        W22224   8.012   7.959   2.975 -0.1042  0.2921 -0.2361
79131W        W22225   8.523  10.901   1.548 -0.1263 -0.3898 -0.1769
79132W        W22226  10.300   8.991   1.953 -0.3030 -0.1058 -0.2779
79133W        W22227   9.051  11.681   1.366  0.0515  0.1420 -0.2312
79134W        W22228   8.503   7.887   1.474  0.0864 -0.1945 -0.1279
79135W        W22229   7.920   9.876   2.961 -0.3625 -0.0336  0.4218
79136W        W22230  12.656   8.080   0.887  0.0775 -0.1508  0.0414
79137W        W22231   9.022  10.339   0.711  0.0241  0.3681  0.1097
79138W        W22232  10.287   9.587   0.324 -0.1484 -0.3708  0.2631
79139W        W22233  10.327   9.256   3.255 -0.2235 -0.0971 -0.0960
79140W        W22234   9.554  10.332  30.151  0.0844  0.0578 -0.0615
79141W        W22235  10.725   7.069   3.009  0.0407  0.0719  0.0955
79142W        W22236   8.318   6.855   3.051  0.4085 -0.0739  0.0513
79143W        W22237  10.033  10.511   1.273  0.0910 -0.1081  0.2029
79144W        W22238   7.845   9.412   2.835  0.3930 -0.1212  0.1834
79145W        W22239  11.310  10.060   1.755  0.1291 -0.1582 -0.0760
79146W        W22240   8.433   8.977   4.705 -0.0377 -0.3889 -0.0249
79147W        W22241  10.207   7.741   1.350 -0.0655  0.2043  0.2471
79148W        W22242   8.254   8.193   1.033  0.2964  0.1039 -0.0773
79149W        W22243   9.262   8.525   2.116 -0.1289  0.1393 -0.2542
79150W        W22244  10.497  10.342   1.105  0.2774 -0.0248  0.1118
79151W        W22245  10.359   8.005   0.973 -0.0968  0.1399  0.1220
79152W        W22246  10.316   7.478   0.072 -0.1646 -0.1398  0.0974
79153W        W22247   7.555   8.654   1.866  0.1237 -0.2376 -0.1139
79154W        W22248  10.132   8.931   0.864 -0.0952 -0.3904 -0.0245
79155W        W22249   9.465   8.525   0.263  0.0664  0.2788  0.2596
79156W        W22250   7.485  10.087   1.236  0.1756  0.0181  0.0837
79157W        W22251   8.511   9.103   3.637  0.2066  0.0899  0.1432
79158W        W22252   9.127   8.602   1.296  0.0085  0.0943 -0.1187
79159W        W22253   8.428   8.238   1.848  0.0248  0.1499  0.2024
79160W        W22254  10.286   8.920   2.643  0.1358 -0.2370  0.2216
79161W        W22255   9.166   8.164   2.979  0.1904  0.0314  0.0655
79162W        W22256   9.192  11.054   3.793 -0.0006  0.0018 -0.0615
79163W        W22257   7.511   7.954   3.878  0.2332 -0.0740 -0.0654
79164W        W22258  11.396  10.875   2.540  0.0718 -0.2547  0.0120
79165W        W22259  10.723   8.737   0.212 -0.0000 -0.1613 -0.0043
79166W        W22260  11.037   8.414   1.772  0.0024  0.1974  0.1482
79167W        W22261  12.384   8.026   0.276  0.1312  0.1149  0.2758
79168W        W22262  11.493   8.129  31.303  0.2275 -0.1273  0.0600
79169W        W22263   7.015   8.312   1.235  0.0538 -0.2124  0.0543
79170W        W22264  11.316   9.965   2.775  0.0327 -0.3328  0.0405
79171W        W22265   9.716   6.689  30.887  0.0594  0.3284 -0.2293
79172W        W22266   8.710   8.317   2.768 -0.1600 -0.0811 -0.1236
79173W        W22267   9.493  12.651   0.133  0.0707  0.0064  0.3007
79174W        W22268   9.204   9.088   1.017  0.2428 -0.0676 -0.0498
79175W        W22269   9.561   8.360   1.585 -0.1330  0.0186  0.2762
79176W        W22270   6.562   8.486   1.231 -0.4991 -0.0956 -0.0065
79177W        W22271   7.885  10.845   3.094 -0.3111 -0.0396  0.2660
79178W        W22272   7.404   8.834  31.142 -0.3278 -0.0624 -0.1084
79179W        W22273   9.908   7.560   0.309 -0.0261 -0.0203 -0.1629
79180W        W22274  10.144   9.553   2.033  0.0385 -0.1330 -0.3880
79181W        W22275  11.133  10.431   2.218 -0.2245  0.1548 -0.1272
79182W        W22276   8.398   6.137   0.052 -0.0635  0.2137 -0.4289
79183W        W22277  10.737   8.630   4.069  0.0933 -0.1201 -0.0783
79184W        W22278   6.577  10.029   2.103  0.1155  0.0458 -0.1615
79185W        W22279   9.899   5.927   2.397  0.1829 -0.0375  0.2570
79186W        W22280   8.393   9.979   1.748  0.1463  0.2823 -0.2377
79187W        W22281   7.657   9.671   2.108 -0.0041 -0.3149  0.0193
79188W        W22282   9.089   9.285   1.467  0.1514  0.0181 -0.0251
79189W        W22283   9.339   8.390   3.401 -0.0566  0.1202  0.0821
79190W        W22284  10.544   8.544   1.595  0.3452  0.1066  0.1922
79191W        W22285   9.567   8.971   2.019 -0.3090  0.0799  0.2330
79192W        W22286  12.100  10.026   3.440 -0.1980 -0.1611 -0.0556
79193W        W22287   9.782  11.285   3.644  0.1435 -0.1467 -0.2988
79194W        W22288   8.817   9.267   2.612 -0.2230  0.0251  0.0061
79195W        W22289   9.357   9.580   2.673  0.1590 -0.1548 -0.2952
79196W        W22290  10.346   9.557   1.368 -0.2104 -0.1168 -0.1596
79197W        W22291   8.362   8.271   2.421  0.0732 -0.0265 -0.0008
79198W        W22292   8.288   9.079   2.076  0.1550 -0.1192 -0.0651
79199W        W22293   9.939   9.552   3.316  0.1763 -0.4452 -0.0860
79200W        W22294   9.729  10.784   1.615 -0.0382  0.1975 -0.2236
79201W        W22295   9.636   6.480   2.480 -0.0734 -0.1280  0.0107
79202W        W22296   9.504   9.322   0.643 -0.3586 -0.1660  0.0166
79203W        W22297   7.609   9.980   4.277 -0.1132  0.2995 -0.0404
79204W        W22298   7.437   9.578   3.945 -0.2689  0.0635 -0.0886
79205W        W22299   8.675   9.861   0.459 -0.0013 -0.0056 -0.1209
79206W        W22300   9.433  10.161   0.941 -0.1083  0.0410 -0.0519
79207W        W22301   9.255   9.821   0.624  0.0362  0.0636  0.0737
79208W        W22302  10.805  10.202   1.916 -0.1658 -0.0840 -0.1488
79209W        W22303  10.048   7.608   0.894 -0.2814  0.2052 -0.0402
79210W        W22304   8.300   8.906   0.237  0.0584 -0.0838 -0.2897
79211W        W22305   6.781  10.419   1.163  0.2116  0.2951  0.3370
79212W        W22306   8.692  12.393   1.635  0.0572 -0.0926  0.0365
79213W        W22307   6.818   7.426   2.103  0.0076 -0.0543  0.2195
79214W        W22308  10.026  10.653   2.015  0.2532 -0.0054 -0.0202
79215W        W22309  11.985   8.009  31.357 -0.1464 -0.3547 -0.0964
79216W        W22310  10.480   9.189   0.491 -0.1710  0.2630 -0.3834
79217W        W22311  11.380   8.028   0.009 -0.1056 -0.0440  0.2009
79218W        W22312   9.809   9.184   2.861 -0.0255 -0.1621 -0.1203
79219W        W22313   8.533   8.751   1.863  0.2197 -0.1072 -0.0810
79220W        W22314   9.560   7.318   0.473  0.0583  0.1127  0.1008
79221W        W22315   9.375   9.438   3.226 -0.0625  0.2364  0.0491
79222W        W22316   9.908   6.326   3.646  0.0989  0.0450 -0.0809
79223W        W22317   7.893  11.026   3.817 -0.1317  0.0599 -0.0115
79224W        W22318   9.981  12.256   1.408  0.0329 -0.0834  0.1803
79225W        W22319   7.704   6.635  30.983  0.2052 -0.2913  0.1065
79226W        W22320   9.030   8.873   1.791  0.1336 -0.1899  0.3879
79227W        W22321  11.322   7.876   1.943  0.2951 -0.0258  0.2482
79228W        W22322   9.229   9.034  31.417 -0.0292  0.1630 -0.0309
79229W        W22323   9.735   8.726   1.270 -0.1103 -0.2474 -0.1181
79230W        W22324   8.420  12.832   2.163  0.0533  0.1502  0.0153
79231W        W22325   9.076  10.493   2.035 -0.0699 -0.0477  0.1262
79232W        W22326   8.886  10.001   1.899  0.0800 -0.1629 -0.0764
79233W        W22327   7.676   7.196  31.706 -0.0458  0.1342 -0.4119
79234W        W22328  11.139   8.956   0.432 -0.1257 -0.1494  0.4931
79235W        W22329   7.798   8.982   2.727 -0.0643 -0.1869 -0.0622
79236W        W22330  10.251   8.035   2.826 -0.2835 -0.1669 -0.0211
79237W        W22331   8.689   8.097   0.464  0.1529  0.0604  0.1031
79238W        W22332  10.052   7.987   0.544 -0.0216 -0.0313 -0.2182
79239W        W22333  10.615   8.467   2.648 -0.0460 -0.1071 -0.0236
79240W        W22334   9.352  10.278   3.642  0.1740 -0.2511 -0.3231
79241W        W22335  10.651   8.251  30.896 -0.0256 -0.0653 -0.2320
79242W        W22336  10.604   8.133   3.741 -0.0353 -0.5539  0.0724
79243W        W22337  10.088  10.593  31.758 -0.0525 -0.0347  0.0268
79244W        W22338   9.993  10.400   3.581 -0.3103 -0.1547  0.1437
79245W        W22339   7.241   9.143   1.015  0.0374  0.0446  0.1455
79246W        W22340  12.348   8.928  31.363 -0.0851 -0.2525  0.1626
79247W        W22341   7.042   9.576   0.367 -0.0738 -0.0308 -0.0723
79248W        W22342   8.693   9.203   3.163  0.1710  0.2142  0.1343
79249W        W22343   9.808  10.504   3.124  0.1450 -0.1484 -0.3023
79250W        W22344   8.192   7.729   1.042 -0.0724  0.0510 -0.0351
79251W        W22345  10.925   9.026  31.848 -0.1138 -0.0704  0.0872
79252W        W22346  11.369   8.271   1.031 -0.1235 -0.2158 -0.0248
79253W        W22347   9.299  11.044  30.492  0.0253 -0.2819 -0.1888
79254W        W22348  10.050   8.474   0.957  0.3301 -0.1443  0.3328
79255W        W22349   9.469  10.794   3.443  0.1171 -0.0624 -0.1723
79256W        W22350   7.387   9.037   1.491 -0.1806  0.0285 -0.1686
79257W        W22351  10.025  11.048   0.946 -0.0800  0.4527 -0.0421
79258W        W22352  12.215   9.294   1.375  0.0229 -0.1728 -0.1709
79259W        W22353   9.685   6.977   2.364 -0.2292  0.0286 -0.0733
79260W        W22354   8.195   8.817   1.084 -0.1203 -0.1338  0.1498
79261W        W22355   7.046   9.842   1.328  0.1144 -0.3690 -0.1717
79262W        W22356  11.697   8.990   0.284  0.0323 -0.1532  0.3186
79263W        W22357   9.862   9.744   2.855 -0.7497  0.0520 -0.0737
79264W        W22358   7.960  11.047   0.381 -0.0827 -0.2681 -0.0171
79265W        W22359   8.938   8.624   3.141 -0.0820  0.1333 -0.1231
79266W        W22360   9.387   9.907   1.832  0.2357  0.4464 -0.2847
79267W        W22361   7.684  10.374   2.896  0.1894 -0.3536 -0.0947
79268W        W22362   6.465   9.891   0.395  0.1563 -0.1391  0.3783
79269W        W22363   8.751   8.956   1.333  0.0902 -0.0026  0.1534
79270W        W22364   8.298   9.730   0.838 -0.2443 -0.3314  0.2193
79271W        W22365   8.163   9.529   1.936  0.1844 -0.0624 -0.2216
79272W        W22366  10.445  11.412   1.076  0.3261 -0.3175  0.3189
79273W        W22367  10.260   9.000   1.369 -0.1138 -0.1146  0.1579
79274W        W22368  10.543   8.532   1.088  0.0085 -0.2431 -0.1290
79275W        W22369   7.852   7.538   0.212 -0.2683 -0.0404 -0.0150
79276W        W22370  11.322   8.052   0.559  0.1314 -0.1111  0.0786
79277W        W22371   9.406   7.662  31.469 -0.0126  0.1308  0.0122
79278W        W22372   8.926   9.599   3.015  0.2100 -0.0245  0.1451
79279W        W22373   9.167   6.872  30.977  0.1399 -0.0718  0.1857
79280W        W22374   8.681   8.458   1.014 -0.2714  0.1815  0.1469
79281W        W22375   7.085   9.419   2.221  0.2810 -0.0969 -0.3501
79282W        W22376   9.302   8.121   3.849  0.1773 -0.2599  0.0793
79283W        W22377   7.566   8.706   3.234  0.0050  0.0536  0.0439
79284W        W22378   7.385   9.044   2.101 -0.1477  0.0757  0.2151
79285W        W22379   8.042   8.333   1.487 -0.1482  0.0729 -0.1160
79286W        W22380   9.831  12.607   1.059  0.1648  0.0981 -0.0984
79287W        W22381   8.212   7.775   1.986  0.3099 -0.0612 -0.0022
79288W        W22382   8.666   7.460   0.304  0.0448 -0.1338 -0.0733
79289W        W22383   9.690  10.158   1.388 -0.1442  0.0973  0.1824
79290W        W22384   8.665  11.417   2.563 -0.2685  0.2540  0.1080
79291W        W22385   9.811   6.838   1.823 -0.3551 -0.2784  0.0967
79292W        W22386  10.475  10.568   1.556  0.0392  0.1572 -0.1275
79293W        W22387   7.446   9.342   0.540  0.0794 -0.1037  0.1703
79294W        W22388   9.073   9.361   3.553 -0.2953 -0.0702  0.3963
79295W        W22389   9.136   8.807   3.541  0.0977 -0.0067  0.0190
79296W        W22390   7.007   7.832  31.180 -0.2981  0.0470  0.3957
79297W        W22391   8.969   8.111   1.316 -0.4448  0.0353 -0.2360
79298W        W22392   9.761  10.675   2.541 -0.2828  0.1479  0.1886
79299W        W22393   8.647  12.744   0.297  0.4041  0.1093  0.0106
79300W        W22394   9.165   8.603   2.641 -0.1890 -0.1194  0.0298
79301W        W22395   8.816   9.909   0.923 -0.0790 -0.1968 -0.3351
79302W        W22396   9.006   6.884   3.207  0.0092  0.2229 -0.1907
79303W        W22397   9.622  10.665   0.733  0.1789 -0.0390 -0.1352
79304W        W22398   9.092   9.557   2.236  0.3019  0.1134  0.0717
79305W        W22399  12.097  10.879   0.489  0.0179 -0.2138 -0.0617
79306W        W22400  11.375   7.849   3.092  0.1925  0.1188 -0.2043
79307W        W22401  10.026   9.274  31.776  0.3347 -0.1839  0.1739
79308W        W22402   7.910   9.414   4.239  0.2620  0.1347  0.1138
79309W        W22403   8.893   8.917   3.926 -0.0995  0.0323 -0.0180
79310W        W22404  10.172  10.666   0.700  0.0111 -0.0306 -0.1016
79311W        W22405   9.941   6.833   1.331  0.1710  0.3624 -0.0697
79312W        W22406  10.554   6.698   1.337  0.0966 -0.2805  0.1433
79313W        W22407   8.578  11.144   0.898 -0.0323  0.1894 -0.0360
79314W        W22408   7.007   9.670   2.663 -0.2647  0.2650  0.0465
79315W        W22409   9.889   8.570  31.886  0.0295  0.1557  0.0427
79316W        W22410   8.856   8.280   3.506  0.0332  0.1182 -0.1067
79317W        W22411   9.784   8.288   2.032 -0.1819  0.0827 -0.1319
79318W        W22412   9.632   9.682   2.261 -0.1345  0.0020 -0.3919
79319W        W22413   9.084   9.008   0.515  0.2292 -0.0528 -0.1390
79320W        W22414  11.528  10.772   0.398 -0.1557  0.4225  0.0020
79321W        W22415  10.278  11.761   0.656 -0.1150 -0.1057  0.0267
79322W        W22416  10.410  10.516   3.886  0.1393  0.1830  0.2317
79323W        W22417   8.587  10.645   2.102 -0.1042  0.4342  0.2822
79324W        W22418  10.971  10.691   1.836 -0.0300 -0.0679  0.0269
79325W        W22419   7.792   7.565   2.038 -0.1951  0.0873  0.0549
79326W        W22420   7.801   8.762   1.392  0.0695  0.2763  0.3147
79327W        W22421   9.315   7.649   0.186 -0.1472 -0.1987 -0.3596
79328W        W22422   9.930   9.784   1.628 -0.0955 -0.0862  0.0714
79329W        W22423   7.796   8.175   1.895  0.1464 -0.0352  0.1193
79330W        W22424   8.435   7.825   0.006  0.2393 -0.4408 -0.5302
79331W        W22425   8.116  11.868   1.419 -0.2123 -0.0326  0.0377
79332W        W22426  10.618   9.351   1.743  0.2343 -0.1623  0.1410
79333W        W22427   7.744   8.633   6.824  0.0250 -0.1667 -0.2300
79334W        W22428   7.746   9.529   5.177 -0.0401  0.2393  0.2607
79335W        W22429   9.774   8.647   4.201  0.0146 -0.0203  0.0618
79336W        W22430  10.441   8.967   5.965 -0.3501  0.0042 -0.0356
79337W        W22431   8.172   6.780   4.506  0.3608  0.1704  0.1395
79338W        W22432   9.259  11.249   3.344  0.2624  0.0098 -0.3144
79339W        W22433   7.701   6.126   7.248  0.2103 -0.0865 -0.1232
79340W        W22434   9.437  10.380   5.953 -0.2986 -0.0194 -0.3227
79341W        W22435  10.413  10.027   5.705 -0.0869 -0.1923 -0.0001
79342W        W22436   9.678   9.680   4.153 -0.3629  0.0403 -0.4743
79343W        W22437   8.162   7.684   5.883  0.0972 -0.1526  0.0440
79344W        W22438   9.650  10.235   6.379  0.0241  0.1140  0.0281
79345W        W22439   8.762   7.259   2.246  0.1719  0.1811 -0.0372
79346W        W22440   7.559   6.987   5.277 -0.0337 -0.0151 -0.0021
79347W        W22441  10.357   8.888   6.467  0.2745  0.2080 -0.0733
79348W        W22442   6.449   7.988   4.598 -0.1254 -0.2038 -0.4940
79349W        W22443   8.446   7.961   6.819 -0.1236 -0.1474 -0.3269
79350W        W22444   7.919   8.779   4.517  0.3291 -0.0634  0.1487
79351W        W22445   8.609  11.436   5.247 -0.2980  0.0249  0.2206
79352W        W22446   9.138   7.641   6.862  0.0276 -0.1663 -0.0638
79353W        W22447   9.286   7.288   5.595  0.3965  0.2557 -0.0716
79354W        W22448   8.953   9.041   4.573  0.2445  0.1172 -0.0354
79355W        W22449   7.158   8.902   3.425 -0.1161  0.0205 -0.0921
79356W        W22450   7.631   7.215   6.338  0.1454  0.0231  0.2842
79357W        W22451   9.136   9.362   5.799 -0.1654  0.1105 -0.2835
79358W        W22452  10.419   8.414   6.620  0.0400  0.0140  0.0977
79359W        W22453  11.598   9.337   4.650  0.3878  0.0272 -0.2455
79360W        W22454   8.715  11.289   3.555  0.0037  0.1104 -0.0537
79361W        W22455   8.342  11.819   5.805 -0.4303  0.0190 -0.1663
79362W        W22456   8.889   7.203   6.503  0.0465  0.1067  0.0442
79363W        W22457   7.939   8.996   5.528  0.2576 -0.1148  0.1737
79364W        W22458   7.951  11.282   4.368 -0.1402  0.1485 -0.1657
79365W        W22459   8.544  10.687   4.927 -0.2112  0.1068  0.0061
79366W        W22460  10.599   8.785   4.988 -0.1373  0.3060 -0.0305
79367W        W22461   9.799   9.351   5.964  0.4312  0.0564 -0.0585
79368W        W22462  10.098  11.103   6.330  0.1496 -0.2006  0.2488
79369W        W22463   7.885   9.852   3.822  0.1771 -0.1764 -0.2211
79370W        W22464   7.760  11.070   6.714 -0.1060  0.3162  0.1510
79371W        W22465   8.609  10.889   6.902  0.1691  0.1026  0.2252
79372W        W22466   9.278   7.714   6.350 -0.2058 -0.2944 -0.2403
79373W        W22467   8.968   8.289   5.107 -0.3684 -0.0934 -0.5205
79374W        W22468   8.769  10.770   4.507 -0.1396  0.1937 -0.1231
79375W        W22469  10.819  10.075   6.004  0.1188  0.2611  0.0619
79376W        W22470   8.797  10.008   7.015 -0.2713  0.0592 -0.0415
79377W        W22471   7.192  10.819   5.238  0.0574 -0.1647  0.2641
79378W        W22472  11.733   8.101   6.892  0.0452 -0.2293 -0.0788
79379W        W22473   9.619  10.328   2.122  0.1144 -0.0226  0.1950
79380W        W22474  10.490   9.418   3.927  0.0786 -0.2735  0.4382
79381W        W22475   8.814   8.440   4.002  0.2131 -0.0519 -0.1158
79382W        W22476  10.335   7.301   3.845  0.0625  0.1223  0.0848
79383W        W22477   9.276   7.300   4.474 -0.1770 -0.0155  0.1086
79384W        W22478   7.094  10.738   4.715 -0.1683  0.1538 -0.1793
79385W        W22479   8.292   8.629   5.448  0.0819 -0.0641 -0.3191
79386W        W22480  10.938   9.340   7.221 -0.1846  0.1106 -0.2264
79387W        W22481   8.910  10.192   4.752  0.3364 -0.3550 -0.0011
79388W        W22482   8.836   7.168   6.016 -0.1334 -0.0560  0.1547
79389W        W22483   8.562  10.079   6.031 -0.2503  0.0656  0.1593
79390W        W22484   6.812   8.438   6.051 -0.0387  0.0240  0.2280
79391W        W22485  11.874   9.372   3.627 -0.1144  0.0424 -0.2624
79392W        W22486  10.947   9.875   4.697  0.0175  0.1210 -0.0414
79393W        W22487   8.442   9.428   4.369  0.2758  0.1740  0.3990
79394W        W22488   8.840   9.508   3.973  0.0312 -0.1047  0.1070
79395W        W22489   7.699   9.769   7.119  0.2046 -0.1877 -0.0743
79396W        W22490   7.367   8.662   5.582 -0.3595  0.5342  0.3606
79397W        W22491   9.123   7.770   4.792 -0.0205 -0.0155  0.2268
79398W        W22492  11.516   9.627   7.245 -0.2401  0.0253  0.1593
79399W        W22493   7.079  10.390   6.214 -0.0746  0.0848 -0.3041
79400W        W22494  10.971   8.882   6.337  0.3163  0.1797  0.2565
79401W        W22495   9.186   8.870   5.359  0.4239  0.1745 -0.0049
79402W        W22496   9.819   9.568   5.264  0.0042 -0.2479  0.1558
79403W        W22497  10.383  10.118   2.244  0.1756 -0.1605 -0.0814
79404W        W22498   9.588   7.476   5.199 -0.1427  0.0928  0.0788
79405W        W22499  10.178   7.489   6.555 -0.2913 -0.0714 -0.0745
79406W        W22500   7.702   9.159   3.282 -0.2662 -0.3646 -0.0681
79407W        W22501   8.320   9.612   3.903 -0.1283  0.0034  0.2039
79408W        W22502  10.811   9.707   5.594  0.2845  0.0942 -0.0916
79409W        W22503  11.443   8.677   2.849  0.1633  0.0622  0.0322
79410W        W22504   6.364   9.851   5.626  0.2265 -0.2321 -0.2633
79411W        W22505   9.154   8.173   6.197 -0.0607  0.0767 -0.0776
79412W        W22506   9.627  10.117   6.869 -0.1208 -0.2130  0.1285
79413W        W22507   7.982  10.144   3.418 -0.1785 -0.4568 -0.0334
79414W        W22508   6.706   9.784   4.455  0.2152  0.2320 -0.0228
79415W        W22509   6.933   8.712   4.330 -0.0521  0.2311  0.3202
79416W        W22510   7.970   8.132   5.091 -0.0417  0.1096  0.1127
79417W        W22511   8.431  11.216   4.807  0.0644  0.0954 -0.0419
79418W        W22512   9.820   7.208   3.726  0.1106 -0.0179 -0.2434
79419W        W22513   8.067   8.297   6.573 -0.2555 -0.0098 -0.1481
79420W        W22514  10.804   7.961   6.436 -0.1744 -0.0005 -0.0511
79421W        W22515   6.557   8.563   4.056 -0.3259  0.5624 -0.3981
79422W        W22516  10.162  10.091   5.191  0.0967 -0.1438 -0.3197
79423W        W22517   9.543   8.478   5.944 -0.2701  0.1371 -0.1503
79424W        W22518   9.663  10.640   3.850 -0.1017 -0.0750  0.0618
79425W        W22519   6.580   7.831   6.105  0.2875  0.0492  0.2647
79426W        W22520   8.107   8.594   3.918  0.0160 -0.1858 -0.1350
79427W        W22521   8.039   6.722   5.452  0.0200 -0.3110 -0.0692
79428W        W22522   8.029   7.222   5.592 -0.0566 -0.0060 -0.0301
79429W        W22523  10.405  10.451   6.049  0.0955  0.3166  0.0499
79430W        W22524   7.267   8.252   4.621  0.0146  0.0151 -0.2383
79431W        W22525  10.938   8.469   6.638 -0.2017  0.0661  0.1217
79432W        W22526  10.396   8.536   4.475  0.0862  0.0111  0.1356
79433W        W22527   7.186   9.096   4.080 -0.2068 -0.5165  0.0349
79434W        W22528   9.792   8.404   7.298  0.3700  0.0809 -0.0552
79435W        W22529   8.898  10.795   3.438 -0.1732 -0.2602 -0.2404
79436W        W22530  11.281  11.402   7.072 -0.2138 -0.0620  0.4323
79437W        W22531   9.597  11.152   4.066 -0.1654  0.4063 -0.1847
79438W        W22532   8.925   9.126   6.299 -0.0844 -0.1051 -0.0882
79439W        W22533   8.763   7.397   4.093 -0.0783 -0.0291  0.1530
79440W        W22534   5.616  10.915   4.833 -0.2941 -0.1067  0.2018
79441W        W22535   8.703  10.904   6.336  0.2906 -0.2809 -0.0263
79442W        W22536   8.015   8.836   3.516  0.1162  0.0198 -0.0943
79443W        W22537  11.636  10.923   4.462 -0.0130 -0.0011 -0.2425
79444W        W22538   8.436  10.603   5.860 -0.1857 -0.1874  0.2931
79445W        W22539   8.226   9.187   5.857 -0.0331  0.1917 -0.1270
79446W        W22540  10.671   7.026   6.483 -0.2584 -0.2792  0.2074
79447W        W22541  10.893   9.211   7.806 -0.1380 -0.0232  0.0549
79448W        W22542  10.616   8.122   4.250 -0.2240  0.0925  0.0045
79449W        W22543   9.129   7.787   4.274  0.0518 -0.1479 -0.1978
79450W        W22544  10.595  10.202   4.251 -0.1345 -0.1634 -0.2244
79451W        W22545   8.962  11.192   1.246  0.1111  0.1437  0.0953
79452W        W22546   9.203   9.232   4.982  0.3137 -0.5739  0.1967
79453W        W22547   8.752  10.963   4.061 -0.0088 -0.1137  0.0843
79454W        W22548  11.603   7.922   6.346  0.0360  0.0384  0.1662
79455W        W22549   7.831   7.716   6.312 -0.0636  0.0382  0.0443
79456W        W22550   8.793   7.695   6.528  0.2315 -0.0755 -0.1816
79457W        W22551   8.717   8.549   4.710 -0.0392 -0.0359  0.2359
79458W        W22552   9.168  10.266   6.521  0.1223  0.0209  0.1021
79459W        W22553  10.253   6.543   5.014 -0.5574 -0.4973  0.2889
79460W        W22554  10.257   7.879   3.994 -0.0591 -0.1469  0.2647
79461W        W22555   9.439   9.384   6.818 -0.1545 -0.1327 -0.0185
79462W        W22556   9.860   9.402   4.787  0.0232 -0.1982 -0.3215
79463W        W22557   9.750  10.144   2.580 -0.0402  0.1324 -0.3451
79464W        W22558   9.472   7.159   1.566  0.1667  0.2418 -0.0791
79465W        W22559   8.209   9.651   6.010  0.2317 -0.0739 -0.0340
79466W        W22560   9.551  10.169   4.052  0.2958 -0.1760  0.3758
79467W        W22561   9.782  10.421   5.100  0.0303 -0.1213 -0.0089
79468W        W22562   8.396   8.670   3.143  0.0217 -0.1154 -0.3191
79469W        W22563  12.334  10.417   3.155 -0.0360 -0.0452  0.1311
79470W        W22564   8.374  10.245   5.263  0.2359  0.0919 -0.2378
79471W        W22565   9.080   9.064   7.152 -0.0161 -0.0217 -0.3829
79472W        W22566   9.745  11.324   4.567 -0.1004  0.2147 -0.2195
79473W        W22567   8.429   7.043   6.360  0.1981  0.0052  0.2973
79474W        W22568   8.544   8.806   2.652 -0.2316  0.2124  0.2741
79475W        W22569   8.243   7.690   3.337 -0.1639 -0.1945  0.2181
79476W        W22570   7.379  10.465   4.422 -0.1917  0.0146  0.1141
79477W        W22571   9.848   7.599   6.125  0.0166  0.0722 -0.2377
79478W        W22572  10.287   7.521   5.822  0.1979  0.2965  0.1834
79479W        W22573   9.254   7.041   6.791 -0.0093 -0.0193  0.0777
79480W        W22574  10.979   7.590   7.814  0.2951 -0.1650  0.0725
79481W        W22575  10.088   8.901   4.644  0.1223  0.2716  0.1265
79482W        W22576   9.610   8.003   5.006  0.2549  0.1855  0.1114
79483W        W22577   8.479   8.535   3.621 -0.0112  0.0271 -0.0763
79484W        W22578   8.898   8.070   6.844  0.1823  0.1479  0.0144
79485W        W22579   6.933   8.361   5.538 -0.1551  0.0517  0.1582
79486W        W22580   7.949  11.443   6.398 -0.2715 -0.0138 -0.3229
79487W        W22581   9.677   9.024   5.070  0.0063 -0.0789 -0.1080
79488W        W22582  10.168   8.595   5.191  0.3817  0.2650  0.0876
79489W        W22583   9.311   8.883   6.671 -0.0337 -0.5438  0.1578
79490W        W22584   9.295   9.928   4.450 -0.0826  0.3047 -0.0778
79491W        W22585   8.967  11.750   2.373  0.0753 -0.1509  0.0682
79492W        W22586   8.319  10.165   2.740 -0.4038  0.1058 -0.2683
79493W        W22587   8.710   8.872   5.109  0.1883 -0.0871 -0.2689
79494W        W22588   8.657   9.029   5.604 -0.0374  0.3106 -0.1353
79495W        W22589   8.837  11.221   3.075  0.0967  0.0356  0.1762
79496W        W22590   9.799   8.672   6.681 -0.3168  0.2033 -0.0689
79497W        W22591   7.986  10.268   4.928 -0.2774 -0.0642 -0.2865
79498W        W22592  10.147   7.550   4.975 -0.3388  0.1127 -0.2174
79499W        W22593   7.088  10.585   5.697  0.0396  0.2068 -0.1562
79500W        W22594   8.670   9.617   3.521  0.2227  0.1201 -0.0397
79501W        W22595   6.875   7.550   5.034  0.0243 -0.0486  0.1073
79502W        W22596  10.393   7.949   5.433  0.0253  0.0386 -0.1055
79503W        W22597  10.583   9.813   3.039  0.2336  0.0027 -0.0372
79504W        W22598   8.707   7.838   5.235 -0.4149  0.1145  0.0368
79505W        W22599   9.455   7.813   5.866 -0.0502  0.0414  0.1049
79506W        W22600   5.898   9.555   5.567 -0.0881 -0.0931  0.0483
79507W        W22601   9.362   7.280   6.073  0.1805 -0.0182  0.0758
79508W        W22602  10.777   7.630   3.806  0.3223 -0.1835  0.1454
79509W        W22603   8.476   9.803   6.555  0.0321 -0.0173  0.0035
79510W        W22604   8.880   8.704   7.434 -0.0523 -0.0459 -0.2404
79511W        W22605   7.775   6.573   2.944 -0.2446 -0.0239 -0.1511
79512W        W22606  10.751   9.352   6.693 -0.0494 -0.1807  0.1859
79513W        W22607   9.515   9.226   5.480  0.0247 -0.2161 -0.3310
79514W        W22608   7.808  10.049   5.371  0.1001  0.3337  0.1718
79515W        W22609   9.765   9.852   4.879  0.0265 -0.3113  0.0368
79516W        W22610   8.215   9.574   3.353 -0.1000 -0.0949 -0.1427
79517W        W22611   8.475   9.872   5.592  0.2654  0.0576 -0.0626
79518W        W22612   8.575   8.467   6.709 -0.0123 -0.0725  0.0170
79519W        W22613   9.714  10.053   5.421  0.3413 -0.1355  0.2892
79520W        W22614   8.790   8.525   5.462  0.0521  0.1030 -0.2461
79521W        W22615   9.251   8.636   4.914 -0.2037 -0.3950  0.1812
79522W        W22616   9.742   8.118   6.226  0.0062 -0.0092  0.2409
79523W        W22617   9.287   9.946   6.146 -0.1232 -0.2308  0.0004
79524W        W22618  10.110   8.097   5.828 -0.1205  0.3090 -0.2959
79525W        W22619   7.958   9.666   6.539  0.0308 -0.0404  0.0592
79526W        W22620   9.111   7.274   5.067  0.1272 -0.1405  0.1704
79527W        W22621  11.292  10.278   3.581  0.1213  0.0224 -0.2271
79528W        W22622   9.482   9.270   7.382 -0.1953 -0.2857  0.1346
79529W        W22623   7.283   9.373   5.051  0.0096  0.2622  0.0469
79530W        W22624   7.303   8.549   6.036 -0.1014  0.0670 -0.0485
79531W        W22625   8.227   9.575   5.032  0.0046  0.0910  0.4115
79532W        W22626   8.811   6.849   6.914 -0.1209  0.0459 -0.3271
79533W        W22627   7.169  11.052   5.950  0.0412 -0.3505  0.0465
79534W        W22628   8.061   9.827   4.586 -0.2251  0.2640  0.2567
79535W        W22629   7.525   9.044   5.901  0.1166 -0.3024  0.0414
79536W        W22630   9.226   7.873   3.385  0.0095  0.2128 -0.1171
79537W        W22631  11.309   9.529   3.506 -0.0610  0.0231  0.1557
79538W        W22632   8.959   9.572   4.457 -0.0946 -0.0886  0.1036
79539W        W22633  10.009   8.196   6.749  0.0153  0.0232 -0.0916
79540W        W22634   9.511   9.286   3.747  0.0629  0.0540 -0.0539
79541W        W22635   9.634   6.840   6.592 -0.1654 -0.0828  0.2743
79542W        W22636   8.456   7.781   4.853  0.1391  0.2495  0.2524
79543W        W22637  11.661  10.233   5.309 -0.1377 -0.1243  0.1292
79544W        W22638   8.516   8.809   6.195  0.1968 -0.3612  0.1429
79545W        W22639   9.779   9.749   6.293 -0.0760 -0.0760  0.0493
79546W        W22640   7.524   8.033   6.558 -0.0834 -0.5119  0.2966
79547W        W22641   9.740   7.734   3.961 -0.0275 -0.1774 -0.0227
79548W        W22642   8.512   7.715   4.360 -0.1279  0.0512  0.2104
79549W        W22643   9.397   9.437   6.308 -0.0265 -0.1392 -0.1443
79550W        W22644  10.334   9.644   4.881  0.4386 -0.0657 -0.1390
79551W        W22645   8.901  10.013   3.833 -0.0543 -0.2447 -0.1414
79552W        W22646   9.494   9.717   5.787 -0.1388  0.1215 -0.0508
79553W        W22647   6.965   8.897   5.387  0.0200 -0.2482  0.1980
79554W        W22648  10.556   8.149   6.013 -0.3931 -0.1335 -0.2079
79555W        W22649  10.242   9.476   2.636  0.0258 -0.0204  0.3651
79556W        W22650   8.654   9.455   5.827  0.3828  0.1286  0.3565
79557W        W22651   8.057   6.297   6.285  0.0963 -0.1906  0.1060
79558W        W22652   9.362  10.164   5.013  0.0979 -0.2084  0.1088
79559W        W22653   9.256   6.831   4.780  0.0882  0.0962 -0.1933
79560W        W22654   9.286   8.290   7.379  0.0164 -0.0938 -0.2343
79561W        W22655  10.161   8.802   7.133 -0.0331  0.4366 -0.1930
79562W        W22656   8.737   8.937   6.737  0.1168 -0.4589 -0.0263
79563W        W22657   8.662   8.156   6.309 -0.2796 -0.0992 -0.0570
79564W        W22658  11.556  10.308   5.948 -0.2269 -0.1325  0.0049
79565W        W22659   9.611   8.691   3.705  0.0716 -0.2026  0.1648
79566W        W22660  10.616   8.575   6.235 -0.0254 -0.1432 -0.0001
79567W        W22661  10.035   9.402   3.773  0.2793 -0.0737  0.1955
79568W        W22662   8.376  10.064   3.729 -0.0913 -0.2511  0.1499
79569W        W22663   6.639   8.083   4.010  0.2926 -0.0967  0.3312
79570W        W22664   9.703   7.843   6.626  0.2921 -0.3082  0.3666
79571W        W22665   7.884   9.367   3.739 -0.0114 -0.0744 -0.3528
79572W        W22666   9.879   7.604   7.023 -0.0581  0.1442  0.1487
79573W        W22667   8.356  10.459   3.306  0.0907 -0.1285 -0.4394
79574W        W22668  10.525   9.694   4.405  0.1348  0.3123  0.1628
79575W        W22669   9.451   8.921   4.560 -0.0778 -0.2622  0.1049
79576W        W22670   8.133   8.709   4.961  0.0465 -0.2353 -0.0132
79577W        W22671   7.728  10.962   6.229  0.0298 -0.4208  0.1547
79578W        W22672   7.400   8.647   2.585 -0.1519 -0.1907  0.0508
79579W        W22673   8.701   9.421   4.840  0.1181  0.2418  0.2850
79580W        W22674   7.747   9.943   6.120 -0.1793 -0.0722  0.0861
79581W        W22675  11.840  10.007   6.160 -0.0704  0.1263 -0.1376
79582W        W22676   8.473   8.146   3.140  0.0897 -0.0774  0.1822
79583W        W22677   9.506   7.308   7.057 -0.0905 -0.0677  0.0136
79584W        W22678   8.394  10.393   4.561 -0.1208  0.0477 -0.0931
79585W        W22679  10.331   8.544   5.703 -0.0644 -0.1149 -0.3030
79586W        W22680   7.854  11.707   5.647 -0.0680 -0.2052 -0.1153
79587W        W22681   6.957   9.390   6.192  0.0190 -0.0361  0.1740
79588W        W22682   8.254  10.831   4.150  0.0854  0.1379 -0.3287
79589W        W22683   8.057   7.313   6.597 -0.0932 -0.1842 -0.2776
79590W        W22684  10.024   9.091   5.489 -0.3630 -0.0162 -0.0944
79591W        W22685   9.664   8.724   5.520  0.2384 -0.2313  0.2200
79592W        W22686  10.782   8.498   7.366  0.2103 -0.1985  0.0384
79593W        W22687   9.291  10.359   5.490 -0.2222 -0.2065 -0.2440
79594W        W22688   8.126   9.527   5.486 -0.0211  0.2165  0.1110
79595W        W22689   9.272   9.599   5.342  0.2968  0.1107  0.0476
79596W        W22690  10.499   9.193   4.650 -0.3757 -0.2115 -0.3875
79597W        W22691   8.124  10.176   4.154  0.0212 -0.3076  0.0765
79598W        W22692   8.966   8.605   6.448  0.3073 -0.0498  0.1974
79599W        W22693   8.443   9.271   6.433  0.0726 -0.0805  0.1001
79600W        W22694  10.295   9.632   5.367  0.1248  0.4114 -0.2196
79601W        W22695   8.505   6.150   3.886  0.0671 -0.2191  0.1759
79602W        W22696   8.491  11.720   3.623  0.1213  0.2461 -0.0892
79603W        W22697   8.168   8.810   6.602  0.1908 -0.2535 -0.3842
79604W        W22698   6.312   9.491   5.234 -0.0603  0.0743 -0.2338
79605W        W22699   7.592  10.944   4.697  0.0759 -0.1465 -0.0502
79606W        W22700  11.677  10.069   4.260  0.0491  0.1931  0.2371
79607W        W22701   9.730   8.141   4.291  0.0503 -0.1047 -0.1588
79608W        W22702   9.275  10.866   5.875 -0.1636  0.1611 -0.1792
79609W        W22703   8.263   6.970   3.640 -0.0944 -0.1317 -0.0343
79610W        W22704   8.069  10.761   5.122 -0.2537 -0.2728 -0.1198
79611W        W22705   7.525   9.773   2.574  0.1866  0.3255 -0.0876
79612W        W22706   9.037  10.815   2.876 -0.2120 -0.2068 -0.0997
79613W        W22707   7.497  10.519   4.951  0.3162 -0.0687  0.0816
79614W        W22708   9.802   8.840   7.508  0.0321 -0.1012  0.0302
79615W        W22709  10.171   7.458   4.274 -0.0299  0.0039 -0.1376
79616W        W22710   9.828   9.207   6.472 -0.0426  0.1337 -0.1027
79617W        W22711  10.888   8.618   5.809 -0.4139 -0.2387  0.1155
79618W        W22712   9.997  10.216   5.941  0.2161  0.2891  0.1097
79619W        W22713   8.808   9.525   5.324  0.1942 -0.1336 -0.1588
79620W        W22714   9.614   7.501   3.388 -0.0415  0.0913  0.1342
79621W        W22715   8.116   8.440   7.057 -0.1235  0.0609  0.0458
79622W        W22716  11.408   7.549   7.190  0.1534  0.3235  0.1219
79623W        W22717   5.758  10.644   6.339  0.1821 -0.0074 -0.2191
79624W        W22718  10.371   9.757   3.536 -0.2134 -0.3717  0.0620
79625W        W22719   7.173   7.367   4.521 -0.0890 -0.0114  0.1266
79626W        W22720   9.717   8.491   4.735 -0.4098 -0.1379 -0.1360
79627W        W22721  11.101   7.701   6.076 -0.1689  0.0906 -0.3172
79628W        W22722   9.002  10.576   3.877 -0.4395 -0.0114 -0.0152
79629W        W22723  10.640   8.416   5.324 -0.1438  0.3752 -0.2456
79630W        W22724  10.041  12.294   3.623  0.0231 -0.0037  0.0198
79631W        W22725   8.944  10.810   5.553  0.0735  0.0411 -0.2473
79632W        W22726   9.189  10.365   7.061  0.1005  0.2114  0.0387
79633W        W22727   7.658   6.959   4.373  0.1385 -0.0994  0.1694
79634W        W22728  11.079   9.004   5.342  0.1894 -0.0759 -0.0085
79635W        W22729   9.030   8.526   6.982  0.0920  0.1974  0.1397
79636W        W22730  10.929   8.133   5.646 -0.2111 -0.2339  0.0814
79637W        W22731   9.123   9.750   4.863  0.1341 -0.3700  0.1227
79638W        W22732  10.804   9.239   4.277 -0.0254  0.1884 -0.0073
79639W        W22733  10.230   9.226   6.823 -0.1348  0.1738 -0.2192
79640W        W22734   7.689   9.034   5.004  0.1453 -0.0703 -0.1432
79641W        W22735  10.087  10.073   3.169  0.3523 -0.2107  0.1720
79642W        W22736  10.341   8.303   7.150 -0.0497  0.3022  0.2872
79643W        W22737   9.322   9.774   3.714 -0.1577  0.0408 -0.0308
79644W        W22738   8.808  11.285   6.609  0.1522 -0.1340  0.0246
79645W        W22739   9.245   8.308   4.563  0.0850  0.1899 -0.0153
79646W        W22740  10.047   7.666   3.553 -0.0813 -0.3574  0.0014
79647W        W22741   8.265   9.129   5.168  0.1119 -0.1298 -0.0226
79648W        W22742   8.571   8.414   5.859 -0.1892 -0.1470  0.1281
79649W        W22743  11.378   9.977   6.327  0.0567 -0.0449 -0.3709
79650W        W22744   6.768   5.975   5.225  0.6610 -0.2317 -0.2739
79651W        W22745  10.873  10.264   3.080  0.0086 -0.0407  0.2328
79652W        W22746  10.572   9.025   7.408  0.2919 -0.2051 -0.2583
79653W        W22747   9.500  10.569   1.254  0.2442 -0.0036  0.1427
79654W        W22748  10.800  10.443   5.555  0.1903 -0.2245  0.3901
79655W        W22749  10.575  10.868   6.261  0.1130  0.2262  0.1581
79656W        W22750   7.945   9.201   6.279 -0.0169  0.0538  0.2081
79657W        W22751  10.338  11.078   6.922 -0.3128 -0.0980 -0.1043
79658W        W22752  10.525   8.969   5.469  0.4669 -0.1942 -0.0607
79659W        W22753   9.868   8.181   3.673 -0.1369  0.4201  0.0726
79660W        W22754   8.055   7.974   4.630  0.1839  0.1102  0.1005
79661W        W22755   8.467  10.796   3.694  0.1981 -0.1659 -0.0063
79662W        W22756  10.758   8.129   6.975 -0.2444  0.0303 -0.0717
79663W        W22757  10.225   8.505   7.581 -0.1342 -0.3011  0.3040
79664W        W22758   9.287  10.500   2.520  0.3040 -0.1497 -0.0676
79665W        W22759  10.861   6.950   6.906  0.0462  0.0232  0.2807
79666W        W22760   8.861   9.659   6.238 -0.1602 -0.0127  0.0385
79667W        W22761   8.053   8.980   7.393 -0.3620 -0.0280  0.1759
79668W        W22762   8.043   8.109   3.722  0.1167 -0.0437  0.0277
79669W        W22763   8.071  10.130   5.805 -0.0181  0.0146 -0.0894
79670W        W22764   9.227  10.623   4.770  0.0035 -0.1728 -0.1827
79671W        W22765   9.695  10.874   4.817  0.0120 -0.0031  0.0320
79672W        W22766  11.946  10.605   4.306 -0.0925  0.0148  0.0098
79673W        W22767   9.212   9.226   4.153  0.3246  0.1967 -0.2077
79674W        W22768   9.232   8.608   4.133 -0.0073  0.1325  0.0007
79675W        W22769   9.693   7.659   4.562  0.0058  0.2229  0.0669
79676W        W22770  11.215   6.494   5.011  0.0978 -0.0451 -0.2619
79677W        W22771  10.775   5.576   3.706 -0.1898 -0.1378  0.2059
79678W        W22772   7.551  10.804   5.749  0.0643  0.0809  0.0591
79679W        W22773   7.289   8.937   4.666 -0.4002 -0.2954 -0.0253
79680W        W22774   7.070   9.390   4.566 -0.1173  0.0525 -0.1736
79681W        W22775   8.490   9.946   4.858  0.0619  0.1372 -0.2020
79682W        W22776  10.204   6.937   6.648  0.0327  0.0769  0.1074
79683W        W22777   8.602   8.256   7.218  0.2320 -0.0337  0.2106
79684W        W22778   7.054   9.855   5.957  0.3721 -0.2339  0.0312
79685W        W22779   8.517   8.751   4.252 -0.2306 -0.0608  0.0888
79686W        W22780  10.103  10.481   4.750 -0.0206  0.0098 -0.1635
79687W        W22781   8.511   6.182   5.802  0.2601  0.1707  0.0698
79688W        W22782   8.015   6.288   4.446  0.0307  0.4623 -0.3004
79689W        W22783   9.002  10.315   4.293 -0.0959 -0.0754 -0.3189
79690W        W22784  10.018   9.923   4.477  0.0105  0.2967  0.0736
79691W        W22785   8.916   6.841   5.189  0.0344  0.0166  0.1394
79692W        W22786  10.121  10.089   7.238 -0.2241 -0.0282 -0.2138
79693W        W22787   7.091   9.014   2.901  0.2182 -0.0079  0.1363
79694W        W22788   9.040   8.601   5.952  0.1256 -0.0518 -0.0398
79695W        W22789   9.271   6.821   7.262 -0.3861  0.1438  0.1732
79696W        W22790   8.832   7.113   3.701 -0.1296  0.0165  0.1255
79697W        W22791   9.213   7.751   5.327 -0.1229 -0.2702  0.0469
79698W        W22792   8.607   9.958   4.341 -0.2373 -0.1365  0.1711
79699W        W22793   8.204  11.108   3.422  0.1158  0.1739 -0.4174
79700W        W22794  10.115   8.464   6.265  0.1395 -0.2942 -0.0875
79701W        W22795   9.028   9.850   5.743  0.3704 -0.2745 -0.1788
79702W        W22796   8.052   7.266   6.105  0.0759 -0.2387 -0.2184
79703W        W22797   9.958   9.780   5.774  0.2249  0.1039  0.1232
79704W        W22798   7.967  10.549   6.696 -0.2633  0.0804 -0.0681
79705W        W22799  10.676   9.235   2.930 -0.0555  0.1853  0.0850
79706W        W22800   9.968   7.946   7.373 -0.0666 -0.1594 -0.1293
79707W        W22801  10.141   8.101   5.023  0.1875  0.0999 -0.1300
79708W        W22802   8.299   6.588   7.155 -0.2101 -0.1821 -0.0151
79709W        W22803   7.481  10.421   6.465 -0.0216 -0.1803  0.2290
79710W        W22804   9.990   9.757   6.792  0.1076  0.2800 -0.2916
79711W        W22805   7.877   7.616   5.047 -0.2770  0.0640  0.1363
79712W        W22806  10.196   8.426   4.006 -0.0223 -0.0774 -0.0819
79713W        W22807  10.229   9.878   4.040  0.0277 -0.2872 -0.1038
79714W        W22808   6.816   9.048   4.862  0.0305 -0.1811 -0.1381
79715W        W22809   9.922   6.756   3.400  0.0812 -0.2353 -0.2351
79716W        W22810   9.768   9.072   6.959  0.2952  0.0876  0.1543
79717W        W22811   9.420   9.437   4.576 -0.4978  0.4840 -0.0975
79718W        W22812   9.891   8.858   5.944  0.1976 -0.0779 -0.1089
79719W        W22813   8.009  10.512   3.750  0.0934  0.2096  0.1794
79720W        W22814  10.361   8.924   4.185  0.3364  0.3466  0.1168
79721W        W22815   9.656  11.164   6.114 -0.0072  0.0827 -0.0409
79722W        W22816  10.385  11.852   6.970 -0.1787 -0.4108 -0.1445
79723W        W22817   8.975  11.082   4.937  0.2869  0.2823 -0.1211
79724W        W22818  10.326   9.926   6.206 -0.0711  0.1470  0.0295
79725W        W22819   8.073   5.305   5.583  0.2486 -0.2334 -0.1107
79726W        W22820   7.103   8.471   4.986 -0.1928  0.1072 -0.1177
79727W        W22821   8.898  10.008   5.231 -0.0898  0.0706  0.1287
79728W        W22822   8.904   7.676   6.002 -0.2958  0.1163  0.2863
79729W        W22823   8.476   8.255   4.990  0.0083  0.3665 -0.1148
79730W        W22824   9.467   6.289   3.904 -0.3127  0.0451  0.4875
79731W        W22825   8.162  12.195   5.001  0.0816  0.2357 -0.0084
79732W        W22826   9.274   8.236   5.495  0.1079  0.0195 -0.2641
79733W        W22827   6.001   8.281   9.123 -0.1973  0.1056  0.0235
79734W        W22828   7.555   8.789   8.470 -0.0072 -0.1395 -0.3154
79735W        W22829  10.229   7.139   6.185 -0.2457  0.3138  0.1280
79736W        W22830  11.410   8.493   7.579 -0.0510 -0.2586 -0.1255
79737W        W22831   8.853   8.041   7.524  0.1975  0.1817  0.0572
79738W        W22832   8.992   9.826   8.026  0.2349  0.0138 -0.5560
79739W        W22833  10.624   9.764   8.629  0.1527  0.0516  0.3400
79740W        W22834   9.730   9.886   9.685  0.0263  0.1155  0.1098
79741W        W22835   9.700   7.982   8.195 -0.2112 -0.1700 -0.2309
79742W        W22836   8.250   9.521   8.507  0.1851 -0.1069  0.2327
79743W        W22837   9.204   6.922   7.978  0.1019  0.1391 -0.0249
79744W        W22838   6.995   6.848   7.695  0.1591 -0.0307 -0.0608
79745W        W22839   9.463   9.308   8.370  0.1906  0.0430 -0.2286
79746W        W22840   8.409   8.606   8.795 -0.0285 -0.1709 -0.0228
79747W        W22841   7.490   9.129   9.000  0.0223 -0.0056 -0.0030
79748W        W22842   9.170   7.356   8.379 -0.3813 -0.1611  0.1671
79749W        W22843   8.974  11.190   7.124 -0.4480 -0.1874 -0.1090
79750W        W22844   7.225   6.649   8.646  0.1070  0.0937  0.1690
79751W        W22845  10.069   9.594   7.922 -0.3243 -0.0394 -0.3423
79752W        W22846   8.257   8.344   8.097 -0.1185 -0.0433 -0.0163
79753W        W22847   5.257   8.043   8.810 -0.1913 -0.1363  0.1565
79754W        W22848   7.882   8.168   9.060  0.2258 -0.3802  0.0751
79755W        W22849   9.573   5.275   9.325  0.2513  0.0332 -0.1256
79756W        W22850  11.198   9.225   8.838 -0.1581  0.0660  0.1510
79757W        W22851   9.629   9.693   8.130 -0.0845 -0.4545 -0.3327
79758W        W22852   9.466   9.050   8.977 -0.4269  0.1339 -0.0906
79759W        W22853   7.315  10.094   7.054 -0.1824 -0.0635 -0.0951
79760W        W22854   7.598   9.789   9.191 -0.1984  0.1066  0.0958
79761W        W22855   9.825   9.937   7.662 -0.2690  0.0359 -0.0382
79762W        W22856  10.623   9.996   7.287 -0.0652  0.1331 -0.3568
79763W        W22857   7.456   9.604   6.705 -0.0424 -0.0268 -0.1190
79764W        W22858  12.346   8.452   9.693  0.3943  0.1797 -0.1903
79765W        W22859   9.098   8.336   8.683  0.1468  0.3636 -0.0324
79766W        W22860   7.912  10.382   8.576 -0.1564 -0.1109  0.1273
79767W        W22861   8.685   8.341   9.150  0.1861 -0.1406 -0.2763
79768W        W22862   8.084   9.704   8.090  0.1286  0.1235 -0.0953
79769W        W22863   7.238  10.801   7.386 -0.0370  0.0844 -0.0618
79770W        W22864   9.193   8.129   7.928  0.2684 -0.3386  0.2976
79771W        W22865   9.456   6.531   7.694 -0.0446  0.0328  0.0416
79772W        W22866   8.851   9.284   8.383  0.0760 -0.2399  0.1930
79773W        W22867  10.150   7.832   8.661  0.0762  0.0325  0.0491
79774W        W22868   8.750  11.595   7.963  0.2824 -0.0223  0.3453
79775W        W22869   9.060   9.277   8.833 -0.2108  0.0402  0.0933
79776W        W22870   9.110   8.610   8.115  0.0527  0.1838  0.0248
79777W        W22871   8.113   7.565   9.570 -0.1629  0.0618 -0.4012
79778W        W22872   6.004   7.470   9.567  0.2642  0.1561  0.1778
79779W        W22873   5.995   8.536   7.561  0.0426  0.0108 -0.0357
79780W        W22874  11.171  10.536   6.209  0.1004 -0.0934 -0.1605
79781W        W22875  11.290   9.371   8.073 -0.1316 -0.2070 -0.3383
79782W        W22876   9.217   9.801   6.607  0.1660  0.1484  0.1025
79783W        W22877   8.599   9.349   8.914  0.0713 -0.2255  0.0934
79784W        W22878   9.079   6.198   7.861  0.2108  0.0108 -0.3222
79785W        W22879  10.209   8.996   7.774  0.1150  0.0897 -0.0381
79786W        W22880   9.781   8.286   9.347  0.0032  0.1008 -0.2548
79787W        W22881   9.076   8.517  10.158  0.1498  0.2835  0.1867
79788W        W22882   9.396   9.030   6.071  0.0354 -0.0533 -0.0329
79789W        W22883  10.280   7.372   9.609  0.2086  0.1276 -0.0773
79790W        W22884   9.757   6.106   8.678 -0.3006  0.2406 -0.0478
79791W        W22885   7.800   9.745   7.664 -0.0321  0.0033 -0.1203
79792W        W22886   8.313   9.157   6.946 -0.1539  0.1951 -0.0459
79793W        W22887  11.708  10.803   9.799  0.1130  0.1223 -0.1539
79794W        W22888  11.237   7.912   6.794 -0.0429  0.0915 -0.0673
79795W        W22889   8.853   8.327   9.704  0.1853 -0.0689  0.0274
79796W        W22890   7.411  10.609   8.168 -0.1410 -0.0600 -0.0728
79797W        W22891   7.325   9.746   7.490 -0.1575  0.1813  0.1741
79798W        W22892   8.112   9.496   7.233  0.0881  0.0288 -0.0947
79799W        W22893   7.313   6.684   9.963  0.3920  0.2583 -0.0729
79800W        W22894   9.155   9.833   9.459  0.2149  0.2015  0.1004
79801W        W22895  11.425   8.337   8.183  0.0416 -0.1568  0.1716
79802W        W22896  10.760   7.087   8.115  0.3637 -0.3241  0.2525
79803W        W22897   6.924  10.767   6.910  0.0640 -0.0231  0.1147
79804W        W22898  12.166  11.986   8.823 -0.2273 -0.1869  0.2055
79805W        W22899   9.449   7.954   7.033 -0.1162 -0.2334  0.0998
79806W        W22900   9.469  11.578   6.473  0.2209  0.1831  0.2803
79807W        W22901   9.188   9.267   9.346  0.0509 -0.1532 -0.1895
79808W        W22902   5.988   8.693   8.099  0.1498 -0.5203 -0.0249
79809W        W22903   6.946   8.635   9.828  0.0306 -0.1544 -0.2310
79810W        W22904   8.511   7.301   6.850 -0.0048 -0.1492 -0.0761
79811W        W22905   9.144   6.089   9.097  0.3265 -0.4676 -0.0479
79812W        W22906   8.421   7.911   7.817  0.0363  0.0554  0.3514
79813W        W22907   8.007  10.311   7.140 -0.0022  0.0156  0.2193
79814W        W22908  10.522  10.375   6.935 -0.0191  0.1620 -0.0062
79815W        W22909  11.959  12.327   8.498  0.1434 -0.0681 -0.3159
79816W        W22910  10.921  10.482   8.199 -0.3192  0.1008  0.0254
79817W        W22911  12.177   9.298  11.958 -0.2185  0.0736 -0.2384
79818W        W22912   6.781   6.777   6.876  0.3469 -0.1124  0.0339
79819W        W22913   9.353  11.113   8.924 -0.1913  0.0165  0.2586
79820W        W22914   9.221   9.727   8.545 -0.0075  0.0857 -0.0875
79821W        W22915  10.053   8.635   9.122  0.2329  0.1703 -0.0227
79822W        W22916  11.610  10.253   8.354  0.1270  0.0983 -0.1515
79823W        W22917   9.219   9.271   7.967  0.1592 -0.2148  0.1946
79824W        W22918  14.593   7.875   9.566  0.0340  0.0771  0.5224
79825W        W22919  10.509   9.297   8.170 -0.1815  0.0608 -0.1558
79826W        W22920   8.319   7.042   7.314 -0.2398 -0.1379 -0.3774
79827W        W22921   8.773  10.684   9.084  0.0090  0.1391 -0.1016
79828W        W22922   7.196  10.401   7.745  0.4075 -0.1030 -0.1663
79829W        W22923   7.800   8.406   7.976 -0.0969  0.1708 -0.0870
79830W        W22924  10.292  10.401   7.987 -0.2111  0.0381  0.0390
79831W        W22925  11.987   7.195   9.757  0.1199  0.0835  0.5009
79832W        W22926   7.778   7.719   7.362  0.0686  0.2335  0.2856
79833W        W22927   9.627   6.359   9.239  0.1341  0.0073  0.0792
79834W        W22928  10.380   8.837   8.336  0.1561  0.1628  0.2121
79835W        W22929  10.711   9.761   8.085 -0.4082 -0.1837 -0.1558
79836W        W22930   9.443   8.369   6.589  0.0897 -0.0955 -0.2367
79837W        W22931  10.439   7.580   7.927  0.1356  0.1419 -0.1028
79838W        W22932   9.506   8.399   8.320  0.2238  0.2086  0.1199
79839W        W22933   8.736  11.159   8.894  0.1242 -0.0827  0.2590
79840W        W22934   9.343   5.681   7.062 -0.4323  0.2964 -0.0633
79841W        W22935  12.140  10.094   6.542  0.3658 -0.1821 -0.0630
79842W        W22936   8.443  10.081  11.909  0.0255 -0.2702 -0.1365
79843W        W22937  10.238   9.702   9.068  0.0522  0.0256 -0.1712
79844W        W22938   7.660   7.130   9.318 -0.0055 -0.1802 -0.0661
79845W        W22939   8.186   7.888   8.273 -0.1855  0.0794 -0.1482
79846W        W22940   7.411   6.721   9.277  0.0576  0.2386  0.1236
79847W        W22941   6.349  11.897   8.232 -0.0145 -0.2326  0.1557
79848W        W22942   9.550   6.565   8.716  0.2321 -0.3234 -0.4064
79849W        W22943  10.323   8.224   9.049  0.0320 -0.3294  0.2770
79850W        W22944   9.317   8.828   8.569  0.4870 -0.1886  0.1106
79851W        W22945   9.772   8.832   8.568 -0.0817 -0.2155  0.2752
79852W        W22946   8.267   9.877   7.534 -0.0119  0.3319  0.0029
79853W        W22947   7.323   7.506   9.214  0.0546  0.0722  0.2306
79854W        W22948   8.575   9.150   9.695 -0.2394 -0.1885 -0.3015
79855W        W22949   9.290   9.589   9.843  0.2104  0.4066  0.4643
79856W        W22950   8.208   7.989   7.315  0.0285 -0.1834 -0.2209
79857W        W22951   9.666  10.670   6.820 -0.0607  0.0114 -0.1237
79858W        W22952   9.181  10.793   8.175  0.0363  0.0479  0.3800
79859W        W22953   7.887   8.649   9.634  0.0154  0.0720 -0.0363
79860W        W22954   7.429   8.380   9.724  0.1363 -0.3256 -0.2641
79861W        W22955   7.044  10.318   6.704 -0.0979 -0.0356  0.0010
79862W        W22956  10.434  11.390   8.615 -0.0167 -0.0929 -0.1183
79863W        W22957   8.699   9.762   8.468  0.1376 -0.0514  0.1485
79864W        W22958  10.194   9.126   8.671  0.0454 -0.1482 -0.1415
79865W        W22959   6.654   9.860   8.310  0.2261 -0.1493  0.1019
79866W        W22960   8.700   8.450   7.814  0.0224 -0.1578  0.0867
79867W        W22961   6.661   7.633   7.118  0.2559  0.3344  0.0321
79868W        W22962  10.136   9.747   8.426  0.0531  0.1015  0.1351
79869W        W22963  12.703   8.986   6.768  0.2427  0.2365 -0.1825
79870W        W22964   7.286   7.141   8.909 -0.0082  0.0894  0.0777
79871W        W22965   9.305   8.891   7.600  0.1071  0.0103 -0.2365
79872W        W22966   7.859   9.368   8.791 -0.0158 -0.1365 -0.2401
79873W        W22967   9.555   8.874   8.092  0.1054  0.2257  0.0860
79874W        W22968   7.466   8.058   7.043  0.1021 -0.0394  0.0196
79875W        W22969  10.731   7.208   9.282 -0.1311 -0.0468 -0.0122
79876W        W22970   7.519   9.399   7.780  0.2085  0.2964 -0.0665
79877W        W22971   7.372   9.942   7.920  0.0589  0.1672  0.2907
79878W        W22972   6.953   7.216   9.330 -0.0907  0.3750  0.2658
79879W        W22973   8.105   9.271   7.785  0.1209 -0.1010 -0.2296
79880W        W22974   8.914  10.334   8.079 -0.2128  0.2992  0.0951
79881W        W22975  10.116  10.166   9.433  0.0167 -0.0765 -0.1471
79882W        W22976   8.061   8.293   8.569 -0.0235  0.3456  0.1446
79883W        W22977   8.465   8.097   8.727 -0.0241  0.0273 -0.2791
79884W        W22978   9.975   8.060   9.819 -0.1271  0.1729 -0.1634
79885W        W22979  10.085  10.101   8.763  0.0279  0.1696  0.1616
79886W        W22980   8.290   8.078   9.322 -0.0065  0.1430  0.0832
79887W        W22981   9.805   7.550   9.822  0.3960 -0.0243 -0.0876
79888W        W22982  11.789  10.066   7.369  0.0399 -0.2619 -0.0938
79889W        W22983   8.266   9.885   6.959  0.0290 -0.0480  0.0677
79890W        W22984   7.826   8.762   8.897 -0.0695  0.1997  0.0574
79891W        W22985   8.797  10.229   8.702 -0.0600 -0.1627 -0.0380
79892W        W22986   8.004   7.820   8.739 -0.2916  0.0430  0.0896
79893W        W22987   7.198   9.007   7.922 -0.0247  0.0474  0.3160
79894W        W22988   7.723  10.103   6.765 -0.4162  0.1287 -0.2941
79895W        W22989  10.241   7.175   7.716  0.0243  0.1277 -0.1327
79896W        W22990   9.751   9.694   7.250  0.3688  0.3200  0.0133
79897W        W22991   8.874   7.826   8.936 -0.0449  0.0731  0.0230
79898W        W22992  10.402   8.047   7.738 -0.2056  0.1208  0.2404
79899W        W22993   8.249   9.049   8.712 -0.0068  0.1366 -0.3141
79900W        W22994  10.116  10.539   8.470  0.1161 -0.1671 -0.1155
79901W        W22995  10.165   7.847   9.406  0.0635 -0.3357  0.0404
79902W        W22996   8.412   7.069   7.817 -0.3923  0.0306 -0.0917
79903W        W22997   8.216   9.111   9.184  0.4786 -0.1466  0.2152
79904W        W22998   8.801  10.140   9.205  0.2026  0.2056 -0.6021
79905W        W22999   9.528  10.942   7.887 -0.0138 -0.0259 -0.3654
79906W        W23000  11.245   8.775   9.032 -0.1734 -0.1002 -0.0288
79907W        W23001   9.268  10.092   8.900 -0.0873  0.0087  0.0017
79908W        W23002   8.942   9.366   7.542 -0.1626  0.1417  0.2635
79909W        W23003   8.661   8.122   8.251 -0.0853  0.1634 -0.0848
79910W        W23004   8.896   9.757   8.926 -0.2014 -0.0451  0.2079
79911W        W23005   9.209   8.960  10.044 -0.1051  0.0318  0.0723
79912W        W23006  11.425   9.934   9.212 -0.1161 -0.1370 -0.2057
79913W        W23007  10.790  10.783   9.116 -0.1338 -0.4017  0.0039
79914W        W23008   9.505   7.896   7.628  0.0203 -0.2813  0.1518
79915W        W23009  10.728  10.051   9.009  0.3267  0.3400  0.1372
79916W        W23010  11.300   9.317   7.566 -0.0586 -0.0395 -0.2426
79917W        W23011   9.161   8.171   9.297 -0.2100 -0.0959 -0.1456
79918W        W23012   7.759   7.227   9.963 -0.2662 -0.0316 -0.2520
79919W        W23013   8.370   7.496   8.076  0.0274  0.0331 -0.1218
79920W        W23014  10.453   9.876   6.744  0.0584 -0.2722 -0.0004
79921W        W23015   9.287  10.276   8.420 -0.2604 -0.1009  0.0852
79922W        W23016  10.267   7.973   8.221 -0.0900  0.0462  0.0035
79923W        W23017   8.262   8.382   7.567  0.2680  0.1960  0.0015
79924W        W23018   8.320   8.086   5.523 -0.0673 -0.1625 -0.3575
79925W        W23019   8.469  10.320   7.324  0.1294 -0.1558 -0.1363
79926W        W23020   9.380   9.606   8.994 -0.0868 -0.0234 -0.0940
79927W        W23021   9.665   7.336   6.544 -0.0573  0.1222 -0.1616
79928W        W23022   7.398   9.512   6.252  0.0350  0.1627  0.2769
79929W        W23023   9.921   7.411   8.837 -0.0332 -0.0472 -0.1663
79930W        W23024   8.892   9.929   7.512 -0.1620 -0.1798 -0.0674
79931W        W23025   8.117  10.999   7.630  0.0628  0.4196  0.3202
79932W        W23026   9.024   5.526   9.925 -0.4106 -0.1785 -0.0444
79933W        W23027  11.273   8.240   9.300  0.1571 -0.1306 -0.1915
79934W        W23028   8.087   9.561   9.203  0.2121 -0.1770 -0.0909
79935W        W23029   8.837   8.846   8.675 -0.0144 -0.1862  0.2304
79936W        W23030   9.750   9.254   7.785 -0.6688 -0.4103  0.1274
79937W        W23031   8.509  11.397  11.164 -0.2553  0.2972  0.1942
79938W        W23032   9.356   8.447   9.705 -0.2813 -0.0261  0.0035
79939W        W23033  10.206   7.003   9.279  0.1273 -0.2026 -0.3109
79940W        W23034   8.069  10.395   7.657  0.0330 -0.2010  0.0157
79941W        W23035   8.340  10.138   8.363  0.1033 -0.1169  0.0598
79942W        W23036   7.645  10.711   7.620  0.0751 -0.0097  0.0160
79943W        W23037  11.035   9.744   6.961 -0.1634 -0.0389 -0.2859
79944W        W23038   9.187   9.670   7.158 -0.2715  0.0779 -0.1499
79945W        W23039   9.458  12.433   9.004 -0.1259 -0.1274 -0.1775
79946W        W23040   9.524   7.539   7.944 -0.0585 -0.2162 -0.2939
79947W        W23041   7.422  10.166   8.421 -0.0547  0.3349  0.2326
79948W        W23042   7.301   8.515   6.601 -0.1577  0.1812 -0.1710
79949W        W23043  11.267  10.024   7.419  0.2847 -0.3079  0.0115
79950W        W23044   7.847  10.147   8.145  0.1511 -0.0734  0.2143
79951W        W23045  11.655   7.562   6.694  0.0133  0.0811 -0.1755
79952W        W23046  11.480  10.431   9.527 -0.2564  0.0117 -0.1295
79953W        W23047   9.947   8.315   8.608  0.0113  0.1503 -0.0044
79954W        W23048   7.336   8.483   7.638  0.1696  0.0254 -0.0493
79955W        W23049   8.592   7.064   8.487  0.0507 -0.3448 -0.1115
79956W        W23050  10.097  10.240   6.592 -0.3448  0.3379 -0.2004
79957W        W23051   8.477   9.158   7.526 -0.1190 -0.1669  0.0180
79958W        W23052   8.569   8.700   8.276 -0.0025 -0.0231  0.0970
79959W        W23053  11.333   9.357  11.662  0.0586 -0.4085 -0.2199
79960W        W23054   8.623   9.504   7.172  0.0418  0.0271  0.3441
79961W        W23055  10.892   8.402   8.870  0.0192  0.4593  0.0634
79962W        W23056   8.011  10.911   7.154  0.2054  0.3013 -0.2599
79963W        W23057   9.438  10.114   7.951 -0.0816 -0.0715 -0.1695
79964W        W23058   9.374   9.653   7.638 -0.2279  0.0325 -0.0766
79965W        W23059   6.707   8.925   7.819 -0.1263  0.0412 -0.2189
79966W        W23060  12.342   8.997   7.865  0.0088 -0.0192  0.1248
79967W        W23061   7.308   7.452  10.119 -0.0660  0.2285 -0.2088
79968W        W23062   9.371  10.801   7.323  0.1454  0.4891  0.1971
79969W        W23063   9.820   7.425   7.489  0.1129 -0.2273 -0.2221
79970W        W23064   9.992   9.177   8.195  0.1353 -0.0740  0.0251
79971W        W23065   9.465   8.774   9.389 -0.2774  0.1204  0.3371
79972W        W23066   8.682   7.397   7.576  0.1238 -0.1700  0.3948
79973W        W23067   9.126   7.880   8.347  0.3520 -0.1013 -0.3023
79974W        W23068   7.094   7.786   8.010  0.0356 -0.4216  0.2052
79975W        W23069   8.858   7.215   8.009 -0.0452 -0.2295  0.0527
79976W        W23070   7.589  10.218   7.470  0.0527 -0.0893 -0.3377
79977W        W23071  12.280   7.606   9.936 -0.0613  0.1229 -0.0267
79978W        W23072   9.517   7.607   8.544  0.2828  0.2878 -0.1153
79979W        W23073  10.487   9.480   7.648 -0.0651  0.1681 -0.1515
79980W        W23074   9.066   8.641   9.080 -0.2758  0.0507  0.0838
79981W        W23075   8.593  11.266   7.566  0.3269 -0.1752 -0.0745
79982W        W23076  12.053   9.958   9.456 -0.2535  0.2095  0.2632
79983W        W23077   9.684  10.467   8.684  0.0757 -0.1133  0.0923
79984W        W23078   7.522   7.097   8.461  0.0740 -0.0035 -0.4365
79985W        W23079  10.104  10.593   7.103  0.3281 -0.0871 -0.0551
79986W        W23080  10.546  11.277   9.082  0.1531  0.0253  0.0144
79987W        W23081   9.487   8.080   8.848 -0.4017  0.3823 -0.1423
79988W        W23082   7.653   9.272   7.288  0.0597  0.0689 -0.1322
79989W        W23083   6.530  10.236   8.555  0.3186 -0.2866  0.1221
79990W        W23084  10.621   8.772   8.818  0.0731 -0.1877  0.0351
79991W        W23085   9.423  10.121   7.459  0.1205  0.0793 -0.0067
79992W        W23086   7.820   9.208   8.217 -0.0439  0.0843 -0.3081
79993W        W23087   7.779   8.509   5.748  0.2388 -0.1481 -0.2391
79994W        W23088  10.309   8.317   9.592 -0.2266  0.2776  0.0373
79995W        W23089   8.708  10.750   7.908  0.1327 -0.4886 -0.1663
79996W        W23090  12.067   9.941   7.754 -0.3509 -0.0561  0.0350
79997W        W23091   8.720   7.665   8.409  0.0844 -0.0161  0.3153
79998W        W23092  12.128  10.506   8.690  0.1760  0.1137 -0.0185
79999W        W23093   8.567   7.481   9.807  0.0047 -0.1117  0.1181
80000W        W23094  11.767   7.829   9.199 -0.0640 -0.1227  0.3941
80001W        W23095   9.989   7.491   8.206  0.0675  0.0103 -0.2321
80002W        W23096   9.783   9.586   9.304 -0.0427 -0.1674 -0.1307
80003W        W23097   8.043   8.744   8.336  0.1203 -0.0964 -0.1086
80004W        W23098   8.481   8.735   7.142  0.3200 -0.3389  0.1636
80005W        W23099   7.630   9.707   8.297 -0.0450  0.1586 -0.2176
80006W        W23100   6.624   8.157   8.314 -0.0650  0.1465  0.0178
80007W        W23101   7.355   7.617   8.420  0.1862  0.2584 -0.0203
80008W        W23102  10.702  10.842   7.280 -0.0428  0.0929  0.0192
80009W        W23103   6.940   8.433   9.349 -0.1554  0.2207  0.1516
80010W        W23104   6.756   7.580   8.340 -0.3001  0.0983 -0.2690
80011W        W23105  10.400   9.585   7.179 -0.1319  0.1961  0.0375
80012W        W23106  11.146  10.541   7.642  0.0179 -0.0868 -0.3293
80013W        W23107   8.954   7.336   8.809  0.1958 -0.0289 -0.2567
80014W        W23108   8.251   8.810   7.878 -0.2785  0.3091  0.0748
80015W        W23109   7.322   7.091   7.037  0.0221  0.4081 -0.1396
80016W        W23110   8.158   8.572   9.191 -0.3170 -0.2460  0.2228
80017W        W23111  10.689  10.358   6.433  0.0812  0.1054  0.1845
80018W        W23112   9.059  10.780   6.825  0.4446 -0.0473 -0.1318
80019W        W23113   7.493   7.903   8.815  0.0309  0.0993 -0.1589
80020W        W23114   9.965   8.603   8.217  0.1950 -0.1359  0.0930
80021W        W23115  12.433   8.726   7.257 -0.3342  0.0057 -0.2255
80022W        W23116   7.218   6.239   9.675 -0.0265 -0.2773  0.0519
80023W        W23117   9.634   8.352   7.803  0.1150  0.1262 -0.1767
80024W        W23118  12.195   9.227   9.147  0.1916 -0.0535  0.2215
80025W        W23119   8.965   7.350   9.314  0.4020  0.0992 -0.2099
80026W        W23120  10.391   7.416   8.518  0.1572  0.0040  0.0597
80027W        W23121  10.871  10.111   7.758 -0.1636 -0.0110 -0.0853
80028W        W23122   8.679   8.988   9.191  0.6846  0.2073  0.2804
80029W        W23123  10.671   9.232   8.968 -0.1556  0.1324  0.1028
80030W        W23124  11.054  10.085   8.542  0.0222  0.0437  0.0513
80031W        W23125   8.292   7.406   8.596 -0.3386  0.0399  0.1349
80032W        W23126  10.037   9.278   7.356 -0.3353  0.3026  0.3014
80033W        W23127   8.210  10.661   8.189 -0.0546 -0.0848  0.0399
80034W        W23128   5.609   8.592   9.221  0.2801  0.0169  0.0452
80035W        W23129  10.832   8.112   9.601 -0.2946 -0.2969 -0.1931
80036W        W23130   7.816   7.672   9.196  0.1055 -0.0855 -0.1799
80037W        W23131   8.357   9.146   8.234 -0.1212  0.2100  0.1891
80038W        W23132   8.740   9.014   7.909  0.3178  0.2122 -0.0294
80039W        W23133   9.468   5.385  10.271 -0.0368 -0.0314 -0.1671
80040W        W23134   8.155   6.906   9.410 -0.5575  0.3268 -0.2426
80041W        W23135  10.200   7.027   8.195 -0.1388 -0.3397 -0.1311
80042W        W23136   6.692   9.074   8.781  0.1246  0.1450 -0.0533
80043W        W23137   9.924  10.105   8.119  0.2549  0.1495  0.3072
80044W        W23138   8.719  13.667   2.574 -0.1162 -0.1833 -0.4339
80045W        W23139   7.811  12.210   0.104  0.0316 -0.1079  0.0347
80046W        W23140   9.086  12.765  30.433 -0.0852  0.0927  0.1403
80047W        W23141  10.858  12.766   0.107 -0.1818 -0.3599 -0.0775
80048W        W23142   8.079  13.974   1.958 -0.0311  0.0498  0.4138
80049W        W23143   9.632  14.133   0.461  0.2088  0.0081  0.0286
80050W        W23144   7.551  12.052   1.947 -0.1459 -0.1297  0.2253
80051W        W23145  10.878  13.394   1.538 -0.0152 -0.0489  0.1684
80052W        W23146  11.413  13.815   2.967 -0.2539 -0.2145 -0.0572
80053W        W23147   8.218  13.985   0.359  0.1388  0.2098 -0.1350
80054W        W23148   8.327  12.380   1.319 -0.0113 -0.0843 -0.0674
80055W        W23149   8.035  14.533   2.025  0.0319  0.1055  0.2451
80056W        W23150   8.689  10.380  31.340  0.0173  0.0013 -0.0084
80057W        W23151   7.858  12.435   2.762  0.2184 -0.0245  0.1435
80058W        W23152   9.989  12.971   2.036 -0.2614  0.0329 -0.2869
80059W        W23153   7.214  12.480   0.216 -0.2646 -0.0608 -0.2557
80060W        W23154   7.846  11.999   2.350 -0.2552  0.0309 -0.0695
80061W        W23155   9.171  12.166   1.489 -0.0165  0.1847 -0.0534
80062W        W23156   9.340  14.697   1.574  0.3660  0.0227 -0.4763
80063W        W23157   9.735  11.134   2.047  0.1272  0.1787  0.1870
80064W        W23158   9.302  10.402   3.111 -0.3103 -0.1616  0.0201
80065W        W23159  10.353  15.197   0.577 -0.0603  0.2108 -0.2484
80066W        W23160   8.169  10.918  31.284 -0.5016 -0.2061 -0.2318
80067W        W23161   7.114  11.859   3.531  0.4345  0.1117 -0.3633
80068W        W23162   8.241  12.290   2.434 -0.2627 -0.1199  0.2025
80069W        W23163   9.505  12.363   0.563  0.2217  0.0836 -0.2748
80070W        W23164   9.064  14.487   1.968  0.3093  0.1403  0.0234
80071W        W23165   9.068  14.976   2.209  0.2488  0.0759  0.3060
80072W        W23166   8.415  13.862   2.302  0.0937 -0.6055 -0.1393
80073W        W23167   9.956  13.149   0.640  0.0963  0.1289  0.1561
80074W        W23168   8.269  12.851   1.065 -0.1745 -0.1016 -0.1630
80075W        W23169   7.280  15.492   2.005  0.1410  0.1729  0.0023
80076W        W23170   8.921  13.512   1.510  0.0488  0.1559 -0.1225
80077W        W23171  10.795  14.372   0.720  0.1815 -0.1041 -0.1479
80078W        W23172  11.119  15.213   2.605 -0.2527  0.0116 -0.1276
80079W        W23173   8.150  13.231   3.096 -0.0025 -0.3254  0.0202
80080W        W23174   7.972  14.450   0.119  0.0817  0.0708  0.0337
80081W        W23175   8.982  14.485   3.353  0.1480  0.1644 -0.2314
80082W        W23176   8.163  15.430   3.239 -0.0046 -0.1255 -0.1874
80083W        W23177  10.994  13.860   1.278 -0.2236 -0.1100 -0.2544
80084W        W23178   8.082  13.133   0.132 -0.3483  0.1366  0.1873
80085W        W23179   7.400  13.849   0.712  0.0516  0.2663  0.0822
80086W        W23180   8.744  11.138   0.147 -0.2826 -0.0423  0.1032
80087W        W23181   9.015  12.220   2.598  0.1479  0.0237  0.0890
80088W        W23182   8.101  13.460   1.947  0.0139  0.1340 -0.3270
80089W        W23183  10.505  11.028   1.941 -0.1093 -0.1510 -0.0856
80090W        W23184   7.299  14.336  31.850  0.0015 -0.1888 -0.1073
80091W        W23185   9.899  11.677  31.771 -0.2733 -0.0893 -0.1308
80092W        W23186   7.582  13.149  31.978 -0.1451  0.0121 -0.0385
80093W        W23187   9.496  10.524   0.127  0.1342 -0.0124  0.2539
80094W        W23188   7.231  11.714   0.914 -0.1580  0.1414  0.1968
80095W        W23189  10.356  13.828   1.590 -0.1805  0.1863  0.1271
80096W        W23190   7.442  11.732   2.260  0.0993  0.1499 -0.2227
80097W        W23191  10.568  12.245   2.916 -0.1147  0.3241  0.2471
80098W        W23192   7.097  12.961   0.125 -0.2649  0.4290 -0.0205
80099W        W23193  11.227  12.643   1.759  0.1130  0.3543  0.0508
80100W        W23194   7.195  14.999   2.992 -0.3083  0.1740 -0.2096
80101W        W23195   6.635  13.044   0.919  0.1573 -0.0555 -0.0779
80102W        W23196   8.259  14.827   0.909  0.0532 -0.0672 -0.0531
80103W        W23197   9.839  14.776  31.335 -0.1958  0.0203  0.5728
80104W        W23198  10.146  13.589  30.877 -0.0457  0.2085 -0.0103
80105W        W23199   6.062  11.368   0.187  0.0838 -0.0703 -0.2056
80106W        W23200   5.988  12.842   3.345  0.2754 -0.1727 -0.1701
80107W        W23201   7.684  12.563   3.702  0.1169  0.0120  0.4690
80108W        W23202   8.667   9.382   0.309 -0.2054 -0.0636  0.1366
80109W        W23203  10.473  11.824   2.000 -0.0622 -0.0876 -0.1778
80110W        W23204   7.596  13.709   2.515 -0.0383 -0.1435 -0.3341
80111W        W23205  12.100  13.223   1.313  0.0530  0.3367  0.2825
80112W        W23206   7.701  12.695   0.337  0.1042  0.1046 -0.0156
80113W        W23207  10.762  13.381   1.040  0.2313 -0.1298 -0.3102
80114W        W23208   8.953  12.928  31.824 -0.0756 -0.0816  0.2533
80115W        W23209  10.309  11.970   1.116 -0.0210 -0.2507  0.1116
80116W        W23210  10.081  11.756   1.478 -0.0819 -0.0189  0.0193
80117W        W23211   9.017  11.269  30.930  0.1510 -0.2230 -0.1616
80118W        W23212   6.586  13.058   0.352  0.0960 -0.1888 -0.0400
80119W        W23213  11.019  15.577   2.303 -0.0923 -0.0023 -0.1408
80120W        W23214   9.487  12.773  30.686  0.1448  0.0458  0.0657
80121W        W23215   6.206  13.072   1.187  0.0405 -0.3351 -0.2207
80122W        W23216   8.839  10.986   1.923  0.1287  0.0784  0.0687
80123W        W23217  10.170  12.785   3.603 -0.4316  0.0946 -0.0031
80124W        W23218   7.766  14.092  31.792 -0.2298  0.3172 -0.1497
80125W        W23219   6.811  13.638   0.858 -0.0126  0.1438  0.1666
80126W        W23220   7.351  12.127  31.908  0.0964  0.2726 -0.0046
80127W        W23221   6.597   9.980   1.530 -0.3544 -0.0299 -0.0276
80128W        W23222   7.721  13.103   1.062 -0.0813 -0.2189  0.0326
80129W        W23223  11.149  12.095   0.316 -0.4107  0.3972 -0.2394
80130W        W23224   7.717  11.612   2.645 -0.0958  0.0652 -0.2375
80131W        W23225   8.411  11.337   0.448  0.0278 -0.1795  0.0618
80132W        W23226   5.933  12.800  31.828 -0.1311 -0.1540 -0.0806
80133W        W23227  10.250  15.604  31.827  0.1103  0.0040 -0.2758
80134W        W23228  10.343  14.127   0.666  0.1199  0.0225  0.1560
80135W        W23229   9.176  12.586  31.127 -0.2189 -0.0584  0.2512
80136W        W23230   7.006  12.376   3.621 -0.2004 -0.2724 -0.1274
80137W        W23231   7.523  13.068   1.604  0.0719  0.2547  0.0201
80138W        W23232   7.426  10.807   2.720 -0.3761  0.2251  0.0841
80139W        W23233   7.995  12.938   1.916  0.0311  0.0113 -0.0925
80140W        W23234  10.712  12.367   2.000 -0.0460 -0.0213 -0.0910
80141W        W23235   6.272  11.806   0.894  0.3237 -0.0448 -0.1768
80142W        W23236   9.589  12.286   1.741  0.3281  0.0952  0.1259
80143W        W23237   7.960  13.260   1.476 -0.0067  0.1209 -0.0913
80144W        W23238   7.312  13.018   0.581 -0.0698  0.0497 -0.1533
80145W        W23239   9.462  12.082   2.756  0.2783 -0.1849 -0.0404
80146W        W23240  10.143  13.441   0.165  0.6467  0.2719  0.0169
80147W        W23241  11.136  16.289   1.652  0.0693 -0.1902 -0.0860
80148W        W23242   9.634  13.577   0.230 -0.0498 -0.0057 -0.3685
80149W        W23243   7.420  11.260   2.958 -0.0957  0.1410 -0.1124
80150W        W23244   8.264  11.703   0.904 -0.3350 -0.1659 -0.3119
80151W        W23245   7.421  14.386   0.808 -0.0275  0.0397  0.1478
80152W        W23246   8.698  12.562   2.523 -0.1494  0.0020 -0.1457
80153W        W23247   8.571  10.602   1.144  0.0649 -0.0704 -0.1268
80154W        W23248  11.680  13.544   2.154  0.1044  0.1020 -0.3491
80155W        W23249  10.212  12.035   0.167  0.0164  0.2748  0.0716
80156W        W23250   7.977  13.471   3.509  0.1571  0.0303  0.1372
80157W        W23251  10.572  10.593   2.138  0.0522 -0.2460 -0.1616
80158W        W23252  12.038  12.307   2.346  0.0861  0.0886 -0.1497
80159W        W23253  11.071  13.161  31.927 -0.0933 -0.0722  0.1408
80160W        W23254   8.425   9.775  31.963  0.0951 -0.0350 -0.1956
80161W        W23255  10.018  14.466   0.562  0.0641  0.3720 -0.0692
80162W        W23256   7.763  14.002   1.066 -0.2459 -0.0100  0.0786
80163W        W23257   7.117  12.763   1.635  0.0765  0.0268  0.0655
80164W        W23258   9.450  14.064   0.894  0.2141 -0.2213 -0.0677
80165W        W23259   9.989  12.779   1.521 -0.2370 -0.2603  0.0394
80166W        W23260   6.477  14.037   3.694  0.1799 -0.0232 -0.2344
80167W        W23261  10.289  10.026   2.703 -0.1174 -0.0130 -0.1882
80168W        W23262   8.748  12.030   0.503  0.3475  0.0274 -0.0331
80169W        W23263   7.077  15.380   3.358 -0.0547 -0.0009  0.1132
80170W        W23264   9.403  11.533   0.210 -0.0761  0.1402 -0.1317
80171W        W23265  10.466  11.573   0.193 -0.0423  0.1349 -0.1586
80172W        W23266   9.825  12.474   2.192  0.0503 -0.1456 -0.1718
80173W        W23267  11.612  12.636  31.466  0.0921  0.2405  0.1908
80174W        W23268  10.413  13.457   0.685 -0.2904  0.2043 -0.0861
80175W        W23269   8.254  11.247  31.905  0.0808  0.0644  0.0027
80176W        W23270   8.161  13.677   2.731  0.1207 -0.1239 -0.0972
80177W        W23271   8.590  13.030   0.765 -0.0015  0.1236  0.1398
80178W        W23272   9.903  14.281   2.202 -0.2840  0.0613  0.0923
80179W        W23273   8.005  10.866  31.755 -0.0953 -0.0511  0.0638
80180W        W23274  11.103  14.075   0.450 -0.1904  0.0436 -0.1238
80181W        W23275   6.998  12.906   2.342 -0.0914 -0.1636  0.1228
80182W        W23276  11.122  14.193   2.839  0.3290 -0.0541  0.2149
80183W        W23277   9.677  13.310   2.081 -0.1854 -0.2952  0.4714
80184W        W23278   9.705  11.663   1.985  0.1684 -0.2205 -0.1040
80185W        W23279   7.541  11.744  31.681 -0.2750  0.3321 -0.0678
80186W        W23280  10.737  11.002   1.407 -0.1347 -0.0035 -0.1456
80187W        W23281   7.272  15.671  31.707  0.0543  0.0079  0.1093
80188W        W23282  10.080  10.929   2.808  0.0387  0.1274 -0.0611
80189W        W23283  10.228  12.476   1.829 -0.0770 -0.2689 -0.1329
80190W        W23284   9.541  11.049   1.108 -0.1287 -0.3922 -0.0306
80191W        W23285  11.940  12.404   2.817  0.0511 -0.0461 -0.0024
80192W        W23286   9.982  14.020   0.970 -0.1258  0.0618 -0.1020
80193W        W23287   9.894  12.378   2.724  0.0034 -0.2779  0.1995
80194W        W23288   8.441  12.965  31.793  0.1655 -0.0939  0.0546
80195W        W23289   9.213  11.005   2.244 -0.2273 -0.0837 -0.0505
80196W        W23290   8.465  12.059   3.186 -0.3783  0.1297  0.0801
80197W        W23291   7.217  14.018   2.510 -0.1231 -0.1882 -0.6162
80198W        W23292  10.637  12.863   3.775 -0.1327  0.0935  0.0289
80199W        W23293   9.492  12.841   2.004 -0.3596  0.2412  0.1941
80200W        W23294   8.779  10.921   2.492 -0.0767  0.0897 -0.1200
80201W        W23295   7.996  12.187   0.990 -0.0321  0.1659  0.2543
80202W        W23296   6.825  12.344  31.859 -0.1367 -0.1639 -0.1754
80203W        W23297   8.670  13.224   0.283 -0.0242  0.1856 -0.0605
80204W        W23298   8.951   9.449   0.664 -0.2590  0.0891  0.3669
80205W        W23299   7.006  13.542   1.328  0.1617  0.2180 -0.1150
80206W        W23300   6.542  13.666   0.390 -0.3789 -0.1172 -0.2823
80207W        W23301  10.389  14.226   2.106  0.2587 -0.3586 -0.0152
80208W        W23302   7.930  13.548  31.918  0.4467  0.3506 -0.2058
80209W        W23303   9.153  12.439   0.984 -0.0259  0.1002  0.0277
80210W        W23304   7.604  13.366   2.091 -0.0001  0.0447 -0.3199
80211W        W23305   8.050  11.771   0.065  0.0339 -0.2988  0.4302
80212W        W23306   8.136  11.993   0.512  0.0595 -0.4478 -0.1407
80213W        W23307   8.729  12.217   2.101  0.1039  0.1552 -0.2116
80214W        W23308   9.717  12.735  31.690  0.3205  0.2175  0.1771
80215W        W23309   6.592  11.450   3.575  0.5389  0.0448 -0.0941
80216W        W23310   9.290  11.357   1.748 -0.2111 -0.0673  0.1531
80217W        W23311   7.057  13.552   2.227  0.0953 -0.1705 -0.0780
80218W        W23312   9.545  13.411   2.550 -0.2870 -0.1072 -0.1193
80219W        W23313   8.510  11.922  31.343 -0.0031 -0.1093  0.0814
80220W        W23314   9.836  14.581   1.731  0.2853 -0.0239 -0.2504
80221W        W23315   8.375  12.391   2.856 -0.0140  0.0224  0.2453
80222W        W23316   7.836  11.523   0.589  0.1852 -0.2864 -0.0850
80223W        W23317  11.156  13.542   0.280 -0.2608 -0.3380 -0.0597
80224W        W23318   8.581  11.037  31.009  0.2900  0.2825  0.0995
80225W        W23319   6.218  12.362  31.901  0.1684 -0.1139  0.1062
80226W        W23320   8.437  14.291   1.858 -0.0859  0.0727  0.2479
80227W        W23321   7.893  13.155  31.573  0.1900 -0.1431 -0.1742
80228W        W23322   8.932  14.128   0.904 -0.3243  0.2945 -0.0462
80229W        W23323   7.872  11.364   3.060  0.0634 -0.0680  0.0046
80230W        W23324  10.792  13.604   2.279 -0.1851 -0.0985  0.2280
80231W        W23325   9.731  12.924   2.494  0.0281 -0.1182 -0.1858
80232W        W23326   8.907  12.790   2.068 -0.0620 -0.0580  0.1887
80233W        W23327   9.515  13.074   2.954  0.2109  0.1042  0.0981
80234W        W23328  10.869  13.275   0.552  0.0814  0.1909 -0.6313
80235W        W23329   9.905  11.951   2.430  0.1801  0.0016  0.0980
80236W        W23330   6.915  13.643   2.756 -0.0481 -0.0541 -0.1552
80237W        W23331   9.666   8.231   0.657  0.1783  0.2380  0.4730
80238W        W23332  12.245  15.636  31.297  0.3107  0.0508 -0.0615
80239W        W23333   9.839  12.223   4.196  0.2815 -0.2214 -0.0299
80240W        W23334   9.171  13.963   0.313  0.1693 -0.0441  0.3518
80241W        W23335   7.827  12.275   1.469  0.0816 -0.1900 -0.0586
80242W        W23336   8.357  13.550   0.196 -0.3273 -0.3318  0.1231
80243W        W23337   9.547  11.616   2.465 -0.0117  0.2014 -0.0445
80244W        W23338   8.879  13.898   1.876  0.2051 -0.2691  0.0407
80245W        W23339   6.584  13.135  30.795  0.0895  0.0043 -0.0937
80246W        W23340   8.295  14.606   1.441 -0.2037  0.1031 -0.0208
80247W        W23341   9.452  12.084  31.815  0.1594 -0.0751  0.1904
80248W        W23342   9.620  12.912  31.217  0.0071 -0.3380  0.2369
80249W        W23343   9.196  11.851   1.868  0.1281  0.2689  0.0938
80250W        W23344  10.865  11.494   1.826  0.0908  0.1559  0.1349
80251W        W23345   8.987  12.221  31.430 -0.3548 -0.0879 -0.0696
80252W        W23346   9.200  11.090   4.432  0.1135  0.0678  0.1299
80253W        W23347   8.142  10.978   1.848 -0.0285 -0.0203  0.0096
80254W        W23348  10.831  13.838   0.789 -0.1252 -0.5009  0.3674
80255W        W23349   7.351  12.406   4.058 -0.1085  0.0583 -0.3310
80256W        W23350   9.505  14.742   2.105 -0.0706 -0.0755 -0.1763
80257W        W23351   6.907  13.556   3.336  0.0545  0.0086 -0.1071
80258W        W23352   8.200  11.769   2.722  0.1361  0.0735  0.2233
80259W        W23353   9.304   8.814  31.832  0.1271  0.1921  0.0344
80260W        W23354   8.507  13.392   3.402  0.0617  0.2453  0.1242
80261W        W23355   9.616  14.362   1.285 -0.4258 -0.0911  0.0031
80262W        W23356   8.874  13.372  31.585 -0.2784  0.0318 -0.1730
80263W        W23357  11.099  12.340   0.808  0.0776 -0.0189  0.4637
80264W        W23358   7.472  12.239   2.906 -0.0183  0.0337 -0.0447
80265W        W23359   9.453  12.680   1.465 -0.1884 -0.0146 -0.1431
80266W        W23360   8.396  12.353   0.203 -0.1043 -0.0224  0.3054
80267W        W23361   8.558  13.224   1.859  0.2299  0.1042 -0.1312
80268W        W23362   9.199  10.865   1.568 -0.0725  0.2020  0.1050
80269W        W23363   9.054  13.298   1.949  0.0850 -0.2741  0.2820
80270W        W23364   9.932  13.472   1.624 -0.0492  0.0407 -0.2079
80271W        W23365  10.181  11.511   2.134 -0.1246  0.1273  0.0279
80272W        W23366  10.127  13.431   2.249 -0.1969  0.0655 -0.3298
80273W        W23367   7.877  13.123   4.290  0.0146  0.0595  0.0031
80274W        W23368   7.065  11.350   3.428 -0.0710  0.3328  0.0861
80275W        W23369  10.803  15.346   0.898  0.4359  0.2280  0.0058
80276W        W23370  10.943  12.438  30.984 -0.2550  0.2816  0.0113
80277W        W23371  10.767  12.633   2.462  0.1390 -0.0130 -0.1756
80278W        W23372  10.412  12.469   0.256  0.0018  0.0932 -0.2829
80279W        W23373   9.223  12.046   0.289 -0.2241 -0.0639  0.3327
80280W        W23374   7.136  12.900   3.580 -0.0868  0.0709  0.0379
80281W        W23375  10.590  12.642   3.361  0.4424 -0.2168  0.1798
80282W        W23376   8.518  11.899   1.745 -0.0487 -0.0245  0.2774
80283W        W23377  10.409  11.733   2.540  0.2031  0.0702 -0.1417
80284W        W23378  10.575  13.856   0.360 -0.0206  0.2408 -0.2433
80285W        W23379  10.734  14.180   1.672 -0.0982  0.1232 -0.0447
80286W        W23380   9.665  11.899   0.573  0.1160  0.2913  0.5567
80287W        W23381   8.358  10.455   1.639  0.1566 -0.1084 -0.0061
80288W        W23382   6.874  13.297   3.791 -0.0222  0.2281  0.1010
80289W        W23383   7.620  11.220  30.767  0.2029 -0.0522 -0.0351
80290W        W23384   8.372  13.461  31.634  0.2069  0.0520  0.2482
80291W        W23385   8.911  13.162   3.254  0.0495 -0.4558  0.3492
80292W        W23386  11.365  12.339   2.912  0.1793 -0.1548 -0.0284
80293W        W23387   8.732   9.662   1.575 -0.0613 -0.0830 -0.0587
80294W        W23388  12.329   9.930   2.976  0.0115 -0.1715  0.1528
80295W        W23389   6.792  11.864   0.050  0.1566  0.3147 -0.0172
80296W        W23390   9.994  12.250   0.672 -0.0992  0.1805 -0.1251
80297W        W23391   8.268  14.112   1.327 -0.1712 -0.1482 -0.0787
80298W        W23392   6.587  13.294   2.657 -0.1952  0.0557  0.0416
80299W        W23393   6.937  12.038   1.233 -0.1715  0.0960  0.1430
80300W        W23394  10.151  11.034   2.302 -0.2583  0.0010  0.1057
80301W        W23395  10.316  12.631   0.745 -0.2859  0.1896  0.0228
80302W        W23396   8.598  13.032   3.728 -0.2862 -0.0508 -0.1902
80303W        W23397  11.588  11.569   1.838  0.1933 -0.2197 -0.0934
80304W        W23398  10.209  14.320   2.605 -0.2505 -0.0724 -0.0291
80305W        W23399   7.856  13.736   1.492 -0.0027 -0.0193 -0.0924
80306W        W23400   8.987  14.229   2.927  0.1268 -0.0053  0.1415
80307W        W23401  11.283  13.372   1.126 -0.0234 -0.0805 -0.0000
80308W        W23402   6.281  11.876  31.894  0.0171 -0.0807  0.4747
80309W        W23403   9.262  12.268   3.428 -0.1602  0.1749 -0.1644
80310W        W23404   8.704  12.237   3.623 -0.5826  0.0945 -0.2145
80311W        W23405   9.493  13.200   1.643 -0.5287  0.0771  0.5588
80312W        W23406   8.953  11.530   0.348 -0.0633 -0.1717  0.0469
80313W        W23407   8.966  14.530   0.674  0.1481 -0.2782 -0.2060
80314W        W23408   7.827  12.534   2.229 -0.0442 -0.2150 -0.0012
80315W        W23409   7.478  11.832   4.227 -0.0699 -0.0569  0.1996
80316W        W23410   5.522  14.696   0.472  0.1268  0.2681 -0.1805
80317W        W23411   7.868  13.043  30.944  0.1020 -0.0467 -0.0219
80318W        W23412  10.183  12.822  31.972 -0.2125 -0.0274  0.1487
80319W        W23413   9.830  13.903   1.414  0.1980 -0.0642 -0.0739
80320W        W23414   9.553  13.395   0.741 -0.1211 -0.1688  0.1403
80321W        W23415   7.887  12.791   1.418  0.0508  0.2509  0.2960
80322W        W23416   6.635  14.117   0.464  0.0304  0.1376  0.0353
80323W        W23417   8.848  12.805  30.846  0.1399 -0.0699  0.0524
80324W        W23418   6.604  13.802   2.338 -0.3700  0.0400  0.0932
80325W        W23419  10.252  12.809   2.405  0.0405  0.1520 -0.1526
80326W        W23420   8.622  10.449   0.291  0.1320  0.1062  0.1321
80327W        W23421  11.525  12.168   1.153  0.1279 -0.2070 -0.0077
80328W        W23422  10.798  12.267  31.419 -0.0369  0.1590  0.2319
80329W        W23423   8.573  13.859   3.640  0.0394 -0.0840  0.0668
80330W        W23424   9.367  12.089   2.235 -0.4042  0.0315  0.0179
80331W        W23425   9.795  12.235   0.162  0.1872 -0.0814 -0.0871
80332W        W23426   7.103  12.973   4.166 -0.2872 -0.3514  0.0739
80333W        W23427  11.831  10.752   1.405 -0.0016  0.2647 -0.0259
80334W        W23428   8.833  16.949   3.488  0.1751  0.0358 -0.4300
80335W        W23429  11.937  13.973  31.442 -0.0180 -0.0784 -0.2564
80336W        W23430   7.455  10.415   1.989  0.1530  0.2482  0.1932
80337W        W23431   8.736  13.885   0.022  0.0558  0.0114  0.0884
80338W        W23432  12.215  11.264   0.710 -0.2860  0.1125 -0.1158
80339W        W23433   8.482  13.700  31.133 -0.1132 -0.0369  0.3429
80340W        W23434  10.414  13.206   1.532 -0.2058 -0.0010  0.0420
80341W        W23435   9.863  14.929   0.676  0.3084  0.4141 -0.0464
80342W        W23436   8.271  14.532   2.454  0.0243  0.2319  0.3036
80343W        W23437   8.294  14.969   2.867  0.1053  0.0435 -0.0222
80344W        W23438   7.367  11.786   1.462 -0.2470  0.3409  0.0178
80345W        W23439   9.924  12.666   0.391 -0.1120  0.0048 -0.0278
80346W        W23440   9.057  12.671   3.339  0.0205 -0.2902 -0.1255
80347W        W23441  10.984  10.906   2.240 -0.0924 -0.0669 -0.0721
80348W        W23442   7.813  12.609   0.849 -0.0075 -0.0145  0.1202
80349W        W23443  11.541  12.099   0.595 -0.1598  0.0159 -0.2775
80350W        W23444   9.030  12.840   2.840 -0.2383  0.0723 -0.1321
80351W        W23445   7.824  11.157   2.539 -0.1075  0.0680 -0.0167
80352W        W23446   7.810  14.113  31.262 -0.0051 -0.1255 -0.2070
80353W        W23447  10.385  12.258   2.454  0.2292 -0.2506  0.1970
80354W        W23448   8.767  12.747   1.155  0.0721 -0.0964  0.0525
80355W        W23449  11.146  15.738   2.795 -0.2049  0.1394  0.2554
80356W        W23450   8.057  11.985   1.929  0.2541  0.2127  0.2027
80357W        W23451  10.615  12.249   0.844 -0.0386  0.0314 -0.1604
80358W        W23452   8.367  10.832   0.203  0.1198 -0.1988  0.1175
80359W        W23453   7.600  12.113   3.334  0.4131  0.1110  0.0559
80360W        W23454   9.410  13.639   3.628 -0.1830  0.0523 -0.1496
80361W        W23455   7.720  11.223   1.995 -0.0227 -0.0385  0.1003
80362W        W23456   9.534  14.577   0.808  0.4376  0.2635 -0.2056
80363W        W23457  10.405  11.399   1.635 -0.0022 -0.0657 -0.0380
80364W        W23458   8.695  14.043  31.483 -0.0401  0.2533 -0.3402
80365W        W23459  10.375  13.764   1.092 -0.0342  0.1316  0.0052
80366W        W23460  10.005  14.029   0.161  0.1042  0.3436  0.2523
80367W        W23461   8.964  11.675   3.298  0.0774  0.1612  0.0764
80368W        W23462  11.704  14.960   1.200  0.0306  0.4214  0.3545
80369W        W23463  10.495  12.874   1.966 -0.0010 -0.0070  0.3446
80370W        W23464   8.628  13.242   1.219  0.2388  0.1300  0.0662
80371W        W23465   8.390  12.878   1.585  0.1123 -0.3479 -0.0176
80372W        W23466   9.458  12.858   0.740  0.1597 -0.1586  0.1668
80373W        W23467  11.476  12.255   1.636  0.1024 -0.0169  0.2193
80374W        W23468   9.511  11.815   3.698 -0.2318  0.2245 -0.1207
80375W        W23469   9.096  13.525   0.516 -0.0424 -0.1092 -0.1203
80376W        W23470  12.425  11.156   2.070 -0.1425  0.2136 -0.1305
80377W        W23471  10.538  13.471   1.907  0.2722 -0.0436  0.1215
80378W        W23472   8.518  14.106   2.776 -0.0567  0.0070 -0.3495
80379W        W23473   8.121  11.777  30.983 -0.0220  0.0986  0.1318
80380W        W23474   7.713  13.020   3.353  0.1566  0.1267  0.0438
80381W        W23475   7.812  14.168  30.483 -0.1537 -0.1060 -0.2132
80382W        W23476   9.492  15.694   0.738  0.1551  0.1092 -0.0411
80383W        W23477   9.586  13.809   2.264  0.0609 -0.0735 -0.0255
80384W        W23478   9.213  13.000   2.405 -0.1709  0.3202 -0.1558
80385W        W23479  11.134  14.773   0.984  0.2936 -0.2680 -0.2237
80386W        W23480   7.777  11.652   1.706  0.0179 -0.0933  0.2478
80387W        W23481  10.469  12.105   1.591 -0.3813  0.0876  0.0790
80388W        W23482  10.728  11.209   0.056 -0.0167 -0.0832  0.0549
80389W        W23483   8.560  12.800   3.198  0.0507  0.3006  0.0593
80390W        W23484   8.295  10.771   0.704 -0.0615 -0.0910 -0.0761
80391W        W23485   8.302  13.190  31.229 -0.3573 -0.1925  0.0257
80392W        W23486   7.865  13.496   3.981  0.1624  0.2964 -0.0174
80393W        W23487   8.092  12.096   3.583 -0.0276 -0.2615  0.1373
80394W        W23488   6.926  11.151   4.498  0.0675  0.0391 -0.3211
80395W        W23489   7.609  12.593   1.783  0.0637  0.0153 -0.1057
80396W        W23490   8.202  12.474   1.840 -0.2047 -0.2917 -0.3132
80397W        W23491   9.837  14.141  31.013 -0.0732 -0.0459 -0.3690
80398W        W23492   9.679  11.260   1.525  0.2655  0.1587  0.0338
80399W        W23493   7.432  12.258   2.397  0.0539  0.2780  0.3521
80400W        W23494   9.062  13.144   0.945  0.1112 -0.1093 -0.0662
80401W        W23495  11.387  14.064  31.700  0.3895 -0.3242  0.0639
80402W        W23496   8.095  10.390  31.746  0.1416  0.1339 -0.3582
80403W        W23497  10.996  12.195   2.555  0.1492  0.1266 -0.0433
80404W        W23498   7.005  11.933  31.131 -0.1982 -0.0265  0.1130
80405W        W23499   7.974  11.892   3.111  0.1462  0.2590 -0.1745
80406W        W23500   9.010  13.013   1.535 -0.1904  0.3391  0.2832
80407W        W23501   5.582  11.254   1.022  0.2588  0.0337  0.0543
80408W        W23502  10.811  12.686   0.589  0.0150  0.1411 -0.1093
80409W        W23503   8.170  13.599   1.072  0.0286  0.1799 -0.3167
80410W        W23504  10.949  15.355  31.851  0.0687  0.0860 -0.1169
80411W        W23505   8.743  13.189   2.372 -0.0685 -0.1683  0.2773
80412W        W23506   9.239  14.134   2.272 -0.0731 -0.2373 -0.1297
80413W        W23507   7.381   9.977   1.767 -0.2916 -0.1686 -0.0471
80414W        W23508  10.427  13.933  31.861 -0.0246 -0.0437  0.1397
80415W        W23509   8.603  13.227   2.860  0.0706 -0.0426 -0.0466
80416W        W23510  10.168  12.814  30.922 -0.0218  0.0550  0.0409
80417W        W23511  11.117  10.691   1.158 -0.6167 -0.0331  0.0551
80418W        W23512   9.651  13.071   1.221 -0.3408 -0.2753  0.2503
80419W        W23513   8.449  11.812   2.258  0.3536  0.1552 -0.3157
80420W        W23514   8.227  12.758   2.628  0.1487  0.1336  0.0797
80421W        W23515  11.224  13.241   1.857 -0.1176 -0.1343 -0.1552
80422W        W23516   8.062  11.196   0.874  0.4207 -0.2356  0.0036
80423W        W23517  10.264  13.103   1.019 -0.2841 -0.3039  0.0832
80424W        W23518   9.938  13.510   1.112  0.0412  0.1688 -0.0153
80425W        W23519   7.437  12.897   2.115 -0.1586 -0.0531  0.2273
80426W        W23520   9.158  12.407   1.947  0.3020  0.2051  0.2940
80427W        W23521   8.761  11.469   2.016 -0.0697 -0.1591  0.0549
80428W        W23522   9.540  14.188  31.965  0.0734  0.0152  0.0571
80429W        W23523  11.589  12.268   2.465 -0.2125 -0.1240 -0.2716
80430W        W23524   8.215  12.753   0.541 -0.0765 -0.1961 -0.4352
80431W        W23525  10.234  12.887  31.461  0.1555  0.1814  0.1765
80432W        W23526   9.395  13.631   1.800 -0.1009 -0.0599  0.1247
80433W        W23527  10.633  14.051   2.996 -0.0878 -0.0643 -0.0788
80434W        W23528   9.981  13.893   1.919 -0.0310 -0.1226 -0.2382
80435W        W23529  11.544  12.555   0.817  0.1331  0.0221  0.0758
80436W        W23530   8.561  10.751   2.970  0.0791  0.1515  0.0588
80437W        W23531   8.094  11.738  31.543 -0.2046 -0.0033 -0.3141
80438W        W23532   9.452  13.553   1.294 -0.2625  0.2194 -0.0443
80439W        W23533  10.036  11.477   2.715  0.1904 -0.2507  0.0346
80440W        W23534   8.277  13.344   2.364  0.0483  0.0394 -0.3234
80441W        W23535   8.860  12.263  31.919  0.0464 -0.0174  0.3025
80442W        W23536   6.804  14.142   2.847 -0.0564 -0.0799  0.2107
80443W        W23537   9.382  13.055   3.407  0.3928 -0.2894 -0.1039
80444W        W23538   7.518  12.906   5.459  0.1529  0.0522 -0.2149
80445W        W23539   9.107  12.265   4.598  0.0016 -0.1756  0.3342
80446W        W23540  10.431  11.446   4.850 -0.2172 -0.1583  0.3182
80447W        W23541   9.252  12.107   5.736 -0.0271  0.1136  0.1717
80448W        W23542   6.291  11.803   4.658  0.2730  0.2662  0.0147
80449W        W23543   9.288  13.894   4.509  0.1615 -0.1165 -0.5508
80450W        W23544   7.903  10.559   6.043 -0.1430  0.1062 -0.0995
80451W        W23545   9.013  12.577   5.798  0.1033  0.1754 -0.1392
80452W        W23546   9.396  14.365   4.800 -0.0188  0.0315  0.1800
80453W        W23547  10.132  11.941   2.918 -0.2021  0.2091 -0.1803
80454W        W23548   8.980  11.653   6.226 -0.1927 -0.1119 -0.1158
80455W        W23549   8.532  14.038   4.586  0.0074  0.2625  0.0599
80456W        W23550   9.243  12.427   3.916 -0.0639  0.0873 -0.1050
80457W        W23551   5.736   9.163   5.954 -0.2699 -0.2548 -0.2327
80458W        W23552  10.916  11.949   5.194 -0.0658 -0.0086 -0.1751
80459W        W23553   7.146  11.572   4.373 -0.2341 -0.2168 -0.1547
80460W        W23554   9.879  12.407   5.952 -0.2677  0.2409 -0.1230
80461W        W23555   9.441  11.912   4.850 -0.1844  0.0351 -0.1468
80462W        W23556   9.168  14.630   4.471 -0.2383 -0.0752  0.0323
80463W        W23557   7.969  11.891   6.104 -0.2100  0.0580 -0.0259
80464W        W23558  10.776  11.856   6.717  0.0359 -0.0228  0.0246
80465W        W23559   9.048  15.250   4.000  0.1077 -0.2637  0.1575
80466W        W23560   8.041  11.569   4.798  0.0560 -0.0230 -0.0229
80467W        W23561   7.328  11.883   6.139  0.1750 -0.0240 -0.1301
80468W        W23562   7.059  13.018   6.131  0.2112 -0.0922  0.1887
80469W        W23563  10.018  10.820   5.300 -0.2006  0.2013 -0.0001
80470W        W23564  10.566  11.769   6.195  0.1155 -0.0533  0.0760
80471W        W23565   7.837  13.170   5.235  0.2140  0.0639  0.2066
80472W        W23566   8.875  13.740   4.768  0.0008  0.2278  0.3029
80473W        W23567   8.174  12.316   5.886 -0.0710 -0.0089 -0.1182
80474W        W23568   6.581  12.630   5.050 -0.3557  0.1148 -0.1249
80475W        W23569   6.908  15.542   4.932  0.0584 -0.1330  0.0607
80476W        W23570   7.717  13.538   4.839 -0.0047  0.1629  0.0280
80477W        W23571  10.015  13.534   4.339  0.3550 -0.0633 -0.1188
80478W        W23572  10.065  13.510   4.832 -0.0461 -0.2984 -0.2823
80479W        W23573   9.546  14.715   6.657  0.1474 -0.1738  0.2222
80480W        W23574   7.194  14.065   1.744 -0.1409  0.0262 -0.0956
80481W        W23575   9.213  13.860   5.135  0.2475  0.1469  0.0058
80482W        W23576   8.935  13.957   5.651 -0.2021 -0.1449 -0.0566
80483W        W23577   9.100  12.252   5.327  0.1244 -0.1032 -0.1268
80484W        W23578   8.789  13.065   5.422 -0.0785  0.3006  0.3299
80485W        W23579   7.560  14.659   2.992  0.1655  0.1301  0.1506
80486W        W23580   8.547  12.773   4.660  0.4080  0.1821  0.1665
80487W        W23581   7.312  13.447   6.158 -0.0708 -0.0444  0.1756
80488W        W23582   7.528  12.464   4.858  0.2853  0.0588  0.0162
80489W        W23583  10.804  11.794   7.291  0.0296 -0.0972 -0.2895
80490W        W23584   7.534  14.366   4.595 -0.2032 -0.0513 -0.0131
80491W        W23585   9.776  12.244   3.181  0.3649 -0.1575  0.0430
80492W        W23586  10.932  13.031   3.399  0.0337 -0.1186 -0.2281
80493W        W23587  11.352  12.880   3.216  0.2850 -0.0817 -0.2303
80494W        W23588   9.212  11.767   5.387 -0.1700 -0.0523 -0.1548
80495W        W23589   8.021  14.254   5.392 -0.1753 -0.1596 -0.1006
80496W        W23590   8.429  11.339   5.683  0.0365 -0.0592 -0.1250
80497W        W23591  11.050  14.501   6.834  0.2045  0.1720  0.1525
80498W        W23592   8.917  11.646   4.927 -0.0485 -0.0690 -0.0375
80499W        W23593  10.803  10.852   5.797  0.0070  0.0655 -0.3013
80500W        W23594   6.384  13.450   5.503  0.1316  0.2479  0.0487
80501W        W23595   6.062  11.901   5.221  0.1714 -0.1512 -0.1944
80502W        W23596  10.362  13.545   2.931 -0.0755  0.2321  0.0903
80503W        W23597  11.215  14.383   3.886 -0.1470 -0.0213  0.0146
80504W        W23598   8.884  13.451   3.717 -0.1030  0.0637  0.0082
80505W        W23599   6.946  13.238   6.569 -0.1463  0.2106 -0.4000
80506W        W23600   7.470  14.229   6.518  0.1220  0.2107 -0.0439
80507W        W23601   9.504  12.389   4.930  0.2115  0.0880  0.2479
80508W        W23602   9.015   9.930   3.313  0.0955  0.1481 -0.0136
80509W        W23603  10.392  13.130   6.398 -0.2570 -0.0266 -0.0786
80510W        W23604   7.526  13.064   6.383  0.2141 -0.2050 -0.0297
80511W        W23605   9.929  10.853   4.369  0.0119  0.1751 -0.2218
80512W        W23606   7.911  12.631   5.645 -0.3671 -0.1262 -0.0828
80513W        W23607   9.753  13.054   4.324  0.1597 -0.0715 -0.0901
80514W        W23608  10.230  12.209   4.519 -0.1190 -0.1652  0.0093
80515W        W23609  10.530  10.600   4.553 -0.1908 -0.1407  0.0776
80516W        W23610  11.401  11.100   5.285  0.1188  0.1142 -0.1691
80517W        W23611   7.962  11.747   4.009 -0.2087  0.0282  0.0815
80518W        W23612   9.409  11.989   4.310  0.1183  0.4711 -0.1325
80519W        W23613  10.744  11.805   5.661  0.1139 -0.1135 -0.2240
80520W        W23614   9.895  11.800   4.588  0.0688 -0.2469 -0.0222
80521W        W23615   7.457  13.472   5.326 -0.1114 -0.0539 -0.1629
80522W        W23616   8.094  11.442   7.268  0.0492  0.1060 -0.1424
80523W        W23617   9.116  14.922   7.042 -0.1629  0.0422  0.2018
80524W        W23618   6.458  13.623   4.101 -0.2872  0.1038 -0.2212
80525W        W23619   5.201  12.947   5.632 -0.1302  0.0329 -0.0262
80526W        W23620   8.629  12.283   4.710  0.1301  0.0617  0.3367
80527W        W23621   8.478  10.903   5.356  0.2188  0.1629 -0.0597
80528W        W23622   6.992  15.166   6.054  0.1200  0.0998 -0.1413
80529W        W23623  10.491  10.782   3.488  0.2848  0.0038 -0.2999
80530W        W23624   8.216  11.079   6.093  0.1524  0.1520 -0.0873
80531W        W23625  10.483  11.386   3.838 -0.0556 -0.4743 -0.1471
80532W        W23626   7.194  13.262   4.908  0.0528  0.0547 -0.4335
80533W        W23627  10.612  13.777   3.887  0.1757  0.3345  0.1253
80534W        W23628  10.840  11.166   3.498 -0.1889 -0.1942  0.2014
80535W        W23629   9.321  13.488   3.131 -0.0119 -0.0878 -0.0264
80536W        W23630   6.611  11.582   5.499 -0.5839 -0.0672  0.3252
80537W        W23631   8.329  12.380   5.431 -0.0971  0.0607 -0.0868
80538W        W23632   7.238  11.238   6.904  0.1798  0.0522 -0.0193
80539W        W23633   7.198  10.889   6.442  0.2013 -0.0601  0.1486
80540W        W23634  11.435  10.604   6.817  0.0212  0.4724  0.0258
80541W        W23635   7.514  11.303   4.136 -0.1229  0.2877  0.2012
80542W        W23636   9.931  11.286   5.088 -0.2938  0.3655  0.1257
80543W        W23637   8.965  10.546   5.171  0.2399 -0.0277  0.1617
80544W        W23638   8.206  13.131   4.722 -0.0328 -0.3622 -0.1448
80545W        W23639   9.185  11.218   6.237  0.0781  0.3937 -0.0421
80546W        W23640   8.316  15.422   2.676 -0.1849  0.0401 -0.0001
80547W        W23641   9.647  14.828   4.640 -0.3807  0.0935  0.4077
80548W        W23642   9.041  13.994   3.520 -0.2420  0.2181 -0.0483
80549W        W23643   8.289  11.642   6.823  0.0019 -0.1903  0.2559
80550W        W23644   7.294  11.861   4.821  0.5963  0.0403  0.1769
80551W        W23645   6.585  15.180   5.731 -0.2098 -0.1002  0.0149
80552W        W23646   7.225  13.257   5.716 -0.0693  0.3551  0.1213
80553W        W23647   7.355  12.357   5.346 -0.1307 -0.0772 -0.2064
80554W        W23648  11.146  12.805   5.697  0.5232 -0.0222  0.2306
80555W        W23649   9.103  13.285   4.808 -0.0215 -0.1614 -0.0275
80556W        W23650   6.245  13.509   6.146  0.0791  0.0171  0.0729
80557W        W23651   9.751  11.463   6.862 -0.1567 -0.2904 -0.1733
80558W        W23652   9.640  11.692   5.976 -0.2446  0.1448 -0.3755
80559W        W23653   7.780  12.202   5.536 -0.3005 -0.3693  0.0283
80560W        W23654   9.938  10.953   3.324  0.0093 -0.1922 -0.2021
80561W        W23655   9.228  13.361   4.116 -0.2895 -0.2603  0.1783
80562W        W23656   6.804  14.069   3.303  0.4336 -0.1015 -0.2702
80563W        W23657   6.206  12.755   4.721  0.1663  0.0587  0.1073
80564W        W23658   7.261  14.099   4.098 -0.2981  0.1132 -0.3679
80565W        W23659  10.269  10.996   4.821 -0.4577 -0.3626  0.0879
80566W        W23660   6.484  12.101   5.574  0.0815  0.3251  0.0331
80567W        W23661   9.904  12.483   6.509 -0.4354 -0.2680  0.1158
80568W        W23662   8.854  11.855   4.419  0.0843 -0.1302 -0.0273
80569W        W23663   6.789  13.383   5.907 -0.0026 -0.0926  0.0117
80570W        W23664  10.094  11.321   4.190 -0.0306  0.3379  0.1904
80571W        W23665   9.877   9.863   3.682 -0.1902 -0.2431  0.1022
80572W        W23666   9.653  13.561   6.152 -0.0713 -0.1832 -0.2094
80573W        W23667  10.797  12.091   4.632  0.0603 -0.1352  0.1672
80574W        W23668   9.543  10.889   2.970  0.0065 -0.2181 -0.0351
80575W        W23669   9.397  12.562   2.996 -0.0582  0.1278 -0.0810
80576W        W23670   7.871  13.451   6.620  0.3412 -0.0655 -0.1581
80577W        W23671  10.295  13.131   4.450  0.1326 -0.1231  0.0896
80578W        W23672   8.829  14.447   4.784  0.0665  0.0455 -0.0356
80579W        W23673   8.700  11.847   2.832  0.0534  0.2381 -0.2403
80580W        W23674   9.262  13.837   2.745 -0.1250 -0.1674 -0.5264
80581W        W23675   5.947  12.247   5.558  0.0239 -0.0013  0.1090
80582W        W23676   8.800  13.171   6.499 -0.2073 -0.0776 -0.0409
80583W        W23677   9.698  12.752   3.882  0.0096  0.0180 -0.2473
80584W        W23678   8.864  11.176   5.885 -0.1549 -0.1669 -0.1124
80585W        W23679   8.328  12.583   4.259  0.0107  0.1101  0.0318
80586W        W23680   8.068  11.241   5.277 -0.0593 -0.1633 -0.2330
80587W        W23681   6.886  15.991   2.366 -0.3285 -0.3543 -0.2730
80588W        W23682  10.221  10.423   5.515  0.1724 -0.0755  0.2634
80589W        W23683  10.225  10.941   5.882 -0.1383  0.0552  0.3893
80590W        W23684   9.261  11.510   4.006 -0.2766 -0.3477  0.4031
80591W        W23685   9.646  11.132   5.570 -0.5480 -0.0616 -0.0694
80592W        W23686  10.451  12.730   5.335 -0.0725  0.0184  0.1663
80593W        W23687   7.185  12.721   4.628  0.3735  0.0482 -0.1968
80594W        W23688   7.665  12.967   4.809 -0.1395  0.1016 -0.0930
80595W        W23689   9.388  11.101   6.756  0.1150 -0.1561  0.3542
80596W        W23690   7.570  14.054   5.543 -0.4317  0.0262  0.0152
80597W        W23691   6.012  13.065   6.222  0.1561 -0.2924 -0.2603
80598W        W23692   9.651  13.960   4.927  0.0161 -0.1520  0.0512
80599W        W23693  10.473  11.949   4.947  0.1812  0.0441 -0.3465
80600W        W23694   9.293  10.708   6.349 -0.2441 -0.2125  0.0295
80601W        W23695   8.862  12.330   3.016  0.0840  0.2891  0.0186
80602W        W23696   8.050  16.002   4.859  0.2111 -0.0056  0.0890
80603W        W23697   8.201  13.855   4.016  0.3185 -0.0617  0.3947
80604W        W23698   9.741  10.646   5.675  0.3587  0.0921 -0.2196
80605W        W23699   9.116  12.749   4.757 -0.1267  0.3280 -0.4582
80606W        W23700   8.545  15.278   3.800 -0.3013 -0.0446  0.0319
80607W        W23701   9.551  13.792   5.558 -0.0245 -0.0823 -0.1609
80608W        W23702   8.313  13.824   3.161  0.1090 -0.0646  0.0592
80609W        W23703  11.180  10.127   5.558  0.1416 -0.3010 -0.0624
80610W        W23704   7.425  13.996   5.008 -0.0479 -0.0892 -0.0069
80611W        W23705   8.496  12.033   4.058 -0.2607  0.0141 -0.0806
80612W        W23706   6.514  13.727   3.065  0.0674 -0.4714 -0.0984
80613W        W23707   9.419  10.656   4.267  0.2402  0.0446  0.1858
80614W        W23708  12.196  11.576   3.368  0.2557  0.0236  0.3858
80615W        W23709   7.675  10.971   5.270  0.0585  0.1017  0.3395
80616W        W23710   9.240  11.511   2.887 -0.0356 -0.1130  0.1759
80617W        W23711   7.964  13.999   5.899  0.0381 -0.3009 -0.1466
80618W        W23712   9.802  12.945   5.226 -0.2402 -0.0587  0.1283
80619W        W23713  10.377  10.605   3.059  0.1457  0.1120  0.1501
80620W        W23714   8.405  12.783   5.684  0.0406 -0.2391 -0.4842
80621W        W23715   8.442  12.866   6.524 -0.2741  0.1548  0.0038
80622W        W23716   8.298  11.291   3.888  0.2416  0.1000  0.2563
80623W        W23717  10.597  11.298   5.864  0.0611 -0.2244  0.1601
80624W        W23718   8.854  12.567   4.292  0.4742  0.3168  0.2040
80625W        W23719   6.679  14.775   6.566 -0.0468 -0.4830  0.0591
80626W        W23720   8.469  14.827   5.713 -0.1561  0.2692 -0.1842
80627W        W23721   7.982  12.306   4.077  0.1093 -0.1871 -0.0107
80628W        W23722   7.022  13.707   4.798 -0.1192  0.0898  0.0325
80629W        W23723   8.287  11.891   7.345 -0.0465  0.1026  0.0949
80630W        W23724  10.212  11.567   6.609  0.0443  0.1005 -0.3652
80631W        W23725   6.756  12.907   5.483  0.0409 -0.0377 -0.0621
80632W        W23726   8.324  11.587   4.331  0.0054 -0.1890 -0.0039
80633W        W23727   9.023  12.718   6.345 -0.0204 -0.3581  0.2749
80634W        W23728   9.267  13.212   6.253 -0.0247 -0.0899  0.1638
80635W        W23729  10.044  11.900   5.654 -0.2189 -0.1458 -0.2432
80636W        W23730   8.601  14.499   6.302 -0.3189  0.0354  0.1673
80637W        W23731   8.562  10.408   4.046  0.1020 -0.0537  0.2628
80638W        W23732   9.616  13.687   4.120 -0.0689  0.0801  0.0476
80639W        W23733   9.562  13.430   4.573  0.0676  0.2463  0.1611
80640W        W23734   8.099  12.988   3.859 -0.0706 -0.0512 -0.0648
80641W        W23735   5.803  11.142   6.341  0.0458  0.1945 -0.3170
80642W        W23736   8.645  13.140   4.964 -0.1642 -0.0873  0.0186
80643W        W23737   9.664  12.136   5.327 -0.2821 -0.1079 -0.1074
80644W        W23738   7.897  13.719   5.317  0.1053  0.2764  0.3445
80645W        W23739   8.064  12.576   4.738 -0.0676  0.1400  0.2070
80646W        W23740   8.947  14.043   6.129  0.0742 -0.1810 -0.1425
80647W        W23741  10.498  11.293   2.787 -0.0332  0.1634  0.0341
80648W        W23742   9.095  13.659   2.272 -0.0756  0.1762  0.4291
80649W        W23743   8.212  11.795   5.326  0.1869  0.0105  0.1785
80650W        W23744  11.007  12.278   8.260  0.2143 -0.3416  0.1975
80651W        W23745  10.709  11.716   3.510  0.1774  0.0994  0.2267
80652W        W23746   8.242  11.138   6.648  0.1836 -0.3555 -0.1489
80653W        W23747   7.395  11.269   5.576  0.0169 -0.2053 -0.3440
80654W        W23748   9.363  12.738   4.328  0.2289  0.1141  0.0852
80655W        W23749   7.404  11.980   6.629  0.2950  0.5116  0.1882
80656W        W23750   8.845  14.144   6.613 -0.1646  0.0630  0.2806
80657W        W23751   7.658  13.577   5.778  0.1645 -0.0186  0.0648
80658W        W23752  10.105  11.607   3.357 -0.0706 -0.1716 -0.3784
80659W        W23753   7.621  11.473   5.145  0.2173 -0.0418  0.3066
80660W        W23754   8.421  13.199   6.063  0.0701 -0.2340  0.1832
80661W        W23755  11.231  13.203   4.648 -0.0352 -0.1571 -0.4240
80662W        W23756   8.373  13.399   4.011  0.0685 -0.2780  0.0885
80663W        W23757  10.619  12.665   5.758 -0.0756 -0.0438  0.0650
80664W        W23758   7.469  14.245   5.986 -0.0506  0.0679 -0.2736
80665W        W23759   9.403  10.845   5.217 -0.2864  0.0874 -0.3260
80666W        W23760   9.430  14.082   3.176  0.2896 -0.0244  0.0204
80667W        W23761   9.967  13.192   3.263  0.1041  0.0584  0.2955
80668W        W23762   7.292   9.979   6.422  0.0044 -0.1553  0.1207
80669W        W23763  10.475  12.219   5.381 -0.3029  0.2628 -0.0901
80670W        W23764   9.527  11.814   3.191  0.2621 -0.2712 -0.1704
80671W        W23765   9.824  10.651   6.214 -0.1283 -0.0243 -0.0766
80672W        W23766   8.392  11.937   6.325  0.0363 -0.0106  0.1326
80673W        W23767   9.504  12.530   5.568 -0.0896 -0.0764 -0.2350
80674W        W23768   6.106  11.004   5.061  0.0608  0.0536 -0.0215
80675W        W23769   9.615  14.684   5.146 -0.0402  0.1270 -0.3579
80676W        W23770  10.634  11.298   2.335  0.0037 -0.0464 -0.0061
80677W        W23771   9.840  12.001   6.725 -0.0018  0.0342  0.0487
80678W        W23772  10.552  12.686   4.328  0.0759 -0.0812 -0.1030
80679W        W23773  10.158  11.795   3.849 -0.2017 -0.0782 -0.0560
80680W        W23774   6.750  12.638   6.023  0.2089 -0.1480 -0.3254
80681W        W23775  10.003  13.245   6.864 -0.2410  0.1310 -0.3903
80682W        W23776   8.787  10.341   3.518  0.1076 -0.2568 -0.3510
80683W        W23777   8.986  12.217   6.239 -0.1049  0.0810 -0.0417
80684W        W23778   7.800  13.882   3.128 -0.0753  0.1813 -0.1135
80685W        W23779  10.411  12.257   3.963  0.4571  0.0474  0.0296
80686W        W23780  10.352  11.561   5.382 -0.3603 -0.0065  0.2141
80687W        W23781   5.507  11.968   5.769 -0.0224  0.1596  0.1802
80688W        W23782   7.701  13.769   6.262  0.1945 -0.3918 -0.1368
80689W        W23783   7.538  11.468   4.622 -0.0152 -0.1933 -0.0582
80690W        W23784   7.328  13.571   3.926 -0.2346 -0.2841  0.2555
80691W        W23785   8.587  14.020   5.117  0.0246  0.1233 -0.0177
80692W        W23786  10.167  12.783   6.117 -0.0180  0.2353 -0.1205
80693W        W23787   9.413  12.529   2.488 -0.0913 -0.2496  0.2597
80694W        W23788  11.658  10.384   6.434  0.3304 -0.2187 -0.0360
80695W        W23789   6.396  13.593   3.534 -0.3943  0.0894  0.1077
80696W        W23790   9.683  10.387   4.592  0.0452 -0.2963  0.2507
80697W        W23791   8.192  14.488   5.893 -0.1447 -0.1589 -0.1225
80698W        W23792   6.356  13.061   5.797  0.1939 -0.2174  0.1078
80699W        W23793   6.738  13.250   4.267  0.0771  0.0373 -0.3282
80700W        W23794   9.440  11.343   5.047 -0.2824 -0.4496  0.0861
80701W        W23795   9.969  11.755   5.080  0.0632  0.2024 -0.0634
80702W        W23796   9.864  12.875   5.722 -0.0246  0.3202 -0.1311
80703W        W23797   9.484  13.282   6.726  0.1010 -0.0134 -0.1666
80704W        W23798   8.830  13.003   5.928 -0.3123  0.1210  0.0403
80705W        W23799   7.629  12.595   6.378 -0.0513  0.0347 -0.1237
80706W        W23800   9.958  13.948   5.263  0.0437  0.0937 -0.2957
80707W        W23801  11.035  12.541   4.516 -0.1569  0.0836 -0.1379
80708W        W23802   7.107  14.169   4.563 -0.1068  0.2800 -0.0113
80709W        W23803   6.895  11.927   6.606 -0.3454  0.0969  0.1300
80710W        W23804   9.889  13.103   6.358 -0.4031 -0.1029 -0.7598
80711W        W23805   9.546  12.957   4.810  0.0271 -0.3863  0.2089
80712W        W23806   6.452  10.573   5.054  0.0031  0.1802 -0.0734
80713W        W23807   7.981  12.459   3.230 -0.2419  0.2193 -0.1493
80714W        W23808   7.803  14.556   6.196 -0.0329 -0.1360 -0.1387
80715W        W23809   7.488  13.123   6.909 -0.4369 -0.1328 -0.3080
80716W        W23810   8.041  13.592   4.506  0.0007  0.2352 -0.0094
80717W        W23811  10.194  13.644   3.393 -0.0177 -0.1832 -0.1377
80718W        W23812   9.268  12.895   5.265  0.1349  0.0484  0.0403
80719W        W23813  10.209  14.779   4.721  0.2660 -0.2286 -0.0221
80720W        W23814   8.739  11.531   3.998  0.4615  0.0499 -0.2663
80721W        W23815   6.992  13.722   4.293 -0.0604 -0.0641 -0.2062
80722W        W23816   7.594  14.789   3.539  0.3245  0.3481  0.0860
80723W        W23817   8.818  13.769   3.129 -0.1853 -0.2093 -0.2733
80724W        W23818   7.186  14.741   4.435 -0.1497 -0.1302  0.1432
80725W        W23819  11.261  12.768   6.193 -0.1613  0.0581 -0.0457
80726W        W23820  11.586  12.055   3.287  0.1761 -0.1273 -0.0652
80727W        W23821  11.440  12.768   4.776 -0.1596  0.2808  0.0538
80728W        W23822   9.027  11.895   3.816 -0.3376  0.0928 -0.1220
80729W        W23823  10.970  13.957   5.603  0.1224  0.1859 -0.1305
80730W        W23824   8.329  13.804   5.554  0.1224  0.1032 -0.0246
80731W        W23825   9.178  10.039   2.268 -0.1144 -0.2286 -0.1424
80732W        W23826   7.993  13.155   5.705  0.1641  0.2700  0.2465
80733W        W23827  12.343  11.327   6.024  0.3492  0.0082  0.1990
80734W        W23828   5.386  13.415   5.640  0.1652  0.0888 -0.1663
80735W        W23829  11.072  12.603   3.984 -0.0979 -0.1996  0.0893
80736W        W23830   8.477  11.750   4.771 -0.4561  0.1209 -0.0208
80737W        W23831   8.694  11.968   5.374  0.0038 -0.3050 -0.3947
80738W        W23832  11.455  10.872   5.904 -0.1207 -0.1086 -0.2007
80739W        W23833   9.673  11.148   2.509  0.0096 -0.2897 -0.0480
80740W        W23834   9.715  11.583   5.487  0.2819  0.0727  0.0803
80741W        W23835   8.949  14.318   5.318  0.0999  0.1518  0.2792
80742W        W23836   8.459  14.079   6.023  0.4719 -0.2315  0.1756
80743W        W23837   8.290  14.336   4.946 -0.1380  0.0298 -0.3405
80744W        W23838   7.788  11.915   5.128  0.1207 -0.0578  0.0876
80745W        W23839  10.720  11.480   4.459  0.3196 -0.1016  0.0293
80746W        W23840   7.417  11.852   5.457  0.1851 -0.1011  0.1943
80747W        W23841  11.042  11.106   4.357 -0.2005  0.1573 -0.1416
80748W        W23842   8.210  12.122   4.489 -0.2447  0.1765  0.1905
80749W        W23843   8.767  11.344   4.471  0.1052 -0.1461 -0.1920
80750W        W23844   9.718  13.466   5.232 -0.3698 -0.2093 -0.0572
80751W        W23845   7.109  12.182   5.805 -0.2698  0.3214  0.1417
80752W        W23846   9.709  11.647   4.126  0.3634 -0.0810  0.0539
80753W        W23847  10.529  13.868   6.551 -0.0211 -0.1308  0.1501
80754W        W23848  10.134  12.581   3.108 -0.2796  0.0703  0.0154
80755W        W23849  11.090  14.134   5.141 -0.0159  0.0779 -0.2399
80756W        W23850   6.667  11.586   3.096  0.4009  0.0141 -0.2408
80757W        W23851   9.739  12.707   3.393  0.0324  0.4207  0.0634
80758W        W23852   7.279  12.246   4.513 -0.1060  0.0959 -0.0185
80759W        W23853   7.559  12.891   5.942 -0.3263  0.1616 -0.0714
80760W        W23854   9.004  15.142   7.549  0.3157  0.1930 -0.0276
80761W        W23855   7.044  11.569   5.268  0.0788  0.0799 -0.1757
80762W        W23856  10.655  13.425   4.217  0.0280 -0.1942  0.0598
80763W        W23857  10.987  11.394   3.920 -0.1944 -0.0120  0.1379
80764W        W23858   8.504  14.711   5.109 -0.2944 -0.2172 -0.2349
80765W        W23859  11.284  11.941   4.702  0.0283 -0.1011 -0.2371
80766W        W23860   9.093  14.801   5.001 -0.0331 -0.0360 -0.0060
80767W        W23861   5.948  11.049   5.882  0.0984 -0.0346  0.3560
80768W        W23862  10.205  14.485   6.006 -0.0740  0.2412 -0.0620
80769W        W23863  10.336  13.672   5.224  0.2700  0.0864 -0.1584
80770W        W23864   9.062  11.296   5.387 -0.0556 -0.1890 -0.1030
80771W        W23865   7.847  12.633   5.169  0.2068 -0.2577  0.1833
80772W        W23866   7.507  13.823   4.440  0.0737 -0.0933 -0.1615
80773W        W23867  10.320  11.752   4.283  0.0379 -0.0019 -0.0335
80774W        W23868  10.322  12.116   6.558 -0.0710 -0.0407 -0.2904
80775W        W23869   9.074  13.373   2.722 -0.1241  0.2387  0.0074
80776W        W23870  10.987  10.757   5.171 -0.0890 -0.0216 -0.1160
80777W        W23871   9.833  12.575   4.562 -0.3579 -0.6668 -0.1780
80778W        W23872   9.073  14.609   6.647  0.1245  0.2780 -0.1720
80779W        W23873   7.145  12.780   5.138 -0.0265  0.0114  0.1306
80780W        W23874   8.563  12.559   6.091 -0.0236  0.0619 -0.0820
80781W        W23875   9.095  12.937   3.905  0.1262  0.0417 -0.0741
80782W        W23876   8.684  15.408   4.405  0.1549 -0.0222 -0.0961
80783W        W23877  10.405  12.116   3.359  0.3355 -0.1560  0.2919
80784W        W23878  10.784  10.959   4.756 -0.0025 -0.1106  0.0358
80785W        W23879  11.137  12.341   4.970  0.0034 -0.1976 -0.2342
80786W        W23880   8.773  12.635   5.102 -0.5642  0.0975 -0.2278
80787W        W23881  10.711  10.927   3.906  0.0685 -0.0856  0.0470
80788W        W23882   9.689  11.354   3.132  0.1324 -0.0876 -0.2285
80789W        W23883   8.753  13.582   5.318 -0.0546 -0.2280  0.2955
80790W        W23884   7.425  11.592   3.753  0.3425  0.1206  0.0694
80791W        W23885   8.017  14.088   2.492  0.3843  0.1847  0.0716
80792W        W23886   8.040  12.802   6.101 -0.0672  0.0826 -0.1427
80793W        W23887   8.571  10.838   7.372 -0.1026 -0.0973  0.0512
80794W        W23888   7.522  12.053   7.135  0.2859  0.2954  0.0157
80795W        W23889   6.234  12.630   6.185 -0.0507  0.2720  0.1514
80796W        W23890   7.205  11.236   4.938  0.2371 -0.0330  0.0435
80797W        W23891   9.786  13.638   3.084 -0.0595  0.0084 -0.0862
80798W        W23892   7.628  12.297   6.007  0.0259  0.1102 -0.2262
80799W        W23893   6.696  11.126   4.950  0.4097  0.0659  0.1062
80800W        W23894   8.705  13.025   4.205 -0.1085 -0.3098 -0.0397
80801W        W23895  10.117  12.950   4.873  0.0565  0.0818  0.1613
80802W        W23896   6.836  12.417   5.416  0.0520  0.0172  0.2920
80803W        W23897  11.690  15.496   7.120 -0.1264  0.4630  0.1967
80804W        W23898   7.401  13.381   3.443 -0.2281 -0.0121  0.2171
80805W        W23899   8.163  12.420   6.397 -0.1053 -0.1360 -0.3436
80806W        W23900   8.905  10.461   6.039  0.1592 -0.1523 -0.5351
80807W        W23901   7.498  10.434   3.918 -0.0305  0.1695  0.0355
80808W        W23902   9.270  13.094   5.737  0.1784  0.0613  0.4537
80809W        W23903   8.687  13.764   4.194  0.1188 -0.0778  0.3758
80810W        W23904   9.730  13.259   3.745  0.3211 -0.4248 -0.3204
80811W        W23905   8.312  12.847   5.149 -0.0726  0.3555  0.2036
80812W        W23906   9.349  14.131   5.832  0.3410  0.1464  0.1434
80813W        W23907   6.626  11.024   6.581 -0.4142  0.3195 -0.0715
80814W        W23908  10.091  12.659   4.132 -0.1294 -0.0242 -0.3164
80815W        W23909   9.142  13.572   5.973 -0.3759  0.0852  0.1170
80816W        W23910  10.933  13.614   2.846  0.0205  0.5449  0.2902
80817W        W23911  12.024  11.132   4.195 -0.1910  0.0391  0.1544
80818W        W23912   8.313  13.529   4.996 -0.2440 -0.2070  0.1331
80819W        W23913   8.320  10.642   6.385  0.1660 -0.3332 -0.2199
80820W        W23914   8.334  13.307   5.393  0.0600 -0.0741  0.0623
80821W        W23915  10.522  13.182   5.091  0.1826  0.3939  0.0819
80822W        W23916   8.088  10.883   5.635 -0.1298  0.1407  0.2199
80823W        W23917   9.283  11.419   5.799 -0.1945 -0.2730  0.0353
80824W        W23918   8.529  13.436   4.495  0.0311 -0.2263 -0.0558
80825W        W23919   7.598  11.439   5.983 -0.2978  0.2039  0.2067
80826W        W23920   8.828  11.666   5.750  0.1171  0.0624  0.5770
80827W        W23921  10.487  11.050   4.348 -0.1440 -0.0861  0.0872
80828W        W23922  10.056  12.253   4.992  0.0644 -0.0805 -0.4597
80829W        W23923  10.124  13.564   6.378  0.2516 -0.2384 -0.2219
80830W        W23924   8.332  12.569   3.637 -0.1665 -0.1314 -0.0976
80831W        W23925  10.524  13.202   2.481  0.2138 -0.0034 -0.0633
80832W        W23926  10.680  15.316   5.618 -0.0007 -0.1562 -0.1367
80833W        W23927  10.727  13.100   5.525  0.2201  0.0595  0.1431
80834W        W23928   7.731  15.166   5.566 -0.5620 -0.0564  0.0429
80835W        W23929  10.724  13.004   4.667  0.2695 -0.1306 -0.1025
80836W        W23930   5.399  11.695   5.252  0.0458 -0.0756  0.1585
80837W        W23931   6.920  14.273   5.880  0.1092  0.0934  0.0635
80838W        W23932   7.700  11.999   4.621  0.3200 -0.1497  0.1629
80839W        W23933  11.525  11.348   6.047 -0.2121  0.0869 -0.0042
80840W        W23934   5.954  11.778   5.699  0.0377  0.0823 -0.2244
80841W        W23935   9.275  11.576   4.534 -0.1054  0.0584  0.1279
80842W        W23936   9.242  14.528   6.204  0.0563  0.1646  0.1512
80843W        W23937  10.329  13.962   6.144 -0.0855  0.1162 -0.0049
80844W        W23938  10.006  15.184   9.379 -0.1449  0.0975 -0.0488
80845W        W23939   9.122  11.614   8.448 -0.1548 -0.2040 -0.0050
80846W        W23940  11.222  12.828   8.318  0.0035 -0.0797  0.0734
80847W        W23941  10.433  13.263   8.347  0.3345  0.1418 -0.2630
80848W        W23942   8.528  10.104   7.830  0.0021  0.0288 -0.1485
80849W        W23943   9.968  14.655   7.146  0.1178 -0.0078 -0.1008
80850W        W23944  10.743  13.677   8.443 -0.0792 -0.1839 -0.0745
80851W        W23945  10.295  15.561   8.685 -0.0082  0.1721 -0.0627
80852W        W23946  10.192  13.168   5.421  0.1445  0.2496 -0.0238
80853W        W23947   9.558  11.405   9.327  0.2621  0.1542  0.1766
80854W        W23948   8.310  10.980   8.557 -0.3670  0.0548  0.1250
80855W        W23949   8.457   8.613   9.613  0.0031  0.0075 -0.2269
80856W        W23950  11.312  12.332   9.157  0.0438 -0.0263 -0.0741
80857W        W23951   8.317  13.739   7.212  0.0810 -0.1421  0.0225
80858W        W23952   9.485  12.822   8.126  0.2064 -0.0189 -0.0962
80859W        W23953   9.540  12.269   7.049  0.1853 -0.0334  0.0528
80860W        W23954   8.849  12.996   8.786  0.0351  0.2219 -0.2620
80861W        W23955   9.998  12.383   7.109 -0.2178  0.2448  0.0796
80862W        W23956   8.747  13.261   7.705 -0.0816 -0.1165 -0.2759
80863W        W23957   8.664  12.397   6.606 -0.0711 -0.0079 -0.3366
80864W        W23958   8.741  11.759   9.490  0.1224 -0.0992 -0.2958
80865W        W23959  10.157  13.086   8.788  0.1041 -0.4121  0.0138
80866W        W23960   9.688  10.562   8.175 -0.3564 -0.1361 -0.1143
80867W        W23961   9.834  12.140   8.728  0.1957  0.2159  0.1608
80868W        W23962   7.892  12.754   9.089 -0.0303  0.3879  0.1016
80869W        W23963   9.665  12.659   8.535 -0.1141 -0.1636  0.1357
80870W        W23964   7.520  11.849   8.840 -0.2193 -0.1598 -0.1771
80871W        W23965   7.245  14.037   8.976 -0.1130  0.1204 -0.0128
80872W        W23966   8.672  12.874   6.981  0.1784  0.0671 -0.2267
80873W        W23967  10.485  13.693   7.941  0.1256  0.1442 -0.1030
80874W        W23968   9.194  14.419   7.110  0.1649 -0.0987 -0.1887
80875W        W23969  10.358  16.118   9.866 -0.0374 -0.4138 -0.0991
80876W        W23970  10.437  13.153   7.841 -0.1777 -0.0838 -0.1214
80877W        W23971   8.258  13.681   6.165 -0.3165 -0.1660 -0.1041
80878W        W23972   8.758  12.733   7.864 -0.2502 -0.1739  0.0146
80879W        W23973   7.411  12.586   9.299  0.0211 -0.1088  0.1031
80880W        W23974   8.963  13.317   7.141  0.1305 -0.1330 -0.2315
80881W        W23975  11.168  10.585   8.662 -0.3622 -0.1126  0.0809
80882W        W23976   8.766  11.839   6.676 -0.0018  0.0531 -0.0572
80883W        W23977  10.955  10.357   7.222  0.0687  0.1967  0.1191
80884W        W23978   8.633   9.514   7.895 -0.0507 -0.0394 -0.0454
80885W        W23979   8.268  14.266   7.190  0.1514  0.0554  0.0559
80886W        W23980   9.541  10.927   8.497  0.2742 -0.3081  0.1130
80887W        W23981   8.972  12.825   7.438 -0.0854  0.1351  0.2113
80888W        W23982   9.433  11.877   8.838 -0.3234  0.0227  0.1035
80889W        W23983   8.523  11.177   9.363 -0.0225 -0.0908 -0.2912
80890W        W23984   7.803  11.118   8.651 -0.3403  0.1739 -0.0595
80891W        W23985  10.489  14.533   7.109 -0.0779  0.0111 -0.0154
80892W        W23986   9.115  14.474   8.541  0.0584 -0.0043 -0.2918
80893W        W23987  10.051  14.919   7.625  0.1377 -0.1507 -0.0004
80894W        W23988   7.495  13.636   7.207  0.0458  0.0006  0.0960
80895W        W23989   6.481  11.042   7.140 -0.0106 -0.4391 -0.2308
80896W        W23990   9.019  12.637   8.334 -0.0261 -0.0076 -0.1286
80897W        W23991   7.991  13.425   8.801 -0.1032  0.2701  0.0490
80898W        W23992   9.612  13.732   8.424  0.1078  0.0511 -0.1718
80899W        W23993   9.803  13.092   7.314  0.0644  0.2232 -0.0032
80900W        W23994  10.491  10.402   7.475 -0.2068 -0.3244  0.2042
80901W        W23995  11.491  11.801   9.482  0.0814 -0.0737 -0.1725
80902W        W23996   8.409  12.182   7.003  0.0181 -0.2444  0.1470
80903W        W23997   9.293  13.675   6.483  0.2331 -0.2492 -0.2991
80904W        W23998  10.678  13.932   9.190 -0.1752 -0.2956 -0.1569
80905W        W23999   9.436  12.749   7.302  0.0833  0.3025 -0.1252
80906W        W24000   6.797  13.827   9.003 -0.0410 -0.1599 -0.0424
80907W        W24001   8.364  14.900   7.130 -0.0165 -0.0610  0.0002
80908W        W24002   7.998  12.624   8.607  0.1087  0.2386  0.0175
80909W        W24003   7.526  13.665   7.717  0.0334 -0.1331  0.0807
80910W        W24004   8.799  12.073   8.146 -0.1700 -0.0408 -0.0075
80911W        W24005   8.266  11.500   9.016 -0.3558 -0.0484 -0.0416
80912W        W24006  10.912  10.719   6.637  0.2268  0.0228  0.2572
80913W        W24007  12.131  10.306   8.166 -0.0843  0.1164 -0.0583
80914W        W24008   8.203  12.673   7.097  0.0712  0.1435  0.0262
80915W        W24009  10.505  13.826   7.425  0.0360 -0.2476  0.2183
80916W        W24010  11.683  13.276   7.493 -0.0022 -0.0714  0.2187
80917W        W24011  10.020  13.628   5.667  0.0048 -0.1066 -0.1842
80918W        W24012   5.221  14.698   9.627 -0.2885 -0.1045  0.2828
80919W        W24013   9.182  11.283   8.007  0.0409 -0.3858 -0.0286
80920W        W24014   7.629  12.312   7.674 -0.1895 -0.0810  0.2850
80921W        W24015   7.223  10.988   7.859 -0.1897  0.0338  0.1025
80922W        W24016   9.073  11.125   8.511  0.0966  0.4154  0.2510
80923W        W24017   7.966  11.140   8.174 -0.0850 -0.1724  0.3127
80924W        W24018   7.141  12.960   8.338  0.0733 -0.1051  0.1405
80925W        W24019   9.640  13.752   6.843  0.0399 -0.1445  0.1586
80926W        W24020   9.375  13.754   9.075  0.3699  0.0615 -0.1113
80927W        W24021  11.075  15.654   7.996 -0.0295  0.0728 -0.2304
80928W        W24022   8.069  12.489   9.623  0.2903  0.1002 -0.2673
80929W        W24023   7.711  11.281   7.774  0.1161  0.1257 -0.0643
80930W        W24024   9.114  15.603   7.691 -0.2182  0.0122 -0.1768
80931W        W24025   8.777  17.280   9.712  0.1532  0.3408  0.2515
80932W        W24026   8.384  12.100   8.567  0.0006  0.0894  0.2059
80933W        W24027   9.948  14.376   9.272 -0.1608 -0.0747  0.2875
80934W        W24028  10.110  13.793   6.941 -0.4861  0.1356 -0.2230
80935W        W24029   9.528  11.395   8.537  0.0743 -0.1540 -0.0602
80936W        W24030  10.305  11.809   7.652  0.0296  0.2837 -0.1369
80937W        W24031   8.523  11.455   6.194 -0.0784  0.1490 -0.1610
80938W        W24032  10.222  15.594   9.536  0.2932 -0.1713  0.0341
80939W        W24033   8.992  14.678   7.746  0.1391 -0.1474  0.2032
80940W        W24034   7.293  11.929   7.693  0.3748 -0.2693  0.0795
80941W        W24035   9.504  13.347   8.125 -0.0527  0.0630 -0.1938
80942W        W24036  10.830  11.053   8.726 -0.0077  0.1557  0.1708
80943W        W24037   7.698  11.597   6.877 -0.0795 -0.1608 -0.0240
80944W        W24038   9.888  10.417   7.582  0.0908 -0.1042 -0.2597
80945W        W24039  10.929  11.967   7.918 -0.2020  0.1902 -0.0147
80946W        W24040  10.517  12.715   8.727 -0.0720 -0.1129 -0.1596
80947W        W24041  10.818  11.389   6.959 -0.1543  0.4319 -0.0142
80948W        W24042   9.473  11.790   7.151 -0.0363 -0.0332 -0.1619
80949W        W24043   9.645  13.554   7.719 -0.5501  0.3982  0.1446
80950W        W24044  10.505  12.949   9.199  0.1009  0.3986  0.1671
80951W        W24045   8.622  11.545   7.205  0.1125  0.1135  0.0854
80952W        W24046  10.414  14.607   7.595  0.1074  0.1510 -0.2617
80953W        W24047   7.615  12.488   9.803 -0.1348  0.0601 -0.2653
80954W        W24048   9.986  14.351   8.025 -0.2534 -0.0455 -0.1530
80955W        W24049  10.015  11.041   8.503  0.3269  0.0502 -0.2378
80956W        W24050   7.592  12.505   6.886 -0.1280  0.0446  0.0220
80957W        W24051  11.473  10.033   6.937  0.0210  0.1791  0.1703
80958W        W24052   7.214  14.007   7.440  0.1449  0.1636  0.2976
80959W        W24053  10.310  11.005   9.852  0.5136 -0.0211  0.0297
80960W        W24054  10.248  10.697   6.612 -0.0231  0.0961  0.0540
80961W        W24055  11.299  11.574   8.149  0.0564 -0.0562 -0.1544
80962W        W24056   9.033  12.422   6.992 -0.4181 -0.2429  0.0558
80963W        W24057   7.942  12.048   6.737  0.2448  0.0399  0.1010
80964W        W24058   7.383   9.695   8.753 -0.1966  0.5572 -0.2539
80965W        W24059   8.148  12.264   9.032 -0.1056 -0.1365  0.1092
80966W        W24060   9.558  13.993   7.830 -0.1389 -0.2938  0.1291
80967W        W24061   9.451  11.316   7.301  0.0774  0.1132 -0.3001
80968W        W24062   9.008  13.202   8.195  0.4035  0.1336 -0.2186
80969W        W24063   8.847  14.475   5.852  0.0037  0.1545  0.0816
80970W        W24064   8.706   9.597   9.339  0.0049 -0.2793  0.0285
80971W        W24065   9.038  11.301   9.630 -0.1066  0.1384 -0.2206
80972W        W24066   8.669  13.559   5.824 -0.2191  0.3010 -0.1309
80973W        W24067   9.697  15.702   9.455 -0.1768  0.2302 -0.0587
80974W        W24068   8.586  13.637   8.000  0.1338  0.2130 -0.0242
80975W        W24069  10.206   9.181   9.192  0.2043 -0.0590  0.1202
80976W        W24070   8.418  13.626   9.539  0.2226  0.0578 -0.3532
80977W        W24071   6.697  11.681   7.446 -0.2053 -0.1565  0.0868
80978W        W24072   8.718  12.418   7.391 -0.0245  0.0739  0.0775
80979W        W24073  10.079  10.902   8.025 -0.1661 -0.0227 -0.3526
80980W        W24074  10.880  13.183   8.042  0.0200  0.1060 -0.1306
80981W        W24075   8.072  11.079   9.126  0.3013 -0.1199 -0.4083
80982W        W24076  10.370  11.725   9.042  0.0356  0.1164 -0.1214
80983W        W24077   7.518  13.620   8.769 -0.0940 -0.1416  0.3821
80984W        W24078   9.864  11.033   7.220  0.1129 -0.2316  0.0374
80985W        W24079   7.767  12.866   7.190 -0.1059  0.3036  0.1384
80986W        W24080  10.150  11.778   8.543 -0.1603  0.2394 -0.2534
80987W        W24081   9.565  12.732   9.399 -0.0451 -0.1149 -0.6239
80988W        W24082   8.614  12.332   9.973 -0.0576 -0.0275  0.0294
80989W        W24083  10.706  15.558   9.184  0.2309 -0.2881  0.4090
80990W        W24084   7.946  12.299   7.278 -0.2847  0.0533  0.1003
80991W        W24085   7.901  13.322   7.105  0.1799  0.1750  0.0867
80992W        W24086   9.252  12.032   6.692  0.0493  0.1806 -0.1263
80993W        W24087   9.343  12.252   8.525 -0.3718  0.1400 -0.0201
80994W        W24088   9.280  12.168   7.959  0.2214  0.1425  0.1834
80995W        W24089   9.962  14.347  11.597  0.0587  0.3891 -0.1902
80996W        W24090   9.747  12.340   8.155 -0.0555 -0.1159 -0.0967
80997W        W24091   9.021  14.022   9.384  0.0244  0.3070 -0.0349
80998W        W24092   9.662   9.980   8.529 -0.1561 -0.4023  0.0447
80999W        W24093  10.840  14.514   7.900 -0.0300 -0.0104  0.1072
81000W        W24094   7.912  12.958   6.706 -0.0501  0.2802 -0.1922
81001W        W24095   8.176  11.971   9.441 -0.0555  0.1022 -0.0933
81002W        W24096   7.956  12.861   8.129  0.0325  0.5853 -0.1012
81003W        W24097   9.729  10.201   9.140 -0.1196 -0.1407  0.2783
81004W        W24098   9.607  13.421   9.389  0.0866 -0.0150  0.1023
81005W        W24099   7.807  13.958   7.413  0.0914  0.2830  0.0072
81006W        W24100   9.332  14.794   8.865 -0.3505  0.1340 -0.1699
81007W        W24101  11.105  10.920   7.045  0.1608 -0.1228 -0.1270
81008W        W24102   9.685  13.331   5.732 -0.0098  0.0408  0.0206
81009W        W24103  10.258  10.923   7.549  0.1521  0.0707 -0.2318
81010W        W24104  10.214  12.832   7.508  0.2842 -0.0195 -0.1654
81011W        W24105   4.256  11.300   9.522 -0.0566  0.3512  0.0667
81012W        W24106   9.931  14.019   8.739  0.1151 -0.0654 -0.0815
81013W        W24107   8.367  12.717   9.209  0.3138  0.2177 -0.0365
81014W        W24108   8.728  11.971   7.640  0.2286  0.0525  0.2180
81015W        W24109   8.479  12.447   8.163  0.1781  0.1096 -0.2323
81016W        W24110  11.621  15.119   9.053 -0.0728 -0.1495 -0.3582
81017W        W24111   9.219  12.873   6.816 -0.1590 -0.2569 -0.1711
81018W        W24112   9.861  11.630   8.957  0.0586  0.1328 -0.1832
81019W        W24113   7.582  11.355   9.097 -0.3748 -0.2237  0.2401
81020W        W24114   9.734  12.836   6.778  0.0146 -0.1934 -0.3650
81021W        W24115   9.404  12.479   6.599  0.0465  0.0583  0.1991
81022W        W24116   7.447  10.733   8.693 -0.0995 -0.0563  0.1272
81023W        W24117   9.673  12.208   7.633 -0.3209  0.0867 -0.2837
81024W        W24118  11.864  10.585   7.757  0.4316 -0.0648 -0.4484
81025W        W24119   9.643  14.777   8.450  0.1152 -0.0260 -0.1202
81026W        W24120   9.443  13.425   7.226 -0.2207 -0.1664  0.1067
81027W        W24121  11.212  10.873   9.531  0.1331  0.0745 -0.3066
81028W        W24122  10.005  12.610   8.886  0.0734 -0.0974 -0.0473
81029W        W24123  10.369  12.303   5.992 -0.0319  0.0682  0.0229
81030W        W24124   7.750   9.098   9.465 -0.0176 -0.1285 -0.0786
81031W        W24125   6.871  11.496   6.298 -0.1555  0.0755  0.2700
81032W        W24126   9.759  14.434   7.563  0.2128 -0.4026  0.1693
81033W        W24127   9.827  13.900   9.393  0.0112  0.0665 -0.0989
81034W        W24128  10.166  11.431   7.224  0.1118 -0.1196  0.1280
81035W        W24129   7.792  12.960   9.558 -0.0270 -0.7532 -0.1370
81036W        W24130   7.416  11.397   6.467  0.0365 -0.3001  0.0593
81037W        W24131   8.728  13.667   6.351  0.0579 -0.0070 -0.0803
81038W        W24132   7.889  11.487   9.474 -0.1664  0.2158  0.4931
81039W        W24133   8.764  10.287   5.569 -0.0225 -0.0824  0.0650
81040W        W24134   8.481  12.934   7.428 -0.3338 -0.2121 -0.0231
81041W        W24135  10.352  11.324   7.850 -0.0066 -0.0081 -0.2275
81042W        W24136   8.618  13.335   9.138  0.1605 -0.4965 -0.1287
81043W        W24137   9.163  13.827   8.165  0.0865 -0.2072  0.0024
81044W        W24138   9.434  10.638   9.143 -0.0185  0.1410  0.0969
81045W        W24139  10.771  12.478   9.174 -0.2692 -0.0227 -0.0501
81046W        W24140   9.274  12.578   7.719  0.2069 -0.0251 -0.0330
81047W        W24141   9.036  11.559   9.010 -0.3758 -0.3893  0.0452
81048W        W24142  10.831  14.472   8.675 -0.3144 -0.0988  0.0905
81049W        W24143   7.430  14.040   8.069 -0.1700  0.4577  0.0747
81050W        W24144   8.908  11.959   7.124  0.1989 -0.1063  0.1920
81051W        W24145   8.164  10.178   6.433  0.0391  0.1268 -0.1071
81052W        W24146   8.880  14.053   7.835  0.2808 -0.0824  0.0488
81053W        W24147   6.705  12.300   9.093 -0.2275  0.1706 -0.3276
81054W        W24148   9.422  14.857   7.443 -0.2443  0.0738  0.0865
81055W        W24149  11.289  13.667   6.328 -0.0628 -0.0690 -0.1766
81056W        W24150   8.697  12.159   5.826  0.2514 -0.1476 -0.0089
81057W        W24151   9.779  13.133   8.479  0.2681 -0.0372 -0.0145
81058W        W24152   8.390  13.282   7.035  0.2490 -0.1134 -0.1039
81059W        W24153   7.566  13.221   8.489  0.3990  0.5650 -0.0821
81060W        W24154   9.218  13.888   7.231 -0.1149  0.0922 -0.1385
81061W        W24155   9.895  15.550   6.703 -0.1354 -0.0130  0.3660
81062W        W24156   8.035  14.053   9.352 -0.0239  0.1672  0.2406
81063W        W24157  11.787  11.327   6.510  0.2878 -0.0852 -0.1213
81064W        W24158  10.455  12.516   7.935  0.0899  0.0008 -0.1193
81065W        W24159  10.921   9.687   7.562  0.1047  0.1272  0.1219
81066W        W24160   9.465  15.231   9.702 -0.2156  0.3895 -0.1809
81067W        W24161   7.602  11.185   7.299  0.1951  0.0172  0.2091
81068W        W24162  10.067  13.553   8.115 -0.0248  0.0357  0.0232
81069W        W24163   7.710  11.749   7.503  0.0068 -0.2632 -0.1868
81070W        W24164   7.913  13.537   9.436 -0.0601 -0.0596 -0.1271
81071W        W24165  11.042  10.376   9.209 -0.1582 -0.0099 -0.1336
81072W        W24166   8.362  13.407   6.536 -0.0622  0.3621 -0.2942
81073W        W24167   8.846  12.100   8.631 -0.2146 -0.3557 -0.1089
81074W        W24168   9.834  15.274   8.232 -0.3004  0.1536  0.0658
81075W        W24169   8.157  14.358   8.963 -0.0743 -0.1679  0.1836
81076W        W24170  10.654  15.637   9.737  0.0027 -0.0192  0.1084
81077W        W24171   8.378  12.257   7.724  0.0219  0.0689  0.2228
81078W        W24172  10.139  12.769   8.391 -0.0781 -0.0018  0.3102
81079W        W24173  11.238  15.342   9.239  0.0871 -0.0112 -0.5653
81080W        W24174   8.329  11.833   8.090 -0.0212  0.2475 -0.0329
81081W        W24175   9.073  11.524   7.581 -0.0160 -0.0637 -0.0310
81082W        W24176   7.610  14.636   8.746  0.2078 -0.1735 -0.1253
81083W        W24177   9.854  11.713   9.712  0.1677  0.0345  0.0575
81084W        W24178  10.578  12.310   6.957 -0.0994 -0.0504 -0.2852
81085W        W24179  10.073  11.423   5.893 -0.1197  0.0678  0.2189
81086W        W24180   8.657  11.639   8.700  0.0300 -0.0458  0.1108
81087W        W24181   9.155  11.561   6.864  0.1290  0.0693 -0.0301
81088W        W24182   7.210  12.309   8.025  0.0764 -0.0544  0.2564
81089W        W24183   9.065  12.685   9.790 -0.4028  0.0033  0.1377
81090W        W24184   8.724  10.681   8.436  0.2316 -0.0611 -0.0852
81091W        W24185  10.872  12.448   7.454 -0.0869 -0.0324  0.1022
81092W        W24186  12.638  12.269   9.169  0.2696 -0.1176 -0.0581
81093W        W24187   7.999  14.510   7.778 -0.1701  0.1410 -0.0697
81094W        W24188  10.434  14.235   8.833  0.0898 -0.2159 -0.1928
81095W        W24189   9.332  14.351   8.100  0.2472 -0.0854 -0.2976
81096W        W24190   7.005   7.685   9.790 -0.0137 -0.4551 -0.0170
81097W        W24191  10.811  14.187   8.307  0.1715  0.2861 -0.0930
81098W        W24192  10.244  13.968   8.346  0.0573  0.0247  0.1389
81099W        W24193   9.057  10.968   7.626  0.0352 -0.0159 -0.1074
81100W        W24194   9.013  12.083   9.080  0.1504  0.1681 -0.2109
81101W        W24195   8.375  14.728   8.132 -0.0881  0.0882 -0.1849
81102W        W24196  10.497  12.096   9.437 -0.0708 -0.0101 -0.0929
81103W        W24197   9.406  15.464   7.215  0.1048  0.0468  0.0049
81104W        W24198   7.720  15.228   9.320 -0.2603 -0.2636 -0.3583
81105W        W24199   8.324  13.402   7.528  0.1032 -0.0439 -0.4214
81106W        W24200   8.574  12.944   8.298  0.1225  0.0680 -0.0757
81107W        W24201   8.831  14.444   8.114  0.0197  0.0693 -0.0341
81108W        W24202  10.189  13.607   8.682  0.2654  0.4082 -0.0875
81109W        W24203   9.561  12.306   9.774 -0.0938 -0.1493  0.0830
81110W        W24204  14.179  13.718   9.016 -0.2362 -0.0559  0.5103
81111W        W24205   9.538  11.749   7.799 -0.4379  0.0422 -0.0314
81112W        W24206  11.145  11.924   8.596  0.2785 -0.1201  0.2122
81113W        W24207  11.613  11.011   6.960  0.1150 -0.0011 -0.0391
81114W        W24208   7.556  14.552   8.253 -0.1208  0.1826 -0.2259
81115W        W24209   7.166  12.447   7.429 -0.2344  0.2201 -0.0260
81116W        W24210   9.488  12.743   6.097 -0.0690 -0.1045 -0.1291
81117W        W24211   6.534  12.144   9.571  0.0123  0.2178 -0.2017
81118W        W24212   8.581  12.338   9.422 -0.0795  0.2350  0.1189
81119W        W24213   9.122  10.625   8.699 -0.1814 -0.0338 -0.1256
81120W        W24214   9.972  14.500   8.703  0.2812 -0.0422  0.1323
81121W        W24215   8.765  12.919   9.423  0.0358  0.2014 -0.1166
81122W        W24216   8.025  11.859   8.815  0.1518  0.0959 -0.2487
81123W        W24217   9.401  13.043   7.689 -0.1778 -0.2840 -0.0937
81124W        W24218   9.172  13.438   8.606  0.0827 -0.0721 -0.2675
81125W        W24219   8.220  11.531   7.746 -0.1694 -0.1399 -0.0347
81126W        W24220   7.202  13.521   8.145  0.3836  0.2598 -0.1479
81127W        W24221   6.989  11.246   7.332 -0.0203 -0.1568 -0.2745
81128W        W24222   9.227  13.244   9.052 -0.1089 -0.0546 -0.2092
81129W        W24223  10.287  13.618   9.143  0.0495 -0.0185  0.1135
81130W        W24224   9.768  16.213   7.428  0.0716 -0.0755 -0.3001
81131W        W24225   7.283   9.171   8.474  0.0392 -0.0081  0.0251
81132W        W24226   9.795  12.675   7.754 -0.2193  0.2457  0.0796
81133W        W24227  11.053  13.696   7.268  0.0241 -0.2389  0.0816
81134W        W24228   9.930  11.918   7.305  0.2281 -0.1144 -0.0072
81135W        W24229   9.074  10.428   7.556 -0.1433 -0.2145 -0.1977
81136W        W24230  10.150  12.481   9.437  0.1671  0.0616  0.1305
81137W        W24231   9.734  11.323   8.099 -0.1706  0.1334  0.0949
81138W        W24232  11.102  10.218   6.686  0.0993 -0.2951  0.1309
81139W        W24233   9.154  13.628   7.695  0.1367 -0.2844 -0.1475
81140W        W24234   7.989  11.013   9.628  0.0436  0.0423 -0.1155
81141W        W24235   9.989  11.808   8.016  0.0844  0.0617  0.1416
81142W        W24236   9.929  15.461   9.948  0.2141 -0.0310  0.1027
81143W        W24237   9.194  12.086   7.482  0.1949 -0.3495  0.1287
81144W        W24238  10.417  13.318   7.378  0.1756  0.1378  0.1503
81145W        W24239   9.189  13.947   8.661 -0.2666 -0.4610  0.1717
81146W        W24240   8.862  16.151   9.213 -0.0931 -0.1429  0.4841
81147W        W24241   9.666  10.996   9.606  0.1724  0.0969  0.1468
81148W        W24242   8.895   7.973  10.072 -0.0135 -0.0893  0.0938
81149W        W24243   8.521  11.940   9.042 -0.2402 -0.0516  0.5840
81150W        W24244   8.414  13.715   8.897  0.1584 -0.0983  0.0872
81151W        W24245  11.158  11.900   9.089  0.1420  0.2128 -0.1777
81152W        W24246   9.089  12.304   9.488 -0.1423 -0.2376  0.1577
81153W        W24247   8.452  10.422   6.799 -0.0652 -0.2637 -0.1500
81154W        W24248  10.009  16.230   9.359  0.3187  0.0399 -0.2073
81155W        W24249  11.118  13.771   9.592 -0.0319 -0.0285 -0.2331
81156W        W24250   8.921  16.330   1.771  0.5526  0.1029  0.0140
81157W        W24251   9.019  15.393   0.679  0.1629 -0.1866 -0.1185
81158W        W24252  11.051  16.370  30.943  0.0232  0.3490 -0.1185
81159W        W24253  10.765  18.227   1.054 -0.0034  0.1491 -0.0075
81160W        W24254   8.636  13.535   0.669 -0.2178  0.1825 -0.0299
81161W        W24255  11.039  18.091   1.632  0.0164 -0.2015 -0.3385
81162W        W24256   6.767  15.161   3.769 -0.1888 -0.1061  0.2075
81163W        W24257  10.227  16.303   1.690 -0.1564 -0.1588  0.0487
81164W        W24258  11.345  18.771   1.081 -0.2639 -0.4716 -0.0240
81165W        W24259  11.671  17.894   0.941 -0.1348 -0.0325  0.1218
81166W        W24260   8.043  15.095   3.598 -0.2187 -0.2725  0.3179
81167W        W24261   8.950  17.480   2.303 -0.1521 -0.1634  0.1818
81168W        W24262   7.713  13.309   0.481  0.0859 -0.0980  0.1041
81169W        W24263   7.101  13.216   1.876  0.0776 -0.0819 -0.0056
81170W        W24264  10.241  14.994   1.546  0.0353 -0.1045  0.0514
81171W        W24265   8.706  16.528   0.878  0.1928 -0.0965  0.0229
81172W        W24266   7.767  16.128   1.982 -0.1627 -0.1832 -0.2503
81173W        W24267   9.182  15.482   2.189 -0.4659 -0.1378 -0.2121
81174W        W24268  10.568  17.337   2.312 -0.2972  0.0542  0.0417
81175W        W24269   7.748  14.878   2.103 -0.1922  0.1471  0.0014
81176W        W24270   8.123  14.113   3.589 -0.1355 -0.2862 -0.0513
81177W        W24271  10.661  18.741   0.418 -0.2584  0.2198 -0.3050
81178W        W24272   8.256  16.426  31.276 -0.3129  0.2202 -0.0627
81179W        W24273   7.201  15.893   3.608  0.3790  0.1141 -0.2601
81180W        W24274   8.648  16.223   2.170  0.0020  0.4187 -0.0454
81181W        W24275  11.261  13.591   2.453 -0.0465  0.0775 -0.0135
81182W        W24276  10.939  14.535   1.439  0.0552 -0.2011  0.0487
81183W        W24277   9.634  16.683   1.306 -0.2844  0.1339  0.1970
81184W        W24278   8.841  17.077   1.979 -0.2948  0.3653  0.2016
81185W        W24279   9.581  14.270   2.668  0.2057 -0.0998  0.0447
81186W        W24280   8.173  16.487   0.391 -0.0092 -0.3736  0.0949
81187W        W24281   8.036  18.600   1.049  0.2807 -0.1755 -0.1757
81188W        W24282   8.664  16.723   0.444  0.2490 -0.0161  0.1429
81189W        W24283   9.753  16.460   1.706 -0.2698 -0.3169 -0.2376
81190W        W24284  10.694  18.272   3.862  0.1953  0.0662 -0.0639
81191W        W24285   7.444  18.131   3.284 -0.0034  0.1156  0.0770
81192W        W24286   7.131  18.029  31.101 -0.1962  0.1885 -0.0239
81193W        W24287   8.980  17.599   1.595  0.1128 -0.2313 -0.0126
81194W        W24288   8.184  17.316   1.336 -0.0358  0.1775 -0.0336
81195W        W24289  11.272  15.322   1.710 -0.3349 -0.1963 -0.0787
81196W        W24290   9.418  15.416   1.369 -0.0872  0.3034  0.2756
81197W        W24291   8.624  17.171  31.875 -0.3892 -0.2473 -0.3586
81198W        W24292  10.568  17.717   3.731  0.0055  0.2970  0.0820
81199W        W24293   9.584  17.478   2.395 -0.2171 -0.2819 -0.2647
81200W        W24294   7.179  18.713   1.834 -0.1717  0.1316  0.1362
81201W        W24295  11.777  13.277   3.733 -0.1716 -0.3731  0.1852
81202W        W24296   8.842  18.322   0.022  0.2392 -0.3706 -0.0621
81203W        W24297  10.234  15.958  30.872  0.0961 -0.1317 -0.1205
81204W        W24298   8.970  14.406  31.272 -0.1347  0.0066  0.1219
81205W        W24299  10.343  14.689  31.613  0.1475  0.1385 -0.2619
81206W        W24300   9.539  15.779   2.407 -0.1728  0.0686  0.0367
81207W        W24301   7.892  18.407   0.542  0.1926  0.2865  0.2357
81208W        W24302   8.630  15.300   2.177  0.0105 -0.0574 -0.0315
81209W        W24303  10.610  15.955   2.769 -0.3837 -0.0600  0.3543
81210W        W24304   9.646  16.266  31.920  0.1441 -0.2753  0.1966
81211W        W24305   9.753  15.575   3.070 -0.0109 -0.0926 -0.2134
81212W        W24306   7.942  17.248   2.328 -0.0899 -0.0793  0.0730
81213W        W24307   8.391  15.324   0.868 -0.0316 -0.1177 -0.0575
81214W        W24308  10.175  18.083  31.471 -0.1337  0.0688 -0.2370
81215W        W24309  11.980  19.066   0.339 -0.4424  0.0290  0.1364
81216W        W24310   8.938  16.369  30.413 -0.0531 -0.3763  0.0356
81217W        W24311   7.206  15.390   0.271 -0.0117 -0.2310  0.0868
81218W        W24312   7.766  16.173   2.968 -0.0474  0.1654 -0.1242
81219W        W24313   6.710  15.730   3.468  0.1774  0.1578  0.4705
81220W        W24314   6.760  13.930  31.957  0.0829 -0.2847  0.1986
81221W        W24315  11.212  16.878   1.583 -0.0095  0.0213  0.0776
81222W        W24316   7.661  16.940   3.727 -0.2535  0.0182 -0.1056
81223W        W24317  11.677  16.622   1.842  0.2256 -0.0284  0.2114
81224W        W24318   7.655  17.097   1.958 -0.0043  0.1184  0.0086
81225W        W24319  11.665  16.049   1.951 -0.1380  0.0227  0.0692
81226W        W24320   9.335  17.512   0.300 -0.2645 -0.0309  0.0843
81227W        W24321  10.445  14.728   0.688 -0.1352  0.0455 -0.0922
81228W        W24322  10.401  14.741   2.192  0.2817  0.0738  0.1321
81229W        W24323   8.545  16.268   1.307  0.5148  0.1803 -0.0393
81230W        W24324   8.449  16.708  31.669 -0.2965  0.1286 -0.0581
81231W        W24325  11.850  18.756   2.114 -0.2943  0.2449 -0.1429
81232W        W24326  11.438  18.512   0.477  0.1417  0.1539 -0.3486
81233W        W24327   7.218  18.186   1.559 -0.0022 -0.0314  0.1431
81234W        W24328   7.375  15.505   2.766 -0.1591 -0.0938  0.1263
81235W        W24329  10.025  17.580   3.666 -0.1402  0.1269 -0.4416
81236W        W24330  10.055  17.177  31.682 -0.2179 -0.0205 -0.0034
81237W        W24331   9.305  16.336   1.360 -0.3563  0.6552 -0.1158
81238W        W24332   9.305  15.894  31.815 -0.1857  0.2154  0.1648
81239W        W24333   7.814  14.238   1.517  0.0990  0.3276  0.0530
81240W        W24334   8.845  17.508   1.082  0.3153 -0.1568 -0.3174
81241W        W24335  11.721  15.666  31.425  0.5650 -0.2972  0.2105
81242W        W24336   7.569  15.794   3.304 -0.2817 -0.1765 -0.1331
81243W        W24337  10.895  15.256   0.372 -0.1301 -0.0366  0.1016
81244W        W24338   8.699  16.239   0.448  0.0515  0.4549  0.1812
81245W        W24339  11.777  19.516   1.277  0.0468  0.1303 -0.2472
81246W        W24340  12.111  16.042  31.009  0.1208  0.1638  0.1396
81247W        W24341   9.647  19.495  31.162  0.0035 -0.1632  0.1310
81248W        W24342   7.974  14.858   3.196  0.2782  0.2128 -0.4794
81249W        W24343   9.895  15.620   1.991 -0.0840 -0.2976 -0.3285
81250W        W24344   8.010  14.596   3.776 -0.0880 -0.0032 -0.1514
81251W        W24345   8.363  15.793   1.263  0.2360  0.0131  0.0706
81252W        W24346   9.147  15.958   2.823 -0.0000 -0.1932  0.0108
81253W        W24347   8.508  14.618  31.032  0.1785 -0.1172 -0.1847
81254W        W24348  10.065  15.172   1.077 -0.1655 -0.1044  0.0660
81255W        W24349   9.094  15.836   0.443  0.0698 -0.0902  0.4290
81256W        W24350   7.718  16.799   0.543 -0.1981 -0.0230 -0.0133
81257W        W24351  12.051  14.258   2.683  0.3409  0.1510 -0.2984
81258W        W24352  10.514  18.053   1.609 -0.1272  0.0584  0.1770
81259W        W24353   9.159  18.710   3.520  0.1624  0.2980  0.0578
81260W        W24354   9.659  17.118   2.975 -0.0639 -0.0214 -0.3257
81261W        W24355   8.762  15.629   2.480 -0.0579 -0.1338 -0.0362
81262W        W24356   7.489  13.321  31.144 -0.1118 -0.0070 -0.2929
81263W        W24357   7.226  18.033  31.914 -0.1411 -0.1837 -0.0289
81264W        W24358   9.270  16.692   1.711  0.0137 -0.0274 -0.3974
81265W        W24359   9.161  14.955   0.926  0.0893 -0.0158  0.0889
81266W        W24360  10.584  17.826   2.453 -0.2237 -0.1681 -0.0779
81267W        W24361   9.037  16.995   0.177 -0.0479  0.0090 -0.1066
81268W        W24362   7.732  17.536   0.963 -0.0691 -0.3770 -0.1950
81269W        W24363   9.983  13.768   0.569  0.1863  0.2115  0.2506
81270W        W24364  10.128  15.853   2.990  0.0573  0.3605  0.0001
81271W        W24365  11.705  16.274   1.501 -0.2142  0.4341 -0.0264
81272W        W24366   6.693  14.135   1.719 -0.3178 -0.1240 -0.3354
81273W        W24367   9.819  17.692   2.911  0.0100 -0.4404 -0.3025
81274W        W24368   8.282  18.029   0.120 -0.1126 -0.1179  0.2534
81275W        W24369   7.804  16.813   1.396  0.2342 -0.0488 -0.1813
81276W        W24370   8.987  17.058  31.491 -0.1892  0.0960 -0.0535
81277W        W24371  11.777  14.353   2.309  0.3376  0.0361 -0.2203
81278W        W24372   6.214  15.842   3.782 -0.3940  0.0250  0.3227
81279W        W24373  10.551  14.573   3.611  0.2542 -0.1403 -0.2693
81280W        W24374   7.786  17.042   0.972  0.0787 -0.0114 -0.2700
81281W        W24375   7.485  16.549   1.865 -0.1297 -0.4406  0.0096
81282W        W24376  10.409  14.353   0.192 -0.0135  0.1495  0.2329
81283W        W24377  11.315  14.525  31.563  0.1315 -0.0590 -0.0158
81284W        W24378   8.735  16.207   3.635  0.0241  0.1647 -0.5196
81285W        W24379  11.357  16.953   0.960  0.4130  0.0784  0.2377
81286W        W24380  11.385  16.411  29.889 -0.0702 -0.1274  0.2510
81287W        W24381   9.141  13.822  31.675 -0.0209 -0.1664 -0.1150
81288W        W24382   6.932  16.449   4.268 -0.0994  0.0668  0.2603
81289W        W24383   9.787  17.035   1.616  0.3276  0.2348  0.1379
81290W        W24384   8.379  15.700   2.166  0.1038  0.1175 -0.1993
81291W        W24385   9.969  16.263  31.495 -0.2202  0.0173  0.0773
81292W        W24386  12.820  18.352  31.676  0.1063  0.1433 -0.3629
81293W        W24387   6.925  16.473   2.014  0.3420  0.1431 -0.1968
81294W        W24388   8.550  16.695   2.694 -0.0962 -0.0971 -0.2090
81295W        W24389  10.690  17.852   0.698  0.0119  0.3096 -0.0248
81296W        W24390   8.716  14.309   2.392 -0.0104 -0.2399  0.0933
81297W        W24391   9.551  15.311   0.358 -0.2876 -0.2272 -0.0313
81298W        W24392   9.948  15.431   2.545 -0.1880 -0.1814 -0.0297
81299W        W24393   9.596  18.412   0.329  0.0650  0.0451  0.0626
81300W        W24394  11.291  14.465   0.611 -0.1590 -0.0242 -0.0579
81301W        W24395   9.126  14.499   1.139  0.1803 -0.0745  0.0099
81302W        W24396   9.113  16.453   2.669  0.0815  0.0204  0.2175
81303W        W24397  10.622  14.571   2.687 -0.0298  0.2110 -0.0298
81304W        W24398  10.842  15.746   0.600 -0.1833  0.1473  0.2518
81305W        W24399   9.657  15.753   0.185 -0.0751  0.0165 -0.1465
81306W        W24400   8.388  14.460   0.537 -0.0518 -0.1080 -0.1818
81307W        W24401   8.191  15.043   2.315 -0.0933  0.0070  0.0572
81308W        W24402   9.043  16.606   2.195  0.0470  0.1594 -0.2442
81309W        W24403   6.771  16.726   3.841  0.1664  0.1683 -0.0293
81310W        W24404   9.645  16.266   2.555 -0.0969  0.1190  0.2425
81311W        W24405   9.182  16.207   0.825 -0.0765 -0.1479  0.1622
81312W        W24406   8.527  15.080   3.292  0.0021 -0.0983  0.0172
81313W        W24407   9.705  14.777   0.172  0.1730  0.0801  0.2267
81314W        W24408  10.990  17.679  31.627 -0.3893  0.0102 -0.0727
81315W        W24409   7.482  17.745  31.537 -0.1254  0.1966 -0.0020
81316W        W24410   8.677  15.014   1.250  0.2486  0.0036 -0.0222
81317W        W24411   8.689  17.126   2.973  0.1439  0.0783 -0.2843
81318W        W24412   9.173  16.704   1.077 -0.3558  0.2011  0.1786
81319W        W24413  10.233  16.346   2.947 -0.0037  0.0156 -0.2777
81320W        W24414   7.631  17.338   0.515 -0.0863 -0.0343  0.0196
81321W        W24415  11.443  13.151   2.301  0.1525  0.1694 -0.0870
81322W        W24416   7.678  19.854   1.325 -0.0619  0.3027  0.2395
81323W        W24417   8.750  15.898   0.956  0.2806  0.0140  0.0881
81324W        W24418   7.621  17.008   0.127 -0.2783  0.3070  0.0230
81325W        W24419  10.927  14.826   0.565  0.0440 -0.0345 -0.2231
81326W        W24420  11.063  16.324   0.761  0.3856  0.3132 -0.2061
81327W        W24421   8.911  15.169   2.687  0.1753 -0.2024  0.1664
81328W        W24422  10.767  15.521   1.781  0.1922  0.1657 -0.1624
81329W        W24423   8.325  17.771   1.130 -0.2247  0.0811  0.1097
81330W        W24424  10.410  15.631   0.854 -0.1672  0.3104  0.1058
81331W        W24425  10.345  14.246  31.399 -0.2943 -0.1464  0.3038
81332W        W24426  10.343  16.940   3.025  0.1167  0.1999  0.2072
81333W        W24427   8.183  17.002   1.811  0.2800 -0.1115  0.1873
81334W        W24428   7.083  13.972   0.369  0.2442  0.0490  0.0341
81335W        W24429   9.988  15.954   4.461  0.0593 -0.0559  0.1574
81336W        W24430  10.225  15.813   1.629  0.2474  0.0501 -0.0200
81337W        W24431   8.860  17.743   0.206 -0.3455 -0.0738 -0.3431
81338W        W24432   9.263  17.707   1.999 -0.0616 -0.0013  0.2481
81339W        W24433   9.154  16.324   0.189  0.0339 -0.1384  0.0386
81340W        W24434   8.669  17.851   0.727  0.0241 -0.0036 -0.0718
81341W        W24435   8.781  15.563   3.024 -0.3761  0.5272 -0.3173
81342W        W24436  11.010  16.668   3.007  0.0954  0.0144  0.2850
81343W        W24437   8.812  14.635   1.562  0.2090  0.1102 -0.0311
81344W        W24438   8.731  14.085   0.476 -0.0456 -0.2125  0.0666
81345W        W24439  10.472  15.601   2.381  0.2068  0.0435 -0.1399
81346W        W24440   9.626  16.060   1.077 -0.0715  0.0480 -0.0361
81347W        W24441   9.368  14.875   3.540  0.1461 -0.2024  0.0491
81348W        W24442   8.043  16.515   3.920 -0.0792  0.5183 -0.0958
81349W        W24443   9.477  15.093   2.537 -0.0831  0.1219 -0.1672
81350W        W24444  11.082  18.718   0.122 -0.0430  0.1339  0.1425
81351W        W24445  10.345  14.735   3.176  0.0873 -0.2456  0.0189
81352W        W24446   8.190  17.837   0.619  0.0664  0.1486 -0.1064
81353W        W24447   7.913  15.924   1.529  0.1087 -0.1099 -0.1762
81354W        W24448   9.994  15.373   0.196 -0.0086 -0.2115  0.2567
81355W        W24449   9.363  16.205   1.865 -0.0379 -0.0585  0.0786
81356W        W24450   8.743  17.269   0.552 -0.2646 -0.2069  0.1138
81357W        W24451   9.648  17.553  31.883 -0.0650  0.2455 -0.2672
81358W        W24452   6.531  16.141   1.913  0.1743 -0.2435  0.0256
81359W        W24453  10.913  13.966   0.025 -0.2534  0.0664  0.2577
81360W        W24454  10.540  18.897   1.543 -0.1888 -0.0256  0.1739
81361W        W24455   9.643  14.905   1.297  0.0881 -0.1207 -0.1340
81362W        W24456  11.217  15.005   2.194  0.2248 -0.0274  0.2249
81363W        W24457  10.464  16.547   1.054  0.0175  0.1971  0.0537
81364W        W24458  10.957  14.854   3.464  0.0908  0.2146 -0.0665
81365W        W24459   7.532  14.003   2.115 -0.1847 -0.1389  0.2145
81366W        W24460  10.137  17.282   1.291 -0.0691  0.2026 -0.0700
81367W        W24461   7.404  16.321   3.232 -0.0971 -0.0927  0.2922
81368W        W24462  10.324  18.207   2.095 -0.0233  0.2967  0.2861
81369W        W24463   8.048  16.806   2.673  0.3466  0.0007  0.2247
81370W        W24464  10.074  14.687   1.077  0.2223  0.2566  0.1515
81371W        W24465   7.093  13.405   0.393  0.2156 -0.0840  0.3873
81372W        W24466   9.461  15.346   3.469  0.0999  0.2752 -0.1444
81373W        W24467  10.731  16.908   1.968 -0.0795 -0.0321  0.1939
81374W        W24468   9.496  16.202  31.419 -0.0369 -0.1091 -0.1307
81375W        W24469  11.393  15.899   1.342 -0.0615 -0.1412  0.3542
81376W        W24470   6.776  16.461   0.801 -0.1763  0.0523 -0.1581
81377W        W24471  10.397  15.965   1.185  0.1106  0.1145 -0.0381
81378W        W24472   8.707  16.233  31.467  0.1877  0.0012  0.2194
81379W        W24473   8.598  14.466   1.086 -0.1256  0.1446  0.0532
81380W        W24474   7.716  14.335   3.338 -0.1575 -0.1236 -0.1619
81381W        W24475  10.658  16.569   1.500 -0.3223 -0.0342 -0.2534
81382W        W24476  10.690  14.997   1.834  0.1969  0.2506 -0.3254
81383W        W24477   9.969  15.488   0.681  0.4535  0.0091 -0.0890
81384W        W24478  10.294  15.050   2.598 -0.2073 -0.0342 -0.0041
81385W        W24479  10.701  15.003   2.962  0.3430 -0.2165  0.0360
81386W        W24480   8.286  15.749   3.935  0.0070 -0.1556 -0.0435
81387W        W24481  12.129  18.258   1.699 -0.1771  0.0713  0.0991
81388W        W24482   9.992  16.006   0.742  0.0633 -0.1626 -0.0384
81389W        W24483  11.461  16.487   2.677 -0.4748  0.6415 -0.0123
81390W        W24484  10.453  17.854   1.123  0.0089 -0.1535 -0.1688
81391W        W24485  10.430  17.028   0.950  0.1964 -0.1777  0.1355
81392W        W24486   7.867  16.744   2.204  0.2783 -0.1768  0.1690
81393W        W24487  10.992  15.786   3.816 -0.1062 -0.2488 -0.0960
81394W        W24488   9.959  15.656   1.131 -0.2139  0.0839 -0.3115
81395W        W24489   9.945  13.872   2.549 -0.0181 -0.0144 -0.5019
81396W        W24490   9.376  17.370  30.727 -0.0472 -0.0787  0.1023
81397W        W24491   9.816  17.734   1.186  0.0171  0.0557  0.1027
81398W        W24492  10.223  16.971   0.405  0.1943 -0.1199  0.3249
81399W        W24493   8.921  15.460   1.290 -0.1423 -0.1802 -0.2360
81400W        W24494   6.591  16.913   2.095 -0.2956 -0.1638  0.0146
81401W        W24495   6.960  15.070   0.541 -0.1202 -0.0346 -0.0118
81402W        W24496   9.518  16.142   0.486 -0.1028 -0.2664 -0.0413
81403W        W24497   9.483  16.998   2.486  0.1727 -0.0914 -0.0607
81404W        W24498  11.661  16.789   2.322  0.2192  0.0284 -0.3544
81405W        W24499   9.266  13.958   1.436  0.2414  0.0738 -0.1321
81406W        W24500  10.717  15.144   2.328 -0.0514  0.1207 -0.0730
81407W        W24501   8.667  17.574  31.560  0.2757 -0.2525  0.0889
81408W        W24502  11.043  13.736   1.847 -0.0581  0.1579 -0.2338
81409W        W24503   8.110  18.636   3.047 -0.1302  0.0285  0.0381
81410W        W24504   6.435  17.306   1.627 -0.0716  0.1542  0.0115
81411W        W24505   9.138  17.099   1.426 -0.0280  0.3093  0.0280
81412W        W24506   8.785  14.133   1.385 -0.0413 -0.1121 -0.3060
81413W        W24507  12.298  15.926   0.561  0.0062  0.0243 -0.0479
81414W        W24508   8.837  16.648   1.415  0.1460  0.1042  0.0774
81415W        W24509  11.454  15.990   2.418  0.2974  0.2700 -0.1345
81416W        W24510   9.046  16.607   3.737 -0.3396  0.0676  0.1011
81417W        W24511   7.821  15.687   2.782  0.2043  0.1791  0.1927
81418W        W24512   9.900  16.272   2.120  0.0313  0.1159 -0.0735
81419W        W24513  10.512  16.106   0.709 -0.0433  0.1532 -0.0330
81420W        W24514   8.420  15.981   1.749 -0.1519  0.1027  0.2542
81421W        W24515   8.198  16.372   2.844  0.4072  0.0491 -0.0816
81422W        W24516   9.688  15.742   4.124 -0.0029 -0.0883 -0.0965
81423W        W24517  10.021  16.377   1.098  0.2163  0.2244  0.1511
81424W        W24518   7.232  15.266   1.275 -0.0011 -0.1128  0.0885
81425W        W24519   7.087  16.927   0.610 -0.0192 -0.1311 -0.0532
81426W        W24520   7.496  17.386   2.799 -0.1292 -0.3550 -0.0938
81427W        W24521   7.560  16.756   2.993 -0.0095 -0.0101  0.0462
81428W        W24522   9.074  18.224   0.430  0.2304 -0.1411 -0.0524
81429W        W24523  10.351  17.727   1.969  0.0741 -0.0314 -0.0601
81430W        W24524   9.312  17.022  31.052 -0.0765  0.1724  0.2977
81431W        W24525  10.243  16.703   2.019  0.0023 -0.1787  0.1348
81432W        W24526  10.347  15.686   0.355  0.0512  0.1117  0.0859
81433W        W24527   8.503  19.125   0.486  0.0017 -0.0753 -0.2580
81434W        W24528   7.736  18.154  30.936 -0.0287 -0.4845 -0.1464
81435W        W24529  10.284  18.314   1.145 -0.3000 -0.2131 -0.2125
81436W        W24530  10.126  17.377   0.790  0.1249 -0.1504  0.0804
81437W        W24531   9.478  17.531   3.372  0.0150 -0.0711 -0.0515
81438W        W24532   9.639  14.201  29.689  0.1975 -0.0259  0.4451
81439W        W24533  10.568  14.785   1.187 -0.2136  0.1834  0.0288
81440W        W24534  10.744  16.953   0.204  0.0058  0.2370 -0.2468
81441W        W24535  10.425  16.662   3.416 -0.0792 -0.0333 -0.0993
81442W        W24536   9.970  15.046   1.992 -0.2449 -0.0662  0.1101
81443W        W24537   9.297  14.527   0.345 -0.1119  0.1709 -0.2333
81444W        W24538   9.706  16.089   3.137  0.1160 -0.2111  0.1716
81445W        W24539  10.846  14.582   2.082 -0.1882  0.1643 -0.0484
81446W        W24540   7.020  17.512   2.898  0.3567 -0.1325 -0.0041
81447W        W24541   8.991  18.492  29.737 -0.2000  0.0671 -0.0441
81448W        W24542   6.803  15.519   0.572  0.3056 -0.1507 -0.1291
81449W        W24543   7.885  17.747   1.510 -0.0588  0.1094 -0.1619
81450W        W24544  12.258  14.583   0.970 -0.2031 -0.1229  0.0289
81451W        W24545   9.607  17.561   0.760 -0.1636  0.2692 -0.1826
81452W        W24546  10.904  14.092   2.163 -0.3486  0.0362 -0.2549
81453W        W24547  10.225  19.090   1.956  0.0144 -0.1311 -0.3445
81454W        W24548   7.359  17.601   1.342 -0.0537 -0.2280 -0.0620
81455W        W24549   8.087  18.837   0.423 -0.1160 -0.0100  0.3490
81456W        W24550   7.481  14.998   0.536 -0.0061  0.3091  0.0961
81457W        W24551  10.390  15.244  31.509 -0.1666 -0.2465 -0.1594
81458W        W24552   7.276  16.069   2.751 -0.2959 -0.1046  0.2503
81459W        W24553  10.464  13.130   3.414  0.0985 -0.1439  0.1956
81460W        W24554   7.791  15.551   1.976  0.1998  0.2274 -0.0348
81461W        W24555  10.869  16.191   1.221 -0.0935 -0.0545 -0.1537
81462W        W24556   9.269  15.708   1.750 -0.0472 -0.1297  0.0301
81463W        W24557   7.838  14.804   2.604  0.1802 -0.1980  0.0119
81464W        W24558   8.231  14.052  31.763  0.1580  0.2723 -0.0829
81465W        W24559  11.986  16.942   2.917 -0.1825  0.2160  0.0366
81466W        W24560  10.555  17.411   0.497 -0.3085 -0.0489 -0.0590
81467W        W24561  10.838  17.058   3.217 -0.2750  0.1263  0.2333
81468W        W24562   7.526  13.582   1.133 -0.0764  0.0735 -0.0020
81469W        W24563  10.170  14.824   0.236 -0.0447 -0.1602 -0.3281
81470W        W24564   8.323  16.747   1.386  0.1721  0.0062 -0.0543
81471W        W24565   8.498  16.633   3.761 -0.3904  0.1369 -0.2433
81472W        W24566   9.146  18.307   2.651  0.0334 -0.2158 -0.2268
81473W        W24567   7.920  14.247   0.682 -0.2955 -0.2197 -0.1108
81474W        W24568  11.067  17.537   0.486 -0.0246 -0.0014  0.3970
81475W        W24569  11.057  16.196   2.901  0.0268  0.1168  0.0495
81476W        W24570   9.402  17.984   0.019  0.1418 -0.0868  0.0749
81477W        W24571  10.190  16.745   1.486 -0.4937  0.2348 -0.1851
81478W        W24572  10.617  18.353   2.482 -0.2640  0.1536  0.2089
81479W        W24573   8.080  15.322   1.293  0.0537 -0.1079 -0.0934
81480W        W24574  10.223  18.013   2.791  0.0724 -0.0941 -0.0590
81481W        W24575  11.460  17.214   2.554 -0.1189 -0.0712  0.0841
81482W        W24576   9.542  15.214   0.908 -0.2598  0.0533 -0.1434
81483W        W24577   9.278  15.372   3.017  0.0900 -0.1247  0.4200
81484W        W24578   8.125  18.233  31.264  0.1335  0.1556  0.0042
81485W        W24579  11.714  15.412   1.001  0.2037  0.0072 -0.2715
81486W        W24580  11.336  14.856   1.504  0.1211  0.0791  0.2905
81487W        W24581   9.160  17.460  31.787  0.2983 -0.2024 -0.0321
81488W        W24582  10.119  14.315   1.362  0.1642 -0.1707 -0.1863
81489W        W24583   8.729  16.563   4.231  0.0662 -0.0762  0.1400
81490W        W24584   7.994  17.499   1.938  0.3448  0.1790  0.2118
81491W        W24585   8.774  14.523   0.154 -0.0094  0.1402 -0.3363
81492W        W24586  10.384  14.561   1.704  0.1589  0.2118 -0.0392
81493W        W24587   9.229  15.849   1.171 -0.1330  0.1770 -0.2924
81494W        W24588   7.972  17.758  31.263 -0.2487  0.4001 -0.1206
81495W        W24589  10.980  18.906   1.804 -0.0083 -0.1997  0.0758
81496W        W24590   8.799  15.650   1.859  0.1524 -0.1184  0.0880
81497W        W24591  12.039  16.389   0.419  0.1338  0.1183 -0.1478
81498W        W24592   9.496  15.239   1.880  0.1769  0.2147 -0.0827
81499W        W24593   9.597  13.604  31.720 -0.3291 -0.0035 -0.1611
81500W        W24594   9.025  13.761  31.236  0.0086  0.2368  0.1706
81501W        W24595   8.184  16.369   2.330 -0.2338 -0.1300 -0.0800
81502W        W24596   7.040  16.391  31.489 -0.1608 -0.2296  0.1640
81503W        W24597   8.378  16.001  30.543  0.2044  0.0516 -0.1744
81504W        W24598   6.909  17.367   1.395 -0.1991 -0.2060  0.1268
81505W        W24599   7.279  13.798   3.213 -0.0883 -0.0465 -0.3164
81506W        W24600   8.603  16.472   3.170  0.1024 -0.0385  0.2254
81507W        W24601   8.421  15.406   1.620  0.3449 -0.0244  0.0315
81508W        W24602   7.374  14.937   1.778 -0.1198 -0.0284 -0.0747
81509W        W24603  10.830  17.679   1.448 -0.2030 -0.0510 -0.1773
81510W        W24604   8.390  14.638   3.418  0.3323  0.0407  0.2257
81511W        W24605   8.405  14.066   0.843 -0.2808 -0.1885 -0.0673
81512W        W24606   9.739  15.939   1.615 -0.1028  0.2076 -0.0167
81513W        W24607  12.441  18.999   0.780  0.1104 -0.0508 -0.0907
81514W        W24608   7.623  14.991   1.029 -0.1090  0.0136  0.1265
81515W        W24609  11.013  17.533   2.837 -0.1818  0.0835 -0.0625
81516W        W24610   8.052  17.164  31.800 -0.1607 -0.2596 -0.0010
81517W        W24611  10.857  15.136   1.408 -0.1324  0.2078  0.1356
81518W        W24612  10.107  15.164   4.316 -0.1325  0.0178 -0.2745
81519W        W24613   7.282  15.388   0.758  0.1384  0.1076  0.0425
81520W        W24614   9.889  14.688   2.461 -0.1467 -0.2848 -0.0984
81521W        W24615   9.355  17.176   1.913  0.0348 -0.2254 -0.1259
81522W        W24616   9.839  18.172  31.879  0.0303 -0.1790  0.0975
81523W        W24617   8.647  17.156   1.519 -0.1984  0.2490  0.1026
81524W        W24618   8.048  18.980   4.063  0.0288 -0.1598 -0.0072
81525W        W24619   7.835  15.233   2.935  0.0530 -0.0885  0.0085
81526W        W24620   9.173  17.211   0.893 -0.0200 -0.0149  0.4035
81527W        W24621   7.652  16.263   2.484  0.0049  0.1159  0.0399
81528W        W24622  10.981  17.051   0.671 -0.1794  0.2277  0.2406
81529W        W24623  11.737  15.534   1.978  0.1968  0.1393  0.2426
81530W        W24624   9.643  17.195   1.141  0.0046  0.0655  0.1352
81531W        W24625   9.005  14.971   3.135 -0.2526  0.0185  0.0566
81532W        W24626   9.160  16.652   0.542 -0.2458 -0.2093  0.0919
81533W        W24627  11.116  17.455   2.272  0.2547 -0.1206  0.5138
81534W        W24628   9.126  14.588   2.532 -0.2979 -0.0353  0.3403
81535W        W24629  11.298  15.289   1.180 -0.0242  0.1352  0.0263
81536W        W24630   9.927  16.909   0.828 -0.1034  0.1590 -0.4193
81537W        W24631   8.358  15.804   2.997 -0.1009  0.0724  0.0089
81538W        W24632   9.514  15.124  31.777  0.0191 -0.2324 -0.0965
81539W        W24633   9.704  15.916   3.637 -0.1370  0.3763 -0.1676
81540W        W24634   9.585  16.715   2.139 -0.0953  0.1330  0.0105
81541W        W24635  10.060  15.917   2.479 -0.0523  0.0558  0.1045
81542W        W24636   8.193  17.000   0.354  0.4775 -0.0759  0.1259
81543W        W24637  11.601  17.249  31.912 -0.1184  0.4115  0.0864
81544W        W24638   9.921  16.699   2.665 -0.0309 -0.0004 -0.3763
81545W        W24639  10.333  17.193   3.611 -0.0254 -0.3545 -0.0950
81546W        W24640   8.947  17.740   3.227  0.1549  0.1533  0.0569
81547W        W24641  10.738  16.000   1.694  0.1438 -0.1458  0.0801
81548W        W24642   8.846  15.928   1.463  0.0918  0.0485  0.3673
81549W        W24643   9.901  15.374   1.562  0.0123 -0.0512 -0.1437
81550W        W24644   8.735  17.007   1.017  0.0094  0.1728 -0.0926
81551W        W24645  10.348  15.362   1.933  0.1907 -0.0508 -0.1109
81552W        W24646   8.968  15.172   1.696 -0.4273 -0.0493 -0.1642
81553W        W24647  11.170  14.445   0.139 -0.0251 -0.0893  0.1624
81554W        W24648   8.779  18.032   2.502 -0.0279  0.0394 -0.2728
81555W        W24649  10.127  16.511   0.628 -0.1382  0.0505 -0.1705
81556W        W24650   9.094  17.532   6.274 -0.0442 -0.1467  0.0184
81557W        W24651   9.478  15.090   4.199 -0.0614  0.1835  0.0676
81558W        W24652  10.851  14.424   3.209  0.0925  0.1837 -0.4617
81559W        W24653  12.033  15.426   3.337  0.0956 -0.1398  0.2619
81560W        W24654   7.710  14.246   3.865 -0.3796 -0.0644 -0.0576
81561W        W24655   9.219  17.870   3.624 -0.3225  0.0343 -0.1357
81562W        W24656   7.626  15.572   6.710 -0.2779  0.1200  0.2655
81563W        W24657   9.740  18.351   4.222 -0.2471 -0.0353 -0.1022
81564W        W24658  10.084  18.697   4.482 -0.3200  0.0130  0.0255
81565W        W24659   9.067  16.036   2.251  0.0521  0.4471  0.3560
81566W        W24660   8.823  16.026   4.341  0.0060 -0.4784 -0.1482
81567W        W24661   7.684  17.427   7.214 -0.2998 -0.1529  0.1178
81568W        W24662   8.811  14.845   3.730  0.0577  0.0603 -0.2434
81569W        W24663   7.199  14.553   4.897 -0.1869 -0.0247 -0.1374
81570W        W24664   9.830  14.690   5.598 -0.1679 -0.3653  0.1633
81571W        W24665   7.638  16.429   3.639  0.0566 -0.2552  0.2266
81572W        W24666   7.699  15.508   5.920  0.0986  0.2289 -0.3434
81573W        W24667  10.527  16.187   4.652 -0.2946  0.1088  0.1375
81574W        W24668   9.267  18.207   5.519  0.0880 -0.0228  0.4194
81575W        W24669   9.306  15.377   6.039  0.3011  0.0820  0.0116
81576W        W24670   9.853  14.081   6.401 -0.0752  0.1447  0.2699
81577W        W24671   7.191  17.003   2.793 -0.2015 -0.1207  0.0207
81578W        W24672   8.676  16.114   2.651 -0.0818 -0.1451  0.1825
81579W        W24673   7.832  16.305   5.972 -0.1587 -0.0204  0.2264
81580W        W24674   8.238  16.469   5.659 -0.0288  0.0210 -0.0444
81581W        W24675   9.700  16.697   5.269 -0.2049  0.2361 -0.2373
81582W        W24676  10.048  14.522   4.375  0.2502  0.0683  0.0997
81583W        W24677   7.861  17.578   3.801  0.3861  0.3249  0.2041
81584W        W24678   8.973  17.532   5.363  0.0222 -0.2364 -0.0143
81585W        W24679  10.146  15.872   7.603 -0.0071  0.1559  0.1509
81586W        W24680   8.290  16.225   5.229  0.0039  0.2340 -0.0699
81587W        W24681   7.482  18.667   4.769 -0.2524 -0.0570 -0.4896
81588W        W24682   7.919  17.289   3.372  0.0241  0.0536  0.1395
81589W        W24683   9.399  16.996   3.374 -0.0554 -0.2132  0.2432
81590W        W24684  10.348  18.078   7.209 -0.1620  0.1413 -0.0015
81591W        W24685   8.065  18.676   7.331 -0.0808  0.2458 -0.2317
81592W        W24686   8.419  16.808   2.231  0.0731 -0.0608 -0.1528
81593W        W24687   9.923  18.445   7.506 -0.0467 -0.0837  0.2081
81594W        W24688   8.850  18.525   7.674  0.3386  0.1142  0.1640
81595W        W24689   9.564  14.983   5.831 -0.2428 -0.1429 -0.1007
81596W        W24690  10.031  16.543   3.754  0.0766  0.0919 -0.3000
81597W        W24691   8.382  17.186   2.579  0.1223 -0.4325  0.1193
81598W        W24692  10.132  16.871   4.145  0.2463  0.1208  0.0212
81599W        W24693   8.034  18.170   7.338 -0.1376 -0.2509 -0.2767
81600W        W24694   7.399  16.908   6.133  0.1196  0.2034  0.0790
81601W        W24695  10.285  15.451   7.394  0.1655  0.2323 -0.1068
81602W        W24696   7.205  17.902   3.876  0.1983  0.0560 -0.3470
81603W        W24697   9.965  16.769   3.263 -0.1123 -0.1168  0.0397
81604W        W24698  11.072  15.804   3.301  0.0187  0.2759 -0.0532
81605W        W24699  11.548  14.939   2.667 -0.1920 -0.1140 -0.3651
81606W        W24700   9.242  13.395   5.337 -0.0283 -0.0306 -0.0041
81607W        W24701   9.412  17.648   4.959 -0.0483  0.0349  0.2130
81608W        W24702   8.037  14.148   6.372 -0.3883 -0.2847 -0.0679
81609W        W24703   9.815  17.953   5.081 -0.0086 -0.1242  0.0493
81610W        W24704  10.490  15.656   3.754 -0.0727  0.2456  0.2309
81611W        W24705   9.643  15.508   5.718 -0.0280  0.5199 -0.2388
81612W        W24706   8.271  17.878   6.392 -0.0553 -0.2548 -0.2979
81613W        W24707   7.930  16.799   5.906 -0.1955  0.3817  0.0884
81614W        W24708  10.155  16.130   3.378 -0.0339 -0.2041  0.1271
81615W        W24709  12.247  17.846   4.139  0.0139  0.1011 -0.0982
81616W        W24710   8.221  18.018   3.985 -0.0634  0.1677  0.4226
81617W        W24711   7.644  16.093   4.009  0.0398  0.1162 -0.0535
81618W        W24712   7.709  17.028   6.521 -0.3024 -0.0995  0.3809
81619W        W24713   7.239  15.563   5.728  0.3108 -0.3156 -0.0018
81620W        W24714   8.643  14.576   2.964 -0.3290  0.1354  0.1826
81621W        W24715  10.471  18.617   6.457  0.0436  0.3231  0.0934
81622W        W24716   7.925  17.397   6.064  0.0407 -0.0990 -0.1028
81623W        W24717   9.921  14.526   3.507 -0.2755 -0.2706 -0.1196
81624W        W24718   8.634  16.780   5.994  0.1416  0.0490 -0.2340
81625W        W24719  10.176  16.635   5.157  0.1151 -0.2020  0.0631
81626W        W24720  10.716  16.355   3.219  0.1551 -0.1077 -0.0922
81627W        W24721   8.165  15.459   5.647 -0.1323  0.1520 -0.1598
81628W        W24722   9.877  14.136   5.736  0.0364 -0.0087  0.0845
81629W        W24723   8.518  15.743   3.471  0.1874  0.0744  0.2677
81630W        W24724   8.680  18.309   4.777  0.1939  0.0825  0.4496
81631W        W24725   9.706  17.983   5.672  0.4013 -0.1130  0.2288
81632W        W24726  11.921  16.111   3.433  0.2084  0.0288  0.1445
81633W        W24727   8.105  17.558   5.004  0.0744 -0.5688 -0.1056
81634W        W24728   9.096  16.006   6.269 -0.2565 -0.0666  0.1013
81635W        W24729   8.993  17.590   7.568 -0.1874  0.1698  0.0832
81636W        W24730   8.460  17.939   4.438  0.0766  0.0296 -0.0764
81637W        W24731   7.024  16.445   4.785  0.2391  0.0355  0.2538
81638W        W24732   6.855  17.164   5.312  0.1181  0.4353  0.1585
81639W        W24733   6.350  15.774   6.471  0.2592 -0.0561 -0.3484
81640W        W24734   9.615  16.111   6.542  0.0005  0.2625 -0.0810
81641W        W24735   9.144  13.986   3.971 -0.0245  0.1180 -0.1128
81642W        W24736   7.326  15.474   6.290 -0.2399  0.0586  0.1420
81643W        W24737   9.454  14.214   5.303  0.0730 -0.0805  0.0370
81644W        W24738   6.862  15.666   4.444 -0.0207  0.2589 -0.0201
81645W        W24739  10.473  17.533   2.865  0.1793 -0.3137  0.1408
81646W        W24740  10.912  16.074   2.382 -0.3559  0.2617 -0.1065
81647W        W24741   7.799  16.886   4.590  0.0284 -0.1185  0.0288
81648W        W24742   6.990  15.177   6.672 -0.3654  0.2313 -0.3135
81649W        W24743   8.647  15.488   4.894  0.1120 -0.0097 -0.3289
81650W        W24744   8.374  15.391   6.126 -0.2161  0.2483  0.3171
81651W        W24745   6.680  15.117   5.165  0.0273 -0.1564  0.1358
81652W        W24746   9.456  15.200   6.804 -0.1769 -0.0009  0.2619
81653W        W24747   7.651  13.830   3.611  0.2403  0.3313 -0.0793
81654W        W24748   9.774  15.521   4.530  0.1084  0.2878 -0.0606
81655W        W24749   9.851  17.462   5.000  0.0034  0.3159 -0.2122
81656W        W24750   6.344  17.169   4.286 -0.1800 -0.0057  0.1480
81657W        W24751  10.208  14.250   6.769  0.1652 -0.0851 -0.1333
81658W        W24752   9.320  18.138   4.026 -0.2499  0.2457 -0.1658
81659W        W24753  10.272  18.447   6.891 -0.0342  0.0594  0.1902
81660W        W24754  10.716  19.198   4.107  0.2480  0.1654  0.1961
81661W        W24755   6.833  15.553   6.403  0.2127  0.1576  0.3852
81662W        W24756   9.342  15.523   4.342  0.4617  0.1517 -0.1165
81663W        W24757   7.067  18.535   5.105  0.0145 -0.1620  0.0054
81664W        W24758   9.037  17.856   4.575  0.2678  0.0320  0.0447
81665W        W24759   8.916  14.209   4.327  0.3403 -0.2684  0.0915
81666W        W24760  10.851  17.711   4.643 -0.1251 -0.0107 -0.4009
81667W        W24761   9.086  16.850   2.983  0.0437  0.1791  0.0535
81668W        W24762   6.462  16.417   4.866  0.0041  0.0769  0.0594
81669W        W24763  10.145  14.762   6.428 -0.3169  0.3060  0.1732
81670W        W24764  10.959  16.928   6.040  0.0818 -0.0588 -0.1252
81671W        W24765  10.105  15.765   4.894 -0.0477 -0.2263  0.1071
81672W        W24766   8.678  14.351   3.778  0.1320 -0.0972  0.0427
81673W        W24767   9.034  18.650   5.007  0.1978 -0.1554 -0.1723
81674W        W24768   7.594  18.133   4.270  0.0554 -0.1078 -0.0866
81675W        W24769   8.474  16.328   4.629 -0.3398 -0.1533  0.0640
81676W        W24770   8.856  18.426   5.424 -0.0808 -0.1129 -0.0635
81677W        W24771  10.138  14.366   5.375  0.0186  0.2021  0.3668
81678W        W24772   7.046  16.673   8.002  0.0170  0.1306  0.2659
81679W        W24773  10.035  16.527   5.633  0.1955  0.0196  0.1227
81680W        W24774   9.323  15.661   3.813 -0.0055  0.1906 -0.0987
81681W        W24775   9.383  16.516   6.243 -0.2263 -0.6220 -0.2061
81682W        W24776  10.348  14.273   4.010 -0.1662 -0.0620 -0.0611
81683W        W24777  12.342  13.765   2.946 -0.0904 -0.3017 -0.1536
81684W        W24778   8.722  17.620   7.149 -0.2331  0.3231 -0.2100
81685W        W24779  10.266  15.605   4.240 -0.3720  0.2534  0.3200
81686W        W24780   9.424  14.631   3.090 -0.0554 -0.1474  0.0390
81687W        W24781   8.961  15.360   3.495 -0.0542  0.1571 -0.1524
81688W        W24782   8.476  17.863   7.518 -0.0114  0.0934  0.1780
81689W        W24783   9.352  17.683   4.224  0.2096 -0.0499  0.0236
81690W        W24784   9.934  16.489   6.744  0.1494 -0.1087  0.1561
81691W        W24785   9.096  15.153   4.588  0.0882 -0.0671 -0.1595
81692W        W24786  11.042  16.349   3.891 -0.2154 -0.0889  0.3585
81693W        W24787   8.375  17.215   5.926 -0.1468  0.3452  0.0785
81694W        W24788   9.717  16.777   7.423 -0.0909  0.0405 -0.1925
81695W        W24789   7.634  19.090   4.415  0.0115  0.3662 -0.1488
81696W        W24790   9.024  15.257   5.057 -0.0786  0.0881 -0.2186
81697W        W24791  10.165  14.754   3.921  0.2777  0.1266  0.2959
81698W        W24792   9.655  14.648   3.916 -0.1884 -0.0606 -0.0770
81699W        W24793   6.949  17.581   4.105 -0.2446 -0.2595 -0.2482
81700W        W24794  10.634  15.009   4.423 -0.0269 -0.2766  0.1088
81701W        W24795   9.736  14.210   6.873 -0.1746  0.1316 -0.0280
81702W        W24796   9.566  15.857   6.086  0.1525 -0.1434 -0.3079
81703W        W24797  10.987  15.408   6.019  0.1377  0.0563 -0.0158
81704W        W24798  10.682  15.454   2.818 -0.0973 -0.0323 -0.1435
81705W        W24799   9.254  15.818   5.527  0.0505  0.1871  0.0472
81706W        W24800   9.594  16.460   3.452 -0.3290  0.1736 -0.0429
81707W        W24801   9.302  14.163   6.599  0.1325 -0.0938  0.0596
81708W        W24802   7.109  16.877   7.499  0.0899  0.0979 -0.1895
81709W        W24803   7.456  17.116   4.867  0.1853 -0.0733 -0.2124
81710W        W24804   9.078  17.921   6.851  0.1988  0.0947  0.0442
81711W        W24805  10.139  15.986   3.889  0.4027  0.0630  0.3407
81712W        W24806  10.117  16.014   6.714  0.2092 -0.0107  0.2338
81713W        W24807   8.674  14.978   4.723  0.0315  0.0304  0.0835
81714W        W24808  10.134  18.417   2.550 -0.0284 -0.1105  0.2217
81715W        W24809   8.220  16.694   4.378 -0.2775 -0.1161  0.0253
81716W        W24810   9.751  14.608   6.183  0.2614 -0.0755 -0.0415
81717W        W24811   9.551  17.163   6.425 -0.3367 -0.3098 -0.2610
81718W        W24812   8.517  17.214   5.111 -0.1034  0.2157 -0.0850
81719W        W24813   9.859  15.968   5.659 -0.0859 -0.1868  0.0781
81720W        W24814   8.383  17.139   3.565 -0.0427  0.0685  0.0430
81721W        W24815   9.550  14.307   4.318 -0.0910  0.0504 -0.1278
81722W        W24816   6.434  18.076   5.325  0.2725 -0.0125  0.1963
81723W        W24817   8.980  16.345   4.788 -0.1895 -0.0990  0.1080
81724W        W24818   7.521  16.588   4.119 -0.1923  0.2193  0.1120
81725W        W24819  10.390  13.980   5.605 -0.2338 -0.0764  0.0385
81726W        W24820  10.533  15.774   3.261 -0.2892 -0.2343 -0.0061
81727W        W24821   8.511  15.175   5.250 -0.0220  0.2350  0.1571
81728W        W24822   8.023  14.949   5.930 -0.0249  0.1974 -0.2537
81729W        W24823   7.683  17.645   5.705 -0.0440  0.1505  0.1592
81730W        W24824  10.264  15.887   5.383  0.2772  0.2403  0.2212
81731W        W24825  11.042  13.928   3.269 -0.0655  0.2808 -0.1064
81732W        W24826  10.283  18.097   6.163  0.0598 -0.0777  0.4284
81733W        W24827   7.896  16.982   7.000 -0.2120  0.0501 -0.1286
81734W        W24828   7.543  15.276   3.479  0.1964  0.1162 -0.1412
81735W        W24829   9.692  15.164   6.327  0.0887  0.1328 -0.0736
81736W        W24830   7.788  15.429   4.580 -0.0318  0.0261 -0.4051
81737W        W24831   7.290  16.902   5.323 -0.1323  0.3686 -0.2848
81738W        W24832   9.353  18.109   5.034  0.2157  0.1565  0.1223
81739W        W24833   9.114  16.393   3.283 -0.1013  0.0372 -0.1226
81740W        W24834   6.934  16.943   4.852  0.1817  0.0630  0.0986
81741W        W24835   7.522  16.039   6.883 -0.1774  0.1445  0.1220
81742W        W24836  10.806  15.899   5.109  0.1103  0.1166  0.1699
81743W        W24837   9.358  16.072   5.132  0.0791  0.0020  0.1775
81744W        W24838   9.254  16.158   3.724  0.2189 -0.0461  0.2976
81745W        W24839   8.629  15.975   4.994  0.1849 -0.1813 -0.0291
81746W        W24840  11.146  17.685   6.038  0.1312 -0.1933 -0.0128
81747W        W24841   8.492  15.784   7.135 -0.3453 -0.1433  0.0371
81748W        W24842   7.180  17.370   7.378 -0.1197 -0.1807 -0.0571
81749W        W24843   8.069  14.866   5.371 -0.1321 -0.1361 -0.1391
81750W        W24844  11.513  18.323   4.806  0.0158 -0.2049  0.1763
81751W        W24845   9.095  16.259   5.834 -0.0248 -0.2963 -0.0714
81752W        W24846   8.791  15.707   3.934  0.1347 -0.0448 -0.3849
81753W        W24847   6.702  16.599   6.638 -0.4927  0.1013  0.2178
81754W        W24848   8.088  16.554   4.892 -0.0696 -0.0397  0.2712
81755W        W24849   8.888  15.864   6.697  0.0459  0.3037 -0.2932
81756W        W24850   8.754  16.641   5.475  0.0648  0.0059  0.0565
81757W        W24851   8.354  17.301   4.459 -0.1217  0.2750 -0.1744
81758W        W24852   7.736  16.575   6.393 -0.4974 -0.0738  0.2917
81759W        W24853  12.485  14.348   3.657 -0.2022 -0.2632  0.2854
81760W        W24854   8.555  17.843   3.608  0.0904 -0.3006 -0.1805
81761W        W24855   8.933  16.139   5.375  0.0309 -0.1591  0.1699
81762W        W24856  11.437  14.647   5.412 -0.1606 -0.4429 -0.1002
81763W        W24857   9.513  16.548   2.941  0.0541  0.0432 -0.0235
81764W        W24858  10.045  15.459   6.067  0.2435 -0.0298 -0.3803
81765W        W24859   7.249  15.307   5.321 -0.1397 -0.0059 -0.0970
81766W        W24860  11.530  17.147   4.031 -0.0126  0.0099 -0.1018
81767W        W24861   6.067  15.356   6.338  0.0740  0.1240 -0.0328
81768W        W24862   9.344  17.679   8.007  0.0069 -0.1105 -0.0733
81769W        W24863   7.166  14.977   7.122  0.2290  0.2327  0.0434
81770W        W24864   9.901  15.172   4.898 -0.2450  0.1003  0.0897
81771W        W24865   7.111  14.862   3.550 -0.1672  0.0912  0.2763
81772W        W24866   8.562  16.676   4.998 -0.0634  0.0624  0.0799
81773W        W24867  10.038  17.306   4.523 -0.1004  0.2816 -0.1097
81774W        W24868   8.128  17.029   4.933 -0.1516  0.0626  0.0718
81775W        W24869  10.645  14.579   4.933  0.2603 -0.2005 -0.0160
81776W        W24870   8.681  17.290   6.339  0.0150  0.0964  0.3768
81777W        W24871  11.059  15.308   3.144  0.1064 -0.1602 -0.1096
81778W        W24872   9.216  16.556   4.260  0.0093 -0.0460 -0.3676
81779W        W24873   8.119  16.141   3.523 -0.2068 -0.0823 -0.0070
81780W        W24874   7.004  14.340   6.406  0.3107 -0.0982 -0.1786
81781W        W24875  10.031  17.639   5.455  0.0749  0.0009  0.2243
81782W        W24876   9.716  15.667   5.180 -0.1678 -0.1949 -0.1307
81783W        W24877   9.430  15.372   4.862 -0.1153 -0.0225 -0.1910
81784W        W24878   9.184  15.310   5.557 -0.1725 -0.1655  0.4777
81785W        W24879   8.836  17.103   5.608 -0.0997 -0.0233 -0.3067
81786W        W24880   6.610  15.360   7.375 -0.0623 -0.1155 -0.1326
81787W        W24881  11.478  17.044   5.530  0.2047  0.3189 -0.1219
81788W        W24882  11.759  15.812   2.864 -0.3292 -0.0506 -0.0473
81789W        W24883   9.269  14.569   5.624 -0.6429 -0.0786 -0.2006
81790W        W24884  10.883  16.477   4.863 -0.0295 -0.1953  0.2182
81791W        W24885  10.000  15.071   3.476  0.2150  0.0963  0.2983
81792W        W24886   6.778  15.673   6.941  0.0862  0.0950  0.1158
81793W        W24887   9.763  16.333   5.966  0.1014  0.0612  0.1356
81794W        W24888  10.163  15.296   3.021 -0.1505 -0.0197 -0.3249
81795W        W24889   9.330  15.627   6.544  0.2850  0.0471 -0.2572
81796W        W24890   8.372  18.479   3.856 -0.1911  0.0135  0.0424
81797W        W24891   9.316  16.871   4.711 -0.0425 -0.0246 -0.0314
81798W        W24892  10.660  15.907   4.186 -0.1103 -0.5774 -0.0878
81799W        W24893   7.432  15.645   4.913 -0.0631 -0.2033  0.0910
81800W        W24894   8.220  17.924   7.926  0.1658 -0.1256 -0.1432
81801W        W24895   8.600  14.199   3.271 -0.1250  0.4085  0.0103
81802W        W24896   8.821  15.998   3.214 -0.2378 -0.3294  0.0631
81803W        W24897   9.490  16.307   5.553  0.0670 -0.0643 -0.1627
81804W        W24898  10.249  16.258   8.133  0.2016  0.2066  0.0318
81805W        W24899   8.263  15.695   4.479 -0.0057 -0.0297  0.0672
81806W        W24900  10.874  14.747   5.864 -0.1863 -0.3649  0.0829
81807W        W24901   7.838  17.385   4.618  0.1296 -0.0824  0.1332
81808W        W24902   9.165  14.488   4.002 -0.1610 -0.2950 -0.0884
81809W        W24903   8.690  18.369   6.268 -0.0109  0.0145 -0.2493
81810W        W24904   7.205  17.563   5.497  0.1655 -0.0979  0.0023
81811W        W24905   8.705  17.031   4.004 -0.1574  0.1750  0.1229
81812W        W24906   8.887  14.850   5.438  0.2004 -0.2418  0.0611
81813W        W24907  10.491  15.510   5.152  0.1482  0.0804 -0.1184
81814W        W24908   9.189  16.520   5.187 -0.2391 -0.1010 -0.0547
81815W        W24909  10.128  16.968   6.684  0.3308 -0.0564 -0.0628
81816W        W24910   9.316  17.037   5.450  0.1005 -0.0731 -0.0291
81817W        W24911   8.725  16.970   4.649  0.0268 -0.2161  0.1914
81818W        W24912   9.817  18.366   6.571  0.1874 -0.0325  0.0200
81819W        W24913  10.596  16.279   5.233  0.1735 -0.3290  0.4056
81820W        W24914   8.147  18.042   4.920  0.0090 -0.2394  0.5838
81821W        W24915   7.268  15.443   7.024  0.0631 -0.3984  0.2703
81822W        W24916   9.840  16.178   5.236 -0.1275  0.0592 -0.1972
81823W        W24917   8.982  16.974   5.109 -0.5313 -0.3781 -0.3255
81824W        W24918   9.355  16.059   4.294 -0.0521 -0.1949 -0.2411
81825W        W24919   8.404  17.499   3.978  0.1662  0.3173 -0.1208
81826W        W24920   6.011  17.026   7.462  0.1579  0.1062  0.2184
81827W        W24921   7.974  15.920   5.621  0.4452 -0.3335 -0.3058
81828W        W24922   7.465  17.825   4.748  0.1173 -0.0549 -0.1473
81829W        W24923   9.194  17.387   2.739  0.0909 -0.2007  0.2845
81830W        W24924  10.133  17.196   2.605  0.0279 -0.1707  0.1568
81831W        W24925   9.989  18.632   6.119  0.0973 -0.1243 -0.3928
81832W        W24926   9.520  16.422   4.795  0.2572 -0.0913 -0.2928
81833W        W24927   7.461  16.020   5.627  0.0382 -0.0914  0.1253
81834W        W24928   7.636  17.668   3.216 -0.0401 -0.1550 -0.0815
81835W        W24929  10.521  18.641   3.479 -0.1332  0.1484  0.3655
81836W        W24930   9.174  17.848   5.882  0.2026 -0.0159  0.1415
81837W        W24931  10.457  16.737   6.006  0.1016 -0.0316  0.3213
81838W        W24932   8.759  14.907   4.232  0.2150 -0.0744 -0.3725
81839W        W24933  10.646  17.030   4.130  0.1785  0.0626  0.0236
81840W        W24934   9.890  14.480   2.905  0.1086 -0.1447 -0.0158
81841W        W24935   9.392  18.328   7.014 -0.1975 -0.1206  0.1121
81842W        W24936   7.820  15.177   6.362 -0.1580  0.2132  0.1144
81843W        W24937   8.650  14.796   2.443  0.4178 -0.2003 -0.5946
81844W        W24938   8.502  15.808   5.602 -0.1097 -0.0315 -0.1203
81845W        W24939  10.684  14.055   6.943  0.0839 -0.0471  0.1518
81846W        W24940   6.934  18.213   6.631 -0.0401  0.1852 -0.2909
81847W        W24941  10.473  16.737   4.752  0.1399  0.0220  0.0528
81848W        W24942   6.884  15.208   4.273 -0.1089 -0.2149  0.0863
81849W        W24943   8.228  15.616   5.163  0.1770  0.2895  0.0105
81850W        W24944  11.714  13.602   4.555  0.2921 -0.3367 -0.0529
81851W        W24945   9.312  17.305   3.798 -0.0054  0.1635  0.1102
81852W        W24946   8.886  15.720   5.905 -0.0228 -0.0237  0.1224
81853W        W24947   8.728  18.642   3.294  0.2398 -0.0197 -0.0626
81854W        W24948   9.334  18.126   6.367  0.2355 -0.0714 -0.1038
81855W        W24949   8.159  17.816   5.812 -0.1968  0.1310 -0.0669
81856W        W24950   7.633  15.882   4.456  0.1144  0.1751  0.0906
81857W        W24951  11.045  16.365   4.393 -0.0838  0.3486 -0.3083
81858W        W24952   9.101  16.763   5.881 -0.1200  0.1732  0.0827
81859W        W24953  10.858  13.005   6.157  0.2072  0.0281  0.0246
81860W        W24954   9.713  16.684   4.374  0.3512 -0.1554 -0.0109
81861W        W24955  10.129  14.021   3.058 -0.2744 -0.4914 -0.0190
81862W        W24956   9.610  16.778   5.762 -0.1079 -0.0388  0.1466
81863W        W24957   7.832  14.488   4.978  0.0916  0.1528 -0.2118
81864W        W24958  10.335  14.116   3.488 -0.2119 -0.0771 -0.4114
81865W        W24959  10.191  17.980   6.613  0.1263  0.2630  0.1229
81866W        W24960  10.560  15.258   3.345 -0.0333 -0.0562  0.0752
81867W        W24961  10.280  19.030   6.170 -0.0846  0.1581 -0.0307
81868W        W24962   7.582  15.039   4.317 -0.0850 -0.1962 -0.1470
81869W        W24963   9.867  14.957   2.884 -0.2299  0.2054 -0.2307
81870W        W24964   8.434  16.201   4.113  0.0616 -0.1467  0.0505
81871W        W24965   8.794  16.388   6.268  0.1755  0.3896 -0.0768
81872W        W24966   9.564  17.844   6.723  0.0428  0.2970  0.2046
81873W        W24967   7.686  14.578   5.664 -0.0140 -0.1403  0.3132
81874W        W24968  10.434  15.974   2.093 -0.3470 -0.2724  0.1918
81875W        W24969  10.059  15.401   5.504  0.1472 -0.0552 -0.1575
81876W        W24970   8.040  16.665   3.463  0.0794  0.3577 -0.0078
81877W        W24971   9.275  17.342   5.816  0.2443  0.2386 -0.1825
81878W        W24972   9.727  17.277   4.075  0.1451 -0.0416  0.0904
81879W        W24973   6.002  16.195   6.123  0.2980  0.1354  0.0827
81880W        W24974   9.970  17.474   6.467 -0.0182  0.1386  0.1309
81881W        W24975  11.338  17.277   5.976  0.1418  0.1388  0.0612
81882W        W24976   8.377  14.801   3.981 -0.1219  0.0386 -0.1079
81883W        W24977   8.211  15.132   4.357  0.2517  0.1221  0.1442
81884W        W24978   7.298  16.387   5.294  0.1036  0.0001  0.1755
81885W        W24979  10.149  14.925   5.275 -0.1840  0.1561 -0.1766
81886W        W24980   9.957  15.041   6.818 -0.0819  0.3444 -0.0224
81887W        W24981   7.970  17.279   2.845 -0.0550 -0.3129  0.1065
81888W        W24982  10.971  14.080   6.496 -0.1010 -0.1184 -0.0671
81889W        W24983   9.783  17.269   5.923 -0.0062 -0.0055 -0.2882
81890W        W24984   8.237  17.331   6.793  0.3776 -0.0018  0.0080
81891W        W24985   7.056  17.132   5.757 -0.0523 -0.0111  0.1074
81892W        W24986   9.001  16.816   6.418  0.0832 -0.3455 -0.0104
81893W        W24987   8.287  18.417   4.359 -0.2327  0.3015  0.1551
81894W        W24988   8.987  17.005   2.513  0.0428 -0.0560 -0.1715
81895W        W24989  10.551  17.321   4.572  0.0747 -0.0704 -0.0006
81896W        W24990   9.607  15.179   5.328 -0.0913 -0.0988  0.2520
81897W        W24991   9.733  18.348   5.316 -0.0766  0.0502 -0.0300
81898W        W24992   8.052  13.925   4.843 -0.0633 -0.0245 -0.0724
81899W        W24993   9.930  14.181   3.862 -0.1383  0.0851  0.4253
81900W        W24994   8.444  14.847   1.842 -0.2629  0.2277  0.0514
81901W        W24995   8.186  17.002   6.348  0.2396 -0.1365 -0.2306
81902W        W24996   7.230  16.685   3.513 -0.3136 -0.0764 -0.0654
81903W        W24997   8.297  16.973   3.095  0.2843 -0.0286 -0.0617
81904W        W24998   7.844  16.423   5.361 -0.2049  0.1533 -0.1670
81905W        W24999   8.683  14.988   6.151  0.0677 -0.2886  0.0171
81906W        W25000   8.255  15.267   6.594 -0.0923 -0.2351 -0.0683
81907W        W25001   8.639  16.280   5.792  0.3579  0.2276  0.2930
81908W        W25002   8.432  14.493   4.472  0.2723  0.0275 -0.2150
81909W        W25003  10.286  17.386   4.073 -0.0650  0.1335 -0.1738
81910W        W25004   7.153  15.834   5.290 -0.2245  0.3306 -0.3149
81911W        W25005   6.053  15.727   4.302  0.2466  0.1701  0.1059
81912W        W25006   8.796  17.422   3.614  0.3137 -0.1766  0.1426
81913W        W25007   9.510  17.319   4.628 -0.0878  0.0946 -0.0443
81914W        W25008  10.025  16.327   4.790 -0.0255  0.0665 -0.1807
81915W        W25009  10.138  17.452   7.662  0.2130 -0.3471  0.2677
81916W        W25010   7.743  16.922   5.218 -0.0431 -0.2571  0.1439
81917W        W25011   9.216  16.643   7.438  0.1594  0.2593 -0.4179
81918W        W25012   8.482  14.361   5.541  0.0841 -0.0018  0.0050
81919W        W25013   7.947  15.617   3.641  0.1279 -0.1401 -0.0812
81920W        W25014   7.609  16.039   5.104 -0.0386 -0.3154 -0.1237
81921W        W25015   8.894  18.312   3.691  0.1375 -0.0342 -0.1949
81922W        W25016   9.763  19.326   3.260 -0.1807  0.0503  0.3147
81923W        W25017  10.251  17.571   6.880  0.0619 -0.3781  0.0488
81924W        W25018   8.700  17.642   6.645  0.0020 -0.0053 -0.0147
81925W        W25019   7.240  14.678   5.772 -0.1247  0.1462 -0.1786
81926W        W25020   9.867  17.017   3.685 -0.1320  0.2737  0.1527
81927W        W25021   8.064  16.557   6.714 -0.1250  0.3831 -0.1151
81928W        W25022  11.587  15.664   3.364 -0.1580  0.0526  0.0457
81929W        W25023   8.766  14.668   7.282 -0.1170  0.2403 -0.0103
81930W        W25024   9.537  16.716   3.916 -0.0245 -0.2550  0.1328
81931W        W25025   9.128  15.095   6.419 -0.0092 -0.0702 -0.2541
81932W        W25026   7.567  15.903   6.216 -0.1403  0.0989  0.0857
81933W        W25027   9.960  17.087   5.452 -0.2117 -0.0531  0.3272
81934W        W25028   7.950  14.109   4.402 -0.0446  0.0082  0.0278
81935W        W25029   9.088  15.856   4.773 -0.2297  0.3205 -0.3250
81936W        W25030   9.807  17.947   3.331  0.2957 -0.3426  0.0909
81937W        W25031   8.263  16.882   5.401 -0.0048 -0.1663  0.1100
81938W        W25032   9.722  16.247   3.995  0.3447 -0.0641 -0.0921
81939W        W25033   9.111  14.942   5.897 -0.2217 -0.1186 -0.1287
81940W        W25034  10.232  17.713   4.757 -0.0478  0.1337  0.2557
81941W        W25035   9.655  17.360   7.003  0.3899  0.0483  0.0356
81942W        W25036   9.309  15.784   3.348  0.5100 -0.2125 -0.0800
81943W        W25037  12.204  15.986   3.047  0.1481 -0.0200  0.1049
81944W        W25038   9.087  18.780   6.415  0.1182  0.2636 -0.0469
81945W        W25039   9.707  19.411   6.992  0.0427  0.1035  0.0233
81946W        W25040   7.378  18.290   6.847  0.2072  0.1803 -0.0373
81947W        W25041  10.787  16.960   5.102 -0.3114 -0.1314 -0.1685
81948W        W25042   7.935  14.677   4.371 -0.1676 -0.1840 -0.0570
81949W        W25043   9.002  17.417   4.852  0.1380  0.0223 -0.0963
81950W        W25044   9.568  17.672   6.149 -0.2343 -0.3269  0.0831
81951W        W25045   9.570  15.910   4.714  0.1817 -0.0338 -0.3711
81952W        W25046   7.290  15.465   4.435 -0.2871  0.3041 -0.1073
81953W        W25047   9.820  15.366   3.880 -0.2539  0.0965  0.1495
81954W        W25048   8.685  18.070   5.796  0.1168  0.0888  0.1048
81955W        W25049  10.315  17.151   5.058  0.0894 -0.2638 -0.0669
81956W        W25050   7.644  17.368  10.092  0.0899  0.1904  0.1730
81957W        W25051   8.438  15.935   7.951  0.2617  0.1342  0.1876
81958W        W25052  10.651  15.874   7.375 -0.0729  0.1279  0.0397
81959W        W25053  10.645  15.021   6.198 -0.0360 -0.1748  0.0012
81960W        W25054   8.704  14.965   6.754  0.1342  0.1122 -0.2027
81961W        W25055  10.266  18.060   8.388  0.3777 -0.1696 -0.0095
81962W        W25056   9.577  16.933   9.139  0.1241  0.2092  0.0295
81963W        W25057  11.797  16.006   9.548 -0.0296 -0.1126 -0.0117
81964W        W25058  10.144  16.658   7.204  0.1261  0.2626  0.0500
81965W        W25059   8.468  14.320   9.353 -0.0328  0.0209 -0.3962
81966W        W25060   9.245  14.285   7.601 -0.0583  0.2358  0.2522
81967W        W25061   6.871  14.313   8.811  0.0625 -0.2259 -0.0360
81968W        W25062   9.393  15.662   9.955  0.0294 -0.2826 -0.0640
81969W        W25063   7.667  15.677   7.250  0.3106  0.2467  0.0482
81970W        W25064   7.416  15.447   9.726 -0.3405  0.1408 -0.0497
81971W        W25065   9.633  16.764   8.261  0.2468  0.1877  0.2906
81972W        W25066   9.603  18.008   8.712 -0.2769  0.1545 -0.0867
81973W        W25067   8.418  15.149   9.276 -0.1168  0.0592  0.0471
81974W        W25068   8.740  16.586   7.498  0.2241 -0.1443 -0.0610
81975W        W25069   7.091  16.336   7.638 -0.2254 -0.0050 -0.1604
81976W        W25070   7.115  15.379   8.017 -0.0703  0.1499  0.2345
81977W        W25071   7.045  16.441   9.491  0.1824  0.3397 -0.0245
81978W        W25072  11.575  15.437   9.639 -0.1581  0.0880 -0.0935
81979W        W25073  11.076  16.162   9.139  0.1103 -0.0227  0.1078
81980W        W25074  10.672  18.564   9.751  0.0607  0.1824  0.1848
81981W        W25075  10.325  17.795   8.971  0.0252 -0.0735  0.0517
81982W        W25076   8.090  17.417   8.612  0.0404 -0.1608 -0.0168
81983W        W25077   7.992  16.217   9.352  0.1278 -0.3906  0.2898
81984W        W25078   8.906  17.311   8.001  0.0518 -0.2075  0.2366
81985W        W25079  10.927  16.187   9.809 -0.0726  0.1106  0.2439
81986W        W25080   7.131  16.983   8.368 -0.2575 -0.2174  0.2132
81987W        W25081   8.643  14.715   9.564 -0.0698  0.1478 -0.1821
81988W        W25082   8.661  15.632   9.200 -0.4097 -0.1685 -0.0027
81989W        W25083   8.256  16.362   7.670 -0.0374 -0.2375  0.1850
81990W        W25084   9.119  16.551   9.002  0.0328  0.0222  0.0230
81991W        W25085   8.137  17.659   9.084  0.0602  0.1587 -0.1466
81992W        W25086   7.293  16.461   7.184  0.1732  0.1069 -0.0954
81993W        W25087  10.113  16.613   8.449  0.1373  0.0239  0.3208
81994W        W25088   8.558  16.739   6.593 -0.1405  0.0142  0.2407
81995W        W25089  10.615  15.964   6.570 -0.1185  0.2889 -0.2349
81996W        W25090   9.588  14.220   8.468 -0.2139  0.0000 -0.0314
81997W        W25091   8.489  17.288   8.325 -0.1606  0.0019  0.0083
81998W        W25092   9.225  13.148   9.620 -0.2087  0.0568 -0.1411
81999W        W25093   9.828  17.998   7.183  0.1963  0.0093 -0.2569
82000W        W25094  12.893  14.714   9.376  0.1093 -0.2996  0.2401
82001W        W25095   8.945  17.338   8.535 -0.1305 -0.2368  0.1229
82002W        W25096   7.084  15.476   7.532  0.0759 -0.2867  0.3388
82003W        W25097  10.846  18.314   7.030  0.0492 -0.1140 -0.1953
82004W        W25098  12.088  16.187   8.914 -0.0239 -0.0250 -0.0608
82005W        W25099   9.293  17.170   8.235  0.1998  0.3170 -0.2503
82006W        W25100   8.707  16.889   7.900 -0.0565  0.0728 -0.2104
82007W        W25101   8.212  14.789   6.389  0.0206 -0.0793  0.0610
82008W        W25102  10.797  15.338   7.027  0.2122  0.2720 -0.0910
82009W        W25103   8.874  16.083   7.763 -0.0085  0.0605  0.0039
82010W        W25104  11.113  16.461   8.600 -0.0909 -0.2147  0.0207
82011W        W25105  10.124  17.221   7.214 -0.0879 -0.0333  0.0842
82012W        W25106  11.238  14.982   6.177  0.0838  0.1085  0.0489
82013W        W25107  10.372  15.187   9.038 -0.0548  0.0624 -0.0405
82014W        W25108   8.250  17.293   7.280  0.0335  0.0155 -0.0810
82015W        W25109   8.838  16.202   7.106 -0.1206 -0.3502 -0.4113
82016W        W25110   9.875  17.326   9.403  0.0237  0.2318  0.1950
82017W        W25111  10.233  16.368   7.593 -0.3392 -0.3252  0.1577
82018W        W25112   6.872  16.059   9.146  0.0658  0.2959  0.1792
82019W        W25113   6.787  17.851   8.431 -0.0707  0.2502  0.1573
82020W        W25114   7.640  16.397   8.753 -0.3236  0.0449  0.0112
82021W        W25115   7.378  15.842   7.856 -0.0997  0.1304  0.3917
82022W        W25116   7.144  14.742   9.572  0.1723  0.2668 -0.1644
82023W        W25117  11.861  20.750   9.405  0.0414 -0.0799 -0.0308
82024W        W25118   9.862  15.780   7.165 -0.3180 -0.1031 -0.0851
82025W        W25119  10.372  15.255   8.255  0.1544  0.0238  0.1324
82026W        W25120   7.649  16.169   7.514 -0.0021 -0.1841 -0.2857
82027W        W25121  11.285  18.621   8.317 -0.4273 -0.0233 -0.0239
82028W        W25122  10.239  16.145   7.176 -0.1961  0.0163 -0.0708
82029W        W25123   9.361  18.405   7.557  0.3412  0.2216 -0.0684
82030W        W25124   8.296  16.282  10.151 -0.1153  0.0469 -0.1261
82031W        W25125   8.178  15.879   7.504  0.0159 -0.5574 -0.2782
82032W        W25126   8.686  14.197   8.936  0.0695  0.0850 -0.0489
82033W        W25127   8.833  13.734   6.903  0.2847  0.2314 -0.0302
82034W        W25128  10.819  16.212   8.181  0.1062  0.0353  0.2095
82035W        W25129   9.784  15.985   8.907  0.0924  0.3468 -0.1672
82036W        W25130   7.888  16.623   7.841  0.2369  0.0596 -0.1665
82037W        W25131  10.144  17.952   7.758 -0.0701  0.1668 -0.0429
82038W        W25132   9.498  18.127   9.761 -0.3751  0.0695  0.0676
82039W        W25133  11.806  17.289   9.338 -0.0107 -0.1141 -0.1603
82040W        W25134   8.859  15.885   8.795  0.1060 -0.4281 -0.0350
82041W        W25135   8.509  14.960   7.646  0.1277 -0.0165  0.1229
82042W        W25136   7.881  18.579   9.294  0.4304 -0.0733  0.2148
82043W        W25137   9.350  18.255   9.128 -0.0053 -0.0190  0.0139
82044W        W25138   7.207  15.976   7.343  0.0876 -0.0886 -0.2147
82045W        W25139  11.016  17.745   8.777  0.0647  0.1244  0.0007
82046W        W25140   8.883  16.167   8.229 -0.2559  0.1178 -0.1335
82047W        W25141   9.493  17.609   9.788 -0.0346 -0.1021 -0.2021
82048W        W25142  10.059  15.722   8.194 -0.0452 -0.3828  0.0818
82049W        W25143   8.774  14.180   7.337 -0.1338  0.2321  0.2699
82050W        W25144  10.026  17.669   8.597  0.0297  0.1035 -0.1381
82051W        W25145   7.685  17.186   8.449 -0.0236  0.1078 -0.0702
82052W        W25146   6.638  15.291   7.821  0.0708 -0.0486 -0.1386
82053W        W25147  10.442  17.603   8.074 -0.1005 -0.0864  0.4904
82054W        W25148  10.276  14.725   9.004 -0.0635  0.1730  0.1667
82055W        W25149   8.524  15.921   6.190  0.3234 -0.0747 -0.1655
82056W        W25150   9.698  13.900   7.355 -0.0819 -0.3609 -0.1509
82057W        W25151  10.882  14.941   7.410  0.0735  0.0962 -0.4322
82058W        W25152  11.707  17.617   8.132 -0.2190  0.0691 -0.0295
82059W        W25153   9.148  16.367   6.674 -0.1923 -0.0258  0.0804
82060W        W25154  10.419  15.655   6.964 -0.0653  0.0360 -0.1238
82061W        W25155   9.499  17.002   8.646  0.0321  0.2503 -0.0087
82062W        W25156   8.124  16.484   8.893 -0.2042 -0.2277  0.0406
82063W        W25157   8.562  16.225   6.682  0.1563  0.0888 -0.0326
82064W        W25158  10.536  16.934   7.245  0.0895  0.0111  0.0278
82065W        W25159   8.005  14.761   9.218 -0.0702 -0.2165 -0.0857
82066W        W25160   9.803  17.087   7.910  0.0444 -0.3234  0.2060
82067W        W25161   8.514  14.696   8.984  0.1178  0.1526 -0.0560
82068W        W25162   8.738  17.169   6.803  0.2703 -0.2793 -0.1601
82069W        W25163   8.734  13.971   8.425  0.0227 -0.0032  0.0344
82070W        W25164   6.281  16.793   8.032  0.0803 -0.4019 -0.0396
82071W        W25165  11.360  14.515   8.585 -0.2061  0.0085 -0.0674
82072W        W25166  11.059  15.559   8.818  0.2058 -0.1002 -0.2635
82073W        W25167  10.876  15.445   7.477  0.0175 -0.0865  0.1497
82074W        W25168   9.880  15.486   8.976  0.2135 -0.0243  0.2460
82075W        W25169   8.266  16.488   6.255  0.0799 -0.2225  0.1146
82076W        W25170   9.406  15.158   9.193  0.2295  0.1078  0.2640
82077W        W25171   8.832  18.401   9.309 -0.0566  0.0240 -0.4938
82078W        W25172  10.409  16.832   9.202  0.3954 -0.1610 -0.1749
82079W        W25173  10.113  14.870   8.173  0.0515  0.0784 -0.2207
82080W        W25174   8.866  18.000   7.827 -0.0766  0.1294  0.1832
82081W        W25175   7.915  17.169   7.684  0.1620  0.2809  0.0179
82082W        W25176   8.888  13.696   8.997  0.1838  0.2560  0.0803
82083W        W25177   9.604  19.011   9.281 -0.2164  0.0827  0.3801
82084W        W25178   7.897  16.515   7.221 -0.1080  0.4071  0.1592
82085W        W25179   9.978  16.537   9.850  0.2568  0.0344  0.1488
82086W        W25180   7.267  17.741   8.612 -0.1213 -0.1087  0.1298
82087W        W25181   9.314  12.985   8.608 -0.2965  0.4527 -0.0127
82088W        W25182   8.198  17.193   9.053 -0.2725  0.1180  0.4847
82089W        W25183   8.027  15.972   7.064  0.0312 -0.0730  0.0259
82090W        W25184   7.945  15.552   7.839 -0.0022 -0.0803 -0.2972
82091W        W25185  11.200  15.803   7.440 -0.0667 -0.2120  0.1871
82092W        W25186  10.836  16.980   7.797  0.1658  0.0526 -0.2009
82093W        W25187   8.918  15.106   9.134  0.0671 -0.0244 -0.0202
82094W        W25188   9.545  15.246   7.733 -0.0725 -0.3350 -0.0720
82095W        W25189   7.486  16.039   9.051  0.0136  0.1882 -0.0687
82096W        W25190   9.847  15.256   7.267 -0.3446  0.0208  0.0966
82097W        W25191   6.180  14.600   7.649  0.0138  0.0730  0.0235
82098W        W25192  11.265  16.612   9.064  0.0818  0.1120 -0.0154
82099W        W25193   9.417  15.493   8.130 -0.1876  0.0379 -0.1721
82100W        W25194   7.751  17.908   8.923 -0.1605 -0.0185 -0.0330
82101W        W25195   9.883  17.216   8.405 -0.0998 -0.0609 -0.1437
82102W        W25196   7.908  15.214   8.467 -0.0384 -0.2798  0.4797
82103W        W25197   8.262  16.860   8.548  0.0398 -0.4456 -0.0374
82104W        W25198   9.272  17.259   9.371 -0.1648  0.0008 -0.0192
82105W        W25199   9.795  14.870   9.015  0.0901  0.0924  0.3838
82106W        W25200   8.637  15.314   7.189  0.0177  0.0216 -0.0686
82107W        W25201   9.191  15.825   8.408 -0.1508  0.1188 -0.0934
82108W        W25202  10.445  16.446   9.502 -0.0112 -0.1879  0.1857
82109W        W25203   9.512  16.678   9.752  0.0910  0.1560 -0.2778
82110W        W25204   9.751  13.553   8.887 -0.0043 -0.1619 -0.2306
82111W        W25205  11.360  17.786   7.709  0.4323 -0.1441 -0.2462
82112W        W25206   8.946  15.773   7.261 -0.1549  0.0765  0.2664
82113W        W25207   5.746  15.394   9.227  0.1541  0.0102 -0.1261
82114W        W25208   8.570  16.826   8.975  0.0120  0.1695 -0.1864
82115W        W25209   9.346  16.028   9.292 -0.1826  0.1897 -0.0548
82116W        W25210   8.473  16.507   8.155 -0.2112  0.1080 -0.3255
82117W        W25211   7.723  16.684   8.321 -0.1064  0.1459 -0.0710
82118W        W25212   6.656  16.108   8.578 -0.0687 -0.1139 -0.0150
82119W        W25213  10.098  15.381   7.842  0.2342 -0.0894 -0.0374
82120W        W25214   9.405  15.905   6.988 -0.1419  0.4725 -0.3445
82121W        W25215  10.123  16.092   8.547 -0.0410 -0.2020 -0.1502
82122W        W25216  11.329  16.171   8.107  0.2333 -0.0658 -0.0729
82123W        W25217   9.352  15.629   8.984  0.2651 -0.0564 -0.3846
82124W        W25218  11.790  16.667   8.929 -0.1171  0.2754  0.0282
82125W        W25219  10.250  15.875   9.092 -0.2641  0.1589  0.0397
82126W        W25220   7.906  15.010   7.627 -0.4534  0.0851 -0.0270
82127W        W25221   8.206  15.605   8.301 -0.1022  0.0872  0.1157
82128W        W25222  10.718  15.936   8.813 -0.3531  0.0276  0.1762
82129W        W25223   9.923  16.728   6.274  0.2136  0.2818  0.0301
82130W        W25224  11.542  15.504   7.768  0.1734 -0.0983  0.0155
82131W        W25225   8.041  16.330   8.375  0.2040 -0.1198  0.0349
82132W        W25226  10.838  15.084   9.035 -0.1475  0.0530  0.2044
82133W        W25227   9.319  16.031   7.898 -0.0720  0.0024 -0.1421
82134W        W25228   7.604  16.065   8.387 -0.3378 -0.0873 -0.2152
82135W        W25229  12.510  18.432   9.677  0.1770  0.1043 -0.0481
82136W        W25230   9.713  15.661   8.513  0.0923  0.4775 -0.0618
82137W        W25231  10.938  20.204   9.900  0.2735  0.1991  0.0377
82138W        W25232  10.436  16.250   5.826  0.1850 -0.0266  0.3808
82139W        W25233   9.818  17.077   9.878 -0.0438  0.0483  0.0697
82140W        W25234  12.329  15.927   7.666  0.0894  0.2590 -0.2872
82141W        W25235   9.598  16.118   8.398 -0.2753  0.1716 -0.1432
82142W        W25236   8.435  16.078   9.002 -0.1184 -0.1652 -0.0341
82143W        W25237   8.820  15.150   8.011 -0.2256 -0.2486  0.2092
82144W        W25238   9.389  17.755   7.202 -0.3770  0.1817 -0.1283
82145W        W25239   9.962  16.961   8.850  0.3469  0.1132 -0.0002
82146W        W25240  10.638  16.547   7.840 -0.1579 -0.2607  0.1311
82147W        W25241   8.394  15.226   8.562  0.1000  0.0823  0.2463
82148W        W25242   8.326  15.790   6.714  0.1301  0.0259 -0.2796
82149W        W25243   9.269  17.093   7.227 -0.0111 -0.4870  0.2011
82150W        W25244   9.311  17.137   9.848 -0.1100  0.2621 -0.0168
82151W        W25245  10.050  13.855   7.760 -0.2298 -0.0305 -0.0545
82152W        W25246   6.547  16.470   8.982 -0.0397  0.0211  0.0163
82153W        W25247   9.540  11.832   8.304 -0.1833  0.0666  0.3757
82154W        W25248   9.131  17.594   8.945 -0.0088  0.2260  0.0103
82155W        W25249   8.805  17.124   7.436 -0.2282  0.1374  0.1093
82156W        W25250   9.671  12.998   8.962 -0.2355  0.3566  0.0857
82157W        W25251  10.662  16.007   9.394 -0.2801  0.0402 -0.2227
82158W        W25252   9.122  16.385   9.545 -0.3381  0.1899  0.1352
82159W        W25253   8.240  16.824   7.502 -0.0090 -0.1457 -0.1786
82160W        W25254  10.918  16.626   9.404  0.1071 -0.0654 -0.0120
82161W        W25255   8.493  16.397   9.451 -0.0093  0.1818 -0.0229
82162W        W25256  11.097  15.821   9.521  0.0431 -0.0165 -0.0256
82163W        W25257   8.550  14.460   8.561 -0.2707 -0.2555 -0.0472
82164W        W25258   8.834  17.942   6.238 -0.1162  0.0156 -0.2309
82165W        W25259   9.297  16.141   8.801  0.0614 -0.2205  0.0854
82166W        W25260   8.060  17.450   8.086 -0.0978  0.1789  0.0611
82167W        W25261  10.245  16.919   7.700 -0.1144 -0.1147  0.0884
82168W        W25262   9.811  16.066   7.952 -0.2389  0.1594  0.0184
82169W        W25263   9.900  19.328   9.015  0.1282  0.0333  0.5221
82170W        W25264   9.057  16.590   7.972  0.3722  0.1353 -0.0258
82171W        W25265   8.039  17.823   9.580  0.1797 -0.1513  0.0129
82172W        W25266   7.062  17.871   7.993  0.0727 -0.0413  0.0645
82173W        W25267   9.633  17.959   7.672 -0.0003  0.2429  0.1223
82174W        W25268   9.298  18.473   8.575  0.0691  0.1470 -0.0991
82175W        W25269  10.119  14.181   7.297 -0.1505  0.0991 -0.2705
82176W        W25270  10.883  17.131   9.368  0.0037  0.2472  0.0617
82177W        W25271  12.093  14.559   6.570 -0.0820  0.0483 -0.0564
82178W        W25272   8.362  17.431   9.528 -0.0384 -0.2374 -0.1015
82179W        W25273   9.010  15.398   6.840 -0.0479  0.1222 -0.1076
82180W        W25274  10.851  17.537   7.805  0.0612 -0.0077  0.3931
82181W        W25275   6.673  15.551   8.235  0.2172 -0.1551  0.4760
82182W        W25276   8.770  15.628   8.159  0.4658  0.1171 -0.3355
82183W        W25277  13.310  16.898   8.946  0.2668 -0.3423 -0.1746
82184W        W25278   9.841  17.585   8.024  0.0007 -0.1004  0.0898
82185W        W25279  10.609  16.816   8.292 -0.2413  0.0770  0.4048
82186W        W25280   9.063  17.883   8.429  0.0894  0.1105 -0.2995
82187W        W25281   9.025  17.841   9.431  0.3308 -0.0561  0.2268
82188W        W25282   8.378  15.927   9.679 -0.0774 -0.0594 -0.1947
82189W        W25283   6.280  14.147   7.230 -0.0012 -0.2039 -0.0091
82190W        W25284  11.746  16.338   7.197  0.0355  0.1013 -0.3062
82191W        W25285   8.751  16.197   9.909 -0.1737  0.3058  0.0825
82192W        W25286   8.346  16.324   7.161 -0.1248 -0.1190  0.2912
82193W        W25287  10.949  15.842   6.993  0.2738 -0.3024 -0.2002
82194W        W25288   8.973  16.865   9.524  0.2890 -0.0999  0.0541
82195W        W25289   6.450  15.074   8.890  0.4484  0.1534  0.1619
82196W        W25290   7.944  16.081   6.467 -0.1919 -0.0163  0.1801
82197W        W25291   9.454  16.424   7.077 -0.2175 -0.3671 -0.3745
82198W        W25292   8.600  15.543   7.669 -0.1948  0.2190  0.3219
82199W        W25293   8.792  15.463   6.398 -0.0080 -0.2110 -0.1708
82200W        W25294   7.297  17.061   8.813 -0.1370  0.2138  0.0372
82201W        W25295   7.505  15.087   8.828 -0.0514  0.1814  0.2713
82202W        W25296   8.515  14.457   7.664  0.1511  0.0069  0.1934
82203W        W25297  10.427  17.616   6.376  0.0764 -0.0477  0.1717
82204W        W25298  10.189  18.393   9.208  0.2155 -0.2052 -0.2829
82205W        W25299   9.647  18.851   7.631 -0.0753  0.0616  0.3359
82206W        W25300  10.553  16.392   8.530  0.0210 -0.2402  0.1668
82207W        W25301  10.235  17.339   9.083  0.0095  0.1958 -0.2082
82208W        W25302   6.640  14.667   9.132 -0.0397 -0.0657 -0.1371
82209W        W25303  10.094  17.800   9.392  0.0011  0.1143 -0.2470
82210W        W25304   7.419  17.785   9.728 -0.2810  0.2515 -0.1568
82211W        W25305   9.577  14.720   7.916  0.1528  0.0559 -0.5154
82212W        W25306   8.096  15.661   9.216  0.2829  0.2097 -0.2526
82213W        W25307   8.551  17.906   9.215  0.1101  0.1215 -0.1055
82214W        W25308  10.547  15.693   7.901 -0.2690  0.2984 -0.1267
82215W        W25309   9.495  16.876   6.851 -0.1213  0.4672  0.1635
82216W        W25310   9.317  16.233  10.067  0.0944  0.0788 -0.0140
82217W        W25311   7.997  15.656   6.245  0.0319  0.4287  0.0221
82218W        W25312   9.049  17.052   8.907 -0.1062 -0.4206 -0.0287
82219W        W25313  10.156  16.453   8.956  0.0794  0.0903 -0.0364
82220W        W25314  10.856  16.870   8.835 -0.0288 -0.2062 -0.0093
82221W        W25315   9.603  15.734   7.624 -0.0425  0.1180 -0.0718
82222W        W25316   9.592  16.441   9.219  0.4218  0.3633 -0.0579
82223W        W25317   9.194  14.843   8.210  0.2425  0.0258  0.0137
82224W        W25318  10.398  14.490   8.330  0.1992  0.3505  0.1713
82225W        W25319  10.390  15.011   7.219 -0.1066 -0.1402 -0.1338
82226W        W25320   8.462  16.065   8.453  0.4914 -0.0645  0.0200
82227W        W25321   7.170  15.816   6.626  0.0510  0.0869 -0.0827
82228W        W25322   7.340  17.895   7.590  0.1086  0.0685  0.1372
82229W        W25323   7.208  15.162   9.312  0.0320  0.0339  0.1836
82230W        W25324   7.621  15.599   8.730 -0.1537  0.1359 -0.1741
82231W        W25325   7.508  14.765   7.748  0.0995 -0.0753 -0.0531
82232W        W25326   9.961  16.783   9.402 -0.0976  0.1101 -0.1073
82233W        W25327   8.907  15.370   9.636 -0.0589  0.2954  0.3000
82234W        W25328   8.182  15.340   7.434  0.1396  0.0760  0.0956
82235W        W25329   9.717  17.425   8.927  0.0936 -0.1735  0.1864
82236W        W25330  11.241  17.632   8.242  0.0239 -0.1669 -0.0063
82237W        W25331   8.272  15.211   8.071 -0.1620 -0.2258  0.0467
82238W        W25332   6.986  16.180   6.946  0.1574 -0.1480  0.0416
82239W        W25333   8.052  15.481   6.999 -0.1683  0.1787  0.1266
82240W        W25334   9.394  15.298   8.640 -0.1713 -0.0807 -0.1140
82241W        W25335  10.283  17.158   8.137 -0.2623 -0.3663  0.2053
82242W        W25336   9.644  18.373   7.956  0.2162 -0.0839  0.0513
82243W        W25337   6.909  14.258   9.370 -0.1298  0.1832  0.2837
82244W        W25338   9.189  16.554   8.439 -0.0862  0.0664 -0.0830
82245W        W25339  10.463  17.144   8.589  0.0039 -0.3365  0.2744
82246W        W25340  10.351  14.106   9.547 -0.0362  0.0500  0.1435
82247W        W25341   9.688  16.515   8.719  0.0514  0.0368  0.0996
82248W        W25342  12.803  16.702   8.365 -0.0110 -0.0271 -0.0671
82249W        W25343   7.914  13.876   8.904 -0.1757  0.2663 -0.1109
82250W        W25344  10.508  14.907   6.735 -0.0895 -0.0814 -0.0605
82251W        W25345   9.994  16.630   7.956 -0.0085 -0.4126  0.0541
82252W        W25346   8.104  14.780   8.642  0.0467  0.1794  0.1805
82253W        W25347   8.870  16.714   6.964  0.1602  0.1318  0.0153
82254W        W25348   9.566  17.746   9.278 -0.2030 -0.1459  0.0437
82255W        W25349   9.374  17.005   7.749  0.0855 -0.0180 -0.0578
82256W        W25350  11.192  15.836   5.921  0.0006 -0.0098 -0.1193
82257W        W25351   9.382  19.462   9.275 -0.0376 -0.1876  0.1296
82258W        W25352   8.697  17.308   9.160 -0.0476  0.1090 -0.0379
82259W        W25353  13.392  16.084   9.571 -0.2372 -0.0073 -0.0498
82260W        W25354   8.355  15.642   8.825 -0.3586  0.0283  0.1654
82261W        W25355   7.905  16.017   7.964 -0.3982 -0.1555 -0.0259
82262W        W25356   8.758  16.355   8.758  0.3234 -0.2970 -0.1281
82263W        W25357  10.016  15.113   8.650  0.2087  0.2218 -0.3727
82264W        W25358   9.032  14.494   9.115 -0.0109  0.4391 -0.0553
82265W        W25359   9.233  16.153   7.426  0.0992  0.0403 -0.2575
82266W        W25360   9.349  19.945  10.388 -0.1086 -0.0119  0.0336
82267W        W25361   7.947  16.842   9.438  0.0662 -0.1027 -0.3322
82268W        W25362   8.593  20.054   2.132  0.1045 -0.1641 -0.3370
82269W        W25363   7.868  19.760   0.623 -0.0604  0.0141 -0.1671
82270W        W25364   9.714  17.842   0.328  0.0460 -0.2885 -0.1977
82271W        W25365  11.197  21.659  31.651  0.0424  0.1002 -0.2979
82272W        W25366   8.674  19.742   1.260  0.0661 -0.1335  0.0187
82273W        W25367  10.279  21.831   1.479  0.2794  0.0834 -0.0840
82274W        W25368   8.341  17.539   3.153  0.0838 -0.3158  0.0741
82275W        W25369   9.481  20.039   1.192  0.1983  0.0266 -0.0587
82276W        W25370  12.531  20.773   2.100  0.1891 -0.1163  0.3541
82277W        W25371   8.324  20.707   0.333  0.1066  0.1068  0.2154
82278W        W25372   8.784  19.620   2.245 -0.0173 -0.1553  0.0768
82279W        W25373   8.171  19.815   3.174  0.1348  0.0018 -0.2193
82280W        W25374  10.765  19.131   1.167  0.2413 -0.1518 -0.0616
82281W        W25375   7.660  18.008   3.748 -0.0315 -0.0154  0.1909
82282W        W25376  10.360  18.451   3.016  0.0702 -0.1337 -0.2154
82283W        W25377   8.732  20.573   0.763 -0.1641  0.2535 -0.0102
82284W        W25378   8.170  20.152   1.553 -0.0458  0.3749 -0.0826
82285W        W25379   9.317  19.135   1.104  0.1573  0.0302  0.0231
82286W        W25380   9.591  21.888  31.800  0.0317 -0.1409  0.1459
82287W        W25381   8.674  19.902   2.728  0.0830  0.0364 -0.0520
82288W        W25382   8.731  17.554   2.761 -0.0696  0.2362 -0.1025
82289W        W25383   9.567  20.927   0.134 -0.0523 -0.0493 -0.3158
82290W        W25384   9.205  19.833  31.297  0.2332  0.0270 -0.1498
82291W        W25385   5.928  18.610   2.373  0.0817 -0.0731 -0.0622
82292W        W25386   9.936  19.659   1.388 -0.0530 -0.4312  0.0693
82293W        W25387  10.096  17.586   2.347  0.1317 -0.0402  0.1646
82294W        W25388  10.523  20.620   1.039  0.2069  0.0966 -0.1355
82295W        W25389   8.914  22.421   1.008  0.1900 -0.1926 -0.0309
82296W        W25390   9.827  21.749   1.222 -0.0726 -0.3764  0.1367
82297W        W25391   9.124  19.972   2.638 -0.0177  0.3516 -0.0480
82298W        W25392   7.403  19.916   2.239 -0.1085 -0.0063 -0.1081
82299W        W25393   5.888  22.307   2.484  0.0312  0.2941 -0.1811
82300W        W25394   8.881  21.920   1.213 -0.0866 -0.3550  0.0727
82301W        W25395  11.284  20.780   1.084  0.1127  0.1438 -0.2724
82302W        W25396   9.338  21.364   2.839 -0.2269  0.0999 -0.0114
82303W        W25397   7.641  23.574   3.186 -0.2623  0.0479  0.1682
82304W        W25398   8.087  20.914  31.928  0.2396  0.0344 -0.0571
82305W        W25399   9.344  21.118   1.982  0.2947  0.1020 -0.1731
82306W        W25400   7.668  20.758   3.145 -0.2027 -0.1165 -0.2252
82307W        W25401   8.725  19.198   2.485 -0.2223  0.0270 -0.1133
82308W        W25402  10.470  19.824   1.746 -0.0115 -0.1845  0.2069
82309W        W25403   9.526  19.866   1.740  0.1976 -0.0155  0.1290
82310W        W25404  10.682  20.194   0.544 -0.4657 -0.2549 -0.1438
82311W        W25405   8.144  21.751   2.494 -0.0320  0.2634  0.0960
82312W        W25406   8.079  21.129   3.372 -0.1279  0.1032  0.0442
82313W        W25407  12.498  18.145   3.173 -0.0168  0.0705 -0.2446
82314W        W25408   8.025  20.929   1.121 -0.0575 -0.1367  0.0063
82315W        W25409  10.696  20.763   0.026 -0.2882  0.0303 -0.0014
82316W        W25410   9.963  19.623   0.083 -0.3179 -0.0209  0.1092
82317W        W25411  11.947  18.571  31.600  0.0330  0.0954 -0.1939
82318W        W25412  10.632  18.514   1.808 -0.1468  0.0137  0.3682
82319W        W25413   8.928  21.309   1.370 -0.2269  0.1367  0.1898
82320W        W25414   8.511  18.388   2.700  0.0012 -0.0549  0.2346
82321W        W25415   9.860  21.193   2.710 -0.1805  0.0141 -0.0083
82322W        W25416   8.136  19.087   0.899 -0.2423 -0.0858 -0.0195
82323W        W25417   8.952  19.159   2.037 -0.2426 -0.0101  0.0266
82324W        W25418   8.102  21.177   2.428 -0.0320 -0.2536  0.2989
82325W        W25419   8.950  19.249   1.428  0.3463  0.0543 -0.0967
82326W        W25420  11.828  22.329  30.793 -0.1715 -0.2509  0.1644
82327W        W25421  11.828  21.212   0.649  0.0108  0.3613 -0.0299
82328W        W25422   9.110  20.767   0.092  0.0779 -0.0927 -0.0077
82329W        W25423   8.487  20.106   0.660 -0.1255 -0.0260 -0.2994
82330W        W25424   6.411  20.595   4.118  0.1678 -0.0023 -0.1317
82331W        W25425   7.506  20.154   3.243  0.1196  0.1056 -0.1737
82332W        W25426   9.581  16.466   0.834  0.1978 -0.2335  0.0635
82333W        W25427   9.880  20.793   2.365  0.1623  0.4922 -0.1243
82334W        W25428   7.637  21.573   4.073 -0.1235  0.2571  0.1239
82335W        W25429  10.179  18.383   0.213  0.1704 -0.1935 -0.2706
82336W        W25430   8.218  20.458   2.008  0.2132 -0.1330  0.2483
82337W        W25431  10.821  21.099   0.940  0.0314  0.2007  0.3970
82338W        W25432  10.437  22.172  31.499  0.0504  0.2681  0.0534
82339W        W25433  12.205  18.165   2.766  0.4445 -0.2567  0.1882
82340W        W25434  10.707  17.951   2.908  0.0122  0.1556  0.1078
82341W        W25435   8.947  20.102   0.917  0.1039 -0.1513  0.0524
82342W        W25436   9.376  19.893   0.693  0.0010 -0.2200  0.0202
82343W        W25437  10.505  20.361   1.986  0.0242  0.0687  0.1296
82344W        W25438  10.858  19.826  30.445 -0.0322 -0.0323 -0.1804
82345W        W25439   7.381  20.826   2.113 -0.1266 -0.0021  0.0255
82346W        W25440   8.548  18.488   1.393 -0.1817 -0.1447  0.1042
82347W        W25441   9.702  19.964   4.029 -0.1727  0.0950  0.2729
82348W        W25442   7.145  20.582   0.913 -0.0304  0.0769  0.0693
82349W        W25443   6.597  20.652   0.834  0.0766 -0.1155 -0.0905
82350W        W25444   7.368  20.135   0.931 -0.1687  0.1402  0.1390
82351W        W25445   7.701  18.795   2.678 -0.1442 -0.3251  0.0871
82352W        W25446   7.500  21.230   2.933  0.0495 -0.0044 -0.1398
82353W        W25447  11.525  19.815   0.924 -0.1381  0.0040 -0.0540
82354W        W25448   8.440  19.229   3.857 -0.3112  0.1068  0.0640
82355W        W25449  11.132  18.522   2.589  0.0232  0.3500  0.1067
82356W        W25450   6.932  19.839   2.104 -0.1420  0.4576  0.0313
82357W        W25451  11.535  21.696   0.572 -0.2737  0.1103 -0.1733
82358W        W25452  11.877  19.665  31.156  0.1532  0.3513 -0.2927
82359W        W25453   9.491  20.463  31.739 -0.2889  0.0645 -0.1708
82360W        W25454   7.616  19.633   3.140 -0.0639  0.3885 -0.0812
82361W        W25455  10.084  17.939   0.669 -0.0150  0.4315 -0.2097
82362W        W25456   8.405  17.659   1.630  0.0801  0.2692 -0.0080
82363W        W25457   8.189  19.490   1.317  0.3241 -0.2234 -0.0108
82364W        W25458  10.642  20.587   4.197  0.1242 -0.0399  0.0728
82365W        W25459   7.634  18.394  31.890  0.0462  0.1653  0.0594
82366W        W25460   9.694  20.647   1.499  0.1694 -0.0611  0.2085
82367W        W25461   8.849  19.687   0.588 -0.0510  0.1577  0.3264
82368W        W25462   6.394  20.420   1.309  0.1601 -0.0642 -0.1119
82369W        W25463  10.836  18.426   3.027 -0.0309 -0.3043  0.1198
82370W        W25464   8.282  21.710  31.690 -0.0588  0.3045  0.0049
82371W        W25465   9.271  20.955   1.437  0.4738 -0.0050 -0.1307
82372W        W25466   8.894  21.012   1.789 -0.1934  0.1475 -0.2788
82373W        W25467   8.524  20.187   3.180  0.0875 -0.0635 -0.0385
82374W        W25468   9.056  19.287   0.223 -0.0290  0.2145  0.0724
82375W        W25469   8.844  22.434   2.807  0.0181  0.1231  0.1353
82376W        W25470   7.812  21.810   1.516  0.1332 -0.0135 -0.1707
82377W        W25471   8.585  19.345   1.769  0.0645  0.2276 -0.0342
82378W        W25472  10.920  21.833   1.481 -0.0474 -0.2815  0.0076
82379W        W25473   8.361  20.603   1.460 -0.2102  0.4792  0.2780
82380W        W25474   7.327  18.580   3.081 -0.0731 -0.0781 -0.0935
82381W        W25475  10.724  19.352   1.673 -0.0020 -0.0853 -0.0519
82382W        W25476  10.018  19.929   1.972  0.2023 -0.3038 -0.3870
82383W        W25477   9.941  19.512   4.107  0.2081  0.3224 -0.1682
82384W        W25478   8.748  18.079  31.100  0.0242 -0.1574 -0.0940
82385W        W25479  10.590  20.828   0.540  0.0955 -0.4090  0.1407
82386W        W25480   7.603  20.446   0.666  0.0791  0.1445  0.3193
82387W        W25481   7.190  20.077   1.365  0.1058  0.0958 -0.0173
82388W        W25482   8.769  21.565  31.889  0.0105  0.2356 -0.3988
82389W        W25483  10.822  19.139   0.210 -0.0408 -0.2987 -0.3632
82390W        W25484   8.186  19.268   3.105  0.3289  0.1822 -0.1560
82391W        W25485   9.599  18.548   2.478  0.2405 -0.0330  0.0134
82392W        W25486   7.076  19.104  31.732 -0.1741  0.0948  0.1164
82393W        W25487   6.092  22.779   3.540 -0.3570  0.1404 -0.1776
82394W        W25488   9.737  17.613   1.893  0.0059 -0.0904  0.3818
82395W        W25489  11.417  19.812  30.726  0.0075  0.1155  0.2609
82396W        W25490   8.941  19.900   3.190  0.0724  0.2178 -0.0337
82397W        W25491  10.206  21.382   1.218  0.1071  0.0014  0.0189
82398W        W25492  10.941  20.544   0.782  0.1553 -0.0784 -0.0634
82399W        W25493   9.659  18.740   1.215 -0.2024  0.0760 -0.1484
82400W        W25494   7.441  20.568   3.549 -0.0809  0.0456 -0.1171
82401W        W25495   8.955  21.155   0.838  0.4228  0.0150  0.1053
82402W        W25496   7.619  21.303   2.075 -0.1822 -0.0163 -0.0395
82403W        W25497   9.640  18.528   1.716 -0.1713  0.2943 -0.0321
82404W        W25498  10.816  21.657   0.126 -0.0505  0.1416  0.1895
82405W        W25499   7.839  20.323   1.187 -0.4740  0.0005  0.1206
82406W        W25500   9.258  20.642   3.764 -0.2420 -0.0291 -0.0265
82407W        W25501  10.872  20.748   1.344 -0.1579  0.2015 -0.2027
82408W        W25502   9.465  17.529   1.479 -0.0043  0.1122  0.4392
82409W        W25503   8.642  20.528  31.980 -0.2721 -0.0304  0.1721
82410W        W25504  10.486  16.829   2.422 -0.3036 -0.0944  0.1591
82411W        W25505   7.753  21.256   0.213 -0.0082 -0.1040  0.1767
82412W        W25506  11.751  18.638   2.674  0.0644 -0.1769 -0.1055
82413W        W25507  11.538  18.327   2.369  0.4383 -0.2338  0.0877
82414W        W25508   7.924  19.296   2.635 -0.0325 -0.0960 -0.1907
82415W        W25509  11.930  18.767   3.552 -0.1070  0.0062  0.3517
82416W        W25510   8.895  20.208   0.367  0.0887  0.3314  0.2590
82417W        W25511   9.263  18.989   2.361  0.0589 -0.0850  0.0351
82418W        W25512   9.612  18.995   2.026 -0.3015 -0.0077 -0.0812
82419W        W25513   9.735  19.025   0.775 -0.0712  0.1809  0.1589
82420W        W25514   7.887  20.861   2.006 -0.2511  0.1373  0.1081
82421W        W25515   7.879  22.691   2.426 -0.0644 -0.4500  0.3254
82422W        W25516   8.990  20.816   2.359 -0.2980 -0.1997  0.0020
82423W        W25517  10.942  20.372   2.364  0.0464 -0.0170 -0.3081
82424W        W25518  11.393  18.384   2.982  0.1632 -0.0313 -0.0106
82425W        W25519  10.335  19.314   0.243  0.1025  0.0043 -0.3225
82426W        W25520   8.424  21.785   1.269 -0.0446  0.0609 -0.0431
82427W        W25521   9.017  20.684  31.622  0.0194 -0.1411  0.0731
82428W        W25522   9.480  18.054   1.626  0.0086 -0.3657 -0.3639
82429W        W25523   8.746  21.516   1.777 -0.2146  0.0688 -0.0905
82430W        W25524   9.200  21.044  31.356  0.1648 -0.1494  0.2089
82431W        W25525   9.644  19.515   3.730  0.1913  0.1076  0.0495
82432W        W25526   8.227  21.582   0.646 -0.3955 -0.1412 -0.2058
82433W        W25527  11.972  17.359   2.556  0.1562 -0.0853 -0.1672
82434W        W25528   7.923  21.131   1.550  0.0429 -0.0883 -0.3689
82435W        W25529   8.857  19.110  31.664 -0.2201  0.0798  0.0966
82436W        W25530   6.923  18.553   0.463 -0.1364 -0.0298  0.0340
82437W        W25531   9.933  17.396   0.318 -0.1642 -0.0500 -0.0417
82438W        W25532  10.394  20.266  31.195  0.2592 -0.1140  0.0055
82439W        W25533   8.493  18.351   1.889 -0.2294  0.3319 -0.0279
82440W        W25534   8.973  18.271   1.776  0.0492 -0.0591  0.1533
82441W        W25535   6.607  21.019   3.885 -0.0406 -0.0744 -0.0996
82442W        W25536   9.328  20.409   2.361  0.1818 -0.2414  0.0357
82443W        W25537   9.834  17.134   2.084  0.3726 -0.0489  0.2832
82444W        W25538   8.366  20.923   1.884 -0.3246 -0.1148 -0.0047
82445W        W25539   8.758  17.979   1.235 -0.1367 -0.0229  0.2026
82446W        W25540   7.463  19.120   0.060 -0.0495 -0.0542  0.0431
82447W        W25541  11.491  19.246   1.882 -0.1460 -0.2724  0.0012
82448W        W25542   9.002  19.694   1.634  0.0656 -0.1236  0.1377
82449W        W25543   7.390  21.479   0.809 -0.0146 -0.1493 -0.0832
82450W        W25544   8.792  20.550   1.975  0.0018 -0.0249  0.0670
82451W        W25545   7.501  19.454   0.444 -0.1887 -0.0022 -0.1136
82452W        W25546   8.657  20.124   1.669 -0.2760 -0.1825  0.2438
82453W        W25547   8.771  18.565   2.292 -0.1453  0.0255 -0.2963
82454W        W25548  10.151  19.700   3.674 -0.0615 -0.2150 -0.0643
82455W        W25549   9.255  17.892   1.170  0.0582 -0.3950  0.2219
82456W        W25550   8.903  18.846   1.178  0.0582 -0.0415  0.0828
82457W        W25551   9.873  19.143   0.219  0.0925  0.0753  0.0884
82458W        W25552  10.375  20.149   0.982 -0.0328 -0.1203  0.1317
82459W        W25553   9.903  19.362   2.789 -0.0634 -0.1163 -0.3432
82460W        W25554   7.945  20.085   4.285 -0.0678 -0.2133  0.1012
82461W        W25555  10.154  18.429   1.649 -0.0072 -0.1573 -0.1111
82462W        W25556  11.853  20.888  31.833 -0.1003  0.0121  0.0516
82463W        W25557  10.088  20.567   3.394 -0.1267 -0.0607 -0.2520
82464W        W25558   7.860  20.802   0.437 -0.3010 -0.3178  0.3286
82465W        W25559   8.067  19.199   1.782  0.0957 -0.0923  0.0056
82466W        W25560   8.548  20.243   1.190  0.1438 -0.0831 -0.2913
82467W        W25561   8.099  18.655   1.649 -0.0581  0.1627  0.1635
82468W        W25562   6.654  20.297   2.179  0.1388 -0.1380  0.3770
82469W        W25563   8.593  20.929   1.085 -0.0389 -0.4251 -0.2320
82470W        W25564   7.496  20.829   2.650  0.0358  0.2211  0.0698
82471W        W25565  11.212  18.017   0.369  0.1982 -0.2637 -0.1068
82472W        W25566  11.057  19.577   0.974  0.0421  0.0132 -0.0173
82473W        W25567   9.097  20.165  31.801  0.2475 -0.0434 -0.1442
82474W        W25568  11.073  17.776   3.778 -0.4521 -0.0484  0.0990
82475W        W25569   9.411  19.385   0.577 -0.2116  0.3025 -0.3513
82476W        W25570  11.595  17.712   2.479 -0.1087  0.0509  0.0302
82477W        W25571   8.161  17.926   2.011 -0.0220  0.2470  0.0277
82478W        W25572  11.753  21.668   0.143 -0.0980 -0.0922 -0.0170
82479W        W25573   5.922  18.125   2.107 -0.2089 -0.0207 -0.0908
82480W        W25574  10.074  22.082   3.267  0.1326  0.0537 -0.1312
82481W        W25575   8.246  19.770   2.377 -0.2969  0.1525 -0.2348
82482W        W25576  10.337  19.519   2.204 -0.0286  0.0982  0.0368
82483W        W25577   7.820  19.493   1.010  0.2208  0.5435 -0.3378
82484W        W25578   9.561  19.896   2.211  0.3445  0.0516  0.1447
82485W        W25579  10.262  20.871   1.363  0.0067  0.2133 -0.1930
82486W        W25580   9.969  20.137   1.507  0.1189 -0.0247 -0.0782
82487W        W25581  11.957  20.723   0.727  0.0556 -0.0505  0.1186
82488W        W25582   7.936  20.007   2.054  0.1220 -0.3595 -0.0532
82489W        W25583  11.268  19.930   0.497 -0.0876  0.2132 -0.0565
82490W        W25584   9.319  20.411   0.868 -0.0394  0.0129  0.1701
82491W        W25585   8.108  20.272   2.452 -0.4202 -0.0993 -0.3997
82492W        W25586   8.369  17.706   2.416 -0.4700 -0.1049 -0.2957
82493W        W25587  10.211  19.350   1.014  0.0496 -0.1274 -0.2256
82494W        W25588   9.941  18.854   1.660 -0.0428 -0.1737  0.3708
82495W        W25589   9.746  18.273   3.008  0.1470 -0.0463  0.0083
82496W        W25590  10.696  19.945   3.313  0.3413  0.0660  0.1226
82497W        W25591   9.394  19.480   2.529  0.0980  0.0740  0.0745
82498W        W25592   7.501  17.648   4.213 -0.4363 -0.1140 -0.2140
82499W        W25593   8.453  21.166   2.771  0.4143 -0.0055 -0.1540
82500W        W25594  12.208  20.471  31.963  0.0431 -0.2212 -0.0211
82501W        W25595  13.139  18.288   1.976 -0.1091 -0.0147  0.1682
82502W        W25596  10.868  20.187  31.448  0.0826  0.0992 -0.1802
82503W        W25597   9.875  18.075   2.067 -0.1727  0.2016 -0.0751
82504W        W25598   7.320  18.331   2.623  0.2912  0.2986 -0.2193
82505W        W25599  10.803  19.924   4.266  0.1984  0.1361  0.1109
82506W        W25600   7.506  20.234  31.036  0.0364 -0.0494  0.1009
82507W        W25601  10.606  19.616   1.256  0.0353  0.1566  0.0457
82508W        W25602   8.513  21.999   0.791  0.0065 -0.1789  0.2291
82509W        W25603  10.133  22.037  31.875  0.1807 -0.1316  0.3673
82510W        W25604   9.149  20.742   0.565 -0.3042 -0.0875  0.1572
82511W        W25605   7.663  18.066   1.919  0.1102 -0.1178 -0.1320
82512W        W25606   7.232  22.669   3.702 -0.1168 -0.1611  0.1725
82513W        W25607  10.595  20.146  30.721  0.1001  0.1376 -0.1268
82514W        W25608   8.893  20.693   1.368 -0.3541 -0.0075 -0.0143
82515W        W25609   8.146  21.546   2.905 -0.0610  0.2234 -0.0760
82516W        W25610   9.801  21.107   1.344  0.2285  0.2447 -0.1407
82517W        W25611   8.448  18.715   0.788  0.1821  0.0140  0.2223
82518W        W25612  10.076  19.196   3.743  0.0475  0.0349 -0.1349
82519W        W25613   7.398  20.579   1.328 -0.2966  0.0296 -0.0401
82520W        W25614   9.419  18.166   2.097  0.2948 -0.0031  0.1062
82521W        W25615   8.128  21.681   4.087 -0.2031 -0.0353 -0.1650
82522W        W25616   6.968  20.451   3.389 -0.2413  0.0240  0.3465
82523W        W25617   7.509  20.997   1.098  0.5065 -0.1981  0.1643
82524W        W25618   9.379  17.904   2.954  0.0368 -0.2507 -0.2151
82525W        W25619   8.990  19.115   0.693  0.4426  0.1534 -0.1220
82526W        W25620   8.062  20.420   3.107  0.1647  0.1796  0.1792
82527W        W25621  11.595  20.368   2.255  0.1269  0.0158 -0.3947
82528W        W25622   8.653  21.581   2.632  0.4085 -0.0836  0.0963
82529W        W25623   9.379  19.491   2.024 -0.1754  0.1511  0.1473
82530W        W25624  10.570  22.637   1.912  0.1623  0.1979 -0.1751
82531W        W25625  10.900  20.186   1.133  0.1735  0.0374  0.2234
82532W        W25626   7.602  20.251   1.678 -0.2501  0.1630 -0.0559
82533W        W25627   6.303  18.170   4.443  0.0132 -0.1436  0.0613
82534W        W25628   9.748  20.881   3.166 -0.0043  0.2994  0.3313
82535W        W25629   9.645  20.360   1.921 -0.0379  0.0946 -0.0604
82536W        W25630   9.500  17.033   0.565  0.0036 -0.3821  0.3042
82537W        W25631   9.383  20.350   0.270  0.1056 -0.0756  0.0512
82538W        W25632   9.176  20.819   3.263  0.1516  0.1440 -0.0876
82539W        W25633   7.872  19.493   2.101  0.1669  0.3559  0.0973
82540W        W25634   7.732  20.540  31.958  0.2610 -0.1099 -0.3868
82541W        W25635  10.359  22.471  31.959 -0.0681 -0.4431  0.1065
82542W        W25636   9.718  20.565   0.572 -0.0288  0.0295  0.1169
82543W        W25637   8.527  21.690   2.150  0.0910 -0.2076  0.1848
82544W        W25638   9.889  19.264  31.705  0.2006 -0.0578 -0.0259
82545W        W25639   6.991  21.752   0.956 -0.1600 -0.0166 -0.2031
82546W        W25640   7.987  22.112  31.956 -0.2204 -0.2631  0.2453
82547W        W25641  10.057  20.831   0.372 -0.0487 -0.0144 -0.0650
82548W        W25642   8.205  22.333   1.054  0.0153  0.0459  0.1493
82549W        W25643  10.417  19.978   2.310  0.0159  0.0247  0.0345
82550W        W25644   9.906  19.578   0.615  0.1091  0.2961 -0.1991
82551W        W25645  10.859  20.256   0.042 -0.1087 -0.1756 -0.0425
82552W        W25646  11.420  20.050   1.834  0.2517  0.1162  0.1580
82553W        W25647  10.182  21.193   3.131  0.2050 -0.0188  0.1212
82554W        W25648   9.378  18.921   1.578 -0.0347 -0.1485 -0.2842
82555W        W25649   8.827  18.666   0.460 -0.0085 -0.1202 -0.1265
82556W        W25650   9.805  20.217   2.924 -0.2171  0.1074  0.3673
82557W        W25651  12.872  17.659   1.838 -0.0656  0.3309  0.4326
82558W        W25652   7.212  22.116   2.768  0.0492 -0.0812  0.2195
82559W        W25653  10.092  22.601  31.588 -0.1664  0.0942  0.1356
82560W        W25654   8.311  19.304   2.210  0.1126  0.0308 -0.0373
82561W        W25655   9.974  20.303   2.388 -0.0571  0.0188 -0.1813
82562W        W25656  12.233  17.834   2.406 -0.1593  0.2999  0.0438
82563W        W25657  10.231  19.681  31.450  0.1127  0.1217 -0.0724
82564W        W25658  10.280  18.961   2.494  0.1636 -0.1286 -0.0850
82565W        W25659   9.398  21.236   0.533 -0.2118  0.0446 -0.0090
82566W        W25660   9.274  21.661   1.957 -0.1158 -0.0692  0.4239
82567W        W25661   9.013  20.400   2.984 -0.1836 -0.1493  0.1842
82568W        W25662   8.340  18.998   1.359  0.2416  0.0042 -0.0665
82569W        W25663  10.157  20.580   1.749 -0.1910 -0.1214  0.3181
82570W        W25664   9.130  19.043   3.133  0.2233  0.0418  0.1709
82571W        W25665  11.868  18.946   3.038 -0.0134  0.1314 -0.0295
82572W        W25666   7.141  19.624   1.549 -0.2185  0.3397  0.3388
82573W        W25667  11.783  20.466   0.234  0.1364 -0.0592 -0.3815
82574W        W25668   8.997  19.491   2.853  0.1699 -0.0561  0.0144
82575W        W25669   7.878  18.928   2.193 -0.1345 -0.3038 -0.2040
82576W        W25670  10.728  20.487  30.477  0.0697 -0.3111 -0.0209
82577W        W25671   9.271  18.413   1.364 -0.0691 -0.0237 -0.3055
82578W        W25672  10.678  19.540  31.247 -0.0642  0.2630 -0.1158
82579W        W25673   9.867  22.866   2.801 -0.2166  0.0433 -0.0028
82580W        W25674   7.723  18.419   2.307  0.1337 -0.0183  0.2329
82581W        W25675  11.322  19.731   1.416 -0.0035 -0.1714  0.0917
82582W        W25676   6.893  19.522   0.669  0.0321 -0.0482  0.1575
82583W        W25677   8.263  18.914   2.552 -0.0441 -0.2400 -0.0841
82584W        W25678  11.694  21.957   2.532  0.0488  0.0790 -0.2168
82585W        W25679   8.163  19.977   1.067  0.0161 -0.0199 -0.2623
82586W        W25680   9.612  22.775  31.602  0.3307 -0.0453 -0.0206
82587W        W25681   8.622  19.306   1.023  0.1179  0.2331 -0.3100
82588W        W25682   9.837  21.966  30.274  0.0727 -0.2466 -0.0787
82589W        W25683  10.863  19.473  31.816 -0.0733 -0.3542 -0.0617
82590W        W25684   9.591  21.766   0.748  0.0745 -0.4157  0.0786
82591W        W25685   8.604  19.123   3.016 -0.1763 -0.0011 -0.1651
82592W        W25686  10.667  20.872   1.788 -0.2212  0.1117 -0.0894
82593W        W25687  10.185  21.287   2.152 -0.3893  0.0202 -0.0515
82594W        W25688   8.388  18.229   0.922 -0.3620 -0.3389 -0.3492
82595W        W25689   9.130  19.593   1.018 -0.2447  0.0870 -0.1707
82596W        W25690   8.914  21.986   1.741  0.1787  0.0237 -0.2047
82597W        W25691  10.727  19.074   2.284  0.0316 -0.1187  0.1545
82598W        W25692  11.168  18.865   2.267  0.1632  0.1943  0.1661
82599W        W25693   8.385  20.758  31.156 -0.0027  0.0584  0.0665
82600W        W25694  10.762  18.088   3.417  0.0873 -0.0185 -0.0708
82601W        W25695   8.347  21.563   3.607 -0.1496 -0.0513 -0.0159
82602W        W25696   8.448  23.083   4.000 -0.0311 -0.2977 -0.0074
82603W        W25697   8.410  20.686  30.651  0.2136 -0.2420  0.0485
82604W        W25698   6.876  20.766   2.217 -0.0163  0.3646 -0.0871
82605W        W25699   9.825  19.155   1.304  0.0818  0.1788 -0.1225
82606W        W25700   9.866  21.341   0.822 -0.2382 -0.3272 -0.2597
82607W        W25701  10.629  21.668   1.026  0.1629  0.0623  0.0847
82608W        W25702  10.255  19.293   1.478  0.1599 -0.0116 -0.1193
82609W        W25703  11.083  21.104  31.547 -0.2899  0.2393 -0.2476
82610W        W25704   9.278  17.873   2.460  0.1746  0.0088 -0.4730
82611W        W25705  10.787  19.030  31.660  0.4590  0.0284 -0.1289
82612W        W25706   9.899  18.525   0.772 -0.1790 -0.3187 -0.0142
82613W        W25707   6.900  20.125   2.612  0.2527  0.0680 -0.0452
82614W        W25708   8.660  19.964  31.960  0.0281  0.0670 -0.2706
82615W        W25709   8.388  19.635   0.741  0.2084  0.1602 -0.1209
82616W        W25710   7.422  21.027   1.616  0.3823  0.1933  0.0148
82617W        W25711   8.822  18.169   3.012 -0.2841  0.2595  0.1534
82618W        W25712   6.994  17.834   4.529  0.0019 -0.0029 -0.2077
82619W        W25713   7.167  19.711   1.014  0.0168  0.1621  0.0078
82620W        W25714   8.864  18.809   1.731 -0.0631 -0.1407  0.0237
82621W        W25715   9.401  22.354  31.743  0.2832 -0.3131 -0.2572
82622W        W25716   8.102  18.127   2.431  0.2690  0.1454  0.2706
82623W        W25717   8.403  18.854   2.036  0.0573 -0.2167  0.3286
82624W        W25718  10.188  18.846   1.190  0.2037 -0.1735 -0.0901
82625W        W25719  10.389  21.210   0.176  0.2257  0.4071 -0.0526
82626W        W25720  11.601  18.278   1.747 -0.0948 -0.0335  0.0353
82627W        W25721  11.329  21.270   0.674  0.0926 -0.3410  0.3708
82628W        W25722   8.212  20.535   0.860 -0.0622  0.1628  0.0964
82629W        W25723  10.461  19.300   2.840 -0.2387  0.1292  0.1005
82630W        W25724   8.859  18.755   2.788  0.0279 -0.1021 -0.0363
82631W        W25725   9.313  18.689   0.795  0.1128 -0.3016 -0.2407
82632W        W25726   9.359  21.318   1.115  0.0757  0.4567  0.1340
82633W        W25727  10.054  22.382  31.029  0.4099 -0.1137 -0.2256
82634W        W25728   8.773  20.328   2.530 -0.1519  0.1212  0.0987
82635W        W25729   7.851  19.871   2.661  0.0480  0.1431  0.0174
82636W        W25730   7.431  18.554   3.600 -0.0283 -0.2871  0.0232
82637W        W25731  10.129  20.839  31.871 -0.2896  0.2927  0.0511
82638W        W25732   8.514  20.601   2.906  0.1411 -0.1826 -0.4210
82639W        W25733  12.344  21.239   0.767  0.0472  0.1294 -0.0731
82640W        W25734  11.317  18.882   2.875 -0.0562 -0.0847  0.1497
82641W        W25735   9.653  19.537   1.039  0.1122 -0.3168 -0.1999
82642W        W25736   7.771  18.355   1.387  0.1283 -0.2091 -0.1349
82643W        W25737  10.281  20.201   3.090  0.2581 -0.2240 -0.1031
82644W        W25738   9.560  20.606   2.765 -0.0907  0.3116  0.0812
82645W        W25739   9.135  17.825   0.663 -0.2042  0.1535 -0.3406
82646W        W25740   9.418  18.935  31.605  0.3673 -0.2613 -0.2826
82647W        W25741   9.858  21.923   0.364  0.2869  0.1623 -0.2057
82648W        W25742   7.198  18.279   2.124 -0.1087 -0.0796  0.2083
82649W        W25743   8.856  18.401   0.905  0.3671  0.2530  0.0204
82650W        W25744  11.165  18.420   3.438  0.0295  0.3089  0.1295
82651W        W25745   8.460  20.702   2.363  0.0075  0.0973 -0.1616
82652W        W25746  10.567  20.357   1.486 -0.0393  0.1743 -0.2792
82653W        W25747   9.803  18.224   1.311 -0.1483  0.3603 -0.0820
82654W        W25748  10.407  19.320  31.693  0.0356 -0.0091 -0.0872
82655W        W25749  10.477  21.585   2.408  0.0801  0.2284  0.2778
82656W        W25750  10.116  22.542   4.020  0.0263 -0.3728 -0.1760
82657W        W25751   8.837  21.464   3.719  0.1606 -0.1882  0.0472
82658W        W25752  11.274  21.907   0.160 -0.1098  0.0323  0.0906
82659W        W25753   7.780  18.228   2.829  0.3698  0.4052 -0.0698
82660W        W25754   9.234  20.285   1.509 -0.0541  0.3885 -0.2733
82661W        W25755   8.003  20.227   0.456 -0.1998  0.2835 -0.2703
82662W        W25756   9.966  18.636   2.114 -0.0160 -0.0802 -0.0356
82663W        W25757   7.405  18.081   1.127  0.0146  0.2235 -0.0520
82664W        W25758  10.272  17.253   1.886 -0.2387  0.1208  0.0763
82665W        W25759   8.162  22.838   4.283  0.1080  0.0231 -0.0791
82666W        W25760   9.913  19.336   2.271 -0.0417  0.0981  0.0917
82667W        W25761   7.802  20.744   5.906  0.1480  0.2137 -0.4784
82668W        W25762   9.117  19.197   4.028 -0.1398 -0.4685  0.0125
82669W        W25763  11.678  18.319   3.599 -0.2505  0.1378 -0.1270
82670W        W25764  11.506  18.607   4.395 -0.0691 -0.1324  0.0515
82671W        W25765   8.015  18.540   4.936 -0.2623 -0.2140 -0.0363
82672W        W25766  10.750  22.764   3.785 -0.2688  0.0701 -0.1769
82673W        W25767   9.122  18.346   5.972  0.2869  0.4475  0.2183
82674W        W25768   9.897  22.563   5.355  0.0798 -0.0363  0.1723
82675W        W25769  11.363  19.643   5.758  0.0979 -0.0571  0.0233
82676W        W25770   9.043  21.331   3.286  0.0377 -0.1935 -0.1682
82677W        W25771   9.815  19.375   5.146 -0.0854  0.0180 -0.1446
82678W        W25772   9.005  22.042   6.111  0.0796  0.1181  0.0752
82679W        W25773   7.592  19.571   4.080 -0.1617 -0.4544 -0.0295
82680W        W25774   7.546  17.156   5.637 -0.3549 -0.0103 -0.2652
82681W        W25775  10.009  20.817   5.473  0.1315  0.2335 -0.1259
82682W        W25776   7.738  19.834   3.609  0.0478 -0.2210 -0.2822
82683W        W25777   8.353  19.229   5.772 -0.0899 -0.0492 -0.1272
82684W        W25778   8.793  18.794   3.866  0.0520 -0.0795 -0.0258
82685W        W25779   9.134  21.618   4.260  0.0290 -0.0009 -0.1595
82686W        W25780   8.996  18.151   7.364 -0.0867 -0.0173  0.1868
82687W        W25781   9.833  18.831   7.086 -0.0317  0.0547  0.3485
82688W        W25782  10.187  21.452   3.991  0.3328 -0.3393  0.0402
82689W        W25783   9.729  18.042   2.593  0.1956  0.0107 -0.0182
82690W        W25784   7.877  19.307   5.638 -0.0586 -0.0091  0.2243
82691W        W25785   9.174  19.980   5.090 -0.2225 -0.1738  0.3332
82692W        W25786  10.095  19.434   5.600  0.1179 -0.1494 -0.1811
82693W        W25787  11.202  19.073   4.108 -0.0057  0.0874 -0.0292
82694W        W25788   9.873  21.298   5.312  0.0048 -0.0776  0.0363
82695W        W25789   9.563  20.286   5.200  0.1053  0.0071  0.2611
82696W        W25790  10.134  19.324   6.702 -0.3486  0.2191  0.1802
82697W        W25791   6.466  19.741   5.730 -0.3431  0.1277 -0.0517
82698W        W25792   7.175  23.171   4.489 -0.1674 -0.0678 -0.2408
82699W        W25793   9.623  22.928   4.086 -0.0223 -0.0543 -0.0887
82700W        W25794  10.953  20.099   3.795  0.1461  0.0326  0.0081
82701W        W25795  11.300  21.374   5.805  0.2013 -0.1393  0.1904
82702W        W25796   8.434  23.654   5.788  0.0813 -0.2259  0.3316
82703W        W25797   7.923  21.601   4.635 -0.1223  0.1282  0.0266
82704W        W25798   9.047  21.680   7.076  0.0816  0.2335  0.1219
82705W        W25799   8.516  21.981   6.499  0.1515 -0.2244  0.0243
82706W        W25800   9.227  20.180   5.604 -0.1038 -0.1389 -0.1326
82707W        W25801  11.071  21.688   4.776  0.1153 -0.1404 -0.2327
82708W        W25802   8.540  20.772   4.277  0.1655  0.2435  0.0334
82709W        W25803   9.539  21.585   4.910  0.0568 -0.1170  0.2521
82710W        W25804   9.050  19.311   7.273  0.2683 -0.2837 -0.1634
82711W        W25805   8.992  21.547   4.792 -0.0666 -0.1858 -0.4580
82712W        W25806  11.520  18.699   7.437 -0.0076 -0.0824 -0.1160
82713W        W25807   9.724  22.392   4.347  0.3523 -0.4199  0.0224
82714W        W25808  11.316  19.677   3.547  0.1064 -0.2241 -0.1775
82715W        W25809   9.373  18.622   2.938 -0.1571 -0.2555 -0.0197
82716W        W25810   9.928  18.769   2.833 -0.0572  0.1472 -0.0433
82717W        W25811   9.490  19.042   3.712  0.0823  0.0204 -0.0040
82718W        W25812   8.871  21.155   4.459  0.0810 -0.0317 -0.3210
82719W        W25813   8.520  18.046   6.810 -0.1512  0.0578 -0.0791
82720W        W25814  10.652  20.541   5.677  0.0711 -0.0905  0.1330
82721W        W25815   9.859  20.066   3.483 -0.0050  0.3455 -0.3211
82722W        W25816   9.495  18.600   6.270 -0.0953 -0.0932  0.0427
82723W        W25817   9.669  19.866   5.517  0.1385 -0.0050 -0.0233
82724W        W25818   8.458  18.517   5.750  0.2518 -0.2900 -0.1352
82725W        W25819  11.788  20.979   2.441  0.0618  0.2518 -0.0562
82726W        W25820  11.071  19.536   4.196  0.0941  0.1245  0.3369
82727W        W25821   8.959  20.991   2.823 -0.2236 -0.0903 -0.0045
82728W        W25822   7.788  19.040   5.022  0.1183 -0.0175  0.1509
82729W        W25823   7.135  20.884   5.814 -0.0794 -0.1532  0.0403
82730W        W25824   8.796  18.771   5.973 -0.2189 -0.0805 -0.0045
82731W        W25825   8.188  19.688   3.815  0.1355 -0.0992  0.0050
82732W        W25826  10.099  21.275   6.746 -0.1353  0.3225  0.2095
82733W        W25827  10.947  19.151   4.541 -0.0677 -0.2055  0.0684
82734W        W25828   8.412  20.357   4.863 -0.0435  0.2064  0.1849
82735W        W25829  11.209  22.698   4.965  0.0734  0.5174  0.2314
82736W        W25830  10.472  19.798   2.814  0.5087 -0.0107 -0.1201
82737W        W25831   9.662  18.437   4.819  0.1825  0.0245  0.1417
82738W        W25832  10.929  17.703   6.509  0.0789  0.1370 -0.2723
82739W        W25833   8.054  20.771   2.753 -0.0055 -0.2349  0.1710
82740W        W25834   8.871  19.623   4.806  0.0856  0.0735  0.0905
82741W        W25835  11.406  21.433   4.497  0.1704 -0.1865  0.1712
82742W        W25836   9.681  20.250   4.729 -0.4564  0.2140 -0.2355
82743W        W25837   9.149  22.736   5.342 -0.2018  0.3100 -0.1011
82744W        W25838   9.725  19.923   7.074  0.0602 -0.4392  0.2103
82745W        W25839  10.012  21.191   5.782  0.0607  0.1153  0.4300
82746W        W25840   7.603  22.171   3.426  0.0949 -0.0471  0.0672
82747W        W25841   7.624  19.494   5.277 -0.2022  0.0254 -0.1299
82748W        W25842   7.525  19.237   2.392  0.1214  0.0152 -0.1498
82749W        W25843   7.750  17.879   6.143 -0.0573  0.0235 -0.0269
82750W        W25844   8.229  20.940   6.117  0.1388 -0.0291  0.3100
82751W        W25845   9.639  18.495   5.784  0.0893  0.2346  0.0486
82752W        W25846   6.790  17.628   6.978  0.3787  0.1251  0.1434
82753W        W25847   8.650  19.367   4.300 -0.0866  0.1609 -0.0307
82754W        W25848   8.799  19.856   5.622  0.0141 -0.2097  0.1180
82755W        W25849  10.703  22.285   3.016 -0.1433  0.0426 -0.0709
82756W        W25850  10.329  18.842   4.022 -0.1478  0.1371  0.2161
82757W        W25851   9.817  21.653   3.094  0.1045  0.2517 -0.1334
82758W        W25852   8.653  19.947   5.136 -0.1206 -0.3999 -0.1321
82759W        W25853   8.953  20.196   4.010  0.0915 -0.0013 -0.3073
82760W        W25854   7.795  18.703   7.790  0.0596  0.1258 -0.0510
82761W        W25855   7.598  19.170   6.005 -0.0331  0.2491  0.2490
82762W        W25856  10.392  20.350   6.733  0.2131  0.4287  0.0253
82763W        W25857   8.054  17.879   3.447 -0.1738 -0.0068  0.0402
82764W        W25858  10.545  19.414   5.947 -0.1465  0.0302 -0.2547
82765W        W25859   8.604  19.963   3.664  0.0476 -0.0158  0.0863
82766W        W25860   7.208  19.377   3.913 -0.1663  0.0563  0.4924
82767W        W25861   9.825  19.318   7.609  0.1556 -0.1328  0.1873
82768W        W25862   9.762  22.667   3.621  0.2784  0.0442 -0.1176
82769W        W25863  10.400  22.146   5.428 -0.2322 -0.0917 -0.2205
82770W        W25864  11.088  19.688   5.288 -0.2680 -0.0953 -0.2094
82771W        W25865   7.833  18.086   6.612 -0.0217  0.0623  0.1687
82772W        W25866   8.895  19.552   3.757  0.2274  0.0314 -0.0984
82773W        W25867   8.690  22.539   5.326 -0.3711 -0.1021  0.2693
82774W        W25868  10.287  21.647   5.438  0.2026  0.1461 -0.0796
82775W        W25869   8.359  18.286   3.367 -0.1520 -0.0683  0.1810
82776W        W25870  10.647  21.484   3.912  0.3862  0.1438  0.3424
82777W        W25871  11.184  20.078   3.277  0.0934  0.0758 -0.1811
82778W        W25872   8.412  20.795   6.547 -0.2087 -0.0308  0.0215
82779W        W25873   9.036  18.359   6.682 -0.1583 -0.0113 -0.1889
82780W        W25874  10.772  18.962   6.084  0.0964  0.3238  0.4983
82781W        W25875   9.254  20.507   4.850 -0.3156 -0.0829  0.1562
82782W        W25876   7.170  17.639   3.429 -0.0438 -0.2130 -0.0108
82783W        W25877  11.101  22.520   2.632  0.0403  0.3216  0.1597
82784W        W25878   8.941  22.570   4.896  0.0907  0.0229 -0.1336
82785W        W25879   7.442  20.339   4.201  0.1291  0.0753  0.2735
82786W        W25880   9.434  20.295   4.319  0.3100 -0.1691 -0.0138
82787W        W25881  10.270  19.203   5.218  0.0479  0.0121  0.0612
82788W        W25882   8.664  20.933   7.510  0.0440 -0.0642 -0.1008
82789W        W25883  10.058  18.926   5.716 -0.2069  0.0866 -0.2170
82790W        W25884   6.623  18.599   4.924 -0.1195  0.0833 -0.2045
82791W        W25885   8.379  21.390   5.416 -0.2138  0.1954 -0.1701
82792W        W25886   9.670  17.924   4.585 -0.0434  0.3257  0.0426
82793W        W25887  10.694  19.551   4.608 -0.3928 -0.4194 -0.3345
82794W        W25888   9.627  20.502   5.645  0.0613  0.0442 -0.0069
82795W        W25889   9.510  21.303   3.373 -0.4111  0.0760  0.2188
82796W        W25890  10.294  17.866   3.249 -0.2010 -0.2279  0.1826
82797W        W25891   8.711  17.830   2.031  0.0274 -0.2674 -0.0863
82798W        W25892   8.755  21.091   6.758 -0.3519 -0.3600  0.0092
82799W        W25893   9.412  22.456   3.928  0.2198  0.0531 -0.0638
82800W        W25894   9.360  21.718   5.375 -0.3912  0.1905  0.0217
82801W        W25895   9.092  19.322   4.523  0.1035  0.0328  0.2415
82802W        W25896  10.455  21.907   3.750  0.1461 -0.2917 -0.4774
82803W        W25897   8.910  21.002   5.291  0.0086  0.2087 -0.0366
82804W        W25898   9.747  21.332   6.190  0.1370  0.2159  0.4526
82805W        W25899  10.744  21.854   3.266 -0.1819 -0.1207 -0.1296
82806W        W25900   9.764  18.135   6.157 -0.2306 -0.4894  0.1235
82807W        W25901  10.308  20.101   4.406 -0.0918  0.1512 -0.1357
82808W        W25902   9.047  18.859   4.404  0.0427  0.1723  0.3597
82809W        W25903   7.679  20.402   2.129  0.1584 -0.1026  0.0359
82810W        W25904  10.484  18.629   5.822  0.1706  0.1079  0.1881
82811W        W25905  10.163  18.256   5.655 -0.1848 -0.1815 -0.0082
82812W        W25906   9.133  19.738   5.915  0.2949 -0.3333  0.1779
82813W        W25907  10.806  20.634   6.523 -0.2324  0.3223 -0.0363
82814W        W25908  10.752  18.840   2.738  0.0030 -0.2478 -0.1154
82815W        W25909  10.725  19.287   5.208 -0.1644 -0.1537  0.1392
82816W        W25910   7.939  20.753   3.637  0.1747 -0.0808  0.0490
82817W        W25911  10.057  19.585   6.277 -0.0588  0.0626 -0.2925
82818W        W25912   8.685  21.158   4.917  0.2584 -0.1176 -0.1222
82819W        W25913   8.293  22.359   5.595  0.0630 -0.0823  0.0057
82820W        W25914  10.924  21.962   6.170  0.0249  0.3919  0.1174
82821W        W25915  11.042  20.354   5.176  0.2346 -0.0253  0.1527
82822W        W25916  10.363  19.150   8.310 -0.0672 -0.0180  0.0713
82823W        W25917   9.245  18.618   4.004  0.1233 -0.1806  0.7699
82824W        W25918   7.991  22.321   3.827 -0.0715 -0.3865 -0.2107
82825W        W25919   9.742  20.967   3.644 -0.4750  0.1599 -0.1004
82826W        W25920   7.610  17.155   4.194  0.3488  0.1464  0.0825
82827W        W25921   9.509  22.185   5.330  0.1820 -0.0765  0.1271
82828W        W25922   8.857  22.466   3.880 -0.1986 -0.1346 -0.2811
82829W        W25923  10.595  21.446   5.825 -0.1734 -0.0812 -0.1795
82830W        W25924   8.586  21.508   4.217 -0.0793  0.2167 -0.1566
82831W        W25925  10.492  17.805   5.561  0.1613  0.3301 -0.0285
82832W        W25926   7.653  22.682   4.079 -0.2050 -0.1745 -0.0869
82833W        W25927   9.524  19.054   2.774 -0.1301 -0.1553  0.1406
82834W        W25928   5.616  19.656   4.714 -0.0649 -0.0778 -0.2212
82835W        W25929   8.414  19.374   4.767 -0.1864 -0.0084  0.0002
82836W        W25930  10.247  21.110   3.630  0.1727 -0.2026 -0.1286
82837W        W25931   8.701  19.579   6.055  0.0342  0.1812  0.1750
82838W        W25932   9.438  18.958   4.845  0.2511 -0.1115  0.0494
82839W        W25933   8.096  21.147   5.016  0.0305 -0.0574  0.0920
82840W        W25934  10.669  20.986   6.179 -0.0340 -0.1111  0.4368
82841W        W25935   9.943  17.693   4.247 -0.1018 -0.1147 -0.2648
82842W        W25936   9.711  21.118   4.870 -0.3846 -0.2497  0.0774
82843W        W25937   9.875  20.462   6.779  0.2780 -0.0335 -0.1533
82844W        W25938   8.257  19.247   5.239 -0.2426  0.3058 -0.1117
82845W        W25939  10.350  18.944   6.982  0.5248  0.0340 -0.0005
82846W        W25940   7.135  17.540   4.973  0.1071  0.3096 -0.1911
82847W        W25941   8.292  19.853   4.683 -0.0662 -0.2981  0.3611
82848W        W25942  10.108  21.952   4.251 -0.0309  0.0837  0.1114
82849W        W25943   8.800  20.785   3.835 -0.1213  0.1124  0.3043
82850W        W25944   8.887  20.414   3.509  0.1021 -0.2637  0.0228
82851W        W25945   8.216  18.441   6.591 -0.2483 -0.1984 -0.3612
82852W        W25946  10.186  20.153   4.952 -0.2492  0.1823  0.0993
82853W        W25947   8.552  18.863   4.386 -0.0871 -0.0167  0.1202
82854W        W25948   8.082  17.405   5.556 -0.0214  0.0294 -0.0988
82855W        W25949   9.439  19.553   4.227  0.3084 -0.2118  0.1484
82856W        W25950   9.347  21.250   5.247  0.0045 -0.3167 -0.0645
82857W        W25951   9.171  18.845   7.415  0.1972  0.0040  0.2042
82858W        W25952   9.006  21.231   5.786  0.1022  0.1101  0.1566
82859W        W25953   9.258  18.357   4.461 -0.1288 -0.0941  0.0633
82860W        W25954  11.079  22.531   4.091 -0.1492  0.4161  0.0152
82861W        W25955  11.118  21.286   7.191  0.0311  0.1568  0.0525
82862W        W25956   8.184  20.197   5.362 -0.0142  0.0011  0.2451
82863W        W25957   8.436  20.839   5.225  0.2114  0.0130 -0.3727
82864W        W25958   8.345  21.356   4.594  0.1673  0.1320 -0.0893
82865W        W25959   8.353  19.675   5.581 -0.2602  0.0235  0.1337
82866W        W25960   7.909  20.774   6.474  0.2418  0.1166 -0.0751
82867W        W25961   7.916  20.639   5.077  0.0982 -0.0896 -0.3660
82868W        W25962   8.608  21.995   5.434 -0.0911 -0.0381 -0.0112
82869W        W25963   9.641  17.795   3.869  0.0583  0.2764 -0.1601
82870W        W25964  10.180  20.648   3.887  0.1418  0.4041  0.0310
82871W        W25965   8.786  19.095   4.874  0.2616  0.0918 -0.0696
82872W        W25966  10.247  19.997   6.455 -0.0972 -0.1293  0.0928
82873W        W25967  10.171  18.897   3.324  0.0459 -0.1265  0.0404
82874W        W25968   9.786  19.187   6.055 -0.1678 -0.1390 -0.0889
82875W        W25969   8.537  17.715   4.880 -0.1385 -0.0590 -0.1802
82876W        W25970  10.551  20.594   5.096 -0.1818 -0.2389  0.1965
82877W        W25971   8.290  19.730   6.869  0.2796 -0.2376 -0.1643
82878W        W25972   8.682  22.717   6.823  0.0006  0.2844 -0.0420
82879W        W25973   8.931  18.588   7.107 -0.1056  0.1479  0.0840
82880W        W25974   9.918  18.930   4.864 -0.2406 -0.3603 -0.2128
82881W        W25975   7.453  17.499   2.188  0.0478 -0.1726  0.1494
82882W        W25976   8.948  20.210   5.998  0.1257 -0.0303 -0.1679
82883W        W25977  10.898  21.390   5.316 -0.2315 -0.4500  0.1220
82884W        W25978   9.884  21.505   4.395  0.0874  0.1517 -0.0247
82885W        W25979   9.789  19.844   4.513 -0.1173  0.2548 -0.3540
82886W        W25980   8.616  21.872   4.949  0.0056 -0.1057  0.1059
82887W        W25981  10.673  20.268   4.648 -0.1303  0.1119 -0.1400
82888W        W25982   8.165  20.137   3.529 -0.2751  0.3378 -0.3672
82889W        W25983   9.104  20.663   4.271  0.2048 -0.0622  0.3453
82890W        W25984   8.630  18.799   6.807  0.1216 -0.0295  0.1317
82891W        W25985  12.792  19.963   4.878  0.1491 -0.0831  0.2198
82892W        W25986  10.279  18.676   5.369  0.2616  0.0549 -0.0981
82893W        W25987  11.065  19.062   7.120  0.0700  0.0577  0.0030
82894W        W25988  10.211  19.609   4.794  0.0086  0.1654 -0.0594
82895W        W25989   9.166  19.201   6.771  0.3147 -0.0602  0.0451
82896W        W25990   8.459  17.411   7.736 -0.2899 -0.2166  0.2769
82897W        W25991  11.167  21.147   4.838  0.2315 -0.0063 -0.1858
82898W        W25992  10.993  18.917   3.255  0.1095 -0.0299 -0.1875
82899W        W25993  10.615  19.467   6.982 -0.1430 -0.2392 -0.0584
82900W        W25994   9.750  19.294   4.599 -0.1813  0.3376 -0.1740
82901W        W25995   9.820  19.058   4.178  0.0772  0.1066 -0.1252
82902W        W25996   7.527  19.155   6.522  0.0151  0.0513  0.2408
82903W        W25997   9.618  21.418   6.662  0.0053 -0.0338 -0.1152
82904W        W25998   8.875  17.778   3.996  0.4199  0.4937 -0.2013
82905W        W25999   9.207  18.755   9.042  0.0279  0.0886  0.1374
82906W        W26000   9.179  21.186   3.994 -0.0314  0.0177  0.0845
82907W        W26001  10.234  20.593   4.706 -0.0880 -0.2830 -0.2270
82908W        W26002   8.951  19.735   4.249  0.1954 -0.2768 -0.3116
82909W        W26003   7.469  20.009   5.838 -0.1032 -0.0492 -0.1098
82910W        W26004   8.068  21.377   8.136  0.2210  0.1110 -0.3570
82911W        W26005   7.335  19.937   2.807 -0.3463  0.0565 -0.0159
82912W        W26006   7.983  21.185   4.277  0.0866 -0.0068  0.1005
82913W        W26007  11.492  20.668   5.140 -0.1231  0.0812 -0.5282
82914W        W26008   9.994  19.792   7.456  0.0758  0.2707 -0.2742
82915W        W26009   8.775  18.305   4.193 -0.0739  0.0840 -0.0596
82916W        W26010  10.579  19.116   6.498  0.3020 -0.0446 -0.0623
82917W        W26011   8.318  20.356   4.401  0.2557  0.0453  0.0854
82918W        W26012   9.548  17.535   5.443  0.1432 -0.0225 -0.1868
82919W        W26013   8.771  22.352   7.676  0.3112  0.2218  0.0780
82920W        W26014   9.252  21.186   6.216  0.1827  0.1653 -0.0550
82921W        W26015   9.650  20.746   4.522 -0.2453  0.3890  0.0488
82922W        W26016  10.444  18.983   4.798  0.0443  0.2287 -0.2888
82923W        W26017   9.360  19.491   4.943 -0.1711  0.0831 -0.4402
82924W        W26018   9.725  19.834   5.020  0.2079 -0.2142  0.0033
82925W        W26019  10.184  19.785   6.969 -0.2596 -0.0880  0.1554
82926W        W26020  11.434  21.654   5.388  0.1248 -0.1531  0.3377
82927W        W26021   9.309  20.706   5.271 -0.2927 -0.0258 -0.1766
82928W        W26022  10.846  21.454   4.420 -0.0065  0.1552 -0.1840
82929W        W26023  11.070  20.576   3.833 -0.0113  0.0927  0.0971
82930W        W26024   9.482  21.431   5.802 -0.3071 -0.2099  0.1793
82931W        W26025   7.322  18.834   7.531 -0.1678  0.1584  0.1236
82932W        W26026  10.265  20.215   7.847 -0.0274  0.4283  0.0860
82933W        W26027   9.107  20.681   5.768  0.2081  0.0934  0.1211
82934W        W26028   8.936  17.399   4.298  0.0367 -0.1418  0.1865
82935W        W26029   9.407  20.986   2.500  0.5192  0.1957  0.0645
82936W        W26030   8.592  21.583   6.831 -0.4704  0.1042 -0.0858
82937W        W26031   8.007  19.950   6.480  0.1043 -0.0122  0.2811
82938W        W26032   8.443  22.505   4.822 -0.3287 -0.0492  0.0101
82939W        W26033  10.461  20.134   3.929 -0.1365 -0.1030 -0.1029
82940W        W26034   9.505  20.447   3.294  0.2339  0.6555 -0.2514
82941W        W26035   9.901  22.560   6.502  0.1983  0.0672  0.0730
82942W        W26036   8.114  19.478   4.278 -0.1926  0.0274 -0.2698
82943W        W26037   8.785  20.688   4.690  0.1619  0.1637 -0.1908
82944W        W26038   8.060  22.344   5.147 -0.2097 -0.2502  0.0256
82945W        W26039   9.298  21.737   3.207  0.1473  0.0877  0.0911
82946W        W26040   7.463  22.386   4.421  0.0069 -0.1911 -0.0802
82947W        W26041  10.867  21.028   5.679 -0.0285  0.1953  0.0266
82948W        W26042  11.153  19.356   2.276  0.1538 -0.1595 -0.0817
82949W        W26043   9.277  19.906   4.575  0.3046  0.3123 -0.0287
82950W        W26044  11.047  19.917   4.827  0.1658  0.0570  0.0324
82951W        W26045   9.135  22.076   7.420  0.0251  0.1311 -0.2527
82952W        W26046   9.295  19.059   6.076  0.1769 -0.2315 -0.2311
82953W        W26047   9.239  18.640   2.020  0.0676 -0.3726  0.0558
82954W        W26048   9.222  19.621   5.424 -0.0472  0.1175  0.1572
82955W        W26049  11.836  18.674   7.077 -0.0837 -0.0351  0.0500
82956W        W26050   7.409  21.687   6.420  0.2116  0.4244 -0.0862
82957W        W26051  11.436  21.584   2.633  0.1134 -0.0653 -0.0295
82958W        W26052   8.156  18.806   5.449 -0.0304 -0.1218  0.1310
82959W        W26053   7.559  18.880   3.964  0.0441  0.0898  0.0068
82960W        W26054   9.652  18.892   5.357  0.2498  0.1416  0.0073
82961W        W26055   9.444  21.184   4.467  0.0108  0.0759 -0.0070
82962W        W26056   9.547  18.290   3.620  0.1816  0.0810  0.3542
82963W        W26057   7.712  23.340   5.267 -0.0840 -0.4781 -0.0731
82964W        W26058   9.013  21.764   5.736 -0.0106 -0.0852  0.3434
82965W        W26059   9.561  20.962   5.603 -0.0125  0.0506 -0.0948
82966W        W26060   8.090  18.974   4.592 -0.1475  0.2728 -0.0578
82967W        W26061  10.498  19.081   5.629  0.0731 -0.0626  0.6336
82968W        W26062   9.284  19.740   6.881  0.1867 -0.1163 -0.3383
82969W        W26063  10.729  18.057   5.926 -0.2601 -0.1383  0.0684
82970W        W26064   8.679  18.875   5.419 -0.0941 -0.1324  0.0658
82971W        W26065  10.254  19.221   4.387  0.2436 -0.3760  0.2733
82972W        W26066   9.823  20.701   5.036 -0.1527  0.2435  0.5040
82973W        W26067   9.599  19.677   6.038  0.2545 -0.2259 -0.1302
82974W        W26068  10.118  18.055   3.846  0.3788 -0.0099 -0.0315
82975W        W26069  10.611  20.347   7.412 -0.0618 -0.0383 -0.1747
82976W        W26070  10.127  19.666   3.152  0.3566 -0.1801  0.0970
82977W        W26071  10.386  22.364   6.192  0.1176 -0.2820 -0.0270
82978W        W26072   8.746  19.156   6.367  0.1254  0.0632  0.0145
82979W        W26073   9.868  18.703   3.751  0.0419 -0.1512  0.1746
82980W        W26074   9.163  19.152   5.303  0.0200 -0.2596  0.2275
82981W        W26075   9.543  19.323   5.617  0.3728 -0.1582 -0.3017
82982W        W26076  10.348  22.712   7.115 -0.0124 -0.0341  0.0531
82983W        W26077   7.404  19.527   5.736 -0.2376 -0.2891 -0.2617
82984W        W26078  10.691  21.253   3.349 -0.0193  0.4481  0.0592
82985W        W26079  10.174  19.798   5.245 -0.2781 -0.1074 -0.5345
82986W        W26080   8.590  21.006   3.241  0.0914 -0.2580 -0.0585
82987W        W26081  10.618  20.928   4.706 -0.0488 -0.0994 -0.1779
82988W        W26082   9.913  21.669   5.764  0.0399  0.1682 -0.0206
82989W        W26083   7.851  19.813   5.571  0.3924 -0.0896  0.0710
82990W        W26084  10.083  21.502   4.896  0.2740  0.0382  0.3647
82991W        W26085  10.511  19.914   6.017 -0.1276  0.0226 -0.0058
82992W        W26086   9.687  18.751   3.269  0.1199  0.0389  0.0144
82993W        W26087   8.938  19.284   5.759  0.2150 -0.0678  0.2695
82994W        W26088   7.839  20.567   4.490 -0.5246  0.1031  0.2417
82995W        W26089  10.779  18.798   6.801  0.3067  0.0497  0.1611
82996W        W26090  10.302  19.376   7.688 -0.0389 -0.1282  0.0762
82997W        W26091   9.302  21.656   3.702  0.1078  0.0163 -0.5312
82998W        W26092   9.903  18.911   6.517  0.0894 -0.2380  0.2381
82999W        W26093  10.260  20.773   6.611 -0.0334 -0.1953  0.0161
83000W        W26094   8.918  21.622   7.614  0.0388 -0.0203  0.1134
83001W        W26095   8.599  19.554   3.276  0.2065  0.0728 -0.0269
83002W        W26096  10.000  20.033   6.028 -0.1603  0.0193 -0.0111
83003W        W26097   9.422  20.016   3.682  0.1143  0.2168 -0.0282
83004W        W26098   8.856  20.463   5.154  0.2784  0.3373  0.1908
83005W        W26099  11.432  20.792   4.498  0.2212  0.2328 -0.1362
83006W        W26100  10.235  18.494   4.890  0.0292  0.0884 -0.0159
83007W        W26101  11.332  20.130   5.515  0.0059 -0.1002 -0.0581
83008W        W26102   8.505  17.714   5.423 -0.0252  0.0837  0.1945
83009W        W26103  10.808  18.737   5.389 -0.1801 -0.1657  0.2682
83010W        W26104   9.538  18.749   4.442 -0.3374 -0.1801 -0.0476
83011W        W26105  10.458  21.058   5.486 -0.1804  0.0063 -0.0562
83012W        W26106   7.187  19.322   6.195  0.2977  0.0497 -0.1352
83013W        W26107   9.167  22.470   4.434  0.0544 -0.0477 -0.0879
83014W        W26108   7.763  19.548   4.693  0.0917 -0.3619 -0.5866
83015W        W26109  10.111  18.938   7.494 -0.0684  0.0564 -0.2191
83016W        W26110   8.405  19.228   6.739  0.0135  0.4344  0.0477
83017W        W26111   8.070  19.709   5.143 -0.1899  0.0496 -0.0476
83018W        W26112   6.990  18.321   4.640 -0.1920  0.1411 -0.0554
83019W        W26113   9.636  21.349   3.982  0.0289 -0.0581  0.0271
83020W        W26114   8.800  17.507   5.913 -0.2372  0.0503 -0.0270
83021W        W26115   7.364  18.379   5.619  0.0805 -0.0209  0.3194
83022W        W26116  10.306  21.636   3.382 -0.3176  0.0655  0.0092
83023W        W26117  11.036  20.665   4.739  0.1079  0.0830 -0.1121
83024W        W26118   9.178  18.699   5.600  0.0840  0.2305 -0.0453
83025W        W26119  11.223  21.321   6.668  0.2756 -0.2056 -0.1491
83026W        W26120   6.811  21.476   3.707  0.2602  0.1374 -0.0575
83027W        W26121   9.024  19.853   7.277  0.0125  0.1314  0.1918
83028W        W26122   9.406  18.770   6.805  0.1619  0.1996  0.0357
83029W        W26123   6.774  19.001   5.354 -0.0405 -0.2788 -0.0793
83030W        W26124   9.459  20.143   6.092 -0.1011 -0.1740 -0.0686
83031W        W26125  10.361  21.453   4.483 -0.1581  0.0347  0.1062
83032W        W26126  10.539  22.801   3.327 -0.0216 -0.0546  0.0048
83033W        W26127  10.051  20.883   6.145 -0.3979 -0.4009  0.4436
83034W        W26128   7.460  22.359   6.787  0.1242 -0.1350 -0.1042
83035W        W26129   7.770  18.117   7.819  0.0694  0.3873  0.2570
83036W        W26130   9.671  20.419   3.849 -0.1431  0.1642 -0.2834
83037W        W26131   8.896  21.471   5.311  0.0615  0.0349 -0.1935
83038W        W26132   9.970  20.997   4.212 -0.0126  0.2052  0.0907
83039W        W26133  10.971  18.486   6.145  0.1989 -0.0612  0.0035
83040W        W26134   9.926  20.390   4.318  0.0405  0.2282 -0.0031
83041W        W26135   8.006  17.693   7.472  0.0657 -0.0957  0.1651
83042W        W26136   8.790  19.978   6.901  0.2526  0.0905  0.2016
83043W        W26137  11.224  19.407   4.896 -0.2594  0.1161 -0.2243
83044W        W26138   8.835  18.018   5.121  0.1651  0.0138 -0.0005
83045W        W26139  10.811  18.591   4.878 -0.1768  0.0702  0.2476
83046W        W26140  11.040  20.490   1.894  0.0800  0.0924  0.1822
83047W        W26141   8.421  20.352   3.908 -0.2877  0.4505  0.1307
83048W        W26142   8.734  19.434   5.297  0.0269  0.2053 -0.1071
83049W        W26143   9.413  20.511   6.535  0.0807  0.2313  0.0240
83050W        W26144   9.801  21.944   4.645  0.4157  0.1859  0.0654
83051W        W26145  11.022  20.798   7.254  0.0124  0.0506 -0.1800
83052W        W26146   9.214  18.242   3.258 -0.1647 -0.3914 -0.2013
83053W        W26147  11.643  20.282   3.143  0.0579 -0.1711 -0.0130
83054W        W26148   9.913  22.144   5.602 -0.3734 -0.0273 -0.1012
83055W        W26149  10.782  22.175   6.650 -0.1195 -0.0616  0.0202
83056W        W26150   8.565  21.861   5.933  0.1431  0.2906 -0.0864
83057W        W26151  10.568  19.683   5.533 -0.0419 -0.1827  0.1299
83058W        W26152   7.627  17.905   7.183 -0.0391 -0.2107 -0.1992
83059W        W26153   9.498  19.682   3.035  0.0699 -0.1106 -0.1947
83060W        W26154   9.217  19.479   3.390 -0.2997 -0.0743  0.1376
83061W        W26155   9.835  20.460   6.261  0.1949 -0.0648 -0.3213
83062W        W26156   7.842  18.696   5.892  0.3879 -0.3561  0.0265
83063W        W26157  10.576  18.500   4.406 -0.1483 -0.3512 -0.1458
83064W        W26158   9.039  22.286   5.567  0.2272 -0.0012  0.0930
83065W        W26159  11.514  19.398   5.356  0.0563 -0.0338  0.3076
83066W        W26160   8.778  19.641   8.807 -0.0231 -0.1716  0.0984
83067W        W26161   8.797  19.058   7.734 -0.1152 -0.0823 -0.0637
83068W        W26162  10.777  19.471   7.456 -0.3736 -0.0390 -0.0457
83069W        W26163  10.871  20.796   8.334 -0.2816  0.0618  0.2244
83070W        W26164   7.631  17.872   8.242 -0.2859 -0.0041  0.0509
83071W        W26165  10.021  21.503   7.320 -0.3044  0.2041 -0.1600
83072W        W26166  10.505  20.752   7.051 -0.0261  0.2894 -0.1188
83073W        W26167   9.689  20.957   9.713 -0.1465  0.2846 -0.1862
83074W        W26168   9.602  22.121   6.478  0.1499 -0.2405 -0.4783
83075W        W26169   7.997  19.898   8.821 -0.1506  0.0757 -0.0644
83076W        W26170   8.370  16.806   7.026  0.4152 -0.0259 -0.1149
83077W        W26171   7.208  16.893   9.322 -0.3682  0.0488  0.0179
83078W        W26172   9.712  19.610   9.698  0.3924  0.0675 -0.5316
83079W        W26173   7.083  19.457   7.938 -0.2820 -0.0652 -0.1667
83080W        W26174   8.572  19.073   9.746 -0.1454 -0.1238 -0.0426
83081W        W26175  10.131  18.904   9.096  0.2155 -0.0630 -0.3001
83082W        W26176  10.394  23.062   8.432  0.0878 -0.1980 -0.0156
83083W        W26177   8.781  18.502   9.755  0.2589 -0.1730  0.1726
83084W        W26178   9.811  21.141   7.591 -0.4540 -0.0382  0.0993
83085W        W26179   8.750  18.791   8.179 -0.0788  0.0225  0.0747
83086W        W26180   7.112  18.245   9.502 -0.1221 -0.0187 -0.1598
83087W        W26181   6.527  19.352   9.228 -0.1664 -0.1485 -0.0676
83088W        W26182   9.538  19.087   8.815 -0.0903  0.4165 -0.2427
83089W        W26183  10.003  19.428  10.080 -0.0283 -0.1010  0.3691
83090W        W26184   8.560  21.452   7.971  0.0656  0.2245 -0.1150
83091W        W26185   9.343  21.223   9.286  0.1527  0.0288  0.0997
83092W        W26186   8.769  20.252   7.281  0.1558  0.3355 -0.1401
83093W        W26187   8.863  22.833  10.087  0.1335 -0.1523 -0.0958
83094W        W26188   8.681  21.137   8.381  0.0323 -0.0152 -0.0906
83095W        W26189  11.946  21.022   8.459 -0.0113  0.0810  0.1689
83096W        W26190   7.889  21.550   6.738  0.0523  0.0028  0.2182
83097W        W26191  10.277  21.694   9.509 -0.0529 -0.0267 -0.3077
83098W        W26192   8.171  19.306   7.219  0.0344 -0.1051  0.4025
83099W        W26193   8.332  21.291   6.505 -0.2697 -0.0522  0.0029
83100W        W26194   9.379  20.162   7.457 -0.1451 -0.1864 -0.0933
83101W        W26195   9.195  20.972   9.740 -0.1899  0.0164  0.0583
83102W        W26196   9.075  21.991   6.637 -0.0315 -0.2607 -0.1335
83103W        W26197  10.594  18.993   7.425  0.0945  0.1222  0.3188
83104W        W26198   7.829  18.486   6.927 -0.1056  0.1828  0.0890
83105W        W26199   9.580  19.378   8.100  0.3676 -0.2276  0.1406
83106W        W26200   9.634  18.860   8.222  0.0825 -0.0907  0.2127
83107W        W26201   9.161  22.023  10.183  0.5146 -0.0032 -0.1665
83108W        W26202   8.841  18.306   8.520 -0.0203  0.2111  0.2334
83109W        W26203   8.444  19.375   7.580  0.0605  0.2795  0.1750
83110W        W26204   8.180  16.630   9.820  0.1819  0.0867  0.1570
83111W        W26205   8.064  20.889   8.941  0.1018 -0.0180  0.2020
83112W        W26206   8.309  19.517   8.491 -0.2069  0.0207 -0.1286
83113W        W26207  11.808  21.498   8.635 -0.3337  0.2557 -0.1883
83114W        W26208  10.511  21.096   8.118 -0.0496  0.1757  0.0818
83115W        W26209   9.354  21.710   6.245  0.0075 -0.1748  0.3249
83116W        W26210   8.427  19.279   8.065  0.0176 -0.1839 -0.0276
83117W        W26211   8.004  19.012   6.868  0.1798 -0.3302 -0.0225
83118W        W26212  10.991  18.191   8.446 -0.2084 -0.0505  0.0988
83119W        W26213   8.419  20.376   7.661  0.0117 -0.2914  0.2348
83120W        W26214  11.452  20.698   9.746  0.1558  0.0785  0.1220
83121W        W26215  10.505  21.249   7.236  0.4252  0.1238 -0.0209
83122W        W26216   9.929  18.440   8.416  0.1119  0.1353  0.1020
83123W        W26217  13.081  19.271   8.811  0.1767 -0.2100  0.2082
83124W        W26218   9.156  19.549   6.351 -0.0480 -0.1235 -0.0198
83125W        W26219   8.995  19.275   8.123  0.0142  0.1660 -0.1365
83126W        W26220  11.422  20.975   9.209  0.3586 -0.2128 -0.1894
83127W        W26221  10.923  19.913   7.299 -0.2316 -0.1913 -0.2574
83128W        W26222   7.709  22.300   9.117 -0.1710  0.2426  0.0868
83129W        W26223   8.185  21.772   7.789  0.0770  0.0659 -0.0306
83130W        W26224   8.462  20.954   9.350 -0.0345 -0.0626  0.0921
83131W        W26225   8.204  21.226   7.650  0.0693 -0.0579  0.1472
83132W        W26226   7.508  19.257   9.628 -0.1738  0.1080  0.0051
83133W        W26227   9.100  21.901   8.605  0.2507 -0.1860  0.2622
83134W        W26228  10.323  18.546   8.764 -0.0962 -0.3421  0.1973
83135W        W26229  10.578  17.652   8.524 -0.0654  0.0615  0.0684
83136W        W26230   8.025  19.871   8.284 -0.0188 -0.0832 -0.2723
83137W        W26231  11.141  21.305   7.962 -0.3800  0.0616  0.1018
83138W        W26232  10.941  20.382   6.950  0.3139  0.1882 -0.0679
83139W        W26233  10.324  21.325   6.251  0.0521  0.0205 -0.1575
83140W        W26234   8.180  22.508   9.494  0.0378  0.2191  0.3753
83141W        W26235   8.101  18.153   9.170 -0.0508 -0.1475 -0.1869
83142W        W26236   6.319  18.335   9.145  0.0320 -0.0674 -0.1158
83143W        W26237   6.673  17.569   8.014  0.2003  0.0105 -0.1548
83144W        W26238   9.950  20.452   8.109  0.2102 -0.1543 -0.1662
83145W        W26239   8.501  20.123   8.146  0.1079  0.2839  0.1372
83146W        W26240   7.667  21.197  10.068 -0.0118  0.2160  0.1831
83147W        W26241   9.570  21.072   7.131  0.2268  0.1203 -0.2785
83148W        W26242  12.138  20.682   8.748 -0.0231  0.0275  0.0010
83149W        W26243  11.322  20.958   7.654 -0.3440  0.0462 -0.0980
83150W        W26244   8.656  19.492  10.039 -0.0191 -0.3103 -0.0754
83151W        W26245   9.125  18.901   8.477 -0.1577  0.3858  0.3765
83152W        W26246   9.237  22.061   9.090  0.1372 -0.2308 -0.2292
83153W        W26247  10.014  22.659   9.193  0.0405 -0.3534  0.2326
83154W        W26248   8.543  18.346   8.109  0.1372 -0.2092  0.0739
83155W        W26249  10.785  21.644   7.991  0.0478 -0.0074  0.1561
83156W        W26250   9.801  19.988   8.363  0.0668  0.1478  0.1676
83157W        W26251  10.536  18.998   9.457  0.1669  0.2348  0.0264
83158W        W26252  10.029  21.578   9.013  0.2119  0.1629 -0.0381
83159W        W26253   8.549  17.796   8.301 -0.0478  0.1302 -0.2009
83160W        W26254  10.252  21.288   8.575 -0.0848 -0.1275  0.0522
83161W        W26255   8.178  22.271   8.028  0.1389  0.0714  0.0363
83162W        W26256   7.627  19.901   7.519  0.5649  0.1705  0.1109
83163W        W26257   9.505  21.841   8.236 -0.3410 -0.0588  0.2557
83164W        W26258  11.130  17.275   8.694  0.1896 -0.0529  0.1342
83165W        W26259   9.095  20.083   6.515 -0.2542 -0.0783  0.0771
83166W        W26260   9.538  17.566   8.479  0.1432  0.0510  0.3273
83167W        W26261   8.989  19.210   8.979 -0.2432  0.0641 -0.2543
83168W        W26262  10.666  21.060   8.670 -0.0117  0.0423  0.0234
83169W        W26263   9.212  20.781   7.538 -0.1763 -0.1435 -0.2088
83170W        W26264  10.476  19.859   7.394  0.2817 -0.1046 -0.0482
83171W        W26265   9.865  20.618   7.612 -0.1916 -0.0288  0.0235
83172W        W26266   9.642  20.264   9.359 -0.2452  0.0757 -0.2580
83173W        W26267   9.758  20.120   7.735  0.0143  0.3993  0.1867
83174W        W26268  11.192  20.837   6.799 -0.0461  0.1031 -0.2474
83175W        W26269   8.075  20.914   8.436 -0.1907  0.0788 -0.0195
83176W        W26270  10.717  21.507   8.469  0.1511  0.4034  0.2867
83177W        W26271   6.638  17.160   9.834 -0.1772  0.2452 -0.4057
83178W        W26272   7.697  19.073   7.383  0.0162  0.0065 -0.1824
83179W        W26273   8.907  19.453   9.437 -0.1265 -0.0280 -0.0768
83180W        W26274   6.885  20.319   8.282 -0.1597  0.3093  0.0409
83181W        W26275  10.226  20.585   8.664 -0.0060  0.3559 -0.0249
83182W        W26276  11.735  18.911   9.194  0.0679 -0.1217  0.3844
83183W        W26277   9.889  19.360   8.470  0.0020 -0.1523  0.2779
83184W        W26278   9.856  18.713   9.520  0.0354  0.1678 -0.4048
83185W        W26279   8.382  20.043   5.889  0.2532  0.4673 -0.1127
83186W        W26280   9.619  19.647   8.759 -0.2385  0.3655  0.2475
83187W        W26281   9.660  23.601   9.358  0.0797  0.0580 -0.0570
83188W        W26282  10.191  19.711   9.723 -0.1913 -0.2852  0.0468
83189W        W26283   9.209  19.484   8.486  0.0145  0.1623 -0.2639
83190W        W26284   9.052  20.681   8.131 -0.2343 -0.2108  0.0275
83191W        W26285   9.038  20.779   6.392  0.2113  0.1240 -0.2359
83192W        W26286   7.291  18.274   9.999  0.0955  0.4512 -0.1144
83193W        W26287  10.083  22.125   8.822 -0.0121  0.3869 -0.0489
83194W        W26288   8.668  21.116   6.197 -0.0443  0.1924 -0.0452
83195W        W26289  11.627  22.681   9.699 -0.1328 -0.0617 -0.1370
83196W        W26290   8.204  20.777   7.448  0.0384  0.2833 -0.0868
83197W        W26291  10.850  18.593   8.734  0.1218  0.0150  0.0912
83198W        W26292   7.856  20.940   9.667  0.0611  0.1639  0.1433
83199W        W26293   7.601  19.709   8.014  0.1451 -0.2460  0.0988
83200W        W26294   7.730  20.662  10.419  0.2594  0.2544  0.0829
83201W        W26295   9.331  19.260   7.712  0.1735 -0.1091  0.1245
83202W        W26296  11.029  21.295   8.975 -0.0878  0.0134  0.3936
83203W        W26297   8.714  18.774   8.781 -0.3865 -0.0677 -0.0196
83204W        W26298   9.123  19.012   9.519 -0.2324  0.1475  0.1871
83205W        W26299   8.481  21.786   9.971  0.2734 -0.4172 -0.2076
83206W        W26300   9.748  18.002   8.268 -0.2800 -0.1169 -0.2456
83207W        W26301   7.146  19.925   7.728 -0.0239 -0.1736  0.1259
83208W        W26302  11.666  18.629   8.772 -0.0702  0.0135  0.3163
83209W        W26303   9.399  20.435   7.889  0.0395 -0.0891 -0.2517
83210W        W26304   9.007  20.830   8.611  0.1656 -0.1211  0.0536
83211W        W26305  10.479  21.769   8.776  0.3043 -0.0316 -0.1887
83212W        W26306   8.060  20.673   6.960  0.0583  0.2209  0.1205
83213W        W26307   8.513  20.707   8.666 -0.1244  0.2102 -0.2543
83214W        W26308   9.276  20.946  10.208  0.1904 -0.3007  0.0812
83215W        W26309  10.710  20.632   9.727  0.1481  0.2658 -0.0461
83216W        W26310   9.174  18.297   8.139  0.0080  0.0682  0.0964
83217W        W26311   8.590  19.866   9.240  0.0456  0.0417  0.1041
83218W        W26312  10.299  20.166   8.338 -0.0001 -0.0416  0.0644
83219W        W26313   8.350  20.267  10.219  0.0571  0.1503 -0.1916
83220W        W26314   8.449  17.863   9.933 -0.1685 -0.0825 -0.0070
83221W        W26315  12.300  20.935   7.575 -0.1210 -0.0895  0.3859
83222W        W26316   7.688  20.740   8.659 -0.1341 -0.1031 -0.1235
83223W        W26317   8.451  19.981   8.674 -0.2109 -0.1093 -0.0432
83224W        W26318   8.182  19.858   7.818  0.1445 -0.0831  0.0307
83225W        W26319   9.109  20.299   9.368 -0.1706  0.0340  0.2053
83226W        W26320   8.856  21.691   9.020  0.0566  0.1070 -0.0873
83227W        W26321   8.931  21.151   7.851  0.1018  0.1089 -0.3226
83228W        W26322   8.871  20.365   8.421  0.1270  0.0689  0.2159
83229W        W26323  10.599  18.096   7.704  0.4166 -0.0146  0.0998
83230W        W26324  10.329  21.892   7.437 -0.1238  0.3177  0.0426
83231W        W26325   7.671  18.662   9.783 -0.1709 -0.2454  0.2616
83232W        W26326  10.724  20.116   7.843 -0.1964 -0.1456  0.3491
83233W        W26327   7.878  20.006   9.299  0.0278  0.0980 -0.2995
83234W        W26328  10.818  21.128   7.630 -0.0724 -0.1634 -0.2550
83235W        W26329  10.503  18.518   7.368 -0.0777  0.2696  0.0986
83236W        W26330   8.139  16.941   8.087 -0.2233  0.0228 -0.1135
83237W        W26331   8.781  20.817  10.042 -0.0547  0.2135 -0.2930
83238W        W26332  11.152  20.295   7.574 -0.1809 -0.1769  0.0254
83239W        W26333   8.547  21.441   7.356 -0.0564  0.5112  0.1161
83240W        W26334  11.348  19.942   9.780 -0.2196  0.1926 -0.1418
83241W        W26335   9.192  19.857   9.561 -0.0952 -0.0209  0.0859
83242W        W26336   9.947  19.719   7.976 -0.0595  0.0382 -0.0553
83243W        W26337   8.651  20.001   6.354 -0.1680 -0.1089  0.2892
83244W        W26338   8.439  20.949   8.008  0.0082 -0.1588 -0.0962
83245W        W26339   9.559  20.078   9.895 -0.0005 -0.0095  0.0891
83246W        W26340   9.771  18.163   9.339 -0.0729 -0.0432 -0.0748
83247W        W26341  10.071  22.079   9.834 -0.0324 -0.0906 -0.3024
83248W        W26342  11.352  19.210   7.572 -0.3040  0.0803 -0.1755
83249W        W26343  10.798  20.261   9.396  0.1180 -0.2037  0.3375
83250W        W26344  10.834  20.250   8.350  0.3674  0.0945  0.0880
83251W        W26345   8.906  19.531   7.720  0.3237 -0.4848  0.1506
83252W        W26346   8.457  19.509   9.606  0.4166 -0.0145 -0.2721
83253W        W26347   8.191  18.386   7.729 -0.1647 -0.3707  0.0687
83254W        W26348   8.611  21.956   7.949  0.2895 -0.2232  0.0247
83255W        W26349   9.796  20.884   8.373 -0.3289  0.1485  0.1053
83256W        W26350  10.008  18.915   8.605  0.2827 -0.1081 -0.0300
83257W        W26351   7.422  18.378   9.038  0.1854  0.2471  0.2098
83258W        W26352   8.171  18.807   8.128  0.0568 -0.2282  0.2073
83259W        W26353   8.533  18.949   7.284 -0.2748 -0.2007 -0.0349
83260W        W26354  10.392  19.396   9.248  0.2763 -0.3160  0.1262
83261W        W26355   8.157  17.832   7.038 -0.4442 -0.0087  0.2146
83262W        W26356   7.061  20.431   7.061  0.0139 -0.1664  0.2225
83263W        W26357  10.020  18.158   8.830  0.0056  0.0737  0.0731
83264W        W26358   9.115  22.524   9.570 -0.1280 -0.5687 -0.0761
83265W        W26359   9.139  22.102   7.917  0.3988 -0.1634 -0.0357
83266W        W26360   9.181  19.443   9.891  0.0848  0.3484  0.0448
83267W        W26361   8.661  18.923   9.273 -0.1811 -0.2099  0.0438
83268W        W26362  10.412  20.484   9.142  0.1434  0.0165 -0.1515
83269W        W26363   8.973  20.085   7.818 -0.2468  0.3835  0.0475
83270W        W26364  12.281  19.510   8.803  0.1330 -0.1362  0.0814
83271W        W26365   9.541  20.911   7.933  0.0036 -0.0613 -0.0316
83272W        W26366   9.156  20.458   8.898  0.2964 -0.2249  0.0400
83273W        W26367   8.476  18.410   7.264 -0.0698  0.0018 -0.2556
83274W        W26368   9.490  21.386   8.001 -0.4083  0.0555  0.0543
83275W        W26369   9.198  20.442   9.904  0.0657  0.1657  0.2978
83276W        W26370   8.388  22.676   7.621 -0.1454 -0.1798 -0.0040
83277W        W26371  10.428  20.786   7.543  0.0523 -0.0715  0.1916
83278W        W26372  10.059  20.096   8.815  0.2389  0.1454 -0.0763
83279W        W26373   9.336  21.089   8.351  0.1397 -0.0185  0.2344
83280W        W26374   8.143  19.024   7.678  0.0078 -0.1133  0.1120
83281W        W26375   8.676  21.229   8.898  0.2327 -0.0698 -0.1388
83282W        W26376   7.365  19.813   7.108 -0.1871  0.2879  0.1196
83283W        W26377   9.289  20.973   6.767 -0.0272 -0.3494  0.2351
83284W        W26378   8.358  22.261   8.476 -0.1487  0.1171 -0.0091
83285W        W26379  10.535  18.857   7.922  0.0362  0.0438  0.2570
83286W        W26380   9.983  19.277   9.507  0.0154  0.0178 -0.1510
83287W        W26381  10.708  18.517   9.265  0.3667  0.0230  0.2102
83288W        W26382   8.783  19.696   8.249 -0.2559  0.2781  0.3246
83289W        W26383   9.680  17.321   7.487 -0.1286  0.0827  0.3418
83290W        W26384  10.003  20.850   7.132  0.0047  0.0523 -0.3342
83291W        W26385   8.697  19.184   8.513  0.0791  0.0859  0.1941
83292W        W26386   9.282  19.978   8.331 -0.0339  0.1675 -0.0743
83293W        W26387  10.021  18.111   9.788  0.3000  0.0741  0.0552
83294W        W26388   9.558  20.805   6.069 -0.0369  0.1730 -0.2683
83295W        W26389   8.295  18.325   9.900 -0.3793 -0.2737  0.1381
83296W        W26390   7.910  21.383   8.596  0.0009  0.1019  0.1664
83297W        W26391   9.043  22.766   8.258 -0.3297  0.2362  0.1933
83298W        W26392   7.639  22.675   8.693 -0.5435  0.3394  0.2969
83299W        W26393   8.329  18.568   8.521 -0.0627 -0.2740 -0.2555
83300W        W26394  11.340  19.020   8.643  0.0196 -0.0894 -0.0195
83301W        W26395   6.859  20.310   8.985  0.0840  0.2826 -0.2485
83302W        W26396   8.145  19.229   8.887 -0.2250 -0.1311 -0.0431
83303W        W26397  10.499  18.982   8.759 -0.3292  0.1166  0.2740
83304W        W26398   9.733  22.186   9.258 -0.3805 -0.2105  0.2111
83305W        W26399   8.585  20.366   9.078 -0.3473  0.0271 -0.1379
83306W        W26400   9.746  20.927   6.591 -0.2234  0.0853  0.2224
83307W        W26401   9.635  19.424   6.502  0.0019  0.1233  0.1783
83308W        W26402   8.671  17.643   8.775  0.0018  0.0854 -0.0760
83309W        W26403   9.737  19.995   6.533 -0.1370  0.2276 -0.0853
83310W        W26404   8.185  19.109   9.454 -0.1687  0.1079  0.4213
83311W        W26405   7.598  20.983   9.197 -0.0958 -0.0004 -0.0012
83312W        W26406   8.263  18.740   9.010  0.0208  0.0931 -0.1017
83313W        W26407  11.734  21.573   6.858 -0.2986 -0.0230  0.1294
83314W        W26408  11.238  18.768   9.126  0.4688  0.0147 -0.3331
83315W        W26409  10.481  22.190   7.095 -0.2697 -0.0097  0.1510
83316W        W26410   9.190  19.941   9.051  0.0323  0.2489 -0.1396
83317W        W26411  12.400  19.570   9.650 -0.1189  0.3408 -0.2389
83318W        W26412   7.313  18.730   9.359  0.2930 -0.2255  0.0345
83319W        W26413   8.140  18.797   9.925  0.2461 -0.2790  0.1301
83320W        W26414  11.016  19.028   9.618 -0.1854  0.0711 -0.2379
83321W        W26415   8.760  16.812   8.453 -0.2956 -0.2543 -0.0279
83322W        W26416   9.233  18.809   7.948 -0.1182  0.1298  0.0076
83323W        W26417   7.874  21.082   6.854  0.0735  0.2294  0.5971
83324W        W26418  10.597  20.078   8.770 -0.0079 -0.0110  0.0187
83325W        W26419   8.621  22.785   6.174  0.1313  0.0132 -0.2180
83326W        W26420  10.301  20.300   9.615 -0.0780  0.0490  0.0777
83327W        W26421   8.316  20.234   6.845 -0.1071 -0.0687 -0.3802
83328W        W26422   9.306  20.245   6.955  0.2558 -0.0761 -0.3753
83329W        W26423   9.537  20.787   8.815  0.4140 -0.2316 -0.1145
83330W        W26424  10.343  21.471   7.722 -0.1912 -0.1378  0.0777
83331W        W26425  10.288  19.573   8.786 -0.2630  0.2943  0.2308
83332W        W26426  11.097  19.858   9.336 -0.1849 -0.0250  0.1599
83333W        W26427   8.483  18.259   8.902 -0.2618 -0.0964 -0.6135
83334W        W26428  10.515  18.546   8.314  0.0472  0.1226 -0.1661
83335W        W26429  10.161  18.511   7.913  0.0007 -0.1434 -0.1631
83336W        W26430   8.926  20.824   9.222 -0.0963 -0.1085 -0.1860
83337W        W26431   7.885  19.458   7.562 -0.3121  0.1638  0.0688
83338W        W26432   7.871  21.456   7.277  0.0322 -0.2324 -0.0022
83339W        W26433   8.887  21.297   9.519 -0.1642 -0.2994 -0.3710
83340W        W26434   7.873  20.398   9.016  0.1856 -0.1372 -0.2638
83341W        W26435   8.108  17.929   8.566  0.0777 -0.1823 -0.1602
83342W        W26436  10.121  20.307   7.207  0.0222  0.1579 -0.0893
83343W        W26437   7.663  17.422   8.972 -0.0213  0.0763  0.0089
83344W        W26438   7.019  18.656   8.639  0.2284  0.1348 -0.0452
83345W        W26439  10.375  21.682   6.964  0.3694  0.1689  0.2057
83346W        W26440   9.895  22.295   6.104 -0.5189 -0.1939  0.1147
83347W        W26441  10.020  18.999   7.964  0.1834 -0.0497 -0.0264
83348W        W26442   6.716  20.831   6.127 -0.1826 -0.0121  0.0294
83349W        W26443   7.611  19.167   7.880  0.0747 -0.1004 -0.0543
83350W        W26444   8.016  19.697   9.777  0.1077  0.0366  0.1242
83351W        W26445   9.462  21.762   7.640  0.2598  0.1025  0.0605
83352W        W26446   9.505  21.983   5.888 -0.1993 -0.1338 -0.1704
83353W        W26447   7.641  18.107   9.435  0.0589  0.1007 -0.0459
83354W        W26448   9.519  21.609   7.143  0.2274 -0.2537 -0.1083
83355W        W26449  10.974  20.656   7.865  0.0658  0.0406  0.0490
83356W        W26450  10.162  18.961   9.940  0.1422 -0.1974 -0.1689
83357W        W26451   9.439  19.779   7.859 -0.0446 -0.2467 -0.4308
83358W        W26452  11.475  22.859   9.224 -0.0645 -0.0057  0.0069
83359W        W26453   9.388  18.555   9.513  0.0856  0.1377  0.2820
83360W        W26454  10.496  19.700   8.025  0.2215  0.0960 -0.1115
83361W        W26455   9.585  20.579   7.196 -0.0460  0.1303 -0.1436
83362W        W26456   8.732  19.917   9.747  0.0374 -0.0355 -0.0514
83363W        W26457   8.647  19.484   7.131  0.1057  0.3261 -0.4115
83364W        W26458   9.441  20.472   8.392 -0.0880  0.1155 -0.0166
83365W        W26459   8.758  19.589   6.633 -0.3369 -0.0183 -0.0492
83366W        W26460  10.697  19.963   6.853 -0.2513 -0.0003 -0.2385
83367W        W26461   9.403  20.745   9.304  0.0178  0.2643  0.0803
83368W        W26462   9.808  19.809   9.236 -0.0386 -0.1021 -0.1902
83369W        W26463   9.585  20.216   8.893 -0.0524  0.1208  0.1421
83370W        W26464   7.054  17.381   9.641  0.0765 -0.0751 -0.3199
83371W        W26465   8.801  20.435   6.634 -0.0497  0.0524  0.3911
83372W        W26466   8.046  19.544   9.231  0.1700  0.0212 -0.1383
83373W        W26467  11.027  18.860   7.619  0.1418  0.1190  0.4770
83374W        W26468   8.968  18.051   8.942  0.2560 -0.1643 -0.2047
83375W        W26469   9.461  19.594   7.383  0.1526 -0.1162 -0.1342
83376W        W26470   7.990  24.006   9.214  0.0463 -0.1379 -0.0871
83377W        W26471  10.170  20.750   9.490  0.1746  0.2310  0.1566
83378W        W26472   7.988  24.946   2.330 -0.0672 -0.0786  0.2030
83379W        W26473   8.927  23.549   1.121  0.1322 -0.1157 -0.0826
83380W        W26474  10.092  21.866   0.822  0.0585  0.1024  0.1567
83381W        W26475   9.754  23.304   0.607  0.0853  0.0248 -0.0603
83382W        W26476   7.900  23.030   0.828  0.2074  0.0811 -0.0397
83383W        W26477  10.321  23.859   1.152 -0.0643  0.2337 -0.0122
83384W        W26478   7.594  19.786   1.809 -0.2055  0.0245 -0.0070
83385W        W26479  10.441  25.256   1.073  0.1862  0.0270  0.2259
83386W        W26480  11.019  24.690   2.629  0.3170  0.1114  0.2095
83387W        W26481  10.740  24.862   0.390  0.0398  0.1118 -0.3230
83388W        W26482   9.335  22.173   1.921 -0.0195 -0.1123 -0.3453
83389W        W26483   8.366  25.787   2.262 -0.0376  0.1591 -0.1722
83390W        W26484   9.377  22.053   0.316 -0.0871  0.0582  0.1188
83391W        W26485   7.707  22.179   2.492  0.0938 -0.2232 -0.1994
83392W        W26486  11.723  23.314   2.655 -0.3819 -0.2572 -0.3236
83393W        W26487   7.925  23.188   1.971  0.2136 -0.1282  0.0345
83394W        W26488   9.052  24.194   3.759 -0.0828 -0.1757 -0.2175
83395W        W26489   9.973  23.661   2.603  0.0809 -0.2131  0.2154
83396W        W26490  10.107  25.723   2.047  0.0002  0.0599  0.1700
83397W        W26491   9.152  22.258   3.179  0.2835  0.1268 -0.3451
83398W        W26492   9.571  22.037   2.899 -0.2106 -0.0433 -0.3787
83399W        W26493   8.219  23.986   0.371  0.3086 -0.0234  0.2313
83400W        W26494   7.437  23.312   1.259  0.1083 -0.1711  0.2670
83401W        W26495   7.675  22.915   4.515 -0.1609 -0.3317  0.0160
83402W        W26496   8.214  24.139   2.212 -0.2100  0.0081  0.2445
83403W        W26497   9.763  21.383   2.256  0.1211  0.1263  0.1830
83404W        W26498  11.803  23.139   1.783  0.1209 -0.1916  0.1911
83405W        W26499   8.156  25.277   1.116 -0.1717  0.0865 -0.1804
83406W        W26500   9.129  27.071   3.250 -0.1152  0.6282  0.3101
83407W        W26501  10.533  24.109   4.293  0.1804  0.2707  0.1880
83408W        W26502   7.661  22.780   1.166  0.2067 -0.0775 -0.1125
83409W        W26503   6.334  25.485   2.054 -0.1997  0.0567  0.3730
83410W        W26504   7.629  25.105   0.147 -0.2372 -0.0003  0.1722
83411W        W26505  11.395  24.862   0.862  0.0115  0.0442 -0.1868
83412W        W26506  11.449  25.030   2.324  0.0585  0.0210 -0.1222
83413W        W26507   8.780  25.542   3.218  0.0960  0.0860 -0.2144
83414W        W26508   7.515  22.998   1.585 -0.0852 -0.1356  0.0848
83415W        W26509  10.702  26.295   4.499 -0.1405 -0.1382 -0.2337
83416W        W26510   9.015  25.136   2.874  0.3290  0.1163  0.2918
83417W        W26511   9.080  23.938   2.680 -0.1354 -0.0877 -0.0398
83418W        W26512   9.486  24.896   2.205 -0.1666 -0.1977  0.1488
83419W        W26513   7.495  24.954  31.531  0.1795 -0.3791 -0.0222
83420W        W26514  10.313  23.490   1.512 -0.1463  0.1277 -0.2000
83421W        W26515   8.898  26.218   2.248 -0.2984  0.2344  0.1440
83422W        W26516   7.531  25.229   2.111  0.0928  0.3662  0.0106
83423W        W26517  11.173  23.392   3.052  0.0729 -0.0597 -0.0365
83424W        W26518   6.561  24.917  31.780 -0.2485 -0.2174 -0.0764
83425W        W26519   9.252  21.403   0.129 -0.2011 -0.1362  0.0308
83426W        W26520   7.712  22.762   0.307 -0.0213  0.1216 -0.2690
83427W        W26521   9.444  22.488  31.187  0.1801  0.0665  0.1114
83428W        W26522   9.867  21.327   0.359 -0.0044 -0.2478  0.0629
83429W        W26523   8.489  26.196   1.411  0.0955  0.1200 -0.1324
83430W        W26524   9.045  22.512   2.284 -0.1303 -0.3009 -0.1390
83431W        W26525  11.951  24.722   2.769 -0.0731 -0.0248  0.1175
83432W        W26526   8.423  24.314   1.667  0.1739 -0.0865 -0.0835
83433W        W26527  10.665  23.345   3.144  0.0673  0.1448  0.0012
83434W        W26528   9.223  25.332   2.363  0.0274  0.1489 -0.3320
83435W        W26529   8.699  24.328   2.542 -0.4309 -0.3463  0.0090
83436W        W26530  10.769  23.791   0.133  0.2398 -0.2618  0.3035
83437W        W26531  12.344  23.952   1.484  0.1604 -0.0030 -0.2000
83438W        W26532   9.140  23.648  31.943 -0.0160 -0.0010 -0.2257
83439W        W26533   8.100  22.424   1.702  0.0715  0.0022 -0.2206
83440W        W26534   7.790  24.175   4.384 -0.1758 -0.0679 -0.1138
83441W        W26535   7.566  23.938   3.759 -0.2585  0.0325  0.0017
83442W        W26536   8.957  22.450   0.070  0.1901  0.1930  0.0020
83443W        W26537  10.234  24.683   3.228  0.0179 -0.1470  0.0533
83444W        W26538   7.123  25.120   3.999 -0.1379  0.1050  0.2519
83445W        W26539  11.419  21.203   1.221  0.1646  0.1104 -0.0294
83446W        W26540   7.817  24.462   2.363  0.2258 -0.0001 -0.1959
83447W        W26541  11.428  25.440   1.630  0.3368 -0.0301 -0.1537
83448W        W26542   9.995  24.685   1.228 -0.0661 -0.0956 -0.0522
83449W        W26543  10.595  22.152   1.203  0.2971  0.1111 -0.1472
83450W        W26544   9.903  22.328   2.689 -0.0780  0.2321  0.2488
83451W        W26545   6.669  22.568   0.375 -0.0830 -0.2381 -0.2533
83452W        W26546   8.888  23.010   1.354  0.1242  0.1644  0.0828
83453W        W26547  10.687  24.933   3.296 -0.0939  0.0755  0.0744
83454W        W26548  10.727  23.589  31.319  0.1999 -0.3511 -0.1429
83455W        W26549   7.793  23.676   1.985  0.0566 -0.0013 -0.0820
83456W        W26550   9.444  22.978   3.275 -0.2427  0.0077 -0.1687
83457W        W26551   9.879  24.180   2.675 -0.0056  0.1658  0.1466
83458W        W26552   5.929  25.899  30.395  0.0861  0.0125  0.1546
83459W        W26553   6.761  23.431   2.585  0.1219  0.3007 -0.1412
83460W        W26554   8.094  24.254   1.256 -0.1220  0.2813 -0.1653
83461W        W26555   9.390  22.173   2.466  0.3120 -0.3130  0.0511
83462W        W26556   8.024  25.004   1.721 -0.2292 -0.2462 -0.0470
83463W        W26557  10.485  23.275   1.908  0.3574 -0.1340  0.5549
83464W        W26558   8.100  22.210   2.177  0.4342  0.0529  0.2000
83465W        W26559  11.852  23.314   0.407  0.3388  0.1676  0.2147
83466W        W26560   8.268  23.860   1.829 -0.0195  0.0603 -0.0415
83467W        W26561  10.234  26.275   2.106 -0.1415 -0.2373  0.2021
83468W        W26562  11.238  22.779  31.493 -0.3320 -0.1006  0.1003
83469W        W26563   8.180  23.870  30.895  0.2324 -0.0806 -0.0478
83470W        W26564   8.650  24.503   3.615 -0.3067  0.1475  0.0714
83471W        W26565   8.253  22.742   2.065  0.2103 -0.2537  0.1271
83472W        W26566   8.670  23.887   3.491  0.0799  0.1898 -0.1833
83473W        W26567   7.412  22.448   1.592  0.0933 -0.0957 -0.1900
83474W        W26568  11.731  22.380   3.297 -0.0529  0.1436  0.2263
83475W        W26569   9.256  22.092   0.905  0.1609  0.0392 -0.3777
83476W        W26570   9.599  22.582   2.303 -0.0838 -0.0646 -0.1764
83477W        W26571   8.063  22.877   1.555 -0.0357 -0.0285  0.2295
83478W        W26572   6.946  24.381   2.083  0.0223 -0.1491 -0.1388
83479W        W26573  10.897  22.436   1.554  0.2693  0.1014 -0.0629
83480W        W26574  10.450  24.918   1.504 -0.1891  0.2699  0.0610
83481W        W26575  10.282  24.972   2.097 -0.4752  0.0482 -0.0537
83482W        W26576  10.174  25.321   1.627  0.0265  0.0292  0.1598
83483W        W26577   8.126  22.150   2.831 -0.0102  0.0378  0.2018
83484W        W26578   8.645  22.804   1.695 -0.3906  0.0360  0.1676
83485W        W26579   7.669  24.703   1.940 -0.2274 -0.2389 -0.0956
83486W        W26580   9.785  24.558   2.012 -0.0965  0.1333 -0.1616
83487W        W26581   7.734  22.537   0.749  0.0031 -0.0160  0.1995
83488W        W26582  10.826  24.254   2.795  0.2239  0.0708 -0.1663
83489W        W26583   8.203  23.417   0.711 -0.1612  0.1665 -0.1266
83490W        W26584   8.142  24.550   1.975  0.0723 -0.1164  0.1747
83491W        W26585  11.247  22.662   1.223  0.0950 -0.0002 -0.0418
83492W        W26586  12.181  23.987   2.180  0.0402 -0.1151 -0.0222
83493W        W26587  10.940  23.011   1.946  0.3102 -0.0729  0.1428
83494W        W26588   7.324  21.965   1.345 -0.4509  0.0302 -0.1720
83495W        W26589  10.025  25.882   1.587  0.1049  0.2770  0.2517
83496W        W26590   6.969  25.851  31.689  0.0952 -0.2149  0.1083
83497W        W26591   7.958  26.201   1.300  0.2070 -0.2835  0.2145
83498W        W26592  11.037  22.062   1.007  0.0727 -0.4326  0.0180
83499W        W26593   7.141  23.768   2.823  0.0038  0.0318  0.0128
83500W        W26594   9.701  22.498   3.131  0.1380 -0.0458  0.1674
83501W        W26595   7.411  22.927   0.778  0.0056 -0.0524  0.1314
83502W        W26596   7.813  24.539   3.043  0.2126  0.2831  0.1519
83503W        W26597   9.761  21.478   1.686  0.2216 -0.0514 -0.0725
83504W        W26598  10.538  23.392   0.348  0.2613  0.0612  0.0646
83505W        W26599   9.239  25.619   3.465  0.1437  0.2099 -0.3828
83506W        W26600   9.462  24.797   1.057  0.2023 -0.0144  0.1226
83507W        W26601   9.330  21.735  30.879 -0.1613 -0.0548  0.1406
83508W        W26602   9.506  23.130   1.628  0.1771 -0.0245 -0.2355
83509W        W26603   8.140  23.397   4.521  0.0292 -0.0711 -0.4440
83510W        W26604   9.468  25.089   1.442 -0.0332 -0.0023  0.0787
83511W        W26605   8.267  24.380   0.808  0.0787 -0.5154 -0.1212
83512W        W26606   8.288  23.766   1.156 -0.0420 -0.0587  0.1001
83513W        W26607  10.338  24.541   0.422  0.1623 -0.3343 -0.3768
83514W        W26608   5.710  26.314   2.622  0.2754 -0.2601 -0.0027
83515W        W26609  10.568  24.704   3.747 -0.3038  0.0624  0.0564
83516W        W26610  10.117  25.284   0.632 -0.2947 -0.0061  0.2565
83517W        W26611   7.708  21.512   3.267 -0.1759  0.0660 -0.3429
83518W        W26612   7.762  23.896   1.270 -0.0114  0.1901 -0.1811
83519W        W26613   9.060  21.653   0.752 -0.0570  0.1599 -0.2405
83520W        W26614   6.381  24.924   1.002  0.0939  0.0167 -0.0697
83521W        W26615  10.067  22.695   2.318  0.1439 -0.0928 -0.1238
83522W        W26616   9.416  23.081   2.678 -0.0295  0.1325 -0.0526
83523W        W26617   8.411  22.152   3.626 -0.0140  0.1886  0.1578
83524W        W26618  10.399  23.775   2.872 -0.0790 -0.1097 -0.1068
83525W        W26619   8.667  23.612   1.600 -0.0411 -0.0938  0.3094
83526W        W26620   9.531  23.747   2.763 -0.0745 -0.0243 -0.3083
83527W        W26621   7.225  21.885   0.459 -0.2847 -0.1955 -0.1484
83528W        W26622  10.250  23.198   2.795 -0.1577 -0.2439 -0.1081
83529W        W26623   7.947  24.998   2.998  0.2468  0.5063 -0.1493
83530W        W26624   7.136  25.914   3.651 -0.0589 -0.0117  0.1264
83531W        W26625   9.416  25.322   1.900  0.0962 -0.2312  0.2767
83532W        W26626   9.534  23.283   0.091  0.0587  0.2508  0.1679
83533W        W26627   8.377  23.056   3.352 -0.1817  0.2750  0.1440
83534W        W26628  11.357  22.759   1.725 -0.2218  0.4104 -0.0105
83535W        W26629   8.394  25.228   0.558  0.2411  0.0226  0.2757
83536W        W26630   9.270  23.464   0.577 -0.0371 -0.1465 -0.3878
83537W        W26631   8.538  22.244   1.415  0.0822  0.3964 -0.1445
83538W        W26632   8.635  25.334   1.330 -0.0122  0.0582 -0.0594
83539W        W26633   7.272  23.123  31.914 -0.1351 -0.0227 -0.0120
83540W        W26634   8.431  24.817   2.522 -0.2148  0.2979 -0.2077
83541W        W26635   7.413  23.411   0.460 -0.0246 -0.3756 -0.0199
83542W        W26636  10.769  21.273   1.415 -0.1097 -0.1038 -0.0323
83543W        W26637   7.185  26.138   2.644  0.0234 -0.1253 -0.1309
83544W        W26638   7.890  23.236   0.352  0.2330 -0.1806 -0.1826
83545W        W26639   6.611  22.688   1.288  0.3054  0.0030 -0.0170
83546W        W26640   9.444  22.998   2.095  0.1289 -0.0045  0.0704
83547W        W26641  11.320  24.394   0.607 -0.1984  0.2273  0.0364
83548W        W26642   7.653  22.148   1.943  0.0084  0.0327 -0.0444
83549W        W26643   9.363  22.611   2.734  0.1232  0.0281  0.2459
83550W        W26644   8.063  25.368   2.728  0.1249 -0.3065 -0.2800
83551W        W26645   9.405  24.675   3.313  0.1215 -0.0528 -0.0323
83552W        W26646  10.055  22.197   1.242  0.2534 -0.1841 -0.0719
83553W        W26647  11.238  24.613   2.116 -0.0547  0.3328 -0.1237
83554W        W26648   8.099  25.295   3.932 -0.2555  0.0752  0.0727
83555W        W26649   6.130  22.712   1.693 -0.0034  0.1259 -0.1431
83556W        W26650  10.893  23.257   2.622  0.1104  0.0135  0.0921
83557W        W26651   8.142  24.466   0.345  0.1325  0.1748  0.1824
83558W        W26652   7.075  25.320   2.088 -0.1502 -0.0222  0.1260
83559W        W26653   9.526  24.573   1.517  0.0951  0.1749  0.0473
83560W        W26654   7.720  21.714   0.466  0.0982 -0.1207  0.3329
83561W        W26655   7.838  24.587   0.011  0.2429  0.3454 -0.1249
83562W        W26656   9.410  23.225   3.697 -0.1090  0.2834  0.2866
83563W        W26657  11.581  23.404   3.334  0.1303 -0.0513 -0.2389
83564W        W26658   9.765  22.116   2.160 -0.1405 -0.0152 -0.0755
83565W        W26659   8.945  21.878   2.300 -0.0183 -0.2909  0.4508
83566W        W26660   9.147  24.584   2.226  0.2669  0.3930 -0.2560
83567W        W26661  10.750  24.487   2.186 -0.1338  0.0052 -0.1126
83568W        W26662   8.696  23.623   2.779 -0.2933  0.1092  0.1570
83569W        W26663   8.526  25.143   3.031 -0.0524  0.1838 -0.0665
83570W        W26664   8.602  21.182   2.270  0.0500 -0.0552  0.3421
83571W        W26665  10.938  25.744   0.518  0.3655  0.1843 -0.1541
83572W        W26666   9.064  24.569   2.761 -0.0532  0.0452 -0.0944
83573W        W26667   8.465  22.713   1.249 -0.0670  0.2317 -0.0660
83574W        W26668   8.153  23.123   2.584 -0.3272 -0.0975 -0.1605
83575W        W26669   8.073  24.954   0.278  0.0115 -0.1755  0.0857
83576W        W26670   9.936  23.310   1.900 -0.3015 -0.2987  0.4065
83577W        W26671   7.776  26.018   2.458  0.1078 -0.1834  0.2629
83578W        W26672   6.874  23.205   0.439  0.0620 -0.0367  0.2555
83579W        W26673   6.850  24.268   2.961  0.0375  0.1160  0.0062
83580W        W26674  10.075  22.783   1.841  0.0004 -0.0400  0.0471
83581W        W26675   8.539  24.970   0.045  0.0135  0.0289  0.2893
83582W        W26676   9.705  21.966   1.619  0.1365  0.1843  0.1706
83583W        W26677  11.166  22.921   2.365 -0.2000  0.2176  0.0922
83584W        W26678   8.576  22.853   0.273 -0.1063  0.1912 -0.2288
83585W        W26679   8.328  22.687   3.693  0.0527 -0.0319  0.0711
83586W        W26680   9.043  21.912   2.788  0.0309  0.0292  0.0700
83587W        W26681  11.212  24.007   2.160  0.0747 -0.2891 -0.0553
83588W        W26682   9.029  24.388   3.215  0.3191 -0.0896 -0.3715
83589W        W26683  10.625  26.628   3.409 -0.0779 -0.2475 -0.0246
83590W        W26684   8.527  22.836   2.954  0.1931 -0.0380  0.0011
83591W        W26685  11.275  23.656   1.211  0.0468 -0.0337 -0.1298
83592W        W26686   8.704  21.116  31.381  0.0860 -0.0756 -0.0811
83593W        W26687   9.610  25.151   2.660  0.3208  0.2359  0.0936
83594W        W26688  11.479  24.491   2.748  0.1163  0.1711  0.1076
83595W        W26689   9.864  23.858   1.251 -0.2787  0.1327 -0.0204
83596W        W26690  10.454  22.587   1.400 -0.0406 -0.4328 -0.1358
83597W        W26691   7.834  24.156   1.789 -0.1234 -0.1793  0.2257
83598W        W26692  10.798  23.830   3.158  0.1668  0.4438  0.1884
83599W        W26693   7.701  24.293   0.460 -0.0196 -0.1775  0.2419
83600W        W26694   8.716  23.683   2.215  0.3489  0.0930 -0.1924
83601W        W26695   7.294  21.610   3.681  0.0943 -0.2277  0.1129
83602W        W26696  10.599  24.434   1.685  0.1390  0.2745  0.0152
83603W        W26697  10.132  22.273   1.721 -0.2956 -0.0410  0.0850
83604W        W26698  10.208  22.520   3.024 -0.0122 -0.1432  0.0159
83605W        W26699  10.781  22.857   2.861 -0.0114  0.1400  0.0738
83606W        W26700   8.138  22.375   3.264  0.2035  0.2099  0.1892
83607W        W26701   7.925  24.041   3.339 -0.0533 -0.2491 -0.1591
83608W        W26702  11.101  24.752   3.095 -0.0488  0.0314 -0.1503
83609W        W26703  10.077  23.061   1.452  0.0192  0.1018  0.1585
83610W        W26704  10.357  22.033   2.668  0.1570 -0.0355  0.1722
83611W        W26705  11.283  23.852   0.420  0.0805  0.1675  0.1741
83612W        W26706   9.798  22.378   0.557  0.3161  0.2114 -0.1906
83613W        W26707   8.361  21.900   1.740  0.3608 -0.4065  0.1000
83614W        W26708   9.554  24.091   4.030  0.4546 -0.2572  0.1929
83615W        W26709   9.394  22.614   1.080 -0.1695 -0.0152  0.1567
83616W        W26710  10.013  21.689   2.589  0.1723 -0.1930  0.1611
83617W        W26711   9.317  23.404  31.556  0.2345 -0.0139 -0.1950
83618W        W26712  10.896  23.613   1.606  0.1953 -0.2112 -0.2467
83619W        W26713   9.607  22.578   1.713  0.0069  0.0924  0.1557
83620W        W26714   7.492  21.421   1.308  0.0782 -0.1966 -0.3485
83621W        W26715   7.232  24.817   2.122  0.2236  0.4197  0.0223
83622W        W26716   9.080  21.957  31.840  0.0425 -0.1453 -0.4011
83623W        W26717   8.987  24.624   0.314 -0.1112  0.1045 -0.1754
83624W        W26718   8.860  25.018   2.404 -0.1637  0.1539  0.0941
83625W        W26719  10.824  25.457   3.270 -0.0780  0.0051 -0.1147
83626W        W26720   8.875  22.016   0.344 -0.1257  0.2663 -0.0583
83627W        W26721  12.451  22.961   3.132 -0.0329 -0.0482 -0.0562
83628W        W26722   7.419  23.971   0.703 -0.0126 -0.0568  0.1331
83629W        W26723   9.923  21.013   1.841 -0.2096  0.4047 -0.2609
83630W        W26724   8.015  25.946   1.747 -0.1250 -0.0741 -0.0689
83631W        W26725   8.358  24.272   3.255 -0.0179  0.1122 -0.0356
83632W        W26726   8.440  25.833   0.431  0.0655 -0.1709  0.0224
83633W        W26727   9.059  21.373   2.365  0.2842  0.3697 -0.2155
83634W        W26728  11.717  23.650   1.471 -0.6561  0.0030  0.1494
83635W        W26729   8.711  24.043   1.309 -0.0797 -0.1092 -0.1090
83636W        W26730  12.259  23.757   3.290 -0.2048 -0.2060  0.1238
83637W        W26731   8.322  25.391   1.677 -0.0664  0.4919 -0.1046
83638W        W26732   8.655  24.039   3.008 -0.1020  0.2066  0.0274
83639W        W26733   9.957  24.876   1.685  0.0884 -0.1910 -0.0335
83640W        W26734  11.427  24.957   1.809  0.2713  0.2101 -0.0351
83641W        W26735   7.714  24.379   0.956  0.2193  0.2585 -0.1156
83642W        W26736   8.644  24.008   3.948  0.2294  0.1701 -0.1189
83643W        W26737   9.509  24.182   3.520 -0.1055  0.1448 -0.2142
83644W        W26738   9.091  23.966   0.957 -0.2494  0.1610 -0.0611
83645W        W26739   7.815  21.267   0.781  0.2958 -0.0313 -0.1752
83646W        W26740   8.332  23.431   0.093 -0.0514  0.1397 -0.1290
83647W        W26741   7.193  25.713   2.880 -0.0029 -0.2456  0.1220
83648W        W26742   7.181  23.171   2.618  0.0664 -0.0562  0.3624
83649W        W26743   7.324  25.134   0.722  0.0534  0.0011  0.1509
83650W        W26744   9.751  25.273  31.319  0.1190 -0.0994  0.0938
83651W        W26745   9.881  24.225   0.283 -0.0894 -0.0034 -0.0608
83652W        W26746   9.665  25.111   0.765 -0.0376 -0.1234 -0.4059
83653W        W26747   8.977  23.119   0.852 -0.1365 -0.1347  0.1673
83654W        W26748   7.577  25.532   0.964  0.2861  0.0241 -0.1743
83655W        W26749   6.916  23.998   0.833  0.1845  0.3669 -0.0371
83656W        W26750   9.334  23.615   1.410 -0.1997 -0.5025 -0.1399
83657W        W26751   6.642  24.089   0.370 -0.1066  0.1091 -0.0746
83658W        W26752  10.845  25.163   3.750 -0.0188  0.2543 -0.0272
83659W        W26753   9.839  22.380   0.041  0.0560  0.0997  0.0373
83660W        W26754  12.183  23.551   1.746  0.4723 -0.0812 -0.0423
83661W        W26755  10.771  22.572   0.932  0.0771 -0.2933  0.0374
83662W        W26756  10.076  25.634   2.544 -0.0608 -0.1192 -0.3458
83663W        W26757  10.737  23.994   1.939 -0.0988 -0.0137 -0.0586
83664W        W26758   9.869  21.918  30.962 -0.1128 -0.0491  0.3025
83665W        W26759   8.770  23.331   3.260  0.1413  0.1405  0.1191
83666W        W26760  11.999  22.207   2.209  0.2770 -0.0261 -0.0866
83667W        W26761   7.073  24.911   2.971  0.1919 -0.1232 -0.1546
83668W        W26762   9.406  23.896  31.529  0.1229  0.2530  0.0456
83669W        W26763   8.573  22.343   1.974  0.0243  0.0918 -0.4792
83670W        W26764   8.558  24.923   1.622  0.1064  0.0601 -0.1832
83671W        W26765  10.663  21.594   1.941 -0.0584  0.1991 -0.3149
83672W        W26766   8.867  23.989  31.630 -0.1302 -0.0907  0.0589
83673W        W26767   9.783  23.278   3.023 -0.0286  0.1045  0.1388
83674W        W26768   8.104  24.834   0.828  0.0034 -0.2787 -0.1177
83675W        W26769   8.599  24.642   2.957  0.3190  0.1577  0.0062
83676W        W26770   8.208  24.401   2.735 -0.3908 -0.0848 -0.0837
83677W        W26771   8.609  22.477   0.569  0.0989  0.2738 -0.0140
83678W        W26772  10.433  23.455   2.379 -0.1127  0.0596  0.0096
83679W        W26773   7.581  22.892   2.751  0.0331 -0.0349 -0.0222
83680W        W26774  10.753  22.008   2.209  0.0735  0.2343 -0.1527
83681W        W26775   9.155  22.361   1.464 -0.0362 -0.2829 -0.1528
83682W        W26776  11.644  23.538   0.854  0.1154 -0.0493 -0.3599
83683W        W26777  10.235  24.324   2.047  0.1469 -0.2024  0.0817
83684W        W26778   7.489  23.156   4.108 -0.0602  0.3043  0.0108
83685W        W26779  11.499  23.127  31.181 -0.1829 -0.2679  0.0992
83686W        W26780   9.875  24.397   3.182 -0.1513 -0.2454  0.0392
83687W        W26781  10.453  22.544   0.532  0.2018  0.2862  0.4829
83688W        W26782   9.603  24.637   2.868 -0.0494  0.0706  0.0980
83689W        W26783   8.566  22.040   3.030  0.2110 -0.1637  0.1880
83690W        W26784   9.012  22.490  31.389  0.2073  0.1486  0.0997
83691W        W26785   8.404  22.532   2.519 -0.0640 -0.2877 -0.0166
83692W        W26786  10.863  23.813   4.072  0.2446  0.0710  0.2086
83693W        W26787   9.841  26.048   4.222 -0.1775 -0.1311 -0.0135
83694W        W26788   7.776  22.294   1.266  0.0577  0.0179  0.0223
83695W        W26789  10.512  23.897   0.581  0.0079 -0.1077  0.3575
83696W        W26790  12.611  22.553   1.039  0.2736 -0.1193  0.0453
83697W        W26791   7.715  25.910   0.491  0.3132  0.2331  0.1989
83698W        W26792  10.970  23.541   0.634  0.0598 -0.0631  0.1281
83699W        W26793  10.367  24.008   1.587 -0.0554 -0.0524  0.1704
83700W        W26794   8.129  23.886   2.778 -0.4757 -0.2443 -0.3967
83701W        W26795   9.190  25.504   1.447 -0.1363 -0.3445 -0.2015
83702W        W26796  11.093  25.379   2.014  0.1601 -0.1102 -0.0900
83703W        W26797   9.409  22.931   0.638  0.3039  0.4041 -0.0713
83704W        W26798   9.284  24.134   2.058  0.1244 -0.0570  0.2371
83705W        W26799   7.683  24.675   1.419 -0.1886 -0.1279 -0.0407
83706W        W26800  11.137  21.573   1.059  0.0982 -0.0931 -0.0234
83707W        W26801  12.920  23.262   2.952  0.1605  0.0247 -0.0302
83708W        W26802   8.159  22.730   0.029 -0.0120 -0.0371 -0.1094
83709W        W26803   8.624  21.555   3.179 -0.3313 -0.0304  0.3386
83710W        W26804  10.321  24.529   2.493  0.2173  0.1810  0.2565
83711W        W26805   8.252  25.593   3.136 -0.0130  0.0613  0.1434
83712W        W26806   7.736  21.924  30.961 -0.2283  0.0862  0.1529
83713W        W26807   7.286  24.006   3.236 -0.2405  0.1019  0.0446
83714W        W26808   8.530  24.764   0.495  0.2281  0.0632 -0.0202
83715W        W26809   9.120  25.279   0.914 -0.0283 -0.2495  0.1242
83716W        W26810   9.928  25.176   1.204 -0.0731  0.1244  0.1956
83717W        W26811  10.782  23.067   1.436  0.1978  0.0601  0.1981
83718W        W26812  10.645  25.309   0.599  0.0626 -0.2082  0.0809
83719W        W26813   9.156  22.799   1.744 -0.0669  0.1948 -0.2022
83720W        W26814  10.598  22.077   0.698 -0.2843 -0.0710 -0.0064
83721W        W26815  10.273  22.528   0.942  0.0204 -0.4483 -0.2408
83722W        W26816   8.653  24.667   2.042  0.0743  0.0939 -0.1205
83723W        W26817   6.355  24.140   1.366 -0.4207  0.2116 -0.1422
83724W        W26818   6.383  23.704   2.358 -0.1085 -0.2195  0.2705
83725W        W26819   7.800  25.492   1.566  0.1102  0.2221  0.0697
83726W        W26820   9.591  21.874   4.113 -0.0296 -0.0756 -0.2550
83727W        W26821   8.720  22.926   2.504  0.5237  0.2384  0.0671
83728W        W26822   8.748  24.162   2.052 -0.1962  0.0908  0.4016
83729W        W26823   8.780  24.394   0.737 -0.0900  0.2581  0.0450
83730W        W26824  10.791  25.313   1.535  0.1203  0.2117 -0.2752
83731W        W26825   8.378  20.617   3.463 -0.1549 -0.1028 -0.3785
83732W        W26826   8.063  21.435   1.155 -0.3364  0.1885 -0.3224
83733W        W26827   9.328  24.339   0.712  0.1091  0.0632 -0.0119
83734W        W26828  10.827  24.908   1.885 -0.0765  0.1620  0.4078
83735W        W26829  10.332  22.274   2.198 -0.0790  0.3639  0.1788
83736W        W26830  11.767  24.560   2.238  0.0250  0.0373  0.1632
83737W        W26831   6.504  25.130   0.273  0.0233  0.5629  0.0430
83738W        W26832   9.816  24.055   2.171 -0.3021 -0.0994 -0.1309
83739W        W26833   8.043  22.761   2.874  0.0307  0.2176  0.0449
83740W        W26834   6.769  21.690  31.661 -0.1714 -0.1170  0.3971
83741W        W26835   9.095  23.450   2.497 -0.0384 -0.0252 -0.0957
83742W        W26836   9.049  25.835   1.749 -0.1411 -0.1766  0.3986
83743W        W26837   9.515  23.818   0.275  0.0746  0.0943  0.0649
83744W        W26838  10.241  25.145   3.446  0.0789 -0.1841 -0.0664
83745W        W26839   8.979  26.044   3.379 -0.0319  0.2872  0.1057
83746W        W26840   7.249  20.419   2.918  0.0065 -0.0012 -0.0201
83747W        W26841  11.006  23.323   0.165  0.3067 -0.0822 -0.1691
83748W        W26842   9.341  25.076   3.584 -0.0842  0.1165 -0.2162
83749W        W26843  10.041  24.207   0.848  0.0636 -0.0808  0.1594
83750W        W26844  11.030  22.512   2.111 -0.1541  0.1172  0.5122
83751W        W26845   9.440  24.063   1.574  0.2208 -0.1204 -0.1244
83752W        W26846   7.883  23.125   3.280  0.0328 -0.0368  0.0798
83753W        W26847   8.386  23.585   4.087 -0.1994 -0.1605  0.1428
83754W        W26848  11.525  23.176   1.295  0.1906  0.2378 -0.0344
83755W        W26849   9.420  21.705   2.446  0.2767 -0.2696 -0.2037
83756W        W26850  10.171  21.790   2.035  0.0251 -0.3739  0.0526
83757W        W26851   9.588  24.236   1.150 -0.4298  0.1445 -0.1478
83758W        W26852   8.376  23.241   1.836  0.2519 -0.2269 -0.0787
83759W        W26853   9.823  23.795   1.739 -0.2034  0.4075 -0.3648
83760W        W26854   8.653  25.454   2.675 -0.0336  0.3518 -0.0274
83761W        W26855   9.087  23.715   1.873 -0.0507 -0.1920  0.0662
83762W        W26856   9.439  24.183   3.010 -0.0151  0.2058 -0.1584
83763W        W26857   8.895  23.184   1.948 -0.1179  0.0471  0.0002
83764W        W26858  10.886  25.042   0.952 -0.2963  0.0175  0.0199
83765W        W26859   8.900  25.737   2.225 -0.1725  0.0736  0.3356
83766W        W26860   9.936  25.213   4.355 -0.0567 -0.1197  0.0608
83767W        W26861  10.068  26.669   3.177  0.1517  0.3327  0.0366
83768W        W26862  11.442  24.192   1.271  0.1213 -0.0823 -0.0132
83769W        W26863   8.191  21.381   1.945 -0.1820 -0.1350  0.0243
83770W        W26864   6.587  23.648   0.765 -0.0613  0.0596  0.2715
83771W        W26865   8.974  24.310   1.651  0.1513 -0.0254 -0.1317
83772W        W26866  10.785  23.765   2.575  0.1627 -0.1967 -0.0710
83773W        W26867   8.491  22.064   2.460 -0.2258 -0.0554  0.0400
83774W        W26868   9.881  22.715   1.204 -0.0656 -0.0860 -0.1975
83775W        W26869   8.854  26.171   2.803  0.3065 -0.2073  0.1397
83776W        W26870  10.904  25.119   2.348  0.0766 -0.1289 -0.5442
83777W        W26871   8.629  25.425   6.459  0.2501  0.3343  0.1986
83778W        W26872   8.725  24.118   4.518  0.3860 -0.0204 -0.0187
83779W        W26873  10.525  22.952   2.290  0.1368  0.0280 -0.1002
83780W        W26874   9.651  23.620   3.937  0.0696  0.1403 -0.1379
83781W        W26875   8.055  21.934   5.635  0.0447  0.1285  0.0423
83782W        W26876  10.447  25.332   4.565  0.2678  0.4914  0.0849
83783W        W26877   7.726  21.418   5.310 -0.0191  0.1608 -0.1437
83784W        W26878  10.659  24.539   5.051  0.0783  0.1809 -0.0952
83785W        W26879   9.549  25.616   6.208  0.0441  0.1433  0.1206
83786W        W26880  10.502  23.722   3.674 -0.3543  0.1903 -0.0893
83787W        W26881   8.604  23.065   4.657 -0.1571 -0.1560  0.0918
83788W        W26882   8.322  26.310   6.055  0.0496 -0.0384 -0.1915
83789W        W26883   9.519  22.561   4.796 -0.2902 -0.0125 -0.3338
83790W        W26884   7.382  21.620   5.658 -0.2505  0.1095  0.1143
83791W        W26885  11.233  24.354   6.657 -0.0993  0.2127  0.0518
83792W        W26886   6.590  23.306   4.729 -0.0657  0.0437 -0.0397
83793W        W26887   8.855  23.359   5.706  0.4702 -0.2147  0.0031
83794W        W26888   9.114  23.947   4.252  0.2292  0.0102  0.0183
83795W        W26889   8.513  26.099   4.824 -0.0867  0.1142  0.0722
83796W        W26890   8.097  22.736   5.924  0.0858  0.2714 -0.1359
83797W        W26891   9.576  23.549   5.757 -0.1593  0.1333 -0.0486
83798W        W26892   9.715  25.134   3.940  0.1079  0.1736 -0.1220
83799W        W26893   8.219  24.429   4.207  0.1152 -0.1293 -0.1922
83800W        W26894   7.558  23.738   6.083  0.2205 -0.0579  0.3605
83801W        W26895   8.116  21.468   5.949  0.3096 -0.0814 -0.2202
83802W        W26896   8.552  21.920   7.460  0.1905  0.4317 -0.0813
83803W        W26897   9.531  25.165   4.847 -0.0643  0.0986 -0.0959
83804W        W26898   8.307  24.915   4.392 -0.0695  0.1730 -0.1369
83805W        W26899   9.205  26.762   3.656 -0.1789  0.1341  0.1526
83806W        W26900   9.849  21.981   7.340 -0.1163  0.0427 -0.1844
83807W        W26901   7.540  24.468   5.913  0.0806 -0.1505 -0.2589
83808W        W26902   7.197  27.314   6.318  0.0371 -0.0359  0.1790
83809W        W26903   7.546  24.400   3.447  0.0689 -0.2443  0.3200
83810W        W26904  12.155  25.013   4.762 -0.2683  0.1232  0.1975
83811W        W26905  11.016  24.104   5.084 -0.0645  0.1615 -0.1297
83812W        W26906   8.902  26.223   5.947  0.1128 -0.0538 -0.0696
83813W        W26907   6.948  24.790   4.323 -0.3286  0.1459  0.0516
83814W        W26908   8.517  24.367   7.583 -0.0315 -0.3308 -0.4080
83815W        W26909   7.949  26.639   6.186 -0.0270  0.2316 -0.0356
83816W        W26910   9.567  25.688   5.722 -0.0897 -0.0354  0.2697
83817W        W26911   9.915  23.784   5.435  0.2323  0.2750 -0.0733
83818W        W26912   8.143  24.462   4.688  0.0951 -0.1307  0.0487
83819W        W26913   9.569  25.482   5.259  0.0903 -0.2003  0.1836
83820W        W26914   8.867  26.186   7.892  0.5208  0.1512 -0.1370
83821W        W26915   8.229  25.365   4.975  0.0933 -0.0853  0.1472
83822W        W26916  10.894  22.753   6.752  0.0593 -0.2408 -0.2011
83823W        W26917   8.276  25.806   4.221 -0.0844  0.0849 -0.4680
83824W        W26918  10.802  22.284   3.550 -0.0752  0.4195 -0.0511
83825W        W26919   9.048  22.717   5.880 -0.1239 -0.2397 -0.0585
83826W        W26920  10.914  23.509   2.124 -0.2093  0.0878  0.1019
83827W        W26921   9.659  23.023   5.130  0.1348  0.1529  0.1670
83828W        W26922   8.577  25.919   6.151  0.0416  0.0937  0.1408
83829W        W26923   9.533  22.905   6.541 -0.0861  0.0606 -0.3392
83830W        W26924  11.063  24.993   5.322  0.0672  0.0134 -0.0749
83831W        W26925   9.581  24.770   5.178  0.0594  0.2820 -0.0658
83832W        W26926  10.462  23.957   6.026  0.1396 -0.1864  0.1507
83833W        W26927   7.775  25.490   7.693  0.0923 -0.1184 -0.3142
83834W        W26928   7.870  24.891   5.955 -0.1623  0.0591  0.1785
83835W        W26929   9.063  25.887   5.620 -0.0091  0.0724 -0.3970
83836W        W26930  10.505  25.859   5.258  0.3947  0.1530  0.3195
83837W        W26931   9.820  24.681   4.232 -0.0361  0.1873  0.1887
83838W        W26932   6.934  24.239   4.676 -0.1927 -0.4225 -0.2216
83839W        W26933   7.998  25.140   6.410  0.0190  0.0087  0.4086
83840W        W26934   8.068  23.442   7.378 -0.2960 -0.2660 -0.2590
83841W        W26935   8.139  21.692   5.100 -0.1947  0.0743  0.0051
83842W        W26936  10.864  25.112   7.023 -0.1619  0.0661  0.1056
83843W        W26937   7.402  25.153   7.711 -0.0050 -0.1028  0.0506
83844W        W26938  10.733  22.611   4.431 -0.1849 -0.1116  0.1554
83845W        W26939   8.670  25.118   4.959 -0.1875 -0.2673 -0.1449
83846W        W26940  10.121  25.992   4.688 -0.0999  0.1046  0.0004
83847W        W26941  10.677  24.455   3.226 -0.3314  0.1228  0.2440
83848W        W26942  10.357  22.728   5.087 -0.1787 -0.1958  0.0155
83849W        W26943   9.859  21.839   5.205 -0.2649  0.0447 -0.0566
83850W        W26944   8.184  24.283   3.728  0.3694  0.0874 -0.0406
83851W        W26945   8.700  24.557   4.700  0.2083  0.2166  0.0300
83852W        W26946  11.622  24.735   6.120 -0.0524  0.0206  0.1172
83853W        W26947   9.937  23.868   3.137  0.1148 -0.2278 -0.2675
83854W        W26948   7.994  25.565   5.468 -0.1530  0.0013 -0.1359
83855W        W26949   9.186  23.607   6.036 -0.1043 -0.2233 -0.1182
83856W        W26950   9.500  26.028   6.547 -0.1388  0.0497 -0.2131
83857W        W26951   7.448  25.249   3.001 -0.1889  0.2376 -0.2758
83858W        W26952   7.097  25.002   5.355 -0.0624  0.1512 -0.2835
83859W        W26953   7.841  25.157   3.482 -0.2147 -0.1221 -0.1436
83860W        W26954   8.075  22.877   5.405 -0.0807 -0.1239 -0.2990
83861W        W26955   9.172  25.390   5.619 -0.1742 -0.0384 -0.1772
83862W        W26956  12.123  22.078   4.053  0.0742 -0.4304 -0.1405
83863W        W26957   7.329  22.477   4.991 -0.2348  0.0715 -0.1409
83864W        W26958  11.025  20.984   4.276 -0.2894  0.5339 -0.1501
83865W        W26959   7.141  24.452   5.528  0.2404  0.1320 -0.0554
83866W        W26960   8.616  26.134   4.020 -0.1425  0.0979 -0.0456
83867W        W26961  11.980  23.339   3.654  0.2642 -0.2828 -0.1328
83868W        W26962   9.476  24.361   2.495  0.1898  0.1589 -0.0078
83869W        W26963   7.918  22.766   6.948 -0.3420 -0.3007  0.2021
83870W        W26964   8.799  23.331   4.267 -0.1492  0.1064  0.0500
83871W        W26965   7.621  22.160   6.253 -0.1063 -0.0887 -0.5682
83872W        W26966   7.908  24.155   6.118 -0.2053 -0.0611 -0.0177
83873W        W26967  10.498  24.053   4.827 -0.0711 -0.2998 -0.0228
83874W        W26968   7.648  21.880   2.930  0.0436 -0.0454 -0.1274
83875W        W26969  10.142  23.886   4.527 -0.1431 -0.3217 -0.1041
83876W        W26970   9.991  23.793   5.968 -0.0060 -0.1153  0.1919
83877W        W26971   7.627  24.079   5.659  0.1931  0.2561  0.1019
83878W        W26972   9.613  23.756   6.322  0.0597  0.0010 -0.1157
83879W        W26973   9.891  26.154   3.680 -0.3300 -0.0382  0.0467
83880W        W26974  10.841  26.755   6.976  0.0590  0.0439 -0.1850
83881W        W26975  10.047  25.611   6.081  0.0246  0.2949 -0.0721
83882W        W26976   8.708  24.691   5.972  0.0023  0.0387  0.0321
83883W        W26977   7.975  23.337   4.058 -0.0963 -0.0777  0.0504
83884W        W26978   8.276  26.399   5.175 -0.1280 -0.0229  0.0122
83885W        W26979   8.995  24.570   6.822  0.2672 -0.0004 -0.2906
83886W        W26980   9.193  22.643   3.437  0.2652  0.1542 -0.0930
83887W        W26981  10.189  26.318   5.319 -0.0515  0.3557 -0.1488
83888W        W26982   9.238  24.464   4.353  0.4364  0.3629  0.1892
83889W        W26983   8.160  24.117   5.688  0.2103 -0.0393  0.2298
83890W        W26984  11.562  21.386   7.393 -0.0409 -0.0201 -0.0429
83891W        W26985  11.357  23.872   5.594  0.1319 -0.2172 -0.0280
83892W        W26986   9.045  23.604   4.715  0.0067 -0.0491 -0.0727
83893W        W26987   8.416  22.381   4.278 -0.0688  0.0363  0.0428
83894W        W26988   8.821  26.888   5.633  0.2117  0.0674  0.0864
83895W        W26989   7.413  24.950   4.472 -0.1154  0.3478  0.0715
83896W        W26990   7.955  24.445   5.337 -0.0841  0.3151 -0.2125
83897W        W26991   8.268  25.150   5.520  0.0474  0.1710  0.0613
83898W        W26992  11.326  22.427   4.549 -0.0289 -0.1925  0.0689
83899W        W26993   7.287  23.415   5.817  0.2330  0.4664 -0.1275
83900W        W26994  10.102  23.299   5.344  0.1510 -0.1497  0.2561
83901W        W26995   7.825  23.878   5.271  0.2823 -0.2160 -0.2076
83902W        W26996   7.511  24.523   6.972 -0.1504 -0.1639 -0.0358
83903W        W26997  10.580  21.839   4.284  0.1003 -0.1072 -0.1753
83904W        W26998  10.954  21.491   2.338 -0.1278  0.3603  0.2967
83905W        W26999   8.195  25.622   6.337  0.0042  0.0576 -0.2112
83906W        W27000  10.143  24.896   4.702 -0.1507  0.1223  0.5578
83907W        W27001   9.566  22.097   3.483 -0.3382 -0.0213 -0.3601
83908W        W27002   7.821  21.821   3.689  0.1156  0.0953 -0.1071
83909W        W27003   7.130  24.372   6.731  0.0875 -0.2614 -0.2426
83910W        W27004   9.484  24.560   3.805 -0.0331  0.0201 -0.3994
83911W        W27005   9.339  24.053   5.636  0.0936 -0.2761  0.1715
83912W        W27006  10.293  22.443   3.580 -0.2090  0.1617  0.0917
83913W        W27007  11.504  24.807   3.418 -0.3163  0.0489 -0.2190
83914W        W27008   8.719  25.012   5.589 -0.0029 -0.0139  0.2703
83915W        W27009   9.338  26.037   6.021 -0.0876  0.1778  0.2576
83916W        W27010   8.660  25.504   4.048 -0.0685  0.0898 -0.0104
83917W        W27011   9.992  23.344   4.747 -0.0492  0.1422  0.0132
83918W        W27012   9.181  23.451   3.009  0.2036 -0.0502  0.1768
83919W        W27013  10.594  22.287   4.048  0.0052  0.1215  0.1657
83920W        W27014   7.830  26.210   4.363  0.0967 -0.3326 -0.0872
83921W        W27015  10.749  21.889   5.170 -0.1785 -0.2518  0.4225
83922W        W27016  10.268  22.065   6.572  0.2267 -0.0664  0.2617
83923W        W27017   9.075  22.022   5.106 -0.0624  0.1887 -0.0039
83924W        W27018  10.695  23.646   6.406 -0.0555 -0.0456 -0.0138
83925W        W27019  10.035  23.857   3.644 -0.2927 -0.1695 -0.3343
83926W        W27020  10.924  24.454   4.030 -0.0035 -0.0716 -0.0768
83927W        W27021   8.700  23.420   3.761 -0.0621  0.1162 -0.1601
83928W        W27022   9.059  22.808   6.453  0.1037 -0.0906  0.1201
83929W        W27023   7.988  24.539   7.179 -0.1894 -0.0198 -0.2107
83930W        W27024   8.294  26.803   7.391  0.1909  0.0743  0.2670
83931W        W27025  10.506  24.725   6.158  0.6010 -0.2814  0.2118
83932W        W27026   9.741  24.250   4.467 -0.0798 -0.0346 -0.1126
83933W        W27027   9.091  23.399   7.154 -0.2621 -0.1734  0.1871
83934W        W27028   8.837  22.947   3.602 -0.2422  0.0026  0.1735
83935W        W27029   7.429  27.059   3.222  0.0630  0.1087 -0.1455
83936W        W27030   8.414  25.311   3.539 -0.0119  0.2144 -0.0859
83937W        W27031   9.200  20.989   4.834  0.1437 -0.0066 -0.2733
83938W        W27032   9.358  24.967   4.342  0.1663 -0.0789 -0.1707
83939W        W27033  10.119  25.004   2.616  0.1328 -0.0809 -0.0051
83940W        W27034  11.722  23.609   6.788 -0.1828  0.0841  0.0738
83941W        W27035   7.889  25.412   4.468  0.1198  0.3240  0.0698
83942W        W27036  11.011  22.222   5.466  0.2119  0.1384 -0.0744
83943W        W27037   7.979  26.310   4.807 -0.4758  0.3157 -0.1483
83944W        W27038   9.492  23.658   3.438 -0.2791 -0.0807  0.3269
83945W        W27039   6.174  24.796   5.042 -0.1394  0.4920 -0.1477
83946W        W27040   9.541  23.806   4.405 -0.0858 -0.1342 -0.0918
83947W        W27041  10.770  24.978   4.245 -0.1519 -0.0288 -0.0514
83948W        W27042   8.335  23.811   5.282 -0.2038  0.1491  0.1594
83949W        W27043   9.121  22.876   4.058 -0.0699  0.0187 -0.0368
83950W        W27044   8.154  25.981   7.100  0.1746 -0.2111  0.4098
83951W        W27045   8.318  24.683   5.654  0.0676  0.0770  0.0862
83952W        W27046  11.029  22.957   3.367  0.0235  0.1662  0.2025
83953W        W27047   9.364  24.386   6.489 -0.1560  0.0230  0.3474
83954W        W27048   8.883  23.675   6.818 -0.1727  0.0221 -0.1350
83955W        W27049   7.139  22.691   2.841  0.2042  0.1771 -0.1551
83956W        W27050  11.644  23.617   6.295 -0.0313  0.0190 -0.1969
83957W        W27051   8.608  22.875   5.621  0.3719  0.0055  0.1697
83958W        W27052   9.786  27.187   5.658  0.1155  0.1722  0.3127
83959W        W27053  10.362  25.892   5.855 -0.0581 -0.0346  0.2615
83960W        W27054   9.157  23.633   3.846 -0.0089  0.0910 -0.2427
83961W        W27055   6.948  25.219   4.962  0.1291  0.2025  0.2714
83962W        W27056   8.434  23.344   7.690  0.0416  0.3567  0.1955
83963W        W27057  10.469  24.361   6.476 -0.0542  0.3810  0.1008
83964W        W27058   9.026  23.149   4.961 -0.0180 -0.0220 -0.3022
83965W        W27059   8.352  23.314   5.433 -0.3923  0.3304 -0.1038
83966W        W27060   9.269  21.993   4.626 -0.3373 -0.3241 -0.2192
83967W        W27061   9.922  26.103   6.024 -0.0108 -0.2074  0.3202
83968W        W27062  10.267  22.935   6.270  0.2493 -0.0318  0.0501
83969W        W27063   7.149  24.446   8.664  0.2558 -0.1602 -0.1399
83970W        W27064   8.101  20.963   5.588  0.2280  0.0348  0.0149
83971W        W27065  11.952  25.102   3.768 -0.2586  0.0663 -0.0731
83972W        W27066  11.052  24.469   7.136  0.0152 -0.0471 -0.1067
83973W        W27067   8.822  25.052   4.391  0.1908  0.2884  0.1206
83974W        W27068   8.145  26.111   6.550  0.3263  0.2894  0.1326
83975W        W27069   7.803  24.673   4.318  0.0950 -0.0629  0.5385
83976W        W27070  10.185  22.646   5.815  0.1285  0.0143  0.1954
83977W        W27071   7.674  24.993   6.735 -0.3024 -0.0331 -0.2041
83978W        W27072   8.017  23.897   3.989  0.1335  0.1570 -0.2210
83979W        W27073   7.183  25.943   5.865  0.2956  0.4127 -0.1767
83980W        W27074  11.049  21.620   3.596  0.0344  0.1898 -0.0853
83981W        W27075   8.872  25.261   3.638  0.1742 -0.2459  0.2160
83982W        W27076  10.477  23.048   4.500 -0.1646  0.0953 -0.2528
83983W        W27077  11.343  22.143   6.329 -0.0926 -0.0412 -0.2904
83984W        W27078  10.478  23.209   3.672 -0.3515 -0.2767  0.0184
83985W        W27079  10.228  22.185   7.876 -0.0465 -0.1226 -0.1441
83986W        W27080   8.641  20.909   5.700 -0.3017  0.1287  0.2175
83987W        W27081  11.166  24.760   6.227  0.1990  0.0890  0.0088
83988W        W27082   7.836  22.071   4.812 -0.2864 -0.4530 -0.0550
83989W        W27083   9.075  24.794   8.042  0.0015  0.1115 -0.0298
83990W        W27084   7.191  23.819   8.716  0.1044 -0.1215 -0.3352
83991W        W27085   8.553  23.569   4.670  0.0467  0.4435  0.2418
83992W        W27086   8.581  21.944   4.040 -0.3578 -0.1877 -0.0851
83993W        W27087  10.192  24.475   5.093 -0.0461 -0.1271  0.1195
83994W        W27088   9.696  24.674   6.168  0.0597 -0.1597 -0.1808
83995W        W27089   8.587  26.379   3.585 -0.0401  0.6317 -0.2183
83996W        W27090  10.740  23.631   5.191 -0.2543  0.0714  0.1098
83997W        W27091   8.874  25.165   6.094  0.1699  0.1718 -0.1276
83998W        W27092  10.771  24.529   4.491 -0.0870 -0.1207 -0.2019
83999W        W27093   8.169  23.487   3.075 -0.1423 -0.0619  0.2059
84000W        W27094   7.651  24.577   4.770  0.2421 -0.0690 -0.0727
84001W        W27095   9.339  22.456   6.209  0.0332  0.1206 -0.1198
84002W        W27096   9.076  24.800   3.953 -0.1223  0.2006  0.0603
84003W        W27097   9.755  24.226   5.188 -0.0447 -0.2691  0.0522
84004W        W27098   9.559  22.521   5.704  0.2617  0.1657 -0.2585
84005W        W27099  10.960  23.928   7.322  0.3753 -0.0637  0.0420
84006W        W27100   9.191  23.957   6.497  0.0348  0.0967 -0.0577
84007W        W27101   7.975  22.290   6.711  0.0408 -0.0111  0.0442
84008W        W27102  10.875  26.138   6.103 -0.0655  0.1273 -0.1638
84009W        W27103  10.831  23.255   4.090  0.2681 -0.0841 -0.1870
84010W        W27104   9.898  21.782   6.279 -0.0919  0.0103 -0.0533
84011W        W27105   9.914  22.824   4.469  0.0823 -0.0680  0.3325
84012W        W27106   9.056  22.945   2.960  0.3797  0.4884  0.0316
84013W        W27107   8.569  24.145   5.968 -0.3162  0.0280  0.1120
84014W        W27108  10.698  23.635   7.970  0.0516  0.0435  0.0261
84015W        W27109   8.070  22.972   4.770 -0.0446  0.0091  0.2368
84016W        W27110  10.158  23.242   5.811  0.0562  0.0465  0.2490
84017W        W27111  10.798  25.646   2.786  0.1503  0.4181 -0.1936
84018W        W27112   9.647  24.681   4.704  0.2918 -0.0383  0.2654
84019W        W27113  10.468  24.207   3.830  0.0850 -0.1388  0.0421
84020W        W27114   7.359  24.017   4.714  0.0181 -0.1120  0.0047
84021W        W27115   8.691  26.314   6.392  0.2321  0.0267 -0.0300
84022W        W27116   7.104  24.127   3.716  0.1959 -0.0114 -0.1435
84023W        W27117   8.685  24.535   4.128 -0.1287  0.0056  0.0487
84024W        W27118   9.209  25.150   5.179 -0.2846 -0.0203  0.1101
84025W        W27119  10.578  24.504   7.026 -0.2390 -0.0622 -0.2733
84026W        W27120   8.912  22.035   3.576 -0.3514  0.3874  0.4331
84027W        W27121  11.478  22.609   6.416  0.2398 -0.1905  0.1308
84028W        W27122   7.651  25.827   4.609 -0.1587  0.1404 -0.1137
84029W        W27123  10.265  21.030   5.033  0.0480  0.1086 -0.2410
84030W        W27124   9.106  25.701   6.913  0.1301  0.2938  0.1545
84031W        W27125   7.516  25.131   6.258 -0.1419 -0.0757  0.1533
84032W        W27126   8.395  25.807   5.156  0.1263  0.0108  0.2302
84033W        W27127   9.284  23.347   6.539 -0.0160 -0.1156 -0.2343
84034W        W27128  10.774  24.383   6.005  0.3059  0.1203  0.1210
84035W        W27129   9.296  23.363   4.230 -0.0923  0.1866 -0.0534
84036W        W27130  10.474  23.649   5.682  0.3915  0.0365  0.4893
84037W        W27131   8.260  25.405   6.891 -0.3120 -0.1354  0.1205
84038W        W27132   8.300  23.203   5.968  0.1384 -0.0051  0.0712
84039W        W27133   9.177  25.403   6.478 -0.1005 -0.1316  0.1281
84040W        W27134   9.733  23.764   4.857  0.0412  0.0087  0.0722
84041W        W27135   8.542  25.477   5.802 -0.0903  0.0994 -0.0384
84042W        W27136   7.388  22.545   5.932  0.1632  0.1819 -0.2647
84043W        W27137   9.100  24.893   6.490  0.0191  0.1967 -0.1819
84044W        W27138   8.952  24.443   5.634 -0.1358  0.1978 -0.2066
84045W        W27139   8.685  22.786   4.277 -0.1540 -0.1487 -0.1626
84046W        W27140   9.798  24.898   3.506 -0.4119  0.0698 -0.1286
84047W        W27141   8.151  24.878   6.858 -0.3287  0.1291  0.2921
84048W        W27142   8.767  23.276   6.192  0.0649 -0.0777 -0.3409
84049W        W27143   7.476  26.283   4.891 -0.1241  0.1078  0.1808
84050W        W27144   9.049  25.886   3.937 -0.1586  0.1002  0.0142
84051W        W27145   8.697  25.851   4.427 -0.3055  0.1328 -0.3427
84052W        W27146   9.357  25.074   6.031  0.0571  0.4220 -0.0051
84053W        W27147   9.530  23.644   2.170  0.1957  0.0321  0.1904
84054W        W27148   7.319  26.710   5.351  0.3507 -0.1387  0.1845
84055W        W27149   7.537  25.724   5.621 -0.1392 -0.0885 -0.0628
84056W        W27150  10.300  26.424   3.796 -0.1589  0.0111 -0.2319
84057W        W27151   7.454  25.032   4.991 -0.1560 -0.0036  0.0663
84058W        W27152  10.051  24.660   6.992 -0.1751  0.4284 -0.2052
84059W        W27153  10.533  22.487   2.614 -0.4890  0.1192 -0.5103
84060W        W27154   9.186  24.592   6.030  0.0863 -0.2073  0.1533
84061W        W27155  10.336  21.907   4.711  0.1621 -0.3026 -0.0420
84062W        W27156  11.598  24.144   6.431 -0.0124  0.0608  0.0843
84063W        W27157   9.322  23.102   6.085 -0.0347 -0.2400  0.0418
84064W        W27158   8.667  22.482   3.343 -0.1039 -0.0636  0.0778
84065W        W27159   7.556  23.777   7.126 -0.2803  0.1741  0.3374
84066W        W27160  11.625  21.076   6.921 -0.0213 -0.1359 -0.0945
84067W        W27161   7.594  26.317   7.048 -0.0625 -0.0974 -0.0650
84068W        W27162  11.275  24.915   4.468 -0.0102 -0.2209  0.2339
84069W        W27163   8.406  24.094   4.907  0.2058  0.1227  0.1582
84070W        W27164   9.368  23.725   5.269 -0.3520 -0.0537 -0.0767
84071W        W27165  10.350  24.016   5.291  0.2630  0.1627 -0.0085
84072W        W27166  10.324  24.281   2.889 -0.1672 -0.0760  0.1150
84073W        W27167   9.954  22.346   4.903  0.3804  0.0297 -0.1097
84074W        W27168   9.658  25.162   5.624  0.0198  0.3066 -0.0041
84075W        W27169   8.827  26.054   5.194  0.0406 -0.0160  0.1192
84076W        W27170   8.534  25.931   5.610 -0.3232  0.0876 -0.3095
84077W        W27171   8.773  22.147   4.472 -0.0209 -0.4547 -0.0493
84078W        W27172  11.529  22.249   3.963  0.2461 -0.3500  0.1404
84079W        W27173   8.328  22.428   7.141 -0.0621  0.0912  0.0854
84080W        W27174  10.735  22.772   5.944  0.0915 -0.2065  0.2451
84081W        W27175   8.111  23.477   5.028 -0.0486 -0.1344  0.3666
84082W        W27176  10.197  23.362   3.276 -0.0179 -0.2730  0.0092
84083W        W27177   9.014  25.941   6.423  0.1189  0.2880  0.0859
84084W        W27178   7.710  23.022   5.710 -0.0195  0.0912  0.0504
84085W        W27179   9.105  23.903   3.241  0.0236 -0.0666  0.1629
84086W        W27180  10.511  23.792   7.433  0.1834  0.0995  0.1848
84087W        W27181   9.986  22.886   3.263  0.2318  0.1660 -0.0219
84088W        W27182  10.053  24.957   6.434 -0.5575 -0.1692 -0.2738
84089W        W27183   7.965  23.620   5.615  0.0507  0.2658  0.0279
84090W        W27184  10.274  23.015   4.044  0.1581 -0.1443  0.7391
84091W        W27185   8.900  24.704   5.241  0.1421  0.3385 -0.3687
84092W        W27186  10.690  23.288   6.053  0.0983  0.2285  0.0236
84093W        W27187  10.435  25.203   6.257  0.0842  0.2087 -0.1175
84094W        W27188   7.661  21.914   5.270  0.0438  0.1170 -0.1902
84095W        W27189  10.390  25.947   4.242 -0.1582 -0.1226  0.0323
84096W        W27190  10.184  24.362   6.093  0.1863 -0.2824  0.0621
84097W        W27191   8.867  24.838   3.340  0.1113  0.2299  0.0147
84098W        W27192  10.226  24.401   4.573  0.1749  0.3078  0.0204
84099W        W27193  11.186  25.942   5.267 -0.2662 -0.0261 -0.0434
84100W        W27194   7.160  24.617   5.016 -0.1104 -0.0454 -0.1919
84101W        W27195  10.106  25.429   5.556  0.3412  0.0549  0.2951
84102W        W27196   9.880  24.442   6.566 -0.0998  0.2314 -0.0917
84103W        W27197   9.481  23.346   4.717 -0.0944 -0.0703 -0.1969
84104W        W27198   9.267  24.373   5.190 -0.0381  0.1203  0.1248
84105W        W27199   7.829  25.929   5.166 -0.1675 -0.2954  0.1408
84106W        W27200  11.262  23.424   6.055 -0.0035 -0.4669  0.2335
84107W        W27201  10.460  23.253   4.993  0.0703 -0.0948 -0.2194
84108W        W27202   9.891  25.061   3.048 -0.4436  0.1019  0.0904
84109W        W27203  10.680  23.197   5.496  0.1801 -0.0824  0.0921
84110W        W27204   8.307  26.614   6.535 -0.0156  0.0392  0.1274
84111W        W27205   8.884  25.196   6.854 -0.0634  0.0176 -0.0806
84112W        W27206   8.218  23.934   4.437 -0.1624  0.0818  0.1060
84113W        W27207   9.575  24.544   5.647  0.1436  0.3927  0.2788
84114W        W27208   9.029  25.504   4.447 -0.0013  0.0677 -0.0252
84115W        W27209   9.100  26.018   4.726  0.2628  0.0179 -0.0797
84116W        W27210  10.242  25.486   4.985  0.1383  0.2312 -0.0443
84117W        W27211  10.418  23.578   4.145 -0.0208 -0.2021 -0.0534
84118W        W27212  10.768  24.686   6.562  0.1259  0.0853  0.0251
84119W        W27213   9.128  22.104   4.113 -0.0038 -0.0956 -0.2633
84120W        W27214   9.955  22.124   3.780 -0.0028  0.1628  0.2914
84121W        W27215   9.823  21.678   3.647  0.1650  0.0814  0.3000
84122W        W27216   7.770  22.407   5.519 -0.1560 -0.0010  0.1333
84123W        W27217   7.768  23.515   2.720  0.0047  0.2911 -0.2680
84124W        W27218   8.258  24.852   3.368 -0.2635 -0.2625  0.0718
84125W        W27219   8.255  24.517   6.209 -0.1259 -0.1411  0.1633
84126W        W27220   8.702  22.082   6.976  0.1074  0.1813 -0.2870
84127W        W27221   8.147  21.965   7.046  0.2225  0.0400  0.1624
84128W        W27222   8.842  23.974   5.113  0.3148 -0.1330 -0.1028
84129W        W27223   7.902  22.965   3.749  0.1742  0.0597  0.2675
84130W        W27224   9.947  24.417   3.757 -0.2034 -0.0593 -0.0636
84131W        W27225   8.329  21.921   4.574 -0.2312 -0.0678  0.0324
84132W        W27226   8.689  22.352   5.871 -0.2113 -0.1191  0.1012
84133W        W27227  12.001  24.657   4.353  0.1006 -0.0004  0.0604
84134W        W27228   9.541  25.550   4.399 -0.2026  0.0312 -0.0987
84135W        W27229   9.166  22.962   4.559 -0.2092 -0.1105  0.0830
84136W        W27230  10.590  26.065   7.557  0.0300 -0.1940  0.0059
84137W        W27231   6.868  25.858   5.429 -0.0008  0.3301  0.0839
84138W        W27232   8.584  23.920   8.237 -0.1054  0.2047 -0.2403
84139W        W27233   8.724  23.224   6.715  0.1454 -0.0530  0.0236
84140W        W27234   6.688  23.300   3.494 -0.0097 -0.3845  0.2910
84141W        W27235   8.846  23.858   5.623 -0.0074  0.2561  0.2827
84142W        W27236   8.742  25.428   5.359 -0.0204  0.0528 -0.0532
84143W        W27237  10.142  26.915   3.644  0.1150 -0.1194  0.4226
84144W        W27238   8.946  25.609   6.038  0.0732  0.0889 -0.0289
84145W        W27239   9.589  25.559   6.733 -0.0154  0.1516 -0.1663
84146W        W27240   8.523  22.990   5.120 -0.0631 -0.1100 -0.0564
84147W        W27241   8.456  24.951   3.868  0.1985 -0.0491 -0.0075
84148W        W27242   9.645  24.182   6.106  0.2546  0.2831 -0.1745
84149W        W27243  11.163  25.147   3.368 -0.1517 -0.1649 -0.0216
84150W        W27244  10.961  23.475   3.597 -0.1488 -0.0429 -0.4556
84151W        W27245   9.180  25.356   3.996 -0.0388 -0.1392  0.3818
84152W        W27246   8.802  22.381   6.467 -0.0132  0.0677  0.2385
84153W        W27247   8.267  23.997   6.493 -0.0144 -0.0634  0.1182
84154W        W27248  10.874  25.151   6.404  0.1884 -0.0047 -0.1103
84155W        W27249   9.772  23.054   5.592 -0.0010  0.1800  0.0846
84156W        W27250   9.869  23.317   4.238 -0.0101  0.1941 -0.0329
84157W        W27251   9.574  25.614   2.680  0.0014 -0.0938 -0.0360
84158W        W27252   7.573  25.211   5.593 -0.0159  0.0025 -0.0625
84159W        W27253   9.893  23.197   3.679  0.0494 -0.1292  0.0641
84160W        W27254   9.571  23.200   7.005 -0.0193 -0.0631 -0.0558
84161W        W27255   9.214  24.069   4.789 -0.0928  0.0443  0.1577
84162W        W27256  11.147  26.261   6.541  0.0945  0.0945 -0.1203
84163W        W27257   8.504  24.337   5.353 -0.3877 -0.0143  0.2788
84164W        W27258  12.819  24.119   4.531 -0.0962  0.2257  0.2395
84165W        W27259  10.452  25.750   6.418 -0.0218  0.1205 -0.0760
84166W        W27260  10.514  25.565   7.223  0.2234 -0.3704  0.0942
84167W        W27261   9.613  25.110   6.574 -0.0326  0.1200 -0.1154
84168W        W27262   9.268  23.221   5.489  0.0009 -0.0603  0.2124
84169W        W27263   7.973  22.498   4.610  0.1035  0.1305 -0.0754
84170W        W27264   7.557  24.719   5.409  0.1231 -0.1480 -0.1724
84171W        W27265   8.326  24.702   5.041 -0.0142  0.0496  0.1721
84172W        W27266  10.076  23.980   6.419  0.2016  0.0529 -0.3211
84173W        W27267   8.707  23.501   5.108  0.0497 -0.3866 -0.4147
84174W        W27268   9.923  23.184   2.376 -0.0642  0.0791 -0.0591
84175W        W27269   9.186  26.472   6.304 -0.0053  0.1975  0.3580
84176W        W27270   9.163  24.770   4.797 -0.0231  0.0342 -0.2189
84177W        W27271   7.604  26.203   9.194  0.1136  0.1090  0.1183
84178W        W27272   8.035  22.997   7.798  0.1868  0.1052  0.3714
84179W        W27273  11.037  22.944   7.438 -0.0188 -0.1153  0.2182
84180W        W27274  10.599  25.258   8.173  0.2779 -0.1689 -0.0092
84181W        W27275   8.923  23.084   8.590 -0.0216 -0.1090  0.0094
84182W        W27276   9.345  25.291   8.112 -0.2109  0.0045 -0.1312
84183W        W27277   7.979  25.223   9.993 -0.0239 -0.2373 -0.0321
84184W        W27278  11.471  22.374   9.127  0.3019 -0.0525 -0.0224
84185W        W27279   9.926  23.537   6.831  0.2284 -0.0916  0.3014
84186W        W27280   9.577  24.031   9.704 -0.0217 -0.0516  0.0944
84187W        W27281   9.014  22.526   7.184  0.2986 -0.0024  0.2779
84188W        W27282   8.711  22.156   8.826 -0.0701 -0.0227  0.0519
84189W        W27283  10.082  23.992   8.662 -0.0836  0.0742  0.0143
84190W        W27284   7.606  24.817   8.693  0.0807  0.2543 -0.0423
84191W        W27285   8.746  24.452   9.260 -0.3211 -0.0506  0.0558
84192W        W27286   9.261  23.387   8.990  0.0081 -0.0442  0.1677
84193W        W27287   9.100  25.025   8.523 -0.0452  0.0363 -0.3724
84194W        W27288   7.807  23.243  10.146 -0.1614 -0.1053 -0.0815
84195W        W27289   7.738  25.098   8.168 -0.6622  0.0960  0.1010
84196W        W27290   8.395  23.837   7.707 -0.0046 -0.0610 -0.1251
84197W        W27291   7.312  22.423   9.377  0.1324 -0.1850 -0.1125
84198W        W27292   7.717  23.832   8.550 -0.1200  0.2608  0.0232
84199W        W27293  10.481  20.581   8.112  0.1405 -0.1308 -0.1372
84200W        W27294  10.972  23.663   9.107  0.0787  0.2286  0.1902
84201W        W27295   6.796  24.744   9.818  0.2591 -0.1161 -0.3490
84202W        W27296   9.393  24.640   9.135 -0.1108 -0.0641 -0.1138
84203W        W27297   6.208  23.904   8.214 -0.2681  0.2700 -0.3092
84204W        W27298   7.108  24.539   9.255  0.0073 -0.2651 -0.0957
84205W        W27299   9.076  24.055   8.182 -0.0122 -0.1307  0.1046
84206W        W27300  10.086  24.537   8.696  0.2573 -0.2033 -0.1714
84207W        W27301   9.240  26.388   6.781 -0.0393  0.2311 -0.0601
84208W        W27302  10.005  24.946   7.941 -0.2228  0.0540 -0.0486
84209W        W27303   8.504  23.896   9.102 -0.1320 -0.2530  0.0364
84210W        W27304   9.135  25.135   7.688 -0.0805 -0.1449  0.1546
84211W        W27305   7.306  24.489   9.746 -0.6763  0.4931  0.1332
84212W        W27306   6.962  25.457   9.098  0.0618  0.1240 -0.3051
84213W        W27307   8.572  25.748   7.187  0.0148 -0.0431 -0.1717
84214W        W27308   9.727  23.755   7.271  0.2288 -0.1331  0.0772
84215W        W27309   7.838  22.638   6.336  0.0958  0.4375  0.1513
84216W        W27310  11.542  23.545   7.865  0.2794 -0.1692 -0.2130
84217W        W27311   9.122  22.456   8.743  0.2683  0.0947  0.3103
84218W        W27312   8.010  24.762   9.083 -0.2604 -0.0112 -0.0459
84219W        W27313   6.345  25.874   9.063  0.2514  0.2034  0.1075
84220W        W27314   8.865  25.315   8.123  0.3202 -0.0160 -0.0204
84221W        W27315   9.850  21.143   9.258 -0.1646  0.2457 -0.0376
84222W        W27316   8.248  26.271   9.374 -0.0812 -0.3053 -0.0092
84223W        W27317   6.036  23.779   9.576 -0.0958 -0.1783  0.0083
84224W        W27318   9.908  25.123   7.003 -0.0903 -0.1664  0.1291
84225W        W27319   9.570  24.824   8.154  0.1084  0.1718 -0.2938
84226W        W27320   9.230  24.577   7.619 -0.1551  0.0035 -0.1714
84227W        W27321   7.405  24.452   7.830  0.2894  0.0252  0.0860
84228W        W27322   8.165  22.174   7.539  0.0898 -0.1631  0.1246
84229W        W27323  11.057  22.320   9.479 -0.3445  0.0511  0.0427
84230W        W27324   7.753  24.544   8.176 -0.0563  0.0398 -0.0998
84231W        W27325  10.075  23.941   9.153  0.1988  0.1593  0.0516
84232W        W27326  11.046  23.932   6.013  0.0407  0.2758 -0.2694
84233W        W27327  10.345  22.656   8.802 -0.1977 -0.1936 -0.0688
84234W        W27328   9.640  23.113   8.922 -0.0231  0.0307 -0.2493
84235W        W27329   8.490  24.534   7.065 -0.1003 -0.0451 -0.0444
84236W        W27330   9.612  24.202   8.700 -0.1401  0.3064  0.3728
84237W        W27331  10.892  24.420   9.011  0.0007 -0.2216  0.2386
84238W        W27332  11.563  22.212   7.104  0.1020  0.0510  0.0371
84239W        W27333   8.849  25.761   9.650 -0.1452  0.0311 -0.1029
84240W        W27334   9.073  26.464   8.253  0.0077 -0.2963 -0.1620
84241W        W27335   8.183  24.310  10.131  0.3388  0.0953 -0.0272
84242W        W27336   7.331  25.278   7.087  0.0330  0.3014 -0.0832
84243W        W27337   5.715  22.939   9.099  0.0072 -0.0845  0.2362
84244W        W27338   6.347  24.425   9.871 -0.1551 -0.1334  0.2864
84245W        W27339   9.008  21.186   7.212  0.0946 -0.1483 -0.5661
84246W        W27340  10.699  21.955   9.379 -0.0513 -0.0238  0.2684
84247W        W27341   7.045  24.797   7.676 -0.2125  0.0487 -0.3551
84248W        W27342   8.998  24.817   9.593  0.0310  0.1677  0.2538
84249W        W27343  10.140  22.445   7.485  0.1253  0.2624  0.0459
84250W        W27344   9.450  23.457   7.504 -0.0014  0.0355  0.1607
84251W        W27345   6.357  22.998   9.414  0.1356 -0.0385 -0.1910
84252W        W27346   7.927  23.992   8.109 -0.0335 -0.0727 -0.1928
84253W        W27347   8.407  23.491   9.382 -0.4904 -0.0251  0.0593
84254W        W27348   7.904  20.935   7.962  0.1058 -0.1196  0.1580
84255W        W27349  10.263  23.448   7.222 -0.0500 -0.1059  0.1851
84256W        W27350   8.314  23.609   6.777 -0.1402  0.2693  0.0164
84257W        W27351   7.634  24.084   6.582  0.3310  0.2187 -0.2935
84258W        W27352   8.629  25.738   8.097  0.2523  0.3295  0.0544
84259W        W27353  10.353  24.320   9.598 -0.0019 -0.0430  0.3557
84260W        W27354  10.323  24.400   8.125 -0.2275 -0.1172 -0.2250
84261W        W27355   9.338  23.040   9.431  0.0974 -0.0723 -0.0787
84262W        W27356   8.829  23.034   7.369 -0.0594  0.0292  0.3987
84263W        W27357   6.137  24.468   9.004 -0.0954 -0.2649 -0.0259
84264W        W27358   6.287  25.731   7.587  0.0001  0.0025 -0.2194
84265W        W27359   9.298  22.935   7.406 -0.1223 -0.4454 -0.1845
84266W        W27360   9.610  23.306   9.765  0.0967 -0.2295 -0.1235
84267W        W27361   8.861  23.466   8.160  0.1105 -0.1910  0.2384
84268W        W27362  12.236  22.939   8.785  0.0590 -0.2776  0.2953
84269W        W27363   9.586  23.164   7.859 -0.1278  0.0341  0.0194
84270W        W27364   7.266  22.845   8.177  0.0635 -0.4207 -0.2144
84271W        W27365   9.499  25.660   9.314  0.0325  0.1085  0.0789
84272W        W27366   7.975  26.356   7.447  0.3796 -0.0926  0.0148
84273W        W27367   7.674  23.424   7.690  0.2459  0.0199 -0.0890
84274W        W27368   8.024  25.320   8.624  0.0701  0.1566 -0.1506
84275W        W27369  10.131  23.090   8.944  0.2190 -0.0215  0.0934
84276W        W27370   8.363  23.063   7.062  0.1994  0.1590 -0.3726
84277W        W27371   8.817  21.588   6.250 -0.2302  0.1929  0.0638
84278W        W27372  11.820  21.014   7.705  0.1975 -0.2011 -0.2792
84279W        W27373  10.239  24.123   6.911  0.0499 -0.0688 -0.0971
84280W        W27374  10.446  23.180   6.656 -0.0631 -0.1364 -0.0904
84281W        W27375   9.821  23.253   6.374  0.2935  0.1729  0.1958
84282W        W27376   9.088  24.077   8.808  0.2178  0.1045  0.1355
84283W        W27377   5.790  24.574   9.910 -0.0428  0.1905  0.0279
84284W        W27378   9.643  22.638   6.984  0.1420 -0.1409  0.2611
84285W        W27379  10.973  24.986   7.885 -0.1986  0.1797  0.0192
84286W        W27380   7.687  24.425  10.155 -0.0917  0.0587 -0.2405
84287W        W27381   9.520  24.855   8.684  0.1492  0.2513 -0.3209
84288W        W27382  14.160  20.301   9.125  0.0232  0.1017  0.1502
84289W        W27383   9.028  24.076   6.033 -0.1426 -0.0521 -0.2663
84290W        W27384   9.250  22.597   7.825 -0.0639 -0.0591  0.3280
84291W        W27385   6.785  26.016   8.105 -0.1671  0.3765 -0.0550
84292W        W27386   9.590  22.116   8.771 -0.0396 -0.2010 -0.0561
84293W        W27387   9.926  21.760   8.560 -0.1962  0.0115  0.1851
84294W        W27388  11.224  23.256   7.004  0.3021  0.1281  0.0877
84295W        W27389   8.579  22.690   9.107 -0.1193  0.2034  0.2102
84296W        W27390   7.585  24.750   7.454 -0.0252  0.0265 -0.0826
84297W        W27391   8.978  21.904   9.610  0.1805  0.3162  0.0662
84298W        W27392   5.597  26.565   8.607 -0.1561 -0.1529 -0.2043
84299W        W27393   9.380  23.290   8.368  0.0687  0.1521 -0.0816
84300W        W27394   9.500  22.043   6.946 -0.2032 -0.0746  0.2172
84301W        W27395   7.646  26.283   8.697  0.0379 -0.1924 -0.0307
84302W        W27396   7.814  24.337   8.637 -0.0356 -0.2651 -0.2275
84303W        W27397   9.058  22.821   9.046 -0.2143  0.0932  0.0659
84304W        W27398   7.572  23.536   9.838  0.1078 -0.0517  0.2715
84305W        W27399   9.568  25.623   7.573  0.1539  0.2702 -0.1839
84306W        W27400   8.987  25.169   8.977 -0.1127 -0.1138  0.0363
84307W        W27401   8.113  24.738   8.621  0.2210 -0.1326 -0.1924
84308W        W27402   9.700  21.650   9.380 -0.1563 -0.2150 -0.4342
84309W        W27403   7.491  25.931   9.851 -0.0255  0.1576 -0.2642
84310W        W27404   8.463  23.110   8.304  0.0527  0.0354  0.0002
84311W        W27405   6.909  23.426   8.488  0.0711 -0.2116  0.3566
84312W        W27406   8.580  22.633   8.114 -0.0898 -0.2238  0.1333
84313W        W27407  10.215  24.677   7.498 -0.0127  0.0504 -0.1917
84314W        W27408   9.962  19.754  10.457  0.0177  0.2238  0.0672
84315W        W27409   9.658  22.664   9.637  0.0325 -0.0041 -0.0379
84316W        W27410   7.944  26.176   9.872  0.0354  0.0600 -0.2182
84317W        W27411  10.216  23.487   6.317  0.1951  0.3312  0.1119
84318W        W27412   7.791  22.332   7.144  0.1330  0.0120 -0.1098
84319W        W27413  12.220  21.117  10.010  0.1965  0.0282 -0.3299
84320W        W27414   9.459  22.434   7.411  0.1807  0.2149 -0.1394
84321W        W27415   6.544  25.160   8.217  0.2954  0.0035 -0.0555
84322W        W27416   9.454  24.060   9.149 -0.0795 -0.0839 -0.1099
84323W        W27417   8.379  24.045   7.199 -0.1867  0.2239 -0.0384
84324W        W27418   7.350  25.211   8.462  0.1190  0.0806 -0.4611
84325W        W27419  10.315  23.559   8.720 -0.0563 -0.0191 -0.5070
84326W        W27420   9.284  23.663   7.892 -0.2751 -0.1612  0.2002
84327W        W27421   8.239  24.357   8.304  0.4193  0.0849 -0.1550
84328W        W27422   9.783  23.644   8.720 -0.1142  0.0819 -0.0926
84329W        W27423   8.334  24.936   9.644 -0.1162 -0.0713 -0.1686
84330W        W27424   9.574  19.121   9.757  0.2338 -0.1607 -0.0997
84331W        W27425   9.022  21.579   8.122 -0.2375  0.2251 -0.1197
84332W        W27426  11.707  25.175   7.497 -0.1931 -0.2884  0.2100
84333W        W27427   8.029  24.327   7.691 -0.0399  0.0110  0.1685
84334W        W27428   5.146  23.386  10.236  0.2242  0.0395 -0.1131
84335W        W27429   8.581  24.836   6.568  0.0767  0.3024 -0.3080
84336W        W27430   8.771  22.314   9.941  0.1237  0.1922 -0.2467
84337W        W27431   7.025  24.924   8.747  0.2276  0.0523  0.1606
84338W        W27432   7.823  25.213   7.149 -0.0926 -0.3511  0.1080
84339W        W27433   7.927  23.396   9.396  0.3920 -0.0752 -0.2441
84340W        W27434  10.568  21.705   6.481 -0.2342  0.1823  0.0611
84341W        W27435   8.798  24.420   6.403 -0.0349  0.0778  0.0978
84342W        W27436   8.176  24.792   8.014  0.2230  0.0343 -0.0347
84343W        W27437  10.234  23.474   8.186 -0.0063  0.0809  0.0980
84344W        W27438   9.679  25.068   9.252 -0.0903  0.3517 -0.1451
84345W        W27439   9.825  24.183   8.233 -0.0581 -0.0157  0.1096
84346W        W27440  10.336  21.906   5.950  0.0301  0.1091  0.1152
84347W        W27441   8.859  22.247   8.351  0.0188  0.0673  0.3259
84348W        W27442   7.411  24.180   9.047  0.1325 -0.0176 -0.1302
84349W        W27443   8.552  24.866   9.228 -0.3362  0.2637 -0.2756
84350W        W27444   9.246  24.490   8.400  0.1516 -0.1315  0.1957
84351W        W27445   9.891  21.733   7.855  0.0513  0.1389  0.1955
84352W        W27446   7.704  22.784   9.337  0.1169  0.0495  0.0484
84353W        W27447  10.558  23.309   7.585 -0.1748  0.1085 -0.4821
84354W        W27448   8.660  24.097   6.756 -0.0897 -0.1475  0.0228
84355W        W27449   6.394  24.874   8.931  0.2378 -0.2094  0.3224
84356W        W27450  10.478  23.872   8.403  0.0272  0.0459 -0.0319
84357W        W27451  11.060  23.451   7.574 -0.4499 -0.1881  0.0767
84358W        W27452   9.201  25.256   9.466 -0.0964 -0.1717 -0.0966
84359W        W27453  11.193  23.973   7.743 -0.2763  0.3113 -0.0495
84360W        W27454  12.058  27.039  11.856 -0.1175 -0.0039 -0.2823
84361W        W27455  11.198  22.432   8.286  0.2689  0.2260  0.0001
84362W        W27456   8.918  24.407   7.294  0.1815 -0.0416  0.3533
84363W        W27457   9.093  23.675   8.548  0.1005 -0.0571 -0.0655
84364W        W27458   9.670  24.345   7.282 -0.3367  0.2219 -0.0583
84365W        W27459   9.970  26.862   6.637 -0.0966 -0.3179 -0.0116
84366W        W27460   8.644  24.840   8.260 -0.4023  0.2027 -0.1012
84367W        W27461   9.661  22.773   8.122 -0.0637 -0.1174 -0.0853
84368W        W27462   6.496  23.186   8.685  0.2832 -0.0282  0.1406
84369W        W27463   7.607  23.086   7.319  0.0000  0.1500 -0.2200
84370W        W27464   8.146  22.721   8.363 -0.0752 -0.1754  0.1871
84371W        W27465   8.962  23.706   9.230  0.0804  0.1208  0.2871
84372W        W27466   9.015  20.670   7.122 -0.0506 -0.1624 -0.0367
84373W        W27467   8.235  23.111   6.548  0.1061  0.1313  0.0390
84374W        W27468  10.090  20.914   7.907  0.0250 -0.1432 -0.0890
84375W        W27469   5.099  25.799   9.436  0.2961 -0.0875  0.2201
84376W        W27470   7.814  25.696   9.379 -0.1098 -0.0353 -0.4563
84377W        W27471   9.490  22.038   9.765  0.2606 -0.2046  0.0440
84378W        W27472   9.188  23.682   9.720  0.0749  0.0861 -0.1561
84379W        W27473   8.672  24.341   8.570  0.0628  0.4084  0.1459
84380W        W27474   7.024  25.207   9.615 -0.0928 -0.3645  0.0741
84381W        W27475  11.265  23.527   8.698 -0.2118  0.1117 -0.1763
84382W        W27476   6.916  25.423   8.428 -0.0124  0.3368  0.3611
84383W        W27477   9.683  23.617   8.200 -0.4076  0.1242  0.2733
84384W        W27478   9.907  22.204   8.293 -0.1754  0.1923  0.0039
84385W        W27479  10.889  23.610   6.921  0.1307 -0.1086  0.1591
84386W        W27480   5.263  23.405   9.670 -0.1183 -0.1637 -0.2883
84387W        W27481   7.296  25.621   8.704 -0.0756  0.1556 -0.0677
84388W        W27482   9.741  24.053   6.837  0.0084  0.0618  0.1406
84389W        W27483   9.482  24.660   6.897 -0.3084  0.1235 -0.1142
84390W        W27484   8.210  25.360   9.225 -0.1125 -0.2366  0.1282
84391W        W27485   8.897  23.882   7.242  0.0222 -0.1984 -0.2605
84392W        W27486   6.809  25.937   7.608 -0.0145 -0.1546 -0.0263
84393W        W27487   6.301  24.801   8.017  0.1029 -0.1619  0.1221
84394W        W27488   9.100  24.869   7.231  0.1212 -0.0065  0.0370
84395W        W27489   6.974  25.744   9.649 -0.0805  0.0887  0.1432
84396W        W27490  11.188  22.960   6.179 -0.3411  0.2202 -0.2522
84397W        W27491  10.307  22.959   9.599  0.1509  0.0874 -0.0052
84398W        W27492  10.770  22.177   7.598 -0.0399  0.1701  0.1385
84399W        W27493   7.856  23.956  10.189  0.0530  0.1838 -0.1921
84400W        W27494   9.155  22.935   6.940  0.2586 -0.0026  0.1217
84401W        W27495  10.444  25.032   6.712 -0.3101  0.3318 -0.3070
84402W        W27496   6.616  23.680   8.865 -0.4214  0.1273 -0.2586
84403W        W27497   8.197  23.556   8.985  0.1217  0.1856  0.1756
84404W        W27498   8.351  18.579   9.477 -0.1469 -0.0363 -0.1008
84405W        W27499   8.371  25.067   6.006 -0.1419 -0.0880 -0.4232
84406W        W27500   8.741  23.230   9.063  0.2024  0.3043 -0.0336
84407W        W27501   7.221  26.089   8.407  0.0738 -0.0907 -0.2017
84408W        W27502   8.555  26.625   9.629 -0.1099 -0.3786 -0.1535
84409W        W27503   7.365  24.969   9.322 -0.4084  0.0814  0.0224
84410W        W27504   6.648  23.535   8.066  0.0468 -0.0182 -0.0967
84411W        W27505  10.469  22.225   8.577 -0.0066 -0.1605  0.0368
84412W        W27506   8.210  24.403   9.399 -0.1293  0.0961  0.1719
84413W        W27507   8.174  23.963   8.679 -0.1290  0.0072 -0.1702
84414W        W27508  10.269  22.592   8.222  0.1765  0.1399  0.0313
84415W        W27509  11.088  23.638   9.724 -0.0261 -0.0534 -0.1118
84416W        W27510   8.575  24.004  10.036 -0.2273  0.0600 -0.0055
84417W        W27511   9.400  23.689   6.854 -0.1498  0.1384  0.2126
84418W        W27512  10.394  23.679   6.785  0.0177  0.1481  0.0378
84419W        W27513   7.400  23.315   8.572 -0.0970  0.0324  0.3127
84420W        W27514   9.980  22.268   6.967 -0.0110 -0.4406  0.1356
84421W        W27515   8.747  24.789   7.687  0.0540  0.2545  0.3483
84422W        W27516   8.152  23.737   9.710 -0.5601 -0.0542  0.0620
84423W        W27517   8.615  21.746   8.451 -0.0845  0.1670 -0.1635
84424W        W27518  11.115  24.466   7.594  0.2588 -0.2917 -0.2895
84425W        W27519   8.841  23.165   9.617  0.1089 -0.1471 -0.0769
84426W        W27520   9.348  26.182   7.797 -0.1113 -0.1423 -0.1271
84427W        W27521   8.871  23.541   7.611 -0.1948  0.1277  0.0140
84428W        W27522   8.486  25.144   8.819  0.2005 -0.0025  0.1478
84429W        W27523   8.574  23.553   8.619  0.0032 -0.1151 -0.0379
84430W        W27524  10.604  24.703   9.335  0.0713 -0.0083  0.2242
84431W        W27525  11.378  26.061   8.878 -0.1333 -0.0682 -0.0131
84432W        W27526   9.082  21.421   6.605  0.1083 -0.0531  0.1875
84433W        W27527   9.086  23.171   7.794  0.0162 -0.1523  0.2027
84434W        W27528   7.032  25.169   8.037 -0.0984  0.0560  0.2291
84435W        W27529  10.334  22.241   9.267  0.0818  0.1288 -0.2099
84436W        W27530   8.855  26.558   7.550  0.1096 -0.2816  0.1377
84437W        W27531  10.682  22.324   8.147 -0.1702 -0.2627  0.0528
84438W        W27532   7.270  24.186   7.330  0.2115  0.1505 -0.1129
84439W        W27533   8.877  23.994   7.755  0.4194 -0.1558 -0.0191
84440W        W27534   8.314  25.393   8.225 -0.1798 -0.0264 -0.2538
84441W        W27535  10.824  24.415   9.780  0.1436 -0.3164  0.6774
84442W        W27536   9.893  23.137   8.453 -0.0859 -0.1036 -0.2685
84443W        W27537   9.690  23.930   7.779  0.0599 -0.5850  0.1239
84444W        W27538   9.392  22.813   8.630  0.2555 -0.0920  0.0784
84445W        W27539   9.983  21.353   8.177 -0.0858 -0.1448  0.0729
84446W        W27540   9.678  22.335   7.872 -0.1711  0.3330 -0.0525
84447W        W27541   6.718  24.996   9.296 -0.1153 -0.2420  0.1444
84448W        W27542   7.753  21.926   8.079  0.2720  0.0273  0.0635
84449W        W27543   8.604  24.985   7.188 -0.0148  0.3230 -0.1213
84450W        W27544   7.835  24.124   9.718 -0.1042 -0.4999  0.2388
84451W        W27545   6.333  24.084   9.273  0.1534  0.1731  0.3839
84452W        W27546   8.075  23.499   7.977  0.1298  0.1409  0.1653
84453W        W27547  10.121  24.148   7.455  0.0463  0.0362  0.0455
84454W        W27548   8.295  23.125   8.841 -0.1527 -0.0338  0.2019
84455W        W27549   8.049  23.413   8.501 -0.1336  0.3583 -0.0901
84456W        W27550   8.725  23.774   6.294 -0.0892  0.0108 -0.1482
84457W        W27551   9.434  24.314   7.989  0.1585  0.0340 -0.3295
84458W        W27552   9.379  22.379   8.306 -0.0747  0.0957 -0.2200
84459W        W27553   6.758  23.978   8.452  0.1779 -0.0179  0.2242
84460W        W27554   7.486  22.272   7.698  0.0411 -0.1211 -0.1157
84461W        W27555   9.913  22.619   8.606 -0.0745  0.0206 -0.0143
84462W        W27556   8.734  24.399   8.043  0.0906 -0.1308 -0.2036
84463W        W27557   9.839  25.210   8.461  0.0952 -0.0937  0.0994
84464W        W27558   9.741  21.298   8.687 -0.0672  0.0222 -0.0320
84465W        W27559   9.295  24.014   7.503 -0.0391  0.0970 -0.0040
84466W        W27560  11.282  24.412   8.046  0.0640  0.0149 -0.0611
84467W        W27561  11.815  19.774   9.474  0.1609  0.1270 -0.2124
84468W        W27562   9.252  24.172   6.968 -0.0371 -0.2590  0.0479
84469W        W27563  10.610  23.244   8.924 -0.2549  0.1694  0.1107
84470W        W27564   8.685  22.242   9.315  0.0007 -0.0744 -0.2162
84471W        W27565   9.324  21.272   7.555 -0.0907 -0.1338 -0.4109
84472W        W27566   8.845  25.456   7.397 -0.2457 -0.0210 -0.1482
84473W        W27567   7.785  23.221   8.924  0.0905  0.2604 -0.0577
84474W        W27568  10.009  23.534   7.706 -0.1753 -0.3081 -0.0917
84475W        W27569   7.876  22.212  10.277 -0.0268 -0.1357 -0.2788
84476W        W27570   8.570  23.522   7.172 -0.2923 -0.2203 -0.0929
84477W        W27571  11.216  25.375   6.809  0.2212  0.0375 -0.2150
84478W        W27572  11.418  24.591   9.148  0.1576 -0.0364 -0.0281
84479W        W27573   8.585  23.979   9.554  0.0323 -0.1663 -0.2399
84480W        W27574   7.702  24.463   9.349  0.0201 -0.1703  0.0668
84481W        W27575   8.925  21.359  10.052  0.0092 -0.1090 -0.1931
84482W        W27576   6.501  24.603   9.411  0.0687  0.2896  0.2088
84483W        W27577   8.252  24.345   8.933 -0.0110 -0.1085  0.0592
84484W        W27578  12.092  22.443   9.182 -0.0068  0.3354 -0.0131
84485W        W27579   9.512  22.577   9.044  0.1722  0.3063 -0.0680
84486W        W27580   9.767  22.827   6.049  0.0746  0.4010 -0.1017
84487W        W27581   5.830  25.859  10.113 -0.0711 -0.2071  0.0099
84488W        W27582  10.256  28.790  10.409  0.1019  0.1441 -0.0979
84489W        W27583   7.521  27.235   4.120 -0.0992  0.1011 -0.2323
84490W        W27584   7.787  26.830   1.965  0.0591 -0.0309 -0.1780
84491W        W27585  11.182  26.263  30.527 -0.0769 -0.0812  0.0630
84492W        W27586  10.074  26.124  31.177 -0.5248  0.2242 -0.1228
84493W        W27587   8.153  25.750   1.261 -0.1062 -0.0890  0.2806
84494W        W27588   7.663  25.603   3.893  0.1355  0.2518 -0.1372
84495W        W27589  10.820  28.594   2.461  0.2753  0.1339  0.0186
84496W        W27590  11.108  28.899   2.054 -0.2520  0.2035  0.1508
84497W        W27591   8.962  26.754   1.272 -0.0099 -0.2220 -0.2096
84498W        W27592   9.765  25.416   3.454 -0.1600 -0.0016 -0.2035
84499W        W27593   9.479  27.660   2.558 -0.3381  0.0209  0.0393
84500W        W27594   8.868  25.104   0.405  0.1260 -0.1491  0.3505
84501W        W27595   7.248  25.647   1.703  0.1649 -0.0522 -0.1979
84502W        W27596   9.939  27.251   1.788  0.0959  0.0489  0.1087
84503W        W27597   7.975  27.071   0.999  0.2834 -0.0258  0.0669
84504W        W27598  10.065  26.978   2.779  0.0309  0.2986  0.1891
84505W        W27599   8.293  26.644   0.144  0.1794 -0.1687 -0.2031
84506W        W27600   9.749  28.732   1.196 -0.1143  0.0622  0.0120
84507W        W27601   7.705  26.615   3.309 -0.1907 -0.5172  0.4718
84508W        W27602  10.455  26.394   3.007 -0.0373 -0.0421 -0.0757
84509W        W27603   9.093  27.969  31.434 -0.0499  0.0144  0.1567
84510W        W27604   7.091  27.080   0.619 -0.1119  0.3681  0.1195
84511W        W27605   7.136  26.912   1.088 -0.1040 -0.2316  0.0647
84512W        W27606  10.528  28.206   2.413 -0.1258  0.0769 -0.0646
84513W        W27607   9.045  27.598   1.650  0.2159 -0.0032  0.2361
84514W        W27608  10.431  25.846   2.992  0.2697 -0.0414 -0.1696
84515W        W27609   8.259  28.105   1.173  0.1025  0.2037  0.1937
84516W        W27610   9.663  29.049   2.271 -0.1310  0.0687 -0.2245
84517W        W27611  10.464  27.028   3.168 -0.0069 -0.0389 -0.0839
84518W        W27612   6.929  27.989   1.569 -0.2394 -0.0143  0.2895
84519W        W27613   6.997  29.504   1.527 -0.2307 -0.2773 -0.1333
84520W        W27614   8.930  27.889   0.433  0.0687 -0.0298  0.0946
84521W        W27615  10.412  27.653   1.719  0.4128  0.1255 -0.1412
84522W        W27616  11.574  29.082   1.880 -0.0266 -0.0999  0.0808
84523W        W27617   9.270  30.668   2.553 -0.0452  0.3390  0.1575
84524W        W27618   8.179  27.291   0.316  0.0764  0.2681 -0.3633
84525W        W27619   8.547  29.109   2.354  0.2329  0.2558 -0.1157
84526W        W27620   8.782  27.717   3.056 -0.0729 -0.0023 -0.2255
84527W        W27621   9.806  28.256   1.688 -0.0049  0.2590  0.0538
84528W        W27622   8.247  26.197   0.936 -0.0457 -0.0448 -0.0621
84529W        W27623   9.353  27.819   0.149  0.1663 -0.3814 -0.0855
84530W        W27624   8.892  28.404   1.263 -0.0868  0.1667  0.0967
84531W        W27625   9.725  27.122   2.434  0.1884 -0.1035 -0.2159
84532W        W27626   7.877  28.245   0.888  0.1923  0.1563  0.1943
84533W        W27627  10.840  26.729   3.904 -0.3867  0.0314  0.3153
84534W        W27628   9.178  28.282  31.910  0.0888  0.2797 -0.0600
84535W        W27629   8.092  25.716   0.757  0.1371  0.0822  0.0287
84536W        W27630   6.370  25.902  30.722  0.2994  0.0417  0.0410
84537W        W27631   9.307  26.055   0.838 -0.0037  0.0742 -0.1499
84538W        W27632   9.131  27.117   1.785 -0.1677  0.1014  0.0003
84539W        W27633   7.756  27.437   2.245  0.0163  0.0011  0.0039
84540W        W27634   7.188  25.406   3.572 -0.0314  0.3897  0.0808
84541W        W27635  11.242  27.259   2.303  0.0731  0.0121 -0.0325
84542W        W27636   9.957  26.034  31.669 -0.0120 -0.1749 -0.2108
84543W        W27637  10.791  25.694   2.260  0.0185 -0.1816 -0.2254
84544W        W27638   9.935  27.493   2.700 -0.0795  0.4004 -0.5229
84545W        W27639   8.099  26.879   1.535 -0.2539 -0.1112  0.0744
84546W        W27640   9.071  28.974   0.516  0.0288 -0.2061 -0.1441
84547W        W27641   9.790  27.918   1.322  0.0696 -0.0910 -0.1128
84548W        W27642   8.887  28.478   0.362  0.0568 -0.2503 -0.1467
84549W        W27643   7.717  26.615   1.181 -0.0417 -0.0774 -0.0994
84550W        W27644   7.510  27.444   4.695  0.2114  0.1158 -0.3408
84551W        W27645   8.354  28.971   1.908  0.2025  0.1683 -0.1154
84552W        W27646   8.151  25.224  31.301 -0.0933  0.5354 -0.1645
84553W        W27647  11.737  27.342   2.382 -0.0382 -0.6162  0.1325
84554W        W27648   6.965  27.759   3.279  0.0439 -0.1206 -0.1290
84555W        W27649  10.331  26.109   1.169  0.0182 -0.1280  0.2082
84556W        W27650   8.619  28.314   0.808 -0.2152  0.2294 -0.2164
84557W        W27651  10.499  28.540   2.842  0.0871  0.0266  0.1014
84558W        W27652   9.312  26.813   0.335  0.0005 -0.0799 -0.2682
84559W        W27653  10.742  26.313   1.994  0.3487 -0.1396  0.3989
84560W        W27654  10.451  25.294   2.517  0.2898  0.0530 -0.2136
84561W        W27655   7.316  27.204  31.006 -0.1674  0.1339 -0.0119
84562W        W27656   9.159  25.437   0.055  0.0696  0.1649  0.0917
84563W        W27657  12.195  29.420   3.120  0.1714 -0.2919 -0.0454
84564W        W27658  11.367  25.857   0.817  0.1927 -0.0174  0.0771
84565W        W27659   7.833  28.382   4.188  0.3454 -0.0092 -0.0303
84566W        W27660   8.033  27.039   3.268 -0.0488 -0.1534 -0.1114
84567W        W27661   9.520  28.559   2.997  0.0533 -0.2239  0.0817
84568W        W27662   7.074  27.904   1.082 -0.1342 -0.0915  0.1599
84569W        W27663   7.356  27.202   2.373 -0.2498 -0.2243 -0.0187
84570W        W27664   7.414  28.511  31.701 -0.0774  0.0032 -0.1388
84571W        W27665   5.989  25.697   3.487  0.1240  0.0060  0.0383
84572W        W27666   9.737  28.022   2.178 -0.0717  0.1445 -0.2448
84573W        W27667  10.038  26.844  31.937 -0.1035 -0.3536 -0.1667
84574W        W27668   8.510  27.559   1.569 -0.1130  0.0918 -0.0206
84575W        W27669  11.501  25.991   1.771 -0.1235  0.2790  0.0415
84576W        W27670   6.307  27.680   0.384  0.5197  0.2135 -0.1313
84577W        W27671   9.251  29.568   1.561 -0.1026  0.2935 -0.1076
84578W        W27672  10.395  25.852  31.524  0.0878  0.0637 -0.3187
84579W        W27673   9.231  27.342   0.448 -0.1412 -0.0335 -0.2806
84580W        W27674   8.088  27.667   3.674 -0.0724 -0.2289  0.1302
84581W        W27675   8.740  26.548   0.898  0.1784 -0.1413  0.0734
84582W        W27676   9.424  25.322   3.072 -0.2969  0.1918  0.0840
84583W        W27677   7.269  26.598   2.463  0.1123 -0.0011  0.1099
84584W        W27678  11.117  27.400   1.015 -0.1286  0.2836 -0.1076
84585W        W27679   7.219  24.180   0.264 -0.0949  0.3193 -0.0775
84586W        W27680   9.534  26.970   0.735 -0.4369 -0.1308  0.0209
84587W        W27681   8.085  26.439   1.732 -0.3670  0.2973  0.0732
84588W        W27682   7.194  27.405   1.373 -0.0705  0.5554 -0.0440
84589W        W27683  10.175  25.728   3.426  0.1191  0.0836 -0.0113
84590W        W27684  10.398  28.860   1.499 -0.0841  0.0760 -0.0887
84591W        W27685  11.444  28.544   2.053  0.0154 -0.1923  0.0842
84592W        W27686  10.370  29.104   0.589  0.2180  0.1112  0.0445
84593W        W27687   9.164  26.549   2.519  0.5724 -0.0868 -0.0918
84594W        W27688   9.358  25.813  30.532 -0.0491  0.1004 -0.4417
84595W        W27689   8.221  28.105   1.852  0.1001  0.2634 -0.1623
84596W        W27690   8.674  28.867   1.087 -0.1398  0.1702  0.1277
84597W        W27691   8.149  24.758   1.305 -0.0405 -0.0476  0.0035
84598W        W27692  11.460  27.800   1.088 -0.1476  0.2870  0.3094
84599W        W27693   8.699  27.798   1.131 -0.0990  0.2878 -0.0187
84600W        W27694   8.391  28.515   1.480 -0.0789 -0.0634 -0.0358
84601W        W27695  10.607  24.876   2.781 -0.0160 -0.0561 -0.3429
84602W        W27696  11.224  26.732   3.479  0.0393 -0.2951  0.3415
84603W        W27697  10.038  28.989   1.903 -0.2497  0.0021  0.2913
84604W        W27698   6.939  26.341  31.447 -0.2185  0.0959 -0.1938
84605W        W27699  10.229  28.534   1.833  0.0752  0.0303 -0.1546
84606W        W27700   6.425  28.193   1.619  0.0924  0.0333 -0.0244
84607W        W27701   7.567  27.617  31.335  0.0044 -0.1114 -0.0796
84608W        W27702   8.642  29.748   0.525 -0.0095 -0.3335 -0.2492
84609W        W27703   9.575  25.761   2.159  0.3293 -0.0838  0.1315
84610W        W27704   7.778  26.737   4.365 -0.0157  0.2160  0.0929
84611W        W27705   8.643  27.254   2.859 -0.2064 -0.1537 -0.2643
84612W        W27706   8.498  27.446   0.670 -0.1981  0.4109 -0.1642
84613W        W27707   8.370  28.094   2.370 -0.2858 -0.0208 -0.1656
84614W        W27708   9.071  24.434   1.154 -0.1279  0.0769  0.3480
84615W        W27709  11.027  25.912   0.010 -0.2616  0.3308 -0.3014
84616W        W27710  10.438  26.075   2.541 -0.2630  0.0407  0.2283
84617W        W27711   9.578  27.343   1.057  0.0739 -0.2370  0.2533
84618W        W27712   8.889  25.636   0.588  0.1447  0.1780  0.0976
84619W        W27713   9.832  25.749   0.651  0.3225  0.3225 -0.1072
84620W        W27714   8.158  27.160   2.318  0.0428  0.0085 -0.0100
84621W        W27715   9.449  27.715   0.654 -0.1635  0.1076 -0.3943
84622W        W27716   8.802  28.653   2.631  0.0695 -0.2067  0.0035
84623W        W27717   7.533  26.257   0.809  0.1079 -0.1297  0.0297
84624W        W27718   9.580  29.738   1.119 -0.1144  0.5196 -0.0526
84625W        W27719   7.873  28.730   1.306  0.1790  0.1898  0.0126
84626W        W27720   9.620  27.961   4.299 -0.1588 -0.1575 -0.2011
84627W        W27721   8.202  26.311   2.210  0.0450 -0.2424  0.0240
84628W        W27722   9.020  24.820  31.371  0.0069  0.0354 -0.1660
84629W        W27723   8.609  26.256   1.857  0.2605 -0.0940 -0.2544
84630W        W27724   5.670  29.909  31.511  0.0021  0.0468 -0.0844
84631W        W27725  12.096  24.953   2.412  0.0235  0.0812 -0.0496
84632W        W27726  10.087  25.620   1.078  0.0445  0.3174  0.0607
84633W        W27727   8.474  25.252   2.159  0.2007 -0.0795  0.2358
84634W        W27728   9.231  27.713   3.323 -0.1494 -0.1985 -0.4488
84635W        W27729   8.849  25.822   1.168  0.1147 -0.2929 -0.0297
84636W        W27730   9.738  26.338   1.980 -0.2593 -0.0161 -0.0185
84637W        W27731   7.589  26.600  30.874  0.2405  0.2287  0.3440
84638W        W27732   8.676  26.862   3.759  0.2702  0.2417 -0.0267
84639W        W27733   9.249  28.733   1.498 -0.1125 -0.0439 -0.1412
84640W        W27734   9.462  28.457   2.031  0.0968  0.1209  0.2377
84641W        W27735   9.276  28.132   2.624 -0.1759  0.0291 -0.2927
84642W        W27736   9.942  26.524   0.968 -0.2700  0.1624  0.1979
84643W        W27737   9.581  27.132   2.885 -0.2895 -0.0509 -0.3471
84644W        W27738   9.919  25.525   0.125 -0.2085  0.0788  0.0536
84645W        W27739   8.360  27.530  31.865  0.0180 -0.0912  0.0548
84646W        W27740   7.927  28.676  31.550 -0.0311 -0.0678 -0.1911
84647W        W27741   7.401  26.084   1.776 -0.2342  0.2000 -0.0513
84648W        W27742   8.851  29.024   3.336  0.0243  0.4622 -0.1166
84649W        W27743   7.205  29.203   1.047  0.2509 -0.1329  0.1045
84650W        W27744   9.320  28.907   1.054  0.0395  0.3533 -0.0808
84651W        W27745   8.068  28.313  31.923  0.0277  0.0942  0.2493
84652W        W27746  10.567  25.333   1.995  0.2372  0.2958  0.1517
84653W        W27747   7.834  28.729   2.956 -0.2206 -0.0356 -0.2315
84654W        W27748   7.418  25.524   0.409 -0.1939  0.1576  0.0297
84655W        W27749   7.246  26.728  31.775 -0.3359  0.1596 -0.2541
84656W        W27750   8.997  27.591   0.807  0.1746  0.3269  0.1631
84657W        W27751   9.139  26.520  31.421 -0.0977 -0.0439  0.2472
84658W        W27752   9.667  26.655   2.749 -0.1038 -0.2517 -0.0240
84659W        W27753   9.085  24.885   1.781 -0.0969  0.1124  0.0624
84660W        W27754   8.085  27.762   0.265 -0.1826  0.0297  0.0632
84661W        W27755   9.640  27.579   3.065 -0.0053 -0.2895  0.2811
84662W        W27756  10.338  25.218   0.178 -0.2644 -0.0077 -0.2778
84663W        W27757  10.822  29.101   1.500 -0.0989  0.0845 -0.2674
84664W        W27758   9.639  26.967   3.639 -0.4670  0.0161 -0.3372
84665W        W27759   6.766  25.157   0.731  0.1080  0.2252  0.0162
84666W        W27760  11.026  26.464   3.115  0.0503 -0.0315  0.2186
84667W        W27761   8.611  27.000   3.264  0.1451  0.0182 -0.0719
84668W        W27762   7.757  29.157   1.071  0.1980 -0.0101  0.1958
84669W        W27763  10.042  28.506   2.746 -0.1149 -0.3692 -0.1785
84670W        W27764   7.613  26.406   0.207 -0.1967  0.3029 -0.1256
84671W        W27765   8.444  28.852  31.531  0.0772 -0.2460 -0.2484
84672W        W27766   8.050  25.673   3.594  0.3035 -0.0766  0.0679
84673W        W27767  11.277  25.609   3.017  0.0602  0.0773 -0.0624
84674W        W27768   9.225  27.033   2.496  0.3321  0.0958  0.1302
84675W        W27769   6.800  26.622   1.960  0.0803 -0.1510  0.1519
84676W        W27770   7.462  27.406   2.797 -0.0531 -0.2062  0.0721
84677W        W27771  11.078  28.153   1.810 -0.0047  0.1353 -0.0178
84678W        W27772   8.488  27.229   1.980 -0.1122 -0.1544 -0.4003
84679W        W27773   8.199  28.641   3.959  0.1332 -0.1996  0.1484
84680W        W27774   9.937  24.283   1.589 -0.1495  0.5382 -0.0054
84681W        W27775  10.843  30.054   1.534  0.0070 -0.4114  0.1810
84682W        W27776   8.829  27.407   3.512  0.0862  0.0719 -0.0163
84683W        W27777   7.232  28.502  30.936 -0.1474 -0.1092 -0.2075
84684W        W27778   7.218  28.151   3.940  0.0018 -0.2363  0.5953
84685W        W27779   8.291  26.656   1.105 -0.1937 -0.1043 -0.1908
84686W        W27780   8.167  26.379   2.752 -0.1578  0.1967 -0.1402
84687W        W27781   8.165  28.619   0.933 -0.0923  0.2414  0.1086
84688W        W27782   8.295  27.910   0.691 -0.0684 -0.2556  0.4074
84689W        W27783   7.929  27.485   0.715  0.1246 -0.2826 -0.3582
84690W        W27784   9.648  26.456   0.543  0.3242 -0.0947 -0.1394
84691W        W27785  10.801  29.195  31.768 -0.2595  0.2609  0.2150
84692W        W27786   8.332  26.923   0.590  0.0596 -0.0369 -0.1637
84693W        W27787  11.376  26.030   3.302 -0.2816  0.0828  0.0331
84694W        W27788   9.081  26.011  31.939  0.5134  0.1378  0.2886
84695W        W27789  11.024  27.042   3.096  0.0004 -0.3747 -0.1371
84696W        W27790   9.006  27.469   2.117  0.1531 -0.2930  0.1087
84697W        W27791   9.901  27.767   1.767  0.0730 -0.0848 -0.1328
84698W        W27792   7.095  26.946   2.789  0.1024 -0.2261 -0.0325
84699W        W27793   9.683  28.177   3.303 -0.2624 -0.4356 -0.1181
84700W        W27794   7.884  27.406   5.092 -0.1590 -0.2065 -0.0659
84701W        W27795   8.535  25.799   1.781 -0.1857  0.0728  0.1379
84702W        W27796   7.381  25.088   1.683 -0.1157 -0.3072 -0.0019
84703W        W27797   8.459  27.580   2.488  0.3124 -0.3532  0.2520
84704W        W27798  10.342  26.728   1.901  0.0591 -0.1750 -0.1680
84705W        W27799   8.974  27.050   0.822  0.2450  0.1683 -0.1399
84706W        W27800  10.632  27.389   1.304 -0.2208 -0.1222  0.1234
84707W        W27801   7.993  29.092   3.683  0.0966  0.1527  0.4090
84708W        W27802   9.501  27.445   2.050  0.0302 -0.2560  0.3278
84709W        W27803   9.705  26.679  31.582 -0.0697 -0.0383  0.0565
84710W        W27804   9.290  26.674   1.606  0.0954 -0.0538  0.2663
84711W        W27805   7.599  25.518   2.500  0.3705 -0.0998 -0.1664
84712W        W27806  10.056  27.966   2.562 -0.2871  0.0391  0.2414
84713W        W27807   9.535  25.581   1.048 -0.0224  0.0822 -0.2177
84714W        W27808   8.841  26.767   2.030 -0.0898 -0.0458  0.2296
84715W        W27809   9.870  26.143   2.494 -0.2224  0.2876  0.1031
84716W        W27810   9.589  26.512   3.351  0.0476  0.4082  0.1812
84717W        W27811   7.692  26.139   3.672 -0.1436 -0.1460  0.1231
84718W        W27812   9.691  28.607   3.584 -0.0299 -0.0339  0.0037
84719W        W27813  12.536  26.799  31.647 -0.2325  0.2667 -0.1000
84720W        W27814  10.270  27.190   2.263  0.1647 -0.0747 -0.1767
84721W        W27815  10.932  27.027   1.367  0.1067 -0.1678  0.4251
84722W        W27816   8.909  25.163  31.739 -0.0223 -0.2222  0.1123
84723W        W27817   6.688  26.469   3.057  0.0858 -0.2318 -0.0829
84724W        W27818   9.862  29.362   4.126 -0.0747 -0.1736 -0.2540
84725W        W27819   7.572  25.870   1.312  0.0094  0.3286 -0.2978
84726W        W27820   9.242  25.925   2.498 -0.3696  0.1002  0.3102
84727W        W27821   8.514  28.727   0.552 -0.0333  0.0457  0.4936
84728W        W27822   8.571  26.638   1.578  0.2980 -0.0085  0.0751
84729W        W27823   8.625  25.505   0.120 -0.2359  0.2815  0.1482
84730W        W27824   7.624  26.906   2.781  0.0569  0.3374 -0.0181
84731W        W27825   8.021  29.479   3.967  0.2195 -0.0011  0.2079
84732W        W27826   7.138  26.521   0.674 -0.1067 -0.1939  0.2421
84733W        W27827   7.983  27.613  30.842  0.0454 -0.0858 -0.2388
84734W        W27828   9.460  28.328   1.243  0.1068  0.0704 -0.1621
84735W        W27829   9.318  27.355   3.673 -0.0693  0.2481 -0.1082
84736W        W27830   8.359  25.342  31.726 -0.0731  0.1699  0.0324
84737W        W27831   9.976  27.589   2.230 -0.1020 -0.0520  0.0826
84738W        W27832   7.275  28.898   0.431 -0.0729  0.0149 -0.2095
84739W        W27833   9.859  25.283   2.232  0.1538 -0.0708 -0.2599
84740W        W27834   8.303  28.876   3.294  0.1333 -0.3382 -0.0816
84741W        W27835   7.962  27.401   2.765  0.1993  0.2704  0.0119
84742W        W27836   9.048  28.566   0.847 -0.2270 -0.0792  0.1228
84743W        W27837   8.501  25.559   0.910 -0.1325  0.0751 -0.2113
84744W        W27838  10.454  26.565   2.437  0.1979  0.1462 -0.2083
84745W        W27839   8.023  27.311   1.845 -0.3276  0.0599 -0.1669
84746W        W27840  12.050  27.209   2.883 -0.1622  0.1690  0.0821
84747W        W27841  10.362  30.031   1.405 -0.3789 -0.1731 -0.1896
84748W        W27842   7.431  27.877   1.520 -0.1099 -0.2048 -0.2796
84749W        W27843  10.570  28.096   3.061  0.1803 -0.0014  0.0574
84750W        W27844  10.986  29.110   0.729  0.1264  0.0598 -0.1210
84751W        W27845   8.937  27.764   2.538  0.1505  0.0452 -0.1048
84752W        W27846   7.241  25.730   2.307  0.1514 -0.2047  0.3106
84753W        W27847  10.609  27.019   2.598 -0.3954 -0.0130  0.0307
84754W        W27848   9.040  28.359   1.738 -0.0955 -0.3296  0.0890
84755W        W27849   7.836  25.256   0.607 -0.0179 -0.2649 -0.0868
84756W        W27850   8.599  28.447  31.916  0.4114  0.1474  0.1480
84757W        W27851   7.539  27.917   2.879 -0.1389 -0.3657  0.2930
84758W        W27852   8.875  28.194   2.327 -0.1921 -0.0997  0.0645
84759W        W27853   7.811  28.209   1.532 -0.1587  0.3893 -0.2090
84760W        W27854   9.917  27.728   0.858  0.0470 -0.0737  0.0852
84761W        W27855  10.492  26.944   1.038 -0.1550 -0.3987  0.3278
84762W        W27856   8.974  29.442   3.064 -0.1568  0.1623  0.1429
84763W        W27857   8.121  25.452   0.163  0.0805 -0.0420 -0.2888
84764W        W27858   8.649  28.060   1.562 -0.1730 -0.0380 -0.1264
84765W        W27859   6.878  28.323   0.711  0.0137  0.0398 -0.3332
84766W        W27860   8.782  28.402  31.355 -0.1006 -0.1417 -0.2552
84767W        W27861   7.932  27.766  31.761 -0.1399  0.0731 -0.0604
84768W        W27862  10.098  28.463   3.233  0.3731  0.5648 -0.1282
84769W        W27863  10.429  25.733  30.087 -0.5181  0.5568  0.0361
84770W        W27864  12.005  26.251   1.692 -0.0744 -0.1073  0.2089
84771W        W27865   9.067  27.284   1.246  0.3623 -0.1197  0.1464
84772W        W27866  10.885  27.497   3.278  0.0942  0.1129 -0.0350
84773W        W27867   8.514  27.075   1.027  0.2536 -0.1499 -0.0866
84774W        W27868   8.650  26.230  31.588  0.2254  0.0130  0.0376
84775W        W27869   8.554  27.676   3.808  0.3245  0.0426  0.1145
84776W        W27870  11.743  25.579   2.199  0.0291 -0.2061  0.1139
84777W        W27871   7.683  29.179   2.136 -0.0140  0.0096 -0.0831
84778W        W27872   9.698  28.165   0.840 -0.2432 -0.2705 -0.2048
84779W        W27873   7.727  26.725  31.745  0.0016  0.0757  0.1965
84780W        W27874   7.985  26.544   0.676 -0.2821  0.0005 -0.0582
84781W        W27875  12.072  26.748   1.729 -0.2265 -0.2053  0.1860
84782W        W27876   9.048  27.085   0.049  0.4532 -0.3272  0.1397
84783W        W27877   9.236  26.313   1.913  0.3477  0.2595  0.0375
84784W        W27878   8.742  27.520   0.185  0.0484  0.3971 -0.1529
84785W        W27879   8.548  28.473   3.596  0.1623  0.0448  0.0054
84786W        W27880   8.428  30.305   4.405 -0.1392  0.2779 -0.0329
84787W        W27881   6.880  25.580   0.334 -0.1424  0.0492 -0.1895
84788W        W27882  10.484  26.599   1.450 -0.0438  0.1735  0.2321
84789W        W27883   8.505  26.072   3.212 -0.3218  0.0101  0.1301
84790W        W27884  10.539  26.073   3.470  0.1051  0.0381 -0.3404
84791W        W27885   7.335  28.188   1.947  0.1541  0.2029 -0.0669
84792W        W27886   8.977  26.240   1.452 -0.1904  0.1957 -0.2071
84793W        W27887   8.984  27.663   3.937  0.0726 -0.0199  0.1641
84794W        W27888   8.934  26.823   2.818 -0.2211 -0.0572  0.0141
84795W        W27889   8.331  25.804  31.456  0.2649  0.2790  0.1031
84796W        W27890  10.930  27.729   1.695 -0.1241 -0.1074  0.0567
84797W        W27891   8.640  26.743  31.655 -0.1489 -0.1274  0.1581
84798W        W27892   9.696  28.080   2.814 -0.0230  0.0136  0.1146
84799W        W27893   7.629  24.781   0.619 -0.0075  0.2202 -0.1506
84800W        W27894   8.847  24.553  31.765  0.1797 -0.2167 -0.0271
84801W        W27895   7.868  26.880   0.228 -0.3476 -0.1240 -0.0542
84802W        W27896   8.320  26.775   2.040 -0.0068  0.1659  0.0057
84803W        W27897  10.316  28.770   2.376  0.0662 -0.5471  0.4033
84804W        W27898   7.151  24.547   1.633 -0.4113  0.1261  0.2251
84805W        W27899   8.921  28.873  31.641 -0.2166  0.2086  0.0112
84806W        W27900   9.985  26.544   1.579  0.0371 -0.0673  0.2089
84807W        W27901   8.903  28.106  30.941  0.0748 -0.0687 -0.0222
84808W        W27902  10.174  27.014   1.445  0.0909 -0.0160  0.0143
84809W        W27903   8.778  28.773   1.633 -0.0660  0.2509 -0.1294
84810W        W27904   7.002  27.246   4.119  0.1961  0.0728  0.0299
84811W        W27905  10.552  28.137   1.625 -0.1849  0.1989  0.1885
84812W        W27906  11.834  27.824   2.712 -0.1741  0.2192  0.0514
84813W        W27907  10.407  24.750  31.910  0.1726 -0.1630  0.0407
84814W        W27908   8.540  28.450   1.983 -0.1598  0.5792  0.0172
84815W        W27909   6.897  27.389   0.948 -0.1712 -0.1739  0.0250
84816W        W27910  10.782  27.404   2.246  0.0161  0.2057  0.2368
84817W        W27911   9.534  26.068   1.599  0.0168 -0.0778 -0.1399
84818W        W27912   9.756  27.612  31.940 -0.2262 -0.0812 -0.1887
84819W        W27913  10.034  25.547   3.915 -0.3341 -0.1423  0.0645
84820W        W27914   8.323  29.114   4.200  0.2274 -0.4357 -0.0987
84821W        W27915   8.498  29.309   3.777  0.1739 -0.1309  0.0772
84822W        W27916   8.825  26.771   0.435  0.0954 -0.3783 -0.1827
84823W        W27917  10.866  27.888   2.536  0.0027 -0.0540 -0.1165
84824W        W27918   9.570  27.065  31.951  0.2327 -0.1113  0.2929
84825W        W27919   9.403  27.900   1.703  0.0408 -0.0964 -0.1632
84826W        W27920  11.740  28.022   2.286  0.0651 -0.1639  0.1375
84827W        W27921   7.885  26.648   2.434  0.3526  0.0444  0.1006
84828W        W27922  10.413  27.628   2.493  0.0175  0.2067  0.0500
84829W        W27923   7.070  26.731   1.540  0.1407  0.2494 -0.2631
84830W        W27924  10.534  25.727   1.648 -0.3823 -0.2759  0.2543
84831W        W27925   9.531  26.863   2.004 -0.4277  0.2280  0.1641
84832W        W27926   9.167  27.415   2.873 -0.1267  0.0560 -0.3213
84833W        W27927   7.602  26.837   0.709 -0.2539  0.1355 -0.0923
84834W        W27928   8.820  27.887  31.843  0.2607  0.2899 -0.1370
84835W        W27929   8.744  28.619   3.115 -0.1183  0.2191 -0.0862
84836W        W27930  10.070  26.161   3.206 -0.2811  0.1559 -0.1763
84837W        W27931   8.417  25.862   2.750 -0.0800 -0.1598 -0.0082
84838W        W27932   8.256  27.528   1.126 -0.2589  0.1900  0.3724
84839W        W27933   7.126  26.252   2.127 -0.3128 -0.2046  0.1662
84840W        W27934  10.415  27.456   0.871  0.1017 -0.2871 -0.2292
84841W        W27935   7.543  26.526   1.627 -0.3718  0.3209 -0.0139
84842W        W27936   7.601  26.338   2.833 -0.1115 -0.3750  0.1971
84843W        W27937   9.311  27.750   1.229 -0.0463 -0.0273 -0.1557
84844W        W27938  10.356  27.919   1.132 -0.2120  0.0973  0.2184
84845W        W27939   8.588  24.578   1.238  0.3314  0.1794  0.1597
84846W        W27940  11.328  28.657   2.591  0.0508  0.1452  0.4384
84847W        W27941   5.871  27.715   0.596 -0.0025  0.0207 -0.1220
84848W        W27942   8.866  27.208   4.053  0.2833  0.3559 -0.1322
84849W        W27943   9.185  25.756   3.006 -0.0992  0.0079  0.2880
84850W        W27944   6.900  26.100   0.918  0.0212  0.1970 -0.1518
84851W        W27945   8.248  26.933   2.817 -0.0478  0.0321 -0.0634
84852W        W27946   9.118  28.056   0.914  0.1961 -0.0053 -0.0682
84853W        W27947   9.534  29.405   0.487  0.2091 -0.2352  0.0683
84854W        W27948  10.527  27.164   1.767 -0.0100 -0.0392 -0.4036
84855W        W27949   9.410  29.552   2.109 -0.0513  0.1041  0.0847
84856W        W27950   6.342  25.603   3.152 -0.2344  0.0316 -0.1171
84857W        W27951  10.428  26.632   0.424 -0.2550 -0.1206  0.0990
84858W        W27952   9.142  28.245   3.132 -0.2572 -0.3153  0.1049
84859W        W27953  10.805  27.464   0.463  0.1589  0.0992  0.1650
84860W        W27954   9.724  25.500   1.523  0.3033  0.0804 -0.1460
84861W        W27955   9.779  27.398   0.397  0.1488  0.0845 -0.1717
84862W        W27956   8.342  26.763   4.143  0.1312  0.3260  0.2153
84863W        W27957   8.697  28.299   4.623  0.0978 -0.0970  0.2394
84864W        W27958  11.107  29.145   2.564 -0.0120 -0.3027  0.1798
84865W        W27959   8.852  25.349   1.862 -0.3813  0.1893  0.0453
84866W        W27960   9.409  26.354   1.204 -0.4142 -0.5412  0.0162
84867W        W27961   9.619  26.887   1.259 -0.0890  0.1459 -0.1456
84868W        W27962   8.633  27.827   2.077  0.0639  0.1356 -0.1385
84869W        W27963   8.078  26.137   0.273  0.1158 -0.0626 -0.2318
84870W        W27964  10.208  28.060   1.984  0.3015 -0.0234 -0.3108
84871W        W27965   9.254  27.920   2.161  0.0087  0.0099 -0.3077
84872W        W27966   9.947  27.226   3.255 -0.1036 -0.0088 -0.2924
84873W        W27967   8.640  25.006   0.931 -0.3407 -0.2164 -0.1325
84874W        W27968  12.250  27.213   0.511 -0.1633  0.0664  0.2116
84875W        W27969   9.872  28.528   2.234  0.4056 -0.0228  0.2471
84876W        W27970   9.555  29.064   2.820 -0.1077 -0.1152 -0.1650
84877W        W27971  10.621  29.003   2.691 -0.0711  0.0468 -0.2310
84878W        W27972  11.367  26.385   1.494 -0.1374 -0.0805  0.1109
84879W        W27973   6.920  26.258   1.578 -0.2895  0.2316 -0.1912
84880W        W27974   8.365  27.096  31.120 -0.0385 -0.2065  0.0544
84881W        W27975   8.677  27.122   1.558  0.1570 -0.0855  0.1889
84882W        W27976   9.992  26.717   2.351 -0.1863 -0.0129 -0.2926
84883W        W27977   8.048  25.440   2.074  0.1926 -0.0998 -0.2513
84884W        W27978   9.122  26.323   0.405 -0.0454  0.0989 -0.0394
84885W        W27979   9.354  29.185   3.326 -0.2120  0.0994 -0.1466
84886W        W27980  10.322  27.636   0.449 -0.0725 -0.0174 -0.1676
84887W        W27981   9.850  27.692   6.536 -0.1706  0.1632 -0.1276
84888W        W27982   8.110  27.146   4.542 -0.0695 -0.2601 -0.2899
84889W        W27983  10.808  25.632   4.082  0.0454 -0.0292  0.0536
84890W        W27984  11.103  27.848   4.116 -0.2583 -0.1235  0.2956
84891W        W27985   6.529  25.307   5.335 -0.0592 -0.2857 -0.0172
84892W        W27986   9.555  29.782   4.231 -0.1894 -0.1157  0.0826
84893W        W27987   8.655  26.707   6.054 -0.0720  0.4053 -0.2897
84894W        W27988   9.635  28.219   5.305  0.0433 -0.0761 -0.2847
84895W        W27989  10.653  28.420   6.430 -0.2057  0.2716 -0.0748
84896W        W27990  10.542  28.796   4.004  0.1919 -0.0664 -0.1350
84897W        W27991   9.451  28.386   6.894  0.1071  0.1015 -0.1148
84898W        W27992   8.060  29.127   6.672 -0.0129 -0.3495  0.0802
84899W        W27993   8.400  25.380   4.516 -0.4189 -0.2440  0.0210
84900W        W27994   7.997  26.285   5.627 -0.1481  0.0133  0.2583
84901W        W27995  10.189  27.183   4.487  0.1048 -0.0964  0.0865
84902W        W27996   7.699  28.414   5.945 -0.2624  0.1741  0.3118
84903W        W27997   8.811  27.033   7.300  0.1149  0.1634  0.0044
84904W        W27998   8.476  27.700   6.075 -0.0189 -0.4255 -0.3035
84905W        W27999  10.524  28.621   4.477  0.0437 -0.1780  0.0164
84906W        W28000   9.803  26.134   6.930  0.1894 -0.0502 -0.1263
84907W        W28001   9.756  26.149   5.543 -0.1344  0.4009  0.0720
84908W        W28002   7.445  28.650   4.474 -0.0184 -0.1868  0.0491
84909W        W28003   8.609  27.913   4.281  0.1248  0.0260  0.1166
84910W        W28004   7.147  28.402   6.002 -0.2314 -0.0603 -0.1971
84911W        W28005   9.909  28.795   6.602  0.1807 -0.1331 -0.2165
84912W        W28006  10.832  26.330   5.298  0.0007 -0.0646  0.0742
84913W        W28007  11.610  26.834   5.210  0.3981  0.0468  0.1284
84914W        W28008   7.379  28.913   6.032  0.1669 -0.0180  0.1803
84915W        W28009   9.811  28.598   5.677  0.2817 -0.0406  0.2196
84916W        W28010  10.147  27.366   6.770 -0.0837  0.0437 -0.0087
84917W        W28011   8.014  28.675   5.227  0.0463 -0.0975 -0.3553
84918W        W28012   6.696  29.179   5.710  0.2887 -0.0904  0.0664
84919W        W28013   8.680  28.483   4.083  0.0078  0.3587 -0.1189
84920W        W28014  11.362  28.316   4.125  0.4945 -0.1527  0.2282
84921W        W28015  10.662  28.210   6.896  0.2353  0.0393  0.1272
84922W        W28016   9.890  28.484   7.041 -0.0708 -0.1751 -0.0425
84923W        W28017   8.174  27.685   2.112 -0.0848  0.0598 -0.1551
84924W        W28018   9.815  28.944   6.163  0.1107  0.2221  0.0285
84925W        W28019   9.351  28.101   6.489  0.0898  0.1779 -0.3694
84926W        W28020   9.913  27.044   4.985 -0.2169 -0.1336  0.1726
84927W        W28021   9.359  27.605   6.670 -0.0129  0.0475  0.1605
84928W        W28022  10.060  27.868   3.098 -0.1911 -0.3011  0.0877
84929W        W28023   9.115  27.893   4.529  0.3731 -0.0192  0.0093
84930W        W28024   9.805  28.026   7.383 -0.1491  0.2632  0.1484
84931W        W28025   7.642  28.284   5.284 -0.1119 -0.1908  0.0688
84932W        W28026  11.076  25.313   8.205 -0.0198 -0.4153  0.2630
84933W        W28027   7.909  29.396   4.479 -0.1574  0.0737 -0.0411
84934W        W28028  10.677  27.713   4.829  0.2622  0.1167  0.2334
84935W        W28029   7.978  26.152   3.175 -0.0319  0.4018 -0.2380
84936W        W28030  10.987  25.390   4.559 -0.1352 -0.0674  0.0778
84937W        W28031   9.811  25.593   4.800  0.2454  0.0481  0.4626
84938W        W28032   7.203  29.369   5.811  0.0219  0.0717 -0.0537
84939W        W28033   9.345  26.914   5.544  0.1576  0.1165 -0.2043
84940W        W28034  11.285  27.895   6.247  0.0846 -0.0426  0.0298
84941W        W28035   9.271  26.557   4.613  0.1492  0.1375 -0.0023
84942W        W28036  10.427  26.760   5.272 -0.2610  0.1778  0.3328
84943W        W28037   8.123  28.676   7.245  0.1533  0.0719 -0.0069
84944W        W28038   6.147  26.194   5.683 -0.1731 -0.2182  0.1770
84945W        W28039  10.909  28.121   3.423  0.1362 -0.0610  0.0163
84946W        W28040  11.061  28.534   4.944  0.0549  0.0989  0.1982
84947W        W28041  11.448  28.578   3.149 -0.1613  0.0938 -0.0724
84948W        W28042   8.359  27.251   5.774 -0.0131  0.1436 -0.0046
84949W        W28043   9.003  28.860   7.608  0.0538  0.0669  0.0492
84950W        W28044   8.950  28.702   6.916 -0.1665  0.1205 -0.3988
84951W        W28045   7.648  26.354   2.107  0.0273  0.2659 -0.0809
84952W        W28046  10.809  27.886   6.482  0.3221  0.1481 -0.1160
84953W        W28047   8.699  29.291   6.842 -0.2212  0.0532  0.0206
84954W        W28048  10.531  26.244   4.944 -0.2250  0.1507  0.0893
84955W        W28049   8.419  28.739   5.762 -0.2394 -0.0234  0.2666
84956W        W28050  10.547  28.920   6.661  0.1367  0.1344  0.0427
84957W        W28051  11.084  27.867   3.019  0.0029  0.3274 -0.2034
84958W        W28052  10.836  25.943   5.632 -0.1829  0.2004  0.0061
84959W        W28053   9.726  26.420   6.420  0.2878  0.0887 -0.2240
84960W        W28054   8.385  28.658   4.444  0.1753  0.3017 -0.1455
84961W        W28055   9.638  28.490   4.044 -0.0483 -0.0273  0.0118
84962W        W28056  11.610  28.373   6.337  0.3691 -0.2509 -0.0953
84963W        W28057  11.024  27.311   4.054 -0.1692 -0.1200 -0.2366
84964W        W28058   8.533  29.388   6.359 -0.0627  0.2470 -0.2186
84965W        W28059   9.545  27.313   5.170  0.0847  0.1727  0.0226
84966W        W28060   9.021  29.621   6.336 -0.1866 -0.0308  0.1672
84967W        W28061   8.374  29.620   4.539  0.1319 -0.2370 -0.1380
84968W        W28062   7.071  28.967   5.451  0.0128  0.1357  0.1148
84969W        W28063   8.049  27.878   5.220  0.1400  0.1817  0.2323
84970W        W28064   8.205  27.992   7.734 -0.0224  0.4691 -0.0167
84971W        W28065   8.781  26.148   6.959  0.2620 -0.0269 -0.1036
84972W        W28066   9.757  26.526   4.515 -0.0008 -0.5476  0.1964
84973W        W28067   7.493  26.899   6.317  0.3119 -0.1742 -0.0367
84974W        W28068   9.366  25.966   5.243  0.0901 -0.2198 -0.1727
84975W        W28069   7.131  28.396   4.683  0.0034  0.1707  0.0584
84976W        W28070  10.940  29.740   4.499  0.0341  0.1094  0.1355
84977W        W28071   9.286  26.159   4.274 -0.1927  0.0389  0.1349
84978W        W28072   9.996  28.227   3.773 -0.3497 -0.0203 -0.1206
84979W        W28073   8.035  28.147   6.533  0.1365 -0.0729  0.0474
84980W        W28074   9.556  27.679   5.553  0.0101  0.0088 -0.0006
84981W        W28075   9.176  26.869   7.017  0.3059 -0.0511  0.4531
84982W        W28076   7.875  27.233   6.554 -0.1727  0.2108  0.3840
84983W        W28077  10.723  27.109   7.271  0.0264  0.1305 -0.1612
84984W        W28078   8.342  26.649   4.671 -0.5099  0.2340  0.2150
84985W        W28079  10.639  27.668   5.371  0.0480 -0.0814 -0.1108
84986W        W28080   8.324  28.335   4.991  0.0357  0.2376 -0.1126
84987W        W28081   6.616  29.335   3.444  0.4543  0.3801 -0.0417
84988W        W28082  10.239  25.894   6.961 -0.0399  0.0032 -0.3120
84989W        W28083   8.255  27.909   2.892  0.0470  0.1935  0.0545
84990W        W28084  12.157  29.172   7.778  0.3799  0.3018  0.3000
84991W        W28085  10.720  28.226   4.086 -0.2199 -0.1346  0.0644
84992W        W28086   9.316  26.912   6.032 -0.1521  0.1498 -0.0353
84993W        W28087   7.093  26.569   4.809 -0.2432 -0.0401  0.0549
84994W        W28088   8.111  29.913   6.450 -0.2630 -0.1814  0.1638
84995W        W28089   9.189  28.217   4.124  0.1698  0.0594  0.0971
84996W        W28090   8.761  26.839   4.361  0.2642  0.1327  0.0182
84997W        W28091  10.160  28.520   4.817  0.0556  0.3430 -0.0564
84998W        W28092   9.888  27.695   3.595  0.0267 -0.3763  0.1662
84999W        W28093   8.011  28.654   6.631 -0.1077  0.0659  0.0415
85000W        W28094  10.003  27.741   5.274 -0.0302  0.3018  0.0475
85001W        W28095  11.931  27.082   5.910  0.0713  0.1500  0.3223
85002W        W28096   9.662  27.032   4.536  0.1110 -0.3599 -0.0347
85003W        W28097   8.379  27.415   5.260  0.0226  0.0703 -0.1618
85004W        W28098   9.820  28.472   4.481 -0.0160 -0.0356 -0.2807
85005W        W28099   6.057  27.581   4.148  0.1913  0.0987 -0.0264
85006W        W28100   7.109  28.581   6.844  0.1307  0.2998  0.1449
85007W        W28101   9.418  28.647   5.353 -0.1280  0.0453  0.1397
85008W        W28102  12.714  25.821   4.664 -0.3147 -0.2071 -0.2273
85009W        W28103  10.207  26.880   8.375 -0.1979  0.1164 -0.2025
85010W        W28104  10.720  25.932   6.783 -0.1246 -0.0164 -0.2053
85011W        W28105   8.032  26.904   4.957  0.1394 -0.1801  0.1382
85012W        W28106   8.736  29.022   8.151  0.2345  0.1679  0.1206
85013W        W28107   9.957  25.836   5.210 -0.2346  0.0755 -0.1216
85014W        W28108  10.738  26.206   4.039 -0.1417  0.1556 -0.1331
85015W        W28109  10.199  27.979   6.874  0.2545  0.0392  0.1197
85016W        W28110  11.997  26.512   3.856 -0.0417  0.1345 -0.1428
85017W        W28111   9.918  26.959   4.106 -0.2278 -0.0086 -0.0581
85018W        W28112   9.321  26.238   3.707  0.1511  0.2260  0.0580
85019W        W28113   6.742  28.948   7.111 -0.3857  0.0466 -0.3607
85020W        W28114   8.510  28.054   3.368 -0.2507  0.3067 -0.1035
85021W        W28115  10.287  28.843   7.036 -0.1021 -0.2320  0.0285
85022W        W28116   9.303  26.906   4.134 -0.4758 -0.0515 -0.1138
85023W        W28117  11.703  27.948   3.820  0.1142 -0.0290 -0.2743
85024W        W28118   7.386  28.611   5.611  0.1576 -0.0133  0.1520
85025W        W28119   9.815  28.951   7.297  0.3305 -0.1701  0.2541
85026W        W28120  12.331  28.148   4.450 -0.0275  0.0085 -0.3381
85027W        W28121   9.137  26.359   5.536  0.1771  0.0347 -0.1785
85028W        W28122   7.574  27.778   5.216 -0.0105 -0.0594  0.0393
85029W        W28123   8.964  26.530   3.990 -0.1885  0.0093 -0.2094
85030W        W28124   6.805  30.085   4.694  0.2703  0.2023 -0.1084
85031W        W28125  12.547  25.243   6.424  0.2281  0.0360  0.1096
85032W        W28126  10.041  26.542   5.753  0.1925  0.0616  0.0182
85033W        W28127   8.330  25.623   7.615 -0.2174 -0.0636  0.3109
85034W        W28128  11.653  27.070   7.197  0.1125  0.0620 -0.0090
85035W        W28129  10.236  27.780   3.913  0.1216  0.0458  0.0210
85036W        W28130  10.359  27.639   6.435 -0.0027  0.0652  0.0933
85037W        W28131   8.975  26.557   3.277 -0.2052  0.1342  0.1266
85038W        W28132  10.728  27.269   5.645 -0.0620 -0.3871 -0.1878
85039W        W28133   8.405  27.341   7.378  0.0538 -0.1271 -0.3547
85040W        W28134   8.285  29.224   5.879  0.3355  0.1388  0.5262
85041W        W28135  11.136  27.261   6.899  0.0712 -0.0100  0.0492
85042W        W28136   8.736  27.457   4.512 -0.3135  0.0578 -0.1252
85043W        W28137  10.100  25.422   6.663  0.1437  0.4428 -0.2147
85044W        W28138   8.207  28.109   4.518 -0.0248 -0.1700 -0.2471
85045W        W28139   9.176  29.126   2.401  0.2006  0.1751 -0.0461
85046W        W28140   9.169  28.680   3.880  0.0447 -0.1058  0.0515
85047W        W28141   8.742  26.566   5.030 -0.0380 -0.2169  0.0374
85048W        W28142   8.326  27.469   6.816  0.0384  0.6030  0.1003
85049W        W28143   8.737  28.903   3.897  0.1586  0.3927  0.2448
85050W        W28144  11.132  27.429   6.398 -0.1518 -0.2131 -0.1789
85051W        W28145   7.431  28.145   4.337 -0.0699 -0.0461  0.1705
85052W        W28146  11.083  25.718   6.426  0.1088  0.2097  0.1310
85053W        W28147   6.856  29.101   6.182 -0.2643  0.0209  0.1515
85054W        W28148   8.728  27.143   2.410  0.2366  0.4700  0.0949
85055W        W28149   7.028  27.399   4.635  0.1510  0.1168 -0.0923
85056W        W28150  10.370  26.796   4.066  0.0378  0.1444 -0.0554
85057W        W28151  10.406  28.056   5.126 -0.1923 -0.3382 -0.2397
85058W        W28152   8.481  26.883   5.280 -0.0478  0.0325 -0.0068
85059W        W28153   7.943  30.584   7.617 -0.0341 -0.0220  0.1929
85060W        W28154  10.775  25.629   6.068  0.2325  0.0497  0.2124
85061W        W28155  11.719  26.692   3.428 -0.0793 -0.1438 -0.1162
85062W        W28156  10.349  28.509   5.729  0.1601 -0.0453  0.1853
85063W        W28157   9.098  29.078   7.179  0.3604 -0.2876  0.1536
85064W        W28158   7.762  27.918   4.720 -0.0064 -0.2491  0.0741
85065W        W28159  11.234  26.513   6.090  0.0944  0.0351  0.1222
85066W        W28160   8.280  27.680   4.785 -0.1265 -0.0422 -0.0469
85067W        W28161   7.009  28.946   4.732 -0.0078 -0.0886  0.1126
85068W        W28162   8.776  29.056   6.042 -0.0489 -0.6117 -0.0477
85069W        W28163   8.484  27.886   5.538 -0.0797  0.0056  0.0740
85070W        W28164   7.533  28.757   5.134  0.0321  0.0481 -0.2347
85071W        W28165   9.298  27.308   7.949  0.2204 -0.2037 -0.2184
85072W        W28166  10.655  27.161   6.165 -0.0955 -0.1001 -0.0840
85073W        W28167   9.646  27.956   6.954 -0.3449 -0.2128 -0.0190
85074W        W28168   8.213  26.715   5.719  0.0821 -0.2772 -0.1427
85075W        W28169   8.067  28.302   5.635 -0.2779  0.1510 -0.3402
85076W        W28170  10.240  28.610   6.262  0.0913 -0.1339  0.1334
85077W        W28171   9.583  27.983   7.836 -0.3147 -0.1686  0.1521
85078W        W28172   8.369  28.544   8.768 -0.1743  0.0283 -0.0011
85079W        W28173   9.977  24.759   5.486 -0.2058  0.0797  0.1208
85080W        W28174  11.021  28.658   4.254 -0.2612  0.0429 -0.0333
85081W        W28175  11.290  28.281   7.611  0.0968 -0.0741  0.0319
85082W        W28176   7.191  27.911   4.691  0.0903  0.2423 -0.1280
85083W        W28177   8.453  27.542   7.843 -0.2055  0.2087  0.5058
85084W        W28178   7.513  29.626   4.717 -0.1363  0.1182 -0.1627
85085W        W28179   9.507  26.486   5.869 -0.3629 -0.1984 -0.1821
85086W        W28180   7.994  27.568   5.797  0.2815 -0.1716 -0.0882
85087W        W28181   8.355  27.199   3.695  0.0966 -0.0245 -0.1507
85088W        W28182   8.272  29.542   6.815  0.1549 -0.2519  0.0134
85089W        W28183  10.744  25.779   4.678  0.1394 -0.1664 -0.2333
85090W        W28184   8.726  27.772   5.066 -0.2952  0.4429  0.1432
85091W        W28185  11.386  26.821   6.840 -0.3233 -0.0565  0.0327
85092W        W28186   9.754  27.446   4.044  0.1659 -0.2647  0.2286
85093W        W28187  10.014  26.001   6.496  0.0037  0.1385  0.0770
85094W        W28188   9.556  27.789   5.020 -0.2263 -0.1439 -0.1965
85095W        W28189  10.459  27.350   4.052  0.1862  0.0546 -0.1691
85096W        W28190   9.212  27.353   5.726 -0.1217 -0.0370 -0.2887
85097W        W28191  10.418  29.426   8.892 -0.3738 -0.2856  0.2032
85098W        W28192  10.024  27.611   7.734 -0.1718  0.0454  0.0707
85099W        W28193   8.951  27.165   5.107  0.1522 -0.0724  0.0570
85100W        W28194   8.597  25.793   3.621  0.2018 -0.0880  0.2192
85101W        W28195   8.892  30.022   5.964 -0.0007  0.2837  0.0698
85102W        W28196  12.297  27.558   5.170 -0.0933 -0.1919  0.2187
85103W        W28197   9.477  28.104   3.776 -0.0855 -0.0534  0.0080
85104W        W28198  10.462  28.019   5.674  0.2841 -0.0175  0.0770
85105W        W28199   9.564  28.082   5.995 -0.2357  0.1007  0.0607
85106W        W28200  10.087  28.432   5.260 -0.1351  0.1544 -0.1834
85107W        W28201  10.683  27.757   3.717 -0.0487 -0.1125  0.0834
85108W        W28202   7.908  27.998   6.111  0.2138 -0.1017 -0.0129
85109W        W28203  11.022  26.921   6.464  0.0768  0.0462 -0.0608
85110W        W28204   9.975  28.070   5.650  0.0684  0.4169 -0.0153
85111W        W28205   9.757  26.439   5.022 -0.1871 -0.1052 -0.4605
85112W        W28206   9.943  26.373   7.442 -0.0438 -0.3514  0.2986
85113W        W28207  11.761  27.320   6.699  0.0324  0.4372  0.0996
85114W        W28208   9.822  28.296   6.561  0.1128  0.0365  0.1549
85115W        W28209   8.689  26.788   8.350  0.0943  0.2398  0.1278
85116W        W28210  11.003  29.549   6.796 -0.1594 -0.0900  0.0690
85117W        W28211  10.644  27.128   3.672 -0.0648 -0.2410  0.0620
85118W        W28212  11.217  26.819   7.393  0.4190  0.2066  0.3814
85119W        W28213  11.145  26.465   4.166  0.0512  0.2510 -0.1264
85120W        W28214   8.775  26.386   4.497  0.1938 -0.0659 -0.1520
85121W        W28215   7.593  27.924   6.488  0.1434 -0.1996 -0.3474
85122W        W28216  10.811  27.939   8.319 -0.0478  0.0639 -0.1492
85123W        W28217   7.322  26.438   4.399 -0.0511 -0.0392  0.3940
85124W        W28218   9.739  26.995   7.205 -0.0510 -0.0975  0.2805
85125W        W28219   7.934  28.832   4.648  0.0347 -0.0657  0.0333
85126W        W28220   9.044  28.619   4.448 -0.1515 -0.4726  0.0477
85127W        W28221  10.198  26.572   4.837  0.0735  0.0508 -0.2835
85128W        W28222   7.201  28.015   5.411 -0.3797 -0.0729 -0.1213
85129W        W28223   8.334  30.266   7.443  0.4572 -0.0374 -0.5465
85130W        W28224   8.145  26.649   3.674  0.0289 -0.0111  0.3812
85131W        W28225   9.323  27.388   4.287 -0.2135 -0.2192  0.2559
85132W        W28226   9.225  28.313   5.652  0.0516  0.0486  0.1202
85133W        W28227  11.223  28.704   7.352  0.2519  0.1837 -0.3682
85134W        W28228   8.188  26.207   3.829 -0.1637 -0.0085  0.0759
85135W        W28229  10.694  27.265   6.651  0.3876  0.0021 -0.1445
85136W        W28230   7.964  29.646   4.966  0.0222 -0.1133 -0.2799
85137W        W28231   9.195  26.381   5.020  0.1239  0.0592 -0.0559
85138W        W28232   7.184  28.197   6.527 -0.0710  0.1352  0.1164
85139W        W28233   8.034  28.199   7.083  0.1483  0.0097 -0.1110
85140W        W28234   7.507  29.108   4.582 -0.0806 -0.1043  0.1076
85141W        W28235   9.422  25.990   7.221 -0.1580  0.3360  0.1399
85142W        W28236   9.576  26.500   4.060 -0.2461 -0.0251 -0.0774
85143W        W28237   8.681  28.328   5.425 -0.1833 -0.0615  0.2533
85144W        W28238  11.699  26.587   7.263  0.0624 -0.0317 -0.0847
85145W        W28239   9.467  28.933   6.911 -0.0527  0.0167 -0.3602
85146W        W28240   8.900  27.907   5.824 -0.0143 -0.3229  0.2775
85147W        W28241  10.334  29.837   7.637  0.0830  0.2012 -0.2517
85148W        W28242  12.728  26.501   6.020 -0.2274 -0.0244 -0.0586
85149W        W28243   7.765  29.377   6.037  0.1319  0.1015  0.3175
85150W        W28244   8.364  27.121   6.312  0.1753  0.3833  0.2035
85151W        W28245   8.965  27.472   7.572 -0.0271 -0.1000  0.2919
85152W        W28246   9.913  28.109   4.864 -0.1294 -0.0630 -0.1436
85153W        W28247   7.821  27.050   5.464  0.1238 -0.1925  0.0980
85154W        W28248  10.935  28.577   3.775  0.4820 -0.2550 -0.0949
85155W        W28249   8.603  29.876   6.537 -0.0566 -0.0629 -0.2152
85156W        W28250   8.021  29.732   7.359  0.1005 -0.1284  0.3119
85157W        W28251   7.814  29.167   5.105 -0.1541 -0.0133  0.1137
85158W        W28252  11.126  27.158   4.938 -0.2300 -0.3842 -0.0341
85159W        W28253  11.911  27.221   3.348  0.2848 -0.1185  0.0583
85160W        W28254  10.574  28.561   5.231 -0.2679 -0.3530 -0.0317
85161W        W28255   8.290  26.295   4.340 -0.1944  0.2491  0.3188
85162W        W28256   9.456  29.491   7.243  0.0351 -0.0802 -0.0118
85163W        W28257   6.667  27.749   4.703 -0.3296 -0.0859 -0.0370
85164W        W28258   9.518  29.481   3.750  0.0076 -0.1117  0.2013
85165W        W28259   9.483  28.845   4.383  0.0571  0.1126  0.0739
85166W        W28260  11.130  28.281   6.597 -0.1370 -0.5638 -0.0300
85167W        W28261   9.947  25.577   3.031 -0.0471 -0.0464 -0.1001
85168W        W28262  11.084  27.643   4.578  0.1158  0.0435 -0.1535
85169W        W28263  11.540  27.676   4.402 -0.1823 -0.0698  0.2102
85170W        W28264   9.884  29.603   7.474  0.1345 -0.0710 -0.1899
85171W        W28265  10.266  28.444   6.731  0.1881 -0.0572  0.0129
85172W        W28266   9.611  25.868   3.304  0.2700 -0.0587 -0.0633
85173W        W28267   9.277  28.160   7.483 -0.0208 -0.0974  0.1267
85174W        W28268  10.673  25.473   6.776 -0.1361 -0.0186  0.1550
85175W        W28269   9.187  29.916   6.731 -0.2903  0.1981  0.1326
85176W        W28270  11.261  28.926   3.460 -0.0870  0.1631 -0.1936
85177W        W28271   9.230  27.688   6.146 -0.0189  0.0033 -0.1452
85178W        W28272   8.854  27.684   6.484  0.1632  0.1722 -0.0572
85179W        W28273  11.239  25.728   5.830  0.1124  0.0634 -0.0534
85180W        W28274   9.421  26.832   5.041 -0.0910 -0.0021  0.0989
85181W        W28275  10.735  26.610   6.062  0.0657  0.1977 -0.1123
85182W        W28276   8.255  29.060   5.360  0.0346 -0.4024 -0.0181
85183W        W28277   8.788  28.432   5.897  0.1968  0.0803  0.0822
85184W        W28278  10.336  28.053   6.212  0.2799 -0.2426 -0.1181
85185W        W28279   8.339  27.446   4.167 -0.0140  0.2239 -0.0547
85186W        W28280  11.047  26.881   4.425 -0.1371  0.0906  0.2125
85187W        W28281   8.855  27.893   8.343 -0.0275 -0.0832 -0.0809
85188W        W28282  10.375  26.939   6.939 -0.0793 -0.1274  0.3236
85189W        W28283   8.815  27.266   6.172 -0.1624 -0.3235 -0.2238
85190W        W28284  10.661  27.165   5.138 -0.0156 -0.1054 -0.2666
85191W        W28285  11.084  27.844   5.599  0.1030  0.0951 -0.1961
85192W        W28286   7.886  28.850   6.175 -0.1158 -0.1792  0.0298
85193W        W28287   8.489  27.068   4.833 -0.0637 -0.2289 -0.1813
85194W        W28288  12.387  27.329   6.598  0.1315 -0.2737  0.1009
85195W        W28289  10.448  27.521   2.981 -0.1307  0.0052  0.0831
85196W        W28290  10.735  29.582   7.298 -0.2426 -0.0940 -0.2002
85197W        W28291   8.654  26.404   5.546  0.4542 -0.0312  0.0634
85198W        W28292   9.601  26.060   4.679 -0.3056  0.2535 -0.0096
85199W        W28293   8.886  29.069   5.023 -0.1532 -0.3091  0.2040
85200W        W28294   9.558  27.297   6.186  0.0814  0.1110  0.0849
85201W        W28295  10.774  29.322   8.443  0.0577  0.1649  0.0613
85202W        W28296   7.539  26.819   4.870 -0.0554 -0.0978  0.0418
85203W        W28297  11.971  29.016   4.239  0.3418 -0.3379 -0.2822
85204W        W28298  10.143  27.257   5.321  0.0466  0.2062 -0.0557
85205W        W28299   9.996  29.894   2.756 -0.0203  0.0409  0.0193
85206W        W28300  10.188  27.537   4.897 -0.1043  0.1419  0.2228
85207W        W28301  11.660  28.579   5.002  0.3549  0.3603  0.1968
85208W        W28302   8.098  27.586   6.357  0.0450  0.2616  0.1016
85209W        W28303   9.440  28.668   6.488  0.0501 -0.2989 -0.1809
85210W        W28304  11.768  27.863   5.304  0.2007 -0.1342 -0.1272
85211W        W28305   8.756  25.594   4.841 -0.2119  0.0856 -0.0132
85212W        W28306   9.111  28.157   5.160 -0.4517  0.1859  0.0931
85213W        W28307   8.301  30.271   3.831 -0.0438  0.1035 -0.0808
85214W        W28308  10.641  25.369   5.636  0.2191  0.0683 -0.0390
85215W        W28309  10.536  26.407   5.664 -0.0261 -0.2534 -0.1303
85216W        W28310   9.943  28.890   3.133  0.1269  0.2070 -0.0763
85217W        W28311  10.030  25.836   7.467 -0.4518  0.3234  0.3546
85218W        W28312   9.888  27.546   7.149  0.0861  0.0569 -0.0897
85219W        W28313   9.370  29.285   6.187  0.1362 -0.0513 -0.1240
85220W        W28314   7.604  27.555   6.149 -0.3078 -0.0639  0.0651
85221W        W28315  11.171  27.499   5.887  0.0474 -0.0755  0.0428
85222W        W28316   7.911  28.881   5.670  0.2783  0.3204  0.0307
85223W        W28317   8.728  28.995   4.512 -0.0067 -0.2285  0.1255
85224W        W28318  12.186  28.380   6.397  0.2533 -0.0841 -0.1803
85225W        W28319   9.162  27.603   5.270 -0.2784  0.2438  0.1061
85226W        W28320  11.193  27.228   3.555  0.1139  0.2508 -0.1728
85227W        W28321   9.115  27.017   4.642 -0.2899  0.2237 -0.0029
85228W        W28322  10.749  24.994   4.839 -0.2015  0.1012  0.0494
85229W        W28323   9.275  25.585   4.873  0.1183  0.3038  0.1078
85230W        W28324   9.865  26.769   6.138  0.3074  0.4840  0.4455
85231W        W28325   6.795  28.115   5.051 -0.0031 -0.2061  0.2953
85232W        W28326   8.332  27.484   3.227 -0.0896  0.0932 -0.1165
85233W        W28327   9.229  29.221   5.372 -0.0385 -0.1194  0.3623
85234W        W28328   9.991  25.735   8.475  0.1259 -0.0345  0.2645
85235W        W28329   8.959  26.917   7.823 -0.0377 -0.0324 -0.2576
85236W        W28330   8.891  28.424   7.353 -0.1065  0.1289  0.0163
85237W        W28331   7.878  27.749   6.845 -0.1173 -0.1762 -0.2457
85238W        W28332  11.417  28.464   4.595  0.1151  0.0028 -0.0406
85239W        W28333   7.799  26.554   5.229 -0.0609  0.1033  0.1211
85240W        W28334  10.971  28.160   4.519  0.0279  0.1738 -0.0320
85241W        W28335  11.028  28.940   4.633  0.3602  0.2242 -0.0153
85242W        W28336   7.253  25.830   4.988  0.0096  0.1159 -0.1769
85243W        W28337  10.323  29.280   7.393  0.1304  0.1586  0.2659
85244W        W28338   7.192  27.735   4.243  0.0749 -0.0819 -0.0444
85245W        W28339  10.088  27.271   6.159  0.2135 -0.1014 -0.0477
85246W        W28340  10.375  26.336   6.161  0.2295 -0.0623 -0.2874
85247W        W28341   8.524  26.680   2.499 -0.0669  0.0536  0.0326
85248W        W28342   9.834  26.807   5.372 -0.0515  0.0709 -0.2822
85249W        W28343   8.935  28.193   3.638 -0.1068  0.0556  0.1176
85250W        W28344  11.219  29.478   3.519  0.1317  0.0092 -0.1500
85251W        W28345  10.703  27.617   6.056 -0.2364 -0.0922  0.0587
85252W        W28346   8.270  30.612   7.930 -0.1497  0.0042 -0.1719
85253W        W28347   8.751  26.680   6.871 -0.0697  0.1320  0.2694
85254W        W28348   9.699  27.554   4.626 -0.0013  0.1037 -0.0749
85255W        W28349   9.491  29.902   7.644  0.2229  0.1319  0.0370
85256W        W28350  11.218  27.742   3.634 -0.1550  0.0602 -0.3684
85257W        W28351  11.727  26.618   6.307  0.0237  0.0153  0.1675
85258W        W28352  10.472  28.160   3.608 -0.1648 -0.1459  0.0553
85259W        W28353   7.583  25.919   7.832  0.0172 -0.1325 -0.0834
85260W        W28354   9.062  27.910   7.100 -0.2229  0.0522  0.0022
85261W        W28355  11.671  27.513   6.191  0.0673  0.2223  0.2214
85262W        W28356   7.911  25.076   5.228  0.2629  0.3995 -0.2411
85263W        W28357  10.212  26.393   4.348 -0.2586 -0.1113  0.1635
85264W        W28358  10.160  27.691   4.414 -0.2903 -0.1386  0.1394
85265W        W28359   8.870  28.494   7.894 -0.0452  0.2445  0.1858
85266W        W28360   7.781  27.780   4.158 -0.3460 -0.0321  0.1306
85267W        W28361  10.264  27.519   5.755  0.1058  0.3776  0.0153
85268W        W28362   9.014  28.593   4.998  0.1503 -0.2876 -0.3173
85269W        W28363   9.485  27.586   7.593  0.0698 -0.0869 -0.1699
85270W        W28364   9.245  27.453   4.789  0.0175 -0.2883  0.2368
85271W        W28365  11.067  26.840   5.349 -0.1608  0.0601 -0.1183
85272W        W28366   9.151  28.725   5.994 -0.0742  0.3492  0.0655
85273W        W28367  10.822  29.245   7.659 -0.0273 -0.3916 -0.1791
85274W        W28368   9.525  28.980   5.711 -0.1508 -0.0818 -0.0459
85275W        W28369  11.437  27.169   5.593 -0.0019 -0.0311  0.0015
85276W        W28370   7.976  25.403   5.924 -0.3171  0.2966  0.0398
85277W        W28371   8.566  28.729   5.209  0.0435  0.0995 -0.1551
85278W        W28372   9.424  28.315   4.730  0.0593 -0.0752 -0.1145
85279W        W28373  11.593  25.256   6.392 -0.1060  0.3850 -0.1251
85280W        W28374   8.889  28.207   6.738 -0.1297  0.0540 -0.1452
85281W        W28375   9.551  25.730   3.876  0.2147 -0.0157 -0.4056
85282W        W28376   8.508  28.881   6.764 -0.1991  0.1391 -0.3376
85283W        W28377   9.286  27.344   7.100  0.0145  0.2111  0.3569
85284W        W28378  10.369  26.140   9.765  0.2429  0.1076  0.1384
85285W        W28379   9.204  27.351   8.845 -0.0277 -0.2050 -0.3605
85286W        W28380  10.117  26.843   7.852 -0.2243  0.2576 -0.1502
85287W        W28381  10.514  26.323   7.034  0.0013 -0.0393 -0.2598
85288W        W28382   7.589  27.511  10.076  0.0192  0.3124 -0.0854
85289W        W28383  10.582  28.140   8.845 -0.0212  0.1649  0.0897
85290W        W28384  10.689  27.350   9.260  0.2106  0.0226  0.1235
85291W        W28385   9.714  26.601   9.874 -0.2032 -0.1036  0.1363
85292W        W28386  10.326  27.758   7.430  0.0113 -0.0301 -0.0949
85293W        W28387   8.676  25.283   9.583 -0.2779  0.2940 -0.3033
85294W        W28388  10.281  27.264   8.003  0.0563 -0.2359 -0.1888
85295W        W28389   5.205  23.977   8.565  0.1497 -0.1342  0.0635
85296W        W28390   8.473  27.573   9.524 -0.2160 -0.2324  0.3187
85297W        W28391   9.325  27.576   8.356  0.2357  0.1912  0.1333
85298W        W28392   7.831  26.847   8.535 -0.2375  0.1026 -0.0851
85299W        W28393   9.724  27.048   8.094 -0.2560  0.0185  0.0362
85300W        W28394  10.358  28.599   9.004  0.4112 -0.1341 -0.0458
85301W        W28395   8.528  26.680   9.166  0.0811 -0.1461  0.0732
85302W        W28396  10.268  28.690   7.829 -0.0773 -0.0704 -0.1672
85303W        W28397   8.787  27.971   7.585 -0.0907  0.3088  0.3975
85304W        W28398   6.562  25.497   9.404  0.0695 -0.1269 -0.1419
85305W        W28399   8.140  27.198   9.481 -0.1359  0.2840 -0.2941
85306W        W28400  10.188  26.224   9.001  0.0869  0.0451 -0.2172
85307W        W28401  10.015  28.460   8.242  0.0157 -0.1090 -0.0374
85308W        W28402  10.021  28.604   9.373 -0.2988 -0.2132 -0.2104
85309W        W28403   9.377  28.110   9.506  0.2367  0.1769  0.0991
85310W        W28404   7.823  28.616   9.955  0.0570  0.0232 -0.0174
85311W        W28405   8.138  28.918   9.065 -0.0574  0.2402  0.2447
85312W        W28406  10.498  29.203   8.036 -0.2812 -0.1517 -0.0025
85313W        W28407  12.882  28.016  10.150  0.1134  0.0592  0.0972
85314W        W28408   8.230  29.299   7.713 -0.0580  0.1592  0.1615
85315W        W28409   6.706  27.386   9.146  0.0787  0.0449  0.8132
85316W        W28410  10.094  28.107   8.833  0.0256  0.2497 -0.2275
85317W        W28411   9.026  28.211   9.135  0.0912  0.2318 -0.0825
85318W        W28412   9.722  27.637   8.756  0.0155 -0.0963 -0.3576
85319W        W28413   8.713  28.922  11.210  0.0880 -0.0135  0.1138
85320W        W28414   8.170  28.551   8.015  0.3025  0.3002 -0.2521
85321W        W28415   9.674  26.610   7.825 -0.1666 -0.0315 -0.1649
85322W        W28416   9.070  27.202   6.636 -0.1668  0.0306 -0.3077
85323W        W28417   9.747  26.655   8.351  0.1657  0.0151 -0.1919
85324W        W28418   8.742  24.437   9.784  0.0414 -0.0113  0.0462
85325W        W28419   9.703  29.032  10.355 -0.0019 -0.1347 -0.0836
85326W        W28420   8.722  26.132   9.371  0.0266 -0.1286 -0.1820
85327W        W28421   8.770  27.061   8.881  0.2572  0.0354  0.0985
85328W        W28422   9.182  25.344   9.999  0.2213 -0.0083 -0.2053
85329W        W28423  12.081  27.442  10.116  0.1164 -0.2888  0.3434
85330W        W28424   8.479  28.581   9.894 -0.2791  0.2143 -0.0021
85331W        W28425  11.179  29.075   6.527  0.3445 -0.2377  0.1344
85332W        W28426  11.452  27.899   9.780 -0.3298  0.1460 -0.1066
85333W        W28427  10.806  29.615   8.064 -0.0456  0.2560 -0.5980
85334W        W28428   8.208  27.729   8.706 -0.0253 -0.1147  0.0181
85335W        W28429   9.138  26.967   8.500 -0.1299  0.1996 -0.1957
85336W        W28430  11.248  26.032   9.505 -0.6200  0.0951  0.0267
85337W        W28431  10.260  27.345   9.531  0.1569 -0.0516  0.1418
85338W        W28432  12.116  24.945   9.412  0.0421 -0.1487 -0.1159
85339W        W28433  10.788  28.808   8.178  0.0004  0.2404  0.1250
85340W        W28434   9.631  27.287   9.905 -0.0427  0.1448  0.0195
85341W        W28435  11.114  24.881   8.828  0.1114  0.1280  0.0782
85342W        W28436   8.015  27.168   7.596 -0.3474 -0.2001 -0.3625
85343W        W28437   9.878  28.616   8.686  0.2226  0.3114  0.0012
85344W        W28438   9.752  27.345   9.204  0.2774  0.2781  0.0382
85345W        W28439  10.570  26.515   8.908  0.1293  0.0278 -0.0115
85346W        W28440   9.267  28.437  10.049  0.2995  0.0529  0.0956
85347W        W28441   7.821  28.591  10.459  0.0800 -0.2202  0.2870
85348W        W28442   8.499  28.837   7.736  0.1952  0.1295  0.0757
85349W        W28443   5.633  28.108  10.117  0.1109  0.1501  0.0180
85350W        W28444   8.309  26.993   9.892  0.1759  0.0433 -0.0593
85351W        W28445   9.155  25.676   8.993  0.0774  0.0130  0.1531
85352W        W28446   9.604  24.537   9.836 -0.1703  0.2466 -0.0553
85353W        W28447   9.599  28.523   9.058 -0.0956 -0.2474 -0.1300
85354W        W28448  10.888  28.414   8.546  0.0354 -0.2257 -0.2055
85355W        W28449   9.628  25.181   7.765  0.0930 -0.0636  0.1273
85356W        W28450  10.367  27.678   9.010  0.2068 -0.2092  0.0124
85357W        W28451   7.976  26.693  10.502 -0.0625 -0.0295  0.2369
85358W        W28452   8.200  26.449   8.336  0.1888 -0.1476 -0.0661
85359W        W28453   6.128  25.516   9.706  0.4491  0.0811  0.1376
85360W        W28454   8.077  27.126   8.110  0.3832  0.1848 -0.1532
85361W        W28455  10.680  27.413   8.385  0.0187 -0.0592  0.0952
85362W        W28456   8.710  27.527   8.679  0.0610 -0.2301 -0.1377
85363W        W28457   8.405  27.399   9.073  0.5102  0.1828  0.0451
85364W        W28458   9.747  28.809   7.948  0.0529 -0.2817  0.1202
85365W        W28459  15.606  29.151  10.454  0.1183 -0.1877 -0.0384
85366W        W28460  10.759  27.839   9.273 -0.0304 -0.0121  0.1789
85367W        W28461   8.838  27.205   9.884  0.0084 -0.2371 -0.0681
85368W        W28462   8.359  26.741   8.697 -0.0205 -0.0016 -0.0631
85369W        W28463   8.168  28.848   9.590  0.0153 -0.4410 -0.0238
85370W        W28464   9.836  28.498   7.580  0.0077 -0.2213 -0.0262
85371W        W28465   7.567  28.225   8.109  0.0443  0.3974 -0.1513
85372W        W28466  12.140  29.470  10.441  0.0117 -0.0933  0.1603
85373W        W28467   9.378  28.474   7.875 -0.3421 -0.2118 -0.0150
85374W        W28468  10.742  28.973  10.677  0.2420 -0.0677 -0.0247
85375W        W28469   9.967  26.783   9.018  0.2824  0.1962 -0.0487
85376W        W28470   8.436  25.180   7.800  0.2764  0.0235  0.0908
85377W        W28471   9.354  29.637   8.490 -0.0181 -0.0113 -0.2056
85378W        W28472   8.249  29.907   8.346  0.0254  0.0030 -0.0802
85379W        W28473   6.540  28.228   8.876 -0.1482 -0.2408  0.0337
85380W        W28474  10.204  28.510   9.829 -0.1698 -0.0749  0.0885
85381W        W28475   8.624  26.049   8.853  0.0329  0.0766 -0.0498
85382W        W28476   7.865  25.124   9.478 -0.1783  0.0570 -0.0128
85383W        W28477   9.863  24.483   7.810 -0.2732 -0.0139 -0.0423
85384W        W28478  10.664  25.473   9.122  0.0243  0.1800 -0.1134
85385W        W28479  11.105  26.948   7.827  0.1170  0.1149 -0.1450
85386W        W28480   9.355  26.458   7.345 -0.1085  0.0821 -0.0993
85387W        W28481   9.977  26.254   8.003  0.1941 -0.0341 -0.2010
85388W        W28482  11.013  27.821   6.941 -0.1033  0.0510 -0.2132
85389W        W28483   9.258  27.191   9.444  0.2113  0.1621  0.1232
85390W        W28484   9.503  26.817   6.529  0.0602  0.0954 -0.2893
85391W        W28485  11.581  28.906   8.952 -0.0902 -0.2975 -0.1784
85392W        W28486   6.550  27.822   9.433 -0.1920  0.3460  0.0605
85393W        W28487   8.838  26.509   8.747 -0.1079 -0.3419  0.0482
85394W        W28488   9.039  27.662   9.603  0.1686  0.1503  0.0411
85395W        W28489   8.596  28.509   8.323 -0.1797 -0.1252 -0.0018
85396W        W28490   5.709  25.078   9.557 -0.0731 -0.0412  0.1364
85397W        W28491   6.667  28.961   8.048  0.2814  0.0578 -0.1267
85398W        W28492  10.808  26.054   8.714  0.1098  0.2827  0.0016
85399W        W28493   9.830  24.392   9.257 -0.0471  0.1980  0.2949
85400W        W28494  10.129  26.484   9.490 -0.1504  0.0460 -0.0016
85401W        W28495   9.816  28.087   9.834 -0.2093 -0.1507  0.3027
85402W        W28496   9.286  28.133   8.292 -0.0254 -0.2464 -0.3521
85403W        W28497  10.682  22.818   9.165 -0.2032  0.1324 -0.0108
85404W        W28498   8.713  29.412  11.351  0.0449  0.0551 -0.2257
85405W        W28499   9.930  25.516   9.022 -0.4320 -0.1165 -0.0017
85406W        W28500   9.091  25.914   8.216 -0.0626  0.2506 -0.0008
85407W        W28501   7.706  29.534   9.577  0.1177  0.0554  0.1386
85408W        W28502   9.117  27.827   8.738 -0.0435 -0.1168  0.0390
85409W        W28503   7.462  26.575   8.209 -0.4186  0.3562  0.2255
85410W        W28504  10.071  27.816  10.227 -0.2395  0.0058  0.1507
85411W        W28505   9.102  29.469   5.821 -0.0438  0.1226 -0.0963
85412W        W28506  10.554  26.900   9.816 -0.2273  0.0294 -0.2280
85413W        W28507   9.258  28.778   8.792  0.0679  0.2434 -0.0162
85414W        W28508   7.569  25.415  10.195  0.2361 -0.1987  0.0542
85415W        W28509   7.477  29.828   8.856  0.1364 -0.3100  0.0584
85416W        W28510   9.551  25.800   8.055 -0.0848 -0.4892  0.0422
85417W        W28511   8.713  28.956   9.614  0.0299 -0.2243 -0.0420
85418W        W28512   9.431  26.562   8.724  0.2117 -0.0256  0.1597
85419W        W28513  11.063  27.170   8.590  0.0223  0.1166  0.0812
85420W        W28514   7.372  27.287   9.671  0.1174 -0.0356  0.0255
85421W        W28515   8.831  25.577   8.587 -0.0850 -0.2589  0.2122
85422W        W28516   8.731  27.969  10.584  0.3024 -0.2033 -0.0749
85423W        W28517  10.181  26.416   6.672 -0.0438 -0.0370  0.0320
85424W        W28518   7.708  25.755   7.238  0.0303  0.0110  0.1527
85425W        W28519   8.203  25.888   8.329 -0.0043 -0.1484 -0.0008
85426W        W28520   8.632  26.176   8.360  0.2289 -0.0887 -0.0207
85427W        W28521   9.244  28.849   9.397  0.3395  0.0730  0.4662
85428W        W28522  11.067  28.700   9.777 -0.1808 -0.1119  0.0350
85429W        W28523   9.855  27.966   8.259  0.1290  0.2989 -0.0630
85430W        W28524   9.547  28.537   8.352 -0.4695 -0.2974 -0.0759
85431W        W28525   8.641  26.146   9.891  0.1310  0.2120 -0.0705
85432W        W28526   9.420  25.649   8.500 -0.1160  0.1071 -0.0843
85433W        W28527   9.546  26.169   8.423  0.0144  0.2250  0.1474
85434W        W28528   9.597  27.656   9.626 -0.0632 -0.1327  0.2568
85435W        W28529  11.019  26.306   9.124 -0.1731 -0.0084  0.0111
85436W        W28530   5.393  24.638   9.601  0.2678  0.3889 -0.2242
85437W        W28531  10.119  24.530   9.971 -0.3009  0.1397 -0.0265
85438W        W28532  11.831  28.394   9.196  0.1824 -0.0488  0.0779
85439W        W28533   8.157  28.197   8.369 -0.1471  0.0415 -0.1841
85440W        W28534   6.508  28.807  10.692 -0.0867 -0.2263  0.1030
85441W        W28535   7.415  30.563   8.145 -0.0050 -0.4011 -0.1037
85442W        W28536   8.640  25.514  10.035 -0.3631  0.0064 -0.0740
85443W        W28537   7.845  30.433  10.480  0.1358 -0.0908 -0.2631
85444W        W28538   7.190  29.180   8.112  0.0009 -0.2912  0.0569
85445W        W28539   6.628  29.696  10.683  0.0191  0.0169  0.0051
85446W        W28540  10.338  25.333   8.726 -0.0814 -0.0472  0.1861
85447W        W28541  10.317  27.272   7.467 -0.2018 -0.0813  0.0048
85448W        W28542  11.034  26.490   8.631  0.1450 -0.2253 -0.0586
85449W        W28543  10.574  26.917   7.797  0.0410  0.1428  0.0707
85450W        W28544   9.275  24.826  10.050 -0.3093 -0.2448  0.2128
85451W        W28545  10.430  28.296   8.364 -0.2684 -0.1255  0.0911
85452W        W28546   8.946  24.672   8.860 -0.0174  0.1239 -0.4165
85453W        W28547   7.124  25.688   8.006 -0.0875 -0.0361  0.0193
85454W        W28548  11.295  28.177  10.216  0.1843  0.0130  0.1678
85455W        W28549  10.861  27.561   8.838 -0.4955  0.1483  0.0640
85456W        W28550  10.102  28.156   7.876 -0.1290 -0.0288 -0.1295
85457W        W28551  10.606  27.039   8.812 -0.1994 -0.3119 -0.3942
85458W        W28552   8.793  27.725   9.156 -0.1549 -0.3165  0.1724
85459W        W28553  11.514  26.444   8.584 -0.1221 -0.1098  0.1364
85460W        W28554   9.126  27.824   7.899  0.1458 -0.1595  0.3107
85461W        W28555   9.920  27.443   8.349 -0.0519  0.0659 -0.2378
85462W        W28556  11.890  26.599   8.267 -0.1258 -0.1193  0.1786
85463W        W28557   9.101  26.090   8.671 -0.1455 -0.0273 -0.1048
85464W        W28558   8.807  28.072   9.941  0.2014  0.0160 -0.1639
85465W        W28559  10.814  27.594   7.385  0.0071 -0.0556  0.0393
85466W        W28560   6.830  28.271   9.305  0.0269  0.2121 -0.1792
85467W        W28561  12.417  25.833   8.281 -0.0146  0.3626 -0.3033
85468W        W28562   9.889  25.591   7.093 -0.1108  0.3028 -0.0893
85469W        W28563   7.174  26.669   9.239 -0.0349 -0.1298  0.2933
85470W        W28564   8.336  26.904   6.955  0.1082  0.0749  0.0259
85471W        W28565   9.546  29.419   8.121 -0.0919 -0.1774 -0.1668
85472W        W28566  10.347  26.487  10.133  0.0511  0.0507  0.1136
85473W        W28567   8.397  25.777   9.607  0.2320  0.2435 -0.2560
85474W        W28568   5.934  27.524   8.663  0.2421 -0.1911  0.0058
85475W        W28569   8.334  27.206   8.569 -0.0305  0.1562 -0.2475
85476W        W28570   8.520  28.600   9.306 -0.0374 -0.0529 -0.2619
85477W        W28571   9.813  27.954   9.266  0.1424  0.0528  0.1831
85478W        W28572   9.103  25.648   7.801 -0.1977  0.1162  0.1411
85479W        W28573   8.964  28.361   8.686 -0.2483  0.1141 -0.0797
85480W        W28574   8.302  26.515  10.037 -0.2815 -0.3954  0.0801
85481W        W28575   7.870  28.191   9.671 -0.0646  0.0573 -0.3774
85482W        W28576  10.630  28.600   9.549  0.1264  0.0272 -0.1812
85483W        W28577   9.512  25.684   9.831  0.1362  0.1965  0.1311
85484W        W28578   9.764  25.982   8.856  0.2837  0.2646  0.1748
85485W        W28579   9.187  26.200   9.131  0.0228 -0.1045  0.0216
85486W        W28580   9.396  27.738   9.146 -0.2829 -0.0222  0.1404
85487W        W28581  11.886  26.706   8.754  0.1359 -0.0441  0.0261
85488W        W28582   9.652  27.062   8.623 -0.1183  0.1118  0.1255
85489W        W28583   8.680  25.569   9.178 -0.0264 -0.2686 -0.0955
85490W        W28584   7.470  25.460   9.625 -0.0061  0.0860 -0.1744
85491W        W28585   8.526  29.648   7.233  0.0619 -0.0738  0.1035
85492W        W28586   8.109  27.949   9.263  0.0788  0.0236 -0.2393
85493W        W28587   7.677  28.836   9.450 -0.0104 -0.0113  0.1837
85494W        W28588  11.022  28.105   9.644  0.1589 -0.0195  0.0281
85495W        W28589  10.127  27.251   8.779  0.0414  0.0618  0.0934
85496W        W28590   9.121  29.882   9.404 -0.1535 -0.2159  0.0948
85497W        W28591   9.644  26.597   6.932 -0.1450 -0.2941  0.1021
85498W        W28592   8.799  28.764   8.938  0.1046  0.4894  0.2418
85499W        W28593   6.831  29.031   7.608 -0.1913  0.1096  0.0321
85500W        W28594  10.780  30.253   7.459  0.0282 -0.1026  0.1342
85501W        W28595   7.960  29.524  10.007 -0.0509 -0.0123 -0.4363
85502W        W28596  10.712  26.452   6.549  0.0219 -0.0567  0.0375
85503W        W28597  10.659  26.493   9.425  0.2239 -0.0384 -0.2699
85504W        W28598  11.200  26.088   8.423 -0.0563  0.2300  0.1358
85505W        W28599   8.663  27.087   9.372  0.1836 -0.0091 -0.0149
85506W        W28600   9.808  27.163   7.636  0.0000 -0.2074  0.0383
85507W        W28601  11.747  27.601   8.281 -0.0782  0.0974  0.2185
85508W        W28602   8.252  25.860   9.167  0.1966  0.1480  0.1035
85509W        W28603   8.624  28.097   9.482  0.0059 -0.1243 -0.0002
85510W        W28604  12.020  26.537   9.183  0.0478  0.0754 -0.1240
85511W        W28605   9.140  30.400   7.525 -0.0359  0.2386 -0.1606
85512W        W28606   9.204  26.335   9.665  0.0689 -0.2564 -0.3705
85513W        W28607   9.582  29.080   8.563  0.2777  0.0714 -0.3235
85514W        W28608   9.622  28.571   9.659  0.1185 -0.0726  0.3074
85515W        W28609  10.892  28.506  10.464  0.2453 -0.0570  0.1531
85516W        W28610   8.506  26.497   7.957 -0.1317  0.2440 -0.1744
85517W        W28611  13.137  26.313   7.122  0.0111  0.3395  0.0817
85518W        W28612   9.675  26.116   9.665  0.0307  0.1656  0.1329
85519W        W28613   7.768  27.097   9.890 -0.0070 -0.0113  0.1352
85520W        W28614  11.143  26.192   7.611 -0.2792 -0.2327 -0.0154
85521W        W28615   9.018  28.459   9.623  0.0404  0.1088  0.1550
85522W        W28616   6.188  27.267   8.995  0.1005 -0.1472  0.1487
85523W        W28617   9.626  27.210   6.764  0.1015 -0.0375  0.0753
85524W        W28618  10.238  26.806   7.398 -0.1146  0.1220 -0.2261
85525W        W28619   6.000  27.022   8.482 -0.2255 -0.0597 -0.2161
85526W        W28620  10.339  26.966   5.751  0.1888  0.1700  0.2227
85527W        W28621   8.106  27.020   9.008  0.1011 -0.1716  0.1060
85528W        W28622   9.638  28.623  10.689  0.0833  0.3460 -0.0148
85529W        W28623   9.156  26.032  10.044 -0.0126  0.3041  0.1392
85530W        W28624  10.588  28.251   7.833 -0.3526 -0.1748  0.0773
85531W        W28625  11.427  26.918   8.798  0.2986  0.1186 -0.0298
85532W        W28626   9.070  29.208   8.503 -0.3891  0.1752 -0.1780
85533W        W28627  11.234  26.795   8.304  0.0400  0.0249  0.2848
85534W        W28628  10.674  28.868  10.065  0.1082  0.0603  0.1607
85535W        W28629   5.679  26.359   9.751  0.1908 -0.0120  0.2510
85536W        W28630   8.666  29.846  11.014  0.0139 -0.1091 -0.0370
85537W        W28631  11.734  28.483   8.544  0.1032 -0.1165  0.0473
85538W        W28632   7.990  24.651   9.759  0.0691  0.0382 -0.0539
85539W        W28633   7.861  26.599   8.969 -0.0420 -0.2177 -0.1229
85540W        W28634   8.601  29.123   8.657  0.0674 -0.0526  0.2386
85541W        W28635  11.572  26.173   9.983 -0.0567  0.1205 -0.2678
85542W        W28636  10.307  28.281   7.305 -0.1522 -0.3033  0.0946
85543W        W28637  11.928  30.175  10.447 -0.2884  0.2079 -0.0961
85544W        W28638   9.337  27.001   7.571 -0.2200 -0.0893 -0.0498
85545W        W28639  10.040  29.065   8.300 -0.1300  0.3575  0.0727
85546W        W28640   8.745  29.270   7.524 -0.0485  0.2252  0.1357
85547W        W28641   9.723  28.417  10.185  0.0983 -0.3385 -0.0487
85548W        W28642   8.987  26.693   9.394  0.3335 -0.3639  0.0832
85549W        W28643  10.993  26.942   9.545 -0.2159  0.1657  0.0976
85550W        W28644   6.595  26.369   8.971 -0.0785 -0.0889 -0.0777
85551W        W28645  12.111  25.618   9.882  0.0621  0.0448  0.2189
85552W        W28646   9.943  25.563   8.023 -0.1192 -0.0327  0.1449
85553W        W28647  10.284  28.084   9.316 -0.1445  0.1321  0.0108
85554W        W28648   8.835  27.359   8.218  0.1147  0.0158 -0.3261
85555W        W28649   8.571  28.876   7.228  0.3171  0.2651 -0.0969
85556W        W28650   8.288  28.613  10.351  0.1158  0.1132 -0.3952
85557W        W28651   6.923  28.778  10.361 -0.1523 -0.1301  0.2081
85558W        W28652   7.757  25.719   8.765  0.0791 -0.2972 -0.0649
85559W        W28653   7.530  24.892   9.780  0.0750  0.1621 -0.1698
85560W        W28654   6.973  26.968   9.516  0.1283 -0.4593  0.0140
85561W        W28655  11.082  27.488   9.563  0.2556  0.0294  0.2354
85562W        W28656  10.521  27.941   9.744 -0.3318 -0.1612 -0.2022
85563W        W28657   8.357  25.634   8.736  0.1829 -0.0306 -0.1452
85564W        W28658   8.125  29.185   7.225 -0.2508 -0.0917  0.0977
85565W        W28659   7.794  26.184   8.215  0.2817 -0.1013 -0.0773
85566W        W28660   8.914  28.440  10.480 -0.4835 -0.2356  0.0492
85567W        W28661  10.898  28.274   9.189  0.3290 -0.3727  0.2207
85568W        W28662   9.966  29.576   9.588  0.0954 -0.0844 -0.0815
85569W        W28663   5.479  25.986   9.139  0.1034 -0.0759 -0.3998
85570W        W28664  10.294  27.756   8.507  0.2096  0.0633 -0.0457
85571W        W28665  11.057  28.342   8.112 -0.1127 -0.2867  0.2424
85572W        W28666  11.594  24.708   9.620 -0.0816 -0.0043 -0.1349
85573W        W28667  10.794  27.332   7.822 -0.0182 -0.1292 -0.1614
85574W        W28668   9.929  25.485   9.582 -0.2301 -0.0811 -0.0768
85575W        W28669   6.835  25.879   8.686  0.0365  0.3962  0.3081
85576W        W28670  10.072  26.239   8.481 -0.1756  0.1409 -0.0569
85577W        W28671  11.120  28.871   9.295 -0.0101 -0.1919 -0.1600
85578W        W28672   8.871  28.834  10.069 -0.1124 -0.1331  0.2903
85579W        W28673  10.403  25.790   8.788 -0.1548 -0.4011  0.0611
85580W        W28674   9.917  28.882   9.891  0.1584 -0.1704 -0.0366
85581W        W28675  10.524  27.618   6.971  0.2235 -0.1036 -0.0588
85582W        W28676  10.570  26.426   8.424 -0.2335 -0.2119 -0.1742
85583W        W28677  11.865  28.335   9.923  0.2062 -0.0426 -0.2847
85584W        W28678  10.065  25.887   9.374  0.3902 -0.1016  0.2341
85585W        W28679  11.167  27.536   8.182 -0.1335 -0.0847 -0.1223
85586W        W28680   7.606  25.315   9.072  0.0713 -0.3306 -0.2232
85587W        W28681   9.512  28.169   8.764  0.0644  0.3218  0.0671
85588W        W28682  10.638  27.462   9.800 -0.1186  0.0193  0.1644
85589W        W28683  12.480  27.725   9.931  0.0023  0.2992 -0.3626
85590W        W28684   7.766  25.652   8.207 -0.0620 -0.2471  0.0931
85591W        W28685   9.450  25.315   8.886 -0.2563 -0.0142 -0.1854
85592W        W28686   9.367  28.925   9.960 -0.0408  0.1929  0.2046
85593W        W28687   7.338  28.261  10.211 -0.1043  0.0302  0.1819
85594W        W28688  10.369  31.613   3.997  0.0223 -0.0503  0.1812
85595W        W28689   8.958  30.091   0.913  0.3727 -0.0721  0.1499
85596W        W28690   9.366  30.060  31.540 -0.3040  0.2314  0.1147
85597W        W28691  11.200  30.631   2.206 -0.2489 -0.1136 -0.2962
85598W        W28692   8.259  29.837   3.043 -0.2276  0.0904 -0.1128
85599W        W28693   8.494  31.205   0.609 -0.1704  0.0681 -0.0559
85600W        W28694   7.565  29.710   4.266  0.2630  0.0038  0.2163
85601W        W28695  11.144  32.614   2.514 -0.2680 -0.0400  0.0870
85602W        W28696   9.035  32.255   3.701  0.0168  0.0249  0.0213
85603W        W28697   9.539  30.478   1.406 -0.1518  0.1774 -0.3670
85604W        W28698   8.729  31.234   2.945  0.1091 -0.1873  0.0469
85605W        W28699   9.477  32.775   1.888 -0.4644 -0.1891 -0.2957
85606W        W28700   8.234  29.421   2.090  0.2745 -0.3194 -0.0692
85607W        W28701   8.581  29.047   2.879  0.2865 -0.2360  0.0594
85608W        W28702  10.973  31.821   3.272  0.2168  0.0192  0.1897
85609W        W28703   8.522  31.214  31.659  0.0460  0.1184  0.2894
85610W        W28704   8.050  30.108   3.376 -0.0256 -0.1918 -0.0634
85611W        W28705   9.482  30.329   0.871  0.1256  0.2825  0.0609
85612W        W28706  10.155  31.921   1.428  0.2887 -0.1991  0.0599
85613W        W28707   9.591  29.934   1.620  0.0131  0.0094 -0.0554
85614W        W28708  10.100  29.036   2.701  0.4645  0.1691  0.0904
85615W        W28709   9.570  31.532   0.667  0.1233 -0.1969  0.1962
85616W        W28710   8.067  29.361  30.569 -0.1255 -0.2399  0.1588
85617W        W28711   7.507  29.882   2.645  0.4174 -0.5354 -0.3582
85618W        W28712   8.446  30.020   2.604 -0.3451 -0.0619 -0.1223
85619W        W28713   9.574  29.109   1.433 -0.2239 -0.0830  0.2180
85620W        W28714  10.908  31.888   2.514 -0.4240  0.0016  0.1945
85621W        W28715  10.684  31.618   2.957 -0.4026 -0.1371  0.0734
85622W        W28716  10.796  32.467   1.816  0.1046 -0.6049  0.2187
85623W        W28717  11.298  31.439   4.191  0.0652  0.1733  0.0224
85624W        W28718   7.965  30.084   2.583 -0.0471  0.0544  0.0457
85625W        W28719   8.988  32.110   1.535 -0.5251 -0.4560 -0.1061
85626W        W28720   9.155  31.623   1.728 -0.1038  0.0517 -0.3162
85627W        W28721   9.912  32.120   1.840 -0.0317 -0.0079 -0.1607
85628W        W28722  10.813  34.038   3.636 -0.1046 -0.3221  0.1077
85629W        W28723   9.620  33.169   3.558 -0.1787 -0.1221  0.0949
85630W        W28724   8.478  31.989   0.133 -0.0457  0.1059 -0.1209
85631W        W28725   9.824  33.011   2.615  0.1623  0.0710  0.2298
85632W        W28726   9.285  32.390   2.281 -0.0910  0.1773  0.1275
85633W        W28727   9.271  30.917   3.515 -0.0015  0.1624  0.1992
85634W        W28728   8.604  31.673   2.628  0.2072 -0.1621 -0.3392
85635W        W28729   8.450  31.593  31.332 -0.1560 -0.1897  0.0218
85636W        W28730  10.747  32.918   2.553  0.4016  0.1765  0.1267
85637W        W28731   9.236  32.196   4.648  0.2392 -0.0893  0.5065
85638W        W28732   8.705  32.630   2.985  0.1377  0.2454 -0.1521
85639W        W28733  11.499  29.829   4.629 -0.2424  0.0902  0.2782
85640W        W28734   8.699  30.940   0.094  0.1237  0.1439 -0.0480
85641W        W28735  11.211  28.892  31.618 -0.0543 -0.0930 -0.3236
85642W        W28736   9.167  29.791   0.565 -0.1031  0.2688 -0.0573
85643W        W28737  10.389  30.279   0.571 -0.2215  0.3608 -0.0255
85644W        W28738   8.935  28.756   2.165 -0.0868  0.1421  0.0928
85645W        W28739  10.435  31.975   3.232 -0.1259  0.1202 -0.4921
85646W        W28740   7.627  29.283   2.614  0.1702 -0.0635 -0.0090
85647W        W28741  10.536  32.739   3.892  0.1277 -0.1919  0.0527
85648W        W28742  10.872  30.605   2.814  0.1869 -0.2662  0.1706
85649W        W28743  10.076  30.454   2.092  0.3237  0.2841 -0.1606
85650W        W28744  10.068  32.291   2.893  0.0486  0.2355  0.0501
85651W        W28745   9.177  31.446   2.707  0.1862  0.1325  0.2973
85652W        W28746  10.646  32.499   0.769 -0.4127  0.1114  0.2169
85653W        W28747  10.648  31.552   0.718 -0.1048  0.3748 -0.0827
85654W        W28748   9.499  31.962   2.157  0.0312  0.0552 -0.0065
85655W        W28749   8.253  29.991   0.201  0.2218 -0.1755 -0.1653
85656W        W28750   7.188  31.233   4.172  0.1306  0.2076  0.1428
85657W        W28751   9.813  32.004   2.620  0.0234 -0.3917 -0.1519
85658W        W28752   8.168  28.352   0.482 -0.0129 -0.0056  0.0429
85659W        W28753  11.550  32.464   3.654 -0.2264 -0.1670  0.0722
85660W        W28754   8.541  32.231   3.216 -0.0058 -0.0993 -0.2036
85661W        W28755  11.809  30.132   1.466  0.0429 -0.1841  0.0768
85662W        W28756   9.966  31.753   2.114  0.0943  0.0583 -0.0461
85663W        W28757   9.190  32.704   2.899 -0.2674 -0.1901 -0.2619
85664W        W28758   9.970  31.649   0.056  0.0816 -0.1001 -0.1431
85665W        W28759  11.493  29.959   2.194  0.1537  0.1227 -0.1130
85666W        W28760   8.724  28.184   2.805  0.0687 -0.1450 -0.0328
85667W        W28761   9.654  30.777  31.431 -0.1034 -0.0514 -0.0215
85668W        W28762   9.952  31.361   1.038  0.1909 -0.2259  0.1245
85669W        W28763  11.826  32.195   3.282  0.2755  0.0705 -0.1056
85670W        W28764  10.936  30.572  31.850  0.0446  0.3634 -0.2813
85671W        W28765   8.715  33.544   3.422 -0.0554 -0.0445 -0.0268
85672W        W28766   9.043  30.468   3.308 -0.1741  0.2815  0.1478
85673W        W28767   9.260  31.261   3.838  0.2746 -0.0617 -0.2534
85674W        W28768   8.271  31.151   0.132  0.2436 -0.3036  0.3179
85675W        W28769   8.873  32.595   2.473 -0.3132  0.0451  0.3248
85676W        W28770   7.973  30.652  31.405 -0.3550 -0.1860  0.4349
85677W        W28771   7.552  29.115   3.420 -0.3708 -0.0449 -0.3663
85678W        W28772  10.458  31.777   2.308  0.1241  0.0486  0.0588
85679W        W28773  10.205  29.985   2.289  0.1083 -0.1260 -0.1222
85680W        W28774   7.921  30.584   3.302 -0.0729 -0.0840  0.1129
85681W        W28775  11.326  29.466   2.034  0.0382 -0.2283  0.1550
85682W        W28776   8.281  30.584   1.033  0.3609  0.1497  0.1344
85683W        W28777  10.248  32.427   1.568  0.1099  0.3149 -0.0828
85684W        W28778  11.931  29.937   1.953  0.2419 -0.0572  0.4603
85685W        W28779   9.096  32.031  31.600 -0.1826  0.0299 -0.0192
85686W        W28780   7.067  30.273   3.535 -0.1485 -0.3136  0.0301
85687W        W28781   8.621  29.677   2.267  0.3176 -0.1567 -0.0631
85688W        W28782   7.750  29.756   3.065  0.0006  0.0001 -0.0232
85689W        W28783   8.398  29.606   1.001 -0.1672  0.1989  0.2749
85690W        W28784  10.562  29.789   4.827 -0.2476  0.0505  0.0115
85691W        W28785   6.739  29.331   0.167 -0.0489 -0.0331 -0.0981
85692W        W28786  10.062  30.422   1.582  0.1758  0.2808 -0.1522
85693W        W28787   8.721  30.906   0.985 -0.0570 -0.0421 -0.2202
85694W        W28788   8.492  29.569   0.047 -0.1967  0.0373 -0.1648
85695W        W28789  10.763  29.280   4.240  0.2097  0.1081 -0.0099
85696W        W28790  10.737  32.777  31.362  0.1127 -0.0593  0.0421
85697W        W28791  11.327  32.856   3.391 -0.1168  0.2808  0.1478
85698W        W28792   9.959  31.914   0.977 -0.5215  0.0981  0.1744
85699W        W28793   8.215  30.843   3.630 -0.3286 -0.2640  0.2104
85700W        W28794   7.165  29.288   0.011  0.2494  0.1888 -0.2454
85701W        W28795   8.630  33.982   2.723 -0.1370 -0.0275 -0.1002
85702W        W28796   9.506  31.498   1.235 -0.1347  0.0671  0.1822
85703W        W28797   8.948  29.443   0.225 -0.0440 -0.2676 -0.1146
85704W        W28798  10.111  33.241   2.143  0.0900  0.0608  0.2041
85705W        W28799   9.865  30.870   1.839  0.2072  0.1500  0.1689
85706W        W28800  10.148  31.292   3.183 -0.0319 -0.3187  0.2073
85707W        W28801  10.338  29.061   4.436  0.1059 -0.0021  0.1193
85708W        W28802  10.600  30.311   3.712  0.1384 -0.1653 -0.1467
85709W        W28803  10.344  31.151   0.802 -0.2750  0.2803  0.1113
85710W        W28804   8.543  29.820  31.500 -0.0070 -0.0609 -0.0041
85711W        W28805   9.669  31.422   1.831  0.0916  0.1569  0.4942
85712W        W28806   7.548  31.605   0.401  0.1805  0.1013 -0.2616
85713W        W28807   8.513  30.055   1.111  0.2081  0.0826  0.0508
85714W        W28808   8.234  30.977   2.404 -0.3842 -0.1948  0.1774
85715W        W28809  10.720  29.852   2.153  0.2501  0.1185  0.1464
85716W        W28810   7.221  31.190   3.677 -0.0666  0.0103  0.2268
85717W        W28811  10.312  30.363   4.113 -0.0295  0.1240  0.0113
85718W        W28812   6.479  28.948  31.830  0.1083 -0.2872 -0.2937
85719W        W28813   9.609  33.544   3.184 -0.2552  0.1342 -0.1473
85720W        W28814   9.980  29.978   0.602  0.1694 -0.1471 -0.1613
85721W        W28815  11.591  31.955   0.844 -0.0105 -0.0005 -0.4631
85722W        W28816   9.938  29.028   4.695 -0.0292 -0.0353  0.0648
85723W        W28817  10.693  31.957   1.518  0.1835  0.1738 -0.1903
85724W        W28818  11.124  31.781   0.270 -0.0968  0.1267 -0.3114
85725W        W28819   9.956  30.343   0.278  0.0822 -0.4436  0.0307
85726W        W28820   7.733  31.358   4.456 -0.2164  0.0763  0.1415
85727W        W28821   9.306  30.825   1.891  0.1049 -0.4436 -0.0844
85728W        W28822   9.973  30.820   3.320 -0.2846 -0.2284 -0.2944
85729W        W28823   8.716  30.420   1.383  0.0884 -0.1096  0.1081
85730W        W28824  12.198  33.065   1.621  0.2027  0.0456  0.0445
85731W        W28825   8.767  32.163   2.643 -0.1187 -0.2934  0.0028
85732W        W28826   9.399  31.732   4.106 -0.1778  0.0797  0.3461
85733W        W28827  10.220  32.222   2.385  0.2712  0.0560  0.1058
85734W        W28828   8.940  29.485   3.578 -0.0943  0.0240 -0.1103
85735W        W28829   8.815  31.144   2.449 -0.0710 -0.2520 -0.1316
85736W        W28830   8.769  30.259   0.488 -0.2845 -0.0480  0.4546
85737W        W28831   7.193  32.070  30.962  0.2389 -0.0349 -0.0974
85738W        W28832  10.429  29.040   3.123  0.0247  0.5918  0.0938
85739W        W28833  10.880  29.591   1.722  0.0009 -0.0773 -0.1831
85740W        W28834   9.107  28.937   2.883 -0.0642  0.0558 -0.1390
85741W        W28835  11.336  32.183   3.274 -0.0459  0.2255  0.0814
85742W        W28836  10.366  31.486   1.273  0.0633  0.0633 -0.2156
85743W        W28837  10.652  30.415   2.247  0.1940 -0.3591 -0.0217
85744W        W28838   9.706  29.156   0.918  0.3044  0.3555  0.1861
85745W        W28839   9.715  30.772   2.397 -0.1650  0.5573 -0.0736
85746W        W28840   8.493  32.367   3.704 -0.1891  0.1291  0.4040
85747W        W28841   8.313  32.660   4.427  0.0672  0.0674  0.2576
85748W        W28842   9.022  31.089   6.235  0.4067 -0.0574 -0.0757
85749W        W28843  10.922  31.271   0.973  0.3086  0.3631 -0.2026
85750W        W28844   7.997  29.324   3.012  0.2069 -0.1284  0.1460
85751W        W28845   8.897  31.155   1.875 -0.1623  0.0036  0.0510
85752W        W28846   7.973  31.437   0.628 -0.0190 -0.1286 -0.1894
85753W        W28847   8.713  30.705   2.180  0.0155  0.1965  0.0388
85754W        W28848   8.296  28.632   2.369 -0.1858 -0.3915  0.0429
85755W        W28849  10.561  30.936   1.206 -0.1600  0.2863  0.0044
85756W        W28850   8.402  30.289  31.331  0.3102 -0.1680  0.0713
85757W        W28851  10.152  32.394   3.964  0.0642 -0.1342 -0.0774
85758W        W28852  10.178  31.690   2.719 -0.0161  0.1402 -0.0339
85759W        W28853  11.655  30.933   0.384  0.0888  0.2814 -0.0591
85760W        W28854   9.689  31.221   3.404 -0.1384 -0.4213  0.0483
85761W        W28855   8.331  30.209   0.644  0.2956  0.2719 -0.2599
85762W        W28856   8.444  30.513   0.224  0.2364 -0.1088 -0.1526
85763W        W28857  10.119  29.541   0.944  0.2592 -0.0447 -0.2350
85764W        W28858  10.287  32.248   0.534  0.2101  0.0426 -0.2638
85765W        W28859   8.642  29.500   2.732  0.0439 -0.2838  0.0289
85766W        W28860  10.002  29.526   2.039  0.4787  0.1776 -0.0737
85767W        W28861   8.205  32.829   2.996  0.1703  0.1035  0.0109
85768W        W28862   9.076  30.940   1.449 -0.1055  0.1140  0.2892
85769W        W28863  11.146  30.591   0.967 -0.3312  0.1739 -0.0335
85770W        W28864  10.011  31.884   4.748 -0.0781 -0.0729 -0.3539
85771W        W28865   9.209  30.768   4.178 -0.2931 -0.0565 -0.1590
85772W        W28866   7.227  30.941   0.143 -0.0168 -0.0020  0.2226
85773W        W28867  10.925  30.078   2.995  0.0194  0.1331 -0.0925
85774W        W28868   9.994  29.577   1.479 -0.4226 -0.1143  0.0811
85775W        W28869   8.743  33.115   3.115 -0.1473  0.0116 -0.1214
85776W        W28870  11.000  32.189   2.934  0.0810  0.1798 -0.0991
85777W        W28871   9.559  30.331   2.153 -0.1414 -0.0265 -0.1912
85778W        W28872   7.706  31.730   2.141 -0.0426  0.1584 -0.1989
85779W        W28873   9.218  30.483   3.779  0.0643 -0.1924  0.2122
85780W        W28874  10.605  31.075   4.675 -0.0858 -0.2139  0.2047
85781W        W28875   8.461  30.251  31.843 -0.1788  0.0693  0.0212
85782W        W28876   8.073  29.029   2.559  0.0687  0.1342 -0.2915
85783W        W28877   9.614  30.989   0.940  0.1572  0.1072 -0.3239
85784W        W28878  10.948  31.425   2.445 -0.1739 -0.3893  0.0544
85785W        W28879   9.599  30.467   3.429 -0.0264 -0.1550 -0.0216
85786W        W28880   8.752  32.290   4.666 -0.1339 -0.0278  0.3113
85787W        W28881   9.524  29.642   2.734 -0.1355  0.0754  0.3540
85788W        W28882  13.208  33.121   1.475 -0.0023 -0.1899 -0.1592
85789W        W28883  10.032  31.212   3.859  0.2145  0.2954  0.2463
85790W        W28884   9.531  32.078   1.243  0.0897  0.1377 -0.0498
85791W        W28885   6.803  30.788   2.267  0.1410  0.2850  0.0745
85792W        W28886   8.125  31.636   2.417 -0.3516 -0.1303  0.2136
85793W        W28887   9.642  31.441   2.891  0.0232  0.0238 -0.0334
85794W        W28888   8.798  31.878   3.449 -0.1262 -0.2278  0.0649
85795W        W28889   8.262  30.533   1.554  0.1491 -0.0202  0.1339
85796W        W28890   8.277  33.368   3.852 -0.1616  0.3756  0.2339
85797W        W28891  10.417  29.942   0.941  0.1299  0.4302  0.0927
85798W        W28892   8.913  30.751   0.503 -0.0569 -0.0792  0.1709
85799W        W28893   8.712  29.278   0.780  0.1786  0.2327 -0.0518
85800W        W28894  10.989  29.003   3.031 -0.0215 -0.3481 -0.2175
85801W        W28895  10.713  31.271   1.564  0.0923 -0.3634  0.0496
85802W        W28896   8.737  29.393   4.196  0.1160  0.1438  0.0899
85803W        W28897   9.050  30.034   3.588  0.2792 -0.1777  0.3620
85804W        W28898  10.957  32.817   2.104 -0.4467  0.5762 -0.1130
85805W        W28899   8.861  30.445   2.822 -0.0953  0.1528  0.2625
85806W        W28900   9.579  32.222   3.706 -0.0272  0.1738  0.0453
85807W        W28901   8.370  31.046   4.987 -0.0934  0.3682 -0.0588
85808W        W28902  10.421  29.313   2.355  0.0498 -0.0806 -0.1738
85809W        W28903   7.588  28.713   0.815 -0.3673  0.2082 -0.3528
85810W        W28904  10.213  30.670   3.744 -0.2079 -0.1199  0.4447
85811W        W28905  11.218  32.092   3.781 -0.1646 -0.3095  0.0221
85812W        W28906  10.187  32.403   1.072 -0.0464 -0.2707  0.1631
85813W        W28907  10.491  31.264   2.062 -0.0174  0.2424  0.1156
85814W        W28908   8.934  32.718   3.454 -0.2812 -0.2979  0.2054
85815W        W28909  10.889  31.773   1.973 -0.1941 -0.3006 -0.0418
85816W        W28910   9.032  31.609   2.276 -0.3508  0.0866  0.2844
85817W        W28911   8.257  31.106   1.100 -0.4477 -0.0073 -0.0102
85818W        W28912   7.296  30.333   3.998  0.1178  0.0779  0.1147
85819W        W28913   9.832  32.605   0.109  0.1951  0.0446 -0.1807
85820W        W28914   9.538  28.643   0.685  0.0213 -0.0554  0.1946
85821W        W28915   9.308  28.655   2.529 -0.2439 -0.0250 -0.2651
85822W        W28916   9.897  29.450   2.521  0.0977 -0.0853  0.2666
85823W        W28917   9.215  30.053   2.500 -0.0571  0.0629  0.1250
85824W        W28918   8.353  31.291   3.894  0.1534  0.0756  0.2867
85825W        W28919  10.403  32.502   3.377  0.0814  0.1868 -0.1808
85826W        W28920  11.409  29.915   1.181  0.0379  0.3863 -0.1758
85827W        W28921  10.301  29.470   3.374  0.0310  0.0420 -0.1312
85828W        W28922  11.539  31.354   2.018 -0.0927 -0.1628  0.3107
85829W        W28923   9.129  31.275   0.950  0.2911 -0.0939 -0.0550
85830W        W28924   8.785  31.401   1.454  0.1246 -0.0169  0.1714
85831W        W28925  11.296  29.413   4.454 -0.1308  0.0784  0.1707
85832W        W28926   8.474  29.285  31.260 -0.0610 -0.2504 -0.1276
85833W        W28927  10.106  30.184   3.659 -0.2843  0.1713 -0.1297
85834W        W28928   8.942  30.429  31.927 -0.0182  0.2346  0.0121
85835W        W28929  11.875  31.756   2.305 -0.0440  0.0183  0.1494
85836W        W28930  10.749  30.325   1.030  0.0450 -0.3014 -0.0707
85837W        W28931   7.570  29.891   1.419  0.1296  0.1410  0.3384
85838W        W28932   9.412  32.635   3.374  0.1313 -0.0040  0.1987
85839W        W28933   9.494  30.373  31.910 -0.0632  0.0405  0.4142
85840W        W28934   9.094  31.229   0.390 -0.2327  0.0875  0.0382
85841W        W28935   9.916  31.914   3.203  0.0655 -0.1963 -0.0489
85842W        W28936   9.166  31.271   4.295 -0.0389  0.1832 -0.0037
85843W        W28937   7.998  29.469   1.307 -0.0540  0.1562  0.2057
85844W        W28938  10.898  30.677   3.961 -0.0320  0.0714  0.0339
85845W        W28939   7.822  31.214   2.532  0.2973 -0.0244  0.4129
85846W        W28940   8.220  29.145   0.850 -0.0358 -0.2010  0.0268
85847W        W28941   9.038  33.724   2.067 -0.0261  0.2182 -0.1901
85848W        W28942   9.361  31.844   3.124  0.3081 -0.0410 -0.2784
85849W        W28943   9.022  32.297   3.203 -0.0601  0.1955 -0.1574
85850W        W28944   9.193  30.107   1.347  0.1454 -0.0203  0.0766
85851W        W28945   9.656  30.020   3.192 -0.1551 -0.0612 -0.2844
85852W        W28946  10.435  31.222   2.632  0.2777  0.2890 -0.1985
85853W        W28947  12.829  31.513   2.102 -0.3813 -0.2617  0.0575
85854W        W28948  10.340  32.052   4.313 -0.1469  0.2333  0.0014
85855W        W28949   9.086  30.849   2.968  0.0112 -0.2797 -0.4661
85856W        W28950  10.180  32.965   3.498 -0.2490 -0.1975 -0.0329
85857W        W28951  10.554  32.932   1.410 -0.2913  0.1529 -0.0337
85858W        W28952   8.543  32.332   1.857  0.5368  0.2054  0.2388
85859W        W28953   8.111  30.893   2.973 -0.0466 -0.2281 -0.0811
85860W        W28954  10.675  30.670   4.401  0.0693 -0.3211 -0.1997
85861W        W28955  10.190  28.823   3.653  0.3034 -0.1426 -0.1356
85862W        W28956   9.336  27.414  31.734 -0.5010  0.0646 -0.0416
85863W        W28957   9.868  31.100   0.530 -0.2790 -0.0120  0.0520
85864W        W28958   8.293  31.218   3.303 -0.0735  0.3670 -0.1179
85865W        W28959   8.345  32.501   2.623 -0.0531  0.3025  0.0127
85866W        W28960   8.135  32.457   2.155 -0.2162 -0.1044  0.0125
85867W        W28961   9.755  30.848   0.103 -0.0330  0.0464 -0.2269
85868W        W28962   9.560  31.315   0.191 -0.0351  0.3078 -0.1520
85869W        W28963  10.412  32.097   1.932 -0.2559  0.1520 -0.1514
85870W        W28964  10.145  30.033  31.865 -0.0828 -0.1605 -0.0042
85871W        W28965   9.034  33.135   2.748 -0.0687 -0.0338 -0.2500
85872W        W28966   6.664  31.079   0.044 -0.1479  0.0898 -0.2344
85873W        W28967   9.226  32.538  31.658 -0.0496 -0.0057 -0.0408
85874W        W28968   8.228  33.201   2.031 -0.2394  0.2315  0.1916
85875W        W28969  12.516  31.841   2.988 -0.1202  0.0650 -0.0180
85876W        W28970  10.516  29.438   1.304  0.2861  0.0743  0.1339
85877W        W28971  12.246  32.254   2.979  0.1159 -0.0406  0.2170
85878W        W28972  12.167  28.970   1.272 -0.3515 -0.1182 -0.2709
85879W        W28973   9.762  32.717   3.724  0.2882 -0.1051  0.3701
85880W        W28974   9.562  31.564   2.392  0.1306  0.0148  0.1141
85881W        W28975   8.259  28.826   0.073  0.1654 -0.3058 -0.0615
85882W        W28976   7.783  31.028   3.470 -0.3318 -0.2997  0.3401
85883W        W28977  12.593  30.517   3.708  0.0637  0.1078  0.1774
85884W        W28978   7.816  31.991   3.892 -0.1032  0.0871 -0.0889
85885W        W28979  10.963  33.821   1.414 -0.0734 -0.0479  0.0186
85886W        W28980   7.863  30.581   1.862  0.1333  0.0541 -0.1498
85887W        W28981   8.988  30.469   1.843  0.0450  0.1787  0.1364
85888W        W28982  10.616  28.926   1.925 -0.0438 -0.1221 -0.0319
85889W        W28983   8.913  29.918   0.118 -0.0538  0.1158  0.1998
85890W        W28984  10.503  28.983   1.008 -0.0361 -0.0772 -0.2231
85891W        W28985   8.558  33.067   2.575  0.1865  0.2044 -0.1726
85892W        W28986   8.520  31.975   2.250  0.2340 -0.1381  0.1223
85893W        W28987  11.113  32.215   2.190 -0.2419  0.0232 -0.1131
85894W        W28988   7.942  28.646   1.842 -0.2090  0.1958 -0.1748
85895W        W28989   9.988  31.277   2.401  0.5491 -0.0078  0.3503
85896W        W28990   8.585  29.837   3.526 -0.0862 -0.0889  0.1127
85897W        W28991  11.836  29.440   2.166 -0.0302 -0.0625 -0.0654
85898W        W28992   8.537  30.258   1.884 -0.0651 -0.1400  0.2872
85899W        W28993  10.287  30.410   1.041 -0.2132  0.0143 -0.1976
85900W        W28994  10.034  30.910   2.815  0.0007 -0.0009 -0.3608
85901W        W28995   8.668  30.830   3.279  0.1528  0.0379  0.3279
85902W        W28996   7.923  28.922   0.475 -0.2912 -0.0372  0.1979
85903W        W28997  11.177  31.642   2.817  0.1483  0.0697  0.3563
85904W        W28998   9.755  29.754  31.613 -0.2448 -0.0099 -0.0522
85905W        W28999  10.034  33.233   3.131  0.0231 -0.2245  0.0547
85906W        W29000   7.483  29.393   1.426  0.0066 -0.2488 -0.3335
85907W        W29001  10.395  30.802   1.824 -0.1397 -0.1330  0.1204
85908W        W29002   8.238  30.927   1.877 -0.0828  0.0204  0.1490
85909W        W29003   9.543  30.912   3.023 -0.3495  0.1655 -0.0309
85910W        W29004  10.901  32.840   4.363 -0.2021 -0.0939  0.1010
85911W        W29005   7.714  27.901   0.548  0.0362 -0.0065 -0.2822
85912W        W29006   9.243  32.433   0.545 -0.1328 -0.0047 -0.0648
85913W        W29007  10.334  29.499   2.903  0.0819 -0.0699  0.0795
85914W        W29008   8.409  31.635   0.424  0.2199  0.1416  0.3472
85915W        W29009  11.335  32.466   1.362 -0.1060 -0.2310  0.2232
85916W        W29010  11.136  32.110   1.681 -0.0026 -0.0870  0.0622
85917W        W29011   7.785  30.756   2.378 -0.1648  0.1291  0.1529
85918W        W29012  10.182  32.760   2.983  0.1421  0.2593  0.0678
85919W        W29013  12.441  32.616   2.463  0.2648 -0.2948 -0.1244
85920W        W29014   8.910  29.685   1.171  0.2261  0.0644  0.0024
85921W        W29015   9.344  29.697   3.339 -0.2194 -0.1452 -0.2145
85922W        W29016   8.296  31.381   1.586  0.1476 -0.0996 -0.1109
85923W        W29017  10.307  29.713   3.802 -0.0387 -0.1221  0.1444
85924W        W29018  10.031  28.821   4.112 -0.1012  0.1857  0.0717
85925W        W29019   8.567  31.967  31.643  0.0372  0.0206 -0.0611
85926W        W29020  10.764  29.473   3.148  0.0639 -0.1453 -0.0811
85927W        W29021  11.128  31.066   1.354  0.2972 -0.3217 -0.0305
85928W        W29022   8.730  31.302   4.625  0.2443  0.1645 -0.0006
85929W        W29023   8.900  30.230  31.484 -0.1614  0.1349  0.0836
85930W        W29024   8.480  31.877   3.847 -0.2539  0.1094  0.1278
85931W        W29025   9.556  31.087   1.486 -0.1452 -0.0852 -0.0742
85932W        W29026   8.556  31.536   0.995  0.1518  0.3096  0.1506
85933W        W29027  11.317  31.527   1.582 -0.1210 -0.0757  0.2319
85934W        W29028  10.562  29.913   2.616 -0.3198  0.1928  0.0758
85935W        W29029  10.844  33.319   2.209 -0.2530 -0.3015  0.0480
85936W        W29030   8.267  29.054   1.355 -0.0734  0.2368 -0.1315
85937W        W29031  10.907  28.764   1.102 -0.0753 -0.1611  0.0330
85938W        W29032   9.296  28.229   0.504 -0.2275  0.3954 -0.1566
85939W        W29033   9.326  30.279   2.912 -0.3387  0.1692 -0.1596
85940W        W29034   6.830  28.841  30.507 -0.2403 -0.1934  0.0064
85941W        W29035   9.374  32.240   0.093 -0.0364 -0.0121  0.2183
85942W        W29036   8.508  31.379   2.056 -0.1100 -0.1615  0.1447
85943W        W29037  10.578  28.614   3.407 -0.4079 -0.5848 -0.0042
85944W        W29038   8.776  31.236   3.569 -0.2549 -0.0172  0.0427
85945W        W29039   8.807  30.250   2.322  0.2839  0.1339  0.0328
85946W        W29040   7.109  28.727   0.844 -0.2824 -0.3774 -0.0347
85947W        W29041   9.615  33.225   1.511  0.0444 -0.1449  0.0633
85948W        W29042   8.328  28.552   2.892  0.0065 -0.1164  0.0515
85949W        W29043   8.104  29.599   2.602 -0.1446 -0.1664 -0.0355
85950W        W29044   9.037  31.766   1.211  0.0224  0.1534  0.1377
85951W        W29045   8.943  32.595   1.935 -0.1935 -0.0505  0.3612
85952W        W29046   8.780  29.906   3.005  0.0626  0.1495  0.0561
85953W        W29047  10.631  32.507   2.874  0.1020 -0.1049  0.1703
85954W        W29048   7.645  32.064  30.709  0.2681 -0.0184 -0.2059
85955W        W29049  10.450  30.919   3.094  0.0791 -0.0088 -0.2921
85956W        W29050   8.450  30.716   4.076  0.2951  0.0677 -0.2806
85957W        W29051   6.057  29.731  31.804  0.2754  0.1419 -0.3233
85958W        W29052  10.034  31.222   1.559  0.1853  0.1890 -0.0752
85959W        W29053  10.538  32.013   1.036  0.0038 -0.1171 -0.0621
85960W        W29054   9.978  32.888   1.042  0.0188  0.1845  0.0007
85961W        W29055   9.539  32.340   2.995  0.2924  0.1333 -0.3741
85962W        W29056   9.259  32.654   4.419  0.4374 -0.1451 -0.5231
85963W        W29057   7.310  29.509   3.250  0.0543  0.0894  0.3217
85964W        W29058   9.949  30.783   1.237  0.1146  0.4870 -0.2217
85965W        W29059   9.851  32.006   4.106  0.1698  0.0627  0.1419
85966W        W29060  11.500  33.749   1.153  0.1771 -0.0439 -0.1333
85967W        W29061  11.044  29.744   2.453 -0.5195  0.0255  0.2222
85968W        W29062   9.448  30.758   0.538  0.0395 -0.3414 -0.1118
85969W        W29063   8.225  29.935   2.079  0.0841  0.1640 -0.0326
85970W        W29064   8.874  32.055   4.226  0.0353  0.0331  0.0681
85971W        W29065  11.410  32.110   2.687 -0.3226 -0.0438 -0.0051
85972W        W29066   8.980  29.201   1.333 -0.1960 -0.1119  0.3017
85973W        W29067   9.879  30.535   0.731 -0.2164  0.1476 -0.0821
85974W        W29068   8.602  30.938   1.525 -0.0038  0.0248 -0.1039
85975W        W29069   7.764  31.256   3.017 -0.0048 -0.1347  0.2417
85976W        W29070   9.971  30.020   1.869  0.0804  0.1035 -0.1101
85977W        W29071  10.870  31.112   2.874 -0.2153  0.0793  0.2152
85978W        W29072  11.543  31.720   3.154 -0.3590 -0.1261  0.0007
85979W        W29073  10.919  30.753   4.894  0.2629  0.2700 -0.2357
85980W        W29074   7.586  29.723   0.897 -0.0253  0.0144  0.0398
85981W        W29075  10.847  30.698   1.858  0.1226 -0.0582  0.1253
85982W        W29076   9.736  32.582   4.261 -0.0111 -0.2011 -0.1362
85983W        W29077  10.122  32.357   4.686  0.0660  0.1210 -0.1312
85984W        W29078  10.240  32.776   2.499 -0.0947  0.0033 -0.1185
85985W        W29079  11.442  29.940   2.712 -0.1302 -0.0614  0.2947
85986W        W29080   9.717  30.259   2.656  0.0011  0.0574  0.2262
85987W        W29081   9.229  29.168   1.864 -0.1193 -0.1370  0.1345
85988W        W29082   8.682  31.758   1.724  0.2597 -0.1346  0.0011
85989W        W29083  10.860  30.754   3.397 -0.1523 -0.0584  0.0608
85990W        W29084   8.751  29.292   1.870 -0.0632 -0.0350 -0.0557
85991W        W29085   9.946  30.085   1.161 -0.0823 -0.1351 -0.1577
85992W        W29086   8.191  32.233   4.687 -0.0388 -0.0207 -0.1748
85993W        W29087  11.168  30.901   4.264 -0.1243  0.1533 -0.0462
85994W        W29088   8.407  31.438   7.518 -0.2844 -0.3547  0.1082
85995W        W29089   8.793  29.925   4.351 -0.1291  0.1355 -0.0427
85996W        W29090   9.539  30.092   3.816  0.2294  0.2086 -0.1750
85997W        W29091  10.523  30.408   5.483  0.1863  0.0943  0.2141
85998W        W29092   7.336  30.346   5.875 -0.2119 -0.1349 -0.0924
85999W        W29093   8.142  31.953   6.614  0.4015  0.1878  0.2992
86000W        W29094   7.449  29.794   5.352 -0.0077 -0.2756  0.0594
86001W        W29095  10.862  32.487   6.316  0.0172  0.1541 -0.0044
86002W        W29096  10.934  32.932   6.966 -0.0607  0.0460 -0.0112
86003W        W29097  10.413  30.793   5.129 -0.3424 -0.1470  0.2174
86004W        W29098   8.630  30.714   6.982 -0.2509  0.1302  0.3816
86005W        W29099   7.657  31.452   5.907 -0.1389 -0.0618 -0.4281
86006W        W29100   9.217  28.692   3.373 -0.3070  0.2815  0.0634
86007W        W29101   6.734  29.170   5.090 -0.3167  0.0163 -0.1545
86008W        W29102  10.366  30.358   7.763  0.2756  0.1966 -0.3197
86009W        W29103   6.797  31.181   4.999 -0.1360 -0.1016 -0.1151
86010W        W29104   9.619  30.341   7.816 -0.2432  0.2104  0.1486
86011W        W29105   9.813  29.660   5.167 -0.3861  0.1336  0.2702
86012W        W29106   9.545  32.777   5.780  0.0156 -0.1892 -0.0029
86013W        W29107   9.592  30.568   7.322  0.0445  0.0478 -0.1960
86014W        W29108   9.891  30.556   8.164 -0.1817  0.0342  0.0074
86015W        W29109   8.012  31.504   5.189 -0.2588 -0.2744 -0.1520
86016W        W29110   6.940  30.783   3.966 -0.3084  0.1348 -0.0312
86017W        W29111   6.539  30.750   5.236  0.1190  0.0105  0.0593
86018W        W29112   9.586  30.320   5.867  0.1050 -0.1140 -0.1551
86019W        W29113  10.459  29.950   5.813  0.0467  0.2389 -0.3616
86020W        W29114  10.717  30.620   5.995 -0.0990 -0.0163 -0.0593
86021W        W29115  10.342  32.025   7.220  0.0922  0.0288  0.2840
86022W        W29116   9.340  31.365   5.495 -0.1673 -0.2015  0.0300
86023W        W29117  10.762  30.077   7.952 -0.1028  0.1077 -0.1143
86024W        W29118   7.489  30.875   5.608 -0.0259  0.1516 -0.0442
86025W        W29119   8.828  31.757   6.067  0.1783  0.0632 -0.1685
86026W        W29120   9.154  32.405   5.697  0.4495 -0.2160 -0.0155
86027W        W29121  12.231  30.855   6.224 -0.1090  0.2923  0.0283
86028W        W29122  10.745  32.959   6.446  0.2250 -0.2333 -0.1085
86029W        W29123   9.091  33.107   8.620 -0.0670 -0.0563 -0.0029
86030W        W29124   8.515  31.686   4.336  0.0664 -0.2285  0.3238
86031W        W29125   9.761  32.532   8.503  0.0913 -0.3915  0.1866
86032W        W29126   9.128  33.069   8.080  0.0878 -0.0802 -0.0907
86033W        W29127   9.137  30.519   7.013  0.2004 -0.1998  0.1183
86034W        W29128   9.949  30.844   6.011 -0.2171  0.1755 -0.4124
86035W        W29129   7.824  30.996   5.978  0.0656 -0.2431 -0.0973
86036W        W29130   9.141  30.352   5.546 -0.0283 -0.2574 -0.0084
86037W        W29131   8.949  31.543   9.596 -0.2545 -0.0890 -0.1770
86038W        W29132   7.040  31.716   6.959  0.0784  0.1547 -0.0224
86039W        W29133  11.551  29.725   7.932 -0.2177  0.2380 -0.1778
86040W        W29134   8.202  32.012   5.525 -0.1566  0.2249  0.1047
86041W        W29135  11.515  30.292   4.326  0.2511 -0.1132  0.0550
86042W        W29136   7.997  30.924   4.111  0.1156 -0.1225 -0.1219
86043W        W29137  10.346  29.611   4.405  0.2609 -0.1289 -0.4008
86044W        W29138  10.178  28.902   5.370  0.0535  0.0686 -0.1452
86045W        W29139   8.992  33.203   7.557 -0.0553  0.2241 -0.2510
86046W        W29140   8.360  30.261   6.166 -0.2901  0.3493  0.3786
86047W        W29141  10.355  33.163   7.948  0.3329  0.1021  0.1025
86048W        W29142   8.455  31.703   3.119  0.0740 -0.0030 -0.0885
86049W        W29143   9.553  30.446   5.302  0.1761  0.0880  0.0692
86050W        W29144   7.694  32.581   7.658  0.1501 -0.1766 -0.0904
86051W        W29145   8.170  29.706   5.950 -0.2802  0.0359 -0.2368
86052W        W29146   9.797  31.652   3.668  0.1400 -0.1151  0.3460
86053W        W29147  10.204  32.841   6.461  0.0209  0.1312  0.1215
86054W        W29148   8.806  31.296   5.126  0.3205  0.0258  0.2077
86055W        W29149   6.765  31.456   4.466  0.1361  0.2150 -0.0667
86056W        W29150   7.160  30.730   7.260 -0.0404 -0.1284 -0.1586
86057W        W29151   6.197  30.936   6.662  0.1282  0.1123  0.1428
86058W        W29152   7.926  28.247   2.748 -0.2943  0.2985 -0.3323
86059W        W29153  10.687  32.409   6.768 -0.0033 -0.1892  0.1769
86060W        W29154   7.351  31.903   6.066  0.4360 -0.2366 -0.2528
86061W        W29155  10.726  29.479   5.243 -0.3775  0.0512  0.1183
86062W        W29156   9.347  31.361   7.112  0.1636 -0.2192 -0.1095
86063W        W29157  10.032  33.590   7.168 -0.0050  0.5296  0.1895
86064W        W29158   9.981  31.577   4.280  0.1269 -0.3634 -0.0774
86065W        W29159  10.906  28.992   5.137  0.1647  0.1309 -0.0399
86066W        W29160   9.338  28.972   4.839 -0.0395 -0.0461  0.1929
86067W        W29161   8.092  31.622   4.649 -0.3624 -0.1641 -0.3233
86068W        W29162   9.866  30.397   6.273 -0.0499 -0.1899 -0.3413
86069W        W29163  11.151  31.500   7.126 -0.1308 -0.1584 -0.0971
86070W        W29164   9.790  31.041   5.151 -0.0692 -0.1222 -0.1301
86071W        W29165   7.068  32.934   7.383 -0.0090 -0.0430 -0.0583
86072W        W29166   9.513  30.795   7.714 -0.3867  0.1729 -0.0386
86073W        W29167   9.819  31.505   7.596  0.1378 -0.0263  0.1392
86074W        W29168   7.944  32.079   5.109 -0.1588 -0.1193 -0.1834
86075W        W29169   7.552  29.878   5.862 -0.2528  0.0125 -0.1705
86076W        W29170   7.440  31.017   4.626  0.1980  0.3343  0.2036
86077W        W29171   7.935  29.444   5.541  0.0639 -0.1325  0.0386
86078W        W29172   7.795  32.077   6.010 -0.1636 -0.0890 -0.0534
86079W        W29173  11.234  29.224   5.466 -0.1093  0.0822  0.0663
86080W        W29174   8.599  30.075   5.415 -0.1512 -0.0669 -0.0580
86081W        W29175  11.215  28.700   5.401  0.0846 -0.1779  0.1037
86082W        W29176   8.338  31.319   5.604 -0.2124  0.1415  0.0719
86083W        W29177  10.789  31.597   6.021 -0.0150 -0.0587 -0.1467
86084W        W29178  11.345  30.995   5.143 -0.0306 -0.3813  0.0429
86085W        W29179  10.063  31.963   5.396  0.0728  0.1146  0.1003
86086W        W29180   7.040  30.471   6.771  0.1759 -0.1634  0.0408
86087W        W29181   7.499  30.826   4.088  0.2221  0.0030 -0.1651
86088W        W29182   8.370  30.939   7.545  0.0135 -0.1406 -0.1277
86089W        W29183   8.376  29.650   5.438 -0.2000 -0.0246  0.1631
86090W        W29184   9.340  31.254   7.671 -0.2719  0.0139  0.0026
86091W        W29185   7.946  28.512   3.488 -0.3495 -0.1006  0.2080
86092W        W29186  10.254  29.002   5.895  0.2344  0.3730  0.1458
86093W        W29187   8.707  30.594   5.044 -0.0327  0.2221  0.0547
86094W        W29188   9.511  31.217   5.961  0.0843 -0.2730  0.1317
86095W        W29189  11.307  29.728   8.344  0.0418  0.1402  0.1568
86096W        W29190   8.528  31.754   4.917  0.0943  0.1757 -0.2485
86097W        W29191  10.604  33.371   7.008 -0.2298  0.0629 -0.0086
86098W        W29192  10.348  31.819   6.107 -0.1242 -0.0116  0.0102
86099W        W29193   7.132  29.910   6.172  0.0175 -0.0157 -0.0686
86100W        W29194   7.328  28.566   2.774  0.1465  0.0032  0.3554
86101W        W29195   7.938  32.549   6.848  0.0842  0.0926  0.0564
86102W        W29196   9.259  32.536   8.527  0.1075  0.0935  0.1380
86103W        W29197   8.886  30.446   4.506  0.1306 -0.1427  0.1228
86104W        W29198  10.123  31.949   6.644 -0.2325 -0.1028  0.3198
86105W        W29199   9.239  30.782   5.163 -0.3303 -0.0841 -0.1011
86106W        W29200   8.655  31.350   8.201  0.1427  0.0536 -0.0581
86107W        W29201   9.516  29.205   7.642 -0.0821 -0.0884  0.2873
86108W        W29202  10.052  30.746   6.977 -0.0245  0.0363 -0.2127
86109W        W29203   9.885  30.885   6.513 -0.3754  0.1764 -0.3065
86110W        W29204   9.050  29.616   2.431 -0.0719 -0.0657  0.1751
86111W        W29205   9.737  31.093   7.214  0.1378 -0.2151  0.2373
86112W        W29206   7.300  32.230   5.229 -0.0335  0.1650 -0.1890
86113W        W29207   8.115  31.230   6.382  0.2409  0.2475  0.2964
86114W        W29208   9.803  31.541   6.878 -0.0328 -0.2064  0.2150
86115W        W29209   9.455  29.427   4.563  0.0949  0.0959  0.1032
86116W        W29210   7.815  29.948   9.184  0.0715 -0.1668 -0.0808
86117W        W29211   9.944  29.530   9.130 -0.0147 -0.3117 -0.0388
86118W        W29212   6.958  30.475   4.305  0.2407  0.0092  0.2874
86119W        W29213   7.943  32.070   7.872  0.0042 -0.0167 -0.1643
86120W        W29214  10.214  28.321   4.218  0.1084  0.0921 -0.0086
86121W        W29215  10.267  29.389   5.078  0.0607 -0.2817  0.1213
86122W        W29216  10.853  30.724   8.700  0.6171 -0.0776 -0.2427
86123W        W29217  11.294  31.736   4.576 -0.0565  0.0991  0.0068
86124W        W29218  10.026  30.392   3.121  0.3875 -0.1549 -0.2380
86125W        W29219   9.194  29.278   4.100  0.0972 -0.0342  0.0365
86126W        W29220   8.381  32.084   6.997 -0.2471 -0.1729  0.0216
86127W        W29221   9.955  31.276   4.699 -0.1856  0.2444  0.2984
86128W        W29222   9.053  31.080   6.722  0.0463  0.1697  0.1259
86129W        W29223  11.094  29.757   5.005  0.2010  0.0451  0.2699
86130W        W29224  11.890  33.176   5.274  0.0413  0.0362 -0.1574
86131W        W29225   9.511  31.277   6.494  0.0208 -0.0925  0.1904
86132W        W29226   9.516  31.376   8.658 -0.1850  0.1975  0.1154
86133W        W29227  10.348  32.327   5.139  0.1753  0.0686 -0.1190
86134W        W29228   8.727  30.591   7.473 -0.0021 -0.1309 -0.2092
86135W        W29229   8.812  30.750   3.746 -0.2855 -0.0407  0.3191
86136W        W29230   8.987  28.786   5.513 -0.4702  0.2104 -0.1451
86137W        W29231   7.102  31.961   4.735  0.1199 -0.2108  0.0120
86138W        W29232   9.279  30.017   7.207 -0.0831  0.0677  0.2656
86139W        W29233   9.789  30.041   5.518 -0.3510 -0.0623  0.0152
86140W        W29234   9.057  29.675   7.534  0.1849 -0.4215 -0.1868
86141W        W29235  11.291  29.709   7.162 -0.3237  0.0755  0.2427
86142W        W29236   9.445  29.637   5.537  0.0191 -0.0375  0.0826
86143W        W29237   8.143  31.596   6.074  0.1853 -0.3499 -0.3509
86144W        W29238   9.217  31.748   5.128 -0.0309  0.3138 -0.1666
86145W        W29239   9.130  30.027   7.951 -0.1716 -0.0836 -0.1136
86146W        W29240   8.967  31.495   6.503  0.1065  0.2401 -0.3676
86147W        W29241   7.635  33.187   6.260 -0.2512  0.4262 -0.0258
86148W        W29242  10.251  31.807   7.646  0.1909 -0.0189  0.1119
86149W        W29243  10.326  29.607   6.111 -0.0796  0.2191 -0.2105
86150W        W29244   8.800  31.113   7.683  0.0568 -0.1941  0.2712
86151W        W29245   9.946  29.599   4.679 -0.1374  0.4465 -0.0252
86152W        W29246   8.878  31.321   5.647 -0.4218 -0.0846  0.1910
86153W        W29247   9.168  30.622   6.530  0.1405  0.1878  0.0802
86154W        W29248   9.100  29.054   6.605  0.0548  0.0577 -0.0753
86155W        W29249   8.550  31.579   6.996 -0.2275  0.0049  0.1444
86156W        W29250   7.930  32.682   6.339 -0.2578 -0.0660  0.1990
86157W        W29251  10.689  31.300   8.063  0.2468  0.1794 -0.1589
86158W        W29252   8.381  32.227   6.105 -0.0051  0.3316  0.2300
86159W        W29253  11.258  29.256   4.957  0.1832 -0.1316 -0.0318
86160W        W29254   8.558  31.118   6.680  0.2273 -0.0012  0.1202
86161W        W29255   9.201  30.219   4.216 -0.0182 -0.1645  0.0555
86162W        W29256   7.547  31.317   6.423  0.0295 -0.0327 -0.2173
86163W        W29257   8.859  29.907   4.871  0.2141 -0.3689  0.0788
86164W        W29258  10.564  29.376   5.717  0.0023 -0.0838 -0.0801
86165W        W29259   8.553  30.733   6.276  0.0000  0.2210 -0.0029
86166W        W29260   9.694  29.953   6.438  0.0664  0.1044  0.1118
86167W        W29261   6.843  32.546   5.980 -0.0348 -0.0444 -0.1151
86168W        W29262   9.014  31.535   7.869 -0.1087  0.0609 -0.0427
86169W        W29263   9.729  29.879   2.351  0.1249  0.1319  0.0906
86170W        W29264   9.879  32.377   7.234 -0.0664 -0.2996  0.2292
86171W        W29265   9.154  30.728   9.839 -0.2859 -0.1460  0.1137
86172W        W29266   6.930  29.753   3.445  0.0476  0.0752 -0.2479
86173W        W29267  11.142  28.635   6.255  0.0592 -0.7851 -0.3138
86174W        W29268   9.216  30.138   6.318  0.3133  0.1248  0.2927
86175W        W29269   8.773  32.677   5.333  0.4592 -0.2737 -0.2728
86176W        W29270  10.378  32.331   6.258  0.2154 -0.0460 -0.1514
86177W        W29271   9.040  31.742   4.663 -0.0399 -0.0821 -0.0339
86178W        W29272   8.094  31.789   7.257 -0.2833  0.3294  0.1181
86179W        W29273   9.166  30.534   8.040 -0.1184  0.1440  0.1772
86180W        W29274  10.418  33.044   7.420  0.0209  0.5688 -0.1232
86181W        W29275  10.226  29.761   7.128 -0.4223  0.1139 -0.0497
86182W        W29276   8.620  30.476   5.761  0.1326  0.3011 -0.2072
86183W        W29277  10.206  29.688   5.469  0.0353 -0.2285  0.1386
86184W        W29278   9.513  32.133   5.523  0.0575  0.0204 -0.1001
86185W        W29279   8.741  30.831   8.096  0.1969  0.1090  0.1411
86186W        W29280   8.580  31.729   8.664 -0.0190  0.3201 -0.3221
86187W        W29281   8.581  29.490   5.046 -0.1769  0.0013 -0.0075
86188W        W29282  11.017  32.498   4.752  0.0939  0.1161 -0.3679
86189W        W29283   9.423  30.625   8.462 -0.0764  0.1563 -0.0600
86190W        W29284   8.067  31.623   4.082 -0.0243  0.3915 -0.1097
86191W        W29285   7.772  30.696   5.089  0.0370  0.0127 -0.3855
86192W        W29286   9.039  30.867   4.729  0.1759 -0.1076 -0.0133
86193W        W29287   9.831  29.462   6.154 -0.3402  0.1716  0.0420
86194W        W29288   7.546  32.806   6.632  0.2681  0.1319 -0.0279
86195W        W29289   9.283  31.284   4.916 -0.0031 -0.1797  0.1196
86196W        W29290   7.148  32.844   6.267  0.0098 -0.1452 -0.1306
86197W        W29291  11.131  29.100   3.935  0.2673  0.1334 -0.1467
86198W        W29292   9.732  31.532   5.144 -0.1487  0.0278  0.2851
86199W        W29293   9.939  30.513   5.536 -0.2127  0.1786  0.2541
86200W        W29294  11.725  28.567   7.213 -0.0788  0.1301  0.1746
86201W        W29295  10.305  31.140   4.247  0.2214 -0.0811 -0.0343
86202W        W29296   9.691  29.776   6.905  0.1740  0.1450 -0.0565
86203W        W29297   9.011  29.583   7.018 -0.0571 -0.0729 -0.1195
86204W        W29298  10.636  32.718   5.506 -0.1483  0.1435  0.0365
86205W        W29299   7.106  30.976   8.048 -0.0819 -0.2367  0.1129
86206W        W29300  10.081  32.512   9.440 -0.1057  0.0366 -0.2101
86207W        W29301   8.255  31.088   8.175 -0.1741  0.1208 -0.2988
86208W        W29302   8.939  29.663   5.374  0.2046  0.1072 -0.0102
86209W        W29303   7.113  29.414   4.468 -0.1721 -0.0913  0.0293
86210W        W29304   8.684  32.052   6.561 -0.0836  0.0358 -0.0716
86211W        W29305  10.440  31.210   6.176 -0.2259 -0.1349  0.0059
86212W        W29306   8.540  32.195   5.124 -0.1567  0.0384 -0.1541
86213W        W29307  10.493  29.339   6.914  0.3608  0.0870  0.1752
86214W        W29308   9.702  30.311   6.877 -0.0693  0.3935  0.0486
86215W        W29309  10.183  30.039   5.094 -0.3252  0.2260  0.0335
86216W        W29310   9.291  30.402   4.830 -0.1416  0.1178 -0.1485
86217W        W29311   8.671  30.924   5.435 -0.0029  0.0911  0.3306
86218W        W29312   8.832  29.757   8.344 -0.0849  0.1496  0.2863
86219W        W29313  10.819  29.759   6.117 -0.2230  0.1851  0.0075
86220W        W29314  10.186  29.172   6.380  0.0927  0.0279  0.0525
86221W        W29315   9.140  30.840   5.667  0.3059 -0.1502 -0.1913
86222W        W29316  10.059  30.771   7.491  0.0264 -0.1862 -0.0234
86223W        W29317   9.038  32.012   7.723 -0.1941 -0.1451  0.0772
86224W        W29318   8.081  29.484   9.228  0.1211  0.0323  0.0590
86225W        W29319  11.221  33.173   6.613  0.2454 -0.1920 -0.1475
86226W        W29320  11.103  30.409   5.280  0.0639  0.2765 -0.2195
86227W        W29321  10.031  29.673   8.022  0.3175 -0.0918  0.0685
86228W        W29322   9.681  31.126   4.339  0.2425  0.2019  0.0728
86229W        W29323  10.500  28.902   4.898 -0.2517 -0.2724 -0.3046
86230W        W29324   7.829  30.295   6.097 -0.0809 -0.0119  0.1170
86231W        W29325  10.455  30.335   7.110 -0.1606  0.0006  0.1033
86232W        W29326   8.270  31.252   4.375  0.3238 -0.0743 -0.0612
86233W        W29327   9.053  31.197   8.536 -0.2916  0.0644  0.0189
86234W        W29328   8.910  32.221   6.109 -0.2348  0.0321  0.3941
86235W        W29329   9.905  31.274   5.596 -0.1126 -0.5207 -0.1232
86236W        W29330   9.900  29.363   5.680 -0.5140 -0.1668 -0.0739
86237W        W29331   7.497  30.328   5.401 -0.3581 -0.0330 -0.1648
86238W        W29332   9.401  33.473   8.835 -0.1523  0.0420  0.0931
86239W        W29333   7.645  31.287   3.931 -0.1016  0.0229 -0.1250
86240W        W29334   9.683  30.089   4.851 -0.0740  0.1395  0.2183
86241W        W29335  10.677  31.560   7.615 -0.0107 -0.2408 -0.0960
86242W        W29336  11.153  30.957   8.321  0.3514 -0.0409  0.3404
86243W        W29337   8.423  29.788   4.009 -0.3538 -0.0168  0.1563
86244W        W29338  10.577  29.839   6.756  0.0188  0.1680 -0.0494
86245W        W29339   7.269  30.945   5.116  0.3108 -0.0593 -0.0804
86246W        W29340   8.640  29.601   5.862  0.3525  0.2509  0.1566
86247W        W29341   7.573  32.587   7.195 -0.0660 -0.1581 -0.2095
86248W        W29342   9.177  30.884   7.360  0.0344  0.0421  0.2786
86249W        W29343   9.996  31.343   6.192  0.1314 -0.2406 -0.1458
86250W        W29344  10.138  29.652   6.606  0.2308 -0.2348  0.0098
86251W        W29345  11.514  29.777   6.720  0.1787  0.1906  0.1282
86252W        W29346   9.608  30.851   5.597 -0.0345 -0.1769 -0.1085
86253W        W29347  11.693  30.651   8.122  0.2368  0.1545 -0.2909
86254W        W29348   9.970  31.645   8.464  0.0331  0.2139  0.4015
86255W        W29349   9.973  30.554   5.055  0.0542  0.2575 -0.3038
86256W        W29350  10.504  32.641   7.717 -0.1130 -0.1883 -0.1479
86257W        W29351  10.939  30.777   6.513 -0.0959 -0.0542 -0.1894
86258W        W29352   8.996  30.597   6.068  0.0616  0.3333  0.0193
86259W        W29353   8.743  30.060   7.555 -0.0444  0.3193  0.2244
86260W        W29354  10.251  29.869   8.755  0.1780 -0.1227 -0.4334
86261W        W29355  11.030  29.726   5.534  0.0411 -0.1348 -0.2371
86262W        W29356   8.366  29.070   4.838  0.1043  0.1620 -0.3001
86263W        W29357   9.463  30.753   6.079 -0.1257  0.0650 -0.2276
86264W        W29358   8.593  32.324   7.829  0.1395  0.0360  0.2198
86265W        W29359   8.305  30.493   6.663 -0.1058  0.1299  0.0252
86266W        W29360   9.276  31.827   3.611 -0.1814 -0.0546  0.0317
86267W        W29361  10.322  31.299   5.168 -0.1654  0.2271  0.1219
86268W        W29362  10.310  30.920   5.580  0.1167 -0.0182 -0.2346
86269W        W29363   9.590  32.525   8.004 -0.2452 -0.0619  0.0411
86270W        W29364   9.997  29.951   4.078  0.0000  0.0158 -0.2397
86271W        W29365   8.566  31.264   6.068  0.3659 -0.0644 -0.0438
86272W        W29366   8.938  31.637   3.954  0.0654 -0.1345 -0.1326
86273W        W29367   9.333  31.658   6.143 -0.0636 -0.1866 -0.2305
86274W        W29368   8.685  32.293   5.653  0.1499  0.2437  0.0238
86275W        W29369  10.161  31.473   8.047  0.1366 -0.0205 -0.0082
86276W        W29370  11.499  28.768   4.177  0.0478  0.0599  0.1332
86277W        W29371  11.308  29.966   6.081 -0.2460 -0.0966 -0.0482
86278W        W29372  10.676  30.301   4.990 -0.3380  0.1836 -0.2418
86279W        W29373  10.122  31.262   9.402 -0.3491 -0.0665  0.1780
86280W        W29374   9.076  31.716   8.632  0.2270  0.1689 -0.2354
86281W        W29375   9.801  29.413   3.104  0.0681  0.2347 -0.5459
86282W        W29376   8.192  31.450   8.989 -0.0239 -0.0694  0.2928
86283W        W29377  11.641  28.273   7.990  0.0893 -0.0747  0.0503
86284W        W29378   7.924  32.321   9.018  0.1490 -0.1893 -0.1520
86285W        W29379  10.409  31.527   4.535  0.0380 -0.1248 -0.0514
86286W        W29380   8.017  30.060   5.294 -0.2074  0.2410  0.1318
86287W        W29381   9.935  29.961   6.002 -0.2551 -0.0381  0.0032
86288W        W29382  11.747  29.132   6.556  0.3442  0.0797  0.0549
86289W        W29383   9.555  30.714   4.585 -0.2490 -0.1893 -0.1465
86290W        W29384   9.869  30.109   7.358  0.3003  0.2663 -0.2105
86291W        W29385   8.393  32.570   7.202  0.0858 -0.2980  0.0973
86292W        W29386   7.712  32.237   6.463 -0.0263 -0.0763 -0.5268
86293W        W29387   8.673  31.888   8.196 -0.1054 -0.0991  0.0521
86294W        W29388   6.801  29.843   4.226 -0.3173  0.0175 -0.1530
86295W        W29389  11.270  29.465   5.866 -0.1072 -0.1591 -0.0227
86296W        W29390   7.803  30.850   8.023 -0.0203 -0.1908  0.0086
86297W        W29391  11.904  29.045   7.144 -0.0353  0.1708 -0.0255
86298W        W29392   8.196  30.193   5.721 -0.0045 -0.4578 -0.2929
86299W        W29393  11.358  28.434   5.907  0.3230 -0.0219  0.0786
86300W        W29394  10.189  32.419   6.857  0.0325  0.0093  0.0892
86301W        W29395   8.741  30.103   7.026 -0.0720 -0.2485 -0.2572
86302W        W29396   9.335  30.028   5.203 -0.1928  0.0785 -0.2289
86303W        W29397  11.166  32.517   7.113  0.0993 -0.1384  0.0503
86304W        W29398   9.664  30.729   3.904 -0.1461 -0.0323 -0.0214
86305W        W29399   9.859  31.915   7.326 -0.2025 -0.1003  0.0148
86306W        W29400   8.163  30.467   4.847  0.3143 -0.1439  0.1195
86307W        W29401   9.716  28.672   4.960 -0.1898 -0.0485 -0.2226
86308W        W29402   7.452  30.545   4.557  0.0748 -0.2028 -0.1861
86309W        W29403   9.397  31.718   7.492  0.0706 -0.3705  0.3593
86310W        W29404  10.597  32.155   7.711 -0.0764 -0.2028 -0.3356
86311W        W29405   7.259  29.262   5.101  0.1059 -0.1084  0.2623
86312W        W29406  10.782  31.779   4.234  0.0685  0.1970  0.1960
86313W        W29407   9.384  29.447   6.775 -0.1442 -0.3351 -0.2837
86314W        W29408   8.535  32.687   4.909  0.1385 -0.0285 -0.1214
86315W        W29409  10.625  30.762   6.911  0.0414  0.0114 -0.0197
86316W        W29410   9.762  33.856   6.705  0.1022  0.1217  0.2012
86317W        W29411   8.111  30.580   7.115  0.0831  0.0337  0.2716
86318W        W29412   9.849  32.454   6.390  0.3073  0.2280  0.1314
86319W        W29413  11.656  31.277   7.045 -0.0296  0.0090  0.1222
86320W        W29414   9.517  28.995   3.828 -0.2143 -0.2837 -0.0105
86321W        W29415   9.525  30.789   6.860 -0.0662 -0.1166 -0.0184
86322W        W29416   8.271  32.219   4.166  0.0441  0.2103 -0.1201
86323W        W29417  13.287  28.994   5.761  0.0447 -0.0868  0.1894
86324W        W29418  11.109  29.224   8.081 -0.0130  0.2303  0.1283
86325W        W29419   9.841  33.289   4.941 -0.0332 -0.1621 -0.0568
86326W        W29420  10.930  29.129   7.150  0.0997  0.2293 -0.1379
86327W        W29421   9.296  32.271   7.049  0.3266 -0.1979 -0.0098
86328W        W29422   8.877  34.080   9.585  0.1717  0.0693  0.0736
86329W        W29423   7.947  30.869   4.588 -0.0872 -0.0512  0.1945
86330W        W29424   8.844  32.106   7.268  0.0127  0.0983  0.2213
86331W        W29425   7.957  30.917   6.762 -0.5410  0.3936 -0.3554
86332W        W29426   9.013  32.201   5.232  0.0917  0.3308 -0.1358
86333W        W29427  11.094  31.703   6.503 -0.0275 -0.1066 -0.2275
86334W        W29428   9.862  29.744   3.563  0.0200  0.0707 -0.4836
86335W        W29429  10.855  31.239   5.120 -0.0821 -0.0664 -0.0336
86336W        W29430   8.169  30.098   6.972  0.2495  0.2228 -0.1784
86337W        W29431  12.960  29.403   5.677  0.0048  0.1203  0.2723
86338W        W29432  10.762  29.361   4.776 -0.0587  0.2533 -0.0159
86339W        W29433   8.780  30.342   6.472  0.1831 -0.0482  0.1523
86340W        W29434   6.561  32.208   3.796 -0.0303 -0.2711  0.1244
86341W        W29435  10.146  30.778   4.616 -0.1117 -0.2112  0.0596
86342W        W29436   8.914  31.600   7.367 -0.0433 -0.1733  0.0882
86343W        W29437   9.384  28.671   7.371 -0.1897  0.2740 -0.0617
86344W        W29438   8.572  30.305   8.523 -0.1670 -0.2256 -0.0781
86345W        W29439   7.839  30.326   6.576  0.0521 -0.3610 -0.3857
86346W        W29440   8.771  30.288   3.938 -0.0824 -0.0148  0.0195
86347W        W29441  10.771  32.356   4.231  0.1647  0.0945  0.2432
86348W        W29442   9.403  29.777   6.035 -0.0123 -0.0266  0.0344
86349W        W29443   7.704  30.103   4.777 -0.2615  0.1698  0.2204
86350W        W29444   9.546  32.690   4.812  0.0076  0.4678 -0.0494
86351W        W29445  10.827  31.658   4.838 -0.0311 -0.0860  0.2106
86352W        W29446   9.086  29.766   4.006 -0.1381  0.0364  0.0334
86353W        W29447  11.403  33.146   7.966  0.1962 -0.2066 -0.0914
86354W        W29448   8.747  31.143   4.135 -0.0124 -0.1477 -0.1311
86355W        W29449  10.211  30.701   8.530 -0.2029 -0.0740  0.1397
86356W        W29450  10.396  29.623   8.360  0.0840  0.1242  0.0459
86357W        W29451   8.053  29.962   4.345  0.1855  0.1754 -0.1821
86358W        W29452  10.196  30.326   6.699 -0.2423 -0.0705 -0.0582
86359W        W29453   9.645  32.101   4.972 -0.0291  0.0834 -0.0680
86360W        W29454   9.634  33.058   4.451 -0.3706  0.0897  0.1800
86361W        W29455   8.524  31.911   7.625  0.1393  0.0053 -0.3054
86362W        W29456  10.021  32.097   8.643  0.0767  0.0072  0.0347
86363W        W29457   8.478  29.718   7.844  0.0238  0.0207 -0.2521
86364W        W29458  10.405  30.682   6.411  0.1385  0.0826  0.0815
86365W        W29459   9.695  32.092   8.246 -0.1086  0.0768  0.1059
86366W        W29460  10.256  30.376   5.947 -0.0855 -0.0942 -0.0177
86367W        W29461  10.825  28.567   5.886  0.1566  0.3049 -0.0321
86368W        W29462   9.725  30.303   4.231  0.2725  0.1158 -0.1870
86369W        W29463   7.616  30.126   7.908 -0.1783 -0.1308 -0.1310
86370W        W29464   7.687  31.367   8.186  0.0768  0.4818  0.1981
86371W        W29465  11.104  32.132   6.843 -0.0542  0.1421  0.1302
86372W        W29466   9.293  29.538   5.004  0.0820 -0.3277  0.3325
86373W        W29467   8.949  29.457   4.644 -0.0777 -0.1929  0.1655
86374W        W29468   9.031  32.603   4.897 -0.3550 -0.3440 -0.0445
86375W        W29469   6.644  30.760   6.820 -0.2897 -0.0425 -0.0840
86376W        W29470   9.764  29.135   5.163 -0.3149  0.0792 -0.0576
86377W        W29471  10.697  29.990   9.194  0.0410  0.2188  0.0269
86378W        W29472  10.623  31.624   7.077 -0.3442  0.0741  0.1001
86379W        W29473  10.564  31.102   8.599 -0.0221  0.1601  0.2928
86380W        W29474   8.276  30.595   5.328  0.0228 -0.0679 -0.0214
86381W        W29475  11.741  30.126   5.987 -0.0917  0.0751  0.0375
86382W        W29476   9.236  33.554   6.670  0.1863 -0.1390 -0.1101
86383W        W29477   9.881  31.537   9.731 -0.1127  0.0019  0.3614
86384W        W29478   9.592  31.576   8.095  0.2384 -0.0593 -0.0051
86385W        W29479  10.606  32.083   5.755  0.0425  0.4139 -0.0656
86386W        W29480   7.243  29.698   6.816 -0.1497 -0.4110 -0.2221
86387W        W29481   7.850  30.578   5.665 -0.0475  0.1759  0.4005
86388W        W29482   8.272  30.824   5.812  0.0468 -0.1127  0.1079
86389W        W29483  11.442  29.163   7.154 -0.1308  0.0554  0.4107
86390W        W29484   8.362  28.876   6.290  0.4442 -0.2845  0.1497
86391W        W29485   9.258  29.889   4.598  0.0223  0.2280 -0.0617
86392W        W29486   8.828  31.942   9.067  0.0710 -0.1537  0.1150
86393W        W29487  10.668  31.263   5.617 -0.1507  0.0720  0.2052
86394W        W29488   9.002  30.223  11.240 -0.0094 -0.0879  0.0114
86395W        W29489   8.983  30.554   9.370 -0.2204 -0.0499  0.0660
86396W        W29490  11.183  30.346   8.287  0.1044  0.4176  0.0375
86397W        W29491  11.392  30.734   9.302  0.3998  0.0955  0.0376
86398W        W29492   8.261  31.057  10.017 -0.0184  0.0420  0.1493
86399W        W29493  10.162  31.385  10.639  0.2618  0.0948 -0.1710
86400W        W29494  11.341  31.495   9.687  0.0978 -0.0411  0.4002
86401W        W29495  10.751  30.074  10.276 -0.1797 -0.1029  0.0017
86402W        W29496  11.418  31.104   7.451 -0.0464 -0.0214  0.0747
86403W        W29497   9.272  26.845   9.888  0.0728  0.2312 -0.1265
86404W        W29498   8.228  29.858   9.678 -0.1426  0.1467 -0.0223
86405W        W29499   5.695  29.849  10.060 -0.1849 -0.0530  0.1125
86406W        W29500  10.089  30.771  10.854  0.4016 -0.3458  0.0511
86407W        W29501   7.982  31.573   9.776  0.0844 -0.0058  0.1079
86408W        W29502  11.800  27.943  10.186 -0.0829  0.0374  0.0157
86409W        W29503   8.908  30.195   9.019  0.2233 -0.3526  0.3779
86410W        W29504   8.811  32.311  10.493  0.2988  0.3175  0.0341
86411W        W29505   8.791  29.642  10.415  0.1404  0.0225 -0.2525
86412W        W29506  10.244  32.615  10.419  0.0127  0.0802  0.0937
86413W        W29507   8.678  29.748   9.295 -0.0631 -0.0407 -0.2789
86414W        W29508   5.844  32.102  10.421  0.0208 -0.0926  0.1049
86415W        W29509   7.674  31.341  10.889  0.0714  0.0766 -0.0384
86416W        W29510  10.569  30.032   9.688 -0.1378  0.0774  0.4062
86417W        W29511   9.757  30.613   9.884 -0.0691  0.3265  0.1196
86418W        W29512   8.823  32.535  11.407  0.0624 -0.3259  0.2160
86419W        W29513   9.171  32.670   9.725 -0.1453  0.0249  0.1358
86420W        W29514   8.391  32.875   9.383  0.1984  0.0421 -0.0510
86421W        W29515   7.453  32.729  10.166  0.1515  0.1431  0.1347
86422W        W29516   9.244  32.635  10.230 -0.2205 -0.0717 -0.0052
86423W        W29517  10.976  31.468  10.000 -0.0461 -0.1795 -0.2866
86424W        W29518   9.256  32.138   8.127 -0.0036 -0.0928  0.1099
86425W        W29519   9.993  30.117  11.243 -0.1802 -0.2109 -0.0166
86426W        W29520   8.916  31.251  10.147  0.1384  0.0518 -0.2924
86427W        W29521   9.248  32.816   9.221  0.3465 -0.0379  0.0843
86428W        W29522  11.118  29.983   9.772 -0.0008  0.1175  0.0760
86429W        W29523   8.930  32.295  10.981 -0.3954 -0.1897  0.3232
86430W        W29524   8.883  32.694   8.250  0.2294 -0.2869  0.1987
86431W        W29525  10.380  30.348   8.921 -0.0308  0.1724  0.0934
86432W        W29526   8.238  30.656   8.509  0.3236 -0.2419  0.1194
86433W        W29527  10.256  29.243  10.784  0.0764  0.0611 -0.2362
86434W        W29528   9.610  29.313   9.851 -0.1472  0.1608 -0.0912
86435W        W29529   8.138  33.234   9.609 -0.3241 -0.1401  0.0814
86436W        W29530   9.231  28.975  11.175 -0.0986  0.0474  0.2113
86437W        W29531  10.858  30.990  10.074 -0.0435  0.2147 -0.1663
86438W        W29532   9.280  29.497  11.161 -0.1249 -0.2397 -0.0208
86439W        W29533   7.293  31.093  11.184 -0.0597 -0.0852 -0.0031
86440W        W29534   6.621  30.996  11.487 -0.2891 -0.1707  0.2773
86441W        W29535  10.984  32.401   7.876 -0.0657 -0.1861  0.0654
86442W        W29536  11.122  33.433  10.305 -0.1419  0.2892 -0.0669
86443W        W29537   9.723  32.339   8.996  0.0459  0.1076 -0.2947
86444W        W29538   7.100  31.613  10.412 -0.1352  0.0375 -0.1906
86445W        W29539   8.665  30.310   8.005  0.0896  0.0993 -0.1323
86446W        W29540  11.738  30.663   9.732 -0.1248 -0.2681 -0.0115
86447W        W29541   9.215  31.763  10.710  0.1638 -0.4147  0.2642
86448W        W29542  12.080  32.846  10.746  0.1365 -0.1814  0.1431
86449W        W29543  10.243  30.103   8.236 -0.3432 -0.0772  0.1844
86450W        W29544  11.030  31.081   9.559 -0.2535 -0.3254 -0.2051
86451W        W29545  12.239  29.568   9.364 -0.2577 -0.0015  0.0635
86452W        W29546   8.897  31.713  10.261  0.1166 -0.2060 -0.0055
86453W        W29547   9.652  31.076   9.116  0.1037 -0.2472 -0.4069
86454W        W29548  12.201  30.966  10.852 -0.3790 -0.0541 -0.1422
86455W        W29549  10.493  30.475   9.442 -0.0240  0.0087 -0.4530
86456W        W29550   9.717  32.786  10.456  0.1188 -0.2148  0.1784
86457W        W29551   8.358  32.282   9.304 -0.4534 -0.0485 -0.1591
86458W        W29552   8.630  30.909  10.605 -0.0340  0.0250  0.0801
86459W        W29553   9.409  32.284   7.593  0.1152  0.0801  0.1319
86460W        W29554  10.789  28.303  10.017 -0.1495  0.1628  0.1725
86461W        W29555   9.753  31.049  10.610  0.1042  0.0118 -0.2143
86462W        W29556  11.676  29.588   8.740  0.1101  0.2066 -0.1544
86463W        W29557  12.731  28.605   9.706  0.1180  0.0420 -0.1230
86464W        W29558   8.150  31.124   9.501  0.3411  0.2975  0.2906
86465W        W29559  10.139  33.144   9.869 -0.0341 -0.1927 -0.1124
86466W        W29560  11.991  29.284   8.990 -0.1639 -0.1422  0.2581
86467W        W29561  10.018  31.215   8.787 -0.1407  0.0874  0.2088
86468W        W29562   8.090  30.540  11.485  0.0630  0.0351 -0.2383
86469W        W29563   8.514  29.396   9.615  0.0225 -0.3007 -0.0834
86470W        W29564   9.030  29.376   9.556  0.3853 -0.0759 -0.0328
86471W        W29565   8.231  29.468   8.214 -0.1183 -0.1017 -0.3663
86472W        W29566  11.969  30.879  10.448 -0.0009  0.0029  0.0279
86473W        W29567   8.697  31.077   9.688 -0.0313  0.2084  0.2129
86474W        W29568   8.133  33.856   9.650  0.2022 -0.0811 -0.1404
86475W        W29569   8.193  31.662  10.638  0.0607 -0.2666  0.4067
86476W        W29570  11.009  33.653  11.568  0.2698 -0.0396  0.1091
86477W        W29571  10.836  32.448   9.296 -0.2566 -0.1963 -0.0276
86478W        W29572   8.678  28.904  10.541 -0.2066  0.2174  0.1269
86479W        W29573   8.136  30.342   9.355  0.0903 -0.0408 -0.2058
86480W        W29574   8.462  32.497  10.907 -0.0503 -0.0723  0.0915
86481W        W29575   8.119  31.211  10.745 -0.0020 -0.0898  0.1201
86482W        W29576   9.258  29.924  10.323 -0.2614  0.1483  0.2921
86483W        W29577  12.184  33.932  11.103  0.2116  0.0754 -0.2286
86484W        W29578  10.186  29.954   9.316 -0.3136  0.0834  0.0796
86485W        W29579  10.695  31.615  10.979  0.0534 -0.0822  0.2169
86486W        W29580  11.338  29.789  10.121  0.1060  0.2211  0.1470
86487W        W29581   7.548  29.251   9.152  0.0637  0.1913 -0.2939
86488W        W29582  11.661  34.070  10.322 -0.1223  0.0831  0.2944
86489W        W29583   8.446  33.107   8.672  0.3005  0.2047 -0.2124
86490W        W29584   8.519  31.578   9.818  0.1516  0.0817  0.1291
86491W        W29585   8.522  33.132  10.539 -0.1001 -0.0069 -0.1368
86492W        W29586  11.506  29.058   9.714 -0.0363  0.1890 -0.4825
86493W        W29587   8.653  31.493   9.179  0.3749 -0.4453 -0.1607
86494W        W29588  10.009  29.169   7.750 -0.2953  0.0019 -0.0470
86495W        W29589  10.441  28.815   8.498  0.0306 -0.0228  0.1467
86496W        W29590  10.770  30.472   9.975 -0.0817  0.0720 -0.3170
86497W        W29591   9.843  30.673   8.892  0.1280 -0.0878  0.0470
86498W        W29592   9.600  29.958   8.217 -0.4135 -0.1503  0.1091
86499W        W29593  10.226  29.735  11.004 -0.0218  0.1276 -0.2403
86500W        W29594  10.274  30.627   9.906  0.1659  0.0750  0.0210
86501W        W29595   9.759  30.296   8.599  0.2083  0.0272  0.1445
86502W        W29596  10.066  32.750   8.912 -0.1732  0.1483  0.0261
86503W        W29597   6.388  32.991  10.519 -0.4054 -0.2040 -0.1187
86504W        W29598  10.601  31.994  11.328  0.0452  0.2140 -0.0364
86505W        W29599   8.392  30.689   9.521 -0.4901 -0.1980 -0.2699
86506W        W29600   9.786  30.986   8.446 -0.1465 -0.1461  0.1989
86507W        W29601   8.568  30.036  10.159  0.1344  0.2798  0.0148
86508W        W29602   8.153  31.517   8.400  0.0559  0.0420 -0.0274
86509W        W29603  12.576  28.330  10.609  0.0116 -0.1416 -0.0203
86510W        W29604   9.726  29.198  10.938 -0.0067  0.1193  0.1353
86511W        W29605  10.196  29.823   9.899  0.0228 -0.2589  0.1994
86512W        W29606   9.434  30.884  11.136  0.1128  0.1818 -0.1457
86513W        W29607   7.978  31.212   7.691  0.3578  0.1329  0.1374
86514W        W29608  12.002  28.384  10.412 -0.1921 -0.0338  0.1013
86515W        W29609   9.076   0.321  10.770  0.1898 -0.1023 -0.0326
86516W        W29610   9.797  30.551  11.232  0.1954 -0.1498  0.0212
86517W        W29611   9.144  29.179   9.005  0.0703  0.0393  0.1013
86518W        W29612  10.622  32.906  10.175  0.0507 -0.4591 -0.1405
86519W        W29613  10.214  32.020   8.106  0.2727 -0.1277 -0.1133
86520W        W29614   9.239  29.023   8.010 -0.0817 -0.0939  0.6276
86521W        W29615   9.741  32.041  10.971 -0.0077 -0.0850 -0.0645
86522W        W29616   8.618  31.057   8.702  0.1850  0.1416  0.2512
86523W        W29617  10.080  33.084  10.787 -0.4326 -0.2409  0.2508
86524W        W29618   8.882  32.791  10.597 -0.1657  0.2182 -0.4113
86525W        W29619  10.580  28.059  10.452 -0.2164 -0.1868  0.1626
86526W        W29620   7.547  32.361  10.474 -0.0508 -0.1416 -0.5361
86527W        W29621   8.527  30.477   9.033  0.1632  0.0461  0.3040
86528W        W29622   7.736  31.626   9.373  0.1302 -0.0087 -0.0877
86529W        W29623   9.446  30.278   9.674  0.1538  0.0434  0.0163
86530W        W29624  10.377  30.868   9.013  0.1644  0.2173 -0.0192
86531W        W29625   8.385  29.750  11.941  0.1459  0.1003  0.1496
86532W        W29626  10.007  31.078  11.242  0.3750  0.1213  0.0276
86533W        W29627   6.908  32.949  11.349  0.0728  0.2398  0.5171
86534W        W29628   9.141  30.157   8.523  0.4488 -0.1391  0.0062
86535W        W29629   7.652  30.792   8.489  0.1330  0.1425  0.1540
86536W        W29630   9.628  30.490  10.731 -0.1566 -0.4361  0.0096
86537W        W29631  10.092  30.774   9.393  0.1707  0.2621 -0.1400
86538W        W29632   8.960  32.153  10.013  0.2712  0.0682  0.2413
86539W        W29633   9.519  32.966  10.887 -0.1325  0.1040  0.0559
86540W        W29634   8.468  31.377  10.325  0.1452 -0.3590  0.1598
86541W        W29635   9.192  30.938  10.615  0.1697  0.2573 -0.0535
86542W        W29636  10.139  32.124  10.580  0.2057  0.3264  0.2131
86543W        W29637   8.267  30.213  11.144  0.0362  0.0410 -0.2083
86544W        W29638   7.931  30.989  11.251  0.0426 -0.0686 -0.1578
86545W        W29639   8.865  30.574  10.372  0.2850 -0.0210 -0.2179
86546W        W29640  11.776  33.467  11.098  0.1578 -0.0103  0.1714
86547W        W29641  11.421  29.384  10.715 -0.3074 -0.2787 -0.1623
86548W        W29642   9.644  29.070   9.160 -0.3147 -0.1132 -0.2348
86549W        W29643  11.504  33.162  10.244  0.0046  0.2473  0.2815
86550W        W29644   8.841  32.522   9.269  0.0308  0.0105  0.2562
86551W        W29645   6.883  33.703  10.197 -0.1869  0.0094 -0.2103
86552W        W29646   9.477  31.486   9.400  0.2500 -0.1675 -0.1517
86553W        W29647  12.194  31.287  10.399  0.1197  0.2918 -0.1654
86554W        W29648   8.805  30.144  10.567 -0.1761 -0.2410  0.1587
86555W        W29649   8.505  32.237   8.856 -0.3646  0.3387  0.1360
86556W        W29650   9.418  33.356  11.171  0.3682 -0.0343 -0.0772
86557W        W29651  11.735  29.288   8.030  0.1122 -0.0856  0.0503
86558W        W29652   9.392  31.034   8.125 -0.3147 -0.2430  0.1099
86559W        W29653   9.966  30.560  10.325  0.1935  0.0253  0.1058
86560W        W29654   9.267  30.860   8.894  0.0802  0.1637 -0.0557
86561W        W29655   6.455  28.412   9.623  0.1754  0.1146  0.0315
86562W        W29656   8.323  31.060  11.573  0.0477  0.0703  0.1823
86563W        W29657   9.093  29.674   8.912  0.1482 -0.0715 -0.0421
86564W        W29658   8.834  29.733   9.853 -0.3626  0.0636 -0.2546
86565W        W29659   7.567  31.702  10.539  0.0005 -0.2751  0.0157
86566W        W29660   7.695  32.840  10.629  0.1335  0.1893 -0.1758
86567W        W29661   8.724  30.982   9.187 -0.1334  0.0098 -0.1266
86568W        W29662  10.648  29.062   9.377 -0.0105  0.0735  0.1887
86569W        W29663   8.600  30.474  10.907 -0.0160 -0.1396 -0.1882
86570W        W29664  10.380  29.386  10.306 -0.1069 -0.2084 -0.0925
86571W        W29665   8.940  30.646   8.553 -0.1086  0.1632 -0.4402
86572W        W29666   8.958  30.347  11.699  0.1877  0.2498 -0.2149
86573W        W29667   9.770  31.661  10.631  0.3054  0.1639  0.0067
86574W        W29668   9.178  29.355  10.260  0.1104 -0.0249 -0.0166
86575W        W29669  10.784  30.762  11.129 -0.0217  0.0038 -0.1920
86576W        W29670  10.853  29.754   8.782 -0.1853 -0.3432 -0.0744
86577W        W29671  11.797  27.929   9.342 -0.1292 -0.3840  0.3092
86578W        W29672  11.282  32.096   9.984 -0.0854  0.1984  0.0104
86579W        W29673   9.612  29.847   8.877 -0.1944  0.0976  0.0928
86580W        W29674   9.022  30.181   9.920  0.1757 -0.1168 -0.0001
86581W        W29675   9.898  29.584   8.528  0.0953  0.0273  0.1671
86582W        W29676   9.408  32.437  10.917  0.1429  0.0079  0.0740
86583W        W29677  10.665  31.979  10.635 -0.1778  0.0305 -0.0949
86584W        W29678   9.993  30.269   9.626 -0.0001 -0.0927 -0.2857
86585W        W29679   8.300  30.917   9.066 -0.0356 -0.0323  0.1245
86586W        W29680   7.862  30.397   8.232 -0.0905  0.0540  0.3218
86587W        W29681  10.308  30.952   7.983  0.2747 -0.0833 -0.1884
86588W        W29682   9.734  31.905  10.108  0.0099 -0.2287 -0.0448
86589W        W29683   8.969  29.459   7.927 -0.1426  0.0640 -0.0570
86590W        W29684   7.376  33.215   9.883  0.2056 -0.0748  0.3140
86591W        W29685   9.655  29.650  10.196 -0.1341 -0.1309  0.2768
86592W        W29686  10.198  34.038  10.748 -0.0276 -0.2117  0.1475
86593W        W29687   8.516  32.971  11.034 -0.0988  0.0193  0.0010
86594W        W29688   8.285  29.199  11.465  0.0411  0.3996 -0.0447
86595W        W29689  10.990  29.198   9.771  0.3189 -0.2540  0.1395
86596W        W29690   8.590  31.996  10.784 -0.1563 -0.2501  0.0948
86597W        W29691   9.160  29.892  10.815 -0.0197 -0.1742 -0.0239
86598W        W29692  10.926  30.257   8.860 -0.1736  0.0668  0.2513
86599W        W29693   9.662  32.420  10.111 -0.0333 -0.1243  0.2082
86600W        W29694   9.150  30.449  10.760  0.2374 -0.4725  0.0521
86601W        W29695   7.743  31.146   9.773  0.0627 -0.0536  0.0120
86602W        W29696   9.369  30.259   9.060  0.1378 -0.1241  0.1000
86603W        W29697   6.873  30.702  10.757  0.0993  0.0008 -0.1918
86604W        W29698   7.597  34.507   9.313  0.0293 -0.1898 -0.4058
86605W        W29699  10.264  32.478   8.536 -0.1160 -0.3584  0.2128
86606W        W29700   9.663  31.019   9.632  0.0676 -0.4250  0.1098
86607W        W29701  11.869  33.779  11.446  0.2412 -0.0974  0.1810
86608W        W29702   8.046  31.125   8.681 -0.0137  0.0456 -0.2375
86609W        W29703   6.796  32.751  10.858  0.0789 -0.2383 -0.1057
86610W        W29704   7.678  31.584   8.726 -0.0180  0.0674  0.0428
86611W        W29705  10.097  31.091   9.905  0.1415 -0.0193  0.1554
86612W        W29706   9.435  34.267  10.079  0.1605  0.0953 -0.0612
86613W        W29707  10.593  28.850   7.429 -0.2822 -0.1008 -0.0194
86614W        W29708  11.283  30.491   9.798  0.0966 -0.0881  0.1536
86615W        W29709   9.677  29.942   9.411 -0.0106 -0.0480 -0.1476
86616W        W29710   6.996  29.384  10.488 -0.1718  0.0661  0.1131
86617W        W29711   8.536  29.580   8.796  0.2524 -0.1148  0.1704
86618W        W29712  10.423  31.436   9.754 -0.1279  0.2254  0.2316
86619W        W29713   9.179  31.039   9.441 -0.1360  0.3646 -0.0596
86620W        W29714   8.093  31.608  11.136 -0.0272  0.1512  0.2449
86621W        W29715  10.062  29.116   9.414  0.0431 -0.0098  0.1179
86622W        W29716   9.916  30.281   9.120  0.1208 -0.3161 -0.1041
86623W        W29717  10.743  29.616   9.974  0.1210  0.1004 -0.0364
86624W        W29718   8.098  34.462   9.348  0.0218 -0.0695 -0.1362
86625W        W29719  10.323  30.643  11.352 -0.2135  0.1613  0.3976
86626W        W29720   7.611  31.458  11.367 -0.2557  0.0756  0.2342
86627W        W29721   7.852  30.726   9.555 -0.1998  0.0165  0.0676
86628W        W29722  12.300  30.902   9.912 -0.0704 -0.0956  0.2038
86629W        W29723   9.507  29.973  11.205  0.0514 -0.0864  0.3081
86630W        W29724   8.905  30.873  11.019  0.0448 -0.1800  0.3849
86631W        W29725  10.550  30.975   9.638  0.0529 -0.0205 -0.0431
86632W        W29726  11.886  32.418  10.836 -0.0585 -0.0520  0.0036
86633W        W29727   8.256  29.058  10.019  0.0349  0.1011  0.1887
86634W        W29728  10.277  30.213  10.195  0.4940  0.0119  0.2496
86635W        W29729  10.989  31.011   7.664  0.1825  0.2784 -0.1098
86636W        W29730   7.515  29.673  10.009  0.1686 -0.1273  0.0217
86637W        W29731   8.619  30.205   9.631  0.0053 -0.1656 -0.1002
86638W        W29732   7.936  31.421  10.259  0.0244  0.0233  0.1162
86639W        W29733  10.630  31.521  10.494  0.0878  0.2372  0.1196
86640W        W29734   7.865  30.631   8.968  0.0307 -0.1617  0.3855
86641W        W29735  10.647  31.297   9.054  0.2120 -0.2244  0.3360
86642W        W29736   8.655  30.636  11.374  0.0498  0.0098  0.0590
86643W        W29737   8.613  32.054   9.636  0.4002 -0.2404 -0.1693
86644W        W29738  10.326  31.003  10.395 -0.1634 -0.0797  0.2794
86645W        W29739  11.605  31.827  11.018  0.0180  0.0393  0.3867
86646W        W29740   9.898  29.580  11.309 -0.0901 -0.0099 -0.3067
86647W        W29741  10.302  32.270  11.056 -0.0969 -0.1130 -0.1674
86648W        W29742  11.440  31.442  10.171 -0.0200  0.1683 -0.0171
86649W        W29743   9.502  29.483   9.369  0.2148  0.1421  0.0234
86650W        W29744   9.479  29.571  10.672  0.1836  0.0315 -0.2530
86651W        W29745   8.951  33.817   9.998  0.2688  0.0045  0.1730
86652W        W29746  11.090  29.032  10.292  0.2655  0.1701 -0.3813
86653W        W29747   9.421  32.026   8.628 -0.1020  0.1934  0.1195
86654W        W29748   7.538   1.075  11.534 -0.0951 -0.1011  0.1241
86655W        W29749   8.288  31.743   9.392 -0.0317  0.0945 -0.1137
86656W        W29750   8.894  31.307  10.670 -0.0077  0.0876 -0.2205
86657W        W29751   8.606  33.409   9.971  0.1720 -0.0387 -0.2369
86658W        W29752  11.185  33.892  10.841 -0.0155  0.1490  0.3371
86659W        W29753   9.572  30.618   9.340 -0.0685 -0.0594  0.1240
86660W        W29754  10.700  32.585  10.550  0.1290 -0.2205  0.1992
86661W        W29755   9.330  29.737   9.845  0.4995  0.1100  0.0947
86662W        W29756  10.859  29.469   9.209 -0.3748  0.0130 -0.0864
86663W        W29757  12.488  28.565   9.240 -0.0306 -0.2147  0.0609
86664W        W29758   8.318  29.724  11.412 -0.0051  0.3054  0.1173
86665W        W29759   6.370  30.615   7.528 -0.1271  0.1056  0.0578
86666W        W29760   8.394  31.868  10.206 -0.2126  0.4113  0.0171
86667W        W29761   8.518  31.177  11.087  0.2663 -0.1004 -0.0467
86668W        W29762   8.809  32.924  10.087  0.1687  0.1254 -0.1002
86669W        W29763   8.191  30.343   9.914  0.1321  0.0185 -0.2797
86670W        W29764  10.941  31.650   8.842 -0.0957 -0.0762  0.0070
86671W        W29765   8.272  27.441  10.033 -0.1733  0.3053 -0.2009
86672W        W29766   7.399  30.566   9.729  0.2564  0.3353 -0.0980
86673W        W29767  10.515  31.622   8.400  0.1021  0.0874 -0.0602
86674W        W29768  10.441  31.105  10.977 -0.1458  0.1334 -0.1952
86675W        W29769   7.300  29.971   9.619 -0.2164 -0.4757  0.3021
86676W        W29770   9.318  31.856   9.099  0.0421 -0.1756  0.0774
86677W        W29771   7.365  30.350  10.590 -0.0117 -0.0310  0.2367
86678W        W29772  10.130  30.277  10.707  0.0318  0.0563  0.2311
86679W        W29773   7.976  33.037  11.053  0.0308 -0.1858 -0.0715
86680W        W29774  10.733  32.920   9.214  0.0611  0.1920 -0.0934
86681W        W29775   7.650  29.859  10.614 -0.3182  0.2349 -0.1320
86682W        W29776  10.782  31.920   8.131  0.0638  0.0402  0.0052
86683W        W29777  10.959  33.422   8.817 -0.1594  0.1573 -0.1217
86684W        W29778  11.975  28.948  10.021  0.0516  0.4669 -0.1767
86685W        W29779  10.272  31.658   8.895 -0.3314  0.1954 -0.2336
86686W        W29780  11.145  31.868  10.847 -0.2887 -0.3015 -0.1638
86687W        W29781  10.591  28.906  11.270 -0.0974  0.5933  0.1558
86688W        W29782   9.808  30.107  10.040 -0.0610  0.0239  0.1259
86689W        W29783   9.870  31.405  10.211  0.0725  0.1469  0.1371
86690W        W29784   8.948  29.303  10.751 -0.1045  0.4890 -0.0135
86691W        W29785   7.169  29.954  10.332  0.1656  0.0820  0.1269
86692W        W29786  12.297  32.396  10.539  0.0385  0.2925  0.2291
86693W        W29787   8.652  29.203   9.154 -0.1567  0.0412  0.2345
86694W        W29788  11.613  30.077   9.783  0.2548  0.2920  0.1567
86695W        W29789   7.833  30.962  11.740  0.0381 -0.1431 -0.1020
86696W        W29790   9.092   0.897  10.877  0.3032 -0.0189 -0.1133
86697W        W29791  10.248  31.777  10.194 -0.1378 -0.2974 -0.1661
86698W        W29792   8.694  29.258  10.045 -0.2625 -0.0444  0.1130
86699W        W29793   9.511  30.974  10.152  0.3161  0.0056  0.0807
86700W        W29794   8.656  30.625   9.954  0.0986 -0.1176  0.1750
86701W        W29795  12.358  27.135   9.782  0.1401  0.2896 -0.0170
86702W        W29796   9.406  30.419  10.222 -0.0538  0.2596 -0.1002
86703W        W29797  10.458  29.588   9.452 -0.0116 -0.3058 -0.0873
86704W        W29798  10.821  33.426  11.132 -0.1998 -0.1669  0.0043
86705W        W29799  10.429  30.321  11.062  0.1125 -0.0337  0.2073
86706W        W29800   8.059  34.189   0.920  0.0238  0.0463  0.0417
86707W        W29801   9.539  33.019  31.726 -0.0027  0.1427 -0.1330
86708W        W29802  11.788   0.200   0.826 -0.3119  0.0237 -0.4075
86709W        W29803   8.126  32.428   1.471  0.2226  0.0522 -0.0394
86710W        W29804   8.306  33.444   4.342  0.2049 -0.0917 -0.2565
86711W        W29805  10.921   0.030  31.934 -0.1385  0.0882  0.1140
86712W        W29806   9.091  34.381   3.688 -0.2961  0.1421  0.1888
86713W        W29807   7.846  31.731  31.347  0.0197 -0.1326  0.0814
86714W        W29808   8.098  32.978   2.440 -0.0679  0.2458  0.1885
86715W        W29809  10.009   1.241   2.196  0.3299  0.0897  0.0098
86716W        W29810   9.061  34.068   0.780  0.2096 -0.0744 -0.0349
86717W        W29811   7.760  33.933   2.070 -0.0672 -0.1485 -0.2597
86718W        W29812   9.343  32.894   0.917  0.0121 -0.0932  0.0449
86719W        W29813   9.053  33.585   3.045 -0.1621  0.4242 -0.1124
86720W        W29814   9.736  33.693   5.813  0.2686 -0.0172 -0.2484
86721W        W29815   8.537  34.590   0.411 -0.0068 -0.0484 -0.0585
86722W        W29816   6.109  34.124   2.243  0.2533 -0.0254  0.2087
86723W        W29817   8.861   0.436   2.241  0.3311  0.1233 -0.4480
86724W        W29818   9.458  34.499   2.795 -0.1506 -0.0800 -0.0530
86725W        W29819  10.748   0.839   1.769 -0.3672 -0.1722  0.3655
86726W        W29820   8.829   0.115   3.868  0.2284  0.1358 -0.2720
86727W        W29821   9.831   1.384   1.740  0.1750  0.3297  0.3481
86728W        W29822  10.403   0.778   1.336  0.2094  0.0283 -0.0033
86729W        W29823  10.686  33.639   3.989 -0.0052  0.0175  0.1093
86730W        W29824   9.168  33.208   1.249 -0.0808  0.1080  0.0836
86731W        W29825   7.959  33.370  31.926  0.1426 -0.0070  0.5311
86732W        W29826   9.215  33.209   1.920 -0.1070  0.2280  0.1150
86733W        W29827   9.972  32.697   2.021 -0.0002  0.0906 -0.2329
86734W        W29828   8.340  33.042   1.305 -0.0407 -0.3481 -0.3004
86735W        W29829   8.608  34.289   0.003 -0.1081 -0.1262 -0.3203
86736W        W29830  10.721   0.115   3.294 -0.0889 -0.1672  0.0918
86737W        W29831   7.800  34.509   0.218  0.0152  0.0417 -0.0964
86738W        W29832   8.155   0.081   3.162  0.3026  0.0413  0.2780
86739W        W29833   7.229   0.486   3.804  0.0610 -0.1046 -0.1672
86740W        W29834   8.974  33.651   2.557 -0.0032  0.0492  0.0312
86741W        W29835   8.131  32.590  31.375  0.1082 -0.0175 -0.2831
86742W        W29836  11.941  33.977   1.384 -0.1985 -0.0532  0.1693
86743W        W29837  10.610  32.995   3.012 -0.0173  0.0839  0.0245
86744W        W29838   9.976   0.346   2.422 -0.0124 -0.0993 -0.1505
86745W        W29839   9.153   0.306  31.864 -0.1658 -0.1681  0.0338
86746W        W29840   9.103  34.198   1.859  0.0277 -0.2770  0.1024
86747W        W29841   7.631  32.624   3.118 -0.2421 -0.0097  0.1644
86748W        W29842  10.060  32.960   1.576 -0.0934 -0.0584  0.2687
86749W        W29843   8.769  33.513   4.214 -0.0800  0.1574  0.0386
86750W        W29844   9.570  34.397   1.029 -0.1669 -0.0807 -0.1201
86751W        W29845  10.066  32.676   0.552  0.4607 -0.0516 -0.2122
86752W        W29846   8.078  32.360   3.071  0.1005 -0.0541  0.1557
86753W        W29847   8.255  31.894   0.901  0.1288 -0.1197  0.0134
86754W        W29848   7.842  33.817   3.565  0.0356 -0.1654  0.0882
86755W        W29849   7.648  33.913   2.601 -0.3017  0.0035  0.2754
86756W        W29850  11.047  34.298   2.524  0.0731 -0.0105 -0.2567
86757W        W29851   8.029  32.858  31.826  0.2982 -0.1324 -0.4384
86758W        W29852   9.556   0.087   0.334  0.1979 -0.0563  0.1479
86759W        W29853   9.515   0.223   1.395 -0.2186  0.1234  0.1925
86760W        W29854  11.183  33.314   4.377 -0.2076 -0.0066 -0.0162
86761W        W29855   8.053  33.251   2.846 -0.0227 -0.0331  0.0027
86762W        W29856   8.856  33.651   0.510 -0.0126 -0.1911  0.0733
86763W        W29857   7.798  33.007   1.646 -0.1299  0.1277  0.0305
86764W        W29858  10.037  33.056   3.955 -0.0430 -0.0879 -0.0342
86765W        W29859   8.745   0.247   1.241  0.2727 -0.0592  0.0456
86766W        W29860   7.818  30.986   0.823 -0.1751 -0.1366  0.0328
86767W        W29861   8.219  34.579  31.953  0.0599 -0.0805 -0.1819
86768W        W29862  11.060  32.820   1.576  0.4113  0.0221  0.2736
86769W        W29863   7.153  34.097   3.644 -0.1440  0.3560 -0.1723
86770W        W29864   9.821   0.301   1.918 -0.2608  0.0129  0.0790
86771W        W29865   7.692  34.023   0.544 -0.0453  0.1187  0.0598
86772W        W29866   9.272  32.012   2.664  0.3195 -0.2228 -0.0697
86773W        W29867   9.583  33.764   1.371 -0.0510 -0.2040  0.2615
86774W        W29868  11.239  34.178   0.258 -0.0637 -0.0411  0.1016
86775W        W29869   7.931  32.382   0.096  0.3263  0.0733 -0.2534
86776W        W29870   8.571  33.300  31.875  0.2287 -0.1081 -0.1982
86777W        W29871   9.464  33.336   2.723  0.0144 -0.1540  0.1579
86778W        W29872   8.861  32.806   0.544 -0.2744  0.3539 -0.2067
86779W        W29873  10.372  31.619   1.748 -0.0412 -0.4307  0.0786
86780W        W29874   9.661  34.655   2.330  0.2899  0.1170  0.0186
86781W        W29875   8.538  34.489   2.332 -0.3073  0.0291 -0.3190
86782W        W29876   9.895  32.466   3.314 -0.1594 -0.0607  0.0164
86783W        W29877  10.905  34.539   2.940  0.0885  0.2437  0.0375
86784W        W29878  10.324   0.272   1.171  0.1842  0.0799 -0.0624
86785W        W29879   9.509   1.257   2.142 -0.1415  0.1790  0.1692
86786W        W29880   7.511  33.374   0.780  0.0138 -0.2501 -0.1222
86787W        W29881   9.954  33.484   3.655  0.2995 -0.3404  0.0865
86788W        W29882   9.607  33.426   4.045 -0.4134 -0.1846 -0.1957
86789W        W29883   7.837  31.303  30.951 -0.0465 -0.0096  0.1024
86790W        W29884   7.920  33.443   2.416  0.3005 -0.0565  0.1089
86791W        W29885  10.298  33.200   2.670 -0.1941  0.2154  0.1312
86792W        W29886   8.165  33.539   1.097  0.0593  0.0856 -0.1334
86793W        W29887   8.117  33.791   0.607 -0.1289  0.4034  0.2966
86794W        W29888  11.356  31.986   1.272 -0.3565  0.2503 -0.3833
86795W        W29889   7.329  34.299   3.237  0.1884 -0.1028 -0.1084
86796W        W29890   9.684  34.058   2.972 -0.2063 -0.1608 -0.1391
86797W        W29891  10.847   0.414   3.762 -0.2171 -0.2081  0.0327
86798W        W29892  10.357  32.793   0.199 -0.0451  0.0427 -0.2016
86799W        W29893   8.601   0.246   4.292 -0.3090 -0.2283  0.0439
86800W        W29894   8.787  33.056   1.623  0.1282 -0.1776  0.0287
86801W        W29895   9.536  34.152   2.086 -0.1896 -0.1632 -0.2734
86802W        W29896   9.111  34.056   1.305  0.2092  0.4094  0.0323
86803W        W29897   8.983  34.125   0.297  0.0385 -0.0578 -0.1980
86804W        W29898   8.170  34.181   3.381  0.4627  0.1067 -0.2220
86805W        W29899   9.119  34.204   2.426  0.1682 -0.0326  0.1509
86806W        W29900   8.845  32.859   1.019 -0.1790  0.1415  0.1655
86807W        W29901   9.473  33.847   0.901 -0.0824  0.1307 -0.0635
86808W        W29902   9.121  34.048   2.879  0.1974  0.1974  0.0874
86809W        W29903  10.696  32.431   2.349  0.2936  0.1835  0.3776
86810W        W29904  10.452   0.959   2.353 -0.0548 -0.0201 -0.0163
86811W        W29905   9.301  32.879   2.355 -0.4646  0.1438  0.1187
86812W        W29906  10.814  34.381   0.360 -0.1353  0.2016  0.0693
86813W        W29907   9.574  34.220   1.533 -0.0359 -0.2640  0.1224
86814W        W29908  10.874  33.446   3.601 -0.2825 -0.0841 -0.1662
86815W        W29909   9.088  33.587   0.976  0.2356 -0.2646  0.0536
86816W        W29910   9.906  33.237   5.966  0.2457  0.0788 -0.1769
86817W        W29911   8.974  33.171   3.762  0.0042  0.0841 -0.2722
86818W        W29912   7.318  33.745   3.295 -0.2027 -0.5562 -0.2956
86819W        W29913   7.958  34.383   4.899  0.2353 -0.2087 -0.1606
86820W        W29914   8.732  32.350   0.533  0.0539 -0.0056  0.0806
86821W        W29915   9.099  32.672   1.466 -0.0509 -0.0469  0.0598
86822W        W29916   8.416  34.286   1.887  0.1523 -0.0869  0.1130
86823W        W29917  11.669  32.921   1.657  0.0713 -0.0983  0.0910
86824W        W29918   8.581   0.337   2.702 -0.1593 -0.0821 -0.0251
86825W        W29919  10.226  34.475   0.964 -0.1392  0.2688 -0.0296
86826W        W29920   8.988  34.693   2.606  0.1342  0.2730  0.0920
86827W        W29921   8.833  33.153   2.204 -0.3234  0.0644  0.2179
86828W        W29922  10.071  33.985   1.713  0.2289 -0.2167 -0.0222
86829W        W29923   9.185   0.214   3.013  0.2460  0.1720 -0.1555
86830W        W29924   8.871  32.597   4.150  0.0291 -0.2267  0.1089
86831W        W29925  10.078  33.800   0.115 -0.2218 -0.2803 -0.0271
86832W        W29926  10.394  34.184   2.096  0.3473 -0.1044  0.0321
86833W        W29927  11.789  33.253   1.290 -0.0375 -0.2843  0.1596
86834W        W29928   8.615  33.330   0.863  0.0085  0.1245  0.1533
86835W        W29929   9.489  34.646   1.871 -0.0308  0.0490 -0.2716
86836W        W29930  11.103  34.164   3.223 -0.0631 -0.0761 -0.1896
86837W        W29931   8.149  32.994  30.793 -0.0410 -0.1166 -0.3456
86838W        W29932   9.908  34.610   2.872  0.1330  0.1149  0.0066
86839W        W29933   9.515  33.668   1.869 -0.0385  0.1311  0.2669
86840W        W29934   8.650  33.908   1.057  0.0246  0.2434  0.1428
86841W        W29935   8.209  32.168   0.531 -0.0100  0.1519 -0.2932
86842W        W29936   8.506   0.192  31.061  0.1286  0.0310 -0.1871
86843W        W29937   8.786  31.406   0.052  0.1738 -0.2071 -0.0061
86844W        W29938  10.205  33.684   3.067 -0.2520  0.2029  0.1555
86845W        W29939   9.636  33.272   2.240 -0.0060 -0.0768 -0.4000
86846W        W29940   9.897  33.580   2.702  0.0930 -0.0380  0.0803
86847W        W29941   9.497  33.718   2.365 -0.1048 -0.0908  0.1728
86848W        W29942   9.736   1.041   1.280 -0.0806  0.0365  0.0691
86849W        W29943  11.247  33.641   3.271 -0.0039 -0.0566  0.1033
86850W        W29944   7.568  34.481   0.867  0.1050  0.0786  0.0373
86851W        W29945   7.467  33.547   4.797  0.0144 -0.1954  0.0311
86852W        W29946   8.492  32.756   2.161  0.0698 -0.0684  0.1479
86853W        W29947   7.666  32.593  31.570 -0.0585  0.2593  0.2006
86854W        W29948  11.595  32.013   0.238  0.2055 -0.1105  0.1160
86855W        W29949  10.318  33.902   2.578  0.0874 -0.1970  0.0409
86856W        W29950   9.966  33.496   1.710  0.2088 -0.1000  0.1051
86857W        W29951   7.304  34.207   2.774  0.2034  0.1774  0.3013
86858W        W29952   8.918  31.545  31.540 -0.0106 -0.2533  0.2407
86859W        W29953   8.437  33.505   2.453 -0.2443  0.0987 -0.1177
86860W        W29954  11.886  32.841   3.691  0.0697 -0.2042  0.2440
86861W        W29955   9.144  33.626   1.554  0.0421 -0.0123  0.2046
86862W        W29956   8.650   0.015   1.770  0.1983 -0.2383 -0.0778
86863W        W29957  10.671  34.147   2.816 -0.2834 -0.1908  0.0386
86864W        W29958   9.042  34.636   2.128  0.1366  0.0222  0.0634
86865W        W29959   7.599  32.205  31.263 -0.2549  0.0204 -0.2048
86866W        W29960  11.691  32.985   0.713  0.1646 -0.1036  0.3411
86867W        W29961   8.757  34.017   3.289 -0.0859  0.0581 -0.3352
86868W        W29962   8.708   0.418   3.206  0.0601 -0.2560 -0.0164
86869W        W29963   8.871  34.575   0.788  0.1663 -0.1432  0.0307
86870W        W29964  12.632  33.762   0.427  0.0041  0.1402  0.0757
86871W        W29965   8.151   0.159   2.657 -0.0315  0.1276 -0.2718
86872W        W29966   9.502  33.873   0.336  0.3055 -0.0250 -0.0115
86873W        W29967  11.179   0.284   2.584  0.3323 -0.0023  0.0440
86874W        W29968  10.126  33.526   1.197 -0.1519 -0.0391 -0.0298
86875W        W29969   8.579  32.603   1.361 -0.0909  0.2219  0.1889
86876W        W29970   9.638  32.612   1.404  0.2833  0.1795 -0.1822
86877W        W29971   8.636   0.656   0.345  0.0940  0.3186 -0.0590
86878W        W29972   9.117   0.266   1.734 -0.0909 -0.2407  0.0271
86879W        W29973   8.306  32.815   1.719  0.2065  0.0301  0.1007
86880W        W29974   9.982  34.067   1.249  0.0498 -0.1776  0.0436
86881W        W29975  12.025  34.443   0.528  0.5970  0.0800  0.3361
86882W        W29976   7.181  32.873   2.545  0.0993 -0.1543 -0.3951
86883W        W29977   9.655  32.430   0.892  0.0328 -0.1375 -0.0222
86884W        W29978   8.262  32.646   0.344 -0.3453  0.1613  0.3218
86885W        W29979  11.161  34.261   1.092 -0.1643  0.1046  0.0059
86886W        W29980  10.149  34.561   2.347 -0.2491 -0.1806 -0.1166
86887W        W29981  10.346  33.752   3.586 -0.4688 -0.0151  0.0278
86888W        W29982   9.810  34.319   0.325  0.1384 -0.0761 -0.3193
86889W        W29983   8.666  34.455   1.314 -0.0190  0.2163 -0.3404
86890W        W29984  10.539  34.029   1.653  0.2604  0.0121  0.1180
86891W        W29985   9.779  32.515   2.514  0.2986 -0.2263  0.1357
86892W        W29986   8.628   0.775   1.353  0.0522 -0.1465 -0.0508
86893W        W29987   7.543  31.658  30.971  0.1245 -0.0405 -0.1441
86894W        W29988   9.212  33.533   3.544 -0.2422  0.0074  0.0601
86895W        W29989   7.851  33.418   4.536  0.1325 -0.2584 -0.1795
86896W        W29990   8.182   0.125   1.843 -0.0693 -0.0328 -0.2752
86897W        W29991   8.955  32.019   2.033  0.4557 -0.1555 -0.2628
86898W        W29992   8.143  34.141   2.332  0.0109  0.3853  0.1998
86899W        W29993   7.469  33.376   2.441  0.0778  0.2768  0.0525
86900W        W29994   8.440  32.079   1.370  0.3349  0.1665  0.0899
86901W        W29995   9.251  34.014   3.372  0.0585 -0.2019 -0.0165
86902W        W29996   8.910  33.908   3.851 -0.0356 -0.0745 -0.0648
86903W        W29997   6.600  32.709   0.406  0.1861  0.4380 -0.2891
86904W        W29998   8.235   1.255   1.508 -0.1827  0.2260 -0.0937
86905W        W29999   7.585  33.200   4.149 -0.2256 -0.1923  0.0058
86906W        W30000   9.803  34.216   2.521  0.1007 -0.0580  0.1829
86907W        W30001   8.598  33.509   1.896 -0.1570 -0.0513 -0.0880
86908W        W30002   9.250  32.770   3.881  0.1314 -0.1182  0.0990
86909W        W30003   7.709  33.299   1.999  0.0065  0.3871 -0.2271
86910W        W30004   9.617  33.334   1.022 -0.2606 -0.2041  0.0304
86911W        W30005   8.638  33.526   1.371  0.0755 -0.0041 -0.5733
86912W        W30006   8.343  32.902   0.837 -0.2379 -0.0718 -0.0639
86913W        W30007   9.548  34.456   3.429 -0.0943  0.3791  0.2650
86914W        W30008   9.506   0.739  31.562  0.4027 -0.2294  0.4060
86915W        W30009  10.657   0.238  31.426 -0.0792  0.0494  0.0555
86916W        W30010   8.177  33.478   3.344  0.0797  0.1915  0.1142
86917W        W30011   7.740   0.262   1.022 -0.4394 -0.1474 -0.1739
86918W        W30012   8.258   0.332   0.250  0.0996 -0.0980  0.0930
86919W        W30013   9.367  34.396   0.571 -0.1706 -0.2468  0.0828
86920W        W30014   8.531  33.523   2.924  0.0176  0.0311  0.1289
86921W        W30015   8.753  32.831   0.036  0.1096 -0.4216 -0.1833
86922W        W30016   7.778  33.604   5.388  0.2011  0.3373 -0.0266
86923W        W30017  10.724  33.544   2.683  0.2208 -0.1979 -0.2368
86924W        W30018  11.204  34.294   3.771 -0.3087  0.2691 -0.3451
86925W        W30019   6.915  32.915   5.646  0.2545  0.1971 -0.1640
86926W        W30020   9.803  31.581   9.033 -0.1816  0.1140 -0.1755
86927W        W30021   9.649   0.314   3.277  0.0136  0.3781 -0.1196
86928W        W30022   9.589   0.214   4.799  0.0306  0.2545  0.0058
86929W        W30023   8.582  33.092   5.543 -0.3291 -0.1761 -0.2406
86930W        W30024   7.322  32.640   5.640 -0.0782 -0.1883 -0.0713
86931W        W30025   9.708  33.345   6.919  0.1691  0.3435  0.1503
86932W        W30026   9.059  34.383   5.241  0.1067  0.0271 -0.2471
86933W        W30027   7.595  34.116   5.244 -0.1710  0.0388  0.0104
86934W        W30028   9.801  32.133   5.973  0.1332 -0.1962 -0.0426
86935W        W30029   8.711  33.136   6.184  0.2310 -0.0441  0.0756
86936W        W30030  10.587  32.116   8.628 -0.2315  0.2423  0.1556
86937W        W30031   8.017  34.185   3.853  0.3120 -0.1530  0.1433
86938W        W30032   7.382  33.161   5.374  0.0618  0.0965 -0.0336
86939W        W30033   9.434   0.430   6.247  0.0132  0.1862 -0.0576
86940W        W30034   9.588  32.549   6.771 -0.0215 -0.0519 -0.2773
86941W        W30035  12.696  33.689   5.681 -0.2457 -0.2235 -0.3020
86942W        W30036   9.934  33.731   7.635 -0.0445  0.0692  0.1651
86943W        W30037  10.011  34.225   6.381  0.1807 -0.0900  0.1134
86944W        W30038   9.804  34.098   5.398  0.2555  0.4075  0.1945
86945W        W30039  10.187  33.055   9.360  0.3329 -0.2299 -0.2472
86946W        W30040   9.882  34.058   3.441  0.1751 -0.0061  0.0466
86947W        W30041   9.368  33.480   4.677 -0.1152 -0.0918 -0.2842
86948W        W30042   8.880  34.422   4.217  0.2225 -0.1314 -0.1875
86949W        W30043  10.266  31.316   7.495  0.1168  0.0131 -0.0289
86950W        W30044   8.403  33.404   7.948  0.3268  0.1577  0.3360
86951W        W30045   8.569  33.914   5.550 -0.4252  0.0958  0.0361
86952W        W30046   9.879   0.152   5.227  0.0186 -0.0476  0.1460
86953W        W30047   6.948  33.849   4.763 -0.3627 -0.2033  0.0967
86954W        W30048   8.231   0.017   6.360 -0.3620  0.0633  0.0314
86955W        W30049   8.385  34.349   7.734 -0.0607 -0.0602 -0.4316
86956W        W30050   7.612  33.802   8.301  0.1568 -0.0806 -0.0246
86957W        W30051   9.271  33.104   3.194 -0.1807 -0.1520  0.0156
86958W        W30052  11.299  31.893   5.526 -0.1452  0.1382  0.2008
86959W        W30053  10.072  32.791   5.968 -0.3427 -0.1823  0.1411
86960W        W30054   9.907  32.176   7.773  0.0243 -0.1067  0.0385
86961W        W30055  10.812   0.746   4.387 -0.1086 -0.0825 -0.3712
86962W        W30056   8.955  32.625   6.464  0.3078 -0.3634 -0.2058
86963W        W30057   8.880  33.788   7.012  0.3654  0.0815  0.0504
86964W        W30058  10.879  32.858   5.061  0.1130 -0.2066 -0.1545
86965W        W30059   8.631  33.756   8.316 -0.0763 -0.0477 -0.4622
86966W        W30060   9.898  33.541   5.397 -0.1449  0.3160  0.4480
86967W        W30061  11.255  33.740   3.778  0.0494  0.0064 -0.0905
86968W        W30062   8.151  33.376   7.532 -0.0037  0.0864  0.1313
86969W        W30063   8.476  33.671   6.030  0.3815 -0.0825 -0.0382
86970W        W30064   7.671  32.863   8.221  0.3252 -0.1555  0.1450
86971W        W30065   8.131  32.265   7.426  0.1799 -0.2833 -0.0476
86972W        W30066  10.348  33.910   7.346 -0.0186  0.4105 -0.0929
86973W        W30067   8.099  33.064   6.028 -0.0143  0.3499 -0.0031
86974W        W30068  10.012  32.833   4.756 -0.2899  0.2461 -0.0813
86975W        W30069   8.657  33.051   4.136 -0.3495  0.0559 -0.1000
86976W        W30070   9.388  32.780   7.282  0.1778 -0.5163  0.0940
86977W        W30071   8.979  33.502   7.924  0.1231 -0.1527  0.2219
86978W        W30072   6.410  32.564   5.641  0.0603  0.1341 -0.0621
86979W        W30073   8.131  32.950   4.061  0.1851 -0.0427  0.0000
86980W        W30074   9.531  34.335   6.475  0.0431 -0.0589  0.0949
86981W        W30075  11.047  33.493   6.134  0.0473 -0.1501 -0.0066
86982W        W30076   7.674  32.737   5.161 -0.3619  0.0579  0.1423
86983W        W30077   8.702  34.684   6.047  0.1554 -0.0718  0.1699
86984W        W30078   9.698  32.924   6.422  0.1565  0.0455 -0.4734
86985W        W30079   8.573   0.951   7.915 -0.0295 -0.0694  0.3143
86986W        W30080   9.150  31.809   6.881  0.1558  0.0680 -0.0374
86987W        W30081   7.103   0.086   4.755  0.0346  0.0284 -0.1001
86988W        W30082  10.233  32.797   4.326 -0.1273 -0.0494 -0.1627
86989W        W30083  10.850  33.652   4.458 -0.0154 -0.1817 -0.0683
86990W        W30084  10.788  32.875   3.455  0.1504 -0.0873  0.0739
86991W        W30085   9.294  33.059   4.943 -0.0568  0.0442  0.0696
86992W        W30086   9.250  33.724   4.301 -0.1120  0.1175  0.0162
86993W        W30087   9.585  32.947   8.253 -0.0613 -0.1915 -0.0353
86994W        W30088   9.932  34.678   3.618 -0.2968 -0.1231 -0.2419
86995W        W30089   9.106  31.834   5.693 -0.0928 -0.5211 -0.0885
86996W        W30090  10.414  33.498   7.606  0.0687  0.1728  0.0165
86997W        W30091   8.982  33.339   5.808  0.2826  0.1989  0.1122
86998W        W30092   9.059  32.520   7.822 -0.4085  0.0249  0.0130
86999W        W30093  11.162  33.836   8.582 -0.0099 -0.1351  0.0287
87000W        W30094  11.517  34.278   3.413 -0.1218  0.1041  0.0929
87001W        W30095   9.900  33.761   6.267 -0.3511 -0.2271 -0.1196
87002W        W30096   7.759  34.351   3.478 -0.1590  0.1007 -0.0744
87003W        W30097   9.133  31.313   9.022  0.1049 -0.0468 -0.3058
87004W        W30098  10.142  32.662   8.124 -0.0798 -0.2559  0.0667
87005W        W30099   9.338  32.249   4.117 -0.0017 -0.1485 -0.0422
87006W        W30100   8.438  31.623   6.469  0.0189 -0.1281 -0.0643
87007W        W30101  10.274  31.557   5.657 -0.1247  0.2198 -0.0900
87008W        W30102   8.847  32.945   4.554  0.1991  0.2084  0.1317
87009W        W30103   7.829  33.268   5.024  0.0261  0.2658  0.0525
87010W        W30104  10.761  33.476   6.535 -0.2491 -0.0548 -0.0796
87011W        W30105   8.445  32.585   8.448 -0.1661  0.0267  0.2247
87012W        W30106   8.844  32.713   7.410 -0.1549 -0.2198 -0.2987
87013W        W30107   9.436  33.947   6.175 -0.2468 -0.1397 -0.1683
87014W        W30108  10.596  33.249   4.331  0.1368  0.2194 -0.1632
87015W        W30109   9.019  34.163   6.390  0.3153  0.2340 -0.1496
87016W        W30110   7.855  34.092   4.436  0.1662 -0.0792 -0.0813
87017W        W30111  11.588  33.394   6.208 -0.2770 -0.4553 -0.0179
87018W        W30112   8.768  33.125   5.106  0.1071 -0.0453 -0.2106
87019W        W30113   8.460   1.045   3.527 -0.3093 -0.1330 -0.0727
87020W        W30114   8.669  33.877   7.823 -0.3525 -0.1257 -0.1939
87021W        W30115   8.487  32.686   6.248 -0.2847  0.1337  0.0939
87022W        W30116   8.384  33.491   5.095 -0.0464 -0.0915  0.1196
87023W        W30117   9.745  34.615   6.106 -0.0497  0.2759 -0.2164
87024W        W30118   8.908  33.107   7.033  0.1817  0.0915 -0.0594
87025W        W30119   9.704  32.023   6.869 -0.0669 -0.0291 -0.0194
87026W        W30120   9.952  34.272   7.426 -0.2348  0.1356 -0.1891
87027W        W30121   9.332  32.508   6.182 -0.1197 -0.5471 -0.0148
87028W        W30122   9.527  31.663   4.610 -0.2661  0.1348  0.1302
87029W        W30123  11.116   0.001   4.707 -0.0493  0.0339  0.0014
87030W        W30124  10.821  33.688   7.394 -0.3058 -0.0946 -0.1601
87031W        W30125   9.288   0.134   3.653 -0.1516 -0.1731 -0.0945
87032W        W30126   9.089  32.159   9.522  0.1840  0.1105  0.4793
87033W        W30127   8.271  33.372   6.405  0.0365 -0.1679 -0.1521
87034W        W30128   7.043  32.344   8.086  0.0344 -0.0284  0.0949
87035W        W30129   7.355  34.225   8.339  0.2462 -0.0057 -0.4400
87036W        W30130   9.361  33.006   6.789 -0.2055  0.0301  0.0185
87037W        W30131   7.248  33.321   6.678 -0.0255  0.0784  0.2385
87038W        W30132   7.931  33.449   8.078 -0.1050  0.0268  0.1163
87039W        W30133  10.344  33.889   5.342  0.3354  0.2758 -0.0436
87040W        W30134   8.852  34.645   7.521 -0.6024 -0.0402  0.1811
87041W        W30135  11.012  32.549   3.805  0.3288 -0.1077  0.1177
87042W        W30136   9.216  32.184   6.519 -0.1404  0.3233  0.1083
87043W        W30137   9.159  32.925   5.480  0.1598 -0.1748 -0.1367
87044W        W30138  10.495  33.042   8.750 -0.0863  0.1372 -0.2939
87045W        W30139  10.519  34.354   6.573 -0.1521 -0.1252 -0.1970
87046W        W30140   9.191  33.957   8.694  0.5743  0.1196  0.1690
87047W        W30141   6.798  34.003   9.463 -0.2789 -0.0958  0.0720
87048W        W30142  11.483  34.082   2.935 -0.2067  0.1259  0.1029
87049W        W30143  10.867  33.215   7.516 -0.0191  0.3208 -0.2305
87050W        W30144  12.223  33.328   4.418  0.1347  0.1141  0.0203
87051W        W30145   9.558  33.888   3.772 -0.0939  0.0792 -0.0089
87052W        W30146   8.348  32.421   6.624 -0.1217 -0.0130 -0.2155
87053W        W30147   9.213   0.222   7.644 -0.0727  0.0099  0.0097
87054W        W30148   9.413  32.530   5.263 -0.1690 -0.2715  0.2493
87055W        W30149  10.021  33.229   8.878  0.0781 -0.1579 -0.0301
87056W        W30150  10.894  34.493   4.306  0.1844  0.0247 -0.1642
87057W        W30151   8.421  32.903   6.725 -0.0732 -0.0219 -0.2864
87058W        W30152   8.771  33.914   4.536 -0.2588  0.0819 -0.1131
87059W        W30153   8.773  33.765   5.090  0.2861 -0.0464 -0.1745
87060W        W30154   9.691  32.897   3.052  0.2689  0.0120  0.0793
87061W        W30155  10.658  32.824   8.343  0.1283 -0.0149  0.0456
87062W        W30156   9.793  31.752   6.370 -0.0826  0.0176 -0.1742
87063W        W30157   8.884  33.600   6.300 -0.0548  0.1086 -0.0799
87064W        W30158   9.595  33.384   6.369 -0.4097 -0.0849 -0.0643
87065W        W30159  10.258  33.641   5.837  0.1070  0.0038  0.1359
87066W        W30160  11.106  33.431   7.013 -0.1374  0.0017 -0.0726
87067W        W30161   8.695  33.392   6.716  0.0459  0.1787  0.0485
87068W        W30162   8.031  33.988   8.654 -0.1073 -0.0544  0.0875
87069W        W30163   7.100  32.141   5.709  0.0255  0.1550 -0.0480
87070W        W30164   9.940   0.192   4.125 -0.3441 -0.0975 -0.2150
87071W        W30165  12.750  32.918   4.061 -0.0601  0.0967  0.1403
87072W        W30166  11.759  34.053   5.074 -0.1659 -0.1467  0.1321
87073W        W30167  11.096  32.926   5.512  0.0350  0.0782  0.1872
87074W        W30168   8.105  34.016   5.342 -0.1328  0.0049 -0.3366
87075W        W30169   9.164  33.157   4.242  0.1339  0.0228 -0.0713
87076W        W30170   8.695  34.670   7.018  0.1911  0.0678 -0.0181
87077W        W30171  10.556  32.400   8.122  0.1493  0.2091 -0.0894
87078W        W30172   6.585  33.243   5.799 -0.1519  0.1545  0.0099
87079W        W30173   9.573  33.717   5.095  0.2259  0.0233  0.2083
87080W        W30174  11.417  31.332   6.616 -0.1227 -0.1549  0.2858
87081W        W30175   9.423  33.381   7.305 -0.1072  0.0821 -0.2063
87082W        W30176   7.959  31.038   5.494  0.3222 -0.2598 -0.0181
87083W        W30177  12.039  33.774   4.288 -0.0829 -0.1794  0.2079
87084W        W30178   9.145  33.778   7.484 -0.0854 -0.0006 -0.3528
87085W        W30179   9.649  31.693   5.746 -0.0695  0.2503 -0.1298
87086W        W30180   8.241  33.425   5.590  0.0249  0.0371 -0.1430
87087W        W30181  11.499  33.816   5.754 -0.0857  0.0895 -0.1417
87088W        W30182   7.301  34.015   9.205 -0.0371  0.0705 -0.2930
87089W        W30183   8.432  34.303   4.552  0.0345 -0.3744 -0.0571
87090W        W30184  11.265  34.096   7.062 -0.3115  0.1128  0.3687
87091W        W30185  10.462  33.346   3.345 -0.2408  0.1309 -0.0351
87092W        W30186   7.803  33.023   5.635 -0.2445 -0.1951  0.1558
87093W        W30187   9.475  33.344   5.636 -0.1068  0.0742  0.0124
87094W        W30188   8.147  33.988   5.847 -0.2222  0.1611 -0.0151
87095W        W30189   9.026  33.922   5.830  0.0931  0.4403  0.0665
87096W        W30190   6.145  33.041   5.746  0.2047  0.1954 -0.0402
87097W        W30191   9.302  34.016   6.807  0.0859 -0.1214 -0.0894
87098W        W30192  11.725  34.004   3.807  0.1028 -0.0966  0.2514
87099W        W30193   8.215  33.007   8.208 -0.0514  0.1459 -0.2288
87100W        W30194  10.147  32.358   5.673  0.0977 -0.1273  0.1174
87101W        W30195   8.363  34.379   5.608 -0.0597  0.0178 -0.1990
87102W        W30196  10.190  33.254   6.726 -0.3332  0.1109 -0.0436
87103W        W30197   9.637  34.372   6.962  0.0930 -0.1580  0.4799
87104W        W30198  10.870  32.934   7.897  0.2674  0.0858 -0.1377
87105W        W30199  10.134  34.143   4.659  0.1715  0.3932 -0.0963
87106W        W30200   8.189  33.055   5.235 -0.0414 -0.3498 -0.0358
87107W        W30201  10.016  33.413   4.393  0.1269 -0.0908 -0.3099
87108W        W30202   8.684  31.742   5.383  0.1694 -0.2510  0.0105
87109W        W30203  10.203  34.345   5.153 -0.2834  0.1022  0.1001
87110W        W30204   7.822  33.822   4.938 -0.5175  0.2448  0.1808
87111W        W30205  10.259  32.227   9.056  0.0691 -0.3089  0.0605
87112W        W30206   8.643  34.580   9.094  0.2033 -0.0188  0.3073
87113W        W30207   8.109  34.088   6.299 -0.2656  0.0100  0.2216
87114W        W30208   7.942  33.593   6.077  0.1406 -0.0632  0.2685
87115W        W30209   7.867  34.018   7.069  0.0719 -0.0418 -0.2701
87116W        W30210   7.404  33.341   7.474 -0.0322 -0.2010  0.1204
87117W        W30211   9.186  33.455   5.219  0.1713 -0.2081  0.1188
87118W        W30212   9.232  32.342   9.066  0.0325  0.1515  0.1780
87119W        W30213   8.463  33.085   7.218  0.1564 -0.2789  0.0572
87120W        W30214   7.051  33.283   5.018 -0.1942 -0.0942 -0.1367
87121W        W30215   9.221  33.927   5.380 -0.0641 -0.0560 -0.0596
87122W        W30216   7.662  33.321   8.474 -0.2207 -0.0553 -0.1244
87123W        W30217   9.728  33.797   8.238 -0.0167 -0.0042  0.4352
87124W        W30218   8.893  34.361   4.702 -0.2216  0.1346 -0.1838
87125W        W30219   7.121  31.942   7.718  0.0959 -0.2158  0.1260
87126W        W30220   8.003  32.552   5.898 -0.2594 -0.0490  0.1171
87127W        W30221   9.900  32.509   5.157 -0.0885  0.0231 -0.1182
87128W        W30222   7.960  33.783   6.645  0.0674 -0.5466  0.0106
87129W        W30223   9.743  33.939   4.423 -0.0330  0.1147 -0.0894
87130W        W30224   8.276  33.561   6.964  0.4206 -0.0552  0.4861
87131W        W30225   9.963  34.106   5.888  0.1000  0.3056 -0.0768
87132W        W30226  11.346   0.692   3.562  0.1626 -0.0612  0.1574
87133W        W30227   7.432  33.696   6.984 -0.1124  0.0272 -0.0881
87134W        W30228   8.377  33.141   4.677 -0.2056 -0.1148 -0.0673
87135W        W30229   9.172  34.589   6.186 -0.0278 -0.0793 -0.0680
87136W        W30230   9.604  33.917   7.268 -0.1147  0.0494  0.1917
87137W        W30231   8.917  32.782   5.889  0.0301 -0.0591 -0.0249
87138W        W30232  10.491  32.693   4.763 -0.2241 -0.0866  0.1097
87139W        W30233   8.417  33.716   8.940 -0.0371 -0.1267  0.0595
87140W        W30234  10.672  33.492   8.032 -0.2500  0.1039  0.2332
87141W        W30235   9.181  33.942   8.153 -0.0302  0.0313  0.0213
87142W        W30236   8.500  33.948  10.048  0.1678 -0.0254  0.1731
87143W        W30237   8.941  33.788   9.109  0.1365 -0.0291 -0.1958
87144W        W30238   9.635  33.423  10.645  0.1349 -0.1433  0.1414
87145W        W30239   8.855  33.081   9.602  0.2992  0.3613 -0.3182
87146W        W30240   7.925  29.965  11.534  0.0066  0.1418 -0.3771
87147W        W30241   7.096   1.311  11.327  0.0484  0.0243 -0.0933
87148W        W30242   8.520  34.126   9.226  0.0337 -0.1353 -0.0659
87149W        W30243   6.429   0.015  11.694  0.3152  0.0997  0.5727
87150W        W30244   8.813   0.438   9.557  0.2989  0.1991 -0.0432
87151W        W30245   8.679   0.029  10.454  0.1682 -0.0699 -0.3321
87152W        W30246   7.722  33.721   7.739  0.0225 -0.0421  0.0612
87153W        W30247   6.540  33.157  11.185 -0.0499  0.1341  0.2982
87154W        W30248   7.417  33.704  11.203 -0.2374 -0.0982 -0.0858
87155W        W30249  12.850  33.133  10.900 -0.0477 -0.0268  0.0283
87156W        W30250  11.151  34.630   9.068 -0.0812  0.3597 -0.2280
87157W        W30251  10.254  33.146  10.358  0.2386 -0.0169 -0.1219
87158W        W30252  10.444   0.929  10.624 -0.1644  0.1299  0.1359
87159W        W30253   9.994  32.710   7.686  0.1631 -0.1436 -0.2212
87160W        W30254   9.189  33.285   9.913  0.0814  0.2706 -0.2971
87161W        W30255  10.627  33.367   9.206  0.0186 -0.0866 -0.1906
87162W        W30256   8.691  32.003  11.394  0.2312 -0.0049 -0.0517
87163W        W30257  10.157  34.437  11.001 -0.1349 -0.0455 -0.1575
87164W        W30258   9.260  33.552   9.484  0.2726  0.0509 -0.1698
87165W        W30259  10.370  33.930  10.232  0.0957 -0.1509 -0.0502
87166W        W30260   8.297   1.038   9.899  0.0105 -0.1632  0.0586
87167W        W30261   9.722  34.439  10.788 -0.0212  0.1598  0.0321
87168W        W30262   8.835  32.680   8.805  0.1061  0.0021 -0.1129
87169W        W30263  10.565   0.287  11.251 -0.4431  0.4286  0.0008
87170W        W30264  11.803  34.385  11.218 -0.2461 -0.1728  0.2473
87171W        W30265  10.784  32.589  11.416 -0.3539  0.4689  0.0323
87172W        W30266  10.482  34.378   7.671  0.3514  0.0603  0.0611
87173W        W30267   6.950   2.088  10.726 -0.0008  0.0986  0.1527
87174W        W30268  11.104  32.922  10.064 -0.3222  0.1037  0.2053
87175W        W30269  10.795  33.665  10.631 -0.0286 -0.0980 -0.3703
87176W        W30270   9.832  33.726   8.750 -0.2183  0.1551  0.1501
87177W        W30271   9.809  32.292  11.358  0.1488  0.0462 -0.2270
87178W        W30272   6.997  33.533  10.959 -0.0445 -0.1750  0.1729
87179W        W30273   7.715  33.932  10.915 -0.0923 -0.0613  0.1303
87180W        W30274   9.355  31.399   9.887 -0.2703 -0.1209 -0.1370
87181W        W30275   9.823  33.832  10.076  0.0521  0.0249  0.1417
87182W        W30276   7.944   0.387   8.535 -0.1258 -0.0025  0.3117
87183W        W30277  10.386  34.476  10.503 -0.1174 -0.0046 -0.0135
87184W        W30278   7.939  33.544   8.873 -0.0770 -0.1950 -0.2413
87185W        W30279   7.828  33.601   9.357 -0.2699 -0.2169 -0.1099
87186W        W30280  10.746  34.201  10.697 -0.4726  0.1088  0.0856
87187W        W30281   8.750  33.264   8.307 -0.1839  0.2782  0.0150
87188W        W30282   7.112  34.143  10.371 -0.0654 -0.1081 -0.0111
87189W        W30283  11.402  33.630   9.426 -0.2034  0.0709 -0.1748
87190W        W30284   6.381  34.230   8.699  0.0565 -0.1699  0.0776
87191W        W30285   9.714   0.074   8.414 -0.3413  0.5320 -0.3951
87192W        W30286  10.471  32.305   9.628  0.2209 -0.0240  0.1815
87193W        W30287  10.050  32.976   8.479 -0.0704 -0.2632 -0.2147
87194W        W30288   9.513  32.955   8.762 -0.2784  0.1323  0.1759
87195W        W30289   9.556  34.364   8.723  0.1275 -0.2512 -0.1595
87196W        W30290  10.406  33.397  11.443 -0.0012  0.0483  0.1367
87197W        W30291   8.838  33.535   8.685 -0.0657  0.0825  0.0498
87198W        W30292   9.266  33.134  10.431  0.3385 -0.1593  0.1869
87199W        W30293  10.464  33.911   9.399  0.0159 -0.0022  0.2712
87200W        W30294  10.284  33.913  11.260 -0.2551 -0.2370 -0.0485
87201W        W30295   9.614  33.972  10.567  0.0395  0.1712  0.0679
87202W        W30296   9.995   0.073  10.496 -0.0859 -0.2513 -0.1135
87203W        W30297   7.545  33.254   9.071  0.0736  0.1708  0.1291
87204W        W30298   8.120  32.244  10.557  0.1405 -0.0003 -0.1080
87205W        W30299  10.012  34.186   8.424  0.1733 -0.1159 -0.1129
87206W        W30300   9.155  32.829  11.200 -0.0131 -0.0150  0.0351
87207W        W30301  12.544  30.917  10.384  0.1393  0.0224 -0.1838
87208W        W30302   8.721  34.103   8.710 -0.2675 -0.2296  0.0197
87209W        W30303   6.772  32.811   7.862 -0.3364  0.2241  0.0207
87210W        W30304  11.120  32.912  10.548  0.0702 -0.1740 -0.3151
87211W        W30305   9.072   0.555  10.337 -0.0725  0.1082  0.2054
87212W        W30306  11.239  34.457  10.119 -0.0539  0.1603  0.2822
87213W        W30307   9.977  34.011   9.539 -0.2427  0.0459 -0.0125
87214W        W30308   7.368  33.509   9.431  0.2677  0.0966  0.2603
87215W        W30309   9.762   1.456  11.280  0.2444 -0.1397  0.0297
87216W        W30310  10.913   0.436  10.689 -0.0050 -0.1538 -0.0094
87217W        W30311   8.269   0.215   8.967  0.3310 -0.1738 -0.1833
87218W        W30312   9.028   1.830  10.664  0.2156 -0.0110 -0.0608
87219W        W30313   7.724  33.541   9.848 -0.1881  0.0413 -0.1098
87220W        W30314   8.538  33.542   9.413  0.0170 -0.1661 -0.0779
87221W        W30315  10.250  33.643   9.851 -0.0241  0.0736  0.0691
87222W        W30316  11.656  33.982  10.940  0.2273  0.1317  0.0613
87223W        W30317   9.519  32.140  10.506 -0.1531  0.2729  0.1349
87224W        W30318  11.377  34.363  10.656  0.2273  0.0746  0.3520
87225W        W30319   9.630  32.360   9.565  0.0090  0.1334  0.0743
87226W        W30320  10.065  33.608  10.428 -0.0098  0.0586  0.1817
87227W        W30321   8.860  34.650   9.587  0.1471  0.1787  0.1005
87228W        W30322   7.778   0.493  11.409  0.0336  0.0655 -0.1196
87229W        W30323   9.340  33.670  10.209 -0.0917  0.1033  0.0647
87230W        W30324  11.425   0.195  10.394 -0.5020  0.1607 -0.1089
87231W        W30325   8.038   1.000  11.416 -0.2226 -0.1157  0.0400
87232W        W30326   9.719  33.555   9.713 -0.1538 -0.1693  0.0586
87233W        W30327   5.542   0.405  12.180 -0.1309  0.0575  0.1509
87234W        W30328  11.017   0.036   8.483 -0.0473  0.0418  0.0076
87235W        W30329   9.744   1.145  10.893 -0.0037  0.1109 -0.3126
87236W        W30330  10.644  33.675   8.489  0.0929 -0.0573 -0.2123
87237W        W30331  10.480  34.239  11.784  0.0419  0.3482  0.1344
87238W        W30332  11.025  34.033  10.295  0.1581 -0.1070 -0.0178
87239W        W30333   9.342  34.469   9.593  0.2186 -0.2157  0.0260
87240W        W30334   8.158  34.072  10.568  0.0327 -0.0539  0.2612
87241W        W30335   7.472  33.710   8.819  0.1408 -0.1948 -0.2283
87242W        W30336   9.556  33.929   9.110 -0.1288  0.2747 -0.0157
87243W        W30337   8.274  34.479  10.231 -0.1656 -0.1275  0.1194
87244W        W30338   6.857  32.962   8.743  0.1011 -0.3640  0.0397
87245W        W30339   8.652   0.049   8.092  0.0146  0.1758  0.0963
87246W        W30340   9.617  33.191   9.230  0.1634  0.1332  0.4052
87247W        W30341  12.253  32.066   9.891  0.0066 -0.1663  0.0693
87248W        W30342  10.424  32.227  10.193 -0.2210 -0.1454 -0.0426
87249W        W30343  10.621  33.394  10.176  0.1411 -0.2048 -0.0144
87250W        W30344  11.443   0.312   9.840  0.1194  0.0233 -0.1261
87251W        W30345   9.540   0.650  11.018  0.2944  0.2906 -0.2384
87252W        W30346   8.860  34.395  10.092  0.0205 -0.0767 -0.1690
87253W        W30347   9.729  33.329   8.460 -0.2474 -0.5823  0.2838
87254W        W30348  10.455  32.503   7.242  0.0069  0.0407  0.3154
87255W        W30349  12.572   0.040  10.991 -0.1705  0.1294 -0.3025
87256W        W30350  10.932  32.304  11.001  0.1380 -0.2828 -0.0675
87257W        W30351   9.825   1.668  10.853  0.1337  0.1610  0.0455
87258W        W30352   9.931  33.382   8.038 -0.2422  0.1302  0.0551
87259W        W30353   6.344  33.490  10.336  0.0666  0.2147  0.2127
87260W        W30354   9.119  34.052  10.458 -0.2514 -0.2098 -0.1997
87261W        W30355  11.018  31.837  10.326  0.3197 -0.0339  0.0629
87262W        W30356  10.567  34.368  11.256  0.3262  0.3092  0.2793
87263W        W30357   8.611  33.004   7.816  0.1699 -0.0160 -0.2226
87264W        W30358  10.789  34.096   9.706  0.1251 -0.0774  0.0446
87265W        W30359   9.094  34.234  10.961  0.0765 -0.1039  0.0661
87266W        W30360   8.675   0.688   9.951  0.1318 -0.2463  0.1099
87267W        W30361  10.015  33.562   9.302  0.1697 -0.2291 -0.1296
87268W        W30362   7.156  33.448  11.499  0.0972  0.4348  0.1308
87269W        W30363   9.162  34.621   8.018 -0.1646  0.0382 -0.2646
87270W        W30364   9.310  33.489   8.364 -0.2894 -0.0067  0.1486
87271W        W30365   8.887  33.508  10.450 -0.2180 -0.1872  0.0426
87272W        W30366  10.331  33.545  10.897 -0.1019  0.0463  0.1074
87273W        W30367   8.408  33.849  11.426 -0.2045  0.1630  0.0433
87274W        W30368  10.033   0.760  10.786  0.0627  0.1412  0.1312
87275W        W30369   7.068  33.098  10.311  0.2623 -0.0789 -0.2032
87276W        W30370  10.336  34.226   9.839 -0.1521 -0.0201  0.4725
87277W        W30371  10.208  33.443   8.451 -0.2248 -0.3027  0.3163
87278W        W30372   9.533   0.235  10.621 -0.0251  0.0143 -0.1538
87279W        W30373  10.153  32.589   9.914  0.0889  0.0140 -0.1242
87280W        W30374   8.090  33.278  10.647 -0.3351 -0.2893 -0.1078
87281W        W30375  12.093  33.905  10.581 -0.1155 -0.0577 -0.2264
87282W        W30376   9.906  34.254  10.322 -0.1985  0.0136 -0.0158
87283W        W30377   9.727  33.265  10.172  0.3391 -0.0030  0.2890
87284W        W30378  11.962  34.149   9.932  0.0693 -0.0635  0.1308
87285W        W30379  10.037  32.118   9.856 -0.1145 -0.1671 -0.1578
87286W        W30380   6.960   0.850  11.370  0.2792 -0.1691 -0.0727
87287W        W30381   7.677  34.025   9.552 -0.0988  0.0561 -0.0308
87288W        W30382   8.001   1.085  10.908 -0.0505 -0.2757  0.0097
87289W        W30383   9.057  33.285   9.155  0.0437  0.0626  0.0846
87290W        W30384  11.145  33.356  10.773  0.1017  0.0103 -0.2595
87291W        W30385   7.897  33.683  10.409 -0.0317  0.0386  0.3324
87292W        W30386   9.960   1.047  10.355 -0.0982  0.1203 -0.3623
87293W        W30387   8.091  32.500   8.030  0.0934  0.1532 -0.0085
87294W        W30388   9.646   0.384  11.394  0.0815 -0.1386 -0.0010
87295W        W30389   7.170  33.060  10.822 -0.1658  0.0154  0.0787
87296W        W30390  10.691  33.165  10.655 -0.1569 -0.1766  0.2338
87297W        W30391  10.433  34.029   8.719 -0.0625 -0.1098  0.3851
87298W        W30392   7.918  34.013  10.065 -0.3425  0.1604 -0.0545
87299W        W30393   9.655  32.883   9.874  0.3385  0.0342  0.3026
87300W        W30394   7.389   1.100  10.728 -0.0771  0.0661 -0.0477
87301W        W30395   7.958  32.952   8.652 -0.0056  0.0795  0.0054
87302W        W30396   9.087  34.411   8.475 -0.3398 -0.0649  0.1794
87303W        W30397  11.971  33.534   8.271 -0.1016 -0.0628  0.1246
87304W        W30398  10.297   0.282  10.821  0.0049 -0.0948 -0.1622
87305W        W30399   6.680  34.338   9.140  0.0110 -0.2080  0.1916
87306W        W30400   9.204  34.592  10.490 -0.0063  0.2438  0.2385
87307W        W30401  11.179   0.117  10.988  0.1955  0.2180  0.0749
87308W        W30402   8.670  34.170  10.478  0.2210 -0.2978  0.2472
87309W        W30403   9.958  32.531  10.838 -0.0726 -0.0095  0.0052
87310W        W30404  10.517   2.523   1.631  0.1239 -0.1063  0.0366
87311W        W30405  12.834   1.439   1.162 -0.0544  0.1154  0.0675
87312W        W30406  14.834  34.185  31.121 -0.2092 -0.0559  0.2479
87313W        W30407  13.967   1.915  31.636  0.1983  0.0170  0.2060
87314W        W30408  10.199  34.570  31.487  0.1245 -0.1018 -0.2151
87315W        W30409  14.154   2.810  31.386 -0.0510  0.2386 -0.1522
87316W        W30410  12.457   0.184   2.662  0.0159  0.0806  0.1516
87317W        W30411  14.178   2.407   3.415 -0.1174 -0.0138 -0.1530
87318W        W30412  13.891   3.786   3.404 -0.0332  0.2083  0.0316
87319W        W30413  13.324   3.332  31.338  0.1377 -0.1331  0.2047
87320W        W30414  12.141  34.396   1.185 -0.1021  0.1891  0.0095
87321W        W30415  11.473   1.767   3.096  0.1625  0.2953 -0.1388
87322W        W30416  12.974  33.332  31.236 -0.0004 -0.0190  0.6067
87323W        W30417   9.869  34.569   1.366 -0.2008  0.0716  0.1878
87324W        W30418  13.308   2.001   2.815  0.2542 -0.1525  0.0368
87325W        W30419  12.414  34.673   0.850 -0.3659 -0.2125  0.1901
87326W        W30420  13.204  34.319   2.297 -0.1964 -0.2737  0.1823
87327W        W30421  12.213   1.841   0.780 -0.5707 -0.3910  0.0197
87328W        W30422  13.345   2.416   1.416 -0.1565 -0.1964 -0.1786
87329W        W30423  12.083   0.735   3.933  0.2338 -0.1589  0.2395
87330W        W30424  13.298  34.223   4.078  0.1143 -0.0890 -0.2718
87331W        W30425  13.247   1.496  31.275  0.0195 -0.1036  0.0435
87332W        W30426  10.834   0.495  31.792 -0.0385 -0.1902  0.1333
87333W        W30427  12.024   1.363   2.173  0.0276  0.1806  0.1126
87334W        W30428  13.023   2.082   1.822  0.1540  0.1489  0.4258
87335W        W30429  13.509   2.020   3.592 -0.2044  0.1419 -0.1454
87336W        W30430  13.391   1.110   0.840  0.1463  0.6924  0.1742
87337W        W30431  11.841   2.650   1.875 -0.0640 -0.2104 -0.0573
87338W        W30432  11.705   3.417   2.800  0.0953 -0.0003 -0.2513
87339W        W30433  14.542   1.896   2.425  0.0846  0.1820 -0.0687
87340W        W30434  12.692   2.171   1.370  0.1962 -0.3740 -0.0827
87341W        W30435  10.831   2.461   2.372 -0.1354  0.1979 -0.0425
87342W        W30436  12.480   3.734  31.610 -0.2038 -0.2147  0.0229
87343W        W30437  14.148   2.022   0.167 -0.1508 -0.2614  0.1414
87344W        W30438  12.748   1.776   0.824  0.0128 -0.1814  0.1906
87345W        W30439  11.935   3.227   4.014  0.0648  0.2053  0.2334
87346W        W30440  11.012   3.800   0.114 -0.1114 -0.1813  0.0383
87347W        W30441  12.480   4.628   2.919  0.1157 -0.2117  0.2920
87348W        W30442  11.282   2.218   3.223 -0.2741 -0.1061 -0.1348
87349W        W30443  13.846   2.132   4.080  0.3769 -0.0642 -0.0835
87350W        W30444  12.692   1.628   3.579 -0.0087 -0.0644 -0.2270
87351W        W30445  12.595   1.800  31.778 -0.2590 -0.1609  0.1259
87352W        W30446  13.989   2.838   3.078 -0.0939  0.1105 -0.0341
87353W        W30447  12.293   1.875   3.790 -0.1856  0.0113  0.1497
87354W        W30448  11.072   3.191   1.574 -0.0357  0.2978 -0.3958
87355W        W30449  13.959   0.872   3.389  0.2196  0.2728 -0.1790
87356W        W30450  11.557   4.265   0.768  0.4712  0.1268 -0.0748
87357W        W30451  13.645   1.679   1.637 -0.0430  0.2331  0.2045
87358W        W30452  12.570   0.623  30.347 -0.2831  0.0373  0.0888
87359W        W30453  14.465  34.693   0.321 -0.3402 -0.0094  0.0529
87360W        W30454  13.116  33.709   1.362  0.1086 -0.1669  0.1546
87361W        W30455  11.321   4.313   3.005  0.0878 -0.4430 -0.2150
87362W        W30456  13.951   0.865   1.907  0.2195 -0.0678 -0.2013
87363W        W30457  14.519   2.308   2.769 -0.1960  0.0107  0.0070
87364W        W30458  13.390   2.769   0.966 -0.2288  0.0854  0.2311
87365W        W30459  13.314   1.995   4.063  0.3334 -0.0322 -0.1630
87366W        W30460  10.948   1.583   1.318 -0.1590  0.0188 -0.0602
87367W        W30461  11.657   1.217   0.764 -0.1650 -0.0936  0.2634
87368W        W30462  12.900   2.757  30.545  0.0377 -0.1002 -0.3795
87369W        W30463  14.701   1.767   2.900  0.0723  0.0049 -0.0010
87370W        W30464  13.687   1.914   0.494 -0.0817 -0.3060  0.0805
87371W        W30465  11.698   1.910   1.472 -0.0838  0.0204 -0.0225
87372W        W30466  11.646   1.048   2.955 -0.0716 -0.0249  0.2246
87373W        W30467  12.640   0.880   2.972  0.1900 -0.0954  0.0616
87374W        W30468  12.435  34.179  30.786 -0.0540 -0.3433 -0.1554
87375W        W30469  14.699   2.916   4.293 -0.0170  0.0944  0.2275
87376W        W30470  11.203   1.950   3.739 -0.1379  0.2175  0.1673
87377W        W30471  12.491  34.658   0.261  0.0559 -0.0943 -0.2927
87378W        W30472  13.811   1.805   2.583 -0.0502  0.2239 -0.0521
87379W        W30473  14.656   3.083   1.692  0.4226 -0.0155 -0.4902
87380W        W30474  14.883   0.408  31.167  0.0412 -0.2077 -0.0487
87381W        W30475  13.441   1.424   2.898  0.0082 -0.3022  0.1352
87382W        W30476  14.942   1.910   1.450 -0.2835 -0.0281 -0.1334
87383W        W30477  13.418   1.445  30.017 -0.1348 -0.1703  0.0557
87384W        W30478  12.991   0.371   0.187  0.0085  0.0881  0.2099
87385W        W30479  15.306   3.112   2.020 -0.2128  0.0336  0.2680
87386W        W30480  13.064   1.441  30.307 -0.0577 -0.0399  0.2027
87387W        W30481  10.606   2.658   3.222 -0.0390 -0.0850  0.2929
87388W        W30482  12.895   1.015   3.826  0.3661 -0.2646 -0.4009
87389W        W30483  12.420   3.307   3.865 -0.2150  0.1156 -0.1496
87390W        W30484  11.055   4.349   0.038  0.1030 -0.0175  0.0908
87391W        W30485  13.186   1.496   1.637  0.1746 -0.2675 -0.0114
87392W        W30486  13.144   1.861   1.330  0.2157  0.1257  0.1524
87393W        W30487  11.895  34.604   2.533  0.2367 -0.1062 -0.1965
87394W        W30488  12.538   2.691   3.627 -0.3003 -0.2150 -0.0413
87395W        W30489  15.331   0.126  31.856 -0.1745  0.0449 -0.1090
87396W        W30490  12.236   1.791   3.320 -0.0582  0.0927  0.2267
87397W        W30491  14.827   1.320   1.623 -0.0313 -0.0276 -0.1889
87398W        W30492  12.669   0.812  31.694 -0.1242 -0.1149 -0.2889
87399W        W30493  13.835   2.519   1.537  0.0431  0.3106  0.0411
87400W        W30494  15.466   0.273  31.162  0.3165 -0.2480  0.1647
87401W        W30495  14.036   3.122   0.458  0.2619 -0.2359  0.2225
87402W        W30496  13.099   0.255   2.095  0.1377 -0.0428  0.3338
87403W        W30497  12.235   1.109   1.681 -0.2513 -0.2304 -0.0727
87404W        W30498  12.964   1.529   2.964 -0.0054  0.0606 -0.1748
87405W        W30499  11.012  34.692   1.859  0.1780 -0.0554  0.0896
87406W        W30500  14.163   1.963   2.069 -0.1309  0.0194  0.0269
87407W        W30501  11.482  33.750   0.097 -0.4178 -0.2810  0.1446
87408W        W30502  12.798   0.926   0.213  0.1634  0.0254 -0.2335
87409W        W30503  13.329   2.146   0.852 -0.1787 -0.2502  0.1544
87410W        W30504  10.288   0.992   0.705  0.1619 -0.1084 -0.2068
87411W        W30505  15.622  34.042   3.408  0.3114 -0.2388  0.1554
87412W        W30506  13.466   3.843   1.801 -0.3901  0.2510  0.0860
87413W        W30507  13.517   3.475   3.615 -0.0464 -0.1608  0.2133
87414W        W30508  13.020   3.088   0.771  0.2830 -0.1382 -0.2036
87415W        W30509  11.953   0.148   1.480 -0.1272  0.1183 -0.0937
87416W        W30510  11.389   1.369  31.636  0.2689 -0.1926  0.2408
87417W        W30511  11.112   5.023   2.130  0.3999  0.1317 -0.0016
87418W        W30512  12.935   2.532   0.916 -0.0237 -0.0284 -0.2240
87419W        W30513  12.339  33.556  30.673  0.1903 -0.4667 -0.1312
87420W        W30514  14.849   2.825   2.135  0.2874 -0.1124 -0.0813
87421W        W30515  13.225   1.970   0.368  0.0812 -0.1873 -0.0810
87422W        W30516  12.619   2.232   2.149  0.2533 -0.2187  0.0118
87423W        W30517  14.525   1.472   2.074  0.1133  0.1005 -0.1095
87424W        W30518  14.406   1.588   1.584 -0.3127 -0.0257  0.1147
87425W        W30519  13.494   1.620   2.111 -0.0963  0.1310 -0.0531
87426W        W30520  11.701   1.008  31.496  0.0583  0.0815  0.2028
87427W        W30521  13.133   3.352   1.780  0.1769 -0.0071 -0.0747
87428W        W30522  10.226   2.624  31.837 -0.1837  0.3518 -0.3090
87429W        W30523  11.160   1.033   0.673  0.1239 -0.1774  0.0420
87430W        W30524  12.681   1.728   1.612  0.2521 -0.1314 -0.2136
87431W        W30525  14.066   3.135   2.698 -0.0434  0.0282 -0.0399
87432W        W30526  12.056   1.122   4.419 -0.0009 -0.1020 -0.0902
87433W        W30527  14.020   1.968   3.525 -0.1406  0.1138 -0.0237
87434W        W30528  11.769   1.241   0.044  0.1018  0.2913  0.1071
87435W        W30529  12.225   2.475   2.179  0.4693  0.1415 -0.0044
87436W        W30530  12.927  33.902   0.844 -0.1501 -0.1754 -0.2624
87437W        W30531  13.146  34.307   0.776 -0.0103 -0.0495 -0.2265
87438W        W30532  12.621   0.783   3.469 -0.0539 -0.3238 -0.1692
87439W        W30533  14.045   1.551   0.425  0.1764 -0.2933  0.1367
87440W        W30534  14.122   1.546  31.870 -0.1263  0.1839 -0.2177
87441W        W30535  13.025  34.533   0.116  0.1416 -0.4060  0.1385
87442W        W30536  10.892   1.978   2.357  0.2335  0.0444  0.3546
87443W        W30537  13.683   2.111   1.832 -0.1652 -0.0424 -0.2273
87444W        W30538  12.944   2.814   2.852  0.1217  0.0194 -0.0521
87445W        W30539  13.181  34.165   1.292 -0.2026  0.1990 -0.3359
87446W        W30540  13.640   4.627  31.925 -0.2923 -0.0261  0.0480
87447W        W30541  10.920   2.737   1.394  0.2853 -0.2042  0.0270
87448W        W30542  13.699   1.556   4.984 -0.0792 -0.5772 -0.0360
87449W        W30543  13.638   3.283   0.913 -0.0145  0.0068 -0.0704
87450W        W30544  13.868   0.597   2.989  0.1450  0.1345 -0.0493
87451W        W30545  12.754   1.297  31.837  0.0235 -0.0477  0.2789
87452W        W30546  12.530   1.354   3.205  0.0583 -0.0026 -0.1796
87453W        W30547   9.745   2.494   0.577 -0.0998 -0.1281  0.1438
87454W        W30548  13.820   1.325   2.341 -0.0213 -0.1204  0.0128
87455W        W30549  13.972   1.388   2.821  0.2168 -0.1595 -0.0112
87456W        W30550  13.152  34.643   3.264 -0.2389 -0.0172  0.1574
87457W        W30551  14.784   1.046   2.191 -0.0907 -0.1771 -0.0421
87458W        W30552  13.445   1.439   0.438 -0.0032 -0.2350  0.1472
87459W        W30553  12.905   2.606   2.312 -0.2761 -0.1610  0.0489
87460W        W30554  12.611   0.316  31.282 -0.1082  0.0708  0.3367
87461W        W30555  13.119   0.594   3.141  0.0435  0.1156  0.2097
87462W        W30556  13.225   2.293   4.532  0.2885  0.2121  0.0662
87463W        W30557  11.469   2.147   2.777 -0.3106 -0.1670 -0.2094
87464W        W30558  13.515   1.031   4.185  0.0884 -0.2513 -0.1027
87465W        W30559  14.171   2.348  31.765 -0.1548  0.3179  0.2187
87466W        W30560  14.236  34.524   4.294 -0.2206  0.2598  0.2888
87467W        W30561  11.402  34.189  31.770  0.0957 -0.2795  0.2844
87468W        W30562  13.353   3.358  31.843  0.1928 -0.1841 -0.1916
87469W        W30563  12.298   2.210  31.818  0.0295 -0.1393  0.1931
87470W        W30564  11.945  34.641  31.906 -0.0029  0.1305  0.0719
87471W        W30565  12.843   3.412   2.335  0.0188  0.2286  0.1739
87472W        W30566  11.731   0.511  31.690 -0.0648 -0.1608 -0.0504
87473W        W30567  13.351   2.984   3.736  0.0793 -0.1201  0.1285
87474W        W30568  11.367   1.947   1.832 -0.1104  0.1062  0.1654
87475W        W30569  14.543   0.078   2.128 -0.0238  0.1540 -0.1201
87476W        W30570  10.914   3.290   0.608  0.2636  0.2590  0.1767
87477W        W30571  12.625  34.424  31.267  0.1968 -0.0475 -0.2005
87478W        W30572  11.831   2.021   0.474 -0.2010  0.1106  0.0057
87479W        W30573  14.308   0.725   2.224 -0.0177  0.0874 -0.2954
87480W        W30574  13.550  34.686   0.952 -0.0600  0.0414  0.0484
87481W        W30575  13.145  34.650   1.685 -0.1906  0.1031 -0.3559
87482W        W30576  13.260   0.513   2.493  0.0662  0.1624  0.0810
87483W        W30577  10.963   2.969   2.560  0.1455 -0.2579  0.1765
87484W        W30578  14.476   1.030   1.812  0.3087 -0.2279 -0.1296
87485W        W30579  13.725   0.943   0.510 -0.3270  0.1554 -0.1921
87486W        W30580  13.091   2.998   2.109 -0.0475  0.0490  0.5324
87487W        W30581  12.703   2.390   4.000  0.0476  0.2082 -0.0298
87488W        W30582  11.292   0.317   0.101 -0.3303  0.3211 -0.1056
87489W        W30583  16.675   0.605   4.279  0.0691  0.0982 -0.0299
87490W        W30584  12.738   1.225   1.636 -0.1624 -0.1098  0.1352
87491W        W30585  11.541   2.996   0.389  0.2664 -0.3600 -0.1702
87492W        W30586  13.544   2.504   4.925 -0.0857 -0.1279 -0.2222
87493W        W30587  12.525  34.604  31.738 -0.0960  0.2330 -0.2669
87494W        W30588  12.314   3.623   1.406 -0.0824  0.1194 -0.0449
87495W        W30589  12.194  34.187   3.842  0.5274 -0.3783  0.0707
87496W        W30590  15.402   1.729   1.382 -0.2192 -0.1346  0.1015
87497W        W30591  12.515   0.023   1.335  0.1199 -0.1846 -0.3117
87498W        W30592  12.702   0.332   1.060 -0.0505 -0.2104 -0.1251
87499W        W30593  11.330   0.410   1.840 -0.4600 -0.1565  0.0423
87500W        W30594  13.873   2.916   1.787  0.0236 -0.1723 -0.0994
87501W        W30595  13.860   0.498   1.585  0.1841 -0.0083  0.0383
87502W        W30596  11.233   2.995   4.477 -0.3210  0.2121  0.0850
87503W        W30597  13.087   1.407   4.183  0.1121  0.0130 -0.0247
87504W        W30598  13.937   4.060   1.108  0.1590  0.2885  0.2142
87505W        W30599  13.062   2.225   3.662  0.2662 -0.1396 -0.2418
87506W        W30600  12.432   0.406  31.923  0.1397 -0.0367 -0.1388
87507W        W30601  12.565   1.178   2.089 -0.0165 -0.0166 -0.1232
87508W        W30602  12.863   2.312   0.392  0.1221  0.2012  0.2812
87509W        W30603  13.361   0.718   1.908 -0.0751  0.0758 -0.0143
87510W        W30604  10.655   3.013   1.746 -0.1643  0.1458 -0.1622
87511W        W30605  12.674   3.247  31.828 -0.2917 -0.4047  0.0763
87512W        W30606  11.994   1.488   3.651  0.1114 -0.2293 -0.2252
87513W        W30607  13.357   0.085   0.492  0.0134 -0.0058  0.2218
87514W        W30608  13.940   1.809  30.571  0.3009  0.0759 -0.3590
87515W        W30609  12.859   1.614   2.055  0.3805  0.4206  0.3144
87516W        W30610  14.950   0.057   2.917 -0.2251 -0.2002  0.3328
87517W        W30611  13.044   2.581  31.251  0.1009  0.0688 -0.0084
87518W        W30612  13.856   0.893   2.567  0.2785 -0.0042  0.1818
87519W        W30613  12.161   0.064   2.040 -0.1557  0.0262  0.1475
87520W        W30614  13.936   0.745   0.090  0.1067  0.3457 -0.0749
87521W        W30615  11.863  34.507   3.132  0.1180 -0.1122  0.0031
87522W        W30616  12.140   2.807   3.104  0.0776 -0.1045  0.0285
87523W        W30617  12.231   2.384   3.869  0.1070  0.0817  0.0813
87524W        W30618  13.050   0.822   1.080  0.0326  0.2846 -0.2420
87525W        W30619  12.102  34.539  30.857  0.0046 -0.1213 -0.0559
87526W        W30620  13.909   2.579   2.125  0.1143  0.1365  0.0039
87527W        W30621  14.245   2.322   1.750 -0.3107  0.2563  0.0685
87528W        W30622  11.006   3.429   1.145  0.1260 -0.1035  0.0654
87529W        W30623  13.542   0.802   1.381 -0.1480 -0.1892  0.1007
87530W        W30624  13.663   2.191   2.337  0.2417 -0.2631 -0.1758
87531W        W30625  13.491   0.341  31.557 -0.0308 -0.0902  0.2312
87532W        W30626  14.113   1.072  31.766  0.0236  0.0734 -0.0180
87533W        W30627  12.614   0.872   1.349 -0.1363 -0.1768 -0.0781
87534W        W30628  13.505  34.519   5.080 -0.2214  0.0286 -0.3254
87535W        W30629  13.724   1.553   0.839 -0.0560 -0.2159 -0.0905
87536W        W30630  12.957   2.798   1.414 -0.2148  0.1253 -0.0984
87537W        W30631  13.422   0.270   3.576  0.2124  0.2362 -0.0922
87538W        W30632  15.750   1.289   1.228 -0.0603 -0.1139  0.2561
87539W        W30633  11.699   1.076   3.541  0.1445 -0.1725  0.2446
87540W        W30634  10.352   0.527   1.849  0.2072  0.0633 -0.0350
87541W        W30635  13.213   3.842   3.179  0.0894  0.2477 -0.2443
87542W        W30636  13.283   1.333  31.862 -0.1417  0.0456 -0.0823
87543W        W30637  15.489   0.363   1.379  0.1124  0.1267  0.0862
87544W        W30638  14.548   1.235  31.817  0.1111 -0.1872  0.0407
87545W        W30639  12.792  33.980  31.971  0.2912 -0.0773 -0.3324
87546W        W30640  12.348   0.443   1.674  0.1508  0.3009  0.2675
87547W        W30641  13.506   2.548   3.548 -0.2547 -0.0080 -0.3659
87548W        W30642  13.342  34.044  31.902  0.3160 -0.0550 -0.0053
87549W        W30643  13.961  34.637   3.847  0.4572 -0.0734  0.2015
87550W        W30644  12.397   3.898   0.489  0.0725  0.2339  0.0495
87551W        W30645  14.078   1.983   0.938  0.1874 -0.1578  0.0807
87552W        W30646  13.267   1.636   0.944 -0.1363 -0.3262  0.0447
87553W        W30647  12.275  34.193   0.162 -0.1398 -0.0022 -0.0023
87554W        W30648  10.268   3.252   4.990 -0.1990  0.2232 -0.2431
87555W        W30649  12.339   1.329   0.715 -0.0342 -0.2096  0.1994
87556W        W30650  12.658   1.955  31.054  0.2804 -0.0849 -0.1061
87557W        W30651  12.587   2.128   3.502 -0.1956 -0.1544 -0.2227
87558W        W30652  14.753   1.524   3.335 -0.1510  0.1537  0.0864
87559W        W30653  12.461  33.621   0.005  0.1167 -0.3208 -0.2425
87560W        W30654  15.015   0.657   3.619 -0.0170  0.0126  0.1530
87561W        W30655  12.593   2.724   0.539 -0.1903  0.2334 -0.0924
87562W        W30656  13.733  34.187   1.290  0.1605  0.0867  0.0517
87563W        W30657  10.976   3.135   3.015  0.1432  0.3552 -0.2742
87564W        W30658  11.265   2.367   2.104 -0.0019 -0.0051 -0.1950
87565W        W30659  12.047   2.998   2.119  0.1980 -0.5133 -0.0033
87566W        W30660  13.388   1.113   3.671 -0.0685  0.2820  0.0002
87567W        W30661  13.340   0.967   0.210 -0.0124  0.2222  0.2429
87568W        W30662  13.446   1.022   2.320 -0.1869  0.0653  0.1642
87569W        W30663  15.254   1.138   2.537 -0.1218  0.1068  0.1937
87570W        W30664  12.709   3.218   4.330 -0.1682  0.0769 -0.3230
87571W        W30665  12.722   2.603   1.800  0.2261  0.0434 -0.2350
87572W        W30666  12.090   3.210   3.493 -0.0824 -0.1449  0.0298
87573W        W30667  14.154   2.340   0.586  0.1576  0.0010  0.1652
87574W        W30668  12.445   3.098   0.290  0.3799 -0.0892  0.1113
87575W        W30669  10.428   0.797   2.881  0.0492  0.1612 -0.1285
87576W        W30670  12.133   1.038   3.338 -0.1384 -0.0172  0.2412
87577W        W30671  12.483   2.991   0.935 -0.2660  0.0330 -0.3436
87578W        W30672  11.194  33.898  31.399 -0.2085 -0.0200  0.2893
87579W        W30673  13.319   2.599   0.116  0.0057  0.0651 -0.3577
87580W        W30674  11.146   2.425   5.054  0.0749  0.2716 -0.0909
87581W        W30675  12.255   2.673   1.665  0.2061  0.1018 -0.1061
87582W        W30676  12.649   3.474   1.031 -0.0422  0.0939  0.1803
87583W        W30677  13.751   3.159   0.059 -0.2220 -0.1303  0.0738
87584W        W30678  12.478   2.561   1.210 -0.1326 -0.0882  0.1524
87585W        W30679  12.436   3.083   1.440  0.1661  0.0091  0.1981
87586W        W30680  14.270   0.508  30.654  0.1388  0.0232  0.0961
87587W        W30681  11.252   4.551   2.549  0.1059 -0.3468 -0.0352
87588W        W30682  11.055   3.773  31.592  0.1123 -0.0506 -0.0471
87589W        W30683  14.504   3.232   2.432 -0.2068 -0.1987 -0.5027
87590W        W30684  12.992   4.159   1.470  0.1007  0.3270 -0.1668
87591W        W30685  13.958   3.562   3.859  0.2432  0.0887 -0.0961
87592W        W30686  13.801   0.292   0.492  0.0340 -0.2653  0.2700
87593W        W30687  14.170   1.497   1.177  0.2951  0.3341  0.1235
87594W        W30688  14.367   0.650   0.354  0.0892  0.1030 -0.1303
87595W        W30689  15.715   2.651   3.652 -0.4250 -0.0690  0.1221
87596W        W30690  13.176   1.579   3.734  0.0960 -0.2343  0.1361
87597W        W30691  12.771   0.755   1.850 -0.0717 -0.1139  0.1688
87598W        W30692  12.576   0.401   2.168 -0.0596  0.1274  0.0632
87599W        W30693  14.398   0.182   3.703 -0.1966 -0.1171 -0.1256
87600W        W30694  10.471   4.068   4.047  0.2035  0.0853 -0.1296
87601W        W30695  13.344   4.803   1.159  0.2315 -0.1067 -0.0298
87602W        W30696  12.065  33.865   0.445  0.0522  0.3651  0.1256
87603W        W30697  13.161   0.641  31.779  0.1330 -0.0017 -0.1162
87604W        W30698  14.738   0.709   2.700  0.1038  0.0237 -0.2192
87605W        W30699  13.069   3.257   0.247  0.2786  0.0023  0.1677
87606W        W30700  13.158   1.034   1.508 -0.0018 -0.1637  0.2370
87607W        W30701  13.379   2.903   1.660 -0.2255  0.1671 -0.2715
87608W        W30702  11.511   3.273   1.984 -0.0339 -0.0702  0.1470
87609W        W30703  11.870   2.081   1.982 -0.3182  0.3695 -0.3527
87610W        W30704  11.684   0.020  31.117 -0.0614 -0.0436 -0.0719
87611W        W30705  14.298   1.177   0.247  0.0522  0.2127 -0.1830
87612W        W30706  12.967   0.509   3.641  0.3765  0.1834 -0.2229
87613W        W30707  13.767  34.402   4.244  0.2354  0.0808 -0.0660
87614W        W30708  11.556   0.841   0.335  0.0349  0.0103  0.0807
87615W        W30709  14.593   0.811   0.768 -0.1813 -0.1485 -0.0637
87616W        W30710  12.567   1.564   4.527 -0.3747 -0.1897  0.2833
87617W        W30711  12.535   0.821   0.839  0.0367 -0.1584 -0.0247
87618W        W30712  12.002   1.571  30.376  0.1657 -0.0042 -0.3420
87619W        W30713  13.563   2.342   3.064  0.0107  0.2946  0.0463
87620W        W30714  12.917   2.054  31.436 -0.1552 -0.4032  0.1910
87621W        W30715  11.944   3.488   2.344 -0.0368 -0.3139 -0.1892
87622W        W30716  12.719  34.228   0.496  0.3158  0.2076 -0.0447
87623W        W30717  13.590   0.903  31.731  0.0098 -0.3428  0.3173
87624W        W30718  12.466   2.723   2.656 -0.1639  0.3942 -0.2508
87625W        W30719  12.050   0.685   2.871  0.0525 -0.0405 -0.0407
87626W        W30720  14.842   3.781   4.406 -0.0807  0.0039 -0.2864
87627W        W30721  12.030  33.706   2.155 -0.0726  0.3517  0.3471
87628W        W30722  13.385   3.675   0.278 -0.0958 -0.1633  0.1475
87629W        W30723  13.738   0.505   0.945 -0.0956 -0.2239 -0.0987
87630W        W30724  12.015   4.192   0.658  0.0015  0.2959 -0.0897
87631W        W30725  13.792   1.261   0.123  0.0490  0.2716  0.1824
87632W        W30726  13.272   2.535   2.637  0.0893  0.0686  0.4647
87633W        W30727  11.850   0.948   2.379  0.3031  0.0950  0.0888
87634W        W30728  11.969   2.877   2.598  0.2915 -0.0175  0.3449
87635W        W30729  15.423   1.487   2.205 -0.1614  0.2456  0.2825
87636W        W30730  13.542   0.403   0.070  0.0046  0.0845 -0.0050
87637W        W30731  11.954  34.122   2.770  0.1469 -0.1968 -0.0174
87638W        W30732  11.926   4.086   1.719  0.2158 -0.1372  0.1533
87639W        W30733  13.056   1.067  31.516 -0.0804 -0.3301  0.0563
87640W        W30734  13.401   2.588   2.054  0.1015  0.2959 -0.1346
87641W        W30735  12.829   1.530   0.329  0.2695 -0.0202  0.0853
87642W        W30736  15.373  33.389   3.080  0.3117  0.1695 -0.0571
87643W        W30737  12.274   2.267   2.923  0.1830 -0.2089 -0.1322
87644W        W30738  13.148   3.880   3.706  0.0056  0.2069 -0.1216
87645W        W30739  11.916   1.763  31.024 -0.2046 -0.4483  0.1158
87646W        W30740  12.601   2.560   3.130  0.0835 -0.2179 -0.0257
87647W        W30741  12.021   2.388   0.886  0.3452 -0.3504 -0.2653
87648W        W30742  13.159   3.261   1.253  0.2629 -0.0496  0.2210
87649W        W30743  14.364   2.805   1.979  0.2197  0.0204  0.2542
87650W        W30744  12.336   1.526   0.233 -0.2431  0.0845  0.3374
87651W        W30745  14.905   1.500   2.470 -0.0061  0.0715  0.0609
87652W        W30746  11.604   0.710   0.845  0.2909 -0.3032 -0.3687
87653W        W30747  15.185  33.718   0.614 -0.0247  0.1032  0.4358
87654W        W30748  12.874   0.363   1.534 -0.2358  0.3174 -0.0958
87655W        W30749  12.711   1.793   2.477  0.0657 -0.2324 -0.3463
87656W        W30750  11.359   1.640  31.201 -0.0465  0.0937  0.0674
87657W        W30751  11.494   2.953   1.305 -0.1699 -0.0421 -0.1525
87658W        W30752  13.062   2.369   3.172 -0.0061  0.2300  0.1943
87659W        W30753  13.246  34.379   2.784 -0.0662 -0.0932  0.0285
87660W        W30754  12.234   0.665   4.459  0.1877  0.0298  0.0207
87661W        W30755  11.777   2.423   1.304  0.3143  0.1166 -0.1136
87662W        W30756  12.274  33.822  31.331 -0.1806 -0.0160  0.1413
87663W        W30757  13.736   2.431   1.052  0.2514 -0.1780  0.1300
87664W        W30758  12.774  34.306   1.555 -0.0003 -0.3649 -0.0534
87665W        W30759  11.389  34.361   2.142 -0.0791 -0.0816 -0.0162
87666W        W30760  13.640   1.753  31.979 -0.0711  0.1124  0.0375
87667W        W30761  13.319   4.256   0.620 -0.1055  0.4269 -0.1197
87668W        W30762  13.538   1.326   1.289  0.1169  0.0945 -0.0212
87669W        W30763  13.332   2.762   4.478 -0.1112 -0.0171 -0.0247
87670W        W30764  11.475   3.306   0.895  0.0816 -0.0146 -0.2401
87671W        W30765  15.109   0.884   2.985  0.1078 -0.1626  0.1829
87672W        W30766  13.677   1.590   3.850 -0.2213  0.1347 -0.3335
87673W        W30767  11.515   0.006  31.748  0.0267 -0.1375  0.2340
87674W        W30768  12.611  34.678   1.808  0.0772  0.1515 -0.1553
87675W        W30769  14.073   3.576   1.192 -0.0421  0.0984 -0.0367
87676W        W30770  12.818   2.734   0.108 -0.1596  0.1550 -0.1252
87677W        W30771  12.357   3.186   2.512  0.1089 -0.2703  0.0753
87678W        W30772  11.270   2.964   3.495 -0.0429  0.0803  0.2356
87679W        W30773  11.583  33.598   1.799 -0.3548  0.0745 -0.0950
87680W        W30774  14.018   1.997   1.455  0.0286 -0.1308  0.1272
87681W        W30775  12.883   2.864   3.972  0.2671 -0.1010 -0.1360
87682W        W30776  14.735   3.624  31.268 -0.0428 -0.0628 -0.0622
87683W        W30777  15.664   1.068   2.144  0.1547 -0.0105  0.1058
87684W        W30778  13.728   1.460  31.580 -0.2087  0.1683  0.4221
87685W        W30779  12.823   0.494   2.729  0.0371  0.0329  0.1985
87686W        W30780  11.902   1.976   2.982 -0.2175 -0.1485 -0.1791
87687W        W30781  13.628   2.884   2.366  0.1152  0.0976 -0.1362
87688W        W30782  13.104   1.195   2.023  0.2045 -0.2940  0.3010
87689W        W30783  13.561   1.207   1.839 -0.1170 -0.0158  0.3468
87690W        W30784  14.266   2.799   1.468 -0.1601 -0.1134  0.0246
87691W        W30785  12.669   1.282   2.578 -0.3003 -0.1387  0.1892
87692W        W30786  11.890   1.631   1.053  0.1596  0.2519 -0.0623
87693W        W30787  13.028   0.044   3.770 -0.2471  0.0315 -0.1880
87694W        W30788  13.158   2.039   2.305  0.0981  0.0914  0.1443
87695W        W30789  14.598   2.053   4.787  0.1391 -0.0351  0.0936
87696W        W30790  14.453   0.694  31.853 -0.0475  0.1240 -0.0322
87697W        W30791  15.822   2.704   0.979  0.1049 -0.0069 -0.1282
87698W        W30792  13.923   4.895   3.198 -0.2008  0.0380  0.2004
87699W        W30793  14.202   3.393   5.960 -0.3231 -0.2530  0.0731
87700W        W30794  12.740   3.443   0.505  0.1152 -0.1968  0.3429
87701W        W30795  14.136   2.277   2.449  0.4307 -0.1064  0.0579
87702W        W30796  10.758  34.646   2.364  0.2801 -0.5368 -0.0201
87703W        W30797  12.063   2.887   0.628 -0.1088  0.2384  0.1042
87704W        W30798  12.801   2.314   2.755  0.0027 -0.2467  0.0854
87705W        W30799  14.572   2.406   2.143 -0.1420 -0.0270  0.1914
87706W        W30800  12.314   1.395   1.267  0.0298  0.2143 -0.0538
87707W        W30801  12.452   0.366   0.533  0.1547 -0.0939 -0.0565
87708W        W30802  10.516   3.486   3.818  0.1640 -0.0186 -0.0564
87709W        W30803  13.155   1.813   3.305 -0.3856 -0.4258 -0.0009
87710W        W30804  12.349   0.969   7.015  0.0181 -0.1563 -0.0097
87711W        W30805  12.118  34.634   4.475  0.0747 -0.0400 -0.2925
87712W        W30806  14.580   1.140   3.661 -0.3115 -0.1320 -0.4539
87713W        W30807  14.968   2.431   4.922  0.1572  0.0176 -0.0669
87714W        W30808  11.416  34.465   5.146  0.0130 -0.3860 -0.0393
87715W        W30809  12.693   2.170   4.498 -0.0562 -0.1245  0.1018
87716W        W30810  10.724  34.009   6.907  0.0409  0.1034 -0.0471
87717W        W30811  14.311   1.857   5.685  0.0687  0.2159  0.0533
87718W        W30812  13.874   3.018   6.215 -0.1012  0.0959 -0.2352
87719W        W30813  13.077   1.796   4.466  0.2190  0.3233 -0.0713
87720W        W30814  11.675   0.639   7.736  0.1186 -0.1051 -0.0455
87721W        W30815  11.716   2.589   6.546 -0.0810 -0.0620 -0.0232
87722W        W30816  12.589  33.803   4.718 -0.2061 -0.0296  0.1281
87723W        W30817  11.596  33.588   5.191  0.2155  0.0579  0.1653
87724W        W30818  12.792   1.397   5.761  0.0434 -0.1267 -0.2035
87725W        W30819  12.296   1.660   5.118  0.0392 -0.1825  0.3956
87726W        W30820  11.107  34.325   5.606  0.1036 -0.3907 -0.1428
87727W        W30821  12.056   0.003   3.512 -0.0014  0.4856  0.1325
87728W        W30822  13.292   3.137   6.107 -0.1278  0.0728  0.2278
87729W        W30823  12.454   0.350   7.939  0.2472  0.0510  0.1949
87730W        W30824  12.242   0.562   8.344 -0.1132 -0.0115 -0.1559
87731W        W30825  12.820   2.975   4.856 -0.1135  0.1161 -0.1660
87732W        W30826  12.738   1.764   4.042  0.0791 -0.1441 -0.0598
87733W        W30827  11.234  33.965   5.217 -0.0967  0.0208 -0.1370
87734W        W30828  13.127   1.560   4.997 -0.1268  0.4350  0.1643
87735W        W30829  12.506   1.062   6.073 -0.1493  0.2167 -0.4385
87736W        W30830  14.026   1.830   4.618 -0.0935 -0.1957  0.1369
87737W        W30831  11.876   2.005   5.725 -0.1784  0.2780  0.1439
87738W        W30832  13.880   2.670   4.374 -0.4687  0.0936  0.1926
87739W        W30833  12.692   0.697   6.350  0.2417  0.0261 -0.3802
87740W        W30834  12.142   1.926   4.297  0.0100 -0.0223 -0.1545
87741W        W30835  10.732   2.715   5.244 -0.0481  0.2379 -0.2405
87742W        W30836  11.598   1.654   5.425 -0.0766 -0.0176 -0.0796
87743W        W30837  13.194   2.618   5.293  0.0579 -0.0549 -0.0105
87744W        W30838  15.313   4.244   5.933 -0.0574  0.0940 -0.1968
87745W        W30839  11.988   3.460   6.887 -0.1301 -0.0715 -0.3361
87746W        W30840  12.031   2.426   3.405  0.0010  0.1234  0.0151
87747W        W30841  13.003   3.371   5.732 -0.0227  0.0421 -0.0153
87748W        W30842  11.887   3.934   7.487 -0.2323  0.0592 -0.1138
87749W        W30843  13.872   2.516   5.973  0.0056  0.2336  0.0504
87750W        W30844  14.120   2.893   5.736  0.1187 -0.3249  0.0009
87751W        W30845  13.379   1.972   4.855 -0.0381 -0.3555 -0.2663
87752W        W30846  13.107   2.331   6.058 -0.2749 -0.3500 -0.3226
87753W        W30847  12.595   1.724   6.294  0.2236  0.1256  0.2448
87754W        W30848  11.177   1.645   5.653 -0.0076  0.1186 -0.4380
87755W        W30849  13.839  34.663   6.773  0.0296  0.0480  0.1880
87756W        W30850  11.762   2.861   3.731  0.2585  0.1078  0.0206
87757W        W30851  14.208   1.718   3.109  0.0252 -0.2418 -0.2134
87758W        W30852  13.464   0.073   4.029  0.0116 -0.0044  0.0156
87759W        W30853  15.038   0.721   4.219  0.2557 -0.0541 -0.2270
87760W        W30854  13.784   0.985   4.650 -0.4026  0.0790  0.0901
87761W        W30855  12.108   1.533   4.636 -0.0336 -0.2377  0.3527
87762W        W30856  12.250  34.319   5.712  0.0142  0.2497  0.2989
87763W        W30857  14.922   3.166   5.966 -0.0453  0.0247 -0.0760
87764W        W30858  13.076   1.250   5.411 -0.1286  0.1402  0.0390
87765W        W30859  12.483   0.261   6.457  0.1158  0.0963 -0.0431
87766W        W30860  12.244   3.090   6.350  0.0642  0.0482  0.1424
87767W        W30861  12.145   0.606   6.633 -0.1594  0.0196 -0.5295
87768W        W30862  13.436   2.989   4.985 -0.3044  0.2811  0.0352
87769W        W30863  13.744   2.819   5.359 -0.0813  0.1325  0.0310
87770W        W30864  11.710   3.743   3.228 -0.1447 -0.2147  0.2138
87771W        W30865  10.986   0.041   5.894 -0.2302 -0.2705 -0.4430
87772W        W30866  10.941   2.189   7.501 -0.0228 -0.0309  0.1863
87773W        W30867  12.612   1.763   7.266  0.1636  0.1865 -0.2716
87774W        W30868  12.225  33.586   3.145 -0.1280 -0.0619 -0.1234
87775W        W30869  13.839   1.708   7.124 -0.0830 -0.1994 -0.2058
87776W        W30870  11.999   1.089   6.575  0.2730 -0.0176  0.0837
87777W        W30871  15.504   1.471   5.574 -0.1107 -0.1092 -0.0419
87778W        W30872  11.526   1.163   5.776  0.1192 -0.1321  0.1348
87779W        W30873  15.243   1.364   4.777  0.2995 -0.4175 -0.0794
87780W        W30874  13.037   3.256   5.262  0.1442  0.1882  0.0122
87781W        W30875  13.128   0.461   5.114 -0.3471 -0.0366 -0.0117
87782W        W30876  12.457  34.346   6.709  0.0416 -0.1000  0.0394
87783W        W30877  11.733   1.560   2.659 -0.1814  0.0733 -0.2056
87784W        W30878  12.194   0.227   3.992 -0.0043  0.1607  0.2306
87785W        W30879  14.504   2.298   6.849  0.0032  0.1227  0.0192
87786W        W30880  14.308   3.142   4.036  0.0165 -0.0798 -0.2426
87787W        W30881  11.333   2.124   5.754 -0.0370 -0.1021 -0.1144
87788W        W30882  12.926   0.182   7.422 -0.0161  0.0186 -0.1520
87789W        W30883  12.852   4.285   7.206 -0.0146  0.0089 -0.1684
87790W        W30884  11.136   1.995   5.267 -0.1822  0.0148  0.1320
87791W        W30885  10.360   0.892   6.947 -0.2537  0.1373  0.1708
87792W        W30886  13.445   2.059   5.799 -0.2438  0.0880  0.0517
87793W        W30887  11.418   0.415   7.287 -0.2559  0.0547 -0.0830
87794W        W30888  11.983   2.364   5.305 -0.3122 -0.2027 -0.2555
87795W        W30889  14.672   1.991   4.170 -0.1478  0.3959  0.1018
87796W        W30890  10.664   0.640   7.888 -0.0003  0.0088  0.3580
87797W        W30891  14.364  34.569   4.752 -0.2763  0.1026 -0.1416
87798W        W30892  12.123   2.365   5.881 -0.0844 -0.0648 -0.1636
87799W        W30893  13.449   3.734   4.653 -0.1998 -0.0295 -0.1465
87800W        W30894  15.500   1.723   4.463 -0.1594  0.0266  0.1709
87801W        W30895  12.743   3.586   3.291 -0.1974 -0.0561 -0.4068
87802W        W30896  10.271   1.770   6.332  0.0106  0.1726 -0.0124
87803W        W30897  11.666   0.461   3.827 -0.0621  0.0604  0.0018
87804W        W30898  12.117   1.428   8.139  0.1885 -0.0759  0.0660
87805W        W30899  12.038   0.075   6.712  0.0616 -0.1260  0.1039
87806W        W30900  14.291   1.872   6.915  0.0755 -0.2118  0.0215
87807W        W30901  11.707  33.827   3.307 -0.0493 -0.1969  0.0492
87808W        W30902  14.304   1.050   4.599 -0.2106  0.1446  0.0375
87809W        W30903  12.857   0.894   5.680 -0.1635  0.3721 -0.0830
87810W        W30904  11.065   1.574   5.068  0.1139  0.3456 -0.2413
87811W        W30905  13.036  34.172   6.806  0.1830 -0.3024  0.1457
87812W        W30906  12.425   2.778   5.960  0.0486 -0.2611  0.1405
87813W        W30907  15.674   3.824   7.106  0.1206 -0.0840 -0.2873
87814W        W30908  14.289   2.872   5.270  0.0730 -0.0012 -0.1420
87815W        W30909  12.548   0.502   6.905  0.2342 -0.1582 -0.0582
87816W        W30910  11.476  34.606   4.259 -0.1618 -0.0339  0.1918
87817W        W30911  10.934   2.916   4.822 -0.0282 -0.0719  0.1506
87818W        W30912  13.015   2.175   5.451 -0.2984  0.3556 -0.0316
87819W        W30913  14.348  33.511   4.659  0.0722 -0.2475 -0.0549
87820W        W30914  14.277   1.908   5.176  0.0574 -0.0236  0.1074
87821W        W30915  11.144   1.954   6.147 -0.1256 -0.0931  0.0593
87822W        W30916  12.719  34.389   7.254 -0.0935 -0.1051 -0.1014
87823W        W30917  13.180   1.863   6.351  0.2157 -0.1997 -0.0155
87824W        W30918  12.145   0.404   4.943  0.1235 -0.0256 -0.2034
87825W        W30919  11.647  34.004   2.423 -0.2626 -0.2387  0.2495
87826W        W30920  13.759   3.947   6.242  0.0820  0.2054  0.1776
87827W        W30921  12.751   1.869   4.893  0.1522 -0.0670 -0.0735
87828W        W30922  12.094   0.266   5.517  0.1785  0.1097  0.2166
87829W        W30923  12.941   2.832   5.822 -0.0003 -0.3078 -0.0891
87830W        W30924  14.076   0.606   4.967  0.3979  0.0819 -0.2434
87831W        W30925  11.604   2.122   7.649  0.3274  0.1389  0.0229
87832W        W30926  13.882   0.653   7.373 -0.1505  0.1559 -0.2816
87833W        W30927  11.845   0.751   4.765  0.0010  0.1505  0.0702
87834W        W30928  11.341   2.495   6.197 -0.0818 -0.0704 -0.3100
87835W        W30929  13.619   0.276   5.451  0.1722 -0.1551  0.1507
87836W        W30930  15.389   1.562   3.959 -0.1017  0.2327  0.2124
87837W        W30931  13.936   2.275   7.019 -0.2107  0.6696 -0.0687
87838W        W30932  14.222   2.244   4.385 -0.1159  0.0090 -0.0253
87839W        W30933  15.134   1.465   3.026 -0.2268  0.1149 -0.0129
87840W        W30934  13.032   0.273   4.176 -0.0759 -0.0177  0.2416
87841W        W30935  12.172   1.954   6.144 -0.1633 -0.3415 -0.1592
87842W        W30936  13.869   2.099   4.998  0.2415 -0.2714  0.1025
87843W        W30937  13.459   2.620   5.688 -0.2639 -0.1282  0.2344
87844W        W30938  13.939   0.076   5.036  0.1695  0.0869  0.3219
87845W        W30939  14.110   2.303   5.467 -0.0421 -0.0134  0.0770
87846W        W30940  12.260   0.683   5.795 -0.0949 -0.0647 -0.2645
87847W        W30941  14.215   2.914   6.598  0.2861  0.1870 -0.2176
87848W        W30942  12.580   2.679   5.369  0.0565  0.0211 -0.3268
87849W        W30943  13.033   0.256   6.273  0.0895  0.1859 -0.1459
87850W        W30944  12.897  34.509   4.329 -0.1808  0.0750 -0.0575
87851W        W30945  12.096  34.119   4.693  0.3313  0.0575  0.2539
87852W        W30946  10.908   3.440   4.118 -0.2534  0.1084  0.2644
87853W        W30947  13.519  34.215   6.992  0.3152 -0.2578 -0.1746
87854W        W30948  13.396   1.374   4.590 -0.2824  0.3338  0.0863
87855W        W30949  12.008   0.494   7.138  0.0946 -0.0434  0.1416
87856W        W30950  14.133   1.406   5.536  0.0247  0.1940  0.1822
87857W        W30951  14.638   0.883   3.268  0.0684 -0.1904 -0.4682
87858W        W30952  13.015   2.386   6.659  0.1269 -0.1260  0.1439
87859W        W30953  12.100   1.157   2.713  0.1252  0.3849 -0.0793
87860W        W30954  13.559  34.243   5.907  0.2625  0.1365 -0.0365
87861W        W30955  11.721   2.540   7.124 -0.2087 -0.0531  0.1229
87862W        W30956  11.142   2.249   6.579  0.0720 -0.0352 -0.1542
87863W        W30957  12.457   3.643   6.909  0.0273  0.0045  0.3681
87864W        W30958  14.813   1.177   4.410 -0.3182  0.4648  0.1023
87865W        W30959  12.905   0.039   7.932  0.1205 -0.2015  0.4335
87866W        W30960  14.095   0.398   4.032 -0.2416 -0.1028  0.0742
87867W        W30961  12.039   3.698   3.709 -0.0575  0.1312 -0.0422
87868W        W30962  12.226   1.471   4.091  0.0646 -0.1556 -0.3452
87869W        W30963  11.221  34.196   4.788  0.0011 -0.0302  0.0074
87870W        W30964  12.060   3.578   7.815  0.3029  0.2049  0.2561
87871W        W30965  11.657   2.501   3.064 -0.0875 -0.4171 -0.0718
87872W        W30966  14.752   2.536   6.169  0.2295 -0.1024 -0.1937
87873W        W30967  10.401   2.707   4.811  0.1566  0.0081  0.2069
87874W        W30968  13.767   0.520   6.528  0.2569 -0.4750  0.1301
87875W        W30969  12.336   3.687   4.175 -0.1332 -0.1730 -0.3112
87876W        W30970  11.903  34.249   4.245 -0.2435 -0.3170  0.2850
87877W        W30971  12.244   2.090   2.466  0.0694  0.0981 -0.1335
87878W        W30972  13.615   0.632   5.092  0.0900 -0.1844  0.3106
87879W        W30973  14.631   2.487   4.558 -0.1800  0.1394 -0.0329
87880W        W30974  11.855   0.033   7.210  0.0372  0.1091  0.1164
87881W        W30975  13.991   0.178   4.549 -0.0249  0.1632 -0.0715
87882W        W30976  10.903   2.711   6.412  0.0467  0.3941  0.0616
87883W        W30977  12.489   1.254   6.571 -0.0093  0.1246 -0.1870
87884W        W30978  14.001   0.351   3.497  0.0904 -0.2617 -0.2122
87885W        W30979  14.957   2.394   6.659 -0.1290  0.2084 -0.0173
87886W        W30980  13.195   2.800   7.928  0.1792 -0.4765 -0.1240
87887W        W30981  12.480   0.987   4.762 -0.3021 -0.1939  0.0763
87888W        W30982  14.806  34.621   6.148  0.0047 -0.0418 -0.0294
87889W        W30983  13.012   0.273   4.654  0.2995 -0.0181 -0.1745
87890W        W30984  11.685   1.214   4.799  0.3315  0.0688 -0.1089
87891W        W30985  12.869   1.895   5.917 -0.3866 -0.0379 -0.0996
87892W        W30986  11.757   1.797   4.010  0.3662  0.2795  0.1493
87893W        W30987  11.105   2.979   5.959 -0.0694  0.1216  0.2792
87894W        W30988  12.665   1.359   7.046 -0.2851  0.1483 -0.0275
87895W        W30989  13.563   2.195   6.302  0.0141  0.1074 -0.1964
87896W        W30990  11.597   0.182   4.843 -0.1547  0.2938 -0.0731
87897W        W30991  11.675  34.431   4.702  0.3870 -0.1573  0.3180
87898W        W30992  12.539   0.224   4.360 -0.0361  0.1849 -0.2865
87899W        W30993  12.988   1.274   6.259 -0.0021 -0.0160  0.1481
87900W        W30994  13.078   2.359   7.188  0.0776  0.1470  0.3074
87901W        W30995  13.178   3.008   7.475 -0.0497  0.0045  0.2348
87902W        W30996  12.093  33.855   5.460  0.2171 -0.3142  0.3016
87903W        W30997  13.453   2.618   4.026 -0.0259  0.0317  0.2255
87904W        W30998  13.098   0.725   6.089  0.1112 -0.2859 -0.1059
87905W        W30999  12.973   0.876   4.931 -0.1049  0.0464  0.0593
87906W        W31000  10.897  34.663   5.238 -0.1059 -0.0143 -0.2328
87907W        W31001  13.281   1.629   5.898  0.0561  0.2565 -0.2283
87908W        W31002  12.338   0.141   5.941  0.0586 -0.0277  0.0097
87909W        W31003  13.453   2.670   6.220 -0.4073 -0.2926  0.3689
87910W        W31004  11.683   1.512   4.417  0.0633  0.1492 -0.0230
87911W        W31005  12.520   0.846   5.213  0.0020 -0.0621 -0.2990
87912W        W31006  15.071   2.150   4.467 -0.2678 -0.1998 -0.2404
87913W        W31007  12.949   2.319   4.976 -0.3851 -0.0589 -0.0619
87914W        W31008  14.153   0.900   4.159  0.1276  0.2404  0.0928
87915W        W31009  13.697   0.050   8.077  0.5100  0.5692  0.3143
87916W        W31010  14.553   2.616   3.123  0.1896 -0.1237  0.0851
87917W        W31011  11.708  34.289   6.960  0.0613  0.2822  0.1777
87918W        W31012  11.620   0.023   6.454  0.0452 -0.0775  0.1221
87919W        W31013  14.718   2.029   5.505 -0.0635  0.0065 -0.0899
87920W        W31014  10.109   0.796   7.825 -0.0565 -0.1110 -0.0026
87921W        W31015  13.078   2.900   6.505 -0.2856  0.0574  0.0581
87922W        W31016  12.143   1.453   6.182  0.1615  0.1339 -0.1291
87923W        W31017  13.790   0.760   3.823  0.2393  0.0015  0.3597
87924W        W31018  11.400  34.565   2.767  0.1060  0.3011 -0.1412
87925W        W31019  10.742   0.510   6.159 -0.2119 -0.0428 -0.0914
87926W        W31020  15.012   2.402   5.770 -0.3787  0.1133 -0.0058
87927W        W31021  11.347   2.119   4.234  0.2200 -0.0562  0.1725
87928W        W31022  13.762   0.598   4.362 -0.3947  0.0560  0.0774
87929W        W31023  11.125   0.762   6.377 -0.0966  0.3571  0.2154
87930W        W31024  14.480   1.340   4.107 -0.1135  0.1477 -0.2040
87931W        W31025  13.918   2.526   3.821 -0.1199  0.1341 -0.1752
87932W        W31026  12.054   0.410   6.214 -0.0690  0.1544 -0.0156
87933W        W31027  13.114   1.029   8.497  0.2561 -0.2231  0.4531
87934W        W31028  13.706   3.413   5.900  0.3510 -0.1208  0.0541
87935W        W31029  13.337   1.713   5.427  0.1139  0.0894 -0.3352
87936W        W31030  11.769  34.288   5.555 -0.1922  0.2233  0.1961
87937W        W31031  13.344   0.911   6.557  0.1040  0.1181 -0.0969
87938W        W31032  12.001   2.166   6.667 -0.0141 -0.0615 -0.0142
87939W        W31033  11.121   0.264   6.653  0.1786 -0.0710 -0.2570
87940W        W31034  14.315   3.862   7.507  0.0313 -0.1497 -0.2040
87941W        W31035  15.628   2.040   4.101  0.1353  0.0240 -0.1239
87942W        W31036  13.348  34.620   6.772 -0.0971 -0.1012 -0.0835
87943W        W31037  15.708   2.232   5.362 -0.0725 -0.0222  0.0037
87944W        W31038  13.969   1.342   4.235  0.1557  0.2948 -0.2168
87945W        W31039  12.146   1.221   5.038  0.1013 -0.0231 -0.0303
87946W        W31040  13.638   1.798   6.672 -0.3085  0.3589  0.0156
87947W        W31041  12.495  34.469   3.300  0.0885  0.0998  0.1043
87948W        W31042  13.158  34.448   6.259 -0.3206 -0.0807  0.0133
87949W        W31043  11.794   2.169   4.556  0.0756  0.0555  0.0235
87950W        W31044  14.055   2.142   6.566 -0.1359 -0.1222 -0.2267
87951W        W31045  14.223   1.805   4.165  0.2060 -0.2737  0.0654
87952W        W31046  11.193  33.992   6.132 -0.2223  0.2812 -0.0965
87953W        W31047  11.962   3.329   7.387 -0.0241  0.0503  0.0830
87954W        W31048  12.393   0.729   2.534 -0.0969 -0.0329 -0.0798
87955W        W31049  14.334   2.190   3.846  0.1897 -0.2232  0.0660
87956W        W31050  12.696   3.277   7.751  0.2869  0.1637  0.0271
87957W        W31051  13.661   1.286   6.851 -0.0785  0.0403 -0.2081
87958W        W31052  13.441   0.215   2.944  0.0179 -0.2245  0.0763
87959W        W31053  13.146   1.491   6.723 -0.0429  0.0648  0.2195
87960W        W31054  10.828   1.301   4.591 -0.1116 -0.2388  0.2169
87961W        W31055  13.772  34.439   5.475 -0.2444  0.1239 -0.4227
87962W        W31056  12.363   4.051   6.118  0.0968  0.0864  0.0634
87963W        W31057  10.831   0.938   6.889  0.3045  0.2507 -0.0268
87964W        W31058  11.551   2.205   4.996 -0.3391 -0.0023 -0.0717
87965W        W31059  12.164  34.444   6.263 -0.4177 -0.0613  0.2882
87966W        W31060  12.667   1.333   5.110 -0.2231 -0.0570  0.1550
87967W        W31061  12.697   0.441   5.896 -0.2708  0.0656  0.2054
87968W        W31062  14.293   0.465   6.693 -0.0724  0.0218 -0.2116
87969W        W31063  13.457   2.686   7.058 -0.3632  0.1652 -0.0019
87970W        W31064  10.811  34.294   6.113  0.2784 -0.4326 -0.2039
87971W        W31065  12.477   1.767   6.797 -0.0238  0.0234  0.1863
87972W        W31066  13.361   0.841   5.510 -0.1764  0.0609  0.3594
87973W        W31067  11.360   2.647   4.117 -0.1459  0.1165 -0.1011
87974W        W31068  10.366   0.865   8.311 -0.0042  0.1857 -0.0921
87975W        W31069  13.973   2.042   7.471  0.0600 -0.1755  0.1242
87976W        W31070  12.303   2.453   4.384  0.0073  0.1656  0.0086
87977W        W31071  11.609   0.133   3.454 -0.2644 -0.2394 -0.0193
87978W        W31072  11.931   2.646   4.856 -0.1334 -0.2725 -0.3764
87979W        W31073  12.195   2.532   6.370 -0.1792 -0.2511  0.0422
87980W        W31074  11.306   0.753   6.955 -0.0494  0.0806  0.1670
87981W        W31075  11.313   3.864   4.927 -0.0267  0.0411  0.2428
87982W        W31076  12.529   3.502   5.257  0.0437 -0.1106  0.3243
87983W        W31077  12.860   0.671   4.466  0.1503 -0.2790  0.0719
87984W        W31078  12.952   1.920   6.950 -0.1355  0.4034  0.0402
87985W        W31079  13.239   0.676   4.017  0.0557  0.0216 -0.0456
87986W        W31080  11.762   1.235   4.013  0.1663 -0.3616 -0.2999
87987W        W31081  10.685   2.091   3.778 -0.3902  0.1455 -0.1493
87988W        W31082  12.990   2.830   3.373 -0.3143 -0.0775  0.0951
87989W        W31083  12.524   2.116   5.269  0.2059 -0.1357  0.0520
87990W        W31084  15.651   3.401   7.426  0.4284  0.1060 -0.1128
87991W        W31085  15.044   1.153   3.907  0.0336  0.0897  0.0791
87992W        W31086  15.194   1.116   5.248 -0.2150 -0.1893  0.0304
87993W        W31087  15.557   0.571   4.423 -0.2521  0.3092  0.0715
87994W        W31088  13.752   4.568   7.752  0.2101  0.2532  0.2207
87995W        W31089  11.322   0.513   4.603 -0.1452 -0.2350 -0.0328
87996W        W31090  12.930  34.232   3.645 -0.0499  0.1835 -0.0938
87997W        W31091  12.501   2.818   6.668  0.2995  0.0087  0.2737
87998W        W31092  13.468   0.389   9.010 -0.0668 -0.0554 -0.2884
87999W        W31093  11.731   2.620   7.901  0.3248  0.3640  0.0711
88000W        W31094  14.319   3.765   4.285 -0.3302  0.1117  0.1580
88001W        W31095  11.373   0.135   5.634 -0.0447 -0.0945 -0.1942
88002W        W31096  13.318   0.695   4.594  0.0280  0.0329 -0.2905
88003W        W31097  14.961  33.912   5.736 -0.3113 -0.0914  0.0900
88004W        W31098  12.592   0.602   3.985  0.0313  0.2004  0.1418
88005W        W31099  12.415  34.584   5.335  0.1777  0.4037  0.1909
88006W        W31100  12.168   3.193   5.013 -0.0035 -0.2788  0.1399
88007W        W31101  11.771   3.297   6.313 -0.0975 -0.0796 -0.0557
88008W        W31102  13.369   3.778   5.960 -0.0056  0.2039  0.1738
88009W        W31103  12.091  34.142   3.337  0.0916  0.2121 -0.2193
88010W        W31104  14.841   0.794   5.949 -0.0634  0.2745  0.1864
88011W        W31105  11.214   1.013   7.840 -0.2776 -0.1474 -0.0279
88012W        W31106  12.762  34.206   5.455 -0.0364 -0.1564  0.1140
88013W        W31107  11.849  34.690   5.900  0.0525  0.1441 -0.0191
88014W        W31108  14.984   1.630   4.388 -0.2556  0.3205 -0.0458
88015W        W31109  13.830   2.559   6.578  0.1192  0.0687 -0.0109
88016W        W31110  11.588   1.229   8.184 -0.1560 -0.0849  0.0852
88017W        W31111  14.044   1.243   3.764  0.1935  0.1922 -0.0455
88018W        W31112  15.729   3.417   5.991 -0.2415  0.0186 -0.3598
88019W        W31113  13.724   1.400   3.363  0.0987 -0.1680  0.4254
88020W        W31114  14.274   2.562   6.273 -0.1468 -0.1830  0.0966
88021W        W31115  10.564  34.620   5.637 -0.1539 -0.0161  0.0176
88022W        W31116  13.907  34.177   3.531  0.0998 -0.1118  0.1537
88023W        W31117  11.929   0.983   6.027 -0.2010 -0.3277  0.1621
88024W        W31118  11.757   1.370   7.723 -0.1687  0.1011  0.0013
88025W        W31119  14.026   4.273   5.916  0.0993 -0.1317 -0.3002
88026W        W31120  10.692   0.545   6.648 -0.0844 -0.3101  0.1208
88027W        W31121  15.032   1.856   4.859 -0.2962  0.1967  0.1816
88028W        W31122  13.819   1.855   5.513  0.2849  0.3696 -0.1521
88029W        W31123  12.711   4.181   4.018  0.1144  0.1800  0.0381
88030W        W31124  14.360   1.619   3.694  0.1569 -0.0290  0.0224
88031W        W31125  14.440   2.458   5.807 -0.1269  0.1058  0.1056
88032W        W31126  10.614   0.806   7.437  0.0744  0.3544 -0.1592
88033W        W31127  14.001   1.998   6.039  0.5058  0.2490 -0.0672
88034W        W31128  15.077   1.797   6.624  0.2376  0.2362  0.0159
88035W        W31129  14.020   0.644   5.479  0.0664  0.1276  0.0227
88036W        W31130  11.248   1.160   6.664 -0.0163 -0.0243  0.2850
88037W        W31131  11.410   4.794   5.408 -0.0100 -0.0427  0.1760
88038W        W31132  14.066   1.175   6.423 -0.0350  0.0580 -0.3921
88039W        W31133  12.814   0.117   6.787 -0.2248  0.0878 -0.0388
88040W        W31134  11.618   3.394   3.585  0.2065 -0.2705  0.0166
88041W        W31135  14.437  33.895   7.019  0.0720 -0.1128  0.4538
88042W        W31136  13.535   0.734   6.998  0.1144 -0.2092 -0.2056
88043W        W31137  11.833   4.004   6.981  0.1183  0.2542 -0.1857
88044W        W31138  11.955   1.436   5.682 -0.0644 -0.0646 -0.1834
88045W        W31139  12.407   1.731   5.738 -0.2539  0.1936  0.1942
88046W        W31140  12.482   2.537   4.809  0.1812  0.0219  0.0267
88047W        W31141  11.800   3.913   4.662  0.0586 -0.0667 -0.1766
88048W        W31142  14.510   3.023   6.153 -0.4760 -0.2150 -0.0292
88049W        W31143  13.522   2.245   5.324  0.1297 -0.1623 -0.2688
88050W        W31144  14.591   1.796   6.542  0.1803 -0.3055  0.3462
88051W        W31145  12.812  34.164   5.953 -0.2839 -0.1173 -0.0169
88052W        W31146  14.780   0.131   4.838 -0.2934  0.1472  0.0437
88053W        W31147  12.970   1.123   3.276 -0.2184 -0.2223  0.0280
88054W        W31148  11.601   1.758   6.067  0.1631 -0.1683 -0.1289
88055W        W31149  12.201   0.485   3.550  0.1414  0.3965  0.1811
88056W        W31150  12.388   1.167   3.689 -0.2582 -0.2429  0.2501
88057W        W31151  12.931   1.204   4.610 -0.1438  0.3419 -0.1178
88058W        W31152  11.675  33.579   7.914  0.1253 -0.1941 -0.0951
88059W        W31153  11.219   1.201   8.502 -0.4769  0.0997 -0.2629
88060W        W31154  11.462   0.738   5.100  0.1065 -0.2817 -0.1018
88061W        W31155  11.731  34.560   3.843  0.2040 -0.0928 -0.2417
88062W        W31156  14.485   1.658   4.518 -0.0157  0.0969 -0.5047
88063W        W31157  11.345  34.590   6.842 -0.1411 -0.0236  0.1331
88064W        W31158  10.693  33.364   5.732  0.1778 -0.0307 -0.3671
88065W        W31159  12.088   2.823   5.586  0.1904 -0.0232 -0.0782
88066W        W31160  13.408   1.107   4.987  0.1469 -0.0052  0.2822
88067W        W31161  12.665   0.353   3.219  0.0009  0.1459 -0.8146
88068W        W31162  15.296   3.777   6.253  0.1465  0.0408 -0.1287
88069W        W31163  11.281   1.101   3.914  0.0263  0.3328  0.2029
88070W        W31164  12.921   0.648   7.729 -0.0053 -0.0102 -0.0392
88071W        W31165  12.603   1.127   8.257 -0.0126 -0.3123 -0.0529
88072W        W31166  11.252   0.388   3.173 -0.2110  0.1047 -0.2471
88073W        W31167  11.712   0.496   5.812  0.5310 -0.2144 -0.2023
88074W        W31168  12.294   1.990   4.759 -0.0475 -0.0429  0.0449
88075W        W31169  13.936   4.140   4.454 -0.2452  0.2113 -0.4062
88076W        W31170  12.613   2.366   5.744  0.0706  0.0796  0.0057
88077W        W31171  12.819   3.341   7.193 -0.3335  0.4074 -0.1280
88078W        W31172  11.625  33.713   6.873  0.0479 -0.1448  0.0022
88079W        W31173  13.626   1.752   4.323  0.1065  0.1619 -0.0936
88080W        W31174  12.845   0.918   6.797 -0.0179  0.0398 -0.0422
88081W        W31175  15.077   2.812   4.573 -0.2508  0.1257 -0.2260
88082W        W31176  14.070   0.377   6.020 -0.0258  0.0262 -0.2865
88083W        W31177  14.598   0.535   4.061 -0.3842 -0.1425  0.2504
88084W        W31178  12.053   0.210   7.611  0.2017  0.0248  0.0150
88085W        W31179  11.528   1.348   7.068 -0.0115  0.2001 -0.2383
88086W        W31180  13.920   2.807   6.989 -0.0894  0.0843  0.2403
88087W        W31181  11.415  34.135   4.338 -0.0977  0.0023  0.0814
88088W        W31182  14.409   0.452   4.517  0.0355 -0.1603 -0.2089
88089W        W31183  14.346   2.617   4.103  0.1881 -0.4374 -0.0469
88090W        W31184  11.812   0.885   6.948 -0.1185  0.1736 -0.0826
88091W        W31185  12.787   1.734   5.394  0.2604 -0.0055 -0.1837
88092W        W31186  11.623   0.334   6.845  0.1448 -0.0176 -0.2704
88093W        W31187  14.498   2.393   5.181  0.0078 -0.0053  0.0495
88094W        W31188  14.408   2.104   7.310  0.2714 -0.0028  0.2475
88095W        W31189  12.594  34.537   3.878 -0.3187  0.1038 -0.1810
88096W        W31190  14.729   1.243   2.894 -0.1428 -0.1586 -0.2907
88097W        W31191  13.549   3.437   6.402 -0.1550  0.0148  0.0018
88098W        W31192  15.500   2.878   7.234 -0.0263  0.2798  0.2511
88099W        W31193  14.336   3.875   6.207 -0.1191 -0.0682  0.1436
88100W        W31194  13.835   1.554   5.931  0.2275  0.0631 -0.0371
88101W        W31195  12.039  33.212   6.195 -0.3474 -0.1147  0.1682
88102W        W31196  14.092   2.532   4.845  0.3640  0.3510  0.2386
88103W        W31197  12.519   1.016   4.256 -0.1952  0.0336 -0.2116
88104W        W31198  12.645   0.331   5.407  0.0409 -0.1686 -0.2172
88105W        W31199  11.968  34.579   5.063  0.0349 -0.3400  0.2146
88106W        W31200  13.872  34.335   4.774 -0.0392 -0.2598  0.2179
88107W        W31201  11.576   3.243   5.861  0.0047 -0.0204 -0.0800
88108W        W31202  13.473   2.260   6.770 -0.1544  0.1655 -0.0328
88109W        W31203  10.029   2.684  10.135 -0.1537 -0.1107  0.2073
88110W        W31204  11.976   0.543   8.762  0.3432  0.0651  0.1136
88111W        W31205  13.457   0.220   7.169  0.1771  0.2475 -0.0456
88112W        W31206  14.841   1.950   7.567 -0.0467 -0.0151  0.0774
88113W        W31207  11.157   0.427   9.320  0.4118 -0.0583  0.1446
88114W        W31208  14.236   3.077   8.084  0.1744  0.1292 -0.2052
88115W        W31209  13.915   3.085   9.307  0.1245  0.3029  0.1659
88116W        W31210  16.109   1.478   9.128 -0.1025  0.0152  0.1483
88117W        W31211  12.655   0.968   7.388 -0.0924  0.2227 -0.2201
88118W        W31212  11.918   0.994  11.147  0.2398 -0.0873  0.0965
88119W        W31213  12.391   0.049   8.503  0.1549 -0.1783  0.0369
88120W        W31214  10.642   0.640   9.489  0.1107 -0.0321  0.2399
88121W        W31215  12.583   1.739   9.180 -0.2986 -0.0498  0.0030
88122W        W31216  12.102   1.871   8.879 -0.0215  0.3897  0.0160
88123W        W31217  12.222   0.498   9.829 -0.2304 -0.0673  0.0199
88124W        W31218  12.540   1.141   9.203 -0.2268  0.0569 -0.1451
88125W        W31219  14.420   4.102   7.971  0.0055 -0.0917 -0.0816
88126W        W31220  12.449   0.948   9.974 -0.2277  0.1569  0.2302
88127W        W31221  13.787   2.874   7.832 -0.0783  0.3524 -0.0673
88128W        W31222  11.534   0.150   8.532 -0.1908  0.2202 -0.5436
88129W        W31223  12.431   2.422   8.397  0.2253  0.2087 -0.0432
88130W        W31224  13.151   1.862  10.078 -0.0835 -0.1854  0.1240
88131W        W31225  14.964  34.390   9.876  0.1550  0.1959  0.0099
88132W        W31226  14.107   2.352   8.332  0.0247 -0.0235 -0.0550
88133W        W31227  12.270   2.670   9.381  0.1897  0.3635  0.3027
88134W        W31228  13.417   3.014   8.315  0.1602 -0.1683 -0.1237
88135W        W31229  10.967   1.394   7.583  0.0368  0.0966  0.0631
88136W        W31230  10.925   1.520   9.994 -0.2701 -0.1079  0.0690
88137W        W31231  13.942   4.150   6.683  0.0343 -0.0348 -0.1753
88138W        W31232  15.038   1.718   8.091  0.0511 -0.0151 -0.4120
88139W        W31233  12.178   3.748   8.315 -0.1501  0.0885 -0.2277
88140W        W31234  12.835   1.314   9.721 -0.3579 -0.2938 -0.0055
88141W        W31235  15.250   1.693   9.156  0.1787 -0.0452 -0.0182
88142W        W31236  12.988   3.739   7.635 -0.0661  0.0980 -0.0177
88143W        W31237  13.244   2.261   7.891 -0.0696 -0.3817  0.1048
88144W        W31238  11.698   1.836   9.154  0.2313 -0.4354  0.0002
88145W        W31239  11.412   2.195   7.083  0.0923  0.0204 -0.0281
88146W        W31240  14.153   0.096   8.411  0.0144 -0.2365 -0.1109
88147W        W31241  13.219  34.455   7.290 -0.0927  0.1015  0.2282
88148W        W31242  13.672   0.501   7.837  0.0983  0.0538 -0.0755
88149W        W31243  11.269   1.843  10.348  0.4749  0.1071  0.2188
88150W        W31244  12.102   2.887   8.440 -0.1954 -0.2782 -0.0083
88151W        W31245  11.522   0.420   8.979  0.1235 -0.2826 -0.0137
88152W        W31246  12.149   1.998   7.140  0.4611 -0.3699 -0.0666
88153W        W31247  12.010   1.436   9.961  0.3584  0.0640 -0.1344
88154W        W31248  10.897   2.667  10.722  0.2250 -0.1416  0.1598
88155W        W31249  10.333   1.511   9.149  0.1392  0.0683  0.0718
88156W        W31250  15.211   3.690   6.866  0.1128 -0.1432 -0.0993
88157W        W31251  14.205   4.889   7.771 -0.4303 -0.0565 -0.2686
88158W        W31252  13.508   3.580   7.462  0.1437  0.0122 -0.2183
88159W        W31253  10.323   0.320   7.976  0.3384  0.0409  0.0821
88160W        W31254  12.156  34.339   8.874  0.2507  0.0497 -0.0148
88161W        W31255  14.794   0.154   9.097  0.0645 -0.1454  0.1203
88162W        W31256  14.800   1.817   8.503  0.2514  0.2653 -0.0996
88163W        W31257  13.988   1.946   9.057 -0.2774 -0.1576  0.1124
88164W        W31258  13.561   3.027   6.687  0.0362 -0.2416 -0.2636
88165W        W31259  16.432   0.928   9.330  0.1223 -0.0192  0.2608
88166W        W31260  12.954   0.185   8.956  0.0801  0.2121 -0.0528
88167W        W31261  11.535   1.934   6.555 -0.0073  0.3613  0.1903
88168W        W31262  12.020   2.368   7.551 -0.4180 -0.0710 -0.1894
88169W        W31263  13.628   2.461  10.160  0.2846 -0.0905  0.0369
88170W        W31264  14.871   0.401   6.919 -0.0502 -0.2992  0.0405
88171W        W31265  12.566   6.443   9.496 -0.2195  0.0790  0.0269
88172W        W31266  11.645   4.897   6.767  0.0200  0.2082  0.0974
88173W        W31267  10.588   1.898   9.233 -0.1005  0.0579 -0.0304
88174W        W31268  12.542   3.746   7.950  0.0602 -0.1413  0.2163
88175W        W31269  10.704   1.043   9.914 -0.2631  0.1288 -0.2663
88176W        W31270  12.710   4.508  10.199 -0.2556  0.1571 -0.3825
88177W        W31271  13.939   1.057   9.207 -0.2234  0.0044  0.0512
88178W        W31272  15.327   1.551   8.670 -0.1217  0.0214 -0.0370
88179W        W31273  12.406   3.574   7.448 -0.0051  0.0678 -0.1769
88180W        W31274  14.926   2.947   8.274  0.2511  0.2216 -0.3652
88181W        W31275  14.480   0.208   7.269 -0.0716 -0.3328  0.4546
88182W        W31276  13.932   4.067   7.245  0.2211 -0.2209  0.4312
88183W        W31277  10.193   0.054   9.973  0.1442  0.2948  0.0791
88184W        W31278  12.143   1.016   8.528 -0.0020 -0.0790  0.2236
88185W        W31279  11.070   0.737   9.860  0.1214 -0.1615  0.1121
88186W        W31280  10.262  33.772   8.091  0.2517 -0.1987  0.0248
88187W        W31281  14.906   1.523   9.523 -0.0682 -0.1343 -0.0049
88188W        W31282  12.779   1.395   8.830  0.0223  0.0847  0.1878
88189W        W31283  11.576   2.008   8.686 -0.1739  0.1298  0.1508
88190W        W31284  14.264   3.282   8.601  0.1021  0.0950  0.3229
88191W        W31285  14.031   2.118   9.506 -0.1421 -0.1694  0.1310
88192W        W31286  13.989   3.294   9.837 -0.1284  0.2176 -0.1450
88193W        W31287  11.719   0.599  10.835 -0.1000 -0.1288  0.1669
88194W        W31288  12.441   0.549   7.402 -0.3794 -0.0426  0.0536
88195W        W31289  11.704   2.785   8.853 -0.0337  0.2790  0.2638
88196W        W31290  12.150   2.966   9.023  0.0598  0.1795 -0.1003
88197W        W31291  11.461  34.364   7.402 -0.1465 -0.2912 -0.2542
88198W        W31292  15.047   2.067   8.881 -0.2290 -0.2037 -0.1391
88199W        W31293  10.947   2.099  10.828 -0.2471  0.2877  0.1490
88200W        W31294  15.617   0.176   8.272 -0.0839  0.0599 -0.2712
88201W        W31295  13.459   1.816   9.251  0.1399  0.2108  0.0914
88202W        W31296  10.815  34.270   7.306  0.1431 -0.4051  0.0335
88203W        W31297  14.100   3.015   7.522  0.0936 -0.3268  0.0191
88204W        W31298  12.017   1.877   8.411 -0.1313  0.0156 -0.0891
88205W        W31299  11.151   1.269  10.388  0.2981 -0.1221 -0.0493
88206W        W31300  11.558   2.171   9.523 -0.1558 -0.0701 -0.0942
88207W        W31301  14.417   0.830   9.078  0.0994 -0.3119  0.0505
88208W        W31302  11.523   0.711   8.209 -0.2222 -0.1179 -0.0333
88209W        W31303  13.843  34.293   8.316  0.2184  0.0259 -0.0131
88210W        W31304  15.251  34.654   7.881  0.3034  0.0751 -0.0073
88211W        W31305  15.194   2.535   7.995  0.2509 -0.1656 -0.3850
88212W        W31306  13.374   1.123   5.912 -0.0759  0.2688 -0.2125
88213W        W31307  13.792  34.499   7.265 -0.1228  0.2914  0.0285
88214W        W31308  13.100   1.695   7.945 -0.2268  0.2109 -0.0459
88215W        W31309  14.379   1.598   8.649  0.0850 -0.0223 -0.2059
88216W        W31310  13.946   0.316   7.033 -0.0515 -0.2324  0.3371
88217W        W31311  13.733   2.363   7.931 -0.0960  0.2745  0.2017
88218W        W31312   9.407   2.163  10.751  0.1557 -0.2729  0.3763
88219W        W31313  14.769   3.396   9.471  0.0141 -0.0931  0.2366
88220W        W31314  11.362  34.045   9.778 -0.0992  0.2084 -0.1026
88221W        W31315  13.202   0.433   6.729  0.2548  0.0562  0.2762
88222W        W31316  12.832   0.205   8.455 -0.0207  0.4555 -0.1475
88223W        W31317  10.728   4.932   7.858 -0.0695  0.1194  0.3748
88224W        W31318  15.535  33.463   9.494 -0.0964 -0.2570 -0.3609
88225W        W31319  13.524   0.105   9.676  0.1081 -0.1522 -0.3538
88226W        W31320  13.455   1.177   9.267 -0.2049  0.0155 -0.1341
88227W        W31321  13.194  32.632  11.503 -0.0025  0.2467 -0.0749
88228W        W31322  11.613   1.275   6.279 -0.2235 -0.0501  0.3031
88229W        W31323  13.562  33.369   9.661  0.1913 -0.2409  0.1648
88230W        W31324  11.194   2.351  10.459 -0.0287  0.2907 -0.5021
88231W        W31325  13.539   2.190   8.885  0.0752 -0.0313 -0.3277
88232W        W31326  12.504   0.856   7.846 -0.2329  0.3061 -0.5065
88233W        W31327  12.168   4.048   7.975  0.1822 -0.3495 -0.1960
88234W        W31328  12.967   3.162   8.839 -0.1161 -0.1492  0.2078
88235W        W31329  12.434   0.062  10.029  0.1809 -0.1376  0.0062
88236W        W31330  12.292   1.476   8.613  0.0487 -0.1945 -0.1212
88237W        W31331  11.869   2.826   7.532  0.0765 -0.0739  0.0352
88238W        W31332  13.503   2.304   8.379  0.0772 -0.1316 -0.0005
88239W        W31333  11.968   1.649   6.630  0.1621 -0.1161  0.1192
88240W        W31334  12.197  32.952   9.045 -0.3536  0.0265 -0.2432
88241W        W31335  11.248   3.225   8.743 -0.0232 -0.0493  0.1681
88242W        W31336  12.118   1.749   7.596 -0.4198 -0.3635 -0.1767
88243W        W31337  10.971  34.152   8.142  0.0270  0.0789  0.1560
88244W        W31338  13.337   1.547   8.855 -0.1557 -0.1909  0.1399
88245W        W31339  12.985   1.465   7.493 -0.1471 -0.2110 -0.1888
88246W        W31340  12.023   0.262  11.006 -0.2178 -0.2111  0.1280
88247W        W31341  13.685   0.324  10.121 -0.3271 -0.0678  0.2235
88248W        W31342  13.822   3.913   9.708 -0.1430  0.1644  0.1017
88249W        W31343  13.955   0.155   7.627  0.0958 -0.2327  0.0506
88250W        W31344  11.863  34.449   7.745 -0.2558  0.4058  0.1729
88251W        W31345  15.209  34.570   9.429 -0.1999 -0.1976 -0.1116
88252W        W31346  11.578   1.280   9.076 -0.2290 -0.2228  0.1220
88253W        W31347  10.657   1.365   9.534 -0.0133 -0.0494  0.1470
88254W        W31348  13.003   2.061   8.372 -0.0091 -0.2594 -0.0498
88255W        W31349  11.765   1.777   7.984  0.0729  0.1724  0.2286
88256W        W31350  12.221   2.179   8.060  0.3578 -0.1355 -0.0568
88257W        W31351  14.964  33.560   9.403  0.0381  0.2094 -0.1781
88258W        W31352  11.843   2.004  10.042  0.0450  0.1971 -0.2492
88259W        W31353  13.031   1.439   9.306  0.0008 -0.0478  0.4248
88260W        W31354  13.959   1.913   8.591 -0.0065  0.1399 -0.0041
88261W        W31355  13.698  34.526  10.115 -0.1659 -0.0971 -0.2077
88262W        W31356  11.967  33.709   9.649  0.0194  0.0588  0.2233
88263W        W31357  14.846   2.793   8.807  0.3018 -0.4570  0.1679
88264W        W31358  11.181   1.825   7.318  0.2774 -0.2345 -0.0814
88265W        W31359  10.300   1.375   9.957  0.3695 -0.0062 -0.0673
88266W        W31360  11.722   3.167   7.968  0.2963 -0.1210  0.1255
88267W        W31361  12.696   0.473   9.645  0.0746  0.1604 -0.1225
88268W        W31362  11.036   2.071   9.932  0.3149 -0.0818  0.1160
88269W        W31363  12.544   2.991   8.684 -0.2375 -0.0279 -0.1741
88270W        W31364  12.169   2.132   9.253 -0.2014  0.2112 -0.1573
88271W        W31365  13.028   0.960   9.443  0.2682 -0.1815 -0.1126
88272W        W31366  13.880   4.017   7.773  0.1878  0.1487 -0.0398
88273W        W31367  14.007   0.226   9.646 -0.0737  0.0385  0.0727
88274W        W31368  13.549   1.813   7.708  0.1302  0.1373  0.2585
88275W        W31369  11.059   1.948   9.439  0.2446 -0.1841  0.1491
88276W        W31370  14.508   1.211   9.599  0.2750  0.2511 -0.0388
88277W        W31371  13.239  34.244   8.460 -0.3610  0.0266  0.2627
88278W        W31372  11.583  34.150   6.502  0.1410  0.2283 -0.0790
88279W        W31373  11.493   2.723  10.240  0.4538 -0.1207 -0.3308
88280W        W31374  13.453   4.215   9.455 -0.1213  0.1956  0.2328
88281W        W31375  13.429   3.834   7.967  0.1471  0.0238  0.2423
88282W        W31376  15.505   0.698   9.254  0.1777  0.0470  0.4298
88283W        W31377  12.832   2.434   8.833  0.1085  0.1286 -0.2345
88284W        W31378  13.095   0.581   9.892 -0.0574 -0.1431  0.0031
88285W        W31379  14.772   1.266   8.690  0.0127  0.1687  0.0688
88286W        W31380  11.617   0.972   8.636  0.2988  0.2088  0.4886
88287W        W31381  14.725   2.377   8.445 -0.0141 -0.2747  0.1998
88288W        W31382  13.466  33.946   9.780  0.1809 -0.1367 -0.3073
88289W        W31383  12.362   5.976   9.756  0.0339  0.0274 -0.2485
88290W        W31384  14.010   0.820   6.845 -0.1033  0.0689 -0.1477
88291W        W31385  13.249  32.903  11.064 -0.1418  0.1766  0.2951
88292W        W31386  14.612   1.446   8.267  0.1152  0.0018 -0.0531
88293W        W31387  14.385   1.948   8.235  0.0830 -0.0240  0.1175
88294W        W31388  10.836   1.459   9.074  0.1843  0.2864  0.4076
88295W        W31389  11.110   0.573   7.646 -0.2012 -0.1783 -0.0307
88296W        W31390  12.584   2.258   7.364  0.0870 -0.0196 -0.3539
88297W        W31391  13.813   1.912   8.092 -0.2366  0.0351 -0.0666
88298W        W31392  13.194   0.411   8.060 -0.0131 -0.0809 -0.1578
88299W        W31393   9.920   1.767   9.968 -0.4243  0.0377  0.0831
88300W        W31394  11.481   0.169   7.684 -0.0792  0.2200  0.1133
88301W        W31395  12.365   1.319   7.641 -0.3188 -0.1262 -0.1551
88302W        W31396  12.975   2.672   8.441  0.1013  0.2628 -0.2829
88303W        W31397  11.989   0.930   8.059 -0.0254 -0.1138 -0.2368
88304W        W31398  11.589   2.716   9.785 -0.1395 -0.3909  0.1493
88305W        W31399  13.669   0.539   8.375 -0.3734 -0.1812  0.0805
88306W        W31400  11.335   1.172   9.848 -0.1517 -0.1950 -0.1219
88307W        W31401  13.492   1.761   8.467  0.0051 -0.0123  0.1009
88308W        W31402  13.967  33.901  10.067 -0.0046  0.0259  0.2302
88309W        W31403  14.895   0.870   9.614  0.2489 -0.1695  0.4215
88310W        W31404  12.592   2.726   9.785  0.1649 -0.0875  0.0496
88311W        W31405  11.669   2.198  10.523 -0.0048  0.4983 -0.2085
88312W        W31406  14.720   1.640   9.048  0.1273 -0.0281  0.1034
88313W        W31407  10.725   2.295  10.258 -0.0663  0.0445 -0.0727
88314W        W31408  13.080   2.818   9.629  0.3820 -0.0970  0.0790
88315W        W31409  12.683   0.498  10.259 -0.3633 -0.0869  0.0563
88316W        W31410  12.577   2.353   6.902  0.0991  0.1693 -0.0429
88317W        W31411  13.508   1.997   9.767  0.0842 -0.0261  0.5250
88318W        W31412  13.286   4.331   8.400 -0.0951 -0.1687 -0.0504
88319W        W31413  13.489   2.537   7.532 -0.3157 -0.1611 -0.1275
88320W        W31414  13.515   2.091   7.230 -0.0751 -0.1732 -0.2934
88321W        W31415  13.823   2.967   8.803 -0.0990  0.0847 -0.0925
88322W        W31416  13.050   1.982   7.481  0.2186 -0.1122 -0.0725
88323W        W31417  10.870   3.155  10.818 -0.0888  0.2500 -0.0024
88324W        W31418  11.707   3.776   8.142 -0.2041  0.0390 -0.0808
88325W        W31419  13.765   3.378   8.417 -0.1937  0.0546  0.1250
88326W        W31420  11.853   4.167   8.328 -0.3783 -0.0218 -0.0497
88327W        W31421  13.425   0.126   7.631 -0.0663  0.0841 -0.0978
88328W        W31422  13.996   1.764   9.866 -0.1418 -0.2605  0.1343
88329W        W31423  12.942   0.626   7.178 -0.1402 -0.1731 -0.1851
88330W        W31424  14.578  33.679   9.760  0.1496  0.2722 -0.2092
88331W        W31425  12.217  34.345   7.377  0.0561 -0.0952  0.3400
88332W        W31426  14.905   3.360   8.551 -0.1674  0.2302 -0.1413
88333W        W31427  11.079   0.035   7.373  0.0892  0.1270  0.1227
88334W        W31428  13.006   1.967   8.954 -0.0313  0.0339 -0.0804
88335W        W31429  13.586  34.048   8.794 -0.2351  0.2909  0.0000
88336W        W31430  13.348   1.609   7.206 -0.2084 -0.0500 -0.0670
88337W        W31431  14.395   1.764   9.504 -0.3724  0.1175 -0.2416
88338W        W31432  12.304   2.508   8.874  0.1344  0.0764  0.0838
88339W        W31433  13.274   2.847  10.111 -0.1689  0.0779 -0.0199
88340W        W31434  12.039   2.354   9.693 -0.1089  0.1973 -0.5399
88341W        W31435  11.712  33.947   8.571 -0.3995  0.0012 -0.1208
88342W        W31436  14.296   1.339   9.076 -0.0262  0.2078 -0.0133
88343W        W31437  11.935   1.784   9.598 -0.1067 -0.2046  0.1048
88344W        W31438  11.932   0.933   9.127 -0.1702 -0.0125 -0.0220
88345W        W31439  13.420   2.692   8.702 -0.0289  0.0735 -0.2438
88346W        W31440  12.740   2.820   9.275 -0.0665 -0.0966 -0.0800
88347W        W31441  11.898   0.118   9.729  0.0773 -0.2423  0.1004
88348W        W31442  13.112   1.185   7.116 -0.0259  0.0649 -0.4621
88349W        W31443  13.814   1.034   8.360 -0.1398  0.0584  0.2858
88350W        W31444  12.034   0.428  11.483 -0.3030 -0.0423  0.1836
88351W        W31445  13.369   0.878   8.087  0.2411 -0.0685 -0.1822
88352W        W31446  11.865   2.323   8.890  0.0034  0.1138  0.1497
88353W        W31447  14.891   0.683   9.145 -0.3014 -0.1770 -0.1793
88354W        W31448  11.872   0.276   8.186 -0.1262 -0.0558 -0.0421
88355W        W31449  15.814   1.963   9.100  0.1882 -0.2908  0.0672
88356W        W31450  15.047   0.245  10.068  0.2041 -0.1928  0.2685
88357W        W31451  12.766   3.542   8.551 -0.1815 -0.0891 -0.3439
88358W        W31452  15.807   1.920   8.597  0.4060 -0.3089  0.0099
88359W        W31453  13.867   2.821   8.322 -0.2392  0.3101  0.0480
88360W        W31454  11.015   1.046   9.419  0.0624  0.0449 -0.3464
88361W        W31455  13.728   3.388   7.942  0.0098 -0.0430  0.0347
88362W        W31456  13.522   3.072   9.587 -0.0121 -0.0794  0.1680
88363W        W31457  13.514   0.885   8.809  0.2406 -0.2316 -0.2964
88364W        W31458  12.342   1.999   9.838 -0.0229 -0.1505 -0.2066
88365W        W31459  10.932   4.289   7.866 -0.0636 -0.2987 -0.0831
88366W        W31460  13.192  33.236   9.250 -0.4083 -0.1169  0.0872
88367W        W31461  13.066   3.759   7.118  0.0815 -0.0322 -0.1590
88368W        W31462  12.975   1.914   9.587  0.1609  0.1783 -0.2321
88369W        W31463  12.177   3.097   7.861 -0.2204  0.1806  0.1259
88370W        W31464  12.546   1.974   8.728 -0.1349 -0.1284  0.1217
88371W        W31465  12.247   2.619   7.132  0.3525  0.2387 -0.1727
88372W        W31466  14.416   2.212   8.896  0.4559 -0.0497  0.3726
88373W        W31467  12.968   1.510   8.429  0.1669 -0.0738  0.1060
88374W        W31468  14.618   4.238   8.861  0.1483 -0.2791 -0.0869
88375W        W31469  12.379   1.500   9.579  0.1073 -0.0789  0.0446
88376W        W31470  15.004  34.114   9.452  0.2083 -0.1560 -0.2062
88377W        W31471  13.384   0.627   7.480  0.1871  0.3017 -0.0864
88378W        W31472  16.498   0.956   9.937  0.0299 -0.0640 -0.0069
88379W        W31473  11.050   1.411   7.028  0.1031  0.3132 -0.1901
88380W        W31474  12.161   1.417   7.203 -0.0364 -0.0966 -0.2304
88381W        W31475  11.021   2.058   8.869 -0.0968 -0.2597 -0.0680
88382W        W31476  11.178   0.975   8.970 -0.1480  0.1455 -0.0824
88383W        W31477  11.167   0.563   8.616 -0.0123 -0.3255 -0.0814
88384W        W31478  13.147   3.383   6.761 -0.2809  0.4096 -0.0968
88385W        W31479   9.340   1.539  10.944 -0.2755  0.3657  0.2081
88386W        W31480  10.156  34.632   8.219  0.1420 -0.1779  0.0911
88387W        W31481  14.801   2.157   8.010 -0.1834 -0.0388  0.2799
88388W        W31482  14.057   2.515   7.432  0.0368  0.0498  0.0946
88389W        W31483  11.669  34.503   8.908 -0.1485 -0.1181  0.1394
88390W        W31484  11.372   3.381   7.644 -0.0656  0.1168 -0.1025
88391W        W31485  10.107  34.683   7.642  0.1582  0.2047 -0.0955
88392W        W31486  13.126  34.558   9.324 -0.2706  0.0396  0.1130
88393W        W31487  14.772   3.233   7.518  0.1669  0.1688 -0.1263
88394W        W31488  14.412   4.311   6.596 -0.2962 -0.0200 -0.2673
88395W        W31489  10.399   0.247   9.217 -0.0687 -0.0032  0.4493
88396W        W31490  13.683   1.108   7.306  0.0678  0.0623  0.2293
88397W        W31491  15.367   3.051   8.155  0.0335 -0.2477  0.0525
88398W        W31492  13.539   0.782  10.124 -0.1505  0.3592 -0.5017
88399W        W31493  13.811   0.992   7.849 -0.0393 -0.0229  0.2483
88400W        W31494  17.123   0.079   9.077  0.1241 -0.5302 -0.0123
88401W        W31495  12.258  34.349  10.275  0.0126 -0.1333  0.1079
88402W        W31496  13.872   1.497   8.817  0.1346  0.2084 -0.1422
88403W        W31497  14.776   2.885   7.832  0.1891  0.0363  0.4123
88404W        W31498  11.554   1.209  10.675  0.2223  0.0750  0.0523
88405W        W31499  13.521   1.405   7.995 -0.0190  0.0185  0.0212
88406W        W31500  13.021   2.455   9.971 -0.2669 -0.0670 -0.1687
88407W        W31501  12.952   1.185   7.945  0.1581  0.0737 -0.0828
88408W        W31502  14.683   0.912   8.096 -0.0774 -0.2431  0.0155
88409W        W31503  13.737   2.594   9.217  0.0428 -0.0780  0.0902
88410W        W31504  12.346   3.421  11.490 -0.1367 -0.2169  0.0789
88411W        W31505  12.672   2.296   9.368 -0.1183 -0.1907  0.2001
88412W        W31506  11.246   3.439  11.241 -0.4087  0.5159  0.2208
88413W        W31507  11.494  34.619   8.100 -0.0286 -0.0738  0.0936
88414W        W31508  13.107   1.062  10.175  0.1449 -0.1746  0.1928
88415W        W31509  14.293   0.834   9.727 -0.2126 -0.0750 -0.1149
88416W        W31510  11.473   0.767   9.362  0.1532 -0.1249 -0.0819
88417W        W31511  12.614   0.940   8.689 -0.3038  0.0756  0.3470
88418W        W31512  10.264   2.204  10.066 -0.2855  0.1337  0.1487
88419W        W31513  11.267   2.524   9.483 -0.2820  0.0776 -0.1416
88420W        W31514  11.125   6.597   1.818  0.1182  0.0431  0.1307
88421W        W31515  12.320   4.957   1.253 -0.2245 -0.0389 -0.2884
88422W        W31516  13.247   4.903  31.750  0.1362  0.0034 -0.0244
88423W        W31517  15.150   5.591   1.397 -0.2341  0.0999 -0.0215
88424W        W31518  10.417   3.875   1.099 -0.2965 -0.0553  0.0075
88425W        W31519  14.110   7.192   0.709 -0.0574  0.5488  0.0784
88426W        W31520  10.735   2.817   4.376  0.1934 -0.0710 -0.0734
88427W        W31521  14.393   7.136   1.251  0.0151 -0.2525  0.3360
88428W        W31522  12.796   6.836   1.508 -0.3601 -0.1469  0.2940
88429W        W31523  13.067   7.516  31.260  0.3809 -0.0646  0.2291
88430W        W31524  12.689   5.022   2.658  0.2918 -0.1330  0.2089
88431W        W31525  12.079   7.176   2.533  0.0191 -0.0960  0.1566
88432W        W31526  13.889   4.236   0.617  0.0605 -0.1605  0.0656
88433W        W31527  11.352   3.785   2.725  0.2265 -0.0492  0.1976
88434W        W31528  14.031   5.346   2.045  0.0699  0.0035  0.1139
88435W        W31529  11.684   6.205   0.538  0.0043  0.0678 -0.1058
88436W        W31530  11.488   4.138   1.310  0.5316  0.1963 -0.0991
88437W        W31531  14.181   3.272   1.603  0.2050  0.1895 -0.0477
88438W        W31532  10.787   3.872   3.689 -0.0273  0.0637 -0.1907
88439W        W31533  13.146   4.433   3.355 -0.1599 -0.0266 -0.1284
88440W        W31534  12.807   5.933   0.249 -0.1288  0.0671 -0.0779
88441W        W31535  10.185   4.710  31.596 -0.0072 -0.1105 -0.1519
88442W        W31536  11.728   5.433   1.628  0.4163  0.3172  0.1052
88443W        W31537  13.263   4.681   2.546  0.2076  0.1908 -0.0671
88444W        W31538  14.030   3.197   2.186 -0.1504  0.1396 -0.1566
88445W        W31539  13.609   5.241   1.519  0.1092  0.2471 -0.0876
88446W        W31540  11.844   6.684   2.283 -0.1993  0.0790  0.1612
88447W        W31541  12.248   6.024   1.759  0.1088  0.1726  0.3758
88448W        W31542  13.384   6.568   2.398 -0.0378 -0.1299  0.1038
88449W        W31543  11.285   5.488   0.717  0.2381 -0.2969 -0.0749
88450W        W31544  10.713   7.226   0.784 -0.2069  0.2868 -0.0902
88451W        W31545  12.236   6.924   0.667 -0.0942 -0.3135  0.0364
88452W        W31546  15.106   6.499   3.253 -0.1517 -0.2913 -0.1151
88453W        W31547  13.175   5.679   2.606  0.3882 -0.3521  0.2916
88454W        W31548  10.604   4.698   4.214  0.1074 -0.1121 -0.0729
88455W        W31549  12.816   6.761  31.870  0.3195  0.1260  0.0238
88456W        W31550  12.581   7.799   1.623 -0.4268 -0.0453  0.2738
88457W        W31551  11.169   6.450   3.914 -0.0211  0.1024  0.0779
88458W        W31552  13.543   5.439   1.966 -0.0943 -0.1174 -0.0091
88459W        W31553  12.931   5.871   1.017  0.1926 -0.0189 -0.0651
88460W        W31554  12.392   6.649   0.304 -0.1490 -0.1395  0.1816
88461W        W31555  12.008   6.228   2.253 -0.0105 -0.3990  0.1447
88462W        W31556  11.222   6.879   2.977  0.0112 -0.1144  0.0672
88463W        W31557  12.394   5.363   0.915  0.0703  0.2845  0.0334
88464W        W31558  13.803   4.415   4.025  0.2755 -0.1494  0.1851
88465W        W31559  13.685   6.963   0.304  0.3801  0.1663 -0.0763
88466W        W31560  13.474   4.974   0.225  0.1752 -0.2700 -0.0649
88467W        W31561  12.806   4.941  31.423 -0.3352  0.0066  0.0798
88468W        W31562  12.926   1.170   0.747 -0.2670 -0.1088 -0.2227
88469W        W31563  12.229   4.294  31.618  0.1948 -0.0546 -0.1695
88470W        W31564  10.426   6.922   0.296  0.1496  0.4272 -0.1363
88471W        W31565  10.902   5.898   2.581  0.1763 -0.4036 -0.2696
88472W        W31566  13.400   6.797   2.849  0.2222 -0.1163 -0.1611
88473W        W31567  12.407   5.819   0.007 -0.3662 -0.1912 -0.1010
88474W        W31568  13.058   5.236   2.278  0.0693 -0.2830 -0.3169
88475W        W31569  11.384   8.130   1.503 -0.0215  0.2558 -0.1537
88476W        W31570  11.447   5.966   1.032  0.0432 -0.1679  0.0044
88477W        W31571  14.891   6.519  31.489 -0.1827  0.0788  0.1415
88478W        W31572  12.859   4.967   1.267  0.2028  0.2965  0.4915
88479W        W31573  14.877   6.422  30.436  0.0113  0.1254  0.3159
88480W        W31574  10.580   5.542  31.813  0.0158  0.0477  0.0796
88481W        W31575  11.117   6.136   3.033 -0.0083  0.1745  0.2548
88482W        W31576  11.033   4.978   2.689  0.0228  0.0233 -0.0812
88483W        W31577  12.204   5.071   0.512 -0.1151 -0.1925 -0.1033
88484W        W31578  12.941   6.846   3.123 -0.1463  0.1440  0.1320
88485W        W31579  10.294   5.997   3.887 -0.1966 -0.0618 -0.0647
88486W        W31580  15.066   4.255   1.137  0.0916 -0.2226 -0.1846
88487W        W31581  13.596   5.129   0.947  0.0178 -0.0843  0.0883
88488W        W31582  12.957   7.371   3.223  0.1642 -0.0067  0.0490
88489W        W31583  13.422   6.501   0.089  0.0234  0.1372  0.1759
88490W        W31584  13.244   3.307   3.151 -0.0939  0.1569 -0.0231
88491W        W31585  13.567   3.964   2.375  0.0736  0.3506 -0.3469
88492W        W31586  11.935   4.745  31.512  0.0141 -0.3668 -0.0894
88493W        W31587  13.037   4.508  31.130 -0.0098 -0.3538 -0.2126
88494W        W31588  12.992   6.384   3.342 -0.0396  0.0935  0.1118
88495W        W31589  16.205   5.501   0.475 -0.0419 -0.0920  0.1241
88496W        W31590  10.891   5.722   1.581  0.1899 -0.1413 -0.0470
88497W        W31591  12.762   3.299   2.829 -0.0777 -0.0357 -0.0987
88498W        W31592  12.374   6.800   2.269  0.0657 -0.0131 -0.1534
88499W        W31593  11.264   6.357   0.370  0.2332  0.2126 -0.2438
88500W        W31594  11.318   6.252   1.423 -0.3445 -0.0795  0.1029
88501W        W31595  11.306   6.891  31.640  0.5061 -0.0797  0.0265
88502W        W31596  13.104   4.209   1.961  0.0010 -0.3712 -0.1986
88503W        W31597  11.667   5.406   2.300  0.1849 -0.3942 -0.2986
88504W        W31598  14.355   4.928   1.192  0.0888  0.0582 -0.3705
88505W        W31599  12.292   3.744   3.328 -0.0514  0.0525 -0.2821
88506W        W31600  13.681   3.379   1.541  0.0481 -0.0785  0.2807
88507W        W31601  12.479   7.140  31.686 -0.0419 -0.3186  0.0196
88508W        W31602  14.231   8.051   0.439 -0.1065 -0.4181  0.1394
88509W        W31603  13.614   4.271   1.551  0.2286 -0.1100 -0.1171
88510W        W31604  14.496   8.098  31.784 -0.0029 -0.1481  0.1950
88511W        W31605  12.532   5.240   2.229 -0.0510 -0.2070  0.1993
88512W        W31606  11.757   5.488   1.082  0.0940 -0.2861  0.0394
88513W        W31607  12.034   5.801   3.652  0.1738 -0.2167 -0.0739
88514W        W31608  11.872   3.898   2.683 -0.1713  0.1322  0.0070
88515W        W31609  12.024   4.996   2.149 -0.2355  0.0559  0.2030
88516W        W31610   9.954   3.739   0.733 -0.1811 -0.2505 -0.0770
88517W        W31611  13.397   6.085   2.266 -0.0214  0.0908  0.2121
88518W        W31612  12.199   5.428   1.924  0.2171 -0.3883 -0.1455
88519W        W31613  10.918   5.486   0.170 -0.2130 -0.1378  0.1910
88520W        W31614  13.427   3.619   4.126 -0.0493  0.1925 -0.3341
88521W        W31615  12.841   7.361   1.579  0.2315 -0.1127 -0.0040
88522W        W31616  13.264   6.329   2.819 -0.2963  0.1678 -0.3188
88523W        W31617  13.982   6.584   1.621 -0.1789 -0.0451 -0.1609
88524W        W31618  12.063   4.782   3.137  0.0814  0.3020 -0.1856
88525W        W31619  10.653   4.496  31.777 -0.2615  0.0789 -0.1024
88526W        W31620  12.194   8.338   1.058 -0.0878 -0.0750 -0.2003
88527W        W31621  12.165   6.554   1.889  0.0962 -0.0062 -0.0439
88528W        W31622  11.553   5.011   1.918  0.0644 -0.0167 -0.1021
88529W        W31623  13.064   7.884   3.835 -0.1584  0.2120 -0.0880
88530W        W31624  13.931   7.389   1.112 -0.0494 -0.0412  0.2743
88531W        W31625  11.348   5.454   1.893  0.2775  0.1875 -0.1176
88532W        W31626  13.842   4.657   2.470  0.0743  0.0930 -0.1707
88533W        W31627  13.315   5.510   3.404 -0.1905  0.1045 -0.1879
88534W        W31628  12.896   3.925   0.662  0.0127  0.1291  0.1400
88535W        W31629  11.019   3.883  31.012  0.0628 -0.1929 -0.2920
88536W        W31630  13.356   6.699   0.641 -0.2895 -0.0238  0.1497
88537W        W31631  12.579   6.314  31.931 -0.0647  0.2808  0.0785
88538W        W31632  10.860   4.900   0.763  0.0409  0.3941  0.2861
88539W        W31633  12.110   6.661   1.274  0.0374 -0.1594  0.1541
88540W        W31634  13.222   3.168   2.636  0.1903 -0.0000 -0.1139
88541W        W31635   9.778   5.442   2.089  0.2059 -0.1961 -0.0149
88542W        W31636  12.539   3.075   3.224 -0.0460 -0.1910 -0.2846
88543W        W31637  10.293   4.104  31.474  0.2442  0.0588  0.0865
88544W        W31638  11.537   6.412   3.153 -0.1404  0.0197  0.1422
88545W        W31639  13.485   2.890   2.945  0.0558  0.1907 -0.4151
88546W        W31640  13.901   5.498   0.744 -0.3263  0.0264  0.0433
88547W        W31641  11.842   5.188   2.810  0.1535 -0.0369 -0.2870
88548W        W31642  14.254   7.704   0.067  0.3216  0.1641 -0.0318
88549W        W31643  11.990   3.764  31.722  0.2017 -0.1237 -0.3982
88550W        W31644  13.617   2.415   0.501 -0.2267 -0.0705 -0.1826
88551W        W31645   9.129   6.433   0.483  0.0089 -0.2656 -0.4197
88552W        W31646  13.183   5.402   1.244  0.3904  0.0179 -0.1789
88553W        W31647  13.220   4.638   1.612  0.0947 -0.0379 -0.0131
88554W        W31648  11.034   4.826  31.900 -0.0099 -0.2657  0.2117
88555W        W31649  14.734   5.442   2.291 -0.0512  0.2235  0.3164
88556W        W31650  11.317   7.224   1.120 -0.4320  0.1920  0.0598
88557W        W31651  12.463   6.660   3.333 -0.2905  0.3181 -0.0154
88558W        W31652  13.944   6.467   0.432  0.2681  0.0429 -0.0488
88559W        W31653  12.157   3.515   2.877 -0.2282 -0.0995  0.1837
88560W        W31654  12.327   5.258  30.724  0.0612 -0.3398 -0.2403
88561W        W31655  11.735   3.807   0.436  0.1931 -0.0299 -0.0705
88562W        W31656  11.928   5.710   0.564 -0.0481  0.1344  0.3379
88563W        W31657  14.891   4.246   3.627  0.2794 -0.1569 -0.0778
88564W        W31658  11.917   3.327   1.126 -0.2948  0.0704 -0.0974
88565W        W31659  11.789   2.368   2.412  0.0820  0.0042  0.0411
88566W        W31660  13.733   4.746   1.490 -0.2264  0.2412 -0.4859
88567W        W31661  12.994   5.030   0.224  0.0233  0.1115 -0.0068
88568W        W31662  13.575   5.301   2.500 -0.0187  0.1563 -0.3678
88569W        W31663  12.080   5.463   0.162  0.0343 -0.0005  0.3111
88570W        W31664  13.376   4.203   2.799  0.2835  0.2315 -0.3444
88571W        W31665  12.943   5.916   1.586  0.0954  0.2073  0.3452
88572W        W31666  10.852   6.309   1.540 -0.2574 -0.1341  0.0041
88573W        W31667  12.322   5.983   2.680  0.1953  0.2887  0.1242
88574W        W31668  12.652   6.453  31.418  0.0612 -0.1427  0.2406
88575W        W31669  13.209   3.153   4.241  0.3162  0.2639  0.0633
88576W        W31670  11.658   4.313  31.687 -0.0838  0.0557  0.4183
88577W        W31671  12.212   7.872   0.744  0.4015 -0.2953 -0.1000
88578W        W31672  14.515   6.278  31.756  0.2173 -0.0664  0.2111
88579W        W31673  12.291   3.701   1.952  0.0595 -0.1300  0.0453
88580W        W31674  12.140   5.418   2.430 -0.2005 -0.3409 -0.1978
88581W        W31675  12.920   5.773  31.773  0.0408 -0.2912 -0.1266
88582W        W31676  11.866   5.840   2.540  0.2897  0.0936  0.0928
88583W        W31677  11.519   6.793   0.150  0.0781  0.4210 -0.0632
88584W        W31678  13.836   3.058   3.523 -0.3238  0.4866  0.4814
88585W        W31679  10.977   7.558   2.813  0.0310  0.1296  0.2996
88586W        W31680  10.915   4.671   1.824  0.0962 -0.0842 -0.0171
88587W        W31681  11.146   5.121   0.407 -0.2497  0.3619 -0.1907
88588W        W31682  14.408   4.332   2.204 -0.0482 -0.1795  0.1191
88589W        W31683  14.423   6.804  31.828  0.1962 -0.0156 -0.2090
88590W        W31684  12.223   4.908   2.600  0.3479  0.1158 -0.0634
88591W        W31685  12.607   3.287   1.895  0.2735  0.2536 -0.0040
88592W        W31686  10.786   6.936   1.718 -0.0841 -0.2785 -0.2411
88593W        W31687  13.822   4.401   2.906  0.0786  0.2225  0.1371
88594W        W31688  13.167   4.575   0.219  0.0655 -0.1822 -0.1685
88595W        W31689  14.200   6.851   2.597  0.0183  0.4459 -0.0212
88596W        W31690  11.933   5.585   4.255 -0.3825  0.0997  0.0686
88597W        W31691  11.505   3.808  31.464 -0.1179  0.1114 -0.1721
88598W        W31692  14.901   4.893   2.748  0.3041 -0.2474 -0.3383
88599W        W31693  13.851   3.629   0.615 -0.0320  0.2995  0.2637
88600W        W31694  11.044   6.282   0.952 -0.0730  0.2301  0.0741
88601W        W31695  12.415   7.153   1.392  0.1553 -0.0199 -0.0873
88602W        W31696  10.977   4.712   1.305  0.1836 -0.0507  0.1198
88603W        W31697  11.732   6.402   1.037  0.1272 -0.1437 -0.2338
88604W        W31698  12.254   4.335   3.237  0.0044 -0.2605 -0.1518
88605W        W31699  12.565   6.364   1.654 -0.1895  0.0977  0.0390
88606W        W31700  12.088   4.091   1.216  0.0429  0.0565 -0.1574
88607W        W31701  11.448   3.189  31.255 -0.0047 -0.1494  0.1847
88608W        W31702  12.624   4.506   1.262  0.1897 -0.2379  0.0301
88609W        W31703  13.534   6.002   1.796 -0.4685  0.0457 -0.0710
88610W        W31704  12.284   5.846   2.231 -0.1648 -0.3902 -0.0216
88611W        W31705  10.845   6.218   4.218  0.1721 -0.1831 -0.1479
88612W        W31706  12.568   2.886   2.139 -0.0378 -0.1577 -0.2362
88613W        W31707  14.353   5.821   0.602 -0.0262 -0.0436 -0.0282
88614W        W31708  14.076   4.412   3.380  0.2493  0.2115  0.1354
88615W        W31709  11.142   5.860  31.846 -0.0457 -0.2239 -0.2015
88616W        W31710  11.321   5.557   1.384 -0.3362 -0.1722  0.0320
88617W        W31711  11.918   6.023  31.327 -0.2217  0.1065  0.0299
88618W        W31712  13.552   3.298   2.046  0.0794  0.3814 -0.0851
88619W        W31713  11.123   6.717   1.305  0.1019  0.2485 -0.0004
88620W        W31714  11.438   5.700   0.272  0.0546 -0.0277  0.0471
88621W        W31715  11.165   5.421   2.533  0.1414  0.1484 -0.2203
88622W        W31716  14.928   2.684   0.100  0.1487 -0.3670 -0.0178
88623W        W31717  12.960   5.445  31.292 -0.1357  0.0907  0.0334
88624W        W31718  13.284   3.842   1.138 -0.0830  0.1299 -0.2347
88625W        W31719  13.647   3.972   3.813  0.1592  0.0190 -0.0611
88626W        W31720  14.253   5.801   0.052  0.1583  0.3386  0.3226
88627W        W31721  13.223   3.694   2.187 -0.2719 -0.2345 -0.2269
88628W        W31722  11.583   4.164   3.888  0.3284 -0.2466  0.1035
88629W        W31723  14.652   5.494  31.434  0.0883 -0.0738 -0.2116
88630W        W31724  12.741   4.514   1.750  0.4262 -0.1207 -0.2323
88631W        W31725  13.436   6.655   3.298  0.1200 -0.2256  0.1700
88632W        W31726  10.506   4.917   2.674  0.1321 -0.0477  0.2012
88633W        W31727  11.943   4.965   0.928  0.3458 -0.2291  0.2255
88634W        W31728  13.163   2.931  31.649 -0.0387 -0.5282 -0.1673
88635W        W31729  13.200   5.008   0.697  0.0797  0.3874  0.0589
88636W        W31730  12.919   6.157   2.527 -0.3294 -0.1784 -0.0571
88637W        W31731  11.883   5.275  31.325 -0.3751 -0.3146  0.0548
88638W        W31732  14.364   4.866   3.491  0.1661  0.0250  0.2435
88639W        W31733  11.441   5.096   1.331 -0.0257 -0.0226 -0.1195
88640W        W31734  13.647   4.987   2.026  0.1523 -0.0402 -0.1197
88641W        W31735  13.896   4.684   1.026 -0.0880 -0.2129 -0.1075
88642W        W31736  11.579   6.858   1.345 -0.1638 -0.1110  0.1566
88643W        W31737  11.247   1.544   4.173 -0.0350 -0.0615 -0.1821
88644W        W31738  13.841   5.323   0.189 -0.2742  0.4030  0.4065
88645W        W31739  13.755   2.960   1.289  0.1152  0.0112  0.0772
88646W        W31740  13.517   4.618   3.687 -0.3437 -0.0746 -0.2620
88647W        W31741  13.011   5.304   3.012 -0.1417 -0.1339 -0.1459
88648W        W31742  12.416   3.741   2.463 -0.0755 -0.1280  0.0348
88649W        W31743  12.095   5.291   3.835  0.0357 -0.0084  0.0682
88650W        W31744  12.723   7.089   4.700 -0.0481 -0.2442  0.2658
88651W        W31745  14.783   5.627   0.989  0.0271  0.0279  0.0470
88652W        W31746  15.004   3.094   2.510  0.3599  0.0818 -0.1256
88653W        W31747  13.003   4.105   0.174 -0.0676  0.2672 -0.0667
88654W        W31748  11.430   4.993   0.854  0.0500 -0.1244 -0.1629
88655W        W31749  11.735   5.914   1.511 -0.2566 -0.0378  0.1012
88656W        W31750  12.328   4.288   3.710  0.1426 -0.1311  0.0481
88657W        W31751  10.640   6.159  30.676  0.3810 -0.0356  0.0353
88658W        W31752  12.522   3.873   2.921  0.1402 -0.3696 -0.0547
88659W        W31753  12.692   7.050   1.044  0.0504 -0.0952  0.1408
88660W        W31754  13.602   5.960   0.864 -0.1392  0.1819  0.0217
88661W        W31755  12.422   4.110   1.550 -0.3347  0.0242  0.2575
88662W        W31756   9.855   4.971   1.205 -0.0976 -0.2554 -0.2057
88663W        W31757  11.765   7.518   4.032 -0.1951  0.0434  0.1087
88664W        W31758  11.815   4.480   1.182 -0.1897  0.0811  0.1039
88665W        W31759  12.502   6.043   1.245 -0.2458 -0.1818  0.0999
88666W        W31760  13.058   6.379   1.376  0.2408  0.1229  0.0616
88667W        W31761  13.899   4.635   4.502 -0.3993 -0.1272  0.1712
88668W        W31762  13.255   3.556   0.749  0.2857 -0.1495  0.0034
88669W        W31763  14.127   4.045   3.821  0.2217 -0.2117  0.0282
88670W        W31764  11.077   6.375  31.894 -0.0678  0.2723  0.3431
88671W        W31765  13.015   4.780   2.095 -0.0212  0.0188  0.1945
88672W        W31766  11.504   6.332   2.104 -0.0711 -0.0916 -0.0903
88673W        W31767  10.083   5.402   1.466  0.0134 -0.0270  0.0025
88674W        W31768  10.855   7.297   0.327 -0.0406  0.1133  0.0891
88675W        W31769  11.735   4.667   3.494 -0.1284 -0.0913 -0.0245
88676W        W31770  13.471   4.786   3.005  0.1535 -0.0995  0.0150
88677W        W31771  13.146   5.884   0.553 -0.1925  0.2948 -0.2366
88678W        W31772  13.450   6.180   3.459 -0.2517 -0.0594 -0.1718
88679W        W31773  12.789   6.064   2.993  0.1014 -0.2841 -0.0433
88680W        W31774  12.556   5.030   1.682 -0.2089  0.1030  0.0983
88681W        W31775  11.275   5.976   1.827 -0.2408  0.0198 -0.4818
88682W        W31776  13.503   6.524   1.469  0.3349 -0.1306  0.0474
88683W        W31777  11.375   7.642   0.280  0.0352  0.0654 -0.1509
88684W        W31778  11.477   4.045   1.950 -0.1008  0.2230  0.0044
88685W        W31779  11.911   4.113   3.520  0.2305 -0.0225  0.0134
88686W        W31780  14.023   5.294   1.183 -0.3521 -0.0564 -0.1307
88687W        W31781  10.457   3.389   1.978  0.0096  0.0475 -0.1215
88688W        W31782  13.318   7.098  31.165  0.0836 -0.2139  0.2107
88689W        W31783  11.732   5.822   1.990 -0.1077 -0.1189  0.3951
88690W        W31784  10.162   6.401   1.588 -0.3432  0.0692 -0.0386
88691W        W31785  11.237   7.345  31.851  0.2027 -0.1508  0.0502
88692W        W31786  14.566   7.203   0.158 -0.0537 -0.2282 -0.1190
88693W        W31787  12.313   4.625   0.847  0.1257 -0.2497 -0.2308
88694W        W31788  14.996   7.170   1.367  0.1070 -0.0582 -0.2724
88695W        W31789  12.209   5.621   1.445  0.2158 -0.1284  0.0603
88696W        W31790  11.452   7.308   2.962 -0.0503 -0.0560 -0.0455
88697W        W31791  11.303   8.686  31.552  0.1880  0.2711  0.1058
88698W        W31792  13.772   5.846  31.227 -0.3122 -0.2221  0.0430
88699W        W31793  11.802   6.756   0.553 -0.1845  0.1256 -0.2527
88700W        W31794  12.599   6.328   5.462  0.1869  0.0126 -0.1590
88701W        W31795  13.591   4.632   0.595  0.1199 -0.2929  0.2586
88702W        W31796  16.161   5.541   2.144  0.1688  0.1604 -0.2076
88703W        W31797  14.118   4.883   0.157 -0.0566 -0.0514  0.0499
88704W        W31798  12.787   7.148   2.259  0.2264  0.5375  0.2644
88705W        W31799  13.098   5.243   1.750  0.3306  0.2265 -0.1438
88706W        W31800  12.834   3.711   0.014  0.0346  0.0602 -0.0166
88707W        W31801  12.065   4.463   2.154  0.0037 -0.0971  0.0988
88708W        W31802  14.401   3.886   3.456  0.2934  0.1418 -0.2788
88709W        W31803  10.483   5.087   3.756 -0.1417 -0.0367 -0.0140
88710W        W31804  13.852   6.120   1.342  0.0375  0.0148  0.0282
88711W        W31805  10.424   3.443   0.846  0.0409 -0.1032  0.2077
88712W        W31806  12.669   5.536   1.853  0.0137 -0.6149  0.2122
88713W        W31807  14.055   3.670   2.584 -0.0485 -0.1968 -0.1256
88714W        W31808  13.370   5.821  31.489  0.1592  0.0988  0.2324
88715W        W31809  14.046   4.150   2.519 -0.1171  0.0797 -0.2420
88716W        W31810  11.965   6.996   1.618  0.0890 -0.1362 -0.2471
88717W        W31811  12.246   6.174   0.330 -0.2334  0.2075 -0.1392
88718W        W31812  12.100   6.142  31.799 -0.1981 -0.3458 -0.2713
88719W        W31813   9.784   4.674   1.665 -0.1374  0.2289  0.2227
88720W        W31814  14.056   6.121   2.544  0.0420  0.0392 -0.0908
88721W        W31815  12.264   4.257   2.661 -0.0720 -0.1548 -0.0070
88722W        W31816  14.179   4.854   2.186 -0.4553  0.1994  0.3145
88723W        W31817  13.031   4.486   0.947  0.4660  0.0200 -0.0573
88724W        W31818  13.636   6.459  31.652 -0.1063 -0.0561  0.0550
88725W        W31819  12.534   5.173   0.070 -0.0587 -0.3039 -0.1122
88726W        W31820  11.492   4.589   1.598  0.2038 -0.1053 -0.0845
88727W        W31821  13.460   2.929   0.462  0.2343  0.3387  0.1877
88728W        W31822  14.439   4.455   3.771 -0.1346 -0.0242  0.0557
88729W        W31823  13.646   4.578  31.360  0.2723  0.0824 -0.1134
88730W        W31824  12.262   7.294   4.908  0.0113  0.1890  0.2772
88731W        W31825  11.827   3.609   1.818 -0.1262  0.0065  0.0432
88732W        W31826  12.635   4.384   0.583 -0.1378  0.0331 -0.0826
88733W        W31827  11.905   4.924   1.486  0.0235 -0.0906  0.0395
88734W        W31828  12.961   4.746   2.966 -0.3292  0.1436  0.1065
88735W        W31829  14.364   6.898   3.647  0.1079 -0.3170  0.1922
88736W        W31830  10.629   4.003  31.842 -0.1091 -0.1611 -0.0034
88737W        W31831  15.539   6.966   1.597  0.0436 -0.2840  0.1641
88738W        W31832  12.801   6.682   1.973  0.0612 -0.0428 -0.0281
88739W        W31833  11.786   6.943  31.687 -0.1111 -0.2290 -0.1436
88740W        W31834  13.489   6.747   1.918  0.2710  0.0070  0.1299
88741W        W31835  13.165   6.331   1.857  0.0312  0.0483 -0.1004
88742W        W31836  12.675   5.683   2.462  0.3614 -0.1035 -0.4699
88743W        W31837  12.267   5.462   3.349  0.0691 -0.0849 -0.1422
88744W        W31838  15.014   7.226   2.024  0.0960  0.0680  0.1319
88745W        W31839  12.448   4.165   2.175 -0.0972 -0.2869  0.1872
88746W        W31840   9.593   4.067   0.676  0.3124 -0.0633 -0.4397
88747W        W31841   9.994   8.140  30.411  0.0427  0.1029 -0.0658
88748W        W31842  13.886   3.669   2.072  0.2377 -0.2981  0.1873
88749W        W31843  14.557   4.340   3.171 -0.0341 -0.2681  0.2284
88750W        W31844  13.058   5.495   0.250  0.2606 -0.2617  0.2404
88751W        W31845  12.778   2.692   4.398 -0.1364  0.0611 -0.1825
88752W        W31846  12.378   7.393   2.126  0.1475 -0.1387 -0.0562
88753W        W31847  11.649   5.962   4.620  0.0612  0.1115  0.0075
88754W        W31848  11.309   5.312  31.936 -0.0431  0.0684  0.3837
88755W        W31849  12.111   6.512   2.669  0.3633  0.0746  0.0580
88756W        W31850  13.414   6.254   0.468  0.2449  0.3309  0.2456
88757W        W31851  13.378   5.980   1.326 -0.1078 -0.3624  0.1566
88758W        W31852  13.849   6.457   2.184 -0.1322 -0.1973 -0.0986
88759W        W31853  12.710   4.931   0.700 -0.1263  0.1767 -0.2832
88760W        W31854  15.239   6.461   0.258  0.0686  0.0578  0.3444
88761W        W31855  12.840   4.008   2.426 -0.3617 -0.0690 -0.1774
88762W        W31856  14.272   5.595   2.419 -0.2740 -0.1489 -0.4055
88763W        W31857  13.610   2.717  31.279 -0.0158 -0.0028 -0.0231
88764W        W31858  12.427   5.504   2.848  0.0028 -0.1397 -0.1433
88765W        W31859  10.157   5.291  31.529 -0.0401  0.0930  0.2052
88766W        W31860  12.447   5.319  31.285  0.2207  0.0111 -0.1302
88767W        W31861  10.826   6.868  31.938  0.2365 -0.0327  0.1321
88768W        W31862  12.565   4.705   3.994  0.2981 -0.3247  0.3359
88769W        W31863  11.478   4.981   2.493 -0.0433  0.3605 -0.1538
88770W        W31864  10.449   5.686   0.401  0.0178  0.1403 -0.0163
88771W        W31865  11.533   4.261   0.209  0.0098 -0.0624  0.0371
88772W        W31866  15.127   6.639   1.368  0.0369  0.5990 -0.1413
88773W        W31867  11.176   4.505   0.545 -0.1512 -0.0428  0.0408
88774W        W31868  10.743   4.352   0.792  0.0387 -0.3591  0.1725
88775W        W31869  14.633   6.193   0.966 -0.0327  0.4959  0.0999
88776W        W31870  13.568   7.217  31.774  0.2017  0.2018  0.1737
88777W        W31871  12.760   3.835   1.853 -0.2396 -0.0234 -0.0995
88778W        W31872  13.665   6.703   3.738  0.2844  0.0978 -0.1210
88779W        W31873  11.052   6.831   0.429 -0.0105  0.0193 -0.2560
88780W        W31874  12.334   2.847   4.060 -0.0464 -0.2239 -0.1763
88781W        W31875  11.685   3.025   3.226  0.1291  0.1344  0.1337
88782W        W31876  11.187   3.691   1.758  0.1857  0.1392  0.0228
88783W        W31877  13.510   4.289   1.074  0.2364 -0.3299  0.1853
88784W        W31878  12.550   6.070   0.693  0.3523 -0.0818  0.1760
88785W        W31879  13.327   7.439  30.829  0.1026 -0.1175  0.2627
88786W        W31880  11.344   6.842   2.315 -0.0244 -0.1290  0.0679
88787W        W31881  13.222   6.829   4.686 -0.1087 -0.0487  0.0138
88788W        W31882  11.075   3.422   3.646  0.3485 -0.1502 -0.0177
88789W        W31883  13.087   5.681   2.067 -0.0696  0.1199 -0.2262
88790W        W31884  11.108   7.263   2.079 -0.2297 -0.2324  0.0711
88791W        W31885  15.999   4.428   1.546  0.0610  0.4561  0.0839
88792W        W31886  15.296   3.591   2.391  0.1023  0.0345  0.0626
88793W        W31887  13.709   6.496   0.917 -0.1088  0.2142 -0.1448
88794W        W31888  11.348   3.469   3.151 -0.0804  0.1428 -0.1968
88795W        W31889  10.638   6.369   2.521 -0.0584  0.1185  0.3299
88796W        W31890  13.183   4.891   3.426  0.1603  0.1679  0.0357
88797W        W31891  12.224   4.627   1.650  0.2134  0.0421  0.2779
88798W        W31892  11.655   5.263   0.442 -0.1109 -0.0388 -0.3478
88799W        W31893  12.950   6.430   0.288  0.1330  0.1282  0.3367
88800W        W31894  12.653   5.435   1.354 -0.1049  0.2675 -0.2562
88801W        W31895  13.218   3.932  31.617 -0.3831 -0.0103  0.2450
88802W        W31896  12.754   5.543   3.356  0.2321 -0.0130  0.1546
88803W        W31897  11.259   7.081   1.645  0.0215 -0.0019 -0.0719
88804W        W31898  13.747   5.930   4.455  0.0064 -0.1678 -0.1753
88805W        W31899  10.928   5.148  31.535  0.0147 -0.1706  0.0468
88806W        W31900  14.822   5.659   0.447  0.1573  0.1768  0.0058
88807W        W31901  14.687   6.746   1.089  0.0749  0.3125 -0.0014
88808W        W31902  14.012   7.012   4.094 -0.4060 -0.0838  0.0493
88809W        W31903  11.623   6.273   2.659 -0.0876 -0.1613 -0.1372
88810W        W31904  12.489   6.432   2.912 -0.1076  0.0868 -0.0397
88811W        W31905  11.576   2.388   3.668 -0.2408 -0.0841  0.0949
88812W        W31906  13.131   6.313   0.874  0.1698  0.0014 -0.1967
88813W        W31907  14.220   6.853   0.339 -0.1599  0.5577  0.1370
88814W        W31908  13.734   3.338   3.078  0.2895 -0.1354 -0.2047
88815W        W31909  12.469   4.747   2.140  0.2987  0.2731  0.2612
88816W        W31910  13.706   2.702  31.768 -0.1148  0.1010  0.2435
88817W        W31911  11.720   6.893   2.868  0.1762 -0.2770 -0.0847
88818W        W31912  13.852   5.783   2.217  0.2251 -0.2476  0.1322
88819W        W31913  10.437   4.909   7.041  0.2853 -0.2461 -0.2833
88820W        W31914  12.159   4.113   4.200  0.0020  0.1811 -0.3603
88821W        W31915  14.534   3.348   5.087  0.1725 -0.0331  0.0079
88822W        W31916  14.498   6.527   3.932 -0.3347  0.0236 -0.2531
88823W        W31917  10.751   4.128   4.487  0.2919  0.5145  0.1263
88824W        W31918  14.168   5.952   4.741  0.2327 -0.3143 -0.4699
88825W        W31919  11.844   2.961   6.833 -0.0282 -0.1954  0.2878
88826W        W31920  12.448   6.472   4.177 -0.0607  0.0230 -0.0578
88827W        W31921  13.625   7.047   6.313  0.0903 -0.4108  0.1289
88828W        W31922  12.832   4.261   2.908  0.1224  0.2005 -0.0838
88829W        W31923  12.329   4.505   5.424  0.1806 -0.0619  0.0075
88830W        W31924  13.935   6.344   6.899  0.4083 -0.0054  0.0944
88831W        W31925  12.073   3.397   4.481  0.2221  0.0048 -0.4136
88832W        W31926  11.551   2.614   5.638 -0.4423  0.2276  0.0388
88833W        W31927  15.406   4.471   5.465 -0.1209 -0.3040 -0.0857
88834W        W31928  11.110   5.330   3.964  0.0446  0.1131 -0.0310
88835W        W31929  11.413   2.940   4.980  0.2934 -0.0371 -0.0190
88836W        W31930  12.100   4.580   4.579  0.1171  0.4031  0.0113
88837W        W31931  13.019   7.339   6.376  0.2100  0.0301 -0.3983
88838W        W31932  11.988   3.504   5.474 -0.2145 -0.0895 -0.0299
88839W        W31933  14.742   4.906   5.987 -0.0186 -0.0523 -0.0277
88840W        W31934  12.381   6.356   5.014  0.0213 -0.1540 -0.1145
88841W        W31935  10.829   4.558   2.876 -0.0502  0.0646  0.1056
88842W        W31936  10.683   4.727   3.331  0.1100  0.1300  0.2004
88843W        W31937  11.508   4.497   6.421  0.0611 -0.3660 -0.0866
88844W        W31938  13.883   3.732   5.241 -0.3401 -0.3201 -0.4357
88845W        W31939  13.530   4.421   6.512 -0.0300  0.2583 -0.0563
88846W        W31940  12.112   6.202   5.465  0.0932 -0.1809  0.1087
88847W        W31941  12.484   4.867   4.517  0.1916  0.4049 -0.0627
88848W        W31942  15.008   5.745   7.363 -0.2128  0.1318 -0.0125
88849W        W31943  11.760   5.255   3.358  0.6676 -0.1436 -0.1451
88850W        W31944  10.741   7.667   5.690  0.0530 -0.2343 -0.0893
88851W        W31945  11.136   5.873   3.944  0.2547  0.0041 -0.2333
88852W        W31946  14.252   5.362   4.384  0.4555  0.0241  0.0654
88853W        W31947  14.912   5.787   6.861  0.1181  0.0891 -0.4150
88854W        W31948  12.723   8.009   7.976  0.1181  0.0330  0.1287
88855W        W31949  11.664   5.466   3.834 -0.1291 -0.2497  0.2613
88856W        W31950  13.193   5.376   7.111 -0.1043  0.1684 -0.1487
88857W        W31951  12.734   5.646   7.060  0.1810 -0.0784  0.0162
88858W        W31952  12.889   5.180   6.222  0.1027  0.3913  0.2758
88859W        W31953  11.554   5.156   4.202  0.1440 -0.0372  0.3921
88860W        W31954  11.643   6.502   3.839  0.0371  0.0988 -0.0079
88861W        W31955  13.218   7.312   4.655 -0.0479 -0.0176 -0.3528
88862W        W31956  12.594   5.480   6.542 -0.2647 -0.2586  0.1698
88863W        W31957  11.022   4.624   6.260  0.3402 -0.0667 -0.2705
88864W        W31958  14.968   4.233   6.683  0.0631 -0.0460  0.1412
88865W        W31959  12.006   6.639   3.152 -0.2190  0.0128  0.1593
88866W        W31960  13.644   3.818   2.926 -0.0208  0.0498  0.0542
88867W        W31961  12.870   5.157   4.686  0.0613  0.0931  0.0914
88868W        W31962  13.335   4.907   4.604 -0.1151  0.0479 -0.1792
88869W        W31963  12.308   3.941   5.388 -0.2678 -0.1746  0.0334
88870W        W31964  13.080   7.650   5.027  0.1999 -0.4255  0.0815
88871W        W31965  11.989   3.740   5.962 -0.0784 -0.2111  0.0928
88872W        W31966  14.629   6.211   5.835 -0.0665 -0.0135 -0.1383
88873W        W31967  11.381   6.044   5.040 -0.0194  0.1909  0.1113
88874W        W31968  13.304   4.193   6.916  0.0215 -0.0633  0.0318
88875W        W31969  12.274   6.137   6.186  0.1174 -0.0458  0.0504
88876W        W31970  10.800   5.227   6.822 -0.1662 -0.0663  0.1896
88877W        W31971  13.042   7.176   2.740  0.0774 -0.1764 -0.0585
88878W        W31972  14.107   6.594   4.994  0.1007  0.0213  0.2911
88879W        W31973  11.306   6.201   4.358 -0.2116  0.1472 -0.2386
88880W        W31974  11.702   4.294   4.370 -0.0409 -0.0183  0.0668
88881W        W31975  12.911   6.048   7.429  0.0427 -0.3391 -0.3334
88882W        W31976  11.677   3.469   5.021 -0.0985 -0.2189  0.0319
88883W        W31977  12.461   3.933   4.671 -0.1114 -0.0169  0.0038
88884W        W31978  15.301   7.172   6.389  0.0996  0.0141  0.1475
88885W        W31979  11.146   6.284   8.094  0.0126 -0.2815  0.0209
88886W        W31980  13.287   5.846   4.232  0.2295 -0.2373  0.1576
88887W        W31981  13.086   5.914   6.916  0.1969 -0.3498  0.1637
88888W        W31982  15.363   5.730   7.016  0.2595  0.0897 -0.1484
88889W        W31983  12.472   5.673   3.814  0.2146  0.2994  0.0473
88890W        W31984  14.050   3.414   6.492  0.0175 -0.1742  0.1393
88891W        W31985  12.943   3.577   6.274  0.1080  0.1061  0.2959
88892W        W31986  10.245   6.166   2.131  0.1602  0.0169 -0.0492
88893W        W31987  11.775   6.171   3.499 -0.4409 -0.1129  0.2790
88894W        W31988  14.138   6.325   6.038  0.1327 -0.3399 -0.1255
88895W        W31989  13.598   4.202   3.338  0.0814  0.0035 -0.1722
88896W        W31990  11.270   6.676   6.910 -0.2644  0.0988 -0.2604
88897W        W31991  13.033   6.346   6.048  0.1181 -0.3124 -0.2545
88898W        W31992  13.204   6.279   7.810  0.4514  0.0066 -0.0039
88899W        W31993  11.537   7.245   4.365  0.0038  0.0320 -0.0985
88900W        W31994  10.348   3.588   3.313  0.3327  0.0111  0.2022
88901W        W31995  11.459   5.765   3.400  0.1379 -0.1348  0.0489
88902W        W31996  11.014   3.870   6.303  0.0433 -0.1316  0.1280
88903W        W31997  12.998   6.519   6.545  0.2111 -0.1998 -0.4471
88904W        W31998  12.788   3.628   3.968 -0.1372  0.0996 -0.1701
88905W        W31999   9.450   4.255   6.359  0.0612 -0.2253 -0.5057
88906W        W32000  15.838   3.324   4.365 -0.0366 -0.0787  0.2230
88907W        W32001  11.409   5.762   2.865  0.1039  0.0378 -0.0870
88908W        W32002  14.183   6.803   4.508 -0.0243  0.1971 -0.0849
88909W        W32003  13.391   4.936   4.094  0.1723 -0.1738  0.0903
88910W        W32004  13.776   5.304   4.101  0.2412 -0.0395 -0.0867
88911W        W32005  10.833   5.746   5.744 -0.0510  0.1473 -0.2434
88912W        W32006  11.336   3.903   3.490  0.2351  0.3475 -0.0190
88913W        W32007  12.292   4.121   7.164 -0.3010  0.2092  0.0667
88914W        W32008  10.174   2.880   6.109 -0.0343 -0.0336  0.1499
88915W        W32009  14.313   5.770   6.092 -0.0441 -0.0873  0.0846
88916W        W32010  10.178   4.824   3.995 -0.1015  0.0130 -0.0427
88917W        W32011  13.577   4.120   5.620  0.0284  0.1331 -0.3075
88918W        W32012  11.526   5.267   4.668  0.1255 -0.2802 -0.0438
88919W        W32013  10.658   4.603   4.714 -0.1986  0.2024 -0.1885
88920W        W32014  14.161   5.065   6.786 -0.0389 -0.2914  0.1611
88921W        W32015  12.843   6.124   4.240 -0.0869  0.1191  0.2050
88922W        W32016  14.026   6.718   6.353 -0.0959 -0.2644 -0.0234
88923W        W32017  14.328   7.586   7.099  0.1822  0.1407 -0.4244
88924W        W32018  11.522   4.842   7.239  0.0848 -0.3304  0.1617
88925W        W32019  10.663   3.186   3.462  0.2430 -0.0173 -0.0160
88926W        W32020  12.134   7.786   5.022 -0.3553  0.2840  0.1274
88927W        W32021  12.371   5.064   6.291 -0.0407 -0.0301 -0.0737
88928W        W32022  11.922   4.572   3.972  0.0132  0.0009  0.0968
88929W        W32023  14.344   6.932   5.335 -0.2084  0.0803 -0.0597
88930W        W32024  11.756   3.753   4.182 -0.2861 -0.1450  0.1109
88931W        W32025  10.890   6.591   6.320 -0.0510  0.1238  0.0235
88932W        W32026  13.794   4.728   6.752  0.1105 -0.1416 -0.0913
88933W        W32027  15.002   6.179   5.455  0.1889 -0.2989 -0.3595
88934W        W32028  12.599   4.221   5.076 -0.2487  0.3363 -0.2168
88935W        W32029  10.951   2.942   3.890 -0.2416 -0.0035  0.0797
88936W        W32030  12.409   6.543   5.878  0.2992 -0.3529  0.0326
88937W        W32031  10.526   7.425   3.368  0.2428  0.4190 -0.1834
88938W        W32032  10.694   4.934   5.814 -0.1254  0.0833  0.0436
88939W        W32033  12.345   5.400   5.346 -0.0391 -0.0992  0.1160
88940W        W32034  13.069   3.355   4.714  0.0071 -0.0686 -0.1895
88941W        W32035  12.082   5.085   8.803 -0.1259 -0.3764  0.2605
88942W        W32036  14.599   3.494   6.244  0.1999  0.0577  0.1123
88943W        W32037  11.578   4.796   3.002 -0.0440 -0.0680  0.2285
88944W        W32038  11.756   5.789   6.782 -0.3390  0.1561  0.0596
88945W        W32039  12.931   3.779   5.430  0.1171 -0.2240 -0.2159
88946W        W32040  14.100   4.697   4.996  0.5460 -0.1570 -0.2160
88947W        W32041  11.518   4.406   6.924  0.2102  0.1129 -0.0626
88948W        W32042  14.019   5.765   4.096 -0.0508 -0.2037  0.1236
88949W        W32043  13.634   5.102   3.577 -0.1999  0.0186 -0.0574
88950W        W32044  11.798   2.455   4.118 -0.1432 -0.2167  0.0837
88951W        W32045  11.318   6.564   8.561  0.0557 -0.3696  0.1697
88952W        W32046  13.067   7.140   5.407  0.2868 -0.2363 -0.2708
88953W        W32047  11.719   6.276   5.950  0.2726 -0.0891 -0.1474
88954W        W32048  13.373   5.331   4.398 -0.0837 -0.0456  0.0877
88955W        W32049  15.849   5.543   5.199  0.3367 -0.0275  0.2100
88956W        W32050  10.716   5.149   6.281 -0.1307  0.1494 -0.1584
88957W        W32051  13.296   7.253   7.931 -0.1878 -0.1862 -0.0355
88958W        W32052  12.941   4.771   4.340 -0.0489 -0.0526  0.0455
88959W        W32053  12.987   4.273   5.317 -0.2034 -0.0541 -0.0976
88960W        W32054  12.014   7.171   3.201  0.1271  0.0429  0.2009
88961W        W32055  12.305   2.919   4.584  0.2082 -0.0035  0.1706
88962W        W32056  10.799   6.091   3.381 -0.0023 -0.2017 -0.3092
88963W        W32057  13.881   3.273   5.442  0.0884 -0.1203 -0.0070
88964W        W32058  12.755   3.133   6.154  0.2064 -0.2005 -0.1255
88965W        W32059  13.236   4.595   7.382  0.1837  0.0156 -0.0418
88966W        W32060  12.819   5.257   7.786 -0.1331  0.1667  0.1248
88967W        W32061  12.569   3.634   5.830  0.0900  0.0829  0.0738
88968W        W32062  12.347   7.074   5.603  0.3668  0.0775 -0.0723
88969W        W32063  11.948   6.120   3.010 -0.0077  0.0058  0.0184
88970W        W32064  12.179   4.531   6.318  0.0635 -0.0169  0.1248
88971W        W32065  11.329   5.369   6.747 -0.0776  0.3309 -0.3523
88972W        W32066  12.536   5.842   5.455 -0.1215  0.4825  0.1486
88973W        W32067  13.208   5.545   6.602  0.0028 -0.5036  0.2566
88974W        W32068  12.318   4.718   4.992  0.1908 -0.1473 -0.0975
88975W        W32069  11.821   5.046   6.297 -0.2972  0.0483 -0.0247
88976W        W32070  11.096   4.632   5.782 -0.0327 -0.2813  0.1220
88977W        W32071  12.675   7.294   5.158  0.3128  0.2577 -0.1766
88978W        W32072  10.905   5.601   2.057 -0.0518 -0.0131  0.2203
88979W        W32073  11.323   3.978   4.439 -0.2025  0.1984 -0.0278
88980W        W32074  13.433   6.212   7.352  0.3001  0.0335 -0.2422
88981W        W32075  12.501   6.928   2.843 -0.3864 -0.0493 -0.0698
88982W        W32076  12.866   4.661   7.687  0.2095 -0.3235 -0.0405
88983W        W32077  11.236   7.648   3.604 -0.1352  0.0211 -0.0957
88984W        W32078  13.419   3.601   5.505  0.0974 -0.1653 -0.0804
88985W        W32079  11.053   6.575   4.544 -0.2082  0.1927  0.0084
88986W        W32080  12.533   5.110   3.129 -0.2975  0.0565  0.0968
88987W        W32081  10.555   6.123   2.941  0.0492  0.0375  0.1991
88988W        W32082  13.366   4.280   6.084 -0.1751  0.0104  0.0510
88989W        W32083  13.179   6.363   3.830  0.0106 -0.0570 -0.2977
88990W        W32084  11.621   3.975   5.714  0.0560 -0.1041 -0.1929
88991W        W32085  11.125   5.012   4.488 -0.1031  0.0954 -0.0460
88992W        W32086  10.831   6.066   6.316 -0.1662  0.2561 -0.0559
88993W        W32087  12.687   5.586   5.066  0.0833 -0.0784  0.0551
88994W        W32088  12.903   3.279   3.629 -0.3371 -0.0250 -0.1547
88995W        W32089  13.474   6.279   5.905  0.1075  0.0239  0.1694
88996W        W32090  11.611   5.375   7.125  0.0938 -0.0558  0.3218
88997W        W32091  11.294   4.394   3.503  0.1834 -0.2481 -0.1163
88998W        W32092  13.715   4.930   5.229 -0.2027  0.2950 -0.2090
88999W        W32093  11.012   4.240   3.992  0.5343 -0.2386 -0.2741
89000W        W32094  11.828   5.814   5.965  0.1071 -0.1983  0.0226
89001W        W32095  11.962   6.668   5.680 -0.0994  0.3199 -0.2901
89002W        W32096  10.746   5.477   2.848  0.3210 -0.0566  0.1631
89003W        W32097  11.794   6.594   5.232  0.0049  0.0002 -0.1147
89004W        W32098  12.820   2.838   7.096 -0.0924  0.2040  0.0473
89005W        W32099  13.224   4.891   5.839 -0.0378 -0.1334  0.2137
89006W        W32100  12.126   4.948   5.411  0.6266  0.4098 -0.0430
89007W        W32101  11.066   3.920   5.742 -0.3151 -0.0021  0.0344
89008W        W32102  12.637   4.346   4.510 -0.4503 -0.1158  0.0074
89009W        W32103  12.965   5.686   5.975  0.1503  0.2237  0.0004
89010W        W32104  14.048   4.600   6.346 -0.0332  0.0874  0.0511
89011W        W32105  12.751   6.285   6.972  0.2018  0.2775  0.2494
89012W        W32106  12.659   3.294   6.648  0.2260  0.0146 -0.2174
89013W        W32107  14.672   6.514   5.104 -0.1291 -0.2429  0.0415
89014W        W32108  12.056   4.820   7.292  0.1812  0.0169  0.1725
89015W        W32109  10.810   5.097   4.890  0.0452  0.0035  0.0737
89016W        W32110  10.166   6.074   6.367  0.1517 -0.0542 -0.0141
89017W        W32111  12.270   6.831   5.172 -0.3831 -0.1733  0.1209
89018W        W32112  14.782   3.765   6.646 -0.1239  0.1358 -0.1813
89019W        W32113  11.444   3.963   6.625 -0.3477 -0.2391 -0.0934
89020W        W32114  11.596   4.743   4.531  0.3554 -0.0288 -0.0769
89021W        W32115  11.923   5.729   5.495  0.4422 -0.0853  0.0871
89022W        W32116  14.797   4.285   4.635  0.2027  0.0749 -0.0366
89023W        W32117  12.649   6.278   3.682  0.1348 -0.0041 -0.0884
89024W        W32118  11.821   4.503   5.271  0.0452 -0.1822 -0.1634
89025W        W32119  15.373   4.841   5.076 -0.0905  0.1697 -0.0213
89026W        W32120  12.628   4.629   3.377 -0.1212 -0.3110  0.1666
89027W        W32121  13.871   3.364   7.005  0.0199 -0.1237  0.0225
89028W        W32122  10.993   3.142   6.680 -0.0218 -0.0466  0.0436
89029W        W32123  13.965   5.653   6.541  0.1580  0.1683  0.1722
89030W        W32124  10.775   4.311   6.016  0.0165 -0.0209  0.0131
89031W        W32125  13.230   5.986   6.304 -0.0754  0.3080 -0.4017
89032W        W32126  11.872   5.119   7.733 -0.1688  0.1622  0.2175
89033W        W32127  12.064   3.243   5.905  0.0133  0.2638  0.0216
89034W        W32128  12.219   4.791   3.632  0.0168 -0.1438 -0.2929
89035W        W32129  12.012   6.904   6.177 -0.2975  0.0683  0.2537
89036W        W32130  13.157   5.030   5.205  0.0989 -0.0221 -0.0392
89037W        W32131  11.474   6.772   4.257  0.0689  0.1939 -0.1137
89038W        W32132  13.246   4.103   4.154  0.2412 -0.2872  0.1179
89039W        W32133  11.126   5.245   5.796  0.2858  0.2149 -0.2615
89040W        W32134  11.909   6.417   4.258  0.1359  0.1186 -0.0257
89041W        W32135  12.466   5.198   4.114  0.0911  0.0291 -0.0884
89042W        W32136  10.388   4.740   6.158 -0.0512 -0.0317 -0.0115
89043W        W32137  11.829   4.166   6.143 -0.0910 -0.0623 -0.1515
89044W        W32138  13.454   5.787   5.914  0.3651  0.0248  0.0503
89045W        W32139  12.089   3.704   5.016 -0.1266  0.2022  0.0753
89046W        W32140  15.372   4.774   5.951  0.0447 -0.2648 -0.1840
89047W        W32141  13.649   4.655   6.042 -0.2080  0.2504  0.2135
89048W        W32142  11.967   5.862   7.243 -0.5118  0.1314  0.0281
89049W        W32143  10.546   3.378   6.820 -0.0051 -0.0719  0.0228
89050W        W32144  13.585   7.384   6.630  0.0039 -0.0039  0.1472
89051W        W32145  14.714   5.505   3.913  0.2139 -0.3042 -0.1607
89052W        W32146  14.328   5.213   6.325  0.0450  0.2384  0.1420
89053W        W32147  15.467   3.489   4.738 -0.0457  0.1575  0.3578
89054W        W32148  12.909   3.846   4.387 -0.2050 -0.1908 -0.1942
89055W        W32149  10.920   5.388   5.354  0.1220  0.2034  0.1270
89056W        W32150  14.196   5.927   8.012  0.1399  0.0041  0.1537
89057W        W32151  11.725   2.914   4.427 -0.1150  0.2157  0.1686
89058W        W32152  14.169   4.522   7.012  0.1414  0.2995 -0.2647
89059W        W32153  12.534   7.037   4.207 -0.1037  0.1829  0.2193
89060W        W32154  12.651   4.194   5.668  0.4668  0.0530 -0.6264
89061W        W32155  12.933   5.355   5.523 -0.1585  0.1863  0.0928
89062W        W32156  10.023   4.494   4.926 -0.1183  0.0010 -0.2509
89063W        W32157  12.422   6.923   7.767 -0.0111 -0.1147 -0.1886
89064W        W32158  11.282   5.245   3.040  0.1019 -0.1208  0.0375
89065W        W32159  11.889   5.630   3.066  0.2414 -0.1844 -0.1634
89066W        W32160  11.771   5.258   5.367 -0.2430 -0.0533 -0.1299
89067W        W32161  14.750   5.443   6.166  0.1266 -0.0975 -0.2147
89068W        W32162  11.400   3.109   3.968 -0.3646  0.0354  0.1121
89069W        W32163  14.336   3.295   7.171 -0.1739  0.0722 -0.1147
89070W        W32164  11.879   6.976   4.763 -0.0603 -0.4545  0.0696
89071W        W32165  12.550   2.162   6.448 -0.0488  0.4514  0.0455
89072W        W32166  12.547   5.119   5.786  0.0318 -0.3754  0.2661
89073W        W32167  10.992   5.542   7.159 -0.1170  0.1133 -0.0883
89074W        W32168  12.811   6.691   5.080 -0.2006  0.0174 -0.1616
89075W        W32169  14.187   3.740   6.939 -0.0609 -0.0555  0.2046
89076W        W32170  14.399   4.961   5.390 -0.2902 -0.1168 -0.0155
89077W        W32171  12.058   4.730   5.876 -0.0187  0.0432 -0.3213
89078W        W32172  14.633   5.242   6.786 -0.1537 -0.0380 -0.0996
89079W        W32173  13.383   4.926   7.052  0.0475  0.2810 -0.5323
89080W        W32174  11.303   5.161   5.130  0.0416 -0.0442  0.1441
89081W        W32175  13.761   5.028   5.727 -0.2909  0.2065 -0.1134
89082W        W32176  15.093   4.333   5.085  0.2941 -0.2159  0.1346
89083W        W32177  12.126   5.620   6.446  0.2270 -0.0790  0.0008
89084W        W32178  10.353   3.789   7.360  0.1217  0.2822  0.2408
89085W        W32179  13.917   5.760   7.609 -0.1486  0.3959  0.0377
89086W        W32180  11.724   4.927   4.960  0.0159 -0.0629 -0.0052
89087W        W32181  11.010   3.550   4.593  0.1073 -0.3043 -0.0080
89088W        W32182  10.994   5.677   3.207 -0.0022 -0.1635  0.0429
89089W        W32183  11.860   6.563   6.476 -0.0981 -0.3950 -0.0235
89090W        W32184  10.580   3.950   5.747 -0.0303  0.1597 -0.3197
89091W        W32185  11.437   7.440   4.839  0.2776 -0.1337  0.2599
89092W        W32186  12.908   5.501   4.133  0.0083  0.0545  0.0600
89093W        W32187  12.579   7.143   3.394 -0.2288  0.1319 -0.0896
89094W        W32188  12.703   6.801   6.189  0.2593 -0.1855 -0.0820
89095W        W32189  10.489   4.492   3.750  0.1070 -0.2090  0.3420
89096W        W32190  11.350   6.881   4.780  0.2013  0.1774 -0.3118
89097W        W32191  11.255   6.199   3.537  0.0217  0.5947 -0.1846
89098W        W32192  12.573   7.651   4.702 -0.0760  0.2835 -0.1045
89099W        W32193  10.585   5.735   4.178 -0.3861 -0.0903 -0.3213
89100W        W32194  13.576   5.275   6.752 -0.2472 -0.0027 -0.1488
89101W        W32195  12.876   3.815   4.939  0.2177  0.1203  0.1890
89102W        W32196  14.946   4.539   6.242  0.2870  0.1874 -0.0502
89103W        W32197  14.574   3.810   4.795 -0.2421  0.1701 -0.0142
89104W        W32198  14.169   5.940   7.162  0.2278 -0.4558 -0.1511
89105W        W32199  11.306   4.250   6.057 -0.0482  0.0149 -0.0051
89106W        W32200  12.683   4.108   3.435  0.1754 -0.2248  0.1379
89107W        W32201  12.315   5.745   6.862 -0.0207 -0.1934 -0.1321
89108W        W32202  16.112   3.788   6.802 -0.0390  0.1609  0.1615
89109W        W32203  11.310   6.838   6.474  0.0892 -0.2176  0.1065
89110W        W32204  12.412   5.497   4.567 -0.0438 -0.2909 -0.1762
89111W        W32205  12.801   5.071   3.646 -0.0774 -0.0878  0.1424
89112W        W32206  11.549   5.464   5.841  0.2923  0.1238 -0.0156
89113W        W32207  14.738   3.651   7.258  0.0237  0.0738  0.1333
89114W        W32208  12.891   6.664   4.172 -0.1229 -0.1902  0.0944
89115W        W32209  14.076   4.180   5.320 -0.0158 -0.0408  0.1126
89116W        W32210  12.169   5.206   4.901  0.1321 -0.2526  0.0898
89117W        W32211  11.835   6.032   6.384  0.2488  0.1632 -0.0644
89118W        W32212  12.147   8.565   5.418  0.1570  0.0447  0.1180
89119W        W32213  10.135   3.139   3.575 -0.0513  0.0285 -0.3273
89120W        W32214  14.756   5.242   4.618  0.3364 -0.1083  0.1440
89121W        W32215  12.349   3.571   6.337 -0.0724 -0.0038  0.0276
89122W        W32216  14.496   3.314   6.677  0.1759  0.3149 -0.1948
89123W        W32217  10.943   4.277   4.989  0.0372  0.1345  0.0628
89124W        W32218  14.397   4.774   4.434  0.0827 -0.2100  0.1308
89125W        W32219  12.649   4.349   6.431 -0.0836 -0.0134 -0.0852
89126W        W32220  11.136   4.833   6.670 -0.2018 -0.2441 -0.0524
89127W        W32221  12.008   5.053   4.424 -0.2808  0.2440 -0.1242
89128W        W32222  15.844   5.229   6.813 -0.0560  0.1856  0.1770
89129W        W32223  13.000   5.829   3.760  0.0829 -0.0716 -0.1605
89130W        W32224  14.177   7.014   7.175  0.0366 -0.0691 -0.2580
89131W        W32225  10.472   5.065   5.419 -0.1007 -0.3010 -0.0544
89132W        W32226  12.511   3.410   4.757  0.1152  0.0779  0.2139
89133W        W32227   9.958   5.920   5.469 -0.0497 -0.0767 -0.0326
89134W        W32228  12.066   5.381   7.369 -0.1219 -0.1009 -0.1635
89135W        W32229  13.595   5.778   7.086 -0.0165 -0.1712  0.0021
89136W        W32230  11.189   3.384   5.036 -0.0128  0.1607  0.1635
89137W        W32231  14.775   6.963   3.152 -0.1380  0.1699 -0.0514
89138W        W32232  13.390   4.651   5.018  0.0486  0.1495  0.1776
89139W        W32233  12.348   7.642   4.109  0.0690  0.0523 -0.0824
89140W        W32234  13.536   6.115   6.716  0.0513  0.3939 -0.0551
89141W        W32235  12.840   6.680   5.668 -0.4761 -0.0960 -0.3461
89142W        W32236  10.356   5.221   6.604  0.0715 -0.2219  0.1969
89143W        W32237  13.815   5.954   6.167 -0.1906  0.3586 -0.0295
89144W        W32238  14.754   5.987   6.345 -0.1905  0.1992  0.2639
89145W        W32239  11.783   2.836   6.052  0.3093  0.1969 -0.0354
89146W        W32240  10.970   5.517   4.437  0.2537  0.1271 -0.1715
89147W        W32241  11.555   6.724   6.071  0.2152 -0.1561  0.3068
89148W        W32242  14.627   3.972   5.238  0.1131 -0.1337  0.2325
89149W        W32243  14.218   4.853   5.930 -0.1379  0.2017  0.0469
89150W        W32244  12.441   7.393   2.996 -0.1247  0.3265  0.0392
89151W        W32245  15.477   4.156   7.442  0.2245  0.0535 -0.0696
89152W        W32246  13.744   6.783   6.738 -0.3902  0.3468 -0.2292
89153W        W32247  11.767   6.822   7.770  0.1699  0.0680  0.2538
89154W        W32248  11.803   4.554   2.586  0.1758  0.0698  0.1831
89155W        W32249  12.554   4.643   5.891 -0.1493  0.1389 -0.1095
89156W        W32250  12.363   6.020   3.274  0.0509  0.1445 -0.4098
89157W        W32251  11.695   5.628   5.057 -0.2387  0.3798 -0.1859
89158W        W32252  14.492   6.402   4.671 -0.1573  0.2076  0.2977
89159W        W32253  12.830   4.711   4.891  0.0794 -0.0011  0.3051
89160W        W32254  13.892   5.129   4.627  0.0841 -0.3376 -0.0348
89161W        W32255  12.840   4.710   5.470 -0.0830 -0.2573  0.3270
89162W        W32256  15.120   4.699   4.562  0.2414 -0.0789  0.0192
89163W        W32257  13.381   3.103   5.520  0.1723  0.0026  0.2012
89164W        W32258  13.341   6.982   8.364  0.0827  0.0875  0.0804
89165W        W32259  11.395   5.057   3.682 -0.2264  0.0738 -0.1029
89166W        W32260  12.240   6.618   3.741  0.3986  0.0334  0.1390
89167W        W32261  11.607   5.535   6.312  0.0390  0.3399 -0.0515
89168W        W32262  13.224   4.307   7.800 -0.0250 -0.2433 -0.0453
89169W        W32263  11.504   3.699   6.102  0.0459  0.0073  0.1471
89170W        W32264   9.614   3.689   6.337  0.0013  0.4039 -0.1771
89171W        W32265  11.547   3.382   4.538 -0.0268  0.1092 -0.1870
89172W        W32266  12.833   6.140   5.038 -0.1725  0.0830  0.0678
89173W        W32267  11.605   3.049   5.426 -0.0599 -0.2367 -0.3232
89174W        W32268  10.900   1.886   4.274 -0.0023 -0.2196 -0.3729
89175W        W32269  12.594   5.091   5.091  0.2772 -0.0152 -0.1412
89176W        W32270  12.107   4.224   4.931  0.1089 -0.2037 -0.1623
89177W        W32271  11.745   3.982   5.200 -0.2138  0.1332 -0.0875
89178W        W32272  15.986   6.811   6.242  0.0664 -0.0909  0.6284
89179W        W32273  10.212   5.520   3.865  0.1499 -0.1050 -0.0458
89180W        W32274  13.271   3.930   6.506 -0.2860 -0.2745  0.0124
89181W        W32275  12.803   3.993   6.754  0.0441 -0.2910 -0.0658
89182W        W32276  10.860   4.248   3.299 -0.0288 -0.2862 -0.1211
89183W        W32277  11.186   4.434   4.434 -0.0149  0.0493  0.1569
89184W        W32278  12.172   5.751   4.990  0.1586 -0.3557  0.0995
89185W        W32279  14.730   7.316   3.503  0.2986 -0.0711  0.1115
89186W        W32280  13.288   6.551   6.925  0.2587 -0.1148  0.5014
89187W        W32281  11.725   7.138   5.833 -0.1174  0.1547  0.2706
89188W        W32282  12.336   3.148   7.141  0.1185  0.1925  0.2132
89189W        W32283  14.038   4.936   4.014 -0.1227 -0.2524 -0.1163
89190W        W32284  11.631   6.272   6.897  0.0822  0.0304  0.2377
89191W        W32285  12.754   6.812   3.738 -0.0350  0.5135  0.1565
89192W        W32286  15.362   2.719   5.386 -0.2053  0.0495 -0.2230
89193W        W32287  12.462   6.036   4.599 -0.3064  0.1825 -0.1017
89194W        W32288  11.328   2.897   7.862  0.0026 -0.1293 -0.4748
89195W        W32289  11.857   6.399   7.407 -0.0984  0.0750 -0.1209
89196W        W32290  13.363   5.311   6.210 -0.0293  0.2201 -0.2020
89197W        W32291  10.615   3.259   4.585  0.0272 -0.0804 -0.1429
89198W        W32292  13.599   3.181   4.576 -0.1887 -0.3628 -0.2631
89199W        W32293  13.255   5.836   3.070 -0.0744 -0.3249 -0.0791
89200W        W32294  11.449   3.527   5.465 -0.0000  0.2557 -0.1810
89201W        W32295  11.483   4.346   4.903  0.0179  0.2445  0.0175
89202W        W32296  12.908   6.560   7.505  0.0158  0.3208  0.1891
89203W        W32297  12.194   7.568   5.617 -0.1358 -0.0080 -0.2442
89204W        W32298  14.477   5.660   6.622  0.0099  0.1694  0.2159
89205W        W32299  11.418   4.637   3.968  0.1191  0.0303 -0.2470
89206W        W32300  15.003   5.593   4.895  0.0354 -0.1364  0.1470
89207W        W32301  13.443   7.495   6.119  0.1340 -0.1619  0.1139
89208W        W32302  14.389   5.779   7.587  0.1517 -0.3588  0.1657
89209W        W32303  12.459   6.451   6.540  0.3911 -0.1043 -0.2564
89210W        W32304  13.307   5.380   4.874  0.0369 -0.0415 -0.0187
89211W        W32305  10.704   3.238   5.249  0.0587 -0.0833  0.0514
89212W        W32306  11.595   4.972   5.862 -0.1055  0.3227  0.4152
89213W        W32307  10.436   5.392   5.798 -0.0224 -0.0310  0.0018
89214W        W32308  13.066   4.250   4.797 -0.3904 -0.1741  0.0189
89215W        W32309  12.057   4.222   5.723 -0.0458 -0.0812 -0.2184
89216W        W32310  12.480   3.165   5.659 -0.1215 -0.4645 -0.2190
89217W        W32311  12.674   6.944   6.706 -0.3480  0.3599  0.0623
89218W        W32312  11.588   4.476   5.726  0.1312 -0.1385 -0.0710
89219W        W32313  14.402   8.271  10.009 -0.0071  0.1504  0.2260
89220W        W32314  12.217   4.087   6.652 -0.3114  0.1210  0.0139
89221W        W32315  13.660   4.464   7.105 -0.2997 -0.1352 -0.0188
89222W        W32316  13.002   3.642   9.051 -0.1298 -0.1003 -0.0760
89223W        W32317  13.260   3.690   9.444 -0.1218  0.0192 -0.3572
89224W        W32318  12.541   6.749   8.290  0.0034  0.0575  0.0525
89225W        W32319  12.138   6.574   9.294 -0.2433 -0.0750 -0.0778
89226W        W32320  14.516   6.650  12.269  0.1530  0.3511  0.1966
89227W        W32321  12.892   4.827   7.142 -0.2585  0.0248  0.0165
89228W        W32322  12.718   4.151   9.752 -0.1280 -0.0269  0.1494
89229W        W32323  12.914   3.199   8.221  0.0448 -0.3428  0.0948
89230W        W32324  11.523   2.995   8.393 -0.2611  0.1039 -0.2401
89231W        W32325  15.989   4.550   9.287 -0.0485  0.1034  0.0342
89232W        W32326  10.514   6.561   8.666  0.0798 -0.5871 -0.0559
89233W        W32327  12.912   4.894   9.928  0.0002  0.1318 -0.0853
89234W        W32328  12.525   4.868   8.017 -0.1402  0.0046  0.1451
89235W        W32329  14.111   7.326   9.818  0.0148  0.3968  0.1489
89236W        W32330  14.115   4.315   9.608  0.2831  0.1669  0.1991
89237W        W32331  15.263   6.521   9.729  0.0708  0.1390 -0.2984
89238W        W32332  12.398   5.102   7.609  0.1106  0.0784 -0.0327
89239W        W32333  10.424   4.966   8.385 -0.2546 -0.1734 -0.2729
89240W        W32334  11.547   5.903   9.129  0.0703 -0.0618 -0.1318
89241W        W32335  13.289   4.836   9.081  0.1052 -0.0684 -0.0613
89242W        W32336  13.619   7.109   9.425 -0.2749  0.0446 -0.2347
89243W        W32337  12.480   7.935   8.403 -0.3421  0.1583  0.0224
89244W        W32338  13.483   8.087   9.481  0.0223  0.4255 -0.1130
89245W        W32339  11.155   5.381   9.735 -0.0022 -0.0594 -0.1161
89246W        W32340  11.134   8.883   7.369  0.1778  0.0983 -0.2596
89247W        W32341  11.753   5.478   8.068  0.0452  0.0300 -0.2119
89248W        W32342  15.611   5.785  10.010  0.0936 -0.1429 -0.0428
89249W        W32343  11.410   5.821   8.061 -0.3544 -0.1077 -0.0136
89250W        W32344  11.953   2.458  10.155 -0.3368  0.2732  0.2804
89251W        W32345  13.450   5.737   9.151  0.2754 -0.2628  0.6210
89252W        W32346  11.235   6.328   7.315 -0.0974 -0.0058  0.1881
89253W        W32347  12.864   6.725   9.169 -0.0866 -0.2492  0.0530
89254W        W32348  11.689   6.404   8.903 -0.2068 -0.0123 -0.0902
89255W        W32349   9.993   7.848   7.837 -0.1125  0.3051  0.0366
89256W        W32350  13.732   6.163   7.910 -0.1544  0.0311  0.0843
89257W        W32351  12.144   6.530   7.831  0.1777 -0.3653 -0.2099
89258W        W32352  14.148   4.205   8.698 -0.2786  0.2276 -0.1469
89259W        W32353  13.544   3.742   6.850 -0.1073  0.1477  0.3042
89260W        W32354  10.052   6.518   8.941 -0.0228 -0.0050 -0.3018
89261W        W32355  12.199   5.554  10.080 -0.0785  0.3530 -0.0659
89262W        W32356  12.205   5.494   7.903 -0.0606  0.0567  0.1448
89263W        W32357  12.838   4.487   8.194  0.0286 -0.1964 -0.2078
89264W        W32358  15.017   3.007   9.702  0.0637  0.2623  0.3187
89265W        W32359  10.356   5.252  10.208 -0.2794 -0.4547  0.0902
89266W        W32360  14.275   6.258   8.793 -0.0436 -0.1157 -0.0432
89267W        W32361  14.866   5.682   9.480  0.0826  0.0873  0.0271
89268W        W32362  12.789   7.556   8.519  0.1529  0.0351  0.3034
89269W        W32363  10.797   5.352   8.725 -0.2639  0.1048  0.0519
89270W        W32364  11.900   3.784   6.505 -0.0127 -0.1505 -0.0241
89271W        W32365  14.067   3.886   9.180 -0.0115  0.1387  0.0044
89272W        W32366  13.048   7.067   8.760  0.0585  0.2779  0.0526
89273W        W32367  15.339   6.851   9.305  0.0948 -0.0521  0.1228
89274W        W32368  12.496   5.857   8.042 -0.0064  0.0355 -0.0432
89275W        W32369  13.422   3.941   9.045  0.3883 -0.1835  0.3231
89276W        W32370  14.168   2.810   9.621  0.2783 -0.1073 -0.2466
89277W        W32371  12.965   5.784   7.827  0.1081 -0.1588  0.1499
89278W        W32372  12.238   6.237   8.331 -0.0417  0.0834  0.1669
89279W        W32373  16.489   4.385  10.067  0.1093 -0.1969  0.0060
89280W        W32374  12.539   5.604   7.509 -0.3171  0.0146  0.0343
89281W        W32375  13.888   6.487   9.082 -0.0308 -0.0187  0.0291
89282W        W32376  12.168   7.788   6.658  0.2256 -0.2795  0.0870
89283W        W32377  12.294   7.959   9.264 -0.0293 -0.1815 -0.0822
89284W        W32378  11.732   5.358   9.044  0.1844 -0.0247  0.2526
89285W        W32379   9.293   3.670  10.257 -0.0377 -0.0984 -0.0582
89286W        W32380  13.861   8.592   9.349  0.0396  0.1054  0.0751
89287W        W32381  13.989   4.716   8.582 -0.3676 -0.0673  0.0078
89288W        W32382  14.567   2.394   9.358 -0.0658  0.1167 -0.2482
89289W        W32383  11.889   6.014   8.035  0.0395  0.0474 -0.1419
89290W        W32384  15.076   6.507   8.993  0.3555 -0.0836  0.1264
89291W        W32385  14.266   5.100   8.797 -0.1057  0.0728  0.1412
89292W        W32386  13.914   6.292   7.438  0.0791  0.1073  0.3518
89293W        W32387  11.663   4.928  10.082 -0.1525 -0.0905 -0.0352
89294W        W32388  11.943   4.631   8.607 -0.1556  0.0928  0.0241
89295W        W32389  11.765   3.087   9.458 -0.4221  0.0707 -0.1765
89296W        W32390  11.785   2.592   9.313  0.2804 -0.0464  0.1286
89297W        W32391  13.317   5.383   8.439  0.1671 -0.0504 -0.3125
89298W        W32392  13.201   5.122   9.567 -0.2083  0.0319 -0.2994
89299W        W32393  11.011   6.361   8.936  0.0257  0.1586 -0.2760
89300W        W32394  13.462   6.748   7.861 -0.0938 -0.0678 -0.5262
89301W        W32395  14.790   5.025   8.521  0.1041  0.1115 -0.2406
89302W        W32396  13.384   7.495   8.537 -0.3217 -0.0936 -0.3672
89303W        W32397  12.653   4.339   8.820 -0.0484 -0.2376  0.3012
89304W        W32398  13.680   5.716   8.568  0.0757 -0.6409 -0.3081
89305W        W32399  10.729   6.905   9.724 -0.0586  0.2264 -0.2212
89306W        W32400  12.144   6.611   8.617  0.3557 -0.1601 -0.0579
89307W        W32401  12.186   3.411   8.729 -0.1049 -0.2065 -0.1571
89308W        W32402  14.798   6.714   9.563  0.1662 -0.2422 -0.1880
89309W        W32403  13.536   6.342   8.771  0.2779 -0.1688 -0.1036
89310W        W32404  13.088   3.251   9.378  0.0710 -0.1949  0.0619
89311W        W32405  13.882   3.924  11.074  0.2384 -0.1902  0.3593
89312W        W32406  12.053   4.542   6.837 -0.0904  0.3448 -0.2345
89313W        W32407  12.609   6.780   8.766 -0.0636  0.2190  0.1199
89314W        W32408  10.399   8.348   8.580 -0.1468  0.1368  0.2386
89315W        W32409   9.530   5.672   8.529 -0.0820  0.0051  0.1284
89316W        W32410  12.843   7.390   9.826 -0.0175  0.2329 -0.1881
89317W        W32411  13.403   2.904   9.138  0.1111  0.1833  0.2396
89318W        W32412  12.541   5.358   8.226  0.0004 -0.0186  0.1393
89319W        W32413  14.797   3.753   7.741 -0.0064  0.1110  0.1204
89320W        W32414  14.665   4.626   7.034  0.0672 -0.0499  0.1632
89321W        W32415  13.944   5.259   9.856 -0.1387 -0.2661  0.3114
89322W        W32416  13.826   5.047   6.324 -0.0044 -0.0476 -0.1162
89323W        W32417  12.493   4.755   6.737 -0.0155  0.1549  0.1037
89324W        W32418  12.798   6.858   9.812 -0.0987 -0.2186  0.0354
89325W        W32419  17.141   2.713  10.072 -0.0594 -0.1064 -0.0493
89326W        W32420  12.929   4.125   6.056  0.3052 -0.2290  0.2086
89327W        W32421  14.366   6.534   7.234 -0.4348  0.1751  0.1357
89328W        W32422  11.902   5.875   8.517 -0.3020  0.1679  0.0320
89329W        W32423  14.832   6.104   9.148  0.0835 -0.0303 -0.0858
89330W        W32424   9.680   3.098  10.100  0.1405  0.2085  0.0423
89331W        W32425  12.467   4.604   7.421 -0.0842 -0.1885  0.0623
89332W        W32426  14.239   4.388   7.598 -0.0060  0.1031 -0.0977
89333W        W32427  11.140   6.748   7.891  0.1507 -0.0190  0.3520
89334W        W32428  13.246   2.434   9.237  0.0897  0.0442  0.0558
89335W        W32429  12.725   2.319   7.970 -0.2489 -0.1779 -0.0976
89336W        W32430  13.273   5.370   7.938  0.0907  0.2898 -0.0613
89337W        W32431  13.305   6.753   9.553 -0.2239  0.2669 -0.1564
89338W        W32432  11.661   5.830   7.627 -0.4067  0.0970 -0.0987
89339W        W32433  12.351   3.279   9.618 -0.0362 -0.1715 -0.1175
89340W        W32434  11.282   7.289   9.083  0.2916 -0.0574  0.2206
89341W        W32435  13.222   5.940   8.676  0.1153  0.2295  0.0951
89342W        W32436  13.765   5.546   8.074  0.3694  0.1955 -0.1759
89343W        W32437  11.793   5.592   9.471  0.4058 -0.1320  0.2342
89344W        W32438  12.218   5.999   7.627  0.1399  0.1398  0.0412
89345W        W32439  12.435   3.469  10.180  0.0246 -0.2272 -0.0555
89346W        W32440  13.046   6.121   9.097 -0.1227 -0.1109 -0.4403
89347W        W32441  13.050   6.628   8.157 -0.1099  0.0961  0.1362
89348W        W32442  13.896   5.491   8.983  0.3473 -0.1572  0.0408
89349W        W32443   9.981   6.957   8.699  0.1125 -0.1486 -0.2667
89350W        W32444  14.374   2.819   8.490  0.0277  0.0392 -0.0940
89351W        W32445  11.845   6.908   9.220  0.1240 -0.1825 -0.0369
89352W        W32446  12.096   5.706   8.990 -0.0559  0.0987  0.1977
89353W        W32447  12.183   4.159   8.796  0.0631  0.0937  0.0424
89354W        W32448  15.582   2.715   8.985 -0.0698  0.0293 -0.0594
89355W        W32449  13.406   6.362   8.280  0.0191  0.1472 -0.0765
89356W        W32450  10.416   5.568   8.481 -0.0787  0.0405  0.1732
89357W        W32451  13.259   3.562   8.413  0.0210  0.1375  0.0144
89358W        W32452  11.830   7.429   8.950  0.0570  0.0037  0.5106
89359W        W32453  14.082   5.492   7.006 -0.1350 -0.2447 -0.2584
89360W        W32454  12.112   4.614   7.842 -0.1429  0.1644 -0.1397
89361W        W32455  15.300   2.979  11.400  0.3866 -0.0652  0.3612
89362W        W32456  12.454   4.637   9.533  0.2403  0.0672 -0.0005
89363W        W32457   9.481   8.076  10.005 -0.1169  0.1676  0.0998
89364W        W32458  14.591   8.682   9.787 -0.3235  0.0163  0.0056
89365W        W32459  12.398   4.101   9.346  0.1018 -0.1421 -0.2595
89366W        W32460  12.035   7.905   8.642 -0.1699  0.1146 -0.1108
89367W        W32461  13.693   3.890   8.560 -0.1160 -0.0582 -0.0024
89368W        W32462  14.297   3.405   9.324  0.1757 -0.0394 -0.2253
89369W        W32463  13.045   3.979   8.713 -0.0579  0.4384  0.5026
89370W        W32464  12.352   4.490   8.326 -0.1389  0.1728  0.1020
89371W        W32465  13.431   6.305   9.346 -0.0290  0.0798 -0.1090
89372W        W32466  12.566   3.323   9.067  0.1747 -0.2195  0.1162
89373W        W32467  12.702   2.814   8.071  0.0122 -0.0273 -0.1872
89374W        W32468  13.907   8.014   7.284 -0.1532  0.2436 -0.0482
89375W        W32469  11.107   5.913   7.635  0.3492  0.0566 -0.0934
89376W        W32470  10.050   6.062   9.175 -0.2079  0.0781 -0.1214
89377W        W32471  12.801   5.742   8.890 -0.0933 -0.0076 -0.3683
89378W        W32472  13.435   3.403   8.971 -0.0921 -0.1364  0.1251
89379W        W32473  11.383   7.922   7.838 -0.0410 -0.2339 -0.1523
89380W        W32474  11.550   5.522   8.586 -0.3284 -0.1668  0.0761
89381W        W32475  12.553   5.995   9.221 -0.0768 -0.1329  0.0197
89382W        W32476  15.404   3.254   6.651  0.2727  0.5570  0.0678
89383W        W32477  12.637   7.236   8.996 -0.0562 -0.1676  0.0438
89384W        W32478  12.053   4.999   8.150 -0.2550 -0.4323  0.1370
89385W        W32479  12.537   5.199   7.135  0.1547  0.1643  0.1583
89386W        W32480  12.942   4.625   9.471 -0.2971 -0.0847  0.0931
89387W        W32481  14.423   5.824   9.668 -0.2916  0.1560  0.0931
89388W        W32482  14.614   3.715   8.306  0.4515 -0.1985  0.1700
89389W        W32483  11.327   3.866   8.524  0.0685  0.0407 -0.3252
89390W        W32484  12.293   6.749   9.834  0.1971 -0.2221  0.0533
89391W        W32485  14.099   3.590  10.267 -0.1221  0.0803  0.1953
89392W        W32486  11.167   6.477   9.824  0.1433 -0.1373  0.1230
89393W        W32487  13.942   3.508   8.946  0.2448  0.1361  0.0627
89394W        W32488  10.576   5.553   9.816 -0.3376  0.0400 -0.2854
89395W        W32489  14.142   5.482   8.459 -0.0711  0.2959  0.2997
89396W        W32490  11.747   6.388   8.289 -0.2103 -0.1650  0.0806
89397W        W32491  13.429   4.843   8.561 -0.1161  0.2646  0.0484
89398W        W32492  14.022   4.139  10.128  0.1595  0.1294  0.3012
89399W        W32493  13.937   2.474   8.771 -0.2664  0.1101 -0.0409
89400W        W32494  15.771  10.468   9.836 -0.1768  0.0957 -0.3805
89401W        W32495  13.554   4.719   9.595  0.1622 -0.0398  0.0495
89402W        W32496  14.353   3.092  10.341 -0.1038 -0.2058 -0.0299
89403W        W32497  13.361   4.746   8.081  0.0853  0.1636  0.3609
89404W        W32498  12.489   4.944   8.495  0.1436  0.0131  0.3561
89405W        W32499  12.627   7.631   9.348  0.1991 -0.2676 -0.0145
89406W        W32500  12.866   5.092   6.744  0.3228  0.0872  0.2197
89407W        W32501  12.493   7.503   8.092 -0.1078  0.0419 -0.0128
89408W        W32502  13.876   5.990   8.939  0.2179  0.1520 -0.0441
89409W        W32503  12.928   4.989   8.270  0.1449 -0.3005 -0.0375
89410W        W32504  10.272   4.713   9.530  0.1788  0.0749  0.0881
89411W        W32505  11.125   3.018   5.474  0.1567 -0.1190  0.0327
89412W        W32506  12.275   5.552   9.473 -0.3947 -0.0601 -0.2300
89413W        W32507  13.121   8.502   9.476 -0.2190 -0.1078  0.0313
89414W        W32508  12.617   4.222   7.697  0.1612 -0.1665  0.0107
89415W        W32509  11.918   7.440   8.427 -0.2893 -0.1593 -0.0752
89416W        W32510  13.248   3.288   7.861 -0.0028 -0.1958  0.2588
89417W        W32511   8.109   5.315   9.429 -0.0228  0.2679  0.1352
89418W        W32512  12.105   5.433   8.436  0.0443  0.0339 -0.0545
89419W        W32513  14.536   4.637   9.721  0.0497  0.0611  0.3077
89420W        W32514  13.701   4.656  10.167  0.1149 -0.4131 -0.0063
89421W        W32515  11.205   4.837   9.891 -0.0436  0.2534 -0.1470
89422W        W32516  10.869   6.125   8.531  0.0498  0.1921  0.1301
89423W        W32517  14.323   5.379   9.213 -0.2594  0.0046 -0.0875
89424W        W32518  11.989   6.053   9.376 -0.0149 -0.1470 -0.0935
89425W        W32519  13.607   3.877  10.225  0.1739  0.2404 -0.0897
89426W        W32520  12.382   3.266   8.257  0.1905  0.1249 -0.1402
89427W        W32521  12.738   5.954   6.425 -0.1476  0.1490 -0.1234
89428W        W32522  10.969   6.633   9.415 -0.2961 -0.2584 -0.2666
89429W        W32523  11.127   7.965   8.440 -0.0494 -0.1992  0.2231
89430W        W32524  14.565   6.234   6.840 -0.2267 -0.1181 -0.1943
89431W        W32525  13.093   6.464   8.661 -0.0388 -0.0942  0.1066
89432W        W32526  14.318   6.217   9.313 -0.1003 -0.0129 -0.0668
89433W        W32527  12.972   4.513   6.759 -0.1338 -0.3751 -0.5057
89434W        W32528  12.487   8.571   8.640 -0.3418 -0.3311  0.2410
89435W        W32529  11.501   6.985   8.180  0.3682 -0.0382  0.1771
89436W        W32530  12.950   7.210   7.028  0.1291 -0.0583  0.2387
89437W        W32531  12.670   7.107  10.229  0.1822 -0.0531 -0.0790
89438W        W32532  14.339   3.457   7.780 -0.3482  0.1897  0.2632
89439W        W32533  15.462   5.417   9.562 -0.1177 -0.0062  0.2355
89440W        W32534  14.945   5.461   8.326 -0.2036  0.0474  0.1504
89441W        W32535  13.765   3.520   9.428  0.3555 -0.0666  0.2278
89442W        W32536  13.873   4.987   8.205  0.1305  0.2961  0.2189
89443W        W32537  14.124   6.959   7.690  0.0446  0.0155  0.1450
89444W        W32538  11.216   5.091   8.634 -0.2283  0.1953 -0.1169
89445W        W32539  13.915   6.126   8.485 -0.0852 -0.3795 -0.1037
89446W        W32540  15.597   5.673   8.728 -0.0043  0.0859  0.3117
89447W        W32541  12.388   5.795   8.578  0.1931 -0.1142  0.1339
89448W        W32542  13.412   4.082   7.419 -0.0702  0.0270 -0.1087
89449W        W32543  10.648   7.872   8.608 -0.3129 -0.0078 -0.1003
89450W        W32544  11.708   7.633  10.119  0.2457 -0.3393 -0.0450
89451W        W32545  14.501   6.645   9.045 -0.1238 -0.1342 -0.1389
89452W        W32546  11.671   4.641   8.198  0.1729  0.0491 -0.1406
89453W        W32547  13.684   4.365   8.779 -0.1408  0.0847 -0.0390
89454W        W32548  11.554   5.116   9.622  0.0182 -0.1585 -0.0179
89455W        W32549  13.211   5.082   7.517 -0.0585 -0.0066 -0.2129
89456W        W32550  11.671   9.197  11.952 -0.1661  0.2253  0.0733
89457W        W32551  10.754   4.991   9.672 -0.0610 -0.2480  0.0989
89458W        W32552  11.786   3.802   8.710  0.0177  0.0500 -0.1034
89459W        W32553  13.644   5.332   7.338  0.0975 -0.2259 -0.2292
89460W        W32554  12.049   4.283   9.686 -0.2111 -0.2716 -0.1156
89461W        W32555  13.414   3.951   5.082  0.0698  0.0714  0.3842
89462W        W32556   9.975   5.652   8.782  0.0885 -0.2449  0.1530
89463W        W32557  12.601   5.172   9.701 -0.2171 -0.0690 -0.0509
89464W        W32558  11.010   4.874   7.157  0.0853  0.0844  0.0264
89465W        W32559  15.613   6.131   6.900  0.0066  0.2093 -0.1647
89466W        W32560  12.940   4.097   9.292 -0.0589  0.1351 -0.1025
89467W        W32561  12.652   6.209   8.735 -0.2366 -0.0262  0.2320
89468W        W32562  13.369   5.302   8.920 -0.1782  0.1747 -0.2058
89469W        W32563  15.115   6.607   8.412 -0.2494 -0.2000  0.1087
89470W        W32564  11.028   2.999  10.312 -0.1958 -0.1467  0.1765
89471W        W32565  15.152   6.072  10.100  0.0973  0.0915 -0.3858
89472W        W32566  13.681   7.558  10.002 -0.1322 -0.0536 -0.1912
89473W        W32567  12.862   6.179   8.290 -0.0613 -0.0335  0.3392
89474W        W32568  13.222   4.356   8.986  0.2005 -0.0542  0.0165
89475W        W32569  11.173   7.046   8.636  0.2550  0.2534  0.0145
89476W        W32570  15.308   4.937  10.073  0.0406  0.1721  0.0422
89477W        W32571  12.921   5.261   8.703  0.1025  0.1626 -0.0321
89478W        W32572  12.052   5.112   9.779  0.3467  0.0606  0.0413
89479W        W32573  11.403   5.858   7.150  0.0520 -0.1325  0.2295
89480W        W32574  12.950   5.662   8.332 -0.1344 -0.2035  0.3477
89481W        W32575  12.648   6.380   7.878 -0.0704  0.1013  0.0665
89482W        W32576  13.084   7.957   8.629  0.0035  0.0971  0.2730
89483W        W32577  12.608   4.047   8.416 -0.1330  0.2653  0.1373
89484W        W32578  15.494   7.240  10.461 -0.3301  0.0921 -0.2141
89485W        W32579  13.855   4.524   9.254 -0.0406 -0.0986 -0.1985
89486W        W32580  14.547   4.791   6.470 -0.0161 -0.0533  0.1331
89487W        W32581  13.674   3.139   7.418 -0.0033  0.1135  0.2625
89488W        W32582  12.509   5.324   8.980  0.3073  0.1957  0.0145
89489W        W32583  10.921   4.801   8.293 -0.0756 -0.2065 -0.0983
89490W        W32584  12.332   7.171   8.510 -0.3177  0.0371  0.2196
89491W        W32585  12.226   7.002   8.958  0.0690 -0.1747 -0.0243
89492W        W32586  11.715   6.964   8.721 -0.1475 -0.0090  0.1998
89493W        W32587  11.489   3.622   7.158 -0.0335  0.0358 -0.4955
89494W        W32588  14.486   5.837   8.938 -0.0035 -0.2028  0.0764
89495W        W32589  12.077   5.079   9.273  0.0078 -0.1047 -0.3791
89496W        W32590  10.456   5.663   9.008  0.1090 -0.0085 -0.0789
89497W        W32591  14.463   7.072   9.379  0.0654  0.2954 -0.0701
89498W        W32592  13.745   6.741   8.552  0.0272 -0.0977 -0.1676
89499W        W32593  12.927   2.599   7.562  0.1297  0.0032  0.0633
89500W        W32594  10.243   5.905   7.220  0.1969  0.1179  0.0429
89501W        W32595  11.423   3.890   7.639  0.1888 -0.0541  0.2010
89502W        W32596  13.962   5.763   9.422  0.1477  0.0893 -0.2717
89503W        W32597  14.742   7.579   8.146 -0.0422  0.1360 -0.1041
89504W        W32598  13.685   7.691   8.117  0.1329  0.1504 -0.0431
89505W        W32599  12.850   3.311   9.839  0.0224 -0.2023 -0.2492
89506W        W32600  12.495   7.156   9.500  0.1856 -0.0020  0.0533
89507W        W32601  15.366   6.536   7.955  0.4959  0.1641  0.0215
89508W        W32602  14.544   4.236   9.352  0.1309 -0.4166 -0.4108
89509W        W32603  13.642   5.287   9.421 -0.1809 -0.0638  0.2276
89510W        W32604  14.018   4.782   9.843  0.0489 -0.0722  0.1280
89511W        W32605  13.008   3.943   8.136  0.1142 -0.1606  0.1501
89512W        W32606  13.967   3.545   7.461 -0.0727  0.0370  0.1232
89513W        W32607  14.331   6.372   8.312  0.1931 -0.0566 -0.1005
89514W        W32608  10.258   5.166   8.830  0.0351  0.0146  0.2719
89515W        W32609  11.686   4.252   7.845 -0.4159  0.0840  0.0026
89516W        W32610  13.852   8.243  10.176  0.0446  0.0020  0.2783
89517W        W32611  12.972   4.697   8.671 -0.3395  0.4006 -0.1589
89518W        W32612  14.468   5.898   8.468  0.1534  0.1201  0.1149
89519W        W32613  13.327   7.252   9.878  0.1388  0.1086  0.1313
89520W        W32614  10.196   6.827   9.862 -0.0006 -0.2399  0.3796
89521W        W32615  15.510   6.939   9.903 -0.1557  0.0080 -0.2572
89522W        W32616  13.465   2.491   9.665 -0.3912 -0.2590 -0.0266
89523W        W32617  11.614   5.517  10.033 -0.1201 -0.0307  0.2210
89524W        W32618  11.087   5.761   8.873 -0.1329  0.1674  0.0208
89525W        W32619  14.622   3.779   9.179  0.3000 -0.1249  0.0761
89526W        W32620  13.279   8.056  12.099 -0.1549  0.2710  0.1166
89527W        W32621  12.757   2.603   6.262  0.1972  0.0460 -0.1357
89528W        W32622  12.753   6.678  12.003 -0.0802 -0.1650  0.0264
89529W        W32623  12.339   4.748   9.999 -0.0935 -0.1111 -0.1282
89530W        W32624  11.723   8.864   1.850  0.2858 -0.0396  0.1796
89531W        W32625  13.179   6.992   0.240 -0.0024  0.0123 -0.0598
89532W        W32626  12.498   8.055  31.750  0.1434  0.0313 -0.1833
89533W        W32627  14.502   8.415   2.386  0.1711  0.3302  0.0760
89534W        W32628  11.550   9.016  31.777 -0.1872  0.2991 -0.3292
89535W        W32629  14.171   7.586   1.473 -0.0692  0.3301 -0.2290
89536W        W32630  11.073   7.241   3.363  0.1026  0.1373  0.1743
89537W        W32631  14.261  10.552   2.961 -0.0161  0.1462  0.1475
89538W        W32632  14.693   9.591   1.788 -0.1791  0.1715 -0.0909
89539W        W32633  13.006   9.402  30.812 -0.0925  0.0428 -0.0312
89540W        W32634  13.460   7.973   2.568 -0.2524 -0.0309  0.0367
89541W        W32635  10.912   9.693   1.564  0.0356 -0.1994  0.3124
89542W        W32636  13.131   6.791   1.119 -0.3896 -0.0971  0.0930
89543W        W32637  10.077   8.205   1.540 -0.0826  0.3057  0.3585
89544W        W32638  14.030   6.963   2.090  0.0737  0.0963 -0.0554
89545W        W32639  12.649   9.293   1.676 -0.1036  0.1295  0.3428
89546W        W32640  13.147   9.117   3.263 -0.0612 -0.3009 -0.1434
89547W        W32641  11.993   8.245   0.128  0.1771 -0.1175 -0.0372
89548W        W32642  14.021   8.311   2.015  0.1142  0.3395 -0.0197
89549W        W32643  12.256   7.886   2.001  0.2993 -0.1268 -0.2099
89550W        W32644  11.852   6.979   3.765 -0.1506  0.4650 -0.1548
89551W        W32645  13.386  10.304   0.119 -0.3508  0.0586 -0.0397
89552W        W32646  10.529   9.247  31.907 -0.1517  0.1270 -0.0845
89553W        W32647  11.035   8.580   0.707 -0.0639 -0.0709 -0.3985
89554W        W32648  12.145   9.045   2.323 -0.2404 -0.1582  0.0348
89555W        W32649  13.539   7.895   1.983  0.2573  0.2045 -0.2660
89556W        W32650  15.288   8.272   2.033  0.0451  0.0106 -0.3018
89557W        W32651  13.231   9.989   3.356  0.2109  0.0275 -0.5482
89558W        W32652  12.566   8.916   1.982 -0.2356  0.1605 -0.2234
89559W        W32653  12.549   7.867   3.115  0.0214  0.0577  0.0213
89560W        W32654  10.130   9.978   1.139  0.0968 -0.1733 -0.1794
89561W        W32655   9.514  12.114   1.093 -0.0215 -0.0622 -0.0819
89562W        W32656  12.555   8.453   0.095 -0.0170 -0.2069  0.0122
89563W        W32657  13.680  10.827   1.839  0.1526 -0.1354  0.4285
89564W        W32658  13.704   9.262   1.738 -0.0162 -0.4586  0.1797
89565W        W32659  13.801  10.710   2.734  0.2063 -0.2689 -0.1604
89566W        W32660  11.913  11.691   0.571  0.0592 -0.2672  0.0367
89567W        W32661  14.034   9.223   2.327  0.1744 -0.2922 -0.0222
89568W        W32662  11.363  10.398   3.053  0.3788  0.0589 -0.1207
89569W        W32663  11.246   7.740   2.401 -0.3621 -0.1569  0.1441
89570W        W32664  12.637   8.513   1.121  0.0361 -0.2222 -0.2901
89571W        W32665  12.385  10.599   0.167 -0.3093  0.1971  0.1473
89572W        W32666  12.924   9.232   0.788 -0.4460 -0.1725 -0.0297
89573W        W32667  12.161   9.563   3.226  0.3479  0.1528  0.1760
89574W        W32668  11.551   9.698   2.051 -0.1257  0.4355 -0.1712
89575W        W32669  14.185   8.286   4.404 -0.0947 -0.0425 -0.0148
89576W        W32670  12.125   9.342   0.845  0.2199  0.1399  0.0875
89577W        W32671  14.884   7.705   1.464  0.0805  0.0567  0.2689
89578W        W32672  13.186   8.004  31.014  0.1561 -0.2448  0.6626
89579W        W32673  13.268   7.163  30.439 -0.1443 -0.0374 -0.2527
89580W        W32674  12.235   8.900   1.067  0.1379 -0.1962  0.0576
89581W        W32675  10.921  11.350   1.050 -0.0911 -0.0948 -0.1448
89582W        W32676  11.776   8.714   2.358 -0.1559 -0.0329  0.1078
89583W        W32677  14.558   9.204   2.662  0.3485  0.0420 -0.1360
89584W        W32678  12.875   8.263   0.417 -0.6595 -0.2949 -0.1771
89585W        W32679  13.973   7.899   2.691 -0.0949  0.1400  0.1225
89586W        W32680  11.420   9.663   1.514 -0.2074 -0.1954 -0.0060
89587W        W32681  12.918   8.067   2.527  0.0777 -0.0038  0.1194
89588W        W32682  12.618   9.268   0.208 -0.1501  0.2039 -0.3576
89589W        W32683  13.645  10.166   0.957  0.0431  0.1112  0.1215
89590W        W32684  13.225  10.506  31.628 -0.2128 -0.0450 -0.0297
89591W        W32685  12.010   9.477  31.365 -0.1621 -0.0630 -0.0203
89592W        W32686  11.305   9.011   4.369 -0.2126  0.1182 -0.1268
89593W        W32687  11.171   9.876   2.275  0.1716  0.1200  0.0356
89594W        W32688  11.440   6.968  30.345 -0.1441  0.0281  0.2981
89595W        W32689  14.415   8.493   3.961 -0.0360 -0.0973 -0.0535
89596W        W32690  11.498   9.187   2.186 -0.0674 -0.2708  0.3477
89597W        W32691  14.352   6.789  31.228  0.0116  0.3410 -0.0531
89598W        W32692  13.574   8.362   2.888 -0.0295  0.1049  0.1419
89599W        W32693  13.378   8.608   3.784  0.1608  0.3362 -0.0326
89600W        W32694  13.052   9.548  31.328 -0.1319  0.4324  0.0460
89601W        W32695  14.205   6.646   0.834 -0.0908 -0.0701  0.0653
89602W        W32696  14.329   7.223   3.256 -0.3103  0.0692 -0.0331
89603W        W32697  11.837   9.955   0.755  0.1502  0.3526 -0.2492
89604W        W32698  12.244   9.834   0.343 -0.1487  0.0953  0.1812
89605W        W32699  16.682  10.420   2.959  0.3287 -0.2993  0.3121
89606W        W32700  14.383   8.998   0.881  0.4136  0.1335 -0.2108
89607W        W32701  10.806  11.758   1.387 -0.1936 -0.1205 -0.0987
89608W        W32702  11.734   9.133   2.651 -0.0618 -0.2991 -0.0144
89609W        W32703  12.604  10.691   5.348 -0.1099  0.0730 -0.1521
89610W        W32704  11.088  11.096  31.635 -0.0592  0.0449  0.1199
89611W        W32705   9.790   9.783   0.715 -0.1996 -0.0596  0.3051
89612W        W32706  11.077  10.657   0.659  0.0172 -0.1138 -0.0808
89613W        W32707  12.241   7.784   1.217  0.0639 -0.1365 -0.2270
89614W        W32708  11.627   9.532   0.932 -0.1879 -0.1001 -0.2886
89615W        W32709  15.153   6.957   2.474 -0.0797  0.1288 -0.0436
89616W        W32710  11.761   8.441   3.183  0.1210  0.0039  0.2841
89617W        W32711  14.071   7.303  31.276  0.3878  0.1817 -0.0157
89618W        W32712   9.081  10.707  31.929 -0.1263 -0.2522  0.1434
89619W        W32713  14.008  10.432  31.377 -0.0138 -0.1191  0.2513
89620W        W32714  15.120   8.104   1.142 -0.0376  0.2419 -0.0684
89621W        W32715  14.376  11.214  31.174  0.1325 -0.0606 -0.0704
89622W        W32716  10.700   8.338   3.176 -0.2371 -0.3640 -0.0468
89623W        W32717  11.249   9.229   1.369 -0.2215  0.0749  0.2048
89624W        W32718  10.622   7.753   5.014 -0.1670 -0.2141 -0.0444
89625W        W32719  11.916   7.606   2.236  0.2309  0.0824 -0.1735
89626W        W32720  12.788   8.733   3.125  0.0231 -0.1579  0.0268
89627W        W32721  11.282   9.362   0.625 -0.1654 -0.1727 -0.1543
89628W        W32722  14.098   8.473   0.904  0.0636  0.1602 -0.0154
89629W        W32723  12.213   8.749   1.532  0.0744 -0.0922 -0.1798
89630W        W32724  11.354  10.726  31.886 -0.3041  0.3231 -0.1318
89631W        W32725  12.728   7.966   4.258  0.0683  0.2442 -0.0648
89632W        W32726  15.004   9.205   1.777  0.0317  0.2074 -0.0886
89633W        W32727  14.858   9.700   2.560 -0.0284 -0.1164  0.2298
89634W        W32728  13.140  10.257   0.978 -0.3914 -0.1062  0.0860
89635W        W32729  12.042   7.979   2.937  0.0813  0.1171  0.1472
89636W        W32730  12.677   7.165   0.209 -0.2432 -0.2405  0.0136
89637W        W32731  10.838   9.596   0.692 -0.1767  0.3084 -0.1680
89638W        W32732  12.587  10.144   0.103 -0.0201  0.0169 -0.0402
89639W        W32733  13.318   8.070   0.292  0.0806 -0.1259 -0.2653
89640W        W32734  14.006   9.495   1.318  0.0539  0.0610 -0.2216
89641W        W32735  13.067   8.346   1.083 -0.0623 -0.0326  0.0342
89642W        W32736  10.757  11.408   0.564 -0.0104 -0.1160 -0.0232
89643W        W32737  12.288   7.230   3.803 -0.2795  0.3088 -0.3141
89644W        W32738  15.348   9.794   2.524  0.0325 -0.1858 -0.1441
89645W        W32739  13.657   8.277  31.875 -0.1160 -0.0562 -0.0019
89646W        W32740  11.938   7.312   0.491 -0.1797 -0.0928 -0.2537
89647W        W32741  15.663   9.247   1.792  0.0667  0.3133 -0.2086
89648W        W32742  11.623  11.027  31.568 -0.1165  0.1962 -0.1449
89649W        W32743  12.713   7.627   1.169  0.0793  0.1198  0.1723
89650W        W32744  13.206   9.635   0.680  0.3014  0.3048 -0.1737
89651W        W32745  12.663   8.454   3.877 -0.0437  0.3047 -0.2417
89652W        W32746   9.937   8.536   3.330 -0.1212 -0.1718  0.0707
89653W        W32747  14.425   8.759   3.535  0.1329  0.1442 -0.1525
89654W        W32748  10.403  10.792   0.149 -0.0764  0.0219 -0.1756
89655W        W32749  11.066   9.314   2.289 -0.0387 -0.1868  0.0081
89656W        W32750  13.749   7.646  31.789  0.0293 -0.0628 -0.1234
89657W        W32751  15.036   8.081   0.632  0.0283  0.0703  0.0933
89658W        W32752  14.106   9.631   3.452  0.0509  0.0286 -0.0471
89659W        W32753  13.562   8.813   1.403  0.1010  0.1899 -0.1952
89660W        W32754  14.189   7.960  31.026  0.0893 -0.1243 -0.1300
89661W        W32755  13.633   7.466   0.640 -0.1898 -0.0895  0.1565
89662W        W32756  10.924  10.436   3.864  0.0652 -0.1466 -0.3570
89663W        W32757  12.847   9.750   0.350  0.0433 -0.2837  0.2686
89664W        W32758  12.929   9.603   1.970 -0.2153 -0.1885 -0.0799
89665W        W32759  13.715   8.066   0.736 -0.2365 -0.3798 -0.0644
89666W        W32760  14.357  10.888   0.983 -0.0108 -0.1295 -0.0345
89667W        W32761  10.934  10.178   0.825 -0.1207  0.1331  0.0707
89668W        W32762  13.959   8.643   3.041  0.1011  0.3687  0.4020
89669W        W32763  14.796   8.732   2.824 -0.0056 -0.0635  0.0013
89670W        W32764  12.695   7.574   2.592  0.0853 -0.0809  0.0328
89671W        W32765  11.415  10.221  31.822 -0.0975  0.0391  0.1575
89672W        W32766  13.969   7.146   1.621 -0.0090  0.1109  0.2561
89673W        W32767   9.001  11.797  31.796  0.1450 -0.2886 -0.0807
89674W        W32768  14.832   7.648   2.569 -0.4415  0.0787  0.1248
89675W        W32769  13.114   8.118   2.088 -0.2747  0.1602  0.2856
89676W        W32770  12.032   7.050   4.196  0.0672 -0.0786 -0.0123
89677W        W32771  15.111   8.745   4.692  0.0719  0.1057  0.1842
89678W        W32772  15.601   8.616   0.415 -0.1201 -0.0105  0.1672
89679W        W32773  13.117   9.373   1.272  0.2845  0.1793 -0.0593
89680W        W32774  12.701   8.338  31.106  0.2153  0.0402 -0.1399
89681W        W32775  11.653   7.943   2.656 -0.1774 -0.0120  0.0499
89682W        W32776  11.784   8.076   2.176 -0.0025 -0.0563 -0.2851
89683W        W32777  11.870  11.153   1.992 -0.0634  0.1381  0.1131
89684W        W32778  13.353  10.143   1.481 -0.0485 -0.0491 -0.2926
89685W        W32779  12.928   8.688   0.760 -0.0072 -0.2595 -0.5016
89686W        W32780  11.948   7.517   4.603  0.0183  0.0822  0.2657
89687W        W32781  12.630   6.534   1.025 -0.1492  0.1358 -0.0575
89688W        W32782  12.107  10.316   1.114  0.1091  0.1448  0.2480
89689W        W32783  11.725  10.542   0.855 -0.3829  0.1535  0.0974
89690W        W32784  11.980   7.891   3.777 -0.3876 -0.1398  0.4988
89691W        W32785  11.856   9.802   2.808 -0.1847  0.0332 -0.0308
89692W        W32786  11.355  10.177  31.350  0.1358 -0.0506 -0.3318
89693W        W32787  13.660   9.395   3.197  0.1265  0.3148  0.1697
89694W        W32788   9.899  11.603   0.996  0.0423 -0.0726  0.0797
89695W        W32789  13.840   6.528   2.800  0.2547  0.1685  0.1084
89696W        W32790  10.293   9.931   0.666 -0.1506 -0.0533 -0.0543
89697W        W32791  13.362   7.266   1.464 -0.0277 -0.2151  0.1263
89698W        W32792  11.790   9.029   0.800  0.0157  0.0755 -0.0044
89699W        W32793  14.397   6.875   1.689  0.0607 -0.0380 -0.2105
89700W        W32794  14.726   9.956  30.114 -0.2256 -0.0392 -0.0613
89701W        W32795  12.142   7.492   1.655  0.0991  0.3556  0.2165
89702W        W32796  11.807   8.489   1.535 -0.4458 -0.1427  0.0807
89703W        W32797  10.952  10.186   1.389 -0.1307  0.0069  0.2068
89704W        W32798  14.409   7.561   2.806  0.0195  0.0501 -0.0401
89705W        W32799  14.569   7.119   0.748  0.2747 -0.0850 -0.2297
89706W        W32800  13.588  10.113   2.056  0.0904  0.1594 -0.3096
89707W        W32801  12.689   9.608   3.037  0.4754 -0.2451  0.1600
89708W        W32802  12.190   8.690  31.765  0.1048  0.2034  0.0222
89709W        W32803  13.988   9.095   3.421 -0.2580 -0.4274  0.1743
89710W        W32804  11.812   7.860   1.712  0.2176  0.1075 -0.1054
89711W        W32805  11.893  10.035  31.386 -0.0014  0.2143  0.0733
89712W        W32806  12.479   9.869   1.914 -0.0815 -0.2378  0.0956
89713W        W32807  13.289   8.503   0.131 -0.1568  0.0251  0.2635
89714W        W32808  11.884  11.226   0.053  0.0553 -0.0926  0.1436
89715W        W32809  11.878   7.504   2.823  0.1098  0.0469 -0.1334
89716W        W32810  13.248   8.568   3.335  0.1880 -0.3883  0.1369
89717W        W32811  13.009   7.963   1.392  0.1162 -0.2391  0.1644
89718W        W32812  11.315   8.958   0.965  0.0733  0.0729  0.1412
89719W        W32813  11.769   8.585   0.989  0.1408 -0.2424 -0.2516
89720W        W32814  14.676   7.104   2.678 -0.0204  0.1805  0.0887
89721W        W32815  12.282   7.591   3.431  0.4087 -0.2950  0.2357
89722W        W32816  12.184   9.410   2.735 -0.3190  0.5071 -0.1085
89723W        W32817  12.491   6.346   2.375  0.0018  0.0026 -0.0570
89724W        W32818  13.849  10.792   0.325 -0.2414  0.3301  0.1598
89725W        W32819  12.352   9.849   1.432 -0.2273  0.1300  0.0146
89726W        W32820  13.330   8.416   0.624  0.0003  0.0652  0.0237
89727W        W32821  10.424   8.727   3.116 -0.2014  0.4666  0.0961
89728W        W32822  11.498  10.436   2.548 -0.2199  0.0943 -0.4465
89729W        W32823  13.207   8.800   2.589 -0.1119  0.3520  0.1293
89730W        W32824  11.708  10.178   1.423  0.0188 -0.3399 -0.0074
89731W        W32825  10.673   9.949   0.294 -0.1845  0.0413 -0.2110
89732W        W32826  11.819  10.044   2.351 -0.0563 -0.2828 -0.0400
89733W        W32827  13.657   5.601   1.165  0.3638 -0.2042 -0.3694
89734W        W32828  14.029   9.401   0.686 -0.2373  0.1777 -0.1059
89735W        W32829  13.560   9.311   0.637  0.0779  0.0038  0.0336
89736W        W32830  14.005   7.612   3.461 -0.2319 -0.1229 -0.2722
89737W        W32831  13.282   9.104  31.858  0.0914  0.0775 -0.0358
89738W        W32832  13.980   9.145   2.859 -0.3013  0.0184  0.0525
89739W        W32833  11.001   6.731   3.550 -0.0695 -0.0400  0.0263
89740W        W32834  14.444   7.900   2.442  0.0697  0.3147  0.1982
89741W        W32835  11.467   8.401   1.977  0.1749  0.1616  0.1196
89742W        W32836  14.546  10.225   3.802  0.1350  0.0116 -0.1553
89743W        W32837  10.350   7.962   3.304  0.0914 -0.3260 -0.1734
89744W        W32838  13.983   8.426   1.390 -0.0771  0.1624 -0.0855
89745W        W32839  14.141   7.284  31.792  0.1777  0.0017 -0.0473
89746W        W32840  12.701   8.562   1.633 -0.0467 -0.0868  0.3918
89747W        W32841  13.960   8.360   2.519  0.0479  0.0527 -0.1101
89748W        W32842  13.182  11.777  30.820  0.2450 -0.0457  0.0784
89749W        W32843  13.525   7.758   3.069  0.0360 -0.2095  0.0288
89750W        W32844  11.375  10.260   1.049  0.0689  0.0173 -0.0947
89751W        W32845  14.025   8.896   1.294 -0.1385 -0.0775  0.1433
89752W        W32846  13.119   9.333   0.276  0.2859  0.4562  0.0162
89753W        W32847  11.355   9.870   0.650 -0.0444 -0.0624 -0.2732
89754W        W32848  10.840   7.816   3.277  0.2020  0.1924 -0.4456
89755W        W32849  13.189   8.421   1.549  0.0997  0.2685  0.0002
89756W        W32850  13.681   7.589   1.621  0.3126  0.4271 -0.0862
89757W        W32851  12.257   8.702   4.112  0.1452 -0.1250  0.0518
89758W        W32852  12.132   9.142   1.804 -0.1773 -0.2848 -0.3448
89759W        W32853  12.772   8.539   2.659 -0.0797  0.1204  0.1295
89760W        W32854  12.276   8.224   3.444 -0.1123 -0.0839 -0.1567
89761W        W32855  13.719  10.474   1.523 -0.0147  0.0591  0.2588
89762W        W32856  15.411   7.204   1.133  0.1518 -0.2994 -0.2017
89763W        W32857  15.226   8.243   3.764  0.1318 -0.0766  0.1172
89764W        W32858  13.989   7.963   1.694  0.0849  0.2436 -0.1686
89765W        W32859  14.384   8.495   1.657  0.3180 -0.1328  0.3293
89766W        W32860  11.790   8.052   1.233 -0.0547 -0.1082 -0.1401
89767W        W32861  14.286   8.766   2.577  0.3875 -0.4541  0.1824
89768W        W32862  12.386   6.506  30.560 -0.1356 -0.0526 -0.2692
89769W        W32863  13.745   8.640   3.467  0.0134  0.1270 -0.1310
89770W        W32864  11.492  11.108   1.165 -0.0089 -0.2136 -0.0337
89771W        W32865  14.280   9.642   2.545  0.2186 -0.1893  0.3326
89772W        W32866  14.524   8.549   1.146  0.1759 -0.0049  0.0008
89773W        W32867  10.390   8.558   2.120  0.0972  0.0678 -0.0944
89774W        W32868  11.338  10.570   1.594  0.0541 -0.2264  0.0670
89775W        W32869  12.854   7.762   0.223  0.0293  0.1221 -0.1332
89776W        W32870  13.103  10.479  30.649  0.0598 -0.4003 -0.0483
89777W        W32871  11.887   8.390   2.710 -0.1614 -0.0197  0.0837
89778W        W32872  14.858   9.642   3.036 -0.1134 -0.1475 -0.2839
89779W        W32873  14.706   7.598   2.097 -0.2464 -0.2942  0.2573
89780W        W32874  13.987   8.930   3.921  0.0201 -0.3216 -0.0420
89781W        W32875  10.527  11.026  31.636  0.2027  0.0719  0.0038
89782W        W32876  14.108   7.778   0.840 -0.1459 -0.0499  0.0957
89783W        W32877  11.910  10.847   2.410 -0.1826  0.1101  0.0255
89784W        W32878  10.630  10.421   0.488 -0.1161  0.0926 -0.0448
89785W        W32879  12.291   9.879   0.946  0.2647 -0.2125 -0.2078
89786W        W32880  13.166   7.583   1.827  0.0505  0.0422 -0.3590
89787W        W32881  13.133   7.082   1.885 -0.2697 -0.2516  0.0692
89788W        W32882  12.984   8.627   2.083 -0.0059  0.4616 -0.0243
89789W        W32883  16.173   7.710   1.938  0.0523 -0.1677  0.0795
89790W        W32884  13.059   8.985   1.730  0.0147  0.1464 -0.2597
89791W        W32885  12.454   9.011   0.672  0.4676 -0.3035 -0.0597
89792W        W32886  13.390   9.708   1.759  0.0911 -0.0465  0.1527
89793W        W32887  13.532   8.087   1.473 -0.0031 -0.0680  0.0563
89794W        W32888  10.649  10.801   0.908 -0.0037 -0.0158  0.3698
89795W        W32889  10.929   8.791   3.052 -0.0084  0.0404  0.0407
89796W        W32890  14.833   9.807   3.925 -0.1344 -0.0737 -0.1314
89797W        W32891  12.598   9.544   1.157 -0.2735 -0.4431 -0.0394
89798W        W32892  13.612   7.299   2.018 -0.1330 -0.1041 -0.2505
89799W        W32893  11.822  10.751  30.410 -0.0007 -0.0231  0.2977
89800W        W32894  11.862  11.092   3.265 -0.2792  0.2677  0.1395
89801W        W32895  11.903   9.492   2.299 -0.2325  0.1514  0.1269
89802W        W32896  12.144  11.021  31.206  0.0239  0.2480  0.0831
89803W        W32897  12.872   9.715   1.513  0.0406 -0.3101 -0.0932
89804W        W32898  13.352   9.754   0.176 -0.4574  0.5396 -0.0621
89805W        W32899  13.003  10.504   2.518 -0.1166 -0.1134 -0.4371
89806W        W32900  13.854   8.124  30.424  0.2678 -0.3156  0.0586
89807W        W32901  11.825  10.553   0.047  0.2045 -0.2356 -0.1609
89808W        W32902  11.726  11.054  30.987  0.4191 -0.1516 -0.2438
89809W        W32903  13.377   8.885   0.429  0.2902  0.1137 -0.0433
89810W        W32904  12.597  10.944   0.532 -0.1928  0.0324  0.1250
89811W        W32905  15.414  10.361   0.816 -0.7466  0.0270  0.1179
89812W        W32906  15.381   6.667  31.379  0.1870  0.1621  0.0769
89813W        W32907  13.464   8.871   2.017  0.1628 -0.0492  0.2875
89814W        W32908  13.774   7.120  30.838  0.1487  0.0466 -0.0998
89815W        W32909  14.442   8.863   2.078  0.1199  0.0157 -0.1490
89816W        W32910  11.770   9.371   1.593 -0.1743  0.2437 -0.0919
89817W        W32911  12.302   7.331   0.947 -0.0877 -0.0541  0.0842
89818W        W32912  12.067   8.530   1.983  0.0154  0.1058  0.0171
89819W        W32913  13.987   6.511   3.375 -0.2947 -0.3162  0.0475
89820W        W32914  11.078   9.540   3.016  0.2850  0.0659  0.0248
89821W        W32915  15.053  11.272  31.940  0.0568  0.0120  0.0198
89822W        W32916  12.356   8.854   0.199  0.2126  0.1332 -0.3704
89823W        W32917  13.142   7.818   0.705  0.0038 -0.3132 -0.2558
89824W        W32918  14.587   7.028   2.124 -0.1874  0.4374 -0.3775
89825W        W32919  13.419  10.148  30.167  0.2918  0.2369 -0.0707
89826W        W32920  13.287   7.003   2.331  0.1773  0.2037  0.1590
89827W        W32921  12.692   9.554   2.563 -0.0674  0.2170 -0.1998
89828W        W32922  11.924   9.835   1.812  0.0930 -0.0821  0.1818
89829W        W32923  12.084  10.381   2.645 -0.0392  0.2677  0.1471
89830W        W32924  10.615   8.019   1.748 -0.2679  0.1820 -0.1364
89831W        W32925  14.682   6.465   1.668 -0.0459  0.0086  0.0116
89832W        W32926  11.393   8.288   2.449 -0.0612  0.1192 -0.3940
89833W        W32927  14.923   6.594   2.235 -0.0388 -0.1129 -0.1753
89834W        W32928  11.562   8.520   0.507 -0.3672 -0.0626  0.0783
89835W        W32929  15.063   8.579   0.998  0.2763  0.3441  0.0561
89836W        W32930  13.109   8.846   1.258  0.1717 -0.2565 -0.0852
89837W        W32931  11.766   8.965   1.329  0.1918  0.4704  0.1581
89838W        W32932  13.575   8.448   1.058  0.1206 -0.1011  0.1522
89839W        W32933  13.545   7.983   3.964 -0.1082  0.2724 -0.1708
89840W        W32934  13.456   9.568  31.646  0.0474 -0.1204 -0.1809
89841W        W32935  14.214  10.283   1.358  0.1265 -0.2407  0.0609
89842W        W32936  11.575   7.471   1.835 -0.0490  0.1485  0.1505
89843W        W32937  14.520   8.092   0.845  0.1482  0.0215  0.0175
89844W        W32938  11.895   8.952  31.445  0.1148 -0.3188 -0.0967
89845W        W32939  12.170   8.863   2.793  0.1451 -0.0562  0.0986
89846W        W32940  14.715  10.630   2.793 -0.2063 -0.1595 -0.2148
89847W        W32941  12.763   6.814   0.585  0.0164 -0.0629 -0.2268
89848W        W32942  14.945   9.247  31.273  0.0389  0.1819 -0.0831
89849W        W32943  15.366   7.967   2.460 -0.0431  0.2269  0.1705
89850W        W32944  11.903   9.736   1.242 -0.1009 -0.0257 -0.3506
89851W        W32945  14.250   9.217   1.670  0.2908 -0.2399  0.3038
89852W        W32946  13.764   8.818   2.493 -0.1572  0.0233 -0.2667
89853W        W32947  10.870   7.715   2.078  0.1138  0.2210 -0.0545
89854W        W32948  14.840  10.244   2.427 -0.1186  0.1027 -0.1130
89855W        W32949  13.923   8.854   1.944 -0.1260  0.0593 -0.0138
89856W        W32950  11.827   7.073   0.992  0.0282  0.0450  0.0681
89857W        W32951  10.816   8.149   1.299 -0.0732 -0.1872  0.1037
89858W        W32952   9.372  11.502   1.033 -0.1540  0.1919 -0.2146
89859W        W32953  14.032   7.416   2.450 -0.1707 -0.0558  0.2875
89860W        W32954  13.537   7.399   2.662  0.0112  0.4495  0.1880
89861W        W32955  13.731  10.589  31.778 -0.0962 -0.1037 -0.1439
89862W        W32956  14.217   7.800   4.581 -0.1925  0.1744 -0.0320
89863W        W32957  12.400   8.643   2.388 -0.0687  0.0633 -0.1490
89864W        W32958  13.750   9.969   3.393  0.0195 -0.1332  0.0742
89865W        W32959  12.112   9.260   0.353  0.2087  0.0774 -0.1288
89866W        W32960  11.724   8.956   3.985  0.2182 -0.1751  0.2616
89867W        W32961  13.408  10.890   0.031  0.1229 -0.3769 -0.2035
89868W        W32962  11.248  11.118   1.592  0.0529  0.0346 -0.0212
89869W        W32963  13.063   7.843   3.304  0.3388  0.1215  0.3952
89870W        W32964  12.112   7.007   0.110 -0.0821  0.0710  0.1340
89871W        W32965  14.803   8.917   1.459 -0.2121 -0.0677 -0.0277
89872W        W32966  12.590   8.242   2.069 -0.0480 -0.4211  0.1929
89873W        W32967  15.134   6.859  31.789 -0.3268 -0.0083 -0.0613
89874W        W32968  13.511   7.082   0.972 -0.3320 -0.1026  0.1818
89875W        W32969  12.424   9.117   3.179  0.1014  0.0313  0.0603
89876W        W32970  10.772   9.717  31.833 -0.0017  0.3649 -0.1345
89877W        W32971  11.052  10.306   0.244 -0.6086  0.2718 -0.1296
89878W        W32972   9.907   9.277   1.649  0.0913  0.5328 -0.2074
89879W        W32973  13.217   7.585   2.318 -0.0280 -0.1946  0.3380
89880W        W32974  11.706   7.506   3.407 -0.0796 -0.0179 -0.0489
89881W        W32975  11.599   9.449   3.100 -0.0044  0.0832  0.3375
89882W        W32976  11.290   8.590   0.116 -0.1689 -0.0094 -0.1307
89883W        W32977  13.631   8.484   1.742  0.3794 -0.3785  0.0619
89884W        W32978  12.459   7.001   1.857 -0.0459 -0.1055 -0.2728
89885W        W32979  12.437   7.541   0.420 -0.0023 -0.3356  0.1514
89886W        W32980  13.466   8.416   2.289  0.0036 -0.1262 -0.1655
89887W        W32981  14.713  10.146   1.198 -0.2869 -0.1799 -0.0724
89888W        W32982  14.567   7.643   1.082  0.0597 -0.1548  0.0136
89889W        W32983  15.738  10.197   2.844  0.0715 -0.0022  0.1737
89890W        W32984  10.458  10.549  31.359 -0.1086 -0.1944  0.0181
89891W        W32985  13.113   9.216   2.767  0.0065 -0.3282 -0.0091
89892W        W32986  11.541   8.087   3.539 -0.0643  0.0716  0.2238
89893W        W32987  13.090   6.327  31.714 -0.1550 -0.0426 -0.5687
89894W        W32988  11.262   8.759   2.295  0.0572 -0.0164 -0.2163
89895W        W32989  13.056  10.060  31.837  0.0071  0.2747  0.2407
89896W        W32990  13.438  11.041  30.496 -0.1171  0.2679  0.0355
89897W        W32991  12.306  10.324   2.177  0.0700 -0.1178 -0.0256
89898W        W32992  11.762  10.194   3.812 -0.0557 -0.1256  0.1683
89899W        W32993  10.477   7.607   2.866 -0.2122 -0.1511 -0.0153
89900W        W32994  14.837   8.183   1.557 -0.0847  0.2356  0.2022
89901W        W32995  13.003   9.152   2.230 -0.0035 -0.4381 -0.0098
89902W        W32996  13.943   9.607  31.728  0.2353 -0.2903  0.1872
89903W        W32997  13.874   7.941   1.195  0.3420  0.0389  0.0250
89904W        W32998  13.633   9.221   1.170 -0.4026 -0.1588 -0.0799
89905W        W32999  11.998   8.516   3.716 -0.2619  0.1033 -0.1865
89906W        W33000  11.232   9.106   2.755 -0.1180 -0.1715  0.0690
89907W        W33001  15.350   9.214   2.274  0.1046  0.2042  0.0887
89908W        W33002  11.911   7.145   2.077 -0.3075 -0.1327  0.0389
89909W        W33003  13.369   7.734   1.190 -0.1028 -0.1894  0.1967
89910W        W33004  12.888   8.810   0.285  0.2400  0.0964  0.0183
89911W        W33005  10.789   8.920   2.594 -0.1384  0.4925  0.1421
89912W        W33006  12.446   8.483   0.599 -0.0423 -0.0705 -0.0738
89913W        W33007  11.273   9.090   3.295 -0.3156 -0.0894  0.1351
89914W        W33008  12.420   9.412   2.129 -0.0526 -0.0038 -0.1419
89915W        W33009  12.953   8.827   4.169 -0.2000 -0.2636 -0.1863
89916W        W33010  13.004   7.258   0.690  0.0989 -0.2292 -0.0631
89917W        W33011  13.896  11.001   0.799 -0.0560 -0.1916 -0.0782
89918W        W33012  14.351  10.690   3.598  0.2250  0.2558 -0.1357
89919W        W33013  14.577  11.090   2.623 -0.0488  0.2094 -0.1177
89920W        W33014  12.175  10.277   1.629 -0.0542  0.0667  0.3497
89921W        W33015  12.327   8.263   1.573 -0.1810  0.0034 -0.3147
89922W        W33016  10.981   7.099   2.556  0.0847 -0.2051  0.0229
89923W        W33017  12.726   8.957  31.807  0.0387 -0.1847 -0.1473
89924W        W33018  12.712   9.062   1.219 -0.0758  0.4133  0.3421
89925W        W33019  12.910   8.801   3.650  0.0487  0.0344  0.1026
89926W        W33020  11.683   7.501   1.330  0.0304 -0.0644 -0.1098
89927W        W33021  13.777   8.478   0.345  0.3281  0.1193  0.2579
89928W        W33022  13.320  10.580   2.101 -0.1434 -0.0077 -0.3014
89929W        W33023  13.123   8.242   2.983  0.1475 -0.0264  0.0748
89930W        W33024  13.709   9.841   7.023 -0.1035  0.0690  0.0696
89931W        W33025  12.842   9.607   3.980 -0.0479  0.0026 -0.3995
89932W        W33026  14.376   7.882   4.108 -0.1826  0.1607  0.1140
89933W        W33027  14.665   9.111   5.850  0.0986 -0.1086  0.3525
89934W        W33028  10.218   6.839   4.010  0.0494 -0.1553  0.0266
89935W        W33029  14.280   9.839   5.419 -0.0629  0.0149 -0.0314
89936W        W33030  12.149   6.288   6.918  0.0780  0.0547 -0.1859
89937W        W33031  14.800   9.523   4.844  0.1821  0.0859 -0.1420
89938W        W33032  15.159   9.686   6.691 -0.2130  0.0578 -0.1050
89939W        W33033  14.004   9.790   2.957  0.3023  0.0220 -0.0718
89940W        W33034  13.562   9.240   6.312  0.0449 -0.2289  0.1281
89941W        W33035  14.060   9.202   7.022 -0.0680  0.0243  0.0967
89942W        W33036  12.455   5.554   6.071 -0.0737 -0.2812 -0.0273
89943W        W33037  10.995   6.291   6.745  0.0045 -0.0648 -0.0179
89944W        W33038  15.024   9.745   6.173  0.0747 -0.2050  0.3598
89945W        W33039  10.987   7.792   4.668  0.0589  0.0008 -0.1917
89946W        W33040  13.219   7.590   5.647  0.0379 -0.1121  0.3365
89947W        W33041  13.544   6.504   6.364 -0.0138 -0.1703 -0.1677
89948W        W33042  14.093  10.143   7.057  0.1259 -0.0801  0.1340
89949W        W33043  11.928   7.495   6.170  0.3301  0.0089  0.3440
89950W        W33044  13.823   8.251   5.895 -0.3730 -0.1583  0.0395
89951W        W33045  12.597  11.237   5.326 -0.0041 -0.0404  0.2611
89952W        W33046  11.455   7.765   4.464 -0.1036 -0.1071 -0.0350
89953W        W33047  11.611   9.527   6.074  0.0701  0.0468 -0.4351
89954W        W33048  11.536   8.218   5.938  0.1828  0.0942 -0.1757
89955W        W33049  13.357   8.266   6.318 -0.2937  0.0827  0.4054
89956W        W33050  13.356   8.562   5.855  0.0857  0.0763  0.0130
89957W        W33051  13.388   9.836   6.609 -0.0127 -0.0362 -0.0956
89958W        W33052  14.472   9.807   4.313 -0.3224 -0.3649 -0.0209
89959W        W33053  13.649   7.212   7.604 -0.1641  0.1377 -0.2028
89960W        W33054  11.230   9.518   5.510 -0.1072  0.1151 -0.3181
89961W        W33055  12.875  10.887   4.478  0.3377  0.2695  0.2457
89962W        W33056  12.457  10.169   4.609 -0.2271  0.0332 -0.2834
89963W        W33057  16.792   9.622   4.443  0.0920 -0.0193 -0.1748
89964W        W33058  15.729  10.566   7.228 -0.1310  0.0288 -0.1940
89965W        W33059  13.281  12.244   6.532 -0.0591  0.3133  0.0032
89966W        W33060  12.041   9.789   3.947 -0.4952 -0.1221 -0.4099
89967W        W33061  13.664  10.002   6.144 -0.0053 -0.0396  0.1714
89968W        W33062  11.923  10.316   4.741  0.2189  0.2401 -0.0692
89969W        W33063  12.761   9.056   6.020  0.0504  0.0071 -0.2421
89970W        W33064  13.865   9.798   5.698 -0.1270 -0.2912  0.3535
89971W        W33065  12.593   9.740   5.016 -0.3850 -0.1567 -0.1861
89972W        W33066  13.394  10.136   5.668  0.0337 -0.0574  0.3054
89973W        W33067  12.435   9.210   7.179  0.0834  0.3291  0.0827
89974W        W33068  11.489   9.425   4.051 -0.0306  0.1572 -0.0691
89975W        W33069  13.782   6.723   7.324  0.0117  0.1689 -0.2501
89976W        W33070  11.176   9.418   1.857  0.1209  0.0617  0.0689
89977W        W33071  13.042   8.340   4.124 -0.2627 -0.0561  0.1758
89978W        W33072  11.514   7.305   2.404  0.0173  0.0729 -0.1704
89979W        W33073  12.195   8.523   4.664  0.2183  0.2899 -0.0229
89980W        W33074  11.434   6.313   6.410 -0.1319 -0.0688  0.0627
89981W        W33075  11.109  10.161   4.314 -0.0071 -0.4185  0.0722
89982W        W33076  11.027   8.058   5.150 -0.1842  0.0040  0.3001
89983W        W33077  16.043   9.120   7.084  0.2438  0.1447  0.3010
89984W        W33078  11.517   8.731   3.575  0.1340 -0.0046  0.0392
89985W        W33079  13.593   8.382   5.446 -0.0720  0.1070  0.5605
89986W        W33080  12.652  11.413   6.936 -0.1269 -0.5704  0.1392
89987W        W33081  12.103   9.081   5.545 -0.0584  0.0861  0.0981
89988W        W33082  15.965  10.953   3.658  0.0047 -0.2953 -0.0649
89989W        W33083  14.894  10.332   6.221 -0.0713 -0.1356 -0.0224
89990W        W33084  13.296   9.565   3.613 -0.1131  0.1088 -0.0776
89991W        W33085  10.637   7.634   4.349 -0.0172  0.2419  0.1747
89992W        W33086  11.710   9.684   6.588  0.0092  0.2970 -0.0121
89993W        W33087  12.176   8.734   6.400 -0.0728 -0.0902 -0.0421
89994W        W33088  11.292   8.542   4.079  0.2904  0.0545 -0.2353
89995W        W33089  15.751  10.136   6.362  0.2448 -0.2160 -0.1295
89996W        W33090  11.432   9.360   6.850  0.0061 -0.0104 -0.1334
89997W        W33091  14.397   8.141   5.839  0.1563  0.1023 -0.0179
89998W        W33092  11.621   8.870   5.549 -0.0182  0.2906  0.2746
89999W        W33093  14.617   9.650   5.888  0.2394 -0.1200 -0.1384
90000W        W33094  13.792   9.767   4.226 -0.2433 -0.2715 -0.2179
90001W        W33095  13.105   7.084   4.148 -0.1380 -0.0244 -0.2822
90002W        W33096  13.827   6.175   5.019 -0.0106  0.1109 -0.0920
90003W        W33097  11.850   8.474   4.280  0.1147  0.0921  0.1094
90004W        W33098  13.512   9.052   3.571  0.0898  0.1484  0.2822
90005W        W33099  14.556  10.693   5.615  0.1432 -0.4154  0.0600
90006W        W33100  15.387   9.503   4.606  0.0443  0.1703 -0.0367
90007W        W33101  11.173   9.481   4.453  0.1736  0.0683 -0.1166
90008W        W33102  13.402   9.323   6.792  0.1946  0.2124  0.1749
90009W        W33103  13.001  10.560   7.062 -0.3170 -0.1933 -0.0547
90010W        W33104  11.706  11.312   2.795  0.1423 -0.0106 -0.2185
90011W        W33105  11.744  10.694   4.999  0.0941  0.1919 -0.0577
90012W        W33106  10.133   9.410   4.372  0.2081  0.3523 -0.0230
90013W        W33107  10.321   7.810   6.925  0.1272 -0.2703  0.5705
90014W        W33108  12.138  10.350   5.250 -0.0257  0.0376  0.0415
90015W        W33109  13.685   8.108   4.431  0.0486 -0.1250 -0.1247
90016W        W33110  11.202   7.531   5.606  0.3563  0.0834  0.2197
90017W        W33111  14.546   9.420   6.393 -0.1049 -0.2916  0.1192
90018W        W33112  12.356  10.578   4.886 -0.3134  0.1305  0.0893
90019W        W33113  13.943  10.642   5.307 -0.1637 -0.0861 -0.0081
90020W        W33114  13.856   9.657   5.225  0.1855  0.1170 -0.5190
90021W        W33115  13.787   9.395   3.847 -0.2705 -0.2994 -0.0413
90022W        W33116  11.946   8.913   5.060  0.4337 -0.2034  0.0679
90023W        W33117  10.609   8.715   6.999  0.0240 -0.1030 -0.0573
90024W        W33118  11.713   7.095   6.508  0.1732  0.1022 -0.1672
90025W        W33119  11.416   8.375   6.511 -0.2669  0.0497 -0.2179
90026W        W33120  13.374   8.186   4.953 -0.0058 -0.2795 -0.2664
90027W        W33121  11.633   6.498   4.676 -0.0578 -0.0415  0.5250
90028W        W33122  14.460   8.056   4.928  0.1747 -0.2075 -0.1875
90029W        W33123  13.649   7.095   4.536 -0.1692 -0.3353  0.1719
90030W        W33124  10.237   9.164   5.066 -0.2281  0.1688 -0.2092
90031W        W33125  14.612   7.103   6.837  0.1411  0.3936  0.0840
90032W        W33126  13.169  11.795   5.164  0.3133  0.0765 -0.5759
90033W        W33127  13.284  11.309   6.878  0.0747 -0.0716  0.0924
90034W        W33128  14.493  10.306   5.321  0.1395 -0.1951 -0.0167
90035W        W33129  12.251   6.792   6.903 -0.0612  0.0983 -0.0426
90036W        W33130  11.511   8.821   4.792 -0.1838  0.0553  0.2728
90037W        W33131  12.571  11.020   4.862  0.3245 -0.4121 -0.3275
90038W        W33132  10.888   8.620   3.554  0.1174 -0.1967 -0.0486
90039W        W33133  12.699   6.504   4.588 -0.2197  0.2307 -0.1791
90040W        W33134  13.843  11.707   5.532  0.1306 -0.0097  0.2496
90041W        W33135  13.180   8.589   5.171 -0.1776 -0.3145 -0.0776
90042W        W33136  11.240   8.297   7.121 -0.1194 -0.2930 -0.1129
90043W        W33137  13.722   6.722   5.902 -0.4377 -0.2390  0.1526
90044W        W33138  14.977   7.633   5.722  0.0669  0.4111 -0.1748
90045W        W33139  13.891   8.972   6.544  0.2692 -0.0030 -0.0245
90046W        W33140  13.164   9.492   4.855 -0.0910  0.0180  0.0363
90047W        W33141  14.740   9.910   6.561  0.0140 -0.3288  0.2334
90048W        W33142  13.827  10.303   2.987 -0.1047  0.0746 -0.3018
90049W        W33143  10.857   8.722   4.506 -0.0991  0.1922 -0.3832
90050W        W33144  13.402   9.916   5.216 -0.1021 -0.0280 -0.0713
90051W        W33145  13.765   7.485   5.686  0.0253  0.2734  0.2248
90052W        W33146  10.269   9.409   6.358  0.0495 -0.2283  0.0173
90053W        W33147  13.570   8.450   6.854 -0.0654  0.0476  0.1740
90054W        W33148  10.909   8.240   2.267  0.1536 -0.1856 -0.1351
90055W        W33149  10.893   9.125   5.755 -0.1126  0.1010  0.1244
90056W        W33150  13.146   6.239   5.476 -0.1366 -0.0840 -0.0527
90057W        W33151  14.383   9.578   3.834  0.0736 -0.0132  0.2038
90058W        W33152  14.504   8.499   6.670 -0.3034  0.2854  0.0055
90059W        W33153  14.708   9.404   4.212 -0.0042  0.0537 -0.0734
90060W        W33154  12.787   7.699   2.100 -0.0826 -0.0244  0.1156
90061W        W33155  13.403   7.515   4.209  0.1594  0.0728 -0.2397
90062W        W33156  11.936  10.389   6.946 -0.2879  0.0516 -0.0868
90063W        W33157  12.737   8.431   5.369 -0.0095 -0.0248  0.2441
90064W        W33158  14.019  10.557   6.295  0.1467  0.0544  0.2842
90065W        W33159  13.028   9.214   4.451  0.0271  0.0570  0.0823
90066W        W33160  15.614   9.867   4.390  0.0731  0.3227  0.2097
90067W        W33161  11.544   9.761   5.176  0.0088  0.3605  0.1133
90068W        W33162  13.673   9.872   7.509  0.1817 -0.0459 -0.0761
90069W        W33163  14.754  10.120   5.784  0.3608 -0.0680 -0.0963
90070W        W33164  11.340   9.194   5.892 -0.0513  0.0908  0.0191
90071W        W33165  11.065   9.015   3.877 -0.3825  0.2698  0.2882
90072W        W33166  13.882   6.980   5.453 -0.0830 -0.0610  0.0044
90073W        W33167  12.563  10.312   2.680 -0.3496 -0.0260 -0.2476
90074W        W33168  14.106   7.151   6.689 -0.3317 -0.1589 -0.2102
90075W        W33169  13.974   7.469   6.305  0.2542 -0.1761  0.0129
90076W        W33170  12.928   7.145   5.906 -0.0312  0.1122  0.2190
90077W        W33171  15.720   9.747   7.777 -0.0642 -0.1089  0.1342
90078W        W33172  14.238   8.299   3.456  0.1104  0.1695  0.2246
90079W        W33173  12.902   8.639   6.309  0.1167 -0.1800  0.3722
90080W        W33174  12.360   8.414   2.959 -0.2631 -0.0053 -0.1875
90081W        W33175  13.721   8.833   6.013  0.2771  0.2278  0.0898
90082W        W33176  12.455   9.159   6.396  0.3220  0.1373 -0.5002
90083W        W33177  12.331   9.919   6.084 -0.1215  0.2298  0.3427
90084W        W33178  13.864   9.991   7.997  0.2161  0.0974 -0.2119
90085W        W33179  14.336   7.417   3.851 -0.0155  0.0390 -0.1642
90086W        W33180  14.125   8.715   6.905  0.2555  0.4396  0.2596
90087W        W33181  12.334   8.077   4.567  0.1961 -0.0392 -0.1266
90088W        W33182  12.765   9.743   4.501 -0.5168 -0.0417 -0.2208
90089W        W33183  12.293   8.926   5.982 -0.2296  0.0557 -0.0771
90090W        W33184  11.046   8.571   5.017  0.1428  0.0447 -0.3427
90091W        W33185  11.872   9.611   4.339 -0.1005  0.2569  0.0644
90092W        W33186  13.532  10.953   2.332  0.3146  0.0146 -0.2028
90093W        W33187  13.226   9.166   5.914  0.2406  0.1601  0.0326
90094W        W33188  11.028  10.656   2.735 -0.1162 -0.1092 -0.2725
90095W        W33189  13.299   6.732   5.467 -0.0468 -0.0758 -0.3162
90096W        W33190  12.380   9.602   4.224 -0.3294  0.1183 -0.3951
90097W        W33191  12.833   7.466   4.328  0.0195  0.0411  0.2532
90098W        W33192  11.495   7.883   5.024  0.2497  0.2146  0.2625
90099W        W33193  13.269   6.285   4.514  0.0356 -0.0269 -0.0854
90100W        W33194  14.881  10.655   3.623  0.0118  0.3590 -0.3315
90101W        W33195  12.036   8.242   6.376  0.0869 -0.1665  0.0419
90102W        W33196  11.671   8.514   5.175 -0.1686  0.4117 -0.4274
90103W        W33197  10.443  10.136   4.801 -0.0763 -0.1256  0.0991
90104W        W33198  14.716   8.577   5.600  0.1646 -0.1321 -0.2114
90105W        W33199  13.639   6.816   5.016 -0.0321  0.0608  0.0722
90106W        W33200  14.138   9.654   7.782  0.4588  0.0042  0.0339
90107W        W33201  12.630   8.270   7.560 -0.2393  0.2594  0.4310
90108W        W33202  11.211   8.311   3.172  0.4210  0.3300 -0.2096
90109W        W33203  15.770   8.867   6.745 -0.0066  0.2503 -0.0609
90110W        W33204  11.871   8.119   4.869 -0.0709 -0.0578 -0.1046
90111W        W33205  11.747  10.501   3.417  0.1139  0.0889  0.1126
90112W        W33206  14.638   9.688   7.522  0.0741  0.1243 -0.0604
90113W        W33207  12.586   7.876   3.699 -0.0655  0.0979 -0.2111
90114W        W33208  11.563   9.852   4.692  0.2608 -0.3006  0.1023
90115W        W33209  11.719   6.736   6.975 -0.2708 -0.2538  0.2505
90116W        W33210  14.244   8.620   6.195  0.1275 -0.0852  0.0288
90117W        W33211  11.442   8.694   6.025  0.2014  0.0010  0.2720
90118W        W33212  13.524   7.345   5.217  0.1611 -0.0929 -0.1208
90119W        W33213  13.623   9.272   4.984  0.0840 -0.2299 -0.0754
90120W        W33214  16.168  10.115   5.064  0.2929 -0.3921  0.0605
90121W        W33215  12.777   8.288   7.098 -0.1900  0.0620 -0.3572
90122W        W33216  12.009  10.130   5.741 -0.0459 -0.0313  0.0049
90123W        W33217  12.157   7.261   6.544 -0.2336 -0.2372 -0.1246
90124W        W33218  15.054  11.468   2.560 -0.0471  0.1058 -0.1679
90125W        W33219  13.980   9.052   7.489  0.2383 -0.2359  0.0877
90126W        W33220  10.638   8.228   4.753 -0.2965  0.0590  0.0260
90127W        W33221  11.242   8.481   5.458  0.1993 -0.0715 -0.3588
90128W        W33222  13.339   9.945   4.438 -0.0300  0.1284  0.0261
90129W        W33223  13.112   9.185   6.427 -0.1071 -0.1012 -0.1258
90130W        W33224  12.435   9.879   5.586 -0.0758 -0.0120  0.3104
90131W        W33225  11.989   9.410   5.129 -0.3680 -0.0029  0.0193
90132W        W33226  10.833   9.821   6.441  0.1521 -0.1491  0.1692
90133W        W33227  14.079   7.335   4.514 -0.2164  0.0954  0.4187
90134W        W33228  13.581   9.418   4.494 -0.1541  0.0157  0.1388
90135W        W33229  11.890   8.053   5.435 -0.1135 -0.0998 -0.1591
90136W        W33230  15.039   6.246   6.663 -0.0068  0.2188  0.0953
90137W        W33231  14.183   8.769   4.341 -0.1288  0.0018  0.2103
90138W        W33232  13.161   7.745   8.181  0.3255  0.0573 -0.0583
90139W        W33233  12.479   8.129   5.660  0.0232  0.0969  0.4485
90140W        W33234  14.967  10.531   5.265 -0.0247 -0.0710 -0.1518
90141W        W33235  11.985   7.692   7.117  0.4087 -0.1321 -0.2508
90142W        W33236  12.878  10.891   7.818 -0.2331  0.0959 -0.1637
90143W        W33237  11.820   9.226   6.551 -0.1409  0.4156 -0.2261
90144W        W33238  13.078   8.121   5.483  0.0350  0.1035  0.1414
90145W        W33239  12.235   6.725   4.585 -0.1917  0.0448 -0.3438
90146W        W33240  11.068   8.314   6.171  0.4948 -0.4447 -0.0046
90147W        W33241  15.710   9.440   4.965 -0.1186  0.2117  0.2078
90148W        W33242  12.370   9.544   3.671  0.2681  0.1407  0.1675
90149W        W33243  13.453   7.115   5.783  0.0070  0.1728 -0.2781
90150W        W33244  11.495   9.181   5.183  0.0616 -0.0069  0.0220
90151W        W33245  12.938   9.122   5.472  0.3564 -0.1260  0.1847
90152W        W33246  11.399   9.535   2.544 -0.0124  0.0235 -0.0306
90153W        W33247  12.612  10.196   5.124  0.2125  0.1169 -0.2854
90154W        W33248  12.427   6.416   7.329  0.1174  0.1410  0.1312
90155W        W33249  15.142   9.161   5.577  0.0107 -0.1683 -0.3717
90156W        W33250  12.787   8.132   4.763 -0.2154 -0.1116 -0.0198
90157W        W33251  13.455   7.164   7.121  0.3048 -0.1738 -0.3158
90158W        W33252  14.514   9.379   7.119 -0.0492  0.2783 -0.1250
90159W        W33253  12.469   7.813   6.206 -0.0511 -0.0389  0.1132
90160W        W33254  11.237   7.184   7.676 -0.0923  0.0236 -0.4924
90161W        W33255  15.255  10.178   6.490 -0.0287 -0.0171  0.2206
90162W        W33256  14.019   7.670   5.112  0.3621  0.2994  0.3004
90163W        W33257  14.847   8.324   5.192 -0.2971 -0.0428  0.0934
90164W        W33258  14.234   9.110   6.149  0.0893 -0.0932 -0.0185
90165W        W33259  12.372   7.954   2.571 -0.2369  0.0240  0.3290
90166W        W33260  11.111   9.691   5.980  0.2058 -0.1431 -0.0743
90167W        W33261  14.970   8.155   5.701 -0.0933 -0.2455 -0.0725
90168W        W33262  12.401   8.721   3.489  0.0049  0.2900 -0.1922
90169W        W33263  14.037   8.200   6.796 -0.0977  0.0892  0.1398
90170W        W33264  13.481  10.401   4.947 -0.0777 -0.0995 -0.1675
90171W        W33265  13.384   9.435   5.407  0.1807  0.1150  0.1056
90172W        W33266  13.202   7.946   4.532  0.0216  0.0710 -0.0919
90173W        W33267  12.373   8.208   5.106  0.1857  0.0180 -0.1300
90174W        W33268  12.659  10.408   6.165 -0.1934  0.1446  0.0581
90175W        W33269  11.517   7.923   4.007  0.4032 -0.1041  0.0733
90176W        W33270  12.540   8.957   4.464  0.0143  0.2599 -0.0848
90177W        W33271  15.058   9.648   5.661 -0.2898  0.1848 -0.1218
90178W        W33272  16.180   9.841   6.737 -0.0073 -0.2997 -0.4481
90179W        W33273  11.435   6.611   5.512  0.0657 -0.2012  0.2165
90180W        W33274  15.574   8.342   6.767 -0.0541 -0.1010  0.0174
90181W        W33275  10.957   9.884   3.404 -0.0194  0.0148 -0.0615
90182W        W33276  12.649   6.064   5.887  0.0522 -0.0555 -0.1649
90183W        W33277  12.858  10.449   4.726  0.1487 -0.1282  0.3264
90184W        W33278  11.374  10.556   5.518 -0.3617 -0.2210  0.2457
90185W        W33279  11.449  11.229   4.080  0.2182 -0.2764  0.1934
90186W        W33280  13.028   7.846   6.307  0.1397 -0.0785  0.2783
90187W        W33281  14.408   9.083   6.669  0.4326  0.0904  0.4140
90188W        W33282  12.023   9.820   5.373  0.1955 -0.1230 -0.2519
90189W        W33283  14.420   7.619   5.994  0.2160  0.5985 -0.3134
90190W        W33284  14.585   8.875   7.135 -0.1197  0.1829  0.3220
90191W        W33285  11.175   9.484   4.962  0.2473  0.0610  0.0165
90192W        W33286  13.491  10.128   8.368  0.0097 -0.1546  0.4232
90193W        W33287  16.054   9.544   4.509  0.1391  0.1231  0.1043
90194W        W33288  12.172  10.128   4.215  0.1598 -0.6779  0.1286
90195W        W33289  11.065   8.973   6.863  0.0655  0.1259 -0.6255
90196W        W33290  14.289   8.365   7.263 -0.1941 -0.2288  0.2429
90197W        W33291  14.087  10.059   5.009 -0.1016  0.1172 -0.1344
90198W        W33292  11.901   7.120   5.360 -0.0093 -0.0846  0.0346
90199W        W33293  13.409  10.664   5.410 -0.1243  0.3822  0.2945
90200W        W33294  12.142  11.058   5.168  0.0270 -0.0928  0.4264
90201W        W33295  11.036   7.908   7.390 -0.1230 -0.0690  0.1613
90202W        W33296  11.188  10.984   3.082  0.3807  0.0294  0.2104
90203W        W33297  15.310   9.146   4.942 -0.0178  0.0503 -0.1789
90204W        W33298  12.677   8.614   5.827  0.0399 -0.2571  0.3262
90205W        W33299  14.428  10.145   6.240  0.0257 -0.0338 -0.0223
90206W        W33300  12.562   9.106   3.902  0.0658 -0.0443  0.1374
90207W        W33301  10.786  10.050   5.195  0.2257 -0.0903 -0.1494
90208W        W33302  12.487  10.164   3.797 -0.0011 -0.0641 -0.0101
90209W        W33303  14.493  10.070   2.875 -0.0811  0.0222  0.0711
90210W        W33304  13.540   9.433   2.699  0.1318 -0.0995  0.0944
90211W        W33305  14.431  10.474   7.184 -0.2117  0.2861 -0.3459
90212W        W33306  14.477   7.879   3.604 -0.2925  0.1169 -0.0308
90213W        W33307  15.044   9.122   4.383  0.1388 -0.0486  0.3655
90214W        W33308  14.687   8.978   4.955 -0.1719  0.0272 -0.0327
90215W        W33309  14.443  10.297   6.706 -0.1721  0.2390  0.0052
90216W        W33310  12.110   8.447   5.917  0.0483  0.0517 -0.1327
90217W        W33311  13.117   7.667   2.797  0.0246  0.2022 -0.0445
90218W        W33312  12.619   7.935   6.685 -0.1969 -0.0250 -0.2200
90219W        W33313  14.791   7.913   6.205  0.1432  0.1145 -0.0514
90220W        W33314  11.788  11.164   5.650 -0.2277 -0.3024 -0.0548
90221W        W33315  14.522   8.979   3.977 -0.3655 -0.0219  0.0285
90222W        W33316  10.577   6.667   4.552  0.1730  0.0950 -0.0578
90223W        W33317  13.106   9.038   5.013  0.3018  0.0383  0.1617
90224W        W33318  14.259   6.677   5.742 -0.0036  0.1084  0.1725
90225W        W33319  13.118   9.212   3.883 -0.1322  0.1578  0.0130
90226W        W33320  12.412   9.446   5.384 -0.2190 -0.0177  0.0545
90227W        W33321  12.079  10.460   6.147  0.2685  0.1923 -0.2331
90228W        W33322  12.053   9.812   4.816 -0.0281 -0.2764 -0.2408
90229W        W33323  12.979  10.418   6.528  0.2729  0.3512  0.4089
90230W        W33324  10.366   8.512   3.552  0.1703  0.1892  0.1192
90231W        W33325  13.862   8.116   4.942 -0.0949  0.0475  0.4287
90232W        W33326  12.752   9.554   5.879  0.1595 -0.0019 -0.1823
90233W        W33327  14.355   6.692   6.744  0.2307 -0.4159  0.1924
90234W        W33328  13.821   8.442   3.887  0.1472  0.0070 -0.2832
90235W        W33329  13.405   7.936   5.946  0.1884  0.1350  0.0377
90236W        W33330  14.254   9.393   5.638 -0.0704  0.2409 -0.0668
90237W        W33331  10.729   9.339   6.178  0.2908  0.2832 -0.1621
90238W        W33332  11.273   9.933   3.912  0.1134  0.1927 -0.2058
90239W        W33333  15.417   9.765   7.270  0.0534 -0.1082  0.0843
90240W        W33334  12.790   7.372   3.822  0.1704 -0.0807 -0.0203
90241W        W33335  14.327  10.785   6.800 -0.1027 -0.0343 -0.0371
90242W        W33336  11.648   7.550   5.363 -0.0433 -0.0799 -0.4552
90243W        W33337  11.176   7.511   4.081  0.0361 -0.0264 -0.0341
90244W        W33338  12.169   9.334   4.657  0.3053  0.1632 -0.1220
90245W        W33339  13.344   9.627   5.885  0.3379  0.0037 -0.2383
90246W        W33340  15.371   9.412   8.074  0.2742  0.0791  0.0076
90247W        W33341  11.390   7.946   5.467  0.1231  0.0022  0.1228
90248W        W33342  14.078   9.313   4.214  0.0710  0.0835 -0.2636
90249W        W33343  13.838   9.048   5.364  0.0663  0.1504  0.0865
90250W        W33344  13.531  10.295   2.535  0.0045 -0.0968 -0.0274
90251W        W33345  13.653   8.591   4.333 -0.2224 -0.3662 -0.0368
90252W        W33346  15.330  11.391   4.909  0.0881  0.1334 -0.0169
90253W        W33347  10.838   7.523   6.707  0.1028  0.1576 -0.1748
90254W        W33348  14.272   9.752   6.790  0.1064 -0.3690 -0.0319
90255W        W33349  15.822   9.412   6.759 -0.0233 -0.1525  0.1484
90256W        W33350  13.298   6.423   5.050  0.0864 -0.0434  0.2210
90257W        W33351  11.448   8.947   6.522  0.0701 -0.0109 -0.0560
90258W        W33352  11.676  10.766   2.925 -0.1924 -0.1316 -0.0340
90259W        W33353  14.248   8.785   4.830  0.0235  0.0983  0.4266
90260W        W33354  14.458   7.424   6.449 -0.1642  0.3161  0.0680
90261W        W33355  13.725  10.716   4.646 -0.1339 -0.1390  0.2594
90262W        W33356  14.928   5.159   7.210 -0.0849 -0.1900  0.1199
90263W        W33357  15.299  10.224   6.997 -0.1335  0.1782 -0.0952
90264W        W33358  12.473  10.195   6.927  0.0979 -0.0316  0.1954
90265W        W33359  11.081   8.024   4.261  0.0779 -0.0157  0.0994
90266W        W33360  15.070  10.538   7.337  0.3173  0.2117  0.1785
90267W        W33361  13.803  10.219   5.385  0.1640  0.5027  0.2898
90268W        W33362  13.069  10.404   5.269  0.1490  0.0300  0.3987
90269W        W33363  15.185  10.184   5.587 -0.0838  0.0697  0.0144
90270W        W33364  12.655   8.484   4.414  0.2339  0.0317 -0.1102
90271W        W33365  14.078  10.161   4.576 -0.1781  0.2372  0.2072
90272W        W33366  12.589   7.481   6.587 -0.0312  0.2564 -0.1956
90273W        W33367  13.244   8.421   4.589 -0.1027 -0.0409 -0.0893
90274W        W33368  14.233   6.055   6.504 -0.1654 -0.1112 -0.0146
90275W        W33369  13.029   7.624   6.805 -0.2165 -0.2175  0.0264
90276W        W33370  11.059   7.574   5.132  0.0881 -0.1920 -0.0819
90277W        W33371  10.719   9.955   3.840 -0.3001 -0.1055  0.2983
90278W        W33372  11.057   9.021   4.844 -0.1306  0.0302  0.0749
90279W        W33373  14.726   8.461   6.144  0.3356 -0.1413 -0.2621
90280W        W33374  12.443   7.239   6.150  0.0838  0.1597 -0.3381
90281W        W33375  10.984   9.535   3.966  0.0808  0.1753  0.2289
90282W        W33376  11.907   7.917   4.324  0.0157 -0.2822  0.0652
90283W        W33377  14.522  10.403   4.428 -0.0350 -0.0912 -0.0676
90284W        W33378  11.596   7.707   5.897  0.0909  0.1219 -0.2040
90285W        W33379  12.476   8.343   6.219 -0.1037 -0.4402 -0.0252
90286W        W33380  14.110   9.973   3.887 -0.1114  0.2887  0.1420
90287W        W33381  14.705   9.286   5.399 -0.0586 -0.0126  0.3842
90288W        W33382  13.595   7.652   4.703 -0.1341  0.2552  0.0970
90289W        W33383  14.046  11.097   7.832  0.2570 -0.0491  0.3085
90290W        W33384  11.109   8.110   3.748 -0.0665 -0.0794 -0.3125
90291W        W33385  12.272   8.175   7.001 -0.1224 -0.1043 -0.2087
90292W        W33386  13.027   8.266   6.685 -0.0736  0.0194 -0.2130
90293W        W33387  10.808   7.156   3.782  0.2188  0.0770  0.1271
90294W        W33388  13.760   7.925   6.315  0.2305 -0.1902  0.1124
90295W        W33389  13.288  10.565   4.486  0.0147 -0.0726 -0.0800
90296W        W33390  13.802   9.865   2.480  0.1703  0.1242  0.0405
90297W        W33391  12.392   8.955   5.190 -0.2135 -0.0273  0.1121
90298W        W33392  13.712   9.295   5.764  0.2750  0.0795 -0.0047
90299W        W33393  11.422   7.355   6.219 -0.1567 -0.0772  0.1852
90300W        W33394  12.665   7.793   5.264 -0.3745 -0.0615 -0.1497
90301W        W33395  12.261   9.444   5.942  0.0138 -0.0497  0.1717
90302W        W33396  15.305  10.250   4.517  0.0556 -0.0034  0.2362
90303W        W33397  13.561   7.826   5.393 -0.1974 -0.0803  0.0263
90304W        W33398  12.285   8.156   4.060  0.0597 -0.0625  0.1730
90305W        W33399  12.698   7.549   5.783  0.1212  0.0924 -0.2368
90306W        W33400  10.759   9.335   5.181  0.1092 -0.2808  0.4249
90307W        W33401  15.078   8.742   5.887 -0.1358  0.1741  0.1258
90308W        W33402  11.356   7.108   5.352 -0.2733 -0.1206 -0.0147
90309W        W33403  13.485   6.701   4.248  0.1675 -0.0415 -0.3204
90310W        W33404  12.609   9.264   4.875 -0.0215  0.3363 -0.2505
90311W        W33405  11.750   9.429   5.604  0.0162  0.3940  0.0608
90312W        W33406  12.948   8.200   5.968  0.0398  0.0672 -0.2270
90313W        W33407  13.606   7.685   7.122  0.2337  0.2147 -0.0497
90314W        W33408  12.090   9.220   4.080 -0.2209 -0.3918 -0.0043
90315W        W33409  14.980   8.311   6.610  0.0110  0.0152 -0.2498
90316W        W33410  11.416   8.279   4.688  0.1082  0.0442 -0.3083
90317W        W33411  15.412   8.852   4.034 -0.1471 -0.1034 -0.0139
90318W        W33412  14.189   9.717   6.062  0.1166 -0.1360  0.0181
90319W        W33413  16.179   9.906   7.603  0.3567  0.0585 -0.1674
90320W        W33414  13.269  10.197   7.469 -0.1653  0.3842 -0.0984
90321W        W33415  14.051   8.656   5.718  0.2565  0.2416  0.0221
90322W        W33416  12.082   5.173   6.730 -0.3538  0.1141  0.1112
90323W        W33417  12.768   8.648   4.905 -0.3666 -0.0867  0.0375
90324W        W33418  13.688   9.890   4.808  0.1271  0.1468  0.0338
90325W        W33419  13.454   7.899   6.672 -0.0853  0.0647 -0.3504
90326W        W33420  11.904   8.927   4.499  0.0880 -0.2121 -0.0590
90327W        W33421  13.178   7.021   3.580 -0.0270  0.1475 -0.0154
90328W        W33422  12.010   9.902   6.997  0.3432  0.0370 -0.1267
90329W        W33423  12.938   9.732   5.427 -0.0667  0.1428 -0.1151
90330W        W33424  12.644  10.545  12.254  0.2560  0.0749  0.0688
90331W        W33425  10.461   8.383   8.100 -0.1043  0.0512  0.1254
90332W        W33426  13.282   6.764   7.340  0.0502  0.4856  0.0573
90333W        W33427  15.279   9.892   7.978 -0.1299 -0.4960  0.2482
90334W        W33428  10.387   7.473   9.066 -0.0248 -0.0419  0.1051
90335W        W33429  13.613  10.852   7.626 -0.1503  0.0433 -0.1828
90336W        W33430  14.584  11.235   9.321  0.1661  0.1381 -0.0209
90337W        W33431  13.927  11.233   8.410 -0.0660 -0.2130 -0.0287
90338W        W33432  15.049   9.163   7.315 -0.0294  0.0612  0.0620
90339W        W33433  11.090   9.767  11.822  0.0435  0.2034 -0.2262
90340W        W33434  12.625   6.901   7.262  0.1613  0.0706 -0.0719
90341W        W33435   9.391   7.138   9.288  0.2073  0.3280 -0.3103
90342W        W33436  15.263   9.743   9.678 -0.0935 -0.1378  0.0309
90343W        W33437  11.987   9.509   7.466 -0.1437  0.4796 -0.1285
90344W        W33438  10.314  10.920   8.863 -0.0097  0.2236 -0.2295
90345W        W33439  12.937   8.818   8.513  0.0996 -0.1485 -0.1283
90346W        W33440  13.145  10.977   8.679  0.1492  0.0031 -0.2312
90347W        W33441  15.081   8.739   9.744  0.0268 -0.1300 -0.3386
90348W        W33442  12.646  10.619   7.529  0.0265 -0.1497  0.2002
90349W        W33443  10.391   9.992   7.715  0.1003 -0.0978  0.0962
90350W        W33444  10.944   8.350   7.817 -0.0588  0.4855 -0.1482
90351W        W33445  11.663   9.244   8.446  0.0217 -0.3349 -0.1036
90352W        W33446  13.832   8.922  10.050 -0.1547 -0.0769 -0.0549
90353W        W33447  12.844   8.014   9.689 -0.1826  0.0543  0.1075
90354W        W33448  11.393  10.632   8.096  0.0975 -0.1395 -0.2060
90355W        W33449  14.616  10.270   9.058  0.1662  0.0920 -0.1026
90356W        W33450  11.604   8.929   7.734 -0.2909  0.0311 -0.0617
90357W        W33451  10.736  12.799   8.312 -0.1341  0.1174  0.0590
90358W        W33452  13.630   9.378   7.237  0.3706  0.0849 -0.1777
90359W        W33453  15.538   9.216   9.143  0.1652  0.1949 -0.0242
90360W        W33454  11.051  11.152   6.092 -0.1285  0.0770  0.1306
90361W        W33455  13.307   8.001   9.956  0.0323  0.0465 -0.0469
90362W        W33456  13.949  10.394   8.417 -0.3104  0.1517  0.2629
90363W        W33457  12.430   9.482   7.686  0.1094 -0.1813  0.1561
90364W        W33458  13.797  10.516   9.637 -0.0784  0.0008 -0.1294
90365W        W33459  10.412  10.440   9.054 -0.2193  0.1928 -0.2304
90366W        W33460  12.465  10.550   6.579 -0.0406  0.0840 -0.0292
90367W        W33461  14.901   8.793   6.475  0.1114 -0.0458  0.1839
90368W        W33462  11.596   7.966   7.352  0.0171  0.2734  0.0208
90369W        W33463  14.903   7.415   8.776 -0.1489  0.0114 -0.1989
90370W        W33464  11.150   7.100   9.586  0.0097 -0.0692  0.6641
90371W        W33465  11.891  10.807   8.213  0.0626  0.1050  0.2383
90372W        W33466  11.640   7.341   9.374 -0.0276 -0.6035 -0.2188
90373W        W33467  14.092   9.627   7.276  0.0016  0.1851 -0.1166
90374W        W33468  13.307   8.823   9.056 -0.0023  0.0226  0.1351
90375W        W33469  12.417  10.809   8.992 -0.0093  0.1006 -0.2289
90376W        W33470  12.510   8.517   6.686  0.2558 -0.3276 -0.3989
90377W        W33471  14.481  10.889   7.508  0.3837 -0.1667  0.3635
90378W        W33472  15.200  10.385   7.940  0.0353 -0.4161  0.3210
90379W        W33473  13.011  11.708   6.650 -0.2655  0.1769 -0.0112
90380W        W33474  13.133   8.783   6.868  0.2587 -0.0321  0.3452
90381W        W33475  11.453   6.754   7.380  0.0220  0.0320  0.1353
90382W        W33476  13.043   7.998   9.181  0.1918  0.4125 -0.3862
90383W        W33477  13.103  10.481   8.369 -0.0389  0.0787  0.0425
90384W        W33478  15.021   9.822  10.100 -0.1643  0.0297  0.1854
90385W        W33479  13.536  10.353   7.849 -0.1135  0.1416  0.1748
90386W        W33480  14.222   7.335   8.034  0.2581  0.1489 -0.1510
90387W        W33481  13.086   7.187   9.327  0.3529  0.1002  0.0342
90388W        W33482  11.555   9.878   5.726  0.2826 -0.0306 -0.0956
90389W        W33483  13.108   8.948   7.953  0.2708  0.1918 -0.2315
90390W        W33484  16.805  12.224   8.538  0.1065  0.1283 -0.0257
90391W        W33485  14.063   9.229   8.130  0.2147 -0.0731  0.3315
90392W        W33486  10.687  10.551   8.650 -0.1018 -0.0157 -0.2849
90393W        W33487  10.594  11.309   7.409 -0.1180 -0.1105  0.0401
90394W        W33488  13.292  10.195   8.825  0.1727 -0.1847 -0.2446
90395W        W33489  12.132   8.869   6.910 -0.0885  0.1454  0.2200
90396W        W33490  11.939   6.956  11.732 -0.0737 -0.0563 -0.0530
90397W        W33491  12.556  10.571   9.445  0.1731  0.2233 -0.2417
90398W        W33492  13.469   7.773   9.128 -0.0982 -0.1728 -0.0746
90399W        W33493  14.002   7.673   9.030 -0.1842  0.1871  0.0528
90400W        W33494  11.992   9.022   7.432 -0.1372 -0.1460  0.1680
90401W        W33495  14.262   9.150  10.644 -0.2456  0.1191  0.0779
90402W        W33496  15.619   7.907   8.152 -0.0767  0.0422  0.1087
90403W        W33497  14.823   9.591   8.149 -0.0015 -0.0983 -0.1925
90404W        W33498  11.870   8.224  10.133  0.1006  0.2241  0.0445
90405W        W33499  12.200   7.916   8.017 -0.1277  0.1540  0.0033
90406W        W33500  10.672   7.667   9.367 -0.1311  0.3120  0.1715
90407W        W33501  11.991   7.291   7.926  0.3535 -0.0141  0.2371
90408W        W33502  13.578   7.941   8.640 -0.0373  0.5079  0.0233
90409W        W33503  13.403   8.922   8.451  0.1122 -0.1414 -0.3445
90410W        W33504  11.880   8.470   7.198 -0.0857 -0.1157 -0.0592
90411W        W33505  13.691  10.450   7.314 -0.1125  0.0106  0.1744
90412W        W33506  16.197   8.902   9.736  0.0701  0.0022  0.0591
90413W        W33507  13.981  10.808   8.673  0.3220  0.1966  0.4374
90414W        W33508  13.006   5.393   9.208  0.0596 -0.2399 -0.1696
90415W        W33509  12.350   7.385   7.534  0.2039  0.2934 -0.1320
90416W        W33510  12.048  10.885   9.365 -0.0733 -0.2784 -0.0414
90417W        W33511  12.627  11.745   8.949 -0.1113 -0.1243 -0.0007
90418W        W33512  12.630   7.976   8.858  0.1573 -0.1018 -0.0833
90419W        W33513  15.982  13.252   9.512 -0.0231 -0.1267 -0.0369
90420W        W33514  14.272   8.807   8.151 -0.0366  0.1086 -0.1096
90421W        W33515  13.028  10.138   9.283 -0.1557 -0.0698  0.0213
90422W        W33516  13.898   8.893   8.477 -0.1091  0.0175 -0.4202
90423W        W33517  12.144   6.857   7.368 -0.2276  0.2926  0.3046
90424W        W33518  14.470  10.504   8.571 -0.0551 -0.3813  0.5683
90425W        W33519  11.987   9.397   6.967 -0.0631 -0.2999 -0.0844
90426W        W33520  12.906   9.550   8.112  0.1211  0.0266 -0.2187
90427W        W33521  13.356   9.976   9.838  0.1933  0.1943  0.1356
90428W        W33522  13.490   8.440   9.800 -0.1919 -0.0846  0.1296
90429W        W33523  11.686   7.854   8.270  0.1506  0.1624 -0.0452
90430W        W33524  13.703   8.485   8.198  0.1610 -0.2056 -0.2762
90431W        W33525  14.609   8.155   8.203  0.2064 -0.1156  0.0959
90432W        W33526  14.716  10.016   7.904 -0.2017 -0.1448  0.1988
90433W        W33527  12.934   7.008   7.725  0.1505 -0.4208  0.0980
90434W        W33528  12.880   7.146   8.196 -0.2691  0.1397 -0.1477
90435W        W33529  12.917  10.019   8.371 -0.1323  0.5871 -0.0666
90436W        W33530  14.137  10.383   9.268  0.0561  0.0627  0.0493
90437W        W33531  14.830   8.417   7.081  0.0164  0.1929 -0.2114
90438W        W33532  15.698  10.147   8.151  0.1629 -0.0494 -0.0342
90439W        W33533  12.719   9.577   8.588 -0.1678  0.2954  0.2801
90440W        W33534  13.323  10.813   8.073 -0.2601  0.4077  0.2658
90441W        W33535  11.500   6.329   9.378 -0.3188  0.3682  0.0852
90442W        W33536  11.798   8.577   6.708 -0.1630 -0.3234  0.2480
90443W        W33537  13.254   9.683   8.535  0.1231 -0.0172  0.1438
90444W        W33538  10.628  10.878   7.844 -0.2237  0.1322  0.0349
90445W        W33539  14.282   7.518   9.354  0.2180  0.0163 -0.1583
90446W        W33540  11.787   9.129   8.923  0.1737 -0.2745 -0.0984
90447W        W33541  14.284   8.894   9.453 -0.1776  0.2434  0.0316
90448W        W33542  14.337   8.625   8.991  0.2556 -0.1912  0.2049
90449W        W33543  12.417   7.331   6.995 -0.2379  0.2428 -0.2196
90450W        W33544  13.458   8.341   9.110  0.0664  0.2576 -0.1513
90451W        W33545  11.757   8.692   9.147 -0.0736 -0.2710  0.2807
90452W        W33546  13.675   9.839   8.848  0.1603 -0.1923  0.2534
90453W        W33547  13.061   7.538   8.936  0.1957  0.1702  0.2562
90454W        W33548  12.240  10.335   7.360  0.0032  0.0485  0.0339
90455W        W33549  13.393   8.778   6.383  0.2145  0.1743 -0.0859
90456W        W33550  11.936   6.311   9.806 -0.1274 -0.0225 -0.2284
90457W        W33551  12.301   8.963   9.594  0.3267 -0.0828  0.1415
90458W        W33552  12.680   9.581   6.404 -0.1000  0.1951 -0.1138
90459W        W33553  13.167   9.196   9.865  0.0171  0.2056  0.1170
90460W        W33554  12.588  10.398   8.171 -0.0200 -0.2001  0.0485
90461W        W33555  15.141   7.209   9.586 -0.0694 -0.0256 -0.0294
90462W        W33556  11.283  11.384   9.760  0.6968 -0.0053  0.2033
90463W        W33557  12.782   9.066   7.586 -0.5030 -0.1779 -0.2945
90464W        W33558  11.613   8.865   7.067  0.2663  0.2076 -0.0092
90465W        W33559  13.392   6.853   9.019  0.1011 -0.0169  0.2887
90466W        W33560  16.010   9.375   7.874  0.3529  0.0186  0.2769
90467W        W33561  12.637   8.323   9.334 -0.2143  0.0825  0.0229
90468W        W33562  13.798   8.524  10.548  0.0634 -0.0722 -0.0734
90469W        W33563  11.367  10.707   9.106 -0.0179 -0.1122 -0.0080
90470W        W33564  14.398   8.744   7.554  0.1375 -0.0259  0.1162
90471W        W33565  10.633   8.784   7.882  0.4091  0.0477 -0.0960
90472W        W33566  16.713   6.282   9.416 -0.1375  0.0308 -0.5346
90473W        W33567  12.018   8.427   8.750  0.5186 -0.1933  0.1300
90474W        W33568  11.636  10.752   8.671 -0.0765  0.1862 -0.0269
90475W        W33569  13.006   9.613   9.595 -0.0642 -0.1726 -0.0500
90476W        W33570  13.007  10.027   6.868 -0.2890 -0.0654 -0.0384
90477W        W33571  11.261   9.896   8.122  0.0487 -0.2697  0.2435
90478W        W33572  13.898  11.516  10.030  0.1909  0.3397  0.3418
90479W        W33573  12.151   8.864   8.409 -0.0150  0.0866  0.1951
90480W        W33574  11.465   8.732   8.628  0.4854 -0.1097  0.1034
90481W        W33575  13.401   8.136   8.044 -0.2318 -0.0465 -0.0478
90482W        W33576  13.564  10.100   9.335  0.1501 -0.3653  0.2443
90483W        W33577  13.726   9.688   8.331  0.2449 -0.0805 -0.0703
90484W        W33578  12.857   8.595   8.946  0.0311  0.1406 -0.0124
90485W        W33579  14.675  11.536   6.858 -0.1562 -0.0346 -0.3227
90486W        W33580  13.572   8.919   7.015  0.2242 -0.0203  0.0953
90487W        W33581  10.580  10.158   8.331 -0.4841  0.0637 -0.5023
90488W        W33582  12.442   9.654   6.856 -0.1058 -0.0371  0.1058
90489W        W33583  14.389   8.346   9.415  0.2650  0.0089  0.0622
90490W        W33584  11.867  10.024   8.967  0.0896  0.0741 -0.1091
90491W        W33585  11.834   9.088   6.038  0.2449  0.1015 -0.0015
90492W        W33586  10.100  10.691   9.433  0.2132  0.1908  0.0589
90493W        W33587  14.172   7.906   8.098  0.3702  0.4325  0.0880
90494W        W33588  13.276   9.746   7.194  0.0952  0.0329  0.0246
90495W        W33589  12.578   9.068   8.819 -0.0832 -0.1857  0.1291
90496W        W33590  14.721   8.621   8.038  0.0657  0.1173 -0.0247
90497W        W33591  13.140   9.197   9.345 -0.0473  0.2584  0.0012
90498W        W33592  14.330   9.746   9.020  0.3614  0.0671  0.1582
90499W        W33593  13.744   7.182   8.134 -0.3283 -0.1232  0.0601
90500W        W33594  11.533   6.271   7.787  0.0778  0.0938 -0.1361
90501W        W33595  12.629   9.838   9.395  0.1320 -0.2121 -0.1652
90502W        W33596  14.354   9.992   9.480 -0.2328  0.1413 -0.0476
90503W        W33597  14.415   9.829   8.292 -0.2213  0.0752  0.0758
90504W        W33598  13.910   9.008   9.072 -0.0041 -0.2998  0.1476
90505W        W33599  12.360  10.790   7.950  0.1889 -0.0474 -0.3359
90506W        W33600  14.662   9.473   8.720  0.1607 -0.0501 -0.1356
90507W        W33601  12.916   9.447   6.815  0.1081 -0.1659  0.1345
90508W        W33602  12.498  10.188   7.746  0.0937 -0.4252 -0.0943
90509W        W33603  13.493   9.506   9.446 -0.0305 -0.0408  0.0474
90510W        W33604  13.770   8.502   8.729 -0.0001  0.1434 -0.0612
90511W        W33605  14.069  11.186   9.596 -0.2271  0.2507  0.0002
90512W        W33606  14.507   7.242   8.446  0.0468  0.2213  0.2752
90513W        W33607  16.149   5.815   9.186 -0.3219 -0.3804  0.1472
90514W        W33608  13.928   9.511   9.149  0.0039  0.0973  0.0089
90515W        W33609  14.240   8.092   6.320  0.1893  0.0549 -0.0777
90516W        W33610  11.690   8.841   8.185  0.0722  0.3437  0.1421
90517W        W33611  11.773   7.229   7.411  0.1082  0.0221 -0.0237
90518W        W33612  13.433  10.885   7.104  0.1696  0.1188 -0.5034
90519W        W33613  13.858   9.808   9.580 -0.1815  0.0640 -0.2902
90520W        W33614  14.144   8.341   8.379  0.1903  0.1146  0.2030
90521W        W33615  11.105   9.588   8.483 -0.0198 -0.0572  0.5684
90522W        W33616  10.418   7.537   7.377 -0.0707 -0.0417 -0.3110
90523W        W33617  14.310   9.467   9.453  0.3403 -0.2334 -0.1137
90524W        W33618  13.163   7.512   7.356 -0.3060  0.1357  0.1915
90525W        W33619  11.927  11.062   8.936  0.1959  0.2715 -0.1216
90526W        W33620  13.156   8.628  10.098  0.1441 -0.1150 -0.1591
90527W        W33621  11.860  10.505   9.094  0.0415 -0.1114 -0.4550
90528W        W33622  11.812   9.745   8.239  0.0397  0.0059 -0.2681
90529W        W33623  12.150   7.461   9.344 -0.2036  0.0349  0.3968
90530W        W33624  14.750   6.158   9.815  0.2773 -0.2425 -0.1166
90531W        W33625  13.935   8.674   7.788 -0.0284  0.0352 -0.1675
90532W        W33626  12.635   9.345   9.813  0.0769 -0.0728 -0.0514
90533W        W33627  14.756  10.052   8.652  0.1330  0.2346  0.0923
90534W        W33628  10.501  10.995   8.342  0.0562  0.0541  0.2597
90535W        W33629  13.205   9.720   9.070 -0.2495  0.0408  0.1878
90536W        W33630  12.139   6.193   8.881 -0.1736 -0.2946 -0.1080
90537W        W33631  13.372   9.863   7.923  0.0940  0.2860 -0.0875
90538W        W33632  13.196   9.453   7.612 -0.3184  0.0038  0.1137
90539W        W33633  12.830   9.533   7.265 -0.2185  0.1303 -0.0876
90540W        W33634  15.095   9.526   7.633 -0.0752 -0.0772  0.0573
90541W        W33635  12.813   9.850   7.703  0.2711  0.2521 -0.0337
90542W        W33636  14.213  11.457   9.070  0.1910  0.3633 -0.0731
90543W        W33637  12.020   8.648   7.770  0.0357  0.0106 -0.1440
90544W        W33638  13.998  10.761  10.104 -0.0319  0.1502  0.2700
90545W        W33639  11.957  10.729   7.281 -0.0541  0.2102  0.1032
90546W        W33640  13.082   9.922   6.222 -0.1546  0.0130  0.0639
90547W        W33641  11.244  11.339   8.654  0.0017  0.0253 -0.0888
90548W        W33642  14.677   8.295   7.645 -0.2260 -0.1160 -0.0768
90549W        W33643  16.085   8.108   9.594 -0.0946  0.2933 -0.1487
90550W        W33644  14.949   9.130   8.336 -0.3033  0.0223  0.4251
90551W        W33645  12.281   9.384   8.364 -0.0607 -0.2323 -0.1399
90552W        W33646  12.424   8.598   8.106 -0.1135  0.0714 -0.1324
90553W        W33647  13.807  10.805   8.161  0.1044 -0.2911 -0.0486
90554W        W33648  11.857   8.188   7.708 -0.2570 -0.0641 -0.2975
90555W        W33649  12.707   9.122   8.229 -0.0727  0.0556 -0.1666
90556W        W33650  15.031   8.043   9.337  0.0312  0.3695  0.0312
90557W        W33651  13.868   9.479   6.655 -0.1950 -0.4195 -0.0890
90558W        W33652  12.933   8.452   7.890  0.0177  0.2197 -0.2103
90559W        W33653  13.453   8.848   7.539 -0.0285 -0.0179  0.0888
90560W        W33654  12.334   9.736   9.016 -0.0042 -0.2233  0.2987
90561W        W33655  11.952  10.397   9.612  0.2476 -0.1773  0.0232
90562W        W33656  10.873   7.554   8.291  0.1832 -0.1163 -0.1680
90563W        W33657  14.723   8.280   8.915  0.3296 -0.4671 -0.2871
90564W        W33658  12.821   9.975   8.889  0.0508  0.1343  0.2238
90565W        W33659  12.801  10.865   8.292  0.0769  0.0130 -0.2975
90566W        W33660  13.916   8.194   7.768  0.3927 -0.0016 -0.0276
90567W        W33661  14.445   9.733   9.920 -0.0360  0.1882  0.0487
90568W        W33662   0.850   5.526   9.721  0.0749  0.1088 -0.0895
90569W        W33663  12.030   6.897   8.212  0.0463 -0.1221 -0.0738
90570W        W33664  15.042   8.677   8.768 -0.0486 -0.1605 -0.2864
90571W        W33665  10.945   8.632   9.421 -0.0099 -0.1441  0.2788
90572W        W33666  12.821   7.497   7.735 -0.2159 -0.1622 -0.1482
90573W        W33667  11.501   9.815   8.703  0.1662 -0.0043 -0.2898
90574W        W33668  13.289   8.491   8.527  0.1542  0.1145 -0.3570
90575W        W33669  12.738   9.416   9.103  0.3708 -0.0741 -0.1283
90576W        W33670  15.057  10.039   7.500 -0.1065  0.1897 -0.2896
90577W        W33671  12.724   4.882   9.110  0.0437 -0.1429  0.0712
90578W        W33672  11.522  10.271   7.828  0.0585  0.0308  0.0679
90579W        W33673  13.380   9.347   8.188 -0.0266  0.0317  0.1324
90580W        W33674  14.007   9.973  10.051  0.5298 -0.1655 -0.1786
90581W        W33675  10.841   9.082   8.469  0.2019 -0.1314  0.0437
90582W        W33676  14.656  11.530   8.843 -0.0023  0.3756  0.2038
90583W        W33677  14.992  10.473   8.792 -0.3064 -0.1546  0.1083
90584W        W33678  12.259   7.997   7.490  0.2485  0.1304  0.2150
90585W        W33679  11.916   9.350   7.977  0.0220 -0.2151 -0.2429
90586W        W33680   9.846  11.348   7.642 -0.0716  0.0613  0.3127
90587W        W33681  12.187   9.493   9.690 -0.1267 -0.1400  0.2725
90588W        W33682  12.629  10.025   6.499 -0.1574  0.1088 -0.1232
90589W        W33683  12.437  10.142   9.855  0.3585 -0.0749  0.2418
90590W        W33684  11.882   7.666   7.619 -0.1157 -0.0901 -0.5438
90591W        W33685  13.094   9.261   8.714  0.1164  0.0288  0.0554
90592W        W33686  12.309  10.228   9.104 -0.0745 -0.0265  0.1120
90593W        W33687  15.081  10.536   9.279 -0.1870 -0.1187  0.1731
90594W        W33688  14.474   9.182   9.055  0.2478  0.0580 -0.1892
90595W        W33689  14.282  10.347   8.055  0.2178  0.1209  0.1074
90596W        W33690  12.847   8.286   8.363  0.2822  0.3108 -0.2772
90597W        W33691  14.232   8.145   8.877  0.3248 -0.0940  0.1617
90598W        W33692  13.993   8.051   9.316  0.2214  0.0763 -0.1431
90599W        W33693  11.788   9.592   9.206  0.0259 -0.1116  0.1352
90600W        W33694  10.419   9.537   5.862 -0.0402 -0.3897 -0.0571
90601W        W33695  12.177   9.586   6.440  0.1285 -0.1941 -0.0181
90602W        W33696  10.967   8.518   8.358 -0.0464 -0.0430 -0.1094
90603W        W33697  11.222   8.751   7.969 -0.1382  0.1584 -0.0060
90604W        W33698  12.003   8.333   8.297  0.3569  0.0508 -0.2298
90605W        W33699  14.825   9.819   9.136 -0.0353  0.0674  0.2514
90606W        W33700  11.384   5.844   9.659  0.1564 -0.1662 -0.0453
90607W        W33701  11.950   8.305   9.448 -0.2380 -0.1859  0.1023
90608W        W33702  14.791  10.120   7.121 -0.0308  0.0095 -0.1688
90609W        W33703  14.706  10.416   7.614  0.0342 -0.1186  0.2815
90610W        W33704  12.650   7.748   7.179  0.0415  0.0763 -0.1548
90611W        W33705  11.226   9.505   6.439  0.3573  0.1481 -0.2111
90612W        W33706  10.970   7.350   7.218 -0.4820  0.0898 -0.3621
90613W        W33707  13.528   8.942   9.519  0.0071  0.1412 -0.0168
90614W        W33708  12.414   9.842   7.340 -0.0034  0.0697 -0.0570
90615W        W33709  14.301  11.716   7.223 -0.1376 -0.0098  0.0275
90616W        W33710  10.821   5.494   9.350 -0.2082  0.0402 -0.1529
90617W        W33711  13.661   9.410   7.740  0.2903 -0.1466 -0.1360
90618W        W33712  16.245   9.224   8.326  0.0573 -0.0073  0.1133
90619W        W33713  14.318   7.737   8.602 -0.1561 -0.0085 -0.1515
90620W        W33714  13.345   8.341   7.615  0.0980  0.4312  0.0071
90621W        W33715  14.837   8.590   9.293 -0.0155  0.1397 -0.1618
90622W        W33716  12.223   7.055  10.705 -0.0530  0.0083  0.2456
90623W        W33717  13.013   7.928   7.600  0.3710  0.2923  0.2374
90624W        W33718  14.048  10.563   7.647  0.0659  0.0087 -0.0110
90625W        W33719   9.309   7.624   9.100 -0.1862 -0.0571 -0.1856
90626W        W33720  13.860   8.429   6.396 -0.3051  0.2025 -0.4199
90627W        W33721  14.148  10.117   8.754 -0.2052  0.0250  0.1481
90628W        W33722  12.990   8.655   7.389  0.5110 -0.0783 -0.0374
90629W        W33723  15.953   9.562   7.360  0.0939  0.1043  0.0833
90630W        W33724  14.877  10.098   9.575 -0.0256 -0.0812  0.1271
90631W        W33725  13.582  10.921   9.777 -0.0357 -0.3013  0.0304
90632W        W33726  14.346  10.081   7.492  0.2983  0.0797 -0.0713
90633W        W33727  11.415   6.069   8.595 -0.2969 -0.0851 -0.3615
90634W        W33728  13.174   9.162   7.208 -0.1263 -0.0842 -0.0518
90635W        W33729  12.790  10.143   7.316  0.1992 -0.1077  0.2397
90636W        W33730  14.028   6.989   9.027  0.1058 -0.0765  0.2208
90637W        W33731  11.958   9.591   8.702 -0.0115 -0.3387  0.0722
90638W        W33732  12.349   7.559   8.815 -0.1248 -0.2538 -0.2676
90639W        W33733  15.494  11.832   9.601  0.0142  0.0924  0.0587
90640W        W33734  14.103   9.426   8.560 -0.1553  0.0491 -0.2208
90641W        W33735  12.384  12.390   1.894 -0.0509 -0.0745  0.2372
90642W        W33736  12.440  12.452  31.528 -0.1309  0.1522 -0.4097
90643W        W33737  14.172  10.774  31.882 -0.2509  0.0531 -0.1126
90644W        W33738  14.853  12.219  30.295 -0.0040  0.1558 -0.2763
90645W        W33739  11.350  11.762   1.386  0.1145 -0.3216 -0.2983
90646W        W33740  13.817  16.451   0.025  0.1832 -0.3249 -0.4417
90647W        W33741  12.759  10.001   2.272  0.4776 -0.1916 -0.1772
90648W        W33742  12.863  15.270   0.329 -0.0136 -0.2849 -0.0081
90649W        W33743  13.589  13.261   3.195 -0.1579  0.0302  0.0185
90650W        W33744  13.197  12.565  31.218 -0.1968  0.6129  0.3026
90651W        W33745  12.833  10.992   2.282  0.2108 -0.4449 -0.1862
90652W        W33746  13.069  13.283   1.374  0.0062 -0.0813 -0.2608
90653W        W33747  11.550  10.258   0.408  0.3291 -0.0504 -0.4624
90654W        W33748  10.481  10.017   1.621  0.1409 -0.1245  0.1814
90655W        W33749  13.171  12.245   1.991  0.0210  0.1113  0.0830
90656W        W33750  12.855  13.776   0.011  0.0035 -0.1782 -0.0220
90657W        W33751  12.006  11.848   2.547 -0.4111  0.1421 -0.1992
90658W        W33752  12.030  12.947   0.003 -0.0225 -0.1683 -0.3148
90659W        W33753  12.205  14.609   0.414  0.3873 -0.0686 -0.0093
90660W        W33754  12.527  10.636   3.566  0.1701 -0.0763 -0.0408
90661W        W33755  13.364  10.455   3.475 -0.2006  0.3407  0.0469
90662W        W33756  12.698  14.663   0.612  0.0809  0.1080 -0.0434
90663W        W33757  13.021  12.462  31.932  0.0331 -0.0499 -0.2711
90664W        W33758  11.600  12.681   1.378  0.2011  0.1076  0.1953
90665W        W33759  11.789  12.992   0.536  0.0576  0.0448 -0.2795
90666W        W33760  12.250  13.250   0.764  0.0698  0.2042 -0.1007
90667W        W33761  13.199  11.654   1.865 -0.0388 -0.0213 -0.0126
90668W        W33762  12.452  13.238   0.238 -0.1824  0.1176  0.1507
90669W        W33763  12.879  13.954   0.480  0.2361 -0.3462  0.1876
90670W        W33764  13.133  11.292   3.584 -0.0014  0.1837 -0.1417
90671W        W33765  12.367  13.774   0.268 -0.0283  0.0764  0.1362
90672W        W33766  11.477  13.873   0.214 -0.1420 -0.3288 -0.1418
90673W        W33767  12.553  13.897   1.706 -0.3195 -0.3122 -0.0893
90674W        W33768  15.341  14.474   0.888 -0.0339 -0.2415  0.2270
90675W        W33769  13.547  12.677   3.229 -0.3119 -0.2484 -0.3358
90676W        W33770  12.636  14.027   2.216  0.2851  0.0313  0.0675
90677W        W33771  10.718  13.711  31.078  0.1166 -0.1341 -0.1375
90678W        W33772  13.828  15.300   1.925  0.2271 -0.0481 -0.1102
90679W        W33773  12.413  13.002   3.330 -0.2852  0.1057 -0.2312
90680W        W33774  12.514  13.328   1.621 -0.1890  0.0988  0.3316
90681W        W33775  13.766  13.714   0.079 -0.1032  0.2808  0.1092
90682W        W33776  11.591  14.418   1.131  0.0160  0.3214  0.0044
90683W        W33777  13.250  14.913   0.356  0.1322  0.0904  0.2200
90684W        W33778  12.643  13.294   4.563 -0.0308 -0.3312  0.3281
90685W        W33779  11.720  12.506   0.316  0.1088 -0.1978 -0.0063
90686W        W33780  14.424  11.955   4.431  0.3756 -0.1357 -0.2640
90687W        W33781  13.279  14.500  30.440  0.0630  0.2769 -0.0553
90688W        W33782  14.701  11.667  30.185  0.4291 -0.0100  0.1029
90689W        W33783  13.324  13.963  31.311 -0.0296  0.0880  0.2805
90690W        W33784  13.454  10.639   1.085  0.1208  0.1502 -0.0407
90691W        W33785  12.602   9.043   2.586  0.0330 -0.0129 -0.1028
90692W        W33786  13.006  14.965   0.933  0.1506  0.2240 -0.1935
90693W        W33787  13.074  10.961   2.773  0.0627  0.0157 -0.1379
90694W        W33788  13.555  13.095   1.608 -0.2133 -0.0362 -0.0661
90695W        W33789  13.600  11.856   0.122  0.0830 -0.0460  0.0283
90696W        W33790  12.194  11.532   2.920 -0.0040 -0.1634  0.0499
90697W        W33791  11.655  13.046   1.079 -0.4254 -0.1174  0.2453
90698W        W33792  12.511  11.664   2.482 -0.0681  0.3422 -0.1558
90699W        W33793  14.556  14.539  31.329 -0.3960  0.0531 -0.1817
90700W        W33794  13.036  15.263  31.816 -0.0374  0.0804  0.2580
90701W        W33795  12.260  15.346  30.582  0.0263  0.2844 -0.1604
90702W        W33796  11.229  12.551   0.374  0.1470 -0.2206 -0.2455
90703W        W33797   9.969  12.052   1.952  0.3435  0.0647 -0.4493
90704W        W33798  12.863  11.851   3.862 -0.1115 -0.1220  0.0984
90705W        W33799  12.731  10.326  31.583 -0.0076  0.0709 -0.3109
90706W        W33800  13.756  13.505   1.449  0.3074  0.0853  0.3872
90707W        W33801  11.449  14.046   3.496 -0.0552 -0.0984 -0.2200
90708W        W33802  13.489  11.003   1.411  0.3153  0.0965 -0.3800
90709W        W33803  12.107  13.789   1.935  0.1336  0.2554  0.1509
90710W        W33804  15.090  12.667  31.943 -0.0022  0.0373  0.0928
90711W        W33805  14.598  12.071  31.535  0.0557  0.1010  0.1160
90712W        W33806  12.414  10.689   2.424 -0.1792  0.0390 -0.2245
90713W        W33807  13.267  11.118   1.929 -0.0802  0.1807 -0.1398
90714W        W33808  12.049  14.350  31.972  0.2474  0.3740 -0.4330
90715W        W33809  12.000  12.390  31.302  0.0787 -0.1034  0.1560
90716W        W33810  13.108  13.172   1.863 -0.5031 -0.1415  0.0758
90717W        W33811  13.681  11.518  30.407 -0.1045  0.3828 -0.4504
90718W        W33812  12.869  14.503   2.186 -0.0238  0.0020  0.0275
90719W        W33813  12.087  12.107   3.216  0.0669  0.1406 -0.1681
90720W        W33814  13.024  14.669   3.214 -0.1040 -0.0327  0.0827
90721W        W33815  12.377  14.212  31.252 -0.0077 -0.3449  0.0725
90722W        W33816  11.136  12.907   1.320 -0.0005  0.1355  0.0975
90723W        W33817  12.026  12.243   0.522  0.1705  0.1167  0.1714
90724W        W33818  11.185  12.911   0.794 -0.0380  0.0122 -0.0353
90725W        W33819  12.806  12.039   0.077  0.1632  0.2622 -0.1714
90726W        W33820  13.891   8.888   0.824 -0.1773  0.2857  0.0118
90727W        W33821  11.368  11.255   2.224 -0.0633  0.1571 -0.0533
90728W        W33822  11.980  11.097   1.109  0.1334 -0.3550 -0.1175
90729W        W33823  11.164  14.263   1.053 -0.0418 -0.0023 -0.0599
90730W        W33824  14.708  15.018  30.706  0.0360 -0.2270  0.2497
90731W        W33825  15.294  13.004  31.066  0.1693 -0.1476 -0.1292
90732W        W33826  13.775  15.405  30.134  0.0125  0.0462  0.0988
90733W        W33827  12.372  10.772   0.966  0.0261 -0.0785  0.1105
90734W        W33828  12.431  13.013  31.775 -0.1645  0.0318  0.2469
90735W        W33829  14.058  10.978   3.818 -0.0329  0.1196 -0.1724
90736W        W33830  11.716  10.360   1.944 -0.1707  0.1176  0.2259
90737W        W33831  14.075  11.647   2.639  0.1434 -0.2077 -0.0219
90738W        W33832  11.419  11.608   0.444  0.0888 -0.0761 -0.1303
90739W        W33833  15.087  10.960  31.589  0.2249 -0.0994 -0.0874
90740W        W33834  12.306  12.089  31.895 -0.0251 -0.3047  0.2160
90741W        W33835  12.353  13.714  31.249  0.3401  0.1332  0.0574
90742W        W33836  12.858  10.112   4.197 -0.3935  0.2942  0.0067
90743W        W33837  12.266  14.766  31.925 -0.1070  0.1433  0.2481
90744W        W33838  14.383  13.299   2.456 -0.0600 -0.0717 -0.0477
90745W        W33839  14.433  15.319   0.093 -0.3941 -0.1561  0.0447
90746W        W33840  10.573  10.861   2.572 -0.1479 -0.0937 -0.0050
90747W        W33841  11.387  11.954  31.636  0.0053  0.4836 -0.0825
90748W        W33842  11.234  15.941   0.357 -0.2721 -0.0475 -0.0486
90749W        W33843  12.563  12.138   2.368 -0.0158 -0.0809  0.3060
90750W        W33844  12.665  11.263   0.991 -0.0447  0.1818  0.3194
90751W        W33845  14.275  13.610  30.855  0.2977  0.2774  0.2042
90752W        W33846  13.274  13.074  31.763 -0.0795 -0.0456 -0.0116
90753W        W33847  11.840  12.458   1.897  0.2413 -0.2425 -0.2315
90754W        W33848  13.011  11.867   2.263 -0.1214 -0.1350  0.1428
90755W        W33849  13.547  11.485   1.511  0.2470 -0.0453 -0.4510
90756W        W33850  13.853  12.497  31.791  0.1717  0.1728 -0.0318
90757W        W33851  12.057  10.358   0.516  0.0171  0.0610  0.1681
90758W        W33852  12.575  14.335   0.156 -0.3343  0.0392 -0.2760
90759W        W33853  11.201  14.619  28.993 -0.1004  0.0088 -0.1609
90760W        W33854  11.951  13.520   0.977 -0.0199 -0.1422 -0.0354
90761W        W33855  12.740  13.690   1.220  0.2220  0.2873  0.0163
90762W        W33856  14.018  11.314   1.657 -0.1505  0.1639 -0.1281
90763W        W33857  10.136  11.061   1.484  0.0310  0.0013  0.0677
90764W        W33858  12.988  12.259   4.338  0.1407  0.1399 -0.1549
90765W        W33859  11.680  11.944  31.067 -0.2563  0.3339  0.0907
90766W        W33860  11.362  12.708   2.237  0.2759  0.1303  0.1814
90767W        W33861  14.018  11.024  30.898 -0.0270  0.0439  0.0288
90768W        W33862  12.941  10.625   0.114  0.2025  0.1502 -0.1611
90769W        W33863  13.180  14.200   2.459 -0.0818 -0.1084 -0.3358
90770W        W33864  13.720  12.993  31.363  0.0909  0.2195  0.0043
90771W        W33865  14.728  11.350  31.514  0.3693 -0.0418  0.0525
90772W        W33866  12.385  11.203   0.081 -0.1535  0.1601  0.0590
90773W        W33867  12.927  12.595   2.571 -0.2120  0.0753 -0.0334
90774W        W33868  13.540  15.138  31.911 -0.1646 -0.2424 -0.1266
90775W        W33869  13.304  12.724   1.305  0.1909  0.2244 -0.1143
90776W        W33870  13.284  10.987   0.705 -0.0103 -0.1185  0.0913
90777W        W33871  14.669  13.690  31.161  0.3906 -0.1280  0.3847
90778W        W33872  12.040  12.441   1.423 -0.0192 -0.1963  0.2937
90779W        W33873  13.372  12.677   1.882  0.3481  0.1819  0.3571
90780W        W33874  14.286  14.739   1.305 -0.1525  0.1063  0.1141
90781W        W33875  12.656  13.218   1.028 -0.0030 -0.1204 -0.0323
90782W        W33876  12.016  12.905  31.448  0.0103 -0.1670 -0.2568
90783W        W33877  12.711  10.235   1.639 -0.0063 -0.0437  0.0393
90784W        W33878  10.603  16.568  30.829  0.0827 -0.1339 -0.0592
90785W        W33879  12.948  11.980   2.775  0.2469  0.1147  0.2884
90786W        W33880  12.823  11.467   2.112  0.0540 -0.0078 -0.2148
90787W        W33881  13.728  10.831   4.195 -0.0000  0.1517 -0.4187
90788W        W33882  14.708  13.210   1.724 -0.3533 -0.1142  0.3662
90789W        W33883  13.262  11.263  30.063 -0.0647 -0.0155  0.1457
90790W        W33884  13.209  13.604   0.868  0.1724  0.0078  0.1741
90791W        W33885  10.601  14.227   1.176  0.0664 -0.2856  0.0594
90792W        W33886  13.490   9.906   2.886  0.0902  0.1194 -0.3286
90793W        W33887  11.635  13.545   3.324  0.1239  0.1868 -0.0549
90794W        W33888  11.300  14.137   1.561  0.5648  0.0543  0.1213
90795W        W33889  13.368  12.262   2.420  0.4686 -0.5632  0.0053
90796W        W33890  12.845  12.672   2.058  0.3125 -0.0014 -0.0434
90797W        W33891  11.837  10.232   3.039  0.2575 -0.1259  0.2021
90798W        W33892  14.167   9.425  30.159 -0.0543  0.2290 -0.2044
90799W        W33893  12.118  15.046  31.020  0.5712 -0.0688 -0.0655
90800W        W33894  12.392  14.045  31.738 -0.1085  0.1769 -0.0960
90801W        W33895  11.494  11.715   0.900 -0.3770 -0.0094 -0.2884
90802W        W33896  13.350  13.781   0.321 -0.2883 -0.0541  0.0325
90803W        W33897  11.119  13.628  31.737  0.0508 -0.4236  0.0640
90804W        W33898  12.319  13.003   2.156  0.0914 -0.0406  0.4165
90805W        W33899  11.554  13.106  31.552 -0.2132 -0.0373 -0.1806
90806W        W33900  13.458  12.382   0.826 -0.1296 -0.3633 -0.0577
90807W        W33901  11.621  13.998   2.000 -0.0098  0.4398  0.1402
90808W        W33902  11.322  11.144   0.145 -0.0345  0.0803  0.0273
90809W        W33903  11.746  11.906   0.097 -0.2815 -0.0522 -0.0772
90810W        W33904  12.818   9.921   0.937  0.0371  0.1298  0.2654
90811W        W33905  15.571  11.617  29.863  0.2260 -0.0275 -0.3747
90812W        W33906  12.309   9.903   2.482  0.2197  0.1684  0.0867
90813W        W33907  13.283   9.811   2.348 -0.2218  0.1890  0.1093
90814W        W33908  11.749  11.975   2.072 -0.3184 -0.0710  0.2069
90815W        W33909  13.013  10.965   1.161 -0.1654  0.1720 -0.2326
90816W        W33910  13.285   9.998  31.374  0.3767  0.3149  0.0770
90817W        W33911  13.505  14.323   1.996  0.4118  0.1374 -0.1175
90818W        W33912  13.533  13.396   5.304 -0.2095 -0.4572 -0.0073
90819W        W33913  10.522  12.536  31.744 -0.2831 -0.1059  0.1191
90820W        W33914  14.155  11.516   2.106  0.1969 -0.1490 -0.1598
90821W        W33915  12.771  13.452   0.591  0.2463  0.2384  0.2868
90822W        W33916  10.795  14.981  31.580 -0.3598 -0.0489  0.0374
90823W        W33917  13.605  14.294   0.566  0.1529  0.1512 -0.1746
90824W        W33918  11.331  13.071   0.363 -0.2374 -0.3437 -0.3379
90825W        W33919  11.367  14.957   0.166 -0.1527 -0.2990 -0.1277
90826W        W33920  12.226  12.700   0.688 -0.2848 -0.1518  0.0528
90827W        W33921  12.562  13.471   2.127 -0.0256  0.1683  0.1778
90828W        W33922  12.239  11.760   2.060 -0.3850  0.0218  0.1503
90829W        W33923  12.443  10.679   1.520 -0.2517 -0.1020 -0.1599
90830W        W33924  11.701  11.216   0.530 -0.0434  0.3820 -0.1789
90831W        W33925  13.788  13.998   1.364 -0.1847  0.0352 -0.0295
90832W        W33926  12.132  10.987   2.824  0.0047  0.1136  0.0995
90833W        W33927  12.677  12.720   3.651 -0.0091 -0.0978  0.3589
90834W        W33928  13.114  10.150   1.977 -0.3126  0.0891  0.0445
90835W        W33929  14.685  14.026  31.550 -0.1816 -0.1192  0.2334
90836W        W33930  13.730  12.275   2.052  0.0758 -0.1724  0.1835
90837W        W33931  11.400  12.789  31.935 -0.3640  0.3510  0.3085
90838W        W33932  10.700  12.617   1.506  0.1878  0.2889 -0.4989
90839W        W33933  12.539  14.180   0.762 -0.0886  0.2402  0.3136
90840W        W33934  13.645   9.524   2.137  0.4006 -0.0821  0.2865
90841W        W33935  11.761  14.609   0.677 -0.3005 -0.1530 -0.1185
90842W        W33936  11.291  15.013  31.678  0.0151 -0.2608 -0.0432
90843W        W33937  11.931  14.684   4.037 -0.0092 -0.1652 -0.1700
90844W        W33938  14.293  11.763   0.729 -0.1416  0.3373 -0.2278
90845W        W33939  14.135  13.068  31.687  0.0028 -0.1398  0.1963
90846W        W33940  13.945  10.834   1.334  0.0785  0.1686 -0.3540
90847W        W33941  14.121  10.213   2.519  0.1382 -0.0208  0.2536
90848W        W33942  13.076  11.310  31.349 -0.1355 -0.3721 -0.1867
90849W        W33943  13.832  10.788   3.294  0.1469  0.0717  0.0724
90850W        W33944  13.059  11.450   1.297  0.0638 -0.1868  0.1235
90851W        W33945  14.631  12.760   0.343 -0.1110 -0.0346  0.0772
90852W        W33946  10.883  11.694   2.683 -0.2057  0.0457 -0.2682
90853W        W33947  14.193  14.440   3.803  0.0075  0.3133  0.2238
90854W        W33948  11.375  11.871   2.892 -0.1529 -0.1136  0.1886
90855W        W33949  13.506  11.348   1.063  0.0861  0.0589  0.1096
90856W        W33950  11.948  11.906   1.613  0.1173  0.3271 -0.0528
90857W        W33951  12.091  14.751   1.507  0.1564  0.0466 -0.3368
90858W        W33952  13.321  13.727   1.383 -0.1151  0.0094  0.0470
90859W        W33953  13.863  14.506  31.759 -0.1456 -0.1196  0.3827
90860W        W33954  14.074  11.075   2.362 -0.0356 -0.0849  0.0764
90861W        W33955  10.690  12.890   1.057 -0.1204  0.2310  0.0312
90862W        W33956  14.901  12.131  31.978 -0.0397 -0.1075 -0.0158
90863W        W33957  14.254  12.506  31.429  0.1799  0.2415 -0.0535
90864W        W33958  12.074  14.066   1.027 -0.0446 -0.2379  0.0808
90865W        W33959  12.774   9.296   3.483  0.0704 -0.0211 -0.1944
90866W        W33960  12.750  14.854   0.109 -0.1765  0.0697  0.2424
90867W        W33961  14.042  10.218   1.911 -0.3025 -0.0741 -0.0749
90868W        W33962  13.703  11.357   3.927 -0.0574 -0.3081 -0.2635
90869W        W33963  13.429  11.946   2.863  0.1138 -0.0409 -0.3254
90870W        W33964  12.347  12.554   3.197 -0.0043 -0.0895  0.1807
90871W        W33965  12.388  11.129   3.205  0.2377 -0.0792  0.1012
90872W        W33966  13.297  12.820   2.364 -0.0807  0.0754 -0.4533
90873W        W33967  15.813  12.947  31.307  0.2108 -0.2992  0.1404
90874W        W33968  14.383  10.666   2.375 -0.0232  0.0970 -0.0908
90875W        W33969  14.099  12.766   0.251  0.0857  0.1406 -0.0364
90876W        W33970  14.206  11.296   0.232 -0.0245 -0.2184  0.0183
90877W        W33971  12.658  11.446   0.403 -0.3383 -0.3775 -0.1409
90878W        W33972  13.011  11.855   3.377  0.0443 -0.0181 -0.0787
90879W        W33973  11.552  11.512  31.820  0.1707 -0.0284  0.0397
90880W        W33974  12.813  12.355   3.332 -0.0483 -0.0724 -0.0477
90881W        W33975  12.469  15.599   0.229 -0.0611  0.1152  0.2580
90882W        W33976  12.880  12.863   1.572 -0.0243 -0.2337  0.2745
90883W        W33977  14.613  10.983   0.061 -0.2124  0.0743  0.0354
90884W        W33978   9.648  13.103   0.309  0.0996 -0.0720  0.0994
90885W        W33979  12.673  11.983   1.874  0.1947  0.0153  0.0776
90886W        W33980  13.482  12.630   0.119  0.1207  0.1646 -0.0553
90887W        W33981  13.139  14.440   0.376  0.2919 -0.0470  0.2081
90888W        W33982  14.216  12.442   1.890 -0.0928  0.0706  0.1204
90889W        W33983  13.272  11.618   4.064 -0.0940  0.2406  0.0885
90890W        W33984  14.028  10.522   0.875  0.2083 -0.0111  0.1798
90891W        W33985  14.576  11.578   2.406  0.2820 -0.0452  0.1925
90892W        W33986  11.788  14.849  31.771  0.4478  0.0542 -0.0186
90893W        W33987  13.500  10.501   0.613  0.0325 -0.1577 -0.1034
90894W        W33988  12.472  14.198   1.293  0.1675 -0.2031 -0.1076
90895W        W33989  12.434  12.653   2.517  0.1653  0.1783 -0.3385
90896W        W33990  11.871  12.759   2.429  0.1496  0.1239  0.2056
90897W        W33991  13.000  10.233   3.753 -0.1971 -0.1888  0.3080
90898W        W33992  14.539  11.599   1.166  0.1237 -0.0040 -0.0390
90899W        W33993  12.933  14.180   1.005 -0.0716  0.2084  0.3012
90900W        W33994  14.628  12.633   1.683 -0.0394  0.2586 -0.0023
90901W        W33995  12.843  12.366   1.543  0.0568  0.1713  0.2480
90902W        W33996  12.388  13.740   0.792 -0.1539 -0.2830 -0.0778
90903W        W33997  12.966  11.877   1.474  0.2122 -0.0186  0.5586
90904W        W33998  14.205  13.779   0.463 -0.1006 -0.0132 -0.0286
90905W        W33999  11.779  13.919   1.541  0.2124 -0.1263 -0.3264
90906W        W34000  10.695  10.936   3.057  0.0833  0.0504 -0.0970
90907W        W34001  13.915  12.111   2.724  0.1338 -0.0359  0.1969
90908W        W34002  13.784  13.299   0.407  0.0007  0.1495 -0.2140
90909W        W34003  11.199  11.133   0.720 -0.0694  0.1291  0.3151
90910W        W34004  14.553  16.194   0.199  0.1203  0.1405 -0.0394
90911W        W34005  10.925  12.975   2.168 -0.2378 -0.2011  0.4295
90912W        W34006  11.460  11.709   2.402 -0.0991 -0.0633  0.1377
90913W        W34007   9.967  14.482  31.828 -0.1371  0.1694 -0.0277
90914W        W34008  13.906  13.594  30.508  0.0316  0.0092  0.0145
90915W        W34009  14.166  13.367   0.067  0.2953  0.0791 -0.2242
90916W        W34010  13.061  13.570   2.198 -0.0310  0.1203 -0.0466
90917W        W34011  12.846  13.662  30.974  0.0548 -0.1712 -0.2360
90918W        W34012  11.577  14.053   0.661  0.1858  0.1366  0.0728
90919W        W34013  11.652  14.852  31.298 -0.1478 -0.0411 -0.2908
90920W        W34014  14.213  16.224   0.626 -0.1776 -0.0508  0.0507
90921W        W34015  11.637  13.378  30.642 -0.2115  0.0121  0.0882
90922W        W34016  12.967  12.247   1.049  0.3055  0.4477  0.2287
90923W        W34017  13.167  10.123   0.521 -0.1137  0.0628  0.0366
90924W        W34018  13.946  12.205   0.745 -0.0984 -0.0717  0.2426
90925W        W34019  14.794  11.082   1.103  0.0242  0.0401 -0.1586
90926W        W34020  12.814  13.206   3.664 -0.0835  0.0623  0.0314
90927W        W34021  12.663  11.764   1.047  0.2422 -0.0878 -0.2199
90928W        W34022  13.075  11.163   0.262 -0.3295 -0.2587 -0.1115
90929W        W34023  12.474  12.060   1.405 -0.1364  0.1255 -0.0467
90930W        W34024  14.632  10.378   3.238 -0.2478  0.3236  0.4302
90931W        W34025  11.405  12.797   2.724 -0.1650 -0.0582 -0.1306
90932W        W34026  13.795  13.968  30.972  0.0371 -0.1211 -0.2756
90933W        W34027  10.368  12.007  31.523 -0.0438  0.0954 -0.2754
90934W        W34028  12.148  11.639   1.123 -0.0410 -0.2640  0.2461
90935W        W34029  15.016  11.312   2.056  0.0195  0.0430 -0.0726
90936W        W34030  12.576  13.255  30.767 -0.1752 -0.0241  0.2380
90937W        W34031  12.558  11.572   1.522 -0.0299  0.1781  0.1113
90938W        W34032  13.303  14.817   2.182 -0.1161  0.0192 -0.0417
90939W        W34033  12.013  13.290   1.846  0.1868  0.0403  0.1508
90940W        W34034  13.365  14.975   2.754  0.0175 -0.1852 -0.1762
90941W        W34035  11.982  11.353  31.553  0.2249  0.1243  0.4851
90942W        W34036  14.378  12.292   0.541 -0.2120  0.2232 -0.3496
90943W        W34037  10.955  11.829   2.199  0.1242  0.0670  0.1234
90944W        W34038  14.445  11.137   2.025  0.0086  0.0102 -0.0158
90945W        W34039  12.840  12.189  31.011  0.0635 -0.1313 -0.0089
90946W        W34040  14.281   9.998  31.367  0.0691 -0.0490 -0.2609
90947W        W34041  13.360  14.262   1.492 -0.2740 -0.0116 -0.0154
90948W        W34042  12.167  11.325   2.446  0.3756 -0.0482 -0.0132
90949W        W34043  12.461  13.557  31.778  0.0967 -0.4520 -0.0089
90950W        W34044  14.196  12.428   2.426 -0.0018 -0.1583  0.0673
90951W        W34045  13.807  11.087  31.813 -0.3289 -0.4727 -0.0534
90952W        W34046  12.306  14.469   2.178 -0.2239  0.0354 -0.0302
90953W        W34047  11.047  12.057   1.706  0.2086  0.1679  0.0264
90954W        W34048  13.732  12.520  31.232 -0.2378 -0.1033 -0.1439
90955W        W34049  11.506  13.827   1.094 -0.3397 -0.1330  0.1742
90956W        W34050  12.421  12.672   0.144  0.2065  0.0279  0.0063
90957W        W34051  13.673  12.595   2.660  0.1422 -0.0197 -0.1181
90958W        W34052  10.992  11.646   0.141  0.0469 -0.0025 -0.0458
90959W        W34053  12.828  12.820  31.547  0.0328 -0.1281 -0.0420
90960W        W34054  13.354  12.233   1.475  0.1427  0.0761 -0.2422
90961W        W34055  12.389  15.066   0.386 -0.0501 -0.3443  0.1794
90962W        W34056  13.181  14.780  31.858 -0.4689  0.3520  0.0506
90963W        W34057  13.512  13.822   2.270 -0.2462  0.3726 -0.0055
90964W        W34058  12.471  12.860   1.309 -0.0495 -0.2154  0.0618
90965W        W34059  13.437  13.554   1.835 -0.1710 -0.3060 -0.1168
90966W        W34060  14.128  13.233   1.202  0.1285 -0.0717 -0.0083
90967W        W34061  12.695  10.622   1.917 -0.1885 -0.3374  0.5033
90968W        W34062  13.081  11.432   0.710  0.3421  0.1409 -0.1817
90969W        W34063  11.669  14.380  30.652 -0.0199 -0.2173  0.2551
90970W        W34064  14.404  11.284   0.686  0.0807 -0.2528  0.1568
90971W        W34065  14.048  11.588   3.614  0.2052 -0.0366  0.0516
90972W        W34066  13.001  14.206  31.847  0.1793  0.0849  0.2489
90973W        W34067  14.181  11.191   3.363 -0.1859 -0.1237  0.1494
90974W        W34068  12.960  14.681   2.642 -0.1655  0.0524 -0.1919
90975W        W34069  11.004  13.154   2.681 -0.3147 -0.0998 -0.2144
90976W        W34070  10.445  12.959   0.448  0.3018 -0.0242 -0.0741
90977W        W34071  12.780  12.935   2.922  0.2296 -0.2986  0.1723
90978W        W34072  13.976  14.135   0.173  0.0118  0.0169  0.1556
90979W        W34073  11.477  13.502   0.693 -0.0865 -0.0451 -0.2285
90980W        W34074  13.414  14.046   1.018 -0.2112 -0.1763  0.2418
90981W        W34075  12.864  12.705   1.036 -0.0806 -0.1361 -0.0982
90982W        W34076  14.097  14.787  31.408  0.1112 -0.2998 -0.1786
90983W        W34077  13.292  11.782   1.033 -0.5832 -0.2013  0.1092
90984W        W34078  15.513  11.170   1.560  0.2172  0.3125 -0.0703
90985W        W34079  13.841   9.918   1.484 -0.0707 -0.2187  0.0070
90986W        W34080  12.630  11.700   3.056 -0.0504  0.1536  0.0318
90987W        W34081  10.364  12.401  31.187  0.2377  0.0745  0.0167
90988W        W34082  11.945  13.564   0.455 -0.0545 -0.1057 -0.2223
90989W        W34083  12.022  12.139   1.025 -0.0347  0.1321  0.1247
90990W        W34084  13.286  10.439   2.979 -0.0434 -0.0512 -0.3558
90991W        W34085  12.417  12.142   2.826  0.3555  0.1493  0.0931
90992W        W34086  12.632  12.305   0.498  0.1037  0.1144 -0.2130
90993W        W34087  12.402  11.777   0.649 -0.0003 -0.0028 -0.0834
90994W        W34088  13.972  14.886  30.457 -0.3494  0.0905 -0.0835
90995W        W34089  11.776  11.455   1.378  0.0159  0.1632  0.0619
90996W        W34090  10.332  12.506   1.201 -0.0875  0.0717  0.0888
90997W        W34091  14.640  13.250  30.791 -0.2483  0.1369 -0.2027
90998W        W34092  14.984  14.695   0.112 -0.1998 -0.1762 -0.0756
90999W        W34093  12.564  10.197   0.593 -0.0825  0.1316 -0.1347
91000W        W34094  13.517  12.748   4.112  0.1045  0.0764  0.2618
91001W        W34095  11.659  13.360   0.085 -0.1387  0.2353 -0.0025
91002W        W34096  11.029  11.230   2.635  0.1981  0.4772 -0.4625
91003W        W34097  12.787  10.159   3.143  0.0824 -0.2133  0.0159
91004W        W34098  12.497  10.766  31.468 -0.1212  0.0187 -0.1739
91005W        W34099  13.403  12.215  31.684 -0.1172  0.1110  0.0388
91006W        W34100  13.471  14.224   0.081 -0.2903 -0.0247 -0.0162
91007W        W34101  13.159  15.925  31.550 -0.0997 -0.1698 -0.0084
91008W        W34102  12.170  14.278   1.731  0.1737 -0.0401 -0.6520
91009W        W34103  12.193  12.799   1.706 -0.0667 -0.0454  0.2351
91010W        W34104  12.511  12.029   3.544 -0.0078  0.0837 -0.2928
91011W        W34105  13.343  13.652  31.811 -0.1687 -0.0937 -0.1022
91012W        W34106  12.598  11.161   2.708  0.0267  0.0970  0.0807
91013W        W34107  15.404  14.018  29.845  0.0296 -0.0370 -0.1778
91014W        W34108  14.528  10.406   1.937  0.2952  0.1959 -0.0546
91015W        W34109  12.099  10.706   1.885  0.1578 -0.1847 -0.0181
91016W        W34110  11.032  10.601   3.409 -0.0219 -0.2293  0.1076
91017W        W34111  12.084  13.407   4.111 -0.0264 -0.0563 -0.4490
91018W        W34112  14.569  13.451   0.824 -0.1044 -0.2659 -0.0833
91019W        W34113  13.113  12.321   0.450  0.0361  0.1760 -0.3856
91020W        W34114  12.913  10.642   0.686  0.2607 -0.2273  0.3058
91021W        W34115  13.302  14.227  30.852  0.0338 -0.0942  0.0701
91022W        W34116  12.783  11.160   1.632 -0.1006  0.1310 -0.3068
91023W        W34117  13.864  11.490   0.706 -0.0709 -0.0499  0.0024
91024W        W34118  12.020  11.987   3.691 -0.1029  0.0983  0.2204
91025W        W34119  13.540  14.920   0.883  0.2545 -0.0238  0.1392
91026W        W34120  13.600  11.908   1.792 -0.5071  0.0541 -0.0059
91027W        W34121  13.273  13.183   0.312 -0.0851  0.2393  0.3161
91028W        W34122  14.200  11.996   1.187  0.0645 -0.0426  0.0662
91029W        W34123  12.956  13.655   1.718  0.0176  0.3056  0.0227
91030W        W34124  14.833  13.774   2.989 -0.2055  0.2310  0.1021
91031W        W34125  13.094  13.858   2.777 -0.2590  0.0502  0.0374
91032W        W34126  13.486  11.911   0.584  0.0325  0.1633 -0.0036
91033W        W34127  13.191   9.576   3.099  0.1324  0.3838 -0.0645
91034W        W34128  11.995  15.044   0.785 -0.1978 -0.0502  0.2061
91035W        W34129  13.274  11.721  31.597  0.0766 -0.0294  0.3726
91036W        W34130  14.423  11.454   2.903  0.2743 -0.0052 -0.0806
91037W        W34131  12.466  12.353   0.988 -0.1276  0.3584  0.1886
91038W        W34132  12.818  11.023  31.805 -0.1172 -0.1391 -0.0171
91039W        W34133  11.349  14.181   2.436 -0.1634  0.0183  0.0846
91040W        W34134  12.224  13.741   1.378 -0.3687 -0.0045 -0.0723
91041W        W34135  11.574  13.536   6.712 -0.0474 -0.2959 -0.2380
91042W        W34136  12.848  11.395   4.058 -0.2068 -0.1239 -0.3741
91043W        W34137  13.600  11.030   5.069  0.0225 -0.0444  0.0826
91044W        W34138  12.960  11.502   2.745  0.2403  0.2124  0.0215
91045W        W34139  11.273  10.915   4.810 -0.2279 -0.0930 -0.0518
91046W        W34140  13.438  15.155   4.129  0.0987 -0.0872 -0.1694
91047W        W34141  12.353  10.450   5.669  0.0874 -0.2106 -0.0751
91048W        W34142  13.594  14.507   4.384  0.0174 -0.1244 -0.0655
91049W        W34143  14.910  13.472   5.969  0.2967 -0.0080 -0.2749
91050W        W34144  14.521  11.553   3.383 -0.1476 -0.0383  0.3820
91051W        W34145  11.823  11.876   7.569  0.1112  0.0207 -0.0286
91052W        W34146  11.641  13.342   4.996  0.1162  0.0858  0.0060
91053W        W34147  13.724  10.355   4.273 -0.0028  0.2870 -0.1769
91054W        W34148  11.481  10.931   6.413 -0.1198  0.0891 -0.2916
91055W        W34149  14.126  12.636   5.152 -0.0147 -0.0246  0.2207
91056W        W34150  11.167  12.086   4.030 -0.0718  0.2787 -0.2631
91057W        W34151  12.011  12.010   5.239 -0.0024 -0.1534  0.3956
91058W        W34152  12.491  12.461   4.516  0.0575  0.1641  0.0036
91059W        W34153  12.357  15.602   5.205 -0.4220 -0.1272  0.0320
91060W        W34154  12.761  11.139   5.947 -0.0071 -0.1786  0.2089
91061W        W34155  12.904  10.658   5.748 -0.0746  0.1078  0.1807
91062W        W34156  12.621  13.608   4.904 -0.0330  0.2508 -0.2960
91063W        W34157  11.002  11.561   3.140 -0.2256  0.1896 -0.1761
91064W        W34158  10.861  12.750   5.078 -0.1596 -0.2104  0.1126
91065W        W34159  12.015  12.707   8.088  0.2345  0.0210  0.2325
91066W        W34160  13.162  13.014   6.086 -0.1355 -0.1353  0.5219
91067W        W34161  12.734  12.649   5.647 -0.0178 -0.1003  0.2990
91068W        W34162  12.326  14.764   5.451  0.1690  0.2568 -0.0440
91069W        W34163  11.860  14.655   4.576  0.4361  0.0101 -0.1287
91070W        W34164  13.020  12.636   6.605 -0.0754 -0.1552  0.0086
91071W        W34165  11.459  12.886   3.712  0.2598 -0.2916  0.3184
91072W        W34166  10.380  15.230   4.788 -0.1966  0.2547  0.1450
91073W        W34167  12.292  12.949   4.506 -0.0318 -0.1730 -0.1135
91074W        W34168  14.044  12.657   4.006 -0.1377  0.0051 -0.1854
91075W        W34169  13.123  14.149   6.589 -0.4255  0.2497 -0.3231
91076W        W34170  10.827  13.887   6.068  0.2330  0.0876 -0.1587
91077W        W34171  11.531  12.713   4.210 -0.1248  0.0295 -0.2343
91078W        W34172  13.753  13.923   6.980  0.0641  0.0242 -0.1315
91079W        W34173  12.007  14.494   3.129  0.1980 -0.1529 -0.0981
91080W        W34174  12.266  12.608   5.494  0.1402  0.1276  0.2171
91081W        W34175  13.715  12.919   5.412 -0.0879  0.0735 -0.1529
91082W        W34176  12.961  12.799   4.623  0.0192  0.0077 -0.1827
91083W        W34177  12.317  13.835   5.212  0.1389 -0.0697 -0.1158
91084W        W34178  11.269  15.005   6.991 -0.1883 -0.1167  0.0577
91085W        W34179  12.209  14.027   4.773 -0.0936 -0.0630  0.0047
91086W        W34180  13.739  11.435   6.418 -0.1510 -0.0789  0.0890
91087W        W34181  11.961  12.941   4.081  0.1453  0.2623 -0.0294
91088W        W34182  13.515  11.761   3.591 -0.1444  0.0026 -0.3113
91089W        W34183  12.919  11.242   3.167  0.0141  0.1150  0.0389
91090W        W34184  13.062  10.024   4.836  0.0022 -0.3564 -0.1058
91091W        W34185  13.072  11.337   5.080 -0.1678 -0.0287 -0.0898
91092W        W34186  10.942  14.677   4.580  0.0721 -0.3300  0.3481
91093W        W34187  12.394  11.879   4.785  0.1459  0.0615 -0.2522
91094W        W34188  11.793  13.705   6.330 -0.0579  0.1003 -0.0212
91095W        W34189  11.916  12.598   4.487 -0.1166  0.1141 -0.2181
91096W        W34190  12.493  11.348   4.414 -0.2866  0.1962  0.1621
91097W        W34191  11.330  13.631   5.430 -0.0472 -0.1119  0.0779
91098W        W34192  11.198  11.696   4.286 -0.2211 -0.2286 -0.1455
91099W        W34193  13.737  14.113   4.673  0.0606 -0.2752 -0.3754
91100W        W34194  14.596  13.815   4.857  0.1526  0.0390  0.1770
91101W        W34195  13.301  14.863   4.577 -0.0109 -0.1127 -0.0911
91102W        W34196  11.748  11.423   5.270  0.0250 -0.4442 -0.1223
91103W        W34197  11.585  13.024   7.889 -0.3303  0.2442  0.1150
91104W        W34198  11.375  11.923   7.308  0.0003  0.1587  0.1237
91105W        W34199  12.773   9.829   3.516  0.0028 -0.1121 -0.1107
91106W        W34200  15.013  12.443   5.731  0.1155  0.0551 -0.3635
91107W        W34201  11.205  13.167   6.481 -0.2224 -0.0562  0.0140
91108W        W34202  14.753  11.917   6.018  0.0948 -0.0111 -0.0752
91109W        W34203  12.906  13.579   5.297  0.0034  0.0363  0.1289
91110W        W34204  14.533  13.172   5.289 -0.0006 -0.1192  0.3119
91111W        W34205  13.220  13.782   3.921 -0.2289 -0.2405  0.1970
91112W        W34206  13.461  11.391   5.363  0.1287 -0.0582  0.0347
91113W        W34207  14.182  12.148   5.386  0.3150  0.0120  0.1196
91114W        W34208  12.554  12.788   4.960  0.1314 -0.0027 -0.1082
91115W        W34209  12.146  12.471   3.815  0.1544  0.1741  0.0605
91116W        W34210  13.979  13.241   6.042  0.1680  0.3512  0.0750
91117W        W34211  13.308  11.556   3.121 -0.0479  0.2413 -0.0711
91118W        W34212  10.563  14.113   5.152 -0.1823 -0.0044  0.2365
91119W        W34213  12.226  11.692   7.240  0.3568  0.1670  0.0622
91120W        W34214  12.147  13.810   7.239  0.0626 -0.0603 -0.1259
91121W        W34215  10.684  13.619   3.315 -0.0340 -0.0885 -0.2922
91122W        W34216  11.505  13.221   4.117 -0.4210 -0.0797 -0.0133
91123W        W34217  11.023  13.104   4.142 -0.3726 -0.2207 -0.0458
91124W        W34218  11.126  11.283   6.631 -0.1311  0.1676  0.0333
91125W        W34219  10.542  13.499   5.758 -0.0809  0.0549  0.0557
91126W        W34220  14.970   9.798   4.424 -0.0029 -0.1971  0.1514
91127W        W34221  12.407  10.811   6.118 -0.2177  0.1613 -0.0587
91128W        W34222  14.143  11.508   5.193  0.2915 -0.1225  0.1377
91129W        W34223  10.461  12.478   4.874 -0.3476  0.1188 -0.3968
91130W        W34224  13.887  14.736   3.605 -0.2381  0.0223 -0.0338
91131W        W34225  13.964  11.671   4.754  0.0878 -0.0704 -0.0106
91132W        W34226  13.721  14.004   3.933  0.2088 -0.1232  0.1682
91133W        W34227   9.541  12.115   6.251 -0.3660  0.1693 -0.2412
91134W        W34228  11.064  12.203   6.983 -0.0794 -0.1766  0.3809
91135W        W34229  12.922  10.996   6.748  0.0960 -0.3880 -0.0838
91136W        W34230  12.122  11.439   4.896  0.0537 -0.1250  0.1357
91137W        W34231  14.401  12.051   6.419 -0.0841 -0.0076  0.1505
91138W        W34232  12.123  10.532   3.855  0.0941 -0.1795  0.0349
91139W        W34233  13.702  14.194   6.539 -0.0873 -0.1856  0.1974
91140W        W34234  11.732  11.449   3.695 -0.2630 -0.0993  0.0747
91141W        W34235  10.083  13.729   3.907  0.0243 -0.1789 -0.3010
91142W        W34236  13.180  11.304   6.327  0.0912 -0.1937 -0.0496
91143W        W34237  13.973  15.787   3.421  0.0120  0.0989 -0.0715
91144W        W34238  14.732  14.948   5.307 -0.0003 -0.1490  0.2090
91145W        W34239  13.245  14.367   4.793 -0.0038 -0.1386  0.1561
91146W        W34240  11.880  10.633   5.719  0.0286  0.1369  0.4010
91147W        W34241  11.209  10.884   3.808 -0.1283  0.0075  0.2624
91148W        W34242  11.453  14.580   4.332  0.3035 -0.1995 -0.1668
91149W        W34243  11.684  13.765   3.858  0.0861 -0.1599 -0.0408
91150W        W34244  13.910  12.280   4.353 -0.0594  0.2447 -0.2446
91151W        W34245  14.762  13.879   5.533 -0.1459  0.4289 -0.1823
91152W        W34246  12.123  12.337   4.865  0.4341  0.1655  0.1567
91153W        W34247  11.928  12.706   6.345 -0.0640  0.0335 -0.3296
91154W        W34248  13.704  10.971   6.084 -0.1144  0.0332  0.1651
91155W        W34249  12.966  13.425   6.444 -0.1843 -0.1014  0.3479
91156W        W34250  12.412  12.374   5.971 -0.1676 -0.4359 -0.2690
91157W        W34251  12.994  10.810   3.593  0.1634 -0.0913 -0.0654
91158W        W34252  13.710  14.772   5.386  0.3223  0.1260  0.0984
91159W        W34253  12.258  13.925   4.005  0.1578  0.1028  0.0149
91160W        W34254  10.945  12.105   3.192 -0.1722 -0.0372 -0.2491
91161W        W34255  13.001  13.664   3.474 -0.2099 -0.0102  0.0292
91162W        W34256  13.556  12.643   6.399 -0.1937  0.3764  0.0335
91163W        W34257  10.918  12.641   7.869  0.0481 -0.0543 -0.2568
91164W        W34258  12.318  11.833   6.056 -0.1102  0.0235  0.3387
91165W        W34259  11.250  12.453   3.469 -0.0026 -0.3078  0.0130
91166W        W34260  10.567  12.616   6.389  0.0475  0.1682 -0.0115
91167W        W34261  14.525  10.138   4.801  0.1796  0.0711 -0.0160
91168W        W34262  13.550  10.049   3.864 -0.2462  0.0034 -0.0858
91169W        W34263  12.633  11.622   5.726 -0.3015 -0.0157 -0.1978
91170W        W34264  12.848  15.071   4.996  0.1110  0.2392 -0.0835
91171W        W34265  14.562  11.199   3.751 -0.3786  0.0576 -0.1386
91172W        W34266  13.858  10.578   2.247 -0.4804 -0.0013 -0.1578
91173W        W34267  11.422  12.050   7.870  0.0050 -0.1631  0.0201
91174W        W34268  12.043  13.714   3.536 -0.0808 -0.2429  0.2206
91175W        W34269  11.876  12.740   5.022 -0.0887  0.1252  0.0760
91176W        W34270  14.097  11.098   2.900 -0.1727  0.1191  0.1177
91177W        W34271  14.046  14.338   4.328 -0.1675 -0.1468 -0.0551
91178W        W34272  11.089  12.310   5.493 -0.3625  0.1097  0.1729
91179W        W34273  13.486  11.810   8.101 -0.0189  0.2082  0.0426
91180W        W34274  13.980  14.402   5.153 -0.1525 -0.1007  0.0626
91181W        W34275  13.411  10.321   6.880 -0.3497 -0.2188 -0.0430
91182W        W34276  13.554  10.855   3.704  0.0377 -0.1266 -0.2093
91183W        W34277  12.870  10.127   5.815 -0.0632  0.1415  0.0883
91184W        W34278  12.331  13.333   3.674  0.1960 -0.5271 -0.2475
91185W        W34279  13.422  11.895   5.654 -0.3011 -0.1459  0.1909
91186W        W34280  11.958  10.723   6.584  0.3037 -0.0702 -0.0829
91187W        W34281  11.048  11.051   7.553  0.0651 -0.2394  0.1932
91188W        W34282  15.330  12.154   7.338  0.0568 -0.1167  0.3500
91189W        W34283  13.877  10.499   3.697 -0.2329  0.1596 -0.1287
91190W        W34284  11.848  12.502   7.552  0.1930 -0.0353  0.1287
91191W        W34285  11.899  12.913   3.026  0.1095  0.1711 -0.1685
91192W        W34286  12.431  11.087   6.535 -0.1736 -0.1094  0.1917
91193W        W34287   9.976  13.540   7.319 -0.0701  0.2343  0.1958
91194W        W34288  10.185  13.247   5.946 -0.0695 -0.3468  0.2479
91195W        W34289  13.829  11.986   6.454 -0.2298  0.1394 -0.1723
91196W        W34290  12.502  13.754   4.395 -0.0022  0.1406  0.0465
91197W        W34291  13.693  11.659   7.685 -0.0843  0.2898 -0.1435
91198W        W34292  12.642  11.822   4.364  0.2082 -0.1977  0.0417
91199W        W34293  11.285  13.429   3.752 -0.1154 -0.2568  0.2941
91200W        W34294  13.455  13.007   4.930  0.2497 -0.0256 -0.0350
91201W        W34295  13.019  11.010   5.400  0.0582 -0.2852 -0.1388
91202W        W34296  12.760  14.098   5.146  0.0180  0.0599  0.0651
91203W        W34297  12.655  13.599   2.591 -0.1790  0.0997 -0.2312
91204W        W34298  12.990  15.030   5.462  0.1835 -0.0132 -0.6148
91205W        W34299  12.696  13.643   3.890  0.1445  0.1943 -0.0762
91206W        W34300  13.802  11.045   5.636 -0.2396  0.1843 -0.3016
91207W        W34301  10.426  13.816   4.376  0.1130  0.4111 -0.1418
91208W        W34302  13.337  10.921   3.230  0.0464 -0.2476 -0.2017
91209W        W34303  10.575  11.725   3.036  0.1911  0.5005  0.0874
91210W        W34304  12.850  12.009   6.082  0.0526 -0.0648 -0.2631
91211W        W34305  13.932  12.796   4.711  0.0835  0.2792 -0.0263
91212W        W34306  11.056  11.266   5.605 -0.2279  0.1401 -0.2230
91213W        W34307  13.473  10.901   6.527 -0.0796  0.0706  0.0092
91214W        W34308  11.033  12.261   6.423 -0.1129 -0.0852  0.3585
91215W        W34309  13.874  14.044   5.577  0.0058 -0.1274  0.4456
91216W        W34310  13.619  11.288   3.412 -0.1658 -0.1219 -0.2691
91217W        W34311  12.380  13.612   6.197  0.0098  0.0195  0.0493
91218W        W34312  11.952  13.247   6.441 -0.0258  0.1674 -0.2004
91219W        W34313  10.366  11.231   3.266  0.1775 -0.0258  0.0263
91220W        W34314  12.697  12.185   6.569  0.2433 -0.1427 -0.1287
91221W        W34315  11.485  12.241   4.380  0.2391 -0.0916  0.1414
91222W        W34316  11.703  11.806   4.127  0.1007  0.1812  0.0166
91223W        W34317  14.089  13.657   4.706 -0.3414 -0.0917  0.1575
91224W        W34318  13.649  11.597   4.384  0.0469 -0.0245  0.1951
91225W        W34319  12.175  13.385   4.810  0.0162 -0.0140 -0.0910
91226W        W34320  12.300  11.014   8.580 -0.0761 -0.2561  0.1404
91227W        W34321  12.650  13.007   6.395 -0.0227 -0.1897  0.2276
91228W        W34322  13.002  12.712   5.180  0.2788 -0.1405  0.2639
91229W        W34323  11.869  11.792   6.377 -0.1042 -0.0654 -0.1869
91230W        W34324  11.762  12.449   5.433  0.1488  0.1777  0.6284
91231W        W34325  13.235  13.940   5.111 -0.0455  0.1464 -0.0770
91232W        W34326  12.408  11.984   8.394  0.3105  0.1698  0.0196
91233W        W34327  10.941  14.426   7.307 -0.3266 -0.0754 -0.1130
91234W        W34328  13.272  11.064   5.798 -0.1036  0.1602  0.1370
91235W        W34329  14.473  14.539   4.202 -0.0408 -0.2665  0.0364
91236W        W34330  12.898  12.068   7.521 -0.4123  0.2943  0.1715
91237W        W34331  10.852  12.212   3.669  0.1271 -0.0616  0.3855
91238W        W34332  10.886  11.420   5.177 -0.0337 -0.0042  0.1274
91239W        W34333  11.160  13.454   3.303  0.0632  0.0662 -0.2711
91240W        W34334  12.294  11.779   6.674  0.0069 -0.3103  0.0237
91241W        W34335  10.765  13.564   4.715  0.0756 -0.3567  0.1420
91242W        W34336  12.013  12.876   3.567  0.0827 -0.2284  0.0301
91243W        W34337  11.746  13.090   4.581  0.0642  0.1229 -0.1133
91244W        W34338  15.021  10.137   3.584 -0.2768  0.0517  0.1294
91245W        W34339  13.332  14.053   3.525  0.0241  0.0163  0.2417
91246W        W34340  12.256  11.577   5.310 -0.0267  0.0302 -0.2641
91247W        W34341  13.365  11.757   6.209  0.0651  0.0534  0.0278
91248W        W34342  13.202  12.208   3.657  0.0338  0.3704  0.0140
91249W        W34343  14.008  10.890   7.223 -0.1119 -0.0863  0.0451
91250W        W34344  12.478  10.947   3.981 -0.1573  0.0096 -0.1512
91251W        W34345  13.771  13.270   4.676 -0.1289  0.1720  0.0900
91252W        W34346  10.475  10.599   5.087 -0.0065  0.1708 -0.1739
91253W        W34347  13.815  13.197   7.336 -0.0308  0.0255 -0.0629
91254W        W34348  10.853  13.269   7.133 -0.1412  0.1498 -0.0045
91255W        W34349  13.517  11.541   4.861  0.2746  0.1593 -0.0185
91256W        W34350  12.986   9.960   2.760  0.0645  0.1804  0.2307
91257W        W34351  11.608  12.270   6.359 -0.1621  0.4295 -0.1535
91258W        W34352  13.350  13.178   4.438  0.5106 -0.0728  0.2805
91259W        W34353  13.287  12.568   5.733  0.0568 -0.0551  0.0397
91260W        W34354  14.545  12.788   4.944 -0.1196 -0.0161  0.2050
91261W        W34355  11.413  12.408   5.862  0.4935 -0.2101 -0.3127
91262W        W34356  14.065  12.116   4.838  0.1638 -0.2331 -0.0698
91263W        W34357  12.489  13.083   4.072  0.1816 -0.1839  0.1957
91264W        W34358  11.828  12.751   5.809 -0.0659  0.0344  0.0603
91265W        W34359  12.802  11.565   7.404 -0.1180  0.0791 -0.3463
91266W        W34360  13.203  12.268   5.218 -0.1415  0.0730  0.0536
91267W        W34361  14.246  10.207   5.772  0.1627 -0.2340 -0.1990
91268W        W34362  13.156  11.545   5.812 -0.0751 -0.0351  0.0805
91269W        W34363  12.264  12.190   7.557  0.0950 -0.0046 -0.2666
91270W        W34364  11.488  13.156   5.568  0.0052 -0.2530  0.1765
91271W        W34365  10.035  11.864   6.142 -0.1671 -0.3738 -0.0699
91272W        W34366  12.373  14.306   5.575  0.1330 -0.0769  0.0259
91273W        W34367  15.046  11.076   3.926  0.2096 -0.1126  0.1172
91274W        W34368  12.617  12.336   5.217 -0.2510  0.3193  0.4806
91275W        W34369  13.157  12.774   3.670 -0.2369 -0.3854  0.2781
91276W        W34370  12.952  13.307   4.183  0.3405 -0.2072 -0.2030
91277W        W34371  10.887  12.216   5.920  0.1032 -0.3582  0.1139
91278W        W34372  12.812  12.853   7.428 -0.1040  0.0109 -0.2682
91279W        W34373  11.684  11.552   3.219 -0.0117 -0.3696  0.0585
91280W        W34374  13.156  11.652   7.804  0.0306  0.0935  0.0402
91281W        W34375  11.475  13.311   2.847  0.2715 -0.5005  0.0821
91282W        W34376  13.380  14.184   6.002  0.0395  0.0648  0.3163
91283W        W34377  12.895  11.982   4.785  0.0442 -0.0049  0.2233
91284W        W34378  11.029  10.622   4.293 -0.0033 -0.0101 -0.3488
91285W        W34379  13.321  14.218   7.023 -0.0029  0.1684 -0.0030
91286W        W34380  11.708  10.827   3.917  0.0790  0.2669  0.2350
91287W        W34381  11.592  12.293   3.816 -0.0246 -0.1676  0.0981
91288W        W34382  11.893  13.370   5.866 -0.0376  0.0421  0.3037
91289W        W34383  12.807  12.966   6.913  0.1352  0.1669 -0.3183
91290W        W34384  13.389  11.085   4.580  0.0980 -0.0081 -0.1662
91291W        W34385  14.409  12.058   7.546 -0.0080 -0.3018  0.0107
91292W        W34386  11.465  14.639   3.417  0.2217 -0.3239  0.1769
91293W        W34387  12.660  11.525   6.361 -0.0580 -0.2730  0.0994
91294W        W34388  11.583  14.297   4.849  0.2876 -0.1577  0.1193
91295W        W34389  11.099  12.831   7.154  0.1253 -0.0625 -0.2161
91296W        W34390  12.295  14.351   4.358 -0.0718  0.3542 -0.3964
91297W        W34391  13.759  10.491   5.780  0.0281 -0.2711 -0.1543
91298W        W34392  13.811  11.814   7.226  0.1348  0.0152 -0.2140
91299W        W34393  11.841  11.859   4.795 -0.0076  0.0134  0.0632
91300W        W34394  15.276  14.041   5.563  0.2055  0.0339 -0.1822
91301W        W34395  13.648  13.316   6.862  0.2475  0.0388 -0.2823
91302W        W34396  11.432  12.030   6.751 -0.0237 -0.2050  0.0270
91303W        W34397  13.342  13.782   6.363 -0.1368 -0.0224 -0.2452
91304W        W34398  14.364  12.534   4.485  0.4115 -0.0618  0.1175
91305W        W34399  11.471  13.208   6.071 -0.2609  0.0039  0.0108
91306W        W34400  11.451  12.421   7.195  0.3033  0.1119 -0.2815
91307W        W34401  12.112  13.506   7.590  0.4319  0.4722 -0.0823
91308W        W34402  12.519  12.625   6.650 -0.0845  0.2266 -0.0699
91309W        W34403  13.110  11.508   4.574  0.0429  0.1268  0.0432
91310W        W34404  13.716  13.588   3.660 -0.0015  0.0935  0.1820
91311W        W34405  11.413  15.103   7.456  0.1731 -0.2227 -0.1900
91312W        W34406  11.101  11.626   6.280 -0.1439 -0.0586  0.3020
91313W        W34407   9.959  14.030   4.317  0.2947  0.0112 -0.0179
91314W        W34408  12.663  13.182   5.836 -0.1946 -0.0955 -0.1606
91315W        W34409  12.928  12.650   4.123 -0.0365 -0.0015  0.0186
91316W        W34410  13.746  15.038   4.524 -0.0982  0.1527 -0.0322
91317W        W34411  13.451  12.528   4.569 -0.2044  0.0296 -0.1378
91318W        W34412  12.375  14.501   4.969  0.1761  0.1391  0.2161
91319W        W34413  10.804  13.361   3.733  0.0842  0.0925  0.1732
91320W        W34414  13.256  14.954   3.680  0.2917  0.0256 -0.3349
91321W        W34415  11.364  14.857   4.744  0.2112  0.3005  0.0945
91322W        W34416  14.410  13.470   5.782  0.2397  0.0023 -0.0684
91323W        W34417  13.545   9.719   1.094  0.1319 -0.1728 -0.2124
91324W        W34418  15.259  13.961   3.740  0.0188 -0.0004 -0.0941
91325W        W34419  14.587  10.731   4.034 -0.1523  0.0152  0.0386
91326W        W34420  12.185  14.021   7.766 -0.0040 -0.2658 -0.2571
91327W        W34421  11.638  12.304   4.930  0.2148  0.0803 -0.0566
91328W        W34422  12.838  10.602   4.025  0.2550  0.1886 -0.1272
91329W        W34423  10.742  13.485   6.312  0.0309 -0.6211 -0.0090
91330W        W34424  13.659  11.316   7.313 -0.1338  0.2397 -0.2852
91331W        W34425  11.058  13.454   5.847 -0.1064  0.1130  0.0690
91332W        W34426  13.923  13.713   3.180 -0.1028  0.0644 -0.6616
91333W        W34427  11.126  11.433   4.765 -0.0126 -0.2066  0.1435
91334W        W34428  12.274  11.576   3.944  0.1343 -0.3387 -0.1639
91335W        W34429  14.929   9.639   7.122 -0.3027  0.3877  0.2481
91336W        W34430  12.021  12.145   4.288 -0.3830 -0.0931  0.5060
91337W        W34431  12.287  12.225   6.897 -0.0387  0.2236  0.1715
91338W        W34432  10.825  14.057   4.729 -0.1113 -0.0818 -0.1349
91339W        W34433  11.633  13.009   6.702  0.2131  0.1947  0.0080
91340W        W34434  11.635  14.621   6.168  0.0688  0.2277 -0.1814
91341W        W34435  11.261  11.772   3.661 -0.1537 -0.0595  0.0378
91342W        W34436  12.721  11.823   5.261  0.0525 -0.0841  0.0677
91343W        W34437  12.030  12.224   8.005 -0.0603  0.1632 -0.0446
91344W        W34438  13.995  10.106   6.508 -0.2549 -0.0297 -0.0393
91345W        W34439  10.060  12.490   5.462  0.1632 -0.1747  0.2317
91346W        W34440  13.789  12.375   5.552  0.1604  0.2023  0.2827
91347W        W34441  12.129  12.251   6.404 -0.0557 -0.1842  0.1494
91348W        W34442  12.015  11.624   5.747 -0.1511  0.0808 -0.3382
91349W        W34443  12.835  10.689   3.145  0.0398  0.2091 -0.1547
91350W        W34444  13.746  12.710   5.953 -0.2165 -0.2890  0.0234
91351W        W34445  13.625  12.535   5.067 -0.1562  0.2152  0.2342
91352W        W34446  13.773  14.610   5.866  0.1689  0.1554 -0.1505
91353W        W34447  12.133  10.977   4.633  0.1071 -0.5684  0.1018
91354W        W34448  12.613  11.504   3.595 -0.2726  0.0078  0.0323
91355W        W34449  11.438  11.958   5.287 -0.1135  0.2865  0.0584
91356W        W34450  12.412  12.075   5.599  0.0581 -0.4190 -0.1436
91357W        W34451  14.251  13.842   6.801 -0.3219  0.2124  0.4234
91358W        W34452  11.438  10.457   4.073  0.0686  0.1928  0.1062
91359W        W34453  13.129  14.255   4.235 -0.2086  0.3909 -0.3594
91360W        W34454  13.141  13.536   5.993 -0.1737  0.1468 -0.0833
91361W        W34455  12.692  14.162   4.051  0.2426  0.2175  0.1849
91362W        W34456  12.716  11.918   7.000  0.0777 -0.3143 -0.1289
91363W        W34457  14.887  13.130   7.221 -0.1417 -0.3801  0.4330
91364W        W34458  10.423  11.031   5.451 -0.2932  0.0480  0.0892
91365W        W34459  13.810  13.832   5.097  0.1175 -0.2231 -0.0202
91366W        W34460  15.337  13.693   6.287 -0.2611  0.0939  0.1725
91367W        W34461  13.225  10.425   6.059  0.0504 -0.1606  0.0801
91368W        W34462  11.734  11.160   4.847  0.3811 -0.1649  0.0261
91369W        W34463  10.144  13.179   3.974 -0.0813  0.0402  0.0663
91370W        W34464  14.304  12.233   4.042  0.4900 -0.3111 -0.1406
91371W        W34465  14.556  12.440   6.126  0.3083 -0.1266  0.0221
91372W        W34466  13.041  14.428   3.728 -0.2590  0.1665  0.2836
91373W        W34467  15.315  11.512   6.616 -0.0903  0.2863 -0.1469
91374W        W34468  12.299  13.410   5.587 -0.0649 -0.2474 -0.3917
91375W        W34469  11.916  14.208   7.378  0.0693 -0.0283  0.1373
91376W        W34470  11.789  12.497   3.278  0.1715  0.3008  0.2378
91377W        W34471  11.217  13.178   7.551  0.1339 -0.1408  0.3944
91378W        W34472  13.433  14.326   5.315  0.5035  0.2365  0.3083
91379W        W34473  12.409  14.815   4.483 -0.0066 -0.2923  0.0293
91380W        W34474  12.629  13.869   5.616  0.0499  0.3499 -0.3033
91381W        W34475  12.950  12.122   5.625 -0.1055  0.1803 -0.3540
91382W        W34476  15.423  14.170   4.942  0.0426  0.1481 -0.1568
91383W        W34477  10.943  10.407   4.770 -0.1230  0.0587  0.1890
91384W        W34478  14.873  10.535   4.745  0.1675 -0.1796 -0.1583
91385W        W34479  13.061  10.809   4.958 -0.0439 -0.0655 -0.3538
91386W        W34480  11.367  12.555   6.682 -0.0824 -0.1881 -0.0670
91387W        W34481  10.485  12.878   2.888  0.2491  0.0999  0.2302
91388W        W34482  10.997  12.628   3.006  0.0954 -0.0818  0.1789
91389W        W34483  11.497  11.828   5.807  0.0918  0.0047  0.4905
91390W        W34484  12.489  10.719   7.078  0.6539 -0.0075 -0.1638
91391W        W34485  11.764  11.660   6.884  0.3935 -0.4166  0.0511
91392W        W34486  11.408  12.777   5.253 -0.2278 -0.0981  0.0544
91393W        W34487  11.362  11.268   3.482 -0.3448  0.2702  0.2218
91394W        W34488  13.405  13.591   4.829  0.0521  0.0870  0.1930
91395W        W34489  12.110  11.072   3.690  0.1588  0.1084  0.0423
91396W        W34490  11.266  10.128   4.994  0.2193  0.2667  0.1516
91397W        W34491  13.004  13.764   4.579 -0.1874  0.3139 -0.0711
91398W        W34492  12.749  14.603   5.321 -0.3351 -0.0875  0.1544
91399W        W34493  12.700  11.515   4.879 -0.0853 -0.0507  0.1255
91400W        W34494  14.200  12.611   6.736  0.2949 -0.1381  0.1176
91401W        W34495  10.044  13.202   2.768 -0.1204 -0.3153  0.0233
91402W        W34496  13.258  11.480   8.963 -0.0465  0.2025  0.6656
91403W        W34497  13.583  10.410   6.444 -0.2883 -0.0052 -0.1473
91404W        W34498  10.760  11.799   4.046  0.0511 -0.1804  0.3575
91405W        W34499  11.599  11.503   4.533 -0.0111  0.1466 -0.1038
91406W        W34500  13.096  14.806   4.111  0.1411 -0.4745 -0.4169
91407W        W34501  13.351  12.930   2.857 -0.1717 -0.2512  0.0255
91408W        W34502  12.871  15.074   4.483 -0.2086 -0.0792 -0.1001
91409W        W34503  12.198  15.612   5.812  0.0078 -0.0024 -0.0943
91410W        W34504  12.287  10.981   5.671  0.1356 -0.2218 -0.1519
91411W        W34505  13.006  13.250   4.857 -0.4261  0.1346 -0.3775
91412W        W34506  12.732  12.465   7.097  0.1517 -0.0203  0.0816
91413W        W34507  14.204  13.111   3.453 -0.2161 -0.2205 -0.0689
91414W        W34508  14.569  12.275   4.925  0.0344 -0.2153 -0.1044
91415W        W34509  12.581  12.251   3.983  0.2102  0.1491  0.1537
91416W        W34510  12.156  11.471   8.742 -0.1230  0.1621  0.1394
91417W        W34511  11.926  12.114   7.179 -0.0854 -0.0766 -0.1246
91418W        W34512  14.648  12.974   5.807  0.1096 -0.3067  0.2265
91419W        W34513  13.220  11.081   4.022 -0.0676 -0.1665 -0.0404
91420W        W34514  13.335  10.509   4.009  0.1074  0.1420 -0.2480
91421W        W34515  12.724  15.158   4.003  0.0053 -0.3152  0.0773
91422W        W34516  11.920  10.959   6.087 -0.2382  0.1309 -0.0689
91423W        W34517  13.423  12.154   4.094 -0.1746  0.1385 -0.2688
91424W        W34518  13.085  13.055   7.794  0.2284 -0.2365  0.2868
91425W        W34519  11.773  14.145   4.236 -0.1952  0.1207  0.1101
91426W        W34520  13.324  12.996   6.720  0.2283  0.0079 -0.3134
91427W        W34521  12.408  10.619   4.368 -0.3577 -0.1306 -0.3598
91428W        W34522  14.143  13.789   4.248 -0.1708  0.0907 -0.3307
91429W        W34523  11.258  13.653   4.874 -0.0486  0.2758 -0.0834
91430W        W34524  13.257  13.134   7.231 -0.3375 -0.2039 -0.1638
91431W        W34525  11.985  13.084   5.377  0.0766  0.0530 -0.0449
91432W        W34526  14.385  13.315   4.838 -0.0217  0.2128 -0.0549
91433W        W34527  11.462  10.418   4.640 -0.1139  0.2696  0.0092
91434W        W34528  11.955  12.148   5.839 -0.1831  0.1097  0.1345
91435W        W34529  13.110  13.069   5.495  0.0364 -0.0576 -0.4207
91436W        W34530  14.268  13.631   5.291 -0.0310 -0.3481 -0.1186
91437W        W34531  12.076  11.618   4.409 -0.1319  0.2031  0.0066
91438W        W34532  13.343   9.595   4.090 -0.3205 -0.0900  0.1468
91439W        W34533  11.851  14.363   5.731 -0.1262 -0.0729  0.1242
91440W        W34534  12.570  13.029   5.362  0.1124 -0.1077 -0.1880
91441W        W34535  12.948  11.587   9.921  0.3207  0.0114  0.1261
91442W        W34536  11.855  12.494   6.844 -0.1293 -0.0859  0.1150
91443W        W34537  14.169  12.110   6.895  0.1473 -0.1289  0.1238
91444W        W34538  14.322  12.975   7.951  0.1139 -0.3341 -0.2060
91445W        W34539  10.305  12.290   7.471  0.0489 -0.0381 -0.2050
91446W        W34540  13.101  13.683   7.747 -0.0856  0.0944  0.1360
91447W        W34541  14.388  15.802   8.723 -0.0304 -0.0291  0.1673
91448W        W34542  13.640  13.901   9.542 -0.0402 -0.2001 -0.3200
91449W        W34543  12.241  12.957   6.069 -0.1834 -0.0589  0.2770
91450W        W34544  12.606  12.793   9.247 -0.1825 -0.1615 -0.2064
91451W        W34545  11.981  11.113   7.749 -0.3472  0.5206 -0.1964
91452W        W34546  11.575   9.724   7.778 -0.3243 -0.2795  0.0650
91453W        W34547  14.141  14.514   8.484 -0.1450 -0.4269 -0.0343
91454W        W34548  11.743  11.292   8.355  0.0765 -0.1147  0.1457
91455W        W34549  14.590  11.300   9.795 -0.2506  0.3610 -0.0424
91456W        W34550  15.007  11.447   7.769  0.1875  0.4152  0.0052
91457W        W34551  13.333  14.941   8.441  0.0115 -0.1549  0.2702
91458W        W34552  12.438  12.478   8.281  0.0265  0.0995  0.0035
91459W        W34553  12.611  13.801   7.636  0.1415  0.0404  0.2106
91460W        W34554  10.243  12.718   6.750  0.2417 -0.0491 -0.0120
91461W        W34555  11.927  11.701   9.210 -0.1504  0.1484 -0.1528
91462W        W34556  14.449  12.631   8.523  0.1115  0.0611 -0.1074
91463W        W34557  13.066  12.065   8.096 -0.0650  0.0268  0.0436
91464W        W34558  13.725  12.508   7.856  0.0699  0.1134  0.0914
91465W        W34559  11.120  14.180   9.243 -0.1769 -0.0312  0.0408
91466W        W34560  11.361  13.054   9.652  0.0604  0.0043 -0.2281
91467W        W34561  12.704  13.680   9.563  0.0200  0.0358 -0.0329
91468W        W34562  11.119  15.371   9.762 -0.0069 -0.1579 -0.0934
91469W        W34563  11.656  14.146   7.800  0.0532  0.0722  0.3016
91470W        W34564  14.253  12.456   7.826  0.0391  0.0074 -0.1773
91471W        W34565  12.354  13.215   7.270 -0.1931 -0.0994 -0.1192
91472W        W34566  14.050  12.660   8.204  0.0792 -0.1060 -0.0841
91473W        W34567  13.385  12.771   8.104 -0.0859 -0.3857  0.1161
91474W        W34568  12.151  14.179   8.251 -0.0999  0.0223  0.0897
91475W        W34569  13.536  13.625   7.308  0.0714 -0.2452  0.0948
91476W        W34570  11.035  13.698   8.938 -0.0499 -0.0682  0.0726
91477W        W34571  12.588  12.977   8.281 -0.1685  0.0363 -0.0808
91478W        W34572  13.215  12.595   7.259  0.0091  0.0132  0.2988
91479W        W34573  10.238  12.245   8.310 -0.0318 -0.0253  0.1695
91480W        W34574  13.585  11.248   8.029  0.2777 -0.0121 -0.3942
91481W        W34575  11.038  10.964   8.246 -0.0653 -0.0538 -0.0139
91482W        W34576  14.320  10.381   9.801 -0.1747  0.0388  0.3513
91483W        W34577  11.637  12.023   8.874  0.0107  0.1399 -0.0831
91484W        W34578  12.260  13.554   6.651  0.0625 -0.1668 -0.3090
91485W        W34579  15.253  11.639   8.617 -0.1164  0.1225  0.2558
91486W        W34580  10.991   9.618   9.117  0.3565  0.1688 -0.0000
91487W        W34581  11.654  11.492   8.857  0.0895 -0.0321 -0.1103
91488W        W34582  12.192  14.008   6.550 -0.1511 -0.0774 -0.0324
91489W        W34583  14.326  13.948   8.509 -0.1756 -0.0072 -0.4481
91490W        W34584  13.100  14.527   7.969 -0.1739  0.0258  0.0742
91491W        W34585  11.382  13.615   7.717  0.1475  0.4592  0.1905
91492W        W34586  11.557  10.965   7.489  0.0876 -0.0297  0.0956
91493W        W34587  14.492  11.761   7.966  0.2568 -0.0417  0.0907
91494W        W34588  12.432  14.576   9.431 -0.0591  0.1488  0.0514
91495W        W34589  13.142  14.764   8.899  0.0348 -0.2743  0.1114
91496W        W34590  13.864  13.033   6.521  0.0462  0.1589  0.2007
91497W        W34591  13.755  10.427   8.932  0.2477  0.1607 -0.1488
91498W        W34592  13.746  11.598   8.980  0.1670  0.2018  0.0869
91499W        W34593  12.631  12.191   7.930  0.1478  0.2719 -0.2786
91500W        W34594  11.918  13.412   7.036 -0.0292 -0.1204 -0.2638
91501W        W34595  14.322  12.236   9.402 -0.0794  0.1018 -0.0746
91502W        W34596  14.860  12.244   7.428 -0.0620  0.0817  0.2591
91503W        W34597  11.453  12.476   8.672 -0.0618 -0.0556 -0.1513
91504W        W34598  10.779  14.917   8.177 -0.2624  0.0160  0.0462
91505W        W34599   9.928  13.093   7.959 -0.2768 -0.1371 -0.0243
91506W        W34600  12.043  12.963   7.601 -0.1015  0.0414  0.0665
91507W        W34601  10.040  13.093   9.419 -0.0586  0.1216 -0.1678
91508W        W34602  10.935  12.809   9.493  0.0318 -0.2470 -0.2093
91509W        W34603  14.376  11.568   8.439 -0.3122 -0.1162 -0.1995
91510W        W34604  14.761  10.878   8.331  0.0689  0.0123 -0.1783
91511W        W34605  12.270  14.074   9.738  0.0961  0.1183  0.2973
91512W        W34606  14.874  14.497   7.202 -0.3954  0.0257  0.4115
91513W        W34607  13.046  11.310   8.154 -0.0729  0.1046  0.1004
91514W        W34608  14.729  14.102   6.939 -0.0078  0.0443 -0.0166
91515W        W34609  14.068   8.564   9.804 -0.0046 -0.2914 -0.0962
91516W        W34610  10.640  12.001   8.568 -0.1805  0.0411  0.2399
91517W        W34611   9.801  10.922   8.928  0.0053 -0.0097  0.0811
91518W        W34612  10.882  11.512   8.322 -0.0553 -0.0228 -0.0857
91519W        W34613  15.786  11.525   8.652  0.3437 -0.0477 -0.0553
91520W        W34614  11.970  14.157   9.248  0.2211  0.0698 -0.2490
91521W        W34615  11.309  13.969   6.915 -0.1081  0.0448  0.0797
91522W        W34616  11.791  14.078   6.880  0.0634  0.1902  0.1025
91523W        W34617  13.980  14.733   9.104  0.0788  0.0983 -0.0597
91524W        W34618  13.447  14.986   7.870  0.0284  0.1292 -0.0367
91525W        W34619  14.971  10.999   9.475  0.0748 -0.3201  0.2607
91526W        W34620  12.053  11.138   6.873 -0.2604 -0.0984  0.1750
91527W        W34621  13.000  17.094   8.486  0.1066  0.1994 -0.2632
91528W        W34622  13.510  14.983   9.271 -0.1579 -0.0631 -0.2770
91529W        W34623  12.237  12.580   9.472 -0.0728  0.0205  0.1599
91530W        W34624  15.736  15.977   9.152 -0.0826  0.1594 -0.3281
91531W        W34625  12.505  13.702   8.117 -0.2890  0.0995 -0.4381
91532W        W34626  14.623  12.408   9.001  0.2427  0.3225 -0.1155
91533W        W34627  13.544  12.492   9.264  0.1242  0.1826  0.1522
91534W        W34628  11.433  11.144   7.924  0.1877  0.0261 -0.0555
91535W        W34629  13.795  15.520   8.947 -0.3661  0.1467  0.1595
91536W        W34630  11.384  14.171   7.388  0.1105  0.0524 -0.2538
91537W        W34631  11.088  13.260   8.541 -0.1799 -0.2401  0.1472
91538W        W34632  12.511  13.220   7.807  0.1819 -0.2184 -0.4691
91539W        W34633  13.975  11.588   8.063 -0.0190  0.3117 -0.0854
91540W        W34634  11.391  12.722   7.571 -0.1217 -0.0519  0.1159
91541W        W34635  12.964  10.334   7.911  0.3985 -0.2044  0.1922
91542W        W34636  15.410  10.584   6.696  0.4031 -0.1120 -0.0292
91543W        W34637  13.379  13.507   8.218 -0.0731  0.0825 -0.2432
91544W        W34638  13.935  12.099   7.724 -0.0472  0.4308  0.1849
91545W        W34639  13.152  10.673   7.521  0.2089  0.0829  0.0744
91546W        W34640  12.415  13.899   8.646  0.1769  0.0801 -0.1488
91547W        W34641  11.734  14.508   8.182  0.0320 -0.0048 -0.0442
91548W        W34642  12.628  11.410   8.526 -0.1715 -0.0095  0.0435
91549W        W34643  14.019  12.820   7.545 -0.0641 -0.2695 -0.4437
91550W        W34644   9.230  11.740   9.431 -0.3787  0.1772  0.1576
91551W        W34645  12.891  13.395   8.125  0.0526  0.0300  0.2297
91552W        W34646  13.081  10.814   9.738  0.0416  0.0976 -0.3055
91553W        W34647  11.794  11.509   7.930  0.0596 -0.0055  0.1413
91554W        W34648  12.716  12.774   8.751  0.0829  0.0575 -0.4242
91555W        W34649  10.591  12.749   7.110 -0.0831 -0.0928 -0.1493
91556W        W34650  16.031  11.537   9.175 -0.3552 -0.0808 -0.1929
91557W        W34651  12.776  11.010   9.408  0.1835  0.0656  0.1481
91558W        W34652  14.444  12.084   8.345  0.3512 -0.2500 -0.0652
91559W        W34653  13.586  12.857   9.687  0.1657  0.1764  0.0392
91560W        W34654  11.297  11.608   7.655 -0.0619  0.2035 -0.1025
91561W        W34655  12.469  11.260   7.742  0.0539  0.1823 -0.1804
91562W        W34656  10.933  14.813   9.521 -0.2474  0.1587 -0.2728
91563W        W34657  13.796  13.026   7.979  0.0190 -0.1673 -0.0685
91564W        W34658  13.274  11.665   7.205 -0.0060  0.0270  0.1051
91565W        W34659  11.546  14.195   9.490 -0.2228 -0.0897  0.0272
91566W        W34660  11.966  13.974   8.736 -0.1267  0.2810 -0.0132
91567W        W34661  13.248  11.158   7.635  0.1355 -0.3144 -0.0387
91568W        W34662  13.762  13.893   9.074 -0.3561 -0.0758 -0.0393
91569W        W34663  11.581  13.718   7.270 -0.1600 -0.0474  0.2058
91570W        W34664  13.542  15.362   8.370  0.0439 -0.1079 -0.1477
91571W        W34665  10.429  14.175   7.908 -0.1731  0.2386 -0.1544
91572W        W34666  14.762   9.053   9.518  0.0962  0.0221  0.2031
91573W        W34667  10.885  14.233   9.672 -0.1746  0.1357  0.4010
91574W        W34668  12.326  11.100   7.322  0.3240  0.0486  0.0149
91575W        W34669  10.062  11.384   9.371  0.1061 -0.2651 -0.2243
91576W        W34670  14.250  10.890   9.193 -0.2427 -0.0905  0.2716
91577W        W34671  14.803  11.727   7.397  0.2651  0.4473  0.0256
91578W        W34672  10.735  11.135   9.508 -0.2115 -0.1302  0.0569
91579W        W34673  11.832  11.409   7.312  0.2224 -0.0841  0.0937
91580W        W34674  11.448  13.044   8.790  0.3891 -0.1558  0.0906
91581W        W34675  15.085  11.028   6.720 -0.2869 -0.3244  0.0893
91582W        W34676  10.908  11.380   7.854  0.0534  0.1218 -0.3438
91583W        W34677  15.831  11.296   7.735  0.1192  0.0121 -0.1007
91584W        W34678  13.381  11.871   9.396  0.1074  0.2103  0.0370
91585W        W34679  10.694  14.486   9.203  0.4878  0.1363  0.1884
91586W        W34680  11.425  13.729   9.205  0.0097  0.1610 -0.4445
91587W        W34681  11.382  13.241   7.070 -0.3201 -0.1524 -0.2526
91588W        W34682  11.517  12.531   8.037  0.0356 -0.1087  0.0031
91589W        W34683  14.965  13.866   9.480  0.1943 -0.1156 -0.1915
91590W        W34684  12.965  12.555   8.169  0.2053 -0.4944  0.2326
91591W        W34685  12.214  12.858   8.546 -0.1664  0.2427  0.0634
91592W        W34686  12.136  13.148   9.065  0.1421 -0.2173  0.2415
91593W        W34687  15.804  15.274   9.717 -0.0416 -0.0805 -0.0744
91594W        W34688  13.867  11.676   9.499  0.0201 -0.1957 -0.1430
91595W        W34689  14.812   9.575   9.598 -0.0346  0.2063  0.0109
91596W        W34690  14.066  14.323   7.005  0.0146  0.0304  0.2737
91597W        W34691  11.489  13.670   8.679  0.0323  0.0225  0.0298
91598W        W34692  10.663  13.261   8.846 -0.0197  0.0725  0.0966
91599W        W34693  11.923  14.470   8.647 -0.4309 -0.1019 -0.2168
91600W        W34694  16.311  15.167   9.629  0.0915  0.1981 -0.0644
91601W        W34695  12.811  13.414   8.589 -0.0279 -0.4012 -0.2292
91602W        W34696  12.456  13.942   9.155  0.0657  0.4423 -0.0901
91603W        W34697   9.778  14.838   9.750  0.0784  0.2685  0.0407
91604W        W34698  14.273  10.837   8.216 -0.1384 -0.4575  0.0609
91605W        W34699  13.722  12.327   6.869  0.0414  0.0383 -0.0916
91606W        W34700  12.903  11.634   9.340 -0.0789 -0.1408  0.1940
91607W        W34701  14.278  12.901   7.110 -0.1987  0.0118 -0.1195
91608W        W34702  12.625  10.563   8.618  0.0609  0.0573 -0.2689
91609W        W34703  13.320  13.998   8.786 -0.1081 -0.1866  0.4560
91610W        W34704  12.255  11.308   8.204  0.0849  0.0355  0.1599
91611W        W34705  11.832  12.912   7.148 -0.0088  0.0152 -0.0391
91612W        W34706  10.321  14.636   9.545 -0.0669 -0.1037 -0.0725
91613W        W34707  14.543  14.829   8.994 -0.1507 -0.6573 -0.0772
91614W        W34708  13.416  12.059   7.625 -0.3144 -0.1101 -0.0765
91615W        W34709  14.486  13.530   9.626  0.0238  0.0458 -0.0837
91616W        W34710  13.198  10.982   9.175  0.0576 -0.2754 -0.1210
91617W        W34711  13.927  12.154   8.201 -0.0306 -0.1026 -0.0822
91618W        W34712  13.171  12.488   7.748  0.2250  0.0741 -0.0496
91619W        W34713  12.061  13.670   8.363  0.1261  0.1445  0.2055
91620W        W34714  14.489  14.076   9.489 -0.0667  0.1607  0.1740
91621W        W34715  13.681  11.120   8.860 -0.0644  0.0478 -0.3020
91622W        W34716  14.583  16.323   9.656  0.0406  0.2780  0.0652
91623W        W34717  15.163  12.653   7.232  0.0842 -0.0244  0.2203
91624W        W34718  14.944  12.799   9.113 -0.0815 -0.0721  0.1643
91625W        W34719  15.225  12.379   9.425 -0.0777  0.1938 -0.0768
91626W        W34720  12.697  11.696   8.030  0.3260  0.1138 -0.2080
91627W        W34721  11.121  11.273   9.232  0.1633  0.1921  0.1136
91628W        W34722  13.258  12.122   7.086  0.0374 -0.1963  0.1026
91629W        W34723  12.838  13.364   7.457 -0.3605 -0.0755 -0.2368
91630W        W34724  12.562  14.795   8.952  0.1925  0.0998 -0.1207
91631W        W34725  14.410  11.440   7.597 -0.2305  0.0565 -0.2181
91632W        W34726  10.782  11.668   9.336  0.2456  0.6338 -0.0103
91633W        W34727  11.515  10.472   7.278  0.0833  0.0662 -0.0268
91634W        W34728  12.816  13.867   6.319  0.0547  0.1802  0.1053
91635W        W34729  12.773  12.302   8.633  0.3244 -0.1515 -0.3322
91636W        W34730  12.236  11.737   7.846 -0.2597  0.1426  0.2032
91637W        W34731  11.559  13.427   8.279  0.1425  0.0151  0.0506
91638W        W34732  12.881  10.582   9.053 -0.3607 -0.0249  0.0776
91639W        W34733   9.539  14.359   8.928 -0.0983  0.0556  0.4645
91640W        W34734  12.299  14.401   8.955 -0.0263 -0.0144  0.1999
91641W        W34735  13.757  10.889   9.316 -0.0327 -0.1289  0.1281
91642W        W34736  14.611   9.384  10.351  0.0453  0.3571 -0.0665
91643W        W34737  14.401  13.370   8.792  0.3344  0.1950 -0.2505
91644W        W34738  10.940  12.389   8.756 -0.0401 -0.1576  0.0017
91645W        W34739  13.655  13.443   9.253  0.0496 -0.2251  0.0379
91646W        W34740  10.593  14.964   8.630 -0.1769  0.0190 -0.0763
91647W        W34741  12.282  15.310   9.164  0.1666  0.1139 -0.2635
91648W        W34742  12.084  11.380   9.595  0.0567  0.1703  0.0152
91649W        W34743  13.895  13.680   6.521 -0.2015  0.0381 -0.2160
91650W        W34744  11.516  14.158   8.874 -0.7420 -0.0034 -0.0729
91651W        W34745  10.600  14.422   6.566 -0.0204 -0.0110 -0.3427
91652W        W34746  12.004  13.623   9.161 -0.0877  0.0566 -0.4332
91653W        W34747  13.528  14.471   8.836  0.1872 -0.1700  0.0951
91654W        W34748  16.163  14.744   8.891 -0.1544  0.0052 -0.2329
91655W        W34749  11.899  12.670   8.957  0.2592 -0.1757 -0.1337
91656W        W34750  11.176  14.040   8.589  0.2545 -0.0831 -0.0437
91657W        W34751  10.503  13.514   6.868 -0.1502 -0.1946  0.1749
91658W        W34752  12.345  15.692   8.194  0.0208 -0.0499  0.2543
91659W        W34753  10.986  13.991   7.767  0.0379  0.6174 -0.1382
91660W        W34754  13.825  11.145   6.858  0.1025  0.0034  0.1936
91661W        W34755  14.252  11.944   8.787  0.1143 -0.0676 -0.0862
91662W        W34756  14.512  11.223   8.022  0.1896 -0.0847 -0.0059
91663W        W34757  13.442  12.051   8.654 -0.2474  0.3184  0.1804
91664W        W34758  11.836  13.341   8.672 -0.1832  0.1345 -0.1339
91665W        W34759  13.724  12.788   7.016 -0.1723  0.0954 -0.2290
91666W        W34760  10.837  11.595   8.837 -0.1100  0.0210 -0.0171
91667W        W34761  12.936  10.302   9.755  0.1247  0.3105 -0.3201
91668W        W34762  17.346   8.686   8.936  0.0189 -0.0643  0.0720
91669W        W34763  12.605  13.930   6.813 -0.0897 -0.0987  0.0024
91670W        W34764  13.063  12.551   9.224 -0.1045  0.0464  0.2355
91671W        W34765  15.429  15.573   9.485  0.0300 -0.2165 -0.0026
91672W        W34766  11.629  15.463   8.708 -0.3272 -0.0328 -0.1988
91673W        W34767  11.090  14.758  11.586  0.1456 -0.1594  0.0778
91674W        W34768  13.070  10.855   6.254  0.0287 -0.1758  0.1398
91675W        W34769  16.343  12.843   8.327  0.2944 -0.0350  0.2184
91676W        W34770  11.917  12.258   9.253  0.2420 -0.3294  0.2825
91677W        W34771  12.335  12.443   8.850 -0.2606  0.0321 -0.1968
91678W        W34772  12.942  12.079   9.636  0.1169 -0.1322  0.0046
91679W        W34773  11.926  15.116   9.426 -0.0453  0.0823 -0.0900
91680W        W34774  11.465  10.271   8.865  0.3959 -0.0785  0.0455
91681W        W34775  11.726  12.827   8.461  0.2324 -0.2513 -0.1203
91682W        W34776  12.989  11.780   8.547 -0.2654  0.1326  0.3671
91683W        W34777  12.307  13.180   9.522 -0.0573  0.1766  0.0320
91684W        W34778  12.811  11.253   8.941 -0.1746  0.0478  0.0598
91685W        W34779  11.615  11.166   9.370  0.1532  0.0636  0.1564
91686W        W34780  13.337  13.500   8.807  0.1429  0.1469 -0.1465
91687W        W34781  10.013  12.048   9.220  0.1575  0.2396  0.1766
91688W        W34782  14.812  13.311   7.788  0.0083  0.0659  0.1174
91689W        W34783  16.115  12.269   8.409 -0.2001  0.0241 -0.3416
91690W        W34784  10.800  13.498   7.643  0.0836  0.0887  0.0178
91691W        W34785  13.543  11.323   9.338 -0.1073  0.0066 -0.2492
91692W        W34786  12.800  14.302   8.922 -0.0228  0.0726  0.0303
91693W        W34787  11.010  12.864   8.860  0.1246  0.1284 -0.0056
91694W        W34788  13.322  15.299   8.907  0.1115  0.3241 -0.2246
91695W        W34789  15.981  15.574   9.394 -0.1331 -0.2981 -0.1683
91696W        W34790  12.440   9.872   8.121 -0.0094 -0.0379 -0.1500
91697W        W34791  13.157  13.019   9.024  0.0350 -0.1285  0.2033
91698W        W34792  11.208  13.758   8.190 -0.1437 -0.2084  0.0602
91699W        W34793  14.838  11.349   8.425 -0.0651  0.3402 -0.3432
91700W        W34794  10.977  13.642   6.765 -0.0806  0.0108 -0.0118
91701W        W34795  13.471  12.313   8.222  0.2042 -0.0672 -0.0318
91702W        W34796  10.746  12.975   7.521  0.0727  0.0497 -0.0656
91703W        W34797  12.269  13.063   6.815 -0.2160  0.2441  0.2403
91704W        W34798  11.663  14.032   9.967 -0.1548  0.1408 -0.0353
91705W        W34799  13.480  12.874   7.609 -0.3019  0.0054 -0.2428
91706W        W34800  11.635  13.197   9.303 -0.0677  0.1378  0.0386
91707W        W34801  13.158  13.924   9.471  0.0633  0.1299 -0.0773
91708W        W34802  12.369  11.278   9.136 -0.1818 -0.2108  0.2304
91709W        W34803  14.364  11.208   7.100  0.5063 -0.1218 -0.0070
91710W        W34804  14.827  10.375   8.270  0.1275 -0.2962  0.2011
91711W        W34805  15.047  11.363   9.082 -0.2048 -0.0357 -0.0020
91712W        W34806  11.508  12.138   8.369 -0.0978  0.1815 -0.0048
91713W        W34807  12.292  12.677   7.203 -0.2854  0.0636 -0.1068
91714W        W34808  13.235  12.545   8.724  0.0961 -0.1060 -0.0224
91715W        W34809  12.424  11.757   9.374  0.1568 -0.2594  0.1708
91716W        W34810  11.716  12.673   9.519 -0.0235 -0.1379 -0.1379
91717W        W34811  14.857  11.971   8.679 -0.1622 -0.5379 -0.0354
91718W        W34812  12.392  10.076   8.606  0.0487  0.0410  0.1253
91719W        W34813  10.640  11.318   6.497  0.0253 -0.0338  0.3134
91720W        W34814  14.633  13.176   8.343  0.3412 -0.0854  0.0004
91721W        W34815  14.020  13.386   7.759  0.1536 -0.0741  0.1766
91722W        W34816  10.464  11.755   8.121 -0.2051 -0.0570  0.1079
91723W        W34817  10.769  12.967   6.675  0.0995 -0.3041  0.0012
91724W        W34818  11.874  11.859   8.421  0.2663  0.0614  0.0071
91725W        W34819  14.099  12.600   9.026  0.0917 -0.4852 -0.0809
91726W        W34820  12.903  14.025   8.479 -0.0552 -0.0627 -0.1195
91727W        W34821  14.635  13.584   7.025  0.0645  0.1198  0.0616
91728W        W34822  14.578  11.839   9.823  0.1475 -0.0776  0.0572
91729W        W34823  14.834  12.688   8.165  0.0774 -0.1563 -0.1966
91730W        W34824  14.932  13.256   8.805  0.0018  0.5352  0.0831
91731W        W34825  17.818   9.718   9.122  0.1013  0.3155 -0.1904
91732W        W34826  13.080  12.044   9.033  0.1125 -0.0047 -0.0934
91733W        W34827  15.023  14.647   9.609  0.2776  0.0969 -0.3658
91734W        W34828   9.565   8.564   8.940  0.0945 -0.2131 -0.0034
91735W        W34829  13.449  11.391   8.528 -0.1080  0.1140  0.0433
91736W        W34830  13.824  13.674   8.136 -0.4380 -0.2831  0.0424
91737W        W34831  11.148  13.288   9.228 -0.0314 -0.0657 -0.0043
91738W        W34832  13.506  10.687   8.551  0.1303  0.1701 -0.4661
91739W        W34833  12.701  13.276   9.067 -0.1852 -0.1318 -0.0022
91740W        W34834  12.124  13.225   8.130  0.4563  0.4207 -0.0885
91741W        W34835  14.249  12.439   7.277  0.0184  0.2126  0.0106
91742W        W34836  11.641  14.080   8.384  0.2065 -0.0002  0.0603
91743W        W34837  13.390  16.898   9.515 -0.2761 -0.1831  0.1200
91744W        W34838  13.644  13.095   8.419 -0.3479 -0.0488 -0.2585
91745W        W34839  11.572  12.199   9.901 -0.1883 -0.0311  0.0046
91746W        W34840  12.337  13.376   8.641 -0.0095 -0.1140 -0.0698
91747W        W34841  13.130  13.058   8.514  0.1671 -0.0624 -0.0839
91748W        W34842  13.815  12.474   8.610 -0.3453 -0.2291  0.1883
91749W        W34843  12.154  12.111   9.640 -0.2851 -0.0764 -0.1423
91750W        W34844  12.857  11.025   7.284  0.0926 -0.1122 -0.2544
91751W        W34845  10.318  15.904  12.119  0.0957 -0.0262  0.3857
91752W        W34846  13.122  13.454   9.452 -0.2198  0.2126 -0.1196
91753W        W34847  12.045  17.031   1.996 -0.1667  0.1098  0.0031
91754W        W34848  11.647  15.429   0.461 -0.0660  0.1518 -0.0108
91755W        W34849  13.546  15.893   0.893 -0.4196  0.1307  0.1067
91756W        W34850  14.618  15.000  31.191  0.2144 -0.1457 -0.2289
91757W        W34851  11.859  15.447  30.287  0.0235  0.0106 -0.2658
91758W        W34852  14.788  19.244  30.823  0.0749 -0.2454 -0.2250
91759W        W34853  11.673  12.936   1.887 -0.0661 -0.0612 -0.1839
91760W        W34854  13.331  18.115   0.998  0.0323  0.0887 -0.2782
91761W        W34855  13.660  17.815   0.691 -0.1460 -0.1682  0.1832
91762W        W34856  14.561  17.920  30.433 -0.3472  0.0899  0.1173
91763W        W34857  13.085  15.759   1.017 -0.0475 -0.1060 -0.2636
91764W        W34858  13.030  17.056   2.124  0.0023  0.0472 -0.2241
91765W        W34859  11.667  16.854  30.634 -0.1248  0.2624 -0.2136
91766W        W34860   9.561  14.178   1.779 -0.0218  0.0859 -0.3057
91767W        W34861  13.200  16.028   1.913  0.1427 -0.2108  0.1247
91768W        W34862  11.002  15.346  31.340 -0.0141  0.0470 -0.2811
91769W        W34863  13.139  15.598   1.570  0.0814  0.0631 -0.2009
91770W        W34864  12.933  16.580   0.533 -0.2403  0.1098  0.3125
91771W        W34865  13.184  17.764   0.638  0.0800 -0.1885 -0.0052
91772W        W34866  12.768  15.142   2.898  0.3225 -0.1529  0.0516
91773W        W34867  12.511  14.705   4.003  0.1965  0.1274 -0.2842
91774W        W34868  13.651  17.912  31.977  0.0326 -0.0106  0.0349
91775W        W34869  12.309  16.357  31.404  0.1476  0.1926  0.1049
91776W        W34870  10.843  14.879   0.054  0.0487  0.1442 -0.1075
91777W        W34871  12.733  16.454   2.616 -0.1444 -0.1341 -0.2581
91778W        W34872  14.595  13.994   0.915  0.0888  0.1820 -0.1052
91779W        W34873  13.612  15.848  31.286 -0.1125 -0.3251 -0.2666
91780W        W34874  12.270  18.202   0.331 -0.0666  0.1233 -0.4087
91781W        W34875  12.907  19.349  30.410 -0.0348 -0.2154 -0.1248
91782W        W34876  13.824  15.480   3.007 -0.2085  0.1508 -0.0484
91783W        W34877  11.716  17.090   1.655  0.3480 -0.0465  0.2427
91784W        W34878  11.819  17.188   1.107 -0.0866  0.4314 -0.0146
91785W        W34879  12.033  17.506  31.719 -0.0470 -0.0007  0.2900
91786W        W34880  15.665  18.216  30.884 -0.1441  0.1538  0.0569
91787W        W34881  14.479  18.164   1.823  0.0599 -0.0318  0.1228
91788W        W34882  12.288  18.744   3.148 -0.1752  0.0466 -0.2366
91789W        W34883  10.820  17.382   0.962  0.0809  0.0488  0.1253
91790W        W34884  13.472  17.378   2.450 -0.1742 -0.0820  0.1858
91791W        W34885  11.293  17.023   2.069 -0.0890 -0.0273 -0.2887
91792W        W34886  14.793  16.335   2.470 -0.0336 -0.1040  0.0120
91793W        W34887  13.039  16.565   0.039 -0.0623 -0.0631  0.2249
91794W        W34888  12.765  18.081  29.721  0.2253 -0.2077  0.2792
91795W        W34889  12.643  16.683   1.668  0.0273  0.0648  0.0669
91796W        W34890  12.799  16.221   2.222  0.1640  0.2427  0.1035
91797W        W34891  11.569  16.219   0.721  0.3372 -0.0400  0.1346
91798W        W34892  14.180  14.903   1.925  0.1019  0.3229  0.1792
91799W        W34893  11.910  18.089  31.391  0.3126 -0.0774 -0.0286
91800W        W34894  14.105  16.142  31.031  0.1070  0.1601 -0.0677
91801W        W34895  12.594  15.082  30.982 -0.2287 -0.0410  0.2445
91802W        W34896  14.799  15.384   0.608 -0.1014  0.1203 -0.3156
91803W        W34897  12.819  14.934   1.976  0.1924 -0.0653  0.2679
91804W        W34898  11.014  18.436   0.730  0.2013 -0.0011 -0.3127
91805W        W34899  11.380  14.503   1.990 -0.0461  0.1063 -0.2109
91806W        W34900  14.924  17.288   2.090  0.2513 -0.1053  0.1115
91807W        W34901  13.621  17.111  31.080 -0.2285  0.0274 -0.1190
91808W        W34902  15.282  14.661   1.836  0.0422  0.0319  0.2402
91809W        W34903  10.767  18.054   2.054 -0.0843  0.0335 -0.0686
91810W        W34904  10.801  17.475   1.894 -0.3639 -0.1270  0.4360
91811W        W34905  14.201  17.811  29.229 -0.1673 -0.0511 -0.0833
91812W        W34906  14.302  19.833  30.399 -0.0865  0.3867 -0.0001
91813W        W34907  14.557  18.316  30.733  0.2437  0.3722 -0.1899
91814W        W34908  12.301  16.838   0.410 -0.0280  0.0754  0.0826
91815W        W34909  11.293  17.719   4.214  0.0404  0.2632  0.0595
91816W        W34910  12.747  15.884   1.787  0.1174  0.2144 -0.0980
91817W        W34911  12.828  13.935  31.397  0.1273 -0.0679  0.5165
91818W        W34912  14.021  16.619   1.463  0.1877  0.3982 -0.2188
91819W        W34913  10.652  16.389   2.044  0.0186  0.0531 -0.3385
91820W        W34914  14.446  15.088   0.904  0.0171 -0.0130 -0.0125
91821W        W34915  13.406  16.551   0.352  0.0947  0.3167 -0.1212
91822W        W34916  14.522  16.697   1.507 -0.1412 -0.2704  0.0601
91823W        W34917  13.716  17.888  30.277 -0.0571 -0.0001  0.0146
91824W        W34918  13.235  16.111   0.505  0.0664 -0.1481 -0.0878
91825W        W34919  13.778  12.795   1.229  0.1083  0.2779  0.1571
91826W        W34920  13.519  17.206  30.207 -0.2239  0.1820  0.3393
91827W        W34921  11.984  16.323  31.751  0.0113 -0.4094 -0.0546
91828W        W34922  14.056  17.912   0.358  0.0535  0.2194  0.1896
91829W        W34923  14.293  15.171  31.602 -0.0946  0.3527 -0.1096
91830W        W34924  12.221  19.557   1.475 -0.1629  0.0669 -0.1960
91831W        W34925  12.245  16.494   1.834  0.2499 -0.2417  0.2426
91832W        W34926  12.556  16.804   3.573  0.0988  0.1696  0.0674
91833W        W34927  11.464  18.420  31.898 -0.6038 -0.2087  0.1804
91834W        W34928  11.353  15.737   0.814 -0.3268 -0.0379  0.0225
91835W        W34929  12.796  18.968  31.805  0.0975 -0.1385  0.1626
91836W        W34930  12.730  14.170   2.730 -0.1248 -0.0858  0.0735
91837W        W34931  11.325  17.874   2.038  0.3956  0.1796  0.1893
91838W        W34932  15.254  15.294  31.682 -0.2147 -0.1212  0.1766
91839W        W34933  12.078  13.335   3.224  0.2648 -0.0008 -0.3831
91840W        W34934  13.863  13.852   1.928 -0.1746 -0.2187 -0.0326
91841W        W34935  12.196  16.864   0.920 -0.1209 -0.0618  0.0705
91842W        W34936  14.366  18.623  31.073 -0.0111  0.1235 -0.1080
91843W        W34937  15.028  17.580  30.192 -0.1773 -0.1009  0.0077
91844W        W34938  15.011  18.090  30.244  0.1464  0.0513 -0.2277
91845W        W34939  11.214  15.789   1.833 -0.0598 -0.2489 -0.2841
91846W        W34940  12.743  16.981   0.202 -0.1195  0.1746 -0.0430
91847W        W34941  11.862  13.593   2.890 -0.1756 -0.2688 -0.0553
91848W        W34942  12.122  15.514   0.633  0.1164 -0.0630  0.0019
91849W        W34943  14.494  14.550   0.882  0.3015  0.0917  0.2580
91850W        W34944  11.945  15.223  31.487  0.0817  0.1212  0.1477
91851W        W34945  14.553  16.402   1.944  0.3712 -0.0524  0.2251
91852W        W34946  11.920  17.123  30.933 -0.2942  0.3324 -0.1240
91853W        W34947  11.263  16.681   0.490 -0.1461  0.0488 -0.1052
91854W        W34948  13.335  15.322   2.189  0.0162  0.0927  0.0666
91855W        W34949  13.639  18.044  30.859 -0.0595 -0.2765  0.4003
91856W        W34950  15.465  17.559   3.916 -0.2707  0.0009 -0.1566
91857W        W34951  14.050  18.766  30.631  0.2871 -0.1752 -0.0742
91858W        W34952  12.945  15.145   2.418 -0.1610  0.0534  0.0544
91859W        W34953  11.526  16.368  30.890  0.0622 -0.3404  0.1797
91860W        W34954  11.783  18.130   0.471 -0.1120  0.1388  0.1673
91861W        W34955  11.370  18.306   1.256 -0.3030 -0.1203 -0.1234
91862W        W34956  12.485  15.726  31.753  0.0002  0.2018  0.2598
91863W        W34957  13.167  17.461   1.411 -0.1316 -0.0376  0.1247
91864W        W34958  12.449  16.514   1.205  0.0463 -0.0184  0.1964
91865W        W34959  10.736  16.450   2.633  0.4617 -0.2489  0.1342
91866W        W34960  14.669  15.488   1.087  0.3923 -0.3884 -0.0646
91867W        W34961  12.975  16.556   1.169 -0.2135 -0.0339 -0.1736
91868W        W34962  13.693  16.154   0.452  0.0402  0.1049  0.6449
91869W        W34963  11.760  16.821   0.182 -0.1188  0.1554  0.0096
91870W        W34964  13.845  18.471  31.058 -0.0278 -0.0787 -0.2413
91871W        W34965  11.539  17.636   0.447  0.1750  0.0907 -0.2027
91872W        W34966  11.021  16.135  31.853 -0.1778  0.0404 -0.1901
91873W        W34967  13.709  17.314  31.821  0.1117  0.0817  0.1020
91874W        W34968  13.655  15.177   0.448 -0.0405  0.0125  0.1148
91875W        W34969  11.593  17.906   3.339 -0.2868 -0.1492  0.1160
91876W        W34970  14.406  16.541   3.283  0.2943  0.1787  0.1140
91877W        W34971  10.669  16.496  31.797  0.0623  0.2296 -0.1033
91878W        W34972  11.319  17.063   3.020  0.0146  0.4977 -0.0556
91879W        W34973  13.078  14.102   1.920 -0.3632 -0.1064  0.0715
91880W        W34974  13.941  16.784  30.799  0.1516  0.0782  0.0856
91881W        W34975  13.672  16.479   2.774  0.3258 -0.0227 -0.2629
91882W        W34976  15.344  17.395  29.770 -0.3182  0.0062  0.0998
91883W        W34977  14.555  16.369  31.161 -0.0583  0.0927 -0.4260
91884W        W34978  12.348  14.956  31.429  0.4043 -0.3639 -0.1888
91885W        W34979  11.981  16.049   2.490  0.0270 -0.2353 -0.0995
91886W        W34980  13.546  16.684   1.314 -0.2813 -0.1013  0.3192
91887W        W34981  13.088  17.035   1.590 -0.0913  0.2294  0.0546
91888W        W34982  12.559  15.621  30.905 -0.1792  0.0560  0.2321
91889W        W34983  13.539  17.768  28.716  0.0079 -0.2280  0.0758
91890W        W34984  10.883  16.848   1.110  0.2199  0.0402  0.0576
91891W        W34985  13.624  16.269   1.736  0.1408 -0.2918 -0.0806
91892W        W34986  15.374  17.845  30.983 -0.2099 -0.1493  0.1622
91893W        W34987  12.905  14.159   3.244  0.1036  0.2081  0.0277
91894W        W34988  11.660  15.011  30.817  0.0952  0.2982  0.0103
91895W        W34989  13.690  14.667   0.230 -0.0832  0.4573 -0.0872
91896W        W34990  12.060  18.582   0.562 -0.0358  0.3841  0.2353
91897W        W34991  14.084  14.189   0.779 -0.0838 -0.1291  0.0120
91898W        W34992  12.215  13.786   2.439  0.1950  0.1319  0.1529
91899W        W34993  12.012  14.715   2.678  0.0795  0.0558 -0.2516
91900W        W34994  14.725  16.804   2.212 -0.0938  0.4335 -0.0340
91901W        W34995  12.828  16.589  30.721 -0.0326 -0.1927 -0.1750
91902W        W34996  14.348  15.487  31.239 -0.3011 -0.1332  0.2519
91903W        W34997  11.732  17.202  31.421 -0.0448  0.1029  0.2229
91904W        W34998  13.334  16.287   3.145 -0.0325 -0.0569 -0.1245
91905W        W34999  12.517  15.444   2.455 -0.1418  0.3518 -0.2064
91906W        W35000  12.530  17.857   1.002 -0.0465  0.0253 -0.1582
91907W        W35001  13.588  16.870   1.831  0.2552  0.0704  0.1417
91908W        W35002  14.042  17.420   0.157 -0.0771  0.1513  0.0197
91909W        W35003  12.659  15.350   3.360  0.1826  0.0939  0.1198
91910W        W35004  12.671  15.885  31.336 -0.0725 -0.1130  0.2121
91911W        W35005  12.540  17.388  31.855  0.1636 -0.2067 -0.3404
91912W        W35006  12.946  16.868  31.654  0.0321  0.0466  0.1560
91913W        W35007  12.768  14.603   1.268  0.1701  0.0716  0.0176
91914W        W35008  12.711  17.027   1.236  0.0627 -0.1090  0.0486
91915W        W35009  12.912  17.617  30.548 -0.3112 -0.2324  0.0312
91916W        W35010  13.207  16.634   2.726 -0.1515  0.0295  0.5985
91917W        W35011  11.014  16.970  30.051  0.2603 -0.2116 -0.0953
91918W        W35012  14.623  15.097   3.168 -0.1117  0.0104 -0.1031
91919W        W35013  12.955  17.493   0.277  0.0492 -0.0295 -0.0601
91920W        W35014  12.913  15.747   0.521 -0.0323  0.1332  0.0306
91921W        W35015  10.842  15.759   0.128  0.1868  0.1319  0.0377
91922W        W35016  14.213  14.227   1.262  0.0276 -0.0044 -0.1066
91923W        W35017  14.359  16.889  29.282 -0.4803  0.2034 -0.0002
91924W        W35018  11.697  14.456   1.579  0.0764 -0.3305 -0.0289
91925W        W35019  13.105  14.617   1.751 -0.0225  0.1137  0.1494
91926W        W35020  11.912  18.123   1.281  0.1972  0.4047  0.2636
91927W        W35021  13.259  15.303   1.193  0.3859  0.0983  0.2109
91928W        W35022  14.609  15.966   0.997 -0.1026 -0.0635  0.2732
91929W        W35023  13.257  17.085   0.546  0.0125 -0.0888 -0.3307
91930W        W35024  12.584  16.796   2.120  0.0744 -0.1965 -0.1150
91931W        W35025  10.779  16.246   0.276  0.1696 -0.1471  0.0614
91932W        W35026  14.645  15.899   1.867  0.0684  0.0380 -0.2753
91933W        W35027  13.232  16.117   0.018 -0.1374 -0.2792 -0.0940
91934W        W35028  11.800  16.684   1.198 -0.0839 -0.3401  0.5043
91935W        W35029  12.901  17.461   0.917 -0.1410 -0.0901  0.2676
91936W        W35030  11.370  17.726  31.950  0.0826  0.0495 -0.1918
91937W        W35031  12.169  17.084  31.946 -0.0779  0.2221  0.2728
91938W        W35032  11.933  14.016   3.111 -0.1570 -0.0526 -0.1369
91939W        W35033  13.364  17.350   1.863  0.0256 -0.0913 -0.0902
91940W        W35034  12.568  14.564   1.725 -0.2492  0.1158 -0.0883
91941W        W35035  11.503  15.313  31.166 -0.1488  0.1389  0.0557
91942W        W35036  12.234  16.864  31.504  0.0341  0.4188  0.1250
91943W        W35037  13.881  16.536   2.135 -0.1134 -0.1339 -0.0274
91944W        W35038  13.581  15.710   1.871 -0.1299 -0.1681 -0.0625
91945W        W35039  12.940  18.198   0.730 -0.1166 -0.0589 -0.0311
91946W        W35040  14.039  14.514   2.636 -0.0521 -0.3757  0.0124
91947W        W35041  14.896  18.663  30.823 -0.1445  0.0453  0.1831
91948W        W35042  13.270  15.541   2.797 -0.2774  0.2886  0.1132
91949W        W35043  13.531  17.430   0.292  0.4159 -0.0323 -0.1619
91950W        W35044  10.866  15.703   1.321  0.0011 -0.0930  0.1179
91951W        W35045  11.155  17.879   0.921 -0.2449  0.0594 -0.1048
91952W        W35046  13.672  14.768   1.826  0.0051 -0.1438 -0.2133
91953W        W35047  10.304  16.324   2.491  0.1298 -0.0423  0.0538
91954W        W35048  13.161  17.507  31.062  0.0552 -0.1404 -0.0781
91955W        W35049  11.205  17.930   3.052 -0.1181  0.1506 -0.0753
91956W        W35050  14.549  13.459  31.579  0.0771  0.2940 -0.4042
91957W        W35051  13.623  18.587  31.520  0.1855  0.2216  0.0955
91958W        W35052  12.915  15.725  31.939  0.0558  0.2111  0.1200
91959W        W35053  15.037  14.323   2.912 -0.0781 -0.2300  0.3231
91960W        W35054  15.216  16.877  29.786 -0.2618  0.0563 -0.0336
91961W        W35055  12.509  14.584   2.890  0.0906  0.0535 -0.0055
91962W        W35056  11.622  13.383   1.513  0.0698  0.0432  0.1522
91963W        W35057  13.783  16.703  31.375  0.0376 -0.2554 -0.4154
91964W        W35058  12.645  13.420   3.174  0.3249  0.1377 -0.0317
91965W        W35059  12.837  16.768   3.062 -0.0004  0.0074 -0.0513
91966W        W35060  12.467  15.966   2.503 -0.0557 -0.0287 -0.2828
91967W        W35061  13.858  17.394  30.588 -0.1404 -0.2984 -0.1168
91968W        W35062  11.738  16.724  31.651 -0.2001  0.3163 -0.0389
91969W        W35063  12.149  16.893   1.465 -0.1203 -0.1606 -0.0283
91970W        W35064  14.019  17.555  31.514 -0.0875  0.0830 -0.2196
91971W        W35065  13.602  17.190   1.308  0.3749 -0.2375  0.0082
91972W        W35066  13.367  15.639   0.196  0.3162  0.0463 -0.0894
91973W        W35067  10.544  16.252   3.699 -0.2114  0.2119  0.1999
91974W        W35068  14.272  16.466  31.863  0.3704  0.0090 -0.2162
91975W        W35069  13.500  16.313  31.601 -0.0083  0.1577  0.2457
91976W        W35070  12.253  16.040   2.058  0.1277  0.0431  0.0305
91977W        W35071  12.784  13.080   2.434  0.4112 -0.3467  0.1990
91978W        W35072  14.173  16.139   1.710  0.0684 -0.1677  0.0566
91979W        W35073  13.379  15.106   1.672 -0.1089 -0.1580  0.1452
91980W        W35074  13.148  16.475   1.654 -0.1084 -0.1171  0.0538
91981W        W35075  13.125  15.828   3.185 -0.2289 -0.0221  0.1195
91982W        W35076  12.173  15.463   1.123  0.1291 -0.1396 -0.0938
91983W        W35077  11.807  15.108   1.668 -0.0091 -0.0163  0.0807
91984W        W35078  12.889  17.524   3.036  0.1027  0.4083 -0.1472
91985W        W35079  15.596  14.190  30.925  0.1706  0.0784 -0.0239
91986W        W35080  13.753  14.985   2.354  0.3953 -0.1522  0.2816
91987W        W35081  14.520  17.099   0.187  0.0041 -0.0330  0.1450
91988W        W35082  12.809  15.448  31.359 -0.0312  0.1934  0.3884
91989W        W35083  12.686  15.447   0.807 -0.1100  0.3935  0.1085
91990W        W35084  13.805  16.722   4.954 -0.1188  0.0814  0.2935
91991W        W35085  12.344  15.007  30.156 -0.0912  0.1715  0.0698
91992W        W35086  13.373  15.797   2.335 -0.0078  0.1328 -0.0649
91993W        W35087  12.451  18.421  30.180 -0.0748  0.0938  0.1678
91994W        W35088  13.738  16.851   0.857  0.1260  0.0980 -0.1568
91995W        W35089  12.428  16.591  31.902 -0.3159 -0.1888  0.1075
91996W        W35090  13.291  14.775   1.313  0.0914 -0.0779  0.0556
91997W        W35091  11.704  17.888   3.925 -0.1806 -0.0894  0.0151
91998W        W35092  12.046  16.719  30.151 -0.0611  0.1768 -0.0268
91999W        W35093  12.990  17.040  31.136  0.1104 -0.0487 -0.2685
92000W        W35094  13.476  16.813   2.334  0.0603  0.3203  0.1576
92001W        W35095  14.609  15.864   2.750 -0.0332  0.0765 -0.2386
92002W        W35096  11.979  16.630  31.057  0.0824  0.0329  0.1000
92003W        W35097  14.659  15.652   2.290  0.0285  0.3420  0.1461
92004W        W35098  11.512  16.360   0.226  0.0364 -0.0458  0.1443
92005W        W35099  13.705  14.454   1.145 -0.3180 -0.0046 -0.1741
92006W        W35100  11.972  17.598   1.234 -0.0245 -0.1668 -0.2965
92007W        W35101  11.089  16.866   2.538  0.1203 -0.0719 -0.1335
92008W        W35102  11.725  18.403   0.912 -0.1200 -0.2757  0.0869
92009W        W35103  13.311  16.110   1.315  0.3872  0.0356  0.1972
92010W        W35104  13.921  16.633   0.489  0.0435 -0.5362  0.1802
92011W        W35105  12.774  17.168   3.352 -0.0627 -0.0498  0.2888
92012W        W35106  14.219  15.551   2.433 -0.0853 -0.4127 -0.4265
92013W        W35107  12.400  17.448   2.149  0.2147  0.0172  0.0428
92014W        W35108  12.203  16.046   1.540 -0.2233 -0.3759 -0.1422
92015W        W35109  13.555  16.998   2.818 -0.0601  0.0892 -0.2157
92016W        W35110  15.078  18.109  31.923 -0.2580  0.1778 -0.2104
92017W        W35111  10.645  17.110   1.553 -0.1654 -0.5942  0.1776
92018W        W35112  10.457  13.904   2.498  0.0627 -0.0986  0.4732
92019W        W35113  12.531  14.823   2.437  0.0617 -0.0226  0.0655
92020W        W35114  14.300  16.300   1.252 -0.2113 -0.2514  0.0483
92021W        W35115  12.913  14.145   1.488 -0.0582 -0.3038  0.3529
92022W        W35116  12.194  18.867  29.449 -0.3112 -0.0044 -0.0728
92023W        W35117  10.873  17.295   3.686  0.2353 -0.2030  0.0739
92024W        W35118  10.779  17.583   3.293  0.1287  0.0044 -0.0164
92025W        W35119  12.074  19.120  31.843  0.0859 -0.2596  0.0768
92026W        W35120  14.078  17.944  30.654 -0.0015  0.1099  0.0287
92027W        W35121  14.068  17.068  31.446  0.2736 -0.1104 -0.0642
92028W        W35122  13.874  17.495   2.735  0.0626 -0.2009 -0.0302
92029W        W35123  12.743  16.187  31.745 -0.0358  0.1431 -0.1753
92030W        W35124  11.038  18.931   0.739 -0.0574  0.0495  0.0423
92031W        W35125  10.413  18.298   0.630 -0.2579 -0.1206 -0.0545
92032W        W35126  13.797  17.682  29.730 -0.1820 -0.0099  0.0190
92033W        W35127  13.195  17.757  30.119 -0.1601 -0.1686  0.2827
92034W        W35128  14.166  17.663   1.698  0.0252 -0.2688 -0.0102
92035W        W35129  13.800  15.289  31.474 -0.0574  0.0025 -0.0545
92036W        W35130  14.129  16.939  31.949  0.2465  0.0793  0.0186
92037W        W35131  15.066  16.974  30.255 -0.1000 -0.0462  0.1148
92038W        W35132  12.687  17.180   2.477  0.1911  0.0084  0.0059
92039W        W35133  12.762  17.011   0.724 -0.2762  0.0686 -0.3540
92040W        W35134  12.903  16.301  30.250 -0.1345 -0.0687  0.0235
92041W        W35135  12.216  16.440   2.320 -0.2323 -0.1637  0.3421
92042W        W35136  13.727  14.660   3.011  0.0463  0.2681  0.1756
92043W        W35137  12.128  17.405   1.649 -0.4087 -0.0576 -0.3029
92044W        W35138  11.857  17.864  30.548 -0.1771 -0.0831 -0.1745
92045W        W35139  11.476  16.759  31.266 -0.1821 -0.1386  0.3612
92046W        W35140  12.649  15.597   1.378 -0.4727  0.0072  0.0881
92047W        W35141  13.341  14.290   2.984  0.2512  0.2119 -0.0913
92048W        W35142  13.682  17.622  29.269  0.0863  0.4055 -0.1636
92049W        W35143  14.002  15.775   0.627 -0.3992 -0.3141 -0.0176
92050W        W35144  12.381  17.756  31.481 -0.0211  0.0428  0.2998
92051W        W35145  12.335  18.712   1.795  0.1627  0.1683  0.2582
92052W        W35146  11.332  17.750   1.342 -0.1728 -0.0588 -0.0111
92053W        W35147  11.074  16.573  31.534 -0.2114 -0.3852  0.0374
92054W        W35148  14.888  15.675   0.087 -0.0516 -0.4522 -0.1493
92055W        W35149  12.775  15.384   1.854 -0.2889 -0.2338  0.2621
92056W        W35150  13.576  14.518   2.528  0.1200 -0.2599  0.3210
92057W        W35151  11.820  15.916   1.055  0.1554 -0.0035 -0.1856
92058W        W35152  14.994  15.186   0.195  0.0968  0.2172  0.1768
92059W        W35153  11.240  17.378   1.655 -0.0502  0.0640  0.4048
92060W        W35154  12.532  15.234  31.829 -0.0027  0.1662 -0.1630
92061W        W35155  13.204  16.677  30.310 -0.0157 -0.2828  0.0790
92062W        W35156  13.837  16.292   0.978  0.1709 -0.0972  0.0297
92063W        W35157  13.334  16.655  30.808 -0.2632 -0.3151  0.0960
92064W        W35158  14.325  16.584   2.389  0.0822 -0.1592  0.2864
92065W        W35159  10.378  16.053  31.932  0.0231 -0.0934  0.1037
92066W        W35160  14.036  15.673  31.588  0.1908 -0.1867 -0.4511
92067W        W35161  12.211  16.031   0.067 -0.1890  0.1679  0.0674
92068W        W35162  13.114  17.159   2.765 -0.1675 -0.1536 -0.0764
92069W        W35163  14.379  16.076   2.332  0.0265  0.0156  0.0434
92070W        W35164  12.093  14.482  31.488 -0.0066  0.1402  0.0195
92071W        W35165  14.174  17.824  30.137  0.0807  0.0133 -0.0874
92072W        W35166  13.887  15.922   1.410  0.2931  0.0372 -0.1626
92073W        W35167  12.073  18.316  30.583 -0.2074  0.1158 -0.1075
92074W        W35168  13.969  16.204  31.540 -0.2382  0.0036 -0.0216
92075W        W35169  13.846  18.357   0.532  0.2304  0.2638 -0.3072
92076W        W35170  12.666  16.153   0.322 -0.0098  0.1346 -0.1297
92077W        W35171  15.036  17.823  31.488  0.0744  0.0790  0.0857
92078W        W35172  14.957  17.362   0.458 -0.0607  0.0476 -0.0689
92079W        W35173  12.524  15.010   0.945  0.0319 -0.1927  0.4248
92080W        W35174  11.760  16.687   0.709  0.1206  0.1014  0.1187
92081W        W35175  12.644  17.733  31.022 -0.3287 -0.3923 -0.4452
92082W        W35176  13.704  15.434   1.373  0.3135 -0.0633 -0.1432
92083W        W35177  13.390  13.738   3.174  0.0786 -0.2017 -0.3358
92084W        W35178  12.196  17.975  31.035  0.0317  0.1272  0.0207
92085W        W35179  13.351  13.272   3.880  0.0942  0.0825  0.0770
92086W        W35180  11.389  17.444   0.951  0.0241  0.2977 -0.0974
92087W        W35181  12.655  18.316   2.621 -0.0376  0.2851 -0.2246
92088W        W35182  12.833  16.397  31.315 -0.4186 -0.3108  0.2294
92089W        W35183  12.377  14.990   1.921  0.1861 -0.0686  0.0229
92090W        W35184  12.376  17.331   0.985  0.1334 -0.1172  0.1441
92091W        W35185  12.817  17.486  31.434 -0.0718 -0.0921 -0.1479
92092W        W35186  13.367  18.088   0.341  0.1416  0.1346 -0.0711
92093W        W35187  13.218  15.292   0.693 -0.0021  0.0666  0.0505
92094W        W35188  12.305  17.842  31.970 -0.0722  0.0024  0.3184
92095W        W35189  12.844  16.203   0.867 -0.2810  0.1502  0.0113
92096W        W35190  14.304  14.581   0.352  0.0470 -0.1285 -0.1072
92097W        W35191  12.059  15.386  31.952 -0.3012 -0.0100 -0.0166
92098W        W35192  12.444  15.128   1.403  0.0483 -0.0375 -0.1111
92099W        W35193  11.754  15.847  31.876  0.1256  0.0375 -0.2942
92100W        W35194  10.653  16.633   0.589 -0.0337  0.0828 -0.1008
92101W        W35195  12.293  15.541   1.814  0.1864  0.0539  0.0603
92102W        W35196  13.174  13.113   3.324 -0.2400  0.0358  0.1532
92103W        W35197  11.222  14.628   2.524  0.1227  0.0480 -0.1799
92104W        W35198  10.729  17.126   2.762 -0.1063 -0.1080  0.0580
92105W        W35199  11.797  16.254  31.312  0.0271 -0.0122  0.3011
92106W        W35200  14.845  18.602  30.297 -0.2227 -0.0570 -0.0871
92107W        W35201  12.012  14.592  30.965  0.0124  0.3730 -0.0436
92108W        W35202  11.753  15.909   0.435  0.1765  0.0058  0.1348
92109W        W35203  15.181  17.307  30.991 -0.0202  0.1004  0.1056
92110W        W35204  13.659  18.055  31.396  0.0434  0.0210  0.1682
92111W        W35205  12.495  15.886   1.033 -0.1739 -0.0293  0.4287
92112W        W35206  13.648  18.138   2.033 -0.0345  0.2523 -0.2870
92113W        W35207  12.575  19.112   0.248  0.4950 -0.2415  0.0392
92114W        W35208  12.316  15.528   2.870  0.0556 -0.1783 -0.2004
92115W        W35209  13.443  14.498   3.409  0.1814  0.1332  0.0522
92116W        W35210  10.234  15.836  30.317  0.0485  0.2099  0.0047
92117W        W35211  13.805  14.947   1.409  0.4600 -0.3178  0.3752
92118W        W35212  14.257  18.094  31.100  0.0435 -0.1309 -0.1485
92119W        W35213  12.925  17.987  29.071  0.2643  0.3138 -0.1223
92120W        W35214  12.595  17.526   1.438 -0.1787 -0.1673  0.0812
92121W        W35215  12.133  16.924   2.461  0.4540  0.0487  0.0397
92122W        W35216  11.431  15.053   0.694  0.5148 -0.1482  0.0939
92123W        W35217  14.718  18.362  31.206 -0.1136  0.3074  0.1653
92124W        W35218  11.229  16.485   1.194  0.1529 -0.1817 -0.1030
92125W        W35219  15.544  16.715  30.142  0.4878  0.0418  0.1203
92126W        W35220  13.729  13.111   2.528 -0.3718 -0.1882  0.0210
92127W        W35221  13.681  16.968   0.267 -0.1049 -0.4418  0.2438
92128W        W35222  12.316  13.275   2.802 -0.0887  0.1668  0.0585
92129W        W35223  11.186  16.460   2.134 -0.0757 -0.2238 -0.2762
92130W        W35224  13.195  17.116   0.045 -0.0569  0.2722 -0.1769
92131W        W35225  12.032  14.110   0.458  0.3471 -0.0559 -0.1086
92132W        W35226  14.658  14.898   0.493  0.0595 -0.1973  0.2262
92133W        W35227  13.730  17.592  31.071  0.1077 -0.0752  0.0204
92134W        W35228  12.472  16.466   0.672 -0.3602 -0.1656 -0.0629
92135W        W35229  11.246  17.113  30.942 -0.2734  0.1158  0.0081
92136W        W35230  13.728  15.492   2.500  0.0448  0.2357 -0.3375
92137W        W35231  12.855  18.081  30.320 -0.1196  0.0926  0.0208
92138W        W35232  13.894  16.306   3.160 -0.1393  0.1527  0.0204
92139W        W35233  13.299  16.708  31.312  0.1719  0.1350 -0.3495
92140W        W35234  14.366  18.001  29.658  0.0155  0.0749  0.0085
92141W        W35235  13.060  16.596   2.118 -0.1442  0.1366 -0.0311
92142W        W35236  15.924  19.437   2.870  0.0615 -0.1666 -0.3514
92143W        W35237  11.899  17.230   0.654  0.1645 -0.1610  0.1618
92144W        W35238  14.468  16.691   0.497  0.3020  0.1781  0.0431
92145W        W35239  11.819  15.677   1.518  0.0173  0.0442  0.0511
92146W        W35240  11.412  17.173   0.501 -0.0033 -0.0104  0.0707
92147W        W35241  12.092  16.341   0.964  0.1418  0.2307  0.0125
92148W        W35242  14.450  15.717   0.417  0.0144  0.1461  0.0129
92149W        W35243  13.253  14.531   0.860  0.2239  0.3148 -0.1640
92150W        W35244  13.772  15.432   0.875  0.1299  0.4380  0.0763
92151W        W35245  11.786  19.434   2.791 -0.2233 -0.0827 -0.3158
92152W        W35246  14.059  15.929   2.785 -0.1148 -0.1166 -0.1595
92153W        W35247  11.741  17.687   6.194  0.2611  0.3104 -0.1260
92154W        W35248  12.171  16.046   3.959 -0.1823  0.1502  0.1098
92155W        W35249  13.601  15.043   3.266  0.1518 -0.3042 -0.0554
92156W        W35250  13.219  15.865   4.811 -0.0535  0.2354  0.0632
92157W        W35251   9.832  13.951   3.478 -0.0507 -0.0561  0.1763
92158W        W35252  14.286  15.505   3.016 -0.0916 -0.3059 -0.0872
92159W        W35253  10.824  13.606   5.249 -0.1178  0.2081 -0.0869
92160W        W35254  11.673  15.832   5.872  0.1372  0.0878 -0.3371
92161W        W35255  14.027  16.751   5.621  0.0734 -0.1751 -0.2127
92162W        W35256  12.914  16.472   3.422  0.1123  0.0019 -0.5293
92163W        W35257  11.501  16.030   3.658  0.1431  0.0524  0.0213
92164W        W35258  12.636  17.254   5.283  0.1383  0.1541 -0.1712
92165W        W35259  12.546  13.844   3.464  0.1018 -0.2491 -0.1333
92166W        W35260  11.241  14.045   4.488  0.1938 -0.0874 -0.0465
92167W        W35261  13.927  15.366   5.459 -0.0812 -0.0839 -0.2625
92168W        W35262  11.831  16.974   3.685  0.3488 -0.0443 -0.0245
92169W        W35263  12.641  16.468   5.287 -0.0649 -0.1185  0.0046
92170W        W35264  12.333  15.045   4.966 -0.1277 -0.1234 -0.0564
92171W        W35265  15.249  16.530   3.259  0.3304 -0.0489 -0.0353
92172W        W35266  11.053  15.811   6.447 -0.1821  0.2706  0.1258
92173W        W35267  12.732  14.193   7.991 -0.0198 -0.1628 -0.1754
92174W        W35268  13.229  17.796   3.376 -0.4546  0.0590 -0.2373
92175W        W35269  11.801  14.948   3.189  0.1851  0.0260 -0.3279
92176W        W35270  10.674  16.710   5.559  0.0269 -0.1726  0.3251
92177W        W35271  11.563  16.425   5.152  0.1285  0.1085 -0.2115
92178W        W35272  13.651  14.642   4.882 -0.0074 -0.2876  0.3260
92179W        W35273  13.378  16.607   4.205  0.4492  0.0362 -0.1234
92180W        W35274  13.075  19.614   4.666 -0.1202  0.0546  0.1880
92181W        W35275  13.330  18.310   4.836  0.1378  0.1020  0.0020
92182W        W35276  14.116  15.250   6.398 -0.3056 -0.1674 -0.0981
92183W        W35277   9.887  16.863   4.817 -0.3196 -0.3055 -0.0785
92184W        W35278  10.074  17.344   3.150  0.0388 -0.0053 -0.4263
92185W        W35279  12.003  17.675   3.537 -0.1545 -0.2480  0.0554
92186W        W35280  13.471  17.140   4.105  0.2061 -0.1182 -0.0790
92187W        W35281  12.475  16.715   6.682  0.2204  0.0392  0.0708
92188W        W35282  11.498  17.666   7.227 -0.4007 -0.0031 -0.0006
92189W        W35283  11.946  18.196   2.144  0.0737 -0.2395  0.0081
92190W        W35284  12.595  16.860   6.229  0.0628 -0.1261  0.1036
92191W        W35285  13.125  16.461   5.514 -0.4903  0.1392  0.1366
92192W        W35286  12.374  15.241   7.156 -0.0801  0.0768 -0.1539
92193W        W35287  14.502  16.164   4.618  0.0417 -0.0743  0.0193
92194W        W35288  11.247  16.931   3.646  0.1447  0.3971 -0.3299
92195W        W35289  12.634  16.073   4.585 -0.0448 -0.2874  0.4807
92196W        W35290  11.091  17.253   6.439 -0.0776  0.1341 -0.0244
92197W        W35291  11.380  16.608   4.734 -0.1848  0.0900 -0.0429
92198W        W35292  14.688  14.368   5.577  0.1419 -0.0577 -0.1402
92199W        W35293  12.490  18.709   3.603 -0.3494 -0.1735  0.0538
92200W        W35294  14.223  15.604   1.905  0.3102 -0.0954 -0.1530
92201W        W35295  12.133  14.770   3.548  0.0218 -0.1636  0.2445
92202W        W35296  12.828  15.720   2.256 -0.2158  0.1175  0.1386
92203W        W35297  11.729  15.569   4.340 -0.0590 -0.0029 -0.1301
92204W        W35298  11.750  17.551   4.465 -0.1806 -0.0151  0.0800
92205W        W35299  11.402  15.508   6.254 -0.0845  0.2504  0.3332
92206W        W35300  13.104  16.290   3.907 -0.3134 -0.0245  0.3567
92207W        W35301  13.117  16.775   3.737  0.2221 -0.3007  0.1526
92208W        W35302  13.188  14.580   5.687  0.1423  0.0542  0.0280
92209W        W35303  12.362  17.090   5.762  0.0763 -0.0490 -0.3830
92210W        W35304  11.186  16.366   3.432  0.2023 -0.0272 -0.2456
92211W        W35305  13.995  18.302   2.807  0.2288 -0.1036 -0.3866
92212W        W35306  14.927  17.895   3.119 -0.0598 -0.0528 -0.1786
92213W        W35307  12.895  17.087   4.102  0.0137 -0.2086 -0.0074
92214W        W35308  10.097  15.557   3.438 -0.2059 -0.0100  0.2820
92215W        W35309  10.257  16.399   6.355 -0.2843 -0.3665  0.0346
92216W        W35310  10.511  15.592   6.101 -0.1746  0.0610  0.0115
92217W        W35311  12.027  13.324   2.378  0.2299 -0.3499  0.2673
92218W        W35312  15.570  16.130   5.995  0.2367  0.0006  0.1792
92219W        W35313  10.196  17.118   6.164 -0.1492  0.1431  0.0330
92220W        W35314  14.128  15.617   5.860 -0.0229 -0.0046  0.0423
92221W        W35315  11.739  15.669   4.992  0.1526 -0.0129 -0.2374
92222W        W35316  13.781  17.688   4.604  0.0264 -0.1733  0.0196
92223W        W35317  13.391  16.259   2.324  0.0892 -0.2148 -0.3125
92224W        W35318  13.172  14.722   5.100 -0.4656 -0.1303  0.2156
92225W        W35319  13.491  15.067   5.746 -0.0576 -0.2776 -0.0581
92226W        W35320  11.841  16.470   2.945  0.2377  0.0707  0.1529
92227W        W35321  14.150  16.773   3.748 -0.1213  0.1465  0.0645
92228W        W35322  15.572  18.644   6.077 -0.0102 -0.0574  0.1402
92229W        W35323  14.982  16.139   2.892 -0.2321 -0.0805  0.0131
92230W        W35324  11.935  17.894   5.595  0.0404 -0.0119 -0.2169
92231W        W35325  12.777  15.198   6.428  0.0578 -0.1458 -0.0967
92232W        W35326  13.663  16.923   6.458 -0.2718  0.4513 -0.0621
92233W        W35327  12.542  17.692   2.727  0.0026  0.2551 -0.1221
92234W        W35328  10.163  16.387   4.251  0.0100 -0.0999 -0.0857
92235W        W35329  12.027  16.537   3.847 -0.3364  0.1533  0.0505
92236W        W35330  10.980  14.950   6.597 -0.0197  0.1195 -0.2447
92237W        W35331  12.496  18.683   5.394  0.3689 -0.1220 -0.2503
92238W        W35332  13.482  15.515   3.422 -0.0359 -0.0134  0.2979
92239W        W35333  11.821  14.837   5.082 -0.0810  0.2930 -0.1080
92240W        W35334  13.580  15.983   2.769  0.1204  0.0783 -0.0362
92241W        W35335  10.628  16.513   4.177 -0.2292 -0.0666  0.1026
92242W        W35336  14.257  17.529   4.616 -0.1462 -0.2574  0.2129
92243W        W35337  12.820  15.621   2.806 -0.2468 -0.0745  0.3276
92244W        W35338  13.959  16.282   3.651  0.2198 -0.0768  0.3893
92245W        W35339  10.428  14.684   5.588  0.2269  0.0174 -0.3277
92246W        W35340  12.074  15.593   2.352  0.1686  0.0807 -0.0953
92247W        W35341  11.555  14.091   5.387  0.1025 -0.0142  0.1401
92248W        W35342  11.288  16.246   6.204  0.3261  0.1534 -0.1197
92249W        W35343  11.339  16.113   5.471  0.0340 -0.3834  0.2183
92250W        W35344  10.171  13.999   4.799  0.0405 -0.0540 -0.0100
92251W        W35345  13.935  15.153   5.008  0.3412 -0.1558 -0.1316
92252W        W35346  11.247  16.077   4.992 -0.0308  0.0718 -0.0818
92253W        W35347   9.272  17.049   4.196  0.0618  0.0248 -0.0518
92254W        W35348  13.416  14.575   6.318  0.0586  0.1957  0.1638
92255W        W35349  13.041  18.250   3.383  0.2867 -0.1059 -0.2319
92256W        W35350  14.161  16.885   6.528 -0.1386 -0.3517  0.2539
92257W        W35351  15.200  17.450   4.346 -0.0183 -0.3605  0.0753
92258W        W35352  12.020  14.970   6.289  0.0423  0.1819  0.1365
92259W        W35353  12.098  15.025   2.346 -0.0701  0.1614  0.0801
92260W        W35354  11.124  18.782   5.764  0.4151 -0.1631 -0.1852
92261W        W35355  13.158  18.774   7.031 -0.1640 -0.0278  0.0576
92262W        W35356  10.852  14.803   3.942  0.1202 -0.0236  0.1022
92263W        W35357  13.748  18.751   4.510 -0.2338 -0.0928 -0.1408
92264W        W35358  13.453  18.062   4.394  0.1198  0.1287 -0.0425
92265W        W35359  12.666  17.922   5.983  0.0692 -0.1716 -0.2645
92266W        W35360  14.369  13.997   5.785 -0.1031 -0.1222  0.1452
92267W        W35361  12.787  16.002   6.256 -0.1951 -0.3599  0.1018
92268W        W35362  13.890  16.316   5.476 -0.0293 -0.2503  0.1954
92269W        W35363  11.189  14.863   3.018  0.0727  0.0162  0.1387
92270W        W35364  13.042  17.886   4.671 -0.2129 -0.2429 -0.1637
92271W        W35365  10.640  18.281   5.465  0.0971  0.0639  0.1938
92272W        W35366  11.817  15.128   3.725 -0.0912  0.0605 -0.0946
92273W        W35367  11.091  16.823   4.170 -0.1038 -0.0066  0.0699
92274W        W35368  13.839  15.256   3.753  0.1103  0.1262 -0.1916
92275W        W35369   9.508  16.476   7.762  0.0458 -0.0514  0.2032
92276W        W35370  13.976  14.660   6.574  0.0991 -0.2402 -0.1266
92277W        W35371  11.718  14.956   2.123  0.1502  0.0614 -0.2810
92278W        W35372  12.019  17.457   6.570 -0.1142  0.1802 -0.0714
92279W        W35373  12.807  14.622   4.760  0.0211 -0.4373 -0.0662
92280W        W35374  12.818  15.952   3.544 -0.1957  0.1934 -0.0366
92281W        W35375  12.350  16.066   5.971 -0.0859 -0.0136 -0.0393
92282W        W35376  14.228  17.069   4.777  0.1938 -0.1722 -0.2488
92283W        W35377  13.302  15.772   3.964 -0.1041 -0.1145 -0.0908
92284W        W35378  12.713  14.886   3.548  0.0825  0.1286  0.0481
92285W        W35379   9.159  17.410   6.767  0.0964 -0.3998  0.0833
92286W        W35380  13.567  16.536   3.521  0.2012  0.1186 -0.0555
92287W        W35381  13.290  16.695   4.739 -0.1093  0.2396 -0.5109
92288W        W35382  13.050  15.441   3.714 -0.0741 -0.2197 -0.3092
92289W        W35383  14.980  16.938   1.787  0.0140 -0.3251  0.1651
92290W        W35384  10.452  17.151   5.749  0.1195 -0.2235 -0.0470
92291W        W35385  13.771  16.967   6.946  0.0118 -0.1627 -0.2738
92292W        W35386  14.213  16.356   4.105 -0.0172  0.1010 -0.0189
92293W        W35387  12.829  15.258   5.874  0.1934 -0.2229 -0.2850
92294W        W35388  11.934  15.200   2.791  0.0197  0.0640 -0.0621
92295W        W35389  12.155  16.032   4.990  0.2431 -0.1349  0.0313
92296W        W35390  11.819  19.183   3.814  0.0453 -0.0413 -0.0862
92297W        W35391  13.880  15.637   4.760 -0.0493  0.1549 -0.1508
92298W        W35392  12.511  15.257   5.474 -0.2717  0.2556 -0.0302
92299W        W35393  12.135  13.835   5.767 -0.2733 -0.1383 -0.1234
92300W        W35394  13.752  16.897   5.978 -0.0246  0.2411 -0.0853
92301W        W35395  12.456  16.321   3.556  0.2675  0.0820  0.1470
92302W        W35396  11.529  15.444   5.592  0.0233  0.1595  0.2591
92303W        W35397  12.902  15.034   1.480 -0.0802 -0.0636  0.0978
92304W        W35398  12.984  14.400   6.144  0.1481 -0.0072 -0.0612
92305W        W35399  11.195  16.718   6.486  0.1246  0.1954  0.0208
92306W        W35400  11.515  17.510   5.579 -0.1756  0.0600  0.0725
92307W        W35401  12.525  17.478   4.861 -0.0729  0.0546 -0.0769
92308W        W35402  12.000  17.358   4.034 -0.0620 -0.3789 -0.3002
92309W        W35403  14.117  13.627   7.311 -0.1579 -0.2004 -0.0427
92310W        W35404  10.897  15.201   4.834  0.0018  0.1009 -0.0736
92311W        W35405  12.427  17.393   4.377  0.0594 -0.0259 -0.0994
92312W        W35406  11.899  18.427   3.114 -0.1231  0.3919  0.2243
92313W        W35407  12.018  14.369   5.268  0.2808 -0.2334 -0.1896
92314W        W35408  11.948  17.291   5.504  0.3362  0.1766  0.0083
92315W        W35409  13.946  17.171   1.675  0.3046 -0.0607 -0.2063
92316W        W35410  12.765  15.697   5.722  0.1549 -0.1611 -0.3169
92317W        W35411  12.087  17.694   2.950  0.0655 -0.1943 -0.1986
92318W        W35412  13.821  14.866   4.074 -0.3037  0.0962  0.1667
92319W        W35413  10.085  18.393   3.418  0.0147 -0.0032 -0.2941
92320W        W35414  12.839  16.155   1.414 -0.2488 -0.3768 -0.0276
92321W        W35415  12.360  17.295   2.949 -0.1777 -0.0808  0.0507
92322W        W35416  14.479  15.140   4.917  0.0302 -0.0931 -0.0023
92323W        W35417  14.651  16.649   2.827 -0.0259 -0.2362  0.1068
92324W        W35418  11.736  17.019   4.710  0.3071  0.1017  0.3067
92325W        W35419  11.405  16.574   5.763 -0.3896 -0.1508 -0.2304
92326W        W35420  10.637  17.506   5.063  0.0766 -0.3256 -0.2423
92327W        W35421  12.365  15.295   6.155  0.0120  0.0779  0.1407
92328W        W35422  13.113  13.371   2.872 -0.0287 -0.0150  0.1315
92329W        W35423  14.251  18.606   5.652  0.0069 -0.2387  0.1655
92330W        W35424  11.464  15.916   6.935 -0.2844 -0.2432 -0.1068
92331W        W35425  10.849  14.124   3.652 -0.1109  0.0191 -0.1469
92332W        W35426  13.321  16.944   5.689 -0.4418  0.3642  0.0546
92333W        W35427  11.031  15.833   4.577 -0.0377 -0.0770  0.4734
92334W        W35428  12.068  17.860   4.697  0.3270 -0.1383 -0.2388
92335W        W35429  11.939  18.882   4.418 -0.0889  0.0723  0.3214
92336W        W35430  11.497  15.391   2.936  0.0162  0.0182  0.3887
92337W        W35431  10.954  16.316   5.751 -0.0332  0.2407  0.3153
92338W        W35432  12.208  14.627   5.926 -0.1196 -0.1541  0.0213
92339W        W35433  14.454  15.213   6.033  0.1363 -0.1153 -0.4509
92340W        W35434  11.526  16.541   3.798  0.4082 -0.2625  0.1211
92341W        W35435  11.446  15.155   3.445  0.0172 -0.0722  0.3086
92342W        W35436  12.316  15.274   6.632 -0.3529 -0.5154 -0.1117
92343W        W35437  12.131  18.720   5.015  0.1455 -0.1147 -0.1726
92344W        W35438  13.556  15.724   5.121 -0.2109  0.0582 -0.1064
92345W        W35439  10.549  16.451   6.821  0.2292 -0.2139 -0.1651
92346W        W35440  11.834  15.905   5.428  0.3192  0.1483  0.1848
92347W        W35441  14.997  16.904   3.539 -0.1150 -0.1772  0.0333
92348W        W35442  13.635  15.531   6.001  0.1823 -0.0221 -0.0830
92349W        W35443  11.510  16.682   3.298  0.2469 -0.1608  0.0591
92350W        W35444  11.108  16.562   5.362 -0.0866  0.2709  0.0378
92351W        W35445  12.546  16.524   4.823  0.0252  0.1128 -0.0245
92352W        W35446  13.233  13.939   5.582 -0.2169 -0.0452  0.2056
92353W        W35447  11.699  18.147   5.928  0.1285 -0.3552  0.2847
92354W        W35448  12.223  17.196   3.429  0.1772  0.1811  0.0034
92355W        W35449  11.292  16.963   5.080  0.0794 -0.1799  0.3296
92356W        W35450  13.161  15.238   3.164  0.1252  0.0442  0.2899
92357W        W35451  13.602  16.159   4.056  0.1021 -0.1457  0.0614
92358W        W35452  12.139  15.132   5.738 -0.0217  0.1480  0.2043
92359W        W35453  14.291  15.564   5.105 -0.3392  0.4357  0.2173
92360W        W35454  14.889  16.063   4.078  0.2575 -0.1980  0.3259
92361W        W35455  15.107  13.784   6.973  0.1292 -0.1918  0.1942
92362W        W35456  10.477  14.346   4.542 -0.2095 -0.1451 -0.2108
92363W        W35457  12.804  17.714   5.485 -0.1531  0.1747 -0.0125
92364W        W35458  11.677  14.955   5.759  0.0375  0.3287 -0.2239
92365W        W35459  13.361  18.005   7.572 -0.0346  0.3117 -0.0165
92366W        W35460  11.013  16.234   6.651 -0.0808  0.0114  0.0272
92367W        W35461  12.696  15.594   4.803 -0.0463 -0.1987 -0.1011
92368W        W35462  11.969  14.186   3.587 -0.2406  0.2958 -0.3119
92369W        W35463  10.570  15.660   4.664  0.0159 -0.3969  0.2014
92370W        W35464  14.586  16.713   4.307 -0.0680  0.1574 -0.0492
92371W        W35465  12.052  17.031   4.358  0.3871 -0.0178  0.2643
92372W        W35466  13.301  15.342   4.763 -0.1945 -0.0842  0.0969
92373W        W35467  11.781  16.923   5.165 -0.0998  0.4657  0.4330
92374W        W35468  12.618  16.526   3.979  0.1141 -0.2246  0.2083
92375W        W35469  12.615  17.396   3.792 -0.3480  0.0348  0.0869
92376W        W35470  11.510  16.159   3.162 -0.1951 -0.0321  0.0245
92377W        W35471  11.310  14.300   5.958 -0.2056 -0.2226  0.1216
92378W        W35472  12.852  16.652   4.409 -0.0988 -0.1017  0.0958
92379W        W35473  13.421  15.189   5.244 -0.2700 -0.0714  0.1147
92380W        W35474  14.176  14.891   5.356  0.0053 -0.2340  0.0697
92381W        W35475  12.998  14.759   6.597  0.1666 -0.0541 -0.1873
92382W        W35476  10.637  15.013   5.216  0.1526  0.1158 -0.2722
92383W        W35477  11.472  14.162   6.412 -0.2568  0.1981  0.2815
92384W        W35478  14.703  17.856   6.120 -0.0226  0.2565  0.1499
92385W        W35479  14.168  14.596   3.128  0.1046 -0.0020  0.2620
92386W        W35480  14.475  14.793   5.749  0.2488  0.1297  0.1722
92387W        W35481  13.867  15.775   3.911 -0.3071  0.1526  0.2183
92388W        W35482  13.068  16.052   2.728  0.1256 -0.3150 -0.2653
92389W        W35483  10.816  15.389   6.490  0.1079  0.1141  0.2757
92390W        W35484  12.667  15.654   6.650  0.0921 -0.2081  0.2334
92391W        W35485  12.297  14.988   3.121  0.0104  0.1908  0.0296
92392W        W35486  14.487  13.940   6.266 -0.2454 -0.1730  0.0794
92393W        W35487  12.456  17.625   3.330 -0.0722  0.1772 -0.0419
92394W        W35488  13.423  17.691   4.981 -0.3571  0.0231  0.1628
92395W        W35489  12.739  16.031   4.104  0.0498  0.0618  0.1239
92396W        W35490  11.053  15.509   5.336 -0.2161 -0.1358 -0.1805
92397W        W35491  10.666  18.119   6.447 -0.0145 -0.2204  0.1725
92398W        W35492  11.591  15.496   2.449  0.1452  0.0841  0.2182
92399W        W35493  12.705  16.165   3.062 -0.0474 -0.1324  0.2384
92400W        W35494  12.928  16.419   5.959  0.1186 -0.2407 -0.1017
92401W        W35495  14.968  15.208   5.694 -0.0976  0.3980  0.0735
92402W        W35496  12.677  14.147   4.636 -0.0480 -0.0550  0.0386
92403W        W35497  14.012  15.072   5.804  0.2655  0.1848  0.1209
92404W        W35498  11.277  17.320   4.541  0.0834  0.2659 -0.4248
92405W        W35499  12.896  15.470   5.249 -0.0926 -0.1142  0.1301
92406W        W35500  11.861  19.741   5.463  0.2125 -0.0568 -0.0718
92407W        W35501  11.182  17.486   5.007 -0.0669  0.0509  0.0265
92408W        W35502  12.008  16.513   4.831 -0.0897 -0.0679 -0.1314
92409W        W35503  13.141  14.959   6.083  0.0495  0.1092 -0.0969
92410W        W35504  13.523  16.020   3.566 -0.0827 -0.1891  0.1806
92411W        W35505  11.429  15.225   5.168  0.1706  0.2056 -0.4618
92412W        W35506  14.257  15.987   5.465  0.3624 -0.0875  0.0587
92413W        W35507  13.104  16.838   6.125  0.0640  0.0362 -0.0048
92414W        W35508  11.369  15.462   4.724 -0.0114 -0.0921  0.1595
92415W        W35509  13.362  17.975   5.417 -0.1467  0.1447 -0.0304
92416W        W35510  13.710  16.432   4.586  0.4096  0.0689 -0.1707
92417W        W35511  11.955  18.237   5.108  0.0642 -0.1190 -0.1085
92418W        W35512  10.288  15.095   5.823 -0.1648 -0.0593 -0.2194
92419W        W35513  11.881  17.181   6.050  0.0921 -0.0863  0.1761
92420W        W35514  12.408  18.263   4.863 -0.4792 -0.3910 -0.3866
92421W        W35515  11.383  14.887   3.867 -0.2622 -0.0556  0.0146
92422W        W35516  13.316  17.523   4.514  0.1207  0.1581  0.1056
92423W        W35517  10.471  17.604   7.347  0.1619 -0.2402 -0.1152
92424W        W35518  10.137  17.610   5.974  0.1145 -0.0130 -0.0554
92425W        W35519  11.251  18.737   4.778  0.2556 -0.0379  0.0209
92426W        W35520  13.817  17.875   4.086 -0.1664 -0.0581 -0.0287
92427W        W35521  13.393  17.303   3.297  0.0811 -0.0103  0.2147
92428W        W35522  14.671  18.010   3.579  0.2737 -0.2985  0.0969
92429W        W35523  12.098  15.195   4.191 -0.0618 -0.0088 -0.3786
92430W        W35524  12.119  17.273   5.025 -0.2256 -0.0898 -0.1435
92431W        W35525  11.310  17.426   3.417 -0.1793 -0.0190 -0.0658
92432W        W35526  14.541  17.140   2.491  0.0474 -0.2051  0.1401
92433W        W35527  11.432  17.820   4.810  0.0888 -0.1806 -0.1277
92434W        W35528  13.951  18.073   5.599 -0.0263 -0.1911 -0.0916
92435W        W35529  12.258  15.299   3.750 -0.2195  0.4827  0.0938
92436W        W35530  14.094  17.265   3.728 -0.1231 -0.1445 -0.1231
92437W        W35531  13.996  16.039   4.438  0.2792  0.3957  0.1063
92438W        W35532  14.331  19.009   6.312  0.0140  0.3376 -0.0887
92439W        W35533  12.266  16.485   4.387 -0.0280 -0.2186 -0.1723
92440W        W35534  12.384  14.221   3.223  0.5871 -0.0332 -0.2928
92441W        W35535  12.959  16.908   5.163  0.0552 -0.0725 -0.0046
92442W        W35536  13.252  13.581   6.895  0.3560 -0.4969 -0.0671
92443W        W35537  10.962  17.901   7.383 -0.1071 -0.2817 -0.0341
92444W        W35538  13.566  17.720   1.228  0.0247 -0.0605 -0.0703
92445W        W35539  10.394  15.400   1.375 -0.2277  0.0247 -0.1069
92446W        W35540  11.580  16.734   4.288  0.2691  0.0155 -0.0944
92447W        W35541  14.384  14.379   6.592 -0.1905  0.4115 -0.2861
92448W        W35542  12.365  17.007   3.984 -0.1690  0.2418 -0.0554
92449W        W35543  13.690  15.045   6.228 -0.0739  0.1324 -0.0269
92450W        W35544  13.837  17.403   4.202 -0.0765  0.1566  0.1169
92451W        W35545  11.920  18.703   5.971  0.1046 -0.0900 -0.2692
92452W        W35546  12.126  17.930   6.053 -0.0783 -0.1820  0.2346
92453W        W35547  11.155  13.853   3.953  0.2878 -0.0246  0.0201
92454W        W35548  13.818  16.701   4.137  0.1319 -0.1846 -0.1245
92455W        W35549  11.079  14.756   5.126 -0.0771 -0.0340  0.4408
92456W        W35550  15.290  15.555   4.565 -0.1097  0.0297 -0.0981
92457W        W35551  10.729  15.433   4.149 -0.0415  0.1334  0.1318
92458W        W35552  13.552  15.754   4.464 -0.3494  0.1698  0.0525
92459W        W35553  12.020  14.982   6.866 -0.0380 -0.2277  0.1058
92460W        W35554  10.071  15.944   6.125 -0.2913 -0.0264  0.5662
92461W        W35555  12.075  16.717   3.352  0.0524  0.2086 -0.1002
92462W        W35556  13.230  15.474   5.667 -0.1495  0.2061  0.0860
92463W        W35557  13.618  16.992   3.677 -0.3581  0.0539  0.1822
92464W        W35558  13.571  18.441   5.464  0.1528  0.3071 -0.1826
92465W        W35559  11.360  15.858   4.136 -0.0429  0.1019  0.0679
92466W        W35560  12.525  15.612   4.225 -0.1770 -0.4033  0.1825
92467W        W35561  10.792  16.752   3.746  0.2104 -0.0387  0.2243
92468W        W35562  11.840  16.333   5.820  0.2338  0.2937 -0.1469
92469W        W35563  13.120  17.677   5.990  0.1285 -0.1755 -0.0996
92470W        W35564   9.912  14.405   4.888  0.0854  0.2415  0.1674
92471W        W35565  14.291  16.865   1.896  0.0821  0.2281 -0.0897
92472W        W35566  14.241  13.962   3.806 -0.1551 -0.1468  0.1567
92473W        W35567  13.148  18.905   3.208 -0.0084  0.3211 -0.1672
92474W        W35568  14.178  16.604   4.551  0.1866  0.0126  0.0767
92475W        W35569  12.970  18.039   5.146 -0.1126  0.1515 -0.2242
92476W        W35570  10.686  15.828   5.638  0.0557 -0.4030  0.2641
92477W        W35571  13.017  18.194   5.693  0.0020  0.0434  0.1679
92478W        W35572  14.703  17.521   5.755  0.3519 -0.0527  0.2121
92479W        W35573  11.794  13.850   5.011  0.0113  0.0978 -0.3595
92480W        W35574  10.933  15.263   3.700 -0.3655 -0.1820 -0.1308
92481W        W35575  10.792  17.520   4.169 -0.1640  0.1810  0.1217
92482W        W35576  13.897  15.427   4.255  0.2233  0.0172  0.1369
92483W        W35577  13.938  13.513   5.571 -0.2250 -0.0851 -0.1865
92484W        W35578  14.230  17.830   2.745  0.3348 -0.1012 -0.0216
92485W        W35579  15.448  14.535   7.325  0.0832 -0.1474 -0.0798
92486W        W35580  13.266  16.395   7.502  0.1103 -0.0143  0.0629
92487W        W35581  12.612  18.371   6.293  0.3231 -0.0954 -0.2704
92488W        W35582  11.566  14.442   2.913 -0.1958  0.1824 -0.1413
92489W        W35583  13.453  15.026   7.213 -0.0184  0.0331  0.3766
92490W        W35584  11.781  15.231   4.744 -0.0913 -0.1281  0.1764
92491W        W35585  13.686  17.578   3.665 -0.2545 -0.1170 -0.0300
92492W        W35586  14.180  17.034   4.198  0.3814 -0.0602 -0.2686
92493W        W35587  11.956  15.259   5.258 -0.0500  0.3857 -0.3096
92494W        W35588  14.898  17.170   4.872 -0.2796  0.0303  0.0849
92495W        W35589  11.634  15.023   4.288  0.2644 -0.3185  0.2209
92496W        W35590  14.321  14.065   3.222 -0.0528  0.0862 -0.0593
92497W        W35591  14.637  13.758   3.463  0.0249  0.5280  0.2357
92498W        W35592  11.921  16.817   5.618 -0.1125 -0.0040 -0.0560
92499W        W35593  12.333  16.498   2.910  0.0992  0.1040 -0.2903
92500W        W35594  12.332  15.805   3.503  0.0684 -0.3400  0.0392
92501W        W35595  12.385  16.942   4.717  0.0127 -0.0883  0.0104
92502W        W35596  11.563  14.631   6.652 -0.2459 -0.0206 -0.0616
92503W        W35597  11.584  15.156   6.543  0.0494  0.1453 -0.1963
92504W        W35598  10.952  17.152   5.594 -0.3322  0.0576  0.0264
92505W        W35599  10.444  15.155   3.853 -0.2884 -0.0168  0.2454
92506W        W35600  12.986  15.705   4.381 -0.0360  0.1760 -0.1241
92507W        W35601  11.145  15.100   5.536  0.0065 -0.2101  0.1355
92508W        W35602  10.825  14.170   4.197  0.0795 -0.1125 -0.0381
92509W        W35603  12.841  18.417   4.741  0.0166 -0.0570  0.0005
92510W        W35604  13.884  17.304   3.253 -0.0124  0.0134  0.0700
92511W        W35605  12.141  15.957   4.456  0.1296 -0.1772  0.0761
92512W        W35606  13.226  17.466   5.548 -0.2207 -0.1693  0.1258
92513W        W35607  11.747  18.069   2.808  0.0307 -0.3047 -0.2733
92514W        W35608  13.228  16.002   5.399  0.1322  0.0192 -0.0012
92515W        W35609  12.695  14.745   5.785 -0.0426  0.1573  0.0670
92516W        W35610   9.462  14.311   3.613  0.1580 -0.1383  0.0922
92517W        W35611  12.737  15.983   5.170 -0.1749 -0.2038  0.0167
92518W        W35612  13.303  18.610   4.364  0.1553 -0.1812 -0.0333
92519W        W35613  13.172  18.126   2.502  0.1827 -0.2657  0.1693
92520W        W35614  11.655  15.898   6.386  0.0173  0.0517 -0.1937
92521W        W35615  12.439  16.471   7.961  0.0179  0.0526  0.1600
92522W        W35616  10.684  14.337   6.082  0.1484 -0.1262 -0.1593
92523W        W35617  13.357  17.201   5.044 -0.4250  0.2521 -0.2536
92524W        W35618  12.420  16.160   6.620 -0.0373  0.1950 -0.0289
92525W        W35619  16.236  15.950   2.896  0.2056 -0.3605  0.2316
92526W        W35620  14.147  14.737   4.794 -0.2328 -0.1937  0.2241
92527W        W35621  12.487  18.309   4.272 -0.0163 -0.3187  0.0624
92528W        W35622  11.842  13.614   5.436 -0.1874  0.1590  0.1193
92529W        W35623  11.171  18.275   5.751 -0.0635 -0.3505  0.0250
92530W        W35624  13.970  17.604   5.328 -0.0146  0.0032  0.1394
92531W        W35625  11.199  13.567   4.368  0.2591 -0.1583 -0.2351
92532W        W35626  13.256  16.229   4.443 -0.0284 -0.0314  0.0750
92533W        W35627  14.463  15.959   3.723  0.1532 -0.0876  0.2151
92534W        W35628  10.745  16.478   6.340  0.5804  0.3312  0.2141
92535W        W35629  11.133  15.127   4.296 -0.0292  0.2195 -0.2019
92536W        W35630  11.630  15.984   4.662 -0.2450 -0.4233  0.2471
92537W        W35631  12.916  17.149   4.643 -0.3092  0.0772 -0.0349
92538W        W35632  13.532  16.746   5.319  0.3275  0.2316 -0.0576
92539W        W35633  11.431  15.447   3.880 -0.0573 -0.1567  0.0466
92540W        W35634  14.834  15.527   4.150 -0.0805  0.1178 -0.1841
92541W        W35635  12.574  18.184   5.497 -0.3088  0.1721  0.2164
92542W        W35636  13.951  18.598   6.371  0.0178 -0.1058  0.1803
92543W        W35637  12.213  18.826   6.578 -0.3297  0.3154  0.2252
92544W        W35638  13.656  15.858   5.619 -0.0193  0.2462  0.0220
92545W        W35639  11.107  13.200   5.153  0.0395 -0.2149 -0.1416
92546W        W35640  11.887  15.693   3.827  0.1282 -0.2257  0.1404
92547W        W35641  11.819  16.291   4.257  0.0203 -0.0622 -0.2648
92548W        W35642  14.167  14.465   5.627  0.0304  0.0520 -0.0090
92549W        W35643  10.949  16.962   4.616  0.0851  0.3021 -0.1872
92550W        W35644  12.194  15.460   4.683  0.2128 -0.2263 -0.0749
92551W        W35645  12.371  18.414   5.858  0.0299 -0.0790 -0.0926
92552W        W35646  12.033  16.433   5.354  0.2481 -0.0044  0.0198
92553W        W35647  13.355  17.419   9.377  0.1994 -0.0920 -0.1260
92554W        W35648  12.024  15.543   7.817  0.0521  0.1608 -0.1783
92555W        W35649  13.619  15.496   6.521  0.0532  0.2308 -0.0613
92556W        W35650  13.059  17.752   7.122  0.1228  0.0516  0.1056
92557W        W35651  12.168  16.382   7.527 -0.1357 -0.3250  0.0003
92558W        W35652  13.685  17.272   8.942 -0.1007 -0.1600 -0.2115
92559W        W35653  15.430  16.404   9.447  0.3147 -0.0593  0.0774
92560W        W35654  14.947  17.539   9.745  0.0534 -0.0775  0.3838
92561W        W35655  13.044  14.776   7.053  0.0616  0.0793 -0.1087
92562W        W35656  13.229  14.367   9.217  0.2891  0.0028 -0.2243
92563W        W35657  11.923  15.095   7.491  0.2094 -0.1228 -0.1175
92564W        W35658  10.673  13.409   9.457  0.1232  0.0125 -0.1414
92565W        W35659  15.212  16.844   8.271 -0.0710  0.3395 -0.0464
92566W        W35660  11.297  14.571   7.671  0.2593 -0.2757  0.2353
92567W        W35661  13.294  15.841   9.044  0.2306  0.1461  0.2004
92568W        W35662  13.515  14.643   6.854 -0.1140  0.0207  0.1100
92569W        W35663  12.557  17.540   8.950 -0.0063  0.1630 -0.0606
92570W        W35664  13.951  14.829   9.695  0.2291  0.1577 -0.1501
92571W        W35665  13.653  17.247   5.401 -0.0105  0.0905 -0.4457
92572W        W35666  10.963  16.792   6.944 -0.2920 -0.1503  0.2361
92573W        W35667  11.425  16.247   7.595  0.0014  0.0401  0.3043
92574W        W35668   9.486  14.531   9.383  0.1224  0.1988  0.2196
92575W        W35669  14.535  16.320   8.422  0.0258 -0.1057 -0.2498
92576W        W35670  13.600  15.586   7.039  0.1619  0.0735  0.1568
92577W        W35671  12.029  20.262   9.296  0.0365  0.0513  0.0492
92578W        W35672  13.902  17.239   7.677 -0.1484  0.1061 -0.0397
92579W        W35673  11.686  16.987   7.970 -0.0106  0.0659 -0.0481
92580W        W35674  12.266  17.800   8.138 -0.2897  0.0056 -0.0258
92581W        W35675  13.262  17.257   6.852  0.1903 -0.0090  0.0825
92582W        W35676  15.267  17.502   8.191 -0.1011  0.0294  0.0423
92583W        W35677  10.727  17.296   6.900 -0.0481 -0.1281 -0.1725
92584W        W35678  13.719  16.871   8.548 -0.0699  0.1170  0.0076
92585W        W35679  11.268  15.498   6.773  0.1244  0.2400 -0.1049
92586W        W35680  12.970  17.258   7.377 -0.0855 -0.0375 -0.0429
92587W        W35681  12.754  17.720   8.391  0.1875 -0.1008  0.2048
92588W        W35682  13.206  15.265   9.556 -0.3519  0.2912  0.1243
92589W        W35683  11.485  16.766   6.956 -0.2952 -0.1373 -0.0170
92590W        W35684  14.223  16.103   6.453  0.0211  0.0796  0.4672
92591W        W35685  12.436  14.154   6.042 -0.0014 -0.0939  0.0115
92592W        W35686  13.290  14.692   7.493  0.1163 -0.1307 -0.1302
92593W        W35687  12.147  14.826   8.328  0.1737 -0.1535 -0.0264
92594W        W35688  11.850  17.376   7.664 -0.2215  0.0616  0.0242
92595W        W35689  10.564  15.133   9.531 -0.1073  0.0174 -0.1099
92596W        W35690  13.279  15.765   8.455  0.1438 -0.1119 -0.0455
92597W        W35691  13.359  17.289   9.862 -0.2275  0.0989  0.2424
92598W        W35692  11.451  18.674   9.606  0.2043 -0.2601  0.0597
92599W        W35693  11.883  16.556   7.984  0.2375  0.0170 -0.1915
92600W        W35694  14.145  17.298   5.763  0.1224  0.2361 -0.0492
92601W        W35695  14.288  17.682   7.887 -0.0818 -0.0740  0.2870
92602W        W35696  12.547  17.158   7.104  0.3419 -0.0393 -0.0574
92603W        W35697  11.675  15.755   8.174  0.0374 -0.0285 -0.2224
92604W        W35698  11.755  14.597   7.622  0.0933 -0.2101 -0.0722
92605W        W35699  15.087  15.393   7.024 -0.0460  0.3197 -0.1131
92606W        W35700  14.239  17.136   9.069 -0.3075 -0.0053  0.0724
92607W        W35701  14.838  18.333   9.381 -0.0523 -0.2150 -0.0688
92608W        W35702  13.328  16.574   6.724 -0.2523 -0.1057 -0.1969
92609W        W35703  13.611  14.446   7.864 -0.0447  0.1423 -0.1556
92610W        W35704  14.015  15.445   8.101  0.0831 -0.0232  0.0381
92611W        W35705  10.705  17.494   5.995  0.0905  0.1114 -0.0620
92612W        W35706  12.495  16.699   7.306  0.1139 -0.0020 -0.1763
92613W        W35707  14.495  15.356   9.087  0.0554 -0.0053  0.0636
92614W        W35708  14.234  17.937   6.477 -0.1224  0.2423  0.0782
92615W        W35709  11.601  17.127   8.882  0.0733 -0.0339 -0.2308
92616W        W35710  11.473  18.189   7.386 -0.3461  0.0450 -0.3538
92617W        W35711  11.919  16.562   9.399 -0.0952 -0.3512 -0.1108
92618W        W35712  11.681  16.727   7.491 -0.1195  0.0219  0.1949
92619W        W35713  10.887  15.351   8.364 -0.0338 -0.0828 -0.1462
92620W        W35714  13.944  18.108   9.092 -0.1763 -0.0614  0.1025
92621W        W35715  14.687  15.062   7.108 -0.3400 -0.0470 -0.1717
92622W        W35716  13.827  14.342   9.345  0.1940 -0.1750 -0.2711
92623W        W35717  10.934  16.062   7.770 -0.0871  0.0699  0.0971
92624W        W35718  14.158  17.140   7.275  0.0442  0.0016 -0.1168
92625W        W35719  12.754  14.687   7.552  0.1798 -0.3590  0.2947
92626W        W35720  12.365  16.035   5.488 -0.2598  0.1280  0.0246
92627W        W35721  12.753  16.246   9.513 -0.0909  0.0072  0.2416
92628W        W35722  12.785  16.086   9.018 -0.0365 -0.2447  0.0510
92629W        W35723  11.644  14.917   8.476 -0.0851  0.1501  0.1039
92630W        W35724  11.085  15.162   7.854 -0.2428  0.0213  0.0219
92631W        W35725  13.656  15.403   7.687 -0.0889 -0.0954  0.0900
92632W        W35726  11.965  15.806   7.365  0.2446  0.1138 -0.1549
92633W        W35727  10.712  16.397   8.958 -0.0100  0.0901 -0.0245
92634W        W35728  13.294  18.163   7.034  0.1588 -0.1282  0.2260
92635W        W35729  14.598  17.545   9.315 -0.3510 -0.0908  0.0399
92636W        W35730  14.506  16.622   8.833  0.1941  0.0265  0.1052
92637W        W35731  13.896  16.294   7.608 -0.0336 -0.1469  0.0289
92638W        W35732  11.382  15.367   8.306  0.1969 -0.0386  0.0832
92639W        W35733  11.894  19.197   9.773  0.1464 -0.2457 -0.2479
92640W        W35734  12.765  17.046   8.948 -0.3136  0.3189 -0.1546
92641W        W35735  12.235  14.517   7.878 -0.2555 -0.2946  0.0407
92642W        W35736  12.312  20.633   9.816  0.3800  0.1003  0.0808
92643W        W35737  13.492  17.315   8.473  0.1122  0.1754  0.3130
92644W        W35738  14.051  19.039   9.049  0.0065  0.1497 -0.2654
92645W        W35739  13.119  17.476   8.136  0.0996 -0.4032  0.0859
92646W        W35740  11.990  14.214   6.171  0.0093 -0.0748 -0.0432
92647W        W35741  14.286  17.299   9.614 -0.3409 -0.0983 -0.1411
92648W        W35742  11.251  17.301   6.977 -0.2261  0.0017 -0.0153
92649W        W35743  11.298  16.631   7.916  0.1619  0.3137 -0.0612
92650W        W35744  13.306  17.969   8.052  0.3190  0.0163  0.0149
92651W        W35745  13.308  14.025   8.176  0.0019 -0.0575 -0.0394
92652W        W35746  12.270  14.288   6.974 -0.3531  0.0144 -0.0835
92653W        W35747  12.966  15.054   7.979 -0.1422  0.0002 -0.2200
92654W        W35748  13.767  15.096   6.768  0.2263 -0.0278 -0.0357
92655W        W35749  13.888  17.524   8.149  0.0567  0.1649 -0.1193
92656W        W35750  13.239  15.166   6.528 -0.0242  0.3435  0.1366
92657W        W35751  13.646  14.310   7.383  0.0600 -0.1601  0.0551
92658W        W35752  14.127  16.147   6.975  0.1789 -0.1298 -0.0375
92659W        W35753  12.367  16.439   8.616  0.3386 -0.2230 -0.3205
92660W        W35754  13.996  14.220   6.144 -0.1030 -0.0590  0.0359
92661W        W35755  14.984  17.918   5.549 -0.0229 -0.0182 -0.3585
92662W        W35756  12.068  17.348   8.894 -0.1987 -0.2668 -0.0103
92663W        W35757  13.928  17.024   8.146  0.0777  0.0071  0.2200
92664W        W35758  11.609  14.246  11.581  0.2509 -0.0213  0.0187
92665W        W35759  12.517  14.720   6.273  0.0328 -0.1230 -0.2278
92666W        W35760  11.832  13.682   7.948 -0.3818 -0.1674  0.3269
92667W        W35761  11.237  18.394   6.640 -0.5854 -0.1541  0.0449
92668W        W35762  13.874  14.853   8.156 -0.1051 -0.2464 -0.0973
92669W        W35763  12.548  14.400   8.522  0.0907 -0.0791  0.1646
92670W        W35764  14.374  14.927   7.429 -0.0770  0.1500 -0.1519
92671W        W35765  12.936  15.544   8.208 -0.2123 -0.0369 -0.2621
92672W        W35766  11.208  16.312   7.116  0.1820  0.2819  0.0177
92673W        W35767  11.115  12.129   9.555  0.0514  0.0582  0.0004
92674W        W35768  13.784  18.637   8.940 -0.3129  0.1202 -0.1516
92675W        W35769  13.506  16.483   6.291  0.0531  0.1681  0.0251
92676W        W35770  12.554  14.835   6.919  0.0770 -0.1090  0.1343
92677W        W35771  10.712  17.847   6.927  0.0819  0.1668 -0.2935
92678W        W35772  13.225  17.073   7.776  0.0286 -0.1420  0.1640
92679W        W35773  13.618  12.856   8.873 -0.3278 -0.0474 -0.0869
92680W        W35774  12.324  16.897   9.459  0.1852  0.2110  0.1483
92681W        W35775  11.652  16.626   6.289 -0.0607  0.0198  0.0833
92682W        W35776  14.827  17.679   8.177  0.1558  0.1869  0.0268
92683W        W35777  12.927  16.197   8.379  0.2971 -0.1655  0.0427
92684W        W35778  13.093  14.473   8.524  0.2147  0.1217 -0.2745
92685W        W35779  11.969  17.004   8.555  0.2113  0.2690 -0.1886
92686W        W35780  12.817  14.345   7.124  0.1532 -0.3032 -0.2947
92687W        W35781  10.322  15.306   6.467 -0.1862 -0.1115  0.3094
92688W        W35782  13.901  14.982   7.645 -0.0340  0.1708  0.0070
92689W        W35783  15.060  16.040   7.737 -0.0854  0.4806  0.2580
92690W        W35784   8.826  14.885   8.550  0.1111 -0.3005  0.0256
92691W        W35785  12.817  15.212   9.123  0.1107  0.3382 -0.0045
92692W        W35786  12.267  16.891   8.941  0.0157 -0.1520 -0.0248
92693W        W35787  14.597  16.021   6.788  0.0519  0.2152 -0.4845
92694W        W35788  10.819  14.426   5.505 -0.1070  0.1289 -0.0668
92695W        W35789  14.950  16.524   7.590  0.4734  0.0634 -0.0545
92696W        W35790  12.989  15.974   7.517 -0.3844 -0.0808  0.0803
92697W        W35791  11.847  18.084   7.854  0.4084  0.0855 -0.0100
92698W        W35792  14.301  17.834   8.394 -0.2408 -0.0303 -0.0013
92699W        W35793  12.762  17.026   7.972  0.2397  0.0491  0.0659
92700W        W35794  10.811  16.422   7.417 -0.0236  0.1178  0.2326
92701W        W35795  16.231  16.932   9.246 -0.1027  0.0902  0.0034
92702W        W35796  13.659  16.518   9.549 -0.1321  0.2472  0.0227
92703W        W35797  11.968  15.376   8.242  0.1292 -0.0439  0.1205
92704W        W35798  12.881  16.544   8.824 -0.4946  0.0514  0.2383
92705W        W35799  13.688  16.275   8.337 -0.0456 -0.0270  0.0640
92706W        W35800  15.212  16.008   9.697  0.1257  0.0511 -0.0086
92707W        W35801  11.105  14.932   8.595 -0.2775 -0.0144 -0.0785
92708W        W35802  14.790  18.070   7.948 -0.0922 -0.4048  0.0811
92709W        W35803  11.217  17.992   6.925 -0.0864 -0.1293  0.1718
92710W        W35804  11.078  17.704   9.561  0.1256 -0.1512 -0.2412
92711W        W35805  12.841  16.469   6.430 -0.2642 -0.2612 -0.3463
92712W        W35806  13.873  17.156   9.860  0.2236  0.2101  0.1256
92713W        W35807  12.306  17.403   9.335  0.0885 -0.0480  0.1418
92714W        W35808  10.834  17.318   8.272 -0.3768  0.1669 -0.0581
92715W        W35809  12.721  16.507   9.994  0.0207 -0.1350 -0.2891
92716W        W35810  14.882  13.583   6.448 -0.3263 -0.1444  0.0676
92717W        W35811  14.015  16.503   6.203  0.0216  0.0360  0.1460
92718W        W35812  12.865  15.612   8.761  0.0584 -0.0682 -0.0798
92719W        W35813  13.139  15.572   7.298  0.1949  0.6333  0.1140
92720W        W35814  13.776  14.967   8.692  0.2148  0.3222 -0.1953
92721W        W35815  13.172  15.633   6.764 -0.0512 -0.3273 -0.0676
92722W        W35816  12.690  16.019   7.998 -0.0569 -0.0810  0.2260
92723W        W35817  12.644  14.734   8.182  0.0124 -0.2728  0.0367
92724W        W35818  11.413  15.774   9.064 -0.0480 -0.1840 -0.1427
92725W        W35819  14.584  16.179   7.926  0.1863  0.2401  0.2158
92726W        W35820  11.966  16.781   6.658 -0.1824  0.1946  0.5762
92727W        W35821  13.707  15.841   8.112  0.0498 -0.1008 -0.1348
92728W        W35822  12.873  16.771   9.414  0.0316  0.0009  0.1471
92729W        W35823  13.948  14.169   8.155  0.2621 -0.2256  0.2822
92730W        W35824  13.348  16.177   7.977 -0.0456 -0.0176  0.2458
92731W        W35825  12.497  15.960   8.639  0.1714 -0.1821 -0.1341
92732W        W35826  14.107  15.707   9.321  0.0271 -0.0004  0.1354
92733W        W35827  14.008  15.238   9.300  0.1064 -0.1068 -0.1236
92734W        W35828  14.255  18.487   9.247  0.0948  0.1765 -0.0445
92735W        W35829  13.145  15.605   6.254 -0.2776  0.1918  0.0687
92736W        W35830  14.037  16.174   9.457  0.0941  0.0824 -0.1548
92737W        W35831  14.717  14.627   7.741 -0.2425  0.0767  0.1543
92738W        W35832  12.389  15.025   7.683 -0.0518 -0.2022  0.0938
92739W        W35833  11.383  16.361   9.583  0.1021  0.0252 -0.0392
92740W        W35834  11.534  13.770   5.882  0.3291  0.3101 -0.0096
92741W        W35835  14.095  16.616   7.170 -0.0217  0.0859  0.2442
92742W        W35836  14.161  15.904   7.790  0.1728  0.1908 -0.3029
92743W        W35837  13.559  16.683   7.767  0.0009  0.3929  0.2601
92744W        W35838  11.457  14.945   9.487  0.2106 -0.2671  0.1496
92745W        W35839  12.213  14.680   7.287  0.3217 -0.0443  0.1523
92746W        W35840  12.897  16.473   7.023  0.0196  0.0606  0.2160
92747W        W35841  13.674  17.729   9.620 -0.1788 -0.1057 -0.0384
92748W        W35842  13.540  13.413   7.768  0.0001 -0.1700 -0.0963
92749W        W35843  11.089  16.922   8.302 -0.1138 -0.0896  0.3849
92750W        W35844  14.139  13.255   9.209  0.2332 -0.0007 -0.0536
92751W        W35845  13.301  16.672   8.281  0.0535  0.0534 -0.2136
92752W        W35846  13.525  17.748   9.087  0.0018  0.3048  0.1530
92753W        W35847  12.450  15.209   8.184 -0.0830 -0.0147  0.0245
92754W        W35848  15.804  16.175  10.149 -0.0860  0.0573 -0.0386
92755W        W35849  16.778  15.171   9.943 -0.0702 -0.1286 -0.2351
92756W        W35850  13.863  16.711   9.020 -0.0474  0.0543  0.2536
92757W        W35851  14.843  15.873   8.350  0.0709 -0.1261  0.0199
92758W        W35852  12.104  16.181   8.243  0.1489 -0.1382 -0.1108
92759W        W35853  11.369  15.927   8.578 -0.1449  0.1508 -0.2558
92760W        W35854  11.274  14.250   8.122 -0.0503  0.0682  0.3314
92761W        W35855  12.277  15.716   6.328  0.0235  0.0176  0.1416
92762W        W35856  12.305  15.909   9.279  0.0912 -0.0247 -0.1509
92763W        W35857  12.045  17.864   7.442  0.1190 -0.0265 -0.1969
92764W        W35858  12.778  16.838   5.609  0.0118  0.0835  0.5240
92765W        W35859  14.384  17.471   6.278  0.2578 -0.4109 -0.1112
92766W        W35860  12.977  18.894   9.120 -0.0243 -0.1428 -0.0623
92767W        W35861  12.641  15.682   7.290  0.2733  0.0140  0.4055
92768W        W35862  12.474  16.225   7.158  0.2316  0.2036  0.1778
92769W        W35863  11.436  17.647   6.603 -0.0491 -0.0444  0.2602
92770W        W35864  12.935  16.941   6.634 -0.0084  0.2453 -0.1123
92771W        W35865  12.623  17.494   7.933 -0.0242 -0.0616 -0.2818
92772W        W35866  14.318  13.497   6.414  0.1026 -0.1944 -0.1250
92773W        W35867  14.384  14.827   8.157  0.0031 -0.0412 -0.1398
92774W        W35868  14.943  14.936   6.142 -0.2302  0.1066 -0.0633
92775W        W35869  12.387  16.488   9.248 -0.3753 -0.1902  0.1541
92776W        W35870  12.687  14.393   6.615  0.0121 -0.5460 -0.2520
92777W        W35871  13.791  17.946   6.869  0.1826 -0.0365 -0.1194
92778W        W35872  11.878  15.404   6.121 -0.0058  0.0311  0.2054
92779W        W35873  12.057  17.017   7.325 -0.0233  0.2231  0.1521
92780W        W35874  16.592  14.823   9.228 -0.2451 -0.1079 -0.0560
92781W        W35875  12.969  16.465   7.943  0.0929 -0.0639 -0.3504
92782W        W35876  13.581  15.615   9.377  0.2068 -0.0122 -0.0111
92783W        W35877  12.339  17.387   6.141  0.1988  0.0331 -0.2831
92784W        W35878  14.501  14.986   9.673  0.2825  0.0960 -0.0592
92785W        W35879  13.456  18.183   9.330  0.1977  0.0947 -0.1024
92786W        W35880  11.043  14.519   6.300  0.3120 -0.3039 -0.1364
92787W        W35881  14.745  14.879   8.572  0.1495  0.2341  0.0071
92788W        W35882  11.743  14.629   9.093  0.1252 -0.0394  0.2109
92789W        W35883  13.091  14.183   7.598  0.4736 -0.1603 -0.1148
92790W        W35884  14.090  14.527   7.732 -0.0704 -0.0088  0.1144
92791W        W35885  13.869  15.887   8.628 -0.0893 -0.2996 -0.0998
92792W        W35886  10.574  15.829   8.396  0.0810  0.0771  0.4227
92793W        W35887  11.650  14.722   7.167 -0.2712 -0.1355  0.1922
92794W        W35888  12.854  15.268   6.971 -0.0736 -0.0715  0.1703
92795W        W35889  12.940  15.771   9.374  0.0524 -0.2598 -0.1401
92796W        W35890  12.947  13.825   7.245 -0.4391  0.0051  0.2160
92797W        W35891  12.416  17.166   7.596 -0.3388 -0.1419  0.0357
92798W        W35892  17.814  15.489   9.670  0.1472  0.0111  0.0143
92799W        W35893  11.600  16.247   9.090 -0.2128  0.2524 -0.1852
92800W        W35894  14.233  17.348   6.789 -0.2197 -0.0788 -0.0122
92801W        W35895  15.444  15.559   8.993  0.2789  0.0165 -0.0195
92802W        W35896  11.994  16.245   6.331  0.0472  0.2458 -0.1155
92803W        W35897  13.344  16.078   7.032 -0.0972  0.1962 -0.0164
92804W        W35898  14.650  17.926   9.712 -0.2281 -0.0328  0.0474
92805W        W35899   9.884  15.979   9.789 -0.2879  0.2280  0.3160
92806W        W35900  14.216  17.926   9.560 -0.0691  0.2067 -0.0182
92807W        W35901  12.868  18.073   8.840 -0.0278  0.0908  0.2680
92808W        W35902  12.484  14.263   7.466  0.2612  0.3414 -0.0897
92809W        W35903  12.102  14.974   8.849 -0.3182  0.0741  0.3925
92810W        W35904  11.555  16.702   8.409 -0.4273  0.0627  0.5398
92811W        W35905  14.893  15.398   9.398 -0.3211  0.2578  0.0328
92812W        W35906  13.251  16.834   7.156  0.3621 -0.0286  0.1013
92813W        W35907  12.969  17.809   9.275 -0.1648 -0.0953 -0.0873
92814W        W35908  10.627  16.949   6.582  0.2939 -0.1361  0.0195
92815W        W35909  13.484  17.487   7.715  0.3288 -0.1691 -0.2595
92816W        W35910  12.931  16.771   7.555  0.1784  0.1426  0.0573
92817W        W35911  14.886  17.185   8.075  0.2197 -0.0410  0.2850
92818W        W35912  11.258  14.732   9.060 -0.0200  0.3366  0.0020
92819W        W35913  14.187  15.969   8.279 -0.2951  0.1495 -0.1388
92820W        W35914  12.903  13.800   9.009 -0.0032  0.1267  0.0310
92821W        W35915  15.655  14.942   7.529  0.2290 -0.2655 -0.4502
92822W        W35916  13.569  13.913   7.721  0.2074  0.1429  0.2029
92823W        W35917  11.773  17.807   9.438 -0.0777 -0.0663 -0.2667
92824W        W35918  10.732  16.033   6.108 -0.2706  0.0385 -0.1214
92825W        W35919  11.981  16.095   6.813  0.2584  0.0490 -0.0852
92826W        W35920  12.343  16.344   9.764 -0.0433  0.0369 -0.0076
92827W        W35921  11.705  16.254   8.528  0.0430 -0.1045 -0.3036
92828W        W35922  12.425  15.425   8.650 -0.5673  0.1704 -0.0662
92829W        W35923  14.271  16.809   8.395  0.3154  0.0734 -0.0675
92830W        W35924  12.308  16.858   8.215 -0.0536 -0.0565  0.1201
92831W        W35925  10.561  15.123   7.767  0.1736  0.1270 -0.0859
92832W        W35926  14.563  16.935   6.946  0.3042 -0.0607 -0.0879
92833W        W35927  14.392  17.199   7.703  0.3571 -0.0566  0.4340
92834W        W35928  12.795  15.019   8.567  0.0267  0.1085  0.1971
92835W        W35929  11.176  16.865   7.442 -0.1034  0.0477  0.0575
92836W        W35930  11.621  15.017   8.013 -0.1611  0.0973  0.2947
92837W        W35931  10.376  16.879   9.668 -0.1159 -0.0514 -0.3522
92838W        W35932  13.227  17.794   8.543  0.2462 -0.1765 -0.0956
92839W        W35933  13.919  17.298   6.260  0.0806  0.2578 -0.2394
92840W        W35934   7.588  14.548   9.552 -0.1228  0.3757 -0.2600
92841W        W35935  13.892  14.771   7.144  0.0665  0.1318  0.1004
92842W        W35936  15.350  16.791   7.491 -0.0080  0.2841 -0.2176
92843W        W35937  13.487  15.915   7.510  0.2811  0.0935 -0.0418
92844W        W35938  13.216  15.618   7.812 -0.1261  0.0465 -0.1260
92845W        W35939  15.553  14.155   9.647 -0.0928  0.0999 -0.1092
92846W        W35940  13.686  16.603  11.546  0.1486 -0.0725 -0.0680
92847W        W35941  11.877  15.550   6.630 -0.3491 -0.1976  0.1615
92848W        W35942  12.972  15.103   7.444  0.0109  0.2039  0.2661
92849W        W35943  11.873  15.665   9.160 -0.0196 -0.0113  0.2245
92850W        W35944  12.214  15.694   6.989 -0.2354  0.1248 -0.1732
92851W        W35945  13.377  16.446   8.707 -0.3473  0.1140 -0.1707
92852W        W35946  11.269  14.734   8.162 -0.1028  0.1049 -0.0681
92853W        W35947  14.599  16.412   7.043  0.2358  0.1583  0.0169
92854W        W35948  13.422  14.363   9.704 -0.3002  0.1593 -0.0059
92855W        W35949  14.056  16.435   8.635  0.0440  0.1499  0.0646
92856W        W35950  14.232  15.382   7.609  0.0397  0.0399 -0.1956
92857W        W35951  11.968  15.794   8.572 -0.0250  0.0431  0.0840
92858W        W35952  12.871  15.964   6.945  0.0018 -0.2170  0.1530
92859W        W35953  11.850  16.105   7.795 -0.2653 -0.3064  0.0164
92860W        W35954  13.685  16.229   9.080  0.2051 -0.0428 -0.1441
92861W        W35955  12.098  16.598   7.066  0.0652 -0.2300 -0.3315
92862W        W35956  12.656  15.527   7.783 -0.1933 -0.2318 -0.3986
92863W        W35957  12.875  20.121   8.598 -0.1577  0.1379  0.1207
92864W        W35958  13.991  17.616   9.216 -0.2929  0.0234 -0.2057
92865W        W35959  11.839  20.476   2.742  0.1282 -0.0759  0.1337
92866W        W35960  13.555  20.392  30.550 -0.1278  0.3840 -0.0055
92867W        W35961  13.785  18.162  29.524  0.0191  0.3752  0.0169
92868W        W35962  12.581  19.704  31.415  0.2966  0.2864 -0.0211
92869W        W35963  11.064  18.880  30.956  0.0879  0.0511  0.1441
92870W        W35964  14.582  20.603   0.037  0.0346  0.1823 -0.2872
92871W        W35965  12.254  17.823   1.854  0.1382 -0.2355  0.0750
92872W        W35966  14.963  19.623   0.009  0.0711 -0.2545 -0.1066
92873W        W35967  15.687  19.728   2.145  0.3495 -0.2507  0.0710
92874W        W35968  14.269  19.688  29.884  0.0489  0.1157  0.0403
92875W        W35969  12.972  18.610   2.405  0.0016  0.0538 -0.0647
92876W        W35970  13.879  20.896   0.888 -0.2125 -0.2644  0.0795
92877W        W35971  13.305  17.611  31.827 -0.1308  0.0563 -0.0107
92878W        W35972  11.708  18.910   0.796  0.0012  0.0849 -0.2575
92879W        W35973  14.679  18.159   1.089 -0.0261 -0.2452 -0.2947
92880W        W35974  13.010  19.424  29.784  0.1667 -0.0995  0.0025
92881W        W35975  11.571  19.736   2.234 -0.0705  0.0099  0.1348
92882W        W35976  11.724  18.156  30.935 -0.1076  0.0014  0.1296
92883W        W35977  12.352  22.195   0.373 -0.1218  0.1363  0.0488
92884W        W35978  12.965  18.484   1.232  0.1217  0.1820  0.1285
92885W        W35979  12.973  18.820   0.251 -0.1102  0.1265  0.2073
92886W        W35980  12.875  21.389   0.720  0.3576 -0.4878  0.0716
92887W        W35981  11.641  19.021  30.082 -0.4282 -0.2687  0.0714
92888W        W35982  11.753  19.672   1.718 -0.0137  0.1239  0.0668
92889W        W35983  11.920  20.157   1.785  0.0413 -0.2883 -0.1669
92890W        W35984  13.584  18.675   0.896 -0.0966 -0.1248 -0.1670
92891W        W35985  14.089  18.721   0.781 -0.0343  0.1956  0.3564
92892W        W35986  14.050  21.386   0.025  0.1201  0.0620 -0.3269
92893W        W35987  13.880  20.026  31.703  0.2228  0.0985 -0.0089
92894W        W35988  12.909  19.113   2.858  0.0059  0.2595 -0.1197
92895W        W35989  11.555  20.478  31.535 -0.0398  0.0016  0.0035
92896W        W35990  11.959  20.601   1.368 -0.1590 -0.0103 -0.2578
92897W        W35991  13.262  20.093  30.908 -0.0083  0.3320  0.1505
92898W        W35992  13.936  20.295  31.111  0.1430 -0.0269 -0.3996
92899W        W35993  12.939  19.656   0.848  0.1477 -0.0118  0.0144
92900W        W35994  12.238  21.176   2.322 -0.1785  0.2730 -0.0952
92901W        W35995  12.082  19.924  30.261  0.0010  0.0475  0.0258
92902W        W35996  13.681  20.103   1.370 -0.1206 -0.1796 -0.0506
92903W        W35997  12.771  21.141   2.259  0.1870 -0.0721 -0.0814
92904W        W35998  13.698  20.533   2.974 -0.0881  0.1472  0.2087
92905W        W35999  12.147  20.027  30.706  0.2106  0.0316  0.1198
92906W        W36000  12.630  20.035  31.044  0.1416 -0.1304  0.2585
92907W        W36001  15.441  19.033  30.348 -0.0498 -0.2219  0.1976
92908W        W36002  12.515  19.764   2.934 -0.2534  0.3110 -0.0930
92909W        W36003  10.616  22.109   1.747  0.0202 -0.0503 -0.3909
92910W        W36004  14.578  17.139   0.719  0.4697  0.1251  0.2411
92911W        W36005  12.512  20.349  31.547  0.0170  0.2826 -0.2284
92912W        W36006  13.934  19.506  29.494 -0.1518 -0.1294  0.3011
92913W        W36007  12.193  19.166  30.332  0.1941  0.1471 -0.1561
92914W        W36008  13.730  18.783  30.161  0.3721 -0.0740  0.1261
92915W        W36009  11.576  19.968  31.508  0.3131 -0.1413 -0.0030
92916W        W36010  12.432  18.495   1.012  0.1497 -0.1643  0.1353
92917W        W36011  13.180  19.981   1.391 -0.3066  0.1630  0.0075
92918W        W36012  12.586  18.517   0.533 -0.2476  0.1837  0.2259
92919W        W36013  13.222  19.326   0.061  0.2116  0.2336  0.0069
92920W        W36014  12.913  20.162   0.336  0.1130  0.1036  0.1366
92921W        W36015  11.221  19.766   0.024 -0.4247 -0.3011 -0.0934
92922W        W36016  14.410  22.045  29.704  0.1764 -0.0031  0.0583
92923W        W36017  14.655  19.612  31.201 -0.1228 -0.1098 -0.1521
92924W        W36018  13.827  21.689  29.813  0.4226 -0.2115  0.0540
92925W        W36019  11.709  19.904   0.264  0.1227  0.1226  0.3405
92926W        W36020  10.991  20.029   1.601 -0.1218 -0.0450  0.1072
92927W        W36021  11.918  19.957   2.729  0.2668  0.4178 -0.0131
92928W        W36022  11.931  17.589  31.149  0.1566  0.1292 -0.0160
92929W        W36023  13.465  19.475   1.311 -0.0987 -0.1115 -0.3422
92930W        W36024  10.247  21.315   1.652 -0.1228 -0.0316  0.2427
92931W        W36025  13.436  18.599  30.741  0.1457 -0.0024  0.4655
92932W        W36026  12.761  19.987   1.119  0.1871  0.3704 -0.3035
92933W        W36027  14.276  19.265   0.978 -0.2648  0.1075  0.0916
92934W        W36028  14.955  20.956  29.728  0.0761 -0.1232  0.3726
92935W        W36029  13.027  17.930   1.365  0.0602  0.2225  0.4410
92936W        W36030  13.084  18.964  31.287  0.2334 -0.3765  0.1372
92937W        W36031  12.459  20.995  29.969 -0.2101 -0.0195  0.2713
92938W        W36032  13.493  19.599  31.677 -0.0156 -0.1266 -0.2254
92939W        W36033  13.762  20.601   1.358  0.0639 -0.0853 -0.2309
92940W        W36034  13.385  19.418  31.171 -0.3751 -0.2088  0.1866
92941W        W36035  12.465  19.969   1.533  0.1097  0.3016 -0.2184
92942W        W36036  12.959  18.983   1.257 -0.2193 -0.2607  0.1287
92943W        W36037  13.024  21.570   3.808  0.3384  0.0132  0.2276
92944W        W36038  11.220  20.454   0.336 -0.2473  0.1940 -0.0530
92945W        W36039   9.263  20.668   1.837 -0.3754 -0.2532 -0.0311
92946W        W36040  11.762  20.699  31.022  0.0330  0.0875 -0.2023
92947W        W36041  11.956  19.122   1.735 -0.2676 -0.0783  0.2281
92948W        W36042  14.188  21.431   1.945 -0.2177 -0.2418 -0.0080
92949W        W36043  14.249  19.954  31.311  0.0361 -0.0465 -0.2828
92950W        W36044  12.120  19.023   2.495  0.3726 -0.3577  0.2552
92951W        W36045  14.515  18.617  31.653  0.0192 -0.1838 -0.1427
92952W        W36046  11.963  20.096  31.838 -0.2529 -0.1582  0.1435
92953W        W36047  14.167  21.847  30.193 -0.2848 -0.0446 -0.1134
92954W        W36048  12.468  19.073  29.854  0.3076  0.1199  0.1154
92955W        W36049  14.067  18.726  29.052 -0.2481  0.0920 -0.0732
92956W        W36050  10.874  19.954   2.076 -0.2775 -0.4456 -0.0963
92957W        W36051  11.679  19.494   0.535 -0.1437 -0.1690 -0.0524
92958W        W36052  13.210  18.497   2.885  0.0718  0.1731 -0.2080
92959W        W36053  10.621  18.738   0.901 -0.0190  0.1489  0.1030
92960W        W36054  12.970  18.713   1.775 -0.0868 -0.0345 -0.1473
92961W        W36055  11.637  18.926  31.735  0.1822  0.4704  0.3557
92962W        W36056  13.740  19.967   0.477  0.0590 -0.2035  0.0836
92963W        W36057  11.928  20.260   0.753  0.2094 -0.0563  0.1095
92964W        W36058  10.376  21.440   0.723  0.0294 -0.2757  0.0193
92965W        W36059  13.939  18.778   2.740  0.0339 -0.0594 -0.1530
92966W        W36060  15.389  22.091  30.259 -0.0736  0.0545  0.3514
92967W        W36061  14.194  20.043   0.762  0.0829  0.0883 -0.0613
92968W        W36062  13.048  23.583   0.046  0.2311  0.1837  0.2282
92969W        W36063  11.347  20.454   1.446  0.2872 -0.2883 -0.0376
92970W        W36064  10.786  18.620  31.251 -0.0254 -0.0863  0.2683
92971W        W36065  13.039  21.401   0.184  0.0489 -0.0828  0.0870
92972W        W36066  13.538  20.881  30.757 -0.1093  0.1239 -0.1153
92973W        W36067  12.128  20.022  31.384 -0.0206 -0.1527  0.0909
92974W        W36068  14.465  21.639  31.859 -0.0560  0.2470  0.2045
92975W        W36069  12.036  19.305   0.851  0.4262  0.1048  0.1107
92976W        W36070  11.207  22.029   2.418 -0.0404  0.2533 -0.2721
92977W        W36071  13.627  18.627   3.084  0.0863  0.1069 -0.0774
92978W        W36072  15.762  20.003   1.735 -0.1433 -0.1840  0.1656
92979W        W36073  13.720  19.470   0.181  0.1863 -0.4844 -0.0539
92980W        W36074  11.326  17.893  30.791  0.1378  0.4351  0.0768
92981W        W36075  14.987  21.023  31.777  0.2817  0.3504  0.1134
92982W        W36076  12.865  21.606   1.256 -0.0976 -0.0791  0.2375
92983W        W36077  12.747  19.563   0.247  0.3937 -0.0122  0.2445
92984W        W36078  14.104  20.860   0.275 -0.0568 -0.0576 -0.0900
92985W        W36079  14.396  18.998  31.386 -0.1702  0.4042  0.2139
92986W        W36080  11.321  19.627   2.650  0.0032  0.0252 -0.1534
92987W        W36081  13.848  18.530   1.369 -0.1161 -0.1526 -0.0460
92988W        W36082  11.402  19.266   0.903  0.0546  0.1464 -0.1391
92989W        W36083  11.196  20.883   1.655  0.0995 -0.4053 -0.1255
92990W        W36084  12.662  18.220  31.254  0.0484 -0.4952  0.2157
92991W        W36085  15.103  19.076  29.051  0.2223  0.1102  0.1645
92992W        W36086  13.295  18.878   2.102 -0.2481 -0.2442  0.2958
92993W        W36087  15.572  19.937   0.270 -0.0763 -0.1402  0.1527
92994W        W36088  13.087  18.001  30.802  0.1026 -0.0701  0.1370
92995W        W36089  12.543  18.591  29.702  0.0671 -0.0538  0.0241
92996W        W36090  11.393  20.114   2.691  0.0038 -0.0179  0.1777
92997W        W36091  12.218  19.288  31.367 -0.2450 -0.0087 -0.0013
92998W        W36092  12.071  19.814   0.938 -0.2900  0.2895  0.0951
92999W        W36093  13.232  18.737  31.807 -0.0174  0.2761  0.0989
93000W        W36094  14.954  20.367  31.063 -0.1617 -0.1672 -0.0958
93001W        W36095  12.365  20.220   2.813  0.0469  0.1454 -0.0388
93002W        W36096  14.164  20.732   2.640 -0.1081  0.2318 -0.0906
93003W        W36097  14.568  20.164  31.657  0.0410 -0.0842  0.2863
93004W        W36098  13.646  17.358   0.824  0.0011 -0.0569  0.3191
93005W        W36099  12.573  19.211  30.675  0.0962 -0.2136  0.1873
93006W        W36100  14.262  17.869  31.893 -0.4645  0.2369 -0.1048
93007W        W36101  10.688  22.861  30.850 -0.0952 -0.1447 -0.2412
93008W        W36102  13.381  18.579   0.388  0.0836  0.3320  0.2665
93009W        W36103  14.010  17.462   1.269 -0.3404  0.2196  0.2477
93010W        W36104  12.658  18.179   1.738  0.0336  0.1909  0.1591
93011W        W36105  13.588  18.595   1.811 -0.2485 -0.1123 -0.0089
93012W        W36106  12.423  18.703  31.454 -0.0966  0.1945  0.0613
93013W        W36107  13.485  19.934  30.540  0.0802  0.1139  0.1819
93014W        W36108  12.603  19.477  30.064  0.2202 -0.0425  0.0189
93015W        W36109  12.622  19.162   1.645 -0.1901  0.2960  0.0408
93016W        W36110  10.797  19.649   2.450  0.1677 -0.0673 -0.3279
93017W        W36111  11.403  21.634   2.164 -0.1207 -0.2102  0.0627
93018W        W36112  13.492  22.278   3.034  0.1543 -0.5237  0.2278
93019W        W36113  13.444  20.109  31.378 -0.3131 -0.0010 -0.0780
93020W        W36114  13.075  18.686   0.790 -0.2137 -0.3772 -0.0325
93021W        W36115  13.345  18.158  29.847  0.1645 -0.0598 -0.0271
93022W        W36116  14.121  19.831  29.182 -0.1065  0.0475  0.0742
93023W        W36117  10.649  19.562  30.010  0.0249  0.2535  0.1535
93024W        W36118  11.440  18.752   1.768 -0.4661 -0.1165 -0.1265
93025W        W36119  12.564  20.237   2.115  0.0561  0.0671  0.3369
93026W        W36120  12.725  21.315  29.700  0.3094 -0.0859  0.0912
93027W        W36121  12.683  20.571   3.015  0.3747  0.4973 -0.1641
93028W        W36122  13.061  19.785  31.285  0.1954 -0.1085  0.2920
93029W        W36123  14.473  17.470   1.206  0.1173  0.3553  0.2106
93030W        W36124  11.051  20.946   0.432  0.0080  0.1670 -0.0381
93031W        W36125  11.299  19.146  30.599 -0.4874  0.1611  0.2209
93032W        W36126  10.809  19.690   0.349 -0.2770 -0.2872  0.0485
93033W        W36127  13.297  18.216  31.755 -0.2858  0.0088  0.2163
93034W        W36128  14.633  20.043  29.736 -0.0603 -0.2117  0.2533
93035W        W36129  12.845  19.561   2.029 -0.3976  0.3347 -0.1498
93036W        W36130  13.217  16.998   1.048 -0.1677 -0.0328 -0.2914
93037W        W36131  12.444  21.661   2.273  0.1317  0.2838  0.3029
93038W        W36132  13.235  19.213   0.927 -0.2086 -0.3790 -0.2329
93039W        W36133  14.347  17.510  30.545 -0.1125 -0.0821  0.0881
93040W        W36134  14.487  20.642  31.384  0.2504  0.1511 -0.3502
93041W        W36135  14.135  19.926   1.517 -0.0073 -0.2291 -0.1821
93042W        W36136  11.929  18.531   0.109  0.2801 -0.0449  0.5232
93043W        W36137  14.064  18.670   1.847 -0.2513 -0.0381  0.2975
93044W        W36138  12.042  19.640  31.655  0.3506 -0.2679  0.1921
93045W        W36139  11.564  21.168   0.211  0.0061 -0.3322  0.1104
93046W        W36140  13.307  21.508   0.999 -0.0102  0.0436 -0.2594
93047W        W36141  11.019  19.472  30.756  0.3492  0.0895 -0.0236
93048W        W36142  11.432  20.275  31.934 -0.0517 -0.1003 -0.2174
93049W        W36143  13.185  19.865   2.275 -0.0759 -0.0940  0.1686
93050W        W36144  14.110  20.035   2.115  0.1646 -0.0887  0.1850
93051W        W36145  12.628  17.856   0.426 -0.1432  0.3278 -0.0508
93052W        W36146  10.950  18.629   1.395  0.1917 -0.0451  0.0841
93053W        W36147  12.888  19.184   0.607  0.1613 -0.0226 -0.1870
93054W        W36148  13.988  19.718   1.037  0.0099  0.0924  0.2130
93055W        W36149  13.714  19.427   0.717 -0.0624  0.0541  0.1817
93056W        W36150  12.898  19.966   2.682 -0.1909  0.0624 -0.3210
93057W        W36151  13.324  17.780   2.128  0.1494  0.2301 -0.1886
93058W        W36152  14.615  21.698  30.860 -0.2359 -0.3112  0.4511
93059W        W36153  14.135  19.588   0.567  0.0931 -0.1144  0.0009
93060W        W36154  11.253  21.597  30.836 -0.2013  0.0763 -0.3269
93061W        W36155  12.342  20.433   1.726 -0.0970 -0.1654  0.0664
93062W        W36156  14.921  19.889  30.224  0.1247  0.1450 -0.0942
93063W        W36157  13.393  19.116   0.453 -0.1008 -0.0291 -0.3519
93064W        W36158  13.478  20.835  31.726 -0.1371 -0.2556  0.0535
93065W        W36159  12.890  20.859  31.632  0.0410 -0.0513 -0.0185
93066W        W36160  11.115  20.854   2.217 -0.1570 -0.2155  0.0981
93067W        W36161  13.987  18.305  29.928  0.1508 -0.0363 -0.1879
93068W        W36162  13.374  19.463  29.359 -0.0582 -0.0571 -0.0495
93069W        W36163  14.427  20.261  30.985 -0.2243  0.1295 -0.3560
93070W        W36164  14.448  17.565   0.378 -0.0736  0.1649  0.1809
93071W        W36165  14.080  19.366  30.485  0.3567  0.0942  0.0663
93072W        W36166  13.808  19.056   2.244  0.3316  0.0117 -0.1854
93073W        W36167  12.457  17.321   0.454  0.2720  0.1213 -0.1236
93074W        W36168  14.473  21.170  31.941 -0.1465  0.0082 -0.0142
93075W        W36169  11.408  20.327   0.821  0.1939  0.0083 -0.0624
93076W        W36170  14.145  20.249   2.864 -0.0680 -0.0053  0.0996
93077W        W36171  10.881  20.333   2.883 -0.4077 -0.3046  0.1112
93078W        W36172  12.817  17.874  31.821  0.1945  0.0060  0.1693
93079W        W36173  12.381  18.677  30.593  0.2685  0.2033 -0.2661
93080W        W36174  12.395  20.515   0.572  0.0739 -0.1096  0.1846
93081W        W36175  14.027  18.802  31.677  0.0235  0.3899 -0.2895
93082W        W36176  12.986  19.881  30.564  0.3779  0.1179 -0.0828
93083W        W36177  14.070  18.212  31.579  0.0018  0.3610  0.0618
93084W        W36178  11.562  21.076   2.027 -0.1714  0.0216 -0.1063
93085W        W36179  13.753  20.529  31.514 -0.0648 -0.1491  0.2901
93086W        W36180  12.625  19.108  31.248  0.0451 -0.3251 -0.0131
93087W        W36181  12.984  19.990  31.737  0.0986  0.0014 -0.0271
93088W        W36182  11.538  17.588   2.975 -0.2839 -0.0477 -0.2968
93089W        W36183  13.486  19.826   0.879  0.3134  0.2746  0.2717
93090W        W36184  14.179  20.431  31.783 -0.2211 -0.1015 -0.1038
93091W        W36185  13.663  17.936   2.520  0.1455  0.0876  0.2261
93092W        W36186  12.974  19.341  31.551 -0.1494 -0.3029  0.2072
93093W        W36187  12.576  20.050   0.707  0.1472 -0.1321  0.0897
93094W        W36188  11.528  19.119   2.471 -0.3146 -0.3077 -0.0906
93095W        W36189  13.740  21.381  31.598 -0.1172 -0.1842  0.1457
93096W        W36190  13.602  19.071  30.604 -0.0185 -0.4577 -0.0833
93097W        W36191  14.514  20.024   3.209  0.0754  0.2825 -0.0270
93098W        W36192  13.027  19.017  30.777  0.0330 -0.0940 -0.2464
93099W        W36193  13.203  18.385  31.193 -0.2611 -0.1987 -0.0363
93100W        W36194  11.812  19.012  31.219 -0.2194  0.2720 -0.0881
93101W        W36195  13.297  19.700   1.793 -0.0457  0.0663 -0.1375
93102W        W36196  11.478  18.267  30.493 -0.0667  0.0547 -0.1187
93103W        W36197  13.719  17.702   1.681  0.0542  0.3221  0.0171
93104W        W36198  11.885  21.970  31.576  0.2202  0.1946  0.0937
93105W        W36199  13.044  20.342  30.269  0.2545  0.2694 -0.3078
93106W        W36200  13.289  19.497  30.664  0.3103  0.2698  0.0248
93107W        W36201  12.159  19.560   0.206 -0.1971  0.0798  0.1437
93108W        W36202  11.295  21.115   2.612  0.0269  0.1844  0.1620
93109W        W36203  10.180  18.518  31.735  0.1964 -0.2903 -0.0974
93110W        W36204  10.497  20.403  31.732  0.1812  0.0827 -0.1095
93111W        W36205  12.635  20.997   2.711 -0.0579 -0.2359  0.0496
93112W        W36206  15.472  19.603   2.719  0.1713 -0.2790 -0.1914
93113W        W36207  13.049  17.946  31.357 -0.2421  0.2150 -0.1871
93114W        W36208  14.455  18.514   2.706 -0.1686 -0.1733 -0.5237
93115W        W36209  10.087  20.896   0.931  0.0391 -0.1720  0.2175
93116W        W36210  13.650  18.924   0.083  0.1901  0.2578 -0.1618
93117W        W36211  11.166  22.035   1.862  0.1977 -0.1575 -0.1313
93118W        W36212  10.351  20.684   2.333 -0.1316 -0.0610 -0.2029
93119W        W36213  11.352  20.851  31.916 -0.0904 -0.0263  0.1916
93120W        W36214  13.434  18.918   1.293 -0.1687  0.1040 -0.0860
93121W        W36215  14.147  19.251  31.868 -0.1315  0.1297 -0.1628
93122W        W36216  13.554  20.803   0.408 -0.0144  0.0132  0.0610
93123W        W36217  14.509  18.098   2.382  0.0891 -0.1075 -0.2366
93124W        W36218  13.303  20.605   3.830  0.0408 -0.1804  0.3740
93125W        W36219  12.660  18.476   2.131 -0.1407  0.0785 -0.0979
93126W        W36220  14.530  20.546   1.586  0.1401  0.2098 -0.1427
93127W        W36221  15.368  20.064  30.380 -0.1588 -0.0314  0.1030
93128W        W36222  13.384  20.345   0.406  0.0813  0.3291 -0.2362
93129W        W36223  11.309  19.349   3.109 -0.0718 -0.1129  0.2263
93130W        W36224  12.917  19.561   1.420  0.2225 -0.3259 -0.1035
93131W        W36225  14.276  19.419   1.477 -0.1217 -0.1074 -0.1902
93132W        W36226  12.243  18.952  30.998 -0.0708  0.2226 -0.2607
93133W        W36227  12.348  20.141  29.510 -0.2549  0.2113  0.1864
93134W        W36228  10.113  20.625   2.822 -0.2073  0.0431 -0.0009
93135W        W36229   9.921  19.824   2.563 -0.0568  0.0229  0.1003
93136W        W36230  12.156  21.556   0.461 -0.1671  0.4581  0.0464
93137W        W36231  13.305  19.769  28.678 -0.0454  0.2216 -0.0925
93138W        W36232  12.527  19.980  30.055 -0.2541 -0.2412 -0.0717
93139W        W36233  13.928  19.615   1.867  0.0540 -0.0181  0.0278
93140W        W36234  12.567  18.230  30.759  0.1331  0.0497  0.0876
93141W        W36235  13.083  20.829   1.593  0.1431 -0.1056  0.1424
93142W        W36236  10.854  22.089  31.844 -0.2998  0.0563 -0.1537
93143W        W36237  12.961  20.475  30.768 -0.2570 -0.1188  0.4751
93144W        W36238  11.818  21.075  31.344  0.4445  0.1929  0.3619
93145W        W36239  13.522  19.511   2.191 -0.0280 -0.0644 -0.0633
93146W        W36240  14.430  19.218  29.814  0.2695 -0.2351 -0.1048
93147W        W36241  14.901  19.240   0.378  0.1385  0.3827 -0.0111
93148W        W36242  14.824  19.553  29.752  0.0109 -0.2676  0.0562
93149W        W36243  11.720  20.859   3.122  0.1078  0.4125 -0.2088
93150W        W36244  13.309  19.642   0.432 -0.1293  0.1080  0.0771
93151W        W36245  13.774  19.073  29.313  0.1532 -0.0960 -0.0135
93152W        W36246  12.736  20.513   0.925 -0.2144 -0.2172  0.0455
93153W        W36247  13.825  17.515   2.158  0.0956 -0.1886  0.3267
93154W        W36248  11.269  22.460   3.130 -0.2628 -0.1760 -0.0946
93155W        W36249  14.017  20.620  30.075 -0.0969  0.4522  0.0939
93156W        W36250  11.465  19.351  31.026 -0.3197 -0.5312 -0.0040
93157W        W36251  11.944  18.620   1.363 -0.3677  0.2645 -0.3466
93158W        W36252  14.222  16.405   2.819 -0.1079 -0.1720  0.0436
93159W        W36253  12.753  18.683  31.070  0.0624  0.3111  0.0395
93160W        W36254  13.624  20.286   0.877  0.0103 -0.2558 -0.2588
93161W        W36255  12.056  21.306   0.022  0.1198 -0.0158 -0.3620
93162W        W36256  11.185  21.642   3.040  0.1376 -0.2069 -0.3065
93163W        W36257  12.953  20.065   1.809  0.1996  0.3156  0.0052
93164W        W36258  10.756  18.243   0.242  0.1068 -0.1596 -0.1250
93165W        W36259  14.481  19.632  31.667 -0.0811 -0.0128 -0.2246
93166W        W36260  12.279  20.308   1.119  0.1822 -0.1876  0.1296
93167W        W36261  13.560  18.474   2.488  0.2109  0.3097  0.0191
93168W        W36262  12.267  19.098   1.298  0.3794 -0.1156  0.0471
93169W        W36263  13.822  19.519  30.845  0.1597 -0.4198  0.0579
93170W        W36264  13.085  20.179   0.784 -0.3371  0.1471  0.3049
93171W        W36265  12.198  20.087   0.332 -0.0730  0.3104 -0.2631
93172W        W36266  12.958  18.542  30.612 -0.0547 -0.0762  0.2571
93173W        W36267  13.325  19.695   2.756 -0.1667 -0.0846  0.0639
93174W        W36268  12.735  18.852  30.222 -0.0434  0.3947 -0.1465
93175W        W36269  14.124  20.688   2.031  0.0583 -0.1146 -0.0998
93176W        W36270  12.429  19.917  31.868 -0.0136 -0.1779 -0.0162
93177W        W36271  13.380  18.173  29.169 -0.1857 -0.0968 -0.1997
93178W        W36272  12.222  20.903   0.320 -0.4729 -0.0367 -0.0854
93179W        W36273  12.514  19.034   2.187 -0.0079 -0.2266  0.1239
93180W        W36274  14.786  21.126   1.365 -0.1546  0.3633  0.2055
93181W        W36275  11.426  18.672  30.735  0.0392 -0.3124  0.0666
93182W        W36276  14.506  20.666  29.772  0.0934  0.4096 -0.1634
93183W        W36277  14.474  19.448   0.200  0.4074  0.1677 -0.1203
93184W        W36278  11.947  21.322  30.953  0.1387 -0.3402  0.1236
93185W        W36279  13.963  19.196  31.351  0.1190  0.2440  0.1366
93186W        W36280  12.953  22.065  31.640 -0.1335  0.0870  0.0290
93187W        W36281  11.193  19.150   1.413 -0.1804  0.1844 -0.2308
93188W        W36282  13.167  21.743   1.679 -0.2724  0.2536 -0.4941
93189W        W36283  15.447  19.597   1.635  0.1712  0.2025  0.4026
93190W        W36284  11.607  18.569  31.184  0.0640 -0.0579 -0.1318
93191W        W36285  12.925  18.313   0.233  0.0383  0.2071 -0.0136
93192W        W36286  11.789  20.160  31.043  0.0225 -0.1915  0.3180
93193W        W36287  14.079  17.913   2.143  0.0180 -0.2717  0.0959
93194W        W36288  13.752  19.062   1.652 -0.3050 -0.0590  0.0129
93195W        W36289  13.308  19.889  30.082  0.0035  0.1408 -0.0031
93196W        W36290  13.497  18.142   1.514 -0.0186 -0.1193 -0.2304
93197W        W36291  14.154  19.492   2.352  0.0638 -0.1785  0.1157
93198W        W36292  11.922  19.379   2.233  0.1608  0.2272 -0.3434
93199W        W36293  10.971  19.903  31.005  0.0188 -0.2132 -0.3268
93200W        W36294  13.184  19.188   1.639  0.1441 -0.6024 -0.0110
93201W        W36295  12.542  21.340   0.223  0.1027  0.0181  0.1505
93202W        W36296  11.256  22.274  31.634 -0.1511  0.2467 -0.1651
93203W        W36297  13.882  21.615   0.958 -0.2022 -0.2886  0.0649
93204W        W36298  15.279  19.718  29.935 -0.2436 -0.0370 -0.4013
93205W        W36299  14.795  20.351  30.598 -0.2405 -0.0842 -0.2856
93206W        W36300  12.145  18.128   0.870  0.1348 -0.1214  0.0710
93207W        W36301  14.657  18.745  29.821 -0.0864 -0.1397 -0.1871
93208W        W36302  14.204  18.902  30.169 -0.0650 -0.0856  0.0726
93209W        W36303  12.602  19.391   1.067  0.3184  0.1828  0.0547
93210W        W36304  10.658  20.134  29.938  0.0937 -0.3418  0.0887
93211W        W36305  13.429  19.386  30.116  0.1695  0.2728  0.1394
93212W        W36306  11.516  20.804   0.532 -0.1226  0.2173  0.0980
93213W        W36307  12.596  17.155   1.778 -0.0055  0.0067  0.0780
93214W        W36308  11.153  19.622   1.847 -0.1418  0.0089 -0.0875
93215W        W36309  11.079  21.281   0.084 -0.0706 -0.3427 -0.0438
93216W        W36310  11.705  19.023   1.263 -0.0185 -0.2324 -0.1911
93217W        W36311  13.566  18.943  31.099 -0.1136  0.0718 -0.2555
93218W        W36312  12.142  17.695   0.601  0.0430 -0.2546 -0.0325
93219W        W36313  11.766  17.791   1.657  0.1899 -0.5563 -0.2539
93220W        W36314  13.829  19.658  30.195 -0.0447  0.1759  0.0760
93221W        W36315  14.056  20.630  29.563 -0.1500 -0.1536 -0.1512
93222W        W36316  11.963  17.504   0.206 -0.1515  0.1134 -0.0507
93223W        W36317  14.428  20.434   2.340  0.1245  0.2632  0.1682
93224W        W36318  11.058  20.630  31.607  0.1285 -0.1415 -0.0995
93225W        W36319  12.411  19.843   2.353 -0.0024 -0.2325  0.0870
93226W        W36320  12.810  17.988   2.244  0.1576 -0.3465  0.1445
93227W        W36321  11.394  18.150  31.465 -0.0918  0.1047 -0.0460
93228W        W36322  12.410  19.578   0.659 -0.0961  0.0319  0.0517
93229W        W36323  13.256  20.482   1.149  0.1302 -0.1531  0.0642
93230W        W36324  14.326  21.452  30.551 -0.1112  0.0127 -0.0587
93231W        W36325  13.144  20.446  31.860 -0.1751 -0.0504  0.3713
93232W        W36326  12.439  21.274   1.891  0.0054  0.1054  0.0603
93233W        W36327  11.136  18.433   1.973 -0.0070  0.2501 -0.0005
93234W        W36328  14.327  19.604  30.814 -0.1976 -0.3983  0.1307
93235W        W36329  13.405  20.219   2.612  0.1737 -0.1704  0.2480
93236W        W36330  16.599  19.874   0.077  0.1750 -0.1098  0.0476
93237W        W36331  14.465  19.780   1.156 -0.3586  0.1432 -0.0615
93238W        W36332  13.491  19.115  31.603  0.0723  0.2353 -0.0666
93239W        W36333  11.614  18.118   4.350 -0.2471  0.1525  0.0737
93240W        W36334  12.227  20.720   2.545 -0.0250  0.2667  0.1108
93241W        W36335  15.094  20.109   0.280  0.4426  0.0989  0.0702
93242W        W36336  12.922  19.432  30.995  0.0206  0.1600  0.0015
93243W        W36337  13.231  18.974  30.283  0.0472  0.0697 -0.3220
93244W        W36338  13.658  20.847  30.297 -0.0475  0.4510 -0.0593
93245W        W36339  11.656  20.578   1.802 -0.1322  0.4577  0.2817
93246W        W36340  12.324  18.240  31.636 -0.2719  0.2169 -0.3109
93247W        W36341  11.724  20.203   1.219  0.1093 -0.3272  0.0704
93248W        W36342  13.686  20.482   0.064  0.0758  0.0735  0.0549
93249W        W36343  13.873  19.499   3.176 -0.3958 -0.0313 -0.1962
93250W        W36344  13.523  19.961   0.028  0.1667 -0.0398 -0.0153
93251W        W36345  15.771  19.889  31.799 -0.0722  0.0672 -0.0347
93252W        W36346  14.425  22.316   2.070  0.2136 -0.4537  0.1198
93253W        W36347  12.717  20.147   3.321  0.1968 -0.0124  0.2102
93254W        W36348  12.793  21.560   3.122  0.2304  0.1164  0.0633
93255W        W36349  14.892  19.148   2.153  0.1152 -0.2151  0.4523
93256W        W36350  11.573  17.394   2.099  0.0745  0.4557  0.1182
93257W        W36351  11.681  19.445   0.032 -0.1851 -0.3250 -0.0757
93258W        W36352  12.291  21.118  31.360 -0.0508 -0.1242 -0.0994
93259W        W36353  14.248  18.389   1.113  0.4052 -0.1246  0.1266
93260W        W36354  12.480  19.372  31.814 -0.0581 -0.0476 -0.1614
93261W        W36355  12.232  18.016  29.861 -0.0090  0.0983  0.0302
93262W        W36356  10.739  20.742   2.657 -0.1250 -0.0717  0.1492
93263W        W36357  13.962  20.339   1.726  0.1603 -0.2161 -0.0009
93264W        W36358  11.665  20.084   6.359 -0.1611  0.1192  0.1250
93265W        W36359  12.250  19.268   2.960  0.0408  0.0534 -0.3005
93266W        W36360  14.016  19.056   3.255  0.0134  0.2603 -0.2029
93267W        W36361  14.418  20.667   4.418  0.0345 -0.5691  0.0614
93268W        W36362  10.631  19.113   3.614  0.0355  0.1887 -0.1831
93269W        W36363  13.501  22.658   4.945 -0.0842  0.2119  0.2260
93270W        W36364  12.279  16.843   5.286 -0.0586  0.1056  0.1301
93271W        W36365  13.436  20.625   5.514  0.0281  0.0930  0.2132
93272W        W36366  14.545  21.112   5.259  0.0218  0.0227 -0.0750
93273W        W36367  13.369  19.602   3.232 -0.1509 -0.0204 -0.2078
93274W        W36368  12.087  20.313   5.975  0.2571  0.0939  0.1141
93275W        W36369  12.495  21.466   6.826 -0.3297  0.1086 -0.0804
93276W        W36370  12.995  17.518   2.426  0.2247  0.2183  0.2677
93277W        W36371  10.595  18.115   4.782 -0.0213  0.2167 -0.5551
93278W        W36372  13.563  19.333   5.750  0.1446  0.1210  0.1177
93279W        W36373  10.624  20.415   3.407 -0.1430 -0.2585  0.1857
93280W        W36374  11.174  18.402   5.224  0.1208 -0.0018 -0.0367
93281W        W36375  12.775  18.596   3.140 -0.2933  0.0597 -0.2454
93282W        W36376  12.777  22.884   3.989  0.1601  0.0985 -0.2822
93283W        W36377  12.191  18.401   6.851  0.1130  0.1833 -0.1373
93284W        W36378  11.581  16.300   6.677 -0.3285  0.2782 -0.0304
93285W        W36379  14.331  20.915   3.525  0.0218  0.3901 -0.0619
93286W        W36380  10.417  19.630   4.193 -0.0103 -0.1925 -0.0053
93287W        W36381  10.568  19.656   6.471  0.1259  0.1191 -0.0217
93288W        W36382  11.516  19.515   6.745  0.0749  0.1128 -0.0173
93289W        W36383  12.874  18.923   4.521 -0.3862 -0.4364 -0.0221
93290W        W36384  13.136  21.074   3.595 -0.3436 -0.0906  0.4683
93291W        W36385  11.259  21.159   3.193  0.3399 -0.2716 -0.2339
93292W        W36386  12.199  20.117   5.552 -0.0108  0.3225  0.0147
93293W        W36387  13.674  18.892   7.123  0.2762 -0.0114  0.2302
93294W        W36388  11.533  20.322   3.664 -0.2293 -0.1035 -0.1312
93295W        W36389  11.069  23.017   4.430 -0.2324 -0.2661  0.1434
93296W        W36390  10.796  21.259   2.797  0.2006 -0.2060 -0.1372
93297W        W36391  14.180  21.090   3.958 -0.3261  0.1135  0.0272
93298W        W36392  13.990  21.436   6.577  0.0552 -0.1124 -0.1978
93299W        W36393  12.203  21.952   6.724 -0.1853  0.3028 -0.0481
93300W        W36394  10.811  21.824   2.702  0.0668  0.0952 -0.0661
93301W        W36395  13.658  21.127   5.397 -0.1256  0.2173  0.0193
93302W        W36396  12.952  21.112   6.067  0.1845 -0.0537 -0.1727
93303W        W36397  12.607  19.783   4.033 -0.0115  0.1296  0.0888
93304W        W36398  11.885  21.071   4.469 -0.2741 -0.0158  0.2001
93305W        W36399  12.386  20.176   4.294  0.3589 -0.0650  0.1364
93306W        W36400  13.250  21.597   3.322 -0.1279 -0.0500  0.1004
93307W        W36401  12.614  19.163   6.480  0.0316 -0.0227 -0.0808
93308W        W36402  11.815  19.367   5.835 -0.4132  0.0229  0.2393
93309W        W36403  15.302  19.072   6.124 -0.1000 -0.1921 -0.1196
93310W        W36404  10.632  20.810   3.748 -0.0484 -0.2204 -0.2807
93311W        W36405  13.310  18.348   3.954  0.0537 -0.0444 -0.1893
93312W        W36406  13.439  18.933   2.601  0.0057  0.0450  0.0688
93313W        W36407  12.854  17.788   3.657  0.1279  0.0602  0.2808
93314W        W36408  12.397  18.733   4.552  0.0464  0.3171  0.3862
93315W        W36409  10.294  22.383   4.542 -0.3896 -0.2505 -0.0397
93316W        W36410  11.694  19.092   4.970  0.1069 -0.1447 -0.1083
93317W        W36411  15.024  20.102   5.216 -0.1824  0.2201 -0.0038
93318W        W36412  13.545  20.322   3.559  0.0893 -0.2626 -0.3260
93319W        W36413  12.079  19.795   5.906 -0.0449  0.1548 -0.0224
93320W        W36414  11.884  21.457   5.325 -0.1549 -0.3266 -0.2848
93321W        W36415  11.604  19.555   6.229  0.0379  0.0901 -0.0856
93322W        W36416  15.007  20.318   3.159 -0.2563 -0.1794 -0.3601
93323W        W36417  14.968  20.911   5.032 -0.1029 -0.2522  0.4386
93324W        W36418  12.293  19.971   3.690 -0.1451  0.0329 -0.0373
93325W        W36419  13.631  19.328   4.084  0.1481 -0.0921 -0.3588
93326W        W36420  11.000  20.563   6.048 -0.0732  0.1701  0.2557
93327W        W36421  11.479  18.563   6.102  0.0360 -0.1076  0.1742
93328W        W36422  12.255  18.527   2.391 -0.0320  0.0251  0.0654
93329W        W36423  14.754  21.044   6.096 -0.1288 -0.3364 -0.1356
93330W        W36424  11.321  20.978   6.173  0.1460  0.0021  0.0659
93331W        W36425  14.226  19.213   2.815 -0.2513 -0.1105 -0.2507
93332W        W36426  11.406  19.937   4.079 -0.1207 -0.3116  0.1400
93333W        W36427  13.478  21.497   5.134 -0.0905  0.0129 -0.0086
93334W        W36428  11.673  20.280   4.309  0.3640  0.2235 -0.2396
93335W        W36429  15.003  17.309   3.873  0.0473 -0.3188 -0.1215
93336W        W36430  12.227  19.103   5.838 -0.5308 -0.0177  0.1558
93337W        W36431  12.584  19.630   3.547 -0.1725  0.3685 -0.1704
93338W        W36432  11.372  20.321   4.741  0.2138 -0.2644  0.0563
93339W        W36433  14.812  21.290   6.761 -0.3301  0.0132  0.4047
93340W        W36434  13.637  19.756   3.689  0.3038 -0.1189 -0.1765
93341W        W36435  12.656  21.411   5.551 -0.4313 -0.2266  0.0204
93342W        W36436  11.766  18.593   6.598  0.2527  0.0807 -0.1173
93343W        W36437  12.698  20.592   6.203  0.1072 -0.1045 -0.1593
93344W        W36438  10.357  21.120   2.692  0.0725 -0.0041  0.2291
93345W        W36439  13.235  20.430   4.322  0.1572  0.2958  0.4318
93346W        W36440  11.499  18.754   3.881  0.0671  0.2560  0.0367
93347W        W36441  11.690  18.948   5.586 -0.1976  0.0835  0.2239
93348W        W36442  12.601  22.300   4.081  0.1406  0.4352 -0.0006
93349W        W36443  13.954  16.962   2.422 -0.1085  0.0365  0.0415
93350W        W36444  12.437  19.653   6.401 -0.1216 -0.0048  0.3933
93351W        W36445  13.910  18.286   4.577 -0.2607 -0.2488 -0.2466
93352W        W36446  12.007  19.880   4.242 -0.1456 -0.1008  0.0454
93353W        W36447  15.324  21.089   3.484  0.0982 -0.2300 -0.1024
93354W        W36448  13.526  19.132   3.067 -0.4785 -0.1932 -0.2182
93355W        W36449  14.023  21.556   3.798 -0.1463  0.0733  0.3947
93356W        W36450  10.992  19.283   5.611  0.1140 -0.2706 -0.1244
93357W        W36451  11.009  18.699   4.333 -0.1291 -0.0043  0.1839
93358W        W36452  12.577  18.115   7.072  0.2042  0.2029 -0.3691
93359W        W36453  10.273  18.047   5.145  0.1309 -0.1980  0.1583
93360W        W36454  12.566  19.505   5.057  0.0761  0.3600  0.1960
93361W        W36455  11.251  19.190   3.597  0.0435 -0.0088  0.0489
93362W        W36456  12.952  18.181   4.308 -0.1213  0.0846  0.0504
93363W        W36457  11.692  20.966   5.831  0.3570  0.0571  0.1613
93364W        W36458  11.143  21.592   4.069  0.1359  0.3124 -0.1048
93365W        W36459  13.606  18.971   6.567 -0.0793  0.2282  0.1243
93366W        W36460  14.430  21.533   4.431  0.0665  0.1454  0.0944
93367W        W36461  13.611  22.104   5.835  0.0382  0.1302 -0.2257
93368W        W36462  13.407  21.440   4.212  0.2912  0.0142 -0.2343
93369W        W36463  12.321  17.969   6.571  0.1829  0.1001 -0.2810
93370W        W36464  11.418  19.757   4.530 -0.0077 -0.3394  0.1015
93371W        W36465  12.165  21.414   4.900  0.0920  0.0990  0.0789
93372W        W36466  12.161  20.865   6.185 -0.0592 -0.0423  0.3345
93373W        W36467  11.252  18.252   3.965 -0.1673  0.0819 -0.0047
93374W        W36468  15.959  22.288   5.219 -0.1213 -0.2706 -0.1496
93375W        W36469  12.890  20.220   3.877  0.1766 -0.0950 -0.1901
93376W        W36470  10.874  20.038   5.723 -0.1938 -0.1758  0.0122
93377W        W36471  14.725  18.913   6.706 -0.2078  0.0871  0.6017
93378W        W36472  14.513  20.211   6.271 -0.0005  0.3903 -0.1795
93379W        W36473  12.839  20.465   4.681 -0.0345  0.0759 -0.0666
93380W        W36474  11.099  18.015   2.560 -0.0217 -0.5044 -0.0612
93381W        W36475  15.649  21.740   4.932  0.0330  0.0236  0.3344
93382W        W36476  12.103  20.623   4.336  0.2807 -0.4043  0.0402
93383W        W36477   8.833  20.105   4.706  0.0073 -0.2776 -0.1702
93384W        W36478  11.045  21.050   3.606  0.2169  0.1852 -0.2940
93385W        W36479  14.215  19.375   4.206  0.1864  0.4375  0.0117
93386W        W36480  11.252  20.375   6.466 -0.0049 -0.0224  0.0813
93387W        W36481  13.441  17.302   6.106  0.4767  0.2561  0.1720
93388W        W36482  11.749  19.891   3.606 -0.0436  0.3114 -0.1512
93389W        W36483  11.350  20.666   5.597 -0.2606 -0.2686  0.2452
93390W        W36484  14.300  18.640   3.166 -0.0109  0.0347  0.1555
93391W        W36485  14.013  18.373   2.306  0.1075 -0.1975  0.1773
93392W        W36486  13.397  19.853   6.519 -0.0748 -0.1438  0.1380
93393W        W36487  14.683  20.294   3.624 -0.1604 -0.0186  0.4949
93394W        W36488  12.621  18.811   2.642  0.1387  0.0093  0.2145
93395W        W36489  13.823  17.756   3.186 -0.0837 -0.4189 -0.2990
93396W        W36490  11.441  21.648   6.267  0.0986 -0.3790  0.1466
93397W        W36491  12.640  21.522   4.799 -0.4406 -0.2066 -0.3605
93398W        W36492  12.057  21.131   4.006  0.3980 -0.0191 -0.1343
93399W        W36493  12.861  17.576   4.195  0.3261 -0.0522  0.1103
93400W        W36494  13.660  20.781   2.506  0.1625 -0.3655 -0.4215
93401W        W36495  13.106  20.250   6.170 -0.3260 -0.0388 -0.1198
93402W        W36496  13.634  20.189   7.029 -0.2562 -0.0737  0.2197
93403W        W36497  14.556  21.158   4.748  0.0885 -0.1556  0.0847
93404W        W36498  10.974  19.557   6.162  0.2243 -0.1011 -0.0073
93405W        W36499  10.980  19.796   2.946  0.1321 -0.3649  0.0388
93406W        W36500  11.871  19.451   4.509  0.2591  0.0666 -0.0387
93407W        W36501  10.378  21.587   2.935 -0.1814  0.1360 -0.0067
93408W        W36502  13.821  18.513   5.866 -0.0914  0.1558  0.0422
93409W        W36503  12.696  19.110   5.454 -0.0037  0.1703 -0.1093
93410W        W36504  12.091  19.272   6.245 -0.3800  0.0217  0.1517
93411W        W36505  14.004  19.336   6.476  0.0611  0.3492  0.3405
93412W        W36506  13.045  19.308   2.413 -0.0463  0.0013 -0.0909
93413W        W36507  12.607  21.126   6.415 -0.0125  0.0145  0.2151
93414W        W36508  10.980  19.257   2.757  0.0055  0.3005  0.0578
93415W        W36509  13.061  19.469   5.592  0.5370 -0.2314  0.1680
93416W        W36510  10.169  19.341   7.200 -0.0491 -0.1394 -0.0279
93417W        W36511  12.226  22.615   4.140 -0.0430  0.3205  0.4091
93418W        W36512  15.494  20.872   5.387  0.3500  0.0759 -0.2779
93419W        W36513  12.301  20.929   4.715 -0.2658 -0.4165  0.1905
93420W        W36514  12.106  18.369   6.313 -0.1926  0.0899  0.1500
93421W        W36515  13.137  17.250   3.710 -0.1970  0.0429 -0.1328
93422W        W36516  12.195  20.980   3.539 -0.0154  0.3023  0.1008
93423W        W36517  11.750  21.275   3.576 -0.0927 -0.2461 -0.2005
93424W        W36518  12.198  19.098   4.792 -0.1110 -0.2228 -0.0993
93425W        W36519  12.577  22.908   4.457 -0.1081 -0.0690  0.2270
93426W        W36520  12.762  20.541   2.542  0.0988  0.0448  0.0972
93427W        W36521  14.671  20.592   6.533  0.0329 -0.0842  0.1033
93428W        W36522  10.518  21.055   4.199 -0.0737 -0.3507  0.2024
93429W        W36523  13.733  18.584   4.988 -0.1776  0.1564  0.1919
93430W        W36524  11.853  21.546   4.335 -0.1391  0.2092  0.2905
93431W        W36525  11.549  19.802   3.059 -0.1831 -0.1651 -0.0614
93432W        W36526  11.582  19.451   4.114  0.0141  0.1555 -0.2433
93433W        W36527  14.084  17.951   3.670  0.3918 -0.2131  0.0222
93434W        W36528  13.700  19.367   2.638 -0.1270 -0.1669  0.3965
93435W        W36529  12.087  19.097   5.324 -0.2282 -0.0479 -0.0299
93436W        W36530  12.252  19.920   5.133  0.0888  0.1884 -0.1829
93437W        W36531  11.712  21.622   4.899 -0.3170 -0.0520  0.4630
93438W        W36532  14.132  19.956   6.438  0.1318  0.2960 -0.0680
93439W        W36533  14.992  18.029   2.609  0.0387 -0.2847  0.0775
93440W        W36534  12.397  21.067   5.228 -0.0345 -0.1051  0.1738
93441W        W36535  11.241  19.986   6.124 -0.1146 -0.0960  0.2420
93442W        W36536  11.011  18.736   3.754  0.0210  0.1374 -0.0416
93443W        W36537  13.211  19.022   5.456  0.2308 -0.0283 -0.1007
93444W        W36538  13.130  19.395   4.078 -0.1351  0.4004 -0.2939
93445W        W36539  11.632  20.650   4.019  0.1168  0.0712 -0.2266
93446W        W36540  13.273  21.816   4.549  0.0743  0.3607 -0.0711
93447W        W36541  12.693  18.712   4.094 -0.2271  0.2914 -0.0801
93448W        W36542  10.460  20.786   3.158  0.0559  0.1790  0.3299
93449W        W36543  12.740  18.914   7.339  0.2614  0.0142  0.3140
93450W        W36544  13.479  20.152   5.178 -0.1129  0.2265  0.0337
93451W        W36545  12.671  18.920   5.031  0.0064  0.0277  0.0686
93452W        W36546  13.037  18.798   3.741 -0.1952  0.1993 -0.0851
93453W        W36547  11.838  20.258   5.161  0.2001 -0.1091  0.0122
93454W        W36548  14.101  21.200   6.040 -0.3173  0.4386  0.0817
93455W        W36549  12.921  20.715   6.821  0.0550 -0.0602  0.0922
93456W        W36550  11.955  22.024   5.078  0.3102 -0.0175 -0.3555
93457W        W36551  12.294  17.844   5.170 -0.0035 -0.1317 -0.0623
93458W        W36552  15.347  20.572   4.390 -0.1675 -0.2100 -0.1354
93459W        W36553  13.189  20.757   6.354  0.0471  0.2769 -0.2097
93460W        W36554  12.494  19.416   2.512 -0.1311  0.1627 -0.3707
93461W        W36555  10.137  20.425   5.773 -0.2519  0.0592 -0.2349
93462W        W36556  11.732  19.370   3.328  0.3683 -0.1317  0.1888
93463W        W36557  13.164  19.303   5.018  0.2201  0.0975  0.0085
93464W        W36558  11.787  21.046   4.997 -0.0397 -0.0753 -0.0515
93465W        W36559  11.915  21.946   3.543 -0.0590  0.0081 -0.0424
93466W        W36560  12.286  19.521   5.483 -0.0668 -0.0183 -0.0465
93467W        W36561  13.811  18.392   3.993  0.1312  0.3114 -0.0059
93468W        W36562  12.820  22.080   4.493  0.1123  0.2090 -0.3471
93469W        W36563  12.828  18.272   3.786  0.1690 -0.3503 -0.0498
93470W        W36564  13.122  19.817   5.247 -0.0092 -0.1621 -0.4446
93471W        W36565  13.524  20.147   4.015  0.0724  0.2343  0.0513
93472W        W36566  13.483  19.216   3.581 -0.1938  0.2393 -0.0611
93473W        W36567  11.034  17.716   5.531  0.0554 -0.3227 -0.2789
93474W        W36568  13.635  21.040   4.318  0.1962  0.3534 -0.0419
93475W        W36569  11.684  18.984   6.303  0.3544 -0.3086 -0.4423
93476W        W36570  13.314  21.400   7.276  0.0018 -0.2107 -0.1758
93477W        W36571  11.475  20.109   6.836  0.0180 -0.1209  0.0619
93478W        W36572  13.370  19.085   4.420  0.0987 -0.1343  0.2172
93479W        W36573  11.740  17.232   3.270  0.1154  0.0242 -0.1089
93480W        W36574  13.526  21.652   6.541  0.2132 -0.3874 -0.2025
93481W        W36575  14.150  21.084   4.500 -0.1475 -0.0634  0.2586
93482W        W36576  14.138  20.417   3.334  0.1694 -0.0574 -0.1668
93483W        W36577  13.779  20.128   4.522  0.0086  0.1612 -0.1810
93484W        W36578  12.094  20.672   5.106  0.0498 -0.0517  0.1520
93485W        W36579  13.937  19.807   4.065  0.1942  0.3359 -0.0327
93486W        W36580  13.145  20.505   3.367  0.0365 -0.0036 -0.3109
93487W        W36581  12.401  20.688   5.789 -0.0829 -0.1832  0.0650
93488W        W36582  12.350  17.649   5.657 -0.0443  0.2398 -0.1755
93489W        W36583  13.234  20.334   6.731  0.1655 -0.1056  0.0592
93490W        W36584  14.197  19.025   4.677  0.2920  0.2534  0.0265
93491W        W36585  12.678  19.908   5.425 -0.1770  0.0005 -0.1970
93492W        W36586  12.515  20.348   5.240  0.2112 -0.0836 -0.1827
93493W        W36587  12.342  20.560   6.836  0.0652 -0.4331  0.0423
93494W        W36588  12.012  18.492   7.598 -0.3159 -0.0163 -0.0558
93495W        W36589  13.292  21.604   6.059 -0.1428 -0.0811 -0.0533
93496W        W36590  13.564  18.096   3.549 -0.3209  0.1635  0.3729
93497W        W36591  12.976  19.998   4.333 -0.1639  0.0553 -0.1290
93498W        W36592  13.565  21.185   3.810  0.0681 -0.1281  0.0422
93499W        W36593  11.498  19.080   4.537  0.0435 -0.1677  0.2753
93500W        W36594  11.914  19.978   4.709 -0.3359  0.0163  0.2334
93501W        W36595  13.890  21.044   6.832  0.1263 -0.1254 -0.1057
93502W        W36596  12.234  18.885   3.977 -0.0505  0.0004  0.0133
93503W        W36597  13.052  18.534   5.325 -0.1631 -0.3024 -0.5318
93504W        W36598  12.516  21.164   3.180  0.0369  0.0738 -0.1107
93505W        W36599  13.238  20.143   4.738 -0.3115 -0.0726  0.1629
93506W        W36600  13.860  19.387   4.526  0.2607 -0.0787  0.2233
93507W        W36601  10.146  18.160   4.471  0.0691  0.0366 -0.0349
93508W        W36602  12.163  21.169   5.696  0.0240 -0.2332  0.0984
93509W        W36603  10.840  19.600   3.760  0.1675  0.2005  0.0131
93510W        W36604  12.187  20.641   3.085  0.0436  0.1276  0.1099
93511W        W36605  13.063  21.691   6.932 -0.0795 -0.0056  0.0153
93512W        W36606  14.323  21.025   6.491  0.0304  0.2153  0.0554
93513W        W36607  13.278  16.821   3.192 -0.1184 -0.3815 -0.2155
93514W        W36608  13.547  19.433   6.278  0.1328  0.0019  0.1684
93515W        W36609  11.003  20.665   3.308 -0.2142  0.0181  0.1561
93516W        W36610  13.258  18.802   4.928 -0.1199  0.0072 -0.2077
93517W        W36611  10.744  22.870   4.887  0.0681 -0.1476  0.0730
93518W        W36612  10.394  20.448   6.220 -0.1313 -0.1118 -0.1110
93519W        W36613  11.436  21.908   4.368  0.1185  0.1067  0.0169
93520W        W36614  11.275  19.139   6.009 -0.0410 -0.0390 -0.0313
93521W        W36615  13.089  19.724   6.009  0.0038  0.4568  0.4250
93522W        W36616  12.729  21.030   4.407 -0.1496  0.3223  0.1023
93523W        W36617  15.140  20.456   4.824  0.1846 -0.0135  0.1322
93524W        W36618  13.047  18.488   6.597  0.0801 -0.0915  0.1942
93525W        W36619  11.085  20.315   4.322  0.0963  0.2675 -0.1886
93526W        W36620  13.022  21.870   5.732 -0.0773 -0.1621  0.4356
93527W        W36621  14.012  20.323   6.092 -0.0578 -0.0527 -0.1461
93528W        W36622  12.430  22.029   4.942  0.0254 -0.3195  0.3220
93529W        W36623  10.828  20.152   6.368  0.0221  0.1408 -0.2147
93530W        W36624  12.609  20.067   5.963  0.3425  0.1032 -0.1235
93531W        W36625  12.810  20.669   4.101 -0.1323  0.0758 -0.2471
93532W        W36626  11.937  18.377   4.571 -0.1116  0.1656  0.1733
93533W        W36627  14.104  19.800   3.449  0.1026  0.1607  0.0228
93534W        W36628  11.524  19.926   7.517  0.0668 -0.2055 -0.4114
93535W        W36629  10.659  20.020   5.092  0.0471 -0.2998 -0.0970
93536W        W36630  11.344  22.060   2.890 -0.0538 -0.1111  0.0119
93537W        W36631  12.575  21.055   3.862 -0.0900 -0.0062 -0.4067
93538W        W36632  14.106  20.967   5.064 -0.1573  0.1172 -0.0009
93539W        W36633  13.802  21.717   6.135  0.0894 -0.1627  0.0734
93540W        W36634  13.514  18.838   3.949 -0.1897 -0.1184  0.0617
93541W        W36635  11.778  21.464   5.868 -0.1542 -0.1070  0.0437
93542W        W36636  10.636  21.095   2.248 -0.3573  0.1881 -0.2907
93543W        W36637  14.105  21.510   4.883  0.0793 -0.0134  0.4464
93544W        W36638  10.893  22.137   4.524 -0.0798 -0.0190 -0.3370
93545W        W36639  13.846  20.757   6.385 -0.2758 -0.1246  0.1233
93546W        W36640  14.009  16.846   3.264  0.0463  0.0710 -0.2897
93547W        W36641  13.164  21.019   4.097  0.2162  0.1107 -0.2428
93548W        W36642  13.396  17.618   2.891  0.1213 -0.1037  0.2825
93549W        W36643  13.018  21.094   7.543 -0.0718 -0.1419  0.0033
93550W        W36644  12.263  20.206   6.444  0.0359  0.0980  0.2023
93551W        W36645  11.970  18.464   4.096  0.2743  0.1462  0.2377
93552W        W36646  13.200  19.692   7.488  0.0540  0.1571  0.0298
93553W        W36647  13.866  19.028   6.060 -0.2198  0.0885  0.0177
93554W        W36648  11.372  21.152   5.313  0.1039  0.0557  0.1668
93555W        W36649  13.026  21.352   2.743 -0.2002 -0.0269  0.2115
93556W        W36650  11.233  19.008   5.259 -0.0443  0.1505  0.1959
93557W        W36651  13.012  19.312   3.530 -0.1892  0.4729 -0.0544
93558W        W36652  13.693  17.677   5.742 -0.1487  0.0061  0.0203
93559W        W36653  13.198  20.627   2.891  0.1095  0.1788 -0.2247
93560W        W36654  13.643  19.709   4.902 -0.2579  0.2269 -0.2325
93561W        W36655  11.667  23.220   4.377  0.2838 -0.4495 -0.2366
93562W        W36656  11.509  19.823   5.023  0.1941  0.0283  0.1694
93563W        W36657  11.361  21.944   5.858 -0.0405  0.1143  0.4006
93564W        W36658  10.484  17.923   4.209 -0.0512 -0.0617 -0.0018
93565W        W36659  14.799  18.219   4.096  0.1450  0.0150 -0.3955
93566W        W36660  12.517  19.245   4.378  0.1298 -0.0117  0.2525
93567W        W36661  12.536  17.852   4.551  0.0389  0.1108 -0.4514
93568W        W36662  12.001  19.512   4.985  0.1434 -0.2160 -0.1660
93569W        W36663  13.949  18.909   4.118 -0.1356 -0.0324 -0.1471
93570W        W36664  13.219  20.140   5.677  0.3129  0.2042  0.1852
93571W        W36665  11.727  21.106   6.420 -0.1245  0.0798 -0.2731
93572W        W36666  12.106  20.281   2.289 -0.3424  0.0722 -0.1162
93573W        W36667  14.711  20.755   7.497  0.1712  0.0742 -0.1672
93574W        W36668  12.309  19.457   1.968 -0.1025 -0.1237  0.0661
93575W        W36669  13.963  22.007   7.196 -0.0191  0.0874  0.1409
93576W        W36670  11.497  18.030   5.291 -0.1535  0.0828 -0.0734
93577W        W36671  13.515  18.109   3.015  0.1384  0.4072 -0.3432
93578W        W36672  12.144  19.658   3.283  0.0481  0.1190  0.2861
93579W        W36673  12.973  19.222   6.843  0.1350  0.3234 -0.1655
93580W        W36674  14.460  20.239   5.221 -0.1221  0.2002 -0.0361
93581W        W36675  11.804  17.638   5.145  0.0013  0.0424  0.0553
93582W        W36676  13.612  20.060   2.027 -0.0725  0.3781  0.0243
93583W        W36677  13.936  20.149   4.983 -0.2153 -0.0140  0.0182
93584W        W36678  12.257  22.576   2.618  0.1994 -0.0335 -0.0960
93585W        W36679  13.981  19.297   3.739 -0.1538 -0.1165  0.0622
93586W        W36680  14.218  21.617   5.801 -0.1524 -0.3759  0.0853
93587W        W36681  11.245  18.583   7.069  0.1833  0.1341 -0.1824
93588W        W36682  13.136  21.864   5.032 -0.3129  0.0752  0.1098
93589W        W36683  14.621  19.870   4.842 -0.1243 -0.0157 -0.1468
93590W        W36684  12.331  18.168   3.748  0.2452 -0.1532 -0.0678
93591W        W36685  12.514  21.362   6.010 -0.2620  0.2327 -0.0668
93592W        W36686  12.039  21.629   3.877  0.0663  0.1899  0.1435
93593W        W36687  14.153  19.501   4.967 -0.1433 -0.2116 -0.0605
93594W        W36688  13.693  20.295   6.514 -0.2585  0.0739 -0.2535
93595W        W36689  11.447  20.794   3.524  0.1409 -0.0514 -0.4243
93596W        W36690  15.161  17.748   6.360  0.1946  0.1778  0.1941
93597W        W36691  11.937  21.939   6.167 -0.3975  0.2407  0.1742
93598W        W36692  12.746  21.590   7.286  0.1812  0.0974 -0.0877
93599W        W36693  12.917  19.580   3.156  0.0059  0.0671  0.1864
93600W        W36694  12.747  20.788   5.418 -0.3619 -0.1176 -0.1514
93601W        W36695  13.390  20.625   4.934  0.3484  0.1342 -0.1477
93602W        W36696  13.958  21.519   4.308 -0.5061 -0.1057 -0.1739
93603W        W36697  14.873  22.438   4.540 -0.0391  0.1358 -0.0294
93604W        W36698  13.828  20.801   3.655 -0.0443 -0.1591 -0.3158
93605W        W36699  13.841  20.634   4.761  0.2537  0.1231 -0.1873
93606W        W36700  12.390  20.452   3.727  0.0352  0.0826 -0.2008
93607W        W36701  14.641  19.025   3.360 -0.2758  0.0105 -0.1276
93608W        W36702  15.074  17.418   3.116 -0.5366 -0.0639 -0.0267
93609W        W36703  12.175  21.021   6.671  0.0845  0.0108 -0.2765
93610W        W36704  11.970  20.239   3.950  0.2221 -0.3123  0.0614
93611W        W36705  11.245  20.690   2.844 -0.2007  0.2228  0.1249
93612W        W36706  10.904  20.887   5.210  0.0671  0.1741  0.0410
93613W        W36707  12.766  17.295   5.896  0.2525  0.2103 -0.0580
93614W        W36708  11.128  19.809   6.631 -0.4420 -0.0779 -0.1027
93615W        W36709  10.828  19.414   3.309 -0.0480 -0.0329 -0.0847
93616W        W36710  11.011  17.956   5.075  0.1100  0.0450  0.0579
93617W        W36711  13.878  20.396   2.366 -0.0072  0.0914  0.2217
93618W        W36712  11.621  18.641   5.184 -0.2579 -0.4329 -0.2333
93619W        W36713  11.074  18.226   4.534 -0.1708  0.1102  0.1641
93620W        W36714  13.660  21.117   4.834 -0.0222 -0.2564 -0.0153
93621W        W36715  13.512  21.073   2.870  0.0737 -0.2335 -0.5182
93622W        W36716  12.962  17.972   2.939  0.2033 -0.1299 -0.1720
93623W        W36717  15.129  22.184   5.699  0.3000 -0.2532  0.0166
93624W        W36718  12.082  20.866   1.934 -0.0982 -0.0568 -0.0737
93625W        W36719  12.952  18.902   8.001 -0.1468 -0.3106  0.0586
93626W        W36720  11.980  18.492   5.525 -0.0593 -0.0574 -0.3455
93627W        W36721  11.448  18.825   3.364 -0.4107  0.1314  0.0829
93628W        W36722  12.749  20.879   4.907  0.0544 -0.0916 -0.2939
93629W        W36723  13.187  20.848   4.575  0.0772  0.2122 -0.2394
93630W        W36724  12.082  21.441   3.303 -0.0526 -0.1389  0.1304
93631W        W36725  13.881  21.449   7.113  0.0353 -0.0177  0.0463
93632W        W36726  12.345  20.284   4.770  0.0542  0.1174  0.0749
93633W        W36727  11.159  18.874   6.429  0.0597  0.0928 -0.0037
93634W        W36728  13.965  20.551   4.210 -0.0169 -0.1293 -0.0734
93635W        W36729  12.420  22.009   6.288 -0.3336 -0.3310  0.1889
93636W        W36730  13.998  20.168   3.751 -0.0868 -0.0113 -0.2194
93637W        W36731  14.772  18.927   2.883  0.1012  0.0817 -0.0376
93638W        W36732  13.529  20.840   3.301 -0.1126 -0.1818  0.1279
93639W        W36733  11.823  18.107   7.042  0.1526 -0.0147  0.0774
93640W        W36734  10.607  21.165   6.703  0.0925 -0.1796  0.4074
93641W        W36735  14.010  22.293   6.272 -0.1401  0.0020 -0.0664
93642W        W36736  12.185  19.181   3.447 -0.2765 -0.1562  0.0433
93643W        W36737  13.316  17.793   3.979  0.0072 -0.0572  0.1007
93644W        W36738  12.406  19.741   4.674  0.1145 -0.0523 -0.1670
93645W        W36739  12.650  19.073   3.307 -0.0493  0.0221  0.1643
93646W        W36740  11.918  19.183   6.754 -0.4368  0.0549  0.1626
93647W        W36741  11.802  20.595   4.752  0.0812  0.1265  0.1610
93648W        W36742  13.208  20.404   7.252 -0.2278  0.1044 -0.3550
93649W        W36743  11.805  20.526   5.596 -0.0620  0.0458  0.0712
93650W        W36744  13.175  20.043   3.102 -0.3905 -0.2887 -0.0906
93651W        W36745  12.850  21.817   6.259 -0.0821 -0.1169 -0.2293
93652W        W36746  14.068  21.651   7.533  0.1393 -0.1203 -0.0097
93653W        W36747  13.209  21.418   5.585  0.1052 -0.1013 -0.0910
93654W        W36748  12.985  20.442   5.185  0.4673 -0.1283  0.2957
93655W        W36749  11.234  18.074   6.272 -0.0188  0.0671 -0.3846
93656W        W36750  12.223  19.500   3.880  0.0251 -0.1910  0.0005
93657W        W36751  13.080  19.801   3.603  0.0073  0.2006 -0.1103
93658W        W36752  12.775  20.223   6.508 -0.0334 -0.0216  0.4072
93659W        W36753  12.628  19.120   3.836 -0.2520 -0.1403 -0.2612
93660W        W36754  14.641  18.884   4.531  0.1032  0.5282 -0.1207
93661W        W36755  12.738  21.920   5.317  0.0609  0.0383 -0.1418
93662W        W36756  13.465  19.757   4.326 -0.0297  0.0474 -0.0459
93663W        W36757  11.574  20.538   8.953  0.0038 -0.2460 -0.0457
93664W        W36758  12.265  18.391   8.067  0.1214 -0.1044  0.1563
93665W        W36759  13.925  18.140   7.369  0.0434 -0.2311  0.0342
93666W        W36760  13.665  20.556   7.500  0.3287  0.0882 -0.0733
93667W        W36761  11.773  19.236   8.350 -0.1410  0.3145 -0.0142
93668W        W36762  13.432  21.860   8.101  0.1266  0.0056 -0.0021
93669W        W36763  13.942  20.159   7.699 -0.0158 -0.2413 -0.2426
93670W        W36764  12.166  20.131   9.721  0.0158  0.2883  0.2009
93671W        W36765  13.905  20.565   5.298  0.2690  0.3674 -0.0918
93672W        W36766  15.126  17.999   9.560  0.0689 -0.1360 -0.0012
93673W        W36767  11.572  17.136   6.501  0.0806 -0.0550 -0.0542
93674W        W36768  11.294  17.360   9.146 -0.0501  0.1377 -0.2325
93675W        W36769  12.459  20.176   8.873  0.1094 -0.4020 -0.4146
93676W        W36770  11.114  19.720   7.766 -0.0576  0.0949  0.1389
93677W        W36771  10.719  19.642   9.615  0.0608 -0.0796 -0.1891
93678W        W36772  11.919  18.059   8.466  0.0578 -0.2713 -0.1425
93679W        W36773  11.991  20.299   7.619  0.1043 -0.1726  0.0409
93680W        W36774  13.420  20.060   8.863  0.2596  0.1135  0.1188
93681W        W36775  13.430  21.238   6.820  0.1272  0.1216 -0.0260
93682W        W36776  11.580  18.912   7.900 -0.1584 -0.1543 -0.1146
93683W        W36777  11.120  18.232   9.533  0.0747  0.0293  0.4078
93684W        W36778  10.959  20.888  10.166  0.1324 -0.1394  0.1049
93685W        W36779  13.570  19.065   9.266 -0.1899 -0.0098 -0.0086
93686W        W36780  12.620  18.999   8.745 -0.1063 -0.0259  0.1769
93687W        W36781  12.779  21.323   8.283 -0.0535 -0.1374  0.2496
93688W        W36782  12.411  20.502   7.430  0.1415  0.1069  0.0713
93689W        W36783  10.876  18.517   7.995 -0.1402 -0.1222 -0.2030
93690W        W36784  11.400  23.340   9.138 -0.1378 -0.0230 -0.1726
93691W        W36785  12.748  20.564   8.833  0.0916  0.0723 -0.0464
93692W        W36786  13.515  20.956   7.803 -0.0912 -0.1388  0.0802
93693W        W36787  11.995  20.258   7.122  0.1727  0.0467  0.0359
93694W        W36788  12.868  20.225   8.059 -0.2265 -0.0327 -0.0454
93695W        W36789  12.359  19.956   6.850  0.2122  0.1805  0.0785
93696W        W36790  11.894  20.549   6.477  0.0514  0.2196  0.0067
93697W        W36791  12.524  18.812   9.253 -0.1274  0.0810  0.1865
93698W        W36792  12.757  20.182   9.924  0.0468  0.1784 -0.0203
93699W        W36793  12.257  21.219   8.076 -0.1277 -0.1268 -0.0013
93700W        W36794  12.949  19.597   6.495  0.2173  0.1602  0.0309
93701W        W36795  12.393  18.585   7.289 -0.1875  0.0145  0.1920
93702W        W36796  13.436  19.429   6.833  0.0392  0.2379  0.1851
93703W        W36797  12.820  18.060   7.905  0.1165 -0.0202 -0.0903
93704W        W36798  12.179  22.198   8.170 -0.1382  0.4709 -0.2157
93705W        W36799  11.336  17.872   9.208  0.2845 -0.0774  0.0557
93706W        W36800  13.193  19.192   8.360 -0.0903 -0.0418  0.2386
93707W        W36801  13.520  19.873   8.020  0.1070  0.0982  0.2312
93708W        W36802  10.732  20.888   9.209 -0.2379  0.0275 -0.0134
93709W        W36803   8.463  16.960   9.547  0.1822 -0.4887  0.0280
93710W        W36804  14.372  21.965   7.979 -0.1289 -0.0799  0.0381
93711W        W36805  15.533  20.296   8.995  0.0120  0.1967  0.0427
93712W        W36806  13.738  21.389   7.939 -0.2721 -0.1457 -0.2200
93713W        W36807  11.123  18.267   8.976 -0.0811 -0.1533  0.3096
93714W        W36808  12.171  17.482   7.163 -0.0494 -0.2049 -0.0138
93715W        W36809  14.587  18.929   7.976  0.4038 -0.0853 -0.1585
93716W        W36810  12.026  18.755   9.581  0.0008  0.0122  0.0269
93717W        W36811  15.439  19.636   8.339 -0.0304  0.3951 -0.2600
93718W        W36812  12.891  19.296   7.587  0.1067  0.0613  0.0521
93719W        W36813  13.594  18.121   8.749  0.1681  0.0710  0.0828
93720W        W36814  15.311  18.108   8.150 -0.0882 -0.1541 -0.1243
93721W        W36815  11.562  19.849   8.098 -0.2560 -0.0471 -0.4156
93722W        W36816  12.677  18.555   7.761  0.1661 -0.2371  0.0389
93723W        W36817  14.033  20.792   8.916  0.1683  0.0934  0.0484
93724W        W36818  12.953  19.091   5.903 -0.2090  0.6073  0.2484
93725W        W36819  13.020  19.116   9.709 -0.1558  0.5154  0.0780
93726W        W36820  11.762  21.831   7.414 -0.0638 -0.0593  0.1363
93727W        W36821  11.104  20.033   8.847  0.2965  0.0278  0.0170
93728W        W36822  11.671  20.044   5.828 -0.0667  0.0827  0.1569
93729W        W36823  11.455  16.963   9.490  0.0334 -0.2752 -0.1495
93730W        W36824  11.973  19.805   7.661 -0.0410 -0.1490 -0.1332
93731W        W36825  14.424  18.534   7.699  0.0467  0.0561 -0.3601
93732W        W36826  15.973  16.466   9.435 -0.3294  0.0341 -0.1780
93733W        W36827  11.638  19.120   7.156  0.3043  0.0676  0.1215
93734W        W36828  14.330  22.402   8.158 -0.3352  0.1323  0.3141
93735W        W36829  14.916  20.199   7.306  0.3674 -0.1633 -0.0874
93736W        W36830  13.542  21.167   6.353  0.2342 -0.0671  0.3676
93737W        W36831  11.577  18.336   9.295 -0.0679 -0.0354 -0.0801
93738W        W36832  11.574  17.626   8.626 -0.5020 -0.1128  0.1618
93739W        W36833  10.651  18.004   9.319  0.1350  0.2053  0.1121
93740W        W36834  11.235  17.196   7.855 -0.0231  0.2658 -0.2103
93741W        W36835  12.575  18.493   8.821  0.1210 -0.0800  0.4388
93742W        W36836  12.877  20.134   7.533  0.0230 -0.1154 -0.3596
93743W        W36837  10.959  21.779   8.946 -0.0303 -0.1930  0.0990
93744W        W36838  12.106  21.499   6.363 -0.0852  0.3655 -0.1960
93745W        W36839  15.132  18.958   7.934  0.4311  0.1102  0.2174
93746W        W36840  15.883  21.339   8.143 -0.0170 -0.1561  0.1309
93747W        W36841  10.492  17.551   9.459  0.3988 -0.0012 -0.0022
93748W        W36842  12.889  17.969   6.684 -0.0116  0.0492  0.0727
93749W        W36843  11.441  21.884   9.910 -0.1397 -0.1935  0.1419
93750W        W36844  12.429  20.241   7.873 -0.3300  0.0068 -0.0539
93751W        W36845  12.401  18.173   7.631 -0.1384  0.1010 -0.2148
93752W        W36846  15.867  19.922   9.158 -0.2628 -0.1152 -0.1027
93753W        W36847  14.078  19.000   7.772 -0.1384  0.1364  0.0225
93754W        W36848  13.850  20.111   8.294 -0.2139 -0.1431 -0.3174
93755W        W36849  13.833  18.066   8.298  0.2527  0.1391  0.0233
93756W        W36850  11.407  18.369   7.864  0.0634 -0.1218  0.2683
93757W        W36851  14.259  22.352   8.616 -0.2948 -0.1400 -0.2416
93758W        W36852  10.819  21.574   6.892 -0.2270 -0.2981  0.1197
93759W        W36853  12.595  19.303   9.159  0.0824 -0.3646  0.1360
93760W        W36854  11.362  21.709   7.712 -0.0169  0.1269 -0.0484
93761W        W36855  14.701  20.036   8.174 -0.3184  0.1897 -0.1066
93762W        W36856  10.850  18.947   8.333 -0.1544 -0.1199 -0.1353
93763W        W36857  13.691  17.433   7.225  0.1585 -0.0890 -0.1429
93764W        W36858  13.967  19.644   7.956 -0.2568 -0.0296 -0.1570
93765W        W36859  13.852  21.074   7.427  0.2812  0.1174  0.0959
93766W        W36860  14.734  17.638   6.634  0.1707 -0.0919  0.0920
93767W        W36861  13.465  18.104   6.545  0.0366 -0.0349 -0.1112
93768W        W36862  12.362  20.761   9.251  0.4366  0.3940 -0.0364
93769W        W36863  11.280  19.286   8.152 -0.3521 -0.0789  0.1020
93770W        W36864  12.619  18.834   6.860 -0.0775  0.1709 -0.1657
93771W        W36865  15.330  20.496   8.548  0.0601 -0.2845 -0.0705
93772W        W36866   2.765  19.065   9.454 -0.1830  0.1610 -0.0581
93773W        W36867  13.396  20.893   9.151 -0.0206  0.0835  0.0561
93774W        W36868  13.536  18.971   9.745  0.5432  0.1865 -0.1570
93775W        W36869  11.036  19.337   6.713  0.0414  0.1862 -0.3171
93776W        W36870  14.206  18.161   7.972 -0.0464  0.3514 -0.0225
93777W        W36871  10.422  22.600   6.650 -0.0608 -0.1591 -0.0762
93778W        W36872  14.929  19.784   8.492 -0.3336  0.0436 -0.1172
93779W        W36873  11.923  20.195   8.708 -0.1882 -0.5083 -0.0886
93780W        W36874  12.566  19.761   7.750 -0.2954  0.2747  0.2204
93781W        W36875  13.214  18.296   8.445  0.0019  0.2485  0.1098
93782W        W36876  11.480  18.929   6.766  0.2061  0.4059  0.0179
93783W        W36877  14.205  19.541   9.040  0.2692 -0.0136 -0.1715
93784W        W36878   8.111  22.658   8.887  0.4054 -0.2129  0.1698
93785W        W36879  12.845  20.703   7.308 -0.1199  0.3191 -0.3441
93786W        W36880  13.660  18.304   7.854 -0.0942  0.0794 -0.3689
93787W        W36881  11.316  21.726   7.167 -0.3756 -0.2043  0.2790
93788W        W36882  13.219  22.451   5.912  0.2774  0.2807 -0.0227
93789W        W36883  13.082  17.390   8.872 -0.1220  0.1457 -0.1132
93790W        W36884  13.327  19.904   9.470  0.0830 -0.2268 -0.1610
93791W        W36885  12.351  19.420   6.851 -0.2627 -0.0350 -0.0050
93792W        W36886  13.299  19.886   6.987  0.1578 -0.0476  0.3798
93793W        W36887  11.173  20.480   8.604  0.1313 -0.1146 -0.0750
93794W        W36888  13.041  18.762   8.477 -0.0080  0.2134  0.4658
93795W        W36889  11.105  20.560   9.130  0.0127 -0.1365  0.0987
93796W        W36890  11.778  17.230   6.967 -0.1297 -0.2493  0.0459
93797W        W36891  11.016  19.796   8.335 -0.1738  0.0920 -0.0478
93798W        W36892  14.027  18.832   8.564 -0.2515 -0.0173 -0.0228
93799W        W36893  12.791  20.216   7.054 -0.2120  0.3302  0.1705
93800W        W36894  10.293  19.942   9.267  0.0672  0.3380 -0.1536
93801W        W36895  12.163  18.397   9.077  0.1277  0.2082 -0.0365
93802W        W36896  12.001  19.684   8.238  0.1830  0.1354 -0.4983
93803W        W36897  13.234  17.633   6.623  0.4338  0.0623 -0.1693
93804W        W36898  11.034  18.370   7.514 -0.1350 -0.2223 -0.0013
93805W        W36899  13.549  19.476   9.582 -0.1608  0.0664 -0.0112
93806W        W36900  12.501  19.023   9.713 -0.2220  0.2085 -0.1465
93807W        W36901  10.785  19.442   8.614  0.0623 -0.2336  0.0699
93808W        W36902  12.922  20.685   9.277 -0.1920 -0.1077  0.0891
93809W        W36903  12.068  18.854   8.071 -0.0942  0.2507  0.1224
93810W        W36904  12.398  22.038   8.977 -0.1842 -0.1668  0.0212
93811W        W36905  15.463  19.580   9.179  0.0435  0.1038 -0.2269
93812W        W36906  13.175  19.380   9.314 -0.1504 -0.1094 -0.1337
93813W        W36907  12.334  17.998   8.789  0.1523  0.1020  0.0464
93814W        W36908  13.746  20.209   9.649  0.1811 -0.1077 -0.1201
93815W        W36909  12.089  19.314   9.246 -0.2368 -0.0816 -0.0888
93816W        W36910  11.680  20.572   8.465  0.0608 -0.0595  0.0953
93817W        W36911  14.531  16.837   9.340 -0.1173  0.0067  0.0910
93818W        W36912  14.906  21.254   7.763 -0.1595  0.0117 -0.0630
93819W        W36913  11.431  19.581   8.526 -0.2153  0.2191  0.0327
93820W        W36914  13.745  20.409   8.755  0.1261 -0.0509 -0.0178
93821W        W36915  12.659  21.449   7.761  0.3272 -0.0238 -0.0957
93822W        W36916  13.660  18.604   8.357 -0.1509  0.1705 -0.3184
93823W        W36917  11.294  20.250   8.078 -0.0065  0.1536  0.0146
93824W        W36918  11.966  19.689   6.534 -0.2559  0.2234 -0.0988
93825W        W36919   9.914  20.576   9.066 -0.0013  0.3335  0.0403
93826W        W36920  13.826  17.864   7.786  0.0786  0.0598  0.1257
93827W        W36921  13.967  19.362   7.018  0.1178 -0.0584 -0.0404
93828W        W36922  12.108  18.888   8.895  0.1823 -0.1965 -0.1387
93829W        W36923  13.215  18.851   7.546 -0.0960 -0.1181 -0.1692
93830W        W36924  10.738  17.419   8.980  0.2000  0.1136 -0.1535
93831W        W36925  13.992  20.643   8.326 -0.0598 -0.4503 -0.1280
93832W        W36926  13.169  18.480   7.914 -0.0291  0.0515 -0.0253
93833W        W36927  12.141  16.722   6.119 -0.2021 -0.5383  0.2364
93834W        W36928  12.978  20.626   8.382 -0.2823 -0.2010 -0.1999
93835W        W36929  14.285  20.305   8.569  0.1286 -0.1886  0.0111
93836W        W36930  13.462  20.068   7.593  0.0206 -0.1072  0.3803
93837W        W36931  13.787  18.559   9.436  0.0258 -0.1205 -0.0698
93838W        W36932  12.299  19.838   9.248  0.2277 -0.0897 -0.2623
93839W        W36933  14.020  18.636   7.411  0.1176 -0.0448  0.0660
93840W        W36934  11.327  20.843   8.220 -0.6308 -0.3159 -0.2254
93841W        W36935  11.564  20.508   7.752 -0.2930 -0.2913  0.0107
93842W        W36936  13.596  19.089   8.756 -0.0661  0.2340 -0.0749
93843W        W36937  14.057  17.277   8.607  0.0685  0.3146  0.0132
93844W        W36938  13.697  22.213   9.352  0.0454  0.1082 -0.0032
93845W        W36939  12.580  19.558   5.911 -0.2981  0.2094 -0.2043
93846W        W36940  12.858  19.712   9.443 -0.0149  0.0671 -0.1357
93847W        W36941  14.495  20.249   7.551 -0.0429 -0.3506 -0.0148
93848W        W36942  12.981  18.383   7.410  0.0273  0.1499  0.0717
93849W        W36943  10.612  18.149   8.784  0.3452  0.0496 -0.0759
93850W        W36944  12.440  16.477   5.717 -0.3176 -0.1657 -0.2174
93851W        W36945  12.639  22.089   7.237 -0.1400  0.0289 -0.1509
93852W        W36946  11.540  20.506   6.058  0.0138  0.1289  0.5555
93853W        W36947  12.331  19.188   8.326 -0.0316  0.1555 -0.1045
93854W        W36948  10.722  20.585   8.764  0.1573 -0.0448 -0.2837
93855W        W36949  11.675  18.096   6.546  0.1746 -0.1218  0.0017
93856W        W36950  12.201  19.013   7.073 -0.0133  0.0629  0.0372
93857W        W36951  12.626  20.804   7.927 -0.1136 -0.2129 -0.0946
93858W        W36952  12.640  17.701   7.392  0.2512 -0.0046  0.2510
93859W        W36953  11.929  19.480   7.235 -0.0034 -0.2114  0.2349
93860W        W36954  13.858  17.693   8.640 -0.0241  0.1181 -0.3688
93861W        W36955  11.645  21.500   9.210 -0.0601  0.0105 -0.1242
93862W        W36956  12.164  20.723   8.093  0.1214  0.2438 -0.0891
93863W        W36957  13.980  19.392   8.621  0.0176 -0.3402  0.0264
93864W        W36958  14.401  19.881   7.802 -0.3602  0.0452 -0.1225
93865W        W36959  12.689  19.491   8.532  0.2058 -0.1963 -0.0464
93866W        W36960  11.188  19.468   8.961 -0.1466 -0.1123  0.2022
93867W        W36961  15.844  20.605   8.626 -0.0912  0.1037  0.1127
93868W        W36962  10.958  21.530   9.411  0.0644  0.0154 -0.0258
93869W        W36963  14.939  20.631   8.210  0.1093 -0.1843 -0.0100
93870W        W36964  11.521  17.205   8.358  0.0903 -0.1773 -0.1361
93871W        W36965  12.909  22.451   7.471 -0.0530 -0.0750  0.1487
93872W        W36966  10.261  20.165  10.175 -0.1228 -0.0218  0.0299
93873W        W36967  10.765  22.298   9.004 -0.2243  0.2184 -0.1729
93874W        W36968  13.550  20.511   6.029 -0.1176  0.0930  0.1350
93875W        W36969  13.174  20.561   7.734 -0.2568  0.0231 -0.0784
93876W        W36970  11.593  20.272   9.489 -0.2732 -0.2470  0.1306
93877W        W36971  13.013  17.628   7.705 -0.2344 -0.0920  0.1439
93878W        W36972  12.429  19.957   7.336  0.1950  0.0033 -0.1893
93879W        W36973   9.882  21.786   6.837 -0.1114 -0.1760  0.3279
93880W        W36974  13.909  20.644   7.084  0.1421  0.1773  0.1811
93881W        W36975  12.114  21.839   8.527 -0.4130  0.4097 -0.1964
93882W        W36976  14.543  16.522   6.560 -0.0156  0.4698 -0.2800
93883W        W36977  15.241  17.879   8.713  0.2938  0.0434  0.2877
93884W        W36978  13.393  20.906   7.201 -0.1001  0.1839 -0.0295
93885W        W36979  12.714  19.399   8.053 -0.0628 -0.0540  0.1979
93886W        W36980  12.846  18.607   5.809 -0.2109  0.3497 -0.0761
93887W        W36981  14.591  21.566   7.479 -0.0058 -0.2349  0.3116
93888W        W36982  11.517  18.101   8.742  0.2448  0.0366  0.1741
93889W        W36983  12.091  18.550   8.580 -0.0790 -0.2019 -0.0815
93890W        W36984  14.999  16.371   8.179 -0.0631  0.2151 -0.0645
93891W        W36985  12.907  21.182   6.982  0.1225  0.3402 -0.0177
93892W        W36986  13.493  19.680   8.455  0.1514  0.1262  0.1997
93893W        W36987  12.369  21.811   7.644  0.1130  0.0208  0.0445
93894W        W36988  12.402  19.397   7.377 -0.3781  0.2538  0.2565
93895W        W36989  12.061  21.884   9.341  0.1718 -0.0238  0.0686
93896W        W36990  10.952  17.449   7.352 -0.0637  0.2126 -0.1041
93897W        W36991  14.163  20.479   6.637  0.1719  0.1345  0.0338
93898W        W36992  13.013  19.744   8.301  0.1811  0.1249 -0.2593
93899W        W36993  12.572  20.330   9.378  0.1457 -0.0908 -0.0855
93900W        W36994  13.306  19.242   7.292  0.0519 -0.0575  0.0793
93901W        W36995  12.040  20.222   8.191  0.2072 -0.0751  0.1853
93902W        W36996  11.659  19.288   8.884  0.0331 -0.1171 -0.1058
93903W        W36997  12.557  18.820   6.145  0.1336 -0.3336  0.0419
93904W        W36998  13.515  20.705   6.747 -0.3462  0.0630 -0.0714
93905W        W36999  12.144  17.348   8.059 -0.0276 -0.3204  0.1168
93906W        W37000  13.573  18.543   6.803  0.0218 -0.1828 -0.0254
93907W        W37001  12.455  19.874   8.223  0.0266 -0.0610 -0.0341
93908W        W37002  14.105  18.297   8.672 -0.1961 -0.0893 -0.1575
93909W        W37003  10.970  17.997   7.971  0.1956  0.0979 -0.1030
93910W        W37004  14.337  20.328   8.010  0.0379  0.0420 -0.1579
93911W        W37005  14.134  18.588   8.161 -0.3466  0.0841 -0.3364
93912W        W37006  11.722  22.086   6.640 -0.0367  0.0717 -0.2272
93913W        W37007  13.648  19.716   7.326  0.0313  0.0049 -0.1618
93914W        W37008  13.812  21.209   8.440 -0.1307 -0.0530 -0.2532
93915W        W37009  12.885  17.248   9.401  0.0687 -0.0923 -0.1467
93916W        W37010  13.571  20.530   8.028  0.0012  0.2339  0.1643
93917W        W37011  13.577  20.426   9.213  0.0778  0.2489  0.0886
93918W        W37012  12.819  18.382   9.285 -0.1151  0.0651  0.1993
93919W        W37013  12.930  19.708   8.905  0.0464 -0.2314 -0.1810
93920W        W37014  11.207  21.594   8.563  0.3962 -0.0024 -0.1440
93921W        W37015  15.470  18.463   7.004 -0.3642 -0.2003  0.1075
93922W        W37016  13.527  21.803   7.081 -0.0588  0.0024  0.1012
93923W        W37017  11.515  20.076   8.507 -0.0000 -0.2867 -0.0965
93924W        W37018  11.304  19.576   7.247  0.0966  0.1527  0.0201
93925W        W37019  12.547  18.716   8.299  0.0994  0.1858  0.0029
93926W        W37020  12.038  21.291   7.083 -0.0147 -0.3850  0.3369
93927W        W37021  15.440  18.931   7.555 -0.0829 -0.3503  0.0253
93928W        W37022  12.357  17.950   9.323  0.1348  0.1768 -0.1609
93929W        W37023  14.657  19.553   8.096  0.1689 -0.1314 -0.0696
93930W        W37024  11.893  17.873   8.973  0.0135  0.0409 -0.0517
93931W        W37025  13.537  18.465   7.367  0.1272 -0.0195  0.0170
93932W        W37026  13.373  19.283   7.799  0.2144  0.1171 -0.0457
93933W        W37027  11.877  19.733   8.706  0.1486 -0.2541 -0.0375
93934W        W37028  10.800  19.302   7.975 -0.0004  0.1492  0.0996
93935W        W37029  10.911  21.431   6.185 -0.0234 -0.2196 -0.0487
93936W        W37030  12.543  20.930   8.490 -0.3502  0.1681  0.3112
93937W        W37031  12.003  19.022   7.526  0.1911 -0.0690  0.3160
93938W        W37032  13.260  18.649   9.435  0.2988 -0.1681  0.2416
93939W        W37033  13.038  21.432   6.506  0.1541 -0.1538 -0.3045
93940W        W37034  13.209  16.416   9.222 -0.3447  0.2079  0.1065
93941W        W37035   9.729  18.589   8.979  0.0194  0.3663  0.2772
93942W        W37036  12.993  21.024   8.692 -0.2424 -0.0067  0.2749
93943W        W37037  14.353  21.389   7.941 -0.0317  0.2712  0.0405
93944W        W37038  12.519  17.280   8.488 -0.1098  0.0884 -0.3488
93945W        W37039  11.700  19.434   7.816 -0.0498  0.0730 -0.2470
93946W        W37040  12.469  17.228   6.651  0.1356  0.3617  0.1802
93947W        W37041  13.303  18.506   8.969 -0.0192  0.1129  0.1974
93948W        W37042  12.860  19.607   7.133  0.3238  0.0292 -0.1370
93949W        W37043  14.994  21.662   7.124 -0.1148  0.0459  0.0099
93950W        W37044   8.514  19.389   9.078 -0.2176  0.1876  0.0880
93951W        W37045  13.093  20.979   8.052 -0.2657  0.0419 -0.0468
93952W        W37046  13.810  19.338   7.557 -0.1656  0.1296  0.2346
93953W        W37047  14.085  17.626   7.473  0.0362 -0.1294  0.3002
93954W        W37048  12.461  19.004   7.771  0.0874 -0.1305 -0.0126
93955W        W37049  11.501  19.320   9.353 -0.0300  0.2205  0.0860
93956W        W37050  13.706  17.464   6.680 -0.0694 -0.2585  0.1126
93957W        W37051  14.225  19.204   8.263  0.1467  0.1072 -0.3012
93958W        W37052  13.078  18.945   6.399 -0.0920  0.1256 -0.3063
93959W        W37053  11.586  20.061   9.016  0.1991  0.3175 -0.0031
93960W        W37054  12.548  17.627   6.859  0.1689  0.0290 -0.0900
93961W        W37055  13.033  21.629   9.528  0.0470 -0.0294  0.1748
93962W        W37056  12.563  18.238   8.411 -0.0201 -0.1197  0.1416
93963W        W37057  14.410  20.539   7.104  0.0007 -0.0643  0.0528
93964W        W37058  10.988  21.059   9.589 -0.1778 -0.1718 -0.1559
93965W        W37059  13.612  23.430   9.467  0.3802 -0.2372 -0.0978
93966W        W37060  13.662  21.678   8.621  0.1903  0.0741  0.1023
93967W        W37061  11.466  18.072   8.281 -0.2272 -0.0479 -0.0250
93968W        W37062  11.736  18.519   8.216 -0.1589 -0.0707 -0.1830
93969W        W37063  12.221  19.410   7.891 -0.0625  0.1559 -0.0917
93970W        W37064  13.895  19.898   8.762  0.0927 -0.1649  0.0916
93971W        W37065  10.733  19.711   9.048 -0.1455  0.3360 -0.0989
93972W        W37066  12.719  17.600   6.338 -0.2186 -0.1739  0.1625
93973W        W37067  11.862  21.638   9.717  0.1694 -0.0738 -0.2407
93974W        W37068  13.598  18.769   7.871  0.1234  0.0139 -0.0492
93975W        W37069  13.322  23.452   2.412 -0.0783  0.0626  0.1484
93976W        W37070  12.077  21.938   0.803 -0.0753  0.0047 -0.2873
93977W        W37071  13.577  22.093  31.754 -0.0827 -0.2222  0.2066
93978W        W37072  14.975  22.589   0.514  0.2740 -0.2062  0.2231
93979W        W37073  11.115  23.165   1.053  0.1015  0.1203 -0.3563
93980W        W37074  13.516  24.296   0.791  0.2869  0.1084 -0.0662
93981W        W37075  11.684  21.348   2.977 -0.2080  0.3677  0.7054
93982W        W37076  13.092  24.824   2.326  0.1436  0.3647 -0.4039
93983W        W37077  14.932  24.719   0.566  0.0774  0.0983  0.0617
93984W        W37078  12.726  23.312  30.017 -0.1793 -0.1839  0.3814
93985W        W37079  11.843  21.836   3.061 -0.0226  0.0804 -0.2036
93986W        W37080  13.028  23.800   2.225 -0.2751  0.2236 -0.3503
93987W        W37081  11.731  22.650   0.511 -0.2093  0.0229 -0.0419
93988W        W37082  12.397  20.909  31.826 -0.1699  0.3798 -0.2073
93989W        W37083  13.872  22.881   1.970 -0.0130 -0.2929  0.1210
93990W        W37084  10.891  24.257   0.378  0.0100  0.1163  0.0973
93991W        W37085  12.226  23.022   1.527  0.1066 -0.2317 -0.0485
93992W        W37086  13.385  24.012  31.179  0.1007  0.2958 -0.1923
93993W        W37087  13.666  25.876   1.403 -0.0838  0.3011 -0.0993
93994W        W37088  13.360  20.379   1.657 -0.2075 -0.3725 -0.0948
93995W        W37089  11.907  21.987   1.463  0.3260  0.1842  0.2252
93996W        W37090  12.684  24.934   1.427  0.2104 -0.1249 -0.1493
93997W        W37091  10.079  22.811   0.196 -0.2738 -0.1960 -0.5225
93998W        W37092  11.910  24.181   2.613 -0.1712  0.0368 -0.3655
93999W        W37093  11.745  22.673   1.362 -0.2157 -0.3724 -0.2495
94000W        W37094  14.219  21.903   2.121  0.2952 -0.0036 -0.1193
94001W        W37095  13.509  23.001   0.419 -0.1724  0.0217 -0.0453
94002W        W37096  12.822  24.627   1.816  0.3355  0.1819 -0.2748
94003W        W37097  13.234  24.607   1.075  0.2496 -0.2015  0.0406
94004W        W37098  13.366  22.619   3.552 -0.0772 -0.0858 -0.0083
94005W        W37099  11.243  26.377   2.050  0.0354 -0.0622  0.3067
94006W        W37100  11.140  25.888   1.308 -0.2313  0.0070 -0.2400
94007W        W37101  13.230  26.651   0.954 -0.1695 -0.1442  0.0352
94008W        W37102  15.008  24.013  31.719 -0.0183  0.0718  0.0442
94009W        W37103  14.613  24.718   1.646 -0.0487 -0.0576  0.1786
94010W        W37104  11.630  25.383   3.427 -0.3133  0.1536 -0.1173
94011W        W37105  10.180  25.926   0.259  0.1451 -0.1023  0.2465
94012W        W37106  12.958  24.333   2.623  0.1205  0.1716  0.0153
94013W        W37107  12.632  24.275   3.628 -0.1069 -0.0398  0.1280
94014W        W37108  12.739  21.818   0.139  0.0036 -0.5080  0.2314
94015W        W37109  14.127  21.844   0.257  0.0253 -0.0460  0.1449
94016W        W37110  12.152  23.347  31.144  0.1869 -0.1429  0.1256
94017W        W37111  12.561  23.109   0.868  0.1353 -0.2432 -0.2062
94018W        W37112  11.743  24.310   3.202 -0.2863  0.0931 -0.0686
94019W        W37113  12.147  23.399   0.874 -0.1671  0.2434  0.0557
94020W        W37114  13.396  21.389   2.415  0.0405  0.1984 -0.0920
94021W        W37115  11.050  26.566   1.143  0.1960  0.1014  0.0047
94022W        W37116  14.203  22.352   0.458  0.4102  0.2067  0.3896
94023W        W37117  13.298  21.592  31.761  0.0212  0.1090  0.0877
94024W        W37118  13.331  22.155  31.240 -0.0985 -0.2526 -0.1392
94025W        W37119  13.385  20.973   1.123 -0.2775  0.1154 -0.3324
94026W        W37120  12.889  25.250   2.387  0.0051  0.0430 -0.2114
94027W        W37121  13.611  20.662   2.036  0.2153 -0.0233  0.0291
94028W        W37122  14.018  23.388   1.850 -0.2063  0.1414 -0.2273
94029W        W37123  13.307  23.473   0.569  0.1081  0.3260 -0.3548
94030W        W37124  13.215  22.333   0.478  0.1366 -0.3006  0.0106
94031W        W37125  12.381  24.289   0.966  0.1145  0.2726  0.3748
94032W        W37126  12.236  23.109   0.175 -0.0195 -0.0702 -0.0559
94033W        W37127  15.391  23.435  30.355 -0.1497 -0.1709 -0.1696
94034W        W37128  15.427  25.153   0.083  0.0495 -0.0514 -0.1089
94035W        W37129  13.964  25.282   1.255 -0.1387 -0.0994  0.3974
94036W        W37130  12.823  23.979  31.948 -0.0785  0.3760 -0.1002
94037W        W37131  10.538  25.538   3.723 -0.0793 -0.0597  0.2715
94038W        W37132  12.048  22.847   3.377 -0.2533  0.1061  0.0873
94039W        W37133  12.372  22.883  31.691  0.1372 -0.1402  0.0300
94040W        W37134  14.814  25.046   2.689  0.3027  0.1804 -0.1907
94041W        W37135  11.502  25.111   3.001  0.0519  0.0582  0.1397
94042W        W37136  13.108  21.765   0.565 -0.2825 -0.1692 -0.0087
94043W        W37137  13.265  23.855   0.929  0.3196  0.1521  0.5413
94044W        W37138  14.253  25.120   1.722  0.1418 -0.0895  0.3766
94045W        W37139  13.897  23.755  31.781  0.0351 -0.2940 -0.0605
94046W        W37140  13.684  19.916  29.761 -0.0149  0.1279 -0.0138
94047W        W37141  13.671  21.482   1.841  0.0046  0.1899 -0.0332
94048W        W37142  12.153  22.859  31.220  0.1580  0.2456  0.0316
94049W        W37143  12.883  24.473   0.078  0.1600  0.2778 -0.2230
94050W        W37144  14.485  24.965   0.693  0.0719 -0.3007  0.1597
94051W        W37145  13.425  23.269   0.001 -0.1424 -0.1784  0.1908
94052W        W37146  11.617  24.011   0.816 -0.0314  0.2520 -0.1146
94053W        W37147  13.306  21.363   1.478 -0.0118  0.0160  0.1335
94054W        W37148  11.841  23.690   4.037  0.2570  0.1891 -0.0160
94055W        W37149  11.766  25.293  31.583  0.1996  0.1390  0.0855
94056W        W37150  11.883  24.013   0.159 -0.0456  0.1205 -0.2095
94057W        W37151  12.202  23.207  30.153  0.1570 -0.0862  0.1052
94058W        W37152  11.637  21.987   1.919 -0.0881 -0.0807  0.0298
94059W        W37153  12.612  24.803   2.317  0.1214 -0.4880  0.1931
94060W        W37154  13.764  22.979   0.966  0.2668  0.1275  0.2732
94061W        W37155  12.115  22.740   2.077  0.0595 -0.0545 -0.2868
94062W        W37156  12.554  21.785   0.633  0.1068 -0.2019  0.1159
94063W        W37157  11.773  24.462   0.981 -0.0309 -0.3478 -0.0973
94064W        W37158  14.992  24.928  31.919  0.0145 -0.1514  0.1513
94065W        W37159  13.225  21.992   0.094  0.0887  0.0348  0.0104
94066W        W37160  12.157  24.421  31.304 -0.0864  0.2503  0.0910
94067W        W37161  11.265  23.553   2.597 -0.0837  0.2307  0.2414
94068W        W37162  11.697  20.978   1.519 -0.0711 -0.0882 -0.1385
94069W        W37163  11.501  21.628   3.411  0.0482  0.1002 -0.2942
94070W        W37164  11.825  22.460   1.812  0.0811 -0.2868  0.3501
94071W        W37165  13.473  22.711   1.682  0.1447  0.0401 -0.1818
94072W        W37166  12.671  20.562   0.080  0.0131 -0.0587 -0.0745
94073W        W37167  13.923  22.150   0.792  0.2756  0.2050 -0.0139
94074W        W37168  11.813  23.160  31.575  0.0906 -0.1863  0.0231
94075W        W37169  12.093  22.906   1.063 -0.0345  0.0786 -0.3172
94076W        W37170  12.877  21.816   2.606 -0.0674 -0.0387  0.0596
94077W        W37171  14.112  25.018   0.278  0.2211 -0.3009  0.0924
94078W        W37172  15.293  24.104   1.301  0.3599 -0.0699 -0.0922
94079W        W37173  14.816  23.548  31.951 -0.1102  0.0995 -0.1121
94080W        W37174  12.606  22.677   2.245 -0.0804 -0.0113 -0.1732
94081W        W37175  14.431  20.326  30.196  0.1377  0.1475 -0.3390
94082W        W37176  11.219  24.282   3.220 -0.0357  0.1275 -0.3149
94083W        W37177  13.373  24.569   1.649 -0.0692 -0.0349  0.4617
94084W        W37178  12.270  22.362  31.436 -0.1238  0.1335 -0.1461
94085W        W37179  15.267  25.879   1.226  0.0523 -0.1709  0.1555
94086W        W37180  11.486  23.529  31.455 -0.0912 -0.2191  0.2640
94087W        W37181  11.643  22.954   0.093  0.0206  0.0650 -0.0526
94088W        W37182  13.430  21.999   0.928  0.0360  0.1339  0.1046
94089W        W37183  13.972  22.528   1.079  0.1451  0.0986  0.0764
94090W        W37184  13.261  23.732   1.600 -0.1637 -0.1360 -0.0464
94091W        W37185  13.955  21.401  30.205 -0.0393 -0.1890  0.1206
94092W        W37186  12.634  25.824   1.219  0.0063  0.2640 -0.2178
94093W        W37187  11.430  26.290  31.132  0.0529  0.1758 -0.0049
94094W        W37188  10.426  23.864  31.585 -0.0606 -0.0297  0.1174
94095W        W37189  11.729  25.152   0.471  0.3228  0.2557  0.1849
94096W        W37190  13.643  21.502  31.116 -0.0058 -0.1329  0.1307
94097W        W37191  11.311  22.622   3.608  0.5124  0.0085 -0.2677
94098W        W37192  13.439  21.826   2.080 -0.0653  0.0137  0.1853
94099W        W37193  11.921  23.951  31.300  0.1947 -0.2745 -0.2821
94100W        W37194  11.673  25.502   2.721 -0.0351 -0.1740 -0.3684
94101W        W37195  12.227  22.538   1.378  0.1326 -0.1674 -0.0369
94102W        W37196  14.867  22.111  30.774  0.1324  0.3764 -0.0458
94103W        W37197  12.625  22.219   2.834  0.1007 -0.2852 -0.2844
94104W        W37198  14.245  22.741   0.117 -0.1181 -0.3091  0.1047
94105W        W37199  14.752  20.988   0.324 -0.0232 -0.3028 -0.1575
94106W        W37200  13.933  20.153  30.299  0.1297  0.1627  0.1074
94107W        W37201  12.890  24.476   3.121  0.0906 -0.0311 -0.2140
94108W        W37202  13.686  24.929   1.473 -0.3545 -0.0731 -0.2318
94109W        W37203  12.761  24.368   1.349 -0.1245 -0.1627  0.0430
94110W        W37204  12.862  24.117  31.362 -0.0573  0.0901 -0.1030
94111W        W37205  14.553  24.520   0.915  0.3741  0.2752  0.1594
94112W        W37206  11.335  23.910   1.693  0.0248  0.2199  0.2001
94113W        W37207  14.112  22.600   2.355  0.1695  0.1377  0.3235
94114W        W37208  13.104  25.344   0.426 -0.2654  0.0385  0.1196
94115W        W37209  12.817  21.281   1.601  0.3421  0.1261  0.1269
94116W        W37210  13.311  21.194  31.417  0.1364  0.3997 -0.0172
94117W        W37211  12.180  21.872   0.036 -0.2480 -0.0062 -0.1014
94118W        W37212   9.327  24.830  31.829 -0.0455 -0.0718  0.2872
94119W        W37213  13.771  24.136   2.726  0.1339 -0.0169  0.2689
94120W        W37214  14.747  21.531   1.662 -0.2961 -0.3526  0.2127
94121W        W37215  13.012  20.587   2.057 -0.0473 -0.1999  0.1406
94122W        W37216  14.238  23.111   2.236 -0.1568  0.1309 -0.2275
94123W        W37217  14.396  23.715   0.274  0.3145  0.0872 -0.1528
94124W        W37218  13.391  22.827   1.231  0.0100 -0.0064  0.1897
94125W        W37219  12.802  22.702  31.525 -0.2221  0.0623 -0.2143
94126W        W37220  13.546  22.368   1.336  0.1059  0.0287  0.0385
94127W        W37221  11.923  24.181   1.504 -0.2668  0.0431  0.0141
94128W        W37222  11.186  25.146   1.348  0.0708 -0.0981 -0.0231
94129W        W37223  13.284  24.237   2.969 -0.4349 -0.3742  0.3910
94130W        W37224  12.542  23.600   0.163  0.3135 -0.0966 -0.1448
94131W        W37225  12.930  22.186   1.820 -0.1494 -0.2631  0.0984
94132W        W37226  12.479  22.300  31.875 -0.0799 -0.0800  0.1497
94133W        W37227  11.403  25.914   2.268 -0.3094  0.3002  0.0414
94134W        W37228  12.719  23.147  31.885 -0.0079  0.1680  0.0190
94135W        W37229  11.880  21.493   2.077 -0.2722  0.2001  0.2107
94136W        W37230  13.541  24.675   2.087  0.3456  0.0899 -0.3456
94137W        W37231  13.981  25.173   0.732 -0.0438  0.0210 -0.2905
94138W        W37232  12.334  21.833   3.171 -0.0852  0.1857  0.0781
94139W        W37233  10.382  24.787   0.890 -0.3407  0.2251 -0.0588
94140W        W37234  13.535  20.961   1.624  0.2031 -0.2240  0.0850
94141W        W37235  11.519  25.469   1.072 -0.3642 -0.0030  0.1029
94142W        W37236  13.966  19.967  30.775  0.1957  0.1715  0.0621
94143W        W37237  10.189  23.024   0.608 -0.2556  0.2719  0.2251
94144W        W37238  13.588  21.207   0.092  0.3785  0.0318 -0.0139
94145W        W37239  15.347  23.409  30.987 -0.0891  0.0146 -0.0210
94146W        W37240  12.539  20.882   1.520 -0.2542 -0.0255  0.2182
94147W        W37241  12.465  21.328   1.242  0.2408  0.2003  0.1127
94148W        W37242  10.318  24.028   2.460 -0.2966  0.1186  0.0126
94149W        W37243  12.786  22.791   2.738 -0.0706  0.0345 -0.0439
94150W        W37244  13.068  20.990  30.935 -0.0869 -0.1910  0.0695
94151W        W37245  13.522  23.662   2.030 -0.0330 -0.1793  0.2641
94152W        W37246  13.157  23.605   3.365  0.1423 -0.0800  0.1550
94153W        W37247   9.951  23.331   1.081  0.0519  0.3579 -0.1614
94154W        W37248  13.873  21.240   0.528  0.0057  0.2038  0.1356
94155W        W37249  11.561  21.430   1.684  0.1123  0.0290 -0.3146
94156W        W37250  12.598  23.743   1.943 -0.0671  0.2294 -0.0273
94157W        W37251  14.230  25.044   2.806  0.1539 -0.2336 -0.0021
94158W        W37252  13.032  23.299  30.967 -0.1422 -0.1565  0.2556
94159W        W37253  11.248  25.340   0.703 -0.1200 -0.0213 -0.1430
94160W        W37254  12.654  23.361   3.421  0.0504 -0.3113 -0.1894
94161W        W37255  14.566  21.961   1.614  0.0550 -0.1849  0.0697
94162W        W37256  12.358  20.789   1.045 -0.3411  0.2385  0.0612
94163W        W37257  11.599  22.133   1.087 -0.0357  0.0599  0.1392
94164W        W37258  12.368  21.773   1.138 -0.0915 -0.1714 -0.2510
94165W        W37259  13.565  24.077   1.689  0.0540  0.2131 -0.1482
94166W        W37260  12.593  22.718   1.741  0.0210 -0.2733 -0.1724
94167W        W37261  11.768  24.023   5.415 -0.1767  0.1116 -0.2008
94168W        W37262  12.808  20.404   1.458  0.1467  0.1738 -0.2122
94169W        W37263  14.965  25.789   0.791  0.0879  0.0539  0.0740
94170W        W37264  13.864  22.369   1.744 -0.0799 -0.2152 -0.1080
94171W        W37265  11.998  23.736   0.569 -0.1443 -0.0913 -0.1463
94172W        W37266  11.620  22.988   0.871  0.0263 -0.1116  0.1288
94173W        W37267  10.769  23.602   1.103 -0.0556 -0.1437  0.2443
94174W        W37268  12.347  22.268   1.863  0.1020 -0.2500 -0.0402
94175W        W37269  12.257  24.470   2.360 -0.1053 -0.0587 -0.1652
94176W        W37270  10.467  24.348   1.079 -0.0458  0.1477 -0.2039
94177W        W37271  10.878  24.543   0.832 -0.0610  0.0568 -0.1406
94178W        W37272  12.398  22.247  30.974  0.1115  0.1442 -0.1604
94179W        W37273  12.924  24.818  31.672  0.2865 -0.0122  0.0491
94180W        W37274  12.181  22.007   2.679  0.3177  0.0523  0.5030
94181W        W37275  13.122  22.104   1.340  0.2018 -0.1668 -0.1028
94182W        W37276  14.052  22.365  30.379  0.0447 -0.0751 -0.2559
94183W        W37277  13.920  21.312   2.748 -0.2468 -0.0192  0.1033
94184W        W37278  12.438  22.617   3.670  0.1617 -0.2800  0.1715
94185W        W37279  13.730  23.880   0.671  0.3980  0.0658  0.1927
94186W        W37280  12.360  23.066   2.630 -0.2509 -0.3069 -0.0304
94187W        W37281  13.526  26.217   2.850 -0.1596 -0.1571 -0.3211
94188W        W37282  11.397  23.981   2.890  0.0042  0.1400 -0.1396
94189W        W37283  11.812  22.575  31.623 -0.0845  0.2343 -0.1450
94190W        W37284  11.705  23.542  31.027  0.0263 -0.3747 -0.3225
94191W        W37285  12.095  23.848   1.066  0.0138  0.1253 -0.2498
94192W        W37286  14.140  24.840   1.094 -0.1793  0.1320 -0.2927
94193W        W37287  12.826  23.631  31.494 -0.1295  0.2975  0.0928
94194W        W37288  14.623  21.930   0.244  0.0032 -0.0872 -0.0327
94195W        W37289  12.192  24.609   1.326  0.0367 -0.2252 -0.1492
94196W        W37290  13.028  23.285   1.998 -0.3364 -0.1458 -0.3575
94197W        W37291  12.552  22.752   0.147 -0.5897 -0.0696 -0.3505
94198W        W37292  12.006  24.243   0.534 -0.0131  0.2818 -0.1204
94199W        W37293  12.075  21.297   1.581 -0.0212 -0.1123 -0.0668
94200W        W37294  14.130  23.320   0.186  0.2855  0.2026  0.4732
94201W        W37295  12.013  21.475  31.528  0.1673 -0.2735 -0.2169
94202W        W37296  12.998  22.580   1.478 -0.2974 -0.0531 -0.2087
94203W        W37297  13.497  23.169   2.034  0.2677  0.2197  0.1496
94204W        W37298  13.295  22.941   3.949  0.3075  0.1108 -0.1502
94205W        W37299  11.319  22.910   2.836  0.0386 -0.1026 -0.0555
94206W        W37300  13.233  25.019   1.857  0.1749 -0.1065  0.1504
94207W        W37301  14.004  22.910  31.157 -0.5087  0.0332 -0.0395
94208W        W37302  13.403  22.221   1.807 -0.0435 -0.1606 -0.0558
94209W        W37303  13.852  23.389   0.701 -0.2261 -0.2664 -0.1916
94210W        W37304  13.852  24.084  31.407  0.2175 -0.3064 -0.0731
94211W        W37305  11.652  22.951   2.318  0.0885 -0.0954  0.2904
94212W        W37306  13.162  22.792   3.079  0.1113  0.0092 -0.0968
94213W        W37307  11.223  22.863  30.894  0.1970 -0.7385  0.2163
94214W        W37308  14.734  21.817   2.144 -0.0787  0.0744 -0.0041
94215W        W37309  11.446  25.263   0.025 -0.0074 -0.0752  0.0226
94216W        W37310  14.377  23.184   1.519 -0.0854  0.1516 -0.2982
94217W        W37311  13.749  21.019  31.227  0.0796 -0.0788 -0.0313
94218W        W37312  10.920  23.998   0.824 -0.2207  0.0223  0.1921
94219W        W37313  12.901  24.601   4.078 -0.0853  0.2473  0.0629
94220W        W37314  10.931  21.964  31.387 -0.0328 -0.1360 -0.0670
94221W        W37315  13.247  22.459  31.616 -0.3587  0.0019 -0.4218
94222W        W37316  12.437  25.105   3.126  0.0258  0.0683  0.0855
94223W        W37317  14.635  24.393   3.618  0.0954  0.1865  0.3796
94224W        W37318  14.266  21.207  31.437 -0.0933 -0.0827  0.1267
94225W        W37319  13.710  22.548   2.639  0.1808 -0.0171  0.1230
94226W        W37320  11.934  25.622   1.719  0.3231 -0.3444  0.0187
94227W        W37321  13.121  20.684   0.683  0.1781 -0.1701 -0.1195
94228W        W37322  12.505  23.555   2.356 -0.5572 -0.1500 -0.0410
94229W        W37323  11.403  22.318   1.512  0.0279 -0.0519  0.0289
94230W        W37324  12.332  24.803   1.835 -0.0920 -0.0607  0.1425
94231W        W37325  13.650  21.814   1.382 -0.2101  0.2171  0.1300
94232W        W37326  13.998  22.941   0.511  0.3511  0.1278 -0.1678
94233W        W37327  12.914  23.454   0.985  0.0759  0.0120  0.1464
94234W        W37328  15.052  23.532   2.133 -0.0163 -0.0719 -0.0713
94235W        W37329  12.176  24.166   3.009  0.1031 -0.4328 -0.3150
94236W        W37330  11.255  22.722   0.592 -0.0144 -0.3713 -0.0328
94237W        W37331  13.402  24.521   2.573 -0.0091 -0.5607  0.0085
94238W        W37332  14.641  23.398   1.024  0.4992  0.4097  0.0853
94239W        W37333  12.713  24.728   0.982  0.0608 -0.0695  0.0179
94240W        W37334  11.645  22.972   3.805  0.2117  0.1263 -0.1612
94241W        W37335  13.197  22.930   2.420  0.1462  0.2761 -0.0959
94242W        W37336  13.029  22.664   1.984  0.0554 -0.2487  0.4069
94243W        W37337  10.919  22.343   0.354 -0.2280  0.0928 -0.3287
94244W        W37338  10.938  24.671   1.300  0.4666 -0.0002  0.1473
94245W        W37339  12.554  25.331   4.669  0.1568  0.1441 -0.1056
94246W        W37340  11.607  24.291   1.852  0.0803 -0.2040 -0.0560
94247W        W37341  10.889  25.589   1.008  0.0844 -0.0659  0.2794
94248W        W37342  14.113  24.155   0.388 -0.1065 -0.1271 -0.1384
94249W        W37343  13.064  22.488   0.984 -0.2493 -0.1721  0.0602
94250W        W37344  13.888  24.499   1.778 -0.0795 -0.0314  0.0530
94251W        W37345  13.187  21.682  31.301  0.0515 -0.1376  0.1473
94252W        W37346  10.941  24.075   1.370 -0.0987 -0.2815  0.2315
94253W        W37347  11.915  24.343  31.733 -0.0992 -0.1309 -0.0311
94254W        W37348  12.923  24.220   0.886  0.0063 -0.0657  0.2957
94255W        W37349  10.586  26.465   0.947 -0.0307 -0.0651  0.1314
94256W        W37350  15.711  24.123   3.079 -0.0785 -0.1030  0.3225
94257W        W37351  14.164  20.992  30.395  0.2018 -0.1676 -0.0282
94258W        W37352  15.124  21.920   1.795 -0.2855 -0.1742 -0.0095
94259W        W37353  13.943  22.547  31.548  0.3352 -0.1379 -0.1296
94260W        W37354  13.024  24.165   3.915 -0.1579 -0.0862 -0.1426
94261W        W37355  12.518  23.231   1.959 -0.0297  0.0742 -0.2929
94262W        W37356  12.602  22.910  30.330 -0.2375 -0.1639  0.2477
94263W        W37357  12.683  25.551   3.451  0.0105 -0.0541 -0.0372
94264W        W37358  13.972  21.151   2.261  0.3153  0.4482 -0.1782
94265W        W37359  12.883  24.947   2.792  0.2138  0.0477 -0.3210
94266W        W37360  13.370  24.138   0.358 -0.0623  0.0741  0.2491
94267W        W37361  10.244  23.762   2.016  0.1183 -0.1213 -0.6167
94268W        W37362  12.002  22.442   0.916 -0.0034  0.0538  0.0831
94269W        W37363  14.291  21.341   0.925 -0.0340  0.2501 -0.3762
94270W        W37364  13.569  24.559  31.851 -0.1678  0.0658  0.0242
94271W        W37365  12.654  22.164   1.402  0.2648  0.0581  0.3100
94272W        W37366  13.185  24.124   1.326  0.1076  0.0891  0.1340
94273W        W37367  12.626  24.998   0.494 -0.2451  0.0481 -0.0762
94274W        W37368  12.885  25.549   2.883  0.0921  0.0151 -0.2837
94275W        W37369  12.104  22.559   0.061 -0.0465 -0.1973 -0.1184
94276W        W37370  14.579  22.794  31.145 -0.0699  0.0333  0.4952
94277W        W37371  11.788  23.775   1.959 -0.4725  0.0503  0.0245
94278W        W37372  14.102  20.402   1.052  0.1090  0.1174  0.3058
94279W        W37373  12.960  22.428   0.032  0.3184 -0.0261  0.1482
94280W        W37374  13.254  21.166   1.981  0.0777  0.1752  0.1409
94281W        W37375  12.823  23.795   3.667  0.0635 -0.4573 -0.1203
94282W        W37376  11.807  22.423   2.796 -0.2090 -0.1231  0.1716
94283W        W37377  11.585  21.365  31.725  0.0181 -0.0017 -0.3664
94284W        W37378  13.682  24.448   3.190  0.1513 -0.1653 -0.0514
94285W        W37379  11.437  22.118  31.090  0.0952  0.0598 -0.0567
94286W        W37380  14.242  26.333   3.491  0.2517 -0.1311 -0.1330
94287W        W37381  11.489  22.384   2.180 -0.0208  0.1685 -0.2219
94288W        W37382  14.655  21.830  30.304  0.2922  0.2250 -0.2104
94289W        W37383  11.163  24.426   1.640  0.1023  0.0530 -0.1551
94290W        W37384  12.793  23.532   1.512 -0.0079  0.1915 -0.0785
94291W        W37385  12.894  24.814   3.502  0.0158  0.0798 -0.2021
94292W        W37386  11.792  21.601   1.042 -0.0365 -0.0894 -0.4590
94293W        W37387  13.562  22.529   0.788 -0.3194 -0.2951 -0.1346
94294W        W37388  13.200  23.227   1.545 -0.3784  0.2045  0.0732
94295W        W37389  13.066  26.655  31.459 -0.0490  0.2159  0.0600
94296W        W37390  12.880  24.062   1.697  0.0196 -0.0384 -0.2132
94297W        W37391  13.408  25.452   1.512 -0.3239  0.0544 -0.1263
94298W        W37392  12.010  23.699   2.500  0.0068 -0.2961  0.0499
94299W        W37393  13.655  24.206   2.182  0.2299 -0.1134 -0.0485
94300W        W37394  14.048  24.907  31.759  0.0370  0.0856  0.0517
94301W        W37395  13.105  20.890   0.090 -0.1572  0.5112  0.0407
94302W        W37396  12.681  22.181   2.280  0.1923 -0.0320 -0.1084
94303W        W37397  12.036  25.525   1.148  0.3544  0.0749 -0.2497
94304W        W37398  14.055  21.902   1.629 -0.0708  0.2351 -0.1201
94305W        W37399  14.883  22.362   1.864 -0.1077  0.1360 -0.0531
94306W        W37400   9.878  24.980   0.301  0.1277 -0.0634  0.0947
94307W        W37401  14.442  21.047   2.305  0.2793  0.0901  0.1583
94308W        W37402  13.468  23.300   2.873  0.0841  0.1962 -0.2943
94309W        W37403  11.846  24.583   3.720 -0.2606 -0.1867 -0.0783
94310W        W37404  11.314  23.279   1.698  0.0653 -0.0052  0.2671
94311W        W37405  12.693  24.202   2.264 -0.1662  0.0315  0.1986
94312W        W37406  12.245  24.749   0.772 -0.0846 -0.0678  0.2480
94313W        W37407  12.496  25.327   2.674  0.1487  0.1995  0.1142
94314W        W37408  13.118  24.369   2.084  0.1772  0.4033 -0.3268
94315W        W37409  12.277  22.723   0.624 -0.2997 -0.3020  0.0197
94316W        W37410  14.091  23.486   1.179  0.0944 -0.3271 -0.1053
94317W        W37411  12.099  21.105   2.889 -0.4514 -0.1223 -0.1861
94318W        W37412  13.846  21.684  30.606 -0.0331  0.5404  0.1401
94319W        W37413  13.205  22.796  30.930 -0.0412 -0.0024 -0.1401
94320W        W37414  12.449  24.007   2.613  0.0353 -0.0520 -0.0834
94321W        W37415  10.555  22.989   0.042 -0.5175 -0.0882  0.0244
94322W        W37416  11.684  24.868  30.789 -0.3125 -0.1359 -0.3769
94323W        W37417  13.373  23.374   1.079  0.0552  0.0320  0.0003
94324W        W37418  14.571  20.589   3.141  0.1808 -0.0751  0.2136
94325W        W37419  12.746  22.437   3.318  0.0154  0.1343 -0.3212
94326W        W37420  11.379  23.332   2.165 -0.1456 -0.1142 -0.2546
94327W        W37421  11.319  23.204  31.773 -0.0343  0.1050 -0.1115
94328W        W37422  15.792  23.638   0.671  0.1162 -0.3665  0.2961
94329W        W37423  12.755  20.984   0.482 -0.1029 -0.1333 -0.1061
94330W        W37424  10.875  21.436   0.576 -0.0658  0.0217  0.1032
94331W        W37425  14.121  24.680   0.644 -0.0466 -0.0860  0.2415
94332W        W37426  13.680  24.773   0.942  0.2515 -0.0631  0.1379
94333W        W37427  11.626  21.683  31.200 -0.2349  0.2366 -0.2707
94334W        W37428  15.580  24.613   3.741  0.0059 -0.3564  0.1356
94335W        W37429   9.482  23.188   1.063 -0.2281  0.0902 -0.1130
94336W        W37430  12.947  21.723   2.124  0.1248 -0.1016  0.0397
94337W        W37431  11.951  21.536   2.574 -0.0153 -0.0226 -0.2675
94338W        W37432  11.346  23.234   0.483  0.1836 -0.2690  0.1707
94339W        W37433  12.410  23.463   1.284  0.0286  0.3318 -0.2052
94340W        W37434  12.246  25.841   0.308  0.0233  0.1902  0.1791
94341W        W37435  14.814  25.139  31.419 -0.1579 -0.1906 -0.1687
94342W        W37436  12.045  23.325   2.169  0.1128  0.1736 -0.1199
94343W        W37437  13.854  23.004   2.487  0.4270 -0.2639 -0.2150
94344W        W37438  11.986  21.114   1.136  0.0624 -0.2084  0.0689
94345W        W37439  13.724  23.834   1.209  0.4671 -0.0190  0.2686
94346W        W37440  10.430  24.039   3.346  0.0254  0.0958  0.1362
94347W        W37441  14.424  23.298   0.593 -0.3093 -0.2307  0.2591
94348W        W37442  13.945  22.351   0.024  0.1437 -0.2069 -0.0747
94349W        W37443  13.612  23.692   0.205 -0.0392 -0.0323  0.1198
94350W        W37444  11.081  21.318   1.861 -0.1956 -0.0010 -0.1133
94351W        W37445  12.443  23.553   2.883 -0.0003  0.0344  0.0824
94352W        W37446  15.463  23.805   1.932 -0.0814  0.0297 -0.0103
94353W        W37447  12.830  21.031   1.086 -0.1717 -0.0317  0.1848
94354W        W37448  12.861  22.061   0.930 -0.1844 -0.1562  0.3986
94355W        W37449  12.241  25.321   0.664 -0.0123  0.1459  0.2360
94356W        W37450  10.940  24.164  31.773  0.0040 -0.0209 -0.0995
94357W        W37451  12.450  21.873  31.575  0.0423  0.2077 -0.0356
94358W        W37452  12.840  22.722   0.604  0.1491  0.0161 -0.1834
94359W        W37453  12.969  23.833   0.517 -0.1806 -0.0945 -0.3985
94360W        W37454  13.565  23.318   4.332  0.0841  0.1179 -0.0556
94361W        W37455  11.501  23.526   0.091 -0.1336 -0.1337  0.3041
94362W        W37456  15.237  23.816  31.239 -0.0215  0.2993 -0.0137
94363W        W37457  12.312  25.267   1.580  0.4302  0.2967  0.3211
94364W        W37458  13.760  25.071   2.440 -0.2194 -0.1198  0.1962
94365W        W37459  13.373  25.242   2.790  0.1451  0.1556  0.0564
94366W        W37460  13.650  23.182   1.471 -0.0097 -0.0497 -0.1404
94367W        W37461  11.421  21.824   1.415 -0.1693 -0.0687 -0.1766
94368W        W37462  12.497  23.632   0.643  0.0474  0.0675  0.3459
94369W        W37463  12.502  24.077   0.303 -0.2039  0.2536  0.0346
94370W        W37464  13.599  21.593   0.517  0.1215 -0.0333 -0.2688
94371W        W37465  11.839  22.162   0.343  0.1111 -0.2223  0.2126
94372W        W37466  13.478  20.494  31.077  0.0380  0.1084 -0.0299
94373W        W37467  12.672  23.986   3.218 -0.1345 -0.4723  0.0221
94374W        W37468  12.675  23.841   1.129 -0.1434  0.0266 -0.0808
94375W        W37469  12.030  25.427   7.191 -0.0966  0.2861  0.0479
94376W        W37470  12.169  23.525   4.590  0.3795  0.4809 -0.1747
94377W        W37471  14.234  21.361   3.186  0.0043  0.4368  0.3396
94378W        W37472  14.436  22.664   3.325 -0.3821 -0.1203 -0.1783
94379W        W37473  11.570  21.703   3.924  0.1063  0.0196  0.1740
94380W        W37474  14.268  24.978   3.806  0.1250 -0.1218  0.0614
94381W        W37475  12.393  22.252   5.377 -0.2578  0.2126  0.1900
94382W        W37476  14.038  24.395   5.001 -0.2820 -0.2468  0.2605
94383W        W37477  14.951  24.471   5.384  0.1701  0.0044  0.1420
94384W        W37478  12.931  23.811   2.824  0.0127  0.1451 -0.2690
94385W        W37479  13.404  21.003   5.845  0.0409 -0.0489 -0.2512
94386W        W37480  13.645  24.969   5.078  0.1674  0.0424 -0.1945
94387W        W37481  12.861  21.535   4.302 -0.3850 -0.1766 -0.4608
94388W        W37482  10.619  21.374   4.894 -0.1384  0.4781 -0.2882
94389W        W37483  14.399  24.465   4.663 -0.0313 -0.0223 -0.2173
94390W        W37484  11.190  23.033   3.917  0.2973 -0.2549  0.2451
94391W        W37485  12.984  22.944   5.178 -0.2148  0.0243  0.1119
94392W        W37486  12.623  23.653   4.602  0.1189 -0.0807  0.3658
94393W        W37487  13.296  24.286   5.809  0.0438  0.0263 -0.3489
94394W        W37488  12.470  21.868   5.807  0.1680  0.1353 -0.0661
94395W        W37489  13.056  23.384   6.598 -0.1314 -0.0879 -0.3276
94396W        W37490  13.578  25.709   4.358  0.0807 -0.1894  0.1406
94397W        W37491  10.896  24.161   3.565 -0.2344  0.0714  0.2381
94398W        W37492  10.749  24.114   5.551  0.1071  0.0030  0.1139
94399W        W37493  12.151  22.813   5.478 -0.1139 -0.0140 -0.1714
94400W        W37494  14.282  23.592   4.830 -0.3683 -0.1111  0.0427
94401W        W37495  14.566  22.775   5.139 -0.2813  0.1654 -0.0438
94402W        W37496  13.754  25.163   5.600  0.0037  0.1461  0.1854
94403W        W37497  13.535  24.210   5.365 -0.1143 -0.0828 -0.0106
94404W        W37498  14.092  23.302   7.820 -0.0682 -0.1001  0.0728
94405W        W37499   9.887  25.163   6.050  0.1120 -0.2748  0.1001
94406W        W37500  11.834  26.168   3.377 -0.0953  0.0847  0.2155
94407W        W37501  11.153  24.638   4.944 -0.2498 -0.0504 -0.0586
94408W        W37502  13.777  23.743   4.061 -0.1952  0.2219 -0.0789
94409W        W37503  14.217  25.361   7.094  0.1609  0.0007  0.2917
94410W        W37504  13.904  24.481   7.009  0.3394  0.2715  0.0844
94411W        W37505  12.066  25.760   2.561  0.0494  0.2067  0.2692
94412W        W37506  14.292  25.318   7.812  0.2119 -0.4802  0.2310
94413W        W37507  12.546  24.866   7.592 -0.1045  0.0916 -0.1782
94414W        W37508  12.842  22.915   7.202  0.1105 -0.4612 -0.1400
94415W        W37509  12.121  24.894   5.271  0.0483 -0.1205  0.0324
94416W        W37510  12.182  25.580   4.481 -0.2434  0.0779  0.1839
94417W        W37511  12.613  23.365   6.956 -0.1687 -0.1127 -0.0655
94418W        W37512  12.687  24.400   7.524 -0.0301  0.2610 -0.1907
94419W        W37513  10.319  24.992   5.776  0.1180 -0.2556 -0.0099
94420W        W37514  14.934  22.239   6.618 -0.0699  0.0786 -0.1954
94421W        W37515  12.350  25.020   4.219  0.1146 -0.0856  0.1636
94422W        W37516  13.990  23.770   2.188  0.0757  0.4270  0.0545
94423W        W37517  12.738  20.710   3.499 -0.0197  0.0723 -0.0772
94424W        W37518  13.939  22.567   3.403  0.0251  0.5628  0.0159
94425W        W37519  13.171  20.967   5.328  0.1185 -0.2551  0.0369
94426W        W37520  12.506  25.219   5.200 -0.3801  0.3052  0.0612
94427W        W37521  12.578  21.782   3.970 -0.1177 -0.2080 -0.2139
94428W        W37522  14.018  23.122   5.629  0.0148 -0.2048 -0.3533
94429W        W37523  12.198  23.170   4.948  0.2231 -0.1918  0.1227
94430W        W37524  13.183  21.368   4.701  0.2621  0.0446 -0.2900
94431W        W37525  11.972  24.468   6.404 -0.1819  0.1028  0.1395
94432W        W37526  11.218  22.496   5.950  0.1132  0.0657 -0.1408
94433W        W37527  12.481  24.541   4.419  0.0334  0.2329 -0.0081
94434W        W37528  14.585  25.260   4.115  0.2455 -0.0439 -0.1162
94435W        W37529  13.063  25.510   3.800  0.0465 -0.0146 -0.0788
94436W        W37530  10.039  24.116   4.088 -0.0741  0.0095  0.2015
94437W        W37531  12.049  23.937   7.051  0.1673 -0.0525 -0.0784
94438W        W37532  11.756  23.044   7.857  0.1870  0.0672 -0.0381
94439W        W37533  12.957  22.371   3.790 -0.3406  0.1193  0.3194
94440W        W37534  13.700  24.003   7.745 -0.1654 -0.1365 -0.1087
94441W        W37535  10.429  24.992   7.191 -0.0446 -0.0306  0.1756
94442W        W37536  13.768  21.311   3.270 -0.0005 -0.0644 -0.2977
94443W        W37537  10.336  25.107   4.060  0.1142 -0.1038  0.1833
94444W        W37538  14.088  24.200   5.480 -0.3893  0.1999 -0.2591
94445W        W37539  13.773  22.718   3.847  0.1081  0.2000 -0.0712
94446W        W37540  15.123  21.939   6.252 -0.0107  0.1825 -0.1964
94447W        W37541  13.732  22.723   5.675 -0.1776  0.0725  0.3626
94448W        W37542  11.531  22.924   3.279  0.2061 -0.0118 -0.3062
94449W        W37543  12.076  22.888   4.583 -0.1693  0.3221  0.2382
94450W        W37544  15.067  25.407   5.514  0.0086  0.1675  0.0425
94451W        W37545  14.527  21.425   3.900 -0.2724 -0.1291 -0.2178
94452W        W37546  11.661  25.443   5.866 -0.0541  0.2254  0.0491
94453W        W37547  12.699  21.882   6.723 -0.0350  0.3776  0.5090
94454W        W37548  12.593  23.339   6.248 -0.1516  0.1794  0.0354
94455W        W37549  11.222  25.891   4.335  0.0326 -0.3490  0.0695
94456W        W37550  11.133  23.829   4.699  0.4723  0.0381  0.1398
94457W        W37551  11.238  23.816   3.399  0.1779  0.1593  0.2861
94458W        W37552  10.661  22.344   4.974 -0.1812 -0.3989  0.2521
94459W        W37553  11.919  24.273   5.955 -0.1294 -0.2038 -0.2450
94460W        W37554  14.776  21.817   3.754 -0.0684 -0.0552 -0.0049
94461W        W37555  11.219  21.880   6.717 -0.1154 -0.0861  0.0078
94462W        W37556  14.570  21.805   4.831 -0.1703 -0.2796  0.1459
94463W        W37557  11.231  23.641   5.178  0.1414  0.2354  0.1689
94464W        W37558  13.786  26.218   3.724 -0.0109  0.0519  0.1469
94465W        W37559  13.768  21.923   3.310 -0.0488 -0.3036 -0.0562
94466W        W37560  12.571  24.059   4.128 -0.2025  0.0075  0.0450
94467W        W37561  12.374  22.867   6.372  0.0397  0.1225  0.3034
94468W        W37562  12.062  22.773   5.969  0.0125  0.1198  0.0802
94469W        W37563  12.137  23.681   7.941 -0.1269 -0.2891 -0.0612
94470W        W37564  12.927  22.415   6.415 -0.0575 -0.5832  0.0359
94471W        W37565  14.038  22.564   6.718 -0.1511 -0.2509 -0.3136
94472W        W37566  11.073  22.056   3.990 -0.1549  0.1630 -0.0531
94473W        W37567  12.696  23.984   5.432 -0.2464 -0.0312 -0.0921
94474W        W37568  11.124  23.045   5.694  0.2411 -0.1922  0.0365
94475W        W37569  11.530  24.601   4.134 -0.1707  0.0252  0.0771
94476W        W37570  14.293  21.801   6.353 -0.0618  0.1206  0.0498
94477W        W37571  12.302  24.558   3.986  0.0227  0.4259  0.2205
94478W        W37572  15.859  25.274   6.030  0.3176 -0.1628 -0.1155
94479W        W37573  13.508  24.162   4.810 -0.0340  0.1330  0.0513
94480W        W37574  12.013  22.786   7.376  0.0013 -0.3187  0.0775
94481W        W37575  12.667  23.173   4.837  0.1687 -0.2205 -0.1428
94482W        W37576  11.328  24.790   5.745  0.1455 -0.2303  0.1735
94483W        W37577  13.002  24.420   5.380  0.0853 -0.6817 -0.2275
94484W        W37578  12.470  21.519   2.771  0.1431 -0.0019  0.1820
94485W        W37579  15.411  24.217   4.074  0.1700  0.0341  0.3584
94486W        W37580  12.485  23.356   4.216  0.3407 -0.1108  0.1621
94487W        W37581  11.266  23.917   6.960 -0.3127 -0.0941  0.2340
94488W        W37582  13.002  20.605   5.831  0.1518  0.1433 -0.0611
94489W        W37583  14.541  22.390   6.265  0.1484  0.0553 -0.0294
94490W        W37584  13.990  24.065   3.189 -0.1055  0.1291  0.0811
94491W        W37585  12.811  21.979   3.485  0.1560 -0.2056 -0.4487
94492W        W37586  13.301  24.634   5.022  0.3242  0.0203  0.0517
94493W        W37587  12.148  24.233   3.626  0.2847 -0.4619  0.1168
94494W        W37588  11.931  22.912   2.788 -0.2042 -0.0475 -0.0723
94495W        W37589  11.959  25.047   5.758  0.0451  0.1082  0.2042
94496W        W37590  14.218  23.085   4.739  0.0765  0.0777  0.1116
94497W        W37591   9.244  22.461   6.748  0.1563  0.1621 -0.1318
94498W        W37592  14.094  22.680   5.953 -0.0007  0.4407  0.0565
94499W        W37593  11.581  22.874   4.727  0.1430  0.0979 -0.2524
94500W        W37594  11.184  25.855   6.913  0.0848 -0.0716  0.1625
94501W        W37595  14.269  21.864   3.444  0.1584 -0.3031 -0.1830
94502W        W37596  14.863  21.033   3.665 -0.2135 -0.0563  0.0469
94503W        W37597  13.153  24.266   6.338  0.3237  0.1098 -0.0036
94504W        W37598  14.150  22.360   4.152 -0.1766  0.1647  0.1398
94505W        W37599  12.702  22.993   1.321 -0.0704 -0.1084 -0.2596
94506W        W37600  13.797  21.681   2.382 -0.2290 -0.2883  0.0395
94507W        W37601  12.262  24.298   6.807 -0.0735  0.0131  0.2218
94508W        W37602  13.647  22.844   3.130 -0.1472  0.0748 -0.0902
94509W        W37603  13.274  24.020   4.325 -0.0413 -0.4289 -0.3740
94510W        W37604  13.163  22.239   2.267  0.1100 -0.0567  0.1996
94511W        W37605  13.813  25.240   3.707 -0.2001  0.3295  0.1990
94512W        W37606  11.287  24.348   5.443 -0.3481 -0.4001  0.4324
94513W        W37607  14.389  24.431   6.793  0.1238  0.0481 -0.1904
94514W        W37608  14.125  24.913   4.989  0.1705 -0.0708  0.2059
94515W        W37609  11.140  22.204   4.970  0.2958  0.1906  0.1269
94516W        W37610  13.091  22.392   2.743  0.2391  0.1791 -0.1235
94517W        W37611  12.821  22.327   5.028  0.1755  0.2244 -0.0013
94518W        W37612  11.446  24.278   3.754 -0.2811  0.0295 -0.2007
94519W        W37613  12.454  22.447   4.526  0.0992  0.2502 -0.2006
94520W        W37614  13.275  22.275   4.691 -0.0909 -0.1000 -0.1955
94521W        W37615  10.871  22.495   6.321  0.2484 -0.0100  0.2943
94522W        W37616  13.994  22.975   6.414 -0.3237 -0.0667  0.2463
94523W        W37617  15.301  21.044   4.619  0.3750 -0.0162 -0.0674
94524W        W37618  14.278  22.547   5.508  0.0338  0.4154  0.0604
94525W        W37619  13.104  24.121   3.441 -0.1112  0.0675 -0.4266
94526W        W37620  14.111  22.106   5.610 -0.1199  0.0639  0.1735
94527W        W37621  11.171  24.844   6.738  0.3756 -0.0419  0.0362
94528W        W37622  12.254  25.466   5.904 -0.0567  0.1022  0.0914
94529W        W37623  14.627  23.226   5.639  0.0391 -0.1557 -0.0223
94530W        W37624  13.304  23.160   4.806  0.1002 -0.0586  0.2163
94531W        W37625  10.949  21.758   5.652  0.1297 -0.2027 -0.0433
94532W        W37626  12.524  21.753   1.661  0.1290  0.1350  0.3535
94533W        W37627  11.801  25.325   4.780  0.1814  0.2881  0.4009
94534W        W37628  11.726  23.849   3.558  0.0325 -0.0942 -0.0424
94535W        W37629  11.871  22.429   5.463 -0.0244 -0.0930 -0.0555
94536W        W37630  14.577  24.970   4.862 -0.0269  0.1381  0.1757
94537W        W37631  12.245  24.072   4.511 -0.2002 -0.0201  0.2021
94538W        W37632  13.797  24.374   5.796 -0.2081  0.2201 -0.0195
94539W        W37633  11.661  24.441   5.081  0.0315  0.2336  0.1094
94540W        W37634  13.386  21.921   5.419 -0.0995 -0.1288 -0.1827
94541W        W37635  10.590  26.795   4.533 -0.0575 -0.0957 -0.1410
94542W        W37636  12.954  20.983   3.130 -0.1886 -0.0983 -0.0175
94543W        W37637  11.788  25.076   4.320  0.0778  0.1385 -0.2323
94544W        W37638  14.691  22.403   4.069  0.2057 -0.4035  0.1377
94545W        W37639  14.375  22.757   3.856 -0.1787  0.3783 -0.0286
94546W        W37640  10.650  22.676   5.437  0.0997 -0.1071 -0.1031
94547W        W37641  12.996  23.464   5.085 -0.1517 -0.0169  0.3008
94548W        W37642  10.854  25.026   5.898  0.2056  0.2889  0.0162
94549W        W37643  13.478  25.165   6.429  0.1950 -0.3397 -0.2935
94550W        W37644  13.280  22.129   3.544 -0.1867  0.1058  0.0485
94551W        W37645  14.503  22.953   6.340  0.1649  0.1655 -0.0518
94552W        W37646  12.843  24.260   6.711 -0.0653  0.1572 -0.1161
94553W        W37647  11.948  22.491   3.743  0.2388 -0.1076 -0.0015
94554W        W37648  12.765  23.380   5.712 -0.0333  0.2110 -0.4778
94555W        W37649  11.604  23.045   5.169  0.0709  0.2451  0.0540
94556W        W37650   9.952  25.154   5.186 -0.0517  0.0439  0.0625
94557W        W37651  14.076  24.673   6.119  0.0976 -0.1776 -0.1650
94558W        W37652  12.973  22.748   4.723  0.0652  0.2733 -0.0340
94559W        W37653  11.644  24.980   5.226  0.1315  0.0346 -0.0061
94560W        W37654  12.308  23.237   8.008 -0.0164  0.1008 -0.3649
94561W        W37655  13.940  24.691   5.376 -0.0190 -0.1349 -0.2682
94562W        W37656  11.496  22.141   5.342  0.2190  0.0858  0.0110
94563W        W37657  13.384  22.374   3.998 -0.0714  0.0513  0.0892
94564W        W37658  13.017  23.167   4.360 -0.1095 -0.1085  0.1486
94565W        W37659  14.716  23.482   6.221  0.3415  0.1716 -0.1320
94566W        W37660  12.994  22.510   4.305 -0.1117  0.0970  0.2971
94567W        W37661  12.193  24.452   7.364  0.1714  0.0502  0.2203
94568W        W37662  12.398  21.414   4.345  0.0955 -0.2206 -0.1748
94569W        W37663  13.743  24.924   2.912 -0.2042  0.1788  0.0362
94570W        W37664  13.175  24.137   7.371  0.1027  0.1646  0.3135
94571W        W37665  11.369  23.920   4.094 -0.0074  0.0022  0.1927
94572W        W37666   9.244  24.878   5.592 -0.5273 -0.0592 -0.1413
94573W        W37667  12.095  23.268   3.130 -0.0199  0.1067  0.2140
94574W        W37668  12.024  21.838   5.658  0.0295 -0.0036 -0.1442
94575W        W37669  12.302  23.775   6.103  0.2297  0.0867 -0.2785
94576W        W37670  11.689  23.714   4.525 -0.2262  0.2243  0.0605
94577W        W37671  11.996  25.241   6.684  0.0364  0.3847 -0.2242
94578W        W37672  14.960  20.026   4.050 -0.2361  0.0582 -0.4600
94579W        W37673  13.744  23.455   3.459 -0.1860  0.0543 -0.0175
94580W        W37674  12.292  23.314   5.849  0.1533 -0.0247 -0.1536
94581W        W37675  15.454  22.542   5.832 -0.0165  0.0873 -0.0412
94582W        W37676  13.347  23.616   3.888  0.1865 -0.0515 -0.0658
94583W        W37677  13.328  23.130   7.810  0.1822 -0.1307  0.2158
94584W        W37678  11.313  22.612   5.446 -0.2676 -0.2959 -0.3458
94585W        W37679  14.283  24.941   4.428 -0.4800  0.2597  0.1418
94586W        W37680  11.498  23.255   6.573  0.0663  0.0278 -0.1729
94587W        W37681  12.587  26.020   7.859  0.0160  0.2301  0.2193
94588W        W37682  11.752  23.126   7.036  0.1389 -0.2078 -0.0135
94589W        W37683  14.958  21.467   4.716  0.1024 -0.0105  0.0545
94590W        W37684  11.925  20.537   3.485 -0.2616  0.0931 -0.0584
94591W        W37685  13.244  23.825   6.069 -0.1068 -0.0989 -0.4288
94592W        W37686  14.629  23.634   5.261  0.0628  0.0889  0.1636
94593W        W37687  13.715  23.688   4.622  0.2780  0.1510 -0.0003
94594W        W37688  14.361  22.281   3.634  0.0589  0.1141 -0.0864
94595W        W37689  10.553  24.549   5.594 -0.2827 -0.2137  0.1241
94596W        W37690  13.996  23.292   2.974  0.0688  0.0303  0.0430
94597W        W37691  13.993  22.863   4.299  0.1458  0.3858  0.1431
94598W        W37692  11.208  25.301   6.091 -0.4427 -0.0231 -0.1480
94599W        W37693  11.229  23.098   7.907 -0.2357  0.1177 -0.0809
94600W        W37694  13.888  23.411   5.085  0.0761 -0.0462  0.2838
94601W        W37695  13.960  22.857   5.203 -0.2388 -0.0678  0.1527
94602W        W37696  14.255  22.194   5.134  0.2485  0.1308 -0.3208
94603W        W37697  13.685  22.404   4.387  0.1205  0.1112  0.1393
94604W        W37698  10.876  22.538   7.252 -0.1643  0.2611 -0.1565
94605W        W37699  10.649  22.287   5.822 -0.1492 -0.1415 -0.3361
94606W        W37700  13.982  25.480   6.638  0.0893 -0.0097  0.0423
94607W        W37701  13.352  23.114   3.467  0.1034 -0.3813 -0.0351
94608W        W37702  15.150  22.633   4.883  0.2320  0.2044 -0.1034
94609W        W37703  14.219  23.580   3.315  0.2003  0.0122  0.1789
94610W        W37704  13.852  23.193   3.932  0.2853 -0.0307  0.1256
94611W        W37705  11.784  22.389   4.361  0.1755  0.0316 -0.1272
94612W        W37706  13.601  23.281   6.644 -0.0320  0.0455  0.4037
94613W        W37707  12.243  22.415   3.211  0.1254 -0.0384  0.0328
94614W        W37708  13.771  22.346   5.322 -0.1162 -0.1755  0.0286
94615W        W37709  12.098  26.417   4.365 -0.3333  0.0801  0.2469
94616W        W37710  13.949  23.917   5.044  0.1244 -0.0486 -0.3920
94617W        W37711  14.388  23.439   3.920  0.1086 -0.1043  0.1074
94618W        W37712  11.067  23.091   5.190 -0.0308 -0.0534  0.1321
94619W        W37713  12.895  25.151   7.319 -0.1075 -0.0269  0.2767
94620W        W37714  11.400  23.472   3.806  0.2052  0.1617  0.0585
94621W        W37715  13.162  23.616   4.611 -0.0800  0.0762 -0.0271
94622W        W37716  13.416  22.807   4.387  0.0548  0.0107 -0.0825
94623W        W37717  13.951  24.098   6.575 -0.0708  0.2064  0.1000
94624W        W37718  12.104  20.139   3.257 -0.0064  0.2525 -0.2734
94625W        W37719  16.122  21.910   4.848  0.2078  0.1489  0.0623
94626W        W37720  11.653  24.801   4.745  0.0269  0.0684  0.2939
94627W        W37721  13.796  22.132   4.847  0.2899  0.1302  0.0716
94628W        W37722  13.615  26.541   7.308 -0.0197  0.1361  0.1676
94629W        W37723  11.563  24.692   7.232 -0.2111  0.1215  0.0941
94630W        W37724  10.960  23.526   5.643  0.1979  0.1367  0.4382
94631W        W37725  12.345  21.674   5.295  0.0499 -0.0610 -0.0694
94632W        W37726  13.749  23.003   4.672  0.1605 -0.0473  0.0500
94633W        W37727  12.519  23.081   5.323 -0.1619 -0.0968  0.1483
94634W        W37728  14.570  22.744   5.879  0.3418  0.0227 -0.1208
94635W        W37729  12.311  24.667   5.736 -0.0301  0.0379  0.0802
94636W        W37730  11.852  23.277   5.976  0.1587  0.1435  0.1621
94637W        W37731  14.058  23.463   6.958  0.2738  0.2482  0.1054
94638W        W37732  13.461  23.693   5.122 -0.0683  0.1015 -0.2812
94639W        W37733  12.189  24.345   5.268  0.1048 -0.2365  0.2427
94640W        W37734  10.932  23.189   6.519  0.1538  0.6192 -0.1233
94641W        W37735  13.299  22.092   6.271  0.2243  0.1721  0.2450
94642W        W37736  12.060  23.829   5.004  0.1187  0.1567 -0.0186
94643W        W37737  12.503  21.531   3.540  0.2763 -0.2516  0.1146
94644W        W37738  13.596  23.794   3.052 -0.1011  0.0463  0.3380
94645W        W37739  10.342  25.886   8.181  0.3674 -0.1494 -0.3237
94646W        W37740  11.632  25.176   6.986  0.3353  0.0471  0.0964
94647W        W37741  11.923  25.429   5.288  0.1515  0.0378  0.1530
94648W        W37742  14.269  23.832   2.792  0.0822  0.0857 -0.2541
94649W        W37743  12.321  23.657   3.862  0.3236 -0.1439  0.2610
94650W        W37744  14.859  25.823   5.306  0.1157  0.0692  0.1437
94651W        W37745  13.052  22.037   3.076 -0.1010 -0.0903  0.0660
94652W        W37746  12.189  24.551   4.829 -0.1103  0.0725 -0.0002
94653W        W37747  11.327  24.283   4.661  0.1166 -0.2005  0.1718
94654W        W37748  14.248  23.910   3.806 -0.0125 -0.2655 -0.0369
94655W        W37749  10.862  26.643   4.946 -0.0411  0.0683  0.0414
94656W        W37750  14.646  23.980   8.075 -0.0416 -0.0611 -0.1974
94657W        W37751  14.523  20.108   1.884  0.0304  0.0433  0.1875
94658W        W37752  14.213  23.272   6.108 -0.2037 -0.2961  0.0930
94659W        W37753  15.063  21.537   3.508  0.2314  0.2214 -0.0191
94660W        W37754  13.920  25.610   7.431 -0.3866  0.0382 -0.0408
94661W        W37755  11.956  22.448   6.313  0.1465 -0.3357  0.0376
94662W        W37756  13.185  20.992   2.456 -0.0284  0.0854 -0.2460
94663W        W37757  12.482  23.827   6.832  0.0237 -0.1623 -0.0707
94664W        W37758  15.445  22.709   7.411  0.0357  0.1498  0.0496
94665W        W37759  11.618  24.761   6.611 -0.0179  0.2157  0.2217
94666W        W37760  13.676  24.261   4.234  0.0261 -0.0945 -0.0991
94667W        W37761  11.196  23.648   6.550 -0.2355  0.2561 -0.1393
94668W        W37762  11.983  23.320   5.387 -0.2196 -0.0969 -0.0946
94669W        W37763  14.820  20.650   4.048  0.0480 -0.0159 -0.2750
94670W        W37764  12.509  24.595   2.772  0.0663  0.2648 -0.2149
94671W        W37765  13.320  23.456   5.523  0.1529  0.2096 -0.0497
94672W        W37766  12.424  25.633   3.856  0.0620  0.1327 -0.2110
94673W        W37767  11.386  25.467   5.276  0.3759 -0.2073 -0.0117
94674W        W37768  13.013  25.176   6.253  0.1683 -0.1461 -0.0338
94675W        W37769  11.284  22.079   3.509  0.0963  0.1233 -0.0390
94676W        W37770  14.783  22.332   5.040  0.0229  0.1854 -0.0703
94677W        W37771  10.771  24.773   7.432  0.1764  0.0367  0.1932
94678W        W37772  13.668  23.164   5.985  0.2022 -0.0563 -0.1326
94679W        W37773  10.100  24.275   5.625 -0.0826  0.0316 -0.0410
94680W        W37774  13.733  21.931   4.230  0.2970  0.0483 -0.0937
94681W        W37775  13.882  23.740   5.481  0.1737  0.0429 -0.1650
94682W        W37776  12.168  22.306   5.853 -0.2213 -0.0080  0.1069
94683W        W37777  12.978  23.332   3.847 -0.0241  0.0757 -0.2744
94684W        W37778  13.163  23.343   6.090  0.2873 -0.0637  0.0251
94685W        W37779  12.786  23.188   2.445 -0.0496 -0.0444 -0.2081
94686W        W37780  13.103  24.596   7.259 -0.0865 -0.1233 -0.1280
94687W        W37781  12.115  22.475   4.944  0.1062 -0.0095  0.0815
94688W        W37782  13.803  22.181   2.183 -0.1128 -0.3668 -0.0580
94689W        W37783  11.249  23.457   4.279  0.1545  0.0308 -0.0351
94690W        W37784  12.738  24.404   5.774 -0.0359  0.4641 -0.1177
94691W        W37785  13.647  25.123   6.898  0.0262 -0.0764  0.0087
94692W        W37786  12.349  22.136   3.608  0.3937 -0.1141  0.2103
94693W        W37787  13.795  24.736   3.596 -0.2733  0.0245  0.1500
94694W        W37788  14.963  23.100   5.238 -0.0640  0.0485  0.4128
94695W        W37789  12.803  24.947   4.438  0.1414 -0.0246 -0.3021
94696W        W37790  14.938  22.784   3.787 -0.0083 -0.1499 -0.1960
94697W        W37791  13.598  24.776   5.968  0.0994 -0.0725  0.0649
94698W        W37792  11.714  22.294   5.887  0.0924  0.0538  0.2388
94699W        W37793  14.418  24.657   5.331 -0.0877 -0.1583  0.1606
94700W        W37794  15.346  24.484   5.075  0.0205  0.1940 -0.2483
94701W        W37795  13.512  21.705   3.812  0.2078 -0.2046  0.2192
94702W        W37796  11.659  23.491   4.973  0.0774  0.1312  0.0727
94703W        W37797  11.292  25.689   4.826  0.0542 -0.2384  0.1814
94704W        W37798  14.974  21.766   5.302 -0.2153  0.1596  0.2072
94705W        W37799  13.303  22.563   5.360  0.3099 -0.2407 -0.1678
94706W        W37800  13.296  26.188   3.953  0.0825  0.0792 -0.0093
94707W        W37801  14.127  21.904   4.576 -0.1905 -0.4043  0.0852
94708W        W37802  12.644  24.801   4.935  0.2165  0.0410  0.2383
94709W        W37803  13.358  24.694   6.874  0.1320 -0.1082 -0.4479
94710W        W37804  11.870  24.174   4.058  0.1686  0.3056  0.1468
94711W        W37805  12.516  24.272   6.317  0.1979 -0.2717  0.1539
94712W        W37806  11.792  24.195   4.596 -0.0783  0.1447  0.0983
94713W        W37807  13.149  26.104   4.897 -0.3057 -0.0646  0.0951
94714W        W37808  14.070  25.389   4.202  0.1282 -0.0338 -0.0572
94715W        W37809  12.489  23.571   5.192 -0.0151 -0.1173 -0.0557
94716W        W37810  14.785  25.407   5.071 -0.1167  0.0224  0.0422
94717W        W37811  13.697  21.652   4.683 -0.2730  0.1136 -0.0593
94718W        W37812  14.144  21.761   2.861 -0.3617  0.2133  0.0729
94719W        W37813  13.473  21.655   2.866  0.1566  0.1000  0.2050
94720W        W37814  12.121  23.425   7.068 -0.0494 -0.0347  0.0987
94721W        W37815  11.800  23.719   2.990  0.2021 -0.0392  0.2484
94722W        W37816  12.036  25.250   2.855 -0.0219  0.0414 -0.0507
94723W        W37817  11.795  24.574   5.566  0.1748 -0.0790 -0.0193
94724W        W37818  11.215  22.398   6.751  0.2098  0.1706  0.1403
94725W        W37819  11.896  22.941   6.424 -0.0599 -0.2034  0.0857
94726W        W37820  11.574  22.800   5.846  0.1075  0.0398  0.1857
94727W        W37821  11.536  22.745   4.216  0.1694  0.1011 -0.0928
94728W        W37822  14.917  24.359   4.294  0.0807  0.1865  0.1920
94729W        W37823  11.626  22.439   4.947 -0.0590 -0.1151 -0.1797
94730W        W37824  12.516  22.714   5.026  0.0643 -0.0510 -0.1321
94731W        W37825  13.015  25.431   4.564 -0.0658  0.1121 -0.1597
94732W        W37826  13.063  23.978   5.021 -0.0955  0.2283 -0.2507
94733W        W37827  13.846  22.160   3.738  0.4272 -0.3742  0.1623
94734W        W37828  10.314  24.617   4.157 -0.1314  0.0914 -0.0381
94735W        W37829  12.810  22.549   5.490  0.1511  0.4124 -0.3106
94736W        W37830  12.071  23.247   8.476 -0.0986  0.1529 -0.4993
94737W        W37831  12.031  23.094   4.082 -0.0154  0.1959  0.0462
94738W        W37832  13.213  22.961   5.664  0.1371 -0.0061  0.0197
94739W        W37833  12.304  25.699   4.997  0.0276  0.1576 -0.1233
94740W        W37834  13.316  24.537   3.631 -0.3531  0.2566 -0.1000
94741W        W37835  12.254  23.806   5.612  0.0697 -0.0727 -0.2036
94742W        W37836  12.796  23.827   5.919  0.2355 -0.0200  0.0293
94743W        W37837  12.934  21.364   5.138  0.0673 -0.0103  0.2787
94744W        W37838  14.042  23.406   4.342  0.0632 -0.4280  0.1568
94745W        W37839  11.489  23.377   5.593 -0.2161  0.2403 -0.0027
94746W        W37840  13.727  24.186   3.715 -0.1447  0.1087 -0.0055
94747W        W37841  15.564  22.396   4.909 -0.0518  0.1271 -0.0420
94748W        W37842  12.868  22.918   3.489  0.0322 -0.0518  0.1924
94749W        W37843  12.253  21.866   4.469 -0.0572 -0.2212 -0.1313
94750W        W37844  12.930  24.747   6.615  0.0292  0.2047  0.0906
94751W        W37845  15.014  24.028   5.616 -0.1561 -0.0171 -0.0947
94752W        W37846  11.466  21.133   4.090 -0.1857 -0.0490 -0.0701
94753W        W37847  14.652  23.048   4.102 -0.0723  0.1541 -0.1186
94754W        W37848  12.897  23.698   4.144 -0.2252 -0.2056 -0.0149
94755W        W37849  11.416  24.322   6.020 -0.3203 -0.0282 -0.2601
94756W        W37850  13.547  23.069   5.302  0.4171  0.0023 -0.2315
94757W        W37851  12.661  22.282   5.897  0.1904  0.1771 -0.0525
94758W        W37852  12.376  24.283   1.853  0.1857 -0.0234 -0.0674
94759W        W37853  14.323  23.887   6.984  0.0695 -0.0043 -0.1631
94760W        W37854  13.075  21.997   4.100  0.1393  0.1290  0.3932
94761W        W37855  15.176  24.477   2.349  0.0539 -0.1966 -0.3924
94762W        W37856  14.524  24.698   6.335 -0.0258 -0.0506  0.1401
94763W        W37857  12.935  23.799   7.617 -0.2728  0.1420 -0.2573
94764W        W37858  12.572  24.736   6.181 -0.1894  0.0460  0.1899
94765W        W37859  12.643  22.834   5.899  0.1760 -0.1833  0.0503
94766W        W37860  10.690  23.505   4.577 -0.1785 -0.0624  0.0978
94767W        W37861  11.252  23.321   4.768 -0.0644  0.1839  0.1988
94768W        W37862  11.528  23.954   5.009  0.1227 -0.0813  0.2115
94769W        W37863  13.740  23.841   6.026 -0.0689 -0.0235 -0.0345
94770W        W37864  12.359  23.067   3.749  0.2458 -0.0280 -0.1052
94771W        W37865  14.082  22.184   2.622  0.0001  0.0519  0.0589
94772W        W37866  11.791  23.823   5.856  0.3001 -0.4496 -0.1999
94773W        W37867  14.266  24.948   5.792 -0.0661 -0.3318 -0.0871
94774W        W37868  15.186  25.088   9.089 -0.0091 -0.0644 -0.2720
94775W        W37869  11.479  23.125   7.463  0.1810 -0.1357  0.2675
94776W        W37870  14.206  23.824   7.774  0.0830  0.1082 -0.2819
94777W        W37871  14.678  23.003   7.137  0.0621 -0.4018 -0.2640
94778W        W37872  11.373  22.718   8.694  0.2381  0.0268 -0.0473
94779W        W37873  13.185  23.966   8.192 -0.2177 -0.0467  0.1567
94780W        W37874  14.288  23.908   9.752  0.0946 -0.1586 -0.0591
94781W        W37875  14.727  26.938   9.613  0.3507 -0.0752 -0.0286
94782W        W37876  14.251  22.993   6.885  0.0417  0.0633 -0.1013
94783W        W37877  13.242  22.518   8.662  0.0505  0.0321  0.1555
94784W        W37878  12.217  21.752   7.174  0.0524  0.1893 -0.1110
94785W        W37879  10.513  21.105   9.788  0.0080  0.0757 -0.1676
94786W        W37880  13.971  23.240   8.484  0.1269 -0.2403  0.0853
94787W        W37881  11.500  22.642   7.476  0.1210 -0.2513  0.0733
94788W        W37882  13.152  23.154   9.280  0.1919  0.1714  0.0351
94789W        W37883  12.336  22.778   8.289  0.0038  0.2617  0.0291
94790W        W37884  14.421  24.900   8.587 -0.2701  0.0401 -0.2756
94791W        W37885  14.157  21.836   9.566 -0.0430  0.1844  0.0122
94792W        W37886  12.693  24.080   7.189  0.1809  0.2489 -0.2622
94793W        W37887  10.619  24.276   7.626 -0.1723  0.0981 -0.4563
94794W        W37888   9.518  21.673   8.921  0.0039 -0.0283 -0.1393
94795W        W37889  11.067  24.826   9.970  0.0069  0.3917 -0.1952
94796W        W37890  14.891  23.375   8.780  0.3177 -0.1425 -0.0018
94797W        W37891  13.457  21.382   9.443  0.1235  0.0115  0.4417
94798W        W37892  11.837  25.351   9.486 -0.1433  0.1340  0.1059
94799W        W37893  11.719  25.723   8.709  0.1690 -0.3617  0.4945
94800W        W37894  10.758  23.452   8.459 -0.1171  0.1255 -0.0002
94801W        W37895  10.349  23.540   9.308  0.1692 -0.1196  0.0146
94802W        W37896  11.202  24.863   8.320 -0.3139 -0.2370  0.1693
94803W        W37897  14.675  23.563   7.830 -0.1042  0.0473 -0.0167
94804W        W37898  12.073  24.888   7.047 -0.5336  0.4435 -0.1083
94805W        W37899  13.357  23.467   8.984 -0.1006  0.2194 -0.2879
94806W        W37900  12.471  23.983   7.783 -0.0106  0.1806  0.2340
94807W        W37901  12.795  24.296   8.018  0.4397  0.0058 -0.0274
94808W        W37902  11.803  24.421   7.764 -0.0371  0.0210  0.3479
94809W        W37903  11.833  26.193   8.886 -0.0949 -0.3347  0.2147
94810W        W37904  12.171  25.834   8.700  0.2070  0.2132 -0.0816
94811W        W37905  13.044  24.604   8.289 -0.2381 -0.3178  0.2673
94812W        W37906  11.611  23.308   8.285  0.0241 -0.0052 -0.3425
94813W        W37907  14.943  23.169   7.981 -0.0622  0.1461 -0.1799
94814W        W37908  12.039  22.574   7.925  0.2123  0.1361 -0.2152
94815W        W37909  11.079  24.700   9.475 -0.1419  0.2920  0.0530
94816W        W37910  10.275  20.960   9.009  0.0456 -0.3091  0.0326
94817W        W37911  12.761  22.970   6.719  0.2026  0.1844  0.1395
94818W        W37912  12.540  22.790   7.831  0.0092 -0.1950  0.0577
94819W        W37913  13.653  25.881   9.218 -0.1387 -0.2067 -0.2028
94820W        W37914  12.628  23.225   8.631  0.0361  0.1666  0.4174
94821W        W37915  15.216  24.862   5.607 -0.0165  0.0175 -0.0709
94822W        W37916  13.907  24.740   7.802  0.0822  0.0272  0.0197
94823W        W37917  12.028  24.909   7.815 -0.0572  0.0646 -0.2283
94824W        W37918   9.885  23.085   7.403 -0.2023 -0.4030 -0.1656
94825W        W37919  12.472  22.589   7.287  0.2122 -0.0037 -0.3359
94826W        W37920  13.380  22.302   7.624  0.0858  0.0195 -0.0522
94827W        W37921  11.697  23.167   9.590 -0.2120  0.1923  0.0199
94828W        W37922  13.470  24.606   9.112  0.1375  0.0020 -0.1858
94829W        W37923  14.534  23.496   6.762  0.0107 -0.1850 -0.3417
94830W        W37924  14.539  20.859   7.973  0.1337 -0.0164 -0.4042
94831W        W37925  13.967  21.706   8.177  0.0659 -0.0111 -0.1517
94832W        W37926  12.042  23.883   6.548  0.0334  0.0351 -0.1513
94833W        W37927  12.744  23.346   7.780 -0.2268  0.0978  0.0281
94834W        W37928  11.667  23.979   8.039  0.1294 -0.1534 -0.1503
94835W        W37929  14.594  22.672   6.757 -0.1399 -0.0939  0.0376
94836W        W37930  12.826  27.322   9.853 -0.1969 -0.0591  0.2205
94837W        W37931  11.582  24.656   8.695  0.0867  0.4759 -0.2226
94838W        W37932  10.851  23.259   9.339  0.1018  0.1575 -0.1564
94839W        W37933  11.956  23.387   7.533  0.1129 -0.0590  0.0451
94840W        W37934  11.223  21.364  10.004  0.1030  0.1660 -0.2979
94841W        W37935  10.805  24.078   9.434 -0.0337  0.2113  0.0645
94842W        W37936  13.483  19.327  12.030  0.0521 -0.2413 -0.2343
94843W        W37937  12.915  22.877   9.750 -0.0930 -0.3356  0.1732
94844W        W37938  11.822  22.532   8.823 -0.1585  0.0251 -0.4056
94845W        W37939  13.701  25.904   9.808 -0.0715  0.3728 -0.1306
94846W        W37940  14.263  22.537   7.188 -0.2590 -0.0730 -0.0511
94847W        W37941  11.645  24.739   8.165  0.0131 -0.0024  0.0162
94848W        W37942  10.330  21.855   8.240 -0.1723  0.1060 -0.0238
94849W        W37943  12.153  21.534   9.001  0.2093  0.1961 -0.3209
94850W        W37944  10.844  19.112   9.078 -0.3033  0.0637 -0.0074
94851W        W37945  10.131  23.027   7.963 -0.0828  0.0854  0.2307
94852W        W37946  13.635  23.065   7.400  0.2208  0.1027 -0.0896
94853W        W37947  11.896  23.880   7.564 -0.0500  0.1040  0.1175
94854W        W37948  11.534  22.607   7.959  0.2246  0.0701 -0.0326
94855W        W37949  12.087  24.685   8.584 -0.0058 -0.0331  0.1730
94856W        W37950  14.374  28.606   9.995 -0.0095 -0.0260 -0.0430
94857W        W37951  15.114  24.001   7.850 -0.0283 -0.2382 -0.0667
94858W        W37952  13.911  21.764   9.100  0.0021  0.1008 -0.2274
94859W        W37953  10.898  21.942   8.464  0.1176 -0.4324  0.1628
94860W        W37954  10.065  24.960   8.952  0.1272  0.2350 -0.4870
94861W        W37955  12.829  25.057   9.073  0.1735  0.0782 -0.0395
94862W        W37956  11.687  22.137   7.874 -0.0385  0.0925 -0.3141
94863W        W37957  13.651  23.957   9.156  0.2394  0.2740  0.0274
94864W        W37958  12.875  22.196   8.849 -0.0131  0.1695  0.1232
94865W        W37959  14.350  22.975   8.638  0.0089  0.1904  0.2128
94866W        W37960  14.359  23.518   7.347  0.2041  0.1198 -0.0160
94867W        W37961  11.947  20.740   7.117 -0.2142  0.4619  0.0412
94868W        W37962  13.416  24.360   8.559 -0.1255 -0.0560 -0.0004
94869W        W37963  10.834  25.183   8.589 -0.0098 -0.1405 -0.2624
94870W        W37964  11.111  22.912   9.588  0.2366 -0.0832  0.0170
94871W        W37965  12.951  24.742   7.818  0.1496  0.1605 -0.2674
94872W        W37966  14.429  21.408   9.339 -0.0901 -0.2227 -0.2748
94873W        W37967  10.820  21.711   7.420 -0.0007 -0.1610  0.2169
94874W        W37968  11.989  21.721   7.958  0.2947  0.1714  0.1275
94875W        W37969  14.959  22.045   7.549  0.2126  0.3342 -0.1379
94876W        W37970  13.859  24.257   8.715  0.0086  0.0091  0.0239
94877W        W37971  13.576  22.332   6.843 -0.0725  0.1480  0.0500
94878W        W37972  13.907  21.994   6.714 -0.0089 -0.1399 -0.1685
94879W        W37973  12.894  23.451   9.016 -0.0205 -0.2083 -0.2507
94880W        W37974  10.906  23.991   8.703  0.0006 -0.0126  0.0963
94881W        W37975  13.061  22.836   6.200 -0.1406 -0.1226 -0.1608
94882W        W37976  14.956  23.500   9.474  0.0382  0.1575  0.2467
94883W        W37977  10.326  25.221   9.335 -0.0134  0.0129 -0.3338
94884W        W37978  11.549  24.077   8.511 -0.2153  0.3726 -0.2287
94885W        W37979  13.036  21.216   9.172  0.0460 -0.0624 -0.0427
94886W        W37980  12.169  23.373   6.500  0.3631  0.0760 -0.2093
94887W        W37981  12.684  23.674   8.169  0.2318  0.0800  0.3385
94888W        W37982  11.635  25.624   6.786  0.0083  0.2818 -0.0212
94889W        W37983  13.386  23.933   8.731 -0.0847 -0.2382 -0.0634
94890W        W37984   9.896  20.480   9.862 -0.2940 -0.2788  0.0453
94891W        W37985  13.856  22.578   8.158  0.0571  0.2508 -0.2136
94892W        W37986  12.435  23.691   7.356 -0.0665  0.2618 -0.2570
94893W        W37987  11.267  22.173   7.491  0.3260 -0.0510  0.1278
94894W        W37988  11.352  20.339  10.146 -0.0999  0.4591  0.1474
94895W        W37989  11.304  24.082   8.995  0.1170 -0.0941  0.1539
94896W        W37990  13.707  22.762   7.755 -0.0048  0.1923 -0.1882
94897W        W37991  14.133  22.967   7.413 -0.0038  0.0720  0.0859
94898W        W37992  12.521  25.257   9.672 -0.1259  0.1823  0.2052
94899W        W37993  12.942  24.176   8.574 -0.0428 -0.0345 -0.0684
94900W        W37994  12.514  21.810   8.169  0.4951 -0.0925 -0.4342
94901W        W37995  10.321  24.368   9.071 -0.0261 -0.0358  0.0493
94902W        W37996  13.666  24.654   6.434  0.1501 -0.1687  0.0638
94903W        W37997  12.572  23.014   9.274 -0.0245  0.0181  0.0654
94904W        W37998  12.448  23.135   7.340 -0.1855  0.1007 -0.2133
94905W        W37999  13.969  20.661   9.448  0.0901 -0.0856  0.1479
94906W        W38000   9.342  25.287   7.150 -0.2055  0.1446 -0.1140
94907W        W38001  12.841  21.723   9.056  0.2095  0.2387  0.3000
94908W        W38002  11.091  23.061   8.377  0.0104 -0.1400 -0.1085
94909W        W38003  13.305  21.913   8.998  0.2486 -0.2447 -0.1284
94910W        W38004  14.300  23.560   8.740  0.0903  0.0934  0.0174
94911W        W38005  12.683  22.287   8.233 -0.0056 -0.1189 -0.2751
94912W        W38006  12.908  21.964   7.666 -0.3113 -0.2811 -0.1572
94913W        W38007  13.237  26.145   9.738 -0.1092  0.1442 -0.0914
94914W        W38008  14.027  20.942   7.905 -0.1629 -0.0586 -0.1500
94915W        W38009   9.996  22.987   6.822  0.0912 -0.2467  0.2194
94916W        W38010  11.260  24.227   9.570  0.3618  0.0373  0.3789
94917W        W38011  12.575  23.638   9.332 -0.1172 -0.2853 -0.0782
94918W        W38012  10.254  24.916   8.397 -0.1725  0.1239 -0.0707
94919W        W38013  15.534  25.255   9.560  0.0247  0.0273  0.1411
94920W        W38014  11.419  21.890   8.253  0.0989 -0.1764 -0.3849
94921W        W38015  10.556  22.635   7.653 -0.0505  0.0517  0.3056
94922W        W38016  13.505  24.988   9.750  0.1759  0.1729 -0.1187
94923W        W38017  13.862  22.171   7.781  0.1176 -0.1071  0.1093
94924W        W38018  11.287  22.231   8.709 -0.0103  0.2237  0.1284
94925W        W38019  12.533  21.585   9.440 -0.0651  0.0068  0.1897
94926W        W38020  12.985  25.159   8.308  0.0377  0.0609  0.0045
94927W        W38021  12.668  21.824   8.607 -0.2236 -0.0420  0.1134
94928W        W38022  11.445  20.504   7.123  0.0756 -0.0859  0.0110
94929W        W38023  12.693  24.190   9.383 -0.0028  0.1139  0.0081
94930W        W38024  12.127  25.078   8.336  0.0504 -0.0729 -0.1578
94931W        W38025  10.684  23.070   7.977 -0.0724  0.2616 -0.0099
94932W        W38026  12.233  22.957   6.942 -0.0271 -0.0393 -0.1536
94933W        W38027  12.039  21.260   9.418 -0.1224 -0.0762  0.0558
94934W        W38028  12.242  24.053   9.291  0.0078 -0.0049  0.1151
94935W        W38029  10.692  24.656   8.296  0.3096 -0.1057 -0.1230
94936W        W38030  11.964  23.554   9.397  0.4372  0.1621 -0.0944
94937W        W38031  13.350  21.383   8.259 -0.2642  0.3327  0.0127
94938W        W38032  12.803  23.867   6.456 -0.0158 -0.0618  0.3283
94939W        W38033  13.371  22.839   8.250 -0.0639 -0.0582  0.2303
94940W        W38034  13.984  23.568   6.444  0.0902  0.1675 -0.0759
94941W        W38035  13.659  22.232   8.821 -0.2396  0.0260 -0.0600
94942W        W38036  13.167  24.148   9.115  0.5704 -0.3508  0.0013
94943W        W38037  12.531  22.295   7.750  0.0283 -0.1394  0.1637
94944W        W38038  12.529  21.145   8.946  0.0026 -0.0506 -0.1955
94945W        W38039  12.761  22.688   8.546  0.1243  0.0267 -0.1104
94946W        W38040  10.772  21.694   9.914 -0.0389 -0.1728  0.1967
94947W        W38041  10.453  25.064   7.738 -0.1182 -0.0175  0.0843
94948W        W38042  15.158  22.504   8.189  0.0533 -0.2165 -0.1252
94949W        W38043  11.731  22.006   8.916 -0.1839 -0.0771  0.1027
94950W        W38044  13.717  22.904   6.940  0.3486  0.3008  0.1484
94951W        W38045  13.248  22.806   6.700 -0.2010  0.0313 -0.1485
94952W        W38046  11.199  23.724   8.141 -0.0366  0.1476 -0.1301
94953W        W38047  14.829  21.851   8.771 -0.2768  0.0101  0.2012
94954W        W38048  13.027  22.622   9.261 -0.0803  0.0976 -0.3236
94955W        W38049  14.843  25.420   9.184  0.1449 -0.2354 -0.2107
94956W        W38050  15.508  23.092   5.269 -0.2467  0.0474  0.0208
94957W        W38051  13.520  23.510   8.341 -0.1647  0.0459 -0.0884
94958W        W38052  13.043  23.513   8.539 -0.0137 -0.0490  0.0393
94959W        W38053  14.610  23.161   7.601 -0.0600  0.1538  0.0654
94960W        W38054  12.547  21.134   9.642  0.0960 -0.1318 -0.1527
94961W        W38055  12.054  21.404   7.596  0.0905 -0.2495 -0.0886
94962W        W38056  10.565  24.895   8.855  0.4825  0.0811  0.1914
94963W        W38057  12.948  23.399   7.341 -0.1165 -0.1015  0.1529
94964W        W38058  14.248  21.858   8.663 -0.1990  0.0349 -0.1769
94965W        W38059  11.106  23.087   8.872  0.0006  0.0498 -0.0779
94966W        W38060  12.069  22.307   7.120  0.0282  0.2407 -0.1607
94967W        W38061  13.015  23.729   6.954 -0.2935 -0.1600 -0.0417
94968W        W38062  13.008  24.634   8.887 -0.0538 -0.1853 -0.0737
94969W        W38063  13.165  22.014   8.495  0.5859 -0.1084 -0.1866
94970W        W38064  10.852  24.048   8.177 -0.0554 -0.1416  0.3877
94971W        W38065  13.232  20.491   8.813  0.1157 -0.3234 -0.0588
94972W        W38066  12.138  26.319   9.681 -0.0070 -0.0529 -0.1586
94973W        W38067  12.512  24.642   9.276  0.1033  0.0170 -0.0026
94974W        W38068  14.520  23.292   9.725 -0.2107 -0.0878 -0.2849
94975W        W38069  15.680  23.504   6.140 -0.1458 -0.0377  0.1580
94976W        W38070  13.012  21.669   7.991  0.1620 -0.1132 -0.1818
94977W        W38071  11.744  24.135   9.260  0.0050  0.3033  0.0473
94978W        W38072  13.077  23.039   8.797 -0.2243  0.1321 -0.1477
94979W        W38073  10.564  24.322   8.630 -0.2032 -0.0632 -0.2477
94980W        W38074  15.599  23.026   8.926 -0.0478  0.0191 -0.0711
94981W        W38075  13.430  22.317   8.211 -0.3312  0.1101 -0.0694
94982W        W38076  11.534  24.152   7.312  0.4465  0.0470  0.0144
94983W        W38077  11.696  23.173   8.804 -0.0760  0.1149  0.4865
94984W        W38078  10.404  25.635   7.724 -0.0203  0.3449  0.1292
94985W        W38079  13.492  23.876   6.489  0.0361 -0.0642 -0.1093
94986W        W38080  13.887  23.709   7.361  0.0582  0.0830  0.0407
94987W        W38081  13.931  24.450   9.226 -0.1187 -0.1104 -0.0764
94988W        W38082  11.513  23.636   7.319 -0.0822  0.1136  0.1441
94989W        W38083  11.828  25.023   8.973  0.2530  0.2072  0.1486
94990W        W38084  10.038  25.274   7.524 -0.0755  0.0389 -0.3070
94991W        W38085  13.574  23.088   8.649  0.1084  0.0028 -0.0544
94992W        W38086  12.488  24.170   8.391 -0.0660  0.0875 -0.1505
94993W        W38087  14.182  22.529   7.708  0.0979 -0.1717 -0.1404
94994W        W38088  15.200  23.233   9.153 -0.1088  0.4697  0.0027
94995W        W38089  15.415  23.455   6.982  0.1506 -0.1669 -0.1231
94996W        W38090  12.905  22.129   9.321  0.2287 -0.1849 -0.0416
94997W        W38091  11.859  22.651   6.803  0.1047 -0.0270  0.4202
94998W        W38092  13.376  23.685   7.409  0.2230  0.0162 -0.2077
94999W        W38093  11.126  22.098   7.947  0.2148  0.0443  0.1353
95000W        W38094  10.006  25.803  10.003 -0.0073  0.0436 -0.4319
95001W        W38095  13.138  20.389   9.615  0.0815 -0.0014  0.0344
95002W        W38096  12.630  24.645   7.024  0.0505 -0.2220 -0.2122
95003W        W38097  12.499  20.404   8.398  0.0480 -0.1251  0.0224
95004W        W38098  13.360  25.405   9.130 -0.1493  0.3901 -0.0018
95005W        W38099  10.648  25.698   9.992  0.0833 -0.0179 -0.0472
95006W        W38100  11.726  23.732   8.919 -0.0358 -0.0608  0.0504
95007W        W38101  10.981  22.081   7.105  0.0732 -0.3154  0.2599
95008W        W38102  14.272  21.685   6.963 -0.1272  0.0167  0.1386
95009W        W38103  13.501  25.538   9.586 -0.1097 -0.2946  0.0942
95010W        W38104  11.706  22.251   8.418  0.0046  0.1439  0.0538
95011W        W38105  13.829  22.649   8.664  0.1408 -0.2430 -0.0574
95012W        W38106  12.960  25.924   8.414  0.1140 -0.1046  0.2110
95013W        W38107  15.475  23.521   9.798 -0.1538  0.1248 -0.0353
95014W        W38108  13.523  22.592   6.266  0.0976 -0.1320  0.0041
95015W        W38109  14.785  22.540   7.413  0.2487  0.1419 -0.0108
95016W        W38110  11.407  21.079   8.718  0.2124  0.2716  0.0165
95017W        W38111  13.167  22.126   7.126  0.1174  0.2335 -0.2586
95018W        W38112  10.506  23.930   8.942 -0.1301  0.5002 -0.2764
95019W        W38113  15.970  22.304   9.116  0.0683  0.0353 -0.2475
95020W        W38114  11.611  21.216   9.683 -0.1887  0.0530  0.0152
95021W        W38115  15.565  23.213   7.580  0.0974  0.0529 -0.1848
95022W        W38116  13.158  21.504   8.735 -0.0650  0.0563 -0.3014
95023W        W38117  11.544  26.140   7.287  0.0508  0.1579 -0.3191
95024W        W38118  13.858  22.122   8.421  0.1803  0.0779 -0.1666
95025W        W38119  12.846  24.829   9.869 -0.1377 -0.2075  0.2225
95026W        W38120  11.802  22.750   8.374 -0.0797 -0.0622  0.1418
95027W        W38121  11.258  25.183   9.446 -0.1530 -0.0700 -0.2747
95028W        W38122  11.957  22.949   9.194 -0.0952  0.0878 -0.2399
95029W        W38123  12.856  22.491   6.942  0.1154 -0.0705 -0.1653
95030W        W38124  12.206  23.404   8.965  0.2737  0.1507 -0.1652
95031W        W38125  10.786  25.300   7.503 -0.0920 -0.0245  0.3460
95032W        W38126  14.438  23.208   9.126  0.0950  0.0833  0.2355
95033W        W38127  12.337  24.788   6.626 -0.1044 -0.1367  0.2350
95034W        W38128  14.016  23.666   8.186  0.5477  0.0891  0.0305
95035W        W38129  10.255  23.895   7.950  0.0447 -0.0790 -0.2275
95036W        W38130  12.080  24.167   8.787  0.2226  0.4070 -0.1378
95037W        W38131  13.009  24.613   9.410  0.1589 -0.2207 -0.0144
95038W        W38132  13.851  23.745   8.657 -0.2158  0.4372 -0.1494
95039W        W38133  12.367  23.638   8.512 -0.2430  0.1450 -0.2894
95040W        W38134  15.073  22.274   8.674 -0.0956 -0.2912 -0.1500
95041W        W38135  11.872  21.029   8.972 -0.0153 -0.0053 -0.1565
95042W        W38136  15.572  19.829   7.873 -0.0575  0.3600  0.0056
95043W        W38137  12.453  21.026   7.088  0.0239  0.0932 -0.1241
95044W        W38138  12.338  26.220   9.011  0.1096  0.4136  0.1618
95045W        W38139  11.424  22.767   7.013  0.1557  0.3461 -0.0674
95046W        W38140  12.433  22.504   6.684 -0.0143 -0.5966  0.3632
95047W        W38141  11.377  23.777   9.375  0.1158  0.2926 -0.0088
95048W        W38142  10.815  22.661   8.614 -0.1827 -0.0112  0.2788
95049W        W38143  11.770  22.144   9.637 -0.3657 -0.5298 -0.0584
95050W        W38144  15.010  23.745   6.760 -0.1631  0.0995  0.1006
95051W        W38145  11.316  21.826   9.400 -0.1475  0.1144 -0.2520
95052W        W38146  11.042  22.606   7.790  0.0541  0.0528  0.0445
95053W        W38147  12.345  24.528   7.918  0.2386  0.1695 -0.0362
95054W        W38148  14.088  22.259   9.068 -0.1236 -0.1164 -0.0768
95055W        W38149  13.308  22.716   7.229 -0.1470  0.0795  0.1095
95056W        W38150  10.820  24.049   6.693  0.1246  0.0348  0.0252
95057W        W38151  11.698  21.352   8.084  0.0581  0.1360  0.3305
95058W        W38152  13.573  22.955   9.488 -0.1536  0.0082  0.3660
95059W        W38153  12.125  25.348   8.752  0.0387  0.1103  0.2625
95060W        W38154  12.858  23.045   8.199  0.0295 -0.2766  0.0470
95061W        W38155  11.129  24.427   8.562  0.1065 -0.1674  0.2719
95062W        W38156  13.131  23.512   8.011 -0.1966  0.2385  0.1900
95063W        W38157  15.016  22.980   8.429 -0.1748 -0.0820 -0.0661
95064W        W38158  15.399  20.950   8.288  0.0782 -0.1428 -0.1065
95065W        W38159  13.951  23.027   8.976 -0.1524  0.2258  0.0036
95066W        W38160  13.917  23.546   9.104 -0.1475  0.1137 -0.2943
95067W        W38161  12.094  22.194   7.573 -0.0407  0.0145  0.0193
95068W        W38162  13.786  22.479   7.314  0.1926  0.0918  0.3084
95069W        W38163  11.637  25.132   8.499  0.1616  0.1977  0.0278
95070W        W38164   9.877  23.119   9.369 -0.1351 -0.0212 -0.1699
95071W        W38165  14.838  21.691   7.944 -0.2086 -0.0214  0.3454
95072W        W38166  12.479  24.426   8.823 -0.2146 -0.5777  0.6316
95073W        W38167  13.306  23.257   7.035 -0.0434 -0.2850 -0.1927
95074W        W38168  14.871  24.029  10.143  0.0154 -0.0205 -0.1768
95075W        W38169  11.740  25.837   9.708 -0.0049  0.0047 -0.0268
95076W        W38170  10.042  23.837   9.680 -0.2245  0.1576  0.0336
95077W        W38171  13.104  22.609   7.880 -0.0826 -0.1659  0.4730
95078W        W38172  10.561  21.434   9.130  0.1967  0.1398  0.1911
95079W        W38173  10.704  23.139   7.058  0.1123  0.0849 -0.3726
95080W        W38174  11.855  23.680   8.445 -0.2178 -0.2870  0.0879
95081W        W38175  16.366  22.708   9.486  0.0526  0.0237 -0.0005
95082W        W38176  12.351  21.389   8.514 -0.1634  0.2314 -0.2692
95083W        W38177  13.498  21.819   7.642 -0.3328  0.0709  0.3962
95084W        W38178   9.468  26.704   9.401 -0.4441 -0.1196  0.0141
95085W        W38179  12.309  22.375   8.584  0.1854  0.1143  0.0960
95086W        W38180  12.639  28.573   3.515  0.0097  0.2279 -0.1982
95087W        W38181  12.470  27.063   1.578  0.2347  0.2989  0.1889
95088W        W38182  14.592  27.300  31.727 -0.1245  0.2911 -0.0304
95089W        W38183  13.998  28.454  31.612 -0.2397  0.2725  0.1577
95090W        W38184  10.762  26.157   1.432  0.1842  0.2016  0.1464
95091W        W38185  13.466  28.765   0.290 -0.1704  0.1050  0.0179
95092W        W38186  11.480  26.326   3.818 -0.0749  0.2436  0.1226
95093W        W38187  14.642  28.957  31.895  0.1278 -0.0952 -0.0227
95094W        W38188  15.920  28.147   2.040 -0.0847  0.1561 -0.0906
95095W        W38189  13.374  26.754  30.963 -0.0283 -0.1899 -0.0108
95096W        W38190  14.474  26.672   3.139  0.0162 -0.0061  0.1158
95097W        W38191  12.243  27.707   2.926  0.0443 -0.0366 -0.1385
95098W        W38192  12.564  26.340   0.968 -0.1830  0.1810 -0.2852
95099W        W38193  10.910  26.356   2.451 -0.0322 -0.3151 -0.2655
95100W        W38194  11.946  28.010   1.785  0.0558  0.1558  0.1828
95101W        W38195  10.991  25.930   1.841  0.1945  0.2850  0.2941
95102W        W38196  13.102  27.108   2.810  0.2196  0.2260 -0.0974
95103W        W38197  12.463  26.449   2.654 -0.1019 -0.0544  0.1123
95104W        W38198  13.282  29.874   0.992 -0.4294 -0.4475  0.0206
95105W        W38199  14.010  25.827   3.575  0.1406 -0.1915 -0.0698
95106W        W38200  13.370  23.991   2.518  0.1100  0.0749 -0.1550
95107W        W38201  12.313  29.088   0.579  0.2956 -0.2835  0.1757
95108W        W38202  12.530  26.280   0.168 -0.0972 -0.3109  0.1420
95109W        W38203  10.956  27.398   2.744  0.0246 -0.0221  0.0105
95110W        W38204  13.558  27.138   3.842  0.2017  0.2863  0.2127
95111W        W38205  14.531  25.937   1.282  0.3785  0.1512  0.2219
95112W        W38206  14.351  27.556   1.404 -0.4016 -0.0814 -0.4308
95113W        W38207  12.804  29.706   1.019  0.0110  0.0590  0.0268
95114W        W38208  12.910  28.435   1.601  0.2096 -0.1935 -0.1467
95115W        W38209  14.887  25.699   4.125  0.2548 -0.0470 -0.0475
95116W        W38210  11.184  27.741   2.193 -0.5243 -0.0392  0.4329
95117W        W38211  12.073  29.408   1.482  0.1139  0.1163 -0.0461
95118W        W38212  11.787  28.177   1.207  0.2220  0.1640  0.1380
95119W        W38213  16.126  27.533   0.803  0.0999 -0.2716  0.1294
95120W        W38214  14.924  28.397   0.985  0.2644 -0.1359  0.1488
95121W        W38215  13.203  27.531   3.058  0.2474  0.5461 -0.0259
95122W        W38216  10.051  27.025   0.911  0.1605 -0.1658 -0.2485
95123W        W38217  14.012  28.964   2.717 -0.1150  0.1284 -0.1175
95124W        W38218  13.679  26.677   3.878 -0.1212  0.0032  0.2084
95125W        W38219  13.188  26.342   2.257 -0.1580  0.0717 -0.2422
95126W        W38220  12.714  26.738   1.257 -0.0716 -0.1506 -0.0001
95127W        W38221  12.063  28.150   0.726 -0.1826 -0.0933 -0.1833
95128W        W38222  11.837  28.607   2.364 -0.0593  0.1991 -0.1098
95129W        W38223  12.388  27.310   4.130 -0.0237 -0.0802  0.2518
95130W        W38224  10.185  28.097   0.690  0.2044  0.0838 -0.0605
95131W        W38225  14.191  24.362   3.534  0.1360  0.0562 -0.1242
95132W        W38226  11.307  27.312   0.538  0.1341 -0.1029 -0.0117
95133W        W38227  14.460  26.353  31.613  0.3201  0.3318  0.1746
95134W        W38228  12.199  26.837  31.243  0.2589 -0.0683  0.1564
95135W        W38229  13.059  25.877   2.279 -0.2923 -0.0678  0.4241
95136W        W38230  12.906  25.422   1.292 -0.0920 -0.0371 -0.1914
95137W        W38231  11.596  27.374   0.143  0.0316  0.1161  0.0430
95138W        W38232  14.371  25.386   3.559 -0.5055  0.5263  0.3004
95139W        W38233  13.488  28.963   2.636 -0.2158 -0.4598  0.1488
95140W        W38234  12.533  27.965   0.621  0.0250 -0.2702 -0.0096
95141W        W38235  14.797  26.403   2.845  0.1113 -0.1772  0.1886
95142W        W38236  11.670  28.649   1.006 -0.0969 -0.1384 -0.0053
95143W        W38237  11.711  26.492   1.956  0.1568 -0.3449 -0.0317
95144W        W38238  12.603  29.085  31.314  0.1513 -0.2099 -0.1741
95145W        W38239  15.254  28.833  31.798 -0.0498  0.0331  0.1696
95146W        W38240  13.059  27.703  31.572  0.1490  0.0486  0.2122
95147W        W38241  10.955  26.516   0.591 -0.0593 -0.0815 -0.1753
95148W        W38242  11.751  28.898   3.700 -0.3929  0.1832 -0.0431
95149W        W38243  11.883  26.050   2.153  0.2163 -0.1069 -0.1366
95150W        W38244  13.027  26.328   1.271  0.0292  0.1185  0.0944
95151W        W38245  13.171  26.927   3.654  0.0188  0.0706 -0.2734
95152W        W38246  10.301  27.468   3.490 -0.0888 -0.2406  0.0302
95153W        W38247  13.404  26.784  31.868  0.0708  0.0029 -0.0407
95154W        W38248  12.399  27.829   1.427  0.0916 -0.0873 -0.1982
95155W        W38249  15.171  28.108   1.578 -0.0216  0.2531 -0.0065
95156W        W38250  12.832  27.768   0.082 -0.0967  0.0130  0.0972
95157W        W38251  14.499  25.840   0.548  0.3369 -0.2153  0.0957
95158W        W38252  14.627  24.995   1.228 -0.3711  0.0471  0.0677
95159W        W38253  12.110  27.770  31.617 -0.1424  0.5549 -0.3333
95160W        W38254  12.907  27.653   1.057  0.1877 -0.3376 -0.1107
95161W        W38255  14.415  28.226   1.972  0.2782 -0.1511  0.0659
95162W        W38256  15.522  28.498  31.099 -0.1781  0.1486  0.2395
95163W        W38257  12.472  29.135   2.761  0.1936 -0.1561 -0.0892
95164W        W38258  13.401  27.611   4.009 -0.0625  0.1300 -0.0336
95165W        W38259  13.115  27.933   2.824  0.1061  0.2805 -0.0418
95166W        W38260   9.836  28.418   0.412  0.1697 -0.1979  0.2228
95167W        W38261  11.397  26.872   1.487  0.1965 -0.0642  0.0634
95168W        W38262  10.920  26.107   0.908 -0.0410  0.1630 -0.3884
95169W        W38263  10.395  25.359   2.991 -0.0977  0.2848  0.1654
95170W        W38264  11.182  27.334   1.785  0.1139  0.2015  0.4166
95171W        W38265  13.926  26.561   0.209  0.1522  0.1332  0.0090
95172W        W38266  11.887  25.110   1.980  0.0065 -0.3539 -0.1305
95173W        W38267  15.810  24.774   0.586  0.1167 -0.1341  0.1558
95174W        W38268  11.587  28.183   0.773 -0.0864 -0.1965 -0.3244
95175W        W38269  13.469  28.277   0.183 -0.0490 -0.3449  0.0881
95176W        W38270  14.775  26.759   0.388  0.0583  0.1728 -0.2302
95177W        W38271  14.590  28.195  31.263  0.1911 -0.1067  0.0893
95178W        W38272  11.165  28.241   2.339  0.2374 -0.1090  0.0858
95179W        W38273  11.404  25.672   0.287  0.2230  0.2631 -0.0691
95180W        W38274  11.993  24.976   3.279 -0.1445  0.2340  0.1835
95181W        W38275  12.870  25.752   1.825  0.1144 -0.0364  0.3562
95182W        W38276  14.362  28.392   1.486 -0.1539  0.2501 -0.3506
95183W        W38277  12.139  26.041   1.263 -0.0354  0.1770 -0.0312
95184W        W38278  14.915  27.148   2.169 -0.1989 -0.0571 -0.0068
95185W        W38279  13.186  26.886   0.390  0.0077  0.0980  0.1254
95186W        W38280  10.952  26.933   0.808  0.0541 -0.2801 -0.2855
95187W        W38281  14.443  25.614   3.094 -0.1010 -0.2139  0.1827
95188W        W38282  13.482  28.541  31.593  0.3241 -0.1229  0.0638
95189W        W38283  14.849  29.002   1.692  0.1102  0.1020 -0.0742
95190W        W38284  15.149  27.929   0.981  0.1281  0.0644 -0.2422
95191W        W38285  12.741  25.110   3.882 -0.0581  0.0138  0.1847
95192W        W38286  13.543  25.493   0.310  0.2412  0.0814  0.0025
95193W        W38287  10.943  29.754   1.187  0.2422 -0.0210  0.1548
95194W        W38288  13.009  27.200   1.421 -0.0227  0.1424  0.3028
95195W        W38289  11.812  25.648   0.709 -0.3531  0.2764 -0.0518
95196W        W38290  15.231  28.877   0.888  0.0823 -0.3339 -0.2674
95197W        W38291  13.227  27.515   1.837  0.0530  0.1018  0.1493
95198W        W38292  11.407  27.152   2.844 -0.2365 -0.2722  0.0061
95199W        W38293  13.827  23.564   2.618  0.0093 -0.0900 -0.0330
95200W        W38294  14.535  27.158   2.813  0.0259  0.0152 -0.2547
95201W        W38295  14.480  26.693   2.575  0.1122 -0.0745  0.0224
95202W        W38296  11.476  25.906  30.819 -0.1215 -0.1079 -0.0474
95203W        W38297  13.936  28.324   1.233 -0.2144  0.0157 -0.3532
95204W        W38298  10.571  28.429   0.937 -0.1672  0.0134 -0.0619
95205W        W38299  11.196  25.496   2.503  0.2672  0.1553 -0.2848
95206W        W38300  11.647  28.434   1.619 -0.2690  0.2896  0.1520
95207W        W38301  13.594  26.391   1.920 -0.0362  0.0417 -0.2640
95208W        W38302  11.428  26.411   2.511 -0.3059 -0.0335 -0.0231
95209W        W38303  13.472  27.116   3.291 -0.1246 -0.0008  0.1752
95210W        W38304  10.161  26.188   0.682  0.0901  0.0258  0.3180
95211W        W38305  12.008  28.183   2.980  0.5928  0.1400  0.2404
95212W        W38306  13.082  25.734   0.886 -0.0127 -0.1328  0.0492
95213W        W38307  15.597  24.638   0.066 -0.0055 -0.0565 -0.0143
95214W        W38308  12.612  27.920   2.029  0.2530 -0.1017 -0.3643
95215W        W38309  16.411  28.973   0.031  0.0724  0.0335 -0.1608
95216W        W38310  13.036  26.236   0.104 -0.2336 -0.0644  0.0670
95217W        W38311  12.694  25.248  30.774 -0.1142 -0.0609 -0.0008
95218W        W38312  11.560  29.262   4.088  0.2071 -0.0163  0.0745
95219W        W38313  12.663  28.237   0.153 -0.0652  0.0804  0.3339
95220W        W38314  13.186  28.897   1.933 -0.3453 -0.2902  0.1593
95221W        W38315  13.175  25.904   1.429 -0.0545  0.0898 -0.0430
95222W        W38316  14.141  28.949  31.812 -0.0400 -0.0886  0.1115
95223W        W38317  10.678  27.904   2.109 -0.2309  0.0161  0.1520
95224W        W38318  13.638  26.568   2.449 -0.0461 -0.0495  0.1737
95225W        W38319  13.341  27.821   0.017 -0.3355  0.0704 -0.0328
95226W        W38320  13.656  25.731   3.190  0.2196 -0.2433  0.2046
95227W        W38321  12.246  27.340  31.322  0.1902 -0.0430 -0.1385
95228W        W38322  13.792  26.573   0.740  0.1790 -0.0691 -0.3977
95229W        W38323   9.927  26.830   0.442  0.1336 -0.1591 -0.0531
95230W        W38324  14.450  25.762  31.972  0.0924  0.0487  0.0438
95231W        W38325  14.372  27.137   0.725 -0.2383  0.0541 -0.6498
95232W        W38326  13.049  26.080   2.806 -0.0944  0.0575 -0.0734
95233W        W38327  14.882  28.005   3.315  0.0309 -0.2761  0.2391
95234W        W38328  13.727  25.992   0.258  0.2276  0.2273  0.0069
95235W        W38329  13.644  27.524   0.728 -0.1300 -0.4458  0.0372
95236W        W38330  12.838  26.694   0.012 -0.1444 -0.0197  0.0561
95237W        W38331  13.339  25.342   2.197  0.3387 -0.0514 -0.3134
95238W        W38332  11.262  26.868   1.947  0.0779 -0.1503  0.1319
95239W        W38333  11.512  28.986   2.922 -0.0160  0.0924  0.1866
95240W        W38334  13.125  28.474   3.524 -0.3440  0.0427  0.1259
95241W        W38335  13.873  27.069  31.952 -0.1496  0.1541  0.0256
95242W        W38336  14.100  26.174   2.425  0.2288  0.1960 -0.4345
95243W        W38337  14.164  26.692   1.087  0.0685  0.5723 -0.1124
95244W        W38338  11.907  28.600   0.465 -0.0907  0.0409 -0.0822
95245W        W38339  12.113  28.132  31.253  0.1197 -0.1020  0.2928
95246W        W38340  12.790  25.247   1.801 -0.2786  0.2160 -0.1341
95247W        W38341  12.328  29.447   1.015  0.0677  0.1513 -0.0496
95248W        W38342  11.904  29.100   0.235  0.1197 -0.2969  0.2596
95249W        W38343  14.139  27.997   1.635  0.1589 -0.0743 -0.2136
95250W        W38344  11.051  28.305   0.764 -0.1466 -0.0134 -0.1622
95251W        W38345  13.752  24.401   1.248  0.1002 -0.0117  0.0719
95252W        W38346  10.710  29.880   4.034  0.0796 -0.0698  0.0582
95253W        W38347  13.267  27.315   0.989 -0.1639 -0.1766 -0.2714
95254W        W38348  11.720  26.036   0.291  0.0482  0.0301 -0.0625
95255W        W38349  14.142  26.155   0.441 -0.1126 -0.0872 -0.3157
95256W        W38350  13.207  27.591   0.435  0.2184 -0.1917 -0.0658
95257W        W38351  10.984  26.302   3.625  0.0523  0.0196  0.1501
95258W        W38352  12.634  26.158   2.205 -0.0082 -0.2442 -0.2769
95259W        W38353  11.899  29.832   2.453 -0.2356 -0.2334  0.0795
95260W        W38354  12.455  28.273   1.689  0.0934  0.0645 -0.0549
95261W        W38355  12.862  26.982   0.803 -0.0843 -0.1241  0.1649
95262W        W38356  14.487  26.842  31.589 -0.2317  0.1028 -0.1144
95263W        W38357  12.205  26.849   4.147 -0.0296 -0.0895 -0.0113
95264W        W38358  11.935  25.945  31.820 -0.3282  0.1349 -0.0796
95265W        W38359  13.191  24.471   4.535 -0.2715  0.1165  0.0449
95266W        W38360  12.555  25.946   2.715 -0.0857  0.0454  0.3449
95267W        W38361  12.146  28.526   1.480 -0.0177 -0.1983 -0.0030
95268W        W38362  12.661  27.200   2.395  0.2403 -0.3372 -0.1504
95269W        W38363   9.491  27.409   1.565  0.0608 -0.3068  0.1985
95270W        W38364  10.040  27.493   1.351  0.1602 -0.3250  0.0778
95271W        W38365  12.260  26.543   3.402  0.0830 -0.3096 -0.2045
95272W        W38366  13.439  27.639   2.606 -0.0962  0.0820 -0.0239
95273W        W38367  13.185  25.028   1.368  0.0571  0.0835 -0.2605
95274W        W38368  12.279  26.596   1.301 -0.2144  0.1606 -0.0775
95275W        W38369  12.218  26.497   2.130  0.1290 -0.0113  0.3331
95276W        W38370  14.694  27.535   0.851  0.0721  0.1186  0.0040
95277W        W38371  13.905  27.373   2.346  0.0858 -0.0355 -0.2208
95278W        W38372  13.186  27.332   2.364 -0.2522 -0.2015 -0.1793
95279W        W38373  13.472  25.762   2.664 -0.0402 -0.0796 -0.3419
95280W        W38374  14.519  28.385   0.472 -0.4229 -0.0857  0.2984
95281W        W38375  12.320  28.120   2.386  0.0171  0.0985  0.0158
95282W        W38376  12.125  26.301   0.438 -0.1655  0.0547  0.0069
95283W        W38377  11.359  27.743   2.626 -0.3783  0.0634  0.1441
95284W        W38378  11.796  27.317   0.750  0.1749 -0.0741 -0.1258
95285W        W38379  13.228  26.849   2.319 -0.3523  0.2175 -0.0349
95286W        W38380  10.696  28.417   2.031 -0.1100 -0.2486 -0.0915
95287W        W38381  11.697  28.989  31.682  0.2248  0.2148  0.1664
95288W        W38382  12.193  27.649   2.329  0.0367 -0.0439 -0.2338
95289W        W38383  14.119  26.149  31.925  0.1039  0.4893  0.2065
95290W        W38384  15.013  28.197   0.469 -0.1852 -0.0874 -0.1303
95291W        W38385  13.420  25.810   1.908  0.0405 -0.0399  0.5492
95292W        W38386  14.701  25.245   2.259 -0.0570 -0.0114 -0.2436
95293W        W38387  13.445  26.429   0.346  0.1157 -0.0182  0.1991
95294W        W38388  12.968  25.179   3.202 -0.0131  0.3271  0.1315
95295W        W38389  12.318  24.604   3.230  0.3012  0.1583 -0.1181
95296W        W38390  12.444  28.173   1.090  0.1023  0.1055  0.2548
95297W        W38391  11.694  29.207   3.321  0.0420 -0.0383  0.2704
95298W        W38392  13.186  28.684   4.991 -0.1681  0.2627  0.0803
95299W        W38393  11.947  28.396   3.488  0.0400  0.0770  0.0782
95300W        W38394  11.783  26.519   1.322 -0.1536  0.5042  0.0854
95301W        W38395  12.434  26.703   0.548 -0.1935 -0.4017  0.2407
95302W        W38396  11.520  28.233   2.780  0.1710 -0.2308  0.0818
95303W        W38397  14.092  27.503   0.975 -0.0572 -0.0385  0.2645
95304W        W38398  12.171  27.644   0.734 -0.2504 -0.1211  0.5491
95305W        W38399  13.927  25.964   1.900 -0.2741  0.3822 -0.0737
95306W        W38400  11.666  27.588   1.997  0.2268 -0.2015 -0.0937
95307W        W38401  14.009  26.351   1.565 -0.2451  0.2718 -0.0916
95308W        W38402  11.401  27.496  31.690 -0.0180 -0.0864  0.4725
95309W        W38403  11.922  27.072   1.363  0.2263 -0.1620  0.0183
95310W        W38404  12.185  25.470   3.442  0.0609  0.1365  0.3488
95311W        W38405  12.413  28.464   0.553 -0.1790 -0.3789 -0.0934
95312W        W38406  13.723  27.514   1.631  0.3718  0.1563  0.0227
95313W        W38407  13.730  25.102   1.891  0.0323 -0.1137 -0.2591
95314W        W38408  14.416  25.774   1.820  0.0294  0.1006  0.1068
95315W        W38409  11.924  27.829   3.336  0.2831 -0.3066  0.0422
95316W        W38410  10.977  25.179   2.849  0.3108  0.2015  0.2343
95317W        W38411  13.595  28.682   2.120 -0.3536 -0.1974 -0.1783
95318W        W38412  15.328  26.500  31.697  0.0591  0.1035 -0.2338
95319W        W38413  15.510  24.988   2.512 -0.2335 -0.0497 -0.0158
95320W        W38414  14.681  26.763   0.870  0.1181  0.2412 -0.0691
95321W        W38415  12.990  26.239   1.824  0.0834  0.2084  0.2099
95322W        W38416  12.310  25.947   1.918 -0.0288  0.0069  0.2985
95323W        W38417  13.912  27.603   3.899  0.4094  0.0256  0.0262
95324W        W38418  14.272  26.702   0.519 -0.0266  0.0052 -0.2812
95325W        W38419  13.893  25.483   2.711 -0.0010  0.1146 -0.1114
95326W        W38420  11.253  28.809   1.596  0.0232 -0.0418 -0.1796
95327W        W38421  13.195  29.340   0.984 -0.2214 -0.1391 -0.4543
95328W        W38422  13.287  27.637   1.380  0.1535  0.1344 -0.2158
95329W        W38423   9.813  26.076   1.117  0.2506 -0.0974 -0.1251
95330W        W38424  12.910  28.302   3.162 -0.1357  0.1071  0.1544
95331W        W38425  12.865  25.734   0.173 -0.2482 -0.0840 -0.0334
95332W        W38426  14.319  27.975   1.089 -0.0958 -0.2237  0.1573
95333W        W38427  14.372  28.070   3.199 -0.0135 -0.1238 -0.0820
95334W        W38428  13.148  24.528   0.550  0.1505  0.1216 -0.1670
95335W        W38429  13.839  25.583   2.181 -0.3668  0.0089  0.1618
95336W        W38430  10.170  27.291   0.063  0.3337 -0.1498  0.1125
95337W        W38431  14.618  26.205   0.829 -0.0941  0.3370 -0.0199
95338W        W38432  12.112  29.023   2.401 -0.0342  0.3294  0.1614
95339W        W38433  11.052  28.353   2.901 -0.0708  0.0125  0.1492
95340W        W38434  11.279  28.444   1.283  0.1788  0.0072  0.1990
95341W        W38435  13.955  25.524   1.693 -0.1322 -0.0581  0.0960
95342W        W38436  13.562  27.995   1.659  0.0870  0.1270 -0.1648
95343W        W38437  13.006  27.795   2.338  0.0936  0.1601 -0.0344
95344W        W38438  15.360  25.747   2.882  0.1625 -0.0432 -0.0662
95345W        W38439  13.741  27.825   1.218 -0.0427 -0.0650  0.0379
95346W        W38440  12.912  27.105   1.906  0.1507  0.1573 -0.3782
95347W        W38441  12.822  28.250   2.506 -0.0296 -0.2692 -0.0327
95348W        W38442  13.084  28.048   0.387  0.0312 -0.2280 -0.3959
95349W        W38443  11.889  27.623   1.146 -0.1722  0.0776 -0.1003
95350W        W38444  11.110  26.813   2.605 -0.0216 -0.2534  0.3885
95351W        W38445  13.189  25.655   3.262  0.0097  0.2392 -0.1656
95352W        W38446  13.508  27.155   1.973  0.2589  0.0401  0.2495
95353W        W38447  11.841  24.995   0.949 -0.2472 -0.1138  0.1823
95354W        W38448  11.653  27.818  31.257  0.0080  0.1032  0.0584
95355W        W38449  10.752  29.892   3.478  0.0419  0.0009  0.2272
95356W        W38450  12.429  27.015   3.170 -0.1395 -0.0868 -0.0409
95357W        W38451  11.282  29.955   1.675 -0.1576  0.0447 -0.1014
95358W        W38452  14.695  28.052   0.070  0.1649  0.1095  0.1144
95359W        W38453  12.831  29.269  30.890  0.2948  0.5845 -0.2713
95360W        W38454  14.706  28.005   0.799 -0.0285 -0.2100  0.1331
95361W        W38455  12.475  27.021   0.147  0.0383 -0.1250 -0.2600
95362W        W38456  12.795  26.657   2.321 -0.1050  0.0488  0.0567
95363W        W38457  10.883  28.072   1.180  0.1321  0.1216 -0.1446
95364W        W38458  13.105  28.292  31.867  0.0350 -0.1615  0.2634
95365W        W38459  11.289  29.376   1.495  0.0439  0.1241  0.0530
95366W        W38460  13.217  29.409   2.374 -0.3251  0.1141 -0.0212
95367W        W38461  14.925  24.495   1.306  0.1702 -0.2148 -0.4377
95368W        W38462  13.907  26.917   2.130  0.0491 -0.1694 -0.1009
95369W        W38463  15.351  26.740   1.864 -0.2687  0.3221  0.2050
95370W        W38464  13.883  28.204   2.110  0.1957 -0.3964 -0.3088
95371W        W38465  13.139  26.599   2.728 -0.3558 -0.0489 -0.0389
95372W        W38466  12.136  26.652   0.089  0.1456 -0.1203  0.0106
95373W        W38467  12.066  26.688   2.992 -0.0523 -0.0973  0.3775
95374W        W38468  14.195  25.225   2.332  0.2575  0.0081  0.2216
95375W        W38469  11.601  29.039   2.413 -0.2502 -0.1157  0.0607
95376W        W38470  15.389  28.321  31.648 -0.0236  0.1970  0.0532
95377W        W38471  12.654  26.673   1.854 -0.1191  0.1290 -0.3723
95378W        W38472  12.470  27.402   1.194  0.1327 -0.1356  0.0279
95379W        W38473  12.914  28.176   0.915  0.0812  0.1975 -0.0556
95380W        W38474  12.199  27.123   2.045 -0.1245  0.1259  0.3863
95381W        W38475  11.323  28.730   0.632 -0.0372  0.0984  0.0545
95382W        W38476  12.711  27.535   1.757 -0.0679 -0.0251 -0.1093
95383W        W38477  11.439  28.075   3.374  0.2109  0.2557 -0.2143
95384W        W38478   9.511  26.491   0.043  0.0393 -0.1117  0.0461
95385W        W38479  14.984  26.225   1.969  0.3245 -0.2014  0.0786
95386W        W38480  11.604  26.853   2.387  0.2608  0.1661  0.0343
95387W        W38481  14.742  24.511   2.570  0.0953 -0.0236 -0.0895
95388W        W38482  11.468  27.051   1.030 -0.1284  0.3008 -0.3251
95389W        W38483  13.560  26.518   1.295 -0.0809  0.2825 -0.1246
95390W        W38484  13.148  28.093   1.967 -0.3608  0.1265 -0.0983
95391W        W38485  12.206  26.141   2.989  0.0171  0.3936  0.0896
95392W        W38486  12.460  27.491  31.835  0.5128  0.0699 -0.1553
95393W        W38487  14.894  27.941   2.534 -0.2223  0.0707  0.1859
95394W        W38488  14.478  26.481   0.124  0.1417 -0.0511 -0.0451
95395W        W38489  13.650  29.724   1.787  0.3096 -0.0900 -0.1761
95396W        W38490  12.532  25.681   2.273 -0.1354 -0.2347 -0.0770
95397W        W38491  13.108  26.255  31.039 -0.0711  0.1326  0.0461
95398W        W38492  11.566  27.424   1.438  0.0138  0.3319 -0.1569
95399W        W38493  12.707  26.859   4.079 -0.6581  0.1050 -0.1308
95400W        W38494  12.720  29.422   2.448  0.3169 -0.3545 -0.2975
95401W        W38495  11.648  25.961   1.277  0.0510 -0.1161 -0.0594
95402W        W38496  14.407  28.497  31.950 -0.2071  0.0524 -0.0577
95403W        W38497  14.335  26.852   1.678  0.4119 -0.0574  0.0335
95404W        W38498  11.066  28.588  31.189 -0.2459  0.1142  0.4195
95405W        W38499  13.696  27.002   1.021 -0.0135 -0.1945  0.1394
95406W        W38500  13.988  28.859   0.948  0.0398  0.2377  0.0347
95407W        W38501  11.673  26.002   2.814 -0.1879 -0.0713 -0.1992
95408W        W38502  13.809  26.776   1.651 -0.2893  0.1520 -0.1304
95409W        W38503  14.655  27.763   1.904  0.1167 -0.0203  0.2425
95410W        W38504  12.712  25.531   0.686  0.3259  0.1353 -0.0106
95411W        W38505  12.323  25.280   2.104  0.1536  0.1340 -0.1543
95412W        W38506  10.700  27.886   0.734 -0.0793  0.0233  0.0711
95413W        W38507  15.077  27.515   1.881 -0.1465 -0.0681  0.0635
95414W        W38508  13.470  25.218   3.263 -0.0292  0.0310 -0.0482
95415W        W38509  11.224  27.874   0.633  0.0586 -0.0860 -0.3024
95416W        W38510  13.458  25.297   4.086 -0.0630 -0.2931  0.0489
95417W        W38511  12.625  27.810   2.625  0.1032 -0.1116  0.0233
95418W        W38512  12.708  27.797   3.111 -0.1696 -0.1606 -0.0391
95419W        W38513  10.405  25.725   0.651  0.3052 -0.0419 -0.1410
95420W        W38514  13.599  27.732   2.134  0.0659  0.1066  0.0108
95421W        W38515  12.871  27.971   1.422 -0.0615  0.3028 -0.3524
95422W        W38516  11.677  29.640   1.703  0.0783 -0.0821  0.1978
95423W        W38517  13.997  27.159   1.397  0.3177  0.0293 -0.1856
95424W        W38518  13.101  28.844  31.901  0.0940 -0.0052 -0.1499
95425W        W38519  15.502  29.218   0.653 -0.0020  0.2810  0.0328
95426W        W38520  14.135  26.157   0.987  0.3656 -0.0172 -0.3687
95427W        W38521  14.426  25.356   0.365  0.0470 -0.0460 -0.0098
95428W        W38522  13.727  25.474  31.745  0.2744 -0.0062  0.1919
95429W        W38523  12.644  26.411   3.116  0.3863 -0.0520 -0.1257
95430W        W38524  12.732  27.456   0.577  0.0064  0.1875  0.0679
95431W        W38525   9.484  26.044   0.272  0.0502  0.1212  0.1045
95432W        W38526  11.403  27.888   1.577  0.1208  0.0595 -0.2568
95433W        W38527  12.780  27.260   3.818  0.1503 -0.2932  0.0889
95434W        W38528  11.478  27.160   4.509  0.1069 -0.1743  0.0138
95435W        W38529  10.784  26.800   2.166 -0.1453  0.2213 -0.0511
95436W        W38530  12.313  25.827   0.815  0.2031  0.0856  0.0213
95437W        W38531  13.103  27.231  31.222 -0.0393  0.2667  0.2298
95438W        W38532  12.419  25.636   3.067  0.1353  0.0043 -0.2768
95439W        W38533  12.085  27.616   0.143  0.1860 -0.0610 -0.0153
95440W        W38534  14.898  28.628   0.209  0.1944  0.1779  0.0256
95441W        W38535  14.715  27.566   0.166  0.2085  0.1057  0.2996
95442W        W38536  12.481  25.169   1.060 -0.2004  0.1164  0.0972
95443W        W38537  14.670  28.386   2.372  0.2131  0.1134  0.0882
95444W        W38538  11.140  27.652   0.120  0.2366 -0.1992 -0.0967
95445W        W38539  12.325  26.202   4.779  0.2165  0.1050  0.0522
95446W        W38540  13.908  27.339   3.486 -0.0404  0.2238  0.2731
95447W        W38541  11.292  25.773  31.293 -0.0776  0.1487 -0.3633
95448W        W38542  13.596  26.729   2.899  0.0468 -0.0416  0.1948
95449W        W38543  11.464  29.317   0.373  0.0440  0.0383  0.2484
95450W        W38544  14.051  29.583  31.872  0.0233 -0.0798 -0.0390
95451W        W38545  12.188  26.885   2.527 -0.4003  0.2499 -0.1683
95452W        W38546  13.480  28.327   2.891  0.2582 -0.1660 -0.0305
95453W        W38547  11.859  25.087   1.449  0.1366 -0.1855  0.1414
95454W        W38548  13.820  29.268  31.029  0.1525  0.2035 -0.1752
95455W        W38549  12.662  27.360   2.933 -0.3330  0.1542 -0.0581
95456W        W38550  14.265  29.055  31.071  0.0299 -0.1905  0.3806
95457W        W38551  16.132  26.241   2.630 -0.1194 -0.0429 -0.0403
95458W        W38552  13.474  27.745  31.305 -0.1764 -0.0691  0.3612
95459W        W38553  11.981  26.045   3.995 -0.1116  0.5065  0.0725
95460W        W38554  12.928  27.241   3.377 -0.0657  0.1411 -0.0799
95461W        W38555  14.111  26.990   3.002  0.0433 -0.3408 -0.1591
95462W        W38556  11.447  24.678   1.345  0.0476 -0.2282 -0.2491
95463W        W38557  13.676  25.765   0.745 -0.1915  0.0899  0.2525
95464W        W38558  13.909  28.615   0.069 -0.2289  0.4099 -0.1572
95465W        W38559  10.963  26.614   1.646  0.1605 -0.1554  0.4487
95466W        W38560  12.309  26.346  31.713 -0.1796  0.3166 -0.2717
95467W        W38561  13.861  27.238   4.211  0.5697 -0.1982 -0.2192
95468W        W38562  12.793  28.721   2.739 -0.0257 -0.0588  0.2068
95469W        W38563  15.356  27.517   3.286  0.2612 -0.1105  0.3682
95470W        W38564  12.262  26.921   0.942  0.1428 -0.1763 -0.0337
95471W        W38565  15.158  28.671  30.825 -0.0342  0.3586 -0.4209
95472W        W38566  13.044  28.956   3.610 -0.1485 -0.1786 -0.0087
95473W        W38567  14.342  28.430   2.793 -0.1638 -0.1214 -0.0051
95474W        W38568  13.200  28.751   3.104 -0.2019  0.2686 -0.0624
95475W        W38569  15.038  26.636   2.426 -0.1966 -0.0933 -0.1255
95476W        W38570  11.854  24.677   1.690  0.2492 -0.0784 -0.0371
95477W        W38571  11.666  27.164   1.828 -0.0686  0.0330 -0.0679
95478W        W38572  12.135  28.160   0.199 -0.1131 -0.1050  0.1277
95479W        W38573  14.384  25.687   2.430 -0.1668 -0.1193 -0.1090
95480W        W38574  13.265  26.715   1.756 -0.1062  0.1073  0.1005
95481W        W38575  14.378  24.612   0.106  0.1435 -0.1602  0.0617
95482W        W38576  12.727  28.463   2.114 -0.1849  0.0648  0.2147
95483W        W38577  13.407  28.109   2.408  0.0339 -0.1830  0.0738
95484W        W38578  12.169  27.714   7.454  0.1044 -0.1988  0.4296
95485W        W38579  11.722  26.794   4.256 -0.1093  0.1830  0.1079
95486W        W38580  12.699  26.836   2.764 -0.0451  0.0882 -0.1347
95487W        W38581  15.467  27.454   5.092 -0.1322 -0.0785 -0.1652
95488W        W38582  10.633  27.776   4.284 -0.0409 -0.0673 -0.2834
95489W        W38583  13.860  29.499   4.051  0.3410 -0.1613  0.1844
95490W        W38584  11.769  24.319   6.888  0.1111 -0.2781  0.4483
95491W        W38585  14.216  26.816   6.176 -0.0569 -0.2463  0.0750
95492W        W38586  13.681  28.030   6.566  0.1359 -0.0209  0.0691
95493W        W38587  14.202  26.531   2.014 -0.1142 -0.0375  0.0321
95494W        W38588  13.788  25.848   5.377 -0.0821 -0.1095 -0.0274
95495W        W38589  11.518  29.071   6.094 -0.1541 -0.0463  0.3442
95496W        W38590  12.747  25.574   4.198 -0.0325 -0.1547  0.0356
95497W        W38591  10.812  25.412   5.127  0.1454  0.0434 -0.0730
95498W        W38592  14.288  27.252   6.910 -0.1091 -0.0300  0.2728
95499W        W38593  11.511  27.406   3.991  0.2705 -0.1751  0.0692
95500W        W38594  11.469  27.054   6.277 -0.2834  0.5408  0.1706
95501W        W38595  12.658  26.032   5.126  0.2417  0.2408  0.0231
95502W        W38596  13.426  29.858   5.127  0.0234  0.1151  0.2185
95503W        W38597  13.450  24.798   5.501  0.0634 -0.0751  0.0861
95504W        W38598  13.036  25.248   7.781 -0.3703 -0.3443 -0.2563
95505W        W38599  12.781  27.286   5.388 -0.0784  0.3297 -0.1908
95506W        W38600  11.796  28.118   4.363  0.1338 -0.2469  0.1829
95507W        W38601  12.601  26.604   6.533  0.0239 -0.3884 -0.0744
95508W        W38602  12.645  26.495   7.102  0.2459  0.0162  0.3979
95509W        W38603  13.904  26.229   4.513 -0.0246  0.0973 -0.0036
95510W        W38604  14.814  27.701   4.795 -0.1435  0.0843  0.2968
95511W        W38605  13.280  27.526   5.234  0.0601  0.0053  0.1558
95512W        W38606  13.110  27.800   5.711  0.3386  0.1587 -0.3593
95513W        W38607  15.064  26.393   6.405 -0.1953 -0.1475  0.0635
95514W        W38608  12.043  27.479   3.804  0.0787 -0.2658 -0.3790
95515W        W38609  12.306  28.206   5.341  0.1296  0.0694  0.0154
95516W        W38610  12.047  29.587   4.339 -0.0723 -0.1801  0.0767
95517W        W38611  14.653  28.310   4.418 -0.1931  0.1220  0.1959
95518W        W38612  13.251  27.909   6.793  0.4770  0.3411  0.0449
95519W        W38613  12.906  29.562   7.490  0.0518 -0.2139  0.0739
95520W        W38614  12.437  28.641   4.506 -0.1497 -0.2122 -0.1124
95521W        W38615  13.507  28.096   7.516  0.2889 -0.1824  0.1682
95522W        W38616  12.355  29.769   8.214 -0.0731 -0.0127  0.1645
95523W        W38617  12.626  25.953   5.891  0.0209  0.3883 -0.1630
95524W        W38618  12.915  26.888   5.793  0.3539  0.0626  0.1957
95525W        W38619  12.257  28.132   3.818  0.1691  0.0793  0.1078
95526W        W38620  13.848  28.393   6.062 -0.0180  0.2960  0.0335
95527W        W38621  13.759  27.118   7.671 -0.2774 -0.4384 -0.0339
95528W        W38622  10.980  28.039   5.008 -0.2862 -0.0668 -0.1069
95529W        W38623  15.132  24.791   6.721  0.2502 -0.0371 -0.1909
95530W        W38624  12.500  30.082   3.321 -0.0232 -0.1324 -0.1811
95531W        W38625  14.314  25.705   3.919 -0.2802 -0.4895 -0.0999
95532W        W38626  12.370  27.468   3.383  0.0473 -0.1540 -0.2339
95533W        W38627  13.590  26.876   5.229  0.1591  0.0635  0.1781
95534W        W38628  11.442  25.028   3.898 -0.1103  0.5016 -0.1013
95535W        W38629  12.444  29.023   5.310  0.1766 -0.1059  0.1025
95536W        W38630  12.284  26.344   6.210 -0.2906  0.3610  0.1113
95537W        W38631  13.150  27.320   6.096 -0.0585 -0.2894 -0.5012
95538W        W38632  13.425  25.496   5.272 -0.1182 -0.1240 -0.6670
95539W        W38633  14.373  27.003   4.183  0.1918 -0.0498 -0.2061
95540W        W38634  12.304  28.337   8.062  0.1026  0.0466 -0.0679
95541W        W38635  10.650  27.265   4.565  0.2032 -0.0170  0.2828
95542W        W38636  13.557  27.887   3.049 -0.2961 -0.3128 -0.2708
95543W        W38637  13.579  27.993   5.372 -0.0641  0.2233  0.1414
95544W        W38638  13.201  28.146   3.940 -0.1640 -0.0029 -0.0577
95545W        W38639  12.152  27.752   4.211 -0.2550  0.0785  0.0198
95546W        W38640   9.838  27.649   5.960 -0.1875 -0.2687 -0.0552
95547W        W38641  13.212  26.550   6.158 -0.1504  0.3738  0.3132
95548W        W38642  11.291  25.555   3.929 -0.0545  0.0761 -0.1383
95549W        W38643  14.618  27.582   6.418 -0.3253  0.0279  0.0261
95550W        W38644  10.876  28.652   6.901  0.3545  0.2122 -0.0922
95551W        W38645  15.747  25.996   5.172 -0.1183 -0.0204 -0.0245
95552W        W38646  13.036  27.011   6.626 -0.3242  0.1201 -0.3897
95553W        W38647  13.944  26.753   4.332  0.1860 -0.4388  0.1196
95554W        W38648  13.570  27.095   2.535  0.2188 -0.1644  0.0856
95555W        W38649  15.232  24.970   5.114  0.2931  0.2238  0.1156
95556W        W38650  12.495  25.143   6.991  0.2272 -0.0787 -0.0375
95557W        W38651  11.514  27.549   3.281  0.0476 -0.0969  0.0179
95558W        W38652  11.933  27.291   4.279  0.0460 -0.1616  0.3718
95559W        W38653  13.919  28.431   5.340 -0.1295 -0.1081  0.1520
95560W        W38654  14.682  26.568   4.137 -0.1157  0.0450 -0.0595
95561W        W38655  11.573  27.898   5.823  0.0236  0.0017 -0.0807
95562W        W38656  12.022  25.599   6.312 -0.0109  0.0813 -0.2339
95563W        W38657  13.006  28.184   7.900 -0.3071 -0.0992 -0.1463
95564W        W38658  11.800  30.225   3.884  0.1692 -0.2650 -0.2381
95565W        W38659  11.067  26.998   6.003 -0.0763  0.1877  0.1256
95566W        W38660  11.709  27.422   4.916 -0.1137  0.0671  0.1591
95567W        W38661  11.938  26.067   6.493  0.1405  0.0139  0.0670
95568W        W38662  13.350  28.427   5.834  0.0672 -0.0008 -0.0900
95569W        W38663  13.458  25.507   4.815  0.0371  0.1550 -0.1670
95570W        W38664  12.102  25.827   7.584 -0.0542 -0.0981 -0.0303
95571W        W38665  13.873  25.398   5.111  0.5000 -0.1188  0.3076
95572W        W38666  12.755  27.790   5.304  0.0110  0.1943 -0.4298
95573W        W38667  13.983  28.175   4.585  0.0691 -0.0203  0.5351
95574W        W38668  15.503  27.399   4.104  0.3364  0.1188 -0.0020
95575W        W38669  13.574  28.824   3.576 -0.0500  0.4192  0.1669
95576W        W38670  12.244  27.418   6.107  0.0899  0.3635 -0.0779
95577W        W38671  11.152  26.280   4.670 -0.1751 -0.0760  0.3007
95578W        W38672  11.624  25.643   7.364 -0.3797  0.3578  0.0831
95579W        W38673  11.664  25.863   6.115  0.1696 -0.2596 -0.1094
95580W        W38674  13.692  26.044   7.308 -0.0506  0.0687 -0.1462
95581W        W38675  11.324  26.866   3.934  0.0964 -0.1545  0.0205
95582W        W38676  14.431  26.593   5.144 -0.1318 -0.0226  0.4278
95583W        W38677  12.433  28.010   4.889  0.0780 -0.0821 -0.0896
95584W        W38678  12.291  26.019   3.550  0.0427  0.2002  0.2558
95585W        W38679  14.084  26.365   6.982 -0.1801  0.0342  0.1353
95586W        W38680  13.543  27.895   4.835  0.2743  0.0966  0.2334
95587W        W38681  15.075  28.544   6.736 -0.4687  0.0823  0.1485
95588W        W38682  14.134  29.003   4.878 -0.1408 -0.2044 -0.0870
95589W        W38683  13.445  25.496   7.416  0.2382  0.0134  0.0007
95590W        W38684  11.145  25.985   2.677  0.1874  0.3092 -0.0996
95591W        W38685  12.264  27.933   6.802  0.4513 -0.0796  0.1315
95592W        W38686  12.710  28.071   4.153 -0.2088  0.1743  0.1163
95593W        W38687  12.365  26.842   4.644  0.1748  0.3845  0.2131
95594W        W38688  14.412  28.012   6.492  0.0139  0.0535 -0.1661
95595W        W38689  12.288  27.246   5.601 -0.0643  0.3125 -0.1973
95596W        W38690  11.657  27.594   7.486  0.0174  0.3206  0.1067
95597W        W38691  14.787  25.037   5.396 -0.0298 -0.2146  0.0938
95598W        W38692  14.943  26.264   5.087  0.1273 -0.2010 -0.1117
95599W        W38693  12.703  27.034   4.987 -0.3176  0.1277  0.2540
95600W        W38694  11.032  24.680   3.579  0.3643  0.1502  0.3130
95601W        W38695  13.871  28.762   5.738 -0.2246 -0.0915 -0.3735
95602W        W38696  11.522  28.939   4.680  0.1170 -0.0973  0.0973
95603W        W38697  11.392  28.451   3.627  0.0441 -0.0166 -0.0269
95604W        W38698  13.707  27.335   5.022 -0.0509  0.0060  0.0876
95605W        W38699  14.551  27.374   4.569 -0.0573  0.5293  0.5882
95606W        W38700  11.239  27.309   7.396  0.2152  0.2786  0.1885
95607W        W38701  13.206  25.815   6.977  0.1235  0.0154 -0.1412
95608W        W38702  11.738  26.295   4.826  0.0953 -0.1542  0.1376
95609W        W38703  11.829  27.760   7.026  0.0437 -0.1474  0.3088
95610W        W38704  13.384  26.090   3.439  0.0374 -0.0592  0.0748
95611W        W38705  14.065  26.645   4.778  0.0884 -0.2183  0.2566
95612W        W38706  13.081  26.826   5.249  0.1129  0.3472 -0.1191
95613W        W38707  14.439  27.919   3.697  0.0868  0.1873  0.1504
95614W        W38708  13.966  25.941   4.111  0.2743 -0.2471  0.0510
95615W        W38709  13.554  25.726   3.812  0.1846  0.1556 -0.1217
95616W        W38710  11.288  27.870   7.334 -0.1204  0.0079 -0.0488
95617W        W38711  14.729  27.878   4.183  0.1112  0.2055 -0.1557
95618W        W38712  12.493  27.225   7.349 -0.0179  0.1526  0.2650
95619W        W38713  15.093  24.687   3.674 -0.0239  0.5481  0.2766
95620W        W38714  15.337  28.404   4.060  0.2798 -0.1450  0.0975
95621W        W38715  12.915  27.538   6.541 -0.2932  0.0645  0.1288
95622W        W38716  14.248  29.140   7.143 -0.3976 -0.0516 -0.2227
95623W        W38717  13.283  28.767   4.034  0.1995 -0.1011  0.0548
95624W        W38718  12.093  25.058   6.219  0.1292 -0.0257 -0.2055
95625W        W38719  12.321  27.385   4.669  0.1825  0.0738  0.1621
95626W        W38720  12.656  25.206   5.808 -0.0412  0.0724 -0.2227
95627W        W38721  10.853  29.329   2.158 -0.1247  0.3542  0.0911
95628W        W38722  14.696  26.208   6.084  0.1052  0.1687 -0.3431
95629W        W38723  14.429  25.214   6.320 -0.0027  0.0995  0.1532
95630W        W38724  14.902  25.206   6.975 -0.1691  0.0540  0.0096
95631W        W38725  14.529  26.273   6.809 -0.1822  0.0219 -0.0429
95632W        W38726  14.110  28.268   3.593 -0.2030 -0.0406 -0.1718
95633W        W38727  13.621  26.216   5.816  0.1323 -0.1778  0.3310
95634W        W38728  12.292  27.058   3.690 -0.0948  0.2269  0.1732
95635W        W38729  13.706  25.833   7.868  0.1445 -0.1206  0.0036
95636W        W38730  12.097  26.767   7.772 -0.1149 -0.0279  0.1851
95637W        W38731  12.468  29.343   5.826 -0.0606 -0.0995  0.2568
95638W        W38732  12.295  28.507   6.881 -0.2565 -0.3285  0.1146
95639W        W38733  14.039  27.150   4.662  0.1470 -0.1201 -0.0447
95640W        W38734  12.811  25.565   7.007 -0.0371 -0.1197  0.1462
95641W        W38735  13.006  26.810   3.156  0.1405  0.0752 -0.0756
95642W        W38736  12.464  28.563   5.061  0.1860 -0.6297 -0.0623
95643W        W38737  13.213  27.991   3.402  0.0646 -0.0341  0.1314
95644W        W38738  12.433  25.685   5.487  0.4331 -0.0968  0.2980
95645W        W38739  12.750  28.819   7.024  0.0955  0.2142  0.2266
95646W        W38740  12.416  28.535   3.026  0.0689 -0.0024 -0.0114
95647W        W38741  13.788  27.187   6.637  0.1183  0.4793  0.0363
95648W        W38742  11.616  29.781   4.174  0.1407  0.0745 -0.1692
95649W        W38743  13.994  25.677   4.762 -0.0463 -0.3583  0.1661
95650W        W38744  11.738  29.372   4.689  0.1438 -0.2675 -0.1096
95651W        W38745  11.903  25.742   3.128  0.1975  0.1653 -0.3172
95652W        W38746  12.668  26.795   3.537 -0.2221  0.3295  0.2559
95653W        W38747  14.366  27.403   3.668 -0.0742 -0.2182 -0.1716
95654W        W38748  14.063  26.474   2.903 -0.1592 -0.1572  0.2066
95655W        W38749  12.495  26.033   6.886  0.4180  0.0931  0.2926
95656W        W38750  12.517  25.911   6.354  0.1475  0.0889 -0.1299
95657W        W38751  12.206  28.888   5.709 -0.0040  0.0093 -0.2277
95658W        W38752  13.404  27.104   5.691  0.1796 -0.0428  0.0120
95659W        W38753  13.826  24.915   4.145 -0.2676  0.0326 -0.0115
95660W        W38754  12.006  26.771   5.514  0.1102 -0.1630 -0.1120
95661W        W38755  12.629  25.541   7.963  0.2508  0.2895  0.1457
95662W        W38756  11.014  25.813   3.548  0.0362  0.0976 -0.2783
95663W        W38757  14.795  26.949   4.461 -0.1641  0.0310  0.0123
95664W        W38758  11.851  25.508   4.090  0.0198 -0.1806 -0.1487
95665W        W38759  11.742  26.388   5.358 -0.1651  0.1202 -0.0065
95666W        W38760  12.999  27.959   7.224  0.3528  0.0611  0.0300
95667W        W38761  11.804  27.014   3.801  0.0922 -0.0277  0.3585
95668W        W38762  12.382  28.148   3.313 -0.2069 -0.2652 -0.1365
95669W        W38763  13.052  25.820   7.618  0.1156 -0.4037 -0.3533
95670W        W38764  13.227  28.293   6.462 -0.0939 -0.0053  0.0124
95671W        W38765  12.556  26.823   5.430 -0.2977 -0.1143 -0.1668
95672W        W38766  11.734  25.853   4.495 -0.0869 -0.0646  0.4102
95673W        W38767  12.399  25.977   4.193  0.0296 -0.4162 -0.0913
95674W        W38768  13.523  27.994   5.947  0.4390 -0.0721  0.0070
95675W        W38769  12.213  26.417   6.782  0.0143 -0.0738  0.0361
95676W        W38770  12.509  27.698   7.107  0.0825 -0.2710  0.0415
95677W        W38771  13.460  25.648   6.532  0.2571  0.1504  0.0654
95678W        W38772  14.228  27.525   2.694  0.0042 -0.0308 -0.0734
95679W        W38773  13.895  26.375   7.659  0.2844 -0.2828  0.0258
95680W        W38774  12.232  27.062   5.077 -0.0332 -0.0412 -0.2397
95681W        W38775  12.383  25.596   6.750 -0.0064  0.3728 -0.2010
95682W        W38776  12.883  27.596   4.148  0.1824 -0.2707 -0.2749
95683W        W38777  13.383  26.553   4.904  0.1083 -0.3289 -0.0906
95684W        W38778  11.913  27.567   5.720  0.0281 -0.0148  0.1050
95685W        W38779  11.685  29.601   3.651  0.1337  0.3617  0.1904
95686W        W38780  11.352  28.254   7.045 -0.2828  0.2407  0.1608
95687W        W38781  14.320  25.324   4.713 -0.4749 -0.2658 -0.1248
95688W        W38782  13.418  29.200   3.313  0.2652 -0.0848 -0.4119
95689W        W38783  12.808  26.019   3.885 -0.0817 -0.0767  0.0410
95690W        W38784  13.237  24.345   7.827  0.1357 -0.0850  0.0124
95691W        W38785  14.422  26.109   2.916 -0.0244 -0.2234 -0.1024
95692W        W38786  11.931  24.351   8.247 -0.0648  0.2830 -0.2806
95693W        W38787  13.400  24.970   7.469 -0.1410  0.1962  0.0052
95694W        W38788  13.197  27.156   4.915 -0.0621 -0.1378  0.1703
95695W        W38789  11.225  25.128   7.347 -0.1385 -0.1404  0.1467
95696W        W38790  13.675  28.534   8.429  0.1671 -0.1329  0.0451
95697W        W38791  12.452  27.375   8.974  0.3386  0.1806  0.3326
95698W        W38792  13.821  24.716   4.625  0.1893  0.3900 -0.2626
95699W        W38793  11.240  25.162   4.904 -0.0741  0.0569  0.0791
95700W        W38794  11.861  27.275   5.347 -0.0674 -0.1411 -0.1510
95701W        W38795  13.641  27.987   4.289 -0.0388  0.0871  0.0979
95702W        W38796  12.941  26.765   4.578 -0.3212  0.4170  0.1559
95703W        W38797  15.275  26.020   5.458 -0.0538 -0.1903  0.2760
95704W        W38798  12.784  27.998   6.760 -0.1095  0.0052  0.2535
95705W        W38799  13.949  26.722   3.362  0.0709 -0.2682  0.0671
95706W        W38800  11.247  26.433   5.144  0.1036 -0.0531 -0.2296
95707W        W38801  12.363  26.838   5.905 -0.1228 -0.2108  0.3389
95708W        W38802  13.087  25.087   4.967  0.5909  0.0525  0.0551
95709W        W38803  14.597  28.236   4.946  0.2717 -0.0069  0.2194
95710W        W38804  13.481  26.423   4.395  0.1944  0.0355  0.0053
95711W        W38805  13.948  25.731   6.154  0.2092 -0.2382  0.1257
95712W        W38806  13.702  26.177   8.872 -0.2341 -0.1827 -0.1241
95713W        W38807  13.123  26.125   5.841 -0.0750 -0.0008  0.0953
95714W        W38808  10.783  26.601   7.441 -0.1268  0.0999  0.1056
95715W        W38809  13.453  28.349   7.981 -0.2009 -0.2885 -0.3362
95716W        W38810  15.078  27.347   2.787  0.1953  0.2530 -0.0918
95717W        W38811  14.882  24.357   6.507 -0.0358 -0.1050 -0.3842
95718W        W38812  14.393  25.784   4.442 -0.1293 -0.1975  0.0956
95719W        W38813  13.821  26.237   3.263  0.0593  0.2515  0.0113
95720W        W38814  12.188  26.901   6.390  0.0739  0.1422 -0.3340
95721W        W38815  13.349  27.410   6.822  0.1325  0.0040  0.2171
95722W        W38816  12.847  26.025   3.348 -0.1838 -0.0913 -0.0355
95723W        W38817  13.867  25.248   6.117 -0.1711 -0.0868  0.1723
95724W        W38818  14.078  26.993   3.793 -0.0018 -0.0373  0.0505
95725W        W38819  13.405  29.670   4.182 -0.0609 -0.0577  0.0368
95726W        W38820  12.905  26.409   5.454  0.4010 -0.4413  0.0482
95727W        W38821  11.301  26.257   5.625 -0.1201  0.3411  0.1568
95728W        W38822  11.756  28.899   7.622  0.1562 -0.0465 -0.1810
95729W        W38823  11.968  26.411   2.541  0.1428  0.1827 -0.0426
95730W        W38824  13.168  27.913   4.389 -0.0462  0.2465 -0.1682
95731W        W38825  13.332  26.002   5.368 -0.2095  0.0952  0.0316
95732W        W38826  14.074  27.666   6.688 -0.1620  0.0341  0.0939
95733W        W38827  13.037  26.440   3.585  0.3487  0.0827  0.1105
95734W        W38828  13.441  25.745   5.737  0.0062  0.0311  0.0605
95735W        W38829  11.377  28.194   5.269  0.0538 -0.4178 -0.1846
95736W        W38830  15.245  24.333   6.932 -0.0711 -0.0075 -0.1583
95737W        W38831  11.910  28.331   5.975  0.0167 -0.0565  0.1612
95738W        W38832  11.461  27.705   6.703 -0.2332  0.0020  0.2778
95739W        W38833  11.899  28.594   4.482  0.2081 -0.0406  0.0904
95740W        W38834  12.911  25.742   5.530 -0.1429 -0.1917 -0.2529
95741W        W38835  14.176  27.032   5.165 -0.1583 -0.3066  0.0833
95742W        W38836  12.436  26.361   5.588  0.3209 -0.1655  0.1941
95743W        W38837  14.093  26.597   5.680  0.0534 -0.0179 -0.2107
95744W        W38838  13.456  26.805   8.233  0.2856 -0.0088  0.1463
95745W        W38839  12.109  25.996   5.863 -0.0903 -0.1298  0.3602
95746W        W38840  13.093  27.835   6.209  0.3339  0.1435 -0.0456
95747W        W38841  14.016  27.986   5.043  0.0030 -0.0420 -0.0175
95748W        W38842  10.889  28.062   6.011 -0.1298 -0.0846 -0.0854
95749W        W38843  10.360  26.818   6.379  0.0087  0.1622 -0.0344
95750W        W38844  15.136  27.352   7.262 -0.1222 -0.0346  0.0623
95751W        W38845  13.533  26.924   4.548 -0.1934  0.2766  0.2674
95752W        W38846  12.805  25.530   5.028 -0.0088 -0.1007 -0.2260
95753W        W38847  13.446  27.582   3.509 -0.1800 -0.0516 -0.2717
95754W        W38848  12.775  28.331   7.467  0.3253 -0.5703 -0.1981
95755W        W38849  12.217  26.782   7.275  0.1000 -0.1666  0.0039
95756W        W38850  12.504  29.533   4.086 -0.0776 -0.0180 -0.1317
95757W        W38851  12.859  28.549   4.190 -0.0197 -0.0190  0.1997
95758W        W38852  14.056  28.754   3.514  0.0862 -0.0083 -0.0130
95759W        W38853  13.631  28.569   6.565  0.0239 -0.1184  0.2329
95760W        W38854  12.364  24.929   3.601 -0.0487  0.1165 -0.1962
95761W        W38855  12.346  28.184   7.259 -0.0295 -0.0205  0.1019
95762W        W38856  11.469  27.945   4.826  0.0833  0.1528  0.2689
95763W        W38857  12.341  28.627   3.870  0.0491 -0.2856 -0.1705
95764W        W38858  13.177  28.741   6.241  0.4507  0.2673  0.5286
95765W        W38859  14.144  28.179   7.479  0.0950 -0.1393 -0.2101
95766W        W38860  15.176  25.759   4.508 -0.3067 -0.0809 -0.0167
95767W        W38861  15.099  26.750   4.892  0.1182  0.2884 -0.1958
95768W        W38862  14.318  27.445   3.201  0.0417  0.0385 -0.0738
95769W        W38863  13.894  29.712   6.618  0.0229 -0.1093  0.0138
95770W        W38864  13.363  25.252   5.887 -0.0005  0.3260 -0.1172
95771W        W38865  13.460  26.580   3.420  0.0390 -0.2427 -0.2318
95772W        W38866  11.870  26.806   6.795  0.2652  0.2379  0.4348
95773W        W38867  14.053  24.926   6.518 -0.0881  0.0655  0.0837
95774W        W38868  11.398  28.659   6.710 -0.0988 -0.0634 -0.0743
95775W        W38869  13.816  28.961   3.961 -0.0688 -0.1783  0.0732
95776W        W38870  11.527  26.425   2.986  0.1096  0.2568 -0.2403
95777W        W38871  11.656  25.867   5.529  0.2313 -0.0025  0.2029
95778W        W38872  14.351  25.222   5.369  0.0081 -0.1660  0.0588
95779W        W38873  14.300  27.623   4.173 -0.1201 -0.1931 -0.1324
95780W        W38874  13.734  26.380   5.327 -0.0508  0.1763  0.3114
95781W        W38875  13.000  27.720   4.814  0.0799 -0.1179  0.0227
95782W        W38876  11.384  26.716   4.768  0.2024  0.0747 -0.1140
95783W        W38877  12.489  27.852   6.337 -0.1107 -0.0172 -0.0495
95784W        W38878  10.878  25.999   3.087  0.0500  0.2187 -0.1013
95785W        W38879  14.828  26.099   4.447 -0.4124 -0.2060  0.0465
95786W        W38880  12.709  26.056   7.359 -0.1892  0.0563 -0.1431
95787W        W38881  14.103  25.537   5.731  0.0502  0.2960  0.1011
95788W        W38882  11.278  27.566   5.269 -0.0195 -0.0476  0.0206
95789W        W38883  13.849  25.201   4.636 -0.2024 -0.0547 -0.1813
95790W        W38884  13.340  27.315   7.488 -0.2061  0.0599  0.0189
95791W        W38885  10.941  25.763   7.303  0.2939 -0.0944 -0.0995
95792W        W38886  12.668  26.351   4.469  0.0796  0.0620  0.0053
95793W        W38887  14.634  27.153   6.128 -0.0140 -0.2554  0.0577
95794W        W38888  14.615  26.947   3.751 -0.1491  0.1011 -0.0408
95795W        W38889  13.757  27.264   7.112  0.3426 -0.0725  0.1964
95796W        W38890  11.607  26.288   4.321 -0.1441 -0.0462 -0.0577
95797W        W38891  13.388  27.508   4.549  0.1702 -0.2646  0.0073
95798W        W38892  10.909  28.265   5.511  0.1732 -0.1861 -0.1763
95799W        W38893  12.612  26.981   6.895 -0.0067  0.3233 -0.2985
95800W        W38894  13.869  28.658   7.896  0.2313 -0.0407 -0.1289
95801W        W38895  11.461  25.441   4.410  0.1329  0.0353 -0.0264
95802W        W38896  14.782  29.154   3.173 -0.0286 -0.1108 -0.0914
95803W        W38897  15.687  26.026   4.688  0.0486 -0.3044 -0.2384
95804W        W38898  12.641  29.009   4.837 -0.2097  0.0850 -0.0882
95805W        W38899  14.235  27.562   4.923  0.1351  0.5264 -0.1433
95806W        W38900  13.521  27.592   6.396  0.0067  0.1319  0.2047
95807W        W38901  11.600  26.333   6.786 -0.0994  0.0230  0.1145
95808W        W38902  13.434  28.692   5.425  0.1522 -0.0829  0.2397
95809W        W38903  14.542  27.858   5.245 -0.2829  0.2621  0.1607
95810W        W38904  13.068  25.200   5.492 -0.1298  0.1311  0.0160
95811W        W38905  11.766  25.843   4.993  0.2258 -0.0910  0.0366
95812W        W38906  11.882  28.685   6.722 -0.0866 -0.0014 -0.1550
95813W        W38907  14.325  25.646   5.142 -0.2619  0.0034  0.2006
95814W        W38908  13.134  25.179   6.838  0.0889  0.0917  0.1651
95815W        W38909  12.935  27.660   3.662 -0.0400 -0.0003 -0.4159
95816W        W38910  15.046  24.815   6.241  0.3655  0.0281  0.2407
95817W        W38911  13.387  27.734   7.884 -0.0121 -0.1975 -0.1324
95818W        W38912  12.134  28.762   8.988 -0.1137 -0.0867 -0.1271
95819W        W38913  11.864  26.843   4.777  0.1880  0.3324 -0.1557
95820W        W38914  13.896  28.127   7.944 -0.2587 -0.0012  0.2581
95821W        W38915  13.688  28.435   3.957  0.2709  0.0198  0.4953
95822W        W38916  13.383  28.434   4.444  0.2263  0.4513 -0.0924
95823W        W38917  13.138  28.130   5.172  0.0590  0.0503 -0.1377
95824W        W38918  12.765  26.529   4.956  0.0465  0.0096  0.0657
95825W        W38919  13.709  27.592   5.747 -0.1311  0.1244  0.2101
95826W        W38920  12.101  26.069   5.372  0.1613  0.0562  0.0303
95827W        W38921  14.095  24.535   4.040 -0.1139 -0.0035 -0.2425
95828W        W38922  13.630  26.067   4.877 -0.1826  0.0389 -0.1110
95829W        W38923  12.888  27.387   7.052 -0.0020  0.4087  0.0648
95830W        W38924  12.230  26.549   5.092 -0.0569  0.0445 -0.0486
95831W        W38925  12.599  27.710   4.498 -0.2315  0.1086 -0.1243
95832W        W38926  11.929  27.842   6.467  0.2731  0.0187  0.0491
95833W        W38927  13.776  24.614   8.259  0.1570  0.1752 -0.0453
95834W        W38928  12.301  26.275   7.517 -0.1666  0.1821  0.1464
95835W        W38929  11.988  27.745   4.721 -0.1338 -0.1274 -0.0258
95836W        W38930  10.514  25.066   5.304 -0.0544  0.0624 -0.1884
95837W        W38931  14.842  27.537   3.636 -0.3329 -0.1364 -0.1453
95838W        W38932  13.404  25.012   4.551 -0.1451 -0.0950 -0.2302
95839W        W38933  10.461  28.128   4.634  0.1361  0.0234 -0.0659
95840W        W38934  13.905  27.636   4.525  0.2817 -0.0924 -0.1075
95841W        W38935  14.376  29.718   4.584 -0.1154 -0.0890 -0.1061
95842W        W38936  13.194  26.638   4.061  0.0111  0.5319 -0.3292
95843W        W38937  14.781  27.495   7.852 -0.2272 -0.1028  0.0422
95844W        W38938  12.462  27.708   3.825 -0.0624  0.0084 -0.0302
95845W        W38939  12.805  26.942   7.654  0.3289  0.1546 -0.3743
95846W        W38940  13.042  24.722   5.957 -0.0390 -0.0181 -0.2006
95847W        W38941  11.619  25.807   3.687  0.0676  0.1525  0.0265
95848W        W38942  14.245  26.139   5.405 -0.1666  0.0218  0.1608
95849W        W38943  13.022  28.846   4.566 -0.0013 -0.0342 -0.0813
95850W        W38944  13.649  28.373   3.379  0.0215  0.1806 -0.1743
95851W        W38945  11.857  28.226   6.800 -0.0014  0.2215  0.0181
95852W        W38946  12.369  27.775   5.720 -0.0290  0.1781 -0.0215
95853W        W38947  11.966  25.996   7.015 -0.2547 -0.0206  0.1694
95854W        W38948  14.893  27.372   4.207 -0.1811 -0.2629  0.1469
95855W        W38949  12.744  27.520   5.954 -0.0893  0.1106  0.2440
95856W        W38950  13.911  27.829   3.391 -0.0578  0.1042  0.1483
95857W        W38951  14.493  24.264   4.103  0.3322 -0.0270 -0.0267
95858W        W38952  15.291  27.082   4.457  0.0390 -0.3087  0.2121
95859W        W38953  10.871  25.901   7.950 -0.0931 -0.2042 -0.0113
95860W        W38954  12.330  27.582   7.999  0.1583 -0.0806 -0.1136
95861W        W38955  14.884  26.709   5.923 -0.1660 -0.0407 -0.1447
95862W        W38956  12.515  26.420   3.943  0.0111 -0.0153  0.0654
95863W        W38957  12.991  26.011   4.346 -0.0615  0.0432 -0.1781
95864W        W38958  13.628  27.992   3.770 -0.2275 -0.0922 -0.0037
95865W        W38959  12.677  27.117   6.213 -0.3772 -0.0018 -0.0737
95866W        W38960  13.184  27.217   4.197 -0.0140  0.2165  0.1711
95867W        W38961  13.736  26.253   6.291 -0.1571 -0.0523  0.2105
95868W        W38962  11.905  26.441   5.877  0.0507 -0.0361  0.0513
95869W        W38963  13.575  26.239   6.755 -0.0910  0.0617 -0.0660
95870W        W38964  12.771  27.245   4.535  0.1809 -0.1797 -0.2842
95871W        W38965  15.175  26.118   4.114 -0.2545  0.0488  0.4547
95872W        W38966  13.166  28.728   7.327 -0.1288 -0.0181  0.0360
95873W        W38967  14.444  28.317   7.069 -0.1348  0.2255 -0.0891
95874W        W38968  12.814  27.595   7.587  0.1164  0.0405 -0.0486
95875W        W38969  14.722  26.487   4.679 -0.0786  0.1344 -0.0648
95876W        W38970  12.685  24.854   5.468  0.0312 -0.1509  0.1306
95877W        W38971  13.964  28.222   3.034  0.0425 -0.3979  0.1406
95878W        W38972  12.961  25.579   5.986  0.0345 -0.2896  0.2593
95879W        W38973  14.760  26.305   5.573 -0.2087  0.3059 -0.0998
95880W        W38974  11.508  26.686   5.735 -0.0277 -0.2207  0.0191
95881W        W38975  13.326  25.054   3.705  0.2845 -0.0529 -0.0636
95882W        W38976  13.028  28.408   6.957  0.0035 -0.0035 -0.1005
95883W        W38977  13.441  27.007   6.365  0.0932 -0.1562  0.4965
95884W        W38978  10.985  27.797  10.059 -0.1526  0.2132 -0.0500
95885W        W38979  12.471  27.916   9.185  0.0659  0.1144 -0.3385
95886W        W38980  14.439  25.858   6.253 -0.0153  0.3009  0.3053
95887W        W38981  14.566  27.157   8.646 -0.0375  0.1055  0.1209
95888W        W38982  12.251  25.461   9.202  0.1035 -0.4000 -0.3009
95889W        W38983  12.779  28.559   8.285  0.1386  0.0231 -0.3766
95890W        W38984  13.715  28.642  10.217  0.1475 -0.3507 -0.0521
95891W        W38985  15.832  27.562   8.358 -0.2561 -0.2098  0.2629
95892W        W38986  14.414  26.531   7.937 -0.0631 -0.3352  0.1055
95893W        W38987  13.558  25.338   8.342  0.2425  0.2424 -0.2752
95894W        W38988  13.332  24.980   8.683  0.1871  0.0872 -0.2632
95895W        W38989  10.234  25.312  10.038 -0.0526  0.2877  0.3725
95896W        W38990  15.179  27.273   8.887  0.0796 -0.2928 -0.0689
95897W        W38991  10.910  27.877   7.801  0.3128  0.0239 -0.0660
95898W        W38992  11.240  26.510   9.522 -0.0260  0.2496 -0.1111
95899W        W38993  11.507  26.598  10.402 -0.1955  0.1047  0.1606
95900W        W38994  13.391  28.474   9.176  0.2636  0.0381  0.2980
95901W        W38995  11.417  25.319   8.944  0.0767  0.0814  0.0942
95902W        W38996  11.914  28.732   8.096  0.0642  0.0746  0.0124
95903W        W38997  11.852  26.334   7.632  0.1320 -0.1262 -0.3711
95904W        W38998  10.413  26.897   9.286 -0.1389  0.0404 -0.1689
95905W        W38999  14.162  26.898  10.192 -0.0668 -0.2766  0.0852
95906W        W39000  14.092  25.369   8.654  0.5658  0.1399  0.0331
95907W        W39001  14.903  25.935   8.689 -0.0040  0.4758  0.1537
95908W        W39002  12.252  27.671   8.538  0.0784 -0.0876 -0.3050
95909W        W39003  12.903  28.237   9.259  0.4103  0.1799  0.0662
95910W        W39004  12.842  26.630   9.255 -0.0600 -0.0572  0.1838
95911W        W39005   9.212  28.955  10.493 -0.1479  0.0156  0.1019
95912W        W39006  12.739  27.818   8.716 -0.0568  0.3740 -0.3137
95913W        W39007  13.800  27.086   9.476  0.0954 -0.0552  0.1585
95914W        W39008  11.478  27.817   7.893 -0.0184 -0.3906 -0.1785
95915W        W39009  15.485  24.096   9.662 -0.0520 -0.1354 -0.1229
95916W        W39010  14.577  27.563   9.034  0.0249 -0.0753 -0.1706
95917W        W39011  12.912  29.823   8.062 -0.0513 -0.4145 -0.0924
95918W        W39012  14.807  27.702   9.529 -0.0662  0.2462  0.0245
95919W        W39013  14.546  30.896  10.458 -0.1530 -0.0617 -0.1278
95920W        W39014  12.489  27.993   7.791 -0.3516 -0.0180 -0.0556
95921W        W39015  14.061  25.581   8.230  0.1454  0.0699  0.0015
95922W        W39016  13.082  26.425   6.640 -0.0911 -0.1375  0.0391
95923W        W39017  14.335  26.335   7.407  0.1232  0.2163 -0.1097
95924W        W39018  14.028  26.119   8.408 -0.1625  0.0586 -0.0529
95925W        W39019  13.844  29.513   9.129 -0.1009 -0.2472  0.0260
95926W        W39020  10.792  25.200   9.680 -0.1335  0.0358 -0.0296
95927W        W39021  13.901  25.437   9.154  0.0948  0.1773  0.1736
95928W        W39022  14.525  26.496   9.311 -0.2070  0.0655  0.2999
95929W        W39023  11.423  29.912  10.573  0.0299 -0.0012  0.0405
95930W        W39024  10.863  26.531   9.995 -0.2435  0.1485 -0.0474
95931W        W39025  14.187  28.508   6.400 -0.1064 -0.2492 -0.1801
95932W        W39026  14.448  27.461   8.260 -0.0433  0.0685 -0.0509
95933W        W39027  13.806  28.499   7.440  0.1397 -0.0414 -0.3750
95934W        W39028  12.860  26.453   7.588 -0.1985 -0.3739  0.3894
95935W        W39029  14.597  25.321   7.415 -0.2848  0.1402 -0.2148
95936W        W39030  13.768  24.763   8.708  0.1144  0.1425 -0.2472
95937W        W39031  11.535  27.479   9.304 -0.1827 -0.0505  0.2175
95938W        W39032  12.925  30.718  11.297  0.4359  0.3577  0.2529
95939W        W39033  13.919  26.827   7.035 -0.0709 -0.2505  0.0195
95940W        W39034  13.133  25.830   9.368 -0.4631  0.1626 -0.3698
95941W        W39035  15.362  24.694   9.433 -0.0530 -0.0565 -0.3978
95942W        W39036  11.797  28.103   7.375  0.2484  0.2823 -0.2321
95943W        W39037  12.830  27.315   9.282 -0.0314 -0.1430 -0.2936
95944W        W39038  15.573  27.950   9.676  0.0278 -0.1002  0.2127
95945W        W39039  14.813  25.273   7.884 -0.2235 -0.1485  0.0649
95946W        W39040  12.681  26.725   9.834 -0.1130  0.1941  0.1069
95947W        W39041  10.878  28.637   7.724  0.1151  0.1630  0.3031
95948W        W39042  11.301  27.997   9.231 -0.0552 -0.1053  0.1536
95949W        W39043  10.834  28.268   7.397 -0.3625 -0.1571  0.1691
95950W        W39044   9.887  26.986   9.524  0.0510 -0.3391 -0.0682
95951W        W39045  14.559  25.903   9.109 -0.0078  0.0486  0.1925
95952W        W39046  14.409  24.872   7.996 -0.2987 -0.0377 -0.3384
95953W        W39047  14.141  24.958   9.011  0.0046  0.1045  0.0167
95954W        W39048  12.861  26.304   8.886 -0.1684 -0.1163 -0.2872
95955W        W39049  15.244  29.825   7.911 -0.1280 -0.1534 -0.2041
95956W        W39050  14.708  26.209   7.738 -0.0061  0.0973 -0.0388
95957W        W39051  13.528  28.342   7.042  0.0090 -0.0008 -0.1549
95958W        W39052  11.513  27.227   8.397 -0.2504  0.2870 -0.3058
95959W        W39053  13.321  26.666   8.797 -0.0681  0.0502 -0.2871
95960W        W39054  10.609  26.023   9.218  0.2460 -0.0894  0.1902
95961W        W39055  11.499  24.833   7.722  0.1744 -0.0728  0.1248
95962W        W39056  14.387  25.440   9.013  0.1227  0.0272  0.1094
95963W        W39057  12.282  28.165   9.635 -0.0043 -0.2149  0.2677
95964W        W39058  11.632  26.856   7.675 -0.0382 -0.1429 -0.4064
95965W        W39059  14.127  29.958   8.413 -0.1353  0.0218  0.0928
95966W        W39060  14.503  29.632   9.098 -0.0876  0.1206  0.0268
95967W        W39061  14.050  27.212   8.520  0.0453 -0.1217 -0.1014
95968W        W39062  10.952  26.771   9.078  0.1443 -0.0230  0.2809
95969W        W39063  12.502  26.562   7.974  0.1187 -0.1248 -0.2494
95970W        W39064  11.453  27.394   9.948  0.1069 -0.0635 -0.2205
95971W        W39065  14.143  27.301   7.830  0.0939 -0.1933  0.2909
95972W        W39066  13.759  26.605   9.185  0.2209 -0.2478 -0.0411
95973W        W39067  15.358  27.690   8.715 -0.0364 -0.2626 -0.1834
95974W        W39068  12.867  26.755   8.562 -0.2679 -0.1406 -0.0136
95975W        W39069  14.543  26.169   8.324  0.0163  0.1306 -0.0638
95976W        W39070  11.987  25.590   8.256 -0.2385 -0.0029 -0.1275
95977W        W39071  11.566  25.716   9.188 -0.0019  0.2129  0.1811
95978W        W39072  14.804  28.156   9.120 -0.0733 -0.1825 -0.2397
95979W        W39073  11.620  28.051   8.867 -0.0514 -0.0812 -0.0950
95980W        W39074  12.657  26.295   8.389 -0.0394  0.1857 -0.1124
95981W        W39075  12.644  28.848   8.658 -0.1954  0.1224 -0.2466
95982W        W39076  15.267  25.158   8.194  0.2028 -0.1435  0.2034
95983W        W39077  11.417  25.634   8.225  0.0446  0.1483  0.1444
95984W        W39078  13.641  23.515   7.779 -0.1372 -0.2009  0.0621
95985W        W39079  14.914  25.378   6.471 -0.3243 -0.0447  0.0759
95986W        W39080  14.597  26.943   7.787 -0.3097 -0.0099 -0.0681
95987W        W39081  12.501  25.568   7.501 -0.1389 -0.0806 -0.1019
95988W        W39082  12.133  25.379   7.806 -0.0113 -0.2165 -0.1228
95989W        W39083  13.182  27.129   8.506  0.3023  0.0998 -0.0405
95990W        W39084  13.133  28.398  10.596 -0.0904  0.0837 -0.1442
95991W        W39085  13.283  25.610   7.998  0.3091 -0.0132 -0.0316
95992W        W39086  14.883  27.525   8.552 -0.0358 -0.1002  0.2045
95993W        W39087  13.893  29.437  10.557  0.0262  0.0441 -0.2475
95994W        W39088  14.270  30.488   9.219  0.0361  0.1792  0.0296
95995W        W39089  13.245  25.591  10.003  0.0501  0.0189 -0.3380
95996W        W39090  13.327  26.229   7.603 -0.1635  0.0563 -0.1481
95997W        W39091  14.158  25.743   9.457  0.0813  0.1457 -0.4106
95998W        W39092  11.896  29.646   8.321 -0.2000  0.0690  0.3883
95999W        W39093  15.409  25.897   7.860  0.1810  0.2349 -0.1985
96000W        W39094  13.681  27.073   8.853 -0.0238  0.0836 -0.0053
96001W        W39095  15.073  26.921   8.577 -0.2257  0.1299  0.2043
96002W        W39096  14.059  26.209   9.238 -0.0648  0.0064  0.1656
96003W        W39097  11.127  25.633   8.675 -0.1334 -0.0614  0.1692
96004W        W39098  14.657  24.935   9.049 -0.0715 -0.2025  0.1142
96005W        W39099  11.857  29.783  10.160  0.0142  0.0340  0.1811
96006W        W39100  14.115  27.321   9.029 -0.0193  0.0273 -0.1840
96007W        W39101  15.456  25.647   7.381 -0.1670 -0.1915 -0.0629
96008W        W39102  12.497  29.207   8.957  0.3777 -0.1337 -0.0856
96009W        W39103  13.989  25.992   6.643 -0.0975 -0.2842  0.0872
96010W        W39104  12.574  24.868   8.521  0.1189  0.0184 -0.1214
96011W        W39105  15.261  29.179   9.989  0.0268  0.4621  0.1409
96012W        W39106  13.101  28.138   8.360  0.0300  0.0652 -0.0508
96013W        W39107  14.909  26.294   9.025  0.2542  0.2624  0.0636
96014W        W39108  11.846  27.293   9.673  0.0107 -0.2980  0.4081
96015W        W39109  12.630  23.890   8.899 -0.0033  0.1882  0.1635
96016W        W39110   9.716  26.308   9.197 -0.2273  0.0362 -0.0534
96017W        W39111  11.273  25.447   7.729  0.2427 -0.1049 -0.2356
96018W        W39112  10.993  26.392   8.068  0.0389 -0.0943 -0.2400
96019W        W39113  14.940  25.761   7.597  0.2308  0.2291  0.0502
96020W        W39114  13.049  26.043   6.325  0.0145  0.2021 -0.1037
96021W        W39115  12.174  25.886   9.403 -0.0180 -0.2270  0.1931
96022W        W39116  14.201  24.029   9.050 -0.2435  0.1964 -0.4066
96023W        W39117   9.732  25.031   9.797  0.0789  0.1535  0.0767
96024W        W39118  14.205  25.878   7.108  0.1084  0.0796  0.1863
96025W        W39119  10.751  26.849   8.257  0.1052 -0.0180  0.0838
96026W        W39120  16.439  26.380   9.004 -0.3341 -0.0695  0.1848
96027W        W39121  13.894  27.256  10.002 -0.0187 -0.0161  0.1330
96028W        W39122  11.308  28.512   8.907  0.0554  0.1375 -0.0125
96029W        W39123  15.073  29.147   9.495 -0.0328  0.0854  0.2967
96030W        W39124  12.150  27.287   7.019 -0.0642 -0.0378  0.1213
96031W        W39125  13.325  26.819   9.447  0.1296 -0.0581 -0.2452
96032W        W39126  15.343  26.839   9.586 -0.1806 -0.2557  0.1224
96033W        W39127  11.565  26.918   9.365 -0.0668 -0.0811  0.0917
96034W        W39128  13.127  28.122   8.838  0.1625 -0.0879 -0.1025
96035W        W39129  15.031  27.120  10.009 -0.1398  0.2467 -0.0665
96036W        W39130  14.085  28.204  10.423 -0.0750  0.1180  0.1747
96037W        W39131  17.011  23.490   9.596  0.0418 -0.1241 -0.2024
96038W        W39132  12.033  24.545   9.102  0.0432  0.3086  0.0296
96039W        W39133  15.598  27.785   7.919 -0.3798  0.0455  0.0709
96040W        W39134  12.019  27.203   7.560 -0.3705  0.5705 -0.0497
96041W        W39135  12.216  27.498   9.412 -0.2349 -0.3328  0.0513
96042W        W39136  13.790  27.712   7.624  0.2256 -0.2679 -0.0158
96043W        W39137  14.171  26.825   9.631  0.1953  0.2032 -0.1436
96044W        W39138  11.593  30.502  10.226 -0.1138  0.6036  0.1230
96045W        W39139  11.954  27.918   7.834  0.1378  0.1176  0.1337
96046W        W39140  12.003  27.775   9.781 -0.0558 -0.0147 -0.1322
96047W        W39141  12.527  25.064   8.025  0.3683 -0.2789  0.0077
96048W        W39142  12.689  27.372   8.438 -0.3806 -0.0278 -0.1245
96049W        W39143  12.711  25.596   9.378 -0.1930 -0.0813 -0.1682
96050W        W39144  13.003  26.866   7.173  0.0824 -0.1872  0.2020
96051W        W39145   9.124  24.174   9.490  0.0364  0.0984  0.1288
96052W        W39146  14.385  28.240   8.942  0.0772  0.2398  0.0295
96053W        W39147  12.429  26.701   8.830  0.1036  0.2000 -0.2538
96054W        W39148  13.041  26.146   7.999  0.1488  0.0109 -0.1860
96055W        W39149  13.681  27.971   9.774  0.3977  0.3193 -0.1555
96056W        W39150  13.664  28.987   9.864  0.2848 -0.0107  0.1429
96057W        W39151  13.568  27.756   7.172 -0.0222 -0.0411 -0.2835
96058W        W39152  14.466  25.721   8.506 -0.0329 -0.0957  0.0985
96059W        W39153  12.811  28.761  10.318  0.0216  0.0375 -0.1978
96060W        W39154  15.748  27.129   9.693 -0.1681 -0.2121 -0.2842
96061W        W39155  13.642  25.596   8.749 -0.0820  0.0658 -0.3695
96062W        W39156  13.579  28.001   8.356 -0.1148 -0.2332 -0.2466
96063W        W39157  14.600  27.489   9.967  0.3437  0.2295  0.0208
96064W        W39158  13.775  25.301   7.817 -0.0226  0.1699  0.3206
96065W        W39159  14.140  29.463   9.655 -0.2494  0.1689 -0.1462
96066W        W39160  14.272  27.678   7.436 -0.1597  0.1289 -0.0517
96067W        W39161  15.015  25.909   9.394 -0.1244  0.1788 -0.1477
96068W        W39162  15.087  25.151   7.467  0.0715  0.1432 -0.2552
96069W        W39163  13.949  27.656   8.163  0.0777 -0.0239 -0.1233
96070W        W39164  12.385  26.767   9.439  0.2619 -0.1159  0.2280
96071W        W39165  11.631  25.239   8.027 -0.2952  0.1701 -0.0519
96072W        W39166  14.180  28.597   8.395 -0.2572 -0.3204 -0.4729
96073W        W39167  13.208  28.848   9.518 -0.0634  0.1953  0.4202
96074W        W39168  14.329  26.258   8.811  0.1083  0.1631 -0.0611
96075W        W39169  10.497  25.643   9.532  0.2168 -0.0164  0.1066
96076W        W39170  10.426  26.431   7.904 -0.0096  0.0623 -0.2270
96077W        W39171  14.108  25.793   8.875  0.2893  0.2413 -0.0090
96078W        W39172  13.554  28.434   9.695 -0.0728 -0.1372  0.0758
96079W        W39173   9.445  26.539  10.401 -0.4653  0.0274 -0.0127
96080W        W39174  11.445  28.041   8.391 -0.0743 -0.1466 -0.0858
96081W        W39175  12.312  24.948   8.982  0.2130  0.0396 -0.0324
96082W        W39176  12.583  29.330  10.248  0.1439 -0.2035 -0.2827
96083W        W39177  11.939  27.124   8.148 -0.0762 -0.2222 -0.2147
96084W        W39178  13.917  24.261   9.684 -0.0832  0.3155 -0.1604
96085W        W39179  14.627  25.643   9.645  0.1381  0.1094  0.1901
96086W        W39180  13.669  27.525   9.200 -0.1492 -0.1665  0.3361
96087W        W39181  12.004  28.691   9.551  0.0580  0.4717 -0.0396
96088W        W39182  14.649  28.380   9.675  0.2234 -0.1665 -0.0547
96089W        W39183  14.525  26.940   9.067 -0.2994 -0.2250 -0.2346
96090W        W39184  14.081  27.651   9.676 -0.0027 -0.2439 -0.0960
96091W        W39185  13.228  26.644   9.936 -0.1947  0.1959 -0.0686
96092W        W39186  12.447  27.079   7.999 -0.2277  0.0154 -0.1263
96093W        W39187  11.000  27.175   9.979  0.0334 -0.0132  0.0252
96094W        W39188  13.557  28.879   8.889 -0.0736 -0.2722 -0.1936
96095W        W39189  13.261  27.162   9.041 -0.0654 -0.1011 -0.0622
96096W        W39190  13.206  27.646   8.527 -0.1002 -0.0486  0.1247
96097W        W39191  16.213  28.536  10.459  0.2463 -0.0389 -0.1231
96098W        W39192  13.254  26.368   8.380 -0.2011  0.4589  0.3067
96099W        W39193  13.227  28.717  10.037  0.1654 -0.2077  0.2042
96100W        W39194  12.255  28.582   8.532 -0.0928  0.3053 -0.1844
96101W        W39195  14.254  27.625   8.629 -0.2597  0.1068 -0.3031
96102W        W39196  11.448  27.600   8.687 -0.4257 -0.1653 -0.2856
96103W        W39197  14.884  25.926   6.598 -0.1656 -0.1925 -0.3486
96104W        W39198  14.949  27.124   8.112  0.1162  0.1683  0.2635
96105W        W39199  14.035  25.078   8.260 -0.2458  0.1092  0.4525
96106W        W39200  13.990  25.338   9.735  0.0075 -0.1380  0.3926
96107W        W39201  12.938  25.604   6.527 -0.0194  0.1078 -0.0419
96108W        W39202  13.090  29.304   7.859 -0.0629 -0.0150  0.0569
96109W        W39203  12.820  26.192   9.459 -0.0017  0.0054  0.2043
96110W        W39204  12.055  27.249   8.628 -0.2258 -0.2617 -0.0293
96111W        W39205  15.961  25.248   8.598  0.4701 -0.2310 -0.2604
96112W        W39206  13.085  27.256   8.064  0.1024  0.2909  0.0807
96113W        W39207  13.228  25.960   8.798  0.0269 -0.3034  0.0217
96114W        W39208  13.150  28.618   8.638 -0.2777 -0.2223  0.3200
96115W        W39209  14.117  28.153   9.888 -0.2114  0.0568 -0.1006
96116W        W39210  13.280  29.448   9.095 -0.2184  0.0567  0.0567
96117W        W39211  11.469  26.422   8.007 -0.2699  0.0375 -0.0191
96118W        W39212  14.496  25.610   6.707  0.0877 -0.0517  0.0913
96119W        W39213  11.822  26.686   9.748  0.4107 -0.0384  0.1154
96120W        W39214  13.530  25.972   8.371 -0.0309 -0.0565  0.0536
96121W        W39215  14.960  26.039   9.920 -0.3440 -0.0277 -0.4577
96122W        W39216  11.572  29.544   9.692  0.1761 -0.2624 -0.1705
96123W        W39217  11.480  26.485   9.083  0.0851  0.0790 -0.1773
96124W        W39218  13.703  25.665   6.983 -0.0784 -0.1786 -0.1047
96125W        W39219  14.225  26.561   8.433  0.0313 -0.0226  0.0494
96126W        W39220  14.063  26.416   9.962 -0.0992 -0.1002 -0.1132
96127W        W39221  12.879  27.740   8.089 -0.1256 -0.0987 -0.5149
96128W        W39222  12.980  26.653   8.064 -0.0720  0.0702  0.0448
96129W        W39223  14.976  26.474   9.513 -0.0904  0.1479  0.0288
96130W        W39224  11.698  25.852   7.869  0.2236  0.2022 -0.1177
96131W        W39225  14.835  28.127   6.752  0.0512  0.1680 -0.0520
96132W        W39226  14.415  25.178   9.453  0.0682 -0.0239  0.3507
96133W        W39227  12.527  30.852   8.235 -0.3055  0.0768  0.2965
96134W        W39228  13.922  26.778   8.038 -0.0031  0.1664 -0.3300
96135W        W39229  15.318  28.188   9.026 -0.0182  0.0744  0.0402
96136W        W39230  13.127  28.246   9.709  0.2366  0.0091  0.0759
96137W        W39231  15.011  29.387  10.354  0.1139  0.1218 -0.1405
96138W        W39232  16.016  27.327   9.343 -0.0857  0.1467 -0.0386
96139W        W39233  14.075  24.298   7.998 -0.0630 -0.0024 -0.1071
96140W        W39234  11.980  27.077   9.150 -0.3077  0.0157 -0.1061
96141W        W39235  12.679  28.392   8.770  0.1154 -0.0823  0.0577
96142W        W39236  13.619  24.473   7.463  0.2148 -0.1680  0.1544
96143W        W39237  14.063  29.478   8.433  0.0659  0.0233 -0.0654
96144W        W39238  11.505  27.300   7.864 -0.2198  0.1965  0.0564
96145W        W39239  13.693  27.214   8.224 -0.3225 -0.2051 -0.1309
96146W        W39240  11.958  28.059   8.351  0.1496  0.2334  0.0225
96147W        W39241  15.215  28.067   7.668  0.0041 -0.0002  0.0714
96148W        W39242  15.014  25.538   9.915 -0.2238 -0.2229  0.3394
96149W        W39243  15.042  26.867   9.129 -0.1203  0.1248 -0.1860
96150W        W39244  13.323  26.254   9.180  0.3511 -0.0912 -0.2391
96151W        W39245  14.190  26.049   7.928 -0.3373 -0.1344 -0.1195
96152W        W39246  13.415  24.854   7.988 -0.4315 -0.1948  0.1623
96153W        W39247  12.614  29.553   9.748 -0.1420  0.2209  0.0260
96154W        W39248  11.126  26.350   7.025 -0.3258  0.1452 -0.1105
96155W        W39249  14.068  28.113   8.532  0.0406  0.2297 -0.0202
96156W        W39250  13.690  28.257   8.863  0.1802  0.1669 -0.4733
96157W        W39251  11.155  25.552   9.778 -0.3694 -0.2359  0.0245
96158W        W39252  12.642  25.805   8.845  0.1406  0.0523 -0.1805
96159W        W39253  13.751  27.565   8.686 -0.0200 -0.0632  0.1138
96160W        W39254  13.693  26.398   9.631  0.2204  0.0301 -0.0017
96161W        W39255  11.072  25.725   9.154  0.0056 -0.0654 -0.0293
96162W        W39256  14.556  27.988   8.423 -0.1031 -0.2679 -0.1173
96163W        W39257  14.986  28.086   8.660  0.0262 -0.2220  0.0616
96164W        W39258  10.039  24.773   9.514  0.2379 -0.2017 -0.2994
96165W        W39259  10.452  27.784   7.980  0.0846  0.1406 -0.0128
96166W        W39260   9.683  24.838   7.439 -0.3273 -0.0554  0.2397
96167W        W39261  13.306  27.346   9.612  0.1588  0.1487  0.1006
96168W        W39262  13.031  29.123   8.805 -0.0643 -0.1503  0.0419
96169W        W39263  14.299  28.383   7.963  0.1036  0.3474  0.0470
96170W        W39264  10.707  25.691   8.414 -0.2684  0.2061 -0.2049
96171W        W39265  14.545  25.709   8.006 -0.0662 -0.0849 -0.0872
96172W        W39266  15.568  26.692   7.693 -0.0952  0.0101 -0.0715
96173W        W39267  15.099  24.647   8.914  0.2751  0.0897  0.0968
96174W        W39268  14.573  26.497   9.807  0.2426  0.1238 -0.1383
96175W        W39269  14.363  23.607   9.375  0.0056 -0.0130 -0.2488
96176W        W39270  11.736  26.082   8.308  0.0838 -0.0466 -0.0185
96177W        W39271  12.555  25.397   8.519  0.2894 -0.0626 -0.0843
96178W        W39272  13.715  26.567   8.542 -0.4921 -0.0923  0.0168
96179W        W39273  13.370  27.969   9.394 -0.1797 -0.3879 -0.1435
96180W        W39274  13.112  25.460   8.677 -0.0385  0.1292  0.0126
96181W        W39275  13.876  28.232   9.400 -0.0186 -0.1238  0.0130
96182W        W39276  13.668  26.353   8.111  0.2650  0.4807  0.0977
96183W        W39277  15.161  27.014   7.653  0.4521 -0.1457 -0.1982
96184W        W39278  11.724  26.200   9.407  0.0408  0.0776 -0.0316
96185W        W39279  12.674  31.753   9.927 -0.1042  0.2025 -0.0663
96186W        W39280  14.864  24.906   8.377  0.2008  0.1075 -0.0522
96187W        W39281  12.159  26.291   8.506  0.1470  0.0202 -0.1769
96188W        W39282  12.296  26.891   8.425  0.0483 -0.2062  0.2379
96189W        W39283  13.149  27.658   9.047 -0.2210  0.1581 -0.1226
96190W        W39284  14.319  27.240   9.514 -0.3305 -0.1703 -0.3345
96191W        W39285  11.133  27.228   9.115  0.1446  0.0993  0.0625
96192W        W39286  12.146  26.210   8.000  0.2209 -0.2010 -0.1579
96193W        W39287  11.908  27.667   8.876  0.0459  0.0336  0.0240
96194W        W39288  13.612  28.044  10.376  0.1205  0.1458  0.0704
96195W        W39289  13.038  31.309   4.243 -0.1095 -0.0475 -0.0796
96196W        W39290  11.413  30.585   0.565 -0.2548  0.1991  0.1126
96197W        W39291  14.499  30.313  31.289 -0.3191 -0.3760  0.2060
96198W        W39292  14.002  31.254   1.250  0.2138 -0.1609  0.0656
96199W        W39293  12.039  30.729   0.854  0.1840  0.2556  0.0493
96200W        W39294  13.828  33.344  31.264 -0.1329 -0.1528  0.1026
96201W        W39295  12.768  28.117   3.653 -0.0907 -0.0679 -0.0879
96202W        W39296  13.229  32.580   1.551  0.0353 -0.1909  0.0469
96203W        W39297  14.513  31.603   1.811  0.4184  0.1617 -0.2636
96204W        W39298  13.221  31.237   0.547  0.3435 -0.1215 -0.0241
96205W        W39299  13.443  29.266   1.802  0.1047 -0.0811  0.0508
96206W        W39300  12.190  32.253   3.845 -0.2523 -0.0310 -0.0699
96207W        W39301  12.078  30.027   0.126 -0.1431  0.0072 -0.1624
96208W        W39302  11.870  30.308   2.357  0.0783 -0.2149 -0.0250
96209W        W39303  12.448  29.940   1.941  0.0788  0.1844  0.2541
96210W        W39304  11.960  31.333   0.245 -0.0505  0.0072 -0.2533
96211W        W39305  11.620  31.252   3.333  0.4932  0.0064 -0.2567
96212W        W39306  12.066  30.784   0.009  0.1338 -0.0588  0.2175
96213W        W39307  12.756  31.156   0.787 -0.1507 -0.2522  0.1998
96214W        W39308  12.986  30.000   3.150  0.1333 -0.0949  0.1360
96215W        W39309  12.654  30.710   1.549 -0.0709 -0.2645 -0.0778
96216W        W39310  12.970  30.827  31.666 -0.3916  0.0661 -0.0935
96217W        W39311  10.061  31.607   0.602  0.1076 -0.0178  0.1901
96218W        W39312  10.720  32.451   1.314  0.3382 -0.0455  0.2016
96219W        W39313  10.650  30.171   4.492  0.3392  0.2714 -0.0745
96220W        W39314  13.675  28.859   1.409 -0.0257 -0.3002 -0.0759
96221W        W39315  13.977  30.312   1.171  0.2849  0.0822  0.1070
96222W        W39316  13.685  32.824   1.481 -0.1386 -0.1756 -0.0537
96223W        W39317  13.223  30.050   1.881 -0.1358 -0.0359 -0.2726
96224W        W39318  12.601  31.630   1.056 -0.2509  0.0206  0.0541
96225W        W39319  11.684  32.256   1.601  0.0192  0.0654 -0.1004
96226W        W39320  12.160  34.413   1.668  0.1392 -0.3629 -0.0587
96227W        W39321  11.976  31.133   1.851 -0.2309 -0.0010  0.3972
96228W        W39322  14.517  31.335   1.373  0.0707  0.0794  0.0766
96229W        W39323  13.983  31.782   3.802 -0.2869 -0.0350 -0.2600
96230W        W39324  12.455  33.209   2.869 -0.0792 -0.3067  0.1674
96231W        W39325  11.504  31.537   0.587  0.0652  0.0840 -0.1500
96232W        W39326  13.348  31.698   4.381 -0.0431 -0.2602  0.2178
96233W        W39327  12.145  31.516   3.705 -0.2977  0.2536  0.1379
96234W        W39328  12.747  30.353   1.924 -0.1451  0.1753  0.1784
96235W        W39329  13.982  28.469   0.645 -0.1027  0.2773 -0.2385
96236W        W39330  13.532  32.419   1.150  0.2007 -0.0290  0.0658
96237W        W39331  12.732  30.767   0.478 -0.0411  0.0272 -0.0179
96238W        W39332  11.759  30.260   4.787 -0.2401  0.0236 -0.4492
96239W        W39333  10.508  32.025   2.774 -0.0285  0.0108  0.0467
96240W        W39334  12.815  29.900   3.702  0.0022  0.0713  0.0937
96241W        W39335  12.946  32.663  29.924 -0.1405  0.3069 -0.2815
96242W        W39336  13.152  30.673  31.203 -0.0770  0.1225  0.0542
96243W        W39337  12.243  31.804  29.403  0.2233 -0.1473 -0.4396
96244W        W39338  13.296  30.054   0.350 -0.3410 -0.0879 -0.0496
96245W        W39339  13.024  28.629   0.840 -0.0115  0.1824  0.0716
96246W        W39340  13.258  32.429   2.082  0.1747  0.2867  0.0378
96247W        W39341  12.652  29.463   0.584  0.0040 -0.0271  0.0946
96248W        W39342  13.220  31.908   2.618  0.2361 -0.0358  0.1687
96249W        W39343  11.197  29.992  30.858 -0.0816 -0.1598  0.3598
96250W        W39344  13.869  29.778   1.303 -0.0799 -0.0543  0.0482
96251W        W39345  13.758  31.840   2.566  0.1172 -0.0891 -0.0138
96252W        W39346  10.591  30.510   1.503  0.3215  0.3798 -0.1705
96253W        W39347  13.373  31.624  31.065 -0.0332 -0.3331 -0.1444
96254W        W39348  14.419  31.609   0.981 -0.1142  0.1865  0.2195
96255W        W39349  14.261  33.152  31.842 -0.2767  0.0938 -0.1727
96256W        W39350  11.745  31.199   1.393  0.1462  0.1762 -0.2393
96257W        W39351  11.197  30.271   4.754 -0.3697 -0.0264 -0.0745
96258W        W39352  12.402  30.876   4.476  0.2474 -0.2686 -0.0145
96259W        W39353  10.792  28.555   1.581 -0.2154 -0.0391 -0.1556
96260W        W39354  14.147  30.646   3.975 -0.0084  0.4404 -0.3933
96261W        W39355  11.268  32.442   4.266  0.1190 -0.0758 -0.0121
96262W        W39356  14.124  29.536   0.842  0.0504  0.1142 -0.2147
96263W        W39357  13.059  32.017   1.833 -0.2684 -0.0931 -0.4097
96264W        W39358  13.498  30.697   2.792  0.2517 -0.4066 -0.1833
96265W        W39359  14.114  32.112  31.519 -0.0397 -0.0234  0.0741
96266W        W39360  13.429  28.484   1.658 -0.2201  0.0845  0.2992
96267W        W39361  14.379  27.966   2.490 -0.2043  0.2399 -0.1523
96268W        W39362  12.058  31.350  31.732 -0.2395  0.3115 -0.0312
96269W        W39363  12.213  31.434   1.393  0.0509 -0.0886 -0.1546
96270W        W39364  13.626  32.506   3.275 -0.0821 -0.0026  0.4191
96271W        W39365  13.841  30.104   0.234 -0.2364  0.1700  0.3470
96272W        W39366  12.388  33.412   1.941 -0.1912 -0.2866 -0.1761
96273W        W39367  12.262  29.487   2.508  0.2155  0.0437  0.4087
96274W        W39368  12.735  30.983   3.549 -0.1115  0.0112 -0.1294
96275W        W39369  12.609  31.173  31.625  0.1003 -0.3471 -0.3564
96276W        W39370  10.591  30.363   3.262  0.2204  0.1016  0.1145
96277W        W39371  10.948  33.093   1.185 -0.1902 -0.1801  0.1992
96278W        W39372  12.348  28.595   2.452 -0.2273 -0.0304 -0.4029
96279W        W39373  11.975  32.583   2.695  0.4040 -0.0467 -0.0060
96280W        W39374  15.222  29.017   0.283  0.1257 -0.2945  0.2087
96281W        W39375  12.348  30.287   2.260 -0.0694  0.2174 -0.1233
96282W        W39376  14.053  28.108   0.106 -0.2497 -0.1240 -0.0866
96283W        W39377  11.769  32.507   0.420  0.1633  0.2990  0.2557
96284W        W39378  13.437  32.095  30.876 -0.1509 -0.2414  0.1706
96285W        W39379  14.220  31.270   0.030  0.1243 -0.1523  0.0153
96286W        W39380  12.309  31.469  30.402 -0.2462 -0.1713  0.1053
96287W        W39381  11.443  30.750   4.681 -0.3065  0.3852  0.3270
96288W        W39382  11.749  29.376   1.151 -0.1799 -0.0051  0.1967
96289W        W39383  11.636  31.154   3.856 -0.3184  0.0227  0.1988
96290W        W39384  11.477  29.458   2.503 -0.2439  0.0681  0.0569
96291W        W39385  13.604  31.159   3.490  0.1463 -0.2812 -0.2176
96292W        W39386   9.410  28.364  31.445  0.3477  0.1850  0.0916
96293W        W39387  13.063  30.458   0.547  0.1979 -0.2204 -0.1699
96294W        W39388  11.579  30.802   1.112 -0.0409  0.0658 -0.1540
96295W        W39389  11.119  31.755   0.779  0.0436  0.1083 -0.1519
96296W        W39390  14.387  28.762   4.104  0.0086 -0.0101  0.0243
96297W        W39391  14.059  32.080   0.853 -0.2772  0.0102 -0.3364
96298W        W39392  12.598  32.130   5.274  0.2014  0.0555 -0.1045
96299W        W39393  14.621  32.372   0.397  0.0756 -0.1839  0.1798
96300W        W39394  12.590  30.643   2.552 -0.0393  0.7060 -0.3410
96301W        W39395  11.854  30.025   0.617 -0.0658 -0.0719  0.1678
96302W        W39396  13.407  34.287   1.780 -0.0789  0.1972  0.2143
96303W        W39397  13.238  31.534   1.638 -0.2607  0.1691  0.1160
96304W        W39398  11.977  29.500   0.506 -0.1413 -0.0610 -0.0724
96305W        W39399  13.585  32.149   1.661 -0.0081  0.0723  0.1524
96306W        W39400  11.499  30.351   1.911  0.0717 -0.3459  0.0402
96307W        W39401  11.114  31.118   3.832  0.1489 -0.2189 -0.1087
96308W        W39402  12.650  30.104   2.626 -0.0552  0.0652  0.1613
96309W        W39403  14.170  28.902   1.460  0.1101 -0.0167  0.3327
96310W        W39404  13.645  29.275   1.188  0.1959  0.0318 -0.0007
96311W        W39405  11.603  29.634   0.810  0.0176 -0.1636  0.2004
96312W        W39406  12.986  31.688   0.703 -0.2970  0.1742  0.0264
96313W        W39407  12.139  33.439  31.565  0.0220 -0.0590 -0.0178
96314W        W39408  11.541  30.601   2.583 -0.0495 -0.3033  0.0398
96315W        W39409  13.352  31.184   2.018  0.2667  0.0077 -0.0053
96316W        W39410  13.167  29.536   0.544 -0.0968 -0.3270  0.0758
96317W        W39411  11.851  31.571   4.067 -0.0798  0.1766  0.1013
96318W        W39412  12.509  31.148   1.763  0.0153  0.1283  0.0068
96319W        W39413  10.621  30.949   0.069 -0.3649 -0.0212 -0.2278
96320W        W39414  11.887  31.887   2.828  0.0600 -0.0992 -0.0629
96321W        W39415  15.014  27.659  31.621 -0.0760 -0.2171 -0.0019
96322W        W39416  14.688  31.411  31.266 -0.0302 -0.3891 -0.2256
96323W        W39417  13.463  31.196   3.026 -0.0364 -0.0219 -0.1707
96324W        W39418  14.027  32.603  30.226  0.1928  0.0065 -0.4105
96325W        W39419  13.064  29.720   0.051  0.1706 -0.1759  0.0334
96326W        W39420  13.184  29.436  30.626 -0.1051 -0.3073 -0.1425
96327W        W39421  10.889  30.954   2.415  0.4786  0.1543  0.0154
96328W        W39422  12.982  30.314   1.051 -0.1922  0.0971  0.3720
96329W        W39423  12.306  30.802   2.047 -0.2268  0.0703 -0.2302
96330W        W39424  12.708  30.330  31.377  0.0304  0.1762 -0.0854
96331W        W39425  13.117  31.862  31.433 -0.0333  0.1216 -0.1005
96332W        W39426  11.894  32.662   1.987 -0.2562  0.0454 -0.2917
96333W        W39427  13.392  30.132   3.942 -0.0002  0.2082  0.1167
96334W        W39428  12.273  31.161   0.911  0.3919 -0.0281 -0.2878
96335W        W39429  12.513  29.148   3.695 -0.0762 -0.3512  0.1738
96336W        W39430  11.785  30.764   2.088 -0.3376  0.4144  0.0595
96337W        W39431  14.231  29.262   0.270 -0.2777  0.0474  0.2245
96338W        W39432  11.308  32.861   0.417 -0.2605 -0.2867  0.0188
96339W        W39433  13.238  28.742   1.266 -0.1118 -0.1714  0.1993
96340W        W39434  13.396  28.290   0.689  0.2221  0.1026 -0.1408
96341W        W39435  14.455  29.140   2.707  0.0014 -0.1691  0.2886
96342W        W39436  15.030  29.782   3.995  0.1583 -0.0878 -0.2373
96343W        W39437  14.714  31.215  31.758 -0.0891  0.1113  0.2648
96344W        W39438  12.284  30.353   0.621 -0.0668  0.1643 -0.0658
96345W        W39439  12.249  31.016   0.456  0.2234  0.1966 -0.2038
96346W        W39440  12.614  29.000   4.152 -0.1207  0.0056 -0.1127
96347W        W39441  10.328  30.312   2.661 -0.0272 -0.0188  0.1839
96348W        W39442  11.453  32.879   4.047  0.2223  0.3592  0.1201
96349W        W39443  13.723  31.588   2.975  0.0957 -0.1583 -0.0964
96350W        W39444  13.196  30.362  31.631  0.0716 -0.2516  0.2851
96351W        W39445  12.935  30.547   4.062  0.2808  0.1436 -0.0005
96352W        W39446  12.231  28.740  31.381 -0.2836  0.1978 -0.0568
96353W        W39447  14.251  34.187   1.422 -0.1338  0.0061 -0.1249
96354W        W39448  12.255  31.955   1.505  0.3391  0.2072  0.0747
96355W        W39449  11.965  28.717   2.930  0.0056 -0.4363  0.1024
96356W        W39450  13.632  32.087   2.151  0.1082 -0.0888  0.2029
96357W        W39451  13.683  32.145   0.487  0.0399 -0.0485  0.1038
96358W        W39452  13.219  30.902   3.867  0.2786 -0.0678 -0.2081
96359W        W39453  12.036  31.970   0.474  0.3296  0.0174  0.0475
96360W        W39454  13.932  28.500   1.698  0.0652  0.0792 -0.2336
96361W        W39455  11.504  33.562   2.861  0.2997  0.2527  0.0777
96362W        W39456  11.432  30.616  31.444  0.0122  0.0316 -0.2405
96363W        W39457  10.630  29.502   0.811 -0.0127  0.2969 -0.1048
96364W        W39458  12.940  28.570   0.337 -0.1583  0.1629 -0.1372
96365W        W39459  13.665  31.263  31.375 -0.0411  0.1144  0.1464
96366W        W39460  11.299  30.859   3.427  0.3654  0.3069  0.0819
96367W        W39461  13.587  29.420   2.823  0.0292  0.0092 -0.0650
96368W        W39462  11.518  31.914   4.159 -0.1078 -0.1768  0.4212
96369W        W39463  12.544  31.365   3.072 -0.0057  0.1634  0.1262
96370W        W39464  14.692  29.230   0.369 -0.0470  0.2558  0.1233
96371W        W39465  12.663  33.620   2.668  0.4758  0.2514  0.1041
96372W        W39466  12.761  30.510   3.259 -0.0142  0.2982 -0.0731
96373W        W39467  12.209  30.865   1.482 -0.2203 -0.2120  0.4487
96374W        W39468  13.103  30.818   1.219  0.0239  0.0280 -0.0320
96375W        W39469  11.769  30.645   1.554  0.0777 -0.0395 -0.2925
96376W        W39470  10.818  33.332   1.675 -0.0393  0.0784 -0.1801
96377W        W39471  14.827  32.276   1.754  0.1876  0.1168  0.1159
96378W        W39472  11.472  30.752  31.947  0.0600 -0.2426 -0.0512
96379W        W39473  12.098  32.151   1.941 -0.3001 -0.1583 -0.1744
96380W        W39474  11.782  30.235   2.942 -0.4060 -0.0736  0.2553
96381W        W39475  13.839  31.323   2.100 -0.0803 -0.1355  0.1663
96382W        W39476  12.255  29.910   1.483 -0.0013  0.2025 -0.0950
96383W        W39477  11.354  29.043   1.085  0.1484  0.1028  0.3225
96384W        W39478  12.471  30.072   1.069 -0.3368  0.0846  0.0502
96385W        W39479  13.323  31.679   2.190  0.1284  0.1009  0.0357
96386W        W39480  12.979  29.158   1.422 -0.0520  0.0796  0.1823
96387W        W39481  11.715  31.263   4.891  0.0592 -0.0671 -0.0865
96388W        W39482  13.343  27.842   0.895 -0.0778  0.1066  0.2198
96389W        W39483  14.543  34.191   0.216 -0.2403  0.0753 -0.1815
96390W        W39484  11.582  30.587   5.255 -0.1711  0.0016  0.1179
96391W        W39485  12.206  32.544   1.597  0.3186 -0.3280  0.1426
96392W        W39486  11.038  31.287   1.962  0.0672  0.1350 -0.1434
96393W        W39487  11.411  32.937   1.210  0.0771  0.0808 -0.2172
96394W        W39488  12.196  29.910   2.889 -0.0685  0.2924  0.0403
96395W        W39489  11.472  33.312   3.660  0.3444  0.1846  0.2239
96396W        W39490  11.641  32.464   0.951 -0.2242 -0.1675  0.1989
96397W        W39491  11.505  31.898   1.907 -0.0979 -0.2010 -0.2230
96398W        W39492  15.056  30.032  31.212 -0.2720 -0.1093  0.3714
96399W        W39493  13.626  32.302  29.568 -0.0141  0.0056  0.0178
96400W        W39494  13.301  28.216   1.264  0.0931 -0.0895  0.1921
96401W        W39495  14.562  29.675   4.075  0.1073 -0.3102  0.1227
96402W        W39496  12.364  30.725  31.540 -0.4381  0.0425  0.0556
96403W        W39497  14.549  28.422   3.418 -0.1319  0.0173 -0.0841
96404W        W39498  12.141  28.897   3.373 -0.0353  0.0526 -0.0819
96405W        W39499  13.443  31.766   1.175 -0.1999  0.0401 -0.0831
96406W        W39500  10.761  29.009   3.596 -0.1331 -0.1754 -0.2687
96407W        W39501  13.685  32.995   2.446 -0.1693  0.0897  0.0754
96408W        W39502  12.728  30.980   4.020 -0.0222 -0.0002  0.1090
96409W        W39503  12.583  29.967  31.913  0.3114 -0.0339 -0.3650
96410W        W39504  12.160  28.668  31.978 -0.2137  0.0435 -0.1260
96411W        W39505  11.827  31.893   3.653  0.0450 -0.0137 -0.3915
96412W        W39506  14.103  32.366   0.368  0.0345 -0.3114 -0.0678
96413W        W39507  13.533  30.358   0.969 -0.0363 -0.2423 -0.4031
96414W        W39508  12.768  30.086   1.505  0.2030  0.0855 -0.0119
96415W        W39509  11.383  31.086   2.430  0.2058  0.2019 -0.0435
96416W        W39510  13.226  29.285   0.096 -0.3222 -0.0451  0.5122
96417W        W39511  12.841  30.427   0.005  0.1816 -0.1920  0.0551
96418W        W39512  12.551  31.883   1.920 -0.0915 -0.1332 -0.2265
96419W        W39513  12.173  28.530   2.002  0.0966  0.0242  0.1034
96420W        W39514  13.218  31.039   1.608  0.0900 -0.0423  0.0410
96421W        W39515  14.266  30.077  31.818  0.0141 -0.1797  0.3166
96422W        W39516  12.529  28.864   1.718  0.0417  0.3280  0.0380
96423W        W39517  11.963  29.926   3.348  0.1320 -0.1843  0.0912
96424W        W39518  12.863  29.290   1.914 -0.0587 -0.1909 -0.1105
96425W        W39519  11.295  29.486   3.013  0.2722  0.1038 -0.0766
96426W        W39520  13.485  33.207   2.972 -0.0325  0.0243 -0.1058
96427W        W39521  15.870  31.355  31.950 -0.2967  0.2400 -0.2728
96428W        W39522  12.604  31.218   2.550 -0.1828  0.0142  0.0092
96429W        W39523  15.031  29.435   0.002  0.2958  0.2094 -0.1595
96430W        W39524  13.371  30.820   0.761 -0.0611  0.2209 -0.0164
96431W        W39525  11.383  30.858   1.773 -0.0797 -0.0106 -0.3326
96432W        W39526  12.070  31.165   2.823 -0.1590  0.0381 -0.2083
96433W        W39527  12.216  29.122  31.749 -0.3241  0.1380  0.1040
96434W        W39528  12.605  28.972   2.260  0.4826  0.0074 -0.0056
96435W        W39529  13.269  32.354  31.608  0.1095  0.1376 -0.1271
96436W        W39530  14.707  30.100   0.767 -0.0045  0.1054 -0.1896
96437W        W39531  13.041  29.249  31.542  0.3163 -0.0570 -0.2324
96438W        W39532  11.731  30.814   3.222 -0.0919 -0.1455 -0.1682
96439W        W39533  10.635  32.066   3.802  0.1022 -0.1710 -0.1000
96440W        W39534  11.690  30.365   0.960  0.2511  0.0021  0.0350
96441W        W39535  13.298  32.112   0.050 -0.1181 -0.1289  0.0535
96442W        W39536  12.820  32.112   2.268  0.1329  0.2214 -0.1204
96443W        W39537  14.397  30.924   4.372  0.1834 -0.2359  0.2835
96444W        W39538  13.484  29.522  31.678  0.1872 -0.0915  0.3093
96445W        W39539  13.380  29.716   3.709 -0.0566  0.0934  0.0562
96446W        W39540  12.774  32.836   1.315  0.0836  0.4179  0.0445
96447W        W39541  13.886  27.962   0.772  0.0905 -0.2704  0.2172
96448W        W39542  13.062  33.391   2.763 -0.1491 -0.3328 -0.1869
96449W        W39543  11.279  30.468   2.995  0.0072 -0.3013  0.1113
96450W        W39544  12.932  32.779   1.925 -0.3103  0.1578  0.2797
96451W        W39545  12.707  29.580   1.479  0.2326  0.3646  0.0159
96452W        W39546  13.203  30.413   1.593 -0.3670 -0.1741  0.0424
96453W        W39547  12.140  30.406   1.260 -0.0541 -0.0589 -0.2118
96454W        W39548  13.415  30.213   2.947  0.0802 -0.1165 -0.0992
96455W        W39549  14.358  31.880   2.604 -0.0772  0.1885  0.0924
96456W        W39550  11.025  31.305   3.368 -0.0446 -0.0230 -0.0778
96457W        W39551  13.414  31.637   3.358 -0.0091  0.1804  0.0590
96458W        W39552  14.153  32.164   1.771  0.0524 -0.0813  0.0476
96459W        W39553  11.596  32.812   2.394  0.0719  0.1477  0.0710
96460W        W39554  10.147  30.100   4.580  0.0370  0.0437 -0.2134
96461W        W39555  12.269  30.402   4.675 -0.3280  0.0272  0.1839
96462W        W39556  12.349  29.856   0.617 -0.2419 -0.0262  0.1900
96463W        W39557  11.894  29.076   0.830  0.1208  0.0391  0.0354
96464W        W39558  12.729  31.142   1.279 -0.0966 -0.1827 -0.3557
96465W        W39559  11.854  30.729   3.707 -0.1624  0.1093  0.1477
96466W        W39560  10.087  32.041   3.661  0.2465 -0.1327 -0.2147
96467W        W39561  12.035  32.533  31.969  0.0450 -0.0862 -0.0028
96468W        W39562  12.773  31.320   0.241  0.1844  0.0876  0.3744
96469W        W39563  12.122  31.879   0.943 -0.1576 -0.0136 -0.1494
96470W        W39564  13.847  31.725   1.746  0.2654 -0.0402 -0.2948
96471W        W39565  11.888  31.448   0.892  0.0919  0.1033 -0.0794
96472W        W39566  11.803  32.285   2.350  0.1116  0.4147  0.1372
96473W        W39567  10.474  32.922   1.925  0.1570  0.1325 -0.0660
96474W        W39568  14.419  32.580  29.798  0.0377  0.0127  0.0831
96475W        W39569  13.889  33.488   0.362  0.2428  0.0509  0.2093
96476W        W39570  13.374  30.664   2.029  0.1023 -0.0639 -0.2361
96477W        W39571  13.698  28.070  31.712  0.0966  0.0374 -0.2707
96478W        W39572  14.191  30.104   0.650  0.0876  0.4029 -0.0588
96479W        W39573  13.812  32.123  31.941 -0.0235  0.1412  0.1445
96480W        W39574  13.434  31.393   3.931 -0.3666 -0.0861  0.0838
96481W        W39575  11.373  29.918   3.276  0.2336 -0.0344  0.2627
96482W        W39576  11.851  29.989  30.287  0.0782 -0.0077 -0.0147
96483W        W39577  12.859  30.874   4.544 -0.0634  0.1945  0.0417
96484W        W39578  14.688  28.694   1.299 -0.3407 -0.0007 -0.0761
96485W        W39579  11.624  32.459   4.615 -0.1564  0.0068  0.0267
96486W        W39580  15.157  31.484  30.387  0.0424  0.0279 -0.0439
96487W        W39581  11.348  31.454   1.081  0.0066 -0.1237  0.0735
96488W        W39582  12.125  30.667   2.616 -0.1281  0.0298 -0.0516
96489W        W39583  14.061  28.910   2.036 -0.3478  0.2062  0.3943
96490W        W39584  12.988  30.175  30.947  0.0222 -0.1758 -0.0759
96491W        W39585  11.641  30.337   3.411 -0.0248  0.0922 -0.0578
96492W        W39586  12.705  32.385   1.486  0.0824 -0.1278 -0.2720
96493W        W39587  12.695  31.519   3.516 -0.0665 -0.2470  0.1917
96494W        W39588  12.830  34.106   2.637  0.0447 -0.1160  0.1224
96495W        W39589  10.354  29.342   1.777 -0.1700  0.0871 -0.0063
96496W        W39590  14.186  30.750   1.363 -0.0600 -0.1398  0.2161
96497W        W39591  13.073  30.397   3.646 -0.1296  0.0505  0.3879
96498W        W39592  13.495  30.103   1.397 -0.2405 -0.0450 -0.1123
96499W        W39593  12.123  32.380   0.739 -0.0403  0.1381  0.0704
96500W        W39594  13.470  29.985  31.832  0.2011 -0.0809  0.1765
96501W        W39595  12.706  31.576   1.557 -0.1985  0.0733  0.1958
96502W        W39596  11.058  30.217   2.472  0.0516 -0.1895 -0.0178
96503W        W39597  11.835  30.877  31.305 -0.4202  0.0862 -0.1450
96504W        W39598  13.580  29.712   2.323  0.0125 -0.3171  0.1519
96505W        W39599  12.349  30.371  31.848 -0.2921 -0.2796 -0.2118
96506W        W39600  12.992  32.668   4.487 -0.1997 -0.3406 -0.0123
96507W        W39601  12.745  29.131   0.975  0.1928 -0.0072  0.0749
96508W        W39602  12.864  29.983   0.533  0.5571 -0.1470 -0.3427
96509W        W39603  11.765  31.712   1.300 -0.2495  0.0872 -0.0052
96510W        W39604  11.359  31.049   2.988 -0.0497  0.0106  0.1605
96511W        W39605  14.440  32.459   3.447  0.1566  0.0464 -0.3504
96512W        W39606  11.045  30.189   1.985 -0.1514  0.2255 -0.1610
96513W        W39607  15.027  29.792   0.444 -0.1872  0.1457  0.2541
96514W        W39608  14.413  29.118   0.775 -0.3936 -0.0777  0.0787
96515W        W39609  14.391  33.339   0.319  0.2181 -0.0773 -0.1539
96516W        W39610  14.419  29.197   1.797  0.1426  0.1015  0.1490
96517W        W39611  13.088  31.457   1.117  0.2071  0.2378 -0.2898
96518W        W39612  10.208  29.939   3.222 -0.0733 -0.2248  0.0362
96519W        W39613  14.284  32.631   0.938 -0.0794  0.1206 -0.0828
96520W        W39614  14.089  31.761   2.201 -0.1261  0.1753  0.1101
96521W        W39615  11.853  30.467   0.313  0.0882 -0.0232 -0.0055
96522W        W39616  11.363  31.089   0.761 -0.0092 -0.1139 -0.1227
96523W        W39617  12.792  33.731   2.162 -0.0404  0.0521 -0.2705
96524W        W39618  14.491  29.721   0.317  0.0346  0.1236 -0.1600
96525W        W39619  13.192  30.904   2.399 -0.2774 -0.0322 -0.2614
96526W        W39620  13.731  31.636  30.741  0.0317 -0.1626  0.1031
96527W        W39621  14.014  30.448   2.805  0.3206  0.1085  0.0710
96528W        W39622  13.754  32.540   1.950 -0.0204 -0.0915  0.0444
96529W        W39623  12.818  32.032   3.409 -0.0630  0.1209  0.4666
96530W        W39624  10.813  32.069   0.555  0.2314 -0.1099 -0.4544
96531W        W39625  12.286  31.512   2.139 -0.1475 -0.1546  0.0230
96532W        W39626  12.271  30.355   1.723 -0.2040  0.1474  0.0956
96533W        W39627  13.413  31.686   0.461 -0.0658 -0.1207  0.1379
96534W        W39628  14.109  32.227   2.334 -0.4054 -0.0058  0.0407
96535W        W39629  13.619  29.431   0.668  0.3459 -0.0982  0.1316
96536W        W39630  13.918  29.299   1.780 -0.0843 -0.2430  0.0397
96537W        W39631  12.061  29.005   1.882 -0.3759 -0.0797  0.1876
96538W        W39632  13.766  29.889   0.782 -0.0392  0.0344 -0.0789
96539W        W39633  13.726  30.341  31.560  0.3010  0.3286  0.1564
96540W        W39634  12.254  31.598   2.669  0.0035 -0.0039 -0.0913
96541W        W39635  11.352  31.346   0.142 -0.0617  0.1613 -0.0740
96542W        W39636  12.842  32.153  31.848  0.0167 -0.0434  0.2309
96543W        W39637  12.549  32.187   1.070 -0.2679 -0.0451  0.0245
96544W        W39638  14.014  29.670   0.417  0.0298  0.0418  0.1274
96545W        W39639  10.785  29.459   3.762 -0.0101  0.0615  0.1043
96546W        W39640  11.390  32.529   1.898 -0.2538  0.2619  0.1597
96547W        W39641  10.351  30.784   2.367  0.0627 -0.0227  0.0057
96548W        W39642  13.783  32.476  31.277  0.2145  0.0027  0.2011
96549W        W39643  12.362  29.412   1.928 -0.2395  0.1970 -0.2939
96550W        W39644  10.338  29.244   3.934  0.1539 -0.2771 -0.1565
96551W        W39645  12.470  30.938  30.401 -0.1419  0.1884 -0.0310
96552W        W39646  13.838  30.485   0.588 -0.3087  0.1425 -0.2118
96553W        W39647  12.541  30.585   0.996  0.3374  0.0920 -0.0885
96554W        W39648  14.016  31.260   4.570  0.0002 -0.2330 -0.0738
96555W        W39649  10.783  29.783  30.429 -0.2144  0.1811  0.0221
96556W        W39650  13.412  29.702   3.180  0.2288 -0.0240  0.0557
96557W        W39651  12.591  29.617   2.882 -0.0230  0.0608 -0.0199
96558W        W39652  11.920  29.992  31.618 -0.0709  0.2252  0.0353
96559W        W39653  11.882  31.145   2.373  0.1305 -0.2016  0.1003
96560W        W39654  13.036  31.909   1.300 -0.2096 -0.0411  0.0707
96561W        W39655  13.495  33.565  31.974  0.0223  0.1293 -0.0195
96562W        W39656  12.461  30.879   3.089 -0.1194  0.0461  0.0753
96563W        W39657  13.598  33.861   2.004  0.1131  0.1675  0.4528
96564W        W39658  11.869  29.245   2.793 -0.1334 -0.0074 -0.0521
96565W        W39659  13.959  30.742  31.468 -0.0501  0.1336 -0.0201
96566W        W39660  12.351  32.723   2.979  0.0797  0.0750  0.1117
96567W        W39661  13.569  32.846  31.096  0.2525  0.0682 -0.4983
96568W        W39662  14.235  29.408   2.208  0.4076  0.0508  0.1396
96569W        W39663  14.517  30.259   0.276 -0.5732  0.1237 -0.0220
96570W        W39664  12.175  30.424   3.474 -0.2482  0.1076  0.1571
96571W        W39665  12.101  31.562   3.165  0.0386  0.1998 -0.0008
96572W        W39666  13.233  29.619   1.482  0.2346 -0.0376  0.3177
96573W        W39667  12.100  27.451   1.637  0.0255  0.2731  0.1258
96574W        W39668  14.519  30.242  30.706 -0.0643 -0.0292  0.0949
96575W        W39669  14.339  32.911  30.502 -0.1479  0.0303  0.0104
96576W        W39670  12.308  32.142   2.458  0.0520 -0.1972  0.0720
96577W        W39671  12.302  30.615  31.093 -0.4213 -0.1320  0.1012
96578W        W39672  12.930  31.083   2.976 -0.3678  0.0179  0.0602
96579W        W39673  11.903  31.657   1.780 -0.0851 -0.3295 -0.1195
96580W        W39674  12.867  32.874   2.859 -0.0749 -0.0326  0.0780
96581W        W39675  12.565  30.887   0.049  0.2028  0.1300 -0.2174
96582W        W39676  14.397  31.623  30.785  0.0932  0.1739  0.5917
96583W        W39677  14.513  33.816   2.887  0.0727 -0.1035  0.1405
96584W        W39678  13.428  31.974   3.752  0.0919 -0.2615 -0.0073
96585W        W39679  13.452  32.008   3.062 -0.0915 -0.2065 -0.2047
96586W        W39680  13.608  30.676   1.445 -0.1512 -0.0554  0.1275
96587W        W39681  12.614  28.672   1.203 -0.1015 -0.0737 -0.1223
96588W        W39682  11.354  31.675   2.312  0.0367 -0.1101 -0.1819
96589W        W39683  13.139  30.807   0.156  0.0771  0.2669 -0.2266
96590W        W39684  14.345  29.386   1.280  0.1202 -0.1677 -0.1417
96591W        W39685  12.309  30.417   2.955 -0.2038 -0.0125 -0.0965
96592W        W39686  13.059  29.080   0.474 -0.2076  0.0713 -0.0834
96593W        W39687  13.041  33.003   3.625 -0.1097  0.2709 -0.0725
96594W        W39688  11.599  31.463   2.662 -0.0589 -0.0999 -0.0145
96595W        W39689  12.701  31.212   7.070 -0.1300 -0.0519 -0.1095
96596W        W39690  12.448  30.773   5.000 -0.0267 -0.0368  0.3221
96597W        W39691  13.815  29.998   2.721  0.2373 -0.1105 -0.4547
96598W        W39692  13.724  30.316   4.559  0.0534 -0.2416 -0.0770
96599W        W39693  11.944  28.194   4.862  0.1548  0.0817  0.1153
96600W        W39694  14.774  30.853   5.594  0.4488 -0.0814 -0.1963
96601W        W39695  11.921  30.022   6.474  0.2303  0.3422  0.1194
96602W        W39696  13.787  32.915   6.039 -0.1233 -0.1381  0.0471
96603W        W39697  14.202  32.251   6.152  0.2144  0.0463  0.0437
96604W        W39698  12.509  30.113   4.119 -0.1129 -0.0166  0.1741
96605W        W39699  12.350  29.668   6.869 -0.2295 -0.0371  0.0248
96606W        W39700  13.301  30.352   7.918  0.3951  0.0629 -0.1581
96607W        W39701  13.199  29.174   4.918 -0.2247  0.1874  0.0588
96608W        W39702  11.843  28.532   5.485 -0.0679  0.0261 -0.1438
96609W        W39703  13.767  29.742   6.135 -0.1036 -0.0325  0.1815
96610W        W39704  11.170  30.886   5.849 -0.0032 -0.2032  0.1822
96611W        W39705  12.264  30.165   6.820 -0.0495  0.2181  0.0777
96612W        W39706  12.695  30.022   5.952 -0.3236  0.1000  0.0506
96613W        W39707  13.141  31.734   4.851  0.0775  0.1122 -0.1396
96614W        W39708  13.229  29.169   7.185  0.3783 -0.2436  0.4882
96615W        W39709  13.581  29.307   7.992 -0.2925 -0.0612  0.4374
96616W        W39710  14.116  30.812   4.787  0.1295 -0.1490  0.2581
96617W        W39711  11.979  30.822   4.716 -0.1361  0.0276 -0.3973
96618W        W39712  11.968  29.251   5.991  0.2566  0.2613 -0.2018
96619W        W39713  11.613  30.707   7.064  0.3851  0.0661 -0.2593
96620W        W39714  13.284  30.130   4.493  0.0093 -0.2356  0.0200
96621W        W39715  14.742  30.651   6.827 -0.0287  0.1263 -0.1350
96622W        W39716  12.899  30.619   6.386  0.0282 -0.0640  0.0814
96623W        W39717  14.545  32.373   4.576  0.0756  0.0430  0.1930
96624W        W39718  15.445  30.602   6.774  0.2012 -0.0886 -0.0393
96625W        W39719  10.323  31.493   6.567 -0.3140 -0.2856 -0.1347
96626W        W39720  11.304  31.503   5.023 -0.1066 -0.0551  0.1133
96627W        W39721  13.371  31.214   5.988 -0.0377  0.0703  0.2853
96628W        W39722  14.766  31.593   4.996 -0.2154  0.3995  0.3334
96629W        W39723  13.655  31.210   6.677 -0.3135 -0.1932  0.1177
96630W        W39724  12.725  32.738   7.730  0.2873  0.1260 -0.1119
96631W        W39725  11.529  32.478   2.941  0.0428 -0.1944 -0.0016
96632W        W39726  13.741  31.338   7.635 -0.1079 -0.0722 -0.4190
96633W        W39727  11.984  31.570   7.284  0.1610  0.0700  0.2384
96634W        W39728  12.943  30.117   6.374 -0.1499 -0.0845  0.1473
96635W        W39729  12.815  30.306   4.510  0.1648  0.5398  0.0380
96636W        W39730  12.585  31.414   4.016 -0.0045 -0.0313  0.0945
96637W        W39731  13.272  31.272   5.132 -0.2616 -0.0000  0.0498
96638W        W39732  12.763  31.433   6.648 -0.4142 -0.0441  0.0419
96639W        W39733  12.139  31.595   5.909 -0.1539  0.2316  0.0454
96640W        W39734  14.241  28.744   7.466  0.1276  0.1638 -0.1119
96641W        W39735  11.918  32.116   4.426  0.0272  0.0669  0.0477
96642W        W39736  13.085  29.744   2.775  0.0540  0.2025  0.2867
96643W        W39737  12.895  29.791   4.264 -0.1169  0.0864  0.1074
96644W        W39738  13.931  29.908   4.783  0.0644 -0.0305  0.1270
96645W        W39739  12.911  28.298   6.069  0.3611  0.7000  0.1417
96646W        W39740  11.659  32.261   5.368  0.1802 -0.5708  0.0104
96647W        W39741  12.734  28.547   6.543 -0.1608  0.0227  0.2318
96648W        W39742  14.182  31.102   6.870 -0.0152 -0.1010 -0.1107
96649W        W39743  12.979  29.316   4.012  0.0802 -0.1891  0.0134
96650W        W39744  13.730  29.154   6.703 -0.1079 -0.1996  0.3010
96651W        W39745  12.062  31.932   6.284 -0.0361 -0.2112  0.0658
96652W        W39746  11.058  29.998   6.528  0.2413  0.0356  0.2114
96653W        W39747  13.813  32.037   4.173  0.1343 -0.4320 -0.1050
96654W        W39748  15.689  33.393   5.100  0.3147 -0.0551 -0.1263
96655W        W39749  14.413  31.398   4.222  0.1968 -0.1059  0.2655
96656W        W39750  11.622  28.982   5.624 -0.1329  0.0462 -0.1324
96657W        W39751  11.575  31.080   8.470 -0.0381  0.2460  0.2524
96658W        W39752  11.677  30.646   7.541  0.1624 -0.2184 -0.1200
96659W        W39753  12.353  29.265   4.507 -0.3409 -0.2203 -0.1928
96660W        W39754  14.681  31.206   6.915  0.0877  0.0663  0.0786
96661W        W39755  11.388  31.757   8.014  0.0579 -0.2098  0.1580
96662W        W39756  14.389  29.108   3.527 -0.3660 -0.1313  0.0050
96663W        W39757  11.962  32.743   6.069 -0.3455 -0.1287  0.2771
96664W        W39758  15.021  30.467   4.857  0.2107 -0.1009 -0.3013
96665W        W39759  13.068  31.378   2.580 -0.0009  0.0900 -0.1890
96666W        W39760  13.781  28.963   5.170  0.1478 -0.1146  0.0902
96667W        W39761  13.975  28.051   5.711  0.1059  0.0522  0.0246
96668W        W39762  12.206  31.222   4.912 -0.0512 -0.0785  0.1461
96669W        W39763  11.411  30.018   5.584 -0.3062  0.1457 -0.0796
96670W        W39764  14.438  31.601   5.387  0.0363 -0.0703 -0.2050
96671W        W39765  14.347  30.457   3.181  0.7143  0.2167  0.1793
96672W        W39766  12.091  31.037   6.945 -0.0997 -0.2694  0.2870
96673W        W39767  12.527  30.610   7.017 -0.0812 -0.0354 -0.1933
96674W        W39768  13.502  32.064   6.271  0.1550 -0.0430 -0.1460
96675W        W39769  11.762  32.685   5.008 -0.0904 -0.0489 -0.0674
96676W        W39770  10.279  31.151   7.042 -0.3113 -0.1482 -0.0628
96677W        W39771  11.113  31.251   4.658 -0.0507  0.0170  0.2414
96678W        W39772  12.754  28.131   5.642  0.2768  0.1071  0.1198
96679W        W39773  12.067  31.115   5.898 -0.1331 -0.1224  0.3867
96680W        W39774  14.820  29.753   4.775  0.2478 -0.0409  0.1539
96681W        W39775  12.431  30.436   7.500  0.2339 -0.0179  0.1309
96682W        W39776  14.308  29.245   4.076  0.1458 -0.2791  0.0613
96683W        W39777  11.878  31.073   6.519 -0.0431 -0.3863  0.0340
96684W        W39778  14.866  31.684   4.042 -0.3488 -0.0713 -0.2032
96685W        W39779  14.384  29.586   5.660  0.1289 -0.0366 -0.2441
96686W        W39780  12.714  31.336   4.774 -0.0283  0.1658  0.2626
96687W        W39781  11.196  30.618   7.868 -0.0009  0.0082 -0.0496
96688W        W39782  11.924  30.499   5.657  0.3967  0.3434 -0.1099
96689W        W39783  11.127  29.843   7.689  0.2019 -0.0077 -0.0677
96690W        W39784  11.918  29.483   6.890 -0.2032  0.0178  0.4316
96691W        W39785  14.416  31.006   7.487 -0.0662 -0.2683  0.1588
96692W        W39786  11.054  30.213   4.239 -0.0791 -0.1784  0.1671
96693W        W39787  14.010  31.021   5.708  0.0793 -0.0094 -0.0671
96694W        W39788  12.462  29.850   5.042 -0.2545 -0.1133  0.0566
96695W        W39789  11.136  31.404   5.626  0.1425  0.1294 -0.0032
96696W        W39790  13.417  29.563   6.882  0.1498 -0.0873 -0.2794
96697W        W39791  13.806  30.697   5.209 -0.1943  0.2140 -0.2861
96698W        W39792  14.689  32.403   6.054 -0.0865  0.1817  0.1359
96699W        W39793  12.905  32.629   5.339 -0.0572 -0.2234 -0.2420
96700W        W39794  12.232  30.288   6.042  0.0513 -0.0124 -0.1072
96701W        W39795  11.133  30.334   3.489  0.1056  0.2651  0.2783
96702W        W39796  10.410  31.810   5.024 -0.1419  0.0652 -0.0249
96703W        W39797  11.788  32.356   6.633 -0.3571 -0.2143  0.0036
96704W        W39798  11.733  29.623   6.179  0.0798 -0.0669  0.0507
96705W        W39799  13.397  31.762   5.293 -0.0636 -0.0486  0.2471
96706W        W39800  12.587  31.321   6.171 -0.1960  0.1011 -0.0079
96707W        W39801  10.789  31.376   6.704  0.0094  0.1691 -0.1006
96708W        W39802  12.707  29.224   6.584 -0.4468 -0.0824  0.0516
96709W        W39803  14.654  30.050   6.914  0.0449 -0.1190  0.1539
96710W        W39804  13.051  30.081   5.403 -0.2126  0.0850  0.0634
96711W        W39805  11.650  29.504   5.589 -0.3445 -0.0211 -0.2359
96712W        W39806  12.618  33.105   5.766  0.2132 -0.2126  0.1434
96713W        W39807  12.665  32.417   3.715  0.1290  0.3621  0.0857
96714W        W39808   9.982  29.203   6.931  0.0269 -0.0486  0.1564
96715W        W39809  12.466  31.716   5.491  0.1623  0.3021 -0.1839
96716W        W39810  14.575  30.399   5.639 -0.0314  0.2712  0.3582
96717W        W39811  11.959  31.194   7.625  0.3005  0.0195 -0.0712
96718W        W39812  13.184  31.013   7.323 -0.1858 -0.1002 -0.2471
96719W        W39813  10.653  29.932   5.347 -0.2615 -0.0396  0.1601
96720W        W39814  12.357  31.570   6.948 -0.3386  0.1059  0.0682
96721W        W39815  13.283  29.611   4.722 -0.1745 -0.1334  0.2474
96722W        W39816  14.828  28.866   3.584  0.0275  0.0365  0.0891
96723W        W39817  12.937  30.851   6.835  0.0373 -0.1879 -0.0997
96724W        W39818  13.227  31.154   4.635 -0.1229 -0.0293 -0.2920
96725W        W39819  14.532  30.032   3.539  0.3271  0.1703  0.0359
96726W        W39820  14.100  29.596   2.793  0.0694  0.0566  0.0759
96727W        W39821  11.917  32.308   8.726  0.0373 -0.3128 -0.0172
96728W        W39822  12.538  31.873   6.135 -0.1894 -0.1101  0.0162
96729W        W39823  13.373  30.659   6.386 -0.0715  0.2488 -0.2320
96730W        W39824  15.409  29.475   3.996  0.0306  0.4088 -0.1091
96731W        W39825  14.088  31.759   4.626  0.2180 -0.1135  0.1331
96732W        W39826  11.896  31.956   7.615  0.1200  0.0089 -0.2536
96733W        W39827  13.718  30.885   7.364 -0.2093  0.0473  0.0596
96734W        W39828  14.021  32.364   4.493 -0.2343  0.1631  0.0717
96735W        W39829  12.985  29.037   5.359 -0.0382 -0.0314  0.1382
96736W        W39830  12.050  29.317   3.757 -0.2117  0.0017 -0.3301
96737W        W39831  12.848  28.243   4.665 -0.2509 -0.0501 -0.1575
96738W        W39832  10.488  33.212   3.820 -0.3126  0.3092 -0.1488
96739W        W39833  15.434  30.440   6.155  0.5808  0.3093  0.0528
96740W        W39834  13.214  30.425   5.940  0.0050 -0.0272 -0.0506
96741W        W39835  12.569  28.078   8.308  0.2597  0.2426  0.0006
96742W        W39836  13.078  30.470   7.293  0.2199 -0.3442 -0.2021
96743W        W39837  13.611  28.366   4.906 -0.1472 -0.0073 -0.1771
96744W        W39838  12.813  29.591   6.203 -0.1699 -0.1138 -0.1620
96745W        W39839  11.438  30.466   5.764 -0.2632 -0.0386  0.0235
96746W        W39840  12.904  29.718   6.694 -0.3059  0.1502  0.0920
96747W        W39841  11.206  30.484   6.827 -0.0422 -0.2146 -0.1242
96748W        W39842  10.830  32.059   7.268  0.1993 -0.0524 -0.1173
96749W        W39843  13.199  31.397   6.896 -0.2206 -0.1065 -0.0021
96750W        W39844  13.083  32.101   6.031 -0.1453  0.1601  0.1153
96751W        W39845  12.581  29.461   7.871 -0.2529 -0.1157 -0.0211
96752W        W39846  13.571  28.850   4.700 -0.1681 -0.1275 -0.1027
96753W        W39847  11.808  31.665   4.580  0.1755  0.2041  0.3180
96754W        W39848  12.006  30.915   5.226 -0.1018 -0.2678 -0.4339
96755W        W39849  13.472  29.306   5.386  0.0694  0.1474  0.0954
96756W        W39850  13.020  31.555   6.174 -0.1472 -0.0144 -0.0501
96757W        W39851  12.166  30.531   4.119  0.0532 -0.2098 -0.0084
96758W        W39852  13.834  30.672   6.611  0.0392  0.0360 -0.0324
96759W        W39853  12.213  31.035   3.976 -0.2414 -0.2991  0.0030
96760W        W39854  14.104  29.959   5.788  0.0865  0.0929  0.2868
96761W        W39855  10.987  32.380   5.630 -0.3295 -0.0894 -0.2580
96762W        W39856  11.281  29.889   3.831  0.1265 -0.4013 -0.1097
96763W        W39857  12.095  28.920   4.876 -0.1257  0.3605  0.0603
96764W        W39858  14.165  29.193   5.368  0.1402  0.1243 -0.0935
96765W        W39859  14.323  30.122   3.967 -0.3523 -0.1645 -0.3691
96766W        W39860  11.612  30.180   7.012  0.1545  0.4126  0.4276
96767W        W39861  12.898  29.135   6.092 -0.0837  0.0190 -0.1923
96768W        W39862  11.057  32.093   6.097 -0.0354  0.1465  0.1481
96769W        W39863  14.566  29.118   7.584  0.2363  0.1799  0.3121
96770W        W39864  14.004  29.873   4.307  0.0834  0.1019 -0.2518
96771W        W39865  12.390  31.279   8.563  0.0275  0.3284 -0.4210
96772W        W39866  12.194  30.446   9.447  0.0208  0.3067 -0.1463
96773W        W39867  10.653  28.932   5.566 -0.1810 -0.1486 -0.2576
96774W        W39868  13.034  28.690   7.841  0.1234 -0.0350 -0.0910
96775W        W39869  12.400  31.801   4.371 -0.3545 -0.1021 -0.1826
96776W        W39870  10.790  31.275   4.144 -0.1236 -0.1042  0.0515
96777W        W39871  14.239  31.249   6.267 -0.2115 -0.0691  0.2074
96778W        W39872  11.412  31.574   3.703  0.2374 -0.0169  0.2751
96779W        W39873  11.710  31.581   6.332 -0.1606  0.1381 -0.2635
96780W        W39874  12.465  30.130   8.584  0.0811  0.0390 -0.0340
96781W        W39875  13.303  30.935   5.484 -0.1643  0.5033 -0.1197
96782W        W39876  12.074  30.340   5.175  0.1611  0.1556 -0.0573
96783W        W39877  12.194  29.409   4.948 -0.4496 -0.0990  0.0988
96784W        W39878  13.359  29.435   6.044 -0.2108 -0.1263 -0.2509
96785W        W39879  14.280  30.797   6.455 -0.0964 -0.1994 -0.0032
96786W        W39880  14.147  30.145   7.267 -0.0969 -0.1854 -0.4227
96787W        W39881  11.468  31.967   8.864  0.3003  0.0377  0.0219
96788W        W39882  12.199  28.700   7.389  0.1221 -0.2164 -0.1210
96789W        W39883  14.068  31.391   3.420 -0.1230  0.1825 -0.0612
96790W        W39884  14.200  29.961   6.269  0.0751 -0.0044 -0.1196
96791W        W39885  11.595  30.938   5.623  0.1010  0.1455  0.0893
96792W        W39886   9.842  31.126   7.902 -0.2863 -0.2193 -0.2271
96793W        W39887  12.099  31.394   5.385  0.0251  0.1129  0.0728
96794W        W39888  12.660  29.114   7.513  0.0760 -0.1169 -0.0194
96795W        W39889  10.637  30.758   7.492  0.0698 -0.0590 -0.0427
96796W        W39890  12.887  31.564   5.263  0.2707  0.0756 -0.2908
96797W        W39891  11.359  31.914   7.266  0.0418 -0.1596  0.2073
96798W        W39892  12.637  28.979   3.232  0.1172  0.0928 -0.0898
96799W        W39893  13.301  30.700   3.303  0.0880  0.1352 -0.1875
96800W        W39894  14.059  28.585   6.908  0.0285  0.2401  0.1168
96801W        W39895  13.247  28.853   6.763 -0.2127 -0.0811  0.0459
96802W        W39896  14.005  29.164   3.167  0.0330  0.2199 -0.2391
96803W        W39897  12.567  28.768   7.879  0.2632 -0.1819 -0.0208
96804W        W39898  12.131  29.392   5.458 -0.1828 -0.0076 -0.0262
96805W        W39899  12.978  30.931   5.869 -0.2352 -0.0938 -0.2112
96806W        W39900  12.101  29.929   7.269 -0.0703  0.2724 -0.1485
96807W        W39901  12.878  32.145   7.979  0.4701  0.0891 -0.0584
96808W        W39902  11.454  31.740   6.832 -0.2984 -0.0724  0.0994
96809W        W39903  12.885  29.900   4.779  0.2294  0.3033  0.0387
96810W        W39904  11.772  29.624   3.058  0.2185  0.1872 -0.0379
96811W        W39905  12.455  30.927   6.643  0.2535  0.2153  0.3217
96812W        W39906  14.530  30.344   6.363  0.0003  0.1959  0.0488
96813W        W39907  13.827  30.304   4.088  0.1332  0.2002  0.1709
96814W        W39908  13.678  30.213   5.865  0.0881  0.0795 -0.0613
96815W        W39909  10.849  30.816   5.375 -0.2007  0.0200  0.1136
96816W        W39910  14.847  31.086   4.210  0.3295  0.1034  0.1809
96817W        W39911  12.003  29.834   4.767  0.2109  0.0503  0.0244
96818W        W39912  11.531  31.134   6.081 -0.2118  0.1363  0.0546
96819W        W39913  13.466  28.950   7.624 -0.0484  0.2549  0.1226
96820W        W39914  12.911  30.562   5.475 -0.1649  0.0096 -0.2621
96821W        W39915  13.923  29.604   5.351 -0.0375  0.0242 -0.0690
96822W        W39916  12.442  28.919   6.176 -0.4287 -0.1592 -0.0688
96823W        W39917  14.601  30.575   7.788 -0.0587  0.1577 -0.1893
96824W        W39918  13.245  29.280   6.511  0.2098 -0.0941  0.0030
96825W        W39919  10.677  29.403   6.473 -0.2117 -0.2175  0.1488
96826W        W39920  13.455  32.747   6.540 -0.2640  0.0448  0.1508
96827W        W39921  13.403  30.575   4.214 -0.2108 -0.0300 -0.1283
96828W        W39922  14.227  29.227   6.620  0.4519  0.0408  0.0753
96829W        W39923  14.635  30.114   4.467 -0.1860  0.0866  0.0549
96830W        W39924  13.167  30.328   4.928 -0.1497 -0.0729  0.0858
96831W        W39925  12.516  29.691   5.518  0.2277 -0.2618  0.0047
96832W        W39926  13.448  30.827   6.923 -0.3227 -0.1003  0.0539
96833W        W39927  12.144  29.813   3.809  0.0795  0.2273  0.1689
96834W        W39928  11.693  30.052   7.470 -0.0112 -0.3653 -0.1657
96835W        W39929  13.086  32.190   4.620 -0.0794  0.1799 -0.3311
96836W        W39930  14.151  30.121   6.759 -0.1294 -0.0419  0.1898
96837W        W39931  14.253  29.643   3.678  0.1371 -0.1164 -0.2856
96838W        W39932  12.714  28.820   5.753 -0.0902  0.3568  0.0403
96839W        W39933  11.910  31.538   7.977  0.2116  0.2825  0.1724
96840W        W39934  11.424  30.630   3.884 -0.0392  0.0799  0.0184
96841W        W39935  12.205  32.506   3.447  0.2658 -0.4840 -0.1199
96842W        W39936  13.637  31.382   5.545 -0.1433  0.1803 -0.0095
96843W        W39937  14.438  31.477   7.253  0.1262  0.0566  0.0258
96844W        W39938  14.000  29.286   4.488 -0.1616  0.2052  0.1473
96845W        W39939  13.665  28.845   7.117  0.1469 -0.0597  0.2768
96846W        W39940  12.104  32.121   5.379 -0.0133 -0.0469  0.0015
96847W        W39941  14.211  29.497   6.189 -0.0308  0.1300  0.4195
96848W        W39942  12.585  32.420   6.264 -0.0816  0.3976 -0.0849
96849W        W39943  11.336  32.920   7.425 -0.3605 -0.0103  0.2201
96850W        W39944  11.942  32.514   7.391 -0.0987 -0.2133 -0.1430
96851W        W39945  12.428  28.433   5.980  0.0468 -0.3183  0.0451
96852W        W39946  13.194  29.883   5.953 -0.2273 -0.0013 -0.3805
96853W        W39947  12.703  30.545   5.937 -0.1571  0.0087  0.0385
96854W        W39948  13.992  31.762   7.170 -0.2729  0.0049 -0.1869
96855W        W39949  12.394  31.818   7.859 -0.0677 -0.2556  0.1008
96856W        W39950  11.102  30.421   6.193 -0.2167  0.1556  0.2526
96857W        W39951  14.004  32.784   7.404 -0.0237  0.0098  0.2277
96858W        W39952  14.980  31.484   5.451 -0.1454 -0.1096 -0.1250
96859W        W39953  11.323  31.655   6.064  0.0057 -0.2267 -0.1150
96860W        W39954  11.595  30.133   8.354 -0.1236 -0.5478  0.2190
96861W        W39955  13.298  30.371   6.775 -0.2834  0.0506 -0.1867
96862W        W39956  12.493  30.268   5.582  0.1574 -0.2231  0.2141
96863W        W39957  11.878  28.433   4.005 -0.2191 -0.0918 -0.2766
96864W        W39958  13.000  31.635   3.082  0.2172 -0.2634  0.0230
96865W        W39959  10.924  32.432   8.439  0.0190  0.2855  0.2724
96866W        W39960  11.454  30.213   7.888  0.0619  0.2892  0.2638
96867W        W39961  11.892  33.263   4.013 -0.2165  0.1901  0.0316
96868W        W39962  13.577  31.072   4.270  0.0019  0.2354 -0.0515
96869W        W39963  12.942  30.867   5.053 -0.0411 -0.0620 -0.2886
96870W        W39964  12.880  32.604   5.911 -0.1317  0.0943 -0.0547
96871W        W39965  11.741  30.733   4.265 -0.2017 -0.2799 -0.2423
96872W        W39966  11.030  31.219   6.289 -0.2141 -0.1773  0.4779
96873W        W39967  11.295  32.568   5.230 -0.1386 -0.2451 -0.0782
96874W        W39968  13.692  32.029   4.716  0.2562  0.0076 -0.2267
96875W        W39969  11.630  32.060   5.973  0.0954  0.0383  0.1961
96876W        W39970  14.418  31.978   7.127  0.1819  0.1309  0.4630
96877W        W39971  13.822  30.076   5.238  0.0616  0.0353  0.0771
96878W        W39972  14.336  30.748   5.323 -0.0511  0.1571 -0.0962
96879W        W39973  13.701  28.760   3.031 -0.3878  0.0367  0.5186
96880W        W39974  12.282  31.946   7.315 -0.0714  0.0105  0.0204
96881W        W39975  11.203  30.999   6.914 -0.0412 -0.1994  0.0124
96882W        W39976  14.222  28.213   4.123 -0.0571 -0.0237 -0.3082
96883W        W39977  10.787  31.161   7.209 -0.3938 -0.2526  0.0847
96884W        W39978  15.421  28.753   7.052  0.0557 -0.2072 -0.1285
96885W        W39979  11.189  32.759   8.224  0.0091  0.0744 -0.0439
96886W        W39980  14.879  32.136   4.245  0.3809  0.3455  0.1356
96887W        W39981  12.998  28.497   5.451 -0.2942  0.5075 -0.2242
96888W        W39982  10.998  30.177   5.759 -0.1830 -0.1416  0.1016
96889W        W39983  13.637  30.212   6.394 -0.0780  0.1291 -0.2996
96890W        W39984  12.514  31.876   3.887  0.0365 -0.3212 -0.0192
96891W        W39985  13.750  29.391   4.907 -0.0372 -0.0591 -0.1341
96892W        W39986  13.327  31.691   5.822  0.1082 -0.0276 -0.2276
96893W        W39987  11.429  32.533   6.201 -0.1809  0.0758 -0.4821
96894W        W39988  12.505  31.470   7.500 -0.1352  0.3524  0.0353
96895W        W39989  12.497  29.585   3.447  0.1762 -0.0165  0.2162
96896W        W39990  13.983  30.504   6.073 -0.3697  0.3944 -0.0436
96897W        W39991  12.755  29.351   7.046 -0.1748 -0.2987  0.1204
96898W        W39992  14.482  29.117   5.751 -0.1230  0.0299  0.0501
96899W        W39993  10.676  29.001   6.134  0.0684  0.1960 -0.1393
96900W        W39994  14.269  29.872   5.285  0.3102  0.1597 -0.0845
96901W        W39995  12.582  29.948   7.254 -0.2007 -0.0104  0.1559
96902W        W39996  12.066  31.066   8.157  0.0075 -0.1055  0.0910
96903W        W39997  13.860  29.957   3.792 -0.2820  0.0996  0.0191
96904W        W39998  16.000  32.041   7.266 -0.0969 -0.0756  0.2881
96905W        W39999  12.165  31.101   3.410  0.0064 -0.1478 -0.3213
96906W        W40000  11.446  32.074   6.434 -0.0804  0.0049 -0.1562
96907W        W40001  12.214  29.423   6.424  0.2579 -0.0429 -0.4172
96908W        W40002  12.023  30.081   4.318 -0.1725 -0.0826  0.1220
96909W        W40003  11.500  30.238   6.466  0.0445  0.0469 -0.0782
96910W        W40004  12.493  30.424   6.469  0.1454 -0.2052 -0.1756
96911W        W40005  13.524  31.568   6.311 -0.3840 -0.1907 -0.1615
96912W        W40006  11.927  28.779   6.180  0.1258 -0.1740  0.2589
96913W        W40007  14.018  31.201   3.934 -0.2204 -0.2725 -0.0314
96914W        W40008  14.330  31.431   5.840 -0.0244 -0.1436  0.1132
96915W        W40009  11.346  32.868   4.594 -0.1473 -0.1837  0.0560
96916W        W40010  14.636  30.721   4.775  0.0774  0.1440 -0.1612
96917W        W40011  13.818  31.142   5.011  0.3954  0.0856 -0.1255
96918W        W40012  11.264  29.538   6.373  0.1672 -0.4023  0.0664
96919W        W40013  12.616  32.203   5.804 -0.2143  0.1850  0.3169
96920W        W40014  14.465  31.757   6.214  0.1444 -0.1331  0.1722
96921W        W40015  14.449  29.389   4.930 -0.0353 -0.1096  0.1272
96922W        W40016  12.496  30.820   5.653  0.0728  0.1788  0.0512
96923W        W40017  10.852  33.254   4.765  0.0650  0.4830 -0.0466
96924W        W40018  15.445  31.329   4.520  0.0303  0.1709 -0.2738
96925W        W40019  13.367  29.790   6.450  0.0925 -0.1555 -0.1085
96926W        W40020  13.126  31.238   3.405 -0.1879  0.0748  0.0592
96927W        W40021  14.203  28.937   6.135 -0.2930  0.1097 -0.0075
96928W        W40022  13.595  30.765   5.836  0.0855  0.2137  0.2542
96929W        W40023  12.412  30.970   7.376  0.0611 -0.1371 -0.1128
96930W        W40024  10.597  31.139   3.630  0.2490  0.2658  0.1680
96931W        W40025  12.340  29.475   7.328  0.1516 -0.2073  0.1365
96932W        W40026  12.151  31.349   4.368  0.2540  0.3361 -0.0574
96933W        W40027  13.196  32.589   4.954  0.3965  0.2839  0.1399
96934W        W40028  14.441  32.076   4.952  0.0230  0.2548 -0.7530
96935W        W40029  12.874  29.325   4.515  0.0192 -0.0547  0.0813
96936W        W40030  13.244  32.285   5.623 -0.0153  0.3460 -0.1985
96937W        W40031  13.494  29.143   4.316 -0.1510 -0.2566  0.1245
96938W        W40032  15.083  28.430   3.535  0.1659 -0.1564 -0.0421
96939W        W40033  13.940  28.631   4.409  0.0659  0.2494 -0.2506
96940W        W40034  11.764  30.698   6.122  0.0901 -0.1016 -0.0356
96941W        W40035  10.878  32.148   5.169 -0.2625 -0.0341  0.0518
96942W        W40036  10.909  31.655   3.738 -0.0528  0.1548  0.0835
96943W        W40037  10.442  30.098   6.305  0.1190 -0.4422 -0.2912
96944W        W40038  13.699  29.937   8.837 -0.2448  0.0053 -0.1185
96945W        W40039  10.716  30.353   6.643  0.0789  0.4063 -0.3205
96946W        W40040  11.064  30.687   7.246  0.1749 -0.1613  0.1231
96947W        W40041  13.007  29.614   5.188 -0.0530 -0.1872 -0.0760
96948W        W40042  12.171  31.710   4.922 -0.0568  0.0350 -0.0490
96949W        W40043  11.089  28.983   5.858  0.0648 -0.3004 -0.3497
96950W        W40044  11.600  29.842   5.138  0.1608  0.1065 -0.1243
96951W        W40045  14.636  31.194   4.671  0.0740 -0.2303 -0.1647
96952W        W40046  14.665  32.894   4.613 -0.1045  0.1958  0.2137
96953W        W40047  12.992  29.451   3.465  0.0305  0.0189 -0.0585
96954W        W40048  14.933  31.370   7.306  0.3706 -0.2223  0.0287
96955W        W40049  10.408  31.558   3.497  0.3417  0.0318 -0.0193
96956W        W40050  12.316  29.040   6.831  0.1651 -0.3040 -0.0327
96957W        W40051  12.490  30.344   8.140  0.0430 -0.0224 -0.1066
96958W        W40052   9.927  29.236   3.622  0.0901 -0.0288  0.1437
96959W        W40053  13.883  29.350   5.800  0.1468  0.1704 -0.3621
96960W        W40054  12.098  32.315   5.848  0.1773 -0.0186  0.2880
96961W        W40055  13.985  33.157   4.696  0.1094  0.0614  0.0605
96962W        W40056  12.037  30.445   7.187  0.0989  0.2236 -0.0767
96963W        W40057  13.023  31.554   7.320 -0.0716  0.1160 -0.1463
96964W        W40058  10.921  30.086   7.040  0.1725  0.1047  0.0535
96965W        W40059  14.207  30.411   4.408 -0.0547 -0.1098  0.6289
96966W        W40060  13.203  31.878   6.578 -0.1765  0.0142  0.0799
96967W        W40061  14.442  30.997   3.848  0.2756  0.1053  0.0152
96968W        W40062  15.236  29.941   4.530 -0.1291 -0.0831 -0.0370
96969W        W40063  12.861  31.800   4.281  0.1448 -0.4649  0.1518
96970W        W40064  11.262  30.269   7.389  0.1116  0.0067 -0.0704
96971W        W40065  11.572  31.600   7.579 -0.0094 -0.1239  0.1199
96972W        W40066  13.450  30.428   5.426 -0.1475  0.0087 -0.1332
96973W        W40067  11.974  29.886   5.458  0.0297  0.0118 -0.0173
96974W        W40068  13.510  30.769   4.747  0.1173 -0.0955  0.1646
96975W        W40069  12.761  31.420   5.745 -0.0533  0.1934 -0.0313
96976W        W40070  11.474  30.818   6.551  0.0146  0.1489 -0.1224
96977W        W40071  13.421  29.239   3.841  0.1393  0.1036 -0.0053
96978W        W40072  12.792  30.197   6.866 -0.1704 -0.0215  0.2177
96979W        W40073  13.124  31.115   6.458 -0.2854  0.1188 -0.1794
96980W        W40074  14.164  30.589   7.014  0.0104  0.0259  0.0078
96981W        W40075  11.677  31.219   4.405  0.0629  0.2239  0.2161
96982W        W40076  13.586  31.505   4.802  0.1478 -0.1061  0.1407
96983W        W40077  13.073  32.894   6.236 -0.1173 -0.0238  0.1893
96984W        W40078  14.026  32.647   8.329  0.0972 -0.3550 -0.3197
96985W        W40079  12.196  31.496   6.394  0.0274 -0.0106  0.4481
96986W        W40080  12.698  30.374   5.007 -0.0794  0.0019  0.1613
96987W        W40081  12.421  29.893   6.359  0.2164  0.2773 -0.2966
96988W        W40082  11.743  29.181   5.159  0.1406 -0.0344 -0.0167
96989W        W40083  11.910  30.507   6.622 -0.0497  0.0662 -0.3150
96990W        W40084  13.780  31.022   6.251  0.0260  0.0460 -0.1051
96991W        W40085  12.147  29.750   5.889  0.3674  0.1306  0.1925
96992W        W40086  14.479  28.759   4.628 -0.3028  0.0134 -0.1068
96993W        W40087  11.525  32.566   8.684  0.1990  0.1144 -0.1768
96994W        W40088  12.474  29.769   4.526 -0.0114  0.2246 -0.1614
96995W        W40089  12.648  32.883   9.964 -0.4330  0.0662  0.2750
96996W        W40090  12.356  29.975  10.168 -0.0123  0.2020  0.0058
96997W        W40091  13.967  29.205   7.668  0.1005 -0.1507 -0.1201
96998W        W40092  14.425  32.265   8.621  0.2363  0.0039  0.0025
96999W        W40093  10.984  30.323   9.419 -0.1754  0.1941 -0.4339
97000W        W40094  13.167  32.824   7.493  0.1207 -0.1115 -0.0483
97001W        W40095  13.540  33.007  10.099  0.1217 -0.1671 -0.1084
97002W        W40096  13.327  32.697  10.544 -0.0089 -0.0923 -0.2455
97003W        W40097  13.020  30.795   8.179  0.0468  0.1648  0.1693
97004W        W40098  12.463  30.452  10.454 -0.0375  0.0813 -0.1760
97005W        W40099  11.354  28.757   7.863 -0.1137 -0.1398  0.0700
97006W        W40100  11.136  28.025   8.780 -0.0002  0.0639 -0.0213
97007W        W40101  13.306  29.276  10.242  0.3094 -0.1929 -0.2162
97008W        W40102  12.977  31.147   8.706  0.4703  0.2570  0.0349
97009W        W40103  10.545  30.535  10.549 -0.1192 -0.0289 -0.0414
97010W        W40104  13.049  30.720   9.143 -0.0762 -0.4944  0.3196
97011W        W40105  11.903  31.668  10.201 -0.1670 -0.1063 -0.0132
97012W        W40106  12.904  30.581  10.048  0.1513  0.0190  0.2334
97013W        W40107  11.513  31.854   9.362  0.1112  0.0792 -0.1629
97014W        W40108  11.747  30.198   9.272  0.1701  0.0741 -0.2187
97015W        W40109  11.526  28.659  10.101  0.0035 -0.1844  0.1597
97016W        W40110  12.828  32.203   9.055  0.0166  0.2413 -0.2223
97017W        W40111  14.540  30.243   8.448 -0.1836 -0.0490 -0.0684
97018W        W40112  14.086  29.905   9.935  0.1061  0.1331 -0.2462
97019W        W40113  12.685  32.645   8.687 -0.2211 -0.0069  0.2922
97020W        W40114  12.439  33.198   8.638 -0.1331 -0.2298 -0.0007
97021W        W40115  13.199  32.106  10.033  0.1017  0.0850 -0.0120
97022W        W40116  11.078  33.222   9.309 -0.1193  0.0790  0.0008
97023W        W40117  12.795  31.592   8.881 -0.1418 -0.1867 -0.0585
97024W        W40118  14.017  32.344   7.194  0.1476 -0.2987 -0.3480
97025W        W40119  10.605  32.569   8.825 -0.0527  0.3012 -0.1868
97026W        W40120  12.838  30.034  10.023 -0.3019 -0.0821  0.0921
97027W        W40121  13.576  31.777   9.899 -0.3011 -0.0427  0.2275
97028W        W40122  11.962  31.744   6.744 -0.2207 -0.2023 -0.1086
97029W        W40123  13.805  31.770   7.981  0.0281  0.2964 -0.3543
97030W        W40124  12.151  31.277   9.529  0.1539 -0.1738 -0.1654
97031W        W40125   9.827  31.942   9.371  0.0648 -0.4084 -0.0340
97032W        W40126  13.675  29.826   7.262 -0.0003  0.0778 -0.2952
97033W        W40127  12.917  30.056   7.589  0.1785 -0.1876  0.1252
97034W        W40128  13.914  30.400   8.680 -0.0653  0.1796  0.0666
97035W        W40129  13.375  28.858   8.188  0.0209  0.0125  0.0088
97036W        W40130  10.827  32.478   9.954  0.0801  0.1870 -0.1835
97037W        W40131  11.505  29.354   9.218 -0.3329  0.2243  0.2646
97038W        W40132  13.983  30.147   7.737 -0.3679  0.0947  0.2677
97039W        W40133  15.031  29.630   9.782  0.0607  0.1999 -0.3115
97040W        W40134  12.240  31.706   8.867  0.4096 -0.0388  0.1045
97041W        W40135  13.648  31.275  10.269 -0.2573 -0.1242 -0.1336
97042W        W40136  14.350  32.531   6.514  0.0796  0.0366 -0.0907
97043W        W40137  13.486  32.840   9.604  0.2869 -0.4320 -0.2082
97044W        W40138  13.494  32.235   6.792  0.1133 -0.0014 -0.1505
97045W        W40139  12.033  30.416   8.420  0.4153 -0.2170  0.2099
97046W        W40140  11.352  29.311   7.657  0.1128  0.1845 -0.0428
97047W        W40141  14.928  29.001   8.666  0.3025 -0.1927 -0.0872
97048W        W40142  14.570  31.466   9.821 -0.5078 -0.3312 -0.0780
97049W        W40143  14.359  31.438  10.445 -0.2552  0.0022 -0.1630
97050W        W40144  13.757  30.151   8.202 -0.0668  0.0241 -0.1135
97051W        W40145  14.120  29.099  10.164 -0.1437  0.1572  0.1190
97052W        W40146  13.994  28.670   9.685 -0.1168 -0.2437 -0.0692
97053W        W40147  12.473  31.365   8.083 -0.3383  0.2543 -0.1668
97054W        W40148  12.695  31.700   8.404  0.0204  0.2309  0.0530
97055W        W40149  11.839  33.242   9.890 -0.1940 -0.1434  0.4022
97056W        W40150  13.173  29.949   7.107 -0.1489  0.0762  0.0801
97057W        W40151  11.395  32.280  10.779 -0.2608 -0.2723 -0.2343
97058W        W40152  11.679  32.920   9.556  0.0927 -0.2372 -0.1080
97059W        W40153  10.384  31.824   9.432 -0.3092 -0.0286  0.0600
97060W        W40154  11.839  31.571   9.104 -0.2547  0.2293 -0.1108
97061W        W40155  12.119  28.146   8.912 -0.0611 -0.1403 -0.3270
97062W        W40156  13.069  31.023  10.353  0.0650 -0.2780  0.0615
97063W        W40157  14.980  29.723   9.286  0.2624 -0.0630  0.3973
97064W        W40158  14.840  27.290   9.310  0.1167  0.0986  0.2168
97065W        W40159  11.275  32.631   9.123  0.1413  0.1487 -0.1199
97066W        W40160  13.957  33.665   7.772 -0.0493  0.2713  0.0230
97067W        W40161  15.022  30.363   8.565 -0.0489 -0.0282  0.0018
97068W        W40162  14.748  30.978   6.382  0.2223 -0.0603 -0.0992
97069W        W40163  11.641  29.304  10.223  0.0936 -0.2295  0.0922
97070W        W40164  12.007  30.501   8.896 -0.1320 -0.0586  0.0799
97071W        W40165  12.385  28.990   9.462  0.0539  0.1249  0.1548
97072W        W40166  11.288  29.255   8.669  0.2109 -0.4359  0.1003
97073W        W40167  14.059  30.972   7.871  0.0735 -0.2305 -0.0864
97074W        W40168  12.873  31.186   9.205 -0.2748  0.0131 -0.1065
97075W        W40169  11.301  31.385   9.203  0.0548 -0.1230 -0.0435
97076W        W40170  11.779  32.084   9.827  0.1412  0.5433 -0.1345
97077W        W40171  15.986  32.376   9.668  0.1903 -0.1675  0.0075
97078W        W40172  14.812  31.062   8.966 -0.1235  0.1109 -0.2194
97079W        W40173  12.607  29.799  10.552 -0.5591  0.1878 -0.2705
97080W        W40174  11.230  29.784   9.276  0.0098 -0.0499  0.2831
97081W        W40175  11.081  32.708   9.635  0.3161 -0.1909 -0.1863
97082W        W40176  14.123  31.625   8.365 -0.0149  0.0691 -0.2240
97083W        W40177  10.890  28.909   8.817  0.2286 -0.1390 -0.1047
97084W        W40178  14.637  33.250  10.074  0.1664  0.0568 -0.2878
97085W        W40179  13.347  30.944   7.801 -0.1789 -0.0157  0.2095
97086W        W40180  15.608  28.449  10.330 -0.1144  0.4044 -0.2081
97087W        W40181  11.715  31.417  10.668 -0.3135  0.1714  0.3606
97088W        W40182  11.932  30.158   7.976 -0.2915  0.0243  0.5257
97089W        W40183  13.391  32.193   8.881 -0.1969  0.3098 -0.1837
97090W        W40184  11.393  31.510   8.705 -0.1284  0.0868 -0.2037
97091W        W40185  11.847  31.209   9.997  0.1143  0.0273  0.0872
97092W        W40186  13.161  32.632   9.160 -0.1321 -0.2687  0.0021
97093W        W40187  15.450  28.474   9.382  0.0848 -0.0119  0.0403
97094W        W40188  11.465  31.117   7.945  0.0434 -0.0660  0.0415
97095W        W40189  13.855  29.000   8.324 -0.0773 -0.2129 -0.0956
97096W        W40190  15.715  30.006   7.847 -0.1670  0.1100  0.2052
97097W        W40191  14.559  31.613   8.203  0.0536 -0.0753 -0.2400
97098W        W40192  13.263  29.276   8.385 -0.0069 -0.0206 -0.3797
97099W        W40193  14.361  27.852   7.958  0.2296  0.0029  0.1765
97100W        W40194  13.171  32.374   8.414 -0.0359  0.1136  0.3674
97101W        W40195  17.666  32.257  10.204  0.1124  0.1090 -0.0643
97102W        W40196  12.884  30.627   7.740  0.0977  0.0952  0.1724
97103W        W40197  13.506  32.472   7.226 -0.1378 -0.1549 -0.2923
97104W        W40198  12.962  32.764   9.570 -0.1518  0.4427  0.0724
97105W        W40199  13.616  32.298   8.042 -0.0714  0.1183  0.2153
97106W        W40200  12.462  28.923   9.958 -0.1692  0.0289  0.2864
97107W        W40201  12.292  31.233   9.032  0.0589  0.1957 -0.1982
97108W        W40202  14.432  29.120   8.472  0.0312 -0.2496 -0.0638
97109W        W40203  11.685  32.732   7.749 -0.0585  0.0766 -0.1083
97110W        W40204  14.686  30.174   9.264 -0.1135 -0.2295 -0.1422
97111W        W40205  14.558  30.968   9.971 -0.3412  0.2666  0.1060
97112W        W40206  14.844  31.363   8.568 -0.2684  0.3423 -0.1927
97113W        W40207  13.035  30.869   9.657 -0.0745 -0.1623 -0.0227
97114W        W40208  12.108  30.692   7.844  0.0944 -0.1738 -0.0775
97115W        W40209  11.764  31.007  10.948 -0.2152  0.0865  0.0106
97116W        W40210  11.199  31.376  10.610 -0.1153  0.0113  0.2494
97117W        W40211  14.174  31.547   7.691 -0.0626  0.2305  0.3417
97118W        W40212  12.788  29.181   8.258 -0.0013  0.1036 -0.0499
97119W        W40213  11.929  31.402   8.627 -0.2755  0.2850 -0.1768
97120W        W40214  11.569  30.619   8.699 -0.0578 -0.0785 -0.1353
97121W        W40215  14.141  27.450  10.446  0.1308  0.2080 -0.0449
97122W        W40216  13.846  32.366   8.837  0.1050  0.3746 -0.0498
97123W        W40217  13.937  31.835   6.338 -0.0165 -0.1212  0.2041
97124W        W40218  13.266  29.799  10.051  0.0111 -0.3743 -0.1096
97125W        W40219  10.533  32.830   9.651 -0.2841 -0.1599 -0.0635
97126W        W40220  16.311  29.939  10.472 -0.1993 -0.0143  0.0625
97127W        W40221  10.670  31.986   9.095  0.0307  0.2314  0.1822
97128W        W40222  13.351  29.931   9.214  0.2106  0.1979 -0.0416
97129W        W40223  12.265  30.056   9.116  0.0365 -0.0082  0.0467
97130W        W40224  13.424  30.574   9.408  0.0508 -0.0315 -0.1039
97131W        W40225  13.767  30.354   7.055  0.1781  0.1332  0.2866
97132W        W40226  11.074  30.398  10.413 -0.0272 -0.1292  0.0219
97133W        W40227  12.565  29.995   9.516  0.0323 -0.2503  0.0419
97134W        W40228  10.672  31.878   9.859 -0.4303  0.3141 -0.2411
97135W        W40229  14.968  29.465   8.782 -0.0796  0.1045 -0.0295
97136W        W40230  11.953  30.019   8.694 -0.1083  0.3117 -0.0468
97137W        W40231  15.646  31.314   9.669 -0.0598  0.2660  0.0869
97138W        W40232  13.598  31.524   9.360 -0.0087  0.1193  0.0636
97139W        W40233  10.862  31.565   9.444  0.1668 -0.2470  0.2754
97140W        W40234  14.388  30.495   9.720 -0.1244  0.0130  0.0168
97141W        W40235  12.523  30.862   9.452  0.1331 -0.2414 -0.1371
97142W        W40236  12.629  32.122   9.537 -0.0742  0.1886  0.0200
97143W        W40237  13.837  31.780  10.331  0.0162  0.3513 -0.0587
97144W        W40238  13.364  30.185   9.763  0.1096  0.2981  0.1076
97145W        W40239  12.262  31.749   9.395  0.0665  0.1756 -0.0965
97146W        W40240  13.779  31.276   8.659 -0.0617 -0.1221  0.1226
97147W        W40241  13.188  30.223  10.319  0.0402  0.4096  0.2322
97148W        W40242  15.410  30.560   9.878 -0.0645  0.1076 -0.1145
97149W        W40243  14.013  27.877   8.979  0.0513  0.1742 -0.0981
97150W        W40244  14.108  32.531   7.825  0.1540 -0.0573  0.1600
97151W        W40245  11.129  31.117   8.832  0.3247 -0.1391 -0.0686
97152W        W40246  13.467  29.992  11.744  0.6414  0.2603  0.0396
97153W        W40247  11.192  31.947   8.467 -0.1884 -0.0107 -0.2242
97154W        W40248  12.938  27.741   9.468  0.2168 -0.4399 -0.3941
97155W        W40249  13.110  31.563  10.292 -0.3795  0.2818 -0.0341
97156W        W40250  11.933  32.073   9.165 -0.0019 -0.1116  0.0797
97157W        W40251   9.630  30.014  10.602 -0.1799 -0.1754  0.0644
97158W        W40252  14.953  27.855   7.212 -0.0290  0.0977  0.0907
97159W        W40253  13.548  31.643   7.282  0.1671 -0.0143 -0.3431
97160W        W40254  14.260  30.051   8.926 -0.0056  0.2677 -0.0475
97161W        W40255  13.865  30.781   8.354  0.1659  0.6922  0.1113
97162W        W40256  10.611  29.749  10.593  0.2015  0.1280 -0.0372
97163W        W40257  13.633  30.778   8.818  0.2421  0.1406 -0.0698
97164W        W40258  13.755  30.292   9.127  0.2296  0.0451  0.1087
97165W        W40259  12.942  28.741   9.105  0.1291  0.0775  0.1881
97166W        W40260  12.593  30.448   9.130  0.1568 -0.2635  0.0790
97167W        W40261  15.045  30.831  10.333  0.0260  0.0718 -0.0294
97168W        W40262  13.412  32.749   8.754  0.1258 -0.2939 -0.0565
97169W        W40263  14.028  29.079   8.853 -0.3520 -0.0435  0.0686
97170W        W40264  10.872  30.965  10.605  0.2948  0.1424 -0.1567
97171W        W40265  14.203  29.015   9.362 -0.2989  0.2597  0.0232
97172W        W40266  13.322  31.416   7.787  0.1089 -0.0753 -0.1842
97173W        W40267  12.676  31.464  10.540 -0.0825 -0.1537 -0.1418
97174W        W40268  14.485  30.383  10.198  0.1799 -0.0926  0.0726
97175W        W40269  14.392  27.960   9.360 -0.3897 -0.0970 -0.2412
97176W        W40270  14.394  31.484   9.220  0.2912 -0.1643  0.2205
97177W        W40271  14.903  30.876   7.274 -0.0062 -0.2322 -0.2134
97178W        W40272  14.894  31.487  10.315  0.0033 -0.1285 -0.1991
97179W        W40273  13.306  30.335   8.898 -0.0015  0.0799  0.5923
97180W        W40274  12.886  30.112   8.930 -0.0682 -0.0724  0.0649
97181W        W40275  10.274  29.242   9.858  0.2494 -0.0214  0.2696
97182W        W40276  12.479  29.992   7.777  0.2137  0.0235  0.0864
97183W        W40277  13.659  31.695   6.792  0.0278  0.2449 -0.1729
97184W        W40278  13.879  30.803   9.395  0.1725  0.1452 -0.1080
97185W        W40279  14.600  30.745   8.334 -0.1440 -0.1614  0.0221
97186W        W40280  10.869  30.765   9.174 -0.3702  0.1024 -0.2597
97187W        W40281  11.812  29.454   7.407 -0.1318  0.1840  0.0014
97188W        W40282  12.931  31.288   8.224  0.0804 -0.2456 -0.3416
97189W        W40283  12.746  32.281  10.103  0.0427  0.0262 -0.3090
97190W        W40284  12.286  29.237   8.246  0.2042  0.1264 -0.0957
97191W        W40285  11.651  31.138   9.483  0.1360 -0.0141  0.2997
97192W        W40286  14.322  28.483   9.331  0.0747 -0.0720 -0.1535
97193W        W40287  11.847  31.630   9.648 -0.5031  0.0438  0.0531
97194W        W40288  11.054  32.224   8.939 -0.1150 -0.2475  0.0783
97195W        W40289  13.922  28.655   9.132 -0.2836 -0.1925  0.0875
97196W        W40290  14.522  29.602   9.998 -0.1305  0.0689  0.1232
97197W        W40291  13.340  31.340   8.983 -0.1157  0.2896  0.0970
97198W        W40292  13.662  32.029   8.501  0.0368  0.1582 -0.1848
97199W        W40293  14.876  29.993   8.825  0.2996  0.2550 -0.0377
97200W        W40294  13.740  31.994   9.290  0.3230  0.3073 -0.1432
97201W        W40295  14.193  30.823   8.699 -0.2625 -0.1638  0.1887
97202W        W40296  11.431  28.524   9.465  0.0734 -0.2482 -0.0127
97203W        W40297  12.905  30.630   8.669 -0.0642  0.1533  0.1275
97204W        W40298  11.699  31.080   8.958  0.0846  0.1647  0.3154
97205W        W40299  12.482  32.442   8.133  0.0043 -0.2546  0.0188
97206W        W40300  13.253  31.912   8.143 -0.4264 -0.1440  0.0121
97207W        W40301  13.408  30.564   8.431 -0.0974  0.3472 -0.2330
97208W        W40302  13.269  33.766   9.127  0.3520 -0.2104 -0.3456
97209W        W40303  13.018  30.254   8.341 -0.1837 -0.4665 -0.3199
97210W        W40304  12.767  31.175   9.956 -0.1080 -0.0119  0.3752
97211W        W40305  11.045  31.946   7.685 -0.0760  0.1658 -0.2398
97212W        W40306  12.758  31.884   6.958  0.0358 -0.3775 -0.1289
97213W        W40307  12.172  32.721  10.112  0.0023 -0.0005  0.3239
97214W        W40308  14.837  28.257   7.988  0.0832  0.0740 -0.1856
97215W        W40309  14.852  30.710   9.275 -0.2019  0.0876 -0.2086
97216W        W40310  14.647  29.394   9.514  0.1917  0.0477  0.0690
97217W        W40311  12.474  30.341   9.853 -0.0472 -0.0960 -0.1169
97218W        W40312  12.037  29.643   7.806 -0.0214 -0.2474 -0.0653
97219W        W40313  12.987  33.522   8.210  0.1685 -0.2326 -0.3322
97220W        W40314  11.840  29.071   8.547 -0.0810 -0.1589  0.1164
97221W        W40315  13.387  31.066   9.363 -0.0230  0.2309 -0.0436
97222W        W40316  12.481  33.039  10.505 -0.2102  0.2223  0.2463
97223W        W40317  13.531  32.762   8.254 -0.0497  0.0339 -0.0671
97224W        W40318  13.321  29.364   9.707  0.2084 -0.0596 -0.2029
97225W        W40319  11.496  33.114   9.097  0.2122  0.1791 -0.0016
97226W        W40320  12.030  31.914  10.691 -0.1955  0.2027  0.0909
97227W        W40321  13.178  32.294   9.484 -0.2508  0.0956 -0.1347
97228W        W40322  12.033  30.405  10.032 -0.0757 -0.0686 -0.2891
97229W        W40323  15.393  29.434   9.203  0.0700  0.2560  0.1436
97230W        W40324  12.671  30.663  10.848  0.1393 -0.4683 -0.1346
97231W        W40325  13.245  31.203   9.961 -0.2303 -0.2318  0.0832
97232W        W40326  15.186  28.587   7.622 -0.0452  0.1161 -0.1885
97233W        W40327  13.435  30.674  10.003 -0.1093  0.2179  0.0919
97234W        W40328  10.342  29.347  11.380  0.0597 -0.1689  0.0077
97235W        W40329  12.495  30.838   8.811  0.0192  0.3868 -0.0715
97236W        W40330  13.375  29.775   7.694  0.1957  0.1262 -0.1046
97237W        W40331  12.682  29.639   9.143  0.0816  0.0784  0.2111
97238W        W40332  13.751  30.568   7.905 -0.0245  0.2875 -0.0650
97239W        W40333  11.984  30.859   9.316  0.0392  0.2740  0.1039
97240W        W40334  12.093  29.449   9.882  0.0488 -0.3244 -0.0385
97241W        W40335  10.091  29.098   8.781  0.0323 -0.2800  0.2293
97242W        W40336  14.661  31.524   7.710  0.3957 -0.0694 -0.1582
97243W        W40337  13.855  30.302   9.652 -0.1687  0.0329  0.1683
97244W        W40338  12.792  32.905   7.188  0.2192  0.1313 -0.3098
97245W        W40339  14.712  31.108   9.506 -0.3348  0.3334  0.0206
97246W        W40340  13.124  31.654   9.667  0.1247 -0.2199  0.2301
97247W        W40341  11.784  29.742   9.264 -0.1934 -0.2340  0.0018
97248W        W40342  15.020  31.860   9.446  0.0275  0.0406  0.1911
97249W        W40343  13.551  32.261  10.434 -0.0039 -0.2531 -0.1404
97250W        W40344  13.690  29.801   9.565  0.1772 -0.1077 -0.3593
97251W        W40345  12.098  29.898   9.711 -0.2997 -0.0535  0.1796
97252W        W40346  11.829  33.752   9.133  0.1090  0.2201  0.1406
97253W        W40347  13.621  29.158   9.402 -0.0789 -0.4506 -0.3340
97254W        W40348  12.724  33.494   7.267 -0.2679  0.2285  0.0034
97255W        W40349  12.072  31.244  11.378  0.0774 -0.1181  0.1096
97256W        W40350  10.631  30.616   8.161  0.0200 -0.1432  0.0823
97257W        W40351  12.363  32.277   8.875  0.0150 -0.1069 -0.3689
97258W        W40352  11.990  32.414   9.528 -0.0415 -0.3631 -0.0063
97259W        W40353  15.975  30.636   8.322  0.2688  0.2647 -0.2604
97260W        W40354  13.355  31.075   8.440  0.1035  0.2651 -0.1391
97261W        W40355  13.872  31.215   9.151  0.1099 -0.2511 -0.4172
97262W        W40356  12.884  29.185   9.352 -0.1480 -0.0558 -0.2707
97263W        W40357  15.692  28.665   8.311 -0.1150 -0.5531  0.1335
97264W        W40358  13.874  29.721   7.999 -0.2015  0.2678  0.0488
97265W        W40359  12.434  28.404  10.052 -0.0503 -0.0889 -0.0524
97266W        W40360  11.394  29.964   8.885  0.1919 -0.1872  0.2513
97267W        W40361  12.023  30.880   8.616  0.2647 -0.0881  0.1022
97268W        W40362  12.392  31.890  10.332  0.0869 -0.0615  0.1634
97269W        W40363  11.515  31.396  11.170  0.0188  0.1061  0.1980
97270W        W40364  11.248  28.720   8.441  0.1042  0.1235 -0.0107
97271W        W40365  13.730  31.216   8.158  0.1958 -0.2798  0.3880
97272W        W40366  13.619  29.479   8.710  0.1179 -0.1030  0.2644
97273W        W40367  12.277  29.608   8.692  0.0666 -0.1797  0.2235
97274W        W40368  12.300  32.030   8.425 -0.0558 -0.0541  0.1667
97275W        W40369  14.647  31.855   8.787  0.0151  0.1618 -0.1780
97276W        W40370  12.776  29.593   8.498  0.0054  0.1561 -0.2033
97277W        W40371  11.094  31.452   8.303 -0.3046 -0.0921  0.1361
97278W        W40372  11.969  28.412   7.667 -0.0255  0.0583 -0.4862
97279W        W40373  13.148  31.785   9.205  0.0675 -0.1133  0.1043
97280W        W40374  12.896  32.973   8.199 -0.0151  0.1350  0.0299
97281W        W40375  13.156  32.553   7.960 -0.4660  0.1175 -0.0446
97282W        W40376  10.089  29.798  10.433  0.0022  0.0391 -0.0344
97283W        W40377  15.207  30.272   9.209 -0.1252  0.1848 -0.2535
97284W        W40378  15.473  31.338   8.343  0.2407  0.0620  0.0328
97285W        W40379  15.653  29.407   9.663 -0.1371 -0.2294 -0.4217
97286W        W40380  14.310  31.329   8.764  0.0073 -0.0317 -0.0568
97287W        W40381  15.885  30.165  10.342 -0.0369  0.0216 -0.2435
97288W        W40382  13.010  29.796   9.548  0.1019  0.4206 -0.1973
97289W        W40383  14.217  30.458   8.097  0.2510  0.0045 -0.1863
97290W        W40384  13.269  31.925   7.653  0.0449 -0.0036 -0.1252
97291W        W40385  11.010  29.505  10.403  0.1997  0.0879 -0.1110
97292W        W40386  13.341  29.765   8.211  0.0026  0.0446 -0.1477
97293W        W40387  13.872  32.594  10.109  0.0521 -0.1395 -0.0840
97294W        W40388  13.214  29.817   8.761 -0.4650 -0.0554 -0.0187
97295W        W40389  15.063  30.732   7.963 -0.2640  0.3048  0.2688
97296W        W40390  15.592  33.481  10.014  0.2424  0.2478 -0.2466
97297W        W40391  14.176  33.441   8.228 -0.1824 -0.1140  0.0243
97298W        W40392  14.175  29.910   9.410  0.0522  0.0278 -0.0305
97299W        W40393  11.954  29.183   9.448  0.2160 -0.0051 -0.0488
97300W        W40394  13.434  31.559   8.431  0.2110 -0.3408  0.3819
97301W        W40395  14.105  32.094   8.192 -0.2264 -0.1259  0.0635
97302W        W40396  13.699  30.179  10.162 -0.1477 -0.0292  0.0774
97303W        W40397  12.919  30.375   9.558 -0.0675  0.1503 -0.0062
97304W        W40398  13.770  29.309   7.190  0.2739  0.1982 -0.0471
97305W        W40399  11.488  31.863  10.498 -0.2168  0.0098  0.4516
97306W        W40400  14.015  30.635   9.995 -0.2339 -0.3016 -0.0629
97307W        W40401  10.931  33.987  31.814  0.0406 -0.1363  0.2120
97308W        W40402  13.033  32.422   1.073  0.4478  0.2906  0.1157
97309W        W40403  14.497   0.336   1.221  0.0316 -0.0718  0.0753
97310W        W40404  10.393  34.592   1.488  0.0764 -0.2024 -0.1438
97311W        W40405  12.293  31.914   3.422  0.0894  0.4857 -0.0562
97312W        W40406  13.417  33.214  31.456 -0.0755  0.0516  0.0085
97313W        W40407  14.433  32.921   3.694  0.3716 -0.2170  0.1511
97314W        W40408  14.894  33.418   1.880 -0.0777  0.0741 -0.0359
97315W        W40409  10.842  32.373   3.332 -0.1226 -0.1058 -0.1572
97316W        W40410  14.485   0.035   1.598 -0.0725 -0.0197 -0.0246
97317W        W40411  11.734  33.768  31.555 -0.1705 -0.1467  0.2560
97318W        W40412  11.745  33.473   0.785  0.2338  0.0100 -0.1793
97319W        W40413  11.402  33.851   0.608  0.0160 -0.0663  0.1046
97320W        W40414  12.045  33.530   1.593 -0.1169 -0.2874  0.0027
97321W        W40415  12.816  32.507   3.199 -0.1744  0.0082  0.2829
97322W        W40416  11.169  33.538  31.708 -0.0671 -0.0016 -0.1226
97323W        W40417  10.474  33.665   1.948  0.0949  0.0524  0.1155
97324W        W40418  12.375  34.364   2.696 -0.0051 -0.2217  0.0121
97325W        W40419  13.600  32.477   3.896  0.1868  0.0114  0.1109
97326W        W40420  14.028   0.066   1.852  0.1877 -0.1815 -0.3809
97327W        W40421  13.041  33.921   4.363  0.0788  0.2585 -0.0259
97328W        W40422  13.627  34.000   2.629  0.1125  0.0917 -0.2471
97329W        W40423  13.717  34.470   2.777 -0.1045 -0.0652  0.3796
97330W        W40424  15.565  33.244   3.651  0.1391 -0.1956  0.0769
97331W        W40425  14.085  34.298   0.342 -0.1263 -0.1482 -0.1591
97332W        W40426  11.371  34.613  30.714 -0.0242  0.4109 -0.0913
97333W        W40427  11.977  34.052  31.004 -0.0964 -0.0654  0.0897
97334W        W40428  12.448  32.904   1.988  0.0992  0.1133 -0.1441
97335W        W40429  12.693  34.315   1.035 -0.1429 -0.0209  0.0578
97336W        W40430  12.082   1.003   0.986  0.1051  0.0465 -0.1305
97337W        W40431  14.801   0.556   2.197 -0.0095  0.0451  0.0965
97338W        W40432  11.734  33.336   2.469  0.0688  0.1106  0.0692
97339W        W40433  14.375  34.375   1.860 -0.1012 -0.3286 -0.0735
97340W        W40434   9.606   0.476   3.776 -0.1835 -0.2086 -0.0078
97341W        W40435  12.937   0.019   2.482 -0.0308  0.1430  0.0260
97342W        W40436  13.020  32.773  31.525  0.1285 -0.2284 -0.0212
97343W        W40437  14.563  33.505   1.429  0.1801  0.1888  0.1120
97344W        W40438  14.050  33.959   2.105 -0.0345 -0.0238 -0.0269
97345W        W40439  13.902  31.908   1.286  0.0901 -0.2740 -0.0076
97346W        W40440  14.859  34.537  31.915  0.3235  0.0731  0.3054
97347W        W40441  12.790  34.549   2.927 -0.1272 -0.3323  0.1607
97348W        W40442  11.271  33.651   2.326 -0.2935  0.3065  0.2401
97349W        W40443  14.359  33.967  31.653  0.0850  0.1424 -0.0173
97350W        W40444  11.195  33.134   2.527 -0.1313  0.2380 -0.3041
97351W        W40445  14.442  32.184   1.241  0.1860 -0.1337  0.3035
97352W        W40446  15.579  33.517   1.619  0.1606  0.1952 -0.4635
97353W        W40447  12.106  34.265   2.202 -0.1546 -0.0752 -0.0318
97354W        W40448  12.112  33.623   1.054 -0.2906  0.0746 -0.0340
97355W        W40449  13.103  32.198   4.071 -0.0181  0.0745  0.1265
97356W        W40450  10.720  33.749   3.175  0.0942  0.1849 -0.2602
97357W        W40451  14.465  34.114   3.498 -0.0535  0.0778  0.1215
97358W        W40452  11.308  33.338   0.915 -0.0345 -0.0066 -0.2349
97359W        W40453  13.283  33.726   2.996 -0.0934 -0.2862  0.0050
97360W        W40454  11.052  33.721   1.882 -0.1533  0.3233 -0.0579
97361W        W40455  14.584  34.421   3.879 -0.0835  0.0086  0.2170
97362W        W40456  12.007  33.101   2.822 -0.0474 -0.1919 -0.1592
97363W        W40457  10.558  33.606   0.712 -0.2582 -0.2693  0.3931
97364W        W40458  12.229  33.446   0.629 -0.4853 -0.1799 -0.1520
97365W        W40459  13.913  32.864   2.942  0.2440 -0.4430  0.1822
97366W        W40460  14.001   1.468   1.931 -0.2014  0.0286  0.1684
97367W        W40461  12.395  31.792  31.434 -0.1362  0.2032 -0.1868
97368W        W40462  10.798  33.888   2.323  0.1011 -0.2251 -0.0311
97369W        W40463  13.475  34.191   3.144  0.1396  0.0535  0.2107
97370W        W40464  12.108  33.648   2.641 -0.1576 -0.1076 -0.1147
97371W        W40465  13.630  33.950   4.462  0.2793  0.2490 -0.2101
97372W        W40466   9.979  33.757   2.172 -0.1181  0.1707 -0.0396
97373W        W40467  14.615  33.912   1.213 -0.2181 -0.2036  0.1933
97374W        W40468  14.903  33.300   0.586  0.0261  0.1080 -0.0290
97375W        W40469  13.609  33.042   0.591  0.0235 -0.0946  0.3172
97376W        W40470  14.645  32.966  31.624  0.0717  0.4017  0.1580
97377W        W40471  13.380  33.519  31.027 -0.1660 -0.1761 -0.2901
97378W        W40472  14.575  33.464   3.686  0.3680  0.0418  0.0741
97379W        W40473  13.015  33.548   0.211 -0.0614 -0.0672 -0.0411
97380W        W40474  12.346  32.223   0.179 -0.0011 -0.0079 -0.0229
97381W        W40475  14.949  31.828   2.775 -0.1644  0.5079 -0.1186
97382W        W40476  13.693  34.616   1.513  0.2835  0.0097  0.0972
97383W        W40477  12.990  32.649   2.446 -0.2849 -0.3382 -0.1449
97384W        W40478  14.069   0.076   2.899 -0.1542 -0.0929  0.2841
97385W        W40479  13.589  34.461   0.231 -0.0787 -0.2128 -0.1221
97386W        W40480  13.686   1.868   3.126  0.0224 -0.0408  0.4032
97387W        W40481  13.129  34.651  31.227  0.0523  0.2294 -0.2468
97388W        W40482  13.756  33.742   3.163  0.0599  0.0794 -0.5076
97389W        W40483  13.334  33.933   3.556  0.1597 -0.1872  0.0083
97390W        W40484  13.422  33.837   0.927  0.0025  0.2115 -0.0859
97391W        W40485  13.509  32.959   3.644  0.0980 -0.0507 -0.0581
97392W        W40486  14.188  32.947   1.374  0.0688  0.0182 -0.1169
97393W        W40487  11.254  33.399   1.430 -0.0836  0.0206  0.0090
97394W        W40488  11.216   0.505   0.660 -0.0385  0.1869  0.0881
97395W        W40489  13.908  33.003   1.959 -0.0661  0.1254  0.0355
97396W        W40490  12.646  33.387   0.959  0.2730  0.1955  0.0926
97397W        W40491  12.274  33.111  31.898  0.0913  0.1362 -0.0957
97398W        W40492  13.109   1.045   2.769 -0.0251 -0.1629  0.3587
97399W        W40493  13.418  32.921   1.933 -0.1368 -0.1897 -0.2040
97400W        W40494  13.485   0.082   2.406  0.1148  0.0832 -0.2311
97401W        W40495  10.336  34.348   0.334  0.3474 -0.2920 -0.1192
97402W        W40496  15.112   0.184   2.359 -0.0515  0.0569  0.1825
97403W        W40497  13.101  32.968   0.511 -0.4455 -0.2881 -0.0882
97404W        W40498  12.760  33.876  31.232 -0.4207 -0.1475  0.0070
97405W        W40499  13.137  33.337   3.982  0.1672  0.1446  0.0593
97406W        W40500  13.167  33.779   2.486 -0.3249 -0.2357 -0.0131
97407W        W40501  11.970  33.417   0.176  0.1684  0.0937 -0.0086
97408W        W40502  13.772   0.511   2.300 -0.1048  0.1051  0.1143
97409W        W40503  14.901  32.637   3.529  0.0098  0.0687  0.0717
97410W        W40504  12.652  33.376   1.457 -0.2778  0.2982 -0.0816
97411W        W40505  14.258  34.538   3.317 -0.1744 -0.0205 -0.0181
97412W        W40506  14.101  34.089   3.040  0.1311  0.1891 -0.2821
97413W        W40507  15.366  32.890  31.510 -0.0152 -0.2480  0.1722
97414W        W40508  13.036  33.959   1.815  0.1007  0.2388  0.2077
97415W        W40509  15.516  31.390   1.936  0.0627  0.2344 -0.1942
97416W        W40510  12.455  34.149  31.666 -0.2762  0.1949 -0.0529
97417W        W40511  13.953  32.776   4.227  0.1181 -0.1523  0.0725
97418W        W40512  12.182  33.106   3.293  0.1088 -0.1221  0.0455
97419W        W40513  11.623  34.622   1.792  0.0970  0.3190 -0.0427
97420W        W40514  11.743  33.312   3.260 -0.0784 -0.1936  0.2706
97421W        W40515  14.100   0.021   1.288 -0.1469  0.1230 -0.2254
97422W        W40516  13.308  32.045   0.822 -0.1765  0.1789  0.2813
97423W        W40517  12.204   0.761   2.072 -0.0697 -0.2310  0.0768
97424W        W40518  13.160   1.422   2.463  0.1106  0.2244  0.2066
97425W        W40519  12.558  33.913   1.332 -0.0539 -0.0537 -0.1755
97426W        W40520  14.449  33.552   0.783 -0.2734 -0.2111  0.0004
97427W        W40521  12.737  31.732   2.543  0.2003 -0.0705  0.0053
97428W        W40522  13.925  34.247   1.754 -0.2621  0.0298  0.3155
97429W        W40523  13.260  32.820   3.183 -0.2552 -0.0306 -0.1199
97430W        W40524  13.516   0.942   3.164  0.0849  0.0277 -0.1127
97431W        W40525  13.249  32.799   4.057  0.0166  0.0662  0.0394
97432W        W40526  12.854  32.968   4.910  0.1455 -0.0848  0.0265
97433W        W40527  14.615  33.135   1.084 -0.0264 -0.0599 -0.0810
97434W        W40528  13.545  33.481   2.593 -0.0698  0.2172  0.0610
97435W        W40529  13.989  33.365   2.780 -0.0522 -0.1282 -0.0606
97436W        W40530  13.403  33.487   1.784 -0.2317  0.1993  0.1335
97437W        W40531  11.361  33.143   2.035 -0.0745  0.1039 -0.2748
97438W        W40532  14.240  34.067   3.960  0.1628 -0.0551  0.1414
97439W        W40533  14.011  32.454   1.304  0.0080  0.0864  0.1647
97440W        W40534  13.198  32.484   3.592 -0.1726  0.0632  0.1828
97441W        W40535  13.551   0.233   1.941  0.1276  0.0153 -0.0299
97442W        W40536  11.749  34.105   1.838 -0.0312 -0.2159 -0.0473
97443W        W40537  12.460  33.412  31.184 -0.0168 -0.2418 -0.1234
97444W        W40538  13.540  32.762  31.615  0.0862  0.1735  0.0997
97445W        W40539  12.439  31.510   0.591  0.1138  0.0957 -0.0551
97446W        W40540  15.143  32.566   2.534  0.0233 -0.0534  0.1898
97447W        W40541  14.314  33.262   1.812 -0.3210 -0.2135 -0.1204
97448W        W40542  13.865  33.253   3.386 -0.0934 -0.0084  0.1259
97449W        W40543  13.752  34.400   2.233 -0.0041  0.0200  0.4208
97450W        W40544  12.837   0.851   2.319 -0.0698  0.0758 -0.2408
97451W        W40545  14.535   0.160   2.699 -0.1636 -0.1751 -0.1861
97452W        W40546  12.402  33.951   2.404  0.0265 -0.0864 -0.4358
97453W        W40547  11.089  33.892   2.802 -0.1335  0.2838  0.3301
97454W        W40548  13.094  32.599   0.001  0.0881  0.1058 -0.0841
97455W        W40549  10.629  33.509   1.257  0.1817  0.2203 -0.3215
97456W        W40550  14.225  33.825   0.410  0.1259  0.0536  0.3100
97457W        W40551  14.964   0.706   0.459 -0.0198 -0.3793 -0.1311
97458W        W40552  13.696  33.985   0.296  0.0048 -0.1354 -0.0628
97459W        W40553  11.663  34.383   1.314  0.1267 -0.4055  0.1640
97460W        W40554  13.249  33.748  31.520 -0.2791 -0.0932 -0.0939
97461W        W40555  11.540  33.610   4.194  0.2690 -0.0144  0.1115
97462W        W40556  14.906  33.198   3.443 -0.0645 -0.1046 -0.1320
97463W        W40557  11.475  33.337   0.408  0.0611 -0.0108  0.0580
97464W        W40558  13.444  33.537   0.532  0.0610 -0.2030  0.2333
97465W        W40559  15.591  32.429   3.101 -0.2530 -0.3045 -0.5212
97466W        W40560  14.060   0.117   2.333 -0.0052 -0.0785 -0.1395
97467W        W40561  10.586  33.944   0.253 -0.0638  0.1131  0.0835
97468W        W40562  14.736  33.745   0.384  0.2800  0.2761 -0.4102
97469W        W40563  11.553   0.112   2.231  0.2716  0.0306  0.1480
97470W        W40564  14.402  30.676   1.829 -0.1654 -0.2182 -0.0650
97471W        W40565  12.935  33.343   1.852  0.1279 -0.1569 -0.2561
97472W        W40566  14.141   0.263   0.070 -0.0926 -0.0842 -0.1864
97473W        W40567  12.523  33.807   4.022  0.0402  0.0021 -0.1236
97474W        W40568  12.639  33.193   0.474 -0.1821 -0.0724 -0.3124
97475W        W40569  14.691   0.096   4.332 -0.2576  0.1937 -0.0378
97476W        W40570  12.701   0.006  30.866  0.1729  0.0028  0.0695
97477W        W40571  12.213  32.832   0.378  0.0642  0.0433  0.1333
97478W        W40572  10.928  34.437  31.574 -0.1448 -0.2397 -0.0106
97479W        W40573  11.834  34.012   0.891  0.0613 -0.0540  0.1566
97480W        W40574  13.014  33.801   3.869  0.4433  0.0169 -0.0320
97481W        W40575  12.550  32.014   0.607 -0.2259 -0.0043 -0.0947
97482W        W40576  15.194  33.103   2.457 -0.3264  0.2770 -0.0549
97483W        W40577  14.802   0.742   1.576 -0.2761 -0.0932  0.2357
97484W        W40578  11.323  34.122   1.621 -0.4284 -0.3430 -0.0494
97485W        W40579  13.189  32.878   1.016 -0.1416 -0.1305 -0.0813
97486W        W40580  12.550  32.866   3.594 -0.2193 -0.2196 -0.3141
97487W        W40581  14.051  33.431   2.248  0.3370 -0.1940  0.1380
97488W        W40582  14.864  33.976   3.729  0.1453  0.1200  0.3483
97489W        W40583  12.705  33.483   3.667  0.1602  0.1589 -0.1914
97490W        W40584  13.992  34.569   0.786  0.3223 -0.0525  0.0529
97491W        W40585  13.227  33.255   2.296 -0.1896  0.1092  0.2634
97492W        W40586  14.526  33.928   1.720  0.2495 -0.1379  0.3128
97493W        W40587  13.833  33.597   0.838  0.1014 -0.1413  0.0309
97494W        W40588  12.472  34.006   2.990  0.1260  0.0525 -0.2339
97495W        W40589  10.712  34.582   1.111 -0.3441  0.1608  0.1782
97496W        W40590  12.276  32.487   5.117 -0.0942  0.1038 -0.1929
97497W        W40591  12.128  33.619   3.713 -0.1967 -0.1161  0.1801
97498W        W40592  12.364  34.023   0.863  0.2706  0.1033  0.0363
97499W        W40593  12.571  32.607   0.801 -0.1941  0.0020  0.3267
97500W        W40594  12.688  33.207   2.345 -0.2687 -0.0121  0.0914
97501W        W40595  12.293  33.040   1.012  0.0337  0.0524 -0.2868
97502W        W40596  12.756  34.287   2.156 -0.1724  0.6925 -0.0401
97503W        W40597  13.623  33.963   5.057  0.0279  0.1081 -0.0769
97504W        W40598  13.057  31.713   3.862  0.1966  0.0631 -0.0943
97505W        W40599  10.620  32.289   0.096 -0.3199 -0.0548  0.3947
97506W        W40600  13.465  34.434   3.627 -0.1092 -0.2295 -0.2496
97507W        W40601  11.072  33.218   3.106  0.0117 -0.3008 -0.1372
97508W        W40602  16.075  31.339   2.804 -0.0201  0.0564  0.1805
97509W        W40603  13.260  33.383   0.974  0.1914 -0.1015  0.0080
97510W        W40604  12.858  33.194   3.209 -0.2309  0.0042  0.0108
97511W        W40605  12.490  32.411   2.002  0.0334 -0.1242 -0.0198
97512W        W40606  14.910  33.539   1.014 -0.1286 -0.0272 -0.1741
97513W        W40607  12.945  34.153   3.171 -0.0043  0.3020 -0.3673
97514W        W40608  14.422   0.481   1.826 -0.0053 -0.1110  0.0129
97515W        W40609  14.039  33.716   1.597 -0.2862  0.1295 -0.3998
97516W        W40610  11.539  34.279  31.331 -0.1432 -0.1167 -0.1226
97517W        W40611  12.904   0.596   0.635 -0.1086 -0.0974 -0.1302
97518W        W40612  12.748  32.240   2.738 -0.1765  0.3841 -0.2194
97519W        W40613  13.323   0.153  30.738  0.3293 -0.1082  0.1854
97520W        W40614  13.642  33.528   1.339  0.1499  0.0346  0.0574
97521W        W40615  13.932   1.123   1.471  0.1684  0.4129 -0.1904
97522W        W40616  14.135  33.441   1.185  0.2865  0.0155  0.0553
97523W        W40617  13.321  32.547   0.682  0.0706  0.0850  0.1297
97524W        W40618  11.728  33.263   4.765  0.0439 -0.1102  0.3870
97525W        W40619  15.058  34.409   3.620  0.2032 -0.0131  0.2365
97526W        W40620  13.707  33.950   3.956  0.0917 -0.1863  0.3078
97527W        W40621  12.167  32.958   4.889  0.0116 -0.1100 -0.1452
97528W        W40622  11.230  32.587   6.671  0.3609 -0.0909 -0.1198
97529W        W40623  14.214   0.484   2.665  0.0416  0.2709  0.0670
97530W        W40624  12.371  34.006   6.005 -0.2670 -0.2255  0.0736
97531W        W40625  12.587  31.196   5.289  0.5250  0.1262  0.0181
97532W        W40626   9.884  33.215   7.537  0.0420 -0.0912  0.1789
97533W        W40627  13.658  34.332   6.472 -0.0602  0.0756  0.1234
97534W        W40628  10.931   0.290   4.301 -0.1338  0.0134 -0.0997
97535W        W40629  11.488  32.303   7.543  0.0179  0.1684  0.1181
97536W        W40630  12.341  33.483   5.962  0.5014 -0.1622 -0.2100
97537W        W40631  12.756  32.838   6.606 -0.0553  0.0264  0.0200
97538W        W40632  12.264  32.789   7.758 -0.0645 -0.1452  0.1199
97539W        W40633  12.204  33.193   2.346  0.2190  0.0044 -0.0887
97540W        W40634  11.289  33.341   5.692 -0.1409  0.0612 -0.2879
97541W        W40635  11.564  33.900   7.437 -0.0741 -0.0653 -0.1815
97542W        W40636  14.194  33.638   5.611  0.0021 -0.3305 -0.2160
97543W        W40637  14.147   0.162   5.530  0.3004 -0.0329  0.3310
97544W        W40638  14.043  33.461   6.702 -0.1063  0.0116  0.0561
97545W        W40639  13.485  33.376   5.706  0.2893  0.3055  0.1899
97546W        W40640  13.285  33.721   5.353 -0.1088 -0.2373  0.0787
97547W        W40641  14.215  34.652   6.318  0.0198 -0.0740  0.0856
97548W        W40642  15.294  32.911   3.916  0.1076  0.0136 -0.0286
97549W        W40643  12.227   0.172   3.084  0.0417  0.1675 -0.2183
97550W        W40644  14.835  33.335   4.393  0.3313  0.0324  0.0155
97551W        W40645  10.613  32.150   4.704  0.1753  0.1906  0.2047
97552W        W40646  13.054  33.684   6.832  0.0141  0.1601  0.0244
97553W        W40647  13.747  33.466   5.282  0.1381  0.2046  0.2940
97554W        W40648  14.401  33.260   6.397  0.0065  0.0295 -0.1710
97555W        W40649  10.925  33.535   5.325 -0.0387  0.2109 -0.2947
97556W        W40650  10.970  34.042   4.129 -0.0971 -0.1138  0.0611
97557W        W40651  10.437   0.342   7.055  0.4262 -0.1255 -0.1759
97558W        W40652  11.164  33.680   6.618 -0.0082 -0.0968 -0.0066
97559W        W40653  11.079  32.687   3.000  0.2291 -0.0533  0.3179
97560W        W40654  14.181  32.716   5.476 -0.1089  0.1785 -0.2778
97561W        W40655  14.229  32.808   6.040 -0.0249 -0.2735  0.1596
97562W        W40656  15.020  32.535   5.473  0.0880 -0.0134 -0.4070
97563W        W40657  15.280  34.459   3.151 -0.0502 -0.1426  0.1089
97564W        W40658  12.327  32.924   6.999  0.2262 -0.2811 -0.0668
97565W        W40659  11.501  32.564   5.704  0.0844  0.2811  0.1095
97566W        W40660  14.548  33.761   4.213  0.2517  0.0781 -0.2815
97567W        W40661  10.915  32.705   7.470  0.2098 -0.2440 -0.2747
97568W        W40662  14.948  32.100   4.754  0.1423  0.2988 -0.0656
97569W        W40663  15.388   0.438   3.957  0.1221 -0.1563  0.0193
97570W        W40664  10.421  32.871   6.903  0.3195 -0.0596  0.1744
97571W        W40665  12.359  33.477   5.402  0.0057 -0.0111  0.2310
97572W        W40666  11.268  33.485   7.580 -0.0821  0.1656 -0.1519
97573W        W40667  11.642  33.036   5.790 -0.2760  0.1675 -0.0129
97574W        W40668  14.590  33.718   7.919  0.0629 -0.0093  0.0144
97575W        W40669  11.778  32.462   4.116 -0.1614  0.0524 -0.1721
97576W        W40670  13.498  32.673   5.417  0.2161 -0.1746 -0.1205
97577W        W40671  13.037  33.136   4.431  0.0105 -0.1085 -0.0889
97578W        W40672  14.500  33.700   8.702  0.0905  0.1966 -0.0551
97579W        W40673  11.456  32.269   8.099  0.2780  0.2682 -0.1429
97580W        W40674  12.657  32.391   4.733 -0.0214 -0.0382 -0.0145
97581W        W40675  12.154  32.518   4.655 -0.0067 -0.3147 -0.3166
97582W        W40676  13.223  32.824   6.967 -0.1000 -0.0933  0.1660
97583W        W40677  12.496  34.460   4.791 -0.0110 -0.0907  0.3717
97584W        W40678  12.547  33.981   3.459  0.0255 -0.2023  0.2821
97585W        W40679  11.436  33.084   5.124 -0.1693 -0.3591  0.0939
97586W        W40680  14.596  34.189   6.175  0.3749  0.0384 -0.2718
97587W        W40681  10.291  34.568   6.026 -0.1761  0.3327 -0.0858
97588W        W40682  13.071  33.949   7.239 -0.0700 -0.1635  0.2416
97589W        W40683  11.835  32.925   4.444  0.2040  0.0241  0.3438
97590W        W40684  13.627  33.164   4.266 -0.0940 -0.1173 -0.0290
97591W        W40685  14.500  34.427   2.924 -0.3210 -0.1195 -0.1177
97592W        W40686  13.343  33.421   3.418 -0.0632  0.0149  0.0462
97593W        W40687  13.567  32.615   4.413 -0.1966 -0.1538  0.2126
97594W        W40688  13.432  32.968   4.735 -0.1662  0.0219  0.1169
97595W        W40689  12.061  33.974   7.166 -0.0144 -0.1873  0.1735
97596W        W40690  12.454  34.283   4.304 -0.2807  0.2234 -0.1182
97597W        W40691  11.664  31.567   5.721 -0.2831 -0.0376 -0.0722
97598W        W40692  14.061  33.897   6.394  0.1029  0.0050 -0.2237
97599W        W40693  13.080  32.374   6.520  0.1440 -0.3445 -0.0218
97600W        W40694  11.688  31.805   8.385 -0.0089  0.1337  0.2574
97601W        W40695  14.000  33.405   6.162 -0.0581 -0.0971 -0.0295
97602W        W40696  15.150  34.180   4.605 -0.3847 -0.0971  0.1199
97603W        W40697  13.116   0.420   5.619  0.1274 -0.2281  0.4562
97604W        W40698  12.434  33.895   1.837  0.1207 -0.0871 -0.0520
97605W        W40699  14.528  33.718   6.544 -0.2374  0.1543  0.0664
97606W        W40700  13.592  33.725   6.589 -0.1273 -0.2076  0.0459
97607W        W40701  13.335  33.145   5.244 -0.2269  0.1135 -0.2689
97608W        W40702  11.759  32.153   7.091  0.0312  0.1480 -0.2655
97609W        W40703  13.164  33.207   6.621  0.1340  0.0941  0.2251
97610W        W40704  12.703  33.468   4.342 -0.3726 -0.1482 -0.2034
97611W        W40705  10.434  34.037   4.143 -0.0742 -0.0520 -0.2339
97612W        W40706  14.780  33.323   5.609 -0.2896 -0.2284 -0.1988
97613W        W40707  11.848  33.272   6.732  0.2212 -0.1293  0.3074
97614W        W40708  13.534  33.214   6.344 -0.1613 -0.3879 -0.0109
97615W        W40709  13.518  33.693   7.193  0.0171  0.0440 -0.0802
97616W        W40710  13.621  32.275   5.155  0.1089  0.2859 -0.0505
97617W        W40711  11.940  33.472   7.487 -0.0309 -0.3165  0.1326
97618W        W40712  11.336  32.115   4.988  0.1313  0.1247 -0.0785
97619W        W40713  13.813  34.663   5.886 -0.0762  0.0488 -0.0862
97620W        W40714  12.926  33.569   6.286 -0.0445 -0.0123 -0.1196
97621W        W40715  12.842  33.671   3.208 -0.1823  0.0100  0.1435
97622W        W40716  12.053  34.068   6.664  0.1107  0.0938 -0.2116
97623W        W40717  13.274  34.222   5.506 -0.1513  0.4018 -0.2348
97624W        W40718  13.326  34.340   4.544 -0.1401  0.0724 -0.0263
97625W        W40719  12.665  34.569   6.250  0.1367  0.1215  0.2046
97626W        W40720  13.197  33.954   6.360 -0.2244 -0.0737 -0.0910
97627W        W40721  12.159  33.059   5.683  0.0233 -0.0281 -0.3743
97628W        W40722  12.731  34.007   6.413 -0.1118 -0.1811  0.0866
97629W        W40723  13.011  34.297   4.928  0.1957 -0.0452  0.4631
97630W        W40724  15.118  32.744   4.868  0.1201  0.1196  0.0629
97631W        W40725  14.048  33.677   4.949 -0.2669 -0.1236 -0.0033
97632W        W40726  14.757  32.945   6.144 -0.2725 -0.0437 -0.1232
97633W        W40727  15.504   0.064   4.428 -0.0257  0.1239  0.1388
97634W        W40728  16.037  32.401   5.898  0.2275 -0.0161  0.0208
97635W        W40729  12.664  31.855   4.833  0.3402  0.2070  0.0645
97636W        W40730  10.294  33.850   6.577  0.1671  0.1880 -0.1113
97637W        W40731  12.302  33.591   9.146  0.1436  0.1210 -0.1486
97638W        W40732  13.243  32.945   5.705  0.2861  0.2717  0.1711
97639W        W40733  11.862  32.704   3.198  0.2147 -0.0353  0.2619
97640W        W40734  12.338   0.117   7.125 -0.0953  0.0026  0.1640
97641W        W40735  14.791  33.779   4.709  0.0282  0.0235 -0.0166
97642W        W40736  11.093   0.988   7.332  0.0101  0.2200  0.0569
97643W        W40737  13.233  33.860   4.802 -0.0570 -0.0376 -0.3893
97644W        W40738  11.652  32.727   6.955  0.2931 -0.1129  0.0715
97645W        W40739  12.919  31.915   5.565  0.0005  0.2594 -0.0173
97646W        W40740  14.016  33.470   7.248 -0.1421  0.1462  0.1125
97647W        W40741  13.546   0.107   6.314  0.2115  0.1857  0.3079
97648W        W40742  12.332  34.204   8.464 -0.3987  0.1250 -0.1812
97649W        W40743  10.916  33.708   9.424  0.1608 -0.3702 -0.3132
97650W        W40744  14.929  33.313   2.835 -0.2293  0.1511 -0.0917
97651W        W40745  14.763  32.968   5.196 -0.0254  0.1837  0.1074
97652W        W40746  14.902  34.376   5.156  0.2365 -0.1679  0.0800
97653W        W40747  14.257  33.229   5.242  0.0115  0.1734 -0.2351
97654W        W40748  11.969  32.647   5.482  0.0888 -0.0453 -0.2238
97655W        W40749  14.700  34.422   7.262  0.0500 -0.1768 -0.0604
97656W        W40750  14.054  33.670   3.710 -0.0429  0.0137  0.0089
97657W        W40751  13.824  32.689   6.870 -0.1528  0.2235  0.0592
97658W        W40752  13.846  33.074   5.598  0.0101  0.2073  0.1347
97659W        W40753  10.343  33.205   4.725  0.1256 -0.0803 -0.1140
97660W        W40754  11.481  32.999   2.906 -0.3311 -0.1088  0.0733
97661W        W40755  13.722  34.677   3.282 -0.0172 -0.1782 -0.0782
97662W        W40756  12.662  32.392   4.239 -0.1140  0.0690  0.4000
97663W        W40757  14.543  32.082   6.593  0.1027  0.0437 -0.3404
97664W        W40758  12.155  32.453   6.908 -0.3707 -0.0241  0.1414
97665W        W40759  12.492  32.486   7.333 -0.3370 -0.1130 -0.0241
97666W        W40760  14.091  34.096   5.218  0.1421 -0.1749  0.1725
97667W        W40761  14.057  34.043   5.901  0.0009 -0.3233  0.1854
97668W        W40762  14.332  34.227   6.617  0.1069  0.0357 -0.2074
97669W        W40763  10.367  34.523   7.212  0.1143  0.3221 -0.2232
97670W        W40764  11.875  33.007   7.358 -0.1927  0.4020 -0.1042
97671W        W40765  12.525  33.030   5.256 -0.3814  0.2809  0.2033
97672W        W40766  10.980  33.147   3.978 -0.2224  0.0956  0.1366
97673W        W40767  14.398  31.965   4.011  0.2586  0.1678 -0.2825
97674W        W40768  13.613   0.532   5.920 -0.0606 -0.1812  0.1512
97675W        W40769  15.187  33.429   4.012  0.1369 -0.0828 -0.2506
97676W        W40770  14.161  34.038   4.438 -0.3916 -0.2800 -0.2011
97677W        W40771  13.113  32.156   5.169 -0.1033  0.0015  0.0347
97678W        W40772  10.638  33.973   7.825 -0.1553 -0.1344  0.3277
97679W        W40773  14.475  32.821   8.114 -0.0994 -0.0183  0.0933
97680W        W40774  12.552  32.865   4.527  0.2580  0.0784 -0.1804
97681W        W40775  11.363  34.454   6.017 -0.2544 -0.0353 -0.3420
97682W        W40776  14.241  31.919   5.732  0.4536 -0.2576 -0.3202
97683W        W40777  14.569  32.285   5.588 -0.4094 -0.0592  0.0241
97684W        W40778  10.599  33.227   5.214 -0.0496 -0.0841  0.0404
97685W        W40779  15.358  34.110   3.850 -0.1670  0.0103 -0.3415
97686W        W40780  11.800  34.209   6.037 -0.1346  0.5214 -0.2939
97687W        W40781  12.683  32.401   6.806  0.0087 -0.0777 -0.0380
97688W        W40782  13.305  34.687   5.778 -0.3467 -0.0545 -0.1449
97689W        W40783  13.939  33.584   4.249  0.2205 -0.0182 -0.1948
97690W        W40784  12.193  33.491   7.011 -0.0409 -0.1579  0.1512
97691W        W40785  13.601  33.442   3.829  0.0065  0.1194  0.1109
97692W        W40786  13.914   1.020   5.764  0.3388 -0.1038  0.0039
97693W        W40787  13.379  33.551   4.386  0.3399  0.0018 -0.1118
97694W        W40788  12.439  32.617   5.603  0.2520 -0.0479  0.0669
97695W        W40789  13.690  33.885   5.592 -0.2377 -0.2113  0.0346
97696W        W40790  12.219  32.711   4.081  0.0611 -0.0966  0.3154
97697W        W40791  12.511  34.688   7.588 -0.1550 -0.0886  0.0781
97698W        W40792  10.376  33.278   6.181  0.0729 -0.0461  0.1055
97699W        W40793  13.208  33.828   5.853 -0.1361 -0.5505 -0.3223
97700W        W40794  14.739  34.426   5.658  0.0734  0.2206 -0.1996
97701W        W40795   9.909  32.883   6.966  0.0314  0.1498 -0.2567
97702W        W40796  13.610  33.441   4.821  0.3197 -0.3281  0.1252
97703W        W40797  12.058  33.644   4.953  0.1525  0.0290 -0.1789
97704W        W40798  14.377  33.220   5.846  0.1669 -0.1668 -0.2768
97705W        W40799  13.395  32.543   6.051 -0.0032 -0.2151  0.2271
97706W        W40800  15.038  31.849   7.337 -0.4531 -0.1829 -0.0653
97707W        W40801  12.741  33.737   5.199 -0.4199  0.1155  0.2365
97708W        W40802  13.013  33.292   5.915  0.0980 -0.2063  0.1693
97709W        W40803  14.800  33.305   4.887  0.2899  0.2311 -0.1032
97710W        W40804  14.091  32.448   3.944 -0.1230  0.0401 -0.2202
97711W        W40805  11.570  33.334   7.182 -0.0142  0.3268 -0.2367
97712W        W40806  10.187  34.270   2.950  0.1341  0.0551  0.1922
97713W        W40807  12.408  33.615   6.474  0.1421 -0.3690  0.0448
97714W        W40808  11.897  33.478   5.746 -0.0709  0.0692  0.1745
97715W        W40809  11.629  33.819   4.631  0.3167  0.0882  0.0024
97716W        W40810  12.548  33.314   4.846 -0.2813 -0.0556  0.0095
97717W        W40811  11.930  32.180   4.892 -0.4478  0.2525  0.3212
97718W        W40812  10.724  31.696   5.379 -0.0372  0.1977 -0.2153
97719W        W40813  12.939  33.327   5.412  0.2919 -0.0831 -0.2171
97720W        W40814  12.506  34.214   7.838  0.0427  0.1328 -0.1039
97721W        W40815  12.479  33.900   7.430 -0.1011 -0.0848  0.1287
97722W        W40816   9.774  32.999   5.316  0.0994 -0.2265 -0.3098
97723W        W40817  12.359  33.190   7.501  0.1082 -0.2074  0.1593
97724W        W40818  12.181  32.319   7.775  0.2300 -0.0972 -0.0175
97725W        W40819  14.501  34.125   4.927  0.0527  0.0151  0.0335
97726W        W40820  14.752  34.691   3.336  0.0827 -0.0728 -0.2223
97727W        W40821  11.031  33.267   8.352  0.0975  0.4250 -0.0730
97728W        W40822  11.632  32.893   6.491  0.2439  0.1866 -0.1802
97729W        W40823  13.790  32.862   5.091  0.1323 -0.3598 -0.3676
97730W        W40824  12.253  32.806   6.456 -0.0043 -0.0603 -0.2537
97731W        W40825  13.049  33.427   4.848  0.2176 -0.2159 -0.0463
97732W        W40826  12.775  34.396   8.241 -0.0384 -0.1896 -0.2990
97733W        W40827  12.369  33.201   3.932 -0.0484 -0.0427 -0.1987
97734W        W40828  15.374   1.150   4.277  0.1189 -0.0104 -0.1996
97735W        W40829  10.231  32.941   5.200 -0.4681 -0.1004  0.0318
97736W        W40830  11.210  32.915   6.012  0.0871  0.0492 -0.0240
97737W        W40831  12.354  34.111   5.101  0.1509 -0.0590  0.0628
97738W        W40832  13.903  31.758   5.243  0.2484  0.2996  0.0458
97739W        W40833  12.616  33.193   6.257  0.3076  0.2767  0.3637
97740W        W40834  11.718  31.749   5.180 -0.2063 -0.1723 -0.2272
97741W        W40835  13.647  33.935   8.079  0.1176  0.0587  0.0331
97742W        W40836  14.722  34.287   7.781 -0.1478 -0.1019  0.2235
97743W        W40837  15.069  33.464   7.800 -0.2574  0.1024 -0.0557
97744W        W40838  11.786   0.782   9.785  0.1272 -0.4296 -0.1693
97745W        W40839  12.242  34.614   8.052  0.0833  0.0670  0.1494
97746W        W40840  11.797  32.301  10.303 -0.2901 -0.3284  0.3210
97747W        W40841  12.207  32.682   8.513 -0.0399  0.0770 -0.0394
97748W        W40842  11.601  32.481  11.311 -0.3118 -0.1298  0.0595
97749W        W40843  13.933  32.958  10.704 -0.1093  0.1087  0.2835
97750W        W40844  12.137  33.738   8.724  0.0760  0.1721 -0.1484
97751W        W40845  13.791   0.978   9.791  0.1375  0.2804 -0.1880
97752W        W40846  13.119  31.881   8.670 -0.2245 -0.2744  0.0520
97753W        W40847  11.336   1.093  11.122 -0.1009  0.1349 -0.1648
97754W        W40848  11.136  34.088   7.635  0.2235  0.2030 -0.1063
97755W        W40849  11.553   1.455  10.177 -0.1341 -0.0047  0.1932
97756W        W40850  14.710   1.952   9.933 -0.0597  0.3041  0.1090
97757W        W40851  13.627  32.721   7.748 -0.0444 -0.2937  0.1383
97758W        W40852  14.199  34.558   9.985  0.2244 -0.3176  0.1037
97759W        W40853  12.083   0.088  10.495  0.0356 -0.2621 -0.1248
97760W        W40854  13.034   0.676   9.016  0.1903  0.4005 -0.3304
97761W        W40855  14.083  33.913   9.019 -0.0596 -0.3507  0.2543
97762W        W40856  11.972  33.152   7.915 -0.1817 -0.0023  0.0018
97763W        W40857  14.284   1.146   7.895 -0.0614  0.0244  0.1641
97764W        W40858  11.521  32.412   9.579 -0.1221  0.1578 -0.0403
97765W        W40859  11.777  32.689   9.079 -0.0357  0.0198  0.0520
97766W        W40860  12.810  33.946   8.454  0.0606  0.0884 -0.0149
97767W        W40861  13.139  32.631  10.035  0.0965 -0.2163  0.2223
97768W        W40862  10.765  33.829   8.986  0.1242 -0.1660 -0.2333
97769W        W40863  11.114  32.086   9.510 -0.2655  0.1390  0.0179
97770W        W40864  12.903  31.129   7.767 -0.1461  0.1328 -0.0119
97771W        W40865  13.823  33.432  10.196 -0.3219 -0.2321 -0.0550
97772W        W40866  12.584  33.893   8.908  0.0666 -0.3566 -0.0826
97773W        W40867  11.418  30.924  10.520  0.0026 -0.1777 -0.0527
97774W        W40868  16.084  33.701   7.194  0.2049  0.2125 -0.5358
97775W        W40869  11.226  31.018  10.973 -0.0519  0.0833  0.2109
97776W        W40870  15.042  32.693   7.369  0.0806  0.0808  0.2097
97777W        W40871  13.630  34.086   9.307 -0.2382 -0.0549  0.1132
97778W        W40872  13.930  33.916   6.869  0.0658  0.0593  0.0813
97779W        W40873  12.069  34.357  10.808  0.1806  0.1528 -0.0021
97780W        W40874  11.634  33.580  10.561 -0.1349  0.0482  0.2000
97781W        W40875  12.134  34.516   9.376 -0.1087 -0.3365  0.0283
97782W        W40876   9.449  31.862   9.725 -0.3424 -0.0914  0.1741
97783W        W40877  12.930  33.978   9.942 -0.2411 -0.0339 -0.3978
97784W        W40878  13.336  34.418   8.001 -0.1428 -0.1550  0.0487
97785W        W40879  11.292  33.259   9.775 -0.3034  0.2338 -0.0275
97786W        W40880  11.489  33.530   8.391  0.4212 -0.1670  0.0259
97787W        W40881  11.981  33.262   9.388 -0.0805 -0.1506 -0.1171
97788W        W40882  13.449  34.487   8.980  0.0563 -0.0789  0.2316
97789W        W40883  11.755  32.760   8.277 -0.1212 -0.3984 -0.0568
97790W        W40884  11.554   0.087   9.374 -0.1976 -0.3317  0.0033
97791W        W40885  12.729  33.160   9.056  0.2645 -0.3417 -0.3211
97792W        W40886  11.992  33.944   7.644  0.1339  0.4662  0.1449
97793W        W40887  13.239  33.287   7.168 -0.1089  0.0581 -0.2119
97794W        W40888  14.736  33.063   7.706 -0.0393  0.1441 -0.2189
97795W        W40889  14.667  33.022   7.211  0.0806 -0.0044  0.3189
97796W        W40890  13.670  33.778   6.104  0.0028 -0.0321  0.0840
97797W        W40891  12.696  33.276   6.863  0.3124  0.1002  0.1844
97798W        W40892  11.342  30.982   9.938  0.1792 -0.1391  0.1272
97799W        W40893  11.930  32.267   8.216  0.1215 -0.0600  0.1997
97800W        W40894  13.567  33.426  11.102  0.1264  0.0704 -0.1122
97801W        W40895  17.111  30.826  10.409 -0.0748 -0.1712 -0.1093
97802W        W40896  12.597  31.413   9.510 -0.3136 -0.2282 -0.1657
97803W        W40897  13.461   0.083   8.561 -0.1380 -0.0864 -0.1677
97804W        W40898  13.170   0.354   9.386  0.0672 -0.0987  0.0547
97805W        W40899  10.631  31.902   6.547 -0.0166 -0.0711 -0.1309
97806W        W40900  11.594  33.106  10.813 -0.0517  0.3405 -0.2653
97807W        W40901  13.268  33.186   7.955  0.1112 -0.0205  0.3205
97808W        W40902  12.154  33.468  10.781  0.1805 -0.3924 -0.4730
97809W        W40903  12.635  33.786   9.417  0.1783  0.6009  0.2002
97810W        W40904  13.160  33.994   8.034  0.1472  0.1734  0.2875
97811W        W40905  10.915  34.286   8.720  0.2194  0.0749  0.0579
97812W        W40906  12.582  32.642   9.202  0.1063  0.0800  0.0483
97813W        W40907  12.357  33.860   9.883 -0.1339  0.0459 -0.2806
97814W        W40908  11.657  32.760  10.478 -0.2320 -0.0538 -0.0533
97815W        W40909  14.454  32.625   7.497  0.0983 -0.4669 -0.2200
97816W        W40910  13.823  34.401   9.623 -0.0608  0.3195  0.0582
97817W        W40911  11.841  33.352   8.739 -0.1116 -0.0299 -0.0042
97818W        W40912  12.863  33.199   7.700  0.0365  0.0627  0.3465
97819W        W40913  15.377  33.830  10.330  0.2618 -0.0476  0.1894
97820W        W40914  13.086  34.150   8.950  0.1305 -0.1516 -0.2692
97821W        W40915  12.222  34.018   9.344  0.1956  0.2253  0.1796
97822W        W40916  12.650  34.308   9.236  0.1939 -0.1689  0.3552
97823W        W40917  12.508  34.328   9.772 -0.1215  0.0478 -0.0392
97824W        W40918  12.953  33.618   8.771  0.0898 -0.1220 -0.0540
97825W        W40919  12.707  34.026  10.581  0.1085 -0.2481  0.0398
97826W        W40920  14.048  32.167   6.717 -0.4276 -0.0379 -0.1583
97827W        W40921  12.324  33.332  10.057  0.2278 -0.0761 -0.0171
97828W        W40922  14.102   1.487   8.262 -0.0026 -0.2859  0.3055
97829W        W40923  13.008  34.103   9.489  0.1213  0.0758 -0.2115
97830W        W40924  13.494  34.164   7.581  0.2319 -0.1889 -0.4450
97831W        W40925  11.689  34.153   9.412 -0.0394 -0.1549  0.1455
97832W        W40926  12.850  34.691   9.757  0.0353  0.2161  0.1435
97833W        W40927  13.362  33.677   8.485 -0.0790  0.5105  0.0200
97834W        W40928  12.195   0.974   9.542  0.0581 -0.0465 -0.0062
97835W        W40929  13.948  33.992   7.340  0.0943  0.0409 -0.1160
97836W        W40930  13.112  33.626   9.603 -0.0145  0.0524  0.0666
97837W        W40931  14.486   0.329   8.027 -0.2778  0.2460 -0.2806
97838W        W40932  15.524  32.791   8.825  0.1328  0.0232  0.1401
97839W        W40933  14.536  33.430   6.941 -0.2127 -0.1080  0.1136
97840W        W40934  13.916  34.306   7.790 -0.0702  0.2477 -0.1310
97841W        W40935  11.392  34.106   8.988 -0.1499  0.2396  0.0263
97842W        W40936  12.871  31.626   7.843 -0.0456 -0.1786 -0.0636
97843W        W40937  12.588  33.823   6.880  0.1206 -0.0165 -0.0511
97844W        W40938  11.984  33.212  10.386  0.0472  0.0445 -0.3058
97845W        W40939  12.431  33.008   8.153 -0.1187 -0.1136  0.0976
97846W        W40940  12.530   0.420   8.809 -0.0154  0.0012 -0.0533
97847W        W40941  13.110  33.140   8.636  0.0444 -0.1421  0.2899
97848W        W40942  12.910  32.020  10.505  0.1681 -0.2236 -0.0967
97849W        W40943  12.967  31.532  11.013 -0.0062 -0.0987 -0.1370
97850W        W40944  13.124  33.520  10.663 -0.1144  0.2073 -0.0934
97851W        W40945  11.885   0.499   9.365  0.2238 -0.3565 -0.1970
97852W        W40946  12.085   1.432   9.137 -0.1096  0.0519  0.0810
97853W        W40947  12.807  32.002   7.421 -0.2552  0.2606  0.0513
97854W        W40948  12.443  33.687   8.292  0.1302  0.0901  0.2019
97855W        W40949  14.163  33.044   7.014 -0.1111  0.0474  0.1670
97856W        W40950  14.348   1.100   8.565 -0.2483  0.0051 -0.0937
97857W        W40951  15.251  33.809   9.123 -0.2581  0.1882  0.0082
97858W        W40952  12.981  32.427   7.217 -0.1615 -0.3387  0.3156
97859W        W40953  10.915   0.962  10.822 -0.3308 -0.0588 -0.1114
97860W        W40954  11.989   0.165   9.044  0.0222 -0.1605 -0.0718
97861W        W40955  15.676  32.188  10.032 -0.3402  0.1356  0.2195
97862W        W40956  13.819   0.013   9.236  0.4377 -0.0590 -0.1299
97863W        W40957  10.711  33.293   9.708  0.4597  0.1765  0.3010
97864W        W40958  13.550  33.377   8.898  0.1034 -0.3019  0.1781
97865W        W40959  13.149  33.109   9.848  0.0105 -0.3771 -0.3564
97866W        W40960  12.506   0.119   9.339 -0.0983  0.0621 -0.2072
97867W        W40961  14.626  34.136   9.133  0.0162  0.3860  0.1062
97868W        W40962  11.648   0.058  10.796  0.2217 -0.0639  0.3899
97869W        W40963  13.221   0.523   8.586  0.2167 -0.1138  0.1358
97870W        W40964  13.268  33.692   7.650  0.0895 -0.1727  0.2720
97871W        W40965  12.782  34.424  10.223  0.2743  0.0100  0.0167
97872W        W40966  13.606  33.319   6.850 -0.2177 -0.0105 -0.1487
97873W        W40967  11.549  33.632   9.954 -0.1127  0.3192 -0.2963
97874W        W40968  11.988  33.658  10.171  0.1980  0.1660  0.0839
97875W        W40969  11.022  32.815   8.675 -0.1810 -0.0896  0.2269
97876W        W40970  12.964  34.302   7.683  0.2071  0.0506  0.1821
97877W        W40971  15.493  33.982   9.500 -0.0720 -0.3204  0.0767
97878W        W40972  12.532  31.916  10.862 -0.0112  0.1625 -0.1108
97879W        W40973  12.432  31.985   6.628  0.0002 -0.2472  0.0964
97880W        W40974  12.363   0.618   9.244  0.0855  0.2582  0.0948
97881W        W40975  14.368  34.519   9.195  0.0161 -0.3117 -0.1742
97882W        W40976  14.294   0.246   8.884 -0.3792 -0.1386 -0.0972
97883W        W40977  11.681  32.672   9.996 -0.3681 -0.0656  0.1301
97884W        W40978  13.988  33.008   7.974 -0.2901  0.2607  0.0647
97885W        W40979  13.677  33.420   8.163 -0.1150 -0.0993 -0.1257
97886W        W40980  11.783   1.297   9.536  0.1884  0.0832  0.6965
97887W        W40981  10.297  33.609   8.897 -0.3571 -0.2120  0.0680
97888W        W40982  11.860   0.428  10.171  0.0285 -0.2867 -0.1396
97889W        W40983  11.021  33.665   9.878  0.1409  0.2841  0.0587
97890W        W40984  10.772  33.947  11.122 -0.0005 -0.0299 -0.2713
97891W        W40985  12.297  31.474   9.973  0.1747  0.1117  0.2354
97892W        W40986  13.925  33.765   8.587 -0.1073  0.1961 -0.1220
97893W        W40987  11.406  33.075   8.607 -0.2224  0.1340  0.1760
97894W        W40988  13.027  33.087  10.359  0.1149 -0.2275  0.0793
97895W        W40989  11.270  32.502  10.279  0.0817  0.2801  0.1709
97896W        W40990  12.835  33.464  10.055  0.1431 -0.0472 -0.0277
97897W        W40991  12.798   0.649   8.293 -0.3046  0.0101 -0.1181
97898W        W40992  12.550  33.228   9.589  0.3963  0.1392  0.3193
97899W        W40993  12.771  33.754   7.802 -0.3412  0.1353 -0.2958
97900W        W40994  11.724  34.541  10.098 -0.0275 -0.1575 -0.1760
97901W        W40995  14.100   0.691   8.139  0.0517 -0.0480  0.0567
97902W        W40996  12.282  33.535   7.856  0.0093  0.1007  0.1507
97903W        W40997  14.918  33.637   8.312 -0.2115 -0.0063 -0.1166
97904W        W40998  12.720  33.613  11.089  0.2537  0.1699  0.0793
97905W        W40999  11.966  34.075   8.165  0.0490 -0.1539  0.0567
97906W        W41000  12.665  34.361   8.727 -0.0834 -0.0147  0.0933
97907W        W41001  12.601  33.494  10.551  0.0607  0.3882  0.1233
97908W        W41002  12.261  32.808   9.620 -0.0656 -0.0869  0.0526
97909W        W41003  13.246  31.983   7.176 -0.0467 -0.0500 -0.1388
97910W        W41004  16.802   2.862   0.678  0.3717 -0.1731  0.0658
97911W        W41005  16.546   0.609   2.380 -0.1413 -0.1874  0.2732
97912W        W41006  16.846   1.172   0.195  0.0335  0.1337  0.0559
97913W        W41007  17.839   3.124   1.965 -0.3671  0.0647 -0.2292
97914W        W41008  15.222  34.490   0.902 -0.0441  0.1474  0.1209
97915W        W41009  16.132   3.053   1.681  0.2285  0.2956 -0.1312
97916W        W41010  16.703   0.125   2.440  0.0291  0.0586  0.1684
97917W        W41011  17.050   2.186   3.036  0.0050  0.0339 -0.1115
97918W        W41012  18.702   3.379   2.254 -0.0353  0.1230  0.0484
97919W        W41013  16.911   0.841  31.802 -0.2507 -0.2553 -0.0968
97920W        W41014  16.585   1.341   3.159 -0.1761  0.1200  0.3015
97921W        W41015  16.173   1.736   2.893  0.1835  0.0244 -0.2051
97922W        W41016  14.805   1.154   0.319 -0.1151  0.1428  0.3166
97923W        W41017  14.239   0.730   1.368  0.0263 -0.1571 -0.0004
97924W        W41018  17.698  34.530   3.729 -0.1162 -0.1974 -0.0128
97925W        W41019  14.962   1.149   0.899  0.1156  0.1834  0.2212
97926W        W41020  16.111   1.210   2.957  0.3867  0.0621 -0.0606
97927W        W41021  15.892   0.464   0.950  0.0891 -0.1593  0.1742
97928W        W41022  16.308   2.216  31.416  0.0152  0.2661  0.1798
97929W        W41023  15.245   0.473   2.722  0.2347  0.1989 -0.1576
97930W        W41024  16.587  33.832   4.716  0.4702 -0.1949 -0.1105
97931W        W41025  16.000   3.528   1.447  0.1582 -0.1056  0.0547
97932W        W41026  16.197   2.169   1.645  0.0551  0.1230 -0.1292
97933W        W41027  14.970   0.980  31.324  0.2854 -0.0596  0.0445
97934W        W41028  15.861   1.924   2.510  0.0728  0.2465 -0.3509
97935W        W41029  17.044   1.621   2.352 -0.1907  0.1184 -0.0879
97936W        W41030  17.332   1.416   0.835  0.2636 -0.0775  0.0183
97937W        W41031  16.587   2.595   1.702  0.1379 -0.0690 -0.0445
97938W        W41032  17.483   3.428   2.209  0.0278  0.1145  0.1043
97939W        W41033  18.009   0.778   3.723  0.1342 -0.1871  0.1604
97940W        W41034  15.067   3.086   0.489 -0.1638 -0.2160 -0.0627
97941W        W41035  14.560   3.436   1.232 -0.0598 -0.1058  0.2067
97942W        W41036  16.914   2.517   0.353  0.1427 -0.1067  0.1706
97943W        W41037  18.267   2.952   2.243 -0.2141 -0.0698 -0.1545
97944W        W41038  16.342   1.959   3.870 -0.2745 -0.0122 -0.1675
97945W        W41039  15.071   3.162   4.994 -0.4832  0.1789 -0.1436
97946W        W41040  15.500   3.250   1.008 -0.0636 -0.0162 -0.2977
97947W        W41041  16.350   2.669   2.522 -0.1566 -0.1249 -0.2287
97948W        W41042  13.695   2.230   4.527 -0.0263 -0.0980 -0.2450
97949W        W41043  17.063   1.342   2.919 -0.1180  0.3243  0.2947
97950W        W41044  16.714   1.752   1.534  0.1640  0.2304 -0.2891
97951W        W41045  15.918   3.358   0.722  0.2038  0.0317 -0.0579
97952W        W41046  17.705   2.850   2.339  0.0521  0.2299  0.0803
97953W        W41047  15.527   2.039   3.614 -0.1702  0.0408  0.2572
97954W        W41048  15.242   1.902   2.570  0.1449  0.0076  0.1812
97955W        W41049  19.400   0.849   3.689 -0.0035  0.1717  0.0542
97956W        W41050  14.375   2.817   0.637 -0.1063 -0.1254  0.2616
97957W        W41051  17.180   2.106   0.518  0.0147 -0.2835  0.1902
97958W        W41052  15.807   0.193   0.084 -0.2882  0.1512 -0.3536
97959W        W41053  17.171   1.083   1.109 -0.0134  0.0433 -0.0029
97960W        W41054  17.480  34.650   1.093 -0.0323  0.0375  0.1874
97961W        W41055  15.065   2.062   2.177  0.0845 -0.5292  0.0123
97962W        W41056  16.255   1.205   1.367  0.1675  0.0946 -0.1652
97963W        W41057  17.529   2.274   3.212  0.0017 -0.1196  0.1159
97964W        W41058  16.634   0.374   1.378  0.1661 -0.1213  0.0181
97965W        W41059  17.098   1.395   3.518 -0.1016  0.0838  0.1138
97966W        W41060  14.754   3.404   4.111 -0.2231  0.0333  0.0316
97967W        W41061  15.169   1.283   1.295  0.1334 -0.0133 -0.1320
97968W        W41062  17.648   3.224   0.272 -0.4128  0.2956  0.1353
97969W        W41063  19.343   3.901   1.444  0.3960  0.2015 -0.1791
97970W        W41064  16.603   2.385  31.979  0.1787 -0.3037 -0.1317
97971W        W41065  16.626   2.354   1.267 -0.2473 -0.2909  0.1741
97972W        W41066  15.548   1.528   2.706  0.1020  0.3275 -0.1784
97973W        W41067  14.401   1.202   2.501  0.0935 -0.0956 -0.0015
97974W        W41068  16.213   1.436   0.926 -0.2144 -0.3045 -0.2645
97975W        W41069  17.533   2.019   4.781 -0.2528 -0.2645  0.2718
97976W        W41070  15.864   2.184   2.982 -0.0097 -0.2115 -0.1628
97977W        W41071  17.530   0.338   1.410  0.0308  0.1976  0.2498
97978W        W41072  15.910   0.924   3.500 -0.2507  0.0957 -0.2162
97979W        W41073  18.093   4.026   1.988  0.1182 -0.1050 -0.1460
97980W        W41074  17.497   0.700   0.078  0.3494  0.1699  0.1368
97981W        W41075  17.903   1.768   1.914  0.0884  0.2073  0.2959
97982W        W41076  18.539  34.309   3.324  0.2697  0.2081 -0.3097
97983W        W41077  15.482   1.426   0.132  0.0601 -0.2217  0.3558
97984W        W41078  17.626   0.213  31.489  0.0188 -0.2230  0.0317
97985W        W41079  18.490   3.735   1.876 -0.0143 -0.0769 -0.1464
97986W        W41080  17.866   2.645   1.929 -0.2378  0.1134  0.0267
97987W        W41081  15.186   2.564   1.408 -0.1871  0.0501  0.0339
97988W        W41082  17.233  34.574   3.454  0.0108 -0.0091  0.1484
97989W        W41083  16.351   1.440   4.214  0.3448  0.0337 -0.0172
97990W        W41084  14.761   3.722   0.819  0.1507 -0.0229  0.1635
97991W        W41085  15.108   1.656   1.876 -0.2787  0.0120  0.1119
97992W        W41086  16.174   2.219   1.053 -0.0777 -0.2506 -0.1812
97993W        W41087  15.298   0.201   3.444  0.0796 -0.2716 -0.2789
97994W        W41088  14.949   2.330   3.009 -0.0319  0.2662 -0.0839
97995W        W41089  17.267   1.114  31.946 -0.1701 -0.2165  0.1328
97996W        W41090  16.432   0.005   3.121  0.1093  0.1553  0.1804
97997W        W41091  17.546   0.842   1.359  0.0871  0.0597  0.1804
97998W        W41092  15.610   1.801   0.533  0.1337 -0.2546 -0.0585
97999W        W41093  17.946   3.637   0.219 -0.2432 -0.0096  0.1460
98000W        W41094  17.762   1.221   0.045  0.1442 -0.1532  0.0868
98001W        W41095  17.186   2.070   0.002 -0.0114  0.0227 -0.2045
98002W        W41096  15.181   1.141   1.965  0.1436  0.4818  0.1041
98003W        W41097  16.700   1.410   1.125  0.0362 -0.3291 -0.1363
98004W        W41098  14.954   0.170   3.838  0.0108  0.0514 -0.0822
98005W        W41099  14.573   1.352   0.699  0.2227 -0.3020 -0.2627
98006W        W41100  17.780   1.661   3.469 -0.1347 -0.1695 -0.1225
98007W        W41101  15.007   0.906  31.949 -0.1062 -0.1778  0.1681
98008W        W41102  17.159   1.554   1.341 -0.0845 -0.2365 -0.1235
98009W        W41103  16.733  34.248   2.294 -0.2020  0.1559 -0.1679
98010W        W41104  15.559   1.325   0.777 -0.3215  0.0707  0.3947
98011W        W41105  18.969  33.423   3.549  0.4239  0.1722  0.1483
98012W        W41106  17.564   3.716   0.506 -0.2165  0.0077 -0.0926
98013W        W41107  17.359   2.716   3.680 -0.1552  0.0331 -0.3580
98014W        W41108  18.583   3.465   0.454  0.1528  0.0330 -0.0385
98015W        W41109  16.270   0.571   3.680 -0.1690 -0.0245  0.2895
98016W        W41110  15.720   0.583   0.470  0.0481 -0.0157  0.1856
98017W        W41111  15.352   2.742   2.414  0.3914  0.4071  0.4275
98018W        W41112  16.069   1.157   1.812  0.0722 -0.2379  0.0099
98019W        W41113  15.894   0.796   1.424 -0.1749 -0.2315 -0.1058
98020W        W41114  17.817   3.332   0.743 -0.0670  0.0558 -0.0072
98021W        W41115  16.403   3.179   0.688  0.0312  0.0972 -0.2363
98022W        W41116  14.676   1.919   1.915 -0.0753 -0.0328  0.1437
98023W        W41117  16.774  34.325   3.259 -0.2522  0.0476  0.2222
98024W        W41118  17.141   3.128   2.725  0.0098  0.1502  0.0554
98025W        W41119  16.809   1.059   2.462 -0.3626  0.2791  0.1229
98026W        W41120  16.839  34.114  31.054 -0.2233 -0.0844 -0.2605
98027W        W41121  18.188   3.433   2.114  0.2287 -0.2151 -0.1898
98028W        W41122  14.203   2.974  31.829 -0.0319  0.1585  0.1326
98029W        W41123  15.669   1.864   1.895 -0.2549  0.0198  0.3749
98030W        W41124  16.126   2.647   1.408  0.0359 -0.0925 -0.1562
98031W        W41125  18.663   0.827   1.501 -0.1372  0.0689 -0.1405
98032W        W41126  14.696   2.415   3.607 -0.1216  0.0220 -0.2481
98033W        W41127  16.093   0.345   3.263 -0.4839  0.0296 -0.0373
98034W        W41128  16.776   0.473   1.877  0.0137  0.1567  0.2534
98035W        W41129  14.289   3.437   3.077  0.0367  0.0869 -0.0670
98036W        W41130  17.955   1.264   1.760  0.1065 -0.1853 -0.0249
98037W        W41131  16.822   1.743  31.797 -0.1954 -0.1465  0.0196
98038W        W41132  16.278   2.151   2.642  0.0979 -0.2536  0.1068
98039W        W41133  18.814   2.274   2.169  0.1921  0.0074  0.0815
98040W        W41134  16.396   0.368  31.875  0.0073  0.1394  0.1487
98041W        W41135  17.469  33.866   0.309 -0.1127  0.1833 -0.1845
98042W        W41136  15.822   3.820   3.236  0.0072  0.0238  0.1212
98043W        W41137  16.745   1.814   2.779  0.1088 -0.2310  0.0527
98044W        W41138  17.359   1.756   3.157  0.3620 -0.1352 -0.0701
98045W        W41139  16.308   0.671   1.080 -0.1650  0.4642  0.0820
98046W        W41140  18.797   2.883   1.404 -0.0425  0.0070 -0.0853
98047W        W41141  14.054   2.171   2.978 -0.3373 -0.1133 -0.1116
98048W        W41142  16.350   2.323   4.754 -0.0247 -0.0607  0.1967
98049W        W41143  18.267   3.570   1.050  0.0262 -0.1892  0.4027
98050W        W41144  15.756   1.039   2.631  0.0152  0.3804 -0.1780
98051W        W41145  16.719   0.500  31.453  0.3774  0.1421 -0.0123
98052W        W41146  16.087  32.732   2.471  0.1837  0.1124 -0.0167
98053W        W41147  14.142   4.488   1.407  0.1963  0.2255  0.1890
98054W        W41148  17.398   1.070   1.756 -0.0142  0.0698  0.0362
98055W        W41149  16.935   0.016   1.089  0.1343  0.2028 -0.1416
98056W        W41150  15.461  34.555   2.618  0.1140  0.0905 -0.1266
98057W        W41151  18.516   0.516   2.860  0.2710  0.2580  0.0901
98058W        W41152  18.576   2.524  31.647 -0.1361  0.0953  0.2181
98059W        W41153  17.558   1.474   2.753  0.2441 -0.2292 -0.4242
98060W        W41154  16.666   0.755   0.393  0.2094  0.1103  0.2082
98061W        W41155  16.080  33.145   3.680 -0.1689 -0.2818  0.3592
98062W        W41156  15.212   2.544   3.728 -0.0028 -0.1147  0.0586
98063W        W41157  14.540   2.005   3.340  0.2753  0.0282  0.0354
98064W        W41158  17.743   2.642   4.061  0.0057  0.0480  0.1630
98065W        W41159  17.528   1.902   0.899 -0.0742  0.0261 -0.1030
98066W        W41160  16.771   0.992   3.555  0.0977 -0.1149  0.1898
98067W        W41161  16.018   0.086   0.532  0.2592 -0.0120  0.0901
98068W        W41162  15.657   2.976   1.458 -0.0176 -0.1410 -0.1810
98069W        W41163  16.360   1.812   1.240  0.3759  0.0639  0.0537
98070W        W41164  14.818  34.322   1.528  0.1201  0.0865  0.0553
98071W        W41165  17.081   2.657   1.173  0.0096 -0.0533  0.1556
98072W        W41166  15.650   1.873   0.020 -0.0659  0.1472  0.1434
98073W        W41167  18.124   1.533   2.864 -0.0963 -0.0643  0.1086
98074W        W41168  14.800   2.340   1.632 -0.0467 -0.0676  0.2227
98075W        W41169  18.109  34.373   3.522  0.2213  0.0174 -0.1914
98076W        W41170  13.889   2.842   0.819 -0.0625 -0.0688  0.2623
98077W        W41171  16.656   1.168  30.658  0.1272  0.1252 -0.4078
98078W        W41172  15.518   0.844   1.013 -0.0562  0.3299  0.1045
98079W        W41173  17.654  34.415  31.633 -0.2417  0.2535  0.0740
98080W        W41174  17.751   2.766   0.577  0.4128  0.0785  0.2551
98081W        W41175  16.225  34.281   2.187 -0.1033 -0.1553 -0.0083
98082W        W41176  16.921   0.039   3.051 -0.3068  0.0251 -0.3246
98083W        W41177  15.753   2.526   1.731  0.1238 -0.0153 -0.1210
98084W        W41178  16.675  34.055   3.701  0.1329  0.0197  0.1054
98085W        W41179  17.223   0.492  31.510  0.1988 -0.2818 -0.2032
98086W        W41180  16.612   1.975   4.349  0.0503  0.4856 -0.0721
98087W        W41181  13.356   0.311   1.487 -0.0638  0.0364 -0.0818
98088W        W41182  18.141   0.690   2.465 -0.1464 -0.2723 -0.2549
98089W        W41183  15.916  34.550   1.892  0.2605 -0.0652  0.2062
98090W        W41184  14.636   1.913   0.727  0.1887  0.1678  0.2730
98091W        W41185  16.565   2.277   3.554  0.1228 -0.0876 -0.0195
98092W        W41186  17.095   1.620   0.365  0.0708 -0.1237 -0.1583
98093W        W41187  15.989   2.172   0.561 -0.2120 -0.0542 -0.1075
98094W        W41188  15.111   1.153   3.385 -0.3075  0.4600 -0.2344
98095W        W41189  18.187   1.078   4.098 -0.3206 -0.0130  0.0767
98096W        W41190  16.395   0.738   1.578  0.1364 -0.0084 -0.1592
98097W        W41191  16.446  33.860   0.730  0.1831 -0.5576 -0.2075
98098W        W41192  17.073   2.128   2.194  0.1909  0.0894 -0.1066
98099W        W41193  17.054   2.352   3.518 -0.4851  0.2263  0.1079
98100W        W41194  17.030   0.525   3.277  0.4756  0.2767  0.0449
98101W        W41195  15.113   3.120   5.512 -0.2161  0.0542  0.2567
98102W        W41196  16.096  33.663   2.222 -0.1219 -0.0018 -0.0529
98103W        W41197  18.853   5.503  31.041 -0.2048  0.3053  0.0005
98104W        W41198  17.748   0.735   3.193 -0.2770 -0.2278  0.0765
98105W        W41199  15.140   1.576  30.849 -0.0221 -0.1523 -0.1524
98106W        W41200  13.827   2.550   2.716 -0.0167  0.2638 -0.1284
98107W        W41201  16.277   1.995  31.840  0.1302  0.2615  0.1259
98108W        W41202  17.133  34.585   2.511 -0.1420  0.1082 -0.1801
98109W        W41203  15.402   1.963   3.039  0.1131  0.0603  0.1142
98110W        W41204  15.531   3.493   1.454 -0.1527 -0.1573  0.6256
98111W        W41205  14.361   3.376   3.598  0.0378 -0.2205 -0.2183
98112W        W41206  17.974   0.952  31.201  0.1169  0.0698 -0.0679
98113W        W41207  16.322   1.623  31.549 -0.0101  0.1463  0.2329
98114W        W41208  17.193   0.499   1.137  0.1399  0.2563  0.0328
98115W        W41209  18.532   2.365   3.381  0.3391  0.0075  0.0757
98116W        W41210  16.735   1.980   0.238 -0.1296  0.1657 -0.3527
98117W        W41211  16.049   0.516   4.387 -0.0091 -0.1114  0.0169
98118W        W41212  16.362   0.877   3.278 -0.1910  0.1040 -0.1398
98119W        W41213  17.123   2.041   1.276  0.1069  0.2270  0.1024
98120W        W41214  14.278   0.902   2.896 -0.3573 -0.2038 -0.0195
98121W        W41215  17.024   2.811   4.833 -0.0442  0.1297 -0.0907
98122W        W41216  15.139   2.069   3.954 -0.1645  0.2901  0.0345
98123W        W41217  17.676   0.759  31.573  0.4623  0.2169 -0.0379
98124W        W41218  16.727   0.532   0.786  0.3556 -0.1495 -0.3426
98125W        W41219  17.512   1.871   2.195 -0.0584 -0.2745 -0.1057
98126W        W41220  17.838   3.740   2.400 -0.2289 -0.0167 -0.1531
98127W        W41221  16.605   0.945   2.005  0.2403  0.1037 -0.0123
98128W        W41222  17.622   1.479   1.262  0.0336  0.0975 -0.2035
98129W        W41223  15.923   1.640   1.547  0.1658 -0.0405 -0.3338
98130W        W41224  18.103   2.207   1.634 -0.1267 -0.0934  0.3377
98131W        W41225  16.109   2.101   2.122 -0.1878 -0.2710 -0.1614
98132W        W41226  16.298   1.018   2.475 -0.0077 -0.1392  0.0906
98133W        W41227  17.019   0.807   1.542  0.2684 -0.0808 -0.0350
98134W        W41228  17.981   2.174   2.188 -0.2413  0.1492 -0.1862
98135W        W41229  17.579   0.942   0.866  0.0447  0.0398 -0.0063
98136W        W41230  17.251  34.380   2.971 -0.0283 -0.0105 -0.7027
98137W        W41231  17.829  34.637   4.232 -0.2028 -0.0466  0.0709
98138W        W41232  16.324   1.796   3.399 -0.0654 -0.1623 -0.1471
98139W        W41233  15.747   0.418   3.604  0.0630  0.2965 -0.2684
98140W        W41234  17.743   2.601   2.867  0.3223 -0.1416 -0.2571
98141W        W41235  18.332   1.163   0.541 -0.1235 -0.1063  0.0052
98142W        W41236  17.448   0.562   2.415 -0.1379 -0.1470  0.3126
98143W        W41237  17.445   2.332   1.044 -0.0703 -0.2795  0.1719
98144W        W41238  17.198   0.775   0.533 -0.0603 -0.0904 -0.0124
98145W        W41239  15.584   0.346   3.037  0.2435  0.0515 -0.1487
98146W        W41240  17.834   1.481   4.084 -0.0180 -0.1429 -0.1289
98147W        W41241  16.532  34.675  31.584  0.1462  0.2282 -0.1827
98148W        W41242  16.652   0.275   3.459  0.2656 -0.0344 -0.1979
98149W        W41243  15.133   2.786   0.960 -0.0877  0.1239  0.1866
98150W        W41244  17.742   3.698   1.756 -0.0220 -0.1604 -0.4587
98151W        W41245  18.097   1.860   0.837  0.1237 -0.1506  0.0435
98152W        W41246  14.232   0.436   0.801  0.2209 -0.4594  0.2608
98153W        W41247  16.837   3.116   3.129  0.1164  0.0311  0.0040
98154W        W41248  13.773   0.910  30.807  0.2712 -0.2319 -0.3478
98155W        W41249  16.537   2.005   0.745  0.0068  0.0319 -0.0778
98156W        W41250  16.631   2.086   1.880  0.1915 -0.1536 -0.0943
98157W        W41251  19.362   1.282   2.867  0.0615  0.2783 -0.0439
98158W        W41252  17.374   0.191   0.030  0.0829 -0.1839  0.1247
98159W        W41253  18.020   0.346   3.320  0.2229 -0.1456 -0.2219
98160W        W41254  14.042   3.915   1.617  0.0138 -0.2945  0.1362
98161W        W41255  17.490   1.529   1.757  0.1479  0.1492 -0.1718
98162W        W41256  15.608   1.356   1.714  0.0980 -0.3261 -0.0249
98163W        W41257  15.141   3.346   3.851  0.1195  0.0027  0.1486
98164W        W41258  15.775   2.830   2.717  0.0399 -0.0227  0.3141
98165W        W41259  16.791  34.181   2.776  0.2312  0.1062  0.0727
98166W        W41260  17.200   0.270   2.140 -0.0075  0.0239 -0.0680
98167W        W41261  16.669   1.170   1.562  0.0532 -0.1865 -0.0769
98168W        W41262  18.814   1.141   2.306 -0.2032  0.0347  0.1103
98169W        W41263  16.784   2.628   2.144  0.0048 -0.1841  0.0747
98170W        W41264  15.814   1.745   3.246 -0.0758 -0.0502 -0.2977
98171W        W41265  17.258   3.386   3.172  0.1076 -0.2791 -0.1669
98172W        W41266  17.179   3.124   1.083 -0.2425  0.0682 -0.0494
98173W        W41267  14.506   2.048   1.282  0.1615  0.2698 -0.0900
98174W        W41268  14.296   1.233   3.286  0.0532 -0.3150  0.1874
98175W        W41269  16.580   2.983   4.633 -0.0643  0.1132 -0.3497
98176W        W41270  17.060   2.409   1.721  0.1822 -0.0151 -0.2975
98177W        W41271  15.420  33.692   1.162 -0.2672  0.2741 -0.0212
98178W        W41272  16.397   2.809   0.225  0.0791  0.1056 -0.1130
98179W        W41273  15.467   2.081   4.906  0.1439 -0.2059 -0.3772
98180W        W41274  15.486   0.820   1.738  0.0073 -0.0032 -0.1343
98181W        W41275  15.803   5.131   2.218 -0.0288  0.1664 -0.1973
98182W        W41276  17.919   2.385   1.200 -0.3044 -0.1585 -0.3129
98183W        W41277  17.444   2.798   1.499 -0.2510  0.0099  0.0315
98184W        W41278  16.570   2.895   1.172 -0.3503  0.2888  0.1162
98185W        W41279  17.362  34.581  29.770  0.4538  0.3600 -0.1991
98186W        W41280  15.255   2.609   1.935 -0.2795  0.0835  0.0402
98187W        W41281  14.647   2.848   1.120  0.1151  0.1367  0.0584
98188W        W41282  16.894   2.331   0.873  0.1945  0.3425  0.0899
98189W        W41283  15.490   2.311   0.923  0.1497  0.5399  0.2978
98190W        W41284  18.178   4.218   2.649 -0.1660 -0.0947  0.1306
98191W        W41285  17.565  34.321   0.236  0.0105  0.4620 -0.0292
98192W        W41286  18.358   1.531   2.202  0.1776  0.1602  0.0606
98193W        W41287  17.390   2.305   3.978 -0.1211 -0.1263  0.4295
98194W        W41288  16.511   1.399   2.179 -0.1289 -0.2693 -0.0832
98195W        W41289  16.087  34.472  31.673 -0.0716 -0.0627 -0.0344
98196W        W41290  16.274   1.059   4.545 -0.1841  0.2912 -0.3346
98197W        W41291  17.948   0.513   4.272 -0.1373  0.1347 -0.1284
98198W        W41292  16.487   2.139   3.103  0.0996 -0.1589  0.0553
98199W        W41293  17.098   2.606  31.813  0.2148 -0.1685  0.2618
98200W        W41294  16.082   0.348   1.445  0.1507  0.3355  0.2470
98201W        W41295  15.711   2.141   1.359  0.0557 -0.1862 -0.3786
98202W        W41296  17.413  34.423   4.335  0.5367 -0.1540 -0.3162
98203W        W41297  17.814   2.318   0.687 -0.1159 -0.1672  0.1494
98204W        W41298  17.292   0.916   3.503  0.2173 -0.0052 -0.0930
98205W        W41299  15.761   2.909   2.085  0.2806  0.2169  0.1200
98206W        W41300  16.004   1.398   2.419  0.2259  0.0013  0.3691
98207W        W41301  16.831   3.361   0.862 -0.0866  0.1466 -0.1901
98208W        W41302  15.691  34.653   0.967  0.0185  0.1745 -0.4059
98209W        W41303  18.343   2.460   2.122  0.1232  0.0164 -0.1139
98210W        W41304  15.553   1.194   3.089 -0.1877 -0.0286 -0.0186
98211W        W41305  17.636  34.105   3.287  0.1085  0.1259  0.1895
98212W        W41306  15.903   1.210   0.285 -0.1213  0.1622 -0.3454
98213W        W41307  17.469   1.162   0.432  0.2538  0.0284 -0.0118
98214W        W41308  16.648   1.559   3.752 -0.2201  0.0061 -0.1642
98215W        W41309  14.906   0.501   3.186  0.1483 -0.1311  0.1263
98216W        W41310  16.173   0.811   0.132 -0.1177  0.1873  0.1600
98217W        W41311  18.027   2.512   2.501  0.0380 -0.0111 -0.1240
98218W        W41312  15.501   0.029   0.461  0.1851  0.0708 -0.1915
98219W        W41313  16.645   2.755   3.465 -0.3314 -0.2301  0.2141
98220W        W41314  15.067   2.119   3.465 -0.1237  0.1719 -0.3759
98221W        W41315  17.402   2.461   0.202  0.0874 -0.1955 -0.3038
98222W        W41316  16.525   1.411   2.665 -0.2862  0.1645  0.0196
98223W        W41317  14.851   1.629   3.851  0.0803  0.0076 -0.4032
98224W        W41318  17.272   1.965   2.656 -0.0051 -0.1738  0.2265
98225W        W41319  14.980   0.091   1.258  0.0139  0.1219 -0.1136
98226W        W41320  17.561   1.688  31.880  0.1170  0.1738  0.0771
98227W        W41321  17.535   2.363   2.348  0.0706 -0.2715  0.3580
98228W        W41322  15.295   2.149   1.746  0.1661 -0.0129 -0.1793
98229W        W41323  18.414   2.048   1.169 -0.1234  0.1960  0.1311
98230W        W41324  17.296   2.751   2.058 -0.2031  0.1459 -0.1714
98231W        W41325  15.327   0.670   2.230  0.0461  0.3000 -0.0080
98232W        W41326  16.946   2.900   1.605  0.1331 -0.2337 -0.1035
98233W        W41327  17.751   2.080   2.803 -0.2379 -0.0533  0.2849
98234W        W41328  16.850  34.528   0.170  0.1734 -0.0647  0.0369
98235W        W41329  13.906   1.016   1.006 -0.0211 -0.0484  0.1089
98236W        W41330  12.521   4.090   0.023  0.1410 -0.0330 -0.0970
98237W        W41331  17.912   1.179   2.271  0.2020 -0.1254  0.0774
98238W        W41332  16.814  34.551   3.723  0.0567 -0.4534 -0.1271
98239W        W41333  15.330   3.817   1.196 -0.0115 -0.1973  0.0514
98240W        W41334  15.876  34.194   3.025  0.1700  0.0427 -0.1855
98241W        W41335  16.774   2.269   2.533  0.2081 -0.0663  0.0545
98242W        W41336  15.700   4.520   4.289 -0.3743  0.2031 -0.0753
98243W        W41337  15.899   2.432   2.470 -0.0492  0.0903 -0.1315
98244W        W41338  15.861   1.681   3.761  0.2387 -0.0198  0.1403
98245W        W41339  16.897   3.317   0.232 -0.2404  0.3522  0.1161
98246W        W41340  17.521   2.240  31.604  0.0581  0.2738 -0.1472
98247W        W41341  18.139   3.318   2.652 -0.1588 -0.0967 -0.1223
98248W        W41342  15.891   0.966   0.789  0.1094  0.3762 -0.0147
98249W        W41343  17.756   3.341   1.327 -0.0095  0.2814 -0.0912
98250W        W41344  16.141   0.190   2.310  0.1385 -0.1747 -0.4707
98251W        W41345  18.193   0.679   1.348 -0.0343 -0.1743 -0.0965
98252W        W41346  17.353  34.397   1.596  0.0804 -0.0332  0.0718
98253W        W41347  16.038   2.204   3.444  0.1739 -0.2841 -0.0434
98254W        W41348  15.296   0.497   0.168  0.1357  0.2923  0.1967
98255W        W41349  14.721   4.173   1.802  0.0891  0.2496 -0.3490
98256W        W41350  15.416   2.394   2.807 -0.2445  0.0062 -0.0117
98257W        W41351  16.344  33.913   2.567 -0.0493  0.1091  0.1725
98258W        W41352  15.476   0.944   3.831  0.0248  0.2469  0.0685
98259W        W41353  15.158   1.920   0.188 -0.6331  0.0702 -0.0949
98260W        W41354  16.617   1.518   0.508 -0.0312 -0.2925  0.1008
98261W        W41355  17.151   2.931   0.186 -0.2472 -0.1384  0.1421
98262W        W41356  14.790   0.322   0.730 -0.1320  0.2606  0.0719
98263W        W41357  16.330   1.678   1.856  0.0539  0.1398  0.1414
98264W        W41358  18.879   3.294   0.072 -0.1243  0.0408 -0.0025
98265W        W41359  18.371   2.613   1.152  0.1156 -0.1949 -0.0086
98266W        W41360  17.044   0.306   0.406  0.1644 -0.1212 -0.0369
98267W        W41361  17.263   3.950   2.266 -0.1468 -0.1484 -0.2693
98268W        W41362  14.528   3.052   0.214  0.1105 -0.0453 -0.1588
98269W        W41363  15.866   0.725   3.981 -0.1597 -0.0743 -0.1463
98270W        W41364  15.264   0.965   5.682 -0.0129  0.2931  0.1310
98271W        W41365  13.965   0.909  31.254 -0.1687  0.4257 -0.2144
98272W        W41366  17.079   0.788   2.103  0.1657  0.1264 -0.4444
98273W        W41367  17.265   2.728   0.621  0.0109 -0.3089  0.2339
98274W        W41368  15.569   2.230   0.355 -0.1961 -0.1943 -0.1677
98275W        W41369  16.551   1.857   2.329 -0.1464  0.4178 -0.2885
98276W        W41370  16.716   2.641   2.963 -0.1481 -0.2225 -0.1994
98277W        W41371  14.830  34.426   2.531 -0.0952  0.2033 -0.2073
98278W        W41372  17.001   1.358   1.881  0.0130 -0.1756 -0.0187
98279W        W41373  15.863   0.790   3.034 -0.0379  0.1766 -0.0091
98280W        W41374  18.948   1.869   0.955 -0.1249 -0.0753  0.0922
98281W        W41375  18.613  33.704   3.146  0.1001  0.0133  0.1318
98282W        W41376  18.113   1.311   1.147 -0.0806  0.0102 -0.0958
98283W        W41377  16.133  34.041   4.182  0.1533 -0.1932  0.3068
98284W        W41378  15.889   3.374   3.028 -0.3566 -0.2980 -0.3625
98285W        W41379  18.109   2.655   3.301  0.2069  0.0239  0.3928
98286W        W41380  14.960  34.444   2.035 -0.3508  0.0234 -0.0414
98287W        W41381  17.843   0.790   1.961  0.0527 -0.1026 -0.0344
98288W        W41382  18.198   3.133   0.181 -0.0525 -0.0009  0.0678
98289W        W41383  16.104   0.710   2.129 -0.0129 -0.0543  0.0350
98290W        W41384  17.856   0.723   0.471  0.2061 -0.0699 -0.1889
98291W        W41385  16.143   1.361   3.440  0.0725 -0.1962  0.1618
98292W        W41386  16.691   3.077   3.947  0.2383  0.3259 -0.0656
98293W        W41387  17.300   0.833   2.952 -0.1049 -0.0872 -0.1262
98294W        W41388  15.618   0.299   1.912  0.0635  0.4157 -0.0746
98295W        W41389  18.478   0.999  31.296  0.0402 -0.1329  0.0881
98296W        W41390  17.207   2.717   3.184  0.4311 -0.0081 -0.2020
98297W        W41391  18.568   3.243   3.119 -0.1513 -0.2445 -0.1340
98298W        W41392  15.428   3.354   3.321 -0.0036  0.0092  0.0956
98299W        W41393  18.014   1.283   3.305 -0.1362  0.1261 -0.0167
98300W        W41394  15.442  34.596   1.589 -0.0892 -0.1872 -0.0612
98301W        W41395  16.978   1.783   0.857 -0.3549 -0.0111 -0.0442
98302W        W41396  16.736   0.873   1.130 -0.0252 -0.4704  0.0421
98303W        W41397  16.545   0.461   3.024  0.0091 -0.0769 -0.1168
98304W        W41398  16.316   0.295   1.875  0.0790 -0.0069  0.2613
98305W        W41399  16.294   1.107   0.556  0.0574  0.1204  0.1317
98306W        W41400  16.211   2.975   2.953 -0.0785  0.0420  0.1802
98307W        W41401  17.130   1.882   1.785  0.1102  0.3936 -0.3202
98308W        W41402  15.931   2.358   6.723 -0.3280  0.0861 -0.0669
98309W        W41403  16.153  34.451   5.131  0.0688  0.0144 -0.4160
98310W        W41404  17.495   0.703   3.898  0.0218 -0.0601 -0.0913
98311W        W41405  18.821   3.329   4.004 -0.1865  0.1430 -0.3857
98312W        W41406  14.808   1.274   5.701  0.0005  0.0868 -0.0384
98313W        W41407  18.505   2.375   4.817 -0.1948 -0.0011 -0.3915
98314W        W41408  15.727  33.849   7.440 -0.3471  0.0772  0.1088
98315W        W41409  17.184   2.436   6.722  0.0974  0.0655  0.2988
98316W        W41410  18.323   4.668   6.140 -0.1888 -0.0449  0.0548
98317W        W41411  17.514   1.545   4.510  0.1788  0.0307 -0.1020
98318W        W41412  16.605   1.762   6.343  0.2929 -0.0597 -0.5207
98319W        W41413  15.797   1.761   6.842 -0.2457 -0.5397  0.1985
98320W        W41414  16.089  34.249   5.682  0.2900  0.0856  0.1558
98321W        W41415  12.794  34.665   5.771 -0.0326 -0.0375 -0.0188
98322W        W41416  17.286   1.984   6.941 -0.1699  0.2661 -0.3668
98323W        W41417  15.657   3.154   5.065 -0.1695  0.0271  0.1772
98324W        W41418  15.851   0.971   6.518 -0.0686  0.1581  0.0819
98325W        W41419  16.564  34.307   5.384  0.0226 -0.1725 -0.2467
98326W        W41420  17.030   3.196   4.472 -0.1777 -0.1374 -0.2010
98327W        W41421  15.825   0.773   8.035 -0.1339  0.2783  0.4518
98328W        W41422  16.786  33.357   7.725  0.1560  0.0305  0.2909
98329W        W41423  15.927   3.569   4.872 -0.1759 -0.1510 -0.1327
98330W        W41424  15.697   1.171   4.987  0.1674 -0.0086 -0.0522
98331W        W41425  14.280   1.504   4.960 -0.1657 -0.1011  0.0501
98332W        W41426  15.079   1.677   5.500  0.2323 -0.2366 -0.0576
98333W        W41427  16.828   1.156   5.469 -0.0848  0.0535 -0.1114
98334W        W41428  18.622   1.364   5.635  0.2543  0.1179  0.3310
98335W        W41429  17.088   3.105   6.133  0.0127  0.1007 -0.0684
98336W        W41430  18.295   3.526   6.943  0.2405  0.0915  0.0679
98337W        W41431  17.471   1.093   6.324 -0.5256 -0.1520  0.1165
98338W        W41432  15.181   1.620   6.123 -0.3089  0.3963  0.0063
98339W        W41433  13.787   4.223   4.917 -0.3652  0.0947  0.0913
98340W        W41434  15.612   3.886   5.797 -0.2401 -0.2899  0.1288
98341W        W41435  20.888   2.662   4.627 -0.2850  0.1996  0.3667
98342W        W41436  17.918   2.487   7.144 -0.3036  0.0336  0.0491
98343W        W41437  16.337   2.480   7.045  0.1013 -0.0061 -0.0812
98344W        W41438  15.472   2.555   4.885  0.1393  0.1100 -0.0525
98345W        W41439  16.820   3.719   6.653  0.0326  0.1226  0.1802
98346W        W41440  15.675   2.872   6.152 -0.0819 -0.0076  0.0591
98347W        W41441  17.583   0.079   7.518 -0.0794 -0.0901 -0.1368
98348W        W41442  15.776   0.325   6.580 -0.0455  0.1403 -0.0635
98349W        W41443  15.178   0.446   5.105  0.0561 -0.3880 -0.1166
98350W        W41444  15.570   0.731   5.265 -0.0387 -0.1053 -0.1935
98351W        W41445  17.125   1.957   7.395  0.1312 -0.3106 -0.3875
98352W        W41446  15.518   1.858   6.445  0.1968 -0.0155  0.3242
98353W        W41447  17.810  34.414   8.181 -0.0031  0.1080  0.1882
98354W        W41448  15.457   2.489   4.222  0.0810 -0.2595 -0.2140
98355W        W41449  17.589   1.083   4.785 -0.1124  0.0331 -0.0114
98356W        W41450  17.221  34.469   4.953 -0.1869 -0.1668  0.1407
98357W        W41451  17.973   1.771   4.650 -0.0118 -0.1371 -0.2267
98358W        W41452  15.849  33.853   5.835  0.1566  0.1305 -0.0657
98359W        W41453  17.170   3.199   5.060 -0.3609  0.0344 -0.0618
98360W        W41454  15.557  34.515   6.861  0.3480  0.1889  0.0967
98361W        W41455  17.948   2.763   6.633  0.0144 -0.2854 -0.0553
98362W        W41456  16.895   1.848   4.780  0.1067  0.1111  0.2084
98363W        W41457  17.045   0.617   6.133 -0.0363  0.1552 -0.0944
98364W        W41458  15.776   3.563   6.466 -0.0637 -0.3778  0.2326
98365W        W41459  13.498   1.413   6.357  0.0490  0.2313  0.2552
98366W        W41460  17.916   2.972   3.658  0.0039  0.0835 -0.1772
98367W        W41461  20.328   2.781   5.397 -0.2720 -0.3813  0.1214
98368W        W41462  18.728   3.679   3.755 -0.3186 -0.1712 -0.0552
98369W        W41463  14.748   0.629   4.851  0.0345 -0.0368 -0.0008
98370W        W41464  14.282   1.577   7.335  0.2107 -0.0042 -0.1758
98371W        W41465  14.778   1.894   6.988  0.2130  0.0862  0.2662
98372W        W41466  16.231   0.049   3.660 -0.0092 -0.0713  0.0709
98373W        W41467  18.380   0.814   6.876 -0.2364  0.1321  0.0187
98374W        W41468  15.437   2.102   5.734  0.4056  0.3141 -0.0458
98375W        W41469  17.575   0.952   5.666  0.1132 -0.0863  0.0651
98376W        W41470  14.710   1.724   5.929  0.0712  0.1172 -0.1907
98377W        W41471  18.521   2.863   6.551 -0.1199 -0.0973 -0.1249
98378W        W41472  17.241   2.613   4.393  0.1040  0.3398 -0.0003
98379W        W41473  16.815  33.427   5.004 -0.0607 -0.0068  0.1365
98380W        W41474  17.036  34.482   6.123  0.1715 -0.1500 -0.0573
98381W        W41475  15.168   2.157   5.299 -0.3668 -0.2488 -0.0320
98382W        W41476  17.279   1.150   5.196 -0.0317  0.4180 -0.0919
98383W        W41477  17.167   2.060   8.635  0.1733  0.2492  0.0433
98384W        W41478  17.020   0.488   3.834  0.0886 -0.0746  0.1118
98385W        W41479  15.255   2.815   5.921  0.2541 -0.2172 -0.2454
98386W        W41480  17.363   1.180   6.796 -0.2831 -0.1271 -0.2367
98387W        W41481  18.015   3.195   5.719 -0.1146  0.1415 -0.1183
98388W        W41482  15.395   4.411   3.575 -0.0728 -0.0321  0.2972
98389W        W41483  15.422   2.345   6.598  0.3222 -0.0582  0.1189
98390W        W41484  15.426   0.755   3.350  0.1118 -0.4332 -0.0917
98391W        W41485  14.473   1.011   6.731  0.2397  0.1840 -0.1266
98392W        W41486  16.423   2.642   5.967  0.0876 -0.2369 -0.0341
98393W        W41487  18.692  34.616   4.905 -0.2643  0.0117 -0.0633
98394W        W41488  14.906   1.367   7.821 -0.0358  0.1599  0.0886
98395W        W41489  17.992  34.685   5.568 -0.0522  0.0435 -0.2336
98396W        W41490  14.939   2.062   6.234  0.0251 -0.1729 -0.1365
98397W        W41491  18.637   2.365   4.302  0.0473  0.2071 -0.2004
98398W        W41492  18.194   1.364   4.866 -0.1232  0.3936  0.1495
98399W        W41493  18.029   2.148   3.316  0.0264  0.0691 -0.0011
98400W        W41494  15.382   0.570   6.401 -0.1116 -0.3113  0.0609
98401W        W41495  14.590   1.577   5.328 -0.0712 -0.4908 -0.2192
98402W        W41496  14.685  34.114   8.256 -0.2530 -0.0470 -0.1515
98403W        W41497  13.926   1.093   5.182 -0.1745  0.0864  0.0412
98404W        W41498  18.911   0.693   7.072 -0.2790 -0.3908 -0.0423
98405W        W41499  15.613   0.361   4.912  0.3021  0.2795  0.1890
98406W        W41500  17.303   0.006   3.921 -0.1478  0.2769 -0.1305
98407W        W41501  15.429   0.352   5.523 -0.0569 -0.0820 -0.0312
98408W        W41502  14.446   2.126   6.199  0.1854  0.1375  0.0491
98409W        W41503  17.387   0.157   6.057 -0.2890  0.3286 -0.1537
98410W        W41504  17.912   3.461   4.387  0.0884  0.0474 -0.1422
98411W        W41505  18.464   3.204   7.315  0.0170 -0.1954  0.2541
98412W        W41506  19.196   3.679   3.988 -0.3644 -0.0771 -0.0094
98413W        W41507  16.452  34.472   6.901  0.4534  0.1374  0.4470
98414W        W41508  16.556  33.839   5.241 -0.1100 -0.1175 -0.0531
98415W        W41509  16.156   4.074   5.038  0.1550  0.1356  0.0548
98416W        W41510  16.434   2.399   5.455  0.0481 -0.0527  0.1521
98417W        W41511  17.696   0.542   4.724  0.1949 -0.1885 -0.2124
98418W        W41512  19.072   3.156   4.972 -0.2160  0.0621  0.3932
98419W        W41513  16.997   0.260   4.700  0.0719  0.0398 -0.2161
98420W        W41514  14.680   2.804   6.670 -0.0497  0.0853 -0.1405
98421W        W41515  16.625   0.115   7.263 -0.0323 -0.0545  0.3448
98422W        W41516  17.964   1.020   6.228  0.1192 -0.2256 -0.2558
98423W        W41517  16.856   1.541   5.216 -0.0483 -0.2454 -0.2543
98424W        W41518  15.974   0.053   2.782  0.0112 -0.1355  0.1997
98425W        W41519  16.041   3.037   5.839  0.1371 -0.5079 -0.1710
98426W        W41520  14.828   2.755   5.400  0.0904 -0.0914 -0.1825
98427W        W41521  14.269   1.339   6.004 -0.1912 -0.0394 -0.3601
98428W        W41522  16.601   0.952   5.942  0.1271  0.1147  0.0017
98429W        W41523  17.321   1.524   6.117  0.0836 -0.0382 -0.0283
98430W        W41524  14.407   0.747   7.203 -0.3651 -0.1231  0.3583
98431W        W41525  17.705   0.246   6.511  0.1951  0.1653 -0.0684
98432W        W41526  15.845   1.272   4.074 -0.1265 -0.1358 -0.0136
98433W        W41527  14.864   1.457   7.296 -0.0855  0.0024 -0.3537
98434W        W41528  16.444  33.907   5.719  0.0979 -0.1981  0.2413
98435W        W41529  18.483   1.718   4.747  0.3028 -0.1483  0.1360
98436W        W41530  18.257   1.321   6.981 -0.1540 -0.4656 -0.0014
98437W        W41531  16.006   2.048   5.038 -0.2442 -0.4033 -0.0586
98438W        W41532  17.332   1.225   4.010 -0.1152 -0.1825  0.0079
98439W        W41533  18.557   1.151   3.668 -0.2419  0.3703 -0.1541
98440W        W41534  15.485   2.422   7.071  0.0774 -0.1393 -0.1245
98441W        W41535  17.184   0.734   4.331 -0.1512 -0.0479  0.2728
98442W        W41536  15.915   2.699   5.276 -0.1570 -0.1110  0.3382
98443W        W41537  16.790   0.734   5.173  0.2180  0.2112 -0.0288
98444W        W41538  19.092   3.040   4.279  0.0646  0.2706  0.0666
98445W        W41539  14.796   1.270   4.915  0.2532 -0.0469  0.0251
98446W        W41540  16.736   1.904   6.882  0.2136 -0.0691  0.2545
98447W        W41541  16.252   1.846   4.676 -0.4055 -0.0469 -0.3415
98448W        W41542  16.052  34.393   6.639  0.2300  0.0064  0.2429
98449W        W41543  17.180   0.356   5.141  0.0060 -0.0603 -0.0175
98450W        W41544  16.573   0.594   5.592  0.0344 -0.3547  0.1067
98451W        W41545  15.797   2.934   3.221 -0.0458  0.1621  0.0750
98452W        W41546  16.468  34.523   5.967 -0.0031 -0.1287  0.1578
98453W        W41547  15.916   0.349   5.307  0.0639  0.1646  0.0304
98454W        W41548  16.102  34.232   7.099 -0.2735  0.0927 -0.0874
98455W        W41549  17.449   0.212   8.321 -0.1677  0.1842 -0.1268
98456W        W41550  18.987   1.675   4.756  0.2468 -0.3927  0.1410
98457W        W41551  16.972   1.233   6.366  0.0879 -0.1515 -0.1436
98458W        W41552  17.700   1.179   3.673  0.3205 -0.0288 -0.0861
98459W        W41553  14.619  34.662   6.668 -0.1497  0.1841 -0.3837
98460W        W41554  15.285   1.500   7.019  0.2702 -0.0649  0.1678
98461W        W41555  14.934   3.282   6.480 -0.1355  0.2868 -0.0803
98462W        W41556  18.674   1.485   6.660 -0.1821 -0.1299 -0.0517
98463W        W41557  15.638   2.818   6.672 -0.2552  0.1507 -0.1199
98464W        W41558  16.294   0.190   6.564  0.2675 -0.1459 -0.0340
98465W        W41559  17.710   1.007   4.276 -0.3797  0.2721  0.2512
98466W        W41560  16.462   3.916   4.682  0.0720  0.2773  0.1974
98467W        W41561  15.967   3.703   5.462 -0.1063  0.1245  0.2643
98468W        W41562  14.581   0.219   5.717  0.0122 -0.0146  0.0308
98469W        W41563  16.451   4.084   6.415 -0.2733  0.0251 -0.0096
98470W        W41564  16.264   2.587   3.186  0.1221  0.0847 -0.0385
98471W        W41565  17.016   1.900   6.032 -0.0123 -0.1171  0.4991
98472W        W41566  16.325   3.380   4.602 -0.2304 -0.2300 -0.0911
98473W        W41567  18.174   0.202   6.734 -0.0921  0.0346  0.1568
98474W        W41568  14.716   3.627   5.787 -0.0166 -0.3644 -0.0549
98475W        W41569  16.024   1.790   4.192 -0.1157  0.1509 -0.1308
98476W        W41570  17.069   1.342   4.707  0.0879  0.3175 -0.0283
98477W        W41571  17.679   0.196   5.154 -0.1742  0.0557  0.0244
98478W        W41572  18.308   2.022   4.295 -0.1079 -0.1262 -0.1710
98479W        W41573  15.153  34.380   7.465  0.4908  0.0671 -0.0478
98480W        W41574  14.905   0.927   7.092  0.0093 -0.0540 -0.0614
98481W        W41575  16.817   3.583   6.011 -0.0158 -0.2357 -0.1393
98482W        W41576  17.867   0.889   7.152  0.0349 -0.0392  0.0154
98483W        W41577  18.003   0.723   5.056  0.0148 -0.1252  0.2508
98484W        W41578  17.581   2.955   6.343  0.2064  0.3255 -0.0011
98485W        W41579  15.975   3.140   6.437 -0.0218  0.1217  0.3798
98486W        W41580  15.575   1.309   3.557  0.1144 -0.2738 -0.0613
98487W        W41581  16.670   0.419   6.788 -0.1331  0.0632  0.0355
98488W        W41582  15.926   1.769   5.526  0.0998  0.2910 -0.0264
98489W        W41583  14.861   2.539   4.063 -0.0771 -0.0878  0.0243
98490W        W41584  16.747   2.629   6.337  0.1139 -0.1762 -0.1068
98491W        W41585  15.910   0.709   4.839 -0.1219  0.0561 -0.0304
98492W        W41586  13.603   1.307   5.449  0.0347  0.0240  0.0013
98493W        W41587  16.387   1.165   6.349 -0.1368  0.0413 -0.0611
98494W        W41588  18.137   0.589   6.359  0.2688  0.0440 -0.1501
98495W        W41589  15.603   0.862   6.007 -0.0257  0.0726  0.3631
98496W        W41590  16.511   1.110   4.990  0.1943  0.1092 -0.0390
98497W        W41591  17.163   1.101   5.917  0.1463 -0.0872  0.1419
98498W        W41592  17.900   1.890   6.315  0.2116 -0.3380  0.1659
98499W        W41593  16.975   1.057   7.008 -0.1758  0.0947  0.0906
98500W        W41594  15.924   2.256   7.764  0.0939 -0.0129  0.0136
98501W        W41595  15.942  33.062   6.674 -0.2106 -0.3137  0.0133
98502W        W41596  18.709   3.339   4.539 -0.0269  0.2721  0.1147
98503W        W41597  17.676   0.736   6.664 -0.1771 -0.0900  0.1188
98504W        W41598  16.048   3.021   4.738  0.0716 -0.3316  0.1170
98505W        W41599  14.672   1.314   6.243 -0.1987 -0.0816  0.2839
98506W        W41600  16.499   1.912   5.110 -0.0325  0.2735 -0.3220
98507W        W41601  15.656   0.722   7.002  0.0274  0.1756 -0.0717
98508W        W41602  15.170   1.034   6.244 -0.3819 -0.4360  0.1343
98509W        W41603  15.606   3.128   5.592  0.0555  0.0422  0.0809
98510W        W41604  16.315   4.696   4.992  0.1247  0.1474  0.1410
98511W        W41605  16.996  33.719   5.442  0.2141  0.3678  0.1956
98512W        W41606  17.322   1.888   3.662 -0.0171 -0.2920  0.4315
98513W        W41607  16.852  34.156   6.695 -0.3704  0.3281  0.2371
98514W        W41608  17.895   0.225   6.039  0.3148 -0.2042  0.0602
98515W        W41609  18.788   1.532   3.451 -0.0817  0.0175  0.0045
98516W        W41610  17.142  34.584   7.460  0.1210  0.1892  0.0761
98517W        W41611  15.101  33.947   7.802 -0.0294 -0.5191 -0.2128
98518W        W41612  18.098   3.143   5.246  0.1921 -0.3477  0.1529
98519W        W41613  14.675   1.032   7.528  0.2631  0.1779  0.0590
98520W        W41614  18.307   2.749   6.029  0.1822  0.2273 -0.2073
98521W        W41615  14.145   1.098   7.450  0.2171  0.0195  0.0503
98522W        W41616  17.343   1.946   4.279 -0.1856  0.1873  0.3361
98523W        W41617  15.015  33.462   6.019  0.1763  0.2689 -0.2062
98524W        W41618  15.674   2.060   7.422  0.0660 -0.2124 -0.0337
98525W        W41619  18.990   2.237   4.714 -0.0249 -0.2998  0.1521
98526W        W41620  15.766   2.859   4.105  0.1759 -0.2459  0.1227
98527W        W41621  18.393   0.822   5.893 -0.3550 -0.2930 -0.2589
98528W        W41622  14.948   0.129   5.413 -0.0400  0.0100 -0.1477
98529W        W41623  17.408   0.262   4.391  0.0838 -0.0098  0.2859
98530W        W41624  18.275   1.522   4.338 -0.0715 -0.0020 -0.1281
98531W        W41625  16.866   2.621   5.316  0.0509 -0.1820  0.0931
98532W        W41626  14.962  33.930   6.411  0.1573 -0.1047  0.0993
98533W        W41627  18.470   2.176   6.163  0.1951 -0.0849  0.0057
98534W        W41628  16.304  33.393   4.994  0.1342 -0.1642 -0.2054
98535W        W41629  16.951  34.592   6.963  0.0526 -0.0078 -0.1615
98536W        W41630  15.962   1.505   6.401 -0.2055 -0.0936  0.3357
98537W        W41631  16.289   1.741   6.745  0.2055  0.0347 -0.2912
98538W        W41632  13.713   0.902   6.225 -0.0541  0.1895 -0.2876
98539W        W41633  18.190   2.343   7.942 -0.2705 -0.0722  0.1252
98540W        W41634  18.394   0.466   4.680 -0.1658 -0.0493 -0.1540
98541W        W41635  18.707  33.864   6.584 -0.1651 -0.1156 -0.0624
98542W        W41636  18.269   2.025   5.101  0.0492 -0.0473  0.0214
98543W        W41637  18.299   2.688   5.183  0.2126  0.0231  0.0204
98544W        W41638  14.461   0.883   6.252  0.0489  0.3250 -0.1040
98545W        W41639  18.017   0.286   7.741 -0.0535 -0.1949  0.1696
98546W        W41640  15.956   1.455   4.594  0.0071  0.0352 -0.1335
98547W        W41641  17.614  34.296   7.198 -0.2433  0.3204  0.3890
98548W        W41642  16.930   2.647   3.891 -0.1030 -0.1749  0.1939
98549W        W41643  17.810   3.257   6.805  0.1924  0.1258 -0.2191
98550W        W41644  18.450  34.669   5.393 -0.2423  0.0848  0.0742
98551W        W41645  13.467   0.136   4.630  0.0636 -0.0748 -0.2109
98552W        W41646  16.277   4.088   5.529  0.0341 -0.1462  0.0507
98553W        W41647  16.020   0.062   4.141 -0.0526  0.2534 -0.0826
98554W        W41648  16.820   1.785   3.319 -0.2284 -0.3203  0.0533
98555W        W41649  17.418   2.838   5.850 -0.0989  0.0537  0.0047
98556W        W41650  18.509   0.371   7.130 -0.2209 -0.4098 -0.1896
98557W        W41651  17.471  33.922   4.300  0.2856  0.1882  0.0320
98558W        W41652  18.369  34.523   7.833 -0.3466  0.0218  0.1673
98559W        W41653  15.552   2.984   4.615 -0.1364 -0.2092  0.1342
98560W        W41654  16.602   0.292   6.132  0.0230  0.0351 -0.2437
98561W        W41655  15.767   2.623   5.736 -0.2529  0.1477  0.2408
98562W        W41656  16.262   1.744   7.662 -0.1607 -0.2073  0.0585
98563W        W41657  16.880   2.656   5.850  0.0078 -0.0751 -0.0889
98564W        W41658  17.158  34.126   7.117  0.1372 -0.0021 -0.1563
98565W        W41659  17.548   0.639   6.092 -0.1528  0.1370  0.2960
98566W        W41660  16.966   2.206   5.621 -0.1524 -0.1330  0.2813
98567W        W41661  19.303   1.099   7.824  0.1570 -0.1206  0.1473
98568W        W41662  17.062   2.849   7.154  0.0540 -0.1157  0.0494
98569W        W41663  14.090   1.671   6.426  0.0508  0.0305 -0.3004
98570W        W41664  16.732   2.712   7.491 -0.1404  0.0796 -0.3082
98571W        W41665  17.780   2.146   4.323  0.3091  0.1026  0.3759
98572W        W41666  15.396   2.404   6.119  0.1813 -0.0379  0.3679
98573W        W41667  14.328  34.400   8.074  0.1172  0.0527  0.0218
98574W        W41668  17.008   1.513   7.098  0.0594  0.0368  0.1223
98575W        W41669  16.645   1.417   6.736 -0.1621 -0.2962  0.4155
98576W        W41670  15.643  34.331   5.853  0.0281 -0.2443 -0.0943
98577W        W41671  16.580   2.156   6.027 -0.2011  0.2965  0.2095
98578W        W41672  15.226   3.294   7.209  0.0812  0.1462 -0.0246
98579W        W41673  14.608   2.501   7.579 -0.0706 -0.1237 -0.2733
98580W        W41674  13.501   4.366   4.475 -0.2443  0.0854  0.0208
98581W        W41675  17.875   2.059   3.836 -0.2960 -0.0752  0.0530
98582W        W41676  16.604   1.470   4.621 -0.2273 -0.1002  0.0085
98583W        W41677  17.644   3.382   5.999  0.2513  0.0617  0.0597
98584W        W41678  16.582   0.241   3.925 -0.2292 -0.0671  0.0959
98585W        W41679  14.915   3.578   5.293 -0.0683 -0.1206  0.0712
98586W        W41680  14.776   3.025   3.810 -0.3062  0.1251  0.0397
98587W        W41681  17.492   1.236   3.184  0.1190 -0.1068  0.2760
98588W        W41682  16.332   2.741   5.012  0.0537  0.2951 -0.1170
98589W        W41683  17.700   2.182   6.751 -0.0936 -0.2321 -0.3041
98590W        W41684  18.703   1.282   4.132  0.0652  0.1629 -0.1762
98591W        W41685  18.829   2.763   6.084  0.1440 -0.2344  0.1487
98592W        W41686  18.096   0.896   4.567 -0.0754 -0.1516  0.1059
98593W        W41687  17.998   1.833   6.957  0.0565  0.0936  0.0328
98594W        W41688  15.389   1.398   6.484 -0.3104 -0.0026  0.0403
98595W        W41689  15.629  34.550   5.294  0.1326  0.0058 -0.2070
98596W        W41690  17.064   0.716   7.567  0.0854 -0.1868  0.0288
98597W        W41691  17.388  34.109   6.136 -0.0474 -0.1701 -0.1224
98598W        W41692  14.839   4.055   6.180 -0.2079 -0.1984 -0.1917
98599W        W41693  19.025   2.084   5.498 -0.1354  0.0537 -0.0956
98600W        W41694  16.190   1.503   5.196 -0.2710  0.0042 -0.0750
98601W        W41695  16.252   1.717   5.983  0.1778 -0.0078 -0.1013
98602W        W41696  17.932  34.495   6.847 -0.0541  0.2401  0.3315
98603W        W41697  16.233   3.004   4.260 -0.0247 -0.1092  0.0405
98604W        W41698  15.955   1.320   6.899 -0.1723  0.2572 -0.6317
98605W        W41699  17.254   2.991   4.061  0.0535 -0.1867  0.2004
98606W        W41700  16.116   2.159   5.817  0.1971 -0.4171  0.0601
98607W        W41701  16.950   4.114   6.330 -0.3064 -0.2304 -0.0365
98608W        W41702  16.691  34.560   4.805  0.1246 -0.1642  0.2471
98609W        W41703  17.312   2.132   5.269 -0.3233 -0.2631  0.3320
98610W        W41704  16.341   1.285   5.637  0.0190  0.1107 -0.4060
98611W        W41705  16.544  33.421   5.486  0.1721 -0.2621 -0.1582
98612W        W41706  15.667   1.642   5.028 -0.1484 -0.0035  0.2618
98613W        W41707  17.854  33.829   5.150 -0.1889  0.0778  0.2467
98614W        W41708  18.167   2.311   6.667  0.2936 -0.1236 -0.2152
98615W        W41709  14.846   0.586   5.458 -0.0020 -0.1464 -0.1395
98616W        W41710  16.367   0.633   4.767  0.3099 -0.1252 -0.1154
98617W        W41711  17.341  34.309   6.587  0.1740 -0.3990 -0.0919
98618W        W41712  17.538   0.257   3.476  0.1928  0.1048  0.2966
98619W        W41713  18.074   3.869   5.497 -0.2355  0.3455  0.0293
98620W        W41714  16.113   0.239   4.864  0.1380 -0.0789  0.3385
98621W        W41715  17.562   2.386   5.639 -0.0622 -0.2819  0.1130
98622W        W41716  16.006   1.992   6.405  0.1667 -0.2051  0.2171
98623W        W41717  17.401   2.481   7.257  0.2153 -0.0426  0.3143
98624W        W41718  17.483   2.883   6.851 -0.1075  0.0363 -0.0687
98625W        W41719  15.198  34.630   5.785 -0.1929  0.1535 -0.1151
98626W        W41720  18.570   2.753   3.069  0.3943 -0.1751  0.1031
98627W        W41721  17.507   1.928   5.861  0.0742  0.0232 -0.0209
98628W        W41722  15.042   3.313   4.505 -0.0217  0.3441 -0.3399
98629W        W41723  18.038   2.757   4.779  0.0668 -0.2057  0.2063
98630W        W41724  17.400   2.697   5.211  0.0397  0.3171  0.1976
98631W        W41725  14.514   0.385   5.193  0.2452 -0.0569  0.0513
98632W        W41726  17.437   2.069   6.337  0.3255  0.0646  0.0068
98633W        W41727  18.019   3.537   7.316  0.3804  0.1410 -0.1938
98634W        W41728  16.164  34.002   4.920  0.0466  0.1039 -0.0652
98635W        W41729  15.195   0.409   5.961 -0.0726 -0.2084  0.0890
98636W        W41730  15.483   3.604   5.236  0.0442  0.0643 -0.2235
98637W        W41731  18.091  33.891   6.214  0.0027 -0.0250 -0.0877
98638W        W41732  17.595   1.449   5.650  0.1775 -0.0282 -0.3714
98639W        W41733  15.811   2.092   4.529  0.0846 -0.2066 -0.1093
98640W        W41734  17.086   0.197   6.521  0.0054 -0.1622  0.0944
98641W        W41735  18.213   2.307   5.540  0.1236  0.1184 -0.1810
98642W        W41736  15.303   1.631   7.539  0.3925 -0.2002 -0.2632
98643W        W41737  15.944   2.364   4.017  0.4927  0.1179 -0.4120
98644W        W41738  16.798   1.444   5.994 -0.0764  0.0388  0.2565
98645W        W41739  16.900   2.155   6.438 -0.0574  0.2163  0.1442
98646W        W41740  16.351   0.990   3.835  0.1398 -0.2027 -0.1836
98647W        W41741  18.661   2.354   5.298 -0.0520  0.2536 -0.1379
98648W        W41742  17.799   0.310   3.841  0.0876 -0.0619  0.0992
98649W        W41743  18.499   1.668   6.008 -0.2373 -0.1446  0.5339
98650W        W41744  16.171   0.893   5.264  0.3342  0.2791 -0.0789
98651W        W41745  18.345   0.302   5.812  0.0733  0.1450  0.0843
98652W        W41746  16.616  34.139   4.300 -0.4324  0.3404 -0.3123
98653W        W41747  15.865   2.418   6.206  0.2296 -0.0108  0.5104
98654W        W41748  14.698   3.157   2.980  0.3817 -0.4354 -0.2054
98655W        W41749  16.502   2.412   4.091  0.1134 -0.1167  0.0025
98656W        W41750  15.220   2.769   6.423  0.1130 -0.0031  0.0405
98657W        W41751  16.607  34.233   7.323  0.1178  0.0229  0.1397
98658W        W41752  14.912   0.602   7.560 -0.1338 -0.3618 -0.0586
98659W        W41753  14.853   0.672   6.526 -0.0179 -0.3545 -0.1162
98660W        W41754  15.304   0.834   4.775  0.0864  0.0257 -0.0009
98661W        W41755  16.925   2.021   4.003  0.2339  0.0352  0.1681
98662W        W41756  15.072   0.169   6.552 -0.1666 -0.0274  0.0621
98663W        W41757  13.027  34.669   5.287 -0.0747  0.0135  0.3441
98664W        W41758  17.142   2.324   4.797  0.3575 -0.0662  0.4041
98665W        W41759  19.478   1.971   5.559 -0.0764 -0.2150 -0.1093
98666W        W41760  15.870   0.082   5.718 -0.1710 -0.2081  0.4163
98667W        W41761  19.088   3.764   8.368  0.1499 -0.0052  0.1116
98668W        W41762  14.296   2.947   4.574  0.0014  0.0482  0.1022
98669W        W41763  17.677   0.424   7.039  0.3548 -0.3720 -0.1015
98670W        W41764  17.153   0.464   7.165  0.0306 -0.1424 -0.0041
98671W        W41765  14.417   0.395   3.161  0.1769  0.0006  0.0065
98672W        W41766  15.274   0.968   6.722 -0.0903 -0.0036 -0.0646
98673W        W41767  17.762   1.901   5.241  0.1871 -0.0954  0.1158
98674W        W41768  18.143   2.495   4.280  0.1145 -0.3861 -0.4889
98675W        W41769  16.567   1.762   5.570 -0.3654  0.0458 -0.1657
98676W        W41770  17.247   3.357   8.032  0.0041 -0.2084 -0.1671
98677W        W41771  14.619   0.335   6.210  0.3804  0.1775 -0.4083
98678W        W41772  16.722  33.667   4.207  0.4523 -0.1661  0.3091
98679W        W41773  16.205   2.676   6.435 -0.2550  0.0402 -0.3152
98680W        W41774  18.064   2.277   4.712  0.2342 -0.1121  0.1255
98681W        W41775  17.630   0.327   5.615  0.0422 -0.0321  0.1527
98682W        W41776  17.817   2.393   5.157  0.0023  0.4809 -0.1744
98683W        W41777  14.312  34.512   5.819 -0.1695  0.3110  0.0274
98684W        W41778  15.190   1.149   7.448  0.1680 -0.1533  0.2825
98685W        W41779  19.116   2.988   6.482 -0.0081  0.0444 -0.0382
98686W        W41780  15.528  34.678   6.220  0.0362 -0.1565 -0.2313
98687W        W41781  18.459   0.705   4.187  0.0734  0.0269 -0.0624
98688W        W41782  16.961   1.513   4.255 -0.2547 -0.1261 -0.0574
98689W        W41783  14.402   0.950   5.214 -0.1567 -0.1744  0.1368
98690W        W41784  15.882   1.341   5.918  0.0720 -0.1896  0.2011
98691W        W41785  18.133   0.519   7.369  0.1171 -0.1163  0.5592
98692W        W41786  17.171   1.591   5.600  0.2033 -0.0538 -0.1474
98693W        W41787  18.146   2.129   7.444  0.0608 -0.1988  0.0251
98694W        W41788  16.805   0.962   4.579  0.2003  0.2399  0.2489
98695W        W41789  19.693   3.202   4.370  0.0738 -0.2888 -0.0676
98696W        W41790  17.819   2.318   6.140  0.0672 -0.1723  0.2358
98697W        W41791  18.623   4.490   7.714 -0.2290  0.1168  0.1018
98698W        W41792  14.553   3.145   5.656  0.2436  0.1226  0.1154
98699W        W41793  18.026   0.721   5.561 -0.2542  0.0037  0.1276
98700W        W41794  14.761  34.210   6.821 -0.0487 -0.1147 -0.3085
98701W        W41795  15.741   1.824   5.995  0.2874 -0.0692  0.0072
98702W        W41796  16.769   1.099   4.091  0.2071  0.1457 -0.0972
98703W        W41797  18.695   0.458   6.705 -0.0066 -0.3571 -0.1233
98704W        W41798  15.265   0.641   7.244 -0.2263 -0.1052 -0.5224
98705W        W41799  17.182   0.796   4.862 -0.0917 -0.2248 -0.2019
98706W        W41800  16.403   2.859   5.521  0.0363 -0.5148  0.0235
98707W        W41801  18.093   1.850   5.794  0.0279 -0.1935 -0.1147
98708W        W41802  15.291   1.246   9.590  0.0346 -0.0022  0.1338
98709W        W41803  15.478   1.044   8.740 -0.1299  0.3637  0.0904
98710W        W41804  17.377  34.551   7.932  0.1066 -0.0843 -0.2911
98711W        W41805  18.022   1.168   8.697 -0.0784  0.1267  0.1852
98712W        W41806  13.936   0.568   9.251  0.0329  0.0204  0.0013
98713W        W41807  16.332   2.389   8.090  0.2536  0.1008 -0.1373
98714W        W41808  17.982   4.144   8.265  0.1314  0.1366 -0.3198
98715W        W41809  17.901   3.433   9.846 -0.2997  0.1428  0.1551
98716W        W41810  17.915   1.208   6.671  0.2003  0.0147 -0.3206
98717W        W41811  15.957   0.750   9.659  0.0213  0.1228  0.1399
98718W        W41812  16.427   0.119   8.013 -0.2792  0.0421 -0.2981
98719W        W41813  16.302   0.036   9.298 -0.0799  0.1074 -0.1388
98720W        W41814  15.534   3.873   9.215 -0.1796 -0.1917 -0.0110
98721W        W41815  15.481   1.309   7.853 -0.4807 -0.2429 -0.0737
98722W        W41816  16.441   0.463   9.699  0.3211  0.2261 -0.1099
98723W        W41817  16.383   0.950   8.223 -0.1730  0.0590 -0.2024
98724W        W41818  15.915   2.353   8.791  0.0667  0.1855  0.0632
98725W        W41819  17.334   1.385   9.896 -0.2362  0.0484  0.1510
98726W        W41820  16.767   2.218   7.825  0.4004  0.2376 -0.2298
98727W        W41821  14.251   0.584   7.687  0.1375 -0.0530  0.0166
98728W        W41822  15.315   2.179  10.090 -0.1452 -0.1803  0.0088
98729W        W41823  17.036   1.020   8.444 -0.2490 -0.0116  0.1674
98730W        W41824  16.561   0.384   8.980 -0.1041 -0.0367 -0.1992
98731W        W41825  17.450   1.580   9.154 -0.0237 -0.1864 -0.1893
98732W        W41826  16.888   3.103   8.286  0.0017  0.0980 -0.1279
98733W        W41827  16.075   2.565   9.341  0.1944  0.0185  0.2215
98734W        W41828  15.759   2.414   9.947  0.2075 -0.0661 -0.0192
98735W        W41829  14.365   3.762   8.761  0.1301  0.2366  0.1193
98736W        W41830  16.544   2.068   7.338  0.1447 -0.1405  0.2269
98737W        W41831  18.789   0.647   9.073  0.1378 -0.0174  0.1448
98738W        W41832  15.771   2.462   8.282  0.0207 -0.1495 -0.1284
98739W        W41833  16.712   2.779   9.813  0.2018 -0.1377 -0.1498
98740W        W41834  15.850   1.413   8.668  0.0620  0.2432 -0.2073
98741W        W41835  16.053   2.059   7.111 -0.1587  0.0675  0.0531
98742W        W41836  17.183   0.635   8.150 -0.2944 -0.2287 -0.0168
98743W        W41837  13.141   0.154  10.179  0.0873 -0.2018 -0.4971
98744W        W41838  16.074   2.817   8.020 -0.1634 -0.0042  0.0395
98745W        W41839  17.376   0.981   7.880 -0.0771 -0.2012  0.3084
98746W        W41840  16.718   0.816   6.476  0.0097 -0.0158  0.0269
98747W        W41841  17.501   0.395   8.868 -0.1556  0.0013  0.1703
98748W        W41842  17.311   0.764   9.760  0.3375  0.0898  0.0247
98749W        W41843  15.656   3.095   9.380  0.0734 -0.1322 -0.2263
98750W        W41844  17.096  33.149  10.208  0.0456 -0.2951 -0.1325
98751W        W41845  15.641   0.553   8.778 -0.2274  0.1294 -0.0705
98752W        W41846  17.670   0.911   8.942  0.1225 -0.0176  0.0664
98753W        W41847  17.578   4.103   9.195  0.1443  0.0849  0.3321
98754W        W41848  15.610   1.363   9.103  0.1778  0.0331  0.0645
98755W        W41849  18.153   3.074   8.662 -0.2441  0.1561 -0.1471
98756W        W41850  18.886   2.580   9.116  0.0782  0.0139 -0.0894
98757W        W41851  17.412   2.902   7.521  0.4991 -0.2026 -0.0346
98758W        W41852  15.553   1.613   8.210 -0.0095 -0.0432 -0.0990
98759W        W41853  16.395   1.003   6.828  0.1530  0.0275  0.1350
98760W        W41854  17.950   0.235   9.334 -0.0777 -0.0315  0.3603
98761W        W41855  15.749   0.409  10.036 -0.1675 -0.1186 -0.0755
98762W        W41856  17.415   3.813   8.208 -0.1220  0.0130 -0.0869
98763W        W41857  17.696   2.343   7.680 -0.1789  0.1142  0.0839
98764W        W41858  15.678  34.335   8.368 -0.0175 -0.1525 -0.1547
98765W        W41859  17.116   2.883   9.579 -0.0687  0.1858  0.1955
98766W        W41860  14.844   1.363   6.748 -0.2725  0.0605  0.0331
98767W        W41861  16.012   1.410   8.145 -0.0482 -0.2480 -0.0649
98768W        W41862  17.136   1.671   9.554  0.1330  0.1143  0.2021
98769W        W41863  17.499   2.299   8.144  0.2556 -0.0660 -0.1376
98770W        W41864  14.664   2.714   9.983  0.0999 -0.0935  0.0487
98771W        W41865  16.460   1.249   7.750 -0.1501 -0.0756 -0.0945
98772W        W41866  14.922   2.041   9.401 -0.0547 -0.2107  0.1080
98773W        W41867  15.985   2.007   8.174  0.4501  0.1533  0.0109
98774W        W41868  14.591  34.664   9.647  0.0219  0.0083  0.0191
98775W        W41869  17.060   3.636   9.958 -0.0479 -0.3573 -0.0774
98776W        W41870  18.594  34.632   9.498 -0.0411 -0.0340 -0.1358
98777W        W41871  20.050  33.119  10.138 -0.1008  0.1817  0.0793
98778W        W41872  15.058   1.203   8.290  0.0785  0.2376  0.0519
98779W        W41873  18.864   4.079   7.641  0.1544 -0.2589  0.3658
98780W        W41874  17.773   0.595   8.079  0.0811  0.0143 -0.2348
98781W        W41875  17.763   3.187   8.021  0.2188 -0.2368  0.1425
98782W        W41876  13.345   1.512   9.683 -0.2630 -0.1459 -0.4098
98783W        W41877  13.948   1.521   7.760  0.2422  0.2990 -0.1292
98784W        W41878  15.965   0.941   9.013 -0.2288  0.1184  0.3461
98785W        W41879  14.773   0.087   7.662 -0.1728 -0.2173 -0.0717
98786W        W41880  16.853   0.328   9.429  0.0763  0.0242 -0.4810
98787W        W41881  16.246   2.723   8.517  0.2911  0.0756  0.4002
98788W        W41882  14.382   2.606   8.034  0.1700 -0.2035 -0.0871
98789W        W41883  16.420   3.050   8.230  0.0178  0.3695  0.0349
98790W        W41884  18.793   4.136   8.158 -0.1342 -0.2154 -0.4793
98791W        W41885  17.935   3.872   8.994  0.3655 -0.3959 -0.0469
98792W        W41886  16.644  33.194  10.016  0.0217 -0.2700  0.0497
98793W        W41887  15.476   0.419   7.857 -0.1043 -0.1823 -0.3098
98794W        W41888  15.162   2.987   9.170  0.2456  0.2695  0.0629
98795W        W41889  15.137   3.828   8.189 -0.4229 -0.1285  0.0190
98796W        W41890  15.559  34.185   7.838 -0.1238  0.1041 -0.0360
98797W        W41891  17.870   2.784   7.740  0.0297  0.0146  0.0091
98798W        W41892  16.158   0.453   8.301 -0.0257 -0.1412  0.0250
98799W        W41893  17.504   1.949   9.796 -0.0171 -0.0694 -0.3764
98800W        W41894  16.260   0.651   8.717  0.1566  0.1335 -0.0690
98801W        W41895  14.327  34.512   7.556 -0.2636  0.1246  0.1063
98802W        W41896  18.219   1.332   7.946  0.1753 -0.2350 -0.0945
98803W        W41897  14.411   1.673   7.807 -0.2693  0.0259  0.0220
98804W        W41898  15.115  34.670   8.583 -0.0038 -0.0638  0.2312
98805W        W41899  15.067   3.509   8.996  0.1425 -0.0581 -0.0245
98806W        W41900  16.781  34.148   8.807  0.1401  0.1575  0.1529
98807W        W41901  14.341  34.179   8.709 -0.0567 -0.1769  0.2128
98808W        W41902  16.879   0.117   8.189 -0.2047 -0.0139 -0.1252
98809W        W41903  19.180  34.570   8.648 -0.0216 -0.1770 -0.1646
98810W        W41904  18.351   1.159   7.448 -0.0194  0.0208 -0.2407
98811W        W41905  17.173  33.986   8.060  0.1921 -0.3052 -0.1316
98812W        W41906  17.908  34.281   7.667 -0.2390 -0.0376  0.0497
98813W        W41907  17.379   1.008   7.285 -0.1779  0.0593 -0.0974
98814W        W41908  16.219   3.059   9.405  0.1028  0.0288 -0.0941
98815W        W41909  16.375   1.324   7.234 -0.1364  0.1083  0.1362
98816W        W41910  17.586   2.078   8.881  0.1410 -0.0735 -0.0491
98817W        W41911  16.164   2.742   9.846 -0.1354 -0.1079  0.1913
98818W        W41912  15.440   3.789   8.659 -0.0320  0.0333  0.0152
98819W        W41913  16.047  34.333   9.687  0.0883  0.0588  0.1573
98820W        W41914  16.366   0.682   7.804 -0.1906 -0.1538  0.3790
98821W        W41915  17.584  34.120   9.259 -0.0638  0.3481  0.0264
98822W        W41916  14.817   3.133   7.012  0.1757 -0.0961  0.2343
98823W        W41917  18.917  33.630  10.399 -0.0265  0.0738 -0.0568
98824W        W41918  16.841   0.774   9.623  0.0763 -0.0729  0.2177
98825W        W41919  17.769   1.084   7.630  0.1122  0.2842  0.0408
98826W        W41920  16.764   2.222   8.961 -0.1805 -0.2144 -0.0058
98827W        W41921  14.145   1.306   6.895  0.2384  0.0015 -0.2466
98828W        W41922  17.346   1.457   7.548 -0.5104  0.1959 -0.0570
98829W        W41923  16.347   2.534   8.963 -0.0899 -0.2192  0.1040
98830W        W41924  17.885   1.934   7.908 -0.1103  0.1504 -0.2052
98831W        W41925  16.148  34.111   8.071 -0.3355 -0.0057  0.0710
98832W        W41926  16.271   2.527   7.605 -0.0494  0.0142 -0.2814
98833W        W41927  16.299   1.180   8.685  0.0119  0.0457 -0.0546
98834W        W41928  16.000  33.002   8.824 -0.1605  0.1599 -0.1159
98835W        W41929  15.257   3.531   9.488 -0.1720  0.1060  0.2007
98836W        W41930  17.034   1.700   6.544 -0.0359 -0.1388 -0.2141
98837W        W41931  17.096   2.599   9.155 -0.1436  0.1383  0.3250
98838W        W41932  16.466   3.189   7.727  0.0772  0.0844 -0.0983
98839W        W41933  15.996  33.836   9.488 -0.1711  0.0094 -0.0323
98840W        W41934  14.728   3.607   9.929  0.2157 -0.0899  0.1250
98841W        W41935  15.000   0.403   8.045  0.0344 -0.1138  0.1698
98842W        W41936  14.764  34.609   8.211  0.1661 -0.2763  0.3238
98843W        W41937  16.517  33.631   9.639 -0.0430 -0.1640 -0.1225
98844W        W41938  18.699   1.395   7.789 -0.3848 -0.3275 -0.0326
98845W        W41939  16.706   0.573   8.284  0.2877 -0.0951 -0.0166
98846W        W41940  16.520  33.834   8.423 -0.1145 -0.3162 -0.0571
98847W        W41941  15.319   3.136   8.735 -0.1792  0.1414  0.0051
98848W        W41942  17.345  34.426   8.441  0.5297 -0.1510  0.0557
98849W        W41943  14.548   0.584   8.625  0.1201 -0.0877 -0.0179
98850W        W41944  16.208   0.075  10.036  0.2722 -0.1065 -0.1329
98851W        W41945  15.569   0.882   7.574  0.1805 -0.1603 -0.3224
98852W        W41946  15.651   1.678   9.509  0.0914 -0.1816  0.3975
98853W        W41947  15.754   2.898   8.510  0.0546 -0.0557  0.1067
98854W        W41948  15.375   0.336   6.882  0.1934  0.3344  0.2495
98855W        W41949  16.647   1.462   8.283  0.1092  0.1567 -0.3012
98856W        W41950  17.943   3.906  10.068 -0.0419  0.2547  0.0918
98857W        W41951  17.262  33.654   9.515  0.1274  0.1064  0.2025
98858W        W41952  14.480  34.162   9.660  0.1464  0.0195 -0.0692
98859W        W41953  16.748   1.835   8.647 -0.1515  0.0282  0.1886
98860W        W41954  17.888   2.139   8.462 -0.1590  0.1154 -0.0084
98861W        W41955  16.888   1.709   9.120 -0.1443 -0.0314  0.0391
98862W        W41956  15.754  33.980   9.949  0.1358 -0.1837  0.1465
98863W        W41957  19.159   4.414   7.646  0.1827  0.2519 -0.4016
98864W        W41958  15.961   1.251   7.644 -0.3239  0.0474  0.0282
98865W        W41959  14.641   2.892   9.373 -0.1473 -0.0838 -0.1104
98866W        W41960  15.448   2.300   8.732 -0.0181 -0.0023 -0.1848
98867W        W41961  17.228  33.851   9.018  0.0680  0.0513 -0.0755
98868W        W41962  15.151   1.727   9.882 -0.5282  0.1500 -0.0596
98869W        W41963  15.187   0.912   7.867  0.0597 -0.1830 -0.0394
98870W        W41964  14.479   3.179   9.786  0.3637 -0.0305 -0.0735
98871W        W41965  19.187   0.496   9.824  0.1938  0.0948  0.0763
98872W        W41966  16.927   3.302   6.878 -0.2195 -0.0990  0.0290
98873W        W41967  16.812   1.433   9.873 -0.2829 -0.0065 -0.0910
98874W        W41968  17.176   0.278   7.782 -0.1846  0.0741 -0.0572
98875W        W41969  14.882  33.851  10.235 -0.1419 -0.3729 -0.3251
98876W        W41970  17.850   1.954   9.332 -0.2228  0.3886 -0.0328
98877W        W41971  16.281   0.654   6.331 -0.0895  0.1482  0.0175
98878W        W41972  16.011   0.056   7.004  0.3347 -0.1028 -0.1000
98879W        W41973  15.567   2.674   9.580  0.5613  0.2075 -0.3213
98880W        W41974  18.438   2.567   8.938  0.1168  0.2209 -0.0282
98881W        W41975  15.791   1.734   7.809  0.0650 -0.0003 -0.2269
98882W        W41976  16.079   0.483   9.240  0.1773 -0.3063 -0.0859
98883W        W41977  15.062   2.480   9.146  0.0316 -0.2216  0.1113
98884W        W41978  17.586   0.591   7.545  0.2792  0.2375 -0.1383
98885W        W41979  16.895   1.674   7.727  0.2118  0.0781  0.1938
98886W        W41980  15.259   2.680   8.521  0.0951 -0.0756  0.2101
98887W        W41981  17.232   1.134   8.912 -0.0208  0.0745  0.3021
98888W        W41982  17.617  34.596   9.167 -0.0126 -0.0712 -0.2318
98889W        W41983  18.327   3.687   8.811 -0.0816 -0.1807  0.0292
98890W        W41984  18.651  34.624   6.758  0.1142  0.0836 -0.2322
98891W        W41985  15.070   1.187   9.105  0.1384  0.0371  0.0119
98892W        W41986  17.887   1.279   9.175 -0.0842 -0.2215  0.0658
98893W        W41987  16.753  34.541   9.306 -0.2437  0.0019  0.1337
98894W        W41988  14.452   0.433   9.449 -0.0831  0.0137  0.2425
98895W        W41989  15.555   1.080   8.253  0.0060  0.1149  0.4567
98896W        W41990  15.935   2.524   7.269 -0.1451 -0.2545 -0.0894
98897W        W41991  17.273   2.992   8.963  0.2341  0.0590 -0.1945
98898W        W41992  17.171   0.700   9.102  0.1948 -0.0323  0.0768
98899W        W41993  13.991   0.698   8.745  0.1580  0.0673 -0.3133
98900W        W41994  15.043  34.603   7.033 -0.5341 -0.3045 -0.1267
98901W        W41995  16.070   0.908   7.211  0.2174 -0.1345 -0.1109
98902W        W41996  17.279  34.680   9.580 -0.0586  0.0805 -0.1235
98903W        W41997  17.276  33.808   6.774  0.0982 -0.1082 -0.1691
98904W        W41998  16.135   1.550   9.774 -0.0906 -0.3020  0.0576
98905W        W41999  16.890  33.401   9.273 -0.2386  0.2747 -0.0306
98906W        W42000  17.743   1.535   9.684 -0.0752 -0.0038 -0.0752
98907W        W42001  15.629   3.477   8.347  0.1638  0.3263 -0.0391
98908W        W42002  17.179   1.555   8.668 -0.0640  0.4156 -0.0509
98909W        W42003  17.930   1.042   9.684  0.0153 -0.2361  0.1788
98910W        W42004  16.493   2.350   9.959 -0.3188 -0.1745  0.2807
98911W        W42005  16.233   1.723   8.488  0.0837 -0.1115  0.1664
98912W        W42006  17.602   0.621   9.373 -0.1255 -0.0339  0.2651
98913W        W42007  15.353   0.735   9.762 -0.0638  0.2231 -0.0954
98914W        W42008  16.666   1.993   9.455 -0.1356  0.1149  0.1413
98915W        W42009  15.863  34.182   8.795  0.0550  0.0041 -0.1016
98916W        W42010  17.810   1.067   8.128  0.0385  0.0866 -0.0497
98917W        W42011  17.053   2.310   9.729 -0.0798  0.1930 -0.0580
98918W        W42012  14.803   4.241   8.289  0.0119 -0.0387 -0.1380
98919W        W42013  17.017   2.914   7.848  0.1678 -0.1563  0.2279
98920W        W42014  17.451   2.817   8.121 -0.3303 -0.1851  0.3593
98921W        W42015  18.708   3.429   8.547  0.1708 -0.2167  0.2798
98922W        W42016  17.449  34.687   6.950  0.0228 -0.2505 -0.0615
98923W        W42017  15.705   3.359   8.948  0.3749  0.0907 -0.2267
98924W        W42018  14.515   2.831   7.214 -0.1093  0.0048 -0.0064
98925W        W42019  16.931   3.825   8.344  0.1158  0.0450 -0.2411
98926W        W42020  15.520   4.403   7.950 -0.3050 -0.2240 -0.0198
98927W        W42021  17.003  34.051   7.599 -0.5338 -0.1493 -0.1184
98928W        W42022  18.093   1.833   9.777 -0.0163  0.4910  0.1285
98929W        W42023  19.452   0.366   8.545 -0.3191 -0.2572  0.1133
98930W        W42024  16.770   2.721   8.730 -0.1092  0.2246 -0.1684
98931W        W42025  16.793  33.468   6.760 -0.0768 -0.2583 -0.0166
98932W        W42026  16.984   3.298   7.508 -0.0347 -0.0935 -0.0548
98933W        W42027  13.501   0.688   9.544  0.1759 -0.2361  0.0704
98934W        W42028  17.523   1.803   8.335 -0.3629 -0.1140  0.1711
98935W        W42029  18.075  34.586   9.643 -0.1579 -0.0072 -0.0752
98936W        W42030  16.417   2.240   6.518  0.1300  0.0155 -0.2353
98937W        W42031  16.504   0.207   8.562  0.0724  0.0070  0.3057
98938W        W42032  16.691   2.983   9.220  0.2697  0.2468 -0.2574
98939W        W42033  16.681   3.285   9.944  0.2823  0.0455 -0.0606
98940W        W42034  18.154   3.504   9.270 -0.0513 -0.1972 -0.1378
98941W        W42035  15.803  33.732   7.934 -0.2961  0.0416 -0.0053
98942W        W42036  18.118  34.245   8.594  0.1940  0.1299  0.1880
98943W        W42037  15.820  34.382  10.209 -0.3759 -0.2131 -0.0030
98944W        W42038  16.531   1.498   9.450 -0.2744 -0.1743 -0.2193
98945W        W42039  17.070  34.156   9.483  0.1133 -0.0690  0.2480
98946W        W42040  16.986   1.868  10.044  0.0240  0.3067 -0.0445
98947W        W42041  15.078   0.365   9.542  0.3622  0.2709  0.0720
98948W        W42042  16.891   1.214   7.430  0.1614 -0.2047  0.1635
98949W        W42043  16.955   1.188   9.407 -0.1097 -0.0014 -0.2945
98950W        W42044  15.164  34.222   8.200 -0.4151 -0.2266  0.1432
98951W        W42045  16.769  34.497   7.740  0.0039  0.0930 -0.0755
98952W        W42046  16.031   0.206   8.829  0.2346  0.0702 -0.1740
98953W        W42047  17.545   3.547   9.564 -0.1794  0.0606  0.1898
98954W        W42048  15.830   1.173   9.500 -0.1090  0.0243  0.0898
98955W        W42049  18.283   2.675   7.540 -0.1260  0.0022  0.1147
98956W        W42050  17.852   1.709   8.809 -0.2163  0.0501 -0.1565
98957W        W42051  15.897   1.616   7.323  0.0877  0.2878  0.4817
98958W        W42052  17.964   1.632   7.523  0.1577  0.0136  0.3514
98959W        W42053  18.035   3.644   8.438 -0.3234  0.2469  0.2092
98960W        W42054  15.771  34.369   9.270 -0.0039 -0.4473 -0.1479
98961W        W42055  17.637   3.023   8.533 -0.0080  0.3464 -0.1427
98962W        W42056  19.129   1.781   8.745  0.0033 -0.1624  0.0364
98963W        W42057  16.114  32.693   8.487  0.1053 -0.2441  0.1041
98964W        W42058  15.226   0.305   8.956 -0.0050  0.0743  0.0048
98965W        W42059  15.246   2.509   7.499 -0.1809 -0.0056 -0.2138
98966W        W42060  14.690   0.382  11.600 -0.3585  0.3620  0.3043
98967W        W42061  16.884   2.415   8.213 -0.1410 -0.2155 -0.0529
98968W        W42062  17.054   3.331   9.439 -0.3214  0.3185 -0.1933
98969W        W42063  15.228   0.193   7.430  0.1233 -0.6165  0.4341
98970W        W42064  16.503   1.871   8.086  0.0991  0.1668 -0.0883
98971W        W42065  16.372   2.239   8.551  0.1284 -0.1248  0.1722
98972W        W42066  17.972   1.549   8.325 -0.0025  0.0384 -0.1433
98973W        W42067  16.812   0.961   7.943  0.1299 -0.0955  0.2022
98974W        W42068  18.416   4.050   9.211  0.2636  0.2627  0.0005
98975W        W42069  16.306  33.841   8.880  0.3933  0.2486 -0.0517
98976W        W42070  18.888   0.128  10.165  0.0904  0.0198  0.1617
98977W        W42071  17.611  34.095   8.777  0.1763 -0.3223 -0.1135
98978W        W42072  16.879   4.482   9.029  0.1691  0.2337  0.1172
98979W        W42073  13.310   1.107   7.627 -0.2003  0.0709 -0.1907
98980W        W42074  15.342   2.060   7.819  0.1700 -0.1896 -0.1324
98981W        W42075  15.436   2.129   9.478  0.0501 -0.1031  0.1945
98982W        W42076  15.381   0.643   8.299  0.1795  0.0633 -0.1123
98983W        W42077  15.695  34.302   7.322  0.0960  0.0361 -0.2929
98984W        W42078  18.392   2.416   8.414  0.1353 -0.1721  0.0097
98985W        W42079  15.907  34.574   7.887 -0.2304 -0.2930 -0.2059
98986W        W42080  14.640  34.545   8.737  0.0170 -0.0687  0.0978
98987W        W42081  17.679   2.062   7.256 -0.2639 -0.0529  0.1304
98988W        W42082  17.167   2.404   7.700 -0.4547 -0.1524  0.0312
98989W        W42083  15.695   0.376   7.372  0.2598 -0.0308 -0.2431
98990W        W42084  14.228   2.162   7.855  0.1458  0.2752 -0.1374
98991W        W42085  14.400  34.036   7.507 -0.0380  0.0873 -0.4744
98992W        W42086  17.077   1.953   8.167  0.0744  0.1363  0.0784
98993W        W42087  15.317   2.105   8.303  0.3092  0.1306  0.2525
98994W        W42088  17.395   3.297   6.598  0.3625 -0.0928 -0.0635
98995W        W42089  14.402  32.818   9.811 -0.2918  0.0068  0.1281
98996W        W42090  17.477   1.216   8.450  0.2062 -0.3602 -0.0193
98997W        W42091  17.947   2.650   8.317  0.2398  0.0731  0.1598
98998W        W42092  16.530  34.222   9.647 -0.0634 -0.0292  0.2760
98999W        W42093  16.729   0.372   7.691  0.1285  0.1844 -0.0850
99000W        W42094  18.468   1.325   8.438 -0.1433  0.0113 -0.2062
99001W        W42095  16.113  34.619   8.396 -0.0928  0.0947 -0.3182
99002W        W42096  17.042   0.478   8.653  0.0056  0.0468  0.0194
99003W        W42097  16.854   2.358   7.089 -0.1802 -0.2210 -0.1621
99004W        W42098  15.065   0.794   8.653 -0.1692  0.1349  0.0786
99005W        W42099  15.898   0.904   8.511  0.0776  0.2925  0.0127
99006W        W42100  16.572   2.482   9.460  0.1453 -0.1081  0.4052
99007W        W42101  15.604   1.173   7.203 -0.1846  0.2891 -0.0592
99008W        W42102  18.535   0.877   8.058 -0.2326  0.1076  0.1441
99009W        W42103  15.918   3.505   9.455 -0.0875  0.2820  0.1193
99010W        W42104  15.568  34.669   8.768 -0.0747  0.0098 -0.4194
99011W        W42105  18.396  33.847   9.817  0.1774  0.2342  0.0398
99012W        W42106  13.258  34.385   9.866  0.0244  0.2307  0.1439
99013W        W42107  15.650   0.245   9.255 -0.2373 -0.2108  0.0082
99014W        W42108  17.411   1.901   7.833 -0.3363 -0.2476  0.1559
99015W        W42109  17.548   2.539   9.407 -0.1499 -0.0847  0.1694
99016W        W42110  15.775  33.102   9.220  0.2625 -0.0098 -0.1707
99017W        W42111  18.235  33.486   7.330 -0.1954 -0.0641 -0.1751
99018W        W42112  16.886   3.417   8.976 -0.2545 -0.4208  0.0029
99019W        W42113  16.650   1.277   9.021  0.2397  0.0097  0.0639
99020W        W42114  13.919   5.974   3.287  0.0984 -0.1017 -0.0740
99021W        W42115  15.920   4.866   2.822  0.0010 -0.2653 -0.1871
99022W        W42116  16.232   4.057   0.681  0.0192 -0.1182  0.2272
99023W        W42117  18.528   7.355   1.193 -0.2546  0.1612  0.4189
99024W        W42118  15.192   4.128   1.620  0.1431  0.1730 -0.0781
99025W        W42119  16.450   6.686  31.485 -0.0212  0.1348 -0.0375
99026W        W42120  14.340   2.745   2.553 -0.0267  0.0296 -0.0889
99027W        W42121  18.245   6.079   3.196 -0.3693  0.0716 -0.1520
99028W        W42122  17.097   7.335   1.721 -0.2654  0.0508  0.1638
99029W        W42123  16.279   7.097  30.891 -0.1394  0.0276 -0.1115
99030W        W42124  16.520   4.186   3.200 -0.1223 -0.0568 -0.1320
99031W        W42125  14.581   5.840   2.680  0.1143 -0.2421  0.0827
99032W        W42126  14.793   4.468   0.079  0.0962 -0.1623  0.0905
99033W        W42127  14.290   2.490   1.081  0.0938 -0.3579 -0.2058
99034W        W42128  16.657   4.063   1.930  0.3011 -0.0870  0.0988
99035W        W42129  15.162   5.254   0.998 -0.3938  0.4113 -0.2498
99036W        W42130  15.421   4.966   2.869  0.1094  0.4914  0.2125
99037W        W42131  16.114   5.277   1.304 -0.1739  0.1263 -0.1631
99038W        W42132  17.011   6.561   0.631  0.1157 -0.0868  0.0299
99039W        W42133  17.016   3.425   1.851  0.3277  0.0520  0.1273
99040W        W42134  17.076   3.123   2.228 -0.0090 -0.1251  0.0364
99041W        W42135  15.980   5.942   0.408  0.0350  0.1184  0.1492
99042W        W42136  12.498   3.643  30.463 -0.1170  0.0698 -0.1493
99043W        W42137  13.698   5.737   3.711 -0.1207 -0.0190  0.1940
99044W        W42138  14.139   5.676   2.879 -0.2502  0.1620 -0.1444
99045W        W42139  17.238   5.669   0.673  0.0484 -0.0543 -0.1833
99046W        W42140  16.833   4.780   1.472 -0.0454  0.3231 -0.2803
99047W        W42141  15.951   7.193   1.108  0.0415  0.1407 -0.2910
99048W        W42142  15.824   6.359   2.556  0.1129  0.1869  0.0644
99049W        W42143  16.474   3.394   2.918  0.0369  0.2881  0.2476
99050W        W42144  15.266   5.417   1.986 -0.0425 -0.2168 -0.2206
99051W        W42145  14.319   6.357   1.297 -0.1381  0.0570 -0.2053
99052W        W42146  14.999   4.873   1.992 -0.1410 -0.2432  0.1170
99053W        W42147  17.612   7.400   1.089 -0.0161 -0.2712  0.1880
99054W        W42148  18.061   7.183   3.104 -0.2467  0.2037  0.0769
99055W        W42149  17.228   5.522   3.274 -0.1388  0.2256 -0.2911
99056W        W42150  16.144   6.773   0.899  0.2064  0.0200  0.1184
99057W        W42151  17.595   6.087   2.393  0.1268  0.2660 -0.2103
99058W        W42152  15.465   7.457   3.447 -0.2719  0.3394  0.3004
99059W        W42153  14.680   4.764   2.301  0.2161 -0.0079 -0.0107
99060W        W42154  16.459   4.934   2.656  0.1244 -0.1251 -0.1892
99061W        W42155  15.302   6.296   0.946 -0.1655 -0.0390 -0.0545
99062W        W42156  16.930   6.025   2.002 -0.2224 -0.3575 -0.0762
99063W        W42157  14.836   4.837   3.257 -0.0104 -0.2327 -0.0491
99064W        W42158  12.950   6.682   2.475  0.0582  0.0359  0.2043
99065W        W42159  18.053   4.044   3.098 -0.2189 -0.2393  0.1144
99066W        W42160  15.843   5.810   0.856 -0.0807  0.0282  0.1544
99067W        W42161  16.423   4.469   0.533  0.0421 -0.0263 -0.3858
99068W        W42162  13.876   5.020  31.063  0.1165 -0.4476  0.2237
99069W        W42163  18.127   5.229   0.445 -0.0492 -0.4672  0.0524
99070W        W42164  16.371   2.634   0.822  0.3105 -0.2798 -0.0728
99071W        W42165  17.364   6.665   1.644  0.0051  0.2935 -0.2148
99072W        W42166  14.526   4.638   1.744 -0.2084 -0.1176  0.2957
99073W        W42167  17.302   4.476   2.559 -0.0309  0.1395 -0.2188
99074W        W42168  15.841   6.376   0.866 -0.0552  0.1029  0.1592
99075W        W42169  15.443   4.090   2.359  0.3579  0.0081 -0.0257
99076W        W42170  14.531   6.454   3.389  0.1608  0.0926  0.1564
99077W        W42171  12.715   6.072   2.057 -0.1142  0.0425 -0.3246
99078W        W42172  15.975   6.537   0.387  0.0402 -0.0956 -0.0891
99079W        W42173  18.208   7.947   0.585 -0.0850 -0.2877  0.0201
99080W        W42174  17.552   8.775  31.204  0.1027  0.0128 -0.3919
99081W        W42175  14.440   5.298   0.912  0.0630 -0.1219  0.1388
99082W        W42176  14.016   6.475   4.186 -0.2938  0.3610 -0.0842
99083W        W42177  14.414   5.609   1.912  0.1159 -0.2269  0.2222
99084W        W42178  15.885   3.758   1.047  0.0293 -0.0007 -0.5483
99085W        W42179  17.203   4.972   3.378 -0.3611 -0.0831 -0.2731
99086W        W42180  13.549   7.150   3.901  0.0677  0.1660 -0.5322
99087W        W42181  18.310   5.486   0.847  0.1205  0.3382 -0.1451
99088W        W42182  15.484   6.843   2.954  0.2011 -0.1472  0.0419
99089W        W42183  16.497   5.411   2.813  0.2334 -0.0660 -0.3572
99090W        W42184  17.468   5.685   1.449  0.1284 -0.1017 -0.2065
99091W        W42185  18.418   4.127   1.072 -0.1257  0.1575 -0.2411
99092W        W42186  16.691   3.013   2.592 -0.2092  0.0746  0.4465
99093W        W42187  17.058   5.280   1.483  0.2487 -0.1843 -0.1210
99094W        W42188  16.492   5.826   1.848 -0.1317  0.1558 -0.2376
99095W        W42189  17.564   5.201   3.618  0.3720 -0.0304 -0.0300
99096W        W42190  17.786   5.335   0.800 -0.1404  0.0716  0.3109
99097W        W42191  15.180   6.316   1.814  0.2042 -0.1624  0.2060
99098W        W42192  16.566   3.094   1.951 -0.1448 -0.4097  0.1915
99099W        W42193  16.077   6.794   3.793 -0.1655  0.0112  0.2447
99100W        W42194  15.499   4.901   0.663  0.1049 -0.0209  0.2153
99101W        W42195  13.849   6.967   3.043  0.0865 -0.4273 -0.1886
99102W        W42196  16.126   4.875   0.370  0.0661 -0.2164 -0.0596
99103W        W42197  16.205   2.765   3.735 -0.0140  0.0376  0.0452
99104W        W42198  14.995   6.153   2.812  0.3389  0.3188  0.3139
99105W        W42199  17.517   4.759   1.836  0.0895  0.0329  0.2097
99106W        W42200  14.250   4.025   2.934  0.0547  0.3769 -0.1342
99107W        W42201  18.468   3.552  31.948  0.1214 -0.4845  0.1085
99108W        W42202  16.368   6.304   2.567  0.4171  0.0185  0.0750
99109W        W42203  16.662   6.405   0.247  0.2625 -0.1424  0.1967
99110W        W42204  16.652   4.022   0.149 -0.1828  0.0257 -0.2200
99111W        W42205  16.818   7.243   0.472 -0.4888 -0.0453  0.0231
99112W        W42206  15.218   5.771   3.011 -0.1679  0.1316  0.2967
99113W        W42207  14.784   5.049   1.415  0.4096  0.2359  0.2320
99114W        W42208  14.878   3.420   2.074  0.0993 -0.0337  0.0429
99115W        W42209  14.686   3.677   2.671  0.3050 -0.0859 -0.5053
99116W        W42210  17.166   5.689   4.569  0.1882  0.1326  0.3437
99117W        W42211  13.909   2.702   0.268  0.0949 -0.1952  0.2367
99118W        W42212  16.364   4.411   1.042 -0.0119 -0.1521 -0.0229
99119W        W42213  15.162   3.080   1.534 -0.1298 -0.0362  0.2417
99120W        W42214  15.303   5.767   0.817  0.0250  0.1368  0.3392
99121W        W42215  18.499   4.611   2.948  0.1390  0.1665 -0.0901
99122W        W42216  16.514   6.187   1.513 -0.0510 -0.1416  0.1041
99123W        W42217  17.755   5.652   3.757 -0.1470  0.0443 -0.0562
99124W        W42218  17.186   7.564   1.301  0.1171  0.0108 -0.1223
99125W        W42219  14.787   3.890   3.168 -0.2187 -0.0620  0.2156
99126W        W42220  15.783   4.345   0.501  0.3750 -0.0363  0.0356
99127W        W42221  15.463   5.809   1.740 -0.3695 -0.2379 -0.1184
99128W        W42222  15.282   6.428   2.539 -0.0484 -0.2083 -0.0446
99129W        W42223  14.229   4.438   0.279 -0.0942  0.2744  0.3129
99130W        W42224  18.107   7.180   1.428  0.0260  0.1634 -0.0949
99131W        W42225  15.508   5.979   2.644 -0.1000  0.0960 -0.0057
99132W        W42226  14.397   4.931   3.029 -0.1995 -0.5098 -0.0751
99133W        W42227  17.836   3.651   2.892  0.0622  0.2957  0.4361
99134W        W42228  17.619   3.007   3.233 -0.1586  0.2933  0.0470
99135W        W42229  16.885   4.689   0.524 -0.2553  0.4150  0.0106
99136W        W42230  14.402   3.932   1.093  0.0584 -0.2925  0.3917
99137W        W42231  16.410   6.562   3.005  0.3718 -0.1317 -0.4502
99138W        W42232  15.624   6.479   1.685 -0.3715  0.1548 -0.2218
99139W        W42233  13.736   6.927   2.513  0.1127 -0.2030 -0.0198
99140W        W42234  14.884   6.646   2.817  0.3407 -0.0232 -0.1428
99141W        W42235  17.536   3.905   1.372  0.5823  0.1344 -0.2642
99142W        W42236  12.903   5.720   4.617  0.2126  0.1770 -0.1915
99143W        W42237  17.234   2.597   2.671  0.2687 -0.0141 -0.0942
99144W        W42238  15.927   5.631  30.472  0.2855  0.0588 -0.0918
99145W        W42239  14.314   6.240   2.979 -0.2178  0.1867 -0.2148
99146W        W42240  16.911   4.471   0.995 -0.3639  0.0682 -0.1927
99147W        W42241  17.421   3.637  31.673 -0.4098  0.1985  0.0128
99148W        W42242  17.021   3.075   3.606 -0.0342  0.3607  0.2495
99149W        W42243  17.329   6.172   0.856 -0.1254 -0.1046 -0.2368
99150W        W42244  16.883   4.209   0.569  0.1286  0.0172 -0.1089
99151W        W42245  16.932   4.003  31.683 -0.0340  0.0807 -0.1510
99152W        W42246  13.632   6.190   4.037  0.4844 -0.2655 -0.2339
99153W        W42247  16.378   5.068   0.828 -0.1699 -0.0309 -0.0015
99154W        W42248  16.553   5.384   3.478 -0.1532  0.1207 -0.0768
99155W        W42249  15.708   3.987   0.072  0.1173  0.1696  0.1436
99156W        W42250  17.446   6.224   1.956 -0.2024 -0.2780  0.1904
99157W        W42251  15.467   5.500   3.347  0.0997 -0.0712 -0.0447
99158W        W42252  16.358   4.383   2.485  0.0758  0.1929 -0.1278
99159W        W42253  15.354   7.291   0.642 -0.1713  0.1636 -0.2109
99160W        W42254  14.524   3.667   1.696  0.2437  0.1626 -0.1737
99161W        W42255  14.994   5.042  31.201 -0.1611  0.0005  0.0566
99162W        W42256  16.289   3.692   1.883 -0.0571 -0.1318 -0.1334
99163W        W42257  16.329   6.800   0.184  0.0733 -0.1111 -0.1187
99164W        W42258  16.667   3.935   0.965 -0.1970  0.2401  0.1685
99165W        W42259  17.278   3.270   0.622  0.0790  0.0152  0.1463
99166W        W42260  15.891   4.417   3.282  0.0204  0.0428 -0.2638
99167W        W42261  18.223   4.400   3.450 -0.1592  0.0033  0.1485
99168W        W42262  17.487   3.628   0.973 -0.1125  0.1487 -0.3861
99169W        W42263  15.944   5.413   3.272 -0.1592 -0.0083 -0.0592
99170W        W42264  16.034   4.277  31.045 -0.0555  0.1120  0.2853
99171W        W42265  16.083   4.107   2.969 -0.3482  0.2137 -0.0025
99172W        W42266  14.140   5.371   3.751  0.3357 -0.5023 -0.2811
99173W        W42267  15.168   7.255   2.949 -0.2193 -0.1307  0.2069
99174W        W42268  17.027   4.165   3.356  0.0218 -0.0111 -0.2469
99175W        W42269  16.126   5.794   2.672 -0.3512  0.0972  0.0384
99176W        W42270  17.125   3.737   4.423  0.0376 -0.0045 -0.3066
99177W        W42271  16.642   3.769   1.501 -0.0803 -0.0157  0.0491
99178W        W42272  16.293   5.679   0.946  0.1937  0.1427 -0.1176
99179W        W42273  14.784   6.020   0.129  0.0313 -0.4643 -0.0161
99180W        W42274  15.247   2.867   2.932 -0.2012 -0.0335  0.6180
99181W        W42275  14.076   6.157   3.711  0.0182 -0.1132  0.1108
99182W        W42276  13.945   5.030   0.641  0.3940  0.1805 -0.3093
99183W        W42277  17.382   5.494   4.116  0.3742 -0.0715  0.0448
99184W        W42278  15.777   5.388   1.792 -0.0074  0.2658 -0.2146
99185W        W42279  16.540   3.900   2.807  0.5354  0.0879  0.0601
99186W        W42280  14.354   6.789   3.093  0.1624  0.0906  0.0712
99187W        W42281  15.817   4.795  30.310  0.2759 -0.1815 -0.0637
99188W        W42282  16.503   5.852   2.313  0.1573 -0.3433 -0.1039
99189W        W42283  17.079   4.043   1.170 -0.1775 -0.0105  0.0775
99190W        W42284  18.856   5.531  31.555 -0.1182  0.1349  0.2791
99191W        W42285  14.986   3.546   1.606  0.2397 -0.2188 -0.1848
99192W        W42286  15.349   3.711   1.898  0.1499 -0.2149 -0.1506
99193W        W42287  14.502   5.961   3.850  0.0784 -0.2895 -0.1764
99194W        W42288  16.315   3.668   3.282 -0.0862 -0.0592 -0.1007
99195W        W42289  17.340   4.712   0.776 -0.0799 -0.2059  0.0025
99196W        W42290  16.813   6.496   2.678 -0.0147  0.0153 -0.2154
99197W        W42291  16.889   5.892   4.029  0.1711  0.2447 -0.0996
99198W        W42292  14.830   5.354   1.755 -0.0785 -0.2422 -0.0995
99199W        W42293  17.674   4.890   2.710 -0.0907  0.1062  0.2030
99200W        W42294  15.329   5.056   2.371 -0.3202 -0.0598 -0.0659
99201W        W42295  14.108   5.030   1.607 -0.0946 -0.1024  0.3740
99202W        W42296  15.829   7.103   3.429  0.1969 -0.1550  0.0497
99203W        W42297  15.619   4.984  31.727  0.0099  0.1183  0.0186
99204W        W42298  14.592   6.369   2.542 -0.1704 -0.1818  0.3603
99205W        W42299  17.233   3.699   3.578  0.1940 -0.3566 -0.1611
99206W        W42300  16.415   3.946   2.306  0.4086  0.5098  0.0939
99207W        W42301  15.877   4.896   3.353 -0.0393 -0.1282 -0.1568
99208W        W42302  14.856   3.879   1.307 -0.2820  0.0929  0.0655
99209W        W42303  16.553   3.272   1.446 -0.0399 -0.1945 -0.4285
99210W        W42304  17.193   4.374   2.019  0.1758 -0.0670  0.0558
99211W        W42305  17.044   4.012   2.779 -0.1155  0.1504  0.3113
99212W        W42306  15.115   5.513   4.288 -0.0295  0.1445  0.0292
99213W        W42307  14.962   2.814   3.391 -0.3265  0.1500  0.0057
99214W        W42308  18.692   8.111   0.611 -0.2703 -0.1242 -0.0701
99215W        W42309  17.199   4.113   3.832 -0.3483  0.0024 -0.0508
99216W        W42310  14.502   4.748   0.549  0.0723 -0.1235  0.1770
99217W        W42311  12.757   4.521   2.461 -0.0821 -0.3388  0.4036
99218W        W42312  14.764   4.270   0.680  0.0919  0.0095 -0.2726
99219W        W42313  17.381   3.145   1.799 -0.1502 -0.0407  0.2305
99220W        W42314  13.640   5.573   2.999  0.0515 -0.0675  0.0229
99221W        W42315  15.587   6.034   1.262 -0.0916  0.2064  0.0421
99222W        W42316  13.947   7.114   3.606 -0.0212  0.0790 -0.1154
99223W        W42317  19.333   3.519   0.054  0.0353  0.3341 -0.0624
99224W        W42318  15.978   5.806  31.915  0.0038  0.2044 -0.0643
99225W        W42319  15.607   5.657   2.252 -0.3442  0.0239  0.0051
99226W        W42320  17.754   3.551   3.392 -0.0740 -0.1862 -0.1700
99227W        W42321  17.872   5.394   1.239  0.1702 -0.1779  0.0241
99228W        W42322  18.075   3.185   3.174  0.2238 -0.2488 -0.0940
99229W        W42323  14.938   3.937   2.230 -0.1270 -0.0241 -0.0997
99230W        W42324  16.924   5.627   2.848  0.4969 -0.1461 -0.0302
99231W        W42325  14.308   4.634   2.665  0.1265 -0.0836 -0.2194
99232W        W42326  16.875   6.784   4.335 -0.3627 -0.2717 -0.3574
99233W        W42327  14.944   5.681   3.465  0.6076 -0.1457 -0.0191
99234W        W42328  15.774   3.688   2.266  0.0828  0.0077  0.2029
99235W        W42329  15.476   4.424   1.380  0.1356 -0.0519 -0.1906
99236W        W42330  15.514   3.242   2.674  0.1409 -0.1434  0.1288
99237W        W42331  16.873   6.440   1.767 -0.1414 -0.0216 -0.2891
99238W        W42332  17.393   6.059   0.353 -0.2844  0.5079  0.2106
99239W        W42333  16.770   5.423   1.074 -0.1576  0.0308  0.0515
99240W        W42334  13.615   6.015   2.740 -0.1091  0.3529 -0.0765
99241W        W42335  17.683   5.279   1.728 -0.1315 -0.1713  0.4145
99242W        W42336  16.115   4.929  31.766  0.0174  0.0669  0.1609
99243W        W42337  17.106   5.037   1.911 -0.1610 -0.1563  0.2323
99244W        W42338  15.203   1.619   3.498  0.0015  0.0614 -0.0802
99245W        W42339  16.040   4.610   2.115 -0.1479 -0.0974 -0.1203
99246W        W42340  16.170   2.645   2.045  0.1575 -0.1117  0.2620
99247W        W42341  18.160   2.826   2.819 -0.1966 -0.2093 -0.0497
99248W        W42342  17.959   4.546   2.935 -0.2286 -0.1860  0.1497
99249W        W42343  14.795   3.451   3.398  0.2542  0.1189  0.2166
99250W        W42344  14.319   2.860   3.584 -0.2831  0.0432  0.0378
99251W        W42345  16.917   5.207   2.572 -0.2280  0.2164 -0.3237
99252W        W42346  18.252   4.764   0.648 -0.1387  0.1911 -0.1037
99253W        W42347  18.239   4.932   3.291  0.1106 -0.0090 -0.2424
99254W        W42348  18.214   5.980   0.734 -0.2137 -0.2871  0.2407
99255W        W42349  16.261   4.739  31.311  0.0250 -0.1736 -0.1421
99256W        W42350  15.046   5.256   3.095 -0.0285 -0.0900 -0.0507
99257W        W42351  18.280   4.571   4.718 -0.1374  0.2545  0.0353
99258W        W42352  15.303   3.590   0.733 -0.2890 -0.2080 -0.2557
99259W        W42353  17.421   3.852   3.107 -0.0153  0.2946 -0.0701
99260W        W42354  17.023   6.396  31.135 -0.2864 -0.1957  0.0391
99261W        W42355  18.181   5.499   3.208  0.0837 -0.1089  0.0005
99262W        W42356  18.710   6.699   0.157  0.2146  0.0679 -0.0005
99263W        W42357  15.151   4.009   2.782 -0.2685 -0.1557  0.2112
99264W        W42358  14.827   6.798   3.638  0.1348  0.1803  0.0461
99265W        W42359  14.980   4.505  31.501 -0.1817  0.1743  0.4850
99266W        W42360  16.197   6.115   1.141  0.3141 -0.1018  0.0929
99267W        W42361  15.722   5.842   3.075 -0.3771  0.0426  0.2259
99268W        W42362  17.895   4.673   3.823  0.0929 -0.0403  0.2730
99269W        W42363  15.962   4.055  31.486 -0.2007 -0.2555 -0.3833
99270W        W42364  17.684   5.083   4.042  0.0521 -0.1439 -0.2546
99271W        W42365  15.479   7.163   0.059  0.1674  0.2758 -0.0340
99272W        W42366  16.481   3.425   2.405  0.1687  0.0155  0.0094
99273W        W42367  15.476   6.674   2.145 -0.1053 -0.0663  0.0241
99274W        W42368  13.256   5.317   3.856 -0.2413 -0.0419  0.0814
99275W        W42369  15.933   5.977   2.016  0.1017 -0.2036  0.0416
99276W        W42370  15.612   3.845   2.781 -0.2464  0.1271 -0.0093
99277W        W42371  16.893   3.651   2.301 -0.2479 -0.1257  0.0413
99278W        W42372  16.519   5.139   2.041  0.1936 -0.2659 -0.0730
99279W        W42373  16.910   4.229   4.296  0.2068 -0.2511  0.1460
99280W        W42374  16.051   5.724   1.503 -0.1721 -0.0250  0.0908
99281W        W42375  15.168   4.443   3.108  0.0295  0.1316 -0.1239
99282W        W42376  16.000   6.658   3.298  0.2885  0.1393 -0.0563
99283W        W42377  17.437   5.643   2.828 -0.1284 -0.0572 -0.2714
99284W        W42378  15.693   5.451   2.791 -0.0724  0.1800 -0.1497
99285W        W42379  14.789   4.563   4.126 -0.1837 -0.1453  0.0893
99286W        W42380  16.170   5.040   3.707  0.2141  0.0395  0.0185
99287W        W42381  16.092   5.252   2.562  0.1089 -0.2230 -0.1937
99288W        W42382  16.109   3.678   2.623 -0.0634  0.2865  0.0149
99289W        W42383  15.898   6.423  31.552 -0.3144 -0.3214 -0.1754
99290W        W42384  13.513   7.245   3.225 -0.0529 -0.2458  0.0695
99291W        W42385  13.153   3.643   2.711  0.0834 -0.1198  0.3675
99292W        W42386  14.802   6.654   0.099  0.0941  0.1135 -0.0376
99293W        W42387  17.101   5.602   2.318  0.0604 -0.0077 -0.1891
99294W        W42388  16.248   5.278  30.404 -0.3239  0.0708 -0.0110
99295W        W42389  17.912   7.433   1.990 -0.3221  0.2665 -0.1612
99296W        W42390  15.770   4.944   1.206 -0.1277 -0.0674 -0.0546
99297W        W42391  14.163   5.352   3.261 -0.0107 -0.1416  0.1496
99298W        W42392  13.829   6.853   1.248 -0.0598 -0.2161  0.1895
99299W        W42393  16.567   6.996   2.012  0.3119  0.1975  0.0154
99300W        W42394  14.382   6.501   2.075 -0.0515 -0.3332 -0.1225
99301W        W42395  16.705   5.621   4.866 -0.3565 -0.0647 -0.0849
99302W        W42396  16.647   4.317   1.464  0.0105  0.0977 -0.1697
99303W        W42397  17.938   7.002   0.997 -0.0555 -0.2231  0.1698
99304W        W42398  17.959   4.344   1.483 -0.5725  0.1120  0.2258
99305W        W42399  16.808   5.901   3.430 -0.0291  0.0035  0.1190
99306W        W42400  14.497   5.128   1.988 -0.3133  0.0899  0.1754
99307W        W42401  14.453   2.566   0.141 -0.2601 -0.0432  0.1980
99308W        W42402  14.958   4.745   3.703  0.1459 -0.1016 -0.0299
99309W        W42403  18.075   3.021   4.138  0.0793 -0.1257  0.3668
99310W        W42404  15.539   6.649   3.750  0.1197  0.4264  0.4423
99311W        W42405  17.820   5.689   0.489 -0.2229 -0.0627  0.3427
99312W        W42406  16.685   6.068   0.960 -0.1012 -0.0526 -0.1489
99313W        W42407  17.695   5.510   2.359  0.4570  0.2657 -0.1911
99314W        W42408  17.659   3.156   2.685  0.3862 -0.0559  0.2606
99315W        W42409  15.004   6.122   0.587  0.0665 -0.2013 -0.2349
99316W        W42410  16.862   4.786   2.341  0.1329 -0.0697  0.0161
99317W        W42411  15.016   6.048   1.271 -0.3309  0.0006 -0.1024
99318W        W42412  15.086   5.934   2.358 -0.3105  0.2643 -0.0842
99319W        W42413  15.137   5.232   3.705 -0.0066  0.0263  0.0573
99320W        W42414  14.472   5.119   2.555  0.0257 -0.2857  0.3949
99321W        W42415  17.871   4.865   1.519 -0.0823 -0.0566 -0.4737
99322W        W42416  15.845   4.641   3.822 -0.0792  0.1779 -0.1993
99323W        W42417  18.979   3.004   3.032  0.0383  0.1079 -0.2015
99324W        W42418  15.646   5.525   1.316 -0.1924  0.0599 -0.0639
99325W        W42419  16.294   4.806   1.299  0.2149  0.2642 -0.0975
99326W        W42420  15.929   4.140   2.523  0.1189  0.2052  0.1554
99327W        W42421  15.153   4.364   2.043  0.1952  0.1982  0.2801
99328W        W42422  15.355   5.085   1.587  0.0750  0.4285 -0.0902
99329W        W42423  17.446   4.414   3.081  0.1951  0.1625  0.2125
99330W        W42424  16.940   4.482  31.924 -0.2535  0.1485 -0.0849
99331W        W42425  16.591   6.596   3.950 -0.3392 -0.0389  0.2724
99332W        W42426  13.640   3.419   2.555  0.4054 -0.0129  0.2137
99333W        W42427  16.872   5.496   1.905  0.3971  0.2357  0.0650
99334W        W42428  14.943   5.897   1.763 -0.2167 -0.5668  0.0735
99335W        W42429  16.110   5.533   3.747 -0.2425  0.1667 -0.1483
99336W        W42430  17.202   6.994   4.017 -0.2853  0.2735  0.0786
99337W        W42431  14.305   3.481   0.751  0.3994  0.0265 -0.1482
99338W        W42432  17.865   6.824   0.463  0.0211 -0.3728 -0.1784
99339W        W42433  17.333   4.997   2.321 -0.0696 -0.1113 -0.1329
99340W        W42434  17.001   7.911  31.456 -0.2441  0.1162  0.1302
99341W        W42435  17.958   5.271   2.771 -0.0130  0.1099  0.1826
99342W        W42436  17.250   6.997   1.299 -0.3975 -0.3041 -0.2442
99343W        W42437  13.906   4.500   1.916 -0.0629  0.4243  0.2236
99344W        W42438  16.520   6.807   3.444 -0.1086  0.0833  0.1859
99345W        W42439  17.810   6.567   2.178 -0.0821 -0.1048  0.3978
99346W        W42440  15.788   3.389   1.878  0.0630  0.2320 -0.0314
99347W        W42441  15.673   4.673   2.478  0.1764 -0.0428  0.1027
99348W        W42442  14.122   6.099   1.832 -0.0695  0.1563  0.1245
99349W        W42443  17.203   4.895   2.826 -0.2084  0.2087  0.1034
99350W        W42444  17.469   3.250   3.659  0.5832 -0.0849  0.2310
99351W        W42445  15.473   7.781   0.738  0.0035 -0.1190  0.2600
99352W        W42446  18.253   3.700   3.414  0.1103  0.0082 -0.5413
99353W        W42447  14.906   6.303   3.663  0.0177  0.2996  0.0663
99354W        W42448  16.398   4.563   3.643 -0.3896 -0.1291 -0.0551
99355W        W42449  13.872   5.696   1.658  0.2523  0.0408  0.3759
99356W        W42450  15.553   4.357   2.828 -0.1516  0.1296  0.3657
99357W        W42451  14.970   4.637   1.546 -0.0606 -0.1791  0.1672
99358W        W42452  15.770   8.508   2.079 -0.0493 -0.1276  0.0702
99359W        W42453  17.012   6.525   1.286  0.1225 -0.2103  0.1033
99360W        W42454  16.268   5.078   3.150 -0.3237  0.0627  0.0634
99361W        W42455  16.465   4.582   1.889  0.1434 -0.0001 -0.0984
99362W        W42456  16.099   4.166   1.955  0.1662  0.1801  0.0025
99363W        W42457  18.259   3.814   0.578  0.2843 -0.0939  0.1181
99364W        W42458  18.103   4.527   0.217  0.0666  0.1997 -0.0588
99365W        W42459  13.921   5.098   2.726 -0.0948  0.1024  0.0727
99366W        W42460  14.581   4.349   1.296  0.1386 -0.1730 -0.0545
99367W        W42461  15.412   5.272  31.410  0.0182  0.0868  0.1533
99368W        W42462  15.109   5.493   2.627 -0.0787  0.1140 -0.2594
99369W        W42463  17.761   2.452   3.591 -0.0996  0.1713  0.1262
99370W        W42464  15.354   5.867   5.221 -0.0100  0.0081  0.1648
99371W        W42465  15.621   4.292   1.915  0.2550  0.0527  0.0117
99372W        W42466  16.551   5.254   1.536 -0.4348 -0.1190 -0.0933
99373W        W42467  16.820   6.843   0.058  0.0628  0.1969  0.4271
99374W        W42468  15.532   2.387   3.305 -0.1410 -0.0417  0.3448
99375W        W42469  13.483   4.431   2.174  0.1280  0.4453 -0.0280
99376W        W42470  16.567   5.766   1.329  0.0946  0.1368 -0.2922
99377W        W42471  16.359   6.253   2.062  0.0847  0.3002 -0.1618
99378W        W42472  15.978   3.191   2.428 -0.0831  0.1318 -0.1698
99379W        W42473  17.567   7.142   1.804  0.1724 -0.2800  0.0478
99380W        W42474  14.680   5.038   0.137  0.1267  0.1124  0.1235
99381W        W42475  16.546   4.821   4.128  0.0946 -0.2756 -0.2997
99382W        W42476  15.133   4.465   2.510  0.1078  0.1558  0.3334
99383W        W42477  14.237   3.113   1.083 -0.0037 -0.2269  0.2615
99384W        W42478  16.819   4.224   2.383 -0.3887  0.2973 -0.2350
99385W        W42479  16.577   6.756   0.606  0.1685  0.0519 -0.0352
99386W        W42480  18.317   5.497   2.396  0.1357  0.2480  0.0249
99387W        W42481  14.573   5.453   2.997 -0.0081  0.0745  0.3329
99388W        W42482  14.717   5.989   3.181 -0.0472  0.1297 -0.0901
99389W        W42483  13.984   3.425   4.359  0.0483  0.0986 -0.1887
99390W        W42484  16.278   5.319  31.939  0.0611 -0.0840  0.0686
99391W        W42485  16.607   6.014   2.918 -0.0042 -0.0041 -0.1152
99392W        W42486  17.520   6.486   0.485  0.1215 -0.1077  0.0679
99393W        W42487  17.686   4.170   2.702  0.1772 -0.1012 -0.2462
99394W        W42488  16.924   4.965   0.969 -0.0605  0.0730 -0.2263
99395W        W42489  13.683   3.155   4.037  0.0076  0.2774 -0.0892
99396W        W42490  15.446   5.667   4.734  0.4676 -0.1491 -0.0612
99397W        W42491  17.858   5.041   2.179  0.1376  0.0508 -0.1208
99398W        W42492  16.043   4.916   1.717 -0.3088 -0.0705  0.2082
99399W        W42493  16.940   6.067   0.513  0.0325 -0.0394  0.1059
99400W        W42494  17.453   6.752   0.901  0.3748  0.0147 -0.0309
99401W        W42495  14.651   4.194   2.683  0.1346  0.1567  0.3978
99402W        W42496  18.146   6.069   1.302  0.0881 -0.2810 -0.1197
99403W        W42497  16.471   3.967   4.050  0.0923  0.2688  0.0953
99404W        W42498  16.834   5.145   3.054 -0.2593  0.0890 -0.1709
99405W        W42499  16.777   4.676   3.320  0.6239 -0.0745 -0.0804
99406W        W42500  17.478   5.745   2.027 -0.1276  0.0016 -0.1063
99407W        W42501  17.025   5.783   1.532  0.1236  0.2234 -0.1262
99408W        W42502  17.750   6.201   3.126 -0.4287 -0.1841 -0.1143
99409W        W42503  17.506   5.915   4.129 -0.0385  0.0079  0.1195
99410W        W42504  15.986   6.819   2.833 -0.3707 -0.1342  0.1716
99411W        W42505  18.496   5.486   1.323 -0.2431  0.0015 -0.3757
99412W        W42506  14.386   3.802   2.210 -0.1660 -0.1089 -0.2296
99413W        W42507  17.703   4.531   2.286  0.5907 -0.2035  0.2459
99414W        W42508  15.371   6.025   3.432 -0.1065 -0.3051  0.0118
99415W        W42509  16.801   4.522   2.794 -0.0034  0.2313  0.3060
99416W        W42510  14.473   5.939   1.480 -0.0225 -0.0171  0.2145
99417W        W42511  17.878   5.799   1.655  0.2462  0.0032  0.1510
99418W        W42512  14.734   7.431   4.456 -0.0149 -0.0142 -0.2957
99419W        W42513  16.360   4.603   3.020 -0.0541  0.0139 -0.0949
99420W        W42514  15.442   6.769   6.170 -0.0026 -0.1215 -0.1747
99421W        W42515  16.937   5.285   4.270 -0.1696  0.0770  0.2368
99422W        W42516  17.442   3.544   4.753  0.1221  0.1656  0.2114
99423W        W42517  17.617   3.985   4.383 -0.1197  0.2113  0.0395
99424W        W42518  15.496   4.375   4.793  0.1343  0.0358  0.2780
99425W        W42519  18.251   7.623   5.214 -0.0934  0.5240 -0.0248
99426W        W42520  15.787   3.209   7.914  0.1941  0.3439 -0.0237
99427W        W42521  16.600   7.639   5.795  0.0858 -0.0652  0.3652
99428W        W42522  17.464   8.461   6.735 -0.0487 -0.1311 -0.4648
99429W        W42523  15.099   5.946   4.531 -0.4430 -0.1141  0.1332
99430W        W42524  15.723   4.977   7.239  0.2053 -0.1220  0.1356
99431W        W42525  15.424   6.521   6.644 -0.3839 -0.0787  0.3864
99432W        W42526  15.370   4.857   3.378 -0.3386  0.2822 -0.1303
99433W        W42527  13.540   3.463   5.050 -0.3084  0.1028  0.0317
99434W        W42528  16.452   4.958   6.102 -0.0060  0.0683 -0.1642
99435W        W42529  15.003   5.030   4.130 -0.0702 -0.0241  0.0906
99436W        W42530  15.467   4.970   4.185  0.0039  0.1685  0.0748
99437W        W42531  15.385   5.323   5.075  0.0383  0.3002 -0.1378
99438W        W42532  16.434   6.937   4.602 -0.0080  0.0797  0.2996
99439W        W42533  17.150   4.428   6.708  0.3259  0.3660  0.0683
99440W        W42534  17.481   4.743   6.467 -0.3021 -0.0957 -0.1851
99441W        W42535  16.013   6.921   4.821 -0.1408 -0.0862  0.0882
99442W        W42536  14.482   4.480   5.347 -0.2430  0.0020 -0.3522
99443W        W42537  15.197   4.002   5.421  0.0264 -0.2156 -0.0296
99444W        W42538  17.011   4.918   6.145 -0.1544  0.0443  0.1921
99445W        W42539  18.533   4.121   5.019  0.1446 -0.0996 -0.5614
99446W        W42540  17.393   4.871   4.923  0.0340 -0.0470 -0.4251
99447W        W42541  15.962   6.762   5.588  0.1796  0.0231 -0.0358
99448W        W42542  17.938   6.014   4.602 -0.1727  0.0478  0.2971
99449W        W42543  17.760   5.618   6.927  0.0970 -0.0576  0.0118
99450W        W42544  14.089   5.273   5.120  0.2604  0.1851 -0.1499
99451W        W42545  14.793   8.407   4.530 -0.1410  0.0250 -0.1107
99452W        W42546  14.523   6.962   4.890  0.1668 -0.0255 -0.0490
99453W        W42547  18.408   6.032   5.922 -0.0543 -0.1143 -0.1650
99454W        W42548  17.754   6.097   6.751 -0.0106  0.2501 -0.0270
99455W        W42549  17.047   8.342   8.575 -0.0074 -0.2340 -0.2394
99456W        W42550  14.837   4.773   5.011 -0.1880 -0.1799  0.0499
99457W        W42551  17.257   7.060   7.962 -0.0102 -0.2370 -0.0669
99458W        W42552  16.427   6.742   7.274 -0.1757  0.1647 -0.2348
99459W        W42553  16.342   5.743   5.202  0.0090 -0.2761  0.0754
99460W        W42554  16.394   5.876   6.218  0.2725 -0.0652 -0.1567
99461W        W42555  16.619   5.735   4.415 -0.1831  0.0773  0.1165
99462W        W42556  15.954   6.427   6.620 -0.2373 -0.0931 -0.0605
99463W        W42557  16.296   6.066   6.661 -0.0507  0.2697 -0.2070
99464W        W42558  13.706   6.459   5.411 -0.1826 -0.0630 -0.1079
99465W        W42559  17.884   4.817   7.371  0.2218 -0.2325 -0.0668
99466W        W42560  14.943   5.929   4.055 -0.1406 -0.2963  0.0169
99467W        W42561  17.237   5.142   5.300 -0.1303  0.2185 -0.2212
99468W        W42562  16.534   5.428   4.025 -0.0993 -0.0999  0.2025
99469W        W42563  18.016   3.901   3.781 -0.1578 -0.0221 -0.4842
99470W        W42564  16.668   3.537   4.293  0.0144  0.1248  0.4261
99471W        W42565  16.865   7.706   4.830 -0.2735  0.0612 -0.2392
99472W        W42566  16.746   4.430   5.644 -0.0558 -0.2069  0.0117
99473W        W42567  17.205   6.161   6.011  0.0226 -0.1178 -0.2495
99474W        W42568  16.520   5.191   5.072 -0.1197 -0.0779 -0.0925
99475W        W42569  16.698   4.537   6.165  0.1565  0.1751  0.0104
99476W        W42570  16.521   8.344   6.301 -0.0675 -0.1584  0.2928
99477W        W42571  15.544   5.275   5.532  0.2241  0.1155  0.1657
99478W        W42572  18.069   7.356   3.563 -0.0587 -0.0075  0.0446
99479W        W42573  18.103   6.952   4.672  0.2915 -0.0247 -0.1486
99480W        W42574  16.606   6.364   5.080 -0.0201 -0.3532  0.0962
99481W        W42575  17.068   5.749   5.679 -0.1258 -0.3517 -0.2236
99482W        W42576  14.617   5.291   7.561 -0.0234 -0.1414 -0.4486
99483W        W42577  15.726   6.885   6.756  0.1606 -0.1996 -0.0727
99484W        W42578  17.013   3.478   3.950  0.3197 -0.0983  0.1726
99485W        W42579  17.661   6.989   6.254  0.3382  0.1712  0.1989
99486W        W42580  14.057   7.124   5.935 -0.0822 -0.1410  0.2209
99487W        W42581  18.478   3.467   5.552  0.0812 -0.4284 -0.3543
99488W        W42582  16.202   5.294   5.482  0.0994 -0.0755 -0.1034
99489W        W42583  17.782   7.012   5.656 -0.1504  0.0295  0.0142
99490W        W42584  16.276   5.826   3.294  0.1109  0.2008 -0.3772
99491W        W42585  17.630   2.548   4.657  0.0239 -0.1041 -0.3008
99492W        W42586  18.006   4.265   5.163  0.4110  0.3224 -0.0607
99493W        W42587  16.216   5.548   4.708 -0.0606 -0.0242 -0.2969
99494W        W42588  16.834   6.508   3.227 -0.2006  0.1643  0.2781
99495W        W42589  16.892   7.586   6.727  0.2380  0.1296  0.2931
99496W        W42590  18.479   5.681   4.201  0.2310  0.0157 -0.0662
99497W        W42591  16.169   7.648   6.260 -0.0207  0.0164  0.2347
99498W        W42592  15.807   4.050   6.541  0.2634  0.0553  0.3146
99499W        W42593  16.518   4.901   7.412 -0.0322  0.1508 -0.1902
99500W        W42594  14.806   8.073   2.863 -0.0871  0.2607 -0.0917
99501W        W42595  14.454   4.083   5.719  0.0601 -0.1934  0.1166
99502W        W42596  13.755   5.550   4.821  0.1693  0.1740 -0.0251
99503W        W42597  13.922   3.811   5.769 -0.0467 -0.0325  0.2161
99504W        W42598  13.837   5.456   6.089  0.1216  0.0927 -0.2260
99505W        W42599  18.395   3.298   3.653  0.1691  0.0060 -0.0325
99506W        W42600  17.863   3.602   6.448  0.0279  0.0434 -0.0298
99507W        W42601  19.922   3.226   5.096  0.2517 -0.0008 -0.1632
99508W        W42602  13.379   5.927   4.923  0.0223  0.0205 -0.2412
99509W        W42603  17.698   6.546   5.445 -0.0555  0.0162  0.1989
99510W        W42604  16.890   4.766   4.576 -0.0826 -0.3009 -0.1939
99511W        W42605  16.080   6.213   3.021  0.2418  0.1064  0.3396
99512W        W42606  13.998   4.654   5.517 -0.0244  0.0702 -0.0636
99513W        W42607  14.266   4.227   4.859  0.2415 -0.0357  0.1426
99514W        W42608  15.842   3.313   6.979 -0.2216 -0.0498 -0.0410
99515W        W42609  15.799   4.791   5.658  0.0642 -0.0433 -0.4873
99516W        W42610  16.699   5.373   5.976 -0.1424  0.3056 -0.0640
99517W        W42611  15.643   3.829   3.673  0.0001  0.0758  0.1038
99518W        W42612  17.266   3.596   5.358 -0.1014 -0.2030 -0.1307
99519W        W42613  16.623   4.233   5.121  0.0030 -0.0388  0.1229
99520W        W42614  13.991   3.684   4.779 -0.1882 -0.1729  0.1163
99521W        W42615  17.889   2.738   5.755 -0.0002 -0.0227 -0.2522
99522W        W42616  15.720   7.607   4.371  0.0628  0.1978  0.0824
99523W        W42617  17.955   8.550   7.011  0.0678  0.0701 -0.4780
99524W        W42618  16.257   6.502   4.785 -0.0156  0.1420 -0.1413
99525W        W42619  16.669   4.649   6.643  0.0201  0.0344  0.1919
99526W        W42620  15.536   6.015   4.308 -0.0377 -0.2513 -0.0465
99527W        W42621  14.684   7.396   5.332  0.2304 -0.2971  0.5494
99528W        W42622  15.879   5.925   5.522 -0.1751  0.1844 -0.0739
99529W        W42623  15.232   4.126   4.372  0.2002 -0.0060  0.0101
99530W        W42624  18.307   7.186   5.431  0.0525  0.1919  0.2701
99531W        W42625  14.698   6.627   5.598  0.3997  0.0856 -0.1673
99532W        W42626  15.159   6.124   7.658  0.2283 -0.1793  0.2243
99533W        W42627  16.099   2.860   6.907  0.0078  0.1552 -0.5712
99534W        W42628  17.191   5.250   5.821  0.3771  0.1182  0.1612
99535W        W42629  17.555   5.333   4.983  0.2663 -0.3073 -0.0650
99536W        W42630  15.125   3.527   2.906  0.0951  0.1534 -0.1364
99537W        W42631  17.656   8.119   7.141 -0.2694  0.0641 -0.1568
99538W        W42632  16.945   6.124   5.350  0.3206  0.5264  0.2010
99539W        W42633  13.087   5.782   5.307  0.1501 -0.1587 -0.1718
99540W        W42634  15.458   6.149   4.788  0.1983 -0.2241 -0.1034
99541W        W42635  18.369   4.050   5.845 -0.0592  0.1041  0.4264
99542W        W42636  14.347   6.427   7.763 -0.0411  0.2194  0.1393
99543W        W42637  17.199   5.525   7.495 -0.0023  0.0805  0.0063
99544W        W42638  13.046   4.621   3.820 -0.0366 -0.1087  0.0457
99545W        W42639  14.837   6.707   6.617  0.0313  0.4344  0.1792
99546W        W42640  17.848   3.610   5.118 -0.1830  0.0754  0.2554
99547W        W42641  17.912   3.392   3.860 -0.0168  0.2129 -0.2081
99548W        W42642  16.769   5.236   6.464 -0.1842  0.1490  0.0923
99549W        W42643  18.544   4.273   4.386 -0.3569 -0.1623 -0.0553
99550W        W42644  17.425   4.647   3.674  0.0490  0.0371  0.1550
99551W        W42645  16.258   3.188   3.431 -0.0704 -0.1947  0.0929
99552W        W42646  15.996   6.221   7.528  0.1518 -0.0663  0.1123
99553W        W42647  14.188   7.381   5.442 -0.1248 -0.0325  0.0181
99554W        W42648  14.930   6.968   5.311  0.2352  0.0645 -0.2415
99555W        W42649  17.577   3.772   3.922  0.0640  0.0287 -0.0977
99556W        W42650  18.118   5.957   5.492  0.0994 -0.4050  0.0469
99557W        W42651  13.481   5.376   5.495  0.1161 -0.2740  0.0939
99558W        W42652  17.417   6.645   6.466 -0.1312  0.2583 -0.2222
99559W        W42653  16.397   6.585   5.792  0.0456  0.1251 -0.0585
99560W        W42654  17.518   4.182   5.673 -0.1696  0.1153 -0.0828
99561W        W42655  15.669   5.183   3.711  0.1560  0.1032 -0.1179
99562W        W42656  16.600   3.359   5.547  0.1456 -0.1293 -0.0089
99563W        W42657  15.178   6.662   5.734  0.0149 -0.1931 -0.1148
99564W        W42658  18.465   2.955   5.624 -0.0327 -0.3122  0.0107
99565W        W42659  18.424   2.879   4.550 -0.2398  0.2167 -0.2049
99566W        W42660  16.309   3.318   6.774 -0.0064 -0.2072  0.0286
99567W        W42661  17.259   5.840   6.563 -0.2745  0.1096  0.1635
99568W        W42662  17.091   4.234   5.296 -0.0567  0.0904  0.0361
99569W        W42663  16.352   6.495   6.303 -0.1275  0.0906 -0.3322
99570W        W42664  14.802   5.241   5.136  0.4993  0.0910  0.2112
99571W        W42665  16.192   4.062   7.283  0.1858 -0.3344  0.0752
99572W        W42666  15.131   5.396   6.535 -0.1193 -0.3123 -0.2261
99573W        W42667  16.567   6.102   7.169  0.0256 -0.0943 -0.0907
99574W        W42668  17.453   6.439   7.077 -0.2137  0.0455 -0.2187
99575W        W42669  17.383   5.162   4.486 -0.0768 -0.1464  0.0876
99576W        W42670  15.507   4.241   6.932  0.0022  0.2607  0.0909
99577W        W42671  16.516   4.389   4.565  0.0797  0.2334 -0.1491
99578W        W42672  15.755   8.525   4.216  0.0590  0.1405  0.0494
99579W        W42673  14.605   5.276   3.471 -0.2297 -0.1524 -0.2769
99580W        W42674  16.007   4.295   4.612  0.1214 -0.1846 -0.1581
99581W        W42675  16.263   7.724   6.775 -0.1784 -0.0340  0.0038
99582W        W42676  15.782   5.884   3.881 -0.3178 -0.1346  0.2251
99583W        W42677  15.614   6.282   6.168 -0.0642 -0.3883  0.1171
99584W        W42678  15.187   6.950   4.436  0.0176  0.1321 -0.0696
99585W        W42679  18.572   3.715   6.292 -0.2308  0.0004 -0.1253
99586W        W42680  13.733   6.436   4.625  0.0021  0.2397 -0.1386
99587W        W42681  15.679   3.892   4.600 -0.4817  0.0666 -0.0489
99588W        W42682  15.225   4.051   3.900  0.0296 -0.3357  0.3162
99589W        W42683  17.595   2.967   4.421  0.1840 -0.0001  0.0094
99590W        W42684  17.878   4.970   4.578 -0.0704 -0.1406  0.0455
99591W        W42685  15.227   2.898   4.107  0.1259 -0.1920  0.0180
99592W        W42686  17.597   3.093   5.375 -0.0343 -0.3164  0.0862
99593W        W42687  15.194   6.234   7.177 -0.0857  0.0991  0.1113
99594W        W42688  17.165   4.983   3.945  0.1305 -0.1012  0.0739
99595W        W42689  16.752   2.525   4.487  0.0610  0.1315  0.2618
99596W        W42690  17.894   6.790   6.795 -0.1864  0.0593 -0.1787
99597W        W42691  16.085   5.883   7.146 -0.1414  0.2374 -0.0235
99598W        W42692  14.549   5.018   3.950  0.2380 -0.0283  0.1397
99599W        W42693  17.645   4.560   5.366 -0.1179  0.0225  0.0899
99600W        W42694  15.815   5.237   4.634  0.0527  0.0114 -0.1924
99601W        W42695  14.058   7.158   4.952  0.1908 -0.2535 -0.0624
99602W        W42696  15.660   5.418   6.394  0.2237 -0.2131 -0.1238
99603W        W42697  14.109   5.781   5.204 -0.0333  0.3970  0.0634
99604W        W42698  16.367   6.004   4.742 -0.1960  0.0602 -0.1135
99605W        W42699  15.367   4.383   6.478 -0.1521  0.1010  0.1264
99606W        W42700  17.168   4.694   5.539 -0.0681  0.0168 -0.2206
99607W        W42701  17.493   4.004   4.937 -0.0528  0.1511 -0.2411
99608W        W42702  14.685   3.888   3.921  0.1854 -0.2610  0.0347
99609W        W42703  16.810   3.507   4.775  0.0263  0.0552 -0.1524
99610W        W42704  18.121   5.445   5.699  0.0083 -0.2730  0.1223
99611W        W42705  17.693   3.731   6.903  0.0268  0.2246  0.1893
99612W        W42706  16.979   7.358   7.542  0.0328 -0.3519 -0.1366
99613W        W42707  16.468   3.236   5.984 -0.0317  0.0490 -0.1829
99614W        W42708  19.463   6.511   3.916 -0.0852  0.0723 -0.2084
99615W        W42709  17.300   4.817   7.479 -0.2899  0.1218  0.0209
99616W        W42710  15.270   6.470   5.191 -0.1000 -0.0985 -0.3094
99617W        W42711  14.955   5.864   5.924  0.1465  0.2472  0.2168
99618W        W42712  15.859   6.211   3.446  0.0027 -0.1382  0.0144
99619W        W42713  16.281   3.686   5.815  0.2220  0.1137 -0.2801
99620W        W42714  15.103   6.326   6.134  0.1492  0.2417  0.0050
99621W        W42715  15.349   6.208   3.890 -0.1256 -0.1666 -0.2003
99622W        W42716  15.445   5.810   5.724  0.3973 -0.3212 -0.1540
99623W        W42717  18.222   2.461   3.773 -0.3244 -0.4164  0.0701
99624W        W42718  16.646   6.270   4.325  0.2684  0.2440 -0.2378
99625W        W42719  17.007   5.149   7.227 -0.0304 -0.2680 -0.1343
99626W        W42720  17.868   4.779   6.793 -0.1566 -0.3785  0.1526
99627W        W42721  16.457   5.174   4.528  0.2069 -0.0641 -0.2876
99628W        W42722  18.104   4.490   7.134  0.0212  0.0306  0.0323
99629W        W42723  16.148   3.209   5.195 -0.0055  0.0459  0.2079
99630W        W42724  18.334   5.087   4.737  0.0716  0.0946 -0.1687
99631W        W42725  14.914   4.496   5.548 -0.1214 -0.1098  0.2610
99632W        W42726  17.012   6.589   8.089 -0.1721  0.0897  0.0586
99633W        W42727  15.083   5.685   7.897 -0.1923 -0.0410  0.1974
99634W        W42728  16.969   3.944   4.827 -0.1740 -0.2207  0.2857
99635W        W42729  16.850   4.502   3.860 -0.1005  0.0178  0.1764
99636W        W42730  14.513   6.431   6.348  0.2366  0.0995  0.0064
99637W        W42731  18.116   5.275   5.207  0.0895  0.0244 -0.4022
99638W        W42732  16.488   5.736   5.714 -0.1102  0.0461  0.2615
99639W        W42733  18.135   4.396   6.639 -0.0620  0.1925  0.2674
99640W        W42734  15.217   7.167   5.763  0.0303  0.1342 -0.1318
99641W        W42735  17.177   4.438   4.800 -0.0916  0.3627 -0.3992
99642W        W42736  16.239   4.425   4.113 -0.1036 -0.0979  0.2346
99643W        W42737  15.936   5.053   5.172  0.2442 -0.0405 -0.1083
99644W        W42738  14.873   2.475   7.176  0.1706  0.2057 -0.0500
99645W        W42739  16.286   6.264   5.430 -0.3046 -0.0388  0.0864
99646W        W42740  16.403   3.651   5.114  0.0360  0.0639  0.1304
99647W        W42741  17.488   4.818   5.888  0.1650 -0.1738  0.0492
99648W        W42742  17.433   5.715   5.990  0.3360  0.0069 -0.0085
99649W        W42743  15.459   4.726   6.922 -0.1520  0.2889  0.3222
99650W        W42744  15.220   3.573   5.760 -0.0336 -0.0482 -0.1596
99651W        W42745  16.897   8.181   6.615  0.0448 -0.2573 -0.0575
99652W        W42746  18.549   4.083   3.595 -0.1349  0.0801  0.1152
99653W        W42747  17.637   4.231   6.938 -0.0049  0.2054  0.1052
99654W        W42748  16.844   3.724   3.175  0.0450 -0.2003  0.0021
99655W        W42749  14.683   5.985   4.869  0.2466  0.0884  0.1437
99656W        W42750  15.826   4.532   5.162 -0.2539 -0.1245  0.0731
99657W        W42751  18.150   5.370   6.643  0.0918  0.1825 -0.0392
99658W        W42752  16.662   3.405   3.535 -0.3250 -0.3738 -0.0838
99659W        W42753  16.717   3.255   6.432 -0.0621  0.2552  0.0449
99660W        W42754  17.165   7.931   3.937 -0.1924 -0.1431  0.2633
99661W        W42755  17.620   6.200   6.272 -0.0063 -0.0955 -0.0011
99662W        W42756  17.015   5.473   3.784 -0.0004  0.0769  0.2529
99663W        W42757  14.658   2.905   4.927 -0.0794  0.1552 -0.0253
99664W        W42758  17.320   7.296   6.529 -0.0863  0.3376 -0.3410
99665W        W42759  16.122   4.818   4.425  0.0076  0.0020  0.1842
99666W        W42760  15.314   5.683   3.832 -0.3506  0.0234 -0.0653
99667W        W42761  16.207   7.253   5.998  0.0845 -0.2125  0.0217
99668W        W42762  17.928   6.121   7.317 -0.3220  0.1043 -0.1440
99669W        W42763  16.651   3.142   5.107  0.2753 -0.1911  0.1548
99670W        W42764  17.456   4.695   7.027 -0.2146 -0.0351  0.0403
99671W        W42765  14.409   5.532   4.810 -0.1111 -0.1361  0.1596
99672W        W42766  17.077   3.128   5.584  0.0200  0.0193 -0.1179
99673W        W42767  16.413   8.435   7.766 -0.2153 -0.1967 -0.2861
99674W        W42768  13.441   5.783   7.621  0.0935  0.2914  0.0671
99675W        W42769  15.906   7.193   5.314  0.1510  0.4018  0.0212
99676W        W42770  17.209   2.531   6.188 -0.2368  0.3727 -0.1193
99677W        W42771  17.257   5.475   6.906  0.0727  0.0722  0.2209
99678W        W42772  16.292   6.939   6.652 -0.3451 -0.2375  0.1034
99679W        W42773  17.756   5.288   6.008 -0.1845  0.1654  0.1094
99680W        W42774  16.689   6.569   8.472 -0.0295 -0.0686  0.1759
99681W        W42775  15.123   5.470   5.507 -0.1657 -0.2979 -0.0716
99682W        W42776  15.034   7.560   6.606 -0.0665 -0.1740 -0.0699
99683W        W42777  17.871   5.762   5.091 -0.3123 -0.1600  0.0953
99684W        W42778  16.956   5.750   6.140 -0.0249 -0.0422  0.2792
99685W        W42779  15.882   5.444   5.872 -0.1053 -0.1948  0.0814
99686W        W42780  17.492   7.700   6.749 -0.4115  0.2932 -0.0136
99687W        W42781  16.719   6.153   5.826  0.2496 -0.3699 -0.0885
99688W        W42782  15.124   3.785   3.492  0.0994  0.2057 -0.2338
99689W        W42783  16.905   6.076   4.737  0.0298  0.2629  0.2605
99690W        W42784  16.356   7.257   7.538  0.1399 -0.3165  0.0415
99691W        W42785  15.460   4.954   6.431  0.1915  0.2151 -0.3551
99692W        W42786  14.725   7.939   4.465  0.0745  0.1885  0.0276
99693W        W42787  16.959   6.332   3.703  0.2997 -0.4055  0.1234
99694W        W42788  17.440   6.035   5.240 -0.3125 -0.1911  0.2495
99695W        W42789  17.259   7.835   5.404 -0.2099 -0.0388  0.1099
99696W        W42790  16.173   4.019   3.676  0.2729  0.4452 -0.0090
99697W        W42791  14.934   6.832   6.116  0.1812  0.5101 -0.1676
99698W        W42792  14.348   6.088   4.296 -0.0510  0.2388  0.0336
99699W        W42793  16.804   7.084   5.455 -0.2696 -0.1508  0.1272
99700W        W42794  16.665   7.074   5.931 -0.0205  0.4344  0.3339
99701W        W42795  18.283   6.437   7.589 -0.1732  0.3835  0.0333
99702W        W42796  18.277   4.289   3.933  0.1901 -0.0173  0.2083
99703W        W42797  18.587   2.486   5.752 -0.0865  0.1867 -0.2126
99704W        W42798  18.444   3.764   4.648 -0.1224 -0.0831 -0.1110
99705W        W42799  15.834   6.545   7.964 -0.3604 -0.2239  0.1745
99706W        W42800  16.707   4.944   5.652  0.3366 -0.2321  0.1310
99707W        W42801  16.075   2.608   4.438  0.0176 -0.0537 -0.1357
99708W        W42802  15.835   7.258   6.420 -0.1678 -0.1762 -0.1935
99709W        W42803  18.111   4.022   7.052  0.0900 -0.1163 -0.1212
99710W        W42804  15.352   6.719   7.149 -0.1130  0.3509  0.1326
99711W        W42805  17.248   6.382   4.267 -0.1317  0.2118 -0.0435
99712W        W42806  14.389   4.258   4.223  0.1022  0.1877 -0.1339
99713W        W42807  15.843   6.489   5.144  0.0137 -0.1910 -0.0537
99714W        W42808  19.148   2.294   6.841  0.0388  0.1026  0.3663
99715W        W42809  16.828   5.402   5.401 -0.0886  0.2800  0.2123
99716W        W42810  16.269   4.767   5.438  0.1376  0.0661 -0.1577
99717W        W42811  15.448   6.538   4.266  0.3073  0.0698 -0.0969
99718W        W42812  15.716   4.462   6.147 -0.0743 -0.1444  0.2118
99719W        W42813  15.276   6.926   4.958 -0.2706  0.3974 -0.2971
99720W        W42814  15.466   3.647   4.189 -0.1524  0.0518  0.0998
99721W        W42815  18.700   6.563   4.167 -0.1302 -0.1007  0.2495
99722W        W42816  15.378   5.215   6.957 -0.4430  0.0432  0.2243
99723W        W42817  17.247   3.894   6.768  0.2088  0.0499 -0.0620
99724W        W42818  13.983   5.546   5.626 -0.3700  0.0589  0.0958
99725W        W42819  17.461   3.412   4.250  0.1445  0.0429  0.1892
99726W        W42820  16.799   6.275   6.248 -0.0518 -0.1775  0.1208
99727W        W42821  16.634   5.074   6.925 -0.1753  0.0078  0.1097
99728W        W42822  15.914   4.913   6.137 -0.0790  0.4563  0.3007
99729W        W42823  16.900   5.087   7.692 -0.1323 -0.1172  0.1920
99730W        W42824  16.954   5.185   4.837  0.1752  0.1169 -0.0648
99731W        W42825  18.081   7.654   7.026  0.0464 -0.1164  0.0380
99732W        W42826  15.281   5.154   4.589  0.1992 -0.2194 -0.2686
99733W        W42827  16.772   3.865   3.679  0.3489 -0.0197  0.2588
99734W        W42828  14.590   3.372   4.549 -0.1488  0.0306 -0.0949
99735W        W42829  15.069   4.972   5.489  0.0261  0.2437 -0.0676
99736W        W42830  17.754   7.302   6.792 -0.0145 -0.4284 -0.1725
99737W        W42831  16.302   3.394   3.895 -0.1134 -0.0001  0.0682
99738W        W42832  18.441   4.768   3.725 -0.1620 -0.0181  0.1455
99739W        W42833  17.173   3.858   5.793 -0.0918 -0.1651  0.0787
99740W        W42834  14.627   5.774   5.419  0.2196  0.0533  0.1106
99741W        W42835  18.801   4.455   3.878  0.3391 -0.0088 -0.2000
99742W        W42836  17.250   6.417   5.597 -0.1368  0.1361 -0.2173
99743W        W42837  16.245   4.302   6.807  0.0348  0.2133 -0.1308
99744W        W42838  17.110   7.475   5.702 -0.0207 -0.2529  0.1384
99745W        W42839  16.973   6.640   5.962  0.1228  0.1499 -0.0889
99746W        W42840  17.766   3.161   4.886 -0.2013  0.1976  0.2200
99747W        W42841  15.673   4.019   5.132 -0.0165  0.2771 -0.0631
99748W        W42842  14.826   7.636   3.969  0.1801  0.2254  0.0308
99749W        W42843  18.197   3.520   6.009 -0.1236 -0.2544 -0.0861
99750W        W42844  17.226   4.442   6.067 -0.2246  0.1097 -0.1018
99751W        W42845  16.079   5.760   4.277 -0.1067  0.0599  0.2134
99752W        W42846  17.565   3.384   7.604 -0.3497  0.0173  0.2994
99753W        W42847  17.418   6.919   6.949 -0.1211  0.0515 -0.2102
99754W        W42848  15.850   7.129   7.905  0.3687  0.1089 -0.2135
99755W        W42849  15.248   4.547   4.062  0.3011  0.0013 -0.0213
99756W        W42850  15.874   4.712   6.704  0.2212 -0.1418 -0.1605
99757W        W42851  15.617   6.640   4.736  0.0148  0.1003  0.2142
99758W        W42852  15.937   6.349   4.007 -0.0075 -0.0694 -0.0306
99759W        W42853  16.868   6.812   4.994  0.2277  0.0998 -0.0016
99760W        W42854  16.836   4.706   5.095  0.1246 -0.2916  0.0766
99761W        W42855  16.763   6.554   5.479  0.0252 -0.0409  0.0499
99762W        W42856  16.069   4.030   6.057  0.0437 -0.1680 -0.2307
99763W        W42857  18.354   3.456   4.100  0.0959 -0.2467  0.1999
99764W        W42858  18.582   2.830   4.065  0.2392  0.2000 -0.3081
99765W        W42859  16.273   5.415   6.303  0.3765 -0.0169 -0.0406
99766W        W42860  13.974   3.109   4.915 -0.1116  0.1967  0.0667
99767W        W42861  15.066   6.515   4.742 -0.4147  0.5163 -0.2994
99768W        W42862  15.589   6.405   5.616  0.0906 -0.3999  0.0917
99769W        W42863  17.036   3.747   7.178 -0.0039 -0.2437 -0.1432
99770W        W42864  15.330   3.256   6.197  0.2700 -0.2382 -0.1119
99771W        W42865  13.557   5.902   5.420 -0.1414  0.0138  0.2238
99772W        W42866  15.709   4.803   4.757  0.0158 -0.0278 -0.0099
99773W        W42867  17.431   6.392   3.826 -0.0554 -0.0216 -0.2628
99774W        W42868  16.111   3.774   4.370 -0.1082  0.0272 -0.0314
99775W        W42869  14.335   3.586   5.529  0.2053  0.0122 -0.0090
99776W        W42870  16.402   5.978   3.953 -0.2843 -0.2922 -0.4431
99777W        W42871  17.264   6.429   4.974 -0.0374 -0.1209 -0.1841
99778W        W42872  16.723   3.800   5.469 -0.0614  0.0982 -0.1479
99779W        W42873  19.384   6.886   8.159  0.0795  0.2435 -0.3040
99780W        W42874  14.638   5.695   4.385 -0.2841 -0.3620 -0.1486
99781W        W42875  16.798   4.157   6.909  0.2445 -0.1039  0.0511
99782W        W42876  15.856   4.258   5.571  0.2623 -0.2279 -0.2785
99783W        W42877  15.390   4.008   3.194  0.1063 -0.2480  0.1556
99784W        W42878  17.224   3.686   6.322  0.3464  0.1616  0.0610
99785W        W42879  16.271   6.766   5.220 -0.0894 -0.0371  0.1222
99786W        W42880  18.271   6.822   3.569  0.1185 -0.2532  0.1037
99787W        W42881  15.889   5.823   6.195 -0.2297  0.1201  0.1423
99788W        W42882  17.140   7.342   7.072 -0.0841  0.0075 -0.4721
99789W        W42883  14.483   4.420   6.123 -0.1480 -0.1939  0.1373
99790W        W42884  17.143   5.638   5.080 -0.0338  0.1219  0.0164
99791W        W42885  16.086   6.243   5.926 -0.2545 -0.1160 -0.0896
99792W        W42886  17.850   6.659   4.273  0.0551  0.0811  0.0887
99793W        W42887  19.018   4.280   5.632 -0.1435 -0.1120 -0.1080
99794W        W42888  16.621   4.035   5.956  0.0432 -0.2908 -0.1961
99795W        W42889  15.196   2.030   7.152 -0.1481 -0.4789  0.1817
99796W        W42890  14.382   5.259   5.794  0.0406 -0.1152 -0.0613
99797W        W42891  18.556   4.763   5.073  0.0759 -0.1179  0.0251
99798W        W42892  15.719   3.226   3.748  0.0187  0.0107 -0.2630
99799W        W42893  18.365   3.563   5.083  0.1935 -0.0692  0.1259
99800W        W42894  15.930   5.967   4.994 -0.0174  0.0216  0.0117
99801W        W42895  16.192   4.564   5.912  0.3006 -0.0769  0.1207
99802W        W42896  16.081   5.247   4.144 -0.0136  0.1099 -0.2473
99803W        W42897  15.191   5.350   5.967 -0.0844  0.3566 -0.0308
99804W        W42898  16.798   6.791   6.405 -0.0508  0.1078  0.0417
99805W        W42899  17.744   5.663   6.436  0.2237 -0.3250 -0.1343
99806W        W42900  16.753   5.022   3.722 -0.2376 -0.1950 -0.0652
99807W        W42901  18.728   5.383   4.521 -0.0057 -0.3080  0.1733
99808W        W42902  15.775   7.456   7.511  0.1923  0.0710 -0.1721
99809W        W42903  17.579   6.574   5.964  0.0534  0.0868 -0.2927
99810W        W42904  16.675   8.428   7.051  0.2111  0.2460 -0.0220
99811W        W42905  17.642   6.067   5.647 -0.3029 -0.1199 -0.2629
99812W        W42906  15.794   4.092   4.111  0.0521  0.1576  0.0241
99813W        W42907  13.938   6.044   5.701  0.0413 -0.1124 -0.1138
99814W        W42908  15.757   7.208   3.893  0.0157 -0.0455  0.1729
99815W        W42909  17.087   4.998   6.728 -0.0127  0.0514 -0.1663
99816W        W42910  15.181   3.877   4.861  0.1152  0.0234  0.1933
99817W        W42911  17.685   4.228   3.978 -0.2014 -0.1605  0.2671
99818W        W42912  14.816   6.640   7.123  0.1995 -0.1279 -0.0463
99819W        W42913  16.806   6.904   6.937  0.0381 -0.1121 -0.2612
99820W        W42914  14.853   7.534   9.304  0.2273 -0.3200 -0.1103
99821W        W42915  14.872   5.125   7.953  0.0528 -0.2033  0.0255
99822W        W42916  17.664   4.353   7.423  0.2658  0.2956 -0.0800
99823W        W42917  18.190   5.325   8.305  0.2807  0.1034  0.0017
99824W        W42918  14.384   5.048   8.274  0.1728 -0.1442  0.0899
99825W        W42919  17.399   7.248   8.476  0.2732 -0.1335 -0.0286
99826W        W42920  16.761   5.845   6.587 -0.2132  0.0665  0.3310
99827W        W42921  19.214   6.414   9.230 -0.0011 -0.3019 -0.3389
99828W        W42922  17.470   5.752   7.819  0.3237  0.2455  0.0998
99829W        W42923  16.438   4.754   9.135 -0.0548  0.2532 -0.2242
99830W        W42924  15.964   2.998   7.425  0.1154 -0.2694 -0.2522
99831W        W42925  14.141   5.328   7.529 -0.0365  0.0646  0.4601
99832W        W42926  16.969   5.480   9.754 -0.1626 -0.0597  0.1154
99833W        W42927  13.342   5.861   8.169 -0.0781 -0.0174  0.3372
99834W        W42928  15.385   4.561   9.695  0.2333 -0.0402  0.3125
99835W        W42929  15.942   4.288   8.487  0.0572  0.2654  0.1191
99836W        W42930  16.233   6.219   8.016  0.0173  0.0080  0.1097
99837W        W42931  14.901   4.502   9.455 -0.0394  0.1248  0.0313
99838W        W42932  16.833   5.655   7.197 -0.0940  0.1162 -0.1064
99839W        W42933  15.125   4.521   7.276  0.0945  0.0969  0.3430
99840W        W42934  14.073   4.989   9.358 -0.0640 -0.0209 -0.2810
99841W        W42935  15.229   5.505   9.974 -0.0728  0.0931 -0.0424
99842W        W42936  16.545   4.323   9.382  0.0949 -0.1586  0.0917
99843W        W42937  17.383   4.482  10.056 -0.0375 -0.1829  0.1845
99844W        W42938  17.241   6.588   7.624  0.0997  0.0767 -0.2062
99845W        W42939  15.686   5.954   9.441  0.1819  0.4676  0.1099
99846W        W42940  14.292   4.565   9.047 -0.2803 -0.2853  0.1535
99847W        W42941  13.509   7.865   7.673 -0.1519  0.0516 -0.2817
99848W        W42942  14.929   6.984   7.968  0.2426 -0.2286  0.1146
99849W        W42943  19.533   6.068   7.628  0.3838 -0.1863 -0.1088
99850W        W42944  13.637   5.096   7.765 -0.0464  0.0586 -0.1689
99851W        W42945  16.750   5.088   8.272 -0.2451 -0.0040 -0.0123
99852W        W42946  15.315   5.083   7.570  0.0824 -0.0843  0.1837
99853W        W42947  14.589   6.827   7.589  0.2494 -0.0199 -0.0546
99854W        W42948  17.193   7.083   6.157  0.0264 -0.1608  0.0862
99855W        W42949  14.998   5.004   9.695  0.0269 -0.1179 -0.1532
99856W        W42950  15.373   5.732   8.287 -0.3007 -0.1741 -0.0839
99857W        W42951  17.537   5.196   7.189 -0.1258 -0.0284  0.1310
99858W        W42952  15.293   3.678   7.668 -0.1702 -0.0017 -0.0049
99859W        W42953  17.212   3.751   7.710 -0.0791 -0.1627 -0.1760
99860W        W42954  15.249   4.226   8.572 -0.1436  0.1399 -0.0490
99861W        W42955  15.463   7.448   9.963  0.1564  0.0378 -0.0563
99862W        W42956  17.619   4.639   9.255  0.0217 -0.0836 -0.0636
99863W        W42957  15.585   4.618   7.523 -0.1046 -0.0028 -0.2321
99864W        W42958  15.499   6.546  10.182 -0.0609  0.3774  0.1570
99865W        W42959  16.104   6.330   9.359 -0.1285  0.3673  0.0847
99866W        W42960  13.391   4.364   9.939 -0.1852  0.0081  0.0994
99867W        W42961  18.148   6.374   6.904 -0.2207 -0.1081  0.0997
99868W        W42962  17.542   5.991   8.805  0.3065 -0.0453 -0.0169
99869W        W42963  17.240   6.240   8.530 -0.0229 -0.0848  0.1428
99870W        W42964  14.543   5.592   7.186  0.2558  0.0207 -0.0972
99871W        W42965  15.662   2.757   7.803 -0.0825  0.1069  0.1094
99872W        W42966  17.478   4.599   8.328 -0.0690  0.0124  0.1704
99873W        W42967  15.714   4.977   7.939 -0.2408  0.2544 -0.2611
99874W        W42968  18.724   6.564   9.363  0.0026 -0.3328  0.3598
99875W        W42969  17.631   4.755   7.861 -0.0456 -0.0299 -0.1748
99876W        W42970  17.744   3.399   8.883 -0.0325 -0.0810 -0.2960
99877W        W42971  16.088   4.023   9.471 -0.1275 -0.0086 -0.1287
99878W        W42972  15.071   6.138   8.263 -0.0184  0.1328  0.0252
99879W        W42973  15.805   5.728   6.723  0.0647  0.0197 -0.0421
99880W        W42974  18.382   6.562   9.714  0.1306  0.1038 -0.0824
99881W        W42975  16.938   4.680   7.083  0.3332  0.3697 -0.2044
99882W        W42976  15.430   2.857  10.071  0.0153 -0.1234  0.1671
99883W        W42977  16.875   6.895   7.539 -0.1841  0.2511 -0.0699
99884W        W42978  14.745   5.640  10.028  0.3255 -0.0828  0.1963
99885W        W42979  13.234   4.822   6.493 -0.1505  0.4463  0.1632
99886W        W42980  15.016   3.850  10.530  0.1963 -0.0596  0.1224
99887W        W42981  14.941   3.916   9.608 -0.1478 -0.0895  0.0226
99888W        W42982  17.287   3.385   8.544  0.0274 -0.2922 -0.1898
99889W        W42983  18.016   4.341   9.331 -0.2421 -0.1101 -0.1799
99890W        W42984  14.762   6.337   8.667  0.1786  0.4561  0.0455
99891W        W42985  17.912   7.538   7.645 -0.1199 -0.2636  0.0237
99892W        W42986  17.070   4.749   7.973 -0.2352 -0.2391 -0.2829
99893W        W42987  17.267   5.974   7.072  0.0023  0.0155  0.1881
99894W        W42988  14.446   7.320   8.942  0.0018 -0.0798 -0.3495
99895W        W42989  14.520   4.552   8.533  0.0997  0.1333 -0.0089
99896W        W42990  14.248   2.761   9.107 -0.0100  0.0750 -0.1077
99897W        W42991  15.174   2.803   6.921  0.2491 -0.3367 -0.1054
99898W        W42992  17.606   3.856   7.379  0.1801 -0.3280 -0.0147
99899W        W42993  15.395   4.476   9.140  0.1238 -0.0627  0.0497
99900W        W42994  13.784   4.284   8.218 -0.3569  0.0151 -0.1257
99901W        W42995  17.733   7.212   8.022 -0.0456  0.0328 -0.1357
99902W        W42996  17.918   6.938  12.108  0.0272 -0.0311 -0.0107
99903W        W42997  17.286   6.271   9.091  0.1490  0.0711 -0.0690
99904W        W42998  17.234   4.452   9.602  0.1276  0.2043  0.2712
99905W        W42999  15.154   4.693   7.781 -0.1930 -0.0245  0.0365
99906W        W43000  15.314   7.909  10.199  0.1609  0.1678 -0.0616
99907W        W43001  16.502   5.893   7.644 -0.1152 -0.0816 -0.0213
99908W        W43002  15.960   4.247   7.664  0.0846  0.0349  0.1296
99909W        W43003  18.166   5.879   8.272 -0.2227  0.2335 -0.0017
99910W        W43004  16.855   4.588   7.547  0.2519 -0.0312 -0.1920
99911W        W43005  18.231   6.479   9.160 -0.0987 -0.1328 -0.0006
99912W        W43006  15.702   5.399   8.345  0.0218  0.1676 -0.1057
99913W        W43007  14.532   4.060   7.084 -0.3757  0.0171  0.2022
99914W        W43008  16.174   7.145   9.405 -0.3937 -0.1846  0.0184
99915W        W43009  14.592   6.152   7.345 -0.1090 -0.0282  0.0109
99916W        W43010  15.180   6.032   9.540  0.0367 -0.3132 -0.2785
99917W        W43011  15.365   7.315   7.895  0.0555  0.1283 -0.1144
99918W        W43012  17.377   3.407   7.130 -0.2862  0.1301  0.1245
99919W        W43013  16.111   4.749   7.587  0.0288  0.1072 -0.0896
99920W        W43014  16.539   3.603   8.645  0.0261 -0.0640 -0.3262
99921W        W43015  18.824   4.782   6.387 -0.1197 -0.0466  0.0384
99922W        W43016  19.029   5.412   7.753  0.2856  0.0935 -0.1168
99923W        W43017  17.215   5.219   8.064 -0.2944  0.1507 -0.0240
99924W        W43018  17.608   4.048   6.437  0.2857 -0.2733 -0.2759
99925W        W43019  15.563   5.476   7.868 -0.3843  0.0893 -0.3355
99926W        W43020  17.383   5.540   9.465 -0.1119  0.1845  0.1195
99927W        W43021  16.772   4.098   7.898 -0.2142  0.1783  0.0400
99928W        W43022  18.136   6.368   8.098  0.0035 -0.0244 -0.0454
99929W        W43023  14.982   7.153  10.085 -0.2613  0.6290 -0.4804
99930W        W43024  17.437   7.652   7.802  0.0426  0.1827  0.0890
99931W        W43025  16.110   2.078   9.518 -0.3863  0.2174  0.2483
99932W        W43026  16.270   3.543   6.331  0.1325 -0.0661 -0.3382
99933W        W43027  14.916   3.859   8.664  0.1247 -0.1789 -0.0166
99934W        W43028  13.978   6.563   8.091  0.3993  0.0011  0.1161
99935W        W43029  19.376   2.150  10.979 -0.0148 -0.0412  0.1674
99936W        W43030  16.531   3.475   9.502  0.0541 -0.2838  0.3878
99937W        W43031  18.116   5.221   7.158  0.0057  0.0259 -0.0220
99938W        W43032  16.600   4.112   8.527  0.0666 -0.0866 -0.2108
99939W        W43033  13.756   5.218   8.619  0.1786  0.1073  0.3782
99940W        W43034  15.133   4.632   8.305 -0.2037 -0.1053 -0.1645
99941W        W43035  15.960   5.840   8.309 -0.0278  0.3195 -0.2377
99942W        W43036  15.624   4.666   8.408  0.1054 -0.0807  0.5947
99943W        W43037  16.986   3.922   8.893  0.2429 -0.3448  0.3904
99944W        W43038  14.448   6.796   8.128 -0.2185  0.2606  0.3609
99945W        W43039  15.645   6.233   8.403  0.2365 -0.0322  0.0438
99946W        W43040  16.335   1.894   8.976  0.3567  0.1885 -0.0853
99947W        W43041  17.266   6.173   7.915 -0.1919  0.0234 -0.1085
99948W        W43042  16.186   4.950   7.065  0.0722  0.2812 -0.0175
99949W        W43043  17.432   3.966   9.762 -0.2671  0.0945  0.3188
99950W        W43044  15.306   7.001   8.761 -0.1150  0.0968  0.3387
99951W        W43045  15.333   3.361   9.954  0.0843 -0.0330  0.1952
99952W        W43046  15.279   7.829   8.859 -0.1800  0.1407  0.0481
99953W        W43047  15.080   4.228   7.878 -0.1953 -0.1370 -0.1656
99954W        W43048  14.502   5.498   8.045  0.0599 -0.3273  0.0019
99955W        W43049  18.053   4.631   8.464  0.4713 -0.0207 -0.4183
99956W        W43050  18.717   6.460   8.021  0.1884 -0.4444 -0.2193
99957W        W43051  14.671   4.976   9.043 -0.1093 -0.1422 -0.1013
99958W        W43052  14.108   3.824  11.940  0.3581 -0.1694 -0.1870
99959W        W43053  14.416   7.724   9.997  0.1177  0.0713  0.0492
99960W        W43054  18.640   4.493   6.774 -0.0196  0.0033  0.1966
99961W        W43055  13.478   4.584   5.515 -0.0647 -0.2904  0.0800
99962W        W43056  17.320   3.597   9.073  0.1015  0.0890  0.1173
99963W        W43057  16.010   2.966   8.986  0.2616  0.2127 -0.0282
99964W        W43058  14.617   5.429   8.700  0.1867 -0.3316 -0.0005
99965W        W43059  17.091   5.782   8.762  0.2341 -0.2871 -0.2785
99966W        W43060  16.182   3.523   7.304 -0.0836 -0.4048  0.0391
99967W        W43061  14.263   6.761   8.632 -0.0928 -0.0640 -0.3640
99968W        W43062  18.916   5.182   9.378 -0.3235  0.1604 -0.1038
99969W        W43063  15.091   4.084  10.091 -0.2939 -0.0641 -0.4844
99970W        W43064  15.059   2.546   9.633  0.0570  0.0237  0.4030
99971W        W43065  15.317   5.090   8.203  0.1044 -0.1777 -0.0843
99972W        W43066  17.533   6.567   8.103 -0.1024  0.0569 -0.1816
99973W        W43067  15.955   4.718   8.847 -0.0991 -0.2553  0.1229
99974W        W43068  17.258   2.550   8.528 -0.0326 -0.1694  0.0336
99975W        W43069  18.087   8.313   8.226 -0.1943  0.0805 -0.2459
99976W        W43070  15.125   4.947   9.218 -0.1951  0.0307  0.1839
99977W        W43071  14.476   4.059  10.319  0.1371  0.2060 -0.2100
99978W        W43072  14.803   6.465   7.994 -0.2966  0.0956  0.0405
99979W        W43073  16.473   4.769   8.607 -0.0231  0.1085  0.1323
99980W        W43074  19.172   8.448   9.617  0.0276  0.2940 -0.4512
99981W        W43075  16.032   5.753   7.704  0.0949  0.1868 -0.0492
99982W        W43076  15.757   5.489   9.186  0.2629 -0.1139  0.0373
99983W        W43077  18.473   3.702   7.515 -0.0166 -0.0682  0.1580
99984W        W43078  16.552   5.437   7.817 -0.2345  0.1409 -0.0785
99985W        W43079  14.923   4.600   8.831 -0.0386 -0.2283  0.0961
99986W        W43080  17.554   5.210   7.690  0.1578 -0.1131  0.1704
99987W        W43081  15.097   4.076   9.062  0.0947  0.0634 -0.0271
99988W        W43082  16.913   6.492   7.225  0.1055 -0.1326  0.2043
99989W        W43083  16.190   3.495   8.981 -0.0823 -0.0445  0.0547
99990W        W43084  15.305   3.119   7.678 -0.2492 -0.0649  0.3126
99991W        W43085  15.701   6.010   7.944 -0.1188  0.0160  0.0279
99992W        W43086  17.622   4.921   9.682 -0.1007 -0.0387  0.0133
99993W        W43087  16.029   5.222   7.620 -0.0005 -0.1432  0.0845
99994W        W43088  17.303   4.448   8.784 -0.0371  0.3765 -0.0847
99995W        W43089  15.229   5.272   8.681 -0.1571 -0.1100 -0.3002
99996W        W43090  17.162   4.236   8.239  0.1754 -0.4361 -0.3597
99997W        W43091  15.921   4.460   7.216  0.1585 -0.2755 -0.2402
99998W        W43092  14.971   5.401   9.133 -0.1905  0.2561  0.0521
99999W        W43093  16.102   5.547   8.765 -0.0136  0.2450 -0.2099
    0W        W43094  16.517   4.540   8.203 -0.0264  0.0690  0.4154
    1W        W43095  16.739   5.608   8.412  0.1839  0.1294  0.2323
    2W        W43096  18.570   6.057   7.713 -0.0392  0.1852 -0.0986
    3W        W43097  17.109   4.923   9.913 -0.1086 -0.2497  0.1626
    4W        W43098  18.118   4.543   7.694 -0.3145 -0.0965 -0.1094
    5W        W43099  17.226   4.257   7.698  0.0911  0.0776 -0.1078
    6W        W43100  14.564   4.172   9.874 -0.1629 -0.0211  0.2074
    7W        W43101  15.927   3.696   7.726  0.0974  0.2011 -0.1243
    8W        W43102  16.388   5.500   6.811 -0.0405 -0.0389  0.0514
    9W        W43103  17.674   6.047   8.161 -0.1489  0.0629  0.2330
   10W        W43104  16.232   5.447   8.227  0.1673 -0.0733  0.0386
   11W        W43105  14.284   3.751   9.707 -0.0842  0.1248  0.0999
   12W        W43106  16.178   4.543   6.379  0.0072 -0.1695 -0.2081
   13W        W43107  16.457   4.476   7.214  0.2124 -0.0859  0.2708
   14W        W43108  17.967   5.467   7.854  0.2283 -0.1267 -0.0501
   15W        W43109  16.501   3.132   7.249 -0.0069  0.0266  0.3096
   16W        W43110  13.788   4.907   8.976  0.2251 -0.0287  0.1080
   17W        W43111  17.125   1.422   8.132 -0.2098 -0.0660 -0.0445
   18W        W43112  14.818   7.903   8.571  0.1452 -0.1116  0.3230
   19W        W43113  16.086   7.274   8.853 -0.1440 -0.1658  0.0370
   20W        W43114  16.330   4.366   8.843 -0.2782 -0.1980 -0.5789
   21W        W43115  17.065   4.909   8.924 -0.0619  0.1938  0.1833
   22W        W43116  17.534   3.907   8.702  0.1956  0.1356 -0.2224
   23W        W43117  15.350   4.800   8.776 -0.0115 -0.1632 -0.2821
   24W        W43118  18.441   5.556   7.880 -0.0336  0.2458  0.1190
   25W        W43119  15.958   6.621   8.988  0.0917  0.0320  0.2923
   26W        W43120  16.245   4.058   8.139 -0.0495  0.0439  0.0695
   27W        W43121  15.992   3.749   8.570 -0.3372  0.3510 -0.3030
   28W        W43122  15.574   5.922   7.462 -0.2835  0.0161  0.3526
   29W        W43123  15.542   6.587   8.690 -0.0299  0.1093 -0.3154
   30W        W43124  14.883   7.390   6.184  0.0876 -0.1722 -0.2751
   31W        W43125  16.424   5.416   7.319 -0.1116  0.0900  0.1698
   32W        W43126  16.911   7.530   6.149 -0.1690 -0.0442  0.1208
   33W        W43127  17.053   6.030   9.867  0.0284  0.1438 -0.1203
   34W        W43128  16.790   3.529   7.953  0.0083 -0.1319  0.1192
   35W        W43129  15.516   6.406   9.157  0.1037  0.3169  0.0445
   36W        W43130  15.558   6.443   7.491  0.3147  0.1684  0.5604
   37W        W43131  17.304   5.763   8.273 -0.0781 -0.0807 -0.1209
   38W        W43132  15.716   6.341   9.713  0.0555 -0.0613 -0.2043
   39W        W43133  18.182   4.017   6.315 -0.2134 -0.0791  0.0621
   40W        W43134  18.210   4.275   9.770  0.1160  0.0926  0.1034
   41W        W43135  18.673   5.118   8.022 -0.0690 -0.4602  0.1525
   42W        W43136  15.327   5.747   9.152  0.0756 -0.3661  0.0682
   43W        W43137  16.609   2.879   6.777 -0.1202  0.1287 -0.2120
   44W        W43138  18.302   7.637   8.844 -0.0023 -0.1522 -0.1967
   45W        W43139  14.707   6.008   7.852  0.0057 -0.0266 -0.2231
   46W        W43140  14.477   5.194   9.738 -0.0786 -0.0597  0.2148
   47W        W43141  20.809   3.431   9.737 -0.0612  0.0170 -0.2315
   48W        W43142  15.359   5.850   6.468 -0.3257 -0.0819  0.0511
   49W        W43143  16.538   3.836   9.121  0.3530 -0.2399 -0.0139
   50W        W43144  15.601   7.136   7.174 -0.0787  0.2624 -0.3786
   51W        W43145  15.902   8.974  10.627 -0.0642  0.0609 -0.1198
   52W        W43146  16.389   6.335   8.932 -0.3081 -0.0094  0.0991
   53W        W43147  15.044   4.039   7.150 -0.0400  0.1424 -0.2572
   54W        W43148  18.670   4.461   8.705  0.0200  0.2107 -0.2230
   55W        W43149  16.955   5.687   7.925 -0.4494  0.2953 -0.3873
   56W        W43150  14.682   4.228   7.511  0.0662  0.1105  0.1737
   57W        W43151  16.758   4.068   7.417  0.2639  0.2707  0.0592
   58W        W43152  16.011   4.981   8.334 -0.0940 -0.0036 -0.3401
   59W        W43153  16.028   5.620   9.691 -0.1322 -0.1793 -0.0265
   60W        W43154  16.570   3.721   7.093 -0.2227  0.2755 -0.0573
   61W        W43155  16.247   5.024   6.576 -0.1508  0.3522 -0.0036
   62W        W43156  14.677   4.669   8.068 -0.0870 -0.0536  0.0359
   63W        W43157  17.251   4.209   7.169 -0.1712 -0.0031 -0.0766
   64W        W43158  15.327   6.126   8.780  0.1546  0.1923  0.4907
   65W        W43159  15.837   5.198   9.937  0.2933 -0.2513 -0.1667
   66W        W43160  14.969   3.362   7.978  0.2789  0.2906  0.0567
   67W        W43161  18.821   5.488   6.844  0.2050 -0.1288 -0.2885
   68W        W43162  17.220   5.065   9.380  0.0286 -0.3960 -0.1752
   69W        W43163  16.589   7.213   9.124 -0.1478  0.1570 -0.0647
   70W        W43164  17.652   4.180   7.933 -0.0122 -0.0659  0.0523
   71W        W43165  17.346   6.720   8.669  0.1110  0.1050 -0.0164
   72W        W43166  14.352   4.539  10.198 -0.0862 -0.0602 -0.5218
   73W        W43167  17.179   5.333   8.596 -0.2684  0.3113  0.4382
   74W        W43168  18.616   5.652   9.172 -0.1626 -0.2055 -0.0546
   75W        W43169  16.059   3.295   8.574  0.2562 -0.2104 -0.1877
   76W        W43170  14.890   4.595  10.079  0.3818  0.0272  0.1411
   77W        W43171  14.762   6.851   8.626 -0.0419  0.2408  0.1195
   78W        W43172  16.717   4.853   9.559 -0.0665  0.0027  0.0943
   79W        W43173  16.283   6.777   8.067  0.4201 -0.3067 -0.1747
   80W        W43174  17.063   5.921   9.353  0.0349 -0.1132  0.0136
   81W        W43175  15.006   4.842   6.664  0.0900  0.1458 -0.2204
   82W        W43176  17.046   6.285   6.694 -0.2334  0.0236 -0.0379
   83W        W43177  15.522   6.920   7.623 -0.0279  0.1510  0.0803
   84W        W43178  16.565   5.773   9.597 -0.2099  0.3884 -0.1259
   85W        W43179  16.402   4.979   7.967  0.0466  0.1314 -0.1547
   86W        W43180  16.626   5.239   8.829 -0.0739 -0.0415 -0.2060
   87W        W43181  16.177   5.119   9.034 -0.1316  0.0916  0.0335
   88W        W43182  18.300   1.917   8.256 -0.0280  0.1675 -0.2274
   89W        W43183  18.536   3.633   8.076 -0.1544 -0.0436  0.0581
   90W        W43184  16.506   6.767   9.747  0.2891  0.1115  0.1943
   91W        W43185  14.365   5.003   7.210  0.0656 -0.0512 -0.0539
   92W        W43186  15.046   6.586   7.579 -0.1679 -0.1187  0.0666
   93W        W43187  15.496   6.919   8.244  0.0425  0.0513 -0.0836
   94W        W43188  15.920   6.141   8.902  0.3111 -0.0060  0.0466
   95W        W43189  14.046   3.728   8.181 -0.1907  0.2836 -0.1355
   96W        W43190  18.011   5.967   7.791  0.0792  0.0912 -0.1785
   97W        W43191  15.789   1.878   9.943  0.0091 -0.0046 -0.0399
   98W        W43192  14.636   3.239   9.005 -0.0520 -0.0082  0.0707
   99W        W43193  17.045   6.044   7.515 -0.0054 -0.1223  0.1683
  100W        W43194  19.113   5.936   7.803 -0.3347  0.2369 -0.3368
  101W        W43195  16.016   4.544   8.019 -0.3561  0.0716  0.0333
  102W        W43196  15.998   6.753   7.530 -0.0009  0.0935 -0.0035
  103W        W43197  14.199   4.571   8.139 -0.2765  0.0512  0.1599
  104W        W43198  16.620   5.913   9.042  0.1140  0.1514  0.0763
  105W        W43199  17.275   7.870   8.531  0.1825 -0.1282  0.1642
  106W        W43200  18.213   7.348   8.052 -0.2582 -0.3032  0.2718
  107W        W43201  14.873   3.217  10.177  0.2431  0.0058  0.0090
  108W        W43202  16.860   6.104   8.230  0.0196  0.0805  0.0185
  109W        W43203  17.742   5.542   8.510 -0.0230 -0.0655 -0.0233
  110W        W43204  18.948   3.104   8.876 -0.3703 -0.1602 -0.0477
  111W        W43205  16.375   3.798   7.716 -0.0969 -0.3260  0.0198
  112W        W43206  18.508   6.117   8.933  0.3094  0.2682 -0.0275
  113W        W43207  15.770   5.196   8.789  0.1701  0.2265  0.3516
  114W        W43208  16.302   3.547   8.161  0.0385 -0.0513 -0.1753
  115W        W43209  16.577   6.409   7.666 -0.3269 -0.0172  0.2449
  116W        W43210  14.663   7.383   9.769 -0.1798 -0.1304 -0.0274
  117W        W43211  16.418   4.406   7.751  0.1569  0.2256 -0.1094
  118W        W43212  16.454   6.090   8.506  0.1662  0.1460 -0.0676
  119W        W43213  15.738   3.967   8.159 -0.1418  0.3357  0.1205
  120W        W43214  18.405   4.949   6.707  0.0461 -0.1134 -0.1722
  121W        W43215  15.679   7.275   9.568  0.2479 -0.0026 -0.2320
  122W        W43216  16.486   3.113   8.706  0.0765  0.0539 -0.2292
  123W        W43217  18.208   4.249   8.791 -0.2138  0.0808  0.2984
  124W        W43218  15.984   3.170  10.048  0.0767  0.4094  0.1111
  125W        W43219  14.629   4.752   7.554 -0.0718  0.1282 -0.1832
  126W        W43220  15.733   5.473   7.310  0.1589 -0.2288 -0.1010
  127W        W43221  16.701   3.978   9.792 -0.1177  0.2615 -0.2991
  128W        W43222  15.927   4.119   8.983 -0.1008  0.0025  0.1711
  129W        W43223  17.112   2.921   6.588 -0.1890 -0.1553 -0.4223
  130W        W43224  17.637   7.783   9.558  0.1675 -0.0589 -0.1326
  131W        W43225  16.920   4.598   8.497  0.2235  0.3532  0.1622
  132W        W43226  16.887   7.813   3.563  0.3685  0.1787 -0.0805
  133W        W43227  15.694   7.834   1.866  0.2361  0.0818 -0.0789
  134W        W43228  18.282   9.546  30.568  0.1974  0.1101  0.0927
  135W        W43229  15.396  10.330  31.964 -0.3285 -0.1754  0.1401
  136W        W43230  15.692   7.062   2.441 -0.0847 -0.2337  0.0332
  137W        W43231  17.138  10.625   1.150  0.0009 -0.0790  0.0296
  138W        W43232  16.225   7.314   3.606 -0.1159 -0.1804 -0.0384
  139W        W43233  16.971   9.632   2.621 -0.1536  0.2404 -0.0714
  140W        W43234  18.279   9.846   1.499 -0.3317 -0.1805  0.1473
  141W        W43235  15.757   9.355  31.865  0.0377  0.2377  0.0542
  142W        W43236  16.186   8.512   2.381  0.0040 -0.5724 -0.1054
  143W        W43237  16.266  10.602   1.269 -0.1585 -0.0534 -0.0759
  144W        W43238  16.366   6.646   1.701 -0.0369  0.2497  0.1356
  145W        W43239  14.628   6.053   2.132 -0.3599 -0.1322 -0.3338
  146W        W43240  16.243   8.557   2.860 -0.2010  0.1082 -0.2573
  147W        W43241  15.143   9.530   1.145 -0.2843 -0.0937  0.2406
  148W        W43242  14.403   8.923   3.070 -0.1718  0.2158  0.1988
  149W        W43243  15.321   7.509   1.630 -0.0333  0.0043 -0.4549
  150W        W43244  17.180  10.931   0.408 -0.0150  0.1561 -0.1595
  151W        W43245  15.674   9.033   3.210  0.0662 -0.0459 -0.1646
  152W        W43246  16.543   6.510   1.035 -0.1590 -0.1455  0.1983
  153W        W43247  16.891  11.368   0.406  0.1247  0.0922  0.2097
  154W        W43248  15.855   8.055   0.441  0.2640 -0.0981  0.2344
  155W        W43249  15.455   8.645   2.443 -0.0156 -0.1018  0.0272
  156W        W43250  16.057   8.432   3.406  0.2233 -0.1891  0.3191
  157W        W43251  16.480   6.962   2.594  0.1618  0.3186 -0.0438
  158W        W43252  16.240   8.969   1.536  0.1431  0.1657  0.1602
  159W        W43253  16.011  10.173   3.290  0.1281  0.0063 -0.0123
  160W        W43254  15.726  11.698   0.698  0.1275  0.0718 -0.0312
  161W        W43255  16.927   8.790   2.140  0.1060 -0.2868 -0.2398
  162W        W43256  15.342   8.808   1.900 -0.3812 -0.2499  0.0062
  163W        W43257  15.939  11.325   1.748 -0.1092 -0.0326  0.0190
  164W        W43258  14.844  10.033   1.693 -0.3558 -0.1730  0.1894
  165W        W43259  16.590  10.301   0.991  0.0288 -0.2215 -0.0466
  166W        W43260  17.900   9.334   2.739  0.0910  0.1178 -0.1576
  167W        W43261  14.864  11.442   4.728  0.0893  0.2477  0.0495
  168W        W43262  15.906  10.320   0.959  0.0645  0.1547  0.3010
  169W        W43263  17.411  11.293   3.617 -0.0998  0.0381  0.1806
  170W        W43264  15.516  11.032   2.997  0.0214  0.0322 -0.4657
  171W        W43265  16.542  10.096   1.644  0.4816  0.0654  0.3200
  172W        W43266  16.383   7.709   0.685  0.0978  0.4057 -0.1370
  173W        W43267  16.658  10.949   0.269  0.3621  0.0418  0.3397
  174W        W43268  15.797   8.741   1.602  0.0581 -0.2046 -0.0039
  175W        W43269  16.305  10.639   3.462 -0.1062  0.1390  0.1021
  176W        W43270  14.824   8.534   1.915  0.3231 -0.2691 -0.0512
  177W        W43271  16.837   6.975   3.061 -0.2921 -0.2375  0.1379
  178W        W43272  14.384   9.922   0.589  0.4912 -0.2393  0.3258
  179W        W43273  17.892   9.401  31.741 -0.1063  0.1202  0.1292
  180W        W43274  14.643   8.650   0.051  0.0162 -0.0570 -0.1589
  181W        W43275  16.288   8.184   0.295  0.2371  0.2290  0.0122
  182W        W43276  15.998   6.224   1.592 -0.0384  0.2528  0.3279
  183W        W43277  17.221  10.996   2.326  0.3123 -0.1173  0.0271
  184W        W43278  14.745   8.336   3.561  0.1783  0.1054 -0.2471
  185W        W43279  18.067   8.918   3.140 -0.0459 -0.3869 -0.1184
  186W        W43280  15.597   8.865  31.832 -0.0984 -0.2957 -0.2299
  187W        W43281  17.589   6.898   3.103  0.0215 -0.0378 -0.1985
  188W        W43282  16.745  10.580   3.934  0.3762 -0.2258  0.3007
  189W        W43283  15.501   8.306   0.780 -0.2196 -0.1327  0.1414
  190W        W43284  17.914  10.262   1.219  0.1857  0.1161 -0.0614
  191W        W43285  17.755   9.815   1.273 -0.1119  0.1087 -0.1545
  192W        W43286  16.727  10.380  31.159 -0.1560  0.1068  0.0217
  193W        W43287  14.842   9.089   0.976 -0.4411 -0.0959 -0.0041
  194W        W43288  14.191   9.687   4.727  0.2299  0.1543  0.0179
  195W        W43289  16.516   8.590   4.205 -0.2538 -0.4607 -0.4674
  196W        W43290  15.022   6.798   1.801 -0.0490 -0.1231 -0.3359
  197W        W43291  18.547  10.478   2.801  0.1085 -0.3224  0.0432
  198W        W43292  14.404   9.473   3.036 -0.0556 -0.1762 -0.0235
  199W        W43293  19.024   9.061   2.775  0.0689  0.0639 -0.2734
  200W        W43294  16.176  10.096   1.362  0.1825  0.0929  0.4558
  201W        W43295  16.953   8.714   1.516 -0.2197 -0.1547 -0.1982
  202W        W43296  14.624   9.515   0.763  0.1778 -0.4006  0.0546
  203W        W43297  17.000   7.935   1.627 -0.0185  0.1649  0.0212
  204W        W43298  18.222   6.785   2.610  0.0901 -0.0190  0.0522
  205W        W43299  15.630   8.650  30.758 -0.1896  0.0036 -0.1342
  206W        W43300  14.812   9.062   0.393  0.2813 -0.3070  0.0072
  207W        W43301  18.451  10.145   2.453 -0.1089 -0.0974 -0.1083
  208W        W43302  18.078   9.978  30.693 -0.0035  0.1364  0.0690
  209W        W43303  15.964  10.321   2.396 -0.3094  0.0095 -0.1803
  210W        W43304  15.555   8.003   3.473 -0.0644 -0.1032  0.1982
  211W        W43305  17.552  10.135   2.715 -0.0917 -0.1111  0.1711
  212W        W43306  15.839  10.752   0.660 -0.1008  0.0408  0.0129
  213W        W43307  13.396   8.888   0.900  0.1043 -0.0168  0.1394
  214W        W43308  15.896   8.406  30.217  0.0199  0.1709  0.3790
  215W        W43309  14.769   7.614   3.125  0.1590  0.3313  0.0831
  216W        W43310  15.330   9.647   1.585 -0.2083 -0.2232 -0.1085
  217W        W43311  17.701   8.513   0.759  0.1293 -0.0291 -0.1851
  218W        W43312  15.320   6.980   3.400  0.1989  0.1844  0.0377
  219W        W43313  18.558   7.082   2.265 -0.1059  0.1578  0.0477
  220W        W43314  14.005  10.340   0.427 -0.3088  0.1342 -0.1634
  221W        W43315  18.367  10.414   1.476  0.1054 -0.3259 -0.0653
  222W        W43316  17.246   8.233  31.768  0.1912 -0.4805 -0.2680
  223W        W43317  17.233   8.801   0.934 -0.4872 -0.2852  0.1764
  224W        W43318  13.939   7.461   2.947 -0.1513  0.3843  0.2042
  225W        W43319  15.520   7.232   2.026 -0.0081  0.0619 -0.1163
  226W        W43320  16.017   9.278   2.921 -0.0818  0.0074  0.2224
  227W        W43321  15.218   7.690   2.053 -0.2109 -0.0262 -0.2388
  228W        W43322  16.298   7.101   3.107 -0.0537  0.1841 -0.3759
  229W        W43323  16.242   6.368  31.943  0.1235  0.0433  0.2493
  230W        W43324  16.288   7.561   1.222 -0.1270  0.0391  0.0378
  231W        W43325  16.787   7.304   1.329  0.0011  0.2312  0.1401
  232W        W43326  14.512  10.465   0.069 -0.3285 -0.1559  0.0098
  233W        W43327  17.754   7.008   2.580  0.2299 -0.0934  0.3324
  234W        W43328  16.027  11.698   0.006  0.1265 -0.0739 -0.1092
  235W        W43329  17.896  10.150   1.708 -0.3445  0.0363  0.0514
  236W        W43330  17.876  11.180   1.181  0.0528  0.0272 -0.2015
  237W        W43331  16.560   9.526   1.696 -0.1553  0.2166  0.1728
  238W        W43332  15.207   7.899  31.778  0.1015  0.2314  0.2433
  239W        W43333  15.911  11.424   1.255 -0.1917  0.0628 -0.0400
  240W        W43334  15.346  10.140   1.793  0.1208  0.1257 -0.1156
  241W        W43335  15.042   7.607   0.955 -0.1823  0.2333  0.3866
  242W        W43336  17.829  11.272   0.338  0.0691  0.0812  0.2782
  243W        W43337  16.472   8.652   0.469 -0.0033 -0.2778 -0.1232
  244W        W43338  16.719   9.661   3.571 -0.0450  0.4041  0.0368
  245W        W43339  17.305   6.536   3.319  0.1068 -0.1840 -0.1336
  246W        W43340  17.771   7.145   4.318 -0.1268 -0.1910 -0.5493
  247W        W43341  16.312   7.264   1.646  0.1403  0.1962 -0.1703
  248W        W43342  14.711   8.988  31.628 -0.2125 -0.0641  0.0375
  249W        W43343  16.243   9.249  31.757 -0.3016 -0.1491 -0.3405
  250W        W43344  14.794  10.921   1.730 -0.1594 -0.4310 -0.2547
  251W        W43345  14.183   8.946   0.421 -0.2030 -0.0044 -0.1316
  252W        W43346  16.242   9.486   0.938 -0.0366  0.1120  0.1650
  253W        W43347  17.198   7.042   2.699  0.0200 -0.2468 -0.1116
  254W        W43348  14.579   9.228   3.474  0.2845 -0.2346  0.0279
  255W        W43349  16.284   7.934   3.599 -0.1144 -0.0707  0.0417
  256W        W43350  14.279   9.769  30.866  0.2519 -0.1660 -0.0303
  257W        W43351  16.540   9.390   2.232 -0.0598 -0.1165 -0.1578
  258W        W43352  16.434   6.953   1.301 -0.1112 -0.0532 -0.0814
  259W        W43353  19.205   7.191  31.627  0.1980  0.2147 -0.2388
  260W        W43354  16.334   9.617   3.270  0.2396  0.3257  0.0438
  261W        W43355  16.771   9.915  31.980 -0.1408 -0.0134  0.1243
  262W        W43356  15.636   7.677  30.795  0.1036 -0.1182  0.4148
  263W        W43357  17.105   8.627  31.439 -0.1308  0.1206  0.0729
  264W        W43358  16.106   9.449   1.882  0.3485  0.1083  0.0221
  265W        W43359  15.418   9.815   0.789  0.0143 -0.1056 -0.0142
  266W        W43360  15.818   8.315   2.636  0.0053  0.0705 -0.0646
  267W        W43361  16.458   7.340  31.847 -0.0851 -0.0633 -0.1944
  268W        W43362  19.253  11.569  31.878 -0.2763  0.1730 -0.1127
  269W        W43363  15.324   8.906   2.836  0.0900  0.1266  0.1591
  270W        W43364  17.258  10.699   4.283  0.0309  0.1105  0.1317
  271W        W43365  16.734  10.679   0.665 -0.4091 -0.1502  0.0273
  272W        W43366  16.450   6.305   3.549 -0.2814 -0.2889  0.2192
  273W        W43367  15.929   7.513   0.761 -0.1812 -0.1337  0.2865
  274W        W43368  15.977   7.544   3.236  0.2265 -0.2659  0.4630
  275W        W43369  14.979  10.665   0.012 -0.2210 -0.2970 -0.3490
  276W        W43370  17.286   6.538   2.315  0.0302  0.0552  0.0684
  277W        W43371  16.635   8.431   2.441 -0.1034 -0.0143 -0.1611
  278W        W43372  15.562   6.357   3.010 -0.2316 -0.3228  0.0831
  279W        W43373  17.628   9.254   3.207 -0.0663  0.2181  0.0010
  280W        W43374  18.073   9.905  31.768  0.2097  0.1395  0.1963
  281W        W43375  17.337   9.093   2.356 -0.0741 -0.3256 -0.0622
  282W        W43376  15.526   9.799  31.840  0.1031  0.0258 -0.0790
  283W        W43377  17.415   8.496   3.081 -0.0403 -0.0884 -0.2558
  284W        W43378  16.103   8.016   3.160  0.1430  0.3948  0.0028
  285W        W43379  14.142   9.611   1.947 -0.4719  0.0680  0.1715
  286W        W43380  17.101   9.473   3.277  0.1591 -0.3569 -0.0423
  287W        W43381  16.647   8.829  31.589  0.2577  0.0625  0.0142
  288W        W43382  15.950   6.250   4.504  0.0329  0.0606 -0.1347
  289W        W43383  16.491   8.109  30.764  0.1687 -0.0863 -0.0244
  290W        W43384  15.853  10.654   0.132 -0.2156  0.0299 -0.0679
  291W        W43385  13.579  10.531  30.619 -0.2917  0.0599 -0.2760
  292W        W43386  15.491   6.133   2.114 -0.0876  0.1142 -0.1230
  293W        W43387  16.724   9.818   2.103 -0.0114 -0.2882  0.0971
  294W        W43388  14.698   8.618  28.748  0.0739  0.0362  0.0213
  295W        W43389  15.921   9.876   0.694 -0.0792  0.0749  0.0031
  296W        W43390  16.142  11.443   0.546  0.2417  0.4824  0.0523
  297W        W43391  17.463   6.505   2.754  0.0044  0.4031 -0.2694
  298W        W43392  15.898  10.787   2.105 -0.1708  0.2521 -0.0276
  299W        W43393  15.528   7.738   1.241  0.2728 -0.3007  0.1976
  300W        W43394  14.186   7.488   1.973  0.3250 -0.4027  0.0728
  301W        W43395  17.162   7.719   0.493 -0.2701  0.0599 -0.1908
  302W        W43396  17.667   9.388   0.249 -0.0575 -0.1181 -0.0008
  303W        W43397  13.486   7.583   3.592 -0.4675  0.0445 -0.2775
  304W        W43398  16.728   8.106   0.626 -0.3059  0.0766 -0.0872
  305W        W43399  15.128   9.481   0.600 -0.2287  0.0670 -0.3906
  306W        W43400  16.205   8.886   0.941  0.1936  0.1125 -0.0869
  307W        W43401  17.055   7.821  31.977  0.0857  0.0579 -0.0110
  308W        W43402  18.024   8.737   1.874 -0.2086 -0.0815 -0.4470
  309W        W43403  16.440   9.527   2.742 -0.1930 -0.2040 -0.0585
  310W        W43404  13.649   9.332   0.094  0.2464  0.0351 -0.0837
  311W        W43405  18.909   7.249   1.963  0.6111  0.0123 -0.1016
  312W        W43406  15.955   6.711   1.365 -0.2173 -0.0629 -0.2302
  313W        W43407  14.521   9.385   2.215 -0.0595  0.1995 -0.0946
  314W        W43408  17.165  10.753   1.834  0.0253 -0.2740 -0.1763
  315W        W43409  15.821   7.424   1.544  0.0110 -0.0528  0.1726
  316W        W43410  15.695   8.748   0.933 -0.2726  0.1908  0.1311
  317W        W43411  14.893   8.750   3.308  0.2699  0.0029  0.0526
  318W        W43412  17.058  10.225   1.896 -0.0653 -0.1435 -0.4349
  319W        W43413  16.719   7.313   3.444  0.0804  0.0929  0.0057
  320W        W43414  16.151   6.720   2.269  0.2644 -0.0290 -0.3435
  321W        W43415  16.144   8.228  31.651  0.2586  0.0572  0.1078
  322W        W43416  17.432   9.757   3.030 -0.1563  0.0852 -0.0999
  323W        W43417  16.483   7.619   3.176 -0.4892 -0.0700  0.3101
  324W        W43418  16.724  10.639   1.578  0.1789 -0.0122 -0.2253
  325W        W43419  17.121   6.943   2.161  0.1158  0.1649  0.2393
  326W        W43420  19.373  10.537   0.650 -0.0073  0.0385  0.1359
  327W        W43421  15.327   7.405   2.519  0.2004 -0.1814 -0.1097
  328W        W43422  15.564   8.295  29.616  0.1315 -0.0020  0.3021
  329W        W43423  15.199   8.645   1.464 -0.0084  0.0022 -0.2876
  330W        W43424  14.605   9.387   1.289 -0.1265 -0.1183 -0.1438
  331W        W43425  16.809   7.420   2.837  0.1208  0.1636 -0.2452
  332W        W43426  14.990   8.439   2.413  0.0031 -0.2147  0.1243
  333W        W43427  14.086   9.910   1.023  0.4289 -0.0019  0.0638
  334W        W43428  15.846  10.323   1.881 -0.1168 -0.2543  0.1928
  335W        W43429  18.249   8.137   0.079  0.3245  0.2198 -0.2932
  336W        W43430  15.010  10.304   0.435  0.1346 -0.0135  0.5807
  337W        W43431  16.549   7.702   2.382 -0.0646  0.2440  0.1109
  338W        W43432  17.243   5.914   3.666 -0.1329 -0.0756 -0.0270
  339W        W43433  18.050  10.765   0.287  0.4536 -0.0711  0.3410
  340W        W43434  16.973   6.871   3.566  0.0432  0.0460 -0.1661
  341W        W43435  14.385   8.355   2.905  0.1498 -0.1293 -0.1807
  342W        W43436  16.858   9.471   0.809  0.0838  0.1945  0.0515
  343W        W43437  14.955   8.925   2.254 -0.1049 -0.0702  0.1191
  344W        W43438  18.059  11.924   3.678  0.0764  0.0687 -0.3786
  345W        W43439  13.528   8.928   2.929  0.1304  0.0095 -0.3378
  346W        W43440  15.683   7.552   0.322 -0.3510  0.0093  0.1888
  347W        W43441  15.749   7.949  31.942  0.0612 -0.0501 -0.5246
  348W        W43442  15.974  10.735   1.639 -0.2287  0.0467  0.0158
  349W        W43443  17.684  10.708   1.192  0.1168  0.1267  0.3544
  350W        W43444  16.453   9.781   0.625  0.0045 -0.0330 -0.3316
  351W        W43445  16.930   7.933   2.173  0.0308 -0.3735 -0.1639
  352W        W43446  15.435   9.102   1.354 -0.2434 -0.1310 -0.3422
  353W        W43447  16.433   8.488  31.930 -0.1760  0.0510 -0.0824
  354W        W43448  16.264   7.181  31.402 -0.0947  0.3074 -0.3251
  355W        W43449  16.012   8.469   1.193 -0.0726  0.0727 -0.0584
  356W        W43450  15.251   7.788   2.988  0.0837 -0.0025 -0.0551
  357W        W43451  15.403   9.114   0.331 -0.0072 -0.3685  0.0040
  358W        W43452  17.198   7.968   0.964  0.2516 -0.0269 -0.1154
  359W        W43453  17.469   7.322   2.281  0.0725  0.2181  0.0630
  360W        W43454  16.887   9.062   2.577 -0.2146 -0.0037 -0.1848
  361W        W43455  15.614   9.319   0.941 -0.0549  0.1686  0.1925
  362W        W43456  15.043   7.802   3.506  0.0242 -0.1118  0.0383
  363W        W43457  16.350  10.992   1.880 -0.0797 -0.2828 -0.0113
  364W        W43458  16.129   7.732   0.210  0.0906  0.1018  0.3160
  365W        W43459  19.265   7.817   3.669  0.1518  0.0773  0.0351
  366W        W43460  16.490   9.097   0.599  0.0304  0.2233 -0.1404
  367W        W43461  16.504   8.498  31.153  0.0627  0.0507 -0.1245
  368W        W43462  15.912   6.968   1.951  0.1372  0.2285 -0.3617
  369W        W43463  17.061   8.671   3.619 -0.3042 -0.0314 -0.2925
  370W        W43464  15.358   9.649  30.818  0.2699  0.1968  0.2788
  371W        W43465  17.079   6.113   2.467 -0.0179 -0.0298  0.1841
  372W        W43466  15.975  10.225  31.859 -0.5260  0.1863  0.0721
  373W        W43467  16.579   8.969   0.091  0.0578  0.0723 -0.1132
  374W        W43468  16.666   9.208  31.271  0.0539 -0.0898 -0.0089
  375W        W43469  13.376   8.109   3.502 -0.2329 -0.3174  0.2495
  376W        W43470  15.224  10.534   2.688  0.2167  0.3129 -0.1051
  377W        W43471  14.539   7.593   0.536  0.3892  0.0552  0.2069
  378W        W43472  16.580   8.895  30.832  0.2072  0.0966  0.1828
  379W        W43473  16.906  10.180   1.346 -0.0178 -0.0192  0.4976
  380W        W43474  17.107  10.019   3.314 -0.2080 -0.0567  0.0665
  381W        W43475  16.767   7.307  30.900  0.2779 -0.1431  0.1335
  382W        W43476  17.442   7.974   2.915  0.1803  0.2130  0.0057
  383W        W43477  13.676   9.948   0.495 -0.1041 -0.0937  0.2101
  384W        W43478  16.858   8.412   0.961  0.1147 -0.1543  0.1910
  385W        W43479  17.076  11.897   0.435 -0.0828  0.1347  0.1050
  386W        W43480  15.850   9.823   1.675 -0.0216  0.0043  0.1011
  387W        W43481  16.270  10.162   0.294  0.2334 -0.1910  0.1148
  388W        W43482  15.769   6.906   4.355 -0.2689  0.6527  0.1277
  389W        W43483  16.715   6.590   2.218  0.1912 -0.1665  0.2170
  390W        W43484  16.302   9.933   2.318 -0.3241 -0.0558 -0.1356
  391W        W43485  18.653   8.296   2.835  0.1451  0.2616  0.1786
  392W        W43486  16.159   8.912   3.291  0.1830  0.1801  0.2234
  393W        W43487  15.883   7.985   0.999  0.2102 -0.0072 -0.0946
  394W        W43488  16.792  11.643   2.933 -0.2502 -0.2400  0.2488
  395W        W43489  15.638  10.412   1.377  0.1752 -0.1500 -0.0964
  396W        W43490  15.437  10.316   2.256 -0.0984  0.3770  0.1307
  397W        W43491  13.992   7.991   3.787  0.3364  0.1952 -0.0347
  398W        W43492  16.590   8.134   3.280  0.0299  0.0541  0.1072
  399W        W43493  16.088   8.785  31.585 -0.1532 -0.2802 -0.1718
  400W        W43494  16.881   6.915   1.629 -0.1992 -0.0375 -0.3743
  401W        W43495  16.016   8.453   0.696  0.0254 -0.2382  0.0690
  402W        W43496  15.841   9.665   3.121 -0.0952  0.2908  0.2763
  403W        W43497  14.851   8.081   2.076 -0.0285 -0.0678 -0.0643
  404W        W43498  15.328  10.724   0.426 -0.1276  0.2594 -0.0436
  405W        W43499  16.066  10.593  30.874 -0.0966 -0.5815 -0.0052
  406W        W43500  15.104  10.060  31.087 -0.1976  0.2051  0.0471
  407W        W43501  17.481   9.807   1.902  0.0074 -0.0852 -0.0612
  408W        W43502  15.129   8.668  30.953  0.0512 -0.0649 -0.0141
  409W        W43503  16.342  10.039   2.856 -0.1565 -0.0384 -0.2423
  410W        W43504  14.062   9.633   0.266 -0.1069 -0.3342  0.1589
  411W        W43505  17.116   9.670  31.461 -0.1404 -0.0149  0.3862
  412W        W43506  15.706  10.264   0.362 -0.1360  0.1779 -0.2697
  413W        W43507  16.737  10.320   2.391 -0.0180 -0.3829  0.1149
  414W        W43508  17.151   7.689  30.454 -0.1007  0.0083  0.1489
  415W        W43509  17.472   9.344   1.197 -0.1110 -0.2355 -0.1028
  416W        W43510  17.319   8.400   1.198 -0.1702  0.0887 -0.2200
  417W        W43511  17.158  10.506   3.134 -0.1181 -0.0543  0.0777
  418W        W43512  15.777   7.264   2.892 -0.1611 -0.0892  0.0271
  419W        W43513  16.404   7.223   0.912  0.0037  0.1296  0.0822
  420W        W43514  15.297  10.002   1.204 -0.1121 -0.3451  0.0261
  421W        W43515  19.411   7.090   3.752 -0.0746 -0.0598  0.0649
  422W        W43516  15.078   9.299   2.712  0.1244 -0.3571  0.1036
  423W        W43517  16.798  10.979  30.876 -0.1589  0.2241 -0.1266
  424W        W43518  14.438   8.022   1.870 -0.0458  0.2246 -0.3007
  425W        W43519  17.034   9.242   1.302 -0.1635 -0.1335 -0.0386
  426W        W43520  17.702   5.719   3.277 -0.4226 -0.1847 -0.0157
  427W        W43521  14.779   9.802   0.312  0.0097 -0.2343 -0.0679
  428W        W43522  16.633   7.576   1.906 -0.0584 -0.0972  0.0436
  429W        W43523  16.228  11.021   0.834 -0.1799 -0.2049 -0.2101
  430W        W43524  15.699  12.094   3.109 -0.0329 -0.0002 -0.3162
  431W        W43525  16.039  11.082   2.856  0.0821  0.1615  0.5337
  432W        W43526  13.939   7.373   0.289  0.0347 -0.4500 -0.1136
  433W        W43527  17.685   8.473   1.652 -0.0799 -0.1520  0.3056
  434W        W43528  15.967   9.374   2.380 -0.1703 -0.1098  0.1125
  435W        W43529  18.460   6.940   3.041  0.0279 -0.1542  0.0140
  436W        W43530  16.199   8.946   2.054 -0.2319 -0.0833  0.1940
  437W        W43531  17.814   7.919   1.034  0.0566 -0.1570  0.0293
  438W        W43532  17.428  10.238   0.963  0.0495 -0.1224  0.1285
  439W        W43533  15.892   8.038   2.236  0.1795  0.0671  0.0322
  440W        W43534  16.447   7.944  31.282 -0.3337  0.0066  0.1237
  441W        W43535  17.112   8.209   2.624  0.0692 -0.2012  0.1148
  442W        W43536  15.697   8.798  31.250  0.1054  0.0185  0.0438
  443W        W43537  17.202  11.956   2.782  0.0649 -0.0997 -0.1358
  444W        W43538  14.383   5.381   0.378  0.1548  0.2661 -0.2854
  445W        W43539  17.062   8.826   0.456 -0.0546 -0.0271 -0.1760
  446W        W43540  15.550   8.375   1.265  0.0046  0.0673  0.2017
  447W        W43541  15.378   8.027   1.597  0.0413 -0.2448 -0.0679
  448W        W43542  17.580   9.644   3.533  0.0619 -0.0801 -0.0927
  449W        W43543  15.464   6.768   0.551 -0.0189 -0.0558 -0.1652
  450W        W43544  19.361   9.711   0.564 -0.4040 -0.1815 -0.0571
  451W        W43545  17.669   8.683   2.189 -0.0602 -0.3046  0.0604
  452W        W43546  16.169  10.977   0.304  0.0314  0.0429  0.1613
  453W        W43547  17.265   9.761   0.365 -0.0594 -0.0108  0.0040
  454W        W43548  16.302   9.816  31.923 -0.0191  0.0872  0.0701
  455W        W43549  15.748   7.797   2.848  0.2322  0.0859  0.3943
  456W        W43550  18.481   9.971   3.085  0.0468 -0.2627  0.0321
  457W        W43551  17.781   9.162   2.141 -0.0989 -0.1925 -0.1065
  458W        W43552  16.840   6.932   1.006 -0.1697  0.0600  0.0443
  459W        W43553  15.273   8.300   2.813 -0.3043  0.1149 -0.0289
  460W        W43554  16.605  11.878   0.467  0.1173 -0.0014  0.0901
  461W        W43555  16.732   7.933   1.217 -0.3304 -0.0019 -0.4396
  462W        W43556  16.468   8.584   1.280 -0.0523 -0.0896 -0.0886
  463W        W43557  18.144  10.770   0.889 -0.1093  0.0503  0.0051
  464W        W43558  17.820   6.662   3.516 -0.0062 -0.2914  0.1598
  465W        W43559  16.855  10.780   2.687 -0.1169 -0.0291  0.0548
  466W        W43560  16.502   9.491   4.056 -0.1575  0.0400 -0.2269
  467W        W43561  14.427   9.897  31.891 -0.1549  0.4857 -0.0115
  468W        W43562  15.652   8.502   3.073  0.0158 -0.0566 -0.0673
  469W        W43563  14.915   9.953   0.816  0.0384  0.1346 -0.3124
  470W        W43564  15.670   9.544   0.476 -0.2026  0.1803 -0.2078
  471W        W43565  17.088   9.478   2.192  0.0368  0.1029  0.1045
  472W        W43566  16.048   8.902   0.151 -0.0085  0.0614 -0.3518
  473W        W43567  19.143   9.584  31.692 -0.1808  0.1370  0.0144
  474W        W43568  15.777   7.572   2.392  0.2129  0.0178 -0.0158
  475W        W43569  16.837   7.572   0.838 -0.1661 -0.1203  0.0627
  476W        W43570  16.666   7.680   0.282  0.1375  0.2221 -0.0287
  477W        W43571  17.918   9.829   3.201 -0.2945  0.0565  0.2489
  478W        W43572  14.819   8.421  31.569  0.0912 -0.1192  0.0464
  479W        W43573  13.423  11.024  31.502 -0.0225 -0.0803  0.0828
  480W        W43574  15.414   8.404  31.826  0.0433  0.3420 -0.1061
  481W        W43575  15.854   7.668   3.733 -0.1501  0.1062  0.3568
  482W        W43576  15.588   9.397   2.697  0.0758 -0.0489 -0.0634
  483W        W43577  15.397   8.138   0.302 -0.1332  0.2375  0.1836
  484W        W43578  15.862   7.056   0.568 -0.0037 -0.3504 -0.0017
  485W        W43579  17.571  10.437   0.178  0.0716  0.2770 -0.0656
  486W        W43580  14.613   7.349   1.680  0.0266 -0.1046  0.2035
  487W        W43581  13.827   8.083   3.285  0.1408  0.0273  0.2358
  488W        W43582  17.223   9.731   1.196  0.3579 -0.5054 -0.1887
  489W        W43583  17.934   9.349   1.145 -0.1801  0.2135  0.2348
  490W        W43584  16.340   7.284   0.368 -0.1627  0.1369  0.2487
  491W        W43585  17.874   9.570   1.734  0.4813  0.3516 -0.0215
  492W        W43586  13.505  10.496  31.166  0.0366 -0.0204 -0.1651
  493W        W43587  16.296   8.993   2.540 -0.0383 -0.3325  0.0955
  494W        W43588  14.827   8.109   3.970 -0.0741  0.4582  0.2765
  495W        W43589  14.460   6.318   0.486 -0.1351  0.1547 -0.1441
  496W        W43590  16.297   8.551   1.795  0.1545  0.3355  0.1202
  497W        W43591  16.529   9.300   1.261 -0.1368  0.0621 -0.0882
  498W        W43592  18.400  10.482  31.883  0.2270 -0.1083 -0.0051
  499W        W43593  15.037   9.831   2.142  0.2489 -0.0241 -0.2986
  500W        W43594  15.591  11.375   3.372 -0.0577  0.1935 -0.0667
  501W        W43595  14.911   8.694   4.055 -0.2919 -0.1578  0.1908
  502W        W43596  16.726   8.305  31.550  0.1564  0.0641 -0.1218
  503W        W43597  17.232   9.959   2.317 -0.0448 -0.1898  0.4876
  504W        W43598  18.044   9.703   0.294 -0.3323 -0.2722 -0.0271
  505W        W43599  19.136   8.395   2.628 -0.2124 -0.2534 -0.0837
  506W        W43600  17.222   9.260   0.129  0.0220 -0.1370 -0.1230
  507W        W43601  15.639   5.493   4.199 -0.1173  0.1308  0.0338
  508W        W43602  15.574   9.677   2.114 -0.0685  0.3055  0.1746
  509W        W43603  18.819   9.836   2.249  0.0883 -0.0369  0.0016
  510W        W43604  16.229   7.509   2.764 -0.2475 -0.2160  0.2560
  511W        W43605  16.725   9.503   0.317  0.5039 -0.1935 -0.1716
  512W        W43606  15.211   9.468   0.040  0.0792 -0.2120 -0.2155
  513W        W43607  15.926   9.244   1.340  0.0774 -0.0831  0.0211
  514W        W43608  17.460   6.428  31.511  0.4563  0.3906 -0.2310
  515W        W43609  17.025   9.762   1.696 -0.0173 -0.0623 -0.1387
  516W        W43610  17.649  10.079   0.471 -0.2217 -0.1133 -0.3607
  517W        W43611  16.751   9.816   3.081  0.2507  0.0061 -0.0829
  518W        W43612  15.836   8.229   1.662 -0.0768  0.0260  0.3558
  519W        W43613  17.357   9.309   0.630  0.0976 -0.2567  0.0268
  520W        W43614  16.503  11.298   2.853  0.1616 -0.0251 -0.1563
  521W        W43615  17.497  12.304   3.366 -0.0343 -0.1224 -0.1055
  522W        W43616  17.264  10.448   2.360 -0.1425 -0.3384 -0.4013
  523W        W43617  17.990  10.677  31.612  0.3575 -0.1447 -0.3940
  524W        W43618  13.990   7.872   2.217  0.0540 -0.1635 -0.1781
  525W        W43619  16.318   8.170   0.986 -0.1058 -0.0830  0.2355
  526W        W43620  15.099   9.002  31.951 -0.0429 -0.2284 -0.0513
  527W        W43621  17.190   7.687   2.641 -0.1535 -0.1171 -0.2061
  528W        W43622  16.177   7.298   2.268  0.0999 -0.1841  0.0332
  529W        W43623  16.364   8.047   1.563 -0.1295 -0.1112  0.2462
  530W        W43624  16.373  10.733   2.515 -0.2876  0.2856  0.1542
  531W        W43625  15.274   9.004   0.789 -0.1110 -0.0465 -0.1258
  532W        W43626  16.325   8.867   5.265  0.0462 -0.0817 -0.0457
  533W        W43627  15.214   8.297   3.285  0.0670  0.0399 -0.1084
  534W        W43628  17.399   6.890   4.492 -0.0904 -0.0870 -0.0409
  535W        W43629  17.636   8.772   3.492  0.1132 -0.1263 -0.0519
  536W        W43630  15.277   7.810   4.425  0.1345  0.0072  0.0062
  537W        W43631  17.285  10.843   3.773 -0.1625  0.1020  0.0648
  538W        W43632  14.614   7.981   7.215 -0.4137 -0.1420 -0.1530
  539W        W43633  17.405  12.442   5.592 -0.0060 -0.1439  0.0581
  540W        W43634  17.784  10.446   5.388 -0.3642 -0.0284  0.1119
  541W        W43635  16.214   7.994   2.602  0.0786 -0.4237 -0.2193
  542W        W43636  16.380   8.373   5.428 -0.0256 -0.2315 -0.1044
  543W        W43637  17.302  10.890   6.656 -0.2738  0.0272 -0.0889
  544W        W43638  16.235   6.598   4.333 -0.4960  0.0657  0.0749
  545W        W43639  13.224   6.988   6.667  0.3567 -0.3258  0.0434
  546W        W43640  17.259   8.945   4.897  0.0627  0.3255  0.0449
  547W        W43641  16.150   8.483   4.771  0.2719 -0.0442 -0.0148
  548W        W43642  17.166   8.104   5.003 -0.0840 -0.1460  0.2143
  549W        W43643  16.004   9.256   3.584 -0.2290 -0.2891  0.0313
  550W        W43644  16.767  10.280   5.134 -0.0576  0.3192 -0.0026
  551W        W43645  16.609   7.872   6.375  0.0552  0.0159 -0.1353
  552W        W43646  17.722   8.619   7.534 -0.1638 -0.1825  0.0324
  553W        W43647  15.752  11.032   4.956 -0.2104 -0.2841  0.0577
  554W        W43648  13.937   7.605   4.109  0.0028 -0.0406 -0.0551
  555W        W43649  15.377   8.726   6.324 -0.2921  0.0090 -0.0060
  556W        W43650  15.750   9.432   5.983 -0.0589 -0.0279 -0.0571
  557W        W43651  17.540   8.066   5.727  0.1028  0.1686  0.1996
  558W        W43652  17.970   6.945   5.130  0.3656  0.2441  0.3925
  559W        W43653  15.309   9.950   3.982 -0.1919  0.0674 -0.0885
  560W        W43654  17.386  10.021   3.855 -0.1748  0.0126  0.1452
  561W        W43655  18.106   9.820   5.796  0.0767  0.0230  0.1714
  562W        W43656  15.387  10.406   3.821 -0.2946  0.4887 -0.0529
  563W        W43657  15.434  10.595   5.035 -0.0958  0.1025 -0.3029
  564W        W43658  17.005  10.530   4.687  0.1456 -0.2586 -0.1672
  565W        W43659  18.073  10.316   3.326  0.1556 -0.1502 -0.0045
  566W        W43660  16.903   9.433   6.066 -0.3399  0.0381  0.0067
  567W        W43661  16.511  10.533   6.224  0.2673  0.0580 -0.1091
  568W        W43662  15.718  10.641   3.234  0.0161  0.1437  0.2351
  569W        W43663  16.575  11.385   6.637  0.0821  0.1080  0.0736
  570W        W43664  15.985  12.090   6.347  0.0051  0.0720 -0.0622
  571W        W43665  16.934   8.583   5.733  0.2006 -0.4161 -0.0219
  572W        W43666  17.052   9.524   3.969  0.2399  0.1957  0.0274
  573W        W43667  14.976   9.229   3.797 -0.0894 -0.1382 -0.2752
  574W        W43668  16.770  10.083   3.836  0.1671  0.0706  0.0517
  575W        W43669  16.689  10.679   7.031  0.1558 -0.0759  0.2081
  576W        W43670  14.324  10.637   4.956  0.0955 -0.1508  0.2069
  577W        W43671  18.063   8.498   6.414 -0.2080  0.1707  0.0192
  578W        W43672  17.267  11.019   3.255 -0.0928  0.1111 -0.2020
  579W        W43673  16.681   7.959   2.774  0.0253 -0.1791  0.1471
  580W        W43674  16.293   7.557   4.047 -0.1392 -0.1561  0.2170
  581W        W43675  18.935   7.341   3.548 -0.2116 -0.1016 -0.4335
  582W        W43676  16.377   7.271   4.998  0.1758 -0.1544 -0.2596
  583W        W43677  14.299  11.121   5.549  0.0753 -0.1649  0.4709
  584W        W43678  15.310   7.971   5.331  0.0327  0.1885  0.3418
  585W        W43679  17.537   9.962   7.018 -0.1034 -0.2216  0.0429
  586W        W43680  17.857   8.263   3.288 -0.2528  0.1903  0.1856
  587W        W43681  16.845   7.612   4.253  0.2272  0.0116  0.0602
  588W        W43682  16.351  10.033   6.105  0.0809  0.2608  0.1712
  589W        W43683  13.396   8.887   4.621 -0.0654 -0.0802 -0.1003
  590W        W43684  16.919  12.034   2.075  0.3565 -0.2437  0.1545
  591W        W43685  17.495  11.113   4.414  0.2816  0.0702 -0.0027
  592W        W43686  14.645  12.390   2.256 -0.3076 -0.2839  0.2807
  593W        W43687  14.239   9.333   5.083  0.2485  0.0536 -0.1201
  594W        W43688  15.544   9.676   6.404 -0.1463 -0.0674 -0.3235
  595W        W43689  15.388   9.187   6.594  0.0094 -0.5477  0.0201
  596W        W43690  14.306   7.911   3.150  0.0518 -0.1572 -0.0872
  597W        W43691  16.400   9.232   7.472 -0.0709  0.0684  0.1099
  598W        W43692  15.222   8.738   6.916  0.2980 -0.3055 -0.0405
  599W        W43693  17.639   8.064   4.714 -0.0510  0.1062 -0.1433
  600W        W43694  16.008   9.249   5.521  0.1325  0.0819 -0.3097
  601W        W43695  17.987  11.229   5.671  0.2377 -0.3068  0.0425
  602W        W43696  16.979   8.402   4.207  0.0809  0.1206 -0.2199
  603W        W43697  18.081   7.468   4.751  0.2555  0.3319 -0.0030
  604W        W43698  17.341   7.894   6.326 -0.2697 -0.0804  0.4198
  605W        W43699  15.490   9.252   3.687  0.3095  0.2373  0.4716
  606W        W43700  16.016   8.816   3.878 -0.0892  0.4486 -0.1232
  607W        W43701  17.588  10.551   6.360  0.0316 -0.0391 -0.0019
  608W        W43702  18.550   9.518   2.545 -0.2293  0.2184  0.1632
  609W        W43703  15.397   9.971   5.947  0.2942  0.0016 -0.1977
  610W        W43704  15.730   7.847   6.551  0.1212  0.2246  0.2890
  611W        W43705  17.785   9.152   7.676  0.2988 -0.0386 -0.0034
  612W        W43706  15.429  10.819   3.609 -0.1665  0.2620 -0.0180
  613W        W43707  16.630   8.076   5.028 -0.0931 -0.1339 -0.0210
  614W        W43708  15.785   9.521   4.029 -0.1483 -0.2892  0.0378
  615W        W43709  15.334   8.240   6.215  0.0999 -0.2014 -0.1651
  616W        W43710  15.977  10.194   4.598 -0.1072 -0.0150 -0.2273
  617W        W43711  17.153   9.190   4.382 -0.0832 -0.0551  0.0020
  618W        W43712  16.360   7.155   5.534  0.1498 -0.1580 -0.2476
  619W        W43713  17.952   8.494   5.384  0.0060  0.3333  0.2603
  620W        W43714  15.727   8.050   4.547 -0.2026 -0.0433 -0.1714
  621W        W43715  18.326  10.012   4.189  0.0746  0.2226 -0.0831
  622W        W43716  18.423   8.296   3.840  0.1222  0.0686 -0.0904
  623W        W43717  16.532  10.145   3.404 -0.0165  0.2142  0.1579
  624W        W43718  14.540   7.843   6.662 -0.4356 -0.0702 -0.1934
  625W        W43719  15.900   8.236   5.634 -0.2191 -0.2170 -0.0728
  626W        W43720  16.023   8.424   6.503  0.0845 -0.1722 -0.1137
  627W        W43721  15.480   8.493   5.742 -0.0382 -0.1860  0.0924
  628W        W43722  17.076   8.083   5.932  0.1098  0.1635  0.1954
  629W        W43723  14.367   5.760   3.465  0.2947  0.0178 -0.0297
  630W        W43724  16.752   8.961   4.536  0.2059  0.0588  0.1849
  631W        W43725  15.276   7.461   5.326 -0.1951 -0.1405  0.1889
  632W        W43726  16.727   8.523   4.813  0.0432  0.0768 -0.1397
  633W        W43727  15.686   7.533   8.819  0.2197  0.2222  0.3410
  634W        W43728  16.443  11.314   4.575 -0.2163 -0.3110 -0.0210
  635W        W43729  16.464  11.937   6.486  0.1528 -0.0243 -0.1008
  636W        W43730  18.236  11.200   5.052  0.1210  0.3632  0.3859
  637W        W43731  15.743   7.238   5.773 -0.0974 -0.1974 -0.1213
  638W        W43732  12.769   8.323   3.405 -0.3328  0.1809  0.1425
  639W        W43733  14.238  12.532   5.794 -0.2687  0.0097 -0.3831
  640W        W43734  15.921   9.757   5.358  0.0993  0.1104  0.0526
  641W        W43735  15.361   7.344   4.246  0.0669  0.0021  0.1164
  642W        W43736  17.818  10.219   4.939 -0.2009 -0.1809 -0.0319
  643W        W43737  17.561  10.432   3.487  0.0820 -0.0297 -0.1930
  644W        W43738  15.113   9.262   6.048 -0.2664 -0.0247  0.2394
  645W        W43739  17.949   7.130   7.226 -0.1284  0.0714 -0.0725
  646W        W43740  17.324   8.864   5.470 -0.0158 -0.1159  0.2107
  647W        W43741  16.625   8.963   5.649  0.1261  0.1457 -0.1389
  648W        W43742  16.110   7.311   4.578  0.0966  0.1083  0.0744
  649W        W43743  17.323  11.140   4.875  0.5986  0.1706 -0.0839
  650W        W43744  15.513  10.188   3.375 -0.1756  0.0688  0.0055
  651W        W43745  13.357   8.917   5.526  0.0505  0.1845 -0.1310
  652W        W43746  16.692  11.460   4.128  0.0841  0.2346  0.3004
  653W        W43747  18.735   7.705   5.239 -0.0194 -0.2394  0.1154
  654W        W43748  15.151   7.951   6.958  0.1077 -0.1129 -0.2566
  655W        W43749  16.881   9.188   6.492 -0.0246  0.1551  0.0745
  656W        W43750  15.338   9.687   3.057 -0.2167  0.1095  0.2138
  657W        W43751  15.613  10.148   5.222 -0.0456  0.1793 -0.1067
  658W        W43752  17.302   7.356   4.295 -0.0349 -0.0100  0.1825
  659W        W43753  19.319   8.193   3.069 -0.1074  0.1740 -0.1468
  660W        W43754  16.082  10.452   7.581 -0.2445 -0.1652 -0.0461
  661W        W43755  17.403   9.786   4.940  0.3315 -0.1479 -0.0500
  662W        W43756  16.506   8.544   3.610  0.0088 -0.2619  0.3177
  663W        W43757  17.181   7.298   3.187 -0.3459 -0.1706  0.1965
  664W        W43758  14.894  10.508   6.787  0.1585  0.0878 -0.1940
  665W        W43759  16.180   9.469   5.098  0.1785  0.1355  0.1558
  666W        W43760  16.262   9.203   6.631 -0.0058  0.0642  0.2497
  667W        W43761  14.848   6.353   4.305  0.2044 -0.2263 -0.2773
  668W        W43762  18.747   9.792   3.614  0.3506  0.0444 -0.1167
  669W        W43763  15.523   9.479   5.531  0.2040  0.0447  0.1599
  670W        W43764  16.332   8.197   7.330 -0.1621 -0.0824  0.1419
  671W        W43765  17.732  10.152   4.201  0.1053 -0.1487  0.1293
  672W        W43766  16.732   7.150   8.015  0.0026  0.0841 -0.0587
  673W        W43767  15.856   8.858   2.699 -0.0530  0.2231 -0.0991
  674W        W43768  17.187   7.340   5.157 -0.0404 -0.0428  0.1666
  675W        W43769  14.153  10.214   3.385 -0.0732 -0.1180 -0.0943
  676W        W43770  17.558   8.511   4.977 -0.0281 -0.3473  0.0256
  677W        W43771  17.534   8.786   7.089 -0.2214  0.1974  0.0984
  678W        W43772  14.917   7.562   7.635 -0.1687  0.3371 -0.2884
  679W        W43773  18.691   9.630   6.253 -0.1809  0.0131  0.0445
  680W        W43774  17.719   8.873   2.799  0.0511  0.1229 -0.3092
  681W        W43775  16.412   8.084   5.891 -0.0723  0.0721 -0.0312
  682W        W43776  15.748   8.991   2.192 -0.2812  0.1821 -0.1478
  683W        W43777  16.642   7.893   7.056  0.0333  0.2317 -0.0581
  684W        W43778  15.834  10.074   7.271  0.1275 -0.3512 -0.4866
  685W        W43779  15.016  10.821   6.260 -0.2495  0.2679  0.0556
  686W        W43780  17.841  10.895   6.757 -0.1034 -0.0639  0.1140
  687W        W43781  16.789   9.863   5.779  0.0103  0.0114  0.2827
  688W        W43782  17.357   8.102   7.504  0.2300 -0.2122 -0.1215
  689W        W43783  15.555   7.249   4.711 -0.1156 -0.2236  0.4797
  690W        W43784  15.606  10.848   4.089  0.2102  0.1566 -0.1001
  691W        W43785  17.418   7.835   3.486  0.1541  0.0512  0.0531
  692W        W43786  16.779   7.612   5.306  0.2753  0.1934  0.0528
  693W        W43787  16.655   9.925   6.890  0.1585  0.1746  0.0551
  694W        W43788  16.818  10.787   3.404 -0.1508  0.4405  0.1408
  695W        W43789  16.642   9.677   6.415  0.1375  0.0117 -0.0083
  696W        W43790  14.208  10.814   4.450 -0.0806  0.1605  0.0773
  697W        W43791  17.487   6.922   5.215  0.3771 -0.0988 -0.1386
  698W        W43792  16.222  10.853   4.801 -0.0246  0.0221  0.3119
  699W        W43793  15.868   9.786   2.627  0.1479 -0.1264 -0.1787
  700W        W43794  14.403   8.924   5.357  0.0590  0.2465  0.0223
  701W        W43795  17.709   6.648   4.795  0.0275 -0.2799 -0.1911
  702W        W43796  17.270   8.636   2.487 -0.1419 -0.0224 -0.4486
  703W        W43797  14.311   6.231   5.378 -0.0456  0.4273 -0.0143
  704W        W43798  16.646   8.142   3.869 -0.1624 -0.1603  0.1889
  705W        W43799  15.000  10.621   5.777  0.2663  0.1362  0.0829
  706W        W43800  16.250   8.672   6.865  0.3131  0.0271 -0.2696
  707W        W43801  17.663   7.417   3.308  0.2355 -0.0793  0.1964
  708W        W43802  17.292   9.962   5.645  0.0267  0.1268 -0.4509
  709W        W43803  17.173  10.397   6.550 -0.1950 -0.1539  0.0245
  710W        W43804  14.401   9.218   4.588  0.0083 -0.1888  0.1721
  711W        W43805  17.534   9.389   5.772  0.1499  0.0982 -0.2195
  712W        W43806  15.601   8.034   4.074  0.0151 -0.2159 -0.0625
  713W        W43807  13.865   9.021   4.649  0.1882 -0.1030 -0.1345
  714W        W43808  16.652  11.116   6.180 -0.3493 -0.1927 -0.0490
  715W        W43809  15.279   9.469   4.140 -0.2403  0.2676 -0.1060
  716W        W43810  16.542  10.846   4.376 -0.3419 -0.2222  0.2927
  717W        W43811  16.229  10.749   6.906 -0.1423 -0.3203  0.3740
  718W        W43812  17.241  10.279   5.220  0.0741  0.0039 -0.0700
  719W        W43813  16.389   7.704   4.778  0.0595  0.1230  0.1302
  720W        W43814  15.912   7.648   4.894  0.0351  0.1312  0.2189
  721W        W43815  16.602   8.011   4.456  0.1103 -0.2976  0.1426
  722W        W43816  17.234   9.020   5.966 -0.1031  0.0258 -0.2069
  723W        W43817  15.932   8.119   6.133 -0.1884 -0.0638  0.0028
  724W        W43818  17.054  10.287   7.011  0.0710  0.0073  0.3663
  725W        W43819  16.794   8.098   5.557 -0.0547 -0.0322 -0.0105
  726W        W43820  17.854  11.483   3.571  0.4716 -0.2041 -0.0228
  727W        W43821  16.999   9.482   6.931  0.1702 -0.0318  0.1232
  728W        W43822  16.735   8.717   3.189 -0.2192 -0.0436  0.0836
  729W        W43823  15.558   9.036   5.815  0.0992  0.2484  0.1923
  730W        W43824  16.275   9.890   3.755  0.1508  0.1753 -0.1556
  731W        W43825  16.271   7.796   5.282  0.0017  0.2120 -0.1560
  732W        W43826  16.166  11.030   6.471 -0.1301  0.1299  0.1798
  733W        W43827  16.179  10.514   2.918 -0.2445 -0.0610 -0.0064
  734W        W43828  14.080  11.068   6.421 -0.1652  0.0595  0.0663
  735W        W43829  17.622   7.173   4.841  0.3577 -0.1413 -0.2601
  736W        W43830  17.061   7.754   3.122 -0.0127  0.2968 -0.0403
  737W        W43831  16.192   8.238   4.073  0.3675 -0.0341  0.0677
  738W        W43832  18.542   7.726   5.716 -0.1300  0.0878  0.3379
  739W        W43833  17.234   9.251   2.860 -0.0170  0.0495  0.2377
  740W        W43834  18.170   7.965   7.436  0.0439  0.0049  0.0438
  741W        W43835  15.517   6.915   5.394  0.3040  0.0052  0.0085
  742W        W43836  16.993  10.741   5.237 -0.1134  0.0044 -0.3737
  743W        W43837  14.525   7.865   5.399 -0.1575  0.1693  0.0048
  744W        W43838  17.085  11.398   7.857  0.0698  0.1494 -0.4109
  745W        W43839  16.461   9.953   5.444 -0.4308 -0.0287  0.1917
  746W        W43840  17.673   8.899   6.148 -0.3506 -0.1074 -0.2528
  747W        W43841  14.119   8.213   5.346 -0.2846  0.1001 -0.0520
  748W        W43842  16.491  10.417   4.615  0.3983 -0.3667 -0.2417
  749W        W43843  17.449  10.625   4.949 -0.0979 -0.0465  0.0881
  750W        W43844  16.769  11.354   3.319  0.0747 -0.0802 -0.1262
  751W        W43845  17.400   7.575   4.754 -0.0095  0.1697  0.2055
  752W        W43846  15.917   8.691   5.483 -0.2936 -0.1291 -0.2040
  753W        W43847  18.595   8.566   5.379 -0.0414 -0.5192  0.0064
  754W        W43848  15.086   9.593   3.524 -0.1770 -0.0960 -0.3022
  755W        W43849  15.076   8.790   5.256 -0.1339  0.0790  0.0526
  756W        W43850  15.505   7.427   6.772 -0.0675 -0.1799 -0.1962
  757W        W43851  17.556   8.285   3.687 -0.1107 -0.1162 -0.1464
  758W        W43852  17.480   8.562   5.835 -0.2498  0.1606 -0.1964
  759W        W43853  17.705   8.004   5.265 -0.2309  0.2221  0.0342
  760W        W43854  18.006   8.907   8.133 -0.3969  0.0347  0.4250
  761W        W43855  16.305   8.765   6.372  0.0189  0.1966 -0.1770
  762W        W43856  15.188   7.013   6.798 -0.0501  0.1071 -0.2013
  763W        W43857  17.724  11.132   3.966 -0.0766 -0.3133 -0.0731
  764W        W43858  16.998   7.458   2.254  0.0066  0.2625 -0.0078
  765W        W43859  16.746   8.699   6.593  0.0941  0.0733  0.1709
  766W        W43860  18.746   7.722   4.214  0.1131  0.0658 -0.0588
  767W        W43861  16.664   7.132   4.030  0.0207 -0.3629 -0.2294
  768W        W43862  15.850   8.672   6.054  0.1021  0.0524  0.3275
  769W        W43863  16.885   9.301   7.380 -0.2020 -0.0737  0.2121
  770W        W43864  15.331   8.773   3.473  0.3163 -0.1412 -0.0125
  771W        W43865  15.897   9.095   6.288  0.1642  0.1170 -0.4586
  772W        W43866  16.255  11.224   3.340  0.2628 -0.3724 -0.0144
  773W        W43867  16.424  10.334   5.722 -0.0805  0.3433  0.3405
  774W        W43868  18.171   8.438   2.851  0.1300 -0.0609 -0.1398
  775W        W43869  14.075   7.839   5.714 -0.1765 -0.1863 -0.2355
  776W        W43870  15.434  10.493   6.100 -0.0077 -0.2626  0.0836
  777W        W43871  15.627   8.437   4.786 -0.1087  0.0755  0.1186
  778W        W43872  16.788   9.110   3.557  0.1423 -0.3544  0.1044
  779W        W43873  16.750  10.783   5.733  0.2182  0.2626  0.0223
  780W        W43874  18.176   9.724   6.366 -0.0464 -0.0454  0.0183
  781W        W43875  18.492   7.294   4.476 -0.3273  0.1509  0.1303
  782W        W43876  16.602   9.068   6.943 -0.3048 -0.0344 -0.2147
  783W        W43877  16.035  10.660   4.342 -0.0740  0.1319 -0.1029
  784W        W43878  16.913   7.195   4.686  0.0442  0.5554  0.1630
  785W        W43879  16.523  12.725   5.746  0.0757  0.1211  0.2290
  786W        W43880  15.646   9.915   6.840  0.1251 -0.4202  0.4295
  787W        W43881  16.256  10.824   5.713 -0.2058  0.3765  0.0684
  788W        W43882  17.337   8.110   8.079 -0.0130 -0.1718  0.1162
  789W        W43883  17.328   9.752   4.459  0.0300  0.1886 -0.3127
  790W        W43884  16.506   9.418   5.432 -0.1078 -0.0136  0.2379
  791W        W43885  17.366   9.366   6.376  0.1797 -0.0422  0.2256
  792W        W43886  17.062   9.854   7.245 -0.1157  0.5209  0.0504
  793W        W43887  15.564   8.997   5.311  0.1077 -0.0347 -0.1080
  794W        W43888  16.954  11.209   5.747  0.0162  0.0388 -0.0742
  795W        W43889  17.630   9.321   4.721 -0.1100 -0.0377  0.0247
  796W        W43890  16.747   9.017   4.058 -0.3788 -0.1529 -0.0157
  797W        W43891  14.494   7.293   7.450 -0.2206  0.3555 -0.0114
  798W        W43892  15.894   8.422   7.665  0.1341 -0.0446 -0.2914
  799W        W43893  16.958   9.794   5.228  0.1245 -0.0427 -0.3904
  800W        W43894  15.338   7.688   4.899 -0.3279 -0.1161 -0.0742
  801W        W43895  17.244   9.187   3.660 -0.1397 -0.1295  0.1715
  802W        W43896  16.463  10.883   7.440  0.0200 -0.0197  0.0792
  803W        W43897  14.921   9.252   6.749  0.2660  0.1757 -0.0210
  804W        W43898  14.242  11.262   4.149 -0.1787  0.2043  0.0705
  805W        W43899  18.033  10.352   2.821  0.0365  0.2739  0.0376
  806W        W43900  17.220   8.913   3.237 -0.1293  0.2782  0.1792
  807W        W43901  17.258  11.415   4.094 -0.0017  0.2928  0.3777
  808W        W43902  15.148   7.207   3.791  0.0115 -0.1960  0.0320
  809W        W43903  16.633   9.540   4.908 -0.0509 -0.2708  0.0503
  810W        W43904  15.042  10.683   4.217  0.0156 -0.0037  0.1584
  811W        W43905  17.124  11.985   3.305 -0.2153 -0.2489 -0.1215
  812W        W43906  14.939  10.219   4.191 -0.2286  0.1899 -0.0470
  813W        W43907  18.290  10.658   8.293  0.1100 -0.0618 -0.2090
  814W        W43908  17.455   7.001   3.566  0.0666  0.0702 -0.1022
  815W        W43909  17.716   9.104   3.907  0.0618 -0.3251 -0.3287
  816W        W43910  18.280   6.915   4.234  0.2871 -0.0454  0.0751
  817W        W43911  18.155  11.515   6.509  0.3755  0.0212 -0.3418
  818W        W43912  16.883  10.372   5.606 -0.2954  0.1314 -0.0769
  819W        W43913  15.065   6.707   4.014 -0.1416  0.1077  0.0765
  820W        W43914  15.840   8.593   7.170 -0.2029  0.2549 -0.3234
  821W        W43915  18.325   7.312   7.503 -0.2137  0.1105 -0.0065
  822W        W43916  15.266  10.167   8.405  0.0830 -0.3053 -0.1463
  823W        W43917  16.419  10.973   3.861  0.2432 -0.3367 -0.2009
  824W        W43918  13.689   8.685   4.997  0.0894  0.0411  0.1995
  825W        W43919  17.235   8.445   4.618 -0.0542  0.0977 -0.2604
  826W        W43920  18.222   8.927   5.956  0.2660 -0.0497 -0.1167
  827W        W43921  17.136  10.404   3.638 -0.0540 -0.0391  0.2894
  828W        W43922  16.907   8.604   5.225 -0.2899 -0.0607  0.1190
  829W        W43923  16.226  11.850   5.980  0.0063 -0.1011  0.0681
  830W        W43924  16.469  11.434   5.743  0.0887  0.1126 -0.2539
  831W        W43925  16.861  10.200   6.231 -0.0336 -0.2906  0.2816
  832W        W43926  14.968   7.297   4.908  0.1398 -0.2827  0.0546
  833W        W43927  18.494   7.916   4.753  0.2013 -0.1102  0.3085
  834W        W43928  16.780   8.875   6.070  0.1841 -0.5234  0.2736
  835W        W43929  18.609   8.720   6.420  0.2072 -0.1574 -0.0958
  836W        W43930  15.958   8.135   5.102 -0.0828 -0.0722 -0.1102
  837W        W43931  18.823   8.617   4.391  0.1929  0.1278  0.0982
  838W        W43932  15.949   8.153   6.999 -0.0222 -0.1701 -0.2623
  839W        W43933  16.312   8.605   5.856  0.0111  0.1134 -0.1794
  840W        W43934  16.156   7.845   4.376  0.2863 -0.2144 -0.1743
  841W        W43935  18.016   9.898   6.815 -0.1716  0.0204 -0.0616
  842W        W43936  16.699   9.277   3.068  0.1344 -0.2848 -0.0466
  843W        W43937  17.133   9.842   6.103 -0.0395  0.2285 -0.0719
  844W        W43938  14.640   7.171   5.752  0.0681  0.4166  0.0174
  845W        W43939  17.138   7.954   4.477  0.2245  0.0946 -0.0569
  846W        W43940  15.495   8.965   4.504  0.1780  0.2936 -0.2498
  847W        W43941  16.711  10.831   6.590  0.0133 -0.0402  0.0420
  848W        W43942  18.297  10.995   6.565 -0.1050  0.0602  0.0710
  849W        W43943  14.705   7.097   3.973 -0.0533  0.0758 -0.2052
  850W        W43944  16.793  11.139   1.721 -0.0947 -0.0883 -0.0530
  851W        W43945  18.759   9.446   4.912  0.0524 -0.0204  0.0510
  852W        W43946  15.684  10.323   4.223 -0.2360  0.2657 -0.2142
  853W        W43947  17.542   9.614   4.037  0.3299  0.0441  0.0967
  854W        W43948  16.973  11.133   4.481 -0.0286  0.2544 -0.1100
  855W        W43949  14.022   7.717   6.760  0.1443  0.3593  0.0002
  856W        W43950  17.502  10.522   6.949 -0.0191  0.0009  0.0277
  857W        W43951  17.996   9.815   4.505 -0.1118 -0.2034 -0.1339
  858W        W43952  17.095   8.232   3.330 -0.0926 -0.0599 -0.2484
  859W        W43953  16.097   7.699   5.775 -0.2082 -0.2379  0.0022
  860W        W43954  15.921  11.170   4.370 -0.0864  0.1729  0.2327
  861W        W43955  17.124   8.536   6.225  0.0788  0.2538  0.5937
  862W        W43956  17.627   8.304   6.251 -0.4161  0.0634 -0.0097
  863W        W43957  14.625   9.898   3.429  0.1405  0.1049  0.2034
  864W        W43958  18.325   7.828   7.884  0.0056 -0.3076 -0.1765
  865W        W43959  17.846   9.649   7.274  0.0240 -0.0897 -0.3719
  866W        W43960  16.058   9.844   8.096 -0.1267  0.0438 -0.2565
  867W        W43961  15.255   8.366   4.277  0.0838  0.3607 -0.0695
  868W        W43962  15.922   9.898   5.960  0.0596  0.1923  0.0172
  869W        W43963  15.253   9.625   5.164  0.2687 -0.0059  0.1883
  870W        W43964  15.580  10.781   4.584 -0.1302 -0.0668 -0.3665
  871W        W43965  19.405  11.522   5.225  0.0836 -0.1245 -0.0513
  872W        W43966  15.346   7.651   3.860 -0.2181 -0.1964 -0.1914
  873W        W43967  19.286  10.740   5.613 -0.2947 -0.1343 -0.1563
  874W        W43968  17.284   6.987   5.645 -0.0208 -0.1664  0.0661
  875W        W43969  18.033   8.686   4.828  0.2792  0.0376  0.1447
  876W        W43970  18.454   7.186   4.959 -0.1466 -0.0377 -0.2062
  877W        W43971  16.869   9.595   8.504 -0.1104 -0.0418  0.0283
  878W        W43972  13.496   9.033   4.158 -0.3312 -0.2838  0.1362
  879W        W43973  15.084   9.202   3.249 -0.2993  0.1139 -0.2880
  880W        W43974  14.743   9.827   5.291  0.1528  0.0659 -0.1891
  881W        W43975  16.502   6.491   6.808 -0.1933  0.1009  0.3032
  882W        W43976  15.388   7.652   6.198 -0.0918  0.3636 -0.3471
  883W        W43977  14.873   7.791   5.070 -0.0781 -0.1147 -0.1816
  884W        W43978  15.665   8.445   3.723 -0.2390 -0.3415 -0.0919
  885W        W43979  17.716  10.767   3.063 -0.4189 -0.1020  0.0553
  886W        W43980  14.457   7.548   4.891  0.2643  0.0997  0.1318
  887W        W43981  13.233   6.803   6.137  0.0945  0.0446  0.0107
  888W        W43982  17.322   8.740   4.154  0.0342  0.1166  0.1162
  889W        W43983  17.661  10.751   5.875  0.0008  0.1678 -0.1423
  890W        W43984  14.672   8.855   4.468 -0.2816  0.3486 -0.3014
  891W        W43985  16.654  11.137   5.334 -0.1702 -0.2392  0.2456
  892W        W43986  15.023  10.104   2.936 -0.0792 -0.3433  0.4972
  893W        W43987  15.519   8.476   5.269  0.2510 -0.3112 -0.0017
  894W        W43988  15.544   7.851   7.283  0.3409 -0.1093 -0.2053
  895W        W43989  14.712   6.827   4.434  0.0054 -0.0547  0.1334
  896W        W43990  16.796   9.120   5.102  0.0571  0.2106  0.2831
  897W        W43991  17.777  10.713   4.448  0.1102 -0.2003 -0.1781
  898W        W43992  17.644  12.022   5.208 -0.0445  0.2784 -0.2516
  899W        W43993  17.415  10.249   4.613 -0.0280 -0.1448 -0.1447
  900W        W43994  15.176  10.598   3.224  0.1609 -0.0121  0.2010
  901W        W43995  16.538   7.341   6.441  0.0278  0.3361  0.0187
  902W        W43996  16.952   9.994   4.681 -0.1006 -0.2015  0.3342
  903W        W43997  16.450  10.308   6.666  0.0887  0.1576 -0.0997
  904W        W43998  17.729   9.808   5.481 -0.1542 -0.1224  0.1310
  905W        W43999  17.886   8.129   6.693 -0.1607  0.6004 -0.3669
  906W        W44000  18.056   8.128   4.844 -0.0590  0.1631 -0.1188
  907W        W44001  14.475   6.950   6.210  0.3006 -0.0894  0.3350
  908W        W44002  16.346   9.571   5.870  0.0475 -0.3035 -0.2945
  909W        W44003  17.093  11.261   6.334 -0.0553  0.2034  0.0690
  910W        W44004  15.730   7.691   5.428 -0.0320 -0.2644 -0.1788
  911W        W44005  18.072   7.888   4.377 -0.1486 -0.1149  0.2671
  912W        W44006  16.089   9.953   4.218  0.0662 -0.1958  0.3216
  913W        W44007  16.087   9.608   6.335 -0.2472  0.0576  0.1834
  914W        W44008  17.101   7.377   3.723  0.5347 -0.2659  0.4120
  915W        W44009  16.318   9.131   6.068  0.1220  0.2288 -0.2186
  916W        W44010  16.603  10.063   4.282 -0.2327  0.0723  0.1648
  917W        W44011  17.651  11.264   7.237 -0.0066  0.1768  0.0001
  918W        W44012  16.071   8.918   4.432  0.1465 -0.0258 -0.0959
  919W        W44013  17.049  10.147   2.735 -0.1240  0.2178 -0.1118
  920W        W44014  16.138  11.129   5.255  0.0599 -0.2977 -0.3139
  921W        W44015  18.029  11.539   4.767  0.1343 -0.2649  0.0812
  922W        W44016  15.881  11.404   5.620  0.2298 -0.2367 -0.4088
  923W        W44017  17.777  10.240   5.860 -0.0487 -0.0259 -0.1173
  924W        W44018  16.097   7.122   7.096  0.0023  0.1595  0.0698
  925W        W44019  15.880   8.914   4.943  0.1428  0.3642 -0.0538
  926W        W44020  16.353   9.112   4.792 -0.3063 -0.1403 -0.2249
  927W        W44021  17.358   8.387   5.396  0.0429 -0.0007  0.1379
  928W        W44022  15.193   8.180   4.894  0.1413  0.2294  0.0433
  929W        W44023  16.220   7.077   4.159 -0.1042 -0.1797 -0.3750
  930W        W44024  14.923  11.037   5.410 -0.0114  0.1447 -0.2396
  931W        W44025  16.255  10.344   3.976 -0.1320 -0.0515  0.0001
  932W        W44026  15.088  11.129   9.966 -0.0925  0.3019  0.1289
  933W        W44027  15.022   8.194   7.974  0.2599 -0.3515 -0.1655
  934W        W44028  17.156   8.469   7.223 -0.3993  0.2708  0.1232
  935W        W44029  18.393   8.351   6.775 -0.0914  0.0668  0.0860
  936W        W44030  14.875   7.553   7.113 -0.0760 -0.1896  0.1683
  937W        W44031  17.790  10.497   8.455 -0.1711 -0.1488  0.0289
  938W        W44032  16.377  10.696   9.326 -0.1053 -0.1123 -0.3233
  939W        W44033  16.966  10.343   9.217 -0.0887  0.1553  0.0143
  940W        W44034  17.378  10.813   8.173 -0.0217 -0.2305 -0.0298
  941W        W44035  17.787   7.249   9.362  0.0725 -0.0723 -0.1516
  942W        W44036  16.233   8.091   9.081  0.1051 -0.2723  0.0810
  943W        W44037  14.874   7.069   9.132  0.1940  0.2132  0.0205
  944W        W44038  18.191   8.277   9.454  0.0076  0.2188 -0.0412
  945W        W44039  15.171   8.973   7.893  0.4804 -0.2285  0.0754
  946W        W44040  15.429   8.399   9.975 -0.0709  0.1181 -0.0463
  947W        W44041  17.093   7.544   8.146 -0.2768 -0.2582 -0.4190
  948W        W44042  17.407  12.269   7.562  0.2462  0.3109 -0.2034
  949W        W44043  15.168   8.692   8.246  0.1848 -0.0257  0.0574
  950W        W44044  17.418  11.025   7.696 -0.0092 -0.3417 -0.1384
  951W        W44045  14.998   8.678   7.522 -0.0833 -0.2157 -0.0248
  952W        W44046  15.234   9.187   9.578 -0.1917  0.1991 -0.0125
  953W        W44047  15.596   8.794   9.652 -0.1989 -0.0402  0.2043
  954W        W44048  17.778   7.976  10.234 -0.2241  0.0011  0.2343
  955W        W44049  18.343   8.601   9.100 -0.0463 -0.2901 -0.1873
  956W        W44050  16.900  11.042   8.141 -0.2910  0.0136 -0.0830
  957W        W44051  16.992  10.780   8.597  0.0622 -0.0658  0.1353
  958W        W44052  15.371  10.097   9.360 -0.0879 -0.2179 -0.1836
  959W        W44053  15.664  10.684   7.906  0.2766  0.3260 -0.1224
  960W        W44054  16.334  10.651   8.451  0.1499 -0.3043 -0.0275
  961W        W44055  17.781   9.414   8.225  0.3526  0.0890 -0.2182
  962W        W44056  15.608   9.274   7.130  0.2225 -0.0899  0.0326
  963W        W44057  16.020   7.560   9.760 -0.0343 -0.1254 -0.0168
  964W        W44058  17.411   8.187   8.947  0.1791  0.1464  0.1782
  965W        W44059  17.839  10.642   7.335 -0.1192  0.0187 -0.0311
  966W        W44060  16.073   8.563   8.953 -0.0522 -0.1405  0.1510
  967W        W44061  14.010   7.972   9.820 -0.0675 -0.2238 -0.0450
  968W        W44062  15.911  11.040   8.622 -0.1770  0.0954  0.2439
  969W        W44063  16.169   8.155   8.086 -0.0442 -0.1529 -0.1431
  970W        W44064  15.345   8.394   7.248 -0.2564 -0.2500 -0.1124
  971W        W44065  17.990   8.552   8.739 -0.0410  0.1233 -0.0052
  972W        W44066  15.228   7.703   8.364  0.0043  0.2388 -0.1457
  973W        W44067  15.244   9.575   9.210  0.1240 -0.1160 -0.1290
  974W        W44068  15.041   7.679   9.772  0.0357 -0.2449  0.1140
  975W        W44069  17.063   8.962   9.309  0.1209  0.0689 -0.1010
  976W        W44070  17.365   7.121   9.736  0.3691  0.0974 -0.0905
  977W        W44071  17.757   8.958   9.059  0.0419 -0.0765 -0.1109
  978W        W44072  15.188   9.663   8.552  0.0967  0.1324 -0.0632
  979W        W44073  16.511   9.472   7.955  0.2131  0.1108  0.3498
  980W        W44074  18.471  10.319   6.992 -0.2405  0.0456 -0.1468
  981W        W44075  16.744  10.306   8.346  0.1028  0.2170  0.0459
  982W        W44076  15.394   9.114   8.599 -0.0630 -0.1844 -0.2296
  983W        W44077  16.145   6.469   8.465 -0.1026  0.3498  0.0919
  984W        W44078  18.251   8.347   7.758  0.1854 -0.1656 -0.2035
  985W        W44079  16.456   9.008   9.141  0.1633  0.3290 -0.1611
  986W        W44080  17.293   9.673   8.725 -0.1217  0.2409  0.1253
  987W        W44081  18.268   8.905   6.804  0.0848 -0.0287 -0.1059
  988W        W44082  16.446   6.739   9.256 -0.2701 -0.1224 -0.3077
  989W        W44083  18.103   4.707  10.060 -0.3547 -0.2494  0.1427
  990W        W44084  16.116   8.674   8.063 -0.0175  0.0121  0.0619
  991W        W44085  16.757   9.116   8.415  0.3889 -0.0606  0.2677
  992W        W44086  18.810  10.338   8.995  0.1008  0.3871  0.1284
  993W        W44087  17.666   9.748   6.058 -0.0173  0.0383 -0.2971
  994W        W44088  13.379  10.559   9.365  0.3224 -0.2057  0.1245
  995W        W44089  15.441  11.901   6.333  0.1348 -0.0361  0.0426
  996W        W44090  14.606  10.611   9.433  0.1478  0.0586  0.2639
  997W        W44091  16.597  10.098   7.858 -0.0406 -0.0104  0.0712
  998W        W44092  13.798   7.597   9.493 -0.0381 -0.1582  0.0200
  999W        W44093  15.819   9.810   9.789  0.2436  0.1919 -0.0522
 1000W        W44094  17.169   8.789   8.361  0.2794 -0.2036  0.3963
 1001W        W44095  17.980   6.248   8.548  0.0559 -0.1851  0.2424
 1002W        W44096  15.996  10.165   9.434 -0.1161 -0.0442  0.0480
 1003W        W44097  18.608  11.588   7.451  0.2795  0.2144 -0.0861
 1004W        W44098  17.810   6.683   7.364  0.0878  0.1145 -0.2630
 1005W        W44099  17.887  10.379   6.711 -0.2194 -0.1546  0.4773
 1006W        W44100  16.581   5.324   9.372 -0.2688 -0.3031  0.2002
 1007W        W44101  15.366   8.494   7.765 -0.0190  0.4731  0.2435
 1008W        W44102  16.841   8.195   7.465 -0.1494 -0.3331 -0.1048
 1009W        W44103  14.009   7.690   7.663 -0.1950 -0.2299 -0.0184
 1010W        W44104  17.182   7.124   9.037 -0.1355  0.2096 -0.1132
 1011W        W44105  16.906   8.004   8.907  0.1109  0.0507  0.1721
 1012W        W44106  15.544   9.313   7.615 -0.1750  0.0905 -0.0966
 1013W        W44107  16.534  10.364   8.842  0.1731 -0.5142 -0.1265
 1014W        W44108  16.522  10.180   9.321 -0.1787 -0.1558 -0.0121
 1015W        W44109  17.564   9.989   7.530 -0.0850  0.1724 -0.0040
 1016W        W44110  15.807   8.419   9.311  0.0593 -0.0063  0.2237
 1017W        W44111  15.013   7.113   7.332 -0.1418  0.2700 -0.1831
 1018W        W44112  15.377  10.913   7.151 -0.1050 -0.3882 -0.0506
 1019W        W44113  19.515   7.486  10.322  0.3637  0.1044 -0.0997
 1020W        W44114  16.280   8.701   7.341 -0.0516  0.6199 -0.0404
 1021W        W44115  18.268  11.158   8.047  0.2950 -0.1267  0.2286
 1022W        W44116  18.253   8.995   8.650 -0.2063 -0.2717 -0.2267
 1023W        W44117  20.695  10.805   8.812 -0.0784 -0.1004  0.2268
 1024W        W44118  17.792   8.396   9.148  0.1093 -0.1661 -0.1360
 1025W        W44119  14.488   7.809   7.672 -0.2337 -0.1116  0.1953
 1026W        W44120  17.214  12.324   8.850  0.1049 -0.1945 -0.0921
 1027W        W44121  16.337  11.485   7.481  0.0532 -0.2348  0.2428
 1028W        W44122  15.929   8.429   9.947 -0.1415  0.0995  0.2054
 1029W        W44123  16.588  11.230   7.790  0.1111 -0.1862  0.2709
 1030W        W44124  18.868   7.963   9.679  0.1509 -0.0030 -0.0698
 1031W        W44125  15.036   8.049   7.473 -0.1731  0.0862 -0.1650
 1032W        W44126  17.377   7.698   9.048 -0.0536 -0.0380  0.0522
 1033W        W44127  17.534   7.618   7.286 -0.1619 -0.2680  0.1537
 1034W        W44128  18.344   9.893   7.216 -0.3893  0.1766  0.1952
 1035W        W44129  17.408   9.285   7.034 -0.2728  0.1157 -0.0283
 1036W        W44130  17.682   8.255   9.623 -0.0276  0.0025 -0.1274
 1037W        W44131  17.497   8.966   8.023 -0.0046 -0.0812 -0.0272
 1038W        W44132  15.419  10.806   9.677 -0.1938 -0.2198  0.0106
 1039W        W44133  15.898   7.898   7.709 -0.0174  0.0318  0.3447
 1040W        W44134  18.453  10.010   6.610 -0.2545 -0.2566 -0.1345
 1041W        W44135  19.003   8.931   9.630  0.2569 -0.3725 -0.2837
 1042W        W44136  16.875   9.379   9.001 -0.0332  0.1820 -0.2874
 1043W        W44137  18.133   5.565   9.258  0.1892  0.0537  0.0532
 1044W        W44138  16.779  10.498   7.484  0.0591  0.0773 -0.0974
 1045W        W44139  16.495   7.296   9.893 -0.0622 -0.2297 -0.1543
 1046W        W44140  14.857  10.948   8.922  0.0757  0.3418 -0.1413
 1047W        W44141  17.174   8.018   9.408 -0.1625  0.1473 -0.1599
 1048W        W44142  18.246   7.645  10.263  0.1587  0.1601 -0.3961
 1049W        W44143  16.568   8.475   8.871  0.0658  0.1003  0.1359
 1050W        W44144  16.607   8.087   9.370 -0.0104  0.1825 -0.2577
 1051W        W44145  16.038   8.332   8.520  0.1961 -0.1612 -0.1443
 1052W        W44146  16.173   4.846   9.637 -0.2188 -0.1571 -0.1685
 1053W        W44147  12.736   8.975   9.294  0.2269 -0.0105 -0.0654
 1054W        W44148  18.888   8.926   8.586 -0.0101  0.0139 -0.1286
 1055W        W44149  16.919   7.552   9.205 -0.2715  0.2753 -0.2203
 1056W        W44150  16.403  11.720   7.000 -0.3830  0.0325 -0.4309
 1057W        W44151  15.828   9.268   9.628 -0.0110  0.1214 -0.1437
 1058W        W44152  15.097   7.224   8.340 -0.3199 -0.2212  0.0474
 1059W        W44153  19.036   8.004  10.166  0.0260 -0.2203 -0.1849
 1060W        W44154  17.186  10.881   7.142 -0.1626 -0.1473 -0.1724
 1061W        W44155  18.727  10.515   8.538 -0.1252  0.1531 -0.4334
 1062W        W44156  15.302  10.043   8.904 -0.0585 -0.0892 -0.1749
 1063W        W44157  16.891   6.299   8.832  0.2948 -0.0861 -0.0979
 1064W        W44158  16.142  10.037   8.998 -0.1112 -0.0544  0.0280
 1065W        W44159  15.924   8.946   9.222 -0.0603  0.0441 -0.2344
 1066W        W44160  13.624   8.973   8.005 -0.2290  0.0744 -0.2735
 1067W        W44161  18.177   6.775   8.703 -0.0068  0.0331 -0.1025
 1068W        W44162  18.214   8.928   7.690 -0.2685 -0.3282  0.1311
 1069W        W44163  15.604   8.628   8.660  0.2979  0.0549 -0.3296
 1070W        W44164  16.348   6.842   8.731 -0.0739 -0.2727  0.1632
 1071W        W44165  15.758   8.925  10.109 -0.2522 -0.1038  0.0195
 1072W        W44166  16.999   7.480   8.702 -0.3361 -0.1478  0.0551
 1073W        W44167  13.811   8.515   7.300 -0.0020  0.1450  0.1294
 1074W        W44168  19.020   5.723   9.507 -0.1208  0.1478  0.0532
 1075W        W44169  16.927   7.017   8.418 -0.0744 -0.0957 -0.0263
 1076W        W44170  15.419  11.160   8.560  0.0952  0.2276 -0.4047
 1077W        W44171  16.483   9.906   8.362 -0.1084  0.0502  0.2036
 1078W        W44172  16.757   8.770   7.490 -0.3222 -0.2594  0.1931
 1079W        W44173  15.769   9.489   8.317  0.2347  0.0057 -0.2976
 1080W        W44174  18.324  10.124   9.733 -0.0980 -0.0434  0.1963
 1081W        W44175  17.431   8.653   9.430 -0.1308 -0.4478  0.1087
 1082W        W44176  14.609   8.546   8.500 -0.0384 -0.0172 -0.0429
 1083W        W44177  18.061   8.881   9.454 -0.0377  0.0205 -0.1923
 1084W        W44178  15.230   8.830  10.203  0.1361 -0.4002  0.2574
 1085W        W44179  16.037   6.987   9.861 -0.0628  0.1141  0.0868
 1086W        W44180  15.624   4.939   9.243 -0.0259 -0.0759 -0.0677
 1087W        W44181  18.499  11.805   7.019  0.2170  0.0912  0.1442
 1088W        W44182  16.391   9.507   7.009  0.0202 -0.0702  0.1885
 1089W        W44183  13.916   9.188   9.634  0.1363 -0.0111 -0.2996
 1090W        W44184  16.551   8.999   7.884  0.1814 -0.0114 -0.2227
 1091W        W44185  17.261   8.342   9.802  0.1665 -0.0744 -0.1108
 1092W        W44186  15.114   9.334  10.491  0.0480 -0.0065 -0.3052
 1093W        W44187  15.923   9.052   8.741 -0.2071 -0.1313 -0.0495
 1094W        W44188  15.122   6.806  10.648 -0.0578  0.0256 -0.0842
 1095W        W44189  18.503   6.870   7.811 -0.1155  0.3360  0.2533
 1096W        W44190  17.711   9.605   6.641  0.0439  0.2110 -0.2822
 1097W        W44191  17.419   8.990   9.780 -0.1123 -0.0393  0.1419
 1098W        W44192  17.029   9.167   7.838  0.0783 -0.0740  0.0697
 1099W        W44193  15.541   7.883   9.254 -0.0677 -0.0386 -0.2384
 1100W        W44194  14.098   9.400  10.100 -0.0860  0.0514  0.3241
 1101W        W44195  16.714   7.999   9.872  0.3380  0.3143 -0.0948
 1102W        W44196  16.110   7.648   7.234 -0.1503 -0.2284 -0.2017
 1103W        W44197  16.720   8.666   9.915  0.6598 -0.0479  0.0995
 1104W        W44198  18.461   8.747   9.709  0.1735 -0.0949 -0.0617
 1105W        W44199  16.097   9.421   9.141 -0.1206 -0.1279 -0.0642
 1106W        W44200  18.565   8.404   8.145  0.2353 -0.0372 -0.2350
 1107W        W44201  16.088  11.920   8.811  0.2918  0.4385  0.2317
 1108W        W44202  17.551   8.359   8.467  0.3657 -0.0119 -0.0256
 1109W        W44203  16.492   7.840   7.675  0.2042 -0.1216 -0.0168
 1110W        W44204  16.117   9.665   8.587 -0.2994 -0.3175  0.0732
 1111W        W44205  18.837  10.454   9.658  0.4279  0.0422  0.0483
 1112W        W44206  16.476   7.590   9.480 -0.2462  0.0426 -0.0526
 1113W        W44207  19.562  10.391   8.297 -0.1427 -0.2092 -0.0549
 1114W        W44208  17.155  10.826   6.187 -0.0398  0.1314  0.0402
 1115W        W44209  16.907   6.914   9.500 -0.0437 -0.0706  0.0327
 1116W        W44210  17.689   8.917   8.495  0.2283  0.0151 -0.0590
 1117W        W44211  17.364   9.511   7.530  0.0662 -0.0505  0.2254
 1118W        W44212  15.218   8.233   8.516 -0.1180  0.0824 -0.2870
 1119W        W44213  15.976  10.300   6.865 -0.1929 -0.2921 -0.2324
 1120W        W44214  16.190  11.261   7.034 -0.3449  0.1517 -0.2393
 1121W        W44215  17.802   9.685   7.782  0.0666  0.1685 -0.3181
 1122W        W44216  16.535   8.061   8.545  0.0601  0.0480 -0.1083
 1123W        W44217  14.522   7.833   9.035  0.1342  0.3310 -0.2141
 1124W        W44218  14.474   9.189   8.373  0.1337  0.2066  0.0329
 1125W        W44219  16.629   9.675   7.519 -0.0440  0.1413 -0.0946
 1126W        W44220  17.264   9.932   9.698 -0.3708  0.1024 -0.1158
 1127W        W44221  17.155   7.931   7.044  0.0196 -0.3250  0.2015
 1128W        W44222  14.888  10.885   7.759 -0.2452  0.1097 -0.0707
 1129W        W44223  16.865   6.788   8.972 -0.0649 -0.1598  0.2522
 1130W        W44224  15.604  11.807   7.547 -0.0324 -0.6178 -0.1586
 1131W        W44225  16.575   9.810   8.964  0.1360  0.0380  0.1820
 1132W        W44226  16.021   7.644   9.259  0.1559  0.1624  0.1978
 1133W        W44227  18.200   7.363   9.728 -0.0199  0.1277  0.2954
 1134W        W44228  17.699   9.297   9.495 -0.2314 -0.1177  0.1240
 1135W        W44229  15.507   9.383   9.992 -0.1115 -0.0609 -0.1794
 1136W        W44230  18.534  10.059   8.555 -0.1082  0.4480  0.0696
 1137W        W44231  15.281   8.819   9.285  0.2566 -0.2244  0.0903
 1138W        W44232  16.335   8.819   8.597 -0.2784 -0.1876  0.0979
 1139W        W44233  15.930   6.907   8.471  0.1874 -0.1654 -0.2585
 1140W        W44234  16.915  10.941   7.549  0.2705  0.0539 -0.2069
 1141W        W44235  12.780   8.726   9.814  0.1824 -0.2102 -0.0098
 1142W        W44236  16.295   9.749   9.601  0.0984 -0.1564  0.2969
 1143W        W44237  18.702   9.420   7.184 -0.0569  0.0271 -0.1773
 1144W        W44238  18.023  10.163   6.290 -0.1680 -0.0313  0.0045
 1145W        W44239  17.071  10.120   7.692  0.1899 -0.1190 -0.3738
 1146W        W44240  15.709   7.054   9.017  0.1464 -0.0865  0.0808
 1147W        W44241  15.555  11.357   9.440  0.2170  0.0263 -0.0120
 1148W        W44242  15.282  10.684   8.405  0.0883  0.0425  0.1208
 1149W        W44243  16.976   9.658   7.896  0.0224  0.0137  0.1747
 1150W        W44244  16.908  10.875   9.185  0.0731  0.1973  0.2009
 1151W        W44245  17.434   7.124   7.481  0.2545 -0.0606 -0.1004
 1152W        W44246  20.412   8.055   9.770  0.1409  0.0860 -0.2274
 1153W        W44247  16.563   8.588   8.213  0.2279 -0.0623  0.0515
 1154W        W44248  15.291   7.375   9.124 -0.0674 -0.0017 -0.2491
 1155W        W44249  16.393   8.172   6.734 -0.0721  0.1984 -0.1522
 1156W        W44250  18.959  12.149   6.734 -0.1520 -0.0272 -0.1734
 1157W        W44251  15.050   9.215   8.941  0.0253 -0.1655  0.0934
 1158W        W44252  15.700   8.425   8.149  0.1251 -0.1830  0.1073
 1159W        W44253  20.043   6.158   9.425 -0.0729  0.0025 -0.1239
 1160W        W44254  17.026  10.568   7.949  0.0672 -0.2798  0.3948
 1161W        W44255  16.356   8.554   9.377  0.0977 -0.4401  0.2459
 1162W        W44256  15.790  10.604   8.488 -0.0421 -0.2971  0.0577
 1163W        W44257  16.013  10.578   8.939  0.4036 -0.1821  0.1881
 1164W        W44258  16.509  10.903   8.841  0.1660  0.0960 -0.1451
 1165W        W44259  13.255   8.120   7.180  0.0416  0.0041  0.4851
 1166W        W44260  19.367   7.756   9.895  0.2829  0.1583  0.1199
 1167W        W44261  15.335  10.203   9.858 -0.0003 -0.3665  0.2338
 1168W        W44262  15.761   9.757   9.265 -0.0884 -0.0396 -0.1743
 1169W        W44263  16.767   8.174   8.017 -0.1879 -0.1251 -0.1158
 1170W        W44264  14.929   8.243   9.811  0.0402  0.0121  0.2418
 1171W        W44265  15.393   8.358   9.503 -0.0133  0.0374 -0.1643
 1172W        W44266  18.002   9.044   7.212  0.1898  0.1689  0.1379
 1173W        W44267  17.060   8.922   7.046 -0.0167  0.0886 -0.1696
 1174W        W44268  16.476   7.566   8.693  0.1341 -0.2935 -0.0860
 1175W        W44269  16.614   7.656   8.138 -0.0551  0.0998 -0.1572
 1176W        W44270  15.533  10.467   8.858 -0.0125  0.1983  0.1500
 1177W        W44271  17.378   8.470  10.258 -0.4033 -0.0767  0.0441
 1178W        W44272  14.976   5.779   8.743  0.3199 -0.0696  0.0201
 1179W        W44273  17.637  11.405   6.708  0.1536 -0.1799  0.0572
 1180W        W44274  18.537   9.646   9.986 -0.0021  0.0565  0.0323
 1181W        W44275  14.856  11.186   7.125 -0.1064 -0.3177 -0.0852
 1182W        W44276  18.896   7.468   9.533 -0.2168  0.3159  0.2567
 1183W        W44277  18.456  10.997   8.661 -0.0958  0.1732  0.2312
 1184W        W44278  13.599   7.328   8.987  0.0998 -0.1964  0.0266
 1185W        W44279  19.458   8.373   9.160 -0.0122 -0.2200  0.0056
 1186W        W44280  19.038  10.262   8.267  0.0425 -0.1066  0.0907
 1187W        W44281  16.966   7.604   9.680  0.1618 -0.0286 -0.1352
 1188W        W44282  15.653   8.085   8.792  0.1552 -0.1282 -0.2014
 1189W        W44283  16.118  10.853   7.955  0.1082  0.0911  0.0155
 1190W        W44284  18.066   7.848   9.735 -0.2688  0.0600  0.2116
 1191W        W44285  15.954  12.908   6.955 -0.0027 -0.0573  0.0441
 1192W        W44286  16.303  11.555   8.036  0.0402  0.1885  0.0114
 1193W        W44287  14.647   9.120   7.879  0.1123  0.0163 -0.0695
 1194W        W44288  16.963   8.430   9.246 -0.2527 -0.2142  0.0558
 1195W        W44289  16.566  10.680   7.965 -0.0492 -0.0783 -0.0224
 1196W        W44290  16.428   9.319   8.776  0.3413 -0.1868  0.1273
 1197W        W44291  17.106   8.601   7.827 -0.2632  0.0003 -0.2817
 1198W        W44292  17.512  10.290   7.966 -0.1221 -0.1744 -0.0102
 1199W        W44293  16.065   7.839   8.581 -0.0969 -0.0313  0.0806
 1200W        W44294  18.490   8.869   8.209  0.2392  0.1418  0.0014
 1201W        W44295  17.278   7.829  10.067  0.0755  0.1737 -0.1413
 1202W        W44296  11.529   7.758   8.760  0.0964  0.1304 -0.2956
 1203W        W44297  15.464   8.870   7.454  0.1172 -0.0214 -0.1255
 1204W        W44298  16.427  10.644   5.276  0.1254  0.1255 -0.1763
 1205W        W44299  16.575   9.335   9.609 -0.1183 -0.0660  0.0875
 1206W        W44300  14.195   8.760  10.261  0.2442 -0.1483 -0.0043
 1207W        W44301  14.034   7.292   8.549 -0.0652  0.4042 -0.1898
 1208W        W44302  17.928  10.191   7.184  0.0302 -0.1072  0.1304
 1209W        W44303  15.331   7.804   7.748 -0.0143  0.0697 -0.1732
 1210W        W44304  15.670   8.974   8.035  0.2675 -0.0730  0.2285
 1211W        W44305  15.739  10.042   8.707  0.0007 -0.0114  0.1009
 1212W        W44306  17.548  11.518   7.687  0.0400 -0.1553  0.0684
 1213W        W44307  16.352   7.217   8.365  0.0123  0.0667  0.2875
 1214W        W44308  16.391  10.267   7.204  0.0395 -0.2334  0.1897
 1215W        W44309  16.010   6.517   7.107 -0.5166  0.0566  0.0739
 1216W        W44310  17.165   9.404   9.675 -0.3823 -0.4130 -0.5283
 1217W        W44311  17.095   9.992   8.225 -0.2026  0.2158  0.1547
 1218W        W44312  18.291  11.155   7.345 -0.0221 -0.0555  0.1092
 1219W        W44313  15.577   7.942   9.750 -0.1413  0.0888 -0.0374
 1220W        W44314  17.828   9.007   6.665  0.0100 -0.2570  0.2868
 1221W        W44315  18.728   9.767   8.170 -0.0414 -0.0893 -0.2199
 1222W        W44316  17.983   7.909   9.130  0.1788 -0.1304  0.1852
 1223W        W44317  17.255   9.371   8.221 -0.1343 -0.0742 -0.1794
 1224W        W44318  20.320  11.066   8.692 -0.0493 -0.0567 -0.2092
 1225W        W44319  16.546   7.335   7.082 -0.1060  0.1037 -0.2006
 1226W        W44320  15.818   6.780   9.449  0.4643  0.0571 -0.0195
 1227W        W44321  18.195   9.401   7.500  0.2098  0.0185  0.0063
 1228W        W44322   9.944  10.543   9.906 -0.4452  0.2939 -0.1247
 1229W        W44323  17.271   8.910   6.494 -0.2384 -0.1243 -0.1527
 1230W        W44324  16.803   8.888   8.810 -0.0024 -0.2298  0.1494
 1231W        W44325  15.986   8.936   7.658  0.3927  0.1042  0.0914
 1232W        W44326  18.404   9.730   5.101  0.1683  0.0983 -0.1104
 1233W        W44327  17.591   9.976   8.351 -0.0311 -0.0757 -0.0586
 1234W        W44328  18.734  10.959   8.222  0.0019 -0.0102 -0.1536
 1235W        W44329  18.209   8.283   9.951  0.0233 -0.1132 -0.0959
 1236W        W44330  13.601   9.443   9.982  0.2059  0.0502  0.0929
 1237W        W44331  16.163   7.501   7.901  0.3888  0.2447  0.0389
 1238W        W44332  16.331  11.115   8.258  0.1065  0.0224  0.0021
 1239W        W44333  17.784   7.043   8.850  0.0590 -0.1790  0.2497
 1240W        W44334  15.740   7.444   8.320  0.0931  0.0139  0.0596
 1241W        W44335  16.984   7.817   7.716  0.1064  0.0582 -0.3572
 1242W        W44336  17.733   9.399   8.755  0.1460 -0.0405  0.1608
 1243W        W44337  17.256   9.127   8.685  0.0307  0.3262  0.1715
 1244W        W44338  14.821  13.405   2.251 -0.0635 -0.0324  0.3439
 1245W        W44339  14.609  10.849  31.540  0.0264  0.0839  0.1703
 1246W        W44340  18.043  11.169  31.749  0.0028  0.0261  0.2109
 1247W        W44341  18.071  13.389   0.336 -0.1068 -0.1779 -0.0783
 1248W        W44342  14.637  10.636   1.315 -0.0527  0.0075  0.2970
 1249W        W44343  18.569  14.497  29.514 -0.2619  0.2015  0.0200
 1250W        W44344  15.434  11.629   1.605  0.0020  0.0920 -0.1368
 1251W        W44345  16.349  13.853  31.233  0.1582  0.1088  0.2691
 1252W        W44346  16.621  14.753   2.042 -0.1864 -0.2846 -0.0425
 1253W        W44347  16.528  13.424  30.309 -0.0108 -0.1153  0.0651
 1254W        W44348  15.296  12.416   0.926  0.0414  0.1054 -0.1627
 1255W        W44349  13.892  12.761   2.187 -0.1515 -0.1763 -0.0058
 1256W        W44350  15.101  11.710   0.165  0.2085 -0.1523 -0.1318
 1257W        W44351  14.975  10.520   0.943 -0.1490 -0.3654  0.3043
 1258W        W44352  16.200  13.846   0.550 -0.2998 -0.1015  0.0770
 1259W        W44353  15.558  12.924  31.840  0.2504 -0.0630 -0.0711
 1260W        W44354  14.661  13.002   1.234  0.0266 -0.0859  0.1205
 1261W        W44355  15.294  11.357   0.542  0.2277  0.0882 -0.2720
 1262W        W44356  18.205  15.007  31.487 -0.0422 -0.0248  0.0523
 1263W        W44357  15.576  11.964   1.904 -0.2033 -0.2218  0.1288
 1264W        W44358  17.196  12.211   3.757  0.0218  0.2674 -0.2375
 1265W        W44359  16.288  13.372   0.417 -0.1119  0.0671  0.0931
 1266W        W44360  15.388  12.796  29.809 -0.3727 -0.0928 -0.1638
 1267W        W44361  14.557  11.537   1.693  0.3072  0.3022 -0.1532
 1268W        W44362  14.719  11.849   0.429 -0.0063 -0.1954  0.2746
 1269W        W44363  16.321  11.697   3.164 -0.1015  0.0503  0.1666
 1270W        W44364  17.350  12.713   0.008  0.0907 -0.0196  0.0895
 1271W        W44365  17.022  15.700  31.259 -0.2214  0.1470 -0.1545
 1272W        W44366  16.015  14.353  31.281  0.2604 -0.2909 -0.1878
 1273W        W44367  16.337  13.492   1.684 -0.4319  0.1533  0.0315
 1274W        W44368  14.297  13.159   0.494  0.1815  0.0560 -0.2107
 1275W        W44369  15.230  14.218   1.481 -0.2333  0.0825 -0.1476
 1276W        W44370  15.799  13.792  30.754  0.1817 -0.1764 -0.1810
 1277W        W44371  18.304  13.442  31.001 -0.0941  0.2939 -0.0098
 1278W        W44372  15.977  14.969   1.875 -0.3141 -0.2791  0.1329
 1279W        W44373  15.522  13.519   2.238 -0.1457 -0.1233  0.0109
 1280W        W44374  15.599  14.672  31.096 -0.1995 -0.0047 -0.2852
 1281W        W44375  15.673  14.496   1.619 -0.0163  0.3164  0.0495
 1282W        W44376  16.085  13.449   3.001 -0.0317 -0.1820  0.3521
 1283W        W44377  16.162  11.567   2.600 -0.4054  0.0857  0.1694
 1284W        W44378  15.705  12.335   2.190 -0.3302 -0.0948  0.1242
 1285W        W44379  16.084  13.494  31.561 -0.1749  0.4215  0.0647
 1286W        W44380  15.212  12.745  31.476  0.0307 -0.1342  0.0502
 1287W        W44381  14.067  13.180   1.988 -0.4174  0.5218 -0.2805
 1288W        W44382  15.033  13.387   1.266 -0.0123 -0.2214 -0.3998
 1289W        W44383  17.702  11.252   3.122 -0.1125 -0.4553 -0.0198
 1290W        W44384  14.940  15.166  30.225 -0.3312 -0.0905  0.2178
 1291W        W44385  17.311  12.155  31.430 -0.0838  0.1931  0.0496
 1292W        W44386  16.746  11.495  30.802  0.1243  0.0510 -0.2563
 1293W        W44387  16.019  12.187  31.926 -0.0799 -0.4299  0.0097
 1294W        W44388  16.282  10.495   0.614 -0.3011 -0.3636  0.1371
 1295W        W44389  15.358  13.504   0.863 -0.2263 -0.1193 -0.2719
 1296W        W44390  16.353  13.001   1.702  0.0552 -0.0047  0.2113
 1297W        W44391  16.652  13.450   2.595  0.0357 -0.1394  0.2111
 1298W        W44392  16.584  12.058   1.731  0.0312  0.2273  0.2248
 1299W        W44393  16.250  12.062   2.849 -0.0633  0.0851 -0.0395
 1300W        W44394  15.653  14.322   2.867 -0.0577 -0.2147 -0.2244
 1301W        W44395  15.723  10.741   2.613  0.0209 -0.0338  0.0366
 1302W        W44396  17.792  13.038  30.258  0.1030  0.0120  0.0015
 1303W        W44397  16.419  14.687   1.539 -0.4953 -0.1637  0.1127
 1304W        W44398  17.731  11.395  30.918  0.2552  0.1946  0.1158
 1305W        W44399  15.688  11.135   0.347 -0.4049 -0.2339  0.3770
 1306W        W44400  13.633  11.791   2.356  0.0894  0.0432  0.2654
 1307W        W44401  14.931  12.486   1.325 -0.1508 -0.3328 -0.0639
 1308W        W44402  14.889  10.542  31.251  0.1580 -0.3645  0.0055
 1309W        W44403  16.925  14.444   1.773 -0.2521  0.1001  0.0284
 1310W        W44404  14.130  12.604   3.472 -0.1114  0.0872 -0.2216
 1311W        W44405  18.807  11.851   0.009  0.3997  0.3519  0.1685
 1312W        W44406  14.184  12.877   1.607 -0.0939  0.2076  0.2269
 1313W        W44407  16.553  14.299   1.239 -0.2576  0.0593  0.0690
 1314W        W44408  18.114  13.715  31.710  0.0075 -0.1297  0.0264
 1315W        W44409  16.268  11.100   1.414 -0.2115 -0.0930 -0.0479
 1316W        W44410  16.486  12.516   2.479  0.0389  0.2656  0.0370
 1317W        W44411  16.347  12.126  30.950  0.0160  0.0518  0.0132
 1318W        W44412  14.944  14.075  31.093 -0.1379  0.2856  0.0846
 1319W        W44413  18.151  13.993   1.221 -0.1650  0.0245 -0.1496
 1320W        W44414  17.913  12.253  29.822 -0.0380 -0.1799 -0.2094
 1321W        W44415  14.921  14.649   1.502 -0.1448 -0.1387  0.1608
 1322W        W44416  16.950  12.384   2.965  0.0696 -0.0797 -0.1924
 1323W        W44417  15.838  13.408   1.828 -0.4458  0.1625  0.1288
 1324W        W44418  14.377  13.846  31.915  0.1826  0.1371 -0.0341
 1325W        W44419  15.507  11.739   1.138  0.1001 -0.2315 -0.0323
 1326W        W44420  14.289  14.307  31.754 -0.1061  0.1099 -0.1850
 1327W        W44421  14.152  10.724   1.836  0.0082  0.0441  0.0401
 1328W        W44422  15.458  12.668   1.338  0.3751 -0.1017  0.1822
 1329W        W44423  17.004  12.466   2.458 -0.4574  0.1034  0.1356
 1330W        W44424  14.479   9.904   2.179 -0.1683  0.0168 -0.0953
 1331W        W44425  15.765  10.931   1.179 -0.3113  0.3036  0.1255
 1332W        W44426  15.461  12.302  31.825 -0.0641  0.1516  0.0962
 1333W        W44427  17.157  15.472  30.375  0.0618  0.5983  0.2014
 1334W        W44428  17.343  11.209  31.722 -0.0272  0.2058  0.0717
 1335W        W44429  19.524  13.191  30.237 -0.0349  0.0738 -0.0582
 1336W        W44430  13.592  11.250   2.750 -0.3570  0.2248 -0.0329
 1337W        W44431  15.290   9.925   0.321 -0.2001  0.2675  0.2986
 1338W        W44432  14.890  11.921   3.558 -0.0753 -0.1043  0.1900
 1339W        W44433  15.434  10.627   1.779 -0.1224 -0.0934 -0.2929
 1340W        W44434  16.253  13.743   0.050  0.0645  0.0062 -0.0016
 1341W        W44435  15.874   9.679  30.887  0.0394 -0.1964 -0.0412
 1342W        W44436  15.799  12.200   1.079  0.1003  0.0820  0.1965
 1343W        W44437  15.727  11.243   0.816  0.0332  0.0463 -0.1396
 1344W        W44438  15.656  13.378  31.915 -0.0135  0.2307 -0.5162
 1345W        W44439  16.904  11.690   3.697 -0.2111  0.4385 -0.4073
 1346W        W44440  17.966  15.253  29.522 -0.2414 -0.0448 -0.5315
 1347W        W44441  18.745  13.849   2.923  0.0726  0.0193 -0.3197
 1348W        W44442  17.856  12.629   0.073 -0.2547 -0.1754 -0.0159
 1349W        W44443  14.852  11.466   0.803  0.1277 -0.2293  0.2165
 1350W        W44444  15.952  12.350  31.021  0.0281  0.1845  0.1369
 1351W        W44445  15.312  14.149   2.506 -0.0142  0.0687  0.0130
 1352W        W44446  15.717  13.212   0.903 -0.1829 -0.2437 -0.0648
 1353W        W44447  13.907  12.244   0.208 -0.0357  0.3430 -0.0270
 1354W        W44448  17.571  14.120   0.586 -0.1719 -0.0402 -0.1185
 1355W        W44449  15.859  12.839   1.722 -0.0460 -0.2920 -0.0965
 1356W        W44450  14.755  13.686   1.771 -0.0219  0.1198 -0.0720
 1357W        W44451  17.809  11.081   2.626 -0.0628 -0.0532 -0.1467
 1358W        W44452  16.237  12.049   2.277  0.0115 -0.1453 -0.3505
 1359W        W44453  16.693  14.357   0.467  0.5077  0.3177 -0.0086
 1360W        W44454  16.259  12.020  31.460  0.1842 -0.0770  0.2192
 1361W        W44455  16.044  14.491   1.246 -0.0676  0.4016 -0.1336
 1362W        W44456  14.659  12.865  31.115  0.2850 -0.4116  0.0225
 1363W        W44457  13.753  11.891   1.329 -0.1138 -0.2830  0.0208
 1364W        W44458  16.112  14.470  30.365  0.0549  0.2149 -0.2617
 1365W        W44459  18.394  10.719   1.883  0.2516 -0.1952 -0.0788
 1366W        W44460  14.050  11.745   4.094 -0.0300 -0.1314 -0.0674
 1367W        W44461  17.776  10.863   2.083 -0.0542 -0.0862  0.3364
 1368W        W44462  14.723  11.393   0.339  0.0774  0.3241  0.1208
 1369W        W44463  14.466  14.553   2.295 -0.1057 -0.0285 -0.2758
 1370W        W44464  17.635  11.585   0.982 -0.2308 -0.2035  0.2485
 1371W        W44465  18.298  10.900   1.342  0.4111  0.0930  0.0575
 1372W        W44466  16.180  12.409   1.884  0.3370 -0.0994  0.0298
 1373W        W44467  16.710  12.923  31.444 -0.1727  0.1165 -0.1914
 1374W        W44468  16.458  11.410   0.127 -0.1131  0.1317  0.0863
 1375W        W44469  16.259  10.782  31.767  0.0158  0.1819 -0.1976
 1376W        W44470  15.347  13.462   1.725  0.0934  0.0854 -0.0452
 1377W        W44471  14.973  13.695   0.647  0.1132  0.3165  0.3235
 1378W        W44472  15.671  13.612   1.243 -0.0414  0.1407  0.2001
 1379W        W44473  14.410  12.536   1.249  0.3298  0.2073  0.0385
 1380W        W44474  17.426  13.617   0.908  0.0244  0.1150 -0.0103
 1381W        W44475  13.786  13.444  31.543  0.2455  0.2087  0.3282
 1382W        W44476  15.317  12.139   1.448 -0.1680  0.0406 -0.0975
 1383W        W44477  17.060  14.900  28.889 -0.2708  0.1172 -0.2293
 1384W        W44478  15.852  11.627   3.017 -0.1739 -0.1156 -0.2780
 1385W        W44479  16.968  11.666  30.359  0.0678 -0.0044  0.0837
 1386W        W44480  16.919  11.634  31.974  0.0365 -0.1017 -0.2161
 1387W        W44481  14.079  16.022   0.110 -0.1627  0.1370  0.2843
 1388W        W44482  15.703  11.341   2.605 -0.0975 -0.1048 -0.3505
 1389W        W44483  16.299  10.396   2.019  0.2501 -0.2271 -0.0870
 1390W        W44484  16.759  10.714   2.089 -0.0790  0.0566 -0.1413
 1391W        W44485  17.218  12.948   2.371  0.1394  0.1916  0.1612
 1392W        W44486  16.621  11.459   0.799 -0.0185 -0.3738  0.3490
 1393W        W44487  16.863  11.667   1.705  0.5024 -0.0728 -0.2016
 1394W        W44488  13.595  12.880   0.565  0.0342  0.5564  0.0084
 1395W        W44489  15.120  12.410   2.362  0.0414  0.1279 -0.0059
 1396W        W44490  14.286  13.931   1.660 -0.0705  0.0217  0.2479
 1397W        W44491  14.176  14.000   2.471  0.0492  0.4689 -0.0655
 1398W        W44492  15.885  11.642   2.169 -0.0303  0.1898  0.0880
 1399W        W44493  16.005  13.280   1.333  0.1702 -0.2406 -0.1334
 1400W        W44494  18.081  11.726   2.666 -0.1183 -0.1371 -0.1647
 1401W        W44495  15.747  12.504  31.503 -0.0435  0.1021  0.2906
 1402W        W44496  16.098  14.745  30.910  0.0468 -0.0206 -0.1373
 1403W        W44497  15.139  14.110   0.261  0.0643 -0.1330 -0.0067
 1404W        W44498  15.094  10.377   1.458 -0.0293 -0.1067 -0.0570
 1405W        W44499  15.886  13.994  31.799  0.0622  0.0923  0.3157
 1406W        W44500  15.393  13.792  31.868 -0.1387  0.3602  0.0093
 1407W        W44501  16.663  12.512   1.968  0.1953 -0.0565  0.1246
 1408W        W44502  14.306  13.437   1.624  0.1741  0.0201  0.1233
 1409W        W44503  16.793  11.358   1.284  0.1201  0.0570  0.1101
 1410W        W44504  14.993  14.461  31.589 -0.1635 -0.1628 -0.1370
 1411W        W44505  15.152  10.886   1.417 -0.1213  0.3404  0.0061
 1412W        W44506  15.831  12.835  30.812  0.0413 -0.2293  0.1172
 1413W        W44507  16.045  12.735   2.166 -0.1641  0.1664 -0.0850
 1414W        W44508  17.647  13.127   0.053 -0.1289  0.0662  0.5998
 1415W        W44509  13.735  11.316   2.065  0.0001 -0.0469 -0.2074
 1416W        W44510  16.629  11.148   2.363 -0.0239  0.1413 -0.1922
 1417W        W44511  14.123  15.089   2.745 -0.1768 -0.1925 -0.0697
 1418W        W44512  16.507  13.241  31.792  0.2567  0.1586  0.1209
 1419W        W44513  16.943  10.017   0.764 -0.0580 -0.1665 -0.3798
 1420W        W44514  15.541  13.051   2.098 -0.2061  0.0248  0.0244
 1421W        W44515  16.619  13.141   3.096 -0.0083  0.1057  0.1171
 1422W        W44516  14.771  12.625  31.570 -0.0145  0.2688 -0.0183
 1423W        W44517  18.534  12.110   3.504  0.0513  0.1554 -0.2114
 1424W        W44518  15.652  14.074   0.212  0.0199 -0.0325 -0.4484
 1425W        W44519  13.733  13.994  31.588  0.1033 -0.0713  0.2309
 1426W        W44520  15.874  14.541   0.160 -0.0604 -0.1218  0.6569
 1427W        W44521  16.426  12.879   0.147  0.1815 -0.1011 -0.1180
 1428W        W44522  14.722  12.610   0.863 -0.0447  0.4279 -0.1681
 1429W        W44523  14.206  12.494   3.008  0.4331 -0.0079  0.2587
 1430W        W44524  16.906  13.507   1.648  0.0374 -0.0030  0.1158
 1431W        W44525  15.978  13.082   0.153  0.1372  0.1644 -0.3630
 1432W        W44526  15.264  11.339   1.032  0.1639 -0.2447 -0.1666
 1433W        W44527  17.762  12.936   1.622 -0.0141  0.1896 -0.0731
 1434W        W44528  16.106  12.938   0.629 -0.4218  0.0448  0.1825
 1435W        W44529  16.690  12.043   2.592 -0.1224  0.0757  0.2168
 1436W        W44530  15.309  12.574   1.812 -0.0760  0.0101  0.1152
 1437W        W44531  17.593   9.548   2.381 -0.1945 -0.0597 -0.1543
 1438W        W44532  16.375  14.151  31.609 -0.0644  0.0406 -0.3906
 1439W        W44533  16.624  12.591   1.483 -0.0034 -0.0209  0.5270
 1440W        W44534  16.739  13.077   1.268  0.1837  0.3205  0.1040
 1441W        W44535  13.297  11.405   2.385 -0.3256  0.3636 -0.0706
 1442W        W44536  14.685  13.423   0.271 -0.1207  0.1007 -0.2636
 1443W        W44537  16.469  12.592   3.483  0.0310  0.0575 -0.0264
 1444W        W44538  15.170  12.698   0.494  0.1695 -0.1128  0.2032
 1445W        W44539  15.087  12.189  31.387 -0.0963  0.1156 -0.0046
 1446W        W44540  13.970  13.520   2.424  0.0163 -0.0074 -0.0085
 1447W        W44541  18.899  11.332   0.102 -0.2119 -0.1775  0.2159
 1448W        W44542  16.830  12.679  31.905 -0.2016 -0.1220 -0.1561
 1449W        W44543  15.829  13.514   0.446 -0.1230 -0.2079  0.0888
 1450W        W44544  17.868  10.928   3.519  0.1427  0.2120 -0.0718
 1451W        W44545  18.019  12.004  30.963  0.4179 -0.6252 -0.0203
 1452W        W44546  16.725  12.146   3.678  0.1161 -0.0345 -0.0072
 1453W        W44547  14.867  10.809   2.295  0.0356 -0.1586 -0.2421
 1454W        W44548  15.927  14.288   0.594 -0.1288  0.2298  0.0740
 1455W        W44549  15.493  11.300   2.057 -0.0919  0.0785  0.2020
 1456W        W44550  15.498  15.031   2.097 -0.0417  0.0556 -0.0072
 1457W        W44551  14.320  12.028   3.354 -0.1079 -0.0466  0.1728
 1458W        W44552  17.085  13.133   0.913 -0.0614 -0.2599  0.0261
 1459W        W44553  17.561  12.305   0.347  0.0489 -0.2123  0.1687
 1460W        W44554  15.156  12.212   0.395  0.0161 -0.0869 -0.2355
 1461W        W44555  16.322  14.511   0.791  0.2185  0.2822  0.1083
 1462W        W44556  15.047  13.703  31.519 -0.1422 -0.0612 -0.0174
 1463W        W44557  16.996  11.093   0.867  0.4174 -0.0613  0.1162
 1464W        W44558  15.050  11.779   1.888 -0.2704  0.0400  0.3051
 1465W        W44559  16.303  13.021   1.062  0.2121 -0.1074  0.0096
 1466W        W44560  16.642  13.295  30.809 -0.1298 -0.0493 -0.0210
 1467W        W44561  13.583  13.313   0.986 -0.3660  0.1911  0.1305
 1468W        W44562  15.786   9.985   3.779  0.0105  0.2027 -0.2560
 1469W        W44563  15.863  11.877   1.463 -0.0922 -0.0242  0.1257
 1470W        W44564  16.017  12.026   0.381 -0.1126 -0.1241  0.0142
 1471W        W44565  17.531  11.856   3.572 -0.0495  0.0483 -0.1392
 1472W        W44566  15.131  12.973   1.034 -0.1074  0.1016 -0.0451
 1473W        W44567  16.016  12.473   2.629  0.1265 -0.0627 -0.1602
 1474W        W44568  14.742  11.969   3.076  0.0225 -0.0604 -0.2150
 1475W        W44569  17.348  14.799   1.741  0.1036  0.1685 -0.0853
 1476W        W44570  17.949  12.131   0.124 -0.1485 -0.2678 -0.0702
 1477W        W44571  17.419  10.179   1.453  0.1296  0.2144  0.0939
 1478W        W44572  17.312  12.109   0.835  0.0169 -0.2273 -0.2186
 1479W        W44573  16.871  11.863  31.500  0.1783  0.0547 -0.0304
 1480W        W44574  14.989  11.336   1.482  0.2278  0.1254  0.2441
 1481W        W44575  17.406  13.834   3.381  0.0748  0.1510 -0.3939
 1482W        W44576  16.381  12.782  30.206 -0.0379  0.1729 -0.3882
 1483W        W44577  17.535  12.323   2.854 -0.0654 -0.0347 -0.3558
 1484W        W44578  16.940  13.726  30.910 -0.1150 -0.1650 -0.0831
 1485W        W44579  17.415  14.256  31.068  0.3446 -0.1275 -0.2201
 1486W        W44580  17.732  10.558   2.489 -0.1748 -0.1489 -0.1332
 1487W        W44581  13.124  10.623   1.592  0.0770 -0.0808 -0.1691
 1488W        W44582  14.379  14.474   1.707 -0.0480  0.0493 -0.0891
 1489W        W44583  15.160  11.322  31.192 -0.0024 -0.1042 -0.0492
 1490W        W44584  16.296  12.569  31.340  0.1560 -0.3418 -0.0820
 1491W        W44585  15.337  13.587   0.339  0.1910 -0.4361 -0.1460
 1492W        W44586  16.034  13.708   3.472 -0.3550  0.0346  0.0029
 1493W        W44587  17.073  11.666   0.883 -0.0687 -0.0476  0.0983
 1494W        W44588  17.919  10.604   1.652  0.1758  0.0380 -0.0397
 1495W        W44589  14.444  14.749  30.378  0.1896 -0.1603 -0.0756
 1496W        W44590  16.118  11.147   2.333  0.4300 -0.1481  0.0893
 1497W        W44591  13.890  14.396   1.636  0.1881 -0.2772  0.1068
 1498W        W44592  13.541  13.148   2.075 -0.3487 -0.0570 -0.0216
 1499W        W44593  15.387  14.376  31.907 -0.1429  0.2002 -0.2191
 1500W        W44594  14.621  12.395   3.478 -0.1796  0.1541  0.1988
 1501W        W44595  17.046  14.233   0.886  0.1392  0.0337 -0.3792
 1502W        W44596  14.198  12.755   0.853  0.0853 -0.0924 -0.0324
 1503W        W44597  17.274  11.272   1.900 -0.0227  0.2999  0.1968
 1504W        W44598  16.886  13.002   3.485  0.1340 -0.1895  0.0896
 1505W        W44599  15.038  11.772   1.223  0.0990 -0.0727  0.0462
 1506W        W44600  15.765  12.371   1.649 -0.0214 -0.2374  0.3993
 1507W        W44601  17.019  13.541   0.600  0.0421  0.2081 -0.0679
 1508W        W44602  13.887  12.343   1.459 -0.0082 -0.3217  0.0337
 1509W        W44603  15.344  11.756   2.309 -0.1323 -0.2842  0.1436
 1510W        W44604  15.598  12.624   3.113 -0.0770  0.2401 -0.3304
 1511W        W44605  14.737  14.269  31.974  0.0133  0.0229  0.3158
 1512W        W44606  15.177  11.682  31.636  0.0960  0.2771 -0.2465
 1513W        W44607  17.553  14.663  28.990  0.1014 -0.3990  0.0024
 1514W        W44608  16.059  13.809   2.062  0.2477 -0.2435  0.3041
 1515W        W44609  14.167  12.015   2.185 -0.1794  0.1161 -0.0377
 1516W        W44610  15.215  14.414  30.624  0.2981  0.1634 -0.0746
 1517W        W44611  16.731  14.939  31.708 -0.2408  0.1936 -0.1493
 1518W        W44612  16.427  12.471  31.782  0.1826  0.2200  0.2020
 1519W        W44613  16.563  14.055   1.840  0.2279  0.3387  0.0883
 1520W        W44614  16.101  12.419   0.753  0.3159 -0.0718 -0.0484
 1521W        W44615  16.626  13.351   0.792  0.0827 -0.0150  0.1534
 1522W        W44616  15.175  14.908  30.673 -0.2268 -0.0546  0.2974
 1523W        W44617  16.570  14.098  30.523  0.0763 -0.1552 -0.0057
 1524W        W44618  16.302  15.354  31.684 -0.2227  0.2605  0.2238
 1525W        W44619  16.869  12.950   1.732 -0.1628  0.0563  0.0074
 1526W        W44620  18.438  10.989   0.057  0.0389  0.0225 -0.2613
 1527W        W44621  18.071  14.206   0.728 -0.0945 -0.1489  0.0345
 1528W        W44622  17.751  11.480  31.400 -0.0278  0.1110 -0.1949
 1529W        W44623  17.282  15.011   2.674 -0.2580  0.0664  0.1113
 1530W        W44624  15.123  12.967   1.583  0.0863  0.1519  0.1598
 1531W        W44625  15.540  11.223  31.577 -0.1389  0.2762 -0.2403
 1532W        W44626  14.575  13.652   1.296  0.0694 -0.3842  0.2155
 1533W        W44627  18.104  12.209   3.239 -0.2035 -0.0743  0.2132
 1534W        W44628  13.588  13.553   2.765  0.2318  0.2959 -0.2119
 1535W        W44629  17.137  15.735  29.892 -0.1848 -0.1853 -0.0179
 1536W        W44630  15.413  10.863  31.966 -0.0586 -0.3040 -0.1320
 1537W        W44631  14.632  13.987   0.420 -0.3368  0.0713 -0.1057
 1538W        W44632  17.409  11.347   2.594  0.1977 -0.1878  0.0430
 1539W        W44633  15.574  11.528  30.359 -0.4449 -0.3160  0.0154
 1540W        W44634  17.061  11.629   2.319 -0.0957  0.0180 -0.0739
 1541W        W44635  16.254  15.209  30.716  0.1531 -0.0292  0.2848
 1542W        W44636  14.849  14.372   0.588  0.3021  0.2906 -0.1077
 1543W        W44637  15.614  15.292   0.329 -0.2274 -0.1272  0.0463
 1544W        W44638  14.131  12.088  31.713  0.0487 -0.2361  0.1117
 1545W        W44639  17.609  11.792   0.462  0.1831 -0.0539 -0.2093
 1546W        W44640  15.341  11.744   2.877 -0.1685  0.1087 -0.1860
 1547W        W44641  18.028  11.626   1.365 -0.0287  0.1072  0.0539
 1548W        W44642  15.670  12.698   0.709 -0.0730  0.0306 -0.0018
 1549W        W44643  17.642  11.037   1.617 -0.1130  0.0627 -0.4706
 1550W        W44644  16.738  12.961   2.241 -0.0860 -0.0045  0.2132
 1551W        W44645  14.960  11.994   2.631  0.2195 -0.0943 -0.1031
 1552W        W44646  15.536  12.488   0.281  0.0648 -0.3679  0.1046
 1553W        W44647  16.328  13.298   2.159  0.1899  0.1561  0.0686
 1554W        W44648  15.534  11.914   0.252  0.2932  0.1423 -0.0105
 1555W        W44649  16.769  14.779   2.604  0.0251  0.5755  0.1689
 1556W        W44650  14.662  12.076   0.962 -0.0091 -0.0427  0.1753
 1557W        W44651  16.043  12.565   0.252  0.2801 -0.4025  0.3806
 1558W        W44652  13.721  13.792   0.746  0.0350 -0.1223 -0.4716
 1559W        W44653  13.133  13.074   0.867 -0.2596  0.1969 -0.3986
 1560W        W44654  16.521  15.694   2.480 -0.2128  0.2924  0.1781
 1561W        W44655  14.419  10.819   0.456  0.2207 -0.1629  0.0055
 1562W        W44656  18.174  14.020  30.174 -0.0781 -0.0406  0.0184
 1563W        W44657  17.546  11.952   1.420  0.0386  0.5699  0.0123
 1564W        W44658  15.089  16.466  30.163 -0.0125 -0.0324  0.0113
 1565W        W44659  16.991  12.640   1.052  0.0453 -0.1181 -0.1264
 1566W        W44660  17.488  15.221   1.555  0.1012 -0.0151 -0.1503
 1567W        W44661  14.037  11.379   1.137  0.2430  0.3439 -0.3375
 1568W        W44662  16.043  15.377   1.362  0.0416 -0.1325 -0.0218
 1569W        W44663  17.319  12.769   1.461  0.3774 -0.4233 -0.4313
 1570W        W44664  16.159  11.812   0.970  0.0449 -0.1606 -0.4827
 1571W        W44665  14.903  13.745   0.011 -0.2087  0.4561  0.0318
 1572W        W44666  13.885  14.661   0.691 -0.2454 -0.1020  0.2449
 1573W        W44667  17.261  11.545   1.420  0.1378 -0.0753  0.4009
 1574W        W44668  17.322  11.838   1.895  0.1739  0.1478 -0.0261
 1575W        W44669  14.522  14.065  30.308  0.0516  0.0298 -0.0570
 1576W        W44670  17.780   9.977   2.260  0.0962 -0.2150 -0.1414
 1577W        W44671  15.119  13.841   1.123  0.2087  0.1897 -0.1237
 1578W        W44672  15.551  14.435   3.794 -0.4345 -0.1335  0.2660
 1579W        W44673  15.856  12.535  30.325 -0.0019  0.6870 -0.0858
 1580W        W44674  16.369  11.603   1.472  0.0690  0.0452  0.2304
 1581W        W44675  17.048  13.004   0.386  0.3176 -0.1115 -0.0057
 1582W        W44676  15.803  14.643  31.657 -0.1520  0.0992 -0.0125
 1583W        W44677  16.967  14.157  31.862  0.1023  0.0741 -0.3000
 1584W        W44678  15.521  13.064   0.386  0.3852 -0.3426  0.1108
 1585W        W44679  17.666  15.742   1.422  0.1928  0.0665  0.1552
 1586W        W44680  14.894  11.767  31.113 -0.2705 -0.0874  0.3359
 1587W        W44681  17.685  10.897  31.970  0.0272  0.0871  0.1230
 1588W        W44682  16.793  11.922   1.223  0.5512  0.0657  0.0274
 1589W        W44683  16.166  13.636   2.548  0.2274  0.0826  0.1451
 1590W        W44684  17.018  10.803  31.317 -0.1769 -0.0844 -0.2395
 1591W        W44685  16.003  13.412  31.058 -0.0085 -0.3834  0.0047
 1592W        W44686  14.170  11.901   1.703  0.3006 -0.0197 -0.0039
 1593W        W44687  17.035  11.614   4.490 -0.1161 -0.3444  0.1848
 1594W        W44688  13.199  12.441   2.977  0.2123  0.1904  0.1417
 1595W        W44689  14.442  12.862   2.088 -0.1305  0.2330 -0.4711
 1596W        W44690  14.373  11.062   1.422 -0.1361  0.2584 -0.2203
 1597W        W44691  18.403  14.513  30.990 -0.2490  0.1091 -0.0060
 1598W        W44692  15.751   9.722   1.184 -0.0248  0.0738  0.2307
 1599W        W44693  14.451  10.360   0.822  0.3601  0.1815 -0.1020
 1600W        W44694  17.892  14.147  30.706  0.0631  0.3243  0.1156
 1601W        W44695  17.516  15.135  28.727  0.0870  0.2339 -0.0986
 1602W        W44696  16.634  10.889   1.120 -0.0520  0.0021  0.3587
 1603W        W44697  17.325  14.281   2.021 -0.1917 -0.1719 -0.2981
 1604W        W44698  13.895  13.935  30.084 -0.3992  0.4076  0.0278
 1605W        W44699  15.932  11.708   3.586 -0.1249 -0.0162  0.1131
 1606W        W44700  15.658  11.471   4.083  0.1173  0.4257  0.0435
 1607W        W44701  13.975  11.659  29.982 -0.1004 -0.0068 -0.0448
 1608W        W44702  15.000  13.195  31.447 -0.0136 -0.0560  0.3169
 1609W        W44703  17.465  13.383   0.425  0.3138  0.0871 -0.1588
 1610W        W44704  16.999  14.306  30.228 -0.1812 -0.2419  0.2385
 1611W        W44705  14.979  14.303   1.113 -0.1068  0.3404 -0.0442
 1612W        W44706  15.549  14.206   2.077 -0.1445 -0.0041 -0.1327
 1613W        W44707  14.965  11.531   3.095 -0.1839 -0.0085  0.1326
 1614W        W44708  17.929  11.977   1.067  0.3741  0.0861 -0.3699
 1615W        W44709  15.787  11.883   2.598  0.1814  0.0283 -0.2326
 1616W        W44710  17.466  11.837  31.020 -0.0376  0.1464  0.0346
 1617W        W44711  17.562  10.363   2.024  0.0514 -0.0506 -0.1910
 1618W        W44712  16.149  12.635   1.336  0.0705 -0.0531 -0.0984
 1619W        W44713  14.604  10.869   3.189  0.0670 -0.0425 -0.2724
 1620W        W44714  13.827  14.136   2.881 -0.3339 -0.2140  0.0708
 1621W        W44715  17.001  12.406   0.404 -0.2358 -0.0232 -0.1852
 1622W        W44716  15.362  10.887   0.926 -0.0027 -0.3223  0.2339
 1623W        W44717  16.556  12.386   1.008 -0.2680  0.1644  0.1252
 1624W        W44718  17.086  12.654  30.069  0.0459 -0.0837  0.1862
 1625W        W44719  14.403   9.823   1.472 -0.2969 -0.2509  0.1552
 1626W        W44720  16.253  12.114   1.366  0.0618 -0.2676 -0.1810
 1627W        W44721  16.454  11.452   1.973  0.1430 -0.2052 -0.0544
 1628W        W44722  15.391  13.995   0.671 -0.4679 -0.2718  0.2200
 1629W        W44723  16.593  13.733   2.200 -0.1958 -0.2502 -0.0292
 1630W        W44724  15.435  12.525  31.103  0.0115 -0.1003  0.0704
 1631W        W44725  17.204  13.574  31.468  0.2509 -0.1462 -0.0774
 1632W        W44726  16.731  13.305   0.228  0.1448 -0.2524  0.0741
 1633W        W44727  18.160  14.737   2.506  0.1696  0.2678 -0.2274
 1634W        W44728  16.658  13.925   0.765  0.0676 -0.3178 -0.0954
 1635W        W44729  17.919  13.898   0.251  0.1500 -0.0385 -0.3702
 1636W        W44730  14.995  10.458   1.930 -0.2884 -0.0391  0.0153
 1637W        W44731  17.640  12.325  31.760 -0.2417 -0.0477 -0.0427
 1638W        W44732  15.158  13.258  31.968  0.1660  0.0780 -0.2531
 1639W        W44733  17.214  11.035   1.310  0.2034 -0.0899  0.2201
 1640W        W44734  14.634  12.036   1.487  0.3917  0.1083  0.2734
 1641W        W44735  17.186  10.763  31.845 -0.0522  0.0328 -0.0080
 1642W        W44736  14.732  14.111   1.462  0.0230  0.2335  0.1537
 1643W        W44737  16.857  14.938   1.634  0.2266 -0.0894  0.1230
 1644W        W44738  15.292  13.897   7.760  0.1445  0.0454  0.2938
 1645W        W44739  15.241  11.523   3.775 -0.0840  0.0290 -0.3637
 1646W        W44740  17.567  11.618   4.478 -0.1604 -0.2216 -0.1244
 1647W        W44741  16.902  13.603   3.191  0.3085 -0.3172 -0.1389
 1648W        W44742  14.831  12.316   3.899  0.3474  0.0898 -0.1559
 1649W        W44743  17.486  14.992   3.220 -0.0547  0.2717 -0.0511
 1650W        W44744  15.980  10.441   5.959  0.4683 -0.0029  0.0432
 1651W        W44745  16.741  14.103   5.330 -0.0475 -0.2676  0.0112
 1652W        W44746  18.334  14.467   5.487 -0.2664 -0.2541  0.2732
 1653W        W44747  17.121  13.295   2.719  0.1171 -0.0354 -0.2356
 1654W        W44748  14.931  11.451   5.730  0.1318 -0.2234  0.2307
 1655W        W44749  16.110  13.355   6.987  0.1461 -0.2008  0.0704
 1656W        W44750  15.823  12.001   4.249 -0.1290 -0.0152 -0.1521
 1657W        W44751  14.151  11.304   5.988  0.1669 -0.3483 -0.1866
 1658W        W44752  15.806  11.596   6.210 -0.0956  0.1748  0.0056
 1659W        W44753  14.644  13.502   4.334 -0.1750 -0.1150 -0.0337
 1660W        W44754  16.232  11.805   5.476 -0.1019  0.1343  0.0430
 1661W        W44755  15.742  12.280   3.563  0.0327  0.1319  0.3543
 1662W        W44756  16.203  15.477   4.113  0.0810 -0.2401 -0.0327
 1663W        W44757  14.685  12.412   6.646 -0.1781 -0.6840  0.1990
 1664W        W44758  17.075  12.084   6.056 -0.0619  0.0240  0.0131
 1665W        W44759  16.278  14.660   3.478 -0.3274 -0.0103  0.1789
 1666W        W44760  15.202  12.174   3.060  0.2447 -0.0065 -0.0940
 1667W        W44761  13.980  13.205   5.132  0.1624 -0.3954  0.2089
 1668W        W44762  15.727  13.233   4.433  0.0195 -0.0721  0.0106
 1669W        W44763  15.284  11.059   5.791 -0.1276 -0.1859 -0.1933
 1670W        W44764  16.615  12.986   4.823  0.0914  0.0618 -0.3382
 1671W        W44765  16.793  14.565   4.409  0.1885  0.0320 -0.1821
 1672W        W44766  17.492  14.863   4.821 -0.0725  0.1716  0.1650
 1673W        W44767  16.626  12.166   6.960 -0.0969  0.1150 -0.1776
 1674W        W44768  13.717  12.956   3.711  0.0048 -0.1695  0.1438
 1675W        W44769  14.228  14.226   4.757  0.3859  0.0364  0.1274
 1676W        W44770  13.941  12.951   3.072 -0.1109  0.4100 -0.0335
 1677W        W44771  17.309  13.505   4.179 -0.2710  0.1086 -0.0005
 1678W        W44772  17.257  14.756   6.086  0.1317 -0.0656  0.2262
 1679W        W44773  14.976  15.106   6.598 -0.0763 -0.0736  0.1392
 1680W        W44774  15.572  13.163   1.447 -0.2243  0.1495  0.0412
 1681W        W44775  16.882  14.916   4.887 -0.2312 -0.0635 -0.2074
 1682W        W44776  15.768  15.524   6.160 -0.0782 -0.0957  0.1332
 1683W        W44777  15.485  12.549   4.896 -0.1541  0.2612  0.0910
 1684W        W44778  16.464  12.628   2.980  0.1763 -0.0096 -0.0007
 1685W        W44779  15.649  13.703   2.651  0.2415 -0.3852  0.1881
 1686W        W44780  17.073  14.070   3.806 -0.1070  0.1864  0.3722
 1687W        W44781  14.947  11.858   6.451  0.1903 -0.0555 -0.2765
 1688W        W44782  15.722  12.780   4.562  0.2153 -0.1030  0.2537
 1689W        W44783  17.832  12.269   5.650 -0.1527  0.2299  0.0091
 1690W        W44784  13.750  12.209   3.245  0.0682  0.1395  0.0447
 1691W        W44785  17.406  13.361   3.688 -0.5217 -0.1137 -0.2478
 1692W        W44786  16.090  12.408   3.186  0.2474 -0.4138  0.2650
 1693W        W44787  16.328  12.286   4.508  0.1007  0.2385 -0.0727
 1694W        W44788  15.802  11.970   5.241 -0.1501  0.0791 -0.0913
 1695W        W44789  15.227  13.146   3.355  0.0459  0.2184 -0.1113
 1696W        W44790  14.374  11.680   5.734 -0.1467 -0.1685 -0.0425
 1697W        W44791  16.839  13.792   4.114  0.0248 -0.1248 -0.2933
 1698W        W44792  15.157  12.745   2.741 -0.1142 -0.1362 -0.1007
 1699W        W44793  16.651  12.838   4.298  0.3856  0.0979 -0.2134
 1700W        W44794  14.909  15.556   6.081  0.0073 -0.1194 -0.0704
 1701W        W44795  15.428  12.303   4.395  0.0988 -0.1149  0.1628
 1702W        W44796  16.955  13.572   3.704 -0.1344 -0.0278 -0.0198
 1703W        W44797  17.779  14.327   4.312 -0.4617 -0.0406 -0.1483
 1704W        W44798  16.405  12.989   2.580  0.1748 -0.0090 -0.1446
 1705W        W44799  15.456  12.029   4.901  0.4890 -0.2087 -0.0045
 1706W        W44800  15.004  11.383   6.245  0.1543 -0.1757  0.1610
 1707W        W44801  12.828  12.517   6.177 -0.1023 -0.1343  0.0110
 1708W        W44802  15.858  10.472   3.675 -0.1553 -0.0947 -0.1336
 1709W        W44803  18.940  13.330   7.258  0.0895  0.0277 -0.0974
 1710W        W44804  14.652  13.687   7.526 -0.0875 -0.1764 -0.0176
 1711W        W44805  16.822  12.562   3.890 -0.0989  0.1128 -0.2039
 1712W        W44806  14.984  13.792   4.542  0.0064  0.0536  0.0231
 1713W        W44807  18.221  15.040   4.587  0.3116 -0.1696  0.0128
 1714W        W44808  15.477  12.316   2.686  0.0832 -0.3373  0.3499
 1715W        W44809  17.093  10.255   4.214  0.0541  0.0268  0.0696
 1716W        W44810  16.299  11.415   6.201  0.2706 -0.3095  0.2200
 1717W        W44811  14.782  12.751   4.125  0.1167 -0.3216  0.1752
 1718W        W44812  14.715  13.050   4.525 -0.0176  0.1861  0.1295
 1719W        W44813  18.523  14.558   4.651  0.4603 -0.0370 -0.0681
 1720W        W44814  17.001  13.393   2.167  0.0526 -0.0891 -0.0385
 1721W        W44815  14.351  14.104   5.248 -0.1578 -0.1621  0.1704
 1722W        W44816  15.496  12.295   5.590 -0.1945  0.2156 -0.1063
 1723W        W44817  16.615  15.162   6.745  0.1766 -0.1223 -0.0547
 1724W        W44818  16.106  15.058   3.121 -0.2813 -0.1426  0.3336
 1725W        W44819  13.572  13.704   5.875 -0.0932 -0.0404 -0.0553
 1726W        W44820  15.220  13.175   2.465  0.1017  0.2126  0.1343
 1727W        W44821  13.828  10.638   6.818 -0.1251 -0.0139 -0.0077
 1728W        W44822  15.369  13.521   5.791  0.1330 -0.2318 -0.3266
 1729W        W44823  16.943  12.487   5.854 -0.0055 -0.0647  0.1229
 1730W        W44824  13.515  11.787   6.767  0.1230  0.1663  0.0940
 1731W        W44825  16.466  12.333   5.408 -0.1138 -0.0184 -0.1267
 1732W        W44826  14.796  13.208   2.902  0.2755  0.0234 -0.0104
 1733W        W44827  17.795  14.098   3.144  0.1277  0.0498  0.3281
 1734W        W44828  17.057  12.549   3.396  0.2053  0.1706  0.2936
 1735W        W44829  17.669  13.181   2.801  0.0232  0.1845  0.1118
 1736W        W44830  14.741  12.224   7.911 -0.0776  0.0799  0.1808
 1737W        W44831  14.800  12.261   4.413  0.1017  0.3200  0.0172
 1738W        W44832  15.796  11.493   5.171 -0.0634 -0.1529 -0.0642
 1739W        W44833  13.629  11.435   5.929 -0.2590  0.1119  0.1202
 1740W        W44834  17.223  13.398   5.826 -0.0778  0.0717 -0.1600
 1741W        W44835  15.307  11.042   2.454  0.1093 -0.1382 -0.1155
 1742W        W44836  17.998  13.948   5.442 -0.2115  0.1365 -0.1115
 1743W        W44837  15.018  11.700   5.213 -0.4992 -0.0619  0.0970
 1744W        W44838  13.619  12.449   3.689 -0.0009  0.4636  0.3066
 1745W        W44839  17.581  12.076   6.049 -0.0019 -0.0598  0.0847
 1746W        W44840  17.086  14.697   3.121 -0.1240 -0.3746 -0.1636
 1747W        W44841  18.018  14.440   5.903 -0.1577  0.0182  0.1506
 1748W        W44842  17.784  15.977   4.654  0.0062 -0.0913  0.1382
 1749W        W44843  15.121  11.745   7.050  0.0888 -0.1313  0.2944
 1750W        W44844  14.649  10.980   4.560 -0.0099  0.1128  0.1914
 1751W        W44845  15.833  14.331   5.570 -0.2753 -0.1038 -0.1563
 1752W        W44846  15.235  12.846   4.367  0.0675  0.3321 -0.0590
 1753W        W44847  15.052  12.654   3.256  0.1388 -0.1298 -0.0027
 1754W        W44848  17.840  15.389   5.437 -0.1721 -0.2353  0.2008
 1755W        W44849  15.006  13.274   3.904  0.1298 -0.0020 -0.0987
 1756W        W44850  15.173  11.921   5.758 -0.1857 -0.1791 -0.3141
 1757W        W44851  17.421  11.627   6.169  0.1013  0.0144 -0.0949
 1758W        W44852  19.420  11.679   5.806  0.0264  0.2636 -0.2568
 1759W        W44853  17.423  12.609   4.664 -0.0974  0.3886  0.5129
 1760W        W44854  14.941  12.275   1.853  0.1735 -0.0594 -0.0573
 1761W        W44855  17.151  15.616   4.908  0.1950 -0.1503  0.0217
 1762W        W44856  16.206  14.715   2.468 -0.2524  0.0814 -0.2108
 1763W        W44857  15.145  12.347   5.201 -0.3540  0.1675  0.0007
 1764W        W44858  16.620  14.274   4.010 -0.1461  0.0221  0.2539
 1765W        W44859  17.309  12.028   4.632 -0.0604 -0.0492  0.3075
 1766W        W44860  14.064  12.425   6.260  0.1196 -0.0391  0.3322
 1767W        W44861  18.704  11.797   6.439 -0.2792  0.0384  0.1928
 1768W        W44862  14.468  11.808   4.914  0.5588  0.0568  0.0936
 1769W        W44863  14.979  14.594   6.624  0.1166  0.0798 -0.0106
 1770W        W44864  16.736  11.665   5.333  0.3319 -0.3983  0.0063
 1771W        W44865  17.820  13.634   2.705 -0.0351 -0.0550  0.0197
 1772W        W44866  15.898  14.047   6.402 -0.2989 -0.0428 -0.0282
 1773W        W44867  16.001  12.873   2.923 -0.1931  0.2117  0.0122
 1774W        W44868  17.358  11.662   4.961  0.0618  0.1943 -0.3036
 1775W        W44869  15.072  12.781   6.717 -0.0978  0.1494 -0.2623
 1776W        W44870  16.289  14.469   4.391  0.0821  0.1500 -0.2845
 1777W        W44871  14.878  14.118   6.493  0.1405 -0.1672 -0.3774
 1778W        W44872  16.398  11.978   4.046  0.2005  0.1155 -0.0385
 1779W        W44873  17.259  14.203   2.934 -0.0661  0.3295  0.1118
 1780W        W44874  14.886  13.327   4.988 -0.0021 -0.1458 -0.4006
 1781W        W44875  15.939  14.986   6.032  0.4931 -0.1535 -0.2428
 1782W        W44876  16.044  14.203   3.588 -0.5355  0.4338 -0.1501
 1783W        W44877  15.473  10.555   5.554  0.1631 -0.0790  0.3129
 1784W        W44878  15.329  12.537   3.978  0.7382  0.2754 -0.2280
 1785W        W44879  16.385  11.778   4.535 -0.0056 -0.2837 -0.0551
 1786W        W44880  14.584  12.844   3.195 -0.1363 -0.2281 -0.1625
 1787W        W44881  18.324  12.035   6.562 -0.1126 -0.2307 -0.0911
 1788W        W44882  17.006  13.095   5.412  0.1338  0.0841 -0.1326
 1789W        W44883  16.044  11.574   6.627 -0.0185 -0.2940  0.0961
 1790W        W44884  17.411  12.903   6.573  0.1173 -0.0393  0.1324
 1791W        W44885  17.913  12.456   4.441 -0.0363  0.1272  0.0285
 1792W        W44886  16.321  13.326   4.555  0.0528 -0.2972  0.2267
 1793W        W44887  14.496  11.751   3.878 -0.0391 -0.0864  0.2623
 1794W        W44888  15.923  10.939   6.036 -0.0409  0.0321 -0.0251
 1795W        W44889  16.171  13.119   5.974 -0.0352  0.0806 -0.0271
 1796W        W44890  15.469  15.440   5.727 -0.3580 -0.1520  0.0930
 1797W        W44891  16.036  14.003   5.120 -0.1246  0.1297 -0.0137
 1798W        W44892  15.809  12.493   4.199 -0.1850 -0.0795 -0.0778
 1799W        W44893  17.978  11.835   6.986  0.0558 -0.0304  0.1133
 1800W        W44894  17.496  12.879   3.413  0.1680 -0.1975 -0.1085
 1801W        W44895  15.134  13.332   4.541  0.0566 -0.1094  0.2681
 1802W        W44896  14.687  13.227   3.492  0.2632 -0.3095  0.0578
 1803W        W44897  16.274  11.607   5.006  0.0978  0.2046  0.0178
 1804W        W44898  17.368  15.222   5.284  0.1832 -0.0389 -0.1010
 1805W        W44899  15.618  13.884   1.673 -0.1311  0.0290  0.0231
 1806W        W44900  16.462  13.768   4.935  0.1379  0.3050  0.0552
 1807W        W44901  16.464  16.272   2.529  0.0363  0.0668 -0.0106
 1808W        W44902  18.264  11.785   5.138 -0.0062  0.3103  0.1306
 1809W        W44903  15.704  13.787   5.408 -0.1658  0.0634  0.0472
 1810W        W44904  15.357  11.847   3.435  0.0944 -0.4884  0.0948
 1811W        W44905  13.947  12.065   3.712 -0.0689  0.1049 -0.0164
 1812W        W44906  16.514  12.243   6.120 -0.3144  0.1740  0.2451
 1813W        W44907  16.418  14.206   3.312 -0.3308 -0.0002 -0.3178
 1814W        W44908  14.646  11.064   6.428 -0.2735 -0.1191 -0.2142
 1815W        W44909  17.468  11.213   5.862 -0.1053  0.1959  0.1561
 1816W        W44910  15.871  15.525   5.351  0.2004  0.0161  0.4051
 1817W        W44911  15.793  13.188   5.629 -0.1568  0.0122  0.0438
 1818W        W44912  16.904  11.067   3.967  0.3578 -0.0014  0.1635
 1819W        W44913  16.362  14.447   5.640  0.0884  0.1419 -0.1825
 1820W        W44914  15.385  11.520   5.968  0.0995  0.1490  0.1247
 1821W        W44915  14.388  11.394   4.674  0.0781  0.0322 -0.1324
 1822W        W44916  17.942  13.667   5.821  0.2752  0.0040  0.1202
 1823W        W44917  17.302  12.897   5.801  0.0550  0.0987 -0.0246
 1824W        W44918  13.814  13.169   4.172 -0.1310 -0.0592 -0.0953
 1825W        W44919  15.403  14.245   6.403  0.0053  0.1099  0.0730
 1826W        W44920  15.239  12.299   3.547  0.0300 -0.1548  0.2423
 1827W        W44921  15.722  14.322   4.308 -0.1090  0.0609 -0.1219
 1828W        W44922  16.076  13.491   5.220 -0.0444  0.0884 -0.2706
 1829W        W44923  16.499  14.013   4.422  0.0159  0.2798 -0.2116
 1830W        W44924  15.849  13.012   5.106 -0.0255 -0.0836 -0.0981
 1831W        W44925  13.879  11.208   4.473 -0.2618 -0.0821  0.2867
 1832W        W44926  17.033  13.101   4.004 -0.0604  0.2295 -0.1860
 1833W        W44927  16.927  12.574   5.378  0.1524  0.1204 -0.1412
 1834W        W44928  15.170  13.056   5.756 -0.0442  0.2328  0.1256
 1835W        W44929  15.883  14.416   7.492  0.1011  0.1001 -0.5565
 1836W        W44930  17.040  11.688   5.776  0.1143 -0.1986  0.4387
 1837W        W44931  18.617  15.325   2.796 -0.1312  0.2085 -0.0392
 1838W        W44932  17.357  13.384   5.159  0.0433  0.2339 -0.3007
 1839W        W44933  15.072  14.708   4.178  0.2837  0.4172 -0.2721
 1840W        W44934  13.515  13.317   6.295  0.3243 -0.3028  0.2874
 1841W        W44935  15.613  12.799   2.580 -0.0214 -0.1709 -0.0572
 1842W        W44936  15.596  12.359   6.049 -0.1528  0.0043  0.0195
 1843W        W44937  15.225  13.669   4.963  0.3097  0.0392  0.3764
 1844W        W44938  14.472  12.030   2.634  0.1929 -0.0155 -0.2767
 1845W        W44939  14.141  13.339   6.876 -0.0209  0.2218  0.2959
 1846W        W44940  17.149  12.992   4.929  0.0648 -0.1381 -0.1793
 1847W        W44941  15.665  13.247   2.877 -0.0253  0.0136 -0.1065
 1848W        W44942  16.309  12.083   5.003 -0.2933  0.1254  0.0465
 1849W        W44943  18.528  11.731   4.672  0.0521 -0.0596 -0.1366
 1850W        W44944  17.699  13.454   3.218  0.0691  0.1324 -0.0504
 1851W        W44945  16.700  11.227   7.151 -0.0750  0.2100  0.2075
 1852W        W44946  15.532  10.960   6.333 -0.0171  0.2785 -0.3265
 1853W        W44947  17.522  13.933   3.940 -0.4979 -0.1091  0.1328
 1854W        W44948  13.534  13.225   5.778 -0.0291 -0.1289 -0.1007
 1855W        W44949  17.308  14.447   7.590 -0.0327  0.1658  0.0130
 1856W        W44950  13.729  12.391   7.369 -0.3700  0.1634  0.2808
 1857W        W44951  16.703  10.877   4.820  0.1356 -0.0258  0.0591
 1858W        W44952  15.062  11.032   2.921 -0.0038 -0.1480  0.0257
 1859W        W44953  15.929  14.358   4.742 -0.1169  0.0003 -0.0439
 1860W        W44954  18.029  13.222   4.444 -0.2500 -0.3245 -0.0846
 1861W        W44955  15.482  12.762   3.579  0.2810 -0.3022  0.0903
 1862W        W44956  18.727  13.306   6.221 -0.0031 -0.0123 -0.0141
 1863W        W44957  14.829  14.264   4.693 -0.0973 -0.2748  0.2286
 1864W        W44958  16.906  11.936   4.130  0.3717  0.0101 -0.1988
 1865W        W44959  14.974  12.819   3.678 -0.1479  0.1530 -0.0448
 1866W        W44960  16.415  14.836   4.762 -0.0309 -0.0299 -0.1367
 1867W        W44961  14.745  11.041   5.919 -0.3807  0.0406  0.2080
 1868W        W44962  18.479  12.404   4.397  0.0035 -0.1583  0.2050
 1869W        W44963  16.667  11.962   5.754 -0.2053  0.1211 -0.3474
 1870W        W44964  15.973  12.492   6.637 -0.0638  0.0387 -0.0282
 1871W        W44965  16.315  12.791   5.244 -0.3125 -0.0870  0.4651
 1872W        W44966  15.240  12.724   6.122 -0.0904  0.2934 -0.0499
 1873W        W44967  15.500  10.187   7.624  0.3067  0.0002  0.1157
 1874W        W44968  18.120  15.536   5.788  0.0057 -0.1503  0.1047
 1875W        W44969  16.215  13.043   3.362  0.0474  0.1442  0.3446
 1876W        W44970  18.066  13.144   5.794 -0.2468 -0.1196 -0.1921
 1877W        W44971  18.476  12.924   4.317 -0.1595 -0.2317 -0.0084
 1878W        W44972  17.348  13.681   2.933  0.0358  0.3677 -0.3165
 1879W        W44973  13.507  12.232   6.011  0.0005 -0.0499  0.1813
 1880W        W44974  17.498  12.647   6.179  0.2944 -0.1007  0.0101
 1881W        W44975  14.665  12.436   2.915  0.0038 -0.0160 -0.1006
 1882W        W44976  17.876  11.532   6.031 -0.0788  0.0209 -0.1065
 1883W        W44977  16.028  14.543   3.954  0.0712 -0.0641 -0.1177
 1884W        W44978  16.795  13.314   4.382 -0.3252  0.1556 -0.0408
 1885W        W44979  16.798  11.934   4.873  0.1798 -0.2116  0.1164
 1886W        W44980  13.552  12.004   4.628 -0.2046  0.0240 -0.2404
 1887W        W44981  14.695  14.402   6.141 -0.0140  0.0700  0.1190
 1888W        W44982  14.591  11.927   2.007  0.1844  0.0470 -0.0169
 1889W        W44983  14.960  12.778   2.087 -0.1854 -0.2402  0.3307
 1890W        W44984  17.270  14.675   5.257  0.1392 -0.1697 -0.1565
 1891W        W44985  16.650  14.105   5.837 -0.2666 -0.0970  0.1291
 1892W        W44986  16.503  10.889   3.058  0.1918 -0.3593  0.2559
 1893W        W44987  17.621  14.445   5.559  0.0817 -0.1179 -0.3215
 1894W        W44988  15.588  14.129   3.385 -0.0480  0.1794  0.2007
 1895W        W44989  15.346  11.790   4.441 -0.3573 -0.0388  0.2734
 1896W        W44990  16.304  15.716   5.071  0.1230 -0.0782 -0.1357
 1897W        W44991  15.000  13.469   5.482  0.1773  0.0227 -0.0553
 1898W        W44992  15.915  14.844   4.643 -0.0863 -0.0304 -0.1571
 1899W        W44993  17.138  11.324   6.864  0.1747 -0.0504  0.0603
 1900W        W44994  17.846  13.473   4.817 -0.1366  0.2944  0.2687
 1901W        W44995  15.997  13.247   3.787 -0.2283 -0.1209  0.2399
 1902W        W44996  17.528  14.311   4.714  0.4285  0.1194 -0.0808
 1903W        W44997  15.434  14.062   7.318 -0.0348 -0.0588 -0.0378
 1904W        W44998  16.107  12.917   4.168  0.1304 -0.1439 -0.0823
 1905W        W44999  15.910  14.497   6.083  0.1663 -0.0250  0.1015
 1906W        W45000  19.011  13.689   4.668  0.3709 -0.2970  0.1512
 1907W        W45001  15.727  13.850   3.857 -0.0325 -0.1506 -0.1729
 1908W        W45002  12.406  12.641   7.718 -0.3416  0.1307 -0.2495
 1909W        W45003  17.199  12.600   7.936 -0.2361 -0.0722  0.2017
 1910W        W45004  17.077  12.956   4.487 -0.3307  0.0790  0.2509
 1911W        W45005  16.389  11.676   3.630  0.0821  0.0268 -0.4334
 1912W        W45006  16.392  15.228   2.153  0.0275  0.0239  0.1981
 1913W        W45007  15.268  13.214   6.209  0.1608  0.4013 -0.0599
 1914W        W45008  14.965  12.591   4.768 -0.0878 -0.1074  0.0111
 1915W        W45009  15.351  13.553   4.169  0.0989 -0.0547  0.0699
 1916W        W45010  15.611  13.602   3.199  0.0573 -0.1482  0.1054
 1917W        W45011  16.148  14.025   4.047  0.5137 -0.0260 -0.0226
 1918W        W45012  17.536  13.841   4.526 -0.3024 -0.4276  0.0699
 1919W        W45013  15.462  11.996   3.914 -0.1917  0.0843  0.0472
 1920W        W45014  15.778  14.672   3.414  0.0564  0.0506 -0.0666
 1921W        W45015  14.689  14.201   3.665 -0.1518  0.0700  0.0138
 1922W        W45016  17.204  14.522   2.442 -0.1643  0.4296  0.0072
 1923W        W45017  15.503  13.444   3.714 -0.1681 -0.0183 -0.1713
 1924W        W45018  17.103  13.934   4.815  0.0695  0.0191 -0.2129
 1925W        W45019  18.237  12.627   3.534 -0.2467 -0.2562  0.0783
 1926W        W45020  17.905  13.489   5.266  0.5425  0.2248  0.2530
 1927W        W45021  17.721  13.198   4.041 -0.0814 -0.0667  0.0161
 1928W        W45022  15.768  13.430   6.081  0.1148  0.0766 -0.2202
 1929W        W45023  16.378  12.531   4.046  0.2910  0.0550  0.1594
 1930W        W45024  16.193  12.183   3.664  0.2562  0.1676  0.2305
 1931W        W45025  14.608  13.099   6.758 -0.2352 -0.0142  0.3845
 1932W        W45026  17.820  11.517   5.246 -0.1871  0.0269  0.1080
 1933W        W45027  14.951  14.212   5.175 -0.2271 -0.1852  0.0319
 1934W        W45028  17.557  14.619   2.808  0.1106  0.1865  0.2317
 1935W        W45029  14.540  12.613   5.400  0.0089  0.0423  0.2343
 1936W        W45030  15.887  11.636   4.619 -0.3067  0.0084 -0.2179
 1937W        W45031  19.529  11.194   5.756  0.0694 -0.0384 -0.0358
 1938W        W45032  16.571  14.771   3.967  0.1055  0.3725 -0.1243
 1939W        W45033  17.433  12.803   5.251  0.1114  0.0854 -0.0175
 1940W        W45034  15.400  14.891   3.659 -0.0485  0.0422 -0.2743
 1941W        W45035  15.718  13.462   4.842 -0.0356  0.1564 -0.2640
 1942W        W45036  16.458  15.224   5.238  0.0458 -0.1520 -0.2977
 1943W        W45037  14.054  11.071   4.900 -0.1600 -0.1404  0.2482
 1944W        W45038  19.508  12.945   3.595 -0.1532  0.0383 -0.0580
 1945W        W45039  14.304  12.900   6.331 -0.2441 -0.1487 -0.1606
 1946W        W45040  18.107  11.815   5.636  0.0792 -0.1382  0.0617
 1947W        W45041  14.967  11.859   4.118  0.2158 -0.0457 -0.2437
 1948W        W45042  17.186  12.490   4.254  0.1096  0.2192  0.1269
 1949W        W45043  16.508  13.247   5.342 -0.2442 -0.2513 -0.2248
 1950W        W45044  15.454  12.777   5.349  0.0740 -0.1347 -0.1052
 1951W        W45045  14.464  12.800   3.764 -0.1049 -0.0272  0.0500
 1952W        W45046  18.356  13.557   5.483  0.0817 -0.0239  0.0178
 1953W        W45047  16.817  11.390   4.925  0.0180 -0.0048  0.1330
 1954W        W45048  18.240  14.509   6.978 -0.1333  0.0462  0.0280
 1955W        W45049  14.929  11.925   4.779  0.2323 -0.1914 -0.0247
 1956W        W45050  17.586  12.141   4.224  0.1690  0.3572  0.0860
 1957W        W45051  14.292  13.026   4.349 -0.1929  0.0487 -0.2255
 1958W        W45052  14.458  11.539   6.391 -0.0089 -0.3616  0.0538
 1959W        W45053  17.773  14.033   6.746  0.1008  0.1441 -0.2371
 1960W        W45054  15.112  11.215   3.449 -0.1143 -0.1201  0.0636
 1961W        W45055  16.823  13.875   2.765  0.1847  0.0697 -0.0630
 1962W        W45056  16.780  13.159   5.864 -0.0904 -0.3590 -0.0576
 1963W        W45057  15.187  13.856   2.060  0.3767 -0.2369  0.1121
 1964W        W45058  18.275  14.324   4.984  0.0011 -0.2631 -0.2533
 1965W        W45059  17.797  14.334   5.131  0.1018 -0.1333 -0.1243
 1966W        W45060  14.074  12.009   5.953  0.0230  0.1312 -0.1547
 1967W        W45061  17.128  14.165   4.387 -0.0432  0.1780  0.1474
 1968W        W45062  18.556  13.997   5.305 -0.1621  0.3207  0.0219
 1969W        W45063  15.886  10.529   5.091  0.2058 -0.0574  0.0722
 1970W        W45064  15.279  13.019   4.923  0.0962  0.0864 -0.2338
 1971W        W45065  14.395  13.321   3.913 -0.0906 -0.1320  0.0700
 1972W        W45066  17.507  13.791   5.572  0.0834 -0.1173 -0.0937
 1973W        W45067  17.807  11.942   6.506  0.3940  0.2656 -0.0018
 1974W        W45068  15.872  14.123   2.481  0.2065 -0.0435  0.0740
 1975W        W45069  18.374  11.620   6.040 -0.0944  0.1174 -0.1050
 1976W        W45070  17.062  14.523   5.683 -0.0671  0.2889  0.2316
 1977W        W45071  14.579  12.693   7.580 -0.0909  0.0610 -0.0314
 1978W        W45072  14.964  12.879   5.302  0.1407 -0.0663  0.2810
 1979W        W45073  16.764  13.743   7.653  0.1965  0.1306  0.0132
 1980W        W45074  15.733  13.141   3.377  0.0449 -0.2263  0.0892
 1981W        W45075  15.936  15.218   2.346 -0.0676 -0.1353  0.1060
 1982W        W45076  17.203  13.458   4.702 -0.0444 -0.0865 -0.0105
 1983W        W45077  15.987  12.472   5.119  0.2284  0.3874  0.1701
 1984W        W45078  18.244  13.412   3.941  0.1509  0.1213  0.0364
 1985W        W45079  15.239  11.139   4.387  0.1361  0.1610  0.1801
 1986W        W45080  17.766  11.046   5.024 -0.2843 -0.3353 -0.0013
 1987W        W45081  17.815  11.990   4.666 -0.0678 -0.1365 -0.3672
 1988W        W45082  15.431  13.290   5.327  0.0131 -0.0391  0.0588
 1989W        W45083  14.182  13.051   5.624  0.3170  0.0207 -0.1881
 1990W        W45084  15.208  13.450   2.922  0.1749 -0.4215 -0.0035
 1991W        W45085  15.593  12.987   4.023 -0.1694  0.0033  0.0399
 1992W        W45086  16.878  11.761   6.698  0.4303 -0.0359  0.0628
 1993W        W45087  14.133  11.625   6.773  0.1719 -0.3038 -0.1978
 1994W        W45088  14.775  11.379   4.242 -0.1719  0.0138  0.2476
 1995W        W45089  13.679  12.012   5.135 -0.0233 -0.0147  0.0422
 1996W        W45090  17.042  14.569   3.925  0.0017  0.3083  0.2898
 1997W        W45091  14.143  10.816   5.868  0.0629 -0.0925  0.1763
 1998W        W45092  14.158  10.401   4.090  0.1786 -0.0758  0.3721
 1999W        W45093  16.168  12.763   4.711  0.2679  0.0101  0.5418
 2000W        W45094  17.935  14.693   3.858 -0.1426 -0.1237 -0.1476
 2001W        W45095  16.131  11.543   4.080  0.0998  0.1291 -0.0287
 2002W        W45096  19.523  15.268   6.322  0.1843  0.0347  0.1020
 2003W        W45097  15.933  13.204   2.453 -0.0698  0.0737 -0.1047
 2004W        W45098  15.714  13.407   6.690  0.1564  0.0248  0.3711
 2005W        W45099  17.658  11.263   8.136 -0.0126 -0.0042  0.2603
 2006W        W45100  13.973  11.730   3.136  0.0085  0.1403 -0.1064
 2007W        W45101  15.509  13.888   4.534 -0.0678  0.1144 -0.1000
 2008W        W45102  17.530  15.691   4.389 -0.1250  0.0435 -0.1068
 2009W        W45103  16.865  15.303   2.468  0.3335  0.2196 -0.0936
 2010W        W45104  15.235  13.012   7.581 -0.3798 -0.2817  0.0445
 2011W        W45105  17.011  14.310   6.753 -0.1273 -0.0925 -0.0183
 2012W        W45106  14.525  10.668   6.209  0.1593  0.1705 -0.0946
 2013W        W45107  15.968  13.563   4.207 -0.2230 -0.0484 -0.0227
 2014W        W45108  15.386  14.791   6.353 -0.1928 -0.1152  0.1313
 2015W        W45109  18.167  13.250   2.898 -0.1295  0.0994  0.0987
 2016W        W45110  18.875  10.741   4.331  0.2101  0.1291  0.0675
 2017W        W45111  16.523  12.972   3.788 -0.0333  0.1872  0.0382
 2018W        W45112  15.884  11.591   7.193 -0.0275  0.0800  0.0258
 2019W        W45113  14.800  12.984   6.257  0.2941 -0.4554 -0.0129
 2020W        W45114  16.854  13.406   5.047 -0.0336  0.0130  0.0848
 2021W        W45115  15.050  10.069   4.982  0.3847 -0.1385 -0.0640
 2022W        W45116  17.566  11.735   5.672 -0.4609  0.0054  0.2179
 2023W        W45117  17.806  14.613   3.351 -0.0208  0.0238  0.1350
 2024W        W45118  16.061  12.273   5.660  0.0346 -0.0347 -0.1606
 2025W        W45119  16.660  12.068   3.186 -0.0330 -0.3595  0.0422
 2026W        W45120  17.602  13.111   6.095  0.4286  0.1511 -0.2619
 2027W        W45121  18.148  14.071   2.625  0.3016 -0.0751 -0.2653
 2028W        W45122  16.138  13.549   6.458 -0.1262 -0.1956 -0.0864
 2029W        W45123  15.856  12.253   4.701 -0.0192 -0.1008 -0.1474
 2030W        W45124  17.051  13.893   1.960  0.2298  0.1796  0.0162
 2031W        W45125  17.879  14.822   5.327 -0.3400  0.0423  0.4140
 2032W        W45126  17.577  14.958   5.739  0.0993  0.0251  0.0008
 2033W        W45127  14.204  14.755   6.133  0.3264 -0.0818 -0.1065
 2034W        W45128  16.444  13.414   4.086  0.1129 -0.1448  0.2265
 2035W        W45129  15.088  10.953   4.835 -0.1769 -0.2180  0.0877
 2036W        W45130  14.669  12.837   2.588  0.0716  0.0908 -0.4000
 2037W        W45131  16.003  12.704   3.694 -0.2406 -0.4473 -0.1055
 2038W        W45132  16.757  11.654   6.215  0.2094  0.2157  0.0930
 2039W        W45133  14.682  12.107   5.489 -0.0426 -0.0090 -0.2169
 2040W        W45134  17.269  12.721   3.818 -0.0666  0.3201 -0.2345
 2041W        W45135  16.312  14.948   5.660 -0.0843 -0.1201  0.0533
 2042W        W45136  16.166  14.003   5.900 -0.1872 -0.0494 -0.0375
 2043W        W45137  15.334  12.957   9.423  0.2216 -0.0494  0.0025
 2044W        W45138  16.419  12.376   7.865 -0.1705  0.0714 -0.3177
 2045W        W45139  18.047  11.365   7.000 -0.1246 -0.0226  0.0078
 2046W        W45140  17.409  13.562   7.821 -0.2706  0.0986 -0.0896
 2047W        W45141  14.406  11.112   8.642 -0.1235  0.1367 -0.0199
 2048W        W45142  17.654  14.827   6.374  0.0209  0.1619  0.1320
 2049W        W45143  16.931  11.858   9.609  0.2627  0.2153  0.1397
 2050W        W45144  17.263  15.108   8.306 -0.0492 -0.3022  0.3791
 2051W        W45145  16.408  13.581   7.353 -0.0862 -0.0991  0.2876
 2052W        W45146  16.440  11.741   9.409 -0.1867 -0.2696  0.2369
 2053W        W45147  16.778  12.185   7.499  0.1174  0.1492 -0.3905
 2054W        W45148  15.670  10.522   9.363  0.1534  0.1708  0.0244
 2055W        W45149  17.387  14.644   8.125  0.1025  0.2849 -0.2585
 2056W        W45150  15.696  12.586   8.488 -0.2215  0.1319  0.0353
 2057W        W45151  17.330  12.365   6.680  0.1125  0.0355 -0.0792
 2058W        W45152  16.042  12.003   7.770  0.1601  0.2769 -0.2188
 2059W        W45153  15.970  13.800   7.388 -0.2288  0.0187  0.0187
 2060W        W45154  16.715  11.310   8.472 -0.1130  0.3618 -0.2385
 2061W        W45155  16.542  13.265   6.351 -0.1225  0.2174  0.3735
 2062W        W45156  15.111  12.250   6.173 -0.1450  0.1634 -0.1473
 2063W        W45157  15.941  12.429   8.912  0.3022 -0.0248  0.1001
 2064W        W45158  17.247  12.155   8.374  0.1441  0.0816 -0.0709
 2065W        W45159  17.962  11.965   8.223  0.3666  0.1684 -0.4148
 2066W        W45160  16.736  13.190   7.616  0.2302  0.4829 -0.0543
 2067W        W45161  16.428  14.936   7.836 -0.0725  0.1402 -0.1898
 2068W        W45162  15.788  14.148   8.323  0.0696 -0.2059 -0.0821
 2069W        W45163  14.115  13.304   8.294 -0.2946 -0.3198 -0.1869
 2070W        W45164  13.816  14.081   8.584  0.3911  0.0552 -0.1237
 2071W        W45165  17.013  13.748   6.198 -0.1701 -0.3917  0.0495
 2072W        W45166  17.733  13.986   8.617  0.0208  0.1633 -0.0779
 2073W        W45167  14.847  13.791   7.941 -0.0713  0.2891  0.2219
 2074W        W45168  16.963  14.370   8.222 -0.5962  0.1565  0.1646
 2075W        W45169  16.933  13.430   6.634  0.1060  0.0614 -0.1995
 2076W        W45170  15.112  13.539   7.463 -0.0429  0.3572 -0.0869
 2077W        W45171  16.176  14.602   7.117  0.0728  0.0997  0.2732
 2078W        W45172  14.420  12.364   9.977 -0.1834  0.1011  0.4287
 2079W        W45173  15.312  13.330   7.956 -0.3131 -0.1522 -0.0503
 2080W        W45174  16.682  12.714   6.207  0.0409  0.0054  0.0657
 2081W        W45175  14.663  12.003   6.954 -0.1199 -0.2877 -0.6373
 2082W        W45176  17.690  12.236   7.015  0.1646  0.0778 -0.0162
 2083W        W45177  15.756  11.199   8.204  0.0344  0.1307 -0.2746
 2084W        W45178  15.796  15.641   8.394  0.1312 -0.1300  0.2220
 2085W        W45179  17.269  12.710   9.510 -0.1514 -0.4933 -0.2834
 2086W        W45180  17.475  13.191   8.137  0.1894  0.1561 -0.0396
 2087W        W45181  17.216  11.289   8.807 -0.0546 -0.0510  0.2249
 2088W        W45182  14.614  14.396   8.686  0.0279 -0.2044  0.0523
 2089W        W45183  17.624  13.687   9.217 -0.2163 -0.0163  0.0578
 2090W        W45184  18.025  14.004   6.231  0.3382 -0.3021  0.0093
 2091W        W45185  19.473  14.031   8.319 -0.0035  0.1702 -0.0210
 2092W        W45186  17.230  14.640   7.107 -0.1089 -0.6104  0.3196
 2093W        W45187  13.804  11.706   8.504 -0.1835  0.1622  0.1006
 2094W        W45188  15.787  11.027   6.834  0.2407 -0.3113  0.0920
 2095W        W45189  19.502  11.996   6.824 -0.1071  0.0084  0.0569
 2096W        W45190  18.038  13.542   8.781  0.0248  0.0730  0.0615
 2097W        W45191  18.109  13.992   9.067 -0.1601  0.1360  0.0660
 2098W        W45192  16.032  13.851   6.858  0.1040 -0.1108 -0.1655
 2099W        W45193  17.442  10.150   8.943 -0.1429 -0.2440 -0.2965
 2100W        W45194  14.779  13.923   8.681  0.0244 -0.2600 -0.2645
 2101W        W45195  14.695  12.640   7.095 -0.0444  0.1614 -0.3372
 2102W        W45196  16.230  12.533   7.056 -0.1889 -0.0543 -0.0087
 2103W        W45197  16.068  13.825   9.645  0.2035 -0.0202  0.2292
 2104W        W45198  17.788  13.186   6.773 -0.1250  0.1263 -0.1747
 2105W        W45199  15.513  14.799   8.860 -0.0478  0.1264  0.2557
 2106W        W45200  15.526  13.595   7.130 -0.2199 -0.0201 -0.1251
 2107W        W45201  14.735  12.493   9.561  0.2245 -0.5020 -0.2574
 2108W        W45202  15.890  13.974   7.823 -0.1398 -0.1932  0.3728
 2109W        W45203  15.333   8.351   9.009 -0.1420  0.0718 -0.0155
 2110W        W45204  15.011  12.678   8.639  0.1475  0.2403 -0.0723
 2111W        W45205  17.807  11.947   7.724 -0.2647 -0.2008  0.2434
 2112W        W45206  18.255  10.740   7.008 -0.1452 -0.1075 -0.1426
 2113W        W45207  12.988  12.985   9.513 -0.1133 -0.1867  0.0100
 2114W        W45208  18.355  14.244   8.584 -0.3202  0.0017 -0.0622
 2115W        W45209  17.187  13.444   7.356  0.1656 -0.1453 -0.3001
 2116W        W45210  16.990  13.633   5.467  0.1707 -0.0649  0.2127
 2117W        W45211  14.694   8.837  10.234 -0.4951 -0.3454 -0.2331
 2118W        W45212  16.180  10.229   8.545 -0.4887  0.2380  0.2490
 2119W        W45213  16.056  12.079   9.358  0.0096 -0.0332 -0.2553
 2120W        W45214  15.874  10.626   6.488  0.1227  0.0382 -0.0147
 2121W        W45215  17.278  12.649   7.133  0.0960 -0.0693 -0.0168
 2122W        W45216  16.753  12.707   7.592  0.0733  0.1152 -0.1299
 2123W        W45217  15.070  12.300   8.329  0.0321 -0.2219 -0.3054
 2124W        W45218  17.865  14.655   7.915 -0.0395 -0.2063 -0.1312
 2125W        W45219  18.298  15.667   8.685  0.0269  0.0085 -0.0600
 2126W        W45220  17.238  13.884   8.739 -0.1523 -0.0253 -0.4891
 2127W        W45221  17.670  11.481   9.583 -0.0137 -0.0966 -0.2753
 2128W        W45222  16.120  12.646   7.572 -0.0273  0.1427  0.4679
 2129W        W45223  15.094  14.481   8.724  0.4414  0.3456 -0.0145
 2130W        W45224  16.041  12.904   8.695  0.1675 -0.0394 -0.1314
 2131W        W45225  15.773  11.905   5.776  0.0794  0.2642  0.0142
 2132W        W45226  17.944  13.222   9.129  0.0920  0.0516  0.0515
 2133W        W45227  17.446  14.201   9.149 -0.0736  0.1277  0.2773
 2134W        W45228  17.189  13.161   8.588  0.0499  0.0829  0.2889
 2135W        W45229  16.791  12.788   8.124  0.2294 -0.3602 -0.1512
 2136W        W45230  15.650  11.021   5.430 -0.3097  0.3378 -0.0392
 2137W        W45231  16.280  14.274   6.718 -0.1222 -0.2060  0.0049
 2138W        W45232  15.018  13.997   5.996 -0.2403  0.1271  0.1115
 2139W        W45233  14.955  11.814   8.180  0.0691 -0.0277 -0.0790
 2140W        W45234  15.730  14.776   7.002 -0.0950  0.0152 -0.0567
 2141W        W45235  17.898  12.772   8.295  0.0249  0.0389 -0.1602
 2142W        W45236  15.536  12.931   6.593 -0.0703  0.0921  0.0940
 2143W        W45237  18.312  10.645   7.736 -0.0426  0.0080 -0.0801
 2144W        W45238  18.683  12.293   6.333 -0.2404 -0.0224  0.0450
 2145W        W45239  18.423  13.357   6.627  0.3315  0.2616  0.0893
 2146W        W45240  18.056  13.058   6.360 -0.1503  0.0205  0.0220
 2147W        W45241  17.496  11.785   7.231 -0.1523  0.0513 -0.0316
 2148W        W45242  16.858  13.432   8.913  0.0252 -0.0002 -0.0737
 2149W        W45243  15.383  15.118   9.333  0.0653 -0.0438  0.2554
 2150W        W45244  16.770  11.684   7.288  0.1479 -0.0926  0.0404
 2151W        W45245  17.556  15.827   6.412 -0.0908  0.0904 -0.0442
 2152W        W45246  15.035  11.998   9.608 -0.1278 -0.0259  0.2064
 2153W        W45247  15.958  14.716   7.905  0.2077 -0.0866  0.2870
 2154W        W45248  18.026  10.191   9.268 -0.0640  0.1243 -0.1657
 2155W        W45249  15.937  13.228   7.441 -0.0533  0.0385 -0.1654
 2156W        W45250  16.962  10.082   8.760 -0.1319  0.0253  0.0765
 2157W        W45251  16.405  13.570   5.991  0.2236 -0.1788 -0.1744
 2158W        W45252  17.712  14.474   8.512  0.0072 -0.0520 -0.0258
 2159W        W45253  17.880  13.202   7.854 -0.0774 -0.1269  0.0995
 2160W        W45254  16.865  12.250   8.055 -0.2188 -0.2679 -0.0278
 2161W        W45255  16.441  12.529   8.782  0.2117 -0.0075 -0.2592
 2162W        W45256  15.417  12.746   8.035  0.1094 -0.1161  0.0917
 2163W        W45257  17.509  10.845   8.670 -0.0831  0.0907  0.1394
 2164W        W45258  15.530  14.759   9.692  0.3629 -0.1890 -0.1379
 2165W        W45259  16.404  14.115   7.252  0.1874 -0.0337  0.1103
 2166W        W45260  16.903  12.223   6.508  0.4173  0.2870 -0.0379
 2167W        W45261  15.588  15.305   7.138  0.0181 -0.0155 -0.2056
 2168W        W45262  15.140  13.310   6.761  0.3224  0.4769 -0.2770
 2169W        W45263  16.773  11.511   8.945  0.0553  0.0152 -0.0355
 2170W        W45264  15.231  14.935   8.483 -0.1344 -0.2631 -0.1575
 2171W        W45265  16.041  13.780   4.630  0.0649 -0.0468 -0.1986
 2172W        W45266  18.468  11.856   8.594  0.0175 -0.0051 -0.2042
 2173W        W45267  15.117  13.058   8.352  0.0505 -0.1854  0.0214
 2174W        W45268  18.007  11.620   7.429 -0.4955 -0.0743 -0.0036
 2175W        W45269  14.640  13.654   9.116  0.1734  0.0814 -0.2030
 2176W        W45270  15.954  12.639   8.076  0.0436  0.2416 -0.1990
 2177W        W45271  15.650  12.251   7.863 -0.0814 -0.3000  0.0953
 2178W        W45272  16.414  13.485   9.701 -0.2311  0.2025 -0.0709
 2179W        W45273  16.588  13.751   6.899 -0.1762 -0.3117 -0.1520
 2180W        W45274  14.986   9.238   9.999  0.2594 -0.0606 -0.1422
 2181W        W45275  17.124  11.833   8.770  0.0420 -0.1306  0.5854
 2182W        W45276  16.526  15.665   9.359 -0.1410  0.1650 -0.1579
 2183W        W45277  18.679  11.295   6.433  0.2557  0.0371 -0.1108
 2184W        W45278  15.135  12.506   7.709  0.1085 -0.0327  0.0062
 2185W        W45279  17.754  12.281   9.023  0.0107 -0.0689  0.0835
 2186W        W45280  15.657  12.002   9.019  0.0588  0.2293 -0.0463
 2187W        W45281  14.050  13.054   8.747 -0.2448  0.2412 -0.0530
 2188W        W45282  16.977  13.593   8.428  0.1082  0.0034  0.0723
 2189W        W45283  15.629  12.726   7.538  0.0596  0.2135  0.1723
 2190W        W45284  15.811  13.067   7.890  0.1128 -0.0379  0.2750
 2191W        W45285  18.271  11.382   8.886 -0.0555  0.0967 -0.0122
 2192W        W45286  17.739  11.284   8.790  0.1661 -0.1608 -0.2142
 2193W        W45287  15.850  12.232   7.360 -0.0053  0.1360 -0.3118
 2194W        W45288  16.626  11.812   7.773  0.2808  0.1555 -0.0366
 2195W        W45289  15.930  14.292   9.273 -0.1325  0.4887 -0.0278
 2196W        W45290  19.589   8.068   9.519 -0.1939 -0.1069  0.0080
 2197W        W45291  17.261  11.474   8.358 -0.2597  0.2178  0.1500
 2198W        W45292  18.844  14.924   7.606 -0.0012 -0.0185  0.0741
 2199W        W45293  16.741  12.669   7.108 -0.1602 -0.0591  0.0816
 2200W        W45294  16.049  13.654   9.174  0.2157 -0.0790  0.4712
 2201W        W45295  16.826  14.286   7.694  0.0597 -0.2955 -0.0561
 2202W        W45296  15.996  10.956   9.674  0.0136  0.2860  0.2232
 2203W        W45297  14.980  13.350   9.339  0.0598 -0.0260 -0.0753
 2204W        W45298  15.643  13.536   7.660  0.1961  0.1774 -0.0947
 2205W        W45299  16.970  14.456   9.149  0.0021  0.0766  0.2219
 2206W        W45300  18.372  10.460   6.529  0.2367 -0.1948 -0.0095
 2207W        W45301  16.407  14.483   6.305  0.0131 -0.1251  0.0870
 2208W        W45302  16.626  12.056   8.980 -0.2075  0.2001  0.0564
 2209W        W45303  15.912  12.714   5.593 -0.0390 -0.3917 -0.0144
 2210W        W45304  16.288  13.276   9.098 -0.2149  0.0998 -0.0291
 2211W        W45305  18.159  14.899   7.604 -0.3573 -0.0412  0.3342
 2212W        W45306  15.561  11.909   6.818 -0.0134 -0.0795 -0.2587
 2213W        W45307  15.398  11.488   5.495 -0.1808 -0.0443 -0.2896
 2214W        W45308  15.784  15.177   9.114 -0.2087 -0.1938  0.0437
 2215W        W45309  17.842  12.759   8.858 -0.0010  0.3215  0.0015
 2216W        W45310  15.479  14.527   8.357  0.3496 -0.2867  0.0717
 2217W        W45311  17.726  12.315   8.490 -0.1680 -0.2532 -0.1317
 2218W        W45312  16.835  12.534   9.210 -0.0127  0.0669  0.2181
 2219W        W45313  16.993  13.247   8.091 -0.1484 -0.0550 -0.2663
 2220W        W45314  16.407  13.038   6.730  0.2479  0.1105 -0.0182
 2221W        W45315  15.829  13.332   8.754  0.0807 -0.0061  0.0023
 2222W        W45316  19.208  10.558   8.722  0.0774 -0.3773 -0.1329
 2223W        W45317  16.828  13.280   9.500 -0.1117  0.4279  0.1907
 2224W        W45318  18.180  14.717   8.436 -0.1616  0.1668  0.1331
 2225W        W45319  17.132  12.154   7.150 -0.2246 -0.0499 -0.3519
 2226W        W45320  16.900   9.778   9.386  0.1564  0.0034  0.0891
 2227W        W45321  17.178  12.983   7.537 -0.1561 -0.3508  0.4017
 2228W        W45322  16.723  13.268   7.074 -0.2206  0.1034 -0.2468
 2229W        W45323  17.449  11.683   9.127  0.3931 -0.2046 -0.0234
 2230W        W45324  16.089  12.081   6.872 -0.0241 -0.0684  0.1248
 2231W        W45325  15.140  14.360   7.770 -0.0232 -0.2523  0.0990
 2232W        W45326  16.011  13.075   6.441  0.1173 -0.3307 -0.0660
 2233W        W45327  17.657  13.209   7.246  0.1005  0.0440  0.2000
 2234W        W45328  14.709  11.732   9.344  0.0860 -0.0841 -0.2203
 2235W        W45329  15.948  10.967   7.382  0.1979 -0.2143 -0.2698
 2236W        W45330  15.445  13.050   7.050 -0.1022 -0.2461  0.0691
 2237W        W45331  16.552  13.680   9.254  0.0446 -0.0022  0.0594
 2238W        W45332  17.152  11.391   7.389  0.1769  0.1603  0.0721
 2239W        W45333  14.418  14.535   9.396  0.0254  0.0988  0.0359
 2240W        W45334  18.354  10.497   8.845 -0.2082  0.1615  0.1206
 2241W        W45335  14.110  14.258   8.923  0.1478  0.0823  0.2718
 2242W        W45336  15.091  14.096   8.263  0.2836 -0.1937 -0.1406
 2243W        W45337  17.326  10.360   8.519 -0.2778 -0.3115  0.1956
 2244W        W45338  17.260  13.270   9.240  0.0888 -0.1712  0.1488
 2245W        W45339  15.522  13.415   9.284  0.2395 -0.1554  0.4469
 2246W        W45340  15.385  13.447   8.563 -0.0310  0.3283  0.1089
 2247W        W45341  17.577  13.696   7.113 -0.1373  0.2485  0.1907
 2248W        W45342  16.336  13.013   7.893 -0.2622  0.0160 -0.1183
 2249W        W45343  15.432  14.403   9.156 -0.1523 -0.0829  0.0928
 2250W        W45344  16.185  10.348   8.048  0.0513 -0.1970  0.1218
 2251W        W45345  16.130  13.506   7.785 -0.2667 -0.0943 -0.0870
 2252W        W45346  11.971   8.793  11.982 -0.2044 -0.0512  0.2451
 2253W        W45347  14.422  13.597   8.076  0.0357  0.0033 -0.1323
 2254W        W45348  17.092  13.805   6.911 -0.4908  0.0480 -0.2544
 2255W        W45349  16.877  12.896   6.671 -0.1180 -0.0796 -0.0450
 2256W        W45350  16.615  14.024   8.354  0.0244  0.1553  0.2651
 2257W        W45351  15.711  12.933   6.086 -0.1857  0.2479 -0.1556
 2258W        W45352  15.620  15.220   8.638  0.1867 -0.2032  0.1412
 2259W        W45353  14.433  13.241   7.441  0.1397 -0.2491  0.1473
 2260W        W45354  16.993  14.352   6.227 -0.0369  0.0671  0.1179
 2261W        W45355  15.348  14.897   7.960  0.1738  0.1132  0.0260
 2262W        W45356  17.659  11.074   6.282  0.2081 -0.2978 -0.2633
 2263W        W45357  17.398  12.699   8.483  0.0213  0.2638 -0.1038
 2264W        W45358  17.128  11.886   7.659 -0.1150  0.1527 -0.1822
 2265W        W45359  17.485  13.479   8.776  0.0843  0.2727  0.0315
 2266W        W45360  15.449  12.426   6.512 -0.1223 -0.2996 -0.0578
 2267W        W45361  17.877  17.030   7.105  0.0100 -0.1851 -0.1833
 2268W        W45362  15.379  11.108   7.638  0.0472 -0.3493 -0.0399
 2269W        W45363  16.418  13.625   8.681 -0.3299  0.1016  0.2102
 2270W        W45364  18.148  12.372   8.050 -0.1139 -0.3227  0.0312
 2271W        W45365  16.070  12.523   6.102 -0.1287  0.0140 -0.0514
 2272W        W45366  16.789  12.982   9.067  0.0384 -0.3851 -0.3934
 2273W        W45367  15.141  15.146   7.456  0.0161  0.1766  0.1874
 2274W        W45368  16.772  13.959   8.811  0.2187  0.0838 -0.2372
 2275W        W45369  15.868  15.655  10.042  0.2645  0.1090 -0.0194
 2276W        W45370  15.192  11.128   8.150 -0.2188  0.2609 -0.0986
 2277W        W45371  17.626  12.783   7.770 -0.1069  0.0953  0.3017
 2278W        W45372  18.409  10.857   9.665  0.0844  0.1292 -0.0877
 2279W        W45373  15.829  12.940   9.139 -0.2029  0.0031  0.1096
 2280W        W45374  17.897  12.446   7.471 -0.0416 -0.4381 -0.1791
 2281W        W45375  14.526  12.900   8.906  0.0392 -0.1601 -0.2868
 2282W        W45376  16.392  12.710   9.204  0.1230  0.2174 -0.4641
 2283W        W45377  15.107  12.209   6.877  0.0390  0.3388  0.0874
 2284W        W45378  17.344  11.846   6.734 -0.1789  0.0083 -0.1266
 2285W        W45379  15.520  10.972   9.071  0.3448  0.1477 -0.0759
 2286W        W45380  17.176  13.132   6.979 -0.4093  0.1362  0.2166
 2287W        W45381  15.261  12.319   8.863  0.1865 -0.2350  0.2191
 2288W        W45382  19.190  12.643  11.681 -0.0495  0.2008 -0.2001
 2289W        W45383  13.806  12.101   9.068 -0.2157 -0.0160 -0.0346
 2290W        W45384  17.501  14.287   6.132 -0.0564  0.1386  0.3731
 2291W        W45385  18.084  11.501   8.430  0.1809 -0.0600  0.2473
 2292W        W45386  16.836  16.732   5.977 -0.0848 -0.1118 -0.0748
 2293W        W45387  16.899  14.185   7.232 -0.1754  0.0857 -0.0640
 2294W        W45388  16.382  14.521   7.585  0.0179  0.0025  0.0485
 2295W        W45389  15.134  11.455   9.566  0.2126  0.2425 -0.5869
 2296W        W45390  16.101  13.777   8.305  0.0201  0.1156 -0.3905
 2297W        W45391  18.277  14.304   9.479  0.1842 -0.2370  0.1951
 2298W        W45392  16.436  12.020   8.188 -0.1902 -0.0749  0.0718
 2299W        W45393  16.378  12.994   7.278  0.0844  0.2347  0.2922
 2300W        W45394  13.795  13.507   8.608  0.2039 -0.1436  0.1647
 2301W        W45395  17.960  10.958   8.446 -0.3170 -0.1045 -0.1169
 2302W        W45396  15.800  14.290   6.996 -0.3220 -0.0060 -0.0214
 2303W        W45397  14.902  14.253   9.130 -0.2353 -0.4619 -0.1916
 2304W        W45398  14.998  13.599   8.389  0.4183 -0.0846  0.2381
 2305W        W45399  16.381  14.043   7.821 -0.0888 -0.1457 -0.1591
 2306W        W45400  16.457  14.923   7.328 -0.3527  0.0081  0.0329
 2307W        W45401  15.166  13.692   9.031  0.2155 -0.2672  0.1036
 2308W        W45402  16.907  12.689   8.669 -0.0846 -0.3683 -0.4446
 2309W        W45403  17.664  16.367   8.768 -0.3445  0.0282 -0.2330
 2310W        W45404  16.553  11.250   9.309  0.1159  0.1232  0.1630
 2311W        W45405  18.680  11.170   7.717  0.1525  0.1795 -0.2706
 2312W        W45406  17.403  10.471   7.507 -0.1083  0.4751 -0.0147
 2313W        W45407  13.989  11.270  11.476  0.2109 -0.1694 -0.1112
 2314W        W45408  15.581  12.020   8.527  0.4288 -0.0444  0.0864
 2315W        W45409  15.508  13.871   6.699 -0.2976 -0.3490  0.0089
 2316W        W45410  15.167  11.876   9.116 -0.0033  0.1118  0.0250
 2317W        W45411  15.419  12.896   8.756  0.1792 -0.1918  0.3920
 2318W        W45412  15.159  11.929   7.730 -0.0870 -0.0000  0.0614
 2319W        W45413  18.039  14.409   7.481 -0.2715 -0.0294  0.0192
 2320W        W45414  15.416  11.671   8.074 -0.2408  0.2490 -0.0206
 2321W        W45415  15.985  11.528   9.716  0.1532  0.1512 -0.1759
 2322W        W45416  18.543  14.410   7.421  0.0711 -0.0039 -0.2340
 2323W        W45417  18.574  14.725   6.458  0.0673 -0.0452 -0.2768
 2324W        W45418  16.305  12.076   7.369  0.0150 -0.2493 -0.0938
 2325W        W45419  12.752  13.481   6.907 -0.1125  0.1162  0.0275
 2326W        W45420  15.439  11.416   7.285 -0.1724 -0.0908  0.0411
 2327W        W45421  16.250  11.339   8.777 -0.3586  0.4665  0.0100
 2328W        W45422  17.024  15.495   6.491  0.0407  0.0883 -0.0243
 2329W        W45423  17.883  15.230   6.113 -0.1396  0.1110 -0.1221
 2330W        W45424  15.655   9.568   8.801  0.1535  0.3588  0.0998
 2331W        W45425  17.429  13.452   6.454  0.2439  0.2293  0.0258
 2332W        W45426  20.262  16.328   5.974 -0.0830 -0.2285 -0.0828
 2333W        W45427  18.532  10.248   8.062  0.0775  0.2699 -0.4076
 2334W        W45428  19.210  15.203   5.876  0.0156 -0.1786 -0.0224
 2335W        W45429  18.062  10.906   9.029 -0.0746  0.1191 -0.1008
 2336W        W45430  14.431   9.203   9.880 -0.0048  0.0268  0.0588
 2337W        W45431  16.500  11.768   8.604 -0.1465 -0.2385  0.2451
 2338W        W45432  16.683  14.738   5.932  0.3263 -0.2937 -0.1685
 2339W        W45433  16.061  11.042   9.132  0.0736 -0.0089  0.1362
 2340W        W45434  16.506  12.537   6.641 -0.0595  0.1422 -0.1788
 2341W        W45435  15.290  14.012   8.691  0.1971 -0.1105 -0.1251
 2342W        W45436  15.595  12.472   7.002  0.0549 -0.0751  0.0086
 2343W        W45437  17.519  13.804   6.100 -0.1825 -0.1441  0.1151
 2344W        W45438  17.238  15.695   9.488  0.3668  0.0950 -0.1100
 2345W        W45439  15.053  14.799   9.165 -0.1156  0.1419  0.1486
 2346W        W45440  16.213  14.241   9.940 -0.3220 -0.5119  0.1165
 2347W        W45441  16.838  11.708   8.205  0.0608  0.0528  0.1920
 2348W        W45442  16.625  13.209   8.505 -0.1928  0.0750  0.1377
 2349W        W45443  16.559  13.517   8.064 -0.1966 -0.1527  0.1333
 2350W        W45444  17.595  11.788   8.568  0.1814  0.0243 -0.1455
 2351W        W45445  15.893  11.746   8.224 -0.2022  0.2714 -0.2462
 2352W        W45446  17.850  10.770   7.905 -0.1096  0.0264  0.3360
 2353W        W45447  16.369  16.598   8.706  0.2311  0.2424  0.0478
 2354W        W45448  17.306  13.940   7.538  0.1021  0.0340  0.0798
 2355W        W45449  15.926  16.191   2.466 -0.1029  0.0791 -0.3814
 2356W        W45450  15.485  15.614  31.323  0.2379  0.0349  0.1791
 2357W        W45451  17.646  14.607  29.446 -0.0778 -0.2340 -0.5416
 2358W        W45452  17.644  15.856  29.673 -0.0403 -0.1016 -0.0091
 2359W        W45453  14.811  16.172   1.383  0.0721  0.0259  0.0595
 2360W        W45454  17.877  17.690  28.987  0.2877 -0.1247 -0.2322
 2361W        W45455  14.382  13.698   2.139  0.0007 -0.0980 -0.0334
 2362W        W45456  17.737  17.103   1.208 -0.0241 -0.2749 -0.1460
 2363W        W45457  16.932  17.252   1.461 -0.3090  0.0254  0.0463
 2364W        W45458  16.676  15.276  30.272  0.1866  0.0324  0.3637
 2365W        W45459  15.504  17.143  31.955 -0.0276 -0.1884 -0.1377
 2366W        W45460  15.423  16.596   0.639 -0.2921  0.3064 -0.3053
 2367W        W45461  16.591  14.767  31.220 -0.0232 -0.0277 -0.0241
 2368W        W45462  13.991  14.377   2.129 -0.1319 -0.1585 -0.1451
 2369W        W45463  16.189  15.801   0.010 -0.0686 -0.0845  0.3279
 2370W        W45464  14.863  15.468  31.102 -0.1712  0.0440 -0.1601
 2371W        W45465  15.034  16.265   1.790 -0.1216  0.1655  0.5369
 2372W        W45466  16.454  16.387  30.254  0.2813  0.0250 -0.2322
 2373W        W45467  16.868  16.428  29.455 -0.0350  0.0463  0.0591
 2374W        W45468  15.480  14.866   0.026 -0.3021 -0.3593 -0.2186
 2375W        W45469  16.060  13.839   1.498 -0.0677 -0.1171 -0.0913
 2376W        W45470  15.493  15.662  29.323 -0.1631 -0.2834  0.1040
 2377W        W45471  14.629  15.991  30.806 -0.1099 -0.0503 -0.1228
 2378W        W45472  14.648  16.524   0.921 -0.2461 -0.1592 -0.2453
 2379W        W45473  15.043  15.465   1.961 -0.0421  0.3074 -0.3771
 2380W        W45474  16.598  15.260   0.152 -0.0632 -0.2611 -0.0143
 2381W        W45475  17.589  13.825  31.246 -0.2052  0.3223  0.1550
 2382W        W45476  15.488  18.155   0.790  0.0559  0.2931  0.1347
 2383W        W45477  15.837  17.370   0.877  0.1723 -0.3538 -0.0498
 2384W        W45478  17.018  15.938   1.336 -0.2556 -0.1619  0.1600
 2385W        W45479  14.742  17.662  31.980  0.0363  0.2641  0.0392
 2386W        W45480  14.280  18.410  30.325  0.1441 -0.0607 -0.1456
 2387W        W45481  15.019  16.470  31.220  0.2306 -0.4541 -0.0197
 2388W        W45482  17.511  17.710  31.104  0.0050 -0.1100  0.0540
 2389W        W45483  17.560  17.579   1.499  0.0532 -0.1560  0.1967
 2390W        W45484  15.960  17.843   2.079 -0.3701  0.0221 -0.1488
 2391W        W45485  15.427  18.377  29.335 -0.1142 -0.2404  0.1673
 2392W        W45486  16.389  18.763   1.816 -0.3962 -0.0734 -0.0361
 2393W        W45487  17.241  18.307   1.607 -0.1583 -0.2241  0.0856
 2394W        W45488  15.226  17.640  31.908 -0.1530 -0.1331 -0.1379
 2395W        W45489  17.121  16.278   0.143  0.0639 -0.3330 -0.1764
 2396W        W45490  16.983  17.287  30.219  0.2556  0.0852  0.1376
 2397W        W45491  15.701  16.625   0.213 -0.1196  0.0075 -0.2082
 2398W        W45492  15.348  16.158   1.394  0.4241  0.0302  0.0146
 2399W        W45493  14.506  17.291  31.661 -0.0116  0.5061 -0.0874
 2400W        W45494  18.115  16.792   1.265  0.0754  0.0358 -0.0010
 2401W        W45495  15.827  16.604  30.600 -0.1272 -0.3140  0.1171
 2402W        W45496  17.639  16.433  29.615  0.0514  0.0905 -0.0380
 2403W        W45497  15.419  16.205  29.242 -0.1708  0.1968 -0.4158
 2404W        W45498  18.195  15.721  30.755  0.1947  0.1405  0.2517
 2405W        W45499  17.520  15.191  31.265 -0.0007 -0.1921 -0.0639
 2406W        W45500  15.399  17.590  30.543 -0.0242  0.1544  0.1120
 2407W        W45501  14.906  14.458   2.355  0.0046  0.1210  0.0024
 2408W        W45502  16.383  17.284   1.391 -0.1829  0.0031 -0.0323
 2409W        W45503  16.222  16.051  30.557  0.3462  0.0305 -0.1293
 2410W        W45504  16.333  15.402   0.888 -0.1039  0.1089  0.0003
 2411W        W45505  14.567  17.231   1.717  0.1788  0.0010 -0.0967
 2412W        W45506  15.474  15.529   1.257 -0.0195  0.1976 -0.0480
 2413W        W45507  17.730  17.319  29.285 -0.0011  0.0538  0.2207
 2414W        W45508  17.431  17.003  31.705 -0.1916  0.1580  0.0715
 2415W        W45509  16.801  16.738  30.242  0.1152  0.3528  0.0744
 2416W        W45510  15.131  15.869  31.640  0.0823  0.1047 -0.1838
 2417W        W45511  14.634  17.837   1.505  0.0001  0.2351  0.3416
 2418W        W45512  15.277  15.447   3.503  0.1606 -0.1633  0.0068
 2419W        W45513  15.212  15.145  29.698 -0.3943 -0.0540  0.1002
 2420W        W45514  15.841  16.858   0.721 -0.0666 -0.2145  0.2823
 2421W        W45515  13.823  18.150   1.012  0.1550  0.1557  0.3450
 2422W        W45516  17.516  15.859  30.934 -0.3013 -0.0532 -0.0436
 2423W        W45517  14.764  15.878  31.316  0.2448  0.2792  0.1502
 2424W        W45518  17.216  16.237   0.912 -0.1418  0.0760 -0.5097
 2425W        W45519  16.553  15.982  29.499 -0.2732  0.0252 -0.0388
 2426W        W45520  16.174  13.498   0.893  0.1080  0.1787  0.0137
 2427W        W45521  16.164  14.059   0.961  0.0963 -0.4409 -0.0384
 2428W        W45522  14.984  17.294  29.310  0.2356  0.1839 -0.5449
 2429W        W45523  14.293  16.475  30.688  0.2623  0.0449  0.1018
 2430W        W45524  17.518  17.156   0.203 -0.0301  0.0395 -0.0188
 2431W        W45525  18.789  17.198  28.663 -0.0640  0.1056  0.0846
 2432W        W45526  14.239  18.915   1.359 -0.1479  0.1134  0.3121
 2433W        W45527  16.204  15.584   1.773 -0.0445 -0.0405  0.1943
 2434W        W45528  17.320  18.246   2.096  0.2404 -0.2912  0.0993
 2435W        W45529  13.233  17.749  29.398 -0.1730 -0.0954  0.0329
 2436W        W45530  14.186  16.664   0.943  0.1461  0.2603  0.1413
 2437W        W45531  15.003  16.403  30.727  0.1333 -0.0113  0.0256
 2438W        W45532  14.682  14.160   1.964 -0.0563  0.0418  0.1327
 2439W        W45533  15.465  17.269   1.874 -0.1733 -0.1155 -0.0482
 2440W        W45534  17.153  15.242  29.878 -0.0740  0.2757 -0.0250
 2441W        W45535  13.854  14.218   3.407  0.1373  0.0663  0.3440
 2442W        W45536  17.002  15.180  31.258  0.0243 -0.0186  0.1986
 2443W        W45537  14.694  15.679  30.321  0.1565 -0.2888 -0.0522
 2444W        W45538  18.117  16.264  27.826 -0.0987  0.0942  0.4063
 2445W        W45539  17.149  16.322  30.844 -0.0098 -0.1264  0.1305
 2446W        W45540  16.626  17.138  28.721  0.2897 -0.2428 -0.1773
 2447W        W45541  14.687  13.989   2.404  0.1886 -0.1643  0.3784
 2448W        W45542  14.211  15.529   1.004  0.0139 -0.0297  0.2897
 2449W        W45543  15.105  13.606   3.391  0.1682  0.0940 -0.0703
 2450W        W45544  14.005  15.028   0.982 -0.0835  0.0354  0.3373
 2451W        W45545  15.842  16.303   0.659 -0.1014 -0.0808 -0.1355
 2452W        W45546  15.176  13.562  31.056  0.0076  0.1769 -0.3383
 2453W        W45547  17.213  15.441  30.855 -0.0055 -0.2996  0.0090
 2454W        W45548  16.663  13.836   0.281 -0.1241 -0.1301  0.1536
 2455W        W45549  15.357  16.855  31.194 -0.1730  0.1363  0.1151
 2456W        W45550  15.977  15.725   2.526 -0.0764  0.0711  0.2210
 2457W        W45551  15.869  17.831  30.619 -0.0886  0.0399 -0.3959
 2458W        W45552  17.630  17.014   0.686 -0.1099 -0.0803  0.1194
 2459W        W45553  17.236  18.819   1.971 -0.2826  0.1132  0.1608
 2460W        W45554  14.688  15.056   1.329  0.1397 -0.0790  0.1400
 2461W        W45555  14.978  14.681  31.067  0.3871 -0.0057  0.0530
 2462W        W45556  15.496  18.230  30.360 -0.2945 -0.0233 -0.0163
 2463W        W45557  15.494  17.219   0.531  0.0209 -0.3222 -0.2226
 2464W        W45558  16.215  15.151  29.668 -0.0053  0.1872  0.0793
 2465W        W45559  17.923  16.698   0.331  0.4492 -0.0399  0.1760
 2466W        W45560  14.979  16.881   0.800  0.0325 -0.1066 -0.2136
 2467W        W45561  14.601  17.004   3.921  0.0398 -0.2419  0.2327
 2468W        W45562  17.629  14.737  31.587 -0.3776 -0.1176 -0.2099
 2469W        W45563  17.294  15.846   0.465  0.2043 -0.2074 -0.1718
 2470W        W45564  17.478  16.484  30.508  0.3318 -0.2478  0.0536
 2471W        W45565  16.152  15.198  29.160 -0.1637  0.0390  0.1178
 2472W        W45566  15.481  16.650  31.684  0.0512 -0.0736  0.0702
 2473W        W45567  13.393  17.687  30.626  0.2050  0.1171 -0.1904
 2474W        W45568  14.124  17.118   0.516 -0.0054  0.2092  0.1614
 2475W        W45569  15.890  18.333  31.420  0.3147 -0.1149 -0.1376
 2476W        W45570  16.131  14.985  31.359  0.0161 -0.1488  0.3109
 2477W        W45571  15.357  16.368   2.469 -0.1064  0.1065  0.1138
 2478W        W45572  15.544  16.547   1.124  0.3204 -0.4165 -0.0563
 2479W        W45573  15.835  15.811   0.347  0.0219 -0.1011 -0.3377
 2480W        W45574  14.702  17.757   1.970  0.3321  0.1895  0.1102
 2481W        W45575  16.147  14.154  30.789  0.1272  0.0574  0.1154
 2482W        W45576  19.113  15.156  30.480 -0.1543  0.2460  0.0490
 2483W        W45577  15.980  16.318   1.184  0.0745 -0.0640  0.2939
 2484W        W45578  17.878  16.259  31.559  0.0873 -0.2829 -0.1051
 2485W        W45579  17.115  15.356  28.924  0.2237  0.0309 -0.0596
 2486W        W45580  16.588  14.394  28.335 -0.2184 -0.3121  0.0763
 2487W        W45581  15.258  16.949   2.279 -0.4234 -0.0970 -0.0425
 2488W        W45582  16.892  17.331  31.739 -0.0128 -0.1481  0.0021
 2489W        W45583  16.473  17.705   2.246 -0.0033 -0.0059  0.0492
 2490W        W45584  15.080  16.421  29.647 -0.0045 -0.0742  0.0896
 2491W        W45585  15.884  16.918  31.006 -0.0051 -0.0124 -0.0414
 2492W        W45586  14.671  16.271  31.630  0.2671  0.1959  0.1758
 2493W        W45587  15.529  16.137   1.922  0.1734 -0.0472  0.3423
 2494W        W45588  16.112  17.385  31.381 -0.0079  0.3501  0.3201
 2495W        W45589  15.455  14.510   0.399  0.0499 -0.1734  0.1483
 2496W        W45590  15.524  16.220  30.350  0.1734 -0.1274 -0.2412
 2497W        W45591  17.425  14.052  30.232  0.0158  0.3140 -0.1516
 2498W        W45592  14.347  17.968  28.586  0.1072 -0.1921 -0.1571
 2499W        W45593  17.264  15.622   1.008  0.0302 -0.0138  0.2280
 2500W        W45594  16.150  14.954  31.946 -0.3911  0.0343 -0.4519
 2501W        W45595  15.015  13.187   0.585  0.1431  0.3049  0.2063
 2502W        W45596  18.032  17.013   2.778  0.0710 -0.0450 -0.2030
 2503W        W45597  17.569  16.745  29.961  0.0942 -0.0239 -0.2294
 2504W        W45598  15.578  16.572  29.576  0.0673  0.1880 -0.1976
 2505W        W45599  14.886  14.945  31.660 -0.0561  0.2414 -0.2150
 2506W        W45600  16.162  15.903   0.964 -0.1187 -0.2784 -0.1125
 2507W        W45601  14.600  15.361   2.702 -0.0107 -0.1426 -0.1071
 2508W        W45602  14.461  18.502   0.489 -0.0369 -0.0075  0.2080
 2509W        W45603  15.909  16.862  31.801 -0.1830  0.1484 -0.1326
 2510W        W45604  16.361  16.768  30.617 -0.1741  0.0108 -0.0743
 2511W        W45605  16.431  15.177   1.582  0.0592  0.1148  0.1630
 2512W        W45606  17.107  14.072  29.775  0.1450  0.1665 -0.3157
 2513W        W45607  15.711  17.112  31.419 -0.1998  0.0142 -0.0760
 2514W        W45608  17.258  16.304  29.917 -0.0719 -0.1974 -0.1656
 2515W        W45609  15.525  15.123   0.916 -0.3680 -0.1025 -0.1366
 2516W        W45610  15.463  16.754   1.603  0.1942  0.2412  0.2666
 2517W        W45611  15.337  16.710  29.169 -0.2702 -0.0948 -0.1313
 2518W        W45612  18.402  17.702   1.095  0.1394  0.0293 -0.1764
 2519W        W45613  15.978  16.418  30.048  0.1927 -0.2037  0.1095
 2520W        W45614  16.669  14.947   1.173  0.0712 -0.0645  0.0297
 2521W        W45615  14.569  18.707   0.931 -0.1652  0.2197  0.0411
 2522W        W45616  16.535  15.299  31.234 -0.1323 -0.0790 -0.0704
 2523W        W45617  14.449  17.716  31.329  0.0152  0.0089  0.4365
 2524W        W45618  16.772  15.081  30.771  0.0416  0.0659 -0.0801
 2525W        W45619  17.880  16.942  29.559  0.1717  0.1007  0.0676
 2526W        W45620  14.768  14.752   1.986  0.4138  0.2396  0.2029
 2527W        W45621  16.789  15.461  31.661 -0.2194 -0.1832 -0.1242
 2528W        W45622  14.579  18.160  31.617 -0.0355 -0.0495 -0.2771
 2529W        W45623  16.627  16.214   0.192  0.3045  0.0808  0.1443
 2530W        W45624  17.175  14.422  29.311  0.2145  0.2897 -0.1248
 2531W        W45625  16.460  15.736  30.893  0.1440 -0.1226 -0.2820
 2532W        W45626  16.836  18.555   2.066 -0.1535 -0.1121 -0.5054
 2533W        W45627  14.930  16.251  29.111 -0.1383  0.3626  0.4284
 2534W        W45628  16.242  16.680  31.373  0.0779  0.2251  0.1010
 2535W        W45629  16.076  15.565  31.090  0.0774  0.1657  0.0137
 2536W        W45630  15.426  18.138  31.531 -0.6211 -0.1138  0.2060
 2537W        W45631  15.628  17.582   0.196 -0.1705 -0.0759  0.2276
 2538W        W45632  14.464  16.987  30.993  0.0577  0.1232  0.1530
 2539W        W45633  14.705  16.640   0.041  0.0295  0.2451  0.0068
 2540W        W45634  15.248  15.489   3.041 -0.0178 -0.1354  0.0618
 2541W        W45635  17.358  16.225   2.180 -0.0130 -0.0306  0.2234
 2542W        W45636  15.270  15.635   0.401  0.0595 -0.0928  0.2557
 2543W        W45637  15.806  15.352  31.829 -0.0124  0.1316  0.0506
 2544W        W45638  17.215  15.103  31.679  0.1847 -0.0698  0.0375
 2545W        W45639  17.363  18.021   0.985  0.2454 -0.2554  0.0712
 2546W        W45640  16.169  15.007   1.069 -0.0076  0.0105 -0.4378
 2547W        W45641  15.463  17.918   3.302  0.1476 -0.1313 -0.1972
 2548W        W45642  16.011  14.917   0.486 -0.1299 -0.2521 -0.0421
 2549W        W45643  17.001  17.498  28.534  0.2025 -0.1407  0.3831
 2550W        W45644  15.687  15.363   1.768 -0.1062  0.0612  0.1829
 2551W        W45645  17.370  16.462  29.190 -0.1118 -0.1842 -0.3918
 2552W        W45646  14.232  17.030   1.242 -0.1219 -0.3274 -0.1034
 2553W        W45647  15.758  15.998  30.990  0.0647 -0.3588  0.1519
 2554W        W45648  15.597  16.204  31.921  0.2244  0.2155 -0.3849
 2555W        W45649  15.115  16.684   2.756 -0.2875  0.2177 -0.3490
 2556W        W45650  15.351  17.273  28.971  0.1518  0.2732  0.0109
 2557W        W45651  15.451  17.598   1.259  0.2423  0.0301 -0.0540
 2558W        W45652  17.840  16.086  29.270 -0.1082 -0.4178  0.0734
 2559W        W45653  17.004  16.849  29.082  0.0725 -0.0150  0.0111
 2560W        W45654  16.185  16.002  29.981  0.0168  0.1550 -0.2448
 2561W        W45655  18.577  13.941   1.540 -0.1881  0.0575 -0.0193
 2562W        W45656  16.673  17.648  30.544 -0.0791 -0.0083  0.0046
 2563W        W45657  16.527  16.140   1.183 -0.2613  0.1032 -0.1006
 2564W        W45658  15.660  14.089   1.064  0.1450 -0.0349 -0.0659
 2565W        W45659  16.754  17.150  30.663 -0.0623 -0.1561  0.2365
 2566W        W45660  14.388  15.534   3.505 -0.0949 -0.2025 -0.1099
 2567W        W45661  16.491  17.916   2.725  0.0704  0.0150  0.1108
 2568W        W45662  15.067  15.677   2.611 -0.0809  0.1328  0.0785
 2569W        W45663  16.650  15.777  30.425 -0.1896 -0.0023  0.1743
 2570W        W45664  15.445  15.340  30.395  0.1794 -0.0488  0.0312
 2571W        W45665  15.098  17.380   0.969  0.2385  0.4031  0.0181
 2572W        W45666  16.376  17.069  31.098  0.3813 -0.0887  0.1920
 2573W        W45667  14.982  15.415  30.663  0.0201  0.0848  0.0557
 2574W        W45668  17.213  16.683  31.188 -0.1609 -0.1148  0.2853
 2575W        W45669  15.967  16.801   1.259  0.0564  0.3887 -0.1067
 2576W        W45670  16.888  17.344  29.626 -0.4884 -0.1098  0.1026
 2577W        W45671  15.554  17.245  30.205  0.0327 -0.2659 -0.0896
 2578W        W45672  14.786  17.368  31.239  0.1878  0.0605  0.1676
 2579W        W45673  15.794  14.676   0.873  0.1033  0.0221 -0.0466
 2580W        W45674  16.096  16.258  31.719  0.2539 -0.1883 -0.0679
 2581W        W45675  16.972  16.300  30.336 -0.0712 -0.3226 -0.1739
 2582W        W45676  16.525  14.904   0.600 -0.1555  0.3977  0.0976
 2583W        W45677  16.228  14.177   0.206  0.1778  0.1631  0.0958
 2584W        W45678  15.195  17.163   1.423  0.2016  0.0927  0.1977
 2585W        W45679  14.639  14.538   3.224  0.1814 -0.2088 -0.0458
 2586W        W45680  18.163  18.467   1.744 -0.1172 -0.0888 -0.1899
 2587W        W45681  17.526  15.618  28.093 -0.1148 -0.2579  0.0692
 2588W        W45682  16.845  15.262   0.663 -0.1763 -0.0223 -0.1698
 2589W        W45683  17.951  16.002  31.166  0.3617 -0.0151  0.0027
 2590W        W45684  17.045  16.758  29.785  0.0444  0.1304 -0.1812
 2591W        W45685  14.085  13.720   1.132 -0.2695 -0.0295 -0.0004
 2592W        W45686  17.403  16.185   1.508 -0.3158 -0.2582  0.1300
 2593W        W45687  16.107  15.664  29.532 -0.3677 -0.0178 -0.3186
 2594W        W45688  16.264  16.492   0.736  0.1203 -0.1224 -0.1395
 2595W        W45689  16.267  16.339  29.251 -0.1331  0.1867 -0.1100
 2596W        W45690  16.154  16.228   0.278  0.3469  0.1666 -0.1474
 2597W        W45691  16.751  16.070  29.968  0.0962  0.1062  0.1864
 2598W        W45692  14.020  15.009   0.050  0.0761  0.0764 -0.1665
 2599W        W45693  16.091  18.149   2.495 -0.2747  0.0637 -0.0368
 2600W        W45694  15.837  14.400  29.155  0.2481 -0.1507  0.6120
 2601W        W45695  15.060  16.307   0.001 -0.1796 -0.1575 -0.0762
 2602W        W45696  16.839  16.676   0.387 -0.0321 -0.0109 -0.1649
 2603W        W45697  17.604  16.612   1.216 -0.1688 -0.2675 -0.3888
 2604W        W45698  15.080  13.369  30.558  0.0839  0.0549  0.0436
 2605W        W45699  18.618  16.761   2.320 -0.0059  0.1570  0.5027
 2606W        W45700  15.174  16.779   0.141  0.0298 -0.1147 -0.0154
 2607W        W45701  17.970  15.843  30.194 -0.3159  0.0599  0.0251
 2608W        W45702  16.068  16.880   1.789 -0.0198 -0.0430  0.1215
 2609W        W45703  15.148  15.958   2.216 -0.2999 -0.0737  0.0708
 2610W        W45704  16.470  16.453  29.743  0.1114 -0.2343 -0.0423
 2611W        W45705  16.996  14.931   0.275 -0.0505  0.1414  0.3550
 2612W        W45706  16.770  15.739   0.871 -0.0557  0.0886 -0.0059
 2613W        W45707  15.144  15.986  31.053 -0.1577  0.1327  0.2886
 2614W        W45708  17.832  16.561   0.778 -0.3893  0.1952  0.0651
 2615W        W45709  15.145  15.199   1.553  0.4284  0.1280  0.0209
 2616W        W45710  15.548  15.989   0.867  0.0064  0.1557  0.3115
 2617W        W45711  17.044  17.162   0.658 -0.2023  0.2016  0.0058
 2618W        W45712  16.415  15.809   0.474 -0.0085  0.0279 -0.0648
 2619W        W45713  15.835  16.415  31.346 -0.0970  0.2975 -0.1048
 2620W        W45714  15.061  16.616   1.263 -0.2131 -0.0890  0.2954
 2621W        W45715  17.047  16.710   1.863 -0.4520 -0.1478  0.3188
 2622W        W45716  16.692  17.253   1.016 -0.2868  0.1144 -0.0429
 2623W        W45717  16.429  15.824  31.556  0.0284 -0.2398 -0.0603
 2624W        W45718  14.490  16.804  31.446 -0.0624 -0.2857 -0.1788
 2625W        W45719  16.195  18.663   2.515  0.3906  0.1090 -0.0648
 2626W        W45720  15.113  15.742   0.951 -0.0992 -0.0643  0.1585
 2627W        W45721  16.095  17.413  29.872 -0.1516 -0.0684  0.2672
 2628W        W45722  17.870  16.377  28.820  0.1317  0.0786 -0.0277
 2629W        W45723  17.722  16.806  30.858  0.2124  0.1648 -0.1279
 2630W        W45724  16.670  19.307   1.307  0.0486  0.1729  0.2559
 2631W        W45725  15.918  15.133  30.338 -0.1970 -0.0752 -0.4510
 2632W        W45726  14.959  17.209  31.962 -0.2209 -0.2771  0.1971
 2633W        W45727  13.341  18.198  30.389  0.0869  0.0254  0.0468
 2634W        W45728  17.381  17.224  29.850 -0.1265  0.1453 -0.1796
 2635W        W45729  15.687  17.416  30.996 -0.0634  0.1292 -0.0025
 2636W        W45730  17.747  17.993   2.199 -0.0289  0.1623 -0.1554
 2637W        W45731  18.704  15.562  29.459 -0.0057  0.2746  0.3785
 2638W        W45732  18.180  16.973  31.403  0.1546 -0.2513  0.0864
 2639W        W45733  18.409  16.046  31.113 -0.2302  0.1968 -0.2787
 2640W        W45734  16.591  17.035   1.756 -0.0434 -0.0782  0.1291
 2641W        W45735  15.412  16.199  31.411  0.2520 -0.0866 -0.0911
 2642W        W45736  14.791  13.814  30.704 -0.1631 -0.0307  0.0810
 2643W        W45737  16.040  17.651   2.643 -0.2208 -0.0130  0.5346
 2644W        W45738  16.233  16.064   1.594 -0.1054 -0.1689  0.0699
 2645W        W45739  14.947  18.201   2.041 -0.0808 -0.5193 -0.0044
 2646W        W45740  17.888  17.439  29.756 -0.1629  0.2066 -0.1365
 2647W        W45741  14.948  15.978   0.507  0.1298  0.2296 -0.2076
 2648W        W45742  15.237  15.839  30.466  0.0258 -0.3919 -0.2174
 2649W        W45743  16.719  16.520   2.944  0.1595 -0.0225 -0.1577
 2650W        W45744  16.498  16.850  29.211 -0.3470  0.0577 -0.1275
 2651W        W45745  15.690  15.293  29.911  0.1586 -0.1527  0.0367
 2652W        W45746  14.212  18.394   0.062  0.2267 -0.1888 -0.1380
 2653W        W45747  15.199  17.306  31.531  0.0214 -0.1664 -0.1298
 2654W        W45748  16.443  16.789   1.343  0.3590  0.1090  0.2677
 2655W        W45749  14.922  14.806   0.974  0.1332  0.0518 -0.0120
 2656W        W45750  18.139  16.545  29.380  0.2053  0.0125 -0.0020
 2657W        W45751  15.844  16.413   1.667  0.0963  0.0124 -0.1435
 2658W        W45752  16.989  16.232   1.764  0.5208 -0.0695 -0.0896
 2659W        W45753  15.799  16.491  29.110 -0.0034  0.0543  0.0057
 2660W        W45754  18.477  15.543  31.329 -0.0857 -0.1549  0.1247
 2661W        W45755  14.989  14.974   2.806 -0.1096  0.0736 -0.2435
 2662W        W45756  15.014  15.087   2.288  0.0016 -0.0465  0.3557
 2663W        W45757  16.664  14.565   0.053  0.0542 -0.2429 -0.2125
 2664W        W45758  18.864  18.054   1.227  0.2462  0.1584 -0.1228
 2665W        W45759  15.273  15.323  29.103 -0.0602  0.2014  0.3616
 2666W        W45760  16.270  17.662   0.104 -0.4259  0.0660 -0.0877
 2667W        W45761  14.428  15.814   1.442 -0.2930  0.4094 -0.0313
 2668W        W45762  16.454  16.035  28.832  0.0244  0.1259 -0.0767
 2669W        W45763  16.057  17.248   0.381  0.3419  0.3463 -0.1707
 2670W        W45764  14.937  16.486   0.491 -0.2978  0.1582  0.2104
 2671W        W45765  16.701  16.763   0.886 -0.0776 -0.0573 -0.1981
 2672W        W45766  16.325  14.644  31.617 -0.0486  0.2273 -0.0243
 2673W        W45767  19.027  17.269  30.266  0.1354 -0.2016 -0.2317
 2674W        W45768  17.494  15.719   0.024 -0.0252 -0.1839 -0.1072
 2675W        W45769  14.751  17.719  29.472 -0.2246  0.0702  0.0563
 2676W        W45770  18.831  16.815  30.082  0.1355  0.1279 -0.1950
 2677W        W45771  16.224  16.780   0.298  0.1062  0.1009 -0.3332
 2678W        W45772  14.599  15.261   1.817  0.0909 -0.1007  0.4217
 2679W        W45773  16.595  17.979   0.902  0.0975  0.1131 -0.0991
 2680W        W45774  17.803  17.452   0.888 -0.1737  0.0842  0.4040
 2681W        W45775  15.240  15.578  30.013 -0.2189  0.0612 -0.3269
 2682W        W45776  15.805  15.563   0.788  0.2568  0.1532  0.1328
 2683W        W45777  15.913  17.856  31.113  0.0363  0.1167  0.1058
 2684W        W45778  17.620  15.453   0.607  0.0702  0.1221  0.3762
 2685W        W45779  15.481  15.703  31.931  0.0616 -0.2704 -0.2472
 2686W        W45780  15.854  18.500  29.597  0.1959  0.0718 -0.4210
 2687W        W45781  16.698  15.714   1.705  0.1787 -0.2326  0.1698
 2688W        W45782  15.124  17.867   1.011 -0.0609 -0.0663 -0.1534
 2689W        W45783  15.467  16.732   3.689 -0.1342 -0.1687  0.0075
 2690W        W45784  14.037  17.225  29.149 -0.1882 -0.0662  0.0600
 2691W        W45785  15.926  17.152   2.761  0.1713  0.2633 -0.1128
 2692W        W45786  16.809  17.761  29.972 -0.1366 -0.1207 -0.0357
 2693W        W45787  15.863  17.284  30.566  0.3316  0.1016 -0.0455
 2694W        W45788  16.382  17.064  31.754  0.1107 -0.2503  0.1466
 2695W        W45789  15.766  15.738  30.527  0.0090 -0.1983  0.2396
 2696W        W45790  18.568  16.586  31.930  0.0630 -0.1100  0.1617
 2697W        W45791  16.101  15.366   0.309 -0.3113  0.1889 -0.0759
 2698W        W45792  17.718  15.612  30.574  0.1565  0.1391 -0.0608
 2699W        W45793  18.792  14.861  30.832  0.0300 -0.1306 -0.1102
 2700W        W45794  16.193  16.447   2.047  0.1115  0.0444  0.2032
 2701W        W45795  15.842  16.275  28.132 -0.2727 -0.3295  0.1464
 2702W        W45796  14.232  17.193  28.289 -0.0928  0.2207 -0.0384
 2703W        W45797  15.112  16.271   0.908 -0.0093 -0.0541  0.2003
 2704W        W45798  15.837  14.629   2.195 -0.1742  0.0061 -0.0117
 2705W        W45799  15.795  14.823   2.774 -0.0029  0.0263  0.0845
 2706W        W45800  15.046  17.282   2.588 -0.2082 -0.1773 -0.2133
 2707W        W45801  15.684  15.115  31.377  0.1672 -0.1633 -0.1081
 2708W        W45802  17.673  17.386  28.611  0.0978  0.1026  0.0942
 2709W        W45803  15.062  15.264   1.050 -0.0463 -0.2984  0.1753
 2710W        W45804  14.199  15.240   1.422 -0.0296  0.0638  0.1767
 2711W        W45805  17.466  17.073  30.355 -0.1387 -0.3374  0.1145
 2712W        W45806  16.864  18.466  29.297  0.0912 -0.0659  0.0001
 2713W        W45807  17.005  14.197  30.800  0.1331  0.0391 -0.1012
 2714W        W45808  18.357  17.449   2.468  0.2136 -0.2990  0.0014
 2715W        W45809  15.701  17.712  28.938  0.2747  0.2731  0.0071
 2716W        W45810  16.895  16.415   2.243 -0.3000 -0.2029 -0.2299
 2717W        W45811  16.540  16.431   1.655 -0.0383  0.3365 -0.3534
 2718W        W45812  14.450  15.489  30.704 -0.1328  0.2142 -0.1927
 2719W        W45813  15.388  15.745   1.725  0.2339 -0.0251  0.0375
 2720W        W45814  15.452  16.433  30.941 -0.1592 -0.1845  0.0282
 2721W        W45815  18.265  17.049   0.051 -0.1133  0.0411 -0.0638
 2722W        W45816  15.479  17.040   1.012 -0.1007  0.1940 -0.1450
 2723W        W45817  16.370  17.930   1.745  0.0260  0.2583 -0.0759
 2724W        W45818  14.084  15.113   3.259  0.2397 -0.0210  0.1498
 2725W        W45819  17.741  16.266  30.133  0.0826 -0.1057  0.6769
 2726W        W45820  16.171  17.391   1.863 -0.0971  0.1315  0.2027
 2727W        W45821  18.613  16.595  31.052 -0.0257 -0.2928 -0.2663
 2728W        W45822  19.428  15.290  31.831 -0.0860  0.0816  0.0080
 2729W        W45823  16.744  16.678  30.977 -0.0217 -0.0348 -0.1190
 2730W        W45824  15.084  13.714   2.551  0.0495 -0.0253 -0.0855
 2731W        W45825  15.280  15.959   3.245  0.0601 -0.0180 -0.2110
 2732W        W45826  17.417  17.782   1.927 -0.2310 -0.1181 -0.1029
 2733W        W45827  15.348  14.793  31.530  0.2301  0.0378  0.0318
 2734W        W45828  17.316  14.934  30.231  0.2428 -0.1209  0.0055
 2735W        W45829  16.075  16.710  29.517  0.2292  0.3516  0.0299
 2736W        W45830  15.304  14.776   1.290  0.1484 -0.0289  0.0903
 2737W        W45831  17.298  15.950  30.392  0.0781  0.1792  0.2729
 2738W        W45832  16.694  15.741   0.101 -0.0596  0.1724 -0.1658
 2739W        W45833  15.865  15.834  31.539  0.2410 -0.0174  0.2943
 2740W        W45834  16.678  17.538   1.767 -0.3556  0.1400 -0.1265
 2741W        W45835  16.225  15.530  30.255  0.2312  0.2949  0.0045
 2742W        W45836  18.196  15.507  29.905 -0.0274  0.0730 -0.1594
 2743W        W45837  16.731  17.673   1.254  0.0485 -0.0797 -0.3586
 2744W        W45838  17.029  18.069   2.876 -0.3638  0.0483 -0.0874
 2745W        W45839  16.259  17.011   0.896 -0.1968 -0.1026 -0.1530
 2746W        W45840  17.930  15.364   0.257  0.1563 -0.1247 -0.0495
 2747W        W45841  14.574  14.224   2.841 -0.0966 -0.2872 -0.1730
 2748W        W45842  14.989  16.787  31.621 -0.3546 -0.4249  0.1611
 2749W        W45843  15.482  16.959  30.698 -0.2630 -0.0371  0.6787
 2750W        W45844  16.430  15.681   1.283 -0.2466 -0.1832  0.2571
 2751W        W45845  15.397  16.156   0.423  0.0908  0.1028  0.0965
 2752W        W45846  17.620  14.965  29.865 -0.0378  0.3451  0.0497
 2753W        W45847  15.723  17.163   1.443 -0.2378 -0.1142  0.0106
 2754W        W45848  15.798  15.847   1.413  0.0492 -0.1645  0.0498
 2755W        W45849  14.588  18.205   5.652  0.1960 -0.0697 -0.0367
 2756W        W45850  16.012  15.958   2.040 -0.0453 -0.3514  0.0137
 2757W        W45851  17.027  15.592   2.845 -0.0944 -0.1364 -0.5606
 2758W        W45852  17.143  17.161   3.928  0.1353 -0.3305  0.2933
 2759W        W45853  14.685  15.027   4.102  0.0973  0.0483 -0.3266
 2760W        W45854  17.237  18.075   3.949  0.1444  0.0481 -0.3141
 2761W        W45855  16.908  15.428   5.291 -0.3489  0.4636  0.0837
 2762W        W45856  15.966  17.527   5.535 -0.2337 -0.1866  0.2916
 2763W        W45857  17.679  18.784   7.118  0.2105 -0.1681 -0.0874
 2764W        W45858  16.878  16.454   1.260  0.2191 -0.1501 -0.1443
 2765W        W45859  16.724  15.978   3.090  0.0479  0.3870  0.0413
 2766W        W45860  16.757  17.690   6.625  0.0423  0.0348 -0.0644
 2767W        W45861  14.132  12.923   2.621  0.0329  0.0518  0.2167
 2768W        W45862  14.695  14.769   4.594  0.1036  0.0390  0.1459
 2769W        W45863  16.200  16.332   5.348  0.1499  0.0927 -0.2380
 2770W        W45864  14.517  14.775   2.782 -0.2027  0.0136 -0.0178
 2771W        W45865  16.168  15.291   4.758  0.2000 -0.1152 -0.2079
 2772W        W45866  15.651  15.273   3.900  0.2130 -0.2279 -0.0022
 2773W        W45867  17.098  18.618   2.478  0.1715 -0.1828 -0.1121
 2774W        W45868  15.266  14.988   5.311 -0.2530  0.0348  0.2630
 2775W        W45869  17.140  15.806   6.132  0.1851  0.2556 -0.0412
 2776W        W45870  15.793  17.741   3.614 -0.1785  0.1956  0.1855
 2777W        W45871  14.948  15.683   1.485 -0.2338 -0.2520 -0.2030
 2778W        W45872  15.560  15.911   3.665 -0.4041 -0.2606  0.3647
 2779W        W45873  15.375  16.450   4.815 -0.0333  0.1065  0.0634
 2780W        W45874  17.589  16.386   5.333 -0.1376 -0.1065  0.0634
 2781W        W45875  19.245  16.548   3.552 -0.3239  0.0200 -0.0623
 2782W        W45876  17.090  18.574   3.952  0.0252  0.1152  0.2547
 2783W        W45877  17.292  17.401   5.227 -0.3777  0.0355 -0.3412
 2784W        W45878  17.392  15.211   6.192 -0.1258 -0.0780 -0.0281
 2785W        W45879  14.903  17.010   3.043 -0.0902 -0.4122 -0.0197
 2786W        W45880  15.411  17.037   4.102 -0.3554 -0.2007  0.1103
 2787W        W45881  16.225  18.587   4.291 -0.1007 -0.1237 -0.0493
 2788W        W45882  17.722  17.482   5.522 -0.2568 -0.0392 -0.0018
 2789W        W45883  16.756  17.275   5.062 -0.1037  0.2927  0.0768
 2790W        W45884  15.784  18.059   5.527 -0.1736  0.0119 -0.0405
 2791W        W45885  15.531  15.925   2.573 -0.1776  0.0883 -0.1645
 2792W        W45886  17.497  17.242   6.716 -0.1555 -0.1117 -0.1032
 2793W        W45887  15.065  18.453   5.307  0.1206  0.0405 -0.1365
 2794W        W45888  16.942  16.454   5.564  0.0138  0.0399  0.2206
 2795W        W45889  16.581  15.129   3.542 -0.2498 -0.0180 -0.1010
 2796W        W45890  15.372  17.668   2.807 -0.3797  0.1685 -0.0893
 2797W        W45891  17.289  16.395   4.049 -0.3344 -0.0631 -0.0843
 2798W        W45892  15.458  15.922   5.436 -0.1659  0.1459 -0.0572
 2799W        W45893  13.072  18.126   6.188 -0.1028 -0.4682 -0.0362
 2800W        W45894  19.469  15.759   6.180  0.0233  0.0637  0.2612
 2801W        W45895  15.322  18.197   4.153 -0.1284  0.0186 -0.1287
 2802W        W45896  16.736  16.266   0.736  0.0288 -0.0920 -0.0539
 2803W        W45897  17.187  16.512   2.729  0.0523 -0.0955 -0.2681
 2804W        W45898  16.843  15.768   3.576 -0.0638 -0.1212  0.3855
 2805W        W45899  16.145  14.705   5.205 -0.1416 -0.1216 -0.3118
 2806W        W45900  15.074  16.681   4.029 -0.1735  0.1040 -0.0062
 2807W        W45901  16.482  16.110   5.833 -0.0699  0.2662  0.2984
 2808W        W45902  17.193  17.306   5.699  0.0841 -0.1068  0.0754
 2809W        W45903  16.168  16.739   2.499  0.0273  0.1040  0.1728
 2810W        W45904  16.299  16.161   4.841 -0.1267 -0.0088 -0.4828
 2811W        W45905  16.206  17.205   4.577  0.0706 -0.2672  0.2591
 2812W        W45906  15.366  14.535   4.588 -0.1308  0.2033  0.2430
 2813W        W45907  17.325  17.909   2.515  0.0621 -0.0846  0.3084
 2814W        W45908  18.222  18.150   4.915  0.0312 -0.3635 -0.3379
 2815W        W45909  18.132  17.933   3.650  0.2009 -0.7260  0.2552
 2816W        W45910  15.267  16.266   3.686 -0.1863  0.2360  0.2727
 2817W        W45911  14.737  16.127   6.271  0.2618 -0.2913 -0.3879
 2818W        W45912  14.632  15.938   5.006  0.3157  0.4144 -0.2351
 2819W        W45913  15.393  14.659   2.554  0.1972  0.0102 -0.2429
 2820W        W45914  19.136  17.119   6.328 -0.2658 -0.0449 -0.2244
 2821W        W45915  14.228  17.764   5.867  0.0026 -0.3318  0.0980
 2822W        W45916  17.506  14.880   3.728 -0.1297 -0.0614 -0.1002
 2823W        W45917  16.889  16.668   3.846 -0.1759  0.1300 -0.3447
 2824W        W45918  18.421  17.496   5.916 -0.1819 -0.0769 -0.2074
 2825W        W45919  17.606  16.836   2.278 -0.0315 -0.0353 -0.1123
 2826W        W45920  16.908  14.976   5.550 -0.1054  0.0163 -0.0250
 2827W        W45921  16.417  14.332   4.866 -0.1850 -0.2583  0.2808
 2828W        W45922  14.749  17.452   3.479  0.3110  0.3817  0.0783
 2829W        W45923  15.463  15.274   2.584 -0.2892 -0.1308  0.1775
 2830W        W45924  18.992  18.401   5.601  0.0181  0.1240  0.1448
 2831W        W45925  18.215  17.056   3.310  0.0265  0.1358 -0.0860
 2832W        W45926  14.330  17.998   4.425  0.0919  0.0226  0.1293
 2833W        W45927  16.156  15.744   4.560 -0.0623 -0.0437 -0.0607
 2834W        W45928  17.377  17.590   6.409  0.1744 -0.0961  0.0222
 2835W        W45929  14.285  17.571   3.331  0.0402  0.0317 -0.2994
 2836W        W45930  14.906  16.307   4.914  0.2304  0.1670  0.1031
 2837W        W45931  14.455  18.160   3.105  0.2634  0.2204  0.0520
 2838W        W45932  14.892  15.882   4.503  0.2861 -0.3235 -0.0442
 2839W        W45933  14.656  17.188   4.410  0.0786  0.1731 -0.2470
 2840W        W45934  16.896  17.191   4.299 -0.0192 -0.1660 -0.4613
 2841W        W45935  14.963  15.697   5.545 -0.1871  0.2455 -0.1695
 2842W        W45936  17.942  16.545   3.148  0.3025  0.2373  0.2541
 2843W        W45937  15.675  16.720   2.631  0.2643 -0.1235 -0.0901
 2844W        W45938  16.892  17.661   4.126  0.3222  0.0569  0.0055
 2845W        W45939  17.253  17.225   1.921 -0.0267 -0.0938 -0.1452
 2846W        W45940  17.952  16.230   1.256  0.0940  0.2385  0.1253
 2847W        W45941  14.151  17.103   5.283 -0.4255  0.0067 -0.2616
 2848W        W45942  15.306  13.959   2.989  0.3327 -0.1796 -0.0026
 2849W        W45943  13.718  15.967   6.657  0.0105 -0.3741  0.3022
 2850W        W45944  14.541  14.503   5.034  0.1552 -0.1812  0.0275
 2851W        W45945  17.730  16.393   5.867  0.0324  0.1472  0.3127
 2852W        W45946  14.896  14.735   3.711  0.1716 -0.2814  0.1116
 2853W        W45947  17.846  16.035   3.098  0.3843  0.0071  0.1478
 2854W        W45948  16.750  16.296   3.508 -0.3614  0.0849  0.1857
 2855W        W45949  14.423  17.078   3.318  0.4434  0.0022  0.2144
 2856W        W45950  18.963  15.949   6.520  0.0525 -0.1551  0.1030
 2857W        W45951  16.144  17.246   3.277  0.0244  0.0177  0.0087
 2858W        W45952  17.672  18.265   4.824  0.1005 -0.0408  0.1095
 2859W        W45953  18.772  19.021   5.112  0.0337 -0.1639 -0.0802
 2860W        W45954  14.792  16.194   5.408 -0.0334  0.3171 -0.0314
 2861W        W45955  13.526  14.494   3.889 -0.0616 -0.1217  0.2052
 2862W        W45956  16.164  18.667   3.330 -0.0582 -0.2384  0.0411
 2863W        W45957  16.664  16.964   2.622 -0.2449  0.3883 -0.2152
 2864W        W45958  15.284  15.670   4.030 -0.2786  0.1912  0.0623
 2865W        W45959  18.341  18.059   5.968 -0.2314  0.2849 -0.1283
 2866W        W45960  16.494  17.107   3.725 -0.0590  0.0032  0.1883
 2867W        W45961  15.206  17.000   5.392  0.0489  0.1643 -0.3023
 2868W        W45962  17.261  14.132   5.304 -0.1333  0.0114  0.0220
 2869W        W45963  18.359  15.853   5.502  0.1403  0.0359  0.2422
 2870W        W45964  17.882  16.708   5.069 -0.0864 -0.0181 -0.0702
 2871W        W45965  14.486  15.112   2.287 -0.0652 -0.0379 -0.3105
 2872W        W45966  18.163  18.333   5.522 -0.0306 -0.1441  0.1240
 2873W        W45967  15.180  17.732   2.162 -0.0984 -0.0496 -0.4954
 2874W        W45968  14.242  15.011   4.374 -0.1117  0.0193  0.0019
 2875W        W45969  15.694  16.722   3.163 -0.3234  0.0577  0.1746
 2876W        W45970  18.956  15.897   4.550 -0.1261 -0.0961 -0.1727
 2877W        W45971  13.626  16.229   5.040 -0.1820 -0.1424  0.2867
 2878W        W45972  17.693  16.840   4.577 -0.0291 -0.0245  0.2510
 2879W        W45973  16.793  17.295   2.178 -0.3727  0.1994  0.0953
 2880W        W45974  14.663  16.561   6.055 -0.2919  0.1153  0.0230
 2881W        W45975  15.733  15.162   4.993 -0.0396 -0.0130 -0.0950
 2882W        W45976  17.520  15.355   2.952  0.1059  0.1500  0.0217
 2883W        W45977  16.799  16.393   4.727  0.0981 -0.3147  0.0245
 2884W        W45978  17.120  16.280   3.118 -0.2708  0.1646 -0.4420
 2885W        W45979  17.291  17.310   2.453 -0.0289 -0.0812  0.0354
 2886W        W45980  16.984  15.771   2.208  0.3230 -0.1345 -0.1527
 2887W        W45981  15.175  16.625   5.768 -0.0112  0.6491  0.1142
 2888W        W45982  17.706  17.250   4.067 -0.0165 -0.0022  0.1528
 2889W        W45983  17.102  17.465   3.009  0.1718 -0.3080  0.2816
 2890W        W45984  15.988  16.457   2.876 -0.1371  0.0442  0.2511
 2891W        W45985  17.393  17.665   4.303  0.1432  0.1886 -0.0640
 2892W        W45986  15.500  16.573   4.334  0.0993 -0.1186 -0.0028
 2893W        W45987  17.143  16.552   5.095  0.0847  0.2404 -0.1115
 2894W        W45988  18.043  18.581   4.847 -0.0865  0.0682 -0.1242
 2895W        W45989  16.019  13.596   5.709  0.2752  0.1192 -0.1909
 2896W        W45990  15.878  15.419   2.915  0.0702  0.1994 -0.0776
 2897W        W45991  15.315  14.481   5.402  0.1467 -0.0455 -0.1958
 2898W        W45992  15.118  17.938   3.755  0.1904  0.0429 -0.0512
 2899W        W45993  16.878  16.237   6.043 -0.1659 -0.1034 -0.1329
 2900W        W45994  18.049  15.157   4.123 -0.0784 -0.1777  0.0552
 2901W        W45995  16.865  15.166   6.180 -0.0773 -0.1069  0.1405
 2902W        W45996  17.606  15.638   5.974  0.3972  0.1409  0.3090
 2903W        W45997  18.519  16.893   2.806 -0.3734  0.0607  0.2634
 2904W        W45998  16.950  15.720   4.415 -0.0770 -0.2305 -0.0656
 2905W        W45999  14.578  17.442   2.929 -0.4107 -0.1999 -0.3675
 2906W        W46000  16.949  16.958   5.435  0.3434  0.1181 -0.2069
 2907W        W46001  15.087  16.126   5.849  0.1391  0.2427 -0.3207
 2908W        W46002  13.673  17.049   4.608  0.0942  0.0340  0.0956
 2909W        W46003  17.827  17.739   6.536 -0.2654 -0.0406  0.2741
 2910W        W46004  16.335  16.319   3.219 -0.2434 -0.2775 -0.0762
 2911W        W46005  17.283  16.723   5.783 -0.2177 -0.0598 -0.1213
 2912W        W46006  17.687  16.386   4.361  0.2775 -0.0858  0.0356
 2913W        W46007  15.947  18.541   3.828  0.0007  0.1369  0.2131
 2914W        W46008  14.808  17.698   4.099  0.0865  0.0399 -0.0593
 2915W        W46009  16.637  15.364   5.770 -0.1514 -0.3582 -0.0820
 2916W        W46010  16.860  17.502   3.562 -0.1233  0.2821  0.0193
 2917W        W46011  15.835  17.026   2.176 -0.1847 -0.1855 -0.1555
 2918W        W46012  16.784  16.424   4.274  0.1726 -0.3493 -0.0718
 2919W        W46013  15.064  18.315   3.378  0.1841 -0.2966 -0.0475
 2920W        W46014  17.310  14.442   3.467  0.0761  0.0883  0.1204
 2921W        W46015  14.492  17.445   5.093  0.0039  0.2126 -0.3534
 2922W        W46016  16.507  15.976   2.045 -0.3993  0.0273  0.3682
 2923W        W46017  14.371  15.988   3.180 -0.0589 -0.2349 -0.3832
 2924W        W46018  17.174  15.533   3.996  0.1374  0.2467  0.3111
 2925W        W46019  17.751  17.070   3.567  0.0427 -0.1955 -0.2510
 2926W        W46020  15.213  14.146   4.222 -0.2456 -0.1774  0.1130
 2927W        W46021  17.295  14.667   4.417 -0.1934  0.0065  0.0058
 2928W        W46022  15.023  17.450   5.301 -0.2652  0.0767  0.4483
 2929W        W46023  15.762  15.647   4.861  0.0458  0.0283  0.0830
 2930W        W46024  17.489  16.036   2.623 -0.1512  0.4851 -0.1336
 2931W        W46025  16.903  17.985   4.640 -0.0079 -0.2619  0.0843
 2932W        W46026  16.442  16.636   5.689  0.1981 -0.0985 -0.2477
 2933W        W46027  14.387  15.459   3.989 -0.0714  0.4097 -0.0153
 2934W        W46028  18.975  15.706   5.029  0.2883 -0.0839 -0.0531
 2935W        W46029  16.685  15.424   4.004  0.0342  0.0512  0.0575
 2936W        W46030  15.777  16.343   3.432  0.0604  0.2058  0.0067
 2937W        W46031  16.658  16.939   4.681 -0.1838  0.1714  0.0637
 2938W        W46032  17.176  17.018   2.835 -0.0394 -0.0979  0.0186
 2939W        W46033  13.791  18.048   5.099 -0.0854 -0.1529  0.0808
 2940W        W46034  16.227  16.373   6.730  0.0186  0.4640 -0.1431
 2941W        W46035  17.637  17.119   5.795 -0.1966 -0.1687  0.4301
 2942W        W46036  16.720  15.949   4.882 -0.2485  0.0601 -0.0927
 2943W        W46037  14.863  13.763   3.967  0.1769 -0.4063  0.1128
 2944W        W46038  15.193  15.181   4.059  0.0268 -0.2155  0.3583
 2945W        W46039  18.413  16.818   5.399 -0.2117  0.1002 -0.2280
 2946W        W46040  17.138  16.106   5.241 -0.0960 -0.1260 -0.0076
 2947W        W46041  15.658  17.167   5.596 -0.3801 -0.0322 -0.0827
 2948W        W46042  16.497  13.875   3.736  0.3068 -0.0172 -0.0356
 2949W        W46043  18.235  17.941   4.181  0.4155 -0.3091 -0.1145
 2950W        W46044  18.962  18.053   6.313  0.2415 -0.0860  0.0745
 2951W        W46045  15.522  16.305   2.911 -0.1850  0.3493  0.0288
 2952W        W46046  14.116  16.158   5.008  0.2629 -0.1014 -0.3898
 2953W        W46047  16.684  17.166   3.209  0.0082 -0.1171 -0.1997
 2954W        W46048  17.603  15.550   4.866  0.0035  0.0129 -0.0345
 2955W        W46049  15.149  16.959   4.473 -0.2719  0.1332 -0.1127
 2956W        W46050  14.846  16.214   3.388 -0.3913 -0.1052 -0.5365
 2957W        W46051  14.686  16.995   5.311 -0.1744  0.1769 -0.0845
 2958W        W46052  18.153  15.820   2.185 -0.1508  0.1643 -0.1443
 2959W        W46053  16.416  17.350   2.845 -0.0989 -0.0197 -0.1185
 2960W        W46054  16.408  15.558   3.114  0.0348 -0.0291  0.0608
 2961W        W46055  19.184  16.241   6.100 -0.0277 -0.2580 -0.0863
 2962W        W46056  17.482  16.764   3.140  0.4015  0.1005  0.1664
 2963W        W46057  17.148  16.099   6.535 -0.0804  0.3296  0.0087
 2964W        W46058  15.814  15.060   5.505  0.1256  0.2866 -0.0237
 2965W        W46059  16.446  17.898   4.348 -0.0582 -0.2180  0.1204
 2966W        W46060  14.568  15.910   5.824 -0.2167 -0.1476 -0.3134
 2967W        W46061  16.870  18.909   6.642  0.1178  0.1900 -0.0345
 2968W        W46062  14.911  15.969   7.241 -0.0947 -0.2623  0.1542
 2969W        W46063  17.220  15.378   3.421 -0.1359  0.1127  0.0649
 2970W        W46064  15.517  15.561   2.200  0.1708  0.0914  0.0178
 2971W        W46065  16.465  16.855   4.240 -0.2055  0.0191 -0.2860
 2972W        W46066  17.616  17.296   4.868 -0.2422  0.1566  0.0128
 2973W        W46067  16.271  17.246   2.325  0.0208  0.1569  0.1163
 2974W        W46068  18.114  16.257   4.868  0.0019  0.1626  0.2896
 2975W        W46069  15.804  16.395   3.962  0.1304 -0.0530 -0.0065
 2976W        W46070  17.327  15.844   3.674  0.3663  0.0677  0.0210
 2977W        W46071  16.307  16.853   2.927 -0.3905  0.1610 -0.0716
 2978W        W46072  14.990  16.434   4.464  0.3475  0.1155 -0.0864
 2979W        W46073  13.271  16.097   6.485  0.3374  0.1593 -0.0782
 2980W        W46074  17.380  17.164   4.441 -0.1782  0.1223 -0.1922
 2981W        W46075  16.178  14.984   4.232 -0.0978 -0.0675 -0.1087
 2982W        W46076  17.351  15.711   5.427  0.1686  0.4107  0.1314
 2983W        W46077  16.917  15.825   5.687 -0.0029 -0.3825 -0.1248
 2984W        W46078  17.316  16.163   5.778  0.2713 -0.2387 -0.0263
 2985W        W46079  15.398  15.480   5.186 -0.0567  0.2564  0.0743
 2986W        W46080  17.450  17.818   5.002  0.1418  0.0345  0.0274
 2987W        W46081  18.308  15.752   3.038  0.1081  0.1768 -0.0751
 2988W        W46082  18.718  14.973   4.253  0.1266 -0.2581  0.1914
 2989W        W46083  18.639  15.842   4.116  0.0841  0.0041 -0.0656
 2990W        W46084  17.341  15.529   2.495 -0.0481 -0.1717 -0.0336
 2991W        W46085  14.882  15.254   4.529  0.1983 -0.2894 -0.3450
 2992W        W46086  15.608  16.658   5.211  0.0803  0.0229  0.2479
 2993W        W46087  15.713  15.012   1.385 -0.1533  0.2074  0.2163
 2994W        W46088  16.412  15.064   6.254 -0.2128  0.0210  0.2361
 2995W        W46089  17.667  16.571   1.718  0.0590  0.3238 -0.1243
 2996W        W46090  17.533  18.136   4.372 -0.2135  0.1497 -0.0977
 2997W        W46091  16.770  14.505   3.497 -0.1226 -0.1336  0.1668
 2998W        W46092  15.342  16.024   4.359 -0.3578  0.0174  0.2771
 2999W        W46093  14.437  17.031   6.116  0.0437  0.1240  0.0896
 3000W        W46094  15.594  15.115   3.176 -0.2224 -0.0267 -0.3212
 3001W        W46095  16.819  17.572   2.636  0.0996 -0.2335 -0.3021
 3002W        W46096  17.189  17.034   4.876  0.1268  0.2297 -0.1254
 3003W        W46097  18.682  17.343   5.519  0.3022  0.3242 -0.1579
 3004W        W46098  17.046  14.955   3.577 -0.1626  0.1663 -0.4275
 3005W        W46099  19.303  16.679   5.828  0.2282 -0.0642 -0.1101
 3006W        W46100  14.288  18.575   4.308  0.0723  0.0539  0.3238
 3007W        W46101  17.159  15.253   4.549  0.1629 -0.2481  0.1100
 3008W        W46102  14.144  18.899   5.154  0.0165 -0.0973  0.0202
 3009W        W46103  13.880  17.350   4.935 -0.1193  0.0679  0.2807
 3010W        W46104  16.040  16.842   3.613  0.2098 -0.1673  0.0194
 3011W        W46105  15.281  14.309   6.909 -0.0923 -0.2438 -0.1257
 3012W        W46106  17.513  16.426   4.840 -0.1449  0.0818 -0.1437
 3013W        W46107  16.464  16.797   3.378 -0.1391 -0.3049 -0.3029
 3014W        W46108  18.075  16.296   5.426  0.0310  0.1667 -0.1978
 3015W        W46109  16.647  16.121   5.364 -0.0745 -0.4041 -0.3919
 3016W        W46110  14.949  14.732   5.694  0.0113  0.1201  0.1539
 3017W        W46111  16.968  18.844   4.849 -0.0471  0.1490  0.0729
 3018W        W46112  18.292  17.216   5.109 -0.0003 -0.5005  0.0449
 3019W        W46113  16.254  16.001   3.894 -0.2236 -0.0985 -0.3405
 3020W        W46114  13.543  16.412   5.807 -0.0924 -0.0137 -0.3976
 3021W        W46115  17.253  17.115   6.264  0.2774 -0.1857  0.1578
 3022W        W46116  18.575  16.332   5.270 -0.0102 -0.0554  0.1817
 3023W        W46117  15.911  13.930   3.001 -0.2853  0.2333  0.3864
 3024W        W46118  15.898  18.088   1.549 -0.2094 -0.0968 -0.0690
 3025W        W46119  15.114  16.472   6.286 -0.0330  0.3190 -0.2690
 3026W        W46120  15.038  16.284   6.751  0.2325 -0.1047  0.0142
 3027W        W46121  15.878  18.223   3.418 -0.0153 -0.2998 -0.3917
 3028W        W46122  17.683  17.308   3.068 -0.1075 -0.1534  0.4810
 3029W        W46123  16.777  18.225   2.432  0.0131  0.0949 -0.0388
 3030W        W46124  16.393  16.550   3.885 -0.1506 -0.0513  0.1610
 3031W        W46125  16.110  15.055   3.730  0.1153  0.2440 -0.3912
 3032W        W46126  14.363  17.496   4.094 -0.2460  0.0719 -0.0693
 3033W        W46127  15.365  18.237   2.870  0.0252 -0.0029 -0.3889
 3034W        W46128  17.620  18.123   3.535  0.0604  0.2098 -0.1759
 3035W        W46129  15.437  17.125   2.989 -0.1801  0.1362  0.1109
 3036W        W46130  17.765  17.274   6.257  0.1886 -0.0090  0.2456
 3037W        W46131  17.039  14.943   2.239 -0.0295  0.3814  0.0123
 3038W        W46132  18.130  17.195   5.635 -0.0445  0.1699  0.2248
 3039W        W46133  18.056  15.693   3.711 -0.1140  0.1228  0.0841
 3040W        W46134  16.962  17.598   6.058  0.2675  0.2691 -0.0313
 3041W        W46135  16.306  14.320   2.210 -0.0219 -0.1491  0.2003
 3042W        W46136  16.206  16.363   4.366  0.2127  0.0471  0.1761
 3043W        W46137  18.038  15.740   6.259  0.0140  0.0058  0.0629
 3044W        W46138  13.047  16.298   4.912  0.1430 -0.0516  0.0239
 3045W        W46139  17.196  17.855   3.359 -0.3502 -0.3742 -0.2829
 3046W        W46140  14.780  15.682   3.195 -0.2337  0.0172  0.0705
 3047W        W46141  15.959  16.811   4.194  0.0395  0.0290  0.2385
 3048W        W46142  19.349  13.942   4.199  0.3963 -0.1929  0.0684
 3049W        W46143  16.782  18.129   1.866 -0.2683 -0.1524  0.0871
 3050W        W46144  17.206  15.355   5.744 -0.3799  0.1439  0.2485
 3051W        W46145  16.089  18.997   3.719  0.1379 -0.1975 -0.4384
 3052W        W46146  14.644  16.766   4.797 -0.0153 -0.1141  0.4697
 3053W        W46147  15.586  18.530   5.223  0.1514  0.2843 -0.1647
 3054W        W46148  14.183  13.404   2.909 -0.0387 -0.0122  0.3090
 3055W        W46149  19.439  16.720   4.705  0.1356  0.1078  0.0839
 3056W        W46150  16.683  14.623   5.290  0.0937 -0.1336  0.1129
 3057W        W46151  17.990  14.587   4.701 -0.4400 -0.3305  0.1419
 3058W        W46152  16.373  14.157   2.658 -0.2103  0.0076  0.0455
 3059W        W46153  17.236  16.020   4.678 -0.0771  0.0206 -0.3102
 3060W        W46154  15.769  16.224   4.569  0.0956 -0.0504  0.4112
 3061W        W46155  14.831  15.276   3.685  0.0956 -0.0199 -0.0435
 3062W        W46156  16.159  14.487   2.985  0.2902  0.4643 -0.0851
 3063W        W46157  16.684  17.202   6.012  0.2353 -0.0151  0.1241
 3064W        W46158  16.583  16.775   2.153  0.1822 -0.1812  0.0700
 3065W        W46159  16.205  17.801   6.539 -0.0823 -0.0456  0.1531
 3066W        W46160  14.578  14.025   4.236  0.1488  0.0028 -0.0196
 3067W        W46161  15.819  15.349   4.402 -0.2076 -0.4444 -0.0255
 3068W        W46162  14.469  16.547   5.609 -0.0195  0.0109  0.0413
 3069W        W46163  16.878  16.000   4.036  0.4599 -0.4479 -0.1059
 3070W        W46164  17.687  17.885   7.840 -0.2737 -0.3192 -0.3483
 3071W        W46165  14.352  14.943   3.648  0.1507  0.0597  0.0156
 3072W        W46166  17.789  17.354   2.294  0.1395  0.2881 -0.1743
 3073W        W46167  16.011  17.816   5.905 -0.0038  0.0015  0.1458
 3074W        W46168  16.270  19.196   1.587 -0.1272  0.2545  0.2995
 3075W        W46169  17.305  17.182   3.373 -0.2828 -0.2227  0.0901
 3076W        W46170  18.599  18.222   5.357 -0.0643 -0.2545  0.1481
 3077W        W46171  14.315  15.522   4.553 -0.3236  0.3371 -0.0135
 3078W        W46172  15.421  18.349   4.697 -0.3104 -0.0078  0.1555
 3079W        W46173  18.585  18.754   5.505 -0.0328  0.0666  0.0061
 3080W        W46174  16.598  14.802   3.124  0.0744  0.0556 -0.0657
 3081W        W46175  16.344  15.561   3.669  0.1734  0.2000 -0.0488
 3082W        W46176  15.487  18.281   3.704 -0.0742  0.0854 -0.3130
 3083W        W46177  18.673  17.367   6.802  0.0009  0.2594 -0.0346
 3084W        W46178  18.456  15.883   5.003 -0.2271  0.1786 -0.2127
 3085W        W46179  16.746  17.786   3.128 -0.1546  0.3465 -0.1114
 3086W        W46180  18.827  15.983   5.472  0.2848  0.0514  0.0289
 3087W        W46181  18.201  16.998   6.146  0.1096  0.1733 -0.2563
 3088W        W46182  14.165  18.882   6.860 -0.0916  0.2346  0.2111
 3089W        W46183  14.175  17.001   2.844  0.1698 -0.3032 -0.1640
 3090W        W46184  15.804  16.762   4.700 -0.0502 -0.0986 -0.2914
 3091W        W46185  16.248  16.761   4.880 -0.2348 -0.2301  0.0728
 3092W        W46186  17.136  19.519   3.481  0.0260 -0.2533  0.2149
 3093W        W46187  16.597  17.528   4.659  0.0878 -0.0090 -0.1686
 3094W        W46188  17.788  15.942   5.154  0.0529 -0.2062 -0.1301
 3095W        W46189  17.992  16.853   4.161  0.0711  0.3143 -0.1818
 3096W        W46190  16.641  15.062   4.342  0.0594 -0.1146 -0.1564
 3097W        W46191  16.955  15.151   3.053 -0.3014  0.0490 -0.1100
 3098W        W46192  17.713  16.087   3.948  0.0098 -0.0950 -0.1094
 3099W        W46193  16.613  17.510   5.543  0.2455  0.2757  0.3065
 3100W        W46194  15.093  15.017   3.311  0.0492  0.1158  0.0471
 3101W        W46195  14.722  17.618   2.439  0.1740 -0.1089  0.1124
 3102W        W46196  15.419  17.208   3.489  0.1954  0.0605  0.0172
 3103W        W46197  16.756  14.768   6.524 -0.0394 -0.2510  0.1696
 3104W        W46198  15.199  15.960   4.903 -0.1025  0.2720 -0.1749
 3105W        W46199  14.305  16.664   5.163 -0.0971  0.4215 -0.0506
 3106W        W46200  14.409  15.878   4.193  0.2012  0.1818 -0.0372
 3107W        W46201  18.392  17.555   3.416  0.0206 -0.2122  0.1648
 3108W        W46202  15.645  13.930   5.975 -0.1221 -0.0742 -0.1720
 3109W        W46203  15.400  15.041   4.627  0.3371 -0.1103  0.0566
 3110W        W46204  16.334  17.678   3.734 -0.0033  0.2562 -0.0626
 3111W        W46205  18.006  17.698   5.105 -0.1385  0.2850 -0.2816
 3112W        W46206  16.356  15.277   2.727 -0.2260 -0.1601 -0.0008
 3113W        W46207  16.714  16.970   6.415 -0.1160 -0.0937 -0.1270
 3114W        W46208  14.578  16.486   3.785  0.1987  0.1178  0.0448
 3115W        W46209  16.427  16.519   6.205 -0.0771  0.1822  0.0837
 3116W        W46210  16.666  15.876   6.444  0.0309  0.0777 -0.1231
 3117W        W46211  15.163  14.410   3.449 -0.1662  0.2019  0.1696
 3118W        W46212  15.775  16.193   5.114  0.0255  0.1251 -0.3269
 3119W        W46213  16.037  17.718   4.567 -0.0794 -0.2426 -0.0649
 3120W        W46214  18.008  18.910   4.064 -0.2245 -0.2432  0.2398
 3121W        W46215  16.005  16.782   5.513  0.1442  0.5022  0.1460
 3122W        W46216  17.131  18.375   4.948 -0.1010  0.1038  0.0923
 3123W        W46217  15.290  14.430   5.931  0.0066 -0.1266  0.0313
 3124W        W46218  17.358  15.809   3.144 -0.0706 -0.1886  0.2256
 3125W        W46219  17.778  16.577   3.780 -0.2988 -0.2595 -0.0577
 3126W        W46220  18.222  17.971   2.590 -0.2507 -0.2470  0.1734
 3127W        W46221  18.473  15.441   4.338 -0.0618 -0.0436 -0.1001
 3128W        W46222  16.983  16.757   3.322 -0.3156  0.3280 -0.2321
 3129W        W46223  15.081  14.660   4.967 -0.5592  0.3304  0.0167
 3130W        W46224  16.431  15.681   5.533  0.0382  0.2520 -0.2364
 3131W        W46225  18.768  17.028   5.157  0.2470  0.1362 -0.2680
 3132W        W46226  15.644  14.620   5.097 -0.0629  0.2448 -0.1107
 3133W        W46227  15.640  14.807   4.210  0.1277  0.2506  0.0158
 3134W        W46228  16.358  17.414   4.151  0.1120  0.3969 -0.2618
 3135W        W46229  15.454  14.875   5.737 -0.1921 -0.1038  0.2171
 3136W        W46230  17.191  15.037   4.078  0.0803 -0.0709 -0.1760
 3137W        W46231  16.523  15.986   4.352 -0.0160 -0.0535  0.0990
 3138W        W46232  17.838  17.765   4.644  0.3290 -0.1235  0.2059
 3139W        W46233  16.447  18.062   7.314 -0.2405 -0.2915 -0.2610
 3140W        W46234  15.889  15.420   3.462 -0.0080  0.0153  0.1874
 3141W        W46235  17.870  16.406   2.175  0.1174 -0.2425 -0.0165
 3142W        W46236  16.947  19.009   6.147 -0.0893 -0.0834 -0.3983
 3143W        W46237  17.018  19.182   7.016  0.1462 -0.0805  0.3333
 3144W        W46238  17.110  18.463   4.475 -0.2813 -0.0074  0.1103
 3145W        W46239  18.339  15.970   4.525 -0.0959  0.0316  0.3706
 3146W        W46240  13.626  13.701   4.342 -0.1268  0.0451  0.4869
 3147W        W46241  14.906  15.798   3.670  0.0799 -0.3355  0.0208
 3148W        W46242  15.820  15.834   3.186  0.1489 -0.0590  0.0297
 3149W        W46243  17.794  15.900   5.619 -0.2673 -0.2276 -0.0946
 3150W        W46244  15.819  15.770   4.175  0.2925  0.4812  0.1819
 3151W        W46245  15.397  14.702   3.054  0.1336 -0.0288  0.1555
 3152W        W46246  14.129  18.346   5.219 -0.1141 -0.1404 -0.0942
 3153W        W46247  17.434  16.939   5.327  0.1339  0.1315 -0.3079
 3154W        W46248  13.816  17.113   9.383 -0.0913 -0.1173 -0.0476
 3155W        W46249  14.512  14.888   6.469  0.1635  0.0376 -0.3059
 3156W        W46250  18.358  15.376   5.277  0.2740  0.1951  0.2866
 3157W        W46251  17.562  16.448   7.599 -0.3960 -0.4090  0.1312
 3158W        W46252  16.113  15.209   7.105 -0.0024  0.0794  0.0371
 3159W        W46253  17.807  19.004   7.706  0.1214 -0.2435  0.1260
 3160W        W46254  17.589  18.591   9.313  0.0598  0.2714  0.1140
 3161W        W46255  16.715  16.814   9.029 -0.2029 -0.4061 -0.2167
 3162W        W46256  16.193  17.099   5.849  0.0249  0.0328 -0.5069
 3163W        W46257  15.071  15.505   7.868  0.0298 -0.1310 -0.1743
 3164W        W46258  16.691  14.664   6.986 -0.1814  0.3288 -0.4408
 3165W        W46259  17.348  15.381   9.074 -0.4689  0.1946 -0.2961
 3166W        W46260  16.959  15.797   8.988 -0.0318  0.1325 -0.4044
 3167W        W46261  16.009  15.755   7.885  0.0535  0.0854  0.4942
 3168W        W46262  16.269  15.688   8.382  0.0459 -0.1688  0.0330
 3169W        W46263  15.853  14.824   8.453 -0.1661 -0.0342  0.3236
 3170W        W46264  17.119  16.929   7.642  0.1893  0.1933  0.1285
 3171W        W46265  15.462  13.637   9.728  0.1719 -0.2514 -0.1625
 3172W        W46266  15.144  16.437   8.711 -0.0881 -0.1041 -0.0500
 3173W        W46267  14.166  16.188   5.882  0.0431  0.2135  0.0378
 3174W        W46268  14.641  15.943   9.313 -0.1505 -0.2405  0.1372
 3175W        W46269  17.147  18.541   9.572  0.0744  0.0000 -0.0638
 3176W        W46270  19.131  15.087   9.306  0.1328  0.1904  0.1894
 3177W        W46271  16.167  16.779   7.693  0.1973  0.1600 -0.2612
 3178W        W46272  16.893  17.291   9.018 -0.1023  0.2525 -0.2684
 3179W        W46273  16.206  16.056   9.573 -0.1217  0.0323 -0.3513
 3180W        W46274  14.010  16.781   7.699  0.2323 -0.3916 -0.1172
 3181W        W46275  13.664  19.322   8.207  0.1267 -0.0508  0.0515
 3182W        W46276  15.571  16.439   8.941  0.0442 -0.1344  0.0301
 3183W        W46277  17.972  18.376   8.344  0.2720  0.3277  0.0541
 3184W        W46278  15.920  17.409   6.776 -0.1912  0.0524 -0.0267
 3185W        W46279  16.216  16.247   9.082  0.2790 -0.2558  0.1628
 3186W        W46280  16.098  15.231   7.621 -0.2115  0.2744 -0.0852
 3187W        W46281  15.872  16.541   6.414 -0.0944  0.0356 -0.0338
 3188W        W46282  16.556  15.432   7.305 -0.1602 -0.1084 -0.2943
 3189W        W46283  15.115  17.222   8.581 -0.1510  0.2151  0.1475
 3190W        W46284  16.373  17.073   5.303 -0.0327  0.1359 -0.1032
 3191W        W46285  16.523  16.805   6.835 -0.0953 -0.0053  0.0539
 3192W        W46286  15.500  15.595   6.625  0.1930 -0.1207 -0.2436
 3193W        W46287  17.285  16.312   6.972  0.0043 -0.0283  0.0244
 3194W        W46288  15.586  13.710   8.159  0.1322 -0.2371 -0.0655
 3195W        W46289  16.221  16.662   7.230  0.0265  0.0145  0.2449
 3196W        W46290  17.264  13.869   9.670  0.0496  0.1576  0.0091
 3197W        W46291  16.625  16.645   7.525  0.1186  0.2252  0.0834
 3198W        W46292  17.690  15.439   8.616 -0.0577  0.1599 -0.0310
 3199W        W46293  15.890  16.098   8.183 -0.1812 -0.0937 -0.1686
 3200W        W46294  13.528  14.488   8.342  0.0624 -0.3524  0.0119
 3201W        W46295  18.190  17.143   7.755  0.1243 -0.1728  0.2897
 3202W        W46296  16.989  18.110   7.608 -0.3022 -0.1662 -0.1265
 3203W        W46297  16.474  17.855   6.127  0.1059 -0.1579 -0.1283
 3204W        W46298  15.965  15.695   7.222 -0.1189  0.2373 -0.3030
 3205W        W46299  15.227  14.834   6.970 -0.0356  0.4082  0.2542
 3206W        W46300  18.931  14.810   6.859 -0.1491  0.1843 -0.0244
 3207W        W46301  15.905  16.286   8.670 -0.0157 -0.0172  0.1154
 3208W        W46302  18.617  18.210  10.117 -0.0169  0.0530 -0.1480
 3209W        W46303  17.149  17.424   7.324 -0.2022  0.3801  0.0497
 3210W        W46304  17.724  14.660   7.187  0.0619 -0.3632  0.0017
 3211W        W46305  17.139  16.987   8.777 -0.1538  0.2812 -0.0110
 3212W        W46306  16.224  16.022   6.257  0.3056 -0.0600  0.3691
 3213W        W46307  16.142  16.298   7.796 -0.0828  0.1372  0.0416
 3214W        W46308  21.211  18.785  10.601  0.0305  0.2511  0.0771
 3215W        W46309  18.264  18.534   6.605 -0.0855 -0.1236  0.1015
 3216W        W46310  14.497  18.827   8.479  0.1923 -0.1002 -0.2560
 3217W        W46311  14.881  18.187   6.454 -0.0436  0.0158  0.1036
 3218W        W46312  15.239  16.010   9.144 -0.1204  0.1704  0.1034
 3219W        W46313  15.816  17.116   5.110  0.0046  0.0778 -0.1064
 3220W        W46314  15.242  15.223   9.806  0.4515  0.0954  0.2308
 3221W        W46315  16.565  15.692   9.876  0.0815 -0.0856 -0.0906
 3222W        W46316  19.264  17.107   8.046  0.2424 -0.2091 -0.0600
 3223W        W46317  17.086  14.949   8.987 -0.1907 -0.1345  0.1608
 3224W        W46318  15.170  17.468   7.276  0.1732  0.2960  0.0854
 3225W        W46319  18.103  18.203   7.873  0.0755 -0.1696 -0.0561
 3226W        W46320  16.795  16.480   7.067  0.1354 -0.1241 -0.3754
 3227W        W46321  17.256  17.680   6.899  0.1535 -0.0149 -0.3229
 3228W        W46322  14.880  15.624   8.931 -0.1568  0.0799 -0.2173
 3229W        W46323  15.392  15.945   8.080 -0.0316 -0.0325  0.1908
 3230W        W46324  16.285  15.290   9.117  0.2040  0.0766 -0.1519
 3231W        W46325  14.537  14.276   8.052 -0.0007 -0.0282 -0.0526
 3232W        W46326  17.788  15.008   8.270 -0.0061 -0.0197  0.1643
 3233W        W46327  15.338  16.727   6.632 -0.0575  0.2250  0.1921
 3234W        W46328  15.690  15.958   7.567  0.2014 -0.0123 -0.1791
 3235W        W46329  15.698  17.483   7.921  0.5289  0.1741 -0.0054
 3236W        W46330  19.448  18.316   9.899  0.0323 -0.5104  0.1438
 3237W        W46331  17.075  17.676   7.780 -0.0934  0.2361  0.1609
 3238W        W46332  15.659  13.041   8.346  0.6304  0.1247  0.0734
 3239W        W46333  14.522  15.360   5.499  0.1461 -0.1301  0.0827
 3240W        W46334  14.574  17.192   8.731 -0.1252  0.0076  0.0653
 3241W        W46335  17.306  17.637   8.795 -0.0332  0.2413 -0.1191
 3242W        W46336  15.596  15.490   7.678 -0.1680  0.2251  0.0510
 3243W        W46337  17.215  17.073   8.270 -0.0117 -0.0883 -0.1580
 3244W        W46338  16.931  16.511   7.966  0.0201  0.0408 -0.2886
 3245W        W46339  17.778  14.993   8.783 -0.1011  0.2881 -0.0058
 3246W        W46340  15.599  14.379   7.903  0.1956  0.2137 -0.2369
 3247W        W46341  15.643  16.469   5.674  0.2468  0.2277  0.1694
 3248W        W46342  16.983  18.966   8.223 -0.1810  0.2807 -0.0615
 3249W        W46343  14.112  15.629   6.698 -0.1219  0.1057  0.1898
 3250W        W46344  14.155  16.432   8.033  0.4101  0.0114 -0.0860
 3251W        W46345  16.540  18.509   8.021 -0.2718  0.1278  0.1116
 3252W        W46346  16.927  14.841   8.494 -0.3110 -0.0790  0.0990
 3253W        W46347  14.432  15.553   7.174 -0.0583 -0.1170 -0.4385
 3254W        W46348  17.333  15.143   7.809  0.1364 -0.1797 -0.1545
 3255W        W46349  17.407  14.196   7.125 -0.0703 -0.2826 -0.0889
 3256W        W46350  16.449  17.299   6.661  0.1263 -0.3550  0.0564
 3257W        W46351  17.283  16.483   6.267  0.0598  0.2037 -0.2702
 3258W        W46352  16.857  15.233   7.639 -0.2421  0.0166 -0.0565
 3259W        W46353  16.441  17.193   8.726 -0.0468 -0.1806 -0.1351
 3260W        W46354  16.184  17.756   7.557 -0.1007  0.0269  0.0467
 3261W        W46355  17.064  16.776   6.717 -0.1848  0.1231 -0.0474
 3262W        W46356  19.948  17.293   8.341  0.1704  0.0319  0.0601
 3263W        W46357  14.793  16.122   8.823 -0.0989  0.3685 -0.0555
 3264W        W46358  17.388  17.593   8.297 -0.3979  0.0165  0.1152
 3265W        W46359  17.010  14.303   9.975  0.4136  0.0281 -0.1009
 3266W        W46360  15.505  16.140   6.479 -0.1071  0.1310  0.0521
 3267W        W46361  15.571  15.237   8.175 -0.3681 -0.0873  0.1109
 3268W        W46362  14.938  17.241   6.885  0.4337  0.1823 -0.0617
 3269W        W46363  16.446  14.692   9.802  0.0679  0.3790  0.0649
 3270W        W46364  17.517  15.546   8.091  0.0019 -0.0922 -0.0465
 3271W        W46365  17.258  16.776   7.185 -0.0031  0.0790 -0.0687
 3272W        W46366  16.790  16.304   8.983 -0.2369  0.2034  0.1518
 3273W        W46367  15.305  15.744   7.411 -0.1374 -0.3792 -0.1876
 3274W        W46368  16.331  16.624   8.145  0.0343  0.0845 -0.3656
 3275W        W46369  15.320  15.666  10.053 -0.1257  0.3040 -0.2775
 3276W        W46370  17.370  16.629   9.099  0.0669 -0.0353  0.2366
 3277W        W46371  16.900  15.099   7.134  0.3488 -0.1060  0.1022
 3278W        W46372  14.413  16.119   7.421 -0.0839  0.3776 -0.0108
 3279W        W46373  16.392  15.532   6.178 -0.0903  0.2366 -0.0099
 3280W        W46374  15.921  13.894   8.761 -0.0976  0.0088  0.0093
 3281W        W46375  17.841  17.251   9.532 -0.2149 -0.0375  0.1632
 3282W        W46376  16.221  17.434   5.028  0.0488  0.1076 -0.0239
 3283W        W46377  14.442  20.952   9.201 -0.2685 -0.0952  0.0148
 3284W        W46378  14.868  16.874   6.431 -0.0740 -0.4814  0.4523
 3285W        W46379  18.760  14.479   8.440 -0.1191 -0.0303 -0.0048
 3286W        W46380  15.664  16.848   9.761 -0.3006 -0.1588 -0.2586
 3287W        W46381  15.175  15.867   6.309 -0.0468  0.0950  0.1470
 3288W        W46382  13.790  15.988   6.139  0.1087  0.1960 -0.0629
 3289W        W46383  18.527  16.124   6.293  0.2000  0.1344 -0.1061
 3290W        W46384  17.539  16.683   6.752  0.0079 -0.0582 -0.1525
 3291W        W46385  14.709  15.687   7.595 -0.0755  0.0715  0.2418
 3292W        W46386  17.004  13.798   9.248 -0.3844  0.1505 -0.0338
 3293W        W46387  14.149  16.765   9.610 -0.1766  0.4632  0.3267
 3294W        W46388  18.185  16.577   5.895 -0.0832  0.0359  0.0808
 3295W        W46389  14.903  15.457   5.109 -0.2496 -0.1400 -0.0840
 3296W        W46390  17.219  15.211   9.668  0.2431  0.1290  0.4343
 3297W        W46391  16.939  14.840   7.988 -0.0664  0.2612  0.1545
 3298W        W46392  13.845  16.505   6.683 -0.1873 -0.3173 -0.1622
 3299W        W46393  17.910  18.074   8.843 -0.0237 -0.2161  0.0114
 3300W        W46394  14.614  16.689   7.986 -0.3344 -0.1863 -0.1445
 3301W        W46395  15.055  16.759   7.024  0.2161  0.0366 -0.1069
 3302W        W46396  16.277  18.192   9.325 -0.0443 -0.2407 -0.1714
 3303W        W46397  16.323  17.029   9.725 -0.1567  0.1508  0.0072
 3304W        W46398  15.805  14.526   6.566 -0.1835  0.1540 -0.0541
 3305W        W46399  16.444  15.876   7.553  0.1385 -0.0644 -0.1579
 3306W        W46400  18.141  18.885   9.928  0.1467  0.1966  0.0329
 3307W        W46401  15.953  14.844   9.917  0.2478  0.0229 -0.2621
 3308W        W46402  17.599  15.060   9.378  0.2707 -0.0997  0.0906
 3309W        W46403  18.092  19.448   7.552  0.3749  0.0767  0.0354
 3310W        W46404  13.937  15.232   7.193 -0.1277 -0.0158 -0.3039
 3311W        W46405  17.763  14.496   9.395 -0.0134 -0.0478 -0.0939
 3312W        W46406  14.397  15.652   6.274 -0.1859 -0.2037 -0.2925
 3313W        W46407  16.095  15.180   8.158  0.0537 -0.0481 -0.2465
 3314W        W46408  15.182  17.271   9.416  0.1705 -0.0177 -0.0177
 3315W        W46409  15.295  16.341   5.321 -0.0058  0.0004 -0.1444
 3316W        W46410  17.324  16.164   9.117  0.2646  0.1102 -0.1653
 3317W        W46411  17.957  14.870   6.810 -0.2675 -0.4559 -0.1836
 3318W        W46412  15.201  17.348   5.783 -0.1579  0.0273  0.1939
 3319W        W46413  16.216  15.502   6.631 -0.0507 -0.0836  0.2789
 3320W        W46414  15.995  16.878   6.837  0.0631 -0.0402  0.0170
 3321W        W46415  15.055  15.172   8.870  0.0564  0.0858 -0.1327
 3322W        W46416  17.010  18.120   8.194 -0.1070 -0.0335 -0.2304
 3323W        W46417  17.037  15.419   8.688  0.0620  0.4875  0.1448
 3324W        W46418  14.425  14.253   7.331 -0.2709  0.2015 -0.1297
 3325W        W46419  15.762  17.316   9.419  0.3417 -0.3523  0.2611
 3326W        W46420  18.151  17.592   8.819 -0.0080  0.0472 -0.0692
 3327W        W46421  16.712  17.018   8.339  0.3841  0.1346  0.5965
 3328W        W46422  18.007  16.143   7.535 -0.0107 -0.0576  0.2875
 3329W        W46423  15.904  18.093   8.463 -0.2166 -0.3031  0.1251
 3330W        W46424  17.662  16.085   8.353 -0.2431  0.1539  0.1502
 3331W        W46425  15.481  17.083   7.016 -0.1750 -0.0169  0.3208
 3332W        W46426  14.872  16.433   9.165 -0.2278  0.0090 -0.1571
 3333W        W46427  18.332  18.526   9.577 -0.3924 -0.2285  0.2133
 3334W        W46428  17.539  15.529   7.568 -0.2169 -0.2084 -0.0486
 3335W        W46429  17.996  18.746   9.027 -0.1102  0.1111  0.1392
 3336W        W46430  18.167  17.401   6.849 -0.0989  0.3057 -0.1283
 3337W        W46431  16.494  14.340   9.460 -0.1543 -0.0918 -0.1138
 3338W        W46432  17.941  16.783   8.017  0.1721 -0.2121  0.0539
 3339W        W46433  16.805  16.989   7.221 -0.1083  0.2206 -0.0820
 3340W        W46434  14.695  15.208   7.638  0.0213 -0.2661 -0.2493
 3341W        W46435  14.082  13.946   7.723  0.5540  0.0039  0.0972
 3342W        W46436  16.229  16.945   6.338  0.0387  0.3030  0.2520
 3343W        W46437  16.566  18.044   8.453  0.0687 -0.0065 -0.0200
 3344W        W46438  16.938  15.740   6.948 -0.1047 -0.1202 -0.1453
 3345W        W46439  14.501  15.522   8.020 -0.0218  0.4678  0.0248
 3346W        W46440  16.661  15.367   4.788 -0.0462 -0.0907  0.0274
 3347W        W46441  16.041  16.375   5.933 -0.0365  0.1244  0.3193
 3348W        W46442  16.048  14.760   9.461 -0.0653 -0.0838 -0.0560
 3349W        W46443  15.332  15.289   6.255 -0.1090 -0.1186 -0.1031
 3350W        W46444  13.962  15.756   7.344  0.2740  0.1253 -0.2857
 3351W        W46445  16.470  14.811   8.466 -0.2665  0.2204  0.0014
 3352W        W46446  14.801  19.092   8.977  0.1644  0.1622  0.0304
 3353W        W46447  16.182  15.272   8.640 -0.1704 -0.3564  0.3368
 3354W        W46448  18.253  15.229   8.523 -0.1365  0.3216 -0.0855
 3355W        W46449  17.605  16.014   7.284  0.0646 -0.1563  0.0296
 3356W        W46450  16.113  17.096   8.341 -0.1487  0.1460  0.0068
 3357W        W46451  16.790  16.091   9.493 -0.1501  0.1295  0.0273
 3358W        W46452  17.360  17.297   7.814 -0.0612 -0.0465  0.2204
 3359W        W46453  14.917  16.948   9.068 -0.0303  0.1248  0.1942
 3360W        W46454  17.894  17.122   9.028  0.3227 -0.3643  0.1185
 3361W        W46455  14.994  14.048   7.420  0.2215 -0.0477 -0.1873
 3362W        W46456  16.789  17.769   5.076 -0.2665  0.3427 -0.1249
 3363W        W46457  15.038  16.750   9.520  0.0690  0.4650 -0.0329
 3364W        W46458  15.520  17.607   5.427  0.2317  0.1472 -0.2965
 3365W        W46459  15.562  16.516   8.402  0.0687 -0.1228 -0.1685
 3366W        W46460  16.865  16.038   7.773  0.0409 -0.4407 -0.2717
 3367W        W46461  17.928  16.195   9.645  0.0597 -0.1113  0.3354
 3368W        W46462  14.550  15.411   6.670 -0.1843 -0.0281  0.2906
 3369W        W46463  15.381  16.429   7.853  0.0242  0.1083 -0.2171
 3370W        W46464  14.238  17.823   7.059  0.2080  0.2081 -0.2468
 3371W        W46465  16.632  17.113   7.808  0.1804 -0.1184  0.1330
 3372W        W46466  16.245  17.722   7.022  0.0913  0.0690  0.1545
 3373W        W46467  18.169  16.087   5.917  0.2606 -0.0562 -0.0323
 3374W        W46468  18.355  16.795   8.261 -0.0410  0.2936 -0.0664
 3375W        W46469  18.386  16.715   6.489 -0.0382 -0.1264 -0.2498
 3376W        W46470  15.932  17.286   8.736  0.2396 -0.2509 -0.1119
 3377W        W46471  16.792  16.402   6.531  0.1033  0.3038 -0.0318
 3378W        W46472  18.666  17.692   7.987 -0.0808 -0.1737 -0.2915
 3379W        W46473  15.055  15.777   6.772  0.2543 -0.0342  0.3160
 3380W        W46474  17.210  14.387   8.658 -0.0800 -0.0380 -0.0612
 3381W        W46475  17.862  15.858   8.756 -0.0902  0.3527  0.1760
 3382W        W46476  17.882  16.783   5.544 -0.0832 -0.0134 -0.3353
 3383W        W46477  16.875  15.885   8.509  0.2141 -0.0578 -0.0243
 3384W        W46478  14.483  16.729   7.458  0.0646 -0.2091 -0.2266
 3385W        W46479  14.955  17.906   9.124 -0.2374  0.0701  0.2551
 3386W        W46480  16.310  17.598   8.549  0.3101  0.1287  0.3659
 3387W        W46481  14.241  15.011   6.890 -0.0558 -0.0438  0.0617
 3388W        W46482  17.964  15.277   7.115 -0.1081 -0.0379  0.0515
 3389W        W46483  15.148  15.482   8.413  0.0655  0.2774 -0.2557
 3390W        W46484  16.526  15.597   8.809  0.1911 -0.0895 -0.1629
 3391W        W46485  16.969  15.526   8.125 -0.2368  0.1999  0.1473
 3392W        W46486  17.651  17.634   9.142  0.1690  0.2032 -0.0676
 3393W        W46487  17.268  14.715   9.446  0.1597  0.1023 -0.1554
 3394W        W46488  15.680  16.491   6.984 -0.0441 -0.0417  0.0277
 3395W        W46489  15.759  16.890   6.043 -0.0815 -0.3370 -0.3799
 3396W        W46490  15.857  15.199   6.527 -0.1667 -0.1622  0.0642
 3397W        W46491  17.336  15.278   7.205  0.0608  0.0632 -0.1460
 3398W        W46492  15.653  16.908   7.890  0.2962 -0.3015 -0.3953
 3399W        W46493  15.472  15.952   8.611  0.0291  0.1786 -0.2006
 3400W        W46494  14.857  15.136   8.189 -0.0991  0.1275 -0.0403
 3401W        W46495  16.623  16.612   5.211  0.0464  0.1157  0.3838
 3402W        W46496  17.999  15.497   8.215 -0.0684  0.0155 -0.1245
 3403W        W46497  15.299  16.926   6.147 -0.1922 -0.1324 -0.0832
 3404W        W46498  18.510  16.064   9.892 -0.0600  0.0880  0.0531
 3405W        W46499  18.134  17.649   7.758 -0.2243 -0.0811  0.0457
 3406W        W46500  14.613  15.403   8.571  0.2476 -0.0152 -0.0048
 3407W        W46501  17.791  16.761   9.361 -0.0636  0.1017  0.0490
 3408W        W46502  18.231  15.958   8.305 -0.0184 -0.3014  0.0889
 3409W        W46503  16.245  14.845   6.654  0.0261 -0.1667  0.0562
 3410W        W46504  16.046  15.798   8.798 -0.1856  0.1613 -0.1213
 3411W        W46505  14.783  17.850   7.223  0.2153  0.0096 -0.0700
 3412W        W46506  16.623  15.095   8.828  0.0285 -0.1533 -0.2154
 3413W        W46507  15.929  18.547   5.708 -0.0594  0.3710  0.0864
 3414W        W46508  17.178  18.480   8.899  0.5183 -0.0310 -0.0383
 3415W        W46509  15.973  15.923   5.690 -0.0968  0.0936  0.1202
 3416W        W46510  15.311  16.244   7.324 -0.0839 -0.0286  0.0161
 3417W        W46511  15.664  17.056   6.499  0.0287 -0.0598  0.1547
 3418W        W46512  19.330  18.107   9.416 -0.0291  0.1431  0.1196
 3419W        W46513  16.767  16.379   8.448 -0.1322  0.1183 -0.0540
 3420W        W46514  17.138  17.682   9.262  0.1636 -0.0501  0.0566
 3421W        W46515  16.605  15.218   8.325  0.2785  0.0451 -0.3320
 3422W        W46516  18.358  15.742   6.744 -0.0191 -0.2657  0.2816
 3423W        W46517  17.620  15.227   6.748 -0.0753 -0.2093  0.3589
 3424W        W46518  18.470  17.260   9.044  0.0973  0.1042 -0.2371
 3425W        W46519  13.268  15.957   5.931  0.1895  0.2616  0.1124
 3426W        W46520  15.630  17.359   6.114 -0.4658  0.3137  0.3938
 3427W        W46521  15.675  15.958   9.673 -0.0841 -0.0387 -0.1634
 3428W        W46522  16.309  16.035  10.176  0.1261 -0.1253 -0.3175
 3429W        W46523  16.113  13.264   8.326  0.0018  0.1839 -0.0302
 3430W        W46524  17.712  17.455   7.505 -0.0958  0.0631 -0.1466
 3431W        W46525  16.310  14.063   9.035  0.0985 -0.1845  0.0136
 3432W        W46526  15.776  14.388   8.745  0.0622  0.1181 -0.1778
 3433W        W46527  16.197  16.583   9.912 -0.0769  0.2000 -0.1539
 3434W        W46528  18.034  18.583   7.569 -0.0294  0.2730 -0.0273
 3435W        W46529  16.117  15.408   5.782  0.0318  0.1583  0.2204
 3436W        W46530  13.637  16.446   7.167  0.3897 -0.0110 -0.1944
 3437W        W46531  14.039  13.701   6.027 -0.1145 -0.3885 -0.1609
 3438W        W46532  16.463  16.098   8.124  0.2809 -0.0039 -0.0554
 3439W        W46533  15.412  16.908   8.816 -0.0859 -0.1072  0.0260
 3440W        W46534  16.625  17.572   7.572  0.2862 -0.1185  0.2531
 3441W        W46535  14.124  15.401   8.599 -0.3974 -0.1238 -0.0317
 3442W        W46536  16.065  16.206   7.226 -0.2205  0.0795  0.0241
 3443W        W46537  18.496  17.885   7.521  0.0262 -0.0220  0.0942
 3444W        W46538  18.756  12.937   9.212  0.2956  0.1202 -0.2223
 3445W        W46539  17.058  15.684   7.461 -0.1310 -0.0196 -0.1260
 3446W        W46540  17.762  17.306   8.052 -0.1721  0.0283 -0.1288
 3447W        W46541  14.874  14.561   8.194 -0.0586  0.0334  0.3132
 3448W        W46542  17.922  15.769   6.953 -0.1130 -0.0213  0.1805
 3449W        W46543  17.577  18.131   6.838 -0.1278  0.1223 -0.0815
 3450W        W46544  15.487  16.900   9.283 -0.0039  0.0327  0.1172
 3451W        W46545  16.489  15.916   6.923  0.2541 -0.3487  0.0643
 3452W        W46546  15.939  16.774   8.870 -0.0929 -0.0321 -0.0034
 3453W        W46547  15.954  15.931   6.683 -0.1888  0.2770 -0.2706
 3454W        W46548  17.872  17.829   8.325  0.0203 -0.3397 -0.1088
 3455W        W46549  18.148  20.780   8.883  0.0316  0.0602 -0.0009
 3456W        W46550  17.491  14.679   8.986  0.0863 -0.1748 -0.0976
 3457W        W46551  17.387  17.165   9.226 -0.3283 -0.1279  0.0035
 3458W        W46552  16.244  14.332   8.537 -0.0860  0.4646 -0.2293
 3459W        W46553  16.463  15.469   7.862 -0.0159  0.1241 -0.1424
 3460W        W46554  16.434  16.098   8.682  0.1274 -0.2341 -0.2088
 3461W        W46555  17.461  18.099   8.549  0.1855 -0.3084  0.2660
 3462W        W46556  15.525  15.996   6.980 -0.2762  0.0877  0.1325
 3463W        W46557  16.922  14.725   7.536  0.1118  0.1238 -0.1317
 3464W        W46558  16.236  18.070   8.842  0.0802 -0.2157  0.0729
 3465W        W46559  17.745  17.416   8.620  0.1700  0.2092  0.2887
 3466W        W46560  15.087  19.712   1.116  0.1055  0.1154 -0.2012
 3467W        W46561  14.928  18.935  31.271  0.2308 -0.0739  0.0303
 3468W        W46562  16.525  18.814  29.752 -0.1792 -0.1836 -0.0258
 3469W        W46563  17.117  18.617  30.486 -0.1236 -0.1401  0.0771
 3470W        W46564  16.233  17.512  30.886  0.0872  0.2028 -0.2072
 3471W        W46565  17.234  19.851  31.459  0.0009  0.0077  0.1629
 3472W        W46566  14.164  17.580   0.794 -0.0773  0.0699 -0.2162
 3473W        W46567  18.397  20.319   1.777  0.2403 -0.0317  0.3447
 3474W        W46568  16.532  20.804   1.872 -0.0927  0.2869  0.1400
 3475W        W46569  16.306  19.478  29.808  0.1949  0.4470  0.2224
 3476W        W46570  15.486  18.083   0.239  0.2291  0.1815  0.3056
 3477W        W46571  15.355  20.124   2.212 -0.1009 -0.1570 -0.0813
 3478W        W46572  16.387  17.994  30.814 -0.1818 -0.0298  0.2798
 3479W        W46573  14.544  18.872   0.101  0.1257  0.3227  0.1361
 3480W        W46574  16.722  18.522   1.014 -0.2382 -0.2097  0.1535
 3481W        W46575  15.353  18.605  30.577 -0.0686 -0.0828 -0.0081
 3482W        W46576  14.966  18.271   0.707  0.1128  0.1480 -0.4061
 3483W        W46577  16.361  18.190  31.239  0.2022 -0.2615  0.2089
 3484W        W46578  14.782  21.081   0.798  0.1852  0.2405 -0.1364
 3485W        W46579  15.724  18.469   2.581 -0.2043 -0.0109  0.0418
 3486W        W46580  16.494  18.490   2.883  0.2500 -0.1291  0.2512
 3487W        W46581  15.999  20.961  31.497 -0.3810 -0.3584  0.1767
 3488W        W46582  15.146  18.187  30.774  0.1442 -0.4295 -0.2173
 3489W        W46583  15.640  19.591   0.558 -0.1415  0.2244 -0.2352
 3490W        W46584  14.798  19.270   0.972 -0.0932  0.1091  0.1675
 3491W        W46585  17.018  17.451   0.215 -0.3007 -0.1036 -0.3514
 3492W        W46586  17.174  17.965  31.900 -0.0952 -0.2171 -0.1229
 3493W        W46587  15.503  20.840  31.467 -0.3702 -0.1812 -0.2771
 3494W        W46588  16.040  21.383   0.712 -0.1669  0.0470  0.1601
 3495W        W46589  17.012  19.794   1.440  0.1335 -0.2442 -0.1331
 3496W        W46590  15.105  20.489   0.817 -0.2695  0.0887 -0.0836
 3497W        W46591  13.780  21.283   1.348 -0.0066 -0.2112  0.1181
 3498W        W46592  16.699  19.867  31.605 -0.2527  0.0331  0.3059
 3499W        W46593  17.394  20.867   0.653  0.3771  0.2782  0.0319
 3500W        W46594  16.460  20.343   2.457 -0.0814  0.1443 -0.0524
 3501W        W46595  16.090  20.922   2.961  0.0373 -0.0934 -0.0150
 3502W        W46596  15.250  20.592  30.467 -0.1329  0.1009 -0.2876
 3503W        W46597  16.497  20.979   3.991  0.0456  0.0038  0.1231
 3504W        W46598  15.764  20.946   1.949  0.0699  0.1421  0.0117
 3505W        W46599  17.142  18.431   0.165 -0.2407 -0.1948  0.0554
 3506W        W46600  15.630  19.020   0.413 -0.1290 -0.1615  0.0381
 3507W        W46601  15.231  20.006  30.901  0.0136  0.1614 -0.2163
 3508W        W46602  16.256  20.149  31.787 -0.2980 -0.0138 -0.1001
 3509W        W46603  15.719  20.214   3.586  0.0044  0.0952 -0.0590
 3510W        W46604  15.148  19.924   1.783  0.3175 -0.2823  0.0696
 3511W        W46605  18.255  20.358   3.116 -0.1390 -0.2769  0.2997
 3512W        W46606  16.238  20.765  31.928  0.3120 -0.2021  0.2474
 3513W        W46607  18.212  18.118  29.718  0.3644 -0.3386 -0.2974
 3514W        W46608  16.318  18.435  29.431  0.2295 -0.0995  0.2300
 3515W        W46609  17.608  18.247  31.830 -0.2175 -0.4255 -0.3398
 3516W        W46610  17.246  16.891   1.082 -0.0799  0.0470  0.2774
 3517W        W46611  15.767  20.849  31.917 -0.2464 -0.1714 -0.3410
 3518W        W46612  13.745  18.411   0.035  0.2658  0.2359 -0.1580
 3519W        W46613  16.756  19.454   2.142  0.2374  0.1006  0.2905
 3520W        W46614  16.284  18.606  30.998  0.1806  0.1813  0.2080
 3521W        W46615  16.445  19.841   0.661 -0.0023 -0.1748  0.1278
 3522W        W46616  15.473  20.026   0.858  0.7586 -0.0666  0.3713
 3523W        W46617  15.980  19.305   0.076 -0.0050 -0.2567  0.2077
 3524W        W46618  18.604  20.134   0.975  0.0764  0.0170 -0.0925
 3525W        W46619  16.923  21.250   1.055  0.3153  0.3314 -0.1875
 3526W        W46620  17.305  19.591  30.959 -0.2379  0.1026 -0.1135
 3527W        W46621  15.068  20.656   0.159 -0.0993 -0.2176  0.1081
 3528W        W46622  14.981  18.863   0.702 -0.2522 -0.2606 -0.2095
 3529W        W46623  15.363  18.029   1.450  0.2251  0.0333 -0.1996
 3530W        W46624  16.180  17.679  29.119 -0.0146 -0.4032  0.4613
 3531W        W46625  17.351  20.149   3.032  0.1264  0.1335  0.0650
 3532W        W46626  15.225  20.057   3.584  0.0472  0.1399  0.0470
 3533W        W46627  16.901  18.690   1.520  0.0844 -0.0929 -0.1521
 3534W        W46628  15.394  20.359  31.891 -0.2043  0.2817 -0.0494
 3535W        W46629  17.493  20.255   2.185  0.0757 -0.2183 -0.1336
 3536W        W46630  17.138  19.346  29.325 -0.4216 -0.2193 -0.0239
 3537W        W46631  16.571  17.254   0.475  0.2529 -0.0294  0.2946
 3538W        W46632  17.130  19.225   1.486  0.5808 -0.0303  0.1143
 3539W        W46633  16.306  20.421  29.626  0.1047  0.1662 -0.0716
 3540W        W46634  16.035  19.376  31.259 -0.1859 -0.0900 -0.2426
 3541W        W46635  18.341  21.624   1.639  0.2615 -0.2971 -0.1833
 3542W        W46636  16.446  18.862  29.240 -0.1014  0.0180  0.3083
 3543W        W46637  15.557  21.500   0.467 -0.0636 -0.0556 -0.0842
 3544W        W46638  17.488  18.889   0.378  0.0610  0.0145  0.1316
 3545W        W46639  16.140  21.171   1.142  0.2240  0.0293 -0.1521
 3546W        W46640  16.621  20.750  31.066 -0.0419 -0.0817  0.1746
 3547W        W46641  15.153  19.497  30.440  0.0084  0.1493 -0.0661
 3548W        W46642  15.608  19.700  30.750 -0.1043  0.0827  0.2215
 3549W        W46643  14.167  17.920   1.275 -0.2501  0.1096  0.0974
 3550W        W46644  15.743  19.220   1.446 -0.0624  0.0887 -0.0145
 3551W        W46645  17.091  17.801   1.548 -0.0582 -0.0150 -0.1510
 3552W        W46646  15.607  17.403   2.449 -0.1811 -0.0345  0.1282
 3553W        W46647  18.049  17.479   1.366  0.0831  0.2409  0.0083
 3554W        W46648  13.837  19.116   1.128 -0.1962  0.2081  0.0799
 3555W        W46649  15.988  21.491  31.156  0.3071 -0.3428 -0.1584
 3556W        W46650  16.890  18.703  28.839  0.2217 -0.2660  0.2123
 3557W        W46651  16.382  20.240  30.905  0.4657 -0.0633  0.0166
 3558W        W46652  14.001  18.169   1.667 -0.1720  0.0316  0.0383
 3559W        W46653  14.042  19.864   0.133 -0.0354 -0.0666  0.0602
 3560W        W46654  15.257  18.385   2.378  0.1375  0.2195  0.2506
 3561W        W46655  15.051  18.606  31.635 -0.0343  0.0926 -0.0468
 3562W        W46656  16.522  19.825   1.157  0.3240  0.4290 -0.0358
 3563W        W46657  15.165  19.114  29.824 -0.1257  0.1336 -0.0835
 3564W        W46658  16.650  18.481   0.500  0.2348 -0.1072  0.2171
 3565W        W46659  15.345  21.746  31.886 -0.2859 -0.1967 -0.0394
 3566W        W46660  15.604  19.201  31.189  0.0064  0.1065  0.1840
 3567W        W46661  17.555  18.607   2.325 -0.1187 -0.0491  0.2114
 3568W        W46662  17.594  20.614  30.899  0.2127  0.1221 -0.1344
 3569W        W46663  17.405  21.375   2.003 -0.1983 -0.2862  0.1666
 3570W        W46664  16.930  21.289   1.745 -0.2958 -0.0633  0.1880
 3571W        W46665  16.279  18.377   1.018 -0.3408  0.2648 -0.1142
 3572W        W46666  15.246  19.474  29.418  0.0456 -0.1801 -0.2316
 3573W        W46667  14.314  22.206  31.698  0.0122  0.1069  0.2899
 3574W        W46668  16.033  19.662   1.460  0.1934  0.0314  0.1833
 3575W        W46669  15.648  19.526  30.209  0.1945  0.3521 -0.2073
 3576W        W46670  17.783  20.808   1.436  0.2777 -0.2351  0.1491
 3577W        W46671  16.365  19.045  31.175  0.2045 -0.2473  0.0730
 3578W        W46672  14.698  20.118   0.864 -0.1545  0.1854  0.1074
 3579W        W46673  17.766  18.237   2.697  0.1008  0.0534  0.1078
 3580W        W46674  17.199  19.362   1.967 -0.2604 -0.0698  0.0011
 3581W        W46675  17.178  19.146   0.692  0.2498 -0.3960  0.1353
 3582W        W46676  16.016  19.485  29.353  0.0389 -0.0597 -0.2340
 3583W        W46677  16.418  21.278   1.582 -0.2314  0.3055 -0.1872
 3584W        W46678  14.126  21.548  31.046 -0.0822 -0.0730  0.1462
 3585W        W46679  14.241  20.534  30.639 -0.2474 -0.3540 -0.0947
 3586W        W46680  15.285  22.215  31.550  0.1771 -0.0537  0.1835
 3587W        W46681  17.448  16.662   0.188  0.0001 -0.2551 -0.0839
 3588W        W46682  14.488  19.314   3.725  0.3171 -0.1002  0.1386
 3589W        W46683  16.610  19.914   2.318  0.0984  0.2919  0.1167
 3590W        W46684  15.451  18.936  29.368  0.1412  0.1320  0.0346
 3591W        W46685  14.615  20.591   1.078  0.0166 -0.1753  0.0752
 3592W        W46686  16.579  17.573  31.325 -0.2570 -0.1087  0.1335
 3593W        W46687  17.631  17.798   0.154  0.1803  0.2842  0.1289
 3594W        W46688  16.102  19.371   0.558 -0.3488  0.1620  0.4067
 3595W        W46689  16.929  20.919   1.405 -0.1109 -0.0537 -0.0112
 3596W        W46690  17.344  18.157  31.386 -0.0588 -0.3460  0.4012
 3597W        W46691  16.242  17.219  29.439 -0.0835 -0.1104 -0.0456
 3598W        W46692  15.657  20.493   2.131 -0.0665 -0.1778  0.4234
 3599W        W46693  15.892  18.882  31.443 -0.1040  0.0304 -0.3036
 3600W        W46694  14.644  20.215   2.730  0.3054  0.0903  0.1465
 3601W        W46695  16.184  18.951  30.620 -0.2579 -0.1037  0.0815
 3602W        W46696  17.658  20.524   0.920  0.0205  0.2897  0.0303
 3603W        W46697  14.253  21.002   1.283 -0.2851  0.0730  0.3686
 3604W        W46698  17.833  21.240   2.986  0.0631 -0.1709 -0.0949
 3605W        W46699  18.245  22.932   2.054 -0.0024  0.1097 -0.0616
 3606W        W46700  15.656  16.572   2.106 -0.1486 -0.0672 -0.0567
 3607W        W46701  15.608  20.167  28.852  0.0050 -0.0357 -0.0513
 3608W        W46702  15.465  18.521  31.932  0.4135  0.0402 -0.0127
 3609W        W46703  14.040  21.089  29.844 -0.3795 -0.1765  0.3598
 3610W        W46704  17.192  19.207   2.977  0.2851  0.0284  0.3172
 3611W        W46705  17.100  19.692   2.904 -0.2501 -0.0116 -0.4008
 3612W        W46706  16.385  19.403   3.915  0.6036  0.0004  0.2815
 3613W        W46707  18.266  21.543   3.939 -0.0068  0.0217 -0.0360
 3614W        W46708  16.242  19.108  31.710  0.1654  0.1090  0.0259
 3615W        W46709  16.045  19.786   0.234 -0.1128 -0.0671  0.2290
 3616W        W46710  16.327  20.381  30.442  0.0142  0.2735 -0.0509
 3617W        W46711  15.955  18.937   2.195 -0.0445  0.1049 -0.0649
 3618W        W46712  15.727  19.269   1.933  0.3359 -0.0973 -0.0674
 3619W        W46713  15.160  19.703   0.495  0.0793  0.2428 -0.4315
 3620W        W46714  17.380  20.569   2.589 -0.1837 -0.0334  0.0299
 3621W        W46715  16.186  19.294   1.114  0.2561 -0.0553  0.1386
 3622W        W46716  15.582  17.943   2.405  0.4923  0.0911 -0.2779
 3623W        W46717  16.586  17.377  29.147 -0.0354 -0.1249  0.2896
 3624W        W46718  15.738  20.621  30.400  0.2533  0.0204  0.0199
 3625W        W46719  16.525  19.440  31.422  0.2087 -0.1013  0.1360
 3626W        W46720  15.228  19.132   1.234 -0.2210  0.1823 -0.0850
 3627W        W46721  15.878  20.337   0.132 -0.0612  0.1107  0.1731
 3628W        W46722  15.807  20.379  31.535 -0.1485  0.1016  0.4086
 3629W        W46723  16.427  20.274   1.015  0.0736  0.0129  0.2986
 3630W        W46724  15.049  20.918  31.257 -0.0170 -0.0722 -0.2907
 3631W        W46725  16.957  17.742   2.209  0.0776  0.1829 -0.1289
 3632W        W46726  14.357  20.818   0.701 -0.0550  0.0677  0.0329
 3633W        W46727  16.174  20.334  28.798  0.0091 -0.1506  0.2295
 3634W        W46728  14.559  19.989   0.275  0.2706 -0.3943 -0.3228
 3635W        W46729  16.852  17.854  30.965 -0.2807  0.1711  0.3015
 3636W        W46730  17.521  18.552  30.075 -0.0534  0.4704 -0.1302
 3637W        W46731  16.164  17.856  31.627 -0.0968 -0.0942  0.1626
 3638W        W46732  14.299  18.057   0.791  0.0389  0.3297  0.0131
 3639W        W46733  13.891  20.457   0.479 -0.2293  0.1623 -0.1603
 3640W        W46734  16.070  19.606   2.417 -0.2819  0.1743 -0.2092
 3641W        W46735  17.178  18.080  30.199  0.0405  0.0617  0.0113
 3642W        W46736  16.247  19.941   1.940  0.0180 -0.1532 -0.0433
 3643W        W46737  16.323  19.933   2.735 -0.2059 -0.0099 -0.0420
 3644W        W46738  13.786  19.801  31.283 -0.0352 -0.1209 -0.2168
 3645W        W46739  17.222  18.561   0.694  0.2893  0.0616  0.2528
 3646W        W46740  15.800  18.871  31.942 -0.2406 -0.1809  0.2062
 3647W        W46741  14.734  20.469   0.484  0.1097  0.0076 -0.2414
 3648W        W46742  15.785  20.801   0.486  0.1344  0.1070  0.0024
 3649W        W46743  16.146  19.666  30.863  0.2056  0.1180  0.0232
 3650W        W46744  14.933  20.543  31.576  0.3533  0.2567  0.2326
 3651W        W46745  16.261  19.134   2.602  0.0571  0.1548 -0.0665
 3652W        W46746  18.110  20.269   0.773  0.0267  0.1196 -0.0872
 3653W        W46747  14.817  19.078  31.727  0.1199  0.0241 -0.0771
 3654W        W46748  15.781  18.782  30.877  0.0607  0.0229 -0.3239
 3655W        W46749  16.173  19.644  31.745 -0.0522 -0.2916  0.2142
 3656W        W46750  16.864  20.252   1.478 -0.1187  0.0174 -0.2573
 3657W        W46751  18.182  18.829   2.605 -0.0647  0.0458  0.2888
 3658W        W46752  15.844  20.551   3.141  0.2049 -0.0201 -0.0368
 3659W        W46753  15.987  17.339  31.842 -0.1051 -0.2016 -0.1847
 3660W        W46754  18.599  22.688   0.846  0.2843  0.0920  0.0580
 3661W        W46755  15.837  17.943   0.517 -0.0374  0.1475  0.0348
 3662W        W46756  16.181  20.789  30.065 -0.1628  0.0113 -0.2013
 3663W        W46757  15.152  18.798   3.280 -0.3492  0.0758  0.1098
 3664W        W46758  15.182  19.539  30.950 -0.0124 -0.2609 -0.0162
 3665W        W46759  17.401  17.528   0.496 -0.0466 -0.0040 -0.0197
 3666W        W46760  15.108  20.574   1.354 -0.0576  0.0861  0.3166
 3667W        W46761  15.849  20.260  29.316  0.0653  0.0795  0.2795
 3668W        W46762  14.624  19.636   0.661  0.0698 -0.2072 -0.3009
 3669W        W46763  17.120  18.066   0.439 -0.0292 -0.0231 -0.3085
 3670W        W46764  17.344  18.890  31.846 -0.1003  0.1652  0.3263
 3671W        W46765  16.703  17.806  31.818  0.2284  0.1276 -0.2405
 3672W        W46766  18.286  20.496   2.625  0.1667  0.0618 -0.1060
 3673W        W46767  16.768  18.962  31.510 -0.0098  0.2560  0.0963
 3674W        W46768  17.502  19.824   3.427  0.0859  0.1978 -0.4408
 3675W        W46769  15.463  17.675   0.725 -0.2874  0.0602  0.0679
 3676W        W46770  17.800  19.760   0.919  0.1297  0.1956 -0.1380
 3677W        W46771  15.462  18.161   1.967  0.5678  0.2832 -0.1718
 3678W        W46772  19.466  21.295   3.427 -0.0796  0.4398 -0.2324
 3679W        W46773  15.793  18.419   1.225 -0.0275  0.1391  0.2201
 3680W        W46774  16.921  19.632  30.648 -0.1466 -0.0728  0.0778
 3681W        W46775  16.617  18.683  30.363  0.1005  0.0902 -0.0930
 3682W        W46776  16.470  18.837   1.314 -0.0036 -0.0217 -0.0396
 3683W        W46777  17.750  18.441   0.278  0.1043 -0.1410  0.2949
 3684W        W46778  16.462  19.904  30.526 -0.0683 -0.1296 -0.1594
 3685W        W46779  18.225  19.975   1.292 -0.2572 -0.2069 -0.0154
 3686W        W46780  15.853  18.865   2.868  0.0441 -0.0378 -0.3616
 3687W        W46781  16.522  18.744   0.065 -0.2676 -0.1523 -0.2904
 3688W        W46782  16.487  19.326   0.204  0.1849  0.0455  0.0548
 3689W        W46783  15.279  19.872  31.684 -0.0277  0.0591 -0.2103
 3690W        W46784  15.938  17.570   1.429 -0.0483 -0.1758 -0.0870
 3691W        W46785  16.169  19.871  31.327 -0.0742 -0.0284  0.2430
 3692W        W46786  16.704  18.271  31.958  0.1462 -0.0903 -0.0114
 3693W        W46787  17.960  18.731  31.205  0.0608  0.2905  0.0410
 3694W        W46788  16.958  18.965   1.059 -0.0577 -0.0533 -0.1498
 3695W        W46789  16.802  19.095   1.855 -0.2749  0.2846 -0.1096
 3696W        W46790  13.898  16.007   2.216  0.1570 -0.0737  0.0638
 3697W        W46791  16.934  22.230   1.887 -0.0512  0.2132 -0.2455
 3698W        W46792  17.246  18.145  30.835 -0.1853 -0.1934 -0.1910
 3699W        W46793  17.536  19.202   2.260  0.1184 -0.0717  0.2026
 3700W        W46794  16.677  17.807   0.367  0.1151 -0.1378  0.4197
 3701W        W46795  16.180  18.358  30.607  0.0083  0.1494 -0.1319
 3702W        W46796  15.190  18.408   1.156  0.0264 -0.1726 -0.3966
 3703W        W46797  17.102  19.705   2.378  0.3086 -0.1658  0.1368
 3704W        W46798  15.997  18.181  30.165  0.2587  0.0199 -0.0007
 3705W        W46799  16.396  19.095   4.300 -0.1930 -0.2480  0.0112
 3706W        W46800  16.879  21.438  30.309 -0.3154  0.0617 -0.1063
 3707W        W46801  16.000  19.761   0.947  0.3078  0.0942 -0.0065
 3708W        W46802  17.014  18.513  29.984  0.0505 -0.0070  0.4109
 3709W        W46803  14.903  18.518   0.240  0.0359  0.1228 -0.0363
 3710W        W46804  14.502  19.865   2.397  0.0748  0.1884  0.2339
 3711W        W46805  14.755  19.166  29.451 -0.0631  0.1086 -0.2958
 3712W        W46806  16.616  19.985  28.797 -0.2487  0.3367 -0.2409
 3713W        W46807  15.651  21.090   0.897 -0.0176  0.2423  0.2373
 3714W        W46808  17.097  19.187   2.498 -0.0936 -0.4525 -0.1712
 3715W        W46809  15.200  17.845  29.466  0.0017  0.3121 -0.1551
 3716W        W46810  15.975  18.863   1.185 -0.2264  0.0584  0.0685
 3717W        W46811  15.453  21.367  31.058  0.1270  0.0098 -0.2098
 3718W        W46812  16.267  18.192   0.392  0.0635  0.0839  0.2241
 3719W        W46813  16.570  21.722   1.830  0.0627 -0.1774  0.3529
 3720W        W46814  13.772  19.870   2.483  0.3610  0.0194  0.1625
 3721W        W46815  16.367  20.230   0.365  0.1674  0.1278 -0.1642
 3722W        W46816  16.280  17.867   1.275  0.0163 -0.2015  0.1820
 3723W        W46817  15.893  18.585   0.747  0.0151 -0.2342  0.1324
 3724W        W46818  15.784  19.216   0.899  0.0936 -0.5089 -0.3204
 3725W        W46819  17.809  20.319   2.682 -0.0992  0.1187  0.2613
 3726W        W46820  17.153  21.027   2.691 -0.0189 -0.2183  0.0709
 3727W        W46821  15.409  19.406   0.106  0.2260  0.0081 -0.0984
 3728W        W46822  15.609  20.537   1.019  0.1258  0.0185 -0.0642
 3729W        W46823  19.148  19.915   1.108 -0.1550  0.0892  0.3199
 3730W        W46824  14.812  19.859  30.745 -0.0440  0.0886  0.0562
 3731W        W46825  14.174  19.157   1.890 -0.0167 -0.3038  0.2515
 3732W        W46826  16.605  20.568   2.937  0.3735  0.1186 -0.3145
 3733W        W46827  16.794  18.997   0.507  0.5250  0.0666  0.1658
 3734W        W46828  16.060  16.878  30.143 -0.4536 -0.3784  0.1469
 3735W        W46829  16.457  20.013  29.920 -0.5643  0.0659  0.3475
 3736W        W46830  16.032  18.391   2.927  0.3167  0.0554  0.2362
 3737W        W46831  15.442  20.401   0.460  0.2266  0.4041 -0.1368
 3738W        W46832  15.347  21.200   0.109 -0.1178 -0.1212  0.1502
 3739W        W46833  17.444  21.320   0.523  0.0707 -0.0824 -0.0505
 3740W        W46834  16.976  19.421  31.534 -0.0008 -0.2030  0.1743
 3741W        W46835  14.805  22.015   0.772  0.0549  0.2599  0.0382
 3742W        W46836  16.122  19.522  30.280  0.0344  0.3143 -0.2763
 3743W        W46837  14.796  20.129   1.417 -0.0421 -0.2408 -0.2556
 3744W        W46838  15.164  18.940   0.052  0.4051  0.0066  0.0499
 3745W        W46839  17.432  19.451  31.720 -0.0657 -0.0722  0.0823
 3746W        W46840  13.998  21.035   1.703  0.0694  0.1005 -0.1031
 3747W        W46841  17.675  20.429   3.259 -0.1475 -0.0517  0.0208
 3748W        W46842  16.479  17.646  29.585 -0.1850  0.1824 -0.1714
 3749W        W46843  17.550  18.840   0.947 -0.0571 -0.1175  0.0181
 3750W        W46844  17.879  19.653  28.180 -0.0218  0.1599 -0.2557
 3751W        W46845  16.704  20.838   2.533  0.3607  0.3445  0.2535
 3752W        W46846  16.111  18.883   0.350  0.1934 -0.2220  0.1299
 3753W        W46847  16.099  17.980  29.661  0.1838 -0.2829 -0.3101
 3754W        W46848  15.655  19.191   2.507  0.1799  0.1523 -0.0938
 3755W        W46849  17.605  19.373   3.212  0.0128  0.2228  0.1841
 3756W        W46850  14.747  19.745   2.858  0.0174 -0.3871  0.3335
 3757W        W46851  16.280  20.737   0.455 -0.0176  0.0089 -0.0211
 3758W        W46852  14.573  18.207  30.027 -0.3203  0.3448  0.0982
 3759W        W46853  14.515  19.042   0.583 -0.1727 -0.2138 -0.0610
 3760W        W46854  18.193  19.579   3.062  0.1650  0.0370  0.1140
 3761W        W46855  15.265  20.619  28.762  0.1828 -0.1443  0.0303
 3762W        W46856  16.926  19.141  31.964  0.0671 -0.0728  0.1891
 3763W        W46857  15.132  19.452  31.508  0.1435 -0.0923  0.0454
 3764W        W46858  15.538  20.990   1.399  0.0668 -0.4102 -0.1231
 3765W        W46859  16.498  21.241   2.129  0.3186  0.1415 -0.0457
 3766W        W46860  14.530  18.924  30.541  0.0702 -0.4352  0.0378
 3767W        W46861  18.547  18.753   0.808  0.1345  0.0177 -0.1331
 3768W        W46862  15.412  18.674   1.534 -0.1561  0.0615 -0.2261
 3769W        W46863  16.687  18.985   2.945 -0.1962  0.0041  0.2014
 3770W        W46864  15.715  19.297  29.758 -0.0773  0.2288  0.2779
 3771W        W46865  16.571  19.313  30.654 -0.0536  0.0587 -0.2663
 3772W        W46866  16.507  20.683   1.357 -0.0273  0.0527  0.0064
 3773W        W46867  16.340  18.375   1.478  0.1387 -0.1137  0.1211
 3774W        W46868  15.576  19.822  31.281  0.0171  0.2612  0.0563
 3775W        W46869  19.344  19.365   1.176  0.0228  0.0064 -0.3721
 3776W        W46870  16.027  18.991  29.502  0.0850  0.1315 -0.0985
 3777W        W46871  18.565  22.159   1.711  0.1412 -0.0022 -0.1416
 3778W        W46872  16.194  18.418  31.893  0.2261  0.0731  0.0668
 3779W        W46873  16.938  19.152  30.351  0.0543  0.1059  0.0234
 3780W        W46874  15.350  20.256  31.367  0.2165  0.1413  0.2367
 3781W        W46875  14.916  18.801   1.364 -0.1652 -0.1051 -0.3097
 3782W        W46876  17.571  18.796   3.257  0.1245  0.1424 -0.0722
 3783W        W46877  15.673  17.757  30.192  0.2700 -0.1112 -0.0605
 3784W        W46878  17.308  20.393  31.429 -0.1488 -0.0138  0.1250
 3785W        W46879  18.825  19.933   1.503  0.3123 -0.0678 -0.5269
 3786W        W46880  14.871  21.908  31.644  0.0939  0.1718  0.1701
 3787W        W46881  17.411  19.457   1.122 -0.2365  0.2597  0.0312
 3788W        W46882  17.231  21.874   0.476 -0.2549 -0.0109  0.1281
 3789W        W46883  14.622  18.005   0.328 -0.0695 -0.0904  0.2567
 3790W        W46884  17.313  20.199   1.700 -0.1242  0.2474  0.1540
 3791W        W46885  16.927  21.515   0.638 -0.0205 -0.1443  0.1351
 3792W        W46886  15.845  18.462   0.310 -0.1526  0.3006  0.3329
 3793W        W46887  15.248  18.485  31.144  0.4413  0.1095  0.3823
 3794W        W46888  15.252  21.385  31.560  0.0264 -0.0422  0.0475
 3795W        W46889  18.208  18.704   1.218  0.0669 -0.0981 -0.0729
 3796W        W46890  16.541  19.310   0.758 -0.1442 -0.1055 -0.2650
 3797W        W46891  15.573  20.747  29.277 -0.0499 -0.1575  0.0048
 3798W        W46892  17.787  18.435   1.305  0.1504  0.4034 -0.4460
 3799W        W46893  16.109  20.637   0.910  0.1665 -0.2005 -0.1006
 3800W        W46894  15.215  20.508   2.552 -0.0479 -0.1846 -0.2820
 3801W        W46895  15.333  19.008  30.845  0.2171 -0.1589 -0.3106
 3802W        W46896  16.670  19.537   2.659 -0.1053 -0.3186  0.2013
 3803W        W46897  15.224  21.912   0.467  0.0706  0.0462 -0.0746
 3804W        W46898  16.538  21.039  31.511 -0.1151 -0.3405 -0.2423
 3805W        W46899  17.364  20.938   1.690 -0.1286 -0.0018 -0.0246
 3806W        W46900  16.349  18.861   0.772 -0.0200 -0.1111 -0.2822
 3807W        W46901  17.010  20.625   1.811 -0.1204  0.2106  0.0330
 3808W        W46902  15.798  17.897   1.116 -0.2707  0.3290  0.1652
 3809W        W46903  18.542  18.822   1.645  0.1667  0.2114 -0.0881
 3810W        W46904  16.559  18.246  29.845 -0.0198 -0.0021 -0.4497
 3811W        W46905  15.352  18.906   2.211  0.0557  0.0573 -0.0244
 3812W        W46906  15.008  20.407  30.048  0.1031 -0.3001  0.2680
 3813W        W46907  15.122  20.034  29.607 -0.3327  0.1830 -0.2737
 3814W        W46908  15.002  19.746   2.394  0.0753 -0.1626 -0.0562
 3815W        W46909  15.802  17.968   2.917  0.1287  0.0790  0.1077
 3816W        W46910  15.566  17.714   1.763  0.2757  0.0830  0.2405
 3817W        W46911  16.969  20.607   0.950 -0.1053  0.3492  0.2756
 3818W        W46912  15.812  18.628  30.366  0.4449 -0.1088 -0.0060
 3819W        W46913  17.346  20.296   0.595  0.2147 -0.0444 -0.1235
 3820W        W46914  14.731  17.073   1.248 -0.2129 -0.2265 -0.0316
 3821W        W46915  14.064  19.145   0.372  0.3565 -0.0025 -0.2163
 3822W        W46916  17.625  19.866   1.469  0.2729  0.1591 -0.3438
 3823W        W46917  16.832  22.050   0.716 -0.1599  0.1680 -0.0657
 3824W        W46918  15.495  18.068  29.793 -0.0912  0.1725 -0.0139
 3825W        W46919  17.767  19.841   3.056  0.1544  0.0381 -0.0799
 3826W        W46920  14.827  21.565   0.515  0.1429  0.0989  0.1532
 3827W        W46921  16.254  19.167   3.175  0.0551  0.2155 -0.3428
 3828W        W46922  15.066  17.868   0.416  0.0765  0.1931  0.3016
 3829W        W46923  15.008  18.687  29.500  0.1911  0.0462  0.2517
 3830W        W46924  15.401  18.551   0.451 -0.1459 -0.0770 -0.1849
 3831W        W46925  16.975  20.123   0.344  0.2906  0.1254  0.3872
 3832W        W46926  17.400  19.894  30.513  0.3406  0.1163 -0.1288
 3833W        W46927  16.194  19.434   1.963  0.1125  0.2082  0.2727
 3834W        W46928  16.194  20.775   2.304  0.0490 -0.1560  0.1978
 3835W        W46929  14.700  17.685   0.811 -0.1496  0.0579 -0.1105
 3836W        W46930  17.401  19.763   0.642 -0.1528 -0.1023  0.1917
 3837W        W46931  16.050  20.376   2.731 -0.1121  0.1320 -0.0623
 3838W        W46932  18.021  17.833  30.707  0.0371 -0.0463 -0.3820
 3839W        W46933  17.933  19.232   2.557  0.0554 -0.0123 -0.0802
 3840W        W46934  17.573  18.594  31.471  0.0670 -0.0832 -0.2699
 3841W        W46935  15.909  18.373   2.081  0.0956  0.0855 -0.3201
 3842W        W46936  14.835  19.473   1.503 -0.2145 -0.0444 -0.0393
 3843W        W46937  17.805  20.441   1.828  0.0459 -0.1284  0.2408
 3844W        W46938  15.498  18.821   0.897  0.1566 -0.0476  0.0170
 3845W        W46939  17.083  16.966   0.086  0.2900 -0.2323 -0.0789
 3846W        W46940  16.696  21.039  31.979 -0.0414  0.5723 -0.0448
 3847W        W46941  15.256  19.314   0.777  0.1353 -0.0713 -0.2429
 3848W        W46942  17.144  17.685  31.403 -0.1462 -0.1153 -0.1125
 3849W        W46943  17.898  20.303   1.302  0.0254 -0.0589 -0.3306
 3850W        W46944  15.957  20.238   0.675  0.3374 -0.4082 -0.2117
 3851W        W46945  16.102  20.470   1.900  0.0246 -0.1121  0.3551
 3852W        W46946  16.242  18.573  30.089  0.0737  0.1482 -0.0514
 3853W        W46947  18.110  19.545   0.482  0.0589  0.1459  0.0834
 3854W        W46948  17.826  21.733   3.564  0.2333  0.0655  0.0474
 3855W        W46949  19.336  21.822   3.491 -0.1237 -0.2320 -0.0587
 3856W        W46950  16.491  22.207   1.609 -0.0265  0.0114 -0.0184
 3857W        W46951  18.088  20.208   2.230  0.0084 -0.1199 -0.0611
 3858W        W46952  15.074  17.651   1.619  0.0308  0.0207 -0.1221
 3859W        W46953  15.414  20.618  29.761  0.0235  0.1950  0.0184
 3860W        W46954  15.567  19.601   1.114 -0.2501  0.0004  0.2019
 3861W        W46955  16.404  18.637  31.517 -0.1536 -0.1872  0.0869
 3862W        W46956  15.658  17.674  31.517  0.2014  0.0997  0.0366
 3863W        W46957  16.410  17.240  30.215 -0.0627 -0.3898  0.1742
 3864W        W46958  14.647  21.639   3.171  0.0560 -0.1245  0.0655
 3865W        W46959  16.888  20.071   0.854 -0.2155 -0.1228 -0.0862
 3866W        W46960  15.939  19.247   6.279  0.3468 -0.0166  0.0163
 3867W        W46961  14.641  19.787   4.339 -0.0255  0.1655  0.0954
 3868W        W46962  16.684  19.665   3.609  0.2459  0.2016 -0.0581
 3869W        W46963  17.961  20.766   2.857  0.3663  0.1555 -0.4100
 3870W        W46964  13.430  18.575   3.543 -0.0740 -0.1273  0.0277
 3871W        W46965  17.115  20.990   5.163 -0.1033  0.1889 -0.0792
 3872W        W46966  15.526  17.846   4.419 -0.4241  0.1382 -0.1001
 3873W        W46967  16.652  20.442   5.825  0.0293  0.0689 -0.1148
 3874W        W46968  17.711  19.969   5.394  0.1821 -0.2936  0.2476
 3875W        W46969  17.454  19.954   2.577 -0.3342  0.1577 -0.0898
 3876W        W46970  15.240  18.759   4.905 -0.2831 -0.0944  0.2679
 3877W        W46971  15.720  21.141   4.305 -0.1490 -0.2965 -0.0690
 3878W        W46972  16.419  18.577   3.815  0.0744  0.1260 -0.2178
 3879W        W46973  14.302  19.152   5.832  0.2001 -0.0569 -0.0142
 3880W        W46974  17.609  19.664   5.863 -0.1557  0.1890 -0.0057
 3881W        W46975  14.612  18.827   3.996 -0.0600  0.0322  0.2127
 3882W        W46976  14.652  19.321   7.091 -0.0941  0.3033  0.0781
 3883W        W46977  17.198  19.308   4.864 -0.0939  0.2580  0.0898
 3884W        W46978  16.832  21.161   4.777  0.3136  0.1628  0.1579
 3885W        W46979  15.023  19.160   4.689 -0.1785 -0.1360  0.0433
 3886W        W46980  16.694  18.610   6.177 -0.0111  0.1670 -0.2870
 3887W        W46981  16.480  20.646   4.346  0.1455  0.0398 -0.3737
 3888W        W46982  15.446  19.170   3.020 -0.0799 -0.0336 -0.1283
 3889W        W46983  14.364  20.288   4.733  0.1721  0.3104 -0.1352
 3890W        W46984  17.016  19.528   5.624 -0.1995 -0.1952  0.1279
 3891W        W46985  17.378  19.871   6.438 -0.2944 -0.3301  0.0453
 3892W        W46986  18.396  19.781   4.170 -0.0259  0.2386  0.1149
 3893W        W46987  16.254  21.447   5.373  0.1740 -0.0274  0.0576
 3894W        W46988  17.390  22.027   4.718  0.2226  0.1534  0.1775
 3895W        W46989  16.086  18.322   5.205 -0.2876  0.0895 -0.1182
 3896W        W46990  13.743  20.204   5.659  0.2504 -0.0252 -0.3311
 3897W        W46991  16.069  20.737   3.605 -0.4173 -0.0455  0.0563
 3898W        W46992  15.657  19.971   5.279  0.0500  0.1505  0.2721
 3899W        W46993  18.830  21.621   3.507 -0.0537 -0.2771  0.4873
 3900W        W46994  17.956  20.721   6.496 -0.0885  0.2605 -0.0196
 3901W        W46995  16.028  21.459   6.533 -0.1289  0.1083 -0.0659
 3902W        W46996  16.857  21.370   4.189  0.2810 -0.2891  0.0543
 3903W        W46997  16.338  21.513   6.173 -0.1505  0.0290 -0.1936
 3904W        W46998  16.313  22.110   5.929  0.1901  0.0753  0.1120
 3905W        W46999  16.796  19.094   5.216 -0.0833 -0.1382 -0.1085
 3906W        W47000  16.926  20.037   4.380  0.0194 -0.3938  0.0521
 3907W        W47001  15.467  21.441   3.809  0.1356 -0.0710 -0.0442
 3908W        W47002  15.309  20.368   3.950 -0.0023 -0.0532 -0.1396
 3909W        W47003  15.075  19.324   5.716  0.2133  0.3636 -0.0592
 3910W        W47004  14.528  20.674   4.995 -0.0228 -0.2233  0.0231
 3911W        W47005  17.900  19.422   7.127  0.2929  0.0126  0.1980
 3912W        W47006  17.424  21.189   4.169 -0.3407 -0.0744  0.0865
 3913W        W47007  16.649  18.916   2.388 -0.0241 -0.0965 -0.2396
 3914W        W47008  15.213  19.148   1.732 -0.1474 -0.1631  0.1237
 3915W        W47009  15.910  19.004   4.153  0.0923  0.0240  0.0532
 3916W        W47010  15.922  17.304   3.861 -0.1559 -0.0327 -0.1427
 3917W        W47011  16.049  20.874   5.266  0.3103  0.0297 -0.2033
 3918W        W47012  15.065  19.945   4.742 -0.1689  0.1013 -0.2773
 3919W        W47013  18.361  19.037   5.866 -0.0562 -0.1524 -0.1535
 3920W        W47014  16.287  19.305   4.979 -0.3432 -0.0157  0.0299
 3921W        W47015  18.054  19.401   6.063 -0.2764  0.0066 -0.4055
 3922W        W47016  15.505  20.211   6.181 -0.0065  0.1438 -0.1304
 3923W        W47017  15.188  19.614   4.393  0.0812 -0.2083 -0.1788
 3924W        W47018  18.125  21.182   0.914 -0.0206 -0.1095  0.0918
 3925W        W47019  17.451  21.311   3.418 -0.2737 -0.2137  0.3090
 3926W        W47020  18.483  20.516   3.572  0.0770  0.2054 -0.0841
 3927W        W47021  14.522  18.572   2.167 -0.0694  0.0774 -0.4404
 3928W        W47022  13.824  19.766   6.795  0.2406 -0.0737 -0.0982
 3929W        W47023  14.796  19.071   6.077  0.4927  0.0894 -0.0662
 3930W        W47024  15.886  18.704   1.714  0.2947  0.0725 -0.1813
 3931W        W47025  18.038  19.855   6.268 -0.0391  0.1049 -0.2022
 3932W        W47026  17.466  22.523   4.918  0.0882  0.0704 -0.0356
 3933W        W47027  18.910  18.874   5.874 -0.0957 -0.0369 -0.2916
 3934W        W47028  17.544  20.470   5.390 -0.1865 -0.1446  0.2634
 3935W        W47029  16.820  21.357   5.304 -0.0351 -0.1590  0.1546
 3936W        W47030  17.081  20.546   3.013  0.0973 -0.1134 -0.0756
 3937W        W47031  17.511  19.632   5.102 -0.1161 -0.1570 -0.2907
 3938W        W47032  16.687  18.085   5.775 -0.0355  0.0083 -0.1580
 3939W        W47033  16.562  19.681   1.680  0.0188 -0.4055 -0.3113
 3940W        W47034  16.377  20.403   3.382  0.0012  0.1671 -0.0785
 3941W        W47035  18.546  21.167   6.072  0.0236 -0.0455  0.0293
 3942W        W47036  16.019  20.140   2.297 -0.2216 -0.0606 -0.0305
 3943W        W47037  15.698  21.224   4.953  0.0567  0.0857 -0.0502
 3944W        W47038  15.527  18.910   5.635 -0.2975 -0.1676  0.1699
 3945W        W47039  15.670  20.787   6.069 -0.0021  0.2280 -0.1630
 3946W        W47040  15.820  21.246   3.467 -0.0077  0.2793 -0.0504
 3947W        W47041  13.894  20.760   5.768 -0.0695  0.0147 -0.0211
 3948W        W47042  15.113  19.217   2.612  0.1296  0.0663 -0.0938
 3949W        W47043  12.993  17.522   5.043  0.1756 -0.1965  0.0593
 3950W        W47044  16.552  20.263   6.295 -0.1271  0.1041 -0.3250
 3951W        W47045  17.094  18.921   3.423  0.3610 -0.2268  0.0935
 3952W        W47046  13.757  19.208   4.957 -0.2290  0.0803 -0.0578
 3953W        W47047  18.881  18.842   4.567 -0.1292  0.2812 -0.0874
 3954W        W47048  16.023  19.741   3.974 -0.0258 -0.1259 -0.0467
 3955W        W47049  18.596  20.672   4.139  0.0632 -0.2047  0.2989
 3956W        W47050  18.172  19.409   3.904  0.1662  0.0610 -0.0727
 3957W        W47051  16.577  21.217   2.980  0.0627  0.0713  0.1886
 3958W        W47052  13.551  19.961   6.060 -0.0680 -0.0302  0.2118
 3959W        W47053  15.265  17.516   4.851  0.1815 -0.1579  0.4423
 3960W        W47054  15.077  18.625   6.289 -0.2516  0.2705 -0.1608
 3961W        W47055  14.341  18.346   3.881  0.1402  0.0107 -0.2172
 3962W        W47056  18.143  20.370   4.234  0.0687  0.1400  0.3364
 3963W        W47057  14.333  17.953   4.946  0.2065 -0.2977  0.2960
 3964W        W47058  18.026  19.294   4.465 -0.0786  0.1510  0.2377
 3965W        W47059  14.084  18.723   3.638 -0.5185  0.1709 -0.2835
 3966W        W47060  14.369  20.600   3.880 -0.1661 -0.1673  0.0590
 3967W        W47061  17.258  19.098   7.835 -0.1268 -0.0965  0.0879
 3968W        W47062  16.032  20.035   4.709  0.0750 -0.0323  0.1498
 3969W        W47063  17.881  21.354   5.515 -0.1135  0.0117  0.1456
 3970W        W47064  17.841  22.749   4.583  0.1442  0.1502  0.0679
 3971W        W47065  15.103  18.773   5.810  0.0689  0.0534  0.2783
 3972W        W47066  15.644  18.715   3.295  0.0950 -0.3004 -0.1006
 3973W        W47067  15.514  22.061   5.391 -0.0120  0.3671  0.4640
 3974W        W47068  14.747  19.284   4.201 -0.0211  0.0570 -0.1355
 3975W        W47069  15.595  18.658   4.201 -0.1459  0.1777  0.1101
 3976W        W47070  17.838  20.860   5.196 -0.2241  0.0949  0.2093
 3977W        W47071  16.161  19.553   3.462  0.3351 -0.1201 -0.3844
 3978W        W47072  14.979  19.334   6.485 -0.1562 -0.0709  0.0194
 3979W        W47073  17.948  18.256   6.352 -0.0773 -0.3065  0.0463
 3980W        W47074  17.465  20.640   4.933 -0.1285 -0.2060  0.3553
 3981W        W47075  18.461  19.774   3.501 -0.1521 -0.3020  0.0892
 3982W        W47076  14.881  18.260   1.527 -0.0885 -0.2233  0.1406
 3983W        W47077  17.094  21.688   5.053  0.1570 -0.1604 -0.0880
 3984W        W47078  14.735  23.045   2.420 -0.0700  0.1461 -0.1269
 3985W        W47079  14.167  19.814   4.603  0.0247 -0.1619  0.1142
 3986W        W47080  16.865  19.970   5.959 -0.2982 -0.0439 -0.2217
 3987W        W47081  17.458  18.812   4.953 -0.0887  0.1648  0.0157
 3988W        W47082  14.458  19.505   6.358  0.1568  0.2616 -0.0957
 3989W        W47083  16.590  19.285   6.811 -0.2562  0.0006 -0.4278
 3990W        W47084  14.890  18.702   2.417  0.2615 -0.0377 -0.0839
 3991W        W47085  15.361  21.195   7.323 -0.0745  0.1779 -0.1586
 3992W        W47086  17.200  18.367   3.488  0.1546 -0.1526 -0.2721
 3993W        W47087  16.808  18.798   4.287  0.2738 -0.2518  0.1705
 3994W        W47088  16.140  21.048   6.089  0.0947 -0.0868 -0.1403
 3995W        W47089  17.217  19.824   4.763 -0.2636  0.1402 -0.0499
 3996W        W47090  17.270  20.553   3.496  0.3143 -0.0260 -0.0256
 3997W        W47091  16.723  18.312   4.192  0.1120  0.0381 -0.2198
 3998W        W47092  14.690  18.898   5.565 -0.1266  0.2307 -0.1017
 3999W        W47093  16.037  20.488   4.518 -0.0390 -0.2102 -0.0007
 4000W        W47094  16.349  19.931   5.034  0.1295 -0.2645 -0.2427
 4001W        W47095  17.227  19.632   4.229 -0.0592 -0.0421 -0.3746
 4002W        W47096  17.682  20.233   4.350 -0.1556  0.3640  0.1606
 4003W        W47097  15.757  19.046   5.072  0.1246 -0.0214 -0.0388
 4004W        W47098  16.803  20.695   6.257 -0.0736 -0.2538  0.0204
 4005W        W47099  16.439  21.552   4.549 -0.2883  0.0169 -0.1094
 4006W        W47100  15.951  18.181   4.759  0.1538 -0.3591 -0.1076
 4007W        W47101  15.292  19.439   2.177 -0.1317  0.4328 -0.3693
 4008W        W47102  16.383  17.921   4.897 -0.4246  0.2008  0.1490
 4009W        W47103  14.896  20.231   2.253 -0.5190  0.1498  0.0586
 4010W        W47104  18.671  19.259   5.551 -0.1462  0.0830 -0.3172
 4011W        W47105  17.886  18.922   5.747  0.0437  0.0936  0.1076
 4012W        W47106  17.041  19.421   6.589 -0.1946 -0.1428  0.2341
 4013W        W47107  17.460  19.170   7.358 -0.0044  0.1832  0.1849
 4014W        W47108  18.036  20.638   3.816  0.0616  0.1099 -0.1373
 4015W        W47109  17.266  20.942   4.653  0.4662  0.3246  0.0201
 4016W        W47110  14.305  18.966   2.396 -0.0088 -0.0332  0.2032
 4017W        W47111  14.620  18.563   6.042 -0.2231 -0.1963 -0.1361
 4018W        W47112  14.983  19.569   5.037  0.0083 -0.1045 -0.0323
 4019W        W47113  15.698  20.900   7.607 -0.0383 -0.0961 -0.0025
 4020W        W47114  16.316  20.646   6.504 -0.7351  0.0569 -0.1376
 4021W        W47115  16.703  19.141   3.535  0.0505 -0.2690  0.2960
 4022W        W47116  16.260  19.465   5.882  0.1523  0.0195  0.0224
 4023W        W47117  16.744  18.535   3.293 -0.0028 -0.2502  0.0144
 4024W        W47118  15.722  21.686   4.179  0.1964  0.1462  0.0458
 4025W        W47119  16.386  20.137   1.504  0.2288 -0.3094 -0.1497
 4026W        W47120  15.819  17.820   5.070  0.0054 -0.1377 -0.1577
 4027W        W47121  16.192  20.511   5.898  0.0332 -0.0047  0.1547
 4028W        W47122  15.647  20.755   2.664  0.0805  0.0728 -0.1359
 4029W        W47123  18.031  20.884   5.650  0.3938  0.0569 -0.0378
 4030W        W47124  16.514  20.229   4.666 -0.2755  0.0757  0.4894
 4031W        W47125  15.851  18.249   4.224  0.1245 -0.0603 -0.1119
 4032W        W47126  15.388  20.050   4.359 -0.1277 -0.3903  0.2541
 4033W        W47127  14.892  18.397   2.924 -0.1100  0.1482  0.2307
 4034W        W47128  13.658  20.022   3.004  0.1645 -0.0887  0.2686
 4035W        W47129  17.673  19.376   4.088 -0.6461  0.0725  0.0744
 4036W        W47130  18.931  19.814   3.879 -0.3477  0.1963 -0.0263
 4037W        W47131  13.577  19.789   5.541 -0.0726  0.0612 -0.1726
 4038W        W47132  14.725  18.820   5.056  0.0262  0.1405 -0.0795
 4039W        W47133  15.357  20.111   5.676 -0.0854 -0.0906 -0.1041
 4040W        W47134  17.333  21.098   6.866 -0.1021 -0.0374  0.3020
 4041W        W47135  17.255  18.979   4.406  0.0718  0.1931  0.1358
 4042W        W47136  18.213  20.106   4.657  0.4270 -0.2335 -0.3146
 4043W        W47137  18.368  20.090   5.851 -0.4033  0.1243  0.3013
 4044W        W47138  14.805  18.782   1.831  0.1480 -0.4269 -0.3147
 4045W        W47139  17.154  19.637   6.098 -0.1262 -0.4610  0.4028
 4046W        W47140  15.652  19.563   4.263 -0.3145  0.1562  0.0669
 4047W        W47141  14.432  19.768   3.916  0.1798  0.0588 -0.3066
 4048W        W47142  16.770  22.447   5.959 -0.0792  0.0684  0.0437
 4049W        W47143  15.221  19.759   3.110 -0.2062  0.1092  0.2814
 4050W        W47144  14.990  21.132   2.607 -0.0311 -0.0680  0.0990
 4051W        W47145  14.580  20.157   6.777  0.1544 -0.0355  0.1747
 4052W        W47146  17.223  20.004   5.651 -0.2020  0.1753  0.2392
 4053W        W47147  15.245  19.151   4.138 -0.0926  0.0381 -0.2588
 4054W        W47148  15.546  20.097   4.835  0.1381  0.0559  0.0921
 4055W        W47149  16.392  18.153   3.328 -0.0649 -0.1208 -0.0967
 4056W        W47150  17.118  20.334   6.309 -0.3110  0.0664  0.2174
 4057W        W47151  16.397  19.228   6.405  0.3033 -0.2360 -0.2004
 4058W        W47152  16.405  21.123   6.526 -0.1876  0.0275 -0.2887
 4059W        W47153  15.403  17.029   4.883 -0.0973  0.1561  0.3228
 4060W        W47154  18.343  21.069   3.744  0.0802  0.0635 -0.0311
 4061W        W47155  16.872  19.890   6.538 -0.2225  0.1077  0.5143
 4062W        W47156  14.621  19.339   2.559 -0.3155 -0.0878  0.0420
 4063W        W47157  14.864  19.854   6.252 -0.2750 -0.0577 -0.2796
 4064W        W47158  15.658  19.742   3.354 -0.0139  0.0891 -0.1198
 4065W        W47159  15.950  19.385   5.505 -0.1641  0.1292  0.0548
 4066W        W47160  14.632  19.506   5.862  0.2870 -0.3413 -0.1079
 4067W        W47161  15.824  19.198   3.315 -0.1975 -0.2609  0.3775
 4068W        W47162  15.412  20.405   5.254 -0.1367 -0.3174  0.1114
 4069W        W47163  16.429  18.353   2.149  0.2744  0.0563 -0.1121
 4070W        W47164  17.904  22.205   2.428 -0.1391 -0.4609  0.1271
 4071W        W47165  16.187  18.876   5.298  0.1205  0.4261  0.3546
 4072W        W47166  17.511  18.074   6.286  0.4782 -0.2224  0.2419
 4073W        W47167  17.063  20.029   3.391  0.3693  0.2427  0.4117
 4074W        W47168  16.601  18.913   5.798 -0.1606  0.3651  0.0730
 4075W        W47169  15.090  18.710   4.427  0.3481 -0.0360  0.2751
 4076W        W47170  18.559  19.239   4.258  0.1018  0.1665 -0.1447
 4077W        W47171  13.509  18.124   5.916  0.0324  0.1996 -0.1403
 4078W        W47172  16.545  21.888   7.104  0.0287 -0.1639 -0.1298
 4079W        W47173  14.382  20.375   5.660 -0.2860 -0.2117  0.1899
 4080W        W47174  16.897  20.110   2.670 -0.0642 -0.1886  0.0551
 4081W        W47175  14.953  19.364   3.102 -0.3875 -0.0339 -0.3009
 4082W        W47176  15.447  19.498   5.410  0.0508  0.0598  0.2008
 4083W        W47177  16.618  19.741   4.654 -0.3558 -0.2491  0.3783
 4084W        W47178  17.343  21.450   2.468  0.0650  0.0636  0.0833
 4085W        W47179  18.877  18.786   4.068  0.0124 -0.0559  0.2221
 4086W        W47180  14.630  19.818   5.392  0.0792 -0.1772 -0.1717
 4087W        W47181  17.800  19.235   4.946 -0.1562 -0.0234  0.1690
 4088W        W47182  16.231  19.567   4.406  0.1375  0.0635 -0.2711
 4089W        W47183  14.832  19.774   3.483 -0.3527  0.1055  0.2495
 4090W        W47184  14.880  18.021   4.987 -0.1227  0.0588  0.0429
 4091W        W47185  18.093  20.121   3.579 -0.2594 -0.2221  0.0634
 4092W        W47186  15.909  19.282   4.625  0.0884  0.3856  0.1953
 4093W        W47187  15.078  19.107   5.295  0.0248  0.2099 -0.1028
 4094W        W47188  17.403  19.445   6.948  0.0359 -0.1056  0.2105
 4095W        W47189  13.949  19.612   5.930 -0.0345  0.2700  0.0836
 4096W        W47190  13.374  18.791   5.927  0.0088  0.2244 -0.1197
 4097W        W47191  18.236  20.756   6.898  0.0580  0.0187  0.0427
 4098W        W47192  16.644  19.528   3.148 -0.0260  0.0485 -0.1858
 4099W        W47193  19.384  18.660   5.427  0.2401  0.1250  0.0905
 4100W        W47194  17.620  20.884   3.684  0.0937  0.1664 -0.1383
 4101W        W47195  16.463  18.904   4.780 -0.1780  0.0202  0.3423
 4102W        W47196  15.511  19.027   4.536 -0.3125 -0.0299  0.1359
 4103W        W47197  17.664  18.426   5.456 -0.2642  0.0781 -0.2109
 4104W        W47198  16.264  17.684   0.636 -0.0567  0.0767  0.1418
 4105W        W47199  17.869  18.843   5.263  0.4785  0.0009 -0.1986
 4106W        W47200  16.246  22.167   2.286  0.0251  0.2486  0.0280
 4107W        W47201  17.139  21.020   3.679 -0.2321  0.1179  0.0842
 4108W        W47202  17.661  20.349   3.731  0.1675  0.0789 -0.1112
 4109W        W47203  14.010  19.423   5.508 -0.0076 -0.0575 -0.3593
 4110W        W47204  14.549  21.479   6.135  0.3200 -0.0149  0.0312
 4111W        W47205  14.332  17.430   2.118  0.1488 -0.1049  0.1766
 4112W        W47206  16.334  20.007   3.648  0.2106  0.0669  0.1374
 4113W        W47207  17.523  21.230   5.069 -0.3248 -0.2753  0.0438
 4114W        W47208  17.485  20.599   6.922 -0.4431  0.0968  0.1954
 4115W        W47209  16.192  17.715   3.131 -0.0213 -0.0704  0.1658
 4116W        W47210  18.245  19.170   5.361  0.0666  0.0040  0.1355
 4117W        W47211  15.273  20.055   2.737 -0.1624  0.0423  0.0945
 4118W        W47212  17.423  17.607   3.788  0.1774 -0.2280 -0.4305
 4119W        W47213  15.544  21.978   5.941 -0.2555  0.0260  0.1711
 4120W        W47214  15.639  21.547   5.408  0.1044 -0.0082  0.0906
 4121W        W47215  15.272  21.365   5.124  0.1217 -0.3750  0.1460
 4122W        W47216  16.474  18.456   4.888 -0.2197  0.0306  0.1867
 4123W        W47217  18.095  18.501   5.977  0.0957  0.2588  0.0206
 4124W        W47218  16.324  20.061   4.220  0.0725 -0.0494 -0.2552
 4125W        W47219  16.748  19.604   5.120 -0.1889  0.0076 -0.0329
 4126W        W47220  17.707  20.154   5.896 -0.0206  0.1349  0.1927
 4127W        W47221  17.695  20.688   6.037  0.1968 -0.0575  0.0456
 4128W        W47222  17.555  21.339   5.992  0.1156  0.0991 -0.0812
 4129W        W47223  18.233  20.965   4.331 -0.1300  0.1184  0.2997
 4130W        W47224  15.791  20.495   5.617  0.0159 -0.0297  0.0514
 4131W        W47225  14.112  18.353   6.910 -0.2127  0.0579  0.1335
 4132W        W47226  15.106  20.200   6.469  0.2269 -0.3572  0.0583
 4133W        W47227  17.307  20.141   5.119  0.0993 -0.1355  0.0083
 4134W        W47228  15.697  17.269   4.496  0.2613 -0.2521 -0.1283
 4135W        W47229  16.003  20.786   4.124  0.0631  0.0345 -0.2205
 4136W        W47230  15.319  20.325   6.955  0.2134  0.3361 -0.1902
 4137W        W47231  15.155  18.861   7.142 -0.0266 -0.0842  0.0710
 4138W        W47232  14.764  21.183   3.215  0.0134  0.2808 -0.1570
 4139W        W47233  17.493  20.882   3.171  0.3243  0.0424  0.3115
 4140W        W47234  17.726  21.635   4.052 -0.2559  0.0579  0.1105
 4141W        W47235  16.707  21.631   6.534 -0.0205  0.0192  0.1934
 4142W        W47236  15.935  17.747   4.087  0.1596  0.2309  0.0355
 4143W        W47237  14.858  20.760   4.550 -0.1737 -0.0773 -0.0461
 4144W        W47238  15.401  20.081   1.339 -0.1166  0.0243 -0.0568
 4145W        W47239  17.719  21.072   4.598  0.1144  0.1216 -0.1987
 4146W        W47240  16.345  20.744   4.854  0.2703 -0.1872  0.0048
 4147W        W47241  18.136  20.327   6.219  0.2028  0.0795 -0.0581
 4148W        W47242  18.479  18.763   3.095  0.1134  0.2402 -0.1184
 4149W        W47243  18.836  20.904   5.526 -0.0177 -0.4792 -0.1635
 4150W        W47244  18.007  18.509   3.621  0.0990  0.1004  0.1995
 4151W        W47245  16.071  20.697   7.026 -0.0256 -0.0115 -0.0439
 4152W        W47246  15.825  20.213   4.168  0.0712  0.0238  0.1037
 4153W        W47247  14.634  18.591   3.547 -0.2193 -0.1526 -0.1844
 4154W        W47248  14.888  20.564   5.381  0.2484  0.1306  0.2192
 4155W        W47249  18.127  17.980   6.791  0.3560 -0.0647  0.1460
 4156W        W47250  13.793  21.612   5.638  0.1137  0.1516  0.1447
 4157W        W47251  18.002  21.689   3.108  0.2008 -0.0464 -0.0532
 4158W        W47252  15.282  19.442   3.501 -0.0673 -0.4431 -0.5136
 4159W        W47253  16.121  19.885   5.455  0.0084 -0.3556  0.1305
 4160W        W47254  16.975  18.128   6.216 -0.0549 -0.0463  0.1948
 4161W        W47255  16.042  20.845   1.543  0.3681 -0.2241 -0.2038
 4162W        W47256  16.778  18.553   5.249  0.1348 -0.3259  0.0385
 4163W        W47257  16.012  22.587   3.133 -0.0165 -0.2570 -0.1534
 4164W        W47258  14.587  20.821   5.688 -0.0142 -0.0973 -0.1577
 4165W        W47259  15.294  21.045   6.004 -0.1669  0.0575  0.0789
 4166W        W47260  15.717  17.508   3.098 -0.0352 -0.2275  0.2101
 4167W        W47261  19.044  19.464   5.122  0.0983  0.0725 -0.1179
 4168W        W47262  15.623  20.736   4.852 -0.3891 -0.0778  0.0626
 4169W        W47263  18.063  18.409   7.117  0.3429  0.0614 -0.0872
 4170W        W47264  15.417  19.419   4.858  0.1024 -0.1750 -0.1645
 4171W        W47265  17.131  18.655   2.964 -0.0309 -0.0132 -0.0173
 4172W        W47266  16.625  20.023   5.468  0.2284  0.2296  0.5157
 4173W        W47267  14.086  19.932   5.465 -0.0357  0.2536  0.0727
 4174W        W47268  14.998  19.549   3.894  0.3170 -0.2725 -0.2242
 4175W        W47269  15.819  19.720   6.304  0.0361 -0.0815 -0.0957
 4176W        W47270  16.616  19.990   3.149  0.0631  0.2287  0.0986
 4177W        W47271  18.021  20.280   6.710 -0.0258 -0.1300  0.2784
 4178W        W47272  14.518  19.242   5.243  0.2731  0.1479 -0.0791
 4179W        W47273  16.781  17.982   3.689  0.2525  0.0697 -0.0218
 4180W        W47274  15.634  20.836   3.830 -0.2026 -0.1870 -0.1549
 4181W        W47275  16.482  19.362   5.460  0.0323  0.2786 -0.0556
 4182W        W47276  17.191  20.585   5.844 -0.1672 -0.0440  0.0702
 4183W        W47277  15.349  18.746   2.705 -0.0432  0.1235 -0.0930
 4184W        W47278  18.459  21.337   3.293  0.2413  0.1838  0.1767
 4185W        W47279  18.705  19.380   3.794 -0.0915  0.0410  0.1224
 4186W        W47280  15.936  20.393   5.111  0.0008 -0.0616  0.2862
 4187W        W47281  18.006  20.823   3.345  0.1703  0.1193  0.0945
 4188W        W47282  18.037  21.426   4.413  0.2793 -0.0278 -0.1008
 4189W        W47283  14.546  19.422   4.645  0.1076 -0.0979 -0.1446
 4190W        W47284  18.413  21.849   4.383  0.1521  0.1541 -0.0972
 4191W        W47285  18.476  20.644   5.766  0.4473 -0.1658 -0.0850
 4192W        W47286  15.015  19.057   3.729  0.0491 -0.0481  0.2220
 4193W        W47287  15.921  19.618   4.942 -0.2642  0.0535  0.3339
 4194W        W47288  14.760  20.697   2.665 -0.3247 -0.0307 -0.0455
 4195W        W47289  17.271  19.986   3.867  0.2180 -0.1020  0.2748
 4196W        W47290  17.355  19.031   3.896  0.1043 -0.1459 -0.4723
 4197W        W47291  16.243  21.867   4.164  0.3068  0.0568 -0.1642
 4198W        W47292  17.417  19.030   6.605  0.2033 -0.0824  0.1666
 4199W        W47293  16.005  20.283   6.330  0.2496  0.0095 -0.0711
 4200W        W47294  15.183  22.461   7.711 -0.1722  0.2073  0.0575
 4201W        W47295  14.261  20.119   4.229  0.1801 -0.0787 -0.1128
 4202W        W47296  14.830  20.564   6.037 -0.1613 -0.4508 -0.0898
 4203W        W47297  15.539  20.169   3.150 -0.0275  0.1158  0.0018
 4204W        W47298  15.800  21.126   5.713  0.3138  0.1471 -0.3784
 4205W        W47299  17.728  21.772   2.682 -0.2842  0.2043  0.0631
 4206W        W47300  17.713  20.137   4.887 -0.0531 -0.2650  0.1542
 4207W        W47301  17.669  20.736   4.192  0.1230 -0.1060 -0.0888
 4208W        W47302  15.052  18.613   3.892 -0.1825 -0.0341 -0.5334
 4209W        W47303  18.305  19.094   4.817 -0.1019 -0.1884 -0.0925
 4210W        W47304  18.523  18.608   4.961 -0.3038 -0.0142  0.0774
 4211W        W47305  16.363  19.969   5.869 -0.2265 -0.2263  0.0827
 4212W        W47306  14.481  19.593   1.922 -0.1953  0.0645  0.1859
 4213W        W47307  15.799  19.981   2.767  0.0505  0.0623 -0.0279
 4214W        W47308  15.500  19.855   3.891 -0.1229 -0.1875  0.1746
 4215W        W47309  16.809  17.729   7.114  0.0227  0.1260 -0.0078
 4216W        W47310  13.804  18.904   5.585  0.0078  0.0915 -0.1550
 4217W        W47311  14.326  20.752   6.091 -0.2548  0.0775  0.2046
 4218W        W47312  16.200  18.126   3.875 -0.1990  0.3508  0.1234
 4219W        W47313  18.507  19.698   4.623  0.4532 -0.0895  0.0055
 4220W        W47314  14.715  17.591   4.674  0.3399  0.1316 -0.3528
 4221W        W47315  14.669  18.332   4.661  0.1234  0.0008  0.1399
 4222W        W47316  17.230  20.374   4.506  0.0424 -0.2060  0.1422
 4223W        W47317  18.271  22.012   3.425 -0.1132  0.0221 -0.0981
 4224W        W47318  15.812  18.678   4.746 -0.0735 -0.0790  0.0372
 4225W        W47319  16.400  21.998   7.603 -0.0260 -0.0459 -0.1700
 4226W        W47320  14.241  19.717   2.837  0.0329 -0.2633 -0.0495
 4227W        W47321  16.075  18.491   6.899 -0.2137 -0.2297  0.2546
 4228W        W47322  15.431  18.344   5.671  0.0527 -0.0707  0.0758
 4229W        W47323  13.982  18.281   3.334  0.0904  0.0503 -0.0369
 4230W        W47324  17.501  19.195   5.567  0.3191 -0.2513 -0.1167
 4231W        W47325  16.347  20.447   5.374  0.0584 -0.2001  0.1423
 4232W        W47326  18.871  21.027   3.442  0.3607 -0.2710  0.1042
 4233W        W47327  17.372  20.726   6.420  0.0672  0.2459 -0.2097
 4234W        W47328  15.969  21.659   5.891  0.3988  0.0636 -0.4607
 4235W        W47329  14.277  18.198   6.080 -0.0517 -0.1597  0.0987
 4236W        W47330  16.182  21.092   4.488  0.0238 -0.1869 -0.2318
 4237W        W47331  14.982  21.086   5.572 -0.0799  0.0179 -0.0256
 4238W        W47332  19.497  20.805   3.455 -0.0534 -0.0717 -0.1796
 4239W        W47333  18.561  17.656   5.077  0.2105 -0.1359 -0.2694
 4240W        W47334  16.775  20.157   3.790  0.4199 -0.1805 -0.0930
 4241W        W47335  15.377  18.060   5.157  0.0419 -0.1847  0.1266
 4242W        W47336  15.786  19.967   5.846 -0.2205 -0.0360 -0.3034
 4243W        W47337  17.772  19.883   3.947  0.2556  0.2055 -0.1439
 4244W        W47338  14.403  17.795   5.405 -0.0333  0.3666  0.2253
 4245W        W47339  17.975  19.521   5.486  0.2230  0.1280  0.1473
 4246W        W47340  16.967  20.878   4.230 -0.1041  0.3283  0.0005
 4247W        W47341  14.789  20.261   4.455 -0.1397  0.0164  0.0660
 4248W        W47342  15.478  18.822   3.750  0.1589 -0.1484  0.0282
 4249W        W47343  17.804  19.510   6.507 -0.3975  0.2008 -0.0430
 4250W        W47344  17.268  20.497   4.015 -0.0050  0.0912  0.3536
 4251W        W47345  18.947  20.418   5.753 -0.3712  0.1060  0.0081
 4252W        W47346  15.660  19.360   3.824  0.0793 -0.3181  0.0094
 4253W        W47347  19.013  20.833   3.885 -0.0753  0.1032 -0.0793
 4254W        W47348  17.419  22.088   6.725  0.1104 -0.0059  0.2470
 4255W        W47349  17.174  20.145   6.905  0.0990 -0.1988 -0.0397
 4256W        W47350  17.046  20.558   5.327 -0.1032  0.0965  0.1183
 4257W        W47351  18.467  18.943   3.838 -0.1332  0.2285 -0.2377
 4258W        W47352  14.873  16.988   5.840 -0.1533 -0.1963 -0.1366
 4259W        W47353  14.459  19.512   3.216 -0.0862  0.0239  0.2607
 4260W        W47354  16.052  19.997   3.204  0.0306  0.1684 -0.1944
 4261W        W47355  18.004  19.613   3.499 -0.1640 -0.0391  0.2662
 4262W        W47356  14.589  18.341   5.149  0.0093  0.0511  0.1452
 4263W        W47357  16.825  19.254   4.579  0.1181  0.3500 -0.2658
 4264W        W47358  16.600  21.743   5.140 -0.3456 -0.0922  0.0077
 4265W        W47359  16.812  20.106   5.022  0.1485 -0.0041  0.0369
 4266W        W47360  15.364  19.331   8.761 -0.1851  0.1891  0.1567
 4267W        W47361  14.796  19.726   6.748 -0.0721 -0.2444 -0.1626
 4268W        W47362  17.085  18.093   6.738 -0.0970 -0.0123  0.0356
 4269W        W47363  17.154  19.600   8.187 -0.0377 -0.0585  0.3613
 4270W        W47364  15.793  17.039   7.355  0.0689 -0.0727 -0.0689
 4271W        W47365  18.715  20.904   8.205  0.3561 -0.0448 -0.2949
 4272W        W47366  19.099  21.437   8.278 -0.2467 -0.1031  0.0848
 4273W        W47367  19.843  23.108   9.064 -0.1052 -0.0006  0.0451
 4274W        W47368  17.681  21.155   6.414  0.0696 -0.2750 -0.1204
 4275W        W47369  15.724  17.956   8.912  0.1332  0.2051 -0.1399
 4276W        W47370  16.586  17.567   8.121 -0.1474  0.2203 -0.3027
 4277W        W47371  14.737  17.572   7.677 -0.3507 -0.3112 -0.2295
 4278W        W47372  14.873  20.302   8.573 -0.2316 -0.0165 -0.0801
 4279W        W47373  15.258  17.222   7.714 -0.2540  0.1350 -0.1030
 4280W        W47374  16.560  19.787   8.760  0.0454 -0.2382 -0.0441
 4281W        W47375  15.689  17.795   6.413  0.2080 -0.2669  0.0485
 4282W        W47376  16.593  20.880   6.907 -0.1196  0.2222  0.0685
 4283W        W47377  16.138  17.632   9.034  0.4251  0.0253  0.2004
 4284W        W47378  16.481  20.301   7.874 -0.3644 -0.3462 -0.0612
 4285W        W47379  14.411  18.459   6.502 -0.1393  0.0867  0.5109
 4286W        W47380  14.600  20.499   9.090  0.0254  0.0255 -0.0527
 4287W        W47381  15.135  20.545   9.202  0.1009 -0.2396 -0.3010
 4288W        W47382  15.684  18.962   9.146  0.0428 -0.1067  0.1604
 4289W        W47383  16.997  18.147   9.251  0.1068 -0.2405 -0.1616
 4290W        W47384  15.285  18.422   7.654  0.1003 -0.0971  0.0567
 4291W        W47385  18.213  22.587   8.813 -0.0274  0.2005 -0.1372
 4292W        W47386  13.533  20.789   9.751 -0.0377 -0.1941 -0.3631
 4293W        W47387  14.291  21.095   8.353 -0.0560  0.0808 -0.2093
 4294W        W47388  15.760  19.462   7.024  0.3083  0.2530  0.1901
 4295W        W47389  17.980  20.283   8.121  0.3752  0.0840 -0.0226
 4296W        W47390  15.331  20.156   7.496  0.0636  0.0935 -0.2163
 4297W        W47391  14.870  18.543   7.892 -0.2682 -0.3191 -0.0366
 4298W        W47392  15.777  18.611   7.367 -0.2632 -0.1239  0.2240
 4299W        W47393  16.901  21.176   6.565 -0.3844 -0.0079 -0.1814
 4300W        W47394  16.694  20.898   7.898  0.1548  0.0441  0.2723
 4301W        W47395  13.513  19.528   9.026 -0.0915  0.0926  0.0035
 4302W        W47396  16.081  19.671   6.696  0.0732 -0.2785  0.0122
 4303W        W47397  17.061  19.466   7.476  0.0857 -0.3315 -0.0277
 4304W        W47398  16.701  19.418   5.995  0.2729 -0.0409  0.2049
 4305W        W47399  18.391  19.124   8.527 -0.2391 -0.0880 -0.1675
 4306W        W47400  16.076  17.236   7.817 -0.2459 -0.1226  0.0766
 4307W        W47401  15.182  20.164   8.221  0.2791 -0.2193 -0.1920
 4308W        W47402  15.694  17.657   8.478 -0.2143  0.1231  0.1462
 4309W        W47403  15.273  19.752   6.026  0.2111 -0.2219  0.1519
 4310W        W47404  17.235  19.385   9.408  0.0818  0.0011  0.0136
 4311W        W47405  13.077  21.032   9.686 -0.2330 -0.0526 -0.0460
 4312W        W47406  14.906  18.421   7.362  0.3411 -0.1264  0.1848
 4313W        W47407  17.191  21.570   6.780  0.0188 -0.1945  0.0384
 4314W        W47408  18.586  21.566   7.355  0.1141  0.1819 -0.2171
 4315W        W47409  17.253  21.913   7.183 -0.0289  0.1014  0.2240
 4316W        W47410  14.652  19.805   7.278  0.1781  0.0820 -0.1874
 4317W        W47411  15.726  18.179   6.035  0.2260 -0.2548 -0.0296
 4318W        W47412  17.696  18.521   8.762 -0.0749  0.0191  0.0196
 4319W        W47413  16.280  19.472   8.457  0.2173  0.0091  0.0253
 4320W        W47414  18.063  19.459  10.013  0.2459 -0.0753  0.2637
 4321W        W47415  17.167  21.040   6.110  0.0887  0.1748  0.1688
 4322W        W47416  17.521  18.164   9.088  0.1201 -0.0454  0.0734
 4323W        W47417  16.878  19.651   9.155  0.0127  0.0886  0.0826
 4324W        W47418  15.313  19.745   6.546  0.0178  0.1559  0.1353
 4325W        W47419  15.537  19.284   6.527 -0.3283 -0.0150  0.0842
 4326W        W47420  17.661  21.775   9.381  0.0354  0.0731  0.1684
 4327W        W47421  16.472  20.445   7.196 -0.0963 -0.0571  0.0635
 4328W        W47422  15.854  20.489   9.397 -0.0029  0.1443  0.3592
 4329W        W47423  15.754  20.461   7.374 -0.0569 -0.2644  0.0267
 4330W        W47424  13.623  21.292   8.923 -0.0172  0.2443 -0.1871
 4331W        W47425  15.584  20.788   7.013  0.1859 -0.0531 -0.0797
 4332W        W47426  14.346  17.608   8.871 -0.1001  0.2443  0.0945
 4333W        W47427  17.431  20.245   8.937  0.0495 -0.1495  0.1183
 4334W        W47428  18.692  18.773   7.778  0.1485  0.1591  0.4169
 4335W        W47429  16.870  18.929   8.707  0.1433  0.0162 -0.0730
 4336W        W47430  15.684  20.149   8.359  0.2445  0.1076 -0.2407
 4337W        W47431  18.114  21.531   8.486  0.2208 -0.2682 -0.0407
 4338W        W47432  17.343  20.338   7.485  0.2755  0.0633 -0.1703
 4339W        W47433  17.660  21.711   6.939 -0.3565  0.3340  0.1640
 4340W        W47434  14.501  18.051   9.014  0.0547  0.0861  0.0171
 4341W        W47435  15.411  18.211   6.495 -0.3272 -0.0559  0.1066
 4342W        W47436  14.544  19.467   8.649  0.0436  0.2997 -0.1069
 4343W        W47437  15.031  17.988   4.528 -0.1909  0.1434 -0.0057
 4344W        W47438  15.925  18.321   8.050  0.2883  0.1313  0.2664
 4345W        W47439  15.220  17.270   6.488  0.2065 -0.0080 -0.0606
 4346W        W47440  14.194  20.634   7.560 -0.3034  0.3296 -0.0808
 4347W        W47441  17.388  22.537   6.985  0.0011 -0.0507  0.1347
 4348W        W47442  16.378  21.256   8.881 -0.0005 -0.0959  0.1841
 4349W        W47443  17.015  20.929   8.271  0.2257  0.0725  0.0917
 4350W        W47444  12.997  20.214   9.147  0.0810 -0.1214 -0.0682
 4351W        W47445  15.458  17.532   6.821  0.2454  0.0038 -0.3696
 4352W        W47446  15.701  21.797   8.269 -0.0508 -0.0687  0.0642
 4353W        W47447  15.345  19.625   7.500  0.0560  0.1393  0.0470
 4354W        W47448  15.861  19.182   7.455  0.0996 -0.1812  0.1377
 4355W        W47449  17.892  20.691   8.457  0.4103  0.1411  0.1564
 4356W        W47450  16.750  19.500   7.854 -0.0538  0.2133  0.1499
 4357W        W47451  18.996  18.026   9.799  0.3094 -0.2272 -0.1662
 4358W        W47452  16.932  19.018   7.460  0.0833 -0.0773 -0.1438
 4359W        W47453  15.042  18.166   5.989  0.3809  0.4825  0.5074
 4360W        W47454  16.366  22.494   8.962  0.1926 -0.0282 -0.1792
 4361W        W47455  16.319  21.494   6.971  0.3039 -0.0174 -0.1350
 4362W        W47456  13.820  19.834   9.317 -0.0120  0.4154 -0.0277
 4363W        W47457  16.201  20.653   7.655  0.3651 -0.2427  0.2316
 4364W        W47458  16.089  18.560   8.442 -0.0611 -0.1230  0.1225
 4365W        W47459  14.975  18.495   6.812  0.2338  0.1995 -0.0804
 4366W        W47460  16.587  18.276   6.929 -0.1686  0.0068 -0.0420
 4367W        W47461  18.439  19.786   7.676  0.2965 -0.0271 -0.1314
 4368W        W47462  17.411  21.406   7.275 -0.1181 -0.2249 -0.1223
 4369W        W47463  17.220  18.501   6.497  0.2366 -0.1804  0.3961
 4370W        W47464  15.959  18.214   6.474  0.0759  0.1455  0.6669
 4371W        W47465  17.002  21.136   7.480 -0.0149 -0.1137  0.0266
 4372W        W47466  16.774  19.410   8.386 -0.1548 -0.0461 -0.0111
 4373W        W47467  16.428  18.459   5.589  0.2355 -0.1313 -0.3665
 4374W        W47468  19.055  21.380   6.045 -0.4133  0.1720  0.0364
 4375W        W47469  14.921  21.573   9.325 -0.3042  0.0184 -0.0545
 4376W        W47470  16.826  21.141   9.262 -0.1795  0.2297  0.4438
 4377W        W47471  16.996  20.175   9.160 -0.3498  0.2163  0.0666
 4378W        W47472  14.894  20.041   5.784 -0.1792  0.4738  0.2919
 4379W        W47473  17.030  18.544   7.924  0.1201 -0.3264 -0.0837
 4380W        W47474  14.439  22.208   6.690  0.0979  0.1551 -0.4081
 4381W        W47475  16.853  19.069   9.168 -0.2199  0.0136 -0.1164
 4382W        W47476  15.197  18.795   8.825  0.0969  0.0684 -0.1084
 4383W        W47477  17.297  18.684   7.506 -0.0056 -0.0130 -0.1138
 4384W        W47478  17.478  20.202   8.007  0.0594  0.1423 -0.2582
 4385W        W47479  14.499  18.631   7.153 -0.0109  0.1743 -0.0086
 4386W        W47480  18.459  18.010   9.528  0.1719  0.0096 -0.0903
 4387W        W47481  15.096  20.955   8.680  0.0331  0.1928 -0.1215
 4388W        W47482  16.605  20.015   6.964  0.3221  0.0246  0.0147
 4389W        W47483  16.337  18.944   7.439  0.0517  0.0178  0.1796
 4390W        W47484  15.855  21.322   6.996 -0.1108 -0.0407 -0.0620
 4391W        W47485  15.093  21.419   6.370  0.4589 -0.2536 -0.2434
 4392W        W47486  15.593  17.839   9.345 -0.0209 -0.2308  0.0219
 4393W        W47487  16.827  21.140   9.872  0.1238 -0.4679  0.2201
 4394W        W47488  15.292  20.591   5.725 -0.0205 -0.0269  0.0388
 4395W        W47489  16.645  17.787   9.092  0.1676  0.0961 -0.2596
 4396W        W47490  15.814  21.429   7.598 -0.1405  0.1169  0.0015
 4397W        W47491  18.351  17.485   9.516 -0.0333 -0.1638  0.1945
 4398W        W47492  15.590  20.785   9.032  0.4142  0.2092 -0.1980
 4399W        W47493  15.232  19.355   6.882  0.2185  0.1109 -0.1695
 4400W        W47494  14.573  18.162   6.893  0.1978  0.0813 -0.0905
 4401W        W47495  15.756  16.526   7.487  0.0386 -0.0098 -0.1944
 4402W        W47496  17.051  20.752   7.086 -0.1364 -0.1932  0.0936
 4403W        W47497  16.359  19.184   9.460  0.7281  0.0503  0.2424
 4404W        W47498  16.842  17.533   8.552  0.2171 -0.1252 -0.1072
 4405W        W47499  15.389  21.297   9.515  0.5274  0.0751 -0.2215
 4406W        W47500  17.589  18.299   7.593  0.1524 -0.1180 -0.1946
 4407W        W47501  14.590  17.408   7.201  0.1254  0.1191 -0.1537
 4408W        W47502  19.348  19.591   9.857  0.0229 -0.1229 -0.0477
 4409W        W47503  15.510  18.623   8.045 -0.3406 -0.1994 -0.5967
 4410W        W47504  15.260  20.671   7.381  0.2755 -0.0490  0.0329
 4411W        W47505  16.732  20.257   8.736  0.1322 -0.0845  0.1458
 4412W        W47506  15.294  18.892   6.664  0.0758  0.2002 -0.1550
 4413W        W47507  16.069  21.092   7.388 -0.2727  0.0983  0.2281
 4414W        W47508  14.207  17.377  11.439 -0.0787  0.2002  0.2405
 4415W        W47509  14.907  18.253   8.746  0.0734 -0.1371  0.1048
 4416W        W47510  17.111  18.314   7.172 -0.0217 -0.2400  0.2440
 4417W        W47511  17.466  20.874   7.382  0.1303 -0.0037  0.2010
 4418W        W47512  16.108  18.750   9.235 -0.2833 -0.0092  0.0095
 4419W        W47513  16.963  18.038   8.765  0.6207 -0.0239 -0.0662
 4420W        W47514  14.250  16.157   9.028  0.1572 -0.0858  0.3945
 4421W        W47515  19.708  20.383   7.497  0.1887  0.1017  0.1023
 4422W        W47516  16.359  19.772   6.315  0.0946 -0.3867 -0.2187
 4423W        W47517  13.435  20.841   8.430  0.1425 -0.4874  0.0728
 4424W        W47518  14.148  19.693   7.416 -0.0861  0.0102 -0.1186
 4425W        W47519  15.582  17.121   8.425 -0.0165 -0.0753 -0.0745
 4426W        W47520  14.255  19.808   8.385 -0.1525 -0.0014 -0.0931
 4427W        W47521  15.010  19.927   7.772 -0.2143  0.0205 -0.2401
 4428W        W47522  17.701  19.359   9.199 -0.1223  0.0989 -0.0007
 4429W        W47523  17.962  17.905   7.283 -0.0377 -0.3482  0.3943
 4430W        W47524  16.077  20.192   6.975  0.0570 -0.0028 -0.0441
 4431W        W47525  15.682  17.564   7.276 -0.1049 -0.0083  0.0438
 4432W        W47526  16.629  18.755   7.077  0.0131  0.1016 -0.1418
 4433W        W47527  15.488  17.474   8.911  0.0355 -0.1031 -0.2332
 4434W        W47528  17.597  20.961   8.151 -0.1378  0.1372 -0.1648
 4435W        W47529  17.206  18.760   6.989 -0.2436  0.0917 -0.0171
 4436W        W47530  16.215  18.268   6.005  0.1228  0.1274  0.2663
 4437W        W47531  17.286  18.623   8.414 -0.1473  0.0065 -0.0612
 4438W        W47532  18.248  19.052   9.402 -0.0472  0.1171 -0.1542
 4439W        W47533  16.564  19.853   7.542 -0.1282  0.0362 -0.1502
 4440W        W47534  17.652  18.549   9.923 -0.0433  0.1605 -0.3164
 4441W        W47535  15.691  19.264   7.900 -0.0520 -0.2211 -0.2493
 4442W        W47536  17.741  20.549   7.698 -0.1825  0.2203 -0.0964
 4443W        W47537  15.676  20.030   6.636 -0.0347 -0.1520  0.0218
 4444W        W47538  15.974  20.183   8.002  0.0822  0.4475  0.0450
 4445W        W47539  17.631  19.418   8.718  0.0218  0.0826  0.0007
 4446W        W47540  16.089  18.850   7.868 -0.1681  0.1311 -0.2384
 4447W        W47541  18.661  21.881   7.778  0.0436 -0.0190 -0.1498
 4448W        W47542  17.887  18.802   6.293 -0.1520 -0.0279  0.0655
 4449W        W47543  17.120  19.426   8.765  0.1961  0.3908 -0.1022
 4450W        W47544  17.175  19.947   8.604  0.0859  0.3388  0.1886
 4451W        W47545  16.206  19.713   7.150  0.0407 -0.2319 -0.4613
 4452W        W47546  15.097  18.573   8.333 -0.0634 -0.2714  0.0548
 4453W        W47547  16.216  18.762   6.067 -0.4107  0.1478  0.0716
 4454W        W47548  16.342  21.928   6.577 -0.1948  0.1866 -0.0225
 4455W        W47549  17.624  19.937   9.444  0.2896  0.0358 -0.3175
 4456W        W47550  15.793  17.909   6.899  0.1799  0.1177  0.0668
 4457W        W47551  14.452  18.043   7.540 -0.0520  0.5054 -0.0527
 4458W        W47552  16.392  18.726   6.563 -0.0589 -0.0110 -0.1119
 4459W        W47553  17.699  19.879   6.885  0.0511 -0.3106 -0.1966
 4460W        W47554  17.229  20.755   7.853  0.4235  0.0584  0.0391
 4461W        W47555  17.100  18.596   5.891 -0.1644 -0.2601 -0.2379
 4462W        W47556  14.849  21.184   7.230 -0.0738 -0.3741 -0.0492
 4463W        W47557  18.505  19.533  10.299  0.1187  0.3242 -0.0614
 4464W        W47558  15.832  21.412   9.068 -0.0936 -0.2396 -0.1980
 4465W        W47559  15.196  19.839   7.027  0.3456 -0.1983  0.0420
 4466W        W47560  14.736  17.720   8.643  0.0944 -0.0282  0.0761
 4467W        W47561  18.929  19.727   9.635  0.0418 -0.0799 -0.2338
 4468W        W47562  15.968  18.133   7.282  0.4032 -0.3279 -0.6287
 4469W        W47563  15.190  17.765   7.762 -0.0716  0.2253  0.2023
 4470W        W47564  17.950  19.780   8.978 -0.0222  0.3726 -0.3912
 4471W        W47565  14.764  18.879   7.505  0.2003  0.1798 -0.0389
 4472W        W47566  16.661  20.595   9.078  0.2495  0.0815 -0.0005
 4473W        W47567  16.284  17.897   5.378  0.1984 -0.2748  0.0484
 4474W        W47568  16.637  21.098   6.107 -0.0388 -0.1036 -0.2105
 4475W        W47569  13.358  20.219   8.384 -0.0378  0.1085  0.0541
 4476W        W47570  15.537  22.240   8.361  0.0585 -0.4573 -0.1192
 4477W        W47571  15.848  18.813   6.536  0.1801 -0.1410 -0.0804
 4478W        W47572  16.271  19.577   9.106  0.0725 -0.1748  0.1291
 4479W        W47573  16.590  19.332   8.860 -0.0399  0.1106 -0.0622
 4480W        W47574  15.649  19.468   5.881 -0.1528 -0.1340 -0.1225
 4481W        W47575  14.956  20.421   7.753  0.0643  0.0927  0.0310
 4482W        W47576  14.321  21.249   7.096 -0.1199  0.0149 -0.1400
 4483W        W47577  18.040  20.764   7.373  0.3822 -0.0029 -0.3348
 4484W        W47578  16.020  22.160   8.014  0.1945 -0.2464 -0.1164
 4485W        W47579  17.566  18.541   5.977 -0.0129  0.4780 -0.0684
 4486W        W47580  14.539  19.913   8.814 -0.1350  0.1769 -0.2041
 4487W        W47581  18.096  19.710   8.031 -0.1608 -0.1170 -0.1982
 4488W        W47582  15.131  18.701   9.345  0.0688  0.0414  0.1153
 4489W        W47583  16.440  18.261   6.449 -0.1090  0.0235  0.2450
 4490W        W47584  18.113  21.831   7.209 -0.0580 -0.4090  0.3021
 4491W        W47585  16.099  17.789   8.123  0.2930 -0.1822 -0.1415
 4492W        W47586  16.220  18.967   8.745  0.1574  0.1522 -0.1885
 4493W        W47587  17.355  18.981   8.950 -0.1118  0.3543 -0.0117
 4494W        W47588  16.766  21.304   7.093 -0.2190 -0.0803  0.0056
 4495W        W47589  16.749  20.473   8.244  0.0042 -0.3416 -0.0460
 4496W        W47590  15.451  20.406   7.901 -0.0974 -0.0824  0.1084
 4497W        W47591  16.402  19.838   7.981  0.1281  0.1485 -0.0545
 4498W        W47592  15.423  19.875   8.796 -0.3696  0.2510  0.1666
 4499W        W47593  15.139  17.958   6.844  0.0532  0.0044 -0.1698
 4500W        W47594  18.533  18.565   8.297 -0.0002  0.0149  0.3857
 4501W        W47595  15.325  18.238   9.122 -0.2814 -0.0511 -0.0616
 4502W        W47596  16.270  17.152   7.163 -0.3678 -0.1161  0.3241
 4503W        W47597  16.616  18.977   7.827  0.2160  0.0528  0.1343
 4504W        W47598  17.611  20.718   8.905 -0.1446 -0.0352 -0.2517
 4505W        W47599  16.344  21.322   9.970  0.0049 -0.1556 -0.0612
 4506W        W47600  14.329  19.725   6.844  0.0672 -0.2190 -0.2031
 4507W        W47601  16.123  19.108   6.965 -0.1510 -0.0898  0.3164
 4508W        W47602  14.924  17.428   8.987 -0.1103 -0.1855  0.2090
 4509W        W47603  16.579  19.416   7.303  0.1937  0.2681  0.1844
 4510W        W47604  15.672  18.932   7.024 -0.1302  0.0389 -0.2457
 4511W        W47605  14.224  21.028   9.641 -0.1386 -0.0917  0.0499
 4512W        W47606  14.908  17.081   7.451 -0.6047  0.3387  0.1261
 4513W        W47607  18.310  20.316   7.108 -0.3675 -0.1303  0.0135
 4514W        W47608  18.510  19.439   9.701 -0.0338 -0.1818 -0.0591
 4515W        W47609  16.029  21.801   7.273  0.0084 -0.0641 -0.0630
 4516W        W47610  18.921  19.122   8.855 -0.0648  0.0688 -0.0933
 4517W        W47611  17.399  19.754   9.032  0.1212 -0.1303 -0.0987
 4518W        W47612  14.682  18.608   8.992 -0.1024 -0.0030  0.0264
 4519W        W47613  14.947  19.538   8.963 -0.0014  0.0305  0.0464
 4520W        W47614  17.200  21.317  10.089  0.0345 -0.0514  0.0593
 4521W        W47615  14.797  16.809   8.498  0.0506  0.2168 -0.1618
 4522W        W47616  16.136  17.414   6.212 -0.2399  0.0161  0.2158
 4523W        W47617  14.376  22.158   7.478  0.1553  0.0123 -0.0098
 4524W        W47618  17.833  18.963   8.565  0.0667  0.2560 -0.0813
 4525W        W47619  15.506  20.551   6.551  0.1031 -0.1887  0.4247
 4526W        W47620  17.359  21.178   9.089  0.2099 -0.0445 -0.2849
 4527W        W47621  15.518  17.756   5.901 -0.1731  0.0776 -0.1395
 4528W        W47622  14.266  19.090   7.353  0.2092  0.3136  0.1065
 4529W        W47623  16.093  20.129   7.539 -0.1604 -0.0746 -0.2452
 4530W        W47624  17.038  20.681   8.781 -0.0179  0.1932 -0.0070
 4531W        W47625  16.752  18.495   8.512  0.0627  0.2492 -0.1851
 4532W        W47626  17.326  20.439   8.448  0.0787 -0.1020  0.0829
 4533W        W47627  15.411  18.061   7.295 -0.1438 -0.1639  0.0453
 4534W        W47628  18.441  18.908   6.819 -0.5194  0.0595  0.0723
 4535W        W47629  17.396  17.869   7.373  0.0299 -0.0040 -0.0028
 4536W        W47630  16.279  20.651   8.247  0.1525  0.0771 -0.1970
 4537W        W47631  14.105  20.147   7.210 -0.0895  0.3200  0.0073
 4538W        W47632  14.852  19.327   7.626 -0.0842  0.1366 -0.0227
 4539W        W47633  16.252  20.381   8.871  0.1037  0.2223 -0.0488
 4540W        W47634  15.448  18.329   8.642 -0.2829  0.1171  0.2352
 4541W        W47635  14.847  17.335   6.260  0.0355 -0.3915  0.0499
 4542W        W47636  17.692  20.095   8.509  0.0557  0.1543 -0.2338
 4543W        W47637  15.707  17.984   7.739  0.0259  0.1989 -0.0674
 4544W        W47638  14.398  17.325   8.244 -0.2460 -0.1755 -0.0988
 4545W        W47639  16.776  20.448   6.726 -0.1724 -0.0582  0.0901
 4546W        W47640  17.844  21.402   7.389 -0.2207  0.1348 -0.3891
 4547W        W47641  16.541  18.052   7.862 -0.0107  0.0623 -0.0321
 4548W        W47642  14.362  19.386   7.755 -0.2254  0.1778 -0.0723
 4549W        W47643  13.849  17.861   6.198 -0.2930 -0.1553  0.2549
 4550W        W47644  15.689  18.808   8.674  0.1812 -0.2074  0.0392
 4551W        W47645  16.345  20.139   8.405  0.2090 -0.0849  0.0651
 4552W        W47646  16.343  20.934   5.654  0.1264  0.1025 -0.1351
 4553W        W47647  14.508  18.331   8.384 -0.0704 -0.2420  0.0426
 4554W        W47648  17.589  19.478   7.719 -0.2348  0.1803  0.0786
 4555W        W47649  18.217  20.016   8.514  0.3809 -0.1270  0.3461
 4556W        W47650  17.556  18.289   8.121  0.1358 -0.0882 -0.0980
 4557W        W47651  16.959  20.057   7.370 -0.0039  0.1160 -0.0402
 4558W        W47652  17.191  20.673   9.318 -0.2567  0.0160  0.2210
 4559W        W47653  15.425  19.118   8.282 -0.0082  0.1061 -0.3782
 4560W        W47654  18.071  19.547   8.518 -0.0341 -0.2535  0.2155
 4561W        W47655  18.940  20.880   7.700  0.0341  0.0977 -0.0200
 4562W        W47656  14.938  19.120   8.358 -0.0974  0.4099 -0.2270
 4563W        W47657  16.235  18.441   7.624 -0.0080  0.2221 -0.1454
 4564W        W47658  18.301  21.038   8.462  0.1188  0.1182  0.1987
 4565W        W47659  15.008  20.725   6.884 -0.3824  0.0089 -0.0065
 4566W        W47660  17.841  20.345   7.178  0.0719  0.0742 -0.2162
 4567W        W47661  16.411  21.577   9.430  0.1880  0.0120  0.2468
 4568W        W47662  15.696  19.988   7.209 -0.1231 -0.0345 -0.1068
 4569W        W47663  16.268  19.766   9.549  0.1553 -0.1733 -0.2556
 4570W        W47664  16.501  18.937   8.346  0.2099 -0.1479  0.1930
 4571W        W47665  16.754  19.933   8.264 -0.0507  0.2382  0.1632
 4572W        W47666  15.928  19.682   8.220  0.0133  0.1499 -0.1545
 4573W        W47667  16.632  17.382   9.406 -0.1409  0.1543 -0.4164
 4574W        W47668  15.141  19.486   7.950 -0.2288 -0.0985  0.1709
 4575W        W47669  16.001  19.629   7.638  0.0860 -0.2827  0.0619
 4576W        W47670  16.464  20.077   9.187 -0.0266 -0.1459  0.4608
 4577W        W47671  15.928  18.423   8.905 -0.3893 -0.1618  0.0146
 4578W        W47672  16.289  24.247   3.250  0.1194  0.2760  0.0481
 4579W        W47673  15.855  21.470  30.656  0.0172  0.0778  0.0569
 4580W        W47674  17.039  22.625  30.060  0.2266  0.0384 -0.2027
 4581W        W47675  17.216  22.421   0.917  0.2915  0.1375 -0.1269
 4582W        W47676  13.702  21.718   0.061 -0.3567 -0.1281  0.1140
 4583W        W47677  18.128  24.586   0.442  0.3778 -0.3505 -0.0817
 4584W        W47678  14.480  21.181   2.812 -0.1020  0.2789 -0.1032
 4585W        W47679  17.956  23.881   1.391 -0.0638  0.0298 -0.0174
 4586W        W47680  17.702  25.183   0.901  0.3591 -0.0228  0.0696
 4587W        W47681  16.963  21.727  31.437  0.3182  0.1714 -0.0725
 4588W        W47682  15.300  21.408   1.731 -0.2338  0.1420  0.1702
 4589W        W47683  15.410  26.078   3.235 -0.0151  0.1063  0.2133
 4590W        W47684  15.252  20.912   0.553 -0.1597  0.0111  0.0564
 4591W        W47685  14.812  20.702   2.134 -0.1337 -0.0341 -0.1723
 4592W        W47686  17.433  22.560   0.417 -0.1862 -0.2328  0.1284
 4593W        W47687  14.660  23.026   0.170  0.1243  0.0461  0.2212
 4594W        W47688  15.903  21.318   1.592 -0.0477 -0.0682  0.0730
 4595W        W47689  15.419  22.621  31.834 -0.1379  0.0077  0.2057
 4596W        W47690  16.796  24.010   1.329 -0.0148 -0.4237  0.2796
 4597W        W47691  17.034  21.115   3.193  0.0889  0.1687 -0.2870
 4598W        W47692  16.969  20.481   2.322 -0.2542 -0.1511 -0.0324
 4599W        W47693  17.340  23.779   0.051  0.1095  0.1065  0.0319
 4600W        W47694  14.514  22.290  30.332 -0.3346  0.1878 -0.4346
 4601W        W47695  14.457  23.982   1.204 -0.2497  0.0711 -0.3295
 4602W        W47696  14.291  24.310   2.081  0.1277  0.1500 -0.1432
 4603W        W47697  16.318  23.438   1.746 -0.1685 -0.2204 -0.2568
 4604W        W47698  17.530  22.612   1.839 -0.1464  0.1713  0.0838
 4605W        W47699  15.538  24.313   2.034  0.3568 -0.1676  0.0066
 4606W        W47700  17.712  23.018   1.544 -0.3115  0.1961 -0.0141
 4607W        W47701  17.581  22.030   3.111 -0.5085  0.1089  0.1675
 4608W        W47702  14.247  24.411   1.414  0.1201  0.1454  0.3343
 4609W        W47703  13.447  25.387   0.978 -0.2393  0.0179  0.1435
 4610W        W47704  16.415  25.124   1.118  0.4319 -0.1135 -0.1361
 4611W        W47705  18.876  24.308   1.394 -0.0445 -0.0933 -0.0516
 4612W        W47706  17.683  24.509   1.530 -0.0931  0.0918 -0.1968
 4613W        W47707  15.847  25.375   2.575 -0.0213 -0.2073 -0.1326
 4614W        W47708  14.067  23.093  30.331 -0.3527  0.1727 -0.1063
 4615W        W47709  15.805  22.701   4.025  0.0120 -0.0064 -0.0852
 4616W        W47710  16.674  23.791   1.779 -0.0807 -0.0598  0.1102
 4617W        W47711  16.599  23.748   3.030 -0.1564  0.1366 -0.0812
 4618W        W47712  15.523  24.195   0.878 -0.2952  0.0316  0.1659
 4619W        W47713  16.355  25.915   0.646  0.0841  0.1625 -0.0157
 4620W        W47714  15.845  21.944   0.722 -0.0652 -0.2028 -0.0299
 4621W        W47715  16.422  23.436   3.563  0.1266 -0.0373  0.4240
 4622W        W47716  16.165  25.525   0.892 -0.0214  0.2137  0.0829
 4623W        W47717  18.313  22.977   3.009  0.2251  0.0028  0.1801
 4624W        W47718  16.004  24.262   0.751 -0.3133 -0.0169 -0.0895
 4625W        W47719  16.516  21.362   0.396 -0.1850  0.1516 -0.0200
 4626W        W47720  17.037  23.135  30.104  0.3383 -0.0602  0.0636
 4627W        W47721  16.500  21.944  31.010  0.0792 -0.1103  0.0407
 4628W        W47722  14.334  21.834   0.708 -0.0452  0.1862  0.3547
 4629W        W47723  16.553  24.173   2.150 -0.2490  0.1973  0.0259
 4630W        W47724  15.155  20.959   1.061 -0.3172 -0.0277  0.0150
 4631W        W47725  17.170  22.445   1.442 -0.1532  0.2682  0.1944
 4632W        W47726  15.807  23.087   0.543 -0.2721 -0.0537  0.1231
 4633W        W47727  15.602  21.886   1.572  0.2215 -0.1685 -0.1488
 4634W        W47728  15.541  24.843   2.048 -0.0970  0.1613  0.1056
 4635W        W47729  14.419  22.334   0.886  0.0797 -0.0007 -0.1522
 4636W        W47730  18.353  25.965  31.967 -0.1529 -0.1908 -0.1086
 4637W        W47731  18.181  23.706   0.622  0.1967  0.0735 -0.0051
 4638W        W47732  17.269  23.606  31.184 -0.0166  0.2358 -0.0882
 4639W        W47733  15.032  23.093  31.748 -0.1037  0.0379 -0.2967
 4640W        W47734  14.024  24.782   2.131 -0.0228  0.3743  0.0709
 4641W        W47735  14.319  22.358   1.490 -0.1918  0.0041  0.0575
 4642W        W47736  15.943  21.701  29.782  0.1299 -0.1009 -0.0491
 4643W        W47737  17.452  24.117   2.318  0.1205  0.0201 -0.2258
 4644W        W47738  16.453  22.689   3.200  0.1814 -0.3003  0.1058
 4645W        W47739  18.817  20.905   0.021 -0.0605  0.1968  0.2709
 4646W        W47740  15.760  24.034   2.567 -0.2767 -0.0667 -0.1351
 4647W        W47741  17.184  23.876   0.888 -0.1739 -0.1154  0.0033
 4648W        W47742  16.260  23.841   0.824 -0.2878  0.1789 -0.2558
 4649W        W47743  16.770  21.685   1.343 -0.1340 -0.3860  0.0492
 4650W        W47744  17.787  21.592   0.771  0.0874 -0.0358 -0.4001
 4651W        W47745  15.768  22.637  29.707  0.0891  0.0663 -0.4334
 4652W        W47746  17.606  24.197   1.169  0.1984  0.0982  0.0692
 4653W        W47747  18.615  25.329   1.560 -0.0448 -0.0334 -0.0137
 4654W        W47748  16.742  21.136  30.764  0.3081 -0.1715  0.2842
 4655W        W47749  15.977  21.422   2.052  0.3206 -0.0256  0.1630
 4656W        W47750  15.367  22.461   3.648  0.1943  0.0036 -0.0027
 4657W        W47751  16.801  24.376  31.503 -0.1081 -0.1969  0.0040
 4658W        W47752  15.573  24.897   1.542 -0.0711 -0.0905  0.3938
 4659W        W47753  14.723  24.290  31.440  0.1180 -0.3897  0.0820
 4660W        W47754  13.313  21.166   0.609 -0.1726 -0.2560 -0.0123
 4661W        W47755  15.983  24.012   2.142 -0.3008 -0.3546 -0.1086
 4662W        W47756  17.620  21.176   1.014 -0.3923 -0.0162 -0.1520
 4663W        W47757  14.992  20.388   1.804  0.0378  0.0908  0.0221
 4664W        W47758  18.563  22.671   1.751  0.1014  0.1707 -0.1125
 4665W        W47759  15.475  23.894   0.374 -0.1239  0.1102  0.1332
 4666W        W47760  16.968  25.826   1.702 -0.0412  0.0681  0.2274
 4667W        W47761  18.630  21.598   0.129 -0.0350  0.0678 -0.0167
 4668W        W47762  16.378  22.894  31.459 -0.0113  0.0735  0.1469
 4669W        W47763  14.744  23.641   1.581  0.3033  0.3427  0.1941
 4670W        W47764  13.946  23.190  31.623 -0.0162 -0.3199 -0.2426
 4671W        W47765  15.651  22.120   2.429 -0.0374 -0.0412 -0.1475
 4672W        W47766  14.669  22.478   0.091  0.1040  0.2602  0.0544
 4673W        W47767  16.910  23.542   2.673  0.1222  0.3014 -0.2513
 4674W        W47768  14.918  21.299  30.993  0.2145  0.0976  0.1281
 4675W        W47769  16.760  21.498  31.850 -0.1257  0.0305 -0.0302
 4676W        W47770  15.922  23.528   1.457 -0.0201 -0.0263 -0.3645
 4677W        W47771  13.633  22.086   0.380 -0.1787  0.1603  0.0575
 4678W        W47772  17.772  21.650   1.760  0.2122  0.3430 -0.2302
 4679W        W47773  17.044  26.337   1.400 -0.3862  0.1543  0.3210
 4680W        W47774  18.100  24.372   2.459 -0.0051 -0.0091 -0.1156
 4681W        W47775  16.544  24.664   0.824  0.0009 -0.1472  0.2288
 4682W        W47776  15.676  21.308   2.423 -0.2145  0.1336 -0.2074
 4683W        W47777  14.641  23.039  30.004 -0.0978  0.1284  0.0203
 4684W        W47778  15.285  24.357   0.435  0.1082 -0.0543 -0.4406
 4685W        W47779  16.076  24.778   1.095  0.1722  0.3088  0.2041
 4686W        W47780  14.004  21.830  31.680 -0.0541 -0.0054  0.0385
 4687W        W47781  18.176  24.702   1.907 -0.1790  0.0896  0.0277
 4688W        W47782  17.120  23.553   1.262 -0.0168 -0.4577  0.1774
 4689W        W47783  15.070  24.963   1.566 -0.0618  0.2053  0.0694
 4690W        W47784  18.827  23.899   2.923  0.1688  0.1062 -0.0812
 4691W        W47785  17.508  23.652   2.095  0.0707 -0.0547 -0.1366
 4692W        W47786  15.450  22.422   0.392  0.1864  0.1240  0.0081
 4693W        W47787  13.845  22.145  31.276  0.1721  0.5634  0.0912
 4694W        W47788  16.572  23.282   1.348  0.1574  0.0803  0.2152
 4695W        W47789  14.714  23.842  31.076  0.2014 -0.2303 -0.0161
 4696W        W47790  15.769  24.041   1.631  0.0680  0.0730  0.2175
 4697W        W47791  16.950  24.118   2.454 -0.1525  0.0953  0.0693
 4698W        W47792  16.507  21.035   0.785 -0.0214  0.1157  0.2150
 4699W        W47793  14.656  23.277   1.957 -0.1424  0.0609 -0.1342
 4700W        W47794  17.118  22.160   3.078  0.0222  0.1272 -0.1332
 4701W        W47795  15.604  21.794  31.381 -0.0368 -0.2415 -0.0827
 4702W        W47796  15.609  23.167   2.875 -0.1761  0.1757 -0.2118
 4703W        W47797  15.867  20.153   1.228 -0.0050 -0.2315  0.0429
 4704W        W47798  17.333  21.520  31.166  0.0178 -0.0659 -0.1778
 4705W        W47799  15.667  22.840   3.558  0.3504 -0.3451  0.0107
 4706W        W47800  16.850  23.314   0.167  0.1879 -0.0496  0.1642
 4707W        W47801  16.749  20.485  30.633  0.1046 -0.1606 -0.0774
 4708W        W47802  16.344  21.487  30.733  0.1508 -0.0035 -0.0210
 4709W        W47803  14.120  24.787   3.215 -0.0787 -0.0657  0.0439
 4710W        W47804  16.858  23.271   0.854 -0.1348 -0.1403  0.0222
 4711W        W47805  16.973  22.841   1.106  0.1423 -0.1669  0.1351
 4712W        W47806  17.253  21.677  29.908 -0.1624 -0.0746 -0.0156
 4713W        W47807  18.156  23.577  31.823 -0.1837 -0.2224 -0.2240
 4714W        W47808  15.065  24.054   1.727 -0.1950  0.0706 -0.2067
 4715W        W47809  16.193  22.843   2.711 -0.0728  0.1499  0.1740
 4716W        W47810  17.780  24.341   0.645 -0.1430 -0.2475  0.0384
 4717W        W47811  15.436  21.914   1.061 -0.0654 -0.1148  0.1376
 4718W        W47812  16.065  21.900  30.555 -0.0711  0.1648  0.1209
 4719W        W47813  15.964  21.597   0.166 -0.0958  0.0540  0.2466
 4720W        W47814  15.676  23.554  31.332  0.0584  0.0736 -0.0566
 4721W        W47815  16.735  22.412   1.073  0.0350 -0.1602 -0.2204
 4722W        W47816  15.917  22.145   1.257 -0.1365  0.0357 -0.1339
 4723W        W47817  15.984  22.312   1.809  0.0364 -0.2487  0.0223
 4724W        W47818  17.731  22.179   1.834  0.1677  0.0093  0.0225
 4725W        W47819  16.477  22.374   0.368 -0.0490  0.0311 -0.3361
 4726W        W47820  14.965  23.785   1.119  0.1694 -0.1359  0.2529
 4727W        W47821  14.997  22.109  29.917 -0.0096 -0.1442 -0.1192
 4728W        W47822  16.992  22.699   2.085  0.1799 -0.0382 -0.1889
 4729W        W47823  14.887  23.063   0.641  0.0129  0.1205  0.0980
 4730W        W47824  15.046  25.044   1.020 -0.0660 -0.0816 -0.0082
 4731W        W47825  17.943  23.761   2.326 -0.2002 -0.0705 -0.0402
 4732W        W47826  16.688  22.332  31.853  0.0652  0.0168 -0.0444
 4733W        W47827  17.210  21.516   3.901  0.0535  0.1830  0.0014
 4734W        W47828  15.808  21.331  31.764 -0.0279  0.0199 -0.0469
 4735W        W47829  16.821  24.492   0.427 -0.2996 -0.0387  0.0461
 4736W        W47830  17.517  23.338  30.828  0.1010  0.2102 -0.0268
 4737W        W47831  16.394  21.882   0.478  0.0731  0.0775  0.0322
 4738W        W47832  15.904  23.888   1.113  0.0316 -0.1394  0.1412
 4739W        W47833  16.087  24.248  31.931 -0.1769  0.1453 -0.0316
 4740W        W47834  16.777  24.261   3.359  0.0199 -0.0332  0.0395
 4741W        W47835  15.349  24.946   0.614  0.0274 -0.3414  0.1218
 4742W        W47836  17.586  21.845   2.222  0.1289 -0.0139 -0.2439
 4743W        W47837  15.324  25.612   0.304 -0.0344 -0.2011 -0.1939
 4744W        W47838  15.739  21.029  30.890  0.3445  0.1734 -0.1929
 4745W        W47839  14.493  22.436  30.776 -0.1739  0.2009  0.2714
 4746W        W47840  18.456  22.379   1.267  0.1293 -0.1664 -0.1111
 4747W        W47841  16.189  23.442   0.421 -0.0745  0.0855 -0.1895
 4748W        W47842  15.431  22.806   0.768 -0.0036 -0.2035 -0.0549
 4749W        W47843  15.103  22.229   0.014  0.0771 -0.1176 -0.0750
 4750W        W47844  15.017  24.258   0.843  0.1714 -0.1064 -0.2546
 4751W        W47845  16.450  22.857   0.970  0.2911 -0.0528 -0.3227
 4752W        W47846  17.091  20.618   0.189  0.2104  0.0579 -0.1408
 4753W        W47847  15.730  22.878   1.891  0.4073 -0.0862  0.3265
 4754W        W47848  14.768  24.009   2.837 -0.0251  0.1660 -0.2190
 4755W        W47849  13.775  22.847   0.030  0.1155  0.1604  0.0287
 4756W        W47850  17.565  22.096   0.197 -0.3493  0.1082  0.2141
 4757W        W47851  15.133  21.459   1.311 -0.1868 -0.1192  0.0943
 4758W        W47852  16.008  23.917   0.312 -0.2601 -0.2928  0.0831
 4759W        W47853  16.698  23.710   0.982 -0.3360 -0.1503  0.1385
 4760W        W47854  16.487  22.825  30.876 -0.2161 -0.1552  0.2493
 4761W        W47855  16.256  24.579   0.409  0.3125  0.3020  0.1553
 4762W        W47856  15.398  20.561   3.485 -0.0023  0.1233 -0.1416
 4763W        W47857  15.013  23.188   1.474 -0.3650  0.1836 -0.0436
 4764W        W47858  14.297  21.495   1.366 -0.0934  0.0468 -0.2059
 4765W        W47859  15.972  22.019  31.103  0.1916  0.1774 -0.2457
 4766W        W47860  16.552  22.543   2.416  0.1065 -0.1835 -0.0556
 4767W        W47861  17.586  23.496   1.466 -0.2592 -0.1516 -0.3423
 4768W        W47862  15.493  23.064   1.497 -0.2683  0.0760  0.0825
 4769W        W47863  15.182  23.846   4.599  0.1474 -0.2790  0.3514
 4770W        W47864  16.662  20.466  31.951  0.0085  0.2225  0.1975
 4771W        W47865  18.073  25.946   0.807 -0.3443 -0.1170  0.0530
 4772W        W47866  16.230  23.137   2.172  0.1942  0.2195  0.3268
 4773W        W47867  16.195  23.199  31.018 -0.0814 -0.0941 -0.1340
 4774W        W47868  15.415  22.530   2.290  0.1998  0.0583  0.1556
 4775W        W47869  14.679  22.743  30.411  0.2304 -0.2366  0.1249
 4776W        W47870  15.233  21.439   0.847 -0.0723 -0.2081 -0.1916
 4777W        W47871  15.327  23.591   1.459 -0.1453 -0.1264  0.1422
 4778W        W47872  16.312  23.842  31.832 -0.0879  0.2508  0.1610
 4779W        W47873  14.659  25.395   0.783 -0.1219  0.0164 -0.2314
 4780W        W47874  17.705  20.578   0.381 -0.2653 -0.1125  0.0628
 4781W        W47875  17.214  25.809   0.740  0.0078  0.0417  0.4053
 4782W        W47876  14.361  21.385   0.461  0.0225  0.1008  0.2489
 4783W        W47877  17.584  22.128   0.771 -0.1558  0.1844 -0.1758
 4784W        W47878  16.721  22.313  30.819  0.0297 -0.0763  0.2968
 4785W        W47879  18.471  22.306   2.683  0.2615 -0.1039 -0.0851
 4786W        W47880  16.073  21.780   1.608  0.0595  0.0955 -0.0903
 4787W        W47881  18.472  24.048   2.267 -0.0248 -0.1330  0.0853
 4788W        W47882  14.498  21.059   1.764  0.2410  0.0890  0.1177
 4789W        W47883  17.314  24.485   3.277 -0.2267 -0.1679  0.0300
 4790W        W47884  14.028  22.816   1.484  0.2439 -0.1970 -0.1989
 4791W        W47885  16.305  22.028   0.002  0.1494 -0.1934 -0.2028
 4792W        W47886  15.624  22.074  29.816 -0.1007 -0.1752 -0.3838
 4793W        W47887  14.414  23.765   1.908 -0.1229 -0.1662  0.0877
 4794W        W47888  17.508  25.439   1.341 -0.3652  0.1393  0.0094
 4795W        W47889  15.432  26.231   0.546  0.1682 -0.0079  0.1242
 4796W        W47890  18.762  21.724   2.453  0.3003  0.0123 -0.0666
 4797W        W47891  15.420  22.803   3.127  0.0913  0.1789  0.1082
 4798W        W47892  16.056  23.071   1.522  0.1176  0.0340  0.0009
 4799W        W47893  16.555  23.373  31.683 -0.1268  0.0114  0.4599
 4800W        W47894  14.146  23.929   1.593  0.1424  0.0696 -0.2414
 4801W        W47895  17.069  21.746   2.144  0.0522  0.0183 -0.1847
 4802W        W47896  15.662  22.371   0.908  0.0848  0.0015  0.1642
 4803W        W47897  16.272  22.405   0.838 -0.0966 -0.2511 -0.0077
 4804W        W47898  18.165  21.581  31.943 -0.6498 -0.3698 -0.2370
 4805W        W47899  15.957  22.567   2.255  0.4212  0.0769  0.0025
 4806W        W47900  16.918  23.580   2.186 -0.2047  0.2777  0.3317
 4807W        W47901  13.617  22.067   2.625  0.0473 -0.1634 -0.0860
 4808W        W47902  16.595  25.278   3.129  0.2839 -0.0341 -0.2547
 4809W        W47903  19.112  22.059  31.656 -0.1590  0.1018  0.0701
 4810W        W47904  17.360  21.603   0.972  0.0488  0.4479 -0.3577
 4811W        W47905  18.007  21.956   0.466  0.4087  0.1806  0.1341
 4812W        W47906  16.485  22.817   0.028  0.0423  0.1758 -0.2154
 4813W        W47907  15.195  20.908   1.724  0.2598  0.3079 -0.1899
 4814W        W47908  18.869  22.993   3.180 -0.0822  0.3232 -0.3321
 4815W        W47909  15.139  21.284  30.111  0.0137 -0.1033 -0.0276
 4816W        W47910  17.021  20.992   2.147  0.0745 -0.0192 -0.1455
 4817W        W47911  17.029  25.279   0.074  0.1693  0.1290 -0.1053
 4818W        W47912  15.206  22.329   0.892  0.2144 -0.0537  0.1282
 4819W        W47913  16.241  22.570   1.330  0.3298  0.1626 -0.0372
 4820W        W47914  13.451  22.504   0.078 -0.0375  0.0699  0.1406
 4821W        W47915  17.095  25.002   2.214 -0.0948  0.0910 -0.0432
 4822W        W47916  14.730  21.406  31.462  0.0653  0.0639  0.1493
 4823W        W47917  15.335  23.692   0.836  0.1066 -0.2212  0.0194
 4824W        W47918  16.357  23.711   1.331  0.0948 -0.0248  0.1192
 4825W        W47919  17.804  23.198   2.547  0.1451  0.1913 -0.2063
 4826W        W47920  16.257  21.070  31.076 -0.0761 -0.1357 -0.3162
 4827W        W47921  17.534  22.537   3.241  0.1490 -0.0733  0.0350
 4828W        W47922  14.295  23.968  31.436  0.2838  0.1547  0.0282
 4829W        W47923  16.492  21.521   0.942 -0.4268  0.2183  0.0759
 4830W        W47924  15.433  25.365   1.428  0.0862 -0.0482  0.1474
 4831W        W47925  16.411  23.346   2.731  0.0828  0.2223 -0.0116
 4832W        W47926  16.432  25.467   0.433  0.2263 -0.1064 -0.1367
 4833W        W47927  16.643  20.287   1.960 -0.4364  0.0320 -0.0129
 4834W        W47928  15.654  23.332   1.094 -0.2154 -0.0827  0.0645
 4835W        W47929  15.561  21.789   2.069 -0.2234 -0.0102 -0.3907
 4836W        W47930  17.045  22.495   2.560  0.1428 -0.0086 -0.0634
 4837W        W47931  15.955  24.493   2.928 -0.0636  0.1850 -0.1325
 4838W        W47932  14.385  22.891   1.095 -0.0225 -0.0210 -0.4533
 4839W        W47933  16.367  24.658   2.060  0.1275 -0.1376 -0.2281
 4840W        W47934  18.841  23.791  31.495 -0.0906 -0.1916 -0.0966
 4841W        W47935  14.851  24.431   2.001 -0.0929 -0.0602 -0.0739
 4842W        W47936  13.552  22.620   2.164 -0.4094  0.0050  0.2273
 4843W        W47937  16.957  23.245   3.693 -0.2876 -0.1150  0.3828
 4844W        W47938  16.803  22.680   0.643  0.1583  0.0691 -0.2053
 4845W        W47939  15.067  21.635  30.666  0.0736 -0.0511  0.1113
 4846W        W47940  16.022  23.982  31.316 -0.2184  0.2303 -0.1167
 4847W        W47941  16.808  23.624   3.971 -0.2879 -0.2499  0.3090
 4848W        W47942  15.198  21.540   2.341  0.2388 -0.2316  0.1220
 4849W        W47943  16.142  25.140   0.134 -0.0564 -0.0599 -0.0792
 4850W        W47944  18.521  24.649   2.325  0.0503 -0.0510  0.1782
 4851W        W47945  17.375  23.249   0.970 -0.2383  0.0737  0.0768
 4852W        W47946  15.490  23.517   2.431 -0.2011 -0.0892  0.1302
 4853W        W47947  15.953  22.325   0.441  0.0334 -0.2975  0.3239
 4854W        W47948  15.617  25.317   1.836  0.0209  0.3193 -0.5188
 4855W        W47949  15.549  24.132  31.423  0.1795  0.0595  0.3861
 4856W        W47950  17.708  24.714   0.937 -0.1448 -0.1873 -0.0320
 4857W        W47951  14.979  23.934   0.202  0.2839  0.0486  0.0331
 4858W        W47952  16.282  24.059   1.717  0.0727 -0.3853  0.1473
 4859W        W47953  18.036  19.605  31.752  0.1435  0.2381  0.1211
 4860W        W47954  16.497  22.458  31.245  0.2083 -0.2458  0.0032
 4861W        W47955  17.163  22.215  31.838 -0.0896  0.0891 -0.0858
 4862W        W47956  16.756  23.134   2.367  0.0931  0.5194 -0.1681
 4863W        W47957  15.825  21.959   2.947  0.1421 -0.1313 -0.2133
 4864W        W47958  16.290  21.417  31.727 -0.0633  0.0016  0.0750
 4865W        W47959  15.269  22.704   1.265  0.1171 -0.2347 -0.1934
 4866W        W47960  18.857  23.131   2.379 -0.1434  0.0067  0.0555
 4867W        W47961  14.499  24.784   2.128  0.0294 -0.3290  0.0834
 4868W        W47962  17.667  23.719   0.891 -0.0663 -0.1467  0.3909
 4869W        W47963  15.829  22.853   0.124  0.1181  0.1712  0.0809
 4870W        W47964  17.478  23.664   2.550  0.0691  0.0527  0.0455
 4871W        W47965  17.233  21.874   2.653 -0.4582 -0.2547  0.3307
 4872W        W47966  16.695  23.604   0.507  0.0981 -0.0810 -0.1059
 4873W        W47967  16.737  22.783   1.542  0.3922 -0.1463 -0.3945
 4874W        W47968  14.997  25.237   0.339 -0.2247 -0.1303 -0.1635
 4875W        W47969  16.697  25.560   0.916  0.0774  0.0388 -0.0814
 4876W        W47970  17.106  23.580   1.773  0.1746  0.2314  0.3089
 4877W        W47971  13.954  20.913  31.766 -0.3265  0.0009 -0.3907
 4878W        W47972  18.213  22.853   0.464 -0.0530  0.2859  0.1008
 4879W        W47973  14.848  22.533   2.374 -0.0156  0.2058 -0.1116
 4880W        W47974  17.311  22.240   2.206  0.1583 -0.0026  0.1194
 4881W        W47975  14.786  22.682   1.455 -0.2641 -0.0446  0.1102
 4882W        W47976  16.990  22.339   0.301 -0.0582 -0.0274 -0.1495
 4883W        W47977  15.476  22.271   1.891  0.0036  0.0969 -0.3290
 4884W        W47978  14.307  21.965   1.178 -0.1842 -0.5472  0.0246
 4885W        W47979  16.182  23.181  31.924  0.1118  0.0444  0.3242
 4886W        W47980  17.417  24.236   2.818  0.0576 -0.1057  0.0686
 4887W        W47981  16.110  22.514  31.703 -0.5022  0.3749 -0.1457
 4888W        W47982  17.281  24.539   1.903  0.1582 -0.2882 -0.1338
 4889W        W47983  14.905  21.255   2.039  0.0148  0.0196  0.0953
 4890W        W47984  17.116  21.452   0.197 -0.1812 -0.0305 -0.0349
 4891W        W47985  14.315  22.336  31.214 -0.0625  0.1004 -0.1393
 4892W        W47986  16.339  22.719   1.892  0.2834 -0.1302  0.0231
 4893W        W47987  16.375  23.646   2.180  0.4719 -0.2529  0.0977
 4894W        W47988  14.396  21.871  31.299 -0.0444 -0.0578  0.2336
 4895W        W47989  17.245  23.541   0.500  0.1044  0.0800  0.3773
 4896W        W47990  18.352  23.169   2.442  0.0335  0.1057  0.0615
 4897W        W47991  15.228  23.427   0.386  0.1746 -0.1471  0.0251
 4898W        W47992  16.826  21.905   0.189  0.1017 -0.1311 -0.3931
 4899W        W47993  18.046  24.074   1.983  0.0603  0.0093 -0.3553
 4900W        W47994  15.644  21.457   1.209 -0.5068 -0.1153 -0.1599
 4901W        W47995  15.881  22.859   0.995 -0.2667 -0.1307 -0.0639
 4902W        W47996  18.325  23.838   2.714  0.0349  0.2093  0.1315
 4903W        W47997  17.048  20.182  31.834  0.0311 -0.0972 -0.0498
 4904W        W47998  14.849  22.714   0.961  0.1199 -0.0823 -0.0699
 4905W        W47999  15.243  24.520  31.636 -0.0918  0.1339  0.2768
 4906W        W48000  19.247  22.914   2.132 -0.0823 -0.2340  0.0981
 4907W        W48001  17.741  21.824   1.301  0.4765  0.0755 -0.1055
 4908W        W48002  15.175  23.186   1.022 -0.1063 -0.2704  0.2278
 4909W        W48003  18.710  22.799   2.727 -0.0053 -0.1055 -0.2249
 4910W        W48004  14.553  24.196   1.674 -0.3024  0.0745  0.0082
 4911W        W48005  17.077  24.040   1.938  0.0564 -0.0530  0.1345
 4912W        W48006  15.453  24.144  31.901 -0.0663 -0.1689  0.2044
 4913W        W48007  15.701  22.615   2.743  0.0271 -0.2419  0.0538
 4914W        W48008  15.787  24.369   1.268  0.0346 -0.0055  0.1219
 4915W        W48009  15.799  25.621   1.230 -0.1186 -0.0521 -0.1426
 4916W        W48010  19.416  25.880   3.353  0.1260 -0.1221 -0.0769
 4917W        W48011  14.895  22.600  31.660  0.1484 -0.0766 -0.1389
 4918W        W48012  18.031  25.174   1.662  0.1391  0.3484 -0.2201
 4919W        W48013  14.820  22.179   1.227  0.2947 -0.1067 -0.2306
 4920W        W48014  17.270  21.759  31.827 -0.2616 -0.2493  0.1437
 4921W        W48015  17.312  22.618  31.435  0.0132 -0.0554 -0.3493
 4922W        W48016  15.982  23.559   2.536  0.0567 -0.0770 -0.0021
 4923W        W48017  15.217  22.964  31.275 -0.2525 -0.1501  0.2218
 4924W        W48018  15.612  23.243  31.729  0.3432 -0.1579 -0.1854
 4925W        W48019  16.178  22.787   0.513  0.1996  0.4912  0.1320
 4926W        W48020  16.856  20.630   3.798  0.1212 -0.1066 -0.2543
 4927W        W48021  15.161  22.101   2.298 -0.1682  0.1690  0.0171
 4928W        W48022  15.421  23.297   1.889  0.0802  0.0077  0.2109
 4929W        W48023  15.273  22.913   0.243  0.0228  0.1601 -0.0682
 4930W        W48024  16.730  23.207  31.222  0.0357 -0.0845 -0.2928
 4931W        W48025  16.070  21.715   1.079  0.0782  0.0634  0.0291
 4932W        W48026  15.327  22.237  31.041 -0.1404  0.1362 -0.2873
 4933W        W48027  16.949  25.315   1.406 -0.2390 -0.2528 -0.1350
 4934W        W48028  16.302  24.258   1.192 -0.0622 -0.1038 -0.1497
 4935W        W48029  14.696  21.629   1.108 -0.0029  0.2211 -0.1408
 4936W        W48030  17.650  23.482   2.955  0.1291 -0.1265  0.2879
 4937W        W48031  14.238  23.738   0.741  0.0809  0.0776 -0.1044
 4938W        W48032  16.220  21.280   2.596  0.1359 -0.1700 -0.1013
 4939W        W48033  16.819  21.513   2.558  0.0586  0.3258 -0.1159
 4940W        W48034  14.754  21.229  30.500  0.1392 -0.1273 -0.1035
 4941W        W48035  15.753  22.614   1.462 -0.4958 -0.0867  0.2118
 4942W        W48036  16.821  25.177   0.603  0.3414  0.0097  0.3272
 4943W        W48037  16.782  23.809   0.001 -0.0683 -0.1163  0.2288
 4944W        W48038  15.209  22.751   1.878  0.1309 -0.0913  0.2460
 4945W        W48039  15.616  24.507   2.535 -0.2869  0.1991 -0.0646
 4946W        W48040  15.601  20.536   1.606  0.2309 -0.1278 -0.1749
 4947W        W48041  18.095  24.234   1.092  0.2092  0.3344 -0.1475
 4948W        W48042  15.047  22.877   2.776  0.1164 -0.2029 -0.0253
 4949W        W48043  17.391  23.280   0.120 -0.0827 -0.1693 -0.1926
 4950W        W48044  16.984  22.590   3.153 -0.1409  0.0254  0.1469
 4951W        W48045  15.749  22.784  31.557 -0.1419 -0.3118  0.1794
 4952W        W48046  16.271  20.423   3.943 -0.1665  0.0666  0.0304
 4953W        W48047  14.986  23.489   2.659  0.2220 -0.2250 -0.0932
 4954W        W48048  16.577  24.307   2.750  0.2407  0.2301 -0.1087
 4955W        W48049  14.813  22.246  31.241 -0.0712 -0.1486  0.1236
 4956W        W48050  16.497  21.881  31.536 -0.0770 -0.1309  0.2133
 4957W        W48051  16.677  24.157   0.788  0.0534  0.1165  0.1827
 4958W        W48052  14.488  22.760   0.579 -0.0140 -0.2000 -0.0342
 4959W        W48053  16.471  21.999   1.105  0.1314  0.2101 -0.0360
 4960W        W48054  16.747  23.242   1.875  0.1368 -0.1076 -0.0359
 4961W        W48055  17.739  23.317   0.597 -0.1653 -0.2215 -0.1455
 4962W        W48056  17.231  23.142   1.498  0.3056 -0.0827 -0.0915
 4963W        W48057  15.737  22.297  31.448 -0.3067  0.0476 -0.1192
 4964W        W48058  18.502  23.138  31.942  0.0727 -0.0446  0.0443
 4965W        W48059  16.843  23.702   3.462 -0.2423  0.0571 -0.1193
 4966W        W48060  17.222  24.117   3.598 -0.1072 -0.0764 -0.2727
 4967W        W48061  16.829  25.473   2.012 -0.1424  0.1083 -0.1522
 4968W        W48062  17.272  23.180   2.518 -0.0740  0.1890  0.3326
 4969W        W48063  16.000  22.412   3.676  0.3355  0.0866  0.0428
 4970W        W48064  15.221  24.361  31.152 -0.1303  0.3182  0.2468
 4971W        W48065  16.580  23.093   0.475 -0.1549 -0.0971  0.1066
 4972W        W48066  17.177  22.022   1.174 -0.0348 -0.0721  0.0484
 4973W        W48067  15.238  22.234   1.431 -0.2752 -0.2421 -0.0235
 4974W        W48068  17.040  19.721  31.912  0.2030  0.0837  0.1494
 4975W        W48069  15.017  24.928   2.116  0.0658 -0.2943 -0.1267
 4976W        W48070  17.224  22.961   0.579 -0.0714 -0.0764  0.2082
 4977W        W48071  15.281  23.552   5.352 -0.0721 -0.1233  0.1227
 4978W        W48072  14.926  22.252   3.665 -0.0434 -0.0819 -0.1351
 4979W        W48073  18.590  22.233   3.737 -0.0575  0.0175 -0.0533
 4980W        W48074  18.455  23.775   3.308  0.1010 -0.2423 -0.1675
 4981W        W48075  14.031  22.598   4.789  0.3297  0.0179  0.1226
 4982W        W48076  16.839  24.697   4.227  0.2444  0.2265  0.1423
 4983W        W48077  16.911  21.921   6.011  0.2000  0.0178  0.1707
 4984W        W48078  16.925  22.558   4.685 -0.2170  0.1988 -0.0635
 4985W        W48079  18.533  25.645   6.015  0.0423  0.0371  0.1894
 4986W        W48080  16.340  23.972   2.523  0.0012  0.2201 -0.1133
 4987W        W48081  16.126  21.889   5.491 -0.0469  0.2335 -0.1002
 4988W        W48082  16.049  25.176   5.551  0.3918  0.2381 -0.2690
 4989W        W48083  16.638  20.883   5.231  0.1631 -0.1381 -0.3004
 4990W        W48084  14.822  21.212   4.303  0.0571 -0.2762 -0.1647
 4991W        W48085  17.819  23.230   4.455 -0.1566 -0.2965 -0.0578
 4992W        W48086  14.687  24.056   2.321  0.0014  0.1696  0.2842
 4993W        W48087  15.766  22.978   4.502  0.0574 -0.0304  0.0964
 4994W        W48088  15.950  21.780   3.703  0.1755 -0.1188  0.0578
 4995W        W48089  16.556  25.071   3.950  0.0444  0.0236 -0.3500
 4996W        W48090  17.015  21.427   5.821  0.1022  0.0296  0.2521
 4997W        W48091  17.517  22.612   7.470  0.0764  0.0604  0.2092
 4998W        W48092  15.994  23.430   4.769 -0.0298 -0.1619  0.2595
 4999W        W48093  14.648  22.155   3.180  0.0428 -0.1841  0.2151
 5000W        W48094  14.511  24.203   5.096  0.1674  0.1438 -0.0590
 5001W        W48095  17.213  22.974   6.447 -0.2711  0.0745  0.1793
 5002W        W48096  16.917  22.384   3.693 -0.2856 -0.1357 -0.0241
 5003W        W48097  18.704  23.198   4.427 -0.1252  0.1669  0.0669
 5004W        W48098  16.971  25.353   5.572 -0.1494  0.0848 -0.1602
 5005W        W48099  16.902  24.388   5.208  0.1762  0.0195  0.2077
 5006W        W48100  17.586  23.826   6.751  0.0194  0.0168 -0.2314
 5007W        W48101  14.556  22.509   2.823 -0.1422 -0.1564  0.0022
 5008W        W48102  12.640  24.276   4.969 -0.3172  0.1423  0.2139
 5009W        W48103  13.186  23.916   5.504  0.0849  0.3415 -0.3809
 5010W        W48104  17.677  24.453   4.789  0.0728  0.0520 -0.1767
 5011W        W48105  17.128  24.251   5.652  0.0580 -0.1305  0.1769
 5012W        W48106  16.269  24.334   7.727  0.0087  0.0233  0.0240
 5013W        W48107  15.261  23.993   2.338 -0.2927 -0.0537  0.1890
 5014W        W48108  16.792  24.478   8.083 -0.2562  0.2364 -0.0885
 5015W        W48109  15.144  23.895   7.227  0.0765 -0.1267  0.3167
 5016W        W48110  16.654  23.104   5.179  0.1633 -0.1898  0.2189
 5017W        W48111  15.332  23.071   4.754 -0.1291  0.0876  0.2174
 5018W        W48112  16.093  23.797   2.943  0.1858  0.0789 -0.1786
 5019W        W48113  16.686  23.928   5.449  0.1578  0.0648  0.0267
 5020W        W48114  16.988  22.648   7.338 -0.0569  0.0080  0.0865
 5021W        W48115  15.231  23.656   3.629 -0.1814 -0.2223 -0.4078
 5022W        W48116  18.397  20.993   7.681 -0.2531 -0.0317 -0.0077
 5023W        W48117  15.543  24.123   3.570  0.0577  0.0128  0.0329
 5024W        W48118  17.359  22.842   2.838 -0.0711 -0.0960 -0.0579
 5025W        W48119  15.964  21.703   2.510 -0.1129  0.3612 -0.4824
 5026W        W48120  16.676  22.071   3.314 -0.0955 -0.0862 -0.0535
 5027W        W48121  16.338  21.287   4.916  0.1057 -0.0581  0.0789
 5028W        W48122  15.591  23.427   3.893 -0.1921  0.0207 -0.0951
 5029W        W48123  16.842  22.653   5.221 -0.2009 -0.0814  0.2224
 5030W        W48124  16.704  23.421   5.696  0.0790 -0.0058 -0.1026
 5031W        W48125  15.689  23.302   3.390 -0.2450 -0.1094  0.2637
 5032W        W48126  18.388  22.878   5.239  0.0046  0.1754  0.1191
 5033W        W48127  15.802  24.815   4.839 -0.0925  0.4824  0.1126
 5034W        W48128  14.119  22.800   2.891  0.0896  0.0512  0.1134
 5035W        W48129  17.969  26.073   3.553  0.2424  0.1250 -0.2080
 5036W        W48130  18.433  23.752   5.021 -0.2939 -0.1142 -0.2990
 5037W        W48131  16.441  24.775   2.966  0.2919  0.0722  0.3100
 5038W        W48132  15.703  22.184   4.029 -0.1608  0.1883 -0.2305
 5039W        W48133  14.696  24.070   6.080 -0.2872  0.2496 -0.1277
 5040W        W48134  15.944  22.070   6.317 -0.0391 -0.2031  0.1622
 5041W        W48135  15.340  21.890   2.801 -0.0479  0.0955  0.2252
 5042W        W48136  17.353  24.287   6.180 -0.2761 -0.0965  0.0188
 5043W        W48137  14.838  24.677   7.123  0.0273 -0.0816  0.3082
 5044W        W48138  17.961  21.330   4.941 -0.1462 -0.3105  0.1600
 5045W        W48139  15.795  22.648   6.214  0.4534  0.1204  0.3070
 5046W        W48140  16.992  24.685   6.130  0.3406 -0.0959 -0.0141
 5047W        W48141  17.495  23.292   3.510 -0.0370  0.2374  0.3121
 5048W        W48142  17.850  22.292   4.719  0.0158  0.3222 -0.2257
 5049W        W48143  17.416  22.437   4.439  0.1869 -0.1088  0.1691
 5050W        W48144  15.071  22.325   2.794 -0.0742  0.1432  0.0869
 5051W        W48145  15.504  24.105   4.819 -0.1182 -0.3605 -0.1599
 5052W        W48146  16.410  23.775   6.006  0.0105  0.0356  0.1069
 5053W        W48147  17.228  22.842   3.554 -0.0160  0.0454  0.3540
 5054W        W48148  15.401  23.385   4.349 -0.3301  0.1815 -0.1186
 5055W        W48149  15.103  20.896   6.462 -0.0120  0.1460 -0.1140
 5056W        W48150  16.426  24.845   7.247 -0.3039  0.0627 -0.0460
 5057W        W48151  15.875  24.989   2.914  0.1976  0.2612  0.2049
 5058W        W48152  14.558  24.198   5.608 -0.2117  0.0702 -0.0063
 5059W        W48153  16.181  24.287   4.177 -0.1660 -0.2431 -0.0014
 5060W        W48154  14.984  22.508   6.062 -0.1514 -0.0176 -0.3146
 5061W        W48155  17.185  23.725   5.663  0.0839  0.2265 -0.1274
 5062W        W48156  17.970  22.261   2.967 -0.1375  0.1911 -0.0735
 5063W        W48157  15.999  23.081   6.175  0.0542  0.0618 -0.0006
 5064W        W48158  18.342  21.389   5.270 -0.0468 -0.0850  0.2041
 5065W        W48159  16.331  23.030   4.828 -0.2321  0.1001 -0.1267
 5066W        W48160  17.314  23.599   3.871  0.0483  0.3699  0.0482
 5067W        W48161  16.404  22.344   4.185  0.1119 -0.0623  0.3048
 5068W        W48162  17.364  24.620   2.421  0.0412 -0.1784 -0.2521
 5069W        W48163  14.382  21.657   5.295  0.0635  0.1185 -0.0532
 5070W        W48164  14.122  22.248   3.112  0.1558 -0.0471 -0.0625
 5071W        W48165  16.181  22.240   6.937 -0.2752  0.0864  0.3084
 5072W        W48166  14.744  23.051   3.125  0.1180 -0.1130  0.2238
 5073W        W48167  17.691  23.027   6.424  0.1882  0.1779 -0.2631
 5074W        W48168  14.021  20.914   3.123 -0.2378  0.1066  0.0286
 5075W        W48169  19.491  22.895   4.152 -0.0757  0.0675  0.1640
 5076W        W48170  15.021  22.885   4.338 -0.1220  0.0975 -0.0473
 5077W        W48171  14.289  23.883   4.269 -0.3481  0.0304 -0.1214
 5078W        W48172  18.034  21.159   6.058 -0.0597  0.1733 -0.2988
 5079W        W48173  16.035  24.771   3.325 -0.3047  0.0356 -0.0818
 5080W        W48174  18.761  24.230   6.285  0.2049  0.0428 -0.1059
 5081W        W48175  17.730  24.148   3.872 -0.0272 -0.0119 -0.0452
 5082W        W48176  15.838  22.871   5.661 -0.0282 -0.0336  0.0386
 5083W        W48177  14.291  21.528   2.452 -0.1309  0.2316  0.0201
 5084W        W48178  15.832  24.741   4.347 -0.1280 -0.1417 -0.1548
 5085W        W48179  17.184  24.025   5.187  0.1298 -0.0795 -0.2206
 5086W        W48180  16.367  22.720   3.876 -0.0454 -0.3807  0.1584
 5087W        W48181  16.532  24.461   5.541 -0.0907  0.1527 -0.2894
 5088W        W48182  16.668  22.300   2.868  0.5089  0.0740  0.1093
 5089W        W48183  15.933  23.838   5.812 -0.1315 -0.2680 -0.1386
 5090W        W48184  17.302  22.163   7.704 -0.1342 -0.0266 -0.1234
 5091W        W48185  17.832  23.456   6.210  0.1740 -0.0018  0.3293
 5092W        W48186  17.032  21.763   4.469 -0.1095  0.1317  0.1038
 5093W        W48187  15.282  20.907   2.221  0.2707  0.3423 -0.1684
 5094W        W48188  17.620  25.443   4.562 -0.1083  0.0914 -0.1721
 5095W        W48189  14.358  24.363   2.937 -0.1194 -0.0640  0.2018
 5096W        W48190  15.334  21.971   3.773 -0.4733 -0.0995 -0.3190
 5097W        W48191  17.391  23.423   4.743 -0.0205  0.3341  0.0015
 5098W        W48192  18.246  22.295   5.091 -0.4529 -0.4825  0.0855
 5099W        W48193  15.023  23.522   5.793 -0.3892 -0.0142  0.2385
 5100W        W48194  17.896  23.394   7.128 -0.0633 -0.0652  0.2923
 5101W        W48195  14.688  23.603   3.111 -0.1416 -0.0398  0.3027
 5102W        W48196  16.085  24.355   7.257 -0.1468  0.0910 -0.0205
 5103W        W48197  17.890  21.152   4.030  0.0662 -0.1141 -0.0338
 5104W        W48198  16.377  21.675   3.443 -0.0822 -0.0062 -0.1035
 5105W        W48199  17.369  23.510   7.055 -0.2163  0.0365 -0.1553
 5106W        W48200  17.714  23.122   5.036  0.1704  0.2246 -0.1025
 5107W        W48201  17.626  22.734   2.354  0.0263 -0.1021  0.1477
 5108W        W48202  17.931  21.275   3.477 -0.2479  0.0744  0.1440
 5109W        W48203  14.760  24.187   7.085  0.2276 -0.1706  0.1638
 5110W        W48204  15.606  23.302   5.716  0.0318 -0.0987 -0.1101
 5111W        W48205  15.561  23.578   4.834 -0.1430  0.1462  0.0400
 5112W        W48206  16.839  21.703   2.986  0.1576  0.0870  0.0192
 5113W        W48207  18.476  25.408   5.003  0.0593  0.1553  0.1224
 5114W        W48208  15.398  24.333   5.622 -0.1765 -0.0887 -0.1149
 5115W        W48209  16.597  23.816   6.513  0.0680  0.0212 -0.0834
 5116W        W48210  16.311  24.296   5.087  0.3098 -0.1404  0.1367
 5117W        W48211  15.971  21.534   4.607  0.0551 -0.2294 -0.1686
 5118W        W48212  14.395  22.809   1.890 -0.0143  0.0163 -0.0291
 5119W        W48213  17.386  22.403   3.946 -0.0518 -0.0244  0.1619
 5120W        W48214  15.095  24.952   3.207  0.2385  0.1313 -0.0343
 5121W        W48215  17.247  22.257   5.311 -0.1784 -0.0173  0.1576
 5122W        W48216  16.972  22.987   5.998 -0.0763 -0.3083  0.2508
 5123W        W48217  16.883  20.994   5.696  0.0003 -0.1004 -0.0024
 5124W        W48218  18.502  23.440   5.460  0.1038  0.3775 -0.0833
 5125W        W48219  17.406  23.047   3.992 -0.1382 -0.1549  0.0737
 5126W        W48220  15.950  22.324   5.703 -0.0524 -0.0347 -0.0558
 5127W        W48221  15.274  23.018   2.318  0.0813 -0.0521  0.0485
 5128W        W48222  16.463  22.260   5.283 -0.1503  0.3053 -0.0479
 5129W        W48223  15.026  24.122   8.328 -0.0442  0.3007 -0.1100
 5130W        W48224  15.609  24.726   6.711 -0.0637 -0.1736  0.3242
 5131W        W48225  16.650  25.799   6.967  0.1483  0.1752 -0.0596
 5132W        W48226  16.283  23.523   4.062  0.0355  0.1085  0.0027
 5133W        W48227  16.213  22.725   5.889 -0.2308 -0.1293  0.0563
 5134W        W48228  17.541  21.540   4.541  0.2848 -0.2445  0.1845
 5135W        W48229  14.833  23.900   4.182  0.1661  0.1086 -0.2582
 5136W        W48230  15.976  22.532   4.483  0.0697  0.4818  0.1479
 5137W        W48231  16.545  21.686   5.767  0.0881  0.1105  0.0670
 5138W        W48232  15.826  24.365   5.091  0.3527  0.1400 -0.2810
 5139W        W48233  15.335  24.120   2.774 -0.0954  0.0006  0.2538
 5140W        W48234  16.209  24.791   5.326 -0.1213 -0.1478 -0.0706
 5141W        W48235  15.312  24.806   4.125 -0.1542  0.1703 -0.1554
 5142W        W48236  19.124  21.473   4.800  0.3747 -0.1942 -0.0428
 5143W        W48237  14.714  23.717   3.579  0.3786  0.1516  0.0013
 5144W        W48238  16.423  21.838   2.720  0.2722 -0.0069  0.1523
 5145W        W48239  14.338  21.891   4.042  0.1633  0.0938 -0.0508
 5146W        W48240  17.833  22.230   3.484 -0.3565 -0.0828  0.0563
 5147W        W48241  17.074  23.849   4.339  0.0721 -0.1896 -0.1584
 5148W        W48242  16.094  23.215   5.223  0.0851 -0.0065 -0.1730
 5149W        W48243  16.630  22.099   4.564  0.3144 -0.1408 -0.2012
 5150W        W48244  15.207  25.389   4.865 -0.2110  0.1908  0.1296
 5151W        W48245  17.791  22.111   6.203 -0.0644  0.0266 -0.0895
 5152W        W48246  17.345  21.499   2.941 -0.2393 -0.1702  0.2770
 5153W        W48247  17.253  24.929   6.596  0.1072  0.2530 -0.2585
 5154W        W48248  16.296  23.445   6.367  0.1290 -0.0853 -0.1985
 5155W        W48249  14.615  22.062   2.642 -0.3022 -0.0684 -0.3783
 5156W        W48250  17.180  23.028   5.060 -0.1122  0.0082 -0.0892
 5157W        W48251  15.197  22.430   4.090 -0.0425 -0.2418 -0.0512
 5158W        W48252  13.433  24.228   6.848  0.0997 -0.0390 -0.0382
 5159W        W48253  17.538  24.712   6.220  0.1673  0.2197  0.0662
 5160W        W48254  15.161  23.853   3.156  0.0273  0.2589 -0.1377
 5161W        W48255  15.195  23.059   3.504 -0.1698 -0.1831  0.0489
 5162W        W48256  15.502  23.039   6.142 -0.1760  0.0006  0.0348
 5163W        W48257  18.044  23.208   5.418 -0.0070 -0.0073 -0.2747
 5164W        W48258  16.312  22.417   6.353  0.0060  0.3642  0.0735
 5165W        W48259  15.553  21.723   3.399  0.0964 -0.1668 -0.0073
 5166W        W48260  16.421  22.490   4.839 -0.0368 -0.2156  0.1275
 5167W        W48261  16.778  24.092   5.932  0.0098  0.0610 -0.1891
 5168W        W48262  16.480  23.123   6.026 -0.0180 -0.1208  0.0848
 5169W        W48263  15.138  23.433   7.602 -0.3588  0.1431 -0.0528
 5170W        W48264  17.362  21.488   5.476  0.0075 -0.0109 -0.1946
 5171W        W48265  18.114  25.201   4.702  0.0579  0.1425  0.2758
 5172W        W48266  17.425  23.401   6.572  0.2300 -0.1352 -0.0126
 5173W        W48267  14.466  23.255   2.753  0.1286  0.1828 -0.1353
 5174W        W48268  14.675  22.218   5.553 -0.1007  0.2308 -0.2206
 5175W        W48269  16.031  23.718   3.488  0.2300 -0.1089 -0.1950
 5176W        W48270  17.741  22.203   5.246 -0.0670 -0.1745  0.0857
 5177W        W48271  15.331  24.505   4.560  0.0901  0.1880 -0.1074
 5178W        W48272  14.774  23.023   4.692 -0.0621 -0.1341  0.0967
 5179W        W48273  15.425  23.882   5.886  0.0576 -0.2132  0.1163
 5180W        W48274  17.103  21.675   3.434  0.4637  0.3141 -0.1308
 5181W        W48275  17.050  24.308   4.053 -0.5439 -0.2297  0.1790
 5182W        W48276  15.613  21.723   6.398  0.3546 -0.1490  0.2307
 5183W        W48277  17.674  21.751   4.994 -0.2133  0.1921 -0.0061
 5184W        W48278  15.898  23.443   2.028 -0.1008  0.0240  0.2745
 5185W        W48279  16.546  21.483   7.498 -0.0876  0.3010  0.0498
 5186W        W48280  14.158  21.175   5.541  0.0705 -0.1968 -0.0192
 5187W        W48281  18.190  23.140   4.898  0.0099 -0.1582 -0.0421
 5188W        W48282  14.630  22.001   6.037 -0.0256  0.0133  0.3454
 5189W        W48283  16.006  25.578   5.130  0.2550 -0.0346 -0.0953
 5190W        W48284  15.613  23.995   6.998  0.0790 -0.0443 -0.2350
 5191W        W48285  16.759  21.344   3.535 -0.2430 -0.2269  0.0566
 5192W        W48286  16.293  21.155   3.396 -0.1414  0.4104 -0.2634
 5193W        W48287  15.799  24.287   6.027 -0.0511  0.4430 -0.1353
 5194W        W48288  18.203  22.543   3.787  0.1249  0.3134 -0.0126
 5195W        W48289  15.328  22.954   4.003 -0.3693 -0.0191 -0.2393
 5196W        W48290  18.111  21.994   3.956 -0.2105  0.2386 -0.0439
 5197W        W48291  14.518  23.711   5.751  0.1622  0.1416  0.1495
 5198W        W48292  18.664  22.860   4.015  0.2132  0.0659 -0.1992
 5199W        W48293  16.977  22.210   4.225 -0.0292  0.0075 -0.0229
 5200W        W48294  15.026  24.323   3.224 -0.1167  0.1263  0.0029
 5201W        W48295  14.700  21.757   6.661  0.5422  0.1869 -0.0289
 5202W        W48296  16.665  23.994   4.866  0.1377 -0.2595 -0.2813
 5203W        W48297  17.453  21.982   4.242  0.0562  0.4744 -0.3863
 5204W        W48298  17.388  21.904   5.844  0.1131 -0.2719  0.0398
 5205W        W48299  17.935  24.655   5.175  0.1785 -0.1536 -0.1756
 5206W        W48300  14.980  22.747   6.485  0.0758 -0.2186  0.2007
 5207W        W48301  14.881  21.165   8.279  0.0697 -0.0358 -0.0213
 5208W        W48302  17.322  25.097   5.965  0.0397  0.0745  0.3761
 5209W        W48303  18.804  22.394   4.143  0.4085  0.4195  0.2569
 5210W        W48304  17.771  23.569   5.691  0.0202 -0.2330 -0.1154
 5211W        W48305  17.144  23.288   3.039  0.2293 -0.0502  0.0144
 5212W        W48306  16.683  23.185   3.185  0.0288  0.1938 -0.1260
 5213W        W48307  16.226  22.690   5.349 -0.1937 -0.1742  0.0515
 5214W        W48308  17.477  22.783   6.061  0.2962 -0.1741  0.0056
 5215W        W48309  15.568  20.933   3.091  0.0515 -0.0665  0.1574
 5216W        W48310  17.911  23.075   5.870  0.0759 -0.3868  0.1112
 5217W        W48311  15.559  24.604   3.218 -0.2467 -0.0350  0.2152
 5218W        W48312  17.378  23.986   4.734 -0.3065 -0.1453  0.1065
 5219W        W48313  16.171  22.141   3.282  0.1451  0.2128  0.0586
 5220W        W48314  14.991  23.474   4.954  0.2140  0.1796  0.1203
 5221W        W48315  14.732  24.710   5.800  0.2558  0.2496  0.1666
 5222W        W48316  15.194  21.354   3.036  0.0832 -0.0896 -0.1494
 5223W        W48317  14.970  23.482   3.993 -0.0134  0.0063  0.0742
 5224W        W48318  16.808  25.345   6.014  0.1693 -0.1083  0.4070
 5225W        W48319  17.567  22.356   5.769  0.3534  0.1156  0.1958
 5226W        W48320  16.835  20.635   4.794  0.2109  0.0202  0.0782
 5227W        W48321  17.587  23.011   6.982  0.3199 -0.1134  0.2994
 5228W        W48322  14.593  24.064   3.264 -0.1429 -0.0435 -0.0985
 5229W        W48323  16.861  22.034   5.508  0.2136 -0.1377 -0.2299
 5230W        W48324  15.939  23.913   4.962 -0.0472 -0.0085  0.1164
 5231W        W48325  14.170  24.165   6.081 -0.0236  0.2917  0.0958
 5232W        W48326  16.933  23.530   5.226 -0.0287  0.0573 -0.3490
 5233W        W48327  15.520  22.550   5.363 -0.1075  0.0397  0.0474
 5234W        W48328  18.642  23.264   4.970  0.1718  0.1301  0.1758
 5235W        W48329  16.183  23.391   5.698  0.0370 -0.0950 -0.3900
 5236W        W48330  18.288  21.465   5.754 -0.0173  0.2350  0.1670
 5237W        W48331  17.325  22.219   6.226  0.1371  0.2441  0.1415
 5238W        W48332  14.462  22.749   4.439 -0.0214  0.3453 -0.2726
 5239W        W48333  17.039  24.427   6.564 -0.0783  0.1490  0.0133
 5240W        W48334  16.082  23.103   3.711 -0.0181 -0.1810  0.0029
 5241W        W48335  16.011  24.280   5.562  0.5370  0.2100 -0.1072
 5242W        W48336  15.228  21.595   7.571  0.1123 -0.0877 -0.2723
 5243W        W48337  17.194  22.670   5.617 -0.0281 -0.0160 -0.2665
 5244W        W48338  17.359  22.930   4.534  0.1206 -0.2746  0.0206
 5245W        W48339  15.043  20.803   3.104  0.0892 -0.1150  0.2423
 5246W        W48340  16.575  23.532   4.447  0.0181  0.4121  0.2590
 5247W        W48341  14.443  23.381   8.262 -0.0629 -0.1510 -0.1656
 5248W        W48342  16.336  24.047   6.856  0.3283 -0.0515  0.3558
 5249W        W48343  14.694  24.941   3.598 -0.1693 -0.0567  0.1534
 5250W        W48344  17.002  24.009   2.962  0.0374  0.5349 -0.0033
 5251W        W48345  16.665  23.112   4.038  0.1575 -0.0221  0.0047
 5252W        W48346  17.151  24.922   5.017 -0.0010 -0.0893 -0.2600
 5253W        W48347  16.098  21.315   3.974 -0.5572  0.2685 -0.0257
 5254W        W48348  13.998  24.137   4.567  0.0432 -0.1274 -0.2565
 5255W        W48349  14.563  25.138   3.164  0.0469  0.2251  0.1632
 5256W        W48350  17.666  24.886   3.307 -0.2155  0.1090 -0.1445
 5257W        W48351  15.669  25.090   3.409 -0.0746 -0.6767 -0.0590
 5258W        W48352  17.490  24.603   5.697 -0.1232  0.2461  0.0013
 5259W        W48353  18.161  22.400   2.016 -0.1916 -0.0911  0.6197
 5260W        W48354  18.449  24.032   4.575  0.2403  0.2485 -0.1959
 5261W        W48355  19.467  23.005   3.628  0.1632  0.2383 -0.0718
 5262W        W48356  16.420  25.347   7.197 -0.0359  0.1344 -0.2295
 5263W        W48357  15.158  23.058   5.681 -0.2204  0.0432  0.3563
 5264W        W48358  16.853  21.909   3.786 -0.1799 -0.0044 -0.0068
 5265W        W48359  15.886  24.333   6.510  0.1610  0.0500  0.1637
 5266W        W48360  18.625  21.808   5.975  0.3652 -0.0070 -0.0245
 5267W        W48361  15.150  25.275   6.000  0.0975 -0.1221  0.1886
 5268W        W48362  18.254  24.753   4.694  0.0679 -0.1849  0.1595
 5269W        W48363  14.819  21.966   4.302  0.1923  0.2055 -0.1662
 5270W        W48364  16.813  23.090   4.658 -0.1804  0.1566  0.1211
 5271W        W48365  18.762  21.373   5.661 -0.0441  0.1741 -0.0282
 5272W        W48366  17.535  22.316   2.765 -0.0558 -0.0417  0.1961
 5273W        W48367  17.927  21.912   4.360  0.1598 -0.1999  0.0641
 5274W        W48368  14.888  24.471   4.798  0.1334  0.1754  0.0813
 5275W        W48369  15.515  23.963   5.320 -0.2122  0.2946 -0.2121
 5276W        W48370  16.841  25.452   4.985  0.2099  0.3526 -0.0264
 5277W        W48371  16.190  22.301   2.773  0.1958  0.0637 -0.0128
 5278W        W48372  16.429  23.580   6.913  0.0440 -0.2605 -0.0630
 5279W        W48373  17.960  22.593   6.052  0.2411 -0.1426  0.2883
 5280W        W48374  15.291  21.989   4.377 -0.2707  0.3111 -0.0804
 5281W        W48375  18.194  21.823   4.880  0.3852  0.0605 -0.0443
 5282W        W48376  16.659  22.850   5.607 -0.1421 -0.0841  0.3880
 5283W        W48377  15.770  23.549   5.307 -0.3710  0.1509 -0.5071
 5284W        W48378  16.148  21.486   3.067  0.1267 -0.0415  0.0042
 5285W        W48379  17.193  23.187   5.518 -0.0962 -0.4211  0.1687
 5286W        W48380  16.161  23.056   4.238 -0.0456 -0.2202 -0.0192
 5287W        W48381  17.597  24.935   4.852  0.1168  0.2682 -0.1333
 5288W        W48382  14.386  22.284   4.558  0.0058  0.0915  0.0722
 5289W        W48383  16.671  20.819   3.399 -0.0473 -0.0364 -0.0235
 5290W        W48384  14.137  23.107   3.456 -0.1461  0.1446  0.0906
 5291W        W48385  16.804  23.217   6.494  0.3404 -0.2305  0.0019
 5292W        W48386  16.926  25.590   7.343 -0.1197  0.1763  0.0190
 5293W        W48387  15.684  21.431   2.907 -0.2798  0.2264  0.1331
 5294W        W48388  17.459  25.411   3.403 -0.0327  0.1772 -0.0047
 5295W        W48389  17.508  23.621   5.225 -0.1599 -0.0255  0.1942
 5296W        W48390  14.851  25.826   2.667  0.0680 -0.0835 -0.0489
 5297W        W48391  17.757  23.053   3.179  0.0862  0.2176 -0.0328
 5298W        W48392  16.977  24.273   4.581  0.0695 -0.0344 -0.1030
 5299W        W48393  15.838  22.784   5.016 -0.0459  0.0090  0.1809
 5300W        W48394  17.608  24.098   5.705 -0.1498 -0.2041 -0.0482
 5301W        W48395  18.127  23.070   3.688  0.1097 -0.0912 -0.1320
 5302W        W48396  16.486  21.562   3.915  0.3126  0.0489  0.0852
 5303W        W48397  14.331  23.205   5.228  0.2521 -0.1922  0.1563
 5304W        W48398  15.007  24.901   4.539  0.0310 -0.1464  0.2533
 5305W        W48399  18.991  22.707   5.780 -0.1362 -0.0979  0.2109
 5306W        W48400  18.390  22.947   5.743 -0.3235 -0.1464  0.0591
 5307W        W48401  17.016  24.512   2.825 -0.3430  0.2957 -0.0621
 5308W        W48402  17.665  21.653   6.419 -0.2219 -0.1186  0.1661
 5309W        W48403  16.077  24.765   5.804  0.0630 -0.0060  0.2020
 5310W        W48404  16.563  24.319   7.306  0.3225 -0.1390  0.4428
 5311W        W48405  13.903  24.612   2.591 -0.2075  0.3370 -0.0673
 5312W        W48406  16.298  24.299   6.002 -0.2845  0.2248 -0.1018
 5313W        W48407  16.219  23.811   5.400 -0.1899 -0.1435 -0.1913
 5314W        W48408  16.441  23.540   5.039 -0.2927 -0.2496  0.0188
 5315W        W48409  16.530  25.085   5.771 -0.0076 -0.1160 -0.2225
 5316W        W48410  16.527  22.748   4.384 -0.3408 -0.0594 -0.3091
 5317W        W48411  17.582  23.666   4.305 -0.1626 -0.2148 -0.2251
 5318W        W48412  16.905  22.143   5.018 -0.0738 -0.0665 -0.1718
 5319W        W48413  19.990  21.919   5.169 -0.0632 -0.2625 -0.2394
 5320W        W48414  18.728  21.818   4.009  0.4047 -0.1645 -0.0529
 5321W        W48415  15.594  25.205   5.618 -0.0495 -0.0145  0.0819
 5322W        W48416  14.445  23.530   2.364  0.2244  0.0154  0.0908
 5323W        W48417  15.155  23.273   3.056 -0.0008 -0.3742  0.0755
 5324W        W48418  15.213  22.027   4.910  0.3493  0.2166 -0.1370
 5325W        W48419  15.414  21.510   5.816 -0.3623 -0.3593 -0.1438
 5326W        W48420  15.485  22.272   6.526  0.3242  0.2438  0.1035
 5327W        W48421  14.654  24.012   4.630 -0.2269  0.0151  0.0724
 5328W        W48422  15.514  22.293   3.177 -0.1630  0.1712  0.1010
 5329W        W48423  16.959  24.700   3.661 -0.2275 -0.0736  0.0289
 5330W        W48424  15.776  22.044   4.500 -0.1109  0.0400 -0.0971
 5331W        W48425  15.190  20.954   4.083  0.1937  0.0941 -0.0206
 5332W        W48426  16.745  22.888   2.801  0.1049  0.0183 -0.1825
 5333W        W48427  16.586  24.378   3.816  0.0591  0.3218  0.2284
 5334W        W48428  15.170  21.507   4.245  0.3810  0.1064  0.0580
 5335W        W48429  17.818  24.790   7.223 -0.1485  0.3453 -0.0814
 5336W        W48430  14.731  24.676   3.021  0.3224  0.0040  0.3207
 5337W        W48431  15.701  21.331   6.168 -0.1963  0.1968 -0.2360
 5338W        W48432  17.212  21.697   6.292  0.0174  0.2373 -0.1726
 5339W        W48433  14.742  21.536   2.641  0.0102 -0.1256 -0.1588
 5340W        W48434  17.030  22.693   4.096  0.0742 -0.0238 -0.1552
 5341W        W48435  16.173  23.129   3.197  0.1333 -0.3172  0.1846
 5342W        W48436  17.310  25.528   3.843  0.1995  0.1575  0.2569
 5343W        W48437  16.918  23.569   6.836 -0.0801 -0.1562 -0.2299
 5344W        W48438  15.928  24.768   6.307 -0.1276 -0.0934 -0.2106
 5345W        W48439  13.863  21.827   5.205 -0.0513 -0.2355  0.0834
 5346W        W48440  16.396  22.081   3.745  0.3552 -0.4081  0.0301
 5347W        W48441  15.547  23.680   7.432 -0.3514 -0.2412  0.2125
 5348W        W48442  17.789  23.405   3.928 -0.1779  0.0082  0.2424
 5349W        W48443  19.102  22.484   5.287  0.3888  0.1559 -0.1323
 5350W        W48444  15.444  22.613   4.441  0.1020  0.1433  0.0744
 5351W        W48445  15.411  21.209   6.707 -0.0505  0.0475  0.1972
 5352W        W48446  16.047  23.924   6.326  0.0308 -0.0625  0.0270
 5353W        W48447  18.406  24.674   5.484 -0.2368 -0.1494  0.1613
 5354W        W48448  14.956  22.605   3.255 -0.5079 -0.0669  0.0751
 5355W        W48449  17.336  22.070   3.591  0.0619 -0.0491  0.2252
 5356W        W48450  16.140  24.407   2.444  0.0705 -0.0597  0.0713
 5357W        W48451  15.630  23.892   4.370  0.1096  0.0161  0.0470
 5358W        W48452  16.810  22.060   2.373 -0.2409 -0.0306 -0.1214
 5359W        W48453  17.630  22.869   5.526 -0.0441  0.0234 -0.2716
 5360W        W48454  15.687  25.151   5.136 -0.0094  0.0681  0.2808
 5361W        W48455  17.809  25.019   5.869  0.1219 -0.1146 -0.1761
 5362W        W48456  14.695  23.214   3.587 -0.1924 -0.0619 -0.1480
 5363W        W48457  15.768  23.012   2.396  0.1027 -0.3328  0.2324
 5364W        W48458  17.417  24.583   5.195  0.1166 -0.0682 -0.3281
 5365W        W48459  16.803  23.576   7.774 -0.3584 -0.1410  0.2901
 5366W        W48460  16.506  24.325   6.448  0.1793 -0.0140 -0.5381
 5367W        W48461  17.115  23.330   4.285  0.3300  0.2033 -0.0669
 5368W        W48462  14.912  21.626   5.836  0.1099  0.1164 -0.0747
 5369W        W48463  15.030  22.606   5.503  0.0021 -0.2128 -0.1212
 5370W        W48464  16.940  23.603   4.735 -0.1736  0.1783 -0.1292
 5371W        W48465  18.090  21.817   5.361  0.0680  0.0848  0.1688
 5372W        W48466  15.103  21.939   3.255  0.4681  0.1572 -0.3422
 5373W        W48467  17.461  20.785   2.142  0.0871  0.0637 -0.0459
 5374W        W48468  16.391  24.760   6.227  0.0476  0.1082  0.1011
 5375W        W48469  17.093  23.931   6.505  0.1573  0.2178 -0.0647
 5376W        W48470  16.734  23.052   9.597  0.0367 -0.4144 -0.0065
 5377W        W48471  16.387  21.963   8.371  0.2495  0.2023  0.3258
 5378W        W48472  17.504  22.117   8.976  0.1103  0.0149 -0.1398
 5379W        W48473  18.392  23.974   7.815  0.0482 -0.0739  0.0611
 5380W        W48474  14.618  20.731   8.595  0.2122 -0.0635 -0.1148
 5381W        W48475  17.167  24.352   7.774 -0.3637  0.2022  0.1297
 5382W        W48476  17.285  25.272   7.488  0.2325  0.0865  0.1042
 5383W        W48477  18.426  26.866   8.677 -0.1241 -0.0623  0.1366
 5384W        W48478  16.750  23.819   7.271 -0.1522 -0.3073  0.2712
 5385W        W48479  15.861  22.072   9.690  0.0358 -0.1421 -0.0644
 5386W        W48480  16.815  21.383   7.936 -0.0985 -0.2970 -0.0232
 5387W        W48481  15.199  20.864   7.840 -0.0055  0.0629  0.2170
 5388W        W48482  18.341  22.982   9.650 -0.2347 -0.0434 -0.1196
 5389W        W48483  14.722  23.913   7.484 -0.0433 -0.6047 -0.0102
 5390W        W48484  15.632  21.959   9.213  0.3882  0.1500  0.4382
 5391W        W48485  15.808  21.541   9.571  0.0746 -0.0459 -0.1639
 5392W        W48486  16.111  24.354   8.959  0.1170 -0.1091  0.0899
 5393W        W48487  15.389  22.882   9.465 -0.2433 -0.4805 -0.3153
 5394W        W48488  16.674  25.185   7.628 -0.3840 -0.1927  0.1410
 5395W        W48489  15.111  23.833   6.281  0.0599  0.2633  0.1917
 5396W        W48490  15.732  23.025   7.113 -0.3119  0.0477 -0.2386
 5397W        W48491  16.682  21.891   7.990  0.2769  0.1432  0.0581
 5398W        W48492  18.234  20.590   9.779 -0.0219  0.0325  0.2993
 5399W        W48493  18.227  22.881   7.949  0.0336 -0.3361 -0.0693
 5400W        W48494  15.878  24.788   8.596 -0.0760 -0.0535  0.0442
 5401W        W48495  18.556  23.866   8.739 -0.0762  0.2257  0.2292
 5402W        W48496  14.715  22.601   8.509  0.3766 -0.1454 -0.0063
 5403W        W48497  13.844  24.928   9.377 -0.0427 -0.0960  0.3814
 5404W        W48498  16.323  22.952   7.553 -0.1637  0.1239 -0.0258
 5405W        W48499  18.457  24.096   7.251  0.2117 -0.1376  0.0838
 5406W        W48500  15.092  24.400   5.987 -0.0228  0.0834  0.0008
 5407W        W48501  17.148  24.376   9.286  0.1076  0.0534  0.0756
 5408W        W48502  17.772  23.658   8.253  0.2039  0.0127  0.0719
 5409W        W48503  16.128  23.346   7.732 -0.0009 -0.2083 -0.0204
 5410W        W48504  16.886  22.361   7.904  0.1687 -0.1411 -0.0087
 5411W        W48505  15.529  22.366   9.426 -0.3788 -0.1816  0.0129
 5412W        W48506  16.659  24.658   7.647 -0.2798  0.1709 -0.3617
 5413W        W48507  16.866  22.987   7.644  0.2573 -0.3675 -0.0808
 5414W        W48508  16.017  22.277   7.482  0.1341  0.0726  0.1860
 5415W        W48509  17.015  23.394   7.349 -0.2698 -0.0423  0.1993
 5416W        W48510  17.239  21.457   8.306 -0.0161  0.0929  0.1129
 5417W        W48511  15.449  24.235   8.758 -0.2030 -0.2457  0.1084
 5418W        W48512  16.402  26.250   9.455 -0.0645  0.1267 -0.0003
 5419W        W48513  16.073  22.677   7.212  0.2020  0.4747  0.1908
 5420W        W48514  16.733  23.904   9.911 -0.1888 -0.2328 -0.0984
 5421W        W48515  13.190  23.700   9.385 -0.2129  0.2436 -0.0601
 5422W        W48516  14.523  20.513   9.651  0.0874  0.1052 -0.0147
 5423W        W48517  16.737  25.877   6.088  0.1364 -0.0643 -0.1805
 5424W        W48518  18.030  25.188   6.966 -0.3677  0.1215 -0.0090
 5425W        W48519  16.213  23.860   7.342  0.0702  0.1726 -0.0261
 5426W        W48520  15.387  23.338   8.327 -0.2541  0.0582 -0.2851
 5427W        W48521  15.751  21.893   7.715  0.0378 -0.0270  0.5051
 5428W        W48522  18.235  21.539   7.987  0.2345 -0.0258 -0.0221
 5429W        W48523  16.433  23.488   8.705  0.4066 -0.0296 -0.1295
 5430W        W48524  16.703  25.368   9.333  0.1912 -0.2671 -0.0146
 5431W        W48525  16.806  25.037   6.458 -0.0113 -0.1309  0.1768
 5432W        W48526  16.845  21.137   8.745  0.1358 -0.2106  0.0216
 5433W        W48527  15.709  24.171   9.176  0.0781 -0.1669 -0.2686
 5434W        W48528  16.360  22.927   6.456  0.0202  0.1476 -0.2143
 5435W        W48529  15.483  23.851   8.414 -0.0335 -0.2338  0.1323
 5436W        W48530  18.606  23.146   8.263 -0.0952  0.4364  0.0532
 5437W        W48531  17.812  24.177   6.400 -0.1162  0.0273 -0.0827
 5438W        W48532  14.379  24.629   9.372 -0.3355  0.2558  0.1150
 5439W        W48533  15.908  25.163   6.639  0.2688 -0.2491 -0.0685
 5440W        W48534  14.385  22.780   9.740 -0.0723  0.0680  0.1282
 5441W        W48535  13.749  23.090   8.108  0.0961 -0.0801 -0.0964
 5442W        W48536  14.583  21.525   8.388 -0.0132 -0.0974  0.2161
 5443W        W48537  17.598  25.813   9.063 -0.3672  0.4231  0.4489
 5444W        W48538  18.155  21.937   9.529 -0.0303  0.0999  0.0699
 5445W        W48539  18.020  20.950   9.433 -0.0842  0.1496 -0.0898
 5446W        W48540  15.635  23.763   6.566 -0.0650  0.0566 -0.3776
 5447W        W48541  16.744  26.172   6.520  0.1344  0.0499  0.0377
 5448W        W48542  17.736  23.868   7.216 -0.1231  0.1217  0.2550
 5449W        W48543  18.079  22.452   6.516  0.0060  0.0568 -0.3779
 5450W        W48544  13.129  23.352   9.722  0.0520 -0.1164  0.0967
 5451W        W48545  14.967  23.044   6.105  0.2010 -0.2740 -0.1552
 5452W        W48546  14.144  21.283   8.825  0.3463  0.0647  0.0650
 5453W        W48547  15.417  21.311   7.915 -0.0504  0.1084 -0.1707
 5454W        W48548  17.401  21.269   7.736 -0.3586 -0.1651 -0.3364
 5455W        W48549  16.787  21.660   8.497 -0.0403 -0.0112  0.0442
 5456W        W48550  14.752  24.859   7.605 -0.0566  0.2269  0.0674
 5457W        W48551  16.646  25.331   8.110 -0.0983 -0.3884 -0.0972
 5458W        W48552  17.183  23.554   9.134  0.2640 -0.0413 -0.0390
 5459W        W48553  17.437  25.806   7.555 -0.1484  0.1495 -0.1708
 5460W        W48554  15.878  21.065   9.443 -0.2056 -0.0519  0.2753
 5461W        W48555  15.793  23.105   8.109  0.0493 -0.0442 -0.2425
 5462W        W48556  15.356  23.498   8.768 -0.1687 -0.2406 -0.2462
 5463W        W48557  15.966  23.866   8.270  0.0475 -0.1702  0.1302
 5464W        W48558  15.212  23.029   7.090 -0.1461  0.0850  0.0153
 5465W        W48559  15.439  25.859   9.738 -0.1488 -0.0861 -0.0432
 5466W        W48560  16.247  23.072   6.974  0.0720  0.2538  0.0580
 5467W        W48561  17.735  25.733   9.791 -0.2689  0.3701 -0.0348
 5468W        W48562  16.941  23.333   8.684 -0.2257  0.1411 -0.0996
 5469W        W48563  15.501  22.205   7.410 -0.2689 -0.0346  0.0108
 5470W        W48564  17.412  24.281   8.833 -0.0711  0.1173 -0.0111
 5471W        W48565  15.289  25.451   7.821  0.2737 -0.0221  0.0994
 5472W        W48566  15.063  22.991   7.549  0.2291 -0.0691 -0.1511
 5473W        W48567  16.348  23.776   7.798  0.6635  0.1012  0.1322
 5474W        W48568  17.231  22.754   8.545 -0.2732 -0.1639 -0.0281
 5475W        W48569  14.893  23.180   6.676 -0.2289  0.0777 -0.0591
 5476W        W48570  17.675  21.917   8.094  0.0358 -0.0368  0.0699
 5477W        W48571  17.716  22.745   7.907 -0.1922  0.1389 -0.1755
 5478W        W48572  17.408  25.047   7.051  0.4590  0.0395  0.0675
 5479W        W48573  16.351  22.501   7.842  0.1261 -0.0995  0.0433
 5480W        W48574  16.175  21.618   7.929  0.3382  0.2498 -0.2566
 5481W        W48575  17.211  22.729   7.845 -0.2048 -0.1295 -0.0630
 5482W        W48576  16.321  22.141   9.411 -0.0466 -0.2872 -0.0207
 5483W        W48577  16.892  22.067   7.465  0.0194 -0.4390  0.1340
 5484W        W48578  17.343  26.117   6.347  0.1472  0.3276 -0.1981
 5485W        W48579  14.677  22.327   8.921  0.0191 -0.1824  0.0845
 5486W        W48580  18.309  24.958   8.515  0.0782 -0.1090  0.3354
 5487W        W48581  15.814  19.511   8.721 -0.2262 -0.0195  0.0957
 5488W        W48582  16.784  22.732   6.346 -0.5886  0.0474  0.0699
 5489W        W48583  16.066  21.061   8.597 -0.0813 -0.1040 -0.0978
 5490W        W48584  14.622  25.278   5.815 -0.2219 -0.1258  0.1599
 5491W        W48585  17.659  23.404   9.372 -0.1592 -0.0491  0.0285
 5492W        W48586  17.056  22.114   8.832 -0.4249  0.0367 -0.2719
 5493W        W48587  15.786  21.998   6.887  0.2233  0.1458  0.1087
 5494W        W48588  18.082  22.061   9.012  0.0765  0.4894  0.0063
 5495W        W48589  15.769  23.296   6.645 -0.0962  0.1505 -0.2567
 5496W        W48590  16.006  19.937   8.699  0.0825  0.0131  0.1926
 5497W        W48591  13.106  25.252   9.547 -0.0432  0.1078 -0.2349
 5498W        W48592  16.865  22.757   8.238  0.2906 -0.0402  0.0940
 5499W        W48593  15.503  21.388   8.513 -0.0998  0.0553 -0.0016
 5500W        W48594  15.946  24.589   8.089 -0.0586  0.0467 -0.0037
 5501W        W48595  16.469  23.431   7.378 -0.2852  0.0231 -0.0366
 5502W        W48596  15.921  20.951   6.620  0.2164 -0.2298 -0.1121
 5503W        W48597  15.193  24.215   9.222 -0.0909 -0.0683  0.0169
 5504W        W48598  16.834  24.114   6.874 -0.0060  0.2080  0.0723
 5505W        W48599  16.852  22.285   9.844 -0.5339  0.2274  0.1105
 5506W        W48600  16.193  23.903   9.132 -0.1258 -0.0509  0.2679
 5507W        W48601  17.377  21.017   8.595  0.2787 -0.0102  0.0645
 5508W        W48602  14.015  23.187   9.586 -0.2390 -0.1040  0.0208
 5509W        W48603  15.244  22.111   6.949  0.1024 -0.1934  0.1196
 5510W        W48604  14.679  22.719   7.958  0.0376 -0.0414  0.3471
 5511W        W48605  17.758  21.445   8.130 -0.1166  0.3705 -0.1327
 5512W        W48606  16.994  25.319   6.877 -0.2439 -0.2822  0.0219
 5513W        W48607  10.546  24.864   9.958 -0.0844  0.2080  0.0672
 5514W        W48608  15.440  21.836   8.727  0.1002  0.2859  0.3428
 5515W        W48609  15.039  23.191   9.877  0.1007  0.3469  0.2500
 5516W        W48610  17.573  21.735   7.623 -0.2419 -0.1277  0.3388
 5517W        W48611  14.771  22.116   7.132 -0.1450 -0.0367 -0.0552
 5518W        W48612  17.643  21.652   8.601 -0.0501  0.0135 -0.2824
 5519W        W48613  16.249  23.006   8.094 -0.1535  0.0821  0.1756
 5520W        W48614  14.323  22.737   9.132 -0.2337 -0.0639  0.3035
 5521W        W48615  16.698  23.433   9.124 -0.0201 -0.1438  0.1991
 5522W        W48616  15.076  22.586   6.983  0.1346 -0.1881 -0.2889
 5523W        W48617  16.395  24.107   8.158  0.0417  0.0838  0.1732
 5524W        W48618  19.031  23.675   8.670 -0.1497  0.0784 -0.3899
 5525W        W48619  13.917  21.157   9.279 -0.2022 -0.0494 -0.0349
 5526W        W48620  15.581  22.432   8.829  0.2990  0.1680 -0.1293
 5527W        W48621  16.427  22.466   8.381  0.0858 -0.2283  0.1962
 5528W        W48622  17.343  23.412   8.404  0.3840  0.3340  0.2277
 5529W        W48623  16.776  21.979   9.386  0.1093 -0.0949 -0.2204
 5530W        W48624  17.017  20.247   7.869 -0.1481 -0.1115 -0.1607
 5531W        W48625  17.056  25.457   7.917  0.1486 -0.0098 -0.1618
 5532W        W48626  15.926  23.535   7.108 -0.1155  0.1345 -0.0506
 5533W        W48627  13.565  22.704   9.073  0.1756  0.0429  0.0431
 5534W        W48628  16.050  23.074   8.568 -0.0186 -0.1905 -0.1336
 5535W        W48629  16.841  20.557   7.557  0.0605  0.0807  0.0524
 5536W        W48630  15.087  21.636   8.376  0.2527 -0.0645  0.1147
 5537W        W48631  15.945  22.604   8.306 -0.0138 -0.0852  0.3605
 5538W        W48632  13.395  24.271   9.542 -0.0978 -0.2489 -0.3179
 5539W        W48633  19.555  20.594   7.087  0.1013 -0.0224  0.0830
 5540W        W48634  16.384  25.597   5.829 -0.1859 -0.0440 -0.3587
 5541W        W48635  16.871  22.165   8.378 -0.1699 -0.1757  0.1271
 5542W        W48636  17.098  23.016   6.918 -0.1561  0.0018 -0.3644
 5543W        W48637  15.974  19.038   8.339 -0.1323  0.4645 -0.1916
 5544W        W48638  18.200  23.464   8.088 -0.0751 -0.1555  0.0149
 5545W        W48639  16.530  22.520   7.296 -0.1564 -0.1854  0.0280
 5546W        W48640  16.259  19.323   7.914  0.1723  0.0939  0.1290
 5547W        W48641  15.757  23.293   9.450  0.0377  0.0824  0.0964
 5548W        W48642  16.112  24.029   9.901 -0.2434 -0.0645  0.1531
 5549W        W48643  17.568  24.289   7.464  0.1471 -0.0221 -0.0245
 5550W        W48644  16.529  22.062   8.909 -0.0472 -0.0240 -0.1114
 5551W        W48645  14.630  24.421   8.896 -0.0832 -0.1868  0.1516
 5552W        W48646  17.723  23.188   8.118 -0.1076  0.1490  0.1725
 5553W        W48647  17.219  23.322   7.847 -0.1293  0.0541  0.3424
 5554W        W48648  15.891  22.824   9.310  0.3731  0.1893 -0.3400
 5555W        W48649  17.674  24.482   7.900  0.0985  0.2689 -0.1987
 5556W        W48650  16.500  21.195   8.324 -0.2566  0.0528 -0.5181
 5557W        W48651  16.768  23.878   9.340 -0.0295  0.3908 -0.0292
 5558W        W48652  17.132  22.530   6.587 -0.2433  0.2017 -0.0086
 5559W        W48653  17.135  21.573   9.354  0.4008  0.2264  0.0080
 5560W        W48654  17.931  23.984   7.777  0.2559 -0.0687 -0.1620
 5561W        W48655  17.509  23.140   7.444 -0.2281  0.3116  0.1890
 5562W        W48656  14.822  22.891   8.924  0.1437  0.2654 -0.0504
 5563W        W48657  15.516  21.696   7.171 -0.0111 -0.2091  0.2711
 5564W        W48658  16.756  24.296   8.534 -0.0997  0.1768 -0.0818
 5565W        W48659  17.236  24.369   8.354 -0.2914 -0.1896 -0.0123
 5566W        W48660  16.475  22.621   6.817  0.0171 -0.1572 -0.1793
 5567W        W48661  14.255  22.899   8.131  0.1341 -0.0380 -0.1451
 5568W        W48662  15.466  22.823   6.696  0.0335  0.0276 -0.3724
 5569W        W48663  16.915  22.257   6.967  0.2295  0.1883 -0.0190
 5570W        W48664  17.311  26.177   9.256 -0.1364  0.1174  0.1489
 5571W        W48665  16.109  21.556   8.535  0.1864 -0.1650  0.0079
 5572W        W48666  15.379  22.897   7.931  0.1743 -0.2882 -0.2359
 5573W        W48667  16.757  22.532   8.721  0.1855  0.0567 -0.2583
 5574W        W48668  16.243  23.154   9.595 -0.0526 -0.3742  0.3544
 5575W        W48669  17.077  24.964   9.206  0.0119 -0.1682  0.0717
 5576W        W48670  16.463  20.863   9.499  0.0897 -0.2076 -0.0581
 5577W        W48671  18.063  21.535   9.196 -0.0132 -0.1194  0.0912
 5578W        W48672  17.313  21.948   8.447 -0.4924 -0.0358  0.3363
 5579W        W48673  16.339  22.989   9.050  0.3162  0.3605  0.0904
 5580W        W48674  18.392  24.963   7.153 -0.1416  0.0538 -0.1816
 5581W        W48675  16.163  21.753   9.057  0.4257  0.0813 -0.2890
 5582W        W48676  16.788  23.842   8.824  0.1916  0.0507 -0.2816
 5583W        W48677  15.266  22.015   8.021  0.0630  0.0318 -0.0927
 5584W        W48678  15.391  24.313   6.446  0.1184  0.1149 -0.2477
 5585W        W48679  15.157  22.601   9.080 -0.1069  0.1532  0.2216
 5586W        W48680  14.564  24.430   7.802 -0.2443 -0.0588  0.1895
 5587W        W48681  16.768  24.070   7.799  0.3179 -0.2256 -0.0910
 5588W        W48682  17.384  22.376   8.195  0.1518  0.1426  0.1245
 5589W        W48683  18.148  24.979   7.599  0.3976 -0.1848 -0.1333
 5590W        W48684  15.544  22.820   8.465 -0.1340  0.0556  0.1581
 5591W        W48685  15.851  24.659   7.599 -0.0971  0.0970 -0.0269
 5592W        W48686  14.114  24.216   7.495 -0.3088  0.1363 -0.1904
 5593W        W48687  16.696  23.028   7.158 -0.1355 -0.3349 -0.3538
 5594W        W48688  15.502  24.296   8.005 -0.0753 -0.1866  0.4014
 5595W        W48689  18.183  21.611   6.264 -0.3532  0.1594 -0.1425
 5596W        W48690  17.795  23.123   9.008 -0.1112 -0.1386  0.1306
 5597W        W48691  18.145  23.733   7.396 -0.0312  0.1668  0.0985
 5598W        W48692  17.190  21.604   8.789  0.2950 -0.0737 -0.1578
 5599W        W48693  15.117  22.103   9.163  0.2131 -0.0964  0.2895
 5600W        W48694  16.997  24.790   7.309 -0.4227  0.1949 -0.2511
 5601W        W48695  15.252  21.359   8.998  0.2932  0.3511  0.2701
 5602W        W48696  14.940  21.041   9.398  0.0726 -0.0105 -0.3318
 5603W        W48697  16.771  22.435   9.267  0.0656 -0.1417  0.2574
 5604W        W48698  15.902  24.285   4.603 -0.2125  0.6055 -0.1220
 5605W        W48699  17.977  23.161   7.602  0.0955 -0.0191  0.0837
 5606W        W48700  16.307  24.568   8.448 -0.1056  0.0350  0.1698
 5607W        W48701  15.927  24.798   9.454  0.2627  0.1651 -0.0106
 5608W        W48702  16.135  24.971   9.006  0.0329  0.4498  0.0170
 5609W        W48703  14.813  22.912   9.374  0.1931 -0.0901  0.0205
 5610W        W48704  18.492  23.465   7.649  0.1714  0.0223 -0.5382
 5611W        W48705  14.529  20.053   9.311  0.0856  0.2505  0.1118
 5612W        W48706  15.882  22.795   7.731  0.2670  0.1460  0.1728
 5613W        W48707  17.950  21.086   7.810  0.1650  0.2961  0.1359
 5614W        W48708  17.044  22.658   9.637  0.1386 -0.3852 -0.3032
 5615W        W48709  14.572  22.243   9.861  0.0112 -0.2771 -0.0004
 5616W        W48710  15.612  22.466   7.006 -0.1316 -0.1312  0.1099
 5617W        W48711  16.683  24.647   6.854  0.1320 -0.3870  0.0873
 5618W        W48712  16.247  21.076   7.894 -0.6240 -0.0524 -0.2259
 5619W        W48713  15.928  22.073   8.648 -0.1352 -0.3698 -0.2182
 5620W        W48714  14.673  22.437   9.418  0.0658  0.2233 -0.1830
 5621W        W48715  15.880  21.562  11.771 -0.1819  0.1640  0.0560
 5622W        W48716  13.936  22.616   9.441 -0.3131 -0.1220 -0.4832
 5623W        W48717  18.378  24.951   6.674  0.0569 -0.0767 -0.2016
 5624W        W48718  16.199  25.346   9.420 -0.2902 -0.0233 -0.1878
 5625W        W48719  15.504  24.256   7.456 -0.0012  0.3689  0.2602
 5626W        W48720  17.379  23.919   8.030 -0.1392 -0.0045 -0.0008
 5627W        W48721  17.351  26.987   8.628  0.0824 -0.2492  0.0280
 5628W        W48722  12.593  22.554   9.062 -0.0568  0.0150  0.1198
 5629W        W48723  18.231  25.353   9.336 -0.0359 -0.3882 -0.0985
 5630W        W48724  18.139  24.025   8.258 -0.1294 -0.0980 -0.0713
 5631W        W48725  15.798  20.724   8.105 -0.1038 -0.2101  0.2023
 5632W        W48726  15.203  20.723   9.697  0.0635 -0.1199  0.0840
 5633W        W48727  14.282  24.035   8.450  0.1942 -0.0526 -0.1751
 5634W        W48728  17.734  23.647   8.771 -0.0495  0.3030 -0.0470
 5635W        W48729  16.260  25.033   8.052  0.2877 -0.1977  0.1587
 5636W        W48730  14.392  23.941   6.503 -0.5467 -0.2836 -0.0841
 5637W        W48731  15.701  23.563   7.941  0.4113 -0.0323  0.1884
 5638W        W48732  16.918  25.785   8.294  0.2901  0.1509 -0.0632
 5639W        W48733  17.759  24.811   6.716 -0.2112  0.2992  0.2571
 5640W        W48734  17.225  23.895   8.531  0.0747  0.2814  0.0435
 5641W        W48735  18.184  23.570   8.559  0.2533 -0.0323 -0.1945
 5642W        W48736  15.324  21.923   9.658  0.2681 -0.0025  0.2462
 5643W        W48737  18.105  21.984   7.670 -0.2727 -0.3393 -0.0861
 5644W        W48738  17.860  22.096   8.584 -0.1163  0.1166  0.1613
 5645W        W48739  15.125  20.048   9.193  0.1305 -0.0916 -0.1230
 5646W        W48740  14.860  23.482   7.217  0.1401 -0.1162 -0.1959
 5647W        W48741  15.289  23.383   6.439 -0.0419  0.1016 -0.1772
 5648W        W48742  16.740  23.831   8.327 -0.1895  0.3230 -0.1787
 5649W        W48743  16.912  22.865   9.063  0.0917 -0.2247 -0.0128
 5650W        W48744  14.797  22.237   7.964  0.2645  0.0620 -0.2674
 5651W        W48745  16.424  25.072   6.776  0.1636  0.0862  0.2210
 5652W        W48746  14.638  22.032   8.389 -0.2099 -0.0050 -0.0067
 5653W        W48747  14.946  21.316   9.794 -0.0932 -0.0054  0.1589
 5654W        W48748  18.207  24.423   7.964  0.0930  0.1011  0.2814
 5655W        W48749  19.263  24.642   7.548  0.2493 -0.2429  0.2601
 5656W        W48750  16.777  23.316   8.238  0.0401 -0.0511  0.0933
 5657W        W48751  15.803  23.474   8.484  0.0181 -0.0731  0.1137
 5658W        W48752  14.399  21.113   7.580 -0.1120 -0.2144  0.1095
 5659W        W48753  17.716  22.296   9.395  0.2316  0.0982  0.3683
 5660W        W48754  17.058  26.045   7.310  0.1897  0.0310  0.3172
 5661W        W48755  16.826  24.872   8.445 -0.3602 -0.0166 -0.2230
 5662W        W48756  16.187  20.818   9.090  0.2762 -0.1719  0.1649
 5663W        W48757  16.272  23.481   8.236  0.4400  0.1059 -0.1252
 5664W        W48758  17.255  24.517   6.945  0.0926 -0.1872 -0.1489
 5665W        W48759  17.305  22.643   9.216  0.0111  0.0145 -0.0758
 5666W        W48760  16.804  22.159   6.444 -0.3166  0.3580  0.1984
 5667W        W48761  17.437  25.150   8.796  0.0019 -0.3491 -0.0544
 5668W        W48762  15.547  20.073   9.559  0.2676 -0.2677  0.0067
 5669W        W48763  16.011  22.669   6.698  0.1250  0.1710  0.2810
 5670W        W48764  17.693  24.275   6.953  0.0300  0.1400  0.1577
 5671W        W48765  15.793  22.837   9.869  0.1096  0.0791  0.2320
 5672W        W48766  16.560  22.996   8.569  0.0886 -0.0694  0.0875
 5673W        W48767  17.683  24.159   8.334 -0.0109  0.0623  0.3338
 5674W        W48768  15.247  21.712   6.703 -0.3145 -0.2346 -0.0833
 5675W        W48769  18.135  24.018   6.911 -0.0402  0.1751  0.4931
 5676W        W48770  17.230  26.101   8.556 -0.0222  0.3864  0.1484
 5677W        W48771  15.810  23.869   8.825 -0.1931  0.2065  0.1273
 5678W        W48772  18.075  24.480   9.725 -0.4174 -0.1919 -0.3258
 5679W        W48773  14.669  21.275   8.891 -0.3055  0.0045  0.0623
 5680W        W48774  15.639  22.428   7.905  0.1014 -0.1134 -0.1840
 5681W        W48775  15.954  23.770   9.547  0.0735 -0.1461  0.2896
 5682W        W48776  17.120  23.159   9.940 -0.2112  0.0399 -0.2512
 5683W        W48777  14.573  21.959   9.217 -0.4479  0.0839 -0.1463
 5684W        W48778  16.551  20.954   7.422  0.0493 -0.3174 -0.0650
 5685W        W48779  10.872  26.132   9.731 -0.1369  0.1944  0.1195
 5686W        W48780  16.320  23.970   8.643 -0.2217 -0.2994  0.1309
 5687W        W48781  16.209  28.941   2.712 -0.3152 -0.3245 -0.1663
 5688W        W48782  16.531  26.265   0.943  0.0462  0.1536  0.2050
 5689W        W48783  16.330  26.283  30.917 -0.1734  0.4946  0.0402
 5690W        W48784  18.007  27.884   0.770  0.0067 -0.0402 -0.1266
 5691W        W48785  16.852  25.721   0.248 -0.0441 -0.2458  0.1342
 5692W        W48786  16.179  27.915   1.462 -0.2319 -0.0364 -0.1607
 5693W        W48787  15.679  25.142   0.982 -0.0026  0.0803 -0.3390
 5694W        W48788  17.595  27.373   2.901  0.1227  0.0477  0.1633
 5695W        W48789  17.232  28.233   1.061 -0.0872  0.0145 -0.1009
 5696W        W48790  18.119  26.844  30.320 -0.3428 -0.2524  0.0202
 5697W        W48791  15.172  25.411   1.957 -0.1118  0.0243  0.0322
 5698W        W48792  16.803  28.851   2.872  0.0886 -0.1569  0.0459
 5699W        W48793  16.601  24.412  31.973 -0.1361  0.4208 -0.0969
 5700W        W48794  15.575  26.439   1.071  0.1855 -0.1803 -0.2992
 5701W        W48795  17.719  25.864   2.108 -0.1756  0.3289  0.0126
 5702W        W48796  14.777  27.859  30.939  0.2806  0.1658 -0.1653
 5703W        W48797  16.462  26.352   2.274 -0.1759  0.0200  0.3666
 5704W        W48798  14.905  26.680  31.860 -0.4200 -0.0805  0.0606
 5705W        W48799  17.729  29.834   0.880  0.1724  0.1755 -0.0613
 5706W        W48800  15.700  26.162   1.516 -0.0454 -0.0968 -0.0439
 5707W        W48801  16.384  25.271   2.670 -0.2409 -0.0584  0.0436
 5708W        W48802  17.226  29.982   0.736 -0.0435  0.1020  0.6362
 5709W        W48803  15.087  26.858   1.145 -0.0360  0.0798  0.1164
 5710W        W48804  13.840  27.889   2.578 -0.1226 -0.2728  0.1621
 5711W        W48805  14.574  26.153   2.302 -0.2405 -0.1272 -0.4209
 5712W        W48806  18.398  25.751   3.392 -0.1683 -0.1499 -0.1109
 5713W        W48807  17.353  25.479   2.321 -0.1464 -0.2174  0.1247
 5714W        W48808  16.394  27.496   1.647 -0.1355 -0.1820 -0.1836
 5715W        W48809  15.969  29.198   0.155  0.1225  0.1351 -0.1218
 5716W        W48810  16.914  25.920   2.247  0.2001 -0.3255  0.1297
 5717W        W48811  14.433  27.131   0.209 -0.4302  0.0529 -0.1403
 5718W        W48812  14.698  29.576   2.008 -0.0369  0.0022 -0.0521
 5719W        W48813  16.156  28.748   0.408 -0.1581 -0.1871 -0.0910
 5720W        W48814  18.465  29.268   0.145  0.0748 -0.3412 -0.1164
 5721W        W48815  16.864  27.842   2.238  0.1747 -0.1360 -0.0952
 5722W        W48816  16.355  30.554   2.819 -0.1801 -0.1844  0.0090
 5723W        W48817  16.878  27.315  31.798  0.0703 -0.0980  0.1279
 5724W        W48818  16.424  29.073   2.202  0.2429  0.1151 -0.0024
 5725W        W48819  15.256  27.593   2.391 -0.0493  0.0251  0.1350
 5726W        W48820  15.707  26.635   0.522 -0.3794  0.0944 -0.2275
 5727W        W48821  17.068  28.213   0.141  0.2342 -0.0094  0.0573
 5728W        W48822  15.486  28.063   0.530 -0.0266 -0.3325  0.0971
 5729W        W48823  15.533  26.540   2.357 -0.0839  0.0672  0.1075
 5730W        W48824  16.873  27.524   2.954 -0.0388  0.0624  0.2733
 5731W        W48825  15.525  28.442   2.260 -0.0059  0.2456  0.1276
 5732W        W48826  17.791  25.171   2.894 -0.4245  0.1033 -0.1633
 5733W        W48827  15.072  27.716   0.519 -0.2530 -0.0806  0.0439
 5734W        W48828  17.581  25.453   0.075 -0.2419  0.3639 -0.3071
 5735W        W48829  15.647  25.205  31.289 -0.0105  0.0168 -0.0137
 5736W        W48830  17.327  26.097   2.045 -0.1431 -0.0087 -0.1371
 5737W        W48831  16.514  25.182   1.682 -0.1634  0.2766  0.0103
 5738W        W48832  16.046  28.603   2.289  0.2356  0.1608 -0.1633
 5739W        W48833  15.253  25.413   0.793  0.0221 -0.0640 -0.0641
 5740W        W48834  17.214  29.489   3.569 -0.3413 -0.0425 -0.0852
 5741W        W48835  18.102  26.719  31.968 -0.0394 -0.0369 -0.0833
 5742W        W48836  16.837  25.590   2.641 -0.0463 -0.1532 -0.1124
 5743W        W48837  16.855  28.016   2.719  0.0195 -0.1539 -0.2902
 5744W        W48838  15.463  27.096   0.914  0.1690 -0.3201  0.1450
 5745W        W48839  18.418  29.118  30.792 -0.0088  0.0789  0.1804
 5746W        W48840  18.408  28.720   1.864  0.1021 -0.1608 -0.2429
 5747W        W48841  15.695  30.003   0.373 -0.2383 -0.0261  0.0814
 5748W        W48842  14.853  26.209  31.900  0.0971  0.1799 -0.1242
 5749W        W48843  14.710  27.653   2.931 -0.4744 -0.3664 -0.0604
 5750W        W48844  15.871  27.500   3.119  0.0094  0.1432 -0.0424
 5751W        W48845  15.710  23.839  30.925 -0.2350  0.4611  0.0607
 5752W        W48846  17.689  28.089   2.820 -0.0639  0.0504  0.0019
 5753W        W48847  15.100  28.201   2.102  0.3241  0.1386 -0.2436
 5754W        W48848  17.573  26.027   0.113 -0.0542 -0.1322  0.0330
 5755W        W48849  16.458  27.039   0.067  0.1507 -0.2078  0.2973
 5756W        W48850  16.219  28.505   1.278 -0.0461 -0.3350 -0.1832
 5757W        W48851  16.831  27.096   0.790  0.2060 -0.1425 -0.0602
 5758W        W48852  17.127  25.837   1.220 -0.3172  0.0175  0.1968
 5759W        W48853  16.968  24.929   1.738 -0.1885  0.1379  0.0775
 5760W        W48854  17.566  26.498  31.786 -0.1000  0.2024  0.0560
 5761W        W48855  15.403  26.980  31.773  0.1792 -0.1488 -0.0204
 5762W        W48856  17.182  28.249   2.962 -0.0134 -0.0335 -0.1094
 5763W        W48857  17.711  27.008   0.102  0.2204  0.1080  0.1446
 5764W        W48858  15.511  27.618   0.769 -0.2908  0.0537  0.0032
 5765W        W48859  15.292  26.135   2.391 -0.0464  0.0741 -0.0477
 5766W        W48860  17.024  28.292   2.127  0.2601 -0.0144  0.3144
 5767W        W48861  16.126  27.877   0.411 -0.1631 -0.0649 -0.0011
 5768W        W48862  15.020  27.174   0.614 -0.2795  0.1023  0.0647
 5769W        W48863  16.338  29.495   0.996  0.0230 -0.0698 -0.0415
 5770W        W48864  14.432  25.418   1.367 -0.1930 -0.1665 -0.0879
 5771W        W48865  15.672  28.277   1.443 -0.2526  0.0038 -0.0335
 5772W        W48866  17.554  25.047   2.362 -0.2654 -0.0598 -0.0585
 5773W        W48867  15.258  24.687   2.798 -0.0664  0.2184 -0.0296
 5774W        W48868  18.160  25.888   2.400 -0.0646 -0.0524  0.1914
 5775W        W48869  16.387  28.068   0.791  0.0042  0.1871  0.2623
 5776W        W48870  18.734  29.752   1.205  0.0344 -0.1920 -0.3637
 5777W        W48871  18.737  26.003   1.350 -0.0545 -0.0750 -0.0495
 5778W        W48872  16.274  28.605  31.390  0.0251 -0.0580 -0.0350
 5779W        W48873  14.978  26.884   2.827 -0.1273 -0.3181  0.2397
 5780W        W48874  16.052  26.511   1.332 -0.1585 -0.0768 -0.1854
 5781W        W48875  14.529  26.256   1.751  0.1482  0.2388  0.0135
 5782W        W48876  15.009  25.415   3.028  0.2289 -0.1117 -0.2309
 5783W        W48877  17.789  25.488   3.786 -0.1968 -0.2400  0.0099
 5784W        W48878  16.595  24.919   0.231 -0.3438  0.0309 -0.0917
 5785W        W48879  16.976  26.716   1.797 -0.2748 -0.0611 -0.1481
 5786W        W48880  15.087  26.255   0.974 -0.1173 -0.2448  0.0008
 5787W        W48881  15.304  27.427  31.961  0.2419  0.4014  0.0024
 5788W        W48882  18.401  25.127   2.843  0.2407 -0.1814 -0.2896
 5789W        W48883  16.647  29.783   0.060 -0.0763 -0.1181  0.3893
 5790W        W48884  16.544  29.301   2.850 -0.2489 -0.0863 -0.0069
 5791W        W48885  17.152  29.367   2.010  0.1019 -0.1329 -0.3164
 5792W        W48886  16.161  27.026   1.653 -0.1714 -0.0246  0.0489
 5793W        W48887  15.822  24.498  31.586  0.1311 -0.2794  0.0267
 5794W        W48888  14.675  29.661   1.535 -0.1831  0.3479 -0.0710
 5795W        W48889  16.959  29.306   1.319  0.0209  0.2318 -0.1850
 5796W        W48890  15.440  25.988  31.947 -0.1831  0.1072 -0.1639
 5797W        W48891  17.462  28.562   1.830 -0.2111  0.5127 -0.1578
 5798W        W48892  15.170  27.188   1.511  0.1541 -0.2002  0.1889
 5799W        W48893  14.608  27.559   2.362  0.0617 -0.0065 -0.0511
 5800W        W48894  17.419  24.799   2.913  0.3147  0.0264 -0.1311
 5801W        W48895  17.533  26.606   2.819  0.0997 -0.1438 -0.1079
 5802W        W48896  17.217  27.892   0.534  0.4572 -0.0898  0.0054
 5803W        W48897  15.661  24.734  31.215  0.1199  0.0149 -0.0887
 5804W        W48898  16.993  28.739   0.937  0.0157 -0.1019  0.0003
 5805W        W48899  14.582  26.477   1.248  0.2185 -0.0393 -0.0801
 5806W        W48900  15.601  26.920   1.445  0.2246  0.0034  0.0631
 5807W        W48901  16.645  28.738   0.460  0.2288  0.0217 -0.0604
 5808W        W48902  18.223  25.610   2.913 -0.2996  0.0993 -0.1167
 5809W        W48903  14.421  27.092   2.322  0.1513 -0.1361 -0.0309
 5810W        W48904  18.868  26.786   4.046 -0.2450 -0.1033 -0.1346
 5811W        W48905  15.348  26.816  31.241 -0.0242  0.3292 -0.2402
 5812W        W48906  17.591  24.967   1.866  0.3062  0.0467  0.1425
 5813W        W48907  17.994  25.176  31.905  0.0435  0.2824  0.0983
 5814W        W48908  16.490  26.919   3.486 -0.3189  0.0241  0.0512
 5815W        W48909  17.269  29.033   0.594  0.1366  0.1610 -0.0591
 5816W        W48910  16.949  27.381   1.236  0.2391  0.1792  0.0959
 5817W        W48911  18.414  25.043   0.356  0.2295  0.1681  0.1745
 5818W        W48912  14.295  28.685   2.399 -0.0513  0.0681 -0.3562
 5819W        W48913  17.991  28.511   0.167 -0.2713  0.1492 -0.1982
 5820W        W48914  16.835  27.757   1.688  0.0679 -0.1060 -0.0264
 5821W        W48915  15.282  26.238  31.110 -0.1316  0.0172 -0.1968
 5822W        W48916  17.620  28.248   0.626 -0.1843  0.2512  0.0844
 5823W        W48917  14.737  28.101   1.356 -0.1697 -0.0823 -0.1042
 5824W        W48918  16.488  27.676   2.570  0.2219 -0.0742 -0.0992
 5825W        W48919  17.625  27.527   0.600 -0.1046  0.0887  0.0284
 5826W        W48920  16.766  26.284   1.806  0.0639 -0.0473  0.1928
 5827W        W48921  16.116  26.950  31.630 -0.1242 -0.1065 -0.1398
 5828W        W48922  17.497  26.019   1.575  0.0450  0.0405  0.2326
 5829W        W48923  13.932  28.818  31.335 -0.1052  0.2499 -0.2477
 5830W        W48924  17.011  25.564   3.246  0.0275 -0.1705 -0.2197
 5831W        W48925  16.040  25.157   1.402 -0.3183 -0.0142  0.0963
 5832W        W48926  17.228  26.128   2.587  0.1811 -0.1211  0.0003
 5833W        W48927  18.908  26.180   3.458  0.0927 -0.0950 -0.0254
 5834W        W48928  16.906  28.614   1.789 -0.2466 -0.0027 -0.0054
 5835W        W48929  17.453  26.464   2.295 -0.2135 -0.0635 -0.0372
 5836W        W48930  15.045  28.231  31.148  0.2664 -0.1598 -0.2140
 5837W        W48931  15.910  25.702   1.752 -0.0132  0.3247  0.0069
 5838W        W48932  14.196  27.329   1.861 -0.0210 -0.1462  0.0996
 5839W        W48933  13.004  29.206   2.935  0.4217  0.1710  0.3084
 5840W        W48934  17.251  26.758   3.337 -0.4533 -0.0552  0.0165
 5841W        W48935  16.098  29.036   1.265 -0.2607 -0.1632 -0.0279
 5842W        W48936  17.558  26.116   3.074  0.1320 -0.0186 -0.1411
 5843W        W48937  15.913  25.991  31.769 -0.2746  0.0409  0.0091
 5844W        W48938  16.052  28.453   0.806  0.0713 -0.0788  0.0436
 5845W        W48939  15.619  27.400  31.294  0.0469 -0.3507 -0.0449
 5846W        W48940  16.430  25.787   1.787  0.1471 -0.1239  0.3009
 5847W        W48941  15.674  28.740   1.145  0.0857  0.1101  0.0934
 5848W        W48942  16.721  27.937  31.622 -0.1204  0.1036 -0.0591
 5849W        W48943  16.473  26.617   3.916  0.2016 -0.0148 -0.0269
 5850W        W48944  16.536  28.291   0.265 -0.3977 -0.2349  0.0468
 5851W        W48945  17.713  25.646   2.653 -0.2843 -0.1125 -0.0037
 5852W        W48946  15.496  28.279   0.950  0.2262 -0.0357 -0.0499
 5853W        W48947  16.415  27.205   0.617  0.2620  0.1161 -0.1420
 5854W        W48948  14.353  27.793   0.462  0.0015  0.0211 -0.0179
 5855W        W48949  15.251  24.503   1.726 -0.1559  0.0788 -0.2478
 5856W        W48950  17.692  28.500  31.430 -0.2850 -0.3420 -0.3302
 5857W        W48951  14.842  25.436   3.619  0.0711 -0.0164  0.0060
 5858W        W48952  18.291  25.400   2.424 -0.1158  0.1083 -0.1248
 5859W        W48953  14.308  28.813   0.410  0.0338  0.0627 -0.1986
 5860W        W48954  17.291  27.910   1.965 -0.2090 -0.1572 -0.2078
 5861W        W48955  18.080  24.667  31.898  0.3604 -0.0049 -0.0018
 5862W        W48956  15.791  27.641   2.345 -0.1105  0.1076 -0.1567
 5863W        W48957  16.167  26.236   1.850  0.3007  0.0285  0.1337
 5864W        W48958  16.557  26.490   1.395 -0.0523 -0.2192  0.1957
 5865W        W48959  17.758  26.134   2.594 -0.0709 -0.0023 -0.1823
 5866W        W48960  16.149  26.012   1.221 -0.0042  0.0836 -0.1151
 5867W        W48961  14.855  27.632   1.405  0.2881 -0.2003  0.0570
 5868W        W48962  17.298  28.521   0.431  0.3960 -0.2369 -0.0105
 5869W        W48963  15.988  27.752  31.383  0.0081  0.0334  0.2364
 5870W        W48964  15.855  28.578   1.788 -0.1149 -0.1059 -0.1216
 5871W        W48965  15.331  26.441   2.843  0.1444 -0.0736 -0.1428
 5872W        W48966  17.695  27.687   2.472 -0.1391 -0.0824  0.1750
 5873W        W48967  17.352  27.040   1.659 -0.2534 -0.2298  0.2651
 5874W        W48968  15.355  25.898   1.791 -0.0474 -0.4128  0.1406
 5875W        W48969  16.011  26.364   0.824  0.2393  0.1295  0.0899
 5876W        W48970  17.018  28.192   1.531  0.3071  0.2387  0.2402
 5877W        W48971  15.726  26.891   2.725  0.0774 -0.3982 -0.0047
 5878W        W48972  15.809  28.394   2.720  0.0165  0.0488 -0.1497
 5879W        W48973  17.406  25.531   1.812  0.2420  0.1441  0.1718
 5880W        W48974  17.326  28.618   1.347  0.1838  0.1899 -0.1080
 5881W        W48975  17.165  27.493   2.500  0.1419 -0.3871  0.0558
 5882W        W48976  13.989  26.716  31.629 -0.2905 -0.0248  0.0370
 5883W        W48977  14.684  27.201   1.724 -0.1793 -0.1112 -0.0408
 5884W        W48978  14.506  27.037   1.263  0.0788  0.0821 -0.2787
 5885W        W48979  16.176  25.741   2.718 -0.2264  0.1483 -0.2748
 5886W        W48980  14.790  29.165   1.164  0.0675  0.1497 -0.2104
 5887W        W48981  15.678  27.666   0.256 -0.1997 -0.4418 -0.2341
 5888W        W48982  15.209  28.508   1.343  0.2992 -0.1646 -0.1435
 5889W        W48983  19.183  24.420   0.341 -0.0558 -0.1957  0.1701
 5890W        W48984  16.730  26.613  31.922  0.0865  0.0789 -0.0514
 5891W        W48985  16.436  26.668   1.831  0.2152 -0.3577 -0.3367
 5892W        W48986  18.449  26.164   3.685  0.0286  0.3823  0.1168
 5893W        W48987  16.819  26.783  31.088 -0.0607  0.0399 -0.2296
 5894W        W48988  16.775  26.007   3.260  0.4181 -0.1416 -0.2360
 5895W        W48989  16.062  25.851   2.248 -0.0403 -0.1109 -0.2072
 5896W        W48990  17.295  28.030   2.519 -0.0784  0.1351 -0.1312
 5897W        W48991  13.345  24.734   4.109  0.2027  0.0914  0.0472
 5898W        W48992  16.075  28.731   5.836 -0.2081  0.1168 -0.0661
 5899W        W48993  13.783  27.451   2.994 -0.0129 -0.0152  0.0284
 5900W        W48994  16.166  28.422  31.845 -0.1268 -0.0262 -0.4038
 5901W        W48995  16.317  25.875   0.146  0.0002  0.0045 -0.2259
 5902W        W48996  14.159  27.777   2.092 -0.0890 -0.1667 -0.2826
 5903W        W48997  16.664  27.913   3.202  0.0763  0.2571  0.0433
 5904W        W48998  16.725  28.925  31.615  0.1211 -0.1764  0.0540
 5905W        W48999  16.661  25.996   1.341 -0.0669  0.4063  0.2926
 5906W        W49000  16.239  27.747   2.077  0.1918 -0.3326  0.0424
 5907W        W49001  17.190  26.783   0.634  0.0757 -0.0861  0.1238
 5908W        W49002  17.631  26.555   0.324 -0.0056  0.0569  0.1330
 5909W        W49003  14.938  26.283   0.451  0.2641  0.0937 -0.1379
 5910W        W49004  16.379  25.571   1.323 -0.1056  0.0873  0.0362
 5911W        W49005  17.750  28.817   0.478 -0.1777 -0.0695  0.1128
 5912W        W49006  17.181  26.343   0.144  0.0591 -0.0648  0.0075
 5913W        W49007  16.443  25.935   4.145 -0.3810  0.0943 -0.0432
 5914W        W49008  16.678  26.500   3.267  0.0931 -0.0935 -0.1646
 5915W        W49009  16.197  26.068   3.196  0.0800 -0.0080  0.1189
 5916W        W49010  15.946  24.514   1.793 -0.2073  0.1959 -0.1230
 5917W        W49011  18.385  30.221   1.797  0.1555 -0.0597 -0.4410
 5918W        W49012  18.757  25.883  31.636  0.2204  0.1834  0.1052
 5919W        W49013  18.523  26.316   2.294 -0.1323  0.1918  0.3583
 5920W        W49014  18.507  26.402  31.785 -0.1302  0.0619 -0.0942
 5921W        W49015  16.289  25.676  31.666 -0.1372 -0.0896  0.0657
 5922W        W49016  14.895  26.754   1.625 -0.1483  0.0871  0.0717
 5923W        W49017  16.718  26.092   2.640  0.2490 -0.0302 -0.1145
 5924W        W49018  17.012  26.245   0.607  0.2821  0.2806 -0.1954
 5925W        W49019  15.716  25.984   2.702 -0.1846 -0.0528 -0.0717
 5926W        W49020  15.946  29.781   1.145  0.0848  0.3738  0.0525
 5927W        W49021  18.452  28.777   1.356  0.0800 -0.3569  0.0726
 5928W        W49022  17.659  27.259  31.358 -0.3521 -0.0883  0.3009
 5929W        W49023  15.713  26.119   2.047  0.0973  0.2117  0.0913
 5930W        W49024  15.853  29.263   4.227  0.1709 -0.0432  0.2957
 5931W        W49025  16.772  26.099  31.935 -0.0304 -0.2290  0.0614
 5932W        W49026  14.396  26.619  31.106 -0.0008 -0.0369 -0.0655
 5933W        W49027  16.777  28.338   1.093 -0.1593  0.1511  0.0398
 5934W        W49028  18.266  27.246   3.333 -0.0337  0.0525  0.0249
 5935W        W49029  15.977  24.397  31.050 -0.2891  0.1007 -0.2010
 5936W        W49030  19.139  27.017   2.670  0.0543 -0.0026 -0.1140
 5937W        W49031  15.227  29.524   1.120  0.2247  0.1624 -0.0463
 5938W        W49032  16.760  24.379   1.689  0.0967  0.1899 -0.1492
 5939W        W49033  15.350  28.709   1.781  0.2034 -0.1609 -0.2123
 5940W        W49034  14.658  26.739   2.077 -0.0328 -0.2662 -0.3402
 5941W        W49035  17.198  24.452   1.426  0.0132 -0.0589 -0.1654
 5942W        W49036  17.869  26.962   1.241 -0.2534 -0.4285 -0.0263
 5943W        W49037  15.849  26.611   1.817  0.1296 -0.1406 -0.3514
 5944W        W49038  17.582  27.077   2.494  0.2879 -0.0778  0.0459
 5945W        W49039  16.890  27.854   1.124  0.2124 -0.1927  0.0942
 5946W        W49040  15.094  27.382   1.049  0.2195 -0.2620  0.2400
 5947W        W49041  16.588  28.153   3.621 -0.5152 -0.1938 -0.0098
 5948W        W49042  17.735  26.847   2.077  0.1647 -0.2030  0.1600
 5949W        W49043  15.519  27.808   1.256 -0.0788 -0.2293  0.1873
 5950W        W49044  14.531  25.927   3.463 -0.0548 -0.2106  0.0293
 5951W        W49045  17.733  26.983   3.250 -0.1771 -0.1599  0.1366
 5952W        W49046  16.451  27.072   1.227  0.0119 -0.4210  0.2755
 5953W        W49047  16.203  26.772   0.508 -0.1747 -0.0699 -0.0548
 5954W        W49048  16.827  28.870  29.918 -0.0230 -0.0363  0.1522
 5955W        W49049  15.796  29.461   3.706  0.0993 -0.0570  0.2597
 5956W        W49050  14.351  26.280   4.412 -0.1199  0.1450  0.0366
 5957W        W49051  15.887  27.919   0.884 -0.0219  0.2603  0.4775
 5958W        W49052  16.076  29.568   0.582  0.5653  0.2558  0.0443
 5959W        W49053  16.671  27.708   0.642 -0.2626  0.2329  0.0954
 5960W        W49054  17.330  27.782   3.025 -0.0857 -0.0931 -0.0366
 5961W        W49055  16.300  26.723  31.178 -0.2232 -0.1926  0.0362
 5962W        W49056  15.741  27.120   1.920 -0.1867  0.0648  0.0115
 5963W        W49057  15.078  28.701  31.324 -0.1827  0.2573  0.1267
 5964W        W49058  17.780  28.882   1.557  0.0848  0.0255 -0.0209
 5965W        W49059  15.025  29.311   0.697  0.3058 -0.1790 -0.2377
 5966W        W49060  17.336  29.076   4.483 -0.2270 -0.2494 -0.1965
 5967W        W49061  16.379  24.722   1.507 -0.4239 -0.1212 -0.1058
 5968W        W49062  17.773  27.351   1.537 -0.0251  0.0391  0.1423
 5969W        W49063  18.276  26.797   2.291  0.0140  0.2194 -0.2733
 5970W        W49064  16.196  27.322   3.510 -0.2807 -0.0608 -0.1462
 5971W        W49065  16.745  27.168   1.603 -0.3282  0.1116 -0.2333
 5972W        W49066  15.747  23.445   0.188  0.1278 -0.0607  0.0326
 5973W        W49067  15.403  27.033   3.063  0.0101 -0.0642 -0.1354
 5974W        W49068  16.852  25.249   3.621  0.0778  0.0685  0.1038
 5975W        W49069  15.475  27.990   2.525  0.1376 -0.0889 -0.2129
 5976W        W49070  17.488  28.317  31.911  0.0041  0.1587 -0.2199
 5977W        W49071  16.457  26.335   0.335  0.1343  0.1830  0.1142
 5978W        W49072  16.531  28.149   1.735 -0.1243 -0.2665  0.0623
 5979W        W49073  18.768  25.162   2.369 -0.1677  0.1250 -0.1926
 5980W        W49074  17.549  27.875   0.182 -0.2761  0.2617  0.1392
 5981W        W49075  17.409  26.771   1.094  0.2631 -0.2806 -0.3565
 5982W        W49076  16.773  29.744   1.076 -0.1889  0.1795  0.1446
 5983W        W49077  16.483  29.404   1.486  0.0764 -0.0364  0.2514
 5984W        W49078  16.677  28.672   2.299 -0.1207 -0.0184 -0.0978
 5985W        W49079  14.262  25.654   0.935  0.0585 -0.1785  0.0602
 5986W        W49080  17.962  26.668   1.651  0.2325 -0.1522  0.1035
 5987W        W49081  15.610  25.791   0.776  0.0396  0.0067  0.1806
 5988W        W49082  18.639  24.419   1.910  0.2285 -0.2455  0.0529
 5989W        W49083  15.807  27.653   1.760  0.1726  0.1359 -0.2313
 5990W        W49084  17.678  27.074   0.614 -0.0349 -0.0208  0.0341
 5991W        W49085  16.265  26.738   2.512  0.1873  0.0324  0.0788
 5992W        W49086  17.228  26.924   2.225  0.1542 -0.2568 -0.0815
 5993W        W49087  15.111  26.000  31.550  0.0152 -0.3596  0.0813
 5994W        W49088  16.538  27.198   3.916 -0.0037  0.0542  0.1707
 5995W        W49089  16.707  26.325  31.409 -0.1443  0.2086 -0.3551
 5996W        W49090  16.381  27.559   3.069 -0.2778  0.1498  0.0151
 5997W        W49091  15.372  24.717   1.102 -0.1361 -0.2220  0.3841
 5998W        W49092  17.913  25.688  31.747  0.2054  0.1425  0.1896
 5999W        W49093  16.491  27.625   1.111 -0.1974 -0.1800 -0.0356
 6000W        W49094  16.074  28.537   3.109  0.3363 -0.0526  0.0578
 6001W        W49095  16.362  27.486   4.282  0.0640  0.3153  0.0536
 6002W        W49096  16.493  24.045   0.324  0.1631  0.1606  0.3388
 6003W        W49097  17.167  29.172  31.698 -0.0454  0.4334 -0.1895
 6004W        W49098  17.937  27.929   1.324  0.0095  0.1454  0.0166
 6005W        W49099  15.386  28.464   0.203  0.0179  0.2706  0.0689
 6006W        W49100  17.461  26.524   1.748 -0.0486 -0.0211 -0.1818
 6007W        W49101  17.610  29.196   1.933 -0.0612  0.0250 -0.3836
 6008W        W49102  15.021  25.987   3.597  0.0376 -0.2503 -0.0326
 6009W        W49103  16.315  28.603   1.889 -0.1100  0.0718  0.1508
 6010W        W49104  16.659  28.435   3.213  0.0526 -0.2787 -0.1570
 6011W        W49105  17.198  24.351   0.913  0.1384  0.2229 -0.0143
 6012W        W49106  14.825  25.737   2.116  0.0752  0.0063 -0.0431
 6013W        W49107  15.105  30.355   0.994  0.0819  0.0199  0.2993
 6014W        W49108  18.155  26.122   3.029 -0.0938  0.0544  0.5000
 6015W        W49109  17.801  25.689   3.191  0.0232  0.0582 -0.1811
 6016W        W49110  16.824  29.260   0.737 -0.2518 -0.1282  0.0292
 6017W        W49111  17.268  23.710   3.219 -0.1302 -0.0346  0.0577
 6018W        W49112  16.935  27.906   4.018 -0.1427 -0.0613  0.1873
 6019W        W49113  15.124  28.421   2.571 -0.0053 -0.0523 -0.0360
 6020W        W49114  15.600  27.699  31.708  0.1430 -0.2308 -0.0397
 6021W        W49115  16.305  26.491   2.987 -0.1126  0.1484 -0.0270
 6022W        W49116  16.240  27.907  31.915 -0.0015 -0.1499 -0.2217
 6023W        W49117  15.530  29.269  31.803  0.2791 -0.2260 -0.2729
 6024W        W49118  17.160  28.867   2.134 -0.1127 -0.2106 -0.0615
 6025W        W49119  16.846  27.304   0.349  0.1688  0.1097  0.1694
 6026W        W49120  17.453  27.797   1.010 -0.1136 -0.1246  0.3252
 6027W        W49121  13.965  25.944   2.836 -0.1937  0.1839 -0.1560
 6028W        W49122  17.841  25.654   1.607 -0.1285 -0.1640 -0.1161
 6029W        W49123  17.176  25.335   0.986 -0.0843  0.1149  0.0631
 6030W        W49124  16.110  27.357   2.675  0.0145  0.0883  0.0085
 6031W        W49125  14.121  27.307  31.559 -0.1984  0.1578  0.2076
 6032W        W49126  15.794  27.937  30.962 -0.0335 -0.0566  0.1953
 6033W        W49127  15.607  28.676   0.609  0.1341  0.2697 -0.0773
 6034W        W49128  15.854  23.950   3.923 -0.0739 -0.0639 -0.0893
 6035W        W49129  15.563  25.724   2.312  0.1714  0.1422  0.1779
 6036W        W49130  15.182  26.326   1.495 -0.0063 -0.0852  0.1141
 6037W        W49131  16.514  26.732   0.873  0.0562  0.4160 -0.0940
 6038W        W49132  17.629  29.283   0.327 -0.0334  0.1098  0.0062
 6039W        W49133  16.597  25.102   2.219  0.1892 -0.0666 -0.4889
 6040W        W49134  14.866  23.629   0.640  0.2203 -0.1014 -0.1699
 6041W        W49135  16.746  27.774   0.156  0.3760 -0.0973  0.1072
 6042W        W49136  18.271  28.208  31.877  0.0806 -0.1344  0.1780
 6043W        W49137  15.795  25.963   0.351  0.1557  0.0840 -0.1619
 6044W        W49138  19.128  28.004   2.113 -0.1176 -0.1252  0.0056
 6045W        W49139  13.661  28.199  30.352  0.1098 -0.3697  0.2074
 6046W        W49140  16.749  26.602   2.736  0.1170 -0.0373 -0.0898
 6047W        W49141  14.963  25.506   1.342 -0.0494 -0.0988 -0.2237
 6048W        W49142  13.969  24.855  31.241  0.0957 -0.0422  0.1770
 6049W        W49143  15.810  26.930   0.126  0.1099 -0.2440  0.1682
 6050W        W49144  16.377  29.175   0.497  0.4812 -0.0164 -0.2287
 6051W        W49145  17.595  27.976  31.569 -0.1900 -0.1169 -0.0399
 6052W        W49146  16.977  28.750   0.071  0.0826 -0.0618 -0.1075
 6053W        W49147  16.244  28.048   3.016  0.0677 -0.1830  0.1449
 6054W        W49148  14.749  25.319   1.768  0.1883 -0.0265  0.1135
 6055W        W49149  17.365  29.079   1.084 -0.2386  0.0411 -0.2275
 6056W        W49150  15.438  27.870   2.003  0.3642  0.7376 -0.0176
 6057W        W49151  17.857  27.410  30.875 -0.3237  0.0639 -0.2098
 6058W        W49152  19.253  26.433   3.726 -0.0493  0.0400  0.0662
 6059W        W49153  17.297  27.374   0.226 -0.0532  0.2724 -0.3424
 6060W        W49154  15.581  23.668   2.940 -0.0477 -0.1223  0.3147
 6061W        W49155  14.844  28.828   2.703 -0.0332 -0.1085 -0.2715
 6062W        W49156  17.081  28.791   3.487 -0.1071 -0.1617  0.3681
 6063W        W49157  17.305  25.378   2.962  0.0985  0.1489 -0.0563
 6064W        W49158  17.721  26.412   1.298 -0.1466  0.3354 -0.0042
 6065W        W49159  16.916  28.949  31.118 -0.1391  0.1526  0.1155
 6066W        W49160  16.638  26.927   2.249  0.1516  0.0883  0.1766
 6067W        W49161  15.963  27.412   1.284  0.0881  0.1259 -0.1724
 6068W        W49162  16.571  27.190   2.697  0.2843 -0.1601 -0.1167
 6069W        W49163  16.409  29.581   2.473 -0.1036  0.0725 -0.0432
 6070W        W49164  16.742  27.403   3.428  0.0273 -0.1734  0.2013
 6071W        W49165  14.885  25.868   1.621  0.2762 -0.0138 -0.1791
 6072W        W49166  17.153  27.734  31.817 -0.0417 -0.0526 -0.0928
 6073W        W49167  17.533  29.440   3.155 -0.2731 -0.1282  0.3433
 6074W        W49168  16.431  29.116   4.319  0.1707 -0.1482 -0.0835
 6075W        W49169  16.348  28.450   2.649  0.1564  0.2445  0.0026
 6076W        W49170  17.323  27.551   1.513  0.1783 -0.0613  0.1903
 6077W        W49171  15.909  26.874   1.029 -0.1783 -0.0330 -0.4394
 6078W        W49172  15.946  25.622  31.301 -0.2468  0.1140 -0.0126
 6079W        W49173  15.215  26.659   0.714 -0.1726  0.2038 -0.0582
 6080W        W49174  16.817  25.004   2.710  0.0194  0.0489 -0.0445
 6081W        W49175  16.150  27.229   2.184 -0.2873 -0.1253  0.1106
 6082W        W49176  18.253  26.018  31.435 -0.0221  0.2833  0.2787
 6083W        W49177  16.646  28.752   1.388 -0.0063  0.3247  0.0633
 6084W        W49178  16.955  26.835   1.203  0.0101 -0.2669  0.1921
 6085W        W49179  15.385  28.101   6.009  0.0212  0.0180  0.4929
 6086W        W49180  16.695  25.659   4.551 -0.2770  0.0885 -0.2606
 6087W        W49181  18.066  25.272   4.150 -0.0229 -0.0340 -0.3360
 6088W        W49182  18.377  26.521   4.119 -0.0207 -0.2177 -0.1971
 6089W        W49183  15.482  25.869   3.813 -0.0269  0.0310 -0.1430
 6090W        W49184  17.445  28.683   4.854  0.2006 -0.1550  0.0551
 6091W        W49185  15.487  25.091   6.367  0.1633 -0.2245  0.1119
 6092W        W49186  16.820  28.252   5.891  0.0142  0.1386  0.1940
 6093W        W49187  18.105  27.903   4.511  0.0730 -0.0810 -0.1215
 6094W        W49188  15.726  28.414   3.730 -0.0403  0.0328 -0.1410
 6095W        W49189  16.653  26.160   4.526 -0.0880 -0.0504 -0.1046
 6096W        W49190  15.348  28.759   6.233 -0.1142 -0.1072 -0.2511
 6097W        W49191  17.215  25.772   4.698  0.0638  0.3847  0.1206
 6098W        W49192  16.476  24.358   4.561 -0.1072 -0.0278 -0.1755
 6099W        W49193  16.456  26.888   5.209 -0.2645 -0.0309 -0.0484
 6100W        W49194  16.006  26.887   3.799 -0.3125  0.0271  0.1930
 6101W        W49195  14.999  25.871   5.942  0.0249 -0.1195 -0.0052
 6102W        W49196  15.588  26.724   4.660  0.1153  0.1248 -0.1816
 6103W        W49197  15.915  28.216   6.114 -0.1532  0.1458  0.0081
 6104W        W49198  15.727  26.197   5.650 -0.0039 -0.3660 -0.1916
 6105W        W49199  17.391  25.395   5.059  0.0396  0.2330 -0.2163
 6106W        W49200  17.495  27.504   3.444  0.1942 -0.0244 -0.0103
 6107W        W49201  15.295  25.176   3.694 -0.1346  0.1112  0.0617
 6108W        W49202  15.615  25.519   4.689  0.1523  0.0203  0.2869
 6109W        W49203  15.456  25.710   5.787  0.3290  0.0788  0.0387
 6110W        W49204  17.112  26.908   4.678  0.1204 -0.0477  0.2214
 6111W        W49205  19.438  27.289   6.255 -0.2147 -0.1232 -0.2443
 6112W        W49206  14.850  28.759   5.663  0.1568 -0.1647 -0.0206
 6113W        W49207  15.531  26.428   5.124 -0.0387 -0.0599 -0.2583
 6114W        W49208  17.160  25.846   5.852  0.3662 -0.0885  0.0198
 6115W        W49209  14.431  27.908   4.610  0.0205 -0.2041 -0.4359
 6116W        W49210  15.085  29.092   3.992  0.1665 -0.2285 -0.2520
 6117W        W49211  16.461  28.470   4.152 -0.0078  0.1354 -0.0125
 6118W        W49212  17.057  28.290   5.366  0.1775 -0.1140 -0.0157
 6119W        W49213  17.459  28.414   6.853 -0.0734 -0.0987  0.1133
 6120W        W49214  14.686  28.804   7.166  0.4139 -0.0784  0.1111
 6121W        W49215  13.847  28.470   2.549 -0.5467  0.4218 -0.1139
 6122W        W49216  17.360  28.264   7.449 -0.2455 -0.1208 -0.1184
 6123W        W49217  15.867  28.065   7.616  0.1059 -0.2905 -0.2278
 6124W        W49218  15.747  26.723   5.542  0.0792  0.1226 -0.0397
 6125W        W49219  16.863  27.712   4.911 -0.1401  0.0429 -0.1992
 6126W        W49220  15.533  28.707   4.419 -0.0390  0.0607 -0.2801
 6127W        W49221  17.287  28.390   5.814  0.1316  0.1832  0.6763
 6128W        W49222  15.249  27.591   6.748  0.0335 -0.2686  0.0037
 6129W        W49223  15.704  27.255   4.709  0.0505  0.1811 -0.2002
 6130W        W49224  18.429  25.297   6.328  0.0590 -0.2926 -0.0633
 6131W        W49225  15.523  27.511   2.801 -0.2699 -0.1912 -0.1960
 6132W        W49226  17.567  26.466   3.735  0.2678  0.0755 -0.2107
 6133W        W49227  16.633  27.423   2.093 -0.2021  0.0151 -0.1388
 6134W        W49228  16.180  25.329   2.026  0.2738 -0.0219  0.2900
 6135W        W49229  16.621  24.024   4.258  0.0098 -0.2231 -0.0349
 6136W        W49230  16.440  28.384   4.688  0.0768 -0.2791 -0.1363
 6137W        W49231  16.752  26.619   5.478 -0.0009 -0.0865 -0.2794
 6138W        W49232  19.148  26.953   6.624 -0.0597  0.0459  0.2478
 6139W        W49233  17.466  27.056   3.736 -0.1924 -0.0418  0.1072
 6140W        W49234  16.071  25.982   5.975 -0.2142  0.1258  0.0600
 6141W        W49235  15.470  30.090   6.519 -0.4368  0.2366 -0.0500
 6142W        W49236  15.752  25.077   3.937 -0.1980  0.0159  0.4065
 6143W        W49237  17.281  28.905   3.020 -0.1791  0.1348  0.2296
 6144W        W49238  18.188  29.125   4.833  0.0642 -0.0771  0.1964
 6145W        W49239  17.176  27.248   3.206  0.0868  0.6068  0.1446
 6146W        W49240  15.862  26.329   3.063 -0.0671 -0.3979  0.0511
 6147W        W49241  14.183  27.308   6.353 -0.1406  0.1241  0.2797
 6148W        W49242  15.447  26.048   6.658  0.1904 -0.0573  0.1629
 6149W        W49243  16.062  24.988   2.402 -0.1749  0.0496  0.1529
 6150W        W49244  17.897  28.608   7.835  0.0941 -0.0847  0.0701
 6151W        W49245  14.953  28.365   6.017  0.0917 -0.0021  0.2619
 6152W        W49246  17.903  25.367   5.113 -0.1345  0.1266  0.1071
 6153W        W49247  15.351  27.620   4.618  0.1194 -0.0877  0.0640
 6154W        W49248  18.042  27.746   6.125 -0.3321 -0.2310 -0.0579
 6155W        W49249  17.114  26.981   2.697  0.0038 -0.2619  0.3071
 6156W        W49250  17.184  25.201   4.604 -0.0766 -0.1735  0.3238
 6157W        W49251  17.563  26.001   4.359 -0.1986 -0.1825 -0.0097
 6158W        W49252  15.522  27.162   2.355  0.1153 -0.0304 -0.1505
 6159W        W49253  14.901  25.924   3.164 -0.1605 -0.0632  0.1197
 6160W        W49254  17.575  27.673   6.337  0.0142  0.0071 -0.2105
 6161W        W49255  17.094  26.379   3.034 -0.0231  0.0447  0.2973
 6162W        W49256  14.538  28.813   5.161  0.2261 -0.1783 -0.3764
 6163W        W49257  14.315  26.759   6.709  0.0318 -0.1845  0.0461
 6164W        W49258  16.744  27.765   6.110  0.1170  0.1620  0.1924
 6165W        W49259  15.463  28.289   3.271 -0.0037 -0.3519  0.2488
 6166W        W49260  13.990  27.070   5.812  0.0104  0.3248 -0.3333
 6167W        W49261  15.594  26.861   4.088  0.1076  0.0211  0.0329
 6168W        W49262  16.216  25.503   4.045 -0.1590  0.0190  0.1167
 6169W        W49263  15.850  27.713   5.985 -0.3649  0.0310  0.2119
 6170W        W49264  17.895  27.185   3.772  0.1365 -0.0506 -0.1267
 6171W        W49265  16.155  25.650   4.626 -0.0316 -0.0233  0.1169
 6172W        W49266  18.730  26.298   4.539  0.2894  0.1993 -0.2762
 6173W        W49267  15.953  27.180   4.254  0.2672  0.2024  0.0675
 6174W        W49268  17.835  28.908   5.347 -0.1391  0.1292 -0.3174
 6175W        W49269  17.756  26.976   4.215  0.1899  0.0497 -0.0813
 6176W        W49270  17.678  29.419   4.430 -0.1567  0.0957  0.1915
 6177W        W49271  13.456  26.779   6.865  0.1166 -0.1450  0.0251
 6178W        W49272  15.087  26.447   3.319  0.0227 -0.0288  0.0526
 6179W        W49273  15.232  26.330   5.864  0.0176 -0.1633 -0.0772
 6180W        W49274  16.309  25.189   4.849  0.2848 -0.2101 -0.2279
 6181W        W49275  17.947  26.587   5.124 -0.1126 -0.1612  0.1437
 6182W        W49276  13.981  25.314   3.229  0.0729  0.2449 -0.2034
 6183W        W49277  16.824  26.658   4.361 -0.1968  0.0626  0.1552
 6184W        W49278  16.214  27.298   4.841  0.0679 -0.0252  0.1567
 6185W        W49279  15.120  27.024   3.946 -0.0844  0.0506  0.0566
 6186W        W49280  16.689  25.549   6.532 -0.1952 -0.0407 -0.2384
 6187W        W49281  16.811  27.267   4.380 -0.1767  0.2743 -0.1750
 6188W        W49282  18.640  28.400   5.461  0.0667 -0.0140  0.2142
 6189W        W49283  17.000  30.126   5.190  0.0631  0.0037  0.1177
 6190W        W49284  14.715  27.080   6.620 -0.1922  0.1126  0.0583
 6191W        W49285  15.780  25.804   3.174  0.1013  0.5114  0.0798
 6192W        W49286  13.546  29.771   5.639  0.1731  0.2385 -0.1858
 6193W        W49287  16.099  29.183   5.104 -0.1275  0.2227 -0.1549
 6194W        W49288  16.170  24.717   3.928 -0.2016 -0.2888  0.0979
 6195W        W49289  17.462  29.284   5.382 -0.1133 -0.0327 -0.1568
 6196W        W49290  17.372  28.089   3.889 -0.3511  0.1146 -0.1710
 6197W        W49291  14.473  26.938   5.622  0.1892 -0.1011  0.0711
 6198W        W49292  18.317  26.501   5.918  0.0517  0.0623 -0.0450
 6199W        W49293  17.682  25.583   6.214 -0.0574 -0.0658  0.0771
 6200W        W49294  16.604  28.176   5.119 -0.1388 -0.2394  0.2224
 6201W        W49295  15.105  25.488   2.450 -0.0410 -0.3500  0.2147
 6202W        W49296  17.800  28.809   4.502  0.0130  0.0971 -0.1315
 6203W        W49297  16.077  28.035   2.541  0.0794 -0.0683 -0.0921
 6204W        W49298  15.049  25.214   4.128 -0.0276 -0.0121 -0.2737
 6205W        W49299  15.104  28.069   5.017 -0.3700  0.1214  0.0685
 6206W        W49300  18.530  24.169   5.367 -0.2572 -0.1513 -0.2986
 6207W        W49301  13.835  26.671   6.537 -0.0974 -0.1186  0.0624
 6208W        W49302  15.833  27.438   8.831  0.1995 -0.2042 -0.2138
 6209W        W49303  15.304  26.508   3.818 -0.2000 -0.1585  0.1496
 6210W        W49304  15.484  27.780   5.611  0.1555 -0.2004  0.0262
 6211W        W49305  16.453  25.794   4.966 -0.1145 -0.3766  0.1467
 6212W        W49306  17.996  25.715   4.490 -0.0315 -0.1052  0.0416
 6213W        W49307  16.802  28.172   7.982 -0.2567  0.1462 -0.2171
 6214W        W49308  18.493  27.625   4.203  0.2228 -0.1473  0.3514
 6215W        W49309  16.473  26.174   3.649 -0.0724 -0.0102 -0.2360
 6216W        W49310  16.457  25.620   2.351  0.0447 -0.2595  0.0712
 6217W        W49311  14.618  26.611   6.348  0.0377  0.0549  0.0931
 6218W        W49312  16.698  28.638   5.471 -0.1428  0.0817 -0.0248
 6219W        W49313  16.279  27.030   6.213  0.1568 -0.1994  0.2936
 6220W        W49314  16.429  25.607   3.590  0.2363  0.0495  0.0936
 6221W        W49315  18.988  27.493   4.774  0.0322 -0.0097  0.0572
 6222W        W49316  14.992  27.246   4.922  0.0897 -0.0742 -0.1617
 6223W        W49317  16.533  26.995   7.618  0.4394 -0.1986 -0.1876
 6224W        W49318  16.926  28.592   4.918 -0.1164  0.1693  0.2295
 6225W        W49319  15.493  25.569   5.269 -0.1148 -0.2562  0.0710
 6226W        W49320  16.093  26.257   3.956 -0.1744 -0.1291 -0.0829
 6227W        W49321  16.150  26.439   5.431  0.3642 -0.3243  0.1450
 6228W        W49322  15.130  29.538   1.704 -0.0246 -0.0367  0.0353
 6229W        W49323  16.466  27.398   5.257 -0.2718  0.0578 -0.1492
 6230W        W49324  16.894  25.973   5.083  0.0436 -0.1119 -0.0191
 6231W        W49325  15.939  26.233   6.459  0.0687 -0.0466  0.1400
 6232W        W49326  18.638  27.706   6.732  0.0630  0.0387  0.0363
 6233W        W49327  18.946  26.304   5.335  0.0779 -0.3130 -0.3479
 6234W        W49328  16.620  26.708   6.641  0.0260  0.0191 -0.0861
 6235W        W49329  16.840  26.222   4.044 -0.2545 -0.3761  0.0980
 6236W        W49330  16.474  27.498   6.415 -0.1532 -0.0241 -0.0882
 6237W        W49331  15.436  28.319   6.476  0.0284 -0.0189  0.1229
 6238W        W49332  14.443  28.556   5.902  0.1375 -0.1658 -0.6286
 6239W        W49333  17.349  27.528   6.904  0.3009  0.0498 -0.3301
 6240W        W49334  16.732  28.729   4.461  0.1213 -0.0169  0.0334
 6241W        W49335  17.601  26.675   7.033 -0.0783  0.1041  0.2260
 6242W        W49336  15.907  25.216   4.423  0.0809  0.0470 -0.2823
 6243W        W49337  15.965  29.572   4.882  0.1649 -0.0050 -0.1976
 6244W        W49338  16.792  26.992   3.091  0.1586 -0.1065 -0.1413
 6245W        W49339  16.221  23.876   4.490  0.2006 -0.1459  0.0099
 6246W        W49340  14.588  27.953   6.074 -0.1693  0.1684  0.0630
 6247W        W49341  15.024  28.710   2.163 -0.0787 -0.4026 -0.5232
 6248W        W49342  17.470  27.139   6.633 -0.3585  0.0688 -0.2828
 6249W        W49343  16.033  27.587   3.892 -0.1508  0.3368  0.1996
 6250W        W49344  16.448  25.472   5.335 -0.0046  0.1606  0.2495
 6251W        W49345  14.612  27.384   5.162 -0.2750 -0.0560 -0.0701
 6252W        W49346  15.794  25.494   3.684 -0.0984  0.0870 -0.1454
 6253W        W49347  14.725  24.748   4.083 -0.1726 -0.1879  0.1340
 6254W        W49348  17.544  25.191   4.185 -0.3964 -0.2259 -0.0377
 6255W        W49349  16.943  26.471   2.295 -0.2099 -0.0465  0.0986
 6256W        W49350  15.088  27.197   5.789  0.2186  0.0965  0.1647
 6257W        W49351  16.476  26.302   5.121  0.1532  0.4683 -0.0081
 6258W        W49352  14.062  27.554   5.393 -0.1201  0.0769  0.2174
 6259W        W49353  17.125  27.416   5.501 -0.0228  0.0853 -0.0003
 6260W        W49354  16.829  24.574   2.174  0.0100  0.3062 -0.1529
 6261W        W49355  18.548  27.357   5.022  0.0329  0.0587 -0.0200
 6262W        W49356  14.421  26.839   7.179  0.0716 -0.2150 -0.3155
 6263W        W49357  14.636  26.088   3.959  0.1015 -0.1711  0.0856
 6264W        W49358  17.025  26.647   6.334  0.1059 -0.2146 -0.1004
 6265W        W49359  15.999  25.945   3.617 -0.2306  0.2415  0.0334
 6266W        W49360  15.554  28.919   3.965  0.0887  0.0913  0.1627
 6267W        W49361  15.844  28.290   6.715  0.2637  0.1041 -0.2338
 6268W        W49362  14.753  26.463   3.667 -0.0480 -0.0271 -0.0452
 6269W        W49363  15.559  27.259   5.560 -0.4651 -0.0931  0.1839
 6270W        W49364  15.422  26.844   5.953 -0.0830  0.2094 -0.5225
 6271W        W49365  16.994  26.296   5.979  0.0045 -0.0757 -0.0940
 6272W        W49366  16.093  26.637   4.295  0.1209  0.1323  0.0609
 6273W        W49367  15.878  23.411   4.242 -0.1268  0.0299 -0.1805
 6274W        W49368  18.326  28.045   4.045 -0.1443  0.1814 -0.0446
 6275W        W49369  18.569  27.771   4.770 -0.2057 -0.1316 -0.2626
 6276W        W49370  17.166  26.247   4.507 -0.0820 -0.0617 -0.0288
 6277W        W49371  15.520  27.800   7.323 -0.0074  0.2988 -0.1526
 6278W        W49372  17.113  26.255   5.517 -0.0473 -0.0491  0.0944
 6279W        W49373  16.432  28.712   5.054  0.1171  0.0435  0.1664
 6280W        W49374  16.647  26.749   6.042  0.1825  0.0579  0.0970
 6281W        W49375  16.168  27.825   3.450  0.0315 -0.0610  0.0805
 6282W        W49376  15.141  26.559   5.381  0.1915  0.0460 -0.0827
 6283W        W49377  15.552  27.918   4.173  0.0063 -0.1599 -0.1724
 6284W        W49378  16.764  25.794   5.515  0.1106  0.0784  0.1308
 6285W        W49379  16.234  25.944   5.500 -0.0910  0.2308  0.2645
 6286W        W49380  15.914  28.290   4.265 -0.0955  0.0182 -0.3370
 6287W        W49381  13.968  27.928   6.191  0.2739  0.1834  0.2009
 6288W        W49382  18.431  26.625   3.143  0.1093  0.1321  0.1105
 6289W        W49383  18.258  28.249   2.022  0.1017 -0.0260  0.1959
 6290W        W49384  16.276  26.859   5.677  0.0673  0.2182 -0.3564
 6291W        W49385  17.583  26.625   6.555 -0.1076 -0.1392  0.1316
 6292W        W49386  19.216  26.750   5.471 -0.0441 -0.2685  0.2332
 6293W        W49387  16.473  26.297   5.809  0.0000  0.4072  0.2336
 6294W        W49388  15.685  25.694   6.825  0.3039 -0.1738  0.2971
 6295W        W49389  17.766  28.000   5.538 -0.0544  0.2147 -0.0080
 6296W        W49390  14.519  25.820   5.672 -0.2335 -0.3322 -0.1497
 6297W        W49391  17.036  28.675   8.330  0.3662 -0.1861 -0.1102
 6298W        W49392  14.106  26.831   7.551 -0.0902  0.2465  0.0985
 6299W        W49393  16.710  25.099   4.544 -0.0405  0.0432 -0.0147
 6300W        W49394  15.473  25.248   2.995 -0.1821 -0.0552  0.1170
 6301W        W49395  14.193  26.115   5.915  0.2533 -0.0868 -0.1157
 6302W        W49396  17.891  28.087   4.992 -0.0857  0.0733  0.0905
 6303W        W49397  15.718  27.309   3.577  0.1669 -0.2454 -0.0497
 6304W        W49398  17.215  28.142   4.819  0.1168 -0.0623  0.0487
 6305W        W49399  15.167  27.100   6.857  0.2321 -0.0386  0.3175
 6306W        W49400  16.948  25.807   3.668 -0.0164  0.1048 -0.0219
 6307W        W49401  18.053  26.705   4.501 -0.2297  0.0570 -0.0095
 6308W        W49402  15.953  27.674   4.487 -0.0718  0.2110  0.0183
 6309W        W49403  16.333  25.355   6.269  0.4625  0.4324  0.1208
 6310W        W49404  18.033  28.544   4.906  0.1493  0.1081 -0.1897
 6311W        W49405  17.931  25.902   4.045 -0.0034  0.0093  0.0013
 6312W        W49406  17.331  26.242   5.050  0.0186 -0.2129  0.0277
 6313W        W49407  17.024  26.971   5.249  0.0020 -0.0912 -0.2235
 6314W        W49408  15.797  26.848   6.365 -0.1497  0.0321 -0.1724
 6315W        W49409  13.903  25.077   7.313 -0.1084 -0.3965 -0.1599
 6316W        W49410  17.143  27.902   5.671  0.0444  0.5015  0.4653
 6317W        W49411  17.952  26.393   2.118 -0.1905 -0.1647 -0.2360
 6318W        W49412  17.624  26.005   5.929  0.1232 -0.3200  0.1969
 6319W        W49413  17.029  26.380   3.575  0.2278 -0.4298  0.1713
 6320W        W49414  16.710  25.543   4.021 -0.1748  0.1242 -0.1235
 6321W        W49415  16.821  24.662   4.802  0.0914 -0.1575 -0.1030
 6322W        W49416  17.275  26.018   8.007  0.0304  0.0292  0.3277
 6323W        W49417  15.367  25.571   3.407  0.0232 -0.3395  0.1640
 6324W        W49418  17.656  25.856   4.958 -0.1408 -0.4012 -0.4379
 6325W        W49419  16.156  28.287   5.145 -0.1100  0.0956  0.0799
 6326W        W49420  16.138  28.793   4.548  0.2284  0.2189 -0.1358
 6327W        W49421  16.178  25.196   3.618  0.0049  0.0347  0.0023
 6328W        W49422  14.978  23.976   5.009  0.0240 -0.1013 -0.0103
 6329W        W49423  14.363  29.420   8.062 -0.2741  0.1434 -0.0315
 6330W        W49424  14.891  27.092   3.264 -0.1066  0.1705 -0.3016
 6331W        W49425  16.214  27.006   3.052  0.1485 -0.0521 -0.1720
 6332W        W49426  17.261  24.661   4.504 -0.1001  0.0325 -0.1282
 6333W        W49427  17.751  26.316   7.797  0.1506 -0.0776 -0.0599
 6334W        W49428  16.131  25.462   3.185 -0.1107  0.3082 -0.3076
 6335W        W49429  17.894  26.715   6.121 -0.1019 -0.0838 -0.2959
 6336W        W49430  15.627  28.009   4.643 -0.1368 -0.1450  0.0375
 6337W        W49431  18.999  24.196   5.061  0.0175  0.2902 -0.1926
 6338W        W49432  15.240  29.548   5.395  0.0841 -0.1379 -0.2942
 6339W        W49433  13.682  26.715   6.006  0.1141  0.1235 -0.1896
 6340W        W49434  15.118  27.972   3.877 -0.4006 -0.1518 -0.1223
 6341W        W49435  17.388  26.738   5.457  0.0328  0.1244  0.1271
 6342W        W49436  18.041  27.418   5.003 -0.0193 -0.2991  0.0490
 6343W        W49437  15.994  26.871   4.961  0.1380 -0.1889  0.2834
 6344W        W49438  18.375  27.294   5.468  0.1543 -0.2124 -0.3617
 6345W        W49439  16.271  27.398   5.792 -0.1106 -0.3576 -0.0750
 6346W        W49440  15.628  26.298   4.210 -0.3575 -0.1241 -0.2848
 6347W        W49441  16.619  28.740   5.954 -0.1297 -0.2569 -0.0009
 6348W        W49442  18.454  27.878   5.248 -0.0052 -0.0572 -0.1765
 6349W        W49443  16.000  27.290   5.295  0.4452 -0.0704  0.0001
 6350W        W49444  15.113  26.206   7.399  0.0191  0.2542  0.0297
 6351W        W49445  16.814  27.139   6.263 -0.1237  0.1488  0.0637
 6352W        W49446  15.771  27.860   5.171  0.2458  0.1011  0.0464
 6353W        W49447  15.023  24.082   3.718 -0.0480 -0.0192 -0.1862
 6354W        W49448  15.126  28.069   4.478  0.4084 -0.2354  0.2241
 6355W        W49449  14.974  27.744   5.942  0.0288  0.0720 -0.2081
 6356W        W49450  15.419  26.953   5.177 -0.1373 -0.0532 -0.2178
 6357W        W49451  15.470  28.781   3.508 -0.2079 -0.0255  0.2988
 6358W        W49452  18.646  26.232   2.738  0.0997 -0.0345 -0.3122
 6359W        W49453  16.366  26.999   4.417 -0.2763 -0.1426 -0.4869
 6360W        W49454  15.999  27.397   6.411 -0.0923 -0.0259  0.4238
 6361W        W49455  16.459  26.554   4.717 -0.1328  0.0779  0.1118
 6362W        W49456  15.536  28.287   5.077 -0.2103  0.0487  0.2027
 6363W        W49457  13.149  28.633   2.451 -0.0456  0.0038 -0.1766
 6364W        W49458  18.539  28.173   4.473  0.0011 -0.1064  0.0509
 6365W        W49459  15.749  28.216   5.562  0.0910 -0.1209  0.2109
 6366W        W49460  17.279  28.209   8.281  0.1674  0.2491  0.0231
 6367W        W49461  17.463  25.904   3.530 -0.0038  0.1039  0.0005
 6368W        W49462  18.079  26.930   5.695  0.2763  0.0168  0.0942
 6369W        W49463  18.294  27.314   4.554  0.0915  0.1413  0.1157
 6370W        W49464  16.727  27.912   6.605 -0.1843 -0.1621  0.0508
 6371W        W49465  15.734  26.332   3.547 -0.1922 -0.0034 -0.1959
 6372W        W49466  15.947  24.364   3.569  0.1560 -0.0070  0.2433
 6373W        W49467  16.348  26.442   6.332 -0.0206  0.2021  0.0696
 6374W        W49468  16.210  25.621   6.762  0.0795 -0.0338  0.3745
 6375W        W49469  15.006  28.998   6.617 -0.1758 -0.0085  0.1115
 6376W        W49470  16.228  29.396   3.274 -0.3095  0.0204 -0.0126
 6377W        W49471  14.222  26.142   4.922 -0.1955  0.2649  0.0889
 6378W        W49472  16.904  26.513   4.957  0.0141  0.2085  0.1682
 6379W        W49473  17.722  25.501   5.610 -0.4902  0.2579  0.1741
 6380W        W49474  15.750  27.942   2.977 -0.0429 -0.4318  0.1270
 6381W        W49475  16.213  27.838   5.449  0.0848 -0.0259 -0.0068
 6382W        W49476  15.795  29.085   4.731 -0.1339  0.0986 -0.2547
 6383W        W49477  14.676  27.411   5.642  0.3530  0.2811  0.1960
 6384W        W49478  14.681  28.162   5.592 -0.0874  0.0488 -0.1607
 6385W        W49479  14.137  26.528   3.951  0.2706 -0.0556 -0.2417
 6386W        W49480  17.274  27.408   4.652  0.0870  0.1210  0.1964
 6387W        W49481  15.962  26.478   6.012 -0.1942 -0.2399  0.0900
 6388W        W49482  16.941  24.847   5.588 -0.0071 -0.2067  0.3624
 6389W        W49483  15.288  25.934   5.001  0.1913 -0.3491  0.2380
 6390W        W49484  17.115  25.765   4.229 -0.1846 -0.2137 -0.2508
 6391W        W49485  17.478  26.499   5.991  0.0598  0.0432  0.0258
 6392W        W49486  15.065  27.900   6.400 -0.0809 -0.0467  0.0802
 6393W        W49487  17.523  26.714   4.960  0.1531  0.1506  0.2387
 6394W        W49488  17.802  27.438   6.861 -0.0786  0.4328 -0.0175
 6395W        W49489  17.783  26.504   3.240 -0.1195 -0.2717 -0.1174
 6396W        W49490  18.227  28.308   8.723  0.0869  0.3023  0.1916
 6397W        W49491  15.468  25.430   4.237  0.0100  0.0919 -0.0513
 6398W        W49492  17.018  27.353   3.910 -0.2558  0.0866  0.2096
 6399W        W49493  16.785  27.355   6.820  0.0036  0.1992  0.0718
 6400W        W49494  17.084  27.541   6.458  0.3512 -0.1765 -0.0599
 6401W        W49495  16.126  26.163   4.465  0.0351  0.1473 -0.0199
 6402W        W49496  18.270  27.025   4.112  0.0424  0.2700  0.0310
 6403W        W49497  17.890  27.029   5.243 -0.0594  0.1288 -0.2329
 6404W        W49498  16.156  28.366   3.536 -0.2549 -0.0448 -0.0746
 6405W        W49499  18.287  26.947   4.893  0.0469  0.3379 -0.2396
 6406W        W49500  17.820  28.517   5.695  0.1215  0.1937 -0.1067
 6407W        W49501  14.650  25.856   4.833  0.0176 -0.1454 -0.2705
 6408W        W49502  17.569  27.673   5.851  0.2748  0.0719  0.0986
 6409W        W49503  17.634  28.298   4.601  0.0923  0.1304 -0.0289
 6410W        W49504  16.383  23.954   3.787  0.0354  0.1015  0.0609
 6411W        W49505  14.249  26.334   6.402 -0.2335  0.1943 -0.1428
 6412W        W49506  14.697  28.321   3.929 -0.0072  0.1906 -0.1138
 6413W        W49507  17.487  27.525   3.940 -0.0472 -0.3984 -0.1955
 6414W        W49508  17.343  25.806   5.346  0.0963 -0.0992 -0.3201
 6415W        W49509  17.645  28.469   4.129 -0.0866 -0.0151  0.0655
 6416W        W49510  18.449  26.111   6.275  0.2652  0.0178  0.1944
 6417W        W49511  16.371  28.297   5.643  0.0116 -0.1852 -0.1035
 6418W        W49512  16.364  28.155   7.752 -0.1417  0.0602  0.0099
 6419W        W49513  15.658  27.903   3.543  0.0846  0.1172  0.1548
 6420W        W49514  15.533  27.212   6.548 -0.1925  0.1346  0.3449
 6421W        W49515  16.961  28.475   3.947 -0.2832  0.0644 -0.3325
 6422W        W49516  17.608  28.428   5.287  0.1778  0.3035 -0.1616
 6423W        W49517  16.857  29.542   5.014  0.1206  0.1844 -0.1518
 6424W        W49518  16.030  26.380   4.919 -0.1299 -0.0014 -0.2187
 6425W        W49519  19.068  27.527   6.956 -0.2531 -0.1629  0.1242
 6426W        W49520  16.510  24.696   3.456 -0.0035  0.2600  0.0519
 6427W        W49521  18.386  24.952   5.095  0.0462 -0.2462  0.1854
 6428W        W49522  17.801  24.759   4.404  0.1511 -0.1508  0.1835
 6429W        W49523  15.174  26.857   6.394 -0.0336 -0.0909 -0.0489
 6430W        W49524  14.536  26.990   4.877  0.0750  0.1141  0.1111
 6431W        W49525  15.216  27.886   2.983 -0.0809  0.1603  0.0441
 6432W        W49526  15.193  26.625   4.274 -0.2249 -0.0509  0.0697
 6433W        W49527  17.526  25.350   6.640  0.2533 -0.2208 -0.0881
 6434W        W49528  13.367  26.579   5.609  0.0392  0.0126  0.3939
 6435W        W49529  14.940  28.510   5.232 -0.1158 -0.0329 -0.1379
 6436W        W49530  15.461  25.029   4.549  0.0185 -0.2526 -0.1676
 6437W        W49531  16.545  27.949   4.440 -0.0450  0.1997 -0.0951
 6438W        W49532  15.897  25.662   5.666  0.0922  0.3397 -0.1809
 6439W        W49533  14.774  25.409   4.562  0.1307  0.1702 -0.0964
 6440W        W49534  17.155  28.494   4.441 -0.2226  0.3594 -0.0397
 6441W        W49535  18.101  29.429   3.155  0.1214  0.0095  0.4912
 6442W        W49536  16.685  24.989   5.215  0.3795  0.0214 -0.0033
 6443W        W49537  16.973  27.825   7.606 -0.0694  0.0666 -0.0666
 6444W        W49538  16.237  28.029   4.018  0.0353 -0.0032  0.2452
 6445W        W49539  16.258  27.622   6.864 -0.0797  0.1371 -0.0149
 6446W        W49540  16.354  25.896   6.361 -0.1182  0.0066  0.1912
 6447W        W49541  13.275  24.757   3.148  0.1525 -0.0724  0.0379
 6448W        W49542  16.699  27.150   5.642 -0.1411  0.2042  0.0468
 6449W        W49543  16.701  27.712   5.556 -0.1212  0.0978 -0.0507
 6450W        W49544  17.024  29.323   3.094 -0.1978 -0.1264  0.3183
 6451W        W49545  15.914  27.956   7.060  0.0644 -0.0792  0.0728
 6452W        W49546  17.965  27.471   5.681  0.3648  0.1049 -0.1144
 6453W        W49547  15.024  24.345   7.517  0.0663  0.4291 -0.1184
 6454W        W49548  16.566  27.677   3.794 -0.1317  0.1731 -0.1100
 6455W        W49549  15.510  27.402   6.084  0.0755  0.0415  0.0330
 6456W        W49550  17.530  28.127   3.337  0.0430 -0.0213 -0.0235
 6457W        W49551  17.868  27.225   6.131 -0.1136 -0.1014  0.4797
 6458W        W49552  17.777  27.948   4.099 -0.1110  0.0341 -0.0217
 6459W        W49553  15.871  24.834   7.111  0.0820  0.0415  0.2789
 6460W        W49554  14.926  28.357   7.217 -0.0196 -0.0401 -0.0957
 6461W        W49555  18.356  26.649   6.960 -0.0193  0.1436  0.1021
 6462W        W49556  16.292  24.688   4.880 -0.0737 -0.3202 -0.1626
 6463W        W49557  17.084  25.104   4.062 -0.0141 -0.0862 -0.0218
 6464W        W49558  18.565  27.737   3.614 -0.1763  0.2382 -0.0544
 6465W        W49559  15.832  25.794   4.249 -0.1513 -0.0833 -0.2287
 6466W        W49560  17.068  27.741   3.522 -0.0584  0.1621  0.5196
 6467W        W49561  17.335  27.033   6.178 -0.0005  0.4167 -0.2615
 6468W        W49562  15.883  27.083   5.885 -0.3351  0.1371 -0.1864
 6469W        W49563  17.458  27.124   7.150 -0.0569  0.1791 -0.0137
 6470W        W49564  15.824  26.824   3.278  0.2052  0.0225 -0.0937
 6471W        W49565  18.928  26.035   2.331  0.2072  0.2465  0.0650
 6472W        W49566  16.340  29.027   5.542  0.3031 -0.0242  0.0497
 6473W        W49567  18.084  28.555  10.209  0.1441  0.0874 -0.4459
 6474W        W49568  16.303  27.874   5.915  0.2401 -0.0703  0.0245
 6475W        W49569  17.394  27.718   5.238  0.0328  0.0750 -0.2298
 6476W        W49570  14.614  23.531   4.448  0.3674 -0.3608  0.1082
 6477W        W49571  16.181  26.547   3.462  0.3539 -0.0987  0.0689
 6478W        W49572  17.349  27.930   4.355 -0.2440  0.0738  0.0908
 6479W        W49573  17.293  26.125   3.967 -0.2022  0.0873  0.1111
 6480W        W49574  15.252  26.315   4.641 -0.3340 -0.3131 -0.1804
 6481W        W49575  16.279  24.868   4.449  0.0594  0.3374  0.1424
 6482W        W49576  15.729  29.122   6.049 -0.3781 -0.3154 -0.0108
 6483W        W49577  16.267  27.754   4.919 -0.1175  0.1679 -0.2105
 6484W        W49578  15.883  26.042   9.534  0.2092 -0.3222 -0.0574
 6485W        W49579  15.918  26.422   7.868 -0.0990 -0.0312 -0.3007
 6486W        W49580  17.884  26.214   6.366 -0.0377  0.1849  0.1734
 6487W        W49581  17.928  26.547   8.483 -0.0838  0.1520 -0.1673
 6488W        W49582  15.919  25.525   7.781  0.0725  0.1511  0.0837
 6489W        W49583  16.995  27.707   8.139  0.1857  0.1074 -0.1179
 6490W        W49584  17.772  28.347  10.548 -0.3957  0.1826 -0.3043
 6491W        W49585  17.045  30.931   9.939  0.0248 -0.0198 -0.1600
 6492W        W49586  17.617  28.018   8.733 -0.0747 -0.0189 -0.0617
 6493W        W49587  15.962  23.436   9.062  0.3032  0.0984 -0.0347
 6494W        W49588  16.176  24.649   6.759 -0.0067  0.0620  0.2788
 6495W        W49589  14.711  26.604   8.712  0.1721 -0.1457 -0.0311
 6496W        W49590  17.444  27.217   9.099  0.4760 -0.0907 -0.2422
 6497W        W49591  15.445  26.339   8.068  0.0123 -0.1799  0.2033
 6498W        W49592  16.474  23.578   9.566 -0.0487 -0.0990  0.0820
 6499W        W49593  16.125  26.624   6.736 -0.0965 -0.4670  0.0002
 6500W        W49594  17.359  28.544   8.787 -0.2679 -0.0120 -0.1215
 6501W        W49595  16.943  26.078  10.050  0.1287  0.0193  0.0560
 6502W        W49596  16.273  27.685   8.659 -0.0498 -0.0475 -0.3228
 6503W        W49597  15.163  25.700   6.923 -0.5535 -0.6378 -0.0160
 6504W        W49598  15.087  26.527   7.807 -0.1917  0.2170 -0.2804
 6505W        W49599  15.645  24.645   9.034  0.1080  0.0961 -0.0311
 6506W        W49600  18.085  25.606   8.304 -0.4193  0.0877 -0.1758
 6507W        W49601  18.358  26.329   8.581  0.0298 -0.1473 -0.2664
 6508W        W49602  16.484  27.428   9.095 -0.2039 -0.1463  0.0500
 6509W        W49603  16.718  28.433   8.846 -0.1925 -0.1848 -0.1201
 6510W        W49604  15.059  27.829  10.022  0.3560  0.0539  0.2918
 6511W        W49605  15.549  28.358   7.971 -0.1252 -0.0251  0.1152
 6512W        W49606  15.260  28.964   8.292 -0.3717  0.0492 -0.3154
 6513W        W49607  18.459  28.011   8.345  0.0284 -0.0079  0.1739
 6514W        W49608  14.463  27.827   6.995  0.3253 -0.0297  0.2516
 6515W        W49609  17.468  26.175   9.805  0.1848 -0.0069 -0.1780
 6516W        W49610  17.364  27.539   8.606 -0.3304  0.1164 -0.1050
 6517W        W49611  16.119  28.944   8.055 -0.0541 -0.1362 -0.0393
 6518W        W49612  16.739  27.709   9.476 -0.0997  0.0944  0.1109
 6519W        W49613  15.642  25.469   8.284 -0.0804 -0.0165 -0.3310
 6520W        W49614  14.986  28.983   7.813  0.0860  0.1028  0.0081
 6521W        W49615  16.365  26.146   8.152 -0.2748 -0.1056  0.2621
 6522W        W49616  15.699  24.724   5.419  0.0100  0.0066  0.0979
 6523W        W49617  16.495  27.574   8.194  0.2229 -0.1035 -0.1114
 6524W        W49618  16.138  26.005   7.753  0.0778  0.0021  0.2533
 6525W        W49619  14.661  28.481   8.521  0.0071 -0.0497 -0.2623
 6526W        W49620  15.405  25.046   8.657 -0.0699 -0.1357  0.0395
 6527W        W49621  17.304  26.265   6.913  0.0208 -0.1136 -0.2208
 6528W        W49622  20.880  26.080  10.318 -0.1940 -0.0740  0.1812
 6529W        W49623  17.452  27.886   9.588  0.0703 -0.0459  0.0183
 6530W        W49624  16.952  26.433   9.486 -0.0237  0.3981  0.0361
 6531W        W49625  17.499  28.286   9.203  0.1659  0.0605  0.0603
 6532W        W49626  18.100  27.488  10.827 -0.5007 -0.0766 -0.2298
 6533W        W49627  16.494  27.387   7.284 -0.3134 -0.0710  0.1315
 6534W        W49628  16.405  27.088   8.079  0.0848  0.2766 -0.0125
 6535W        W49629  15.568  24.776   5.934  0.3079  0.2213 -0.2217
 6536W        W49630  17.958  27.586   7.364 -0.0305 -0.0843 -0.0169
 6537W        W49631  16.718  27.543  10.422 -0.0854 -0.3341 -0.1456
 6538W        W49632  16.984  28.082   9.779 -0.0297 -0.3104 -0.0477
 6539W        W49633  17.539  26.823   7.565  0.0188  0.1118  0.0681
 6540W        W49634  17.972  25.056   8.988 -0.1626 -0.1260 -0.2760
 6541W        W49635  19.039  25.086   8.423 -0.1736  0.1531  0.2471
 6542W        W49636  15.802  26.183   6.988  0.2013 -0.5122 -0.3074
 6543W        W49637  17.086  27.426   5.959  0.2816  0.1873 -0.0025
 6544W        W49638  18.146  27.442  10.327 -0.1411  0.1028  0.0040
 6545W        W49639  16.786  27.368   7.817 -0.0986  0.3369 -0.0513
 6546W        W49640  14.365  28.743   8.874 -0.2441 -0.1108 -0.1288
 6547W        W49641  14.189  27.583   5.917  0.0696  0.0404 -0.1885
 6548W        W49642  16.764  26.735   9.865  0.0918 -0.0958 -0.1070
 6549W        W49643  15.309  26.749   7.245  0.1338  0.0159  0.1545
 6550W        W49644  14.654  24.633   9.808 -0.0643 -0.0510 -0.1930
 6551W        W49645  15.297  25.547   8.751  0.2396  0.4164 -0.1573
 6552W        W49646  16.822  26.415   7.028 -0.1509  0.2502  0.2699
 6553W        W49647  18.828  25.448   7.321  0.0699 -0.0040  0.1786
 6554W        W49648  15.217  27.597   7.665  0.2721  0.3595  0.0187
 6555W        W49649  16.752  29.038   7.997 -0.0597 -0.0304  0.0028
 6556W        W49650  16.978  27.421   7.309 -0.1327 -0.0341  0.0980
 6557W        W49651  17.404  27.660   7.377  0.1423  0.0295 -0.2068
 6558W        W49652  13.704  26.785  10.205  0.1209 -0.0552  0.1809
 6559W        W49653  16.315  25.903   9.091  0.2700 -0.2655  0.0758
 6560W        W49654  14.958  24.988   9.589  0.0072 -0.2083 -0.1787
 6561W        W49655  14.993  24.560   8.054 -0.3584 -0.1252 -0.0952
 6562W        W49656  17.975  27.709   9.501 -0.2328  0.0963  0.3697
 6563W        W49657  15.141  26.384   8.552 -0.2136  0.2414  0.3183
 6564W        W49658  16.009  26.961   7.701 -0.3463  0.0330 -0.2524
 6565W        W49659  16.007  28.457   7.945  0.0053  0.3357 -0.1393
 6566W        W49660  18.758  28.399  11.191 -0.1155 -0.2114  0.0385
 6567W        W49661  18.537  30.028   9.621 -0.2604 -0.0935  0.1286
 6568W        W49662  14.914  24.579   9.357 -0.4515 -0.1446  0.2906
 6569W        W49663  14.850  25.303   8.670  0.0874  0.0455  0.0363
 6570W        W49664  15.331  27.393   8.340 -0.1275  0.1035  0.0497
 6571W        W49665  16.474  27.237  10.098 -0.0839 -0.0558  0.0382
 6572W        W49666  16.138  25.819   7.248 -0.0826 -0.1427 -0.1137
 6573W        W49667  17.716  27.865   8.255 -0.1279  0.2665 -0.0468
 6574W        W49668  16.814  27.183   8.334  0.1309 -0.2127 -0.2153
 6575W        W49669  18.452  26.737   9.987 -0.2383  0.4446 -0.0036
 6576W        W49670  17.860  27.469   8.472 -0.0788  0.0368 -0.2085
 6577W        W49671  14.997  26.136   8.158 -0.1555 -0.0612 -0.2492
 6578W        W49672  18.227  29.016   9.102  0.3604 -0.0704 -0.2418
 6579W        W49673  16.117  27.889   8.076 -0.0144  0.0912 -0.0981
 6580W        W49674  15.435  26.547   8.986 -0.3723 -0.0792 -0.0326
 6581W        W49675  16.260  26.532   9.840  0.1677  0.0410 -0.1746
 6582W        W49676  18.408  26.363   7.721  0.0644 -0.2175 -0.3418
 6583W        W49677  15.453  25.176   6.965 -0.1054 -0.2046  0.1388
 6584W        W49678  18.632  26.334   6.665  0.2931  0.2374  0.0825
 6585W        W49679  17.619  25.941   6.765  0.0815  0.1149 -0.4040
 6586W        W49680  18.443  27.622   9.293 -0.0842  0.0161 -0.1907
 6587W        W49681  16.300  26.162   6.866 -0.0712  0.0809  0.1244
 6588W        W49682  17.146  25.243   8.379  0.2900 -0.0901 -0.2979
 6589W        W49683  15.378  26.834   8.151  0.2007 -0.1368  0.3465
 6590W        W49684  16.567  28.092  10.422  0.0454 -0.1485  0.1001
 6591W        W49685  16.320  27.097   6.745  0.2971 -0.2803  0.2520
 6592W        W49686  18.551  28.671   9.131 -0.0157  0.0223 -0.0899
 6593W        W49687  17.875  27.181   9.377  0.1952 -0.0233 -0.3011
 6594W        W49688  16.247  27.013   9.702  0.1052 -0.3410  0.0719
 6595W        W49689  16.670  24.284   9.059  0.3287 -0.1672 -0.0087
 6596W        W49690  14.829  26.653   6.858  0.0352  0.0080  0.4430
 6597W        W49691  16.208  25.563   8.252  0.3399 -0.3127  0.1748
 6598W        W49692  13.367  26.796   7.747 -0.0689 -0.0792  0.2607
 6599W        W49693  16.545  24.721   8.814 -0.2089 -0.2795 -0.0193
 6600W        W49694  17.549  25.642   8.405 -0.0209  0.1372  0.0964
 6601W        W49695  17.426  28.524   7.937  0.0261  0.2410  0.1575
 6602W        W49696  17.063  28.821  10.226 -0.0572  0.1049 -0.2550
 6603W        W49697  14.873  27.005   5.357 -0.2508 -0.1640 -0.0385
 6604W        W49698  14.532  24.467   8.400  0.1013 -0.1704 -0.0244
 6605W        W49699  14.774  28.370  10.268  0.1141  0.2133  0.1607
 6606W        W49700  19.192  27.641   9.985 -0.0141  0.0881 -0.1764
 6607W        W49701  15.355  25.926   8.431 -0.2063 -0.1730 -0.0738
 6608W        W49702  15.882  26.888   8.162 -0.0959  0.0452 -0.0827
 6609W        W49703  16.347  28.228   6.815  0.2697 -0.0582  0.1425
 6610W        W49704  16.098  24.828  12.242 -0.2477  0.1148 -0.0246
 6611W        W49705  16.104  27.794   9.150 -0.5133 -0.2416  0.0964
 6612W        W49706  16.045  28.416   7.188  0.0638 -0.0475 -0.0587
 6613W        W49707  16.158  27.123   8.550  0.2423  0.5837 -0.2029
 6614W        W49708  14.642  28.104   7.546  0.6076 -0.0157  0.1185
 6615W        W49709  16.613  24.723   9.339  0.1703 -0.1075 -0.1195
 6616W        W49710  14.576  27.994  10.023 -0.1328  0.0610  0.3891
 6617W        W49711  14.850  26.635   7.372 -0.0921  0.1181  0.3051
 6618W        W49712  14.333  26.967   8.205  0.0345 -0.2439 -0.1202
 6619W        W49713  17.425  24.786   7.550  0.1960 -0.2967  0.2902
 6620W        W49714  17.887  27.246   7.688  0.0715  0.0192  0.1264
 6621W        W49715  16.925  25.942   9.450 -0.4101 -0.0665  0.1607
 6622W        W49716  14.963  24.165   9.677 -0.0923  0.1589  0.2210
 6623W        W49717  15.866  28.257   9.324 -0.0055  0.0073  0.0810
 6624W        W49718  17.069  26.870   5.799 -0.1462 -0.3396  0.1343
 6625W        W49719  14.742  25.881   7.147  0.1891 -0.2680 -0.5172
 6626W        W49720  17.752  26.059   8.569 -0.1105 -0.0149 -0.1796
 6627W        W49721  15.403  24.750   7.711 -0.1849 -0.0932 -0.3225
 6628W        W49722  14.402  26.025   9.828  0.0411 -0.0432 -0.0148
 6629W        W49723  17.974  26.943  10.360  0.2295  0.1537 -0.4125
 6630W        W49724  15.640  26.184   7.521  0.2222 -0.1912 -0.2558
 6631W        W49725  15.606  27.164   7.363 -0.1269  0.0471 -0.1801
 6632W        W49726  16.056  28.892  10.111  0.0259  0.0464 -0.1060
 6633W        W49727  16.487  25.672   9.797  0.0290 -0.3089 -0.1488
 6634W        W49728  15.740  25.084   8.003 -0.0253  0.2783 -0.1974
 6635W        W49729  16.808  26.381   8.108  0.1195  0.0677  0.1939
 6636W        W49730  17.092  27.596   9.138 -0.1285 -0.0148 -0.2316
 6637W        W49731  14.975  26.547  10.097 -0.1364 -0.0602  0.1306
 6638W        W49732  16.384  25.438   8.963  0.1379  0.1078  0.0812
 6639W        W49733  18.602  29.235   8.772  0.0782  0.0511  0.0462
 6640W        W49734  15.178  26.303   6.953  0.0558  0.2566 -0.1577
 6641W        W49735  15.431  26.284  10.073  0.3806 -0.3380 -0.0386
 6642W        W49736  14.816  26.638   8.222 -0.1708  0.0130  0.1823
 6643W        W49737  15.895  25.591   9.157 -0.0119  0.0259  0.0227
 6644W        W49738  16.494  26.727   9.366  0.0641 -0.1375 -0.4030
 6645W        W49739  13.952  28.046   7.027 -0.0174  0.0801  0.4390
 6646W        W49740  14.676  29.147   9.047  0.3680 -0.0784 -0.2876
 6647W        W49741  17.484  26.409   8.272  0.1146  0.1677 -0.4277
 6648W        W49742  16.627  26.906   7.115 -0.0265 -0.0150 -0.1781
 6649W        W49743  16.831  27.608   8.596  0.1016  0.0843 -0.3506
 6650W        W49744  17.279  27.292   7.687  0.0069 -0.0447  0.3011
 6651W        W49745  15.842  25.735   8.676 -0.3123  0.3822 -0.1044
 6652W        W49746  16.845  28.740  10.674 -0.2491 -0.0680 -0.1719
 6653W        W49747  16.828  25.898   7.774  0.2319 -0.4023  0.1770
 6654W        W49748  15.320  24.775   7.237 -0.3865  0.0619  0.0180
 6655W        W49749  16.413  25.140   8.521  0.3333 -0.0480  0.2021
 6656W        W49750  19.196  26.944   9.997  0.1481 -0.0182  0.0271
 6657W        W49751  16.046  27.398   7.970  0.3883  0.1582 -0.1900
 6658W        W49752  19.113  26.302   9.282  0.1261 -0.1381  0.5153
 6659W        W49753  17.547  24.897   9.248 -0.0709 -0.1222 -0.0496
 6660W        W49754  17.888  27.021   8.660 -0.1033  0.4549  0.1999
 6661W        W49755  16.695  27.191   9.659 -0.1647 -0.1167  0.1301
 6662W        W49756  15.774  26.615   9.968  0.0848  0.2543 -0.1382
 6663W        W49757  18.429  27.417   8.480 -0.1878  0.1068 -0.2117
 6664W        W49758  17.978  26.333   9.347 -0.1629  0.1174  0.3777
 6665W        W49759  15.996  29.394  10.243 -0.0874 -0.4672  0.3184
 6666W        W49760  17.972  26.344   6.875  0.2273  0.2080  0.1922
 6667W        W49761  15.805  24.003   7.747  0.1348  0.1354 -0.1266
 6668W        W49762  18.130  26.836   7.715  0.4776 -0.2748 -0.2815
 6669W        W49763  17.022  26.895   7.532 -0.0861 -0.1975 -0.1620
 6670W        W49764  15.334  26.018   8.951 -0.1509 -0.0560 -0.1049
 6671W        W49765  15.898  25.643   6.369  0.0496  0.0576 -0.2355
 6672W        W49766  16.356  27.896   7.229 -0.0325 -0.3386  0.0694
 6673W        W49767  17.456  29.032   9.028 -0.0144  0.1771  0.1257
 6674W        W49768  16.386  26.610   7.875  0.1256 -0.0330  0.2892
 6675W        W49769  15.803  26.589   7.281 -0.2146 -0.2686  0.3000
 6676W        W49770  15.360  25.603   6.322 -0.1155 -0.1520  0.4384
 6677W        W49771  15.526  26.583   6.615  0.1562  0.4884 -0.0720
 6678W        W49772  16.985  29.230   9.163 -0.0581 -0.0063  0.0240
 6679W        W49773  16.461  25.659   7.589 -0.0727  0.1923 -0.2701
 6680W        W49774  16.169  28.920   7.116 -0.0086 -0.0246 -0.0035
 6681W        W49775  18.314  25.592   7.337 -0.1644  0.0192  0.0755
 6682W        W49776  17.204  28.396  10.449  0.0106 -0.3142  0.2190
 6683W        W49777  15.648  27.017   9.157 -0.2200 -0.0726 -0.0529
 6684W        W49778  13.821  23.751   9.900  0.0414  0.1834 -0.2702
 6685W        W49779  15.828  26.131   9.015 -0.0896  0.0775 -0.0538
 6686W        W49780  16.578  26.876   8.674  0.0197  0.0470  0.0552
 6687W        W49781  14.312  25.038   9.956 -0.1105  0.0860  0.0534
 6688W        W49782  18.193  26.773   9.558  0.0847  0.0438  0.2287
 6689W        W49783  17.112  24.692   8.784  0.0116  0.2977 -0.1789
 6690W        W49784  17.420  27.868   7.874  0.1344 -0.0155 -0.1541
 6691W        W49785  15.923  25.328   7.137  0.0277 -0.1942  0.0967
 6692W        W49786  14.792  27.505   6.898  0.0359  0.0815  0.3196
 6693W        W49787  15.324  25.550   9.215  0.2424  0.0132 -0.1096
 6694W        W49788  15.520  28.298   7.228  0.2631  0.2244 -0.2178
 6695W        W49789  16.799  28.080   8.489 -0.2019  0.0851 -0.0585
 6696W        W49790  17.282  27.950   6.734 -0.0412  0.1327 -0.1254
 6697W        W49791  20.136  28.891  10.477  0.0757  0.1069 -0.2003
 6698W        W49792  15.593  26.080   6.168 -0.1060  0.1084 -0.1656
 6699W        W49793  15.807  27.976   8.760 -0.0870 -0.1185  0.0569
 6700W        W49794  15.151  27.842   8.131 -0.0515  0.0799 -0.1078
 6701W        W49795  17.019  29.691   8.037  0.2342 -0.1331 -0.2633
 6702W        W49796  15.299  27.304   9.422 -0.0070 -0.1112  0.2104
 6703W        W49797  17.525  27.140   5.703 -0.0018  0.0045 -0.0745
 6704W        W49798  19.184  26.342   8.807  0.0727  0.1360 -0.0788
 6705W        W49799  17.309  27.034   8.093  0.1275 -0.0739  0.1910
 6706W        W49800  16.620  26.342   8.572  0.1922  0.2264 -0.3117
 6707W        W49801  17.028  24.215   7.333  0.0821 -0.0590 -0.1016
 6708W        W49802  18.327  30.173   8.013  0.0288 -0.0113 -0.0282
 6709W        W49803  14.533  24.955   6.820 -0.1289  0.1683 -0.0784
 6710W        W49804  16.973  27.208   8.843 -0.1525  0.1190 -0.0106
 6711W        W49805  17.830  24.586   8.922 -0.0931  0.1296  0.0219
 6712W        W49806  16.408  27.693   7.718  0.2951 -0.0778  0.0004
 6713W        W49807  16.602  25.675   8.622 -0.1217  0.2288  0.2764
 6714W        W49808  16.535  27.793   9.957 -0.4009 -0.0513 -0.0133
 6715W        W49809  16.512  28.427   9.289 -0.0614  0.0744  0.0440
 6716W        W49810  16.076  28.033  10.108  0.1980 -0.0225 -0.3967
 6717W        W49811  13.653  24.080   8.244  0.1863  0.0503 -0.2641
 6718W        W49812  19.248  27.229   8.646  0.2080 -0.1739  0.4721
 6719W        W49813  14.829  23.648   9.882  0.0627 -0.2594 -0.0364
 6720W        W49814  15.619  26.340   8.539  0.2656  0.1816 -0.3942
 6721W        W49815  17.433  25.583   7.128 -0.3520  0.1049  0.1070
 6722W        W49816  15.658  25.195   9.104  0.2383 -0.0315 -0.2775
 6723W        W49817  13.401  26.248  10.189 -0.1051 -0.0408 -0.0624
 6724W        W49818  16.112  25.083   7.615  0.1805  0.5754 -0.1088
 6725W        W49819  17.012  26.967   9.344 -0.1755  0.2347  0.0045
 6726W        W49820  15.579  25.141   7.521  0.2221  0.1469 -0.1335
 6727W        W49821  16.306  26.575   7.388  0.5027 -0.0605  0.0362
 6728W        W49822  15.991  26.625   9.371 -0.0456  0.0450 -0.3013
 6729W        W49823  19.106  25.345   9.837 -0.2698 -0.2989  0.1626
 6730W        W49824  14.630  24.120   9.261  0.0652  0.1616 -0.1938
 6731W        W49825  18.827  28.341   7.336 -0.1205  0.4338  0.2908
 6732W        W49826  15.994  26.603   8.746 -0.1774 -0.4470 -0.1368
 6733W        W49827  15.839  28.778   6.778 -0.0072 -0.3296 -0.2896
 6734W        W49828  17.403  26.513  10.207 -0.2833  0.0778  0.1583
 6735W        W49829  18.002  28.084   9.144  0.0841 -0.1994 -0.2338
 6736W        W49830  15.092  28.098   9.541  0.0905 -0.1227  0.3338
 6737W        W49831  19.936  29.457   9.108  0.0989  0.0144  0.1229
 6738W        W49832  19.291  25.897   9.151 -0.3893  0.1688  0.0709
 6739W        W49833  17.087  24.905   7.935 -0.0846  0.0233  0.0878
 6740W        W49834  14.110  26.848   8.846 -0.2430 -0.0457  0.0940
 6741W        W49835  15.601  28.968   7.899 -0.1963 -0.2695 -0.1089
 6742W        W49836  17.156  25.523   9.244 -0.3325  0.0335 -0.2477
 6743W        W49837  16.974  28.637   7.753  0.2278  0.2115  0.2231
 6744W        W49838  17.133  25.657   8.749  0.2231 -0.0962 -0.0992
 6745W        W49839  14.454  25.832   7.531  0.1396 -0.0948 -0.0209
 6746W        W49840  17.129  28.045   8.804 -0.1518 -0.2578  0.0683
 6747W        W49841  16.581  28.592   8.035 -0.0137  0.1401 -0.1448
 6748W        W49842  18.838  27.225   9.701  0.0887  0.0054 -0.0774
 6749W        W49843  17.222  26.596   7.886 -0.0076 -0.1890 -0.2731
 6750W        W49844  19.121  27.550   8.281  0.0878 -0.3028  0.1273
 6751W        W49845  15.896  24.272   8.504  0.0852 -0.1967  0.0794
 6752W        W49846  19.431  26.759   9.474 -0.0480 -0.2981 -0.2122
 6753W        W49847  17.091  25.805   6.626  0.0806 -0.2698 -0.0248
 6754W        W49848  15.057  25.083  10.061 -0.0166 -0.6447 -0.1909
 6755W        W49849  13.579  23.689   6.957  0.4153 -0.1042  0.0630
 6756W        W49850  14.687  29.250   6.854  0.2116 -0.0842 -0.2045
 6757W        W49851  15.615  27.043   8.586  0.1398  0.2522  0.0308
 6758W        W49852  15.262  28.266  10.005  0.0218 -0.1013  0.0838
 6759W        W49853  14.886  23.885   8.823 -0.1318  0.1956 -0.0857
 6760W        W49854  17.033  28.948   8.776 -0.1316  0.0184 -0.2682
 6761W        W49855  15.491  24.687   8.276 -0.0257 -0.0271 -0.0834
 6762W        W49856  14.968  23.607   8.234 -0.0472  0.3538  0.0893
 6763W        W49857  17.666  27.714   9.133  0.1106 -0.1254  0.1421
 6764W        W49858  18.996  29.080  10.532  0.0758 -0.1642  0.2651
 6765W        W49859  16.194  26.057   8.611  0.3871 -0.1277  0.0903
 6766W        W49860  14.618  27.304   7.383 -0.1087 -0.1019  0.1932
 6767W        W49861  14.294  24.757   7.336 -0.2373 -0.2329 -0.2344
 6768W        W49862  16.783  26.023   8.973 -0.2651  0.2976  0.1383
 6769W        W49863  16.290  30.887   7.800 -0.2678 -0.0429 -0.0884
 6770W        W49864  15.603  27.229   7.870  0.3044  0.1609 -0.1136
 6771W        W49865  13.668  23.109  10.006  0.0060 -0.1312 -0.2380
 6772W        W49866  17.985  28.874   8.256 -0.1012 -0.2347 -0.0253
 6773W        W49867  18.946  28.100   8.214  0.1993  0.2332  0.0054
 6774W        W49868  18.827  26.598   8.469  0.0282  0.0333  0.0032
 6775W        W49869  15.837  27.466   6.938  0.0204  0.3987 -0.3743
 6776W        W49870  18.133  27.385   8.925 -0.1499  0.2664 -0.2486
 6777W        W49871  16.887  25.252   8.796  0.0425 -0.0072 -0.1489
 6778W        W49872  16.183  26.967   9.062  0.1282 -0.0925 -0.1817
 6779W        W49873  15.656  26.952   6.914 -0.1401  0.0481 -0.0804
 6780W        W49874  14.519  25.306   8.277 -0.0829 -0.0038 -0.0518
 6781W        W49875  15.866  25.970   8.186  0.2234 -0.1056  0.2913
 6782W        W49876  16.320  28.285   8.358  0.0435 -0.0927  0.0535
 6783W        W49877  16.292  26.650   8.356 -0.1346  0.2792 -0.1575
 6784W        W49878  19.560  27.546   7.222 -0.1196 -0.0081  0.0171
 6785W        W49879  16.948  28.728   9.240  0.0713 -0.1004 -0.3682
 6786W        W49880  16.071  27.551   9.898 -0.0891 -0.0492 -0.3056
 6787W        W49881  17.909  26.754   9.049  0.5891 -0.0097 -0.1482
 6788W        W49882  14.992  25.573   8.253  0.0574  0.3194 -0.1578
 6789W        W49883  15.067  27.396   6.370  0.1922 -0.2327 -0.1817
 6790W        W49884  17.673  27.536  10.003 -0.1422 -0.1882  0.1270
 6791W        W49885  16.975  26.689   8.948 -0.0613  0.1696  0.1921
 6792W        W49886  15.408  23.740   9.187  0.1919 -0.1762  0.1168
 6793W        W49887  16.762  26.497   7.583  0.0343  0.1644  0.2189
 6794W        W49888  15.488  29.892   9.475  0.2411  0.3048 -0.0958
 6795W        W49889  16.985  28.206   9.266 -0.2252  0.0868  0.2112
 6796W        W49890  16.988  31.317   3.112 -0.2293 -0.2757  0.2168
 6797W        W49891  15.216  31.734   0.103  0.0224  0.2398  0.2843
 6798W        W49892  18.466  30.441  31.501 -0.0213 -0.0732 -0.0379
 6799W        W49893  17.317  30.940   0.987 -0.0370  0.0256 -0.0527
 6800W        W49894  13.986  31.055   0.619  0.0143 -0.0841 -0.3079
 6801W        W49895  17.787  32.329   2.356  0.0763  0.3709  0.0966
 6802W        W49896  14.409  28.474   0.952 -0.1749 -0.1836 -0.3018
 6803W        W49897  17.363  32.204   2.782 -0.0962  0.0634  0.1979
 6804W        W49898  18.884  33.180   3.130 -0.0927 -0.1386 -0.2162
 6805W        W49899  17.170  31.195   0.439  0.0503 -0.2333 -0.1913
 6806W        W49900  15.760  29.779   2.994 -0.1678  0.2192 -0.2498
 6807W        W49901  15.469  32.329   1.333 -0.0799 -0.0576  0.1706
 6808W        W49902  14.878  29.955   1.229  0.1228  0.0225  0.0447
 6809W        W49903  14.876  28.475   1.717  0.1986 -0.0822 -0.3070
 6810W        W49904  17.255  30.923   2.711 -0.1481  0.3477  0.0306
 6811W        W49905  14.833  31.923   0.875  0.3096  0.2135  0.1067
 6812W        W49906  15.296  28.934   2.541  0.0378  0.0415  0.0282
 6813W        W49907  15.406  29.947   1.307  0.1312 -0.0848 -0.2229
 6814W        W49908  17.178  33.466   1.420 -0.0931 -0.1566 -0.2630
 6815W        W49909  18.242  29.487   2.288 -0.1548  0.0411  0.1787
 6816W        W49910  16.807  29.723   3.322 -0.0477 -0.0547  0.1479
 6817W        W49911  17.245  31.908   1.589  0.0232 -0.1064  0.1776
 6818W        W49912  14.391  31.345   0.486  0.1033 -0.3850  0.2268
 6819W        W49913  15.217  29.819   2.844 -0.0815  0.0668 -0.0423
 6820W        W49914  12.905  29.844   2.226 -0.0297  0.0735  0.3095
 6821W        W49915  19.374  30.627   2.109 -0.2829  0.3290  0.2221
 6822W        W49916  17.608  30.895   2.327 -0.3393 -0.1182 -0.1722
 6823W        W49917  15.061  32.655   1.991 -0.3593 -0.0729  0.0817
 6824W        W49918  15.547  32.820   2.238  0.1297 -0.1969  0.0758
 6825W        W49919  18.237  29.825   2.853 -0.3176 -0.1739  0.2855
 6826W        W49920  15.940  30.830   0.648  0.3643 -0.2166  0.2369
 6827W        W49921  14.524  32.706   0.082  0.0989  0.1302  0.2155
 6828W        W49922  15.771  32.006  31.326  0.0344 -0.0019 -0.1467
 6829W        W49923  18.429  31.680   1.935  0.0522  0.0099  0.1924
 6830W        W49924  17.054  33.167   4.074  0.0331 -0.2656  0.1115
 6831W        W49925  14.573  32.457   3.983  0.1611  0.1354 -0.1772
 6832W        W49926  14.871  31.959  30.973  0.1602 -0.3478  0.2904
 6833W        W49927  15.473  31.988   3.288 -0.1399 -0.0408  0.0690
 6834W        W49928  15.401  30.917   2.715 -0.2582 -0.4551  0.2866
 6835W        W49929  17.426  29.709   1.805 -0.0316 -0.1254  0.1436
 6836W        W49930  17.228  30.882   1.990 -0.1687  0.2061 -0.0124
 6837W        W49931  16.587  32.776   0.540 -0.2036  0.0378 -0.1629
 6838W        W49932  16.520  31.577   2.794  0.1450 -0.1019  0.1206
 6839W        W49933  16.428  31.945   3.155 -0.1379 -0.0266  0.0055
 6840W        W49934  14.958  31.365   1.554  0.1409  0.0036  0.1172
 6841W        W49935  17.494  29.905   5.123  0.0299  0.1900 -0.0589
 6842W        W49936  17.107  31.700   0.581  0.0164 -0.0357  0.0348
 6843W        W49937  16.477  30.518   1.502  0.1579 -0.1970  0.2034
 6844W        W49938  16.187  31.178   0.334  0.1607 -0.0605  0.0762
 6845W        W49939  16.428  28.834   0.932  0.1368  0.3591 -0.0657
 6846W        W49940  15.885  29.799  31.088  0.2499 -0.2358 -0.1844
 6847W        W49941  16.331  31.860   1.423  0.0687 -0.1133 -0.1390
 6848W        W49942  15.649  28.916   2.094 -0.1452  0.0783 -0.1600
 6849W        W49943  17.621  31.817   2.487  0.0134 -0.0758 -0.1096
 6850W        W49944  16.752  29.125   1.859 -0.0960 -0.1322 -0.0207
 6851W        W49945  16.699  31.726   0.967 -0.3533  0.2747 -0.1984
 6852W        W49946  14.470  30.320   2.684 -0.2601  0.1345 -0.0407
 6853W        W49947  15.419  30.914   0.783 -0.1025 -0.2018  0.1353
 6854W        W49948  15.512  32.035   1.817  0.0123  0.2543  0.3587
 6855W        W49949  18.660  31.596   3.380  0.0496 -0.3038 -0.0972
 6856W        W49950  17.766  32.473   0.390 -0.1527 -0.1146  0.0993
 6857W        W49951  14.385  29.954   1.184 -0.1930  0.0677 -0.0512
 6858W        W49952  16.732  30.645   3.186  0.1874  0.2798 -0.1274
 6859W        W49953  14.884  30.586   1.920 -0.1226 -0.0766 -0.1287
 6860W        W49954  14.427  29.362  31.412 -0.0099  0.0352  0.1677
 6861W        W49955  18.774  32.085   3.295  0.0587 -0.1100  0.2541
 6862W        W49956  15.108  31.001   3.298 -0.3505 -0.1395 -0.0378
 6863W        W49957  18.363  31.757   0.675 -0.1528 -0.0031  0.1634
 6864W        W49958  17.015  30.192   3.022 -0.0971 -0.2485 -0.1028
 6865W        W49959  18.004  30.018   3.232  0.1905  0.5217  0.2721
 6866W        W49960  18.952  31.476   2.411  0.0983  0.2776 -0.0341
 6867W        W49961  16.887  29.122   2.416  0.2533 -0.2348 -0.0909
 6868W        W49962  16.757  28.964   3.983  0.0231 -0.1535  0.0476
 6869W        W49963  16.451  30.805   0.053  0.0144 -0.0421  0.2075
 6870W        W49964  15.466  30.413   0.020  0.0271  0.0158 -0.1204
 6871W        W49965  18.049  31.866   2.139  0.2240 -0.1427 -0.1870
 6872W        W49966  16.779  30.618   1.933  0.0900  0.0955  0.2356
 6873W        W49967  14.860  32.851   3.072 -0.1075  0.1743 -0.1721
 6874W        W49968  16.570  30.167   3.355  0.1722 -0.0943 -0.2219
 6875W        W49969  16.741  30.506   3.738 -0.1107 -0.2070 -0.1453
 6876W        W49970  14.761  31.785   1.347 -0.1745 -0.0779  0.0517
 6877W        W49971  14.312  32.509   2.779 -0.2879 -0.2895 -0.2196
 6878W        W49972  14.170  32.562  30.871  0.0746  0.1653 -0.1579
 6879W        W49973  14.960  29.400   2.455 -0.3387  0.1195 -0.0205
 6880W        W49974  16.273  30.971   1.389  0.0304  0.2426  0.0104
 6881W        W49975  17.585  30.520   1.940 -0.1872  0.0865 -0.3476
 6882W        W49976  14.683  29.641   2.762  0.3527  0.0416 -0.3229
 6883W        W49977  18.658  29.400   2.066  0.2583  0.0751 -0.3133
 6884W        W49978  14.700  31.113   1.952  0.2764  0.1295  0.2147
 6885W        W49979  17.660  32.734   2.082  0.3888 -0.2369  0.1541
 6886W        W49980  19.305  29.872   1.297  0.0333  0.1888  0.0235
 6887W        W49981  16.691  32.636   1.049 -0.0619  0.2436  0.0192
 6888W        W49982  14.309  30.564   0.815  0.2246  0.3068  0.1489
 6889W        W49983  14.579  30.417   1.197 -0.2847 -0.0870 -0.0880
 6890W        W49984  14.472  28.701   1.848  0.1789 -0.0602 -0.4018
 6891W        W49985  15.028  31.556  31.660  0.0647  0.0545  0.0467
 6892W        W49986  19.469  29.731   3.603 -0.2251 -0.2251 -0.2189
 6893W        W49987  13.847  28.990   0.433 -0.0758 -0.0747 -0.1171
 6894W        W49988  16.917  31.497   2.118  0.0525 -0.5556  0.0204
 6895W        W49989  14.715  30.852   1.487 -0.0540  0.0260 -0.2134
 6896W        W49990  14.479  30.238   2.112 -0.2572 -0.0293  0.0787
 6897W        W49991  18.048  29.521   1.261 -0.3575 -0.0955 -0.0358
 6898W        W49992  15.325  33.242   0.831 -0.0842 -0.0429 -0.0905
 6899W        W49993  20.040  32.332   2.419  0.0970 -0.0735 -0.2594
 6900W        W49994  15.672  31.728   2.806 -0.0851 -0.0900  0.1502
 6901W        W49995  14.779  30.049   3.098 -0.0482  0.0911  0.1046
 6902W        W49996  16.300  30.687   0.948 -0.3754  0.1507  0.0889
 6903W        W49997  14.889  31.692   0.446  0.3425 -0.1749 -0.0678
 6904W        W49998  16.977  31.309   2.609  0.0337 -0.0702  0.0955
 6905W        W49999  15.719  29.519   1.941  0.1787  0.0491  0.2028
 6906W        W50000  19.280  32.490   1.560  0.2035 -0.1017  0.3426
 6907W        W50001  16.109  31.482   1.215  0.1264 -0.3825  0.1501
 6908W        W50002  13.724  30.939   2.346  0.1071 -0.1256 -0.2503
 6909W        W50003  17.515  29.738   2.286 -0.2666 -0.1225  0.0994
 6910W        W50004  17.097  32.714   3.711  0.3099  0.1450  0.1203
 6911W        W50005  16.659  31.306   1.314  0.3229  0.0155  0.1922
 6912W        W50006  15.266  27.943   0.047  0.0498  0.3128 -0.0055
 6913W        W50007  16.831  32.580   1.558  0.1091 -0.1221  0.1762
 6914W        W50008  16.245  33.243   0.662  0.4179  0.0206 -0.1723
 6915W        W50009  13.718  30.276  30.462  0.1070  0.1520 -0.0290
 6916W        W50010  16.329  32.363   1.300 -0.2589  0.0130 -0.2732
 6917W        W50011  17.280  30.445   1.081  0.2836 -0.0458  0.0595
 6918W        W50012  13.985  31.019   3.009 -0.0425  0.0205  0.1749
 6919W        W50013  16.249  29.615   4.116 -0.0925  0.0332 -0.2543
 6920W        W50014  15.258  31.392   0.616 -0.0704  0.0330 -0.0382
 6921W        W50015  14.909  31.076   2.484  0.1059  0.0271  0.0975
 6922W        W50016  15.810  30.955   1.134  0.0917 -0.0853 -0.2398
 6923W        W50017  17.203  29.551   0.917 -0.1408 -0.1678  0.0479
 6924W        W50018  17.474  29.988   3.310 -0.0936  0.1585  0.0376
 6925W        W50019  17.383  31.901   0.091  0.0180 -0.2545 -0.0751
 6926W        W50020  17.999  30.237   0.930  0.1242 -0.0131 -0.0066
 6927W        W50021  15.657  29.168   1.584 -0.2309  0.0365 -0.0472
 6928W        W50022  15.687  31.218   2.416 -0.1189  0.1276  0.2351
 6929W        W50023  16.228  31.029   1.934 -0.0175  0.2788 -0.2508
 6930W        W50024  16.527  30.578   2.352  0.0639 -0.1508 -0.1008
 6931W        W50025  17.507  30.414   0.140  0.3174  0.1413 -0.0103
 6932W        W50026  18.648  31.325   1.502 -0.1212  0.0199 -0.0202
 6933W        W50027  15.502  30.696   3.296  0.1405  0.1325  0.0681
 6934W        W50028  17.945  31.104   3.875 -0.0441 -0.2640 -0.0487
 6935W        W50029  17.582  31.815   1.949  0.2944 -0.0298  0.2451
 6936W        W50030  16.725  29.464   3.883  0.3262 -0.0889  0.0208
 6937W        W50031  16.410  30.018   1.355 -0.2957  0.3079 -0.1472
 6938W        W50032  16.273  30.452   1.935 -0.0780 -0.4762 -0.0449
 6939W        W50033  15.012  32.752   0.446  0.0760  0.0714  0.0789
 6940W        W50034  17.542  29.409   1.444  0.3697  0.1360  0.0875
 6941W        W50035  17.262  29.454   2.674  0.1769  0.0595  0.0218
 6942W        W50036  16.037  29.395   2.823 -0.1235  0.0465  0.0474
 6943W        W50037  18.288  29.701   3.583 -0.1625  0.0217 -0.2977
 6944W        W50038  17.894  30.367   1.482  0.3361 -0.0366 -0.1515
 6945W        W50039  17.711  30.829   2.835  0.4090  0.1084  0.1973
 6946W        W50040  13.756  31.112  31.829 -0.0812 -0.1027 -0.2330
 6947W        W50041  17.100  30.004   4.711  0.2082 -0.0737 -0.1831
 6948W        W50042  15.289  30.054   1.771  0.0810 -0.3999 -0.2265
 6949W        W50043  14.084  31.396   2.545  0.0705  0.1460  0.0466
 6950W        W50044  17.379  30.424   2.808  0.2677 -0.0093  0.4561
 6951W        W50045  17.226  31.393   1.738  0.1020  0.2049  0.0899
 6952W        W50046  18.327  30.654   4.689 -0.2443 -0.1579  0.2743
 6953W        W50047  17.614  29.906   0.308  0.0526  0.0844 -0.1702
 6954W        W50048  15.574  32.589   1.751  0.5609 -0.0995  0.3600
 6955W        W50049  15.397  31.231   1.167 -0.1481 -0.3836 -0.0910
 6956W        W50050  16.528  28.178   2.247 -0.0224  0.0484 -0.1614
 6957W        W50051  16.378  31.766   1.959  0.1861 -0.0765 -0.2362
 6958W        W50052  13.237  31.218  31.906 -0.0677  0.0056 -0.1500
 6959W        W50053  17.393  31.418   2.270  0.1770  0.0616  0.1006
 6960W        W50054  14.637  33.084   2.200  0.0439 -0.1785 -0.0120
 6961W        W50055  17.876  29.169   2.305 -0.0153 -0.2129  0.0480
 6962W        W50056  16.992  33.059   1.773 -0.0422 -0.1127  0.1694
 6963W        W50057  15.625  30.533   0.470 -0.1025  0.0105 -0.1350
 6964W        W50058  15.247  29.024   1.375 -0.2886  0.1129 -0.0737
 6965W        W50059  16.688  30.118   2.492 -0.2295 -0.1657  0.0806
 6966W        W50060  18.010  31.201   0.333 -0.2552  0.2403  0.1911
 6967W        W50061  15.701  29.811   2.450  0.0446  0.0683  0.1542
 6968W        W50062  16.097  29.078   1.757  0.1201  0.2990  0.0890
 6969W        W50063  13.495  31.154   1.160 -0.1779  0.0644 -0.0965
 6970W        W50064  18.267  31.341   3.504 -0.2607  0.1070 -0.4510
 6971W        W50065  15.967  28.952  31.088 -0.0913 -0.3667  0.1194
 6972W        W50066  17.658  31.105   1.836 -0.0463 -0.0415  0.1860
 6973W        W50067  17.027  30.938   4.384 -0.0002  0.1187  0.0844
 6974W        W50068  13.853  30.771   1.026 -0.0527  0.1813  0.1134
 6975W        W50069  18.510  28.832   3.640 -0.3419 -0.0878 -0.3417
 6976W        W50070  16.559  30.037   1.949  0.3237  0.0566  0.3711
 6977W        W50071  13.809  32.621   0.758  0.3908 -0.1843  0.1353
 6978W        W50072  17.835  33.298   3.361  0.1482  0.1678 -0.3856
 6979W        W50073  15.770  30.128   1.617 -0.1990 -0.0106 -0.0260
 6980W        W50074  15.865  32.200   0.719 -0.0266  0.2099  0.3432
 6981W        W50075  16.374  29.724   3.650  0.0391  0.1566  0.2461
 6982W        W50076  17.231  31.568   3.490  0.0815 -0.1576 -0.2516
 6983W        W50077  15.325  30.148   2.349  0.2531  0.0921 -0.0253
 6984W        W50078  15.997  29.465   1.507 -0.0453 -0.1674 -0.1474
 6985W        W50079  16.877  29.688   2.223  0.0658 -0.1210 -0.0697
 6986W        W50080  17.331  31.644   2.889 -0.1043 -0.3000  0.0783
 6987W        W50081  16.890  30.578   2.760  0.0154  0.2196  0.2083
 6988W        W50082  15.053  30.780   3.711 -0.0245 -0.0400 -0.3560
 6989W        W50083  16.736  29.208   3.433 -0.3565 -0.0420  0.0227
 6990W        W50084  17.035  33.534   1.918  0.1702 -0.3247 -0.1699
 6991W        W50085  18.742  31.023   3.512 -0.3373 -0.0171 -0.0940
 6992W        W50086  14.452  31.934   0.593  0.0093  0.1716 -0.1683
 6993W        W50087  13.701  31.189   1.636  0.1826  0.1245 -0.2890
 6994W        W50088  16.522  31.989   0.433 -0.3659 -0.4436 -0.1590
 6995W        W50089  16.160  30.003   2.330 -0.0712  0.1384 -0.0439
 6996W        W50090  14.972  32.222   1.305  0.0286  0.2069  0.0264
 6997W        W50091  16.146  31.666   0.246 -0.2010  0.1278 -0.1164
 6998W        W50092  13.037  30.555   2.843  0.0859  0.0347 -0.0548
 6999W        W50093  17.895  29.627   1.883 -0.0408  0.0161 -0.0684
 7000W        W50094  16.933  31.610   0.010 -0.0988  0.1335 -0.0021
 7001W        W50095  16.794  31.085   1.786 -0.2034  0.0098 -0.2603
 7002W        W50096  18.326  29.961   4.179 -0.1692  0.2008 -0.0417
 7003W        W50097  17.131  30.669   0.607 -0.0343 -0.0208  0.1964
 7004W        W50098  16.952  30.181   4.294  0.1231  0.1387 -0.3183
 7005W        W50099  16.127  29.860   1.782 -0.2143  0.0478  0.1148
 7006W        W50100  17.410  32.828   0.427 -0.0622 -0.0015  0.1240
 7007W        W50101  13.085  30.320   2.393  0.1872 -0.3746  0.2123
 7008W        W50102  17.462  32.400   3.660  0.2523  0.2345  0.0981
 7009W        W50103  14.779  30.085   1.709 -0.0553 -0.2344  0.0017
 7010W        W50104  18.538  30.159   0.842  0.1425  0.1263  0.2691
 7011W        W50105  15.633  29.284   1.113 -0.2365  0.2527 -0.0624
 7012W        W50106  15.797  30.189   2.088  0.1170 -0.1407  0.0083
 7013W        W50107  17.525  30.714   1.468  0.2393  0.0397  0.2829
 7014W        W50108  16.928  32.593   0.168 -0.0511  0.1100  0.0712
 7015W        W50109  17.960  30.299   2.804 -0.1313 -0.1243 -0.2495
 7016W        W50110  15.950  32.282   1.669 -0.1282 -0.0548  0.0352
 7017W        W50111  17.807  30.108   1.893 -0.2151  0.0573  0.1732
 7018W        W50112  16.811  31.689   1.650  0.0769  0.0911 -0.1132
 7019W        W50113  14.590  32.620   1.369  0.1137  0.1744 -0.0487
 7020W        W50114  15.931  28.896   3.517  0.1517 -0.1993  0.1175
 7021W        W50115  17.339  31.961   0.944 -0.2103  0.5086 -0.3234
 7022W        W50116  17.769  29.890   1.393  0.0593 -0.1780 -0.1831
 7023W        W50117  17.569  29.941   2.777 -0.1915 -0.1156  0.3327
 7024W        W50118  17.773  31.574   3.467 -0.0771 -0.0191 -0.2075
 7025W        W50119  15.813  30.200   2.749  0.4154 -0.1358 -0.4176
 7026W        W50120  14.056  30.299   3.547  0.0023  0.0957 -0.4266
 7027W        W50121  16.956  32.080   3.469 -0.2107 -0.1081  0.1159
 7028W        W50122  18.303  29.499  31.643  0.4636 -0.1262  0.0674
 7029W        W50123  17.643  29.046   3.480 -0.0291 -0.1720  0.2375
 7030W        W50124  18.476  29.231   1.497  0.1974 -0.0650 -0.0279
 7031W        W50125  16.881  30.202   1.514  0.2408 -0.1860 -0.1483
 7032W        W50126  15.540  29.345   2.496  0.2396 -0.0650  0.1852
 7033W        W50127  18.657  30.502   3.467  0.1057  0.1329  0.0384
 7034W        W50128  15.866  30.258  30.773 -0.4415 -0.1605 -0.0532
 7035W        W50129  16.309  29.998   2.928  0.0278  0.2413  0.0350
 7036W        W50130  15.769  30.930   2.011  0.0431  0.2087 -0.1275
 7037W        W50131  17.287  32.894   1.389 -0.0282 -0.0141 -0.0585
 7038W        W50132  17.221  29.858   1.328  0.0831  0.0965 -0.0377
 7039W        W50133  14.505  31.078   0.900  0.2416 -0.2089 -0.1082
 7040W        W50134  15.807  32.240   3.584 -0.0172 -0.0016  0.2040
 7041W        W50135  14.148  30.311  30.194  0.0347  0.3338 -0.2564
 7042W        W50136  15.111  30.442   1.514  0.0893  0.0717  0.1269
 7043W        W50137  16.173  30.891   2.470 -0.1928  0.1811 -0.2035
 7044W        W50138  18.117  30.772   2.539  0.0492  0.2206 -0.2115
 7045W        W50139  16.902  29.718   1.743  0.1704 -0.2668  0.3448
 7046W        W50140  18.374  29.022   3.155 -0.0158 -0.1171  0.0036
 7047W        W50141  14.425  32.189  31.965 -0.1803 -0.0190  0.0328
 7048W        W50142  17.404  30.237   1.585  0.1183  0.0023  0.1742
 7049W        W50143  15.840  33.016   1.652  0.1568  0.1158  0.1207
 7050W        W50144  14.593  31.464   2.336  0.0230 -0.1479  0.4117
 7051W        W50145  15.346  30.912   1.515 -0.0639  0.1625 -0.2439
 7052W        W50146  16.314  30.438   5.044  0.2702 -0.3521 -0.0868
 7053W        W50147  18.031  30.445   2.178 -0.5759  0.3627  0.0862
 7054W        W50148  17.279  30.117   2.054  0.1840 -0.0877 -0.3038
 7055W        W50149  18.676  29.997   3.760 -0.1009  0.0670 -0.0672
 7056W        W50150  19.578  31.550   3.428 -0.0322 -0.1921 -0.2932
 7057W        W50151  14.863  29.969   2.304 -0.1566  0.1432  0.0082
 7058W        W50152  18.016  31.302   3.073 -0.0872  0.0457 -0.1398
 7059W        W50153  18.016  31.887   1.614  0.0727 -0.1836 -0.2123
 7060W        W50154  15.462  33.560   2.542 -0.0717 -0.0560  0.1050
 7061W        W50155  13.593  30.338   2.412 -0.0831  0.3060  0.0901
 7062W        W50156  16.220  30.864   3.641 -0.0358 -0.1617 -0.1002
 7063W        W50157  17.171  30.341   3.462 -0.2120  0.1184 -0.1833
 7064W        W50158  15.491  29.686   0.709 -0.0376 -0.1918  0.3275
 7065W        W50159  17.361  32.412   0.016 -0.1433  0.0976  0.0413
 7066W        W50160  15.232  32.150   5.771 -0.0454  0.1291  0.1714
 7067W        W50161  15.846  31.994   1.195  0.0711 -0.0116 -0.3792
 7068W        W50162  14.063  32.946   0.267 -0.0373 -0.1437 -0.0619
 7069W        W50163  17.734  31.322   2.662  0.2132 -0.1210  0.0559
 7070W        W50164  17.901  31.749   1.127  0.1431  0.4954 -0.0624
 7071W        W50165  15.840  33.151   2.546  0.0702  0.1127 -0.0194
 7072W        W50166  16.821  28.253   0.632 -0.2135  0.1672 -0.0440
 7073W        W50167  16.219  31.615   0.725 -0.0989 -0.1340  0.3438
 7074W        W50168  14.067  32.875  31.359 -0.2715  0.3258 -0.3659
 7075W        W50169  18.276  32.743   0.715  0.3208  0.2125  0.2480
 7076W        W50170  16.595  33.340   2.091  0.2894 -0.4517 -0.0868
 7077W        W50171  19.559  32.122   3.307  0.1131  0.0102 -0.0147
 7078W        W50172  18.795  28.993   1.002 -0.3669 -0.2434 -0.0015
 7079W        W50173  18.577  30.739   2.660 -0.0251  0.2361 -0.2060
 7080W        W50174  18.370  30.321  31.971  0.1475  0.2331  0.0273
 7081W        W50175  16.941  30.030   3.786 -0.4451  0.0050 -0.0364
 7082W        W50176  15.279  30.325   2.809 -0.0120  0.2696 -0.2225
 7083W        W50177  15.625  30.179   0.842  0.0654  0.0965  0.0051
 7084W        W50178  14.715  30.731   2.949 -0.0679 -0.0890 -0.5568
 7085W        W50179  18.700  29.101   4.950 -0.6490  0.1329 -0.2341
 7086W        W50180  14.788  32.130   3.656  0.1933  0.0612  0.0127
 7087W        W50181  17.340  32.176   0.493  0.2555 -0.0670  0.0142
 7088W        W50182  13.791  31.430   0.266  0.0625  0.1639 -0.0629
 7089W        W50183  14.140  30.834   3.474 -0.1105  0.3403 -0.1093
 7090W        W50184  16.401  28.895   3.180 -0.1552  0.1642  0.0278
 7091W        W50185  14.842  31.137   0.546  0.0267 -0.1328  0.0461
 7092W        W50186  17.208  30.531   2.333 -0.0630 -0.0101  0.0775
 7093W        W50187  17.622  34.086   1.222 -0.0899  0.0832 -0.1818
 7094W        W50188  15.972  31.446   2.067 -0.0900  0.3310 -0.1794
 7095W        W50189  16.055  32.626   1.967 -0.0866  0.2962 -0.0194
 7096W        W50190  14.745  28.788   0.682  0.0631  0.2997  0.1625
 7097W        W50191  18.448  29.690   1.704 -0.1996 -0.0608  0.0444
 7098W        W50192  15.084  30.002   3.492 -0.0678 -0.1007 -0.1733
 7099W        W50193  18.570  28.562   0.826 -0.0332  0.0285  0.0414
 7100W        W50194  16.016  30.275   1.145  0.2321 -0.1725 -0.1633
 7101W        W50195  17.796  30.666   1.035  0.0376 -0.3284 -0.1520
 7102W        W50196  16.963  31.123   3.570  0.1504 -0.1198  0.0338
 7103W        W50197  14.260  30.266   1.583  0.1963 -0.1453  0.4335
 7104W        W50198  16.634  30.912   0.515  0.0453  0.2063  0.2027
 7105W        W50199  18.359  30.823   3.725  0.0152 -0.0200  0.1574
 7106W        W50200  19.023  29.487   0.364 -0.0615  0.1082  0.0348
 7107W        W50201  19.037  30.314   3.961  0.0295  0.1881  0.1976
 7108W        W50202  14.973  30.953   1.105 -0.0225  0.1014 -0.0306
 7109W        W50203  16.696  30.286   1.050 -0.1595  0.1636  0.1001
 7110W        W50204  14.271  30.806   0.313 -0.1554 -0.0421 -0.1050
 7111W        W50205  16.455  31.317   2.275 -0.1514 -0.0036 -0.0214
 7112W        W50206  19.387  32.388   3.867  0.0126  0.0067 -0.3747
 7113W        W50207  13.461  28.912   0.858  0.1002 -0.2425 -0.1537
 7114W        W50208  18.266  32.206   0.550  0.0158 -0.3427  0.2869
 7115W        W50209  16.898  29.750   2.814 -0.0676  0.1016  0.1489
 7116W        W50210  16.667  32.921  31.776 -0.3166  0.0248 -0.1050
 7117W        W50211  16.816  32.018   2.052 -0.3004 -0.1564 -0.1079
 7118W        W50212  16.102  32.645   2.978 -0.1666  0.5189  0.1567
 7119W        W50213  13.908  30.796   1.904  0.1218 -0.2687  0.2023
 7120W        W50214  18.091  31.988   2.610  0.1794 -0.1239  0.0791
 7121W        W50215  19.576  31.225   2.894 -0.2319 -0.0307 -0.0450
 7122W        W50216  17.221  29.032   1.663  0.0834  0.0345  0.1092
 7123W        W50217  15.289  29.712   2.171  0.1958 -0.0505  0.0535
 7124W        W50218  15.015  32.814   1.013 -0.0145 -0.0379  0.1082
 7125W        W50219  19.062  29.531   2.722 -0.0078 -0.4549 -0.1606
 7126W        W50220  17.499  29.754   3.943  0.3626  0.0013  0.1090
 7127W        W50221  14.835  31.969  31.853  0.1568 -0.3922  0.0157
 7128W        W50222  18.134  29.169   3.638 -0.0900 -0.1576  0.1264
 7129W        W50223  17.516  33.438   4.176  0.2710  0.3153  0.4513
 7130W        W50224  15.052  32.057   2.300  0.1426 -0.2292  0.0558
 7131W        W50225  13.491  30.796  31.572 -0.0677  0.1605  0.1615
 7132W        W50226  14.597  30.682   2.354  0.2369  0.1670  0.2418
 7133W        W50227  16.338  32.420   0.748 -0.0428 -0.2231 -0.0388
 7134W        W50228  16.474  32.856   2.108  0.2446  0.0709  0.2181
 7135W        W50229  17.842  31.765   3.026  0.0481  0.2053  0.0371
 7136W        W50230  15.394  30.567   1.947  0.0842  0.3104  0.1367
 7137W        W50231  18.228  32.305   2.166  0.2367 -0.2112  0.2548
 7138W        W50232  17.187  30.071   2.521  0.0298 -0.0223  0.2604
 7139W        W50233  17.584  28.449   2.493  0.0518 -0.1333  0.0686
 7140W        W50234  17.865  27.708  31.224  0.1638 -0.0946 -0.1308
 7141W        W50235  15.124  30.655   2.340 -0.1601 -0.0889 -0.0953
 7142W        W50236  15.116  30.246  31.672 -0.0570  0.1865 -0.1712
 7143W        W50237  15.158  31.261   0.098 -0.2637  0.0193  0.2815
 7144W        W50238  15.176  31.049   2.015 -0.0366 -0.0764 -0.0987
 7145W        W50239  16.113  28.822   4.008 -0.0228 -0.0197  0.0156
 7146W        W50240  13.807  30.559   3.238  0.3716 -0.0557 -0.3584
 7147W        W50241  15.072  31.802   1.765  0.2317 -0.0670 -0.0145
 7148W        W50242  14.642  29.636   0.887 -0.2477 -0.1458 -0.2172
 7149W        W50243  18.456  31.148   1.954  0.0664  0.2531 -0.0723
 7150W        W50244  16.001  29.285   2.291  0.2428 -0.0030  0.0320
 7151W        W50245  14.093  29.771   1.939  0.3993 -0.0364  0.1437
 7152W        W50246  17.052  31.804   2.552  0.0340 -0.1688  0.0158
 7153W        W50247  18.831  30.992   2.314  0.0433 -0.2663  0.1588
 7154W        W50248  15.895  30.649   1.595 -0.1616  0.1053  0.2468
 7155W        W50249  16.542  32.232   3.722 -0.0005  0.0625  0.0457
 7156W        W50250  14.292  32.119  30.655 -0.1537  0.4362  0.1873
 7157W        W50251  15.474  29.896   3.805  0.2503  0.0130  0.1459
 7158W        W50252  17.562  31.396   4.543 -0.2479 -0.1081 -0.4030
 7159W        W50253  13.291  29.208  31.077 -0.0488  0.1885  0.0493
 7160W        W50254  16.286  29.232   3.737  0.0190  0.2476  0.1905
 7161W        W50255  17.209  32.403   1.187 -0.0807 -0.1414 -0.2328
 7162W        W50256  16.054  33.614   1.625 -0.1352  0.0376 -0.0164
 7163W        W50257  16.820  30.971   2.309  0.1142  0.2296 -0.0271
 7164W        W50258  15.074  31.506   2.227  0.0601 -0.0382 -0.3210
 7165W        W50259  13.747  30.274   1.860 -0.2344  0.3084  0.1073
 7166W        W50260  16.858  32.170   0.795 -0.3473 -0.0080 -0.0832
 7167W        W50261  16.467  31.076   3.316 -0.1752 -0.1024 -0.0421
 7168W        W50262  18.400  29.967  31.575 -0.1067 -0.2605 -0.3828
 7169W        W50263  18.516  28.513   3.233 -0.2538  0.0253 -0.0447
 7170W        W50264  17.470  31.475   0.867  0.2325 -0.1420  0.2475
 7171W        W50265  13.683  29.188   2.249  0.2883 -0.1400  0.1028
 7172W        W50266  15.753  30.345   3.696 -0.3352  0.2751 -0.0750
 7173W        W50267  17.879  32.851   2.471  0.0812  0.1333 -0.1925
 7174W        W50268  15.253  30.177   0.545 -0.0679 -0.0170 -0.0961
 7175W        W50269  18.653  29.349   0.638 -0.0103 -0.1230 -0.1735
 7176W        W50270  17.623  32.114   1.366 -0.0758 -0.1922 -0.1424
 7177W        W50271  15.709  30.578   2.397 -0.2242  0.1365  0.0261
 7178W        W50272  16.801  30.763   1.082  0.0889 -0.2436  0.0208
 7179W        W50273  17.194  31.352   1.256 -0.0178  0.0668 -0.4247
 7180W        W50274  17.989  33.319   2.807 -0.4836 -0.2206 -0.1389
 7181W        W50275  18.323  30.832   3.154  0.1523  0.2906  0.0150
 7182W        W50276  15.975  30.892   3.140  0.4313  0.0025  0.2587
 7183W        W50277  18.079  29.854   0.004 -0.0524 -0.2768 -0.3192
 7184W        W50278  17.874  32.131   3.821 -0.0448  0.0899 -0.0461
 7185W        W50279  17.714  33.645   3.679 -0.2406  0.1072  0.3313
 7186W        W50280  16.387  32.351   2.310  0.1041  0.0488  0.3668
 7187W        W50281  18.345  29.675   0.906  0.2596 -0.1846  0.2123
 7188W        W50282  15.230  29.196   2.078 -0.1481  0.3802  0.1021
 7189W        W50283  15.305  31.747   1.001  0.0502 -0.1561 -0.1481
 7190W        W50284  15.755  31.453   0.878  0.1319 -0.0446 -0.2332
 7191W        W50285  17.993  30.005   2.395 -0.0749 -0.0458  0.1409
 7192W        W50286  16.514  29.539   1.991  0.2176 -0.1458 -0.0138
 7193W        W50287  16.583  29.024  30.404 -0.1074 -0.0473  0.0749
 7194W        W50288  15.545  31.745   2.264 -0.5438  0.4567 -0.3003
 7195W        W50289  16.523  31.088   2.775 -0.3850 -0.0625  0.0469
 7196W        W50290  15.955  30.537   6.891 -0.1872  0.4975 -0.0071
 7197W        W50291  15.066  30.460   5.488 -0.0513 -0.2147  0.1617
 7198W        W50292  17.762  29.618   3.541 -0.1806 -0.1367 -0.0997
 7199W        W50293  18.416  31.246   4.646 -0.1149 -0.1452  0.0734
 7200W        W50294  14.882  29.180   5.346 -0.0994 -0.0796  0.0782
 7201W        W50295  17.696  32.537   5.801 -0.2598 -0.3454  0.2517
 7202W        W50296  14.502  28.794   6.655  0.1415 -0.1977  0.0565
 7203W        W50297  17.779  31.845   6.319 -0.0968  0.0378 -0.2752
 7204W        W50298  18.460  31.979   6.962  0.1099 -0.0084 -0.1281
 7205W        W50299  17.010  30.534   4.655 -0.1758 -0.4622  0.0046
 7206W        W50300  16.723  30.060   6.294  0.0018 -0.1544 -0.1674
 7207W        W50301  16.489  32.044   6.669  0.0131  0.2673 -0.0257
 7208W        W50302  15.386  29.190   4.440 -0.1033 -0.0327 -0.0822
 7209W        W50303  15.022  28.497   4.755 -0.2489 -0.1999 -0.4180
 7210W        W50304  18.844  30.906   4.586  0.2306  0.3839  0.2699
 7211W        W50305  15.941  29.915   3.485 -0.1685  0.0917  0.0018
 7212W        W50306  15.115  30.342   7.577 -0.1068  0.0886 -0.1276
 7213W        W50307  15.657  29.686   4.472  0.0995 -0.3025  0.0419
 7214W        W50308  15.614  31.953   6.021 -0.2125  0.1160 -0.5213
 7215W        W50309  16.539  29.031   6.308 -0.1776  0.2993 -0.0595
 7216W        W50310  17.309  29.337   5.848  0.0725 -0.2279  0.1397
 7217W        W50311  15.579  31.234   3.649 -0.1489 -0.2338  0.0044
 7218W        W50312  13.522  30.132   3.444  0.0650  0.0298  0.1108
 7219W        W50313  15.179  28.131   5.509  0.3364 -0.2231  0.1031
 7220W        W50314  15.065  30.560   6.489 -0.0888 -0.2286 -0.0942
 7221W        W50315  18.173  30.150   4.590  0.1867 -0.1320 -0.0140
 7222W        W50316  17.844  31.205   5.944 -0.2323  0.0005  0.2326
 7223W        W50317  16.132  31.773   6.403  0.2386  0.2283 -0.0749
 7224W        W50318  16.361  31.585   7.080  0.1414 -0.0064 -0.0877
 7225W        W50319  17.200  30.068   8.845 -0.3093  0.2963  0.1081
 7226W        W50320  15.082  30.947   4.683 -0.0439 -0.1456 -0.1424
 7227W        W50321  15.387  32.382   4.634  0.1852  0.1702  0.2546
 7228W        W50322  16.080  31.272   5.184  0.2332  0.0023 -0.3179
 7229W        W50323  17.964  31.705   5.428 -0.2353 -0.0518  0.1117
 7230W        W50324  17.894  31.483   6.994  0.3500 -0.1464  0.0269
 7231W        W50325  17.173  31.512   8.505  0.1441  0.0407 -0.0560
 7232W        W50326  14.261  31.382   4.981  0.0381 -0.1264 -0.3028
 7233W        W50327  17.715  30.711   8.097  0.1684  0.0406 -0.1993
 7234W        W50328  15.460  31.782   7.044  0.0764  0.2254 -0.4213
 7235W        W50329  15.643  30.056   5.993 -0.1402  0.1094  0.0477
 7236W        W50330  15.245  31.193   5.744 -0.0745 -0.0094  0.0078
 7237W        W50331  17.763  31.885   4.222  0.3517 -0.0339  0.0492
 7238W        W50332  15.706  30.948   6.587 -0.1585  0.0314  0.3073
 7239W        W50333  15.638  30.900   8.598  0.0152  0.0065 -0.0146
 7240W        W50334  14.059  30.397   5.548 -0.1227 -0.2088  0.0056
 7241W        W50335  18.166  28.278   6.070  0.2149 -0.0121  0.0526
 7242W        W50336  17.220  30.802   3.202 -0.2687  0.2175  0.1544
 7243W        W50337  18.853  31.978   4.175  0.1912  0.0894 -0.0241
 7244W        W50338  16.369  29.590   4.628  0.1519 -0.0439  0.2708
 7245W        W50339  18.478  29.477   4.011 -0.1637 -0.1867 -0.2646
 7246W        W50340  14.867  29.421   4.378 -0.3583 -0.1787 -0.0088
 7247W        W50341  15.200  31.641   5.883 -0.1346 -0.0701 -0.3169
 7248W        W50342  14.764  29.670   5.264  0.0469 -0.2333  0.0284
 7249W        W50343  17.773  30.695   5.724 -0.0524 -0.0507  0.2393
 7250W        W50344  16.318  28.685   6.678  0.2516  0.2128 -0.3350
 7251W        W50345  16.206  29.943   6.211 -0.0135 -0.1617  0.1057
 7252W        W50346  16.389  31.234   7.441  0.3213  0.2663  0.0790
 7253W        W50347  14.681  30.604   4.159  0.3416  0.2366 -0.0075
 7254W        W50348  17.905  32.343   3.362  0.2591 -0.0037 -0.1048
 7255W        W50349  18.469  31.758   4.958  0.0733  0.0332 -0.1500
 7256W        W50350  16.639  31.074   3.963  0.0261 -0.2093  0.1829
 7257W        W50351  14.510  30.547   3.650 -0.0224  0.0171 -0.2073
 7258W        W50352  14.664  30.454   7.302  0.0294  0.1449 -0.3036
 7259W        W50353  15.855  29.654   7.431 -0.2444  0.1100 -0.0495
 7260W        W50354  15.259  29.272   2.963 -0.3714 -0.2030  0.0695
 7261W        W50355  18.224  30.957   6.942  0.4887  0.3713  0.0550
 7262W        W50356  15.583  30.541   7.271 -0.0690  0.1007 -0.1582
 7263W        W50357  17.467  30.484   4.349 -0.0047  0.0837  0.1098
 7264W        W50358  15.939  31.725   5.301 -0.2698  0.0783  0.3867
 7265W        W50359  17.486  31.589   5.342  0.0320  0.1275  0.1510
 7266W        W50360  17.548  31.232   3.108  0.0059  0.0234  0.0095
 7267W        W50361  18.142  28.322   5.359 -0.0067  0.2084 -0.2797
 7268W        W50362  16.548  29.589   5.682 -0.0990 -0.1856  0.2448
 7269W        W50363  14.083  30.570   2.336 -0.2398  0.0344 -0.0533
 7270W        W50364  15.138  30.881   5.180 -0.2194 -0.1277  0.1676
 7271W        W50365  18.186  30.863   6.054 -0.0574 -0.1190  0.1113
 7272W        W50366  17.663  30.481   3.251  0.1441 -0.1489 -0.3384
 7273W        W50367  14.918  32.012   6.215 -0.0557  0.1112 -0.0505
 7274W        W50368  15.544  29.137   6.569 -0.1670  0.2415 -0.1133
 7275W        W50369  17.261  31.486   7.425 -0.0230  0.1383 -0.2160
 7276W        W50370  15.003  31.329   3.712 -0.1323  0.2877 -0.2108
 7277W        W50371  14.625  29.265   6.335  0.1812 -0.2453  0.0050
 7278W        W50372  15.960  30.390   3.240  0.1445 -0.0790 -0.3779
 7279W        W50373  14.791  28.846   6.193  0.0863 -0.1769  0.1208
 7280W        W50374  14.776  31.223   5.931 -0.1588 -0.0456 -0.3835
 7281W        W50375  15.896  28.706   6.266 -0.0916 -0.0378  0.0393
 7282W        W50376  15.927  29.927   6.604  0.0427 -0.0313 -0.0510
 7283W        W50377  16.557  29.547   6.217  0.0948  0.1881 -0.0081
 7284W        W50378  15.027  30.526   3.275 -0.0210  0.2285  0.3639
 7285W        W50379  18.293  32.430   5.378 -0.2231  0.1895 -0.1685
 7286W        W50380  18.355  30.720   5.572 -0.3414  0.0100 -0.1415
 7287W        W50381  16.846  32.408   3.053  0.0764  0.1484  0.1794
 7288W        W50382  14.125  30.601   7.548 -0.0469  0.1004  0.0902
 7289W        W50383  15.429  29.684   3.333  0.0290 -0.5766  0.1547
 7290W        W50384  16.016  29.090   7.555 -0.1181  0.0195 -0.1752
 7291W        W50385  14.184  30.330   4.957 -0.0808 -0.1128 -0.2552
 7292W        W50386  17.308  29.069   8.075 -0.1165 -0.0809 -0.0487
 7293W        W50387  15.733  29.259   3.181  0.0695  0.2376 -0.2432
 7294W        W50388  16.536  30.096   5.382 -0.0896 -0.0550 -0.2780
 7295W        W50389  14.941  30.247   5.985  0.0465  0.1389  0.1261
 7296W        W50390  14.316  31.554   2.958 -0.3071  0.0128 -0.3708
 7297W        W50391  17.496  29.052   7.115 -0.0825  0.2721 -0.0490
 7298W        W50392  17.638  32.313   4.865  0.0589  0.1948 -0.1353
 7299W        W50393  18.988  31.876   5.192 -0.1292  0.0148 -0.1961
 7300W        W50394  18.501  32.227   4.612  0.0035 -0.2918  0.3177
 7301W        W50395  16.396  29.521   7.256 -0.0014 -0.2268 -0.0174
 7302W        W50396  13.965  29.922   3.227 -0.1523 -0.0938 -0.3281
 7303W        W50397  14.830  31.964   5.300  0.0907  0.0418 -0.2877
 7304W        W50398  16.105  30.952   7.101 -0.0371  0.0265  0.1646
 7305W        W50399  14.802  28.303   2.911  0.2118  0.2076 -0.1227
 7306W        W50400  18.589  32.732   3.896 -0.1701  0.0203 -0.1624
 7307W        W50401  15.577  30.217   4.246  0.0040 -0.0414 -0.1364
 7308W        W50402  15.301  31.396   6.741  0.1246 -0.0585  0.1395
 7309W        W50403  17.815  28.583   7.173  0.0235  0.1807 -0.0623
 7310W        W50404  17.153  29.771   7.193 -0.2450 -0.2561 -0.2642
 7311W        W50405  17.188  31.221   6.011 -0.0893 -0.1796 -0.2936
 7312W        W50406  14.595  29.020   2.244  0.0379  0.1566  0.0762
 7313W        W50407  17.206  31.751   4.856  0.0535  0.0021 -0.1924
 7314W        W50408  13.815  31.545   4.249 -0.0408 -0.1766 -0.1043
 7315W        W50409  15.278  29.789   6.173  0.1712  0.0724  0.1784
 7316W        W50410  15.375  31.706   5.235 -0.1267 -0.0436 -0.0499
 7317W        W50411  18.447  31.537   5.400  0.0798  0.3041  0.1798
 7318W        W50412  15.383  30.431   8.228 -0.2223 -0.2223  0.0428
 7319W        W50413  17.271  30.858   6.473 -0.2651 -0.1916 -0.2853
 7320W        W50414  15.760  28.870   2.597  0.0417 -0.2522  0.0327
 7321W        W50415  16.323  31.573   8.686  0.2214 -0.4381  0.0599
 7322W        W50416  17.709  29.091   4.923 -0.0470  0.3220 -0.0472
 7323W        W50417  16.884  29.240   4.421  0.1868 -0.4145  0.1970
 7324W        W50418  17.182  30.510   5.543 -0.1435 -0.0646  0.0217
 7325W        W50419  17.875  30.906   3.379 -0.0321  0.0300  0.0924
 7326W        W50420  15.879  30.492   4.729 -0.1213 -0.1033 -0.1229
 7327W        W50421  16.726  29.709   4.365  0.0426  0.0524  0.2084
 7328W        W50422  16.443  30.942   5.921  0.1504  0.2127 -0.0047
 7329W        W50423  16.741  31.990   4.889  0.0260  0.0668 -0.1228
 7330W        W50424  15.658  31.578   5.681 -0.0219  0.0916  0.0253
 7331W        W50425  16.167  30.915   4.860 -0.0347  0.1989  0.1381
 7332W        W50426  17.464  31.893   3.787  0.0451 -0.1003 -0.0593
 7333W        W50427  13.501  30.260   7.458 -0.1070  0.0909 -0.1334
 7334W        W50428  17.023  31.063   7.324 -0.1800  0.3828  0.1085
 7335W        W50429  18.026  31.360   4.306  0.2163  0.1006 -0.0848
 7336W        W50430  17.323  29.450   6.739 -0.0390  0.1339  0.0911
 7337W        W50431  15.995  30.463   4.169  0.4232 -0.0125 -0.2343
 7338W        W50432  15.627  28.636   5.825  0.0505 -0.3278  0.0286
 7339W        W50433  15.235  31.881   3.740 -0.2151  0.3450 -0.0992
 7340W        W50434  17.533  29.142   6.338  0.1344 -0.0771  0.2517
 7341W        W50435  17.961  30.061   5.023 -0.0980 -0.3973 -0.2100
 7342W        W50436  17.103  28.879   6.120 -0.0485 -0.1228  0.1424
 7343W        W50437  17.137  28.707   7.247  0.1334  0.2466  0.0376
 7344W        W50438  17.604  31.481   4.022  0.1641 -0.1809 -0.0854
 7345W        W50439  16.544  29.091   7.499  0.0927  0.0074  0.0504
 7346W        W50440  14.466  31.083   2.708 -0.0188 -0.3205  0.0791
 7347W        W50441  16.804  29.544   7.646  0.5278  0.0933 -0.1313
 7348W        W50442  15.265  31.171   6.268 -0.1634 -0.1284  0.1003
 7349W        W50443  14.800  31.679   6.918  0.0380  0.2698  0.2413
 7350W        W50444  16.984  29.794   6.628  0.1667 -0.2736  0.2439
 7351W        W50445  16.621  31.210   5.108 -0.0036  0.2328  0.4009
 7352W        W50446  16.911  29.363   6.985  0.1464  0.0749 -0.1840
 7353W        W50447  15.805  28.494   4.754 -0.1571  0.1389 -0.0821
 7354W        W50448  15.694  32.003   4.921  0.2311  0.1317 -0.3360
 7355W        W50449  16.110  31.460   3.279  0.0805 -0.1838 -0.3106
 7356W        W50450  16.163  27.900   6.452 -0.2924 -0.2838 -0.0576
 7357W        W50451  15.605  30.909   6.015 -0.0491  0.1817  0.3864
 7358W        W50452  15.760  32.739   3.575 -0.0442 -0.2571 -0.1589
 7359W        W50453  17.636  31.619   5.789 -0.3329 -0.0900  0.1101
 7360W        W50454  15.737  31.737   3.615  0.1104 -0.0768  0.3049
 7361W        W50455  18.396  29.911   5.852  0.2327 -0.0643 -0.0897
 7362W        W50456  15.320  31.025   4.085 -0.1703 -0.2998  0.0628
 7363W        W50457  15.539  30.199   3.175 -0.0012 -0.1783 -0.1050
 7364W        W50458  15.448  30.483   5.095 -0.0974  0.1447  0.1500
 7365W        W50459  16.404  29.534   5.213  0.1614 -0.2314 -0.0142
 7366W        W50460  17.134  31.357   4.029  0.1203 -0.1726 -0.2666
 7367W        W50461  15.055  29.478   6.605  0.0948 -0.2832 -0.5871
 7368W        W50462  15.947  29.604   5.452 -0.0245  0.0471  0.3672
 7369W        W50463  14.867  31.522   6.415 -0.2197 -0.2307  0.1299
 7370W        W50464  17.001  29.759   6.034 -0.1065 -0.2440 -0.1168
 7371W        W50465  16.816  29.191   5.339  0.1322 -0.1425 -0.3175
 7372W        W50466  17.455  31.976   7.454  0.3204  0.0869  0.1249
 7373W        W50467  15.968  30.957   5.658  0.0169  0.1352  0.0582
 7374W        W50468  13.635  30.621   3.765  0.3647 -0.2331 -0.0328
 7375W        W50469  18.463  28.657   6.228  0.0320 -0.0943  0.2466
 7376W        W50470  15.631  29.310   5.172 -0.1210  0.0851  0.1199
 7377W        W50471  14.106  32.221   5.339  0.0051  0.0902 -0.1776
 7378W        W50472  15.615  32.876   7.035 -0.0709 -0.0641  0.0776
 7379W        W50473  14.336  29.885   2.430  0.2800  0.2688 -0.0162
 7380W        W50474  15.626  31.252   2.982 -0.1516  0.1967  0.1053
 7381W        W50475  16.568  30.733   7.353 -0.0279 -0.0571 -0.1551
 7382W        W50476  17.492  31.384   6.438  0.0241  0.1790  0.0747
 7383W        W50477  16.473  29.183   6.823  0.0755  0.0635 -0.0800
 7384W        W50478  15.830  28.732   5.207  0.0435  0.4503  0.1701
 7385W        W50479  15.705  30.028   4.889 -0.0566  0.0450 -0.0027
 7386W        W50480  17.006  31.839   5.316  0.0337  0.1055 -0.0105
 7387W        W50481  16.173  30.796   6.389 -0.2332 -0.1594  0.0559
 7388W        W50482  15.315  31.013   7.601  0.3169  0.2217  0.4121
 7389W        W50483  16.986  28.396   6.441 -0.1598 -0.0279  0.0994
 7390W        W50484  19.408  34.027   3.820  0.2680 -0.0785 -0.1003
 7391W        W50485  17.412  30.942   7.651  0.0294 -0.0385 -0.1471
 7392W        W50486  16.208  30.980   4.172  0.0578 -0.0781  0.0574
 7393W        W50487  14.948  30.016   6.520 -0.0151  0.2838  0.0566
 7394W        W50488  16.810  31.657   4.528  0.4965  0.0687  0.4876
 7395W        W50489  15.144  29.244   6.193  0.0815 -0.1518  0.0827
 7396W        W50490  16.266  31.427   7.879  0.2403  0.2891 -0.3971
 7397W        W50491  16.134  31.369   3.780 -0.2269  0.1633  0.0371
 7398W        W50492  14.757  31.802   5.754  0.1817  0.1011 -0.0977
 7399W        W50493  17.485  28.835   5.768 -0.0280 -0.0026 -0.0993
 7400W        W50494  17.824  30.079   3.665 -0.2560 -0.0014  0.2074
 7401W        W50495  15.846  29.095   5.536  0.1874  0.0875  0.4523
 7402W        W50496  19.007  29.770   8.447  0.3456 -0.1809 -0.1795
 7403W        W50497  17.549  31.160   5.072 -0.2062  0.3346 -0.1287
 7404W        W50498  17.604  29.512   7.174  0.3339  0.1716  0.2932
 7405W        W50499  15.237  29.270   7.035 -0.0735  0.0741  0.1314
 7406W        W50500  17.866  31.216   5.463 -0.0814  0.3013  0.2180
 7407W        W50501  14.694  29.505   7.258  0.2539  0.0171  0.1008
 7408W        W50502  17.520  32.654   8.298  0.3311 -0.0590  0.4614
 7409W        W50503  15.627  31.524   6.249 -0.1445 -0.0081  0.0878
 7410W        W50504  15.357  28.690   5.454  0.1392  0.0003  0.0447
 7411W        W50505  15.958  29.988   4.000 -0.1467 -0.0821  0.1514
 7412W        W50506  15.334  29.072   5.798 -0.2041 -0.1406  0.0113
 7413W        W50507  17.691  30.664   6.267  0.0201  0.1395  0.0279
 7414W        W50508  17.120  30.838   5.115  0.0153  0.1151  0.2441
 7415W        W50509  17.844  30.506   4.714  0.0370  0.1022  0.0584
 7416W        W50510  14.405  30.724   5.981  0.3302 -0.1051  0.0092
 7417W        W50511  15.883  30.493   5.857  0.2359 -0.2087 -0.3774
 7418W        W50512  15.534  30.998   4.886  0.1391  0.0787  0.2701
 7419W        W50513  14.979  30.261   3.903 -0.0478  0.2014 -0.2030
 7420W        W50514  15.119  29.816   6.995 -0.1014 -0.3669  0.1560
 7421W        W50515  16.822  30.656   6.318 -0.0018  0.3088 -0.1118
 7422W        W50516  16.588  30.092   5.867  0.1826  0.2181 -0.2631
 7423W        W50517  17.932  29.295   8.762 -0.1011 -0.3336  0.1464
 7424W        W50518  17.191  30.292   6.362  0.1379 -0.1096 -0.0818
 7425W        W50519  14.668  31.144   5.218  0.1248 -0.0364 -0.1544
 7426W        W50520  14.428  29.895   8.002 -0.0521 -0.1215  0.3162
 7427W        W50521  18.887  31.515   6.335  0.1357 -0.1874  0.1873
 7428W        W50522  18.037  28.725   3.980  0.1076 -0.1255  0.0613
 7429W        W50523  18.145  28.869   7.454  0.0350  0.0632 -0.4378
 7430W        W50524  18.476  31.007   5.083  0.0329 -0.2649 -0.0142
 7431W        W50525  15.993  31.378   4.601 -0.1534 -0.0083  0.1390
 7432W        W50526  15.360  28.810   4.907  0.1359 -0.2048 -0.1524
 7433W        W50527  17.239  30.371   8.010 -0.1187 -0.0079 -0.0499
 7434W        W50528  16.553  28.689   3.609  0.1421  0.0672 -0.0522
 7435W        W50529  17.269  28.842   6.693  0.3979 -0.0531 -0.0145
 7436W        W50530  16.552  31.184   4.544 -0.0820 -0.1435 -0.1698
 7437W        W50531  15.522  31.191   5.319 -0.0420 -0.0828 -0.1811
 7438W        W50532  16.141  29.359   5.869 -0.1802  0.1847 -0.1754
 7439W        W50533  14.789  29.405   3.754  0.0364 -0.1388  0.1384
 7440W        W50534  16.489  32.213   7.220  0.1959  0.1444 -0.0329
 7441W        W50535  14.850  29.600   3.328 -0.0761  0.0474  0.0133
 7442W        W50536  15.789  30.810   3.878  0.0473  0.1616  0.0448
 7443W        W50537  16.672  31.172   6.955 -0.0073 -0.1379  0.1360
 7444W        W50538  18.233  31.599   6.613 -0.0234 -0.1561 -0.0878
 7445W        W50539  15.487  28.721   2.985  0.3182  0.0113  0.1503
 7446W        W50540  18.474  29.255   7.180 -0.0210 -0.0624 -0.2246
 7447W        W50541  13.895  32.452   5.842 -0.0118 -0.3112  0.4144
 7448W        W50542  17.702  28.149   6.013 -0.0623  0.1394  0.4400
 7449W        W50543  15.186  31.370   4.942 -0.0626  0.1359 -0.0865
 7450W        W50544  14.316  31.559   6.694 -0.0330  0.2464 -0.1255
 7451W        W50545  15.429  31.899   4.449  0.1379  0.2567  0.0628
 7452W        W50546  16.805  29.243   5.860 -0.0737 -0.1461 -0.0360
 7453W        W50547  18.059  31.434   5.036 -0.2747 -0.1480 -0.4136
 7454W        W50548  16.125  30.018   5.732  0.0451  0.1546 -0.2974
 7455W        W50549  17.337  29.462   7.644  0.1740  0.1639 -0.0220
 7456W        W50550  17.053  31.308   5.314  0.0208 -0.2281  0.2197
 7457W        W50551  15.121  30.416   4.348  0.1625 -0.0557 -0.1757
 7458W        W50552  17.518  31.228   8.844 -0.0776 -0.0782 -0.2128
 7459W        W50553  17.439  30.868   4.669 -0.0510  0.1593  0.1045
 7460W        W50554  15.759  29.619   6.245 -0.1123 -0.0749 -0.0122
 7461W        W50555  14.498  29.694   8.583 -0.0689 -0.0956  0.1149
 7462W        W50556  16.188  30.418   7.278 -0.0748  0.1092  0.0650
 7463W        W50557  15.004  31.542   4.502  0.0762 -0.0087  0.2135
 7464W        W50558  16.457  30.108   4.155  0.1512  0.0982  0.0809
 7465W        W50559  16.185  31.903   3.644 -0.3670 -0.0273  0.2128
 7466W        W50560  15.086  31.724   8.352  0.0927 -0.1583 -0.0731
 7467W        W50561  15.105  30.979   6.837  0.0349  0.1129 -0.3206
 7468W        W50562  15.543  32.593   4.220  0.1124 -0.1237 -0.0219
 7469W        W50563  16.609  32.116   4.259  0.1562  0.1115 -0.5599
 7470W        W50564  17.066  32.153   4.508 -0.0574  0.1776 -0.0987
 7471W        W50565  17.383  32.169   5.960 -0.0798 -0.3415 -0.0361
 7472W        W50566  17.363  30.248   3.928 -0.0953  0.3542 -0.1484
 7473W        W50567  14.728  32.453   5.045  0.0128  0.2327  0.0388
 7474W        W50568  14.593  31.793   4.486 -0.2498  0.2015  0.1070
 7475W        W50569  16.909  31.843   3.029 -0.0076  0.0067  0.1156
 7476W        W50570  15.365  31.545   4.053 -0.0188 -0.0205  0.0025
 7477W        W50571  18.409  30.277   7.189  0.0085 -0.2601  0.0693
 7478W        W50572  17.204  29.563   4.315  0.3812 -0.1909  0.0214
 7479W        W50573  17.370  30.976   5.579  0.3743  0.0671 -0.1236
 7480W        W50574  18.802  30.751   3.958  0.2886  0.1036 -0.3879
 7481W        W50575  15.913  32.051   8.046  0.0334  0.2379  0.1226
 7482W        W50576  15.894  30.641   5.275  0.2330 -0.0303  0.4024
 7483W        W50577  16.583  30.008   4.817 -0.2512 -0.0100 -0.1520
 7484W        W50578  15.563  29.630   6.734  0.0225 -0.2690  0.2367
 7485W        W50579  18.615  28.880   8.240 -0.0475 -0.0823 -0.0522
 7486W        W50580  13.865  32.537   6.372  0.0191 -0.0410  0.2307
 7487W        W50581  17.836  32.594   5.238 -0.4319  0.1662 -0.1981
 7488W        W50582  14.752  29.956   5.619 -0.2764  0.2797 -0.0534
 7489W        W50583  15.309  29.984   5.663 -0.0582  0.1767 -0.1717
 7490W        W50584  18.842  28.924   6.368 -0.2330 -0.0753 -0.0661
 7491W        W50585  15.252  31.566   3.182  0.2364  0.0360  0.1411
 7492W        W50586  17.614  30.037   4.629  0.2315 -0.0930 -0.1276
 7493W        W50587  14.371  33.270   4.187  0.1210  0.2967 -0.0232
 7494W        W50588  15.631  32.098   5.497 -0.0363 -0.1723 -0.2431
 7495W        W50589  15.821  31.364   7.018 -0.2500 -0.2168 -0.2357
 7496W        W50590  14.333  28.804   3.086 -0.2747  0.2678  0.0596
 7497W        W50591  18.531  30.102   4.998 -0.2402 -0.0555 -0.1238
 7498W        W50592  14.279  29.656   7.010  0.1187  0.1032  0.0172
 7499W        W50593  16.762  28.785   6.612 -0.2645  0.0335  0.4907
 7500W        W50594  15.583  29.551   5.761 -0.1412  0.2574  0.3623
 7501W        W50595  16.735  30.559   5.314  0.0774 -0.0880 -0.0011
 7502W        W50596  13.684  31.996   5.666 -0.0380 -0.2032  0.0788
 7503W        W50597  13.727  29.049   6.184 -0.0856 -0.0498 -0.0610
 7504W        W50598  16.216  30.303   3.705 -0.1734  0.1076  0.0174
 7505W        W50599  17.474  29.745   6.224  0.0703  0.0970 -0.1990
 7506W        W50600  17.123  30.744   3.942  0.0274  0.0926 -0.1040
 7507W        W50601  18.652  31.927   6.420  0.0880  0.4130 -0.1266
 7508W        W50602  15.297  29.624   4.895  0.1183  0.1859 -0.0880
 7509W        W50603  16.683  30.571   4.199 -0.0739 -0.0098 -0.1782
 7510W        W50604  14.851  31.297   2.961  0.0273 -0.1031 -0.1077
 7511W        W50605  15.483  30.738   5.562  0.0147 -0.0888 -0.3038
 7512W        W50606  17.557  30.500   6.755  0.3984 -0.2510 -0.0724
 7513W        W50607  18.006  32.841   3.044  0.1300 -0.1221 -0.0689
 7514W        W50608  18.158  29.587   6.197  0.3236  0.3757 -0.1785
 7515W        W50609  16.128  32.297   3.981  0.1426  0.1762 -0.0094
 7516W        W50610  18.204  31.597   6.065 -0.0314  0.2362  0.0395
 7517W        W50611  18.496  32.639   6.502  0.0266 -0.5433  0.1197
 7518W        W50612  14.687  29.806   6.078 -0.0300 -0.4063 -0.2522
 7519W        W50613  17.840  32.315   6.216 -0.2722 -0.0313 -0.0739
 7520W        W50614  19.791  32.427   5.553  0.0471 -0.2950 -0.4115
 7521W        W50615  17.219  27.007   4.173  0.0144  0.0143 -0.0272
 7522W        W50616  14.879  29.407   5.836 -0.0882 -0.3281  0.2818
 7523W        W50617  14.907  32.665   4.253 -0.0812  0.2068 -0.0344
 7524W        W50618  17.273  28.002   6.152  0.1332  0.0776 -0.0358
 7525W        W50619  17.796  29.112   7.839  0.0799  0.0872 -0.0152
 7526W        W50620  16.552  31.944   2.504 -0.0580 -0.0459 -0.0383
 7527W        W50621  18.351  27.310   7.469  0.0582 -0.1361  0.3095
 7528W        W50622  15.960  32.527   7.182 -0.2498  0.0527  0.1838
 7529W        W50623  16.344  30.237   6.631  0.1406 -0.1705  0.3945
 7530W        W50624  13.548  31.346   2.515 -0.1850  0.0261  0.0184
 7531W        W50625  17.224  30.697   6.012  0.1196 -0.0234 -0.2125
 7532W        W50626  16.668  31.540   3.493  0.0443 -0.1633 -0.2486
 7533W        W50627  15.816  32.209   4.416 -0.5479 -0.4087 -0.2692
 7534W        W50628  18.034  32.148   5.794  0.2872  0.3132 -0.0217
 7535W        W50629  16.317  30.490   5.639 -0.0772  0.0655  0.1957
 7536W        W50630  17.702  31.790   4.886 -0.1632 -0.1622  0.1462
 7537W        W50631  15.739  30.097   5.399  0.1693 -0.2105  0.1391
 7538W        W50632  17.380  29.933   5.600 -0.0870  0.0552  0.0545
 7539W        W50633  16.080  30.024   4.549  0.0423  0.2073  0.1826
 7540W        W50634  15.679  30.151   6.975  0.1261 -0.0355 -0.2916
 7541W        W50635  12.856  30.955   1.989  0.0878  0.1613 -0.4119
 7542W        W50636  15.303  31.439   2.654  0.1896 -0.2159  0.0248
 7543W        W50637  16.180  31.321   6.702 -0.1047  0.1233  0.2371
 7544W        W50638  15.623  27.828   6.471  0.2739 -0.1388  0.3344
 7545W        W50639  14.519  29.673   6.558  0.3475  0.1677 -0.1968
 7546W        W50640  14.657  30.140   5.106  0.2976  0.0426 -0.2490
 7547W        W50641  15.242  29.190   3.477 -0.1390 -0.0362 -0.1651
 7548W        W50642  17.012  32.255   3.940 -0.0286  0.0885 -0.0845
 7549W        W50643  16.340  30.863   5.342 -0.2032 -0.1132  0.1442
 7550W        W50644  14.891  29.042   4.824  0.2885 -0.0398 -0.1126
 7551W        W50645  16.620  30.802   4.849  0.1002  0.0569 -0.0225
 7552W        W50646  16.418  31.589   4.820 -0.0464 -0.0054 -0.0700
 7553W        W50647  16.146  29.957   5.095 -0.0745  0.1234  0.2091
 7554W        W50648  16.675  30.327   7.123 -0.0107 -0.0100 -0.0762
 7555W        W50649  14.361  29.497   3.182  0.1044 -0.2114  0.0116
 7556W        W50650  16.376  30.435   6.135  0.1515 -0.0456  0.1155
 7557W        W50651  16.843  28.367   6.922 -0.0007 -0.1418  0.0241
 7558W        W50652  13.841  29.334   3.562  0.0977  0.2624 -0.0177
 7559W        W50653  16.097  29.245   6.346  0.0981 -0.2142 -0.3427
 7560W        W50654  16.307  31.423   5.619  0.0136  0.1694  0.0998
 7561W        W50655  17.163  32.257   5.025 -0.0624 -0.1217 -0.0001
 7562W        W50656  16.014  31.498   7.460 -0.2140 -0.0179  0.0832
 7563W        W50657  16.881  31.562   6.746  0.2191  0.2976 -0.1584
 7564W        W50658  15.317  28.047   6.897  0.0052 -0.0005  0.1300
 7565W        W50659  17.052  31.255   4.802  0.0196 -0.0333 -0.0987
 7566W        W50660  15.631  29.496   7.892 -0.3488 -0.6412  0.0612
 7567W        W50661  20.593  30.869   3.675  0.0690  0.2656 -0.0304
 7568W        W50662  17.767  28.794   6.649  0.1235  0.1948  0.1285
 7569W        W50663  17.549  30.988   4.154  0.3072  0.0182  0.0359
 7570W        W50664  16.600  30.375   7.821 -0.0931 -0.3032  0.0144
 7571W        W50665  16.039  29.486   6.832  0.3213 -0.0989  0.1519
 7572W        W50666  17.495  30.232   5.970 -0.1431  0.2551 -0.2357
 7573W        W50667  15.001  28.767   4.320  0.0760  0.1976 -0.0372
 7574W        W50668  19.206  30.630   4.277 -0.3811 -0.0392  0.1608
 7575W        W50669  18.373  30.948   4.247 -0.0395 -0.1931 -0.0144
 7576W        W50670  16.013  32.263   6.744  0.1468 -0.0543  0.0912
 7577W        W50671  16.528  29.153   4.865  0.0410  0.1078 -0.0295
 7578W        W50672  16.993  29.290   6.406 -0.2509  0.1651 -0.0909
 7579W        W50673  16.505  30.778   6.736  0.1210 -0.0692 -0.1785
 7580W        W50674  17.434  29.997   6.666  0.3900 -0.1409 -0.3077
 7581W        W50675  15.623  30.763   4.412 -0.2104 -0.1014  0.1006
 7582W        W50676  19.831  29.728   4.074 -0.1407  0.0599  0.1193
 7583W        W50677  18.275  32.197   6.532 -0.0418  0.4069 -0.2913
 7584W        W50678  17.369  32.890   8.826 -0.1104  0.0340  0.0275
 7585W        W50679  16.980  32.039   6.952  0.0484 -0.0455  0.2642
 7586W        W50680  18.406  31.177   5.801 -0.1842  0.1609  0.0759
 7587W        W50681  15.096  27.693   5.340 -0.3590  0.0872 -0.0519
 7588W        W50682  15.042  30.774   6.002 -0.0712  0.0062 -0.0398
 7589W        W50683  15.388  30.547   3.978 -0.1041 -0.1375 -0.1053
 7590W        W50684  17.394  30.377   4.986 -0.1564  0.3262  0.1952
 7591W        W50685  15.173  30.054   5.122  0.0541 -0.0691 -0.0002
 7592W        W50686  16.314  30.572   4.529  0.0264 -0.2104  0.0286
 7593W        W50687  16.762  31.158   6.426 -0.2297  0.3341 -0.2111
 7594W        W50688  18.433  32.019   5.564 -0.2601 -0.3156 -0.3953
 7595W        W50689  13.561  32.308   9.794 -0.2303 -0.1378  0.3142
 7596W        W50690  15.404  29.763   8.778  0.0927 -0.2591  0.1899
 7597W        W50691  17.488  29.067   8.504 -0.1063  0.0916  0.0583
 7598W        W50692  17.572  31.129   8.340 -0.1338 -0.2508 -0.4443
 7599W        W50693  15.239  30.712   8.968  0.4233  0.0001  0.1199
 7600W        W50694  17.229  31.499   9.121  0.1383  0.0894 -0.2407
 7601W        W50695  18.105  31.580   9.665  0.1900  0.0180  0.0447
 7602W        W50696  17.965  30.561   9.785 -0.0958 -0.0719 -0.0324
 7603W        W50697  17.334  30.658   8.976  0.1787 -0.0563  0.1406
 7604W        W50698  16.111  28.665   9.166 -0.0434 -0.0122 -0.1285
 7605W        W50699  15.468  29.963   7.407 -0.1449 -0.1960  0.2420
 7606W        W50700  16.370  28.413  10.016 -0.0942 -0.3668 -0.2677
 7607W        W50701  15.399  31.057  10.046  0.0428 -0.4353  0.0588
 7608W        W50702  14.917  31.539   9.094  0.1248 -0.3331  0.2959
 7609W        W50703  15.405  30.006  10.041 -0.0141  0.1911  0.4824
 7610W        W50704  16.472  28.891   8.965 -0.3543  0.0662  0.0409
 7611W        W50705  16.905  32.358   8.119 -0.2637  0.2670  0.0859
 7612W        W50706  16.147  27.966   9.601  0.1160 -0.1276  0.0183
 7613W        W50707  16.049  31.102   8.414  0.1444  0.1149  0.0183
 7614W        W50708  16.188  30.174   8.193  0.0614  0.0568 -0.0080
 7615W        W50709  12.230  31.436  10.912 -0.1356  0.0085  0.0464
 7616W        W50710  15.124  31.349   9.717 -0.3702  0.3770  0.2146
 7617W        W50711  15.502  29.551  10.155 -0.1899  0.2084  0.0596
 7618W        W50712  19.199  30.736   8.776 -0.3143  0.1023  0.1387
 7619W        W50713  14.351  32.871   8.608 -0.2302 -0.3173  0.0430
 7620W        W50714  18.166  30.014   8.714 -0.2504 -0.0952 -0.1963
 7621W        W50715  15.621  30.007   8.341 -0.0699  0.0563 -0.0438
 7622W        W50716  14.143  33.366   8.843 -0.2866 -0.0991 -0.2395
 7623W        W50717  16.290  30.059   9.887  0.3240  0.0621  0.0023
 7624W        W50718  20.060  30.002   7.857 -0.2222  0.1845 -0.1541
 7625W        W50719  16.104  32.343   7.689  0.1948  0.0557 -0.0830
 7626W        W50720  16.504  31.341   9.259  0.0807  0.3206 -0.3241
 7627W        W50721  17.386  30.232   9.277 -0.4681  0.0361  0.1721
 7628W        W50722  16.067  30.097   8.661  0.0053  0.0441 -0.3869
 7629W        W50723  15.516  31.616   9.209 -0.1261 -0.1978 -0.1000
 7630W        W50724  13.959  32.991   9.706 -0.0670  0.0646  0.1394
 7631W        W50725  15.644  33.454   6.986 -0.1119  0.0557  0.3208
 7632W        W50726  17.443  29.998   7.590 -0.2983 -0.2632  0.1533
 7633W        W50727  16.298  28.625   7.559 -0.0047 -0.0840  0.0535
 7634W        W50728  17.975  30.145   7.465  0.0028  0.0655 -0.0915
 7635W        W50729  17.304  28.433   9.975  0.2309 -0.0214 -0.1374
 7636W        W50730  15.377  32.884   9.522 -0.1807 -0.0281  0.1377
 7637W        W50731  15.021  30.862   9.785 -0.0890 -0.0239  0.2233
 7638W        W50732  16.681  29.823   9.725 -0.2698  0.0876  0.2408
 7639W        W50733  18.113  29.088  10.024 -0.0827  0.2996  0.0964
 7640W        W50734  14.371  31.792  10.120  0.2364  0.1312 -0.2633
 7641W        W50735  14.622  30.502   8.855 -0.1098 -0.2668 -0.0155
 7642W        W50736  18.503  31.155   8.176  0.3988 -0.2483  0.3745
 7643W        W50737  17.911  32.085   8.280  0.0141  0.1426 -0.2310
 7644W        W50738  18.196  32.198  10.219  0.0567  0.1779 -0.0347
 7645W        W50739  16.435  29.748   8.478  0.1175  0.3176 -0.0662
 7646W        W50740  15.719  29.196   7.135  0.1185 -0.0972  0.0113
 7647W        W50741  17.438  27.035  10.270 -0.4002 -0.1787 -0.0605
 7648W        W50742  14.907  30.372  10.611  0.1240 -0.0124  0.1966
 7649W        W50743  18.114  31.262  10.013 -0.2695 -0.1025  0.0792
 7650W        W50744  17.870  31.064   7.312 -0.0788  0.0626  0.0124
 7651W        W50745  15.393  30.361  10.521 -0.1200 -0.2156 -0.0446
 7652W        W50746  18.278  28.525  10.868 -0.3480  0.1484 -0.1005
 7653W        W50747  15.108  30.345   7.038  0.1469  0.0571 -0.2554
 7654W        W50748  16.392  31.882   7.642  0.0316 -0.0127  0.0421
 7655W        W50749  15.936  29.369  10.764 -0.0545 -0.3189  0.0085
 7656W        W50750  17.663  31.791   7.938 -0.0555  0.1860 -0.3124
 7657W        W50751  13.633  32.462   9.277  0.1823 -0.1801 -0.1615
 7658W        W50752  15.279  33.601   7.362  0.0753  0.1202  0.0964
 7659W        W50753  13.611  32.491  10.968 -0.5504  0.0629  0.1491
 7660W        W50754  15.069  31.369   7.982 -0.3316 -0.2133 -0.1975
 7661W        W50755  14.009  32.042   9.877 -0.0227 -0.2538 -0.1014
 7662W        W50756  15.551  31.853   9.638 -0.0031 -0.0696  0.4591
 7663W        W50757  17.858  27.891  10.724  0.0557 -0.1827 -0.2281
 7664W        W50758  17.786  28.253   9.604  0.2741  0.3769 -0.2079
 7665W        W50759  13.659  31.704   8.894 -0.0736  0.1332 -0.3285
 7666W        W50760  17.722  31.385   7.663 -0.2358 -0.2346 -0.3355
 7667W        W50761  18.036  29.380   7.449  0.1960 -0.2303 -0.1303
 7668W        W50762  16.026  30.480   7.773  0.0036 -0.1159  0.0631
 7669W        W50763  15.948  31.298  10.083  0.0535 -0.0476  0.1202
 7670W        W50764  16.124  30.611   9.419 -0.0050 -0.0041 -0.4073
 7671W        W50765  14.967  29.884   7.453 -0.0341  0.0269 -0.2079
 7672W        W50766  17.881  30.369   8.388  0.0050  0.0481  0.1580
 7673W        W50767  15.700  30.509   9.158  0.4746  0.1540 -0.2366
 7674W        W50768  15.171  31.843   8.794  0.0402 -0.1654  0.0581
 7675W        W50769  16.523  31.027   8.633  0.3562 -0.1280 -0.0674
 7676W        W50770  18.055  31.103   8.809 -0.0140  0.1142  0.4365
 7677W        W50771  18.086  29.570  10.242 -0.2791  0.0148  0.1648
 7678W        W50772  15.848  30.259   9.662  0.1396  0.0791 -0.3369
 7679W        W50773  15.352  29.035   7.453  0.0286  0.3416  0.0321
 7680W        W50774  14.398  33.251   9.602 -0.0330  0.0421  0.0763
 7681W        W50775  14.028  31.611   9.571 -0.2314 -0.0623 -0.1426
 7682W        W50776  15.284  28.660   8.792  0.0563 -0.0904 -0.0638
 7683W        W50777  17.531  32.150   9.721  0.0968  0.0952 -0.2068
 7684W        W50778  16.575  29.866   7.949  0.0698 -0.0897 -0.2764
 7685W        W50779  16.125  28.560   9.636 -0.2300  0.0336 -0.2103
 7686W        W50780  17.754  29.496   9.757  0.0990  0.2463 -0.1286
 7687W        W50781  16.021  29.694   8.171 -0.0060 -0.0184  0.2645
 7688W        W50782  18.023  32.087   9.668 -0.0742 -0.2937  0.3180
 7689W        W50783  13.684  32.083   7.578  0.2006  0.2810 -0.1092
 7690W        W50784  14.653  31.146   8.009 -0.1364 -0.0445  0.0326
 7691W        W50785  14.843  31.925   9.928  0.1111 -0.0821 -0.2128
 7692W        W50786  16.500  28.958   9.945  0.0159 -0.3989  0.1677
 7693W        W50787  15.435  29.531   8.359 -0.0052  0.0080 -0.0488
 7694W        W50788  17.028  29.787   8.531 -0.3664  0.0627 -0.5432
 7695W        W50789  19.213  29.874   7.599  0.0703 -0.4630 -0.0876
 7696W        W50790  16.770  30.736   8.294  0.1768  0.2279 -0.0305
 7697W        W50791  16.643  29.916   7.395  0.2246  0.1093  0.1172
 7698W        W50792  16.626  28.730   7.128  0.0113 -0.2640  0.1357
 7699W        W50793  17.383  29.250  10.061  0.0051 -0.0685  0.0358
 7700W        W50794  17.379  31.157   9.433 -0.1727 -0.2094  0.0085
 7701W        W50795  16.786  29.646   9.250 -0.2874 -0.1082 -0.0503
 7702W        W50796  18.558  33.067   8.359  0.1476 -0.1739  0.5076
 7703W        W50797  14.272  30.967   9.134 -0.3227  0.2729 -0.3728
 7704W        W50798  16.185  31.047   8.992 -0.0724  0.1802  0.0588
 7705W        W50799  16.322  29.406   9.688 -0.0260  0.1935 -0.0695
 7706W        W50800  17.004  30.084   7.676  0.2479  0.0168  0.1834
 7707W        W50801  14.958  29.876  10.368 -0.0799 -0.1580 -0.0239
 7708W        W50802  14.888  32.516   6.519 -0.0865 -0.1562  0.0297
 7709W        W50803  16.820  29.319   9.697  0.1223 -0.1574  0.0916
 7710W        W50804  17.593  28.008  10.130  0.0928 -0.0177 -0.0073
 7711W        W50805  18.294  29.501   7.903 -0.2596  0.0498 -0.0315
 7712W        W50806  17.460  30.707   9.634 -0.0211  0.0872  0.0241
 7713W        W50807  16.283  29.481   7.746  0.0924  0.0622  0.0421
 7714W        W50808  16.355  29.321   9.151 -0.1240 -0.0411  0.0433
 7715W        W50809  13.489  33.178  10.591  0.2137  0.0180  0.0676
 7716W        W50810  18.193  29.668   9.100  0.1393 -0.4364 -0.0730
 7717W        W50811  15.745  28.490   8.854  0.1231  0.1281  0.0827
 7718W        W50812  15.914  31.623   8.322  0.1618  0.2895 -0.0464
 7719W        W50813  14.910  30.212   8.039  0.2147  0.0801  0.0985
 7720W        W50814  16.951  27.131  10.099  0.0748  0.0457 -0.0195
 7721W        W50815  16.292  32.300   9.324  0.0916 -0.1019  0.0793
 7722W        W50816  16.912  31.033   9.079 -0.3731  0.1682 -0.0766
 7723W        W50817  17.103  31.409  10.130  0.1593  0.1787 -0.1967
 7724W        W50818  15.813  31.884   8.816 -0.2898  0.0294 -0.0114
 7725W        W50819  17.685  28.763   9.916  0.0051 -0.0995 -0.3334
 7726W        W50820  14.233  32.806   9.304  0.1831 -0.3536  0.1126
 7727W        W50821  15.551  30.623   7.770 -0.1878  0.0000 -0.1673
 7728W        W50822  14.558  30.017   9.800 -0.2275  0.3675  0.0612
 7729W        W50823  18.352  28.821   8.661 -0.3167  0.2790 -0.1303
 7730W        W50824  18.426  30.676   8.049  0.2858 -0.3736  0.1601
 7731W        W50825  15.550  28.921   9.720 -0.1254 -0.2807 -0.0342
 7732W        W50826  16.249  28.264   8.882 -0.0752  0.0578 -0.0334
 7733W        W50827  14.098  31.400  10.000 -0.0811  0.3257  0.3020
 7734W        W50828  18.440  29.060   9.581 -0.0058  0.0227 -0.2011
 7735W        W50829  14.221  29.631   7.630  0.3300 -0.1186 -0.0677
 7736W        W50830  17.049  30.618   9.361  0.3376 -0.3710 -0.0033
 7737W        W50831  15.007  30.383  10.122 -0.0272  0.2983 -0.0440
 7738W        W50832  14.288  31.140   8.320 -0.1306  0.2468  0.2733
 7739W        W50833  16.520  31.130  10.069  0.1631 -0.0384  0.0133
 7740W        W50834  15.866  30.389   6.402  0.1784 -0.2986  0.0757
 7741W        W50835  16.323  32.811   9.947 -0.0057 -0.0636 -0.2315
 7742W        W50836  16.657  30.888   9.592 -0.0090  0.0264  0.0079
 7743W        W50837  17.324  29.296   9.509 -0.0829 -0.2686 -0.0648
 7744W        W50838  15.432  29.192   8.770 -0.0778  0.2287 -0.0415
 7745W        W50839  17.214  28.894   9.714  0.1512 -0.0823 -0.6206
 7746W        W50840  18.772  31.845  10.297  0.2690  0.0267 -0.7605
 7747W        W50841  18.418  30.509   9.600  0.0825  0.1873  0.2499
 7748W        W50842  15.717  28.403   9.843  0.1348  0.1373  0.2043
 7749W        W50843  19.161  31.963   8.536 -0.1013  0.0595  0.1220
 7750W        W50844  17.073  30.548   7.547  0.0921 -0.1489 -0.1208
 7751W        W50845  12.833  32.610  10.512 -0.0545 -0.0978 -0.3845
 7752W        W50846  15.107  30.901   8.440  0.0993 -0.0554  0.2699
 7753W        W50847  16.911  29.295  10.258 -0.0863  0.2758 -0.2029
 7754W        W50848  14.631  32.624   8.929  0.0126 -0.0407 -0.0355
 7755W        W50849  15.570  31.557   7.869 -0.0059 -0.1047 -0.2837
 7756W        W50850  12.810  32.538  11.035  0.2107 -0.1888 -0.3284
 7757W        W50851  16.123  29.889   7.061 -0.1382 -0.1516 -0.1012
 7758W        W50852  17.114  31.743   9.733  0.2400 -0.1460  0.3988
 7759W        W50853  15.998  29.063   9.511  0.1201  0.2515 -0.0137
 7760W        W50854  18.097  30.519   8.849  0.1325 -0.0149 -0.1186
 7761W        W50855  16.663  30.043   8.862  0.1368 -0.1497  0.2402
 7762W        W50856  17.192  29.775   9.625  0.0317  0.0370 -0.0679
 7763W        W50857  16.914  29.304   8.352  0.0204  0.0837  0.2633
 7764W        W50858  14.819  29.581   7.786  0.0909 -0.0783 -0.2444
 7765W        W50859  15.692  29.789  10.625 -0.1125  0.0650  0.0459
 7766W        W50860  18.004  32.842   8.379 -0.3560  0.1782 -0.1214
 7767W        W50861  16.880  30.495   8.808  0.0621 -0.0772  0.1056
 7768W        W50862  18.665  30.160   8.595  0.0359 -0.1630  0.0182
 7769W        W50863  16.177  31.055   9.619  0.2356 -0.0687 -0.0030
 7770W        W50864  15.574  30.828   9.547 -0.1306 -0.1341  0.0059
 7771W        W50865  17.484  29.873   8.393 -0.2074  0.3473 -0.3597
 7772W        W50866  15.685  31.011   9.090 -0.1721 -0.2767 -0.1372
 7773W        W50867  16.590  28.963   9.454 -0.0338 -0.1479  0.1312
 7774W        W50868  18.513  29.715   8.490  0.2969  0.4950 -0.2137
 7775W        W50869  16.908  31.353   9.568 -0.1603  0.1794 -0.1836
 7776W        W50870  17.672  30.252   8.877 -0.1207 -0.1282 -0.1624
 7777W        W50871  19.787  30.872  10.194 -0.1374  0.2043 -0.1598
 7778W        W50872  17.190  30.280   9.781 -0.0042 -0.1173 -0.0319
 7779W        W50873  17.799  29.385   8.306  0.2394  0.2887  0.1000
 7780W        W50874  15.066  30.130   9.692 -0.1056 -0.1347  0.0293
 7781W        W50875  15.751  28.632   7.537 -0.3280  0.1920 -0.1930
 7782W        W50876  15.009  32.223   8.214  0.1002 -0.0587  0.2159
 7783W        W50877  18.364  31.416   9.125  0.0653  0.0674  0.2093
 7784W        W50878  16.747  29.457   8.817 -0.2285  0.0529 -0.0946
 7785W        W50879  14.630  28.866   9.572 -0.0387 -0.2619  0.1104
 7786W        W50880  15.784  29.176   8.389 -0.0971  0.2817 -0.0580
 7787W        W50881  16.751  30.194   8.378  0.0434 -0.1461 -0.2906
 7788W        W50882  17.954  31.049   9.611  0.0836 -0.1518 -0.1309
 7789W        W50883  15.947  27.583   7.413  0.1570 -0.2417  0.0108
 7790W        W50884  14.953  31.879   7.886 -0.2663 -0.3933 -0.0689
 7791W        W50885  18.343  27.208   9.728  0.2684 -0.3043  0.1194
 7792W        W50886  16.372  31.472   9.745  0.1381 -0.0770  0.1915
 7793W        W50887  14.833  32.644   8.422  0.1358 -0.0418  0.0665
 7794W        W50888  16.899  30.093   9.344  0.1658  0.0874 -0.1055
 7795W        W50889  17.533  28.712   9.414  0.1698 -0.2076 -0.2635
 7796W        W50890  15.791  29.954   9.033 -0.3087  0.2204 -0.1219
 7797W        W50891  14.433  31.924   9.508  0.1545 -0.0905 -0.0237
 7798W        W50892  18.505  31.388   8.641  0.0555 -0.1249 -0.0291
 7799W        W50893  15.395  31.628  10.108  0.0707  0.1017 -0.0868
 7800W        W50894  18.375  30.228   9.167  0.0683 -0.0428  0.2795
 7801W        W50895  15.084  27.727   9.088  0.3947 -0.0375  0.0537
 7802W        W50896  16.823  30.920   7.833  0.1809  0.0397  0.0300
 7803W        W50897  14.219  31.165   9.595  0.3793 -0.2729  0.0243
 7804W        W50898  15.445  32.387   7.034 -0.0686  0.0864 -0.2094
 7805W        W50899  17.232  30.836   8.096 -0.1638 -0.0718 -0.3265
 7806W        W50900  15.096  29.885   8.394 -0.2791  0.0803  0.3952
 7807W        W50901  16.733  31.847  10.170  0.1517 -0.2257 -0.0156
 7808W        W50902  14.681  28.613   7.639 -0.2622 -0.0932 -0.2883
 7809W        W50903  14.035  32.470   9.611  0.5000 -0.1774 -0.2839
 7810W        W50904  15.597  31.929   7.474  0.0869 -0.2092  0.2768
 7811W        W50905  17.650  31.734   8.462 -0.0448 -0.1292 -0.0306
 7812W        W50906  14.108  31.840   8.844 -0.1411 -0.1415  0.0393
 7813W        W50907  17.281  29.417   8.765 -0.0931  0.3481  0.0003
 7814W        W50908  18.198  29.450   9.517 -0.0496 -0.1632  0.0049
 7815W        W50909  17.961  29.973   6.919  0.1080  0.1536 -0.0706
 7816W        W50910  17.919  30.360   9.322 -0.1536  0.1705 -0.0751
 7817W        W50911  16.144  27.029   7.201 -0.0891  0.2128 -0.0458
 7818W        W50912  18.924  32.061   8.058 -0.1646  0.0133  0.0682
 7819W        W50913  15.562  30.305   8.718 -0.3923 -0.0341  0.0268
 7820W        W50914  17.007  29.865  10.258 -0.0420 -0.0123 -0.1625
 7821W        W50915  15.451  26.335   9.567 -0.0075  0.1657 -0.1731
 7822W        W50916  16.828  30.987   5.615 -0.1951 -0.0275 -0.1334
 7823W        W50917  17.754  29.755   8.786 -0.0937 -0.0828 -0.3297
 7824W        W50918  15.747  32.387   8.493  0.1764 -0.1562  0.0929
 7825W        W50919  14.680  33.242   8.424  0.2314  0.2171  0.1869
 7826W        W50920  14.975  32.793   9.858 -0.0831 -0.1326  0.0149
 7827W        W50921  14.321  28.873   7.955  0.2166  0.1549 -0.1723
 7828W        W50922  18.987  28.647  10.258  0.2489 -0.2572  0.0663
 7829W        W50923  15.886  29.807   9.890 -0.0721  0.3309  0.0352
 7830W        W50924  17.365  29.714   9.145  0.0988 -0.1225  0.0662
 7831W        W50925  19.408  29.526   8.327 -0.1648 -0.0943 -0.0694
 7832W        W50926  16.582  32.086   9.739  0.1286  0.1309 -0.0543
 7833W        W50927  17.683  27.381  10.548 -0.0020 -0.0779 -0.1540
 7834W        W50928  17.440  30.750   7.192  0.0090  0.2127 -0.2461
 7835W        W50929  16.383  29.279   8.178 -0.0817  0.1234 -0.0435
 7836W        W50930  15.910  29.050   8.946 -0.0540  0.0299 -0.1870
 7837W        W50931  17.032  29.091   7.518 -0.3632 -0.0415 -0.1687
 7838W        W50932  15.296  31.315   8.813 -0.2124 -0.0241  0.0021
 7839W        W50933  17.626  28.939  10.391  0.0610  0.2312 -0.0984
 7840W        W50934  15.468  28.181   8.493 -0.0221 -0.4418  0.1176
 7841W        W50935  18.118  30.681   6.503 -0.0453 -0.2233  0.0382
 7842W        W50936  15.855  30.804   9.945 -0.2070  0.1092 -0.0201
 7843W        W50937  17.384  31.754   6.999  0.0162  0.2210 -0.1662
 7844W        W50938  17.689  30.739   8.638 -0.2246 -0.1675  0.3045
 7845W        W50939  18.806  31.008   9.107  0.0666 -0.0214  0.1900
 7846W        W50940  14.922  29.321   8.195 -0.0979 -0.0728 -0.2572
 7847W        W50941  18.662  31.925   9.389 -0.0400  0.1379 -0.1022
 7848W        W50942  18.046  31.656   8.709  0.0319  0.1028 -0.2583
 7849W        W50943  16.575  29.853   6.904  0.3002  0.1614  0.0593
 7850W        W50944  15.211  31.139   9.261 -0.1144  0.1435 -0.2812
 7851W        W50945  13.822  33.070   8.519 -0.1235  0.2108  0.2874
 7852W        W50946  21.393  30.060  10.071 -0.1626 -0.3305  0.2573
 7853W        W50947  17.301  31.337   7.950 -0.0919  0.1390 -0.1356
 7854W        W50948  16.029  31.497   9.247 -0.0970  0.1082 -0.1137
 7855W        W50949  16.193  29.988   7.675  0.0874  0.1909  0.0220
 7856W        W50950  17.273  30.411   8.476 -0.1417 -0.3600 -0.0811
 7857W        W50951  15.411  32.243   7.933  0.0075  0.1924 -0.1163
 7858W        W50952  18.093  30.821   8.359  0.2185  0.0211 -0.2139
 7859W        W50953  16.248  29.753   8.955 -0.0701 -0.1501  0.1970
 7860W        W50954  19.480  31.665   8.836 -0.0797  0.1787  0.0218
 7861W        W50955  15.623  27.611   9.212 -0.1836  0.2057 -0.0155
 7862W        W50956  18.034  28.600   9.315  0.1090 -0.0599  0.0006
 7863W        W50957  16.637  28.893   8.508 -0.0854  0.3083  0.1627
 7864W        W50958  17.181  27.470   9.797  0.0759 -0.0781 -0.0281
 7865W        W50959  14.523  30.110   7.585  0.1704 -0.1628 -0.0256
 7866W        W50960  15.472  31.035   7.116 -0.1409 -0.3135  0.0777
 7867W        W50961  13.757  31.084   9.794  0.0548 -0.0002 -0.1061
 7868W        W50962  12.947  29.121   9.934  0.1456  0.1892  0.1605
 7869W        W50963  14.748  28.828   8.192  0.0140  0.2827 -0.1994
 7870W        W50964  19.202  30.535   7.887 -0.0463  0.1769  0.0149
 7871W        W50965  15.543  28.960   9.232  0.2584 -0.0542  0.0809
 7872W        W50966  14.915  28.711   9.162 -0.2718  0.1010  0.2844
 7873W        W50967  17.785  31.791  10.010 -0.1185 -0.1046 -0.2731
 7874W        W50968  17.642  32.311   8.712 -0.0572 -0.0215 -0.1262
 7875W        W50969  16.629  27.912   9.009  0.1489 -0.4297  0.1501
 7876W        W50970  16.397  30.514   8.514  0.1923  0.1845  0.0156
 7877W        W50971  15.321  29.495   7.474  0.2383  0.1121 -0.0973
 7878W        W50972  16.114  29.786   9.456 -0.5387 -0.2507  0.1807
 7879W        W50973  14.970  32.630   7.912  0.0396  0.0096 -0.0235
 7880W        W50974  18.438  31.112   7.502 -0.1338  0.0972  0.0867
 7881W        W50975  15.015  28.684   9.735 -0.1850  0.1398  0.0687
 7882W        W50976  18.258  30.835   9.215 -0.0325 -0.3524 -0.0007
 7883W        W50977  18.869  30.597   8.373 -0.0371 -0.1165  0.3353
 7884W        W50978  18.264  28.036  10.412 -0.2190 -0.0797  0.2553
 7885W        W50979  17.784  29.378   9.245 -0.1110  0.4435  0.2432
 7886W        W50980  18.932  30.334   9.768  0.3221  0.0298  0.1020
 7887W        W50981  15.133  28.490   8.291  0.1673 -0.1119 -0.0881
 7888W        W50982  16.140  28.842   8.583 -0.0173  0.0354 -0.0588
 7889W        W50983  16.080  30.627   8.914 -0.1708  0.0669  0.1960
 7890W        W50984  14.774  29.190   9.937 -0.1497  0.1535 -0.0493
 7891W        W50985  16.287  29.281   8.661 -0.0022  0.2185 -0.3044
 7892W        W50986  17.825  29.875   9.318 -0.0171 -0.2235  0.1452
 7893W        W50987  15.889  29.612   8.643  0.0177  0.1163 -0.0147
 7894W        W50988  19.850  30.353   9.435  0.0951 -0.3777  0.1351
 7895W        W50989  16.162  31.789  10.222 -0.1984 -0.3373 -0.3329
 7896W        W50990  14.276  32.242  10.361 -0.0825 -0.0257  0.1141
 7897W        W50991  17.363  29.384  10.575 -0.1676 -0.0329  0.1081
 7898W        W50992  13.769  29.548  10.049 -0.2594  0.0191  0.0363
 7899W        W50993  17.019  30.780   6.930  0.0440  0.3976  0.0900
 7900W        W50994  16.270  30.209   9.154  0.1272  0.0054  0.0511
 7901W        W50995  15.682  27.856  10.414  0.0298  0.0345  0.0076
 7902W        W50996  15.870  29.449   9.167 -0.2677  0.0591  0.2612
 7903W        W50997  16.812  27.843   7.085  0.0936 -0.1088 -0.2977
 7904W        W50998  16.557  30.654   9.146 -0.1297  0.3236  0.2754
 7905W        W50999  16.711  30.380   9.993  0.1247 -0.0947  0.1371
 7906W        W51000  14.506  32.888   0.599  0.0235  0.0024  0.1701
 7907W        W51001  17.010  31.673  30.873  0.1463 -0.1948 -0.0285
 7908W        W51002  18.067   0.071  31.652 -0.1102  0.0932  0.1084
 7909W        W51003  13.732  32.356   2.729 -0.1777  0.0941  0.1640
 7910W        W51004  14.449  31.536   3.746  0.1528 -0.3145 -0.1601
 7911W        W51005  17.855  34.490   1.447 -0.0076  0.2369  0.2232
 7912W        W51006  16.518  32.842   3.257  0.2636  0.1381  0.4356
 7913W        W51007  14.075  33.127   0.775 -0.1331 -0.0779 -0.2816
 7914W        W51008  14.530  32.007   2.115 -0.1009 -0.1566 -0.0129
 7915W        W51009  18.066  33.914   3.903  0.1649 -0.1879 -0.3419
 7916W        W51010  15.030  34.690  31.470  0.0142  0.2428 -0.5379
 7917W        W51011  15.862  33.628   2.796 -0.1900 -0.1318 -0.3607
 7918W        W51012  16.085  34.048  31.865 -0.0434  0.3896  0.1127
 7919W        W51013  14.819  32.404   2.869  0.0411 -0.0129 -0.0719
 7920W        W51014  17.448  32.854   4.088  0.1737  0.1381 -0.0311
 7921W        W51015  16.306  34.568   0.113 -0.3855  0.0984 -0.2038
 7922W        W51016  14.678  32.983   1.684 -0.1222  0.1888  0.0891
 7923W        W51017  15.827  34.134   2.482 -0.1451  0.0333 -0.3734
 7924W        W51018  16.745  33.346   2.881 -0.1673  0.1758 -0.2302
 7925W        W51019  17.367   0.198   2.886 -0.3034 -0.0035 -0.3538
 7926W        W51020  16.584  33.183   3.840 -0.1029 -0.0042 -0.1699
 7927W        W51021  17.048  32.848   2.920 -0.0868  0.0273  0.0294
 7928W        W51022  17.182  33.955   1.409 -0.1782 -0.1036 -0.1394
 7929W        W51023  18.525  32.862   2.941  0.0724  0.0718 -0.0480
 7930W        W51024  17.692  34.088   1.778  0.0804  0.1589 -0.4048
 7931W        W51025  17.438  33.100  30.870  0.1250 -0.2044  0.1073
 7932W        W51026  18.471  34.605   1.675 -0.0153 -0.3576  0.1480
 7933W        W51027  17.280  33.584   3.331  0.2175 -0.1930 -0.4004
 7934W        W51028  15.647  33.316   2.139  0.0879  0.3997  0.6242
 7935W        W51029  16.342  33.306   1.201 -0.0461  0.2994 -0.0645
 7936W        W51030  16.696   0.939   2.920  0.0603  0.0129  0.0405
 7937W        W51031  15.087  34.043   1.054  0.1268  0.0910  0.0209
 7938W        W51032  13.228   0.364   0.954  0.0279 -0.2537  0.0263
 7939W        W51033  15.393  34.003   2.832  0.0167  0.2804  0.2643
 7940W        W51034  15.830  33.531   3.306 -0.0058 -0.1195  0.0702
 7941W        W51035  17.005  33.635   0.508  0.3075  0.2746  0.0358
 7942W        W51036  18.064  33.735   1.822  0.0114 -0.0541  0.0620
 7943W        W51037  16.621  33.448   1.618 -0.1106 -0.0800 -0.0273
 7944W        W51038  18.802  31.842   2.756 -0.2101  0.3091  0.2299
 7945W        W51039  18.428  34.073   0.839 -0.1429  0.1273 -0.0475
 7946W        W51040  16.214  33.818   3.080  0.0620 -0.1017  0.0221
 7947W        W51041  15.937  31.768   1.692 -0.2669 -0.0465 -0.1980
 7948W        W51042  17.226  34.052   2.392  0.1439 -0.0289  0.0406
 7949W        W51043  16.326  33.371   2.549  0.3518  0.0934 -0.2460
 7950W        W51044  17.503  33.634   2.016  0.1212 -0.2333 -0.3606
 7951W        W51045  17.747  33.335  31.616  0.4999 -0.1725  0.1633
 7952W        W51046  15.465  34.545   2.091  0.0012  0.2025  0.0020
 7953W        W51047  14.913  34.136   2.904  0.1018 -0.0674 -0.0602
 7954W        W51048  14.065  33.798   2.599  0.0536  0.1352 -0.0200
 7955W        W51049  14.768  31.642   3.318  0.2107  0.2417 -0.0110
 7956W        W51050  17.238  33.752   3.864 -0.0861 -0.0880  0.1718
 7957W        W51051  14.007  33.041  30.875 -0.2075  0.2005 -0.0670
 7958W        W51052  15.850  32.638   1.280 -0.0463 -0.2805  0.0551
 7959W        W51053  15.259  34.153   1.775  0.1371  0.1959 -0.0362
 7960W        W51054  17.626  33.594   2.918  0.1416  0.0287 -0.1606
 7961W        W51055  15.568  32.739   2.745  0.4997 -0.0916 -0.4006
 7962W        W51056  16.371   1.443  30.990  0.1227  0.0460  0.1356
 7963W        W51057  14.838  33.093   0.083  0.1403 -0.1766 -0.1999
 7964W        W51058  17.461  32.004   3.282 -0.3690 -0.1145  0.3203
 7965W        W51059  17.788   0.046   0.468  0.2930 -0.0361  0.2885
 7966W        W51060  17.825  31.525  31.882  0.0957  0.1259  0.2146
 7967W        W51061  15.290   0.363   0.790 -0.1723  0.0041 -0.0320
 7968W        W51062  17.348  32.497   3.183  0.0224  0.4447 -0.0950
 7969W        W51063  14.819  33.738   3.228 -0.0906 -0.2495  0.0674
 7970W        W51064  16.509  32.796   4.282  0.1584 -0.0291  0.0557
 7971W        W51065  15.839  33.327   1.135  0.2568 -0.0856  0.0630
 7972W        W51066  16.863  32.476   2.538  0.2417  0.2571 -0.1023
 7973W        W51067  16.495  33.601   0.314  0.2573  0.3190  0.1273
 7974W        W51068  16.193  32.838   0.988 -0.1498 -0.1112 -0.2486
 7975W        W51069  14.737  32.406   0.876  0.2101 -0.0629 -0.1481
 7976W        W51070  16.811  33.597   1.115  0.0995 -0.0683 -0.2848
 7977W        W51071  14.873  33.932   2.037 -0.1439  0.3238 -0.2825
 7978W        W51072  16.284  32.829   1.487  0.1657 -0.4756  0.1041
 7979W        W51073  16.808  33.742   2.466 -0.1103 -0.2366  0.1708
 7980W        W51074  16.275  32.430   3.377  0.1174  0.2858  0.0249
 7981W        W51075  17.274  32.400   1.726  0.0800  0.2052 -0.5367
 7982W        W51076  15.865  32.315   2.637  0.0222  0.1694 -0.1514
 7983W        W51077  18.140   0.198   4.998  0.3880  0.0396  0.1263
 7984W        W51078  17.833  33.978  31.881 -0.0455 -0.0399  0.0626
 7985W        W51079  17.134  34.492   2.041 -0.0179  0.0253 -0.0907
 7986W        W51080  16.546   0.265   0.434 -0.2216 -0.0206 -0.3437
 7987W        W51081  16.147  33.190   3.019  0.2159  0.1389 -0.3182
 7988W        W51082  16.509  32.979   4.850  0.1705  0.3386  0.1526
 7989W        W51083  15.324  33.304   0.278 -0.0077  0.1751 -0.0811
 7990W        W51084  15.279  33.661   2.043 -0.0931 -0.1040 -0.3271
 7991W        W51085  18.581  32.266   2.504  0.0320  0.1049 -0.1555
 7992W        W51086  16.593  34.319   1.114 -0.1984  0.0953  0.1108
 7993W        W51087  14.998   0.210   1.852 -0.3679 -0.1536  0.0987
 7994W        W51088  17.401  32.640   2.540  0.1999  0.2611  0.4014
 7995W        W51089  15.430  32.944   1.239 -0.2377  0.1785  0.2242
 7996W        W51090  15.336  33.097   1.818 -0.0297 -0.4526 -0.1642
 7997W        W51091  17.468  33.123   4.557 -0.1113  0.0490 -0.2814
 7998W        W51092  18.020  34.489   1.972 -0.0581  0.3068 -0.0278
 7999W        W51093  16.133  33.081   4.537 -0.0690 -0.1938 -0.0372
 8000W        W51094  15.574  33.825   0.126  0.1399  0.0617  0.3970
 8001W        W51095  16.715  33.842   3.126  0.1819 -0.1318 -0.2744
 8002W        W51096  15.641  32.881   0.651  0.0746  0.1422  0.4482
 8003W        W51097  14.658  34.078   0.726 -0.1343  0.4893  0.1133
 8004W        W51098  15.755  33.971   1.978  0.2364  0.1407  0.1047
 8005W        W51099  15.470  32.301   2.266 -0.2012 -0.2322  0.1978
 8006W        W51100  15.773  34.388   0.170 -0.1228  0.0093 -0.1403
 8007W        W51101  17.306  33.591   2.522 -0.0165  0.2202 -0.2379
 8008W        W51102  16.503  32.936   2.713  0.0076  0.1920  0.0511
 8009W        W51103  16.342  31.405   1.641  0.1422 -0.0976 -0.1293
 8010W        W51104  17.566  34.099   4.778  0.2561 -0.2024  0.2266
 8011W        W51105  15.953  32.108   2.156 -0.2717 -0.2756 -0.1595
 8012W        W51106  17.762  32.332   0.867  0.0861  0.1152  0.0527
 8013W        W51107  16.177  34.340   0.808 -0.1171 -0.0474  0.1101
 8014W        W51108  18.075  31.662   3.880 -0.1487  0.3741 -0.0997
 8015W        W51109  17.061  34.227   0.972 -0.2728  0.0750  0.2073
 8016W        W51110  15.307  32.892   3.351  0.3971 -0.1825  0.2807
 8017W        W51111  15.361  32.098   2.762  0.0252  0.2035  0.3644
 8018W        W51112  15.198  34.088   2.373 -0.0201 -0.0166  0.3348
 8019W        W51113  16.155   0.571   2.688  0.0944 -0.2061 -0.0187
 8020W        W51114  16.887  32.494   2.041 -0.1846  0.2658 -0.2987
 8021W        W51115  15.328  32.277  31.973 -0.2124  0.0660  0.2145
 8022W        W51116  15.803   0.990   4.464  0.0733 -0.2304  0.0166
 8023W        W51117  18.357  33.604   2.375  0.1698  0.3851 -0.1708
 8024W        W51118  16.733  33.941   1.500  0.0509 -0.1656  0.3911
 8025W        W51119  17.328  34.606   0.550  0.0470  0.2817 -0.1256
 8026W        W51120  15.023  32.121   3.242 -0.0760 -0.3354 -0.1358
 8027W        W51121  17.079   0.187   1.652 -0.0914  0.0440  0.0311
 8028W        W51122  17.356  33.216   3.691  0.0355 -0.0606 -0.1680
 8029W        W51123  18.258  32.875   3.576  0.1211 -0.0309  0.1696
 8030W        W51124  15.796  34.550   3.345  0.1440 -0.0209  0.0461
 8031W        W51125  14.479  33.372   2.568  0.0315  0.0949 -0.1116
 8032W        W51126  18.101  33.820   1.309  0.1247  0.1367  0.3812
 8033W        W51127  18.152  31.810   3.401 -0.0285 -0.1343  0.5632
 8034W        W51128  18.564  33.563   1.030  0.1636  0.0392 -0.2884
 8035W        W51129  17.520   0.360   0.712  0.0396 -0.2197 -0.3748
 8036W        W51130  14.593  34.522   0.843  0.1411 -0.0800 -0.0331
 8037W        W51131  16.881  34.579   4.259 -0.2160  0.1250 -0.2146
 8038W        W51132  16.374  33.314  31.600  0.0951 -0.3159  0.2474
 8039W        W51133  16.180  33.668   4.548 -0.0586 -0.0076 -0.2407
 8040W        W51134  17.886  33.790   0.542 -0.2181 -0.0579 -0.2805
 8041W        W51135  14.585  32.508   2.164  0.0718 -0.0728  0.1082
 8042W        W51136  16.044  33.492   0.108  0.3427  0.1388  0.0298
 8043W        W51137  17.257  33.249   0.995  0.2771 -0.0256  0.1235
 8044W        W51138  17.059  32.110  31.159  0.0630  0.0454  0.1319
 8045W        W51139  17.052  34.013   1.922  0.0244 -0.0055 -0.2115
 8046W        W51140  17.388  33.134   3.185 -0.0209 -0.1190 -0.1775
 8047W        W51141  15.580  32.129   3.989 -0.2597 -0.2076 -0.0714
 8048W        W51142  17.146  34.042   3.468  0.1110  0.0717 -0.0941
 8049W        W51143  16.344  34.592   1.539 -0.2385  0.2707 -0.0564
 8050W        W51144  18.805  33.125   3.913  0.1507  0.1925 -0.0147
 8051W        W51145  15.678   0.398   2.496 -0.1946 -0.2705  0.2380
 8052W        W51146  14.949  33.694   2.549  0.2856 -0.1451 -0.1297
 8053W        W51147  16.745  33.365  31.922 -0.2456 -0.0076  0.1446
 8054W        W51148  18.781  32.061   0.484  0.2161 -0.4109  0.1477
 8055W        W51149  17.492  32.719   0.943 -0.3042 -0.0508  0.2600
 8056W        W51150  17.784  34.600   3.101  0.0956  0.0481 -0.0640
 8057W        W51151  17.764  33.516   0.104  0.0848  0.0085  0.2452
 8058W        W51152  16.969   0.496   2.655  0.1138 -0.0292 -0.0318
 8059W        W51153  17.453  33.593  30.623  0.0581 -0.1343  0.2762
 8060W        W51154  15.505  34.625   3.840 -0.0876 -0.2176 -0.2782
 8061W        W51155  18.659  32.631   3.377  0.1470  0.0279  0.0753
 8062W        W51156  13.667  33.089   1.071 -0.5763  0.2082  0.2411
 8063W        W51157  15.679  34.154   0.968 -0.3518 -0.2846 -0.1525
 8064W        W51158  17.521  33.121   1.759 -0.1860 -0.0108  0.1121
 8065W        W51159  16.654  34.621   1.978  0.0506 -0.0634  0.1019
 8066W        W51160  15.538  33.424  31.807  0.2442  0.1808 -0.1331
 8067W        W51161  17.438   0.543   1.844 -0.4727  0.1288 -0.1022
 8068W        W51162  15.965  32.037   3.122  0.3133 -0.1358  0.3076
 8069W        W51163  16.849  32.111   1.378 -0.1274 -0.0410  0.0894
 8070W        W51164  13.686  34.205   0.730  0.3803  0.1929  0.0963
 8071W        W51165  18.789  33.883   2.688 -0.2200  0.0796  0.0325
 8072W        W51166  14.555  33.623   2.141 -0.1128  0.0006  0.0406
 8073W        W51167  15.690  33.998   1.449 -0.0265 -0.0054  0.0438
 8074W        W51168  18.591  33.915   3.633  0.1149  0.0093  0.0958
 8075W        W51169  17.197  32.900  31.838 -0.2694  0.1491  0.0573
 8076W        W51170  14.215  32.972   2.381 -0.1902 -0.2226  0.1300
 8077W        W51171  16.506  34.112   0.270  0.0558  0.1535  0.0003
 8078W        W51172  15.668   0.209  30.558 -0.0923  0.2715 -0.3169
 8079W        W51173  17.204  33.899   2.887  0.0078  0.2161 -0.0588
 8080W        W51174  14.644  32.845   2.586 -0.2092 -0.3908  0.1043
 8081W        W51175  17.803  33.670   2.435 -0.5001 -0.3357 -0.1151
 8082W        W51176  17.999  34.454   0.943 -0.5387 -0.2359 -0.0016
 8083W        W51177  13.162  32.416   2.872 -0.4251 -0.2032  0.0530
 8084W        W51178  15.519  32.451   0.442 -0.1585 -0.0588 -0.1852
 8085W        W51179  15.832  31.182   1.568 -0.1352 -0.0147 -0.1819
 8086W        W51180  18.592  33.365   2.808  0.0686 -0.1277  0.3028
 8087W        W51181  18.283  33.049   4.064 -0.0674 -0.1653  0.1125
 8088W        W51182  17.882  32.427   2.841 -0.4407 -0.1302  0.0845
 8089W        W51183  15.887  34.402   1.307  0.2977  0.0084  0.0243
 8090W        W51184  15.972  33.749   1.002 -0.3250 -0.1785  0.0207
 8091W        W51185  17.632  34.294   2.251  0.0545 -0.0028 -0.0543
 8092W        W51186  16.988  32.764  30.849  0.4871 -0.2744  0.0025
 8093W        W51187  16.296   0.048   1.052  0.0123 -0.2208 -0.2137
 8094W        W51188  14.151  33.960   0.909  0.1483  0.1175  0.2138
 8095W        W51189  16.361  32.274   2.833 -0.0996  0.0130 -0.1569
 8096W        W51190  16.160  33.218   2.008  0.0127  0.0148 -0.1579
 8097W        W51191  14.753   0.369   0.126  0.0310  0.0996 -0.0275
 8098W        W51192  14.268  32.706   1.819 -0.3729 -0.4876  0.0066
 8099W        W51193  14.250  31.097   1.666 -0.0657 -0.4312  0.2118
 8100W        W51194  15.101  32.685   1.478  0.1673  0.0458  0.2007
 8101W        W51195  14.106  34.278   2.581 -0.1975  0.2194 -0.0600
 8102W        W51196  16.918  33.226   3.355  0.1902 -0.0279  0.1968
 8103W        W51197  16.394  32.710   3.748 -0.1181 -0.2175 -0.2431
 8104W        W51198  15.237  33.569  30.884 -0.4222 -0.1604 -0.0066
 8105W        W51199  16.858  31.785   3.900  0.0975 -0.0302  0.1168
 8106W        W51200  13.855  32.122   3.468 -0.0649  0.0383 -0.0478
 8107W        W51201  18.272  32.597   2.643  0.0808  0.1065 -0.0451
 8108W        W51202  17.572  34.229   0.756 -0.0715  0.2144 -0.2924
 8109W        W51203  14.493  31.098   3.268 -0.1165  0.3420 -0.0957
 8110W        W51204  15.231  32.395   0.907 -0.2860  0.3584  0.1134
 8111W        W51205  17.122  33.330  31.613  0.2269  0.1806 -0.0967
 8112W        W51206  14.565  34.055   2.401 -0.0784  0.0589  0.0792
 8113W        W51207  16.252  34.134   1.663  0.0643 -0.1153 -0.0389
 8114W        W51208  17.084  34.199   3.981  0.0876 -0.2481 -0.0542
 8115W        W51209  17.051  33.815  31.440  0.1666  0.1639 -0.0143
 8116W        W51210  19.368  33.043  31.962  0.0400  0.1425 -0.0607
 8117W        W51211  14.284  31.050   2.197  0.0718 -0.2503 -0.0504
 8118W        W51212  15.019  33.751   1.530  0.0621 -0.1193 -0.2268
 8119W        W51213  16.333  33.915   1.249 -0.3033  0.1529  0.2244
 8120W        W51214  17.432  33.120   2.651  0.0137  0.5020  0.1012
 8121W        W51215  15.044  33.250   1.427  0.2379 -0.0653  0.0024
 8122W        W51216  15.076  32.170   0.507  0.0934  0.3505 -0.2459
 8123W        W51217  15.730  33.019   3.141 -0.2019  0.0305  0.0314
 8124W        W51218  17.723  33.212   5.281  0.3530  0.5588 -0.0060
 8125W        W51219  16.867  34.667   5.220  0.0973  0.2596  0.3230
 8126W        W51220  15.059  33.906   4.181  0.1244  0.2459  0.1319
 8127W        W51221  15.841  31.034   7.520 -0.0169  0.1750 -0.0685
 8128W        W51222  16.212  33.808   3.618  0.0116 -0.1641  0.1142
 8129W        W51223  16.215  32.001   4.947  0.1696  0.4728  0.2616
 8130W        W51224  16.503  32.222   1.734  0.0099 -0.0798 -0.1200
 8131W        W51225  13.961  33.002   6.560 -0.0707 -0.1610  0.4156
 8132W        W51226  17.830  33.803   5.657  0.1944  0.2182  0.3121
 8133W        W51227  14.375   0.659   3.614  0.2846  0.1798 -0.0413
 8134W        W51228  15.526  33.682   5.469 -0.0277  0.2559 -0.1025
 8135W        W51229  15.436  34.182   5.006 -0.1599 -0.2125 -0.0011
 8136W        W51230  17.401  32.678   6.228 -0.1001  0.2027  0.2279
 8137W        W51231  16.963  32.032   7.534  0.0486 -0.5414  0.0045
 8138W        W51232  15.320  32.401   3.624  0.1666  0.0118 -0.0634
 8139W        W51233  15.280  33.307   4.870 -0.0014  0.0514  0.0678
 8140W        W51234  15.263  33.193   5.367  0.0281  0.1887  0.0442
 8141W        W51235  16.443  32.848   5.483 -0.1582  0.1160 -0.1612
 8142W        W51236  17.712  34.337   5.760 -0.2151 -0.1121 -0.0116
 8143W        W51237  17.325  33.595   7.639 -0.1881  0.0797 -0.1487
 8144W        W51238  16.412  34.064   6.576  0.1839 -0.3661 -0.1288
 8145W        W51239  16.119  32.209   5.405  0.2388 -0.0707  0.4295
 8146W        W51240  18.771  31.388   7.870  0.1779 -0.3155 -0.2761
 8147W        W51241  17.051  34.080   4.569  0.1673  0.1024  0.1792
 8148W        W51242  16.985  33.289   2.404  0.0682 -0.0434 -0.0288
 8149W        W51243  17.981  33.277   4.899  0.1481  0.2363  0.2305
 8150W        W51244  15.681  31.504   4.920 -0.2081 -0.4600  0.0969
 8151W        W51245  16.085  32.969   5.901 -0.1416 -0.0582 -0.0112
 8152W        W51246  15.992  33.004   5.006 -0.1818 -0.2098  0.2409
 8153W        W51247  16.413  33.108   6.911  0.0060 -0.2473  0.1862
 8154W        W51248  14.407  34.546   5.229 -0.0049  0.1643  0.0348
 8155W        W51249  14.583  33.679   5.177 -0.0052  0.0889  0.1298
 8156W        W51250  14.216  34.457   7.044  0.1873 -0.5082 -0.2306
 8157W        W51251  15.401  33.795   8.176 -0.0723  0.1081 -0.2195
 8158W        W51252  13.980  32.717   3.518  0.1259  0.1875  0.0386
 8159W        W51253  18.540  33.195   5.582 -0.4057 -0.0152 -0.1750
 8160W        W51254  17.058  33.207   5.425  0.1124  0.2414 -0.1995
 8161W        W51255  18.639  31.834   7.601 -0.1972 -0.0122 -0.1057
 8162W        W51256  16.459   0.181   4.450  0.3168  0.3887 -0.0359
 8163W        W51257  16.740  33.216   7.264 -0.1829  0.0343 -0.2680
 8164W        W51258  15.912  33.685   6.368  0.1810 -0.1255  0.2236
 8165W        W51259  18.233  34.657   4.508 -0.0979  0.0389  0.1852
 8166W        W51260  15.243  32.901   6.412 -0.1949  0.1718  0.1363
 8167W        W51261  18.626  32.774   4.817 -0.0554 -0.4805 -0.0018
 8168W        W51262  17.033  33.506   4.572 -0.2044 -0.2694 -0.0026
 8169W        W51263  14.570  32.955   6.730  0.1221 -0.0839 -0.2508
 8170W        W51264  16.346  32.527   5.081 -0.0195  0.3717  0.0884
 8171W        W51265  16.589  31.799   8.215 -0.0948  0.3570  0.2294
 8172W        W51266  15.254  32.467   6.134  0.1359  0.1503  0.1249
 8173W        W51267  17.669  33.045   6.548  0.0831  0.3134  0.0061
 8174W        W51268  15.981  32.799   4.073 -0.0832  0.1475  0.2550
 8175W        W51269  18.302  34.416   4.021 -0.0385  0.3829  0.0706
 8176W        W51270  15.293  33.669   4.629  0.2715 -0.3771  0.1134
 8177W        W51271  17.838  32.299   7.818 -0.2785 -0.2507 -0.3324
 8178W        W51272  16.910  32.426   6.584 -0.1135 -0.1587  0.1989
 8179W        W51273  15.879  34.228   3.808  0.0095 -0.2093  0.0310
 8180W        W51274  15.733  33.778   4.335 -0.3722  0.1711  0.4471
 8181W        W51275  18.482  32.251   6.061  0.1239 -0.6304 -0.0129
 8182W        W51276  16.701  34.103   6.113  0.1614  0.1181  0.1243
 8183W        W51277  13.970  33.130   3.899 -0.1659  0.1754  0.1240
 8184W        W51278  15.280  32.237   5.166  0.3923 -0.2359  0.2296
 8185W        W51279  19.202  33.483   4.392  0.0154 -0.1405  0.1902
 8186W        W51280  15.275  33.201   6.805  0.1023 -0.1684 -0.0620
 8187W        W51281  15.517  32.565   5.661 -0.0554  0.1455 -0.1123
 8188W        W51282  16.234  34.264   3.382 -0.4236  0.3149 -0.2382
 8189W        W51283  16.762  31.465   5.804 -0.0682  0.2047  0.2451
 8190W        W51284  16.399  34.475   2.594  0.0046  0.0075 -0.0469
 8191W        W51285  18.889  34.247   3.859 -0.2481  0.0392  0.1827
 8192W        W51286  16.957  32.593   4.303 -0.1214 -0.3090  0.3311
 8193W        W51287  17.579  32.109   5.420 -0.1761 -0.0850  0.0305
 8194W        W51288  15.132  32.903   5.856 -0.1292 -0.0618 -0.1048
 8195W        W51289  16.137  31.685   2.467 -0.2566  0.3143 -0.1523
 8196W        W51290  16.519  31.534   4.170 -0.3108 -0.0376  0.0327
 8197W        W51291  16.895  32.689   6.152 -0.0700  0.1037  0.1755
 8198W        W51292  16.856  32.074   6.192  0.1494  0.0523 -0.2558
 8199W        W51293  17.277  31.234   6.917 -0.3018  0.0107  0.0416
 8200W        W51294  18.669  34.100   8.042 -0.1888  0.1486 -0.2412
 8201W        W51295  17.284  33.254   4.991 -0.2340 -0.0664  0.1287
 8202W        W51296  17.156   0.741   6.676  0.1564 -0.1652  0.3118
 8203W        W51297  16.519  33.851   1.967 -0.1309 -0.2228  0.0480
 8204W        W51298  17.243  32.782   6.816 -0.2579 -0.0872 -0.0876
 8205W        W51299  17.167  33.129   7.951  0.2800  0.0286 -0.2253
 8206W        W51300  17.388  32.825   5.529  0.1777 -0.2259 -0.0612
 8207W        W51301  14.664  32.819   5.636  0.0816  0.1278  0.0180
 8208W        W51302  18.601  32.632   7.016 -0.1752 -0.1025  0.2508
 8209W        W51303  15.707  34.280   4.312  0.1134 -0.0722 -0.0728
 8210W        W51304  14.395   0.882   5.724  0.0738 -0.2632  0.1233
 8211W        W51305  19.093  31.933   6.637  0.0215 -0.0621 -0.3028
 8212W        W51306  14.872  33.323   6.528 -0.3498  0.0748 -0.0629
 8213W        W51307  15.537  32.733   5.182  0.1538  0.2411  0.1449
 8214W        W51308  16.608  33.140   5.926 -0.4710 -0.5342  0.1723
 8215W        W51309  18.903  33.715   3.986 -0.3200 -0.1361 -0.0031
 8216W        W51310  16.146   0.563   6.856  0.0597  0.2911 -0.2151
 8217W        W51311  15.061  34.436   4.108 -0.2000 -0.0168 -0.0454
 8218W        W51312  18.010  32.823   6.138  0.2691 -0.1213  0.1618
 8219W        W51313  15.647  33.323   4.134  0.1428 -0.2906 -0.2476
 8220W        W51314  16.198  34.464   4.549  0.1119 -0.0369  0.2327
 8221W        W51315  16.197  33.524   6.776  0.0029 -0.3815  0.2426
 8222W        W51316  16.072  31.256   6.095  0.1532  0.0228  0.2004
 8223W        W51317  14.820  33.108   3.953 -0.1687  0.1700 -0.1986
 8224W        W51318  16.162  33.456   5.874 -0.1338  0.1084  0.1786
 8225W        W51319  16.552  32.369   5.819 -0.1890 -0.1042  0.0729
 8226W        W51320  16.051  31.885   5.817 -0.1891 -0.0353 -0.0288
 8227W        W51321  17.733  34.052   6.724 -0.0373 -0.0907  0.1854
 8228W        W51322  16.012  33.217   5.459  0.1018  0.2174 -0.0825
 8229W        W51323  17.685  32.818   3.510 -0.2867  0.1082 -0.2486
 8230W        W51324  18.982  32.097   6.052 -0.1801  0.1715  0.0159
 8231W        W51325  19.293  31.178   7.586  0.0236 -0.2087  0.0413
 8232W        W51326  17.100  34.149   5.703  0.4618 -0.1475  0.3339
 8233W        W51327  16.777  31.693   7.246 -0.2659 -0.2957 -0.0595
 8234W        W51328  16.452  32.602   6.773 -0.0302 -0.2606 -0.0119
 8235W        W51329  15.116  33.166   7.412  0.0571 -0.1292 -0.0640
 8236W        W51330  14.623  33.540   7.416 -0.3303 -0.2914  0.0300
 8237W        W51331  17.188  31.795   5.756  0.0932 -0.2106  0.2222
 8238W        W51332  14.336  31.905   3.365  0.1009 -0.2360 -0.0375
 8239W        W51333  15.156  34.204   6.030  0.2470 -0.2214 -0.0503
 8240W        W51334  16.992  33.824   6.348  0.1157  0.0315  0.2087
 8241W        W51335  15.282  34.684   4.932  0.0218 -0.1618  0.2293
 8242W        W51336  17.127  33.808   4.953  0.0661 -0.2804  0.3609
 8243W        W51337  16.800  31.452   7.724  0.1538 -0.0889  0.1393
 8244W        W51338  17.083  32.269   5.579 -0.0643 -0.2153 -0.3179
 8245W        W51339  17.772  31.992   6.772 -0.0176  0.1741 -0.4282
 8246W        W51340  16.477  33.498   6.322  0.1304  0.2701  0.0750
 8247W        W51341  15.738  34.195   6.303  0.0337  0.0047 -0.4112
 8248W        W51342  15.087  32.743   6.904 -0.3251  0.1698 -0.3427
 8249W        W51343  18.065  33.752   3.333 -0.1434 -0.3482 -0.0010
 8250W        W51344  19.382  33.254   6.827 -0.1402 -0.0606 -0.0715
 8251W        W51345  18.374  33.631   5.799  0.1668 -0.1396 -0.2812
 8252W        W51346  16.811  33.576   3.689  0.1109 -0.1129  0.0612
 8253W        W51347  15.813  34.121   5.337  0.0886 -0.0768  0.4946
 8254W        W51348  17.735  33.278   7.413 -0.1831 -0.0792 -0.2525
 8255W        W51349  15.315  33.722   3.555  0.1991  0.1346 -0.0769
 8256W        W51350  16.339  32.240   6.245 -0.1436  0.0287  0.0587
 8257W        W51351  17.060  33.181   5.930 -0.1098  0.0824  0.0745
 8258W        W51352  15.626  32.898   4.684 -0.0630  0.0655 -0.2823
 8259W        W51353  16.417  33.402   3.379  0.2778 -0.0439 -0.0257
 8260W        W51354  16.391  34.393   3.933 -0.2137 -0.2495 -0.0351
 8261W        W51355  16.499  31.756   5.277 -0.2057  0.0245 -0.1693
 8262W        W51356  17.678  32.562   6.671  0.0200 -0.2026 -0.1096
 8263W        W51357  16.277  32.310   4.514  0.2833 -0.1797 -0.0105
 8264W        W51358  16.755  31.292   8.187  0.2502  0.0513 -0.0114
 8265W        W51359  16.397   0.047   5.541  0.3027  0.1302 -0.2496
 8266W        W51360  15.782   0.431   6.077 -0.0839 -0.3555 -0.2632
 8267W        W51361  17.388  34.106   5.317 -0.0591 -0.0393  0.0720
 8268W        W51362  17.346  33.732   5.830  0.2522  0.0137  0.0940
 8269W        W51363  15.405  33.743   6.151  0.2004 -0.2241 -0.2143
 8270W        W51364  17.617  32.885   4.937  0.0617  0.0032  0.2157
 8271W        W51365  16.082  33.716   5.415  0.5940  0.0961  0.0219
 8272W        W51366  17.470  32.250   4.199  0.0821  0.1943  0.2239
 8273W        W51367  16.660  34.580   6.446  0.2068  0.1473 -0.1797
 8274W        W51368  18.261  32.922   5.204 -0.0340  0.0592  0.1054
 8275W        W51369  16.005  34.594   6.158  0.1099 -0.2134  0.1754
 8276W        W51370  14.407  33.057   3.069 -0.0983  0.1017 -0.1615
 8277W        W51371  16.563  33.884   7.000 -0.0561 -0.0033  0.1917
 8278W        W51372  19.054  31.005   6.426 -0.1007 -0.1740 -0.0641
 8279W        W51373  15.115  33.737   5.117  0.0091 -0.0703  0.2171
 8280W        W51374  16.838  33.659   5.883  0.1375  0.0572 -0.3809
 8281W        W51375  17.900  32.360   7.110  0.1020 -0.0006  0.3479
 8282W        W51376  16.605  31.907   5.774  0.1600  0.4114  0.0623
 8283W        W51377  14.306  32.755   4.988  0.2563 -0.1619 -0.1540
 8284W        W51378  16.829  32.803   5.153  0.0426  0.0495  0.2112
 8285W        W51379  16.009  33.203   7.136  0.0827  0.1149 -0.0290
 8286W        W51380  18.801  32.332   6.714 -0.0152 -0.0878  0.0240
 8287W        W51381  15.199  33.022   4.487  0.2297 -0.0183 -0.0047
 8288W        W51382  17.931  34.171   4.368 -0.2607 -0.0967 -0.1631
 8289W        W51383  15.393  33.757   6.661 -0.1298  0.1244  0.1585
 8290W        W51384  16.924  32.698   5.616  0.2489  0.0041  0.1425
 8291W        W51385  18.441  33.423   6.812  0.4814  0.1210  0.0130
 8292W        W51386  16.583  33.291   4.453  0.0116  0.0800  0.0562
 8293W        W51387  15.757  31.222   4.169 -0.1750  0.0448  0.1080
 8294W        W51388  17.580  33.600   4.686 -0.0203 -0.0793 -0.0878
 8295W        W51389  16.179  34.064   6.155 -0.0996 -0.0721  0.0648
 8296W        W51390  16.682  32.278   5.294  0.3382  0.1932 -0.0705
 8297W        W51391  14.622  34.248   4.423 -0.0055 -0.0948  0.3389
 8298W        W51392  18.667  34.632   5.845  0.1192 -0.2332 -0.1133
 8299W        W51393  17.322  34.640   5.404  0.1993  0.1833 -0.2003
 8300W        W51394  14.510  33.692   5.980  0.0921  0.2110 -0.1364
 8301W        W51395  16.993  32.980   4.601  0.0982 -0.2728  0.1556
 8302W        W51396  14.495  34.004   5.513 -0.3346  0.1108  0.0450
 8303W        W51397  17.470  33.625   5.375 -0.1811 -0.0066 -0.0454
 8304W        W51398  17.203  33.368   6.455 -0.3695  0.0371  0.0594
 8305W        W51399  17.353  32.178   6.544 -0.0328 -0.0793  0.0849
 8306W        W51400  17.976  32.942   5.648  0.0834  0.3325 -0.5182
 8307W        W51401  15.893  31.734   4.088  0.2881 -0.1323 -0.0191
 8308W        W51402  18.603  32.203   5.100  0.0783  0.0955 -0.0661
 8309W        W51403  19.283  32.473   5.860  0.1449  0.2131  0.0384
 8310W        W51404  14.947  33.679   6.889  0.2151 -0.0747  0.1540
 8311W        W51405  15.153   0.361   4.590  0.1846 -0.3021 -0.3062
 8312W        W51406  15.700  31.083   8.002 -0.0932 -0.0551 -0.1504
 8313W        W51407  15.611  33.253   6.377 -0.0873  0.0021  0.1304
 8314W        W51408  15.305  34.162   5.506  0.0215 -0.0008  0.1259
 8315W        W51409  15.769  33.712   3.792  0.3279 -0.0639 -0.0240
 8316W        W51410  16.033  32.604   6.378  0.2761 -0.2377 -0.0670
 8317W        W51411  13.852  31.570   5.926 -0.0658 -0.0765  0.1213
 8318W        W51412  17.306  32.587   4.662  0.3794 -0.0343 -0.1466
 8319W        W51413  16.586  33.723   7.468 -0.0582 -0.2647 -0.1367
 8320W        W51414  15.605  32.840   6.124  0.0346  0.2561 -0.3329
 8321W        W51415  14.258  33.526   3.233 -0.1642 -0.1705  0.3407
 8322W        W51416  16.010  32.666   5.418 -0.0819  0.1196  0.0926
 8323W        W51417  15.918  31.777   6.804  0.5134 -0.1844  0.0961
 8324W        W51418  17.292  32.296   7.804 -0.1091 -0.0919 -0.0837
 8325W        W51419  15.727  33.815   4.839 -0.0775  0.2651 -0.0654
 8326W        W51420  15.223  32.086   6.619  0.2468 -0.2373 -0.0799
 8327W        W51421  15.896  32.463   4.877 -0.3139  0.1337  0.0469
 8328W        W51422  16.714  32.469   4.733  0.0241  0.0713 -0.2235
 8329W        W51423  15.226  34.365   6.529 -0.0389  0.1524 -0.0501
 8330W        W51424  15.735  33.378   4.637  0.2549  0.2425 -0.5213
 8331W        W51425  16.321  33.060   6.381 -0.1602  0.1651 -0.1020
 8332W        W51426  16.232  33.552   4.041  0.0270 -0.1410  0.1026
 8333W        W51427  18.610  34.162   4.672  0.1481  0.0999 -0.2314
 8334W        W51428  14.904  32.203   6.954 -0.0559 -0.0376 -0.3398
 8335W        W51429  15.804  34.448   4.789  0.1462 -0.4763  0.3200
 8336W        W51430  16.607   0.323   5.050  0.1457  0.1264 -0.1313
 8337W        W51431  16.787  32.979   6.572 -0.0873 -0.0177  0.0940
 8338W        W51432  16.211  31.805   4.466 -0.1687  0.0372  0.0954
 8339W        W51433  17.272  31.776   4.276 -0.0689 -0.3518 -0.1056
 8340W        W51434  14.568  32.323   8.009 -0.1031  0.0582 -0.1909
 8341W        W51435  18.390  32.290   7.382 -0.1421  0.3439  0.1058
 8342W        W51436  17.404  33.575   8.242 -0.0992  0.0133 -0.0619
 8343W        W51437  14.604  32.539   9.443 -0.1852  0.3755 -0.1153
 8344W        W51438  17.714  33.621   7.060  0.1502 -0.1762 -0.0650
 8345W        W51439  15.438  33.437   8.602  0.2105  0.1620 -0.1789
 8346W        W51440  15.581  32.511   6.510 -0.2998  0.1354  0.0914
 8347W        W51441  15.226  33.748   9.858  0.3400 -0.0891 -0.1504
 8348W        W51442  16.718  32.816  10.377 -0.0003 -0.1516 -0.0150
 8349W        W51443  16.219  33.432   9.208 -0.1150 -0.0713  0.0583
 8350W        W51444  14.977  32.989   8.738 -0.0287 -0.1201 -0.1398
 8351W        W51445  16.789  33.598   8.767 -0.0800 -0.2925 -0.2736
 8352W        W51446  15.796  32.831   9.864  0.2239  0.4277 -0.1214
 8353W        W51447  14.880  33.967   7.336  0.1965 -0.2227 -0.1329
 8354W        W51448  14.614  33.211   8.941 -0.0489 -0.3966  0.2273
 8355W        W51449  15.589  34.518   9.735  0.0932  0.2483 -0.1273
 8356W        W51450  17.956  32.681   9.972  0.4298 -0.3088 -0.1036
 8357W        W51451  17.575  33.590   8.731  0.1341  0.3055  0.1792
 8358W        W51452  18.744  33.228   9.999 -0.3019  0.0658 -0.1833
 8359W        W51453  16.854  33.524   8.270 -0.1032  0.2642  0.2611
 8360W        W51454  18.606  32.753   7.504  0.3136 -0.0738 -0.0186
 8361W        W51455  16.303  33.297   7.568 -0.2971  0.2244  0.0151
 8362W        W51456  17.569  33.105   8.326  0.3162 -0.2283 -0.4045
 8363W        W51457  15.678  32.580   9.339 -0.0548 -0.3017  0.2438
 8364W        W51458  17.580  31.437  10.428 -0.2492 -0.4714 -0.1419
 8365W        W51459  17.155  33.876   8.517  0.0136 -0.0121 -0.1391
 8366W        W51460  17.814  33.151   8.917 -0.2759 -0.2547  0.1216
 8367W        W51461  15.047  33.082   8.143 -0.3450  0.1275 -0.0896
 8368W        W51462  14.032  33.504   9.759 -0.2650  0.0370 -0.1698
 8369W        W51463  16.715  31.642   6.268  0.1277 -0.3743 -0.0950
 8370W        W51464  19.188  34.616   9.215  0.0080  0.0664 -0.2374
 8371W        W51465  16.799  32.281   9.157 -0.0020  0.0914  0.0095
 8372W        W51466  17.840  32.577   9.526  0.4385 -0.3423 -0.1296
 8373W        W51467  16.593   0.679   7.297 -0.1629  0.0049 -0.1992
 8374W        W51468  14.458  33.630   9.268  0.2041  0.0095 -0.1976
 8375W        W51469  17.975  31.978   7.444 -0.1566 -0.1055  0.3572
 8376W        W51470  17.625  31.775   8.954 -0.1490 -0.1373 -0.3410
 8377W        W51471  17.199  34.332   8.907  0.0609  0.1246  0.1407
 8378W        W51472  13.791  32.963   9.154  0.0826  0.1212  0.2457
 8379W        W51473  14.783  33.020   9.422 -0.0838  0.0595 -0.0587
 8380W        W51474  15.755  33.753   9.082  0.1087 -0.2644  0.0396
 8381W        W51475  14.332  33.330   7.752 -0.1752  0.0201  0.0256
 8382W        W51476  18.220  33.389   9.066  0.0052  0.1748  0.0106
 8383W        W51477  16.029  33.267   9.696 -0.1753 -0.6444  0.0659
 8384W        W51478  15.508  33.350   8.010  0.1591 -0.1243  0.2228
 8385W        W51479  15.909  32.847   7.630 -0.4113 -0.0274  0.1888
 8386W        W51480  17.010  32.877   8.370  0.0677 -0.2013  0.1954
 8387W        W51481  15.511  32.534   7.500 -0.6133 -0.0648 -0.2791
 8388W        W51482  16.382  33.382   8.633  0.3072 -0.0754  0.0835
 8389W        W51483  17.834   0.348   9.783 -0.2395 -0.0214  0.0822
 8390W        W51484  15.727  33.313   7.533  0.1693 -0.3272  0.1765
 8391W        W51485  17.272  31.963   9.282  0.0203 -0.1343 -0.2696
 8392W        W51486  18.911  32.251   7.530 -0.1959  0.4827 -0.3037
 8393W        W51487  18.021  32.665   7.510  0.0821 -0.0211  0.1033
 8394W        W51488  17.414  32.304   7.075  0.1810 -0.2760 -0.2417
 8395W        W51489  16.787  32.875   7.676  0.1910  0.0838  0.0567
 8396W        W51490  15.364  32.177   9.284  0.1941 -0.0135 -0.1370
 8397W        W51491  17.185  32.650   7.424 -0.0854 -0.1539  0.1669
 8398W        W51492  15.142  32.623   9.201 -0.2943  0.0523  0.1873
 8399W        W51493  18.238  33.069  10.325  0.0929  0.1773 -0.0684
 8400W        W51494  16.664  32.607   9.530 -0.0647 -0.2269 -0.0842
 8401W        W51495  17.485  32.753   9.966  0.2758  0.0280  0.0795
 8402W        W51496  16.950  32.727   9.924  0.1049  0.0498  0.2832
 8403W        W51497  16.304  34.572   7.595  0.2125 -0.0794 -0.0646
 8404W        W51498  17.836  31.366   9.231 -0.1666 -0.3574 -0.0934
 8405W        W51499  15.593  33.406   5.880 -0.1976  0.1210 -0.1279
 8406W        W51500  16.334  31.892   9.070  0.0097  0.5599 -0.1185
 8407W        W51501  18.951  31.529   8.887 -0.1220  0.1371  0.1178
 8408W        W51502  16.310  32.765   7.911  0.0008 -0.0108 -0.0190
 8409W        W51503  14.930  33.972   8.699  0.2119 -0.0656  0.0890
 8410W        W51504  18.322  32.450   9.701 -0.0778 -0.0933 -0.1736
 8411W        W51505  14.512  32.288   9.879  0.4144  0.1103  0.1120
 8412W        W51506  16.434  32.718   9.094  0.1051  0.1073 -0.0237
 8413W        W51507  16.845  32.806   7.073  0.0809 -0.0190  0.4234
 8414W        W51508  15.989  33.181   8.006 -0.0163 -0.2107 -0.1622
 8415W        W51509  21.195  32.979   9.650 -0.0758  0.0566 -0.0167
 8416W        W51510  16.151  32.064   8.493  0.1395  0.0532  0.0581
 8417W        W51511  15.257  34.089   7.045  0.3850  0.2640  0.0615
 8418W        W51512  17.369  32.599   9.535 -0.0060 -0.1418  0.1275
 8419W        W51513  15.982  32.471   8.961  0.0983 -0.1019 -0.0129
 8420W        W51514  14.771  32.251   7.571  0.2934  0.0422 -0.1753
 8421W        W51515  17.136  33.129   9.641 -0.1610 -0.0360  0.1140
 8422W        W51516  16.649  32.399  10.095  0.0528  0.0137  0.1575
 8423W        W51517  14.832  32.196   9.115  0.1026  0.0800 -0.0338
 8424W        W51518  15.013  33.472   8.851  0.2287  0.0428 -0.0578
 8425W        W51519  18.932  30.064   9.331  0.2902 -0.2571 -0.2012
 8426W        W51520  16.660  32.040   8.706  0.0693  0.3758 -0.0871
 8427W        W51521  16.841  34.222   8.300 -0.1775 -0.0813  0.0717
 8428W        W51522  16.430  29.632  10.107  0.2030  0.0629 -0.4405
 8429W        W51523  16.402  32.333   8.142 -0.1491 -0.1380 -0.0067
 8430W        W51524  15.820  33.954   6.854 -0.1407 -0.2034 -0.2725
 8431W        W51525  14.377  34.078  10.245  0.1470 -0.0878 -0.1037
 8432W        W51526  17.787  33.626   9.217  0.1291  0.1883 -0.0580
 8433W        W51527  15.247  33.155   9.158  0.0726 -0.1645  0.0860
 8434W        W51528  18.272  33.796   9.344 -0.0583 -0.1259 -0.3264
 8435W        W51529  17.600  31.667   9.549  0.3317 -0.0063 -0.1256
 8436W        W51530  18.146  33.175   7.724 -0.3984 -0.2103  0.1886
 8437W        W51531  18.851  32.404   9.967 -0.3475  0.2410  0.1015
 8438W        W51532  17.589  33.318   9.664 -0.0529 -0.2277  0.1436
 8439W        W51533  16.613  33.118   8.139  0.0625  0.1598 -0.0954
 8440W        W51534  14.009  34.504   8.805 -0.1453  0.2332  0.0326
 8441W        W51535  16.807  31.596   8.847  0.0208  0.1521  0.0363
 8442W        W51536  17.661  33.337   7.884  0.1041 -0.2338  0.1948
 8443W        W51537  14.084  33.917   9.515 -0.5083 -0.0869 -0.1090
 8444W        W51538  16.313  33.592   8.017 -0.1419  0.1499  0.1520
 8445W        W51539  15.455  33.938   8.651  0.1280 -0.0742 -0.0337
 8446W        W51540  17.745  30.870   9.212  0.2730 -0.3024 -0.3314
 8447W        W51541  15.805  31.403   8.818 -0.0739 -0.0835  0.0844
 8448W        W51542  15.120  33.283   9.811  0.3688 -0.1800 -0.1845
 8449W        W51543  16.994  32.871   9.201 -0.1821 -0.0084 -0.1956
 8450W        W51544  17.071  32.250   9.737 -0.2043  0.1682 -0.2357
 8451W        W51545  15.959  33.779   8.442 -0.0935  0.1345 -0.2945
 8452W        W51546  14.546  32.527   6.982  0.2490 -0.0327  0.0509
 8453W        W51547  16.804  31.825   9.361 -0.0047 -0.1702 -0.0922
 8454W        W51548  17.145  31.823   7.975 -0.0966 -0.0603 -0.0765
 8455W        W51549  19.848  33.059   9.684  0.2666 -0.1114  0.1309
 8456W        W51550  18.171  34.071   8.061 -0.2184 -0.0028 -0.0654
 8457W        W51551  16.739  33.048   8.747  0.1167 -0.2359 -0.0092
 8458W        W51552  15.838  32.081   9.258  0.0683 -0.1363 -0.0246
 8459W        W51553  15.820  32.605   8.070  0.0733  0.0201  0.0637
 8460W        W51554  17.161  33.295   8.660  0.0179  0.0732 -0.0181
 8461W        W51555  17.302  31.951  10.149 -0.1099 -0.0220 -0.0975
 8462W        W51556  17.097  32.437   8.586  0.0205 -0.1706  0.0108
 8463W        W51557  13.646  33.348   7.586  0.0471  0.2376 -0.2076
 8464W        W51558  18.478  32.770   9.271  0.2180 -0.1563 -0.3068
 8465W        W51559  16.056  31.920   9.731  0.0780  0.0830 -0.2827
 8466W        W51560  16.197  34.064   7.599  0.0248  0.3983 -0.1098
 8467W        W51561  17.905  33.718   7.620 -0.1517  0.1077  0.0965
 8468W        W51562  13.307  34.076  10.256 -0.1576  0.2207 -0.2646
 8469W        W51563  17.210  33.158   7.437 -0.1530 -0.0379 -0.1421
 8470W        W51564  17.551  32.810   7.743  0.4794  0.1270 -0.0738
 8471W        W51565  13.895  33.514   9.216  0.2990  0.0688 -0.0025
 8472W        W51566  16.628  32.392   7.712 -0.1616  0.2181 -0.0115
 8473W        W51567  16.332  34.485   8.827 -0.1235 -0.2794 -0.1235
 8474W        W51568  18.859  32.944   9.635 -0.3346  0.1375  0.1056
 8475W        W51569  12.761  32.152   8.500  0.0935  0.1732  0.0253
 8476W        W51570  18.358  32.906   9.785  0.0165 -0.0357  0.1212
 8477W        W51571  18.362  33.815   8.435 -0.2279 -0.3201  0.3563
 8478W        W51572  13.324  33.473  10.129  0.3514 -0.1457  0.1058
 8479W        W51573  17.147  30.961   8.612  0.1665 -0.0899 -0.0992
 8480W        W51574  16.135  32.789   9.469  0.2160 -0.2087 -0.0291
 8481W        W51575  18.052  33.132   9.444  0.0220 -0.1325 -0.1143
 8482W        W51576  17.365  33.374   9.124 -0.1359 -0.1347  0.1827
 8483W        W51577  16.426  32.714   7.329 -0.0294  0.0810 -0.0323
 8484W        W51578  16.609  32.611   8.559 -0.0548 -0.1779  0.0441
 8485W        W51579  18.089  31.785   9.238 -0.3829  0.0040  0.1345
 8486W        W51580  16.566  33.132   9.498  0.3140  0.0762 -0.0980
 8487W        W51581  15.462  32.924   7.810 -0.2231 -0.1226 -0.1830
 8488W        W51582  15.963   0.190   9.623  0.4258  0.0665 -0.0720
 8489W        W51583  14.285  32.251   9.094  0.2124 -0.0978 -0.2240
 8490W        W51584  15.244  32.356   8.684  0.1381  0.3027 -0.1620
 8491W        W51585  14.203  33.941   8.171  0.0932  0.0936 -0.0607
 8492W        W51586  15.491  32.001   8.387  0.3306  0.0864  0.1438
 8493W        W51587  14.239  32.058   7.640  0.1301  0.1010 -0.0511
 8494W        W51588  17.242  31.984   8.723  0.0304  0.0959  0.2307
 8495W        W51589  14.998  32.317   9.627 -0.0033  0.0761  0.1394
 8496W        W51590  18.556  28.365  10.139  0.2112 -0.2001  0.3110
 8497W        W51591  17.026  33.636   7.214 -0.3279  0.2174  0.0720
 8498W        W51592  15.351  32.676   8.350 -0.1049  0.0575 -0.1896
 8499W        W51593  18.091  33.324   8.535 -0.0954  0.0587 -0.0432
 8500W        W51594  16.266  34.237   9.224  0.1572 -0.1451  0.2717
 8501W        W51595  16.676  33.863   7.932  0.0802  0.1069 -0.2243
 8502W        W51596  17.346  33.338   7.000 -0.0275 -0.0093 -0.1188
 8503W        W51597  18.499  34.191   9.026 -0.2086 -0.1237  0.0467
 8504W        W51598  14.353  32.789  10.288 -0.1424 -0.4459  0.2189
 8505W        W51599  15.225  34.336   8.993  0.1591  0.3133 -0.1354
 8506W        W51600  16.216   0.383   7.397 -0.0293  0.1090  0.0150
 8507W        W51601  17.981  33.584   9.790  0.0929 -0.1079  0.0275
 8508W        W51602  15.700  33.047   8.403 -0.1317 -0.3471  0.0977
 8509W        W51603  17.384  32.121   8.271 -0.1712  0.4592  0.1721
 8510W        W51604  19.932   1.124   2.741  0.0410  0.5593 -0.0806
 8511W        W51605  18.987   1.428   0.755  0.5032 -0.0207 -0.1767
 8512W        W51606  22.638   2.809  30.580 -0.0217  0.4487 -0.1438
 8513W        W51607  22.632   1.635   0.602  0.1027 -0.0129 -0.0584
 8514W        W51608  18.236   0.090   1.287 -0.1734 -0.3233 -0.4003
 8515W        W51609  20.384   2.666   0.127  0.1417  0.0474 -0.0639
 8516W        W51610  18.752   0.085   3.805 -0.1533  0.0029 -0.0240
 8517W        W51611  21.172   2.225   2.297  0.2985  0.1176  0.1278
 8518W        W51612  21.996   2.218   2.180 -0.0524 -0.0774 -0.0494
 8519W        W51613  20.247   1.704  31.925  0.5000  0.0537  0.0388
 8520W        W51614  18.981   1.964   2.596  0.0499  0.0429  0.0433
 8521W        W51615  19.932   2.870   1.646  0.1845 -0.0538  0.2555
 8522W        W51616  19.140   0.595   1.119  0.5138  0.1562  0.1151
 8523W        W51617  18.117  34.202   3.059 -0.1135  0.0552  0.4063
 8524W        W51618  20.726   0.391   2.418  0.1149  0.3380  0.3019
 8525W        W51619  18.221   1.756   1.506  0.1877  0.2329 -0.0892
 8526W        W51620  18.474   1.281   1.711  0.1548  0.0024  0.0390
 8527W        W51621  18.534   1.590   0.987  0.1426 -0.0390  0.1148
 8528W        W51622  19.899   3.855   1.553  0.1244 -0.1388 -0.1894
 8529W        W51623  20.316   0.335   1.912  0.0067 -0.1463  0.4715
 8530W        W51624  20.241   0.336   2.369 -0.1538 -0.2762 -0.0986
 8531W        W51625  22.095   3.329  31.834  0.0293  0.0038  0.2037
 8532W        W51626  18.851   2.340   1.165  0.0332 -0.3751 -0.0287
 8533W        W51627  17.710   1.985   1.416  0.2963 -0.0892  0.2326
 8534W        W51628  17.868   1.046   2.772  0.0050 -0.0381  0.2816
 8535W        W51629  19.643   0.804   1.879 -0.0355 -0.2417  0.0974
 8536W        W51630  21.443   1.072   1.757 -0.0970 -0.1187 -0.1158
 8537W        W51631  19.828   2.965   1.071 -0.1488  0.1432 -0.0510
 8538W        W51632  20.488   3.268   1.166  0.1830  0.0441 -0.0416
 8539W        W51633  22.016   1.250   3.288 -0.2415 -0.1785  0.1584
 8540W        W51634  19.050   2.012   0.508 -0.3317 -0.0443  0.1827
 8541W        W51635  18.214   3.306   1.637 -0.1636 -0.1860 -0.2090
 8542W        W51636  17.824   3.992   0.913  0.0451 -0.1750 -0.1941
 8543W        W51637  21.629   1.541   1.087 -0.3093  0.1581 -0.0306
 8544W        W51638  21.733   2.744   3.674 -0.2986  0.1189 -0.2233
 8545W        W51639  19.134   3.969   2.858  0.0761 -0.0545 -0.0116
 8546W        W51640  18.759   2.333   0.101 -0.1457  0.0382 -0.0776
 8547W        W51641  20.466   4.178   3.209 -0.0387 -0.0504 -0.0124
 8548W        W51642  19.554   4.306   2.675  0.1856 -0.0808  0.1193
 8549W        W51643  20.240   1.516   2.778 -0.0350  0.1518 -0.1097
 8550W        W51644  20.782   2.490   2.704 -0.0600  0.2686  0.3692
 8551W        W51645  20.246   3.557  31.019 -0.0398 -0.0714  0.0455
 8552W        W51646  20.326   2.661   1.923 -0.2272  0.1637  0.0761
 8553W        W51647  18.248   2.287   2.880 -0.3437  0.1480  0.0810
 8554W        W51648  18.395   1.933   1.964 -0.1398 -0.1161  0.0097
 8555W        W51649  21.709   1.071   3.663  0.0979  0.1364  0.0739
 8556W        W51650  19.796   3.048   0.588 -0.0157 -0.2664  0.0215
 8557W        W51651  21.381   2.903  31.227 -0.1913  0.1217  0.0363
 8558W        W51652  19.553   1.555  31.884  0.6785  0.1990  0.2003
 8559W        W51653  20.684   1.990  31.468  0.1472 -0.4024 -0.0548
 8560W        W51654  18.713   0.213   0.506 -0.1657 -0.3002 -0.0211
 8561W        W51655  19.777   3.788   1.035 -0.1160 -0.1143  0.0291
 8562W        W51656  19.012  34.507   1.862  0.1006  0.3021 -0.0168
 8563W        W51657  21.908   1.543   2.380  0.0723 -0.3312 -0.0239
 8564W        W51658  21.261   1.687   2.408 -0.1829  0.0458  0.0614
 8565W        W51659  20.995   0.988   1.886  0.1649 -0.1889 -0.2157
 8566W        W51660  18.423   4.157   1.576 -0.0503  0.1778 -0.1852
 8567W        W51661  18.778   0.834   0.647 -0.0441  0.0557 -0.0720
 8568W        W51662  21.896   2.297  31.974  0.0904  0.3666 -0.3346
 8569W        W51663  22.705   0.984   0.494  0.1285 -0.3001  0.0970
 8570W        W51664  19.728   3.128  31.807 -0.1788  0.0908  0.4226
 8571W        W51665  19.159   2.580   2.414  0.3450 -0.4267 -0.1512
 8572W        W51666  18.895   2.378   2.892 -0.1084  0.0823  0.1093
 8573W        W51667  19.347   1.268   2.086 -0.0224 -0.1573  0.1831
 8574W        W51668  19.815   1.277   1.894 -0.1279 -0.1196 -0.0733
 8575W        W51669  22.608   3.070   4.302 -0.0495  0.0554 -0.2244
 8576W        W51670  19.902   3.482   2.453 -0.0274  0.1490  0.2556
 8577W        W51671  21.968   0.968   1.693  0.2554  0.1299  0.2722
 8578W        W51672  20.280   3.439   1.889 -0.1331 -0.0512  0.4245
 8579W        W51673  22.215   3.488   3.041 -0.0720 -0.2742 -0.2136
 8580W        W51674  23.171   0.237  31.549 -0.0056 -0.4124 -0.2725
 8581W        W51675  21.292  34.074   1.554  0.0945  0.0557  0.0546
 8582W        W51676  19.325   0.214   1.387  0.3754 -0.0832 -0.0395
 8583W        W51677  19.219   0.327  30.626 -0.0707  0.1273  0.2381
 8584W        W51678  20.268   2.348   0.673  0.3876  0.2576 -0.1857
 8585W        W51679  21.793   2.959   2.554 -0.0223  0.0353  0.1254
 8586W        W51680  22.182   1.070  31.842  0.0039 -0.0648  0.0255
 8587W        W51681  19.287   3.953   0.880  0.2225  0.0521 -0.1676
 8588W        W51682  20.361   2.218   2.433  0.1624 -0.1699  0.0307
 8589W        W51683  19.121   2.784   3.799 -0.1264 -0.0690  0.1593
 8590W        W51684  19.627   2.588  30.923  0.1939  0.1898 -0.2053
 8591W        W51685  18.397   2.873   1.772 -0.1031 -0.5695 -0.1584
 8592W        W51686  20.706   1.281  31.907  0.1765 -0.3863  0.3787
 8593W        W51687  19.282   0.688   1.588  0.2654 -0.1277  0.1583
 8594W        W51688  20.492   2.825   2.414 -0.0258 -0.0643  0.0143
 8595W        W51689  21.577   1.795  31.821 -0.2418  0.0620  0.0835
 8596W        W51690  18.799   0.801   3.221  0.1394 -0.1723 -0.3114
 8597W        W51691  21.890   0.359   1.730 -0.1682 -0.0096 -0.0353
 8598W        W51692  20.035   2.594   2.483  0.0917  0.0925  0.0527
 8599W        W51693  21.307   4.073   0.798 -0.1233 -0.1156  0.3606
 8600W        W51694  20.358   1.162   0.358 -0.3820  0.2863 -0.2409
 8601W        W51695  21.017   1.642   1.201 -0.3960 -0.0442 -0.0451
 8602W        W51696  18.957   2.580   3.335 -0.1729  0.0381 -0.1864
 8603W        W51697  17.595   0.087   1.910 -0.0172  0.4389  0.1397
 8604W        W51698  18.639   1.274   4.607 -0.1035  0.2440 -0.0666
 8605W        W51699  18.807   0.152   2.226  0.0412 -0.0140 -0.1866
 8606W        W51700  21.835   1.208   2.834  0.0071 -0.2218  0.2813
 8607W        W51701  19.515   1.127   1.497  0.0314 -0.1203  0.0899
 8608W        W51702  19.924   2.353   1.667 -0.0328 -0.1432  0.0800
 8609W        W51703  19.729   1.735   0.341  0.2574 -0.1726 -0.0517
 8610W        W51704  18.575   2.427   1.626  0.0650  0.1457  0.0679
 8611W        W51705  21.261   0.422   2.514  0.1140 -0.3026 -0.2933
 8612W        W51706  19.896   2.558   0.181  0.3105 -0.1132 -0.2587
 8613W        W51707  21.584   2.509   2.288  0.0254 -0.0775 -0.1041
 8614W        W51708  20.717   3.377   0.687 -0.0396  0.1133 -0.1429
 8615W        W51709  19.413   0.357   3.228  0.3063  0.0308  0.3373
 8616W        W51710  18.629   2.202   0.721 -0.0091 -0.0669 -0.0249
 8617W        W51711  19.096   4.554   2.384  0.1621  0.0467 -0.0708
 8618W        W51712  19.191   3.458   1.581 -0.0024  0.0985 -0.0410
 8619W        W51713  19.939   0.368   0.570  0.2023  0.1435 -0.1548
 8620W        W51714  22.272   2.864   1.155  0.1078  0.4141  0.3588
 8621W        W51715  20.950   2.690  30.983  0.0039  0.0531 -0.1096
 8622W        W51716  18.529   2.533   2.543 -0.3077  0.1387  0.0188
 8623W        W51717  22.021  34.142   3.324  0.1894 -0.0003 -0.0097
 8624W        W51718  21.149   2.742   2.277 -0.0215 -0.2324 -0.1302
 8625W        W51719  22.199   1.644   1.403 -0.0006 -0.1183  0.1230
 8626W        W51720  17.980   0.480   0.947 -0.0889 -0.2358 -0.0187
 8627W        W51721  20.102   3.066   0.122  0.1250 -0.0412  0.3292
 8628W        W51722  17.726   4.087  31.875  0.0739 -0.0412 -0.2328
 8629W        W51723  19.438   3.046   1.746 -0.4334  0.1873  0.2343
 8630W        W51724  20.772   3.580   1.799 -0.2704  0.0194  0.0257
 8631W        W51725  21.485   0.334   3.010 -0.2240 -0.1532 -0.1986
 8632W        W51726  18.401   1.996   3.823 -0.1864 -0.0228  0.0402
 8633W        W51727  20.059   1.509   3.769 -0.0332 -0.0038  0.0462
 8634W        W51728  17.553   2.212   1.851  0.0702  0.3082 -0.1259
 8635W        W51729  19.151   3.047   2.519 -0.0729 -0.0874  0.1236
 8636W        W51730  20.117   0.518   1.097  0.0251  0.2458  0.0980
 8637W        W51731  21.108   1.504   1.658  0.0911 -0.0999 -0.4798
 8638W        W51732  20.583   0.927   3.962  0.1779  0.2426  0.0237
 8639W        W51733  21.440   3.338   0.669  0.0430  0.0834 -0.0670
 8640W        W51734  19.856   1.551   1.133 -0.1878 -0.2209  0.0921
 8641W        W51735  20.189   0.507  31.613 -0.1976  0.0727 -0.1809
 8642W        W51736  19.277   2.004   4.299  0.1421 -0.1403 -0.0867
 8643W        W51737  20.927   0.879   0.748  0.0408 -0.0789 -0.0720
 8644W        W51738  20.651   1.562   3.101  0.1802  0.0425  0.0346
 8645W        W51739  20.157   1.330   0.858 -0.1333  0.1775  0.1864
 8646W        W51740  23.025   2.948   0.453  0.0136 -0.2597 -0.1564
 8647W        W51741  18.377   2.051   2.478  0.0933  0.0864  0.1041
 8648W        W51742  20.706   1.378   2.640 -0.1673  0.1713  0.1589
 8649W        W51743  22.372   1.829   2.123 -0.2381 -0.0940 -0.1691
 8650W        W51744  19.185   1.856   2.094 -0.1858 -0.0474 -0.0873
 8651W        W51745  20.001   0.823  31.214  0.0755 -0.0175 -0.0612
 8652W        W51746  19.254   1.534   1.682 -0.1464  0.0784  0.2049
 8653W        W51747  18.594   4.502   0.051 -0.1189  0.3480 -0.1539
 8654W        W51748  21.359  34.118   2.578 -0.1138 -0.0975 -0.2533
 8655W        W51749  20.189  34.288   1.878  0.2957  0.1633 -0.0702
 8656W        W51750  20.972  34.511   3.600 -0.0178 -0.0922 -0.2573
 8657W        W51751  22.441   1.332   2.380  0.0230 -0.0684  0.3506
 8658W        W51752  21.224   1.994   1.673 -0.0098 -0.2273  0.1239
 8659W        W51753  22.149   1.415   1.965  0.0725 -0.0430 -0.0171
 8660W        W51754  19.827   2.018  31.840 -0.2428 -0.0491 -0.0479
 8661W        W51755  20.382   0.455   2.792  0.0148  0.0318 -0.1912
 8662W        W51756  18.697   1.973   3.025  0.0703 -0.0542 -0.2178
 8663W        W51757  17.594   4.210   1.822 -0.1374 -0.1586  0.5114
 8664W        W51758  21.285   3.154   2.503  0.2716 -0.1685  0.3021
 8665W        W51759  19.914   1.308   0.191 -0.0566 -0.0277  0.1948
 8666W        W51760  19.432  33.241   2.744  0.2018  0.0771  0.3184
 8667W        W51761  17.839   1.436   0.710 -0.1121 -0.1830 -0.0925
 8668W        W51762  19.323   4.123  31.913  0.0482  0.2817 -0.1343
 8669W        W51763  19.846   3.478   0.310 -0.2538  0.0503 -0.1739
 8670W        W51764  19.807   0.345   1.818  0.1053  0.3254  0.2171
 8671W        W51765  20.294   2.922   0.780 -0.1789  0.0497 -0.3236
 8672W        W51766  19.415   2.056   0.123 -0.0171 -0.0919  0.1754
 8673W        W51767  21.848   1.770   4.096  0.0364  0.0014 -0.0019
 8674W        W51768  18.020   2.265  31.619  0.3802 -0.2918 -0.1806
 8675W        W51769  21.640  33.461   2.662  0.3300 -0.2060 -0.2422
 8676W        W51770  19.447   3.732   1.986  0.0272  0.1333  0.1194
 8677W        W51771  18.232   2.203   0.366 -0.0574  0.0961 -0.2205
 8678W        W51772  18.903   2.059   1.767  0.0409  0.2582  0.2717
 8679W        W51773  20.402  33.836   0.410  0.1257 -0.4980  0.0616
 8680W        W51774  21.183   1.340   0.886  0.2759 -0.1925  0.4614
 8681W        W51775  18.814   1.584   1.389 -0.2832  0.3038 -0.2813
 8682W        W51776  19.377   1.005   0.902 -0.1883  0.1861  0.2317
 8683W        W51777  18.698   3.650   1.288  0.2190  0.1614  0.2833
 8684W        W51778  20.668   1.819   1.571 -0.1955 -0.1657 -0.1760
 8685W        W51779  20.431  34.370   1.492  0.2653  0.0294 -0.1886
 8686W        W51780  20.544   4.085   2.098 -0.0529  0.1060 -0.0653
 8687W        W51781  19.110   1.460   2.507 -0.1183 -0.0163 -0.1551
 8688W        W51782  18.648   0.979  31.774  0.1749 -0.0495  0.1735
 8689W        W51783  21.772   2.207   2.911 -0.0396 -0.0162  0.0079
 8690W        W51784  18.816   1.589   1.982  0.2835  0.0784  0.0160
 8691W        W51785  17.933   1.686   2.385  0.1577  0.1672  0.2156
 8692W        W51786  20.583   3.926   2.684 -0.1229 -0.2674  0.0671
 8693W        W51787  18.787   1.287   0.335  0.0536 -0.0650  0.2017
 8694W        W51788  18.974   2.766  31.958  0.0250 -0.2151  0.2960
 8695W        W51789  19.464   1.833   2.531 -0.0655  0.1059 -0.2478
 8696W        W51790  22.370   0.971   1.980  0.0813  0.1308 -0.1717
 8697W        W51791  20.169   1.305   1.508  0.1538 -0.0791 -0.1897
 8698W        W51792  20.137   1.700   1.904  0.0040  0.4386  0.1981
 8699W        W51793  18.745   1.434  31.428 -0.2022 -0.3172 -0.2176
 8700W        W51794  20.864   2.748   4.118  0.1158  0.1674 -0.0330
 8701W        W51795  19.992  34.307   2.432  0.0108 -0.2928  0.0313
 8702W        W51796  19.340   2.657   2.925  0.1814 -0.1950  0.2216
 8703W        W51797  20.114   0.006   2.726  0.1513  0.2503 -0.2368
 8704W        W51798  21.604   5.015  30.589  0.0340 -0.0787 -0.0036
 8705W        W51799  22.501   1.307   3.419 -0.1394 -0.3579  0.2548
 8706W        W51800  18.341   0.599   0.521 -0.0400 -0.1074 -0.0181
 8707W        W51801  18.183   3.058   1.010 -0.0370 -0.3764 -0.3622
 8708W        W51802  20.233   2.222  31.443  0.2156  0.1183  0.1439
 8709W        W51803  21.205  34.616   2.502 -0.2305  0.1121  0.0437
 8710W        W51804  19.314   2.995   1.197 -0.0118  0.0350 -0.2033
 8711W        W51805  19.205   2.493   0.340 -0.1361 -0.2143 -0.0343
 8712W        W51806  20.455   4.756   2.430 -0.1103  0.1050 -0.2618
 8713W        W51807  20.982  34.599  31.777  0.1568  0.1857 -0.4234
 8714W        W51808  20.762   2.804   1.272  0.1076  0.0956 -0.0730
 8715W        W51809  20.554   1.936   0.586 -0.1797  0.0937 -0.1732
 8716W        W51810  22.678  34.555   2.983  0.0973  0.0503 -0.2650
 8717W        W51811  19.713   1.369   0.664 -0.0484  0.2629  0.0555
 8718W        W51812  19.530  34.190   2.533  0.3065 -0.1304  0.0079
 8719W        W51813  20.018   0.760   1.580 -0.3362 -0.4876 -0.2043
 8720W        W51814  22.002   2.040   0.764  0.0588  0.0920  0.2969
 8721W        W51815  17.895   0.424   2.801 -0.0426  0.0455 -0.1404
 8722W        W51816  19.516   1.919   3.419 -0.2701  0.1228 -0.0681
 8723W        W51817  18.815   2.932   2.086 -0.2835 -0.0609 -0.1242
 8724W        W51818  20.558   0.575   1.519 -0.1702 -0.1560 -0.0533
 8725W        W51819  18.227   0.742  31.607 -0.1272 -0.1074 -0.1254
 8726W        W51820  20.010   0.797   2.215  0.1823  0.1085  0.2600
 8727W        W51821  21.773   2.838   1.410 -0.1222 -0.1288  0.0082
 8728W        W51822  20.536   3.133  31.905 -0.0237  0.1052  0.1612
 8729W        W51823  21.770   0.425   1.143 -0.0413 -0.0033 -0.2305
 8730W        W51824  19.219   1.986   1.405 -0.0379  0.2364 -0.0603
 8731W        W51825  19.747   0.887   0.548 -0.3106 -0.0445 -0.3733
 8732W        W51826  21.066   1.855   0.741  0.2813 -0.2779  0.0237
 8733W        W51827  17.979   2.828   1.476 -0.0014  0.3276  0.3023
 8734W        W51828  19.377   0.738   2.854  0.2904 -0.0273  0.1983
 8735W        W51829  21.498   1.657   1.974 -0.1011  0.5565  0.0299
 8736W        W51830  20.574   1.312   1.832 -0.1379 -0.0712  0.0529
 8737W        W51831  21.303   0.692   2.136  0.2178  0.0669 -0.1511
 8738W        W51832  21.880   0.694   3.316 -0.0144  0.2414  0.0849
 8739W        W51833  19.853   1.069   3.680 -0.1849  0.1431  0.2001
 8740W        W51834  18.194   0.816   3.087  0.1806  0.2618 -0.2717
 8741W        W51835  20.214   3.632   2.848  0.3083  0.0740  0.1386
 8742W        W51836  21.237   2.500   1.839  0.0533  0.0555 -0.0258
 8743W        W51837  21.962   1.852   1.802  0.3732  0.2048 -0.1777
 8744W        W51838  22.270   0.994   0.853 -0.0842  0.0007 -0.0909
 8745W        W51839  20.904   1.505  31.260  0.0072 -0.0314 -0.3563
 8746W        W51840  19.643   1.681   2.998  0.0792 -0.1108 -0.1802
 8747W        W51841  21.813   2.312   3.893  0.1111  0.1082  0.1657
 8748W        W51842  18.938   0.843  31.415  0.1546  0.0913  0.0399
 8749W        W51843  21.556   1.145   2.250  0.0014  0.1076  0.4568
 8750W        W51844  21.539   5.223  31.088  0.0171 -0.0558  0.0964
 8751W        W51845  22.200   3.026   1.712 -0.1921 -0.0418 -0.0748
 8752W        W51846  20.918   1.349   2.216 -0.6062  0.0702 -0.4061
 8753W        W51847  17.627   0.017   2.524 -0.3097  0.3909  0.3398
 8754W        W51848  18.840   3.538   2.725 -0.1164  0.0005  0.1888
 8755W        W51849  18.028   1.656   0.227 -0.2548  0.0308 -0.0298
 8756W        W51850  19.936   1.836  30.358  0.0073 -0.1302 -0.0998
 8757W        W51851  21.204   2.039   2.780 -0.2693  0.0817  0.1156
 8758W        W51852  21.446   2.427   3.328 -0.2311  0.3688  0.0740
 8759W        W51853  20.541  34.220   0.714 -0.0006 -0.0302  0.0585
 8760W        W51854  22.420   0.662   4.089  0.3475 -0.0838 -0.1921
 8761W        W51855  18.783   2.707   0.776  0.1828  0.0208  0.2123
 8762W        W51856  21.361   0.260   1.774  0.1431  0.0078  0.1112
 8763W        W51857  17.387   3.660   2.677 -0.2531 -0.0043 -0.0881
 8764W        W51858  18.378   3.700   2.898 -0.1034 -0.1975  0.2715
 8765W        W51859  19.872   2.158   2.128 -0.0336 -0.0337  0.0353
 8766W        W51860  19.690  33.593   1.375 -0.2801 -0.2167 -0.0426
 8767W        W51861  21.386   0.745   1.385 -0.1378  0.1424  0.1612
 8768W        W51862  20.549   3.068   1.649  0.3018 -0.1112  0.0152
 8769W        W51863  22.434   2.310   2.430  0.3900 -0.3232 -0.4307
 8770W        W51864  21.119   1.589   2.982 -0.1071 -0.1977  0.0171
 8771W        W51865  18.629   1.634   2.666 -0.1925 -0.3496  0.1530
 8772W        W51866  19.851   4.260   1.195 -0.0415  0.1066 -0.2662
 8773W        W51867  22.394   2.088   1.568 -0.0151  0.0814 -0.2333
 8774W        W51868  20.110   1.921   1.437  0.2799 -0.0005 -0.0011
 8775W        W51869  17.338   1.206   2.420  0.0583 -0.1957 -0.1289
 8776W        W51870  20.115   0.656   3.193  0.2131  0.1055 -0.4541
 8777W        W51871  20.729   2.390   2.215 -0.0989  0.1430 -0.0417
 8778W        W51872  18.669   0.398   0.991  0.0455 -0.0292 -0.3361
 8779W        W51873  19.251   2.905  30.744 -0.2586 -0.0626 -0.1116
 8780W        W51874  18.648   3.041   2.638  0.1883 -0.1085  0.0427
 8781W        W51875  18.322   1.759   3.268 -0.1681 -0.0199  0.2402
 8782W        W51876  19.042   3.260   0.529  0.2334 -0.0518 -0.0763
 8783W        W51877  22.281   2.773  31.008  0.0516  0.5279  0.0742
 8784W        W51878  21.121   2.023  31.772  0.0946 -0.1585  0.2869
 8785W        W51879  20.096   3.391   1.349 -0.1171 -0.0122  0.2141
 8786W        W51880  20.786   1.042   1.442  0.0614 -0.1082 -0.5247
 8787W        W51881  19.065   2.602   1.814 -0.1145 -0.1404  0.1937
 8788W        W51882  18.201   2.622   0.638  0.2448  0.1975  0.0700
 8789W        W51883  19.300   2.232   0.903  0.1624  0.0528 -0.1395
 8790W        W51884  19.044   4.890   0.909  0.2044 -0.0869 -0.0396
 8791W        W51885  22.730   2.285   3.730  0.2164 -0.4811 -0.1914
 8792W        W51886  22.488  33.871   0.151  0.2381 -0.0015  0.3360
 8793W        W51887  23.467   2.157   0.435  0.0142 -0.2208 -0.0385
 8794W        W51888  21.575   2.094   0.264  0.3231  0.4259  0.1974
 8795W        W51889  22.733   3.051   3.730 -0.1754 -0.2468 -0.0700
 8796W        W51890  20.726   0.706   3.263  0.2991 -0.1184  0.1690
 8797W        W51891  19.440   2.849  31.311  0.0813  0.0288  0.1935
 8798W        W51892  19.575   2.295   2.513 -0.0608 -0.0213  0.1091
 8799W        W51893  20.125   0.725   3.846 -0.3439 -0.1513  0.1037
 8800W        W51894  19.171   3.340   2.057 -0.1945 -0.4541 -0.2004
 8801W        W51895  21.357   2.614   0.969 -0.2866  0.0306  0.0021
 8802W        W51896  19.635   1.906   1.724 -0.1577 -0.0354 -0.2765
 8803W        W51897  19.632   2.225   0.550 -0.0342 -0.0078  0.0613
 8804W        W51898  22.110  34.337   2.509  0.2716 -0.0942  0.0884
 8805W        W51899  20.179   2.512  31.087 -0.1080 -0.1662  0.0725
 8806W        W51900  20.652   3.248   2.163 -0.0482  0.0662  0.0856
 8807W        W51901  19.564   2.563   1.345 -0.1128 -0.0853 -0.1157
 8808W        W51902  18.506   4.293   0.550  0.0341  0.0037 -0.0352
 8809W        W51903  19.891   2.819   3.127  0.1415  0.1079 -0.0394
 8810W        W51904  18.480  34.369   0.332  0.2429 -0.2171  0.1712
 8811W        W51905  22.642   1.794   0.135  0.1620 -0.1806  0.2058
 8812W        W51906  21.624   1.673   2.968  0.0168 -0.1148  0.1227
 8813W        W51907  21.175  34.068   3.061 -0.1983  0.0343  0.0040
 8814W        W51908  19.017   1.100   1.279 -0.2419 -0.1353  0.0039
 8815W        W51909  21.585   2.127  31.414  0.0991 -0.0441 -0.0020
 8816W        W51910  20.949   1.171   3.147  0.0249  0.0552 -0.3104
 8817W        W51911  19.065   1.166   3.307 -0.4657 -0.0514  0.0516
 8818W        W51912  21.129   1.821   0.268 -0.0282 -0.0099 -0.2481
 8819W        W51913  19.708   3.328   3.036  0.1264  0.0735 -0.1808
 8820W        W51914  21.098   2.463  31.440 -0.1318  0.1734  0.0228
 8821W        W51915  20.270   2.301   2.937 -0.1877 -0.1101 -0.3149
 8822W        W51916  18.360   0.190   2.463  0.0385  0.0793 -0.0427
 8823W        W51917  20.444   0.911   2.015  0.5244  0.0357 -0.2353
 8824W        W51918  20.154   1.272   2.259  0.0663 -0.1220 -0.0141
 8825W        W51919  20.386   1.065   3.004  0.2268  0.2626 -0.0982
 8826W        W51920  22.067   2.539   2.703  0.0736 -0.0385 -0.1072
 8827W        W51921  18.823   0.570   1.932 -0.1183  0.2906  0.1229
 8828W        W51922  20.910   2.743  31.979  0.2787 -0.1768  0.2576
 8829W        W51923  21.496   2.431   1.434 -0.2719  0.0478  0.1388
 8830W        W51924  19.828   2.536  31.461  0.0732  0.1357 -0.0942
 8831W        W51925  21.478   3.045   1.733  0.1659  0.0741 -0.0193
 8832W        W51926  20.479   4.548   1.809  0.1516 -0.1773  0.1273
 8833W        W51927  18.407   1.091   2.635 -0.0320  0.1858 -0.0738
 8834W        W51928  22.660   1.824   2.721  0.3485  0.0236  0.1194
 8835W        W51929  23.886   2.381   1.222 -0.1930 -0.0279 -0.1926
 8836W        W51930  20.548  34.438   0.169  0.1298  0.2816 -0.0967
 8837W        W51931  18.429   0.911   2.080 -0.2214 -0.1055 -0.0187
 8838W        W51932  19.411   3.003   0.290 -0.0900  0.2908 -0.0539
 8839W        W51933  21.292   1.218   2.749 -0.0581 -0.3139  0.0580
 8840W        W51934  22.396   0.072   2.562  0.0521  0.0466 -0.2447
 8841W        W51935  21.856   3.106   0.445  0.1814 -0.1721  0.1848
 8842W        W51936  21.834  34.079   2.842 -0.0973  0.0170  0.1396
 8843W        W51937  19.975   1.943   2.659  0.2149  0.2582  0.0893
 8844W        W51938  19.795   3.385   1.872  0.1282 -0.0490 -0.1923
 8845W        W51939  19.845   2.183  31.102  0.2191  0.1633 -0.0825
 8846W        W51940  20.763   1.975   2.521 -0.1583  0.4139 -0.1466
 8847W        W51941  20.835   2.430   0.871 -0.2895 -0.2542 -0.1956
 8848W        W51942  18.741   3.209   1.005  0.0164  0.3942 -0.2042
 8849W        W51943  21.210   2.843   1.404  0.4582 -0.2933  0.5106
 8850W        W51944  19.690   2.089   1.244  0.2166  0.0120  0.0173
 8851W        W51945  21.647   1.947   2.436  0.1334  0.0179  0.0863
 8852W        W51946  20.841   0.465   1.914  0.0556 -0.5240  0.2181
 8853W        W51947  22.089  34.335   0.987  0.0419 -0.2756 -0.0989
 8854W        W51948  21.494   0.916   0.913 -0.2685 -0.0471 -0.0806
 8855W        W51949  18.927   0.968   2.761  0.1411 -0.2742  0.0894
 8856W        W51950  19.360   2.152  31.567 -0.0284  0.3656  0.1103
 8857W        W51951  19.403   1.972  31.054  0.1426 -0.0827 -0.1298
 8858W        W51952  19.365   2.271   1.992  0.0068  0.3098 -0.1943
 8859W        W51953  20.971   0.841   2.704  0.0698 -0.0746  0.1820
 8860W        W51954  18.690   0.660   2.426 -0.0638 -0.2415 -0.0800
 8861W        W51955  19.677   2.697   2.072  0.2899 -0.1311 -0.2408
 8862W        W51956  18.977  34.499   1.383  0.2896 -0.0193 -0.1383
 8863W        W51957  20.819   1.380   0.424  0.0099  0.0962  0.6141
 8864W        W51958  18.945   1.110   1.819  0.2023 -0.0209 -0.3382
 8865W        W51959  19.206   0.315   2.471 -0.4445  0.0925 -0.1836
 8866W        W51960  20.885   2.827   1.906 -0.0413 -0.2963  0.0788
 8867W        W51961  21.515   1.604   0.554 -0.0095 -0.1721 -0.1011
 8868W        W51962  19.806   1.054   1.086  0.0231  0.2751 -0.0019
 8869W        W51963  22.686   4.127   2.315 -0.0004  0.2248 -0.0163
 8870W        W51964  20.286   2.169   0.163  0.0842  0.1487 -0.2522
 8871W        W51965  19.889   0.198   3.214 -0.2793  0.0592 -0.0717
 8872W        W51966  19.640   0.248   2.781  0.2221 -0.3106 -0.0410
 8873W        W51967  17.995   0.337   1.684 -0.2478 -0.0732 -0.0501
 8874W        W51968  21.882   1.015   1.184 -0.2636  0.2092 -0.0786
 8875W        W51969  20.094   3.500   0.793 -0.0581 -0.0214  0.3590
 8876W        W51970  22.888   2.520   1.095 -0.3828 -0.1185 -0.0337
 8877W        W51971  20.368   1.703   2.315 -0.2874 -0.0405  0.2297
 8878W        W51972  20.139   2.896   3.613  0.0139  0.0960  0.1725
 8879W        W51973  17.561  34.091   3.843  0.3743 -0.2585 -0.4288
 8880W        W51974  22.581   2.883   0.701  0.1485 -0.0206 -0.0831
 8881W        W51975  20.627   3.287   2.658  0.2175  0.2057 -0.3288
 8882W        W51976  21.485   2.107   0.854 -0.0762  0.1272 -0.0339
 8883W        W51977  21.593   0.829   2.669 -0.0464  0.1669 -0.3002
 8884W        W51978  20.807   2.334   1.625 -0.1601 -0.1346 -0.0049
 8885W        W51979  19.040   0.490   3.549 -0.3707  0.2302 -0.2067
 8886W        W51980  19.079   1.626   3.071 -0.2614 -0.2650 -0.1742
 8887W        W51981  22.753   2.201   2.070  0.2506  0.1948 -0.3012
 8888W        W51982  20.423   1.639   1.181 -0.1035 -0.1430  0.0259
 8889W        W51983  18.832   0.344   1.484 -0.1839 -0.3970  0.1094
 8890W        W51984  20.935   3.273   1.426 -0.2342  0.0525  0.1095
 8891W        W51985  18.400   0.938   0.970  0.1402 -0.1653  0.0165
 8892W        W51986  19.205   1.681  31.471 -0.1398 -0.2333  0.2671
 8893W        W51987  19.660   0.892   3.201 -0.1439 -0.3093  0.0667
 8894W        W51988  19.824   1.575   2.248  0.1146  0.1557  0.2022
 8895W        W51989  21.456   1.262   3.227  0.1744 -0.0635 -0.0874
 8896W        W51990  19.642   0.634   1.297  0.1860  0.1682 -0.1674
 8897W        W51991  21.333   1.311   0.203 -0.0225 -0.0823  0.0926
 8898W        W51992  21.598   2.213   1.878 -0.0526 -0.1168  0.5025
 8899W        W51993  22.135   2.966   4.019 -0.0424 -0.1270  0.0496
 8900W        W51994  20.444   2.705   3.112 -0.1855 -0.0692  0.2921
 8901W        W51995  21.095   2.197   1.194 -0.0300  0.1485 -0.0986
 8902W        W51996  18.149  33.775   2.795  0.0399  0.1022 -0.0784
 8903W        W51997  19.455   1.785   0.776 -0.0352  0.0763 -0.2057
 8904W        W51998  20.093   1.877   0.792 -0.1939  0.0514 -0.2504
 8905W        W51999  20.404   2.161   1.899  0.1157  0.3044  0.3296
 8906W        W52000  20.461   0.830   2.517 -0.1950 -0.0161  0.1250
 8907W        W52001  19.062   0.112  31.641 -0.1316 -0.3333  0.3429
 8908W        W52002  19.232   3.475   3.128 -0.0139  0.5336  0.0571
 8909W        W52003  20.927   2.942   2.913  0.0910 -0.0474  0.1463
 8910W        W52004  19.937   1.200   7.429 -0.0758  0.0172 -0.0886
 8911W        W52005  20.123   0.174   3.645 -0.0746 -0.1452  0.1154
 8912W        W52006  21.857   0.076   3.229 -0.1490 -0.1979 -0.2536
 8913W        W52007  21.943   0.588   3.817 -0.0046 -0.0695  0.2395
 8914W        W52008  18.258   1.600   5.283  0.2305 -0.2816  0.2635
 8915W        W52009  21.085   3.573   3.355 -0.2643  0.2141 -0.0154
 8916W        W52010  18.020  33.968   7.240 -0.1288 -0.2596 -0.0628
 8917W        W52011  20.938   3.264   6.900  0.0321  0.0065 -0.2956
 8918W        W52012  21.413   3.446   5.849  0.3757 -0.2471 -0.0988
 8919W        W52013  20.552   2.125   3.990 -0.3277 -0.0779 -0.2768
 8920W        W52014  19.287  34.437   6.643  0.1941 -0.0820  0.1187
 8921W        W52015  20.916   1.935   6.017 -0.0982  0.0971  0.1425
 8922W        W52016  20.462   0.109   3.261  0.2398 -0.0721 -0.2268
 8923W        W52017  16.089   0.909   5.863 -0.2375 -0.0927 -0.2051
 8924W        W52018  21.724   1.936   6.851 -0.0517  0.0007  0.1416
 8925W        W52019  20.097   2.055   4.277  0.0221  0.0566  0.1520
 8926W        W52020  19.563   1.466   7.054  0.0299  0.0510 -0.0166
 8927W        W52021  20.535  34.452   4.351 -0.0068  0.2164  0.2247
 8928W        W52022  21.010   3.565   4.711 -0.1521  0.1323  0.1833
 8929W        W52023  19.321   0.491   6.682  0.1767  0.1409  0.1685
 8930W        W52024  19.782  34.473   6.885 -0.0143  0.4183  0.2493
 8931W        W52025  20.907   2.314   3.720 -0.0390 -0.0366 -0.0172
 8932W        W52026  18.217   1.507   3.760 -0.2843 -0.3731 -0.2429
 8933W        W52027  17.787   1.447   6.185 -0.2394 -0.3387 -0.1468
 8934W        W52028  20.232   1.353   5.095 -0.2424 -0.2835 -0.3834
 8935W        W52029  21.399   2.426   6.679 -0.1112 -0.0131  0.0357
 8936W        W52030  20.945   1.688   4.479 -0.1635  0.0716  0.0038
 8937W        W52031  20.309   3.473   5.306  0.3430  0.1131  0.0905
 8938W        W52032  21.720   3.071   5.114  0.2069  0.0897 -0.2369
 8939W        W52033  21.395   1.154   7.529 -0.3218  0.0641 -0.0228
 8940W        W52034  18.941   2.814   5.540  0.0781  0.1916  0.0857
 8941W        W52035  19.794   3.605   4.592  0.0506 -0.2578  0.2500
 8942W        W52036  19.522   2.906   5.862 -0.1120 -0.2646 -0.0276
 8943W        W52037  21.536   2.999   4.113  0.1415  0.0213  0.1424
 8944W        W52038  20.550   4.777   5.807  0.2249  0.1731  0.2658
 8945W        W52039  21.301   3.854   6.182 -0.1140 -0.0332 -0.0944
 8946W        W52040  19.470   2.444   3.338  0.4160 -0.0678 -0.0636
 8947W        W52041  21.529   4.749   6.640 -0.1564  0.0981 -0.1092
 8948W        W52042  19.815   2.647   6.167 -0.0167  0.0508 -0.2234
 8949W        W52043  21.059   2.367   5.752 -0.0278 -0.0891  0.2912
 8950W        W52044  20.990   1.812   3.938  0.0171  0.0723 -0.1959
 8951W        W52045  19.453   3.248   3.926  0.0884 -0.0315 -0.0272
 8952W        W52046  21.729   2.577   5.296 -0.0404 -0.0278 -0.1249
 8953W        W52047  19.732   1.688   5.999 -0.1221  0.0384 -0.0696
 8954W        W52048  18.565   3.214   6.059  0.0976  0.1172  0.2357
 8955W        W52049  21.498   0.183   7.604 -0.0999  0.4326  0.1706
 8956W        W52050  19.558   1.366   3.426 -0.1961 -0.0345  0.0080
 8957W        W52051  21.711   1.367   4.362 -0.1172  0.1257 -0.1909
 8958W        W52052  19.551   0.931   2.479 -0.4038  0.3143  0.0390
 8959W        W52053  21.977   0.434   4.270  0.1502  0.1430  0.1565
 8960W        W52054  20.500  34.358   3.544  0.0888 -0.1839  0.1474
 8961W        W52055  19.529   4.204   4.037 -0.1139 -0.3739 -0.2886
 8962W        W52056  18.331  34.328   6.481  0.1058 -0.0440 -0.2521
 8963W        W52057  21.653   2.746   7.088  0.1593 -0.1925 -0.0296
 8964W        W52058  21.928   2.199   4.435  0.1668 -0.0921  0.0864
 8965W        W52059  20.453   1.303   7.366 -0.2166  0.0131 -0.0524
 8966W        W52060  18.519   1.982   6.812  0.2369  0.1237 -0.1972
 8967W        W52061  17.822   1.182   5.246  0.0308  0.0472 -0.0404
 8968W        W52062  22.410   2.254   2.962  0.0641  0.2347 -0.3350
 8969W        W52063  22.585   2.417   4.768  0.3358  0.1004  0.0856
 8970W        W52064  21.247   1.963   3.287  0.2162 -0.0683  0.0738
 8971W        W52065  18.642   0.903   4.969 -0.0766 -0.0510 -0.2268
 8972W        W52066  18.556   0.727   7.514  0.0119  0.1450 -0.2640
 8973W        W52067  19.067   1.566   7.407  0.0600 -0.0556  0.3029
 8974W        W52068  18.959   0.374   4.797 -0.1172  0.3765 -0.0884
 8975W        W52069  21.347   3.614   8.078  0.1941  0.0799 -0.1490
 8976W        W52070  19.062   3.513   6.352  0.1748  0.0399 -0.1231
 8977W        W52071  21.793   0.698   5.057 -0.3289  0.2074  0.0048
 8978W        W52072  20.866   2.468   5.259  0.1990 -0.0465 -0.0182
 8979W        W52073  22.351   3.076   5.871 -0.0773  0.1292 -0.0938
 8980W        W52074  20.960   1.557   3.512  0.1009  0.0775  0.3206
 8981W        W52075  20.417  34.400   5.649 -0.1866  0.1194 -0.0992
 8982W        W52076  20.936  34.357   5.538  0.2633 -0.0649  0.2467
 8983W        W52077  20.053   2.506   4.000 -0.4310  0.1252  0.0888
 8984W        W52078  20.522   1.288   4.520 -0.0091  0.0083  0.3500
 8985W        W52079  23.112   2.971   5.606  0.4482  0.2705  0.1621
 8986W        W52080  22.068   1.078   4.735 -0.3196  0.0574  0.0878
 8987W        W52081  19.916   3.019   6.578  0.3228  0.1051 -0.0356
 8988W        W52082  20.219   0.786   6.516 -0.1323 -0.0732  0.1855
 8989W        W52083  20.338   4.048   7.105 -0.3334  0.0034 -0.0654
 8990W        W52084  19.363   2.338   3.847 -0.3934 -0.2120 -0.1782
 8991W        W52085  18.851   1.879   6.397 -0.2938 -0.2860  0.1532
 8992W        W52086  20.462   2.305   3.430  0.2315  0.2860  0.0337
 8993W        W52087  18.385  34.297   7.053  0.1299 -0.3829 -0.2509
 8994W        W52088  18.240   1.592   6.528 -0.1396 -0.2434  0.0422
 8995W        W52089  21.875   1.759   4.604 -0.0325  0.2233 -0.0204
 8996W        W52090  18.213  34.513   6.028 -0.2606 -0.4204  0.1408
 8997W        W52091  21.340   1.127   4.589 -0.2525  0.0445  0.0790
 8998W        W52092  20.372   1.681   4.112 -0.1503  0.2295 -0.0873
 8999W        W52093  21.173   3.167   4.410 -0.3834  0.1517 -0.1291
 9000W        W52094  20.808   0.396   4.868 -0.3088  0.1066  0.1439
 9001W        W52095  20.427   1.222   3.547  0.1450 -0.1618 -0.1244
 9002W        W52096  18.434   0.159   6.307  0.0042  0.0936 -0.3192
 9003W        W52097  19.421   1.939   4.978  0.0263 -0.0513  0.1784
 9004W        W52098  18.116  34.651   7.379  0.0438 -0.3138 -0.0653
 9005W        W52099  18.644  34.204   5.488  0.2013 -0.1153 -0.1052
 9006W        W52100  20.904   1.354   7.272  0.0984 -0.1155 -0.0903
 9007W        W52101  20.213  33.076   4.165 -0.1222  0.3540  0.0352
 9008W        W52102  20.647   2.051   4.978 -0.2077  0.0448 -0.1135
 9009W        W52103  21.380   2.426   4.393 -0.0936  0.1320  0.2211
 9010W        W52104  19.695   1.956   4.595 -0.1058  0.0743  0.2238
 9011W        W52105  21.069   0.461   6.801 -0.1460 -0.1034  0.1463
 9012W        W52106  19.910   4.322   3.020  0.2100  0.2090 -0.1047
 9013W        W52107  22.465   2.872   6.327  0.1223 -0.1398  0.3233
 9014W        W52108  21.605   3.349   4.633 -0.0727 -0.2141  0.0717
 9015W        W52109  19.109   1.722   5.922 -0.1832  0.0428 -0.1280
 9016W        W52110  19.327   0.766   4.184  0.0509  0.0061  0.1525
 9017W        W52111  18.888   3.958   5.984 -0.1733 -0.0494 -0.5711
 9018W        W52112  20.886   3.490   5.201  0.0551 -0.2490 -0.0793
 9019W        W52113  19.242   0.258   4.401 -0.0477  0.0587  0.0495
 9020W        W52114  21.582   4.375   4.340  0.0049 -0.1455 -0.1396
 9021W        W52115  22.243   2.092   4.041 -0.0411  0.2312 -0.0117
 9022W        W52116  19.344   1.618   6.410 -0.0894  0.1117 -0.1914
 9023W        W52117  21.015  33.894   5.730 -0.0350  0.1269  0.0836
 9024W        W52118  21.768   1.466   7.458  0.0081  0.0159  0.3156
 9025W        W52119  21.222   2.751   5.436 -0.1568 -0.1586  0.0020
 9026W        W52120  18.532   0.633   3.633 -0.0869 -0.4913 -0.2362
 9027W        W52121  21.987   3.621   3.633 -0.2060  0.0068 -0.2446
 9028W        W52122  19.054   4.087   3.614 -0.0752 -0.2945  0.0533
 9029W        W52123  18.566   1.931   5.562 -0.0570 -0.4980 -0.0630
 9030W        W52124  20.950   2.239   4.263  0.1282 -0.0050  0.2184
 9031W        W52125  21.400   0.385   5.357  0.2152 -0.0935  0.0076
 9032W        W52126  18.133   0.764   7.785 -0.0105  0.2431  0.1762
 9033W        W52127  21.030   0.805   6.387  0.0730 -0.2014 -0.0135
 9034W        W52128  19.713   1.928   3.950 -0.0308 -0.0490  0.0365
 9035W        W52129  18.467   2.608   7.007 -0.1185 -0.0238  0.1257
 9036W        W52130  20.748   0.829   4.438 -0.0986  0.1674 -0.2839
 9037W        W52131  22.639   1.797   3.611  0.1975 -0.0909  0.0416
 9038W        W52132  20.560   1.963   6.347 -0.0959  0.1505 -0.1907
 9039W        W52133  21.906   3.402   4.218 -0.2168 -0.1616 -0.0222
 9040W        W52134  21.204   1.109   3.643  0.1745  0.1989  0.0577
 9041W        W52135  22.326   0.412   3.529  0.0673 -0.0302  0.3323
 9042W        W52136  18.471   2.777   8.002 -0.2748 -0.0768 -0.1512
 9043W        W52137  19.615   2.774   3.688  0.0148 -0.4472  0.0450
 9044W        W52138  19.949   2.744   4.518  0.1311 -0.0724 -0.0183
 9045W        W52139  18.718   1.418   5.097 -0.0819  0.0404 -0.0532
 9046W        W52140  22.545   4.382   4.062  0.1899 -0.2770  0.0578
 9047W        W52141  17.616   1.655   6.706 -0.2491  0.0005 -0.1949
 9048W        W52142  21.122   2.738   6.965  0.1426  0.1200  0.0359
 9049W        W52143  21.702   3.909   4.009 -0.1413  0.0019 -0.1055
 9050W        W52144  21.180   1.265   5.266  0.0011 -0.2426 -0.1553
 9051W        W52145  20.889   1.814   2.010 -0.0193  0.0654 -0.2354
 9052W        W52146  21.095   0.063   5.152 -0.1482  0.0128  0.1039
 9053W        W52147  19.795   2.344   2.956 -0.0628 -0.2090 -0.2388
 9054W        W52148  21.507   0.168   4.417  0.2538 -0.1048  0.0511
 9055W        W52149  19.234   0.514   6.128 -0.6446 -0.1363  0.0554
 9056W        W52150  19.328   0.068   5.780  0.3408 -0.0415  0.1256
 9057W        W52151  22.274   1.988   6.715  0.0664  0.1297 -0.0159
 9058W        W52152  21.622   1.121   5.022 -0.0875 -0.3951 -0.1057
 9059W        W52153  20.664   2.577   6.779 -0.0405  0.1002  0.2657
 9060W        W52154  18.523   1.359   3.077  0.0748 -0.0324  0.1667
 9061W        W52155  20.202  34.399   7.536  0.0104  0.1566  0.1924
 9062W        W52156  19.564   1.924   6.861  0.0834  0.2568 -0.2369
 9063W        W52157  18.147   3.348   7.755 -0.1140  0.1721  0.2524
 9064W        W52158  20.892   3.812   6.823 -0.0421  0.0782 -0.1176
 9065W        W52159  21.823   2.647   4.273 -0.0782 -0.2516  0.1100
 9066W        W52160  20.152   1.274   5.610 -0.1069 -0.2626  0.0966
 9067W        W52161  20.979   0.401   2.899  0.0712  0.1195 -0.1581
 9068W        W52162  20.660   3.324   3.863  0.6683  0.0910 -0.0665
 9069W        W52163  19.934   0.641   2.763  0.1191 -0.0144 -0.0040
 9070W        W52164  17.545  33.690   6.311 -0.0206 -0.0356 -0.0832
 9071W        W52165  20.916   3.433   5.693 -0.5333 -0.2381 -0.1665
 9072W        W52166  21.623   1.548   3.669  0.0156  0.0248 -0.2464
 9073W        W52167  19.532   2.990   4.847 -0.1272  0.0201 -0.3150
 9074W        W52168  20.466   2.557   4.932  0.3321  0.0642 -0.1018
 9075W        W52169  21.699  33.783   5.371 -0.1027 -0.1092 -0.2696
 9076W        W52170  19.554   2.386   4.765  0.0364 -0.0541 -0.4261
 9077W        W52171  19.118   0.318   5.287  0.0961  0.2877 -0.0723
 9078W        W52172  19.535   2.777   4.183  0.1857  0.1328 -0.2622
 9079W        W52173  20.720   1.532   4.890  0.1814 -0.3407 -0.0251
 9080W        W52174  22.480   1.109   4.475  0.0089 -0.2056  0.1805
 9081W        W52175  18.884   0.367   5.737  0.1504 -0.1073  0.2120
 9082W        W52176  20.167   1.223   4.149 -0.2532 -0.0115 -0.1499
 9083W        W52177  20.399   3.550   6.802  0.1107  0.0866 -0.1781
 9084W        W52178  21.727   2.403   6.185 -0.0810 -0.1832 -0.0620
 9085W        W52179  20.246   0.181   4.187  0.1815  0.1860 -0.3188
 9086W        W52180  21.655   2.911   5.643  0.0309  0.0733 -0.0794
 9087W        W52181  19.551   3.088   8.935 -0.0948 -0.0938  0.1119
 9088W        W52182  19.141   2.469   4.261  0.0979 -0.2377  0.3212
 9089W        W52183  21.429   1.964   5.805  0.0348  0.2239  0.2657
 9090W        W52184  20.423   0.955   4.914 -0.1768  0.0570  0.2691
 9091W        W52185  20.274   1.836   5.221  0.1177  0.0398  0.2032
 9092W        W52186  21.275   2.572   4.922 -0.1059 -0.0195 -0.0494
 9093W        W52187  19.665   2.319   4.274 -0.0893 -0.0246 -0.2583
 9094W        W52188  20.264   2.585   6.459  0.1138 -0.0414  0.4997
 9095W        W52189  19.053   0.139   6.921  0.1663 -0.2636  0.0666
 9096W        W52190  21.147   1.615   5.673 -0.1611  0.1956  0.0875
 9097W        W52191  19.440  34.237   5.655 -0.3491 -0.1182  0.1529
 9098W        W52192  19.064   1.181   4.850  0.0903 -0.3082 -0.3600
 9099W        W52193  21.433   1.932   4.446  0.0398 -0.2848  0.3230
 9100W        W52194  21.672   3.289   6.365  0.0271 -0.0619 -0.3409
 9101W        W52195  21.286   1.752   6.593  0.2909 -0.2082  0.0806
 9102W        W52196  19.376   1.958   7.420 -0.1430  0.1940  0.3909
 9103W        W52197  20.042  34.481   4.423  0.2278  0.3746  0.2110
 9104W        W52198  21.929   2.515   4.813  0.1570 -0.0877  0.1957
 9105W        W52199  21.230   1.620   7.792  0.4527 -0.1343  0.1867
 9106W        W52200  19.704   1.025   4.367  0.3118 -0.1267  0.1204
 9107W        W52201  17.725   1.431   7.111 -0.2069 -0.0734 -0.0565
 9108W        W52202  20.765   1.984   5.525 -0.1990 -0.2698 -0.0924
 9109W        W52203  20.127   0.747   6.034 -0.0802  0.0001 -0.0551
 9110W        W52204  20.722   2.743   5.749  0.0859 -0.1943 -0.3336
 9111W        W52205  19.570   3.161   2.268  0.0998  0.0491  0.4425
 9112W        W52206  18.637   2.366   7.711  0.1284  0.0636 -0.0428
 9113W        W52207  21.140  34.640   3.007  0.2846  0.1880 -0.1786
 9114W        W52208  20.000   2.442   3.427 -0.1857  0.2176 -0.0023
 9115W        W52209  19.827   1.626   4.938  0.1435 -0.2053 -0.0078
 9116W        W52210  22.001   0.413   6.852 -0.0781  0.3396  0.0170
 9117W        W52211  19.884   0.733   4.723  0.2833  0.2152  0.1483
 9118W        W52212  20.437  34.287   8.042 -0.0096  0.1570 -0.0349
 9119W        W52213  18.190  33.087   6.503  0.1812 -0.2947 -0.1731
 9120W        W52214  22.189   2.249   5.226  0.1535  0.3122 -0.2745
 9121W        W52215  18.770  34.561   7.269  0.3860 -0.0002  0.4147
 9122W        W52216  20.747   4.420   6.683 -0.0252 -0.0077  0.1475
 9123W        W52217  18.746   1.241   7.144 -0.2716 -0.2059 -0.0988
 9124W        W52218  20.626  34.652   5.260 -0.0931 -0.2721  0.2108
 9125W        W52219  18.739   0.304   4.308 -0.2687  0.1614 -0.0831
 9126W        W52220  18.977   2.252   6.031 -0.3290  0.1056 -0.0510
 9127W        W52221  21.930   3.334   5.833  0.2217 -0.0609  0.1765
 9128W        W52222  20.469   2.550   4.355 -0.2748  0.2984  0.0669
 9129W        W52223  21.393   0.428   4.841 -0.1397 -0.0120 -0.3042
 9130W        W52224  19.481   2.116   6.143 -0.0047  0.1471 -0.0810
 9131W        W52225  21.333   2.213   5.333 -0.0291 -0.2577 -0.0965
 9132W        W52226  18.745   1.780   4.288  0.2126  0.1867  0.0361
 9133W        W52227  18.722   0.579   6.212 -0.1504  0.0884 -0.0290
 9134W        W52228  18.821   0.027   8.319 -0.0670  0.3652  0.0114
 9135W        W52229  20.704   4.080   4.608 -0.0802  0.1738 -0.1395
 9136W        W52230  20.424   0.429   5.776 -0.0357 -0.0297  0.0078
 9137W        W52231  21.039   0.823   5.563  0.0269  0.0379  0.1368
 9138W        W52232  20.663   1.097   5.279 -0.0665  0.2225  0.0250
 9139W        W52233  20.083   1.290   7.924  0.0460  0.3004  0.2889
 9140W        W52234  19.048   0.086   6.271  0.0739 -0.1273 -0.3230
 9141W        W52235  19.978   3.528   6.566 -0.0585 -0.0559 -0.1193
 9142W        W52236  22.370   1.403   2.882  0.0709  0.1349  0.4027
 9143W        W52237  21.163   1.096   6.731  0.3026 -0.1540 -0.0198
 9144W        W52238  22.083   1.516   4.977  0.3259 -0.0285  0.0632
 9145W        W52239  22.916   0.909   4.224 -0.1668  0.1974 -0.0630
 9146W        W52240  19.527   1.403   5.540  0.0429  0.0325  0.5039
 9147W        W52241  21.042   1.786   7.400  0.2240  0.0640 -0.0100
 9148W        W52242  18.901   0.801   4.508 -0.0477 -0.0375 -0.0665
 9149W        W52243  21.372  34.415   3.934  0.2727 -0.0816 -0.1460
 9150W        W52244  20.030   1.854   3.256  0.1117 -0.3333 -0.1306
 9151W        W52245  22.388   3.531   5.241  0.0541  0.0765  0.1012
 9152W        W52246  19.717   0.573   5.190 -0.2434  0.2358  0.0828
 9153W        W52247  17.381   1.597   5.031 -0.0430  0.0355 -0.4089
 9154W        W52248  19.836   2.393   6.987  0.1500  0.0933  0.1333
 9155W        W52249  19.304   2.053   2.946  0.1461  0.0573 -0.3978
 9156W        W52250  19.759   0.488   3.605  0.0550 -0.0666  0.0852
 9157W        W52251  19.908   1.722   5.502 -0.0264  0.1202 -0.0566
 9158W        W52252  21.568   3.496   8.755  0.0739  0.0073  0.0779
 9159W        W52253  20.391  34.230   2.726 -0.2943  0.0030 -0.1111
 9160W        W52254  20.697   1.515   5.943 -0.2907 -0.2103  0.1668
 9161W        W52255  20.147   2.249   4.779  0.2924 -0.0947 -0.1210
 9162W        W52256  20.520   0.949   5.816 -0.2688  0.2583 -0.0387
 9163W        W52257  19.415   3.028   5.348 -0.1220 -0.0832 -0.2738
 9164W        W52258  19.102   2.406   7.310 -0.4530 -0.0835 -0.1670
 9165W        W52259  20.467   3.051   6.662  0.1221 -0.0483 -0.3744
 9166W        W52260  20.506  34.012   5.993  0.1541  0.1547  0.1517
 9167W        W52261  21.256   0.833   5.089  0.3941 -0.0962 -0.0360
 9168W        W52262  20.034   1.237   4.669 -0.1406 -0.1093 -0.1600
 9169W        W52263  22.321   1.696   8.109  0.0217  0.0387 -0.1350
 9170W        W52264  19.891   1.697   6.536  0.3181 -0.2528  0.0355
 9171W        W52265  19.066   0.959   5.834  0.1354 -0.3185 -0.0511
 9172W        W52266  19.904   2.690   5.041 -0.0818  0.0943 -0.0520
 9173W        W52267  21.530   2.466   5.741 -0.0987 -0.2672  0.0513
 9174W        W52268  19.837   2.666   5.560  0.3189 -0.3097  0.2455
 9175W        W52269  19.181   1.230   6.773  0.2242  0.0945  0.0152
 9176W        W52270  20.214   1.336   6.601 -0.0509 -0.1323 -0.0383
 9177W        W52271  22.158   1.854   5.642  0.0588  0.0220  0.2142
 9178W        W52272  19.382   0.716   4.813  0.0988  0.1590 -0.1308
 9179W        W52273  20.898   3.747   2.305  0.1407  0.1197 -0.0923
 9180W        W52274  19.556   2.428   8.181  0.1130  0.1889 -0.1000
 9181W        W52275  18.454   1.178   6.220 -0.1265  0.2224  0.1911
 9182W        W52276  18.241   3.299   4.732 -0.0413 -0.0464  0.3856
 9183W        W52277  20.351   2.977   4.124  0.0035  0.0065  0.2422
 9184W        W52278  21.286   1.509   4.107  0.1036 -0.0649  0.0002
 9185W        W52279  21.228   5.323   5.996 -0.1223  0.0292 -0.0684
 9186W        W52280  19.545   1.408   3.961  0.0786 -0.2171 -0.1287
 9187W        W52281  19.169   2.579   5.101 -0.0973 -0.1348 -0.1578
 9188W        W52282  19.437   2.983   3.306 -0.3019 -0.2167  0.0806
 9189W        W52283  22.157   1.591   3.598  0.1219  0.0263 -0.1149
 9190W        W52284  20.024   3.788   5.046 -0.0150  0.0125  0.1870
 9191W        W52285  21.940   3.582   7.814  0.1528 -0.0809 -0.1369
 9192W        W52286  20.761  34.299   4.862 -0.0945 -0.0685 -0.5111
 9193W        W52287  21.653   2.084   4.906 -0.3454  0.0395  0.3806
 9194W        W52288  22.060   0.239   4.769  0.2561 -0.0382 -0.3690
 9195W        W52289  20.863   4.070   6.375  0.0812 -0.2109  0.0149
 9196W        W52290  18.949   1.341   6.195  0.0977  0.2737 -0.0698
 9197W        W52291  19.050  34.561   3.376 -0.1234  0.1266 -0.2879
 9198W        W52292  19.040   1.763   6.942  0.0533  0.1203  0.0219
 9199W        W52293  20.633   0.620   5.289  0.0406  0.0617  0.0408
 9200W        W52294  18.654   3.170   7.785  0.2020 -0.1318  0.1170
 9201W        W52295  22.083   3.077   4.632  0.1596  0.2106  0.2801
 9202W        W52296  18.815   2.374   3.835 -0.0405  0.1164 -0.0730
 9203W        W52297  19.805   2.206   5.232  0.2392 -0.1397 -0.0634
 9204W        W52298  23.778  34.693   5.795  0.1556 -0.0714 -0.2983
 9205W        W52299  20.087   3.058   2.180 -0.2264  0.0415 -0.1993
 9206W        W52300  19.759   0.363   5.763 -0.1108  0.0189 -0.2128
 9207W        W52301  19.807   3.245   3.538  0.1303 -0.3416  0.1266
 9208W        W52302  20.211   2.746   5.883  0.1194 -0.0236 -0.1511
 9209W        W52303  20.367   3.728   5.724 -0.0361 -0.0182 -0.3582
 9210W        W52304  18.456  33.951   5.089  0.2104 -0.0515 -0.0303
 9211W        W52305  21.162   0.560   4.314 -0.1855 -0.3603 -0.1253
 9212W        W52306  18.643   2.188   7.261 -0.0830 -0.1579 -0.2820
 9213W        W52307  21.574   1.142   7.026 -0.3024 -0.1505 -0.1347
 9214W        W52308  18.472   0.469   5.254  0.1562 -0.0488  0.1563
 9215W        W52309  22.100   1.022   4.184 -0.3019  0.1025  0.1199
 9216W        W52310  20.191   2.072   6.724  0.0134  0.0254 -0.1031
 9217W        W52311  19.627   0.884   6.841  0.0250  0.0478 -0.3720
 9218W        W52312  19.989   1.300   3.209 -0.4005 -0.1130 -0.2893
 9219W        W52313  21.656   3.671   6.956  0.1335  0.0494 -0.3672
 9220W        W52314  21.778   2.016   3.388 -0.1143 -0.3376  0.2052
 9221W        W52315  21.111   4.295   5.953  0.2268 -0.1761 -0.0196
 9222W        W52316  18.814   0.992   6.561  0.1019 -0.0070 -0.1509
 9223W        W52317  19.190   1.253   4.313 -0.1245  0.0044 -0.3897
 9224W        W52318  19.779   0.924   5.723 -0.0102 -0.0155 -0.2824
 9225W        W52319  21.519   3.146   6.807  0.2434  0.0072  0.3689
 9226W        W52320  22.268   2.720   6.807  0.0576 -0.2256  0.1118
 9227W        W52321  19.661   0.045   5.337 -0.0084  0.0215 -0.3331
 9228W        W52322  20.968   2.542   3.255 -0.1384  0.0145 -0.1145
 9229W        W52323  21.296   1.593   6.133  0.2125 -0.3104 -0.0029
 9230W        W52324  20.483   3.194   5.739  0.0888 -0.1160  0.3896
 9231W        W52325  21.446   2.771   6.180  0.2593  0.0262  0.1609
 9232W        W52326  21.399   3.525   4.197 -0.2322 -0.2187  0.0680
 9233W        W52327  20.127   0.776   5.413  0.0922 -0.2738 -0.3317
 9234W        W52328  19.323   2.535   6.298 -0.1518 -0.0592 -0.0993
 9235W        W52329  22.678   2.703   5.859  0.0605  0.0926  0.1404
 9236W        W52330  19.773   0.070   3.978 -0.0042 -0.3112  0.1010
 9237W        W52331  20.260   1.727   4.704 -0.0847 -0.0458 -0.0995
 9238W        W52332  19.254   3.430   4.589 -0.0927 -0.2293 -0.7131
 9239W        W52333  22.308   1.373   5.844  0.1647 -0.5763 -0.2827
 9240W        W52334  21.458   1.237   5.759  0.2814  0.1590  0.1102
 9241W        W52335  20.794   4.550   3.436 -0.3012 -0.2569 -0.0180
 9242W        W52336  20.997   1.183   6.028  0.2622 -0.0608  0.0833
 9243W        W52337  21.261   3.228   5.403  0.1612 -0.0886 -0.1918
 9244W        W52338  17.988   3.034   7.281  0.2086  0.0414  0.0572
 9245W        W52339  19.920   1.623   4.314 -0.2093 -0.1585 -0.3385
 9246W        W52340  20.584   2.049   4.495  0.1082 -0.0769 -0.0497
 9247W        W52341  20.779   2.958   5.288  0.0195 -0.0498  0.1710
 9248W        W52342  20.640   2.742   3.610 -0.3047 -0.0968 -0.2894
 9249W        W52343  22.602   3.041   5.488  0.2133 -0.2424  0.0964
 9250W        W52344  20.302   0.694   4.315  0.2395  0.0826  0.0497
 9251W        W52345  22.205   2.656   5.644  0.1589  0.3485  0.0965
 9252W        W52346  21.081   1.787   5.189  0.1669  0.2059  0.4135
 9253W        W52347  21.617   0.859   4.134  0.3208  0.0253  0.1856
 9254W        W52348  21.447   0.026   3.536 -0.1438 -0.0651 -0.1601
 9255W        W52349  18.846   2.833   7.432 -0.0530  0.2091 -0.0619
 9256W        W52350  19.104   1.729   3.759 -0.0953  0.4031 -0.1417
 9257W        W52351  19.028   2.037   3.408  0.0892  0.2062  0.4022
 9258W        W52352  19.370   2.448   5.697 -0.0770  0.2021 -0.3489
 9259W        W52353  18.931  34.195   6.988 -0.1378  0.0168  0.4156
 9260W        W52354  20.045  34.445   6.369  0.0567 -0.1095  0.0534
 9261W        W52355  18.753   1.911   5.115  0.1573  0.1329  0.1224
 9262W        W52356  17.509   0.693   5.232  0.0537  0.1316  0.0093
 9263W        W52357  22.301   1.618   4.400  0.3440 -0.4197 -0.1615
 9264W        W52358  19.437  33.658   5.428  0.0284 -0.0978 -0.2213
 9265W        W52359  19.451   1.518   4.602 -0.1317 -0.2603 -0.0760
 9266W        W52360  21.542   2.853   4.618 -0.3481 -0.0211 -0.1989
 9267W        W52361  21.187   3.027   4.992  0.1430 -0.2239  0.3860
 9268W        W52362  20.213   0.463   4.991 -0.2078  0.0108 -0.0915
 9269W        W52363  23.092   1.732   7.186 -0.1634 -0.0223  0.1056
 9270W        W52364  19.095   1.238   3.821  0.0723  0.1285  0.0158
 9271W        W52365  21.418   1.625   7.139 -0.2471  0.1301 -0.1303
 9272W        W52366  20.864  34.097   6.330  0.3123 -0.1306 -0.2102
 9273W        W52367  18.331   0.270   3.998 -0.0457 -0.1260  0.1210
 9274W        W52368  19.653   0.120   6.332  0.2941 -0.1623 -0.2317
 9275W        W52369  20.700   2.061   3.074  0.2366  0.2971  0.1436
 9276W        W52370  20.755   3.126   3.347  0.1284 -0.2082 -0.0543
 9277W        W52371  19.935   2.147   5.702 -0.1663 -0.0915 -0.2740
 9278W        W52372  20.556   2.247   5.892  0.2816 -0.2225 -0.0188
 9279W        W52373  17.788  34.423   6.297  0.0336  0.0295 -0.0558
 9280W        W52374  22.612   2.884   4.822 -0.0752 -0.2863 -0.1303
 9281W        W52375  20.212   2.797   7.008  0.1182  0.1631 -0.1451
 9282W        W52376  21.232   2.924   3.426 -0.2390 -0.2395  0.1769
 9283W        W52377  22.596   0.724   5.187 -0.1618  0.0721 -0.1856
 9284W        W52378  21.348   2.123   3.734  0.2351 -0.0122  0.0472
 9285W        W52379  18.684  33.264   7.312  0.1433 -0.1595 -0.1170
 9286W        W52380  19.192   2.184   7.862 -0.0366 -0.5077  0.0474
 9287W        W52381  22.037   1.466   6.976  0.0287 -0.0404 -0.0094
 9288W        W52382  19.825   1.129   5.207 -0.0863 -0.1953 -0.1522
 9289W        W52383  21.431   1.587   4.876  0.0186 -0.1064 -0.0040
 9290W        W52384  20.372   2.301   5.431  0.1692 -0.3771  0.2636
 9291W        W52385  18.342   1.115   5.313 -0.0206 -0.1589  0.1446
 9292W        W52386  20.728   0.360   4.237 -0.2595  0.0346 -0.1206
 9293W        W52387  21.310   2.102   7.127  0.1154  0.1865  0.2261
 9294W        W52388  21.052   2.137   4.747 -0.0883 -0.0967 -0.1140
 9295W        W52389  21.736   2.393   7.532 -0.2691  0.2969 -0.0492
 9296W        W52390  20.755   1.392   3.909  0.1960 -0.1609 -0.1177
 9297W        W52391  23.579   0.121   3.540  0.1891 -0.2368 -0.0560
 9298W        W52392  21.425   3.562   5.091 -0.1857 -0.0442 -0.0051
 9299W        W52393  22.112   2.605   7.329  0.1437 -0.1245 -0.0164
 9300W        W52394  21.151   3.019   5.887 -0.2191  0.2679  0.3461
 9301W        W52395  21.876   2.175   5.786  0.0256 -0.1807  0.0336
 9302W        W52396  17.938  33.542   6.583  0.0036  0.1240  0.3546
 9303W        W52397  21.262   2.603   3.763 -0.0548  0.1494  0.0935
 9304W        W52398  20.155   2.035   3.761  0.0002 -0.2485  0.1452
 9305W        W52399  21.803   1.409   5.452 -0.0529 -0.0514 -0.0466
 9306W        W52400  19.338   1.025   5.235  0.2488 -0.0642  0.2625
 9307W        W52401  20.661  34.694   3.918 -0.4816  0.1436 -0.2007
 9308W        W52402  20.509   3.508   6.270 -0.0481  0.0615 -0.0667
 9309W        W52403  20.900   2.064   6.697 -0.0521  0.1678  0.0953
 9310W        W52404  19.883   3.985   9.626 -0.0190  0.1470  0.2917
 9311W        W52405  18.657   0.889   8.567 -0.0357  0.3979 -0.0919
 9312W        W52406  21.168   0.869   7.163  0.0648  0.2263  0.0745
 9313W        W52407  20.960   1.150   7.732  0.4115  0.1197  0.2546
 9314W        W52408  17.415   1.140   9.378  0.1103 -0.0453  0.0316
 9315W        W52409  20.372   3.236   7.197  0.2291 -0.0479 -0.0900
 9316W        W52410  20.890   2.188   8.961  0.1867  0.0810  0.1040
 9317W        W52411  20.683   2.832   7.701 -0.1488  0.1073 -0.1599
 9318W        W52412  20.734   2.233   7.159  0.1804 -0.0893 -0.2296
 9319W        W52413  20.064  34.613   9.773 -0.0705  0.0332 -0.0386
 9320W        W52414  17.856  33.821   8.362 -0.2687  0.2529  0.0755
 9321W        W52415  19.707  34.136   9.927 -0.2788  0.0372  0.2229
 9322W        W52416  18.201   1.338  10.005 -0.2271 -0.0886 -0.3083
 9323W        W52417  18.060   0.649   8.960  0.2743 -0.1254 -0.2635
 9324W        W52418  19.378   1.975   8.339 -0.3109 -0.0734 -0.1293
 9325W        W52419  19.676   1.997   7.821 -0.0545  0.3213 -0.0892
 9326W        W52420  19.299   2.809   8.634 -0.4581  0.1954 -0.2494
 9327W        W52421  23.090   1.425   9.636 -0.1112 -0.1960 -0.1040
 9328W        W52422  20.091   2.293   7.776  0.0645  0.1059  0.1304
 9329W        W52423  19.245  34.461   7.191 -0.2038  0.2316 -0.0321
 9330W        W52424  17.612  34.419  11.442 -0.0647  0.0087 -0.1080
 9331W        W52425  19.889   2.731   8.572 -0.1799 -0.2681 -0.1710
 9332W        W52426  22.300  34.640   8.315  0.3409 -0.3716  0.0670
 9333W        W52427  20.609  34.541   7.670 -0.5141  0.3359 -0.1638
 9334W        W52428  20.267   2.394   9.018  0.1506 -0.2291  0.0318
 9335W        W52429  20.126   3.089   8.824  0.1589 -0.0827  0.0701
 9336W        W52430  18.909   0.553   7.811  0.3273  0.0057  0.1726
 9337W        W52431  18.599   2.039   9.091  0.1845  0.0893  0.1651
 9338W        W52432  19.858   3.210   8.397  0.2411  0.1714 -0.0230
 9339W        W52433  21.909   4.500   7.849 -0.2171  0.0747  0.3461
 9340W        W52434  19.572   2.496   7.713 -0.0733 -0.1556  0.0599
 9341W        W52435  20.714   0.826   8.251  0.0768 -0.3410 -0.2341
 9342W        W52436  20.700   1.114   9.558 -0.1307 -0.1102 -0.2726
 9343W        W52437  20.147   1.612   7.023  0.0077  0.0644  0.2036
 9344W        W52438  20.201   2.947   7.566  0.2053  0.0214  0.1174
 9345W        W52439  19.874   2.217   8.751  0.0338 -0.2080  0.2230
 9346W        W52440  18.946   2.968   8.191 -0.1537 -0.3809 -0.0189
 9347W        W52441  21.356   2.068   7.665  0.0243 -0.0443  0.0611
 9348W        W52442  20.618   1.529   5.457 -0.1299 -0.2286 -0.0324
 9349W        W52443  20.698   0.850   7.253 -0.0945  0.1817 -0.0061
 9350W        W52444  19.112  33.525   8.875  0.1665  0.0573  0.2136
 9351W        W52445  19.934   2.830   9.233 -0.2366  0.0018 -0.1911
 9352W        W52446  19.962   0.425   9.580  0.2410  0.3741 -0.2427
 9353W        W52447  18.722   2.128   8.118 -0.0557  0.2574  0.0214
 9354W        W52448  22.166   3.378   9.585 -0.2136 -0.2941 -0.0928
 9355W        W52449  20.703   3.710   8.571 -0.1395  0.0565 -0.2628
 9356W        W52450  18.479   1.128   8.937  0.1578 -0.0858  0.0353
 9357W        W52451  21.862   3.686   6.170  0.1376 -0.0818 -0.2614
 9358W        W52452  22.401   3.672   7.111 -0.3124 -0.0968 -0.2448
 9359W        W52453  20.850   2.462   6.211 -0.2529  0.2454 -0.1861
 9360W        W52454  17.943   0.363   8.567 -0.2271  0.1803  0.2923
 9361W        W52455  20.270  34.325   7.046  0.0326  0.0347 -0.0012
 9362W        W52456  21.941   0.832   7.104 -0.0280 -0.0415  0.2440
 9363W        W52457  20.296   1.464   9.348 -0.1120 -0.4636  0.1759
 9364W        W52458  20.874   3.132  10.088  0.6537  0.3213 -0.1176
 9365W        W52459  21.429   2.723   7.692  0.0277  0.1582  0.0556
 9366W        W52460  20.982  34.453   8.187  0.0580 -0.1249  0.1955
 9367W        W52461  21.144   0.233   9.190 -0.0027 -0.1186  0.1163
 9368W        W52462  20.158   1.736   7.763  0.0283  0.0478  0.1167
 9369W        W52463  19.740   0.943   8.599  0.0057 -0.2710 -0.4949
 9370W        W52464  22.042   3.578   8.719 -0.2228  0.0047 -0.1100
 9371W        W52465  20.767   1.775   8.555  0.0725 -0.1437  0.1731
 9372W        W52466  18.875   3.730   9.293 -0.5042  0.1668 -0.3644
 9373W        W52467  19.442   4.331   7.179 -0.3191 -0.0636  0.0237
 9374W        W52468  18.580   1.712   8.703 -0.1263 -0.1746  0.1547
 9375W        W52469  19.760   0.613   7.254  0.2038  0.1532 -0.1530
 9376W        W52470  16.719  33.914   9.226 -0.0611 -0.0270  0.2580
 9377W        W52471  21.201   0.833  10.231 -0.1588 -0.2168  0.3033
 9378W        W52472  21.997  33.755   7.949 -0.0463  0.0360 -0.0698
 9379W        W52473  20.997  34.421   9.539 -0.1632 -0.1138 -0.1220
 9380W        W52474  18.365   1.876   7.750 -0.2086 -0.1010 -0.3054
 9381W        W52475  22.245   3.702   8.314  0.2405 -0.0292  0.0978
 9382W        W52476  22.387   1.638   7.628  0.2472  0.1657 -0.1710
 9383W        W52477  20.970   3.478   6.160  0.0476  0.6184  0.0548
 9384W        W52478  17.745   4.368   9.737  0.2624 -0.0215 -0.2111
 9385W        W52479  18.965   1.122   9.163 -0.2471  0.4167  0.1696
 9386W        W52480  16.905  34.620   8.665  0.0048  0.3319 -0.3199
 9387W        W52481  18.674  34.386   9.943 -0.0973  0.1179 -0.0462
 9388W        W52482  22.362   3.095   9.156  0.3815  0.4105  0.2921
 9389W        W52483  19.935   0.486   8.491  0.0078  0.3309  0.0137
 9390W        W52484  18.130   0.758   8.417 -0.2204  0.1249 -0.1895
 9391W        W52485  20.494   4.173   7.607  0.2461  0.1109  0.0919
 9392W        W52486  21.907   1.809   9.791 -0.1289 -0.0577 -0.1069
 9393W        W52487  21.939   4.396   9.054 -0.1701  0.1836  0.1321
 9394W        W52488  19.353   1.482   9.382  0.2281 -0.1081 -0.1544
 9395W        W52489  19.644   0.152   7.589  0.0352  0.4920  0.1855
 9396W        W52490  20.796   3.170   8.616 -0.0756  0.0150 -0.3915
 9397W        W52491  19.050   2.485   8.328 -0.0038  0.1142 -0.1044
 9398W        W52492  18.831  34.603   7.848 -0.4535  0.2544 -0.1704
 9399W        W52493  20.776   4.685   9.524 -0.0321 -0.1312  0.3196
 9400W        W52494  20.652   2.852   7.203 -0.2074 -0.2728 -0.1112
 9401W        W52495  21.747   3.122   8.530  0.2236  0.1174 -0.0637
 9402W        W52496  21.034   1.943   8.130 -0.0074 -0.0454 -0.0593
 9403W        W52497  18.475   0.353   8.686  0.1548  0.0037  0.2632
 9404W        W52498  21.665   3.548   9.373  0.0910 -0.1657 -0.2237
 9405W        W52499  17.646   2.651   8.894  0.2033  0.2365 -0.2179
 9406W        W52500  18.101   1.744  10.260 -0.0897  0.5753 -0.1221
 9407W        W52501  21.106   3.151   7.792 -0.0358  0.1116  0.1372
 9408W        W52502  21.173   0.969   8.444 -0.1646 -0.1233 -0.1167
 9409W        W52503  18.511   0.220   7.603 -0.2379  0.4129  0.0094
 9410W        W52504  21.723   0.731   8.012  0.0590  0.3667  0.2852
 9411W        W52505  21.945   0.452   7.402 -0.0290 -0.0399  0.0594
 9412W        W52506  22.363   4.069   7.773  0.0828 -0.2405  0.1547
 9413W        W52507  20.441  34.306   8.572 -0.1522 -0.1024  0.1613
 9414W        W52508  20.612   0.586   6.186 -0.0279 -0.0924 -0.1115
 9415W        W52509  21.172   1.962   9.372 -0.0328  0.0796 -0.1189
 9416W        W52510  17.993   2.442   9.222 -0.0877 -0.2094 -0.0678
 9417W        W52511  20.247   0.555   7.032  0.1089  0.1154  0.2731
 9418W        W52512  21.957   3.442   7.274  0.0826 -0.3177  0.0920
 9419W        W52513  17.660   1.477   7.920 -0.1325  0.1064 -0.1204
 9420W        W52514  21.453   2.217   8.163  0.1452  0.0854  0.0145
 9421W        W52515  20.432  34.428  11.835 -0.0898  0.1421 -0.0023
 9422W        W52516  20.280   1.820   5.770  0.2537 -0.1544 -0.1438
 9423W        W52517  20.573  34.538   9.829  0.2135 -0.2414  0.1524
 9424W        W52518  19.302   3.889   7.322  0.0420 -0.0200 -0.3997
 9425W        W52519  21.213   0.896   9.591 -0.0070  0.1065  0.2575
 9426W        W52520  21.841  33.347   8.761 -0.3130 -0.0874 -0.1587
 9427W        W52521  20.370   1.554   8.321  0.0827  0.1112  0.0683
 9428W        W52522  21.378   2.892   8.187 -0.0735 -0.1199  0.0167
 9429W        W52523  19.394   0.633   7.642  0.2985  0.1436 -0.3028
 9430W        W52524  21.491   1.650   9.571  0.5076  0.0608  0.0942
 9431W        W52525  19.767   3.501   9.144 -0.0039 -0.0785 -0.2817
 9432W        W52526  20.282   1.055   8.371 -0.1935 -0.0702  0.0337
 9433W        W52527  20.139   0.997   6.980 -0.2853  0.0529  0.0432
 9434W        W52528  18.919   2.795   6.933 -0.4847 -0.1557 -0.1182
 9435W        W52529  19.879   2.012   7.332  0.0001  0.1783 -0.3362
 9436W        W52530  20.605  33.999   8.928 -0.0963 -0.0039  0.0007
 9437W        W52531  20.513   1.834   9.101  0.0665  0.3051  0.0197
 9438W        W52532  19.759   2.330   6.528 -0.0358  0.0699  0.0262
 9439W        W52533  21.448   0.671   9.096  0.2370  0.0195  0.0730
 9440W        W52534  19.088   2.691   7.833  0.0256 -0.6820  0.2118
 9441W        W52535  21.059  34.139   8.707  0.0753 -0.0204 -0.0094
 9442W        W52536  19.383   1.261   8.937 -0.2692  0.0441  0.0810
 9443W        W52537  19.878   0.432   6.708  0.0463  0.2675  0.0706
 9444W        W52538  16.743   0.832   8.881 -0.1401 -0.0377 -0.2663
 9445W        W52539  20.885   0.012   8.677  0.1640 -0.0016 -0.1016
 9446W        W52540  21.925   1.948   7.878  0.1285 -0.2320  0.0189
 9447W        W52541  18.477   0.299   9.201 -0.0171  0.3332  0.3310
 9448W        W52542  20.846   0.211   9.545  0.0993  0.5330 -0.0777
 9449W        W52543  18.979   2.384   9.592  0.0218 -0.0033  0.0540
 9450W        W52544  20.467  34.011   7.396  0.0588  0.1582  0.0286
 9451W        W52545  19.351   1.078   7.319 -0.2054  0.0349  0.1520
 9452W        W52546  21.959   0.970   7.628 -0.0005  0.0062  0.0040
 9453W        W52547  19.045   0.578   8.304 -0.0922 -0.0007  0.0037
 9454W        W52548  18.823   2.234   8.684  0.0337 -0.0492  0.1979
 9455W        W52549  21.028   2.701   9.115  0.0084 -0.2930 -0.3165
 9456W        W52550  20.185   1.817   8.680 -0.1974  0.0636  0.1511
 9457W        W52551  20.718   1.671   9.555  0.3179 -0.2120 -0.1811
 9458W        W52552  19.638   3.656   9.941 -0.2179 -0.1984  0.3126
 9459W        W52553  19.671   1.584   8.714  0.1072  0.2213 -0.2695
 9460W        W52554  18.935   1.286   8.723  0.0554 -0.2359  0.0055
 9461W        W52555  19.197   0.836   8.756  0.0356  0.1332  0.0494
 9462W        W52556  20.664   4.404   9.922  0.0252 -0.0936 -0.0432
 9463W        W52557  17.630   2.724   9.835  0.0985 -0.3034 -0.0543
 9464W        W52558  21.682   0.555   9.521  0.2536 -0.0167  0.1026
 9465W        W52559  22.447   4.553   7.592 -0.0505 -0.2680  0.2570
 9466W        W52560  18.850   1.889   7.688  0.1048  0.0024  0.0054
 9467W        W52561  17.918   2.319   9.898 -0.1230 -0.2287  0.3483
 9468W        W52562  20.112   2.347   8.363 -0.1282 -0.0355  0.0838
 9469W        W52563  20.073  33.968   8.905 -0.1198 -0.1143  0.2170
 9470W        W52564  19.233   3.311   8.500 -0.0073  0.0525  0.0229
 9471W        W52565  19.377   2.857   7.306 -0.1271 -0.1183 -0.0004
 9472W        W52566  17.016   3.989   9.383 -0.2163 -0.2683  0.1219
 9473W        W52567  20.651   0.051   6.937 -0.1359  0.1082 -0.0050
 9474W        W52568  20.914   3.244   7.383  0.0876 -0.2362 -0.0374
 9475W        W52569  19.005   0.333   8.754 -0.0499  0.1610 -0.1282
 9476W        W52570  20.294   0.570   8.141 -0.0242 -0.0600  0.1268
 9477W        W52571  18.271   1.389   9.507  0.0224  0.2488 -0.3015
 9478W        W52572  20.548   2.496   7.996 -0.0511 -0.0497  0.1788
 9479W        W52573  20.691   0.189   8.115  0.0306 -0.1034  0.1558
 9480W        W52574  19.562  34.146   7.999 -0.5142 -0.0701 -0.3275
 9481W        W52575  19.488   1.850   9.085  0.0476  0.1366  0.0077
 9482W        W52576  21.668   2.125   9.463 -0.0512  0.1134  0.2866
 9483W        W52577  20.708   1.614   7.771  0.0514  0.0703 -0.0017
 9484W        W52578  21.785   2.013   8.419  0.0199  0.2834 -0.1732
 9485W        W52579  20.770   0.619   9.892  0.3019 -0.0964  0.1051
 9486W        W52580  21.966   2.380   6.632 -0.1388  0.1152 -0.0475
 9487W        W52581  19.903   1.866   8.262 -0.2333 -0.1935  0.0212
 9488W        W52582  19.341   1.201   8.438 -0.3867  0.4358 -0.0459
 9489W        W52583  19.694   0.695   9.895 -0.1197  0.0502  0.0669
 9490W        W52584  19.847  34.172   9.386 -0.2612  0.0809  0.0787
 9491W        W52585  21.699   1.017   9.761 -0.0259 -0.0441 -0.1527
 9492W        W52586  22.609   1.479   6.289 -0.0524  0.0338 -0.1110
 9493W        W52587  20.266   0.784   9.757  0.2468  0.2098  0.1273
 9494W        W52588  20.485   1.013   7.875 -0.1273  0.1000  0.2202
 9495W        W52589  20.653   0.688   6.678 -0.0576  0.1313 -0.0288
 9496W        W52590  18.600   1.835   9.597 -0.0552  0.2341 -0.0263
 9497W        W52591  19.428   1.282   6.025 -0.2188  0.0482 -0.3849
 9498W        W52592  19.468   3.419   7.229  0.2062  0.1159  0.1025
 9499W        W52593  20.695   1.336   9.111  0.0696  0.0445 -0.0109
 9500W        W52594  19.908   0.775   7.851 -0.1420 -0.0826  0.2316
 9501W        W52595  18.043  34.282   9.176 -0.0603 -0.0975 -0.1885
 9502W        W52596  19.718   1.207   6.478 -0.0391 -0.0080 -0.0454
 9503W        W52597  20.748   1.221   8.596  0.4647 -0.0727 -0.0594
 9504W        W52598  18.478   2.330   9.531  0.0086 -0.2309  0.0569
 9505W        W52599  19.438  33.699   8.223  0.1676  0.0068 -0.1734
 9506W        W52600  18.894   1.567   8.239  0.4114  0.1547  0.0192
 9507W        W52601  21.282  34.036   9.797  0.2179 -0.2430  0.0540
 9508W        W52602  20.384   2.842   8.451 -0.2365 -0.2126 -0.2057
 9509W        W52603  20.498   2.378   9.938  0.0017 -0.1898 -0.1156
 9510W        W52604  19.866   1.160   9.471 -0.0680 -0.2739 -0.0534
 9511W        W52605  20.707   0.557   7.770 -0.3415 -0.0219 -0.4078
 9512W        W52606  19.877   1.219   9.011 -0.0542  0.1093  0.1252
 9513W        W52607  17.554   0.704   8.515  0.2064  0.1667 -0.2361
 9514W        W52608  20.992   1.429   8.171 -0.1117 -0.0218 -0.0466
 9515W        W52609  19.475   2.903   9.652 -0.0228  0.2391 -0.1558
 9516W        W52610  20.298   1.367   8.819 -0.0990  0.2169  0.1604
 9517W        W52611  19.634  34.612   8.851 -0.1958 -0.0150 -0.1427
 9518W        W52612  19.464   2.711   6.808 -0.0291  0.1198  0.0550
 9519W        W52613  19.438   3.779   9.504 -0.3035  0.2471  0.0342
 9520W        W52614  19.509   3.563   8.171  0.0432 -0.5697 -0.4210
 9521W        W52615  20.673   3.696   7.255  0.0487 -0.1239  0.2569
 9522W        W52616  20.319   2.419   7.341  0.0114 -0.2154  0.0240
 9523W        W52617  22.689   2.820  11.666  0.3525  0.0410  0.2756
 9524W        W52618  19.977   1.264   6.043 -0.0310  0.1401 -0.1886
 9525W        W52619  18.261   2.113   8.764  0.0174 -0.4392  0.0966
 9526W        W52620  18.588   2.863   8.537  0.0602  0.3801 -0.0302
 9527W        W52621  20.374   3.867   8.044 -0.0832 -0.0040  0.1826
 9528W        W52622  18.283   3.229   8.237 -0.0299  0.1238  0.0202
 9529W        W52623  21.255   0.556   7.936 -0.0073 -0.0113 -0.2002
 9530W        W52624  21.152   1.322   9.881  0.2392  0.1341 -0.1910
 9531W        W52625  20.674   1.669   6.907  0.0724  0.0702 -0.3159
 9532W        W52626  20.210   2.095   9.555 -0.1657  0.0486 -0.0103
 9533W        W52627  19.718   0.720   6.293 -0.2592  0.1118 -0.0816
 9534W        W52628  21.090   4.126   7.375 -0.3071 -0.1347  0.0504
 9535W        W52629  19.140   0.211   7.450  0.0408  0.2025 -0.0450
 9536W        W52630  18.615   0.899   9.551 -0.1509 -0.4543  0.0078
 9537W        W52631  21.401   0.024   9.578 -0.0837  0.0153  0.1061
 9538W        W52632  20.400   1.892   7.321  0.1362  0.0449  0.2087
 9539W        W52633  21.116   1.347   9.354  0.1543 -0.0576  0.0913
 9540W        W52634  20.440   2.756   9.369  0.1585  0.5330 -0.1791
 9541W        W52635  19.352   0.954   9.605 -0.0280  0.1414 -0.0114
 9542W        W52636  20.636   2.723   8.868 -0.0091  0.1067 -0.0425
 9543W        W52637  19.621  34.615   8.268 -0.1058  0.1216 -0.0425
 9544W        W52638  21.551   1.107   8.797 -0.1732 -0.1621 -0.0541
 9545W        W52639  20.782   3.133   9.306  0.0308  0.0166  0.2345
 9546W        W52640  18.214   0.678   9.543 -0.1291  0.1414  0.0346
 9547W        W52641  21.071   0.464   7.437  0.1246 -0.3446 -0.1243
 9548W        W52642  21.088   1.056   8.986 -0.1125 -0.1976  0.0297
 9549W        W52643  20.360   0.348   9.993  0.2160  0.0033  0.2481
 9550W        W52644  19.587   1.508   7.576  0.1437 -0.1162 -0.0783
 9551W        W52645  20.601   1.161   6.836 -0.0102  0.0119  0.1435
 9552W        W52646  18.128   0.007   8.931  0.0970  0.3037  0.2046
 9553W        W52647  20.238   0.801   7.485 -0.1082  0.1078 -0.2667
 9554W        W52648  18.247   1.724   9.076  0.0761  0.1053 -0.0692
 9555W        W52649  18.951   1.085   8.210 -0.1908  0.2933  0.2423
 9556W        W52650  16.954  33.841   9.884  0.0515 -0.2042  0.0633
 9557W        W52651  22.060   3.470   6.718 -0.0788 -0.0232 -0.0647
 9558W        W52652  21.073   1.718   8.924  0.0241 -0.0087 -0.0890
 9559W        W52653  21.203   4.560   6.985  0.2675  0.1820  0.1377
 9560W        W52654  21.014   1.865   9.913  0.1392 -0.1868 -0.1525
 9561W        W52655  20.373   3.380   8.432 -0.0241  0.4360 -0.1236
 9562W        W52656  17.909  30.155  10.093  0.0329 -0.5504 -0.0939
 9563W        W52657  21.719   4.447   8.343 -0.3844  0.0614  0.3452
 9564W        W52658  21.329   3.871   9.053 -0.4591 -0.1690 -0.0349
 9565W        W52659  19.563   0.134   7.057  0.4061  0.4697  0.0529
 9566W        W52660  18.703   1.538   9.202  0.0807  0.0199 -0.0681
 9567W        W52661  19.241   3.326   9.267 -0.0578  0.0958  0.0128
 9568W        W52662  22.523   0.836   9.274 -0.0369  0.0930 -0.1564
 9569W        W52663  20.115   2.210   6.165  0.2834 -0.0366 -0.0540
 9570W        W52664  20.627   0.739   8.910  0.1940 -0.0180  0.0624
 9571W        W52665  19.642   1.446   8.088  0.0672  0.2649 -0.0794
 9572W        W52666  20.867   0.663   9.327  0.0047 -0.0320  0.0811
 9573W        W52667  19.957   3.372   7.401  0.1118 -0.0953  0.0093
 9574W        W52668  21.924   4.033   8.095 -0.1440  0.0899  0.0647
 9575W        W52669  20.207  34.448   9.016 -0.1021  0.1339  0.0671
 9576W        W52670  21.541   1.662   8.149  0.0283  0.1273 -0.2662
 9577W        W52671  19.546  34.636   9.875 -0.0648  0.0318 -0.2532
 9578W        W52672  21.448  34.589   8.022 -0.0799  0.2002 -0.1228
 9579W        W52673  20.048  33.452   8.273 -0.2638  0.1334 -0.0091
 9580W        W52674  20.030   2.686   9.839  0.1041  0.4556 -0.2452
 9581W        W52675  19.285   0.910   6.410  0.0665 -0.1000  0.1981
 9582W        W52676  19.887   2.642   7.380  0.0519 -0.0660 -0.1787
 9583W        W52677  19.289   1.677   7.905  0.3206  0.0266  0.0364
 9584W        W52678  19.683   0.778   9.155 -0.1260 -0.2080 -0.0246
 9585W        W52679  20.108   0.115   7.184 -0.2131  0.0044 -0.0571
 9586W        W52680  21.513   3.645   7.560  0.0088 -0.1902  0.1619
 9587W        W52681  19.840   0.337   8.049  0.0731  0.1826  0.0360
 9588W        W52682  19.138  32.806  10.088  0.2969 -0.1331  0.1578
 9589W        W52683  20.511   2.021   8.037  0.0583  0.1549  0.1488
 9590W        W52684  20.620   2.344   8.522  0.4077 -0.0330 -0.1270
 9591W        W52685  20.570   0.355   8.577 -0.0236  0.1207 -0.0050
 9592W        W52686  18.455   1.701   7.260 -0.0617  0.0725 -0.3033
 9593W        W52687  17.714  34.584   8.673 -0.2093  0.2466  0.0449
 9594W        W52688  20.752  34.451   9.128  0.0759 -0.2281 -0.3473
 9595W        W52689  21.361   4.274   8.767  0.2312  0.1720 -0.1365
 9596W        W52690  21.313   5.157   7.963  0.0750  0.0575  0.1182
 9597W        W52691  17.200   2.129   9.265  0.0782  0.1347  0.0952
 9598W        W52692  21.043   2.564   7.419  0.0570 -0.0666  0.2268
 9599W        W52693  22.708   3.742   7.495  0.0976 -0.0539  0.0259
 9600W        W52694  21.837   2.611   9.706 -0.2181  0.1479  0.1685
 9601W        W52695  21.866   3.005   7.561 -0.1901  0.0886  0.2256
 9602W        W52696  23.229   1.424   8.912  0.3446  0.2226 -0.0507
 9603W        W52697  20.392   0.543   9.331 -0.2865  0.0675 -0.1038
 9604W        W52698  20.933  34.202   7.765  0.1443 -0.4836  0.0683
 9605W        W52699  19.528   3.656   6.420  0.3127 -0.1706  0.0217
 9606W        W52700  17.757   1.291  10.168 -0.2986 -0.2707  0.1271
 9607W        W52701  19.693  34.427   7.362  0.1247 -0.0731 -0.0693
 9608W        W52702  21.226   2.027   8.613  0.0784  0.0540  0.0088
 9609W        W52703  19.787   3.039   7.108  0.0697  0.1815 -0.1755
 9610W        W52704  22.731   2.023   7.386  0.1676 -0.0453 -0.2568
 9611W        W52705  18.962   2.926   9.472  0.1533 -0.1267 -0.1634
 9612W        W52706  20.208   5.315   9.662  0.1140  0.1438 -0.1231
 9613W        W52707  21.273   1.458   8.566 -0.2805  0.0093 -0.0813
 9614W        W52708  17.832   1.433  10.683  0.0587  0.1914  0.0168
 9615W        W52709  19.352   0.366   9.132 -0.1761 -0.2187  0.3375
 9616W        W52710  19.533   0.732   8.178 -0.0839 -0.2220 -0.1724
 9617W        W52711  18.299   3.132   9.918  0.0958  0.0510  0.1958
 9618W        W52712  19.218   0.193   8.063  0.1372 -0.0813  0.3788
 9619W        W52713  20.287   0.248   7.740  0.0619  0.0635 -0.1698
 9620W        W52714  20.569   4.414   9.154 -0.0198  0.2561 -0.1858
 9621W        W52715  21.518   1.551   9.039 -0.0997  0.0031 -0.2627
 9622W        W52716  18.829   6.249   1.902  0.0313 -0.3509  0.2116
 9623W        W52717  18.925   4.349   0.866  0.2950 -0.1760 -0.3297
 9624W        W52718  20.641   4.150   0.064 -0.0294  0.0247 -0.2348
 9625W        W52719  21.668   5.716   0.473 -0.3306 -0.1860  0.4100
 9626W        W52720  17.137   3.898   1.748  0.1772 -0.3452  0.0520
 9627W        W52721  22.179   6.885   1.639  0.0887  0.2819 -0.0735
 9628W        W52722  18.388   5.054   2.125  0.0587 -0.2139 -0.0441
 9629W        W52723  19.582   7.239   2.339  0.0960 -0.0188 -0.2234
 9630W        W52724  20.989   7.520   1.403 -0.1672  0.0283 -0.3903
 9631W        W52725  18.444   5.275  31.408  0.2339 -0.0272  0.0165
 9632W        W52726  20.426   4.518   2.871  0.1065 -0.1191 -0.2656
 9633W        W52727  19.588   6.059   1.860  0.0617  0.0777  0.0566
 9634W        W52728  18.510   4.588   0.990 -0.1722  0.1009 -0.2643
 9635W        W52729  18.076   3.874   1.388  0.0901 -0.1177  0.1164
 9636W        W52730  19.638   5.217   2.248  0.2745 -0.0593  0.2693
 9637W        W52731  17.879   4.136   0.444 -0.0634 -0.3082  0.2274
 9638W        W52732  18.731   4.509   1.426 -0.0213 -0.2678  0.0042
 9639W        W52733  20.923   3.344   0.190  0.2176  0.5934  0.0393
 9640W        W52734  20.318   5.710   1.030 -0.2037 -0.0445  0.0813
 9641W        W52735  19.344   4.776   2.023  0.0592 -0.0193 -0.0256
 9642W        W52736  19.579   3.891   2.416 -0.4512 -0.1054 -0.0487
 9643W        W52737  20.039   5.316   0.151  0.1766  0.0970 -0.1341
 9644W        W52738  18.282   4.140  31.314 -0.0830 -0.3236  0.0053
 9645W        W52739  18.080   4.572   1.884  0.0901 -0.1972 -0.0367
 9646W        W52740  19.044   5.385   1.387  0.2397  0.3414 -0.2154
 9647W        W52741  21.212   4.429   1.239  0.0134  0.4017 -0.0564
 9648W        W52742  20.812   4.650   1.513 -0.0216 -0.2312 -0.0204
 9649W        W52743  18.758   5.953   0.690 -0.2349 -0.0598  0.3992
 9650W        W52744  21.143   6.203   0.524  0.2584 -0.0643  0.0158
 9651W        W52745  20.658   5.373   4.455  0.3033 -0.2467 -0.1146
 9652W        W52746  17.962   6.267   1.799  0.2220  0.1756 -0.1407
 9653W        W52747  18.416   7.907   1.080 -0.2261 -0.2840  0.1500
 9654W        W52748  19.356   6.475   0.713 -0.1164 -0.0693 -0.0583
 9655W        W52749  21.311   5.792   1.751  0.0015 -0.2538  0.1355
 9656W        W52750  20.026   5.708   2.686 -0.2164  0.1919  0.3084
 9657W        W52751  19.767   7.393   0.947  0.1394  0.2684 -0.0293
 9658W        W52752  19.712   6.613  31.372  0.2915  0.0363 -0.0939
 9659W        W52753  18.519   7.529   3.282  0.3866  0.2801  0.0919
 9660W        W52754  19.223   6.356   3.493  0.0455  0.0408  0.1517
 9661W        W52755  19.501   6.875   3.231 -0.0701 -0.3931  0.1047
 9662W        W52756  21.129   3.548   1.005  0.2067 -0.2506 -0.0180
 9663W        W52757  18.900   7.244   0.912 -0.0827 -0.0393  0.0588
 9664W        W52758  20.760   5.924   0.926  0.0669  0.2315 -0.1013
 9665W        W52759  19.250   6.620   2.788 -0.0609 -0.1502 -0.1769
 9666W        W52760  17.817   6.300   0.930  0.0774  0.1785  0.1448
 9667W        W52761  20.977   4.280   2.940 -0.0563 -0.0772 -0.0940
 9668W        W52762  17.560   7.792  31.224  0.0254  0.3121  0.2930
 9669W        W52763  22.352   6.395  31.457  0.1971  0.0365  0.0412
 9670W        W52764  18.952   5.342   0.434 -0.1664  0.4061  0.1980
 9671W        W52765  22.402   5.502  31.673  0.1591  0.2488  0.0723
 9672W        W52766  19.075   3.525   1.012  0.1591  0.0917 -0.3402
 9673W        W52767  19.443   6.982   0.838  0.3451  0.0696  0.0128
 9674W        W52768  18.990   4.340   0.354 -0.1687  0.0412 -0.0019
 9675W        W52769  20.544   5.698   2.541  0.0762  0.0675  0.2018
 9676W        W52770  19.892   5.347   0.628 -0.1923  0.0384 -0.1996
 9677W        W52771  20.994   5.374   1.019 -0.0267 -0.2047  0.1306
 9678W        W52772  18.319   5.727   3.686  0.0636 -0.1998  0.1860
 9679W        W52773  18.095   6.983   1.893 -0.1122 -0.0365  0.1967
 9680W        W52774  22.019   7.622   0.127 -0.0224  0.2768 -0.1001
 9681W        W52775  20.873   6.523   2.987 -0.2444 -0.0257  0.3153
 9682W        W52776  20.736   8.668   0.332 -0.1191 -0.1765 -0.2688
 9683W        W52777  18.702   5.035   1.243 -0.0022 -0.1781 -0.0502
 9684W        W52778  18.061   5.983   4.107  0.1270 -0.2796  0.1299
 9685W        W52779  18.057   6.630   3.080 -0.0859 -0.0262 -0.1089
 9686W        W52780  18.244   2.936  30.917 -0.3428  0.0833 -0.1148
 9687W        W52781  21.182   5.491   4.482  0.0752 -0.1396  0.1903
 9688W        W52782  17.649   7.491   2.799 -0.0340  0.1053  0.3310
 9689W        W52783  21.716   4.320   1.321  0.0401  0.0883 -0.2531
 9690W        W52784  20.644   6.069   1.823  0.0271 -0.0519 -0.2144
 9691W        W52785  21.352   5.575   3.936 -0.0923  0.0654  0.1847
 9692W        W52786  20.608   5.227   0.202  0.0494 -0.0796  0.0646
 9693W        W52787  19.595   3.386   1.313  0.0641  0.0982 -0.0727
 9694W        W52788  20.244   3.209   3.225 -0.1674  0.0032 -0.0421
 9695W        W52789  17.950   4.879  30.687 -0.1703  0.2099  0.1089
 9696W        W52790  18.641   5.360   0.014 -0.1771  0.0820 -0.1228
 9697W        W52791  20.775   5.387   3.276 -0.2213  0.2335 -0.0533
 9698W        W52792  22.093   6.057   0.521  0.0391 -0.1268  0.0802
 9699W        W52793  18.641   4.830   2.533  0.0250 -0.0531  0.0722
 9700W        W52794  19.176   5.380   3.460  0.2945 -0.0400 -0.2728
 9701W        W52795  19.183   5.925   3.672 -0.0065 -0.2288 -0.1816
 9702W        W52796  18.113   7.737  31.799 -0.0745 -0.1481 -0.1050
 9703W        W52797  17.721   4.797   3.329  0.2191  0.0965  0.0227
 9704W        W52798  17.671   4.899   1.061 -0.1883 -0.1354 -0.3606
 9705W        W52799  17.718   4.258   3.472  0.3227  0.0370  0.1824
 9706W        W52800  18.472   7.023   0.670 -0.2185 -0.0329  0.0995
 9707W        W52801  21.954   4.769   0.340  0.0728  0.1044 -0.1808
 9708W        W52802  19.710   4.008   0.302  0.2117 -0.1382  0.3837
 9709W        W52803  18.100   5.479   0.018 -0.1952  0.0437  0.1220
 9710W        W52804  21.895   6.447   1.230 -0.0166 -0.0559  0.0498
 9711W        W52805  21.666   6.185   0.314 -0.1313 -0.0215  0.0221
 9712W        W52806  19.966   6.150   1.210  0.1224 -0.2067 -0.0948
 9713W        W52807  18.095   5.789   2.778 -0.0796 -0.0050 -0.2162
 9714W        W52808  19.299   6.675   1.239  0.1385  0.0256 -0.4069
 9715W        W52809  19.281   4.821   3.301  0.5814  0.0130  0.1704
 9716W        W52810  16.917   3.547   2.751  0.3783  0.0857 -0.0355
 9717W        W52811  21.897   5.067   3.027 -0.2383  0.0262 -0.0760
 9718W        W52812  17.351   4.181   0.720  0.4216  0.0133  0.0299
 9719W        W52813  21.658   3.943   1.976  0.3067 -0.2146  0.0638
 9720W        W52814  18.753   3.816   0.798 -0.1363 -0.1597 -0.1666
 9721W        W52815  18.042   5.858   2.198  0.2165 -0.3742  0.0107
 9722W        W52816  21.286   3.318   3.022  0.0610 -0.0448 -0.1186
 9723W        W52817  19.817   6.873   1.803 -0.1080  0.0048  0.2133
 9724W        W52818  21.565   6.798   2.539 -0.0623  0.2681  0.0375
 9725W        W52819  20.851   7.449  31.952  0.1481  0.1111  0.0984
 9726W        W52820  18.057   5.388   4.221 -0.1530  0.0353  0.1858
 9727W        W52821  18.655   5.966   1.259  0.3728 -0.1580 -0.3326
 9728W        W52822  18.721   7.220   0.231  0.1744 -0.2755  0.0363
 9729W        W52823  18.302   8.286   1.792  0.0956 -0.1051 -0.0298
 9730W        W52824  20.034   4.775   0.005  0.3316  0.0008 -0.1910
 9731W        W52825  21.346   7.022   1.882 -0.2032  0.0397 -0.0471
 9732W        W52826  20.674   6.568   1.447 -0.0762  0.2130  0.0628
 9733W        W52827  18.791   6.747   1.919 -0.1316  0.1363 -0.1194
 9734W        W52828  20.331   3.625   2.315 -0.1618  0.2883 -0.0944
 9735W        W52829  21.933   5.281   1.123 -0.0516  0.2668  0.0949
 9736W        W52830  20.913   5.053  31.730 -0.2439 -0.0080 -0.0971
 9737W        W52831  18.247   4.496  31.710 -0.3072 -0.1491  0.2363
 9738W        W52832  20.762   5.665   1.405  0.1467  0.0216 -0.1961
 9739W        W52833  17.959   8.443   0.316 -0.2017 -0.3641  0.2025
 9740W        W52834  18.434   6.006   1.801 -0.0338 -0.1919  0.1803
 9741W        W52835  19.466   6.212   1.110 -0.1473 -0.2333 -0.2813
 9742W        W52836  20.201   4.394   2.240 -0.4281  0.0587  0.0215
 9743W        W52837  17.358   4.652   4.328 -0.0167  0.1085  0.4262
 9744W        W52838  19.985   4.605   2.634 -0.2935 -0.0013  0.1583
 9745W        W52839  17.302   4.834   1.399 -0.1255 -0.0178 -0.0243
 9746W        W52840  18.467   6.427   2.852  0.2954  0.0606 -0.3425
 9747W        W52841  20.320   2.461   1.239 -0.0796 -0.4573  0.0460
 9748W        W52842  22.335   3.995  31.177  0.0220  0.1175 -0.0510
 9749W        W52843  21.035   6.190   3.447  0.1371 -0.0049  0.0611
 9750W        W52844  20.086   7.179   0.200 -0.0259  0.0107  0.2259
 9751W        W52845  20.647   4.354  31.189 -0.0211  0.1546  0.0684
 9752W        W52846  21.289   3.759   0.329 -0.1321  0.0690  0.0637
 9753W        W52847  18.682   6.828   4.622 -0.3271  0.3799 -0.0888
 9754W        W52848  20.789   6.272   0.026 -0.4538 -0.2034 -0.1511
 9755W        W52849  19.896   4.760   0.508  0.0860  0.1712  0.1292
 9756W        W52850  19.272   5.460   0.947 -0.2018  0.4127  0.0164
 9757W        W52851  20.966   6.174   1.449 -0.1011  0.1594 -0.2261
 9758W        W52852  18.435   6.393   1.019  0.1582 -0.1857  0.0337
 9759W        W52853  20.941   5.643   3.684 -0.0587  0.1373 -0.0990
 9760W        W52854  20.995   6.625   2.465 -0.4981  0.1470 -0.0262
 9761W        W52855  19.118   4.462   1.711 -0.0759 -0.3077  0.0634
 9762W        W52856  19.666   5.806   0.850  0.1101 -0.0660 -0.0715
 9763W        W52857  19.872   2.434   0.944  0.1394  0.0165 -0.1800
 9764W        W52858  17.940   7.742   0.273 -0.0703  0.2674 -0.1097
 9765W        W52859  21.642   3.503   3.298 -0.0694 -0.0553  0.2391
 9766W        W52860  20.811   4.017   0.878 -0.2618 -0.2906 -0.2028
 9767W        W52861  19.076   3.787   2.389  0.2562  0.1114  0.0271
 9768W        W52862  21.640   4.806   3.404 -0.1026 -0.1609  0.1303
 9769W        W52863  22.215   4.031  31.640 -0.0695 -0.1546  0.0255
 9770W        W52864  20.905   5.664   2.027  0.1248 -0.0762 -0.0127
 9771W        W52865  21.128   5.382   0.168  0.0467 -0.1760  0.1744
 9772W        W52866  19.457   5.279   3.063 -0.1652  0.2805 -0.1074
 9773W        W52867  19.146   5.947   3.177  0.4042  0.3254  0.0270
 9774W        W52868  18.021   6.278   2.592  0.0334  0.1481 -0.1436
 9775W        W52869  19.736   6.510   3.486  0.1294  0.0053 -0.1514
 9776W        W52870  22.059   5.289   0.078 -0.0538 -0.2660  0.2227
 9777W        W52871  18.784   4.205   2.575  0.2365 -0.0816  0.0579
 9778W        W52872  20.070   4.881  31.499  0.1596 -0.2087 -0.0874
 9779W        W52873  19.579   7.263  30.721 -0.0995  0.1782 -0.1624
 9780W        W52874  19.642   7.186   0.415  0.0705 -0.0311 -0.0264
 9781W        W52875  18.402   4.468   2.298 -0.0307  0.1325 -0.0392
 9782W        W52876  20.184   6.507   1.488  0.3600 -0.0940  0.2191
 9783W        W52877  19.623   6.334  30.971 -0.3429 -0.1520 -0.1573
 9784W        W52878  19.817   6.872   3.926  0.1379  0.0187  0.1428
 9785W        W52879  18.284   6.563   0.554 -0.0421 -0.3392  0.0290
 9786W        W52880  21.712   4.811   2.531 -0.1937 -0.0042  0.2233
 9787W        W52881  17.370   7.729   1.898 -0.0879 -0.1034 -0.0261
 9788W        W52882  18.446   4.741  31.291 -0.3787 -0.2221 -0.4975
 9789W        W52883  17.346   5.346   1.094 -0.0101 -0.2867  0.2274
 9790W        W52884  22.405   4.628   0.366  0.0932  0.0736  0.1162
 9791W        W52885  21.625   5.759  31.317 -0.0727  0.1570  0.2428
 9792W        W52886  19.073   4.539   2.880  0.1437  0.1005 -0.1359
 9793W        W52887  19.638   4.382   2.206 -0.1581 -0.0686 -0.2574
 9794W        W52888  17.573   5.217   3.069  0.0239  0.1462  0.2340
 9795W        W52889  20.722   5.219   2.189 -0.1851 -0.0764  0.4705
 9796W        W52890  21.381   4.197  31.924  0.0873  0.1015  0.0995
 9797W        W52891  21.150   5.567   2.444 -0.0005 -0.0029  0.0182
 9798W        W52892  19.354   5.419   4.493 -0.4106  0.2493  0.0914
 9799W        W52893  17.879   3.436  31.124  0.1203 -0.0880 -0.0116
 9800W        W52894  21.205   5.106   0.594 -0.2412  0.1041 -0.0558
 9801W        W52895  19.523   4.798   2.452 -0.0899  0.0972 -0.2209
 9802W        W52896  18.468   6.153   0.303  0.3172 -0.1576 -0.0825
 9803W        W52897  19.937   5.559   1.901  0.0394  0.1817 -0.4897
 9804W        W52898  19.462   4.989   0.209  0.1494 -0.2366  0.0719
 9805W        W52899  19.119   5.840   1.203  0.0728 -0.1813  0.3725
 9806W        W52900  19.222   4.171   2.113  0.0780 -0.2252 -0.0004
 9807W        W52901  21.350   5.264   1.963 -0.1212  0.0832 -0.0195
 9808W        W52902  20.433   5.594   1.922 -0.2757 -0.1291 -0.1192
 9809W        W52903  18.393   4.868   1.624  0.1391 -0.1485  0.2038
 9810W        W52904  19.602   3.780  31.680  0.0673 -0.2887  0.0467
 9811W        W52905  20.376   6.046   2.828  0.0310  0.2872 -0.0277
 9812W        W52906  19.352   5.525   1.944 -0.0323 -0.0177 -0.2235
 9813W        W52907  17.462   6.025   4.739 -0.2191 -0.1067 -0.0197
 9814W        W52908  20.111   3.100   2.776 -0.4736 -0.1176  0.0279
 9815W        W52909  20.443   6.506   2.256 -0.3393  0.1051  0.0798
 9816W        W52910  20.273   5.198   2.763  0.1312 -0.1136  0.1096
 9817W        W52911  18.548   5.817  31.836 -0.1875 -0.1398 -0.4652
 9818W        W52912  18.453   6.453   2.211 -0.0642  0.0621 -0.2330
 9819W        W52913  18.591   7.489   0.640 -0.0335 -0.0321 -0.3130
 9820W        W52914  19.571   4.707   2.932  0.0548  0.0075 -0.1577
 9821W        W52915  18.785   7.308   2.848  0.0975  0.2370  0.3281
 9822W        W52916  18.613   6.312  31.759 -0.1724  0.2540 -0.2500
 9823W        W52917  17.914   6.614   1.356 -0.0227  0.2540  0.1865
 9824W        W52918  20.089   4.380   0.780  0.0808  0.5474  0.1852
 9825W        W52919  20.831   4.750  31.348 -0.0119  0.4046  0.0013
 9826W        W52920  21.016   3.902  31.875 -0.0761 -0.0795 -0.4508
 9827W        W52921  21.289   4.527   2.515  0.1343  0.0391 -0.0320
 9828W        W52922  20.311   3.921  31.570 -0.0168  0.0178  0.1385
 9829W        W52923  19.662   2.930   2.670 -0.1146 -0.3168 -0.0941
 9830W        W52924  18.623   4.165   3.076  0.3058  0.0848 -0.1134
 9831W        W52925  20.531   6.991   0.519 -0.0749 -0.0932 -0.1259
 9832W        W52926  18.627   5.321   3.474 -0.0217 -0.0761  0.0525
 9833W        W52927  21.837   7.584   3.350  0.3655 -0.3006 -0.2369
 9834W        W52928  18.654   6.002   2.991 -0.2084 -0.0827  0.0972
 9835W        W52929  20.072   3.789   0.002 -0.2093  0.2270 -0.0883
 9836W        W52930  18.750   3.908   0.243 -0.2828  0.2694  0.4443
 9837W        W52931  19.909   4.771   2.098  0.2191  0.1131 -0.1087
 9838W        W52932  21.326   5.954   3.015 -0.4955 -0.1078 -0.2277
 9839W        W52933  20.310   5.176   0.883  0.3777  0.2418  0.0236
 9840W        W52934  22.573   4.948   0.701 -0.0571 -0.1068 -0.1809
 9841W        W52935  19.204   6.199   1.548  0.0658 -0.1083 -0.0645
 9842W        W52936  21.343   5.323  31.589 -0.0336 -0.1373 -0.1828
 9843W        W52937  20.689   5.978   0.461  0.0165 -0.4236  0.3673
 9844W        W52938  20.666   4.546   1.052  0.0635 -0.2170 -0.1177
 9845W        W52939  18.390   3.805   2.390  0.1139  0.0506 -0.1619
 9846W        W52940  20.857   6.138   2.562  0.0870 -0.0911  0.0136
 9847W        W52941  19.956   4.758   1.074 -0.0368  0.0933  0.0064
 9848W        W52942  20.984   3.650   2.743  0.1201 -0.0185  0.1724
 9849W        W52943  20.569   4.916   3.127  0.3716  0.0420 -0.1278
 9850W        W52944  19.503   5.546   3.855 -0.0297 -0.3643 -0.0555
 9851W        W52945  17.981   3.993   4.738  0.2982 -0.1183 -0.0222
 9852W        W52946  20.142   5.982   2.177  0.1073  0.3852 -0.3225
 9853W        W52947  21.700   5.500  30.690  0.4378  0.3676 -0.0888
 9854W        W52948  21.220   4.178   2.175 -0.0776  0.1679  0.0207
 9855W        W52949  21.697   5.032   0.779  0.2450  0.2014 -0.2059
 9856W        W52950  18.946   4.847   0.370  0.1757  0.0629  0.2037
 9857W        W52951  18.796   5.123   1.740 -0.1109  0.1477 -0.1199
 9858W        W52952  20.096   5.020   3.856  0.0062 -0.0945 -0.0425
 9859W        W52953  19.432   4.169  31.406 -0.1348 -0.2431 -0.1975
 9860W        W52954  20.236   4.596   3.400 -0.0446 -0.0494  0.2047
 9861W        W52955  20.461   6.098   1.326 -0.0514 -0.0388 -0.0515
 9862W        W52956  20.626   5.512   0.675  0.2565  0.2414 -0.4328
 9863W        W52957  20.301   3.936   1.031 -0.2673 -0.1808  0.2202
 9864W        W52958  18.526   6.000   2.501  0.2583 -0.3303  0.1362
 9865W        W52959  19.977   6.997   3.117 -0.3279 -0.1354 -0.0194
 9866W        W52960  19.907   4.270  31.706  0.0602 -0.0051  0.1569
 9867W        W52961  19.467   6.912   0.035 -0.4885 -0.1120  0.1576
 9868W        W52962  20.014   6.412   2.000  0.0201 -0.1915 -0.1804
 9869W        W52963  20.049   4.899   3.075  0.0035 -0.1906 -0.0004
 9870W        W52964  21.907   3.845  31.972 -0.0039 -0.1392 -0.1965
 9871W        W52965  20.067   4.339   1.728 -0.1463  0.1034 -0.1592
 9872W        W52966  17.944   6.223   0.377  0.0571  0.0428 -0.3517
 9873W        W52967  20.772   3.832   0.431  0.1574 -0.1161 -0.0364
 9874W        W52968  18.397   7.782   3.769  0.2661 -0.0066 -0.1110
 9875W        W52969  18.265   6.396   3.949 -0.1953 -0.0358 -0.4193
 9876W        W52970  18.521   7.125   1.628  0.0695 -0.1252 -0.1501
 9877W        W52971  20.056   4.040   2.589 -0.0673  0.0177  0.0150
 9878W        W52972  20.208   5.238   3.404 -0.1138  0.1672  0.1578
 9879W        W52973  19.509   4.928   1.083  0.1630 -0.1084 -0.3571
 9880W        W52974  20.901   4.762   2.784  0.0665 -0.0076  0.3291
 9881W        W52975  19.124   5.786   4.207 -0.2699  0.1473  0.3721
 9882W        W52976  19.477   5.153   0.646  0.0439  0.1408  0.1550
 9883W        W52977  19.754   6.777   2.708 -0.1249 -0.1279  0.1114
 9884W        W52978  20.862   5.239   1.670  0.0432 -0.0178  0.1302
 9885W        W52979  19.814   6.645   1.048  0.2221 -0.3063 -0.2610
 9886W        W52980  18.784   5.392   2.510  0.0375  0.3158  0.1862
 9887W        W52981  19.723   4.624   3.444 -0.1311  0.2338 -0.1245
 9888W        W52982  21.200   6.153   2.250 -0.1835 -0.1485  0.0537
 9889W        W52983  18.283   4.038  31.918 -0.3685  0.0739 -0.0594
 9890W        W52984  19.614   5.680   1.392  0.2890 -0.3144 -0.0442
 9891W        W52985  17.144   6.147   2.996 -0.2547 -0.3894  0.3257
 9892W        W52986  18.181   5.353   1.662 -0.0804  0.0202 -0.2670
 9893W        W52987  17.713   7.570   0.624 -0.1782  0.0078  0.1206
 9894W        W52988  21.579   6.188  31.790  0.2773  0.2239 -0.0494
 9895W        W52989  20.302   6.641   1.030 -0.2399  0.1332  0.2121
 9896W        W52990  18.844   7.523   1.546  0.2612 -0.1731 -0.0136
 9897W        W52991  20.548   4.746  31.877 -0.2611  0.0805  0.0637
 9898W        W52992  18.119   7.510   0.914 -0.4005 -0.3503 -0.2870
 9899W        W52993  17.610   6.861  31.967  0.0988  0.2329  0.1451
 9900W        W52994  20.369   7.079  31.771 -0.1808  0.2749  0.3362
 9901W        W52995  18.108   7.273   0.440  0.2475  0.1818 -0.1930
 9902W        W52996  20.433   6.169   3.336 -0.2155 -0.2019 -0.3234
 9903W        W52997  20.200   4.107  31.097  0.1255  0.2756  0.0151
 9904W        W52998  22.008   4.418   1.745 -0.0224 -0.0739 -0.1249
 9905W        W52999  22.446   4.510  31.813 -0.1182 -0.0000  0.0081
 9906W        W53000  20.962   6.581   1.970 -0.0292 -0.0923  0.1381
 9907W        W53001  19.653   4.174   0.742  0.0527 -0.1792 -0.0076
 9908W        W53002  20.111   4.371   0.218  0.1121 -0.0435  0.0350
 9909W        W53003  19.317   5.441   2.595  0.2149  0.0989 -0.1373
 9910W        W53004  20.012   3.288   4.000  0.4603 -0.0431  0.0109
 9911W        W53005  19.319   7.190   2.793  0.2301 -0.4216  0.0075
 9912W        W53006  20.277   6.255   0.236 -0.2924 -0.1925 -0.0432
 9913W        W53007  18.460   4.960   0.230 -0.1086  0.2647 -0.2110
 9914W        W53008  19.077   5.057   2.687  0.0940 -0.0282 -0.0478
 9915W        W53009  21.254   4.467   3.395  0.0331  0.1639 -0.0962
 9916W        W53010  19.080   6.330   0.210  0.1717 -0.2922  0.0377
 9917W        W53011  20.275   4.852   1.441  0.1202  0.1328 -0.0088
 9918W        W53012  18.525   7.436  31.638  0.0942 -0.0340 -0.1165
 9919W        W53013  18.989   7.096   1.414 -0.2081  0.1663  0.0851
 9920W        W53014  18.789   6.815   2.652 -0.0240 -0.1788 -0.0593
 9921W        W53015  16.715   3.015  31.847 -0.2054  0.0610  0.0758
 9922W        W53016  20.984   7.258   0.568  0.1441  0.2289 -0.1099
 9923W        W53017  18.626   5.582   1.998 -0.0294  0.1772 -0.2948
 9924W        W53018  20.818   4.355   2.417 -0.3036  0.1270 -0.2165
 9925W        W53019  18.799   5.511   0.917 -0.1885  0.0894  0.2618
 9926W        W53020  21.452   4.681   0.308 -0.2038  0.2907 -0.4741
 9927W        W53021  19.590   5.786   2.330 -0.0712  0.1041  0.0267
 9928W        W53022  18.520   5.213   4.004 -0.4836 -0.0464  0.0060
 9929W        W53023  20.400   5.238  31.698  0.1275  0.1876 -0.0395
 9930W        W53024  20.647   5.118   1.241  0.2146 -0.0133  0.0060
 9931W        W53025  21.084   6.087  31.672  0.0015 -0.2779  0.1250
 9932W        W53026  21.953   8.265   3.505  0.0157  0.0928  0.0085
 9933W        W53027  18.980   3.880   1.808 -0.2286  0.2837 -0.0983
 9934W        W53028  20.692   2.232  31.015 -0.1902  0.1666 -0.2886
 9935W        W53029  18.882   6.764   0.969  0.0792  0.0894  0.1984
 9936W        W53030  19.954   6.065   3.715  0.0541  0.0393  0.0326
 9937W        W53031  20.110   6.483   3.167 -0.5272 -0.0724  0.1560
 9938W        W53032  18.967   5.791   1.728 -0.1321  0.3916 -0.0526
 9939W        W53033  19.520   7.690   0.215  0.6284 -0.2081 -0.0050
 9940W        W53034  22.283   5.746   0.890 -0.1882 -0.0244 -0.0098
 9941W        W53035  19.419   8.729  30.587  0.1201  0.3120  0.0683
 9942W        W53036  22.515   5.038   0.167  0.4615  0.4566 -0.1477
 9943W        W53037  21.583   7.310   2.289  0.1387  0.2072 -0.1482
 9944W        W53038  18.171   5.036   1.098  0.0194 -0.3365 -0.1149
 9945W        W53039  19.544   7.102   1.403 -0.2459  0.1942  0.1764
 9946W        W53040  20.786   5.849   3.004  0.1687 -0.2228  0.1214
 9947W        W53041  19.247   3.925   0.401 -0.2576  0.0502 -0.0421
 9948W        W53042  18.926   4.060   1.262  0.0619  0.1723 -0.0213
 9949W        W53043  17.201   7.230   0.838 -0.3718  0.5236 -0.0884
 9950W        W53044  21.075   4.529   0.772 -0.1951  0.0971 -0.1442
 9951W        W53045  20.542   5.444   3.996 -0.1055 -0.2763  0.2805
 9952W        W53046  20.478   5.699   0.066  0.2076 -0.3205 -0.3052
 9953W        W53047  21.548   4.403   2.997  0.1956 -0.0256  0.2808
 9954W        W53048  18.949   6.354   3.048 -0.0776  0.0047 -0.0041
 9955W        W53049  19.967   7.553   3.455  0.0217  0.0586 -0.0502
 9956W        W53050  18.465   5.653   0.407  0.1839 -0.1129 -0.0112
 9957W        W53051  18.646   6.513   3.430 -0.1909 -0.0279 -0.0117
 9958W        W53052  21.818   5.334  31.513 -0.3779 -0.1954  0.0595
 9959W        W53053  19.549   5.582   0.410 -0.1295 -0.0004  0.0497
 9960W        W53054  21.389   5.276   1.364  0.1216 -0.0312  0.0789
 9961W        W53055  20.350   3.907   1.702 -0.1411 -0.1031  0.1332
 9962W        W53056  21.838   5.953   0.996  0.0900  0.0749  0.1868
 9963W        W53057  19.383   4.656   0.626  0.1839  0.2281  0.1815
 9964W        W53058  22.933   4.589  31.761 -0.0874 -0.5062  0.0894
 9965W        W53059  21.403   2.947   0.230 -0.1011 -0.3184 -0.1252
 9966W        W53060  19.564   6.459   4.526  0.2129  0.0901 -0.2671
 9967W        W53061  17.324   4.303  31.613  0.1482  0.0179  0.1174
 9968W        W53062  19.083   6.329  31.251 -0.0310 -0.2431 -0.1347
 9969W        W53063  18.982   6.267   0.992  0.0220 -0.3262  0.1273
 9970W        W53064  21.105   3.181   3.884 -0.3289  0.1059 -0.1642
 9971W        W53065  18.251   4.730   4.261  0.1964  0.0877 -0.0679
 9972W        W53066  18.987   5.802   2.255  0.1119 -0.0522 -0.0975
 9973W        W53067  19.085   4.560  31.891 -0.0424  0.2486  0.0766
 9974W        W53068  21.221   7.574   0.868  0.0179  0.2571 -0.4046
 9975W        W53069  19.703   4.676   1.574 -0.1816 -0.2994 -0.0075
 9976W        W53070  18.604   5.093   0.683 -0.1964  0.0757 -0.1969
 9977W        W53071  21.050   5.678   0.627  0.0991  0.0807 -0.0813
 9978W        W53072  21.730   6.405   0.748  0.1429 -0.0533  0.0665
 9979W        W53073  19.309   2.883   0.750  0.1339  0.5968 -0.0823
 9980W        W53074  21.560   6.075   3.504  0.4998 -0.0482  0.3938
 9981W        W53075  15.765   5.237   0.150  0.2074 -0.0368 -0.1181
 9982W        W53076  18.875   6.627   1.452 -0.1505  0.1485 -0.1060
 9983W        W53077  19.734   5.162   2.697  0.0790 -0.1251 -0.2947
 9984W        W53078  16.044   3.548   0.284  0.1009 -0.1859  0.2155
 9985W        W53079  20.278   5.089   1.902 -0.2616  0.2683 -0.0135
 9986W        W53080  20.867   6.964   0.938 -0.1973 -0.2963 -0.2868
 9987W        W53081  19.687   7.714  31.264 -0.2070  0.0719  0.0768
 9988W        W53082  18.737   4.657   1.974  0.1560  0.2629 -0.1590
 9989W        W53083  19.275   6.450   1.979 -0.0973  0.2351 -0.1694
 9990W        W53084  19.320   4.388   1.178 -0.5512  0.0108 -0.1137
 9991W        W53085  21.178   4.832  30.939  0.0877  0.3301 -0.3339
 9992W        W53086  18.420   6.294   4.478  0.1986  0.0568 -0.5457
 9993W        W53087  19.904   5.870   0.109  0.1828 -0.1304 -0.2112
 9994W        W53088  21.608   3.336   2.124 -0.1237 -0.0076  0.0206
 9995W        W53089  20.357   4.867   0.390  0.0122 -0.0585 -0.1258
 9996W        W53090  18.777   3.688   3.222 -0.1586 -0.1926 -0.1091
 9997W        W53091  18.075   5.217   3.659  0.0235 -0.2203  0.2625
 9998W        W53092  20.387   5.597   3.041  0.1017 -0.2818 -0.1485
 9999W        W53093  19.495   3.414   0.685 -0.0223  0.0339 -0.0123
10000W        W53094  21.461   3.027  31.705 -0.2440 -0.2221 -0.0763
10001W        W53095  19.896   8.064   0.292  0.2185  0.1485 -0.1066
10002W        W53096  18.666   4.172   2.044  0.1417 -0.3827 -0.2759
10003W        W53097  21.030   4.521  31.824  0.1087 -0.0686  0.1257
10004W        W53098  21.796   5.055   1.635  0.2056 -0.0382 -0.0154
10005W        W53099  19.639   6.519   1.561 -0.2556 -0.1775 -0.0195
10006W        W53100  19.740   4.659   4.418 -0.1055 -0.1624  0.2432
10007W        W53101  18.705   4.863  31.677  0.1756 -0.2311  0.4815
10008W        W53102  23.117   6.382   0.233  0.2536 -0.0757  0.0495
10009W        W53103  20.414   6.814   1.836  0.3705  0.1346  0.1786
10010W        W53104  21.733   7.325   3.849  0.3996 -0.3577  0.0360
10011W        W53105  19.314   6.909   1.804 -0.0447  0.2298 -0.1861
10012W        W53106  21.124   6.699   0.522  0.0590 -0.3311 -0.0973
10013W        W53107  18.169   4.843   2.563  0.0730  0.2006 -0.0420
10014W        W53108  18.768   6.475   0.610 -0.0649  0.2024 -0.2591
10015W        W53109  19.146   4.877   1.498 -0.3057  0.1391  0.3046
10016W        W53110  19.968   3.843   2.019 -0.2233  0.2884  0.0715
10017W        W53111  20.213   3.925   0.489  0.3294 -0.2671 -0.1097
10018W        W53112  20.460   2.961  31.109  0.1591 -0.0362 -0.0509
10019W        W53113  18.993   6.950   3.133 -0.1987  0.1164  0.0059
10020W        W53114  20.128   5.377   2.315  0.0344  0.1555 -0.0574
10021W        W53115  19.573   6.433   6.337 -0.2469 -0.0579 -0.0206
10022W        W53116  18.960   3.300   5.437 -0.3428 -0.1108 -0.0620
10023W        W53117  20.394   3.555   4.291 -0.3024 -0.0094  0.0117
10024W        W53118  21.170   5.989   5.164  0.0976 -0.1304 -0.5461
10025W        W53119  19.381   3.895   4.388 -0.0040  0.0353  0.0033
10026W        W53120  20.467   6.238   5.454 -0.2500  0.1056 -0.0175
10027W        W53121  18.838   2.469   6.480  0.2367  0.3497 -0.1109
10028W        W53122  21.583   6.585   5.760 -0.2400 -0.0674  0.0338
10029W        W53123  20.934   7.038   6.332 -0.2785 -0.0846  0.0230
10030W        W53124  21.921   5.611   4.002 -0.1243  0.4014 -0.0041
10031W        W53125  19.505   4.349   5.890  0.3150  0.0164  0.2471
10032W        W53126  19.437   5.513   5.867 -0.0823  0.1603  0.0463
10033W        W53127  19.787   3.704   4.108 -0.0740  0.0206  0.2693
10034W        W53128  19.461   3.553   5.184 -0.0753  0.1639  0.1521
10035W        W53129  21.775   6.861   6.261  0.1732  0.1863 -0.1072
10036W        W53130  18.798   5.867   4.613 -0.1176 -0.0528  0.1068
10037W        W53131  19.778   4.629   5.454  0.0281  0.1750  0.2707
10038W        W53132  18.856   5.029   3.110  0.0921  0.0965 -0.6009
10039W        W53133  21.101   6.965   5.085 -0.0400  0.0345  0.2685
10040W        W53134  19.841   4.057   6.262  0.0379  0.1950 -0.2651
10041W        W53135  21.233   4.804   6.167 -0.0069  0.3867 -0.1540
10042W        W53136  21.055   7.907   3.944 -0.0359 -0.0921 -0.2123
10043W        W53137  19.483   6.245   2.487 -0.0068  0.1946 -0.0345
10044W        W53138  18.409   4.392   5.403 -0.3038 -0.0940 -0.3063
10045W        W53139  19.890   6.271   6.883  0.0599  0.1120 -0.2128
10046W        W53140  20.239   4.366   4.884 -0.1069  0.1583 -0.0127
10047W        W53141  20.825   5.238   5.256 -0.1091  0.0479  0.1892
10048W        W53142  20.254   7.146   5.353  0.3257  0.3103 -0.3070
10049W        W53143  19.164   7.143   5.846 -0.4691 -0.2823 -0.1422
10050W        W53144  21.457   5.364   7.405 -0.2960 -0.2841  0.0014
10051W        W53145  19.066   5.590   4.932 -0.0532  0.0531  0.2448
10052W        W53146  18.190   6.664   5.459  0.0666 -0.0380  0.0351
10053W        W53147  18.781   6.280   4.961  0.0296 -0.0859  0.3855
10054W        W53148  21.461   7.600   4.221 -0.2641 -0.3044  0.0184
10055W        W53149  21.797   7.102   5.832 -0.1428 -0.2696 -0.1868
10056W        W53150  18.798   7.688   7.536 -0.0018 -0.1449 -0.2868
10057W        W53151  17.688   5.632   4.501  0.0761  0.2906 -0.0111
10058W        W53152  19.137   7.273   6.407 -0.0139 -0.0713 -0.0411
10059W        W53153  19.451   6.351   5.413 -0.3661 -0.0343 -0.0007
10060W        W53154  20.193   5.053   5.529 -0.0163 -0.1669 -0.3128
10061W        W53155  19.682   4.945   6.282 -0.1805  0.2630  0.2682
10062W        W53156  20.356   6.698   4.094 -0.1530  0.2821 -0.1052
10063W        W53157  19.077   7.134   4.861 -0.1132  0.0090 -0.0545
10064W        W53158  18.479   6.010   7.168 -0.0455 -0.0862 -0.1725
10065W        W53159  18.786   6.906   6.336 -0.0653 -0.0916 -0.1261
10066W        W53160  21.988   4.493   6.856 -0.0772 -0.0104 -0.2366
10067W        W53161  19.578   6.085   4.138  0.2506 -0.0873 -0.0769
10068W        W53162  21.932   4.368   3.400  0.0860  0.1865 -0.1119
10069W        W53163  19.037   6.268   4.361 -0.0079 -0.0755  0.0411
10070W        W53164  21.069   4.998   3.232  0.0336  0.1446 -0.0952
10071W        W53165  19.987   3.255   5.721 -0.0866 -0.1292 -0.1353
10072W        W53166  20.013   7.060   6.097 -0.0758 -0.1520  0.0931
10073W        W53167  19.667   5.036   5.663  0.2193 -0.3630 -0.1908
10074W        W53168  21.479   6.425   7.146 -0.2075  0.0296  0.0624
10075W        W53169  18.949   5.428   5.452 -0.0032 -0.2063  0.1314
10076W        W53170  20.406   5.433   5.403  0.3214  0.2100  0.0290
10077W        W53171  19.537   7.440   6.064  0.1940  0.1481  0.0976
10078W        W53172  18.529   5.555   5.089 -0.4189 -0.1853 -0.2122
10079W        W53173  21.133   6.974   4.339 -0.1335 -0.0959  0.1078
10080W        W53174  22.301   7.329   5.698 -0.1424 -0.0683  0.1094
10081W        W53175  20.827   7.212   3.200 -0.0957  0.2817 -0.1868
10082W        W53176  18.723   4.822   4.374 -0.4142 -0.2310 -0.1122
10083W        W53177  18.612   5.270   6.348 -0.0524  0.0081  0.0595
10084W        W53178  17.949   4.948   6.336  0.2092  0.0684 -0.1760
10085W        W53179  18.731   3.321   1.756  0.3711  0.1616  0.2620
10086W        W53180  21.089   7.458   7.543  0.3810  0.1029 -0.4360
10087W        W53181  18.605   6.237   6.616 -0.0762  0.1479  0.0266
10088W        W53182  20.248   5.596   4.769 -0.3785  0.4073  0.0506
10089W        W53183  18.816   6.392   5.979  0.0806 -0.0278 -0.0244
10090W        W53184  21.528   7.328   6.624 -0.0078  0.2538  0.4004
10091W        W53185  20.612   5.906   4.599  0.0532 -0.2181 -0.1324
10092W        W53186  20.856   4.285   5.558  0.0804  0.2565  0.1263
10093W        W53187  20.965   3.961   5.087  0.2949  0.2877 -0.3505
10094W        W53188  18.862   5.554   3.856  0.1151 -0.0786  0.2425
10095W        W53189  19.305   4.959   4.621 -0.2953  0.0665  0.0681
10096W        W53190  20.502   5.150   4.924 -0.3146 -0.1947 -0.0685
10097W        W53191  19.518   7.840   5.629 -0.1483 -0.2157 -0.2345
10098W        W53192  19.890   4.032   6.746  0.2665  0.1252  0.0372
10099W        W53193  19.657   6.692   6.763  0.0950  0.0581  0.0247
10100W        W53194  18.850   8.019   3.766 -0.2141  0.0302 -0.1400
10101W        W53195  17.875   6.306   5.087 -0.0952 -0.0481  0.1569
10102W        W53196  18.574   5.773   5.552 -0.0182  0.0017  0.1219
10103W        W53197  17.770   3.925   5.971 -0.1950  0.3695 -0.2538
10104W        W53198  19.105   6.540   6.582  0.2402 -0.1502 -0.0196
10105W        W53199  20.245   4.381   4.391  0.0554  0.0561  0.0584
10106W        W53200  18.689   3.306   6.720 -0.1660  0.1815  0.1799
10107W        W53201  20.558   4.996   4.174 -0.4565  0.4600 -0.0387
10108W        W53202  19.179   6.623   4.985 -0.4246  0.1873  0.1954
10109W        W53203  21.567   8.662   3.596 -0.0822 -0.2171  0.2521
10110W        W53204  20.789   6.250   5.035 -0.2188  0.2574  0.0412
10111W        W53205  20.663   5.060   3.672 -0.1257 -0.1809  0.0607
10112W        W53206  20.424   5.473   6.415 -0.1583  0.2593  0.5719
10113W        W53207  18.897   3.647   5.104 -0.5281  0.1301 -0.2785
10114W        W53208  19.187   3.639   6.888 -0.0870  0.1185 -0.0705
10115W        W53209  19.257   4.987   6.609 -0.1905  0.1345  0.0191
10116W        W53210  21.232   5.290   6.955  0.0204  0.0154  0.0351
10117W        W53211  19.031   3.283   3.573 -0.0278 -0.0099  0.2024
10118W        W53212  20.036   5.535   3.813 -0.0755  0.1803 -0.0019
10119W        W53213  19.702   4.586   4.901 -0.2326 -0.1975 -0.1954
10120W        W53214  17.553   5.592   5.460 -0.1138 -0.1974 -0.2040
10121W        W53215  21.476   4.924   5.715 -0.0264 -0.1514 -0.0932
10122W        W53216  20.597   7.671   3.997  0.1132 -0.0869 -0.2451
10123W        W53217  20.813   7.893   6.391 -0.0795 -0.2195 -0.1325
10124W        W53218  20.686   6.810   4.503  0.1851 -0.1803 -0.0511
10125W        W53219  19.473   3.236   6.736 -0.1379 -0.1538 -0.0672
10126W        W53220  19.373   5.063   3.750  0.1894 -0.1782 -0.3921
10127W        W53221  18.554   7.235   3.973  0.2509 -0.1565 -0.1478
10128W        W53222  19.768   6.801   5.270  0.3845 -0.2188 -0.1138
10129W        W53223  19.373   4.206   3.265 -0.0103  0.0859  0.0505
10130W        W53224  21.490   8.280   4.444 -0.0256 -0.3627 -0.4568
10131W        W53225  19.942   5.301   5.137  0.0034 -0.1327 -0.0524
10132W        W53226  18.205   5.808   6.821  0.0780 -0.0442  0.1398
10133W        W53227  21.756   5.378   5.910  0.1218  0.0858 -0.0900
10134W        W53228  21.825   5.546   7.156 -0.1767  0.0671 -0.2380
10135W        W53229  20.920   5.499   5.669  0.2685 -0.1378 -0.1027
10136W        W53230  19.526   3.601   3.508 -0.0130 -0.1136  0.1679
10137W        W53231  20.716   6.844   5.415  0.4116  0.2588 -0.2816
10138W        W53232  17.877   6.160   3.625  0.1016  0.0151  0.1057
10139W        W53233  17.692   4.507   4.864 -0.1490  0.1739 -0.1555
10140W        W53234  20.596   7.141   4.126  0.2105  0.1395  0.0660
10141W        W53235  20.704   4.371   5.053  0.0772 -0.0211  0.1696
10142W        W53236  17.744   5.663   7.449 -0.1301  0.0750  0.0401
10143W        W53237  19.559   4.569   7.995 -0.0312 -0.4400  0.1826
10144W        W53238  19.113   7.487   4.016 -0.0149  0.3054 -0.0856
10145W        W53239  18.620   7.270   5.886 -0.0391  0.2106 -0.0667
10146W        W53240  20.396   3.069   4.954  0.2099 -0.0397  0.2029
10147W        W53241  20.981   4.605   4.283 -0.2102 -0.0626 -0.1908
10148W        W53242  20.108   6.422   7.312  0.0382  0.1979  0.3014
10149W        W53243  22.109   6.083   5.314  0.2397 -0.2605 -0.2879
10150W        W53244  19.951   6.271   2.617 -0.2051 -0.0359 -0.1129
10151W        W53245  18.911   4.981   3.682  0.1691 -0.0211 -0.0254
10152W        W53246  18.313   6.809   7.194  0.0468  0.0587 -0.1927
10153W        W53247  19.721   6.270   4.993 -0.2413 -0.0673 -0.1019
10154W        W53248  20.102   5.842   5.215  0.2141 -0.0022  0.0953
10155W        W53249  19.050   5.195   4.142  0.1702 -0.0763 -0.0581
10156W        W53250  22.184   7.483   4.078  0.0794 -0.0959 -0.2533
10157W        W53251  18.198   7.496   6.088  0.2601  0.0330 -0.0431
10158W        W53252  20.812   5.270   7.388 -0.1388  0.0097  0.1284
10159W        W53253  20.918   7.513   3.628 -0.0282  0.0145 -0.1756
10160W        W53254  21.763   3.558   5.460 -0.0936  0.1185  0.4829
10161W        W53255  19.065   5.129   2.214 -0.0333 -0.2819  0.1934
10162W        W53256  20.212   3.925   4.612  0.0958 -0.0790 -0.1211
10163W        W53257  19.172   7.540   2.272 -0.3099 -0.2415 -0.1683
10164W        W53258  20.195   5.106   6.137  0.0267  0.1785  0.0784
10165W        W53259  22.874   5.980   5.974 -0.1074  0.1316  0.0085
10166W        W53260  21.314   4.020   6.913  0.0673 -0.1677 -0.1416
10167W        W53261  22.516   4.983   7.352 -0.4459 -0.1742 -0.2293
10168W        W53262  21.134   6.035   4.594 -0.1172 -0.1017 -0.4066
10169W        W53263  20.293   4.427   5.424 -0.1484 -0.1754 -0.0171
10170W        W53264  19.591   5.769   2.882  0.1339  0.1691 -0.0686
10171W        W53265  20.809   3.908   5.916 -0.3416  0.2058  0.4024
10172W        W53266  19.298   6.157   5.892 -0.2600  0.0131  0.1131
10173W        W53267  18.009   8.438   5.849  0.0815 -0.1027  0.2379
10174W        W53268  21.293   6.192   6.433 -0.0292  0.0539 -0.1242
10175W        W53269  20.394   6.306   6.531  0.1810  0.0098 -0.1431
10176W        W53270  20.828   5.310   6.604  0.0917 -0.2495  0.3410
10177W        W53271  20.395   4.556   3.911  0.3172 -0.2214 -0.0437
10178W        W53272  19.292   7.305   4.447  0.0936 -0.2256 -0.2747
10179W        W53273  19.041   4.186   4.198  0.3494 -0.2691  0.0222
10180W        W53274  19.978   3.642   6.040  0.1675  0.0874  0.0197
10181W        W53275  19.958   6.243   5.408  0.1381 -0.0921  0.0868
10182W        W53276  18.991   6.415   5.491  0.1783 -0.1652  0.1101
10183W        W53277  21.273   6.062   5.853  0.0470  0.1544  0.1784
10184W        W53278  18.057   6.386   5.820 -0.1622  0.1026 -0.0689
10185W        W53279  22.124   3.101   5.460  0.3077 -0.0770 -0.3827
10186W        W53280  18.337   6.029   5.002  0.1532 -0.1407 -0.0675
10187W        W53281  19.560   4.981   5.106 -0.0865 -0.2716  0.2397
10188W        W53282  18.866   5.164   4.974 -0.0171  0.4237 -0.1119
10189W        W53283  19.815   4.598   3.913 -0.0463  0.0081 -0.1856
10190W        W53284  21.041   5.249   4.098 -0.0663 -0.2515 -0.0316
10191W        W53285  19.225   4.236   6.235  0.1540  0.3584 -0.3690
10192W        W53286  20.194   3.146   6.194 -0.0436 -0.1508  0.0967
10193W        W53287  17.989   7.990   6.195  0.0601  0.4942 -0.0757
10194W        W53288  20.766   5.074   6.134  0.1194 -0.0177  0.0957
10195W        W53289  20.524   1.750   3.614 -0.1612 -0.1893  0.2161
10196W        W53290  20.863   8.062   5.923 -0.0182  0.0826 -0.2634
10197W        W53291  20.200   5.251   7.982 -0.0809  0.0632  0.1802
10198W        W53292  18.157   3.922   4.279 -0.0712  0.0336 -0.1753
10199W        W53293  21.743   6.264   6.217 -0.1691  0.1430  0.4835
10200W        W53294  19.150   5.086   5.718 -0.0253  0.2418 -0.1536
10201W        W53295  19.431   7.665   2.692 -0.3262  0.0693 -0.3644
10202W        W53296  20.478   7.201   5.853 -0.1683  0.0683  0.0107
10203W        W53297  19.749   5.279   4.667  0.0986  0.0249  0.1342
10204W        W53298  19.084   6.126   6.366  0.1865 -0.0905  0.0753
10205W        W53299  19.352   4.941   7.291  0.0270 -0.0094 -0.0789
10206W        W53300  22.080   5.642   6.602 -0.2140 -0.0203 -0.1156
10207W        W53301  20.151   4.552   6.302 -0.4228  0.0376 -0.3262
10208W        W53302  19.240   4.700   4.197 -0.0084 -0.4046 -0.1333
10209W        W53303  19.837   4.196   5.249 -0.1738 -0.2321 -0.0466
10210W        W53304  21.291   6.795   6.546 -0.0024  0.3299  0.0949
10211W        W53305  19.773   5.147   7.226 -0.2524  0.0387  0.0561
10212W        W53306  18.729   5.786   6.413 -0.0029  0.0569  0.1250
10213W        W53307  19.738   4.142   3.589 -0.0687 -0.2295 -0.0088
10214W        W53308  20.517   6.965   4.919  0.1880  0.1210 -0.1911
10215W        W53309  21.717   5.974   6.679  0.0059 -0.1119 -0.0207
10216W        W53310  20.366   6.387   4.470 -0.3673  0.1393 -0.2155
10217W        W53311  18.880   4.713   5.423 -0.0039 -0.0989 -0.0090
10218W        W53312  19.321   6.049   5.060 -0.0973  0.1590 -0.1500
10219W        W53313  19.585   5.418   6.469  0.2260 -0.3955 -0.2036
10220W        W53314  18.320   5.639   6.116  0.0155 -0.0913  0.0548
10221W        W53315  19.861   7.428   4.369 -0.3704 -0.0162  0.1471
10222W        W53316  17.723   7.553   6.358  0.1731  0.1768 -0.5002
10223W        W53317  21.085   4.771   3.802 -0.0495  0.1831 -0.0572
10224W        W53318  21.310   5.400   5.060  0.2571  0.1473 -0.1355
10225W        W53319  19.286   4.357   4.648  0.0471 -0.0280 -0.1538
10226W        W53320  22.077   4.272   5.747  0.1369 -0.2487  0.0551
10227W        W53321  19.908   5.462   3.138 -0.0908 -0.2184  0.1003
10228W        W53322  21.664   3.979   5.692  0.0958 -0.0211 -0.4165
10229W        W53323  19.802   4.763   6.902  0.1102 -0.0276 -0.3970
10230W        W53324  21.557   6.301   5.365 -0.0147  0.2367 -0.3543
10231W        W53325  17.882   4.411   6.226 -0.3692 -0.2271 -0.0347
10232W        W53326  19.940   6.360   8.370 -0.1876 -0.0030 -0.1271
10233W        W53327  18.843   4.941   6.942 -0.1833  0.1134  0.1150
10234W        W53328  20.191   5.296   4.310 -0.1285 -0.0657 -0.1397
10235W        W53329  19.600   3.837   3.028  0.1243 -0.0545  0.1535
10236W        W53330  19.947   6.118   6.166  0.0632  0.1059 -0.0497
10237W        W53331  20.898   5.610   6.204  0.0524  0.1175  0.0236
10238W        W53332  19.554   5.709   3.379  0.0203 -0.1863  0.0972
10239W        W53333  22.153   4.989   4.829 -0.4079 -0.1633 -0.1022
10240W        W53334  19.520   5.537   5.272 -0.1321 -0.0244  0.0510
10241W        W53335  20.747   6.534   5.828  0.2973 -0.1056  0.0126
10242W        W53336  19.916   5.430   5.708 -0.0735 -0.0599 -0.1141
10243W        W53337  18.228   5.610   4.689 -0.1334  0.1999  0.2502
10244W        W53338  20.252   4.435   6.777 -0.3165 -0.1769  0.2301
10245W        W53339  20.800   6.146   6.144  0.1519 -0.1992  0.1321
10246W        W53340  20.483   3.964   5.264  0.0381  0.0438 -0.2926
10247W        W53341  21.223   4.358   6.515  0.0637 -0.0139 -0.1840
10248W        W53342  21.929   4.898   6.511 -0.1873  0.1725  0.1558
10249W        W53343  19.801   5.874   6.618  0.0535 -0.1323 -0.1121
10250W        W53344  17.996   4.035   7.537 -0.0197  0.2387 -0.2113
10251W        W53345  20.701   5.922   5.719  0.2795 -0.2824  0.1333
10252W        W53346  20.606   3.625   3.157  0.1289  0.2701  0.1389
10253W        W53347  22.226   6.591   6.467 -0.0152  0.1832 -0.0901
10254W        W53348  22.520   5.788   5.350  0.1079 -0.3134 -0.0307
10255W        W53349  21.016   4.821   5.010  0.1369  0.0225 -0.0569
10256W        W53350  18.794   4.470   4.754  0.0538  0.1598  0.0959
10257W        W53351  20.848   5.663   6.994 -0.1736 -0.1891 -0.3661
10258W        W53352  19.577   4.229   1.731 -0.2499  0.0585 -0.1656
10259W        W53353  21.704   4.238   6.543 -0.2406  0.1147  0.0199
10260W        W53354  19.039   7.657   3.130  0.1077 -0.2341 -0.1820
10261W        W53355  20.345   5.867   6.150  0.0009  0.0750 -0.1253
10262W        W53356  20.986   4.823   5.616  0.1252 -0.0452  0.1486
10263W        W53357  20.596   4.843   5.316  0.2231  0.1492  0.4240
10264W        W53358  18.150   7.057   6.366  0.0965  0.1746 -0.1306
10265W        W53359  18.895   4.494   3.362  0.0336  0.2238 -0.1096
10266W        W53360  19.777   5.640   4.262  0.0870  0.4939 -0.0023
10267W        W53361  20.033   6.599   6.372 -0.0526  0.0255  0.0413
10268W        W53362  21.889   6.075   7.149 -0.1110  0.1414 -0.0218
10269W        W53363  20.563   3.771   3.655  0.2276  0.3062 -0.3912
10270W        W53364  22.330   6.217   6.810 -0.1775  0.1326  0.1921
10271W        W53365  18.890   5.847   5.930  0.0994 -0.0705 -0.1075
10272W        W53366  21.537   4.970   5.193 -0.3047 -0.0986  0.0555
10273W        W53367  18.850   7.181   5.421  0.0877 -0.2534  0.2665
10274W        W53368  18.904   5.970   6.853 -0.2934  0.0219  0.1107
10275W        W53369  19.166   5.878   5.500  0.2511  0.0649  0.1553
10276W        W53370  21.337   5.171   6.482  0.0006 -0.2805  0.3056
10277W        W53371  22.064   5.789   6.085  0.1824 -0.1452  0.1347
10278W        W53372  19.987   4.097   5.779 -0.1764  0.2291  0.2062
10279W        W53373  22.391   5.907   7.180 -0.0789  0.0053  0.1731
10280W        W53374  21.086   6.221   6.925  0.1003  0.0430  0.2032
10281W        W53375  19.138   4.704   5.025  0.2408  0.0119 -0.1922
10282W        W53376  19.715   6.427   5.863 -0.1645  0.4273  0.2130
10283W        W53377  21.374   7.255   4.719  0.0114  0.0917  0.0539
10284W        W53378  18.784   6.820   5.770 -0.0853  0.0371  0.0147
10285W        W53379  17.317   5.417   6.364  0.3603  0.1230  0.1198
10286W        W53380  20.325   4.764   8.087  0.0288  0.1116  0.0638
10287W        W53381  19.621   6.922   5.792 -0.2253 -0.1134 -0.0125
10288W        W53382  19.270   4.543   3.741  0.2088 -0.2234  0.1392
10289W        W53383  20.694   7.038   3.660 -0.1651  0.2867 -0.3184
10290W        W53384  18.657   8.113   7.686  0.3466  0.2971 -0.6007
10291W        W53385  17.996   4.501   5.699  0.1320  0.1132  0.0824
10292W        W53386  19.420   8.505   3.963 -0.1167  0.0870  0.5058
10293W        W53387  21.367   5.162   3.672 -0.2053  0.3874  0.1946
10294W        W53388  19.954   5.550   6.186  0.1808  0.3888  0.0259
10295W        W53389  20.850   7.619   5.611 -0.0106 -0.0154  0.0250
10296W        W53390  18.912   3.980   4.716  0.0007 -0.3462  0.1060
10297W        W53391  18.884   8.181   6.707 -0.1893 -0.0467  0.0708
10298W        W53392  19.477   6.266   3.008  0.1080 -0.0923 -0.3215
10299W        W53393  20.485   6.575   3.634 -0.2999 -0.0670 -0.0574
10300W        W53394  18.476   6.253   5.396 -0.1735  0.1981  0.0836
10301W        W53395  20.963   7.003   7.463 -0.0520  0.1431 -0.2065
10302W        W53396  21.000   4.641   1.991 -0.0644  0.1643  0.1841
10303W        W53397  21.835   6.123   5.752  0.0554  0.1509  0.2715
10304W        W53398  19.744   5.204   3.477 -0.0656 -0.0060  0.0541
10305W        W53399  21.122   6.750   7.029  0.2106  0.3438  0.2027
10306W        W53400  19.101   5.460   6.285 -0.2771  0.1466  0.0161
10307W        W53401  20.066   4.102   3.995  0.1204 -0.2739  0.1531
10308W        W53402  19.240   4.748   6.071  0.1220 -0.1711  0.0593
10309W        W53403  22.359   3.686   5.918  0.1543 -0.1168 -0.0174
10310W        W53404  18.177   6.846   5.906  0.2090  0.1943 -0.0809
10311W        W53405  21.895   7.809   3.760  0.0750  0.0075 -0.1496
10312W        W53406  17.871   4.450   4.391 -0.0859 -0.0466 -0.3412
10313W        W53407  19.146   4.528   6.765  0.2002 -0.0200 -0.3875
10314W        W53408  21.238   4.503   5.309 -0.0515 -0.1716  0.2092
10315W        W53409  19.999   5.988   3.202 -0.1794 -0.0496  0.0679
10316W        W53410  21.112   5.035   4.584  0.0794  0.1364  0.2243
10317W        W53411  19.955   6.406   4.113  0.0109 -0.0669 -0.2617
10318W        W53412  18.435   6.519   6.206 -0.1854  0.0067  0.0670
10319W        W53413  19.250   6.856   5.465 -0.3593  0.0858 -0.2032
10320W        W53414  18.926   2.746   4.633  0.0837  0.2590  0.1285
10321W        W53415  21.523   4.848   4.716  0.4243 -0.0498  0.1907
10322W        W53416  20.320   5.829   6.707  0.1327 -0.1008  0.1571
10323W        W53417  21.173   3.843   5.522  0.0369  0.2241  0.0796
10324W        W53418  18.161   5.001   5.825  0.0621 -0.0736  0.1725
10325W        W53419  19.694   5.123   4.180  0.0571  0.4178 -0.1052
10326W        W53420  18.661   6.515   7.044  0.0978 -0.3551 -0.3807
10327W        W53421  19.387   6.182   6.772 -0.1891 -0.0315  0.1284
10328W        W53422  19.747   5.765   4.880  0.1501 -0.2110 -0.2357
10329W        W53423  21.052   6.460   7.444  0.0036  0.1488  0.0598
10330W        W53424  19.969   6.065   4.533 -0.1819  0.0399  0.0256
10331W        W53425  19.841   6.865   7.237 -0.2232 -0.0563 -0.2364
10332W        W53426  20.700   3.115   4.535  0.0417  0.1133 -0.0220
10333W        W53427  20.114   4.832   5.099 -0.1133  0.1215  0.1931
10334W        W53428  18.041   4.745   5.176  0.2652 -0.0664  0.0417
10335W        W53429  20.668   4.972   6.982  0.2058 -0.1673  0.0076
10336W        W53430  20.664   7.004   6.770 -0.0192  0.6873 -0.4122
10337W        W53431  19.206   3.807   5.491 -0.0936 -0.1625 -0.0145
10338W        W53432  21.046   6.579   4.772 -0.1016  0.3054 -0.0588
10339W        W53433  21.668   5.593   6.349 -0.0336 -0.0476 -0.0679
10340W        W53434  19.399   5.948   4.561 -0.0863  0.2849 -0.2953
10341W        W53435  20.228   6.244   4.950 -0.4074  0.2428 -0.2708
10342W        W53436  20.825   7.249   4.688  0.2411 -0.3968  0.1629
10343W        W53437  18.975   3.981   6.539  0.3896  0.0054  0.1264
10344W        W53438  20.852   6.566   6.475  0.3394 -0.1188  0.0793
10345W        W53439  21.147   6.589   6.072 -0.1631 -0.2276 -0.2310
10346W        W53440  20.080   3.713   3.340 -0.0592  0.1337 -0.2317
10347W        W53441  18.710   3.949   5.502  0.1805  0.1977  0.0784
10348W        W53442  18.695   6.050   3.970  0.1925 -0.0297  0.2133
10349W        W53443  22.080   4.288   4.260  0.0557 -0.0666  0.1130
10350W        W53444  22.089   5.230   6.270  0.2284  0.0201  0.2977
10351W        W53445  21.647   8.032   1.572  0.1847 -0.0184 -0.1091
10352W        W53446  21.227   3.616   7.151  0.0958  0.0367  0.1872
10353W        W53447  20.763   5.945   6.565  0.1401  0.1461  0.1061
10354W        W53448  19.344   8.175   6.844 -0.0974 -0.1316 -0.0527
10355W        W53449  19.134   5.955   2.718  0.2737  0.0597  0.2371
10356W        W53450  19.309   5.611   6.866 -0.0157 -0.1588 -0.1311
10357W        W53451  20.284   6.640   5.282 -0.2433 -0.0786 -0.2114
10358W        W53452  19.575   6.930   4.847  0.4831  0.3953 -0.0841
10359W        W53453  21.069   7.557   4.991 -0.1879 -0.0025 -0.0490
10360W        W53454  19.553   3.986   4.921 -0.0782  0.3696  0.0911
10361W        W53455  22.086   6.833   5.534  0.2209  0.0142 -0.4982
10362W        W53456  18.103   3.180   6.342 -0.3297  0.1126 -0.1319
10363W        W53457  21.433   4.827   4.159 -0.1294  0.0936  0.2803
10364W        W53458  21.590   5.256   4.413 -0.2658 -0.0749 -0.4276
10365W        W53459  19.482   5.823   6.251  0.0720 -0.2770  0.0935
10366W        W53460  18.908   5.541   3.026  0.0951  0.2916 -0.1316
10367W        W53461  18.723   5.986   3.470  0.0629 -0.2243 -0.2007
10368W        W53462  17.962   6.558   6.341 -0.2510 -0.1492 -0.3381
10369W        W53463  20.707   3.019   6.198 -0.2355 -0.3169 -0.3309
10370W        W53464  18.703   3.777   7.103 -0.0524  0.0965  0.2556
10371W        W53465  18.515   5.063   5.509  0.0689  0.0030 -0.0975
10372W        W53466  18.744   3.792   4.297 -0.0130 -0.2259  0.4317
10373W        W53467  21.221   8.618   4.674 -0.1936 -0.1149  0.2644
10374W        W53468  19.417   4.081   6.698  0.0662  0.1338 -0.0787
10375W        W53469  19.033   3.139   5.902 -0.1885  0.2243  0.2846
10376W        W53470  20.820   5.548   4.906 -0.0209  0.1469 -0.1191
10377W        W53471  20.226   5.844   4.198 -0.0263  0.3857  0.2321
10378W        W53472  19.384   3.537   2.664  0.1474 -0.0922 -0.2174
10379W        W53473  20.555   6.636   7.147  0.0506 -0.0228 -0.2894
10380W        W53474  18.470   5.281   2.891 -0.0341 -0.4773  0.1956
10381W        W53475  19.738   4.668   7.471 -0.0114 -0.0814  0.2304
10382W        W53476  20.352   4.035   6.401 -0.0713  0.4886  0.2943
10383W        W53477  18.644   2.843   3.561 -0.0803  0.3299 -0.2981
10384W        W53478  20.012   4.641   5.867  0.0298  0.2779  0.0254
10385W        W53479  20.862   6.363   4.344  0.4844 -0.1586 -0.1908
10386W        W53480  21.001   7.450   4.212  0.0075 -0.2296 -0.0987
10387W        W53481  20.512   5.438   5.910 -0.0260  0.2908 -0.2655
10388W        W53482  19.365   7.110   6.834 -0.2537 -0.2979  0.2590
10389W        W53483  18.533   4.030   6.717  0.0126 -0.3231 -0.0168
10390W        W53484  20.182   6.749   5.750  0.3105  0.1857  0.3317
10391W        W53485  19.163   7.899   7.292  0.1218  0.2083  0.0748
10392W        W53486  21.219   7.166   3.857  0.0715 -0.0103  0.2072
10393W        W53487  20.504   3.615   4.866 -0.1244  0.2699 -0.0127
10394W        W53488  20.203   5.906   5.686  0.1187 -0.0292  0.0811
10395W        W53489  19.447   3.383   5.678 -0.3500  0.1859 -0.2791
10396W        W53490  18.719   5.378   5.895  0.0658  0.1904  0.0435
10397W        W53491  22.099   6.536   5.951 -0.0883 -0.5069  0.2032
10398W        W53492  18.592   3.075   5.062  0.1302 -0.3427 -0.1037
10399W        W53493  20.127   3.230   4.556 -0.0431 -0.2259  0.3213
10400W        W53494  19.680   5.950   5.709  0.2008  0.1320 -0.0761
10401W        W53495  18.743   4.585   5.901 -0.3800 -0.1134  0.0035
10402W        W53496  20.182   4.879   4.589 -0.0395 -0.1547 -0.0444
10403W        W53497  21.544   5.824   7.706 -0.3404  0.1108 -0.2060
10404W        W53498  20.953   7.504   6.074  0.1504  0.1253 -0.1295
10405W        W53499  21.219   5.658   6.569  0.2010  0.6285  0.0523
10406W        W53500  19.825   4.151   4.482  0.0612  0.0118 -0.0358
10407W        W53501  21.892   6.572   5.129  0.1010  0.1152  0.0717
10408W        W53502  21.018   7.504   6.658 -0.1942 -0.4088  0.1191
10409W        W53503  20.750   7.332   7.134  0.3346  0.0743  0.2396
10410W        W53504  19.273   6.693   6.065 -0.3743 -0.0777  0.0866
10411W        W53505  22.356   7.221   5.214  0.2740  0.1225 -0.2047
10412W        W53506  19.666   3.243   6.188  0.2999  0.0591 -0.1099
10413W        W53507  19.843   3.675   5.508  0.1253  0.2554 -0.1134
10414W        W53508  19.051   4.140   5.129 -0.2343 -0.0654  0.0633
10415W        W53509  21.389   5.453   5.570  0.3159  0.4066  0.3864
10416W        W53510  19.477   3.789   5.910  0.2076 -0.0125  0.0082
10417W        W53511  20.550   4.077   4.137  0.0897  0.1235  0.2086
10418W        W53512  18.669   7.378   6.519  0.1116  0.4594 -0.2033
10419W        W53513  22.320   7.450   6.287  0.0802  0.0625 -0.3024
10420W        W53514  18.387   2.811   9.445 -0.0645 -0.3113 -0.3124
10421W        W53515  19.045   4.884   8.488  0.0829 -0.0390 -0.2819
10422W        W53516  20.768   4.523   6.180 -0.0931  0.2034 -0.2487
10423W        W53517  20.880   5.961   8.991 -0.3807 -0.1014  0.1826
10424W        W53518  18.154   4.910   8.055 -0.0273  0.1894 -0.0757
10425W        W53519  20.802   6.835   8.254  0.1554 -0.0642 -0.0330
10426W        W53520  20.700   5.051  10.105 -0.1533  0.2672  0.0589
10427W        W53521  20.615   8.613   9.028  0.2203 -0.0313 -0.0539
10428W        W53522  20.067   6.099   7.671 -0.0603  0.2456 -0.0939
10429W        W53523  20.545   5.540   8.869  0.2556  0.0818  0.1079
10430W        W53524  20.415   3.498   7.697  0.3411 -0.0136  0.0864
10431W        W53525  19.310   2.260   8.788 -0.2928 -0.2126 -0.0211
10432W        W53526  18.782   6.300   9.911  0.2686  0.1832  0.0496
10433W        W53527  18.261   5.145   7.639 -0.1610  0.1009  0.1351
10434W        W53528  19.085   3.369   9.792 -0.1327 -0.2594 -0.0834
10435W        W53529  18.516   4.967   8.473  0.0440  0.0772  0.0296
10436W        W53530  19.956   8.210   7.322 -0.0316  0.1423  0.2670
10437W        W53531  19.795   4.718   9.739  0.0747  0.0144  0.2224
10438W        W53532  19.813   6.337   8.841  0.1137  0.1531 -0.0840
10439W        W53533  17.677   5.226   6.641  0.0202 -0.2084 -0.1774
10440W        W53534  18.923   4.258   9.260 -0.2070  0.1587  0.1074
10441W        W53535  19.334   4.977   9.543 -0.1875 -0.0431  0.0722
10442W        W53536  19.448   4.470   9.386 -0.0181  0.1143 -0.3366
10443W        W53537  21.766   5.960   8.363  0.1934 -0.4230  0.1795
10444W        W53538  17.882   6.879   9.810 -0.2690 -0.0324 -0.0203
10445W        W53539  20.201   7.193   7.973  0.0486  0.2154 -0.2215
10446W        W53540  19.170   4.403   8.866 -0.1197 -0.2198  0.0803
10447W        W53541  18.475   6.894   8.291  0.0687  0.2744 -0.0068
10448W        W53542  20.270   6.110   8.707 -0.1074 -0.1957  0.0672
10449W        W53543  22.370   6.963   9.325  0.2156  0.0048 -0.1410
10450W        W53544  18.438   6.723   6.669 -0.3045  0.0364 -0.2777
10451W        W53545  19.717   5.418   9.020  0.2918 -0.3323  0.0275
10452W        W53546  19.738   5.390   8.328 -0.0182  0.4568  0.0384
10453W        W53547  18.707   7.066   7.362 -0.1632  0.0348  0.2134
10454W        W53548  19.400   5.437   9.398 -0.0413 -0.3418 -0.0638
10455W        W53549  18.554   5.628   9.674  0.1561  0.1590 -0.1364
10456W        W53550  18.838   7.048   6.875 -0.0105 -0.1785  0.1187
10457W        W53551  20.223   4.710   7.210  0.0437 -0.0352  0.1388
10458W        W53552  19.608   4.480   6.437  0.2594 -0.2378 -0.1874
10459W        W53553  20.086   4.346   7.868  0.0110 -0.2423  0.0831
10460W        W53554  19.453   3.013   8.179 -0.2033  0.0306 -0.2208
10461W        W53555  19.079   6.874   9.510  0.0907 -0.0648 -0.0429
10462W        W53556  19.265   4.433   8.382 -0.0102  0.0487  0.3772
10463W        W53557  19.868   5.580   7.482  0.1280 -0.0582 -0.1155
10464W        W53558  21.321   4.495  10.194 -0.0556 -0.0449  0.3205
10465W        W53559  20.406   6.946   8.478  0.1211 -0.0834  0.2890
10466W        W53560  17.687   4.919   8.717 -0.2455 -0.0590  0.1531
10467W        W53561  21.306   7.101   8.362  0.0618  0.3992 -0.2797
10468W        W53562  21.974   7.613   8.919  0.3257 -0.0059 -0.0405
10469W        W53563  20.221   7.236   7.055  0.1925 -0.1019  0.0449
10470W        W53564  18.158   5.177   8.764 -0.1405 -0.0721  0.0409
10471W        W53565  19.967   4.303   7.236 -0.1164  0.1053  0.2237
10472W        W53566  21.656   4.954   7.641 -0.1525 -0.2274  0.0189
10473W        W53567  19.801   5.128   9.437 -0.0297 -0.0331 -0.1678
10474W        W53568  21.974   7.103   9.821 -0.2256  0.0774 -0.2649
10475W        W53569  19.694   7.844   7.001 -0.0664  0.2913  0.1645
10476W        W53570  20.968   4.282   8.470 -0.2000 -0.0263 -0.0390
10477W        W53571  21.021   4.663   8.959 -0.1327 -0.0284  0.1265
10478W        W53572  18.701   5.267   7.293 -0.2480  0.2232 -0.0381
10479W        W53573  18.774   6.511   7.511 -0.3202 -0.1933  0.0769
10480W        W53574  18.388  10.029  11.925 -0.2819  0.2830  0.1882
10481W        W53575  21.088   6.691   9.818 -0.2010 -0.3060  0.1273
10482W        W53576  18.760   7.462   8.996 -0.1336 -0.1028  0.0047
10483W        W53577  19.251   6.476   7.721 -0.2136 -0.1347 -0.0788
10484W        W53578  19.272   5.765   8.282 -0.1946 -0.2543 -0.0433
10485W        W53579  18.139   6.095   6.342  0.0504 -0.2284  0.0842
10486W        W53580  17.558   3.059   9.395 -0.1324  0.1531 -0.0833
10487W        W53581  21.170   3.594   9.430 -0.0763  0.0380  0.2260
10488W        W53582  22.072   4.716   8.558 -0.1182  0.0802 -0.0181
10489W        W53583  21.524   4.786   8.661  0.0084 -0.1610 -0.0825
10490W        W53584  18.905   5.480   8.244  0.0973  0.1339  0.0356
10491W        W53585  21.508   7.224   9.654  0.2165  0.1267  0.0690
10492W        W53586  21.171   6.102   7.912 -0.0102  0.1798 -0.0953
10493W        W53587  20.164   6.705   6.867  0.1421  0.0216  0.0560
10494W        W53588  18.389   6.062   9.393 -0.0963  0.2394 -0.4456
10495W        W53589  18.399   4.507   8.162  0.0316 -0.2428  0.3230
10496W        W53590  18.532   4.949   9.722  0.0115  0.3466  0.0025
10497W        W53591  19.306   4.066   8.004 -0.1161  0.2216  0.0008
10498W        W53592  20.839   6.141   9.813 -0.1419  0.1998  0.0756
10499W        W53593  18.908   4.729   9.092 -0.0418  0.2684 -0.3479
10500W        W53594  18.173   5.703   8.790 -0.1359 -0.0695 -0.2457
10501W        W53595  20.356   8.508   8.564 -0.0437  0.1370  0.0975
10502W        W53596  20.980   8.963   9.833 -0.0454 -0.1783 -0.1860
10503W        W53597  20.556   6.154   9.321  0.1192 -0.1047 -0.0013
10504W        W53598  17.935   3.894   9.530 -0.3118 -0.3587 -0.3013
10505W        W53599  19.975   3.519   7.977  0.1059 -0.1404  0.0405
10506W        W53600  18.471   8.452   8.634 -0.1370 -0.0077  0.1545
10507W        W53601  17.808   6.459   9.400  0.0977 -0.0752  0.1766
10508W        W53602  19.065   3.613   7.810 -0.2282  0.0782 -0.1991
10509W        W53603  20.770   7.437   9.077 -0.3986  0.0871 -0.3141
10510W        W53604  19.616   5.954   7.188 -0.3189  0.0102  0.1029
10511W        W53605  19.728   7.206   9.545 -0.1655 -0.0619  0.2402
10512W        W53606  20.338   5.649   8.299  0.1674  0.1175 -0.0661
10513W        W53607  18.961   3.283   7.221  0.0594  0.0059 -0.1533
10514W        W53608  20.948   8.864   8.709 -0.0711 -0.0557  0.1022
10515W        W53609  17.789   7.546   8.781 -0.0046  0.0314 -0.0193
10516W        W53610  18.353   4.066   7.905  0.3272  0.2022  0.0794
10517W        W53611  19.791   5.407   9.927 -0.1408 -0.1883  0.1833
10518W        W53612  19.769   4.790   9.137 -0.0386  0.0682  0.1540
10519W        W53613  19.632   4.199   7.610 -0.0843  0.0979 -0.1108
10520W        W53614  20.948   4.353   7.790  0.2838 -0.0769  0.0901
10521W        W53615  21.542   4.976   7.091  0.3478 -0.0653 -0.1176
10522W        W53616  21.116   6.366  10.233  0.3929 -0.1720 -0.4070
10523W        W53617  21.859   5.451   7.673  0.2025  0.1998  0.1837
10524W        W53618  21.131   3.071   6.442 -0.2932  0.2645 -0.1183
10525W        W53619  20.204   5.298   9.146 -0.0491 -0.1924  0.2936
10526W        W53620  19.694   6.677   9.760  0.4368 -0.1697  0.1867
10527W        W53621  20.455   4.891   6.509 -0.1529 -0.0632  0.0992
10528W        W53622  22.069   6.519   9.767 -0.0856 -0.2193 -0.2248
10529W        W53623  17.581   5.559   9.011  0.2044  0.3634 -0.0133
10530W        W53624  21.069   6.418   8.762 -0.0865 -0.0860  0.3542
10531W        W53625  19.890   3.281   9.627 -0.3196 -0.0929  0.0234
10532W        W53626  21.026   5.979   7.405  0.1548  0.3259  0.0082
10533W        W53627  19.773   3.961   8.044  0.2013  0.2426 -0.0134
10534W        W53628  17.335   9.001   7.514  0.1081 -0.0134 -0.2732
10535W        W53629  18.965   1.262   9.694  0.1275  0.1890 -0.4482
10536W        W53630  20.145   4.928   8.557  0.0893  0.2627  0.1916
10537W        W53631  21.100   5.575   7.713  0.1124 -0.2114 -0.3327
10538W        W53632  21.305   5.953   9.673  0.1329  0.0830 -0.2477
10539W        W53633  20.439   5.404   7.018 -0.0019  0.3083  0.1337
10540W        W53634  20.408   3.105   9.782 -0.1715  0.2105 -0.0495
10541W        W53635  17.464   5.746   9.921 -0.1116  0.0305 -0.0028
10542W        W53636  20.353   6.080   8.067 -0.0663 -0.0523  0.0018
10543W        W53637  20.912   3.684   7.680  0.1386  0.0745  0.2672
10544W        W53638  18.126   7.222   8.534  0.1495 -0.0585 -0.1379
10545W        W53639  20.253   5.282   7.486 -0.1269 -0.2242  0.1029
10546W        W53640  19.731   3.023   7.692  0.0717 -0.1049 -0.0640
10547W        W53641  20.401   7.386   8.701 -0.1983  0.4771 -0.0028
10548W        W53642  20.455   6.807   6.231  0.2150 -0.1794  0.1634
10549W        W53643  20.984   5.914  10.301  0.1849  0.0557 -0.2077
10550W        W53644  20.555   6.469   8.571  0.0867 -0.1097 -0.0677
10551W        W53645  22.606   5.139   9.855 -0.0282  0.0621 -0.0025
10552W        W53646  17.734   5.144   8.143  0.2282 -0.2418  0.1111
10553W        W53647  18.910   4.639   8.064 -0.1054  0.1140 -0.1041
10554W        W53648  17.867   3.738   7.921 -0.0061  0.1826 -0.1224
10555W        W53649  21.400   4.627   7.917 -0.3008  0.3286  0.0455
10556W        W53650  21.778   7.000   8.561  0.0339  0.0038 -0.2121
10557W        W53651  19.667   3.545   8.671  0.0896  0.1527  0.0846
10558W        W53652  20.446   4.199   8.651  0.0709 -0.0181 -0.1265
10559W        W53653  19.086   5.589   9.032 -0.3484  0.1522 -0.3074
10560W        W53654  20.983   4.825   6.584  0.1660 -0.0760 -0.0353
10561W        W53655  19.972   5.194   6.615  0.0123 -0.4502 -0.3387
10562W        W53656  20.697   3.745  10.194  0.0736 -0.1849 -0.1589
10563W        W53657  20.735   4.050   9.528 -0.1861 -0.0855  0.1825
10564W        W53658  19.254   7.879   7.859  0.0868  0.0464  0.0938
10565W        W53659  21.877   7.596   9.854  0.1906 -0.0306  0.0828
10566W        W53660  19.939   5.540   6.952  0.0053 -0.1432  0.0219
10567W        W53661  18.790   5.208   8.873  0.1099  0.1944 -0.2627
10568W        W53662  21.456   5.953  10.543 -0.0547 -0.1075 -0.1756
10569W        W53663  18.469   4.565   9.369 -0.0644  0.2155 -0.2677
10570W        W53664  20.291   3.232   9.292 -0.0656 -0.3550 -0.2431
10571W        W53665  19.313   5.180   8.107  0.2000 -0.3307  0.0351
10572W        W53666  21.024   7.188   9.991 -0.1204 -0.1291  0.1137
10573W        W53667  20.797   5.569   9.862  0.3628  0.1573 -0.1052
10574W        W53668  21.191   4.767   8.330  0.0091  0.3264  0.1561
10575W        W53669  21.881   7.237   9.315  0.1659 -0.1868  0.0776
10576W        W53670  18.319   5.601   7.425  0.1558  0.1676  0.1379
10577W        W53671  17.770   4.355   8.833  0.0928  0.3197 -0.0607
10578W        W53672  18.690   5.745   8.617 -0.1195  0.0531 -0.0870
10579W        W53673  20.131   6.407   9.817  0.0867 -0.1757 -0.0816
10580W        W53674  18.885   6.529   8.836 -0.2282 -0.2211  0.0037
10581W        W53675  19.101   6.523   8.342  0.3472  0.0951  0.0973
10582W        W53676  18.139   5.220   9.676  0.3140  0.0257  0.0914
10583W        W53677  22.945   4.738   7.192 -0.1383  0.5082 -0.2058
10584W        W53678  20.984   5.422   8.264 -0.0843  0.3088  0.1266
10585W        W53679  20.726   4.400   7.159  0.0833 -0.2669 -0.0086
10586W        W53680  20.581   6.154   7.061  0.0433 -0.0996  0.2832
10587W        W53681  20.387   3.664   9.564  0.4417  0.0091 -0.4453
10588W        W53682  21.979   6.820  10.253 -0.0200 -0.1215  0.1469
10589W        W53683  21.375   5.250   8.460 -0.2047 -0.0377  0.0715
10590W        W53684  20.040   2.717   8.047  0.1015 -0.0769  0.0822
10591W        W53685  20.309   4.852   9.831  0.1753  0.0173  0.0568
10592W        W53686  21.641   5.913  10.042 -0.0288  0.0236 -0.2410
10593W        W53687  19.036   7.017   8.517 -0.2275  0.0295 -0.0375
10594W        W53688  21.407   4.087   8.175  0.3072 -0.1728  0.2612
10595W        W53689  19.626   4.533   8.675 -0.1835  0.1601  0.2672
10596W        W53690  21.227   5.587   9.379 -0.2633  0.1344  0.1678
10597W        W53691  19.743   6.485   7.785  0.1732 -0.1126  0.1278
10598W        W53692  18.104   4.705   8.971  0.0799  0.2045 -0.0269
10599W        W53693  20.489   7.027   9.064  0.2002  0.1606 -0.3879
10600W        W53694  20.669   2.268   9.428  0.1901 -0.0553 -0.3727
10601W        W53695  23.503   6.655  10.316 -0.0536 -0.2219  0.2041
10602W        W53696  19.845   4.931   8.174 -0.0874 -0.0595  0.0341
10603W        W53697  20.175   4.590   8.921 -0.2484  0.3575 -0.0584
10604W        W53698  21.543   7.137  10.259  0.2921 -0.0557 -0.2736
10605W        W53699  20.733   5.866   7.924 -0.0809 -0.0499  0.2898
10606W        W53700  18.415   3.947   8.416 -0.0214  0.1238  0.3729
10607W        W53701  18.500   4.222   7.281  0.1725  0.2561  0.1600
10608W        W53702  20.198   7.720   7.226  0.1581  0.2422 -0.1225
10609W        W53703  20.180   5.773   9.045  0.1590 -0.3246 -0.4055
10610W        W53704  21.120   4.909   7.418  0.2080  0.0626  0.1100
10611W        W53705  18.757   3.918   8.849 -0.1462 -0.2382 -0.2204
10612W        W53706  18.892   4.655   7.350  0.1516 -0.2858  0.4487
10613W        W53707  20.234   6.840   7.542  0.0302 -0.2670  0.1422
10614W        W53708  17.600   6.467   9.948 -0.1071 -0.2779  0.2597
10615W        W53709  21.544   4.194   7.630 -0.4258  0.1178 -0.1252
10616W        W53710  19.706   5.165   7.712  0.1917  0.0771  0.1052
10617W        W53711  20.346   3.126   8.029  0.1801  0.0881  0.2891
10618W        W53712  19.770   6.619   9.228  0.0796  0.1791  0.2381
10619W        W53713  20.032   7.102   9.167  0.0754  0.1439  0.1996
10620W        W53714  20.157   4.384   9.679  0.1197 -0.1915  0.2598
10621W        W53715  22.605   6.827  10.362 -0.0781  0.0820  0.0848
10622W        W53716  19.885   5.668   9.459 -0.1925 -0.1720  0.0308
10623W        W53717  18.446   3.776   9.600 -0.0060  0.1169 -0.2836
10624W        W53718  21.546   6.383   9.867  0.0435 -0.0899 -0.2983
10625W        W53719  19.367   6.207   8.662 -0.1864  0.0418 -0.2860
10626W        W53720  19.273   5.076   9.029  0.2759  0.5990  0.1589
10627W        W53721  19.265   3.193   7.703  0.4145 -0.0364 -0.0703
10628W        W53722  20.169   5.923   7.165 -0.0325  0.1691  0.1581
10629W        W53723  17.863   5.097   9.188 -0.1169  0.2465 -0.1355
10630W        W53724  18.564   7.377   8.518 -0.2239  0.2042 -0.0320
10631W        W53725  20.746   6.550   9.090 -0.0821 -0.0561  0.1111
10632W        W53726  20.724   5.944   8.522 -0.1900  0.1723  0.1786
10633W        W53727  20.340   4.841   9.356 -0.0952 -0.1240  0.0460
10634W        W53728  19.397   5.474   7.351  0.0437  0.3279 -0.3367
10635W        W53729  18.587   6.996   8.805  0.1816 -0.3456  0.0987
10636W        W53730  18.276   7.183   6.809 -0.1461  0.2365  0.0932
10637W        W53731  20.152   8.073   6.901  0.0685  0.2340  0.0592
10638W        W53732  18.457   7.694   9.389 -0.1672 -0.5272 -0.2602
10639W        W53733  21.747   5.288   6.718  0.0329  0.0081 -0.3066
10640W        W53734  21.685   6.349   8.831 -0.1059  0.2251  0.0591
10641W        W53735  21.076   6.325   9.428  0.1384  0.0043 -0.0222
10642W        W53736  18.957   4.695   9.645 -0.0579 -0.1867 -0.0317
10643W        W53737  19.110   4.941   7.689  0.0555 -0.1000 -0.2366
10644W        W53738  20.268   8.132   7.749 -0.0402  0.2670 -0.1949
10645W        W53739  19.644   5.057   8.607  0.3431 -0.2108  0.0614
10646W        W53740  19.775   5.856   8.667  0.1094 -0.2335 -0.4103
10647W        W53741  24.080   4.962   9.023 -0.1334  0.1564 -0.1440
10648W        W53742  18.754   5.951   8.166 -0.2023 -0.1540  0.1827
10649W        W53743  20.582   4.697   7.579 -0.1592  0.3993  0.0835
10650W        W53744  20.273   5.691   7.781 -0.0624 -0.0988 -0.0499
10651W        W53745  19.592   7.887   9.017 -0.0851 -0.1739 -0.1909
10652W        W53746  17.194   6.496   9.666  0.2067  0.0519 -0.2176
10653W        W53747  18.891   5.729   7.335 -0.1064  0.0483 -0.3252
10654W        W53748  20.970   5.108   8.688  0.0008  0.3082 -0.1657
10655W        W53749  18.658   3.292   9.522 -0.0948 -0.0161 -0.1077
10656W        W53750  19.196   3.628   8.840 -0.1616  0.1400  0.0882
10657W        W53751  20.628   4.713   8.542 -0.3778 -0.3090 -0.1196
10658W        W53752  20.278   6.501   9.075  0.3077  0.0058 -0.1136
10659W        W53753  20.834   4.659  10.380 -0.0743  0.0077  0.0458
10660W        W53754  19.574   6.450   7.291  0.1032 -0.2564  0.2663
10661W        W53755  20.826   4.936   8.037 -0.1847 -0.2568 -0.3165
10662W        W53756  20.045   3.752   8.422  0.0684  0.1358 -0.1164
10663W        W53757  20.580   4.353   8.110 -0.0562  0.1733  0.0936
10664W        W53758  19.076   6.188   7.342 -0.1344 -0.1097 -0.2298
10665W        W53759  18.037   4.773   9.514 -0.0451  0.1545 -0.1434
10666W        W53760  19.541   3.979   9.079 -0.1212 -0.2988 -0.1058
10667W        W53761  20.794   7.209   7.901 -0.3203  0.0332  0.1361
10668W        W53762  20.538   5.045   8.904 -0.1775 -0.0912  0.2712
10669W        W53763  19.869   6.888   8.196  0.3017  0.4470  0.0723
10670W        W53764  20.089   5.431   8.664 -0.1227  0.0854 -0.0533
10671W        W53765  20.711   7.524   9.881  0.0397 -0.0953  0.1652
10672W        W53766  17.994   2.963   9.115  0.1314 -0.3366  0.0714
10673W        W53767  19.489   5.995   9.301  0.1054  0.0198 -0.2337
10674W        W53768  19.271   6.173   9.737 -0.3023 -0.2352  0.1549
10675W        W53769  19.856   3.814   7.182 -0.1286  0.0058  0.0231
10676W        W53770  19.076   4.453  12.247 -0.1338 -0.1788 -0.0101
10677W        W53771  18.498   6.308   8.458  0.0990  0.0953 -0.0521
10678W        W53772  21.426   7.590  10.100  0.1333  0.0157 -0.2549
10679W        W53773  19.166   6.766   7.274 -0.5057 -0.3334 -0.0591
10680W        W53774  20.678   5.611   9.387  0.2729 -0.1054  0.1036
10681W        W53775  18.973   4.172   7.064  0.0206 -0.1168 -0.3938
10682W        W53776  19.470   6.214   8.135  0.0314  0.0888 -0.2780
10683W        W53777  19.933   7.310   7.458  0.1103  0.1119 -0.2303
10684W        W53778  19.865   8.459   9.426 -0.1271  0.2185  0.1383
10685W        W53779  20.606   6.432  10.174  0.0188 -0.2280 -0.0150
10686W        W53780  20.772   7.055   9.517 -0.1031  0.2361 -0.2024
10687W        W53781  19.934   4.334   9.257  0.2468 -0.1266 -0.0935
10688W        W53782  22.400   4.174   7.289  0.2019 -0.0265  0.2307
10689W        W53783  20.880   3.908   8.157 -0.1200 -0.4697  0.1516
10690W        W53784  17.997   6.029   9.119  0.1259 -0.1128 -0.1225
10691W        W53785  18.630   4.293   6.278 -0.1834  0.0390 -0.1221
10692W        W53786  17.919   5.851   5.971  0.1047 -0.2964  0.2219
10693W        W53787  19.026   6.966   7.773  0.3899  0.3818 -0.2780
10694W        W53788  19.260   5.349   8.601  0.0192  0.0017  0.3212
10695W        W53789  19.968   4.105   8.825  0.0886 -0.1349  0.0262
10696W        W53790  20.718   6.717   7.782  0.2962  0.2142  0.1048
10697W        W53791  19.330   2.662   9.196 -0.2528 -0.0188 -0.0920
10698W        W53792  19.057   2.085   9.202 -0.2263 -0.1447 -0.0919
10699W        W53793  21.031   6.955   8.795 -0.1119  0.1415  0.4619
10700W        W53794  21.534   7.728   9.116  0.1455 -0.2651 -0.0863
10701W        W53795  20.265   3.997   9.209  0.2228 -0.0718 -0.0309
10702W        W53796  17.759   5.048   5.542 -0.1097 -0.0453 -0.0170
10703W        W53797  18.429   4.845   7.307 -0.0039 -0.2511  0.1120
10704W        W53798  20.668   5.378   7.859 -0.1915 -0.1372  0.1614
10705W        W53799  19.625   6.970   7.697 -0.3773 -0.0034  0.3114
10706W        W53800  21.117   7.678   7.116  0.0015 -0.0320  0.1454
10707W        W53801  18.460   3.079   9.019  0.2855  0.0189 -0.1886
10708W        W53802  20.258   6.626   7.999  0.0415 -0.1199  0.2381
10709W        W53803  21.669   6.775   9.558  0.0102 -0.0025  0.3321
10710W        W53804  20.204   3.624   8.893  0.1135  0.3817 -0.0818
10711W        W53805  20.567   6.296   7.641  0.2961  0.1080  0.0678
10712W        W53806  22.380   7.789   9.916  0.0828  0.0480  0.0707
10713W        W53807  19.591   3.649   7.686 -0.0718 -0.0674 -0.0374
10714W        W53808  20.067   4.423   8.396 -0.0862  0.2511  0.1060
10715W        W53809  20.599   5.798   7.474  0.1555 -0.3083  0.4933
10716W        W53810  18.421   5.027   9.241  0.0561  0.0852 -0.0268
10717W        W53811  20.094   3.885   7.624 -0.2424 -0.0803 -0.0357
10718W        W53812  19.279   7.466   8.859 -0.1865  0.0720  0.0191
10719W        W53813  20.087   4.836   7.685 -0.0126 -0.0992 -0.1757
10720W        W53814  21.641   5.678   8.745  0.0493  0.1271 -0.5206
10721W        W53815  19.384   7.544   9.340 -0.0105  0.1581  0.2784
10722W        W53816  18.262   7.058  10.108 -0.1223  0.1086  0.0824
10723W        W53817  22.220   4.839  10.015 -0.0397 -0.0960  0.2419
10724W        W53818  19.510   4.006   8.536 -0.0227  0.3857 -0.2342
10725W        W53819  19.845   5.854   8.138  0.1154  0.1938 -0.0663
10726W        W53820  19.501   5.569   7.860 -0.0868  0.2300 -0.1361
10727W        W53821  20.359   5.827   9.700  0.1547 -0.1062  0.0874
10728W        W53822  19.696   2.405   9.525 -0.2286 -0.1278  0.2744
10729W        W53823  21.636   4.327   7.147  0.1845  0.3370 -0.3863
10730W        W53824  18.003   6.997   7.683  0.2505 -0.1214  0.4913
10731W        W53825  19.387   4.147   9.878  0.0610 -0.2612 -0.1853
10732W        W53826  18.863  10.849   2.112 -0.0618 -0.0446  0.0196
10733W        W53827  19.815   7.935  31.719  0.1866  0.3518  0.2437
10734W        W53828  22.035   7.892   0.754 -0.0470  0.2040 -0.0375
10735W        W53829  20.069  10.016  31.442 -0.0770 -0.1968 -0.1840
10736W        W53830  19.244   9.046   1.781  0.0572 -0.1841  0.0508
10737W        W53831  20.242  10.770   1.258 -0.0630  0.0971  0.0896
10738W        W53832  19.761   7.358   2.907 -0.1489  0.3248 -0.0933
10739W        W53833  20.477   9.862   1.449  0.1535 -0.1310  0.0216
10740W        W53834  22.892   9.803   3.275 -0.1904 -0.0219  0.3006
10741W        W53835  19.419  10.177   0.282 -0.1698  0.1615 -0.0576
10742W        W53836  20.039   7.527   2.474 -0.0543 -0.1743  0.2631
10743W        W53837  19.221  11.894   2.962  0.0714 -0.0002  0.1338
10744W        W53838  20.132   6.063   1.688  0.0994  0.0143 -0.0800
10745W        W53839  18.444   6.867   1.191  0.0702 -0.0936 -0.1739
10746W        W53840  20.761   9.419   2.183 -0.0040  0.0197 -0.0443
10747W        W53841  19.749   8.807   0.922  0.1834  0.1568 -0.0206
10748W        W53842  18.984   7.882   2.584 -0.1961 -0.0775 -0.2510
10749W        W53843  18.939   6.729  31.692 -0.0808  0.0308  0.2365
10750W        W53844  19.793   9.685   0.918 -0.4022 -0.1350 -0.3154
10751W        W53845  20.221   7.243   1.731 -0.0737 -0.1043 -0.4380
10752W        W53846  20.723   7.271   1.750  0.1866 -0.2568 -0.1465
10753W        W53847  18.369  11.779   0.983 -0.1071  0.0123 -0.2500
10754W        W53848  17.182   8.310   0.554  0.0223 -0.0263 -0.2139
10755W        W53849  17.690   8.403   2.641 -0.0825  0.1910  0.2242
10756W        W53850  19.775   9.864   1.807 -0.1778  0.2766 -0.0563
10757W        W53851  20.518   8.587   1.550  0.0657  0.0818 -0.1853
10758W        W53852  21.025  10.647   1.678  0.0322  0.3081 -0.2258
10759W        W53853  18.117   9.835   0.980 -0.1209 -0.1151 -0.2842
10760W        W53854  20.189  10.215   1.861  0.2222  0.0026 -0.1516
10761W        W53855  22.011   9.398   3.494 -0.1079 -0.1706 -0.2529
10762W        W53856  18.297   8.966   1.126 -0.2887  0.0194 -0.1139
10763W        W53857  18.086  10.531  30.604  0.1281  0.2427  0.1081
10764W        W53858  17.787   8.886   0.050 -0.0557  0.2594  0.3246
10765W        W53859  22.318  11.761   1.011  0.1028 -0.2420  0.1504
10766W        W53860  20.924  11.885   3.966  0.2259  0.2015 -0.2233
10767W        W53861  18.182  11.552   3.195  0.0597 -0.3049 -0.2939
10768W        W53862  18.889  10.203   0.736 -0.0282 -0.0261  0.0645
10769W        W53863  20.194  10.786   3.825 -0.2444 -0.1222 -0.0491
10770W        W53864  18.538  11.675   3.671 -0.1635  0.1659 -0.0193
10771W        W53865  20.449   9.041   1.911  0.1351  0.1037  0.0623
10772W        W53866  19.049   8.457  31.219 -0.2760  0.1382 -0.2291
10773W        W53867  19.611   9.237   0.701  0.2432 -0.0307 -0.1057
10774W        W53868  20.242   9.104   1.474 -0.1155 -0.3152  0.0915
10775W        W53869  18.571  10.475   4.046  0.0130  0.2036 -0.2420
10776W        W53870  18.131   9.900   2.721 -0.2683  0.1009  0.0982
10777W        W53871  22.245   9.607   2.547 -0.2158 -0.1776 -0.2753
10778W        W53872  19.545   9.729   0.003  0.1069  0.2386 -0.2810
10779W        W53873  20.133  10.925   0.536 -0.3625  0.0148 -0.4361
10780W        W53874  16.992   8.650  31.910  0.0896 -0.2413 -0.0473
10781W        W53875  20.935   8.148   0.367 -0.0966 -0.2447 -0.3102
10782W        W53876  19.885   5.300   1.196 -0.0292 -0.1873 -0.0452
10783W        W53877  19.442  10.106   2.334 -0.3792 -0.2359 -0.0125
10784W        W53878  18.625   7.606   2.384  0.1723  0.0593 -0.1989
10785W        W53879  20.734  10.832   3.785  0.0755  0.1949  0.1241
10786W        W53880  18.434   8.608   0.332  0.2521 -0.0953 -0.2053
10787W        W53881  19.788   8.463   2.991 -0.4603  0.1695 -0.2093
10788W        W53882  19.219  10.391   1.502  0.1478  0.0410  0.1210
10789W        W53883  19.587   7.815   2.264 -0.4375  0.0614 -0.1685
10790W        W53884  20.463  10.187  31.917  0.2378  0.2906 -0.0091
10791W        W53885  22.246   9.674   0.827 -0.3596  0.1370  0.3006
10792W        W53886  20.264   8.679   1.129  0.0728 -0.3526  0.2902
10793W        W53887  19.066   9.744   0.973 -0.2485  0.3418  0.0023
10794W        W53888  17.607   7.795   4.284  0.2485 -0.1364  0.2338
10795W        W53889  18.726   9.128   2.261  0.1025 -0.1350 -0.3239
10796W        W53890  17.595   6.184   1.361 -0.0764  0.0830  0.0176
10797W        W53891  22.253   8.724   1.303  0.0480  0.1198  0.2619
10798W        W53892  18.077  10.381   2.146  0.0862  0.0523  0.0970
10799W        W53893  21.213   7.966   1.332  0.1948  0.0556  0.0636
10800W        W53894  19.365   8.831   1.364  0.0113  0.0431  0.3019
10801W        W53895  20.474   9.518   0.293  0.1304  0.0840 -0.2182
10802W        W53896  19.845  10.544  31.606  0.1547 -0.3555  0.1839
10803W        W53897  19.920   6.360   0.655 -0.0776  0.0601  0.1406
10804W        W53898  19.343   7.459   1.721 -0.2920 -0.0590  0.3406
10805W        W53899  19.861   9.076  31.446 -0.2030 -0.0582  0.1365
10806W        W53900  18.843   8.450   1.671 -0.1700  0.0697  0.1267
10807W        W53901  20.921  10.553   3.106  0.1561  0.1359  0.0567
10808W        W53902  20.767  10.123   0.778 -0.0465  0.1257  0.3984
10809W        W53903  19.243  10.526   2.019 -0.0076  0.1096  0.0699
10810W        W53904  19.667   8.999   3.925 -0.0296  0.1101  0.3334
10811W        W53905  19.982   8.448   2.517  0.0268 -0.0243 -0.1812
10812W        W53906  18.661  10.724   0.980  0.3122  0.1426 -0.1068
10813W        W53907  17.448   9.325   1.743  0.0546 -0.2640  0.2988
10814W        W53908  18.614   7.958  31.691  0.1334  0.1824 -0.1108
10815W        W53909  17.193   8.383   1.756 -0.1402 -0.0276  0.1725
10816W        W53910  18.807  10.295   1.218  0.1436  0.3331  0.0487
10817W        W53911  20.458   7.941   2.627 -0.1444  0.1677 -0.3567
10818W        W53912  19.686   7.784   3.157 -0.1607 -0.0913  0.1517
10819W        W53913  21.911   7.232   1.350 -0.0020  0.1731  0.1723
10820W        W53914  18.526   9.394   0.009 -0.1993 -0.1914  0.2144
10821W        W53915  22.174  12.255   0.984 -0.0661  0.2262 -0.2860
10822W        W53916  22.383   9.096   0.678 -0.0600  0.1109  0.0821
10823W        W53917  21.336   8.397   1.129 -0.1596 -0.1416 -0.2179
10824W        W53918  18.126   8.962   2.463  0.0120 -0.0346 -0.1759
10825W        W53919  19.388   9.512   1.582  0.1084  0.0737  0.0735
10826W        W53920  18.335   8.039   3.268  0.4098  0.1750  0.0292
10827W        W53921  19.186   8.659   3.205  0.0262 -0.0989  0.2342
10828W        W53922  21.367   9.333   1.441  0.1171  0.1268  0.0533
10829W        W53923  16.571   7.942  31.825 -0.0799 -0.0268 -0.2793
10830W        W53924  21.849   8.281   0.501  0.0431  0.0955 -0.0692
10831W        W53925  19.598   7.855   1.202 -0.4887  0.0988  0.1300
10832W        W53926  17.592   8.075   0.491 -0.1739  0.4142  0.3683
10833W        W53927  21.460   7.574   1.748 -0.1842 -0.0431  0.0282
10834W        W53928  19.791  11.339   1.655  0.2925  0.1053  0.1621
10835W        W53929  21.122   9.877   3.530 -0.1324 -0.3780 -0.4526
10836W        W53930  20.562  10.808   0.832 -0.5098  0.2287 -0.0571
10837W        W53931  18.149   8.405   2.290 -0.2858 -0.1883 -0.1185
10838W        W53932  19.001   8.336   1.130  0.0417  0.0554  0.2437
10839W        W53933  18.630   8.700   0.800  0.0128 -0.3323  0.0538
10840W        W53934  19.162   8.741   0.859  0.5273  0.0004 -0.3182
10841W        W53935  21.941  10.943   2.482 -0.1153  0.1358  0.3489
10842W        W53936  20.443   9.027   0.674 -0.1465 -0.0287  0.0464
10843W        W53937  18.770   9.086   1.758 -0.0329  0.2845 -0.1563
10844W        W53938  20.697   6.944   2.267 -0.2564 -0.0941 -0.0609
10845W        W53939  21.700   9.297   2.443  0.1928 -0.0626  0.3102
10846W        W53940  20.913   9.597   0.628  0.2030  0.0151 -0.0844
10847W        W53941  18.314   8.949  31.946  0.0603 -0.3385 -0.3245
10848W        W53942  20.376  10.129   2.310  0.0029  0.0750  0.0646
10849W        W53943  19.079  10.011  31.800 -0.1026  0.0679  0.2577
10850W        W53944  20.341   8.205   1.843  0.3188 -0.2605 -0.2503
10851W        W53945  18.690   9.655   0.607  0.0639  0.1173 -0.1334
10852W        W53946  21.798   8.532   1.561  0.1115  0.2486 -0.0660
10853W        W53947  18.357   8.738   4.368 -0.0824  0.2048  0.2709
10854W        W53948  20.560   7.725   1.670 -0.0158  0.0132  0.0762
10855W        W53949  19.141   8.398   0.462 -0.0952 -0.3144  0.3068
10856W        W53950  19.289  11.092   2.265 -0.0867  0.0601 -0.0375
10857W        W53951  19.276   7.479   1.094 -0.1385  0.1807 -0.1490
10858W        W53952  22.119   8.791  31.714  0.0044  0.1057 -0.0217
10859W        W53953  19.784  10.166   3.063 -0.1639  0.0232  0.2500
10860W        W53954  20.677  12.214   0.355 -0.0536  0.0935 -0.0704
10861W        W53955  20.265   8.780  31.695  0.1014 -0.4155 -0.0605
10862W        W53956  19.668   8.418  30.935  0.1910  0.4424  0.2338
10863W        W53957  18.559   9.337   3.629 -0.0795  0.2727 -0.3318
10864W        W53958  19.558   8.197   2.602 -0.2319  0.2111  0.0203
10865W        W53959  19.184  10.487   3.198 -0.1386  0.3537 -0.4225
10866W        W53960  20.014   8.093  31.269 -0.3952 -0.1343  0.3086
10867W        W53961  20.243  10.642   0.040 -0.0044  0.0259  0.4643
10868W        W53962  16.663   9.047   1.787 -0.1323  0.0328  0.0401
10869W        W53963  20.320   9.878   2.753 -0.0114  0.3891  0.2818
10870W        W53964  20.722  10.330   1.814  0.2292  0.0499 -0.0388
10871W        W53965  20.701   6.093   3.866 -0.2665 -0.3636  0.1682
10872W        W53966  19.840   8.404   0.616  0.2789 -0.0451  0.1132
10873W        W53967  18.317   7.934   2.143 -0.1893 -0.3351 -0.1929
10874W        W53968  17.994   8.973   0.540  0.1346  0.0280 -0.0198
10875W        W53969  21.133  10.005   2.064  0.2701 -0.0566 -0.0041
10876W        W53970  19.935   7.598   1.978  0.1382 -0.0331  0.1293
10877W        W53971  20.396   5.739   3.545  0.1424  0.0704 -0.3363
10878W        W53972  21.942   9.619   4.802 -0.0892 -0.1175 -0.1496
10879W        W53973  20.773   9.204   1.588  0.3066 -0.1238  0.0090
10880W        W53974  19.854   8.721   1.428 -0.1020  0.2823 -0.5235
10881W        W53975  20.770   9.270  31.393  0.3452 -0.2680 -0.0518
10882W        W53976  20.440   7.384   2.148  0.0576 -0.1999 -0.1400
10883W        W53977  19.928   8.907   2.283 -0.0803  0.0830  0.2125
10884W        W53978  18.908  11.254   3.333  0.1822  0.0121  0.0510
10885W        W53979  19.587  11.076   2.701  0.1169  0.1121 -0.0208
10886W        W53980  20.287  10.361   0.941 -0.0742  0.2068 -0.1243
10887W        W53981  19.424   7.378   3.361 -0.0188  0.1410 -0.1318
10888W        W53982  18.493   7.708   0.192 -0.1668 -0.0896 -0.1498
10889W        W53983  19.486  11.040   0.711  0.0046 -0.0579 -0.2235
10890W        W53984  19.932   8.886   0.415 -0.0924  0.1548  0.0548
10891W        W53985  18.825   7.784   1.949  0.0050  0.0413  0.0104
10892W        W53986  19.651  10.358   1.878  0.3287 -0.0250  0.2663
10893W        W53987  18.549   8.702  30.926 -0.0705  0.1850 -0.0135
10894W        W53988  20.581   9.454   2.870  0.1048  0.3780  0.1672
10895W        W53989  18.917   9.929   1.639  0.0236 -0.2115 -0.1285
10896W        W53990  20.432   6.542   2.737 -0.0642  0.3950  0.0850
10897W        W53991  16.772   8.907   1.064  0.1022  0.2166 -0.1142
10898W        W53992  18.838   7.915  30.552  0.4120 -0.1098 -0.1289
10899W        W53993  18.885   8.785   0.240  0.2631  0.0722  0.0745
10900W        W53994  21.018   9.654   1.719 -0.3163 -0.1830 -0.0228
10901W        W53995  20.709  10.883   0.399  0.2681 -0.1308  0.1240
10902W        W53996  18.907   9.089   3.289 -0.0001  0.2208 -0.4045
10903W        W53997  19.164   6.809   2.314  0.5233 -0.0038 -0.1779
10904W        W53998  18.214  10.787   2.510  0.0874 -0.0016  0.5701
10905W        W53999  19.425   9.092   2.232  0.2899  0.0849 -0.0388
10906W        W54000  20.696   7.481   0.991  0.1163  0.3604  0.0821
10907W        W54001  21.535  10.628   2.501 -0.3774 -0.0494 -0.0286
10908W        W54002  19.529   9.362   2.726 -0.3868 -0.0798 -0.0585
10909W        W54003  17.689   8.063  31.870 -0.2035  0.0908  0.3214
10910W        W54004  20.630   9.171   3.804  0.1485  0.0120 -0.1524
10911W        W54005  19.442   8.302   1.417 -0.0941 -0.1286  0.0324
10912W        W54006  18.659   9.237   0.948 -0.0345  0.3621 -0.0548
10913W        W54007  20.370   9.083   2.434 -0.0522 -0.2264 -0.1192
10914W        W54008  17.502   8.466   0.195  0.1237 -0.0052 -0.0401
10915W        W54009  19.786   9.245   1.832 -0.0394  0.2340 -0.1458
10916W        W54010  20.687   7.749   3.079 -0.1464 -0.0269 -0.0352
10917W        W54011  20.072   9.415   2.263 -0.0981 -0.3585  0.1321
10918W        W54012  20.289   7.587   1.276 -0.0349  0.0628  0.0148
10919W        W54013  18.525   9.146   0.430 -0.1410 -0.1698 -0.1343
10920W        W54014  20.026   9.564   1.475 -0.4117  0.0458 -0.0512
10921W        W54015  19.836   8.299   2.067  0.3835 -0.0249  0.0567
10922W        W54016  19.201   8.125   2.235 -0.3344  0.0026  0.2425
10923W        W54017  18.688  10.386   3.339  0.0438  0.0492 -0.1087
10924W        W54018  19.618   6.703   2.226 -0.1924 -0.1756  0.0693
10925W        W54019  21.396  12.479   1.037  0.2020 -0.0015  0.2949
10926W        W54020  20.264   8.076   3.058  0.0285  0.0980  0.0101
10927W        W54021  19.061  10.097  31.309 -0.1008  0.1515 -0.0919
10928W        W54022  18.525   9.579   1.857  0.0922  0.3123  0.1127
10929W        W54023  18.976   9.268   0.175 -0.0112 -0.0263 -0.0672
10930W        W54024  17.856   7.639   1.529 -0.2495  0.0956  0.0376
10931W        W54025  18.376   9.372   1.429  0.2037  0.0764  0.1620
10932W        W54026  19.018   9.471   1.949 -0.2693 -0.3929  0.4192
10933W        W54027  19.353  10.202   2.839  0.1854 -0.2108  0.2428
10934W        W54028  21.347   6.578   1.004 -0.2407 -0.0538 -0.0598
10935W        W54029  19.442  11.699   0.880 -0.0630  0.2036 -0.2537
10936W        W54030  19.610   7.855   0.684  0.1137  0.3404 -0.0831
10937W        W54031  23.108   6.673   3.034  0.1406 -0.2756 -0.1184
10938W        W54032  19.833   9.781   0.383  0.2801 -0.1756  0.0180
10939W        W54033  21.201   7.633   3.195 -0.0384  0.5156 -0.0592
10940W        W54034  18.380   6.525   1.627  0.1453 -0.1648  0.3284
10941W        W54035  21.673  11.039   1.330 -0.1643 -0.3249  0.0939
10942W        W54036  18.924   8.514   3.875 -0.0256 -0.2531 -0.2431
10943W        W54037  18.328  10.741   3.572 -0.2495  0.2315  0.3526
10944W        W54038  20.126   7.969   2.283  0.1530 -0.1037  0.1483
10945W        W54039  19.178   7.402   0.501  0.2477 -0.0454  0.2159
10946W        W54040  18.435   6.796  31.644 -0.0019 -0.3887 -0.2443
10947W        W54041  20.791   9.794   2.521 -0.1876 -0.0536  0.4390
10948W        W54042  21.576  10.108   1.413 -0.4038  0.0351  0.1254
10949W        W54043  19.683  10.946   1.353 -0.0434  0.0435 -0.0832
10950W        W54044  23.336   9.351   0.065  0.2975 -0.1796  0.0628
10951W        W54045  20.048  10.314   2.655 -0.1881 -0.2254  0.4476
10952W        W54046  21.681   7.743   0.509  0.4337  0.0381 -0.2346
10953W        W54047  19.284   9.661  31.240 -0.0691 -0.2090  0.0744
10954W        W54048  20.078   9.383   0.572  0.0034  0.0026 -0.2442
10955W        W54049  20.103   7.263   3.872 -0.1958  0.0968  0.0314
10956W        W54050  21.277   8.363   1.747  0.1780 -0.1884  0.0416
10957W        W54051  20.330   8.169   1.325 -0.1175 -0.2990  0.1559
10958W        W54052  20.794   8.219   1.671  0.2768 -0.0096  0.4241
10959W        W54053  20.867   9.002   2.922 -0.0963 -0.1786 -0.1542
10960W        W54054  20.168   9.531   3.669  0.0639 -0.0521 -0.0423
10961W        W54055  18.738   8.737   2.544  0.0084 -0.1430 -0.1013
10962W        W54056  19.738  11.271   2.257 -0.0730  0.0563  0.0489
10963W        W54057  22.641   8.849  31.623  0.0073  0.1356 -0.2132
10964W        W54058  19.506   8.630   1.808  0.0096  0.1644  0.1824
10965W        W54059  21.489   7.447   1.294  0.1401 -0.1374  0.1943
10966W        W54060  19.902   8.350   1.138  0.1221 -0.0553 -0.0167
10967W        W54061  18.494   8.714   2.128 -0.4710 -0.3341 -0.6301
10968W        W54062  21.034   7.827   1.823  0.0028 -0.1075  0.3112
10969W        W54063  18.837   7.187  31.337  0.1318 -0.1289 -0.1441
10970W        W54064  20.263   7.033   2.694  0.5089 -0.1054  0.0309
10971W        W54065  19.490  10.097  31.576  0.0756  0.1173 -0.1887
10972W        W54066  20.373  10.324   1.387 -0.2587 -0.4086 -0.1194
10973W        W54067  21.000   8.060   0.865  0.0087  0.2992  0.2406
10974W        W54068  17.444   8.871   1.412  0.1531  0.0504 -0.0584
10975W        W54069  18.087  11.149   1.818 -0.1283 -0.2267  0.0293
10976W        W54070  18.299   7.877  30.825 -0.4606 -0.0442 -0.1378
10977W        W54071  19.959   9.428   0.018 -0.0714 -0.0920 -0.0332
10978W        W54072  19.898  11.059   3.519 -0.0513 -0.1854  0.0314
10979W        W54073  21.035   9.384   2.620 -0.2317  0.2017 -0.1659
10980W        W54074  19.314   7.336  31.119 -0.0080 -0.1698 -0.2287
10981W        W54075  20.630   7.943   2.145 -0.1008 -0.0379 -0.0050
10982W        W54076  18.356  10.322   0.994 -0.0214  0.2245 -0.1702
10983W        W54077  18.916   7.784   0.894 -0.0659  0.0250 -0.2966
10984W        W54078  18.179  11.653   1.891 -0.0913 -0.0598 -0.0210
10985W        W54079  18.094   9.544   2.308  0.1455 -0.0895 -0.1106
10986W        W54080  18.973  10.397   2.418 -0.2375  0.3460 -0.0684
10987W        W54081  20.967   8.027   3.453 -0.0773 -0.0546  0.0900
10988W        W54082  21.151   6.777   1.473 -0.0224 -0.2288  0.2043
10989W        W54083  19.921   8.050   1.580 -0.2239 -0.1191  0.3131
10990W        W54084  21.897  10.593   2.141  0.0013 -0.1993  0.0900
10991W        W54085  19.315  11.215   3.663 -0.1966  0.2200  0.0641
10992W        W54086  19.930   9.619   3.184  0.1604 -0.1417 -0.0673
10993W        W54087  19.136  10.813   2.779  0.2208  0.3095  0.0241
10994W        W54088  21.542  10.094   2.378  0.0204  0.1952  0.4382
10995W        W54089  18.461   8.733   1.650  0.0819  0.0806  0.1041
10996W        W54090  17.620   7.467   3.821  0.0083 -0.0494 -0.1746
10997W        W54091  20.452  10.630   3.422  0.1044 -0.1108  0.1608
10998W        W54092  20.117   8.670   1.832 -0.3062 -0.1496  0.0365
10999W        W54093  19.400   6.462  31.802 -0.0861 -0.0354  0.1264
11000W        W54094  18.513   9.808  31.577 -0.4110 -0.1180 -0.1570
11001W        W54095  18.633  11.022   2.574 -0.1055 -0.0518 -0.1820
11002W        W54096  16.729   8.342   1.756  0.1683  0.2972  0.0569
11003W        W54097  18.811  10.766   1.567  0.0512 -0.0216 -0.3372
11004W        W54098  21.851  10.141   0.954  0.2374 -0.2236 -0.3138
11005W        W54099  19.913  11.408   0.505 -0.0462 -0.0648  0.0781
11006W        W54100  20.112   9.395   2.802  0.1945 -0.1099  0.0097
11007W        W54101  18.773   6.768  30.992 -0.0012  0.5766  0.2948
11008W        W54102  16.615   9.836   1.175 -0.0522 -0.2662  0.0513
11009W        W54103  18.872  10.725  31.839  0.2331  0.1601  0.1747
11010W        W54104  19.820  10.179   0.818  0.0858 -0.2936  0.3389
11011W        W54105  18.726  10.289   1.998  0.1903 -0.4499 -0.2062
11012W        W54106  21.073  11.375   4.310 -0.2993  0.2074  0.2436
11013W        W54107  21.520   7.494   0.041  0.1066  0.5220  0.3250
11014W        W54108  20.592  11.191   1.183  0.0800  0.0131 -0.0393
11015W        W54109  21.818   6.965   0.911  0.0424  0.0207 -0.0147
11016W        W54110  19.927   9.982   3.759 -0.0579 -0.1764 -0.7846
11017W        W54111  19.442   7.990   1.804  0.1909  0.2448  0.2830
11018W        W54112  19.401   9.182  31.558  0.0140  0.0519 -0.0761
11019W        W54113  18.743   9.554   3.052  0.1673 -0.1336 -0.1154
11020W        W54114  22.675   8.221   4.687  0.1240  0.1330  0.1980
11021W        W54115  17.379  10.807   2.725  0.0550 -0.2309 -0.0218
11022W        W54116  22.591  10.487   1.236 -0.2869  0.0270 -0.0098
11023W        W54117  18.603   9.806   1.058 -0.0735 -0.0855 -0.1686
11024W        W54118  19.566   9.604   2.222 -0.0384  0.3506 -0.1334
11025W        W54119  22.469   7.818   1.141 -0.3580 -0.0387  0.1245
11026W        W54120  19.984  11.014  31.723  0.1106 -0.0866  0.0208
11027W        W54121  20.724   7.907   1.244 -0.1134 -0.1360  0.0567
11028W        W54122  18.859  11.160   1.274  0.0340  0.1306 -0.1874
11029W        W54123  18.245  11.223   2.850 -0.0065  0.0135 -0.3016
11030W        W54124  19.941   9.930   2.284 -0.0090  0.0225 -0.1118
11031W        W54125  17.833   8.634   1.226 -0.1515  0.2608  0.0493
11032W        W54126  20.962   9.490   1.197 -0.0950  0.0944 -0.3419
11033W        W54127  20.272   8.693   3.961 -0.2528 -0.0072  0.0560
11034W        W54128  21.369   6.355   2.752  0.0689 -0.0285  0.0191
11035W        W54129  19.499   8.626   2.378 -0.3593  0.1339  0.0013
11036W        W54130  21.527   8.242  31.685 -0.1010  0.1255 -0.2380
11037W        W54131  20.162   9.294   1.021 -0.1663 -0.1404 -0.0349
11038W        W54132  17.633   7.802   2.329  0.1068 -0.1651 -0.0339
11039W        W54133  20.656   8.938   1.186 -0.0190 -0.1064 -0.0727
11040W        W54134  22.096   9.335   4.240 -0.0772  0.1365  0.0600
11041W        W54135  19.041   9.152   0.637 -0.1102  0.1049  0.0881
11042W        W54136  18.722  10.920   3.065  0.2403  0.2682  0.2624
11043W        W54137  18.700   8.251   2.178  0.0343  0.1920 -0.1805
11044W        W54138  20.022   7.877   0.946 -0.2155  0.1143  0.1865
11045W        W54139  17.883   9.085   1.554 -0.0885  0.2121 -0.2198
11046W        W54140  20.725   7.496   2.557 -0.0377 -0.1075 -0.0342
11047W        W54141  21.152  10.818   3.471 -0.0103  0.2857 -0.1795
11048W        W54142  17.528   8.020   1.484 -0.0499  0.0885 -0.3180
11049W        W54143  19.502   9.257   0.217 -0.0616 -0.1009  0.0004
11050W        W54144  22.776   9.455   0.880  0.3482  0.4317  0.0587
11051W        W54145  19.122   8.118  31.633  0.1035 -0.1958  0.1400
11052W        W54146  21.315   9.791   0.345 -0.0305 -0.0442  0.0848
11053W        W54147  20.900  10.979   1.985  0.1109  0.0366  0.0724
11054W        W54148  17.319   8.854   1.911  0.1402 -0.0536 -0.0797
11055W        W54149  22.035   9.515   3.010  0.1076  0.2128  0.1447
11056W        W54150  21.415  10.915   2.113 -0.3617 -0.1156 -0.0364
11057W        W54151  19.988   7.592   0.450 -0.0128  0.3392 -0.1231
11058W        W54152  19.819   7.546   1.494  0.0872 -0.0068  0.2229
11059W        W54153  19.017   9.734   0.220  0.0142  0.0619 -0.0484
11060W        W54154  22.010   9.758   2.104  0.0232  0.3266  0.0965
11061W        W54155  20.438   8.533   2.269  0.1952 -0.1721 -0.3733
11062W        W54156  19.602  10.974  31.180 -0.0603  0.0119 -0.1749
11063W        W54157  21.485   6.802   3.663  0.0026  0.0667 -0.0553
11064W        W54158  19.130  11.342   2.740 -0.3018 -0.0869  0.1487
11065W        W54159  19.626   9.505   3.600 -0.1576  0.0085  0.0403
11066W        W54160  19.442   8.833  31.204 -0.1496 -0.1698  0.2924
11067W        W54161  18.524   9.116   2.889 -0.1965 -0.1969 -0.1199
11068W        W54162  19.248   9.313   1.159 -0.3188  0.2963 -0.1762
11069W        W54163  19.271  11.021   0.154 -0.0697  0.0988 -0.1827
11070W        W54164  22.063  11.635   1.899 -0.0134  0.1761  0.3297
11071W        W54165  18.504   8.407   1.252 -0.2145  0.0397  0.0007
11072W        W54166  21.810   9.669   0.018  0.1385 -0.0115 -0.2579
11073W        W54167  19.036   8.665   2.090 -0.0465 -0.0969 -0.0529
11074W        W54168  20.339   8.493   0.605 -0.2648 -0.1665  0.4333
11075W        W54169  20.039   7.084   1.229  0.4240  0.0785  0.1725
11076W        W54170  19.306   9.956   1.922 -0.0223  0.0872 -0.2574
11077W        W54171  17.959   8.906  31.566 -0.0275  0.0913 -0.3044
11078W        W54172  18.827   9.486   1.359  0.1520 -0.0330 -0.2827
11079W        W54173  18.283   9.165   2.049 -0.0516  0.0023 -0.0055
11080W        W54174  19.600   7.510   3.929 -0.1021  0.0622  0.0371
11081W        W54175  18.097   7.918   2.609  0.1689  0.2659  0.0032
11082W        W54176  16.452   8.098   2.074 -0.2254 -0.2583 -0.0493
11083W        W54177  16.799   8.241   0.131 -0.0657  0.0495  0.1394
11084W        W54178  20.880  11.706   0.801  0.0425  0.1883  0.1281
11085W        W54179  18.324   7.638   1.753  0.0059 -0.1916  0.1811
11086W        W54180  17.827   8.080   1.904 -0.2816 -0.0723 -0.1399
11087W        W54181  20.477  11.339   0.718  0.0184  0.0898 -0.0907
11088W        W54182  19.980  10.009  31.957  0.0733  0.2849  0.0502
11089W        W54183  18.628   8.010   1.519 -0.1556 -0.2164  0.0971
11090W        W54184  22.508   9.644   1.900 -0.0789  0.1648  0.3412
11091W        W54185  17.392   9.010  31.712 -0.0354  0.3360 -0.4140
11092W        W54186  19.080   9.530   2.529  0.2243  0.0025 -0.1290
11093W        W54187  20.764   6.978   2.744 -0.4500  0.1559  0.2605
11094W        W54188  18.197   8.428   0.756  0.3656 -0.2516 -0.1581
11095W        W54189  19.698   9.206   1.305 -0.0621 -0.1748  0.2043
11096W        W54190  20.261  10.001   0.500 -0.1700  0.0692  0.0014
11097W        W54191  19.486   9.910   1.370 -0.2303 -0.4050  0.2619
11098W        W54192  19.415   9.712   3.048  0.0808 -0.1562 -0.0965
11099W        W54193  20.582  10.754   2.287 -0.1768 -0.0240 -0.0452
11100W        W54194  18.065   7.644   3.046  0.3921 -0.2220  0.0699
11101W        W54195  21.010   9.990  31.906 -0.0673  0.0352  0.0092
11102W        W54196  19.625  10.535   2.430 -0.1262 -0.0996 -0.4588
11103W        W54197  21.268  10.181   0.997 -0.2952  0.1358 -0.2066
11104W        W54198  22.567   8.301   2.733  0.0814  0.0965 -0.2689
11105W        W54199  20.949   8.817   1.874  0.0174 -0.1020  0.2048
11106W        W54200  18.932   6.340   2.404  0.0515 -0.1945  0.0559
11107W        W54201  19.948   8.892   2.830  0.1021 -0.2920 -0.1564
11108W        W54202  21.316   9.589   2.299  0.0518 -0.1736 -0.1088
11109W        W54203  19.016   7.595   0.027 -0.1745 -0.1708  0.0240
11110W        W54204  20.013   6.970   0.718  0.4045 -0.0732  0.0633
11111W        W54205  19.715  10.813   0.184  0.0624 -0.1937  0.1075
11112W        W54206  18.673   8.628   3.241  0.2581 -0.2699 -0.0370
11113W        W54207  18.119   8.421  31.726 -0.0849  0.2702 -0.1560
11114W        W54208  20.264   9.732   1.915 -0.1044 -0.1961  0.3554
11115W        W54209  20.028   9.995   1.240 -0.2631  0.1991 -0.0591
11116W        W54210  21.515   9.380   3.005 -0.0957  0.0547  0.0043
11117W        W54211  18.724   8.455  31.658  0.1951  0.0726  0.0328
11118W        W54212  20.750   8.422   1.183  0.0343  0.0035 -0.1867
11119W        W54213  20.922  11.307   3.803 -0.2200 -0.0968  0.2133
11120W        W54214  21.902  11.668   4.078 -0.0661  0.2201 -0.2530
11121W        W54215  20.268  10.270   3.125  0.4256  0.0724 -0.0274
11122W        W54216  21.418  10.375   1.883 -0.2763  0.0222 -0.0047
11123W        W54217  18.218   7.319   2.581 -0.0183  0.0101 -0.1538
11124W        W54218  18.039   8.162   1.426  0.2253 -0.0482 -0.0992
11125W        W54219  19.124   7.934   1.447  0.0083 -0.2951  0.0855
11126W        W54220  20.824  10.484   1.195  0.0353 -0.0445  0.2336
11127W        W54221  17.419   8.243   2.235  0.2065 -0.0355 -0.0094
11128W        W54222  19.464   8.327   0.900 -0.0982  0.0776 -0.3666
11129W        W54223  17.717  11.697   4.031 -0.4499  0.1038 -0.0142
11130W        W54224  19.799  10.406   1.395 -0.1818 -0.0573  0.3401
11131W        W54225  19.663   9.519   6.436 -0.2235 -0.1394 -0.0225
11132W        W54226  18.604   8.907   5.046 -0.0185  0.1786 -0.1671
11133W        W54227  19.933   7.967   2.746  0.2271  0.2941 -0.1143
11134W        W54228  22.065   8.741   3.608  0.0869 -0.3744  0.2562
11135W        W54229  18.935   8.115   4.615 -0.2483 -0.0974 -0.0389
11136W        W54230  19.627  10.715   5.151  0.1081 -0.2411 -0.0560
11137W        W54231  18.310   7.852   6.609  0.3432  0.0007  0.0229
11138W        W54232  19.936  10.137   5.761  0.0883 -0.1530  0.2981
11139W        W54233  21.555  11.300   6.060 -0.1615  0.3593  0.0958
11140W        W54234  21.144   9.008   3.341 -0.4520 -0.1229 -0.1609
11141W        W54235  19.699   8.957   6.627 -0.0643  0.1065  0.0100
11142W        W54236  20.161  10.956   5.915  0.0226 -0.0509  0.2162
11143W        W54237  18.826   8.087   3.251 -0.1114  0.0046  0.1632
11144W        W54238  18.959   7.028   4.153 -0.0046 -0.2852 -0.0459
11145W        W54239  19.382   9.931   5.144 -0.2023 -0.1045 -0.0116
11146W        W54240  19.713   8.186   3.443  0.1202  0.1143 -0.1083
11147W        W54241  17.997   9.382   5.441 -0.1256 -0.3806 -0.1893
11148W        W54242  19.329   8.586   4.889 -0.1161 -0.0425  0.0332
11149W        W54243  21.172  11.100   3.064 -0.0639 -0.2671 -0.2818
11150W        W54244  18.642   7.521   7.077  0.2345 -0.1517  0.1570
11151W        W54245  20.119   7.123   6.589 -0.1675 -0.0446 -0.2298
11152W        W54246  19.977  11.651   4.369  0.0215 -0.0887  0.0990
11153W        W54247  18.507   7.819   2.829 -0.2219 -0.2581 -0.3042
11154W        W54248  17.077   9.354   5.560  0.2985  0.1179  0.0377
11155W        W54249  18.859   9.522   5.758  0.0439  0.1360 -0.4235
11156W        W54250  20.626   8.261   3.909  0.1130  0.0775 -0.2183
11157W        W54251  20.076   8.992   5.160  0.0883  0.0450  0.0775
11158W        W54252  18.652  10.298   5.220 -0.0650 -0.0719  0.0670
11159W        W54253  19.719  10.579   4.361 -0.1243 -0.2370  0.3445
11160W        W54254  20.661   7.761   7.372 -0.0529 -0.0002 -0.3254
11161W        W54255  18.129  10.076   5.374  0.2998 -0.0233  0.0553
11162W        W54256  19.203  11.007   5.097  0.1993  0.0308 -0.0385
11163W        W54257  19.214  10.402   4.276 -0.3408  0.2995 -0.1395
11164W        W54258  20.514  10.313   4.904  0.2425  0.1524  0.1151
11165W        W54259  20.814   9.983   7.366 -0.3245 -0.6492  0.0579
11166W        W54260  20.308  10.604   5.615  0.3705 -0.1173  0.1104
11167W        W54261  17.838   8.631   4.027 -0.0011 -0.4363  0.1607
11168W        W54262  19.952  12.762   6.581 -0.1048  0.1688 -0.0353
11169W        W54263  20.635  10.435   6.929 -0.3924 -0.2799 -0.0125
11170W        W54264  19.138   8.698   6.024 -0.3388 -0.0180  0.2191
11171W        W54265  19.778  10.232   5.292 -0.0548 -0.0004  0.2190
11172W        W54266  19.608  10.660   2.961  0.0962  0.1466 -0.1080
11173W        W54267  19.050   8.963   4.797  0.0986 -0.1426  0.0149
11174W        W54268  18.813   8.633   6.921  0.1654  0.3792 -0.3709
11175W        W54269  18.621  10.620   6.040 -0.4568 -0.0945  0.0608
11176W        W54270  21.059   8.455   6.600  0.0594 -0.1554  0.0031
11177W        W54271  18.816  11.745   3.224  0.3331 -0.0575 -0.1181
11178W        W54272  20.908   9.563   3.820 -0.0661  0.0445  0.2469
11179W        W54273  20.041   7.699   3.955  0.3735 -0.0163  0.1814
11180W        W54274  20.580   9.481   3.393 -0.2747 -0.2782  0.0641
11181W        W54275  18.638   6.693   5.228  0.0846 -0.1027  0.0870
11182W        W54276  19.208  10.818   3.990  0.0411  0.1105 -0.0761
11183W        W54277  20.058   7.583   4.854  0.1840 -0.1742  0.0721
11184W        W54278  21.448  10.107   5.198 -0.1375 -0.2903 -0.1456
11185W        W54279  20.139   9.001   3.559  0.0796 -0.2326  0.0756
11186W        W54280  20.815   8.982   6.421 -0.0365 -0.1308 -0.3295
11187W        W54281  18.987  11.051   6.095  0.1371 -0.0091  0.3796
11188W        W54282  19.469   9.046   5.096  0.0252 -0.1962  0.5196
11189W        W54283  21.478  11.064   4.293 -0.0765  0.1462 -0.0405
11190W        W54284  21.110  12.055   4.920  0.2142 -0.4394 -0.3038
11191W        W54285  20.026   9.253   4.217 -0.0678 -0.3356  0.1408
11192W        W54286  18.709   9.013   5.692 -0.0590  0.0485  0.0076
11193W        W54287  18.581   9.898   5.598 -0.1690  0.0010 -0.1971
11194W        W54288  18.393   8.460   7.281 -0.1198  0.0577  0.1875
11195W        W54289  20.032   7.024   2.224 -0.2044  0.1352 -0.2327
11196W        W54290  21.840  10.345   8.780  0.4060  0.0162 -0.2146
11197W        W54291  17.174   9.882   6.660 -0.0154 -0.1336 -0.3710
11198W        W54292  22.288   7.778   5.954  0.2412  0.2276 -0.0731
11199W        W54293  18.951   9.663   5.287  0.1733 -0.0074 -0.1339
11200W        W54294  20.817  11.080   5.586  0.1443 -0.2622  0.0699
11201W        W54295  21.982   9.157   4.923 -0.2053  0.1444 -0.1253
11202W        W54296  21.398   7.235   6.153  0.2825 -0.0180  0.1403
11203W        W54297  20.607   8.555   5.718 -0.1562  0.1753  0.0411
11204W        W54298  18.220   9.714   3.575  0.2121 -0.0537  0.2157
11205W        W54299  19.284   8.953   3.633 -0.0129 -0.2501  0.3137
11206W        W54300  20.963   9.483   7.607 -0.0730 -0.1739  0.1016
11207W        W54301  22.336   9.825   4.282 -0.0858 -0.1033 -0.0619
11208W        W54302  19.589  10.351   4.825 -0.1246  0.5622 -0.1003
11209W        W54303  19.177   9.888   5.656 -0.0712 -0.1696 -0.0904
11210W        W54304  20.314  10.046   6.166 -0.0093 -0.2999 -0.2884
11211W        W54305  18.881  12.189   3.843  0.0286  0.0119  0.1316
11212W        W54306  17.117   9.391   4.791  0.0052  0.0560  0.0196
11213W        W54307  18.215   9.265   4.987 -0.1908 -0.0063 -0.1003
11214W        W54308  17.740   7.456   5.270 -0.1760 -0.2041  0.0951
11215W        W54309  19.768  10.705   5.670 -0.3151  0.0675 -0.2299
11216W        W54310  21.467   8.842   1.743 -0.0184 -0.2296  0.1106
11217W        W54311  18.652   8.016   7.161 -0.1307  0.4764  0.3663
11218W        W54312  20.452   7.474   3.425 -0.1697 -0.1985 -0.1364
11219W        W54313  17.492   8.281   4.231 -0.1942  0.0427 -0.1165
11220W        W54314  20.282  11.808   4.743  0.1597 -0.1002 -0.0973
11221W        W54315  22.302   8.962   4.580 -0.0636  0.1735  0.1061
11222W        W54316  19.978  10.454   3.516 -0.1644 -0.1123  0.2331
11223W        W54317  18.943   9.175   6.226 -0.4592  0.4659  0.0758
11224W        W54318  19.451   7.780   4.418  0.0783 -0.1036 -0.1110
11225W        W54319  18.991   8.253   6.173  0.0830  0.0463 -0.1886
11226W        W54320  18.032   7.761   5.646 -0.0348 -0.0989 -0.0611
11227W        W54321  21.262   9.844   6.727  0.1589  0.0487  0.1198
11228W        W54322  18.292   6.568   4.868 -0.1831  0.5119  0.1215
11229W        W54323  20.521   8.045   4.353 -0.2738  0.0252  0.3236
11230W        W54324  18.886   8.986   4.055 -0.2647  0.0093 -0.1999
11231W        W54325  17.917   8.110   3.955 -0.2840  0.2150 -0.1960
11232W        W54326  21.219   8.158   4.916 -0.0994  0.1037 -0.1308
11233W        W54327  19.649  10.422   3.896 -0.2219  0.3069 -0.2629
11234W        W54328  20.681  11.940   7.462  0.1147  0.1555  0.1091
11235W        W54329  21.535  11.753   5.009 -0.3659 -0.2736  0.0521
11236W        W54330  18.377   9.409   5.894  0.2993  0.1529  0.1462
11237W        W54331  19.837   6.926   4.423 -0.0547  0.4213 -0.0246
11238W        W54332  17.179  11.358   5.342 -0.1608  0.1811 -0.0489
11239W        W54333  18.185  10.911   4.056  0.0437  0.0612 -0.1532
11240W        W54334  18.990   6.802   3.734 -0.1443 -0.0403  0.2158
11241W        W54335  20.559  12.228   3.744  0.2477 -0.1422 -0.0406
11242W        W54336  19.231   9.754   4.409  0.0983  0.1777 -0.1523
11243W        W54337  18.766  10.205   4.450 -0.0167 -0.1115 -0.1014
11244W        W54338  21.237   8.396   5.701  0.2535 -0.0304  0.0281
11245W        W54339  22.538   8.098   6.244  0.1494 -0.4048  0.0019
11246W        W54340  21.017   8.514   7.177 -0.0035 -0.1085 -0.0301
11247W        W54341  17.920   6.995   3.894  0.0651 -0.2060 -0.3589
11248W        W54342  20.372  11.389   5.651 -0.0806  0.3814  0.2114
11249W        W54343  18.438  11.958   2.917  0.4579  0.1775 -0.0567
11250W        W54344  17.484   9.406   5.264  0.3354 -0.2698 -0.2766
11251W        W54345  19.721  11.232   4.406  0.0177  0.2508 -0.1363
11252W        W54346  20.696   7.330   5.272  0.1302  0.0410 -0.1954
11253W        W54347  17.909   9.347   6.159  0.1498  0.3141  0.0228
11254W        W54348  21.011   9.481   6.513  0.0744 -0.1622  0.2696
11255W        W54349  19.233   9.395   3.974 -0.0939 -0.0497 -0.2245
11256W        W54350  19.220   9.633   6.291 -0.1321 -0.0930  0.1367
11257W        W54351  21.002   8.346   4.306 -0.0335  0.0084 -0.4261
11258W        W54352  22.364   8.525   3.254 -0.0276 -0.1978 -0.3041
11259W        W54353  19.867   7.939   5.915  0.0942 -0.3337 -0.0878
11260W        W54354  20.392  10.026   3.742  0.3078 -0.1462  0.1341
11261W        W54355  21.637   7.197   2.892  0.2753 -0.3960  0.2275
11262W        W54356  21.011   6.710   3.413 -0.1306 -0.2884  0.0209
11263W        W54357  19.613   9.426   6.932  0.0519  0.1096 -0.0050
11264W        W54358  19.193  11.377   4.149 -0.0092 -0.1160 -0.1619
11265W        W54359  19.538   9.925   5.987 -0.0622 -0.0265  0.0771
11266W        W54360  21.430   7.913   2.139 -0.0467 -0.1194 -0.2868
11267W        W54361  19.728  12.024   3.783 -0.1838  0.0195 -0.0461
11268W        W54362  18.187  10.796   5.590 -0.1520  0.3502 -0.0791
11269W        W54363  19.883   9.994   6.396  0.2666 -0.0814  0.2044
11270W        W54364  20.750  11.737   4.655 -0.1540 -0.4110 -0.2628
11271W        W54365  19.948   7.381   5.658  0.0641 -0.2499  0.0839
11272W        W54366  20.910   8.576   2.646 -0.0231 -0.0847  0.3702
11273W        W54367  20.118   8.208   4.101  0.0926  0.0730 -0.1399
11274W        W54368  18.837  12.700   2.595 -0.0919 -0.0602 -0.0818
11275W        W54369  19.792   7.656   5.258  0.0551  0.3256  0.2313
11276W        W54370  20.329   7.998   5.037 -0.2539  0.0574 -0.0167
11277W        W54371  19.998   7.569   6.238 -0.2195  0.1243 -0.0438
11278W        W54372  20.424   9.371   7.730 -0.0876  0.0397  0.2795
11279W        W54373  21.957  10.251   4.142 -0.2940  0.2669 -0.3488
11280W        W54374  20.165   8.301   4.626  0.1004  0.4744 -0.2607
11281W        W54375  18.576   8.813   3.677 -0.0973  0.0947  0.0805
11282W        W54376  19.405   8.289   5.830  0.0210 -0.1708  0.0892
11283W        W54377  19.899   9.171   6.139  0.1262 -0.5182  0.0431
11284W        W54378  17.584  10.893   5.419 -0.1941 -0.0079  0.0823
11285W        W54379  22.036  10.753   7.278  0.1821  0.0935 -0.1344
11286W        W54380  20.047   9.751   4.410  0.1239  0.1320 -0.0125
11287W        W54381  19.497   8.431   6.396 -0.0211  0.2778 -0.4523
11288W        W54382  21.057   8.092   2.991 -0.0289 -0.1590  0.0168
11289W        W54383  19.037  10.531   4.825 -0.1072 -0.1965 -0.0890
11290W        W54384  18.035   9.515   4.027 -0.0247  0.1416  0.2603
11291W        W54385  20.629   7.719   4.767 -0.1640  0.0972  0.0535
11292W        W54386  19.224  10.398   5.270  0.4157 -0.0304 -0.1564
11293W        W54387  18.793   9.787   4.117  0.1159 -0.0223 -0.0784
11294W        W54388  20.487   8.475   5.220 -0.1573  0.1132  0.4308
11295W        W54389  18.952  10.011   4.875 -0.2948 -0.0638  0.0083
11296W        W54390  20.759   8.768   4.738 -0.1350  0.0129 -0.2290
11297W        W54391  19.006  11.776   5.522  0.1110 -0.2620 -0.2851
11298W        W54392  18.499   8.224   4.352 -0.0853 -0.2290  0.1005
11299W        W54393  19.593   9.336   4.529  0.0842 -0.0799  0.1448
11300W        W54394  21.049   7.964   2.464 -0.1269  0.0979 -0.0751
11301W        W54395  19.692  10.901   3.940 -0.0734 -0.0790 -0.0596
11302W        W54396  19.088   8.744   6.535 -0.2524  0.1942 -0.1132
11303W        W54397  20.361   7.541   4.383 -0.1224  0.1597 -0.0991
11304W        W54398  18.533  10.667   4.815 -0.0461  0.1729 -0.1186
11305W        W54399  20.407   8.078   5.641 -0.0059  0.2862 -0.0447
11306W        W54400  21.250   8.640   3.043 -0.0397  0.1426 -0.0153
11307W        W54401  22.157   9.941   5.987  0.1252  0.1293  0.0949
11308W        W54402  20.219   8.934   6.709 -0.0743 -0.0398 -0.2928
11309W        W54403  19.682   8.777   3.360 -0.0533  0.0751  0.2077
11310W        W54404  21.235   9.416   5.632 -0.0343 -0.1754 -0.0591
11311W        W54405  19.897   8.461   5.021  0.1038  0.1020 -0.0174
11312W        W54406  18.421   9.578   4.605  0.0532 -0.0925  0.2522
11313W        W54407  21.212  10.777   6.494 -0.0844  0.1206  0.1044
11314W        W54408  21.339   8.987   2.650 -0.1914 -0.2227 -0.1131
11315W        W54409  19.683  10.077   4.246  0.1656  0.1015  0.0398
11316W        W54410  19.208   9.126   5.738  0.2968  0.1077 -0.0431
11317W        W54411  20.662  10.258   5.892  0.1027  0.1419 -0.0439
11318W        W54412  19.093   7.595   5.743 -0.0726 -0.0314 -0.2464
11319W        W54413  19.647   8.016   3.953  0.0818 -0.1880 -0.3922
11320W        W54414  18.805   7.545   4.745 -0.0052  0.0602  0.1018
11321W        W54415  20.242  10.531   6.182  0.0712  0.2217  0.1767
11322W        W54416  21.063   8.654   6.132 -0.2935  0.1691  0.0074
11323W        W54417  19.406   9.889   6.822 -0.3322  0.1288  0.0830
11324W        W54418  20.368   7.623   5.413  0.1442  0.1970  0.2162
11325W        W54419  21.084  12.004   3.470  0.0403  0.2714 -0.0715
11326W        W54420  21.417  10.313   5.669 -0.1484  0.0233 -0.3064
11327W        W54421  18.047   9.229   3.505  0.1147  0.1850 -0.1417
11328W        W54422  18.971   9.153   5.306  0.0590  0.0515 -0.0395
11329W        W54423  19.154   9.548   3.486  0.2707  0.1588 -0.2243
11330W        W54424  20.719   8.237   7.724 -0.3338  0.1840 -0.0440
11331W        W54425  18.121  10.637   6.066 -0.2480  0.3836  0.0927
11332W        W54426  18.183   9.903   2.008 -0.1667  0.2898 -0.0176
11333W        W54427  17.319  10.435   5.924  0.2525  0.4902 -0.2852
11334W        W54428  22.359   8.634   2.235  0.2623 -0.1934 -0.3258
11335W        W54429  19.444  10.147   3.439  0.0934 -0.2217  0.2087
11336W        W54430  18.875   8.104   5.577  0.3027  0.1000  0.1728
11337W        W54431  22.500   8.412   7.676  0.0558 -0.0761 -0.1918
11338W        W54432  20.064  10.373   4.078 -0.1216  0.1759 -0.3302
11339W        W54433  21.246   7.203   7.025 -0.0915 -0.3181  0.0715
11340W        W54434  18.536   8.229   6.324 -0.1493  0.0980  0.1335
11341W        W54435  20.408  11.332   4.524  0.0856 -0.1160 -0.3471
11342W        W54436  18.352   9.199   6.394  0.1503 -0.1918  0.1472
11343W        W54437  20.897  11.958   6.989  0.4016  0.2835  0.1288
11344W        W54438  19.737   8.523   7.007 -0.0232 -0.2016 -0.2715
11345W        W54439  21.010   8.844   5.582  0.0531 -0.0595  0.0387
11346W        W54440  19.227   8.287   3.533 -0.1158  0.4694 -0.0565
11347W        W54441  19.965   9.668   6.026  0.0188 -0.0327 -0.0287
11348W        W54442  20.255   9.477   5.270  0.0050  0.0540  0.1744
11349W        W54443  20.920   9.775   4.348  0.1005 -0.0620  0.1060
11350W        W54444  20.869   8.737   4.070  0.2285  0.1496 -0.1339
11351W        W54445  20.057  10.342   4.609 -0.0019  0.3096 -0.1530
11352W        W54446  19.421   9.483   5.371 -0.0276  0.1678 -0.0914
11353W        W54447  21.240   9.068   3.817  0.0602 -0.2703 -0.2154
11354W        W54448  19.474  10.292   5.702 -0.6438 -0.3010 -0.0485
11355W        W54449  19.372   7.891   6.227 -0.0044  0.1944  0.1826
11356W        W54450  20.340   9.721   6.608  0.0929 -0.1911  0.1043
11357W        W54451  21.545   8.075   3.968  0.0371 -0.2342 -0.0784
11358W        W54452  20.802   8.059   5.346  0.1141 -0.1373  0.1791
11359W        W54453  20.426   8.248   6.100 -0.2518  0.0894  0.0117
11360W        W54454  20.094   8.622   7.522  0.0982 -0.0179  0.3408
11361W        W54455  18.684   7.381   7.879 -0.1811 -0.1561 -0.1481
11362W        W54456  20.754  11.673   5.459  0.0811 -0.1755  0.1217
11363W        W54457  21.561   7.921   2.957 -0.0483 -0.3759 -0.1140
11364W        W54458  21.428   8.817   6.373 -0.1639 -0.1908  0.0864
11365W        W54459  20.030   9.899   4.936  0.0921  0.0843 -0.0232
11366W        W54460  21.299   9.509   4.417  0.1143 -0.2599 -0.3239
11367W        W54461  18.348   8.206   5.579 -0.1686  0.1149  0.3667
11368W        W54462  21.926   9.365   7.169  0.0007 -0.2339  0.0391
11369W        W54463  19.264   9.995   3.951  0.0048  0.2418 -0.0629
11370W        W54464  20.510   7.373   6.394 -0.1616 -0.4919 -0.0549
11371W        W54465  18.766  11.946   5.132 -0.0034 -0.0745  0.2569
11372W        W54466  19.988  11.349   4.932  0.0752 -0.1075  0.1798
11373W        W54467  21.189  10.219   4.331 -0.0186 -0.0752  0.0204
11374W        W54468  18.820  10.759   5.424  0.2789 -0.1105  0.1332
11375W        W54469  19.686  12.375   6.292  0.0180  0.1173  0.0317
11376W        W54470  19.499   8.843   2.826  0.0096  0.0772 -0.1095
11377W        W54471  21.347   9.853   3.998 -0.1260 -0.0347 -0.0081
11378W        W54472  19.848   9.760   5.495  0.2466  0.1163 -0.0836
11379W        W54473  22.369   9.082   7.125 -0.0198  0.0997  0.0881
11380W        W54474  20.253   7.064   4.557  0.0380 -0.0158  0.1416
11381W        W54475  22.179   8.871   5.376  0.0476 -0.1551 -0.0205
11382W        W54476  18.815   9.942   2.764  0.1791  0.2182 -0.3733
11383W        W54477  20.701   8.389   3.135 -0.0385 -0.0750 -0.2548
11384W        W54478  19.461  11.278   4.805  0.1204 -0.0089 -0.3093
11385W        W54479  18.546  11.454   5.414  0.0051 -0.1864 -0.2132
11386W        W54480  18.109  10.656   5.102 -0.0107  0.1610 -0.0952
11387W        W54481  20.386   7.718   5.982 -0.0687  0.1599  0.1276
11388W        W54482  20.461   9.009   4.390 -0.2175 -0.0294 -0.0064
11389W        W54483  18.942   9.310   4.470 -0.0793 -0.1232 -0.0044
11390W        W54484  21.647   9.284   5.975 -0.1564 -0.0051  0.3668
11391W        W54485  21.249   9.717   6.104 -0.0640 -0.0205  0.1922
11392W        W54486  18.482   8.483   4.852 -0.1534  0.0107  0.1570
11393W        W54487  20.341  10.059   7.133 -0.0803 -0.1500  0.3541
11394W        W54488  20.538  10.483   4.114  0.1091  0.1348 -0.0746
11395W        W54489  18.360  10.160   4.847  0.2461  0.0702  0.1256
11396W        W54490  17.787   9.016   5.114  0.1977  0.0568 -0.1730
11397W        W54491  20.312   9.096   7.248 -0.0830 -0.0927 -0.0677
11398W        W54492  19.386   9.164   3.235  0.1656 -0.2595 -0.1841
11399W        W54493  19.223   7.886   4.856 -0.3340  0.2347 -0.1812
11400W        W54494  21.055   9.438   3.161 -0.0667  0.1885 -0.3583
11401W        W54495  17.577  10.071   6.463 -0.2781  0.2527  0.0757
11402W        W54496  18.425  10.373   5.667 -0.1900  0.2655 -0.0243
11403W        W54497  18.117  12.195   5.287  0.0045 -0.0532 -0.2747
11404W        W54498  19.302  10.899   4.558 -0.3199 -0.0885  0.0596
11405W        W54499  20.447  10.049   4.368  0.1458 -0.1549  0.0168
11406W        W54500  19.002  11.699   3.843 -0.1478 -0.1302 -0.0625
11407W        W54501  19.627   8.399   4.397 -0.4118 -0.6160 -0.1034
11408W        W54502  18.384  11.031   4.552  0.3151  0.0772  0.0597
11409W        W54503  17.845  10.589   3.880 -0.0800  0.1852  0.4412
11410W        W54504  20.381  11.173   3.575 -0.1362  0.0253 -0.1103
11411W        W54505  18.509   9.371   4.149 -0.1885  0.1967  0.2276
11412W        W54506  21.529  10.450   7.525 -0.1724  0.2737 -0.0604
11413W        W54507  22.388   7.994   3.492 -0.0066 -0.0853  0.1460
11414W        W54508  21.685   8.471   4.956 -0.1939 -0.1034 -0.2036
11415W        W54509  21.845   7.750   2.556  0.1320 -0.4881  0.0347
11416W        W54510  21.155  10.246   7.033 -0.4097 -0.1448  0.1074
11417W        W54511  19.672   9.580   4.105 -0.1768 -0.0178 -0.2108
11418W        W54512  20.055   6.685   4.866  0.1709 -0.1173  0.0408
11419W        W54513  19.617   8.768   5.912 -0.0250 -0.0839 -0.4285
11420W        W54514  21.664   8.101   5.642 -0.0261 -0.1057  0.1799
11421W        W54515  18.100   9.392   6.883 -0.0000  0.0607 -0.0051
11422W        W54516  20.156  11.259   4.105  0.2865  0.2482 -0.1508
11423W        W54517  17.935   7.824   3.508  0.2471 -0.1997  0.2170
11424W        W54518  20.161   9.229   4.762  0.0204  0.0417 -0.0237
11425W        W54519  21.244   7.861   5.437 -0.0066  0.3281  0.0166
11426W        W54520  20.201   8.513   3.302  0.1771 -0.0092  0.1868
11427W        W54521  19.775   9.434   5.008  0.2180 -0.0545  0.2774
11428W        W54522  19.470  11.769   4.288  0.1077  0.2499 -0.2158
11429W        W54523  18.696  11.058   5.057 -0.2743  0.1075  0.1772
11430W        W54524  20.476   9.538   4.590  0.0101  0.0309  0.1326
11431W        W54525  19.121   8.707   5.517  0.0477 -0.0066 -0.5181
11432W        W54526  20.622   9.236   4.984 -0.0065  0.3569  0.0434
11433W        W54527  19.808   9.172   5.563 -0.0759 -0.2778 -0.1828
11434W        W54528  21.527   9.382   6.453  0.2038  0.1305 -0.2337
11435W        W54529  18.242   9.005   3.967 -0.0527  0.2118 -0.1049
11436W        W54530  22.899   9.334   4.859  0.0871  0.7014  0.4293
11437W        W54531  20.295   9.256   5.800 -0.1027  0.1886 -0.1095
11438W        W54532  19.264  10.571   6.086 -0.0542  0.0480  0.0373
11439W        W54533  20.743   8.214   4.794 -0.1737  0.2296  0.3311
11440W        W54534  21.175   9.203   6.121 -0.1024 -0.2771  0.0871
11441W        W54535  20.790   8.691   3.558 -0.0120  0.0051 -0.0819
11442W        W54536  20.551   9.801   5.011 -0.1115  0.1146  0.2875
11443W        W54537  19.553   7.408   4.866 -0.2221 -0.2683  0.1753
11444W        W54538  21.206   7.560   2.713  0.1171  0.1070 -0.0165
11445W        W54539  17.986   8.365   4.432  0.2199  0.3236 -0.1158
11446W        W54540  20.765   9.512   5.960 -0.1169  0.1394  0.2055
11447W        W54541  20.609  11.920   5.942  0.2799  0.1295  0.0800
11448W        W54542  18.064   7.548   4.068  0.0158 -0.3383  0.1768
11449W        W54543  21.675  10.224   2.874 -0.4469  0.2820 -0.1085
11450W        W54544  21.055   9.045   5.170 -0.3200  0.0324 -0.0872
11451W        W54545  18.633  11.487   4.235  0.2703  0.1907  0.2428
11452W        W54546  20.813  10.444   4.481  0.2169  0.1634 -0.0999
11453W        W54547  20.844  10.578   5.592 -0.2128 -0.1148 -0.1397
11454W        W54548  18.609   8.562   5.906  0.2233 -0.1751 -0.1470
11455W        W54549  21.554  10.744   6.056  0.0867  0.2661 -0.0948
11456W        W54550  21.572  10.232   6.774  0.0024  0.1841  0.2624
11457W        W54551  20.233   7.554   2.942 -0.1720 -0.0744 -0.0006
11458W        W54552  19.254   9.502   4.875  0.1808  0.1097  0.1608
11459W        W54553  18.067   9.204   4.453  0.0276 -0.2931  0.3551
11460W        W54554  20.285   8.747   4.785  0.1504  0.2058  0.1875
11461W        W54555  20.692   9.041   5.909 -0.3866  0.4291  0.0006
11462W        W54556  19.175  12.645   3.828  0.2046  0.1680  0.1784
11463W        W54557  19.935   8.176   5.459  0.1209  0.0755 -0.1129
11464W        W54558  20.340  11.093   7.333  0.1194 -0.2821  0.1658
11465W        W54559  20.362   8.750   6.244  0.1814 -0.3455  0.0797
11466W        W54560  17.876  10.020   3.693 -0.1134  0.2015  0.1134
11467W        W54561  20.437   9.338   6.309 -0.0701  0.2578  0.2533
11468W        W54562  19.403  10.706   3.562  0.2583  0.0443  0.3256
11469W        W54563  18.514   9.095   4.605 -0.2867  0.2099  0.1823
11470W        W54564  20.315   9.737   5.708  0.1228  0.0030  0.0028
11471W        W54565  19.732   8.027   4.878 -0.3918 -0.1275  0.0231
11472W        W54566  20.716  11.038   4.298 -0.2395 -0.1291  0.2434
11473W        W54567  19.913   8.497   3.732  0.1168  0.1762  0.1063
11474W        W54568  20.498   7.991   3.487 -0.0481  0.3622 -0.2478
11475W        W54569  20.363   8.618   2.784 -0.2281  0.0803 -0.2128
11476W        W54570  18.915  10.352   5.671  0.0549  0.1563 -0.0568
11477W        W54571  18.085   8.695   3.605  0.0155 -0.2230 -0.0054
11478W        W54572  18.214   9.438   3.090  0.1369  0.1171  0.2308
11479W        W54573  17.609   8.838   4.528 -0.3498 -0.2632 -0.1391
11480W        W54574  19.751   7.461   7.891 -0.0833 -0.0343 -0.2899
11481W        W54575  19.602   9.868   4.707  0.0311  0.0511 -0.0984
11482W        W54576  17.863   9.656   5.031 -0.0950 -0.0644 -0.2017
11483W        W54577  19.199   6.782   4.532 -0.2320  0.1500  0.0124
11484W        W54578  20.161  11.813   2.992 -0.1880  0.0336 -0.2394
11485W        W54579  19.421   8.183   5.307 -0.0369 -0.1811  0.1987
11486W        W54580  18.251   8.931   5.453  0.0175  0.2642  0.0920
11487W        W54581  20.209  10.813   4.344  0.1586  0.0314 -0.1714
11488W        W54582  19.960   7.901   4.448  0.1300  0.0364  0.3047
11489W        W54583  22.654  11.620   7.606  0.0759  0.2341  0.1073
11490W        W54584  18.223  11.394   3.949  0.1094  0.0938 -0.0060
11491W        W54585  20.635   7.786   6.839 -0.1711  0.1355  0.2402
11492W        W54586  19.155   7.400   7.219  0.1171 -0.3350 -0.0793
11493W        W54587  18.923   8.323   5.105 -0.1411 -0.0222  0.0045
11494W        W54588  19.253   7.517   5.267  0.1641 -0.2005  0.4170
11495W        W54589  19.970  11.585   3.481 -0.1845  0.2789 -0.3545
11496W        W54590  21.789  13.148   4.016 -0.3195  0.1125 -0.1108
11497W        W54591  20.068  10.556   5.074 -0.1256 -0.0932 -0.2627
11498W        W54592  19.724  10.450   6.137 -0.0798  0.3127 -0.1184
11499W        W54593  18.854   7.706   6.230 -0.1228 -0.1195  0.1751
11500W        W54594  20.516   8.532   4.356 -0.1223  0.0422  0.1068
11501W        W54595  20.231  10.276   6.694  0.0537 -0.1606  0.1200
11502W        W54596  21.372  10.392   4.797  0.2855 -0.1381  0.1688
11503W        W54597  21.645   8.582   5.401 -0.1929  0.2208 -0.1638
11504W        W54598  19.772   8.926   4.718 -0.1725  0.0740 -0.0028
11505W        W54599  19.288   7.364   7.931  0.0596 -0.1542 -0.2431
11506W        W54600  19.435  10.632   6.518 -0.0667 -0.0283 -0.2688
11507W        W54601  22.088   8.313   5.375  0.1286 -0.0661 -0.1495
11508W        W54602  17.646   7.522   5.850  0.1354  0.1754  0.3429
11509W        W54603  21.147   7.484   2.145  0.2418 -0.0078  0.2879
11510W        W54604  19.064  10.326   3.662  0.1302 -0.0120  0.4176
11511W        W54605  19.629   8.695   5.385 -0.0363 -0.0966  0.2328
11512W        W54606  19.471   9.459   5.892  0.2002 -0.0890 -0.2863
11513W        W54607  19.575   7.229   5.420  0.0172  0.0173  0.0827
11514W        W54608  18.196  10.439   4.475  0.0077  0.1534 -0.1219
11515W        W54609  21.846  10.290   6.106  0.2154  0.0356 -0.0482
11516W        W54610  19.167   8.070   4.161  0.2264  0.1749 -0.1478
11517W        W54611  20.990   9.491   4.813 -0.3346 -0.0574 -0.0545
11518W        W54612  20.501  10.957   5.219  0.2623  0.0613 -0.1274
11519W        W54613  21.222  12.646   7.896 -0.1083 -0.0492 -0.0681
11520W        W54614  20.276  10.136   5.375 -0.0908 -0.0211 -0.2820
11521W        W54615  21.091   8.531   5.231  0.0005 -0.1147 -0.0400
11522W        W54616  19.568   6.986   6.340 -0.2314 -0.1221 -0.1694
11523W        W54617  19.407   8.904   4.372  0.0520 -0.3399 -0.2103
11524W        W54618  18.967   9.979   3.225  0.1509  0.0769 -0.0633
11525W        W54619  20.782   9.524   5.463  0.1215  0.0821 -0.2223
11526W        W54620  20.086   8.776   5.669  0.0217  0.1054 -0.0211
11527W        W54621  20.932   5.781   4.203  0.2350 -0.3709 -0.1741
11528W        W54622  20.173  11.102   6.384 -0.2775  0.2166 -0.1805
11529W        W54623  20.801   9.870   6.296  0.2358 -0.0317 -0.0010
11530W        W54624  18.386   9.867   9.004  0.1370 -0.3538 -0.0461
11531W        W54625  19.857   8.994   7.065 -0.0574 -0.0479 -0.1805
11532W        W54626  21.937   9.867   6.985  0.2382 -0.0199 -0.1654
11533W        W54627  21.601   8.743   7.718  0.1055  0.0212 -0.1113
11534W        W54628  17.828   8.012   8.664  0.0839 -0.2034 -0.1016
11535W        W54629  20.189  10.757   7.688  0.0648 -0.1131  0.1435
11536W        W54630  19.969  10.507   9.803 -0.3929 -0.1420  0.2067
11537W        W54631  20.401  11.748   8.746  0.0081  0.3094  0.1287
11538W        W54632  20.646   9.255   6.821  0.2509  0.0024  0.0890
11539W        W54633  18.072   9.309   9.814 -0.2997 -0.1918  0.2829
11540W        W54634  18.798   7.820   8.061  0.0505  0.1282 -0.2468
11541W        W54635  19.463   6.663   8.757 -0.2167  0.1416  0.2006
11542W        W54636  19.435   8.255   9.989  0.3682  0.2530 -0.0501
11543W        W54637  18.953   9.319   8.099  0.3205  0.1672 -0.0939
11544W        W54638  20.020   8.335   8.176 -0.2282  0.0308 -0.1763
11545W        W54639  19.492   8.253   7.419  0.1367  0.1979  0.1767
11546W        W54640  21.259  11.055   7.961  0.0924  0.0627 -0.1253
11547W        W54641  19.552   7.045   9.077  0.0315  0.0367 -0.1176
11548W        W54642  21.228   9.965   7.739 -0.0492  0.1145  0.0528
11549W        W54643  18.531   9.338   5.395 -0.0347  0.2406 -0.2357
11550W        W54644  18.867   9.567   9.608  0.1352 -0.0291 -0.0857
11551W        W54645  19.698  10.505   9.022  0.2706 -0.2255  0.2421
11552W        W54646  22.122   8.879   7.630 -0.1452  0.0433 -0.0322
11553W        W54647  20.138   6.812  10.158 -0.0324  0.1316  0.0280
11554W        W54648  21.582  10.705   8.093 -0.4907  0.1105 -0.2726
11555W        W54649  21.522   9.618   9.249 -0.2219  0.0940 -0.2593
11556W        W54650  19.470   8.804   9.418 -0.1898  0.1727 -0.3051
11557W        W54651  18.235  12.015   7.496 -0.0514  0.0363  0.0059
11558W        W54652  19.884  11.227   7.138  0.0087 -0.1473 -0.1364
11559W        W54653  22.115  10.759   9.098  0.0704  0.1979 -0.0403
11560W        W54654  19.066   9.847   7.323  0.1378  0.0983  0.0602
11561W        W54655  20.197  10.146   9.351  0.0848 -0.0527  0.0530
11562W        W54656  19.545   8.787   7.394 -0.2057  0.2181  0.0597
11563W        W54657  19.438  10.238   7.203 -0.1070 -0.0084 -0.1853
11564W        W54658  21.754   9.177   7.929 -0.1393 -0.0002 -0.0901
11565W        W54659  19.042   9.984   7.805  0.1159  0.2453 -0.0491
11566W        W54660  19.636   9.788   7.339 -0.0855 -0.2830 -0.0598
11567W        W54661  21.855   8.978   6.756 -0.1195  0.1783  0.0549
11568W        W54662  19.186   8.443   7.757  0.0842  0.1122  0.1997
11569W        W54663  22.656   8.819   7.995  0.0381  0.0840 -0.0176
11570W        W54664  20.409   8.496  10.052  0.0637 -0.3483 -0.1235
11571W        W54665  19.953  11.841   8.576 -0.1312 -0.1565  0.2297
11572W        W54666  20.312   7.648   9.104 -0.0219 -0.4202 -0.3776
11573W        W54667  18.744   9.147   6.695  0.0871 -0.1545  0.1236
11574W        W54668  18.914   8.455   8.843  0.0679 -0.2357 -0.0574
11575W        W54669  21.826  10.335   9.348  0.2038  0.1655 -0.1327
11576W        W54670  18.243   9.347   8.024 -0.4108 -0.3157 -0.1024
11577W        W54671  21.573  11.156   7.156 -0.0855  0.0260  0.0862
11578W        W54672  21.275  10.910   7.440 -0.0223 -0.4148 -0.1652
11579W        W54673  20.205  10.625   7.080  0.0219  0.1637  0.1082
11580W        W54674  19.325   9.830   8.167 -0.0833  0.0088 -0.3273
11581W        W54675  19.041   7.693   6.790  0.1099 -0.2948 -0.0773
11582W        W54676  19.863   8.148   8.686 -0.3762  0.1992 -0.1903
11583W        W54677  20.140   9.556   8.068  0.1346 -0.0428 -0.1393
11584W        W54678  22.232  10.027   9.518 -0.0890 -0.1299  0.0039
11585W        W54679  20.709   8.768   6.870  0.0011 -0.0188 -0.0018
11586W        W54680  20.653   9.240   9.099 -0.0042  0.1248  0.1055
11587W        W54681  21.033   7.831   8.984 -0.0740  0.0284 -0.1919
11588W        W54682  21.248   9.107   7.816 -0.0274  0.0825 -0.1609
11589W        W54683  19.639   9.477   8.366 -0.0447  0.1338 -0.1790
11590W        W54684  21.006   8.479  10.104  0.0688  0.0285 -0.2266
11591W        W54685  22.783  10.145   9.461 -0.1679 -0.1340 -0.2606
11592W        W54686  21.236  10.989   8.858 -0.1925 -0.0421 -0.0600
11593W        W54687  18.676  10.734   6.787  0.4058 -0.1777 -0.0489
11594W        W54688  18.519   8.637  10.325 -0.1978  0.1445  0.3551
11595W        W54689  19.467   8.582   8.244  0.0882 -0.0228  0.0581
11596W        W54690  16.154   8.924  11.132 -0.1373  0.1396 -0.0170
11597W        W54691  20.579  10.987   8.173 -0.3424  0.2757 -0.0354
11598W        W54692  20.446   8.531   8.001  0.1560 -0.0925  0.0651
11599W        W54693  21.226   7.293   9.262  0.1272 -0.1891  0.3173
11600W        W54694  19.024   9.970   8.686  0.1913 -0.1710 -0.1445
11601W        W54695  21.742  11.157   8.887  0.4690  0.3057 -0.0515
11602W        W54696  20.806   7.792   8.544  0.0305  0.1628  0.1141
11603W        W54697  19.661  10.693   6.982 -0.2339 -0.0893 -0.2677
11604W        W54698  19.875   7.650   9.400  0.3196  0.1321  0.0210
11605W        W54699  18.610   9.211   7.645 -0.2263  0.0777  0.0396
11606W        W54700  18.657   7.464   9.930  0.3714 -0.0928 -0.2018
11607W        W54701  19.062   7.485   8.379  0.2893 -0.0889  0.1806
11608W        W54702  21.482   8.153   8.852  0.0730  0.1368  0.1046
11609W        W54703  20.520   9.012   8.554 -0.0075 -0.1076  0.0552
11610W        W54704  18.501   8.969   7.221 -0.0490 -0.2596  0.1404
11611W        W54705  19.970  10.708   6.643  0.1966  0.1463  0.2337
11612W        W54706  21.367  10.592   9.749  0.3328  0.3611 -0.1822
11613W        W54707  23.114  12.317   8.346 -0.3632 -0.0655 -0.0696
11614W        W54708  17.883   6.811   8.330  0.0479 -0.1557 -0.1128
11615W        W54709  19.307   8.862   6.966 -0.1297  0.1742 -0.1155
11616W        W54710  18.718  10.084   9.393  0.0044 -0.0109  0.2032
11617W        W54711  19.806   9.897   8.191 -0.2131 -0.0113 -0.2120
11618W        W54712  19.716   8.002   7.766  0.2635 -0.0130  0.1708
11619W        W54713  21.350  10.106   9.370  0.4491 -0.0881 -0.2459
11620W        W54714  20.766   9.881   8.672 -0.2399  0.2819 -0.0444
11621W        W54715  22.129   9.423   9.693 -0.1436 -0.1398 -0.0875
11622W        W54716  18.749  10.088  10.003  0.1864 -0.2889 -0.0462
11623W        W54717  20.221   7.627   7.787  0.1105  0.1268 -0.0775
11624W        W54718  20.780  12.147   9.748 -0.0067  0.0783  0.0180
11625W        W54719  18.910  10.422   6.432  0.0640 -0.2193 -0.0290
11626W        W54720  18.163   9.711   8.484  0.0255  0.0337 -0.4026
11627W        W54721  20.113  11.005   8.236  0.1890  0.0905  0.2346
11628W        W54722  21.054   9.270   9.437 -0.0138 -0.1753 -0.2767
11629W        W54723  18.986   8.350   7.332  0.3129 -0.0890  0.2985
11630W        W54724  20.635   6.555   9.615  0.2574  0.0146 -0.2519
11631W        W54725  20.609   9.466   8.255  0.0427  0.0325 -0.3282
11632W        W54726  21.798   9.907   8.556 -0.1849 -0.0116  0.1818
11633W        W54727  19.706   7.383   7.055 -0.2975 -0.4438  0.1714
11634W        W54728  20.568   8.132   8.281 -0.1227 -0.0985  0.0467
11635W        W54729  20.555   9.917   8.061 -0.0728  0.1023  0.0291
11636W        W54730  19.809  11.108   7.591 -0.2874  0.0046 -0.2875
11637W        W54731  19.585   7.479   6.573  0.3306 -0.0030 -0.1217
11638W        W54732  21.981  10.205   7.325  0.1026 -0.1373 -0.0411
11639W        W54733  18.859   9.685   9.056  0.0666 -0.1371 -0.1151
11640W        W54734  20.920  11.673   8.994  0.0417 -0.0818 -0.0592
11641W        W54735  18.586   7.023   9.565  0.2228  0.0778 -0.1008
11642W        W54736  21.487   9.503   6.956  0.0994 -0.2344 -0.0676
11643W        W54737  19.039   7.011   9.074 -0.1360  0.2984 -0.1161
11644W        W54738  19.400  11.339   6.263  0.1764 -0.1374 -0.0845
11645W        W54739  20.357   8.409   9.385  0.0291 -0.0887  0.1032
11646W        W54740  20.867   8.555   8.246  0.0367 -0.1449  0.1478
11647W        W54741  21.268   9.236   8.995 -0.0976 -0.1551  0.1714
11648W        W54742  19.402   9.252   9.795 -0.0738 -0.4097 -0.1454
11649W        W54743  19.175   9.362   7.087 -0.2133 -0.2565 -0.1527
11650W        W54744  19.985   9.337  10.121  0.1128  0.1340 -0.0990
11651W        W54745  20.088  10.532   8.523 -0.0248 -0.0022 -0.0811
11652W        W54746  20.753   8.971   7.812  0.0823 -0.0784 -0.0035
11653W        W54747  19.800   8.041   6.548 -0.0166  0.1972 -0.1839
11654W        W54748  18.707  10.910   7.266  0.0008 -0.0873  0.0243
11655W        W54749  20.421  11.116   6.851  0.0314  0.3885 -0.1061
11656W        W54750  17.486   6.794   9.249 -0.0432 -0.0889 -0.2804
11657W        W54751  20.047  10.140   8.881  0.1818  0.1724 -0.1424
11658W        W54752  19.937   9.853   6.931 -0.0409 -0.3108  0.0416
11659W        W54753  20.295  11.121   9.207  0.0081  0.1186 -0.0786
11660W        W54754  18.480  10.055   6.079  0.0135  0.1016  0.2584
11661W        W54755  20.926   6.614  12.644 -0.1558 -0.0032  0.0736
11662W        W54756  19.013  12.077   8.137  0.0338 -0.0095 -0.0346
11663W        W54757  19.416   9.083   6.238 -0.0719 -0.1651  0.1472
11664W        W54758  19.065   8.222   8.224 -0.1085 -0.3160  0.1458
11665W        W54759  20.722   7.794   9.395 -0.2547  0.2549  0.0616
11666W        W54760  22.229  11.764   7.420  0.0810 -0.2451 -0.0887
11667W        W54761  17.580   7.035  13.042 -0.0330 -0.1424  0.0963
11668W        W54762  17.492   6.067   9.539  0.0865  0.0512  0.0208
11669W        W54763  18.767  11.437   8.835  0.0089  0.0588 -0.1708
11670W        W54764  20.579   8.211   7.230 -0.3444  0.1276 -0.0384
11671W        W54765  17.814   8.956   5.665 -0.0386 -0.1751  0.0705
11672W        W54766  21.411   8.740   8.764 -0.1430  0.0090  0.3001
11673W        W54767  19.412   9.234   8.811  0.3281  0.0944  0.0046
11674W        W54768  18.063  10.267   7.649 -0.0826 -0.0390 -0.2154
11675W        W54769  21.776   9.894   9.653 -0.0696 -0.1352  0.2853
11676W        W54770  18.924   9.670   6.761  0.0336 -0.0302 -0.3615
11677W        W54771  19.146  10.576   6.926  0.0585  0.0470 -0.0192
11678W        W54772  21.068  10.404   8.772  0.1911 -0.2270 -0.4387
11679W        W54773  17.000   5.404   9.120  0.2759 -0.0169 -0.1305
11680W        W54774  19.348   9.040   8.329 -0.3668 -0.2647  0.0384
11681W        W54775  18.670   9.767   7.560  0.2218 -0.2888  0.0165
11682W        W54776  21.173   9.706   9.607  0.0230  0.0826 -0.0876
11683W        W54777  19.609   9.344   9.279 -0.0794 -0.0937 -0.3778
11684W        W54778  20.517   8.097   9.000 -0.4743 -0.0921 -0.3189
11685W        W54779  22.047  11.268   8.482  0.1990 -0.0864  0.2030
11686W        W54780  19.936   9.150   8.582 -0.4718 -0.3272 -0.2160
11687W        W54781  19.203  10.190   9.249  0.1241  0.1103  0.3681
11688W        W54782  18.926  10.132   6.903  0.1701  0.2674 -0.2207
11689W        W54783  18.010   5.898   9.619 -0.0642 -0.0023  0.1287
11690W        W54784  19.874   7.601   9.874  0.0460  0.0804  0.0305
11691W        W54785  19.081   9.489   8.527  0.2355  0.2465  0.1856
11692W        W54786  19.833  11.378   8.644  0.0709  0.1372 -0.0166
11693W        W54787  19.952   6.861   8.717  0.1733  0.2559 -0.0608
11694W        W54788  19.776  10.279   6.784  0.0863  0.2790 -0.0491
11695W        W54789  21.044   9.630   8.065 -0.0131 -0.0005 -0.1839
11696W        W54790  19.903   8.373   6.067  0.0867 -0.2401 -0.0587
11697W        W54791  19.004   6.065   8.949  0.4124  0.1167  0.1457
11698W        W54792  21.633   9.678   8.073  0.4053 -0.1539  0.0168
11699W        W54793  20.529   8.961   9.495 -0.0392  0.0754 -0.1442
11700W        W54794  19.536   9.297   7.437 -0.2169  0.0988  0.3955
11701W        W54795  21.558   9.542   8.758  0.1678  0.2381  0.0691
11702W        W54796  21.467  10.048   8.872  0.0382  0.0273  0.1009
11703W        W54797  20.063   9.544   7.386  0.0677  0.2186 -0.0086
11704W        W54798  20.449   9.463   8.712 -0.1879 -0.1940 -0.4475
11705W        W54799  20.253   8.982   8.981 -0.0189  0.0569 -0.0472
11706W        W54800  20.488   9.321   9.917  0.0473  0.0728 -0.2914
11707W        W54801  21.111   8.555   7.707  0.1575 -0.4376 -0.0211
11708W        W54802  18.547   9.364   8.415 -0.1681  0.2570 -0.1277
11709W        W54803  20.458  11.194   9.665  0.2456 -0.2145 -0.0591
11710W        W54804  20.074   8.527   8.974 -0.0268 -0.2640 -0.1472
11711W        W54805  20.868  10.394   9.828 -0.1591  0.1234 -0.2509
11712W        W54806  20.957   9.394   8.619  0.0562 -0.0295 -0.2838
11713W        W54807  22.062   6.435   9.219  0.2474 -0.1556  0.0731
11714W        W54808  22.814   8.437   8.355 -0.1335  0.3637  0.3232
11715W        W54809  21.494   8.363   7.366 -0.0081 -0.2540 -0.0666
11716W        W54810  18.524   8.077   9.040  0.2064 -0.0825  0.5370
11717W        W54811  18.220   7.783   8.383  0.1210 -0.1060 -0.1605
11718W        W54812  20.715  10.341   6.379  0.1972 -0.1300  0.0894
11719W        W54813  20.610  10.278   8.971 -0.0662 -0.1297 -0.1942
11720W        W54814  20.282   7.909   6.411 -0.4301  0.0269 -0.1664
11721W        W54815  17.822   8.598   9.964  0.0590 -0.1555  0.0426
11722W        W54816  18.718   8.689   7.647  0.0607  0.2441 -0.1395
11723W        W54817  20.977   9.512   7.061  0.4065  0.0500  0.4148
11724W        W54818  18.818   8.820   9.173  0.0295  0.0881 -0.1054
11725W        W54819  20.468   7.637   8.201  0.1023 -0.0870  0.3521
11726W        W54820  20.038   9.928   7.745  0.0149  0.0108 -0.2329
11727W        W54821  19.534   7.097   8.567 -0.1137 -0.0358  0.0716
11728W        W54822  17.571  10.280   9.423 -0.2328 -0.0240  0.1712
11729W        W54823  19.986  11.551   8.172 -0.0196 -0.0729  0.1033
11730W        W54824  19.866   7.496   8.863 -0.1889  0.3369  0.1165
11731W        W54825  22.122   8.573  10.068  0.4001 -0.0458  0.0333
11732W        W54826  21.351   9.311   8.311  0.0618 -0.2768  0.2224
11733W        W54827  19.781   8.953   9.047 -0.1721 -0.0473  0.0343
11734W        W54828  22.329  10.270   9.116  0.3456 -0.4176 -0.1483
11735W        W54829  18.994   8.941   7.350 -0.2375  0.0707 -0.2359
11736W        W54830  21.061   9.702   9.087 -0.3394  0.1027 -0.1502
11737W        W54831  19.535   7.732   8.554 -0.0764 -0.3024 -0.1121
11738W        W54832  20.901  11.490   6.030 -0.0397  0.2483  0.3946
11739W        W54833  19.356   8.728   8.751 -0.1600  0.2842  0.1063
11740W        W54834  19.542  10.543   7.587  0.2773  0.2446  0.1237
11741W        W54835  21.252  10.256   6.341  0.0619 -0.2424 -0.3063
11742W        W54836  20.409  10.221   7.606 -0.1797 -0.1536 -0.1087
11743W        W54837  21.039  11.249   8.432 -0.2135  0.1427  0.0567
11744W        W54838  19.703   8.498   7.825  0.0465  0.2317  0.1121
11745W        W54839  18.538  10.592   9.283  0.1704  0.2809 -0.2195
11746W        W54840  18.623  11.086   5.786  0.2260 -0.1821 -0.2458
11747W        W54841  21.055  11.125   6.847 -0.0399 -0.4063 -0.0935
11748W        W54842  18.539  10.284   7.498  0.0851  0.1031  0.0503
11749W        W54843  21.589   8.264   6.561 -0.0419  0.3025 -0.3130
11750W        W54844  21.768   8.910   8.442 -0.1868  0.3257  0.2466
11751W        W54845  19.788   9.050   8.089 -0.0325 -0.0962  0.0450
11752W        W54846  21.032   8.826   9.238  0.2070  0.0930  0.2191
11753W        W54847  19.517   7.618   7.502  0.2777  0.1163  0.2033
11754W        W54848  22.077  10.882   8.102 -0.0615  0.2274  0.0929
11755W        W54849  18.183   7.200   9.070 -0.1159 -0.1250 -0.0336
11756W        W54850  19.603   9.544   7.861  0.1824 -0.1068  0.2126
11757W        W54851  17.747   7.415   9.997 -0.0297  0.1783  0.1003
11758W        W54852  20.101   9.380   6.860  0.1825  0.1691  0.0441
11759W        W54853  21.361   8.593   9.689  0.1235  0.1349  0.2410
11760W        W54854  18.988  10.497   7.422 -0.0271  0.3432 -0.0989
11761W        W54855  18.327   9.680   9.486  0.1416 -0.0492 -0.1198
11762W        W54856  17.521  11.067   9.181  0.1768 -0.0955 -0.1123
11763W        W54857  17.770   7.681   8.159  0.0827 -0.1632  0.3634
11764W        W54858  20.135   9.388   9.384  0.1497 -0.0096  0.2840
11765W        W54859  19.133   5.142  10.011  0.1565 -0.0827  0.1573
11766W        W54860  19.510  10.037   7.720 -0.0592  0.2478  0.3055
11767W        W54861  22.192   8.599   9.186 -0.5227 -0.3171 -0.3265
11768W        W54862  20.032   8.079   9.115  0.0991  0.2083  0.1374
11769W        W54863  17.694   6.488   8.911 -0.0579 -0.0357 -0.0336
11770W        W54864  19.555   8.113   8.223  0.1738 -0.0896  0.1648
11771W        W54865  20.939   9.071   8.265  0.0335  0.1502  0.3515
11772W        W54866  19.289   8.167   8.748 -0.1953  0.0994 -0.2795
11773W        W54867  20.105   8.440   6.531 -0.1861 -0.2441  0.0088
11774W        W54868  18.297   9.798   7.865 -0.3540  0.0288  0.0210
11775W        W54869  18.501  11.047   9.194 -0.2490 -0.1605 -0.2572
11776W        W54870  17.669   6.334   7.671 -0.1027  0.1582 -0.1804
11777W        W54871  22.041   9.509   8.818  0.0058  0.5211 -0.1976
11778W        W54872  21.539   8.989   9.348  0.2691  0.0864 -0.1280
11779W        W54873  19.081  10.999   6.569 -0.3770  0.1183  0.0275
11780W        W54874  21.230   9.819   8.494  0.3448 -0.3217 -0.1365
11781W        W54875  21.445  11.778   9.105  0.1205  0.1795 -0.3195
11782W        W54876  18.595   9.277   8.925 -0.0008  0.1338 -0.5352
11783W        W54877  22.942  10.198  10.454 -0.2721  0.1059 -0.1671
11784W        W54878  22.297  10.525   9.644 -0.1972  0.2436  0.0559
11785W        W54879  18.720   8.389   9.439 -0.2015  0.0884  0.2095
11786W        W54880  19.336   9.001   7.820  0.0985 -0.1028  0.1471
11787W        W54881  18.223  11.148   6.089  0.1917 -0.0764 -0.1204
11788W        W54882  20.665   9.598   9.510 -0.0979 -0.1271  0.1373
11789W        W54883  21.082  11.941   5.864 -0.0206 -0.0829 -0.3897
11790W        W54884  20.955   9.926  10.127  0.1561  0.0277 -0.0402
11791W        W54885  19.380  10.154   6.422  0.0063  0.3269  0.0350
11792W        W54886  20.569  10.368   8.449  0.1268  0.1954  0.1579
11793W        W54887  20.680  10.488   7.926  0.1747  0.1315 -0.1603
11794W        W54888  21.030  10.682   8.296 -0.2418 -0.0138 -0.1678
11795W        W54889  19.906   9.759   9.169 -0.3889 -0.0330  0.3877
11796W        W54890  20.936  10.886   9.646 -0.0219  0.1348 -0.1456
11797W        W54891  16.932   5.290  10.239 -0.1998  0.0686 -0.1007
11798W        W54892  21.111   8.315   9.261 -0.2173 -0.0691  0.0456
11799W        W54893  20.616   8.670   7.399  0.1184  0.1515 -0.1021
11800W        W54894  19.832   8.989   9.751  0.1166  0.2321  0.0015
11801W        W54895  18.160   9.357   9.088  0.1356 -0.2424 -0.1298
11802W        W54896  19.067   9.431   7.593 -0.0164  0.0795  0.0685
11803W        W54897  19.564  10.133   8.692 -0.1889 -0.2677 -0.2400
11804W        W54898  17.994  10.134   8.744 -0.0909  0.2181  0.0715
11805W        W54899  18.747   7.859   8.603  0.2522  0.1437 -0.0481
11806W        W54900  22.271  10.111   7.752 -0.0187 -0.2638 -0.2454
11807W        W54901  18.992   8.736   8.154 -0.0427  0.1979 -0.1203
11808W        W54902  17.850   8.058   7.823 -0.0264  0.0187 -0.0408
11809W        W54903  22.025   9.521   7.710 -0.1460 -0.1042 -0.3576
11810W        W54904  19.937  10.249   7.376  0.0637 -0.1787 -0.1428
11811W        W54905  19.997   7.298   8.406 -0.0357  0.2442  0.1105
11812W        W54906  20.001   9.105   7.605  0.2801 -0.2614 -0.1964
11813W        W54907  17.648   8.484   8.008 -0.0404  0.1070  0.0212
11814W        W54908  19.084   8.045   9.234 -0.0487  0.0606  0.2761
11815W        W54909  21.788  11.065   7.661 -0.2933 -0.0687 -0.0800
11816W        W54910  20.392  12.788   5.882  0.0585 -0.3064 -0.0484
11817W        W54911  16.402   5.248  10.157 -0.0292 -0.1518 -0.0237
11818W        W54912  20.946   8.248   8.660  0.0423  0.2864  0.3400
11819W        W54913  22.582   9.982   6.844  0.2088 -0.0475  0.1014
11820W        W54914  21.484   8.394   8.426 -0.0250 -0.2373  0.0786
11821W        W54915  20.873   9.045   7.237 -0.3174  0.0280 -0.0189
11822W        W54916  21.832  11.631   9.898 -0.0891  0.1329 -0.0247
11823W        W54917  19.948   7.787   8.257 -0.3074  0.1934 -0.0865
11824W        W54918  20.270   8.575   7.043  0.1719  0.0854  0.1683
11825W        W54919  21.735  10.047   7.746  0.0941 -0.0963 -0.1808
11826W        W54920  19.140   9.220   9.237  0.1619  0.2041 -0.3432
11827W        W54921  20.308   9.033   8.114 -0.0947 -0.0815  0.2672
11828W        W54922  20.129  10.352   8.023 -0.3120  0.0580 -0.0835
11829W        W54923  18.962  10.065   6.064  0.3783  0.0235  0.0024
11830W        W54924  22.273   9.947   8.745  0.0484 -0.0156 -0.4022
11831W        W54925  21.639   8.496   9.194 -0.0188 -0.1565  0.0194
11832W        W54926  19.599  11.192   8.037 -0.0617  0.2425  0.1419
11833W        W54927  19.944   9.701   8.657 -0.1268 -0.3304  0.0547
11834W        W54928  19.549   7.059  10.082 -0.1346 -0.0417 -0.1070
11835W        W54929  19.232   9.282   6.630 -0.2267 -0.1294  0.0034
11836W        W54930  20.842  10.072   9.410 -0.0675 -0.0886 -0.2158
11837W        W54931  23.465   9.884   9.589 -0.0327  0.2195  0.0213
11838W        W54932  19.879   8.702   8.525  0.1907 -0.1029  0.0003
11839W        W54933  21.443   8.608   6.891 -0.1896 -0.0296 -0.0123
11840W        W54934  20.096   9.729   9.725 -0.0777  0.0649  0.1593
11841W        W54935  20.382   7.339   9.526 -0.2302  0.0545  0.1036
11842W        W54936  17.308  13.911   1.278  0.0082  0.0355  0.0177
11843W        W54937  18.349  13.078  31.401 -0.1763  0.0228 -0.0704
11844W        W54938  21.365  11.140  31.630 -0.2282  0.3218 -0.0151
11845W        W54939  20.421  13.070  31.874  0.1088 -0.0380 -0.3014
11846W        W54940  18.441  11.386   1.514 -0.2472  0.1480  0.0926
11847W        W54941  20.280  14.316   0.180  0.2226 -0.0091 -0.0253
11848W        W54942  18.536  11.837   2.341 -0.1504  0.2673 -0.1534
11849W        W54943  17.858  13.620  30.748  0.0618  0.1165 -0.3196
11850W        W54944  20.711  15.180   1.281  0.0237 -0.4707 -0.2386
11851W        W54945  20.161  13.485  31.879  0.3544  0.4076 -0.2034
11852W        W54946  19.740  12.735   2.005 -0.1306  0.2864  0.2155
11853W        W54947  18.043  12.753   1.066 -0.2023 -0.0994  0.1980
11854W        W54948  19.709  12.065   1.540  0.0154  0.0287  0.2990
11855W        W54949  18.299  11.444   0.134  0.0634  0.2665  0.0323
11856W        W54950  21.495  13.311   1.242 -0.5120  0.3170  0.0573
11857W        W54951  18.396  13.810   0.495 -0.1486 -0.1213  0.2820
11858W        W54952  17.469  13.625   1.685  0.1361 -0.1904  0.0544
11859W        W54953  18.408  12.245  31.258  0.1243 -0.0482 -0.1193
11860W        W54954  19.233  13.426  31.563  0.0075  0.2986  0.2404
11861W        W54955  19.332  12.079   2.081 -0.2231  0.0474  0.0782
11862W        W54956  18.968  12.863   3.049  0.2054  0.2826  0.2950
11863W        W54957  19.253  12.492  31.782  0.3822  0.2210  0.1519
11864W        W54958  19.586  13.790  30.230 -0.0098 -0.0253 -0.1670
11865W        W54959  17.796  12.368   0.806 -0.0126 -0.2305  0.2212
11866W        W54960  19.063  13.172   0.871 -0.2905  0.0727 -0.2710
11867W        W54961  20.964  12.586   1.271  0.2997  0.0217 -0.0205
11868W        W54962  20.435  12.634   1.059  0.1002 -0.1397 -0.0864
11869W        W54963  17.682  14.163   1.069  0.2070  0.0905 -0.0179
11870W        W54964  18.833  14.964   1.209 -0.0252  0.1177  0.0530
11871W        W54965  21.572  12.246   3.279  0.0582  0.2266  0.2613
11872W        W54966  18.157  14.481   0.233  0.2573  0.3780 -0.0213
11873W        W54967  17.208  14.480   0.344  0.1276 -0.3427  0.0108
11874W        W54968  18.559  12.906   0.474 -0.1083 -0.0462 -0.2876
11875W        W54969  21.159  14.149   0.940 -0.0676 -0.1381  0.3228
11876W        W54970  19.989  13.611   2.471 -0.1614  0.0281 -0.0867
11877W        W54971  18.310  13.431   3.426 -0.0060  0.0935  0.2224
11878W        W54972  17.435  13.893  30.740  0.1908  0.3844 -0.2618
11879W        W54973  20.302  13.817   3.081  0.3484 -0.0328 -0.2382
11880W        W54974  18.043  13.769   2.251  0.0724  0.0851  0.0506
11881W        W54975  19.840  12.561   2.512 -0.0509 -0.1561  0.1111
11882W        W54976  20.214  12.565   2.152 -0.3769 -0.0985 -0.2318
11883W        W54977  19.432  13.131  31.938  0.0531  0.0033 -0.1223
11884W        W54978  20.158  13.635   1.618 -0.2159  0.1593 -0.2063
11885W        W54979  18.080  12.565   2.074 -0.1894  0.0231  0.0628
11886W        W54980  17.395  12.725   0.631 -0.3250  0.1455  0.1234
11887W        W54981  22.701  12.916   3.952  0.1819 -0.0234 -0.2624
11888W        W54982  19.184  13.674  31.090  0.1157  0.0991  0.2753
11889W        W54983  19.159  12.497  31.265 -0.0622 -0.0076  0.1915
11890W        W54984  18.951  10.750   0.426 -0.1324 -0.0566 -0.0507
11891W        W54985  20.745  12.998   0.992  0.1626  0.1586  0.1056
11892W        W54986  20.278  11.431  31.529 -0.3163  0.1097  0.4285
11893W        W54987  18.823  14.466  31.705 -0.3064 -0.0609  0.1089
11894W        W54988  18.368  12.338   1.197 -0.0619  0.0198  0.0880
11895W        W54989  22.443  13.119   3.443 -0.0696 -0.2308 -0.0813
11896W        W54990  20.000  12.390   0.907 -0.0993  0.0518  0.4540
11897W        W54991  21.284  11.978   1.052 -0.3264  0.2182  0.0455
11898W        W54992  17.862  13.391   1.924 -0.0170  0.2074  0.0456
11899W        W54993  18.417  12.088   0.232  0.1921 -0.1024 -0.1629
11900W        W54994  20.434  13.404  30.209  0.0985  0.1379 -0.1698
11901W        W54995  22.508  13.530   0.498 -0.2192 -0.0443  0.1524
11902W        W54996  19.575  14.344  31.147  0.0657  0.1309 -0.0426
11903W        W54997  16.144  11.903   1.846  0.4072 -0.1639  0.0291
11904W        W54998  16.466  13.762   3.095  0.0113  0.1620  0.2453
11905W        W54999  18.733  12.624   1.017  0.0336 -0.5405 -0.1961
11906W        W55000  20.254  11.824  31.175 -0.0897 -0.0927 -0.1323
11907W        W55001  21.278  14.246   4.213  0.2086 -0.0213 -0.2827
11908W        W55002  16.998  16.074   2.646  0.0438  0.1712 -0.1781
11909W        W55003  21.686  11.366   2.228  0.1468  0.1394  0.1667
11910W        W55004  18.589  14.363   0.675 -0.3198 -0.1460 -0.0804
11911W        W55005  19.618  13.551   0.071 -0.3203 -0.0075  0.4022
11912W        W55006  20.907  13.865   0.377  0.3471 -0.0407  0.0177
11913W        W55007  19.788   9.807   2.732  0.2849  0.1579 -0.2944
11914W        W55008  20.747  10.091   3.050  0.0546  0.2778  0.0983
11915W        W55009  19.445  12.169  30.100  0.2413 -0.2923 -0.1352
11916W        W55010  20.152  11.558   0.012  0.0108  0.0450 -0.3219
11917W        W55011  21.401  13.402   2.322  0.1481  0.0246  0.0596
11918W        W55012  21.722  13.015   0.536  0.1892  0.0757  0.1291
11919W        W55013  17.731  14.709   1.430 -0.1760  0.0993  0.0105
11920W        W55014  17.209  12.656   1.970 -0.2707 -0.3827  0.0313
11921W        W55015  20.422  14.921   3.088  0.0989  0.0090  0.1484
11922W        W55016  17.339  14.223  31.573 -0.0342 -0.1474  0.1476
11923W        W55017  16.141  14.353   1.715 -0.3534  0.1262  0.1619
11924W        W55018  20.020  13.207  30.939  0.3598  0.2498 -0.0935
11925W        W55019  18.500  12.330   2.470 -0.0630  0.0699  0.0940
11926W        W55020  19.022  14.465   1.117  0.1743 -0.0744  0.0200
11927W        W55021  20.172  13.068   0.847  0.0620  0.2620 -0.0836
11928W        W55022  16.831  12.834   2.697  0.2322 -0.0606  0.1567
11929W        W55023  20.523  10.534   2.761  0.5348  0.0321 -0.2440
11930W        W55024  17.910  12.819  31.554  0.4476  0.1192 -0.0120
11931W        W55025  20.181  15.522  31.501  0.0069 -0.2447 -0.2812
11932W        W55026  18.558  13.557  31.511  0.2383  0.3071 -0.0798
11933W        W55027  19.845  14.692  31.393 -0.0776  0.2497  0.1501
11934W        W55028  17.977  12.079   1.600  0.0802 -0.0615 -0.0231
11935W        W55029  17.708  11.750  30.553 -0.1868  0.0010 -0.0300
11936W        W55030  18.452  12.955   3.224 -0.4194  0.0123 -0.1316
11937W        W55031  18.413  11.880   1.506  0.2097  0.1892  0.1685
11938W        W55032  20.558  14.752   2.565  0.1838  0.0848 -0.1151
11939W        W55033  19.520  11.974  31.675  0.5581  0.0637 -0.2302
11940W        W55034  20.056  10.671   1.704  0.4014  0.0059 -0.0564
11941W        W55035  19.585  13.129   1.031 -0.0838 -0.0725 -0.3078
11942W        W55036  18.424  12.743   0.029 -0.0779  0.3286 -0.4106
11943W        W55037  20.641  12.287   4.703 -0.2490 -0.1040 -0.0499
11944W        W55038  17.152  13.579   0.001 -0.1360 -0.2537  0.0488
11945W        W55039  20.216  14.669   1.565  0.0735 -0.2509 -0.1843
11946W        W55040  20.638  14.252   1.396 -0.3218 -0.0484  0.0405
11947W        W55041  17.794  11.362   2.185 -0.1281 -0.2553  0.1395
11948W        W55042  17.508  11.433  30.019 -0.2228  0.2786 -0.2134
11949W        W55043  17.676  14.465   0.046 -0.1380 -0.2285  0.1974
11950W        W55044  18.664  13.824  31.110 -0.1896 -0.4967 -0.0640
11951W        W55045  18.144  12.425  30.705  0.0899  0.0037  0.1411
11952W        W55046  21.066  14.408   1.566 -0.2833  0.0817 -0.0672
11953W        W55047  19.119  12.019   0.668 -0.2275 -0.0872  0.0271
11954W        W55048  18.289  14.773   1.964 -0.0986 -0.1426 -0.0651
11955W        W55049  21.281  12.005   2.963 -0.2432 -0.2295 -0.1014
11956W        W55050  21.164  13.962   2.336  0.0785  0.2688 -0.1870
11957W        W55051  19.819  11.299   1.009  0.1079  0.2816  0.0614
11958W        W55052  18.251  11.631  31.320  0.2001  0.1592 -0.0704
11959W        W55053  18.962  13.817  31.813 -0.0830  0.1062  0.1733
11960W        W55054  17.922  14.797  30.780 -0.3185 -0.3027 -0.2287
11961W        W55055  18.264  12.998   1.775 -0.0498  0.2634  0.0984
11962W        W55056  18.098  13.176  31.856  0.1500 -0.2262 -0.4743
11963W        W55057  20.915  11.942   2.477 -0.4344 -0.0984 -0.0258
11964W        W55058  18.096  12.560   1.529  0.2145  0.1452 -0.0940
11965W        W55059  19.992  12.424   1.707  0.2966 -0.2015  0.1341
11966W        W55060  19.247  12.127   0.183 -0.0340 -0.4236  0.1390
11967W        W55061  17.195  13.983   2.453 -0.3520  0.1064  0.0325
11968W        W55062  20.187  11.199   1.528  0.1458  0.2646  0.0267
11969W        W55063  21.267  11.196   1.716 -0.0583  0.3162  0.1121
11970W        W55064  19.961  14.061   2.744 -0.1222 -0.0567 -0.0905
11971W        W55065  20.770  13.411   0.613 -0.1409 -0.1617 -0.2090
11972W        W55066  20.143  10.924  31.240  0.1309 -0.1102  0.0191
11973W        W55067  20.800  10.252  31.480  0.2375 -0.4004 -0.1374
11974W        W55068  16.846  14.265   2.228  0.0351  0.2165 -0.1132
11975W        W55069  18.205  13.230   0.824 -0.1889  0.0185  0.0156
11976W        W55070  19.165  13.076   0.361 -0.0187  0.0377  0.3182
11977W        W55071  19.725  11.873   0.269 -0.1169  0.0472  0.1520
11978W        W55072  20.137  15.004  29.762 -0.3654 -0.0148 -0.1929
11979W        W55073  17.845  14.992   1.874 -0.1758 -0.3268 -0.1987
11980W        W55074  19.545  12.686   1.280  0.0584 -0.4018 -0.4889
11981W        W55075  18.683  13.172  31.848  0.4920  0.1048 -0.6278
11982W        W55076  20.384  13.152   1.339  0.0236 -0.3099 -0.0956
11983W        W55077  19.410  11.121  31.609 -0.0999 -0.0264 -0.2363
11984W        W55078  19.270  10.991   1.644  0.0310  0.0310 -0.2006
11985W        W55079  17.495  15.069  30.681 -0.2872  0.0507 -0.0934
11986W        W55080  20.176  11.310   3.113  0.0760  0.0626 -0.0945
11987W        W55081  19.428  11.182   3.194 -0.2224 -0.2652  0.1613
11988W        W55082  18.415  11.185   3.394 -0.1749 -0.2577 -0.1664
11989W        W55083  21.099  12.798   4.305  0.0569 -0.1405  0.0742
11990W        W55084  20.947  12.725  30.712  0.2683 -0.0240 -0.1869
11991W        W55085  17.715  11.532   1.683 -0.0895  0.3288  0.0181
11992W        W55086  18.922  11.597   0.988  0.3143  0.1120  0.0470
11993W        W55087  18.901  12.095   1.130 -0.0579 -0.1445 -0.3843
11994W        W55088  17.351  13.156   1.843 -0.0596  0.3844 -0.3790
11995W        W55089  16.912  15.439   1.288 -0.1787  0.2157  0.3559
11996W        W55090  19.707  13.088   2.546 -0.2432 -0.1847 -0.1420
11997W        W55091  19.122  14.186   0.521  0.1506 -0.1131  0.1718
11998W        W55092  21.136  12.438   3.233 -0.0881 -0.2123  0.0965
11999W        W55093  18.746  12.385  31.887 -0.1123 -0.2518  0.2484
12000W        W55094  18.515  14.789   0.433 -0.3602 -0.1711 -0.1382
12001W        W55095  18.521  13.647   0.042  0.1201 -0.0388  0.4244
12002W        W55096  19.438  11.689   1.424  0.0786 -0.2035  0.1062
12003W        W55097  18.032  14.519   1.114 -0.1885  0.2751  0.0939
12004W        W55098  18.550  14.199  31.374 -0.4022  0.0556  0.1266
12005W        W55099  20.161  14.251   2.346  0.0571 -0.3028 -0.1899
12006W        W55100  19.889  13.205   1.441 -0.0087 -0.0495  0.2209
12007W        W55101  20.058  10.556   2.188  0.0800 -0.1745 -0.0154
12008W        W55102  17.816  15.507   1.807 -0.0717 -0.2138  0.1067
12009W        W55103  18.849  13.371  30.812 -0.1774 -0.0119 -0.2465
12010W        W55104  16.666  12.854   0.750  0.0527 -0.2111 -0.0301
12011W        W55105  20.257  11.032   2.114 -0.1907 -0.0395 -0.0212
12012W        W55106  21.432  13.728  31.566  0.2463  0.1541  0.1159
12013W        W55107  17.615  11.859   2.505 -0.1312  0.5857 -0.0258
12014W        W55108  18.858  11.442   2.336  0.0783 -0.0935 -0.0847
12015W        W55109  17.218  15.661   1.730  0.0102  0.1279  0.0255
12016W        W55110  20.420  11.687   1.669  0.4470 -0.3061 -0.0566
12017W        W55111  19.664  10.853   1.973  0.4365  0.2098  0.1410
12018W        W55112  19.013  14.048   1.737  0.0588  0.0179 -0.0480
12019W        W55113  19.058  12.553   1.449  0.3547 -0.0793  0.1416
12020W        W55114  18.813  11.675   0.503 -0.1507  0.0039  0.2222
12021W        W55115  20.438  12.121   0.873  0.1065  0.1747  0.3134
12022W        W55116  19.695  11.298   0.042  0.0050  0.2642  0.4237
12023W        W55117  17.851  14.150  31.668 -0.2808  0.0934  0.1030
12024W        W55118  19.650  14.776   2.112  0.3882 -0.0165  0.2278
12025W        W55119  18.280  11.797  30.375 -0.3905  0.0893  0.3678
12026W        W55120  16.511  13.662   1.207 -0.2647  0.0481 -0.3319
12027W        W55121  17.242  13.276   3.209  0.1030 -0.1572  0.0536
12028W        W55122  20.618  13.212   1.814 -0.0775  0.3071  0.1692
12029W        W55123  19.300  11.294   1.128 -0.1872  0.2918 -0.1547
12030W        W55124  18.587  12.142   0.705  0.1198  0.1475  0.1239
12031W        W55125  19.889  11.990   2.614  0.1707 -0.0356 -0.0570
12032W        W55126  20.350  13.685   2.115 -0.1426  0.0595 -0.4762
12033W        W55127  20.426  11.762   2.388  0.0269  0.1281 -0.0918
12034W        W55128  17.433  14.286   1.533  0.0831  0.3168 -0.0400
12035W        W55129  18.319  11.334   2.329  0.0672  0.2910  0.0154
12036W        W55130  21.190  14.638   1.004  0.0732  0.0419  0.0934
12037W        W55131  21.239  13.685   2.860 -0.0418 -0.4628 -0.0477
12038W        W55132  18.238  11.829  31.812 -0.0074  0.0832 -0.1107
12039W        W55133  17.195  11.499   3.195 -0.3239 -0.0943 -0.2085
12040W        W55134  18.839  14.304  30.895  0.1025 -0.1289 -0.1797
12041W        W55135  19.796  12.235   2.132  0.2819  0.0377  0.1519
12042W        W55136  19.051  13.669   0.334 -0.0294  0.0659  0.0423
12043W        W55137  19.444  13.491   0.619 -0.2037 -0.1507  0.1069
12044W        W55138  17.462  13.970   0.040  0.2380 -0.1782  0.2784
12045W        W55139  21.200  12.708   1.738  0.0824  0.0297 -0.3349
12046W        W55140  19.582  14.124   0.873 -0.0858 -0.0203  0.1379
12047W        W55141  18.191  12.453   0.476 -0.0673 -0.0126 -0.0146
12048W        W55142  21.808  12.052   2.787 -0.1193 -0.0814 -0.1052
12049W        W55143  19.752  12.784   0.726  0.0400  0.2201 -0.1934
12050W        W55144  19.413  12.263   2.626 -0.0692 -0.2228 -0.0777
12051W        W55145  17.989  12.203   2.607 -0.2463 -0.0924  0.1833
12052W        W55146  20.800  13.429   1.183 -0.0885 -0.0617  0.1141
12053W        W55147  17.652  12.837   2.116 -0.0241 -0.2534 -0.0471
12054W        W55148  19.067  13.726   0.836  0.0534 -0.1884 -0.2171
12055W        W55149  17.996  12.014   2.126 -0.0777  0.1765 -0.1904
12056W        W55150  20.044  10.841   2.572  0.1654 -0.0553  0.0847
12057W        W55151  18.583  11.308  31.123  0.0530 -0.1075 -0.2760
12058W        W55152  18.902  12.534   0.456 -0.3495 -0.3362  0.3295
12059W        W55153  20.720  13.744   1.609  0.0633  0.0600  0.0908
12060W        W55154  18.821  14.697  30.330 -0.1474  0.1113  0.1881
12061W        W55155  20.150  12.263   0.371  0.0990 -0.0512 -0.2432
12062W        W55156  18.419  14.935   0.991  0.0406  0.0481  0.1083
12063W        W55157  19.935  11.860   0.786  0.0918  0.0052 -0.1567
12064W        W55158  18.409  14.019  30.714  0.2077 -0.2660  0.0899
12065W        W55159  18.862  13.154  31.354 -0.1540  0.2515 -0.0066
12066W        W55160  19.642  11.547   2.945  0.1448 -0.3398  0.1805
12067W        W55161  20.413  13.848   0.415 -0.2284  0.0211  0.0024
12068W        W55162  19.302  11.489   1.930  0.0241  0.2265  0.1967
12069W        W55163  20.892  10.341   3.523 -0.5002  0.1383 -0.0195
12070W        W55164  20.667  12.304   2.251  0.0586 -0.0128 -0.1281
12071W        W55165  20.759  13.444   3.308  0.1240 -0.2137 -0.3182
12072W        W55166  18.109  12.800   3.960  0.3632  0.1985 -0.2096
12073W        W55167  20.023  15.166   1.806  0.1734  0.0515 -0.2187
12074W        W55168  19.790  12.326   0.049  0.2043  0.0215 -0.0320
12075W        W55169  20.844  12.076   1.227  0.0869  0.2622 -0.2546
12076W        W55170  20.863  14.088   1.917 -0.0210 -0.0112 -0.0591
12077W        W55171  19.081  11.284  30.912 -0.1418  0.0260 -0.4542
12078W        W55172  17.607  13.129   0.859  0.0860  0.1656 -0.2132
12079W        W55173  21.448  13.965   3.239 -0.2787  0.3356  0.2771
12080W        W55174  18.709  11.844  30.996 -0.1319  0.1294  0.2293
12081W        W55175  20.961  11.502   3.260 -0.0565  0.0783  0.0662
12082W        W55176  19.310  13.420  29.363  0.0509  0.2915  0.0645
12083W        W55177  21.267  14.920  31.500  0.1959 -0.0523  0.0072
12084W        W55178  19.190  12.722   0.879 -0.0020  0.2655  0.2228
12085W        W55179  18.457  11.302   1.005  0.2078 -0.0053 -0.2507
12086W        W55180  18.335  13.986   4.156 -0.1844 -0.3246 -0.1966
12087W        W55181  18.533  12.315  30.397 -0.1342 -0.0908 -0.0986
12088W        W55182  20.890  10.679  31.927 -0.0413 -0.0431 -0.1571
12089W        W55183  19.753  13.043   3.109  0.0041 -0.1361 -0.0562
12090W        W55184  21.842  13.121   3.486  0.0204  0.2702 -0.1956
12091W        W55185  20.792  10.056  30.960 -0.0059  0.0438 -0.3112
12092W        W55186  21.261  13.254   4.241  0.0179  0.1615  0.0721
12093W        W55187  17.342  15.013   0.654  0.1589  0.0925 -0.0437
12094W        W55188  20.428  11.028   2.793 -0.0997  0.2022 -0.2059
12095W        W55189  18.744  14.464   1.605 -0.0195  0.1819  0.4223
12096W        W55190  16.765  14.367   2.921 -0.2056  0.0331  0.2805
12097W        W55191  17.653  13.568  31.780  0.0330  0.0849 -0.1313
12098W        W55192  18.954  12.278   2.965 -0.0609 -0.2199  0.0728
12099W        W55193  21.112  11.509   2.750 -0.0777 -0.2455 -0.0696
12100W        W55194  19.116  13.057   1.379 -0.1922  0.0774 -0.1748
12101W        W55195  23.115  11.260   2.529  0.3436 -0.1785  0.0002
12102W        W55196  20.127  13.482   3.422 -0.0029  0.0351  0.4007
12103W        W55197  20.000  12.788   0.285 -0.4052  0.0337 -0.1560
12104W        W55198  19.446  13.561   1.381  0.1521 -0.0890  0.0121
12105W        W55199  21.251  14.977   1.340 -0.0031  0.0299  0.0958
12106W        W55200  18.640  13.470   0.973  0.1783 -0.0307  0.0638
12107W        W55201  18.623  13.186   2.670  0.0720 -0.0242 -0.0478
12108W        W55202  20.176  12.807   2.876 -0.4213  0.5721  0.0413
12109W        W55203  20.281  12.103   2.039  0.0538  0.6550  0.1670
12110W        W55204  18.932  11.142   0.757 -0.3988 -0.4046  0.0500
12111W        W55205  19.834  12.924  31.726  0.1334 -0.2783 -0.0178
12112W        W55206  18.122  16.170   3.501  0.0916 -0.0851 -0.2169
12113W        W55207  16.951  13.584   1.112 -0.2016 -0.0545  0.0874
12114W        W55208  16.920  14.723   0.795  0.1816  0.1087 -0.0751
12115W        W55209  19.848  14.082  30.635  0.1431 -0.2344 -0.2204
12116W        W55210  19.839  13.639   0.992  0.4496  0.1671  0.0431
12117W        W55211  19.363  14.985   1.095  0.2276 -0.1764 -0.1656
12118W        W55212  19.785  11.523  31.589  0.0809  0.0167  0.1171
12119W        W55213  18.993  14.830   0.722  0.0827  0.1871 -0.2074
12120W        W55214  17.955  13.724   0.760  0.1933 -0.4478 -0.0842
12121W        W55215  19.538  13.020  30.772  0.0151 -0.0061  0.4712
12122W        W55216  18.331  14.599  30.425  0.1721  0.0515 -0.2229
12123W        W55217  20.778  14.096   2.968  0.0925  0.0078  0.0376
12124W        W55218  19.879  10.388   0.361 -0.1136 -0.1045 -0.0135
12125W        W55219  21.070  13.925   1.345 -0.1970 -0.1192 -0.1894
12126W        W55220  21.092  13.106   2.015 -0.0450 -0.0233 -0.1184
12127W        W55221  20.674  14.730   3.484 -0.4452  0.0592  0.0945
12128W        W55222  18.581  12.532   1.624  0.1894  0.2400 -0.1163
12129W        W55223  18.718  10.996  30.541 -0.2961  0.1336  0.0589
12130W        W55224  17.667  11.863   3.091 -0.0853  0.1982 -0.0722
12131W        W55225  21.432  11.501   3.929  0.4486 -0.0931 -0.3240
12132W        W55226  17.449  15.211   2.137 -0.0269 -0.0597  0.0542
12133W        W55227  20.332  13.462  30.697 -0.3816  0.1942 -0.0003
12134W        W55228  17.694  10.792   0.639  0.0311 -0.1621  0.1599
12135W        W55229  20.434  11.659   1.107  0.1514  0.0362 -0.0977
12136W        W55230  20.108  10.739   3.042 -0.2875  0.1593  0.1674
12137W        W55231  19.104  14.112  31.367  0.2774 -0.2512 -0.0155
12138W        W55232  20.630  11.293   2.337 -0.2460 -0.1056  0.1212
12139W        W55233  19.372  14.825   0.254 -0.0994  0.0506  0.1758
12140W        W55234  18.524  14.450   1.146 -0.0669  0.0406 -0.2829
12141W        W55235  19.724  14.830   1.464  0.1124 -0.2177 -0.2290
12142W        W55236  18.098  11.136  31.230  0.0239 -0.1519 -0.0049
12143W        W55237  21.120  12.194   2.010  0.4402 -0.0397 -0.0626
12144W        W55238  18.599  12.726   2.093 -0.0879  0.0563  0.2555
12145W        W55239  21.494  11.170   2.715 -0.2282 -0.0505 -0.0601
12146W        W55240  18.779  12.449  30.890  0.3764  0.1653  0.2619
12147W        W55241  20.757  12.699   1.985  0.1379  0.2469  0.0028
12148W        W55242  20.988  12.372   2.735 -0.1675 -0.0051 -0.0478
12149W        W55243  18.932  12.143   2.394  0.1460  0.2777 -0.1452
12150W        W55244  20.474  12.217  31.320 -0.1684  0.0654 -0.2874
12151W        W55245  22.255  13.612   3.272 -0.1775  0.3434 -0.1468
12152W        W55246  20.440  11.225   0.265  0.0164 -0.4221 -0.2295
12153W        W55247  20.729  15.105   2.209 -0.1103 -0.2822 -0.0372
12154W        W55248  18.873  11.649   1.492 -0.1654  0.0648 -0.0677
12155W        W55249  20.035  12.699   1.304 -0.1954  0.1881  0.1158
12156W        W55250  18.091  11.943   0.554  0.2595 -0.2369 -0.3375
12157W        W55251  20.689  12.802   2.518 -0.4426 -0.2184  0.3360
12158W        W55252  21.044  14.790   2.482  0.1320 -0.2380  0.0741
12159W        W55253  17.349  11.450   0.181  0.2020  0.3109  0.0422
12160W        W55254  20.122  13.812  30.263  0.0763 -0.0996  0.2703
12161W        W55255  20.766  12.956   3.382  0.0734  0.0259  0.0962
12162W        W55256  18.343  15.046  30.950 -0.1514 -0.3490  0.0606
12163W        W55257  20.745  13.879   0.906  0.0484  0.1480 -0.0096
12164W        W55258  19.898  14.001   0.030  0.3887 -0.1022  0.3044
12165W        W55259  18.774  12.585   3.387 -0.0019 -0.2321 -0.4525
12166W        W55260  20.372  14.603   0.978  0.1185  0.0955 -0.2725
12167W        W55261  19.821  14.000   1.348 -0.2703 -0.1929 -0.0921
12168W        W55262  19.934  11.719   1.255  0.4322 -0.0012 -0.2596
12169W        W55263  17.807  11.594  31.886  0.1444 -0.2117 -0.1185
12170W        W55264  17.429  14.592   0.882  0.2644  0.0790 -0.1796
12171W        W55265  20.543  10.815   1.690 -0.2640 -0.4076  0.1349
12172W        W55266  21.812  12.616   3.624 -0.3608  0.2386 -0.0348
12173W        W55267  17.861  13.315  31.279  0.0737 -0.1334  0.0821
12174W        W55268  20.691  12.131   1.746 -0.1031 -0.0551 -0.0635
12175W        W55269  18.923  13.591   1.440  0.0946 -0.2051 -0.1970
12176W        W55270  18.193  14.386   1.572 -0.0174 -0.0948  0.3652
12177W        W55271  18.017  12.924   0.478  0.2034 -0.0617  0.2543
12178W        W55272  19.509  13.010   1.676 -0.0825  0.2460 -0.1346
12179W        W55273  20.252  13.074   2.188  0.3521 -0.1403 -0.1410
12180W        W55274  19.825  13.342   1.975 -0.2082 -0.0452  0.2907
12181W        W55275  19.560  13.816   1.858  0.0758 -0.3348 -0.2908
12182W        W55276  19.330  11.750   2.465  0.0332 -0.3359  0.0729
12183W        W55277  21.201  14.411   2.111 -0.2004  0.3226  0.2023
12184W        W55278  19.228  10.727   1.155 -0.0492 -0.0780  0.1504
12185W        W55279  20.180  11.501   2.081 -0.3892  0.0979  0.0452
12186W        W55280  20.473  10.622  31.564  0.1065  0.2900  0.0589
12187W        W55281  20.128  12.906   1.740  0.1651  0.1951 -0.2334
12188W        W55282  17.933  11.986  31.472 -0.0133  0.0244  0.0540
12189W        W55283  19.198  13.016  29.912  0.1097  0.0701 -0.2092
12190W        W55284  17.727  15.254  31.780 -0.1508 -0.3435 -0.2353
12191W        W55285  19.328  12.192   4.077  0.0676 -0.2241  0.1747
12192W        W55286  18.509  13.042   1.291 -0.0346  0.1051 -0.0007
12193W        W55287  17.622  12.363   1.809 -0.0696 -0.1283 -0.4401
12194W        W55288  19.665  12.191  31.038 -0.0499  0.1345 -0.1411
12195W        W55289  19.237  14.625  30.697 -0.1282  0.2499 -0.0285
12196W        W55290  18.810  11.278   1.797 -0.1372  0.0339  0.2782
12197W        W55291  18.953  12.062  31.534 -0.1704 -0.0495 -0.2061
12198W        W55292  20.534  13.612  31.552  0.0350  0.2304  0.0030
12199W        W55293  19.924  14.460   1.173  0.2579  0.0313 -0.1365
12200W        W55294  19.180  12.036   1.638 -0.0345 -0.1795  0.1819
12201W        W55295  20.010  14.772   2.529 -0.2399 -0.0677  0.0245
12202W        W55296  18.649  13.406   0.494 -0.0288  0.0708 -0.2158
12203W        W55297  20.592  11.566   4.119  0.0926 -0.4527 -0.0714
12204W        W55298  19.192  12.074   3.495  0.0945  0.1768  0.0983
12205W        W55299  17.116  12.343   1.588 -0.0045 -0.0651 -0.2432
12206W        W55300  19.791  11.735   1.941 -0.0286 -0.1506  0.0325
12207W        W55301  19.537  13.326  31.126  0.0017  0.0196 -0.0393
12208W        W55302  20.118  14.635  30.223  0.1776 -0.2476 -0.0782
12209W        W55303  19.383  13.015   2.186  0.2025 -0.2911  0.1685
12210W        W55304  18.879  16.000   2.300  0.0546  0.4884 -0.0181
12211W        W55305  18.212  10.760   3.005 -0.2609 -0.0628 -0.1000
12212W        W55306  21.131  12.629   2.303  0.2883  0.2569  0.0827
12213W        W55307  18.719  13.207   1.741 -0.1264 -0.2652 -0.0906
12214W        W55308  20.276  14.131   1.715 -0.3076 -0.1207  0.2695
12215W        W55309  21.249  11.471   1.164 -0.1970 -0.0423 -0.2323
12216W        W55310  19.403  12.160   1.144 -0.0179 -0.2720  0.3334
12217W        W55311  18.860  13.621   4.215  0.0179 -0.0198 -0.0674
12218W        W55312  17.954  13.225   1.274 -0.2706  0.1233 -0.0321
12219W        W55313  20.456  13.374   2.498  0.0693  0.0490 -0.3308
12220W        W55314  19.274  10.247   1.042  0.0470  0.0634  0.1593
12221W        W55315  20.572  12.578   1.562 -0.1269 -0.0666  0.3413
12222W        W55316  20.752  14.154  30.839  0.1094  0.2062 -0.1474
12223W        W55317  17.783  13.707   1.288  0.3938  0.0526 -0.0165
12224W        W55318  19.784  11.307  30.346  0.0231  0.1019  0.1185
12225W        W55319  20.432  13.929   2.620  0.3672  0.0220 -0.3564
12226W        W55320  18.944  12.353   1.943 -0.0293 -0.0083  0.2289
12227W        W55321  19.833  14.326   1.726 -0.1628  0.2057  0.1905
12228W        W55322  20.505  12.508  30.863 -0.3016 -0.0770  0.0652
12229W        W55323  20.325  13.549   0.834 -0.4259  0.2228 -0.0799
12230W        W55324  20.741  14.303   2.428 -0.2252  0.1193  0.2795
12231W        W55325  21.740  13.595   3.029  0.2650  0.1348  0.1585
12232W        W55326  19.264  14.418   1.945  0.1988 -0.0697 -0.0820
12233W        W55327  20.110  11.459   2.605  0.1233 -0.3596 -0.0707
12234W        W55328  17.001  11.152   2.891  0.0399  0.0980  0.3478
12235W        W55329  20.361  13.876   1.256 -0.3170  0.2373 -0.0033
12236W        W55330  20.276  12.158   1.381  0.3867 -0.1296 -0.0412
12237W        W55331  21.537  11.814   3.526 -0.1711 -0.2666 -0.0344
12238W        W55332  19.341  11.454   0.417  0.2856 -0.1735 -0.0022
12239W        W55333  19.618  12.220   0.619 -0.2519  0.3562  0.0517
12240W        W55334  19.060  12.844   1.842  0.1143  0.0180  0.0931
12241W        W55335  19.416  14.270   1.405  0.0514  0.0540 -0.0371
12242W        W55336  20.075  14.912   5.636  0.1366  0.1671 -0.0711
12243W        W55337  18.992  13.036   3.520 -0.0555  0.2104 -0.2915
12244W        W55338  21.179  13.204   3.278 -0.1818  0.3702 -0.2440
12245W        W55339  20.895  13.293   4.728  0.1166 -0.2629  0.0035
12246W        W55340  18.258  12.150   4.780 -0.3629  0.2019  0.4515
12247W        W55341  20.930  15.550   3.012 -0.2809 -0.0745  0.3814
12248W        W55342  19.747  10.944   6.231 -0.1060 -0.3650 -0.4777
12249W        W55343  21.436  13.770   6.236  0.0323 -0.1543 -0.0738
12250W        W55344  21.366  15.471   5.630  0.0387  0.2688  0.1408
12251W        W55345  20.137  13.369   2.920 -0.0036  0.0284  0.0328
12252W        W55346  19.287  14.349   5.938 -0.1524 -0.0380 -0.3932
12253W        W55347  18.666  15.366   5.802 -0.0234  0.3811 -0.0663
12254W        W55348  18.803  13.546   3.643 -0.1234 -0.0282 -0.1835
12255W        W55349  19.101  11.261   5.501 -0.2459 -0.1039 -0.1190
12256W        W55350  19.834  12.865   5.415  0.0398 -0.1488  0.2493
12257W        W55351  17.375  13.237   1.276  0.0112 -0.0215 -0.2080
12258W        W55352  18.986  11.539   6.028  0.2227  0.2502 -0.0878
12259W        W55353  20.400  12.788   3.817 -0.1144  0.0941 -0.2838
12260W        W55354  19.975  15.045   2.917  0.2497 -0.0459  0.2322
12261W        W55355  19.555  14.399   6.428 -0.1704 -0.3133 -0.0329
12262W        W55356  20.223  11.620   6.649  0.0416 -0.2766  0.2034
12263W        W55357  19.493  13.892   2.570  0.0845 -0.3555 -0.1802
12264W        W55358  18.243  13.479   1.616 -0.1715 -0.4119 -0.0661
12265W        W55359  18.592  13.199   5.724  0.0053  0.4647 -0.0883
12266W        W55360  18.831  12.437   5.319  0.0433 -0.0251  0.1056
12267W        W55361  21.591  12.830   5.633 -0.2219  0.1153 -0.0117
12268W        W55362  21.789  12.734   5.111 -0.1565  0.0876  0.0138
12269W        W55363  18.685  14.391   4.184  0.0993  0.4093 -0.0931
12270W        W55364  20.294  13.868   4.596  0.1180  0.1879 -0.1546
12271W        W55365  22.528  12.658   6.218 -0.1030 -0.0540  0.3793
12272W        W55366  18.684  14.369   3.532  0.1614  0.2143  0.0020
12273W        W55367  17.634  15.385   3.992 -0.2251  0.0559  0.1452
12274W        W55368  18.815  14.403   3.004  0.2103  0.0029  0.2275
12275W        W55369  23.166  12.584   4.873 -0.4498  0.0070  0.0826
12276W        W55370  21.692  14.297   5.574 -0.4436 -0.0718 -0.2143
12277W        W55371  19.211  14.492   7.738 -0.0162  0.0350 -0.1986
12278W        W55372  18.528  15.328   3.265  0.0147 -0.0855  0.1022
12279W        W55373  19.916  14.383   5.282  0.0072 -0.5042  0.1092
12280W        W55374  18.761  13.849   6.448 -0.0040  0.1744  0.1093
12281W        W55375  20.461  15.132   5.050  0.2973  0.0321 -0.0108
12282W        W55376  18.778  13.249   4.581  0.3118  0.0538  0.1989
12283W        W55377  17.951  12.784   3.147 -0.0421  0.1414  0.0805
12284W        W55378  18.934  13.988   3.361 -0.1258  0.0489 -0.1830
12285W        W55379  19.806  13.895   6.589  0.3612 -0.1187 -0.1874
12286W        W55380  17.883  14.148   3.663  0.0528  0.1915  0.0723
12287W        W55381  22.307  12.453   6.789  0.0044  0.3147  0.2078
12288W        W55382  17.489  13.431   2.316  0.1995 -0.1710 -0.1233
12289W        W55383  20.843  13.535   2.216  0.4636 -0.0324 -0.0904
12290W        W55384  19.490  12.758   2.807 -0.0278 -0.0328 -0.1602
12291W        W55385  21.070  12.838   2.907 -0.2855  0.2840 -0.3986
12292W        W55386  19.253  12.021   5.013 -0.1041  0.1606 -0.1637
12293W        W55387  18.433  16.501   3.826 -0.0607  0.0309 -0.0844
12294W        W55388  18.746  12.906   5.239 -0.0537 -0.1050  0.2266
12295W        W55389  20.515  14.083   7.168  0.1063  0.0998  0.1728
12296W        W55390  20.207  13.806   3.933 -0.1768  0.1526 -0.1367
12297W        W55391  20.641  11.956   5.118  0.0532  0.1242  0.2542
12298W        W55392  17.897  15.150   3.573 -0.1453 -0.3030  0.0624
12299W        W55393  17.655  13.857   5.092  0.0664  0.0682  0.0835
12300W        W55394  21.370  14.722   4.199 -0.1028 -0.0830  0.1615
12301W        W55395  22.389  14.623   3.882  0.3241 -0.0638  0.0309
12302W        W55396  19.998  15.076   3.407 -0.2376 -0.2541 -0.0257
12303W        W55397  18.622  12.627   3.897  0.1079 -0.2640 -0.1575
12304W        W55398  17.355  13.971   6.495 -0.0381  0.0589  0.0111
12305W        W55399  18.623  13.998   4.764  0.0390 -0.1003  0.0046
12306W        W55400  18.640  11.530   2.756  0.3328 -0.1109  0.1913
12307W        W55401  20.776  12.866   7.994 -0.3063 -0.2038  0.1178
12308W        W55402  18.599  14.637   5.950  0.1367 -0.0785 -0.0958
12309W        W55403  20.586  12.081   3.154 -0.0989 -0.1728  0.0118
12310W        W55404  20.047  14.191   4.334 -0.0572 -0.2210 -0.0300
12311W        W55405  21.349  13.627   5.084  0.1271  0.2049  0.1028
12312W        W55406  21.001  13.380   3.780 -0.0881 -0.1861  0.1889
12313W        W55407  20.040  11.049   5.367 -0.1352  0.1467  0.3927
12314W        W55408  20.445  11.464   5.068 -0.0785 -0.2661 -0.0861
12315W        W55409  18.858  11.800   1.947  0.0290  0.1353 -0.0951
12316W        W55410  19.282  13.251   3.115  0.1598 -0.1423 -0.1557
12317W        W55411  21.744  14.417   7.423 -0.0319  0.0362  0.0833
12318W        W55412  21.621  12.596   4.167 -0.1354  0.1481  0.2583
12319W        W55413  19.837  14.330   4.811  0.3349 -0.1024 -0.0573
12320W        W55414  19.597  14.074   5.136  0.3416  0.2742 -0.1605
12321W        W55415  21.382  14.099   7.154  0.1226 -0.0683 -0.2494
12322W        W55416  18.614  13.713   1.958  0.1936 -0.0102  0.1751
12323W        W55417  16.491  13.430   3.531  0.1597 -0.3407  0.0705
12324W        W55418  17.919  13.235   2.399 -0.0362 -0.1179 -0.0693
12325W        W55419  18.518  12.814   6.094  0.2408  0.0049  0.2126
12326W        W55420  20.258  14.297   3.907 -0.3379  0.2026  0.0885
12327W        W55421  21.397  11.357   4.659 -0.1677 -0.1725 -0.0397
12328W        W55422  19.597  11.919   5.385  0.0166  0.1217  0.0535
12329W        W55423  22.208  11.996   4.728 -0.4203  0.0181 -0.0216
12330W        W55424  19.865  13.724   4.420 -0.1097 -0.0928  0.2563
12331W        W55425  22.139  14.950   4.300  0.0581 -0.0319  0.1872
12332W        W55426  21.128  11.345   2.193  0.0112  0.1947 -0.2084
12333W        W55427  20.654  14.519   1.900  0.2022  0.0046  0.2123
12334W        W55428  16.489  13.726   5.512  0.2292 -0.1757 -0.0496
12335W        W55429  18.271  13.085   5.355  0.2569  0.2024  0.0599
12336W        W55430  19.473  13.096   5.866  0.0629 -0.0574 -0.1425
12337W        W55431  17.812  12.473   4.973  0.1674 -0.0315  0.2145
12338W        W55432  21.156  12.315   6.237 -0.2481  0.0339 -0.1126
12339W        W55433  19.178  11.668   4.645 -0.0378 -0.1723 -0.0487
12340W        W55434  21.949  12.870   4.433  0.0585 -0.4041  0.0077
12341W        W55435  18.203  12.742   4.679  0.1922 -0.4708  0.2903
12342W        W55436  16.945  14.102   3.292  0.1417 -0.1013 -0.0613
12343W        W55437  21.241  11.492   5.661 -0.1759 -0.3548  0.0730
12344W        W55438  20.235  14.463   2.939  0.0300 -0.2158 -0.0145
12345W        W55439  21.935  14.942   6.223  0.0706  0.0829  0.0888
12346W        W55440  20.934  15.048   3.073  0.2880 -0.1078  0.1587
12347W        W55441  20.470  10.714   6.561 -0.0210 -0.2483 -0.0734
12348W        W55442  19.311  12.532   3.292  0.3114 -0.2496  0.0472
12349W        W55443  18.207  17.038   4.584  0.2844  0.1267 -0.4340
12350W        W55444  19.622  13.476   3.440 -0.1814  0.1238 -0.1554
12351W        W55445  18.375  13.940   3.578 -0.0382 -0.1732 -0.2068
12352W        W55446  22.323  13.386   5.238 -0.2103  0.0211  0.2067
12353W        W55447  20.963  14.872   3.960  0.2458 -0.0998 -0.1489
12354W        W55448  19.035  14.103   5.086  0.0707  0.0127 -0.0593
12355W        W55449  21.213  11.564   7.005 -0.3047 -0.1994  0.0998
12356W        W55450  22.156  12.388   5.705  0.0648  0.1297  0.1559
12357W        W55451  20.291  12.537   3.346  0.3074 -0.0253 -0.4119
12358W        W55452  19.821  12.095   4.322  0.4834  0.0207  0.2081
12359W        W55453  21.063  14.772   6.303  0.0285  0.1491  0.0420
12360W        W55454  18.942  16.232   3.832  0.2250  0.0296  0.0204
12361W        W55455  18.228  13.744   4.990 -0.0446  0.3810 -0.3046
12362W        W55456  18.781  14.887   3.312  0.2030  0.1281 -0.1219
12363W        W55457  22.195  12.972   4.862  0.2044  0.0827 -0.0926
12364W        W55458  17.046  14.421   4.864  0.1895  0.0501 -0.1604
12365W        W55459  20.831  12.583   6.060  0.0815 -0.2104  0.2895
12366W        W55460  18.341  13.648   2.639 -0.1918 -0.2532 -0.3602
12367W        W55461  18.796  14.625   5.150  0.0814 -0.0294 -0.0324
12368W        W55462  20.035  11.789   5.156 -0.2023 -0.0976  0.0818
12369W        W55463  21.388  11.298   3.434 -0.0029  0.1728 -0.0567
12370W        W55464  20.476  14.182   6.187 -0.0922 -0.3632 -0.0446
12371W        W55465  21.011  13.884   5.375  0.2519  0.2066  0.1810
12372W        W55466  20.819  11.693   1.994 -0.2076 -0.1265 -0.2737
12373W        W55467  19.424  11.689   3.398  0.5313  0.2300  0.3425
12374W        W55468  19.323  14.443   6.926 -0.4054 -0.0327  0.1394
12375W        W55469  19.575  14.358   4.335 -0.0214 -0.1982  0.0665
12376W        W55470  20.980  13.979   4.510 -0.2347 -0.1201 -0.1215
12377W        W55471  20.667  11.750   3.563  0.0955  0.1053  0.0212
12378W        W55472  20.413  14.463   4.580  0.3734 -0.0122 -0.0008
12379W        W55473  18.398  13.627   4.502  0.0557 -0.1683  0.1298
12380W        W55474  20.998  13.402   6.674 -0.2525 -0.0931  0.2103
12381W        W55475  20.192  14.664   4.979  0.3868  0.0242 -0.1546
12382W        W55476  18.842  11.999   5.948  0.3446  0.0810  0.0833
12383W        W55477  20.676  13.049   4.194 -0.3481  0.1355 -0.1106
12384W        W55478  20.707  11.033   3.179  0.0090 -0.2074 -0.1169
12385W        W55479  17.763  15.560   3.319  0.0498 -0.0131 -0.2519
12386W        W55480  21.236  11.982   5.393 -0.1050  0.3270 -0.0785
12387W        W55481  20.892  13.437   5.279  0.1062 -0.1487 -0.1142
12388W        W55482  19.834  11.542   5.538 -0.0627  0.2309 -0.1265
12389W        W55483  22.211  12.457   8.096 -0.1896 -0.2154  0.2898
12390W        W55484  20.550  12.873   4.667 -0.2262 -0.2540 -0.0948
12391W        W55485  19.587  12.907   4.945  0.2195 -0.1497 -0.0701
12392W        W55486  17.812  12.726   2.596  0.2909 -0.2320  0.0902
12393W        W55487  19.905  11.460   6.042 -0.0375 -0.1134  0.1946
12394W        W55488  18.740  12.787   4.707  0.1517  0.4852 -0.2821
12395W        W55489  19.750  14.843   5.191  0.1164 -0.2487  0.0188
12396W        W55490  19.148  13.130   5.007  0.1122  0.1932  0.0900
12397W        W55491  20.061  14.667   4.194 -0.0412 -0.0111  0.2010
12398W        W55492  20.468  11.733   7.882 -0.3773  0.0985 -0.0524
12399W        W55493  20.436  12.010   4.282  0.0980 -0.1380 -0.0818
12400W        W55494  19.613  14.419   2.707  0.0332 -0.1994  0.2994
12401W        W55495  17.546  12.380   2.315  0.1471  0.0937 -0.2839
12402W        W55496  18.652  11.201   3.793  0.0496  0.1976 -0.2177
12403W        W55497  19.707  13.655   5.391  0.3970  0.0330  0.2103
12404W        W55498  19.210  13.384   2.619  0.1302 -0.0715  0.0696
12405W        W55499  20.648  14.568   5.237 -0.2675  0.0685 -0.0030
12406W        W55500  18.387  14.242   3.120 -0.1935  0.1569  0.2657
12407W        W55501  19.860  10.879   4.759  0.1473  0.1517  0.1589
12408W        W55502  17.967  15.516   2.798 -0.0439  0.0207 -0.1183
12409W        W55503  20.292  13.001   3.314  0.0944 -0.0467  0.2029
12410W        W55504  17.354  12.827   2.879  0.1716 -0.2197  0.0806
12411W        W55505  20.591  12.518   4.209  0.1807  0.0661 -0.0274
12412W        W55506  21.296  14.540   3.751  0.1467  0.2727 -0.0762
12413W        W55507  18.891  11.219   4.564  0.2706  0.2494 -0.1247
12414W        W55508  20.141  11.852   5.698 -0.1391 -0.1364 -0.2147
12415W        W55509  19.030  14.615   4.432 -0.0032 -0.0424 -0.1685
12416W        W55510  20.370  13.445   5.201  0.1740 -0.0608 -0.2398
12417W        W55511  20.768  13.520   4.181 -0.1787 -0.1268  0.1062
12418W        W55512  21.540  14.727   6.500 -0.0138 -0.0165  0.0546
12419W        W55513  19.865  13.212   6.241  0.0775 -0.0116 -0.1458
12420W        W55514  18.084  12.300   4.001  0.0762 -0.1112 -0.1999
12421W        W55515  21.229  11.447   6.431 -0.2609  0.2685 -0.0097
12422W        W55516  20.178  12.813   4.305 -0.0006 -0.0480  0.1483
12423W        W55517  17.783  14.447   1.881  0.2193  0.1793 -0.0387
12424W        W55518  21.119  14.187   6.308  0.0769  0.0753 -0.1284
12425W        W55519  18.908  13.091   2.296  0.2096 -0.2624  0.2038
12426W        W55520  18.068  14.502   2.909  0.2779  0.1064 -0.1573
12427W        W55521  18.170  12.167   6.022  0.1409  0.0156  0.1499
12428W        W55522  20.868  14.091   5.877 -0.1697 -0.1372 -0.2937
12429W        W55523  19.198  12.585   4.940 -0.3440  0.3982 -0.1135
12430W        W55524  18.816  12.451   5.831 -0.0732 -0.0775 -0.0073
12431W        W55525  20.009  12.373   5.550  0.0821  0.0870  0.0266
12432W        W55526  21.229  12.873   5.951  0.0608 -0.1458  0.1344
12433W        W55527  20.412  11.991   6.935 -0.2708  0.0078  0.1014
12434W        W55528  19.036  15.550   6.217  0.2005  0.1336  0.1946
12435W        W55529  19.924  12.754   6.036 -0.0735  0.1664 -0.0234
12436W        W55530  21.509  15.184   5.175 -0.1130  0.0198  0.2154
12437W        W55531  20.824  12.438   5.187 -0.1670  0.2276 -0.3156
12438W        W55532  17.570  13.892   2.105  0.0682 -0.0559 -0.2534
12439W        W55533  18.506  13.061   3.670  0.0751 -0.1026 -0.2095
12440W        W55534  18.776  13.936   2.413  0.1709  0.1367  0.1525
12441W        W55535  19.946  13.303   5.687 -0.3547 -0.1109 -0.1153
12442W        W55536  19.760  14.016   3.977  0.1960  0.0857  0.1118
12443W        W55537  17.930  13.116   3.565 -0.1087  0.1063  0.0586
12444W        W55538  17.567  13.085   4.541  0.1839 -0.1073  0.0632
12445W        W55539  21.237  11.791   4.452 -0.1248 -0.6872  0.1269
12446W        W55540  22.440  13.818   4.154  0.1800 -0.1813 -0.0134
12447W        W55541  20.412  11.521   6.211  0.0695 -0.3278  0.1000
12448W        W55542  21.454  12.065   7.900 -0.2237  0.2177 -0.0876
12449W        W55543  20.473  13.329   3.743  0.0839  0.1980  0.0693
12450W        W55544  20.818  12.391   6.610 -0.2233  0.1723 -0.1023
12451W        W55545  19.446  11.937   6.258 -0.2393 -0.1266  0.0485
12452W        W55546  23.031  13.815   4.180  0.4727 -0.0961 -0.2259
12453W        W55547  17.792  12.794   5.575  0.0297 -0.1142  0.0691
12454W        W55548  19.679  14.103   5.634  0.0996  0.0967 -0.0063
12455W        W55549  19.354  13.924   6.268  0.0382 -0.1055  0.4530
12456W        W55550  19.369  12.248   4.582  0.1792 -0.2497  0.0839
12457W        W55551  19.269  12.565   2.246  0.0257 -0.1178 -0.0224
12458W        W55552  19.763  13.495   3.949 -0.0520 -0.2482 -0.1324
12459W        W55553  20.829  14.331   3.844  0.3082 -0.2861 -0.1620
12460W        W55554  19.668  12.050   3.211  0.1917 -0.0112  0.0327
12461W        W55555  20.925  12.857   5.579 -0.0281 -0.0457 -0.1927
12462W        W55556  19.501  13.225   5.321 -0.0411 -0.0437 -0.0426
12463W        W55557  20.888  12.625   3.784  0.1894  0.2174  0.3126
12464W        W55558  19.280  13.443   3.805 -0.0068 -0.1757 -0.0065
12465W        W55559  18.377  12.588   5.086  0.3299  0.0064  0.1079
12466W        W55560  18.971  12.766   6.505 -0.0110 -0.1070  0.0408
12467W        W55561  20.368  14.417   5.613 -0.0163 -0.0785 -0.0573
12468W        W55562  20.176  11.795   3.882  0.3258  0.0960  0.2217
12469W        W55563  20.449  12.073   6.445  0.0576  0.2326 -0.1831
12470W        W55564  21.053  12.893   6.428  0.0899 -0.0728  0.0365
12471W        W55565  19.056  13.318   5.567 -0.1755 -0.1942  0.0536
12472W        W55566  18.246  12.539   6.433 -0.2775 -0.0493 -0.3521
12473W        W55567  21.714  14.918   7.410  0.2729 -0.1261 -0.1869
12474W        W55568  22.487  12.834   4.428  0.1748  0.0629 -0.1123
12475W        W55569  22.386  10.811   5.909  0.1183 -0.0328 -0.1145
12476W        W55570  23.721  13.179   4.635 -0.1574  0.3527  0.1979
12477W        W55571  20.760  13.632   2.777 -0.1960  0.2421 -0.2795
12478W        W55572  18.398  12.654   5.617 -0.0518 -0.0076 -0.0314
12479W        W55573  20.190  12.291   6.015  0.2233 -0.3443 -0.0932
12480W        W55574  18.452  11.962   4.042 -0.3527 -0.1063 -0.0510
12481W        W55575  21.220  12.426   5.718  0.3492  0.4399  0.0173
12482W        W55576  20.016  14.078   3.423  0.1683 -0.1073 -0.0994
12483W        W55577  20.997  13.892   3.452 -0.1359  0.0405 -0.0766
12484W        W55578  19.730  12.542   4.006 -0.0996 -0.1191 -0.0011
12485W        W55579  17.269  12.360   5.070 -0.0262 -0.1617  0.0296
12486W        W55580  19.242  14.869   5.197 -0.0557 -0.2026 -0.1058
12487W        W55581  18.838  13.998   3.876  0.2614  0.1615 -0.1289
12488W        W55582  19.469  12.455   1.714 -0.1201  0.0990  0.0386
12489W        W55583  20.095  14.415   6.428 -0.1859  0.1130 -0.0221
12490W        W55584  20.317  13.005   7.079  0.1703  0.3529  0.3615
12491W        W55585  19.982   8.727   4.311 -0.1868  0.0832  0.0552
12492W        W55586  21.591  11.168   6.659  0.2040 -0.0207  0.0504
12493W        W55587  17.668  15.240   4.513 -0.3160  0.1155  0.0863
12494W        W55588  19.754  12.225   4.909 -0.0931 -0.1963  0.2062
12495W        W55589  18.295  14.395   3.782 -0.1556 -0.1736  0.1793
12496W        W55590  18.354  14.076   5.781  0.0025  0.0764 -0.2207
12497W        W55591  18.188  13.737   3.107 -0.1210  0.1137 -0.3194
12498W        W55592  19.173  12.767   5.459 -0.3296  0.4763  0.1956
12499W        W55593  20.664  13.715   4.873  0.0722 -0.3782 -0.1259
12500W        W55594  20.226  13.409   4.224 -0.0347 -0.1974  0.5283
12501W        W55595  22.157  13.039   6.459  0.0936  0.2658  0.3473
12502W        W55596  19.494  13.950   4.665  0.0653  0.0564 -0.0966
12503W        W55597  20.360  13.359   4.730 -0.3061  0.4304  0.0324
12504W        W55598  19.802  14.455   5.961  0.2961  0.0601 -0.1134
12505W        W55599  22.751  13.393   4.464  0.1199  0.0512 -0.1556
12506W        W55600  17.895  13.653   3.632 -0.3419 -0.1253  0.1038
12507W        W55601  19.174  13.486   6.029 -0.0455  0.0750 -0.1342
12508W        W55602  21.368  12.409   5.190  0.1525 -0.3776  0.3846
12509W        W55603  21.238  12.967   5.182 -0.2553  0.1440 -0.3591
12510W        W55604  18.922  13.071   4.081  0.2555 -0.0727 -0.2544
12511W        W55605  18.713  13.372   3.135  0.4708  0.1561  0.0921
12512W        W55606  17.202  14.983   6.586 -0.1103  0.2303 -0.0999
12513W        W55607  17.612  13.252   5.594  0.1942 -0.1324 -0.2710
12514W        W55608  18.492  14.862   3.858  0.1442  0.0703 -0.0962
12515W        W55609  21.109  14.420   3.291 -0.0573  0.3185  0.0615
12516W        W55610  22.693  13.294   4.948  0.2236  0.0966 -0.1231
12517W        W55611  20.637  14.996   5.520  0.0514 -0.1029  0.2545
12518W        W55612  19.992  12.280   2.963  0.1379  0.1284 -0.1246
12519W        W55613  18.261  14.764   3.443 -0.4571  0.2858  0.0848
12520W        W55614  17.762  15.087   2.577  0.1623 -0.2597 -0.1938
12521W        W55615  20.880  14.541   4.344 -0.0014 -0.2140  0.0233
12522W        W55616  19.044  15.278   3.202 -0.4013 -0.0471 -0.0843
12523W        W55617  21.306  13.508   7.097  0.1184  0.1936  0.2080
12524W        W55618  22.940  12.817   4.460 -0.0000 -0.0284 -0.0521
12525W        W55619  21.304  13.304   5.597 -0.2256  0.1147 -0.1687
12526W        W55620  22.564  12.253   4.917  0.0061 -0.0551  0.1467
12527W        W55621  18.919  14.033   6.025  0.1058 -0.2706 -0.1494
12528W        W55622  20.587  14.059   5.323  0.0498  0.3168 -0.0262
12529W        W55623  19.617  12.450   5.302  0.3224 -0.1248  0.1006
12530W        W55624  19.656  13.663   5.953  0.1884 -0.0542  0.2204
12531W        W55625  21.494   9.948   7.267  0.2168  0.0967 -0.0111
12532W        W55626  18.531  15.531   6.367  0.2316  0.0441  0.0929
12533W        W55627  22.063  14.170   3.928 -0.3740  0.2401 -0.0112
12534W        W55628  17.851  13.602   4.200 -0.0334 -0.0236  0.2511
12535W        W55629  21.520  12.160   4.690  0.1513  0.3271  0.0743
12536W        W55630  22.475  11.265   5.344  0.2364  0.1315 -0.1768
12537W        W55631  20.475  14.137   3.431  0.0447  0.0940  0.1136
12538W        W55632  19.233  12.991   4.504 -0.1174 -0.2194 -0.0278
12539W        W55633  19.958  13.017   3.723  0.0817 -0.2424 -0.5732
12540W        W55634  19.310  14.399   4.834 -0.3900 -0.1178 -0.0573
12541W        W55635  19.598  14.819   5.700  0.0240  0.2564  0.1261
12542W        W55636  18.135  11.807   4.353  0.2596  0.0964  0.1719
12543W        W55637  23.142  12.300   5.606 -0.2469 -0.1169  0.1498
12544W        W55638  18.737  13.775   5.704 -0.1324  0.0453 -0.2260
12545W        W55639  22.219  11.767   5.724  0.1649 -0.0639 -0.0273
12546W        W55640  19.639  13.019   4.129 -0.1939  0.0936  0.1054
12547W        W55641  21.454  13.103   4.664 -0.0811 -0.1422  0.2867
12548W        W55642  20.949  13.547   5.816 -0.3373  0.4102 -0.0703
12549W        W55643  17.971  12.681   6.013 -0.0586  0.1800  0.0068
12550W        W55644  22.223  12.802   3.870 -0.2383  0.1180 -0.0873
12551W        W55645  20.768  13.126   5.997 -0.1346  0.0592  0.0066
12552W        W55646  20.114  12.094   3.481 -0.0167 -0.0693 -0.0202
12553W        W55647  20.273  13.760   6.415 -0.1534 -0.0592 -0.0003
12554W        W55648  18.876  11.961   4.315  0.4850 -0.0555  0.0028
12555W        W55649  20.351  12.350   2.647 -0.2296 -0.1152  0.0805
12556W        W55650  18.349  12.508   2.982  0.1958 -0.4510 -0.0454
12557W        W55651  19.252  13.878   5.624 -0.0113 -0.2936  0.0014
12558W        W55652  20.494  13.179   5.577  0.2548  0.4203 -0.1361
12559W        W55653  18.403  10.179   3.716  0.2703  0.0752 -0.0800
12560W        W55654  21.911  13.986   3.500  0.0697 -0.3078 -0.2653
12561W        W55655  21.694  13.350   6.505 -0.6741  0.1577  0.4073
12562W        W55656  19.108  14.382   2.498  0.0177 -0.1473  0.1425
12563W        W55657  21.043  12.668   4.784  0.3851  0.3317 -0.1112
12564W        W55658  21.120  14.971   5.667  0.1287 -0.1613 -0.2540
12565W        W55659  16.617  12.474   4.901  0.0557  0.3265  0.0633
12566W        W55660  19.898  15.160   6.657 -0.1291 -0.3707 -0.3885
12567W        W55661  23.182  14.456   6.481  0.2558 -0.2925  0.2972
12568W        W55662  19.719  12.671   4.511  0.1390  0.0326  0.1008
12569W        W55663  17.683  12.524   3.793 -0.0562  0.0340 -0.2979
12570W        W55664  18.620  15.394   4.813 -0.2227 -0.1225 -0.0786
12571W        W55665  21.854  12.241   5.036  0.0061  0.1246 -0.3555
12572W        W55666  20.588  12.405   5.587 -0.2871  0.0176  0.1805
12573W        W55667  20.601  13.134   2.935  0.0585  0.1822 -0.0514
12574W        W55668  20.840  11.806   6.469  0.1003  0.2410  0.1600
12575W        W55669  18.891  14.269   5.606 -0.2454 -0.2438  0.0170
12576W        W55670  19.756  15.741   5.049 -0.0482  0.0711  0.0652
12577W        W55671  16.874  13.980   1.460 -0.1209 -0.1845  0.2155
12578W        W55672  20.281  14.171   4.958  0.3261  0.0160  0.1373
12579W        W55673  19.186  14.356   3.815  0.1154 -0.1879 -0.2344
12580W        W55674  18.275  12.803   2.523 -0.1866 -0.0278  0.2797
12581W        W55675  21.650  13.740   5.436  0.3465 -0.0151  0.1375
12582W        W55676  20.726  12.920   5.086 -0.3507 -0.3485  0.1032
12583W        W55677  21.287  13.339   6.176 -0.0003  0.1024  0.0011
12584W        W55678  19.231  12.200   5.628 -0.0212 -0.0170 -0.1510
12585W        W55679  22.368  11.779   3.741  0.1687 -0.1004 -0.0330
12586W        W55680  19.705  11.480   3.883  0.0394  0.0157 -0.1103
12587W        W55681  19.866  13.202   4.537  0.1234  0.0034 -0.2008
12588W        W55682  18.402  12.215   2.010 -0.1250  0.4008 -0.1825
12589W        W55683  17.971  13.949   1.798 -0.2294  0.1768 -0.0914
12590W        W55684  18.244  14.602   4.217  0.0188 -0.2456 -0.1020
12591W        W55685  20.716  11.158   6.462 -0.1622  0.1630 -0.2889
12592W        W55686  19.053  14.784   5.630 -0.1631 -0.1647  0.0382
12593W        W55687  18.003  14.028   4.638  0.0522 -0.0624 -0.0237
12594W        W55688  18.318  13.225   4.843 -0.3131 -0.3257 -0.0564
12595W        W55689  21.747  13.713   4.852  0.2569 -0.1592  0.0956
12596W        W55690  17.015  12.073   5.406 -0.1101 -0.2331 -0.1536
12597W        W55691  17.794  13.011   4.970 -0.1385 -0.1587  0.3241
12598W        W55692  21.471  15.445   4.385 -0.1767  0.1890  0.0436
12599W        W55693  20.769  14.602   5.848 -0.1906  0.1158  0.1251
12600W        W55694  18.915  10.807   3.594  0.1105 -0.2706  0.0190
12601W        W55695  21.532  12.787   6.336  0.1589  0.0572  0.0316
12602W        W55696  17.020  14.517   1.307 -0.1611 -0.0642 -0.2959
12603W        W55697  19.440  12.829   6.309  0.0736 -0.0320  0.2004
12604W        W55698  19.728  12.053   5.855  0.0484  0.2890  0.1068
12605W        W55699  17.983  11.203   4.373 -0.2081  0.3503  0.2645
12606W        W55700  19.683  11.719   4.770 -0.1749 -0.0906 -0.0452
12607W        W55701  19.453  14.894   3.633  0.2150 -0.4091 -0.0236
12608W        W55702  21.696  15.031   4.021  0.2665 -0.1261  0.1570
12609W        W55703  19.929  13.720   4.902  0.2085 -0.2038 -0.3227
12610W        W55704  19.677  13.642   7.356  0.3454 -0.3378  0.1534
12611W        W55705  20.028  11.874   6.234 -0.0487 -0.0823 -0.0276
12612W        W55706  21.899  13.635   4.034 -0.2083  0.0807 -0.2684
12613W        W55707  20.155  13.871   5.374  0.0361  0.2839  0.0086
12614W        W55708  23.265  14.875   4.201 -0.1296  0.1006  0.1430
12615W        W55709  21.490  11.762   6.146 -0.0576 -0.1741  0.2593
12616W        W55710  20.668  13.842   3.798  0.4382 -0.1947 -0.1292
12617W        W55711  18.955  11.514   5.062 -0.1388 -0.0753  0.1963
12618W        W55712  19.403  14.438   5.422  0.0178 -0.0868 -0.1463
12619W        W55713  22.453  14.122   6.597  0.0500 -0.0606 -0.1823
12620W        W55714  20.095  12.877   4.820  0.0916  0.1125  0.0360
12621W        W55715  20.298  12.403   5.014 -0.2357  0.2731 -0.0682
12622W        W55716  19.406  13.850   3.585 -0.2610  0.4522 -0.2188
12623W        W55717  18.722  13.483   5.073  0.0556 -0.0372  0.2096
12624W        W55718  19.769  12.493   3.530  0.1802 -0.2834  0.2477
12625W        W55719  18.768  12.291   4.767  0.1103  0.2826  0.0452
12626W        W55720  20.566  14.129   4.237 -0.2222  0.0060  0.1141
12627W        W55721  19.987  13.990   6.052  0.0647 -0.2626  0.0886
12628W        W55722  19.548  14.097   3.145 -0.0035 -0.1184  0.2860
12629W        W55723  23.488  12.390   5.141 -0.5017  0.1627 -0.2628
12630W        W55724  20.531  15.516   5.384  0.0489  0.0313  0.2087
12631W        W55725  21.288  14.543   5.870  0.1468  0.1676  0.2195
12632W        W55726  20.297  14.696   6.014 -0.0721  0.1513 -0.0619
12633W        W55727  22.152  14.139   6.183 -0.0802  0.0832  0.2127
12634W        W55728  18.524  12.095   5.576 -0.0594  0.1236 -0.2892
12635W        W55729  20.688  12.557   3.038  0.1044 -0.0518  0.0419
12636W        W55730  18.971  12.546   4.321  0.2546  0.1414 -0.1263
12637W        W55731  21.307  13.968   5.731  0.5112  0.0992  0.0643
12638W        W55732  19.524  13.430   4.850 -0.1500  0.3619  0.2073
12639W        W55733  20.184  12.365   3.998  0.0767 -0.0690  0.0836
12640W        W55734  17.904  15.168   5.015  0.2430 -0.1924 -0.1213
12641W        W55735  21.314  13.585   4.581 -0.0466  0.0804  0.1000
12642W        W55736  18.105  13.533   7.489  0.0370 -0.0341  0.0408
12643W        W55737  19.102  12.787   7.112 -0.1177  0.2098  0.1471
12644W        W55738  21.859  11.696   4.613  0.1235 -0.2194 -0.0919
12645W        W55739  22.102  13.406   8.221 -0.1391 -0.0978 -0.0474
12646W        W55740  18.904  12.562   7.655  0.4368 -0.1560 -0.0838
12647W        W55741  21.510  14.221   7.820 -0.0701  0.2487  0.2153
12648W        W55742  20.502  12.507   9.474  0.1028 -0.0094 -0.1492
12649W        W55743  21.471  11.832   9.600 -0.0141 -0.1149 -0.0470
12650W        W55744  21.309  12.489   6.671 -0.0471 -0.0112  0.0941
12651W        W55745  19.497  11.946   8.722  0.0713  0.1867 -0.1522
12652W        W55746  19.269  11.036   7.122 -0.1111 -0.1317 -0.2071
12653W        W55747  19.708  10.829   8.467 -0.1779 -0.2322 -0.1862
12654W        W55748  21.008  11.644   9.505  0.2034  0.1110  0.1171
12655W        W55749  18.680  14.327   6.733  0.2258 -0.0596 -0.1016
12656W        W55750  18.873  12.364   9.049 -0.0815 -0.0738  0.0878
12657W        W55751  20.295  12.758   7.905  0.0108  0.0648 -0.1004
12658W        W55752  19.414  14.004   7.585 -0.2449 -0.1130  0.1789
12659W        W55753  19.426   9.712   9.535  0.1846 -0.0731 -0.2682
12660W        W55754  18.935  13.730   7.994 -0.0139  0.2337  0.4458
12661W        W55755  18.264  14.008   7.694  0.3212 -0.3168 -0.1239
12662W        W55756  18.710  12.164   7.348 -0.1140  0.2858 -0.0453
12663W        W55757  19.101  11.292   8.055 -0.1967 -0.1302  0.2781
12664W        W55758  20.525  11.577   9.337 -0.2208 -0.0524  0.2281
12665W        W55759  21.061  12.768   9.203 -0.2453 -0.2212  0.0080
12666W        W55760  20.616  12.959   9.375  0.1485 -0.1298 -0.0278
12667W        W55761  20.399  13.283   8.100  0.0318 -0.3175 -0.3402
12668W        W55762  19.250  13.895   6.750  0.0158  0.0749 -0.0982
12669W        W55763  19.216  15.458   8.083 -0.0062 -0.2892  0.0387
12670W        W55764  20.441  13.717   7.524 -0.0448 -0.2435  0.1217
12671W        W55765  20.933  12.671   8.608  0.1221 -0.1108 -0.3311
12672W        W55766  18.778  13.041   6.870 -0.2864  0.0130 -0.2363
12673W        W55767  19.965  12.052   9.072 -0.0531 -0.0504 -0.1344
12674W        W55768  20.141  12.293   8.169  0.1221 -0.1993 -0.3054
12675W        W55769  19.045  14.022   7.161 -0.0919  0.0432  0.3903
12676W        W55770  19.965  13.600   8.335 -0.0192  0.1825  0.0942
12677W        W55771  16.714  14.437   8.705  0.1535 -0.0847 -0.0747
12678W        W55772  18.877  15.660   6.933  0.1491 -0.1979  0.2417
12679W        W55773  20.392  12.593   6.347 -0.0003 -0.0438  0.3024
12680W        W55774  18.584  11.300   6.953 -0.4506  0.1903  0.0713
12681W        W55775  20.981  11.896   7.880  0.0564 -0.0821  0.1838
12682W        W55776  20.987  10.158   8.214 -0.1327  0.3066  0.1913
12683W        W55777  19.304  14.935   7.863  0.2012 -0.3737 -0.2124
12684W        W55778  18.132  11.417   9.398 -0.1449  0.1067 -0.1798
12685W        W55779  19.355  12.292   7.789 -0.1208  0.0254  0.2520
12686W        W55780  21.649  12.261   9.248 -0.0609 -0.1531 -0.0153
12687W        W55781  18.046  14.505   8.905 -0.1832 -0.0727  0.1034
12688W        W55782  17.764  12.453   6.524 -0.0780  0.0110 -0.2370
12689W        W55783  21.668  13.716   7.963 -0.0447  0.0237 -0.1571
12690W        W55784  21.521  13.800   9.412  0.1546  0.1061  0.1311
12691W        W55785  20.727  12.387   7.157  0.1763 -0.0431  0.2340
12692W        W55786  18.380  12.765   8.359  0.2261  0.0775  0.0584
12693W        W55787  19.719  11.573   6.535 -0.0608  0.1906 -0.0028
12694W        W55788  20.892  11.705   8.507  0.1266  0.1178 -0.2153
12695W        W55789  18.926  14.061   8.598  0.1553  0.2568  0.0112
12696W        W55790  20.238  12.876   9.049  0.3621  0.1934  0.2750
12697W        W55791  20.335  12.525   6.862  0.1225 -0.1088  0.1264
12698W        W55792  19.926  11.834   7.012 -0.2388  0.1233  0.2050
12699W        W55793  21.323  11.920   8.628 -0.0331  0.2173 -0.0010
12700W        W55794  18.128  12.921   7.468 -0.1482 -0.3268  0.0537
12701W        W55795  20.391  12.653   7.413  0.0726 -0.1317 -0.1367
12702W        W55796  22.955  13.570   9.817  0.1074  0.1009 -0.0507
12703W        W55797  20.356  11.602   7.246  0.3573 -0.1375  0.2631
12704W        W55798  18.532  13.839   8.810 -0.0096  0.1279 -0.0307
12705W        W55799  20.120  14.639   7.281  0.1014 -0.0089  0.0041
12706W        W55800  17.891  13.751   7.953  0.0331  0.2057  0.1858
12707W        W55801  18.366  12.714   8.870  0.1469  0.1048  0.0431
12708W        W55802  19.704  10.880   9.393  0.2156  0.2531  0.3685
12709W        W55803  18.379  13.241   7.202 -0.2772  0.0225 -0.1013
12710W        W55804  22.128  12.316   8.565 -0.0004 -0.0266  0.1092
12711W        W55805  20.851  11.435   7.375  0.0724 -0.0714  0.0707
12712W        W55806  19.372  13.448   6.910 -0.2046  0.2412 -0.0569
12713W        W55807  20.537  14.207   8.253 -0.1600  0.1676  0.0291
12714W        W55808  21.047  12.191   8.284  0.3422  0.1002  0.2100
12715W        W55809  20.810  12.794   6.911  0.2057 -0.2014 -0.2649
12716W        W55810  17.996  11.815   8.840  0.0255 -0.1506 -0.0625
12717W        W55811  19.003  11.802   7.153  0.1783  0.3536 -0.2155
12718W        W55812  19.243  12.358   8.628  0.2033  0.1051  0.0941
12719W        W55813  19.001  11.330   7.366 -0.1094  0.1104 -0.0068
12720W        W55814  18.462  12.113   9.627 -0.1991 -0.2371  0.1475
12721W        W55815  19.984  12.343   7.684  0.2434  0.2223 -0.1797
12722W        W55816  18.205  12.327   8.561 -0.1481 -0.0227  0.4572
12723W        W55817  20.497  14.388   8.749  0.1356  0.4075 -0.0925
12724W        W55818  21.834  13.239   9.241  0.4101 -0.0753  0.3146
12725W        W55819  21.569  13.155   8.368 -0.0853 -0.3289  0.0832
12726W        W55820  22.063  12.514   9.415  0.2018  0.1818 -0.3455
12727W        W55821  19.558  12.555   5.764  0.1712  0.3245 -0.0825
12728W        W55822  18.573  15.603   8.206 -0.1712 -0.1470  0.2818
12729W        W55823  18.751  13.222   7.699 -0.1695  0.0222  0.4445
12730W        W55824  19.567  12.476   6.843  0.0691  0.0094 -0.2538
12731W        W55825  20.901  13.414   9.056 -0.0354 -0.5949  0.2203
12732W        W55826  19.203  13.547   7.598  0.0095  0.2416  0.2119
12733W        W55827  21.854  12.706   8.980 -0.0245  0.2490  0.2672
12734W        W55828  18.005  11.878   9.337 -0.0787  0.1097 -0.1530
12735W        W55829  19.190  12.354   6.134 -0.1482 -0.2949  0.0305
12736W        W55830  20.058  13.228   8.645  0.0977 -0.0551 -0.0235
12737W        W55831  17.496  14.501   6.667 -0.0762  0.0814 -0.1121
12738W        W55832  17.820  12.730   7.062 -0.3150  0.0410  0.1713
12739W        W55833  20.061  13.511   7.820  0.0273  0.0505 -0.1330
12740W        W55834  21.567  11.076   8.420 -0.0146 -0.0079  0.0184
12741W        W55835  18.645  12.482   6.777  0.1294 -0.1117  0.0829
12742W        W55836  20.297  11.231   7.823  0.0529  0.0128 -0.2697
12743W        W55837  22.980  11.955   7.698  0.3625 -0.1469 -0.0194
12744W        W55838  23.185  13.303   7.919 -0.0557 -0.2580  0.2252
12745W        W55839  20.007  12.230   6.613  0.2544  0.0499 -0.0269
12746W        W55840  21.227  11.895   7.394  0.3132 -0.4433  0.1494
12747W        W55841  19.458  14.189   8.968 -0.2194  0.0833  0.1506
12748W        W55842  19.475  14.817   8.870 -0.0754 -0.2098  0.0471
12749W        W55843  19.150  12.303   7.206  0.2147 -0.2878 -0.0340
12750W        W55844  20.945  13.768   8.732  0.0338  0.1663  0.0842
12751W        W55845  19.201  13.236   9.250  0.3226 -0.1441  0.2116
12752W        W55846  20.079  13.332   7.330  0.2088  0.1125 -0.0619
12753W        W55847  17.194  12.152   9.292 -0.2130 -0.1393  0.0414
12754W        W55848  19.007  12.983   5.980 -0.1427 -0.1774 -0.5402
12755W        W55849  20.106  11.539   9.039 -0.1075 -0.1169 -0.1348
12756W        W55850  18.694  16.553   7.248  0.0505  0.2244 -0.1454
12757W        W55851  18.586  11.414   8.396 -0.0134 -0.0685  0.1573
12758W        W55852  18.811  12.763   8.727 -0.2901  0.1029 -0.0523
12759W        W55853  20.654  12.463   8.291  0.1819  0.2108  0.0242
12760W        W55854  20.990  12.242   9.259  0.1216  0.4860 -0.1306
12761W        W55855  20.340  13.307   6.088  0.0407 -0.0712 -0.2299
12762W        W55856  21.595   8.706  10.163 -0.1858  0.1351 -0.2154
12763W        W55857  19.667  15.190   9.148  0.1183 -0.2410 -0.1859
12764W        W55858  19.783  13.081   8.251  0.0208  0.2707 -0.1215
12765W        W55859  19.986  11.569   7.594  0.2385  0.0277 -0.0208
12766W        W55860  19.009  14.539   7.293 -0.0252  0.3376  0.1958
12767W        W55861  19.028  14.491   6.379 -0.1397 -0.0695 -0.1228
12768W        W55862  21.851  10.796   9.500 -0.0910  0.2397 -0.3768
12769W        W55863  21.900   9.766  10.122  0.4882  0.2964  0.0707
12770W        W55864  19.370  14.833   6.114  0.4139  0.5328 -0.3830
12771W        W55865  19.946  12.503   9.256 -0.0322  0.0701 -0.1993
12772W        W55866  19.441  15.773   6.707 -0.1394 -0.2960  0.0371
12773W        W55867  20.527  12.003   8.318  0.2423 -0.0058 -0.0166
12774W        W55868  17.321  12.809   9.017  0.0638 -0.0721  0.2156
12775W        W55869  19.228  10.931   7.647 -0.0997 -0.1651 -0.1899
12776W        W55870  18.349  13.015   7.939  0.0367  0.1283 -0.3286
12777W        W55871  18.511  11.720   9.158 -0.0588  0.0073  0.0838
12778W        W55872  21.210  13.788   7.792 -0.0443  0.2199 -0.0848
12779W        W55873  19.436   9.743   8.989  0.1593  0.3080 -0.1220
12780W        W55874  20.323   9.935   8.477 -0.1695 -0.3580 -0.1645
12781W        W55875  17.893  15.402   9.135 -0.4455 -0.1231  0.2009
12782W        W55876  20.797  10.883   7.196  0.1562  0.4725  0.1156
12783W        W55877  18.325  12.829   6.853  0.1110 -0.0619 -0.3319
12784W        W55878  22.418  13.955   9.537 -0.1732 -0.3989 -0.1441
12785W        W55879  19.663  12.017   9.636  0.3001  0.0912  0.3364
12786W        W55880  17.702  14.180   7.791 -0.0539  0.2006 -0.0521
12787W        W55881  18.653  13.498   9.170 -0.3190 -0.0036 -0.0673
12788W        W55882  18.086  13.586   6.933  0.0884  0.0049 -0.1700
12789W        W55883  18.449  14.031   7.154 -0.1776  0.2398  0.2245
12790W        W55884  19.577  12.232   8.243 -0.2916 -0.0476 -0.0735
12791W        W55885  19.428  11.767   8.227 -0.4526  0.1264  0.1528
12792W        W55886  19.781  10.983   8.915 -0.1632 -0.1972 -0.2021
12793W        W55887  19.810  11.935   7.919  0.1775  0.0482 -0.3437
12794W        W55888  19.458  12.191   9.173 -0.0060 -0.2677 -0.1487
12795W        W55889  21.442  11.353   9.794 -0.3908  0.2465  0.1238
12796W        W55890  22.510   8.263   9.799  0.0930 -0.0283  0.2743
12797W        W55891  20.545  13.806   9.185 -0.1457 -0.0782 -0.1462
12798W        W55892  19.418  12.926   6.790 -0.1063  0.2125 -0.0939
12799W        W55893  17.454  14.157   8.242  0.1825 -0.1598 -0.1910
12800W        W55894  19.211  13.671   8.522 -0.0862 -0.0851 -0.1519
12801W        W55895  20.508  12.074   9.120 -0.0693  0.1580 -0.2510
12802W        W55896  18.230  13.780   8.388 -0.0066  0.4190  0.0925
12803W        W55897  19.572  14.044   7.083 -0.0225 -0.1634 -0.2131
12804W        W55898  18.737  15.015   8.368  0.3975 -0.3939  0.0176
12805W        W55899  20.933  10.468   7.472 -0.3407 -0.2929 -0.1723
12806W        W55900  20.461  14.073   6.678  0.0765 -0.1270  0.0151
12807W        W55901  19.048  11.202   9.285 -0.2492  0.3312  0.2138
12808W        W55902  20.569  12.363   7.751 -0.0836  0.1269  0.0595
12809W        W55903  18.833  10.835   8.961 -0.1211  0.0017 -0.3174
12810W        W55904  20.883  12.882   7.513  0.2185  0.2026 -0.1901
12811W        W55905  21.195  10.497   7.884 -0.0300  0.1010  0.1212
12812W        W55906  19.462  11.554   7.062  0.0499 -0.1389 -0.2231
12813W        W55907  18.980  11.822   8.533 -0.0604 -0.3222 -0.1041
12814W        W55908  22.390  12.810   8.520  0.1683 -0.1603 -0.1854
12815W        W55909  20.280  13.863   8.003 -0.1828 -0.1184 -0.1424
12816W        W55910  21.757  11.679   8.423 -0.0934 -0.1948  0.2088
12817W        W55911  18.503  12.033   8.105 -0.0754  0.0006 -0.0199
12818W        W55912  21.283  12.374   8.869  0.0548 -0.4023 -0.1605
12819W        W55913  20.261  12.755   5.376  0.1138  0.0542  0.3550
12820W        W55914  17.747  13.146   8.585 -0.0281 -0.1832 -0.3677
12821W        W55915  22.270  13.552   9.100 -0.2745  0.0048 -0.1503
12822W        W55916  20.481  11.469   8.365 -0.1453 -0.1623  0.0911
12823W        W55917  21.481  14.814   9.656  0.4205  0.0666  0.0155
12824W        W55918  22.687  12.081   8.192 -0.1474 -0.0726  0.0284
12825W        W55919  21.562  12.809   9.449 -0.3298  0.0362 -0.0273
12826W        W55920  21.685  13.011   7.906  0.0280 -0.0920  0.4366
12827W        W55921  19.708  12.657   8.056  0.2531 -0.0276 -0.2949
12828W        W55922  18.046  10.158   8.134 -0.0291 -0.2150 -0.2617
12829W        W55923  19.043  11.418   6.789  0.0141 -0.0567  0.3123
12830W        W55924  19.973  14.159   7.651 -0.2885 -0.0556  0.0754
12831W        W55925  20.981  13.161   8.360 -0.1814 -0.1911 -0.0897
12832W        W55926  19.184  12.948   7.607  0.1542  0.0548  0.0465
12833W        W55927  19.259  10.800   8.160 -0.1949 -0.1489  0.3335
12834W        W55928  17.057  13.069   6.248  0.3709  0.3417  0.1642
12835W        W55929  18.676  12.502   8.072  0.0514  0.3387 -0.0587
12836W        W55930  20.272  12.783   8.438  0.1909  0.0527  0.2865
12837W        W55931  19.570  11.140   6.694 -0.0928  0.1933  0.0971
12838W        W55932  17.979  13.928   7.257 -0.0524  0.2456  0.3303
12839W        W55933  19.139  11.932   9.565 -0.3999  0.2523  0.0149
12840W        W55934  17.894  15.292   7.816  0.2009 -0.0408 -0.3742
12841W        W55935  18.581  14.062   8.174  0.5515  0.0470 -0.2295
12842W        W55936  19.884  11.376   9.432 -0.0949  0.0240 -0.0722
12843W        W55937  19.059  11.815   9.041  0.1717 -0.1471 -0.1984
12844W        W55938  17.520  11.941   9.605 -0.0559  0.1324 -0.0909
12845W        W55939  19.940  12.901   7.577  0.2199 -0.1604  0.0687
12846W        W55940  21.226  13.375   8.709 -0.2913 -0.1043 -0.1142
12847W        W55941  18.982  13.202   8.691 -0.1718 -0.4083 -0.0036
12848W        W55942  19.981  12.314   7.117  0.1204 -0.0353 -0.2499
12849W        W55943  19.778  10.725   7.943  0.2335  0.0595 -0.1055
12850W        W55944  20.061  13.758   7.117 -0.2845 -0.5844 -0.0199
12851W        W55945  18.267  12.242   9.037 -0.0645 -0.0353 -0.0992
12852W        W55946  19.652  14.815   8.244  0.1467 -0.1923 -0.2476
12853W        W55947  19.589  13.207   7.775 -0.0329 -0.2134 -0.1711
12854W        W55948  20.504  13.624   6.901  0.1310 -0.0284  0.1879
12855W        W55949  19.276  14.112   9.493 -0.0196  0.3283 -0.1889
12856W        W55950  20.767  10.953   7.655  0.2115 -0.0677  0.1756
12857W        W55951  18.474  14.283   6.239  0.2044 -0.0544 -0.0688
12858W        W55952  18.252  14.091   6.693 -0.0558 -0.0555  0.1055
12859W        W55953  20.493  14.355   7.593 -0.1396  0.0042 -0.1745
12860W        W55954  19.614  14.446   7.378 -0.0985  0.0746  0.0032
12861W        W55955  21.368  12.044   6.928  0.1887  0.2194  0.0698
12862W        W55956  20.639  12.997   8.793 -0.2459  0.1211  0.2158
12863W        W55957  21.976  12.013   8.040 -0.4767  0.1367  0.0835
12864W        W55958  18.011  12.759   9.315  0.2949  0.0174 -0.0729
12865W        W55959  20.201  12.022   7.441  0.0210 -0.3525  0.1215
12866W        W55960  20.794  14.067   7.783 -0.2402 -0.3424  0.2761
12867W        W55961  18.325  13.534   7.986 -0.0157 -0.1059 -0.1057
12868W        W55962  18.648  13.514   8.415  0.0460 -0.1729  0.0957
12869W        W55963  20.563  10.629   9.402  0.1421  0.5085  0.2366
12870W        W55964  19.483  13.132   7.268 -0.1356 -0.0948  0.0203
12871W        W55965  18.784  12.334   8.531 -0.1102  0.0651  0.0609
12872W        W55966  17.346  13.353   9.746 -0.0646 -0.1502 -0.3657
12873W        W55967  17.055  13.916   8.029  0.1529 -0.0240 -0.2373
12874W        W55968  18.378  14.515   7.908 -0.0538  0.0639 -0.2323
12875W        W55969  18.179  12.294   7.029 -0.0763  0.2043 -0.2950
12876W        W55970  22.100  12.376   7.529 -0.0753  0.0086 -0.0419
12877W        W55971  18.775  13.030   8.209 -0.0384  0.0047 -0.2918
12878W        W55972  18.213  11.614   7.864  0.0341  0.2211  0.0639
12879W        W55973  19.535  13.511   6.464  0.0510  0.0538 -0.1506
12880W        W55974  19.873  13.315   9.147 -0.1479  0.0342  0.0289
12881W        W55975  19.651  10.151   9.461  0.3491  0.0492 -0.0705
12882W        W55976  19.541  12.635   7.437  0.2911 -0.1210  0.0170
12883W        W55977  19.108  13.310   6.543  0.0254  0.0521  0.0568
12884W        W55978  17.067  11.340   9.320  0.1360  0.2160 -0.0029
12885W        W55979  19.634  12.070   7.319 -0.1258  0.0165 -0.2611
12886W        W55980  18.400  12.499   7.571 -0.1546 -0.1984 -0.1140
12887W        W55981  21.591  10.964   9.993 -0.2306  0.2297 -0.2031
12888W        W55982  18.861  10.574   7.912  0.0727  0.1526 -0.1099
12889W        W55983  21.878  12.749   8.417 -0.0147  0.0441 -0.0847
12890W        W55984  21.822  11.978   8.842 -0.0722 -0.2113  0.4120
12891W        W55985  20.058  15.350   6.234  0.2388 -0.0739 -0.0785
12892W        W55986  21.439  12.926   8.860  0.1347 -0.3189 -0.3248
12893W        W55987  21.587  13.371   9.719 -0.0437  0.1308 -0.0334
12894W        W55988  18.556   9.143   9.423 -0.2183  0.0184  0.1916
12895W        W55989  22.350  15.126   9.598  0.3278  0.1091 -0.4136
12896W        W55990  22.874  12.520   9.640  0.0712 -0.0167  0.0210
12897W        W55991  20.860  11.365   7.985 -0.0082 -0.3014  0.0591
12898W        W55992  19.154  12.642   8.089  0.1500  0.3645 -0.1427
12899W        W55993  18.877  15.058   6.298 -0.3771 -0.1793 -0.2997
12900W        W55994  21.095  13.068   9.590 -0.0958 -0.0525 -0.0393
12901W        W55995  19.798  14.660   6.883 -0.0143  0.0287  0.2629
12902W        W55996  18.687  14.320   8.973  0.1045  0.1044 -0.0141
12903W        W55997  16.479  13.911   6.371  0.0352 -0.5523 -0.1364
12904W        W55998  19.960  13.273   6.752  0.0601 -0.1001 -0.0542
12905W        W55999  19.620  14.371   8.037  0.0784  0.1606 -0.3429
12906W        W56000  19.213  13.334   8.105  0.1028  0.1454  0.0486
12907W        W56001  18.637  12.886   7.359  0.2450 -0.2083 -0.3008
12908W        W56002  20.331  12.338   8.658  0.0419 -0.2563  0.0545
12909W        W56003  19.119  10.726   9.378 -0.3540  0.2017  0.0110
12910W        W56004  22.052  11.540   8.922  0.0963 -0.1269 -0.2615
12911W        W56005  21.296  11.129   9.373 -0.0372  0.0386 -0.0416
12912W        W56006  18.472  13.230   8.800 -0.2136  0.0767  0.0075
12913W        W56007  17.958  13.548   6.392 -0.3000 -0.0776 -0.2214
12914W        W56008  18.747  13.630   6.935 -0.0490  0.4811  0.0456
12915W        W56009  18.654  13.679   7.493 -0.0452 -0.2255 -0.1556
12916W        W56010  18.761  11.602   7.960 -0.0641 -0.1290 -0.2106
12917W        W56011  19.097  11.864   7.611  0.1745  0.2923 -0.0570
12918W        W56012  21.165  13.133   7.883 -0.1988  0.1309 -0.1673
12919W        W56013  17.318  10.639   9.078  0.3485 -0.1432  0.0248
12920W        W56014  17.480  11.839   8.058 -0.2316  0.1243  0.0251
12921W        W56015  21.259  13.606   8.255  0.2079 -0.2426 -0.1326
12922W        W56016  21.375  12.976   7.310  0.1723  0.0048  0.2275
12923W        W56017  19.445  11.457   7.609  0.1283 -0.1460 -0.4811
12924W        W56018  18.409  13.653   6.053 -0.2735  0.0491  0.1607
12925W        W56019  19.244  13.640   5.172 -0.1200  0.1631  0.1058
12926W        W56020  19.820  12.410   8.651 -0.0059 -0.2513 -0.2581
12927W        W56021  21.527  14.251   6.693  0.1225  0.1147  0.0796
12928W        W56022  21.994  15.139   6.760  0.1249  0.0178  0.0641
12929W        W56023  17.751  10.527   8.913 -0.0439  0.1747 -0.2093
12930W        W56024  20.846  13.473   7.658 -0.1196  0.1659  0.1388
12931W        W56025  21.458  13.448   7.551 -0.1516 -0.0801  0.2606
12932W        W56026  22.222  12.631  10.445  0.1908 -0.0227 -0.1739
12933W        W56027  19.531  11.694   9.199  0.1032  0.0376  0.1168
12934W        W56028  21.413  12.996   9.975 -0.2093  0.0627 -0.0662
12935W        W56029  17.413   9.309   9.144  0.3391  0.0241  0.0959
12936W        W56030  21.917  12.227   7.080 -0.1148 -0.1983 -0.2438
12937W        W56031  20.423  13.807   5.811  0.3241  0.2443  0.1690
12938W        W56032  17.839   9.816   9.613  0.1739  0.0453 -0.0444
12939W        W56033  19.093  11.049   8.568  0.0742  0.0610 -0.0144
12940W        W56034  19.289  12.910   8.473  0.1289  0.3097  0.0735
12941W        W56035  18.166  13.272   8.363  0.0889 -0.1800  0.0238
12942W        W56036  21.356  12.689   8.402 -0.0755  0.1759 -0.0762
12943W        W56037  18.436  14.894   8.921  0.1396 -0.3193 -0.0214
12944W        W56038  19.089  15.904   7.889  0.0099 -0.0174  0.1138
12945W        W56039  20.694  12.552   9.022 -0.1832  0.2921 -0.1440
12946W        W56040  17.598  12.352   7.998 -0.1095  0.0893 -0.1599
12947W        W56041  17.916  11.181   7.654 -0.0062  0.3074 -0.0444
12948W        W56042  19.885  12.815   7.095 -0.1436  0.0514  0.1206
12949W        W56043  18.313  13.750   9.552  0.1925 -0.0610 -0.0931
12950W        W56044  19.338  11.436   8.767 -0.1123 -0.0127  0.1224
12951W        W56045  20.658  11.529   6.850  0.2058  0.1407 -0.2492
12952W        W56046  18.789  16.566   9.484 -0.1775  0.0639 -0.1411
12953W        W56047  20.452  13.161   7.561 -0.1240  0.0353  0.0564
12954W        W56048  19.008  17.623   1.410 -0.2838 -0.0389 -0.0124
12955W        W56049  19.739  15.193  31.405  0.2231  0.1359  0.2026
12956W        W56050  20.644  16.059   0.722  0.4168  0.0985  0.0479
12957W        W56051  21.715  15.175  31.769  0.2004  0.0165 -0.1254
12958W        W56052  17.513  14.512  30.462  0.2490 -0.1682  0.2241
12959W        W56053  22.303  18.286  31.428 -0.1904  0.3470 -0.3372
12960W        W56054  18.452  14.798   2.953 -0.1871 -0.0657 -0.0545
12961W        W56055  21.795  17.328  31.625 -0.3741 -0.0008 -0.2156
12962W        W56056  20.661  17.410   0.856 -0.1024  0.0218 -0.1950
12963W        W56057  19.684  16.656  31.501 -0.1462  0.2209  0.2159
12964W        W56058  18.586  14.885  31.858 -0.3417  0.3074  0.0217
12965W        W56059  21.006  17.111   3.257 -0.0476  0.2662 -0.2010
12966W        W56060  18.128  13.879  31.234 -0.3439 -0.0418  0.0788
12967W        W56061  17.238  14.998   1.156 -0.0773 -0.2167  0.0528
12968W        W56062  19.689  16.328   1.061 -0.0878 -0.1964 -0.2651
12969W        W56063  18.898  16.739  30.607  0.1534  0.1800 -0.0660
12970W        W56064  17.844  14.878   0.437 -0.0301  0.0118 -0.0506
12971W        W56065  19.576  13.951   0.410 -0.0902  0.2285  0.2604
12972W        W56066  18.729  17.135  31.042  0.1348  0.0326  0.1058
12973W        W56067  18.677  14.248   2.066 -0.1426 -0.2369  0.0844
12974W        W56068  20.143  15.474   2.688  0.0585 -0.2077 -0.1305
12975W        W56069  19.431  16.964  30.671 -0.0419  0.0208  0.0504
12976W        W56070  18.187  15.715  29.496  0.0681  0.1897 -0.0512
12977W        W56071  16.682  16.181  30.772  0.0512 -0.4168 -0.0357
12978W        W56072  18.381  16.192   1.477  0.2016 -0.1171 -0.2078
12979W        W56073  19.540  15.524   0.920  0.0362  0.1529  0.1139
12980W        W56074  19.127  15.651   0.034  0.0681  0.1058  0.0974
12981W        W56075  20.155  16.656   1.457 -0.0150 -0.0637  0.0526
12982W        W56076  20.347  17.793   0.043 -0.0918  0.2412  0.0531
12983W        W56077  21.860  14.940   3.464 -0.2812  0.1063 -0.4175
12984W        W56078  18.114  16.992   0.793  0.0039  0.3286 -0.1268
12985W        W56079  17.914  17.335  30.862 -0.2078 -0.0084  0.0531
12986W        W56080  17.869  17.421  30.368 -0.0774 -0.1584  0.0241
12987W        W56081  21.559  15.780  31.714  0.1406  0.0112 -0.0199
12988W        W56082  20.477  16.978   0.526 -0.0472 -0.0648  0.0661
12989W        W56083  17.997  18.540   3.053  0.5255 -0.4512  0.2152
12990W        W56084  18.781  16.798  31.526 -0.2408 -0.0628  0.3090
12991W        W56085  20.359  17.571   1.462 -0.1511 -0.2401 -0.1592
12992W        W56086  18.094  17.990   3.080 -0.1379 -0.1782  0.0944
12993W        W56087  19.319  16.488   0.536 -0.1137 -0.2705  0.0527
12994W        W56088  21.498  16.297  31.716  0.1729 -0.0653  0.1649
12995W        W56089  17.705  16.791  31.351  0.2322  0.2169  0.2138
12996W        W56090  19.026  16.349   0.149 -0.2533  0.0637  0.2077
12997W        W56091  20.655  16.472   3.307  0.0446  0.1260  0.0507
12998W        W56092  16.558  16.300  31.556 -0.2013 -0.0476  0.2341
12999W        W56093  21.490  15.949   3.391  0.1837  0.0146  0.0833
13000W        W56094  18.582  17.446  29.001  0.0312  0.0227 -0.1766
13001W        W56095  20.057  15.165  31.844  0.0811 -0.1088  0.0986
13002W        W56096  18.081  14.767  29.826  0.3896  0.1206 -0.2865
13003W        W56097  19.670  13.821  31.053 -0.2420  0.2154 -0.0191
13004W        W56098  20.247  15.080   1.342 -0.1756  0.0700  0.1117
13005W        W56099  19.028  17.075  31.918  0.2233  0.3263 -0.4275
13006W        W56100  19.079  14.784   2.194  0.0292  0.1059  0.0778
13007W        W56101  19.914  16.359   0.508 -0.1627 -0.1622 -0.0051
13008W        W56102  17.835  15.687  31.532 -0.2081  0.2201  0.2473
13009W        W56103  20.517  16.380   1.189 -0.3880 -0.2231 -0.0314
13010W        W56104  19.903  17.347   1.265 -0.0382  0.0726 -0.0478
13011W        W56105  18.068  16.536  31.137 -0.0972  0.1623 -0.1857
13012W        W56106  20.469  17.485  31.608  0.0052 -0.0629  0.1611
13013W        W56107  21.186  17.048   0.042 -0.0116 -0.0950  0.1435
13014W        W56108  19.601  16.556   0.133 -0.1117 -0.0144  0.1639
13015W        W56109  18.532  16.410  29.867  0.1892 -0.0936 -0.0020
13016W        W56110  19.204  16.966   3.286 -0.3668 -0.1511  0.1421
13017W        W56111  17.480  14.970   0.082 -0.1293  0.1861 -0.1311
13018W        W56112  16.519  14.289  31.118 -0.1487 -0.0907  0.2348
13019W        W56113  20.154  16.580   1.980  0.1682  0.1531 -0.1146
13020W        W56114  17.640  18.506   1.792  0.0734 -0.0414 -0.0909
13021W        W56115  20.934  15.584  30.987 -0.2576  0.1500 -0.0852
13022W        W56116  19.754  15.871   1.197 -0.0632 -0.0414 -0.0991
13023W        W56117  20.776  18.474   1.218  0.1470  0.0805 -0.1065
13024W        W56118  21.105  17.716  31.005 -0.1477  0.0764  0.0986
13025W        W56119  19.990  13.586   0.424 -0.2645 -0.5424 -0.3314
13026W        W56120  18.638  15.242   0.656  0.2550 -0.1157 -0.0323
13027W        W56121  18.731  16.828  28.247  0.2632 -0.0462  0.0634
13028W        W56122  18.488  15.581  30.287 -0.1712  0.0674  0.0184
13029W        W56123  22.616  17.340   1.559 -0.1167 -0.0921 -0.1238
13030W        W56124  19.875  16.069  30.216  0.2174 -0.4203 -0.2568
13031W        W56125  18.463  17.454   1.986 -0.0757  0.1386  0.2567
13032W        W56126  18.625  15.977   1.870  0.0059  0.2198  0.2221
13033W        W56127  19.405  18.527   2.805  0.0791 -0.1006  0.1190
13034W        W56128  16.579  18.166  30.315  0.1715 -0.1492 -0.3034
13035W        W56129  17.593  16.234   0.469  0.0347 -0.1382 -0.2760
13036W        W56130  18.407  16.343  29.014  0.0519 -0.0823 -0.0078
13037W        W56131  17.885  16.093   1.766 -0.0047  0.2311 -0.1733
13038W        W56132  19.416  17.800   2.060  0.2689  0.3995  0.3676
13039W        W56133  19.527  14.629   0.750 -0.0822 -0.3073 -0.2043
13040W        W56134  18.203  14.214   2.147  0.3377 -0.0595 -0.3031
13041W        W56135  21.723  14.828   1.427  0.0173  0.0645 -0.1981
13042W        W56136  17.385  17.252  30.805  0.0070  0.0905  0.0889
13043W        W56137  22.206  17.563   0.130 -0.0561 -0.0372  0.3298
13044W        W56138  22.227  16.190   0.144 -0.4168 -0.1571  0.2248
13045W        W56139  20.114  16.823  31.146  0.2300  0.1394 -0.4598
13046W        W56140  17.691  15.956   0.943 -0.1833  0.0046  0.1638
13047W        W56141  18.876  16.049  31.715 -0.2166 -0.1656  0.0057
13048W        W56142  19.035  15.625   2.697  0.1296  0.1859 -0.0372
13049W        W56143  17.584  15.821   2.073 -0.0982 -0.0064 -0.0420
13050W        W56144  19.414  15.662   2.251 -0.0605 -0.0397 -0.2022
13051W        W56145  16.903  13.971  31.331 -0.0711 -0.1589 -0.2439
13052W        W56146  19.956  15.897   0.308  0.2508  0.1906  0.0816
13053W        W56147  18.205  15.421  31.793 -0.2686 -0.0595  0.0027
13054W        W56148  18.045  16.597  29.880  0.0183  0.4394  0.0386
13055W        W56149  21.984  14.766   2.088 -0.0038 -0.1426 -0.1387
13056W        W56150  20.764  17.081  31.692 -0.0468  0.3097  0.0081
13057W        W56151  21.206  17.566   2.038  0.0225  0.1640 -0.0546
13058W        W56152  19.967  17.373   0.214  0.1340 -0.0564  0.0009
13059W        W56153  18.684  15.489   2.249  0.1668  0.1410 -0.2049
13060W        W56154  18.757  16.343  30.336  0.2229  0.1944 -0.0906
13061W        W56155  17.326  17.436   1.068  0.2182  0.1296  0.0094
13062W        W56156  17.429  16.019  31.387 -0.1169 -0.0522 -0.1836
13063W        W56157  17.064  14.004   0.363 -0.2153 -0.1062 -0.1267
13064W        W56158  22.513  17.486   1.012 -0.0146 -0.0425 -0.2625
13065W        W56159  19.617  17.012  31.102  0.1697 -0.3373 -0.3497
13066W        W56160  19.007  17.240   0.770  0.3045 -0.0615 -0.0260
13067W        W56161  19.159  13.440   1.861 -0.0617  0.1176 -0.0131
13068W        W56162  21.249  15.955   1.490  0.0061 -0.1164 -0.1065
13069W        W56163  19.136  14.915  31.718 -0.0316  0.3165  0.0639
13070W        W56164  18.560  15.894  29.866 -0.1362  0.1674 -0.1883
13071W        W56165  20.699  16.684   0.066  0.2283 -0.1107 -0.0200
13072W        W56166  17.640  17.290  31.376  0.3709  0.2107  0.1900
13073W        W56167  17.014  16.272  31.350  0.3243  0.3588 -0.3209
13074W        W56168  19.178  17.388  30.766  0.5086  0.1613 -0.2497
13075W        W56169  21.809  15.810   0.620 -0.0981 -0.0047  0.0784
13076W        W56170  18.727  17.140   3.210 -0.3596  0.1968 -0.1301
13077W        W56171  19.147  15.554   0.528 -0.1007  0.1955 -0.1308
13078W        W56172  19.429  15.873  30.226 -0.4612  0.0224  0.0182
13079W        W56173  18.794  17.833   1.918 -0.1088  0.1127 -0.6319
13080W        W56174  18.744  14.102   0.232  0.0296  0.1003  0.1337
13081W        W56175  20.592  14.834  29.495  0.0438  0.0773 -0.3001
13082W        W56176  21.518  15.968   1.927 -0.3460  0.1326 -0.0117
13083W        W56177  20.155  17.897  31.429  0.0849 -0.4151 -0.2927
13084W        W56178  20.070  15.663  29.392  0.4067  0.0595  0.2066
13085W        W56179  19.522  15.135   0.590 -0.0856  0.0436  0.0827
13086W        W56180  18.048  17.570   2.854 -0.3004 -0.2520 -0.0792
13087W        W56181  21.746  16.551   0.109 -0.2121 -0.0515 -0.1284
13088W        W56182  20.913  17.085   2.737 -0.1056  0.2632 -0.0034
13089W        W56183  20.127  14.464  29.702 -0.0340 -0.2405 -0.3128
13090W        W56184  19.670  17.785  31.264  0.0749  0.1674 -0.2271
13091W        W56185  18.353  16.464   0.982 -0.1830  0.2161  0.0955
13092W        W56186  19.622  16.904   2.133  0.2775 -0.1435 -0.2259
13093W        W56187  21.356  15.685   0.911  0.1306  0.0870  0.2121
13094W        W56188  18.726  14.002   1.057 -0.0080 -0.3845 -0.5515
13095W        W56189  19.815  15.581  30.492 -0.2290 -0.0873  0.3209
13096W        W56190  19.902  14.974   0.838 -0.1250  0.4187  0.1124
13097W        W56191  18.135  17.277  28.819 -0.0561 -0.2243  0.1260
13098W        W56192  20.701  15.365   0.008 -0.0744 -0.0881 -0.1655
13099W        W56193  20.111  16.628   0.959  0.0024 -0.0851 -0.2272
13100W        W56194  18.806  15.709   3.124 -0.0177 -0.1956  0.2303
13101W        W56195  21.609  15.525   2.830  0.0620  0.0561 -0.1022
13102W        W56196  19.899  16.072  31.837 -0.0119  0.1527 -0.0633
13103W        W56197  18.903  15.072   0.204 -0.0882 -0.1610  0.1767
13104W        W56198  19.678  15.683  31.533 -0.2240 -0.3125 -0.1389
13105W        W56199  18.658  15.482   1.745 -0.2517 -0.2034 -0.1890
13106W        W56200  19.155  18.160   1.803 -0.4161  0.2190  0.1086
13107W        W56201  17.947  17.640   1.885  0.0447 -0.0826 -0.0610
13108W        W56202  21.580  17.288   2.140 -0.1287 -0.1067  0.1335
13109W        W56203  20.078  17.051  31.605  0.2411 -0.2177 -0.0132
13110W        W56204  18.735  15.735   0.721 -0.1739 -0.1151 -0.2864
13111W        W56205  20.240  14.459  30.744 -0.2408 -0.2671  0.3749
13112W        W56206  19.408  18.023  28.733 -0.1256  0.1884 -0.2348
13113W        W56207  18.387  16.747  30.288  0.1019 -0.0634 -0.2286
13114W        W56208  19.224  13.948   2.181  0.2071  0.0067  0.2100
13115W        W56209  19.451  17.844   3.295 -0.0935 -0.1766  0.1761
13116W        W56210  17.575  16.358  31.074  0.0408  0.1755  0.1474
13117W        W56211  20.803  15.959   1.765 -0.2906  0.1778 -0.1290
13118W        W56212  18.405  16.650   0.472  0.1377  0.1746  0.0439
13119W        W56213  20.959  15.346   0.443 -0.1391 -0.1448 -0.0424
13120W        W56214  17.622  19.246   1.726 -0.1842  0.0930 -0.3062
13121W        W56215  18.922  15.874  30.183  0.0164 -0.1152 -0.3862
13122W        W56216  17.910  16.738  30.391  0.0841 -0.1548  0.0941
13123W        W56217  20.841  15.064  31.262 -0.1196  0.0696  0.0593
13124W        W56218  20.254  15.651  30.256 -0.2926 -0.1487  0.1889
13125W        W56219  18.129  16.147   2.673  0.1033 -0.2540  0.0577
13126W        W56220  18.436  15.359   1.221  0.3176  0.1039  0.3233
13127W        W56221  18.292  17.843   1.579 -0.0449  0.0391 -0.1855
13128W        W56222  20.226  16.027   1.911  0.2337 -0.1067  0.1853
13129W        W56223  20.490  14.651  31.132 -0.4919  0.4290  0.0428
13130W        W56224  20.613  17.053   2.284 -0.1907  0.0557 -0.1731
13131W        W56225  18.390  16.276   2.234 -0.0587  0.2644 -0.1252
13132W        W56226  19.086  15.868  29.715 -0.0375  0.2055 -0.0514
13133W        W56227  21.230  14.906   0.541  0.0358  0.2152 -0.2962
13134W        W56228  18.740  16.138   1.051 -0.1191 -0.2073  0.1885
13135W        W56229  16.972  17.174  31.127 -0.0041 -0.0829  0.1674
13136W        W56230  19.989  17.531   2.778 -0.1649 -0.2211 -0.1431
13137W        W56231  19.922  16.427  30.869  0.0696  0.4097 -0.1321
13138W        W56232  18.070  16.146   0.607 -0.2565  0.0231 -0.1654
13139W        W56233  19.096  15.715   3.575 -0.1563  0.1131 -0.1247
13140W        W56234  22.121  17.220   1.551 -0.4272 -0.1330 -0.3173
13141W        W56235  19.152  16.705   1.083 -0.0753 -0.1009 -0.2252
13142W        W56236  18.652  15.935  30.639 -0.1998  0.2530 -0.0312
13143W        W56237  19.578  15.768   1.730 -0.1405 -0.1180  0.0067
13144W        W56238  20.865  17.247   1.835 -0.1685  0.2149 -0.1242
13145W        W56239  19.101  15.269   2.006 -0.2649  0.2116  0.2156
13146W        W56240  17.621  16.198  31.969 -0.2910 -0.1454 -0.3885
13147W        W56241  19.202  14.739   1.596 -0.1764 -0.1085 -0.0018
13148W        W56242  21.295  17.293  30.850 -0.3556  0.0464  0.1512
13149W        W56243  20.541  15.781   2.760 -0.0151 -0.0960 -0.1370
13150W        W56244  19.453  16.030   0.140 -0.0505 -0.3119 -0.0116
13151W        W56245  18.301  15.263   2.421  0.3586  0.1544 -0.1417
13152W        W56246  18.763  15.334  31.706  0.0368  0.0236  0.1797
13153W        W56247  19.858  14.423   0.446 -0.2491 -0.2019 -0.0620
13154W        W56248  19.076  17.344   1.829  0.0784  0.1807 -0.3084
13155W        W56249  18.220  16.962  30.796  0.1692 -0.0391  0.2701
13156W        W56250  18.586  17.610   2.856  0.4304 -0.0003  0.1198
13157W        W56251  20.045  14.249  31.223  0.0649 -0.1507 -0.4325
13158W        W56252  20.352  16.360  31.112 -0.1112 -0.2984 -0.2160
13159W        W56253  17.973  15.205   1.412  0.3512  0.2535 -0.0770
13160W        W56254  22.919  15.187   3.486 -0.2906  0.2582 -0.0371
13161W        W56255  19.256  15.704   1.316  0.2483 -0.3578  0.2040
13162W        W56256  20.915  15.753   2.431  0.0663 -0.1811  0.3959
13163W        W56257  18.347  14.837   1.451 -0.5887  0.2906  0.2167
13164W        W56258  21.778  16.620  31.178 -0.0180  0.0546 -0.3196
13165W        W56259  19.058  15.699   1.874 -0.0164  0.0980  0.0534
13166W        W56260  21.138  18.188   2.777 -0.0235 -0.1075 -0.1041
13167W        W56261  18.778  16.511   1.937 -0.0679  0.0438 -0.0708
13168W        W56262  17.180  14.620  31.842 -0.0938 -0.0602 -0.4076
13169W        W56263  18.146  15.275  30.494 -0.0695  0.1449  0.0489
13170W        W56264  19.443  16.158   2.412  0.1167 -0.0229  0.0035
13171W        W56265  21.271  16.951   1.166  0.1433  0.2043  0.0178
13172W        W56266  18.715  17.627  31.269  0.0643 -0.3018  0.2141
13173W        W56267  19.845  14.916   0.273 -0.1356  0.0807 -0.2921
13174W        W56268  18.820  16.445   0.706 -0.0970  0.0256  0.0526
13175W        W56269  19.145  14.625  31.196  0.0394 -0.2210 -0.0276
13176W        W56270  19.149  15.645  31.500  0.4276  0.1519 -0.0668
13177W        W56271  19.214  16.594  31.752  0.1287 -0.1491 -0.3794
13178W        W56272  19.681  14.219   2.245 -0.1485  0.6368 -0.0341
13179W        W56273  21.344  17.538  31.889 -0.1932 -0.1273  0.0906
13180W        W56274  19.036  15.369   0.958  0.3823 -0.0307 -0.0970
13181W        W56275  19.153  15.226   1.517 -0.0429 -0.0791  0.1202
13182W        W56276  21.496  15.540   2.324  0.0701 -0.3105  0.0233
13183W        W56277  20.063  16.188   1.500 -0.1132  0.0814 -0.0468
13184W        W56278  19.302  17.263   2.350 -0.3903  0.0033  0.0180
13185W        W56279  20.624  17.995   0.387 -0.3787 -0.2077  0.2168
13186W        W56280  20.467  15.346  31.093 -0.0672  0.2021 -0.1075
13187W        W56281  20.390  15.154   0.862  0.2831 -0.4143 -0.1589
13188W        W56282  20.251  15.601  31.955 -0.0283  0.0918  0.1417
13189W        W56283  18.826  15.360  29.998  0.2321 -0.1246  0.0279
13190W        W56284  17.081  15.982  31.736 -0.2268 -0.4735  0.1773
13191W        W56285  20.044  15.963   2.548 -0.0828 -0.4171 -0.0551
13192W        W56286  17.784  15.588  29.160 -0.3683 -0.1365  0.0444
13193W        W56287  19.661  15.296   1.338 -0.1636 -0.0914 -0.0585
13194W        W56288  18.502  18.209  30.131  0.0105  0.5345  0.1941
13195W        W56289  19.678  17.358  31.538 -0.1376  0.0405  0.1871
13196W        W56290  20.308  14.463  31.582 -0.0221  0.4251 -0.0874
13197W        W56291  17.283  15.566  31.630 -0.0434 -0.0484  0.0472
13198W        W56292  19.878  17.933   2.354  0.0154 -0.0653 -0.2663
13199W        W56293  20.747  15.856  31.956 -0.0599 -0.3639  0.4381
13200W        W56294  20.977  17.621   0.531  0.3558  0.1292  0.0795
13201W        W56295  21.307  16.780   1.686  0.1835  0.1627 -0.1484
13202W        W56296  19.523  14.900  31.063 -0.1563  0.0483  0.1346
13203W        W56297  19.557  15.333   1.918 -0.0687 -0.0289  0.1089
13204W        W56298  18.969  18.160  30.451 -0.0840  0.1127 -0.1516
13205W        W56299  19.944  15.647   2.121 -0.0470  0.6377 -0.1895
13206W        W56300  17.732  18.037   1.644  0.0979 -0.2237 -0.0368
13207W        W56301  17.835  17.158   1.763 -0.3038  0.2084 -0.3056
13208W        W56302  19.219  17.519  31.235  0.2302  0.1645  0.0156
13209W        W56303  19.401  14.844   2.584 -0.2211 -0.0599  0.0789
13210W        W56304  20.467  15.860   1.318 -0.1428  0.1096  0.0165
13211W        W56305  20.424  16.480   0.520  0.0957 -0.0852 -0.0522
13212W        W56306  20.275  14.131   0.822 -0.2985 -0.0560  0.0053
13213W        W56307  20.379  17.397   1.971  0.3088 -0.0624 -0.1814
13214W        W56308  19.196  16.218   1.032  0.0441 -0.0068 -0.0846
13215W        W56309  21.108  17.060   2.265 -0.0335 -0.0537  0.3910
13216W        W56310  21.119  15.225   0.908  0.1245  0.1482 -0.0050
13217W        W56311  19.468  17.518   0.011 -0.3720 -0.0858  0.0625
13218W        W56312  19.091  16.840   2.108 -0.4569 -0.2811 -0.1689
13219W        W56313  21.036  16.643   2.456  0.0837 -0.1250 -0.0713
13220W        W56314  21.158  16.341   0.108  0.1533 -0.0768 -0.0974
13221W        W56315  18.676  14.870  31.309  0.0693  0.2459  0.2447
13222W        W56316  19.805  18.047  30.840 -0.0601 -0.0009  0.0517
13223W        W56317  17.515  17.772   2.939  0.1254 -0.0895  0.0751
13224W        W56318  18.413  16.421  31.488 -0.1531 -0.0244 -0.0308
13225W        W56319  17.939  17.292   0.418 -0.0716 -0.0572 -0.2228
13226W        W56320  20.679  15.550   0.860  0.0982 -0.1753 -0.1493
13227W        W56321  18.300  15.922   1.014  0.1103  0.2057 -0.0578
13228W        W56322  20.221  17.633   0.978 -0.0630 -0.0775  0.2142
13229W        W56323  19.055  15.241  31.244 -0.2106  0.1190  0.0159
13230W        W56324  18.146  17.678   0.680 -0.2000  0.1212 -0.2098
13231W        W56325  18.670  17.902  29.605 -0.0518 -0.0677 -0.2222
13232W        W56326  20.065  17.342  31.187  0.1091 -0.0323 -0.1200
13233W        W56327  16.908  16.748  31.653 -0.1159  0.0922 -0.1330
13234W        W56328  20.113  17.062   2.214 -0.3461  0.4401 -0.1040
13235W        W56329  22.359  16.631  31.239 -0.1438 -0.0126 -0.2038
13236W        W56330  20.898  15.638   1.281  0.1755 -0.0973 -0.1180
13237W        W56331  20.563  16.072  30.292  0.1540  0.1247 -0.2123
13238W        W56332  20.432  17.002   1.654 -0.3919 -0.1504  0.2011
13239W        W56333  18.453  15.335   0.205 -0.0043  0.2133 -0.1320
13240W        W56334  20.131  15.151  30.364  0.3656 -0.4271 -0.0239
13241W        W56335  18.642  16.627   1.393 -0.0063 -0.2509  0.1307
13242W        W56336  21.027  16.198   2.208  0.2437 -0.0936 -0.0187
13243W        W56337  16.830  18.196   1.338 -0.3975  0.2037  0.0366
13244W        W56338  19.022  16.405  31.315 -0.3942  0.2512  0.3383
13245W        W56339  18.601  16.012  29.340 -0.2339  0.1370 -0.3190
13246W        W56340  18.236  15.685   0.531 -0.0457 -0.1887 -0.1689
13247W        W56341  20.246  14.710   0.517 -0.0205 -0.2302 -0.1732
13248W        W56342  19.269  16.370  30.435  0.0305 -0.2409  0.0056
13249W        W56343  17.764  14.950   0.997 -0.1590  0.2279  0.1648
13250W        W56344  18.467  17.257   0.586  0.0171 -0.0718  0.0880
13251W        W56345  19.114  16.667   1.626  0.0721 -0.0684 -0.2915
13252W        W56346  19.483  17.061   0.872  0.0841  0.1278 -0.2322
13253W        W56347  16.832  14.756  30.357 -0.0971 -0.1081 -0.2346
13254W        W56348  21.783  15.901  30.851  0.1473  0.3232  0.3219
13255W        W56349  18.219  16.707   1.838  0.2824 -0.1354 -0.2840
13256W        W56350  20.481  15.001   1.789 -0.2034 -0.1585  0.1083
13257W        W56351  17.338  16.511  31.696  0.1197 -0.4160 -0.0076
13258W        W56352  18.941  14.552   0.229 -0.3438  0.1189 -0.2441
13259W        W56353  21.342  17.443   2.555 -0.1254  0.0564 -0.2656
13260W        W56354  18.215  15.714   1.564  0.0936  0.0491  0.1103
13261W        W56355  17.910  15.334  30.922  0.1398  0.0069  0.2021
13262W        W56356  20.842  16.758   1.985  0.1512  0.0664 -0.2210
13263W        W56357  20.342  15.195   0.329 -0.1330  0.1469 -0.2943
13264W        W56358  21.591  16.276   0.624 -0.0525 -0.2477 -0.1525
13265W        W56359  17.117  15.426   0.160 -0.3714 -0.0633 -0.0222
13266W        W56360  20.728  15.623  31.437  0.2030  0.2076 -0.1261
13267W        W56361  17.972  16.699  31.800  0.1821  0.2327  0.2571
13268W        W56362  18.439  17.222   1.119 -0.1608  0.1144 -0.1699
13269W        W56363  20.787  16.779   0.914  0.0079  0.0999  0.2879
13270W        W56364  18.281  14.542  31.697 -0.2456 -0.3354 -0.0916
13271W        W56365  21.605  17.752  30.900 -0.2833  0.2236  0.2542
13272W        W56366  21.185  15.565  31.901  0.1585 -0.2480  0.1375
13273W        W56367  18.069  18.084  31.745 -0.1418 -0.1002 -0.1365
13274W        W56368  20.186  16.468  31.679 -0.0115  0.2811  0.1425
13275W        W56369  20.994  17.099   0.544 -0.2477 -0.2320 -0.0852
13276W        W56370  18.110  15.238   0.710  0.1193 -0.0586  0.0690
13277W        W56371  20.814  17.501   0.071 -0.1175  0.0627 -0.3344
13278W        W56372  20.918  17.665  31.467 -0.3666  0.0317 -0.1031
13279W        W56373  20.094  13.947  29.619  0.2570 -0.0672 -0.1338
13280W        W56374  19.529  15.538   0.250  0.5322  0.2005 -0.2800
13281W        W56375  16.968  17.676   0.737 -0.1189 -0.2426 -0.2311
13282W        W56376  20.774  14.819   0.776 -0.0370  0.0329 -0.1826
13283W        W56377  20.467  15.593   2.177 -0.0842 -0.3010 -0.0014
13284W        W56378  19.266  17.929  30.916  0.0798  0.0135  0.1152
13285W        W56379  20.166  14.693   2.051  0.0720 -0.0022 -0.2738
13286W        W56380  20.625  17.488   2.871 -0.1260 -0.2271  0.1042
13287W        W56381  18.003  18.980   2.118 -0.2226 -0.0952  0.1647
13288W        W56382  19.968  16.919  30.704 -0.1442 -0.0919  0.0574
13289W        W56383  19.454  16.174   1.521  0.0337  0.0412  0.1954
13290W        W56384  19.609  15.913   0.608 -0.0619 -0.0814 -0.0302
13291W        W56385  18.956  16.289  30.810  0.0892 -0.2345  0.0404
13292W        W56386  20.366  17.146   0.045 -0.2261 -0.5011  0.3865
13293W        W56387  18.688  15.780   1.350  0.2001  0.1023  0.2518
13294W        W56388  21.295  18.004  31.654  0.2950  0.1455 -0.0841
13295W        W56389  18.275  15.947  31.622  0.0151 -0.2576 -0.1044
13296W        W56390  21.919  16.171  31.295  0.2521 -0.0446  0.2868
13297W        W56391  19.361  14.108  31.907 -0.2687 -0.0408  0.1503
13298W        W56392  18.993  16.851   0.448  0.0423  0.0097  0.1477
13299W        W56393  17.303  17.121  28.372  0.2450 -0.0420  0.0381
13300W        W56394  18.428  17.489  30.919 -0.0464 -0.0435 -0.0797
13301W        W56395  17.958  15.555   1.099 -0.2671  0.0331  0.2745
13302W        W56396  18.956  16.164   1.532  0.2893 -0.4319 -0.1713
13303W        W56397  18.634  17.073   1.766  0.1459  0.2764 -0.2401
13304W        W56398  17.976  15.823   0.020  0.2645 -0.0223 -0.2044
13305W        W56399  19.856  14.498  31.902 -0.1147 -0.1926 -0.0358
13306W        W56400  20.653  18.097  31.669  0.0743 -0.2486 -0.0887
13307W        W56401  18.244  15.330   1.910 -0.3532  0.2162  0.2875
13308W        W56402  17.258  14.751  31.295  0.2625  0.1954  0.0976
13309W        W56403  21.762  17.742  31.940  0.0932  0.3194  0.3211
13310W        W56404  21.162  17.237  31.409 -0.2002  0.1489  0.1490
13311W        W56405  18.771  15.439  30.810  0.1475  0.4131  0.1381
13312W        W56406  20.401  17.644   2.451 -0.0717 -0.0091  0.1026
13313W        W56407  18.253  16.810  28.962 -0.0152 -0.0194  0.3261
13314W        W56408  19.863  16.594   2.377  0.1868 -0.0259 -0.1104
13315W        W56409  18.744  14.926   1.735 -0.0894  0.0319 -0.1473
13316W        W56410  18.843  15.833  27.543 -0.0054 -0.1257 -0.1288
13317W        W56411  19.665  16.533   1.733  0.0650  0.0396 -0.1157
13318W        W56412  19.947  17.674  31.824  0.0572  0.0925 -0.1637
13319W        W56413  18.168  17.472  31.329  0.1983  0.1436 -0.1622
13320W        W56414  18.738  17.777   2.430 -0.1030  0.2654 -0.0956
13321W        W56415  19.921  17.535   1.766 -0.1013  0.1273 -0.4695
13322W        W56416  16.845  15.348   1.950 -0.1292  0.5675  0.1372
13323W        W56417  20.596  17.507  31.094 -0.2299  0.1160 -0.0294
13324W        W56418  19.790  17.093   2.605 -0.0072  0.0042 -0.1349
13325W        W56419  20.621  17.967  31.179  0.2451  0.0694  0.0230
13326W        W56420  21.537  14.622   2.408 -0.0048 -0.0238 -0.0598
13327W        W56421  19.122  16.030   0.528  0.2103 -0.0014 -0.1196
13328W        W56422  18.633  16.237   2.785 -0.2127  0.2492  0.0393
13329W        W56423  18.936  17.102   1.321 -0.0411 -0.2257 -0.4213
13330W        W56424  20.144  17.851   0.504  0.1523 -0.1621 -0.1456
13331W        W56425  18.093  14.956  31.954  0.4116 -0.0782  0.1485
13332W        W56426  19.280  13.525  30.575  0.0369  0.1876 -0.0746
13333W        W56427  21.493  17.740   0.373  0.0850  0.3049  0.0339
13334W        W56428  19.402  16.113  31.580  0.0206  0.2779 -0.2048
13335W        W56429  17.867  14.523  31.208  0.2008  0.1752 -0.0942
13336W        W56430  19.809  16.162   2.051  0.2514 -0.1855  0.1713
13337W        W56431  19.750  16.846   0.505 -0.0239 -0.1075 -0.1301
13338W        W56432  21.066  16.358   1.718  0.1410  0.0550 -0.1060
13339W        W56433  18.612  15.829   0.114  0.2240  0.0891  0.0453
13340W        W56434  18.851  15.825  31.137 -0.1123  0.1458  0.1533
13341W        W56435  20.222  18.027   1.981 -0.0249  0.0392  0.3940
13342W        W56436  20.428  18.097   1.393  0.1345 -0.0643  0.3364
13343W        W56437  19.631  17.905   2.822  0.2414 -0.0518 -0.1709
13344W        W56438  19.989  15.452   0.596  0.2410  0.2837  0.0558
13345W        W56439  18.305  14.100  31.949  0.0268 -0.2507 -0.1054
13346W        W56440  18.163  16.305   0.120  0.3022  0.0949 -0.2418
13347W        W56441  20.161  16.014   0.922 -0.1415  0.0818  0.1816
13348W        W56442  20.641  16.306  31.752  0.1560 -0.0415 -0.1525
13349W        W56443  18.667  16.863   0.835 -0.0528  0.1776 -0.3289
13350W        W56444  19.833  13.538  30.594 -0.0679 -0.4036 -0.1989
13351W        W56445  17.700  17.913   0.611  0.0092 -0.2519 -0.0939
13352W        W56446  19.682  16.728   1.292  0.3174 -0.0389  0.0860
13353W        W56447  18.295  17.818   5.522  0.1396 -0.1797  0.0269
13354W        W56448  19.263  15.855   4.082 -0.0847  0.1495 -0.2584
13355W        W56449  22.467  14.910   3.505 -0.1450  0.1072 -0.0038
13356W        W56450  21.102  16.252   3.640  0.3429  0.0214  0.0515
13357W        W56451  18.448  15.380   3.843  0.5557  0.0702 -0.0531
13358W        W56452  21.006  18.088   3.428  0.1880  0.1408 -0.2855
13359W        W56453  18.633  15.847   5.910 -0.1254 -0.1601  0.4340
13360W        W56454  20.359  16.534   4.889 -0.0210 -0.3569 -0.2982
13361W        W56455  21.802  17.579   6.439  0.0078  0.1779  0.2650
13362W        W56456  20.564  16.395   1.719  0.0721 -0.0260  0.0919
13363W        W56457  20.927  15.858   6.096  0.3857  0.0305  0.4041
13364W        W56458  19.312  18.323   6.688 -0.1546 -0.0803 -0.1063
13365W        W56459  19.863  15.524   3.092  0.1237  0.2693 -0.0886
13366W        W56460  17.495  14.441   3.963  0.2970 -0.1204  0.0339
13367W        W56461  20.922  16.632   5.803 -0.1099 -0.2511  0.4100
13368W        W56462  18.169  16.631   2.507  0.0671 -0.1245 -0.3701
13369W        W56463  19.692  17.168   6.486  0.1878 -0.0820 -0.1674
13370W        W56464  20.215  15.518   3.533 -0.1567 -0.0253  0.1350
13371W        W56465  19.300  17.161   4.918  0.0870  0.1194 -0.2753
13372W        W56466  20.681  14.504   6.500 -0.1702  0.0224  0.0123
13373W        W56467  20.459  15.999   6.394 -0.2185 -0.0031  0.0647
13374W        W56468  19.051  18.370   4.376 -0.3273  0.0358 -0.1942
13375W        W56469  18.494  15.833   2.577 -0.0696  0.0502 -0.1844
13376W        W56470  18.693  16.299   4.277  0.0681 -0.0502  0.0901
13377W        W56471  19.678  16.721   6.193  0.2376  0.2540 -0.1347
13378W        W56472  19.526  14.803   4.142 -0.0695 -0.1708  0.1947
13379W        W56473  21.532  16.442   4.670  0.1684  0.1102 -0.0974
13380W        W56474  20.111  18.333   6.437  0.2239  0.1435  0.0950
13381W        W56475  20.791  16.979   4.986 -0.0738 -0.0198 -0.0163
13382W        W56476  20.644  15.479   7.491  0.0360  0.1819  0.1449
13383W        W56477  17.988  18.395   4.372  0.1140  0.1032  0.0421
13384W        W56478  19.326  18.026   4.713 -0.1532  0.1464  0.0885
13385W        W56479  19.090  16.519   5.065 -0.0683 -0.1025 -0.0863
13386W        W56480  22.399  17.020   3.716 -0.1763 -0.3487 -0.5825
13387W        W56481  21.536  17.651   4.636  0.0437 -0.3514 -0.4252
13388W        W56482  19.658  18.573   6.304  0.3743 -0.0415 -0.2542
13389W        W56483  19.713  17.845   3.827 -0.1779  0.2786  0.2701
13390W        W56484  20.463  17.742   7.039  0.1387  0.0894 -0.1806
13391W        W56485  18.270  19.317   6.519 -0.0552 -0.0736 -0.1403
13392W        W56486  21.096  16.765   6.443  0.1991 -0.0087 -0.1601
13393W        W56487  20.303  16.351   2.876  0.0957  0.0544  0.3146
13394W        W56488  18.507  18.252   3.330 -0.0376  0.2186  0.0149
13395W        W56489  20.290  17.124   4.732  0.0561  0.2158  0.0824
13396W        W56490  18.924  18.126   7.790  0.3438 -0.3126  0.1759
13397W        W56491  18.816  17.957   4.753  0.2116 -0.0673  0.0538
13398W        W56492  21.254  13.838   6.683  0.0194  0.0588  0.1837
13399W        W56493  18.494  18.404   2.796  0.2526  0.1213 -0.0250
13400W        W56494  22.165  15.201   3.812 -0.0646  0.3359 -0.1629
13401W        W56495  19.006  15.188   2.494  0.1218  0.0305 -0.2262
13402W        W56496  21.119  15.388   4.017  0.0960  0.0824  0.0175
13403W        W56497  18.999  14.157   4.488  0.2274  0.2436 -0.1314
13404W        W56498  19.168  17.523   4.534 -0.3013 -0.0987 -0.0556
13405W        W56499  19.834  15.269   4.817  0.1407  0.2402 -0.0299
13406W        W56500  20.219  17.036   7.097  0.0128  0.0827  0.0862
13407W        W56501  18.787  17.277   4.239 -0.3504  0.1991  0.0139
13408W        W56502  21.269  16.881   5.541 -0.4493 -0.2783 -0.1905
13409W        W56503  18.297  17.690   6.351 -0.0663  0.3288 -0.1160
13410W        W56504  20.016  17.171   3.666 -0.1070 -0.1900 -0.1927
13411W        W56505  20.971  19.026   2.698  0.3261  0.0386  0.1353
13412W        W56506  20.544  16.814   4.387  0.0968 -0.2858 -0.0168
13413W        W56507  19.771  17.700   4.407 -0.3045  0.1391 -0.0761
13414W        W56508  18.904  16.916   4.663 -0.3398 -0.0174 -0.2069
13415W        W56509  19.582  16.249   6.441 -0.0091 -0.3730  0.0996
13416W        W56510  19.312  16.243   5.557  0.0604  0.0553 -0.3905
13417W        W56511  17.963  15.021   3.093 -0.0449 -0.2139  0.1596
13418W        W56512  20.646  16.459   6.559 -0.0964 -0.2764 -0.2115
13419W        W56513  17.194  17.810   5.453  0.3708 -0.2264 -0.0858
13420W        W56514  22.500  14.521   6.296  0.0293  0.1363 -0.0761
13421W        W56515  20.721  16.056   4.771 -0.0710 -0.0842 -0.0004
13422W        W56516  21.359  16.560   5.991  0.0163 -0.0531 -0.3607
13423W        W56517  20.304  17.098   2.656 -0.2568 -0.3412  0.3258
13424W        W56518  20.458  13.132   6.624 -0.0547 -0.2739 -0.1613
13425W        W56519  21.826  14.233   4.864 -0.2062 -0.2573 -0.1442
13426W        W56520  19.714  16.861   3.333  0.3161 -0.2169 -0.1971
13427W        W56521  18.842  18.849   2.728  0.0927 -0.2593  0.1919
13428W        W56522  21.718  17.240   4.867  0.0247  0.0481 -0.2950
13429W        W56523  20.675  16.264   4.292 -0.4235  0.0674 -0.2434
13430W        W56524  18.794  17.885   5.649  0.0328 -0.2663 -0.0979
13431W        W56525  20.833  16.013   7.822  0.1115  0.0291  0.1598
13432W        W56526  20.352  15.981   6.964  0.0345  0.1912 -0.3105
13433W        W56527  18.632  18.760   2.124 -0.0545  0.1385  0.0929
13434W        W56528  17.933  17.686   6.026 -0.1585  0.2127  0.0287
13435W        W56529  17.806  17.667   3.342  0.1033 -0.1966  0.0581
13436W        W56530  19.473  15.226   5.421  0.0212  0.1775 -0.0619
13437W        W56531  19.965  17.636   5.248 -0.2111  0.1351  0.0752
13438W        W56532  20.883  14.218   4.921  0.1555  0.3094 -0.2079
13439W        W56533  19.771  16.190   5.841  0.1544 -0.0535  0.0160
13440W        W56534  21.598  15.856   4.763 -0.1328  0.0919 -0.2035
13441W        W56535  18.634  17.592   3.846 -0.0573 -0.0452 -0.1371
13442W        W56536  21.446  18.252   3.165 -0.2465  0.0999 -0.0815
13443W        W56537  21.262  15.947   2.724 -0.0726 -0.1208 -0.1036
13444W        W56538  20.995  16.766   3.606 -0.3688 -0.0130 -0.4119
13445W        W56539  19.678  16.093   4.529 -0.0238  0.0555  0.1711
13446W        W56540  19.501  15.662   4.652  0.2608  0.0477  0.1424
13447W        W56541  18.819  16.631   6.129  0.1911  0.1737  0.3278
13448W        W56542  18.370  14.929   5.050  0.0904  0.1408  0.0632
13449W        W56543  23.481  16.744   5.206  0.2503 -0.0805 -0.3182
13450W        W56544  18.413  13.256   2.234 -0.1799 -0.0863  0.4360
13451W        W56545  22.175  15.731   3.849 -0.3104 -0.0686 -0.0828
13452W        W56546  18.902  16.844   3.948  0.2715 -0.0227 -0.1698
13453W        W56547  17.328  16.763   3.647 -0.1104  0.1221 -0.0643
13454W        W56548  21.438  15.772   6.068 -0.0395 -0.3667 -0.1199
13455W        W56549  20.200  17.944   2.835 -0.1121 -0.0786 -0.1296
13456W        W56550  21.679  17.181   5.481 -0.0704  0.2332 -0.3150
13457W        W56551  21.554  17.357   3.692 -0.0104  0.2961 -0.0723
13458W        W56552  19.366  16.496   4.039 -0.1686  0.1388  0.0890
13459W        W56553  18.421  16.543   3.144 -0.2180  0.0655 -0.0377
13460W        W56554  17.418  18.236   3.075  0.0285 -0.3517  0.0589
13461W        W56555  20.127  16.879   6.609  0.0097 -0.1588 -0.0830
13462W        W56556  19.007  16.539   2.560  0.2262 -0.0480 -0.1241
13463W        W56557  21.668  16.769   5.053  0.0350  0.3348  0.0331
13464W        W56558  19.861  16.890   4.145  0.0857  0.2085  0.0192
13465W        W56559  18.523  18.101   6.485 -0.0391 -0.1962  0.0932
13466W        W56560  20.958  15.780   5.553 -0.0615  0.1010  0.2186
13467W        W56561  21.627  16.996   4.424  0.1031 -0.0438  0.2654
13468W        W56562  20.244  15.645   4.888  0.1256 -0.0560 -0.3213
13469W        W56563  17.645  14.198   2.555  0.1253  0.0596  0.2508
13470W        W56564  20.446  17.766   4.416 -0.1025  0.1741 -0.0408
13471W        W56565  19.681  18.313   3.102  0.2241 -0.0477  0.2836
13472W        W56566  19.334  16.022   4.976 -0.1046  0.0619 -0.4330
13473W        W56567  20.429  16.943   3.945  0.1049 -0.0242  0.2968
13474W        W56568  22.469  16.606   5.010  0.2307  0.1177  0.3238
13475W        W56569  18.890  16.997   7.235 -0.2321 -0.1271 -0.2561
13476W        W56570  21.353  15.083   6.824  0.1394 -0.0590 -0.0406
13477W        W56571  17.719  16.574   2.694 -0.0686 -0.2222 -0.2191
13478W        W56572  20.578  17.441   8.341 -0.1017 -0.2578  0.0100
13479W        W56573  19.817  14.523   3.164  0.1670 -0.0858 -0.3700
13480W        W56574  21.912  15.633   4.283 -0.0634  0.1438 -0.0232
13481W        W56575  20.050  16.689   7.561 -0.5388  0.0322 -0.1611
13482W        W56576  20.648  16.493   3.808  0.0012 -0.4903  0.1722
13483W        W56577  19.621  15.755   2.705 -0.0921 -0.2043 -0.1816
13484W        W56578  19.259  14.471   3.301  0.0637 -0.0265  0.0185
13485W        W56579  17.954  16.963   6.621  0.4295 -0.4022 -0.0221
13486W        W56580  19.646  15.240   4.329 -0.0300 -0.0676 -0.3773
13487W        W56581  19.314  17.045   6.827  0.2444 -0.0075 -0.1927
13488W        W56582  19.151  16.158   2.858  0.2216 -0.0944 -0.1813
13489W        W56583  22.303  17.747   3.425 -0.2639  0.3226  0.1189
13490W        W56584  19.086  17.393   5.853  0.3100  0.0916 -0.5962
13491W        W56585  21.932  15.915   6.982  0.0608 -0.2162  0.0261
13492W        W56586  22.027  17.331   3.486 -0.1497  0.2270  0.1872
13493W        W56587  19.371  15.259   3.945  0.0456 -0.2891 -0.2557
13494W        W56588  17.590  18.491   4.006 -0.0234  0.1129  0.0442
13495W        W56589  20.365  15.015   3.744  0.0933  0.2654  0.3158
13496W        W56590  17.908  19.781   2.400 -0.1739 -0.2743 -0.0096
13497W        W56591  21.140  15.329   6.173  0.2196 -0.0786  0.0610
13498W        W56592  20.574  16.015   5.291  0.1994 -0.2804 -0.1010
13499W        W56593  20.554  14.529   6.981 -0.0358  0.0565  0.1601
13500W        W56594  21.618  16.731   7.822 -0.0423 -0.2453 -0.2562
13501W        W56595  19.847  15.901   3.504 -0.0252 -0.0068 -0.1275
13502W        W56596  20.900  16.323   6.216  0.2777 -0.0736  0.2966
13503W        W56597  18.434  17.035   3.861 -0.1940 -0.0426  0.3807
13504W        W56598  20.830  16.069   6.856  0.1232  0.1287 -0.0181
13505W        W56599  18.855  17.596   6.267  0.0600  0.2418 -0.4483
13506W        W56600  19.398  17.767   6.078  0.1352 -0.1070  0.0032
13507W        W56601  21.713  16.686   6.923 -0.1384  0.0667 -0.0619
13508W        W56602  20.266  16.174   3.598 -0.1433  0.0348 -0.1750
13509W        W56603  21.470  15.306   7.265  0.0199  0.1720 -0.0593
13510W        W56604  20.368  16.628   2.485  0.1309 -0.2389  0.1499
13511W        W56605  20.350  18.359   4.186  0.1165 -0.0201  0.0610
13512W        W56606  19.243  16.165   1.960  0.1239  0.1515  0.0498
13513W        W56607  20.222  14.561   3.476  0.4367 -0.0519  0.0548
13514W        W56608  20.396  17.949   6.120  0.4470 -0.1252  0.1812
13515W        W56609  18.289  17.897   2.093  0.1968  0.0636 -0.0856
13516W        W56610  19.795  17.172   7.271 -0.2231  0.0462 -0.2008
13517W        W56611  18.343  17.722   4.638 -0.0347 -0.1422 -0.0205
13518W        W56612  21.392  14.174   5.069 -0.0404  0.1008 -0.2274
13519W        W56613  17.228  18.785   5.432  0.0977  0.1264 -0.3268
13520W        W56614  19.728  16.245   2.803  0.0106  0.0770  0.0460
13521W        W56615  17.096  16.856   2.345  0.3809  0.0315 -0.1547
13522W        W56616  20.755  14.769   4.817 -0.2321  0.1678  0.2037
13523W        W56617  19.435  16.746   2.565  0.0792 -0.1644  0.0149
13524W        W56618  19.549  14.770   4.672 -0.0478 -0.1559  0.1637
13525W        W56619  20.550  15.537   6.256 -0.1486 -0.1866 -0.1426
13526W        W56620  17.166  17.499   4.708  0.1733 -0.0864 -0.0893
13527W        W56621  20.075  16.350   6.448  0.3140  0.0794  0.2514
13528W        W56622  20.591  15.290   2.641 -0.2533 -0.0645 -0.0012
13529W        W56623  21.505  17.053   6.474 -0.0340  0.2823 -0.1631
13530W        W56624  19.463  16.121   7.156 -0.2002  0.0901 -0.1541
13531W        W56625  17.661  14.716   2.272  0.0179 -0.0983  0.3191
13532W        W56626  23.371  16.856   6.112 -0.0311 -0.2135 -0.0433
13533W        W56627  19.189  16.361   4.486 -0.2657  0.0845  0.2603
13534W        W56628  18.718  17.808   4.296 -0.1420 -0.1958 -0.1307
13535W        W56629  20.103  17.403   6.743  0.0963  0.0168 -0.2257
13536W        W56630  18.071  17.436   3.751 -0.0336 -0.1840 -0.1241
13537W        W56631  19.227  16.996   4.256  0.0550  0.1848 -0.0481
13538W        W56632  19.453  15.448   7.091  0.0427  0.0596 -0.1866
13539W        W56633  22.545  16.478   5.477  0.0026 -0.0224 -0.3013
13540W        W56634  20.489  15.740   4.369  0.0655  0.1030  0.1103
13541W        W56635  19.433  15.303   2.768 -0.1804 -0.2509  0.1400
13542W        W56636  21.021  16.127   5.162  0.2278  0.0336  0.2592
13543W        W56637  20.215  16.478   4.044  0.5484 -0.2004 -0.2169
13544W        W56638  20.495  16.783   6.248  0.3940 -0.1239 -0.0253
13545W        W56639  19.210  16.612   7.175 -0.1486  0.2407 -0.0695
13546W        W56640  21.536  14.995   4.643 -0.0054 -0.0278  0.1558
13547W        W56641  22.798  16.937   3.413 -0.2195  0.2963 -0.1771
13548W        W56642  21.338  15.691   5.183  0.1503  0.0284 -0.0853
13549W        W56643  19.106  17.462   3.131  0.0386  0.1763 -0.2712
13550W        W56644  17.958  16.441   6.411 -0.0266 -0.1486  0.0255
13551W        W56645  17.487  16.830   4.121  0.1799  0.0552  0.0176
13552W        W56646  21.031  14.361   5.465  0.2085 -0.0848  0.0127
13553W        W56647  18.396  16.680   4.954  0.2170 -0.1980 -0.4031
13554W        W56648  19.059  18.161   2.810 -0.1751 -0.0285  0.0227
13555W        W56649  18.534  17.400   7.417  0.1775  0.1552 -0.0729
13556W        W56650  22.687  14.337   3.531 -0.0824  0.0876  0.3344
13557W        W56651  21.064  17.677   2.994  0.1297  0.1243  0.1954
13558W        W56652  20.627  15.881   3.937  0.1238 -0.1099  0.3149
13559W        W56653  22.038  15.462   7.194  0.2155  0.2163 -0.3193
13560W        W56654  20.204  16.707   3.475  0.0115 -0.2423  0.0703
13561W        W56655  20.956  14.383   7.379 -0.3992 -0.1950  0.2179
13562W        W56656  19.144  15.212   4.427  0.0903  0.0957  0.2451
13563W        W56657  22.303  17.554   4.055  0.0782  0.0774 -0.7222
13564W        W56658  18.592  16.301   5.798  0.3700  0.1294  0.1369
13565W        W56659  21.048  16.820   7.332 -0.3541  0.0730 -0.0439
13566W        W56660  17.755  16.541   7.158  0.2081 -0.0853  0.0806
13567W        W56661  19.601  15.408   3.500  0.1242  0.0958  0.0064
13568W        W56662  18.606  14.888   2.295  0.1388  0.2301 -0.1016
13569W        W56663  20.203  16.331   5.488  0.2237 -0.1753  0.1810
13570W        W56664  21.903  17.798   3.790  0.1534 -0.0122 -0.2020
13571W        W56665  19.786  17.397   4.019 -0.1508  0.0817 -0.0795
13572W        W56666  21.673  16.577   5.534  0.1821  0.2100  0.2506
13573W        W56667  19.070  17.514   5.287 -0.0561  0.1012 -0.2863
13574W        W56668  20.054  16.124   4.937 -0.3112  0.1577  0.1244
13575W        W56669  20.615  16.743   2.907  0.1305  0.0263 -0.2353
13576W        W56670  19.040  17.781   3.634 -0.1658  0.1485  0.0756
13577W        W56671  19.877  14.880   6.236 -0.1818 -0.3578  0.2999
13578W        W56672  21.917  17.349   5.882  0.0126  0.2448  0.2150
13579W        W56673  18.565  14.391   2.556 -0.2329  0.0842 -0.0738
13580W        W56674  20.302  15.329   5.795 -0.0974 -0.1804 -0.1279
13581W        W56675  21.730  16.256   6.048 -0.1495 -0.0151 -0.3676
13582W        W56676  19.688  16.669   6.687  0.3788  0.0012 -0.2377
13583W        W56677  20.159  15.825   5.503 -0.3322 -0.3535  0.2356
13584W        W56678  20.419  17.957   5.298 -0.0313 -0.3689 -0.0899
13585W        W56679  21.015  16.074   3.155  0.0208 -0.4186 -0.0748
13586W        W56680  24.161  15.508   5.787 -0.3710 -0.1125  0.1326
13587W        W56681  20.543  14.856   4.231  0.0660  0.0511 -0.1735
13588W        W56682  20.640  15.811   3.361 -0.2380  0.0440 -0.0194
13589W        W56683  18.846  14.975   4.754  0.0214  0.3287  0.0470
13590W        W56684  21.960  15.772   9.057 -0.3289  0.1611  0.3114
13591W        W56685  18.924  16.600   3.090  0.1571 -0.1446 -0.0695
13592W        W56686  21.674  15.482   6.864 -0.0852 -0.1353  0.0460
13593W        W56687  20.240  16.151   4.466 -0.1853 -0.0572 -0.2931
13594W        W56688  21.220  16.134   4.552 -0.2467 -0.1569  0.0946
13595W        W56689  20.971  15.239   5.260  0.0953  0.2497 -0.0818
13596W        W56690  19.950  16.683   5.752  0.4699 -0.0808  0.3610
13597W        W56691  19.923  18.255   7.374 -0.3394  0.1310  0.1572
13598W        W56692  19.106  16.980   2.826  0.0585 -0.1281  0.2599
13599W        W56693  19.414  16.605   3.020 -0.1513 -0.0923  0.0133
13600W        W56694  21.309  17.051   6.033 -0.1082 -0.1149  0.2506
13601W        W56695  22.244  16.567   6.088  0.2926 -0.1516 -0.0914
13602W        W56696  20.391  15.398   3.125  0.3288  0.1312  0.0578
13603W        W56697  21.362  16.246   6.366 -0.1196  0.0763  0.0883
13604W        W56698  18.217  17.398   4.233  0.0445  0.2267 -0.1582
13605W        W56699  19.762  14.474   3.743  0.0645  0.0041  0.0454
13606W        W56700  18.691  18.757   7.296  0.1367 -0.1693  0.0604
13607W        W56701  18.421  16.994   7.146  0.1140  0.4802  0.1632
13608W        W56702  19.268  18.238   5.953  0.1915  0.2137 -0.2385
13609W        W56703  17.746  14.807   4.288 -0.0348  0.1119 -0.1076
13610W        W56704  21.158  14.739   5.150 -0.0201  0.1260 -0.1144
13611W        W56705  21.766  16.156   4.327  0.0036  0.0767 -0.0298
13612W        W56706  22.292  17.407   6.919  0.3652 -0.0588 -0.2371
13613W        W56707  20.329  16.512   6.916  0.2215 -0.0719 -0.2654
13614W        W56708  19.251  16.998   5.469  0.1151  0.0398 -0.1491
13615W        W56709  21.378  17.491   6.183  0.1719 -0.3795 -0.1572
13616W        W56710  21.922  17.074   3.886  0.1470  0.0390  0.2005
13617W        W56711  19.385  17.972   4.222  0.1424 -0.1021 -0.1559
13618W        W56712  18.880  16.672   5.546 -0.0043  0.1529 -0.1580
13619W        W56713  19.862  16.273   6.911  0.1889  0.0594  0.1023
13620W        W56714  20.794  17.136   5.974  0.0463  0.3222 -0.2664
13621W        W56715  19.426  15.008   3.152  0.0594  0.3515  0.3323
13622W        W56716  18.774  18.152   3.905 -0.1255 -0.2052 -0.1587
13623W        W56717  16.933  17.279   6.823  0.0078  0.2952  0.0960
13624W        W56718  19.404  18.980   3.881 -0.0336  0.1275  0.0299
13625W        W56719  19.931  16.677   2.900 -0.0210 -0.1312  0.1046
13626W        W56720  19.529  17.303   2.979  0.0075 -0.1553 -0.3714
13627W        W56721  20.649  18.131   5.737  0.1981  0.0368 -0.1684
13628W        W56722  19.456  16.173   3.267 -0.2706  0.2904  0.1303
13629W        W56723  19.754  18.484   5.655 -0.4167 -0.0170 -0.2025
13630W        W56724  17.380  16.949   1.569 -0.0586  0.0498 -0.2192
13631W        W56725  19.239  19.559   2.175  0.2998 -0.1583 -0.0212
13632W        W56726  19.559  17.331   5.329  0.0555  0.0860 -0.0452
13633W        W56727  21.908  16.806   7.357  0.0588 -0.1084 -0.0352
13634W        W56728  21.124  15.625   1.973  0.3390  0.2495  0.0989
13635W        W56729  22.853  17.386   5.570 -0.0290 -0.2035 -0.1372
13636W        W56730  21.551  15.536   3.784 -0.0777  0.1772 -0.2161
13637W        W56731  20.535  16.818   7.565 -0.2550 -0.0550 -0.0219
13638W        W56732  19.123  15.695   5.688 -0.1674 -0.1199 -0.2493
13639W        W56733  18.866  16.215   3.349 -0.1805  0.2220  0.1240
13640W        W56734  18.807  16.815   6.792 -0.3290  0.2286  0.1148
13641W        W56735  21.083  14.090   8.357  0.0893  0.1786 -0.0474
13642W        W56736  17.754  18.570   6.677  0.1380  0.2379 -0.0261
13643W        W56737  21.746  18.599   3.549 -0.0200 -0.2067 -0.0708
13644W        W56738  18.157  16.519   4.477  0.4366  0.0193 -0.3744
13645W        W56739  20.181  16.800   5.275  0.3094  0.1704 -0.1992
13646W        W56740  22.577  15.238   5.568  0.0990  0.1217 -0.0201
13647W        W56741  19.475  16.985   3.774  0.0398 -0.2263 -0.0363
13648W        W56742  19.318  15.693   3.099  0.2632 -0.0578 -0.1680
13649W        W56743  19.644  16.765   5.356  0.2914 -0.0653  0.2160
13650W        W56744  18.747  17.377   4.737 -0.0354  0.1254  0.0804
13651W        W56745  19.276  20.331   6.174  0.1918 -0.1211  0.0118
13652W        W56746  17.193  16.596   4.495 -0.1048  0.0641  0.0558
13653W        W56747  21.882  15.434   5.423  0.1461 -0.1045 -0.2625
13654W        W56748  19.937  17.561   6.333 -0.0069  0.0439 -0.3388
13655W        W56749  21.772  13.915   5.893  0.0465  0.1703  0.1109
13656W        W56750  19.456  16.124   3.738  0.1399  0.1031 -0.0158
13657W        W56751  22.516  14.946   5.994  0.1623 -0.1804  0.0319
13658W        W56752  20.694  16.941   6.777 -0.2655  0.1509 -0.1668
13659W        W56753  17.997  15.684   4.179 -0.1397  0.3745 -0.2482
13660W        W56754  19.682  15.609   3.988 -0.1687  0.1127  0.4235
13661W        W56755  22.036  17.098   6.412 -0.0365  0.0447  0.0147
13662W        W56756  21.261  15.447   3.337 -0.3124  0.0159  0.0355
13663W        W56757  20.668  17.279   7.215 -0.1419  0.0855 -0.0921
13664W        W56758  18.725  16.747   3.519  0.0217 -0.0390  0.1526
13665W        W56759  20.187  15.911   3.120 -0.1681  0.0841 -0.1735
13666W        W56760  18.525  16.792   4.277 -0.1411 -0.0558 -0.0693
13667W        W56761  20.997  15.631   4.418 -0.0618 -0.0017 -0.4009
13668W        W56762  21.739  18.062   7.891 -0.2460 -0.1980  0.0329
13669W        W56763  19.090  14.779   3.949  0.2367 -0.1449 -0.0559
13670W        W56764  21.521  17.544   3.213  0.1243  0.0720 -0.0434
13671W        W56765  23.035  17.225   6.017  0.0509  0.0389  0.0972
13672W        W56766  18.825  17.868   3.201  0.2770 -0.0564  0.2091
13673W        W56767  19.963  15.692   4.496 -0.0367  0.0039  0.1202
13674W        W56768  21.181  17.407   5.228  0.0287 -0.1080  0.1458
13675W        W56769  18.655  16.322   4.741  0.2380  0.0883  0.1192
13676W        W56770  21.845  16.653   4.179 -0.1449 -0.2172  0.0705
13677W        W56771  21.193  16.586   5.194 -0.0777  0.3053 -0.2761
13678W        W56772  19.769  15.201   2.336  0.1773 -0.1928 -0.0274
13679W        W56773  19.876  16.556   4.516 -0.3497 -0.1520  0.2642
13680W        W56774  17.741  17.980   3.996 -0.1252  0.3668  0.1104
13681W        W56775  21.124  15.650   6.525  0.1725  0.1594 -0.0136
13682W        W56776  20.828  15.636   4.997 -0.2639 -0.1819 -0.1909
13683W        W56777  19.060  18.101   2.291  0.1016  0.0896  0.0902
13684W        W56778  20.926  14.183   6.842  0.3973 -0.0151  0.0589
13685W        W56779  19.875  18.102   5.982 -0.1957  0.2959 -0.2007
13686W        W56780  19.347  17.061   7.368 -0.1726 -0.0738 -0.1897
13687W        W56781  18.224  17.051   2.184  0.0261  0.0043  0.1143
13688W        W56782  19.082  16.736   7.636  0.0800 -0.3410 -0.1096
13689W        W56783  19.936  18.099   5.424  0.0731 -0.0299 -0.0855
13690W        W56784  20.207  17.295   4.272  0.1221  0.0941  0.2090
13691W        W56785  20.995  17.572   3.491 -0.1378  0.1406 -0.3504
13692W        W56786  18.965  14.830   2.826  0.1073 -0.1945 -0.1784
13693W        W56787  20.708  17.364   4.391 -0.0359 -0.0887 -0.0838
13694W        W56788  18.940  15.218   3.665  0.0478 -0.0784  0.2534
13695W        W56789  21.814  15.507   3.387 -0.0796 -0.0823  0.0522
13696W        W56790  20.043  14.905   4.577 -0.2021 -0.3770 -0.0482
13697W        W56791  19.164  17.445   6.988 -0.3604  0.3109  0.1544
13698W        W56792  17.817  15.482   2.314  0.0593  0.1703  0.1510
13699W        W56793  19.735  17.497   2.322 -0.2393 -0.0225 -0.0489
13700W        W56794  20.712  16.134   5.756  0.0594 -0.0567  0.1740
13701W        W56795  20.647  15.055   6.094  0.1908 -0.1961  0.1135
13702W        W56796  19.281  15.294   4.919 -0.0257 -0.0331  0.1094
13703W        W56797  18.641  17.167   6.367  0.0448 -0.0146 -0.0163
13704W        W56798  18.606  15.832   3.519 -0.3914 -0.1939  0.0260
13705W        W56799  21.104  17.153   3.998 -0.1724 -0.0953  0.1565
13706W        W56800  19.886  15.191   3.913  0.0606  0.0465 -0.0026
13707W        W56801  18.069  15.573   4.676  0.1320 -0.2926  0.0988
13708W        W56802  22.089  16.357   3.178 -0.1734 -0.1433  0.0947
13709W        W56803  19.824  16.527   3.742 -0.3141 -0.2531 -0.3695
13710W        W56804  19.404  13.448   4.342  0.0854 -0.0702 -0.1432
13711W        W56805  21.912  17.137   7.743 -0.2298 -0.1580  0.0024
13712W        W56806  18.791  17.240   2.419  0.1712 -0.2460 -0.0689
13713W        W56807  19.246  16.355   6.752  0.2341 -0.1337 -0.0837
13714W        W56808  18.898  15.212   5.225 -0.2909 -0.1224 -0.0560
13715W        W56809  17.531  16.293   3.436 -0.3234 -0.0112  0.1080
13716W        W56810  21.100  15.110   4.436 -0.1470  0.0351 -0.0367
13717W        W56811  20.784  17.598   5.609  0.2751  0.0738 -0.3387
13718W        W56812  20.703  17.961   2.610  0.2084 -0.2256 -0.0977
13719W        W56813  20.065  17.236   5.513 -0.2245  0.0560 -0.1215
13720W        W56814  19.628  18.044   6.408 -0.0500 -0.0082  0.1661
13721W        W56815  18.575  14.896   5.543  0.1985 -0.3894 -0.1531
13722W        W56816  20.183  15.634   4.009  0.0091 -0.0678  0.0681
13723W        W56817  20.693  16.537   5.346  0.3177  0.2181  0.0967
13724W        W56818  21.443  16.410   2.634 -0.0187  0.0845  0.0462
13725W        W56819  21.563  16.198   5.157 -0.1196  0.2297  0.2178
13726W        W56820  19.839  16.084   4.026  0.0940  0.0384 -0.1924
13727W        W56821  18.084  14.913   5.767 -0.1529 -0.1071  0.1301
13728W        W56822  19.270  16.677   6.396 -0.0222  0.3869 -0.0581
13729W        W56823  20.930  16.548   4.698 -0.2389 -0.0840  0.0017
13730W        W56824  18.934  15.460   4.088  0.0087  0.0357  0.1287
13731W        W56825  21.357  15.066   3.677 -0.0268  0.0963  0.0248
13732W        W56826  18.600  18.282   2.347  0.0620  0.2020  0.2529
13733W        W56827  19.623  16.390   4.984 -0.2101  0.0531 -0.0237
13734W        W56828  19.967  16.323   3.249 -0.1135  0.1904  0.2077
13735W        W56829  20.394  17.373   5.964 -0.3247  0.0722 -0.2206
13736W        W56830  20.749  17.092   5.494 -0.0069 -0.0783 -0.0390
13737W        W56831  20.397  16.856   5.714 -0.1407  0.0185  0.0188
13738W        W56832  18.961  17.266   3.686 -0.3241 -0.1212  0.1506
13739W        W56833  22.037  15.960   3.417 -0.0836  0.0689 -0.0657
13740W        W56834  21.177  18.285   5.329  0.3171  0.0452  0.0418
13741W        W56835  21.791  18.061   8.567  0.2243  0.3798  0.3280
13742W        W56836  20.974  17.306   6.441 -0.2114  0.0700 -0.0031
13743W        W56837  21.014  15.753   3.694 -0.1087  0.0940 -0.0537
13744W        W56838  19.978  15.367   5.286 -0.0234 -0.0174  0.2059
13745W        W56839  18.170  16.151   4.083  0.0684 -0.2236 -0.2715
13746W        W56840  19.629  17.224   4.489  0.1770 -0.1330 -0.0489
13747W        W56841  20.831  15.364   5.784  0.2154 -0.2620  0.1417
13748W        W56842  20.237  15.237   4.224 -0.0101  0.0564  0.1082
13749W        W56843  20.810  15.266   3.577  0.2524 -0.1510  0.0857
13750W        W56844  19.438  19.212   6.956  0.1602 -0.0636  0.4077
13751W        W56845  21.179  16.465   6.859 -0.0245 -0.1378 -0.3796
13752W        W56846  18.740  14.806   9.270 -0.0066 -0.1478  0.0074
13753W        W56847  19.165  16.197   9.454 -0.2923  0.2328  0.1013
13754W        W56848  20.711  15.561   6.845 -0.1441  0.0838 -0.1647
13755W        W56849  22.542  16.810   8.721  0.0174  0.3693  0.3173
13756W        W56850  18.138  15.293   6.567 -0.2021 -0.2308 -0.1743
13757W        W56851  21.549  18.848   9.773  0.0635 -0.0881 -0.0311
13758W        W56852  22.009  17.324   8.362 -0.1745 -0.1809  0.0497
13759W        W56853  21.578  16.383   9.680 -0.0172 -0.2120 -0.3424
13760W        W56854  21.476  15.876   8.241 -0.0315  0.1270  0.2876
13761W        W56855  19.487  17.089   8.529 -0.4007 -0.3867  0.0003
13762W        W56856  20.112  14.433   8.161 -0.0048  0.0718 -0.0098
13763W        W56857  16.530  14.444   8.039  0.1301 -0.0317 -0.3133
13764W        W56858  21.455  16.866   9.319 -0.0373 -0.2148 -0.1140
13765W        W56859  18.783  16.642   8.058  0.0336  0.2269  0.0772
13766W        W56860  18.773  16.645  10.072  0.0819 -0.1088 -0.0698
13767W        W56861  20.969  15.976   8.290 -0.0845  0.0517 -0.2381
13768W        W56862  20.877  17.909   8.351 -0.1068  0.1159  0.1949
13769W        W56863  15.592  13.947   9.175  0.1780 -0.1364 -0.0402
13770W        W56864  20.124  17.027   7.875  0.2584  0.2402  0.0729
13771W        W56865  18.602  17.025   5.897  0.1359 -0.0582 -0.2354
13772W        W56866  17.200  16.441   8.648 -0.0072  0.0012 -0.2712
13773W        W56867  19.663  16.262   8.405 -0.1520  0.2620  0.2220
13774W        W56868  22.190  13.714   8.652  0.5557  0.1652 -0.1320
13775W        W56869  21.610  15.826   8.697  0.2228 -0.0988 -0.2085
13776W        W56870  18.588  16.620   8.978  0.0196 -0.3038  0.0371
13777W        W56871  19.888  17.801   9.237 -0.0138  0.1256 -0.2949
13778W        W56872  18.263  15.767   9.399 -0.0448 -0.0621  0.0023
13779W        W56873  17.811  18.188   9.570  0.2425  0.0355  0.1057
13780W        W56874  19.408  17.582   7.432 -0.2889 -0.0941  0.2570
13781W        W56875  21.569  16.721   8.833  0.0693  0.1233 -0.2608
13782W        W56876  18.496  18.367   7.554 -0.0587  0.1138 -0.0525
13783W        W56877  21.390  15.817   9.204  0.1132 -0.0202  0.3871
13784W        W56878  20.091  14.965   9.295  0.0201 -0.1563 -0.0032
13785W        W56879  20.362  15.882   7.802 -0.4672 -0.1417  0.2372
13786W        W56880  19.034  17.191   9.918 -0.0199 -0.0200  0.1680
13787W        W56881  18.307  16.212   8.778  0.2181  0.0726 -0.3153
13788W        W56882  19.023  18.472   8.154  0.2664  0.1854  0.1668
13789W        W56883  20.875  14.594   7.897  0.1529  0.1228  0.2271
13790W        W56884  19.767  16.127   5.365 -0.3875 -0.0274 -0.1363
13791W        W56885  20.628  15.140   7.934 -0.2564 -0.0890  0.4189
13792W        W56886  19.249  15.033   8.448 -0.0052 -0.2579 -0.0987
13793W        W56887  17.537  17.656  11.203  0.0682 -0.1065 -0.3444
13794W        W56888  17.197  16.054   8.171 -0.2395  0.0159  0.0929
13795W        W56889  19.698  15.177   8.646  0.1047 -0.0736  0.1153
13796W        W56890  20.644  14.011   9.620 -0.1598  0.1441  0.0781
13797W        W56891  17.651  16.849   8.570 -0.1067 -0.0221  0.0175
13798W        W56892  18.828  16.306   7.667  0.2591 -0.0478  0.0590
13799W        W56893  20.758  16.486   7.094 -0.3501  0.1780 -0.1610
13800W        W56894  20.601  17.376   9.668  0.0970  0.3976  0.3023
13801W        W56895  22.228  17.220   7.380 -0.0199 -0.0210  0.2212
13802W        W56896  19.113  17.433   8.342 -0.2663 -0.3545 -0.2120
13803W        W56897  19.931  15.717   7.630 -0.2104 -0.2056 -0.0789
13804W        W56898  20.643  14.807   9.076 -0.2469  0.0660  0.0595
13805W        W56899  19.548  17.163  10.122  0.0580 -0.0069 -0.0518
13806W        W56900  20.089  17.011  10.123  0.0123  0.0555 -0.2839
13807W        W56901  21.151  15.655   7.090 -0.3748  0.1393  0.1110
13808W        W56902  19.616  13.675   7.962  0.2555  0.0867 -0.0287
13809W        W56903  19.027  13.853   9.063  0.1763 -0.0623 -0.6334
13810W        W56904  18.732  15.758   7.537  0.0671 -0.0741  0.1882
13811W        W56905  18.718  17.172   8.127  0.2055  0.0399  0.1096
13812W        W56906  21.140  17.321   9.510 -0.3026 -0.2753 -0.0974
13813W        W56907  21.237  16.251   5.621 -0.2045 -0.2609  0.4701
13814W        W56908  20.857  18.392  10.148 -0.0420 -0.1405 -0.3720
13815W        W56909  19.960  19.017   7.913  0.3647 -0.1455  0.1030
13816W        W56910  19.219  17.079   9.439 -0.0449  0.2351 -0.0644
13817W        W56911  17.727  16.181   6.767 -0.0711  0.0037  0.0427
13818W        W56912  16.757  13.909   9.647 -0.1987  0.0030 -0.2449
13819W        W56913  20.378  16.970   8.326 -0.1832  0.3999  0.2285
13820W        W56914  21.325  14.665   7.177 -0.1405 -0.3937 -0.0053
13821W        W56915  21.213  12.562  10.064 -0.0029 -0.3065  0.2113
13822W        W56916  17.069  16.359   7.472  0.1349 -0.0842 -0.0216
13823W        W56917  22.007  18.774   7.294  0.1227 -0.1667  0.0498
13824W        W56918  20.104  14.758   8.824  0.0214 -0.0017 -0.2235
13825W        W56919  21.290  17.017   6.932 -0.2683 -0.3353 -0.0241
13826W        W56920  18.236  16.360   9.280 -0.1146  0.0849 -0.1356
13827W        W56921  18.758  16.143   9.079 -0.0465  0.2314  0.3164
13828W        W56922  17.349  15.822   8.640  0.0084  0.0439 -0.1964
13829W        W56923  18.415  14.951   7.176 -0.1098 -0.0663 -0.0974
13830W        W56924  20.118  14.263   9.054 -0.0695 -0.0891  0.1453
13831W        W56925  19.812  16.739   9.739 -0.0462  0.3616 -0.2987
13832W        W56926  18.526  18.170   8.060 -0.2437  0.1494  0.2420
13833W        W56927  21.196  16.843   8.480  0.1557  0.3810 -0.3290
13834W        W56928  20.379  16.916   8.916 -0.3654 -0.1125  0.0450
13835W        W56929  23.129  18.914  10.221  0.1157 -0.2042  0.0003
13836W        W56930  18.185  14.802   9.292 -0.1674  0.1372  0.1897
13837W        W56931  19.447  14.855   6.594 -0.0442  0.0978  0.0600
13838W        W56932  18.835  17.435   9.318  0.0899 -0.0922  0.1879
13839W        W56933  19.527  17.081   9.050 -0.0737  0.0638 -0.0273
13840W        W56934  19.652  15.849   8.032  0.1516 -0.1197 -0.1085
13841W        W56935  22.116  17.962   8.157 -0.2305 -0.0887 -0.2189
13842W        W56936  21.989  15.969   8.410  0.0509  0.2423  0.3195
13843W        W56937  20.349  15.037   9.736  0.1167 -0.2287  0.2557
13844W        W56938  20.561  16.190   8.165  0.0287 -0.3004 -0.1249
13845W        W56939  19.898  15.802   7.112 -0.0318  0.1193  0.2569
13846W        W56940  20.194  17.381   9.273  0.1562  0.1042 -0.0448
13847W        W56941  19.780  17.759   8.112  0.0178  0.1103 -0.0834
13848W        W56942  17.735  16.922   7.600  0.1399  0.1160 -0.2489
13849W        W56943  19.558  16.131   9.124  0.0875 -0.4983  0.3907
13850W        W56944  20.956  14.583   8.453  0.2232  0.2190 -0.1266
13851W        W56945  19.616  15.219   7.500 -0.1052 -0.0472 -0.1106
13852W        W56946  20.090  15.038   8.294  0.0964 -0.2417 -0.0211
13853W        W56947  20.953  15.165   7.138  0.0587  0.0071 -0.0534
13854W        W56948  22.358  16.404   9.033 -0.0700 -0.0171 -0.0190
13855W        W56949  20.115  15.856   6.022  0.0981 -0.1980 -0.1461
13856W        W56950  19.708  15.292   5.846  0.1197 -0.1000 -0.2012
13857W        W56951  20.626  16.568   9.535 -0.4913 -0.2018 -0.1237
13858W        W56952  20.740  15.367   8.828  0.0388 -0.3073  0.0433
13859W        W56953  20.430  15.683   8.530  0.0264 -0.0548 -0.1813
13860W        W56954  22.608  18.104   8.275 -0.0819  0.1919  0.2143
13861W        W56955  18.284  17.402   8.263  0.0695  0.0986  0.2550
13862W        W56956  20.839  16.469   8.566  0.0376 -0.4063 -0.1112
13863W        W56957  18.863  14.681   8.016  0.0068 -0.0521 -0.1780
13864W        W56958  19.301  17.687   6.543  0.0392 -0.0607 -0.0807
13865W        W56959  19.101  14.196   8.124  0.3035 -0.2045 -0.1479
13866W        W56960  18.959  17.717   7.337  0.1333  0.4814  0.2547
13867W        W56961  19.251  16.279   9.979 -0.1250  0.1618 -0.0380
13868W        W56962  19.515  13.316   8.711  0.0687  0.1197  0.1151
13869W        W56963  19.922  15.115   7.138  0.0671 -0.1291 -0.1306
13870W        W56964  21.095  14.527   9.293 -0.0824  0.0600 -0.1469
13871W        W56965  18.946  16.154   7.222  0.2665  0.0939  0.0015
13872W        W56966  18.892  14.030  11.211 -0.4459 -0.0515 -0.1764
13873W        W56967  16.483  16.518   9.407 -0.2295  0.1951  0.2714
13874W        W56968  21.421  15.376   8.933  0.0026 -0.1216 -0.0573
13875W        W56969  20.805  15.165   6.571 -0.1625 -0.3236  0.0089
13876W        W56970  19.550  17.691   8.577 -0.1579 -0.0930  0.0384
13877W        W56971  18.302  16.365   7.940  0.1231 -0.1501 -0.1205
13878W        W56972  18.611  15.198   6.795  0.3905 -0.1981 -0.2054
13879W        W56973  19.992  16.899   9.259  0.3287  0.1092  0.0447
13880W        W56974  19.570  16.840   7.758  0.1906 -0.1185  0.0179
13881W        W56975  20.636  16.927  10.049  0.0756 -0.0843 -0.1083
13882W        W56976  19.856  17.435   8.880  0.0716 -0.0373 -0.0663
13883W        W56977  22.025  13.521  10.036 -0.2999 -0.2146  0.2883
13884W        W56978  19.614  18.133   8.898  0.0837 -0.0315 -0.0569
13885W        W56979  19.532  15.768   8.545 -0.1193 -0.0843 -0.0049
13886W        W56980  18.602  16.939   7.682 -0.4010  0.1146  0.0713
13887W        W56981  20.242  13.970   8.599  0.1260 -0.0609 -0.0967
13888W        W56982  21.156  16.428   7.647  0.1953 -0.6341  0.0793
13889W        W56983  16.886  15.295   9.266 -0.1452  0.2161  0.2296
13890W        W56984  18.780  13.957   9.491 -0.0695  0.3276  0.3842
13891W        W56985  18.126  17.187   9.974  0.1578 -0.0951  0.1037
13892W        W56986  20.942  14.743   6.839 -0.1247 -0.1170  0.0718
13893W        W56987  18.686  16.287   6.774 -0.1378  0.0280  0.1938
13894W        W56988  20.397  15.730   9.701  0.1292  0.0505  0.0336
13895W        W56989  19.808  14.395   8.547  0.1188 -0.0458  0.2647
13896W        W56990  20.301  17.826   9.626  0.0571 -0.2278  0.0524
13897W        W56991  20.332  16.548  10.024  0.2048  0.0475 -0.2600
13898W        W56992  19.075  15.410   7.608 -0.0385  0.2407 -0.0073
13899W        W56993  18.649  16.996   8.594 -0.0599  0.0926  0.3172
13900W        W56994  20.591  16.063   9.357  0.1660 -0.2875 -0.2197
13901W        W56995  19.112  16.789   8.458  0.1103 -0.0844  0.0366
13902W        W56996  19.133  15.300   8.829 -0.0921 -0.1292  0.0778
13903W        W56997  19.236  14.586   9.315 -0.0163  0.3762 -0.0034
13904W        W56998  22.167  17.812  10.090 -0.0086 -0.1103  0.1466
13905W        W56999  20.938  15.140   9.795  0.1963  0.1648  0.0842
13906W        W57000  17.444  13.698   8.305  0.0409  0.0558 -0.0426
13907W        W57001  22.306  18.079   7.724 -0.0498 -0.0043 -0.2369
13908W        W57002  20.048  16.477   8.957  0.1393  0.0697  0.1840
13909W        W57003  17.402  15.967   7.763 -0.0608 -0.2944 -0.1658
13910W        W57004  19.819  16.783   8.279 -0.1347 -0.1210  0.2482
13911W        W57005  18.491  15.315   9.247  0.1891 -0.3429  0.2301
13912W        W57006  19.039  17.363   8.798 -0.1553 -0.0235  0.3492
13913W        W57007  19.930  17.734   7.118  0.1539  0.0457 -0.1046
13914W        W57008  19.444  16.587   9.277  0.1532  0.0242 -0.1824
13915W        W57009  20.893  13.797   7.257  0.2479  0.0104 -0.2186
13916W        W57010  21.699  17.268   9.736  0.1661 -0.0750  0.1861
13917W        W57011  19.797  13.822   8.779 -0.2911 -0.0036  0.1372
13918W        W57012  22.305  17.239   8.828  0.0662  0.2354 -0.0679
13919W        W57013  17.781  15.840   9.272 -0.2107 -0.0528 -0.1631
13920W        W57014  21.750  16.054   7.837  0.1654  0.0486  0.0500
13921W        W57015  20.744  13.307   7.221 -0.1480 -0.4362 -0.4655
13922W        W57016  18.077  14.537   6.467  0.3435 -0.1075  0.0095
13923W        W57017  20.184  19.200   9.325  0.1144  0.0780 -0.0755
13924W        W57018  22.138  18.733   9.850 -0.1352  0.1178 -0.1507
13925W        W57019  18.931  17.966   6.818 -0.1904 -0.1087 -0.1055
13926W        W57020  20.830  13.518   9.639 -0.0333 -0.1487 -0.0929
13927W        W57021  18.866  15.635   9.148 -0.0774 -0.2240 -0.1731
13928W        W57022  20.325  14.819   7.833 -0.0006 -0.1599  0.0471
13929W        W57023  20.256  15.492   7.180 -0.1630  0.2757 -0.0707
13930W        W57024  20.059  15.996   9.274  0.2391  0.1368 -0.1761
13931W        W57025  21.133  16.494   9.516  0.0403 -0.2246  0.2730
13932W        W57026  18.858  14.168   7.658 -0.0473  0.3047 -0.0719
13933W        W57027  21.073  18.224   9.216  0.0957 -0.1338  0.7000
13934W        W57028  21.472  16.012   6.812  0.1704  0.0671  0.1623
13935W        W57029  20.415  15.907  10.260 -0.0410 -0.2216  0.0440
13936W        W57030  19.839  15.285   9.825  0.0467 -0.0500 -0.1004
13937W        W57031  21.283  16.458   8.148 -0.1573 -0.0623  0.3776
13938W        W57032  18.019  15.660   7.467 -0.1109  0.1588 -0.1701
13939W        W57033  20.489  15.032   6.898  0.3996 -0.2217  0.2986
13940W        W57034  21.521  17.051   7.438  0.1315 -0.1487 -0.0527
13941W        W57035  21.878  16.405   8.181 -0.1762  0.0912 -0.2718
13942W        W57036  20.610  13.437   8.551 -0.0573 -0.3069 -0.2083
13943W        W57037  18.367  16.098   7.097 -0.2530 -0.2277  0.1002
13944W        W57038  18.992  17.299   7.630 -0.2717 -0.0230  0.0093
13945W        W57039  19.458  15.816   7.564 -0.1155  0.0510 -0.1423
13946W        W57040  20.423  17.483   8.834  0.0583  0.0678  0.0537
13947W        W57041  19.883  15.787   6.474  0.2086 -0.1400 -0.3982
13948W        W57042  17.414  16.481   8.139 -0.1308 -0.0800  0.0701
13949W        W57043  19.745  12.881   8.862  0.0827  0.1814  0.1310
13950W        W57044  19.213  17.583   9.663 -0.1377  0.0680 -0.0213
13951W        W57045  18.299  16.900   9.299 -0.1510 -0.2645 -0.0879
13952W        W57046  19.473  13.650   9.145  0.0196  0.1220 -0.1001
13953W        W57047  20.496  15.270   9.335 -0.2155 -0.0141 -0.1321
13954W        W57048  20.788  17.065   8.613  0.0064  0.2504 -0.0595
13955W        W57049  18.892  15.235   7.195  0.1071  0.0332  0.0298
13956W        W57050  21.641  17.661   8.228 -0.0527 -0.0120  0.0932
13957W        W57051  18.241  16.621   9.724  0.2274 -0.0755 -0.2888
13958W        W57052  19.830  15.614   8.973  0.0061  0.0570  0.1853
13959W        W57053  20.144  15.217   7.620 -0.1380 -0.1107 -0.3573
13960W        W57054  20.714  15.916   7.289 -0.1747  0.0521 -0.3506
13961W        W57055  16.598  18.592   9.012  0.1039 -0.0779 -0.0361
13962W        W57056  20.242  17.523   7.919  0.0335 -0.0472 -0.1781
13963W        W57057  22.238  16.838   8.234 -0.0357 -0.2828 -0.0205
13964W        W57058  19.794  16.688   7.139 -0.0277  0.1868 -0.1994
13965W        W57059  19.637  18.668   8.189 -0.1263  0.1301  0.0209
13966W        W57060  20.241  15.523   6.655  0.0382 -0.0168  0.1421
13967W        W57061  19.159  18.378   9.030 -0.1111  0.0597 -0.0060
13968W        W57062  18.198  16.647   7.463  0.1245  0.3095  0.0303
13969W        W57063  21.142  17.464   8.407 -0.0983 -0.0387  0.1120
13970W        W57064  19.337  17.689   7.913  0.2505 -0.2021 -0.2584
13971W        W57065  21.612  14.318   6.158 -0.1054 -0.1645  0.0328
13972W        W57066  20.309  13.353   9.601 -0.1531  0.0316 -0.1528
13973W        W57067  21.901  15.653   8.079  0.1243 -0.0572 -0.1062
13974W        W57068  21.544  14.868   9.186 -0.1538  0.0507  0.0090
13975W        W57069  20.017  14.209   6.871  0.0523 -0.2978  0.1426
13976W        W57070  20.676  18.248   6.461 -0.3355  0.0014 -0.1677
13977W        W57071  18.323  15.814   7.841 -0.0558  0.0873 -0.1155
13978W        W57072  19.686  16.275   9.655 -0.0801  0.0353  0.0300
13979W        W57073  21.205  13.789   9.825  0.1831 -0.2889 -0.1133
13980W        W57074  21.221  16.088   7.294 -0.0281 -0.0394 -0.2535
13981W        W57075  19.365  14.899   7.124  0.1257 -0.1970  0.1374
13982W        W57076  19.851  18.292   9.461  0.1395 -0.1048 -0.1089
13983W        W57077  18.615  17.007   9.660 -0.0070 -0.2422 -0.0323
13984W        W57078  20.710  18.336   9.562  0.1040 -0.1109  0.0400
13985W        W57079  18.222  16.565   6.960  0.1170  0.0859 -0.0256
13986W        W57080  20.756  13.680   8.103 -0.2277 -0.1272 -0.1030
13987W        W57081  19.592  15.775   9.583  0.2226 -0.0337 -0.3633
13988W        W57082  19.624  16.563  10.146 -0.1880 -0.1080 -0.1196
13989W        W57083  20.199  15.512   8.030 -0.0659  0.1422  0.0044
13990W        W57084  20.075  15.508   9.387 -0.0458 -0.1171 -0.1967
13991W        W57085  19.209  16.340   8.822  0.2153  0.4424 -0.1394
13992W        W57086  20.653  17.165   7.935  0.1685 -0.1704  0.0781
13993W        W57087  19.993  16.228   7.420  0.0967  0.2116 -0.2530
13994W        W57088  19.747  15.337   8.060  0.1946 -0.1169 -0.5889
13995W        W57089  20.384  14.892   6.435 -0.1141  0.2496  0.0478
13996W        W57090  18.130  17.071   8.603  0.1429 -0.3698  0.2505
13997W        W57091  20.420  15.727   9.036  0.1303  0.0631  0.0706
13998W        W57092  18.401  15.442   7.211 -0.1289 -0.0245  0.1015
13999W        W57093  21.566  17.234   8.634 -0.3649 -0.0286  0.2161
14000W        W57094  21.257  15.524   9.584  0.3391 -0.0410  0.0351
14001W        W57095  19.632  17.441   6.879 -0.1801  0.1971  0.0618
14002W        W57096  21.661  15.355   8.433  0.0254  0.0854  0.0338
14003W        W57097  23.508  18.472   8.416 -0.1085  0.2843  0.2614
14004W        W57098  17.855  15.903   7.956  0.3729 -0.0337 -0.3671
14005W        W57099  21.428  19.241  10.753  0.1896 -0.2305  0.1401
14006W        W57100  22.816  16.337   9.983 -0.0146  0.0571 -0.1745
14007W        W57101  19.218  16.087   8.334 -0.1843  0.2404 -0.1168
14008W        W57102  20.224  15.235   8.879 -0.0192 -0.0617  0.2020
14009W        W57103  18.645  17.595   8.521  0.2876  0.1361  0.3102
14010W        W57104  22.375  17.004   9.687  0.2345 -0.4779  0.1392
14011W        W57105  21.656  16.378   7.345 -0.0479  0.0954  0.3248
14012W        W57106  18.723  16.440   8.519  0.0989 -0.3273  0.1883
14013W        W57107  20.084  16.004   8.230  0.1641 -0.0942 -0.1136
14014W        W57108  18.603  15.344   7.687 -0.0909  0.0090 -0.1196
14015W        W57109  20.257  17.873   8.256 -0.1183 -0.1612 -0.2471
14016W        W57110  21.983  17.888   9.336  0.1387 -0.2078  0.0786
14017W        W57111  19.076  15.615   9.612 -0.0391 -0.0448  0.0230
14018W        W57112  21.206  17.239   8.990 -0.2825 -0.0903 -0.0156
14019W        W57113  18.683  15.305   8.756 -0.3131  0.0236 -0.3203
14020W        W57114  21.074  14.975   8.732  0.1735 -0.0144 -0.0121
14021W        W57115  21.076  14.973   8.179  0.0541  0.0151  0.3408
14022W        W57116  19.746  17.312   9.511 -0.0949 -0.0644 -0.1412
14023W        W57117  17.709  16.789   6.182 -0.2339 -0.0925 -0.2019
14024W        W57118  19.686  17.298   7.836 -0.1345  0.0367  0.3557
14025W        W57119  18.035  16.450   8.417 -0.2395 -0.1926  0.0286
14026W        W57120  18.666  17.642   9.913  0.1795  0.3221 -0.1753
14027W        W57121  17.137  14.056   5.840 -0.3613 -0.0388  0.1335
14028W        W57122  20.275  16.540   7.992  0.0925 -0.2142  0.1452
14029W        W57123  19.789  14.535   9.361 -0.0708  0.1797  0.1742
14030W        W57124  17.424  15.631   6.904  0.0865 -0.2570 -0.1103
14031W        W57125  20.133  16.456   9.463 -0.1873 -0.0121  0.0245
14032W        W57126  21.658  16.796   8.328 -0.1829  0.1682 -0.0548
14033W        W57127  19.349  15.675   9.137 -0.3617 -0.1021 -0.1210
14034W        W57128  17.763  17.574   7.010 -0.0477 -0.2119  0.0380
14035W        W57129  19.167  15.311   6.679  0.0315 -0.1244 -0.0116
14036W        W57130  19.245  12.719   9.082 -0.2248  0.1395 -0.0504
14037W        W57131  19.965  15.569   8.476 -0.1933 -0.0483 -0.1728
14038W        W57132  21.435  17.151   8.048 -0.3757 -0.1330  0.0223
14039W        W57133  18.342  13.172   9.464 -0.2081 -0.1281  0.2989
14040W        W57134  22.182  15.739   7.629 -0.2337  0.1246  0.1149
14041W        W57135  21.375  16.233   8.616 -0.0587 -0.3282 -0.2669
14042W        W57136  22.820  12.092   9.172 -0.2587  0.0390  0.3500
14043W        W57137  20.091  15.991   8.796  0.1185  0.1647  0.0680
14044W        W57138  20.297  16.950   9.643  0.2216 -0.2046  0.0063
14045W        W57139  18.029  14.266   8.192 -0.1357  0.0480  0.1347
14046W        W57140  19.809  14.744   7.764  0.2114  0.1724  0.2441
14047W        W57141  19.316  16.535   8.030  0.1475  0.1018 -0.1714
14048W        W57142  18.712  16.109   8.141 -0.0788 -0.1157 -0.0628
14049W        W57143  19.847  16.295   7.888  0.0102  0.1078  0.1903
14050W        W57144  22.177  18.232   9.686  0.4090 -0.2008 -0.1711
14051W        W57145  20.204  16.443   8.473 -0.0721  0.1342  0.3050
14052W        W57146  22.167  16.374   6.983 -0.1115 -0.0474 -0.1494
14053W        W57147  20.662  18.821  10.487  0.1546 -0.0255  0.0322
14054W        W57148  19.244  16.700   9.805 -0.2417 -0.0376  0.2062
14055W        W57149  20.672  17.221   9.189 -0.0981  0.2075 -0.0163
14056W        W57150  18.842  15.906   8.698 -0.0582  0.1469  0.1187
14057W        W57151  19.392  16.312   7.615 -0.1474 -0.1453  0.1598
14058W        W57152  20.145  17.403   9.829  0.0823 -0.0968 -0.0432
14059W        W57153  19.750  13.401   9.619  0.3158 -0.1811 -0.0489
14060W        W57154  18.352  14.999   8.030  0.0743  0.1409 -0.3004
14061W        W57155  19.620  15.717   5.611  0.0688 -0.0309  0.2000
14062W        W57156  19.262  14.451   8.548  0.2541  0.1290  0.0989
14063W        W57157  19.572  14.939   9.570 -0.0251  0.0787  0.2247
14064W        W57158  20.054  19.962   0.974 -0.0962 -0.0577 -0.3024
14065W        W57159  17.946  19.130   0.940 -0.2351  0.3836  0.0545
14066W        W57160  22.152  18.544  31.069  0.3288 -0.5766  0.3134
14067W        W57161  21.006  19.630  31.739  0.7252 -0.2736  0.1815
14068W        W57162  18.293  17.597   0.111 -0.1422  0.1317 -0.2658
14069W        W57163  20.225  21.514  31.413  0.0557 -0.0449  0.2016
14070W        W57164  19.238  17.711   2.586 -0.0698  0.0582  0.1223
14071W        W57165  22.119  19.709   1.218 -0.1592  0.3536  0.0380
14072W        W57166  21.750  21.196   1.022 -0.2597 -0.0934 -0.2961
14073W        W57167  19.549  19.957  31.609  0.1072 -0.0696 -0.0355
14074W        W57168  19.599  18.167   0.842 -0.1116 -0.1251  0.2907
14075W        W57169  19.602  20.468   1.834 -0.0542 -0.1247  0.1291
14076W        W57170  16.765  18.387  30.819 -0.0581 -0.0198  0.1091
14077W        W57171  17.999  19.478   1.934  0.2761 -0.1403  0.1838
14078W        W57172  20.608  20.414   0.351 -0.1022  0.0862 -0.0261
14079W        W57173  18.159  20.021   0.108 -0.3391  0.1713  0.1157
14080W        W57174  18.942  19.040   1.462  0.1938  0.3363  0.0653
14081W        W57175  18.689  18.705  31.802  0.0107  0.2847 -0.0031
14082W        W57176  20.305  21.738   0.009 -0.0988  0.0377  0.0692
14083W        W57177  19.203  18.254   3.444 -0.2455 -0.0653  0.0612
14084W        W57178  19.832  18.346   2.616 -0.1069 -0.2992  0.0048
14085W        W57179  18.755  20.526  31.686  0.0049 -0.0762 -0.1037
14086W        W57180  17.800  18.470  28.989 -0.0155 -0.0259 -0.1118
14087W        W57181  18.810  20.478   2.814  0.0009  0.1371  0.0745
14088W        W57182  20.388  20.363   1.027  0.0702  0.2173  0.2495
14089W        W57183  20.198  18.200  31.907  0.0573 -0.1506  0.0804
14090W        W57184  20.948  18.377   0.251 -0.0577 -0.0501 -0.0044
14091W        W57185  20.574  21.491   1.029  0.0628  0.0576  0.0257
14092W        W57186  22.077  21.108   1.449  0.0977 -0.0544 -0.3629
14093W        W57187  21.661  18.856   4.139  0.0098  0.0839  0.0718
14094W        W57188  18.910  21.138   1.312 -0.0763 -0.1322 -0.2503
14095W        W57189  18.688  21.728   1.232  0.1381 -0.1951  0.0420
14096W        W57190  19.536  20.651   0.481 -0.1594  0.0978 -0.2132
14097W        W57191  21.357  18.672   0.356 -0.0663  0.0543  0.3595
14098W        W57192  23.486  21.241   2.454 -0.1311 -0.1063 -0.1139
14099W        W57193  19.807  20.620   3.808  0.1855 -0.1418 -0.3280
14100W        W57194  17.933  21.070  31.770  0.0516 -0.1236  0.0866
14101W        W57195  20.119  20.993   2.716 -0.3890  0.0366  0.0316
14102W        W57196  20.175  20.163   1.916  0.0594 -0.0197 -0.3604
14103W        W57197  20.587  19.204   1.987 -0.0463  0.3939  0.1846
14104W        W57198  18.320  19.030  31.912  0.0603 -0.2591  0.0166
14105W        W57199  18.561  19.727  31.476  0.2170 -0.0491  0.0558
14106W        W57200  20.837  19.339   1.040 -0.1448 -0.2799  0.2072
14107W        W57201  18.488  20.826   3.100  0.2448  0.0896  0.1336
14108W        W57202  19.497  20.378   1.058  0.0450 -0.2804 -0.0049
14109W        W57203  21.553  18.771   2.835 -0.0363 -0.1565  0.0509
14110W        W57204  18.255  21.921  31.409  0.1507 -0.2109  0.1076
14111W        W57205  22.163  19.877  31.800  0.4671  0.2238 -0.0443
14112W        W57206  18.617  18.445  29.438  0.0121  0.1350  0.1639
14113W        W57207  19.709  17.657   0.732  0.0347  0.0618  0.0449
14114W        W57208  18.513  17.836  31.692  0.1219 -0.1233  0.1247
14115W        W57209  18.132  22.055   1.532 -0.1457  0.0896 -0.2187
14116W        W57210  19.477  17.579   1.592 -0.0916 -0.2887 -0.0686
14117W        W57211  22.196  20.285   3.364  0.2128 -0.0834  0.2144
14118W        W57212  20.064  19.975   0.021  0.0777  0.1060 -0.1937
14119W        W57213  20.703  17.997   0.927 -0.2774 -0.1038  0.1511
14120W        W57214  19.072  21.393   3.142 -0.1898 -0.1415 -0.0794
14121W        W57215  17.976  18.784   0.561 -0.1613 -0.2183 -0.0940
14122W        W57216  22.831  22.698  31.839  0.1213 -0.3346 -0.1294
14123W        W57217  22.120  21.526   0.888  0.2989  0.3235  0.0236
14124W        W57218  20.636  21.595  31.136 -0.1219 -0.2266  0.0429
14125W        W57219  18.826  19.401   0.670 -0.1848 -0.1010 -0.0781
14126W        W57220  17.914  21.329   1.389 -0.1444 -0.1280 -0.1459
14127W        W57221  18.401  19.971   0.523  0.3283  0.1162  0.0935
14128W        W57222  17.101  16.824  30.672 -0.0759 -0.1919 -0.0792
14129W        W57223  22.927  19.871   3.380  0.1121  0.2291 -0.0454
14130W        W57224  18.503  19.901   2.011 -0.0870 -0.0959  0.1576
14131W        W57225  20.758  19.543   1.572  0.0840 -0.2159  0.0672
14132W        W57226  20.889  20.103   1.984 -0.1291  0.0697 -0.0257
14133W        W57227  21.782  21.772   1.882 -0.0255  0.0321 -0.4210
14134W        W57228  22.140  20.464  31.573  0.3425  0.1329  0.0555
14135W        W57229  20.435  17.438   0.430  0.0395  0.1129 -0.0987
14136W        W57230  20.712  18.908   0.549 -0.2733 -0.1260  0.0379
14137W        W57231  16.694  18.857  30.803  0.1224 -0.2661  0.0497
14138W        W57232  19.270  19.951   0.253  0.0399  0.2283  0.5797
14139W        W57233  21.921  20.808   3.238  0.1757 -0.1861 -0.2222
14140W        W57234  20.487  19.540  31.771 -0.0622  0.0439  0.0076
14141W        W57235  18.769  21.025   2.712 -0.0497 -0.3763 -0.0929
14142W        W57236  19.042  19.097   1.951 -0.0510 -0.0559  0.3619
14143W        W57237  20.207  19.154   2.293  0.1671 -0.2682 -0.5893
14144W        W57238  16.023  21.852  31.606 -0.1218  0.0003 -0.1410
14145W        W57239  17.434  20.072   1.062  0.2054  0.0697 -0.3259
14146W        W57240  17.771  18.980  30.421 -0.0759 -0.1980  0.0145
14147W        W57241  18.403  18.229   1.232 -0.2747  0.1838  0.1279
14148W        W57242  19.595  20.143   2.736  0.0636  0.0365  0.1483
14149W        W57243  20.150  18.576  31.143 -0.1229  0.2538 -0.1234
14150W        W57244  19.130  17.863   0.041  0.1745  0.0917  0.0071
14151W        W57245  21.520  18.247   0.160 -0.1197  0.2319 -0.0132
14152W        W57246  19.261  19.553   1.657 -0.0791  0.0174 -0.0379
14153W        W57247  21.051  22.199   0.850 -0.0662  0.1861  0.2940
14154W        W57248  21.024  19.379  30.960  0.1603  0.0774 -0.3864
14155W        W57249  21.296  20.015  31.291  0.0160  0.0023 -0.2328
14156W        W57250  16.962  19.882   1.952 -0.3361  0.1234 -0.0745
14157W        W57251  18.199  18.312   0.692 -0.0162 -0.0446 -0.1147
14158W        W57252  18.675  19.685   2.894 -0.4631 -0.2116 -0.1516
14159W        W57253  18.766  18.558   1.176  0.0099 -0.1484  0.0539
14160W        W57254  22.957  20.085   2.878  0.0921 -0.3527  0.1042
14161W        W57255  17.556  17.667  30.080  0.1993  0.0176 -0.1911
14162W        W57256  21.202  18.108   1.146 -0.1576 -0.2211  0.0818
14163W        W57257  18.579  19.511  31.955 -0.1456  0.2186  0.2327
14164W        W57258  17.815  19.129  31.553  0.0203  0.3285 -0.2644
14165W        W57259  20.934  18.198   1.627 -0.2839 -0.0247 -0.0930
14166W        W57260  20.868  21.405   0.178 -0.1257  0.0276 -0.0625
14167W        W57261  22.744  21.956   1.464  0.4564  0.0209 -0.1774
14168W        W57262  19.707  18.760  31.338 -0.0449 -0.0744  0.1907
14169W        W57263  19.952  18.316   0.420  0.2211  0.0020 -0.2830
14170W        W57264  17.949  18.040  30.167 -0.1224 -0.0991  0.2207
14171W        W57265  19.332  21.207   1.616  0.2619  0.0861 -0.1442
14172W        W57266  21.009  20.479   2.223 -0.0466  0.1241  0.2922
14173W        W57267  19.189  19.442  30.295  0.1245  0.1397 -0.2335
14174W        W57268  20.966  21.810   1.351 -0.1471 -0.1088 -0.0820
14175W        W57269  20.219  20.169   0.519 -0.1009  0.6585  0.0445
14176W        W57270  19.997  21.419   3.011  0.2401  0.1189  0.1614
14177W        W57271  20.820  16.712   1.478  0.1727  0.1313 -0.3888
14178W        W57272  21.373  19.967   3.169  0.0210  0.1654  0.1807
14179W        W57273  19.799  18.679   0.733 -0.1024 -0.0795  0.6033
14180W        W57274  18.420  18.938  31.370 -0.0490 -0.0409  0.1018
14181W        W57275  20.931  20.691   0.651  0.0038 -0.0923  0.1209
14182W        W57276  18.314  20.537   0.092 -0.0076 -0.6483  0.5220
14183W        W57277  17.655  19.355   0.606 -0.0944  0.3300  0.1672
14184W        W57278  20.365  19.985   2.343  0.3956  0.0247 -0.3432
14185W        W57279  21.015  17.946   0.086  0.0181 -0.2260  0.1137
14186W        W57280  19.753  20.456   2.313 -0.0786 -0.0912 -0.1401
14187W        W57281  20.691  20.535   3.706  0.1996  0.1222 -0.0540
14188W        W57282  17.048  18.087  29.653 -0.0302 -0.1900 -0.0973
14189W        W57283  19.715  19.397   2.110 -0.0894 -0.4499  0.0297
14190W        W57284  19.247  17.083  31.502  0.1056  0.1771 -0.0324
14191W        W57285  20.978  19.098  30.560  0.1363 -0.1213 -0.2692
14192W        W57286  21.153  20.309   2.814  0.0407  0.0995  0.0228
14193W        W57287  19.378  19.468  31.635 -0.0817  0.1984 -0.0340
14194W        W57288  19.477  18.291  30.540 -0.0013 -0.1491 -0.2256
14195W        W57289  17.653  20.993   2.571 -0.1266  0.1638 -0.1475
14196W        W57290  21.713  20.584  31.953 -0.1456  0.1494  0.0044
14197W        W57291  20.660  20.881   1.146  0.5138 -0.3617 -0.3835
14198W        W57292  19.273  17.721  30.410 -0.0353 -0.0106  0.1196
14199W        W57293  22.436  20.737   0.520  0.0919 -0.2051  0.0956
14200W        W57294  18.613  20.262   2.374 -0.2198 -0.0808  0.0046
14201W        W57295  22.047  20.670   3.692  0.2955 -0.0076 -0.2967
14202W        W57296  21.642  20.986   0.342  0.1560  0.0969  0.1055
14203W        W57297  20.102  16.708   0.143 -0.0108 -0.0303 -0.0726
14204W        W57298  19.600  19.644   0.069 -0.0211  0.0339  0.2352
14205W        W57299  19.007  17.523  31.684  0.0684  0.0776  0.2732
14206W        W57300  16.736  20.592   0.528 -0.1028  0.2170  0.0635
14207W        W57301  19.898  18.141   1.590 -0.0930  0.1951  0.1397
14208W        W57302  20.778  18.461   0.719  0.0384  0.1595 -0.2970
14209W        W57303  19.934  16.999   1.716 -0.3940 -0.3289 -0.1858
14210W        W57304  22.270  19.755   3.460  0.1287 -0.0827  0.0725
14211W        W57305  20.465  18.918  31.412  0.2617 -0.1623  0.2971
14212W        W57306  20.317  19.393   1.407 -0.2119 -0.1120 -0.0128
14213W        W57307  19.237  20.617  31.589 -0.4040 -0.1399 -0.2090
14214W        W57308  20.684  19.012   1.368  0.0462 -0.0115 -0.0362
14215W        W57309  18.841  19.517   1.254  0.0954  0.3718  0.4641
14216W        W57310  18.278  21.100   0.142 -0.1606  0.2043 -0.2168
14217W        W57311  21.516  20.467   3.149 -0.4250 -0.2287  0.3532
14218W        W57312  20.632  19.835   1.192 -0.0989 -0.1592 -0.1216
14219W        W57313  19.627  18.855   2.511 -0.1824  0.0563  0.0236
14220W        W57314  17.591  18.493  30.833  0.0462 -0.1381 -0.2826
14221W        W57315  19.110  21.589  31.607 -0.2323  0.0046 -0.1433
14222W        W57316  19.179  18.847   0.002 -0.1129 -0.0792  0.2069
14223W        W57317  19.288  17.936  31.530  0.3123 -0.1264  0.0127
14224W        W57318  20.305  21.086   1.807  0.3312  0.2784 -0.0859
14225W        W57319  18.972  20.987  31.404 -0.1308 -0.0707 -0.1628
14226W        W57320  21.087  20.002   2.453  0.1369 -0.2621  0.1373
14227W        W57321  18.750  20.559   1.435  0.4168  0.2326 -0.0883
14228W        W57322  22.144  18.153   1.712  0.1841 -0.0464 -0.0152
14229W        W57323  18.334  19.638   0.921 -0.3797 -0.0780  0.1823
14230W        W57324  18.659  17.999   0.160 -0.0550 -0.2413 -0.1837
14231W        W57325  19.052  19.885  31.730  0.4120 -0.1496 -0.0375
14232W        W57326  19.185  18.510   0.847  0.1393  0.1730 -0.0210
14233W        W57327  22.482  19.833   0.218 -0.3572  0.3391  0.0579
14234W        W57328  18.760  17.405   0.199  0.0958  0.0191 -0.1606
14235W        W57329  19.323  18.437  31.462 -0.1139  0.1624 -0.0867
14236W        W57330  18.355  21.241   2.058 -0.1424  0.0683 -0.2825
14237W        W57331  20.753  20.129   0.753 -0.1449 -0.1542 -0.0818
14238W        W57332  19.617  18.670  31.886 -0.0986  0.0329  0.2231
14239W        W57333  21.428  20.117   2.073  0.0607  0.1269  0.0468
14240W        W57334  19.038  19.946   1.905 -0.1455 -0.0147 -0.0356
14241W        W57335  17.177  17.660  30.592 -0.1114 -0.1892 -0.2490
14242W        W57336  20.261  19.605   2.043 -0.0266 -0.0785  0.1673
14243W        W57337  19.782  19.505   0.904  0.2709 -0.1461 -0.4505
14244W        W57338  19.448  22.268   0.171  0.0152 -0.3060  0.2533
14245W        W57339  20.703  19.659   2.212 -0.1658 -0.2629 -0.1072
14246W        W57340  19.328  20.869   0.005  0.0995 -0.5313  0.2232
14247W        W57341  19.169  20.324   0.592 -0.2702  0.2344  0.1610
14248W        W57342  19.903  18.427   1.224 -0.1163  0.3532  0.1875
14249W        W57343  21.950  20.375   2.912 -0.0871 -0.0787 -0.1819
14250W        W57344  20.716  18.658   1.745  0.1625 -0.3964 -0.2786
14251W        W57345  18.443  19.185   1.153  0.1002 -0.1147  0.1233
14252W        W57346  19.201  18.108   0.489  0.2690 -0.3839  0.2801
14253W        W57347  20.428  19.812   2.847 -0.0170 -0.1555  0.2788
14254W        W57348  20.617  18.670   2.352  0.2372 -0.5005  0.0367
14255W        W57349  19.103  21.850   2.852 -0.1781  0.3736 -0.3565
14256W        W57350  19.431  18.080   1.355 -0.2506  0.0622  0.5324
14257W        W57351  23.513  22.254   0.678 -0.0980  0.0754  0.0759
14258W        W57352  20.983  21.402   4.059  0.0406 -0.1206 -0.0841
14259W        W57353  19.439  20.046   2.183 -0.0026  0.1488  0.0887
14260W        W57354  18.359  19.179   0.660  0.1469 -0.0029  0.0493
14261W        W57355  19.881  20.398   0.802  0.3318 -0.0629  0.0529
14262W        W57356  18.329  18.065  31.158  0.1228 -0.1479 -0.2153
14263W        W57357  18.834  19.810   2.410  0.0951 -0.0363  0.0739
14264W        W57358  18.959  19.881   0.669  0.0395 -0.1743  0.2271
14265W        W57359  18.807  20.645   0.898  0.0246 -0.0209 -0.0613
14266W        W57360  20.765  18.560  30.827  0.1059 -0.0276  0.1327
14267W        W57361  18.687  21.320  31.690 -0.0491 -0.1110  0.1393
14268W        W57362  18.258  18.471  31.495 -0.2277 -0.1761 -0.4213
14269W        W57363  20.272  19.389   2.887 -0.3005 -0.1139 -0.0280
14270W        W57364  21.203  20.633   0.225 -0.3137 -0.1780 -0.2297
14271W        W57365  20.624  18.484   2.840  0.2171  0.0527 -0.0534
14272W        W57366  19.427  18.370   2.185  0.1780 -0.2129 -0.0196
14273W        W57367  20.381  20.330  31.898  0.0260 -0.0036  0.0827
14274W        W57368  19.259  19.185   2.519  0.1173  0.0570  0.0395
14275W        W57369  21.318  21.867   4.810  0.1697  0.2288 -0.0387
14276W        W57370  18.547  20.169   3.910 -0.0223 -0.0051 -0.2753
14277W        W57371  19.568  17.282   0.431 -0.0672  0.0543 -0.3600
14278W        W57372  17.698  17.769  31.642  0.2118 -0.0436  0.0456
14279W        W57373  19.577  19.935   0.791 -0.1496  0.2259  0.1100
14280W        W57374  21.733  20.353   1.766  0.0729 -0.1159  0.0118
14281W        W57375  20.299  19.263   0.476  0.0940 -0.0168 -0.0816
14282W        W57376  21.312  19.336   0.958  0.2078  0.0589  0.2902
14283W        W57377  19.192  21.625   1.308 -0.0070  0.2178  0.1450
14284W        W57378  20.458  19.048  31.946  0.1831 -0.2279  0.2771
14285W        W57379  18.538  20.261  31.201 -0.1036 -0.2241 -0.0279
14286W        W57380  21.131  21.139   0.531 -0.1175  0.0655 -0.2623
14287W        W57381  19.751  18.297   3.606  0.1114  0.3392 -0.0244
14288W        W57382  21.160  20.475   1.703 -0.1151  0.1408  0.3044
14289W        W57383  19.226  18.350  31.968 -0.2396  0.2141  0.0798
14290W        W57384  19.401  18.671   1.288  0.0315  0.0170  0.0852
14291W        W57385  20.304  18.665   1.248 -0.2974 -0.0021 -0.2279
14292W        W57386  20.232  18.447   1.671 -0.2055 -0.1004  0.0676
14293W        W57387  17.534  19.775   2.076  0.0481  0.1060  0.0211
14294W        W57388  21.204  20.968   1.814 -0.2924 -0.0744  0.1034
14295W        W57389  19.764  18.629  30.828  0.0052  0.0087  0.3103
14296W        W57390  20.229  18.192   0.886 -0.0146  0.0858 -0.1047
14297W        W57391  21.146  18.067   0.619  0.0602  0.2448 -0.0320
14298W        W57392  19.415  18.560   0.406  0.4905  0.1114 -0.0937
14299W        W57393  18.607  18.907   0.335 -0.0059  0.4825  0.2086
14300W        W57394  19.896  18.920   3.053  0.0161  0.0234  0.0282
14301W        W57395  17.775  19.207   0.056  0.2403  0.1639  0.1112
14302W        W57396  19.840  19.310   2.625  0.2614  0.0298  0.0710
14303W        W57397  19.857  20.939   0.010  0.0302  0.0094  0.2566
14304W        W57398  21.089  21.126   2.289  0.1197 -0.1935  0.0989
14305W        W57399  18.803  18.076  30.965 -0.3190  0.0893 -0.5162
14306W        W57400  18.726  18.266   0.795 -0.0119  0.0464 -0.0164
14307W        W57401  19.510  21.570   3.046  0.1055  0.0493  0.0424
14308W        W57402  18.163  19.643  29.581 -0.2572  0.1399 -0.0654
14309W        W57403  19.391  20.762  31.097  0.1263  0.1633 -0.2180
14310W        W57404  21.389  20.316   1.298 -0.0251  0.0441  0.1743
14311W        W57405  20.652  19.532   4.398  0.2747  0.0357 -0.1197
14312W        W57406  18.335  19.548  30.138  0.0220  0.0147 -0.0952
14313W        W57407  22.467  20.013   3.066 -0.2108 -0.0726 -0.2931
14314W        W57408  19.096  20.830   0.495  0.0107 -0.0981 -0.0474
14315W        W57409  20.318  17.097   1.102 -0.2561  0.0182 -0.4205
14316W        W57410  19.241  20.765   1.408 -0.1970 -0.1054  0.1275
14317W        W57411  17.796  21.039   1.838 -0.0041 -0.2305 -0.2344
14318W        W57412  18.694  21.108   0.515 -0.2833 -0.1487 -0.2365
14319W        W57413  20.030  17.234   0.713 -0.2306  0.1104 -0.2863
14320W        W57414  20.336  19.133   0.952 -0.0139  0.0233  0.1631
14321W        W57415  20.397  19.704   0.762  0.1517  0.2162  0.2648
14322W        W57416  22.348  19.305   2.229  0.1945  0.0942 -0.0826
14323W        W57417  21.631  20.796   1.463 -0.2801  0.2651  0.1241
14324W        W57418  19.078  20.826   3.084 -0.0859  0.0615  0.2980
14325W        W57419  21.328  21.676   2.088 -0.0487 -0.1061 -0.1734
14326W        W57420  22.965  20.000   2.004  0.3001 -0.2718  0.1054
14327W        W57421  19.933  20.844   0.940 -0.1288  0.1692 -0.0506
14328W        W57422  18.340  19.233   3.387 -0.2215 -0.1221 -0.3044
14329W        W57423  19.273  20.163   1.543 -0.0280 -0.0385 -0.0089
14330W        W57424  20.313  18.667   0.751  0.0344 -0.1978  0.0771
14331W        W57425  17.557  18.095  29.782  0.0110  0.0884 -0.1885
14332W        W57426  18.804  19.102  30.098  0.0111  0.0673 -0.0285
14333W        W57427  19.103  22.193   3.772  0.1939 -0.1751  0.0562
14334W        W57428  18.021  19.952   1.772  0.3264 -0.0512 -0.3219
14335W        W57429  19.856  21.922   0.054 -0.0164  0.1722 -0.1576
14336W        W57430  21.895  21.074  31.842 -0.0803  0.2915  0.1883
14337W        W57431  20.081  21.103   0.511  0.1594 -0.1585  0.2197
14338W        W57432  21.424  20.729   2.596 -0.1329  0.1859  0.4742
14339W        W57433  18.421  17.569  30.412 -0.1932 -0.0491  0.4471
14340W        W57434  17.838  21.074   0.528 -0.1181  0.0961 -0.3401
14341W        W57435  18.266  20.599   1.159  0.1290 -0.0566 -0.1542
14342W        W57436  19.862  21.298  31.646 -0.0098  0.1454  0.1834
14343W        W57437  19.097  22.071   1.521  0.3871  0.1587  0.0897
14344W        W57438  20.882  19.641   2.978  0.0962  0.0063 -0.2607
14345W        W57439  20.251  18.712  30.628  0.1678  0.2443  0.1224
14346W        W57440  21.069  18.860   1.009  0.2677  0.0629  0.1462
14347W        W57441  22.069  19.173   0.637  0.2117 -0.0282  0.1810
14348W        W57442  21.537  20.805   3.597 -0.0190 -0.1636 -0.0376
14349W        W57443  19.175  18.692   1.775 -0.1496 -0.1681  0.0854
14350W        W57444  20.231  18.007  30.039 -0.0620 -0.1928 -0.0240
14351W        W57445  19.445  19.079   1.562 -0.0497  0.3170 -0.2767
14352W        W57446  21.651  17.811   2.330  0.4475  0.0289 -0.1536
14353W        W57447  17.948  21.343   2.272 -0.0885 -0.0533 -0.0528
14354W        W57448  21.469  21.528   0.736  0.2908 -0.3061  0.0006
14355W        W57449  17.812  18.201  31.257 -0.3296 -0.2276  0.0465
14356W        W57450  20.122  18.694  31.775 -0.2268  0.1347  0.2367
14357W        W57451  21.257  17.825   1.595  0.2656 -0.3848  0.3319
14358W        W57452  19.934  19.635  31.559  0.2141  0.1470  0.1075
14359W        W57453  18.845  18.189  31.508 -0.2332  0.1292 -0.2668
14360W        W57454  20.203  19.868   1.556 -0.2370  0.2793 -0.2332
14361W        W57455  20.881  20.460   1.151 -0.2216 -0.1219  0.2161
14362W        W57456  20.198  20.550   2.476 -0.0575 -0.3220 -0.0103
14363W        W57457  17.296  16.630   0.654 -0.0996  0.0322  0.0196
14364W        W57458  22.884  18.894   1.067  0.2373 -0.1082  0.0818
14365W        W57459  19.879  18.928   1.249 -0.0784  0.1199  0.0333
14366W        W57460  20.545  18.082   3.640  0.0528  0.0270  0.1625
14367W        W57461  17.977  18.727  31.827 -0.2556  0.5312 -0.0823
14368W        W57462  20.139  18.801   0.248  0.1896 -0.0537  0.0258
14369W        W57463  22.393  19.829   2.131  0.3513  0.2846 -0.1133
14370W        W57464  18.821  19.533   1.879 -0.2976 -0.2123  0.2055
14371W        W57465  18.928  19.707  31.045 -0.1375  0.2546  0.3850
14372W        W57466  22.282  19.626   2.602  0.1947  0.0909  0.0738
14373W        W57467  20.082  20.570   0.230 -0.5611 -0.0730 -0.1394
14374W        W57468  20.479  22.106   2.206  0.2838  0.0480  0.0393
14375W        W57469  18.058  18.023   0.277 -0.1417  0.1477  0.1020
14376W        W57470  19.659  17.039  31.936 -0.1389 -0.1639  0.1117
14377W        W57471  17.679  18.366   0.771  0.1225  0.0926  0.0895
14378W        W57472  19.923  18.939   3.593 -0.2709 -0.1478 -0.2114
14379W        W57473  21.671  20.687   4.107 -0.1726 -0.3935  0.0477
14380W        W57474  17.865  17.279  31.825 -0.1428  0.0092  0.5087
14381W        W57475  20.839  20.159  31.611 -0.0032 -0.3731 -0.0804
14382W        W57476  21.501  19.101   2.490 -0.0998 -0.3702 -0.0251
14383W        W57477  18.908  21.336   2.177 -0.2697  0.0556 -0.2173
14384W        W57478  21.738  20.090   0.763  0.5625  0.2901  0.1157
14385W        W57479  21.112  21.333   1.075  0.1862 -0.0532  0.1225
14386W        W57480  17.982  18.402   2.253 -0.2222  0.1348 -0.1399
14387W        W57481  20.637  20.837   3.318  0.0595  0.0895  0.1505
14388W        W57482  22.172  20.548   1.538 -0.2275  0.1857 -0.0699
14389W        W57483  18.548  17.304  31.635 -0.2000 -0.1002  0.0004
14390W        W57484  18.974  19.053   1.001  0.1577  0.1369  0.0086
14391W        W57485  18.840  21.626   1.763 -0.1009  0.1778 -0.1976
14392W        W57486  21.217  18.525   1.859  0.2084  0.0010 -0.0048
14393W        W57487  19.806  19.435   1.518  0.1000  0.2089 -0.1370
14394W        W57488  18.730  20.038   0.108  0.1761  0.6000 -0.1284
14395W        W57489  20.083  19.417   4.264  0.0711 -0.0354 -0.0451
14396W        W57490  20.675  20.354   2.575  0.2263  0.0689 -0.0713
14397W        W57491  18.945  19.588   3.394 -0.2654  0.6107 -0.2090
14398W        W57492  17.080  18.647  31.188 -0.1898 -0.2095  0.1500
14399W        W57493  19.992  18.978   1.739  0.1106  0.0840  0.0149
14400W        W57494  19.026  20.116  31.350  0.3017 -0.0551 -0.1316
14401W        W57495  19.619  20.424  31.869 -0.0558  0.1701  0.0094
14402W        W57496  21.621  21.513   1.361  0.1404  0.0758 -0.2842
14403W        W57497  19.101  18.979   0.492  0.1500 -0.2010 -0.3768
14404W        W57498  22.619  19.820   0.711 -0.1596  0.2440 -0.2063
14405W        W57499  19.406  17.518   1.126  0.1398  0.0520 -0.4030
14406W        W57500  21.330  18.351  30.911 -0.0125  0.0566  0.1524
14407W        W57501  20.825  19.287  31.434  0.1050  0.0801 -0.0543
14408W        W57502  19.651  19.908   1.276 -0.1579  0.0054  0.3586
14409W        W57503  18.045  18.358  30.800 -0.2339  0.3907 -0.0284
14410W        W57504  18.068  19.985  31.303  0.1385  0.1618 -0.0062
14411W        W57505  19.993  21.545   0.380 -0.3116 -0.0260  0.0497
14412W        W57506  17.814  17.877   1.144  0.0524  0.0385 -0.0680
14413W        W57507  17.988  18.939   1.624 -0.1396  0.1913  0.1665
14414W        W57508  16.916  19.564   1.015 -0.2011  0.1332 -0.3438
14415W        W57509  18.367  18.454   0.141  0.1210  0.0536  0.2885
14416W        W57510  20.895  20.747  31.821  0.0078  0.1079 -0.1713
14417W        W57511  19.411  17.071   1.542  0.2825  0.0554 -0.1112
14418W        W57512  17.400  18.831   1.451 -0.2927 -0.3287  0.1470
14419W        W57513  20.595  20.868   0.214 -0.0464 -0.2270 -0.2719
14420W        W57514  21.102  19.912   1.028 -0.1124  0.2040  0.0658
14421W        W57515  19.166  17.472  29.748 -0.0882 -0.2311  0.1348
14422W        W57516  21.660  21.076   4.500  0.1035 -0.1581  0.1884
14423W        W57517  17.674  19.952  31.671 -0.1115 -0.0235 -0.1681
14424W        W57518  18.948  20.530   3.460 -0.0787 -0.2489 -0.0679
14425W        W57519  19.526  18.968   2.062  0.1290  0.0720  0.2850
14426W        W57520  17.356  17.497  31.831  0.2706  0.0414 -0.0065
14427W        W57521  18.740  17.683   0.713  0.2476 -0.2405 -0.1407
14428W        W57522  19.413  21.728   0.359 -0.0923 -0.0263  0.1267
14429W        W57523  19.670  20.193   0.391 -0.2396 -0.3731 -0.0913
14430W        W57524  19.714  19.867   1.772 -0.2920  0.0976 -0.1981
14431W        W57525  19.377  21.819   2.441 -0.0862  0.0504 -0.3265
14432W        W57526  19.679  18.571   1.753 -0.0817  0.0955  0.0530
14433W        W57527  20.438  18.426   0.329  0.0636 -0.0510 -0.0280
14434W        W57528  20.589  19.397   3.345 -0.0780  0.0416 -0.0196
14435W        W57529  21.265  20.165  31.784 -0.2375  0.2458  0.1073
14436W        W57530  21.177  17.435   0.988 -0.1897 -0.4732 -0.0574
14437W        W57531  19.647  19.163  31.879 -0.2597 -0.0739  0.1387
14438W        W57532  18.437  19.611   1.510 -0.1471  0.1230  0.0084
14439W        W57533  19.547  19.681   2.589 -0.2192 -0.2157  0.0238
14440W        W57534  21.514  19.638   2.242  0.1664 -0.2301  0.0118
14441W        W57535  19.174  17.595   0.483  0.0090 -0.0369  0.2115
14442W        W57536  19.656  17.940   0.340  0.3812 -0.1150 -0.0212
14443W        W57537  19.925  19.750   0.477  0.2725  0.0756 -0.0823
14444W        W57538  17.277  21.307   1.376 -0.1003 -0.1338 -0.1650
14445W        W57539  17.871  18.500  29.521  0.2515 -0.0977  0.1448
14446W        W57540  21.023  18.965   2.179  0.2257 -0.0294  0.1516
14447W        W57541  20.675  21.788  31.611 -0.0289 -0.0914 -0.2063
14448W        W57542  21.185  20.642   3.865 -0.0626  0.0328  0.0715
14449W        W57543  19.445  18.961   0.884 -0.1349 -0.1209  0.1497
14450W        W57544  21.239  20.247   0.679 -0.0479 -0.2858  0.0735
14451W        W57545  20.931  21.662   2.916 -0.3096  0.0090 -0.0984
14452W        W57546  21.625  20.291   3.660  0.4439 -0.1319 -0.0558
14453W        W57547  20.260  21.442   2.481  0.0189 -0.0316  0.0735
14454W        W57548  22.120  20.004   1.669 -0.1140 -0.0079 -0.2098
14455W        W57549  18.607  18.250   1.727  0.0429 -0.0235  0.0992
14456W        W57550  19.383  19.519   0.533 -0.0401  0.0535 -0.2567
14457W        W57551  21.134  20.906   1.330 -0.2506 -0.0525  0.0421
14458W        W57552  20.600  19.299   2.552 -0.2866 -0.2366 -0.1771
14459W        W57553  19.858  17.875   1.180  0.3415 -0.2911  0.0496
14460W        W57554  19.697  18.097  31.758 -0.2043  0.2309 -0.1612
14461W        W57555  19.165  20.399   2.470  0.0320 -0.1780 -0.0705
14462W        W57556  21.209  19.638   0.208  0.1819 -0.1828 -0.1481
14463W        W57557  19.615  19.069   7.421 -0.1684 -0.0241 -0.1503
14464W        W57558  19.430  18.680   4.501  0.0141  0.0197 -0.0125
14465W        W57559  21.107  18.500   2.361  0.0019  0.1882 -0.0862
14466W        W57560  22.303  21.049   3.422 -0.1176  0.0200 -0.1334
14467W        W57561  17.671  19.632   4.618 -0.2803  0.1069 -0.0543
14468W        W57562  21.063  21.026   3.601 -0.1590  0.0203 -0.1110
14469W        W57563  19.921  18.861   5.949  0.4126 -0.0284  0.1012
14470W        W57564  21.640  22.008   5.417 -0.0103  0.0045  0.0592
14471W        W57565  19.767  19.818   5.603  0.3318  0.0507 -0.1935
14472W        W57566  20.275  20.388   3.284 -0.3936 -0.3167  0.1217
14473W        W57567  19.002  19.968   6.014  0.2153 -0.1130 -0.2390
14474W        W57568  19.426  18.893   5.870  0.2785 -0.1146  0.1446
14475W        W57569  20.655  18.506   3.338 -0.0524 -0.0398 -0.0120
14476W        W57570  17.433  17.648   5.951  0.1898  0.3704 -0.3647
14477W        W57571  20.911  20.465   5.169 -0.0163  0.2625  0.1094
14478W        W57572  18.684  20.110   4.969  0.1748 -0.2657  0.1689
14479W        W57573  18.470  19.628   5.763  0.1915  0.2756 -0.2565
14480W        W57574  19.239  19.974   3.315  0.1044 -0.0918 -0.2209
14481W        W57575  20.713  22.549   4.949 -0.0452 -0.3124  0.1897
14482W        W57576  19.282  19.556   5.632  0.0270  0.3572  0.1923
14483W        W57577  20.602  17.802   6.547 -0.0157 -0.1290 -0.0789
14484W        W57578  20.814  20.464   4.261  0.3174 -0.1550  0.1089
14485W        W57579  17.524  19.467   2.699  0.1406  0.0012 -0.0811
14486W        W57580  18.588  20.288   5.442  0.0390  0.3110 -0.1827
14487W        W57581  19.405  19.792   6.193 -0.0344  0.2489 -0.0969
14488W        W57582  20.568  18.679   4.906 -0.0346 -0.2294 -0.1193
14489W        W57583  20.650  19.411   5.277 -0.1620 -0.0115 -0.2649
14490W        W57584  20.623  20.939   6.057  0.0248  0.4076 -0.1472
14491W        W57585  20.280  22.078   5.584  0.1811  0.2053 -0.0764
14492W        W57586  20.330  19.184   6.780 -0.1793  0.1155 -0.1763
14493W        W57587  17.467  20.956   5.589 -0.1449  0.0480  0.1015
14494W        W57588  19.581  21.207   5.278 -0.4793 -0.0815 -0.1323
14495W        W57589  20.600  19.958   4.021  0.0669 -0.0436  0.3306
14496W        W57590  20.453  21.348   4.045 -0.1630 -0.2799 -0.1634
14497W        W57591  22.045  21.816   5.570  0.0682  0.2156 -0.0154
14498W        W57592  18.519  20.260   6.684 -0.2324 -0.0982 -0.0929
14499W        W57593  19.121  20.337   4.749 -0.0181 -0.0586 -0.1673
14500W        W57594  18.457  22.810   4.664  0.1518  0.2435 -0.0035
14501W        W57595  19.670  19.947   7.682 -0.0924  0.1381  0.1502
14502W        W57596  20.239  19.500   5.917  0.1931 -0.0825 -0.0197
14503W        W57597  20.932  18.946   3.400 -0.0452 -0.2064  0.0096
14504W        W57598  20.104  19.809   3.919  0.0459  0.0253  0.2463
14505W        W57599  19.751  21.396   5.684 -0.1570 -0.0800 -0.3998
14506W        W57600  18.974  19.859   7.056 -0.0868 -0.3897  0.2751
14507W        W57601  18.487  20.143   8.073 -0.2902  0.1732 -0.0131
14508W        W57602  21.814  18.753   6.136 -0.0976  0.0702  0.1964
14509W        W57603  19.646  21.491   3.870 -0.1273 -0.0428 -0.0680
14510W        W57604  21.747  19.136   5.163  0.0262  0.1673 -0.1336
14511W        W57605  19.947  18.506   2.141  0.2043  0.0201 -0.0319
14512W        W57606  20.323  19.837   3.410 -0.0840  0.2131  0.2593
14513W        W57607  19.744  17.587   5.761  0.0150  0.0040  0.0459
14514W        W57608  20.040  20.760   6.969  0.0423  0.0912  0.2857
14515W        W57609  20.036  19.525   5.301 -0.0676  0.0873 -0.0059
14516W        W57610  21.840  21.737   6.057 -0.1034  0.0123 -0.1256
14517W        W57611  18.843  19.323   4.699  0.0919 -0.2750 -0.0646
14518W        W57612  20.993  18.345   6.097  0.2409 -0.2477  0.2105
14519W        W57613  19.428  20.074   7.104 -0.1485  0.0153 -0.3520
14520W        W57614  19.390  20.612   5.800  0.0749  0.0246  0.2941
14521W        W57615  22.603  20.526   2.798  0.0879  0.3069 -0.2135
14522W        W57616  22.655  20.984   4.061  0.1817  0.0348  0.3116
14523W        W57617  21.380  20.687   4.608 -0.3195  0.2667 -0.0567
14524W        W57618  19.966  19.993   5.117  0.0796  0.1795  0.3942
14525W        W57619  16.721  19.707   4.110  0.2364  0.3425  0.0499
14526W        W57620  18.640  19.329   6.180 -0.2396 -0.0922  0.1813
14527W        W57621  17.997  19.072   3.070  0.0472 -0.1693  0.3456
14528W        W57622  21.111  21.010   6.302  0.2216  0.3005  0.0796
14529W        W57623  18.914  21.995   6.574  0.1355 -0.1701  0.0833
14530W        W57624  21.229  18.529   3.543 -0.2599 -0.0915  0.2034
14531W        W57625  20.102  20.880   6.285  0.0360 -0.1470  0.1884
14532W        W57626  20.279  19.517   6.459  0.1521  0.0879  0.0727
14533W        W57627  20.060  19.335   3.372 -0.1342  0.3074 -0.0016
14534W        W57628  20.375  17.568   3.325  0.2088  0.0096  0.0442
14535W        W57629  22.156  19.536   5.943 -0.3838 -0.1435  0.0605
14536W        W57630  19.347  20.423   3.122 -0.0254  0.2524 -0.2036
14537W        W57631  20.270  20.434   4.254  0.3176  0.0206  0.0100
14538W        W57632  20.453  19.977   5.970 -0.3061  0.1880  0.1778
14539W        W57633  21.116  19.375   2.392 -0.1356 -0.1806  0.0776
14540W        W57634  20.497  20.724   5.161 -0.1685  0.3458  0.0524
14541W        W57635  18.804  18.522   6.655  0.2926 -0.0778 -0.0020
14542W        W57636  21.253  18.841   6.969  0.1892 -0.0191  0.1979
14543W        W57637  18.839  21.572   4.405  0.3268  0.0951  0.0016
14544W        W57638  18.038  20.372   5.600 -0.0164 -0.1182 -0.0106
14545W        W57639  19.068  20.059   2.827  0.0416 -0.3111 -0.1384
14546W        W57640  17.308  18.125   5.810 -0.1904  0.0773  0.1116
14547W        W57641  20.825  19.727   5.689 -0.1418 -0.1307 -0.2887
14548W        W57642  22.086  18.198   4.129  0.0901 -0.1673 -0.1468
14549W        W57643  17.893  19.034   6.767 -0.2822 -0.1159 -0.0298
14550W        W57644  21.461  17.426   4.149 -0.1758  0.0351  0.3595
14551W        W57645  18.433  21.388   4.706  0.0887  0.0681 -0.0355
14552W        W57646  21.878  21.387   4.190  0.2505  0.0060  0.4821
14553W        W57647  22.326  19.455   4.615 -0.2355 -0.0045  0.0305
14554W        W57648  19.819  20.166   4.212  0.1620  0.1068 -0.3575
14555W        W57649  18.064  19.638   4.918  0.1286  0.0033  0.0161
14556W        W57650  19.625  18.666   4.924 -0.2442  0.0689 -0.2101
14557W        W57651  19.036  20.047   6.544 -0.0331 -0.1253  0.0405
14558W        W57652  17.801  18.126   5.862 -0.2356  0.1069  0.1401
14559W        W57653  21.006  20.497   6.137 -0.0886  0.3333 -0.2835
14560W        W57654  19.256  18.491   3.881  0.1343  0.1687 -0.0009
14561W        W57655  21.270  19.143   4.865  0.1908  0.2322 -0.1021
14562W        W57656  19.842  17.010   4.920 -0.1875 -0.0811 -0.0356
14563W        W57657  19.197  20.994   4.822 -0.4948  0.2295 -0.1011
14564W        W57658  20.499  17.253   6.461 -0.0952  0.0148 -0.1745
14565W        W57659  21.436  21.226   3.926 -0.2165 -0.2553  0.2172
14566W        W57660  21.209  21.489   7.528 -0.0900  0.0018 -0.0990
14567W        W57661  20.876  22.086   4.809 -0.0653  0.4602  0.1390
14568W        W57662  18.214  20.389   5.059 -0.2176  0.1394 -0.3699
14569W        W57663  17.809  18.859   4.548  0.3987  0.0501 -0.2279
14570W        W57664  19.476  20.466   4.440 -0.2713  0.1743  0.2380
14571W        W57665  20.315  18.963   5.697 -0.1899  0.0304 -0.0405
14572W        W57666  19.701  19.064   4.316  0.2367  0.0832  0.3759
14573W        W57667  21.494  21.766   3.819  0.2384  0.0834 -0.0857
14574W        W57668  20.107  21.216   4.523  0.0225 -0.0579 -0.2109
14575W        W57669  19.894  20.210   7.076 -0.2797 -0.1153 -0.2285
14576W        W57670  20.423  18.195   4.663 -0.0628  0.0459  0.4616
14577W        W57671  21.884  20.378   6.500  0.1034 -0.1684  0.2810
14578W        W57672  20.493  17.397   5.244 -0.3500  0.3872  0.0836
14579W        W57673  18.408  19.242   2.821  0.0923  0.1458 -0.1438
14580W        W57674  20.925  21.726   4.411  0.1671  0.2252 -0.1075
14581W        W57675  20.048  20.959   3.267  0.1089 -0.1380 -0.2008
14582W        W57676  19.624  20.609   4.894 -0.0665 -0.0869 -0.1086
14583W        W57677  19.511  20.916   4.076  0.0844 -0.1089  0.4908
14584W        W57678  23.184  18.185   6.175 -0.1238 -0.1651  0.0241
14585W        W57679  16.944  19.663   7.038 -0.1353  0.0591  0.1244
14586W        W57680  22.088  17.945   5.862 -0.1115  0.0106  0.0434
14587W        W57681  18.760  18.580   3.625 -0.1070 -0.1864  0.0088
14588W        W57682  17.730  19.977   7.649  0.0148  0.2775 -0.0064
14589W        W57683  19.868  17.570   3.246 -0.1567  0.1559  0.2531
14590W        W57684  22.364  20.000   4.802 -0.1162 -0.0240 -0.1274
14591W        W57685  20.413  19.096   6.192 -0.0209  0.0191  0.2033
14592W        W57686  21.946  19.605   3.788 -0.0293  0.0205 -0.1545
14593W        W57687  20.200  18.520   3.229 -0.0956  0.1584 -0.0668
14594W        W57688  20.083  17.997   3.322 -0.5324  0.2394 -0.0250
14595W        W57689  18.868  20.375   7.804  0.0552  0.1095  0.1201
14596W        W57690  20.780  20.933   4.034 -0.2391  0.0892  0.0161
14597W        W57691  20.362  19.827   5.502 -0.0900  0.1016 -0.4197
14598W        W57692  20.654  17.370   3.822 -0.2000 -0.0714 -0.0414
14599W        W57693  23.557  19.733   4.049  0.1997  0.2839  0.0305
14600W        W57694  18.454  20.541   4.634 -0.0468  0.0212 -0.1717
14601W        W57695  22.143  19.565   7.733 -0.3386  0.0506 -0.3450
14602W        W57696  21.285  21.157   4.858  0.0204 -0.1720  0.1569
14603W        W57697  19.775  17.806   7.632  0.3262  0.0983  0.1857
14604W        W57698  18.690  20.166   3.186  0.0388  0.2189  0.1971
14605W        W57699  19.569  17.627   4.919 -0.2388  0.1266 -0.1087
14606W        W57700  18.855  22.058   3.287 -0.3028 -0.0006 -0.1444
14607W        W57701  21.764  18.616   6.622  0.0193 -0.1152  0.1567
14608W        W57702  20.675  18.644   4.437 -0.1040  0.0273 -0.1335
14609W        W57703  21.544  17.598   7.764 -0.1837  0.3402 -0.0753
14610W        W57704  24.484  19.833   6.820  0.2808  0.1514 -0.1018
14611W        W57705  20.385  19.359   3.810 -0.0193  0.4630 -0.0413
14612W        W57706  21.191  19.388   5.955  0.0206 -0.1137 -0.1685
14613W        W57707  20.687  18.239   2.044 -0.1919  0.1552  0.3614
14614W        W57708  18.948  19.553   6.521 -0.0796 -0.1532 -0.2149
14615W        W57709  20.074  17.621   4.780 -0.2089  0.1539  0.1728
14616W        W57710  18.827  21.089   6.450  0.1609  0.1257  0.1396
14617W        W57711  20.943  21.143   7.079 -0.1951 -0.0783 -0.0546
14618W        W57712  20.083  20.211   5.672  0.2531 -0.3143 -0.1394
14619W        W57713  19.048  19.051   7.468 -0.3629 -0.1979  0.0196
14620W        W57714  20.312  18.274   2.459  0.0455 -0.0782 -0.2389
14621W        W57715  20.727  21.505   3.580  0.1314 -0.0116 -0.0170
14622W        W57716  21.384  19.732   3.634 -0.2382 -0.0188 -0.0934
14623W        W57717  20.145  17.920   6.652 -0.0074 -0.2465 -0.1134
14624W        W57718  19.881  19.338   6.712 -0.0527  0.1573  0.2332
14625W        W57719  19.575  21.021   2.966 -0.0891  0.1539 -0.1631
14626W        W57720  20.986  20.181   6.563 -0.0742 -0.0026 -0.0536
14627W        W57721  18.681  21.052   4.472 -0.1608  0.1145 -0.1069
14628W        W57722  21.810  17.805   4.275  0.2076  0.0517  0.2430
14629W        W57723  18.991  20.620   4.384  0.3093  0.2509 -0.1682
14630W        W57724  19.847  18.148   4.271 -0.0238 -0.2363 -0.0506
14631W        W57725  19.080  18.986   3.532 -0.0671 -0.0249  0.0832
14632W        W57726  20.907  18.205   4.814 -0.0384 -0.1391 -0.2700
14633W        W57727  21.080  19.406   3.448 -0.2518 -0.0197 -0.0945
14634W        W57728  19.416  19.828   5.149 -0.2646 -0.0397 -0.4684
14635W        W57729  20.958  17.819   5.190 -0.1010 -0.1539 -0.0623
14636W        W57730  18.934  20.837   6.064  0.0598 -0.0067 -0.0680
14637W        W57731  20.922  19.954   5.282 -0.0777  0.2960  0.1385
14638W        W57732  20.586  17.781   4.878 -0.3148 -0.0336 -0.2223
14639W        W57733  21.433  21.785   6.534 -0.0174  0.0466  0.0475
14640W        W57734  19.337  19.462   7.808  0.1573 -0.2813  0.1160
14641W        W57735  18.350  18.441   3.983 -0.1491  0.0920  0.0615
14642W        W57736  22.490  19.335   6.324  0.0107 -0.2411 -0.0168
14643W        W57737  20.347  19.682   4.928 -0.1031 -0.0200 -0.1955
14644W        W57738  17.916  20.585   4.653 -0.1554  0.1713 -0.0564
14645W        W57739  19.051  21.325   5.268 -0.1700 -0.1392 -0.0757
14646W        W57740  19.089  18.747   2.284 -0.2283  0.1426 -0.0932
14647W        W57741  18.380  20.770   6.222 -0.1981 -0.1927  0.0713
14648W        W57742  18.991  18.185   7.253  0.3374 -0.0377  0.0831
14649W        W57743  22.042  19.746   6.360  0.1603 -0.0169  0.1207
14650W        W57744  20.336  19.070   4.548 -0.0461  0.2736 -0.2796
14651W        W57745  19.076  18.440   4.927 -0.2147 -0.1249  0.0581
14652W        W57746  19.912  19.187   4.805  0.0227  0.3233 -0.1420
14653W        W57747  22.247  20.162   6.188  0.0815 -0.0683  0.0919
14654W        W57748  20.677  18.371   5.309 -0.1932  0.2091  0.3577
14655W        W57749  18.737  21.587   6.417 -0.1137  0.1712 -0.2560
14656W        W57750  20.086  17.043   6.109 -0.2187  0.0352  0.0451
14657W        W57751  22.141  22.649   2.536 -0.4599  0.0456 -0.1544
14658W        W57752  20.313  20.667   5.597 -0.3296  0.0649 -0.2586
14659W        W57753  19.128  21.381   3.799  0.0683  0.1734 -0.0446
14660W        W57754  19.194  20.261   5.259  0.0918  0.1133  0.1321
14661W        W57755  20.056  20.803   4.872 -0.0058 -0.1148 -0.1545
14662W        W57756  19.535  19.154   6.421  0.0057 -0.2820 -0.0618
14663W        W57757  19.773  20.541   6.184  0.2503 -0.3168  0.0217
14664W        W57758  18.704  20.139   4.416 -0.1139  0.2047  0.1498
14665W        W57759  19.118  20.593   7.353 -0.2442 -0.1251 -0.0629
14666W        W57760  20.544  17.094   3.435  0.1462 -0.0850 -0.0626
14667W        W57761  19.890  19.916   2.357  0.0016  0.0583  0.0216
14668W        W57762  19.800  18.963   5.447 -0.0357 -0.1144  0.0971
14669W        W57763  21.939  18.137   6.516  0.2196 -0.0077 -0.1226
14670W        W57764  20.498  18.929   3.627 -0.0725  0.0909 -0.1199
14671W        W57765  21.371  17.822   6.954  0.5117  0.1464  0.1345
14672W        W57766  19.214  19.285   6.082  0.2407 -0.2875  0.2460
14673W        W57767  20.893  19.680   4.851  0.1432 -0.0135  0.1545
14674W        W57768  19.440  19.682   6.705  0.0767 -0.1516 -0.0161
14675W        W57769  19.947  21.656   7.392 -0.0480  0.0096  0.0768
14676W        W57770  18.275  19.768   6.715  0.3519  0.0749 -0.0445
14677W        W57771  21.083  18.687   4.697  0.2263  0.0148  0.1187
14678W        W57772  17.984  19.546   1.351 -0.0969  0.0983 -0.0611
14679W        W57773  20.177  18.985   4.062  0.1785 -0.0145 -0.2218
14680W        W57774  20.149  21.332   6.036 -0.2227 -0.2040  0.1291
14681W        W57775  19.465  20.145   3.818  0.4264  0.3720 -0.0276
14682W        W57776  21.288  19.517   5.208 -0.0529 -0.1820 -0.0658
14683W        W57777  19.402  19.438   4.721 -0.0463 -0.2227 -0.1002
14684W        W57778  20.695  19.076   4.064  0.1563 -0.0512 -0.1428
14685W        W57779  19.285  19.501   2.984  0.0161  0.2652  0.1717
14686W        W57780  19.818  19.660   4.696 -0.2804  0.1943  0.1807
14687W        W57781  18.491  17.782   7.033 -0.5528 -0.2218 -0.0030
14688W        W57782  21.217  21.192   5.498 -0.1643 -0.1859  0.1015
14689W        W57783  21.013  17.650   4.117  0.0322 -0.1462 -0.1030
14690W        W57784  20.954  18.923   6.179 -0.1349  0.1486 -0.1102
14691W        W57785  21.694  20.227   5.519 -0.1392  0.2278 -0.1416
14692W        W57786  19.092  18.754   6.982 -0.1783 -0.3737  0.1812
14693W        W57787  17.248  19.823   7.779  0.2616 -0.2118  0.0867
14694W        W57788  20.161  22.480   6.555 -0.0758  0.4354  0.1157
14695W        W57789  21.697  19.511   3.295  0.0514 -0.1814  0.1574
14696W        W57790  22.181  18.461   6.833 -0.1041 -0.0555 -0.0350
14697W        W57791  21.359  20.100   5.122 -0.0230 -0.2217  0.2112
14698W        W57792  19.513  19.259   3.448 -0.1954  0.2301 -0.1130
14699W        W57793  19.279  20.773   5.249  0.0286  0.1665  0.0800
14700W        W57794  22.279  19.774   7.255  0.1273  0.0533  0.0510
14701W        W57795  18.815  19.322   2.379 -0.1056 -0.1100 -0.0835
14702W        W57796  21.088  17.940   6.529  0.4600  0.0855 -0.0635
14703W        W57797  21.628  19.916   4.054 -0.0802 -0.0821 -0.0525
14704W        W57798  20.908  19.968   4.397  0.1180  0.2075 -0.2467
14705W        W57799  21.219  18.548   4.197  0.0521  0.2602 -0.2009
14706W        W57800  18.205  19.940   5.337 -0.0711  0.1025  0.2392
14707W        W57801  19.495  21.706   5.100  0.3125 -0.0841  0.0878
14708W        W57802  16.905  19.247   4.065  0.0332  0.2166  0.0630
14709W        W57803  19.303  19.012   2.984  0.0150 -0.3847 -0.0636
14710W        W57804  19.670  20.849   6.632  0.0515  0.2301 -0.0897
14711W        W57805  20.946  20.691   6.702 -0.1390  0.1448 -0.1234
14712W        W57806  19.453  17.424   3.557 -0.0310 -0.1582 -0.0163
14713W        W57807  21.044  18.605   6.579 -0.0439  0.0044 -0.0502
14714W        W57808  17.914  20.647   2.301  0.0256  0.0733 -0.1487
14715W        W57809  20.856  17.674   6.096 -0.0833  0.0037  0.0232
14716W        W57810  19.290  20.583   7.857  0.4480 -0.2098  0.1860
14717W        W57811  19.032  20.322   6.949  0.1822 -0.0997  0.1734
14718W        W57812  19.640  22.221   4.959 -0.1717 -0.2720 -0.1218
14719W        W57813  21.420  17.457   6.686  0.1440 -0.2159  0.0019
14720W        W57814  20.106  18.616   4.568 -0.1944  0.2079  0.1797
14721W        W57815  20.556  21.178   4.973  0.2288 -0.1330  0.3873
14722W        W57816  21.042  19.902   6.179  0.2824  0.0871 -0.2080
14723W        W57817  21.164  20.193   7.028 -0.3431 -0.0020 -0.0974
14724W        W57818  19.223  20.014   4.282 -0.1766 -0.0751  0.1725
14725W        W57819  19.163  21.868   6.120  0.1748 -0.1124 -0.0858
14726W        W57820  21.072  20.288   4.742 -0.1470 -0.2355  0.0779
14727W        W57821  19.687  20.353   5.296  0.0971 -0.2210 -0.1694
14728W        W57822  18.100  18.995   7.272 -0.0905  0.1126  0.1680
14729W        W57823  20.338  18.701   6.654 -0.1784 -0.1653 -0.2229
14730W        W57824  20.200  18.490   3.732  0.2659 -0.4553 -0.1983
14731W        W57825  19.080  18.026   5.283 -0.2725  0.0720  0.2966
14732W        W57826  20.252  20.739   3.759 -0.1362 -0.2463  0.0573
14733W        W57827  18.865  20.790   6.934  0.1009 -0.1093 -0.1020
14734W        W57828  18.871  19.876   5.466 -0.0081  0.1886  0.0728
14735W        W57829  19.653  22.408   3.569 -0.1949 -0.0458  0.1683
14736W        W57830  20.756  18.550   3.893 -0.2284 -0.0331  0.0004
14737W        W57831  19.744  18.608   4.045  0.0450 -0.1524 -0.1311
14738W        W57832  21.282  22.723   6.796 -0.3122  0.1223 -0.1912
14739W        W57833  18.964  19.559   4.331 -0.1792 -0.1297 -0.2842
14740W        W57834  18.754  20.377   6.191  0.1466  0.3887  0.2011
14741W        W57835  19.785  20.249   3.403 -0.0832 -0.3111 -0.2711
14742W        W57836  22.084  20.171   4.388  0.3654 -0.0552 -0.0917
14743W        W57837  19.008  20.332   3.978  0.2245  0.0556  0.0687
14744W        W57838  20.905  20.664   7.222 -0.1012  0.1323 -0.0848
14745W        W57839  21.387  17.838   3.640  0.0946 -0.2465  0.0735
14746W        W57840  21.346  19.160   5.557  0.0507 -0.0536  0.0697
14747W        W57841  22.179  18.719   3.399  0.1767 -0.4304  0.2776
14748W        W57842  21.851  20.368   7.069  0.2700 -0.4973 -0.0009
14749W        W57843  20.228  18.441   5.571  0.1215  0.0708  0.1585
14750W        W57844  20.154  18.755   2.612 -0.2433  0.0593  0.0279
14751W        W57845  20.450  18.895   7.828  0.0253 -0.2568  0.3760
14752W        W57846  22.298  18.984   6.893 -0.1443  0.0117 -0.1962
14753W        W57847  18.249  21.150   6.509 -0.0055  0.0213  0.2257
14754W        W57848  22.146  21.230   4.713 -0.0801  0.0926 -0.2113
14755W        W57849  18.498  18.328   4.485 -0.1268  0.2298 -0.1314
14756W        W57850  19.363  20.105   5.733 -0.2818  0.1959  0.1763
14757W        W57851  22.323  17.761   7.257 -0.2202  0.2135 -0.0420
14758W        W57852  19.586  19.601   4.284  0.2093 -0.2521  0.0610
14759W        W57853  19.607  17.123   5.869  0.1151  0.2373 -0.0331
14760W        W57854  20.436  21.669   5.073  0.3441  0.0035 -0.2761
14761W        W57855  20.068  20.411   6.567 -0.1761  0.1049 -0.0447
14762W        W57856  20.196  19.402   7.359 -0.1513  0.1968 -0.0199
14763W        W57857  18.440  19.225   1.902 -0.1402  0.2320 -0.2856
14764W        W57858  21.485  19.333   3.984  0.1192  0.0776  0.0875
14765W        W57859  18.857  19.262   7.009 -0.1294  0.0129 -0.0614
14766W        W57860  22.350  17.669   8.508 -0.1613  0.0911 -0.2825
14767W        W57861  18.913  18.550   3.164 -0.0603  0.1704 -0.1260
14768W        W57862  21.629  18.258   3.896  0.0431 -0.3917  0.2387
14769W        W57863  21.440  20.568   7.164  0.0265 -0.0345  0.2671
14770W        W57864  18.543  19.601   5.108 -0.2671 -0.3129 -0.0707
14771W        W57865  19.511  18.712   3.395  0.2004  0.1145  0.1412
14772W        W57866  21.459  20.213   6.060  0.0699 -0.1376 -0.0949
14773W        W57867  21.096  18.613   3.056 -0.0297 -0.5158  0.0733
14774W        W57868  20.289  20.490   6.059  0.0777  0.3125 -0.0858
14775W        W57869  17.633  18.867   2.735  0.1327  0.2575  0.3010
14776W        W57870  21.106  18.217   3.871  0.3145  0.0676 -0.2031
14777W        W57871  18.749  20.657   5.031 -0.1037 -0.1818 -0.0478
14778W        W57872  20.129  18.538   5.031 -0.1267  0.1332  0.1547
14779W        W57873  20.489  20.673   6.461  0.3847 -0.0798 -0.2568
14780W        W57874  20.163  17.711   3.832 -0.1897 -0.1815  0.2035
14781W        W57875  21.928  19.967   2.222  0.0237 -0.0871 -0.0255
14782W        W57876  21.868  20.233   4.819 -0.2404 -0.2620  0.0083
14783W        W57877  19.819  20.617   2.847 -0.0996  0.1078 -0.0875
14784W        W57878  21.035  19.613   3.981  0.1971  0.0991 -0.1665
14785W        W57879  20.361  22.933   5.096  0.0789  0.0510  0.1739
14786W        W57880  19.212  18.993   4.921  0.1161 -0.2647 -0.2073
14787W        W57881  20.607  21.697   5.845  0.3828 -0.0195  0.1505
14788W        W57882  22.431  23.869   6.407 -0.3163  0.0665 -0.0946
14789W        W57883  19.525  18.264   5.131 -0.0770 -0.0025  0.0940
14790W        W57884  19.979  19.967   6.126 -0.0421 -0.1014 -0.1415
14791W        W57885  19.316  22.331   4.227 -0.4590  0.2383 -0.0215
14792W        W57886  21.111  19.083   4.372  0.1486 -0.1185 -0.0063
14793W        W57887  20.773  19.224   4.801  0.1970 -0.2524  0.2192
14794W        W57888  19.878  19.710   2.899 -0.1994 -0.1387 -0.1442
14795W        W57889  21.463  17.956   7.435  0.0080 -0.0927 -0.0828
14796W        W57890  21.237  19.684   6.929 -0.1233  0.2497 -0.1234
14797W        W57891  19.805  19.656   7.163 -0.3719 -0.2042 -0.0326
14798W        W57892  18.817  19.178   3.079 -0.1150 -0.0787  0.2139
14799W        W57893  19.954  18.906   6.454 -0.2957  0.0049 -0.2329
14800W        W57894  20.453  20.209   5.199  0.1287  0.0772 -0.0230
14801W        W57895  20.482  21.500   4.546 -0.0160 -0.0169  0.0957
14802W        W57896  21.436  21.566   5.203 -0.0048 -0.1570  0.2666
14803W        W57897  19.768  19.340   3.849  0.1416 -0.1037  0.1078
14804W        W57898  21.467  20.035   4.560 -0.1109  0.3437 -0.1751
14805W        W57899  19.016  19.807   4.753 -0.1319  0.1336 -0.0695
14806W        W57900  23.218  18.708   3.758 -0.2074  0.0736  0.0807
14807W        W57901  20.812  18.180   4.288  0.0137  0.1240 -0.4589
14808W        W57902  18.726  20.122   7.375 -0.0002 -0.1634 -0.0621
14809W        W57903  18.263  20.008   2.690  0.1257 -0.2107 -0.0095
14810W        W57904  18.354  19.540   2.436  0.2835  0.0736 -0.0945
14811W        W57905  19.772  19.358   5.709 -0.3688  0.1120  0.0928
14812W        W57906  20.475  16.278   7.460  0.1442 -0.0454 -0.2462
14813W        W57907  17.489  19.053   6.021  0.0023  0.0259  0.1207
14814W        W57908  19.084  20.628   6.515  0.3151 -0.2097  0.0040
14815W        W57909  19.963  20.303   4.676 -0.2270 -0.1431  0.0415
14816W        W57910  20.660  20.125   3.174  0.0406  0.1726  0.1896
14817W        W57911  19.126  19.096   5.464 -0.0798 -0.3270  0.1530
14818W        W57912  19.462  17.940   5.585  0.3725 -0.3697  0.2568
14819W        W57913  20.623  17.992   3.143  0.0565 -0.0195  0.0842
14820W        W57914  20.191  21.561   5.565  0.1930 -0.2398 -0.2215
14821W        W57915  20.258  19.833   4.480  0.2152 -0.1965 -0.2799
14822W        W57916  20.713  21.555   7.425 -0.1522 -0.1983  0.0375
14823W        W57917  18.315  21.014   1.550 -0.0098  0.0565  0.2158
14824W        W57918  19.830  19.490   6.213  0.0453 -0.0408 -0.0366
14825W        W57919  19.837  18.427   6.855  0.2071  0.1588  0.0633
14826W        W57920  17.794  19.110   3.598  0.2083 -0.1000  0.0419
14827W        W57921  20.805  18.721   5.675  0.1671  0.1954 -0.4820
14828W        W57922  20.916  20.767   4.719  0.2245 -0.4802  0.0637
14829W        W57923  21.212  20.947   4.239  0.0419  0.0807  0.0882
14830W        W57924  21.426  19.077   6.491 -0.3388 -0.0995  0.0509
14831W        W57925  20.332  19.896   7.104 -0.0467 -0.1604  0.3823
14832W        W57926  18.514  18.317   7.059  0.2056 -0.2819  0.2824
14833W        W57927  22.061  18.712   4.433 -0.1648  0.1838 -0.1050
14834W        W57928  20.295  18.754   7.229  0.0337 -0.0015  0.0581
14835W        W57929  22.577  20.685   3.641  0.1851  0.0168  0.2308
14836W        W57930  19.861  18.042   4.792 -0.1091 -0.2004 -0.3985
14837W        W57931  21.448  18.981   3.382 -0.2200 -0.1641 -0.1266
14838W        W57932  18.656  18.405   6.053  0.3145  0.0857  0.0173
14839W        W57933  19.316  19.604   7.319  0.2534  0.3674  0.0528
14840W        W57934  22.780  21.988   5.072 -0.1647 -0.1715 -0.1711
14841W        W57935  18.314  18.776   4.419 -0.1280  0.0273  0.1028
14842W        W57936  22.904  17.936   4.390 -0.3477  0.0806  0.2368
14843W        W57937  20.256  20.257   3.746 -0.0431  0.1494  0.0022
14844W        W57938  19.532  20.074   4.677  0.1004  0.0043 -0.3396
14845W        W57939  19.765  19.735   3.385  0.2189 -0.2598  0.0667
14846W        W57940  20.327  19.011   5.172 -0.0071 -0.0530 -0.2889
14847W        W57941  19.956  21.107   4.041 -0.0161  0.1141  0.0103
14848W        W57942  21.921  19.949   5.814  0.0037  0.2460 -0.1294
14849W        W57943  19.207  19.126   4.305  0.0863  0.0612 -0.1272
14850W        W57944  20.519  18.929   3.071  0.1809  0.1439  0.0697
14851W        W57945  21.382  21.391   6.139 -0.1290 -0.3770  0.3024
14852W        W57946  20.409  21.935   7.444  0.1410  0.0825 -0.2122
14853W        W57947  21.556  21.548   5.720  0.2284 -0.0178 -0.3550
14854W        W57948  22.609  20.460   4.518 -0.4591 -0.0699 -0.2537
14855W        W57949  18.473  18.811   6.289  0.0240 -0.1416  0.0905
14856W        W57950  19.293  19.486   3.882  0.1599  0.0092  0.1637
14857W        W57951  19.797  20.839   5.547 -0.1797 -0.0839 -0.0820
14858W        W57952  20.988  18.972   5.197  0.0716 -0.1377  0.1102
14859W        W57953  19.581  19.361   5.172  0.0277  0.2239 -0.0804
14860W        W57954  19.304  17.446   4.061  0.4149 -0.0226 -0.1551
14861W        W57955  20.430  20.087   6.551 -0.0572  0.0458 -0.0749
14862W        W57956  19.529  20.261   6.576 -0.0393  0.0721 -0.0932
14863W        W57957  17.506  21.050   9.577  0.0875  0.0200 -0.3717
14864W        W57958  19.606  20.085   9.784  0.1662 -0.1989  0.0289
14865W        W57959  21.641  19.177   7.086 -0.0673  0.0890 -0.3153
14866W        W57960  22.798  19.514   7.775 -0.0650  0.1269 -0.1731
14867W        W57961  19.365  18.395   8.525 -0.2525 -0.0871  0.1599
14868W        W57962  20.108  21.226   7.841  0.0388  0.3229 -0.2675
14869W        W57963  17.214  20.751   9.969 -0.0448 -0.0089 -0.0038
14870W        W57964  21.237  19.692   9.534  0.1187 -0.0627 -0.0038
14871W        W57965  20.838  19.175   6.656 -0.3303 -0.3850  0.1080
14872W        W57966  21.662  18.937  10.248 -0.0713  0.0970  0.2155
14873W        W57967  19.957  16.969   8.718  0.1861  0.0385 -0.0915
14874W        W57968  18.054  16.668   8.912 -0.2174  0.0420  0.1712
14875W        W57969  21.571  18.262   9.635 -0.0131 -0.2162  0.0453
14876W        W57970  17.666  19.740   8.188 -0.1008  0.0008 -0.3324
14877W        W57971  19.747  20.566   9.310 -0.2762  0.0097  0.1609
14878W        W57972  21.447  18.459   6.266 -0.1717  0.0600  0.0041
14879W        W57973  20.052  21.614   9.269  0.2152 -0.3241  0.0259
14880W        W57974  18.068  17.865   9.237  0.3419  0.1381  0.2083
14881W        W57975  19.833  19.452   7.711 -0.3633  0.0292  0.1604
14882W        W57976  17.366  19.843   7.260 -0.0411 -0.0037  0.2416
14883W        W57977  16.737  18.555   7.530 -0.0145  0.0846 -0.2559
14884W        W57978  19.389  19.036   9.113  0.2564  0.1381 -0.0651
14885W        W57979  21.055  18.659   9.606  0.0580  0.1026 -0.1124
14886W        W57980  20.550  17.760  10.717 -0.2483  0.0198 -0.0686
14887W        W57981  19.114  20.535   8.355 -0.3114  0.0959 -0.0598
14888W        W57982  20.621  21.387   8.350  0.1593  0.2000 -0.0971
14889W        W57983  18.733  21.296   7.923  0.2620 -0.2310 -0.1388
14890W        W57984  18.239  22.511   7.527 -0.2080 -0.0064 -0.0221
14891W        W57985  18.986  21.876   7.406 -0.0471  0.0819  0.0129
14892W        W57986  20.691  18.711   8.236  0.0144  0.0387  0.0107
14893W        W57987  19.336  21.010   6.943 -0.0508  0.1648  0.0143
14894W        W57988  19.952  19.589  10.503 -0.2465 -0.3251  0.1796
14895W        W57989  21.132  19.158   9.760  0.1343 -0.2986  0.1513
14896W        W57990  19.407  21.530   7.243  0.1749 -0.3771  0.1777
14897W        W57991  19.888  20.168   8.497 -0.0082  0.4219  0.0572
14898W        W57992  18.864  21.247   9.038 -0.0287  0.0071 -0.0050
14899W        W57993  17.820  21.023   6.873  0.2601 -0.1014  0.0538
14900W        W57994  21.084  16.911   7.816  0.0433  0.2803  0.0864
14901W        W57995  19.633  18.546   7.719 -0.0482  0.3469  0.2155
14902W        W57996  20.570  18.300   7.999  0.0089 -0.4347 -0.1561
14903W        W57997  20.924  17.788   8.893 -0.1581 -0.1307  0.0771
14904W        W57998  20.498  21.259   9.169 -0.2546  0.1260 -0.1505
14905W        W57999  18.110  20.136   9.297 -0.1256 -0.1016  0.3632
14906W        W58000  20.248  19.674   9.100  0.4134 -0.1983  0.1673
14907W        W58001  21.647  19.017   8.971  0.2807  0.0892 -0.3634
14908W        W58002  16.678  19.965  11.494  0.0024 -0.0535  0.4860
14909W        W58003  18.558  19.672   8.223 -0.0112  0.0330 -0.4382
14910W        W58004  19.577  21.947   7.578 -0.1046  0.1227  0.3780
14911W        W58005  20.455  21.076   8.705  0.1763  0.1699 -0.1250
14912W        W58006  20.564  20.407   6.880 -0.2036  0.1703 -0.1847
14913W        W58007  18.922  19.221   7.975 -0.3488  0.2192 -0.0749
14914W        W58008  19.137  18.603   6.286  0.1584 -0.0238  0.2289
14915W        W58009  21.265  18.100   8.566  0.0734 -0.1223 -0.0157
14916W        W58010  20.454  20.797   8.153 -0.1700  0.2982  0.0388
14917W        W58011  23.739  20.816   9.290  0.4414  0.3472  0.1557
14918W        W58012  20.640  20.372   7.807  0.0224  0.0585 -0.2055
14919W        W58013  20.068  17.866   8.732  0.0757 -0.1319  0.2922
14920W        W58014  19.709  17.834   9.673  0.1341  0.2330  0.2287
14921W        W58015  18.568  19.221   7.517  0.0222 -0.0292  0.4170
14922W        W58016  19.388  18.092   7.580 -0.0325  0.2913  0.1128
14923W        W58017  23.949  20.549  11.577  0.1732 -0.0839 -0.2401
14924W        W58018  20.633  19.113   7.213 -0.0232 -0.2565  0.1108
14925W        W58019  17.694  21.419   9.899 -0.0095 -0.1252  0.0999
14926W        W58020  19.808  21.228   7.116 -0.0517  0.0982 -0.1095
14927W        W58021  18.399  19.721   9.077 -0.1857 -0.0110 -0.5778
14928W        W58022  18.287  19.274   7.987 -0.1312  0.1732 -0.1917
14929W        W58023  19.354  18.689   9.539 -0.0353 -0.1614  0.0588
14930W        W58024  19.864  20.518   9.809 -0.0457  0.1979  0.0821
14931W        W58025  20.034  18.221   7.911  0.0335  0.1669 -0.0929
14932W        W58026  21.860  16.815   9.740  0.0647  0.0654  0.3395
14933W        W58027  18.982  20.418   8.838  0.0248  0.0775  0.1136
14934W        W58028  20.915  20.982   8.396 -0.2130  0.1686 -0.1152
14935W        W58029  22.389  19.151   7.634 -0.0278  0.3015  0.0636
14936W        W58030  20.491  21.555   6.966 -0.2291 -0.2513 -0.2077
14937W        W58031  18.848  18.920   8.386 -0.4881  0.2294  0.0262
14938W        W58032  17.582  19.035   9.668  0.1696 -0.0718 -0.2050
14939W        W58033  18.436  19.953   9.613  0.3678  0.0029 -0.0910
14940W        W58034  19.501  17.990   7.053  0.2925 -0.2928  0.1544
14941W        W58035  20.883  18.485   8.651  0.0287  0.0508 -0.1595
14942W        W58036  20.402  19.456   7.816 -0.0730  0.1766  0.0120
14943W        W58037  18.568  20.720   7.339  0.1839  0.0173  0.1857
14944W        W58038  20.424  20.331   9.144  0.0500 -0.0093 -0.0927
14945W        W58039  21.741  19.937   9.248  0.1233 -0.5338  0.1594
14946W        W58040  19.712  20.851   7.973  0.1080  0.0015 -0.0561
14947W        W58041  18.497  18.882   9.026 -0.2774 -0.0267  0.0074
14948W        W58042  19.092  19.098   6.609 -0.3406  0.0229 -0.1452
14949W        W58043  19.630  21.343   8.162 -0.1511 -0.3107  0.0259
14950W        W58044  18.980  21.637   6.968 -0.0093 -0.0354 -0.0196
14951W        W58045  19.513  18.178   8.108  0.1688 -0.1801  0.0826
14952W        W58046  20.794  21.057   9.687  0.0896 -0.0966  0.1533
14953W        W58047  19.807  20.231   8.978 -0.0779  0.1956 -0.0285
14954W        W58048  19.953  18.132  10.066 -0.1293  0.1953  0.0424
14955W        W58049  20.539  21.750   9.264  0.5122  0.1253  0.2134
14956W        W58050  18.562  19.831   6.278  0.1664  0.2497  0.2464
14957W        W58051  21.083  21.480   8.491  0.1547 -0.0809 -0.4369
14958W        W58052  18.969  22.621   6.617 -0.0850  0.0860  0.0025
14959W        W58053  18.986  19.485   8.445 -0.0789 -0.0744 -0.1122
14960W        W58054  19.874  21.681   7.947 -0.1519  0.0213 -0.1052
14961W        W58055  20.184  18.997  10.405  0.0517  0.0709  0.1358
14962W        W58056  19.703  20.335   8.068  0.0746  0.0617  0.0925
14963W        W58057  20.551  16.136   8.790  0.0213 -0.0932 -0.1456
14964W        W58058  21.960  17.781   6.891  0.1055 -0.1156  0.1495
14965W        W58059  20.352  20.212   9.705  0.0832  0.1504  0.1801
14966W        W58060  21.360  18.727   5.853  0.3055 -0.0801 -0.0693
14967W        W58061  20.197  17.720   5.709  0.0561  0.0669  0.0019
14968W        W58062  20.706  19.595   7.432  0.0572 -0.0460  0.2092
14969W        W58063  20.256  21.581   8.616 -0.1308 -0.0470 -0.0026
14970W        W58064  20.147  18.627   8.231  0.0473  0.2499  0.0140
14971W        W58065  21.346  20.299   8.992 -0.0953 -0.0505  0.1345
14972W        W58066  18.740  19.362   9.212 -0.1671  0.1430  0.1528
14973W        W58067  19.349  20.093   8.669  0.0709 -0.0046 -0.1245
14974W        W58068  20.050  18.868   8.984 -0.1311  0.1982 -0.3813
14975W        W58069  19.855  19.708   8.627  0.3026 -0.3817 -0.0595
14976W        W58070  19.122  17.874   8.775 -0.5313  0.1791  0.3105
14977W        W58071  18.252  21.170   7.216 -0.0359  0.0986  0.0824
14978W        W58072  20.440  19.210  10.797  0.1175  0.0024 -0.3784
14979W        W58073  20.243  18.621   9.477 -0.1310 -0.2334  0.1219
14980W        W58074  20.495  18.034   8.965 -0.1188 -0.1828  0.0842
14981W        W58075  20.976  21.416   9.330  0.0638  0.2025 -0.2395
14982W        W58076  18.166  20.259   7.630 -0.0969  0.0843  0.1470
14983W        W58077  19.344  18.802  10.008 -0.1442  0.1692 -0.1101
14984W        W58078  17.810  21.237   8.828  0.1215 -0.2748 -0.0232
14985W        W58079  20.726  21.591   8.813  0.2720  0.2246 -0.0356
14986W        W58080  20.315  17.927   7.540  0.0607  0.2689  0.4398
14987W        W58081  19.271  22.550   7.126 -0.0401  0.1581 -0.2687
14988W        W58082  20.553  19.896   7.793  0.0814 -0.2139 -0.0093
14989W        W58083  19.364  20.236  10.195  0.0882  0.1780  0.1642
14990W        W58084  21.450  21.302   8.939  0.2332 -0.2552  0.3414
14991W        W58085  19.914  19.826   6.615 -0.2307 -0.2342  0.1027
14992W        W58086  20.176  21.288   9.680 -0.2470  0.1916 -0.0206
14993W        W58087  19.261  21.007   8.083 -0.2324 -0.0913  0.1324
14994W        W58088  22.655  18.647   9.933  0.1392  0.3180 -0.3733
14995W        W58089  18.567  22.035   9.202 -0.0566 -0.0784 -0.1391
14996W        W58090  20.006  20.131   9.399 -0.1357  0.0963 -0.0250
14997W        W58091  18.154  19.880   7.251  0.3961 -0.1041  0.0665
14998W        W58092  21.492  17.582   9.262  0.1862 -0.2808  0.0277
14999W        W58093  21.701  19.569   6.782  0.2660 -0.2775 -0.4783
15000W        W58094  17.892  17.706   9.723 -0.0791  0.0183  0.0977
15001W        W58095  18.171  18.331   9.163 -0.0542 -0.0169 -0.0347
15002W        W58096  16.816  21.605   9.749  0.0205  0.0132  0.0758
15003W        W58097  20.363  18.542   6.118  0.0009  0.1835 -0.0022
15004W        W58098  18.754  18.170   8.591 -0.2751 -0.0605 -0.0043
15005W        W58099  22.845  17.408   9.710  0.2367 -0.1636  0.1039
15006W        W58100  19.122  18.516   7.622  0.1656 -0.1387  0.0335
15007W        W58101  18.902  19.817  10.121  0.1746 -0.0612 -0.0853
15008W        W58102  21.003  20.595   9.789  0.0674 -0.1741 -0.1206
15009W        W58103  19.462  18.772   6.697 -0.3567 -0.0192 -0.0953
15010W        W58104  19.092  20.941   8.667  0.3217 -0.0146 -0.0800
15011W        W58105  22.351  18.920   9.045  0.0297  0.0220 -0.0585
15012W        W58106  18.906  19.806   8.918 -0.0684 -0.1914  0.0248
15013W        W58107  20.314  19.724   8.337 -0.4517 -0.0841  0.3612
15014W        W58108  18.897  18.483   9.687  0.0084  0.2527  0.0870
15015W        W58109  19.847  19.622   9.853 -0.0894 -0.0063  0.0076
15016W        W58110  18.473  20.169   8.951  0.0453 -0.3107 -0.1148
15017W        W58111  23.552  18.620  10.264  0.0068 -0.0439  0.1326
15018W        W58112  21.249  20.135   8.482 -0.0369 -0.0067  0.2569
15019W        W58113  19.198  20.073   7.573 -0.2319 -0.0896  0.0085
15020W        W58114  20.228  19.208   9.803  0.0875 -0.1541 -0.2335
15021W        W58115  18.948  19.782   7.875 -0.1737  0.1255 -0.1988
15022W        W58116  20.445  18.005  10.074  0.1735 -0.0205 -0.0836
15023W        W58117  16.878  19.949   9.587  0.1369 -0.1962 -0.0018
15024W        W58118  19.372  20.693   9.034 -0.2031 -0.2868 -0.1493
15025W        W58119  17.891  20.344   8.885 -0.2069 -0.1511  0.1380
15026W        W58120  21.415  17.686   8.738 -0.1442  0.1431  0.2367
15027W        W58121  20.768  20.097   7.358 -0.0465 -0.0839 -0.0693
15028W        W58122  19.292  18.862   8.614  0.4016  0.1626 -0.1232
15029W        W58123  21.081  18.371   8.116 -0.0992 -0.1479 -0.0646
15030W        W58124  19.401  19.494   8.757  0.3197  0.0366 -0.2493
15031W        W58125  20.903  19.538   7.948  0.2114 -0.0602 -0.0259
15032W        W58126  19.802  18.821   9.375  0.2601 -0.2218  0.1606
15033W        W58127  19.434  18.453   7.212 -0.1310 -0.2756  0.0015
15034W        W58128  18.139  19.247   8.943 -0.0207 -0.0093 -0.1671
15035W        W58129  20.526  19.924  10.212  0.0165 -0.0392  0.0094
15036W        W58130  20.047  20.670   8.875  0.2197  0.4447 -0.3242
15037W        W58131  20.526  18.869   8.684  0.3413  0.3119 -0.0958
15038W        W58132  18.759  20.076   8.481  0.6503  0.2908  0.2015
15039W        W58133  20.647  18.967   9.580 -0.1766  0.1170  0.4501
15040W        W58134  21.258  18.820   8.093 -0.0402  0.2291 -0.0365
15041W        W58135  19.999  20.678   8.338  0.1521 -0.3413  0.1247
15042W        W58136  20.437  20.599   8.572 -0.3887  0.2538 -0.2614
15043W        W58137  20.761  17.740   9.334  0.0891  0.1376  0.1309
15044W        W58138  20.700  21.879   8.314  0.4577  0.1655  0.4222
15045W        W58139  23.016  19.533   6.506  0.1326 -0.2032 -0.1441
15046W        W58140  21.064  18.001  10.331  0.2062 -0.0280 -0.1515
15047W        W58141  21.176  19.279   9.013  0.1629 -0.1765  0.0077
15048W        W58142  20.745  19.337   8.502  0.2395  0.0206 -0.1197
15049W        W58143  18.668  18.391   9.236  0.1266 -0.4038  0.1479
15050W        W58144  18.881  17.920   9.320 -0.1591  0.1245  0.3120
15051W        W58145  20.702  20.772   9.072  0.3578 -0.1523 -0.1696
15052W        W58146  19.627  21.130   9.882  0.0236  0.0977  0.0842
15053W        W58147  20.891  18.085   6.999  0.0811  0.1103 -0.1612
15054W        W58148  18.108  18.831   8.165 -0.1849 -0.2864  0.0987
15055W        W58149  18.337  19.396   6.995 -0.5006 -0.0776  0.0084
15056W        W58150  20.346  20.020   8.736  0.1323 -0.0439 -0.0349
15057W        W58151  19.271  20.964   9.456  0.0961 -0.0478 -0.0703
15058W        W58152  20.640  18.506   9.073  0.0921  0.0230 -0.1010
15059W        W58153  18.438  20.600   9.285 -0.1127  0.2131  0.1798
15060W        W58154  21.622  18.409   8.264  0.0281 -0.2233  0.0515
15061W        W58155  18.594  21.527   9.459 -0.0469 -0.0646 -0.1940
15062W        W58156  20.133  20.493   7.791  0.0282  0.0931 -0.0497
15063W        W58157  20.643  19.176   9.051  0.1654  0.0572  0.1142
15064W        W58158  20.773  19.445   9.521 -0.2655  0.0474 -0.2676
15065W        W58159  19.785  19.278   8.989 -0.0010  0.0501  0.4640
15066W        W58160  18.814  20.137   9.325 -0.0937  0.1944  0.0050
15067W        W58161  20.986  21.592   7.990 -0.1391  0.0753  0.0297
15068W        W58162  18.182  21.377   9.759  0.1334 -0.2403 -0.1236
15069W        W58163  18.902  20.710   9.267  0.2273  0.1454  0.2139
15070W        W58164  19.574  16.645   8.704 -0.1675 -0.0070  0.1675
15071W        W58165  19.728  21.316   6.586 -0.1677  0.0318  0.0838
15072W        W58166  18.347  21.186   9.026  0.0553 -0.3912  0.3051
15073W        W58167  19.654  22.142   8.053  0.0885  0.3174 -0.1284
15074W        W58168  21.998  20.070   7.524 -0.3972  0.0225 -0.0901
15075W        W58169  21.504  18.487   8.772 -0.1638 -0.0650  0.0419
15076W        W58170  19.919  21.982   8.930  0.1324 -0.1081 -0.0522
15077W        W58171  20.387  19.181   8.228  0.4329 -0.3225 -0.1222
15078W        W58172  18.626  20.849   8.817  0.0144 -0.4054 -0.2636
15079W        W58173  18.106  22.376   7.045  0.0891  0.0885 -0.0277
15080W        W58174  20.396  20.396   7.377  0.3055  0.2090 -0.0581
15081W        W58175  19.682  21.025   8.580  0.1117  0.0366  0.1780
15082W        W58176  21.733  18.399   7.111  0.0410 -0.0977 -0.2195
15083W        W58177  22.820  21.202   9.827 -0.0849  0.0169 -0.1152
15084W        W58178  21.384  19.368   8.245 -0.2602  0.0330  0.1211
15085W        W58179  18.714  20.334   9.861  0.0598 -0.1219 -0.2141
15086W        W58180  20.656  18.327   7.356 -0.1286  0.1052  0.0439
15087W        W58181  20.873  22.074   6.812 -0.5277 -0.0727 -0.1457
15088W        W58182  18.831  18.651   8.776 -0.0159  0.0811 -0.1393
15089W        W58183  19.521  19.750   8.276  0.2584  0.2792  0.2654
15090W        W58184  20.282  18.402  10.379  0.3095  0.3836 -0.0830
15091W        W58185  20.743  18.606   6.992  0.2076  0.4143 -0.0338
15092W        W58186  20.760  19.876   9.353  0.3390 -0.2863  0.2863
15093W        W58187  19.181  21.868   7.872 -0.5268  0.1379 -0.3274
15094W        W58188  20.015  21.250   8.869 -0.0001  0.1086 -0.1840
15095W        W58189  19.593  21.889   9.384  0.0027  0.4848 -0.1760
15096W        W58190  18.346  18.474   8.754 -0.1107  0.2241  0.0480
15097W        W58191  20.720  17.766   7.882  0.0003  0.3393 -0.5191
15098W        W58192  19.607  19.134   9.671  0.1894  0.0882  0.3429
15099W        W58193  19.276  20.109   8.095 -0.0484  0.2759  0.1317
15100W        W58194  20.614  19.122  10.078 -0.2702 -0.1671  0.1647
15101W        W58195  19.553  20.550   8.599 -0.2347  0.1001 -0.0049
15102W        W58196  18.691  18.987   9.826  0.0514  0.2137  0.2233
15103W        W58197  19.854  18.918   7.007 -0.0470 -0.0086 -0.0794
15104W        W58198  20.273  18.246   6.962  0.0479  0.1191 -0.0230
15105W        W58199  18.944  18.821   9.261 -0.3019 -0.4092  0.2391
15106W        W58200  21.260  17.473   7.282 -0.1189 -0.0839 -0.1318
15107W        W58201  18.493  20.514   8.458 -0.2226  0.0258  0.0545
15108W        W58202  19.389  20.672   9.879  0.1713  0.3752 -0.0276
15109W        W58203  19.013  17.987   8.223  0.0657 -0.0413  0.1100
15110W        W58204  21.680  20.808   6.803  0.1870 -0.0118  0.0881
15111W        W58205  20.431  18.619   9.975 -0.0852 -0.0989 -0.0591
15112W        W58206  19.454  20.993   7.429  0.1884 -0.0893 -0.0662
15113W        W58207  19.737  19.743   9.160  0.1244  0.1637 -0.0179
15114W        W58208  18.603  23.631   9.366 -0.2000  0.3939  0.2971
15115W        W58209  18.940  19.329  10.134 -0.0383 -0.0946 -0.0037
15116W        W58210  23.369  20.493  11.444  0.1233 -0.1471  0.0244
15117W        W58211  22.684  21.640   8.651 -0.0010  0.4070  0.1122
15118W        W58212  20.120  18.388   9.025  0.0987 -0.0843  0.0008
15119W        W58213  19.431  19.249   8.318  0.2551 -0.0139 -0.1664
15120W        W58214  18.831  22.186   8.230  0.0301  0.1582 -0.2287
15121W        W58215  23.016  20.143   9.714 -0.1401 -0.1414  0.2780
15122W        W58216  20.125  19.954   7.545  0.1812 -0.1524 -0.0691
15123W        W58217  19.756  19.152  10.100  0.1878 -0.1040  0.0359
15124W        W58218  17.661  20.284   6.387  0.1163 -0.0765 -0.1424
15125W        W58219  19.937  20.821   7.475  0.0331  0.2241  0.0358
15126W        W58220  20.493  20.861   7.523 -0.0065  0.0529  0.0145
15127W        W58221  22.802  20.672   9.888  0.2132 -0.1875  0.2064
15128W        W58222  21.640  19.599   7.290  0.0741 -0.1406 -0.5369
15129W        W58223  21.610  19.488   8.798  0.3444 -0.0675  0.0952
15130W        W58224  19.421  17.639   9.125 -0.0575 -0.0396 -0.1131
15131W        W58225  20.266  17.397   7.446 -0.0945  0.0725  0.1662
15132W        W58226  21.040  17.437   7.723 -0.1600  0.0208  0.4077
15133W        W58227  18.689  21.313   8.522  0.4403  0.1128 -0.1043
15134W        W58228  17.810  19.309   8.171  0.1255  0.2479 -0.1534
15135W        W58229  19.898  19.400   8.213 -0.1876 -0.3500 -0.1348
15136W        W58230  17.376  19.166   8.349 -0.3897 -0.0537 -0.3586
15137W        W58231  19.122  19.212   9.622  0.0178 -0.0597  0.0790
15138W        W58232  18.060  18.608  10.364  0.1681  0.1356  0.2785
15139W        W58233  20.708  19.678   6.708 -0.0954 -0.0647 -0.0851
15140W        W58234  18.526  17.925   8.992 -0.1461  0.0613 -0.0589
15141W        W58235  17.611  18.779   8.100  0.0667  0.1556  0.0786
15142W        W58236  20.695  19.732   8.838  0.2836 -0.1357  0.2754
15143W        W58237  21.159  19.631   8.619 -0.0155 -0.0878 -0.0909
15144W        W58238  19.865  18.348   8.520  0.2508  0.0900 -0.3741
15145W        W58239  18.266  20.671   8.016  0.3049  0.0649  0.4183
15146W        W58240  18.290  17.997   8.520  0.3532 -0.2821 -0.3924
15147W        W58241  19.262  20.030   9.149  0.2783 -0.3119 -0.0197
15148W        W58242  20.780  19.899   8.330 -0.0785  0.0389  0.0148
15149W        W58243  20.948  21.274   5.906  0.0177  0.1270  0.1995
15150W        W58244  19.537  19.743  10.324  0.0940 -0.1570  0.1042
15151W        W58245  21.072  20.081   7.956  0.0057 -0.2340 -0.1015
15152W        W58246  20.819  20.197   8.860 -0.1988 -0.0868 -0.0753
15153W        W58247  21.282  17.875   9.570  0.1983 -0.0502  0.2305
15154W        W58248  20.139  18.578   7.660 -0.1217 -0.2708 -0.2761
15155W        W58249  23.297  18.611   9.815 -0.4282  0.5087 -0.1105
15156W        W58250  20.400  17.472  10.258  0.1034 -0.0807  0.0197
15157W        W58251  20.362  18.334   8.553  0.0981 -0.3911 -0.0224
15158W        W58252  20.339  20.247   8.230  0.0914  0.1788 -0.4316
15159W        W58253  19.251  19.517   9.256 -0.0013  0.0871  0.1480
15160W        W58254  19.851  18.949   8.507 -0.0827  0.0079 -0.1650
15161W        W58255  20.123  20.922   9.311 -0.1482  0.4561 -0.1604
15162W        W58256  20.211  19.274   8.711 -0.2483 -0.0537 -0.0223
15163W        W58257  22.195  20.031   6.791 -0.1557  0.0182 -0.0952
15164W        W58258  20.969  22.036   9.262 -0.0435 -0.1125 -0.2705
15165W        W58259  19.995  20.052  10.230  0.2078 -0.1153  0.0633
15166W        W58260  20.179  17.390  11.402 -0.2569 -0.3274 -0.0243
15167W        W58261  19.091  16.820   8.956  0.0172  0.0003 -0.3252
15168W        W58262  20.007  19.929   8.028 -0.1998 -0.0909  0.1123
15169W        W58263  19.307  18.914   7.901 -0.0871 -0.0967  0.1111
15170W        W58264  19.596  18.647   8.915  0.1679  0.1595  0.1704
15171W        W58265  18.036  19.586   9.486  0.0910 -0.0718 -0.1052
15172W        W58266  20.803  17.728   7.359  0.0595 -0.2862 -0.2807
15173W        W58267  20.578  20.653   9.512  0.0020  0.0495  0.0268
15174W        W58268  20.282  22.140   9.293  0.3550 -0.0194  0.0330
15175W        W58269  19.817  23.858   3.111 -0.1429 -0.1017  0.2143
15176W        W58270  19.783  23.200   2.328 -0.2627  0.0862 -0.1602
15177W        W58271  18.801  22.384  31.809 -0.0879  0.0662 -0.1601
15178W        W58272  22.158  24.159   1.285 -0.1182  0.1261 -0.2995
15179W        W58273  19.385  20.893   0.930  0.0901  0.2449  0.1186
15180W        W58274  20.587  25.770   0.567 -0.1729  0.2887 -0.0739
15181W        W58275  17.291  21.812   1.636  0.0753  0.2201 -0.1297
15182W        W58276  21.293  23.593   2.083  0.0382 -0.1187  0.2010
15183W        W58277  21.015  25.484   1.460  0.0353 -0.0641  0.1108
15184W        W58278  20.113  23.535  30.588 -0.1001 -0.4158  0.0255
15185W        W58279  17.480  22.781   1.201  0.4279 -0.4308  0.0649
15186W        W58280  19.974  24.980   0.303  0.2255  0.1413  0.0749
15187W        W58281  20.450  20.663   2.908 -0.1625  0.0151  0.1188
15188W        W58282  17.821  22.854   0.793 -0.2341  0.1013  0.2457
15189W        W58283  21.203  22.620   0.540  0.0499 -0.3042 -0.0360
15190W        W58284  18.287  22.155   0.067  0.1078  0.2701 -0.1390
15191W        W58285  18.727  23.560   1.511  0.0697 -0.0770 -0.0562
15192W        W58286  20.313  21.598   1.986  0.0098  0.0278 -0.1913
15193W        W58287  20.484  24.759   1.320 -0.0569  0.0023  0.1626
15194W        W58288  19.552  21.680   1.704 -0.0480  0.1357  0.0010
15195W        W58289  20.470  20.447   4.762 -0.2560 -0.1708  0.1101
15196W        W58290  19.712  24.693   1.568 -0.0753 -0.1132 -0.2864
15197W        W58291  18.366  22.301  31.073 -0.0031  0.0386  0.2134
15198W        W58292  18.186  21.499   0.462  0.0316 -0.2197 -0.0932
15199W        W58293  19.556  22.178   1.868  0.1578  0.2479  0.5224
15200W        W58294  21.126  23.117   0.730 -0.0884  0.0830 -0.0552
15201W        W58295  19.240  21.404   0.747  0.2362  0.1176  0.1370
15202W        W58296  20.112  26.238   1.955 -0.1579 -0.1309 -0.2042
15203W        W58297  20.701  24.558   2.423  0.3063 -0.0934  0.0402
15204W        W58298  21.628  22.452   4.267  0.1013  0.3350 -0.2184
15205W        W58299  17.756  23.641   0.244  0.3914 -0.0124  0.0232
15206W        W58300  17.723  24.510   2.072 -0.2229  0.2296 -0.0664
15207W        W58301  20.500  24.745  31.444  0.0431  0.1694  0.0860
15208W        W58302  20.901  24.518   1.166 -0.1694 -0.3431  0.0123
15209W        W58303  21.655  24.490   3.562 -0.0871 -0.2751  0.2430
15210W        W58304  19.899  24.724   3.572  0.1138 -0.0356  0.1307
15211W        W58305  19.592  23.077  31.921 -0.2904 -0.1400  0.1311
15212W        W58306  20.199  26.346   3.095 -0.3859  0.2069 -0.1012
15213W        W58307  20.622  23.872   3.149  0.1996 -0.1053  0.1192
15214W        W58308  19.581  22.102   1.364 -0.0105 -0.2706 -0.2017
15215W        W58309  20.495  22.695   1.477  0.0403 -0.4519  0.2901
15216W        W58310  19.457  24.434   0.772  0.0570  0.0094  0.0797
15217W        W58311  19.401  24.777   2.030  0.0715 -0.0609 -0.0879
15218W        W58312  18.973  23.533   3.254  0.0240 -0.2586 -0.0041
15219W        W58313  18.394  24.168   0.698  0.1979  0.2681 -0.2159
15220W        W58314  22.332  21.594   3.295  0.1753  0.4071 -0.0865
15221W        W58315  18.280  25.500   0.667  0.2372  0.0287  0.0910
15222W        W58316  19.542  23.625  30.394 -0.1524 -0.2089 -0.0374
15223W        W58317  20.403  22.546   0.959 -0.3007 -0.2257 -0.0732
15224W        W58318  20.260  22.237  31.909  0.0272  0.1614 -0.1444
15225W        W58319  20.636  20.226   1.495 -0.1761 -0.0263  0.1037
15226W        W58320  17.869  25.337   2.167  0.1315  0.0135 -0.3491
15227W        W58321  19.131  23.556   1.811 -0.5554 -0.0455 -0.0437
15228W        W58322  21.613  24.608   2.299 -0.0762 -0.0867  0.1932
15229W        W58323  20.163  24.029   1.278  0.0761 -0.2250 -0.1389
15230W        W58324  21.395  21.566   3.192 -0.1726 -0.2048  0.0113
15231W        W58325  19.590  24.213   2.804  0.1626 -0.1619  0.4589
15232W        W58326  19.200  23.170   0.550 -0.0779 -0.3391  0.0777
15233W        W58327  20.642  24.274   1.449  0.0479 -0.1336 -0.1720
15234W        W58328  22.481  25.625   0.689 -0.1431  0.1975 -0.0286
15235W        W58329  19.446  24.381  31.103 -0.0764  0.0892 -0.5891
15236W        W58330  19.448  22.766   0.326  0.2027 -0.2597 -0.1468
15237W        W58331  17.522  24.172   4.339 -0.0328  0.4945 -0.0261
15238W        W58332  18.731  23.681   3.675 -0.3882  0.1354 -0.1616
15239W        W58333  18.738  21.722  31.272  0.2498  0.1706  0.0913
15240W        W58334  23.113  25.860   2.966 -0.0389 -0.1213 -0.1946
15241W        W58335  18.095  24.937   2.367  0.0194 -0.2465 -0.0705
15242W        W58336  21.876  21.878   1.113 -0.1360  0.1632 -0.1072
15243W        W58337  17.860  23.273   1.120  0.1362  0.0363  0.0689
15244W        W58338  20.723  25.114   1.638  0.0965  0.2690  0.1247
15245W        W58339  20.756  25.285   0.616 -0.1693 -0.0292 -0.1208
15246W        W58340  19.658  21.249   1.173  0.0362 -0.1006  0.0008
15247W        W58341  21.426  20.995   3.106 -0.1808  0.1830  0.1307
15248W        W58342  20.534  22.646  31.708 -0.0342  0.1292  0.1356
15249W        W58343  18.943  24.765   2.114 -0.1186  0.1621  0.0008
15250W        W58344  22.868  25.414   2.734  0.4435  0.2747 -0.0248
15251W        W58345  19.111  23.610   1.134  0.0077 -0.0856 -0.2215
15252W        W58346  19.381  23.991   0.980  0.0202  0.0499  0.1277
15253W        W58347  20.783  21.451   2.009 -0.0144  0.2303  0.0703
15254W        W58348  18.524  24.641   3.047 -0.0578  0.0486 -0.1904
15255W        W58349  17.798  24.999  31.182  0.3010  0.0710 -0.0330
15256W        W58350  18.945  24.297   2.306 -0.1970 -0.1835  0.4593
15257W        W58351  18.906  22.352   0.468  0.1744 -0.0527  0.0035
15258W        W58352  19.286  22.469   2.392  0.0407  0.0530 -0.1077
15259W        W58353  20.179  25.029   1.601  0.2551  0.0924 -0.0844
15260W        W58354  21.242  21.495  31.129  0.0816 -0.3062  0.3805
15261W        W58355  19.685  22.647   2.038  0.0817 -0.1285 -0.2396
15262W        W58356  20.780  21.899   0.246  0.2050 -0.0273  0.1056
15263W        W58357  18.336  23.526   1.202  0.0426 -0.2108  0.2947
15264W        W58358  21.876  25.762   1.762 -0.2545 -0.0597 -0.1957
15265W        W58359  21.780  23.515  31.611 -0.1524 -0.0073 -0.1237
15266W        W58360  19.521  23.378   0.880  0.0548  0.0857 -0.0139
15267W        W58361  17.776  24.329   3.244  0.2679  0.0849  0.0288
15268W        W58362  18.800  23.201   0.959 -0.0490  0.3639 -0.0846
15269W        W58363  19.357  22.176   3.091  0.0213  0.4012 -0.2231
15270W        W58364  18.885  20.964   1.769 -0.1097 -0.2019 -0.0920
15271W        W58365  19.840  21.734   2.127 -0.0757 -0.0123  0.1433
15272W        W58366  18.088  21.903   2.020  0.1926 -0.1132 -0.1205
15273W        W58367  20.408  21.697   1.440 -0.1198 -0.1069  0.2209
15274W        W58368  20.059  21.998   1.709  0.1938 -0.0087  0.2067
15275W        W58369  17.834  23.169  31.838 -0.1945 -0.4597 -0.1601
15276W        W58370  21.228  22.318   3.011  0.0263  0.2590  0.2318
15277W        W58371  18.756  25.560   2.111  0.0181 -0.1009  0.2328
15278W        W58372  19.578  25.402   1.082 -0.1577 -0.2498  0.1178
15279W        W58373  20.972  25.984   1.384  0.1697  0.0873 -0.4447
15280W        W58374  19.131  21.388   0.094  0.2348  0.1529 -0.0526
15281W        W58375  17.802  23.621  31.097  0.2357  0.0600 -0.0407
15282W        W58376  18.989  25.179   1.857  0.1091  0.3529 -0.1458
15283W        W58377  20.153  24.761   2.216 -0.1401  0.2222  0.0169
15284W        W58378  20.992  20.773   2.830  0.3160  0.0049  0.0864
15285W        W58379  23.272  25.737   2.080 -0.2473 -0.1840  0.1707
15286W        W58380  20.879  23.729   1.513 -0.1345  0.1595 -0.0073
15287W        W58381  19.714  23.757   1.701 -0.0670  0.1639  0.0696
15288W        W58382  20.376  22.210   3.140 -0.1178 -0.1019 -0.1608
15289W        W58383  20.464  23.159   1.659 -0.1386  0.0410  0.2198
15290W        W58384  21.188  21.459   1.659  0.1371  0.2774 -0.3062
15291W        W58385  19.698  22.079  31.132 -0.1156 -0.3167  0.2042
15292W        W58386  19.153  24.442   1.771  0.2140 -0.0279  0.2293
15293W        W58387  17.127  24.308  31.949  0.1786  0.0237  0.0479
15294W        W58388  18.341  23.198   0.771 -0.0214 -0.2570 -0.0184
15295W        W58389  20.015  24.489   2.719  0.1945  0.0497 -0.1268
15296W        W58390  20.508  21.610   0.520  0.0133 -0.0334  0.1782
15297W        W58391  19.040  23.489   2.746  0.1153 -0.0546  0.0054
15298W        W58392  20.538  23.303   2.202 -0.2090  0.4074 -0.1031
15299W        W58393  19.023  21.960   0.146  0.0619  0.0008  0.2639
15300W        W58394  17.826  23.909   2.939 -0.1996  0.0218 -0.0363
15301W        W58395  19.733  20.748  31.475  0.2567  0.1870  0.0437
15302W        W58396  19.280  22.310  31.260 -0.2512 -0.2027 -0.0703
15303W        W58397  21.089  23.838   2.912  0.1470  0.0235 -0.0680
15304W        W58398  23.235  22.044   0.309 -0.1423 -0.3568 -0.1334
15305W        W58399  19.631  22.297  31.610  0.0232 -0.3054 -0.1477
15306W        W58400  19.468  22.522   1.162  0.0191  0.0022  0.3012
15307W        W58401  17.676  23.815   3.446  0.0335  0.1297  0.0503
15308W        W58402  19.386  23.521   0.195 -0.1158 -0.0262 -0.1959
15309W        W58403  19.728  23.754   0.690 -0.0658 -0.0959 -0.1236
15310W        W58404  19.035  21.835   0.643  0.1137 -0.0312 -0.3047
15311W        W58405  22.406  25.100   0.528  0.0107  0.1091  0.2803
15312W        W58406  18.569  24.271   2.679  0.2711  0.3789 -0.3929
15313W        W58407  21.201  24.756   1.497  0.1214  0.1253  0.0548
15314W        W58408  19.853  24.353  31.400 -0.2991 -0.2775  0.0450
15315W        W58409  19.178  21.357   2.671 -0.4800  0.2151 -0.1827
15316W        W58410  20.110  21.653   0.846 -0.4054 -0.0871 -0.1465
15317W        W58411  19.786  20.859   1.486  0.1253 -0.0900 -0.0031
15318W        W58412  16.155  23.309   1.043  0.1174  0.4002  0.0671
15319W        W58413  21.541  20.207   2.543 -0.1588 -0.0567  0.0384
15320W        W58414  19.044  23.124   1.511 -0.3743  0.0309 -0.2924
15321W        W58415  19.718  21.489   2.566  0.3916 -0.2936  0.0384
15322W        W58416  22.337  21.940   2.902 -0.1151 -0.3272  0.1685
15323W        W58417  20.711  22.851   0.525  0.2235  0.1035 -0.1289
15324W        W58418  20.731  21.257   2.631 -0.0867  0.0383  0.1541
15325W        W58419  19.372  23.126  31.177  0.0717 -0.0003 -0.1055
15326W        W58420  20.412  23.759   1.727  0.0053  0.3663  0.1662
15327W        W58421  19.652  23.670   2.167 -0.0575 -0.0647  0.2623
15328W        W58422  18.680  25.691   2.643  0.0140 -0.1350 -0.0110
15329W        W58423  18.692  22.880   1.305  0.5305 -0.3112  0.1351
15330W        W58424  20.086  23.943   0.359 -0.1740 -0.1523 -0.1129
15331W        W58425  18.252  21.579   2.545  0.1277 -0.1076 -0.1734
15332W        W58426  20.234  20.640   1.433 -0.2605 -0.2186 -0.2710
15333W        W58427  18.020  25.384   1.215 -0.1858  0.1672 -0.4039
15334W        W58428  19.034  23.045  31.716  0.1157  0.1496 -0.2864
15335W        W58429  20.397  21.874   2.728  0.1136  0.3030  0.3950
15336W        W58430  20.441  23.779   2.305  0.2818  0.0982 -0.0434
15337W        W58431  18.608  24.801  31.194  0.1066  0.1424 -0.4028
15338W        W58432  20.731  25.161   2.265  0.1396  0.2382  0.1933
15339W        W58433  18.846  23.956   1.852  0.3131  0.0642  0.1807
15340W        W58434  21.550  20.569   0.900 -0.2004 -0.0033  0.0094
15341W        W58435  18.288  25.770   1.338  0.0778 -0.0820  0.0527
15342W        W58436  19.484  21.382   2.124  0.2357 -0.1671  0.1529
15343W        W58437  17.720  22.897   0.255 -0.0928  0.0056  0.1552
15344W        W58438  20.757  20.738   1.638 -0.1567 -0.1367 -0.0521
15345W        W58439  21.084  25.630   0.426  0.3707  0.2845  0.2468
15346W        W58440  17.656  22.291   1.282  0.0666  0.3528 -0.1126
15347W        W58441  18.387  20.711   2.149  0.2148  0.2290  0.3176
15348W        W58442  19.006  23.903   0.260  0.2134  0.1972  0.0692
15349W        W58443  21.078  24.075   1.825 -0.3909  0.1492  0.4302
15350W        W58444  20.328  20.725   0.663  0.2102  0.1674  0.0915
15351W        W58445  21.500  24.224   1.625 -0.1751 -0.0066 -0.1630
15352W        W58446  20.231  23.616   3.364  0.0960  0.0452 -0.0300
15353W        W58447  17.805  20.485  31.352  0.0402 -0.0362 -0.0404
15354W        W58448  21.841  22.775   1.450 -0.2388  0.0200 -0.2983
15355W        W58449  20.179  22.771   2.269 -0.0479  0.0057 -0.2460
15356W        W58450  19.329  24.444   1.263  0.1430 -0.0073 -0.2179
15357W        W58451  21.171  24.877   3.267  0.1103 -0.1143 -0.1121
15358W        W58452  18.355  22.368   0.544 -0.2257  0.1229  0.0388
15359W        W58453  19.228  23.970   1.458  0.2523  0.2316 -0.0735
15360W        W58454  19.231  20.868   2.656  0.0461  0.1134 -0.0774
15361W        W58455  21.079  23.232   2.323  0.0242  0.1214  0.2613
15362W        W58456  19.927  21.368   1.670 -0.0284 -0.2283  0.3193
15363W        W58457  18.676  22.180   0.860 -0.0948 -0.4664  0.1552
15364W        W58458  20.069  23.468   1.973 -0.0608  0.3276  0.1676
15365W        W58459  21.055  25.465   2.021  0.2474  0.0790 -0.0584
15366W        W58460  20.336  22.443   1.899 -0.1405 -0.0317  0.1981
15367W        W58461  18.473  24.974   3.440 -0.2984 -0.0045 -0.1235
15368W        W58462  19.353  20.864   2.122  0.3077  0.0066 -0.1816
15369W        W58463  22.107  26.719   1.271  0.1856  0.1446  0.4058
15370W        W58464  21.970  23.812   2.781  0.0421  0.1382 -0.0761
15371W        W58465  18.481  24.571  31.669  0.0138 -0.0104 -0.1482
15372W        W58466  17.522  24.012   1.728  0.2402 -0.1903 -0.0564
15373W        W58467  19.270  23.483  31.505  0.3430 -0.0527  0.0856
15374W        W58468  19.976  22.220   2.146 -0.1015  0.1423 -0.1582
15375W        W58469  18.257  24.340   1.560 -0.1206  0.1870 -0.2510
15376W        W58470  18.495  24.306   0.173  0.2155  0.0886 -0.3820
15377W        W58471  18.386  23.884   1.687  0.2483 -0.1156  0.1844
15378W        W58472  20.641  21.195  31.574 -0.1582 -0.1990  0.2398
15379W        W58473  19.994  24.025  30.967 -0.1816  0.1368  0.1927
15380W        W58474  20.221  22.038   0.528  0.0078 -0.0505 -0.1516
15381W        W58475  22.732  22.721   2.637 -0.0517  0.1203 -0.0843
15382W        W58476  20.001  22.124   1.068 -0.0003 -0.0999 -0.2547
15383W        W58477  20.979  21.241   3.139 -0.1337  0.0457  0.0341
15384W        W58478  19.125  20.474   1.972  0.0898  0.3511  0.1338
15385W        W58479  22.135  23.659   1.446 -0.0028 -0.1904 -0.0237
15386W        W58480  18.970  22.299   2.740 -0.2094 -0.2752 -0.2937
15387W        W58481  20.103  25.613   4.535  0.2218  0.0086 -0.0152
15388W        W58482  20.269  22.343   2.603  0.0169  0.0740 -0.1223
15389W        W58483  21.948  20.503   0.450 -0.0407 -0.0933  0.1281
15390W        W58484  17.523  21.081   0.091  0.0164 -0.1078  0.2030
15391W        W58485  19.862  23.990   2.492 -0.2666 -0.0378 -0.0165
15392W        W58486  20.328  24.409   0.855 -0.4779  0.1340 -0.4548
15393W        W58487  19.373  24.085   1.985  0.1680  0.1628 -0.0512
15394W        W58488  20.831  23.102   1.316 -0.1859 -0.1066 -0.1469
15395W        W58489  18.736  23.163   1.911 -0.4082 -0.0405  0.0540
15396W        W58490  21.443  23.874   0.035 -0.1070 -0.1483  0.2288
15397W        W58491  18.976  22.819   0.248  0.2099  0.0779 -0.1174
15398W        W58492  17.808  23.196   2.029 -0.0599  0.2898 -0.3529
15399W        W58493  19.435  22.767   1.683 -0.1454  0.0790 -0.1889
15400W        W58494  21.063  23.002   0.119 -0.3422 -0.2231 -0.0521
15401W        W58495  20.634  22.345   0.601 -0.0599  0.0521 -0.0966
15402W        W58496  21.340  21.334   2.720 -0.1473 -0.1409  0.4940
15403W        W58497  19.598  23.014   1.251 -0.0268  0.0509 -0.5526
15404W        W58498  20.812  22.781   3.089 -0.3629  0.0566  0.2460
15405W        W58499  18.193  22.653   2.455 -0.0464  0.1916  0.0299
15406W        W58500  21.126  27.257   1.715 -0.5083  0.1254 -0.0272
15407W        W58501  19.719  21.913   0.689  0.0921 -0.1158 -0.1499
15408W        W58502  20.871  22.323   1.941  0.3060 -0.2476 -0.4505
15409W        W58503  21.383  22.424   1.342  0.0689  0.0272  0.2588
15410W        W58504  21.300  23.563   0.408 -0.3322  0.0475 -0.0501
15411W        W58505  20.076  23.554   2.488 -0.1033  0.0519  0.0611
15412W        W58506  21.563  22.376   2.512  0.0149  0.0039 -0.0203
15413W        W58507  18.969  22.765  31.311  0.3523  0.3716 -0.0701
15414W        W58508  20.340  21.660   3.260  0.0555 -0.3974 -0.1976
15415W        W58509  18.932  24.327   0.802  0.0514  0.5167  0.0523
15416W        W58510  20.612  23.296   0.773  0.1677 -0.3071 -0.1244
15417W        W58511  20.084  20.646   1.993  0.2092 -0.0904  0.0466
15418W        W58512  17.957  23.625   1.800  0.2494 -0.1388  0.2409
15419W        W58513  18.427  24.441   3.621 -0.1341 -0.3540 -0.0340
15420W        W58514  18.461  22.843  31.105  0.1456  0.0045  0.3031
15421W        W58515  20.522  21.974   0.977  0.0620  0.0540  0.3877
15422W        W58516  21.464  24.113   2.166 -0.2077  0.3446 -0.1159
15423W        W58517  22.305  23.919   3.159  0.1611 -0.1641  0.0446
15424W        W58518  19.395  22.694  30.938 -0.2954 -0.2783  0.0852
15425W        W58519  20.663  22.732   2.466 -0.1135 -0.2464  0.0245
15426W        W58520  18.641  24.684   0.650  0.1110 -0.2271  0.2271
15427W        W58521  19.570  21.140   0.488  0.3300  0.0258  0.3107
15428W        W58522  18.642  25.655   0.972 -0.2199 -0.0291  0.0368
15429W        W58523  19.548  23.411   3.210  0.0130 -0.0071 -0.0290
15430W        W58524  19.984  23.856  29.473 -0.2931 -0.0707  0.0690
15431W        W58525  19.666  21.005   2.520  0.0731 -0.2029 -0.0379
15432W        W58526  19.958  22.501   1.537  0.0039 -0.1048 -0.1346
15433W        W58527  21.949  24.139   1.785  0.0073 -0.0263 -0.1657
15434W        W58528  21.239  24.034   1.247  0.1142  0.3001  0.0084
15435W        W58529  21.263  22.778   2.752  0.3018  0.0903 -0.1587
15436W        W58530  20.163  24.433   1.649  0.2198  0.0592  0.0004
15437W        W58531  20.864  23.631   2.547  0.0215  0.1053 -0.1849
15438W        W58532  21.265  23.991   0.738 -0.0244 -0.2089 -0.0165
15439W        W58533  20.468  23.548   1.235 -0.0160 -0.3549 -0.1888
15440W        W58534  18.345  23.553   2.115 -0.1805  0.1299  0.1203
15441W        W58535  19.818  22.390   3.085  0.0288 -0.4177  0.1361
15442W        W58536  20.290  23.046   1.175 -0.0696 -0.2432 -0.2089
15443W        W58537  18.621  21.476   0.796 -0.1551 -0.0216  0.2490
15444W        W58538  18.896  24.190  31.762  0.1547 -0.1193 -0.3643
15445W        W58539  18.105  24.330   4.460  0.1156  0.2743 -0.3961
15446W        W58540  17.286  23.089   2.014  0.0406 -0.0024  0.2401
15447W        W58541  19.667  26.741   0.844 -0.1287 -0.0499  0.2973
15448W        W58542  21.194  25.211   0.975 -0.0384  0.2462  0.0026
15449W        W58543  19.588  24.446   0.097 -0.0050  0.2529  0.3311
15450W        W58544  19.699  24.832   2.466 -0.0407 -0.0735 -0.0364
15451W        W58545  20.665  21.892   1.825 -0.1973  0.0489 -0.1990
15452W        W58546  19.391  24.415   2.405 -0.0609 -0.0256  0.0583
15453W        W58547  18.031  24.070   0.296 -0.2530  0.0164  0.3332
15454W        W58548  20.413  24.662   0.368 -0.1826  0.0545 -0.0955
15455W        W58549  18.503  24.856   1.544 -0.1621  0.3032  0.2348
15456W        W58550  22.618  23.827   1.774 -0.3565 -0.1733 -0.4496
15457W        W58551  20.019  21.972  31.590  0.3001 -0.0751 -0.0462
15458W        W58552  22.508  21.413   1.412  0.1673  0.4307 -0.0710
15459W        W58553  21.804  22.514  31.818 -0.1399 -0.0826  0.0011
15460W        W58554  20.034  23.980   1.978 -0.0878 -0.0099 -0.0253
15461W        W58555  20.440  23.603   2.827  0.0911  0.1983  0.0258
15462W        W58556  18.437  21.493  30.478 -0.2473  0.2350  0.0383
15463W        W58557  18.661  22.673   2.206 -0.2056  0.0419 -0.1009
15464W        W58558  21.926  21.182   3.730 -0.2484  0.3234  0.2568
15465W        W58559  18.013  24.947   3.775 -0.2154 -0.0381 -0.1210
15466W        W58560  20.490  24.184   0.258 -0.2018  0.3200  0.0297
15467W        W58561  18.298  22.370  31.621 -0.0400 -0.0567  0.1034
15468W        W58562  19.661  24.215   1.570 -0.3543  0.0143 -0.1466
15469W        W58563  21.092  22.780   1.576  0.0589  0.0615  0.3204
15470W        W58564  19.153  22.882   0.993  0.1948  0.2229 -0.1457
15471W        W58565  18.179  22.856   1.162 -0.1558  0.2392 -0.2831
15472W        W58566  19.329  25.173   2.279 -0.0807  0.2462  0.1364
15473W        W58567  18.890  24.789   1.108  0.1642 -0.0946 -0.1821
15474W        W58568  20.043  24.548   1.199 -0.4137  0.2076  0.0185
15475W        W58569  18.316  20.726   0.633 -0.3016 -0.0667 -0.2484
15476W        W58570  21.508  22.833   0.961 -0.3313  0.1659  0.0578
15477W        W58571  18.192  21.904   0.970  0.0591 -0.1774  0.0011
15478W        W58572  21.696  21.647   2.361  0.0599  0.1633  0.2184
15479W        W58573  19.370  22.258   0.738  0.0916 -0.3133 -0.2262
15480W        W58574  20.638  22.176  31.299  0.2643 -0.2523 -0.1172
15481W        W58575  20.016  24.421   3.185  0.1187  0.0463 -0.0020
15482W        W58576  19.242  23.966   2.518  0.0294  0.0536 -0.2737
15483W        W58577  19.706  21.393  30.614 -0.0431  0.1502  0.0803
15484W        W58578  21.779  23.645   1.874  0.3791 -0.2282  0.3109
15485W        W58579  20.865  24.744  31.104 -0.0380 -0.5076 -0.1616
15486W        W58580  19.876  25.402   1.558 -0.2341  0.1423  0.2224
15487W        W58581  18.865  20.828   2.250 -0.0604  0.3800  0.2057
15488W        W58582  19.942  21.386  29.701 -0.0343 -0.1132  0.1040
15489W        W58583  19.903  21.669   1.260  0.1228 -0.0354 -0.1743
15490W        W58584  20.572  24.245   1.961 -0.1044 -0.0907  0.0424
15491W        W58585  20.339  24.922   3.291 -0.1317 -0.1663 -0.2040
15492W        W58586  18.725  20.518   0.408 -0.0299 -0.1401  0.0534
15493W        W58587  20.912  25.072   0.071  0.1299  0.0632 -0.0486
15494W        W58588  20.946  22.633   1.093  0.2535 -0.1147  0.0182
15495W        W58589  18.514  24.501   1.107  0.1547  0.2813  0.0154
15496W        W58590  20.685  23.975   1.054 -0.0049  0.3104 -0.0340
15497W        W58591  21.329  24.589   0.813  0.1251  0.1970  0.1595
15498W        W58592  19.250  23.410   2.284  0.0050  0.3734  0.3114
15499W        W58593  20.298  25.343   1.951 -0.1227  0.0485  0.1949
15500W        W58594  22.052  25.113   2.359 -0.0617 -0.0220  0.2929
15501W        W58595  20.310  21.261   0.149 -0.2377  0.4245  0.2273
15502W        W58596  18.032  22.419   0.948  0.0378 -0.1639 -0.1348
15503W        W58597  19.204  24.863   1.526 -0.0482  0.0278 -0.0485
15504W        W58598  20.428  21.220   3.052  0.1248  0.1554  0.0684
15505W        W58599  21.050  22.273   2.421  0.2023  0.0868  0.0725
15506W        W58600  19.476  25.669   0.301 -0.1103  0.0049 -0.3138
15507W        W58601  22.356  20.891   2.920  0.3791 -0.0076  0.0562
15508W        W58602  21.344  25.722   3.758  0.0086  0.1235 -0.0402
15509W        W58603  19.342  23.886   3.083  0.0307  0.0594 -0.2763
15510W        W58604  18.053  22.689  31.885 -0.1388 -0.2167 -0.1066
15511W        W58605  20.990  24.074   2.277  0.2864 -0.2806  0.0812
15512W        W58606  19.481  25.048   0.133 -0.0490 -0.1354  0.0727
15513W        W58607  18.619  23.959   1.125 -0.2564  0.1684  0.2408
15514W        W58608  21.606  25.021   1.376 -0.0805  0.1853 -0.2636
15515W        W58609  20.746  21.282   1.503 -0.1954 -0.0183 -0.1775
15516W        W58610  21.652  24.423  31.548  0.2810 -0.4326 -0.0770
15517W        W58611  18.085  22.584   1.556  0.2264  0.2996 -0.2043
15518W        W58612  22.415  22.985  31.878  0.0395  0.0574  0.3767
15519W        W58613  20.638  21.146   0.681 -0.1301  0.1665  0.0274
15520W        W58614  20.307  22.695   2.931 -0.2313  0.0815  0.0042
15521W        W58615  16.956  22.832   0.169 -0.0478 -0.0368 -0.1058
15522W        W58616  18.372  23.676  30.080  0.0552  0.1406  0.0813
15523W        W58617  19.542  24.014   0.312  0.1026  0.2888  0.2252
15524W        W58618  20.119  20.178   2.747 -0.5102  0.3228  0.1711
15525W        W58619  18.586  22.467   3.115  0.1056  0.0350  0.1925
15526W        W58620  18.499  23.787   0.215 -0.0552  0.1482  0.0868
15527W        W58621  17.725  21.531   0.206 -0.2051  0.0083  0.1454
15528W        W58622  20.487  24.748   1.845  0.0094 -0.1806  0.3299
15529W        W58623  17.644  21.510  31.562 -0.0082  0.0278 -0.3231
15530W        W58624  19.099  20.374   0.015 -0.2076 -0.0150 -0.1808
15531W        W58625  20.053  23.397   0.938  0.1027 -0.0646  0.0198
15532W        W58626  21.621  25.354  31.967 -0.3202 -0.1433  0.0525
15533W        W58627  19.979  21.093   2.137 -0.1500 -0.0867  0.1781
15534W        W58628  21.708  24.209   2.649  0.2002  0.1455 -0.3972
15535W        W58629  19.664  23.823  31.370  0.5116 -0.2196  0.2515
15536W        W58630  20.136  22.645   4.580  0.0178 -0.0914  0.0172
15537W        W58631  19.047  22.017   2.058 -0.1988 -0.1732  0.2767
15538W        W58632  18.550  21.869   0.537 -0.2124  0.0241  0.2618
15539W        W58633  20.283  23.098   2.649 -0.1062  0.0470  0.1265
15540W        W58634  20.241  23.851   0.817 -0.0209 -0.0844  0.1616
15541W        W58635  20.315  25.495   0.860  0.3906  0.2820 -0.2486
15542W        W58636  19.773  24.024   3.598  0.0690 -0.2702 -0.0135
15543W        W58637  18.223  24.236   3.030  0.2217  0.0897 -0.0009
15544W        W58638  18.287  21.068   2.617  0.1062  0.1719 -0.1734
15545W        W58639  19.804  23.292   0.511  0.2097  0.3664 -0.5183
15546W        W58640  20.003  23.322   1.469  0.0481  0.0521  0.0286
15547W        W58641  20.818  24.723   0.671 -0.0365  0.1517 -0.3681
15548W        W58642  21.799  22.218   1.649  0.1363 -0.1863  0.0674
15549W        W58643  20.834  24.239   0.611  0.0755 -0.0776 -0.1984
15550W        W58644  18.677  21.462   2.865 -0.2113  0.0416 -0.0111
15551W        W58645  18.127  24.004   3.570 -0.2285  0.0462  0.3319
15552W        W58646  20.834  23.615   1.982 -0.2073  0.0584  0.0026
15553W        W58647  19.899  20.296   1.462  0.1042  0.2766  0.1169
15554W        W58648  19.872  22.502   0.052  0.2632  0.0423  0.2141
15555W        W58649  20.691  25.074   1.041  0.0773 -0.0567  0.2613
15556W        W58650  19.064  24.372   2.975  0.1574 -0.2499 -0.0439
15557W        W58651  20.533  20.976   2.252  0.1739  0.1653 -0.1052
15558W        W58652  19.061  22.467   1.819 -0.0176 -0.3923  0.2142
15559W        W58653  19.870  24.165   0.940 -0.1242  0.0009  0.3057
15560W        W58654  21.736  23.855   1.234  0.3695 -0.0002 -0.0322
15561W        W58655  19.745  23.700   1.212 -0.4664  0.1624 -0.0762
15562W        W58656  22.063  23.060   0.272 -0.0063  0.1839  0.2257
15563W        W58657  18.953  24.653   3.471  0.2380  0.2094 -0.1845
15564W        W58658  20.455  25.472   3.825 -0.2635  0.1263 -0.0632
15565W        W58659  20.679  24.152   2.694  0.0574  0.1387  0.2279
15566W        W58660  21.832  22.637   2.141  0.0565  0.2671  0.4431
15567W        W58661  18.437  21.930   2.968  0.2429 -0.0770 -0.0611
15568W        W58662  19.649  23.230   1.827 -0.0838  0.1269  0.0501
15569W        W58663  19.434  23.437   1.461  0.0170  0.0902  0.1543
15570W        W58664  21.192  22.014   1.746  0.0939 -0.1688  0.0574
15571W        W58665  18.935  22.428   1.200 -0.0364 -0.0934  0.0274
15572W        W58666  20.870  21.209  31.011 -0.1420  0.0298 -0.3060
15573W        W58667  19.371  25.363   1.579  0.1584  0.0405  0.1034
15574W        W58668  20.326  24.266   2.353  0.0091  0.3376 -0.2634
15575W        W58669  18.527  24.136   6.707 -0.0306  0.1522 -0.1361
15576W        W58670  19.858  22.902   2.797 -0.2101  0.3248  0.0573
15577W        W58671  21.263  21.829   2.571  0.0908  0.2267 -0.0900
15578W        W58672  21.342  22.429   4.792  0.2145 -0.0659 -0.3255
15579W        W58673  18.588  23.380   2.875 -0.3644 -0.0641  0.0869
15580W        W58674  20.636  24.357   3.993 -0.0822  0.2225 -0.2631
15581W        W58675  18.667  21.782   4.876 -0.0985 -0.1803 -0.3338
15582W        W58676  21.869  22.634   3.797 -0.1154  0.1457 -0.1748
15583W        W58677  22.050  24.461   5.265 -0.0266  0.0837 -0.1046
15584W        W58678  21.607  23.910   3.666  0.0505  0.1014 -0.0168
15585W        W58679  19.550  21.547   6.109 -0.0991 -0.2589 -0.0185
15586W        W58680  19.606  23.652   5.750 -0.0738 -0.0716 -0.1144
15587W        W58681  21.144  20.128   3.841  0.1745  0.3944  0.0389
15588W        W58682  19.300  21.099   5.670 -0.1442  0.2465 -0.2320
15589W        W58683  21.298  21.905   6.017 -0.1937 -0.0112 -0.0980
15590W        W58684  19.459  23.364   4.016  0.1241  0.0139  0.0703
15591W        W58685  19.010  22.782   4.376 -0.0264 -0.1212 -0.1145
15592W        W58686  18.867  23.555   4.694  0.0020 -0.3129  0.1609
15593W        W58687  18.881  25.504   4.754 -0.0997  0.2353  0.1131
15594W        W58688  19.378  22.370   6.065  0.0595 -0.0185 -0.0481
15595W        W58689  19.424  22.254   6.550  0.0524 -0.0853 -0.0183
15596W        W58690  19.507  25.388   3.688 -0.2677 -0.1812 -0.2591
15597W        W58691  18.510  22.627   0.136 -0.2113 -0.0086  0.0849
15598W        W58692  18.194  23.613   4.551 -0.0345  0.0080 -0.0149
15599W        W58693  19.646  23.438   5.288  0.1311 -0.3247 -0.0621
15600W        W58694  19.791  22.106   6.205 -0.2812  0.0138  0.0577
15601W        W58695  22.147  22.985   6.071 -0.2210  0.0748 -0.1535
15602W        W58696  19.286  24.572   5.686  0.1022  0.4617  0.1466
15603W        W58697  19.800  24.949   4.021  0.2161 -0.0293  0.1658
15604W        W58698  20.040  23.294   6.448  0.1787 -0.0535 -0.2464
15605W        W58699  18.058  24.294   5.512 -0.1837  0.0245 -0.1687
15606W        W58700  18.627  24.456   4.950 -0.1044  0.1608 -0.3639
15607W        W58701  19.333  24.707   3.826  0.0763  0.0684  0.0397
15608W        W58702  23.018  23.821   3.772  0.1099 -0.1360 -0.2075
15609W        W58703  22.418  25.611   7.734 -0.2003 -0.0401 -0.2958
15610W        W58704  20.613  24.481   7.157 -0.0675 -0.3414 -0.0744
15611W        W58705  18.269  23.275   4.201  0.4002 -0.2670  0.2281
15612W        W58706  20.773  24.648   7.679 -0.0023  0.0489  0.0441
15613W        W58707  18.965  24.449   6.741 -0.1041 -0.0551 -0.4057
15614W        W58708  20.636  23.535   3.676  0.3483 -0.0796  0.0106
15615W        W58709  21.262  22.775   5.213 -0.1109 -0.0263  0.1103
15616W        W58710  18.597  24.573   4.355  0.0837 -0.0388  0.2143
15617W        W58711  20.523  22.541   5.384 -0.2770 -0.2046 -0.0467
15618W        W58712  19.607  23.660   6.311 -0.0733  0.1732  0.4080
15619W        W58713  18.059  23.925   5.921 -0.0686 -0.0032 -0.0315
15620W        W58714  20.340  22.036   6.695 -0.0603 -0.1692  0.1239
15621W        W58715  20.209  24.286   3.681  0.0241  0.2342 -0.0034
15622W        W58716  20.991  21.886   3.825 -0.0926  0.1399  0.1999
15623W        W58717  19.780  21.700   3.439  0.2537 -0.1361 -0.0234
15624W        W58718  20.456  23.176   3.129 -0.0620 -0.1053 -0.1011
15625W        W58719  20.647  21.314   5.476 -0.1835 -0.2098 -0.4348
15626W        W58720  18.997  25.116   5.094 -0.1148  0.0169 -0.0851
15627W        W58721  20.335  22.922   5.742 -0.3203  0.1420 -0.1527
15628W        W58722  21.849  24.369   5.735 -0.1661  0.0647  0.1747
15629W        W58723  21.388  23.727   2.519  0.1759  0.1720 -0.2656
15630W        W58724  21.142  23.221   6.285 -0.2369 -0.1030  0.1948
15631W        W58725  20.119  24.146   6.592  0.2078  0.0482 -0.1615
15632W        W58726  18.326  22.475   4.254  0.0234 -0.2732  0.0529
15633W        W58727  19.698  25.423   4.962 -0.2954  0.0082  0.4328
15634W        W58728  21.866  23.188   2.837  0.3099 -0.1621  0.0068
15635W        W58729  20.515  24.394   3.205 -0.1719 -0.0972 -0.4197
15636W        W58730  19.674  22.258   2.609 -0.2917  0.0833  0.2676
15637W        W58731  18.283  23.070   6.240 -0.1811 -0.0979 -0.1324
15638W        W58732  17.626  22.555   6.533 -0.1333  0.1961 -0.0648
15639W        W58733  20.510  22.112   3.694  0.1604 -0.2984  0.0212
15640W        W58734  22.842  23.270   7.611 -0.0635  0.0289  0.0848
15641W        W58735  17.486  23.777   6.214 -0.2030  0.1780  0.2272
15642W        W58736  21.958  21.707   3.756  0.1051 -0.1029 -0.1003
15643W        W58737  19.914  22.935   3.323  0.3519  0.0201 -0.1740
15644W        W58738  22.290  24.180   4.372 -0.1612 -0.1315  0.1064
15645W        W58739  20.600  23.806   4.080 -0.4590 -0.1116 -0.0681
15646W        W58740  21.737  22.135   5.860 -0.0336  0.0505 -0.1845
15647W        W58741  20.304  22.001   6.122  0.0713 -0.0723 -0.1448
15648W        W58742  20.196  24.064   2.840 -0.2085 -0.0080 -0.1218
15649W        W58743  19.147  22.708   3.849  0.2335  0.2594  0.2170
15650W        W58744  22.630  24.552   5.721 -0.2393  0.2620  0.2769
15651W        W58745  21.851  23.401   2.353 -0.1988  0.1746  0.0174
15652W        W58746  17.156  25.372   6.354  0.2416 -0.0882  0.1138
15653W        W58747  19.235  22.824   6.265  0.3680 -0.0202 -0.1186
15654W        W58748  19.727  25.280   5.525  0.1038  0.0780 -0.0833
15655W        W58749  18.114  24.512   4.015  0.1635 -0.1299  0.0109
15656W        W58750  17.821  22.395   4.201  0.0366  0.3423 -0.3466
15657W        W58751  17.864  23.924   4.674  0.0227 -0.1783 -0.1846
15658W        W58752  18.662  21.761   5.399  0.0464  0.3807 -0.1441
15659W        W58753  19.826  23.912   4.627  0.0063 -0.0947  0.0006
15660W        W58754  22.062  22.268   4.114 -0.3126 -0.3087 -0.2266
15661W        W58755  18.273  22.210   5.784  0.0269  0.1921 -0.0347
15662W        W58756  21.375  22.907   5.901  0.3363 -0.0702 -0.1057
15663W        W58757  19.224  25.173   4.623 -0.0331 -0.0319  0.3215
15664W        W58758  22.407  25.283   4.203  0.1024 -0.2995 -0.0775
15665W        W58759  22.045  21.549   2.793 -0.4549 -0.4602 -0.0620
15666W        W58760  22.081  24.179   3.543  0.2082 -0.0324  0.2628
15667W        W58761  19.171  22.402   4.710 -0.2184 -0.0962  0.1669
15668W        W58762  20.161  22.655   3.708  0.1541  0.1936  0.0936
15669W        W58763  18.067  22.000   6.727  0.2783  0.1100 -0.2159
15670W        W58764  19.598  21.444   4.378 -0.4773 -0.0165  0.1435
15671W        W58765  20.979  23.709   6.617  0.1846  0.1079  0.1693
15672W        W58766  17.920  22.853   4.137  0.3750  0.3026  0.0271
15673W        W58767  21.173  22.184   5.193  0.1650 -0.0484 -0.0710
15674W        W58768  20.411  22.845   4.126  0.3106  0.4124 -0.0774
15675W        W58769  18.116  23.403   2.828 -0.2068 -0.2839  0.1236
15676W        W58770  20.212  21.167   6.712 -0.0179 -0.3152  0.2138
15677W        W58771  19.966  25.668   5.319  0.1287 -0.0243  0.2374
15678W        W58772  21.668  25.293   5.370 -0.1244  0.2550  0.0249
15679W        W58773  20.585  25.663   4.324  0.2125  0.0038 -0.1173
15680W        W58774  18.626  22.501   5.508  0.0341  0.2312  0.0230
15681W        W58775  19.894  23.041   3.861  0.1029 -0.2557  0.0314
15682W        W58776  18.095  25.051   5.491  0.1327 -0.2693 -0.1781
15683W        W58777  19.425  24.942   3.396  0.2669 -0.3589 -0.0162
15684W        W58778  19.898  23.008   4.896 -0.0838  0.5072  0.0515
15685W        W58779  21.019  24.103   4.322  0.0387 -0.0496  0.1580
15686W        W58780  20.693  24.128   3.567 -0.1053  0.1528  0.2971
15687W        W58781  19.250  23.220   5.034  0.2880 -0.0909  0.1689
15688W        W58782  20.632  23.004   7.205 -0.3237  0.1491 -0.1280
15689W        W58783  22.130  23.179   7.657 -0.1058 -0.0227 -0.3350
15690W        W58784  21.033  22.458   5.574 -0.1640 -0.0171 -0.2348
15691W        W58785  19.328  23.645   4.362 -0.2179  0.1716  0.0345
15692W        W58786  19.844  24.529   4.754 -0.0263 -0.1344  0.5057
15693W        W58787  17.473  24.599   4.063  0.3841 -0.0244  0.1283
15694W        W58788  18.261  23.574   3.788  0.2859  0.0541 -0.1311
15695W        W58789  19.591  23.926   4.046 -0.2024  0.2598  0.2864
15696W        W58790  22.378  22.496   5.054  0.2680  0.4203 -0.0256
15697W        W58791  17.295  23.834   7.523 -0.0853 -0.1000  0.3198
15698W        W58792  20.840  22.960   6.650  0.3652 -0.0778  0.2143
15699W        W58793  18.792  23.650   2.293 -0.1013 -0.1283 -0.0088
15700W        W58794  18.250  24.487   6.330 -0.1294 -0.0904 -0.1257
15701W        W58795  21.062  21.724   5.593 -0.1022 -0.0841  0.2100
15702W        W58796  22.368  22.428   2.920 -0.3242 -0.1962  0.2667
15703W        W58797  20.274  23.416   7.119  0.0897  0.0210 -0.0545
15704W        W58798  22.314  23.765   3.652 -0.1424  0.1813 -0.0964
15705W        W58799  21.282  22.947   3.246  0.0584  0.1090 -0.0558
15706W        W58800  20.233  21.694   3.725 -0.0413 -0.0470  0.0825
15707W        W58801  17.936  24.439   5.957 -0.4900 -0.2510 -0.0264
15708W        W58802  21.289  23.769   3.981 -0.0771  0.1890  0.0812
15709W        W58803  20.793  23.416   4.371 -0.1815  0.0867 -0.1378
15710W        W58804  20.464  21.850   4.125 -0.3995 -0.0548 -0.0159
15711W        W58805  21.257  25.433   4.614  0.1582  0.2527  0.0100
15712W        W58806  17.400  23.314   5.954 -0.1085 -0.2458  0.0417
15713W        W58807  21.480  23.900   5.951  0.3481 -0.1657  0.1695
15714W        W58808  19.278  24.342   4.197  0.2967 -0.0704  0.0163
15715W        W58809  19.803  22.192   4.475 -0.0660  0.1612 -0.0199
15716W        W58810  21.648  21.879   2.847 -0.1565  0.0187  0.1412
15717W        W58811  20.154  23.349   5.467  0.1690  0.0621 -0.3109
15718W        W58812  19.582  24.407   3.331  0.0318  0.0838  0.0426
15719W        W58813  20.704  23.623   6.227  0.0550 -0.2746  0.1674
15720W        W58814  19.513  20.980   6.147 -0.2716 -0.1327 -0.1226
15721W        W58815  19.962  22.872   5.431 -0.0477  0.0807 -0.2453
15722W        W58816  21.282  22.518   7.303  0.1512  0.2185 -0.0586
15723W        W58817  21.235  22.774   4.329 -0.1704 -0.2792 -0.1659
15724W        W58818  21.287  23.731   4.488  0.2267  0.1348  0.2702
15725W        W58819  19.234  22.956   2.735 -0.0289  0.1626 -0.0600
15726W        W58820  21.416  23.575   6.311  0.1561  0.0159 -0.1483
15727W        W58821  18.757  23.386   5.889  0.1176  0.1164 -0.0207
15728W        W58822  19.841  26.298   6.648 -0.0889 -0.1163  0.0733
15729W        W58823  21.327  24.063   6.658  0.2034  0.3329 -0.0907
15730W        W58824  20.837  22.471   4.466  0.0544  0.1870 -0.0976
15731W        W58825  20.881  22.145   6.049 -0.1890 -0.0572 -0.0481
15732W        W58826  20.280  22.069   4.608  0.0688 -0.3619  0.2207
15733W        W58827  20.295  25.238   5.558  0.0585  0.0919 -0.0945
15734W        W58828  18.891  24.462   3.932  0.0123 -0.1311  0.1271
15735W        W58829  19.345  21.912   4.589 -0.1289 -0.1607  0.1268
15736W        W58830  19.840  24.974   6.565 -0.0681 -0.1203 -0.0153
15737W        W58831  18.016  25.240   3.328  0.5115  0.1726  0.3158
15738W        W58832  21.081  23.551   5.856  0.1135  0.1839 -0.1932
15739W        W58833  18.720  25.098   4.539  0.1157 -0.2911 -0.0321
15740W        W58834  20.701  21.129   6.609  0.1910  0.0395  0.1651
15741W        W58835  17.806  25.970   5.439 -0.2344  0.1165 -0.0414
15742W        W58836  20.066  22.122   3.548 -0.2231  0.0655  0.2177
15743W        W58837  18.034  23.443   3.350  0.0060 -0.0184  0.0998
15744W        W58838  20.585  22.562   5.983 -0.2557  0.3622  0.1417
15745W        W58839  21.424  23.505   3.181  0.0299 -0.1054 -0.0584
15746W        W58840  19.598  22.699   5.147 -0.1590  0.2813 -0.0703
15747W        W58841  19.264  21.667   5.656 -0.3182  0.0919  0.0195
15748W        W58842  17.939  23.539   5.008  0.0191  0.1409  0.0709
15749W        W58843  19.489  24.381   5.157  0.0657  0.0802  0.0315
15750W        W58844  20.840  19.859   3.531  0.0752 -0.1644  0.3060
15751W        W58845  19.757  26.020   5.548  0.0911  0.1853 -0.3879
15752W        W58846  19.705  24.072   7.076 -0.0629 -0.0626 -0.1613
15753W        W58847  17.862  22.742   2.817 -0.0377  0.1625 -0.3641
15754W        W58848  22.924  23.211   6.401 -0.0214  0.2913 -0.1660
15755W        W58849  20.925  21.543   5.084  0.1416  0.1233  0.3424
15756W        W58850  17.718  24.093   5.181 -0.0799 -0.1123 -0.0213
15757W        W58851  20.405  24.710   6.596  0.0126 -0.0158  0.3697
15758W        W58852  19.557  23.572   2.652  0.2950  0.0566  0.0515
15759W        W58853  18.988  24.043   4.568 -0.0144 -0.3270 -0.6521
15760W        W58854  20.124  22.880   6.233 -0.1511  0.0450  0.0722
15761W        W58855  21.350  23.889   4.972 -0.3425 -0.2645  0.0235
15762W        W58856  20.056  23.759   5.742  0.0948 -0.1869 -0.0732
15763W        W58857  19.591  22.012   3.884  0.0804 -0.1898 -0.3236
15764W        W58858  19.364  22.996   5.514 -0.1774  0.0791 -0.0845
15765W        W58859  20.388  24.722   5.354  0.4478  0.0165  0.0586
15766W        W58860  19.912  23.715   6.765  0.1794 -0.3662 -0.0156
15767W        W58861  19.361  24.901   6.989 -0.1660  0.0796  0.2121
15768W        W58862  19.818  21.916   5.697  0.0404 -0.0153  0.0744
15769W        W58863  21.814  24.998   4.110 -0.1487 -0.0463  0.0052
15770W        W58864  21.655  23.629   6.787  0.4438  0.3030 -0.1270
15771W        W58865  18.563  22.783   3.508 -0.2845 -0.0614 -0.0661
15772W        W58866  19.239  23.620   3.632  0.0753 -0.0407 -0.0156
15773W        W58867  19.682  23.403   4.626 -0.3210  0.0869  0.0289
15774W        W58868  19.879  22.377   5.486 -0.2184 -0.0692 -0.2248
15775W        W58869  18.893  24.571   5.366  0.1127  0.2552 -0.3776
15776W        W58870  19.036  23.937   4.039  0.0327  0.1136 -0.0433
15777W        W58871  18.322  24.829   5.987 -0.0420 -0.0919  0.0661
15778W        W58872  22.192  20.944   5.993 -0.2352 -0.1375  0.1328
15779W        W58873  20.309  24.936   2.729  0.1680 -0.3996 -0.0207
15780W        W58874  20.160  21.140   5.347 -0.0634  0.0211 -0.1238
15781W        W58875  20.631  22.421   6.462  0.1920  0.0646  0.2061
15782W        W58876  21.821  22.708   2.959 -0.1257  0.0188 -0.0371
15783W        W58877  19.951  22.145   7.200 -0.0481  0.0074 -0.3429
15784W        W58878  19.050  21.987   5.040 -0.0149 -0.1061 -0.1299
15785W        W58879  20.659  24.655   4.431 -0.0102  0.2856 -0.2678
15786W        W58880  18.074  22.612   5.546  0.1084  0.0679  0.1883
15787W        W58881  21.188  24.675   8.014  0.4240  0.1377  0.0618
15788W        W58882  17.711  23.547   7.743 -0.3615 -0.0732  0.1646
15789W        W58883  20.807  23.146   2.743 -0.0443  0.2573  0.3014
15790W        W58884  19.038  22.532   3.353  0.0350  0.1248  0.0761
15791W        W58885  19.914  23.256   5.925  0.0502 -0.2188 -0.0628
15792W        W58886  21.404  23.164   4.612  0.0847  0.1493  0.0510
15793W        W58887  21.302  24.897   2.695  0.1700 -0.0107 -0.1843
15794W        W58888  22.129  22.917   5.174 -0.1888 -0.1926  0.2203
15795W        W58889  18.216  23.483   5.863  0.1238 -0.3714  0.3354
15796W        W58890  20.315  23.145   3.598 -0.0626  0.0145 -0.0047
15797W        W58891  21.101  23.881   3.489 -0.1218  0.0403 -0.2214
15798W        W58892  18.983  23.444   4.077 -0.0896  0.2058 -0.0192
15799W        W58893  19.232  21.356   6.527 -0.3785 -0.1994  0.2613
15800W        W58894  21.445  23.662   5.510  0.3871  0.0674 -0.3467
15801W        W58895  20.753  22.075   5.366  0.1239  0.1079  0.4386
15802W        W58896  20.158  21.616   6.463 -0.0244 -0.2340  0.0050
15803W        W58897  20.599  23.025   6.227 -0.2979 -0.3199 -0.1195
15804W        W58898  19.052  23.757   6.035  0.1972 -0.0416  0.1327
15805W        W58899  18.519  21.804   6.872  0.0837  0.2369  0.0363
15806W        W58900  20.762  25.154   5.326 -0.0782  0.2195  0.2047
15807W        W58901  20.693  22.370   2.806 -0.0782 -0.0218  0.1089
15808W        W58902  22.047  22.821   6.682  0.1229 -0.1799 -0.1304
15809W        W58903  20.827  23.799   4.819  0.2066 -0.5024  0.4615
15810W        W58904  20.949  23.464   3.147  0.0584  0.0091 -0.2737
15811W        W58905  20.126  22.503   5.061  0.1750 -0.4794 -0.0270
15812W        W58906  21.529  22.884   7.536  0.1599  0.2227 -0.0766
15813W        W58907  19.953  21.786   4.162 -0.0909 -0.0082  0.0356
15814W        W58908  20.069  22.417   5.962  0.2020 -0.1907  0.0336
15815W        W58909  19.797  23.502   3.647  0.0463 -0.1314  0.2095
15816W        W58910  21.152  24.596   4.261  0.1189  0.2408  0.1811
15817W        W58911  21.826  21.287   3.196 -0.2109  0.0289  0.4137
15818W        W58912  17.961  22.718   5.061  0.1535 -0.0232 -0.1970
15819W        W58913  20.488  23.833   6.690  0.0321  0.0029 -0.1334
15820W        W58914  19.896  21.876   2.889  0.0649  0.0288 -0.1683
15821W        W58915  19.986  23.386   2.960  0.1703 -0.0200  0.2874
15822W        W58916  19.758  24.205   5.606  0.1661 -0.2925 -0.1440
15823W        W58917  22.930  24.377   7.467 -0.2274 -0.1560 -0.1871
15824W        W58918  21.333  20.377   4.235 -0.1828 -0.2045 -0.0112
15825W        W58919  21.766  22.737   7.098  0.3987 -0.2048 -0.1672
15826W        W58920  18.122  23.928   4.140 -0.2000 -0.0383  0.0941
15827W        W58921  18.967  22.127   5.717 -0.0325  0.0692  0.0103
15828W        W58922  18.661  26.015   5.708 -0.1223  0.0048  0.1931
15829W        W58923  18.178  23.798   5.433  0.1573 -0.2203  0.2351
15830W        W58924  18.621  23.682   4.260  0.2275  0.2183  0.0382
15831W        W58925  18.882  22.359   6.168 -0.0579  0.2142 -0.1757
15832W        W58926  21.073  22.739   6.285 -0.4496 -0.0466  0.1534
15833W        W58927  18.992  24.616   4.650  0.0238 -0.2284  0.0183
15834W        W58928  21.273  23.013   7.173 -0.3535  0.0065  0.0467
15835W        W58929  20.272  23.650   4.492  0.0040 -0.2684  0.0598
15836W        W58930  20.391  24.813   3.858  0.0798 -0.3145 -0.1699
15837W        W58931  21.895  23.680   5.770  0.0038  0.1006 -0.1280
15838W        W58932  21.013  22.924   4.762  0.0706  0.0211  0.1043
15839W        W58933  18.963  24.216   5.800 -0.1477  0.1275 -0.3703
15840W        W58934  18.051  22.972   6.730 -0.0134  0.2763  0.3718
15841W        W58935  19.615  23.152   6.301 -0.0590 -0.1504 -0.1833
15842W        W58936  20.244  24.007   4.896  0.0216  0.0273 -0.2666
15843W        W58937  20.886  21.248   4.554 -0.0021  0.1636 -0.1338
15844W        W58938  19.253  24.149   3.645  0.1680  0.0984  0.0238
15845W        W58939  19.765  24.561   7.852 -0.0623  0.1140  0.0762
15846W        W58940  18.604  23.844   5.735 -0.0125 -0.1132  0.0577
15847W        W58941  20.153  26.705   4.832  0.1966  0.0995 -0.1332
15848W        W58942  20.449  23.303   4.089 -0.0028 -0.1782  0.0009
15849W        W58943  21.117  25.337   2.581  0.1578  0.2984 -0.1767
15850W        W58944  21.242  25.094   5.166 -0.1580 -0.2342 -0.3844
15851W        W58945  20.281  22.353   4.134  0.0462 -0.1412 -0.2645
15852W        W58946  18.864  23.766   5.314  0.0830 -0.3121 -0.0012
15853W        W58947  17.411  24.975   3.742  0.0215  0.0015 -0.1029
15854W        W58948  21.136  24.303   3.768 -0.2654 -0.1520 -0.0068
15855W        W58949  18.173  24.230   4.970 -0.1127  0.2464  0.0709
15856W        W58950  21.036  24.032   6.194 -0.1847  0.1445  0.2610
15857W        W58951  21.790  21.089   2.755  0.0237 -0.0053 -0.1573
15858W        W58952  21.225  25.623   6.058 -0.0158  0.2614 -0.0595
15859W        W58953  20.786  23.069   3.493  0.0253 -0.0747 -0.1246
15860W        W58954  20.788  24.030   5.755  0.0104 -0.1032  0.1549
15861W        W58955  19.711  22.708   5.851 -0.0200 -0.0475  0.0173
15862W        W58956  21.046  20.564   3.362 -0.1769  0.0416  0.2627
15863W        W58957  19.416  24.088   5.979  0.1195 -0.0052 -0.3045
15864W        W58958  20.964  21.577   6.754  0.0514 -0.1571 -0.1216
15865W        W58959  19.176  23.902   6.491  0.0429 -0.0015 -0.2088
15866W        W58960  20.761  25.349   4.866  0.2383 -0.1036 -0.0859
15867W        W58961  19.410  22.812   3.170 -0.1995 -0.1517 -0.1481
15868W        W58962  19.973  23.068   4.344  0.4691  0.0349 -0.1329
15869W        W58963  21.283  21.126   6.744 -0.1427 -0.0167  0.1526
15870W        W58964  20.296  25.021   4.686  0.0050 -0.0908  0.2854
15871W        W58965  20.883  22.536   6.973 -0.0014 -0.2994 -0.0491
15872W        W58966  20.166  24.648   5.798  0.2059 -0.2771  0.0566
15873W        W58967  18.428  24.314   5.885  0.1474  0.0903  0.0062
15874W        W58968  19.232  24.415   6.327 -0.4721  0.2693  0.2740
15875W        W58969  18.728  21.257   4.018 -0.0552 -0.2557  0.0890
15876W        W58970  21.277  23.180   5.519 -0.0834 -0.0477 -0.0361
15877W        W58971  22.019  23.466   5.113  0.1425  0.1866  0.0837
15878W        W58972  22.520  22.882   6.429  0.2467 -0.0672  0.0721
15879W        W58973  18.695  22.366   4.864  0.0214  0.0373 -0.2383
15880W        W58974  21.383  22.421   3.851  0.1440  0.1861  0.3456
15881W        W58975  19.430  24.266   4.670 -0.2388  0.0934 -0.0359
15882W        W58976  18.848  23.053   5.460  0.1098  0.1345 -0.0746
15883W        W58977  20.857  23.011   3.978 -0.0933  0.1282  0.0359
15884W        W58978  21.633  24.278   6.291  0.0849  0.1917 -0.1019
15885W        W58979  20.035  22.927   1.773 -0.1798 -0.0002 -0.1559
15886W        W58980  21.438  25.175   5.836  0.0723  0.0523  0.2929
15887W        W58981  19.203  23.205   4.542 -0.0628  0.2281  0.0144
15888W        W58982  21.049  22.540   3.473 -0.0818 -0.0531 -0.0129
15889W        W58983  17.761  22.665   3.706 -0.2461  0.1629  0.1349
15890W        W58984  19.566  22.688   4.641  0.0698 -0.2424  0.1254
15891W        W58985  21.922  24.905   8.110  0.1277  0.0153  0.0215
15892W        W58986  19.150  21.198   4.267 -0.2042 -0.1524 -0.1563
15893W        W58987  21.338  23.283   2.760  0.4172 -0.0599 -0.3730
15894W        W58988  20.992  23.756   5.343 -0.2677  0.3393 -0.0553
15895W        W58989  19.225  25.417   3.186  0.0743 -0.0907  0.2155
15896W        W58990  21.753  22.997   4.209 -0.0337 -0.2360 -0.1165
15897W        W58991  19.452  25.644   5.374 -0.1873  0.3502 -0.0850
15898W        W58992  18.359  20.856   5.298 -0.1528 -0.3098  0.0202
15899W        W58993  22.365  24.151   5.668  0.4186 -0.0228  0.1002
15900W        W58994  20.964  23.831   7.553 -0.0843  0.1786  0.0656
15901W        W58995  20.350  21.228   3.556  0.1620  0.3029  0.3315
15902W        W58996  20.122  23.721   6.237 -0.2607  0.2409 -0.1619
15903W        W58997  18.445  25.501   4.359 -0.0465 -0.1305 -0.0465
15904W        W58998  21.717  23.259   6.088  0.1072 -0.1745  0.0976
15905W        W58999  20.817  23.456   7.071 -0.2444 -0.0375 -0.0917
15906W        W59000  18.104  24.684   3.245 -0.2843 -0.3755  0.0012
15907W        W59001  20.501  20.938   7.018 -0.0221 -0.1547 -0.0311
15908W        W59002  20.709  23.413   5.524 -0.4561 -0.2649  0.1140
15909W        W59003  20.381  24.914   7.033  0.4278  0.1125  0.0374
15910W        W59004  18.540  24.092   3.982 -0.0171  0.1873  0.0562
15911W        W59005  20.394  23.423   5.920 -0.0031  0.5114 -0.2203
15912W        W59006  20.474  25.796   5.615 -0.2417 -0.2942  0.1589
15913W        W59007  21.064  25.000   4.521 -0.0737 -0.1557  0.1562
15914W        W59008  20.040  24.860   5.068 -0.1924 -0.0177  0.1243
15915W        W59009  21.713  22.755   4.668  0.0333  0.0487  0.2500
15916W        W59010  21.550  24.640   5.438 -0.0575 -0.0256 -0.1300
15917W        W59011  18.680  21.141   5.005  0.0776  0.0798  0.1845
15918W        W59012  22.020  22.309   4.623 -0.1639 -0.3158 -0.1373
15919W        W59013  21.500  22.104   2.119 -0.1081 -0.2228  0.2142
15920W        W59014  19.276  24.052   5.477  0.1014 -0.1326  0.0876
15921W        W59015  18.340  23.145   1.592  0.1183  0.0027 -0.1043
15922W        W59016  18.807  24.176   3.453 -0.1057 -0.0769 -0.2964
15923W        W59017  19.308  23.764   4.991  0.1793  0.1573 -0.1492
15924W        W59018  20.015  21.656   6.944  0.0178  0.3224 -0.3285
15925W        W59019  18.483  23.687   6.960 -0.0615 -0.1058 -0.2376
15926W        W59020  18.932  22.849   4.897 -0.1421  0.0499 -0.1466
15927W        W59021  20.848  22.063   3.264 -0.0048 -0.0941  0.0472
15928W        W59022  20.994  24.344   3.166 -0.1883 -0.0594  0.0377
15929W        W59023  19.193  21.798   4.111 -0.0230  0.0036 -0.1376
15930W        W59024  19.397  22.072   5.438  0.1660 -0.1581 -0.0898
15931W        W59025  20.612  24.222   5.275 -0.0888  0.0526  0.1602
15932W        W59026  21.817  25.486   4.287  0.0029  0.2224  0.0205
15933W        W59027  19.911  20.715   4.402 -0.2158 -0.1801  0.1304
15934W        W59028  21.558  24.740   6.096  0.0002  0.2062  0.0019
15935W        W59029  18.477  23.271   3.396  0.0301 -0.0132  0.3194
15936W        W59030  20.836  23.004   5.769  0.0148  0.2768  0.1410
15937W        W59031  18.886  22.188   7.006  0.0390 -0.1349 -0.2509
15938W        W59032  18.570  22.181   2.236 -0.1271  0.0324  0.1791
15939W        W59033  20.409  23.720   5.292 -0.0619  0.3257 -0.1937
15940W        W59034  20.053  24.099   4.221  0.1146  0.0664 -0.0154
15941W        W59035  20.284  25.346   5.072  0.3022 -0.1773 -0.1235
15942W        W59036  20.095  24.483   6.995 -0.1491 -0.1577 -0.0944
15943W        W59037  20.801  24.304   6.669 -0.2142  0.5922 -0.1215
15944W        W59038  17.882  21.803   5.843 -0.1293  0.1705  0.1284
15945W        W59039  20.769  22.464   3.977  0.1856  0.0623 -0.0420
15946W        W59040  19.917  23.537   4.175  0.1376 -0.0607  0.0519
15947W        W59041  22.761  23.571   3.332 -0.3010 -0.0966 -0.0025
15948W        W59042  20.688  22.385   7.543 -0.0122  0.1424  0.0747
15949W        W59043  21.159  23.396   3.679 -0.3787 -0.1941  0.0347
15950W        W59044  18.317  22.063   6.276  0.2244  0.1119  0.0506
15951W        W59045  20.498  23.332   6.650 -0.1243 -0.2025  0.4616
15952W        W59046  21.790  24.896   6.579  0.0313  0.0688 -0.1178
15953W        W59047  18.883  22.055   4.463 -0.0955 -0.0884 -0.2605
15954W        W59048  20.553  22.586   3.463  0.2097  0.5444  0.1669
15955W        W59049  18.764  25.329   4.051 -0.0336  0.0637 -0.1907
15956W        W59050  19.197  23.476   5.505 -0.1521 -0.3022  0.0236
15957W        W59051  21.425  22.911   3.710 -0.1444  0.1404  0.0559
15958W        W59052  21.930  23.684   6.321  0.4396 -0.3239 -0.3132
15959W        W59053  19.774  24.423   3.983 -0.0697 -0.3076 -0.0156
15960W        W59054  22.586  23.996   6.862 -0.0488  0.1965  0.3369
15961W        W59055  18.050  22.653   3.263 -0.2971  0.2110  0.0064
15962W        W59056  22.921  23.649   2.182  0.0264  0.1952  0.2962
15963W        W59057  20.967  24.920   5.839  0.0104  0.1124  0.2023
15964W        W59058  21.542  25.029   7.857  0.1057  0.2197 -0.3174
15965W        W59059  19.879  24.120   6.110 -0.1148  0.2879  0.0214
15966W        W59060  21.197  23.390   5.061 -0.1130  0.2605 -0.0346
15967W        W59061  18.202  20.910   4.822 -0.1006  0.0620 -0.3652
15968W        W59062  20.177  23.757   3.796 -0.3449 -0.1650 -0.0509
15969W        W59063  19.823  22.484   4.088  0.0066 -0.1109 -0.0087
15970W        W59064  21.038  24.663   5.369  0.3482 -0.0591 -0.1234
15971W        W59065  18.927  23.187   3.650 -0.0536  0.2202 -0.1294
15972W        W59066  19.951  21.676   4.687 -0.1094 -0.1920  0.1060
15973W        W59067  19.990  25.128   5.930  0.1079 -0.2241  0.3376
15974W        W59068  20.656  23.283   4.984 -0.1313 -0.2432 -0.1645
15975W        W59069  20.241  24.870   7.926  0.2741 -0.1024 -0.0967
15976W        W59070  19.431  23.629   6.913  0.0271 -0.2118  0.0035
15977W        W59071  20.789  21.743   6.342 -0.1126 -0.1178 -0.2054
15978W        W59072  19.700  22.487   7.452 -0.0792  0.2624 -0.2600
15979W        W59073  18.849  20.849   9.935  0.0792  0.0798 -0.2119
15980W        W59074  20.184  24.326   7.983 -0.1826 -0.0706  0.0063
15981W        W59075  20.960  24.096   7.976 -0.0725  0.0157  0.1126
15982W        W59076  22.471  24.566   9.074  0.0280  0.1988  0.2416
15983W        W59077  21.230  23.310   6.784 -0.1007 -0.3553 -0.1660
15984W        W59078  19.827  22.681   8.667  0.1660 -0.0342  0.0688
15985W        W59079  20.394  22.457   7.046  0.1500  0.1698  0.2557
15986W        W59080  17.097  21.640   7.584 -0.0496 -0.1314 -0.0306
15987W        W59081  21.896  26.758  10.906  0.3960  0.0512 -0.1737
15988W        W59082  18.903  24.011   6.996  0.0076 -0.0528  0.0427
15989W        W59083  18.439  21.643   8.866  0.0183 -0.0643  0.3026
15990W        W59084  18.597  21.753   8.276 -0.1899 -0.3531 -0.1357
15991W        W59085  19.399  25.404   8.562  0.2655  0.0116 -0.0921
15992W        W59086  18.990  23.622  11.961 -0.0650  0.4588 -0.3227
15993W        W59087  18.511  24.907   8.023 -0.1770  0.2011  0.0315
15994W        W59088  18.382  23.244   7.099 -0.2030 -0.1637 -0.1508
15995W        W59089  17.614  22.482   9.913 -0.0455 -0.0770 -0.1410
15996W        W59090  18.625  22.848   8.908 -0.3324 -0.2543 -0.1509
15997W        W59091  19.770  21.612   8.556 -0.0936  0.2715 -0.1831
15998W        W59092  20.293  22.651   8.974  0.0129  0.2915 -0.0201
15999W        W59093  18.908  25.033  10.196  0.3309  0.2453  0.1823
16000W        W59094  20.224  26.568   8.648  0.1833 -0.1109  0.0094
16001W        W59095  18.849  24.250   7.502  0.1876  0.0479  0.0666
16002W        W59096  17.790  22.791   9.453 -0.0772  0.1427  0.2780
16003W        W59097  18.979  24.594   8.270  0.0999 -0.0630 -0.1330
16004W        W59098  23.241  24.445   9.494 -0.1158  0.0200 -0.1196
16005W        W59099  18.408  23.831   6.276  0.2758  0.1018 -0.1953
16006W        W59100  19.875  25.758   8.737  0.2864  0.1573  0.1294
16007W        W59101  19.465  24.363   8.358 -0.0362  0.1173 -0.5867
16008W        W59102  19.892  26.009   7.411 -0.1332 -0.0064 -0.1661
16009W        W59103  19.361  24.349   9.277 -0.2790  0.5585 -0.2480
16010W        W59104  19.189  24.319   7.900  0.0065  0.1409 -0.1771
16011W        W59105  19.248  23.377   7.315  0.2529  0.0337  0.0286
16012W        W59106  19.568  22.962   7.247 -0.1980 -0.0164  0.0313
16013W        W59107  19.106  23.376   6.421  0.0654 -0.3275  0.2590
16014W        W59108  20.044  22.101   7.762  0.2745 -0.1375  0.0093
16015W        W59109  22.173  21.272   9.818  0.4673 -0.0521 -0.2266
16016W        W59110  18.514  25.177  10.518 -0.1089  0.0062  0.2809
16017W        W59111  18.565  21.020   9.492 -0.0583  0.2731 -0.3041
16018W        W59112  19.406  22.918   8.639 -0.0479  0.2493  0.3723
16019W        W59113  20.619  22.496   9.362  0.1460 -0.2415  0.0354
16020W        W59114  19.426  24.444   9.988 -0.2280 -0.1097  0.3083
16021W        W59115  19.183  24.780   9.691  0.0117  0.2420 -0.1630
16022W        W59116  19.493  23.870   8.515 -0.1778  0.1763  0.2529
16023W        W59117  20.298  23.905   9.402  0.0104  0.3594  0.0402
16024W        W59118  21.120  25.238   7.732 -0.2523 -0.1884  0.0575
16025W        W59119  17.842  22.741   8.485 -0.0046  0.0947  0.0751
16026W        W59120  19.376  22.079   7.083  0.3941  0.1469  0.0674
16027W        W59121  21.442  22.105   9.052  0.1288  0.2891  0.0977
16028W        W59122  18.591  22.306   8.767 -0.0591 -0.1829  0.1049
16029W        W59123  21.503  23.205   8.377  0.2010 -0.1794  0.3393
16030W        W59124  21.107  24.498   7.051 -0.0514  0.1027 -0.1122
16031W        W59125  20.382  22.639   9.811 -0.3116  0.0597 -0.1275
16032W        W59126  19.678  21.336   7.653  0.0859 -0.0765 -0.0643
16033W        W59127  18.147  24.525   6.862 -0.0725  0.0770  0.0740
16034W        W59128  19.804  23.216   6.859  0.0131  0.1043  0.0430
16035W        W59129  21.742  26.108   9.285 -0.0385  0.3021 -0.3783
16036W        W59130  20.206  22.906   6.762  0.2843  0.0134  0.1158
16037W        W59131  19.650  24.821   8.691  0.0163 -0.1643  0.0421
16038W        W59132  18.899  24.956   6.819  0.0029  0.0970 -0.3529
16039W        W59133  18.708  24.347   7.968 -0.0666  0.0303  0.1061
16040W        W59134  18.031  23.539   6.673 -0.4905  0.4709  0.2747
16041W        W59135  16.719  20.449   9.591  0.1154 -0.0520  0.1759
16042W        W59136  18.811  25.070   9.457 -0.2069  0.0947  0.0256
16043W        W59137  22.356  22.756   9.888  0.1488  0.0246  0.3204
16044W        W59138  21.745  21.730   7.325  0.0291 -0.2965 -0.0105
16045W        W59139  19.626  24.105   6.551 -0.0494  0.0814 -0.0775
16046W        W59140  20.900  25.088   8.183  0.1641 -0.0702 -0.2238
16047W        W59141  21.177  22.705   8.348 -0.2141 -0.6114 -0.1365
16048W        W59142  20.828  24.034   7.116 -0.1941 -0.0751  0.2689
16049W        W59143  18.516  25.379   8.661 -0.0202 -0.1196  0.0619
16050W        W59144  18.922  23.873   7.794 -0.3721  0.0256  0.1773
16051W        W59145  16.550  20.770   8.627  0.0118  0.0036  0.0808
16052W        W59146  18.888  21.179   7.285  0.1484 -0.2234  0.2503
16053W        W59147  21.494  23.461   9.444 -0.0379 -0.1715 -0.3236
16054W        W59148  19.411  22.905   6.718 -0.0120 -0.0141  0.1534
16055W        W59149  18.720  25.920   7.507 -0.0996 -0.2620 -0.0832
16056W        W59150  20.933  25.625   8.010  0.1230  0.1369 -0.1645
16057W        W59151  18.869  24.556   9.249  0.3513 -0.1204  0.1565
16058W        W59152  20.405  24.434   9.215 -0.0079 -0.0265 -0.1644
16059W        W59153  17.562  19.556   9.774 -0.0358 -0.1168  0.0015
16060W        W59154  18.478  22.102   7.368  0.3076 -0.1935  0.0623
16061W        W59155  17.452  24.875   8.385 -0.0911  0.0198 -0.4235
16062W        W59156  17.973  24.527   8.431  0.0285  0.1772 -0.0532
16063W        W59157  18.579  21.241   6.867  0.1204  0.1476 -0.3095
16064W        W59158  23.171  22.963   9.744  0.4117  0.1315  0.2040
16065W        W59159  21.394  24.288   8.842  0.0013  0.1844  0.0806
16066W        W59160  22.013  24.535   8.905  0.0907  0.0948  0.1612
16067W        W59161  20.771  23.678   8.429  0.2008  0.1573 -0.2422
16068W        W59162  18.563  22.323   6.634  0.0184  0.0776 -0.1589
16069W        W59163  21.390  25.134   8.372 -0.1432 -0.2000 -0.0575
16070W        W59164  19.138  25.887   6.724 -0.0585 -0.0394  0.3621
16071W        W59165  18.662  23.631   8.177  0.0642 -0.0696  0.1074
16072W        W59166  19.909  25.641   8.261  0.0346 -0.2274 -0.0548
16073W        W59167  21.149  22.527   9.042  0.1101  0.0758 -0.3459
16074W        W59168  17.739  22.082   7.337 -0.2218 -0.2139 -0.3528
16075W        W59169  20.426  21.693   7.891 -0.4393  0.2367 -0.1243
16076W        W59170  21.925  21.762   8.995 -0.1251 -0.2029 -0.3168
16077W        W59171  20.109  22.982   7.241 -0.1521 -0.1730  0.4955
16078W        W59172  19.859  22.888   7.718  0.2480  0.0609  0.2365
16079W        W59173  18.777  22.476   7.481  0.1561  0.0758  0.1685
16080W        W59174  20.000  24.657   9.019  0.0449  0.0258 -0.0543
16081W        W59175  19.608  24.304   8.849 -0.0020  0.0915  0.0852
16082W        W59176  18.783  22.986   6.220  0.1381 -0.0835 -0.1683
16083W        W59177  21.900  25.381   8.306  0.1415  0.2381  0.1005
16084W        W59178  18.156  21.954   8.250  0.2844  0.0162  0.3614
16085W        W59179  21.444  25.554   7.938 -0.3995  0.0003  0.0901
16086W        W59180  19.858  22.574   8.159  0.1403 -0.0526 -0.1071
16087W        W59181  18.442  22.569   6.187  0.0870 -0.1174  0.0560
16088W        W59182  19.281  22.417   8.254  0.3194  0.0447  0.0710
16089W        W59183  17.793  25.440   7.426  0.0277 -0.0001 -0.3330
16090W        W59184  22.105  19.658  10.078  0.0396 -0.1086  0.0363
16091W        W59185  20.430  21.996   8.794 -0.0273  0.2026 -0.2863
16092W        W59186  20.230  22.859   8.081  0.1928  0.0817  0.1032
16093W        W59187  19.908  24.208   9.282  0.3294 -0.1078  0.2890
16094W        W59188  18.531  23.418   6.553  0.0022 -0.2102 -0.0136
16095W        W59189  18.199  22.528   9.282  0.0977 -0.2593  0.2349
16096W        W59190  18.894  24.379  10.029  0.3289 -0.0135  0.3940
16097W        W59191  19.992  24.106   8.475 -0.1635 -0.1902  0.2009
16098W        W59192  19.507  23.297   7.793  0.2106  0.1142  0.0434
16099W        W59193  19.284  25.182   7.391  0.1666 -0.0291  0.1306
16100W        W59194  20.041  24.230   7.530  0.1444  0.2433  0.2342
16101W        W59195  19.035  21.416   9.542 -0.0024 -0.0463 -0.0813
16102W        W59196  21.145  21.835   9.737 -0.0918  0.1464  0.1461
16103W        W59197  19.704  24.568   7.305  0.0304  0.4681  0.0241
16104W        W59198  21.307  23.514  10.019  0.0120 -0.0941  0.0066
16105W        W59199  19.485  25.375   8.083 -0.0301  0.1650 -0.1193
16106W        W59200  21.503  21.240   8.432 -0.0386  0.2400 -0.1274
16107W        W59201  18.054  24.360   7.432  0.2769  0.0284 -0.1267
16108W        W59202  19.059  22.907   7.535  0.2130 -0.2863 -0.0726
16109W        W59203  18.486  24.603   7.599  0.0095 -0.0353 -0.2679
16110W        W59204  20.178  23.099   8.670  0.4511 -0.0046 -0.0586
16111W        W59205  21.235  23.606   7.968 -0.0237  0.1513  0.2065
16112W        W59206  17.698  22.580   8.940  0.0132  0.0996  0.2246
16113W        W59207  19.363  23.976   9.572 -0.1736 -0.2462  0.0384
16114W        W59208  18.061  24.066   8.749  0.0633 -0.2805  0.0180
16115W        W59209  21.486  21.661   7.866 -0.2434 -0.2008 -0.0787
16116W        W59210  18.028  22.874   7.187  0.1009 -0.0265  0.2206
16117W        W59211  19.232  23.447   9.472  0.2391  0.0135  0.1025
16118W        W59212  19.364  23.416   8.377  0.0863 -0.1049  0.4198
16119W        W59213  19.255  25.729   7.260  0.2332  0.1147  0.3324
16120W        W59214  18.829  22.535   9.643  0.1380  0.0063  0.1459
16121W        W59215  18.913  22.999   7.005 -0.2264  0.0250  0.1740
16122W        W59216  18.476  25.429   6.829  0.1111  0.0852  0.1096
16123W        W59217  18.789  24.090   9.540  0.1663 -0.3289 -0.1994
16124W        W59218  19.378  22.359   9.298  0.3137 -0.2113 -0.0156
16125W        W59219  18.249  23.093   9.172  0.1736 -0.1818  0.0922
16126W        W59220  19.095  23.022   8.150  0.2993  0.1793 -0.2510
16127W        W59221  21.098  24.202   9.819  0.0649  0.3004 -0.0093
16128W        W59222  19.416  23.320   8.973 -0.0774 -0.2430  0.2357
16129W        W59223  19.374  21.243   9.001  0.3081 -0.1020  0.0636
16130W        W59224  23.069  25.730   9.053 -0.2251 -0.0988 -0.1538
16131W        W59225  18.680  24.538   7.120 -0.0953 -0.2200 -0.1129
16132W        W59226  17.307  23.105   8.886 -0.2281 -0.2601  0.0395
16133W        W59227  20.421  23.268   8.233 -0.0670  0.4665 -0.0667
16134W        W59228  19.008  22.661   9.105 -0.0325  0.2917  0.1160
16135W        W59229  17.641  25.433   9.360 -0.1614  0.1033  0.1451
16136W        W59230  19.308  24.430   7.079  0.1328 -0.0583  0.0944
16137W        W59231  17.228  22.261  11.624  0.1770 -0.2656 -0.1609
16138W        W59232  21.156  22.050   8.212 -0.0444  0.2649  0.0163
16139W        W59233  20.672  24.505   5.689 -0.2085  0.1051 -0.2162
16140W        W59234  20.330  23.832   7.933  0.1080 -0.2762 -0.1408
16141W        W59235  21.196  23.025   7.897 -0.2148 -0.4478  0.1414
16142W        W59236  19.199  20.348   9.518 -0.0363 -0.1921 -0.0052
16143W        W59237  21.172  24.790   8.586  0.0544  0.1489  0.1940
16144W        W59238  19.418  22.434   8.827 -0.1091 -0.0812 -0.0311
16145W        W59239  18.127  21.476   6.834 -0.1350 -0.1337  0.1200
16146W        W59240  20.128  25.024   8.702 -0.0577  0.2110 -0.1627
16147W        W59241  20.779  24.088   9.306  0.1077 -0.0091 -0.2615
16148W        W59242  19.763  23.378   7.326 -0.2281  0.4374  0.2056
16149W        W59243  19.845  23.568   9.344  0.1331  0.0808 -0.3279
16150W        W59244  18.412  22.630   8.364 -0.0693 -0.0762 -0.0140
16151W        W59245  22.349  23.526   9.012  0.0166 -0.1878 -0.2074
16152W        W59246  19.849  23.147   8.239  0.3124  0.2135  0.0251
16153W        W59247  19.767  24.116   8.042  0.0238  0.0424 -0.2949
16154W        W59248  20.767  23.100   9.219  0.0970  0.2288 -0.1317
16155W        W59249  19.761  22.179   8.535  0.1468  0.0672 -0.0724
16156W        W59250  18.504  25.704   9.150  0.0526  0.2258  0.0169
16157W        W59251  19.843  22.115   6.691 -0.0777 -0.1077  0.0390
16158W        W59252  23.182  22.050   8.341 -0.0249  0.1947 -0.2609
16159W        W59253  22.603  22.979   9.365  0.4353  0.0983  0.3233
16160W        W59254  19.404  22.768   7.895  0.2891  0.0078  0.0127
16161W        W59255  18.965  22.688   8.521 -0.1928  0.1667 -0.0312
16162W        W59256  19.265  23.231   5.926  0.0409  0.0980 -0.3148
16163W        W59257  20.273  24.054   7.095  0.1304  0.1373  0.1143
16164W        W59258  20.758  23.279   7.590 -0.0755 -0.1793  0.0002
16165W        W59259  20.711  23.357   8.775 -0.0846  0.3245  0.0021
16166W        W59260  19.450  21.747   8.976 -0.0544 -0.2729 -0.3385
16167W        W59261  17.280  24.007   7.011 -0.3117 -0.0593 -0.1012
16168W        W59262  19.838  23.786   7.609 -0.1271 -0.0161  0.0244
16169W        W59263  19.881  25.130   8.284 -0.1231 -0.0536  0.1783
16170W        W59264  18.560  22.940   7.506 -0.0623  0.1334 -0.1008
16171W        W59265  20.049  25.367   7.833 -0.2300  0.0660  0.1098
16172W        W59266  21.256  24.254   9.360  0.0299  0.1614 -0.1134
16173W        W59267  18.525  24.315   8.960  0.2471 -0.2215 -0.1216
16174W        W59268  19.028  24.326   8.715  0.1712  0.2308  0.0424
16175W        W59269  19.734  21.232   9.432 -0.1406  0.0082 -0.4570
16176W        W59270  21.116  23.731   9.495  0.1307 -0.2679  0.3811
16177W        W59271  20.331  24.502   8.749  0.1773 -0.0265 -0.0267
16178W        W59272  19.393  23.730   7.974 -0.0596  0.4951  0.2925
16179W        W59273  20.241  23.444   9.054  0.0081  0.0940  0.1742
16180W        W59274  18.631  25.423   9.993 -0.3095 -0.2531  0.2995
16181W        W59275  20.193  25.481   9.072  0.1455  0.0050 -0.0971
16182W        W59276  18.555  22.626   7.074 -0.0049 -0.2675 -0.2936
16183W        W59277  20.046  23.503   4.973  0.0422 -0.1870  0.0290
16184W        W59278  19.234  24.713   8.936  0.2648  0.2642 -0.0080
16185W        W59279  18.540  25.296   7.657 -0.4565 -0.2144 -0.1264
16186W        W59280  20.283  23.717   8.481 -0.1242 -0.1901 -0.1194
16187W        W59281  19.370  24.891   8.135 -0.3789  0.3706  0.1348
16188W        W59282  20.000  24.640   8.360 -0.1604  0.1044 -0.0112
16189W        W59283  20.099  23.309   7.794  0.0298 -0.0208  0.0553
16190W        W59284  18.392  25.834   7.937 -0.0480  0.1963 -0.3044
16191W        W59285  17.929  25.142   6.354 -0.1666  0.0140  0.0192
16192W        W59286  18.578  23.377   8.924  0.1517 -0.4237  0.0483
16193W        W59287  17.563  23.961   9.182  0.1172 -0.1056  0.4179
16194W        W59288  20.311  21.316   7.338 -0.0285  0.1413  0.1680
16195W        W59289  21.000  23.227   8.345  0.0157 -0.0648 -0.0568
16196W        W59290  20.990  22.050   7.272 -0.0384 -0.0844 -0.2151
16197W        W59291  17.612  23.127   9.850 -0.2447  0.0595  0.2407
16198W        W59292  19.715  22.648   6.405  0.2209  0.3569 -0.0226
16199W        W59293  21.252  24.631   6.511  0.0147 -0.1691  0.4588
16200W        W59294  17.675  20.439   9.399  0.0771 -0.1517 -0.5417
16201W        W59295  19.895  23.999   9.694 -0.1542  0.1789  0.0753
16202W        W59296  20.135  21.921   8.287  0.1437 -0.3060  0.0800
16203W        W59297  20.443  23.039   4.575  0.0227  0.3210  0.0965
16204W        W59298  19.214  22.357   7.694  0.0771 -0.0672  0.2454
16205W        W59299  17.228  23.069   9.400  0.1523 -0.1039  0.0319
16206W        W59300  18.099  24.162   9.274  0.0019 -0.0198 -0.1589
16207W        W59301  20.931  25.556   9.557  0.0369 -0.2502 -0.1711
16208W        W59302  19.148  21.364   7.643 -0.0242  0.5725 -0.1473
16209W        W59303  21.976  22.245   9.006 -0.0915  0.2683  0.1903
16210W        W59304  18.546  24.347   8.410  0.0895  0.2657 -0.2240
16211W        W59305  19.540  24.195   7.600  0.0160 -0.1629 -0.1380
16212W        W59306  20.695  24.855   8.655  0.0157  0.0774 -0.0951
16213W        W59307  20.680  22.038   9.740  0.1090  0.1029 -0.1179
16214W        W59308  19.859  22.492   9.118 -0.1633  0.1984 -0.1085
16215W        W59309  18.509  22.814   6.654  0.0320  0.1322 -0.1703
16216W        W59310  21.262  23.805   7.081  0.2687 -0.2304 -0.2331
16217W        W59311  18.470  22.325   7.976 -0.0724 -0.1046  0.2508
16218W        W59312  18.921  23.493   6.876 -0.0665 -0.0843  0.3453
16219W        W59313  18.945  23.308   7.794  0.0066 -0.1340 -0.1257
16220W        W59314  19.934  23.834   8.902  0.2264 -0.0193  0.0348
16221W        W59315  19.372  21.844   8.400 -0.0832  0.0888 -0.1393
16222W        W59316  22.171  23.658   6.857 -0.0500  0.2355  0.0317
16223W        W59317  21.073  23.178   9.653 -0.2953  0.1575  0.2118
16224W        W59318  20.576  24.625   8.192 -0.0040  0.0366  0.2229
16225W        W59319  20.747  23.582   7.979  0.0556 -0.0136 -0.4069
16226W        W59320  20.851  24.542   9.552 -0.1018  0.0109 -0.1024
16227W        W59321  17.334  21.747   9.804 -0.3209  0.1004 -0.0030
16228W        W59322  22.481  24.175   8.697 -0.0787 -0.0164 -0.0121
16229W        W59323  21.980  24.683   9.880  0.2445 -0.1260 -0.0477
16230W        W59324  19.463  21.705   6.758 -0.0884  0.0960 -0.2076
16231W        W59325  18.829  22.666   7.922 -0.0604 -0.5095  0.0121
16232W        W59326  18.876  24.939   7.475 -0.0276  0.0559 -0.6556
16233W        W59327  23.716  24.142   9.074  0.0227  0.0377 -0.0297
16234W        W59328  20.853  24.860   6.772  0.1319  0.1141 -0.0082
16235W        W59329  20.482  25.522   8.676  0.2769 -0.2353  0.0912
16236W        W59330  19.250  23.907   7.346  0.1088  0.1638 -0.0804
16237W        W59331  20.514  24.143   6.208 -0.3277 -0.3140 -0.1571
16238W        W59332  20.582  25.185   7.737 -0.1960 -0.0008  0.1820
16239W        W59333  21.800  25.066   9.138  0.0380  0.3338 -0.0219
16240W        W59334  20.405  23.450   9.678  0.2897  0.1806 -0.2168
16241W        W59335  21.647  22.798   8.032 -0.0959  0.2155  0.3358
16242W        W59336  21.028  22.972   8.799  0.1812  0.0968  0.3666
16243W        W59337  22.056  21.525   7.927 -0.0187 -0.1234  0.1904
16244W        W59338  20.456  22.396   8.044  0.1424 -0.0302  0.2592
16245W        W59339  17.928  24.903   8.038 -0.0073  0.2189  0.0821
16246W        W59340  18.822  23.648   7.346  0.0965 -0.0638 -0.0672
16247W        W59341  20.065  24.560   6.292 -0.1853  0.3196 -0.1205
16248W        W59342  17.879  23.962   9.656 -0.3248  0.0993 -0.3021
16249W        W59343  17.238  22.161   9.469 -0.1485  0.1498 -0.0855
16250W        W59344  18.205  23.100   8.646  0.1762  0.3594 -0.0206
16251W        W59345  22.031  23.642   7.857 -0.1585 -0.1104  0.2785
16252W        W59346  18.960  21.728   8.729  0.1137  0.1892 -0.0863
16253W        W59347  17.229  23.933   9.701  0.0756 -0.2170 -0.1379
16254W        W59348  21.958  24.037   8.878  0.0026 -0.1249  0.1931
16255W        W59349  21.771  24.496   7.896 -0.0418  0.0036  0.0760
16256W        W59350  20.172  22.514   7.524 -0.3387 -0.0281 -0.0037
16257W        W59351  16.957  23.498   6.118 -0.2116 -0.0050  0.1054
16258W        W59352  17.959  22.347   8.032  0.0577 -0.3576  0.0521
16259W        W59353  19.450  22.838   9.171  0.0066 -0.2414 -0.0488
16260W        W59354  20.220  24.656   7.467 -0.0699 -0.0672 -0.0424
16261W        W59355  21.839  24.935   8.600  0.0942  0.0946  0.2599
16262W        W59356  16.689  21.638   8.992 -0.1715 -0.0179 -0.1793
16263W        W59357  22.028  23.123   8.181 -0.1333 -0.2800  0.1332
16264W        W59358  22.085  24.683   9.379 -0.0393  0.0436  0.0825
16265W        W59359  20.977  21.998   8.755 -0.1272 -0.0832 -0.0531
16266W        W59360  20.568  24.216   7.618  0.0006  0.0408  0.0422
16267W        W59361  22.099  23.188   8.677  0.2222  0.1221 -0.1726
16268W        W59362  19.059  22.140   8.962  0.2087  0.1126  0.0839
16269W        W59363  20.156  21.188   8.315  0.0896  0.2116  0.3085
16270W        W59364  20.325  24.165   5.702  0.1749 -0.1192  0.1780
16271W        W59365  18.602  22.020   9.738 -0.0841 -0.4990 -0.0784
16272W        W59366  20.493  23.730   7.466 -0.0160  0.0033  0.0358
16273W        W59367  18.476  25.375   8.129 -0.1204 -0.2275  0.1667
16274W        W59368  19.749  22.530   6.943 -0.1128  0.4017 -0.0552
16275W        W59369  21.703  23.164   6.804  0.1143  0.2891  0.0975
16276W        W59370  19.862  25.253   9.607 -0.0427 -0.0944 -0.3110
16277W        W59371  19.324  25.116   9.283 -0.2177  0.0461  0.1028
16278W        W59372  21.223  23.015   9.237 -0.1617 -0.0929 -0.1893
16279W        W59373  19.012  22.013   9.459 -0.0046  0.0760  0.0485
16280W        W59374  18.978  24.034   8.252 -0.1502 -0.0954 -0.0399
16281W        W59375  19.917  23.659   8.106 -0.2962 -0.0530 -0.1010
16282W        W59376  19.462  23.841   9.095 -0.3615  0.1335  0.1806
16283W        W59377  19.790  23.431   8.665 -0.4172  0.1626 -0.7002
16284W        W59378  21.015  22.418   7.949 -0.0890 -0.0834 -0.0952
16285W        W59379  18.300  26.640   8.170 -0.1646  0.3654  0.1392
16286W        W59380  18.957  23.153   8.679 -0.2508  0.0427  0.1444
16287W        W59381  19.745  28.251   2.963  0.2021  0.0412 -0.0040
16288W        W59382  19.167  25.768   1.885  0.2709  0.2537  0.1092
16289W        W59383  19.913  25.782  31.717  0.1958  0.1400 -0.0587
16290W        W59384  21.698  27.602   0.135 -0.3020  0.0119 -0.3562
16291W        W59385  17.503  28.638   0.860 -0.0358  0.1456 -0.1561
16292W        W59386  21.508  28.117   2.339 -0.0285 -0.0379  0.2384
16293W        W59387  17.358  24.909   1.344 -0.0905 -0.1214 -0.0453
16294W        W59388  21.344  27.349   2.204  0.0481  0.1776 -0.1914
16295W        W59389  20.729  29.011   2.666 -0.1749 -0.0075 -0.2322
16296W        W59390  21.275  28.397  31.646  0.1290 -0.0878 -0.3009
16297W        W59391  18.618  25.969   1.866 -0.0202  0.1275  0.2408
16298W        W59392  19.381  29.192   2.461  0.3353  0.0572 -0.0930
16299W        W59393  19.547  25.783   0.789 -0.0963 -0.0937 -0.0663
16300W        W59394  16.954  24.854   3.183 -0.3767  0.3297 -0.0645
16301W        W59395  21.454  27.583   3.779 -0.3165 -0.3235 -0.3113
16302W        W59396  18.401  27.261   1.440 -0.1381  0.1178 -0.1079
16303W        W59397  18.893  26.465   1.295 -0.0048 -0.0243  0.0537
16304W        W59398  20.084  27.655   1.233  0.1580 -0.0758 -0.2015
16305W        W59399  20.375  28.089   1.229  0.0861 -0.2739 -0.4972
16306W        W59400  20.038  25.210   3.570 -0.0920 -0.0491 -0.0189
16307W        W59401  20.721  26.039   3.283 -0.0400  0.0701  0.1804
16308W        W59402  20.145  29.099   1.299  0.0944 -0.1446 -0.3256
16309W        W59403  17.967  26.235  31.827 -0.0388  0.2114 -0.1300
16310W        W59404  19.064  26.798   0.909  0.2458  0.0472  0.4079
16311W        W59405  19.150  26.949   3.639 -0.0805 -0.0095  0.0493
16312W        W59406  21.881  27.196   1.481  0.1323 -0.2070  0.1783
16313W        W59407  21.309  27.806   1.968 -0.2613 -0.1158  0.3014
16314W        W59408  19.770  28.579   2.188  0.0641 -0.4691  0.2596
16315W        W59409  20.792  29.150   2.104  0.0684 -0.0356 -0.0551
16316W        W59410  22.213  27.217   3.146  0.3239 -0.1518  0.1066
16317W        W59411  17.871  26.570   0.832  0.1577 -0.3101  0.0191
16318W        W59412  19.451  29.659   1.818 -0.0469 -0.0270 -0.2401
16319W        W59413  18.657  29.382  31.220  0.1599  0.3039  0.2169
16320W        W59414  21.313  28.802   0.652 -0.1484 -0.0382  0.0808
16321W        W59415  20.521  28.517   3.875 -0.1264 -0.2570  0.1029
16322W        W59416  19.745  29.259   3.793 -0.2783 -0.1912 -0.4151
16323W        W59417  18.849  28.375  31.738  0.2358  0.3937  0.0558
16324W        W59418  19.144  28.396   2.757 -0.0500 -0.2840 -0.2026
16325W        W59419  17.131  27.410   1.985 -0.1037  0.1545  0.0923
16326W        W59420  20.306  28.927   0.842  0.5077  0.1565 -0.0938
16327W        W59421  20.032  26.733   1.191  0.1475 -0.0720  0.1039
16328W        W59422  18.799  28.071   1.157 -0.2346  0.4063 -0.1274
16329W        W59423  20.642  28.016   2.258 -0.1107 -0.2298 -0.0534
16330W        W59424  20.008  27.961   2.630  0.0871  0.1935  0.2402
16331W        W59425  17.822  27.804   1.794  0.1973  0.3004  0.0689
16332W        W59426  21.560  25.808   3.270  0.0216  0.1437 -0.2751
16333W        W59427  18.075  27.781  31.747  0.2021 -0.1556  0.0481
16334W        W59428  20.087  25.871   0.620 -0.2809  0.1109  0.1569
16335W        W59429  19.185  26.904   0.417  0.3207  0.0698  0.0100
16336W        W59430  21.909  26.073   0.050  0.2019 -0.0455  0.1262
16337W        W59431  18.949  24.953   3.104 -0.2111 -0.3221  0.2507
16338W        W59432  20.256  28.518   2.053 -0.0780 -0.0474 -0.0067
16339W        W59433  19.832  26.927   2.441 -0.2859 -0.1843 -0.2441
16340W        W59434  21.661  27.272   3.287 -0.0112  0.1278 -0.0486
16341W        W59435  19.965  27.183   0.989 -0.1184  0.2526 -0.0838
16342W        W59436  20.341  26.284   2.462  0.1872  0.1013 -0.2558
16343W        W59437  19.144  27.882   3.131 -0.1620 -0.4015  0.1016
16344W        W59438  18.704  26.195   0.857  0.0568  0.0732  0.1261
16345W        W59439  22.572  30.149  31.617  0.0952  0.0195 -0.0813
16346W        W59440  21.702  28.214   0.167 -0.0502  0.1149 -0.3423
16347W        W59441  20.283  28.597   1.336  0.2903 -0.2385  0.1931
16348W        W59442  18.778  26.833   0.047 -0.2029 -0.0090 -0.2648
16349W        W59443  18.660  27.677   3.026 -0.0844  0.0460  0.0351
16350W        W59444  17.437  27.268   1.098  0.0654  0.0039  0.0111
16351W        W59445  20.193  27.184  31.780 -0.4835  0.1312 -0.0499
16352W        W59446  21.370  28.821   3.532  0.3222 -0.1526 -0.1169
16353W        W59447  17.059  28.247   3.474 -0.0341 -0.1900 -0.1021
16354W        W59448  21.594  27.465   1.778  0.3398  0.2629 -0.0736
16355W        W59449  18.977  27.514   2.306  0.0480  0.3268 -0.4072
16356W        W59450  20.780  28.656   1.752  0.1501 -0.3884 -0.0287
16357W        W59451  21.447  26.505  31.338 -0.1526  0.2064 -0.0971
16358W        W59452  21.416  26.311   0.950 -0.0399 -0.1960  0.0093
16359W        W59453  20.805  24.832   2.881 -0.0894 -0.1121  0.0595
16360W        W59454  18.207  27.468   0.603  0.1148 -0.2990  0.3365
16361W        W59455  19.652  26.998   0.081  0.0734 -0.1031 -0.1679
16362W        W59456  21.038  28.226   2.564 -0.0576  0.1217 -0.0068
16363W        W59457  20.371  28.092  31.869  0.1641  0.4133  0.2832
16364W        W59458  19.225  28.488   2.103  0.0063  0.2308 -0.1160
16365W        W59459  20.106  26.643   2.723  0.0139  0.0888  0.4128
16366W        W59460  20.922  27.627   2.893 -0.0771  0.1395 -0.2532
16367W        W59461  18.086  28.645  31.627  0.1506  0.2722 -0.1408
16368W        W59462  16.697  26.792   0.415  0.2195  0.1957  0.0545
16369W        W59463  18.068  26.240   0.353 -0.0638  0.0135  0.2333
16370W        W59464  19.378  26.622   2.295  0.1179 -0.0515  0.4239
16371W        W59465  20.358  27.563   2.123 -0.1612  0.0375 -0.0217
16372W        W59466  21.705  26.431   0.447  0.0501 -0.0800  0.3220
16373W        W59467  18.986  24.900   4.118  0.2056  0.4740  0.0682
16374W        W59468  21.109  26.757   1.902 -0.1293  0.1355  0.0137
16375W        W59469  17.482  28.090   1.495 -0.0252  0.1064 -0.1480
16376W        W59470  20.992  30.279  31.914 -0.2799 -0.0226 -0.0637
16377W        W59471  21.308  26.719   0.315 -0.0212 -0.1047 -0.3431
16378W        W59472  19.745  30.415   0.240 -0.1065 -0.2915 -0.0934
16379W        W59473  18.936  26.488   2.033  0.3610 -0.0185 -0.0647
16380W        W59474  17.635  26.140   0.607  0.4371  0.2532 -0.4672
16381W        W59475  19.725  26.537   4.138  0.0844 -0.0308 -0.1079
16382W        W59476  19.527  25.198   2.760 -0.3071  0.2202  0.0166
16383W        W59477  21.616  27.939   3.397  0.1938 -0.0489  0.0203
16384W        W59478  18.456  26.606   0.833 -0.1556 -0.1393 -0.0747
16385W        W59479  21.936  27.302   2.085  0.0220  0.0383 -0.0460
16386W        W59480  19.225  26.235   1.596 -0.2710  0.0343 -0.1865
16387W        W59481  18.152  29.179   1.912 -0.0296 -0.0196 -0.2591
16388W        W59482  20.374  26.332   4.048 -0.1379 -0.2404 -0.0644
16389W        W59483  20.302  29.828   0.833  0.0545 -0.2423 -0.2574
16390W        W59484  19.922  28.897   4.382  0.0526  0.2257  0.5110
16391W        W59485  20.707  27.306   1.381 -0.1941 -0.0294 -0.2255
16392W        W59486  20.188  25.884   1.590  0.0718 -0.2373  0.1191
16393W        W59487  18.219  26.323   1.193  0.0986 -0.0256  0.1022
16394W        W59488  20.048  29.451   0.915  0.1161 -0.1374 -0.0047
16395W        W59489  18.486  27.738   2.555 -0.0078  0.2456  0.1745
16396W        W59490  18.449  25.954   0.459 -0.0308  0.0967 -0.0898
16397W        W59491  20.042  28.122   3.418 -0.1506 -0.0460 -0.2191
16398W        W59492  22.092  28.460   1.105  0.1129 -0.0220  0.2729
16399W        W59493  19.309  27.110   3.136 -0.1859 -0.1094 -0.0136
16400W        W59494  20.591  26.081   2.066  0.1119 -0.1223  0.0600
16401W        W59495  22.186  26.380   3.437 -0.0774  0.3530 -0.3951
16402W        W59496  20.918  27.929   1.624 -0.3287 -0.1286  0.0034
16403W        W59497  19.919  24.402   0.475 -0.0416 -0.0633  0.2004
16404W        W59498  21.051  29.708   0.812 -0.0374  0.1720  0.1692
16405W        W59499  18.847  27.555   1.498  0.1445 -0.2270 -0.1900
16406W        W59500  17.119  27.493   0.759  0.1993  0.1827  0.0796
16407W        W59501  20.397  29.320   0.518 -0.0850 -0.3140  0.4256
16408W        W59502  21.763  27.003   2.399  0.2066  0.3439 -0.1111
16409W        W59503  18.238  27.043   2.908 -0.0551 -0.0280  0.0534
16410W        W59504  19.821  26.750   3.183  0.1338  0.5097  0.1021
16411W        W59505  18.692  27.272  31.656 -0.1524 -0.0425 -0.3255
16412W        W59506  19.822  27.219   3.273  0.0699  0.0692  0.1366
16413W        W59507  21.498  25.728   2.201  0.3818  0.0366  0.0217
16414W        W59508  21.855  26.075  30.059 -0.0097  0.0163  0.1621
16415W        W59509  20.632  26.698   2.602 -0.0914  0.0578  0.2164
16416W        W59510  21.359  27.919   0.389  0.2539 -0.0796  0.0639
16417W        W59511  21.278  26.845   0.909 -0.0930  0.0332 -0.0825
16418W        W59512  19.223  25.400   0.707 -0.1949 -0.1543  0.1526
16419W        W59513  17.234  29.099   3.852 -0.4690  0.2258  0.0382
16420W        W59514  21.419  27.998   2.860  0.1151  0.2567 -0.0319
16421W        W59515  19.084  27.324   1.871  0.0428 -0.0086  0.1042
16422W        W59516  20.067  26.269   0.911 -0.0671 -0.0092 -0.0160
16423W        W59517  22.030  28.997   1.899 -0.1402 -0.1211 -0.0655
16424W        W59518  18.486  28.184   1.558 -0.0863 -0.2466  0.0982
16425W        W59519  20.361  27.563   2.768 -0.1621  0.0195 -0.4356
16426W        W59520  22.437  28.040   1.368 -0.1602  0.1171 -0.1210
16427W        W59521  19.461  24.659   2.931  0.0224  0.0355  0.2340
16428W        W59522  18.717  27.578  31.234  0.2810 -0.1611 -0.0641
16429W        W59523  20.613  26.570   1.971 -0.0990  0.1581  0.2471
16430W        W59524  18.718  27.039   0.603  0.3426 -0.0246  0.1156
16431W        W59525  21.047  26.182   1.868  0.0040  0.0101  0.2578
16432W        W59526  21.338  26.214   3.093  0.0490  0.1620 -0.3646
16433W        W59527  19.841  26.414   2.375 -0.3386 -0.2111  0.1223
16434W        W59528  22.576  27.117   2.786  0.0722 -0.0006 -0.1745
16435W        W59529  21.275  27.699   0.847  0.2780 -0.0996 -0.0585
16436W        W59530  19.712  27.645   0.904  0.2018  0.1482 -0.0346
16437W        W59531  19.104  27.214  31.327  0.1499  0.2037 -0.0008
16438W        W59532  21.974  26.847   3.328  0.0818  0.0423 -0.0415
16439W        W59533  19.305  25.698   3.989  0.2000 -0.0638 -0.0867
16440W        W59534  18.142  27.636   2.185  0.2165 -0.0794 -0.0583
16441W        W59535  21.261  26.294   4.581 -0.0621 -0.3402  0.4918
16442W        W59536  20.737  26.768   1.518  0.1159  0.4105 -0.0899
16443W        W59537  19.927  25.900   3.111 -0.2822 -0.0258  0.0560
16444W        W59538  19.204  25.639   2.444  0.1390  0.0571  0.1202
16445W        W59539  18.808  29.146   2.527  0.0428 -0.0115  0.2702
16446W        W59540  18.500  26.464   0.366  0.1449 -0.3923  0.1539
16447W        W59541  19.783  24.403   2.046  0.0874 -0.2156 -0.0568
16448W        W59542  20.130  28.899   2.345  0.0811 -0.1670 -0.0118
16449W        W59543  19.659  27.230   0.583  0.0625  0.2493 -0.2337
16450W        W59544  20.891  26.605   3.885 -0.1088 -0.1276 -0.2350
16451W        W59545  19.751  28.177   0.773  0.5491 -0.3039  0.1026
16452W        W59546  20.555  25.363   2.732 -0.1422  0.2709  0.1430
16453W        W59547  18.016  28.455   1.620  0.2237 -0.3925 -0.0168
16454W        W59548  18.398  27.160   0.244 -0.4076  0.1930  0.1002
16455W        W59549  17.625  25.966   1.104 -0.0631  0.0764 -0.1027
16456W        W59550  20.816  25.619   0.981  0.3764  0.6670 -0.0790
16457W        W59551  21.421  27.176   0.504 -0.0983  0.1512 -0.0826
16458W        W59552  19.093  27.473   2.833 -0.1074 -0.0793 -0.0745
16459W        W59553  21.274  25.356   3.238 -0.2612 -0.1781  0.1015
16460W        W59554  18.015  28.822   1.068  0.1336 -0.0780 -0.0001
16461W        W59555  19.157  27.369   0.745  0.1814 -0.0004 -0.0855
16462W        W59556  20.933  26.082   0.872  0.2902  0.1592  0.3202
16463W        W59557  20.647  27.187   2.866 -0.0578  0.2438  0.2765
16464W        W59558  18.106  28.404   2.906 -0.5338  0.3536  0.2914
16465W        W59559  19.137  26.392  30.971 -0.0286 -0.0096 -0.2097
16466W        W59560  21.676  28.496   0.614 -0.0640  0.0732 -0.0002
16467W        W59561  18.800  27.289   1.036  0.1506 -0.0297  0.0719
16468W        W59562  18.863  28.951   2.055 -0.0736  0.1367 -0.1061
16469W        W59563  18.848  28.955   3.263 -0.1736  0.0219 -0.0201
16470W        W59564  19.211  26.192  31.409  0.2909  0.3089 -0.0755
16471W        W59565  19.286  29.133   2.984  0.1534 -0.0858  0.0363
16472W        W59566  20.105  26.266   4.518  0.0320 -0.1701 -0.0105
16473W        W59567  21.831  28.418   2.038 -0.3002 -0.3051  0.0788
16474W        W59568  19.433  26.118   2.363 -0.0445 -0.0451 -0.0820
16475W        W59569  19.499  25.843   1.372  0.0694  0.2254 -0.2657
16476W        W59570  21.126  27.004   1.330 -0.1292  0.3238 -0.1046
16477W        W59571  20.227  26.587   1.596  0.1151  0.0136 -0.1603
16478W        W59572  20.323  28.297   3.069  0.0107  0.1244 -0.3503
16479W        W59573  18.542  28.687   4.696 -0.1915 -0.0233  0.1443
16480W        W59574  19.726  25.568   2.237 -0.0703 -0.1553  0.0394
16481W        W59575  23.386  30.224   0.004 -0.1251  0.2482 -0.2008
16482W        W59576  21.009  27.057   2.410 -0.0366  0.2304 -0.0669
16483W        W59577  19.399  27.805   0.540 -0.1137  0.2182  0.1843
16484W        W59578  18.578  26.731   2.649  0.3916 -0.0946 -0.0702
16485W        W59579  18.483  28.011   0.744  0.0465 -0.1313  0.0672
16486W        W59580  20.773  25.244   3.280  0.0839 -0.4251  0.2082
16487W        W59581  19.656  26.828   3.686  0.3121 -0.1801  0.1462
16488W        W59582  20.005  27.302   0.257  0.1560 -0.2409 -0.0235
16489W        W59583  18.323  27.662   1.694  0.0421 -0.2723  0.3010
16490W        W59584  20.922  25.839   2.338  0.3003  0.2143 -0.0804
16491W        W59585  20.007  27.731  31.862 -0.0498  0.0523 -0.2097
16492W        W59586  19.701  25.936   1.854 -0.0283  0.1194  0.0060
16493W        W59587  22.567  26.122   4.051  0.3739  0.4468 -0.0813
16494W        W59588  21.352  29.496   1.155 -0.2796  0.4201 -0.0510
16495W        W59589  20.965  25.455   3.786  0.3045 -0.3118 -0.0240
16496W        W59590  19.251  26.820   1.821 -0.0075  0.0866 -0.2462
16497W        W59591  21.191  28.054   1.146 -0.0055  0.1290 -0.2777
16498W        W59592  20.767  26.250   2.732  0.1747  0.3850 -0.0137
16499W        W59593  22.259  28.409   3.904  0.2550 -0.4033 -0.0648
16500W        W59594  18.110  27.110   1.816  0.0750  0.0549  0.1559
16501W        W59595  21.018  27.313   0.902 -0.2041  0.0147  0.0737
16502W        W59596  21.133  26.238  31.879 -0.1389  0.0468 -0.0004
16503W        W59597  19.631  26.028   3.756  0.0508  0.0569  0.2238
16504W        W59598  21.495  28.213   1.670 -0.0261 -0.0531  0.0283
16505W        W59599  20.701  28.680  31.867  0.1036 -0.2539 -0.0742
16506W        W59600  21.606  27.231   1.013  0.0945 -0.1906  0.0747
16507W        W59601  19.508  27.818   2.814 -0.2610 -0.2923 -0.1254
16508W        W59602  21.330  26.337   1.474  0.1383 -0.1012  0.3234
16509W        W59603  20.745  28.676   0.843  0.4172  0.2413  0.0739
16510W        W59604  18.670  27.937   2.052  0.1086 -0.0154  0.0815
16511W        W59605  18.867  25.816   3.099 -0.1740  0.1435 -0.0330
16512W        W59606  20.948  26.392   2.300  0.0131 -0.0363 -0.0476
16513W        W59607  19.704  26.189   2.787  0.3931 -0.2190 -0.0231
16514W        W59608  20.977  25.827   4.761  0.2319  0.2609 -0.2714
16515W        W59609  21.349  26.785   3.382 -0.2786 -0.0823 -0.1776
16516W        W59610  19.940  25.699   3.615  0.0697 -0.1936 -0.2007
16517W        W59611  19.729  25.349   3.200 -0.1279 -0.0408  0.0527
16518W        W59612  19.025  28.513   3.221 -0.1629 -0.2717  0.2270
16519W        W59613  21.592  26.761   1.420  0.0734 -0.3785 -0.0829
16520W        W59614  21.194  26.177   3.982 -0.1350 -0.1673  0.1318
16521W        W59615  21.750  28.030   0.679  0.0888  0.1565 -0.0062
16522W        W59616  19.774  26.332   1.406 -0.4060  0.2440  0.2141
16523W        W59617  18.093  27.567   2.781 -0.0427 -0.1308 -0.1140
16524W        W59618  21.310  26.557   2.708  0.1458  0.0508  0.2046
16525W        W59619  19.927  26.489   0.168  0.0456 -0.1608  0.1280
16526W        W59620  21.351  26.115   2.501  0.4797  0.2243 -0.1639
16527W        W59621  20.194  28.379   0.823 -0.0136 -0.0460  0.0007
16528W        W59622  21.206  27.721   2.492 -0.3028  0.0836  0.0423
16529W        W59623  20.265  27.792   0.760  0.1571 -0.3218  0.1759
16530W        W59624  18.447  26.753   1.346 -0.2335 -0.1518 -0.1317
16531W        W59625  18.832  28.441   1.789 -0.0642 -0.2026  0.1633
16532W        W59626  19.013  26.403  31.855  0.1432 -0.1490  0.0242
16533W        W59627  20.721  26.949   0.985  0.0871 -0.1219 -0.0047
16534W        W59628  20.684  28.696   2.293  0.4115  0.0716 -0.4975
16535W        W59629  21.124  27.900   3.652  0.1092 -0.0337 -0.1072
16536W        W59630  19.870  25.439   0.060  0.0416  0.2910 -0.0151
16537W        W59631  21.984  24.817   3.639  0.0416  0.2010  0.2788
16538W        W59632  18.077  27.970   0.269 -0.3468  0.1517 -0.0729
16539W        W59633  19.979  25.261   2.519  0.1178 -0.1163  0.1453
16540W        W59634  18.736  28.448   2.241 -0.1677 -0.0629 -0.2605
16541W        W59635  17.717  27.367   2.076 -0.3347 -0.1744  0.4010
16542W        W59636  19.694  29.820   2.226  0.0601 -0.0118 -0.1462
16543W        W59637  21.218  24.558   1.950  0.0245 -0.0013 -0.1117
16544W        W59638  20.388  27.132   2.401 -0.3088 -0.2178 -0.2056
16545W        W59639  20.027  28.651   0.445  0.1967 -0.0736  0.0650
16546W        W59640  23.159  27.493   2.632  0.1280  0.0514 -0.1417
16547W        W59641  19.686  28.157   1.954  0.1910  0.1506 -0.3142
16548W        W59642  18.501  27.310   2.062 -0.2440  0.0854 -0.0434
16549W        W59643  19.542  27.818   4.245 -0.3937  0.2375 -0.2925
16550W        W59644  21.604  28.306   1.080 -0.1776  0.3161 -0.1704
16551W        W59645  19.959  27.662   1.749  0.4003 -0.2801 -0.0309
16552W        W59646  18.066  26.599   2.674 -0.1912  0.0160 -0.2015
16553W        W59647  20.020  27.748   3.089 -0.0281 -0.0475  0.1919
16554W        W59648  20.528  27.082   1.896 -0.0628  0.3555  0.1190
16555W        W59649  18.982  25.274   1.158  0.3220  0.0007  0.0536
16556W        W59650  21.039  28.916   0.203  0.0701 -0.2233  0.0177
16557W        W59651  17.820  29.031   2.963  0.3002 -0.2282  0.3645
16558W        W59652  19.381  27.155   1.089  0.1216 -0.3595 -0.1121
16559W        W59653  20.539  29.442   2.880  0.1800  0.0098 -0.0713
16560W        W59654  22.745  28.743   0.495 -0.2431 -0.0995 -0.3044
16561W        W59655  20.859  27.741   0.535 -0.4630 -0.3683 -0.1398
16562W        W59656  20.286  28.995   2.856  0.3493  0.2049  0.1294
16563W        W59657  19.993  25.740   1.153  0.3571  0.2624 -0.1824
16564W        W59658  17.654  28.562   3.052  0.1105  0.3282  0.3104
16565W        W59659  17.583  28.900  31.912  0.0450  0.2054  0.0817
16566W        W59660  22.762  29.781   0.053  0.3216  0.2431 -0.4094
16567W        W59661  19.848  28.667   1.132 -0.0705 -0.0422 -0.0195
16568W        W59662  22.547  29.550   3.088  0.3898 -0.1207  0.1919
16569W        W59663  20.254  25.417   0.399 -0.1308 -0.2483 -0.0485
16570W        W59664  20.915  27.098   0.462 -0.0440 -0.2097 -0.1907
16571W        W59665  22.240  26.566   0.735  0.0410 -0.1325 -0.1565
16572W        W59666  19.480  28.201   3.412  0.2049  0.1017 -0.3639
16573W        W59667  20.485  26.552   1.088  0.0657 -0.2024  0.3176
16574W        W59668  19.024  25.298   0.219 -0.2417  0.0344  0.3506
16575W        W59669  18.087  27.666   3.680  0.1211  0.0699  0.2455
16576W        W59670  21.657  26.649   4.727 -0.2668  0.0294 -0.1104
16577W        W59671  17.748  28.171   2.093 -0.1434  0.0205 -0.0846
16578W        W59672  21.133  27.491   0.222  0.0461  0.0428  0.1607
16579W        W59673  18.679  26.884   1.810 -0.0210  0.0410 -0.2740
16580W        W59674  19.693  26.522   1.901  0.3357 -0.0732  0.1131
16581W        W59675  23.647  25.785   3.019 -0.0073  0.0128 -0.1097
16582W        W59676  21.262  27.593   1.377 -0.0891  0.1427 -0.1538
16583W        W59677  21.603  26.900   2.885  0.0613 -0.0816 -0.0512
16584W        W59678  19.465  28.903   1.995 -0.0498  0.0395  0.2299
16585W        W59679  20.110  29.764   1.865  0.2397  0.0837 -0.2617
16586W        W59680  18.554  28.634   2.728 -0.1542 -0.1967  0.2257
16587W        W59681  18.266  25.666   1.909 -0.0290 -0.0625  0.0578
16588W        W59682  22.317  25.929   1.970  0.2913  0.0373  0.1417
16589W        W59683  18.777  27.148   3.059 -0.2817 -0.1245 -0.0619
16590W        W59684  20.870  26.254   5.242 -0.1730 -0.2700  0.0443
16591W        W59685  20.214  26.700   2.218  0.2257  0.1175  0.2096
16592W        W59686  22.263  25.815   2.691  0.1361 -0.0574  0.0600
16593W        W59687  20.195  27.092   1.470 -0.1218  0.2197  0.0204
16594W        W59688  18.095  27.218   2.403 -0.0153  0.1936  0.2417
16595W        W59689  20.094  27.178  31.277  0.0431 -0.1503 -0.0120
16596W        W59690  21.989  28.273   4.375  0.1417 -0.0301  0.3316
16597W        W59691  20.737  27.735   1.127  0.2421  0.0806 -0.1409
16598W        W59692  20.910  28.403   4.232 -0.0464 -0.1420  0.0940
16599W        W59693  19.440  26.426   3.275  0.1905 -0.0130  0.3137
16600W        W59694  20.269  24.998   0.698 -0.1424  0.0103 -0.1320
16601W        W59695  18.380  27.765   1.144 -0.2038  0.1659  0.1434
16602W        W59696  19.027  26.494   2.600  0.1120  0.0454 -0.2659
16603W        W59697  21.892  28.156   3.051 -0.1963 -0.0392 -0.0457
16604W        W59698  18.462  25.146   1.969  0.0496  0.0763 -0.0383
16605W        W59699  22.177  29.758  31.398 -0.0136  0.2424 -0.0301
16606W        W59700  22.444  27.466   2.127 -0.0409 -0.2703 -0.2245
16607W        W59701  19.293  29.846  31.824 -0.1422  0.1480 -0.0333
16608W        W59702  19.441  26.742   1.295  0.0753 -0.1201  0.0400
16609W        W59703  21.220  28.721   2.366 -0.3824 -0.1462  0.1023
16610W        W59704  19.648  25.683   2.748 -0.0805 -0.2383 -0.1421
16611W        W59705  19.906  29.194   1.969 -0.0211 -0.1033 -0.0041
16612W        W59706  21.524  29.189   1.987 -0.1158 -0.0301 -0.0674
16613W        W59707  20.951  26.498   1.155 -0.0281  0.0554  0.0069
16614W        W59708  19.738  26.974   1.630 -0.0010  0.1917 -0.1387
16615W        W59709  19.546  28.423   1.495 -0.0270  0.0327 -0.0670
16616W        W59710  23.207  26.891   1.822  0.2561  0.2024 -0.0095
16617W        W59711  22.313  28.072   1.856 -0.0110 -0.0760 -0.1986
16618W        W59712  19.582  28.828   0.610  0.1054  0.0632 -0.0257
16619W        W59713  21.633  26.298   3.648 -0.0697 -0.0973 -0.0768
16620W        W59714  22.458  28.582   3.140  0.0031  0.0594 -0.1346
16621W        W59715  20.111  28.983   3.937 -0.1311  0.1731 -0.0373
16622W        W59716  18.333  27.073   0.914  0.2212  0.2829 -0.4179
16623W        W59717  21.579  28.467   2.727 -0.2743 -0.3016 -0.0034
16624W        W59718  19.354  27.440   1.483 -0.2767  0.0217 -0.2363
16625W        W59719  19.888  30.062   0.568 -0.1209  0.2182 -0.0077
16626W        W59720  21.850  27.837   1.957 -0.0031  0.1670 -0.2183
16627W        W59721  19.129  25.782   1.078  0.2955 -0.2174 -0.0437
16628W        W59722  21.914  30.130   0.996  0.0573 -0.0540  0.3099
16629W        W59723  19.905  24.895   3.009  0.2356  0.3194  0.2330
16630W        W59724  21.805  26.145   2.258 -0.1225  0.2706 -0.0919
16631W        W59725  19.979  25.133   1.141  0.2534  0.1472 -0.2938
16632W        W59726  20.311  27.330   3.228  0.0967  0.1638  0.2199
16633W        W59727  17.248  26.865   0.093  0.0090  0.1008  0.2869
16634W        W59728  19.438  28.984  31.608 -0.2131 -0.0976 -0.1797
16635W        W59729  17.960  27.443   1.052  0.1898 -0.0440  0.1095
16636W        W59730  20.809  25.045   4.052  0.0360 -0.0069 -0.2265
16637W        W59731  18.725  25.371   3.276  0.2024  0.3858 -0.2053
16638W        W59732  19.477  27.592   2.065  0.2211  0.0466 -0.1277
16639W        W59733  17.936  25.241   0.413  0.0769  0.1693 -0.0185
16640W        W59734  22.221  28.209  31.938 -0.0868  0.3305  0.4209
16641W        W59735  18.903  27.002   2.226  0.0914 -0.1051 -0.1956
16642W        W59736  18.029  26.115   1.680  0.2391  0.1220  0.0936
16643W        W59737  19.874  28.272  31.952  0.0427  0.0876 -0.0871
16644W        W59738  21.097  29.082   1.028  0.0817  0.1257 -0.0572
16645W        W59739  20.547  26.218   1.543  0.1026  0.2531 -0.0632
16646W        W59740  22.689  28.705   4.418  0.0789 -0.3284 -0.1993
16647W        W59741  18.046  29.012   0.103  0.1937 -0.1576  0.2584
16648W        W59742  20.040  27.162   1.990  0.0937  0.0861  0.0512
16649W        W59743  20.435  25.620   3.299 -0.2557 -0.1503  0.1352
16650W        W59744  18.740  25.685  29.766 -0.0310  0.3893  0.0632
16651W        W59745  20.667  25.692   1.786  0.3150 -0.0369  0.0706
16652W        W59746  20.037  28.218   1.586 -0.0245 -0.1808 -0.3945
16653W        W59747  20.431  29.021  31.521  0.0225  0.1331 -0.3901
16654W        W59748  20.329  28.366   2.523  0.2986 -0.2235  0.0644
16655W        W59749  19.700  29.160   1.081  0.1200 -0.1109 -0.0610
16656W        W59750  17.899  24.702   2.795 -0.1866 -0.2147  0.1038
16657W        W59751  21.788  28.868   1.018  0.2885 -0.0800  0.0139
16658W        W59752  17.804  29.539   2.624 -0.1277  0.2228  0.0638
16659W        W59753  22.404  27.708  31.712  0.1148 -0.1304 -0.1536
16660W        W59754  22.141  24.317   0.864 -0.1218  0.0691 -0.2217
16661W        W59755  20.857  27.570   1.934  0.1262 -0.2394  0.1098
16662W        W59756  19.041  25.276   2.763 -0.1743  0.0840  0.0089
16663W        W59757  20.145  28.016   2.039  0.1150  0.1152 -0.0763
16664W        W59758  21.029  28.253   2.063  0.2047 -0.0043  0.1596
16665W        W59759  18.001  25.700   0.224 -0.1470  0.0188  0.3959
16666W        W59760  20.419  25.430   1.353  0.5235 -0.1851 -0.1632
16667W        W59761  20.796  28.377   1.261 -0.0530  0.2019  0.3220
16668W        W59762  18.571  27.214   2.568 -0.3977 -0.1298 -0.2575
16669W        W59763  19.223  26.337   0.944 -0.0476  0.0120  0.0845
16670W        W59764  19.470  28.198   3.958 -0.0697  0.3847  0.0896
16671W        W59765  20.487  28.215   1.739  0.0907  0.1295  0.1781
16672W        W59766  20.520  27.778   3.233  0.0574 -0.0186  0.0387
16673W        W59767  20.893  27.856  31.954  0.1828 -0.0812  0.1833
16674W        W59768  21.809  28.384  31.711  0.0052 -0.2691 -0.1649
16675W        W59769  20.030  29.556   2.987 -0.2033 -0.0178  0.0604
16676W        W59770  21.973  28.394   5.084 -0.1382  0.2610  0.0751
16677W        W59771  18.658  28.160   2.829  0.0295  0.1439  0.2429
16678W        W59772  21.814  27.635   3.032 -0.1956  0.1374  0.0734
16679W        W59773  19.025  24.713   2.605 -0.0927  0.0294  0.4506
16680W        W59774  18.878  25.817   0.122  0.1187 -0.0132 -0.1532
16681W        W59775  20.439  26.879   0.306  0.3985  0.3132 -0.0549
16682W        W59776  20.722  27.539   2.424 -0.2055 -0.1353 -0.2867
16683W        W59777  18.482  26.423   1.712  0.1871  0.2779  0.3074
16684W        W59778  19.683  25.148   1.953 -0.3189  0.4072  0.1821
16685W        W59779  18.221  29.235   2.724 -0.0193  0.1766 -0.3623
16686W        W59780  21.794  26.423   3.095 -0.0810 -0.0024  0.1885
16687W        W59781  18.504  26.747   7.423  0.0923  0.2566 -0.0628
16688W        W59782  18.126  25.970   5.872  0.3431  0.0599  0.0996
16689W        W59783  20.296  26.199   5.358  0.0472  0.1653 -0.0001
16690W        W59784  22.666  28.109   3.240 -0.2306 -0.0214 -0.4939
16691W        W59785  19.400  25.186   4.099 -0.2367  0.0955  0.3134
16692W        W59786  21.634  29.096   4.792 -0.3115 -0.3110  0.0518
16693W        W59787  18.730  25.836   7.021  0.1051 -0.3405 -0.2750
16694W        W59788  20.521  28.888   7.139  0.0618 -0.4445  0.0533
16695W        W59789  21.702  28.426   6.623  0.0699 -0.0940 -0.0689
16696W        W59790  20.659  28.031   2.774 -0.0815  0.0098  0.0501
16697W        W59791  20.131  25.963   6.339 -0.1875 -0.2433 -0.0457
16698W        W59792  18.583  27.964   6.335  0.0371 -0.2511 -0.2126
16699W        W59793  18.906  25.786   4.296 -0.2619 -0.0331  0.0829
16700W        W59794  18.677  25.218   5.478 -0.1605 -0.0834 -0.2440
16701W        W59795  21.072  24.305   7.487 -0.0496  0.0072  0.0759
16702W        W59796  20.181  27.093   3.619 -0.6523  0.0597  0.0438
16703W        W59797  18.715  25.698   6.487 -0.0043 -0.1123 -0.1616
16704W        W59798  19.923  26.363   5.090 -0.0562 -0.0810  0.1107
16705W        W59799  20.231  28.283   4.871 -0.0834  0.2100 -0.0579
16706W        W59800  18.814  24.717   5.866 -0.1618  0.2403 -0.1640
16707W        W59801  20.195  25.167   7.426 -0.3471  0.1971  0.0796
16708W        W59802  19.899  27.500   2.351 -0.0909  0.1521  0.2251
16709W        W59803  18.075  28.009   2.514  0.1933  0.3873  0.2313
16710W        W59804  17.201  26.508   7.321  0.0765  0.2324 -0.2914
16711W        W59805  19.400  26.631   6.278 -0.3511  0.1787 -0.1207
16712W        W59806  20.460  27.974   5.333 -0.0712 -0.1744  0.0260
16713W        W59807  21.027  26.765   6.193 -0.1238 -0.0109  0.0101
16714W        W59808  20.955  28.810   5.413 -0.2516  0.3600 -0.1863
16715W        W59809  19.550  29.705   6.339 -0.0420  0.0410 -0.1659
16716W        W59810  20.485  25.846   6.672  0.0113 -0.0999  0.1511
16717W        W59811  17.896  27.465   4.228 -0.1546  0.1661 -0.1569
16718W        W59812  18.256  29.565   5.109  0.0049  0.0851 -0.2752
16719W        W59813  20.118  27.115   2.814  0.2971 -0.2229  0.1732
16720W        W59814  22.083  27.560   6.402 -0.2014  0.1125 -0.0907
16721W        W59815  21.355  29.545   7.648 -0.0778  0.0310  0.1272
16722W        W59816  19.408  28.321   6.632 -0.1121 -0.1281 -0.1415
16723W        W59817  18.497  28.567   4.127  0.2020  0.2728  0.1431
16724W        W59818  19.778  29.181   6.506  0.0347 -0.1462  0.2514
16725W        W59819  18.690  28.442   6.583 -0.0090  0.2403  0.1708
16726W        W59820  19.274  27.074   7.144 -0.1311 -0.4701  0.0678
16727W        W59821  20.289  28.311   5.680 -0.0256  0.2180 -0.0943
16728W        W59822  19.554  28.722   2.668 -0.3212 -0.3855 -0.3390
16729W        W59823  19.791  28.936   5.014  0.1151  0.3746 -0.1274
16730W        W59824  19.063  26.877   7.537 -0.1793 -0.1833 -0.2459
16731W        W59825  19.934  26.544   6.100 -0.1937  0.1673  0.2938
16732W        W59826  21.593  26.083   8.807 -0.1494 -0.0110 -0.0539
16733W        W59827  19.497  28.749   5.867 -0.2884  0.0717 -0.2537
16734W        W59828  21.898  27.456   5.197  0.3620 -0.2161 -0.1473
16735W        W59829  19.508  26.658   2.796  0.3526 -0.2011 -0.2563
16736W        W59830  20.440  26.349   4.894 -0.0648  0.1387  0.0863
16737W        W59831  19.579  26.352   4.607 -0.1906  0.0444  0.0346
16738W        W59832  19.143  28.335   5.417 -0.1737  0.0078  0.2348
16739W        W59833  18.792  24.752   6.361 -0.2784 -0.1082 -0.1075
16740W        W59834  20.705  26.516   7.765 -0.0827 -0.0200  0.0598
16741W        W59835  20.801  27.186   4.342 -0.1765 -0.2559 -0.1015
16742W        W59836  21.278  25.815   6.533 -0.3541 -0.0787 -0.3400
16743W        W59837  19.348  29.978   6.688  0.1267  0.1882  0.0449
16744W        W59838  19.984  27.615   6.969 -0.1148 -0.1406 -0.1318
16745W        W59839  19.798  28.541   3.665  0.1802 -0.1520 -0.1491
16746W        W59840  20.659  28.925   4.959 -0.0132  0.0805 -0.1242
16747W        W59841  21.186  27.481   3.355  0.2101  0.0552  0.0571
16748W        W59842  18.677  27.261   3.813  0.0936 -0.3063 -0.1082
16749W        W59843  18.266  27.342   6.968 -0.0648 -0.0482  0.1309
16750W        W59844  17.652  26.153   7.281  0.0207  0.1314  0.1486
16751W        W59845  19.004  25.129   3.643 -0.1716 -0.0810 -0.1701
16752W        W59846  21.760  28.211   7.508  0.0601 -0.4167 -0.2388
16753W        W59847  17.527  27.457   8.100  0.2819 -0.1033  0.0171
16754W        W59848  20.965  25.102   6.353 -0.2305 -0.0095  0.1677
16755W        W59849  18.668  26.857   5.715  0.2456 -0.0508 -0.0030
16756W        W59850  20.863  29.136   6.182  0.0281 -0.3298 -0.1930
16757W        W59851  20.392  26.811   3.108  0.2416  0.0970  0.2863
16758W        W59852  20.090  24.359   5.261  0.0934 -0.2851 -0.1262
16759W        W59853  19.620  25.654   5.862  0.0936  0.3841 -0.1531
16760W        W59854  18.985  27.450   3.434  0.4363 -0.2891 -0.0710
16761W        W59855  18.835  27.982   4.026 -0.1055  0.0276 -0.0339
16762W        W59856  20.778  27.269   6.183 -0.1501  0.2595  0.2531
16763W        W59857  21.785  26.892   4.265 -0.1582 -0.2622  0.0252
16764W        W59858  18.754  28.357   6.008 -0.2501 -0.2529 -0.0796
16765W        W59859  20.469  26.521   6.155 -0.0263 -0.0984  0.0469
16766W        W59860  19.582  26.783   6.821 -0.1146  0.0812  0.0775
16767W        W59861  18.452  28.283   4.963 -0.0146  0.0497 -0.2614
16768W        W59862  17.398  26.548   4.201 -0.0554  0.1339  0.0263
16769W        W59863  18.999  27.927   2.574 -0.0895  0.0123 -0.1923
16770W        W59864  18.298  25.608   5.476 -0.0335  0.3907  0.1236
16771W        W59865  18.327  27.861   7.501 -0.1833  0.1165  0.1166
16772W        W59866  21.420  25.694   2.781 -0.0843 -0.0142  0.1072
16773W        W59867  19.089  25.458   6.889 -0.3157  0.0462 -0.2172
16774W        W59868  20.094  24.688   4.366  0.1606 -0.1275  0.2963
16775W        W59869  18.873  27.225   4.313  0.4318 -0.0470 -0.1038
16776W        W59870  21.814  29.163   4.129  0.1270  0.3903 -0.1307
16777W        W59871  22.526  27.511   3.934 -0.2120  0.0847 -0.0760
16778W        W59872  20.110  27.810   4.159 -0.0344  0.0023  0.4172
16779W        W59873  18.242  26.540   6.453  0.4397 -0.1015  0.0988
16780W        W59874  19.696  24.593   5.989  0.1253  0.3619 -0.0417
16781W        W59875  20.999  24.924   7.288  0.0004  0.0519  0.0380
16782W        W59876  17.831  26.411   5.616 -0.1871  0.2780  0.0411
16783W        W59877  20.868  26.855   7.198  0.0633  0.1023 -0.1406
16784W        W59878  17.713  24.605   3.668 -0.0269  0.3193 -0.1403
16785W        W59879  21.231  27.609   5.108  0.0432  0.1567  0.0603
16786W        W59880  18.250  26.220   5.434 -0.1841  0.2336 -0.0319
16787W        W59881  18.902  26.990   4.802  0.0520 -0.1132  0.3023
16788W        W59882  21.666  26.485   6.817 -0.2637 -0.0514 -0.2940
16789W        W59883  20.208  29.143   3.405 -0.0096  0.1974  0.1126
16790W        W59884  20.762  28.336   6.396  0.2284  0.1580 -0.1894
16791W        W59885  21.649  28.497   4.745 -0.0664  0.0703  0.0741
16792W        W59886  18.736  27.748   7.255 -0.2877 -0.3226  0.0457
16793W        W59887  18.796  25.720   3.686 -0.4515 -0.3461  0.0382
16794W        W59888  18.349  28.671   5.757 -0.2724 -0.1159  0.1501
16795W        W59889  18.931  28.031   5.026 -0.1498 -0.3330 -0.0206
16796W        W59890  19.315  27.050   4.105 -0.1158 -0.2211 -0.2677
16797W        W59891  20.776  28.414   5.740  0.1683 -0.1687  0.0959
16798W        W59892  20.346  25.850   4.975  0.2469  0.2172 -0.5642
16799W        W59893  17.709  28.144   6.516  0.1345 -0.1908  0.1284
16800W        W59894  20.621  26.025   6.097  0.1143 -0.0849  0.0809
16801W        W59895  20.113  27.672   5.535  0.0346  0.1928 -0.1310
16802W        W59896  19.900  27.385   3.943  0.1406  0.0006 -0.0703
16803W        W59897  18.795  26.257   4.031  0.1339  0.0018 -0.0861
16804W        W59898  20.456  28.678   3.453 -0.0751 -0.1499 -0.1461
16805W        W59899  18.093  26.650   3.649  0.0073  0.0698 -0.4894
16806W        W59900  19.810  26.837   4.489  0.3771 -0.0912 -0.4846
16807W        W59901  19.454  27.678   4.817  0.1477  0.1523  0.0297
16808W        W59902  20.615  26.640   5.311  0.1467 -0.1905  0.1918
16809W        W59903  19.518  27.321   6.764 -0.1502 -0.1317 -0.3678
16810W        W59904  20.141  26.621   7.991 -0.2196 -0.1819  0.0525
16811W        W59905  18.680  26.651   3.577 -0.0182 -0.1978  0.1426
16812W        W59906  18.910  27.947   5.624  0.1332  0.1770 -0.0500
16813W        W59907  20.300  25.237   4.247 -0.2232  0.1057 -0.1357
16814W        W59908  22.268  26.929   4.588  0.2023 -0.0083  0.1616
16815W        W59909  20.522  27.672   7.560 -0.1101  0.1109 -0.2816
16816W        W59910  21.258  28.374   3.779 -0.2510  0.3103  0.3069
16817W        W59911  20.494  26.655   4.418 -0.1028  0.1811  0.0884
16818W        W59912  20.591  26.997   3.914 -0.0627 -0.0579  0.0687
16819W        W59913  18.546  26.273   7.203 -0.0827  0.0509 -0.1985
16820W        W59914  20.937  27.608   4.581 -0.1226  0.0409  0.0800
16821W        W59915  19.610  27.797   6.330  0.2972 -0.1129  0.3224
16822W        W59916  19.375  27.290   4.538 -0.2254 -0.0912 -0.0307
16823W        W59917  21.002  27.546   4.079 -0.0308 -0.1196 -0.2658
16824W        W59918  18.549  27.563   5.964 -0.2947 -0.0824  0.0059
16825W        W59919  20.480  27.330   8.013  0.1947 -0.1160  0.0413
16826W        W59920  21.625  28.756   5.745 -0.0099  0.4620  0.0024
16827W        W59921  19.534  25.164   6.105 -0.2259  0.2463  0.0258
16828W        W59922  19.469  27.356   3.658 -0.1884 -0.2244 -0.0048
16829W        W59923  18.976  25.569   5.759 -0.0995 -0.0443 -0.3730
16830W        W59924  19.538  28.692   4.121 -0.0270  0.0136  0.2002
16831W        W59925  20.571  26.889   5.753 -0.2003  0.0458  0.0342
16832W        W59926  21.131  25.428   5.529 -0.2920  0.0122  0.2823
16833W        W59927  19.859  24.953   7.109  0.0953  0.1119 -0.1426
16834W        W59928  21.297  26.555   7.289  0.2906  0.0001 -0.0944
16835W        W59929  20.802  27.991   6.785 -0.0221  0.2856  0.0582
16836W        W59930  20.140  26.099   5.863  0.2125 -0.3233 -0.0159
16837W        W59931  20.069  26.545   3.625  0.1053  0.1944 -0.1756
16838W        W59932  20.830  24.568   6.244 -0.0077 -0.1947  0.4193
16839W        W59933  19.622  26.088   6.175 -0.1685 -0.0941 -0.0721
16840W        W59934  19.638  28.461   7.359 -0.1147  0.5263  0.5868
16841W        W59935  19.936  28.251   8.103 -0.0853  0.0354 -0.0761
16842W        W59936  20.625  27.957   4.891  0.2009  0.1002 -0.0340
16843W        W59937  20.452  25.897   9.286 -0.0596  0.0316 -0.4485
16844W        W59938  20.125  25.459   2.935  0.1557 -0.2612  0.0498
16845W        W59939  18.246  27.985   3.193  0.1033 -0.2883  0.0014
16846W        W59940  19.324  26.790   4.562 -0.2240 -0.0717  0.1115
16847W        W59941  19.538  25.389   6.646  0.1134  0.0504 -0.2766
16848W        W59942  19.454  28.783   5.373  0.0887 -0.1150 -0.2448
16849W        W59943  20.004  28.677   3.232 -0.0111 -0.1937  0.0829
16850W        W59944  19.810  26.509   7.577  0.0815  0.4056 -0.2261
16851W        W59945  19.615  27.754   3.301  0.2546  0.0623  0.1604
16852W        W59946  20.490  25.035   5.943  0.1231  0.4681  0.0902
16853W        W59947  18.287  28.782   5.252 -0.0915 -0.1805 -0.1256
16854W        W59948  18.304  26.342   4.915 -0.1205  0.0996 -0.5185
16855W        W59949  16.968  26.854   3.765 -0.2899  0.0532  0.3026
16856W        W59950  20.079  27.070   5.823  0.3267  0.1074  0.2512
16857W        W59951  20.511  28.064   4.403 -0.0458  0.0563  0.0687
16858W        W59952  17.587  25.024   5.401 -0.0752 -0.0164 -0.0850
16859W        W59953  20.292  25.539   6.032 -0.3470  0.0349 -0.1096
16860W        W59954  16.694  27.219   4.857  0.1627 -0.3144 -0.0526
16861W        W59955  20.654  27.305   6.665 -0.2927 -0.1029 -0.0167
16862W        W59956  21.090  26.273   3.510  0.1142 -0.0561  0.0035
16863W        W59957  20.307  28.074   6.848  0.1220 -0.0133  0.0903
16864W        W59958  19.175  28.001   7.283  0.2545  0.0399  0.2687
16865W        W59959  17.754  26.346   4.678 -0.1070  0.0996 -0.3323
16866W        W59960  20.768  25.438   5.837 -0.0652 -0.1655 -0.0226
16867W        W59961  19.821  26.935   6.361 -0.0357  0.3458  0.0651
16868W        W59962  19.773  27.899   3.735  0.0690  0.0079 -0.1439
16869W        W59963  20.215  29.645   6.923  0.2379  0.0123  0.1432
16870W        W59964  19.611  26.766   5.020 -0.0768  0.0052  0.1205
16871W        W59965  16.442  28.389   6.288  0.0682 -0.1825 -0.0534
16872W        W59966  18.088  26.457   7.353  0.0168 -0.0500 -0.2407
16873W        W59967  21.119  28.810   5.909  0.2921  0.4469 -0.1438
16874W        W59968  20.177  26.579   5.656 -0.0103  0.0225 -0.1358
16875W        W59969  19.536  25.631   4.464  0.0091  0.2080  0.1111
16876W        W59970  20.336  27.004   6.236 -0.0437  0.1363 -0.2202
16877W        W59971  20.647  26.823   6.662 -0.2889 -0.2203  0.1645
16878W        W59972  20.162  26.714   6.633 -0.1282  0.2987  0.0529
16879W        W59973  18.068  28.024   7.905  0.1625  0.0855  0.1256
16880W        W59974  19.434  24.814   4.844 -0.0351  0.0368 -0.0759
16881W        W59975  23.833  30.400   4.814  0.0010 -0.0077 -0.0351
16882W        W59976  19.581  27.407   7.676 -0.0404 -0.1188 -0.0135
16883W        W59977  19.615  27.335   2.762  0.1394  0.1745  0.2177
16884W        W59978  17.917  26.943   7.263 -0.0829  0.0390  0.0836
16885W        W59979  19.497  28.184   5.038  0.0305  0.2833  0.3228
16886W        W59980  20.484  25.241   6.395 -0.1685  0.3028  0.0685
16887W        W59981  18.283  27.394   6.403 -0.2724 -0.0623 -0.2257
16888W        W59982  19.100  27.488   3.975  0.0782  0.0334  0.2720
16889W        W59983  18.187  27.548   7.984 -0.0205  0.4264 -0.0638
16890W        W59984  20.718  25.931   3.903 -0.0370 -0.0189 -0.3147
16891W        W59985  20.548  28.182   3.496  0.1373 -0.2112  0.0339
16892W        W59986  18.711  25.189   5.961  0.0923  0.0252  0.0630
16893W        W59987  22.511  26.099   6.806 -0.1809  0.0271  0.2315
16894W        W59988  19.515  28.193   2.458 -0.0548 -0.1324  0.4274
16895W        W59989  21.831  23.935   7.122  0.1415 -0.0844 -0.1766
16896W        W59990  19.244  25.190   5.549 -0.2017 -0.0315 -0.2345
16897W        W59991  22.006  28.755   4.319 -0.1116  0.3214 -0.5389
16898W        W59992  18.550  25.889   4.699 -0.0139 -0.0172  0.0424
16899W        W59993  20.168  30.155   6.933  0.0973 -0.2026  0.1720
16900W        W59994  18.365  26.943   6.157  0.0915 -0.2127  0.3296
16901W        W59995  19.939  25.968   2.385  0.3144  0.1107 -0.0396
16902W        W59996  18.440  25.820   3.999  0.1593 -0.1071 -0.1650
16903W        W59997  19.770  27.437   5.832 -0.2789  0.1072 -0.2238
16904W        W59998  21.288  28.417   5.593  0.2063  0.1849  0.1882
16905W        W59999  17.959  28.239   3.723 -0.0584 -0.1621  0.0856
16906W        W60000  20.513  25.733   7.735  0.1970 -0.0513  0.0642
16907W        W60001  18.816  27.212   6.290  0.0093  0.0808 -0.1184
16908W        W60002  19.420  27.871   5.692 -0.1861 -0.2084  0.2119
16909W        W60003  20.541  26.520   3.469 -0.2249 -0.2331  0.1036
16910W        W60004  18.869  27.150   5.325  0.1362 -0.1165 -0.2255
16911W        W60005  20.137  25.508   6.789 -0.1922  0.0415 -0.0420
16912W        W60006  20.549  27.889   5.823 -0.2700  0.3855 -0.2288
16913W        W60007  21.077  26.665   5.537  0.2204 -0.0757 -0.1169
16914W        W60008  21.807  25.865   8.064 -0.2849  0.3189 -0.0193
16915W        W60009  21.189  25.638   7.456  0.1833  0.1070  0.1151
16916W        W60010  19.977  26.491   7.078  0.2283 -0.0751  0.0372
16917W        W60011  18.309  25.973   6.811 -0.1735  0.1758  0.0380
16918W        W60012  21.226  28.527   7.430 -0.0247 -0.1642 -0.0425
16919W        W60013  21.126  27.072   3.009  0.0303 -0.0196  0.0942
16920W        W60014  21.789  26.250   7.416 -0.1482 -0.1304  0.2822
16921W        W60015  19.899  27.452   4.429 -0.1441  0.0684  0.0467
16922W        W60016  20.455  27.471   4.081  0.1098  0.1223 -0.1047
16923W        W60017  18.929  26.444   5.855 -0.2211 -0.4271  0.0034
16924W        W60018  21.005  27.711   7.385 -0.2427  0.0095 -0.0328
16925W        W60019  18.967  26.623   3.069 -0.1365 -0.0478 -0.2091
16926W        W60020  21.344  24.988   6.853  0.0588  0.1745  0.1480
16927W        W60021  20.603  28.994   3.790 -0.1507 -0.0903  0.2850
16928W        W60022  20.709  27.495   5.049 -0.2217 -0.0329  0.1532
16929W        W60023  20.865  25.715   5.248  0.0299  0.0304 -0.0113
16930W        W60024  19.604  26.952   5.895  0.0086 -0.0628 -0.0600
16931W        W60025  19.524  29.165   6.962 -0.0451 -0.2669 -0.2262
16932W        W60026  18.591  26.768   4.458 -0.2011  0.2516  0.3029
16933W        W60027  20.937  26.604   3.061 -0.2676  0.0068  0.0363
16934W        W60028  20.011  27.976   5.901 -0.0446 -0.0126 -0.1060
16935W        W60029  21.224  26.515   7.864  0.1441 -0.0887 -0.0158
16936W        W60030  20.175  25.851   4.058  0.2263  0.3140  0.0239
16937W        W60031  21.897  25.855   7.098 -0.0073 -0.1683  0.1386
16938W        W60032  19.017  27.865   4.439  0.1906 -0.0994  0.0909
16939W        W60033  20.798  24.839   4.936  0.1006  0.2047 -0.0476
16940W        W60034  18.967  28.752   5.177  0.1650  0.0904  0.1638
16941W        W60035  17.135  26.847   6.885  0.0816 -0.0474 -0.0467
16942W        W60036  19.285  28.825   6.673 -0.1626 -0.2241  0.0535
16943W        W60037  19.806  24.733   5.479 -0.0203 -0.1085 -0.0894
16944W        W60038  20.815  26.361   7.062  0.0197 -0.0412 -0.0623
16945W        W60039  19.645  28.206   6.130  0.1425 -0.1497  0.0235
16946W        W60040  20.037  27.470   8.246  0.1717 -0.0429  0.1354
16947W        W60041  19.877  28.164   6.571  0.1792  0.0845 -0.2776
16948W        W60042  18.998  26.105   6.229  0.0325  0.2141  0.2960
16949W        W60043  19.205  28.564   6.185 -0.0657 -0.0908 -0.1267
16950W        W60044  20.590  28.457   5.155 -0.2018  0.4848 -0.3754
16951W        W60045  16.970  29.679   5.515 -0.0725  0.3505 -0.1039
16952W        W60046  18.107  26.000   7.521  0.3486  0.4065 -0.0008
16953W        W60047  20.208  28.551   6.460  0.1323 -0.3058 -0.2062
16954W        W60048  20.594  27.002   4.850  0.0893  0.1224  0.0904
16955W        W60049  18.357  25.369   3.726 -0.2473  0.0116 -0.0279
16956W        W60050  20.207  27.668   3.646 -0.2797 -0.1058  0.1608
16957W        W60051  17.853  27.961   7.017 -0.0189  0.0635 -0.2415
16958W        W60052  19.115  26.918   5.981 -0.0994  0.0239  0.3869
16959W        W60053  17.122  29.046   4.938 -0.2521 -0.0665 -0.1098
16960W        W60054  20.717  28.042   3.912 -0.0260 -0.0764  0.1122
16961W        W60055  20.744  27.518   3.640 -0.4815 -0.1625 -0.0933
16962W        W60056  20.940  29.487   5.726 -0.3463 -0.3794 -0.2044
16963W        W60057  20.330  26.059   3.598 -0.1898  0.0272  0.0180
16964W        W60058  18.358  27.956   5.750  0.2678  0.0791  0.1244
16965W        W60059  17.674  29.133   4.017 -0.1419  0.2577  0.2060
16966W        W60060  21.137  28.922   4.904  0.2352 -0.0987  0.0978
16967W        W60061  18.347  29.103   6.085  0.0286  0.3337 -0.2067
16968W        W60062  21.265  28.090   7.291  0.1663  0.0145  0.0365
16969W        W60063  20.554  24.097   4.492 -0.0335 -0.0202  0.1310
16970W        W60064  21.585  27.044   5.973 -0.0030 -0.5891 -0.1603
16971W        W60065  20.876  26.538   4.795  0.3797  0.2201 -0.1608
16972W        W60066  20.404  28.905   7.700 -0.0980  0.1047 -0.3218
16973W        W60067  19.031  26.238   7.112 -0.0545 -0.0069 -0.0156
16974W        W60068  19.798  25.116   4.488  0.0726 -0.0888  0.0403
16975W        W60069  20.439  27.198   7.274 -0.1813 -0.1860 -0.3091
16976W        W60070  21.919  25.347   7.788  0.1082 -0.1650  0.1960
16977W        W60071  17.859  28.713   8.837 -0.0485 -0.0135 -0.0849
16978W        W60072  22.302  28.514   4.714  0.1266 -0.1772  0.0010
16979W        W60073  19.246  26.155   4.289 -0.2918  0.3093 -0.3959
16980W        W60074  19.918  27.164   4.892 -0.0454  0.2896 -0.0861
16981W        W60075  21.741  25.504   4.908 -0.0196 -0.3618 -0.2911
16982W        W60076  19.233  27.866   3.658  0.0732  0.1698  0.2810
16983W        W60077  20.335  26.314   6.728 -0.1152 -0.1433 -0.0475
16984W        W60078  19.684  27.550   5.338  0.0345  0.0089  0.1424
16985W        W60079  19.122  28.041   6.153 -0.1202 -0.1445  0.0019
16986W        W60080  19.686  28.286   5.652 -0.2303 -0.2161  0.0843
16987W        W60081  17.883  26.402   4.065  0.0795  0.0559 -0.0106
16988W        W60082  21.335  27.005   5.143 -0.2430  0.1128  0.1480
16989W        W60083  18.524  27.006   6.643  0.2693  0.2996  0.4452
16990W        W60084  21.824  25.262   6.895  0.0701 -0.0266 -0.1841
16991W        W60085  19.572  26.476   5.733 -0.1869 -0.1327  0.0150
16992W        W60086  20.773  26.193   4.437 -0.0377 -0.1102 -0.1137
16993W        W60087  20.321  27.667   6.593 -0.1437 -0.1420  0.3482
16994W        W60088  19.299  25.673   6.266  0.4383 -0.1307 -0.3310
16995W        W60089  20.439  27.498   4.610 -0.0218 -0.0800  0.0178
16996W        W60090  21.085  27.625   6.696 -0.2201 -0.3102  0.0623
16997W        W60091  22.450  26.978   4.103 -0.0019  0.1268 -0.1580
16998W        W60092  21.214  29.955   7.292 -0.3387  0.1219 -0.1842
16999W        W60093  18.613  25.928   5.233  0.2071  0.0565 -0.0702
17000W        W60094  19.874  25.440   4.100 -0.0160  0.1912 -0.3172
17001W        W60095  18.146  25.726   4.928  0.1473  0.0346 -0.0238
17002W        W60096  20.156  27.602   5.009  0.1617 -0.1697  0.2278
17003W        W60097  21.030  28.934   7.073 -0.1869 -0.0957 -0.3863
17004W        W60098  18.457  24.901   3.947 -0.1016  0.0920 -0.2764
17005W        W60099  20.789  26.974   3.381  0.0733  0.0492  0.0190
17006W        W60100  21.422  25.547   6.930  0.1831  0.5082 -0.3532
17007W        W60101  18.814  28.220   3.583  0.1801  0.0842 -0.1122
17008W        W60102  19.965  28.037   5.238 -0.2818  0.1454 -0.3651
17009W        W60103  21.196  28.152   4.719 -0.0554  0.0084  0.1744
17010W        W60104  17.761  27.150   4.674 -0.0384  0.2626  0.0269
17011W        W60105  20.461  28.974   6.569 -0.1260  0.0349  0.0493
17012W        W60106  20.883  27.674   7.919 -0.0260  0.0686 -0.1385
17013W        W60107  19.412  24.774   4.359 -0.4182  0.0494 -0.1569
17014W        W60108  19.359  27.212   5.592  0.1571 -0.1201 -0.2376
17015W        W60109  17.655  30.585   3.757 -0.0296  0.2191 -0.0022
17016W        W60110  22.283  25.718   6.685  0.0657  0.0645  0.1421
17017W        W60111  20.812  25.651   6.358 -0.0953  0.1536  0.0030
17018W        W60112  18.901  29.679   4.195  0.1045  0.2908  0.2244
17019W        W60113  21.757  25.705   7.558  0.1884  0.0820  0.2486
17020W        W60114  19.786  28.057   7.120 -0.1242 -0.1692 -0.0947
17021W        W60115  19.214  28.851   7.307  0.0034 -0.2113 -0.1497
17022W        W60116  19.416  27.152   2.243  0.1242 -0.0184  0.1466
17023W        W60117  18.734  26.636   6.320 -0.2202  0.1880  0.0190
17024W        W60118  20.258  27.070   4.430 -0.0329  0.3879 -0.1129
17025W        W60119  20.378  28.651   4.294 -0.1527 -0.3059 -0.0426
17026W        W60120  20.653  29.279   6.903 -0.0160 -0.1843  0.0754
17027W        W60121  20.328  27.474   6.114 -0.0113 -0.1915 -0.0637
17028W        W60122  21.601  28.264   6.099  0.1746 -0.1386  0.0162
17029W        W60123  20.394  24.506   4.876  0.4348  0.0470  0.0820
17030W        W60124  21.298  25.627   5.096 -0.0728 -0.0283  0.2001
17031W        W60125  21.645  25.843   4.562  0.0314 -0.1324 -0.3312
17032W        W60126  20.424  26.742   7.065 -0.0483  0.1106 -0.1059
17033W        W60127  19.220  26.082   2.831 -0.3608  0.1349  0.4286
17034W        W60128  19.036  28.070   1.602  0.3208  0.1692  0.2413
17035W        W60129  19.076  27.595   6.483  0.1497  0.2012  0.1863
17036W        W60130  19.704  25.834   6.584  0.1101 -0.0676 -0.1432
17037W        W60131  19.002  25.126   7.897 -0.2134  0.2288 -0.0641
17038W        W60132  17.461  27.204   5.114  0.3968 -0.1153 -0.2422
17039W        W60133  18.226  26.149   4.403  0.1969 -0.2732 -0.0277
17040W        W60134  21.469  27.672   4.517 -0.1186  0.1520 -0.2469
17041W        W60135  18.959  25.659   5.291 -0.1349 -0.0884 -0.1949
17042W        W60136  19.151  26.527   4.941  0.0271 -0.2699  0.0110
17043W        W60137  20.265  29.051   5.214 -0.1464  0.1648 -0.1084
17044W        W60138  21.040  28.789   3.943 -0.2012  0.1926  0.2430
17045W        W60139  19.825  25.967   4.813  0.1873 -0.0653 -0.2256
17046W        W60140  21.609  28.617   7.137  0.2657 -0.1053  0.1638
17047W        W60141  17.873  27.638   3.217  0.4260 -0.2865  0.0245
17048W        W60142  21.332  26.089   7.113 -0.2032  0.0106 -0.0370
17049W        W60143  20.639  26.363   5.688  0.0904  0.1971  0.2293
17050W        W60144  17.619  27.742   4.734  0.0278  0.0204  0.1048
17051W        W60145  21.196  27.984   4.198  0.0938  0.1728 -0.2405
17052W        W60146  19.864  28.304   4.260 -0.0549  0.1876 -0.2496
17053W        W60147  23.310  29.071   4.837 -0.0783  0.2208 -0.0324
17054W        W60148  19.926  28.597   5.290 -0.0463  0.2161 -0.1482
17055W        W60149  18.730  27.154   7.148 -0.1693  0.1394 -0.1046
17056W        W60150  17.945  25.724   7.065 -0.1491  0.2163 -0.2407
17057W        W60151  21.745  28.240   5.588  0.1136  0.0724  0.0850
17058W        W60152  19.761  28.684   6.378  0.1072 -0.1593  0.0366
17059W        W60153  22.493  28.276   4.338  0.0441 -0.3324  0.2675
17060W        W60154  20.912  26.184   6.457 -0.1770  0.2682  0.2654
17061W        W60155  19.251  25.993   5.750 -0.2980 -0.1783  0.0114
17062W        W60156  19.270  24.928   6.443 -0.3130 -0.3814 -0.0069
17063W        W60157  19.074  27.534   5.968  0.0080  0.2737  0.1316
17064W        W60158  21.992  26.112   6.701 -0.0807  0.2986 -0.1159
17065W        W60159  19.294  25.872   4.814  0.1004  0.1494 -0.0441
17066W        W60160  19.781  27.025   5.388 -0.5195  0.1288 -0.2280
17067W        W60161  21.736  27.872   4.174  0.1951  0.2237 -0.2871
17068W        W60162  19.450  26.220   5.168  0.1729 -0.1976 -0.2845
17069W        W60163  19.734  26.055   4.240  0.1402  0.0090  0.2450
17070W        W60164  20.063  25.961   6.954 -0.2712  0.0288  0.1274
17071W        W60165  20.511  28.667   6.054  0.0423 -0.2031  0.0015
17072W        W60166  20.269  28.068   6.308 -0.0527 -0.1402  0.1453
17073W        W60167  20.129  26.811   4.007 -0.4076  0.1408  0.1854
17074W        W60168  22.259  27.858   2.931 -0.0767  0.2461 -0.2370
17075W        W60169  20.606  28.475   6.872  0.1164 -0.0231  0.2347
17076W        W60170  22.072  28.452   7.810 -0.0285 -0.3660 -0.1334
17077W        W60171  20.012  28.654   5.939 -0.0566  0.4734  0.2118
17078W        W60172  21.092  26.286   5.929  0.0686  0.1210 -0.1717
17079W        W60173  18.139  25.381   5.924  0.0146  0.1687  0.0700
17080W        W60174  18.438  26.786   5.324  0.0090 -0.0780 -0.1793
17081W        W60175  19.290  27.188   5.098 -0.1339  0.0451 -0.1342
17082W        W60176  20.328  27.187   5.278 -0.0935  0.0866  0.0614
17083W        W60177  20.355  26.278   7.337 -0.1359  0.0782 -0.2475
17084W        W60178  19.772  23.936   5.159  0.2128 -0.0857 -0.2816
17085W        W60179  19.674  29.302   6.011 -0.2432 -0.2845 -0.0074
17086W        W60180  19.917  27.425   6.409 -0.2425 -0.3641  0.0355
17087W        W60181  21.168  29.284  12.319  0.1982  0.1413 -0.0667
17088W        W60182  19.730  26.124   7.913  0.1899  0.0952 -0.2159
17089W        W60183  19.774  26.623   8.344 -0.2034 -0.1078 -0.2691
17090W        W60184  21.871  26.485   9.028 -0.0732 -0.3640  0.3245
17091W        W60185  18.113  26.172   8.151  0.1871 -0.0004 -0.0917
17092W        W60186  20.598  29.843   9.631  0.2359 -0.0490  0.0296
17093W        W60187  19.934  27.303   9.404  0.1026 -0.1041 -0.0696
17094W        W60188  22.851  29.261   8.911  0.0718 -0.1411  0.0321
17095W        W60189  20.611  28.124   7.811 -0.1423  0.1405 -0.0618
17096W        W60190  22.137  26.142  10.240  0.2905 -0.0297 -0.0702
17097W        W60191  20.389  25.197   8.286  0.0502  0.1181 -0.0548
17098W        W60192  18.909  25.575   8.226  0.0212 -0.2063 -0.0146
17099W        W60193  23.302  29.627  10.137  0.2760 -0.1600 -0.2894
17100W        W60194  19.377  26.600   7.267  0.0716  0.0025  0.0912
17101W        W60195  21.043  26.664   9.710 -0.1800 -0.0845 -0.4112
17102W        W60196  20.398  25.859   8.190  0.1502 -0.0637 -0.3900
17103W        W60197  19.905  29.080   9.416 -0.1084 -0.1130  0.2995
17104W        W60198  18.923  26.680   9.558 -0.1192  0.0223  0.0993
17105W        W60199  19.604  28.153   8.879 -0.0390 -0.2365  0.1237
17106W        W60200  19.497  27.820   6.824 -0.1687 -0.0048 -0.1761
17107W        W60201  18.876  26.736   8.932  0.0837  0.0981 -0.1742
17108W        W60202  18.471  26.109   9.454 -0.0275 -0.0099  0.1314
17109W        W60203  21.313  27.104  10.059 -0.0304 -0.2578 -0.1370
17110W        W60204  21.350  27.235   9.048 -0.1127  0.0668  0.0017
17111W        W60205  18.855  28.054   9.640  0.3791 -0.3335 -0.1603
17112W        W60206  20.851  28.822   8.569  0.0271 -0.1871  0.0095
17113W        W60207  17.843  27.077   9.850  0.4368  0.1156  0.1073
17114W        W60208  20.694  28.235  10.019  0.0851 -0.1059  0.0667
17115W        W60209  19.423  27.247  10.271 -0.0134 -0.0993 -0.1763
17116W        W60210  21.341  27.912   9.052 -0.0025  0.3490  0.0141
17117W        W60211  19.084  27.105   7.988  0.1935  0.0597  0.2115
17118W        W60212  19.909  25.567  10.067 -0.1146  0.2704  0.3073
17119W        W60213  19.472  26.104   9.604 -0.1788 -0.1748  0.2022
17120W        W60214  19.434  28.974   8.327 -0.0761 -0.0500 -0.0979
17121W        W60215  20.447  26.868   9.026 -0.3276  0.0744 -0.3706
17122W        W60216  17.417  26.716   9.246  0.0208  0.0876 -0.1501
17123W        W60217  18.310  28.315   7.618 -0.2451 -0.4183 -0.0170
17124W        W60218  21.065  26.698   8.280  0.1652 -0.2689  0.2831
17125W        W60219  19.766  25.024   7.596  0.2285  0.1798  0.2254
17126W        W60220  20.938  26.152   7.493 -0.0868  0.1493  0.1732
17127W        W60221  20.390  24.925   9.135 -0.1039 -0.0425 -0.2799
17128W        W60222  18.314  28.462   8.090 -0.0627 -0.0187 -0.0768
17129W        W60223  18.711  26.107   8.996 -0.3638  0.0101  0.0244
17130W        W60224  19.865  27.342   8.696 -0.0001 -0.5289  0.0547
17131W        W60225  21.462  27.480  10.358 -0.1549  0.0562 -0.1802
17132W        W60226  19.115  28.616   9.269  0.6147  0.2673 -0.0130
17133W        W60227  18.866  27.245  10.212  0.2184 -0.0214 -0.1256
17134W        W60228  22.211  28.745   8.247  0.1356 -0.0303 -0.0938
17135W        W60229  24.954  29.013  10.266  0.0765  0.0382  0.1676
17136W        W60230  20.399  28.711   8.525 -0.1074 -0.0695 -0.0413
17137W        W60231  19.372  26.311   8.369 -0.4254 -0.0149  0.2311
17138W        W60232  19.603  24.562   6.658  0.0967  0.2825 -0.1522
17139W        W60233  22.124  26.096   8.995 -0.0073 -0.1711 -0.2909
17140W        W60234  18.174  26.350   9.819  0.0025  0.0732  0.0504
17141W        W60235  21.099  28.843  10.487  0.1447  0.3808  0.0347
17142W        W60236  20.529  27.659   7.065  0.2483 -0.1946  0.0348
17143W        W60237  20.408  23.970   8.873  0.0772 -0.2645 -0.2282
17144W        W60238  20.748  25.923   8.859 -0.0178  0.2558 -0.1749
17145W        W60239  19.526  26.776   8.724  0.1855  0.2596 -0.1657
17146W        W60240  20.809  28.545   7.677  0.0116 -0.2734 -0.0337
17147W        W60241  23.471  28.937  10.350  0.2210  0.4659 -0.1858
17148W        W60242  21.343  27.525   8.235 -0.0491  0.3338 -0.2586
17149W        W60243  18.494  27.024  10.522 -0.0039  0.3111 -0.1008
17150W        W60244  18.876  29.084   6.887 -0.4417  0.1260  0.1087
17151W        W60245  16.826  28.573   9.791  0.1553  0.0021  0.0430
17152W        W60246  19.045  27.393   7.466  0.2452 -0.0801  0.1588
17153W        W60247  18.243  24.652   9.273 -0.0118  0.0033 -0.1356
17154W        W60248  20.601  26.541  10.012 -0.1813  0.1839  0.1348
17155W        W60249  21.431  25.620   8.419  0.2215 -0.0253  0.0877
17156W        W60250  22.264  25.566   9.078  0.3113 -0.1780  0.1829
17157W        W60251  19.279  26.511   7.904  0.0204  0.2720 -0.1672
17158W        W60252  22.522  29.067   8.268 -0.3511  0.1573 -0.1580
17159W        W60253  22.703  26.517   7.042 -0.1018  0.1259  0.0191
17160W        W60254  20.744  27.763   8.945  0.0254 -0.1274 -0.3466
17161W        W60255  19.011  25.661   8.767  0.1524  0.0515 -0.1740
17162W        W60256  18.614  26.198   8.164 -0.2918 -0.1867  0.0031
17163W        W60257  18.491  25.027   9.061  0.0445  0.1550  0.1438
17164W        W60258  18.127  25.730   6.333 -0.2143  0.0786  0.1548
17165W        W60259  20.347  26.216   9.672  0.0713  0.0407 -0.0633
17166W        W60260  19.071  27.898   8.662  0.0159  0.0901 -0.1195
17167W        W60261  18.952  26.110   8.460 -0.0353 -0.0174 -0.0029
17168W        W60262  20.409  28.420   8.127  0.0781  0.2868  0.2688
17169W        W60263  21.804  31.440   9.570 -0.2184  0.0170  0.0250
17170W        W60264  20.665  28.611   9.651 -0.2332 -0.1315  0.1225
17171W        W60265  18.110  25.532   8.890 -0.0092  0.0013  0.1314
17172W        W60266  17.737  25.796   7.954 -0.0238 -0.3108  0.0317
17173W        W60267  20.010  29.552   8.639  0.1866 -0.0195 -0.0736
17174W        W60268  19.499  28.435  10.194 -0.3810 -0.2428 -0.0042
17175W        W60269  19.835  26.001   9.182  0.2855  0.1104  0.4004
17176W        W60270  22.588  27.945   9.736  0.2192  0.1742 -0.2358
17177W        W60271  20.951  27.566   9.404 -0.0094 -0.1240  0.1022
17178W        W60272  21.676  27.203   9.726  0.0678  0.1383  0.0166
17179W        W60273  19.646  25.997  10.053 -0.2156  0.1015  0.2244
17180W        W60274  19.696  25.574   7.082 -0.3773 -0.1414  0.2304
17181W        W60275  20.304  28.551   9.323 -0.3379  0.2576  0.1573
17182W        W60276  19.576  28.638   9.091 -0.2725  0.0706  0.0643
17183W        W60277  16.828  26.867   7.983  0.0760 -0.0332  0.0965
17184W        W60278  20.705  28.751  10.699 -0.1489  0.0461  0.1217
17185W        W60279  18.327  25.844   9.861 -0.2518 -0.0229 -0.2228
17186W        W60280  19.072  26.091   7.940  0.0065 -0.0390 -0.1627
17187W        W60281  21.693  25.369   8.731  0.2146 -0.0469  0.1239
17188W        W60282  20.632  25.334   7.232 -0.1870  0.1225 -0.0668
17189W        W60283  20.811  27.218   9.007 -0.4667  0.0670  0.1575
17190W        W60284  20.281  26.798   7.545  0.0765  0.1953 -0.0038
17191W        W60285  21.008  25.362   6.765  0.0781 -0.0391 -0.2688
17192W        W60286  19.802  26.989   9.846  0.1139  0.0400  0.0126
17193W        W60287  20.614  26.961  10.450  0.2234  0.0118 -0.3536
17194W        W60288  19.940  27.080   7.861 -0.2110  0.0547  0.1548
17195W        W60289  20.582  28.599   8.965 -0.0850 -0.1458  0.4026
17196W        W60290  19.157  25.947   9.991  0.0966  0.0268  0.0554
17197W        W60291  20.540  27.438   8.627  0.1416 -0.3699  0.1584
17198W        W60292  20.622  24.737   9.981 -0.0116  0.0562 -0.1251
17199W        W60293  19.956  26.880   9.010  0.0255  0.0490  0.2607
17200W        W60294  20.249  26.173   7.777  0.0650  0.0895 -0.0934
17201W        W60295  18.401  30.098   6.697 -0.1372  0.1496 -0.1577
17202W        W60296  20.787  27.224   9.892  0.1523 -0.2061 -0.3255
17203W        W60297  21.387  25.525  10.443  0.0323 -0.0338 -0.0444
17204W        W60298  21.259  27.050   8.555 -0.1407 -0.1590 -0.1950
17205W        W60299  21.151  27.107   9.542  0.0720  0.1359 -0.1388
17206W        W60300  18.903  26.405   7.545  0.0336  0.0410 -0.2143
17207W        W60301  18.694  30.687  10.414 -0.0030 -0.0369  0.1507
17208W        W60302  21.890  29.847  10.279  0.0203 -0.0963  0.1615
17209W        W60303  21.105  27.979   9.622 -0.0523  0.2736  0.0038
17210W        W60304  19.523  26.931   7.678  0.0704  0.2911 -0.2277
17211W        W60305  17.986  29.867   8.276 -0.0276  0.1649  0.0304
17212W        W60306  19.666  28.573   8.518  0.2063  0.3591 -0.0485
17213W        W60307  19.636  24.706   9.475 -0.0929 -0.1244 -0.2188
17214W        W60308  20.687  27.828  10.620 -0.2254 -0.0980 -0.2196
17215W        W60309  19.922  28.611   6.860  0.2145 -0.3332  0.1837
17216W        W60310  21.914  27.028  10.126  0.0273  0.0389  0.0659
17217W        W60311  19.430  27.705   9.458  0.1564  0.0503  0.1841
17218W        W60312  22.639  26.023   9.170  0.0684 -0.1928 -0.1806
17219W        W60313  19.685  26.783  10.405 -0.0080  0.0214 -0.1373
17220W        W60314  17.039  26.638   8.424 -0.1941 -0.1499  0.2026
17221W        W60315  18.573  27.145   7.860 -0.0933  0.2993  0.0895
17222W        W60316  22.451  25.926   8.631  0.1329  0.0021 -0.0074
17223W        W60317  19.401  27.258   9.657 -0.2188  0.0405 -0.1334
17224W        W60318  19.056  27.165   9.280  0.3219  0.0471 -0.0942
17225W        W60319  20.364  25.433   9.503 -0.0650 -0.1962  0.0529
17226W        W60320  17.310  26.892   9.812  0.0271 -0.0396  0.1246
17227W        W60321  21.385  24.681   7.417  0.0270 -0.1110 -0.0281
17228W        W60322  17.750  26.776   8.078 -0.0835 -0.2824 -0.0032
17229W        W60323  21.724  28.397   9.818  0.0396  0.0364  0.0295
17230W        W60324  19.275  26.816   8.306  0.0002 -0.0816  0.2735
17231W        W60325  19.592  27.233   8.155 -0.0488 -0.1607 -0.1119
17232W        W60326  22.338  27.365   9.167 -0.1369  0.1958 -0.0530
17233W        W60327  20.094  27.150   6.850  0.0300 -0.0159 -0.0696
17234W        W60328  19.225  27.567   9.020 -0.0561  0.1266 -0.0500
17235W        W60329  22.056  27.411  10.714 -0.2444 -0.0286  0.1296
17236W        W60330  19.537  24.988  10.055 -0.1006 -0.4828  0.1327
17237W        W60331  19.439  25.825   8.231 -0.3022 -0.2465 -0.4882
17238W        W60332  20.174  26.104  10.134 -0.2977  0.0611  0.1720
17239W        W60333  20.379  28.106   9.693  0.0450 -0.0518 -0.2939
17240W        W60334  21.713  25.864  10.229 -0.0460 -0.2395  0.1660
17241W        W60335  18.949  25.186   8.909 -0.1028  0.2994  0.1792
17242W        W60336  22.354  28.232   8.150  0.1275 -0.0697  0.0853
17243W        W60337  18.573  27.677  10.499  0.1041  0.3010 -0.0172
17244W        W60338  18.758  27.285   8.852 -0.0497  0.0576 -0.5077
17245W        W60339  20.255  28.967   9.015 -0.1716  0.0138 -0.0964
17246W        W60340  19.652  26.550   9.930 -0.3950 -0.1897  0.4006
17247W        W60341  19.825  26.285   8.756  0.0109  0.0183 -0.2004
17248W        W60342  18.541  28.715   7.129  0.3054  0.0251 -0.0216
17249W        W60343  18.409  27.915  10.901  0.2944  0.1709 -0.0995
17250W        W60344  21.978  25.739   8.628 -0.2229  0.2571 -0.0959
17251W        W60345  20.154  28.381   7.201 -0.1759  0.0884 -0.1555
17252W        W60346  20.263  25.110   9.912 -0.2272 -0.0108  0.3228
17253W        W60347  20.000  27.521   7.446  0.1451 -0.1000 -0.1668
17254W        W60348  18.680  24.753   8.734  0.1497 -0.2516 -0.1709
17255W        W60349  21.752  29.035   9.716 -0.4644 -0.0631  0.1062
17256W        W60350  20.316  25.721   7.301  0.0759 -0.0939  0.0782
17257W        W60351  19.410  26.176   7.554 -0.2076  0.2519  0.0750
17258W        W60352  19.182  26.427   9.936  0.2211 -0.3702 -0.1226
17259W        W60353  20.110  27.228  10.374 -0.2816 -0.1397 -0.0805
17260W        W60354  20.104  27.848   8.600  0.2066  0.3329  0.2234
17261W        W60355  21.395  25.396   9.409  0.0618 -0.2906 -0.3717
17262W        W60356  19.898  26.414   9.530 -0.1977 -0.1855  0.0476
17263W        W60357  20.265  27.048   8.465 -0.0593  0.1062 -0.1326
17264W        W60358  20.080  27.841   7.884 -0.0808 -0.0155 -0.1172
17265W        W60359  19.863  27.037   7.355 -0.0211 -0.0791 -0.0515
17266W        W60360  21.587  28.530   8.901  0.2532  0.2481  0.4198
17267W        W60361  20.873  26.192   9.219 -0.4357 -0.2377 -0.0159
17268W        W60362  22.736  29.966   9.256 -0.1495  0.0279  0.0970
17269W        W60363  21.792  27.178   7.219 -0.1047 -0.3123 -0.0385
17270W        W60364  21.736  26.691   9.451  0.0192  0.1578 -0.0336
17271W        W60365  20.719  27.751   9.833 -0.0134 -0.2089  0.0711
17272W        W60366  21.322  26.133   8.294 -0.1798  0.0371  0.0760
17273W        W60367  18.463  25.874   8.579  0.3596 -0.1998 -0.1711
17274W        W60368  18.895  26.705   7.017 -0.4572 -0.1202  0.0667
17275W        W60369  20.607  29.446   7.832  0.2574  0.1004  0.1095
17276W        W60370  20.858  27.912   8.468 -0.0313  0.0395  0.2282
17277W        W60371  20.764  26.093   7.954 -0.0287 -0.0013 -0.2459
17278W        W60372  19.434  25.933   8.679 -0.1777 -0.0762 -0.0607
17279W        W60373  18.982  25.311   6.461 -0.0094 -0.0763  0.1761
17280W        W60374  18.507  27.113   9.273 -0.3806 -0.0724  0.3975
17281W        W60375  22.487  27.498  10.153  0.0574  0.2110  0.1619
17282W        W60376  19.875  25.470   6.286 -0.0802  0.1465 -0.4319
17283W        W60377  18.726  28.460   8.661  0.2715  0.0476 -0.0556
17284W        W60378  20.806  25.097   9.582  0.0914  0.2005 -0.0335
17285W        W60379  19.839  29.037   9.917 -0.4564 -0.0468  0.0389
17286W        W60380  19.957  24.421   9.877  0.0693  0.0013  0.1129
17287W        W60381  20.619  25.372  10.161 -0.2363 -0.1004  0.0071
17288W        W60382  21.095  26.634  10.236  0.1700  0.5370 -0.0791
17289W        W60383  20.776  26.884   8.649  0.3388  0.2674 -0.1044
17290W        W60384  20.331  26.555  10.399  0.2241  0.1314  0.1781
17291W        W60385  21.141  27.550   8.700 -0.4667  0.0146 -0.1296
17292W        W60386  19.550  27.736   8.627  0.1733  0.2522  0.3474
17293W        W60387  20.268  26.907   9.980 -0.1233  0.1469 -0.3431
17294W        W60388  21.272  25.714   9.938  0.1553 -0.1477  0.0788
17295W        W60389  19.316  29.629   7.129  0.1366  0.1035 -0.1783
17296W        W60390  20.022  26.159   8.308  0.1443 -0.0955  0.0922
17297W        W60391  19.774  29.854   8.270  0.0546  0.1921 -0.1391
17298W        W60392  20.177  26.433   9.178  0.1923 -0.1995  0.2316
17299W        W60393  20.478  28.212   8.626 -0.0924  0.0129 -0.2460
17300W        W60394  20.215  27.367   9.796  0.0060 -0.0632  0.1593
17301W        W60395  19.256  26.412   6.695  0.0292  0.0912  0.1981
17302W        W60396  18.148  26.056   8.925 -0.0538 -0.1502  0.3787
17303W        W60397  16.769  28.259   7.442 -0.1244  0.1049 -0.2408
17304W        W60398  20.469  27.884   8.202 -0.0314 -0.1511  0.1355
17305W        W60399  20.104  29.417   9.751 -0.0806  0.1196  0.2629
17306W        W60400  21.200  25.681   8.875  0.3607  0.1722 -0.1138
17307W        W60401  23.337  26.878  10.267 -0.0856 -0.1339 -0.2824
17308W        W60402  22.756  26.265   8.336 -0.3450 -0.1190 -0.3322
17309W        W60403  20.485  25.769   9.932 -0.0113 -0.1402  0.2536
17310W        W60404  19.531  26.129   7.062  0.0379  0.0066 -0.0292
17311W        W60405  21.296  28.525   8.559 -0.0835 -0.0160  0.1724
17312W        W60406  18.769  27.045   8.359  0.2235 -0.0950 -0.2046
17313W        W60407  19.565  26.409   9.169 -0.0120 -0.3778 -0.4338
17314W        W60408  21.527  26.694   9.961  0.0585  0.1430 -0.1277
17315W        W60409  19.084  28.551   8.183  0.2603 -0.2690 -0.2152
17316W        W60410  20.132  24.810   9.541 -0.0860  0.1464  0.1592
17317W        W60411  19.959  28.755   8.078  0.0781  0.2475 -0.0444
17318W        W60412  19.396  28.150   9.673 -0.0229 -0.1760 -0.3905
17319W        W60413  20.775  28.205   9.371 -0.2276  0.1932  0.0964
17320W        W60414  17.510  25.273   7.934 -0.0498 -0.2498 -0.2866
17321W        W60415  21.891  24.804   7.530  0.2229 -0.3449  0.1058
17322W        W60416  17.702  26.587   9.712 -0.0322 -0.3615 -0.0651
17323W        W60417  19.657  27.740   8.099  0.1524 -0.0448 -0.1895
17324W        W60418  21.157  26.352   8.799 -0.3408  0.1960  0.0789
17325W        W60419  20.233  28.612   9.927 -0.1115  0.2008  0.0040
17326W        W60420  19.543  27.218   9.147  0.1228 -0.0166  0.2852
17327W        W60421  20.203  27.951   7.390  0.3486 -0.1535 -0.1007
17328W        W60422  21.438  26.032   7.768  0.3560 -0.1750  0.0530
17329W        W60423  19.727  25.245   9.021 -0.0729 -0.4173  0.1756
17330W        W60424  20.957  25.246   8.642 -0.1396 -0.2778 -0.4354
17331W        W60425  20.304  26.070   8.732  0.0555  0.0069 -0.4474
17332W        W60426  22.632  28.475  10.814  0.1346 -0.0874  0.1324
17333W        W60427  17.796  25.212   8.553 -0.3582  0.0385  0.1033
17334W        W60428  20.751  27.036   7.671 -0.2000 -0.0465 -0.0168
17335W        W60429  21.281  26.208   9.997  0.1917  0.0379  0.2133
17336W        W60430  18.421  28.951   6.656  0.2664 -0.1848 -0.0964
17337W        W60431  21.351  26.420   9.307  0.0093  0.0930 -0.0776
17338W        W60432  21.062  28.631   9.155 -0.0467 -0.1221 -0.1945
17339W        W60433  18.026  25.811   9.357  0.2197 -0.1150 -0.0302
17340W        W60434  19.443  29.118   9.237 -0.2646 -0.2483  0.1466
17341W        W60435  22.094  29.576   9.950 -0.0173 -0.0920  0.0606
17342W        W60436  20.719  25.438   9.135  0.1218 -0.2175 -0.0036
17343W        W60437  20.029  25.782   9.568  0.1885  0.2481 -0.4179
17344W        W60438  17.887  28.389   8.404 -0.0678 -0.4221 -0.0939
17345W        W60439  21.648  25.343  10.086  0.0543 -0.0142  0.1261
17346W        W60440  20.085  29.091   6.915 -0.1140 -0.2164 -0.0482
17347W        W60441  20.183  26.816   9.491  0.0067  0.0537 -0.2546
17348W        W60442  19.458  28.172   8.259 -0.0943  0.3861 -0.3128
17349W        W60443  18.885  25.876   9.560 -0.0087 -0.0832  0.0386
17350W        W60444  19.671  29.000   7.757  0.2058 -0.1977  0.0325
17351W        W60445  20.697  28.723  10.184 -0.1936  0.0675 -0.0637
17352W        W60446  20.632  26.828   8.115 -0.0746  0.2571 -0.2028
17353W        W60447  21.297  28.109  10.050  0.2322  0.2351 -0.0698
17354W        W60448  19.659  25.651   7.690 -0.1494 -0.1835  0.1353
17355W        W60449  20.927  25.835   8.428 -0.0875 -0.0246  0.0545
17356W        W60450  22.323  26.126   8.198 -0.5264 -0.1957 -0.0133
17357W        W60451  21.518  28.375  10.498 -0.0446  0.2225 -0.3363
17358W        W60452  17.542  26.445   8.811 -0.2005 -0.0098  0.0418
17359W        W60453  18.732  28.063   7.737 -0.0874  0.0705 -0.2418
17360W        W60454  19.101  25.589   7.739  0.0507  0.2500  0.0112
17361W        W60455  18.770  26.677   7.946 -0.0317  0.0732  0.0200
17362W        W60456  18.026  25.402   7.851  0.3193 -0.1959 -0.1865
17363W        W60457  20.102  28.466   8.876  0.0105  0.0473  0.0061
17364W        W60458  18.425  26.605   9.163 -0.0425 -0.0104 -0.1802
17365W        W60459  18.172  23.640   9.093 -0.1792 -0.2231  0.1378
17366W        W60460  19.912  28.221   9.371  0.2966 -0.1769  0.2287
17367W        W60461  20.276  28.042   9.090  0.3023 -0.2313 -0.3123
17368W        W60462  21.356  25.148   8.978  0.0249  0.1506 -0.0810
17369W        W60463  17.949  26.919   6.697 -0.2458  0.2623  0.2243
17370W        W60464  16.576  26.100   7.381  0.2068  0.4171  0.0538
17371W        W60465  18.988  25.504   9.295 -0.0709  0.0192 -0.4092
17372W        W60466  18.768  28.649   7.741  0.3114  0.0588  0.4825
17373W        W60467  20.935  29.798   7.707 -0.1249 -0.0904  0.2080
17374W        W60468  16.341  24.226   9.436 -0.0751  0.2487  0.0909
17375W        W60469  21.500  26.804   9.035 -0.0164 -0.1252  0.2778
17376W        W60470  20.929  28.232   8.847 -0.0133 -0.0566  0.0731
17377W        W60471  20.923  24.947   9.107 -0.1463 -0.0139 -0.0970
17378W        W60472  20.962  26.745   9.152 -0.0608  0.0657  0.2372
17379W        W60473  24.452  27.460   9.897  0.1190 -0.1249 -0.1331
17380W        W60474  20.529  26.351   8.324 -0.1487 -0.1878  0.0971
17381W        W60475  21.295  25.957   9.521 -0.1363  0.0217 -0.4742
17382W        W60476  20.191  28.433   7.686  0.0092  0.0260 -0.0458
17383W        W60477  18.681  24.771   9.848  0.0538 -0.2425  0.2794
17384W        W60478  18.693  27.629   8.001  0.1547 -0.3567 -0.0208
17385W        W60479  20.440  27.673   9.425 -0.1601  0.0934  0.0325
17386W        W60480  19.685  28.032   7.631  0.1140 -0.1467  0.2265
17387W        W60481  22.724  28.210   7.708  0.1760 -0.0388 -0.0389
17388W        W60482  21.058  27.746  10.298  0.2931 -0.1243 -0.0959
17389W        W60483  22.117  25.103  10.055  0.1694 -0.0179  0.4218
17390W        W60484  22.203  28.395   9.648 -0.0186 -0.2062  0.1747
17391W        W60485  17.636  24.393   9.398  0.0174 -0.0567 -0.0347
17392W        W60486  19.753  27.693   9.096  0.0789 -0.1203  0.0216
17393W        W60487  20.284  27.319   9.048 -0.2982 -0.3331 -0.3037
17394W        W60488  21.441  26.957  10.559 -0.0963 -0.1365 -0.1823
17395W        W60489  19.454  25.612   9.585 -0.0215  0.2187  0.1072
17396W        W60490  21.560  24.646   9.125 -0.1824  0.0498 -0.2993
17397W        W60491  20.256  27.850  10.065 -0.0354  0.0189  0.0558
17398W        W60492  20.643  29.236  12.110 -0.2978  0.0691 -0.2524
17399W        W60493  18.946  30.903   3.092  0.4965 -0.1247 -0.1219
17400W        W60494  19.831  29.990   2.703  0.2725  0.0047  0.1103
17401W        W60495  21.514  29.987   1.217  0.0552  0.0923  0.0720
17402W        W60496  21.436  29.539   1.624  0.2069 -0.2558  0.0899
17403W        W60497  19.355  28.178   1.121 -0.1592  0.0089 -0.2015
17404W        W60498  21.242  31.667   0.569 -0.1247 -0.0564  0.4090
17405W        W60499  19.313  28.989   3.639 -0.1458 -0.1498  0.0444
17406W        W60500  21.530  32.000   1.574 -0.0181 -0.0394  0.0044
17407W        W60501  22.606  32.261   2.270  0.1560  0.1753 -0.1518
17408W        W60502  19.719  28.563  31.394  0.1092  0.2472  0.1186
17409W        W60503  19.315  30.038   2.604  0.0341  0.3163 -0.5344
17410W        W60504  19.782  33.047   1.953  0.0254 -0.0770  0.2410
17411W        W60505  20.529  30.968   0.277  0.2313 -0.3255 -0.0849
17412W        W60506  17.494  29.021   2.578 -0.0602  0.2049 -0.1613
17413W        W60507  20.961  28.591   3.448 -0.1095 -0.2687  0.0026
17414W        W60508  18.519  30.640   2.082  0.0062  0.0281 -0.1265
17415W        W60509  19.736  29.825   4.687 -0.1096 -0.0485 -0.0171
17416W        W60510  19.410  30.756   0.281 -0.1526 -0.1816 -0.2001
17417W        W60511  20.378  32.096   1.122  0.0438 -0.0911 -0.0619
17418W        W60512  19.458  30.292   3.441  0.0142 -0.2760  0.0900
17419W        W60513  19.531  29.558   2.826 -0.2111  0.3311  0.1252
17420W        W60514  20.215  31.983   1.646  0.0866 -0.2550  0.0602
17421W        W60515  19.131  30.514   0.650  0.2067  0.0580  0.4076
17422W        W60516  18.367  30.338   3.088 -0.0856  0.1715  0.1265
17423W        W60517  18.372  31.671   2.980 -0.0225 -0.2071 -0.1993
17424W        W60518  19.829  29.943   1.051 -0.1756  0.0595  0.4656
17425W        W60519  22.567  30.003   1.431 -0.0171  0.0693 -0.2309
17426W        W60520  20.183  32.762   0.818  0.0893 -0.2517  0.3286
17427W        W60521  21.351  32.414   1.369  0.2495 -0.0785 -0.1751
17428W        W60522  21.756  30.495   4.088 -0.2009 -0.0642  0.0879
17429W        W60523  19.222  30.452   1.538  0.0452 -0.0759 -0.1961
17430W        W60524  17.745  33.560   0.988 -0.0106 -0.0929  0.2063
17431W        W60525  19.334  31.643   2.667  0.0868  0.2008 -0.4657
17432W        W60526  22.888  31.448   0.873 -0.1531 -0.3906  0.0169
17433W        W60527  20.355  31.717   2.907  0.2279  0.0236 -0.1413
17434W        W60528  21.155  31.414   4.212  0.1144  0.0788 -0.0293
17435W        W60529  16.525  31.865  31.868  0.0283  0.3009 -0.2369
17436W        W60530  20.537  31.931   2.432 -0.2435 -0.0819  0.1417
17437W        W60531  21.775  29.755   3.462 -0.1559 -0.0490 -0.0504
17438W        W60532  20.508  31.230   1.105  0.1522 -0.2979 -0.0551
17439W        W60533  18.150  33.158  31.277  0.0488 -0.3081  0.0989
17440W        W60534  19.341  31.801   0.970  0.6286 -0.2920  0.1281
17441W        W60535  20.575  30.863   4.591  0.1356  0.2872  0.0848
17442W        W60536  19.316  31.431   1.536  0.0691  0.1273  0.0660
17443W        W60537  21.500  29.439   3.167 -0.1681  0.0308 -0.1237
17444W        W60538  18.318  32.490   1.677 -0.3188 -0.0532  0.0969
17445W        W60539  22.202  29.601   0.458 -0.6132  0.2048 -0.2088
17446W        W60540  19.764  29.734  31.636 -0.2424 -0.2408  0.0263
17447W        W60541  20.855  29.941   2.897  0.1169 -0.2605 -0.2002
17448W        W60542  20.669  29.405   0.978 -0.3027 -0.1055  0.0503
17449W        W60543  20.254  31.865   0.391  0.0880 -0.3022  0.1557
17450W        W60544  18.930  28.976   1.548 -0.0321  0.0087  0.1097
17451W        W60545  21.277  29.999   3.247 -0.0709 -0.0978 -0.1651
17452W        W60546  18.758  30.647   1.038 -0.1812 -0.0146  0.2785
17453W        W60547  20.453  29.982   3.185  0.0102 -0.1616  0.0529
17454W        W60548  19.198  31.723   3.196  0.0545  0.0062  0.2651
17455W        W60549  18.437  28.925   2.342 -0.2490  0.1218 -0.1082
17456W        W60550  22.513  31.905  31.502  0.0689 -0.0028 -0.3756
17457W        W60551  22.992  32.004   1.898 -0.0553 -0.0711  0.4125
17458W        W60552  20.923  30.929   2.087 -0.0418 -0.0657 -0.0769
17459W        W60553  19.510  29.184   1.560 -0.1769  0.2608 -0.2142
17460W        W60554  18.273  30.052   1.279  0.1345 -0.0343  0.1272
17461W        W60555  19.225  31.238   3.344 -0.0307 -0.0471 -0.0129
17462W        W60556  17.940  27.446   0.193 -0.0146  0.0963 -0.2217
17463W        W60557  23.219  32.460   3.285 -0.3265  0.0899 -0.0310
17464W        W60558  18.584  31.190   2.892  0.0860 -0.1701 -0.1705
17465W        W60559  21.739  28.846   2.375  0.0780  0.1438 -0.0625
17466W        W60560  19.981  30.940   2.935 -0.2439 -0.0984  0.1860
17467W        W60561  21.677  32.489   1.712 -0.0367  0.0806  0.3305
17468W        W60562  20.263  31.387   0.321  0.0308 -0.0354 -0.0941
17469W        W60563  21.679  29.353   0.764 -0.0633  0.2299  0.0252
17470W        W60564  19.930  30.033   3.216  0.2244 -0.1807 -0.0877
17471W        W60565  20.336  31.661   0.894  0.2933  0.1618  0.0438
17472W        W60566  22.220  31.468   0.283  0.1360  0.0106  0.0054
17473W        W60567  22.166  31.653   2.859 -0.3146 -0.3031 -0.0444
17474W        W60568  21.107  30.098   0.488  0.1263  0.0091  0.1959
17475W        W60569  18.413  32.731   2.105 -0.1716 -0.0776  0.0713
17476W        W60570  19.516  28.641   3.203 -0.1569  0.0003  0.0341
17477W        W60571  20.856  31.683   3.100 -0.0242 -0.3516 -0.0147
17478W        W60572  18.302   0.047   0.677  0.0186  0.0149  0.2514
17479W        W60573  17.847  32.313   1.824 -0.0804 -0.1305 -0.0437
17480W        W60574  18.879  29.905   1.845 -0.1937  0.1257 -0.0754
17481W        W60575  18.110  30.467   3.495 -0.1160  0.1404  0.1145
17482W        W60576  20.803  32.131   2.818 -0.1648  0.2156 -0.0986
17483W        W60577  21.011  29.668  31.652  0.0284 -0.1085 -0.0761
17484W        W60578  19.054  30.072   4.472 -0.1382  0.1020 -0.0366
17485W        W60579  20.732  29.999   1.587  0.3351  0.2223  0.2413
17486W        W60580  18.089  31.341   1.691 -0.0349 -0.1271 -0.5532
17487W        W60581  22.048  32.808   1.403 -0.0164  0.1908  0.1152
17488W        W60582  21.072  31.277   0.939  0.0447  0.0848 -0.1395
17489W        W60583  22.216  30.750   0.841  0.1980 -0.0322  0.0951
17490W        W60584  17.617  30.287   2.375  0.1061 -0.1585 -0.1440
17491W        W60585  19.148  29.346   1.230 -0.1612 -0.0059  0.0547
17492W        W60586  19.834  29.337   4.303  0.0878  0.0587 -0.2024
17493W        W60587  19.313  29.927   3.155 -0.1546  0.1132 -0.3325
17494W        W60588  21.035  30.738   3.486  0.0322 -0.2560 -0.0470
17495W        W60589  18.295  30.015   0.408  0.1399  0.1279  0.1760
17496W        W60590  20.952  29.504   1.463 -0.2076 -0.2772 -0.1521
17497W        W60591  18.878  28.523   1.285  0.2302  0.3790  0.2686
17498W        W60592  19.193  32.181   1.950 -0.0864 -0.0035 -0.0512
17499W        W60593  20.594  29.807   4.087 -0.0877 -0.2367 -0.0182
17500W        W60594  18.843  31.592   0.856  0.0172 -0.1711 -0.1131
17501W        W60595  22.670  31.854   3.409  0.0197 -0.0948 -0.0755
17502W        W60596  19.739  32.312   1.590  0.1258 -0.2873 -0.1969
17503W        W60597  20.379  30.698   4.134  0.3872  0.1742 -0.0456
17504W        W60598  17.782  28.373   1.172  0.2330 -0.2225 -0.1125
17505W        W60599  18.907  32.608   1.923  0.0975  0.2527  0.0112
17506W        W60600  20.440  31.500   1.662  0.1390  0.1031  0.1369
17507W        W60601  20.145  29.665   0.333  0.0076 -0.0652  0.0219
17508W        W60602  21.182  33.290   2.342 -0.0679 -0.4989  0.2184
17509W        W60603  20.444  30.508   1.913 -0.0514 -0.0916  0.0486
17510W        W60604  18.894  31.928   2.230 -0.1432 -0.1801  0.0980
17511W        W60605  18.616  29.497   3.044 -0.0663 -0.2237 -0.3142
17512W        W60606  21.231  29.664   3.682  0.0305  0.0525  0.7360
17513W        W60607  21.919  31.140   1.227  0.1270  0.1340  0.1366
17514W        W60608  18.459  28.306   0.357 -0.1298 -0.0487 -0.5181
17515W        W60609  21.991  32.610   0.526  0.1252 -0.3364  0.0972
17516W        W60610  19.648  34.024   1.014 -0.3388  0.3382 -0.4417
17517W        W60611  17.658  31.556   1.521  0.1861  0.1038  0.1925
17518W        W60612  21.569  32.963   1.417 -0.0328 -0.0817 -0.3484
17519W        W60613  21.104  29.384   2.834  0.1724  0.1221  0.1976
17520W        W60614  19.485  31.619   4.524  0.0844 -0.1710 -0.1124
17521W        W60615  21.930  29.578   4.297 -0.0596  0.1547  0.2088
17522W        W60616  18.254  31.283   1.249  0.2854  0.0180 -0.4745
17523W        W60617  20.469  31.377   3.874 -0.0084 -0.0848  0.0479
17524W        W60618  19.216  28.640  31.251  0.3202 -0.0794  0.2069
17525W        W60619  20.514  29.375   1.679 -0.2109  0.0718  0.0594
17526W        W60620  20.766  29.962   3.593  0.0801 -0.1597 -0.2511
17527W        W60621  22.743  31.573  31.143  0.0851 -0.1548  0.0092
17528W        W60622  20.175  30.682   0.096 -0.3589 -0.1400  0.0874
17529W        W60623  20.695  29.680   0.483  0.0487  0.2037  0.0465
17530W        W60624  18.774  32.494   4.264 -0.0486  0.0710  0.1372
17531W        W60625  20.830  31.558   2.628 -0.1479 -0.2720  0.3184
17532W        W60626  20.345  31.422   2.495 -0.1508  0.1345 -0.1997
17533W        W60627  19.289  29.010   0.241  0.5570  0.1475  0.0450
17534W        W60628  21.111  32.010   1.271 -0.1129 -0.0475  0.1271
17535W        W60629  18.319  31.219   2.463 -0.0625 -0.1226  0.2469
17536W        W60630  21.245  32.754   2.210  0.1864  0.0695 -0.0686
17537W        W60631  21.901  32.100   1.900 -0.0098 -0.0487  0.1908
17538W        W60632  20.465  30.446   3.468  0.0615 -0.1261 -0.0239
17539W        W60633  19.777  30.738  31.778  0.1201 -0.1103 -0.0564
17540W        W60634  21.040  30.957   0.472 -0.0455 -0.0186  0.2960
17541W        W60635  18.613  32.983   1.110  0.2935  0.1631  0.1945
17542W        W60636  21.529  29.000   2.798 -0.0412  0.1042 -0.2641
17543W        W60637  20.250  29.683   2.569  0.0171 -0.0444  0.1403
17544W        W60638  19.048  30.350   3.085 -0.2400  0.1203 -0.2921
17545W        W60639  21.438  30.551   3.232 -0.1854 -0.2183  0.3644
17546W        W60640  18.491  31.798   1.396 -0.0229 -0.0532 -0.2784
17547W        W60641  20.882  30.108   2.417  0.0016  0.1465 -0.2584
17548W        W60642  18.146  30.819   0.652 -0.1651  0.3142 -0.0986
17549W        W60643  21.075  29.197   3.594 -0.1096 -0.1171  0.1518
17550W        W60644  19.927  30.474   4.238  0.1002 -0.1119  0.0266
17551W        W60645  20.008  32.526   3.197  0.0284  0.1051 -0.2245
17552W        W60646  21.361  31.016   3.216 -0.0440  0.0876  0.2599
17553W        W60647  19.801  30.307   1.900 -0.0522 -0.2140  0.1848
17554W        W60648  20.094  29.549   5.212 -0.0890  0.0780  0.0393
17555W        W60649  19.577  28.863  30.259  0.2340 -0.0741 -0.0432
17556W        W60650  18.967  32.149  31.456  0.1276 -0.1636 -0.3148
17557W        W60651  21.435  30.925   1.049  0.2027  0.1476 -0.0323
17558W        W60652  19.082  28.778   2.489  0.1419  0.1851  0.1406
17559W        W60653  20.236  30.899   2.514  0.1538  0.0677 -0.0060
17560W        W60654  18.228  32.261   1.169 -0.5116  0.1130  0.1674
17561W        W60655  20.237  30.938   3.359 -0.2541  0.1332 -0.0927
17562W        W60656  18.970  30.886   1.700 -0.2195 -0.0440  0.0130
17563W        W60657  21.264  28.587   1.285  0.3837  0.0591 -0.0125
17564W        W60658  18.693  32.452   1.347  0.2025 -0.0149 -0.1093
17565W        W60659  19.616  27.891   1.421  0.1361  0.2265  0.0152
17566W        W60660  17.717  31.162   1.275  0.1699 -0.0859 -0.0711
17567W        W60661  21.045  29.293   0.557  0.1676  0.1492 -0.3850
17568W        W60662  21.244  30.662  31.682  0.2225  0.2344  0.1014
17569W        W60663  19.619  29.341   3.304 -0.3979  0.1148  0.0972
17570W        W60664  18.027  28.776   2.606  0.1579  0.0244  0.2802
17571W        W60665  19.145  33.690   1.399 -0.2564  0.0096 -0.1672
17572W        W60666  21.909  31.161   2.086  0.0003  0.0191  0.2618
17573W        W60667  20.041  30.686   0.541  0.0173 -0.3330  0.0877
17574W        W60668  20.922  31.648   3.691  0.0039  0.2554 -0.1082
17575W        W60669  20.198  30.097   4.250  0.0505  0.0208  0.0158
17576W        W60670  18.882  30.069  31.750  0.0204  0.0305  0.0945
17577W        W60671  22.305  30.753   1.329  0.2866 -0.0753 -0.2488
17578W        W60672  18.759  29.996   2.781 -0.1595 -0.1823 -0.5956
17579W        W60673  20.076  31.250   1.328 -0.1425 -0.0846  0.0987
17580W        W60674  19.423  30.729   3.133  0.3322 -0.0752  0.2703
17581W        W60675  19.811  29.951   1.558  0.1397  0.0687 -0.0934
17582W        W60676  19.693  32.591   0.070 -0.1591 -0.0372 -0.1256
17583W        W60677  19.393  29.634   4.340  0.0903  0.0681  0.3465
17584W        W60678  21.353  30.627   1.932  0.0713 -0.0694  0.2009
17585W        W60679  19.292  30.748   1.101  0.4658 -0.1841  0.0180
17586W        W60680  19.158  29.132   0.713 -0.1221 -0.1582 -0.1576
17587W        W60681  21.672  30.745   2.267 -0.3439 -0.2375  0.0629
17588W        W60682  21.103  32.222   2.404 -0.1559 -0.0724 -0.1987
17589W        W60683  20.576  29.451   3.491 -0.2303  0.0373 -0.3548
17590W        W60684  19.553  32.738   3.407 -0.1698  0.0587 -0.0924
17591W        W60685  20.336  29.379   2.190  0.0207  0.3706  0.1174
17592W        W60686  23.753  34.462  31.791 -0.1950  0.1450 -0.1475
17593W        W60687  20.902  30.870   4.095 -0.1516  0.1991 -0.0876
17594W        W60688  18.960  31.192   1.150  0.1071  0.0735 -0.0524
17595W        W60689  19.327  31.122   2.448  0.0564  0.1202  0.3196
17596W        W60690  20.840  30.902   1.136  0.2404 -0.1628  0.1764
17597W        W60691  19.817  30.088   3.721  0.0913  0.0122 -0.1141
17598W        W60692  19.507  32.089   2.382  0.0686 -0.2258 -0.0984
17599W        W60693  19.384  31.291   0.505 -0.1329  0.2365 -0.2458
17600W        W60694  18.747  32.709   2.525  0.3692  0.0478 -0.0296
17601W        W60695  21.476  30.488  30.422 -0.1462  0.1537  0.1610
17602W        W60696  19.092  32.323   2.444  0.3000 -0.0836 -0.1539
17603W        W60697  19.688  30.403   1.324 -0.0003  0.2305 -0.4278
17604W        W60698  22.105  30.281   3.641  0.0268 -0.0872  0.1698
17605W        W60699  20.245  31.082  31.749  0.1978  0.0710 -0.0769
17606W        W60700  19.076  29.476   3.272  0.2044 -0.3277 -0.0741
17607W        W60701  18.725  29.928   3.257  0.2420  0.0257  0.1374
17608W        W60702  21.734  30.372   2.586  0.3221  0.0417 -0.2570
17609W        W60703  18.626  29.800   4.551  0.2495  0.0634 -0.1567
17610W        W60704  20.071  31.938   3.275 -0.2166  0.1216  0.0118
17611W        W60705  19.611  30.719   4.547 -0.0703  0.0644  0.0006
17612W        W60706  20.048  30.723   1.154 -0.0840 -0.1978 -0.0208
17613W        W60707  20.251  28.528  31.806 -0.0216 -0.1676 -0.0819
17614W        W60708  20.065  30.472   2.789  0.1169  0.2485 -0.0820
17615W        W60709  20.782  31.069   2.530  0.0776 -0.2548 -0.0102
17616W        W60710  20.336  32.294   2.060 -0.2305  0.2163  0.0800
17617W        W60711  21.920  30.498   0.524  0.1988  0.2304  0.2005
17618W        W60712  19.359  31.698   2.081 -0.0139 -0.5362 -0.0090
17619W        W60713  21.744  30.170   1.953  0.0266  0.0940  0.0894
17620W        W60714  20.591  32.447   2.486  0.1027 -0.0252 -0.1166
17621W        W60715  18.876  30.419   1.899  0.0735  0.1342 -0.1191
17622W        W60716  19.214  28.526   3.674 -0.1164 -0.0842 -0.0742
17623W        W60717  20.405  30.984   2.084 -0.0524 -0.3833 -0.4952
17624W        W60718  20.685  30.424   1.288  0.1707 -0.3309 -0.0552
17625W        W60719  20.850  30.330   3.184  0.5014 -0.1173  0.1882
17626W        W60720  21.354  30.185   4.386 -0.2302 -0.1844 -0.2278
17627W        W60721  20.485  30.715   2.998 -0.0040  0.2738 -0.1129
17628W        W60722  17.796  30.101   4.189 -0.3226 -0.0762  0.3565
17629W        W60723  22.209  32.354   1.590 -0.2902 -0.0861  0.0620
17630W        W60724  21.509  30.428   0.780 -0.1884 -0.0869 -0.2725
17631W        W60725  22.653  29.285   2.657 -0.0918 -0.2312  0.0660
17632W        W60726  22.614  31.706   0.509  0.1652  0.0842  0.0982
17633W        W60727  21.039  30.057   1.180  0.2022  0.0148  0.1946
17634W        W60728  19.342  30.095   2.109  0.2038 -0.1763 -0.2487
17635W        W60729  21.245  30.471   3.975 -0.0547 -0.0418 -0.1093
17636W        W60730  20.689  31.307   0.618  0.1613 -0.0736  0.2044
17637W        W60731  20.278  29.471   3.882  0.1701  0.0516 -0.2950
17638W        W60732  19.942  32.215   0.921 -0.0515 -0.0335 -0.0028
17639W        W60733  20.646  31.957   1.879  0.2719 -0.1479  0.1754
17640W        W60734  20.746  31.807   0.113  0.1709  0.0058  0.1485
17641W        W60735  18.483  29.965   2.242 -0.1717  0.0775 -0.2952
17642W        W60736  19.078  31.497   3.761  0.3087  0.0907  0.2788
17643W        W60737  19.788  28.734  31.944  0.1718 -0.3044 -0.2544
17644W        W60738  19.835  31.763   0.773  0.2015  0.0776 -0.0071
17645W        W60739  20.239  31.640   2.063  0.1493 -0.3803  0.0066
17646W        W60740  21.389  31.274   2.398  0.0197  0.2720  0.0841
17647W        W60741  20.257  29.668   1.397  0.2869 -0.2059 -0.2288
17648W        W60742  22.249  30.333   2.706 -0.1005  0.0618 -0.1312
17649W        W60743  20.797  31.839   0.656  0.0005 -0.1398  0.2180
17650W        W60744  20.538  30.761   0.767  0.1252  0.1539 -0.1198
17651W        W60745  19.677  32.449   2.066  0.1588 -0.0851 -0.3844
17652W        W60746  19.695  31.773   2.968 -0.0472  0.1628  0.2104
17653W        W60747  19.484  32.234   1.155  0.1743  0.3024  0.1775
17654W        W60748  19.813  29.081   2.957 -0.0538  0.1327 -0.1472
17655W        W60749  21.383  28.707   1.833 -0.1106 -0.0513  0.0721
17656W        W60750  20.531  29.863   2.135  0.5026  0.0705  0.1625
17657W        W60751  21.173  31.302   2.883 -0.1172  0.0222 -0.0195
17658W        W60752  20.288  30.637   4.986  0.2722 -0.1160  0.1385
17659W        W60753  19.992  31.223   1.817  0.0405 -0.1661  0.3708
17660W        W60754  21.316  31.777   2.712  0.1239  0.0167  0.2197
17661W        W60755  22.504  31.912   1.775  0.0230  0.0321 -0.2797
17662W        W60756  20.349  32.816   2.170 -0.0387 -0.1568 -0.1350
17663W        W60757  18.587  31.362   3.946 -0.0123  0.2727  0.0268
17664W        W60758  21.692  31.256   4.130 -0.1351 -0.0093 -0.0989
17665W        W60759  21.432  30.953   1.577 -0.1777 -0.0414  0.1968
17666W        W60760  19.874  29.350   2.449  0.0935 -0.0008 -0.1534
17667W        W60761  19.633  32.131   0.489  0.1770  0.1267  0.1606
17668W        W60762  18.481  33.477   4.170 -0.1772 -0.0495 -0.1865
17669W        W60763  17.897  31.341   2.214 -0.3363  0.0261 -0.2631
17670W        W60764  18.278  32.534  31.945 -0.1888 -0.1787  0.1589
17671W        W60765  19.970  30.692   2.148 -0.2113  0.2010 -0.2377
17672W        W60766  20.472  30.919   1.579 -0.0368 -0.3827 -0.2135
17673W        W60767  20.553  32.891   1.664  0.1813  0.0902 -0.0491
17674W        W60768  19.910  29.203   0.381  0.1130  0.0111 -0.1279
17675W        W60769  19.137  32.594   1.118 -0.0521  0.1622  0.1872
17676W        W60770  18.622  32.133   1.850  0.1260 -0.1263  0.1145
17677W        W60771  20.910  31.386  31.615  0.0491 -0.2725 -0.0979
17678W        W60772  19.472  32.734  30.676 -0.0828  0.0122 -0.1259
17679W        W60773  20.851  31.208   3.422  0.0395 -0.1425 -0.1330
17680W        W60774  20.174  29.930  31.891  0.0099  0.2656  0.1344
17681W        W60775  21.364  30.151   2.261 -0.0151 -0.2606 -0.0489
17682W        W60776  22.370  30.179   0.598 -0.0169  0.2222 -0.1016
17683W        W60777  22.198  32.701   3.013 -0.1929 -0.2728 -0.0664
17684W        W60778  20.182  30.129   2.240  0.1500 -0.0116  0.0404
17685W        W60779  18.854  28.938  31.373 -0.2131  0.0973  0.0355
17686W        W60780  19.899  30.356   4.700 -0.3480 -0.0443  0.0242
17687W        W60781  21.778  28.959   3.336  0.2513  0.3877 -0.0576
17688W        W60782  18.817  32.369   2.905  0.0692  0.1300 -0.1904
17689W        W60783  21.743  34.172  31.344  0.1814  0.2391  0.1799
17690W        W60784  18.269  28.318   1.165 -0.2408 -0.0389 -0.0448
17691W        W60785  17.993  30.805   1.818 -0.1481  0.0550 -0.1829
17692W        W60786  20.979  29.614   3.261 -0.0577  0.4754 -0.0021
17693W        W60787  19.431  31.348   1.077 -0.2489  0.1051  0.0556
17694W        W60788  20.585  30.497   2.382 -0.2418  0.1637  0.0332
17695W        W60789  18.522  32.084   0.055  0.0562  0.2379  0.2727
17696W        W60790  20.380  32.922   3.157 -0.0773 -0.2952 -0.0252
17697W        W60791  19.576  32.811   1.275  0.0270 -0.2961 -0.0176
17698W        W60792  19.032  30.202   0.999 -0.0695 -0.2526 -0.1332
17699W        W60793  21.487  30.039  31.964  0.3301  0.3471 -0.2244
17700W        W60794  20.215  30.211   1.542  0.1096  0.0791 -0.0030
17701W        W60795  21.992  28.704   3.009  0.3704  0.0480 -0.2163
17702W        W60796  18.979  29.736   2.303 -0.2797 -0.0421  0.1257
17703W        W60797  20.227  30.301   0.910 -0.2839 -0.0579 -0.0606
17704W        W60798  20.293  29.985   3.735  0.1786  0.1373 -0.0495
17705W        W60799  19.754  31.031   3.464  0.0586  0.0877  0.1391
17706W        W60800  21.514  30.918   0.523 -0.0198 -0.1723 -0.2183
17707W        W60801  21.976  30.716   2.879 -0.2673 -0.0279  0.0774
17708W        W60802  21.275  29.351  31.894  0.0713  0.0609  0.3270
17709W        W60803  20.196  33.503   2.423 -0.2731 -0.4186 -0.0652
17710W        W60804  18.093  28.430   4.395 -0.0341 -0.3160  0.0631
17711W        W60805  20.747  29.266   0.125 -0.0503  0.4523 -0.0307
17712W        W60806  19.675  30.341   2.365 -0.5855  0.0059 -0.2154
17713W        W60807  20.729  30.401   3.934  0.0224  0.1765  0.0523
17714W        W60808  22.031  33.100   2.626 -0.1942  0.0909  0.1070
17715W        W60809  19.030  27.049   1.452  0.1506 -0.0239 -0.2647
17716W        W60810  21.328  30.480   1.294  0.0966 -0.2578 -0.0325
17717W        W60811  21.002  29.683   2.017  0.1117 -0.0693 -0.1740
17718W        W60812  19.759  31.654   0.223 -0.0680 -0.1214  0.3358
17719W        W60813  20.697  30.179   0.835 -0.3240 -0.2430  0.2513
17720W        W60814  20.702  31.417   2.096  0.1839  0.2044  0.1112
17721W        W60815  19.221  30.595   2.688  0.0261 -0.0831  0.0550
17722W        W60816  21.269  30.306   2.858  0.2351  0.2175  0.0128
17723W        W60817  22.094  32.060   2.304 -0.1632  0.0753  0.0554
17724W        W60818  20.688  28.169   0.819 -0.2401  0.1981 -0.5523
17725W        W60819  18.342  29.175   1.011 -0.1878  0.3196  0.3048
17726W        W60820  19.931  33.528  31.289 -0.0300  0.2329 -0.0566
17727W        W60821  22.193  29.967   3.268 -0.1259  0.1351 -0.0200
17728W        W60822  20.355  28.967   1.836 -0.1172 -0.1310  0.4787
17729W        W60823  17.678  32.597   1.410 -0.0949 -0.1535 -0.0982
17730W        W60824  20.720  29.048   3.256  0.0457  0.0619  0.0596
17731W        W60825  20.298  32.231   2.871  0.1664  0.3996 -0.0025
17732W        W60826  20.408  32.496   3.576 -0.1162 -0.2012  0.1951
17733W        W60827  18.778  30.214   0.235 -0.2071 -0.0895 -0.1121
17734W        W60828  19.560  31.079   2.014 -0.1204  0.1115  0.2772
17735W        W60829  21.280  30.079   1.669  0.1123 -0.0839 -0.2355
17736W        W60830  18.975  32.870   1.493 -0.2175  0.0116 -0.0103
17737W        W60831  22.484  32.603   0.499  0.0918 -0.2735 -0.1115
17738W        W60832  21.472  29.024   1.415  0.4679 -0.1770  0.1987
17739W        W60833  21.895  31.648   1.238  0.1090 -0.2728 -0.0142
17740W        W60834  18.923  30.316   2.396 -0.1103  0.1510  0.0198
17741W        W60835  21.941  29.520   1.705 -0.1137  0.3629 -0.1373
17742W        W60836  20.669  29.849   0.034  0.0357 -0.2720 -0.0683
17743W        W60837  19.883  30.535   3.267  0.1867  0.0415 -0.2181
17744W        W60838  18.304  30.532   1.199 -0.0700 -0.1480 -0.0835
17745W        W60839  18.897  29.501   1.610 -0.0531 -0.2156 -0.5862
17746W        W60840  18.893  31.702   1.787 -0.2795 -0.0216 -0.0017
17747W        W60841  18.627  29.325   3.553  0.5243  0.1920  0.3687
17748W        W60842  20.045  30.516   3.726  0.2593 -0.0852  0.0836
17749W        W60843  18.408  30.300   2.563  0.2189 -0.0455  0.0487
17750W        W60844  19.203  29.286   1.990  0.3251  0.0312 -0.0785
17751W        W60845  21.217  32.754   1.003 -0.0888  0.1419 -0.2282
17752W        W60846  18.034  28.715   3.398 -0.1117 -0.2268  0.2038
17753W        W60847  17.896  28.683   2.107 -0.1323 -0.1408  0.0691
17754W        W60848  21.064  30.540   2.420 -0.2018  0.2368  0.1623
17755W        W60849  21.643  32.359   0.826  0.1800 -0.1713  0.0656
17756W        W60850  19.572  30.359   2.934  0.1105 -0.0091  0.0423
17757W        W60851  22.152  32.133   3.368  0.2023  0.0058  0.1742
17758W        W60852  16.817  31.110   0.088  0.1008 -0.0600  0.1989
17759W        W60853  21.418  30.857   4.255  0.1128 -0.0347 -0.2476
17760W        W60854  20.902  28.531   2.908  0.3095 -0.2353 -0.1923
17761W        W60855  18.468  28.690   0.000  0.2268  0.1969 -0.0485
17762W        W60856  21.333  29.264   4.038 -0.0515 -0.3535 -0.1766
17763W        W60857  20.383  32.215  31.976 -0.0032  0.0061 -0.1840
17764W        W60858  18.994  32.090   1.484 -0.3134  0.0080 -0.1888
17765W        W60859  21.112  32.086   3.398  0.0426 -0.1224 -0.1355
17766W        W60860  19.972  33.033   1.448  0.4355 -0.3543 -0.0939
17767W        W60861  17.571  28.597   3.616 -0.0461  0.2725  0.2906
17768W        W60862  19.996  30.630   1.641  0.1735 -0.1390  0.2604
17769W        W60863  21.273  31.207   3.762 -0.2361  0.0017 -0.0976
17770W        W60864  21.873  32.245   1.260 -0.1460  0.0628 -0.2252
17771W        W60865  22.952  28.440   2.459 -0.2385  0.2013 -0.0342
17772W        W60866  19.562  30.906   1.540  0.2787  0.0323  0.1550
17773W        W60867  17.290  29.516   4.796 -0.0234 -0.0613  0.0283
17774W        W60868  19.768  30.841   5.444  0.1381 -0.0784  0.1953
17775W        W60869  21.358  31.507   1.344 -0.2133  0.3071 -0.3411
17776W        W60870  17.062  28.520   2.586 -0.0920 -0.0924 -0.0322
17777W        W60871  20.655  29.018   1.303 -0.2341  0.1151 -0.1402
17778W        W60872  20.538  32.373   1.512  0.0997  0.0560  0.2285
17779W        W60873  20.365  30.134   2.740  0.1786  0.0582 -0.1396
17780W        W60874  19.734  30.390   0.821 -0.1410  0.0147  0.0566
17781W        W60875  21.068  30.564   4.590  0.2508 -0.1375 -0.3290
17782W        W60876  19.077  31.297   1.947  0.3271  0.1238 -0.2593
17783W        W60877  21.446  30.791   2.716 -0.1359 -0.3632  0.0602
17784W        W60878  18.974  30.973   0.418  0.1433 -0.0564  0.0137
17785W        W60879  22.932  31.485  31.687  0.0440 -0.1264 -0.3037
17786W        W60880  20.836  32.515   2.042  0.0149  0.1359  0.1876
17787W        W60881  23.276  32.635   2.641  0.0436 -0.1248 -0.1334
17788W        W60882  20.093  32.669   1.770  0.3212  0.1135 -0.3170
17789W        W60883  23.146  31.449   1.797  0.0393  0.1564  0.2918
17790W        W60884  18.500  29.003   4.212 -0.2735  0.1801 -0.0412
17791W        W60885  19.358  28.841   1.246  0.2452  0.0345 -0.0220
17792W        W60886  19.615  30.941   0.767  0.3087  0.0507 -0.3972
17793W        W60887  21.181  28.980   3.121  0.0259 -0.0335 -0.3579
17794W        W60888  19.097  29.445   3.766  0.0788  0.1476  0.2016
17795W        W60889  21.850  29.513   1.212  0.1813 -0.1976  0.0983
17796W        W60890  18.984  33.263   2.554  0.2015 -0.0937  0.1299
17797W        W60891  20.954  30.318   1.959 -0.1363  0.4261  0.0982
17798W        W60892  20.159  32.725   6.317 -0.0355 -0.0947 -0.0662
17799W        W60893  20.299  30.101   5.855 -0.0253  0.1072 -0.1520
17800W        W60894  20.689  28.446   4.687  0.1704  0.1557 -0.2739
17801W        W60895  20.841  30.201   4.380 -0.1984  0.0787 -0.0268
17802W        W60896  17.998  30.576   4.247 -0.2648  0.1611  0.1561
17803W        W60897  20.783  33.900   3.462 -0.3232  0.1035 -0.3294
17804W        W60898  19.232  27.822   7.728 -0.1810 -0.1355  0.2513
17805W        W60899  20.610  31.468   5.628 -0.0301 -0.1321  0.0799
17806W        W60900  20.901  32.763   5.109  0.2235 -0.0717  0.1006
17807W        W60901  21.627  30.062   4.932 -0.3524  0.1214 -0.0893
17808W        W60902  19.043  30.018   6.274 -0.0966  0.2725 -0.1438
17809W        W60903  19.136  27.648   5.250 -0.1276  0.0563  0.0006
17810W        W60904  17.911  29.596   5.464 -0.0702 -0.1990 -0.0847
17811W        W60905  19.754  30.429   6.753 -0.0506 -0.0455  0.1971
17812W        W60906  18.378  30.387   3.912 -0.2249 -0.1140  0.1454
17813W        W60907  18.718  29.366   6.439  0.2650  0.0367 -0.1746
17814W        W60908  19.704  30.424   5.700  0.2122 -0.1655 -0.1696
17815W        W60909  20.293  32.235   5.335  0.0705 -0.0823  0.0239
17816W        W60910  19.698  29.588   6.808 -0.0583 -0.1645  0.2308
17817W        W60911  19.897  29.990   6.562 -0.2646 -0.2109  0.0367
17818W        W60912  21.041  33.125   4.655 -0.1406 -0.2414 -0.1787
17819W        W60913  19.571  30.690   3.832 -0.0187 -0.1821 -0.2630
17820W        W60914  20.023  31.465   3.666 -0.2138 -0.0543 -0.0911
17821W        W60915  17.820  29.273   5.924 -0.1095 -0.0229  0.2051
17822W        W60916  20.969  30.516   5.373  0.4367  0.2953  0.0257
17823W        W60917  21.367  31.583   3.248  0.1002 -0.0162 -0.2414
17824W        W60918  19.376  31.388   4.921 -0.0042 -0.1545  0.1661
17825W        W60919  20.503  32.381   4.822  0.2843 -0.3542 -0.2752
17826W        W60920  20.230  30.465   8.683  0.1095 -0.2413  0.0748
17827W        W60921  18.849  32.306   5.624  0.1956  0.0719 -0.0922
17828W        W60922  19.479  32.849   5.625 -0.1950  0.1062 -0.3808
17829W        W60923  17.940  31.009   4.749  0.2121  0.1126  0.0206
17830W        W60924  22.693  29.956   5.980  0.2517  0.1182 -0.0897
17831W        W60925  21.450  32.710   6.753  0.1584 -0.1846 -0.2095
17832W        W60926  19.111  31.689   7.760  0.3130  0.2717 -0.0576
17833W        W60927  18.026  32.022   4.598 -0.2083 -0.0725 -0.1001
17834W        W60928  19.932  33.347   7.740 -0.5875  0.1927 -0.1198
17835W        W60929  19.243  31.575   5.852 -0.0322  0.0249 -0.0385
17836W        W60930  19.477  30.349   6.322  0.1952 -0.1451  0.0441
17837W        W60931  20.271  30.979   5.530 -0.1926  0.1304 -0.0610
17838W        W60932  19.206  32.839   4.050 -0.0085 -0.2001  0.0767
17839W        W60933  21.027  32.316   4.998  0.4964  0.1276 -0.1280
17840W        W60934  18.890  31.420   7.364 -0.0797 -0.0741 -0.2702
17841W        W60935  20.187  32.605   4.505 -0.0739 -0.4480  0.2244
17842W        W60936  22.743  30.186   7.915 -0.2526 -0.0179  0.0983
17843W        W60937  20.269  33.933   3.637 -0.3054  0.0087  0.2260
17844W        W60938  22.303  29.082   3.198  0.0084  0.1079 -0.1451
17845W        W60939  19.306  31.128   4.446 -0.0342  0.0496  0.3931
17846W        W60940  21.713  30.518   4.665  0.1433  0.1275 -0.0009
17847W        W60941  19.280  29.213   5.735  0.1088 -0.2716  0.0765
17848W        W60942  19.052  32.494   4.944  0.0404 -0.0201 -0.3441
17849W        W60943  19.665  30.045   7.041 -0.0107  0.0754 -0.0625
17850W        W60944  21.997  30.814   7.895  0.0977 -0.0236 -0.1363
17851W        W60945  19.918  30.369   5.194  0.2518 -0.1562 -0.1906
17852W        W60946  21.429  29.972   6.438  0.1681  0.1151 -0.0057
17853W        W60947  19.739  32.129   6.407  0.3933  0.1508  0.4252
17854W        W60948  19.313  31.109   5.543  0.1719  0.2470 -0.1750
17855W        W60949  21.044  32.821   4.152 -0.1728  0.0589  0.3988
17856W        W60950  22.165  31.181   3.074 -0.2467  0.1167 -0.0550
17857W        W60951  20.844  31.898   5.693  0.0564 -0.2416 -0.2055
17858W        W60952  18.130  30.605   5.105  0.0615  0.0678 -0.1822
17859W        W60953  17.779  29.634   7.799 -0.0841  0.1346 -0.0714
17860W        W60954  18.686  30.768   6.001 -0.0455 -0.0516  0.0376
17861W        W60955  19.066  28.421   4.154  0.2323 -0.3249 -0.0695
17862W        W60956  22.236  30.668   7.260 -0.0489 -0.0267  0.2997
17863W        W60957  18.181  31.553   7.760 -0.2962  0.0476  0.0581
17864W        W60958  22.031  29.556   5.529  0.3411  0.1873 -0.1779
17865W        W60959  19.872  31.958   5.391 -0.2288 -0.4257 -0.1668
17866W        W60960  21.554  31.310   6.053  0.0022 -0.0335 -0.3971
17867W        W60961  22.407  30.888   4.000 -0.2227  0.0149  0.0001
17868W        W60962  21.136  29.714   6.832 -0.2903  0.2226  0.1711
17869W        W60963  21.867  29.829   6.490 -0.0814 -0.1115  0.0070
17870W        W60964  19.413  30.550   5.111  0.0774 -0.0844  0.2141
17871W        W60965  19.719  32.782   3.879 -0.1385 -0.1282  0.1725
17872W        W60966  21.907  32.995   6.782 -0.0494 -0.2006  0.0734
17873W        W60967  20.970  29.384   4.599  0.0837  0.0564  0.0831
17874W        W60968  18.307  32.675   4.364  0.1654 -0.1760  0.0504
17875W        W60969  19.863  29.378   7.309  0.0352 -0.2470  0.2599
17876W        W60970  20.345  32.229   6.481  0.4520 -0.0472  0.0207
17877W        W60971  18.553  31.870   3.750  0.0199  0.1062  0.2140
17878W        W60972  17.220  31.758   6.246  0.3323  0.0253  0.0270
17879W        W60973  19.490  31.387   4.074  0.2383 -0.0342  0.0239
17880W        W60974  17.479  28.535   6.320 -0.0947  0.0483 -0.0981
17881W        W60975  20.213  31.806   5.746  0.1723 -0.1045  0.3206
17882W        W60976  19.318  29.167   4.124 -0.3108 -0.1587  0.0532
17883W        W60977  18.132  27.837   6.582 -0.2181  0.0822 -0.3753
17884W        W60978  21.512  28.418   4.254  0.2582 -0.0560 -0.1941
17885W        W60979  18.899  31.489   4.744 -0.1873  0.0271  0.2379
17886W        W60980  21.398  32.624   4.845  0.1232  0.3111 -0.2160
17887W        W60981  22.278  30.416   4.129  0.0056 -0.0978  0.2767
17888W        W60982  21.384  31.950   4.962  0.1031  0.0041  0.2121
17889W        W60983  19.988  31.126   6.381  0.1344 -0.3365 -0.4170
17890W        W60984  18.805  30.891   5.545  0.0558  0.0851 -0.1588
17891W        W60985  18.780  29.608   6.880 -0.0813  0.0117  0.2036
17892W        W60986  18.650  30.370   5.684  0.0309 -0.0392 -0.0581
17893W        W60987  21.671  29.925   6.915 -0.1590 -0.1528 -0.1735
17894W        W60988  18.208  29.579   4.542  0.0526  0.2565  0.0795
17895W        W60989  20.487  29.742   5.564  0.0594  0.1659 -0.1309
17896W        W60990  19.129  29.611   6.110 -0.1274  0.1895  0.2358
17897W        W60991  18.500  31.740   4.416  0.1274  0.0815 -0.1771
17898W        W60992  21.563  30.276   6.039  0.1414 -0.1938 -0.2797
17899W        W60993  19.825  32.182   2.813  0.2895  0.0479 -0.0700
17900W        W60994  21.151  31.505   7.842  0.0789  0.2023  0.1677
17901W        W60995  21.801  32.453   5.077 -0.1064  0.0910  0.1591
17902W        W60996  18.324  28.282   7.140  0.1181 -0.3354 -0.0042
17903W        W60997  19.989  27.977   4.627 -0.0967 -0.0973  0.0471
17904W        W60998  20.034  32.950   5.594 -0.1180 -0.1427 -0.1942
17905W        W60999  17.689  30.752   5.188  0.0942  0.0639 -0.1114
17906W        W61000  19.340  29.198   5.077 -0.0898 -0.0132 -0.1130
17907W        W61001  21.366  32.590   5.386  0.0234  0.0403  0.0693
17908W        W61002  20.659  31.880   5.075  0.0234  0.0430  0.0929
17909W        W61003  18.720  31.589   6.823  0.1646 -0.0004 -0.3197
17910W        W61004  21.115  29.569   6.171 -0.0791 -0.1634 -0.1758
17911W        W61005  21.426  30.786   6.185 -0.0313 -0.0192 -0.1351
17912W        W61006  20.491  30.226   5.332  0.1425  0.2900 -0.0906
17913W        W61007  17.235  28.854   5.319 -0.0699 -0.1089  0.3121
17914W        W61008  21.629  34.047   4.890 -0.0501 -0.1855 -0.1303
17915W        W61009  18.810  32.297   3.778 -0.1256  0.0841  0.0324
17916W        W61010  18.626  30.447   4.347 -0.3018 -0.1999 -0.2396
17917W        W61011  20.857  33.329   5.171 -0.0545 -0.2369  0.1463
17918W        W61012  21.382  29.149   6.231 -0.0294 -0.2809  0.3239
17919W        W61013  18.564  30.219  10.113  0.0445  0.0955 -0.0748
17920W        W61014  20.667  29.867   7.056  0.1360 -0.2675  0.0176
17921W        W61015  19.506  30.244   4.097  0.2589 -0.3251  0.1150
17922W        W61016  19.083  31.062   8.062  0.0692  0.4022 -0.0424
17923W        W61017  19.914  29.909   6.089 -0.2792  0.1341 -0.0489
17924W        W61018  22.015  28.868   4.973  0.0399  0.0728 -0.3569
17925W        W61019  20.473  31.232   6.408  0.3924  0.1918  0.1660
17926W        W61020  21.683  32.076   4.098 -0.2560 -0.4322 -0.0586
17927W        W61021  20.805  28.938   4.429  0.3626 -0.2612 -0.3935
17928W        W61022  19.785  28.520   4.741 -0.1299 -0.0346  0.1315
17929W        W61023  19.704  31.497   6.618  0.1815 -0.1591  0.2816
17930W        W61024  20.125  31.590   4.127  0.1281 -0.1216 -0.2860
17931W        W61025  20.980  31.699   4.618 -0.3015  0.4483  0.3073
17932W        W61026  20.413  29.258   4.336  0.0315  0.0614 -0.1833
17933W        W61027  21.515  31.792   4.504  0.0135 -0.1713  0.3506
17934W        W61028  19.580  32.044   5.865 -0.0481  0.0913  0.0683
17935W        W61029  20.711  31.178   8.078  0.0333  0.1253 -0.0298
17936W        W61030  20.516  32.163   5.999 -0.3961 -0.5366  0.2556
17937W        W61031  19.239  29.473   6.614 -0.1502  0.1006  0.0175
17938W        W61032  20.182  30.001   4.977 -0.1674 -0.0605 -0.0084
17939W        W61033  21.305  29.145   5.491  0.2043  0.3303  0.2965
17940W        W61034  19.247  34.039   4.287  0.2332  0.2517 -0.1364
17941W        W61035  19.674  29.442   5.375  0.1897  0.2006  0.1944
17942W        W61036  19.836  31.463   5.459  0.0510  0.0322  0.1620
17943W        W61037  20.428  28.757   5.559 -0.2677 -0.0170 -0.0122
17944W        W61038  21.570  30.335   7.254  0.1736 -0.0876 -0.1616
17945W        W61039  21.314  30.439   4.997  0.2699 -0.2366  0.1078
17946W        W61040  19.782  30.850   5.968  0.2327  0.1518 -0.0199
17947W        W61041  19.806  31.219   4.463 -0.1128 -0.1131  0.0186
17948W        W61042  21.170  30.570   7.443  0.3247  0.0838 -0.2894
17949W        W61043  18.521  31.168   6.413 -0.0230  0.2265  0.1208
17950W        W61044  19.755  32.294   4.742 -0.0668 -0.3298  0.1938
17951W        W61045  21.284  32.120   6.651  0.0668  0.1790  0.0684
17952W        W61046  21.003  31.149   4.740  0.1508 -0.2635  0.1524
17953W        W61047  21.289  31.055   7.584 -0.0068  0.0682  0.5743
17954W        W61048  19.788  30.975   4.973 -0.0246 -0.4410 -0.0864
17955W        W61049  19.760  33.251   3.680  0.0257  0.0528  0.0059
17956W        W61050  19.715  30.799   2.584 -0.1103  0.0856  0.1038
17957W        W61051  19.316  29.076   6.253  0.4268  0.1370 -0.0364
17958W        W61052  19.764  31.591   5.908  0.2116  0.1841 -0.0089
17959W        W61053  21.030  33.110   3.544  0.0174 -0.1461 -0.0390
17960W        W61054  20.823  30.994   5.982  0.1677  0.1385 -0.0958
17961W        W61055  20.845  32.142   4.487  0.1933  0.1218  0.0211
17962W        W61056  20.091  29.505   5.804  0.1921  0.2916  0.1846
17963W        W61057  18.875  31.372   5.230  0.0125  0.1580 -0.2099
17964W        W61058  19.250  31.060   3.888  0.2203  0.0055 -0.2440
17965W        W61059  17.454  30.999   3.600  0.1321 -0.0931 -0.3350
17966W        W61060  20.716  29.290   5.315  0.5300  0.3190 -0.0602
17967W        W61061  21.741  30.918   4.977 -0.1392  0.2536  0.0713
17968W        W61062  18.065  28.423   6.674  0.2664  0.1508 -0.0548
17969W        W61063  20.561  29.630   6.132 -0.2915 -0.3904 -0.0724
17970W        W61064  18.066  32.526   4.814 -0.1110 -0.0872  0.1823
17971W        W61065  19.477  31.198   6.140 -0.0794 -0.3360  0.0890
17972W        W61066  19.460  29.181   4.602 -0.1216  0.1968  0.1415
17973W        W61067  20.494  32.991   5.767  0.1313 -0.2539 -0.0203
17974W        W61068  19.229  31.418   6.674  0.3833 -0.2410  0.3155
17975W        W61069  18.960  28.916   4.464 -0.0491  0.2192  0.1955
17976W        W61070  22.378  29.091   7.108 -0.1700  0.2698 -0.0892
17977W        W61071  19.022  29.424   4.625 -0.0814  0.1478 -0.0072
17978W        W61072  18.968  31.447   4.244  0.2415  0.1823  0.1016
17979W        W61073  20.478  32.687   5.353  0.2912 -0.0516 -0.3632
17980W        W61074  19.406  30.168   4.812  0.3616 -0.2673  0.0328
17981W        W61075  19.951  31.893   4.515 -0.0220 -0.2028  0.4241
17982W        W61076  18.955  31.134   5.963 -0.1149  0.2606  0.1205
17983W        W61077  21.127  31.165   6.458  0.1923 -0.0249  0.0383
17984W        W61078  21.481  29.580   5.528 -0.1647  0.4575 -0.1252
17985W        W61079  19.535  29.729   5.811 -0.0442 -0.3085  0.0831
17986W        W61080  18.894  29.975   5.796 -0.0668  0.0079  0.0919
17987W        W61081  21.326  31.877   5.451 -0.2165 -0.0033 -0.0204
17988W        W61082  20.198  30.662   6.635 -0.0044 -0.2631 -0.1423
17989W        W61083  19.382  31.197   8.609 -0.0710  0.0545  0.1858
17990W        W61084  19.894  29.026   5.606 -0.1113 -0.1020  0.2980
17991W        W61085  22.432  32.133   4.538 -0.0133  0.1553  0.2040
17992W        W61086  21.247  30.267   6.849  0.1884 -0.1084  0.2149
17993W        W61087  20.193  29.671   4.454  0.1149  0.1701 -0.3565
17994W        W61088  17.753  29.596   6.592  0.0114 -0.0323 -0.2642
17995W        W61089  19.401  32.029   4.235  0.1510 -0.0854  0.2303
17996W        W61090  20.157  29.108   6.153  0.0168 -0.0750 -0.4026
17997W        W61091  19.362  31.555   5.365 -0.1510  0.2204 -0.0617
17998W        W61092  18.354  32.311   3.587  0.0076  0.2038  0.4878
17999W        W61093  19.009  32.910   5.752 -0.1319 -0.2840  0.1940
18000W        W61094  22.690  29.270   3.477  0.1687 -0.0967  0.1111
18001W        W61095  20.263  31.658   5.228  0.0157  0.0252 -0.1393
18002W        W61096  20.049  29.279   4.761  0.0197  0.1657  0.0150
18003W        W61097  21.776  29.993   5.600 -0.1126  0.0541 -0.0929
18004W        W61098  21.573  30.194   3.676 -0.0666 -0.1449 -0.1131
18005W        W61099  21.573  28.395   8.068 -0.0450  0.2440  0.2212
18006W        W61100  18.630  29.841   6.411  0.2476 -0.0772 -0.0394
18007W        W61101  20.702  31.745   6.101 -0.0320  0.0580  0.2719
18008W        W61102  18.801  30.410   7.504  0.0141  0.0448 -0.1128
18009W        W61103  19.025  33.008   8.754  0.2060  0.0201 -0.0239
18010W        W61104  18.888  29.451   7.367  0.0554 -0.0200  0.0115
18011W        W61105  20.481  29.202   5.756  0.2012  0.1649  0.0533
18012W        W61106  18.924  28.951   3.951 -0.0178  0.0013 -0.0854
18013W        W61107  19.816  31.070   6.866 -0.0378  0.1458  0.0479
18014W        W61108  20.744  32.629   5.994 -0.2188 -0.0347 -0.1623
18015W        W61109  20.736  30.825   5.064  0.2043  0.2701 -0.1231
18016W        W61110  22.142  30.150   6.773  0.0020 -0.0007 -0.2207
18017W        W61111  18.780  31.664   5.775  0.2677  0.1429 -0.0278
18018W        W61112  21.830  31.290   5.646  0.1308  0.0533  0.1377
18019W        W61113  21.262  30.946   5.106 -0.0694 -0.0224 -0.1953
18020W        W61114  19.321  32.357   5.368  0.0566 -0.1157 -0.1613
18021W        W61115  19.206  30.241   7.154  0.1149  0.1513  0.1318
18022W        W61116  21.396  30.303   5.499 -0.0711  0.2562 -0.3238
18023W        W61117  19.393  29.729   5.052 -0.1385 -0.0739  0.0921
18024W        W61118  20.011  29.954   5.484  0.2651 -0.2793 -0.0267
18025W        W61119  21.039  29.247   7.895  0.1558  0.0970 -0.2944
18026W        W61120  17.982  30.315   6.048 -0.1849  0.0100  0.1146
18027W        W61121  19.149  28.333   7.708  0.0668 -0.1207 -0.1353
18028W        W61122  21.738  33.058   6.314 -0.1365 -0.0357  0.0301
18029W        W61123  21.885  30.058   4.398  0.1948 -0.0034  0.0807
18030W        W61124  22.576  30.146   5.007  0.0705  0.1767 -0.1271
18031W        W61125  22.225  30.799   4.902 -0.3436 -0.1710 -0.2930
18032W        W61126  21.185  29.856   4.825  0.1367  0.1502  0.0239
18033W        W61127  18.973  28.190   6.893  0.0269 -0.0836 -0.4085
18034W        W61128  22.232  31.411   7.870 -0.2104  0.1608 -0.0369
18035W        W61129  18.920  29.731   4.988  0.2556 -0.0543  0.1143
18036W        W61130  20.916  30.978   7.121  0.1990 -0.0002 -0.0568
18037W        W61131  21.673  32.397   3.259  0.1050  0.0197 -0.0159
18038W        W61132  21.358  31.251   5.625  0.0152 -0.1687 -0.0928
18039W        W61133  20.907  31.051   5.472  0.0818 -0.2571 -0.0864
18040W        W61134  16.787  30.542   5.838  0.1442  0.1148 -0.0916
18041W        W61135  20.394  33.353   5.451  0.1343 -0.0253 -0.2898
18042W        W61136  18.610  29.717   5.474 -0.0662 -0.0470 -0.0678
18043W        W61137  20.056  31.381   3.203 -0.0822 -0.1735  0.3867
18044W        W61138  19.558  30.848   6.477  0.0589  0.0678  0.1591
18045W        W61139  21.440  31.527   8.758 -0.3042 -0.4895  0.0948
18046W        W61140  19.363  28.719   4.773  0.0217  0.1769  0.2990
18047W        W61141  21.658  30.516   6.614 -0.3104 -0.0543 -0.2371
18048W        W61142  19.841  32.225   4.124  0.2336  0.1357 -0.0717
18049W        W61143  21.072  28.480   5.075  0.3706 -0.0301  0.1317
18050W        W61144  20.070  33.708   6.202 -0.0423  0.0619 -0.1675
18051W        W61145  17.913  30.491   7.094 -0.0384 -0.0411 -0.0416
18052W        W61146  19.586  32.680   5.047 -0.0582 -0.0217 -0.1475
18053W        W61147  20.400  29.361   7.319  0.1036  0.1115 -0.4008
18054W        W61148  21.545  30.804   5.553  0.1012 -0.1223 -0.1172
18055W        W61149  20.352  30.057   6.317  0.1215  0.1919  0.1373
18056W        W61150  21.068  30.551   5.908 -0.0853 -0.1083 -0.2459
18057W        W61151  21.020  31.704   6.572 -0.0768  0.0692  0.3751
18058W        W61152  20.318  30.826   6.075  0.1984  0.0079  0.2215
18059W        W61153  20.832  32.267   6.763  0.1495 -0.4903 -0.3441
18060W        W61154  22.109  31.492   5.294 -0.1755  0.0002 -0.1468
18061W        W61155  19.705  32.710   6.022  0.0666  0.0696 -0.2794
18062W        W61156  18.316  29.763   7.270  0.0187  0.1215 -0.0210
18063W        W61157  20.168  31.413   6.765 -0.1738 -0.0047  0.1406
18064W        W61158  20.717  30.831   6.645 -0.0904 -0.4048 -0.0843
18065W        W61159  20.942  27.671   5.584 -0.1210 -0.0974  0.0610
18066W        W61160  20.658  32.871   3.839 -0.1213 -0.4926 -0.2122
18067W        W61161  18.787  30.866   7.737 -0.0021  0.0050  0.0814
18068W        W61162  18.595  30.739   6.646 -0.0936 -0.1426  0.0439
18069W        W61163  19.222  32.438   4.463 -0.0203 -0.3267  0.0568
18070W        W61164  21.554  32.889   3.882 -0.2127 -0.0610  0.1345
18071W        W61165  21.875  31.780   4.887  0.2655 -0.0388  0.2151
18072W        W61166  21.969  33.105   4.111  0.0481  0.2548  0.2465
18073W        W61167  20.624  31.346   5.007 -0.2312  0.1203 -0.1021
18074W        W61168  19.468  31.964   5.009 -0.2251  0.2057 -0.0032
18075W        W61169  17.988  32.586   3.926 -0.0521 -0.0067  0.0800
18076W        W61170  22.049  31.831   3.808  0.2378  0.2178  0.0843
18077W        W61171  18.301  32.163   4.111 -0.1204 -0.0196 -0.0225
18078W        W61172  20.390  30.930   8.374 -0.0632  0.0794 -0.0847
18079W        W61173  20.016  28.608   2.779 -0.2755 -0.1030  0.1192
18080W        W61174  22.165  29.401   5.084 -0.3704 -0.0320 -0.1974
18081W        W61175  22.038  30.901   5.404  0.1466 -0.1693 -0.0465
18082W        W61176  20.434  32.106   7.330 -0.2584  0.3035  0.0367
18083W        W61177  17.707  30.268   5.421  0.1812  0.3657 -0.0430
18084W        W61178  19.999  29.667   3.538 -0.0088  0.0152  0.0525
18085W        W61179  19.366  31.550   7.174  0.2075 -0.0846  0.0559
18086W        W61180  22.956  29.555   7.231  0.0380 -0.0408 -0.2299
18087W        W61181  20.023  32.139   6.024 -0.1379  0.1564  0.1465
18088W        W61182  21.853  32.233   4.550 -0.0428  0.3539  0.0903
18089W        W61183  18.204  30.246   5.453 -0.0884  0.0270 -0.3727
18090W        W61184  20.096  30.853   4.550  0.1661 -0.0396 -0.2946
18091W        W61185  21.191  30.412   6.360  0.0570  0.1032  0.1281
18092W        W61186  20.597  31.167   3.018  0.0383  0.0333  0.1253
18093W        W61187  19.381  30.139   5.940  0.0185 -0.0045  0.1296
18094W        W61188  19.247  31.994   3.652  0.1074  0.1089  0.1029
18095W        W61189  20.120  32.600   5.068  0.3325  0.0937  0.0240
18096W        W61190  20.546  33.048   6.923 -0.2973  0.0512  0.0232
18097W        W61191  17.824  29.637   4.842 -0.2098  0.0722  0.1648
18098W        W61192  21.116  29.275   6.630 -0.0962 -0.1949 -0.2393
18099W        W61193  19.391  31.735   6.294  0.3150  0.3957 -0.1934
18100W        W61194  21.898  29.748   8.013 -0.4227 -0.1802  0.2175
18101W        W61195  19.038  30.913   5.136 -0.4395 -0.1043  0.0021
18102W        W61196  21.123  29.745   4.257  0.2246  0.3623  0.1987
18103W        W61197  21.211  31.804   7.027  0.0969 -0.0994 -0.1183
18104W        W61198  17.798  29.852   5.888 -0.0901 -0.1391  0.0653
18105W        W61199  20.425  30.399   4.541 -0.3208  0.3005  0.0129
18106W        W61200  21.807  29.414   7.577  0.3680 -0.2136 -0.0359
18107W        W61201  20.853  29.373   4.065  0.1301  0.1190  0.2597
18108W        W61202  20.753  32.965   7.335 -0.0130  0.0730 -0.4316
18109W        W61203  18.652  29.508   5.943 -0.1327 -0.0263 -0.2445
18110W        W61204  20.191  28.173   3.871 -0.3030 -0.1001  0.0767
18111W        W61205  20.626  32.504   4.187 -0.0296 -0.2240 -0.1623
18112W        W61206  20.132  30.508   5.615 -0.1542 -0.0354  0.0249
18113W        W61207  21.738  32.830   7.627  0.0266  0.3583 -0.2015
18114W        W61208  18.822  29.164   5.551  0.1845  0.1654 -0.2409
18115W        W61209  21.660  32.170   2.519 -0.0850 -0.2031 -0.1247
18116W        W61210  21.185  29.937   5.858 -0.1761 -0.0765 -0.0926
18117W        W61211  20.377  31.927   3.701  0.1083 -0.0714  0.1825
18118W        W61212  21.322  32.267   4.400  0.2506 -0.0665  0.0673
18119W        W61213  21.372  33.429   6.369 -0.0082  0.0417  0.4913
18120W        W61214  18.975  30.439   6.425 -0.0584  0.0908  0.0086
18121W        W61215  21.185  33.173   5.971  0.1669  0.1542 -0.0570
18122W        W61216  21.445  33.651   7.027 -0.1775  0.0065 -0.1110
18123W        W61217  20.228  28.805   4.767  0.0615 -0.1954 -0.1479
18124W        W61218  20.329  31.085   7.079 -0.1613  0.2196  0.0237
18125W        W61219  17.764  32.594   4.443  0.2260  0.0259 -0.0250
18126W        W61220  21.645  29.558   4.974  0.1723  0.1941 -0.3268
18127W        W61221  21.900  30.400   5.223 -0.3014  0.4210 -0.0331
18128W        W61222  20.463  31.544   3.398 -0.1772 -0.1310  0.3597
18129W        W61223  21.487  29.477   7.173 -0.2795 -0.2559 -0.2292
18130W        W61224  20.254  31.405   6.017  0.1364 -0.1713 -0.2543
18131W        W61225  19.667  31.978   6.905 -0.2531 -0.0626 -0.2482
18132W        W61226  19.942  30.961   3.963 -0.1043 -0.0292 -0.2276
18133W        W61227  20.431  31.546   7.167 -0.0448  0.2566 -0.0219
18134W        W61228  20.697  31.710   4.137  0.0973  0.1933 -0.4204
18135W        W61229  20.420  31.732   4.531 -0.2375 -0.0466 -0.0037
18136W        W61230  20.873  33.571   6.110  0.0168  0.0460 -0.2090
18137W        W61231  19.818  31.620   4.920 -0.1246 -0.1829  0.2054
18138W        W61232  21.188  32.627   6.308 -0.3056 -0.0394 -0.4122
18139W        W61233  19.378  28.255   4.489 -0.1795 -0.0621  0.2454
18140W        W61234  22.124  28.982   5.882 -0.2755  0.1078  0.0701
18141W        W61235  20.679  29.777   4.582 -0.0322 -0.2462  0.3050
18142W        W61236  20.181  32.049   4.902 -0.0732 -0.3994  0.0710
18143W        W61237  19.077  31.953   4.585 -0.0370 -0.1434 -0.0312
18144W        W61238  19.140  30.656   3.578 -0.0523  0.0279  0.1330
18145W        W61239  19.122  30.503   5.595 -0.0286  0.0880 -0.1690
18146W        W61240  20.148  29.537   6.416  0.1534 -0.3009 -0.2044
18147W        W61241  19.280  30.684   6.039  0.1636 -0.0978  0.0092
18148W        W61242  18.020  31.165   6.396 -0.2188 -0.2676  0.0388
18149W        W61243  18.281  29.264   5.601  0.0008  0.2746  0.1251
18150W        W61244  21.624  33.440   4.401  0.0641 -0.4216 -0.0356
18151W        W61245  19.113  29.623   5.480  0.2288  0.2023 -0.1665
18152W        W61246  18.983  30.124   5.299  0.1357  0.1766 -0.4681
18153W        W61247  21.633  31.474   5.218  0.2579  0.0342  0.2150
18154W        W61248  21.154  31.951   4.107 -0.2362 -0.2985  0.0860
18155W        W61249  20.715  29.735   5.053 -0.1080 -0.3942 -0.1687
18156W        W61250  22.139  31.739   8.230 -0.0402 -0.0803  0.0592
18157W        W61251  19.831  31.318   2.405  0.2256  0.0215 -0.2059
18158W        W61252  20.804  30.255   8.922  0.1510  0.1319 -0.0805
18159W        W61253  19.548  30.572   7.187 -0.2040  0.0729  0.2239
18160W        W61254  17.988  29.610   4.039 -0.0799  0.0843  0.1216
18161W        W61255  19.996  29.907   7.351 -0.0351  0.3659 -0.2591
18162W        W61256  20.183  31.302   4.769  0.0943  0.0196  0.1966
18163W        W61257  23.506  32.202   2.444  0.3095  0.0087  0.2279
18164W        W61258  20.238  32.556   5.780  0.3661  0.1679  0.0315
18165W        W61259  20.063  31.754   6.357  0.1150 -0.0288 -0.0056
18166W        W61260  17.985  29.186   6.480  0.0625  0.3102  0.1851
18167W        W61261  21.558  31.305   4.683 -0.0028 -0.1324  0.1356
18168W        W61262  20.762  31.111   7.573 -0.1746 -0.1227 -0.0381
18169W        W61263  22.021  33.611   4.040 -0.0613  0.3667  0.3499
18170W        W61264  22.317  28.060   4.916  0.1631  0.1260 -0.3691
18171W        W61265  20.507  29.369   4.819 -0.3274  0.1373 -0.3063
18172W        W61266  17.950  28.728   6.134  0.3208 -0.1171 -0.2442
18173W        W61267  19.563  30.861   7.873  0.1770  0.0808  0.1221
18174W        W61268  22.500  31.089   5.308 -0.2589 -0.3331 -0.0357
18175W        W61269  18.968  28.413   4.740 -0.0084  0.1458 -0.1122
18176W        W61270  19.520  30.098   5.378  0.2968  0.2291 -0.1250
18177W        W61271  20.770  30.191   5.790  0.0036 -0.1584 -0.2531
18178W        W61272  18.677  30.569   5.191 -0.0010 -0.1201 -0.2656
18179W        W61273  20.890  29.997   6.279  0.0989 -0.1713 -0.0602
18180W        W61274  20.653  30.481   6.210  0.0842 -0.2729  0.1075
18181W        W61275  21.212  33.347   4.011 -0.0810  0.1058 -0.3164
18182W        W61276  21.150  30.905   8.012 -0.1269  0.0293 -0.2833
18183W        W61277  20.615  31.292   4.381  0.0459  0.1981  0.2325
18184W        W61278  21.811  30.911   3.302  0.0923 -0.0478 -0.1162
18185W        W61279  20.445  32.526   6.978  0.1617  0.0983  0.1596
18186W        W61280  23.447  32.592   7.836  0.3643 -0.1247  0.3819
18187W        W61281  19.949  33.304   5.169  0.2977  0.1802 -0.0008
18188W        W61282  20.807  32.360   5.529 -0.1711 -0.2591 -0.1139
18189W        W61283  18.959  28.714   5.714  0.3232 -0.0642  0.1503
18190W        W61284  19.009  30.429   4.812  0.0520 -0.0354 -0.0578
18191W        W61285  19.967  32.281   3.648 -0.2897  0.0182  0.3562
18192W        W61286  22.183  30.132   7.285  0.1573  0.0883  0.2639
18193W        W61287  20.018  30.420   6.251 -0.2854 -0.1618  0.1573
18194W        W61288  21.460  28.890   4.396 -0.0377  0.1752 -0.2013
18195W        W61289  19.424  33.348   5.865 -0.3339 -0.0399 -0.1337
18196W        W61290  20.606  30.657   5.654  0.0767  0.0661  0.0221
18197W        W61291  18.547  31.552   9.884  0.0077 -0.0596 -0.0631
18198W        W61292  19.093  29.480   7.910 -0.1194  0.0876  0.2491
18199W        W61293  22.627  29.948   8.364 -0.0019  0.3135 -0.1228
18200W        W61294  19.819  30.829   9.719  0.2163  0.3328 -0.1497
18201W        W61295  18.372  28.193   9.543 -0.2043  0.2265 -0.1678
18202W        W61296  21.158  31.404   8.352 -0.2166 -0.0784 -0.3360
18203W        W61297  20.577  31.842   8.700  0.0984 -0.1675  0.0611
18204W        W61298  21.172  33.603   9.516  0.1601  0.2646 -0.0553
18205W        W61299  20.953  31.492   7.268  0.0818  0.1419  0.1288
18206W        W61300  18.541  28.769  10.453  0.0505  0.0931  0.0157
18207W        W61301  19.355  29.359   7.501 -0.4215  0.2123  0.0922
18208W        W61302  19.145  29.131   9.612 -0.2175 -0.0546  0.0975
18209W        W61303  21.129  32.607   8.944  0.0702 -0.1068 -0.2180
18210W        W61304  17.734  30.197   7.897 -0.0280 -0.2719  0.1525
18211W        W61305  18.719  28.584   9.706 -0.1561 -0.1039 -0.0369
18212W        W61306  21.001  29.556   9.288 -0.1709 -0.3804 -0.1229
18213W        W61307  20.357  31.456   8.822  0.0237  0.2586  0.1762
18214W        W61308  21.062  29.891  10.480  0.1289  0.0166  0.0440
18215W        W61309  20.174  30.231   8.271  0.1572  0.7048 -0.3002
18216W        W61310  16.872  30.343   6.712 -0.0585  0.0817  0.2722
18217W        W61311  18.093  29.853   9.761 -0.0387 -0.1536 -0.0777
18218W        W61312  17.632  30.130   9.670 -0.1126 -0.1710 -0.1138
18219W        W61313  21.782  30.159   9.697  0.1055  0.0421  0.0912
18220W        W61314  21.488  31.209   9.171 -0.3243 -0.2529 -0.0565
18221W        W61315  18.087  32.118   8.829 -0.2125 -0.0138 -0.3126
18222W        W61316  19.302  31.104   9.602 -0.1054 -0.0136 -0.1913
18223W        W61317  19.569  29.302   8.750 -0.1073 -0.0839 -0.0971
18224W        W61318  18.790  32.429   9.470  0.0014  0.0599 -0.1742
18225W        W61319  20.694  30.346   8.410 -0.3050  0.1454 -0.0352
18226W        W61320  21.576  31.819   8.346 -0.0837 -0.1003 -0.0703
18227W        W61321  19.664  31.341   7.921 -0.2465  0.1241 -0.0768
18228W        W61322  19.006  30.274  10.327 -0.0642  0.0667  0.1956
18229W        W61323  20.495  29.984   9.175  0.2537 -0.2222 -0.0824
18230W        W61324  19.434  30.752   8.338  0.2093  0.0701  0.0864
18231W        W61325  20.990  30.073   9.376  0.3895  0.2857  0.1095
18232W        W61326  19.845  32.578   9.483  0.0113  0.0171 -0.1409
18233W        W61327  20.168  31.978   6.940 -0.1424 -0.1250 -0.0414
18234W        W61328  21.125  30.659   8.846  0.1367 -0.1546  0.2107
18235W        W61329  20.245  29.715   8.178  0.0224  0.1162  0.2067
18236W        W61330  21.189  28.765   7.891  0.1105 -0.2902  0.2035
18237W        W61331  19.122  28.016  10.554  0.0096 -0.0852  0.0393
18238W        W61332  18.602  31.039  10.074 -0.3157  0.2512  0.2143
18239W        W61333  19.253  28.653   9.723 -0.3433  0.3509  0.0245
18240W        W61334  20.892  30.778   8.408  0.0277 -0.2651  0.2237
18241W        W61335  20.657  29.350   9.823 -0.3352 -0.1641  0.0837
18242W        W61336  20.152  29.976   9.963 -0.0298 -0.0216  0.2030
18243W        W61337  19.653  30.171   7.573  0.0765 -0.1415  0.2964
18244W        W61338  22.412  32.333   7.406  0.3443  0.0236  0.0787
18245W        W61339  22.473  32.849   9.491 -0.2488 -0.0745  0.1037
18246W        W61340  21.358  32.362   7.085 -0.1922 -0.0169  0.2605
18247W        W61341  19.298  30.199   8.524 -0.3844 -0.0086  0.0526
18248W        W61342  18.550  30.272   6.205  0.0232 -0.4166  0.2259
18249W        W61343  22.244  29.836   7.655 -0.1316 -0.3022  0.3068
18250W        W61344  19.723  30.023   9.758 -0.2384  0.1821 -0.1136
18251W        W61345  21.182  31.993   9.423  0.1771 -0.2586  0.0956
18252W        W61346  21.737  29.855   7.409 -0.0723 -0.1483  0.3983
18253W        W61347  19.962  28.979   8.505  0.2046  0.1780 -0.1102
18254W        W61348  20.438  29.471   9.285  0.1532 -0.1629  0.1440
18255W        W61349  17.748  30.983   6.784  0.1354 -0.2617 -0.1999
18256W        W61350  18.727  29.681   9.955  0.0448 -0.2403 -0.0770
18257W        W61351  22.870  33.073   9.036 -0.1767 -0.0272  0.0641
18258W        W61352  21.101  31.896   8.505 -0.1332  0.0791  0.1193
18259W        W61353  18.459  31.120   9.589  0.3940  0.0700  0.1453
18260W        W61354  18.639  33.099   7.828  0.2130  0.4660 -0.0936
18261W        W61355  17.997  31.328   8.208 -0.0082  0.1527 -0.3104
18262W        W61356  20.357  30.832   7.503 -0.3436 -0.1517 -0.0320
18263W        W61357  18.103  28.076   9.964 -0.0281 -0.2567 -0.0137
18264W        W61358  17.440  30.269  10.213 -0.3803  0.1593 -0.0976
18265W        W61359  22.429  29.538   8.093  0.0038  0.1733 -0.1556
18266W        W61360  22.497  29.516   9.153  0.0989  0.0960  0.1746
18267W        W61361  18.795  27.960  10.120  0.1698 -0.1228  0.0273
18268W        W61362  20.963  32.816   8.327 -0.1500  0.3550 -0.1004
18269W        W61363  21.653  28.725   7.682 -0.1687  0.0240 -0.0318
18270W        W61364  20.712  31.346   6.812  0.1686  0.0006  0.0177
18271W        W61365  19.319  29.954   8.098  0.1472  0.0651 -0.1327
18272W        W61366  18.660  29.786   8.965  0.0943 -0.2739 -0.0301
18273W        W61367  18.754  29.144   7.687  0.2905  0.1732 -0.2591
18274W        W61368  17.885  28.122   7.479 -0.0370  0.0140 -0.0533
18275W        W61369  20.341  29.160   8.138  0.4432 -0.0138 -0.0707
18276W        W61370  19.694  30.784   8.765  0.1078  0.3166 -0.3335
18277W        W61371  19.164  30.739   7.410  0.0017  0.1356 -0.1236
18278W        W61372  20.546  32.111   7.802  0.2590  0.1012  0.3102
18279W        W61373  21.136  32.238   9.863  0.0520 -0.0470 -0.1423
18280W        W61374  22.012  33.018   9.325  0.2918  0.1799  0.1530
18281W        W61375  19.882  29.315  10.754 -0.0270 -0.2455  0.4545
18282W        W61376  18.277  29.292   8.361 -0.0798 -0.2879 -0.0592
18283W        W61377  17.918  32.677   8.961 -0.1778 -0.1912 -0.1956
18284W        W61378  19.514  30.056  10.227  0.1592  0.0051  0.1845
18285W        W61379  20.065  29.468   7.782  0.1230  0.1332  0.1502
18286W        W61380  20.542  31.851   9.238  0.1055  0.0666  0.2810
18287W        W61381  21.305  32.122   8.041 -0.0463  0.0329  0.0119
18288W        W61382  20.830  30.557   9.389  0.1036  0.2405 -0.5052
18289W        W61383  21.524  30.314   9.300  0.0190 -0.1270 -0.0211
18290W        W61384  19.196  29.946   8.950 -0.2020  0.1365  0.1352
18291W        W61385  21.350  32.084   8.928  0.1625 -0.0803  0.3727
18292W        W61386  18.364  31.744   8.170 -0.2240  0.1153 -0.0844
18293W        W61387  18.826  30.185   8.079 -0.0492 -0.0640  0.2647
18294W        W61388  20.004  30.750   9.212  0.1049  0.0793  0.0343
18295W        W61389  20.395  29.000   9.522  0.1110  0.1713 -0.0665
18296W        W61390  18.803  29.127   9.258  0.1802 -0.0172  0.0976
18297W        W61391  21.007  30.264   8.003  0.1229 -0.1689 -0.3612
18298W        W61392  22.116  30.303   8.693 -0.1186  0.3064  0.0240
18299W        W61393  20.222  32.136   8.750  0.2954  0.1452 -0.1560
18300W        W61394  21.088  29.975   8.503  0.1943 -0.2445  0.2978
18301W        W61395  20.471  29.840   7.545 -0.0689 -0.0131  0.0084
18302W        W61396  20.660  31.256   9.145  0.1912  0.2422  0.2210
18303W        W61397  21.436  31.712   9.815  0.4004 -0.1081 -0.2429
18304W        W61398  20.231  30.304   7.462 -0.0324 -0.0363  0.1097
18305W        W61399  21.824  32.199   8.070 -0.0619  0.0021  0.1307
18306W        W61400  18.512  30.783   8.702 -0.1062 -0.1094  0.1108
18307W        W61401  21.024  33.643   9.010 -0.0217 -0.0311  0.1244
18308W        W61402  18.714  28.260  10.586  0.0819 -0.0099 -0.1174
18309W        W61403  19.271  31.038   6.979  0.1762 -0.1577 -0.1468
18310W        W61404  19.960  27.765   9.572 -0.3419  0.2240 -0.0225
18311W        W61405  18.730  31.128   6.938 -0.1542 -0.1393  0.0086
18312W        W61406  20.864  29.272  10.329 -0.1371 -0.1036 -0.1582
18313W        W61407  21.538  29.543   9.046 -0.3559 -0.0666 -0.1762
18314W        W61408  20.390  30.485   9.137  0.0160 -0.0797  0.1912
18315W        W61409  21.214  30.424   9.696  0.2511 -0.0992 -0.2347
18316W        W61410  20.027  30.664   7.126 -0.0270 -0.1161  0.1344
18317W        W61411  21.649  27.762   9.847  0.0067 -0.0529  0.0279
18318W        W61412  18.467  32.666  10.206  0.3617  0.1578 -0.0430
18319W        W61413  20.086  29.887   9.491 -0.0174  0.0886 -0.1555
18320W        W61414  19.267  30.596   6.762 -0.1690 -0.1388 -0.1946
18321W        W61415  19.861  32.082   7.365  0.2275  0.1151  0.1131
18322W        W61416  20.259  31.467   8.298 -0.1241  0.0104 -0.3886
18323W        W61417  19.926  30.378  10.092 -0.2030 -0.0640  0.3261
18324W        W61418  18.868  31.437   9.401 -0.2555 -0.0563 -0.0892
18325W        W61419  19.961  32.448   6.731  0.1269 -0.1953 -0.1246
18326W        W61420  23.337  31.284  11.859 -0.4053 -0.0504  0.1159
18327W        W61421  18.573  31.890   8.899 -0.1282 -0.1213  0.1977
18328W        W61422  21.949  29.680   9.343  0.0196  0.4882  0.0553
18329W        W61423  18.862  30.525   9.176 -0.0930  0.4757  0.3626
18330W        W61424  17.924  30.071   6.435 -0.4890 -0.1357 -0.4487
18331W        W61425  17.767  30.639   7.604 -0.0712 -0.3724  0.1360
18332W        W61426  21.197  29.502   8.639 -0.1000 -0.1038 -0.4577
18333W        W61427  21.833  31.869   8.748 -0.0205 -0.1724 -0.0289
18334W        W61428  18.680  29.571   9.442 -0.1757 -0.1407  0.1789
18335W        W61429  19.371  28.976  10.097 -0.0991 -0.0832  0.1068
18336W        W61430  18.518  32.024   9.872 -0.0540 -0.1304 -0.0022
18337W        W61431  20.870  28.414   8.292 -0.0463  0.0886 -0.0186
18338W        W61432  18.869  30.649   7.015  0.1775  0.0439  0.3910
18339W        W61433  22.147  29.235   9.307 -0.4224 -0.1809  0.2282
18340W        W61434  19.707  29.894  10.667  0.2111  0.0894  0.0351
18341W        W61435  18.890  31.354  10.413 -0.0027 -0.0889  0.0352
18342W        W61436  19.826  32.676  10.017 -0.1543  0.3046 -0.0729
18343W        W61437  19.612  29.664   7.815 -0.0098 -0.1721  0.3805
18344W        W61438  19.187  29.530   9.326 -0.0434 -0.0125 -0.2720
18345W        W61439  22.288  30.455   9.624  0.0862 -0.0103  0.1182
18346W        W61440  20.231  29.909  10.519 -0.0574  0.0807 -0.2067
18347W        W61441  19.398  29.499  10.572 -0.0907 -0.0203  0.0379
18348W        W61442  19.348  30.225   9.481  0.2311  0.2994  0.5800
18349W        W61443  22.154  27.940   9.928 -0.1636 -0.2248 -0.1032
18350W        W61444  18.508  29.862  10.483  0.0032 -0.0746 -0.2117
18351W        W61445  19.179  28.105   9.199  0.0120 -0.0498  0.0457
18352W        W61446  23.375  32.694   8.347  0.2728 -0.0121 -0.2269
18353W        W61447  20.113  31.757   7.717 -0.4316 -0.1860  0.0762
18354W        W61448  18.189  28.606   9.761  0.1322 -0.2038 -0.0936
18355W        W61449  19.934  30.686   8.343 -0.1897  0.1299  0.4346
18356W        W61450  20.320  29.108  10.101  0.0287 -0.2130 -0.0140
18357W        W61451  19.586  28.915  10.552 -0.0166 -0.5071 -0.0611
18358W        W61452  19.471  31.659   8.344  0.0543 -0.0383 -0.0617
18359W        W61453  19.650  31.960   9.479 -0.0175 -0.1007 -0.2243
18360W        W61454  21.660  28.806   8.236 -0.2002 -0.1615  0.0471
18361W        W61455  20.781  31.718   8.183 -0.2721  0.3257  0.0244
18362W        W61456  21.317  30.771   9.366  0.0443 -0.1558 -0.0769
18363W        W61457  20.724  31.267   8.580 -0.1670 -0.1839 -0.0457
18364W        W61458  16.388  29.124  10.467 -0.0160 -0.1167  0.1705
18365W        W61459  20.475  30.326  10.210  0.0380 -0.0332  0.2523
18366W        W61460  21.282  30.446   8.361  0.0411 -0.0254 -0.4181
18367W        W61461  18.291  29.020   7.895 -0.0990 -0.0945  0.1457
18368W        W61462  20.916  29.051   9.492  0.2289 -0.0093 -0.4160
18369W        W61463  20.715  30.600   9.894 -0.0998  0.2129  0.1318
18370W        W61464  20.237  31.307   7.580 -0.0842 -0.0721 -0.0843
18371W        W61465  21.228  29.081   8.364  0.4757  0.2626  0.1151
18372W        W61466  19.593  29.452   9.657 -0.2928 -0.0176 -0.1515
18373W        W61467  21.924  28.810   8.755 -0.0521  0.0711  0.2141
18374W        W61468  21.588  31.202   8.050 -0.0751  0.1237  0.1263
18375W        W61469  19.309  31.169   9.075  0.1249  0.2496 -0.1676
18376W        W61470  20.561  31.477   9.643  0.0873 -0.2144  0.0138
18377W        W61471  20.707  29.851   8.175  0.0892 -0.0253 -0.1695
18378W        W61472  20.103  33.758   9.342 -0.2474 -0.2188  0.2738
18379W        W61473  22.582  30.325   6.983 -0.0159  0.1229  0.1549
18380W        W61474  21.565  30.034  10.655 -0.1234  0.1322 -0.1209
18381W        W61475  21.519  31.710   9.243 -0.2507  0.0082  0.1922
18382W        W61476  20.249  32.052   8.230 -0.0516  0.2248  0.4423
18383W        W61477  18.978  28.930   8.734  0.2343 -0.0456  0.0392
18384W        W61478  18.869  30.167   6.804 -0.1179  0.0093 -0.1219
18385W        W61479  19.596  32.180   8.507 -0.1077  0.0236 -0.2461
18386W        W61480  20.406  30.850   9.563 -0.0102  0.0585 -0.2341
18387W        W61481  20.798  29.406   8.319 -0.0453  0.0124 -0.1253
18388W        W61482  19.820  29.666  10.227 -0.0630  0.1074 -0.1413
18389W        W61483  18.000  29.052   7.024 -0.2677  0.1351 -0.0493
18390W        W61484  19.697  30.325   8.079  0.1675 -0.1174 -0.0065
18391W        W61485  19.231  29.830   9.736 -0.0329 -0.3278  0.2506
18392W        W61486  20.757  30.248   7.367  0.0925  0.0900 -0.3829
18393W        W61487  19.859  31.148   8.433 -0.2652 -0.0371  0.0938
18394W        W61488  19.568  28.497   7.876 -0.3125 -0.2607 -0.2470
18395W        W61489  19.154  31.954   9.689  0.1348  0.3249 -0.0225
18396W        W61490  19.927  31.712   8.576  0.0954 -0.0616 -0.2260
18397W        W61491  21.003  28.316  10.434 -0.5083  0.1779  0.0825
18398W        W61492  21.268  29.993   9.004 -0.1596  0.0273 -0.2330
18399W        W61493  20.762  29.646   8.868 -0.1122  0.1846  0.1642
18400W        W61494  19.615  29.859   9.298  0.2035  0.1772 -0.0439
18401W        W61495  20.590  31.438  10.226 -0.1267  0.0638  0.0542
18402W        W61496  19.504  30.334   9.008 -0.1182 -0.2166 -0.0331
18403W        W61497  20.657  29.759  10.202 -0.0103 -0.1656 -0.0014
18404W        W61498  19.778  29.320   8.153  0.2475  0.0572 -0.3199
18405W        W61499  21.046  31.917   7.582 -0.1770 -0.1665 -0.3194
18406W        W61500  17.765  29.660  10.716 -0.0954  0.1748 -0.0859
18407W        W61501  18.881  31.101   8.584  0.2060  0.0629  0.1010
18408W        W61502  19.330  32.043   7.318  0.0879  0.0137  0.3704
18409W        W61503  21.433  30.024   7.871  0.0776 -0.2579  0.0255
18410W        W61504  20.465  32.559   8.145  0.0518 -0.1227  0.2442
18411W        W61505  20.534  30.589   7.052 -0.0494 -0.2357 -0.0908
18412W        W61506  19.763  31.314   9.431  0.0866 -0.1548 -0.0888
18413W        W61507  18.657  32.065   8.458  0.0461  0.1536  0.1412
18414W        W61508  21.510  31.961   7.481 -0.0874  0.1839  0.1685
18415W        W61509  19.807  31.320   8.894 -0.1356 -0.3337 -0.1381
18416W        W61510  22.897  29.075   7.480  0.2715  0.1214 -0.1299
18417W        W61511  21.908  31.252   8.711  0.2018 -0.1819  0.0373
18418W        W61512  22.182  29.778   8.436  0.0322 -0.0373 -0.1056
18419W        W61513  19.176  28.442   8.763  0.0952  0.1517  0.3007
18420W        W61514  19.942  28.833   7.387 -0.1374 -0.3860  0.0031
18421W        W61515  21.479  32.874   8.572  0.2802 -0.3314 -0.0901
18422W        W61516  20.293  30.645   7.981  0.3235 -0.0375  0.2839
18423W        W61517  21.195  31.556  10.492 -0.2824  0.0047 -0.1828
18424W        W61518  19.756  27.578   9.945 -0.2074 -0.1652 -0.1018
18425W        W61519  19.902  31.587   7.203 -0.1995  0.2400  0.1186
18426W        W61520  21.551  30.640  10.335  0.1870  0.1791 -0.1753
18427W        W61521  19.523  33.240   8.693 -0.1109  0.2051  0.0289
18428W        W61522  18.988  31.534   8.312  0.1485  0.1885 -0.1376
18429W        W61523  18.206  30.627  10.270 -0.2449  0.0269 -0.1177
18430W        W61524  18.141  27.096   8.236 -0.0510  0.1265 -0.0531
18431W        W61525  21.903  30.615   9.269  0.1435 -0.3087 -0.2303
18432W        W61526  20.337  30.316   9.644  0.1231  0.0810 -0.1723
18433W        W61527  18.807  29.954   7.247 -0.0530 -0.1277  0.1049
18434W        W61528  21.297  29.000   8.898  0.0579 -0.2291 -0.0968
18435W        W61529  20.000  30.057   8.984  0.1107 -0.2520 -0.3349
18436W        W61530  18.565  29.318  10.598 -0.2191  0.0754 -0.0647
18437W        W61531  19.737  31.040   7.368  0.0325 -0.0255  0.0264
18438W        W61532  21.906  30.706   8.522 -0.3091 -0.2223 -0.1007
18439W        W61533  18.913  29.247   8.294  0.3083 -0.1955 -0.0866
18440W        W61534  19.199  28.879   7.847  0.1985 -0.2558  0.0909
18441W        W61535  19.789  30.287   8.575 -0.1986  0.1152  0.1011
18442W        W61536  21.067  30.456  10.336  0.0024 -0.1746 -0.2039
18443W        W61537  18.840  29.073  10.034 -0.2024 -0.1916 -0.0844
18444W        W61538  22.454  31.742   7.277  0.2277 -0.1363 -0.1534
18445W        W61539  22.997  30.776   9.729 -0.0544  0.0910  0.0392
18446W        W61540  19.689  32.491   8.019 -0.0966  0.0257  0.3979
18447W        W61541  20.643  30.847   8.878  0.3404 -0.1381  0.1899
18448W        W61542  20.713  33.165   9.738  0.0886 -0.1022 -0.0653
18449W        W61543  18.606  27.796   8.780  0.3226 -0.2431  0.2297
18450W        W61544  20.897  31.086   9.515 -0.2001  0.0463 -0.1616
18451W        W61545  21.670  33.278   9.661  0.3433 -0.3589  0.0665
18452W        W61546  20.708  28.852   8.093  0.1387  0.1800 -0.1620
18453W        W61547  18.918  29.577  10.399  0.0774 -0.0862  0.0792
18454W        W61548  17.566  32.956   9.289 -0.2586  0.1353 -0.0502
18455W        W61549  21.710  29.093   9.138  0.1687 -0.1200 -0.1111
18456W        W61550  21.321  31.252   6.902 -0.0157  0.2590  0.1974
18457W        W61551  19.809  28.839  11.068 -0.2790 -0.2725 -0.0763
18458W        W61552  18.721  29.773   7.715  0.2563 -0.1162 -0.1112
18459W        W61553  19.748  31.620   9.934  0.0080 -0.1620  0.0020
18460W        W61554  20.727  30.681   7.801  0.0099 -0.0794 -0.1155
18461W        W61555  21.022  31.369   9.940 -0.0623 -0.0194  0.0954
18462W        W61556  21.419  30.924   8.507 -0.0151  0.3192  0.1814
18463W        W61557  22.282  32.739   9.942  0.2102 -0.1009 -0.1312
18464W        W61558  20.481  29.215   8.663 -0.1843 -0.3183 -0.1123
18465W        W61559  22.989  28.970   8.549  0.2135 -0.2267 -0.0675
18466W        W61560  20.794  29.130   8.999 -0.0716 -0.2113  0.1920
18467W        W61561  22.272  30.081   9.342 -0.4573  0.2852  0.0441
18468W        W61562  17.172  30.257   7.124 -0.1696 -0.2969  0.1426
18469W        W61563  18.233  30.618   7.544  0.1573 -0.5634 -0.3641
18470W        W61564  19.087  29.370   8.864 -0.0660  0.0002  0.0905
18471W        W61565  18.866  30.793   9.543  0.2157 -0.0465  0.0133
18472W        W61566  18.302  29.511   6.770 -0.1991  0.0491 -0.2752
18473W        W61567  21.565  32.478   9.073 -0.2440 -0.0292  0.1098
18474W        W61568  18.917  27.625   9.407  0.3325  0.0499  0.3531
18475W        W61569  18.649  28.141   9.155 -0.1645 -0.1695 -0.0293
18476W        W61570  20.139  30.952   8.768 -0.0775  0.0170  0.1988
18477W        W61571  20.956  31.625   8.896  0.0368  0.0274  0.0162
18478W        W61572  20.921  29.504   7.296  0.4118 -0.5154  0.0433
18479W        W61573  18.033  31.020   7.822  0.0953  0.0675 -0.1193
18480W        W61574  18.089  27.844   8.715 -0.0701 -0.0748  0.0861
18481W        W61575  19.863  28.171   9.881  0.1742 -0.0197 -0.0347
18482W        W61576  20.891  32.376   7.341 -0.4261  0.3527 -0.0914
18483W        W61577  22.074  32.623   7.944  0.0494  0.1850  0.0121
18484W        W61578  18.445  27.624   9.948 -0.1313 -0.3462  0.1113
18485W        W61579  20.044  31.072   7.990 -0.0983 -0.1375  0.2167
18486W        W61580  21.671  31.645   7.839 -0.1215 -0.0702 -0.2912
18487W        W61581  21.662  30.816   8.933  0.0345  0.0443 -0.1455
18488W        W61582  20.248  30.758  10.044 -0.0633 -0.1426 -0.3563
18489W        W61583  24.340  34.154   9.113  0.0708 -0.3428  0.0212
18490W        W61584  19.202  29.435  10.020  0.1568 -0.1401  0.1064
18491W        W61585  21.630  29.211   8.616 -0.3465  0.1406 -0.0388
18492W        W61586  20.642  31.642   7.629 -0.1297  0.2039 -0.0676
18493W        W61587  17.903  29.025   9.560 -0.0666  0.0718 -0.0625
18494W        W61588  20.533  30.177   7.870 -0.2112 -0.0536  0.1362
18495W        W61589  20.773  31.812   9.911  0.0048  0.0058  0.2050
18496W        W61590  19.928  30.607   7.673  0.2786  0.0512 -0.0432
18497W        W61591  21.782  30.194   8.267 -0.1048 -0.2226  0.0601
18498W        W61592  20.722  32.223   9.477  0.0238 -0.1430 -0.1768
18499W        W61593  20.335  32.561   9.826  0.3815  0.1044  0.0178
18500W        W61594  20.888  30.109   9.937  0.2975 -0.1730  0.2340
18501W        W61595  19.745  28.616   9.672 -0.2999 -0.2817  0.1598
18502W        W61596  19.621  29.780   8.769 -0.1637  0.1348 -0.2025
18503W        W61597  20.426  29.955   8.658 -0.3594 -0.3783  0.3128
18504W        W61598  20.969  29.269  10.826 -0.3410 -0.0070  0.1329
18505W        W61599  23.207  30.305   9.894 -0.0275 -0.1367 -0.1217
18506W        W61600  21.484  28.890   6.752 -0.0034  0.1778  0.0385
18507W        W61601  20.434  33.086   9.056  0.1976  0.0259  0.1301
18508W        W61602  21.031  29.630   9.892  0.0966  0.3463  0.2443
18509W        W61603  18.730  34.026   1.246  0.1315 -0.0517 -0.0189
18510W        W61604  20.443  32.661   0.329  0.2240 -0.0337 -0.0397
18511W        W61605  21.849   1.189   0.637  0.2884  0.3376 -0.0321
18512W        W61606  17.274  32.187   2.198 -0.3904  0.4709 -0.0785
18513W        W61607  19.971  33.930   2.784 -0.2978  0.0422  0.1352
18514W        W61608  21.459  34.480  31.823 -0.1587  0.0123  0.0944
18515W        W61609  19.541  34.526   1.756 -0.1191 -0.0086  0.0526
18516W        W61610  20.749  32.286  31.075 -0.2221  0.1799 -0.3659
18517W        W61611  17.219  32.899   2.170  0.2108  0.2698 -0.1794
18518W        W61612  22.686  33.321   3.175  0.0388 -0.1076 -0.1339
18519W        W61613  18.539  33.622   1.596 -0.0893 -0.1248 -0.0482
18520W        W61614  18.903  34.349   2.963 -0.2832  0.1494  0.0878
18521W        W61615  18.909  34.184   0.594  0.3517  0.1775 -0.1111
18522W        W61616  20.252  33.219   1.870 -0.0104 -0.2755  0.3370
18523W        W61617  19.795  31.829   1.250 -0.2765 -0.0019 -0.0936
18524W        W61618  18.373  33.204   1.979 -0.0878  0.0046 -0.0659
18525W        W61619  19.277  33.734   2.583 -0.4597 -0.2012 -0.0372
18526W        W61620  18.304   0.043   2.995 -0.1523  0.0962  0.1178
18527W        W61621  20.858  34.655   1.006 -0.2336 -0.0176 -0.0695
18528W        W61622  20.843  34.162   1.231  0.0286  0.0969 -0.5128
18529W        W61623  21.625  33.078   2.281 -0.1247 -0.1646 -0.0290
18530W        W61624  20.769  33.476   2.564  0.3273 -0.0808  0.0202
18531W        W61625  19.560   0.238   0.897 -0.3860 -0.0546  0.0034
18532W        W61626  23.442  33.035   4.127 -0.1880 -0.0501 -0.0876
18533W        W61627  20.799  32.377  31.573 -0.1605 -0.1465 -0.1164
18534W        W61628  20.406  33.038   1.202  0.4101 -0.0067 -0.2588
18535W        W61629  18.801  32.050   1.034 -0.1658  0.6085 -0.1752
18536W        W61630  21.163  32.701   1.737 -0.2429 -0.0014  0.1341
18537W        W61631  19.306   0.610   0.657 -0.0951  0.2522  0.1731
18538W        W61632  20.653  34.678   2.711  0.0424 -0.0789  0.1796
18539W        W61633  18.489  33.882   1.999 -0.0622  0.0767 -0.2225
18540W        W61634  18.369  34.147   1.608 -0.0665 -0.3833 -0.1513
18541W        W61635  18.108  34.226   4.820  0.3537  0.0750  0.2572
18542W        W61636  18.819   0.102   2.749  0.1692 -0.1740  0.1945
18543W        W61637  18.653  31.783  31.416  0.1886  0.0084  0.2063
18544W        W61638  21.600  34.375   1.779 -0.0284 -0.0985 -0.1663
18545W        W61639  21.981  33.043   1.830  0.0900 -0.2153 -0.0056
18546W        W61640  23.161  32.885   1.840 -0.1860 -0.2552 -0.2941
18547W        W61641  20.060   0.016  31.559 -0.1899  0.3942  0.3237
18548W        W61642  20.298  33.800   3.134  0.3615  0.0458  0.0660
18549W        W61643  17.832  33.249   2.170 -0.1312  0.1465  0.3627
18550W        W61644  20.105  32.532   1.296 -0.1306  0.1110 -0.0948
18551W        W61645  19.421  33.685   3.395  0.0609  0.1201 -0.1393
18552W        W61646  23.476  33.214   1.598 -0.1138  0.0696 -0.0460
18553W        W61647  20.493  33.051   0.014  0.0358  0.1164 -0.0424
18554W        W61648  17.809  33.123   3.910  0.0946  0.1252  0.2648
18555W        W61649  18.925  32.825   0.716 -0.0195  0.2138  0.0669
18556W        W61650  19.236  34.545   3.971  0.0446 -0.0013 -0.1616
18557W        W61651  18.082  33.300   1.518 -0.1787 -0.0566 -0.0116
18558W        W61652  21.300  33.021   2.735  0.1511  0.2547  0.1840
18559W        W61653  17.912  32.827  31.695  0.0790  0.1930  0.3917
18560W        W61654  20.392  33.872   1.488  0.2166  0.2265 -0.0746
18561W        W61655  18.665  34.471   0.973  0.0568 -0.4143  0.1327
18562W        W61656  21.121  33.599   3.472 -0.1957 -0.3157 -0.1839
18563W        W61657  19.378  34.036   2.980  0.1073  0.1814  0.0699
18564W        W61658  19.393  32.891   0.422  0.2289 -0.0611  0.1951
18565W        W61659  19.003  33.726   0.899 -0.0665  0.1199  0.1260
18566W        W61660  21.358  32.232   2.877 -0.0217 -0.0609 -0.4029
18567W        W61661  20.547  33.055   0.566  0.0413 -0.2504 -0.0272
18568W        W61662  19.118   0.302   0.142 -0.2129  0.1973 -0.0043
18569W        W61663  17.709  34.046   2.765  0.3336  0.0957 -0.1715
18570W        W61664  22.576  32.936   1.733 -0.0810  0.0815  0.1001
18571W        W61665  19.871  34.582   5.928  0.2459  0.0087 -0.0291
18572W        W61666  20.743  34.282   3.145  0.0529  0.1245  0.1500
18573W        W61667  18.478   0.113   0.058  0.1434 -0.0353  0.1327
18574W        W61668  19.955  33.698   1.794  0.1609  0.1918 -0.0604
18575W        W61669  20.911  34.634   0.475 -0.1161  0.0895  0.1203
18576W        W61670  20.601  33.660   0.977  0.1760 -0.1320 -0.1791
18577W        W61671  18.508  33.547  31.004 -0.1982  0.0331 -0.0593
18578W        W61672  20.629  32.867  31.538  0.0679 -0.0228  0.0525
18579W        W61673  20.419  34.024   2.232  0.1972 -0.1204  0.0383
18580W        W61674  18.714  33.294   0.674 -0.1264 -0.1493  0.5002
18581W        W61675  20.779  33.942   2.767  0.1323 -0.1155 -0.3974
18582W        W61676  20.955  33.831   2.249 -0.0595  0.0915 -0.2759
18583W        W61677  19.430  31.899   1.613 -0.0031 -0.3586 -0.1760
18584W        W61678  20.119  33.361   3.360 -0.3012  0.2263 -0.0336
18585W        W61679  22.614  32.377   3.242  0.1204  0.0425 -0.1605
18586W        W61680  21.029  34.054   0.538  0.1942  0.2770  0.1034
18587W        W61681  21.189   0.251   1.297 -0.3125  0.1094  0.3314
18588W        W61682  19.595   0.595   0.139 -0.3182  0.2412  0.0675
18589W        W61683  20.084  33.957   4.118 -0.1864  0.2672  0.3384
18590W        W61684  21.001  32.644   2.804  0.2706 -0.0759  0.2574
18591W        W61685  20.860  32.671   1.312 -0.2317  0.0599  0.0276
18592W        W61686  19.450  33.174   1.536 -0.6066 -0.1140 -0.2053
18593W        W61687  22.423  32.061   1.175 -0.1238 -0.0543  0.0030
18594W        W61688  20.571  33.659  31.922 -0.1478  0.2126 -0.1201
18595W        W61689  18.470  32.938   1.601  0.2946  0.1657  0.1452
18596W        W61690  20.724  34.088   1.857 -0.1304 -0.0016  0.0689
18597W        W61691  18.866  34.018   1.765  0.2057  0.0086  0.1057
18598W        W61692  19.256  32.822   2.414 -0.0416  0.2223 -0.0488
18599W        W61693  19.383  33.286   2.179  0.0847 -0.0192  0.6016
18600W        W61694  19.850  31.985   2.020  0.0656  0.0857 -0.0877
18601W        W61695  18.936  34.308   2.408 -0.2896  0.0569 -0.0714
18602W        W61696  17.853  33.076   0.674 -0.2539 -0.0896  0.0153
18603W        W61697  22.963  32.128   3.007 -0.1253  0.3527  0.0077
18604W        W61698  20.002  34.623   1.541  0.1287  0.0375  0.1106
18605W        W61699  18.940  33.871  31.635 -0.3298 -0.0237  0.0830
18606W        W61700  19.852  33.956   3.300 -0.1800  0.1311 -0.1579
18607W        W61701  18.489  34.407   2.190  0.1856 -0.2513  0.0715
18608W        W61702  18.992  33.268   1.233  0.0333 -0.0643  0.1434
18609W        W61703  19.667   0.444   2.322  0.3781  0.0714 -0.0653
18610W        W61704  20.618  32.835   4.610  0.1009 -0.0594  0.1197
18611W        W61705  19.288  32.865   1.906  0.1654 -0.3124 -0.2437
18612W        W61706  21.323   0.767   3.176 -0.0759 -0.0072  0.0464
18613W        W61707  19.840  34.044   1.480  0.2337  0.1934 -0.4249
18614W        W61708  21.603  31.410   0.920 -0.2169 -0.1049 -0.1734
18615W        W61709  20.849  33.156   1.982 -0.1164  0.0885  0.3046
18616W        W61710  22.361  33.448   2.743  0.0315 -0.1154  0.1196
18617W        W61711  18.944  34.347  31.467 -0.2209  0.4246 -0.2375
18618W        W61712  20.773  32.160   3.883 -0.0195  0.4502  0.4121
18619W        W61713  18.414  33.075   2.483  0.0190 -0.4689 -0.0772
18620W        W61714  19.778  33.519   2.992 -0.1892  0.2011  0.1811
18621W        W61715  18.743  34.502   4.342  0.0628  0.3392  0.1048
18622W        W61716  20.170  33.386   0.774  0.2042 -0.1030  0.2913
18623W        W61717  18.512  31.458  31.835 -0.1745  0.1538 -0.1452
18624W        W61718  19.005   0.472   2.968 -0.1464 -0.0633  0.1133
18625W        W61719  21.999  33.559   2.007  0.3816 -0.1037  0.2221
18626W        W61720  18.890   0.791   3.922 -0.2278  0.3313 -0.2423
18627W        W61721  20.731   0.097   1.613  0.0825 -0.1824 -0.2583
18628W        W61722  19.866  33.175   2.435 -0.0614 -0.4805  0.2482
18629W        W61723  22.349  33.303   2.291 -0.0835 -0.1156 -0.1737
18630W        W61724  20.349  34.535   2.234 -0.1327 -0.0897 -0.2164
18631W        W61725  22.394  34.635   3.462  0.0036 -0.0424 -0.1716
18632W        W61726  19.469  34.288   3.408  0.3038  0.0601  0.1567
18633W        W61727  18.514  34.351   2.703  0.0867 -0.2021  0.0317
18634W        W61728  21.869  34.558   0.312 -0.0120 -0.3990 -0.0382
18635W        W61729  24.178  32.965   3.158 -0.0133 -0.1044  0.2486
18636W        W61730  21.401  33.641   0.678  0.1634 -0.2519 -0.1285
18637W        W61731  20.804  34.112  31.775  0.4275  0.0686  0.1020
18638W        W61732  19.329  34.123   1.478 -0.6003  0.1950  0.0468
18639W        W61733  21.225  34.084   3.584 -0.0067 -0.1328 -0.1370
18640W        W61734  18.566  33.982  31.282 -0.1052  0.1224 -0.0744
18641W        W61735  20.192  32.949   3.668 -0.3625 -0.0536  0.0912
18642W        W61736  20.639  32.610   0.907 -0.1098 -0.0287 -0.1525
18643W        W61737  19.196  34.262   0.987 -0.1448 -0.2015 -0.1810
18644W        W61738  18.058   0.421   0.047 -0.3972  0.2017 -0.0235
18645W        W61739  20.041  33.708  31.699 -0.0661  0.1696 -0.0380
18646W        W61740  20.914  31.244   1.502 -0.2112  0.1438 -0.0650
18647W        W61741  22.355  34.039   2.806  0.0776 -0.2972  0.1813
18648W        W61742  21.005  30.732   2.925 -0.1342 -0.0226  0.0351
18649W        W61743  20.759  32.925   2.448 -0.1992  0.1879 -0.2373
18650W        W61744  21.636  34.546   2.840 -0.1553  0.0164  0.1602
18651W        W61745  19.736  33.679   2.312  0.2693  0.1319  0.2894
18652W        W61746  22.265  32.577   2.563  0.0498 -0.2606 -0.0090
18653W        W61747  19.245  34.078   2.066 -0.2135 -0.2132  0.2849
18654W        W61748  18.319  33.266   3.204  0.0355  0.0504  0.1307
18655W        W61749  19.909  32.912   0.404 -0.0389  0.2076 -0.1439
18656W        W61750  20.162  33.885   0.976 -0.0830  0.2320  0.0822
18657W        W61751  21.834  31.741   0.578 -0.1581 -0.0946  0.2141
18658W        W61752  21.529  34.243   0.594 -0.2757  0.2051  0.1119
18659W        W61753  22.271  33.640   0.689  0.0595 -0.3035  0.1942
18660W        W61754  19.406  33.647   1.807  0.2799 -0.0416  0.0672
18661W        W61755  18.681  32.568   0.316 -0.0029 -0.3090  0.1800
18662W        W61756  20.335  33.256   2.788  0.0522  0.2586 -0.2754
18663W        W61757  23.209  33.367   3.473  0.0998  0.1140  0.0012
18664W        W61758  18.214  33.431   0.474 -0.1826  0.4141 -0.1660
18665W        W61759  19.578  34.465   1.236  0.2673  0.1769  0.0113
18666W        W61760  23.273  33.099   2.363 -0.1061 -0.0698  0.0525
18667W        W61761  21.146  34.499   1.461 -0.3187 -0.0883 -0.1197
18668W        W61762  19.171  32.185   0.712 -0.1383  0.2194  0.0513
18669W        W61763  22.760  33.974   1.547 -0.0680  0.2203 -0.0929
18670W        W61764  19.285  34.594   2.737  0.0776  0.0897 -0.0662
18671W        W61765  22.991  33.928   1.049 -0.0532 -0.0009  0.1354
18672W        W61766  18.059  34.046   2.236 -0.3850  0.0583  0.1708
18673W        W61767  21.691  34.143   0.148 -0.0144  0.0721 -0.0144
18674W        W61768  19.089  33.575   2.967  0.1919 -0.2627 -0.1948
18675W        W61769  19.347  33.915   0.539 -0.0937 -0.0455 -0.2969
18676W        W61770  22.841   0.703   2.123  0.0250  0.0599 -0.2461
18677W        W61771  20.478   0.313  31.217 -0.2237 -0.0237  0.1509
18678W        W61772  19.350  33.054   0.945 -0.0053 -0.0486  0.2179
18679W        W61773  20.853  33.198   1.020  0.1505  0.1095 -0.0542
18680W        W61774  17.947   0.258   2.180 -0.0115 -0.0280  0.1400
18681W        W61775  19.357  34.599   2.234  0.1895  0.2573 -0.3264
18682W        W61776  18.479  33.066   0.290 -0.0126  0.0444  0.0203
18683W        W61777  22.175  34.499   2.938 -0.0477  0.1670 -0.2147
18684W        W61778  22.094   0.115   1.242  0.0378 -0.0478 -0.0850
18685W        W61779  19.006  33.331   1.718  0.1143 -0.0720 -0.0338
18686W        W61780  18.700  33.085  31.142 -0.0623  0.0414 -0.2294
18687W        W61781  18.408   0.329   1.983  0.0166 -0.0891 -0.3421
18688W        W61782  22.390  33.119   1.260 -0.2848 -0.0159 -0.2554
18689W        W61783  21.476  33.656   2.164 -0.1556 -0.4235  0.2209
18690W        W61784  22.718  32.444   1.784 -0.0382  0.3664  0.1131
18691W        W61785  19.857  33.167  31.768  0.1349 -0.1128  0.3538
18692W        W61786  18.921  33.024   0.203 -0.0726 -0.1051  0.0882
18693W        W61787  21.433  33.263   1.880 -0.2369  0.1298  0.1101
18694W        W61788  18.796  33.066   2.121  0.0797 -0.1498 -0.0520
18695W        W61789  19.235   0.811   2.139  0.2506  0.1326  0.0991
18696W        W61790  17.728  33.076   1.236  0.0361  0.1038  0.3638
18697W        W61791  21.287  32.371   3.864  0.2253  0.0032 -0.3753
18698W        W61792  19.295   0.315   1.970  0.2316 -0.1307 -0.1634
18699W        W61793  18.053  34.468   2.586 -0.0555  0.0096 -0.0168
18700W        W61794  19.918  33.906   0.154 -0.1173  0.1512 -0.4306
18701W        W61795  18.951  33.608   2.156  0.0060 -0.1781 -0.1761
18702W        W61796  18.339  32.303   3.028  0.2843 -0.0212  0.1821
18703W        W61797  20.159  32.690  31.832 -0.2293 -0.2201 -0.2370
18704W        W61798  21.068   0.329   3.402 -0.0169 -0.3429  0.1972
18705W        W61799  20.274  32.783   2.710  0.0590  0.1394  0.0399
18706W        W61800  18.642  32.460   0.807  0.3215 -0.0894 -0.0637
18707W        W61801  19.877  34.689   2.186 -0.1375  0.0108  0.0642
18708W        W61802  19.074  32.914   3.518  0.1408 -0.1725 -0.5174
18709W        W61803  23.102  33.089   2.984 -0.1675  0.0415 -0.0611
18710W        W61804  20.038  34.392   0.991 -0.0901 -0.2237  0.0594
18711W        W61805  19.354  32.253   2.914 -0.0668  0.1925 -0.2029
18712W        W61806  19.668  33.443   0.317 -0.1362 -0.0287  0.1410
18713W        W61807  21.604   0.030   1.398  0.1965  0.1324  0.0662
18714W        W61808  19.732  34.128   2.018  0.1281 -0.0206 -0.0943
18715W        W61809  19.838  33.741   0.645  0.0388 -0.2256  0.1935
18716W        W61810  20.832  33.121   3.005  0.0188 -0.1407  0.0974
18717W        W61811  18.189  33.262   1.010  0.2450  0.0810 -0.3532
18718W        W61812  21.771   0.985   0.143 -0.0469 -0.0202 -0.0474
18719W        W61813  19.112  32.403   3.384  0.1345 -0.0694  0.0001
18720W        W61814  19.184  33.301   0.560  0.1218 -0.0311 -0.1388
18721W        W61815  19.569   0.149   0.380  0.2024  0.0339 -0.2035
18722W        W61816  21.018  33.654   1.766 -0.0623  0.1486  0.1316
18723W        W61817  19.483  33.558   0.938 -0.4606  0.1915  0.4337
18724W        W61818  19.823  33.139   1.005 -0.1026 -0.1484  0.3513
18725W        W61819  19.726  34.456   2.942  0.4500  0.1958  0.1193
18726W        W61820  20.806  34.319   2.404 -0.1348  0.2742 -0.0718
18727W        W61821  20.965   0.684   3.830  0.2741  0.1490 -0.3808
18728W        W61822  19.071  33.881   4.688  0.0203 -0.0353  0.1802
18729W        W61823  19.036  33.074   4.935  0.0850  0.1743 -0.1353
18730W        W61824  21.142   1.018   4.129  0.0031 -0.0859  0.0539
18731W        W61825  19.892  33.460   5.647 -0.3417 -0.1654 -0.3264
18732W        W61826  20.292  32.084   4.178 -0.0782 -0.1887 -0.0269
18733W        W61827  19.279  32.334   6.447 -0.1892 -0.1634 -0.0128
18734W        W61828  20.558   1.119   6.282  0.3443  0.3928  0.1905
18735W        W61829  18.163  34.209   5.479  0.0180 -0.2586 -0.0329
18736W        W61830  19.566  33.490   6.425  0.0052  0.4858 -0.1378
18737W        W61831  20.528  33.356   4.615  0.0987 -0.1826  0.1649
18738W        W61832  19.025  32.846   7.726 -0.0659 -0.0523 -0.1987
18739W        W61833  20.732  31.890   7.037  0.2086  0.0014 -0.2599
18740W        W61834  18.537  33.965   4.222  0.2720  0.2547 -0.2724
18741W        W61835  17.961  33.432   6.038  0.0900 -0.1854  0.0211
18742W        W61836  19.245  32.949   6.182  0.0024  0.1347 -0.2002
18743W        W61837  21.770  32.942   5.239 -0.0481  0.0502  0.0534
18744W        W61838  21.719  33.453   6.049 -0.0600 -0.2637  0.4750
18745W        W61839  21.249  34.656   7.072  0.2417 -0.0435  0.0532
18746W        W61840  20.937  34.375   6.779 -0.0486 -0.0405  0.2272
18747W        W61841  19.518  33.655   4.791  0.5842 -0.1484  0.1635
18748W        W61842  21.866  33.199   7.303 -0.2786 -0.0440 -0.0957
18749W        W61843  20.490  33.616   1.963  0.0459 -0.1142  0.2311
18750W        W61844  19.786  32.690   2.660 -0.0577 -0.1138  0.1583
18751W        W61845  22.403  32.711   3.558 -0.1981  0.0487 -0.0963
18752W        W61846  20.124  33.096   4.708 -0.0448  0.0764 -0.1359
18753W        W61847  20.732  33.086   6.224 -0.3594 -0.0126 -0.2116
18754W        W61848  20.365  34.199   5.155  0.1538  0.0310  0.2780
18755W        W61849  20.158   0.265   6.226  0.2876 -0.0343  0.4411
18756W        W61850  18.860  33.427   5.979  0.2799  0.3651  0.0867
18757W        W61851  20.161   0.115   5.527 -0.2233  0.0511 -0.0297
18758W        W61852  18.621  33.035   6.284  0.0491 -0.2366  0.0082
18759W        W61853  18.567  33.600   7.761  0.0106  0.0001 -0.0342
18760W        W61854  19.723  31.873   3.820 -0.0835  0.1520 -0.4319
18761W        W61855  21.826  34.477   3.777  0.3297 -0.2526  0.0643
18762W        W61856  21.209  33.638   5.304 -0.1241  0.1281  0.2154
18763W        W61857  20.723  33.957   6.961 -0.0830 -0.1803  0.0466
18764W        W61858  21.480   0.606   3.672  0.1359  0.0818  0.0346
18765W        W61859  19.766  33.160   7.291  0.2287  0.3898 -0.0821
18766W        W61860  18.163  32.751   6.866 -0.0576 -0.0844  0.3321
18767W        W61861  22.474  32.673   4.101  0.1274 -0.1728 -0.2546
18768W        W61862  18.911  32.584   6.182 -0.1021 -0.0717  0.4134
18769W        W61863  21.875  32.985   4.724 -0.2063  0.0817 -0.2182
18770W        W61864  20.187  34.378   3.139  0.0057 -0.0670 -0.1819
18771W        W61865  18.537  32.778   5.869 -0.1470 -0.0311  0.0849
18772W        W61866  19.109  34.430   4.726 -0.1668  0.1755  0.0486
18773W        W61867  19.637  31.700   7.604 -0.0540 -0.2281 -0.2117
18774W        W61868  19.672  32.645   4.369 -0.1950  0.0878 -0.1557
18775W        W61869  21.573   0.150   5.974 -0.1302 -0.0670  0.1099
18776W        W61870  18.258  33.415   3.687 -0.1824  0.0763  0.1884
18777W        W61871  20.594  33.841   4.231  0.0321 -0.0137  0.0611
18778W        W61872  19.102  33.545   5.069  0.1363  0.1206  0.4165
18779W        W61873  21.943  33.561   6.985  0.0519 -0.3394 -0.1277
18780W        W61874  19.266  33.888   6.828 -0.0384 -0.0545 -0.1054
18781W        W61875  19.789  33.743   3.762  0.1090 -0.1538 -0.0527
18782W        W61876  19.340  33.503   3.869 -0.0987 -0.1023  0.0456
18783W        W61877  21.057  33.868   7.402  0.3266 -0.2278 -0.3878
18784W        W61878  21.310  34.158   5.277 -0.0229 -0.3369  0.1206
18785W        W61879  19.057  33.978   3.393  0.0255 -0.1310  0.0250
18786W        W61880  17.114   0.668   5.609  0.1031  0.0627 -0.0790
18787W        W61881  21.676  31.996   3.523  0.0028  0.0053 -0.1014
18788W        W61882  17.932  33.211   6.977  0.1926 -0.0940 -0.1637
18789W        W61883  19.727  33.017   6.553 -0.1435  0.1410  0.1232
18790W        W61884  19.831  33.021   2.979  0.3104 -0.0353  0.1253
18791W        W61885  20.392  33.651   5.033  0.2211 -0.1937  0.1724
18792W        W61886  23.400  33.797   4.173  0.0962 -0.0178 -0.1369
18793W        W61887  20.629  33.428   1.551 -0.1525 -0.0944 -0.3284
18794W        W61888  21.041  31.520   5.179 -0.1483  0.1146 -0.2729
18795W        W61889  21.359  32.793   3.195 -0.0439  0.1087  0.3259
18796W        W61890  20.660  33.541   6.575 -0.1217  0.0130  0.0579
18797W        W61891  20.549   0.488   3.740 -0.0743 -0.1451  0.4393
18798W        W61892  21.031  32.840   5.620  0.1399 -0.1356  0.2615
18799W        W61893  20.501  34.350   6.556  0.1412  0.3461  0.1936
18800W        W61894  21.465  33.169   5.546  0.0303  0.1475  0.0799
18801W        W61895  20.047  32.536   7.294 -0.0725 -0.1235  0.0102
18802W        W61896  21.677   0.204   6.568  0.1900 -0.0523  0.1504
18803W        W61897  21.397  33.898   4.399 -0.1499 -0.1397 -0.2655
18804W        W61898  20.659  33.880   5.389 -0.3510  0.0491  0.2363
18805W        W61899  19.331   0.309   3.914 -0.0826 -0.0355 -0.0535
18806W        W61900  20.459  33.532   7.035  0.0714 -0.1441 -0.0963
18807W        W61901  20.045  33.633   7.343  0.0306  0.3043  0.0672
18808W        W61902  20.612  33.327   3.404 -0.0494  0.0637  0.0647
18809W        W61903  18.951  33.418   6.481  0.0908  0.1772 -0.1896
18810W        W61904  20.949  32.724   6.930 -0.1601 -0.2309 -0.0700
18811W        W61905  18.730  33.496   4.650 -0.1006  0.2523 -0.5557
18812W        W61906  19.896  34.360   3.624  0.0936 -0.0109  0.0282
18813W        W61907  21.364  33.607   4.774  0.1200  0.0902  0.0628
18814W        W61908  19.841  33.943   5.138  0.0034  0.0797 -0.0804
18815W        W61909  20.824  33.458   5.645 -0.1293  0.0637 -0.0490
18816W        W61910  21.486  34.574   5.547 -0.1581 -0.2341 -0.0048
18817W        W61911  21.869  32.507   3.764  0.0117  0.2104  0.0558
18818W        W61912  18.938  34.232   7.549 -0.1459  0.2312  0.1726
18819W        W61913  19.183  32.779   3.009  0.2181  0.0201  0.1794
18820W        W61914  22.148  33.350   6.572  0.1335 -0.0382  0.1069
18821W        W61915  20.112  33.914   5.581  0.4598 -0.1130  0.0387
18822W        W61916  19.427  33.227   3.307  0.1363 -0.1188 -0.0839
18823W        W61917  19.114  33.346   7.918  0.1335  0.0576 -0.2014
18824W        W61918  18.827  34.330   6.321 -0.1557  0.1337  0.1058
18825W        W61919  19.041  33.269   5.459  0.0865  0.1685  0.0486
18826W        W61920  19.731  34.124   4.652 -0.0247 -0.0270 -0.0474
18827W        W61921  20.295  33.916   6.726 -0.0039  0.2210 -0.2467
18828W        W61922  20.659  32.645   6.478  0.2663  0.0405 -0.1947
18829W        W61923  20.216   0.064   6.700 -0.3184  0.0142  0.1754
18830W        W61924  19.908  33.432   6.842  0.1476 -0.0834  0.2606
18831W        W61925  20.886  32.631   3.360 -0.0980  0.0020 -0.2258
18832W        W61926  20.252  34.430   3.959 -0.0349 -0.1478 -0.2102
18833W        W61927  22.230  32.795   7.495  0.0126  0.1150 -0.2010
18834W        W61928  19.745  34.276   4.095  0.1098  0.0469 -0.0776
18835W        W61929  22.224  34.058   6.706 -0.0302 -0.3299  0.0051
18836W        W61930  20.493  31.756   6.612  0.2560 -0.2644 -0.0492
18837W        W61931  19.146  33.890   6.349  0.2598 -0.1803 -0.2541
18838W        W61932  18.495   0.344   8.154  0.2282 -0.2650 -0.1787
18839W        W61933  19.467  33.011   4.577 -0.0196  0.0106 -0.3010
18840W        W61934  19.547  34.587   4.397  0.0828 -0.2380 -0.3737
18841W        W61935  19.383   0.624   5.635  0.0873 -0.1017 -0.3288
18842W        W61936  21.682  33.939   3.877 -0.0269 -0.2710 -0.1854
18843W        W61937  18.161  33.504   5.398  0.1473  0.0305  0.1500
18844W        W61938  21.599  34.372   4.512 -0.3020  0.2368  0.1462
18845W        W61939  19.331  32.372   6.948  0.5148  0.1963  0.1073
18846W        W61940  21.008  34.199   4.445  0.3804  0.0050 -0.0317
18847W        W61941  21.310  34.116   7.053 -0.0727 -0.1303  0.1703
18848W        W61942  19.690  34.051   6.507  0.0550 -0.0794  0.2387
18849W        W61943  19.525  32.484   7.439 -0.0362 -0.2911 -0.1039
18850W        W61944  19.188  32.405   8.237 -0.0483 -0.0620  0.1129
18851W        W61945  22.081  33.787   2.532 -0.1141  0.1695  0.1207
18852W        W61946  21.704  34.372   6.131 -0.1181 -0.1988  0.2764
18853W        W61947  22.451  33.766   3.744 -0.2476 -0.2747 -0.2298
18854W        W61948  21.553  34.526   4.977  0.1465 -0.0058  0.0852
18855W        W61949  18.787  32.779   5.357 -0.1726 -0.2536 -0.3563
18856W        W61950  21.097  33.826   6.689  0.1771 -0.0158 -0.0588
18857W        W61951  19.941  31.805   2.545 -0.2148 -0.0557 -0.1442
18858W        W61952  20.093  32.940   6.904 -0.0526 -0.0298  0.1083
18859W        W61953  20.491  33.032   5.013 -0.0957 -0.1647 -0.0868
18860W        W61954  17.812  34.404   5.163  0.0127  0.1664  0.0072
18861W        W61955  18.639   0.269   3.260  0.0056  0.1206 -0.1168
18862W        W61956  19.485   0.032   3.539 -0.0744 -0.0539 -0.2752
18863W        W61957  21.318  33.143   5.096  0.2767 -0.0070 -0.0627
18864W        W61958  20.900  34.358   7.298 -0.0848  0.1548  0.2560
18865W        W61959  20.957  33.555   4.489  0.2902 -0.1120  0.0901
18866W        W61960  21.628  34.233   6.610  0.0759  0.2428 -0.2409
18867W        W61961  21.178  34.479   5.971  0.0403 -0.0551 -0.1464
18868W        W61962  20.467   0.043   4.809 -0.0348 -0.1021  0.0778
18869W        W61963  22.045   0.141   6.114  0.3747  0.4461 -0.2632
18870W        W61964  19.453  33.144   5.208  0.1331 -0.2343  0.1360
18871W        W61965  18.260  33.009   7.290  0.1782 -0.1534  0.1486
18872W        W61966  17.916  33.118   4.413 -0.0035 -0.4880  0.0597
18873W        W61967  20.327  34.055   4.637  0.1572  0.1984 -0.1224
18874W        W61968  20.150  33.476   1.376 -0.2332  0.1081  0.0567
18875W        W61969  22.032  34.445   4.328 -0.1738  0.0333 -0.1549
18876W        W61970  21.568  34.318   3.308  0.2057  0.1055 -0.1973
18877W        W61971  18.634  33.981   6.006 -0.1632  0.1367 -0.0990
18878W        W61972  20.676  33.164   4.199 -0.1931  0.0764 -0.0711
18879W        W61973  19.452  34.327   6.159  0.2906 -0.3827  0.1755
18880W        W61974  22.395  32.932   6.390  0.1235  0.2140  0.0716
18881W        W61975  19.633  33.206   4.169 -0.3432  0.1539  0.2113
18882W        W61976  19.981  34.479   4.968 -0.0593  0.0810  0.2218
18883W        W61977  21.472  32.972   4.353 -0.1559 -0.0229  0.0974
18884W        W61978  21.397  33.610   5.742  0.1572 -0.2797 -0.0111
18885W        W61979  17.999  33.596   4.312 -0.0619  0.1904 -0.1201
18886W        W61980  22.269  34.210   3.833  0.2693  0.1291  0.0245
18887W        W61981  19.662  33.815   5.938 -0.0537  0.1557 -0.2124
18888W        W61982  21.789  32.411   5.614  0.2017 -0.2154  0.1676
18889W        W61983  18.311  33.720   4.646  0.3524  0.0996  0.0933
18890W        W61984  20.786  34.184   3.914 -0.4314  0.0725 -0.2060
18891W        W61985  19.014  34.319   5.851 -0.0344 -0.1860  0.1362
18892W        W61986  19.799   0.525   4.166  0.2245 -0.1779  0.3004
18893W        W61987  21.879   0.162   5.282 -0.0090 -0.1611 -0.0288
18894W        W61988  21.135  33.819   4.001  0.2828  0.3974  0.0079
18895W        W61989  20.036  34.149   5.961 -0.1187 -0.1837  0.0423
18896W        W61990  21.965  33.660   3.044 -0.1729 -0.0634 -0.2029
18897W        W61991  19.145   1.629   5.286 -0.0524 -0.1843  0.2373
18898W        W61992  18.801   0.867   5.456  0.1791  0.1621 -0.2369
18899W        W61993  18.389  33.153   4.585  0.0441 -0.1320 -0.0260
18900W        W61994  21.477  34.130   5.729  0.0835 -0.2292 -0.1073
18901W        W61995  21.693   0.785   4.572 -0.0465  0.1035 -0.2588
18902W        W61996  18.629  33.299   5.081  0.2626 -0.1679  0.2278
18903W        W61997  20.140  32.560   4.023 -0.1554  0.0371 -0.0901
18904W        W61998  19.930  34.337   5.469 -0.0440  0.0073  0.1049
18905W        W61999  22.293  34.079   4.651 -0.2259 -0.1009  0.2716
18906W        W62000  21.258  34.634   6.556 -0.0358  0.0324  0.0196
18907W        W62001  21.527  31.680   6.495 -0.0622  0.2463  0.0292
18908W        W62002  20.756  33.538   3.865 -0.0687 -0.0220 -0.0142
18909W        W62003  20.909  33.797   4.931 -0.3588 -0.1439  0.0968
18910W        W62004  21.901  33.864   4.508 -0.2363  0.1108  0.3027
18911W        W62005  21.595  33.370   3.715  0.0305  0.1045  0.2530
18912W        W62006  19.789  33.986   7.061 -0.0306 -0.0147 -0.0755
18913W        W62007  18.836  33.728   5.450 -0.0018  0.2908 -0.1727
18914W        W62008  19.132  33.357   8.418  0.1821 -0.3298 -0.0897
18915W        W62009  18.923  33.537   6.992 -0.0598 -0.2458 -0.0409
18916W        W62010  16.871   0.170   5.752  0.1944  0.4968 -0.0529
18917W        W62011  19.184  33.813   5.857  0.1312 -0.1368 -0.0526
18918W        W62012  18.910  32.061   7.076 -0.2468 -0.1178 -0.0872
18919W        W62013  17.556  33.262   5.902 -0.0909 -0.3924  0.2613
18920W        W62014  19.100  34.525   5.402 -0.1082 -0.1181  0.0981
18921W        W62015  19.126  34.319   8.241  0.0994 -0.0396 -0.2302
18922W        W62016  21.368  32.851   7.267  0.1157 -0.0995 -0.0835
18923W        W62017  17.698  34.630   4.690  0.2278 -0.2545  0.0697
18924W        W62018  20.908   0.171   5.737  0.2229 -0.0449 -0.3203
18925W        W62019  18.330  31.585   7.245  0.1098 -0.2730  0.1142
18926W        W62020  22.489  34.196   5.085 -0.1379 -0.0972  0.0634
18927W        W62021  19.491   0.223   4.839 -0.1497 -0.1408 -0.0114
18928W        W62022  19.248  32.815   6.655  0.0582 -0.0162 -0.1364
18929W        W62023  20.086  33.552   4.468  0.4662  0.3268  0.0702
18930W        W62024  20.225  33.480   3.870 -0.4229 -0.1184 -0.1589
18931W        W62025  18.843  33.074   4.440 -0.1703 -0.4629 -0.0072
18932W        W62026  19.656  33.740   4.324 -0.1361 -0.0436  0.0437
18933W        W62027  21.679   0.832   5.506 -0.0908 -0.0432 -0.2232
18934W        W62028  19.513  34.333   5.064 -0.0117  0.0739 -0.0176
18935W        W62029  22.384   0.624   4.696 -0.2584 -0.1080 -0.1180
18936W        W62030  18.122  32.067   5.116 -0.2361 -0.1201  0.1673
18937W        W62031  18.110   1.359   5.730  0.2695  0.0119  0.0287
18938W        W62032  19.911   0.210   4.615  0.1000  0.2320  0.0552
18939W        W62033  21.983  34.088   5.772 -0.0087  0.1463 -0.1445
18940W        W62034  19.934  33.187   6.123 -0.3043  0.1296 -0.4942
18941W        W62035  21.744  31.837   2.942  0.0117  0.1751  0.2293
18942W        W62036  18.695  33.479   8.223 -0.2966  0.0277 -0.3225
18943W        W62037  21.337  33.958   6.169 -0.2567  0.0186 -0.2257
18944W        W62038  22.673  34.190   9.599 -0.2486  0.3067 -0.0681
18945W        W62039  18.338  32.467   8.309  0.0751  0.1079 -0.0597
18946W        W62040  19.333  34.491   7.676  0.0368  0.0011  0.0916
18947W        W62041  21.411  33.968   9.131  0.1489 -0.0512 -0.0647
18948W        W62042  18.748  32.520   7.943 -0.3119  0.0591  0.0143
18949W        W62043  17.746  32.203   9.188  0.0763 -0.1846 -0.2014
18950W        W62044  21.142   0.214   8.283  0.0642 -0.0280  0.4664
18951W        W62045  18.392  34.130   7.521  0.0099 -0.0381 -0.2277
18952W        W62046  20.062  33.637   9.929  0.0715 -0.2755  0.1225
18953W        W62047  20.034  32.924   8.800  0.0525 -0.0525 -0.1779
18954W        W62048  20.384   0.025   9.383 -0.0863  0.0177  0.2295
18955W        W62049  18.704  34.300   8.538 -0.1305  0.1663  0.1669
18956W        W62050  18.313  32.267   9.237 -0.2048 -0.1751 -0.2898
18957W        W62051  19.711  34.609   9.305 -0.1336 -0.2668 -0.0676
18958W        W62052  21.248   0.464   9.815 -0.0605 -0.2186 -0.0644
18959W        W62053  20.799  32.703   9.335  0.4652 -0.2530 -0.2034
18960W        W62054  20.295  31.829  10.052  0.2381  0.4131  0.2486
18961W        W62055  20.786  33.972   8.261 -0.2284 -0.2287  0.0203
18962W        W62056  20.345  33.835   8.500 -0.0107 -0.1588  0.1997
18963W        W62057  18.601  33.504   8.736  0.3076 -0.1384 -0.2009
18964W        W62058  19.431  34.015   7.502 -0.2099 -0.2487  0.3877
18965W        W62059  20.303  32.899   9.468 -0.0860  0.1045 -0.1197
18966W        W62060  20.170  31.206   9.794 -0.1452  0.3589  0.2437
18967W        W62061  19.534  33.583   7.711 -0.1715  0.2513  0.2119
18968W        W62062  20.098  31.730   9.555 -0.0173  0.0293 -0.0329
18969W        W62063  18.672   0.360   9.756  0.1873  0.1684 -0.3804
18970W        W62064  18.873  34.215   9.418  0.0556  0.0471 -0.1702
18971W        W62065  19.824  31.890   8.080 -0.2956 -0.1650  0.4313
18972W        W62066  21.153  32.944   7.740 -0.2571 -0.2236  0.0946
18973W        W62067  19.789  32.225   9.023 -0.0965  0.3005 -0.1891
18974W        W62068  18.723  33.040  10.558 -0.0081 -0.0121 -0.0122
18975W        W62069  22.451   0.158   6.961 -0.1103 -0.0285  0.0060
18976W        W62070  19.397  34.020   8.609  0.0095 -0.2177 -0.0058
18977W        W62071  20.916  33.238   9.218 -0.0566  0.0454  0.1797
18978W        W62072  23.201  33.217   9.640  0.2782 -0.1099 -0.0603
18979W        W62073  20.634   0.284   7.384 -0.2872  0.2013  0.0912
18980W        W62074  19.410  32.890   9.556  0.2247 -0.1376 -0.0382
18981W        W62075  19.012  32.790   9.184  0.0215  0.1718 -0.0972
18982W        W62076  18.759  32.581   8.462  0.1163 -0.4637 -0.0674
18983W        W62077  19.196  33.344   9.711  0.1238  0.2035  0.0572
18984W        W62078  22.386  32.978   8.176 -0.0431  0.1186  0.0684
18985W        W62079  19.875  34.267   8.524  0.0330 -0.2204  0.2545
18986W        W62080  19.018  31.521   9.937  0.0666 -0.0271 -0.0697
18987W        W62081  18.407  32.178   7.880  0.1546 -0.0832 -0.2037
18988W        W62082  19.369  33.233   9.181  0.1350 -0.0836  0.1168
18989W        W62083  21.712   0.664   8.511 -0.0158 -0.0968 -0.0716
18990W        W62084  19.355  32.131   7.821 -0.0582  0.2121 -0.1845
18991W        W62085  18.458  33.397   9.575  0.1716  0.0750 -0.2606
18992W        W62086  23.698  34.586   9.534  0.0873 -0.2979 -0.3425
18993W        W62087  19.244  33.782   9.289  0.1947  0.1610  0.0399
18994W        W62088  20.814  32.221   8.929 -0.0816  0.0135 -0.3912
18995W        W62089  21.829  33.008   8.233  0.2459  0.3130  0.0360
18996W        W62090  19.894  34.494   7.878 -0.0963  0.2607  0.1744
18997W        W62091  19.631  32.754   6.985 -0.2884 -0.2126  0.1066
18998W        W62092  18.217  33.898   6.753  0.1694  0.2406 -0.0472
18999W        W62093  20.413  34.194   9.411  0.0698 -0.1208  0.1719
19000W        W62094  18.476  33.509   6.305 -0.3991 -0.1557  0.0865
19001W        W62095  20.232  32.194   9.438  0.2479  0.0253 -0.1455
19002W        W62096  21.552  33.525   9.250  0.3989 -0.1297  0.3268
19003W        W62097  21.852  34.388   9.675  0.0540 -0.1249 -0.1307
19004W        W62098  19.818  33.764   8.520  0.0022  0.0549 -0.0022
19005W        W62099  20.698  33.524   8.698  0.3971 -0.1430 -0.2118
19006W        W62100  19.471  33.602   7.220  0.1103  0.1067 -0.1139
19007W        W62101  22.159  34.132   9.368  0.0375  0.1548  0.2062
19008W        W62102  19.060  32.932   8.211 -0.1914 -0.1630 -0.0755
19009W        W62103  20.524  33.226  10.212 -0.0494  0.1149 -0.1418
19010W        W62104  21.440  31.150   9.687  0.1028  0.1937 -0.3280
19011W        W62105  18.907  33.856   8.470  0.1790  0.2071  0.2092
19012W        W62106  18.979  34.219   8.933 -0.0808  0.4616  0.0685
19013W        W62107  21.124  32.386   8.447 -0.1658  0.5287 -0.1605
19014W        W62108  17.636  30.706  10.116  0.3124  0.0048 -0.1686
19015W        W62109  19.492  30.518   9.900  0.1719  0.1976  0.2543
19016W        W62110  20.255  33.239   6.509 -0.0835  0.1981  0.0106
19017W        W62111  19.194  33.201   7.338 -0.1804 -0.2197 -0.2441
19018W        W62112  23.055  34.503   8.835  0.0900  0.1366  0.3587
19019W        W62113  20.706  32.180   8.380 -0.5338 -0.3039  0.0772
19020W        W62114  17.644  33.986   7.947 -0.2688  0.0946  0.1475
19021W        W62115  21.686   2.675   9.159 -0.1750 -0.5977 -0.0015
19022W        W62116  19.888  32.139   9.963  0.0889  0.1921 -0.0828
19023W        W62117  19.561  33.196   8.125 -0.0177  0.1985  0.1537
19024W        W62118  20.106  33.420   8.801 -0.2657 -0.0620  0.0776
19025W        W62119  20.309   1.001   9.257  0.2323 -0.0466  0.1259
19026W        W62120  20.038  31.769   9.075  0.0624 -0.0686  0.2377
19027W        W62121  20.299  32.493   9.044 -0.2026  0.2190  0.0998
19028W        W62122  21.418  34.296   7.561  0.0453  0.0064 -0.1109
19029W        W62123  21.061   0.473   8.732  0.0108  0.3291  0.1707
19030W        W62124  19.911  33.985   7.658  0.1110 -0.0812  0.3952
19031W        W62125  19.414  32.359   9.832  0.1325  0.1085 -0.1128
19032W        W62126  20.544  33.595   9.658 -0.2326 -0.0880  0.2210
19033W        W62127  19.005  32.746   7.224  0.0380 -0.0520  0.3027
19034W        W62128  19.050   0.007   9.676 -0.1660 -0.2596  0.0963
19035W        W62129  21.468   0.201   8.791 -0.0342  0.3321 -0.3407
19036W        W62130  19.995   0.272   8.927  0.2376  0.0937 -0.1348
19037W        W62131  21.364  34.493   8.471 -0.1642 -0.1018 -0.2400
19038W        W62132  20.910  33.033   8.768 -0.0221  0.0886 -0.1639
19039W        W62133  22.233  34.065   8.376 -0.0387  0.0061 -0.0367
19040W        W62134  21.303  34.455   8.973 -0.0225  0.0120 -0.2277
19041W        W62135  21.126  33.621   7.854 -0.0511  0.1713 -0.1749
19042W        W62136  20.550  33.074   7.833 -0.0668  0.2202 -0.0709
19043W        W62137  19.204  34.272  10.129  0.1430  0.0985  0.1738
19044W        W62138  18.597  33.825   7.164 -0.2116 -0.0788  0.1302
19045W        W62139  20.057  32.844   7.648  0.1194 -0.0664 -0.0901
19046W        W62140  18.054  33.818   8.848  0.0482  0.0453  0.3368
19047W        W62141  18.792  33.028   6.759  0.2902  0.0012 -0.3009
19048W        W62142  18.310  34.639   8.411 -0.0256  0.2120  0.3758
19049W        W62143  20.087  32.313   7.806  0.0584 -0.0310  0.1699
19050W        W62144  20.026  32.485   8.414  0.2510  0.2530 -0.0981
19051W        W62145  20.931   0.217  10.141 -0.0750  0.2849 -0.2636
19052W        W62146  21.423  34.483  10.071 -0.1339 -0.0591  0.2388
19053W        W62147  19.696  33.669   9.022  0.0287 -0.1173 -0.1381
19054W        W62148  19.669  33.534   9.533 -0.1375  0.1226 -0.0413
19055W        W62149  19.272  32.356   9.392  0.0908  0.0690  0.4366
19056W        W62150  20.281  33.188   7.356  0.1482  0.2773  0.1662
19057W        W62151  21.699  32.059   6.923  0.0266  0.2202  0.2037
19058W        W62152  23.078   0.340   8.168  0.1354 -0.3432  0.0881
19059W        W62153  20.747  33.459   7.526 -0.0765  0.1440 -0.0978
19060W        W62154  18.870  33.694   9.575 -0.0229  0.1716 -0.2728
19061W        W62155  20.988  33.401   6.985  0.1210  0.0390  0.0667
19062W        W62156  18.957  33.701   7.505 -0.3115 -0.1172 -0.1324
19063W        W62157  20.443  33.121   8.558 -0.1115  0.0992  0.0496
19064W        W62158  22.808  34.652   9.268 -0.3492  0.1926  0.2299
19065W        W62159  20.193  31.242   9.241  0.2414 -0.2835  0.0761
19066W        W62160  20.131  32.957   8.199 -0.2775 -0.4456 -0.2986
19067W        W62161  22.415  33.774   8.754  0.0836  0.0823  0.0668
19068W        W62162  20.103   0.731   8.893 -0.2665 -0.0385 -0.4099
19069W        W62163  18.127  33.590   8.041  0.1383  0.1017 -0.1838
19070W        W62164  19.559  32.896   7.682  0.1544 -0.2850  0.1255
19071W        W62165  19.914  33.246   9.227 -0.2884 -0.1538  0.2257
19072W        W62166  20.055  33.968   8.106 -0.1853 -0.1566  0.1464
19073W        W62167  19.124  33.935   7.909  0.0726  0.2158  0.3141
19074W        W62168  18.818  33.272   9.237  0.1331 -0.2635  0.1582
19075W        W62169  20.480  32.628   7.528 -0.3272 -0.1785  0.1182
19076W        W62170  19.468  34.190   9.063  0.0737 -0.0120  0.2639
19077W        W62171  20.274  34.108   9.997  0.2722  0.2459  0.1849
19078W        W62172  19.206  31.976   9.088 -0.1130  0.3656  0.0394
19079W        W62173  20.694  33.396   8.206 -0.0854  0.0074 -0.0439
19080W        W62174  20.683   0.288   9.050  0.2384  0.0512 -0.2129
19081W        W62175  17.304  32.453   9.102 -0.1300  0.0197 -0.3402
19082W        W62176  19.193  32.439   8.779 -0.0758 -0.2387  0.0659
19083W        W62177  19.573  32.775   9.079 -0.2009  0.0879 -0.1688
19084W        W62178  22.016  34.683   8.726 -0.2828 -0.2123  0.1640
19085W        W62179  20.619  32.599   8.613  0.0169 -0.0170  0.0959
19086W        W62180  20.614  31.053   9.933 -0.2641  0.0043 -0.2878
19087W        W62181  21.045  33.088   6.582 -0.0832 -0.2117 -0.2274
19088W        W62182  21.418  32.720   8.105  0.0385 -0.3053 -0.1444
19089W        W62183  21.092   2.579   8.619  0.1828  0.1580 -0.0506
19090W        W62184  17.547  32.820   7.190  0.0740 -0.1383 -0.2253
19091W        W62185  16.655   0.012   9.811 -0.1699 -0.2530  0.2989
19092W        W62186  19.339  31.574   9.303 -0.3872  0.2205  0.4652
19093W        W62187  18.345  32.987   8.819  0.2077 -0.1836 -0.0506
19094W        W62188  17.557  29.774  10.116 -0.0164  0.0375 -0.1597
19095W        W62189  19.628  32.778   8.500  0.1645  0.3329  0.0341
19096W        W62190  18.318  32.768   7.926  0.0244 -0.2262  0.0989
19097W        W62191  19.540  33.125  10.072 -0.3054 -0.1849 -0.3031
19098W        W62192  19.341  31.815  10.148  0.2967  0.1249 -0.0067
19099W        W62193  22.176  34.225   8.844  0.1481  0.4160 -0.0069
19100W        W62194  20.496  33.745   7.901  0.0696  0.1969 -0.0268
19101W        W62195  18.792  32.332   8.983 -0.0518 -0.0580  0.3460
19102W        W62196  21.153  33.217   8.120  0.0259  0.1531  0.1178
19103W        W62197  18.748  34.634   8.906  0.0916  0.1623 -0.1757
19104W        W62198  20.914  32.381   7.971  0.0485 -0.0867 -0.0354
19105W        W62199  19.287  33.824   9.836  0.3915  0.0671  0.2005
19106W        W62200  21.894   0.121   7.936  0.0555  0.1811 -0.1194
19107W        W62201  17.533  31.311   9.926 -0.0916  0.3099 -0.3507
19108W        W62202  18.760  33.782   9.116 -0.1831  0.2598  0.1006
19109W        W62203  20.153   0.011   8.318 -0.0388 -0.4499 -0.1630
19110W        W62204  20.879  33.970   9.374 -0.1122 -0.1679  0.2279
19111W        W62205  19.402  34.252   9.546 -0.0266  0.1004 -0.1827
19112W        W62206  21.896  32.830   8.859  0.0068 -0.2591  0.0019
19113W        W62207  24.804   2.089   2.980  0.1232  0.0753  0.2388
19114W        W62208  23.452   1.019   1.256  0.2130  0.1097 -0.0573
19115W        W62209  24.653   0.728  30.656 -0.1500 -0.1259  0.1249
19116W        W62210  24.908   2.492  31.825 -0.0338  0.0693  0.2631
19117W        W62211  23.068   0.844   0.202 -0.0531 -0.1382  0.2540
19118W        W62212  23.578   3.649   0.470  0.1134 -0.0503  0.0466
19119W        W62213  23.636  34.211   3.577  0.0979 -0.3019  0.0885
19120W        W62214  24.399   3.053   3.127 -0.1739  0.2046 -0.1755
19121W        W62215  24.580   3.758   2.150 -0.0471  0.0771 -0.2589
19122W        W62216  24.229   2.359  30.582 -0.0191  0.0890  0.0743
19123W        W62217  22.831   1.188   3.042 -0.1317  0.0419  0.2584
19124W        W62218  24.216   3.916   2.400  0.1349 -0.1682 -0.0007
19125W        W62219  23.176  34.557  31.864 -0.4828 -0.0679 -0.0896
19126W        W62220  20.385   0.113   1.209  0.4586  0.1764  0.3982
19127W        W62221  26.408   2.891   2.978  0.3640  0.2435  0.0772
19128W        W62222  23.654   1.539  31.857 -0.3986  0.0521 -0.0828
19129W        W62223  24.305   0.470   2.795 -0.1966  0.0657  0.1505
19130W        W62224  24.654   1.598   0.720 -0.2524 -0.1119 -0.3103
19131W        W62225  22.492   4.397   0.792 -0.2400  0.0216  0.0051
19132W        W62226  24.387  34.578   3.864 -0.1863  0.3485  0.0240
19133W        W62227  24.908   0.958   3.896  0.2264  0.2781 -0.0540
19134W        W62228  23.325   2.578  30.588  0.0578 -0.0881  0.0466
19135W        W62229  23.639   2.536  31.665 -0.1936  0.2397  0.3601
19136W        W62230  22.007   0.963   2.442  0.0598 -0.4861 -0.1112
19137W        W62231  23.318   2.411   3.576  0.0591  0.1253 -0.2345
19138W        W62232  24.862   1.341   2.599  0.1265  0.1070 -0.3153
19139W        W62233  24.902   2.103   1.584  0.1892 -0.0053  0.1586
19140W        W62234  24.850   3.393   0.391 -0.4116 -0.0880 -0.0871
19141W        W62235  24.973   3.544   2.333  0.1210 -0.1335 -0.1849
19142W        W62236  23.840   2.494   3.356  0.0001 -0.1983 -0.0647
19143W        W62237  23.013   2.430   0.590 -0.0689  0.2112 -0.0448
19144W        W62238  21.165   3.941   1.399 -0.3547 -0.2655  0.2542
19145W        W62239  24.831   2.408   1.184 -0.2973  0.0884  0.1815
19146W        W62240  25.651   2.843   1.396  0.1524 -0.0241  0.0227
19147W        W62241  24.947   3.060   2.645  0.0270 -0.2720  0.0378
19148W        W62242  23.451   4.384   2.933 -0.0076  0.2465  0.0348
19149W        W62243  22.390   1.781  31.230  0.2185 -0.1733  0.1098
19150W        W62244  24.706   4.665   3.690 -0.0474  0.0561  0.2430
19151W        W62245  21.367   3.765   2.394 -0.1618  0.3875 -0.0301
19152W        W62246  23.184   2.518   2.976 -0.3280 -0.1098 -0.1268
19153W        W62247  24.049   2.856  31.551 -0.0618  0.1686  0.0915
19154W        W62248  23.454   2.119  31.892 -0.2081  0.0304 -0.2501
19155W        W62249  22.575   2.196   0.498 -0.0539 -0.3291  0.1390
19156W        W62250  23.437   2.939   4.235  0.1917 -0.0305  0.1076
19157W        W62251  21.809   2.418   1.032  0.0468  0.1306  0.1272
19158W        W62252  24.597  34.208   3.643  0.1541 -0.2353 -0.1686
19159W        W62253  22.911   3.879   0.599 -0.1878 -0.0998  0.1747
19160W        W62254  24.851   1.918   0.391  0.0137  0.3625 -0.3761
19161W        W62255  22.035   1.988  30.964 -0.4227 -0.2061  0.3265
19162W        W62256  24.145   1.124  31.551 -0.0296  0.1589 -0.1896
19163W        W62257  22.873  34.242   0.193  0.1470 -0.0946 -0.0623
19164W        W62258  22.237   3.031   2.836 -0.1265  0.2824 -0.5106
19165W        W62259  23.607  33.818   2.838 -0.2820 -0.4190 -0.1122
19166W        W62260  25.562   2.180   1.816  0.0837 -0.1862  0.2357
19167W        W62261  23.850   1.622   2.185  0.3245  0.2705 -0.1388
19168W        W62262  24.814   1.451   2.095  0.0049 -0.0099 -0.0057
19169W        W62263  23.111   3.205   2.361  0.1203 -0.0482 -0.2248
19170W        W62264  22.894   0.172   0.856 -0.1074 -0.1070  0.0169
19171W        W62265  26.204   3.230   0.042  0.1051  0.3752 -0.2755
19172W        W62266  25.539   3.698   0.124  0.0211  0.0915 -0.2244
19173W        W62267  23.141   3.507   1.184 -0.0689 -0.0448  0.0030
19174W        W62268  21.641  33.647   0.213 -0.0585 -0.1029 -0.1462
19175W        W62269  22.672   1.717   4.108  0.1644 -0.0393  0.1709
19176W        W62270  23.194   2.106   2.261  0.1056  0.0969  0.2130
19177W        W62271  23.850   1.017  31.104 -0.1491  0.0735  0.0239
19178W        W62272  25.483   3.831   3.468  0.4538  0.1395 -0.0535
19179W        W62273  22.969   3.706   2.494 -0.1459  0.1108  0.0258
19180W        W62274  25.808   1.400   1.645  0.0474  0.1354 -0.1157
19181W        W62275  23.247   2.511   1.778 -0.1389 -0.1758  0.2896
19182W        W62276  23.751   1.879   0.829  0.1353  0.0407  0.1444
19183W        W62277  25.340   2.552  31.563  0.0265  0.1281  0.0159
19184W        W62278  24.057   1.496   1.722  0.0193 -0.1454  0.0279
19185W        W62279  24.267   0.662   3.367  0.1379  0.0134  0.1836
19186W        W62280  22.668   3.320   0.385  0.0119  0.2529  0.1833
19187W        W62281  22.332   1.309   0.309  0.2139  0.0597 -0.1278
19188W        W62282  24.655   3.406   2.900  0.0878  0.1072 -0.1320
19189W        W62283  25.341   1.272  31.421 -0.0961  0.0080  0.1454
19190W        W62284  22.879   2.001   0.897 -0.2614 -0.3373  0.1373
19191W        W62285  23.522   0.743   2.721  0.3275 -0.1383 -0.3907
19192W        W62286  24.798   3.290   3.833 -0.2665 -0.1073  0.0753
19193W        W62287  21.594   3.402  31.296 -0.1602 -0.0980  0.0531
19194W        W62288  23.200   1.838   1.850  0.1224  0.1954  0.1876
19195W        W62289  22.178   2.613  31.640  0.0130  0.0624  0.1703
19196W        W62290  20.903  34.659   2.071 -0.0864  0.1635  0.0566
19197W        W62291  23.393   3.030   3.159 -0.2773 -0.4275 -0.0723
19198W        W62292  25.662   0.533   1.127  0.0420  0.2387 -0.3578
19199W        W62293  23.167   0.411   3.468  0.5269 -0.0313 -0.2170
19200W        W62294  25.695   0.208   1.479 -0.0133 -0.0460 -0.0144
19201W        W62295  22.824   1.511   1.113  0.0992  0.4706  0.0465
19202W        W62296  24.543   4.981  31.307  0.3984 -0.1694 -0.1378
19203W        W62297  24.978   1.453   1.121  0.1941 -0.0720  0.1009
19204W        W62298  24.770   4.736   0.183  0.4466 -0.0165  0.0346
19205W        W62299  22.369   0.296   3.037 -0.2543 -0.3108  0.1003
19206W        W62300  22.648  34.385   0.626 -0.4159 -0.2123  0.0095
19207W        W62301  23.398   0.122   4.372 -0.0154 -0.1543 -0.1174
19208W        W62302  22.059   0.630   2.831  0.1999 -0.2844  0.2179
19209W        W62303  25.538   3.233   3.031 -0.0359  0.0541 -0.3084
19210W        W62304  20.932   0.408   0.058 -0.0578  0.0493  0.2318
19211W        W62305  24.549   1.726   2.543 -0.3529  0.1917 -0.1566
19212W        W62306  22.935   0.038   2.393 -0.0582 -0.1812  0.0072
19213W        W62307  22.802   2.008  31.045  0.1492  0.1292  0.0219
19214W        W62308  24.706   0.555   3.055  0.0228  0.0636 -0.0405
19215W        W62309  25.477   2.152  31.274 -0.1357  0.1332  0.1095
19216W        W62310  24.673   2.938   1.070 -0.0256 -0.0853  0.0186
19217W        W62311  23.633   1.215   2.530  0.2144 -0.2815  0.0168
19218W        W62312  20.321   0.985   1.206  0.3389 -0.0926 -0.1663
19219W        W62313  23.116   3.044   1.467 -0.1800  0.1303 -0.0494
19220W        W62314  23.720   3.744   1.252 -0.1249 -0.2303  0.0417
19221W        W62315  22.999   0.596   0.591 -0.2236 -0.0080  0.2100
19222W        W62316  25.105   4.001  31.979 -0.2060 -0.0678 -0.1053
19223W        W62317  23.547   1.652   0.334  0.0572  0.4081  0.0560
19224W        W62318  22.697   2.745   2.181  0.3405 -0.1367  0.2687
19225W        W62319  24.663   0.373   3.765 -0.3891  0.0336  0.2168
19226W        W62320  24.072   2.318   1.745  0.1163  0.0675 -0.1954
19227W        W62321  22.962   1.100   1.428 -0.1533 -0.2079 -0.0298
19228W        W62322  22.436   0.519  30.795  0.3525  0.0704 -0.2258
19229W        W62323  24.157   3.216   0.968 -0.2798 -0.0528 -0.1550
19230W        W62324  21.465   3.237   1.170 -0.0941 -0.0680 -0.0178
19231W        W62325  22.177   0.315   0.302  0.0767 -0.1279  0.0284
19232W        W62326  23.978   1.962   0.027  0.0298  0.0740 -0.0080
19233W        W62327  25.321   1.223   1.441 -0.3281 -0.3371 -0.3217
19234W        W62328  22.123   1.963   2.650  0.0683  0.2906 -0.0939
19235W        W62329  24.507   2.577   2.749 -0.0482 -0.0441  0.0137
19236W        W62330  21.920   0.511   0.665  0.0369  0.1304  0.0163
19237W        W62331  23.482   2.971   3.664 -0.0799  0.3188  0.3279
19238W        W62332  23.116   0.360   1.328  0.1293  0.3412  0.0599
19239W        W62333  25.447   0.444  31.706 -0.1087 -0.0204 -0.0918
19240W        W62334  24.108   1.932   2.673 -0.0793  0.2727  0.1579
19241W        W62335  25.698   4.115  31.926 -0.0075  0.1311  0.0238
19242W        W62336  23.840   0.704  31.660 -0.2002  0.2016  0.2135
19243W        W62337  24.376   1.127   0.499 -0.3475  0.1245 -0.3190
19244W        W62338  22.396   3.895   3.264 -0.0368 -0.0962  0.0292
19245W        W62339  23.534   3.101   0.482  0.0318 -0.1577  0.1338
19246W        W62340  23.589   3.094   2.440 -0.0669 -0.0353 -0.1326
19247W        W62341  23.741   1.914  31.011 -0.0383 -0.0532 -0.1287
19248W        W62342  25.664   3.215  31.979  0.0090  0.1043 -0.0241
19249W        W62343  22.861   1.736   2.257  0.2541 -0.2704 -0.0923
19250W        W62344  25.073   3.225   3.270  0.1357  0.0747 -0.3680
19251W        W62345  25.039   4.362   0.347 -0.3328 -0.0833  0.3061
19252W        W62346  23.648  34.234   2.615 -0.1053  0.0100 -0.0470
19253W        W62347  22.048   0.566  31.847 -0.1645 -0.1507  0.2022
19254W        W62348  24.026  34.658   1.452 -0.0783 -0.1352  0.1152
19255W        W62349  21.675   2.565  31.529  0.1497  0.2452 -0.1052
19256W        W62350  25.595  33.738   2.188 -0.0874 -0.1077  0.0156
19257W        W62351  24.970   1.066   3.184 -0.1746 -0.0684  0.1696
19258W        W62352  24.362  34.444   3.014 -0.2527 -0.1482  0.3366
19259W        W62353  26.655   1.761   3.282 -0.2117  0.1806  0.1286
19260W        W62354  23.204   1.668   0.753  0.0305  0.3868  0.0093
19261W        W62355  23.878   1.090   2.179 -0.0782 -0.3487 -0.1122
19262W        W62356  23.415   3.452  31.658  0.4028  0.0296  0.5508
19263W        W62357  23.712   1.686   2.761 -0.1246  0.2393 -0.1743
19264W        W62358  22.082   1.759   3.123  0.0224  0.2756 -0.1762
19265W        W62359  22.804   3.135   3.113  0.2131  0.0775 -0.1679
19266W        W62360  24.673   2.876   3.519  0.0729 -0.0624 -0.1166
19267W        W62361  22.894   2.256   0.104  0.1577  0.1772  0.1612
19268W        W62362  23.633   1.453   3.426  0.0144  0.3957  0.1989
19269W        W62363  22.175   0.951  30.727 -0.0970 -0.2277 -0.1429
19270W        W62364  23.045   5.185   0.428  0.1480  0.1522  0.1556
19271W        W62365  24.596   2.995   0.528 -0.0998  0.3309  0.4473
19272W        W62366  23.452   0.112   0.812 -0.0600  0.0132  0.2203
19273W        W62367  24.312   4.078   0.863 -0.0946 -0.0627  0.1001
19274W        W62368  21.837   2.855  31.964 -0.0134 -0.0318  0.2711
19275W        W62369  25.711   2.267   4.165 -0.1438  0.1384  0.1850
19276W        W62370  22.053   2.408   1.476  0.4215  0.3047  0.1104
19277W        W62371  24.673   2.179   2.488  0.0297  0.0202  0.0488
19278W        W62372  22.182   2.578   0.700 -0.3201  0.2115  0.3565
19279W        W62373  23.193   3.003  31.783  0.1206 -0.1417 -0.1894
19280W        W62374  22.169   1.522   0.794 -0.1339  0.0091  0.2515
19281W        W62375  24.944   0.944   2.227  0.3326  0.1360 -0.3141
19282W        W62376  24.551   2.115   0.043  0.0484 -0.2373  0.3238
19283W        W62377  22.253   0.541   2.357  0.0639  0.0868  0.0034
19284W        W62378  24.080  34.552   3.518 -0.0508  0.1439 -0.2490
19285W        W62379  22.211   2.542   3.684 -0.0199 -0.1709 -0.1164
19286W        W62380  23.109   2.931   2.741  0.0666  0.1143 -0.2931
19287W        W62381  23.598  33.779   1.027 -0.0295  0.1126  0.0646
19288W        W62382  24.542   4.320   2.788 -0.1372 -0.0827  0.0214
19289W        W62383  23.328   2.265   4.628  0.2601  0.1391 -0.0072
19290W        W62384  21.388   1.667  31.334  0.0538  0.2269 -0.1631
19291W        W62385  26.709   1.932   2.335 -0.1644  0.2155  0.1658
19292W        W62386  23.784   1.455   1.236  0.1271  0.2374  0.0251
19293W        W62387  24.212   2.004   0.929  0.1661 -0.1435  0.1117
19294W        W62388  24.580   3.435   3.387  0.0185  0.0416  0.0002
19295W        W62389  21.142   1.555  31.795 -0.1054 -0.0618  0.0834
19296W        W62390  22.264   2.483   0.201  0.1245  0.4624 -0.1640
19297W        W62391  23.539   0.182   2.628  0.2914 -0.0640  0.1167
19298W        W62392  25.332   2.150   2.910  0.1866 -0.0117 -0.0776
19299W        W62393  22.980   0.246   1.851 -0.1295  0.3137  0.1161
19300W        W62394  23.524   0.698   2.071 -0.0987 -0.0779 -0.0958
19301W        W62395  23.198   0.496   2.350 -0.1292 -0.3370 -0.2718
19302W        W62396  24.991   1.274   0.434  0.0533  0.0631 -0.0398
19303W        W62397  25.586   2.666   1.829  0.3486  0.1861  0.1290
19304W        W62398  22.352   3.431   3.937 -0.4304  0.0888 -0.0972
19305W        W62399  23.580   0.387   1.565  0.0881 -0.1363  0.2065
19306W        W62400  24.156   4.070  31.403  0.1738  0.0320  0.1182
19307W        W62401  24.762   2.708   2.308  0.0362 -0.1438  0.2879
19308W        W62402  23.925   3.418  31.447  0.2700  0.2446 -0.2448
19309W        W62403  22.217   0.675   1.358 -0.1104  0.1255 -0.0862
19310W        W62404  22.454   1.861   1.067  0.2085 -0.0184 -0.0331
19311W        W62405  24.240   1.584   3.044 -0.3344 -0.0500 -0.1747
19312W        W62406  23.387   2.602   1.266 -0.0062 -0.0178 -0.2433
19313W        W62407  22.508   2.626   1.462 -0.0881  0.0677  0.1163
19314W        W62408  22.684   3.215   1.979  0.1319 -0.1759 -0.0973
19315W        W62409  24.156  34.217  31.762  0.0596 -0.0849  0.3047
19316W        W62410  24.392   3.889  31.796  0.2267 -0.1509 -0.2166
19317W        W62411  24.134   1.425   2.636  0.1331  0.0398 -0.1582
19318W        W62412  26.236   1.416   3.346 -0.1439  0.0726 -0.5554
19319W        W62413  23.363   2.225   0.954  0.2037 -0.0888 -0.0830
19320W        W62414  23.620  34.617   3.080  0.1709 -0.1963 -0.1725
19321W        W62415  24.575  34.420   4.289 -0.3609  0.0618 -0.0595
19322W        W62416  24.285   2.019   0.421  0.0658 -0.2554  0.1020
19323W        W62417  23.235   0.769   1.679 -0.3993  0.3536 -0.1008
19324W        W62418  23.799   3.821   4.831  0.1161 -0.0195  0.0356
19325W        W62419  22.534   3.415   3.435  0.1957 -0.3977 -0.1720
19326W        W62420  24.347   1.108   1.866  0.0228 -0.0964 -0.1491
19327W        W62421  22.530  33.812  31.386 -0.3198  0.0764  0.2562
19328W        W62422  22.919   2.238   2.624  0.0580 -0.2330  0.0196
19329W        W62423  24.108   2.186   2.210 -0.0299  0.2150 -0.0985
19330W        W62424  24.276   1.689  31.695 -0.0333 -0.1598 -0.1260
19331W        W62425  25.378   1.877   1.436 -0.0060 -0.1986 -0.0619
19332W        W62426  23.367   1.556   2.243  0.0511  0.2050 -0.0395
19333W        W62427  24.146   1.585   0.670  0.1108  0.1937  0.0804
19334W        W62428  23.245   1.139  31.848  0.0006  0.0086  0.1639
19335W        W62429  23.032   1.936   0.417  0.1349  0.1782 -0.0142
19336W        W62430  23.316   0.857   3.136  0.0476  0.1252  0.0827
19337W        W62431  23.262   2.706   2.340 -0.1381  0.2120  0.0726
19338W        W62432  24.329   1.573   2.117  0.0887 -0.0377 -0.0234
19339W        W62433  24.743   1.512   3.078  0.3317 -0.1754 -0.0103
19340W        W62434  25.724   1.688   3.111  0.0729 -0.3280 -0.3207
19341W        W62435  23.225   1.821   2.678  0.0524  0.0447 -0.2509
19342W        W62436  22.007   2.529   3.192  0.0201  0.1620 -0.0609
19343W        W62437  24.596   4.195   4.089  0.3338  0.0868  0.1876
19344W        W62438  23.867   0.878   0.585  0.2504  0.1250  0.0042
19345W        W62439  24.106   0.935   2.662 -0.2061  0.0750  0.1570
19346W        W62440  24.550   1.563   0.232  0.4197 -0.1736  0.2892
19347W        W62441  23.731   1.333   0.754  0.3354  0.0263  0.3004
19348W        W62442  22.184   0.076   3.880 -0.0094  0.0345 -0.2518
19349W        W62443  24.093   2.837   3.611  0.0869 -0.0158 -0.1565
19350W        W62444  22.418   1.135   1.426 -0.2428 -0.1317 -0.3364
19351W        W62445  25.779   2.575   3.724  0.2181  0.0431  0.0263
19352W        W62446  23.868   2.801   0.897 -0.0388 -0.1038  0.1780
19353W        W62447  24.021   1.928   1.392 -0.2595 -0.0423  0.1314
19354W        W62448  24.716   1.837   1.233  0.2176 -0.2553  0.0105
19355W        W62449  22.390   0.362   1.853 -0.0377 -0.3323  0.0348
19356W        W62450  24.083   3.093   2.251  0.0224  0.0061 -0.0816
19357W        W62451  22.924   0.428  31.943  0.0310  0.1045 -0.1259
19358W        W62452  22.376   3.918   0.619 -0.1555 -0.1284  0.1716
19359W        W62453  24.211   2.813   1.875 -0.0626  0.0722  0.1621
19360W        W62454  25.746   2.394   2.637 -0.1008  0.0543 -0.1020
19361W        W62455  23.900   0.418   0.714 -0.1538  0.4053 -0.3406
19362W        W62456  24.879   1.410   3.593  0.1218 -0.0677  0.0710
19363W        W62457  22.349   3.013   0.123 -0.0153 -0.1585 -0.0294
19364W        W62458  23.752   1.057   1.672 -0.0557  0.3739 -0.0726
19365W        W62459  23.788   2.542   2.254 -0.0453 -0.1006 -0.2451
19366W        W62460  21.362   2.570   2.848 -0.2282 -0.3088  0.4592
19367W        W62461  23.272   2.616   0.138  0.0459  0.0647 -0.3296
19368W        W62462  23.799   1.245   3.018 -0.2941  0.4609 -0.0842
19369W        W62463  25.520   2.417   0.906 -0.0349 -0.0097 -0.2381
19370W        W62464  24.188   2.777   1.335  0.0839  0.0421  0.0481
19371W        W62465  26.328   1.324   2.778 -0.0376 -0.2422  0.0082
19372W        W62466  24.349   3.459   2.454 -0.1175 -0.0578  0.1124
19373W        W62467  22.497   0.484   0.658  0.0030  0.1141 -0.3317
19374W        W62468  24.454   3.818   3.794  0.0102 -0.2705 -0.1072
19375W        W62469  26.136   2.885   1.962 -0.0695 -0.2687 -0.0090
19376W        W62470  22.749   2.762   0.120 -0.3534 -0.0887 -0.1594
19377W        W62471  22.601   3.296   2.510  0.1571 -0.0570 -0.2382
19378W        W62472  23.748   3.285   3.910 -0.1547 -0.0114  0.0674
19379W        W62473  23.220   1.024   2.250  0.2210  0.2142  0.1787
19380W        W62474  22.201   0.799   0.339 -0.0429 -0.1373  0.3558
19381W        W62475  23.892   4.755  31.578 -0.0797  0.1591  0.1340
19382W        W62476  23.145   3.377   2.892 -0.2696  0.0008  0.0564
19383W        W62477  21.840   2.884   2.022 -0.1354  0.3046 -0.1458
19384W        W62478  22.887   3.192   0.922 -0.0215  0.0556 -0.1637
19385W        W62479  24.105   3.252   0.519  0.0694  0.0842  0.2578
19386W        W62480  23.143   1.069   0.769 -0.0563 -0.1399 -0.1631
19387W        W62481  24.508   2.428   1.969  0.0395  0.3572 -0.1968
19388W        W62482  21.677   1.179  31.616  0.1581  0.5228  0.0278
19389W        W62483  22.771   1.222   1.914  0.0821 -0.0224  0.2015
19390W        W62484  22.554   3.586  31.507 -0.1032  0.0572  0.1482
19391W        W62485  25.421   3.222  31.451  0.1799  0.0776 -0.0538
19392W        W62486  23.477   2.616   0.679  0.0247 -0.0201 -0.0600
19393W        W62487  26.051   3.583   4.134 -0.1236  0.2484  0.2398
19394W        W62488  23.629  34.012  31.333 -0.0959  0.2415  0.3964
19395W        W62489  25.956   2.421   2.047 -0.0642 -0.1734 -0.1098
19396W        W62490  25.946   1.457   1.112  0.0315  0.1293 -0.1853
19397W        W62491  23.780   4.330   3.594 -0.0647 -0.0751  0.0767
19398W        W62492  23.722   2.688   1.676  0.0698 -0.1678  0.1097
19399W        W62493  23.198   2.120  30.754  0.3021  0.1119  0.0812
19400W        W62494  24.025   2.890   4.119  0.0916  0.1730 -0.0115
19401W        W62495  23.826  34.158   4.078 -0.2228  0.1691  0.0411
19402W        W62496  22.316   3.818   2.509 -0.0563  0.1828  0.1924
19403W        W62497  25.296   3.456   1.338  0.2422 -0.0057  0.0867
19404W        W62498  22.704   1.696   1.683  0.2309  0.1639 -0.2546
19405W        W62499  23.208   1.604   1.418 -0.0268 -0.0671  0.1890
19406W        W62500  25.301   0.064   2.799  0.2145  0.0189  0.1009
19407W        W62501  22.159   1.773  31.764 -0.0684 -0.1179  0.2280
19408W        W62502  24.940   0.985   1.709 -0.0290 -0.1543 -0.1178
19409W        W62503  22.256   3.273   0.813 -0.1345  0.3683 -0.1367
19410W        W62504  22.345   2.498   1.949  0.2767 -0.0054 -0.0652
19411W        W62505  23.385   4.137   1.926  0.1473  0.1404 -0.3188
19412W        W62506  19.783  34.430   0.107  0.1625  0.0279 -0.1241
19413W        W62507  23.564   2.228   2.575 -0.1741  0.1553 -0.1557
19414W        W62508  23.933   0.429   2.370  0.1395  0.0486  0.0241
19415W        W62509  25.076   1.829   2.555 -0.0529 -0.0248 -0.2434
19416W        W62510  22.763   1.284  31.881 -0.0269 -0.2703 -0.0162
19417W        W62511  24.845   0.559   0.441  0.1252  0.3577  0.0281
19418W        W62512  22.939   1.328   2.510  0.0408 -0.1349  0.0053
19419W        W62513  24.294   0.709   2.203 -0.1009 -0.2505  0.0073
19420W        W62514  22.492   1.254  31.437 -0.2131  0.1658 -0.0008
19421W        W62515  25.001   3.108   4.497 -0.3873  0.0455 -0.1997
19422W        W62516  24.180   1.867  31.226  0.0306  0.2795 -0.4096
19423W        W62517  24.281   3.300   3.844 -0.1636 -0.1652 -0.0078
19424W        W62518  21.293  34.624   0.819  0.0383  0.0839 -0.2128
19425W        W62519  23.521   0.585   0.270  0.0839 -0.1851 -0.1486
19426W        W62520  22.939   2.098   1.494  0.3255 -0.3757 -0.0571
19427W        W62521  25.605   1.853   2.446  0.1263  0.1756 -0.1088
19428W        W62522  25.992   2.905   4.716  0.0503 -0.3376  0.2133
19429W        W62523  22.123  33.506   0.194 -0.2171 -0.1401  0.4479
19430W        W62524  24.461   3.628   0.646  0.1648 -0.0401 -0.0172
19431W        W62525  23.533   2.078   1.426  0.3370 -0.3631 -0.0636
19432W        W62526  23.952   4.013   0.483 -0.0958  0.1378  0.1324
19433W        W62527  24.496   1.108   2.402 -0.1992 -0.2890 -0.0027
19434W        W62528  24.779   3.718   1.675  0.1210  0.0030  0.2049
19435W        W62529  22.778   0.314   4.853  0.2077  0.0573 -0.0805
19436W        W62530  23.853   2.929   3.102 -0.2661 -0.0851 -0.3089
19437W        W62531  25.086   4.805   1.661 -0.1468 -0.1185 -0.1330
19438W        W62532  23.645  34.391   1.799  0.4119  0.1735 -0.2177
19439W        W62533  22.471   0.887   2.655  0.2374 -0.2868 -0.0860
19440W        W62534  22.966   3.513   1.727 -0.2947  0.0682  0.1587
19441W        W62535  27.847   1.459   2.694 -0.1549 -0.1261 -0.0512
19442W        W62536  24.789   0.088   2.936 -0.1792 -0.0006 -0.0686
19443W        W62537  23.473   3.849   0.005 -0.1023  0.0850 -0.2550
19444W        W62538  24.694   0.583   4.228  0.0754  0.0740 -0.1459
19445W        W62539  23.815   3.201   1.882  0.3114  0.1804  0.0884
19446W        W62540  23.172   3.855   3.122  0.3722 -0.1040 -0.1804
19447W        W62541  21.187   2.373   0.552  0.2699  0.4824 -0.2676
19448W        W62542  24.071   2.133   3.581  0.1653 -0.1427 -0.2238
19449W        W62543  23.769   4.178   0.898 -0.0392  0.1384  0.0726
19450W        W62544  23.001   3.729  31.824 -0.0077  0.2775 -0.2703
19451W        W62545  24.369   2.561   0.827  0.0362 -0.2440  0.1208
19452W        W62546  25.141   2.059   1.013 -0.0484 -0.4115 -0.2427
19453W        W62547  25.490   3.331   0.885 -0.0806  0.2867 -0.1700
19454W        W62548  23.818  34.194   3.116 -0.2253 -0.0212 -0.2444
19455W        W62549  24.730   1.068   0.943 -0.1756  0.1139 -0.4470
19456W        W62550  24.349   0.653   0.577  0.1119 -0.1900  0.0053
19457W        W62551  22.553   2.628   3.346  0.0186  0.2918 -0.0658
19458W        W62552  21.764   1.990   1.323  0.1662 -0.2504 -0.1478
19459W        W62553  21.640   2.567   0.474  0.0676 -0.0038 -0.0806
19460W        W62554  22.366   2.340   1.073  0.1059 -0.0055 -0.1951
19461W        W62555  23.696   0.042   4.972  0.0069 -0.1334  0.2051
19462W        W62556  22.756   1.643   3.167 -0.1796  0.0261 -0.0124
19463W        W62557  22.079   0.080   2.155 -0.0213 -0.2534 -0.0174
19464W        W62558  22.545   0.288   1.222  0.4392 -0.0358 -0.3578
19465W        W62559  26.257   2.749   0.687  0.0481  0.2375 -0.0522
19466W        W62560  22.680   0.749   1.695 -0.2362 -0.1596  0.1492
19467W        W62561  22.777   0.142   0.401 -0.0485 -0.2113  0.2428
19468W        W62562  24.083   2.417  31.851 -0.0546 -0.0439  0.0539
19469W        W62563  25.865   1.886   2.042 -0.0049  0.1970 -0.1415
19470W        W62564  23.348   0.677  31.749 -0.1262  0.2101 -0.0150
19471W        W62565  25.514   3.424   4.145 -0.1141 -0.1572  0.0914
19472W        W62566  22.138   1.940   0.262 -0.0730  0.2545 -0.0426
19473W        W62567  22.967   2.708   3.980  0.3100 -0.0582 -0.0650
19474W        W62568  23.256   1.841   3.326  0.1159  0.0980 -0.0714
19475W        W62569  21.375   0.288  31.852 -0.2775 -0.0923  0.1313
19476W        W62570  24.737   0.479   2.037  0.0418  0.2222  0.2549
19477W        W62571  24.772   2.956   0.077 -0.1554  0.0444 -0.2314
19478W        W62572  23.329   4.250  31.680  0.0573 -0.1457 -0.1027
19479W        W62573  24.239   2.647   2.361  0.0625 -0.2471  0.0436
19480W        W62574  23.636   3.543   3.034 -0.1252 -0.1463  0.0687
19481W        W62575  23.065  34.622   3.304  0.3083 -0.1535  0.2490
19482W        W62576  23.206   1.709  31.953 -0.0710  0.1781  0.1174
19483W        W62577  23.508   3.462   3.501 -0.0624  0.3237  0.0316
19484W        W62578  25.389   1.755   0.165  0.2618 -0.0200  0.0146
19485W        W62579  26.377   0.179   2.193  0.1917  0.1783 -0.3418
19486W        W62580  25.267   2.184   0.491 -0.1062 -0.5548  0.2115
19487W        W62581  23.826  34.544   2.272  0.1533  0.0639  0.0829
19488W        W62582  23.391   3.975   2.694 -0.3493 -0.4664  0.0822
19489W        W62583  25.186   3.007   2.159 -0.3426  0.0272 -0.0409
19490W        W62584  23.439   0.108   1.987  0.2519 -0.3277 -0.2759
19491W        W62585  23.434   1.140   0.365  0.0490 -0.2335  0.3115
19492W        W62586  22.740   2.978  31.049  0.1725  0.0108 -0.0691
19493W        W62587  23.642   1.708   1.739 -0.0053 -0.0223 -0.1611
19494W        W62588  23.912   2.327   0.629 -0.0631  0.0037  0.1217
19495W        W62589  23.609   2.671   2.735  0.1804  0.4852 -0.2682
19496W        W62590  24.001   3.198   2.720 -0.0791 -0.0839  0.0086
19497W        W62591  25.233   3.049   4.050 -0.0142  0.0743  0.0383
19498W        W62592  23.253   0.154   0.313 -0.0434 -0.3826 -0.1508
19499W        W62593  24.288   2.576   0.346 -0.1383 -0.1764 -0.1259
19500W        W62594  25.522   3.844   0.998 -0.2239 -0.0331 -0.3697
19501W        W62595  25.587   3.172   4.580  0.0906  0.2799 -0.1183
19502W        W62596  25.007   3.631   3.555 -0.1361  0.2288 -0.0861
19503W        W62597  24.389   2.317   1.316  0.1433  0.4308 -0.0012
19504W        W62598  21.788   0.594   2.142  0.1973  0.0532 -0.0522
19505W        W62599  22.858   0.906  31.495  0.0252 -0.0531  0.4378
19506W        W62600  23.311   1.780  31.453  0.0749 -0.0014  0.0781
19507W        W62601  25.582   1.594   3.608  0.0434 -0.0561 -0.3178
19508W        W62602  23.896   0.187   1.919  0.2572  0.0502 -0.0062
19509W        W62603  25.028   0.508  31.903 -0.0761  0.0043 -0.5368
19510W        W62604  23.918   4.169   2.715  0.2573 -0.1664 -0.0369
19511W        W62605  23.965   2.389   2.894 -0.0344 -0.2847  0.0673
19512W        W62606  21.485   1.014   6.341  0.2825 -0.2527  0.1005
19513W        W62607  22.585   1.979   5.195 -0.2153  0.0715 -0.3478
19514W        W62608  25.010   0.730   3.477 -0.0057  0.4077 -0.3552
19515W        W62609  24.266   1.837   4.935  0.4296 -0.0959  0.1609
19516W        W62610  21.140   0.145   3.937  0.0424  0.0679 -0.0524
19517W        W62611  23.665   5.278   4.720  0.0453 -0.0542  0.1082
19518W        W62612  22.474  34.058   5.716  0.1293 -0.0897 -0.0794
19519W        W62613  25.191   3.693   7.177 -0.1683  0.0320  0.1339
19520W        W62614  24.507   2.671   6.325 -0.0049 -0.1710 -0.1043
19521W        W62615  24.741   1.960   2.078  0.2750  0.0208 -0.2976
19522W        W62616  23.058   1.232   6.243  0.0664  0.1566 -0.3480
19523W        W62617  22.934   4.104   5.765 -0.3686 -0.2779 -0.0388
19524W        W62618  24.128   1.140   4.761 -0.5516  0.4740 -0.0052
19525W        W62619  23.246  33.804   4.633  0.0732 -0.1533  0.0352
19526W        W62620  23.141   3.215   4.543 -0.1593  0.3569 -0.0288
19527W        W62621  23.198   0.690   3.886 -0.0998  0.1566 -0.0200
19528W        W62622  21.898   0.524   5.796 -0.2059 -0.0797  0.1478
19529W        W62623  24.067   0.644   4.124  0.2841  0.3278  0.0271
19530W        W62624  23.767   4.289   6.883  0.1677 -0.1535 -0.1371
19531W        W62625  23.068   0.509   6.733  0.1520  0.3062 -0.2953
19532W        W62626  23.667   1.631   6.055 -0.0006  0.0379  0.1693
19533W        W62627  24.250   3.459   4.623 -0.1474  0.1672  0.0700
19534W        W62628  23.291   2.359   4.122  0.3022  0.0916  0.2287
19535W        W62629  21.790   1.576   5.921 -0.0591  0.0923 -0.2324
19536W        W62630  22.720   1.780   5.865  0.3222  0.0329  0.3038
19537W        W62631  25.333   1.120   6.716 -0.2100  0.2106 -0.3120
19538W        W62632  24.946   2.010   6.343 -0.1344  0.0765  0.0143
19539W        W62633  22.896   3.846   5.103  0.0990  0.0118 -0.4165
19540W        W62634  23.869   3.810   6.523  0.3881  0.1967 -0.1424
19541W        W62635  25.271   1.652   7.962  0.0740 -0.1743 -0.0962
19542W        W62636  22.831   3.547   4.383 -0.2202  0.2375  0.0949
19543W        W62637  20.684   4.665   4.686  0.6198  0.0589  0.0635
19544W        W62638  22.312   4.484   4.693 -0.3090  0.2935  0.2013
19545W        W62639  26.498   3.327   3.433 -0.2671 -0.3284 -0.3577
19546W        W62640  24.549   3.289   7.425 -0.1757 -0.0011  0.2922
19547W        W62641  23.238   4.559   6.601  0.2441 -0.2002 -0.4521
19548W        W62642  22.284   2.689   4.494 -0.0515  0.3128 -0.2138
19549W        W62643  23.050   3.362   5.301 -0.4213 -0.1597  0.2934
19550W        W62644  23.331   3.216   6.347  0.0080  0.1291  0.0494
19551W        W62645  24.027   1.950   6.065 -0.2044 -0.0365  0.1650
19552W        W62646  24.309   2.513   4.468 -0.1832 -0.0796 -0.1918
19553W        W62647  22.970   3.971   4.097 -0.2498  0.0306 -0.1963
19554W        W62648  22.330   3.452   4.473 -0.1608 -0.1766  0.1368
19555W        W62649  23.216   1.963   6.793 -0.2896 -0.0614  0.0123
19556W        W62650  21.065   3.786   3.826 -0.0163  0.0491 -0.2903
19557W        W62651  24.750   0.405   8.156  0.1865 -0.0186 -0.0678
19558W        W62652  23.355   4.244   3.935 -0.3284  0.0223 -0.0477
19559W        W62653  24.598   2.312   3.704  0.0836  0.0150 -0.1574
19560W        W62654  23.047   2.798   3.390 -0.1158  0.1849  0.0687
19561W        W62655  25.446   1.886   3.955  0.2849  0.0368 -0.1695
19562W        W62656  24.235  33.959   4.981 -0.1412  0.2213  0.1875
19563W        W62657  21.474   4.388   3.819 -0.2717  0.0895  0.1154
19564W        W62658  23.191   1.675   6.342  0.4435 -0.2702  0.1390
19565W        W62659  25.114   2.854   6.510  0.1241 -0.0808  0.0228
19566W        W62660  23.643   2.532   5.078 -0.0350  0.1043  0.0896
19567W        W62661  23.540   1.980   5.755 -0.0216 -0.0170  0.2988
19568W        W62662  22.034   3.057   7.044  0.1940 -0.1189 -0.1193
19569W        W62663  22.901   1.376   4.486 -0.2373 -0.0490 -0.0284
19570W        W62664  25.301   3.595   4.576  0.2575  0.0712  0.3459
19571W        W62665  25.905   2.729   5.264  0.2981  0.1253  0.2609
19572W        W62666  25.230   4.192   4.424  0.2207  0.0073  0.0487
19573W        W62667  23.120   1.383   3.422  0.4171  0.1992  0.0901
19574W        W62668  21.752   1.955   7.361 -0.0003 -0.0009  0.0775
19575W        W62669  21.264   2.188   6.286  0.0387 -0.1035  0.1200
19576W        W62670  23.751  34.614   3.950 -0.1134 -0.1838  0.1576
19577W        W62671  24.878   1.892   6.945  0.1218  0.0232 -0.0903
19578W        W62672  22.304   1.047   6.297  0.1644  0.1778 -0.2922
19579W        W62673  25.132   1.071   4.951 -0.1543 -0.2304 -0.0610
19580W        W62674  22.800   2.315   4.322 -0.1377 -0.2485  0.0218
19581W        W62675  25.239   3.261   6.747 -0.1774  0.1794  0.1137
19582W        W62676  24.900   2.681   3.103 -0.2331  0.2383  0.1608
19583W        W62677  24.034   1.146   5.741 -0.1922 -0.0014  0.2122
19584W        W62678  24.573   1.726   5.970  0.0944 -0.1183 -0.2331
19585W        W62679  23.310   4.372   3.409  0.2073  0.2256  0.0010
19586W        W62680  23.390   3.476   4.929  0.1334  0.2684  0.1680
19587W        W62681  25.485   2.443   5.398  0.0817 -0.1072 -0.2346
19588W        W62682  25.305   2.707   4.581 -0.0398  0.1206  0.1065
19589W        W62683  21.944   3.473   4.979 -0.1618 -0.2290 -0.2370
19590W        W62684  21.908   1.003   6.629  0.2965  0.0188 -0.1944
19591W        W62685  23.113   2.768   7.234  0.1019  0.1476  0.2016
19592W        W62686  22.825   4.162   3.312 -0.0556 -0.0676  0.3483
19593W        W62687  21.726   1.889   6.318  0.3151  0.0514  0.0247
19594W        W62688  22.122   3.093   3.496  0.2731 -0.3738  0.1061
19595W        W62689  22.677   0.728   6.116  0.2246  0.0072  0.1840
19596W        W62690  23.282   3.798   5.509  0.2466  0.2668  0.2102
19597W        W62691  25.661   1.368   4.150  0.4415  0.0965  0.1248
19598W        W62692  21.426   0.647   5.889  0.2284  0.0051 -0.3197
19599W        W62693  25.228   1.431   5.812  0.1575 -0.0567 -0.1095
19600W        W62694  22.722   4.156   4.535  0.1881  0.3285  0.2444
19601W        W62695  24.690   2.361   5.135  0.0414  0.0593 -0.2806
19602W        W62696  25.559   2.056   3.427  0.1364  0.3103 -0.1831
19603W        W62697  24.410   2.497   3.246  0.3138 -0.2669 -0.0838
19604W        W62698  22.259   0.448   6.416 -0.0519 -0.0002 -0.0434
19605W        W62699  23.284   0.269   4.848  0.0446 -0.3502 -0.1917
19606W        W62700  22.411   0.301   5.721  0.2194  0.1324  0.3239
19607W        W62701  22.818   0.826   5.610 -0.2227  0.1156 -0.1014
19608W        W62702  25.407   3.088   7.723 -0.2546  0.0566 -0.3001
19609W        W62703  24.190  34.150   4.531 -0.1138  0.1276  0.0531
19610W        W62704  23.796   0.851   4.537  0.1830 -0.1974  0.1318
19611W        W62705  23.695   0.634   5.082  0.0812 -0.0478 -0.1085
19612W        W62706  22.982   0.858   2.706  0.3894 -0.1048  0.0729
19613W        W62707  25.047   0.932   5.917  0.0011  0.0007  0.1482
19614W        W62708  24.421   4.546   6.188 -0.5493 -0.2452  0.2210
19615W        W62709  25.797   3.808   6.335 -0.1144  0.0650  0.1699
19616W        W62710  24.394   3.759   5.775  0.3016 -0.1521 -0.0782
19617W        W62711  23.115   1.153   5.369  0.3908 -0.2247  0.1933
19618W        W62712  22.849  34.026   4.013 -0.2134  0.1175  0.2735
19619W        W62713  22.641   4.312   5.018  0.0351 -0.3272 -0.5746
19620W        W62714  22.724   3.433   4.872  0.1339 -0.0347  0.0588
19621W        W62715  22.718  34.639   3.962  0.0580 -0.0435 -0.2959
19622W        W62716  25.083   2.938   5.650 -0.0756  0.1033 -0.0595
19623W        W62717  22.957   1.671   5.424  0.0294 -0.0117 -0.1536
19624W        W62718  23.224   2.521   5.398  0.1704  0.1409  0.0120
19625W        W62719  24.168   1.667   6.541 -0.2299 -0.1804 -0.1932
19626W        W62720  24.308   2.347   5.946 -0.1092  0.0295  0.0465
19627W        W62721  23.490   3.020   5.297  0.1221 -0.2017 -0.0894
19628W        W62722  22.903   2.233   3.262  0.2632  0.2009  0.2811
19629W        W62723  24.717   3.810   5.320  0.3810 -0.1973  0.1504
19630W        W62724  22.482   2.591   4.051 -0.2068  0.1015 -0.0302
19631W        W62725  23.264   0.630   4.509 -0.1092 -0.3258  0.4299
19632W        W62726  24.923   3.797   5.814  0.0392  0.2307 -0.0319
19633W        W62727  24.899   1.270   5.401 -0.2223 -0.2628 -0.3059
19634W        W62728  22.394   1.105   6.819  0.0797 -0.0984 -0.1939
19635W        W62729  24.978   1.866   7.453 -0.0398  0.0386 -0.1132
19636W        W62730  23.648   1.910   3.679 -0.1729  0.0641 -0.1583
19637W        W62731  22.822   2.892   6.765 -0.0396 -0.2388  0.0969
19638W        W62732  23.197   1.610   5.858  0.2250 -0.2226  0.2270
19639W        W62733  25.291   1.327   4.503 -0.0934 -0.0476 -0.4318
19640W        W62734  24.691   2.860   6.778 -0.1605 -0.0937 -0.2383
19641W        W62735  24.853   2.787   5.291  0.0620 -0.0008  0.2327
19642W        W62736  25.145   2.323   3.322 -0.1117  0.1894 -0.1017
19643W        W62737  24.366   1.356   3.855  0.2421  0.0196 -0.1752
19644W        W62738  23.568   2.689   7.370  0.0929 -0.1110 -0.0226
19645W        W62739  24.479   3.017   4.388  0.1786  0.2695 -0.3249
19646W        W62740  23.096   2.658   4.943 -0.3781 -0.0980  0.1966
19647W        W62741  25.193   1.404   2.933  0.1174 -0.1520 -0.0557
19648W        W62742  26.277   2.433   4.967  0.0443 -0.0738  0.0643
19649W        W62743  20.838   1.507   6.434 -0.1211  0.1937  0.0427
19650W        W62744  24.770   3.346   8.414  0.1571 -0.0782  0.0555
19651W        W62745  23.118   4.379   4.827  0.1030 -0.2517 -0.0807
19652W        W62746  22.597  34.562   5.946 -0.1315  0.0655 -0.0029
19653W        W62747  23.575   0.707   3.557  0.0891 -0.2713 -0.2552
19654W        W62748  24.063   1.643   3.530  0.0464  0.2881 -0.0443
19655W        W62749  22.136   4.055   3.786 -0.1065 -0.0669  0.2030
19656W        W62750  24.758   0.567   6.111 -0.0221  0.2007 -0.1699
19657W        W62751  24.304   0.810   6.232  0.1270  0.0534  0.1116
19658W        W62752  22.755   1.391   7.286 -0.0209 -0.1004  0.3860
19659W        W62753  25.553   2.139   4.979  0.1807  0.2232  0.1083
19660W        W62754  24.851   2.415   5.621 -0.0900  0.0165 -0.0238
19661W        W62755  23.844   1.643   5.098  0.3548 -0.0299 -0.5244
19662W        W62756  23.454   1.111   3.876  0.2757  0.3135  0.2160
19663W        W62757  24.432   1.397   7.978  0.0298 -0.1566  0.0270
19664W        W62758  21.954   2.838   6.050  0.0857  0.2266  0.0246
19665W        W62759  21.292   3.572   6.639 -0.0263 -0.2222  0.2187
19666W        W62760  24.584   3.189   7.977  0.0798 -0.3348 -0.0033
19667W        W62761  23.767   3.487   5.830  0.0588  0.0798 -0.0225
19668W        W62762  24.170   0.309   8.089 -0.0426 -0.0194 -0.0836
19669W        W62763  24.023   1.705   4.059  0.2317 -0.0973  0.0613
19670W        W62764  23.110   4.426   4.336  0.2199  0.0007  0.0781
19671W        W62765  23.753   4.506   4.092  0.0586  0.0852 -0.1440
19672W        W62766  23.100  34.500   4.878  0.1933  0.2701  0.1564
19673W        W62767  22.780   2.207   6.069  0.0165 -0.1257 -0.0360
19674W        W62768  24.134   4.261   3.142  0.3553  0.0052 -0.0370
19675W        W62769  25.407   2.381   6.367 -0.4218  0.2334  0.0325
19676W        W62770  22.734   3.657   5.625 -0.0782 -0.3327  0.3524
19677W        W62771  25.053   0.832   6.432 -0.0550  0.3626 -0.1101
19678W        W62772  22.105   4.420   5.220 -0.0808 -0.0375  0.2819
19679W        W62773  23.903   2.212   5.427 -0.3060  0.2250  0.3952
19680W        W62774  22.610   1.230   5.020 -0.0231  0.3084 -0.0710
19681W        W62775  23.801   1.892   3.185 -0.2006  0.2269 -0.0858
19682W        W62776  25.520   3.336   3.545  0.1781  0.0275  0.4797
19683W        W62777  22.338   0.874   5.760  0.1026  0.0940  0.0192
19684W        W62778  23.868   1.146   5.224 -0.0375  0.0457  0.2590
19685W        W62779  22.528   4.185   5.527 -0.2623 -0.0371 -0.1529
19686W        W62780  24.476   2.066   6.373  0.2675 -0.0429  0.1374
19687W        W62781  27.087   0.533   3.790  0.1021 -0.1608 -0.1130
19688W        W62782  23.649   2.999   5.917  0.1434 -0.3058  0.1784
19689W        W62783  24.016   2.042   6.856 -0.0453 -0.1294  0.1509
19690W        W62784  22.748   0.401   3.747  0.0846 -0.0125  0.0235
19691W        W62785  25.808   1.528   5.981  0.1874 -0.1306  0.0293
19692W        W62786  22.520   2.245   5.648  0.2316 -0.1674 -0.2688
19693W        W62787  21.984   3.816   4.440  0.0542 -0.1229  0.0491
19694W        W62788  24.321   2.484   6.863  0.1469 -0.0352  0.1367
19695W        W62789  23.105   2.167   5.072 -0.0683  0.0899  0.0618
19696W        W62790  23.245   3.784   4.544 -0.1081  0.1292 -0.0096
19697W        W62791  22.519   1.629   6.921 -0.4254 -0.2987 -0.1743
19698W        W62792  25.293   2.812   6.086  0.3419 -0.2347  0.3528
19699W        W62793  23.661   0.854   6.385  0.0274 -0.2690 -0.0333
19700W        W62794  22.378   0.114   5.188  0.0149 -0.1253 -0.0965
19701W        W62795  23.766   2.387   5.986 -0.0290 -0.0628  0.0512
19702W        W62796  25.020   1.924   5.777 -0.0375  0.2329  0.3193
19703W        W62797  24.372   1.736   7.059  0.2286  0.2375  0.0624
19704W        W62798  23.671   3.555   5.304  0.1917 -0.0142 -0.1530
19705W        W62799  23.000   1.473   6.765 -0.1069  0.1856 -0.1719
19706W        W62800  25.329   1.567   5.264 -0.0592 -0.0672  0.0007
19707W        W62801  25.027   2.342   7.534 -0.0263 -0.1003  0.1717
19708W        W62802  23.375   3.537   4.143  0.2878  0.1213  0.1628
19709W        W62803  21.637   1.410   6.602  0.1800 -0.1626 -0.2039
19710W        W62804  24.752   3.485   4.846  0.1126  0.1140 -0.1605
19711W        W62805  23.396   1.190   4.976 -0.1122 -0.0252  0.1435
19712W        W62806  22.447   3.859   4.820 -0.1188  0.0785  0.0819
19713W        W62807  22.862   0.375   4.347 -0.0223 -0.0980 -0.0489
19714W        W62808  23.198   2.540   5.923 -0.4725 -0.2572 -0.0333
19715W        W62809  25.981   0.593   4.692 -0.3062  0.0060 -0.4009
19716W        W62810  25.017   2.470   2.687 -0.2927  0.3263 -0.3035
19717W        W62811  23.924   1.166   4.129  0.0333  0.3408  0.4857
19718W        W62812  25.260   0.557   7.478 -0.2112 -0.1158  0.1124
19719W        W62813  24.126   2.251   4.092  0.2410 -0.1133  0.1017
19720W        W62814  23.634   0.685   7.581 -0.1998 -0.0909 -0.2288
19721W        W62815  22.617  34.068   6.300  0.2077 -0.0811  0.3050
19722W        W62816  25.095   2.028   5.215  0.0399 -0.0859 -0.0440
19723W        W62817  21.202   0.353   6.247 -0.0445  0.2612 -0.2541
19724W        W62818  22.859   3.959   7.973 -0.0642 -0.0731  0.1195
19725W        W62819  22.077   1.503   6.371  0.2495  0.1227 -0.0275
19726W        W62820  23.819   2.098   4.836 -0.2714 -0.2952 -0.2371
19727W        W62821  23.147   0.663   5.167  0.1503 -0.0209 -0.0358
19728W        W62822  23.380   2.935   7.730  0.0184 -0.1185 -0.2351
19729W        W62823  25.966   2.210   5.368 -0.3243 -0.2446 -0.1106
19730W        W62824  23.771   2.703   5.554  0.2817  0.2881 -0.1781
19731W        W62825  24.626   2.846   5.803  0.2547  0.0791 -0.2491
19732W        W62826  22.277   1.964   4.792  0.2184  0.0455 -0.0896
19733W        W62827  24.327   2.595   5.450 -0.2339  0.1477 -0.2303
19734W        W62828  24.125   3.820   3.447 -0.0264 -0.1209 -0.0108
19735W        W62829  23.403   1.191   4.462  0.0128 -0.2399 -0.0448
19736W        W62830  23.479   1.489   6.864  0.1102 -0.2422 -0.3301
19737W        W62831  23.285   2.240   7.244 -0.1709 -0.1868  0.3108
19738W        W62832  24.098   1.654   5.677 -0.2526  0.2523  0.1166
19739W        W62833  24.917   0.867   7.646  0.0809  0.1440 -0.0059
19740W        W62834  25.399   2.016   7.194 -0.1540 -0.4555  0.2034
19741W        W62835  24.856   2.572   7.111 -0.0630  0.0437  0.0761
19742W        W62836  22.460   0.768   7.557  0.1491 -0.0120  0.0964
19743W        W62837  24.834   4.146   6.462 -0.2995 -0.1028  0.0383
19744W        W62838  25.780   1.228   3.257 -0.1110  0.2041  0.2028
19745W        W62839  25.308   1.011   5.427 -0.2175  0.3093 -0.1176
19746W        W62840  24.276   1.429   5.252  0.0328 -0.3268 -0.1786
19747W        W62841  24.724   2.699   4.748 -0.1971 -0.2377  0.0630
19748W        W62842  23.573   1.390   5.564  0.2659 -0.1329  0.1672
19749W        W62843  25.375   2.194   7.966 -0.0138 -0.3369  0.1486
19750W        W62844  23.191   0.194   3.970  0.1028  0.1690 -0.1069
19751W        W62845  26.217   1.161   7.105 -0.0262 -0.1230 -0.1683
19752W        W62846  24.069   4.078   4.527  0.1510  0.1764  0.0204
19753W        W62847  22.024   3.948   5.261  0.3007  0.0887  0.1288
19754W        W62848  24.594   2.232   4.191 -0.0089  0.0310  0.1367
19755W        W62849  22.373   1.522   5.376  0.1292 -0.3046  0.0550
19756W        W62850  22.482   3.837   6.493  0.0839 -0.0420  0.1745
19757W        W62851  23.143   1.768   4.356 -0.1342 -0.1422  0.0928
19758W        W62852  22.914   4.119   2.824  0.1411 -0.0451  0.0215
19759W        W62853  24.829   2.397   6.636 -0.1762 -0.1042  0.0707
19760W        W62854  25.421   1.553   7.496  0.2299 -0.0734 -0.2987
19761W        W62855  25.110   1.767   3.267 -0.3155 -0.0311  0.0395
19762W        W62856  25.541   0.143   7.417 -0.2525 -0.1002  0.3050
19763W        W62857  22.290   2.096   3.424  0.0271  0.0592  0.2373
19764W        W62858  24.503   1.798   4.032  0.0525  0.1132 -0.0602
19765W        W62859  23.077   4.933   6.107 -0.0726 -0.0757  0.0986
19766W        W62860  22.669   2.563   7.602  0.0469  0.1632 -0.0373
19767W        W62861  21.369   3.968   4.721 -0.0882 -0.0135 -0.0490
19768W        W62862  23.544   2.333   6.819  0.0228 -0.1020  0.0591
19769W        W62863  24.223   1.323   6.170  0.1303 -0.0916 -0.0365
19770W        W62864  23.240   0.663   6.254 -0.0506  0.0642 -0.1436
19771W        W62865  25.678   1.125   7.301 -0.0218 -0.0252 -0.0970
19772W        W62866  24.639   3.755   7.258  0.2351  0.2991 -0.0837
19773W        W62867  22.995   2.116   5.623 -0.0180  0.1041 -0.0725
19774W        W62868  24.415   3.711   6.706  0.0817 -0.1319  0.1426
19775W        W62869  24.896   2.445   6.127 -0.1248 -0.0011 -0.3903
19776W        W62870  22.676   2.608   5.219 -0.0928  0.1767  0.0355
19777W        W62871  21.530   0.379   7.101  0.0348 -0.0362  0.2130
19778W        W62872  23.939   2.311   6.442  0.0501 -0.1229  0.0178
19779W        W62873  22.284   1.920   6.178 -0.1033 -0.0233  0.2027
19780W        W62874  23.005   0.146   5.288 -0.2474  0.0565  0.0736
19781W        W62875  24.371   3.890   4.907  0.1532  0.0948  0.0816
19782W        W62876  23.293   2.734   6.786  0.1089  0.3003 -0.2120
19783W        W62877  21.856   2.861   6.581  0.0949  0.0501 -0.0766
19784W        W62878  23.169   3.833   3.631 -0.0249 -0.1186 -0.3769
19785W        W62879  24.441   3.061   4.881 -0.0630 -0.1746  0.0580
19786W        W62880  23.785   2.511   4.578 -0.2556 -0.2014  0.0007
19787W        W62881  23.613   4.048   7.313  0.2797 -0.1374  0.1633
19788W        W62882  23.693   2.527   3.924  0.2648 -0.1054  0.0380
19789W        W62883  21.688   4.526   5.026  0.1364  0.1470 -0.0867
19790W        W62884  23.048   1.327   3.994  0.3052  0.0652  0.0206
19791W        W62885  24.083   4.099   3.968 -0.7186  0.2025 -0.2221
19792W        W62886  22.744   4.830   3.965  0.0108 -0.4531 -0.2072
19793W        W62887  25.590   2.884   6.548 -0.0692  0.0910 -0.0471
19794W        W62888  24.532   1.779   3.478  0.2024  0.0408 -0.0663
19795W        W62889  24.489   1.959   5.436  0.0952 -0.0282 -0.3610
19796W        W62890  25.939   1.781   4.176 -0.0382 -0.0608 -0.1426
19797W        W62891  23.588   3.679   6.921  0.0007 -0.1435  0.0349
19798W        W62892  22.972   2.845   6.240  0.3320  0.0510  0.5011
19799W        W62893  23.509   1.520   4.076  0.0668  0.0279  0.3525
19800W        W62894  23.484   2.624   6.320  0.0977 -0.0680 -0.0502
19801W        W62895  24.768   0.385   7.612  0.0432 -0.0140  0.0669
19802W        W62896  22.809   3.269   5.984  0.1932  0.0197  0.1497
19803W        W62897  25.820   3.251   5.232 -0.1838  0.0997 -0.0834
19804W        W62898  22.803   1.914   4.748 -0.3528  0.0715 -0.3787
19805W        W62899  23.762   1.551   4.537 -0.1533 -0.0851 -0.2540
19806W        W62900  26.429   0.239   6.361  0.1550  0.1889 -0.1137
19807W        W62901  23.706   3.842   3.766 -0.1817 -0.3460  0.1833
19808W        W62902  24.709   1.133   6.335  0.1743 -0.1359  0.2198
19809W        W62903  22.952   4.639   5.297 -0.4208  0.2475  0.2507
19810W        W62904  21.527   4.086   5.173 -0.2197  0.2652  0.1824
19811W        W62905  22.015   4.903   5.349  0.0384  0.0022  0.0656
19812W        W62906  22.513  34.525   4.730 -0.0016  0.0255  0.1990
19813W        W62907  24.601   1.255   4.883 -0.0039 -0.1907 -0.0672
19814W        W62908  23.362   2.159   6.192 -0.1347  0.0069 -0.0265
19815W        W62909  25.765   0.900   6.437  0.1024  0.2503  0.2812
19816W        W62910  21.749   1.928   5.362  0.0418 -0.3260 -0.0927
19817W        W62911  27.107   1.304   4.915 -0.1967  0.1657 -0.0144
19818W        W62912  23.890   2.332   7.264 -0.0155  0.0900  0.0234
19819W        W62913  22.782   1.284   5.820 -0.1397  0.3241 -0.1381
19820W        W62914  24.011   2.952   4.650  0.1383 -0.1296 -0.1922
19821W        W62915  25.308   2.320   5.875  0.0760 -0.3252 -0.2879
19822W        W62916  24.010   3.320   3.404  0.0603  0.0476  0.0188
19823W        W62917  23.833   3.481   7.405  0.3174  0.0419 -0.1505
19824W        W62918  21.117   0.006   4.685  0.1372 -0.2836  0.3408
19825W        W62919  24.919   0.766   5.274  0.1105 -0.1512 -0.1389
19826W        W62920  23.412   1.789   4.777  0.3245 -0.0582 -0.3357
19827W        W62921  23.662   1.857   6.516  0.2750 -0.4746  0.0996
19828W        W62922  23.926   3.846   8.696 -0.0992 -0.0542  0.1475
19829W        W62923  23.486  34.249   4.740 -0.0014 -0.1040 -0.3268
19830W        W62924  25.723   3.888   4.290 -0.1661 -0.3191  0.0074
19831W        W62925  24.149   2.807   5.880 -0.0238  0.1207 -0.0941
19832W        W62926  24.297   4.225   5.766  0.0953 -0.1446  0.1323
19833W        W62927  24.231   3.311   5.729  0.0137  0.1730  0.0632
19834W        W62928  23.735   4.048   5.539 -0.1285 -0.1042  0.1698
19835W        W62929  22.138   1.053   5.332 -0.0952  0.2631 -0.3918
19836W        W62930  25.621   3.367   6.350  0.0259 -0.2023 -0.1785
19837W        W62931  26.521   2.967   4.687  0.1579  0.0171  0.1104
19838W        W62932  24.370   0.970   4.246  0.0210 -0.1347  0.0355
19839W        W62933  23.001   1.515   4.932 -0.0418  0.0251  0.0220
19840W        W62934  22.806   3.543   3.859  0.2002 -0.1303 -0.4143
19841W        W62935  24.440   3.134   6.149  0.0412  0.0898 -0.1074
19842W        W62936  25.781   1.112   8.427  0.0604 -0.3251 -0.0604
19843W        W62937  22.675   4.819   3.472  0.1431  0.2109  0.0048
19844W        W62938  24.336   1.219   7.179  0.0823 -0.3797  0.1842
19845W        W62939  23.670   3.162   7.043 -0.0859 -0.3544 -0.1785
19846W        W62940  23.313   4.086   6.875 -0.2962 -0.0046 -0.1175
19847W        W62941  22.168   1.060   3.719 -0.1169  0.0918 -0.0602
19848W        W62942  23.861   2.537   7.783 -0.0037 -0.0426  0.1131
19849W        W62943  23.732   3.372   4.536 -0.2879  0.0716  0.0487
19850W        W62944  22.909   3.777   6.128  0.0066 -0.1272 -0.0140
19851W        W62945  25.187   3.764   6.282  0.2474  0.0073 -0.2543
19852W        W62946  24.202   1.963   4.468  0.0207 -0.2148 -0.0733
19853W        W62947  26.202   4.002   4.032 -0.1126  0.0841 -0.0550
19854W        W62948  22.918   0.201   5.774  0.2604 -0.0955  0.1364
19855W        W62949  24.387   0.967   5.292  0.0437  0.0142 -0.0170
19856W        W62950  24.908   0.099   4.351 -0.3343 -0.1873 -0.0670
19857W        W62951  22.303   2.393   6.083  0.1503  0.0611 -0.1651
19858W        W62952  21.648   0.233   3.947  0.1063 -0.1551  0.1224
19859W        W62953  23.043   3.324   3.488 -0.0325  0.1654 -0.0483
19860W        W62954  23.643   2.018   4.278  0.3436  0.2891  0.1498
19861W        W62955  23.507   0.745   7.063  0.2338  0.1221  0.0733
19862W        W62956  21.479   0.714   6.752 -0.0877 -0.0635 -0.0304
19863W        W62957  22.164   2.834   5.069 -0.3618 -0.1598 -0.1564
19864W        W62958  22.982   0.983   4.742 -0.1451  0.0546 -0.0937
19865W        W62959  25.977   3.633   5.624 -0.0263 -0.1837  0.2111
19866W        W62960  23.042  34.091   5.140 -0.1471 -0.1977  0.1770
19867W        W62961  22.159  33.398   4.560  0.2886 -0.2009  0.0992
19868W        W62962  24.142   2.492   5.008  0.0926  0.0478 -0.0744
19869W        W62963  24.040   3.032   5.161 -0.0071  0.0430  0.2928
19870W        W62964  23.472   1.138   5.997  0.0954  0.3602 -0.0789
19871W        W62965  24.582   4.689   8.055  0.1191 -0.0218  0.1988
19872W        W62966  23.119   1.981   3.854 -0.4367 -0.0368  0.3255
19873W        W62967  23.646   1.324   6.456  0.0679 -0.0337  0.0335
19874W        W62968  22.022  34.516   6.621  0.0090 -0.3500 -0.0819
19875W        W62969  22.720   0.560   3.225  0.4745  0.0640  0.2537
19876W        W62970  23.438   1.850   5.271 -0.1971  0.0427  0.0310
19877W        W62971  24.812   3.310   5.862 -0.0121  0.5247  0.0730
19878W        W62972  23.688   3.614   2.532  0.0062 -0.0184 -0.2276
19879W        W62973  25.004   2.976   7.342  0.1328  0.0957  0.2525
19880W        W62974  23.451   3.907   5.966  0.2289  0.0279  0.0253
19881W        W62975  22.061  34.591   5.687  0.0856 -0.3374 -0.1328
19882W        W62976  23.529   2.974   4.805 -0.0640 -0.0115  0.1177
19883W        W62977  23.795   3.321   6.581  0.1370 -0.0847  0.3735
19884W        W62978  25.751   2.491   4.674 -0.2627 -0.3589 -0.0916
19885W        W62979  24.845   0.189   6.637 -0.0234 -0.1136 -0.0986
19886W        W62980  24.315   2.067   3.079  0.5918  0.1222 -0.0167
19887W        W62981  22.186  34.369   7.171 -0.1322  0.3787  0.1290
19888W        W62982  23.063   2.396   6.483  0.1395 -0.2513  0.1348
19889W        W62983  26.099   3.922   5.046  0.0975  0.2563  0.0171
19890W        W62984  23.782   0.312   6.291  0.2532  0.0054  0.0348
19891W        W62985  24.683   1.687   4.575 -0.4009  0.0267  0.5137
19892W        W62986  24.640   2.734   3.994  0.0542 -0.2315  0.0639
19893W        W62987  22.244   3.361   6.265  0.2148  0.2806  0.0100
19894W        W62988  23.095   3.185   4.032 -0.1550  0.1148  0.1922
19895W        W62989  24.871   1.422   7.755 -0.0319 -0.0313  0.0186
19896W        W62990  23.332   4.705   5.702  0.1756  0.5852 -0.2543
19897W        W62991  25.430   2.617   7.463  0.1051 -0.1045 -0.0431
19898W        W62992  22.537   1.257   3.988  0.0655 -0.0334  0.1374
19899W        W62993  25.376   2.774   3.574 -0.2869 -0.1310 -0.0766
19900W        W62994  24.927   3.792   6.769 -0.1221 -0.0308  0.1727
19901W        W62995  24.310   3.130   6.596  0.1840 -0.1457 -0.2299
19902W        W62996  24.286   4.940   6.501  0.0746 -0.1084 -0.0157
19903W        W62997  24.139   3.516   6.199  0.2197  0.2269 -0.1757
19904W        W62998  21.866  34.256   5.266 -0.2145  0.0832  0.0197
19905W        W62999  23.026   2.783   4.429  0.1524  0.0141  0.1713
19906W        W63000  23.965   2.754   6.307 -0.1458 -0.1048  0.0279
19907W        W63001  25.857   2.037   6.365 -0.0967  0.0453  0.0067
19908W        W63002  22.957  34.165   5.727  0.1093  0.1337 -0.0754
19909W        W63003  26.299   0.878   5.050 -0.0056  0.2481 -0.4368
19910W        W63004  23.373   3.739   6.404 -0.1268  0.0649  0.2596
19911W        W63005  24.413   2.843   7.197  0.3098  0.0065  0.1907
19912W        W63006  22.897   2.858   9.288  0.2039 -0.1490 -0.0289
19913W        W63007  22.947   0.895   7.537  0.1276  0.1727  0.2016
19914W        W63008  24.020   0.885   8.061 -0.1082  0.1172  0.1345
19915W        W63009  25.219   0.215   7.009  0.0874  0.1095  0.0092
19916W        W63010  22.245   0.869   8.110  0.3208  0.1157 -0.3112
19917W        W63011  24.794   3.807   8.277  0.3005  0.2068  0.3885
19918W        W63012  23.739   4.744   9.744 -0.1741 -0.1983 -0.0092
19919W        W63013  25.090   5.157  10.147  0.1229 -0.1173 -0.0459
19920W        W63014  24.619   2.410   7.816 -0.0263 -0.0356  0.0311
19921W        W63015  24.470   0.446   9.379  0.1859 -0.0745  0.3141
19922W        W63016  24.062   1.177   9.577  0.1455  0.0266  0.2608
19923W        W63017  23.162  34.069   8.618 -0.4342 -0.1026 -0.4397
19924W        W63018  24.285   0.495   8.880 -0.1857  0.1071  0.1408
19925W        W63019  21.051   2.454   7.920 -0.1037 -0.2983 -0.0102
19926W        W63020  24.895   0.773   9.753 -0.0324  0.2532  0.2087
19927W        W63021  23.074   1.456   8.456 -0.1735  0.0654  0.1533
19928W        W63022  22.512   4.665   9.571  0.1986 -0.2314  0.1354
19929W        W63023  22.312   0.464   8.911  0.0479  0.0952  0.3256
19930W        W63024  23.759   2.973   8.070  0.1871  0.0027  0.0403
19931W        W63025  23.292   0.193   6.234  0.0179  0.3768 -0.1979
19932W        W63026  21.564   0.707   7.530 -0.0460  0.1197 -0.0205
19933W        W63027  21.688   3.080   9.878  0.0062 -0.0618  0.0826
19934W        W63028  24.400   1.072   9.026  0.5747 -0.4405 -0.0920
19935W        W63029  23.816   2.219   8.846  0.0335 -0.1060 -0.3905
19936W        W63030  22.750   3.844   9.189 -0.1090  0.0827  0.0480
19937W        W63031  24.195   3.548   9.228 -0.2444 -0.2538 -0.0514
19938W        W63032  22.056   3.960   6.859 -0.1675 -0.3155 -0.3748
19939W        W63033  22.198   5.091   9.615 -0.0632  0.1017  0.4105
19940W        W63034  22.598   2.788   7.184  0.0162  0.1469 -0.1601
19941W        W63035  25.635   3.593   8.028 -0.0306 -0.1216  0.2269
19942W        W63036  23.281   3.364   7.480 -0.2833  0.2482  0.1738
19943W        W63037  24.852   1.769   9.835  0.0250 -0.0839  0.1322
19944W        W63038  22.951   2.588   8.828  0.0227  0.0449 -0.3080
19945W        W63039  24.293   3.598   8.312 -0.2197 -0.0240 -0.0038
19946W        W63040  22.424   3.829   9.618 -0.1443  0.1422 -0.3171
19947W        W63041  20.870   2.905   8.196  0.1112  0.1437  0.1294
19948W        W63042  22.763   4.081   6.940  0.1343 -0.0321 -0.1362
19949W        W63043  25.328   1.144   7.786  0.0674 -0.0789  0.1820
19950W        W63044  23.638   1.902   7.132 -0.0754 -0.0521  0.1601
19951W        W63045  24.487   0.172   8.551  0.2248 -0.1924  0.1090
19952W        W63046  25.101   2.300   9.218  0.0181  0.1740  0.0820
19953W        W63047  24.345   3.067   9.636  0.3145  0.0193 -0.2709
19954W        W63048  21.987   0.156   9.733  0.1517  0.1659 -0.0106
19955W        W63049  21.759   2.060   8.900 -0.1615  0.3383 -0.1150
19956W        W63050  22.132   0.826   9.614 -0.0833 -0.1089  0.0175
19957W        W63051  21.408   3.014   8.936 -0.0133  0.0705 -0.0624
19958W        W63052  21.286   2.526   9.517  0.1318 -0.0565 -0.1289
19959W        W63053  25.052   3.430   7.584  0.2034  0.1703  0.0634
19960W        W63054  25.365   3.271   8.560  0.0965 -0.1046 -0.1369
19961W        W63055  22.504   2.360   6.549 -0.2311 -0.0675  0.2608
19962W        W63056  22.114   3.251   8.150  0.1211  0.2382 -0.0465
19963W        W63057  22.659  34.277   7.475  0.2553  0.0102 -0.2616
19964W        W63058  25.588   0.947   8.864 -0.1379 -0.0121 -0.0272
19965W        W63059  22.730   2.366   9.471 -0.0218 -0.0800  0.0873
19966W        W63060  25.001   3.430   8.864 -0.0590 -0.3111 -0.0314
19967W        W63061  24.959   2.884   8.370  0.0052  0.3185  0.2385
19968W        W63062  25.279   0.746   8.480 -0.0203  0.3326  0.2084
19969W        W63063  26.371   0.274   9.624 -0.0968 -0.5440  0.0004
19970W        W63064  23.100   1.416   7.619 -0.1931  0.0149  0.1759
19971W        W63065  22.825   1.626   7.959 -0.3277  0.4186  0.1104
19972W        W63066  24.870   3.944   9.616 -0.0697  0.1686 -0.1163
19973W        W63067  26.927   2.321   6.051  0.2295  0.0633 -0.2254
19974W        W63068  22.099   2.808   8.832 -0.1939 -0.0031 -0.4077
19975W        W63069  21.801   3.573   8.263 -0.0869  0.0671 -0.2153
19976W        W63070  21.645   3.221   7.952 -0.0646 -0.0925 -0.4066
19977W        W63071  22.747   2.130   7.939 -0.0884 -0.1222 -0.0142
19978W        W63072  21.563   3.171  11.864 -0.1154  0.2885  0.0740
19979W        W63073  22.473   1.773   9.212  0.2370  0.0765  0.1310
19980W        W63074  25.944   1.302   7.715 -0.0947 -0.0217  0.1002
19981W        W63075  25.794   0.514   8.377  0.2501  0.0485  0.1870
19982W        W63076  22.305   2.166   8.245 -0.0113 -0.0598  0.1089
19983W        W63077  25.021   4.281   8.414 -0.0948 -0.0867  0.0823
19984W        W63078  25.316   1.249   8.315  0.3950  0.0301 -0.2027
19985W        W63079  24.679   4.289   7.413 -0.0129 -0.0198 -0.3035
19986W        W63080  21.223   3.302   8.427 -0.1390  0.0535  0.1116
19987W        W63081  21.960   1.665   9.286 -0.1384 -0.1217  0.1246
19988W        W63082  22.210   1.798   8.776 -0.0432 -0.0533  0.0831
19989W        W63083  21.855  34.036   7.024  0.0883 -0.3095  0.3529
19990W        W63084  24.877   0.957   8.178 -0.1822  0.0635 -0.1454
19991W        W63085  22.536   2.568   8.153 -0.0061 -0.2716 -0.1869
19992W        W63086  20.797   3.395   8.090 -0.0458 -0.0017 -0.0645
19993W        W63087  24.723   3.709   9.198  0.0420  0.2541  0.2690
19994W        W63088  25.847   6.344  10.262  0.3281  0.2222  0.1591
19995W        W63089  25.517   3.383   9.006 -0.0712 -0.0881 -0.2710
19996W        W63090  21.877   4.361   9.876  0.2470 -0.1399  0.2229
19997W        W63091  22.518   0.649   6.791 -0.2641  0.3177 -0.2363
19998W        W63092  23.887   3.913   9.416 -0.1990  0.3091 -0.0199
19999W        W63093  23.290   3.159   8.215 -0.0979 -0.2010  0.0144
20000W        W63094  23.979   0.819   7.248 -0.1071 -0.0742 -0.0329
20001W        W63095  24.672   2.680   9.923  0.0046  0.3141 -0.0318
20002W        W63096  23.336   2.290   8.701  0.3401 -0.0326  0.2739
20003W        W63097  23.628   2.724   9.185 -0.0244  0.3262  0.2330
20004W        W63098  24.108   1.946   9.427 -0.0270 -0.0416  0.1693
20005W        W63099  22.898   0.936   7.066 -0.0177  0.0558  0.0409
20006W        W63100  24.283   3.996   9.002 -0.2498  0.1075 -0.3610
20007W        W63101  22.768   1.872   6.558 -0.1912 -0.0031  0.0927
20008W        W63102  21.353   3.118   7.366 -0.0307 -0.2069 -0.3079
20009W        W63103  23.310   2.966   8.892 -0.1839 -0.1240 -0.3443
20010W        W63104  24.450   1.676   8.342 -0.2861  0.2393 -0.1680
20011W        W63105  21.950   1.379   7.959  0.2366  0.0478 -0.1328
20012W        W63106  24.423   0.718   8.433  0.0037 -0.2581  0.1846
20013W        W63107  25.677   0.873   8.012 -0.3001  0.3274 -0.3352
20014W        W63108  26.588   2.846   8.499  0.2629 -0.0389 -0.1389
20015W        W63109  23.654   1.094   7.864  0.0722 -0.2901  0.0768
20016W        W63110  22.927   1.879   9.385  0.3055 -0.1878  0.2230
20017W        W63111  23.683   2.984   8.550  0.1638 -0.1103  0.1553
20018W        W63112  23.928   2.183   9.868  0.0114  0.2683  0.1268
20019W        W63113  23.473   1.109   8.387  0.0516  0.0665  0.1693
20020W        W63114  25.478   3.278   7.197  0.2240  0.2667  0.0315
20021W        W63115  21.832   3.173   9.025  0.2017  0.1246  0.1810
20022W        W63116  24.355   3.790   9.813  0.0920 -0.2292  0.1614
20023W        W63117  22.637   1.054   9.770  0.1793 -0.0723  0.0623
20024W        W63118  22.313   2.888   7.839 -0.1696  0.3142 -0.1675
20025W        W63119  25.919   0.205   9.612  0.0787  0.2205 -0.3907
20026W        W63120  22.430   2.311   7.082 -0.1256 -0.2114  0.1306
20027W        W63121  28.195   1.202   9.678 -0.1396 -0.0583  0.2724
20028W        W63122  24.640   1.881   9.312  0.0352  0.0949  0.2545
20029W        W63123  24.138   1.855   7.889 -0.1820  0.1233  0.5102
20030W        W63124  24.171   1.507   9.193 -0.0139  0.2088  0.0721
20031W        W63125  22.756   0.493   7.231 -0.0488 -0.0971 -0.1085
20032W        W63126  22.859   0.526   9.490 -0.0798 -0.1119 -0.1883
20033W        W63127  22.362   4.164   9.054  0.1928 -0.1397 -0.3558
20034W        W63128  24.113   2.453   9.209 -0.0407  0.2093 -0.0850
20035W        W63129  23.265   0.600   7.829  0.0343 -0.1397 -0.2290
20036W        W63130  23.178   3.762   7.198  0.0219  0.1364 -0.3204
20037W        W63131  23.004   2.737   8.048  0.1121 -0.1391  0.1460
20038W        W63132  24.357   1.654   9.682  0.0598 -0.0892  0.0106
20039W        W63133  23.673   2.256   9.432  0.1474 -0.2527  0.1454
20040W        W63134  22.866   3.348   7.201 -0.1213 -0.2295  0.0427
20041W        W63135  24.204   1.238   8.436 -0.0688  0.1272  0.0861
20042W        W63136  22.265   3.617   9.186 -0.3402 -0.1513  0.0069
20043W        W63137  25.016   0.261   8.594  0.1268 -0.0880  0.0944
20044W        W63138  21.827   3.905   9.073  0.2834 -0.1369 -0.0364
20045W        W63139  23.563   2.127   7.601  0.0746 -0.0479  0.3384
20046W        W63140  22.118   2.800   8.307 -0.1787  0.0592 -0.1008
20047W        W63141  23.972  34.519   8.191 -0.0380  0.0782  0.2690
20048W        W63142  26.042   1.176   8.940  0.0962  0.1693  0.1175
20049W        W63143  22.382  34.564   9.667 -0.0602  0.4317 -0.2063
20050W        W63144  24.969   0.397   9.352 -0.0632 -0.1257  0.0345
20051W        W63145  21.103   4.240   9.309  0.0038 -0.1525  0.3351
20052W        W63146  24.536  34.066   6.652  0.1576  0.0916  0.1044
20053W        W63147  22.286   1.199   7.377 -0.1331 -0.1665 -0.1334
20054W        W63148  25.199  34.363   8.661 -0.2240 -0.3014 -0.2051
20055W        W63149  21.956   0.743   9.175 -0.1632  0.1585 -0.0664
20056W        W63150  21.962   3.915   7.405 -0.1053  0.2650 -0.0248
20057W        W63151  22.393   5.215   8.894 -0.1082  0.1037  0.1071
20058W        W63152  23.225   3.717   8.258 -0.2923  0.2052 -0.0312
20059W        W63153  22.010   4.074   9.463 -0.1146  0.2024  0.0913
20060W        W63154  23.215   2.507   9.617  0.1102 -0.0017  0.2066
20061W        W63155  23.126   3.413   9.197 -0.1642  0.1509 -0.0091
20062W        W63156  21.773   1.535   8.618  0.1561 -0.0812  0.0526
20063W        W63157  23.548   1.862   9.108  0.1462 -0.1484 -0.4070
20064W        W63158  23.780   4.640  10.239  0.0611  0.0492 -0.2981
20065W        W63159  29.712   3.171  12.340  0.0540 -0.1022 -0.1824
20066W        W63160  23.470   0.946   8.903 -0.1986 -0.0334 -0.2302
20067W        W63161  25.137   3.992   7.564  0.2432 -0.1728  0.1083
20068W        W63162  22.597   3.068   8.166 -0.0014  0.1059 -0.2294
20069W        W63163  21.024   0.050   7.706 -0.0962 -0.0387 -0.0241
20070W        W63164  22.954   3.431   7.851 -0.1674  0.1146  0.1059
20071W        W63165  26.769   2.653   9.989  0.3793  0.1162  0.1814
20072W        W63166  21.161   3.860   8.583  0.1311  0.0922 -0.0121
20073W        W63167  22.444   3.283   7.454  0.2846 -0.2840 -0.0601
20074W        W63168  22.384   3.136   8.616  0.5074  0.1989  0.0213
20075W        W63169  24.491   0.786   7.897 -0.1201 -0.0699  0.1824
20076W        W63170  24.208   3.351   7.059 -0.1317 -0.1190 -0.1057
20077W        W63171  22.885   1.007   8.844  0.2235 -0.2984 -0.3873
20078W        W63172  24.463   1.654   7.533 -0.0069  0.0246  0.0985
20079W        W63173  24.784  34.599   9.480  0.0264 -0.0487 -0.3130
20080W        W63174  24.568   2.571   8.500  0.0386  0.0774 -0.0409
20081W        W63175  24.878   0.875   9.234 -0.1207 -0.1665 -0.3237
20082W        W63176  23.079   0.773   8.422  0.0692 -0.0671  0.1450
20083W        W63177  22.508   2.646   8.635 -0.0839 -0.0887  0.2035
20084W        W63178  24.501   3.572   8.753  0.1811 -0.2996  0.0007
20085W        W63179  23.421   2.378   8.111 -0.2122 -0.1108 -0.0482
20086W        W63180  25.896   2.514   8.273 -0.0320 -0.0614 -0.1422
20087W        W63181  23.145   2.306   9.174 -0.0609  0.0107 -0.0919
20088W        W63182  24.745   1.918   7.931 -0.1854  0.0573  0.0688
20089W        W63183  23.790   4.436   7.877 -0.0137  0.0537 -0.0568
20090W        W63184  23.286   2.733   8.455  0.1517 -0.1662  0.0565
20091W        W63185  24.159   2.612   8.165  0.3636 -0.2250 -0.2248
20092W        W63186  24.147  34.442   8.687  0.3212  0.2037 -0.1392
20093W        W63187  21.885   4.716   9.471  0.1078  0.1807  0.3331
20094W        W63188  23.906   1.426   7.171 -0.1018  0.6619  0.0537
20095W        W63189  26.431   1.474   9.124 -0.1677 -0.0594  0.1227
20096W        W63190  25.712   1.565   8.121 -0.2373 -0.3589 -0.3099
20097W        W63191  23.802   2.048   8.205 -0.0291  0.2384  0.3237
20098W        W63192  23.093   0.913   9.309  0.0648  0.1169 -0.3039
20099W        W63193  24.256   0.405   6.956  0.0172  0.0974 -0.0609
20100W        W63194  23.767   3.487   8.308  0.1195  0.1678 -0.0831
20101W        W63195  24.141   5.411   8.336 -0.1828 -0.0678 -0.0183
20102W        W63196  24.887   1.539   8.271  0.0583 -0.1117 -0.2501
20103W        W63197  22.205   1.148   8.967  0.1004 -0.2091  0.1946
20104W        W63198  23.785   1.084   6.842 -0.1880  0.0258 -0.0107
20105W        W63199  23.173   1.928   8.201  0.1674  0.2038 -0.1348
20106W        W63200  24.970   2.870   8.900  0.0779 -0.4082  0.0136
20107W        W63201  23.506   1.160   7.344  0.4124  0.0031 -0.2609
20108W        W63202  22.337   2.196   7.674 -0.1691  0.0972  0.2672
20109W        W63203  25.716  34.274   8.497 -0.0376  0.1229 -0.2344
20110W        W63204  21.364   5.503   9.935  0.0049 -0.2835 -0.1259
20111W        W63205  23.154   4.156   9.131 -0.0553  0.0210 -0.0278
20112W        W63206  25.915   1.296   9.409  0.0937 -0.0280 -0.1936
20113W        W63207  25.943   0.388   8.824 -0.2214  0.1390 -0.1846
20114W        W63208  24.506   2.259   9.672  0.4880 -0.0154  0.2195
20115W        W63209  21.148   3.917   9.962 -0.0840 -0.0930  0.0911
20116W        W63210  25.883   2.251   8.732 -0.2469  0.0094  0.1615
20117W        W63211  22.894   3.046   8.652  0.0283  0.2924  0.1417
20118W        W63212  23.770   2.473   8.403 -0.1440  0.0108 -0.1781
20119W        W63213  22.584   1.223   7.762 -0.1753 -0.2022  0.0135
20120W        W63214  24.005   2.957   7.433 -0.0857  0.3335 -0.0083
20121W        W63215  22.799   1.312   9.246  0.0358  0.0357 -0.0980
20122W        W63216  23.524   3.468   7.912 -0.2394 -0.3145  0.2205
20123W        W63217  25.216   3.925   8.040 -0.0310 -0.0957 -0.0275
20124W        W63218  24.397   2.181   8.175  0.0386 -0.1920 -0.0873
20125W        W63219  21.694   5.057   9.900  0.1182 -0.2149  0.0107
20126W        W63220  23.701   1.627   7.623 -0.1421  0.0944 -0.0929
20127W        W63221  22.704   3.381   8.920 -0.0621 -0.0619  0.1757
20128W        W63222  22.089   4.126   6.261 -0.0289 -0.0765  0.2730
20129W        W63223  24.136   3.953   8.008 -0.0429  0.1019  0.0535
20130W        W63224  22.018   2.486   7.933  0.0574  0.0062  0.3333
20131W        W63225  26.156   0.980   8.144 -0.0768  0.1283 -0.1040
20132W        W63226  24.625   2.308   9.004  0.0292  0.0804  0.1084
20133W        W63227  26.227   1.470   8.100 -0.0964 -0.0646  0.2109
20134W        W63228  22.874   2.325   8.417  0.0250 -0.2967  0.0842
20135W        W63229  23.754  34.620   8.964 -0.0884 -0.3711  0.1204
20136W        W63230  24.593   4.168   7.962 -0.0170 -0.0264 -0.2342
20137W        W63231  21.802   1.106   8.358 -0.0954 -0.0569  0.0543
20138W        W63232  22.780   3.586   8.366 -0.1169  0.0456  0.1079
20139W        W63233  26.393  33.036   9.362 -0.1502  0.0951  0.4169
20140W        W63234  22.910   2.294   6.929  0.0267 -0.0022 -0.3164
20141W        W63235  23.536   1.676   8.520 -0.0964  0.1011  0.1079
20142W        W63236  23.375   4.133   8.636 -0.0441 -0.1502 -0.0379
20143W        W63237  20.843   4.004   8.933 -0.1345 -0.2009  0.0456
20144W        W63238  23.504   3.673   8.970 -0.0545  0.1798 -0.3491
20145W        W63239  21.745  34.196   7.911 -0.1361  0.0348 -0.1241
20146W        W63240  24.198   2.560  10.325  0.4655  0.1503 -0.2015
20147W        W63241  21.398   1.144   8.034  0.1089 -0.0580  0.0872
20148W        W63242  23.357   1.571   7.986  0.1710  0.1510  0.0715
20149W        W63243  24.956   1.879   8.895 -0.3211 -0.0311  0.2646
20150W        W63244  21.686   2.519   8.553 -0.1569 -0.5666 -0.2101
20151W        W63245  23.579   1.320   9.252 -0.0989  0.1523 -0.0427
20152W        W63246  23.117   1.924   7.684 -0.1922  0.1479 -0.1179
20153W        W63247  24.273   2.463   7.484  0.2251 -0.1279  0.2008
20154W        W63248  21.878   0.166   9.219  0.2377 -0.4238 -0.1623
20155W        W63249  23.851   1.491   8.183  0.0244 -0.0129  0.0135
20156W        W63250  22.150   2.332   8.745  0.1057 -0.0044  0.0327
20157W        W63251  21.960   3.772   9.871  0.0906  0.4451 -0.2256
20158W        W63252  22.146   0.421   8.459 -0.0211 -0.2062 -0.1183
20159W        W63253  24.939   2.818   7.845  0.2972 -0.1382 -0.2933
20160W        W63254  24.054   3.285   8.727  0.0633 -0.2753  0.0827
20161W        W63255  23.307   4.412   7.579 -0.3033  0.0080 -0.0353
20162W        W63256  24.731   2.128   8.524  0.0928 -0.2629  0.0630
20163W        W63257  24.600   5.427  10.224 -0.0455 -0.0374  0.0098
20164W        W63258  22.672   2.200   8.906  0.0664  0.2849 -0.2090
20165W        W63259  23.568   5.031   9.155 -0.0494  0.2238 -0.2427
20166W        W63260  24.257   3.055   8.320  0.3150 -0.1226  0.0102
20167W        W63261  23.873  34.022   8.108  0.2903 -0.1644  0.0561
20168W        W63262  23.406   1.799   9.576 -0.0612 -0.0433  0.0548
20169W        W63263  22.550   3.317   6.718 -0.0907 -0.2591 -0.0511
20170W        W63264  26.184   0.793   8.616 -0.1099 -0.1373  0.0792
20171W        W63265  24.229   3.681   7.573 -0.2435 -0.1770  0.1394
20172W        W63266  21.758   4.943   8.123 -0.0963 -0.0076 -0.0878
20173W        W63267  22.223   1.896   7.234  0.0111 -0.0711  0.1914
20174W        W63268  23.783   4.082   8.283 -0.0042 -0.0055  0.0473
20175W        W63269  23.042   3.794   8.788  0.1745  0.0793  0.0876
20176W        W63270  25.460   2.338   8.446  0.0370 -0.1038 -0.0491
20177W        W63271  22.671   1.469   8.771  0.0560 -0.1355 -0.0987
20178W        W63272  26.182   3.126   7.057 -0.0294  0.0680  0.0870
20179W        W63273  24.343  34.650   9.124 -0.0097 -0.0972 -0.2179
20180W        W63274  24.766   0.673   8.771  0.2101 -0.1864  0.0581
20181W        W63275  23.168  34.635   7.916  0.2403  0.2022  0.0656
20182W        W63276  24.155   2.992   9.153  0.0082  0.0531 -0.4481
20183W        W63277  22.774   0.955   6.554 -0.1571  0.1991  0.2638
20184W        W63278  23.144   2.431   7.682  0.0863  0.3486  0.1022
20185W        W63279  22.488   3.500   7.908 -0.0383  0.3198 -0.1081
20186W        W63280  23.847   1.664   9.836 -0.1360 -0.0212 -0.0998
20187W        W63281  22.672   1.239   8.279 -0.1310 -0.3372  0.1664
20188W        W63282  25.138   3.409   8.083 -0.1818  0.1494 -0.3077
20189W        W63283  22.205   1.356   8.467  0.2895  0.2594 -0.1835
20190W        W63284  21.795  33.527   8.315  0.3336 -0.2412 -0.1618
20191W        W63285  25.335   3.828   8.575 -0.0464 -0.1061 -0.3507
20192W        W63286  26.038   3.872   7.549  0.0251  0.1241 -0.1599
20193W        W63287  22.746   0.734   8.056 -0.0933 -0.3758  0.1434
20194W        W63288  20.801   2.159   7.664 -0.3878 -0.3161 -0.2833
20195W        W63289  20.735   0.204   6.469 -0.1979 -0.0901 -0.1068
20196W        W63290  20.705   3.603   9.215 -0.0106  0.3126 -0.0025
20197W        W63291  24.312   2.820   7.778 -0.2935 -0.1564 -0.0384
20198W        W63292  24.841   3.975   8.728  0.3070 -0.1967  0.2238
20199W        W63293  20.815  33.995  11.860  0.3105 -0.0811 -0.0442
20200W        W63294  25.183   1.954   8.397  0.0357 -0.0133 -0.1394
20201W        W63295  25.863   1.789   6.926 -0.0531 -0.5913  0.0321
20202W        W63296  24.431   1.728   8.813  0.1184  0.1267 -0.0052
20203W        W63297  24.057   1.882   7.387 -0.0930  0.1560  0.0162
20204W        W63298  24.535   2.688   9.304  0.4093  0.0508  0.0099
20205W        W63299  22.702   3.386   9.414  0.2113  0.3307 -0.1446
20206W        W63300  24.002   0.838   8.745  0.1490 -0.1456 -0.1157
20207W        W63301  23.207   3.241   6.884  0.2095  0.1201  0.1217
20208W        W63302  21.364   2.322   8.977  0.0707  0.0386 -0.1114
20209W        W63303  23.926   1.729   8.831 -0.3434  0.1366  0.4483
20210W        W63304  25.349   7.247   9.948  0.1701 -0.1373  0.0554
20211W        W63305  22.624   1.857   8.451  0.0645 -0.1681  0.2559
20212W        W63306  26.617   1.207   6.131 -0.0591  0.1516 -0.4060
20213W        W63307  24.658   4.321   9.856 -0.2135 -0.3111 -0.4034
20214W        W63308  24.150   5.610   9.104 -0.2040  0.2405  0.0105
20215W        W63309  23.987   3.370   7.879 -0.2079  0.1385  0.0292
20216W        W63310  21.753   1.209   9.301 -0.1388  0.2538  0.1845
20217W        W63311  22.834   3.027   7.601  0.0317  0.2161 -0.0107
20218W        W63312  23.037   1.887   8.849  0.0758  0.0007  0.0173
20219W        W63313  23.794   1.283   8.672  0.0087  0.2066 -0.2139
20220W        W63314  24.254   2.145   8.651 -0.2319 -0.1468 -0.3366
20221W        W63315  23.691   0.463   8.863 -0.0507  0.1495 -0.0220
20222W        W63316  21.091   3.432   8.925 -0.3416 -0.0401  0.1721
20223W        W63317  25.401   3.616   9.822  0.3297 -0.0012 -0.2341
20224W        W63318  21.757   6.824   4.171 -0.1976  0.3291  0.1523
20225W        W63319  22.422   5.221   1.087  0.1361  0.1124 -0.3874
20226W        W63320  25.220   5.566   0.933 -0.0907  0.0313  0.0556
20227W        W63321  26.085   5.718   1.565  0.2482 -0.0625  0.0280
20228W        W63322  22.622   3.623   1.052  0.0513  0.0627  0.0140
20229W        W63323  24.480   7.965   1.112  0.0432 -0.1719  0.1172
20230W        W63324  23.361   2.999   0.996 -0.2637 -0.1001  0.2882
20231W        W63325  24.377   6.182   1.629  0.2782  0.1434  0.1051
20232W        W63326  24.231   6.830   1.949 -0.1892  0.3367 -0.0890
20233W        W63327  24.443   5.984   0.342 -0.3166 -0.0873 -0.0844
20234W        W63328  22.225   3.424   2.213 -0.2017  0.2326 -0.1525
20235W        W63329  22.584   4.370   1.408 -0.0295  0.1653  0.1436
20236W        W63330  22.910   4.751   0.295 -0.1750  0.1120  0.0662
20237W        W63331  21.222   3.764   1.884  0.2127 -0.0372 -0.1829
20238W        W63332  24.249   5.464   2.800  0.0700  0.0761 -0.2747
20239W        W63333  22.990   5.200   2.056  0.2714  0.0515 -0.1944
20240W        W63334  23.547   5.171   3.350  0.1679 -0.0732  0.1242
20241W        W63335  23.353   5.405   1.296 -0.0472 -0.1633 -0.1219
20242W        W63336  23.638   7.389   1.450 -0.2623 -0.0707  0.1157
20243W        W63337  22.925   4.612   3.037  0.1879 -0.0556  0.0640
20244W        W63338  23.671   4.694   3.273 -0.5345  0.0999 -0.0501
20245W        W63339  23.641   7.109   0.450  0.1720  0.1135 -0.0683
20246W        W63340  22.453   6.908   0.569  0.2344 -0.1409 -0.0849
20247W        W63341  22.233   4.841   1.495  0.1404  0.1083 -0.3899
20248W        W63342  21.571   5.799   2.545  0.2215  0.0039 -0.0021
20249W        W63343  24.479   4.554   1.070 -0.2051 -0.4783  0.2461
20250W        W63344  23.758   6.700   1.872  0.0952 -0.0828  0.2779
20251W        W63345  23.791   5.708   2.004  0.0567 -0.2309 -0.0069
20252W        W63346  23.763   7.237   1.963 -0.2098  0.0332  0.0136
20253W        W63347  23.666   4.609   2.439  0.2795  0.1231  0.1341
20254W        W63348  21.117   4.887   1.171  0.2017 -0.2264  0.2665
20255W        W63349  22.421   7.588   0.440  0.2251  0.2645  0.4837
20256W        W63350  24.235   7.598   0.227  0.2036 -0.3928 -0.0372
20257W        W63351  25.870   6.548   0.178 -0.0196 -0.0996  0.1778
20258W        W63352  24.256   6.836   2.542  0.0893  0.0610 -0.0798
20259W        W63353  23.526   8.093   3.618 -0.1747 -0.0067 -0.0861
20260W        W63354  21.320   7.076   1.056  0.0944 -0.1468  0.1428
20261W        W63355  23.037   7.244   3.433  0.1284 -0.2469 -0.0862
20262W        W63356  22.868   6.195   2.950  0.1415  0.4434  0.0788
20263W        W63357  22.863   4.623   2.555  0.1769 -0.1541  0.2770
20264W        W63358  23.405   5.961   0.590 -0.0268 -0.2159  0.0165
20265W        W63359  24.226   6.894   1.071 -0.0102  0.1429 -0.1036
20266W        W63360  22.423   5.810   2.156 -0.0137 -0.0878 -0.0194
20267W        W63361  21.976   7.049   3.228 -0.2642  0.0467 -0.0735
20268W        W63362  20.475   6.858   3.170 -0.0422 -0.4708 -0.1480
20269W        W63363  26.030   5.817   5.279 -0.3077  0.0691  0.1005
20270W        W63364  23.323   7.324  31.692  0.1777  0.1924 -0.0752
20271W        W63365  24.735   5.237   0.114 -0.1912 -0.0288 -0.0990
20272W        W63366  23.339   5.381   0.767  0.3117 -0.0290 -0.1213
20273W        W63367  26.309   4.790   0.298 -0.0555 -0.1866 -0.1925
20274W        W63368  23.437   4.157   0.474 -0.1454 -0.0142 -0.1054
20275W        W63369  21.812   5.619   1.798  0.0193  0.0233  0.0855
20276W        W63370  21.155   3.276   2.031  0.1585 -0.4371  0.2519
20277W        W63371  23.521   5.958   2.392  0.2024 -0.1317  0.0585
20278W        W63372  23.719   5.207   1.011  0.0626 -0.0553  0.1964
20279W        W63373  22.162   4.112   2.124 -0.1945 -0.1773  0.1049
20280W        W63374  21.833   6.163   2.968  0.0197 -0.2173 -0.1881
20281W        W63375  22.233   6.496   0.806  0.2618 -0.0480 -0.2791
20282W        W63376  25.824   5.138   1.242  0.2181 -0.2070  0.0452
20283W        W63377  25.697   7.738   1.209  0.1231 -0.1269  0.1988
20284W        W63378  25.352   5.088  31.976 -0.1007  0.0359 -0.1258
20285W        W63379  22.747   6.095   0.815  0.1666  0.1373  0.0225
20286W        W63380  20.766   5.288   2.724  0.3360 -0.2110 -0.2335
20287W        W63381  22.110   5.432   2.507  0.1965  0.3168 -0.1805
20288W        W63382  22.781   3.265  31.863 -0.1354 -0.2463  0.0274
20289W        W63383  24.702   4.378   3.214  0.1818 -0.1613 -0.0733
20290W        W63384  21.241   6.892   2.884  0.0757  0.0201 -0.1100
20291W        W63385  24.986   4.080   0.770 -0.1364 -0.2949  0.0060
20292W        W63386  23.046   6.325   1.788  0.1542 -0.0112 -0.3269
20293W        W63387  24.890   5.162   0.614  0.2659 -0.3381  0.0035
20294W        W63388  24.713   5.409   1.007 -0.0239  0.0751  0.0751
20295W        W63389  24.575   4.411   0.578 -0.1186 -0.2975 -0.1377
20296W        W63390  25.037   3.620   4.136 -0.0893 -0.2366 -0.1607
20297W        W63391  25.379   5.239  31.362 -0.1240  0.0468  0.2018
20298W        W63392  23.656   3.370   0.896 -0.3266 -0.0192 -0.2009
20299W        W63393  24.003   6.528   1.411 -0.1542  0.1278 -0.1083
20300W        W63394  25.743   6.244  31.666  0.0249  0.1142  0.2642
20301W        W63395  22.970   7.047   1.679  0.1780  0.1257  0.0428
20302W        W63396  23.518   6.070   3.422 -0.1025  0.0608  0.1502
20303W        W63397  22.172   6.538   4.009  0.3132 -0.0125  0.1714
20304W        W63398  21.954   5.927  30.619 -0.1855 -0.2955  0.2034
20305W        W63399  20.406   4.275   1.383  0.0809 -0.1336  0.2367
20306W        W63400  22.751   6.597   0.863  0.0225 -0.2681 -0.3487
20307W        W63401  22.638   2.678   2.795 -0.0547 -0.0856  0.1178
20308W        W63402  24.020   6.417   2.211  0.0851  0.1134 -0.4915
20309W        W63403  24.368   4.502  31.595  0.0508  0.0308 -0.3606
20310W        W63404  23.410   4.882   2.900 -0.0606 -0.4513 -0.1686
20311W        W63405  25.046   4.290   1.704  0.1359 -0.0550 -0.1521
20312W        W63406  23.058   6.763   1.242  0.2104 -0.0367  0.0903
20313W        W63407  26.237   7.881  31.422  0.4975  0.1193 -0.2364
20314W        W63408  24.708   4.315  31.933  0.1273 -0.0918 -0.0599
20315W        W63409  26.084   4.532  31.472  0.3034 -0.1412  0.0648
20316W        W63410  22.465   5.451   3.331  0.4043  0.2736 -0.2329
20317W        W63411  21.724   4.789   1.207  0.0767  0.3810  0.1779
20318W        W63412  22.812   5.449   3.781 -0.1260  0.0453 -0.0176
20319W        W63413  21.754   3.382   1.563  0.2019 -0.0420  0.0994
20320W        W63414  24.432   6.252   3.849 -0.1872 -0.0898 -0.0863
20321W        W63415  22.075   5.325   0.627  0.1987  0.2643  0.0952
20322W        W63416  24.268   4.248   0.133  0.1711  0.0676  0.1447
20323W        W63417  24.514   6.539   0.691 -0.2157 -0.0723 -0.2999
20324W        W63418  22.071   5.291  31.116 -0.1560  0.0647  0.1285
20325W        W63419  24.659   4.214   2.291  0.1680  0.1711  0.1411
20326W        W63420  23.716   6.510   0.004 -0.0135  0.0747 -0.4940
20327W        W63421  24.792   4.881   3.007 -0.0560  0.0841  0.0138
20328W        W63422  24.844   6.072   0.894  0.0747 -0.0434 -0.0332
20329W        W63423  22.924   5.273   3.319  0.2212 -0.0417  0.1087
20330W        W63424  22.709   6.068  31.021 -0.3072 -0.0752 -0.0330
20331W        W63425  23.142   7.430   1.288  0.1618  0.1065 -0.0464
20332W        W63426  22.264   5.743   2.980  0.0795  0.0674  0.2433
20333W        W63427  22.598   5.956  31.566  0.1671 -0.2132  0.0044
20334W        W63428  25.436   5.886  31.927  0.2168 -0.2402  0.1997
20335W        W63429  25.188   4.640  31.796  0.1174  0.1058 -0.1725
20336W        W63430  21.444   4.813   2.121  0.1366  0.3250 -0.1215
20337W        W63431  24.413   5.255   3.264 -0.0614 -0.0029  0.1198
20338W        W63432  25.660   6.061   2.768  0.3610  0.0477  0.0553
20339W        W63433  24.154   5.058   1.291 -0.1892  0.2736  0.1617
20340W        W63434  22.678   4.843   1.669  0.2416  0.0967  0.1723
20341W        W63435  24.783   5.889   1.718  0.0524 -0.0517 -0.1879
20342W        W63436  24.022   7.777   1.238  0.2002 -0.0173 -0.0132
20343W        W63437  21.485   7.266   0.544 -0.0828 -0.1057  0.0144
20344W        W63438  22.901   6.711   2.060 -0.2488 -0.1979 -0.0854
20345W        W63439  24.551   3.653   1.133  0.2049  0.0529  0.0275
20346W        W63440  21.401   5.611   3.402  0.3142  0.0431 -0.0833
20347W        W63441  25.111   5.650   2.543 -0.0188 -0.3930  0.3516
20348W        W63442  22.806   5.606   0.732 -0.2077  0.0696 -0.1210
20349W        W63443  21.783   7.321   4.504 -0.1265  0.1816 -0.3627
20350W        W63444  23.688   3.118   1.347  0.2282  0.2395  0.0703
20351W        W63445  24.311   4.873   0.332  0.2595 -0.1223 -0.1008
20352W        W63446  22.929   5.787   2.017 -0.2672  0.1978  0.1139
20353W        W63447  25.588   4.504   0.224  0.0627  0.1240 -0.1184
20354W        W63448  23.301   5.584   0.270 -0.1863 -0.1785  0.2725
20355W        W63449  23.573   4.695   0.686  0.1612 -0.0672 -0.0483
20356W        W63450  21.216   6.170   3.998 -0.1170  0.1540 -0.0230
20357W        W63451  23.466   6.903   1.566  0.0930 -0.1004 -0.0047
20358W        W63452  22.108   4.770   0.819  0.0688  0.0597  0.1040
20359W        W63453  22.400   5.695   0.346 -0.1686 -0.0466 -0.0919
20360W        W63454  24.920   7.316   1.424  0.0219 -0.3120  0.1009
20361W        W63455  21.196   5.411   2.965 -0.0551 -0.1163 -0.0190
20362W        W63456  24.614   7.076   3.535 -0.0645 -0.0415  0.4109
20363W        W63457  24.030   6.315   0.927 -0.0414  0.1007 -0.0280
20364W        W63458  22.582   3.817   1.496 -0.1045  0.3585  0.1078
20365W        W63459  25.439   5.105   0.883  0.2818  0.0555  0.0636
20366W        W63460  23.836   4.576   0.195 -0.1248  0.1075  0.1865
20367W        W63461  21.812   7.475   0.891 -0.2818 -0.0627  0.3685
20368W        W63462  24.675   5.339   2.454  0.1444 -0.0423 -0.1000
20369W        W63463  24.335   3.373   1.861 -0.2448 -0.1943 -0.0896
20370W        W63464  24.088   4.089   1.391  0.1259 -0.0321 -0.1909
20371W        W63465  24.722   4.713   2.488  0.0410  0.2483 -0.2105
20372W        W63466  25.472   6.381   1.406 -0.1811 -0.1927 -0.2073
20373W        W63467  23.973   4.713   2.007 -0.0404  0.1844  0.1311
20374W        W63468  23.674   5.704   0.985  0.2032  0.1658  0.1261
20375W        W63469  24.070   4.241   2.061  0.1625  0.0238  0.0666
20376W        W63470  22.525   5.400   1.948 -0.1120  0.0518  0.1175
20377W        W63471  21.812   6.698   2.914 -0.1911 -0.3468 -0.0838
20378W        W63472  22.136   6.400   1.783  0.0615 -0.2989  0.0347
20379W        W63473  24.831   6.324   0.345  0.0956 -0.0322  0.2000
20380W        W63474  24.313   4.978   2.707 -0.3012  0.1846 -0.2729
20381W        W63475  23.382   4.757  31.519 -0.0081 -0.2119 -0.1256
20382W        W63476  23.863   6.179   1.807 -0.0092  0.0588 -0.3130
20383W        W63477  23.592   6.906   1.084 -0.0491  0.3091  0.2015
20384W        W63478  24.246   3.688   2.910  0.0673  0.2985  0.0299
20385W        W63479  24.496   5.823   2.569  0.2075 -0.0053  0.0230
20386W        W63480  22.860   7.466  30.799 -0.1087  0.1914 -0.1181
20387W        W63481  24.264   5.847   3.099  0.0313 -0.0691  0.2742
20388W        W63482  23.330   6.920   2.046 -0.0834 -0.2378  0.0069
20389W        W63483  24.588   4.144   1.493 -0.0286 -0.2339 -0.0334
20390W        W63484  21.745   6.084   1.938  0.0508 -0.0241  0.0123
20391W        W63485  22.221   4.963  31.728 -0.1443 -0.3586 -0.2152
20392W        W63486  21.423   5.963   0.821  0.1340  0.1407 -0.2954
20393W        W63487  24.990   3.442   0.916  0.2675 -0.0790  0.0735
20394W        W63488  24.314   7.258  31.858 -0.1520  0.0996  0.0434
20395W        W63489  22.189   4.922   2.575 -0.0594  0.0259  0.0646
20396W        W63490  23.364   4.631   0.027  0.2415  0.0465 -0.0956
20397W        W63491  22.086   8.054   3.063  0.1717  0.1975 -0.1588
20398W        W63492  22.814   4.094   1.067 -0.1294 -0.0738  0.0009
20399W        W63493  22.927   4.338   0.538  0.1495 -0.0157 -0.1788
20400W        W63494  24.914   6.345   1.522 -0.2085  0.2681  0.1747
20401W        W63495  22.301   6.207   3.670 -0.0278  0.1009 -0.2503
20402W        W63496  22.813   6.333  31.860  0.1254  0.0862  0.0696
20403W        W63497  23.845   5.049   2.425 -0.1691 -0.0033 -0.0115
20404W        W63498  23.501   6.411   1.522 -0.1454 -0.1428  0.0018
20405W        W63499  20.553   7.084   1.307  0.0039 -0.2228 -0.0052
20406W        W63500  23.560   6.521   3.147  0.1253  0.0413  0.0484
20407W        W63501  22.964   6.222   1.232 -0.0987 -0.3845 -0.4286
20408W        W63502  22.961   7.242   0.427  0.1713  0.0507  0.0154
20409W        W63503  22.648   5.969   3.401 -0.0385  0.2935  0.0286
20410W        W63504  23.699   5.023   1.500 -0.2303  0.2715 -0.0891
20411W        W63505  23.153   5.819   1.014 -0.3555 -0.1087  0.0228
20412W        W63506  21.716   3.725   0.701  0.0982 -0.3525 -0.2433
20413W        W63507  23.216   4.985   1.575  0.3169  0.1277  0.0589
20414W        W63508  24.080   7.161   1.497  0.2087 -0.2831 -0.1463
20415W        W63509  24.100   5.164   1.805  0.0164  0.0738 -0.0036
20416W        W63510  22.693   6.677   4.022  0.2182  0.0096  0.0764
20417W        W63511  22.467   3.784   1.978  0.0296  0.3894 -0.2720
20418W        W63512  24.801   7.433  31.668 -0.2186 -0.1541 -0.0865
20419W        W63513  23.042   6.174   2.311  0.0741  0.3570 -0.2332
20420W        W63514  21.525   5.483   0.902 -0.2849 -0.0206  0.2195
20421W        W63515  21.670   5.660   1.349  0.3492 -0.2230 -0.1842
20422W        W63516  22.108   4.806   1.986 -0.0593  0.0181 -0.4293
20423W        W63517  23.371   4.851   1.130  0.4531 -0.0057 -0.4680
20424W        W63518  20.919   4.757   0.266  0.1724 -0.1215  0.1711
20425W        W63519  22.482   6.267   1.226 -0.2604 -0.1438  0.0082
20426W        W63520  21.936   6.554   3.423 -0.2797 -0.0928  0.0317
20427W        W63521  24.923   5.031  31.665  0.2044  0.0369 -0.1730
20428W        W63522  25.803   5.705  31.471  0.1337 -0.2081  0.2313
20429W        W63523  23.052   4.480   1.512 -0.3330 -0.1664 -0.0438
20430W        W63524  24.727   3.919   3.129  0.3777  0.1737 -0.0093
20431W        W63525  24.835   5.756   0.070 -0.2435 -0.1524 -0.1439
20432W        W63526  23.674   4.082   2.323 -0.3183 -0.2673  0.2346
20433W        W63527  21.869   4.150   2.668 -0.1621 -0.0614 -0.2370
20434W        W63528  24.107   6.678   0.436 -0.0448 -0.2337  0.2268
20435W        W63529  21.685   2.938   3.158  0.0172 -0.4976  0.0840
20436W        W63530  23.438   7.077   4.358 -0.0460 -0.1863 -0.0071
20437W        W63531  21.451   6.499   3.218  0.3887  0.1572 -0.1003
20438W        W63532  23.876   4.685   1.065 -0.0273  0.1223  0.0729
20439W        W63533  22.706   4.129  31.700  0.0283  0.1581  0.0069
20440W        W63534  23.067   4.713   2.000 -0.2195 -0.2966  0.0011
20441W        W63535  24.791   6.638   3.806 -0.0131  0.1157  0.1904
20442W        W63536  22.836   5.373   1.532  0.1431 -0.0245 -0.1302
20443W        W63537  25.369   4.686   1.198 -0.1069  0.0161  0.0637
20444W        W63538  21.189   5.805   1.272  0.0025  0.3233  0.1830
20445W        W63539  24.570   4.973   1.635 -0.0165  0.0087 -0.1070
20446W        W63540  23.741   5.491   0.467 -0.0731 -0.2898 -0.0804
20447W        W63541  22.488   4.480   1.972 -0.0597 -0.3121 -0.4012
20448W        W63542  22.930   4.427   3.740  0.1827 -0.0813  0.0673
20449W        W63543  24.732   6.942   1.135 -0.0191  0.2316  0.0425
20450W        W63544  24.240   4.592   1.493  0.2901 -0.0401 -0.0876
20451W        W63545  22.874   4.165   1.847  0.1085 -0.0747 -0.0260
20452W        W63546  23.895   5.113   2.936 -0.2626  0.0281 -0.2422
20453W        W63547  22.049   5.952   2.534 -0.1686 -0.1673 -0.0102
20454W        W63548  22.451   4.281   2.977  0.0953 -0.0467 -0.3128
20455W        W63549  24.673   6.205   2.974  0.1184  0.3683 -0.0073
20456W        W63550  25.356   4.369  31.020  0.0814  0.2912  0.2929
20457W        W63551  23.965   3.612   2.103  0.0111  0.0556 -0.1610
20458W        W63552  26.415   7.244   2.115 -0.0051  0.0258 -0.2954
20459W        W63553  25.607   4.339  31.444  0.1220  0.1634  0.1397
20460W        W63554  21.774   3.578   2.817 -0.1351 -0.2600 -0.2490
20461W        W63555  24.296   6.312   3.298 -0.2227  0.1766 -0.0619
20462W        W63556  23.100   4.813   0.745  0.1278 -0.1219 -0.0168
20463W        W63557  24.280   4.373   3.576 -0.1700 -0.2037  0.0518
20464W        W63558  23.525   7.852  31.798 -0.1367  0.2656  0.1437
20465W        W63559  24.476   6.500   1.241  0.0302 -0.3773  0.1066
20466W        W63560  25.370   4.414   0.792  0.0631 -0.2728  0.0663
20467W        W63561  23.367   3.862   0.871 -0.1291 -0.0694 -0.3040
20468W        W63562  22.624   4.954   2.306 -0.1898  0.0094  0.3495
20469W        W63563  22.268   6.334  30.920  0.1631 -0.1345  0.1302
20470W        W63564  23.586   6.269   1.034 -0.1563 -0.0188  0.1423
20471W        W63565  23.479   6.429   2.165 -0.0369  0.0548 -0.2845
20472W        W63566  24.790   6.341   4.195  0.0359  0.1016  0.2101
20473W        W63567  23.078   4.371  31.190 -0.1017 -0.1315  0.2045
20474W        W63568  23.759   3.889   1.711 -0.2633  0.1552  0.0486
20475W        W63569  22.895   7.160   0.929  0.0832 -0.3113 -0.1909
20476W        W63570  23.241   3.952   1.373  0.0573  0.2840  0.1679
20477W        W63571  21.791   6.758   2.009  0.0292 -0.2426  0.0747
20478W        W63572  21.426   4.906   2.945 -0.0707 -0.1681 -0.0293
20479W        W63573  21.784   6.339   2.382 -0.1078 -0.2865  0.0343
20480W        W63574  24.304   3.886   1.770  0.1680 -0.1698 -0.1094
20481W        W63575  23.623   4.263   1.345  0.0361  0.1545 -0.0840
20482W        W63576  23.593   4.574   1.719 -0.0297 -0.1815  0.1660
20483W        W63577  25.174   5.974   3.071  0.0510 -0.0548  0.3040
20484W        W63578  23.867   6.171   3.031  0.0759 -0.0765  0.1542
20485W        W63579  22.771   4.717   1.096 -0.0525  0.1615 -0.0338
20486W        W63580  24.393   6.309   2.561  0.0350 -0.0098  0.3090
20487W        W63581  25.254   6.100   1.841 -0.1105 -0.0421  0.2920
20488W        W63582  20.757   4.997   0.752 -0.1110  0.0776  0.1085
20489W        W63583  21.162   5.065   2.413  0.2899  0.1811 -0.0316
20490W        W63584  23.803   6.211   4.574 -0.2226  0.0517  0.4516
20491W        W63585  23.497   5.034   2.040  0.3077  0.0917  0.0153
20492W        W63586  22.899   5.924   0.344 -0.0110  0.4453  0.1791
20493W        W63587  24.316   7.134  30.605  0.1863  0.3042 -0.0656
20494W        W63588  21.386   7.191   3.374 -0.1083 -0.0367  0.0786
20495W        W63589  21.359   4.250   1.702  0.0575  0.0532 -0.1950
20496W        W63590  23.368   7.477   0.235  0.0444  0.0174 -0.5177
20497W        W63591  24.918   5.429  31.226 -0.1984  0.1338 -0.2837
20498W        W63592  24.010   5.019   0.699  0.0372 -0.0666 -0.0299
20499W        W63593  22.590   6.052   2.569  0.1683 -0.1789  0.2015
20500W        W63594  23.625   6.579   0.595  0.0020 -0.2471 -0.0228
20501W        W63595  22.583   6.038   1.661 -0.0034 -0.2396 -0.0940
20502W        W63596  20.855   6.980   0.112  0.0825  0.0522 -0.2528
20503W        W63597  24.290   5.912   2.093 -0.2764  0.2522  0.0266
20504W        W63598  22.881   7.730   0.054 -0.0547 -0.0695 -0.0859
20505W        W63599  25.347   6.434   4.458  0.0678  0.0656 -0.0325
20506W        W63600  25.204   4.822   0.415  0.2662  0.0261  0.1140
20507W        W63601  24.544   5.804   1.285 -0.1071  0.0993 -0.0881
20508W        W63602  25.115   4.312  31.470 -0.1133 -0.1577  0.2945
20509W        W63603  23.064   5.781   2.565  0.1437  0.3781  0.1097
20510W        W63604  21.672   3.844   1.247  0.1844 -0.1072 -0.1751
20511W        W63605  23.436   4.574  30.800  0.1650 -0.0647 -0.0095
20512W        W63606  21.311   4.834   1.625  0.1079  0.0598  0.1726
20513W        W63607  25.454   5.000   3.036  0.1026 -0.2382 -0.0003
20514W        W63608  22.857   7.024   2.834  0.2605 -0.2082 -0.0875
20515W        W63609  24.538   7.806  31.916  0.0594  0.0497  0.0458
20516W        W63610  21.676   5.242   0.348 -0.1235  0.0427  0.2451
20517W        W63611  23.017   5.820   1.557  0.2493 -0.2458  0.0154
20518W        W63612  24.449   3.024   2.625  0.0078  0.1379  0.0059
20519W        W63613  24.906   4.963   1.235 -0.0523 -0.0328  0.1304
20520W        W63614  24.092   4.508   0.654 -0.0094 -0.1133 -0.0502
20521W        W63615  23.091   8.067   1.988 -0.0729 -0.0790  0.2324
20522W        W63616  22.794   6.524   2.627  0.2716 -0.0551 -0.2332
20523W        W63617  23.739   7.474   2.507  0.2314 -0.1494 -0.0774
20524W        W63618  22.099   4.456  31.376 -0.0959 -0.1925 -0.1586
20525W        W63619  26.419   5.126   1.085  0.0744 -0.2038 -0.0383
20526W        W63620  21.937   5.849   3.379 -0.0939 -0.0953  0.1164
20527W        W63621  24.684   2.687   1.549  0.1832 -0.0199  0.2707
20528W        W63622  21.582   4.155   0.403 -0.1739  0.3833 -0.0013
20529W        W63623  26.086   3.925   0.255 -0.1479 -0.0553 -0.1374
20530W        W63624  22.922   5.114   2.781 -0.1454  0.2302  0.0411
20531W        W63625  21.755   4.391   2.183 -0.2143 -0.2880 -0.1310
20532W        W63626  24.364   4.922  31.801 -0.2181  0.0188  0.1889
20533W        W63627  24.484   5.305   4.456 -0.0392  0.0196 -0.1739
20534W        W63628  22.773   5.553   0.072 -0.1728 -0.1606  0.1096
20535W        W63629  24.393   8.496   3.993  0.0761 -0.0271 -0.1832
20536W        W63630  22.067   3.553   0.374 -0.1141  0.0192 -0.0099
20537W        W63631  23.258   4.354   0.968  0.2189 -0.1583 -0.2287
20538W        W63632  22.161   3.508   1.277  0.0018  0.2755 -0.2035
20539W        W63633  22.216   5.492   1.449  0.2265 -0.2331 -0.1066
20540W        W63634  25.059   6.585   2.948  0.0337 -0.0316  0.0303
20541W        W63635  20.719   3.783   1.337 -0.0292 -0.1898  0.1625
20542W        W63636  25.448   6.304  31.187 -0.0139 -0.0669 -0.0331
20543W        W63637  26.139   6.082   2.878 -0.0842  0.3563  0.1051
20544W        W63638  23.369   9.014   0.366  0.0334  0.1905 -0.2683
20545W        W63639  26.704   6.097   2.812  0.0977 -0.1675 -0.3990
20546W        W63640  24.250   7.650   0.772 -0.0236  0.0149 -0.1014
20547W        W63641  22.002   4.557   2.932  0.0117 -0.2033  0.0977
20548W        W63642  23.197   6.706   2.484 -0.2241 -0.0541  0.0613
20549W        W63643  24.723   8.159   1.493 -0.1548 -0.0978  0.0696
20550W        W63644  23.724   2.648   0.231  0.0465 -0.2277 -0.0825
20551W        W63645  22.125   4.447   1.139  0.0283 -0.1514  0.1943
20552W        W63646  23.227   6.862   0.667 -0.3318 -0.0957  0.0463
20553W        W63647  24.089   3.553   1.493 -0.0466  0.1197  0.0997
20554W        W63648  24.693   3.899   0.298 -0.0616  0.1209 -0.0962
20555W        W63649  23.887   6.163   0.458 -0.0606  0.1548 -0.1192
20556W        W63650  25.430   2.762   3.060  0.1122  0.0141  0.5989
20557W        W63651  22.262   6.526   2.543  0.2943  0.1389  0.0624
20558W        W63652  22.548   6.999   2.434  0.1422 -0.0077  0.0565
20559W        W63653  22.885   6.375  31.378  0.0262  0.0264  0.0367
20560W        W63654  22.844   5.682   2.972  0.2673 -0.1029 -0.1489
20561W        W63655  23.340   5.502   1.770 -0.0400 -0.0701 -0.1721
20562W        W63656  24.327   5.385   0.509 -0.3563 -0.0147 -0.2659
20563W        W63657  25.659   5.757   1.232  0.3274 -0.1142  0.0392
20564W        W63658  22.923   5.217   1.022 -0.0295  0.0304 -0.0082
20565W        W63659  24.574   7.084   0.711 -0.1506  0.1588  0.1274
20566W        W63660  22.300   3.977   1.116  0.3127 -0.1370  0.3294
20567W        W63661  25.638   4.765  31.752  0.3069 -0.3289 -0.1140
20568W        W63662  24.021   3.699   0.853  0.2044 -0.1907 -0.0742
20569W        W63663  22.584   6.291   2.134 -0.0960  0.0579 -0.0366
20570W        W63664  22.119   6.576   0.328 -0.2471 -0.2026  0.0292
20571W        W63665  23.368   5.537  31.767  0.0063  0.2332 -0.1207
20572W        W63666  22.055   5.996   1.450  0.0418  0.1527 -0.2450
20573W        W63667  23.677   3.982   4.251  0.2390  0.0107 -0.1675
20574W        W63668  23.243   4.362   2.365 -0.1016 -0.1951  0.0123
20575W        W63669  19.658   5.240   1.618 -0.2451  0.0441  0.0557
20576W        W63670  22.576   3.180   1.406  0.3065 -0.0364 -0.1726
20577W        W63671  25.597   6.476   0.722 -0.0309 -0.1076 -0.0797
20578W        W63672  23.290   3.065   1.927  0.0397  0.1270 -0.0205
20579W        W63673  21.038   3.056   0.907 -0.4387  0.1929 -0.0179
20580W        W63674  23.109   8.129   0.671  0.0647  0.1166  0.0102
20581W        W63675  25.160   5.896   1.357  0.2528 -0.0531  0.3191
20582W        W63676  24.913   4.684   0.831  0.0940  0.3407  0.1621
20583W        W63677  25.232   6.538   3.961 -0.0083  0.1857 -0.0008
20584W        W63678  23.335   7.457   0.771  0.0735 -0.0111  0.0085
20585W        W63679  23.780   4.906   3.772 -0.2561  0.2026 -0.0031
20586W        W63680  24.417   5.657   3.617  0.3184 -0.0484  0.0252
20587W        W63681  21.982   4.426  31.971 -0.1435  0.0235  0.1553
20588W        W63682  23.403   3.522   2.107  0.3099 -0.0709 -0.0376
20589W        W63683  23.383   5.981   1.933  0.0123  0.0045  0.1217
20590W        W63684  24.296   8.249  31.939 -0.0707  0.3561 -0.1346
20591W        W63685  22.312   4.426   2.494 -0.4054 -0.1142 -0.0848
20592W        W63686  23.667   6.811   3.926 -0.0517 -0.1251  0.1175
20593W        W63687  22.698   3.661   2.910 -0.1566 -0.0254  0.1136
20594W        W63688  24.802   5.979   2.197 -0.1409 -0.0397  0.0057
20595W        W63689  23.345   7.111   3.096  0.1330 -0.0587  0.0705
20596W        W63690  26.361   6.792   1.536  0.2710 -0.0292 -0.5237
20597W        W63691  25.314   3.713   0.552  0.0234 -0.1320  0.1138
20598W        W63692  24.785   5.703   0.593 -0.1363  0.0012 -0.1108
20599W        W63693  20.948   4.065   3.368 -0.1960 -0.0230  0.0134
20600W        W63694  21.802   5.589   3.013  0.0280 -0.0110  0.0929
20601W        W63695  23.778   5.516   1.478  0.1679 -0.1877  0.4054
20602W        W63696  21.715   2.924   0.893  0.2160  0.0153  0.2311
20603W        W63697  24.235   5.682   1.678 -0.0067  0.1291  0.0564
20604W        W63698  24.042   6.010   1.332  0.0705  0.0511 -0.1321
20605W        W63699  20.852   4.147   1.756 -0.0242 -0.0666  0.3248
20606W        W63700  23.541   5.042   0.337 -0.0150  0.1391  0.1791
20607W        W63701  23.586   5.641   3.667 -0.3431  0.1456  0.2571
20608W        W63702  23.479   5.943   1.401 -0.3053 -0.1550  0.4191
20609W        W63703  23.962   5.929   3.485  0.0181 -0.0313 -0.4075
20610W        W63704  24.213   5.201  30.958  0.2573 -0.3310 -0.3054
20611W        W63705  27.183   6.673  31.669  0.0617  0.0820  0.2274
20612W        W63706  24.877   8.550   4.213 -0.1515 -0.0144  0.1326
20613W        W63707  25.056   8.071   3.505 -0.2061  0.1538  0.1371
20614W        W63708  24.022   6.735   3.179  0.0686  0.0693  0.0277
20615W        W63709  23.658   6.421   2.642 -0.1965  0.2210 -0.0177
20616W        W63710  23.188   3.453   0.653 -0.1396 -0.1581 -0.1388
20617W        W63711  23.166   6.343   0.750  0.0555  0.1299  0.1578
20618W        W63712  22.690   5.451   2.426  0.0125 -0.1863 -0.2135
20619W        W63713  24.550   4.533   1.909  0.1671  0.2857  0.1923
20620W        W63714  22.257   2.927   2.352  0.0622 -0.0745  0.0455
20621W        W63715  25.151   3.301  31.929 -0.0873 -0.0831  0.2010
20622W        W63716  22.347   6.863   2.942 -0.1907 -0.0474  0.1735
20623W        W63717  23.394   5.366   2.905  0.1759  0.0911  0.1464
20624W        W63718  22.949   7.130   7.737  0.3063 -0.0995  0.2072
20625W        W63719  22.071   5.692   5.622 -0.0349 -0.0441  0.1970
20626W        W63720  24.364   4.991   2.195  0.0252 -0.1476  0.1083
20627W        W63721  26.311   4.900   5.017  0.2218  0.1197 -0.1752
20628W        W63722  21.746   5.150   3.969 -0.0541 -0.2886  0.3215
20629W        W63723  24.605   7.245   5.498 -0.0237 -0.4117 -0.1974
20630W        W63724  23.262   4.259   5.412  0.2084 -0.0207  0.0201
20631W        W63725  25.145   6.266   4.982 -0.3019 -0.0448 -0.0653
20632W        W63726  23.557   6.662   6.558  0.0300  0.1576 -0.0034
20633W        W63727  22.505   5.896   4.853 -0.1014 -0.2488 -0.0138
20634W        W63728  23.065   5.461   6.019  0.0759  0.0517  0.2125
20635W        W63729  23.068   7.629   7.297 -0.2270  0.0327 -0.2256
20636W        W63730  22.748   4.746   4.581 -0.2615 -0.4682 -0.0311
20637W        W63731  22.434   3.904   4.231  0.0315 -0.0014 -0.0689
20638W        W63732  24.040   6.380   6.579 -0.2746  0.0223 -0.0644
20639W        W63733  22.369   6.041   5.769 -0.0137 -0.2961 -0.2701
20640W        W63734  22.301   6.150   6.305  0.1308  0.3371 -0.0648
20641W        W63735  23.081   5.049   4.248 -0.3618  0.0188  0.2031
20642W        W63736  23.035   7.939   2.739  0.0581  0.3283 -0.1312
20643W        W63737  21.941   4.199   4.779 -0.1627 -0.2409 -0.0929
20644W        W63738  25.385   4.897   7.486  0.1289 -0.1774 -0.0577
20645W        W63739  24.166   6.110   4.890  0.2335  0.3317 -0.4220
20646W        W63740  22.355   5.721   3.731 -0.0500 -0.1078 -0.3034
20647W        W63741  21.540   5.922   4.215 -0.0476  0.0243 -0.0619
20648W        W63742  22.540   5.773   6.743 -0.1465  0.2492  0.3357
20649W        W63743  24.628   4.412   4.907  0.1015 -0.2865  0.0430
20650W        W63744  24.178   6.591   4.696 -0.3588 -0.0882 -0.0287
20651W        W63745  22.629   7.631   5.438  0.0061  0.1089 -0.0350
20652W        W63746  23.739   7.347   6.681 -0.2937 -0.0369 -0.3912
20653W        W63747  25.732   4.524   7.409 -0.3165  0.1013 -0.1923
20654W        W63748  23.007   6.672   5.244  0.1992  0.2621  0.0701
20655W        W63749  22.255   7.778   4.517 -0.0134  0.2792  0.1883
20656W        W63750  22.641   7.097   3.711 -0.0782 -0.1538 -0.1907
20657W        W63751  25.358   7.506   5.390  0.2482  0.0649  0.3708
20658W        W63752  25.185   5.475   6.395  0.2962  0.2777 -0.0311
20659W        W63753  22.848   7.457   6.917 -0.2163  0.0134  0.1799
20660W        W63754  23.999   5.993   2.567 -0.0198 -0.1055  0.1861
20661W        W63755  25.027   6.019   6.881 -0.2030  0.0568 -0.0187
20662W        W63756  22.631   7.743   6.524 -0.2757 -0.0120 -0.0424
20663W        W63757  22.840   5.021   5.596 -0.2466  0.0026  0.0058
20664W        W63758  23.371   5.657   5.095  0.3538 -0.2014  0.0440
20665W        W63759  21.882   6.365   4.419 -0.1285 -0.0027 -0.1703
20666W        W63760  23.282   6.473   4.825 -0.2929 -0.1658  0.2305
20667W        W63761  22.337   7.871   7.754  0.1098  0.1353 -0.0960
20668W        W63762  21.600   6.965   5.395 -0.1582  0.0636  0.0021
20669W        W63763  25.573   4.032   7.232 -0.2590  0.2385 -0.0821
20670W        W63764  23.574   8.974   1.952  0.0664  0.1093  0.1870
20671W        W63765  24.742   5.667   2.967 -0.0997 -0.2252  0.0849
20672W        W63766  23.716   5.685   3.113 -0.1967 -0.0786 -0.0743
20673W        W63767  23.697   5.336   4.102 -0.2797 -0.2227 -0.1230
20674W        W63768  23.332   4.722   3.881 -0.2996  0.1677 -0.2492
20675W        W63769  23.916   7.662   4.888  0.2883 -0.0268  0.1493
20676W        W63770  22.366   4.731   5.624 -0.0145  0.0765 -0.0542
20677W        W63771  24.797   6.525   6.000 -0.2714  0.3048  0.1987
20678W        W63772  24.194   4.714   5.551  0.1049 -0.3772 -0.1800
20679W        W63773  25.737   5.387   7.023  0.2485 -0.2299 -0.1179
20680W        W63774  23.210   8.017   7.655 -0.1173 -0.0550 -0.0808
20681W        W63775  21.813   5.345   5.394 -0.0897 -0.2942  0.3523
20682W        W63776  24.435   6.921   2.994 -0.0901 -0.0756 -0.2549
20683W        W63777  24.483   7.793   5.536 -0.1747  0.1767  0.1160
20684W        W63778  23.163   6.769   3.539 -0.1399 -0.1326 -0.1171
20685W        W63779  21.517   5.728   4.761  0.1569  0.0046 -0.0528
20686W        W63780  21.381   6.492   8.325 -0.0098 -0.1375 -0.2084
20687W        W63781  22.994   5.533   6.943 -0.0595  0.4080 -0.0089
20688W        W63782  23.666   4.013   3.238  0.0133  0.2312 -0.1360
20689W        W63783  26.927   5.340   8.541 -0.0233 -0.1354 -0.4897
20690W        W63784  21.162   6.711   7.947  0.0313  0.1092  0.0267
20691W        W63785  24.439   4.783   4.617 -0.2093  0.1407 -0.2365
20692W        W63786  24.737   5.619   5.633 -0.1659  0.1626  0.1141
20693W        W63787  23.933   6.961   6.360 -0.0467 -0.2659  0.0610
20694W        W63788  24.212   6.795   3.643  0.1467 -0.0833 -0.0331
20695W        W63789  25.521   5.083   6.627 -0.0092  0.0843  0.1981
20696W        W63790  23.503   4.777   6.227 -0.0550  0.1269  0.0360
20697W        W63791  23.757   5.575   2.628  0.4683  0.0305  0.1164
20698W        W63792  22.180   6.678   4.650  0.2715  0.1157 -0.1110
20699W        W63793  25.330   6.049   7.347 -0.1704 -0.0697 -0.1777
20700W        W63794  23.997   4.882   5.098  0.0480 -0.0523 -0.1966
20701W        W63795  23.121   8.022   4.608  0.1318  0.0218  0.1265
20702W        W63796  23.556   4.207   6.418 -0.0868  0.2094  0.2778
20703W        W63797  24.600   6.769   8.335 -0.1926 -0.0688  0.2768
20704W        W63798  23.271   8.161   4.152 -0.1796  0.0004 -0.1279
20705W        W63799  21.672   5.828   5.238 -0.2511  0.0973 -0.0566
20706W        W63800  23.215   7.521   4.326  0.1176 -0.1255  0.1615
20707W        W63801  20.562   5.824   5.210  0.0346  0.1543 -0.0237
20708W        W63802  23.160   7.163   7.171  0.2344 -0.0764  0.0488
20709W        W63803  26.528   4.137   4.620  0.3052  0.3416 -0.0801
20710W        W63804  24.416   5.089   6.056 -0.1883 -0.0441 -0.2315
20711W        W63805  24.647   3.657   6.216  0.0941 -0.0380 -0.0688
20712W        W63806  22.779   6.385   4.724 -0.1259  0.2387 -0.0062
20713W        W63807  23.263   8.102   3.187 -0.1835 -0.2771 -0.2463
20714W        W63808  26.071   4.539   4.110  0.3228 -0.1263  0.1537
20715W        W63809  23.787   6.862   2.343  0.2917 -0.1789 -0.1986
20716W        W63810  23.533   5.286   6.164 -0.2516  0.0926  0.2992
20717W        W63811  22.086   6.062   4.060 -0.0994  0.2685 -0.1559
20718W        W63812  22.575   5.017   6.096 -0.1483  0.2594 -0.1276
20719W        W63813  22.091   5.264   4.374 -0.2909  0.1110  0.0254
20720W        W63814  23.722   6.614   6.014 -0.1537  0.1921 -0.0832
20721W        W63815  22.431   4.381   3.515  0.3148  0.0569 -0.4332
20722W        W63816  24.811   4.041   4.650  0.2039  0.0322 -0.0229
20723W        W63817  23.056   5.979   4.864 -0.1282 -0.2801 -0.1335
20724W        W63818  21.358   6.531   4.365 -0.0478 -0.1209 -0.0953
20725W        W63819  24.797   3.356   6.964  0.1710  0.0080 -0.1140
20726W        W63820  24.146   7.624   3.944 -0.1022 -0.2377  0.0606
20727W        W63821  24.155   8.753   5.802 -0.0468 -0.1101  0.0275
20728W        W63822  24.234   6.923   5.080 -0.0700  0.1715  0.1793
20729W        W63823  21.668   4.445   6.088 -0.1709 -0.1212 -0.3695
20730W        W63824  22.402   4.822   2.993  0.0241  0.0529 -0.3124
20731W        W63825  23.405   9.383   5.499 -0.2284 -0.0498 -0.2268
20732W        W63826  23.628   6.662   5.435  0.0393 -0.0694  0.2029
20733W        W63827  23.262   5.227   3.804  0.0158 -0.1617 -0.2138
20734W        W63828  25.099   7.503   5.858  0.2562  0.1652  0.1314
20735W        W63829  23.621   4.503   5.216  0.1075  0.1819  0.1210
20736W        W63830  21.341   7.828   6.455  0.0594  0.2913  0.1465
20737W        W63831  25.147   4.690   6.586  0.1704 -0.0924  0.0034
20738W        W63832  25.276   5.152   5.588 -0.3366 -0.1700 -0.0890
20739W        W63833  22.846   5.958   4.429 -0.0116  0.0924 -0.2568
20740W        W63834  21.618   3.268   3.731 -0.1273 -0.1047 -0.1351
20741W        W63835  24.210   7.915   5.954  0.1225 -0.0010 -0.0601
20742W        W63836  21.472   7.744   4.715  0.3781 -0.2735  0.0144
20743W        W63837  21.922   5.348   3.442  0.0179  0.5227  0.0432
20744W        W63838  24.440   6.218   5.633 -0.2049  0.0919 -0.0615
20745W        W63839  24.882   4.786   6.140  0.1192  0.2028  0.0612
20746W        W63840  21.345   7.174   7.868  0.0797 -0.2776 -0.3575
20747W        W63841  24.490   5.556   6.066 -0.1949  0.2795  0.0494
20748W        W63842  22.450   5.327   2.847 -0.0207  0.3179 -0.0229
20749W        W63843  21.806   7.530   6.217  0.1666  0.1334 -0.2504
20750W        W63844  25.088   3.822   4.991  0.1027  0.1613 -0.1017
20751W        W63845  26.198   4.616   4.557  0.1384  0.1321  0.0293
20752W        W63846  23.162   5.325   9.263  0.0255 -0.0035  0.1649
20753W        W63847  24.080   6.588   5.650  0.5308 -0.1883 -0.2345
20754W        W63848  24.082   5.889   4.031  0.1932 -0.1828 -0.2594
20755W        W63849  23.815   5.773   4.914  0.0555 -0.2975  0.3555
20756W        W63850  21.798   7.668   6.904  0.0565 -0.2949 -0.1302
20757W        W63851  23.575   6.067   5.344  0.1335 -0.2926  0.2437
20758W        W63852  22.683   6.838   4.858 -0.0606  0.0631 -0.1919
20759W        W63853  23.494   5.194   5.224  0.0100  0.1986 -0.0290
20760W        W63854  24.508   7.188   4.117 -0.2338  0.0616 -0.2571
20761W        W63855  21.847   8.033   6.159  0.2869 -0.3456  0.0921
20762W        W63856  23.942   5.556   7.336  0.2426  0.1088 -0.0754
20763W        W63857  25.736   8.715   5.412  0.0321 -0.1453 -0.2720
20764W        W63858  23.878   2.734   6.870 -0.1403 -0.3230 -0.1730
20765W        W63859  23.262   5.645   3.311  0.1189  0.0570 -0.1210
20766W        W63860  24.096   4.352   5.007  0.1109 -0.2207  0.0498
20767W        W63861  21.709   7.996   5.120 -0.2641 -0.1667  0.0214
20768W        W63862  24.705   4.419   5.405  0.1917  0.1581 -0.0736
20769W        W63863  23.769   4.941   5.556 -0.3179 -0.0740 -0.2001
20770W        W63864  24.084   5.415   6.338 -0.3295  0.2191  0.1983
20771W        W63865  25.331   4.685   8.481 -0.0570 -0.0297  0.0447
20772W        W63866  24.684   5.367   3.889 -0.0360 -0.1676  0.1026
20773W        W63867  24.913   6.086   5.616 -0.0916  0.0751  0.0083
20774W        W63868  21.916   4.662   3.881  0.0874 -0.0490  0.2845
20775W        W63869  23.193   4.363   6.103 -0.1216  0.1872  0.0787
20776W        W63870  21.812   6.451   6.701 -0.0691 -0.0504 -0.1864
20777W        W63871  21.420   7.811   5.982  0.3324  0.0434  0.2507
20778W        W63872  23.774   6.600   7.453  0.1715 -0.0228  0.1471
20779W        W63873  24.753   6.785   4.981 -0.0620 -0.1718  0.0665
20780W        W63874  23.971   4.553   6.440 -0.2799 -0.0595 -0.0352
20781W        W63875  24.284   4.938   3.741 -0.2071 -0.2979  0.0381
20782W        W63876  23.767   7.419   3.052 -0.0652  0.1513  0.1420
20783W        W63877  22.361   6.943   4.272 -0.1167  0.1516  0.2234
20784W        W63878  23.556   4.286   4.619  0.0636 -0.1785 -0.3261
20785W        W63879  22.427   7.201   7.839 -0.1423 -0.0964 -0.1226
20786W        W63880  23.732   8.236   4.200 -0.1983  0.1155  0.0893
20787W        W63881  23.574   6.847   7.048 -0.0400  0.2660 -0.1670
20788W        W63882  21.575   7.542   5.213  0.0535 -0.3199 -0.1479
20789W        W63883  24.170   3.965   5.370  0.0759  0.0730  0.6105
20790W        W63884  20.341   6.348   6.019 -0.1000  0.0637  0.0968
20791W        W63885  23.034   5.113   4.949 -0.0257  0.0141  0.3482
20792W        W63886  21.939   5.768   4.528  0.2019  0.1387  0.0757
20793W        W63887  25.708   4.512   4.845 -0.0457 -0.1133 -0.2125
20794W        W63888  23.952   5.377   5.247  0.0888 -0.0313  0.0785
20795W        W63889  22.166   4.922   3.423  0.0056  0.0791  0.1544
20796W        W63890  23.924   4.003   6.045  0.0240  0.2503 -0.0602
20797W        W63891  21.384   7.427   5.662 -0.0335  0.4122  0.3711
20798W        W63892  24.276   5.710   5.625  0.2102 -0.3480  0.0890
20799W        W63893  24.096   3.630   4.191  0.2630  0.0714  0.2023
20800W        W63894  24.091   5.658   4.474 -0.0409 -0.1226 -0.1127
20801W        W63895  23.311   5.952   6.944  0.0569 -0.0257 -0.0092
20802W        W63896  21.930   3.931   3.113  0.1632 -0.0165  0.0667
20803W        W63897  25.693   4.509   5.996  0.2864  0.4247 -0.2250
20804W        W63898  24.066   6.050   5.321 -0.1142  0.2425 -0.0669
20805W        W63899  21.072   6.502   5.396  0.0438  0.3646  0.3756
20806W        W63900  24.559   6.013   5.177 -0.1379 -0.1264  0.0134
20807W        W63901  23.289   6.229   4.427  0.1137 -0.0605 -0.1534
20808W        W63902  21.988   7.654   4.945 -0.1950  0.1577  0.2150
20809W        W63903  24.265   5.920   6.618  0.0570 -0.0232  0.1088
20810W        W63904  23.363   6.877   5.865 -0.3598 -0.2902  0.1541
20811W        W63905  23.952   4.848   6.025  0.1960 -0.2643  0.2262
20812W        W63906  22.405   5.720   4.334  0.2951 -0.0281 -0.0785
20813W        W63907  23.940   5.350   5.798  0.2307  0.0927  0.0426
20814W        W63908  23.425   5.813   6.009 -0.1629 -0.2028 -0.2305
20815W        W63909  24.266   4.114   6.408 -0.0529 -0.1730  0.0576
20816W        W63910  21.946   7.075   7.601 -0.3124  0.2727 -0.0165
20817W        W63911  24.161   3.508   5.103 -0.0102 -0.0738 -0.1877
20818W        W63912  23.745   6.919   2.826 -0.1454  0.1147 -0.0574
20819W        W63913  24.570   6.245   6.916 -0.0994  0.3013 -0.0617
20820W        W63914  22.665   5.271   4.274 -0.0676 -0.1352 -0.0991
20821W        W63915  22.492   5.314   6.541 -0.2605 -0.0361  0.1958
20822W        W63916  22.538   7.357   3.137 -0.2317 -0.0787 -0.1739
20823W        W63917  25.244   4.962   5.010  0.1968  0.2461 -0.0313
20824W        W63918  22.557   6.761   7.608 -0.0900 -0.2309 -0.2278
20825W        W63919  22.664   6.713   3.293  0.2969  0.1681  0.0919
20826W        W63920  21.031   7.034   5.741  0.2402 -0.4007  0.0303
20827W        W63921  24.887   5.177   3.434 -0.2383 -0.1066  0.1899
20828W        W63922  24.119   7.204   2.280  0.1238 -0.2898 -0.2695
20829W        W63923  23.101   5.702   5.593  0.4640 -0.0502  0.0650
20830W        W63924  26.912   3.816   6.344  0.0129 -0.2103  0.2359
20831W        W63925  23.390   6.027   2.914 -0.1096 -0.3814 -0.0562
20832W        W63926  22.975   4.157   6.494 -0.1573  0.3657 -0.0321
20833W        W63927  22.498   5.410   4.738 -0.1431 -0.5685  0.3285
20834W        W63928  24.680   6.641   5.454 -0.0459  0.1901 -0.1183
20835W        W63929  22.466   6.445   7.235 -0.0862  0.3227  0.1344
20836W        W63930  24.554   7.260   7.061 -0.1092 -0.1974 -0.0831
20837W        W63931  22.494   6.913   8.396 -0.0080 -0.1350  0.2405
20838W        W63932  24.659   4.806   5.653 -0.1247  0.0075  0.1332
20839W        W63933  22.620   4.009   3.714 -0.3682  0.0437  0.0919
20840W        W63934  22.255   6.973   6.105 -0.1638 -0.1608 -0.0404
20841W        W63935  24.552   5.822   4.713 -0.2027 -0.0937 -0.2351
20842W        W63936  23.601   6.607   4.393  0.3442 -0.0019  0.0721
20843W        W63937  24.484   4.863   5.109 -0.0102  0.2783 -0.2227
20844W        W63938  22.155   6.221   4.789 -0.1418 -0.1173  0.2336
20845W        W63939  24.056   5.052   4.394  0.2854 -0.0819  0.2322
20846W        W63940  24.285   6.194   4.370 -0.2052 -0.2081  0.0687
20847W        W63941  22.377   7.237   4.712  0.1987 -0.1102 -0.1994
20848W        W63942  22.792   4.592   5.794  0.0632  0.0659 -0.0808
20849W        W63943  25.017   5.733   5.253  0.1810  0.3643 -0.2887
20850W        W63944  23.894   4.698   4.660 -0.2798 -0.3434 -0.2045
20851W        W63945  25.184   4.417   7.348 -0.2192 -0.2293 -0.2248
20852W        W63946  24.688   5.715   6.931 -0.0438 -0.1152 -0.1089
20853W        W63947  24.836   5.120   6.589 -0.2565 -0.0392  0.1488
20854W        W63948  22.327   5.304   5.292 -0.2389 -0.2116 -0.0501
20855W        W63949  24.791   7.062   6.085  0.1853 -0.1630  0.2098
20856W        W63950  25.713   4.916   4.527  0.0913  0.1368 -0.0096
20857W        W63951  25.126   4.174   5.423 -0.1499  0.2016 -0.2208
20858W        W63952  24.956   5.962   4.520  0.3070  0.1459 -0.2676
20859W        W63953  23.515   5.982   4.069 -0.0669 -0.2034  0.1966
20860W        W63954  22.904   6.140   5.356 -0.2880  0.6824  0.0641
20861W        W63955  25.563   4.707   7.921  0.0795  0.1840  0.1728
20862W        W63956  21.546   6.283   4.838 -0.0719 -0.1736 -0.0464
20863W        W63957  24.871   4.763   8.406 -0.0521  0.2624  0.2611
20864W        W63958  23.657   6.984   3.460 -0.1405 -0.0643  0.3238
20865W        W63959  25.291   7.570   4.877  0.1508  0.1383  0.1303
20866W        W63960  24.179   5.247   4.846 -0.0994 -0.0285 -0.2829
20867W        W63961  22.221   5.204   5.792 -0.0216  0.2036 -0.0857
20868W        W63962  23.691   7.817   7.538  0.0975  0.0951 -0.1287
20869W        W63963  21.463   3.935   3.516  0.1939 -0.0334 -0.2308
20870W        W63964  23.799   6.441   3.590  0.2651  0.3308 -0.2046
20871W        W63965  22.842   7.219   5.303 -0.1118  0.1730 -0.2471
20872W        W63966  25.545   5.783   7.699 -0.1660  0.0743  0.1145
20873W        W63967  23.111   5.574   4.163  0.0948 -0.1358  0.4566
20874W        W63968  25.400   4.762   7.012  0.1147 -0.0645 -0.0670
20875W        W63969  22.848   7.176   4.367 -0.3877 -0.2585  0.1161
20876W        W63970  24.070   3.836   7.082  0.0088 -0.1263 -0.0107
20877W        W63971  22.595   7.076   6.654 -0.1328  0.3267  0.0647
20878W        W63972  22.843   5.736   7.856 -0.1997 -0.0135  0.2472
20879W        W63973  22.404   6.589   5.150  0.0826 -0.4211  0.0308
20880W        W63974  22.227   4.594   6.241 -0.2941  0.0014 -0.1414
20881W        W63975  24.887   5.229   5.924 -0.1080 -0.0092  0.0204
20882W        W63976  23.870   5.959   6.275 -0.0009 -0.0044  0.3148
20883W        W63977  26.192   4.702   7.385 -0.4985  0.0023  0.2614
20884W        W63978  24.162   6.525   7.728  0.0898 -0.1331 -0.1615
20885W        W63979  23.416   6.271   5.810  0.0604  0.0908  0.1322
20886W        W63980  24.175   8.104   6.714  0.1048  0.1788 -0.2156
20887W        W63981  25.640   5.865   5.810  0.4055 -0.1926 -0.0959
20888W        W63982  22.765   6.990   6.016  0.0302 -0.0570 -0.0141
20889W        W63983  21.904   6.589   7.349  0.3600 -0.1699  0.1330
20890W        W63984  24.095   5.346   6.900  0.1385  0.1000 -0.1692
20891W        W63985  25.438   4.598   5.238  0.0321  0.2328  0.0605
20892W        W63986  22.371   4.866   4.301  0.1478  0.1670 -0.4572
20893W        W63987  24.491   6.704   4.230  0.0454  0.0944 -0.0089
20894W        W63988  20.802   6.313   8.111 -0.0763 -0.1056 -0.0556
20895W        W63989  23.599   5.672   6.562 -0.2141  0.0274 -0.1437
20896W        W63990  22.728   7.702   4.323  0.2587 -0.0001  0.1965
20897W        W63991  24.569   5.749   4.194 -0.1541  0.0489 -0.0605
20898W        W63992  23.481   7.327   4.906  0.0125  0.0647 -0.1969
20899W        W63993  24.615   7.572   5.944 -0.2464 -0.1619  0.1265
20900W        W63994  22.741   6.119   3.987 -0.2653  0.0089 -0.1648
20901W        W63995  22.945   7.304   6.406 -0.3492 -0.0994  0.1470
20902W        W63996  22.238   7.381   3.543 -0.0018 -0.0611  0.0440
20903W        W63997  24.423   7.083   4.613 -0.1368 -0.3142 -0.0550
20904W        W63998  21.074   7.909   4.477  0.0564 -0.0404  0.3142
20905W        W63999  25.447   5.753   6.807 -0.0548 -0.1102 -0.1514
20906W        W64000  25.348   5.283   4.651 -0.3094  0.0731 -0.0088
20907W        W64001  24.962   4.337   6.926 -0.0572 -0.1417  0.0919
20908W        W64002  26.638   4.903   5.857  0.2835  0.1853 -0.2902
20909W        W64003  24.682   6.048   6.090  0.1820  0.0843  0.4050
20910W        W64004  22.230   4.958   6.861 -0.1897 -0.1292 -0.3953
20911W        W64005  23.163   4.847   3.410  0.1080  0.0433 -0.1079
20912W        W64006  21.641   6.912   6.955  0.0326 -0.2791 -0.3331
20913W        W64007  26.446   3.751   5.913  0.0089 -0.0477  0.0000
20914W        W64008  21.476   8.010   6.968 -0.1086 -0.2570 -0.0931
20915W        W64009  24.007   6.486   4.053 -0.0627  0.1906  0.1834
20916W        W64010  21.369   3.924   2.949  0.2085 -0.1743  0.2299
20917W        W64011  21.652   6.794   4.657 -0.1587 -0.0321  0.4009
20918W        W64012  25.139   3.412   5.521  0.2912 -0.0602 -0.1197
20919W        W64013  23.104   5.440   4.603 -0.1152 -0.1106 -0.0531
20920W        W64014  23.555   4.902   4.346 -0.0855 -0.0758  0.1268
20921W        W64015  22.953   7.431   4.826  0.1203 -0.0932 -0.0640
20922W        W64016  22.024   7.192   6.588 -0.1903  0.0078  0.2162
20923W        W64017  22.589   6.998   7.152  0.3608  0.1458  0.3260
20924W        W64018  20.886   4.284   3.828  0.4255 -0.3559  0.0747
20925W        W64019  25.957   4.666   5.281  0.4041 -0.1949 -0.0984
20926W        W64020  23.878   6.117   5.784 -0.0633 -0.0023 -0.0821
20927W        W64021  26.005   2.486   6.340 -0.1365 -0.1407 -0.1921
20928W        W64022  20.432   4.276   5.913 -0.1039 -0.4739 -0.0475
20929W        W64023  24.245   4.557   4.078 -0.2692  0.0792  0.2893
20930W        W64024  24.122   5.379   7.806  0.1641 -0.2300 -0.1396
20931W        W64025  22.667   5.492   5.677 -0.1032  0.1959 -0.1378
20932W        W64026  23.953   5.352   3.472 -0.1126  0.0051 -0.1299
20933W        W64027  25.465   5.586   5.443 -0.2616  0.1062 -0.1943
20934W        W64028  22.979   6.303   3.468  0.0219 -0.1465  0.0308
20935W        W64029  24.846   7.908   7.744 -0.0598 -0.0806  0.0402
20936W        W64030  23.354   3.981   5.008 -0.1968 -0.2327 -0.1538
20937W        W64031  24.893   5.440   4.853 -0.0420  0.1695 -0.1924
20938W        W64032  21.866   7.165   4.989 -0.0174 -0.0862  0.1344
20939W        W64033  23.570   5.552   5.524 -0.0604 -0.1663 -0.0923
20940W        W64034  23.531   7.163   7.525 -0.0334  0.0099 -0.0014
20941W        W64035  22.264   5.208   3.838  0.1668  0.2281  0.0930
20942W        W64036  24.928   5.714   3.487 -0.0074 -0.0359 -0.1386
20943W        W64037  25.867   4.980   6.201  0.4278  0.1301 -0.0242
20944W        W64038  24.014   6.926   4.310  0.4356 -0.0634  0.1032
20945W        W64039  24.883   5.149   5.278 -0.2091  0.0163 -0.1111
20946W        W64040  24.159   7.314   6.123  0.0948 -0.0259  0.0668
20947W        W64041  22.987   6.508   5.779  0.2165 -0.0613 -0.3023
20948W        W64042  24.969   6.921   6.578 -0.1073  0.0874  0.1620
20949W        W64043  24.812   6.321   6.467 -0.3125  0.2104  0.0740
20950W        W64044  23.232   6.381   3.864  0.2992 -0.2848  0.0097
20951W        W64045  22.467   7.705   4.963 -0.2488 -0.0331  0.2199
20952W        W64046  22.094   6.958   3.810  0.1913 -0.0424  0.0778
20953W        W64047  26.025   4.025   5.962  0.1038 -0.2789  0.1961
20954W        W64048  26.642   3.880   7.415  0.3306  0.0973 -0.0474
20955W        W64049  22.895   8.069   3.732  0.1341  0.0295  0.0078
20956W        W64050  24.916   4.800   7.081 -0.1763 -0.3581 -0.3357
20957W        W64051  23.837   7.028   5.805 -0.1368  0.1235  0.0107
20958W        W64052  22.659   6.404   8.500 -0.0276  0.2048 -0.0458
20959W        W64053  21.686   6.389   3.939  0.2484  0.3483 -0.4221
20960W        W64054  23.430   6.155   6.378  0.0214 -0.2769  0.0754
20961W        W64055  23.107   6.658   6.313 -0.1624  0.2189  0.2670
20962W        W64056  23.642   6.844   4.859  0.0952  0.0430 -0.5025
20963W        W64057  26.735   6.394   5.487  0.0040 -0.2701 -0.1272
20964W        W64058  24.363   5.193   5.549 -0.3165 -0.1416 -0.0294
20965W        W64059  26.204   8.128   6.249  0.1203 -0.1209  0.0793
20966W        W64060  23.312   3.441   5.914  0.0310  0.1186  0.0576
20967W        W64061  25.516   4.006   4.822  0.0184 -0.2128  0.2083
20968W        W64062  24.633   3.312   5.357  0.1431 -0.1906  0.0567
20969W        W64063  22.538   5.597   6.151  0.0607 -0.3906 -0.2810
20970W        W64064  20.996   6.630   3.961  0.0961 -0.0952 -0.1052
20971W        W64065  21.653   5.312   2.465 -0.1200  0.0850 -0.0276
20972W        W64066  21.829   7.659   5.744 -0.3095  0.2108 -0.1484
20973W        W64067  24.150   4.185   7.552 -0.1927  0.2893  0.1133
20974W        W64068  22.966   5.238   6.472  0.2516  0.0462 -0.1073
20975W        W64069  22.579   6.540   6.102 -0.0154  0.2174 -0.2418
20976W        W64070  21.753   5.271   4.908 -0.2101  0.1694  0.2168
20977W        W64071  25.746   6.914   4.730  0.0225 -0.1057  0.1118
20978W        W64072  21.128   4.021   4.291  0.0390  0.0296 -0.1754
20979W        W64073  20.935   3.515   4.197 -0.1110  0.1766  0.1700
20980W        W64074  23.158   6.959   4.788 -0.3591  0.1312 -0.0474
20981W        W64075  23.869   7.437   4.346 -0.0688 -0.0753  0.0596
20982W        W64076  22.536   4.853   5.132 -0.1517 -0.4582  0.0551
20983W        W64077  25.706   6.515   7.187  0.2065  0.2688 -0.0747
20984W        W64078  22.394   6.364   3.016 -0.0779  0.3369  0.3530
20985W        W64079  23.689   6.374   6.923 -0.1910 -0.5502  0.0273
20986W        W64080  24.349   4.256   7.014 -0.1537  0.1374 -0.0732
20987W        W64081  23.969   4.655   2.827 -0.1328 -0.2717 -0.1570
20988W        W64082  23.293   5.209   5.688  0.2851 -0.2089  0.0967
20989W        W64083  24.899   7.645   5.296 -0.0707  0.1623  0.0231
20990W        W64084  24.604   8.183   2.011  0.0051 -0.1018 -0.5349
20991W        W64085  23.449   7.217   6.227 -0.3478 -0.0355  0.3682
20992W        W64086  24.182   7.007   6.851 -0.2465  0.2882 -0.1613
20993W        W64087  21.126   4.410   4.784 -0.2953 -0.1964 -0.0738
20994W        W64088  25.811   6.445   4.575  0.1171  0.0986  0.0500
20995W        W64089  22.708   6.651   6.763 -0.0854  0.2625  0.0201
20996W        W64090  24.984   7.500   3.819  0.1267 -0.0532  0.1864
20997W        W64091  26.205   4.689   5.788 -0.1079  0.2065  0.4882
20998W        W64092  23.796   6.424   5.012 -0.1351  0.1689  0.2469
20999W        W64093  21.671   4.525   5.507 -0.3554 -0.0188 -0.2900
21000W        W64094  22.091   6.628   7.773  0.2092 -0.0583 -0.1666
21001W        W64095  25.916   6.345   5.726  0.1609 -0.0984 -0.1556
21002W        W64096  22.900   5.523   5.163 -0.4063  0.1271 -0.1403
21003W        W64097  25.749   3.556   4.861 -0.0817  0.0467 -0.0054
21004W        W64098  24.476   5.489   5.176 -0.0285 -0.1078  0.0554
21005W        W64099  22.591   6.758   5.562 -0.0201  0.2430 -0.7026
21006W        W64100  23.459   5.812   4.586  0.0338 -0.0910  0.1043
21007W        W64101  23.071   5.767   6.454 -0.1456 -0.2608  0.2626
21008W        W64102  24.144   7.380   5.642  0.2469 -0.2459 -0.0053
21009W        W64103  25.357   5.514   7.336  0.0214 -0.0777 -0.1226
21010W        W64104  23.173   5.895   3.739 -0.3809  0.1706 -0.3379
21011W        W64105  26.001   6.638   5.226 -0.1059 -0.0493  0.0648
21012W        W64106  24.818   5.789   6.470 -0.0244 -0.1112  0.0079
21013W        W64107  25.306   6.583   6.310 -0.0000 -0.0337 -0.0718
21014W        W64108  23.848   7.821   6.292 -0.0966 -0.1739  0.0407
21015W        W64109  25.065   5.737   5.958 -0.0516  0.5538 -0.0235
21016W        W64110  22.503   4.203   6.043 -0.4139  0.5791 -0.0855
21017W        W64111  22.090   5.673   4.950 -0.0861 -0.2707 -0.4400
21018W        W64112  24.287   6.468   5.191 -0.0917 -0.2718  0.1698
21019W        W64113  25.718   5.526   6.489  0.0997  0.3218  0.4213
21020W        W64114  21.898   4.816   4.422 -0.2852 -0.3759  0.0787
21021W        W64115  23.425   4.808   4.851  0.2282  0.0122  0.0012
21022W        W64116  23.604   7.500   8.448  0.1369  0.0395  0.0230
21023W        W64117  25.427   6.077   5.368 -0.4199 -0.0930 -0.2084
21024W        W64118  22.463   6.900   9.824  0.1233  0.0720 -0.3062
21025W        W64119  22.937   4.888   7.658  0.1372 -0.0415 -0.0930
21026W        W64120  26.387   4.723   8.139 -0.1491  0.3702 -0.4316
21027W        W64121  25.942   5.613   8.597  0.2584 -0.3037  0.1171
21028W        W64122  22.720   5.240   7.989  0.1259  0.0276 -0.0583
21029W        W64123  24.982   7.848   6.878  0.1965  0.1104 -0.1582
21030W        W64124  24.733   6.547   8.849 -0.4242 -0.0402 -0.1315
21031W        W64125  24.674   6.764   9.348 -0.4081  0.2165  0.1601
21032W        W64126  23.940   4.958   7.680  0.2213  0.1641 -0.0392
21033W        W64127  23.678   7.012   9.365 -0.2441 -0.0883 -0.1004
21034W        W64128  23.522   4.683   6.985  0.0666 -0.0053 -0.1739
21035W        W64129  21.877   4.995   9.028 -0.3960  0.1126  0.0107
21036W        W64130  24.602   5.232   8.362 -0.0618 -0.0063 -0.1144
21037W        W64131  21.495   6.413   7.703 -0.1985 -0.2843 -0.1234
21038W        W64132  23.864   6.531   9.531  0.0596 -0.4782 -0.2520
21039W        W64133  22.872   4.937   9.034 -0.4265  0.0689 -0.0521
21040W        W64134  25.219   7.559   8.536  0.0990 -0.0930 -0.4462
21041W        W64135  21.677   3.944   8.589  0.0217 -0.0250 -0.3287
21042W        W64136  22.121   7.096   8.901 -0.2015  0.0302 -0.1894
21043W        W64137  22.006   5.127   7.288  0.1525  0.2387 -0.0224
21044W        W64138  20.575   5.230   8.441  0.1896  0.1447  0.2003
21045W        W64139  23.409   6.393   9.871 -0.1178 -0.0909  0.1134
21046W        W64140  24.175   4.962   8.104  0.1136  0.0949  0.0272
21047W        W64141  25.078   5.538   9.733 -0.2607  0.0238  0.1333
21048W        W64142  23.655   8.645   8.261  0.1583  0.2335 -0.1774
21049W        W64143  25.110   8.096   8.634  0.0992  0.0997  0.0335
21050W        W64144  21.494   8.177   9.890  0.1674  0.1251 -0.0425
21051W        W64145  22.446   7.391   9.638  0.1694  0.0711  0.3268
21052W        W64146  23.288   5.965   8.314  0.3642  0.1432  0.1623
21053W        W64147  26.310   6.340   7.922 -0.2557 -0.0104  0.0607
21054W        W64148  22.483   6.076   7.677 -0.1864  0.0393 -0.0157
21055W        W64149  25.860   8.767  10.115 -0.0300 -0.2166 -0.1936
21056W        W64150  22.766   5.913   8.668 -0.1455 -0.0635 -0.1817
21057W        W64151  22.109   7.225   8.309 -0.2529 -0.0136  0.0379
21058W        W64152  24.075   6.620   8.426  0.4061  0.2770  0.0797
21059W        W64153  22.930   6.378   7.622 -0.1219 -0.2002  0.2298
21060W        W64154  25.813   5.076   7.426  0.2246 -0.1333 -0.2575
21061W        W64155  23.723   5.016   6.624  0.0394 -0.0998 -0.3859
21062W        W64156  24.355   4.841   8.584 -0.4232 -0.2193  0.0188
21063W        W64157  22.884   4.191   7.539  0.0781  0.0316 -0.0413
21064W        W64158  23.964   7.871   8.450  0.2275 -0.2010  0.0645
21065W        W64159  25.044   2.765   9.469  0.2446  0.1971  0.2886
21066W        W64160  23.088   5.771   7.383 -0.3472  0.0954  0.0633
21067W        W64161  24.006   7.701  10.108  0.0556  0.4022  0.1138
21068W        W64162  22.526   5.124  10.312 -0.2053 -0.1856 -0.2256
21069W        W64163  21.431   5.284   8.953  0.1907 -0.1066 -0.5374
21070W        W64164  24.239   6.313   6.090  0.1900  0.3375 -0.2183
21071W        W64165  25.079   6.455   9.459 -0.0777  0.2615 -0.3760
21072W        W64166  23.849   6.935   7.945  0.2516 -0.0270  0.0426
21073W        W64167  22.450   6.438   8.041  0.0583 -0.0080  0.1583
21074W        W64168  22.967   3.645   6.691  0.0743 -0.1634  0.0499
21075W        W64169  25.308   5.032   9.711 -0.2356  0.6463  0.1666
21076W        W64170  23.688   6.396   8.601 -0.3085  0.1717 -0.1213
21077W        W64171  24.120   6.085   9.802 -0.1050  0.3819 -0.1285
21078W        W64172  25.571   6.272   6.740  0.1607  0.1052  0.0912
21079W        W64173  25.661   6.871  10.165 -0.2382 -0.1698  0.4758
21080W        W64174  24.664   3.197   9.224  0.2379  0.2218 -0.3273
21081W        W64175  23.481   5.497   7.116  0.3582  0.0909  0.0329
21082W        W64176  23.388   5.139   8.678  0.0557 -0.2928 -0.0881
21083W        W64177  24.779   6.483   9.886 -0.0355 -0.0955 -0.2490
21084W        W64178  24.392   5.833   7.366  0.0901  0.0334 -0.2116
21085W        W64179  20.149   6.836   9.578 -0.0281  0.3287 -0.1068
21086W        W64180  21.468   7.773   7.598  0.0482  0.0816 -0.0760
21087W        W64181  21.938   6.008   9.627  0.3596  0.4100 -0.0698
21088W        W64182  22.503   6.576   9.009  0.2734  0.1949  0.1161
21089W        W64183  21.362   3.136   9.469 -0.3034 -0.0357  0.0340
21090W        W64184  22.912   7.406   9.175  0.3402  0.1445  0.0041
21091W        W64185  25.086   5.442   8.268 -0.2894  0.0262 -0.2185
21092W        W64186  25.222   3.052   9.830 -0.0313 -0.1487  0.1435
21093W        W64187  21.888   6.439   8.207 -0.0468 -0.0203  0.0815
21094W        W64188  25.971   8.027   7.523  0.3100  0.1161 -0.0009
21095W        W64189  25.521   4.274   8.236 -0.0221  0.0653  0.0081
21096W        W64190  24.138   6.583   7.061  0.0186  0.2252  0.5440
21097W        W64191  22.113   4.219   8.635 -0.2437 -0.0048  0.0163
21098W        W64192  22.165   4.904   7.782 -0.1888 -0.0890  0.0122
21099W        W64193  21.518   4.024   9.564 -0.2840  0.0497 -0.1891
21100W        W64194  23.689   4.430   5.903  0.0304  0.0437 -0.2631
21101W        W64195  23.355   4.660   9.378  0.2663 -0.2976  0.3061
21102W        W64196  21.850   5.990   9.107 -0.1674  0.1029 -0.1555
21103W        W64197  21.561   6.301   9.375  0.0324  0.3330  0.2327
21104W        W64198  24.473   7.536   7.511 -0.2020 -0.1162 -0.3943
21105W        W64199  26.589   8.654   9.999 -0.0839  0.3090  0.0298
21106W        W64200  25.413   7.401   7.652  0.0077  0.0073  0.1951
21107W        W64201  24.188   6.937   9.380 -0.2883 -0.0746 -0.2616
21108W        W64202  22.824   4.660   6.384  0.4049 -0.0204  0.2597
21109W        W64203  21.380   7.906   8.427  0.0718  0.0457 -0.0148
21110W        W64204  22.413   7.512   9.093  0.1537  0.1584 -0.1441
21111W        W64205  21.986   6.112   7.844  0.0701 -0.0443 -0.1140
21112W        W64206  24.935   7.024   8.849  0.0893 -0.2425 -0.0872
21113W        W64207  23.660   5.664   7.861 -0.0116 -0.0509 -0.2271
21114W        W64208  25.744   6.221   9.775  0.2688  0.1052 -0.3832
21115W        W64209  23.061   6.551  10.472  0.1403 -0.1798 -0.1364
21116W        W64210  21.954   4.806   5.917 -0.0457 -0.0654 -0.0332
21117W        W64211  25.715   7.495   8.599 -0.2627  0.1485 -0.1079
21118W        W64212  21.590   7.252   8.900  0.1750 -0.1086  0.0703
21119W        W64213  21.338   5.993   9.013 -0.0167  0.0407  0.3099
21120W        W64214  22.876   7.880   9.022  0.1551  0.1617  0.0569
21121W        W64215  24.409   4.788  10.023  0.0866  0.0928 -0.1644
21122W        W64216  21.987   4.597   7.387 -0.0775  0.1146 -0.0916
21123W        W64217  23.540   4.602   8.823 -0.1017 -0.0455 -0.3055
21124W        W64218  25.081   4.438   7.893 -0.1848  0.2055 -0.2718
21125W        W64219  26.141   6.729   8.946  0.0437  0.2548 -0.0812
21126W        W64220  24.519   5.047   6.926 -0.2219  0.0233 -0.1740
21127W        W64221  23.311   5.015   7.357 -0.3406 -0.1275  0.1582
21128W        W64222  24.447   7.209   7.978 -0.1143  0.1756 -0.1199
21129W        W64223  23.893   7.424   7.925  0.1496  0.2032 -0.3389
21130W        W64224  24.629   4.626   6.659  0.0168 -0.0550  0.0587
21131W        W64225  25.447   7.870   7.105  0.1506  0.0872 -0.2153
21132W        W64226  23.051   6.848   9.981 -0.1374  0.0765 -0.1140
21133W        W64227  25.190   6.860   7.752 -0.1832 -0.5066 -0.2993
21134W        W64228  22.946   5.402  10.108  0.0222 -0.1068  0.1538
21135W        W64229  21.694   6.845   8.003 -0.0306 -0.1383 -0.1081
21136W        W64230  23.053   4.541   8.770 -0.0036  0.0257  0.1298
21137W        W64231  21.066   8.065   7.428  0.1221 -0.2524 -0.2324
21138W        W64232  22.085   5.420  10.152  0.1176 -0.0422 -0.0712
21139W        W64233  23.269   7.723  10.060 -0.2501  0.0349 -0.0796
21140W        W64234  24.596   5.696   8.086  0.0281  0.1599 -0.1468
21141W        W64235  22.896   6.182   8.106 -0.3007 -0.0487 -0.0700
21142W        W64236  22.978   6.739   7.261 -0.0693 -0.1360 -0.0273
21143W        W64237  21.214   4.984   9.867 -0.1730  0.1109 -0.0858
21144W        W64238  18.986   9.399  12.313 -0.3246  0.3741  0.3954
21145W        W64239  23.014   6.238   9.574  0.1407  0.1927 -0.0435
21146W        W64240  22.607   4.760   8.042 -0.0867 -0.3267 -0.0142
21147W        W64241  21.580   7.381   7.365  0.1163  0.0548 -0.2679
21148W        W64242  23.918   7.268   8.939  0.5131 -0.0589  0.1281
21149W        W64243  23.552   4.273   9.610 -0.0492  0.1468  0.0166
21150W        W64244  23.270   7.223   8.741 -0.1708  0.1398  0.0627
21151W        W64245  24.566   6.470   7.366 -0.0081 -0.0736  0.0625
21152W        W64246  26.177   7.787   9.348  0.3267  0.2945  0.0585
21153W        W64247  23.660   6.872   8.421 -0.1868 -0.1849 -0.0731
21154W        W64248  25.511   3.986   9.515 -0.0005 -0.2804 -0.1761
21155W        W64249  20.539   7.031   9.925  0.1157 -0.2292 -0.3256
21156W        W64250  22.840   6.120   7.077 -0.2721 -0.2958 -0.0449
21157W        W64251  22.303   5.799   8.055  0.3119 -0.1058  0.1754
21158W        W64252  24.676   4.778   9.051  0.0388 -0.0880 -0.1438
21159W        W64253  24.809   4.759   7.603 -0.1660 -0.2032  0.2381
21160W        W64254  21.842   5.167   8.585 -0.2892 -0.1704 -0.0684
21161W        W64255  23.549   5.374  10.209 -0.1510  0.3896 -0.0687
21162W        W64256  23.424   7.425   9.177 -0.1366  0.2803  0.3764
21163W        W64257  23.495   4.559   8.338 -0.4158 -0.1702  0.0449
21164W        W64258  22.754   5.029   6.859 -0.1880  0.2826  0.0653
21165W        W64259  23.889   4.946   8.526 -0.2192  0.3664 -0.2634
21166W        W64260  21.866   5.429   8.177  0.1272 -0.0139  0.0465
21167W        W64261  22.731   5.724   9.710  0.1427  0.0392 -0.0120
21168W        W64262  22.617   7.122   8.854  0.0564  0.0485  0.1633
21169W        W64263  23.169   6.419   6.747  0.1308 -0.2658  0.0340
21170W        W64264  23.647   5.189   8.141  0.5325 -0.0477  0.0416
21171W        W64265  23.767   5.908   8.797 -0.1635 -0.1720  0.1551
21172W        W64266  23.226   5.846  10.058 -0.0583 -0.1142 -0.1105
21173W        W64267  23.237   3.813   7.656  0.0464  0.0282 -0.1337
21174W        W64268  22.032   6.239  10.205  0.1366  0.0317 -0.1660
21175W        W64269  26.678   4.129  10.263 -0.0828  0.0514  0.2169
21176W        W64270  23.917   5.221   9.430  0.3008  0.1466  0.2630
21177W        W64271  22.976   4.581   9.891 -0.1306  0.1698  0.0222
21178W        W64272  26.690   8.414   8.167  0.0762  0.1140  0.3171
21179W        W64273  22.211   6.744   6.941 -0.1438  0.0648  0.1815
21180W        W64274  20.690   5.158   9.631  0.2366 -0.0183 -0.1066
21181W        W64275  23.358   7.414   7.906 -0.0876 -0.0191  0.1287
21182W        W64276  20.947   5.087   9.201  0.0565 -0.1851  0.1924
21183W        W64277  22.825   7.121   9.594 -0.1791  0.0615  0.2575
21184W        W64278  23.365   6.130   7.826  0.0971 -0.0037 -0.0366
21185W        W64279  23.606   5.595   9.265  0.0702  0.2314  0.0262
21186W        W64280  24.662   3.659   7.825 -0.2514 -0.2443 -0.3828
21187W        W64281  24.096   5.945   7.765 -0.0282  0.2211  0.3477
21188W        W64282  21.416   5.092   9.413  0.0260  0.1418 -0.1859
21189W        W64283  25.068   4.985   7.995 -0.1849  0.0861  0.0177
21190W        W64284  22.780   6.374   9.964 -0.0959  0.0228 -0.1124
21191W        W64285  25.085   6.668   8.566  0.1407 -0.1765 -0.1740
21192W        W64286  22.570   4.468   8.725 -0.0555 -0.1566  0.0144
21193W        W64287  23.749   3.857   7.716 -0.4569 -0.3543  0.0379
21194W        W64288  24.696   7.305   8.515  0.3542  0.0762 -0.1053
21195W        W64289  24.519   5.946   8.974 -0.0167  0.1533  0.0696
21196W        W64290  23.318   6.675   7.657  0.1688  0.1574  0.2282
21197W        W64291  25.665   4.971   9.180 -0.0111  0.1754  0.0843
21198W        W64292  23.226   5.307   7.817  0.4710 -0.1961  0.1495
21199W        W64293  23.657   5.573   8.395 -0.0989  0.1793 -0.3034
21200W        W64294  23.344   6.486   8.220  0.1256 -0.1902  0.0998
21201W        W64295  23.155   6.370   8.653  0.1922  0.1521 -0.3153
21202W        W64296  25.121   6.248   8.948  0.1302 -0.0866  0.1482
21203W        W64297  24.583   6.200   9.567  0.0099 -0.1460 -0.0160
21204W        W64298  22.956   5.755  10.512 -0.4302  0.0348 -0.0266
21205W        W64299  27.389   5.446   7.149 -0.0230 -0.0066  0.0539
21206W        W64300  25.274   7.700   9.318  0.1685 -0.2540  0.0430
21207W        W64301  25.527   5.278   8.823  0.2086  0.2433 -0.0361
21208W        W64302  24.034   4.728   6.942  0.0374  0.0546 -0.1339
21209W        W64303  23.070   4.543   8.023 -0.0425 -0.3453  0.3797
21210W        W64304  23.782   4.530   7.363  0.2277 -0.0027 -0.1380
21211W        W64305  22.847   7.185   8.210 -0.0748 -0.1637 -0.1989
21212W        W64306  24.668   6.742   7.739 -0.2113  0.1700 -0.0449
21213W        W64307  25.208   5.798   8.682  0.0758 -0.0349  0.0090
21214W        W64308  21.352   3.445   9.907  0.0380 -0.0650  0.3004
21215W        W64309  22.396   5.422   7.070 -0.1911 -0.1491  0.3475
21216W        W64310  24.919   5.778   7.351 -0.0822  0.1060  0.4886
21217W        W64311  23.674   6.006   9.578 -0.1942  0.0157 -0.0341
21218W        W64312  23.377   4.163   8.050  0.1836 -0.1199  0.0621
21219W        W64313  21.729   6.794   9.042  0.1733  0.3363 -0.2778
21220W        W64314  22.406   6.113   9.557 -0.1911 -0.1387 -0.1204
21221W        W64315  21.913   8.518   9.582 -0.3073  0.0845  0.0008
21222W        W64316  24.011   6.727   8.969 -0.0921 -0.1042  0.2761
21223W        W64317  22.650   5.275   9.318  0.1008 -0.2087 -0.0131
21224W        W64318  23.509   6.765   8.885  0.1117  0.0586  0.4969
21225W        W64319  22.889   7.674   9.635  0.0573 -0.0595 -0.1860
21226W        W64320  22.948   6.418   9.121  0.1892  0.0018 -0.2368
21227W        W64321  26.228   4.604  10.058 -0.2000  0.2832 -0.2722
21228W        W64322  22.140   6.674   8.662 -0.1174 -0.0262 -0.1075
21229W        W64323  23.327   5.624   8.830 -0.0395 -0.3092 -0.0153
21230W        W64324  22.879   4.154   8.443 -0.1373 -0.0828 -0.0401
21231W        W64325  23.372   6.353   7.289 -0.0883  0.1176  0.0169
21232W        W64326  23.421   5.158   9.639  0.0923 -0.0437 -0.1397
21233W        W64327  22.007   8.107   9.102 -0.0984 -0.1159  0.0171
21234W        W64328  25.002   7.003   8.173  0.1281 -0.2874  0.1356
21235W        W64329  24.009   6.180   7.311 -0.2425  0.2522  0.1927
21236W        W64330  24.184   8.080   9.121 -0.0341  0.1613 -0.1096
21237W        W64331  22.754   6.239   6.477 -0.3638  0.3462  0.1515
21238W        W64332  22.108   7.735   9.416 -0.0667 -0.0153 -0.0359
21239W        W64333  21.258   6.720   9.168  0.0281 -0.0578  0.1649
21240W        W64334  23.861   6.298   8.066  0.0629  0.2922  0.0357
21241W        W64335  22.824   7.365  10.135  0.2023 -0.1322 -0.0481
21242W        W64336  26.041   4.365   7.765 -0.0462 -0.1145 -0.3204
21243W        W64337  24.987   5.171   9.324  0.2985  0.0088 -0.0600
21244W        W64338  25.776   3.564   8.587 -0.3616  0.0854 -0.3658
21245W        W64339  22.407   5.804   9.012  0.1237 -0.0474 -0.0472
21246W        W64340  22.893   5.312   7.382 -0.1751 -0.0173  0.2635
21247W        W64341  25.421   6.697   8.211  0.2036  0.1446  0.0737
21248W        W64342  22.552   4.562   7.030 -0.2157 -0.3747 -0.0020
21249W        W64343  23.718   5.866  10.143 -0.0791 -0.2564  0.1337
21250W        W64344  24.088   2.603   9.724 -0.1430  0.0624  0.2294
21251W        W64345  22.887   6.723   7.978  0.0072 -0.1046 -0.2622
21252W        W64346  23.300   6.044   9.164  0.2585 -0.1733 -0.1867
21253W        W64347  22.588   7.607   8.246  0.3096  0.2639  0.1622
21254W        W64348  22.807   8.376   8.984  0.1037  0.1711  0.0320
21255W        W64349  22.578   9.269   9.464 -0.2478  0.1531 -0.2347
21256W        W64350  22.395   5.560   7.581 -0.0536 -0.0974 -0.3543
21257W        W64351  26.713   4.124   8.827 -0.2309 -0.0250  0.1579
21258W        W64352  23.852   6.894   9.936 -0.1100 -0.1965 -0.0890
21259W        W64353  21.952   5.497   9.086  0.1366  0.1483 -0.0430
21260W        W64354  23.946   4.508   9.230 -0.3079 -0.0904  0.0129
21261W        W64355  23.299   6.654   9.470  0.2754 -0.3646  0.3245
21262W        W64356  22.239   5.595   9.463 -0.1872 -0.2389  0.0329
21263W        W64357  23.257   5.138   6.818  0.0999 -0.2175  0.2274
21264W        W64358  24.845   5.229   7.380 -0.1212  0.2164 -0.0743
21265W        W64359  22.893   4.070   9.582 -0.1825 -0.0577 -0.0171
21266W        W64360  23.812   5.076   7.245  0.0370 -0.0122  0.0717
21267W        W64361  22.151   6.123   8.736 -0.1009 -0.0912  0.0238
21268W        W64362  21.480   4.652   9.178  0.0763 -0.0966 -0.0707
21269W        W64363  22.511   3.836   8.721 -0.0433  0.1824  0.0122
21270W        W64364  24.590   5.202   7.874 -0.1422 -0.0593 -0.2026
21271W        W64365  24.356   6.248   8.120  0.0197  0.0527 -0.1709
21272W        W64366  23.291   7.774   8.800 -0.1532 -0.0313  0.0675
21273W        W64367  24.190   6.237   8.702 -0.0192 -0.2165  0.0155
21274W        W64368  26.628   6.363   9.544  0.0155  0.2106  0.2214
21275W        W64369  22.361   4.263   9.849  0.2391 -0.3650 -0.1040
21276W        W64370  24.692   5.695   9.401 -0.2396  0.1379 -0.3885
21277W        W64371  25.519   6.671   9.700 -0.0451  0.0403 -0.1284
21278W        W64372  22.774   4.428   9.223 -0.1534 -0.2438  0.1772
21279W        W64373  22.376   4.800   9.130  0.0874  0.1788  0.0134
21280W        W64374  23.009   6.917   9.111  0.0195 -0.0294 -0.1137
21281W        W64375  24.766   6.129   8.517 -0.1321 -0.1470  0.0426
21282W        W64376  23.383   8.490   7.285  0.3857 -0.1044  0.2692
21283W        W64377  22.377   8.402   8.623  0.0555 -0.0458 -0.1478
21284W        W64378  21.433   5.673   8.156 -0.0121 -0.0200 -0.1312
21285W        W64379  23.669   6.369   9.129 -0.2752 -0.0980  0.1661
21286W        W64380  22.166   7.716   8.445 -0.1310  0.2399 -0.2705
21287W        W64381  24.882   6.450   8.095  0.4547  0.0821  0.0644
21288W        W64382  22.671   5.511   8.369  0.1196 -0.2938 -0.2789
21289W        W64383  25.069   6.099   9.848  0.1377  0.2925 -0.1536
21290W        W64384  23.219   5.746   9.570 -0.2299  0.0043  0.0112
21291W        W64385  24.899   4.276   9.138 -0.1468 -0.0776  0.2247
21292W        W64386  24.618   4.406   8.727 -0.3224  0.1531 -0.0332
21293W        W64387  21.174   6.020   8.401 -0.0276 -0.1122  0.0785
21294W        W64388  21.394   5.806   7.062  0.1704 -0.1050  0.0840
21295W        W64389  21.491   6.863   7.487 -0.2026 -0.0599 -0.0001
21296W        W64390  22.848   5.704   9.220 -0.0025  0.0672  0.0673
21297W        W64391  22.700   5.008   8.502 -0.0501  0.3444 -0.1160
21298W        W64392  22.360   4.357   8.160 -0.1112 -0.3046  0.1414
21299W        W64393  25.224   6.236   8.359  0.3735  0.1812  0.1918
21300W        W64394  23.362   3.400   8.628  0.3037  0.4438  0.0987
21301W        W64395  22.244   5.078   8.266 -0.2038  0.0041  0.1246
21302W        W64396  24.061   5.897   8.275 -0.0215 -0.2396 -0.1414
21303W        W64397  24.971   5.514   7.733 -0.0760  0.2672 -0.2981
21304W        W64398  22.916   5.394   8.791  0.0474 -0.1670 -0.0364
21305W        W64399  21.104   5.634   8.724 -0.0051  0.1320 -0.1873
21306W        W64400  22.368   4.290   6.659 -0.1949  0.2999 -0.1687
21307W        W64401  23.796   5.411   8.842 -0.0327  0.4238  0.1198
21308W        W64402  24.482   7.282   9.065 -0.2744 -0.3964 -0.0117
21309W        W64403  25.108   6.514   6.852 -0.0286  0.0119 -0.1128
21310W        W64404  21.387   4.494   9.702 -0.1936  0.0483 -0.3571
21311W        W64405  24.325   5.149   7.373  0.2810 -0.0969  0.1245
21312W        W64406  25.662   6.187   8.072 -0.3040  0.1252  0.2006
21313W        W64407  26.659   3.720   9.640  0.1918 -0.0718 -0.2317
21314W        W64408  23.166   4.955   8.243  0.1232  0.2110  0.0046
21315W        W64409  24.225   5.674   9.646  0.0927 -0.1852 -0.2669
21316W        W64410  23.689   4.136   8.999 -0.0847 -0.0929 -0.1309
21317W        W64411  24.065   4.419   8.711 -0.2060  0.0482 -0.2044
21318W        W64412  24.860   7.223   7.684 -0.2825  0.0870 -0.1403
21319W        W64413  21.785   5.523   9.685 -0.0012  0.2951 -0.1603
21320W        W64414  24.316   4.620   7.659  0.1673  0.3045  0.0534
21321W        W64415  23.760   8.145   9.399  0.0117 -0.1040 -0.0402
21322W        W64416  23.186   5.503   8.289  0.3359 -0.3890  0.2439
21323W        W64417  25.664   6.026   8.527  0.5947 -0.0150  0.0585
21324W        W64418  24.923   7.616   8.940 -0.0618 -0.1373 -0.0494
21325W        W64419  24.323   6.443   9.207  0.2403 -0.0675 -0.0075
21326W        W64420  26.082   7.134  10.124  0.3907  0.3207  0.0434
21327W        W64421  22.265   5.869   9.936 -0.3227  0.0561 -0.1094
21328W        W64422  22.203   5.610   8.512  0.0901  0.1617  0.0101
21329W        W64423  23.480   4.807   7.843 -0.1355 -0.1659  0.1965
21330W        W64424  26.819   3.174   9.516  0.1071 -0.0813 -0.1967
21331W        W64425  20.025   6.048  10.115 -0.1386  0.0315 -0.0828
21332W        W64426  24.152   4.434   8.216 -0.3888  0.2243 -0.0846
21333W        W64427  23.075  10.929  11.977 -0.1153  0.1145 -0.0884
21334W        W64428  24.031   6.054   9.240  0.1839 -0.1184  0.0654
21335W        W64429  23.140   9.002   2.182 -0.0335  0.1492  0.5364
21336W        W64430  22.033   9.435   0.401  0.0385 -0.0559  0.1691
21337W        W64431  24.605   8.570  31.578  0.1266 -0.0476 -0.1736
21338W        W64432  25.206   9.167   1.960  0.0758  0.4413  0.1362
21339W        W64433  22.562   9.581   1.400  0.0485 -0.0796  0.2692
21340W        W64434  25.385  10.914   0.187  0.1497 -0.4881  0.3405
21341W        W64435  22.037   7.016   2.501 -0.2684 -0.0056 -0.1089
21342W        W64436  24.019  10.297   1.398 -0.2648 -0.1460  0.0547
21343W        W64437  25.354   9.694   2.557 -0.0676  0.0609 -0.0665
21344W        W64438  25.032   9.654  31.823 -0.3752  0.1877  0.3479
21345W        W64439  22.117   9.425   1.673 -0.0486 -0.1186  0.3089
21346W        W64440  22.526   9.450   3.470  0.0889  0.3890 -0.0740
21347W        W64441  24.566   8.933  30.718  0.0116  0.2036 -0.2285
21348W        W64442  21.658   6.835   1.489 -0.2057 -0.1318 -0.0766
21349W        W64443  24.100   9.546   0.802  0.1341  0.2017 -0.2278
21350W        W64444  22.418  10.833   0.707 -0.1642 -0.1479 -0.4911
21351W        W64445  21.081  10.340   2.659  0.0126 -0.1151 -0.0699
21352W        W64446  24.952   8.051   0.853  0.1981 -0.0182  0.1333
21353W        W64447  25.084   9.710   0.375 -0.1068  0.0462  0.2208
21354W        W64448  24.595   7.779   2.792  0.3848 -0.0762  0.0987
21355W        W64449  24.230   8.324   2.409 -0.2493  0.0567 -0.0399
21356W        W64450  23.705  11.221  31.974 -0.3475  0.0989 -0.2738
21357W        W64451  21.737   8.570   0.058  0.3147  0.2254 -0.4356
21358W        W64452  21.724  10.741   1.685  0.2277  0.1192  0.2732
21359W        W64453  22.556   9.136   2.502 -0.0455 -0.0501 -0.0118
21360W        W64454  24.259   8.497   1.312 -0.1429  0.2179  0.0859
21361W        W64455  25.548   8.404   2.302 -0.0546 -0.2882  0.0556
21362W        W64456  23.083  10.594   1.277 -0.1721 -0.2980  0.0691
21363W        W64457  23.228  10.664   2.598 -0.0489 -0.3308 -0.4672
21364W        W64458  24.719   8.268   2.649 -0.5310  0.2066 -0.0767
21365W        W64459  22.215   9.331   2.141 -0.0066  0.3613  0.3895
21366W        W64460  20.455  12.643   0.581  0.1918 -0.3259 -0.1496
21367W        W64461  22.885  10.426   0.818 -0.0707  0.0271 -0.0551
21368W        W64462  25.718   9.791   1.972  0.1953 -0.1204 -0.0368
21369W        W64463  24.061  10.375   2.332  0.1080  0.0486  0.3122
21370W        W64464  24.093  11.669   1.872 -0.1312 -0.0722 -0.0149
21371W        W64465  23.701  12.145   0.637  0.1993 -0.0712 -0.0112
21372W        W64466  23.234   9.615   2.849 -0.2613 -0.0570  0.2340
21373W        W64467  23.096   8.449   2.858 -0.4119 -0.0682 -0.2343
21374W        W64468  23.307   8.746   1.153  0.2907 -0.2130 -0.1170
21375W        W64469  23.701   9.252   1.042 -0.1390  0.4352  0.2033
21376W        W64470  22.651  12.516   1.250 -0.1721 -0.0313 -0.1302
21377W        W64471  23.862  10.454   0.625 -0.1658 -0.1698  0.0889
21378W        W64472  22.118  10.810   4.180  0.0923  0.0880 -0.0975
21379W        W64473  23.523  10.653   1.637  0.4173 -0.0699 -0.0080
21380W        W64474  24.963   8.298   4.657 -0.0066  0.0035  0.0682
21381W        W64475  22.346  10.219   0.671 -0.1249 -0.1515  0.4926
21382W        W64476  25.078   9.337   1.472  0.0784 -0.1873  0.1136
21383W        W64477  24.017   9.668   0.155 -0.1522 -0.2031 -0.3852
21384W        W64478  24.729   9.153   1.818  0.0408 -0.3302 -0.0329
21385W        W64479  24.778   7.490   0.867 -0.2847  0.2926 -0.3234
21386W        W64480  22.262  10.830   1.953  0.0467  0.0832  0.0185
21387W        W64481  22.708   8.804   2.991  0.0620  0.0716  0.0799
21388W        W64482  25.054   8.939   3.592 -0.0594  0.0437  0.0505
21389W        W64483  22.890   8.964   0.989  0.0075  0.0373  0.0733
21390W        W64484  24.352   8.712   2.711 -0.2027  0.1652  0.2094
21391W        W64485  23.596   8.165   1.930  0.1183  0.0430 -0.1226
21392W        W64486  21.685   9.279   1.937 -0.0731  0.2306 -0.2050
21393W        W64487  25.228   9.272   0.165  0.1098  0.1408  0.3436
21394W        W64488  25.424  11.444   1.705  0.2956 -0.2203 -0.2804
21395W        W64489  24.677  12.603  31.954 -0.2490  0.1805  0.0816
21396W        W64490  21.773  10.107   0.375  0.1375  0.0636 -0.0788
21397W        W64491  21.401   8.739   2.235  0.0071 -0.3094 -0.2288
21398W        W64492  22.434   8.436   3.819 -0.1659  0.3949  0.0295
21399W        W64493  23.837   7.156  31.980 -0.1756 -0.0510  0.2594
21400W        W64494  25.783   8.232   2.728 -0.2901  0.0195 -0.1385
21401W        W64495  22.302   9.138   3.796  0.1513 -0.1038  0.0353
21402W        W64496  26.420   8.203   1.064  0.1219  0.2406  0.1378
21403W        W64497  24.222   9.133   1.143 -0.0706 -0.1707  0.0176
21404W        W64498  23.331   9.000   3.025 -0.1980  0.3077  0.0059
21405W        W64499  26.363  11.810  31.820 -0.0996 -0.1817 -0.0136
21406W        W64500  24.580   8.458   0.846  0.0337 -0.1330  0.1599
21407W        W64501  24.735   7.214   2.612  0.0672 -0.0890 -0.0273
21408W        W64502  22.776  11.144   0.052 -0.2047  0.0435 -0.1177
21409W        W64503  23.058  11.527   0.087  0.2378  0.1562  0.1476
21410W        W64504  26.486  10.038   2.389  0.4023  0.2204  0.0654
21411W        W64505  24.408   9.788  31.835 -0.1685 -0.1243 -0.1962
21412W        W64506  21.927  11.174   1.848  0.0956 -0.0280  0.0309
21413W        W64507  23.949   8.689   4.306  0.1358 -0.0302  0.2352
21414W        W64508  23.425   9.254   1.533 -0.0730  0.1726 -0.2268
21415W        W64509  20.416  13.117   0.395 -0.1055  0.1816 -0.1357
21416W        W64510  21.900   8.850   2.127 -0.2491 -0.0850  0.4046
21417W        W64511  23.240  11.158  31.739 -0.2313  0.2112 -0.3277
21418W        W64512  23.273   9.836   2.408 -0.0665 -0.1650 -0.2005
21419W        W64513  23.245   9.241   0.801 -0.1694  0.1587 -0.0454
21420W        W64514  25.238   7.693   0.461  0.1052  0.1732 -0.0455
21421W        W64515  21.905   7.765   1.999 -0.1958  0.1773 -0.1623
21422W        W64516  24.892   7.743   1.240  0.1009  0.0764 -0.1665
21423W        W64517  22.431  11.293   1.727  0.1588 -0.0788 -0.1914
21424W        W64518  25.775  10.799   1.067 -0.1622  0.0995 -0.2541
21425W        W64519  24.865   8.947   0.337  0.1435  0.2920  0.2623
21426W        W64520  24.396  10.760   1.318  0.1224 -0.2951  0.2464
21427W        W64521  21.027  10.108   1.473  0.1508 -0.0383 -0.0100
21428W        W64522  22.033   9.884  31.613 -0.0539  0.3564 -0.1247
21429W        W64523  22.732   7.508   2.549 -0.2371 -0.1702 -0.1039
21430W        W64524  22.618   9.090   1.442 -0.0119  0.0268  0.1282
21431W        W64525  24.133   9.347   2.517 -0.3401  0.1034 -0.1830
21432W        W64526  22.774   6.819   0.098 -0.0972 -0.4431  0.3733
21433W        W64527  24.734   7.860   0.444 -0.1203  0.0090  0.2450
21434W        W64528  23.557   8.930  31.871  0.0665 -0.0492 -0.0023
21435W        W64529  21.867  10.986   0.557  0.2227  0.1136  0.3385
21436W        W64530  24.868   8.064   3.079  0.1588 -0.2852  0.0627
21437W        W64531  23.498  10.692   0.330  0.0076  0.1148  0.0813
21438W        W64532  24.316   9.256   3.328  0.0915 -0.1969 -0.0819
21439W        W64533  24.700  10.096   0.569 -0.0270  0.0026 -0.1222
21440W        W64534  21.926   7.296   1.815  0.2601 -0.2435  0.2234
21441W        W64535  23.946   7.322   0.998 -0.0561  0.1394 -0.0022
21442W        W64536  20.428  11.767   0.354  0.0301 -0.1039  0.2761
21443W        W64537  23.934  10.541  31.877  0.0412  0.1078 -0.2134
21444W        W64538  22.848   9.078   0.468 -0.1367 -0.3156  0.0338
21445W        W64539  24.633  10.854   0.812  0.2803 -0.0634  0.3315
21446W        W64540  24.464   9.824   1.086  0.1132 -0.0915 -0.1129
21447W        W64541  22.998  10.527   3.053  0.0206 -0.0261 -0.3383
21448W        W64542  24.170   7.245   3.305 -0.1479 -0.1134  0.2547
21449W        W64543  24.833   8.497   3.687 -0.2078 -0.1164 -0.1152
21450W        W64544  23.837   8.790   1.245 -0.1423  0.1169 -0.0091
21451W        W64545  22.372   6.804   1.162  0.2780  0.0421 -0.2804
21452W        W64546  23.408  10.175   1.366  0.0804 -0.2107 -0.0880
21453W        W64547  21.933  11.520   0.290 -0.0588  0.0247  0.0198
21454W        W64548  20.460   9.737   0.872 -0.0074  0.3541  0.1642
21455W        W64549  23.445  11.026   1.231 -0.1071  0.2190  0.1257
21456W        W64550  25.303   7.475   1.049 -0.1759 -0.0795  0.1947
21457W        W64551  21.432   9.439   3.544 -0.1425  0.0467 -0.0048
21458W        W64552  24.051   8.940   2.232  0.0242 -0.0324 -0.0303
21459W        W64553  21.692   9.662   0.690 -0.3330  0.2715 -0.0714
21460W        W64554  22.127  10.074   2.856 -0.0669 -0.0748  0.0948
21461W        W64555  25.004   7.033  31.853 -0.0063 -0.0552  0.0807
21462W        W64556  24.274   8.159   0.572  0.0695 -0.3447  0.0669
21463W        W64557  23.383   8.769   2.547  0.1932  0.0896 -0.1676
21464W        W64558  23.037  10.846   0.461  0.2068 -0.0444  0.1915
21465W        W64559  23.401   9.226  31.451 -0.1580 -0.0182 -0.0156
21466W        W64560  23.994   8.192   0.975  0.1723 -0.1590  0.1873
21467W        W64561  22.168  10.177   2.335 -0.0174  0.1715  0.3179
21468W        W64562  24.305  10.268   0.051  0.0100 -0.0603  0.1449
21469W        W64563  23.610   9.677   1.269 -0.1842 -0.2445  0.0996
21470W        W64564  23.897   8.285  31.344 -0.2775  0.1836 -0.0960
21471W        W64565  25.628   9.379   0.438 -0.0217 -0.3932  0.2179
21472W        W64566  21.794   8.725   2.645 -0.0506 -0.0154 -0.1622
21473W        W64567  23.596   9.600   4.046  0.0235  0.1321 -0.0430
21474W        W64568  24.661  10.298   1.239 -0.3645 -0.2128 -0.0920
21475W        W64569  23.191   8.377   1.534 -0.0314  0.2143  0.0157
21476W        W64570  22.231   9.908   0.182 -0.0815  0.3027  0.1426
21477W        W64571  23.296   7.485   1.978  0.0599 -0.2435  0.1656
21478W        W64572  20.974  10.586   0.729 -0.1891 -0.2385 -0.1685
21479W        W64573  24.781   6.722   2.494 -0.4210  0.0707 -0.0280
21480W        W64574  22.928   7.202   2.227  0.0518 -0.1073  0.1328
21481W        W64575  23.276   8.539   2.095  0.0236  0.0888  0.2087
21482W        W64576  25.350   8.821   4.137  0.1763  0.0111  0.1024
21483W        W64577  23.805  10.159   0.251  0.4162 -0.0799  0.0948
21484W        W64578  22.065   8.225   1.241 -0.0308 -0.0410 -0.0525
21485W        W64579  22.581   9.740  31.724  0.0921 -0.3873  0.0583
21486W        W64580  23.517   7.816   2.807  0.1463  0.0539  0.1087
21487W        W64581  21.858  10.671   3.756 -0.2031 -0.2391  0.0306
21488W        W64582  22.673   9.010   2.002 -0.1105  0.1167  0.2030
21489W        W64583  24.068  10.135   3.013 -0.3247  0.1206  0.0242
21490W        W64584  24.591   8.984   0.823 -0.1971  0.0609  0.0279
21491W        W64585  23.284   9.575   3.556 -0.0066  0.2994 -0.2063
21492W        W64586  23.369   8.431   0.022 -0.1103  0.1625 -0.1431
21493W        W64587  23.518  10.788  31.773 -0.2603  0.3425  0.3699
21494W        W64588  22.742   9.699  31.248 -0.3885 -0.1560 -0.0981
21495W        W64589  22.675   5.774   1.190 -0.0149 -0.1202 -0.3770
21496W        W64590  23.832   8.741   2.701  0.0855 -0.3124 -0.2120
21497W        W64591  24.998  10.706  31.947 -0.0568 -0.0724  0.2226
21498W        W64592  24.099   8.932   3.754 -0.0148  0.0102 -0.1669
21499W        W64593  22.705  10.747   1.651 -0.0503 -0.0213  0.0644
21500W        W64594  25.312   6.171   0.980 -0.0528  0.1520  0.2091
21501W        W64595  21.713   9.143   0.118 -0.0448  0.2380 -0.1223
21502W        W64596  21.488   9.579  30.617 -0.2294  0.1752  0.0811
21503W        W64597  22.824   7.627   1.697 -0.2848  0.5738  0.0545
21504W        W64598  23.821   8.120   0.179  0.2912 -0.0577  0.2685
21505W        W64599  24.249   9.179  31.892 -0.1808  0.0536  0.1405
21506W        W64600  20.897   8.392   2.154  0.0945 -0.2205  0.3072
21507W        W64601  22.577   7.871   2.039 -0.3594  0.0622  0.1108
21508W        W64602  22.864  11.260   2.002 -0.0190  0.1883  0.2339
21509W        W64603  24.243   7.311   2.754  0.0144 -0.0229  0.1042
21510W        W64604  24.988   8.740  31.837 -0.0961 -0.1834 -0.2152
21511W        W64605  24.730   9.759   1.982 -0.1903 -0.0403 -0.0263
21512W        W64606  23.081  10.809   2.020 -0.1813 -0.0181  0.0423
21513W        W64607  22.204  10.583   0.325 -0.0781  0.0587  0.2738
21514W        W64608  25.128   8.664   2.171 -0.5774  0.2852 -0.0701
21515W        W64609  23.200   9.081   3.538  0.1802 -0.1083  0.0452
21516W        W64610  21.461  10.126  31.919 -0.0288  0.1467 -0.1491
21517W        W64611  25.206   8.852   1.555 -0.1580  0.0714 -0.1901
21518W        W64612  23.164  10.249   0.357 -0.0180  0.0137  0.1288
21519W        W64613  23.571  10.076   0.669 -0.0898  0.2782  0.1075
21520W        W64614  22.035   7.474   2.885  0.2546  0.0494 -0.1359
21521W        W64615  24.089   9.571   1.330 -0.0443 -0.0674 -0.0753
21522W        W64616  22.109   9.118   2.662 -0.2700 -0.0428  0.0920
21523W        W64617  21.382   8.679   0.464 -0.2484  0.0494 -0.1118
21524W        W64618  21.864  10.157   1.853  0.2585  0.2402  0.0188
21525W        W64619  23.707   9.826   2.857  0.1545  0.0650  0.2525
21526W        W64620  23.934   9.246   4.166 -0.2219 -0.0764 -0.0087
21527W        W64621  23.269  10.660   3.461 -0.0551 -0.1012 -0.3195
21528W        W64622  22.426   7.236   1.936  0.1851  0.0983 -0.3677
21529W        W64623  25.708  10.303   1.181  0.0829 -0.0462  0.1652
21530W        W64624  26.038   9.059   3.045 -0.5732  0.1634  0.1759
21531W        W64625  22.874  10.956   1.018 -0.1439 -0.0154  0.0154
21532W        W64626  22.177  10.862   1.448  0.0625  0.0338 -0.0209
21533W        W64627  23.272  11.351   0.840  0.0415 -0.0155 -0.1855
21534W        W64628  24.389   7.760   2.324 -0.0814  0.1502 -0.3419
21535W        W64629  21.421   9.015   1.069 -0.3095 -0.1667  0.2813
21536W        W64630  23.040  11.879   0.556  0.1344  0.1706  0.0659
21537W        W64631  22.594  10.088   2.956  0.1392  0.1814  0.1981
21538W        W64632  25.067   7.765  31.960  0.0655 -0.1772  0.1156
21539W        W64633  24.017  11.658   0.177  0.1926  0.0857 -0.0955
21540W        W64634  22.847   8.674   2.472 -0.1478  0.1308  0.1013
21541W        W64635  24.553   9.214   2.275 -0.2141  0.1013 -0.0978
21542W        W64636  23.852   9.997  31.697 -0.2136  0.1934 -0.2586
21543W        W64637  23.275   7.178   2.595  0.1554 -0.1320 -0.1519
21544W        W64638  22.647   7.278   1.388  0.2261  0.2412 -0.1305
21545W        W64639  26.183   9.631   2.213 -0.0933 -0.3530  0.1916
21546W        W64640  22.581   7.830   2.947  0.3148 -0.1467 -0.0746
21547W        W64641  24.388   9.765   3.571 -0.1144 -0.0908  0.1343
21548W        W64642  21.130   9.733   5.202 -0.1688  0.0436  0.1984
21549W        W64643  22.538   8.628   0.715 -0.1025 -0.0464 -0.5380
21550W        W64644  22.965   7.895   1.187  0.0619  0.2441 -0.0367
21551W        W64645  23.796  10.608   1.066  0.2361 -0.0286 -0.0846
21552W        W64646  24.799  10.570   0.382  0.3884  0.1209  0.2496
21553W        W64647  23.960  10.906   0.250  0.0423 -0.3027  0.1108
21554W        W64648  24.702   7.035   2.113 -0.4066  0.4297 -0.0430
21555W        W64649  22.732   9.550   2.734  0.0129 -0.1221 -0.1319
21556W        W64650  23.830   9.216   0.183 -0.0053  0.4805  0.0873
21557W        W64651  24.947  11.074   0.413 -0.1352  0.0513 -0.0105
21558W        W64652  22.707   9.946   0.540 -0.0190 -0.0926  0.3890
21559W        W64653  22.788   8.307   3.197 -0.0817  0.0707 -0.0900
21560W        W64654  24.397   9.509   1.693  0.1910  0.1600  0.1937
21561W        W64655  23.901   7.902   2.342 -0.0152  0.0175  0.0174
21562W        W64656  24.847   8.531   1.791 -0.2118 -0.0511 -0.2766
21563W        W64657  24.552   8.718   2.104  0.1635 -0.1190 -0.1030
21564W        W64658  23.625   9.355   2.644  0.6217 -0.0843  0.1264
21565W        W64659  21.820   9.040   1.404 -0.2712 -0.0524  0.0497
21566W        W64660  23.395   9.993   3.184 -0.1111  0.1457  0.1105
21567W        W64661  25.251   7.278   0.221  0.0189 -0.0352 -0.1350
21568W        W64662  24.642   8.513   3.205 -0.2136 -0.1878  0.0889
21569W        W64663  25.116   8.617   0.674 -0.1477  0.0500  0.0144
21570W        W64664  24.413   8.146  31.443  0.4282 -0.0309  0.2792
21571W        W64665  21.496   9.786   1.844  0.0557  0.0246 -0.2277
21572W        W64666  25.578   8.833   3.670  0.1077 -0.3233 -0.0799
21573W        W64667  22.940   8.831   0.067  0.0364  0.1307 -0.1528
21574W        W64668  25.123   7.985   2.454  0.0455 -0.2831  0.0736
21575W        W64669  24.068  11.297   0.538 -0.0793 -0.2390 -0.1853
21576W        W64670  24.126   8.663   1.760 -0.0059 -0.0540 -0.0699
21577W        W64671  23.430   9.406   2.170 -0.0501 -0.0264  0.3596
21578W        W64672  21.182   9.219   1.974 -0.2472  0.3333 -0.0032
21579W        W64673  23.063   9.221   2.657  0.0601 -0.0986  0.1999
21580W        W64674  23.895   9.359  31.237 -0.1466 -0.4056  0.2041
21581W        W64675  24.303  10.572   0.434 -0.2445  0.1722 -0.1349
21582W        W64676  25.099   9.365   2.822 -0.2041 -0.5277 -0.0136
21583W        W64677  25.933   9.685   3.831 -0.0342  0.0938 -0.2338
21584W        W64678  23.442   8.236   1.115 -0.2097 -0.0489  0.0042
21585W        W64679  25.613   9.342   3.803  0.2080 -0.2327 -0.0498
21586W        W64680  22.073  10.340   1.429  0.1430  0.2271  0.1933
21587W        W64681  22.235   8.193   1.689 -0.0777 -0.1279 -0.2877
21588W        W64682  23.150  10.306   2.273 -0.0018 -0.1603 -0.2064
21589W        W64683  20.854   8.978   2.381  0.2349  0.1687 -0.1418
21590W        W64684  22.676  10.006   1.075 -0.0162  0.1003 -0.1749
21591W        W64685  23.806   7.702   1.809 -0.0579 -0.3347 -0.5106
21592W        W64686  23.752   8.947   0.682 -0.1824  0.0814 -0.1000
21593W        W64687  22.540   9.446   0.293 -0.0956  0.3468  0.2580
21594W        W64688  25.854   8.364   4.413 -0.1779  0.0518 -0.1077
21595W        W64689  23.535   8.512   3.075 -0.3554 -0.3157 -0.3050
21596W        W64690  22.152   9.888   1.276 -0.0967  0.0634  0.3088
21597W        W64691  23.062  10.070   2.826  0.2180  0.6487  0.0156
21598W        W64692  24.339   9.918   2.647 -0.1280  0.1641  0.1057
21599W        W64693  22.960   9.839   1.471  0.1917  0.0364 -0.3759
21600W        W64694  21.071   8.804   1.409  0.0717 -0.1359 -0.4235
21601W        W64695  24.070   8.700   3.149 -0.1723  0.1307 -0.0158
21602W        W64696  23.914   9.453   2.032 -0.0430  0.0716 -0.2635
21603W        W64697  22.875   8.390   1.084 -0.1069  0.3637 -0.0142
21604W        W64698  24.024  10.663  29.582  0.0338  0.1683  0.1601
21605W        W64699  21.997  10.240   3.328 -0.3284 -0.1037  0.0151
21606W        W64700  22.697  11.731   1.435  0.1179  0.0202 -0.0023
21607W        W64701  21.769  12.311   1.278 -0.1628  0.0287  0.1565
21608W        W64702  25.224  10.292   0.375  0.0054 -0.0395 -0.3510
21609W        W64703  25.816  10.777  31.931 -0.0372  0.2479 -0.1048
21610W        W64704  24.873  10.222   1.677 -0.1433  0.2386  0.1032
21611W        W64705  23.798   7.660   0.549  0.1225 -0.1382  0.1012
21612W        W64706  23.138  10.383   1.767  0.3412 -0.1746  0.2159
21613W        W64707  21.004   9.040   0.789  0.1092 -0.1189 -0.2289
21614W        W64708  24.117  10.831   0.814  0.1995  0.0981 -0.4345
21615W        W64709  21.544  11.571   3.071  0.3321  0.0998  0.0849
21616W        W64710  24.832   9.818   2.690  0.0925  0.0231 -0.2731
21617W        W64711  24.773   7.387   0.259  0.4014  0.0557 -0.0917
21618W        W64712  23.801   8.223   2.759 -0.2894  0.0175 -0.0434
21619W        W64713  25.718   8.974   1.625 -0.1507  0.1215 -0.4767
21620W        W64714  23.825   8.936   4.752  0.1145  0.3215  0.2219
21621W        W64715  22.673   8.596   1.500 -0.0134  0.0788  0.2410
21622W        W64716  23.766   9.449  31.757 -0.2317  0.2707  0.0766
21623W        W64717  23.177   7.701   3.781  0.0058  0.0915 -0.1127
21624W        W64718  25.272   6.758   1.676 -0.0876  0.2722  0.0204
21625W        W64719  21.942  11.430   2.641 -0.1041 -0.2192  0.1513
21626W        W64720  25.177  11.107  31.517  0.0847 -0.3257 -0.1506
21627W        W64721  21.995   8.839   0.425  0.2542  0.2025 -0.0644
21628W        W64722  21.355  10.285  31.468  0.0272  0.1830 -0.0913
21629W        W64723  25.953   8.598   1.440  0.3860  0.0503 -0.1863
21630W        W64724  24.448  11.005   0.379  0.0385 -0.0383  0.2615
21631W        W64725  24.308   7.785   1.671  0.1561 -0.1116 -0.2208
21632W        W64726  21.493  11.710   2.518 -0.1674 -0.0047 -0.0867
21633W        W64727  22.707   9.951   2.412 -0.2583 -0.0929  0.0310
21634W        W64728  23.647  11.444   1.508  0.0620  0.1894  0.0827
21635W        W64729  20.290   7.366   0.774  0.0372  0.0795  0.1170
21636W        W64730  25.504   8.667   1.138 -0.1276  0.0779  0.1242
21637W        W64731  22.663   8.885   3.501  0.1735  0.3209 -0.1026
21638W        W64732  24.793   7.706   1.742 -0.1952  0.3179 -0.1389
21639W        W64733  22.543   8.135   0.721 -0.0508 -0.1364 -0.1929
21640W        W64734  26.139   7.611   0.384  0.1466  0.1002  0.3145
21641W        W64735  25.145   8.123   1.807  0.2962  0.0399 -0.2978
21642W        W64736  21.972   8.273   2.600  0.1775  0.0326 -0.1883
21643W        W64737  23.270   9.680  31.663  0.0976  0.0714 -0.0213
21644W        W64738  24.308   9.845   2.162  0.1427 -0.2760 -0.1258
21645W        W64739  24.558   8.539  31.105  0.0068 -0.1462  0.0400
21646W        W64740  24.678   9.651   4.078 -0.1546 -0.2764  0.0669
21647W        W64741  21.582   7.930   0.975  0.0851  0.0425  0.1864
21648W        W64742  23.192   8.782  31.076  0.1963 -0.4739  0.2092
21649W        W64743  22.150   8.198   2.162 -0.2915 -0.2391  0.0171
21650W        W64744  22.577   8.851   4.056  0.3336 -0.1829 -0.1934
21651W        W64745  25.318  10.420   3.765  0.0643  0.0996  0.0317
21652W        W64746  21.657   8.379   2.009  0.1740  0.0707  0.0843
21653W        W64747  25.694  11.286  31.972  0.3023 -0.0947  0.2610
21654W        W64748  25.500   8.112   0.872 -0.0165  0.0799 -0.0354
21655W        W64749  23.990  10.645   1.813 -0.0482  0.1283 -0.1731
21656W        W64750  24.693   9.389   1.128  0.0490 -0.0157  0.2839
21657W        W64751  25.248  12.392   0.401  0.2440 -0.0279  0.1121
21658W        W64752  22.248   7.630   1.647 -0.2599 -0.0304 -0.2421
21659W        W64753  23.950   9.944   1.773  0.3681 -0.0909  0.3055
21660W        W64754  24.996   9.479   2.276 -0.4360  0.1630  0.2653
21661W        W64755  23.634   8.613   1.640  0.3100  0.2888  0.2456
21662W        W64756  23.192   9.760   0.828  0.2616  0.1956 -0.1192
21663W        W64757  22.650  10.385   2.095  0.1859  0.2666 -0.3794
21664W        W64758  25.393   8.009   2.943  0.0097 -0.2333 -0.0327
21665W        W64759  23.310   8.156   2.432 -0.2162  0.0602  0.1358
21666W        W64760  22.824  11.595   0.909 -0.1498 -0.1259  0.1100
21667W        W64761  24.562   7.392   3.094 -0.3539 -0.1584 -0.0856
21668W        W64762  22.327   7.897   2.519  0.0789  0.1105 -0.1463
21669W        W64763  22.765  10.399   2.603  0.0752  0.3125  0.0958
21670W        W64764  21.589   9.842  31.535  0.1613 -0.0603  0.2721
21671W        W64765  22.781   8.450   1.983 -0.1845  0.0581  0.1182
21672W        W64766  20.938  11.454   0.374 -0.0584 -0.2670 -0.0254
21673W        W64767  24.870  10.705   1.486  0.1947  0.0319  0.1830
21674W        W64768  25.368  10.067   1.745  0.1727 -0.4436 -0.0325
21675W        W64769  23.318   7.887   1.569  0.2789  0.1436 -0.0235
21676W        W64770  23.820   9.854   2.405 -0.2615  0.3002  0.1012
21677W        W64771  23.079   8.894   1.620 -0.0107 -0.1428  0.3479
21678W        W64772  23.843   8.477  31.774 -0.0744 -0.0622  0.2677
21679W        W64773  24.373   7.343   1.872  0.2901  0.1401  0.2048
21680W        W64774  23.520  10.329   3.987  0.4080  0.2350 -0.3764
21681W        W64775  21.766   8.605   0.897  0.1224 -0.3810 -0.0511
21682W        W64776  22.370  10.729  31.847  0.1094 -0.2070  0.1811
21683W        W64777  23.456   9.700   1.756 -0.1358  0.1389  0.1200
21684W        W64778  22.187   7.424   2.315 -0.2552 -0.0168  0.0447
21685W        W64779  22.336   7.999   4.013 -0.0770  0.3019 -0.3038
21686W        W64780  22.509  10.077   1.668  0.6015 -0.2652 -0.2774
21687W        W64781  23.748   8.684   0.283  0.1077  0.2765 -0.0199
21688W        W64782  25.791   9.668   1.121 -0.0850  0.0492 -0.0067
21689W        W64783  22.395   6.730   2.046 -0.1117 -0.1988  0.2400
21690W        W64784  22.201   8.935   1.760  0.1540 -0.2337 -0.0912
21691W        W64785  23.360  10.560   0.844  0.3649  0.1173 -0.4146
21692W        W64786  24.294  10.954   2.823 -0.0979 -0.0233  0.1271
21693W        W64787  22.185   9.318   1.185  0.3924  0.0086  0.0167
21694W        W64788  24.815  10.242   2.980  0.1686 -0.0336 -0.0517
21695W        W64789  22.346  10.617  31.206 -0.4705  0.2159  0.0746
21696W        W64790  24.553   8.195   4.415  0.0049 -0.0080 -0.0192
21697W        W64791  24.814   9.042   4.031 -0.3224 -0.0820  0.0660
21698W        W64792  20.818   6.440   0.974 -0.1167  0.1675  0.1582
21699W        W64793  22.767   8.160   2.366  0.0630  0.3308 -0.0463
21700W        W64794  23.642  10.997   0.708  0.2056  0.1403 -0.2653
21701W        W64795  25.291  10.846   0.916  0.2946  0.2195  0.0899
21702W        W64796  23.014   9.884   1.996  0.2546 -0.0713  0.0573
21703W        W64797  23.174  12.084   1.428  0.0076  0.0181  0.0558
21704W        W64798  21.149   7.063   2.397  0.2535 -0.0766  0.2304
21705W        W64799  24.401   9.986   1.651 -0.2987 -0.0571 -0.0072
21706W        W64800  23.869   9.417   3.554 -0.3674  0.2982 -0.0313
21707W        W64801  23.555  10.142   2.033  0.0590 -0.3260 -0.0051
21708W        W64802  25.160   7.053   2.375  0.1192  0.0953  0.0380
21709W        W64803  23.915  10.026   0.998  0.0799 -0.0904  0.1689
21710W        W64804  22.746   8.209   4.187  0.0723 -0.2856 -0.1730
21711W        W64805  22.308   9.878   3.755  0.1185  0.1665 -0.0168
21712W        W64806  25.499   8.497   1.811 -0.1100  0.2453 -0.1553
21713W        W64807  22.845   7.635   0.792  0.0891  0.0773  0.1957
21714W        W64808  24.714   8.500   0.232  0.0978  0.0546  0.0562
21715W        W64809  25.605  10.200   0.028 -0.0196  0.2722  0.0514
21716W        W64810  21.674   9.620   1.235 -0.2961 -0.2855 -0.0938
21717W        W64811  24.856   8.166  31.819 -0.1860 -0.4682  0.0817
21718W        W64812  23.940   9.153   1.617 -0.0292  0.2126 -0.1732
21719W        W64813  24.169  10.039   0.530 -0.2905 -0.3420  0.0936
21720W        W64814  24.537   9.368   2.818 -0.0571 -0.1819 -0.0875
21721W        W64815  23.155   8.693   0.644 -0.2910  0.0269  0.1085
21722W        W64816  25.573   7.373   0.669  0.2084 -0.0301  0.0073
21723W        W64817  24.615  10.236   2.259  0.2405  0.1897  0.0478
21724W        W64818  24.744  11.081   4.520  0.3251 -0.1167 -0.0653
21725W        W64819  23.410  10.948   2.951 -0.3835 -0.0902  0.1424
21726W        W64820  25.817   7.520  31.569  0.1136 -0.0720  0.0288
21727W        W64821  21.429   6.441   1.902 -0.4842 -0.3579 -0.3922
21728W        W64822  22.966   9.351   1.731 -0.5423 -0.0672  0.3883
21729W        W64823  21.900  10.312  31.367  0.1260 -0.0734 -0.2273
21730W        W64824  23.851   8.168   1.478 -0.2245 -0.0012  0.0319
21731W        W64825  21.931   7.754   1.298 -0.1024 -0.3244 -0.1142
21732W        W64826  24.104   7.864  31.166  0.1776  0.1829 -0.0964
21733W        W64827  22.726  10.903   2.399  0.1455  0.1277 -0.3580
21734W        W64828  25.321   8.115   1.367  0.0326 -0.1954  0.0222
21735W        W64829  23.774   9.229   6.989  0.3506  0.3200 -0.6617
21736W        W64830  23.374   7.583   3.328  0.1371 -0.0071 -0.0014
21737W        W64831  23.288   8.496   3.544 -0.2359  0.1123 -0.1449
21738W        W64832  25.280   8.543   5.034 -0.0694  0.4286  0.0360
21739W        W64833  20.875   9.264   4.290  0.1735 -0.1671 -0.0424
21740W        W64834  23.704  11.156   5.526  0.1590 -0.2720 -0.1037
21741W        W64835  20.035   7.603   6.727 -0.0732  0.0572 -0.2772
21742W        W64836  23.724   9.759   6.371  0.0043  0.2688 -0.1696
21743W        W64837  24.514  10.766   4.827  0.0015  0.3068 -0.0607
21744W        W64838  24.310   9.025   4.972 -0.1184 -0.0292 -0.1045
21745W        W64839  23.438   7.575   5.371 -0.1388  0.1555 -0.3234
21746W        W64840  22.084  10.278   5.616  0.1479 -0.1743  0.0960
21747W        W64841  22.444   6.253   4.389 -0.1193  0.2302 -0.3357
21748W        W64842  22.986   8.266   5.441 -0.1496  0.3568  0.0131
21749W        W64843  24.308   9.178   6.047 -0.1934 -0.1510  0.0314
21750W        W64844  21.561   8.949   4.891  0.0191  0.1867 -0.2757
21751W        W64845  22.049   9.413   5.677  0.1442 -0.3015 -0.0126
21752W        W64846  23.358   9.538   4.474  0.4362  0.2033 -0.1302
21753W        W64847  23.074  11.224   5.308  0.2407 -0.0921 -0.1029
21754W        W64848  22.014   8.274   6.900  0.0656 -0.2039 -0.0100
21755W        W64849  23.745   8.380   6.942  0.1399  0.1531  0.4231
21756W        W64850  21.628  10.584   4.258 -0.0498  0.4182  0.0002
21757W        W64851  22.303   9.457   5.230 -0.4672 -0.1439 -0.1427
21758W        W64852  21.538   9.445   4.985 -0.1371  0.3220 -0.0715
21759W        W64853  22.337  10.070   4.740 -0.1082  0.1288 -0.1636
21760W        W64854  23.829   7.234   5.297  0.0351  0.2283  0.0835
21761W        W64855  24.685   8.174   5.272  0.2453  0.1724  0.3249
21762W        W64856  23.471  11.370   4.919  0.5111 -0.2234 -0.3473
21763W        W64857  22.885  10.807   6.579  0.1196  0.3427 -0.1996
21764W        W64858  26.667  10.529   6.434 -0.0845 -0.0400  0.0647
21765W        W64859  22.228   8.596   4.930  0.2428  0.1014 -0.3239
21766W        W64860  20.150  12.372   4.539 -0.0955  0.2451 -0.3046
21767W        W64861  22.384  10.986   4.606  0.2620 -0.4913  0.5082
21768W        W64862  24.385  10.120   5.189 -0.0587 -0.0278  0.0254
21769W        W64863  24.228  10.662   7.057  0.0072 -0.1617 -0.0953
21770W        W64864  23.350  10.042   6.168  0.2887  0.2301 -0.0284
21771W        W64865  21.899  10.645   4.681  0.2699  0.1238 -0.0361
21772W        W64866  23.692  10.609   6.936  0.1137  0.2955 -0.0623
21773W        W64867  23.428   9.752   5.183  0.1282  0.0576 -0.1891
21774W        W64868  23.213   8.356   4.916  0.0976  0.1993  0.2324
21775W        W64869  22.822  10.338   4.912 -0.0937 -0.0147 -0.1599
21776W        W64870  21.736  10.049   4.668 -0.2839  0.2098  0.2406
21777W        W64871  22.964  10.574   3.956 -0.2220  0.0334 -0.2274
21778W        W64872  23.314  10.323   6.608  0.3641  0.2747 -0.1942
21779W        W64873  20.496  10.856   4.750 -0.2362 -0.0215  0.1184
21780W        W64874  26.472   7.699   7.696  0.2278 -0.0099  0.1537
21781W        W64875  22.846   9.693   3.753  0.0351 -0.0974  0.3668
21782W        W64876  24.753   9.392   3.614 -0.0451 -0.0962 -0.2532
21783W        W64877  24.013   8.061   3.759 -0.1014 -0.2068 -0.0797
21784W        W64878  25.351   8.217   4.331 -0.2627  0.0872 -0.3047
21785W        W64879  25.152   6.512   5.378  0.0448 -0.0167  0.2641
21786W        W64880  22.081  11.021   5.052 -0.2297  0.1648  0.0261
21787W        W64881  22.084   8.842   4.145  0.0226 -0.1644  0.1000
21788W        W64882  22.782  10.433   6.857 -0.4481 -0.0299 -0.0288
21789W        W64883  23.602   9.016   3.875 -0.4407 -0.2513  0.1777
21790W        W64884  23.876   9.661   5.528 -0.1108  0.0813 -0.0317
21791W        W64885  22.119  11.569   6.902 -0.2389  0.1737 -0.0329
21792W        W64886  20.948  10.028   4.788  0.0790  0.1292 -0.1139
21793W        W64887  24.775  11.173   2.623  0.1362 -0.2257 -0.3377
21794W        W64888  26.059   9.886   4.665 -0.3247  0.0352  0.2451
21795W        W64889  24.583  10.490   3.900 -0.1131 -0.0039 -0.1116
21796W        W64890  21.726   8.406   3.056  0.0430 -0.2804  0.0196
21797W        W64891  20.507   9.596   7.196  0.1536  0.2624  0.1621
21798W        W64892  22.705   9.522   6.691 -0.0038  0.1579 -0.1074
21799W        W64893  23.010   7.474   2.988 -0.2337 -0.0760  0.2153
21800W        W64894  24.054  10.128   7.778 -0.4825 -0.2388 -0.0375
21801W        W64895  21.688  10.746   6.907  0.0288 -0.0690  0.1159
21802W        W64896  24.887   7.934   6.122 -0.2319  0.1407  0.3656
21803W        W64897  22.561   8.557   5.451  0.0095  0.1697  0.3567
21804W        W64898  24.302  10.009   7.332 -0.0926  0.1045 -0.0452
21805W        W64899  25.202  10.228   3.348 -0.1000 -0.1728  0.1507
21806W        W64900  23.963   7.196   4.765  0.1807 -0.0540  0.1990
21807W        W64901  24.176   7.586   6.866 -0.2043 -0.1923  0.0201
21808W        W64902  22.638  10.100   4.013  0.1118  0.1370  0.1420
21809W        W64903  21.403  10.412   3.835  0.1114 -0.1366  0.1745
21810W        W64904  24.794  10.004   7.098  0.0381 -0.0895  0.2074
21811W        W64905  25.170   9.387   3.877 -0.1458  0.0245 -0.5445
21812W        W64906  21.901  11.143   5.737  0.0454  0.0509 -0.0513
21813W        W64907  22.800   8.558   5.924  0.1795 -0.0577  0.0387
21814W        W64908  24.790  10.332   7.575  0.0732  0.0409 -0.0164
21815W        W64909  22.396  11.290   3.746  0.1388  0.0209 -0.5284
21816W        W64910  20.626  10.866   6.026 -0.0059 -0.0951  0.1714
21817W        W64911  22.645  10.266   3.387 -0.1229 -0.1260 -0.0945
21818W        W64912  22.538   8.089   5.220  0.0426  0.0621 -0.0694
21819W        W64913  21.783  10.719   5.568  0.2109 -0.1711 -0.0166
21820W        W64914  25.493   8.756   5.844  0.1215 -0.0452  0.1026
21821W        W64915  23.435   8.061   5.483 -0.1980  0.0699  0.1061
21822W        W64916  25.484   8.300   5.485  0.0909  0.2483 -0.0030
21823W        W64917  20.899  11.259   4.748 -0.0315  0.2776 -0.1392
21824W        W64918  25.417  10.852   4.515  0.0693  0.1350 -0.0914
21825W        W64919  25.396   9.846   4.037 -0.0914 -0.0516  0.3734
21826W        W64920  24.225  10.241   3.531 -0.1046  0.1521  0.3755
21827W        W64921  21.916   9.853   5.280 -0.1035  0.1174 -0.0732
21828W        W64922  21.662   9.178   4.431  0.1946  0.0587 -0.4279
21829W        W64923  22.680   8.857   7.469 -0.0119 -0.0159  0.2853
21830W        W64924  22.763   7.611   6.062  0.0629 -0.1868 -0.2650
21831W        W64925  24.856   9.256   6.304 -0.5051 -0.0053  0.1863
21832W        W64926  23.634   7.781   3.972 -0.0330 -0.0486 -0.1836
21833W        W64927  25.049   8.852   6.065 -0.0815  0.0623 -0.2197
21834W        W64928  22.930   9.056   5.908  0.1174 -0.1768 -0.0827
21835W        W64929  20.485   9.670   4.046  0.3259  0.1301 -0.1111
21836W        W64930  25.216   9.281   6.878  0.2159  0.0808  0.4993
21837W        W64931  24.421  11.495   4.911  0.1658 -0.0673 -0.0037
21838W        W64932  23.782  10.075   4.303  0.0430 -0.1409 -0.1951
21839W        W64933  24.992  12.589   4.244 -0.3046  0.0076  0.0970
21840W        W64934  23.132   7.676   8.222  0.1922  0.1260  0.0405
21841W        W64935  23.561   7.881   4.491  0.2885  0.2123  0.0696
21842W        W64936  21.087  11.027   5.138 -0.1167 -0.2052 -0.0501
21843W        W64937  22.544   9.119   5.527 -0.1401 -0.1711 -0.1357
21844W        W64938  22.866   9.141   4.360 -0.1044 -0.2230 -0.0991
21845W        W64939  23.847  11.501   6.207  0.2026  0.0397 -0.0834
21846W        W64940  24.326   9.384   3.844 -0.0197 -0.1420  0.3722
21847W        W64941  20.782  10.012   6.791  0.1580  0.1541  0.0070
21848W        W64942  24.241   8.421   7.061 -0.1529  0.3419 -0.1903
21849W        W64943  24.399   9.802   6.528  0.1598 -0.1897  0.2270
21850W        W64944  22.881   9.140   6.381 -0.2115  0.1371  0.2588
21851W        W64945  22.619   7.639   3.805 -0.3654  0.2162 -0.1022
21852W        W64946  23.735  10.635   5.425 -0.0883  0.1907  0.1595
21853W        W64947  21.790   9.783   3.775  0.1214  0.0533 -0.0991
21854W        W64948  21.111  10.825   4.614 -0.3146 -0.2350  0.1497
21855W        W64949  23.368  10.376   5.105  0.1482  0.1152 -0.1564
21856W        W64950  26.214   8.846   6.032 -0.0183 -0.2220  0.0658
21857W        W64951  21.706   9.786   6.321  0.3665 -0.2290 -0.0250
21858W        W64952  24.554   8.230   7.464 -0.0630 -0.1400  0.1110
21859W        W64953  21.756   9.127   3.803  0.1540  0.0774  0.1724
21860W        W64954  22.022   8.950   6.251  0.2133 -0.0182  0.0013
21861W        W64955  24.378   7.977   4.896 -0.0157 -0.1376 -0.0996
21862W        W64956  25.042   7.983   5.631 -0.1849  0.0712  0.2228
21863W        W64957  24.067   8.862   6.335  0.1119 -0.1604 -0.1662
21864W        W64958  25.258   9.752   3.076 -0.1272 -0.0980  0.2702
21865W        W64959  24.272   8.247   2.886  0.2060  0.0781  0.1140
21866W        W64960  23.319   7.093   5.266 -0.0115  0.2958 -0.2161
21867W        W64961  22.293   9.700   7.333  0.2625  0.0732 -0.0724
21868W        W64962  22.826  11.078   5.716  0.0313  0.0641  0.1235
21869W        W64963  23.702  10.934   5.056 -0.0149 -0.0627 -0.0842
21870W        W64964  22.290   8.357   4.370  0.3820 -0.1413  0.0996
21871W        W64965  25.642  10.367   3.331 -0.1814  0.1661 -0.2048
21872W        W64966  21.039  10.602   6.050 -0.1568  0.0418  0.0521
21873W        W64967  22.994   9.998   7.104 -0.1875 -0.0140  0.1339
21874W        W64968  24.082  10.576   5.057  0.0918 -0.0532 -0.1282
21875W        W64969  24.005   7.383   7.375 -0.1753 -0.1162 -0.3129
21876W        W64970  22.843   9.720   4.386 -0.0487 -0.0184  0.1137
21877W        W64971  23.457   7.904   4.968 -0.1187  0.1154 -0.2452
21878W        W64972  20.638  11.483   2.843  0.0690  0.0833 -0.1123
21879W        W64973  24.922   7.575   6.491  0.1954  0.1232  0.0807
21880W        W64974  23.268   8.304   5.976 -0.2709  0.1360  0.1817
21881W        W64975  23.984   7.974   7.175  0.2635  0.2829  0.1570
21882W        W64976  25.340   8.555   7.455  0.2783 -0.0056  0.3090
21883W        W64977  23.542  10.142   4.740 -0.1225 -0.3152  0.0815
21884W        W64978  23.430   8.764   5.057  0.1191 -0.1913  0.1244
21885W        W64979  21.836   9.793   4.243  0.1209 -0.0101 -0.0827
21886W        W64980  23.835   8.789   7.276  0.1705  0.3288  0.1137
21887W        W64981  22.291   8.702   6.770 -0.3887 -0.2604 -0.0087
21888W        W64982  22.809   8.744   6.776  0.0465 -0.2153  0.2971
21889W        W64983  24.245   9.291   5.515 -0.2243 -0.0273 -0.0546
21890W        W64984  24.442   9.806   4.571 -0.0175 -0.1061 -0.0777
21891W        W64985  23.537   8.359   7.714 -0.2083 -0.1152  0.4076
21892W        W64986  23.590   8.458   4.627  0.0431  0.2569  0.1052
21893W        W64987  22.376  10.543   3.822 -0.3738  0.0429 -0.3169
21894W        W64988  21.580  11.246   5.312  0.2473  0.2048  0.3268
21895W        W64989  23.220   6.991   6.712  0.0421 -0.0455  0.0346
21896W        W64990  22.372  10.574   4.932 -0.0928  0.0416 -0.1778
21897W        W64991  23.413  11.953   2.721 -0.1141  0.0314 -0.2319
21898W        W64992  24.454   9.219   7.703 -0.2390 -0.1889  0.1147
21899W        W64993  21.746  11.672   5.648 -0.1144  0.2162 -0.1072
21900W        W64994  23.685   7.524   5.844  0.2029 -0.0640 -0.2595
21901W        W64995  21.696  12.176   5.529  0.1648 -0.0283 -0.2612
21902W        W64996  23.592   9.388   3.117 -0.1248 -0.1506 -0.0294
21903W        W64997  21.942   8.406   4.015 -0.1025 -0.1127 -0.2670
21904W        W64998  25.264   9.279   5.884 -0.4003 -0.0887 -0.1839
21905W        W64999  25.420   7.284   3.919  0.5057 -0.3394 -0.1391
21906W        W65000  22.125   7.881   6.600 -0.1502 -0.0668  0.0937
21907W        W65001  24.465   6.768   6.389  0.2546 -0.0999 -0.2004
21908W        W65002  22.815   9.615   7.388  0.1538  0.0869  0.0328
21909W        W65003  22.957  10.052   5.357  0.1283  0.0395  0.1597
21910W        W65004  23.855   7.566   3.541  0.1151  0.1418 -0.0526
21911W        W65005  24.578   9.554   6.895 -0.3494 -0.0974 -0.0874
21912W        W65006  23.204  10.379   5.807  0.2004  0.3352 -0.1196
21913W        W65007  21.142   8.402   3.793 -0.2678 -0.0156 -0.0178
21914W        W65008  25.512   7.699   6.280 -0.1685  0.0484 -0.1323
21915W        W65009  22.948   7.850   5.080 -0.1793 -0.0229  0.1053
21916W        W65010  21.870  10.411   5.127 -0.1408 -0.0386 -0.3897
21917W        W65011  23.703  10.955   7.341  0.2366  0.0212  0.2281
21918W        W65012  23.147   9.955   4.028  0.3084 -0.1249 -0.3100
21919W        W65013  22.489  10.237   5.320  0.3558  0.1837  0.0900
21920W        W65014  23.423   8.843   7.646 -0.1788  0.2183  0.0423
21921W        W65015  24.692   9.014   6.918  0.2683 -0.2393 -0.1441
21922W        W65016  22.518   8.224   6.711  0.2417  0.3242  0.0635
21923W        W65017  24.387   6.966   5.846 -0.2630 -0.0061 -0.1097
21924W        W65018  23.335   8.919   5.607 -0.0254  0.0473  0.1248
21925W        W65019  24.371   9.165   6.609 -0.1319  0.3725  0.1639
21926W        W65020  24.250   9.649   6.005 -0.2152  0.3324 -0.2975
21927W        W65021  24.072   8.862   6.866  0.3644  0.2044  0.0643
21928W        W65022  24.493   7.257   6.545 -0.0277  0.1808  0.1182
21929W        W65023  26.408   9.684   3.704 -0.1605 -0.3751 -0.3438
21930W        W65024  23.639   8.685   6.028 -0.1216 -0.1524 -0.2651
21931W        W65025  22.916   9.290   3.185 -0.0662  0.0227  0.0414
21932W        W65026  22.142   7.729   5.364 -0.2030 -0.1111 -0.2640
21933W        W65027  22.542   9.451   4.087 -0.4899 -0.2561 -0.2776
21934W        W65028  24.062  10.110   4.712  0.0026 -0.0366  0.1884
21935W        W65029  22.067  10.039   6.559 -0.0293  0.0346  0.3031
21936W        W65030  22.519  10.466   4.447 -0.0296  0.1605 -0.1149
21937W        W65031  21.486  10.125   8.172 -0.1033 -0.1353  0.0257
21938W        W65032  24.805   7.772   4.683  0.0273  0.0312  0.0335
21939W        W65033  24.139  10.369   5.599  0.1794 -0.0995 -0.0404
21940W        W65034  23.730   8.020   5.871  0.2101 -0.3682  0.1682
21941W        W65035  26.262   8.520   6.738  0.0369 -0.1727  0.1125
21942W        W65036  24.861  10.600   4.299 -0.1082  0.3292  0.1791
21943W        W65037  24.379   7.701   6.384  0.1806  0.2210 -0.0883
21944W        W65038  23.311   7.564   6.694  0.0815 -0.0656  0.1069
21945W        W65039  24.692  10.224   4.651 -0.0568  0.2374 -0.3575
21946W        W65040  21.654   8.468   6.058 -0.1247 -0.0409 -0.0990
21947W        W65041  24.443  11.007   6.643  0.1940  0.0330  0.0576
21948W        W65042  22.037   9.468   6.648  0.1900 -0.0988  0.1795
21949W        W65043  25.010   8.742   5.494 -0.0783 -0.0882 -0.0751
21950W        W65044  24.022   7.174   3.868 -0.1230  0.2671 -0.1589
21951W        W65045  23.215   8.381   6.811 -0.0267 -0.1123 -0.0824
21952W        W65046  23.864  10.017   5.905 -0.1103 -0.1079 -0.2361
21953W        W65047  22.874  10.775   4.604 -0.1025  0.4337 -0.0238
21954W        W65048  25.313   9.090   5.390  0.0112 -0.1195 -0.0265
21955W        W65049  22.636   8.067   5.738 -0.2906  0.1468 -0.2049
21956W        W65050  24.760   9.252   5.228 -0.0729  0.0115 -0.0059
21957W        W65051  23.144   9.332   3.998 -0.0209  0.1325 -0.2013
21958W        W65052  20.836  10.158   5.269 -0.0003  0.2583 -0.0417
21959W        W65053  22.594   7.448   7.416  0.3289  0.0971  0.2475
21960W        W65054  23.895   9.933   3.808 -0.0614  0.2329  0.0052
21961W        W65055  23.770   8.216   5.065 -0.0541 -0.0377  0.0401
21962W        W65056  24.235   9.243   7.157  0.0350 -0.0755 -0.0308
21963W        W65057  23.701   8.418   5.640 -0.0735 -0.2427  0.1141
21964W        W65058  24.566   8.824   6.262  0.0062 -0.0114  0.1143
21965W        W65059  22.399   9.143   6.557  0.2245 -0.1747  0.1333
21966W        W65060  24.498  10.059   5.660  0.0822  0.0850 -0.0306
21967W        W65061  24.340   9.020   4.249  0.0467 -0.0283  0.1748
21968W        W65062  26.927   8.435   6.551 -0.1399 -0.0036 -0.0243
21969W        W65063  26.033   8.362   5.230 -0.0327  0.0700 -0.1137
21970W        W65064  23.389   9.273   4.957  0.0599 -0.1614 -0.0528
21971W        W65065  21.171   9.094   4.629 -0.2459  0.0634 -0.2424
21972W        W65066  24.836   9.704   7.615 -0.2434  0.2428  0.0322
21973W        W65067  22.858   9.428   2.237  0.1231 -0.0889 -0.0063
21974W        W65068  24.007   8.381   6.223  0.0050 -0.2951  0.0145
21975W        W65069  23.267  12.110   3.790 -0.4601 -0.0248 -0.1541
21976W        W65070  23.975   8.743   5.223 -0.1974  0.3173  0.0807
21977W        W65071  24.837   8.787   5.018 -0.2758  0.1016 -0.1156
21978W        W65072  22.107   8.166   4.810 -0.1065  0.2088  0.0355
21979W        W65073  22.530   9.605   8.481 -0.1540  0.1057  0.2433
21980W        W65074  23.142   6.915   3.996  0.2450  0.2338 -0.2535
21981W        W65075  23.975   9.128   2.951  0.1462 -0.2224  0.1755
21982W        W65076  23.279  10.629   6.226 -0.1192 -0.0090  0.6505
21983W        W65077  24.953   9.673   6.586 -0.4009 -0.1656  0.0035
21984W        W65078  22.821   7.757   3.356 -0.1311  0.3307 -0.2011
21985W        W65079  25.418   9.523   7.530  0.0193  0.0575  0.2632
21986W        W65080  21.836  12.114   4.319 -0.0530 -0.1723  0.0179
21987W        W65081  23.993   7.845   5.357  0.2363  0.3162  0.1038
21988W        W65082  22.636  12.071   5.473  0.1543  0.2749 -0.0320
21989W        W65083  21.165   9.066   6.817  0.0359  0.3836  0.0987
21990W        W65084  22.356  11.438   4.840  0.2771  0.2921 -0.0791
21991W        W65085  23.104   7.303   5.811 -0.1942  0.2327 -0.1835
21992W        W65086  25.068  10.068   6.121 -0.0188 -0.0916  0.1781
21993W        W65087  23.253   8.701   6.372  0.1782 -0.1908  0.2275
21994W        W65088  24.579   8.248   5.753 -0.0624  0.0181 -0.2159
21995W        W65089  23.333   9.438   7.233  0.0900  0.1167  0.1495
21996W        W65090  21.434   8.867   5.802  0.1952  0.2115 -0.2096
21997W        W65091  23.241  10.783   6.999  0.0427  0.1738 -0.2140
21998W        W65092  25.833   9.348   6.203 -0.0176  0.2520  0.0412
21999W        W65093  22.309  10.398   6.178  0.0098  0.2518 -0.0340
22000W        W65094  22.017   8.484   6.402  0.1204 -0.2363  0.0377
22001W        W65095  23.895   9.300   6.515  0.1283  0.1942  0.2073
22002W        W65096  24.465   8.603   6.685 -0.1059  0.2327 -0.0932
22003W        W65097  23.440   7.306   3.844  0.2619  0.0861 -0.1142
22004W        W65098  23.253  11.219   4.301  0.1319 -0.1634 -0.2000
22005W        W65099  22.375  11.141   7.577 -0.6338 -0.0857  0.1771
22006W        W65100  21.612   8.767   4.106 -0.1305 -0.1937 -0.0922
22007W        W65101  21.946  11.160   4.492  0.0186 -0.2852 -0.1914
22008W        W65102  24.714   9.739   3.201  0.0074 -0.2178  0.1085
22009W        W65103  24.374   8.501   5.002  0.1089  0.2676 -0.0563
22010W        W65104  22.701  11.808   4.672 -0.1389 -0.0332  0.0336
22011W        W65105  24.549   8.655   4.576 -0.0731 -0.0687  0.0427
22012W        W65106  23.438   9.122   6.093  0.3209  0.4938 -0.0518
22013W        W65107  22.308   9.839   3.257  0.0273 -0.2603  0.0873
22014W        W65108  24.164   9.651   3.011  0.0776  0.0934  0.4347
22015W        W65109  22.625  10.171   5.778 -0.2822  0.0730 -0.1060
22016W        W65110  22.491  10.180   7.298 -0.1384  0.0426 -0.2250
22017W        W65111  24.190   8.455   3.537 -0.2009  0.1254 -0.1655
22018W        W65112  25.896   8.650   6.337  0.0893 -0.0861  0.0472
22019W        W65113  24.095   7.758   2.954  0.1173  0.1554 -0.1883
22020W        W65114  23.682  11.506   7.174 -0.4327 -0.1534  0.2954
22021W        W65115  23.503   9.680   5.860 -0.2811 -0.1272  0.2982
22022W        W65116  23.746   8.517   2.264  0.1730  0.0971 -0.0224
22023W        W65117  22.879  10.279   6.326 -0.2080  0.0248  0.2787
22024W        W65118  23.393   8.013   7.186  0.0499  0.0213 -0.2362
22025W        W65119  22.288  10.469   6.883  0.1234 -0.0163  0.0762
22026W        W65120  24.338  10.103   4.139  0.3070  0.1274 -0.0890
22027W        W65121  21.821   7.909   4.342  0.4028 -0.1496  0.0519
22028W        W65122  23.114   7.817   5.752 -0.0071 -0.1845  0.3595
22029W        W65123  25.788   7.220   6.425 -0.0176 -0.2011 -0.1706
22030W        W65124  24.520   8.874   3.585  0.0995 -0.2814 -0.0678
22031W        W65125  23.116   9.930   4.719 -0.0356  0.1700 -0.1283
22032W        W65126  23.204  11.705   4.625  0.1552  0.0261  0.2366
22033W        W65127  22.297  10.733   5.402  0.0361 -0.0562 -0.2437
22034W        W65128  22.365  10.862   6.413 -0.3137  0.3131  0.0479
22035W        W65129  21.453   8.267   2.595  0.0787  0.0400  0.2309
22036W        W65130  25.701   9.124   4.443 -0.0495  0.0971 -0.3508
22037W        W65131  22.484   9.734   5.572  0.2193 -0.0513 -0.1173
22038W        W65132  25.205   8.076   6.513 -0.0770  0.2977  0.4065
22039W        W65133  21.821   8.658   4.543 -0.0168  0.3363 -0.1760
22040W        W65134  25.496   8.071   4.795  0.0247 -0.4171  0.0641
22041W        W65135  22.408   9.072   6.013 -0.1269  0.0759 -0.3429
22042W        W65136  21.640   9.809   5.695 -0.0506  0.2799  0.0532
22043W        W65137  24.093   9.701   4.217 -0.1948 -0.0867 -0.0181
22044W        W65138  25.132   8.806   8.246  0.1969  0.1063 -0.1461
22045W        W65139  25.367   8.980   2.529 -0.0572  0.0338  0.0673
22046W        W65140  23.757   8.522   3.708 -0.1677 -0.0776 -0.0895
22047W        W65141  22.915   8.540   3.862 -0.1224  0.2570  0.1080
22048W        W65142  20.958  10.546   4.993  0.1153  0.1612  0.0108
22049W        W65143  23.821   9.067   5.600 -0.0438 -0.2829  0.0829
22050W        W65144  25.230  10.052   7.499 -0.1707  0.1665 -0.1102
22051W        W65145  22.984   8.619   4.434 -0.0622  0.1218 -0.5528
22052W        W65146  25.292   8.945   3.076  0.1208  0.3586  0.0691
22053W        W65147  25.826   9.116   6.595  0.1333 -0.3612  0.0207
22054W        W65148  23.705  11.076   4.471 -0.1966  0.0795  0.3803
22055W        W65149  24.957  10.297   5.585  0.1296 -0.1317  0.2085
22056W        W65150  24.937  11.318   4.920 -0.1205 -0.0182 -0.2873
22057W        W65151  20.529   9.052   5.428 -0.0599 -0.0639 -0.1624
22058W        W65152  23.464   9.810   6.780  0.0750 -0.1628 -0.2386
22059W        W65153  24.379  11.342   6.233 -0.0509  0.0249  0.2380
22060W        W65154  22.994   6.638   4.385 -0.1060  0.0352  0.0741
22061W        W65155  21.258   8.256   6.222  0.0763 -0.0537  0.0994
22062W        W65156  22.252  11.379   4.232  0.1100  0.1580  0.2732
22063W        W65157  25.720   9.532   5.356  0.1276  0.2797  0.1671
22064W        W65158  25.454   8.298   6.046 -0.1139 -0.0252 -0.3767
22065W        W65159  22.763  10.753   3.531  0.1075  0.0959 -0.0084
22066W        W65160  23.842   5.883   6.901  0.3648  0.0480 -0.1008
22067W        W65161  23.781   9.652   4.767  0.3992 -0.0185 -0.0102
22068W        W65162  21.952  10.314   8.314  0.2915  0.0251  0.1298
22069W        W65163  22.286   8.681   2.799  0.0531  0.1433 -0.3020
22070W        W65164  23.854   9.391   6.008 -0.3595 -0.0919 -0.0120
22071W        W65165  23.433   9.049   4.485 -0.0020  0.2323  0.1802
22072W        W65166  21.837  11.152   3.935 -0.0037  0.0262 -0.0122
22073W        W65167  23.880  10.067   5.183  0.1528  0.1434  0.0858
22074W        W65168  23.744   8.995   3.378 -0.3239  0.1910  0.0364
22075W        W65169  24.188   9.313   4.612 -0.1764 -0.0885 -0.2879
22076W        W65170  24.114   8.322   4.609  0.1120 -0.1680 -0.0700
22077W        W65171  25.518   7.815   5.769  0.1368 -0.1001 -0.0102
22078W        W65172  24.228   8.389   5.486  0.3639 -0.0344 -0.0912
22079W        W65173  22.633   9.822   5.035 -0.0398 -0.2711  0.0593
22080W        W65174  23.096  10.205   3.592 -0.1510  0.0477  0.0502
22081W        W65175  21.714   8.969   3.116  0.1780 -0.0066  0.0758
22082W        W65176  21.066   9.903   5.660  0.1563  0.1299 -0.3956
22083W        W65177  24.951   9.300   7.823 -0.2022  0.1912  0.0876
22084W        W65178  22.800   8.012   7.415  0.1610  0.2544  0.0229
22085W        W65179  22.778   8.547   5.011 -0.2320 -0.1116  0.2018
22086W        W65180  21.662   9.112   5.414 -0.2349 -0.1253  0.1504
22087W        W65181  25.201  11.326   3.438  0.2594 -0.0760  0.1032
22088W        W65182  23.521   7.554   7.154  0.2480  0.0654  0.1258
22089W        W65183  23.025   9.004   5.221 -0.0348  0.0433 -0.2126
22090W        W65184  23.032  10.272   4.378  0.2482 -0.0052  0.0989
22091W        W65185  26.053  10.379   4.628 -0.0410 -0.1773  0.1730
22092W        W65186  21.480   8.111   3.432 -0.2124  0.2283 -0.0900
22093W        W65187  25.320  10.831   7.280  0.1539 -0.0428 -0.1658
22094W        W65188  21.401  10.619   5.262  0.0722 -0.0437  0.1779
22095W        W65189  24.199   9.652   7.686 -0.3306  0.0636  0.1712
22096W        W65190  23.266   8.455   8.608 -0.1908  0.3075  0.3267
22097W        W65191  21.425   7.637   3.670 -0.0475 -0.0824  0.0336
22098W        W65192  23.831   9.356   5.134 -0.1181  0.0605  0.0067
22099W        W65193  23.440  10.625   4.382 -0.0033 -0.0979 -0.0810
22100W        W65194  24.678  12.666   3.730 -0.2158 -0.2459 -0.0836
22101W        W65195  22.516   9.073   5.038  0.2582  0.0298  0.2337
22102W        W65196  23.032   9.833   5.794  0.5527 -0.0794  0.2423
22103W        W65197  22.101   7.182   7.104 -0.1895  0.1997 -0.0276
22104W        W65198  26.356   9.941   6.411  0.1247 -0.1224 -0.0616
22105W        W65199  23.234   9.323   6.723 -0.1014  0.1320  0.2344
22106W        W65200  25.758   8.623   3.218 -0.0242 -0.0042  0.3020
22107W        W65201  25.864   8.662   4.887  0.2945  0.0103 -0.0111
22108W        W65202  25.139   9.422   4.901 -0.0752  0.1749 -0.3398
22109W        W65203  22.372   7.570   6.971  0.0239 -0.1640 -0.1169
22110W        W65204  23.286   9.571   6.300 -0.0340  0.1027  0.0748
22111W        W65205  24.840   9.678   5.538 -0.0061 -0.1367 -0.0565
22112W        W65206  23.368   7.748   6.206 -0.0201  0.2527  0.2288
22113W        W65207  23.890   8.126   3.265 -0.1193 -0.0612  0.0506
22114W        W65208  23.453  10.819   3.902 -0.1168 -0.1571 -0.1344
22115W        W65209  21.974   8.835   5.815  0.0873 -0.0889  0.1098
22116W        W65210  24.407  10.618   4.391 -0.1571 -0.0795 -0.1825
22117W        W65211  24.742   9.390   4.478  0.0844 -0.3037  0.0011
22118W        W65212  23.217  10.854   4.977  0.1637  0.0394 -0.1332
22119W        W65213  24.340  10.184   6.860 -0.1449  0.0350 -0.0812
22120W        W65214  23.458   8.672   4.172  0.2500  0.4140  0.1256
22121W        W65215  25.515  10.443   4.216  0.1536 -0.0272 -0.1803
22122W        W65216  23.775  10.483   6.372 -0.1405  0.1584  0.1596
22123W        W65217  25.905  10.356   7.680  0.1982 -0.0510  0.0301
22124W        W65218  23.407  10.220   7.173  0.0221  0.0872 -0.0893
22125W        W65219  24.493   8.821   5.405  0.0234 -0.1142 -0.0566
22126W        W65220  22.981   8.184   6.392  0.1128  0.0502 -0.1016
22127W        W65221  22.313   9.134   3.125  0.1964  0.4802 -0.0090
22128W        W65222  22.440   9.454   4.629  0.3862  0.0817 -0.1369
22129W        W65223  26.696   8.113   6.210  0.1120  0.2118 -0.1532
22130W        W65224  22.890   9.495   5.362 -0.2628 -0.0334  0.1879
22131W        W65225  24.082   7.898   4.329 -0.0598  0.1388 -0.2301
22132W        W65226  22.918  10.591   5.435 -0.1500  0.0372  0.0628
22133W        W65227  23.963  10.562   4.551  0.1536  0.3877  0.0747
22134W        W65228  21.892   9.888   9.130 -0.2184  0.0743  0.0644
22135W        W65229  22.839   8.918   9.268 -0.1470 -0.2057  0.3095
22136W        W65230  25.830   7.594   6.868  0.4859  0.0409  0.1836
22137W        W65231  25.378   9.315   8.184 -0.2723  0.2167 -0.3491
22138W        W65232  20.288   7.888   8.607  0.1522 -0.1785  0.0103
22139W        W65233  24.281  10.570   7.539  0.1648 -0.0152 -0.0430
22140W        W65234  26.130  11.051   9.999  0.0841 -0.1539  0.0194
22141W        W65235  24.847  11.020   9.113 -0.3684  0.3295 -0.0801
22142W        W65236  24.328   8.785   7.371  0.2302 -0.2266  0.2328
22143W        W65237  22.536   9.284   8.867  0.1217 -0.2110  0.0546
22144W        W65238  22.863   7.647   7.803  0.0148  0.0342  0.0151
22145W        W65239  21.918   8.980   9.751 -0.1731 -0.2761 -0.3597
22146W        W65240  23.955   9.926   8.681  0.5014 -0.2170 -0.2659
22147W        W65241  21.434   8.202   7.858  0.2028 -0.1522 -0.1388
22148W        W65242  21.277   7.665   9.590  0.2171  0.1561 -0.0034
22149W        W65243  23.502   8.212   8.991  0.0984  0.0182  0.1278
22150W        W65244  25.322  10.651   8.180  0.1732 -0.1858 -0.3736
22151W        W65245  22.779   8.727  10.061  0.0176 -0.0119  0.1792
22152W        W65246  23.965   9.413   8.048  0.0706  0.0831  0.0566
22153W        W65247  22.486   9.286   7.574  0.1804 -0.1059 -0.2726
22154W        W65248  21.318   9.546  10.181  0.4374  0.1582  0.0485
22155W        W65249  23.201  10.274   9.792  0.1622  0.3737 -0.2464
22156W        W65250  24.280   6.594   9.782 -0.0484 -0.0202  0.1163
22157W        W65251  24.759   7.964   9.810 -0.2125  0.1190 -0.2139
22158W        W65252  23.340  11.400   8.880 -0.0401  0.1359  0.1313
22159W        W65253  24.546  10.198   8.583 -0.2571  0.1496  0.0633
22160W        W65254  22.515  10.970  10.026  0.0318  0.0605  0.2036
22161W        W65255  23.113  11.351   8.417  0.2680  0.0524  0.1591
22162W        W65256  22.853  10.124   7.686 -0.0308 -0.2988 -0.2847
22163W        W65257  26.203   8.833   9.672  0.3467 -0.1275  0.0051
22164W        W65258  22.488  10.676   7.678  0.0154  0.0216 -0.0986
22165W        W65259  26.293   9.748   9.829 -0.3061  0.0183 -0.1870
22166W        W65260  23.759   9.538   9.423  0.0615 -0.1759  0.2910
22167W        W65261  23.743  10.590   7.774 -0.0271  0.3740  0.2342
22168W        W65262  24.630   9.731   9.335 -0.2611 -0.1270 -0.1730
22169W        W65263  22.466   9.904   9.992 -0.3591  0.0218 -0.0466
22170W        W65264  22.011   8.284   7.688 -0.0081 -0.1139 -0.0911
22171W        W65265  23.133   8.848   8.157 -0.0981 -0.2456 -0.2069
22172W        W65266  23.526   8.276   6.463  0.0584 -0.0498 -0.1046
22173W        W65267  24.990   8.410   7.817 -0.0108  0.2359  0.0636
22174W        W65268  24.193   7.889   7.676  0.0575  0.1855 -0.1802
22175W        W65269  23.269  10.285   9.208 -0.1050  0.0152  0.1459
22176W        W65270  23.976   7.297   9.685 -0.1588 -0.2425  0.1259
22177W        W65271  23.363   9.915  10.117 -0.3048  0.2641 -0.3808
22178W        W65272  24.800   8.654   9.826  0.4042 -0.2737 -0.2509
22179W        W65273  23.828  10.133   9.866 -0.0201 -0.2511  0.2309
22180W        W65274  22.199   9.030   8.588  0.1130 -0.1678  0.3204
22181W        W65275  23.726  10.110   8.190  0.0781 -0.0488  0.2448
22182W        W65276  25.503  11.017   7.740  0.1921 -0.1276 -0.1853
22183W        W65277  25.533  10.207   7.983 -0.2191  0.2411  0.4206
22184W        W65278  21.365   9.152   7.335  0.2103  0.0157 -0.0871
22185W        W65279  23.734   7.906   6.763 -0.0881  0.0754  0.2860
22186W        W65280  27.497   8.176   9.151 -0.3122 -0.0152 -0.1950
22187W        W65281  20.834   8.511   9.602 -0.1980 -0.1755  0.2000
22188W        W65282  25.190  10.755   9.803  0.1612  0.0754 -0.3033
22189W        W65283  23.618   9.694   7.803 -0.1140 -0.0933 -0.2826
22190W        W65284  25.474   7.838   8.869  0.1727 -0.0040  0.3066
22191W        W65285  23.042   8.270   9.966 -0.0785  0.0606  0.0677
22192W        W65286  22.238   8.370   5.842 -0.2108  0.1229  0.1052
22193W        W65287  23.510   8.971   8.878  0.1799  0.0723 -0.2981
22194W        W65288  25.127  10.676   8.844  0.1457 -0.0339 -0.0233
22195W        W65289  24.487   9.484   8.131  0.2289 -0.0047 -0.0661
22196W        W65290  21.312  11.706   8.220  0.0945  0.2862  0.0848
22197W        W65291  23.297  10.439   8.300 -0.2965  0.0875  0.1081
22198W        W65292  20.438   9.793   9.088 -0.1780  0.1761 -0.0502
22199W        W65293  22.790   8.086   8.013  0.0882  0.1930 -0.0884
22200W        W65294  22.303   7.272  10.109  0.1928  0.1667 -0.0978
22201W        W65295  21.438  10.015  10.094 -0.2025 -0.1050  0.0550
22202W        W65296  24.131   8.578   8.368 -0.0543  0.1551  0.2755
22203W        W65297  25.290   6.342   7.814  0.0800 -0.0230  0.2958
22204W        W65298  22.195   9.118   9.250  0.1641 -0.0097  0.3710
22205W        W65299  25.923  11.684   7.917 -0.2868 -0.1246  0.0814
22206W        W65300  25.879   8.920   7.628 -0.0158  0.0110  0.4614
22207W        W65301  24.494  11.162   7.209 -0.0338  0.1532 -0.3159
22208W        W65302  21.847   9.035   8.957 -0.1744  0.1221 -0.4142
22209W        W65303  21.027   8.103   8.114  0.0542 -0.0683 -0.3304
22210W        W65304  21.644   8.066   9.474  0.1664  0.1059 -0.0016
22211W        W65305  20.491   7.267   7.525  0.0854 -0.2802 -0.1373
22212W        W65306  24.221   9.014   8.181  0.0412 -0.2474 -0.0261
22213W        W65307  22.214   8.733   8.171  0.0898 -0.0974 -0.1222
22214W        W65308  20.501  10.018   9.804  0.0137 -0.1607  0.1484
22215W        W65309  24.712  10.719   7.913  0.3896 -0.0392 -0.2178
22216W        W65310  23.828  11.692   8.893 -0.1372  0.1793  0.3373
22217W        W65311  24.279  11.353   9.764 -0.1703  0.0289 -0.0284
22218W        W65312  23.722   8.227   9.882 -0.2291 -0.0089 -0.2294
22219W        W65313  21.794   7.441   7.930  0.1672  0.4209  0.1439
22220W        W65314  23.869  11.124   8.870 -0.1980 -0.1668 -0.1792
22221W        W65315  24.235  10.219   9.014 -0.1003 -0.0973  0.1711
22222W        W65316  23.360   8.936   7.019 -0.2319 -0.3135 -0.0094
22223W        W65317  25.032  10.984   8.498  0.0585 -0.3067 -0.1960
22224W        W65318  23.573   8.982   9.405  0.4006  0.1578 -0.1597
22225W        W65319  28.661   6.966  10.310 -0.2062 -0.2601 -0.1148
22226W        W65320  25.255   8.771   9.242 -0.1619  0.1152  0.0816
22227W        W65321  21.003   8.095   6.876 -0.1657 -0.3443 -0.1648
22228W        W65322  24.437  11.073   8.844 -0.0432 -0.2771 -0.0629
22229W        W65323  22.917  10.661   7.910  0.0129 -0.0335 -0.0277
22230W        W65324  21.440  10.604   8.602  0.1964  0.2188 -0.1848
22231W        W65325  22.905  10.476   7.362 -0.1129  0.2834 -0.1962
22232W        W65326  25.716   6.980   9.045 -0.0802  0.0876 -0.3460
22233W        W65327  21.841   9.354   8.377  0.0932 -0.5047 -0.0383
22234W        W65328  25.162   6.543   7.393  0.1582 -0.1992  0.2008
22235W        W65329  27.149   8.399   7.898 -0.0465 -0.3017 -0.1071
22236W        W65330  25.077   8.131   7.294 -0.3391 -0.0509  0.0672
22237W        W65331  24.727   8.186   6.696  0.1409 -0.0485  0.2099
22238W        W65332  24.053   9.653   6.881  0.2784  0.0397 -0.0907
22239W        W65333  23.288   9.827   8.137 -0.0304 -0.1043 -0.4555
22240W        W65334  23.377   9.987   8.608  0.0739 -0.0180  0.1216
22241W        W65335  23.277   7.924   9.390  0.2440  0.3923  0.1099
22242W        W65336  26.087  10.917   7.745  0.2947 -0.2891  0.2845
22243W        W65337  20.232  10.684   8.963 -0.1850 -0.2426 -0.0102
22244W        W65338  25.568  10.544   9.532  0.1136 -0.1198 -0.4800
22245W        W65339  23.775   7.780   8.907  0.1354 -0.2573  0.0037
22246W        W65340  23.914   8.765   7.817  0.1475 -0.1195  0.1802
22247W        W65341  24.552   7.284   9.551 -0.0249  0.3230  0.3692
22248W        W65342  22.031  11.296   7.304 -0.0760 -0.2656  0.1239
22249W        W65343  25.957   7.137   9.549 -0.2183  0.0897  0.0090
22250W        W65344  23.767   8.603   9.124  0.0770 -0.2967 -0.2301
22251W        W65345  23.909   8.323   8.735 -0.1106  0.0893  0.1314
22252W        W65346  23.347   8.438   9.577  0.0195 -0.0491 -0.1386
22253W        W65347  23.637   8.835   6.624 -0.0235 -0.1390  0.1004
22254W        W65348  25.276   8.316   9.661 -0.1285  0.0494 -0.2203
22255W        W65349  22.507  12.790   9.492  0.1863  0.0076 -0.1795
22256W        W65350  25.217   9.805   7.934  0.4125  0.0618 -0.0224
22257W        W65351  22.326   8.115   8.227  0.1079  0.2234 -0.2321
22258W        W65352  23.219   9.830   7.514 -0.2402  0.1032  0.0371
22259W        W65353  23.817   9.314   7.512  0.3286  0.1860  0.0149
22260W        W65354  23.168   9.344   9.471 -0.1363  0.4236 -0.0650
22261W        W65355  24.179   7.628   9.319  0.0207 -0.0248 -0.1283
22262W        W65356  22.882   9.104   7.091  0.0175  0.3474 -0.0828
22263W        W65357  23.065   9.536  10.217 -0.2559 -0.0458 -0.0920
22264W        W65358  22.498  10.550   8.153  0.1511  0.1252 -0.1900
22265W        W65359  25.427   7.233   9.436 -0.0035  0.2441 -0.0419
22266W        W65360  22.614  10.709   9.033  0.1604 -0.2886  0.0376
22267W        W65361  22.494   8.055   9.311  0.2904 -0.1650 -0.1688
22268W        W65362  20.803   7.751   7.835 -0.0469  0.0039  0.3551
22269W        W65363  24.748   7.706   9.368 -0.1554 -0.1202 -0.1177
22270W        W65364  25.267   9.093   7.329 -0.0919 -0.0180 -0.3021
22271W        W65365  22.324   9.060  10.031 -0.1983 -0.0018 -0.0984
22272W        W65366  23.495   8.070   8.462 -0.1242  0.2551  0.1666
22273W        W65367  22.363  11.145   8.997  0.1600  0.1527 -0.4380
22274W        W65368  24.011   8.319   7.519 -0.1123  0.0079  0.1266
22275W        W65369  22.363   8.021   7.216 -0.0014 -0.0918  0.0484
22276W        W65370  24.290   7.688   8.125  0.0537  0.0003 -0.2083
22277W        W65371  22.574   8.800   8.842  0.1176  0.3628  0.1286
22278W        W65372  22.953  11.089   8.808  0.5975 -0.2072  0.0134
22279W        W65373  21.338  13.365   9.229 -0.1108 -0.1105  0.0502
22280W        W65374  22.695   9.503   6.070  0.1521  0.0086  0.0381
22281W        W65375  21.823  10.438   9.844  0.1106  0.0664 -0.3964
22282W        W65376  26.152   8.372   9.947  0.3068  0.0602 -0.4032
22283W        W65377  21.901   9.301  10.168  0.0096  0.0013 -0.2254
22284W        W65378  22.818   7.979   8.510 -0.0640 -0.2723 -0.0695
22285W        W65379  24.704   8.072   8.935 -0.2548  0.1898  0.3935
22286W        W65380  24.236   9.353   9.454 -0.1498 -0.1899  0.1164
22287W        W65381  24.207   9.959   9.465  0.0106 -0.0189 -0.0465
22288W        W65382  23.667   7.703   9.675  0.1084  0.3558  0.1629
22289W        W65383  25.286   9.731   8.483  0.2490  0.0068  0.1299
22290W        W65384  23.665   9.612   8.408  0.0091 -0.0290  0.0281
22291W        W65385  24.480   9.025   9.871  0.3682 -0.0351  0.0526
22292W        W65386  22.725   9.739   8.971 -0.0166  0.0691  0.0815
22293W        W65387  26.921   7.933   9.358 -0.0647  0.1673  0.1507
22294W        W65388  22.868  10.622   9.616  0.0929  0.1523  0.2348
22295W        W65389  22.161   9.772   8.194 -0.1571  0.0735  0.0407
22296W        W65390  22.269  11.434   9.864  0.0128 -0.0658 -0.1483
22297W        W65391  25.347   7.403   6.771 -0.0027  0.1831 -0.1331
22298W        W65392  23.437   9.206   8.021 -0.2644 -0.2079  0.0058
22299W        W65393  24.087   8.823   8.761 -0.1948  0.1214 -0.0378
22300W        W65394  23.260   9.229   8.463  0.0409  0.2081  0.5504
22301W        W65395  23.044   8.883   8.730  0.0130 -0.3568  0.1582
22302W        W65396  25.756   9.107   9.539 -0.0393  0.0213 -0.1523
22303W        W65397  24.838   8.877   7.606 -0.3866 -0.0800 -0.2370
22304W        W65398  21.847   8.015   7.292  0.0496 -0.1939 -0.0353
22305W        W65399  22.828   8.446   9.501 -0.0583 -0.1088  0.5814
22306W        W65400  24.820   9.874   8.311 -0.2720  0.1185 -0.0568
22307W        W65401  23.705  10.382   8.758  0.1419 -0.2487 -0.0987
22308W        W65402  23.876   9.258   9.003  0.4594  0.2484  0.0194
22309W        W65403  23.482  10.847   8.676  0.3525  0.0083  0.1157
22310W        W65404  24.498   9.118   8.972  0.0176 -0.0283 -0.3130
22311W        W65405  23.026   9.236   7.695  0.0630  0.1896  0.1510
22312W        W65406  23.173  10.830   9.240  0.1206  0.1621 -0.0944
22313W        W65407  24.919   9.351   8.398 -0.1157 -0.0619  0.0690
22314W        W65408  23.245   8.265   8.086 -0.0224 -0.1210  0.2719
22315W        W65409  25.418  12.670   9.965 -0.0833  0.0400 -0.0736
22316W        W65410  24.971   8.744   6.603 -0.0082 -0.1898  0.2256
22317W        W65411  24.459   8.505   8.892  0.0982 -0.4052 -0.1568
22318W        W65412  25.427   8.087   7.692  0.2412 -0.0941 -0.4698
22319W        W65413  23.521   9.493   8.869 -0.1390  0.2524 -0.0469
22320W        W65414  21.890   8.082   8.590 -0.1838  0.0118 -0.2779
22321W        W65415  22.974   6.820   8.552  0.0133  0.2293  0.1241
22322W        W65416  23.942  11.629   7.703 -0.1285 -0.0889  0.2656
22323W        W65417  24.572  10.282   9.444 -0.1327  0.0298 -0.2999
22324W        W65418  24.906   9.162   9.324  0.2540 -0.2630 -0.1682
22325W        W65419  21.857   8.416   8.107  0.0064 -0.0825  0.3114
22326W        W65420  22.490   8.670   6.307 -0.1272 -0.0338  0.1451
22327W        W65421  22.921   7.470   8.609 -0.1967 -0.2917  0.0150
22328W        W65422  24.266   8.865   9.316 -0.0344  0.1197 -0.0342
22329W        W65423  23.630   7.825   8.058 -0.0833  0.1807 -0.1088
22330W        W65424  24.159  11.270   9.269  0.0199  0.2601 -0.0950
22331W        W65425  25.650   7.114   8.022  0.0081  0.2045 -0.0216
22332W        W65426  22.394  11.481   9.385 -0.1233 -0.0680  0.1855
22333W        W65427  21.356  11.438   7.574  0.2051  0.1595  0.4579
22334W        W65428  22.624   6.548   9.492 -0.2217 -0.0082 -0.2345
22335W        W65429  24.822   7.316   9.974 -0.0796  0.0942  0.2951
22336W        W65430  24.138  10.619   8.705  0.3045  0.2520 -0.0198
22337W        W65431  23.620  10.598   9.759  0.2090 -0.0477 -0.0082
22338W        W65432  24.777   9.464   9.878  0.0842 -0.3969  0.0922
22339W        W65433  21.958  11.853   9.322 -0.0574 -0.1386  0.2105
22340W        W65434  25.130   9.811  10.021 -0.1478  0.0118 -0.2055
22341W        W65435  21.878   7.888   8.099  0.0756 -0.2330 -0.1188
22342W        W65436  24.116  11.221   7.524  0.2625 -0.0042  0.0696
22343W        W65437  23.372  10.440  10.282 -0.0917 -0.0017 -0.2343
22344W        W65438  23.002  11.332   7.847 -0.0328 -0.2314 -0.0453
22345W        W65439  24.532  10.020   7.889 -0.0698  0.0523 -0.2480
22346W        W65440  24.128   9.390   8.578 -0.1227  0.1829  0.1205
22347W        W65441  24.309  11.699   9.038  0.0595 -0.0385 -0.1617
22348W        W65442  23.054   9.288   8.991  0.0283 -0.0128 -0.0018
22349W        W65443  21.442  11.773  10.167 -0.0533 -0.0055  0.3192
22350W        W65444  22.308  11.800   8.418  0.1432 -0.1380 -0.3726
22351W        W65445  24.150  11.328   8.098  0.2175 -0.2222  0.0361
22352W        W65446  22.299  10.450   8.674 -0.2383  0.0311 -0.0344
22353W        W65447  24.495   7.904   7.087  0.0594 -0.0432  0.0064
22354W        W65448  25.072   7.517   8.063  0.0573  0.1325 -0.2242
22355W        W65449  25.604   7.602   8.098 -0.2014 -0.1158  0.3935
22356W        W65450  23.641   9.973   9.045  0.1353  0.1575  0.2599
22357W        W65451  23.256   6.988   8.087 -0.1030  0.3947  0.2457
22358W        W65452  25.462  10.491   7.576  0.0865 -0.1060  0.0106
22359W        W65453  22.276   8.537   7.241  0.0317 -0.1320  0.1621
22360W        W65454  22.309   9.248   8.068 -0.4117  0.1336  0.1791
22361W        W65455  24.721   6.117   7.757 -0.1465 -0.1985 -0.2268
22362W        W65456  22.891   9.496   8.109 -0.0280  0.0230  0.1403
22363W        W65457  24.768   8.418   8.309  0.1583  0.0160  0.0821
22364W        W65458  23.386  11.203   9.645 -0.1693  0.0034 -0.3153
22365W        W65459  22.637  10.449  10.067  0.2047  0.1828 -0.1170
22366W        W65460  24.231   9.666   9.036  0.3310 -0.1821 -0.1203
22367W        W65461  21.208   7.596   8.072 -0.0747  0.0863  0.1313
22368W        W65462  26.016   7.924   8.059  0.1779  0.1853  0.1327
22369W        W65463  23.955   8.575   9.607 -0.0136  0.2771 -0.1687
22370W        W65464  21.829   8.759   7.227  0.5090  0.1648 -0.1730
22371W        W65465  25.071   6.894   9.686 -0.2317  0.0356 -0.1757
22372W        W65466  23.502  11.112  10.183 -0.1260  0.0233 -0.0291
22373W        W65467  21.307   8.742   8.128 -0.2739  0.0462 -0.1600
22374W        W65468  22.960   8.515   7.670 -0.2328  0.1764  0.0687
22375W        W65469  24.208   9.911   8.275 -0.1257 -0.3608  0.0520
22376W        W65470  21.945   8.539   8.725 -0.3454  0.1001  0.0117
22377W        W65471  24.361   8.589   7.871  0.0223 -0.1325 -0.0138
22378W        W65472  22.709  10.159   8.743 -0.0591  0.2462 -0.0688
22379W        W65473  23.261   8.633   9.143  0.1794  0.2405 -0.0783
22380W        W65474  21.731   7.556   8.488 -0.0534 -0.1223 -0.2972
22381W        W65475  24.772   8.486   7.045  0.1849  0.0243  0.0520
22382W        W65476  26.920   9.205   9.866  0.1556  0.0676  0.2389
22383W        W65477  23.799  11.075   7.890  0.0166  0.3665 -0.1655
22384W        W65478  25.395   8.949   7.806  0.1913 -0.1050 -0.0597
22385W        W65479  24.241  11.459   8.550  0.0321 -0.2994 -0.4372
22386W        W65480  20.964   7.964   9.890  0.1683  0.1330  0.3835
22387W        W65481  25.315  10.020   8.903  0.1935  0.3649  0.1263
22388W        W65482  26.032  10.222   8.262  0.1152  0.2318  0.2112
22389W        W65483  24.340   7.048   7.541 -0.2490 -0.2164 -0.1109
22390W        W65484  22.441   8.802   9.618 -0.4961  0.0110  0.1660
22391W        W65485  21.669  11.360   8.026 -0.3301 -0.1155  0.4127
22392W        W65486  24.921   8.522   8.844 -0.1791 -0.2809  0.1499
22393W        W65487  22.548   9.707   7.833 -0.0299 -0.0350  0.1500
22394W        W65488  24.533   9.650   8.641 -0.0648 -0.1622  0.1316
22395W        W65489  22.761   8.445   7.149  0.1039  0.2909  0.1331
22396W        W65490  22.571  10.048   8.253 -0.0419 -0.1711 -0.1171
22397W        W65491  23.389  10.940   8.122 -0.0277 -0.1079 -0.1678
22398W        W65492  26.162   9.882   7.835 -0.0397  0.1223 -0.3655
22399W        W65493  25.378   7.034   8.529  0.1402 -0.0155 -0.0873
22400W        W65494  26.596   9.568  10.193  0.0708  0.1999 -0.3428
22401W        W65495  23.245   8.887   9.802  0.0317 -0.3414 -0.0808
22402W        W65496  24.360   6.958   8.694  0.0453  0.1308  0.0631
22403W        W65497  25.018   7.574   7.400 -0.0611 -0.1153 -0.0990
22404W        W65498  23.030   9.740   9.732  0.1222  0.0729 -0.1331
22405W        W65499  20.532   8.271   6.693 -0.0057  0.0446  0.1204
22406W        W65500  21.533   9.563   7.580 -0.1298  0.2603  0.0288
22407W        W65501  23.085  10.506   8.786  0.3687  0.1880  0.3683
22408W        W65502  23.168   9.795   9.177  0.0510  0.0211  0.0639
22409W        W65503  21.218   7.454   8.683  0.0478  0.2994 -0.1464
22410W        W65504  25.926   8.826   7.055  0.1311  0.0810  0.0705
22411W        W65505  23.420   7.271   9.798  0.1232 -0.0124  0.0693
22412W        W65506  20.795   7.323   8.436 -0.0859 -0.0185  0.1758
22413W        W65507  24.214  10.781   9.257  0.3692  0.0025  0.1207
22414W        W65508  24.692  10.617   8.365 -0.0715 -0.0263 -0.2255
22415W        W65509  21.583   9.378   9.757 -0.1169 -0.0577  0.0926
22416W        W65510  22.197   9.488   6.171  0.0603 -0.0478 -0.0555
22417W        W65511  22.066   7.556   7.463  0.1653  0.0418 -0.1158
22418W        W65512  24.064   7.171   8.342  0.0552 -0.1073 -0.2205
22419W        W65513  25.014  10.314   9.250  0.0542  0.0762  0.0334
22420W        W65514  23.877  10.142   6.792 -0.3266  0.1068 -0.3203
22421W        W65515  21.984   8.102   9.830  0.1023  0.2200  0.1758
22422W        W65516  25.004   9.578   8.881 -0.2439 -0.1192  0.1893
22423W        W65517  24.795   9.981   8.947 -0.4110  0.1273  0.0857
22424W        W65518  24.617   8.808   8.548 -0.1771 -0.0177 -0.0087
22425W        W65519  23.767   9.099   8.399  0.1161  0.1503  0.0368
22426W        W65520  24.296   7.674   8.822 -0.2061  0.0286  0.2894
22427W        W65521  22.387   7.905   8.816 -0.2316  0.1853 -0.1150
22428W        W65522  23.933   8.228   8.043 -0.1448  0.1596 -0.1263
22429W        W65523  24.613  10.579   8.927  0.0232  0.1453 -0.1386
22430W        W65524  22.283  11.003   9.510 -0.0775  0.3011  0.2375
22431W        W65525  23.027   9.675   8.586  0.1744 -0.0016  0.0243
22432W        W65526  24.142  10.993   8.451  0.2419 -0.0067 -0.3253
22433W        W65527  22.888   7.927   6.867  0.1295  0.1518 -0.1737
22434W        W65528  23.826   9.850   7.346 -0.1143 -0.1872 -0.3094
22435W        W65529  20.144  11.829   9.523  0.0326 -0.0381 -0.2610
22436W        W65530  23.758  11.956   9.898  0.0174  0.0317  0.0755
22437W        W65531  26.716  10.237  10.102  0.0891  0.0913  0.1775
22438W        W65532  22.469   7.716  10.539  0.0408  0.0027 -0.0013
22439W        W65533  22.699   9.097   8.404 -0.0141 -0.0616  0.0064
22440W        W65534  24.683   8.925   8.071  0.4920 -0.0314 -0.0855
22441W        W65535  24.579   6.856  10.272  0.2299  0.0351 -0.0305
22442W        W65536  22.786   9.244   9.926 -0.1011 -0.1706 -0.0190
22443W        W65537  24.745   7.882   8.401 -0.1699  0.1219  0.2998
22444W        W65538  23.318  11.701   9.733 -0.0657 -0.2455 -0.0737
22445W        W65539  23.473   9.398   9.880  0.0392 -0.0456  0.1718
22446W        W65540  23.510  14.498   3.898 -0.0153 -0.0361  0.1741
22447W        W65541  22.654  11.657   0.366 -0.1578  0.2651 -0.0085
22448W        W65542  25.629  10.505   0.725 -0.0254 -0.1349  0.0798
22449W        W65543  24.011  12.588  31.256  0.0645 -0.0933  0.3792
22450W        W65544  21.863  12.308   2.306 -0.1769 -0.0213  0.2087
22451W        W65545  23.567  14.403   1.692  0.2066  0.0725  0.2681
22452W        W65546  21.400  10.283   3.339 -0.1688  0.1600  0.1694
22453W        W65547  22.943  13.967   1.780  0.1796  0.2813  0.2470
22454W        W65548  24.354  13.944   3.615 -0.1844  0.1332 -0.2253
22455W        W65549  24.068  14.895   0.978  0.1864 -0.3466 -0.1188
22456W        W65550  23.614  12.422   1.838  0.1151  0.0137 -0.1303
22457W        W65551  23.151  13.499   2.714 -0.0309 -0.3670  0.3649
22458W        W65552  23.428  12.713   1.163 -0.0667  0.2208 -0.2944
22459W        W65553  20.903  10.958   2.660 -0.1772  0.2082  0.3728
22460W        W65554  24.266  14.038   1.720  0.0786  0.3251  0.0392
22461W        W65555  21.703  15.001   0.372  0.0823  0.0262  0.2283
22462W        W65556  22.737  12.257   1.957  0.1174 -0.2679 -0.0135
22463W        W65557  23.152  13.663   1.432 -0.3125 -0.1782  0.4067
22464W        W65558  23.270  14.124   2.122 -0.2758 -0.1031  0.0913
22465W        W65559  22.240  12.145   1.957  0.0910  0.1142 -0.1811
22466W        W65560  23.445  11.191   1.962  0.2139  0.1312 -0.1980
22467W        W65561  22.125  14.375  31.506  0.0599  0.2427  0.2825
22468W        W65562  23.661  11.655  31.739 -0.1536 -0.0235 -0.1447
22469W        W65563  21.743  11.820   1.243  0.1213  0.1795 -0.0862
22470W        W65564  22.338  12.533   2.229 -0.2337 -0.0739  0.0676
22471W        W65565  25.712  12.511   2.259  0.2291  0.1040  0.2888
22472W        W65566  25.372  13.148   1.079  0.1376  0.5451 -0.1446
22473W        W65567  23.065  14.465   1.577  0.0419 -0.2629  0.1578
22474W        W65568  26.103  13.651   1.619  0.0445  0.1835 -0.0916
22475W        W65569  24.759  11.252   3.705  0.3829 -0.0593 -0.2387
22476W        W65570  22.282  13.378   2.846 -0.0538  0.2470 -0.3524
22477W        W65571  21.021  14.539  31.169 -0.1460 -0.1005  0.3023
22478W        W65572  22.578  14.868   0.880  0.1078  0.2446 -0.2201
22479W        W65573  23.554  13.297   1.975  0.3020 -0.2605  0.0009
22480W        W65574  24.546  14.067   2.573 -0.0086  0.2371 -0.1917
22481W        W65575  23.718  14.229   3.122 -0.0634 -0.0594 -0.1970
22482W        W65576  21.774  14.610  31.826  0.0446  0.1356 -0.1022
22483W        W65577  23.655  13.564   2.900 -0.0861  0.1041  0.1291
22484W        W65578  24.153  13.963   4.638 -0.0416 -0.0138  0.1942
22485W        W65579  24.472  13.150   2.774 -0.3163  0.1411  0.2050
22486W        W65580  22.539  12.895   0.968 -0.0391  0.0938  0.3405
22487W        W65581  21.454  13.973   0.587  0.3870 -0.0771  0.0471
22488W        W65582  23.401  12.849   1.692  0.1799 -0.1307  0.1262
22489W        W65583  22.976  13.970   3.687  0.0091  0.2204  0.0595
22490W        W65584  21.920  14.125   2.948  0.2353  0.2385 -0.1941
22491W        W65585  26.141  11.826   5.235 -0.2198 -0.0029 -0.3693
22492W        W65586  22.260  13.866   1.722 -0.1347  0.0324 -0.1633
22493W        W65587  22.815  12.701   0.210  0.0550  0.1110  0.1816
22494W        W65588  22.106  13.057  31.715  0.0605  0.4897  0.0055
22495W        W65589  24.875  12.853  31.526 -0.0368 -0.3528 -0.1637
22496W        W65590  23.817  10.653   2.710 -0.0279  0.2921 -0.0886
22497W        W65591  22.632  14.733   0.371 -0.0682 -0.3149 -0.1352
22498W        W65592  23.148  11.124   3.420  0.0890 -0.1782 -0.1921
22499W        W65593  25.584  12.611   3.907  0.0884  0.2262 -0.0778
22500W        W65594  23.334  12.764   0.656  0.1208 -0.2617 -0.0499
22501W        W65595  23.969  11.738   2.964  0.1114 -0.0651  0.1189
22502W        W65596  22.489  14.153   2.637  0.0811  0.1081 -0.0721
22503W        W65597  21.795  14.070   1.628  0.1017  0.0451 -0.0769
22504W        W65598  23.587  14.064   0.036 -0.0344  0.1501 -0.0841
22505W        W65599  25.078  15.614   2.653  0.1954  0.2586  0.2342
22506W        W65600  23.348  13.757   0.404 -0.0159 -0.2141 -0.1745
22507W        W65601  21.623  13.772   1.192 -0.3391  0.0483  0.2012
22508W        W65602  21.991  12.997   2.969  0.0096  0.1908  0.1064
22509W        W65603  22.928  13.102   1.653  0.3066  0.1072 -0.1393
22510W        W65604  21.403  12.592   0.550  0.0279  0.1086  0.1512
22511W        W65605  24.587  13.649   4.532 -0.2132 -0.2023  0.3529
22512W        W65606  21.276  14.220   2.787  0.3539  0.3034  0.1173
22513W        W65607  24.958  12.837   1.907  0.0429  0.1146 -0.1556
22514W        W65608  22.921  14.359   0.100  0.2017  0.0156 -0.0965
22515W        W65609  24.252  13.631   2.777 -0.0182  0.1827  0.1182
22516W        W65610  23.593  14.173   0.824  0.3622 -0.2834 -0.2061
22517W        W65611  24.377  11.018   1.784 -0.2290  0.1297 -0.5104
22518W        W65612  23.982  11.731   1.265  0.1036 -0.0298  0.0543
22519W        W65613  22.076  14.119  31.906 -0.0774  0.2311 -0.0122
22520W        W65614  22.684  12.182   0.330  0.1233  0.1882 -0.2910
22521W        W65615  23.976  13.788   3.261 -0.1791  0.1164 -0.1198
22522W        W65616  24.634  13.534  31.052  0.1607  0.2593 -0.2476
22523W        W65617  23.681  15.036   3.033 -0.0929 -0.3546  0.3848
22524W        W65618  23.015  11.536   3.115  0.2486 -0.0106 -0.2923
22525W        W65619  23.575  12.911   3.658 -0.1184  0.2991 -0.0329
22526W        W65620  20.791  14.733  31.701  0.3241  0.0360  0.1094
22527W        W65621  21.582  13.189   2.727  0.0668 -0.0271 -0.3381
22528W        W65622  19.731  14.068  31.548  0.1075  0.1602  0.2413
22529W        W65623  21.689  10.698   3.313 -0.3972  0.0415 -0.4957
22530W        W65624  23.870  13.687   1.863  0.2236  0.1627 -0.0827
22531W        W65625  26.187  11.055   1.180  0.0479 -0.1295 -0.0216
22532W        W65626  21.376  12.407   3.737  0.0747  0.0061  0.3430
22533W        W65627  25.268  11.795   0.570 -0.0812  0.1659  0.2551
22534W        W65628  21.551  13.019   1.845  0.2740 -0.3328 -0.1590
22535W        W65629  24.136  15.333   1.893 -0.1476  0.0255 -0.1871
22536W        W65630  25.219  12.339   1.886  0.2668  0.2186 -0.0110
22537W        W65631  24.232  14.606   0.639 -0.0109 -0.0497 -0.2474
22538W        W65632  21.014  13.216   2.578 -0.0789 -0.0957 -0.0477
22539W        W65633  21.580  12.432   1.911 -0.2802 -0.0330 -0.3676
22540W        W65634  21.866  11.144   3.150 -0.0394 -0.5111 -0.2408
22541W        W65635  21.209   9.896   3.028  0.2075 -0.2010  0.1632
22542W        W65636  24.754  11.706   2.461  0.1261 -0.1194 -0.2325
22543W        W65637  20.857  12.406   0.832 -0.3044 -0.2756  0.0449
22544W        W65638  25.636  12.749   0.222  0.3547  0.3013 -0.2011
22545W        W65639  23.348  14.139   1.346 -0.0444 -0.0989 -0.1059
22546W        W65640  21.438  12.928   0.124 -0.1146 -0.0287  0.1796
22547W        W65641  24.467  10.542   3.212  0.0294 -0.2867  0.1298
22548W        W65642  23.894  15.959   1.651 -0.3029 -0.2198  0.3569
22549W        W65643  23.700  14.497   2.530  0.1027 -0.1017  0.1938
22550W        W65644  24.712  13.892   1.698  0.1774 -0.1097 -0.0503
22551W        W65645  21.428  11.823   2.009  0.2089 -0.0179  0.2039
22552W        W65646  24.390  11.899   1.533  0.3719  0.1694 -0.3012
22553W        W65647  22.023  14.558   1.154 -0.0770  0.2914 -0.1964
22554W        W65648  23.384  14.868   2.628  0.0892 -0.1891  0.0601
22555W        W65649  23.040  13.166  31.824  0.3922  0.2540  0.1489
22556W        W65650  24.715  13.521  31.698 -0.2173 -0.0382 -0.0360
22557W        W65651  23.261  12.295   0.874 -0.2968 -0.2208 -0.0342
22558W        W65652  22.058  12.760   2.532 -0.1621  0.0624 -0.3510
22559W        W65653  23.801   9.823   3.328  0.5016  0.1026  0.1270
22560W        W65654  25.199  11.250   2.306 -0.0396  0.1443  0.1580
22561W        W65655  24.337  11.398   1.431  0.0117 -0.0803  0.2068
22562W        W65656  22.866  13.929   0.458 -0.0704  0.2606 -0.2108
22563W        W65657  23.288  15.228   2.282 -0.1027 -0.0143 -0.1744
22564W        W65658  20.313  14.814   0.012  0.2235  0.0681  0.0306
22565W        W65659  21.731  13.544   1.640  0.3053  0.0383 -0.0455
22566W        W65660  22.128  15.671   1.031  0.3149  0.1728  0.0818
22567W        W65661  25.410  11.963   0.146  0.2431 -0.0299  0.0682
22568W        W65662  22.269  12.356   3.661 -0.2213 -0.0645 -0.0024
22569W        W65663  24.377  11.414   2.859 -0.0905  0.1552 -0.0238
22570W        W65664  21.255  13.051   0.892 -0.3196 -0.1114 -0.0252
22571W        W65665  22.700  12.513   2.559  0.0350 -0.0217 -0.0628
22572W        W65666  25.772  11.666   0.381 -0.0895  0.2898  0.2768
22573W        W65667  25.501  12.249   0.896 -0.0613  0.5004  0.1053
22574W        W65668  24.005  13.213   2.983  0.0490  0.0090  0.1458
22575W        W65669  24.367  13.455  30.525  0.0991 -0.6074  0.1000
22576W        W65670  22.365  12.196  31.596  0.1162 -0.0040  0.4663
22577W        W65671  24.891  12.027   0.357  0.2426  0.0998  0.0240
22578W        W65672  21.641  13.885   2.603 -0.0933 -0.2432 -0.0754
22579W        W65673  24.389  13.691   1.297 -0.0937  0.2101 -0.1102
22580W        W65674  22.436  13.056   1.436  0.1286 -0.0211 -0.2356
22581W        W65675  22.557  13.488   1.670 -0.2888 -0.2307  0.0192
22582W        W65676  24.504  14.174   1.239  0.2191  0.5961 -0.0085
22583W        W65677  22.121  13.755   2.451  0.1301 -0.0561  0.0009
22584W        W65678  24.417  12.847   3.136  0.0667  0.0956 -0.0428
22585W        W65679  23.886  12.757   1.466 -0.0074  0.4487  0.0013
22586W        W65680  23.649  10.270   3.497  0.0377 -0.1913  0.1393
22587W        W65681  20.809  14.371   0.071 -0.4252  0.2025  0.2200
22588W        W65682  24.577  12.510   1.100  0.1270 -0.1565 -0.5497
22589W        W65683  21.193  13.595   0.921 -0.0528  0.1909  0.1092
22590W        W65684  25.119  12.588   2.301 -0.0753  0.0415 -0.0184
22591W        W65685  23.917  10.974   1.431 -0.2637 -0.1406 -0.1497
22592W        W65686  23.104   9.441   1.220  0.3320 -0.0389 -0.1370
22593W        W65687  25.278  11.191   2.965 -0.1440  0.2882  0.1137
22594W        W65688  23.433  13.266   0.838  0.3381 -0.4052 -0.1159
22595W        W65689  23.779  12.684   0.381 -0.1129 -0.2206 -0.1882
22596W        W65690  21.794  11.996   1.708  0.4444  0.0479 -0.3340
22597W        W65691  22.745  11.572   2.341  0.0380  0.0528 -0.0964
22598W        W65692  22.521  12.042   2.410 -0.1780 -0.0931 -0.1199
22599W        W65693  21.356  13.026   3.740 -0.3659  0.1735 -0.0639
22600W        W65694  24.219  13.153   4.331  0.1072 -0.0456 -0.1119
22601W        W65695  23.379  12.998  31.202  0.0398  0.1198 -0.1566
22602W        W65696  22.990  11.119   1.541  0.2116  0.1859 -0.1946
22603W        W65697  24.488  11.530   0.296  0.2050  0.3725 -0.0730
22604W        W65698  22.995  15.183   0.901  0.4523 -0.1620 -0.2746
22605W        W65699  22.539  13.886   2.185  0.4631 -0.0714 -0.1031
22606W        W65700  23.189  11.578   1.324 -0.0906  0.1542 -0.0204
22607W        W65701  23.017  14.780   2.255  0.0998 -0.1629 -0.0445
22608W        W65702  22.466  13.430  30.575 -0.0170 -0.0459  0.0247
22609W        W65703  24.690  12.233   1.876 -0.0829  0.0824 -0.0949
22610W        W65704  21.788  14.167   0.918  0.2764 -0.0011 -0.1865
22611W        W65705  25.206   9.613   1.826  0.1297 -0.2332  0.3676
22612W        W65706  21.528  14.590   1.836 -0.1102 -0.2818  0.0590
22613W        W65707  21.832  12.383   0.334  0.1802  0.1927 -0.0282
22614W        W65708  21.545  12.789   1.342  0.1038 -0.1978  0.0975
22615W        W65709  23.908  11.294   1.069 -0.3694  0.0579 -0.2919
22616W        W65710  23.285  12.325   0.413 -0.0789  0.1025  0.4652
22617W        W65711  22.417  12.633   1.710 -0.0825 -0.1297  0.0322
22618W        W65712  24.820  11.165   1.282 -0.0395 -0.2861  0.1104
22619W        W65713  22.522  14.599   2.410  0.1248  0.0904  0.0184
22620W        W65714  24.350  12.508   1.627 -0.0730 -0.0087  0.0387
22621W        W65715  23.900  13.114  31.250 -0.0026 -0.4091  0.0892
22622W        W65716  24.300  13.761   2.271 -0.1367  0.0190 -0.0859
22623W        W65717  22.757  13.591   3.347  0.0294 -0.2890  0.0691
22624W        W65718  20.082  12.033  31.710  0.3855 -0.2975  0.1936
22625W        W65719  25.431  11.905   1.372  0.2993  0.2368 -0.1710
22626W        W65720  22.247  13.447   2.062  0.0658  0.1002 -0.2743
22627W        W65721  22.248  14.312   2.088 -0.0460 -0.0897  0.4492
22628W        W65722  23.427  13.966   3.955 -0.2357  0.0625  0.2453
22629W        W65723  21.670  14.882   0.897 -0.0339  0.3261  0.2374
22630W        W65724  22.620  13.455   1.093  0.3111  0.0392 -0.0014
22631W        W65725  22.809  11.420   4.218  0.0538  0.2797  0.1782
22632W        W65726  25.199  12.595   1.053 -0.0076 -0.0357  0.0605
22633W        W65727  23.540  11.925   1.811  0.1359  0.0122 -0.0016
22634W        W65728  21.359  11.611   0.590  0.1664 -0.0298 -0.0964
22635W        W65729  24.250  12.153   1.149  0.1771  0.2055 -0.2971
22636W        W65730  24.345  13.432   3.284  0.1725  0.0225 -0.1066
22637W        W65731  24.403  11.920   2.125 -0.1820 -0.1499 -0.1775
22638W        W65732  23.212  14.291   3.467  0.1813  0.1066 -0.0993
22639W        W65733  24.450  11.286   0.881  0.1580  0.2135  0.1231
22640W        W65734  26.064  16.072  31.077  0.1231  0.1788 -0.1574
22641W        W65735  24.073  12.368   2.164 -0.0716  0.0492  0.0495
22642W        W65736  22.115  12.099   3.246 -0.0029 -0.2463  0.0601
22643W        W65737  23.264  13.489   3.271 -0.1576  0.0231  0.2384
22644W        W65738  23.013  13.556   0.779  0.0079  0.0235  0.4417
22645W        W65739  23.592  10.683   2.182 -0.1862 -0.1874 -0.0270
22646W        W65740  22.397  14.063   3.142  0.4806 -0.1728 -0.2086
22647W        W65741  21.743  14.282   2.136  0.2143 -0.2554 -0.0131
22648W        W65742  22.827  14.257   3.049  0.2197 -0.1342  0.0853
22649W        W65743  25.912   9.274   0.842  0.1331  0.0637  0.1197
22650W        W65744  23.592  13.679   1.200  0.1923  0.0008  0.1169
22651W        W65745  23.004  13.047   1.064  0.1658  0.1503  0.0774
22652W        W65746  25.066  11.703   3.932  0.1701  0.3546 -0.1655
22653W        W65747  21.959  13.160  30.405  0.1766 -0.1120 -0.2430
22654W        W65748  23.954  11.213   3.089 -0.0642  0.0065  0.3040
22655W        W65749  22.318  10.662   2.422  0.0341 -0.0212  0.1131
22656W        W65750  22.583  13.143  31.951  0.2460  0.2630 -0.1040
22657W        W65751  21.029  11.715   1.548  0.0198  0.0069 -0.1239
22658W        W65752  23.908  13.626   3.763  0.5823 -0.1738 -0.0967
22659W        W65753  21.527  12.857   3.200 -0.1046  0.4143  0.0041
22660W        W65754  24.942  12.124  30.987 -0.0905  0.1260  0.0162
22661W        W65755  22.059  11.445   1.426  0.2381  0.0637  0.2857
22662W        W65756  22.723  12.806   2.075 -0.1137 -0.4220  0.0929
22663W        W65757  24.968  14.232   0.321 -0.0175  0.0411  0.0047
22664W        W65758  23.697  14.492   1.189  0.2642  0.0613  0.3302
22665W        W65759  25.094  11.728   2.092  0.1534 -0.3219 -0.2194
22666W        W65760  22.064  14.474   1.667  0.0068 -0.0600  0.4109
22667W        W65761  24.431  11.878   0.606  0.3068 -0.0547 -0.1291
22668W        W65762  21.663  14.415   0.380 -0.1684 -0.3941 -0.2619
22669W        W65763  21.363  13.933   1.766 -0.1804 -0.3005  0.2203
22670W        W65764  22.521  10.595   3.050 -0.0312 -0.0000 -0.5259
22671W        W65765  23.984  13.969   1.249  0.0554  0.2884  0.1013
22672W        W65766  24.271  12.861  31.590  0.0304 -0.2916  0.1958
22673W        W65767  23.936  11.109   2.148 -0.1683  0.2232  0.0027
22674W        W65768  24.418  11.354   2.295 -0.1454  0.4162 -0.1108
22675W        W65769  22.056  11.615   3.128  0.2016 -0.3795  0.4948
22676W        W65770  22.626  12.634   3.404 -0.2624  0.0365 -0.0985
22677W        W65771  24.398  15.416   4.621 -0.0919 -0.0985 -0.0443
22678W        W65772  24.389  12.179   0.127  0.3948 -0.2924 -0.1259
22679W        W65773  22.851  10.987   2.932  0.5677  0.1527  0.1507
22680W        W65774  24.507  12.961  31.174  0.4596  0.1509 -0.0513
22681W        W65775  23.106  12.112   0.003 -0.2339 -0.0593 -0.0232
22682W        W65776  23.627  12.138   2.298 -0.4229  0.0340  0.0567
22683W        W65777  24.019  13.173   2.378  0.0618  0.1094  0.0158
22684W        W65778  24.213  11.263  31.957 -0.0077  0.1690 -0.1808
22685W        W65779  24.272  10.834   2.333 -0.0949  0.0781 -0.0438
22686W        W65780  22.717  14.335   1.175  0.4351 -0.3221 -0.0642
22687W        W65781  22.523  13.928   0.827  0.0206  0.0986  0.2976
22688W        W65782  22.798  13.104   0.556 -0.0589  0.3602 -0.0725
22689W        W65783  22.576  11.755   1.907 -0.1129 -0.0246 -0.0444
22690W        W65784  24.226  13.067   1.904 -0.3672 -0.2415 -0.1560
22691W        W65785  21.864  12.013  31.462 -0.0904 -0.2500 -0.0107
22692W        W65786  21.306  14.632  31.959 -0.0943 -0.3606  0.0263
22693W        W65787  23.684  13.127   4.104  0.0118 -0.2464 -0.2608
22694W        W65788  24.404  12.436   2.742 -0.3910  0.0711  0.0423
22695W        W65789  24.647  11.573   1.896  0.2888  0.1947 -0.0545
22696W        W65790  25.874  11.973   2.404  0.1279  0.4215 -0.1926
22697W        W65791  21.485  14.407   1.353 -0.2667  0.0483 -0.2404
22698W        W65792  24.971  12.203   1.469  0.1197  0.4092  0.0052
22699W        W65793  23.501  12.639   2.747 -0.2154 -0.0156 -0.0257
22700W        W65794  22.188  13.441   4.738  0.0112  0.1097 -0.3206
22701W        W65795  22.601  14.321   1.681 -0.0093 -0.1494  0.2337
22702W        W65796  23.020  11.700   1.801 -0.0515  0.2192 -0.0701
22703W        W65797  25.086  12.874   0.091 -0.1102 -0.1301  0.0099
22704W        W65798  23.419  13.225   1.370 -0.3596 -0.1447  0.0212
22705W        W65799  24.938  11.761   3.482 -0.1600  0.1848  0.0371
22706W        W65800  23.626  11.963   3.260  0.4054 -0.1691  0.2830
22707W        W65801  21.909  13.266   2.394 -0.2022 -0.2232  0.2121
22708W        W65802  23.524  13.885   3.463  0.0067 -0.0964 -0.1242
22709W        W65803  22.881  12.608   0.757  0.1909 -0.3457 -0.2586
22710W        W65804  22.759  15.176   2.352  0.0693  0.0595  0.0036
22711W        W65805  21.367  12.038   4.047  0.0992  0.1645 -0.0657
22712W        W65806  24.007  12.143   1.711  0.0806 -0.5300  0.1938
22713W        W65807  23.448  13.898   1.738  0.1676  0.1073  0.2089
22714W        W65808  22.296  11.319   2.237 -0.3199 -0.1936 -0.0921
22715W        W65809  21.652  13.349  31.306  0.0249 -0.3078  0.0615
22716W        W65810  22.680  14.207   4.044 -0.1194  0.1394  0.0981
22717W        W65811  21.757  13.744   2.078 -0.0616 -0.0520  0.2314
22718W        W65812  20.353  13.971  31.804  0.1470 -0.3136  0.0425
22719W        W65813  25.123  12.876   0.593 -0.0705 -0.1055 -0.2813
22720W        W65814  23.754  13.637   0.667  0.3900 -0.0781 -0.0307
22721W        W65815  22.822  14.363   2.108  0.2788 -0.2086 -0.3583
22722W        W65816  22.251  11.962   1.493 -0.1118 -0.2317  0.0721
22723W        W65817  21.877  14.598   3.822  0.1543  0.4400 -0.0148
22724W        W65818  20.857  14.643  30.762  0.1444 -0.0491 -0.1366
22725W        W65819  22.963  13.985   2.475 -0.1155  0.3003  0.0616
22726W        W65820  20.834  14.871   0.225 -0.0119  0.2539  0.1661
22727W        W65821  24.283  13.927   4.137  0.2321 -0.0901  0.0434
22728W        W65822  25.721  11.739   0.920  0.1623 -0.0613 -0.3861
22729W        W65823  25.564  12.436   1.535  0.2873 -0.2316 -0.2345
22730W        W65824  25.527  10.573   1.769 -0.0375 -0.1085 -0.0190
22731W        W65825  23.715  13.755   4.721  0.2122 -0.0327  0.1036
22732W        W65826  23.344  13.651   2.283  0.2286  0.1199  0.0811
22733W        W65827  22.831  11.260   0.553 -0.0828 -0.0069 -0.4562
22734W        W65828  22.495  12.777   2.944 -0.0571  0.0829  0.4468
22735W        W65829  24.524  10.963   4.018 -0.1048 -0.1712 -0.0245
22736W        W65830  21.723  14.452   3.395 -0.2438  0.2143  0.2998
22737W        W65831  23.449  14.915   0.884  0.3447  0.0427 -0.2027
22738W        W65832  22.819  12.355  31.643  0.1118 -0.0480  0.0706
22739W        W65833  24.277  12.383   0.708  0.0800  0.0359  0.1745
22740W        W65834  24.472  10.514   1.873 -0.0001  0.0495  0.1778
22741W        W65835  21.698  12.849  30.995  0.4026  0.0750 -0.0553
22742W        W65836  23.958  13.156   0.571 -0.1588  0.1354 -0.1724
22743W        W65837  22.429  14.745   1.441  0.2270  0.0004 -0.2739
22744W        W65838  22.612  15.165   3.041  0.1327 -0.1389  0.2437
22745W        W65839  23.831  13.613   2.448 -0.0344 -0.1900 -0.5631
22746W        W65840  21.082  13.045   1.435  0.2244  0.5787  0.1578
22747W        W65841  24.775  13.605   0.967 -0.0234  0.2103  0.0973
22748W        W65842  22.127  12.588   3.248 -0.0226 -0.0682 -0.2150
22749W        W65843  24.737  10.884   2.145  0.0593  0.1480  0.1766
22750W        W65844  22.029  12.892   2.013 -0.1156  0.0420  0.0698
22751W        W65845  23.442  13.285   0.361 -0.0588 -0.2275 -0.0928
22752W        W65846  23.121  12.327   2.693  0.0607  0.1494  0.1259
22753W        W65847  21.639  11.518   1.678 -0.2170 -0.2373 -0.1298
22754W        W65848  21.519  12.421  31.900  0.0784  0.0833  0.2441
22755W        W65849  24.857  13.496   1.439  0.2519  0.2318  0.1426
22756W        W65850  21.295  14.143   0.084 -0.1051  0.1503 -0.0271
22757W        W65851  25.695  14.025   3.997  0.1233  0.0286 -0.1265
22758W        W65852  21.264  12.177   1.506  0.1826 -0.1939 -0.2009
22759W        W65853  22.947  13.501   0.244 -0.0328 -0.0962  0.1092
22760W        W65854  21.136  13.523   1.802 -0.1346 -0.0005 -0.1841
22761W        W65855  22.203  12.371   2.786 -0.1879 -0.1108  0.2722
22762W        W65856  24.830  14.671   4.805 -0.3901  0.0878  0.0556
22763W        W65857  22.352  11.300   0.621  0.1212  0.1009 -0.4386
22764W        W65858  23.493  14.323  31.091 -0.2724 -0.0827 -0.0568
22765W        W65859  25.494  12.785   1.896  0.0051  0.1395  0.1168
22766W        W65860  23.187  14.542   1.088  0.2616 -0.1199  0.0181
22767W        W65861  24.272  13.622  31.872  0.1018 -0.0822  0.0765
22768W        W65862  24.416  13.521   1.844 -0.1495  0.0879 -0.1434
22769W        W65863  19.678  13.563   2.911  0.0011  0.0945 -0.0191
22770W        W65864  23.012  13.509   1.961  0.0715 -0.0130  0.1558
22771W        W65865  24.727  13.790   3.068  0.0756 -0.1055  0.4288
22772W        W65866  24.819  11.565   0.635  0.0051 -0.2720  0.1183
22773W        W65867  22.928  12.603   1.637  0.0992 -0.0336 -0.0882
22774W        W65868  21.484  15.458   0.445 -0.0512  0.0210  0.2788
22775W        W65869  25.006  11.637   1.522  0.1975  0.0918  0.1417
22776W        W65870  25.191  10.940   1.946  0.0215  0.1201 -0.1890
22777W        W65871  23.092  14.884   0.491  0.0808 -0.0329 -0.3316
22778W        W65872  24.405  10.440   2.721  0.0363  0.3345  0.3235
22779W        W65873  22.311  14.456   4.322 -0.0428  0.2583  0.2433
22780W        W65874  23.689  14.987   3.895 -0.0195  0.0962  0.1049
22781W        W65875  22.280  12.387   0.150  0.2371  0.2979 -0.1482
22782W        W65876  24.859  12.782   2.736 -0.0473 -0.0802  0.0922
22783W        W65877  22.892  14.730   3.281  0.0522  0.1570  0.2774
22784W        W65878  23.441  14.916   1.382  0.0296 -0.2653 -0.0677
22785W        W65879  22.992  14.968   1.775 -0.1520  0.0866 -0.0286
22786W        W65880  24.591  13.071  31.944 -0.1070  0.0292  0.2446
22787W        W65881  24.972  13.965   1.320 -0.3926  0.1372 -0.1351
22788W        W65882  23.951  11.710   0.751  0.1418 -0.3187 -0.0335
22789W        W65883  26.232  10.813   0.765  0.2556 -0.1672  0.0146
22790W        W65884  24.584  11.707   1.098 -0.0079  0.0778 -0.1955
22791W        W65885  23.477  13.124   2.644 -0.2078  0.1004  0.1244
22792W        W65886  20.813  13.237  31.541  0.3073 -0.0778  0.0121
22793W        W65887  22.180  13.873   0.344 -0.0851  0.2237  0.0594
22794W        W65888  22.626  13.457   2.418 -0.1505 -0.0194  0.1446
22795W        W65889  23.567  11.048   2.525 -0.1683 -0.0717  0.1119
22796W        W65890  22.374  11.185   2.798 -0.0317 -0.3480 -0.1404
22797W        W65891  23.212  12.534   2.179  0.1735 -0.2702 -0.2088
22798W        W65892  22.837  12.100   0.982 -0.0349 -0.0615  0.0563
22799W        W65893  22.190  14.083   1.218 -0.0386  0.1025  0.2974
22800W        W65894  22.094  11.781   2.344 -0.0905 -0.0879 -0.1185
22801W        W65895  21.007  10.500   2.169  0.2073  0.3049  0.3518
22802W        W65896  23.823  13.067   1.045  0.0154  0.1015  0.4153
22803W        W65897  23.803  14.145   2.139 -0.0182 -0.0041  0.1659
22804W        W65898  23.850  12.537   0.944  0.0681  0.1545  0.1762
22805W        W65899  25.145  13.058   4.411  0.0761 -0.1202 -0.0940
22806W        W65900  21.446  12.417  31.383 -0.0355  0.0071  0.1510
22807W        W65901  22.586  11.753   3.270 -0.1110 -0.0851 -0.0916
22808W        W65902  23.958  11.329   2.579 -0.1423  0.0107 -0.0009
22809W        W65903  21.925  13.089   1.471 -0.0821 -0.0706 -0.1061
22810W        W65904  23.400  11.629   2.222  0.0616  0.2660 -0.2204
22811W        W65905  24.104  14.425   1.433 -0.1465 -0.1208 -0.3624
22812W        W65906  24.465  14.346   0.233 -0.2054 -0.3161  0.0363
22813W        W65907  23.063  11.998   2.302  0.1260 -0.2819  0.0930
22814W        W65908  25.124  13.942   3.362  0.1340  0.0399 -0.0178
22815W        W65909  21.766   9.776   2.671  0.1325 -0.0526 -0.1212
22816W        W65910  22.636  13.007  31.471  0.2286 -0.1864  0.0013
22817W        W65911  22.868  11.913   2.781 -0.0666  0.0731 -0.1876
22818W        W65912  24.021  13.298   1.518  0.0964  0.0489  0.2127
22819W        W65913  25.367  10.869   3.436  0.0564 -0.1704 -0.1128
22820W        W65914  23.131  14.302  31.592 -0.3397 -0.0400  0.1239
22821W        W65915  20.932  10.089   3.928 -0.1490  0.0456 -0.2757
22822W        W65916  21.720  12.577   2.829  0.3757  0.2233 -0.0116
22823W        W65917  25.770  13.083   2.924  0.0779  0.1352  0.2558
22824W        W65918  22.118  12.635   1.290 -0.0722 -0.1045  0.2999
22825W        W65919  25.046  12.099  31.579 -0.2365  0.1895 -0.1006
22826W        W65920  22.667  13.875   1.367 -0.0907  0.1949  0.0188
22827W        W65921  21.566  12.833   2.291 -0.2218  0.0209 -0.0290
22828W        W65922  24.238  12.749   0.116 -0.0343  0.0195  0.0423
22829W        W65923  23.475  11.503   3.064  0.3419  0.3481  0.0222
22830W        W65924  22.495  12.986   2.497  0.2165  0.0027  0.2108
22831W        W65925  24.596  12.806   2.281 -0.1235 -0.2050 -0.0575
22832W        W65926  22.048  13.751   0.906 -0.1205 -0.1331  0.1396
22833W        W65927  25.696  14.564   0.168  0.0409 -0.0306  0.3024
22834W        W65928  24.187  15.062   3.174 -0.1103  0.1244 -0.3882
22835W        W65929  25.017  14.235   3.771  0.0946  0.1793 -0.1393
22836W        W65930  23.187  13.914   2.998 -0.5539 -0.1043  0.3042
22837W        W65931  24.586  12.946   0.494 -0.1426  0.1155  0.0248
22838W        W65932  22.031  10.629   2.940 -0.0728  0.0924  0.0421
22839W        W65933  22.198  13.531   1.327  0.1664  0.0113 -0.2788
22840W        W65934  22.066  14.394   2.561  0.0098  0.2541  0.0232
22841W        W65935  24.801  11.456   3.116 -0.0303 -0.2316  0.0723
22842W        W65936  23.554  11.825   1.034 -0.1415  0.1161 -0.0110
22843W        W65937  25.363  11.601  30.336  0.1191 -0.2493 -0.1851
22844W        W65938  22.621  13.726   2.894  0.2034 -0.1775 -0.1594
22845W        W65939  23.784  12.690   2.327 -0.1627 -0.0772  0.4114
22846W        W65940  23.419  13.990   6.378  0.3073  0.2764 -0.2037
22847W        W65941  23.407  12.010   4.278 -0.1042  0.0723  0.3971
22848W        W65942  24.623  12.018   4.126 -0.1979 -0.0510  0.0301
22849W        W65943  24.391  11.741   4.456 -0.1576 -0.0068  0.1368
22850W        W65944  21.568  12.630   4.663  0.0175  0.0089 -0.2519
22851W        W65945  25.675  14.918   4.129  0.2063  0.0797  0.2231
22852W        W65946  23.834  10.323   7.345  0.0722 -0.3594 -0.1598
22853W        W65947  23.910  13.286   6.710  0.0962  0.1001 -0.0078
22854W        W65948  25.308  13.430   6.539  0.0449 -0.1772  0.1882
22855W        W65949  24.297  12.293   4.495  0.1257 -0.3374  0.2121
22856W        W65950  23.745  12.504   5.638 -0.1574  0.1238  0.3155
22857W        W65951  23.753  13.592   6.269  0.1883 -0.0446 -0.0132
22858W        W65952  23.319  11.664   3.494 -0.2043  0.1421  0.2243
22859W        W65953  21.959  11.121   6.348  0.0290 -0.1844 -0.2193
22860W        W65954  24.838  11.802   6.368 -0.0513  0.0132 -0.0790
22861W        W65955  22.272  12.406   4.214 -0.1589  0.0723  0.1859
22862W        W65956  22.138  12.935   5.625  0.1192  0.0835  0.0453
22863W        W65957  24.122  11.964   4.826  0.0945 -0.1048 -0.0513
22864W        W65958  22.883  14.133   6.267 -0.0646  0.2087  0.2383
22865W        W65959  23.651  11.852   4.834 -0.0654 -0.0743 -0.0485
22866W        W65960  22.279  11.341   5.978 -0.0543  0.0618 -0.1009
22867W        W65961  23.514  13.015   3.135 -0.0839 -0.2180 -0.1943
22868W        W65962  22.256  10.882   3.455  0.3249 -0.1088 -0.0020
22869W        W65963  22.375  12.584   5.228  0.2162 -0.2685  0.0055
22870W        W65964  23.108  12.803   5.666  0.0821 -0.0204 -0.2279
22871W        W65965  24.843  12.444   5.301 -0.3872  0.3461  0.2744
22872W        W65966  24.407  12.338   5.067  0.2661 -0.1596 -0.0562
22873W        W65967  22.994  13.570   5.258  0.1209 -0.0432  0.3849
22874W        W65968  24.494  13.750   5.008 -0.2042 -0.2492 -0.1749
22875W        W65969  25.929  12.107   6.565 -0.0529 -0.1525  0.2174
22876W        W65970  22.405  13.288   5.846 -0.5184  0.1165 -0.0171
22877W        W65971  22.135  14.544   5.953  0.2163 -0.2632 -0.2596
22878W        W65972  23.859  14.674   3.495  0.0045 -0.1499 -0.1055
22879W        W65973  25.650  13.507   4.805 -0.3048 -0.2426  0.2816
22880W        W65974  26.113  14.423   7.151 -0.2236 -0.2274  0.1175
22881W        W65975  23.037  14.294   7.631 -0.3874 -0.0922  0.1022
22882W        W65976  21.795  14.461   4.335 -0.0631 -0.0957  0.0591
22883W        W65977  25.197  13.917   6.820 -0.1570  0.0070 -0.0868
22884W        W65978  23.269  14.277   5.911 -0.0231 -0.0638 -0.4939
22885W        W65979  23.715  12.547   6.333  0.0310  0.0038  0.1828
22886W        W65980  24.568  13.122   3.556  0.2226 -0.3303  0.0018
22887W        W65981  23.659  15.250   3.470 -0.1562  0.1792 -0.1183
22888W        W65982  22.606  14.275   5.871 -0.3457  0.4468  0.0972
22889W        W65983  23.110  12.980   6.695 -0.2673 -0.2349  0.0642
22890W        W65984  22.532  14.742   4.948 -0.2575  0.2321  0.1069
22891W        W65985  24.957  10.769   6.481 -0.1609  0.1073 -0.0713
22892W        W65986  24.215  15.605   3.295  0.0675 -0.1171  0.0802
22893W        W65987  23.789  12.194   1.301  0.1280 -0.0038  0.1220
22894W        W65988  24.227  10.719   3.623  0.2448  0.0066 -0.1624
22895W        W65989  24.675  12.111   4.710  0.1163  0.0423 -0.1128
22896W        W65990  22.348  11.873   4.252  0.1259  0.0877  0.0862
22897W        W65991  21.921  13.535   7.182  0.0667  0.3123  0.0094
22898W        W65992  23.459  12.789   4.461  0.0990 -0.4806 -0.0624
22899W        W65993  24.949  14.975   6.465 -0.0727 -0.0230 -0.1867
22900W        W65994  22.643  12.559   5.741 -0.0039  0.2487  0.1675
22901W        W65995  23.975  11.111   6.919 -0.1110 -0.0086  0.0640
22902W        W65996  23.574  14.362   6.883  0.1419 -0.1124  0.1579
22903W        W65997  22.767  12.394   3.937 -0.1015 -0.2699 -0.0608
22904W        W65998  25.268  13.799   4.674  0.0903 -0.0246  0.0860
22905W        W65999  24.679  13.213   4.662 -0.3598  0.0063 -0.0922
22906W        W66000  22.715  14.130   4.532  0.1839 -0.0150  0.2103
22907W        W66001  21.948  11.579   5.228  0.0072  0.1398  0.0169
22908W        W66002  22.811  12.647   7.170 -0.3759  0.1844  0.1282
22909W        W66003  23.470  12.003   6.897  0.0858 -0.1117 -0.1928
22910W        W66004  22.584  11.238   3.312  0.0699  0.2377  0.2358
22911W        W66005  25.213  13.814   7.348  0.2138  0.1680 -0.0045
22912W        W66006  21.509  15.063   5.953  0.2727 -0.0083 -0.1259
22913W        W66007  24.830  11.919   5.130 -0.1025 -0.1939 -0.0521
22914W        W66008  23.355  13.629   5.578  0.0583 -0.2276 -0.0089
22915W        W66009  24.161  13.026   5.682 -0.0988 -0.3040 -0.2294
22916W        W66010  23.941  12.831   3.351 -0.1688 -0.3027  0.2209
22917W        W66011  25.562  11.319   5.766 -0.2171  0.0105  0.3216
22918W        W66012  23.149  11.297   6.320  0.1131  0.1140 -0.0423
22919W        W66013  21.430  14.055   3.777  0.0454  0.1138  0.1646
22920W        W66014  23.192  12.463   4.160  0.1628  0.1109 -0.0086
22921W        W66015  26.309  13.730   6.446 -0.1811 -0.2087 -0.0016
22922W        W66016  24.749  12.466   3.238  0.0710  0.0353 -0.0843
22923W        W66017  22.107  14.462   5.298  0.1936 -0.0333 -0.1191
22924W        W66018  22.861  11.302   4.703  0.0817 -0.1319 -0.1631
22925W        W66019  24.684  13.039   8.354  0.0935 -0.0393 -0.1279
22926W        W66020  22.020  15.420   2.546  0.3348 -0.0358 -0.2716
22927W        W66021  22.604  13.787   4.892  0.2259 -0.2472 -0.1505
22928W        W66022  21.775  13.387   4.455 -0.1881  0.4343  0.0109
22929W        W66023  21.911  12.909   6.033 -0.0708  0.5274  0.0827
22930W        W66024  22.198  14.131   5.645  0.0317 -0.2609  0.0582
22931W        W66025  23.630  11.579   4.349  0.1737  0.2524 -0.3088
22932W        W66026  21.950  11.628   6.277  0.1840 -0.3380  0.4697
22933W        W66027  25.070  10.975   3.942 -0.1795  0.1777  0.1146
22934W        W66028  22.639  12.791   4.874 -0.4261 -0.0306  0.1770
22935W        W66029  23.245  13.168   4.733 -0.2643 -0.3293 -0.0188
22936W        W66030  24.436  12.773   5.277 -0.0231  0.1223 -0.0333
22937W        W66031  23.942  13.594   5.255  0.0221  0.0201 -0.1897
22938W        W66032  22.005  13.594   6.203 -0.0119 -0.1492  0.1599
22939W        W66033  23.705  11.618   5.744 -0.0353 -0.1852 -0.1767
22940W        W66034  24.256  11.550   7.155  0.3247 -0.3618  0.2706
22941W        W66035  22.353  11.370   6.515  0.0717  0.0163  0.0885
22942W        W66036  24.514  10.840   6.172  0.1931 -0.2886  0.3301
22943W        W66037  21.388  11.013   3.822 -0.0134 -0.0616  0.2724
22944W        W66038  23.997  11.465   4.660  0.2188  0.2257  0.1002
22945W        W66039  24.323  12.344   5.557 -0.0105  0.3849  0.0674
22946W        W66040  21.771  13.281   5.225 -0.1942  0.1441 -0.0031
22947W        W66041  25.742   9.339   7.048  0.1715 -0.0450 -0.0209
22948W        W66042  23.233  16.101   5.960  0.0572  0.1663  0.0224
22949W        W66043  25.824  15.108   5.852 -0.0774  0.0182 -0.2503
22950W        W66044  24.873  13.493   5.535  0.0892  0.3537  0.0606
22951W        W66045  22.561  12.161   5.976  0.0173  0.0039  0.2240
22952W        W66046  21.866  12.057   3.805  0.0616 -0.0432 -0.3284
22953W        W66047  22.114  15.185   5.813 -0.0285  0.0245 -0.0536
22954W        W66048  23.173  13.688   4.818 -0.2294  0.0834 -0.2187
22955W        W66049  21.381  10.642   2.943  0.1731 -0.1455  0.0056
22956W        W66050  24.937  13.506   4.983  0.0983  0.2303 -0.0405
22957W        W66051  23.807  12.013   5.381 -0.0907  0.1037 -0.1583
22958W        W66052  22.391  13.317   7.412  0.0606 -0.0707 -0.1189
22959W        W66053  24.262  10.577   6.542 -0.0762  0.0428 -0.1972
22960W        W66054  24.599  11.135   5.711  0.0128 -0.0131 -0.0740
22961W        W66055  24.473  12.714   4.259 -0.0700 -0.0310 -0.4238
22962W        W66056  22.372  11.763   2.802  0.0879  0.2448  0.5433
22963W        W66057  24.753  13.891   4.056 -0.2469  0.0928  0.2245
22964W        W66058  21.717  16.095   2.357  0.2999 -0.1067 -0.2825
22965W        W66059  22.789  12.321   4.478 -0.1510 -0.2706 -0.1654
22966W        W66060  23.170  14.369   4.219 -0.1934  0.0208  0.0669
22967W        W66061  25.253  11.318   4.310 -0.1909 -0.1007 -0.0233
22968W        W66062  21.735  12.632   6.781  0.1032  0.1944  0.2878
22969W        W66063  24.140  11.523   6.647 -0.1525 -0.1271 -0.1042
22970W        W66064  21.942  11.482   3.604  0.0586 -0.2266 -0.1082
22971W        W66065  23.338  12.853   6.199  0.0586  0.1979  0.0639
22972W        W66066  24.594  12.149   3.613  0.0964  0.2182  0.1692
22973W        W66067  25.561  12.254   4.576 -0.0414 -0.1326  0.0894
22974W        W66068  23.584  12.851   6.699  0.0657 -0.2008  0.2792
22975W        W66069  25.894  13.679   5.383  0.4027  0.5326 -0.2538
22976W        W66070  23.685  11.058   3.494 -0.1386  0.1376 -0.0947
22977W        W66071  24.673  11.431   4.172  0.0416  0.2962 -0.3091
22978W        W66072  22.292  13.804   7.246 -0.2696 -0.3775  0.0027
22979W        W66073  24.143  13.473   4.713  0.0117  0.0309 -0.2957
22980W        W66074  24.427  12.505   6.851  0.0043 -0.0652  0.0593
22981W        W66075  24.163  11.216   3.658 -0.1726  0.0070  0.1935
22982W        W66076  25.508  13.989   5.101 -0.1626  0.0735  0.0338
22983W        W66077  22.298  13.672   6.693 -0.0084 -0.1373  0.0258
22984W        W66078  24.621  12.214   6.117 -0.0478  0.2092 -0.0710
22985W        W66079  23.386  14.149   4.662  0.0777  0.0215  0.1334
22986W        W66080  23.574  10.972   6.002  0.3987 -0.1588  0.1389
22987W        W66081  23.143  13.137   2.290 -0.1613 -0.0788 -0.0928
22988W        W66082  23.327  11.883   5.247 -0.0701  0.0516 -0.1547
22989W        W66083  21.005  14.895   1.795  0.1846 -0.1482  0.0679
22990W        W66084  24.234  11.317   5.441  0.0901 -0.1414  0.3421
22991W        W66085  23.180  11.787   5.695 -0.2420 -0.1776 -0.0512
22992W        W66086  23.417  11.349   7.534 -0.0298  0.0311  0.0264
22993W        W66087  24.379  13.395   6.998  0.1009  0.3922 -0.1659
22994W        W66088  23.155  12.636   3.175  0.1523  0.1913  0.3461
22995W        W66089  24.361  13.507   5.546  0.0998  0.2239  0.0542
22996W        W66090  22.188  13.433   3.751 -0.0059  0.2747  0.3645
22997W        W66091  22.826  10.696   6.062  0.1736  0.1254 -0.1044
22998W        W66092  23.158  13.685   7.079  0.0140  0.1242 -0.1047
22999W        W66093  22.625  13.993   7.651  0.2252 -0.1249  0.1175
23000W        W66094  25.609  13.585   7.001 -0.0450  0.0878 -0.1901
23001W        W66095  24.023  13.111   5.235  0.0986 -0.1701  0.2068
23002W        W66096  22.697  11.203   6.197  0.2224  0.1016  0.0579
23003W        W66097  22.946  11.657   5.097 -0.4393 -0.0582  0.0543
23004W        W66098  23.463  15.122   5.119  0.5865 -0.1313 -0.1907
23005W        W66099  22.171  13.906   5.204 -0.0169  0.0883 -0.1523
23006W        W66100  23.294  10.806   5.660  0.2257 -0.1233 -0.0242
23007W        W66101  24.311  13.437   6.505 -0.2312 -0.0345  0.3657
23008W        W66102  23.876  13.549   4.251  0.2131 -0.2327 -0.0985
23009W        W66103  25.548  13.625   6.078 -0.2275 -0.1514  0.1166
23010W        W66104  22.870  14.684   4.526  0.1231  0.3638 -0.0234
23011W        W66105  23.644  10.479   5.884  0.2782  0.0751  0.1411
23012W        W66106  22.295  14.312   4.794  0.0145  0.2507  0.1037
23013W        W66107  23.948  10.740   3.194  0.2761  0.1981  0.4083
23014W        W66108  22.851  13.458   3.826  0.0725 -0.0876 -0.0650
23015W        W66109  25.552  11.574   3.937  0.0191 -0.4146 -0.0985
23016W        W66110  25.356  13.124   4.877  0.0526  0.1949  0.3186
23017W        W66111  21.648  11.668   7.183  0.1994 -0.0738 -0.1392
23018W        W66112  22.870  12.539   5.237 -0.0458 -0.1203 -0.1934
23019W        W66113  22.984  13.968   5.669  0.2025 -0.1172  0.1033
23020W        W66114  23.978  12.063   5.825 -0.1458  0.0350  0.1088
23021W        W66115  24.380  11.674   3.798  0.0267  0.0928 -0.1378
23022W        W66116  24.082  13.256   6.100  0.0494 -0.1063  0.0837
23023W        W66117  23.302  14.137   7.256  0.2496  0.1993  0.1207
23024W        W66118  20.723  11.312   1.623  0.3089  0.1214  0.1914
23025W        W66119  25.487  10.599   6.758  0.1773  0.3086 -0.1463
23026W        W66120  23.056  12.124   4.849 -0.3569  0.0182 -0.1921
23027W        W66121  21.197  13.737   4.102  0.0524 -0.1317 -0.0310
23028W        W66122  23.772  14.101   6.022 -0.3380 -0.1588  0.2798
23029W        W66123  23.800  11.788   3.887 -0.2111  0.0389  0.1999
23030W        W66124  22.109  13.606   5.632 -0.1595  0.0297  0.1588
23031W        W66125  22.120  11.038   6.826 -0.0291  0.1987 -0.1839
23032W        W66126  25.285  11.480   6.176  0.3120 -0.0720 -0.2274
23033W        W66127  24.365  12.629   5.966 -0.0991 -0.2956 -0.0118
23034W        W66128  22.178  12.081   5.355 -0.0862 -0.2827 -0.3539
23035W        W66129  23.849  13.468   5.728  0.0319 -0.2327  0.0247
23036W        W66130  25.199  11.657   5.559 -0.0751  0.1268  0.1655
23037W        W66131  23.240  11.399   6.933 -0.1082  0.0636 -0.0588
23038W        W66132  23.597  13.629   7.905 -0.0769 -0.1789 -0.4443
23039W        W66133  23.287  10.344   7.696  0.0021  0.0219  0.1191
23040W        W66134  26.042  14.586   5.771 -0.1999  0.0654 -0.1310
23041W        W66135  25.366  10.492   6.273 -0.2760 -0.0529  0.0298
23042W        W66136  23.381  13.515   4.356  0.1771  0.0289  0.0678
23043W        W66137  22.778  13.052   6.018  0.1209 -0.0505  0.3494
23044W        W66138  22.977  13.268   5.651  0.2084 -0.1966  0.0480
23045W        W66139  24.296  11.836   5.272 -0.0040  0.0849 -0.2027
23046W        W66140  22.699  14.781   7.386  0.4215  0.2991 -0.2794
23047W        W66141  22.455  13.900   3.678  0.4560  0.1265 -0.2085
23048W        W66142  21.804  13.798   6.721 -0.0838 -0.0701  0.1536
23049W        W66143  23.990  10.423   3.947 -0.1803  0.0258 -0.3091
23050W        W66144  24.091  13.171   3.693  0.0730 -0.1600 -0.0858
23051W        W66145  24.066  11.175   5.883  0.1988 -0.0370  0.0645
23052W        W66146  24.670  10.593   6.888  0.0607  0.1036 -0.0694
23053W        W66147  23.989  12.588   5.206 -0.2100  0.1065 -0.1086
23054W        W66148  24.886  10.254   6.542 -0.2039 -0.0970 -0.1027
23055W        W66149  21.593  10.962   4.900 -0.1141 -0.0365  0.1120
23056W        W66150  24.487  13.239   5.105 -0.1200 -0.2911  0.0992
23057W        W66151  22.635  13.325   6.394 -0.0256  0.3032  0.0199
23058W        W66152  24.106  13.862   5.768 -0.0120  0.2163  0.2752
23059W        W66153  22.459  14.660   6.908  0.2553 -0.2283 -0.0724
23060W        W66154  24.137  11.076   4.987 -0.0215 -0.0994  0.2060
23061W        W66155  21.652   9.872   3.249  0.1176 -0.0475  0.2343
23062W        W66156  23.057  13.015   5.182 -0.0857  0.4119  0.2218
23063W        W66157  25.317  14.649   6.299  0.3299  0.1385  0.0121
23064W        W66158  22.884  13.118   3.158 -0.0372 -0.0731 -0.0590
23065W        W66159  23.831  11.950   6.450  0.1058  0.1738  0.1710
23066W        W66160  23.379  13.255   5.924  0.1293  0.0136 -0.0249
23067W        W66161  24.640  12.699   4.784  0.0581  0.1835  0.2178
23068W        W66162  22.573  12.189   3.119 -0.2179 -0.0076 -0.0865
23069W        W66163  22.613  12.993   5.447  0.0817 -0.2570  0.1102
23070W        W66164  23.029   9.896   6.631 -0.0847 -0.2938  0.0074
23071W        W66165  25.139  12.664   4.726  0.2769 -0.1440 -0.0517
23072W        W66166  23.518  10.067   5.539  0.1176 -0.0532  0.1187
23073W        W66167  23.168  12.812   7.640  0.0374  0.0714  0.0181
23074W        W66168  24.160  12.044   6.818 -0.1252 -0.1704 -0.3050
23075W        W66169  22.592  12.178   6.479 -0.2559  0.3111  0.2169
23076W        W66170  22.909  11.966   6.802  0.0131 -0.1548 -0.0385
23077W        W66171  24.181  14.435   6.245 -0.1141  0.0900 -0.1244
23078W        W66172  24.368  11.880   2.662  0.0078 -0.0015 -0.2287
23079W        W66173  25.314  10.977   6.177 -0.0347 -0.1024 -0.0251
23080W        W66174  25.959  11.057   5.726 -0.0831 -0.0882  0.1718
23081W        W66175  23.048  12.874   2.703  0.0933  0.2503  0.4887
23082W        W66176  22.016  12.521   6.361 -0.0540  0.1963 -0.2731
23083W        W66177  25.430  13.141   6.120  0.0138 -0.1149  0.0445
23084W        W66178  24.247  11.090   4.457  0.1537 -0.0232  0.2735
23085W        W66179  22.529   9.924   6.370  0.0950 -0.0759 -0.1292
23086W        W66180  22.446  14.630   2.976 -0.1220  0.3943  0.1253
23087W        W66181  24.076  12.689   3.868 -0.0143  0.0670  0.0205
23088W        W66182  24.275  12.488   3.510 -0.3314 -0.0431 -0.2332
23089W        W66183  21.725  13.364   5.887 -0.1574 -0.1270 -0.2348
23090W        W66184  23.552  13.882   6.858  0.3021  0.2252  0.0797
23091W        W66185  21.339  12.171   2.469 -0.0907  0.0809  0.1668
23092W        W66186  22.809  12.000   3.630  0.0246  0.6046  0.0585
23093W        W66187  24.636  12.133   6.669  0.1904  0.4302 -0.0783
23094W        W66188  24.150  12.318   6.381 -0.1082  0.1926 -0.0606
23095W        W66189  22.916  11.067   3.849  0.1466  0.1661 -0.1649
23096W        W66190  25.316  11.909   6.484  0.1532 -0.1744  0.0315
23097W        W66191  23.015  14.147   5.008  0.0691  0.1760  0.2733
23098W        W66192  23.128  11.731   7.291 -0.0404 -0.0616 -0.3381
23099W        W66193  21.628  15.369   6.316  0.0914 -0.1996  0.0012
23100W        W66194  21.342  13.023   6.821  0.0890 -0.1685  0.3492
23101W        W66195  23.300  15.454   3.769 -0.0990 -0.5004 -0.0780
23102W        W66196  22.722  11.667   5.832  0.0619 -0.0019 -0.3842
23103W        W66197  24.891  11.633   4.547  0.2060  0.6073 -0.0937
23104W        W66198  24.176  12.915   4.783  0.0035 -0.1553 -0.0862
23105W        W66199  26.036  13.227   5.169 -0.0191 -0.1948 -0.0079
23106W        W66200  25.209  11.439   6.669  0.2650 -0.1218 -0.1631
23107W        W66201  24.560  13.080   6.268 -0.0456 -0.0913 -0.3015
23108W        W66202  24.825  13.397   6.599 -0.1126  0.0315 -0.0040
23109W        W66203  25.044  13.818   5.925 -0.3751  0.0297 -0.3370
23110W        W66204  22.572  13.853   5.477 -0.0723 -0.2173 -0.1819
23111W        W66205  21.739  12.489   7.956 -0.0695 -0.1544 -0.0418
23112W        W66206  25.001  11.176   7.485 -0.2579  0.0240 -0.1888
23113W        W66207  23.708  14.222   5.503 -0.0878  0.0422 -0.2726
23114W        W66208  22.577  10.913   4.141 -0.2208  0.0332 -0.0760
23115W        W66209  24.024  14.551   3.983 -0.0342 -0.0678 -0.2861
23116W        W66210  22.358  14.274   7.374  0.1966 -0.2769  0.0714
23117W        W66211  22.975  11.966   6.201  0.0335  0.5988  0.1765
23118W        W66212  22.117  13.934   4.555  0.3047 -0.0966 -0.2411
23119W        W66213  25.414  11.932   3.577  0.2862 -0.2154 -0.2764
23120W        W66214  23.170  13.099   4.087 -0.3020  0.1166  0.1563
23121W        W66215  23.504  13.951   5.153  0.1021 -0.2157  0.3339
23122W        W66216  23.989  12.726   2.780  0.0662 -0.0714 -0.1753
23123W        W66217  22.399  15.453   4.242 -0.1080 -0.0262  0.2153
23124W        W66218  21.294  14.539   4.687  0.0155  0.5090 -0.2571
23125W        W66219  25.965  14.500   3.315  0.1516 -0.0606  0.2391
23126W        W66220  21.638  14.626   5.132  0.0373 -0.2586  0.0636
23127W        W66221  25.801  14.838   7.283 -0.0121 -0.1390 -0.2418
23128W        W66222  24.046  11.459   4.156 -0.0411 -0.0210 -0.1478
23129W        W66223  25.888  11.232   6.215  0.1687  0.1210 -0.1451
23130W        W66224  26.180  11.300   3.172 -0.0973  0.3380 -0.2144
23131W        W66225  24.969  13.359   6.109  0.0123 -0.1078 -0.0965
23132W        W66226  24.315  11.709   5.757 -0.0176 -0.2081 -0.3259
23133W        W66227  23.510  10.450   3.027 -0.0755 -0.0368 -0.1486
23134W        W66228  23.057  13.656   6.562 -0.1039  0.0712  0.2456
23135W        W66229  25.062  11.116   8.003 -0.3211  0.3418  0.0195
23136W        W66230  20.577  14.825   7.396 -0.1139  0.0482 -0.0991
23137W        W66231  25.991  15.150   4.478  0.4226  0.0186 -0.1552
23138W        W66232  22.193  12.509   4.731 -0.1989 -0.1588 -0.1304
23139W        W66233  23.747  12.885   5.959  0.4138  0.1278 -0.3267
23140W        W66234  24.945  10.644   5.966  0.2005  0.2191  0.1524
23141W        W66235  24.056  12.051   3.539 -0.0601  0.1725  0.4512
23142W        W66236  23.405  11.729   6.160  0.0489 -0.3148 -0.2255
23143W        W66237  22.226  15.756   4.667 -0.2155 -0.2809  0.2482
23144W        W66238  22.534  14.671   5.561 -0.0935 -0.1302  0.1144
23145W        W66239  22.021  14.501   6.506  0.0994  0.0109  0.0276
23146W        W66240  21.093  10.642   4.151 -0.1106 -0.1873  0.0429
23147W        W66241  25.800   9.167   5.751  0.0717  0.2451  0.0276
23148W        W66242  23.144  13.670   6.010 -0.1653 -0.0668  0.0809
23149W        W66243  24.765  10.750   7.339  0.0140 -0.2780 -0.0975
23150W        W66244  23.749  12.444   3.595 -0.3321 -0.2566  0.1774
23151W        W66245  24.714  10.206   3.564 -0.1517  0.0421 -0.0322
23152W        W66246  24.687  11.993   5.597 -0.1658  0.3330 -0.2958
23153W        W66247  22.519  12.972   6.864  0.2760 -0.0012 -0.0936
23154W        W66248  23.946  11.749   2.352  0.0646 -0.0546 -0.0583
23155W        W66249  26.293  13.234   6.458  0.3212 -0.0665  0.0353
23156W        W66250  24.312  12.080   3.113 -0.2414 -0.0020  0.0130
23157W        W66251  25.636  13.811   7.590 -0.1289  0.0289 -0.0891
23158W        W66252  22.453  11.751   5.138  0.2155  0.1366  0.0723
23159W        W66253  23.071  12.118   3.201 -0.0755  0.1513  0.0775
23160W        W66254  23.642  12.352   4.650  0.1008  0.2105  0.3810
23161W        W66255  24.169  12.817   6.506  0.1017  0.0365 -0.1107
23162W        W66256  24.531  14.220   6.493  0.0245 -0.0964 -0.1234
23163W        W66257  21.053  11.574   5.069  0.4590  0.0418  0.0047
23164W        W66258  23.666  12.421   3.107  0.1332  0.2825 -0.2249
23165W        W66259  24.184  10.860   5.470 -0.0849 -0.0350  0.0523
23166W        W66260  22.628  14.997   4.145 -0.0404 -0.2440  0.2047
23167W        W66261  24.145  14.104   5.224  0.1817 -0.0691  0.1018
23168W        W66262  23.883  14.688   5.247  0.1634 -0.0480  0.0619
23169W        W66263  21.662  11.726   6.700  0.1561 -0.0908  0.2240
23170W        W66264  25.127  11.964   5.944  0.0986  0.0186 -0.1943
23171W        W66265  24.889  12.549   6.833  0.0260 -0.1306  0.0402
23172W        W66266  22.672  10.999   5.028 -0.0068  0.0833 -0.4889
23173W        W66267  22.992  12.462   6.104 -0.0102  0.0865  0.3013
23174W        W66268  21.607  15.878   5.543  0.1305 -0.1532 -0.1649
23175W        W66269  24.740  11.534   5.417  0.1064 -0.2151  0.0139
23176W        W66270  23.546  10.949   6.594  0.0019 -0.0545  0.0732
23177W        W66271  23.381  13.446   3.784 -0.3214  0.2306 -0.1009
23178W        W66272  26.120  10.047   7.288 -0.0023 -0.0488 -0.2967
23179W        W66273  23.628  13.004   5.495  0.2556  0.0408 -0.0590
23180W        W66274  23.894  15.079   8.122  0.1208  0.1595  0.0160
23181W        W66275  22.287  13.269   4.278  0.1276  0.1536  0.0126
23182W        W66276  24.065  12.867   7.001  0.1198 -0.0625 -0.2896
23183W        W66277  22.194  14.516   3.385 -0.1238  0.0784 -0.2451
23184W        W66278  23.411  14.754   4.700  0.0602 -0.3205 -0.0360
23185W        W66279  26.524  14.508   6.599 -0.0509  0.0259  0.0732
23186W        W66280  23.953  12.185   2.740 -0.1809  0.2697  0.0355
23187W        W66281  26.964  15.220   5.369  0.1195  0.0883 -0.0651
23188W        W66282  23.272  11.312   5.782 -0.1558  0.1034 -0.1308
23189W        W66283  25.384  10.627   2.949 -0.1804 -0.0825 -0.1289
23190W        W66284  25.182  10.431   4.630 -0.2066  0.0681 -0.0525
23191W        W66285  23.080  13.098   7.278  0.0031 -0.4483  0.0568
23192W        W66286  22.834  11.539   3.675 -0.0660 -0.3737 -0.2142
23193W        W66287  24.405  14.830   4.095 -0.0382  0.1682  0.2639
23194W        W66288  21.903  13.093   6.892  0.2065 -0.2842  0.0179
23195W        W66289  23.275  10.861   7.599  0.2515  0.0047 -0.3166
23196W        W66290  22.857  12.528   6.654 -0.5201 -0.0790  0.0675
23197W        W66291  23.468  13.375   5.145  0.1787 -0.0986  0.0390
23198W        W66292  22.876  11.961   4.179 -0.0297  0.2084  0.3144
23199W        W66293  25.553  13.575   4.254 -0.3067  0.2775  0.2127
23200W        W66294  22.045  12.063   6.101  0.2210 -0.1890  0.1704
23201W        W66295  20.956  12.211   4.330  0.1206 -0.1017 -0.0920
23202W        W66296  24.185  12.206   3.993  0.0076 -0.0301 -0.0377
23203W        W66297  24.799  13.065   4.084 -0.0148  0.2633  0.2882
23204W        W66298  23.806  11.534   3.458  0.0982 -0.3909  0.1423
23205W        W66299  26.525  15.330   7.519  0.1666  0.1111 -0.1575
23206W        W66300  21.498  13.524   3.617  0.0694 -0.1803  0.2894
23207W        W66301  23.661  11.544   6.661  0.1407  0.0156  0.0000
23208W        W66302  23.702  12.640   8.300 -0.1015 -0.0690  0.1101
23209W        W66303  20.454   8.955   3.174 -0.2934  0.2357 -0.0176
23210W        W66304  25.210  13.137   5.620 -0.1150  0.3388  0.1528
23211W        W66305  23.046  12.763   3.687 -0.0420  0.0916  0.1329
23212W        W66306  25.274  14.493   4.599  0.1402  0.3471 -0.2285
23213W        W66307  23.143  14.091   6.773  0.0392 -0.1227 -0.0592
23214W        W66308  24.706  14.748   7.845 -0.0443 -0.1604  0.1435
23215W        W66309  21.092  11.081   6.135  0.0628  0.0401 -0.0238
23216W        W66310  25.022  13.490   4.170 -0.0356  0.1257  0.2240
23217W        W66311  23.501  13.302   6.964 -0.1302 -0.4557 -0.0014
23218W        W66312  24.726  11.581   5.938 -0.0516 -0.2463  0.0652
23219W        W66313  23.998  11.002   6.426  0.0294  0.3521 -0.1197
23220W        W66314  25.488  12.716   4.391  0.0697  0.0231 -0.3037
23221W        W66315  21.969  10.527   7.755  0.0201 -0.2090 -0.1560
23222W        W66316  23.569  13.708   7.342 -0.0337  0.0369 -0.1707
23223W        W66317  25.554  12.744   6.520  0.3183  0.0717  0.1809
23224W        W66318  21.257  10.924   5.699 -0.1956 -0.0570 -0.0759
23225W        W66319  23.995  10.915   4.066 -0.5517 -0.2558  0.1968
23226W        W66320  24.442  13.427   3.945  0.0990  0.0547  0.1736
23227W        W66321  21.656  12.209   6.432  0.1492  0.0821  0.3223
23228W        W66322  23.905  11.510   5.145  0.1181 -0.0347  0.0496
23229W        W66323  23.482  12.210   6.061 -0.0381  0.1296  0.0380
23230W        W66324  23.552  12.878   5.035  0.1728 -0.1443  0.0587
23231W        W66325  24.631  12.620   6.421  0.0598  0.0684  0.1141
23232W        W66326  23.943  11.961   4.341 -0.0134 -0.2764 -0.1016
23233W        W66327  24.597  13.907   5.456  0.1558  0.0403 -0.0209
23234W        W66328  25.074  14.132   6.274  0.1170  0.1126  0.0911
23235W        W66329  26.231  14.727   7.539  0.2264 -0.0065 -0.0356
23236W        W66330  24.197  13.855   6.264 -0.2037  0.0949  0.3901
23237W        W66331  25.725  13.804   6.525 -0.2318 -0.0123 -0.1781
23238W        W66332  21.928  10.623   6.495 -0.2013 -0.0249  0.0110
23239W        W66333  23.199  11.636   3.991  0.0581  0.1923  0.2938
23240W        W66334  23.707  12.389   4.092  0.2088 -0.0127 -0.0335
23241W        W66335  24.602  11.086   5.174 -0.1025 -0.3124  0.0030
23242W        W66336  22.440  11.747   6.220 -0.2587  0.0625  0.1486
23243W        W66337  23.593  11.332   3.946 -0.0316 -0.0552  0.0985
23244W        W66338  22.719  15.373   6.521 -0.0846 -0.1155 -0.1747
23245W        W66339  23.927  12.698   4.441 -0.1567  0.1323  0.3684
23246W        W66340  22.253  12.442   9.908 -0.3644 -0.0843 -0.1815
23247W        W66341  24.777  12.605   7.763  0.0356  0.1446 -0.2602
23248W        W66342  24.933  11.560   7.801 -0.0379  0.0899 -0.0105
23249W        W66343  25.411  12.573   8.309  0.0646 -0.1675  0.2369
23250W        W66344  22.440  10.895   8.571  0.0665  0.0137  0.1034
23251W        W66345  24.832  13.842   7.653 -0.1461  0.0554 -0.3629
23252W        W66346  23.798  13.841   9.723  0.2533 -0.4596  0.2535
23253W        W66347  25.463  16.257  10.115  0.0390  0.1315  0.0678
23254W        W66348  24.530  12.965   6.828 -0.1860 -0.1193  0.0128
23255W        W66349  22.441  13.492   9.761 -0.2417  0.1474 -0.0099
23256W        W66350  23.485  11.511   8.009  0.0716 -0.1503 -0.0854
23257W        W66351  22.730  12.602   8.056  0.0372 -0.0827  0.0224
23258W        W66352  25.949  10.096   9.788  0.0717  0.2210  0.1656
23259W        W66353  24.027  12.470   7.290  0.1191 -0.4717  0.4258
23260W        W66354  22.269  11.944   9.811  0.0962  0.0967  0.1626
23261W        W66355  22.525  11.035   8.076 -0.1513 -0.0793  0.1728
23262W        W66356  24.119  13.661   8.271  0.0030  0.1123  0.0736
23263W        W66357  23.026  11.394   9.308  0.0506  0.1638  0.1942
23264W        W66358  24.283  14.660   8.068  0.0318  0.1113 -0.1493
23265W        W66359  21.016  12.328   7.575  0.1730 -0.0266 -0.2499
23266W        W66360  23.260  12.338   7.802 -0.1441  0.1633 -0.2986
23267W        W66361  24.284  13.188   9.414  0.1967 -0.0910  0.1032
23268W        W66362  24.169  14.744  10.578 -0.1209  0.1032 -0.2686
23269W        W66363  24.031  12.756   9.512  0.0475 -0.1885  0.0458
23270W        W66364  22.396  14.904   8.818  0.2839  0.0007  0.1967
23271W        W66365  24.523  13.523   9.076 -0.0550  0.0807 -0.0004
23272W        W66366  21.868  13.066   7.399 -0.1762 -0.2521  0.3708
23273W        W66367  20.367  13.337   9.085 -0.1124  0.0197  0.0012
23274W        W66368  22.645  14.656   8.452 -0.0125  0.1711  0.2353
23275W        W66369  25.470  13.216   8.553 -0.4071  0.2128 -0.1731
23276W        W66370  22.554  13.730   6.010 -0.0542 -0.1396 -0.2218
23277W        W66371  23.549  12.401  10.170  0.0635 -0.1144 -0.0927
23278W        W66372  23.756  13.026   8.632  0.1082  0.1136  0.2173
23279W        W66373  22.978  14.820   7.852 -0.0737 -0.2266 -0.0555
23280W        W66374  23.705  13.480   8.388 -0.0007 -0.1888 -0.2291
23281W        W66375  21.711  13.947   9.911  0.0521 -0.5792  0.3921
23282W        W66376  23.646  13.074   8.082  0.1455 -0.3034 -0.0941
23283W        W66377  24.974  12.347   7.342 -0.0492  0.0882  0.0476
23284W        W66378  22.833  11.172   7.359 -0.1404 -0.2951 -0.1460
23285W        W66379  26.280  11.901   7.636  0.0091 -0.5431 -0.0152
23286W        W66380  25.175   9.808   9.338  0.3331 -0.0770  0.0345
23287W        W66381  22.149  15.555   9.481  0.0594  0.0220 -0.0656
23288W        W66382  23.761  11.018   9.420 -0.4025 -0.0377  0.2846
23289W        W66383  24.198  13.087   8.367  0.0315 -0.0818  0.1665
23290W        W66384  21.575  14.411  10.139  0.1117  0.0626 -0.0981
23291W        W66385  20.958  13.334  10.110  0.1225  0.1042  0.0919
23292W        W66386  23.580  12.850   7.240 -0.1424  0.1169  0.1672
23293W        W66387  25.113  13.351   7.066  0.1395 -0.2849 -0.2617
23294W        W66388  26.651  14.012   9.890  0.3148 -0.1463 -0.0600
23295W        W66389  23.899  14.744   7.285 -0.2593  0.1172 -0.0072
23296W        W66390  24.604  11.691   8.175  0.2754  0.1008 -0.0459
23297W        W66391  22.496  10.821   7.164 -0.0371  0.1216 -0.3306
23298W        W66392  25.124  12.116   9.047 -0.2251  0.2837 -0.0828
23299W        W66393  23.084  13.795   7.825  0.2407  0.1329 -0.1013
23300W        W66394  20.878  15.650   9.262 -0.2843 -0.2138 -0.1941
23301W        W66395  25.204  12.872   7.656  0.2771  0.0987 -0.0591
23302W        W66396  25.557  10.320   8.445  0.3189 -0.2255 -0.1750
23303W        W66397  24.258  11.931   8.532  0.1850 -0.1002  0.1748
23304W        W66398  23.585  13.215   7.558 -0.1908 -0.0672  0.0789
23305W        W66399  23.895  14.061   8.003 -0.1243  0.0286  0.0159
23306W        W66400  23.783  14.004  10.216 -0.0656 -0.0093 -0.3197
23307W        W66401  25.288  14.105   8.493  0.0738  0.0871 -0.1397
23308W        W66402  22.043  14.744   9.830  0.0871  0.0333 -0.0256
23309W        W66403  21.311  14.696   7.737  0.0367  0.3193  0.1226
23310W        W66404  22.033  13.122   9.684  0.1557  0.2191  0.1471
23311W        W66405  21.176  12.483   7.133  0.0555 -0.1776  0.2655
23312W        W66406  21.082  10.569   9.256  0.1602 -0.2082  0.1988
23313W        W66407  22.010  13.662   9.526 -0.0480  0.1809  0.1178
23314W        W66408  25.685  12.090   7.979 -0.1836  0.1390  0.2395
23315W        W66409  25.669  11.352   8.705  0.1213  0.2158  0.0014
23316W        W66410  23.637  14.155   8.384  0.3966  0.2439 -0.0309
23317W        W66411  25.172  14.392   8.921  0.0458 -0.2096 -0.1844
23318W        W66412  24.627  12.781   7.329 -0.2312  0.0176  0.1340
23319W        W66413  23.377  13.329   6.435 -0.2226 -0.1448 -0.0996
23320W        W66414  21.331  12.380   9.618  0.0175 -0.2005 -0.4798
23321W        W66415  23.905  11.708   8.227  0.0675  0.2360 -0.0143
23322W        W66416  21.539  10.641   9.062 -0.1252  0.1544 -0.0781
23323W        W66417  21.920  10.808   8.580 -0.2468  0.1215 -0.3029
23324W        W66418  24.931  11.656   9.083  0.0189 -0.1594  0.0399
23325W        W66419  23.258  12.568   6.969  0.0650 -0.0168 -0.1442
23326W        W66420  21.672  12.142   7.459  0.2787  0.4463  0.0609
23327W        W66421  25.762  14.473   8.401 -0.1449  0.2149 -0.1247
23328W        W66422  26.371  14.490   9.952 -0.0619  0.2996  0.3932
23329W        W66423  24.523  13.552   8.553  0.2002  0.0617 -0.0024
23330W        W66424  22.356  12.549   9.006  0.3253 -0.2625  0.0118
23331W        W66425  23.898  11.936   7.254  0.1212  0.0373 -0.0144
23332W        W66426  22.079  14.966   9.254 -0.0914 -0.1977 -0.1605
23333W        W66427  23.653  12.441   9.639 -0.3203  0.1897 -0.1127
23334W        W66428  23.745  12.404   6.892 -0.2736 -0.0797 -0.0981
23335W        W66429  23.343  12.953   9.498 -0.0896 -0.1416  0.2622
23336W        W66430  24.532  13.000   7.845 -0.1987  0.2653 -0.0168
23337W        W66431  23.185  11.646  10.379 -0.2550  0.1299  0.0461
23338W        W66432  24.480  12.915   8.787  0.2732  0.1364 -0.0293
23339W        W66433  22.616  11.594   7.080 -0.2631 -0.1122 -0.0745
23340W        W66434  24.178  14.537   8.563 -0.2582 -0.1923  0.1746
23341W        W66435  21.703  13.901   7.460 -0.3108  0.0720 -0.0076
23342W        W66436  21.988  13.221   8.731  0.0221 -0.2046 -0.0139
23343W        W66437  23.239  14.485   8.583  0.0812  0.2885  0.2809
23344W        W66438  25.569  13.731   8.569 -0.0143 -0.0164 -0.0729
23345W        W66439  22.127  12.003   6.575 -0.1485  0.3383 -0.2448
23346W        W66440  25.189  11.529   8.409 -0.2691  0.1421 -0.0406
23347W        W66441  25.173  11.324   8.858  0.0857 -0.0535 -0.0131
23348W        W66442  26.039  14.438   8.843 -0.6523 -0.0266 -0.0234
23349W        W66443  24.907  11.168   7.004  0.0910  0.2299 -0.2503
23350W        W66444  24.112  10.671   6.016 -0.0589 -0.2441 -0.4209
23351W        W66445  24.029  13.718   6.988 -0.0291 -0.2194 -0.1481
23352W        W66446  23.306  13.808   8.267 -0.2159  0.4851  0.0468
23353W        W66447  24.280  12.438   7.725  0.1573  0.0446 -0.1878
23354W        W66448  24.382  13.948   8.917  0.1747 -0.2157 -0.0739
23355W        W66449  22.267  13.011   9.100  0.0037 -0.0127  0.0005
23356W        W66450  23.900  13.907   8.699  0.0592 -0.1767  0.2302
23357W        W66451  24.251   9.766   9.940 -0.1648 -0.0359  0.0581
23358W        W66452  24.374  11.828   7.569 -0.2747 -0.1911 -0.2042
23359W        W66453  25.119  13.014   8.157  0.0892  0.1669 -0.2784
23360W        W66454  20.830  13.731   6.283 -0.1800  0.1549  0.0045
23361W        W66455  23.924  10.539  10.231  0.2135 -0.1614 -0.2893
23362W        W66456  25.622  12.061   9.158 -0.2189  0.0276 -0.1873
23363W        W66457  24.677  11.406   9.363 -0.2465  0.1763  0.0025
23364W        W66458  22.777  13.528   9.284  0.0044  0.2813 -0.2108
23365W        W66459  23.302  12.330   6.525  0.1881 -0.3538  0.1608
23366W        W66460  24.207  10.505   9.687 -0.1316  0.0735 -0.2148
23367W        W66461  18.956  14.807   8.805 -0.1748 -0.0337  0.1095
23368W        W66462  26.395  12.450   8.012  0.1407 -0.0884  0.0994
23369W        W66463  25.002  11.932   6.953 -0.1599 -0.0244 -0.3788
23370W        W66464  24.920  15.315   8.651  0.1485  0.4500  0.1804
23371W        W66465  22.077  13.935   8.211 -0.0110 -0.1510  0.1154
23372W        W66466  22.594  12.206  10.272  0.0854 -0.2795 -0.1384
23373W        W66467  22.500  13.307   8.752 -0.0749  0.0667  0.1325
23374W        W66468  23.794  14.538   7.796 -0.0858  0.0682 -0.0557
23375W        W66469  23.803  13.239   9.613  0.0547  0.0312  0.4996
23376W        W66470  22.040  13.523   7.692  0.0311 -0.3361 -0.1102
23377W        W66471  25.094   9.348  12.181 -0.0378 -0.4753 -0.2392
23378W        W66472  22.632  14.693   9.666  0.2971 -0.1471 -0.2381
23379W        W66473  23.241  12.801   8.163 -0.2175 -0.0740 -0.0445
23380W        W66474  22.489  12.060   7.747  0.0815 -0.0018  0.2969
23381W        W66475  24.785  11.921   8.612 -0.2045 -0.2949 -0.3488
23382W        W66476  26.690  12.747   7.530  0.0217 -0.0990  0.2622
23383W        W66477  22.506  11.374   8.539  0.3609 -0.1932 -0.0331
23384W        W66478  23.814  11.416   9.903  0.0680 -0.2897  0.0778
23385W        W66479  24.501  13.662   9.658 -0.1796 -0.1849  0.1133
23386W        W66480  23.811  10.677   8.276 -0.2950  0.2424 -0.1649
23387W        W66481  21.778  11.661   7.664 -0.2649  0.2033  0.1274
23388W        W66482  24.617  10.542   9.942 -0.4031 -0.0598  0.2152
23389W        W66483  21.805  13.062  10.299 -0.0276 -0.0184  0.0170
23390W        W66484  21.696  13.580   8.518 -0.0706  0.4822  0.2748
23391W        W66485  22.904  14.761   8.906  0.2775  0.1947  0.1870
23392W        W66486  22.388  12.022   7.022  0.0301  0.0362 -0.2051
23393W        W66487  21.637  14.270   9.178 -0.1403  0.1326 -0.2616
23394W        W66488  22.298  14.308   9.875  0.0397  0.2255 -0.0325
23395W        W66489  22.825  11.642   9.707 -0.2624  0.1134 -0.2184
23396W        W66490  22.376  12.765   7.553 -0.1918  0.0733  0.1618
23397W        W66491  24.136  11.761   9.506 -0.0233 -0.1578 -0.0396
23398W        W66492  22.437  12.959   9.968  0.0169 -0.0081  0.1790
23399W        W66493  24.017  12.159   9.139 -0.0144  0.2276 -0.1316
23400W        W66494  23.883  12.160   7.750 -0.0298  0.0554  0.0696
23401W        W66495  26.018  14.934   8.701 -0.3370 -0.0339  0.1799
23402W        W66496  24.254  14.415   7.594  0.2723 -0.3966  0.1324
23403W        W66497  22.675  13.630  10.268 -0.0727 -0.1041  0.0083
23404W        W66498  22.238  12.932   7.997  0.0135  0.1023 -0.2195
23405W        W66499  22.732  14.076   9.971 -0.2144  0.0792  0.1151
23406W        W66500  21.812  13.689   9.017  0.2681 -0.3446 -0.0110
23407W        W66501  22.284  14.341   8.010  0.0290 -0.0453 -0.0127
23408W        W66502  20.189  14.241   9.550  0.1398 -0.2378  0.2691
23409W        W66503  24.208  10.842   7.931  0.0194  0.1857  0.0273
23410W        W66504  25.072  13.400   7.868 -0.0744  0.1954  0.0481
23411W        W66505  24.714  11.431   8.660 -0.0925 -0.1014 -0.0214
23412W        W66506  24.919  12.544   8.259  0.0458  0.0991 -0.0154
23413W        W66507  20.832  11.152   9.246 -0.1069 -0.2494  0.0701
23414W        W66508  26.556  13.967   8.606 -0.1207 -0.0468  0.0046
23415W        W66509  22.805  12.460   7.619  0.0453 -0.3572  0.0734
23416W        W66510  22.928  10.789   8.382 -0.1049  0.3169  0.3080
23417W        W66511  23.544  12.125   8.128 -0.0007 -0.0226 -0.1744
23418W        W66512  24.873  13.222   8.789 -0.0782  0.2194  0.2213
23419W        W66513  22.949  14.102   8.517 -0.0268 -0.1084  0.1426
23420W        W66514  25.503  11.500   9.732 -0.2341  0.0017 -0.2320
23421W        W66515  22.519  15.001  10.060  0.0073  0.1536 -0.0335
23422W        W66516  25.157  12.254   8.586  0.0569 -0.4557 -0.0946
23423W        W66517  24.135  12.917   7.525 -0.0023  0.0115 -0.0899
23424W        W66518  22.780  13.088   7.678 -0.0696  0.1470  0.0443
23425W        W66519  24.972  12.634   9.009  0.0638 -0.2493  0.1773
23426W        W66520  23.651  12.022   9.422 -0.1563  0.2238 -0.1076
23427W        W66521  25.301  14.511   9.456 -0.3284  0.0149 -0.2176
23428W        W66522  24.581  11.559   6.804  0.0327 -0.1853 -0.1445
23429W        W66523  26.594  13.029   9.103 -0.0096  0.2319 -0.2450
23430W        W66524  25.337  13.266   9.897 -0.1942 -0.0761  0.1118
23431W        W66525  24.977  12.950   6.570 -0.0166 -0.0527 -0.0047
23432W        W66526  23.150  12.101   8.755 -0.0552 -0.0527 -0.1405
23433W        W66527  22.709  11.200   6.821 -0.1002 -0.3376  0.3628
23434W        W66528  24.676  14.970   8.314  0.0641 -0.1382 -0.0462
23435W        W66529  24.677  13.182   9.733 -0.3131 -0.1959 -0.0223
23436W        W66530  24.403  13.486   7.568  0.0718  0.1513 -0.2006
23437W        W66531  22.404  11.964   8.912  0.3980 -0.1821 -0.3103
23438W        W66532  22.810  11.576   6.529  0.1446 -0.2332 -0.0264
23439W        W66533  23.982  13.787   7.585 -0.2336 -0.3669 -0.0300
23440W        W66534  23.137  13.141  10.256  0.0782  0.1544  0.3330
23441W        W66535  24.582  11.172   7.722  0.0816  0.2900 -0.0547
23442W        W66536  22.345  14.169   8.597  0.0972 -0.1200 -0.0715
23443W        W66537  25.449  11.544   7.893 -0.2419  0.2251  0.1318
23444W        W66538  22.045  14.457  10.268 -0.1536 -0.1268 -0.2549
23445W        W66539  23.072  13.846   9.160  0.0979 -0.0920 -0.1846
23446W        W66540  24.494  11.834   9.861  0.2684  0.0826 -0.1148
23447W        W66541  23.081  12.637  10.125 -0.0547  0.1193 -0.0217
23448W        W66542  24.035  12.265   8.190  0.0777 -0.3024 -0.2112
23449W        W66543  22.958  13.566   8.721 -0.1217 -0.2596  0.2389
23450W        W66544  25.071  13.502   8.428 -0.1081 -0.0023 -0.1177
23451W        W66545  22.585  13.249   8.218 -0.0574  0.0554 -0.3951
23452W        W66546  23.988  12.555   8.675  0.2984  0.2461  0.1823
23453W        W66547  21.731  11.438   9.398 -0.0911  0.1341 -0.0332
23454W        W66548  23.208  13.211   8.395 -0.2354 -0.1390 -0.0731
23455W        W66549  24.244  12.220   9.621 -0.0448 -0.0273  0.0411
23456W        W66550  21.598  14.116   8.339 -0.1927 -0.1396 -0.2456
23457W        W66551  23.400  14.013   8.780  0.2867  0.2538  0.1300
23458W        W66552  24.417  14.106   8.352  0.0748  0.0326 -0.2223
23459W        W66553  23.056  14.315   9.042 -0.0245  0.0523 -0.0178
23460W        W66554  25.235  12.326   7.814  0.1880  0.1908 -0.3098
23461W        W66555  21.962  14.568   8.954 -0.1014 -0.0595  0.0486
23462W        W66556  22.540  13.577   7.820  0.0468  0.0528  0.0488
23463W        W66557  24.828  13.233   7.461 -0.0200 -0.3198 -0.1547
23464W        W66558  22.474  15.345   7.963  0.0619 -0.2419  0.1181
23465W        W66559  25.921  11.198   8.077  0.1017 -0.1637  0.0932
23466W        W66560  25.754  11.989   9.633  0.1703 -0.1486  0.0208
23467W        W66561  24.097  12.742   8.007 -0.0184 -0.2358  0.0723
23468W        W66562  24.575  10.954   9.538  0.0653  0.1591 -0.2278
23469W        W66563  24.706  12.148   7.684 -0.1187  0.1479  0.2736
23470W        W66564  25.230  14.685   7.655  0.0049  0.0272 -0.0191
23471W        W66565  22.828  12.112   7.234  0.0943 -0.0239  0.3116
23472W        W66566  23.471  11.870   7.672 -0.2149  0.0901 -0.0416
23473W        W66567  24.566  12.215   8.980 -0.1654 -0.1667 -0.0286
23474W        W66568  24.660  14.284   7.891  0.0380  0.0008 -0.0767
23475W        W66569  24.720  13.026   9.244 -0.1980  0.0151 -0.0301
23476W        W66570  23.089  14.903   8.332 -0.0673  0.4240 -0.2764
23477W        W66571  22.118  14.044   9.146 -0.1519 -0.1709 -0.3426
23478W        W66572  22.732  16.132   8.294  0.0383 -0.0347 -0.0297
23479W        W66573  22.662  11.542   8.096  0.1260 -0.1093 -0.0949
23480W        W66574  25.140  11.929   7.510 -0.5452 -0.2196  0.0654
23481W        W66575  20.816  12.138   8.745 -0.0993  0.2077 -0.1964
23482W        W66576  23.344  13.083   8.992  0.2395  0.0880  0.0643
23483W        W66577  23.639  12.715   9.118  0.1831  0.1924 -0.1695
23484W        W66578  22.894  13.020   9.737 -0.0918  0.0565 -0.0092
23485W        W66579  23.851  10.334   9.373  0.0847 -0.2937  0.1288
23486W        W66580  25.318  12.344   6.814  0.1498  0.0803 -0.0070
23487W        W66581  24.783  11.573   7.304  0.1460 -0.0583 -0.1364
23488W        W66582  23.619  12.244   8.842  0.1192  0.2831  0.0047
23489W        W66583  25.777  12.457   7.056 -0.5079 -0.3267 -0.0541
23490W        W66584  22.678  12.408   8.638  0.0698  0.0147  0.0645
23491W        W66585  23.139  12.122   9.652 -0.1155 -0.2027  0.0231
23492W        W66586  22.694  11.605  10.238  0.1182 -0.0121  0.1636
23493W        W66587  24.357  13.926   7.323 -0.0256  0.2547  0.2285
23494W        W66588  25.865  11.005   9.560  0.0240 -0.0076 -0.0473
23495W        W66589  22.779  14.385   8.066 -0.0082  0.0610  0.5369
23496W        W66590  25.283  13.589   8.952  0.1388 -0.1071  0.0341
23497W        W66591  24.240  14.039   9.795  0.0133 -0.1048 -0.1204
23498W        W66592  21.648  12.229   8.394  0.0787 -0.1871 -0.0502
23499W        W66593  24.476  12.741   9.773  0.0286  0.1549 -0.0459
23500W        W66594  26.030  12.957   9.936 -0.1401 -0.2988  0.2757
23501W        W66595  23.664  11.219   8.366  0.0291  0.1214  0.2964
23502W        W66596  23.358  12.626   8.675 -0.0135  0.1559  0.2704
23503W        W66597  21.062  13.972   9.280  0.0478 -0.3094 -0.1999
23504W        W66598  23.158  10.773  10.004  0.4965 -0.3024  0.0553
23505W        W66599  23.544  14.094   7.685  0.2839  0.0197 -0.0301
23506W        W66600  22.216  15.487  10.016 -0.0699 -0.2935 -0.1471
23507W        W66601  22.068  12.687   7.161 -0.1243  0.1993 -0.0519
23508W        W66602  23.943  13.318   7.216 -0.2557  0.3884  0.3013
23509W        W66603  23.991  13.377   7.861  0.0992 -0.1152 -0.1355
23510W        W66604  23.562  13.540   8.894 -0.1825 -0.1434  0.1650
23511W        W66605  24.506  12.490   8.559  0.0698  0.0454 -0.1882
23512W        W66606  26.091  13.936   9.065  0.0287  0.0655 -0.2960
23513W        W66607  24.589  11.126   8.263  0.2055 -0.0351 -0.1941
23514W        W66608  25.116  11.186   9.537 -0.1767  0.2669  0.0822
23515W        W66609  26.830  12.250   8.063 -0.1525 -0.0790 -0.1674
23516W        W66610  24.064  14.916   9.674  0.0548 -0.0498  0.1266
23517W        W66611  21.668  12.614   7.446  0.2162 -0.1012  0.1325
23518W        W66612  22.675  13.417   6.934  0.2888 -0.0255 -0.0004
23519W        W66613  22.770  11.089   9.605 -0.1127  0.2314 -0.1285
23520W        W66614  22.889  12.899   9.198 -0.0772 -0.3167 -0.1388
23521W        W66615  23.438  11.755   8.517  0.0713 -0.1123  0.1982
23522W        W66616  24.672  14.658   7.297  0.2207 -0.0363  0.0490
23523W        W66617  22.896  11.630   8.807 -0.1133 -0.0670  0.2513
23524W        W66618  21.308  11.453   8.771  0.0378  0.2576  0.0837
23525W        W66619  25.760  13.579   9.110 -0.0020 -0.2821  0.0977
23526W        W66620  24.863  13.993   8.671  0.2942  0.0439  0.0935
23527W        W66621  23.096  11.815   8.172  0.3978  0.1565  0.0919
23528W        W66622  21.685  12.429   5.976  0.0292  0.2228 -0.1640
23529W        W66623  22.167  11.492   7.994 -0.0627 -0.0163 -0.0201
23530W        W66624  23.655  11.515   9.364  0.3002  0.4256  0.2821
23531W        W66625  24.083  13.451   8.743 -0.0306 -0.1340 -0.1221
23532W        W66626  23.918  15.322   7.256 -0.0270  0.1836  0.0347
23533W        W66627  20.711  11.290   8.789 -0.0774  0.3751 -0.2567
23534W        W66628  25.191  12.794   7.136  0.1971  0.1482 -0.0313
23535W        W66629  26.137  13.328   7.305  0.0620  0.1278 -0.0657
23536W        W66630  25.185  10.215   9.776 -0.2390  0.1989  0.1662
23537W        W66631  24.285  12.593   9.141  0.1894 -0.3432  0.0908
23538W        W66632  23.401  13.480   9.375 -0.0990  0.1317 -0.1053
23539W        W66633  23.984  10.915   9.931 -0.1913  0.1959  0.0037
23540W        W66634  25.280  11.573   7.168 -0.2535  0.0449  0.2405
23541W        W66635  25.249  14.146   7.709 -0.0275  0.1477  0.1422
23542W        W66636  22.414  12.141   9.388  0.0304  0.0916 -0.0895
23543W        W66637  23.879  13.239   9.130 -0.0360 -0.0354 -0.2731
23544W        W66638  22.930  12.969   8.642 -0.0145  0.0019  0.0096
23545W        W66639  23.659  12.709   7.733 -0.1204  0.1335 -0.0190
23546W        W66640  25.636  12.615   7.821  0.0413 -0.2587  0.0801
23547W        W66641  24.815  13.916   9.214 -0.0105 -0.2348 -0.0358
23548W        W66642  23.538  12.936  10.494 -0.0625 -0.3692  0.1727
23549W        W66643  24.965  13.503   9.368  0.0969  0.1364  0.1520
23550W        W66644  21.729  12.599   9.890 -0.2661 -0.2216 -0.2914
23551W        W66645  23.367  12.244   7.344  0.2858 -0.1611 -0.0731
23552W        W66646  22.820  13.519   7.401  0.2359  0.0613 -0.0875
23553W        W66647  25.234  13.053   9.067 -0.1934 -0.0274  0.0662
23554W        W66648  21.868  12.157   9.723  0.3406 -0.1276 -0.1907
23555W        W66649  24.576  12.159   8.145 -0.0033  0.2780  0.0450
23556W        W66650  23.269  11.852   9.193 -0.0219 -0.3604 -0.3172
23557W        W66651  23.153  12.479   9.220  0.0642  0.1564 -0.0992
23558W        W66652  22.459  17.027   1.956 -0.2241 -0.1380  0.1222
23559W        W66653  20.996  16.368   0.651  0.1364 -0.1273  0.0039
23560W        W66654  26.288  14.933  31.206 -0.2167  0.0508  0.0551
23561W        W66655  24.766  18.278  31.969 -0.2194 -0.1198  0.2265
23562W        W66656  20.509  15.670   0.405 -0.0485 -0.3059  0.0585
23563W        W66657  22.976  17.919   0.554 -0.1567  0.0276  0.2099
23564W        W66658  23.772  14.052   4.306  0.2251  0.0035 -0.2077
23565W        W66659  23.226  17.742   2.756 -0.0693  0.2262 -0.0519
23566W        W66660  25.542  17.742   2.364 -0.3168 -0.2176  0.1039
23567W        W66661  23.416  16.983  31.418 -0.0804  0.4353 -0.2077
23568W        W66662  23.228  16.321   2.386 -0.0516 -0.2133  0.3549
23569W        W66663  22.749  16.904   2.468  0.3076  0.1883 -0.0977
23570W        W66664  22.584  15.282   0.618  0.0061  0.1863  0.0589
23571W        W66665  21.867  14.646   2.983  0.0572 -0.2505 -0.0119
23572W        W66666  24.725  15.955   2.713 -0.1427 -0.0908  0.0001
23573W        W66667  21.094  16.630  31.671 -0.0335  0.0609  0.1300
23574W        W66668  22.202  15.606   1.654 -0.3181  0.1550  0.1717
23575W        W66669  22.683  16.885   0.557 -0.0561  0.2965 -0.2203
23576W        W66670  24.635  17.359   1.154 -0.1281  0.0232  0.3787
23577W        W66671  23.099  15.398   1.430  0.0878 -0.0858  0.1796
23578W        W66672  25.248  14.013   4.189 -0.1847  0.0478  0.2450
23579W        W66673  23.818  16.785   1.175  0.2659  0.0203 -0.0220
23580W        W66674  20.382  17.161  30.822 -0.0888 -0.1506  0.1256
23581W        W66675  21.120  15.881   0.584  0.0732  0.0678 -0.0932
23582W        W66676  22.380  15.975   1.369 -0.0531 -0.0907 -0.0049
23583W        W66677  24.950  14.383   1.075  0.2441  0.1379  0.1390
23584W        W66678  24.426  14.815   2.708  0.0395 -0.0751 -0.3594
23585W        W66679  23.787  16.661   1.671  0.0432 -0.4090 -0.2540
23586W        W66680  24.009  18.074   0.811  0.0203 -0.2456 -0.2726
23587W        W66681  24.992  14.168   2.834  0.2260  0.1474 -0.1443
23588W        W66682  21.915  16.811   0.488  0.0120  0.0321 -0.2077
23589W        W66683  21.019  18.216  31.338 -0.2111 -0.1114  0.0741
23590W        W66684  22.072  18.081   0.268 -0.3088  0.1753 -0.4876
23591W        W66685  24.448  18.092   1.179 -0.2809  0.0067  0.2973
23592W        W66686  24.708  18.643   2.713  0.1344 -0.1254 -0.0120
23593W        W66687  22.844  17.120   2.987 -0.1067 -0.1874 -0.2901
23594W        W66688  20.586  18.439  31.348  0.0131  0.1714 -0.0301
23595W        W66689  24.075  16.544   2.061  0.1630  0.2017 -0.1159
23596W        W66690  24.241  17.063   1.328 -0.0401  0.0626 -0.0417
23597W        W66691  23.430  15.870   1.605 -0.3203  0.0827 -0.0467
23598W        W66692  23.643  16.196   1.991 -0.0912  0.0850  0.0411
23599W        W66693  23.623  18.405   0.875  0.0439  0.1458 -0.1588
23600W        W66694  25.349  17.466   0.994 -0.0977 -0.0144 -0.0646
23601W        W66695  21.827  17.350   2.554  0.3053  0.1147  0.3023
23602W        W66696  21.645  18.084   1.410  0.1857  0.1727 -0.2979
23603W        W66697  24.905  14.113   4.911  0.0919  0.0712  0.2354
23604W        W66698  21.777  18.273  30.605 -0.2195 -0.0859 -0.5461
23605W        W66699  24.009  15.285   0.623 -0.0571  0.0284 -0.0666
23606W        W66700  22.136  14.945   0.606 -0.0043  0.3283 -0.0799
23607W        W66701  24.969  14.278  31.408 -0.0906  0.1518  0.0021
23608W        W66702  23.032  16.065   0.356  0.0527  0.2182  0.0592
23609W        W66703  22.098  16.762   1.409  0.0020  0.0346  0.1753
23610W        W66704  22.757  15.654   3.094 -0.0635  0.3011 -0.0168
23611W        W66705  23.660  17.766   1.724 -0.0665 -0.1701  0.3184
23612W        W66706  24.160  15.989   1.006  0.2097  0.0229 -0.1242
23613W        W66707  25.466  16.042   2.366  0.0260  0.0001  0.0331
23614W        W66708  24.662  16.906   0.993  0.1479 -0.1293 -0.0086
23615W        W66709  21.728  16.065   0.126  0.3080 -0.1403 -0.0621
23616W        W66710  24.229  17.550   0.064  0.2728 -0.2352 -0.1411
23617W        W66711  25.526  18.340   1.565 -0.0592 -0.1579  0.0167
23618W        W66712  24.483  17.850  31.723 -0.1625  0.0275  0.3141
23619W        W66713  21.977  16.503  31.651 -0.0229 -0.3170 -0.0937
23620W        W66714  21.342  17.359   1.628 -0.3811  0.1789  0.0267
23621W        W66715  20.838  16.286   2.716  0.0013 -0.2321 -0.0436
23622W        W66716  21.252  15.452  31.381  0.4654 -0.2068  0.2044
23623W        W66717  24.469  18.344   4.186  0.1194 -0.1861  0.0404
23624W        W66718  20.758  17.755   1.872  0.3582  0.1934  0.2694
23625W        W66719  24.337  14.926   2.176 -0.3589 -0.2036 -0.1192
23626W        W66720  24.784  16.890   0.551 -0.1474 -0.0854 -0.2843
23627W        W66721  24.883  18.012   3.508 -0.1234 -0.2210 -0.0445
23628W        W66722  24.618  17.843   0.288  0.5467 -0.1610 -0.2227
23629W        W66723  25.046  13.392   0.052 -0.3131  0.1533  0.0097
23630W        W66724  24.855  16.365   1.281 -0.2019  0.0997 -0.1055
23631W        W66725  22.788  18.151  31.515 -0.0053  0.2201 -0.0223
23632W        W66726  23.461  16.107   0.722 -0.4009  0.0470  0.0562
23633W        W66727  26.741  14.974   3.956  0.2535 -0.0396 -0.0166
23634W        W66728  24.695  16.390  31.896 -0.1014  0.3020  0.4678
23635W        W66729  22.652  17.999   0.916 -0.1908  0.3753  0.1267
23636W        W66730  23.147  15.974   1.985 -0.0751 -0.1167 -0.0742
23637W        W66731  23.745  16.904   2.485  0.4105 -0.1728  0.2264
23638W        W66732  21.195  17.973  29.874  0.0841 -0.0273  0.0554
23639W        W66733  22.280  17.227   0.521  0.0615 -0.2612 -0.1444
23640W        W66734  21.658  17.138  31.128 -0.1736 -0.0964  0.1139
23641W        W66735  21.640  15.969   1.200 -0.0478  0.2843  0.0276
23642W        W66736  23.943  17.522   0.580 -0.0488  0.1483  0.1447
23643W        W66737  24.428  15.814   1.929  0.0709 -0.4757  0.0811
23644W        W66738  21.205  15.235   2.669  0.1145 -0.1382  0.1804
23645W        W66739  24.240  13.909   0.320  0.0882 -0.1651 -0.2189
23646W        W66740  23.894  16.826  31.860  0.1844  0.0094 -0.3399
23647W        W66741  25.009  19.360  31.891 -0.0608 -0.1059  0.0636
23648W        W66742  25.980  15.484  30.528 -0.1636  0.1534 -0.0217
23649W        W66743  24.352  17.675   0.826  0.0318  0.0394 -0.1905
23650W        W66744  21.352  16.438   1.284 -0.1279 -0.0286  0.1033
23651W        W66745  22.536  15.874  31.873 -0.1635 -0.2059 -0.0052
23652W        W66746  23.385  14.800   3.495  0.1038  0.0096 -0.2755
23653W        W66747  21.216  15.376   1.575  0.1495 -0.0848  0.2909
23654W        W66748  24.740  14.795   3.263 -0.3369 -0.2055  0.3358
23655W        W66749  20.361  14.946  31.493  0.3001 -0.2161  0.2629
23656W        W66750  23.940  14.958   2.634 -0.0041  0.2351 -0.0126
23657W        W66751  23.493  16.823   0.231 -0.1888 -0.2706 -0.1568
23658W        W66752  21.690  16.723   0.992  0.0469  0.2007  0.0358
23659W        W66753  25.233  13.817   1.794 -0.0764  0.0939 -0.0833
23660W        W66754  22.848  18.606  31.941 -0.1154  0.4263  0.0948
23661W        W66755  24.714  18.222   2.930 -0.0022  0.0966 -0.2317
23662W        W66756  24.232  17.544   1.445  0.1608 -0.1288 -0.0387
23663W        W66757  22.285  16.045   2.386 -0.0222 -0.0536 -0.4421
23664W        W66758  22.114  14.985   0.116 -0.1433  0.1762 -0.0591
23665W        W66759  22.298  18.655   2.177 -0.0163  0.0264 -0.1564
23666W        W66760  21.785  17.508   1.399 -0.3714  0.0247 -0.0065
23667W        W66761  24.251  15.561   0.206  0.1635 -0.0078 -0.0023
23668W        W66762  25.017  18.382   1.351  0.0004 -0.1237  0.1863
23669W        W66763  23.116  16.557   0.433 -0.0634  0.2319 -0.1614
23670W        W66764  22.529  16.518   1.256  0.1078  0.1281 -0.1295
23671W        W66765  24.006  14.627   3.003  0.1563  0.0420  0.0934
23672W        W66766  26.256  18.366   2.801 -0.0647  0.0108 -0.0614
23673W        W66767  23.814  16.318   1.317  0.3404  0.1566  0.0775
23674W        W66768  22.523  14.252   0.340  0.0698 -0.1943 -0.2306
23675W        W66769  23.810  17.675   1.217  0.3419  0.2760  0.2594
23676W        W66770  21.472  17.631  31.362 -0.1679  0.2041  0.2355
23677W        W66771  20.162  15.492   1.115 -0.0629  0.2337 -0.1313
23678W        W66772  23.409  17.423   0.434  0.0562 -0.3184 -0.1320
23679W        W66773  24.449  14.677   1.158 -0.2320 -0.0021 -0.1559
23680W        W66774  21.694  16.406   1.688 -0.3172  0.2545  0.3220
23681W        W66775  24.628  14.170   4.482 -0.1909  0.1883  0.1691
23682W        W66776  22.440  16.355  31.659  0.1817 -0.1445 -0.1917
23683W        W66777  22.480  16.983   1.193  0.0418 -0.2271 -0.2498
23684W        W66778  23.118  13.895  31.875 -0.0805 -0.3613  0.1225
23685W        W66779  24.522  15.948   0.142  0.1880  0.0266 -0.1355
23686W        W66780  23.897  16.218   2.942 -0.2575  0.0145 -0.0373
23687W        W66781  25.498  16.080  31.864  0.1553  0.1989 -0.1849
23688W        W66782  24.507  14.377  31.231  0.0590 -0.0646 -0.2122
23689W        W66783  23.613  15.004   0.353 -0.0149  0.1327 -0.2163
23690W        W66784  21.763  18.735   1.744 -0.1546 -0.0820  0.2157
23691W        W66785  23.074  18.254   0.970 -0.0912 -0.1173 -0.1026
23692W        W66786  23.954  16.442   0.780  0.0446  0.0627 -0.1691
23693W        W66787  24.222  13.775   0.824 -0.2501 -0.0988 -0.2627
23694W        W66788  25.629  17.756   0.694  0.2953  0.0794 -0.0481
23695W        W66789  21.654  17.232   0.173  0.1598 -0.0367  0.2704
23696W        W66790  22.094  15.636   2.982 -0.0527 -0.1171 -0.3792
23697W        W66791  24.837  18.906   0.662  0.0712 -0.1054 -0.1510
23698W        W66792  22.724  16.198   2.209 -0.0418 -0.2122  0.1689
23699W        W66793  22.892  17.635  31.655 -0.1007 -0.1564 -0.1376
23700W        W66794  23.458  14.603   2.120  0.1807  0.0379  0.4161
23701W        W66795  21.745  18.726  31.973 -0.2062 -0.1947 -0.0132
23702W        W66796  24.790  14.806   1.991 -0.2530 -0.1713 -0.2453
23703W        W66797  22.504  15.299   1.919 -0.1217 -0.0315 -0.0325
23704W        W66798  24.622  14.431   2.950  0.0031 -0.1489  0.2597
23705W        W66799  24.510  17.735   3.073 -0.3419  0.0778  0.0769
23706W        W66800  23.466  15.653   0.270 -0.2601  0.2694 -0.0567
23707W        W66801  24.356  16.143   1.459  0.0378  0.0289  0.0165
23708W        W66802  21.855  15.316   0.762  0.1509  0.1181 -0.5698
23709W        W66803  24.085  15.441   2.822  0.1649 -0.0957 -0.1048
23710W        W66804  20.049  15.641   1.590 -0.1440 -0.0043  0.2351
23711W        W66805  21.682  17.691   1.823  0.0047  0.0387  0.0568
23712W        W66806  23.412  17.279   2.621 -0.2384  0.1388 -0.0795
23713W        W66807  26.697  16.582   2.489 -0.1135 -0.0766  0.4804
23714W        W66808  23.317  14.629   3.050  0.0950 -0.4325 -0.0728
23715W        W66809  23.375  16.622  31.791  0.2063 -0.0594  0.0203
23716W        W66810  22.803  16.760   1.555  0.2478 -0.1164 -0.1737
23717W        W66811  22.515  19.574  30.949 -0.1326  0.2511 -0.2384
23718W        W66812  22.516  14.779   1.969 -0.0484  0.0127  0.0591
23719W        W66813  22.135  16.963   2.374 -0.0990 -0.0231 -0.0230
23720W        W66814  22.575  17.872  30.695 -0.0054  0.2833  0.0629
23721W        W66815  24.533  16.764   2.064 -0.0035 -0.0551  0.2318
23722W        W66816  22.003  17.789  31.431 -0.1463  0.0700 -0.0520
23723W        W66817  24.865  16.012   2.247  0.1320 -0.3130 -0.1867
23724W        W66818  23.252  16.421   1.707 -0.1131 -0.0560 -0.1618
23725W        W66819  22.536  15.223   1.438 -0.2219  0.2392  0.0589
23726W        W66820  21.424  15.466  30.873  0.1418  0.0908 -0.2267
23727W        W66821  24.015  15.492   1.102  0.1489  0.3417  0.2329
23728W        W66822  25.666  18.067  31.475  0.1437  0.0193 -0.2903
23729W        W66823  22.774  15.674   2.137 -0.0304 -0.0071  0.3208
23730W        W66824  22.441  16.024   1.892  0.0289 -0.1119  0.0580
23731W        W66825  22.036  17.604   2.948 -0.1519 -0.2361  0.0163
23732W        W66826  25.028  14.714   2.784  0.0760  0.0980 -0.1617
23733W        W66827  23.143  15.686   0.744 -0.0150 -0.0924 -0.2519
23734W        W66828  23.857  18.171   1.326 -0.1874  0.3602 -0.0961
23735W        W66829  23.228  15.576   3.226  0.0929  0.1461  0.0897
23736W        W66830  22.212  14.805  31.071  0.1951 -0.2416  0.1924
23737W        W66831  24.693  16.420   2.707  0.0024 -0.4154 -0.0927
23738W        W66832  23.721  15.567   2.042 -0.0000  0.2065  0.1442
23739W        W66833  21.567  17.191   0.745 -0.2441 -0.0478  0.0210
23740W        W66834  23.383  17.628   2.219  0.2958 -0.1335  0.0575
23741W        W66835  21.453  15.897  31.207  0.2308 -0.1135 -0.1173
23742W        W66836  22.670  15.691   0.375 -0.1508 -0.1743  0.0977
23743W        W66837  21.694  17.049   1.392 -0.0200  0.4768 -0.0066
23744W        W66838  24.969  16.548   2.173  0.0071  0.1055 -0.2252
23745W        W66839  23.419  16.417   2.798  0.0286  0.1827  0.1425
23746W        W66840  23.773  16.360   0.307  0.0150  0.0977  0.1132
23747W        W66841  24.641  16.211   0.862  0.0339  0.0925  0.1982
23748W        W66842  24.787  16.368   0.395  0.0539  0.1089  0.0523
23749W        W66843  23.455  14.052   2.580  0.1406 -0.1553 -0.2148
23750W        W66844  20.870  17.513   2.396 -0.0205 -0.0152  0.0459
23751W        W66845  21.622  15.080   1.841 -0.2491  0.0348 -0.0054
23752W        W66846  24.212  18.250  31.581 -0.1781 -0.0209  0.2810
23753W        W66847  23.232  16.575   3.275  0.1420  0.1994  0.2879
23754W        W66848  23.437  15.474  31.439  0.1682  0.1364 -0.0747
23755W        W66849  20.835  17.231   1.328  0.0712  0.2555  0.1776
23756W        W66850  22.943  16.228  31.830 -0.1930 -0.2548  0.1224
23757W        W66851  23.367  15.700   2.378  0.0599 -0.2703 -0.0474
23758W        W66852  21.776  16.868   1.925  0.0397  0.0292  0.2661
23759W        W66853  23.292  16.334  31.400  0.0931 -0.1828 -0.0099
23760W        W66854  22.974  17.218   1.181 -0.0522 -0.3263  0.2326
23761W        W66855  24.837  14.649  31.774  0.1657 -0.2767 -0.3243
23762W        W66856  23.818  17.440  31.119 -0.0862 -0.0053 -0.2429
23763W        W66857  22.738  15.609   1.100 -0.0208 -0.0635 -0.2500
23764W        W66858  26.383  14.766   3.641  0.0592 -0.1727 -0.0428
23765W        W66859  22.794  15.635  30.866  0.3963 -0.3083 -0.1634
23766W        W66860  24.845  14.588   4.255  0.0738  0.1715  0.1916
23767W        W66861  22.882  14.911   2.750 -0.0020  0.1230  0.2038
23768W        W66862  24.750  15.440   0.260  0.2954  0.4055 -0.0415
23769W        W66863  21.992  16.396   2.114  0.2058 -0.2661  0.0926
23770W        W66864  24.587  18.749   4.468  0.1521 -0.0786  0.0049
23771W        W66865  21.951  16.525   2.639 -0.0335  0.3300  0.3770
23772W        W66866  23.468  15.142   1.856  0.2258  0.1723 -0.3251
23773W        W66867  24.425  14.874   0.289 -0.1319 -0.2031 -0.1937
23774W        W66868  22.420  16.565   2.333 -0.1737  0.1032 -0.1039
23775W        W66869  25.525  17.681   3.015 -0.2431 -0.0317 -0.1931
23776W        W66870  23.099  17.088   0.259  0.0628 -0.2955  0.0159
23777W        W66871  24.485  15.192   1.301 -0.4389  0.3075  0.3418
23778W        W66872  23.821  17.216   1.560  0.2110  0.0303 -0.1894
23779W        W66873  24.761  16.249   1.792 -0.1885 -0.2075  0.0872
23780W        W66874  23.546  16.700   0.728  0.3757  0.1010  0.4013
23781W        W66875  22.007  16.923   0.007  0.0361 -0.1615  0.3278
23782W        W66876  24.579  15.262   3.494  0.0248 -0.1472  0.0107
23783W        W66877  24.010  16.763   0.382 -0.0241  0.1956  0.3154
23784W        W66878  23.514  15.400   2.729  0.0638  0.0286  0.2587
23785W        W66879  24.319  14.779   3.613 -0.0242  0.1786 -0.0273
23786W        W66880  25.638  15.894   1.152 -0.0139 -0.1342  0.0118
23787W        W66881  23.582  15.840   1.121 -0.0929  0.1255  0.1703
23788W        W66882  21.977  15.756   2.072  0.0610 -0.0626 -0.1800
23789W        W66883  24.261  19.108   2.991 -0.1079 -0.0434 -0.0370
23790W        W66884  25.944  15.663  31.494  0.2930 -0.5728 -0.1597
23791W        W66885  24.370  14.418   1.972 -0.0951 -0.1738 -0.0515
23792W        W66886  26.082  16.237   1.335 -0.3097  0.1378  0.2029
23793W        W66887  23.814  16.989  30.903 -0.0815  0.1482  0.0380
23794W        W66888  21.688  15.542   1.710  0.1859  0.1726  0.0734
23795W        W66889  24.935  15.747   1.825 -0.0547  0.0478 -0.2512
23796W        W66890  23.862  14.391  31.491  0.1476  0.0107 -0.2402
23797W        W66891  25.239  14.921   4.367 -0.5416  0.0336  0.4013
23798W        W66892  22.788  17.391   0.536 -0.1298 -0.0185 -0.0359
23799W        W66893  25.650  17.849   1.853  0.1123 -0.3964  0.0152
23800W        W66894  25.268  14.683   0.199 -0.0306  0.0377  0.1218
23801W        W66895  21.996  16.320   1.066  0.0503 -0.0273  0.1743
23802W        W66896  21.070  19.053   1.656 -0.1533 -0.0561  0.3430
23803W        W66897  21.651  14.555  31.309  0.1000 -0.0491  0.0348
23804W        W66898  23.026  15.316   0.262 -0.2488 -0.0870 -0.0509
23805W        W66899  24.445  16.104   3.095 -0.0569  0.2793 -0.2366
23806W        W66900  26.328  16.265   3.376 -0.3175 -0.0717  0.5142
23807W        W66901  23.166  14.434   2.563  0.1575 -0.2138 -0.1445
23808W        W66902  24.381  14.836   4.576  0.0558 -0.1074  0.1356
23809W        W66903  21.342  17.208  30.258 -0.1213  0.0485  0.1021
23810W        W66904  23.149  15.499   1.885  0.5896  0.2379  0.1303
23811W        W66905  22.137  17.896   2.143  0.0661 -0.0523  0.1606
23812W        W66906  22.065  17.228   1.033 -0.1810  0.0689  0.4217
23813W        W66907  21.584  16.832  31.625  0.2265 -0.1269  0.4174
23814W        W66908  24.038  14.101   2.794  0.2643  0.0076  0.1535
23815W        W66909  23.870  14.902   1.572 -0.3910 -0.2216  0.1763
23816W        W66910  24.770  16.885   2.501  0.0383  0.2044 -0.0615
23817W        W66911  24.638  17.890   4.201  0.0319  0.1954  0.0149
23818W        W66912  24.634  17.388   3.382 -0.0381  0.0797 -0.2752
23819W        W66913  24.403  16.578   0.621  0.1522 -0.3785 -0.1312
23820W        W66914  24.337  17.156   1.801  0.2108  0.1335 -0.6047
23821W        W66915  24.909  16.746  31.612  0.2454 -0.0292 -0.2502
23822W        W66916  22.375  15.954   0.632  0.1540 -0.4300 -0.3453
23823W        W66917  21.413  16.458   2.070  0.3318 -0.2249  0.1042
23824W        W66918  24.051  16.073   3.496 -0.0482 -0.2066 -0.2304
23825W        W66919  23.491  16.637   2.078 -0.2334 -0.0972 -0.1634
23826W        W66920  22.103  15.053   1.638  0.1158  0.1992  0.2452
23827W        W66921  24.116  16.579  30.996 -0.1967  0.3317  0.1309
23828W        W66922  21.679  18.424   4.393 -0.0880  0.1307 -0.1470
23829W        W66923  20.507  16.147   2.293  0.1631 -0.3323 -0.1422
23830W        W66924  21.172  17.691  30.479  0.5254  0.0131  0.2163
23831W        W66925  24.296  16.402   0.114  0.0609 -0.0400 -0.4515
23832W        W66926  24.536  16.882   0.118 -0.1082 -0.2461  0.1253
23833W        W66927  23.789  17.454   2.399 -0.3245  0.0470 -0.2668
23834W        W66928  22.301  14.364   0.819 -0.4528  0.0456  0.1239
23835W        W66929  20.642  18.546  31.855 -0.3005 -0.3052  0.1229
23836W        W66930  21.249  16.786  31.174  0.0212  0.1402 -0.1297
23837W        W66931  22.611  17.285   0.055  0.1079  0.1483 -0.4629
23838W        W66932  23.203  17.544   0.923  0.3044 -0.4048  0.0653
23839W        W66933  24.987  17.162   3.552 -0.0781  0.3944  0.0343
23840W        W66934  25.790  13.004  30.726  0.1119 -0.0452  0.1192
23841W        W66935  24.786  17.838   2.622 -0.0764 -0.0517  0.3496
23842W        W66936  25.430  15.569  31.963 -0.0657  0.2160 -0.2569
23843W        W66937  23.118  17.776   3.238 -0.1643 -0.0245  0.1391
23844W        W66938  25.154  16.005   1.450  0.3548 -0.2567 -0.0544
23845W        W66939  22.019  15.464   0.274 -0.4982  0.0625 -0.0354
23846W        W66940  22.772  16.229   1.614 -0.0076 -0.2396 -0.1978
23847W        W66941  24.686  14.268   3.426  0.0699 -0.1216  0.1856
23848W        W66942  21.934  18.498   3.015 -0.1888  0.2112  0.1527
23849W        W66943  25.226  17.208   0.516 -0.0976 -0.0773 -0.0765
23850W        W66944  21.478  15.806  30.480 -0.1633 -0.1109 -0.0337
23851W        W66945  22.587  16.360   0.529 -0.0955 -0.0880 -0.2888
23852W        W66946  25.262  14.551   0.721  0.1576 -0.0345 -0.3385
23853W        W66947  22.871  16.945  30.848 -0.0288  0.0019  0.0870
23854W        W66948  23.193  15.113   3.029  0.1095  0.1681 -0.0470
23855W        W66949  23.365  17.435   1.414  0.1217 -0.1648 -0.0691
23856W        W66950  23.399  17.097   2.108  0.0416 -0.0240 -0.2376
23857W        W66951  23.288  18.751   3.108  0.3986 -0.1539 -0.0598
23858W        W66952  19.452  14.511  31.656 -0.1410 -0.0970 -0.2149
23859W        W66953  26.088  16.924   1.952 -0.1151 -0.0072  0.0303
23860W        W66954  22.893  15.931   2.586  0.0402  0.0700  0.0491
23861W        W66955  24.721  15.057   2.441  0.0081  0.0204  0.1756
23862W        W66956  22.925  15.274  31.678 -0.0621 -0.0566 -0.0703
23863W        W66957  24.220  16.120   0.527 -0.0037 -0.0320  0.3711
23864W        W66958  24.474  16.303   2.271 -0.1208  0.3773  0.1297
23865W        W66959  22.523  17.481   2.217 -0.1875  0.1893  0.0271
23866W        W66960  22.068  16.967  31.429 -0.1994 -0.2421  0.0494
23867W        W66961  25.275  17.200   3.097  0.0205 -0.1965 -0.0922
23868W        W66962  23.450  15.187  31.890 -0.2567 -0.1446 -0.0191
23869W        W66963  24.639  17.659   1.758 -0.3009  0.1941 -0.1119
23870W        W66964  22.031  15.950  31.715 -0.3240  0.1401  0.1412
23871W        W66965  23.887  15.764   0.575 -0.0351 -0.0209  0.4749
23872W        W66966  22.055  16.327   0.536 -0.0310  0.2316 -0.2111
23873W        W66967  24.288  16.521   1.119  0.0422  0.0222  0.1459
23874W        W66968  23.300  17.763   4.120 -0.0935  0.1605  0.1653
23875W        W66969  21.998  16.039   1.647 -0.0888  0.1507 -0.3951
23876W        W66970  26.096  18.142  30.721 -0.2259 -0.3790  0.0059
23877W        W66971  24.473  15.346   4.069 -0.2444 -0.4602 -0.0708
23878W        W66972  23.058  19.192  29.799 -0.0442  0.1289  0.3613
23879W        W66973  25.201  16.633   1.039 -0.1455  0.2951  0.2889
23880W        W66974  24.284  17.643   2.587  0.0881  0.1598 -0.0114
23881W        W66975  21.654  15.081   2.658 -0.2794  0.3018 -0.0166
23882W        W66976  25.118  19.067   2.701  0.1755  0.4522  0.0238
23883W        W66977  25.084  17.499   1.399 -0.0047 -0.0260  0.1826
23884W        W66978  22.012  15.278   2.067  0.1231 -0.0017  0.0041
23885W        W66979  22.715  16.170   0.948  0.2507 -0.1195 -0.1299
23886W        W66980  22.544  18.098   1.457 -0.1190  0.1093 -0.0732
23887W        W66981  24.881  14.766   3.748 -0.0360 -0.1285  0.1125
23888W        W66982  23.793  15.828   2.601  0.0785 -0.1458 -0.1033
23889W        W66983  23.280  17.335  30.913 -0.1006 -0.4124 -0.0687
23890W        W66984  23.865  14.211   3.653 -0.0715 -0.2057 -0.2419
23891W        W66985  23.792  16.721   2.960  0.0532  0.1946 -0.1434
23892W        W66986  22.053  17.415   2.059  0.0005  0.0006 -0.1491
23893W        W66987  22.788  16.678   0.097 -0.0284  0.2627 -0.0924
23894W        W66988  23.198  16.791   3.791  0.0522  0.0532  0.0688
23895W        W66989  23.162  17.031   0.764  0.1778  0.1910  0.0490
23896W        W66990  24.330  19.207   0.141 -0.0648  0.1055 -0.2444
23897W        W66991  24.595  17.460   2.231  0.1866 -0.0139  0.0435
23898W        W66992  23.297  16.412   1.204 -0.1739 -0.0896 -0.0627
23899W        W66993  25.523  17.040   2.203  0.1003  0.0962 -0.0761
23900W        W66994  22.877  17.285  31.329 -0.0869 -0.0748  0.2698
23901W        W66995  24.436  15.699   0.658  0.0658 -0.1027  0.0220
23902W        W66996  24.191  15.535   2.371  0.3325  0.3216 -0.0068
23903W        W66997  22.015  18.115   2.592  0.0148  0.2497 -0.3373
23904W        W66998  23.034  16.177  30.971  0.0048 -0.1217 -0.2253
23905W        W66999  22.475  17.083  31.119  0.1437 -0.0150  0.1147
23906W        W67000  22.337  16.665   0.251  0.1621  0.1417  0.2392
23907W        W67001  24.213  14.258   3.263  0.0186 -0.1138 -0.0028
23908W        W67002  22.525  16.014   3.358 -0.2846 -0.0960  0.1240
23909W        W67003  21.348  16.671   0.451 -0.2666 -0.3755 -0.0220
23910W        W67004  22.157  14.558   0.362 -0.1254 -0.1113  0.0254
23911W        W67005  23.841  17.345  31.633  0.0231 -0.1529 -0.1782
23912W        W67006  22.210  14.971   2.552 -0.3062  0.0474 -0.0195
23913W        W67007  22.691  15.680   1.596  0.1046  0.2327 -0.2417
23914W        W67008  23.361  16.866   1.458 -0.0239  0.1264  0.4918
23915W        W67009  25.160  17.015   1.288 -0.1458  0.0531  0.1153
23916W        W67010  22.901  16.612   0.908 -0.1892  0.1199 -0.1080
23917W        W67011  26.065  17.730   3.177  0.1202  0.1050 -0.0672
23918W        W67012  20.349  16.104   0.117  0.0110 -0.0492  0.0676
23919W        W67013  23.274  15.557   4.987 -0.4366 -0.1600 -0.0693
23920W        W67014  24.982  15.476   3.680 -0.1153  0.4542 -0.0288
23921W        W67015  21.614  14.168  31.642 -0.1078  0.0046 -0.2408
23922W        W67016  24.552  15.463   2.729 -0.0049 -0.0746  0.2100
23923W        W67017  22.258  16.709   0.868 -0.1079  0.0081  0.3792
23924W        W67018  23.660  18.330  31.450 -0.2020 -0.1614  0.0053
23925W        W67019  22.378  16.782   2.810 -0.1755 -0.3086 -0.1297
23926W        W67020  23.714  16.362   2.437  0.1736  0.3069 -0.2261
23927W        W67021  21.371  14.700   2.854  0.2389 -0.0334  0.0389
23928W        W67022  25.319  17.256  31.827 -0.3378 -0.0637 -0.1740
23929W        W67023  22.988  17.373   1.931 -0.2729  0.0408  0.2149
23930W        W67024  24.229  17.577  31.384 -0.0524  0.2218  0.2277
23931W        W67025  25.145  15.221   1.895  0.0593  0.3329 -0.1967
23932W        W67026  24.397  16.664   1.599  0.0185  0.3163  0.1605
23933W        W67027  20.263  15.183   2.305  0.0795  0.1003  0.1142
23934W        W67028  21.909  17.052   2.923 -0.3359  0.0273  0.0673
23935W        W67029  25.864  18.879   1.904 -0.0269  0.0707 -0.4065
23936W        W67030  22.362  16.062   2.883 -0.0442  0.1381 -0.0510
23937W        W67031  23.925  14.488   0.192 -0.0439  0.2135  0.0360
23938W        W67032  24.374  17.060  31.608  0.1217  0.0174 -0.0511
23939W        W67033  21.040  16.050   1.041 -0.2635  0.0184  0.0896
23940W        W67034  21.316  14.297  30.815 -0.2832  0.1967  0.3649
23941W        W67035  24.039  15.972   2.163 -0.0383 -0.0574  0.0444
23942W        W67036  24.316  17.118   2.513  0.0514 -0.1306  0.1764
23943W        W67037  24.801  17.159   1.628 -0.0492  0.3844  0.0983
23944W        W67038  23.400  14.367   0.346  0.3086  0.0401 -0.3335
23945W        W67039  24.801  17.004  30.861  0.1759  0.2621 -0.0366
23946W        W67040  23.892  17.956   3.530  0.0448  0.1205 -0.1072
23947W        W67041  24.194  18.705   2.727 -0.0179  0.0107 -0.1011
23948W        W67042  22.507  18.227   2.041 -0.0178 -0.1356  0.1043
23949W        W67043  24.967  16.723   1.646 -0.0409  0.0424 -0.0069
23950W        W67044  20.792  14.729   1.332  0.4323 -0.2284  0.4144
23951W        W67045  21.604  15.307   1.210 -0.2349  0.1423  0.1455
23952W        W67046  23.767  16.276  31.739  0.4608 -0.0021 -0.1535
23953W        W67047  24.515  16.355   3.551  0.1223  0.0239  0.0345
23954W        W67048  23.434  16.090   0.057  0.0822 -0.0256 -0.1793
23955W        W67049  23.488  15.375   1.010  0.2294  0.2541 -0.2692
23956W        W67050  23.259  16.821   2.494 -0.2582  0.2040 -0.2879
23957W        W67051  25.122  17.439   2.532  0.1070  0.1927 -0.0343
23958W        W67052  24.439  16.403   5.634 -0.2254  0.2621 -0.1374
23959W        W67053  22.702  16.194   4.751 -0.2671  0.1557  0.0697
23960W        W67054  24.071  16.114   4.510 -0.0307 -0.2142 -0.1537
23961W        W67055  25.623  16.202   3.030 -0.0441  0.1342  0.0577
23962W        W67056  22.125  16.318   4.729  0.0955 -0.0229  0.2248
23963W        W67057  24.234  16.614   2.611 -0.1262  0.1403  0.0297
23964W        W67058  22.762  13.976   7.082 -0.0921  0.0161 -0.0085
23965W        W67059  24.984  17.069   6.735 -0.0527  0.0806  0.0937
23966W        W67060  24.041  17.192   4.201 -0.2328  0.0853 -0.2593
23967W        W67061  23.480  16.109   3.247 -0.0001 -0.0323 -0.1815
23968W        W67062  22.952  16.306   6.468 -0.4029 -0.1104 -0.1889
23969W        W67063  23.249  18.292   5.182 -0.2516 -0.5553  0.0532
23970W        W67064  22.886  15.587   5.565  0.1503 -0.0746  0.5471
23971W        W67065  21.650  13.904   4.344  0.0587  0.1275  0.1584
23972W        W67066  24.700  17.283   6.307  0.2080 -0.0245 -0.2019
23973W        W67067  22.858  16.390   3.555 -0.1194  0.0376  0.5850
23974W        W67068  22.239  15.942   6.163 -0.2079  0.0921 -0.1126
23975W        W67069  23.571  16.130   4.433  0.1391 -0.2384 -0.0726
23976W        W67070  25.006  18.043   5.155 -0.0607  0.1389  0.0176
23977W        W67071  22.963  15.882   6.762 -0.0137 -0.0799 -0.1724
23978W        W67072  24.777  13.697   7.175 -0.0430 -0.0492 -0.0789
23979W        W67073  23.640  16.920   3.907  0.1904  0.0904  0.1017
23980W        W67074  23.313  15.884   2.827  0.1259 -0.1584  0.0018
23981W        W67075  20.698  15.278   4.602  0.0521 -0.0334 -0.3455
23982W        W67076  24.018  18.163   5.109  0.2759 -0.1489 -0.0579
23983W        W67077  24.308  16.244   5.064  0.2713  0.2991  0.4509
23984W        W67078  26.021  16.681   4.441 -0.3557  0.1519 -0.2114
23985W        W67079  23.986  17.778   4.628  0.1095 -0.1940 -0.3636
23986W        W67080  23.658  17.877   5.397 -0.0378  0.1966  0.0314
23987W        W67081  22.935  16.100   7.307  0.4199  0.0731  0.2484
23988W        W67082  21.415  16.361   3.984 -0.0791  0.3583 -0.2765
23989W        W67083  22.740  17.504   4.292 -0.0143  0.1886  0.3025
23990W        W67084  23.940  19.696   5.247 -0.0581  0.4236  0.3505
23991W        W67085  25.536  17.172   3.656 -0.1249 -0.0013  0.0782
23992W        W67086  24.210  18.365   7.000 -0.2236 -0.1480 -0.1494
23993W        W67087  23.704  18.435   6.055 -0.1639 -0.1922 -0.2773
23994W        W67088  21.023  17.973   2.265 -0.1426  0.0421 -0.1153
23995W        W67089  24.198  18.422   7.505 -0.1600 -0.3740  0.2865
23996W        W67090  24.089  18.065   6.248  0.2138  0.0831 -0.2830
23997W        W67091  23.874  16.564   4.314 -0.2406  0.0001  0.2548
23998W        W67092  23.510  16.343   5.604 -0.1267  0.1564 -0.1372
23999W        W67093  23.118  17.360   4.590  0.0933  0.0842 -0.1940
24000W        W67094  24.057  17.049   5.123 -0.0045  0.1730  0.0670
24001W        W67095  23.711  17.090   6.491  0.2491 -0.1077  0.2018
24002W        W67096  22.377  17.763   4.578 -0.2132 -0.2015  0.1779
24003W        W67097  25.470  14.982   6.678 -0.2501 -0.0701  0.0923
24004W        W67098  22.346  17.323   2.663 -0.0411 -0.2976  0.0306
24005W        W67099  24.895  16.155   3.970 -0.0928 -0.1319  0.0300
24006W        W67100  23.673  15.750   3.663 -0.2157 -0.1503 -0.5417
24007W        W67101  24.575  16.326   4.444  0.0553 -0.3088 -0.0121
24008W        W67102  23.829  15.625   5.363  0.1682 -0.2523 -0.0044
24009W        W67103  23.371  17.719   3.642 -0.1554  0.2910 -0.1447
24010W        W67104  22.494  14.805   7.901 -0.0944 -0.3756 -0.0437
24011W        W67105  24.191  17.212   6.625  0.1310  0.3096 -0.0436
24012W        W67106  25.862  16.242   3.520  0.0362 -0.2098  0.2559
24013W        W67107  24.944  16.140   6.656 -0.2696 -0.0535  0.0437
24014W        W67108  22.687  18.218   5.808 -0.0904 -0.2676 -0.4446
24015W        W67109  22.967  16.638   5.320 -0.2808 -0.1774 -0.0717
24016W        W67110  24.364  18.081   3.734 -0.0709  0.1391 -0.1892
24017W        W67111  24.583  17.188   4.041  0.1685  0.0658 -0.0886
24018W        W67112  23.362  17.000   3.036 -0.4825  0.2080 -0.3412
24019W        W67113  21.908  16.226   3.880  0.1076 -0.1010  0.2680
24020W        W67114  23.527  18.164   6.556  0.1154  0.4170 -0.0399
24021W        W67115  22.115  15.479   6.327 -0.2295 -0.2936  0.0069
24022W        W67116  20.630  15.496   1.690  0.0440 -0.1501 -0.3402
24023W        W67117  25.373  16.751   7.320 -0.2034  0.2103 -0.1267
24024W        W67118  23.416  17.514   6.232  0.2823  0.0936  0.1749
24025W        W67119  24.824  15.198   4.376 -0.0652  0.1231 -0.3033
24026W        W67120  23.212  16.290   5.116 -0.0435 -0.0314 -0.1332
24027W        W67121  24.427  17.673   6.563  0.3398  0.1115  0.2278
24028W        W67122  24.349  17.100   3.163  0.0696  0.3654  0.0724
24029W        W67123  24.350  14.425   4.909 -0.0832  0.1670 -0.1095
24030W        W67124  24.166  14.351   5.703  0.1115  0.0545 -0.0627
24031W        W67125  22.375  17.175   3.161  0.1185  0.1566  0.1878
24032W        W67126  23.401  16.547   4.698 -0.2492 -0.3270 -0.0741
24033W        W67127  25.708  17.619   6.506  0.2310 -0.0490 -0.0217
24034W        W67128  24.380  16.098   4.027  0.3608 -0.0854  0.2963
24035W        W67129  22.499  17.997   3.990 -0.5536  0.2159 -0.3172
24036W        W67130  22.469  15.904   7.138  0.3781  0.0291 -0.3768
24037W        W67131  23.864  18.382   7.892  0.3645  0.0583  0.0930
24038W        W67132  21.901  19.095   3.169 -0.4354 -0.2024  0.0495
24039W        W67133  21.181  17.167   4.628  0.4466 -0.0991  0.0993
24040W        W67134  21.385  16.976   2.828  0.2626 -0.2268  0.0230
24041W        W67135  22.755  15.044   6.965 -0.0084 -0.0079  0.3779
24042W        W67136  23.602  17.952   5.855 -0.1402  0.0366  0.0520
24043W        W67137  23.290  15.576   5.784 -0.0231  0.1607 -0.2532
24044W        W67138  21.885  14.667   7.906 -0.1628 -0.2166 -0.2272
24045W        W67139  25.648  14.278   5.472  0.1839 -0.1792  0.1604
24046W        W67140  22.357  17.100   4.209  0.1551 -0.0508 -0.1931
24047W        W67141  26.140  18.563   4.572  0.3316 -0.0727  0.0231
24048W        W67142  24.716  15.967   5.398 -0.1780  0.0917 -0.0844
24049W        W67143  25.007  17.636   3.044 -0.2004 -0.0403  0.2737
24050W        W67144  22.635  16.331   6.040 -0.0184 -0.1745  0.0168
24051W        W67145  23.145  15.144   4.581 -0.3138  0.0085 -0.1557
24052W        W67146  21.631  15.472   7.709 -0.0159 -0.0996  0.1291
24053W        W67147  23.389  14.671   5.576 -0.0924  0.2128  0.0385
24054W        W67148  25.489  15.629   6.331  0.2644 -0.0564  0.1695
24055W        W67149  23.010  15.450   4.218 -0.1397  0.1397 -0.0436
24056W        W67150  25.365  15.446   4.965  0.0637 -0.1183 -0.1546
24057W        W67151  23.773  15.720   3.111 -0.0050 -0.0477  0.3669
24058W        W67152  23.587  16.969   4.403  0.1148 -0.0449 -0.3541
24059W        W67153  25.207  15.784   6.993 -0.0257  0.0355  0.0585
24060W        W67154  23.712  17.059   3.408 -0.0543 -0.0810  0.0131
24061W        W67155  24.728  17.742   5.462  0.0281 -0.0933 -0.1682
24062W        W67156  24.418  19.429   3.873  0.1564  0.0059 -0.0166
24063W        W67157  22.099  16.281   7.491 -0.0419 -0.0318  0.0355
24064W        W67158  22.547  16.509   3.166  0.1738 -0.0440 -0.1096
24065W        W67159  22.517  17.886   6.165 -0.1414  0.0290 -0.3024
24066W        W67160  23.045  17.806   5.337 -0.0515  0.0001 -0.1099
24067W        W67161  22.422  15.151   4.709 -0.1939 -0.2014 -0.0679
24068W        W67162  25.430  17.569   4.003 -0.2017 -0.1317 -0.1334
24069W        W67163  22.885  16.394   4.350  0.1990  0.1967 -0.3086
24070W        W67164  23.881  17.641   6.386  0.0144 -0.1639 -0.0845
24071W        W67165  24.542  13.478   5.998  0.1060 -0.1579  0.1482
24072W        W67166  23.713  15.455   6.053 -0.1835 -0.2155 -0.0539
24073W        W67167  23.721  15.909   5.861 -0.1267  0.5506 -0.2717
24074W        W67168  22.309  16.123   4.318  0.0963  0.0008 -0.0023
24075W        W67169  24.963  17.552   3.973  0.0890 -0.3179  0.0480
24076W        W67170  22.458  18.295   2.556 -0.2062 -0.1599  0.1750
24077W        W67171  21.282  15.892   4.085 -0.1106  0.2648 -0.0347
24078W        W67172  24.057  17.240   4.685  0.0413  0.0907 -0.0262
24079W        W67173  23.840  14.707   5.790 -0.1336  0.0941  0.3733
24080W        W67174  21.206  15.734   7.631 -0.1850  0.0718  0.1165
24081W        W67175  24.046  15.422   7.709  0.1286  0.0525  0.2143
24082W        W67176  21.799  16.005   2.889 -0.0726  0.2387  0.0099
24083W        W67177  21.974  18.068   7.373 -0.1627  0.0668 -0.1759
24084W        W67178  24.606  15.518   5.184  0.0731 -0.3602 -0.2886
24085W        W67179  23.747  15.118   5.564 -0.0320 -0.1948 -0.4436
24086W        W67180  24.183  15.550   6.314 -0.0664 -0.1511 -0.2820
24087W        W67181  24.796  16.831   2.958  0.2064  0.1145  0.3160
24088W        W67182  25.358  16.743   3.344  0.1225 -0.2785 -0.0338
24089W        W67183  23.646  15.062   4.415 -0.2436  0.3298 -0.0145
24090W        W67184  22.088  17.419   9.386 -0.2562  0.3108  0.0049
24091W        W67185  24.035  17.441   3.402 -0.1539 -0.0205 -0.1585
24092W        W67186  23.354  17.640   4.994 -0.0532 -0.0242  0.0382
24093W        W67187  24.100  15.271   3.713  0.2260 -0.0919 -0.1718
24094W        W67188  25.728  19.232   3.996 -0.2776 -0.1218  0.0709
24095W        W67189  22.331  17.955   5.044 -0.1665 -0.1245 -0.2365
24096W        W67190  24.012  16.056   6.305  0.0253 -0.0231  0.0013
24097W        W67191  24.464  17.568   4.501 -0.1677 -0.2065 -0.2110
24098W        W67192  23.429  15.031   5.957 -0.0640 -0.1821 -0.2094
24099W        W67193  22.512  15.540   2.623  0.3988 -0.4472  0.0684
24100W        W67194  23.818  14.334   4.833  0.0696  0.1806  0.2464
24101W        W67195  21.539  18.310   2.506  0.0104  0.1241  0.0838
24102W        W67196  24.002  15.015   6.126 -0.3563 -0.0827  0.0170
24103W        W67197  22.958  15.207   6.093  0.0922  0.2151  0.2293
24104W        W67198  24.545  13.824   6.760  0.0376  0.1108  0.1778
24105W        W67199  24.390  16.298   7.249  0.2127  0.3697 -0.0266
24106W        W67200  26.190  17.106   4.299 -0.0859  0.2522  0.0167
24107W        W67201  23.955  17.600   5.086 -0.2021 -0.0243 -0.0955
24108W        W67202  22.691  16.382   2.694  0.1877 -0.0214 -0.1258
24109W        W67203  22.536  15.159   8.401  0.1221  0.1198  0.1000
24110W        W67204  23.070  16.533   5.793 -0.2728  0.2943 -0.1471
24111W        W67205  22.500  17.828   5.538 -0.1574  0.1684  0.1198
24112W        W67206  23.613  17.347   7.357  0.0084  0.1041  0.0777
24113W        W67207  24.115  15.678   3.997 -0.0805  0.0326 -0.1584
24114W        W67208  23.959  14.649   6.689 -0.3454 -0.2716 -0.1073
24115W        W67209  23.656  14.507   4.345 -0.1492  0.0560  0.1496
24116W        W67210  21.819  19.093   3.683 -0.0473  0.1774  0.1375
24117W        W67211  23.130  15.953   4.116 -0.0394  0.0174 -0.1608
24118W        W67212  22.052  14.995   5.226  0.3281 -0.0371  0.0317
24119W        W67213  23.901  17.588   5.893  0.0460 -0.0075  0.3818
24120W        W67214  22.894  17.735   3.852  0.1678  0.2440  0.1193
24121W        W67215  25.104  16.837   5.537  0.0887  0.2187 -0.3474
24122W        W67216  22.955  16.956   4.377  0.3902  0.0477  0.0477
24123W        W67217  24.915  14.832   5.346  0.2633 -0.3057 -0.0260
24124W        W67218  21.599  18.779   4.781  0.1663  0.0234 -0.3316
24125W        W67219  23.132  15.903   3.558  0.1047 -0.1479  0.2074
24126W        W67220  22.013  16.442   5.167  0.0196  0.0880  0.0729
24127W        W67221  24.183  15.732   4.966  0.2296 -0.5646 -0.2005
24128W        W67222  25.270  18.662   4.946 -0.1594  0.0703  0.0123
24129W        W67223  22.440  16.688   7.234 -0.3430  0.0830  0.3238
24130W        W67224  23.391  14.444   5.117  0.0798 -0.0492  0.1167
24131W        W67225  21.073  17.773   4.652 -0.1156 -0.0275 -0.2023
24132W        W67226  23.012  16.597   7.313  0.2101  0.0356  0.3924
24133W        W67227  24.426  14.812   5.094 -0.2072 -0.0204 -0.0088
24134W        W67228  24.736  18.465   7.142  0.0628 -0.1690 -0.0866
24135W        W67229  23.866  16.046   7.031 -0.0949 -0.4928 -0.4299
24136W        W67230  21.586  16.837   2.414  0.0627  0.2246 -0.4543
24137W        W67231  26.275  15.083   5.964  0.2968 -0.0899  0.1349
24138W        W67232  24.744  15.302   5.614 -0.3604 -0.5503 -0.1633
24139W        W67233  21.229  16.713   4.339  0.0185 -0.1861 -0.1346
24140W        W67234  24.858  17.874   6.448  0.2813  0.3237 -0.2489
24141W        W67235  22.987  16.216   3.064  0.1475 -0.2403  0.0394
24142W        W67236  21.594  18.285   5.741  0.4566 -0.0790  0.1003
24143W        W67237  22.897  14.833   6.419 -0.2144  0.0480 -0.0923
24144W        W67238  24.598  16.836   6.482  0.1950 -0.5122  0.0594
24145W        W67239  23.345  14.991   6.528  0.1055 -0.0969  0.0310
24146W        W67240  22.364  15.720   5.601  0.0219  0.0034 -0.1901
24147W        W67241  22.823  16.110   5.573  0.0250 -0.1587  0.0096
24148W        W67242  26.236  16.096   5.502 -0.0871  0.0005  0.0723
24149W        W67243  23.276  15.806   7.671  0.1873 -0.0026 -0.0392
24150W        W67244  22.057  17.644   7.728 -0.1177  0.2288 -0.2031
24151W        W67245  24.562  14.676   5.799 -0.0633 -0.0835 -0.0355
24152W        W67246  25.848  19.540   3.567  0.2715  0.0811 -0.1736
24153W        W67247  24.400  15.867   5.999  0.0335  0.2028 -0.1379
24154W        W67248  22.034  16.813   3.415  0.2029  0.4732 -0.1400
24155W        W67249  23.179  17.106   6.490  0.1930 -0.0117  0.4030
24156W        W67250  22.099  17.141   5.243  0.0636  0.0987 -0.1202
24157W        W67251  23.291  15.351   6.873 -0.0111 -0.0550 -0.2331
24158W        W67252  23.200  18.609   4.783  0.0295  0.0294  0.2788
24159W        W67253  22.579  17.622   3.028  0.0810  0.1416 -0.1890
24160W        W67254  21.569  17.769   5.154 -0.1685 -0.0196  0.1405
24161W        W67255  24.063  15.210   4.276 -0.4206  0.0917 -0.0316
24162W        W67256  24.757  15.604   3.176 -0.1402  0.0219  0.0653
24163W        W67257  23.357  16.331   3.702  0.0684 -0.1325 -0.2499
24164W        W67258  25.056  14.991   8.046 -0.0887  0.0824 -0.1988
24165W        W67259  23.029  15.429   2.697 -0.1061  0.2021  0.1788
24166W        W67260  23.956  14.150   6.611  0.0974  0.1508 -0.1406
24167W        W67261  23.078  14.584   6.919  0.2573 -0.1901 -0.3824
24168W        W67262  24.402  18.561   3.227  0.0785 -0.2258 -0.0090
24169W        W67263  21.778  15.834   6.422  0.1133 -0.0933  0.0149
24170W        W67264  24.307  18.691   6.667 -0.4438 -0.3605 -0.3344
24171W        W67265  22.276  16.946   6.834  0.0001 -0.1087  0.0721
24172W        W67266  24.201  16.545   3.848  0.1078 -0.1102 -0.4003
24173W        W67267  22.098  15.121   3.005  0.2778 -0.1863 -0.0891
24174W        W67268  23.638  16.416   6.195 -0.0043 -0.1054  0.1123
24175W        W67269  25.238  17.079   6.279  0.0102 -0.2014  0.1161
24176W        W67270  24.082  17.041   3.712  0.2847 -0.0641 -0.0902
24177W        W67271  25.395  16.125   5.413  0.4716 -0.1774 -0.0137
24178W        W67272  23.245  17.023   5.657  0.0194  0.3553  0.1439
24179W        W67273  24.838  16.665   4.735 -0.0868  0.2664  0.3159
24180W        W67274  24.663  16.652   4.075  0.0492 -0.4111  0.0722
24181W        W67275  22.018  17.636   5.453 -0.2241  0.1421 -0.2314
24182W        W67276  22.365  15.468   6.846  0.1110  0.4740  0.2684
24183W        W67277  25.429  16.858   4.534 -0.0580 -0.1284 -0.0218
24184W        W67278  23.281  15.520   6.311 -0.1637  0.2905  0.1318
24185W        W67279  23.173  16.305   6.931 -0.2446  0.2900  0.1257
24186W        W67280  24.495  15.907   6.489  0.0073 -0.0970  0.2865
24187W        W67281  21.913  16.368   6.535 -0.1188  0.1640 -0.4281
24188W        W67282  21.976  14.185   7.007 -0.5094 -0.2039  0.2301
24189W        W67283  23.962  18.019   6.783 -0.1078  0.1435  0.1150
24190W        W67284  25.176  14.566   3.327 -0.2523 -0.0578 -0.2426
24191W        W67285  25.334  16.476   6.883 -0.0547 -0.1123 -0.0370
24192W        W67286  25.963  15.685   5.123 -0.2671 -0.1442  0.1033
24193W        W67287  24.615  15.963   4.812 -0.0783 -0.1345  0.1059
24194W        W67288  21.203  15.401   4.796  0.0839  0.0623 -0.1308
24195W        W67289  24.947  16.193   7.193 -0.0608 -0.0702 -0.2284
24196W        W67290  22.331  16.479   3.690 -0.0826 -0.4595  0.0834
24197W        W67291  23.560  14.928   6.969 -0.4080 -0.3455 -0.0293
24198W        W67292  23.745  17.428   3.855 -0.1161 -0.0645 -0.2099
24199W        W67293  24.235  15.943   5.505  0.1822  0.2454  0.0669
24200W        W67294  23.776  15.383   4.823 -0.0840  0.0274 -0.2069
24201W        W67295  22.117  16.753   5.659  0.0062 -0.3338  0.2318
24202W        W67296  22.747  17.594   6.895  0.1209 -0.1694  0.0859
24203W        W67297  21.585  17.037   3.271 -0.0308  0.1607  0.0055
24204W        W67298  22.343  15.534   3.386 -0.2931  0.0409  0.3933
24205W        W67299  24.858  15.944   6.188  0.0223  0.1397  0.1321
24206W        W67300  24.207  16.834   7.408 -0.0155  0.0334 -0.0449
24207W        W67301  22.538  14.253   5.215  0.0116  0.1373 -0.0778
24208W        W67302  24.615  16.441   6.113  0.0507  0.3161 -0.0135
24209W        W67303  20.649  15.372   4.028 -0.1168 -0.4959 -0.3015
24210W        W67304  22.952  14.460   5.431 -0.1035 -0.1117 -0.0305
24211W        W67305  24.377  17.868   4.896 -0.0389 -0.2057  0.0109
24212W        W67306  22.019  17.623   4.896  0.1332  0.1556 -0.4846
24213W        W67307  22.016  17.406   4.446 -0.3267 -0.0445  0.1604
24214W        W67308  24.209  15.011   6.983 -0.1023 -0.0634 -0.0805
24215W        W67309  24.388  16.853   5.949  0.0887 -0.1936 -0.0777
24216W        W67310  22.944  16.697   4.801  0.2506  0.0431  0.1699
24217W        W67311  25.524  15.735   7.985  0.0061 -0.0293  0.1837
24218W        W67312  22.936  16.788   6.832 -0.0446  0.0956 -0.2801
24219W        W67313  21.898  15.683   5.899 -0.1481  0.4027 -0.3081
24220W        W67314  23.924  17.041   6.010 -0.1675  0.2511 -0.2198
24221W        W67315  25.650  16.618   5.499 -0.0523  0.1981  0.2568
24222W        W67316  22.652  17.200   6.628  0.1750 -0.2325 -0.0730
24223W        W67317  22.560  15.463   6.000  0.0857 -0.0353 -0.0989
24224W        W67318  24.666  17.495   6.945  0.0181 -0.3271 -0.3520
24225W        W67319  23.537  17.195   4.858 -0.0380 -0.1232 -0.0898
24226W        W67320  22.715  15.696   3.855  0.1667 -0.0534 -0.1928
24227W        W67321  23.912  17.237   2.913  0.1406  0.1188 -0.3520
24228W        W67322  22.886  17.984   7.819  0.0930 -0.0885 -0.1336
24229W        W67323  22.650  16.858   5.792 -0.0992  0.0712 -0.0676
24230W        W67324  22.726  18.753   4.693  0.3177 -0.2288  0.3356
24231W        W67325  25.037  15.895   5.073  0.0859 -0.0394 -0.1393
24232W        W67326  23.308  16.568   4.205 -0.0833  0.2486  0.0987
24233W        W67327  25.427  18.326   5.286 -0.2580  0.0589 -0.0298
24234W        W67328  23.905  15.658   4.455  0.0111 -0.2596 -0.3764
24235W        W67329  22.769  17.466   3.478  0.1543  0.0303 -0.2100
24236W        W67330  20.840  17.714   1.292 -0.0095 -0.0686 -0.0577
24237W        W67331  23.423  18.191   3.731 -0.2681  0.0060 -0.1019
24238W        W67332  21.226  17.389   5.710  0.2742  0.0684  0.0666
24239W        W67333  24.546  18.047   7.428 -0.0903  0.1053 -0.1640
24240W        W67334  25.556  14.300   3.551 -0.1505  0.0274 -0.0105
24241W        W67335  24.745  17.212   5.693  0.1254  0.0434 -0.4000
24242W        W67336  25.439  15.369   4.443 -0.3133 -0.2705  0.0378
24243W        W67337  24.326  16.822   6.929  0.0643 -0.0642  0.1943
24244W        W67338  22.818  15.849   6.269 -0.5304  0.2764  0.1513
24245W        W67339  22.780  15.608   4.682 -0.0970 -0.0487  0.2977
24246W        W67340  23.728  15.647   6.542  0.1126 -0.2129  0.0357
24247W        W67341  24.799  14.148   6.980 -0.0926  0.1515  0.1249
24248W        W67342  21.774  16.838   5.991  0.1205 -0.1678 -0.0105
24249W        W67343  25.125  18.436   4.424  0.0301  0.0554 -0.0161
24250W        W67344  21.524  16.520   3.414 -0.0510 -0.0605 -0.1376
24251W        W67345  22.592  17.083   4.798  0.1279  0.0466 -0.4063
24252W        W67346  24.766  12.936   5.635  0.3463  0.2978  0.0148
24253W        W67347  22.665  16.161   3.975  0.1279  0.0369  0.0744
24254W        W67348  23.307  15.853   5.382  0.2805 -0.0843  0.2488
24255W        W67349  23.319  18.099   4.705 -0.1279  0.3098 -0.1491
24256W        W67350  22.747  18.217   5.305 -0.2931  0.4550 -0.0554
24257W        W67351  22.542  17.509   5.169  0.3425  0.0489 -0.2424
24258W        W67352  21.415  15.002   3.209  0.0964  0.1036 -0.0962
24259W        W67353  26.161  14.671   4.721 -0.2209  0.0703  0.1677
24260W        W67354  23.650  14.521   6.300  0.3656 -0.1276 -0.1074
24261W        W67355  25.015  14.447   5.745  0.2733 -0.3315 -0.2760
24262W        W67356  22.432  16.636   4.389  0.0151  0.2297  0.1786
24263W        W67357  24.784  15.180   4.845 -0.0265 -0.0086  0.1857
24264W        W67358  23.370  17.513   5.741 -0.3502 -0.2619 -0.0286
24265W        W67359  22.380  16.080   5.156  0.0101 -0.0421  0.0774
24266W        W67360  24.560  16.846   3.626  0.2137 -0.0492 -0.0890
24267W        W67361  25.449  16.920   6.698 -0.0682  0.2350  0.0344
24268W        W67362  24.612  15.738   4.324 -0.0014 -0.0422 -0.3773
24269W        W67363  24.218  18.637   6.132  0.2198 -0.0569 -0.1788
24270W        W67364  22.070  16.207   5.630  0.2284  0.1716  0.1442
24271W        W67365  23.662  15.497   4.101  0.0800 -0.0883 -0.0443
24272W        W67366  21.463  16.885   3.793  0.0778 -0.0799 -0.0122
24273W        W67367  23.340  15.876   7.123 -0.1183 -0.1815 -0.3716
24274W        W67368  26.709  18.084   6.688  0.0529 -0.0030  0.0631
24275W        W67369  22.940  14.677   3.825  0.4983 -0.0266 -0.1333
24276W        W67370  24.362  17.958   2.196 -0.2086  0.0925  0.1750
24277W        W67371  25.259  15.176   5.620  0.2280 -0.1767  0.0843
24278W        W67372  22.865  17.222   3.899  0.2657 -0.3029 -0.2067
24279W        W67373  24.424  16.381   6.753 -0.1490  0.2866  0.0132
24280W        W67374  25.216  18.017   4.206  0.1050  0.3106  0.2655
24281W        W67375  22.347  17.311   5.686 -0.2153  0.2197 -0.0933
24282W        W67376  25.199  17.376   5.523  0.0142  0.1350  0.2471
24283W        W67377  25.216  16.732   5.024 -0.2435 -0.1328  0.2601
24284W        W67378  22.356  16.048   6.657  0.0398 -0.0059  0.2031
24285W        W67379  22.876  15.864   5.101 -0.1867 -0.0187 -0.0513
24286W        W67380  22.679  18.102   3.372 -0.1032  0.2007 -0.0284
24287W        W67381  24.445  14.802   6.549  0.0322 -0.0442  0.3330
24288W        W67382  24.176  15.646   6.864  0.1699  0.3475 -0.1859
24289W        W67383  23.528  17.509   3.131 -0.0988 -0.2758 -0.2676
24290W        W67384  24.700  14.982   6.938  0.0787 -0.2167  0.2588
24291W        W67385  24.805  16.616   6.941 -0.0580 -0.4119 -0.4180
24292W        W67386  23.637  17.982   8.148 -0.0471  0.1488 -0.0392
24293W        W67387  23.027  16.676   2.836  0.4280  0.0397 -0.4023
24294W        W67388  23.802  16.156   5.282 -0.0295 -0.0571  0.0428
24295W        W67389  23.002  17.223   5.097 -0.3392  0.1650  0.0111
24296W        W67390  25.002  17.524   4.472 -0.2433 -0.2321 -0.0039
24297W        W67391  24.944  17.040   4.384  0.1209  0.1156 -0.0188
24298W        W67392  23.844  16.146   3.983 -0.0813  0.0733  0.3616
24299W        W67393  24.881  17.169   5.182  0.4733 -0.2299  0.2333
24300W        W67394  21.993  14.736   4.770  0.3107 -0.4352  0.1534
24301W        W67395  24.286  15.068   5.679 -0.0569  0.1349 -0.0134
24302W        W67396  23.937  14.895   4.767  0.2301  0.0971  0.1192
24303W        W67397  22.551  16.969   5.297 -0.2259  0.2650 -0.0248
24304W        W67398  22.372  16.494   1.779  0.0536 -0.1984 -0.0113
24305W        W67399  23.279  17.216   3.558  0.1086 -0.1362  0.2714
24306W        W67400  22.582  17.206   6.171  0.3212 -0.0776 -0.0423
24307W        W67401  23.750  15.052   7.634 -0.1624 -0.0903  0.3407
24308W        W67402  22.709  16.884   7.631  0.0221 -0.1600  0.1439
24309W        W67403  23.152  16.017   4.675  0.0676 -0.0457 -0.2837
24310W        W67404  21.853  15.409   4.868 -0.1858 -0.0391  0.0543
24311W        W67405  25.359  18.523   3.665  0.0302  0.1415  0.0368
24312W        W67406  21.953  15.847   5.164  0.0050  0.3410  0.3172
24313W        W67407  23.068  15.103   5.531  0.2218  0.2730 -0.0217
24314W        W67408  24.001  16.602   5.344  0.0255  0.1114 -0.0586
24315W        W67409  25.121  19.546   4.638  0.2960  0.0265 -0.4286
24316W        W67410  22.376  15.555   5.123  0.1607  0.1183  0.1252
24317W        W67411  25.169  17.317   7.136  0.0706 -0.1072  0.0082
24318W        W67412  21.158  16.535   3.055 -0.3585 -0.1159  0.1060
24319W        W67413  23.116  16.469   8.112 -0.0612  0.0741 -0.3511
24320W        W67414  24.245  14.388   7.037  0.0499  0.3012 -0.0694
24321W        W67415  21.266  15.175   2.195  0.0737  0.0395  0.3619
24322W        W67416  23.883  16.589   4.857  0.0163  0.3580  0.1602
24323W        W67417  23.738  17.933   3.987 -0.1334  0.2786  0.2149
24324W        W67418  24.112  19.451   3.317  0.0409 -0.0841  0.1280
24325W        W67419  24.328  17.437   6.035  0.1297 -0.3629 -0.3696
24326W        W67420  23.070  18.854   7.085 -0.1322  0.1160 -0.1569
24327W        W67421  21.866  14.688   6.965 -0.0587 -0.2675  0.1823
24328W        W67422  24.203  16.082   2.628 -0.0260  0.0744  0.3365
24329W        W67423  24.057  16.630   6.404 -0.1028 -0.0181  0.1538
24330W        W67424  25.248  17.610   3.473  0.2549  0.1890  0.2424
24331W        W67425  22.917  14.691   5.929 -0.3219 -0.1689 -0.2154
24332W        W67426  24.381  16.735   4.937 -0.3295  0.0550 -0.1551
24333W        W67427  22.041  15.159   7.755 -0.0991 -0.0876 -0.0415
24334W        W67428  21.638  17.942   6.119  0.2903  0.1610 -0.0177
24335W        W67429  25.396  18.246   5.943  0.0157 -0.0779  0.0178
24336W        W67430  23.013  14.795   5.059  0.0673  0.0313  0.0134
24337W        W67431  23.385  15.628   4.528 -0.0746  0.0136 -0.1454
24338W        W67432  24.245  16.590   3.186 -0.1196 -0.0200  0.0565
24339W        W67433  22.825  16.831   6.268  0.0227  0.1502  0.1245
24340W        W67434  23.587  15.924   4.907  0.0965 -0.0842  0.1324
24341W        W67435  22.903  15.568   7.174  0.3269 -0.1749  0.1409
24342W        W67436  23.423  16.070   6.575  0.0237 -0.0354  0.1436
24343W        W67437  24.022  16.505   5.876  0.0024  0.1775 -0.4228
24344W        W67438  23.737  16.564   3.471 -0.1851  0.1880  0.2873
24345W        W67439  24.982  16.576   3.628  0.1606 -0.1286 -0.4368
24346W        W67440  24.951  18.153   5.632  0.1758  0.1501  0.2601
24347W        W67441  25.043  16.608   6.468  0.0354 -0.0024  0.1888
24348W        W67442  23.676  19.547   6.541 -0.1575  0.0234 -0.0343
24349W        W67443  24.980  16.352   5.741 -0.3284  0.2100 -0.0725
24350W        W67444  21.682  14.788   5.594  0.1126  0.0475 -0.0539
24351W        W67445  22.130  16.872   4.718  0.3102 -0.0289  0.0086
24352W        W67446  22.752  16.739   3.947 -0.2471  0.0381 -0.0776
24353W        W67447  24.563  15.165   6.117 -0.1019 -0.0718  0.1000
24354W        W67448  22.839  15.333   5.147 -0.0805 -0.1567 -0.1998
24355W        W67449  24.182  14.435   4.398 -0.1575  0.0729  0.0092
24356W        W67450  22.960  17.780   5.899  0.0490  0.0274  0.0834
24357W        W67451  23.745  17.345   5.402 -0.2974 -0.0595  0.4307
24358W        W67452  21.454  16.359   9.154 -0.2956  0.0891  0.0547
24359W        W67453  23.392  15.415   7.384 -0.4291  0.2349 -0.0050
24360W        W67454  25.573  15.774   8.563 -0.1210 -0.0985 -0.1133
24361W        W67455  20.631  15.005   8.453 -0.0748  0.0270  0.1169
24362W        W67456  24.212  17.029   8.273 -0.0742  0.3495  0.1138
24363W        W67457  24.072  16.438   8.289 -0.1219 -0.0581 -0.0454
24364W        W67458  24.813  18.167   9.604  0.0648 -0.0482 -0.1723
24365W        W67459  24.588  18.016   6.901 -0.0651 -0.1881 -0.1237
24366W        W67460  22.925  15.160   9.713 -0.3572  0.2596  0.0637
24367W        W67461  23.692  14.692   8.366 -0.1966  0.0352  0.1516
24368W        W67462  22.723  15.481  10.009 -0.2548  0.0581  0.2700
24369W        W67463  24.914  13.296  10.238 -0.2652  0.2258  0.6310
24370W        W67464  21.583  15.049   7.987 -0.0156 -0.2861  0.2572
24371W        W67465  20.865  15.710   9.990  0.0144  0.1018  0.2898
24372W        W67466  24.436  15.608   9.415 -0.2144  0.1220 -0.1346
24373W        W67467  24.219  16.979   9.357  0.1206 -0.0825 -0.0392
24374W        W67468  23.617  14.809  10.271  0.2188  0.1224 -0.3528
24375W        W67469  24.085  16.332   9.532 -0.2320  0.1286 -0.2244
24376W        W67470  22.709  17.173   7.179  0.0643  0.0649 -0.1835
24377W        W67471  21.010  15.864   8.779  0.1327 -0.0348  0.1787
24378W        W67472  23.608  15.842  10.314 -0.4138  0.1005  0.0180
24379W        W67473  24.542  14.806   9.366  0.1657 -0.0434  0.1878
24380W        W67474  24.736  15.645   9.888 -0.3279  0.1737 -0.0843
24381W        W67475  23.453  17.222   9.170 -0.1262 -0.2289  0.0175
24382W        W67476  24.968  16.762   9.385  0.3641  0.3347  0.0301
24383W        W67477  20.950  16.815   9.025  0.2975 -0.1842  0.1580
24384W        W67478  23.287  16.800   9.358 -0.0173 -0.2105 -0.0080
24385W        W67479  23.167  17.086   8.387 -0.1606  0.0861  0.0564
24386W        W67480  25.898  16.104   8.680  0.3571  0.3686 -0.1907
24387W        W67481  22.331  16.351   8.485  0.0707  0.0292  0.0582
24388W        W67482  24.720  14.103   9.965 -0.1567  0.3697 -0.0715
24389W        W67483  25.012  16.324   9.100  0.1116  0.0530 -0.0793
24390W        W67484  23.361  16.860   8.789  0.1068  0.0769 -0.0616
24391W        W67485  23.426  13.392   9.960 -0.0495  0.2871 -0.0388
24392W        W67486  20.959  19.438  10.526  0.1875 -0.1181  0.3207
24393W        W67487  21.982  17.635   8.879  0.2472  0.1571 -0.0700
24394W        W67488  23.275  15.526   9.861  0.0210 -0.0495 -0.0505
24395W        W67489  22.266  16.239   8.005 -0.0875  0.1639 -0.1497
24396W        W67490  24.469  14.908   8.869  0.1033 -0.1326 -0.1077
24397W        W67491  22.565  13.960   8.998 -0.0157  0.1589 -0.0817
24398W        W67492  23.814  17.290   9.480  0.0306 -0.1257 -0.2382
24399W        W67493  23.951  14.467   9.461  0.2287  0.0091  0.2187
24400W        W67494  25.136  15.850   9.316 -0.0689 -0.1275 -0.0285
24401W        W67495  23.440  14.303   9.360  0.0443  0.0088 -0.0667
24402W        W67496  24.137  19.129   9.570 -0.0733  0.2648 -0.1246
24403W        W67497  21.447  14.550   8.191  0.1762 -0.0728 -0.2307
24404W        W67498  25.074  17.887   7.131 -0.0955 -0.1154  0.2709
24405W        W67499  24.838  16.450   8.037  0.2970  0.0089  0.1306
24406W        W67500  24.518  17.103   7.715 -0.0640 -0.2284 -0.1047
24407W        W67501  21.321  15.435   8.035 -0.1234  0.3165 -0.0575
24408W        W67502  23.444  14.556   7.453  0.0660 -0.3519  0.2356
24409W        W67503  25.839  14.438   9.293  0.2894  0.2615 -0.1341
24410W        W67504  23.074  16.235   9.433 -0.2914 -0.4293  0.3554
24411W        W67505  26.045  17.288  10.153 -0.1253 -0.0770 -0.1594
24412W        W67506  23.884  17.025   7.020  0.2667 -0.0214 -0.1227
24413W        W67507  21.733  15.376   9.885 -0.0879  0.0457 -0.1872
24414W        W67508  24.079  13.707   9.309  0.1038  0.0183  0.1167
24415W        W67509  24.418  16.924   4.427  0.0996 -0.2943 -0.0762
24416W        W67510  22.967  17.253   7.953 -0.3508  0.1957  0.0308
24417W        W67511  26.903  18.839   9.932  0.2131  0.2747  0.0218
24418W        W67512  25.327  15.192  10.073  0.1795  0.2175  0.2544
24419W        W67513  22.803  16.901   9.470  0.0895 -0.0834  0.1396
24420W        W67514  22.748  17.492   7.540 -0.3807  0.0641  0.1570
24421W        W67515  19.984  16.176  10.013 -0.3700 -0.2714  0.0189
24422W        W67516  22.999  16.530   8.555  0.3785  0.4848 -0.0044
24423W        W67517  21.038  16.929   9.780  0.0211 -0.1084 -0.1601
24424W        W67518  24.346  17.504   9.444 -0.0219  0.2874  0.0761
24425W        W67519  24.294  14.923   7.498  0.1805 -0.2122  0.2682
24426W        W67520  25.868  13.994   9.494 -0.0452 -0.0837  0.1696
24427W        W67521  21.898  16.681   9.198  0.0468 -0.0735 -0.1756
24428W        W67522  24.140  17.874   8.122 -0.1182 -0.0391 -0.3524
24429W        W67523  25.523  14.928   8.327  0.2730  0.2402 -0.3115
24430W        W67524  24.697  15.804   6.990  0.4547  0.0710 -0.2093
24431W        W67525  21.728  15.849   9.522 -0.2229 -0.0348  0.0174
24432W        W67526  21.455  15.890  10.105  0.0965  0.2081  0.1311
24433W        W67527  21.446  14.459   8.718  0.1861 -0.0681 -0.2836
24434W        W67528  21.882  15.084   8.821  0.2561  0.0132  0.1077
24435W        W67529  25.895  14.482  10.287  0.2089  0.0598  0.2002
24436W        W67530  22.412  15.989   9.730  0.2924 -0.3502 -0.1445
24437W        W67531  22.412  17.251   7.844  0.1870  0.1656 -0.0363
24438W        W67532  23.288  18.035   7.433 -0.0605 -0.1202  0.1335
24439W        W67533  23.083  19.224  11.532  0.2380 -0.3795  0.3500
24440W        W67534  25.367  17.459   9.822 -0.2146  0.1548  0.0743
24441W        W67535  22.890  16.873   9.944 -0.1272 -0.1259 -0.0015
24442W        W67536  23.674  15.824   8.891  0.2810 -0.1121 -0.1148
24443W        W67537  19.830  16.788  11.081 -0.1134 -0.3308  0.0924
24444W        W67538  24.443  17.624   7.876 -0.1569  0.1369 -0.0315
24445W        W67539  22.732  15.773   7.760 -0.2382 -0.0131 -0.1027
24446W        W67540  24.972  18.415   9.113  0.3892  0.0714 -0.2535
24447W        W67541  24.119  15.455   9.813 -0.1969 -0.2968  0.2671
24448W        W67542  23.651  15.295  10.162 -0.3828 -0.1054 -0.2977
24449W        W67543  23.430  14.821   8.912  0.0479  0.0471  0.1021
24450W        W67544  22.489  15.235   7.414  0.4628  0.0869  0.0313
24451W        W67545  23.925  17.795   8.648 -0.0766 -0.2524  0.0510
24452W        W67546  21.795  17.183   6.896  0.1374  0.3736  0.0621
24453W        W67547  20.722  15.567   8.105  0.1701  0.2064  0.1682
24454W        W67548  23.647  17.667   9.151  0.0009 -0.2851  0.1817
24455W        W67549  25.733  14.890   9.419  0.1411  0.2806  0.1386
24456W        W67550  22.586  17.248   8.343  0.2267  0.2201  0.0707
24457W        W67551  25.811  15.462   9.550  0.0976  0.0908 -0.4359
24458W        W67552  24.541  15.408   6.614  0.1686  0.0672 -0.0601
24459W        W67553  24.586  16.082   8.201 -0.1275 -0.2618  0.0938
24460W        W67554  23.925  16.523   6.895  0.2455  0.0567 -0.0189
24461W        W67555  24.192  15.524   8.222 -0.2464  0.0506  0.2078
24462W        W67556  23.014  16.032  10.456 -0.0240 -0.0044  0.0240
24463W        W67557  23.756  15.865   9.774  0.0171 -0.1772 -0.1624
24464W        W67558  23.186  15.913   8.161  0.3323 -0.1801  0.2638
24465W        W67559  25.750  16.352   7.748 -0.0711  0.2474 -0.1669
24466W        W67560  20.758  16.218   9.926 -0.0979  0.1621  0.2656
24467W        W67561  24.129  15.464   8.741 -0.0206  0.3107  0.0773
24468W        W67562  24.967  17.363  10.081 -0.0080 -0.1956  0.0688
24469W        W67563  23.331  16.631   6.593 -0.0958  0.0318  0.2114
24470W        W67564  24.948  14.895  10.156  0.2667  0.1090  0.6739
24471W        W67565  21.575  17.745   5.699 -0.0192  0.2724 -0.0771
24472W        W67566  24.228  14.468   9.041  0.1936  0.0197 -0.0170
24473W        W67567  23.098  14.808   9.399 -0.1358  0.2113  0.3039
24474W        W67568  24.859  14.332   9.527 -0.2096 -0.0455 -0.4297
24475W        W67569  22.990  14.508   9.974  0.1444 -0.2752 -0.0151
24476W        W67570  22.258  16.769   7.771 -0.0700 -0.0942 -0.0777
24477W        W67571  22.844  14.217   9.504 -0.1556  0.0071 -0.0788
24478W        W67572  23.508  17.447  10.090 -0.0525 -0.2363  0.0317
24479W        W67573  23.187  16.696  10.326  0.0104 -0.1519  0.0091
24480W        W67574  23.950  14.895   8.890  0.1141  0.0122 -0.1140
24481W        W67575  23.385  17.549   8.255  0.0955  0.1979 -0.0599
24482W        W67576  23.881  17.383   8.304 -0.0256  0.2505 -0.0738
24483W        W67577  23.648  15.162   8.513 -0.0786  0.2576  0.0014
24484W        W67578  22.509  16.482   9.525  0.2125 -0.0490 -0.4067
24485W        W67579  23.874  17.502   6.873  0.0280  0.0229  0.1892
24486W        W67580  25.889  16.563  10.309 -0.1673 -0.0325 -0.2077
24487W        W67581  23.304  18.494   8.903 -0.0235  0.1377 -0.1607
24488W        W67582  24.413  14.128   9.363 -0.2323 -0.3739  0.3358
24489W        W67583  22.349  17.759   9.631 -0.1767  0.3385 -0.0930
24490W        W67584  22.362  15.804   8.175  0.0262 -0.1756 -0.1740
24491W        W67585  20.624  14.300   9.222 -0.0756 -0.2802  0.0297
24492W        W67586  24.560  15.196   9.678  0.2138  0.0207  0.0238
24493W        W67587  24.407  16.647   7.865  0.1459 -0.0875  0.0984
24494W        W67588  22.441  14.498   9.161 -0.0476  0.1785 -0.1263
24495W        W67589  24.434  14.652   9.799  0.3465 -0.0357  0.0797
24496W        W67590  19.576  17.647  10.082 -0.1738  0.1512 -0.1853
24497W        W67591  24.545  15.402   8.973  0.0630 -0.1324  0.0156
24498W        W67592  22.387  15.009   6.476  0.1804 -0.0965 -0.3713
24499W        W67593  27.530  13.355   9.103 -0.2264  0.2333 -0.3796
24500W        W67594  23.038  15.842   9.157 -0.2061 -0.0720 -0.1216
24501W        W67595  22.580  16.029   9.268 -0.3343  0.1089  0.1304
24502W        W67596  24.313  17.764   8.965  0.3316 -0.3458 -0.2897
24503W        W67597  23.713  15.712   8.338 -0.1364  0.3122 -0.1473
24504W        W67598  22.716  16.799   8.103 -0.1622  0.0214 -0.2011
24505W        W67599  25.143  16.712  10.150 -0.0888  0.3637 -0.1598
24506W        W67600  24.171  15.179   9.204 -0.1436 -0.1538 -0.0373
24507W        W67601  21.520  14.902   8.518 -0.0623 -0.0321  0.0960
24508W        W67602  25.220  15.595   8.909  0.1619  0.0537 -0.2343
24509W        W67603  23.644  14.363   9.872  0.1206 -0.2476 -0.0333
24510W        W67604  24.859  13.936   8.176 -0.2535  0.1507  0.1152
24511W        W67605  22.596  13.777   8.295  0.0233  0.0518 -0.0904
24512W        W67606  25.693  17.492   8.890 -0.0281 -0.1314 -0.0081
24513W        W67607  22.830  15.558   8.347  0.2012 -0.2124 -0.1535
24514W        W67608  21.093  16.009   9.598  0.1433  0.1374  0.3287
24515W        W67609  24.418  16.540   9.194 -0.2674 -0.2943 -0.0437
24516W        W67610  23.229  15.719   8.703 -0.2542  0.3527  0.2511
24517W        W67611  24.865  16.865  10.666 -0.4623 -0.3054  0.1005
24518W        W67612  22.841  17.641   8.508 -0.0380  0.2552 -0.1135
24519W        W67613  23.380  16.332   8.983 -0.0030 -0.0068  0.1785
24520W        W67614  24.766  15.436   8.126 -0.0286  0.1250 -0.0518
24521W        W67615  23.684  16.934   8.388  0.2809  0.0571 -0.1777
24522W        W67616  24.709  14.430   9.072  0.3011  0.2195 -0.1479
24523W        W67617  23.748  16.020   7.517  0.3348 -0.3004  0.0299
24524W        W67618  20.206  16.912  10.618 -0.0734  0.1634  0.0709
24525W        W67619  25.993  17.729  11.808 -0.1143  0.1052  0.2600
24526W        W67620  23.302  15.401   8.218  0.1172  0.3363 -0.1256
24527W        W67621  22.200  14.758   7.475  0.1487 -0.0919  0.1607
24528W        W67622  23.436  15.757   9.406 -0.4902  0.1466 -0.2043
24529W        W67623  23.373  14.888   9.843  0.2513  0.1159 -0.2253
24530W        W67624  24.748  17.578   7.411 -0.1809  0.1270  0.0045
24531W        W67625  23.635  14.833   9.345 -0.2279 -0.2191 -0.0182
24532W        W67626  20.952  16.305   9.015 -0.3103  0.0393  0.1285
24533W        W67627  25.854  15.040  10.192  0.0399  0.3202  0.1462
24534W        W67628  23.371  16.315   7.470  0.3850 -0.1404  0.2739
24535W        W67629  21.208  16.365  10.074  0.0310  0.0603 -0.1985
24536W        W67630  23.120  15.543  10.377  0.4287  0.2118 -0.0031
24537W        W67631  23.677  13.927   9.181  0.0543 -0.0744  0.1489
24538W        W67632  24.177  20.970   9.197 -0.2581  0.0889  0.1456
24539W        W67633  25.148  15.318   6.964  0.1941 -0.2837  0.2990
24540W        W67634  25.415  14.242  10.276 -0.0179 -0.0596  0.0638
24541W        W67635  25.837  16.965   9.665 -0.0622 -0.2487  0.1514
24542W        W67636  24.098  15.988   8.546 -0.1742 -0.0267  0.1755
24543W        W67637  21.986  14.473   9.420  0.0372  0.1592  0.0346
24544W        W67638  23.845  14.248   7.269  0.1201  0.1185  0.2524
24545W        W67639  23.141  17.580   7.168  0.0169 -0.0356 -0.0703
24546W        W67640  25.233  17.272  10.591 -0.0810 -0.1226  0.0622
24547W        W67641  24.404  15.153   7.919  0.1462  0.0711  0.1625
24548W        W67642  21.413  14.309   9.642 -0.4949  0.0894 -0.0522
24549W        W67643  22.097  16.164   9.374 -0.1279 -0.1947  0.2380
24550W        W67644  23.464  16.682   7.026 -0.0979 -0.2501  0.3828
24551W        W67645  24.382  18.198   9.354  0.0250  0.0570 -0.1468
24552W        W67646  24.803  15.106   7.553 -0.3785 -0.0347  0.0771
24553W        W67647  23.314  16.602   9.835 -0.0759  0.0236  0.0721
24554W        W67648  24.726  14.459   8.452  0.0991 -0.4218  0.1685
24555W        W67649  22.820  19.963  10.088  0.1964  0.4899 -0.1817
24556W        W67650  24.459  17.294   8.997  0.2364 -0.0357 -0.1717
24557W        W67651  20.685  14.563   9.712 -0.2764 -0.1912  0.1706
24558W        W67652  24.516  15.699   8.534  0.2526  0.0500  0.1635
24559W        W67653  24.876  17.491   9.531 -0.0025 -0.1873 -0.2205
24560W        W67654  21.961  15.908  10.059  0.0152 -0.3067  0.1875
24561W        W67655  25.260  16.746   8.862  0.1731  0.0658  0.2379
24562W        W67656  22.848  16.056   8.780 -0.2857 -0.0147 -0.1343
24563W        W67657  23.058  14.979  10.280  0.6489 -0.0547 -0.0935
24564W        W67658  23.309  14.428   8.036  0.1583 -0.0423  0.0382
24565W        W67659  24.194  17.450   7.509 -0.2354  0.0791  0.2912
24566W        W67660  20.953  15.137   9.236  0.0283  0.2964  0.4156
24567W        W67661  23.833  16.789   9.658 -0.2236  0.0642  0.1213
24568W        W67662  24.011  18.288   8.459  0.1503 -0.1630  0.0403
24569W        W67663  23.630  15.280   9.103  0.2308 -0.1784  0.1130
24570W        W67664  24.870  17.812  10.404  0.0180 -0.0345 -0.2540
24571W        W67665  23.184  14.959   7.279 -0.0372 -0.1672 -0.3748
24572W        W67666  22.463  15.974  10.346 -0.0619 -0.1947  0.1466
24573W        W67667  22.041  16.803   8.722  0.2132  0.0684  0.0750
24574W        W67668  24.026  17.104   7.826 -0.1432 -0.0836  0.1903
24575W        W67669  23.257  19.666   6.917 -0.3342  0.3475 -0.3959
24576W        W67670  25.756  14.710   7.776  0.2926 -0.1661 -0.0765
24577W        W67671  26.007  16.722   9.247  0.1424 -0.2904  0.0584
24578W        W67672  25.975  15.277   9.147 -0.1914  0.3341  0.2103
24579W        W67673  22.658  15.498   9.397 -0.0167  0.0595  0.0854
24580W        W67674  23.609  15.517   7.890  0.0146 -0.1023  0.0989
24581W        W67675  23.772  16.555   8.661 -0.0070  0.3178  0.0625
24582W        W67676  21.003  14.255   8.849  0.2193 -0.1228 -0.1953
24583W        W67677  23.676  16.882  10.158  0.1226 -0.3815  0.0245
24584W        W67678  22.006  12.089  10.232 -0.3547 -0.0426 -0.0054
24585W        W67679  22.477  16.558   6.539  0.2721  0.0569 -0.1356
24586W        W67680  24.278  15.855   8.959 -0.0658  0.3234  0.1116
24587W        W67681  22.899  17.179   8.828  0.4878  0.1467  0.0549
24588W        W67682  23.544  16.145   8.485  0.1980 -0.0384 -0.3690
24589W        W67683  25.581  17.051  10.146  0.0995 -0.0327 -0.3870
24590W        W67684  21.879  14.546   8.436 -0.0517  0.0367 -0.3593
24591W        W67685  25.794  15.624  10.189 -0.1909  0.0360 -0.3112
24592W        W67686  23.303  13.937   9.808 -0.0354  0.1108 -0.0821
24593W        W67687  22.265  15.365   9.040  0.1465  0.1722  0.0258
24594W        W67688  25.392  16.106   8.876 -0.1917 -0.2190  0.0414
24595W        W67689  26.291  16.923   9.891 -0.0088 -0.1381 -0.1834
24596W        W67690  20.445  15.381  10.145  0.2140 -0.1064  0.2990
24597W        W67691  23.194  16.767   7.764  0.0062  0.0398 -0.3322
24598W        W67692  22.664  16.290   6.929 -0.0877 -0.2284 -0.0728
24599W        W67693  22.171  15.516   8.548  0.2360 -0.5186 -0.2491
24600W        W67694  23.593  16.887   7.449  0.1716  0.0586  0.2616
24601W        W67695  22.897  16.540   9.048 -0.0591  0.0136  0.0626
24602W        W67696  22.335  16.417   9.992  0.1927  0.1395  0.1992
24603W        W67697  22.050  15.052   8.262 -0.0471  0.1330  0.1525
24604W        W67698  24.972  18.298   6.176  0.1394 -0.1011  0.1488
24605W        W67699  24.375  16.100   9.888 -0.0682  0.0158  0.1542
24606W        W67700  22.792  18.499   7.010 -0.0444 -0.1416  0.1244
24607W        W67701  24.817  15.896   8.919  0.0894  0.1107  0.2455
24608W        W67702  22.490  19.185  10.029 -0.0769 -0.0872  0.4444
24609W        W67703  22.728  16.425  10.552 -0.0661  0.3036  0.0614
24610W        W67704  28.294  17.678  10.625  0.2305  0.0603  0.0892
24611W        W67705  23.742  16.390  10.001 -0.1582 -0.0115 -0.1920
24612W        W67706  25.211  14.503   8.203  0.1916 -0.1309 -0.0099
24613W        W67707  21.512  13.495  10.172  0.0922  0.0032  0.0113
24614W        W67708  23.386  17.192   6.954 -0.1713  0.1017  0.1696
24615W        W67709  24.978  13.630   9.867 -0.1690 -0.0239  0.1229
24616W        W67710  23.157  17.988   8.243 -0.3827 -0.1823 -0.0372
24617W        W67711  23.691  15.301   9.641  0.0006  0.1361  0.1365
24618W        W67712  22.367  15.891   8.787 -0.1556 -0.0934 -0.1757
24619W        W67713  23.963  16.290   9.018 -0.0415 -0.1557 -0.0015
24620W        W67714  23.263  17.613   7.736  0.0420  0.2314  0.1186
24621W        W67715  25.239  16.997   9.720  0.4176 -0.1579 -0.0411
24622W        W67716  24.181  15.028   8.502 -0.3295  0.0384 -0.2086
24623W        W67717  24.782  16.742   8.894 -0.2386  0.0623  0.0750
24624W        W67718  23.731  14.427   8.850 -0.1022 -0.0477 -0.1103
24625W        W67719  25.573  15.305   8.653  0.0910  0.2373  0.0895
24626W        W67720  25.566  14.691   8.824  0.2669 -0.0234 -0.0520
24627W        W67721  21.181  15.466   8.512  0.0248 -0.2153  0.1324
24628W        W67722  21.686  15.853   7.382 -0.0373  0.1020 -0.0859
24629W        W67723  23.150  17.123   7.422  0.1212 -0.0079  0.1628
24630W        W67724  22.963  15.824   9.638 -0.2564  0.3134  0.0564
24631W        W67725  19.905  13.833   9.286  0.1221 -0.1768  0.0119
24632W        W67726  23.446  14.938   7.990  0.1880 -0.0186 -0.2244
24633W        W67727  24.697  16.149   7.666  0.2710 -0.2129  0.0575
24634W        W67728  23.203  15.251   8.755  0.0796  0.0407  0.2437
24635W        W67729  21.153  15.197   7.637 -0.0798  0.0325 -0.3460
24636W        W67730  23.833  16.666   7.926  0.0538 -0.1157 -0.0989
24637W        W67731  24.621  16.704   8.374  0.0489  0.2571  0.3715
24638W        W67732  22.713  15.465   8.880 -0.0532 -0.0473 -0.1741
24639W        W67733  22.527  17.659   8.035  0.0660  0.1778  0.1063
24640W        W67734  22.059  14.050   7.732 -0.0821 -0.0579  0.1048
24641W        W67735  23.151  15.331   9.302  0.4321 -0.1639 -0.0270
24642W        W67736  22.929  19.209   8.754 -0.0997  0.2364 -0.1188
24643W        W67737  24.376  16.362   8.742 -0.0169 -0.0069  0.2237
24644W        W67738  21.852  14.138   8.758  0.3097 -0.0553  0.1819
24645W        W67739  24.180  16.169   7.794  0.0147 -0.1210  0.1878
24646W        W67740  25.477  16.610   8.417 -0.2633  0.2921 -0.1379
24647W        W67741  24.635  14.516  10.325  0.0163 -0.0307  0.0777
24648W        W67742  24.656  16.066   9.421  0.1052  0.2191  0.1774
24649W        W67743  24.247  16.698   9.994  0.0952  0.0796 -0.1006
24650W        W67744  21.394  13.883   8.841 -0.1308  0.3082 -0.0801
24651W        W67745  24.915  15.344   9.346 -0.2100 -0.0154 -0.0019
24652W        W67746  23.967  17.310   8.978 -0.0179  0.0575  0.2012
24653W        W67747  21.645  15.365   9.392 -0.1828 -0.1465  0.2806
24654W        W67748  22.942  15.308   7.644  0.2381 -0.2325  0.1319
24655W        W67749  24.831  14.839  10.651  0.2776  0.2613 -0.0375
24656W        W67750  23.534  17.090   7.902 -0.1973  0.0337  0.1953
24657W        W67751  25.237  15.365   8.236  0.0588 -0.1530  0.2161
24658W        W67752  23.918  15.690   9.335 -0.1809  0.1332 -0.0544
24659W        W67753  24.719  16.504  10.083 -0.1314 -0.3091 -0.2144
24660W        W67754  25.484  16.584   9.775 -0.3641 -0.0972 -0.1001
24661W        W67755  22.583  14.490  10.285 -0.2685 -0.0100  0.2320
24662W        W67756  21.915  16.261   8.822  0.1955  0.0910 -0.2474
24663W        W67757  22.802  16.268   7.758 -0.1131  0.0860  0.1475
24664W        W67758  25.411  13.405  10.746  0.0128 -0.2145 -0.3220
24665W        W67759  22.643  15.014   9.240 -0.2011 -0.1736  0.1158
24666W        W67760  25.116  14.808   8.594  0.1737 -0.0927 -0.0512
24667W        W67761  25.385  17.814  10.466 -0.0104  0.3186  0.0965
24668W        W67762  25.390  14.740  10.407  0.1192 -0.3309 -0.0043
24669W        W67763  22.695  22.450   3.335  0.2763  0.1408  0.2428
24670W        W67764  21.440  18.421  31.389  0.3858 -0.0826  0.2816
24671W        W67765  24.442  19.709   0.178  0.1022  0.2456  0.0706
24672W        W67766  23.785  20.830  31.854  0.0250  0.2056  0.3380
24673W        W67767  23.139  20.219   0.458  0.2428  0.2054  0.0632
24674W        W67768  25.607  21.589   1.525  0.2330  0.0555  0.2671
24675W        W67769  23.012  16.761   2.011  0.0421  0.0653 -0.0406
24676W        W67770  24.027  22.098   0.926  0.1070  0.1167  0.1823
24677W        W67771  25.545  21.451   2.669 -0.3843  0.0801 -0.2155
24678W        W67772  23.472  19.489   0.665  0.2395 -0.2051  0.0196
24679W        W67773  23.216  19.578   2.208  0.0586  0.0019 -0.0308
24680W        W67774  23.342  20.874   1.851  0.2941 -0.1057 -0.1545
24681W        W67775  23.152  17.830   1.760 -0.3121  0.1138 -0.1202
24682W        W67776  22.216  17.693   1.588 -0.1575  0.0475  0.0410
24683W        W67777  25.090  19.551   2.870 -0.0926  0.1676  0.0614
24684W        W67778  21.564  17.741   1.016 -0.0873  0.0825 -0.1454
24685W        W67779  21.728  18.603   1.234 -0.1748 -0.1163  0.2515
24686W        W67780  23.690  20.442   1.848  0.0971 -0.0348 -0.3677
24687W        W67781  23.579  19.991   0.525  0.1444 -0.0669  0.0351
24688W        W67782  23.570  17.818   0.794 -0.2384  0.0666 -0.2810
24689W        W67783  23.152  18.318   3.326  0.2513  0.3108  0.2660
24690W        W67784  22.673  19.692   1.175 -0.1463 -0.0773 -0.1160
24691W        W67785  21.698  19.150   0.314  0.0117  0.2058 -0.2433
24692W        W67786  21.467  19.026   1.381 -0.2810  0.0380 -0.0085
24693W        W67787  22.060  21.227   2.328 -0.0597 -0.0679  0.1843
24694W        W67788  24.902  20.177   2.494  0.0403  0.3635 -0.2304
24695W        W67789  23.348  20.799   2.640 -0.0564  0.0073 -0.0339
24696W        W67790  23.263  21.129   1.199  0.0954 -0.1085  0.3606
24697W        W67791  22.972  20.129   1.295 -0.1829  0.1166 -0.0745
24698W        W67792  23.454  19.118   2.201  0.0043  0.1414  0.1179
24699W        W67793  22.427  19.322   0.972 -0.0711  0.2482 -0.3224
24700W        W67794  20.815  22.513   0.161 -0.4161  0.0229 -0.3562
24701W        W67795  21.376  21.386   0.177 -0.1257  0.1579 -0.1024
24702W        W67796  24.995  21.386   1.034 -0.0292 -0.0481 -0.3631
24703W        W67797  24.973  22.626   2.933  0.2157 -0.1968  0.2554
24704W        W67798  22.879  22.600   2.194  0.0136  0.1300  0.0380
24705W        W67799  21.813  21.861   0.557 -0.0010 -0.1205  0.0035
24706W        W67800  23.512  21.563   1.272  0.1975  0.1876 -0.0967
24707W        W67801  23.350  21.477   3.873  0.0009  0.1938  0.0825
24708W        W67802  23.819  19.812   0.963 -0.1636  0.0215 -0.0725
24709W        W67803  23.962  19.119   2.025  0.4098  0.4385 -0.2712
24710W        W67804  21.984  19.926   0.314  0.4031 -0.0833  0.0780
24711W        W67805  23.621  19.476   1.848 -0.0813 -0.2286  0.0308
24712W        W67806  22.769  20.348   3.246  0.1604  0.0686 -0.2170
24713W        W67807  22.885  21.263   0.933  0.0827 -0.0082 -0.2247
24714W        W67808  25.223  18.554   2.876 -0.0781 -0.0125  0.1540
24715W        W67809  22.636  20.317  31.737 -0.2390  0.0708 -0.1640
24716W        W67810  24.198  20.990  31.641  0.1199  0.3780 -0.2885
24717W        W67811  23.050  18.121  31.975  0.0683  0.0923  0.2813
24718W        W67812  24.665  19.082  31.749 -0.1214 -0.1766 -0.0834
24719W        W67813  25.139  19.438   0.787  0.1381 -0.0088 -0.1390
24720W        W67814  22.843  22.791   0.902 -0.0681  0.1241 -0.0718
24721W        W67815  22.133  19.058   1.314  0.3251 -0.2027 -0.2492
24722W        W67816  24.496  20.606   2.661 -0.1298 -0.1970 -0.2186
24723W        W67817  22.349  17.789   0.603  0.2540  0.1458  0.3108
24724W        W67818  23.814  18.716   1.226  0.2989  0.0556  0.1555
24725W        W67819  23.319  21.758   2.380 -0.1957 -0.2030 -0.1289
24726W        W67820  22.348  19.531   1.584 -0.2278 -0.1446 -0.2511
24727W        W67821  23.366  20.558   0.777  0.2329  0.0853  0.2942
24728W        W67822  23.678  23.069   0.734 -0.3060  0.4528  0.2495
24729W        W67823  22.465  21.181   0.735  0.0591 -0.0712  0.0489
24730W        W67824  22.756  19.509   1.949 -0.1296 -0.1597  0.0954
24731W        W67825  22.859  19.031   2.874  0.2159 -0.0570 -0.0438
24732W        W67826  23.116  19.568   3.730  0.1862  0.3744 -0.1242
24733W        W67827  22.615  17.938   0.166  0.0922 -0.1042 -0.1144
24734W        W67828  25.762  20.595   2.557  0.1808 -0.2596  0.0923
24735W        W67829  22.764  21.351   3.545  0.2478  0.1834  0.0263
24736W        W67830  25.510  19.239   1.615  0.1256  0.0510 -0.0030
24737W        W67831  23.132  19.386   1.253 -0.2168 -0.0619  0.1092
24738W        W67832  25.716  19.454   2.039  0.0766 -0.0557 -0.0425
24739W        W67833  23.532  21.548  31.049 -0.0317 -0.0410 -0.0369
24740W        W67834  25.157  18.176   2.434 -0.0012  0.0185 -0.2878
24741W        W67835  24.081  17.565   1.954  0.2353 -0.0167 -0.2221
24742W        W67836  22.647  20.323  30.831 -0.0727  0.1671 -0.2020
24743W        W67837  23.921  20.276   0.879 -0.0508 -0.1306  0.0613
24744W        W67838  24.474  21.717   3.498  0.0085 -0.1693  0.1985
24745W        W67839  24.905  20.043  31.369  0.3583  0.1423  0.2236
24746W        W67840  22.940  21.463   2.219  0.0085 -0.1447  0.0969
24747W        W67841  22.703  18.717   2.448 -0.0473 -0.0268  0.1961
24748W        W67842  23.106  21.765   2.885  0.0440  0.0711 -0.1608
24749W        W67843  21.188  19.157   0.488  0.1633  0.0473  0.1766
24750W        W67844  22.612  19.980   1.609  0.2542 -0.0223  0.0484
24751W        W67845  22.118  18.734   1.001 -0.0112 -0.0503  0.0912
24752W        W67846  21.241  19.457   1.428  0.2063  0.0286 -0.0572
24753W        W67847  22.761  20.908   1.363 -0.0492 -0.0019 -0.0637
24754W        W67848  24.379  19.082   0.680 -0.1045  0.1987  0.0507
24755W        W67849  22.349  19.168   3.737 -0.2597  0.1499 -0.0506
24756W        W67850  25.680  16.375   1.026  0.0649  0.1304  0.1050
24757W        W67851  22.591  19.101   1.411 -0.0663 -0.4672  0.0031
24758W        W67852  24.813  22.028   1.711  0.1246 -0.0955  0.0519
24759W        W67853  25.180  19.179   0.334 -0.0113 -0.2367  0.1758
24760W        W67854  23.205  21.223   0.520  0.1880 -0.0556 -0.0130
24761W        W67855  21.049  19.946   1.544 -0.1323  0.6983 -0.2903
24762W        W67856  22.914  17.765   2.261  0.2348 -0.2194  0.1447
24763W        W67857  21.943  18.643   2.549 -0.1614  0.1138  0.1414
24764W        W67858  22.138  18.261   1.256 -0.1028  0.1920 -0.1359
24765W        W67859  23.710  19.497   2.955  0.0892 -0.1027 -0.0457
24766W        W67860  23.114  18.508  30.115 -0.2568  0.0973 -0.2766
24767W        W67861  24.740  18.954   3.089  0.1095  0.2007  0.0405
24768W        W67862  24.765  19.417   0.405 -0.2616  0.1808  0.0772
24769W        W67863  21.877  18.214  31.802  0.2424 -0.0355 -0.2039
24770W        W67864  24.798  18.915   1.328 -0.0833  0.0029  0.2817
24771W        W67865  23.603  22.411   0.138  0.1503 -0.3569  0.1746
24772W        W67866  26.162  22.696   1.370  0.0887  0.0311 -0.0318
24773W        W67867  23.294  23.078   1.064 -0.0408 -0.0886 -0.0113
24774W        W67868  23.350  18.109   2.163  0.0672  0.0225 -0.0694
24775W        W67869  22.268  19.384  31.619  0.2531  0.1599  0.0718
24776W        W67870  22.756  22.450   1.295  0.0768 -0.2828 -0.0250
24777W        W67871  22.413  21.270  31.834  0.0263  0.1119  0.3632
24778W        W67872  23.370  19.667  31.144  0.1492 -0.0532 -0.2482
24779W        W67873  25.531  21.897   2.416  0.3947 -0.2420  0.1939
24780W        W67874  23.559  20.251   1.302  0.0749 -0.2364  0.0586
24781W        W67875  21.896  20.483   2.422 -0.3173 -0.0575 -0.0476
24782W        W67876  24.659  19.456   3.138  0.4312 -0.2729 -0.0026
24783W        W67877  23.998  19.756   2.105 -0.3565  0.1158 -0.1661
24784W        W67878  24.692  19.336   1.019  0.0869 -0.0782  0.2451
24785W        W67879  22.704  18.692  30.640  0.0754 -0.2210  0.0549
24786W        W67880  23.762  20.754   1.003 -0.0214  0.0743 -0.1255
24787W        W67881  22.532  19.411   0.455 -0.0842 -0.5165 -0.1229
24788W        W67882  21.610  19.825   1.683  0.0921 -0.0135 -0.1048
24789W        W67883  22.852  20.313   0.855 -0.0632  0.3386  0.0639
24790W        W67884  24.158  17.037   0.874 -0.0963  0.0258 -0.0326
24791W        W67885  22.889  19.060   3.875  0.3556  0.1493  0.0807
24792W        W67886  24.220  20.166   1.908  0.0254  0.0440 -0.3373
24793W        W67887  20.935  18.901   0.024  0.0960  0.0371  0.2971
24794W        W67888  23.816  19.220   4.372 -0.2241  0.1391  0.1191
24795W        W67889  25.180  18.599   0.851 -0.1642  0.2803 -0.1707
24796W        W67890  25.127  21.071   0.285 -0.0066  0.1825  0.0210
24797W        W67891  23.588  20.371   2.810 -0.2051  0.0941  0.0032
24798W        W67892  24.614  21.347   0.150 -0.2151  0.1358  0.0667
24799W        W67893  24.015  19.123  30.503  0.1224 -0.3093 -0.2533
24800W        W67894  25.184  18.010   0.016 -0.1585  0.1866 -0.0894
24801W        W67895  22.724  21.754   2.584 -0.1708 -0.1516 -0.0221
24802W        W67896  24.533  21.644  31.082 -0.2093 -0.3156 -0.2270
24803W        W67897  22.360  20.995   1.926 -0.0269 -0.2960 -0.1187
24804W        W67898  23.374  18.625   0.179 -0.1031 -0.4516 -0.2817
24805W        W67899  24.331  22.583   0.912  0.3046  0.0938 -0.2376
24806W        W67900  21.433  20.629   2.134 -0.0348  0.1625 -0.0125
24807W        W67901  24.665  20.214   2.969  0.1211 -0.3563 -0.2923
24808W        W67902  24.860  21.967   0.404  0.2325 -0.1536 -0.3204
24809W        W67903  23.876  18.000   2.113  0.2280 -0.1863 -0.0341
24810W        W67904  22.731  18.931   0.281 -0.0439  0.1007 -0.0647
24811W        W67905  24.293  18.549   1.388 -0.0698 -0.2504  0.0692
24812W        W67906  21.363  21.911   1.020  0.0908  0.0056  0.2504
24813W        W67907  26.489  18.125   2.111  0.2195 -0.1732 -0.3476
24814W        W67908  23.927  18.634   1.702 -0.0672  0.1138 -0.0105
24815W        W67909  22.819  18.054   2.891 -0.1276 -0.1084 -0.1324
24816W        W67910  24.626  19.134   2.679  0.1420  0.0643 -0.1647
24817W        W67911  25.370  20.771  31.922 -0.1936  0.2681  0.1222
24818W        W67912  23.588  19.527   1.327  0.0949  0.0583 -0.0886
24819W        W67913  23.185  19.866   0.874  0.1082  0.0956  0.0748
24820W        W67914  23.077  18.497   1.919  0.0054 -0.3751  0.2062
24821W        W67915  22.770  19.554   3.006  0.2533  0.0394 -0.2537
24822W        W67916  21.019  21.720   0.632 -0.0136  0.0344 -0.0488
24823W        W67917  25.060  21.369   2.812  0.2306 -0.1612 -0.2314
24824W        W67918  24.260  21.520   0.456 -0.2384  0.2116 -0.3499
24825W        W67919  23.660  18.574   2.151 -0.1373  0.0180  0.0962
24826W        W67920  23.328  19.905   0.095  0.2885 -0.0382  0.3269
24827W        W67921  22.398  21.822   0.531  0.1235  0.1792  0.0694
24828W        W67922  22.944  20.762  31.791  0.0385 -0.3711 -0.0910
24829W        W67923  23.939  17.091   2.074  0.1478  0.0706 -0.0794
24830W        W67924  23.645  20.218   3.836  0.2396 -0.1728 -0.0538
24831W        W67925  21.557  20.533  31.388 -0.1285  0.0254 -0.0258
24832W        W67926  22.303  20.388   2.019  0.0210  0.1067  0.1382
24833W        W67927  22.256  20.262   0.103  0.1174  0.0051 -0.1270
24834W        W67928  25.303  17.496   1.896 -0.1733 -0.2315 -0.0893
24835W        W67929  22.053  20.629   1.050 -0.1978 -0.0421 -0.0440
24836W        W67930  22.211  19.092  30.982  0.0822 -0.0749  0.0554
24837W        W67931  22.747  19.998  31.181 -0.2464  0.3851 -0.3689
24838W        W67932  24.779  18.769   0.181  0.0016  0.2834  0.1151
24839W        W67933  25.627  21.020  30.988 -0.1956 -0.6384 -0.3294
24840W        W67934  21.547  19.154   1.912  0.1630 -0.6429  0.0791
24841W        W67935  24.419  18.425   1.874  0.0599  0.0944 -0.0588
24842W        W67936  21.796  22.473   0.320 -0.1895  0.0996 -0.1245
24843W        W67937  24.702  20.987   2.088  0.0679  0.1229 -0.0574
24844W        W67938  23.941  19.504   0.485  0.0122 -0.1796  0.2355
24845W        W67939  24.455  20.729   0.966  0.0431  0.1516 -0.0449
24846W        W67940  23.681  19.586   4.854  0.1064 -0.2748  0.1649
24847W        W67941  21.820  18.197  31.170  0.0102  0.1796  0.0786
24848W        W67942  25.836  19.039   2.381  0.0525 -0.1782  0.4685
24849W        W67943  23.701  19.475   2.418 -0.0873  0.0100  0.1517
24850W        W67944  21.566  18.913   0.830 -0.1154 -0.0747 -0.0299
24851W        W67945  23.880  20.944   1.706  0.1354 -0.1648  0.1052
24852W        W67946  21.312  18.495   0.827 -0.3114  0.1872 -0.2592
24853W        W67947  22.164  21.198   0.298 -0.0765 -0.1228 -0.2388
24854W        W67948  22.420  18.620   2.959  0.1194  0.0944  0.0922
24855W        W67949  25.400  20.422   2.891 -0.0127  0.0551  0.0689
24856W        W67950  23.218  19.564   2.675 -0.0393  0.1151  0.2187
24857W        W67951  21.829  18.180   0.834 -0.3407 -0.1264 -0.0213
24858W        W67952  24.813  18.634   1.731 -0.2691  0.0029  0.0950
24859W        W67953  23.353  19.073   0.998 -0.0962  0.1012  0.0791
24860W        W67954  24.377  18.807   2.242 -0.1870 -0.0750 -0.1843
24861W        W67955  22.878  21.008   3.168 -0.2097 -0.2107  0.0958
24862W        W67956  24.116  18.695   0.821 -0.2940 -0.1440  0.0143
24863W        W67957  24.751  22.322   0.824 -0.0525  0.2314  0.0094
24864W        W67958  22.914  20.914   2.306 -0.0296  0.0430  0.0767
24865W        W67959  22.793  19.872  31.843 -0.1234  0.1437  0.2839
24866W        W67960  21.280  18.553   1.368  0.0922  0.1315 -0.3349
24867W        W67961  22.208  18.941   0.147 -0.1431 -0.2307 -0.2179
24868W        W67962  23.275  18.221   2.705  0.1962 -0.2404  0.1743
24869W        W67963  23.116  19.772   1.590 -0.1677  0.0076 -0.0337
24870W        W67964  22.430  20.253   1.184 -0.0261  0.0587  0.0489
24871W        W67965  21.912  20.869   1.900 -0.0394 -0.1303 -0.1159
24872W        W67966  24.580  18.437  31.109  0.0068  0.0289  0.0502
24873W        W67967  22.726  20.434   0.238  0.1594  0.0501 -0.0242
24874W        W67968  23.498  18.992   0.470  0.0760  0.2758 -0.2111
24875W        W67969  26.336  19.020   2.357  0.0267 -0.0477 -0.0327
24876W        W67970  23.583  21.876  31.964 -0.2758  0.2507 -0.2159
24877W        W67971  23.944  17.806   2.966  0.2806  0.1401  0.1246
24878W        W67972  21.874  18.329   2.136  0.0020 -0.0620  0.1864
24879W        W67973  23.673  20.907   0.574  0.3449  0.1250 -0.1412
24880W        W67974  21.629  19.757   1.146  0.3589 -0.1366  0.0259
24881W        W67975  25.078  22.501   4.400  0.2362 -0.1071 -0.1002
24882W        W67976  22.549  21.881   3.737  0.3665  0.2077  0.2100
24883W        W67977  22.629  18.495   1.170 -0.0698  0.2270  0.2165
24884W        W67978  22.380  18.800   0.586  0.1745 -0.3036  0.0689
24885W        W67979  23.530  19.979   2.089 -0.1424  0.2152  0.1393
24886W        W67980  24.353  19.985   0.904 -0.0818  0.0271  0.1019
24887W        W67981  23.060  21.695   0.704  0.0920 -0.3177  0.2955
24888W        W67982  24.606  19.409   1.527  0.2684  0.2546 -0.0194
24889W        W67983  24.216  20.763   2.085  0.2422 -0.2827  0.0227
24890W        W67984  24.625  19.881   1.344 -0.0706  0.3058 -0.0953
24891W        W67985  23.873  19.233   0.975  0.2593 -0.1339  0.1279
24892W        W67986  23.683  19.925   1.609 -0.0418  0.3972 -0.0857
24893W        W67987  22.848  17.372   2.572  0.0449 -0.1706 -0.2377
24894W        W67988  24.117  20.636   0.598 -0.1079 -0.0503 -0.3371
24895W        W67989  24.627  18.552   0.927 -0.2102 -0.3103  0.3899
24896W        W67990  24.729  18.347   2.259 -0.0233  0.0191 -0.2143
24897W        W67991  24.402  19.364   1.987 -0.2124 -0.2579  0.1750
24898W        W67992  23.193  20.235   3.588  0.1929  0.3549 -0.0170
24899W        W67993  22.681  19.635   3.926  0.0496  0.0206  0.2829
24900W        W67994  23.477  21.133   2.974 -0.0514  0.0352  0.1795
24901W        W67995  24.288  18.816  30.935  0.0826  0.0667  0.1013
24902W        W67996  25.598  19.427   3.091  0.1702 -0.0185 -0.2595
24903W        W67997  24.091  20.153  31.214  0.0245 -0.1258 -0.0208
24904W        W67998  23.803  20.337  31.625 -0.0662 -0.1172  0.2530
24905W        W67999  23.158  19.276   1.758 -0.0231 -0.0892  0.1673
24906W        W68000  25.731  20.629   3.223  0.1701 -0.0727 -0.3309
24907W        W68001  22.141  17.797   1.041  0.0402  0.2283 -0.8082
24908W        W68002  25.263  18.166   1.953  0.1772 -0.1032 -0.2512
24909W        W68003  25.438  21.990   0.337  0.0597  0.0742  0.0188
24910W        W68004  24.255  20.858   0.203  0.0394  0.0712  0.0285
24911W        W68005  24.268  19.567   1.161 -0.0096  0.3299  0.1548
24912W        W68006  22.298  18.294   0.737 -0.2602 -0.0996  0.2084
24913W        W68007  21.686  21.279   1.776 -0.1835  0.2499  0.0831
24914W        W68008  22.077  18.894  31.477  0.0302 -0.0539 -0.3310
24915W        W68009  23.388  20.671  31.581 -0.1630  0.0119 -0.0247
24916W        W68010  23.973  19.189   1.517 -0.0216  0.1177 -0.0109
24917W        W68011  24.851  19.400   2.268 -0.1140 -0.2056  0.0964
24918W        W68012  23.029  17.623   0.126  0.0116  0.1630 -0.0263
24919W        W68013  23.902  19.014   2.528 -0.0948  0.1683 -0.2132
24920W        W68014  21.864  20.189   1.278  0.2531 -0.0477  0.0117
24921W        W68015  22.242  21.918   1.617  0.3594 -0.0821  0.1450
24922W        W68016  22.801  21.227   1.748  0.3482 -0.0181  0.0397
24923W        W68017  21.860  19.321   1.041  0.4789  0.1255 -0.0824
24924W        W68018  23.511  18.270   1.715 -0.3696 -0.0837 -0.1998
24925W        W68019  23.303  18.569   1.265 -0.2826  0.1772 -0.3843
24926W        W68020  24.388  21.097   1.300  0.0807 -0.3314  0.1037
24927W        W68021  24.294  20.094   2.456  0.0999 -0.0895  0.1346
24928W        W68022  23.852  19.942   2.740  0.2173  0.0374  0.0710
24929W        W68023  23.709  20.823   2.224  0.1827  0.1432 -0.1387
24930W        W68024  24.382  20.822   3.109  0.0573 -0.2347  0.3743
24931W        W68025  25.511  21.426   0.915 -0.4567 -0.2128 -0.1218
24932W        W68026  23.087  22.065   1.129  0.0695  0.2362 -0.1709
24933W        W68027  21.946  19.535   1.988 -0.1712  0.1995 -0.0439
24934W        W68028  22.782  20.418   2.264  0.3879 -0.0044  0.2631
24935W        W68029  24.859  19.906   0.899 -0.0547  0.0120 -0.1952
24936W        W68030  23.601  17.299   0.973  0.3718 -0.2031  0.3178
24937W        W68031  23.292  21.508   0.132 -0.1826  0.2210 -0.1352
24938W        W68032  22.973  20.539   4.048  0.0083  0.0596 -0.0633
24939W        W68033  22.248  19.500   3.047  0.1604  0.1899 -0.1037
24940W        W68034  21.562  21.516  31.579 -0.0668  0.1391  0.2041
24941W        W68035  25.040  22.942   0.074  0.1385 -0.2153 -0.0135
24942W        W68036  23.677  20.458   0.423 -0.2476  0.0962  0.0334
24943W        W68037  24.041  21.580   0.931  0.0863 -0.3214  0.0118
24944W        W68038  23.445  18.743  31.204 -0.2393  0.2467 -0.0066
24945W        W68039  22.729  20.432   1.661  0.1920  0.2874  0.1075
24946W        W68040  23.513  21.212  31.741  0.0925  0.0268  0.3215
24947W        W68041  24.295  22.274  31.741 -0.2617 -0.3088 -0.0694
24948W        W68042  22.497  22.256  31.730  0.0249 -0.2149  0.2207
24949W        W68043  23.832  18.425   0.441 -0.1208 -0.1691  0.1885
24950W        W68044  25.016  20.624   1.894 -0.1019 -0.0260 -0.1427
24951W        W68045  25.652  18.416   2.038 -0.2200  0.1429  0.2212
24952W        W68046  24.103  20.419   2.877 -0.2177 -0.1876  0.0826
24953W        W68047  22.979  19.136   2.332 -0.1046  0.0457  0.0147
24954W        W68048  21.906  18.682   0.507  0.0558  0.2972  0.2795
24955W        W68049  22.474  19.069   3.198  0.2625  0.3349 -0.0064
24956W        W68050  25.525  18.409   4.159 -0.0540 -0.2822 -0.0813
24957W        W68051  23.045  21.278   2.713 -0.2526  0.1508  0.0882
24958W        W68052  25.802  22.351  31.334  0.3011 -0.0177  0.2245
24959W        W68053  21.721  18.814  31.182 -0.1319 -0.0300 -0.1267
24960W        W68054  23.203  18.684   2.378  0.2717 -0.2898 -0.1362
24961W        W68055  26.131  17.635   1.511  0.0790  0.0175  0.0909
24962W        W68056  22.306  20.175   0.578 -0.1869  0.0152 -0.2088
24963W        W68057  24.970  17.761   2.143 -0.2313  0.0288 -0.1306
24964W        W68058  23.345  23.345   0.413 -0.2381 -0.0774 -0.0252
24965W        W68059  23.571  21.332   0.847  0.0005 -0.3428 -0.0697
24966W        W68060  23.913  21.560   1.632 -0.2752 -0.0390 -0.1230
24967W        W68061  20.610  19.062  30.967  0.4102  0.1192  0.2405
24968W        W68062  25.305  18.119   0.495  0.0162  0.0294  0.2288
24969W        W68063  23.486  19.091   3.445  0.1549 -0.0018 -0.1949
24970W        W68064  24.911  18.505   3.314  0.0485 -0.0770  0.2003
24971W        W68065  22.349  20.100   2.559 -0.1477  0.0448  0.1181
24972W        W68066  24.864  19.861  31.954  0.0065 -0.3265  0.3661
24973W        W68067  24.244  19.681   2.871  0.1083  0.1319  0.4185
24974W        W68068  22.395  18.649   1.598  0.0274 -0.0448 -0.1649
24975W        W68069  25.204  19.663  31.100 -0.0296 -0.1759 -0.2312
24976W        W68070  25.732  19.817   1.717 -0.1527 -0.2310 -0.2447
24977W        W68071  23.521  20.140  31.190  0.0484 -0.1770 -0.2816
24978W        W68072  24.961  21.225   3.562  0.1235  0.0100  0.0124
24979W        W68073  23.002  19.566   0.266  0.0271 -0.0473  0.0506
24980W        W68074  24.693  20.010   0.466 -0.0663  0.2293  0.0345
24981W        W68075  21.816  19.393   1.536 -0.2886  0.0446  0.1115
24982W        W68076  23.300  20.050   2.545 -0.0822 -0.3239  0.3932
24983W        W68077  24.507  20.706   1.679 -0.0420 -0.0353  0.4110
24984W        W68078  22.656  17.747   1.821  0.2142 -0.0194  0.0052
24985W        W68079  24.419  19.579   0.675  0.0992 -0.2619 -0.1525
24986W        W68080  26.723  19.440   1.918 -0.0781  0.1321 -0.0787
24987W        W68081  23.687  21.618   0.482  0.1757  0.1988  0.1380
24988W        W68082  24.123  21.114   0.714 -0.1539 -0.0853  0.1231
24989W        W68083  24.455  21.929   0.670  0.2144  0.1069 -0.0575
24990W        W68084  22.157  19.089   1.839  0.0661 -0.0983  0.0922
24991W        W68085  25.310  21.842   1.939 -0.0781  0.1050  0.1758
24992W        W68086  25.059  20.095   1.992  0.1272 -0.0098 -0.4320
24993W        W68087  24.298  19.067   1.158 -0.1163  0.0530  0.1602
24994W        W68088  22.893  17.721   1.330 -0.0383  0.1029 -0.0932
24995W        W68089  21.435  22.498  31.432  0.1211  0.0609  0.0413
24996W        W68090  25.773  18.318   2.547  0.0941 -0.1265  0.4231
24997W        W68091  25.496  19.387   2.499  0.1242 -0.1598 -0.0410
24998W        W68092  22.616  21.396  31.377 -0.0114  0.1483  0.0435
24999W        W68093  24.970  19.114   1.737  0.0609 -0.0136 -0.1215
25000W        W68094  23.084  20.566   2.940  0.1743  0.1945  0.0839
25001W        W68095  23.232  20.349   1.651  0.1390 -0.1226 -0.0983
25002W        W68096  21.807  19.203  31.727  0.1384 -0.2781  0.2109
25003W        W68097  24.295  21.249   1.846  0.2651 -0.1121  0.0557
25004W        W68098  22.927  20.790   0.660  0.2559 -0.1968 -0.0326
25005W        W68099  23.591  22.904   0.144 -0.4456 -0.1296  0.2577
25006W        W68100  23.996  20.901   2.667 -0.1056 -0.1408 -0.0821
25007W        W68101  23.849  19.888   0.105  0.0619  0.3094 -0.1177
25008W        W68102  24.429  21.906   0.160 -0.4044 -0.2270  0.1401
25009W        W68103  22.897  19.380   0.804  0.0911  0.0781  0.0760
25010W        W68104  25.590  18.531  31.856 -0.3248  0.1129  0.2131
25011W        W68105  25.640  17.518   1.389 -0.3842 -0.4011 -0.1608
25012W        W68106  22.151  21.434   1.858 -0.0899  0.1496 -0.1717
25013W        W68107  21.476  19.175  30.922  0.2340 -0.4204  0.0023
25014W        W68108  23.047  20.469  31.298 -0.0169  0.1979  0.3679
25015W        W68109  23.094  20.593   1.211 -0.1123  0.1945  0.2176
25016W        W68110  23.749  18.024   2.593  0.0682  0.1743  0.3743
25017W        W68111  22.924  18.265   2.371  0.2683 -0.2017  0.1138
25018W        W68112  21.169  19.618   1.894 -0.0020  0.0340  0.1663
25019W        W68113  21.218  18.483  31.823  0.4310 -0.0844 -0.2275
25020W        W68114  24.624  21.036   0.600  0.0074 -0.3344  0.0903
25021W        W68115  22.301  18.492  31.901  0.0483 -0.2616  0.1819
25022W        W68116  21.377  18.104   1.991 -0.0282 -0.0498  0.1277
25023W        W68117  24.151  20.045   0.484  0.1672  0.0110  0.2907
25024W        W68118  24.119  20.607   1.326 -0.2357 -0.0832 -0.0519
25025W        W68119  22.681  18.411   0.383 -0.1313  0.1085  0.1021
25026W        W68120  25.756  21.572   2.110  0.2781  0.0715 -0.1321
25027W        W68121  23.032  19.517  30.268 -0.1114 -0.1230 -0.0665
25028W        W68122  24.186  18.031   1.646 -0.2322 -0.0959 -0.2906
25029W        W68123  22.817  18.284   4.773  0.0577  0.0635 -0.0575
25030W        W68124  22.525  18.746  31.486  0.2844 -0.4224  0.0862
25031W        W68125  23.049  18.886   1.575  0.2841  0.0488 -0.0225
25032W        W68126  24.009  22.054   0.384  0.0521 -0.3930 -0.1542
25033W        W68127  24.075  21.632   0.007 -0.2844 -0.3890 -0.3280
25034W        W68128  23.296  20.476   2.229 -0.1294  0.1050  0.0748
25035W        W68129  25.080  21.432   2.160 -0.3861  0.1319 -0.1399
25036W        W68130  21.854  19.364   2.714  0.1552 -0.0653  0.1726
25037W        W68131  23.816  21.187   0.209  0.1671 -0.0175 -0.1430
25038W        W68132  22.740  19.720   2.472 -0.2743  0.5193 -0.1151
25039W        W68133  26.275  21.581   2.165 -0.0364  0.0186 -0.3578
25040W        W68134  25.322  19.139   2.067  0.4387  0.0770  0.0375
25041W        W68135  23.048  21.026  31.293 -0.0458 -0.0992 -0.0717
25042W        W68136  22.447  17.836   2.549  0.1453 -0.1447  0.1137
25043W        W68137  23.093  19.929   4.083  0.2847  0.2705 -0.0154
25044W        W68138  25.525  20.014   2.152 -0.0449  0.0177 -0.3888
25045W        W68139  24.218  18.186   0.096 -0.1649  0.0918  0.1228
25046W        W68140  24.688  20.839  31.440 -0.2049  0.5362 -0.1609
25047W        W68141  22.642  19.294  31.912  0.2514 -0.0742 -0.2406
25048W        W68142  23.562  20.744   1.442  0.0176 -0.1405 -0.1938
25049W        W68143  23.079  18.666   0.636 -0.2115 -0.0038  0.2349
25050W        W68144  24.860  18.868   2.176  0.0410  0.1960 -0.1752
25051W        W68145  24.850  21.047   1.549  0.1264  0.1704 -0.1043
25052W        W68146  23.977  19.286   3.758 -0.2278  0.3122  0.2587
25053W        W68147  24.167  19.648   1.641  0.2699  0.2538 -0.4147
25054W        W68148  25.499  19.483   0.117 -0.0909  0.3751  0.2668
25055W        W68149  24.289  21.896   1.300 -0.0772 -0.1059 -0.0401
25056W        W68150  24.931  20.640   2.945 -0.1421 -0.0179  0.1432
25057W        W68151  24.277  21.912   1.815  0.1719 -0.2561 -0.1890
25058W        W68152  25.008  20.878   1.007  0.0452  0.2154 -0.3075
25059W        W68153  22.354  19.005   2.664  0.3717 -0.0701 -0.0154
25060W        W68154  23.376  17.949   1.292  0.1824  0.0046 -0.3748
25061W        W68155  22.732  18.844   1.970  0.1860 -0.0845  0.1703
25062W        W68156  24.396  18.941   1.689 -0.1715 -0.1690 -0.3622
25063W        W68157  23.001  18.200   1.492 -0.1869  0.2922 -0.1141
25064W        W68158  24.414  18.548   0.462  0.0549 -0.2769 -0.1549
25065W        W68159  20.813  22.279   1.421 -0.3283  0.4734 -0.1395
25066W        W68160  24.114  20.044   1.308 -0.0889 -0.0288  0.3549
25067W        W68161  23.300  19.895   5.986 -0.1402 -0.0604 -0.1113
25068W        W68162  22.229  18.734   3.965 -0.3369 -0.0500 -0.1796
25069W        W68163  23.345  19.041   2.700 -0.0103 -0.0173 -0.2343
25070W        W68164  24.448  19.073   3.475  0.1563 -0.0950  0.1011
25071W        W68165  21.309  18.014   4.285 -0.1185 -0.0262 -0.1603
25072W        W68166  23.460  21.094   4.158  0.0955  0.0482 -0.1045
25073W        W68167  23.174  18.180   5.651 -0.0845  0.0862 -0.3140
25074W        W68168  22.631  20.746   5.116  0.0585  0.0825 -0.1879
25075W        W68169  24.918  20.729   6.592 -0.2465 -0.0089 -0.1213
25076W        W68170  24.249  19.988   3.234  0.0081 -0.2076 -0.1627
25077W        W68171  22.489  19.923   5.821  0.1359 -0.0525  0.0697
25078W        W68172  22.289  20.695   6.888 -0.0809  0.0843 -0.2137
25079W        W68173  23.286  17.277   4.153 -0.3304 -0.1573 -0.2612
25080W        W68174  22.235  18.424   5.966  0.1094 -0.1521  0.0153
25081W        W68175  24.160  20.389   6.169 -0.0455  0.0775 -0.3375
25082W        W68176  20.940  20.975   5.176  0.0736  0.1544  0.1710
25083W        W68177  21.893  18.068   4.714  0.1169 -0.0665 -0.1070
25084W        W68178  23.647  18.534   3.388  0.0482 -0.0229  0.0733
25085W        W68179  23.285  22.112   5.163 -0.0461  0.2199 -0.1231
25086W        W68180  23.000  19.092   6.259 -0.0283  0.2174  0.2947
25087W        W68181  24.223  17.750   5.520 -0.0630  0.1440 -0.0493
25088W        W68182  24.704  21.665   2.937  0.3733 -0.3829 -0.0761
25089W        W68183  22.872  19.262   5.368 -0.0744 -0.2722 -0.0798
25090W        W68184  21.732  19.727   5.042  0.1357 -0.0621  0.1482
25091W        W68185  23.591  18.399   5.532 -0.0604 -0.2751 -0.0925
25092W        W68186  23.933  19.540   6.119 -0.0482  0.1918 -0.2206
25093W        W68187  24.547  20.247   5.791 -0.0079  0.0102 -0.0425
25094W        W68188  23.553  20.624   4.964  0.1525 -0.1578  0.1737
25095W        W68189  24.322  21.776   5.851 -0.2220  0.1913 -0.2367
25096W        W68190  25.040  19.689   6.132  0.3800 -0.1932 -0.3733
25097W        W68191  21.399  20.718   5.378 -0.0190  0.0922  0.2059
25098W        W68192  21.789  22.240   3.122  0.0147 -0.4055  0.0322
25099W        W68193  23.307  21.455   4.416  0.2146  0.1510 -0.1051
25100W        W68194  26.346  21.071   4.262 -0.2700 -0.2457  0.2688
25101W        W68195  24.733  21.901   7.088  0.4407 -0.1643 -0.0907
25102W        W68196  22.787  19.284   6.898  0.2063  0.0161  0.0328
25103W        W68197  21.575  21.088   2.279 -0.0896 -0.2199 -0.0207
25104W        W68198  23.561  21.396   6.272  0.0492 -0.2043 -0.1755
25105W        W68199  22.762  21.300   7.089 -0.1078  0.0211  0.0277
25106W        W68200  21.388  19.757   5.638 -0.1086  0.3391  0.0416
25107W        W68201  23.897  20.385   4.702 -0.1892 -0.1508 -0.1489
25108W        W68202  23.569  22.394   3.847  0.1201 -0.1640  0.1282
25109W        W68203  23.147  19.627   5.016  0.3947  0.0576 -0.1646
25110W        W68204  22.522  20.875   7.498 -0.1833  0.0926 -0.0612
25111W        W68205  21.389  20.858   5.878  0.5219 -0.1560  0.2487
25112W        W68206  24.252  19.339   7.273 -0.0070  0.4405 -0.0597
25113W        W68207  23.086  21.770   3.628  0.1926  0.3167  0.1975
25114W        W68208  24.037  20.377   3.498  0.1651 -0.0332 -0.2157
25115W        W68209  23.353  19.880   3.069 -0.1870  0.1808 -0.1270
25116W        W68210  22.447  19.102   5.200 -0.0061 -0.3394 -0.1721
25117W        W68211  23.522  18.865   4.522  0.1817  0.0968 -0.2869
25118W        W68212  22.378  20.772   5.562 -0.1126  0.1233  0.0794
25119W        W68213  23.134  18.637   5.976  0.0023 -0.2331 -0.0930
25120W        W68214  24.731  20.447   6.237 -0.1556  0.1830  0.0218
25121W        W68215  23.419  20.182   4.843 -0.1545  0.0899 -0.1171
25122W        W68216  22.117  19.950   5.376  0.1663  0.2915 -0.3366
25123W        W68217  21.195  20.226   5.666  0.0381  0.1825  0.2702
25124W        W68218  21.806  19.506   5.527  0.1022  0.2854  0.1207
25125W        W68219  24.243  21.314   3.507  0.1070 -0.3912 -0.1189
25126W        W68220  24.548  19.728   4.591  0.1976  0.1870 -0.2261
25127W        W68221  24.649  22.026   2.223  0.2307  0.1738  0.1285
25128W        W68222  21.425  19.764   2.712 -0.2591  0.1053 -0.2125
25129W        W68223  22.568  19.820   6.367 -0.2394 -0.2791  0.0897
25130W        W68224  22.728  19.023   8.029 -0.1343 -0.2551 -0.0439
25131W        W68225  21.583  17.892   2.835  0.0244  0.1612  0.0760
25132W        W68226  24.395  21.537   7.546 -0.0438 -0.1967  0.2865
25133W        W68227  21.541  20.099   7.454  0.3406  0.0016  0.3599
25134W        W68228  25.214  16.952   3.999 -0.0387  0.2121  0.1638
25135W        W68229  22.020  21.233   5.591  0.2753 -0.0492 -0.0998
25136W        W68230  24.960  22.150   5.940  0.3577 -0.2527 -0.1289
25137W        W68231  24.451  22.337   3.171 -0.4350  0.4087  0.0118
25138W        W68232  24.618  19.023   5.446 -0.1219  0.2609 -0.0247
25139W        W68233  24.474  18.553   5.576  0.2109  0.0394 -0.0407
25140W        W68234  22.382  21.410   3.824  0.0903  0.0092  0.1788
25141W        W68235  24.308  20.518   3.944  0.2364  0.1780  0.0216
25142W        W68236  25.391  21.087   6.609  0.1226 -0.1164  0.2156
25143W        W68237  23.844  20.296   2.317  0.0810  0.0467  0.2695
25144W        W68238  22.182  20.987   5.175 -0.4445 -0.4167  0.1415
25145W        W68239  23.728  18.262   7.375  0.0551 -0.1715 -0.1966
25146W        W68240  24.776  21.199   6.493  0.0870 -0.1739  0.0188
25147W        W68241  22.554  21.269   2.483 -0.4749  0.0544  0.0959
25148W        W68242  21.881  19.740   4.557  0.3282 -0.1940 -0.0972
25149W        W68243  22.785  21.804   3.239  0.1944 -0.2703 -0.2376
25150W        W68244  22.878  17.572   6.417 -0.3496  0.2709 -0.0859
25151W        W68245  22.929  19.612   6.039  0.1585 -0.1596 -0.0194
25152W        W68246  23.953  18.392   3.734 -0.0256 -0.1335 -0.0720
25153W        W68247  21.410  18.260   6.728 -0.0585  0.1129  0.0141
25154W        W68248  24.403  17.382   5.107 -0.0682 -0.2730  0.1538
25155W        W68249  23.029  21.018   4.470  0.2457  0.0281 -0.2308
25156W        W68250  24.994  20.936   4.024  0.2221  0.0775  0.2044
25157W        W68251  24.022  18.672   4.250  0.0714  0.0645 -0.0187
25158W        W68252  25.060  20.211   4.343 -0.2260  0.1509  0.0162
25159W        W68253  22.425  19.542   5.478  0.1916  0.0871 -0.1639
25160W        W68254  22.283  19.720   4.208 -0.0863  0.0434  0.0652
25161W        W68255  23.244  19.412   5.705 -0.0813  0.0205  0.0972
25162W        W68256  22.162  19.015   4.800 -0.1814  0.0916 -0.0015
25163W        W68257  24.938  20.875   5.258 -0.1143  0.1877  0.0468
25164W        W68258  21.556  18.713   2.211 -0.1322  0.1604 -0.0804
25165W        W68259  24.302  19.551   5.639 -0.0995  0.2865  0.2715
25166W        W68260  23.633  21.076   5.215  0.3371 -0.1325 -0.0332
25167W        W68261  20.508  20.930   4.450  0.1014 -0.1287  0.0724
25168W        W68262  25.196  18.585   7.825 -0.2786  0.3837 -0.0945
25169W        W68263  23.296  23.039   4.619  0.0632  0.0017  0.2633
25170W        W68264  25.721  20.953   7.152 -0.0875 -0.0770 -0.1219
25171W        W68265  23.783  22.211   5.039 -0.2109 -0.1228 -0.4144
25172W        W68266  22.670  18.726   6.083 -0.1557 -0.0207  0.2062
25173W        W68267  22.338  20.722   2.442 -0.0713 -0.0483 -0.0364
25174W        W68268  22.078  21.505   5.125  0.1834 -0.1790  0.0102
25175W        W68269  23.617  21.449   5.781  0.0577 -0.2355 -0.2524
25176W        W68270  22.254  18.083   3.022  0.2785 -0.0419 -0.0436
25177W        W68271  24.561  20.891   4.901  0.1927 -0.0610  0.2760
25178W        W68272  23.820  19.858   4.468  0.1256  0.1262 -0.2939
25179W        W68273  23.225  20.396   5.871 -0.0599 -0.0995  0.1172
25180W        W68274  26.307  18.132   4.886  0.0651  0.0166 -0.0241
25181W        W68275  24.371  19.083   5.858 -0.1101 -0.0663 -0.2495
25182W        W68276  24.540  19.951   4.077  0.2383  0.0101  0.0642
25183W        W68277  21.923  19.126   2.307  0.3351  0.2057  0.2296
25184W        W68278  23.585  21.853   4.591  0.0735 -0.3540 -0.2360
25185W        W68279  23.422  20.682   3.879 -0.1040 -0.0401 -0.0400
25186W        W68280  20.654  20.264   5.654 -0.0393  0.0716  0.2011
25187W        W68281  22.521  20.932   4.587 -0.2127 -0.2721  0.2609
25188W        W68282  25.411  18.134   4.711  0.0700 -0.0014 -0.0596
25189W        W68283  21.157  19.777   7.517  0.1189 -0.2272 -0.0580
25190W        W68284  24.399  20.489   6.708  0.2026 -0.0412 -0.1231
25191W        W68285  22.786  19.784   4.540 -0.0941  0.0671  0.2478
25192W        W68286  22.590  20.284   6.613 -0.2072 -0.0296 -0.0980
25193W        W68287  23.589  18.432   4.178 -0.0634 -0.0557 -0.1357
25194W        W68288  24.513  18.739   3.912 -0.0701  0.4964  0.0225
25195W        W68289  24.124  21.279   7.064  0.1602  0.2392 -0.3096
25196W        W68290  23.986  18.914   3.379 -0.0955 -0.1035 -0.1271
25197W        W68291  24.178  19.403   2.443  0.0714  0.1727 -0.2330
25198W        W68292  23.415  19.174   4.013  0.3511  0.1838 -0.2059
25199W        W68293  22.553  21.832   7.876  0.0963 -0.0715 -0.1008
25200W        W68294  23.844  20.666   4.100 -0.2760  0.0251 -0.0468
25201W        W68295  22.424  20.519   4.077  0.1397  0.0156 -0.1246
25202W        W68296  24.845  19.063   4.086 -0.4102 -0.0777 -0.0444
25203W        W68297  24.969  21.624   5.724  0.1142  0.2480 -0.1273
25204W        W68298  22.216  20.320   5.728  0.1809  0.1991  0.1443
25205W        W68299  23.147  20.220   7.125 -0.0773  0.0539  0.1382
25206W        W68300  23.196  20.313   5.358  0.1948  0.0096 -0.5044
25207W        W68301  24.212  20.395   7.550 -0.0677  0.0092  0.0098
25208W        W68302  23.732  18.997   2.998  0.0880  0.0394 -0.1818
25209W        W68303  23.492  19.372   5.309  0.0690 -0.1237 -0.1502
25210W        W68304  21.307  22.020   4.317 -0.2396  0.3145 -0.2933
25211W        W68305  25.305  17.674   6.077  0.0084 -0.0829 -0.0120
25212W        W68306  24.452  19.517   6.173 -0.0190 -0.0468 -0.0722
25213W        W68307  23.196  18.861   5.547 -0.2885 -0.1900  0.0908
25214W        W68308  25.126  20.599   5.661  0.0895  0.0822 -0.0693
25215W        W68309  24.508  19.555   5.171  0.2806  0.1300  0.0268
25216W        W68310  22.441  20.291   7.186 -0.1752 -0.0766 -0.0042
25217W        W68311  23.057  18.895   4.336 -0.1942 -0.0502  0.2052
25218W        W68312  23.548  18.911   5.953  0.2633  0.2701 -0.0597
25219W        W68313  23.195  19.978   6.463 -0.1053  0.0150 -0.0237
25220W        W68314  21.884  20.814   7.297 -0.2534  0.1104  0.2178
25221W        W68315  23.669  20.564   6.013 -0.1821 -0.0220 -0.2268
25222W        W68316  24.743  20.566   4.381  0.1868 -0.2650 -0.1450
25223W        W68317  24.773  19.563   6.533  0.0044  0.0387  0.5140
25224W        W68318  23.187  19.421   3.174 -0.0107  0.0918  0.1750
25225W        W68319  23.243  21.684   4.887  0.1004 -0.5197 -0.2586
25226W        W68320  24.019  20.868   3.546 -0.0919  0.0363  0.0645
25227W        W68321  22.276  18.809   6.389 -0.2789 -0.1752 -0.2405
25228W        W68322  22.228  20.707   6.430 -0.3528 -0.1224 -0.2958
25229W        W68323  23.593  21.098   3.583  0.0265  0.2932  0.3306
25230W        W68324  24.316  20.398   5.041 -0.0231  0.1821 -0.1080
25231W        W68325  23.974  21.137   3.997  0.3431 -0.2588 -0.0228
25232W        W68326  25.411  17.649   5.077  0.1304 -0.2222  0.0574
25233W        W68327  21.390  21.523   4.339  0.0578 -0.0341  0.1900
25234W        W68328  21.838  19.980   3.317  0.1592  0.1123 -0.0548
25235W        W68329  23.529  20.279   4.285 -0.1784  0.0181 -0.1265
25236W        W68330  23.636  17.534   4.478  0.2473  0.1159  0.2141
25237W        W68331  25.194  20.294   3.310  0.1102  0.0844  0.0790
25238W        W68332  21.899  18.654   5.628 -0.0344  0.0358  0.0673
25239W        W68333  23.690  18.581   5.046  0.0314 -0.1496  0.0672
25240W        W68334  21.386  22.125   6.959 -0.0553  0.0140 -0.1806
25241W        W68335  23.208  21.026   6.608 -0.1570 -0.3520 -0.2758
25242W        W68336  23.957  18.358   3.069  0.3159  0.1999 -0.1006
25243W        W68337  23.955  20.933   5.759 -0.0800 -0.1947 -0.0714
25244W        W68338  23.794  20.940   6.378  0.0283  0.1883 -0.2303
25245W        W68339  21.803  17.958   3.324  0.1521 -0.3444 -0.0747
25246W        W68340  24.550  19.972   6.296 -0.0732 -0.2984 -0.1264
25247W        W68341  23.817  21.043   4.579 -0.1606  0.3267 -0.2055
25248W        W68342  21.873  21.759   3.284 -0.1116  0.0585 -0.2360
25249W        W68343  24.906  21.835   5.016 -0.0727 -0.0508  0.1731
25250W        W68344  22.847  21.690   4.547  0.1791 -0.6250 -0.2673
25251W        W68345  23.048  21.653   5.351 -0.0198  0.1529 -0.1902
25252W        W68346  22.787  18.023   7.237 -0.0657  0.1281  0.0189
25253W        W68347  24.655  20.020   4.994 -0.1824 -0.2440 -0.0591
25254W        W68348  23.661  19.722   5.685 -0.1554  0.0266 -0.1017
25255W        W68349  22.973  18.972   3.377 -0.0894 -0.0951  0.2285
25256W        W68350  22.645  19.594   5.030 -0.3714 -0.1678 -0.0917
25257W        W68351  24.872  20.157   6.667  0.3014  0.2197 -0.2405
25258W        W68352  24.560  21.271   5.988  0.1472 -0.0088  0.2224
25259W        W68353  21.585  19.764   6.146 -0.3538  0.0954  0.0063
25260W        W68354  24.513  18.207   5.941  0.2395  0.0126  0.0007
25261W        W68355  25.763  21.011   5.657  0.1925  0.2135  0.1303
25262W        W68356  24.562  19.030   6.327  0.0403  0.2214  0.0849
25263W        W68357  23.072  20.580   4.815  0.0507 -0.1525 -0.2031
25264W        W68358  21.457  18.729   5.274  0.2821  0.1442 -0.1467
25265W        W68359  23.089  21.035   3.783  0.2081  0.1820 -0.0445
25266W        W68360  23.659  18.919   5.433  0.2371 -0.0944  0.2703
25267W        W68361  21.830  20.713   5.572 -0.2096  0.2452 -0.1358
25268W        W68362  23.458  20.724   4.450 -0.0771  0.1517  0.1069
25269W        W68363  21.758  22.356   6.645 -0.1225  0.1920  0.1099
25270W        W68364  25.146  19.168   3.235  0.2678 -0.3010  0.1492
25271W        W68365  24.155  21.782   3.140 -0.1284 -0.0284  0.1016
25272W        W68366  22.868  18.695   5.204 -0.2804 -0.4283 -0.0994
25273W        W68367  25.503  18.970   6.118  0.1023  0.0890 -0.2628
25274W        W68368  24.617  20.485   3.368 -0.1994  0.2143  0.2409
25275W        W68369  24.285  18.557   8.057  0.1924 -0.0514 -0.0277
25276W        W68370  23.741  18.307   4.629 -0.0748  0.0946  0.1735
25277W        W68371  25.176  20.824   4.809  0.2614 -0.0794  0.0363
25278W        W68372  22.713  18.336   6.354  0.3221 -0.0191  0.0769
25279W        W68373  23.544  22.093   7.338 -0.0554 -0.1015  0.0904
25280W        W68374  22.490  20.470   8.010  0.3409 -0.0163  0.1357
25281W        W68375  24.216  18.616   5.172 -0.1632  0.1170  0.1062
25282W        W68376  22.533  19.157   4.258  0.2222 -0.1450  0.1043
25283W        W68377  22.959  20.731   6.242 -0.2076 -0.0273 -0.1904
25284W        W68378  24.314  20.071   5.382 -0.2905 -0.1134  0.0102
25285W        W68379  23.627  20.179   3.322  0.2123  0.0697  0.0803
25286W        W68380  25.422  20.492   4.476 -0.0260  0.4097 -0.1353
25287W        W68381  23.583  20.645   5.487 -0.1026 -0.1807 -0.0927
25288W        W68382  24.198  19.445   4.768  0.1475 -0.3068 -0.3599
25289W        W68383  24.064  20.180   4.200  0.0635 -0.4739  0.2004
25290W        W68384  21.774  20.749   4.955  0.1381 -0.2355 -0.1241
25291W        W68385  23.412  17.629   6.699  0.1235  0.2901 -0.1185
25292W        W68386  24.129  19.930   4.852 -0.1797 -0.2492  0.1839
25293W        W68387  24.245  17.256   5.610 -0.3455  0.0795 -0.0125
25294W        W68388  25.206  19.110   5.326  0.0907  0.0367 -0.0651
25295W        W68389  24.037  18.224   5.672 -0.2077 -0.2817  0.0814
25296W        W68390  23.229  20.473   7.575 -0.0695  0.0485  0.1796
25297W        W68391  21.709  19.274   6.014 -0.1200 -0.1302  0.0411
25298W        W68392  24.693  21.941   6.568  0.2156 -0.1193 -0.2007
25299W        W68393  24.087  18.364   2.353 -0.0564  0.1015 -0.1545
25300W        W68394  24.539  18.163   5.300  0.1698 -0.1609 -0.3689
25301W        W68395  25.464  20.923   4.268 -0.2874  0.0904  0.0752
25302W        W68396  24.538  18.935   4.951 -0.0775 -0.0485 -0.0294
25303W        W68397  21.928  18.103   5.384  0.0144  0.0644  0.2164
25304W        W68398  25.472  18.988   7.608 -0.4071 -0.0066 -0.0451
25305W        W68399  22.619  18.589   3.601  0.1905 -0.0279  0.1528
25306W        W68400  24.353  19.317   6.658 -0.0912  0.0018 -0.0152
25307W        W68401  23.210  20.723   3.402 -0.0348 -0.1695  0.1329
25308W        W68402  23.848  22.003   4.090  0.0413 -0.4382  0.0508
25309W        W68403  24.273  19.065   4.230 -0.2576 -0.0910 -0.1188
25310W        W68404  22.307  18.432   5.494 -0.0270  0.1855 -0.0763
25311W        W68405  21.674  20.696   7.722  0.1418  0.0669 -0.1276
25312W        W68406  22.022  19.261   4.155 -0.0425  0.0095  0.0637
25313W        W68407  23.595  19.562   3.506  0.1201 -0.1459 -0.2437
25314W        W68408  23.480  19.872   5.242  0.0139  0.0529  0.1778
25315W        W68409  23.614  20.067   6.731  0.0477  0.1904 -0.0338
25316W        W68410  24.046  18.142   4.240  0.1802 -0.3404  0.2442
25317W        W68411  24.770  19.174   6.946  0.0997  0.0683 -0.2217
25318W        W68412  23.374  22.534   4.720 -0.0647 -0.0968 -0.0309
25319W        W68413  24.297  18.372   4.649  0.1870 -0.0488 -0.3495
25320W        W68414  22.044  22.306   5.502  0.2440 -0.2387  0.1396
25321W        W68415  20.702  19.517   6.175 -0.1276  0.0748 -0.1055
25322W        W68416  24.160  21.226   5.001 -0.0550  0.1283 -0.1707
25323W        W68417  23.840  20.235   5.151 -0.0638 -0.0779  0.1812
25324W        W68418  24.161  19.625   4.270  0.1484  0.0538 -0.0863
25325W        W68419  24.831  20.477   4.860  0.1852  0.1009 -0.0225
25326W        W68420  24.673  19.199   7.496  0.1807  0.1225 -0.1377
25327W        W68421  23.919  21.411   6.643 -0.3064  0.1019 -0.1011
25328W        W68422  22.524  20.209   5.287  0.1577 -0.1404 -0.2898
25329W        W68423  23.647  22.148   5.609  0.3076  0.1718  0.5503
25330W        W68424  25.471  21.053   5.246 -0.1867 -0.0848  0.0224
25331W        W68425  22.758  21.438   4.978 -0.2486 -0.2397 -0.1738
25332W        W68426  21.523  20.068   6.693 -0.2026  0.0461  0.2334
25333W        W68427  23.754  21.861   6.102  0.0545  0.2450  0.0837
25334W        W68428  23.490  20.589   6.439  0.2674 -0.2394  0.2138
25335W        W68429  23.112  18.357   4.302  0.0002 -0.0402  0.4667
25336W        W68430  23.569  21.814   3.108 -0.0591 -0.0526 -0.0472
25337W        W68431  21.389  20.513   6.491  0.0158 -0.0957 -0.3333
25338W        W68432  21.845  20.531   6.021 -0.0634  0.2488  0.1599
25339W        W68433  21.836  23.027   3.376 -0.1808 -0.0234  0.2073
25340W        W68434  24.091  22.126   3.572  0.0403 -0.4875 -0.3554
25341W        W68435  24.064  19.902   3.777 -0.4522 -0.0517 -0.1561
25342W        W68436  24.489  21.239   5.496 -0.0562  0.2477  0.0343
25343W        W68437  22.587  20.122   3.702 -0.2614 -0.0778  0.1909
25344W        W68438  22.223  20.490   5.033 -0.1388 -0.0796  0.0203
25345W        W68439  22.230  21.673   2.350 -0.0359 -0.0976  0.1056
25346W        W68440  24.654  22.036   4.086 -0.0096  0.2177  0.3568
25347W        W68441  21.686  21.128   5.284  0.3314  0.0100 -0.0719
25348W        W68442  25.400  20.642   6.834 -0.0087  0.1827 -0.2272
25349W        W68443  25.423  20.656   3.793  0.0390  0.1496 -0.2541
25350W        W68444  25.650  19.375   5.205  0.3087  0.1034 -0.0537
25351W        W68445  25.215  20.121   4.808 -0.0093 -0.0168 -0.0480
25352W        W68446  24.335  20.883   6.209 -0.1645  0.1316  0.2902
25353W        W68447  22.885  20.795   5.643  0.0570 -0.1020 -0.2232
25354W        W68448  22.905  18.558   2.880  0.3510  0.1448  0.1106
25355W        W68449  23.213  19.921   7.708  0.0020 -0.0288 -0.3084
25356W        W68450  25.080  19.106   5.926 -0.2628  0.0359  0.1522
25357W        W68451  22.156  21.095   7.768  0.0077  0.0160  0.1704
25358W        W68452  24.532  21.704   5.328  0.2102  0.1711  0.4345
25359W        W68453  21.335  19.301   2.998 -0.0093 -0.0933 -0.2025
25360W        W68454  23.302  19.804   4.554 -0.5181 -0.2893  0.0853
25361W        W68455  24.772  18.704   6.681 -0.3481 -0.0606 -0.1268
25362W        W68456  24.416  20.957   4.163 -0.4941  0.1035 -0.4847
25363W        W68457  23.188  19.062   5.044  0.2641 -0.3101  0.0287
25364W        W68458  23.302  21.860   5.900 -0.0353 -0.1011 -0.2516
25365W        W68459  20.866  20.752   5.646  0.1341 -0.4395  0.0728
25366W        W68460  21.806  21.437   6.495  0.2422 -0.4425  0.2707
25367W        W68461  22.635  18.542   4.197  0.0058  0.0469 -0.0211
25368W        W68462  24.658  19.253   4.563 -0.3605 -0.1311 -0.1480
25369W        W68463  22.700  18.808   6.615 -0.0436 -0.0239  0.2340
25370W        W68464  24.805  17.666   5.973  0.1823  0.0400  0.2453
25371W        W68465  21.208  18.883   3.836  0.1534  0.1979 -0.0139
25372W        W68466  23.745  19.114   4.989  0.0646  0.2273 -0.1824
25373W        W68467  22.853  20.036   4.961  0.0052 -0.3984  0.1660
25374W        W68468  21.256  19.540   6.475 -0.1604 -0.1632 -0.3031
25375W        W68469  23.725  18.817   3.811  0.1404 -0.1892 -0.0097
25376W        W68470  25.160  20.311   5.280 -0.0648  0.1919 -0.2628
25377W        W68471  24.698  19.762   1.950  0.0081  0.1615 -0.2622
25378W        W68472  25.017  20.709   7.140 -0.1275  0.2522 -0.0254
25379W        W68473  22.380  18.531   5.005  0.0887 -0.1452 -0.0205
25380W        W68474  23.005  19.390   4.240  0.1636 -0.1861 -0.0917
25381W        W68475  22.644  20.066   4.199 -0.1764 -0.1561 -0.0238
25382W        W68476  24.708  19.594   7.169  0.1608 -0.0254 -0.4203
25383W        W68477  23.973  22.723   6.841  0.1251 -0.0701 -0.3757
25384W        W68478  22.326  18.292   4.521 -0.0330  0.1514  0.0502
25385W        W68479  25.659  20.066   3.547  0.4379  0.1731  0.0720
25386W        W68480  25.526  19.911   5.236  0.0898 -0.1903  0.4938
25387W        W68481  23.870  22.335   1.970  0.1904  0.2115 -0.1396
25388W        W68482  24.786  21.067   4.493 -0.1361 -0.1623  0.1069
25389W        W68483  24.253  21.893   4.448  0.2206  0.1009  0.3519
25390W        W68484  21.109  18.012   5.754  0.0946  0.1903 -0.3469
25391W        W68485  24.129  20.538   5.554  0.1068 -0.1345  0.1563
25392W        W68486  25.295  21.590   6.113 -0.1729  0.1128  0.0743
25393W        W68487  23.384  19.317   4.523 -0.0898 -0.2400  0.2380
25394W        W68488  22.101  19.122   5.604 -0.1960 -0.1225 -0.3872
25395W        W68489  22.457  21.388   4.384  0.0107  0.0227  0.0786
25396W        W68490  25.720  19.669   6.708 -0.2815 -0.1559  0.2340
25397W        W68491  23.891  19.235   5.711 -0.1413 -0.2209  0.1178
25398W        W68492  22.534  21.733   1.969 -0.1348 -0.4702  0.0131
25399W        W68493  25.468  17.935   5.580  0.1151 -0.0297  0.0027
25400W        W68494  24.267  20.718   4.560  0.6307  0.0660  0.1904
25401W        W68495  21.680  21.303   7.643 -0.2600  0.0289  0.1400
25402W        W68496  22.075  20.192   3.907 -0.1359  0.1716  0.1466
25403W        W68497  23.883  20.497   6.717 -0.3131  0.0934  0.1655
25404W        W68498  23.715  21.407   4.837 -0.0792 -0.0303  0.1564
25405W        W68499  22.823  22.585   4.664  0.0387  0.0763 -0.0076
25406W        W68500  24.574  20.823   5.742 -0.3359  0.2191 -0.1922
25407W        W68501  23.738  20.194   5.657  0.3929  0.0771 -0.1018
25408W        W68502  24.675  21.343   4.000  0.1047  0.0968  0.0474
25409W        W68503  21.432  18.225   4.869 -0.0194  0.2586  0.3282
25410W        W68504  24.818  19.513   5.650 -0.1546  0.2020  0.1587
25411W        W68505  24.094  18.876   4.677  0.1495  0.0965  0.0776
25412W        W68506  23.975  22.234   6.424 -0.2336  0.1387  0.3912
25413W        W68507  22.139  20.969   4.106  0.0457  0.1239  0.0804
25414W        W68508  22.658  19.435   3.486  0.0749  0.2867 -0.0182
25415W        W68509  22.046  20.717   4.565 -0.3064  0.0756 -0.0126
25416W        W68510  24.528  18.255   6.455 -0.1164  0.2909  0.1607
25417W        W68511  22.756  19.863   6.854 -0.2782  0.2541 -0.4133
25418W        W68512  21.699  19.250   4.558 -0.1176  0.0998 -0.0728
25419W        W68513  22.205  18.220   3.582  0.0377 -0.1672 -0.4472
25420W        W68514  25.264  19.733   3.380 -0.1099 -0.1477 -0.0474
25421W        W68515  22.116  19.458   5.066  0.2379  0.3173 -0.1653
25422W        W68516  21.884  18.532   5.128 -0.0328 -0.1204 -0.2647
25423W        W68517  24.044  21.921   5.390 -0.2696  0.0269  0.2416
25424W        W68518  24.812  20.470   3.872  0.1349  0.1901 -0.1660
25425W        W68519  23.545  18.067   3.171  0.0509 -0.0242 -0.1643
25426W        W68520  26.275  21.089   7.065 -0.1214  0.0385  0.1329
25427W        W68521  21.915  19.837   2.809  0.0771  0.0437 -0.2344
25428W        W68522  23.944  19.963   7.513  0.0543 -0.0814 -0.1398
25429W        W68523  23.304  18.827   8.076 -0.0530 -0.1950 -0.0789
25430W        W68524  20.149  17.142   3.124 -0.0813 -0.2409 -0.3180
25431W        W68525  22.956  19.869   5.464 -0.0267  0.0133 -0.2800
25432W        W68526  23.629  22.733   4.367 -0.3062 -0.0037 -0.0348
25433W        W68527  23.951  21.374   2.152 -0.1290  0.0279 -0.1975
25434W        W68528  23.289  21.005   5.953 -0.2199 -0.0128 -0.0068
25435W        W68529  24.276  21.034   6.677  0.2422 -0.0968  0.1858
25436W        W68530  21.901  19.091   6.620 -0.1814  0.0876 -0.0940
25437W        W68531  24.425  20.210   4.569  0.2538  0.2983  0.1997
25438W        W68532  24.037  21.374   6.047 -0.0270  0.0897 -0.0960
25439W        W68533  26.045  20.735   3.706  0.0903  0.4031 -0.3001
25440W        W68534  25.515  19.323   5.718 -0.1805 -0.0787 -0.0156
25441W        W68535  24.687  19.854   3.414 -0.1955  0.1443 -0.0281
25442W        W68536  22.480  18.023   6.866  0.3561  0.0134 -0.2374
25443W        W68537  22.603  19.302   5.847  0.1302 -0.1688 -0.0892
25444W        W68538  25.054  20.167   5.965  0.0764 -0.1313 -0.1193
25445W        W68539  21.294  19.565   4.527 -0.0474 -0.2769  0.1385
25446W        W68540  24.843  18.545   5.293 -0.1469 -0.0758 -0.0912
25447W        W68541  24.465  22.422   3.754  0.0091 -0.0371 -0.0791
25448W        W68542  23.062  20.210   4.453  0.0059 -0.0743  0.0876
25449W        W68543  22.978  18.266   3.832  0.1047 -0.4113  0.2581
25450W        W68544  22.770  20.204   6.154  0.1502 -0.2034  0.1597
25451W        W68545  24.018  20.746   5.130  0.3222 -0.0943  0.2553
25452W        W68546  24.407  18.820   7.162  0.0153 -0.0870  0.3561
25453W        W68547  23.633  18.574   2.683  0.1276  0.0227  0.1253
25454W        W68548  25.115  20.082   3.780  0.0117  0.1023 -0.2878
25455W        W68549  24.189  23.059   7.146  0.0230  0.0894 -0.0564
25456W        W68550  24.458  22.261   7.856  0.2139 -0.0401  0.0069
25457W        W68551  23.673  21.863   6.623 -0.2170 -0.1507 -0.3676
25458W        W68552  24.231  20.675   7.121 -0.0255 -0.0545 -0.0748
25459W        W68553  22.789  17.801   4.843  0.1672  0.0774 -0.2299
25460W        W68554  22.853  19.275   4.689  0.1585 -0.1804  0.1562
25461W        W68555  23.321  21.123   4.810  0.1920 -0.0889 -0.0816
25462W        W68556  23.957  19.085   6.844  0.0370  0.2383 -0.1524
25463W        W68557  22.624  18.756   5.626 -0.0284  0.0175  0.2412
25464W        W68558  24.269  17.571   4.021 -0.3117  0.1804 -0.3011
25465W        W68559  22.549  20.632   6.047  0.0396  0.1772 -0.2333
25466W        W68560  24.007  21.789   4.907 -0.2725 -0.1790  0.0135
25467W        W68561  22.705  19.693   8.577  0.1333 -0.1392  0.2124
25468W        W68562  22.904  18.404   7.511  0.0455 -0.0144  0.0975
25469W        W68563  23.953  19.639   6.947 -0.0195  0.0120  0.0494
25470W        W68564  24.317  19.346   8.528  0.1657 -0.0234  0.0162
25471W        W68565  22.279  18.213   8.690 -0.2449 -0.3810  0.0345
25472W        W68566  23.540  21.606   7.606  0.2284 -0.0761 -0.1448
25473W        W68567  23.747  20.338   7.717 -0.0021  0.0946 -0.2120
25474W        W68568  22.937  21.576   8.232  0.2050 -0.0961  0.4437
25475W        W68569  25.140  20.245   7.127 -0.0552  0.1585 -0.2721
25476W        W68570  24.625  19.278   9.630  0.0021  0.0970 -0.1535
25477W        W68571  23.190  18.571   6.581  0.2324 -0.2529  0.1574
25478W        W68572  23.275  19.794   9.385  0.2576  0.1594 -0.1847
25479W        W68573  23.864  19.499   8.945 -0.0894 -0.1172  0.1676
25480W        W68574  21.299  19.313   7.724 -0.0975  0.1677 -0.5846
25481W        W68575  23.062  17.755  10.036 -0.0795  0.0369 -0.0323
25482W        W68576  23.112  19.556   7.403 -0.0643 -0.1035 -0.2849
25483W        W68577  23.719  20.996   6.862  0.0572 -0.0368  0.1810
25484W        W68578  23.294  17.585   9.554 -0.0552  0.1285 -0.0549
25485W        W68579  23.794  21.260   8.005 -0.0566  0.2075 -0.1149
25486W        W68580  20.775  19.194   5.772  0.0190 -0.1761  0.0290
25487W        W68581  20.354  19.701   9.760  0.3310 -0.1294 -0.2090
25488W        W68582  23.808  19.750   8.506 -0.0584 -0.3790  0.1757
25489W        W68583  23.360  17.114   9.734  0.1934  0.0368  0.0943
25490W        W68584  22.820  21.156   8.944 -0.2278 -0.3096  0.0216
25491W        W68585  23.321  20.928   8.912  0.1195  0.1268  0.5850
25492W        W68586  21.989  20.792   8.562 -0.0752 -0.0636  0.0655
25493W        W68587  21.801  19.480  10.455  0.0746  0.4393 -0.0906
25494W        W68588  22.033  20.414   8.928 -0.1685 -0.1274  0.1560
25495W        W68589  22.243  21.672   6.955  0.1053 -0.1637 -0.1093
25496W        W68590  25.196  20.258   7.653  0.0875 -0.4905  0.1907
25497W        W68591  22.621  21.316   7.822 -0.0904 -0.0095  0.0798
25498W        W68592  23.647  18.547   9.358  0.0002 -0.0087  0.0267
25499W        W68593  21.999  19.703   8.517  0.1586 -0.2571 -0.1852
25500W        W68594  23.535  22.972   7.960 -0.2999 -0.0942  0.0062
25501W        W68595  24.059  19.257   8.103 -0.2990 -0.3568 -0.1002
25502W        W68596  20.818  20.033   9.824  0.0218 -0.0293  0.1408
25503W        W68597  21.808  21.063   8.104 -0.0829 -0.0036  0.0197
25504W        W68598  24.294  19.545   7.766  0.2540  0.2660  0.0958
25505W        W68599  24.064  19.082   6.267 -0.1735  0.0505 -0.0117
25506W        W68600  25.432  18.407   8.331  0.2355  0.0114 -0.2521
25507W        W68601  22.840  18.036   8.921  0.0277 -0.0334 -0.2265
25508W        W68602  21.317  21.218   7.989  0.4255 -0.0182  0.1511
25509W        W68603  24.259  21.119  10.074  0.0516 -0.1801 -0.3285
25510W        W68604  24.714  20.203   7.609 -0.1926  0.1499  0.1856
25511W        W68605  24.564  17.791   9.808 -0.2016  0.1726  0.1128
25512W        W68606  22.323  21.501   8.985 -0.0167 -0.0613 -0.0909
25513W        W68607  22.824  18.653   8.914 -0.0439 -0.1086  0.2610
25514W        W68608  24.471  21.793   7.985 -0.1266  0.1527  0.1493
25515W        W68609  24.213  20.495   9.415  0.3501  0.0591  0.0101
25516W        W68610  24.172  21.874   6.710 -0.0614  0.0252 -0.2840
25517W        W68611  22.236  18.957   8.154  0.0749 -0.0290 -0.3005
25518W        W68612  22.316  17.569   6.490  0.0633  0.0550 -0.3392
25519W        W68613  24.723  17.608   8.751 -0.0754  0.2362 -0.0682
25520W        W68614  22.623  19.837   9.209  0.0481 -0.2347 -0.3044
25521W        W68615  23.810  19.416   9.422  0.0125  0.2016 -0.2336
25522W        W68616  24.023  18.757   5.661  0.2837 -0.0720  0.1252
25523W        W68617  23.662  18.957   9.636 -0.2115 -0.0413 -0.0331
25524W        W68618  23.845  17.729   9.739 -0.0530 -0.0627  0.1011
25525W        W68619  24.112  20.031   6.578  0.3964 -0.2065  0.1732
25526W        W68620  23.048  20.199   9.126 -0.3528  0.4303  0.0280
25527W        W68621  24.675  18.465   8.727  0.2293 -0.2280 -0.0599
25528W        W68622  25.174  19.518   8.143  0.4059 -0.0651  0.0163
25529W        W68623  22.642  20.320   9.423  0.1862 -0.0218 -0.1012
25530W        W68624  21.832  21.878   6.865 -0.0937 -0.1483  0.1957
25531W        W68625  21.533  19.219   9.419 -0.0129 -0.2406 -0.0062
25532W        W68626  22.374  20.139   8.386  0.2302 -0.0294  0.1039
25533W        W68627  24.593  16.981  10.248  0.3191  0.3168 -0.0204
25534W        W68628  23.400  20.050   8.640 -0.0173 -0.1239 -0.0514
25535W        W68629  23.266  19.193   6.744  0.0038  0.0138 -0.1815
25536W        W68630  24.768  17.702   8.199  0.0077 -0.0415  0.1155
25537W        W68631  21.663  19.743   7.803  0.3976  0.0142 -0.1158
25538W        W68632  24.801  23.009   9.450 -0.0611 -0.0342 -0.4830
25539W        W68633  24.838  19.149   8.559 -0.1798 -0.4126 -0.1111
25540W        W68634  25.574  20.169   6.837  0.0041  0.2082  0.0740
25541W        W68635  21.576  18.095   9.096  0.4329 -0.4347  0.3855
25542W        W68636  23.132  17.619   9.057 -0.0623  0.1975 -0.2301
25543W        W68637  23.048  19.707   8.973  0.2979  0.0112  0.0530
25544W        W68638  20.709  16.696   8.101 -0.3064  0.1953  0.1536
25545W        W68639  24.618  18.678   9.460  0.0934 -0.2766 -0.1325
25546W        W68640  23.911  20.133   8.149 -0.0045 -0.1449  0.3720
25547W        W68641  21.503  18.651   9.280 -0.1132 -0.1223  0.1267
25548W        W68642  24.022  23.248   7.936  0.0868 -0.0722  0.3075
25549W        W68643  23.860  20.857   8.798 -0.0789 -0.0041  0.0418
25550W        W68644  23.912  22.282   7.732 -0.4649 -0.1927 -0.2729
25551W        W68645  22.607  18.711   9.474  0.0075 -0.1530 -0.1536
25552W        W68646  21.282  17.937   8.018 -0.0262 -0.0766  0.0128
25553W        W68647  21.306  22.315   8.605  0.1460 -0.1211  0.0102
25554W        W68648  23.425  20.462   8.919  0.0833  0.1170 -0.2236
25555W        W68649  23.004  18.355   8.521  0.1641  0.2884 -0.1905
25556W        W68650  24.590  20.295   7.140 -0.0793  0.0715  0.0318
25557W        W68651  23.918  20.364   9.008 -0.1619 -0.1035  0.0386
25558W        W68652  22.966  19.029   9.717  0.0528 -0.0063  0.2416
25559W        W68653  22.627  17.354   9.238 -0.0851 -0.0187 -0.1422
25560W        W68654  22.069  19.155   8.720  0.3218  0.0306  0.2619
25561W        W68655  22.700  21.950   6.911 -0.1338 -0.1940  0.2046
25562W        W68656  20.630  21.221   7.894  0.2127  0.0252 -0.1443
25563W        W68657  21.603  18.984   8.452 -0.1661 -0.3477  0.0295
25564W        W68658  22.213  19.873   8.961 -0.1353  0.0776 -0.0550
25565W        W68659  25.098  18.923   9.137  0.2626  0.1714  0.3544
25566W        W68660  21.445  18.888   7.469  0.0363 -0.2832  0.0325
25567W        W68661  23.484  19.014   8.729 -0.1251  0.0977 -0.0497
25568W        W68662  23.818  18.779   7.334 -0.1445  0.1314 -0.2525
25569W        W68663  24.816  20.411   8.242 -0.0925  0.1646  0.0479
25570W        W68664  23.532  19.243   8.259 -0.0973  0.2221 -0.2828
25571W        W68665  22.864  17.861   9.415  0.2179 -0.1352 -0.2707
25572W        W68666  22.843  21.440   6.612  0.1406  0.1454  0.1897
25573W        W68667  23.367  20.439   9.439 -0.0067 -0.1142 -0.1816
25574W        W68668  24.117  20.182   7.052  0.3403 -0.0343  0.1242
25575W        W68669  24.897  21.494   7.829  0.1304 -0.0828 -0.1495
25576W        W68670  22.549  19.176   8.523  0.0356 -0.1233  0.0101
25577W        W68671  24.980  20.732   7.671 -0.3453  0.1410 -0.0421
25578W        W68672  24.846  17.907   9.140  0.1478 -0.2872 -0.2189
25579W        W68673  23.221  20.707   7.083 -0.3322 -0.0905 -0.0468
25580W        W68674  23.380  17.916   8.729  0.1976  0.3104 -0.0138
25581W        W68675  21.658  20.976   6.285  0.2061  0.3417  0.2853
25582W        W68676  24.451  18.242  10.223  0.0372  0.0147  0.3675
25583W        W68677  24.348  17.502   8.429 -0.0386  0.0627 -0.2167
25584W        W68678  24.201  19.010   7.656 -0.0776 -0.0843 -0.0102
25585W        W68679  23.310  19.865   8.214 -0.1176  0.2067 -0.2375
25586W        W68680  22.479  18.628   7.731  0.0486 -0.1527  0.0041
25587W        W68681  24.133  17.716  10.197 -0.1101 -0.1889  0.0938
25588W        W68682  21.906  18.449   9.062 -0.1317  0.0738  0.2541
25589W        W68683  25.380  21.258   8.401  0.0176  0.0663  0.3683
25590W        W68684  23.815  19.461   7.513 -0.1323 -0.0704  0.1362
25591W        W68685  22.337  21.122   7.054 -0.0348 -0.0601 -0.1296
25592W        W68686  22.382  19.542   8.215  0.1650 -0.2477 -0.2366
25593W        W68687  24.170  18.125   9.817  0.2573  0.2757 -0.0936
25594W        W68688  23.746  20.501   8.512 -0.2553  0.0604  0.0438
25595W        W68689  21.991  20.459   8.180  0.0408 -0.3674  0.2262
25596W        W68690  24.340  20.545   8.807  0.0228  0.2211  0.0178
25597W        W68691  21.932  19.359   9.149  0.1141 -0.1266 -0.0213
25598W        W68692  24.478  18.155   8.411  0.0018 -0.0403 -0.0205
25599W        W68693  21.198  20.873   9.328 -0.1590 -0.2907 -0.1935
25600W        W68694  22.103  19.315   7.180  0.2835 -0.2454  0.1041
25601W        W68695  20.883  19.053   7.651  0.0301  0.1403  0.0923
25602W        W68696  24.068  17.951   7.641  0.1337 -0.1870 -0.0356
25603W        W68697  25.984  19.963   7.065  0.0052 -0.0233 -0.1821
25604W        W68698  19.881  18.684   9.870  0.0187 -0.0612  0.1658
25605W        W68699  22.608  18.060   9.997  0.0865  0.3076 -0.4671
25606W        W68700  21.756  20.035  10.003  0.2924 -0.1707  0.0630
25607W        W68701  24.213  17.836   7.146  0.0914 -0.2919 -0.2965
25608W        W68702  21.961  18.474   7.654  0.1179  0.1159  0.0140
25609W        W68703  24.151  18.615   9.630  0.0656  0.1975 -0.1696
25610W        W68704  22.062  19.982   8.045  0.3370 -0.0738 -0.2567
25611W        W68705  21.919  19.342   8.089  0.0331  0.2471 -0.0908
25612W        W68706  22.496  19.975   9.717 -0.0233 -0.0009  0.0586
25613W        W68707  22.611  18.869   7.295 -0.3073 -0.1624  0.2136
25614W        W68708  23.560  19.184  10.148 -0.1313 -0.0273  0.1017
25615W        W68709  25.109  20.099   9.781 -0.0196  0.0152  0.0601
25616W        W68710  23.320  19.476   7.880 -0.1757  0.1205 -0.0526
25617W        W68711  22.857  18.492   8.042 -0.4369 -0.5287  0.1383
25618W        W68712  23.014  19.370   8.271 -0.2592 -0.0520  0.0102
25619W        W68713  25.084  17.884   9.955 -0.0513 -0.1594 -0.0277
25620W        W68714  21.846  19.251   9.859  0.0709 -0.0604 -0.0130
25621W        W68715  23.568  16.359   9.445 -0.1466 -0.0289  0.0288
25622W        W68716  21.136  19.312   7.271 -0.0043 -0.2818 -0.0135
25623W        W68717  21.321  18.434   9.998  0.0820 -0.2113 -0.1905
25624W        W68718  23.645  21.743   9.194  0.1068 -0.0974 -0.0340
25625W        W68719  23.217  18.816   9.362 -0.1646 -0.0391  0.3756
25626W        W68720  20.754  18.233  10.666  0.2012  0.3520  0.1145
25627W        W68721  21.537  20.224   7.967 -0.1486 -0.0750 -0.1222
25628W        W68722  20.315  20.843   9.947  0.0815  0.3203  0.0282
25629W        W68723  24.559  18.085   7.913 -0.0802 -0.3363 -0.1635
25630W        W68724  26.329  20.373   7.244  0.1890 -0.0670 -0.1376
25631W        W68725  23.626  19.082   7.725 -0.2691 -0.0076 -0.0791
25632W        W68726  24.243  18.229   8.902  0.1141 -0.2058 -0.1828
25633W        W68727  23.762  16.743   9.162  0.2032  0.0867  0.1327
25634W        W68728  24.884  20.498   8.816 -0.0373  0.0365  0.4095
25635W        W68729  23.535  17.404   8.709 -0.2017  0.1994  0.1026
25636W        W68730  23.042  18.078   6.667 -0.1388  0.1914  0.0469
25637W        W68731  23.150  21.336  11.849 -0.0350  0.0411 -0.0806
25638W        W68732  24.284  19.617   9.735  0.1051  0.0388  0.1685
25639W        W68733  23.544  19.878   7.241 -0.1730 -0.2586 -0.1036
25640W        W68734  25.847  19.300   8.440  0.0434 -0.0887  0.0202
25641W        W68735  24.200  20.120   9.855 -0.0588  0.0165 -0.3563
25642W        W68736  24.407  19.888   7.358  0.2022 -0.3211 -0.1683
25643W        W68737  23.416  19.185   7.227 -0.0956  0.2042 -0.0833
25644W        W68738  22.800  19.593   9.676  0.1458  0.1965  0.0349
25645W        W68739  23.798  19.659   7.955 -0.0553  0.1174  0.0564
25646W        W68740  23.006  18.832   8.446  0.0858 -0.1846  0.0037
25647W        W68741  24.433  21.049   8.728  0.0274 -0.2902 -0.0986
25648W        W68742  25.074  19.156   7.840  0.0992  0.0544 -0.1344
25649W        W68743  23.793  18.115  10.202  0.2855 -0.0982  0.0327
25650W        W68744  25.012  18.141   8.170  0.1273 -0.1988  0.1896
25651W        W68745  23.759  20.102   6.226 -0.1020  0.0675 -0.1720
25652W        W68746  21.020  18.840   9.161  0.3140 -0.0150  0.0761
25653W        W68747  22.379  18.360   7.309  0.1526 -0.0065 -0.0973
25654W        W68748  22.257  21.206   6.466  0.0062  0.0968  0.1162
25655W        W68749  25.371  19.651   7.720  0.0840  0.0040  0.2520
25656W        W68750  23.849  18.835   8.179  0.2446  0.1603 -0.1785
25657W        W68751  20.996  18.941   8.681 -0.0990  0.1818 -0.2119
25658W        W68752  21.826  17.487   7.257 -0.1567  0.4245 -0.3716
25659W        W68753  22.196  20.494   7.584 -0.0315 -0.2906  0.0266
25660W        W68754  23.324  19.263   9.184 -0.2135 -0.0577  0.1294
25661W        W68755  25.062  17.164   7.592  0.3701 -0.2908 -0.0182
25662W        W68756  21.297  20.209   9.672 -0.2868 -0.1058 -0.0151
25663W        W68757  24.901  18.056   8.660  0.1440  0.2120  0.2424
25664W        W68758  21.507  20.774   8.961  0.3891  0.0332 -0.1822
25665W        W68759  24.096  20.128   8.641  0.0627  0.2237 -0.1874
25666W        W68760  25.326  17.345   9.295 -0.2099  0.0614 -0.2544
25667W        W68761  24.545  20.212   9.121 -0.1704  0.3111  0.1855
25668W        W68762  22.024  18.927   9.400 -0.0646 -0.1455  0.1391
25669W        W68763  20.888  18.581   7.724 -0.1211 -0.0236  0.1320
25670W        W68764  24.544  18.949   8.010  0.0320 -0.0484  0.1212
25671W        W68765  23.309  19.413   9.784  0.0656 -0.3616  0.0982
25672W        W68766  24.585  20.579   7.841 -0.0985 -0.2823 -0.1232
25673W        W68767  22.968  19.036   7.616  0.0571  0.0555 -0.1062
25674W        W68768  25.185  21.049   8.018 -0.3288  0.1516  0.0091
25675W        W68769  23.399  19.922  11.560  0.0860  0.1457  0.0500
25676W        W68770  21.782  20.645   9.343  0.0228 -0.0966  0.3534
25677W        W68771  25.529  19.021   6.587 -0.2626 -0.1143  0.2243
25678W        W68772  24.594  21.033   7.067 -0.3305 -0.0845 -0.0455
25679W        W68773  22.815  20.865   7.959 -0.0198 -0.2390 -0.2391
25680W        W68774  24.187  19.920   5.939 -0.0547 -0.0509  0.1024
25681W        W68775  21.283  19.896  10.064 -0.1209 -0.1440 -0.0310
25682W        W68776  20.835  20.487   8.256  0.2781  0.2067 -0.1621
25683W        W68777  23.584  20.839   8.171 -0.1714  0.0075 -0.0940
25684W        W68778  22.548  20.264   8.905 -0.2433 -0.0394  0.1339
25685W        W68779  23.654  17.852   7.145 -0.0396  0.1223 -0.2327
25686W        W68780  25.530  19.174   8.082  0.0316  0.2113 -0.4288
25687W        W68781  25.471  17.984   7.970  0.0422 -0.3037 -0.0196
25688W        W68782  22.905  18.335   9.571 -0.2247  0.0372  0.0477
25689W        W68783  23.808  18.515   6.811  0.0634  0.2693 -0.1722
25690W        W68784  23.797  22.995   7.531  0.0866  0.3484 -0.1265
25691W        W68785  21.240  18.371   7.241 -0.0934  0.1335 -0.0673
25692W        W68786  23.340  19.551   8.598  0.1002  0.2704 -0.1294
25693W        W68787  24.189  18.649   9.143 -0.2538 -0.2179  0.1000
25694W        W68788  23.073  20.454   6.690  0.2029  0.1999 -0.0771
25695W        W68789  21.775  17.829   9.799  0.1686 -0.0022 -0.0973
25696W        W68790  21.815  20.162   8.592  0.0439 -0.2019 -0.0828
25697W        W68791  23.028  21.783   7.772  0.0643  0.2734 -0.0752
25698W        W68792  22.321  20.927   8.216  0.3750 -0.3050 -0.0514
25699W        W68793  21.423  18.424   7.774  0.3479 -0.2761  0.0903
25700W        W68794  24.649  17.146   8.589 -0.0856  0.1374  0.2518
25701W        W68795  21.955  18.647   8.556 -0.1228  0.0373  0.1510
25702W        W68796  21.762  18.859   7.939  0.0458  0.3106 -0.0457
25703W        W68797  24.799  18.586   8.258 -0.0606 -0.0232  0.0253
25704W        W68798  23.574  16.681  10.617  0.0762  0.2580  0.0174
25705W        W68799  23.247  16.069   9.993 -0.1094  0.0492 -0.0478
25706W        W68800  23.648  20.368   7.216 -0.5127 -0.2627 -0.0280
25707W        W68801  24.823  19.621   7.720 -0.0202 -0.0470 -0.1886
25708W        W68802  22.820  19.156   9.207  0.1008 -0.0074  0.0897
25709W        W68803  23.377  19.406   6.143  0.2235  0.1755 -0.4818
25710W        W68804  21.161  19.849   9.060 -0.4956  0.0440 -0.2403
25711W        W68805  22.775  19.843   8.098  0.0181  0.1595  0.2138
25712W        W68806  22.487  18.238   9.282  0.1313 -0.1482 -0.1793
25713W        W68807  25.811  20.097   7.752 -0.2755  0.1493 -0.0119
25714W        W68808  24.610  19.269  10.133 -0.0722  0.0884  0.2504
25715W        W68809  22.463  21.104   8.647  0.2845 -0.2050 -0.1742
25716W        W68810  24.862  21.175   7.439 -0.0231 -0.1633  0.0663
25717W        W68811  24.628  20.715   9.174  0.1897 -0.3153  0.1445
25718W        W68812  22.170  19.783   9.441 -0.0096  0.1953  0.0170
25719W        W68813  24.594  19.689   9.300 -0.0559  0.1072  0.2107
25720W        W68814  25.479  20.459   9.760  0.2407 -0.3253  0.2839
25721W        W68815  23.367  18.403   7.044 -0.2303  0.4245  0.0913
25722W        W68816  23.666  19.937   9.060 -0.0726 -0.0354  0.1444
25723W        W68817  22.375  19.274   9.481 -0.0893 -0.0508  0.0342
25724W        W68818  24.890  18.460  10.024  0.0343  0.0180 -0.0527
25725W        W68819  24.019  20.833   7.901 -0.2364  0.1453  0.1144
25726W        W68820  22.857  20.205   8.510  0.1278  0.2414 -0.0959
25727W        W68821  21.824  19.203   7.604  0.0737 -0.0289  0.0341
25728W        W68822  24.406  18.794   8.490 -0.1286  0.2545 -0.0646
25729W        W68823  23.486  20.960   7.688 -0.3623 -0.1422  0.1272
25730W        W68824  24.144  19.868   9.292  0.0149 -0.1520 -0.0957
25731W        W68825  22.796  19.894   7.345 -0.0065  0.1622 -0.2806
25732W        W68826  23.259  21.586   8.653  0.0795  0.0903 -0.0287
25733W        W68827  23.342  18.170   9.292  0.0097 -0.0306 -0.2906
25734W        W68828  25.181  18.883   8.234 -0.0804  0.1415 -0.1312
25735W        W68829  23.728  17.563   7.853  0.3536 -0.3628 -0.1295
25736W        W68830  23.251  23.003  11.825  0.1547 -0.2007 -0.1640
25737W        W68831  23.643  18.826   6.452  0.0779 -0.1338  0.0368
25738W        W68832  22.233  19.500   6.730 -0.0330 -0.4054  0.0784
25739W        W68833  20.704  21.484   9.921  0.1030  0.0534 -0.0517
25740W        W68834  20.991  20.409   9.298 -0.2441  0.2987 -0.2283
25741W        W68835  22.130  18.440   8.118 -0.0901  0.0790  0.2667
25742W        W68836  25.454  20.722   7.574 -0.1574 -0.1899 -0.1420
25743W        W68837  22.431  19.441   8.942  0.0228  0.1029  0.1257
25744W        W68838  21.047  18.084   7.591 -0.2838 -0.0614  0.1357
25745W        W68839  23.577  21.246   8.440  0.0927 -0.1051  0.3096
25746W        W68840  25.767  21.644   8.192  0.2465 -0.0933 -0.1192
25747W        W68841  22.446  17.775   9.041  0.0490  0.1242  0.3504
25748W        W68842  23.003  20.265   8.013  0.1092 -0.1324  0.1647
25749W        W68843  20.910  17.550   6.868  0.0664  0.0705 -0.0313
25750W        W68844  23.052  18.279  10.103  0.1974 -0.1471  0.1082
25751W        W68845  24.810  19.890   8.110  0.0384  0.1132 -0.3055
25752W        W68846  23.525  22.874   8.497 -0.2398 -0.0436  0.0759
25753W        W68847  21.378  19.453  10.218  0.1630  0.3776  0.1779
25754W        W68848  23.909  18.752   8.677  0.0977 -0.0669 -0.0183
25755W        W68849  24.320  20.014   7.864  0.1759 -0.1224 -0.0739
25756W        W68850  25.579  18.702   9.082  0.1271 -0.1276 -0.0648
25757W        W68851  24.835  17.156   8.051 -0.0270  0.2625 -0.2178
25758W        W68852  23.266  20.878   9.690 -0.0220  0.0716 -0.2370
25759W        W68853  22.342  16.922   9.202  0.1674  0.0881  0.0698
25760W        W68854  23.323  18.677   7.578 -0.1851 -0.1137  0.0708
25761W        W68855  25.254  20.403   6.381  0.1946 -0.3806 -0.1150
25762W        W68856  20.318  19.481  10.233  0.2571  0.1320  0.3386
25763W        W68857  23.727  18.246   8.882 -0.1204 -0.1386  0.1123
25764W        W68858  22.450  20.002   7.720  0.1076  0.2163  0.0909
25765W        W68859  22.707  20.416   7.569  0.0155 -0.2628 -0.2479
25766W        W68860  24.697  19.676   8.546  0.0203 -0.1503 -0.1310
25767W        W68861  23.996  21.335   8.815 -0.0723 -0.0350  0.2116
25768W        W68862  23.237  20.514   8.359 -0.3379  0.0219 -0.1110
25769W        W68863  24.043  22.063   9.345  0.0371 -0.3798 -0.1754
25770W        W68864  21.814  17.160   9.099  0.1786  0.0835  0.0316
25771W        W68865  22.497  18.638   8.472  0.2658  0.0608 -0.1041
25772W        W68866  20.815  19.550  10.019 -0.3404  0.0402  0.0212
25773W        W68867  24.343  19.795   8.868 -0.0258  0.1800 -0.1781
25774W        W68868  23.718  18.426   9.815 -0.2352  0.4347  0.0569
25775W        W68869  23.342  18.309   7.906 -0.0345  0.0949  0.2275
25776W        W68870  24.072  19.073  10.150  0.3139 -0.4373  0.1553
25777W        W68871  23.263  21.339   9.133  0.0835 -0.1169  0.1604
25778W        W68872  22.709  24.171   1.304 -0.1274  0.2084  0.1686
25779W        W68873  24.879  22.568  31.718 -0.1053  0.0769  0.3263
25780W        W68874  26.739  21.545   0.872 -0.1089  0.1270  0.0495
25781W        W68875  25.246  24.584   1.896 -0.4330  0.4761 -0.0230
25782W        W68876  21.613  22.335   0.745  0.1768 -0.1623  0.2220
25783W        W68877  24.163  26.574   1.659 -0.1693 -0.1791 -0.0581
25784W        W68878  21.977  22.126   2.593  0.1741 -0.0929  0.1038
25785W        W68879  23.809  24.289   2.675  0.2237  0.0491 -0.3310
25786W        W68880  23.824  24.737   2.442  0.1647 -0.1108  0.0575
25787W        W68881  24.221  24.624  30.481 -0.0481 -0.1110 -0.2775
25788W        W68882  22.638  23.687   1.279  0.1431 -0.1801 -0.0221
25789W        W68883  23.236  24.809   2.063 -0.1872  0.1628 -0.1580
25790W        W68884  23.844  23.062  31.494 -0.0063  0.0782  0.0118
25791W        W68885  19.953  22.662   1.049 -0.3137 -0.3395  0.0862
25792W        W68886  24.845  22.794   2.180  0.2675  0.0201  0.1974
25793W        W68887  21.677  24.289   0.683  0.2698 -0.2349 -0.1928
25794W        W68888  22.947  23.209   0.672 -0.0238 -0.2674  0.0890
25795W        W68889  23.655  24.699   0.615 -0.0456  0.0695  0.2131
25796W        W68890  25.481  25.330   0.986  0.0255 -0.1348 -0.2837
25797W        W68891  24.039  22.417   1.471 -0.0465 -0.1386  0.2547
25798W        W68892  25.295  23.420   3.926 -0.0673 -0.2846  0.2712
25799W        W68893  22.250  24.428  31.390  0.0813 -0.0512  0.1110
25800W        W68894  21.332  22.065   0.381 -0.1063 -0.2003 -0.1890
25801W        W68895  22.904  23.880   0.930  0.3202 -0.0821  0.0887
25802W        W68896  22.581  22.253   1.858 -0.1782  0.2096  0.0811
25803W        W68897  23.879  22.615   0.621 -0.0293 -0.2349 -0.0364
25804W        W68898  26.011  23.880   0.380 -0.0230  0.0108 -0.1289
25805W        W68899  23.358  25.210   0.825 -0.2011  0.0713  0.0111
25806W        W68900  25.017  25.275   1.295  0.4514  0.0475 -0.1238
25807W        W68901  24.136  23.232   2.825 -0.2633  0.1030  0.2407
25808W        W68902  22.091  24.748   1.287 -0.0899 -0.0248  0.0704
25809W        W68903  21.653  26.908   1.922  0.0553 -0.0069 -0.3195
25810W        W68904  23.599  26.285   1.685  0.0954 -0.4402  0.1859
25811W        W68905  25.136  24.420   1.388  0.3804 -0.0187  0.0390
25812W        W68906  24.035  25.178   3.679  0.2901 -0.0966 -0.0207
25813W        W68907  23.117  25.000   3.305  0.0199  0.0641  0.0608
25814W        W68908  23.386  24.412  31.578 -0.1388 -0.0008 -0.2385
25815W        W68909  21.902  24.793   2.683 -0.3241  0.1446  0.1739
25816W        W68910  22.074  25.463   3.096  0.2694 -0.2750  0.1280
25817W        W68911  23.232  22.521   1.128 -0.2222 -0.0390 -0.0489
25818W        W68912  24.509  22.969   2.465  0.1202 -0.0731 -0.2695
25819W        W68913  22.402  24.168  31.802  0.2114 -0.3908  0.0035
25820W        W68914  22.701  23.181   1.218  0.0321  0.2650  0.1424
25821W        W68915  22.713  24.083   3.514  0.0183  0.1338  0.1506
25822W        W68916  21.706  24.969   0.895 -0.1145 -0.0503 -0.0089
25823W        W68917  26.347  21.745   2.616  0.0481 -0.1299  0.1454
25824W        W68918  21.491  26.545   2.249  0.0754 -0.0720 -0.1690
25825W        W68919  23.503  24.092  30.665  0.0844 -0.0808 -0.0964
25826W        W68920  22.210  23.398  31.921  0.0471  0.0666  0.0821
25827W        W68921  22.924  23.681   0.444 -0.1246  0.0945 -0.1360
25828W        W68922  23.498  21.825   0.910  0.1561  0.2708 -0.3787
25829W        W68923  22.972  25.539   0.883  0.2284 -0.1864  0.1638
25830W        W68924  23.156  23.899   1.702  0.0086 -0.1950  0.2082
25831W        W68925  24.877  24.745   2.912  0.0903  0.1425  0.1528
25832W        W68926  24.056  24.010   1.039  0.0316 -0.1512 -0.1953
25833W        W68927  22.875  23.255   1.684 -0.0550 -0.1413  0.4095
25834W        W68928  22.365  25.668   1.500  0.2132 -0.0529 -0.1255
25835W        W68929  21.847  23.320   0.687  0.5305  0.1090  0.0514
25836W        W68930  23.399  24.979  31.641 -0.3258 -0.0874 -0.2502
25837W        W68931  25.540  25.042   0.554 -0.2687 -0.0677  0.1505
25838W        W68932  23.904  24.951  31.712 -0.0605 -0.0775  0.1417
25839W        W68933  22.775  22.258   0.149  0.1113  0.2004  0.4377
25840W        W68934  23.004  25.360   2.282 -0.1062 -0.3772  0.1968
25841W        W68935  23.416  23.287   1.779 -0.1060  0.0539  0.2559
25842W        W68936  20.898  22.271  31.676 -0.1053 -0.1897 -0.2896
25843W        W68937  24.123  24.172   3.158  0.2255 -0.2392 -0.1976
25844W        W68938  21.830  26.472   2.618 -0.0190  0.3499 -0.0159
25845W        W68939  24.922  23.431   1.247  0.4581  0.4971  0.1211
25846W        W68940  24.407  22.786   1.436  0.0108 -0.0635 -0.3926
25847W        W68941  24.344  26.030   3.514  0.0636  0.1620  0.0644
25848W        W68942  23.098  24.728  31.916 -0.0222 -0.0653  0.2745
25849W        W68943  25.286  22.770   1.922 -0.0172  0.0647  0.1227
25850W        W68944  24.836  22.780   1.130  0.3132 -0.0305  0.1715
25851W        W68945  22.040  25.072   0.092 -0.2081  0.1079 -0.0487
25852W        W68946  22.181  23.612   0.432  0.3251  0.2426  0.0463
25853W        W68947  24.904  25.722   2.409  0.2390  0.0862  0.0331
25854W        W68948  25.441  23.601  30.910 -0.2510  0.0596  0.5261
25855W        W68949  22.415  25.220   2.795  0.0356  0.3385  0.1476
25856W        W68950  24.184  22.323   2.351 -0.1208 -0.2908  0.2521
25857W        W68951  23.973  25.406   3.235  0.2541 -0.3534 -0.0509
25858W        W68952  21.243  24.987   0.509  0.0284 -0.0556 -0.2678
25859W        W68953  21.043  23.246   1.755 -0.1418 -0.0153 -0.1035
25860W        W68954  23.225  25.562   0.102  0.2535 -0.0715 -0.1973
25861W        W68955  22.570  21.362   2.954 -0.1117  0.1012 -0.1725
25862W        W68956  22.938  24.403   1.684 -0.2559 -0.1283 -0.0370
25863W        W68957  24.220  23.299  31.955 -0.3761  0.1655 -0.1788
25864W        W68958  22.087  22.246   0.711 -0.2454  0.0720 -0.2712
25865W        W68959  26.246  22.261   1.669 -0.0848  0.0301 -0.0349
25866W        W68960  22.976  25.200   1.281 -0.0704 -0.0766  0.2165
25867W        W68961  25.021  24.727   0.020  0.0914  0.1244 -0.1331
25868W        W68962  27.535  23.721  31.235  0.1803 -0.0994 -0.1692
25869W        W68963  26.019  25.174  31.166  0.2526  0.0117 -0.1040
25870W        W68964  23.664  22.059   1.412  0.3886 -0.0271  0.0926
25871W        W68965  22.801  24.341   0.327  0.1587 -0.0909  0.4659
25872W        W68966  23.893  22.861   1.908  0.0437  0.2589 -0.1964
25873W        W68967  21.997  23.915   2.254  0.2376 -0.1959  0.2615
25874W        W68968  25.187  23.142   3.448  0.2078  0.4308  0.0440
25875W        W68969  21.968  22.754   0.745 -0.0784  0.1896  0.5459
25876W        W68970  25.211  23.562   1.623  0.1251  0.1551 -0.0870
25877W        W68971  24.107  24.115  30.512  0.1328  0.0652 -0.1880
25878W        W68972  21.717  23.818   0.515 -0.0689 -0.1545 -0.0848
25879W        W68973  24.328  22.028   2.763 -0.1525  0.1567 -0.1744
25880W        W68974  24.737  25.856   0.625 -0.1516  0.6171 -0.0071
25881W        W68975  24.773  24.673   2.290  0.2718  0.0692  0.0831
25882W        W68976  24.977  24.530   0.888 -0.0027  0.0905  0.3475
25883W        W68977  22.478  22.550   0.795  0.2191 -0.1308 -0.1156
25884W        W68978  21.586  22.968   0.487  0.2291  0.0671  0.0959
25885W        W68979  22.808  24.990   0.829  0.0468 -0.0681 -0.1840
25886W        W68980  24.166  23.831   1.465 -0.0947 -0.0691  0.2681
25887W        W68981  23.937  24.897   0.214  0.1734 -0.2625  0.2670
25888W        W68982  26.092  26.649   1.231 -0.2238 -0.0261 -0.0831
25889W        W68983  24.055  23.010   1.070  0.2341  0.1243 -0.2482
25890W        W68984  21.823  23.313   1.507 -0.5527  0.1298  0.0535
25891W        W68985  24.566  21.498   2.230  0.1581 -0.0301 -0.0525
25892W        W68986  24.441  22.521   1.941 -0.1197  0.1542 -0.0418
25893W        W68987  23.951  24.273   1.774 -0.1373 -0.4054 -0.0814
25894W        W68988  21.059  22.478  30.792 -0.2598  0.1118  0.2418
25895W        W68989  24.013  26.102   1.349 -0.1988 -0.2617 -0.0872
25896W        W68990  21.898  25.807  30.619 -0.2506  0.0660 -0.2214
25897W        W68991  21.462  23.551   0.891  0.0239  0.0020 -0.2130
25898W        W68992  22.369  25.068  31.538 -0.0192  0.0200  0.2756
25899W        W68993  24.920  23.755  31.650  0.1487 -0.2672 -0.1645
25900W        W68994  22.395  23.468   2.020 -0.0795 -0.0444 -0.0339
25901W        W68995  26.074  22.492   2.193  0.0414  0.0484  0.1052
25902W        W68996  23.081  23.024   0.129  0.2518 -0.0432 -0.0519
25903W        W68997  22.419  25.585   2.280  0.1034 -0.0933  0.3711
25904W        W68998  25.381  23.048   0.429 -0.0789  0.2038 -0.4083
25905W        W68999  26.011  23.553  31.452  0.0626  0.0080 -0.0945
25906W        W69000  24.297  24.013   2.612 -0.0988 -0.1230  0.1341
25907W        W69001  24.846  23.749   2.346  0.0193 -0.1645  0.4611
25908W        W69002  25.402  24.392  31.042 -0.0986  0.2258  0.0543
25909W        W69003  23.358  23.540  31.425  0.1499  0.1034  0.0302
25910W        W69004  22.547  25.755   3.121  0.1068 -0.1471  0.1159
25911W        W69005  24.226  25.666   1.487  0.0848 -0.2200  0.3931
25912W        W69006  25.284  23.541   2.439 -0.0740  0.4966  0.4406
25913W        W69007  23.000  21.327  31.779 -0.2494  0.1907 -0.4158
25914W        W69008  25.850  24.688   0.370 -0.1269 -0.1516  0.1930
25915W        W69009  22.137  24.150   0.334  0.1222  0.0275  0.0916
25916W        W69010  23.898  24.614   3.401  0.1106 -0.1361 -0.2901
25917W        W69011  24.525  25.269   1.479  0.2307  0.3742 -0.1256
25918W        W69012  23.046  22.258   1.706 -0.0847  0.1335 -0.3277
25919W        W69013  22.548  23.982   0.611 -0.1441  0.1196  0.0382
25920W        W69014  23.734  23.485   1.193 -0.3756 -0.0764  0.4367
25921W        W69015  21.194  25.053  30.238 -0.0510  0.0049 -0.0888
25922W        W69016  25.783  22.095   1.397 -0.2969 -0.1854  0.1832
25923W        W69017  25.521  22.576   0.331 -0.1491  0.1217  0.1374
25924W        W69018  24.011  22.827   2.414  0.4123  0.0234 -0.1643
25925W        W69019  24.826  24.566   3.637 -0.1320  0.2035 -0.0730
25926W        W69020  25.225  24.811  31.133  0.1643  0.0002  0.1176
25927W        W69021  24.800  24.467   1.786  0.0881  0.1766 -0.2716
25928W        W69022  20.810  23.448  31.782 -0.2025 -0.0414 -0.0639
25929W        W69023  23.908  22.813   3.066  0.0101 -0.2545 -0.0499
25930W        W69024  23.119  23.263   3.003 -0.0508 -0.1213  0.1992
25931W        W69025  22.838  25.887   2.314 -0.3006  0.0834 -0.0488
25932W        W69026  24.931  24.510   4.385 -0.0810 -0.3176 -0.0433
25933W        W69027  24.671  24.281   1.237 -0.0281 -0.1692 -0.0183
25934W        W69028  23.058  21.782   1.811 -0.1095  0.2595  0.3409
25935W        W69029  24.399  23.447   0.386  0.3359  0.1140  0.0689
25936W        W69030  21.276  25.693   0.978  0.1423 -0.0644 -0.2818
25937W        W69031  23.006  24.876  30.909 -0.1347  0.0199 -0.4336
25938W        W69032  22.733  22.818   0.392  0.1180 -0.0268  0.2591
25939W        W69033  22.274  24.655   0.353 -0.1116 -0.0898  0.1078
25940W        W69034  23.464  24.640  30.671  0.1276 -0.0365 -0.2918
25941W        W69035  23.584  24.656   2.968 -0.1627 -0.0049  0.1474
25942W        W69036  22.552  25.402   1.118  0.1996  0.0802  0.2145
25943W        W69037  25.306  22.247   1.683 -0.1492 -0.0922 -0.0115
25944W        W69038  21.555  25.392   0.531 -0.2769  0.1116 -0.0179
25945W        W69039  23.276  24.036   0.647 -0.1262  0.0093  0.0899
25946W        W69040  20.336  22.177   1.359  0.0322  0.0590 -0.2405
25947W        W69041  24.638  23.315   0.823 -0.2078 -0.1047  0.0721
25948W        W69042  25.439  24.605   0.699 -0.0711  0.3861 -0.3053
25949W        W69043  21.974  23.097   1.089 -0.2304 -0.1087 -0.1862
25950W        W69044  24.730  21.819   1.083  0.0050 -0.1451 -0.3379
25951W        W69045  22.514  24.110   2.169  0.4291 -0.1810 -0.1372
25952W        W69046  23.642  22.962   1.386 -0.0685  0.0382 -0.0261
25953W        W69047  24.728  23.381  31.887 -0.0704 -0.1022 -0.1388
25954W        W69048  24.794  24.287   2.672 -0.2322  0.0288  0.3527
25955W        W69049  23.332  23.566   2.628 -0.2219 -0.0644  0.0579
25956W        W69050  21.632  22.944  31.605 -0.4338 -0.4119  0.0036
25957W        W69051  25.619  23.229   2.566  0.0903  0.1827 -0.0019
25958W        W69052  24.414  23.265   1.289 -0.1714 -0.1197 -0.0114
25959W        W69053  22.690  24.652   1.281  0.1612 -0.2257 -0.0110
25960W        W69054  23.422  24.323   1.695 -0.0027  0.0332  0.1900
25961W        W69055  21.705  23.437   0.152 -0.2293 -0.1104  0.1562
25962W        W69056  22.062  23.834  31.958 -0.0272 -0.1935 -0.2668
25963W        W69057  23.679  22.188   2.457  0.1278 -0.1738  0.0499
25964W        W69058  25.615  23.413   4.606  0.3023  0.0309 -0.0099
25965W        W69059  24.258  23.009   0.597 -0.2090  0.0921  0.1837
25966W        W69060  23.162  22.546   0.234  0.3007 -0.1923  0.1741
25967W        W69061  24.434  24.211   0.255 -0.1011 -0.1048  0.1615
25968W        W69062  23.554  23.183   2.313 -0.0181 -0.0353  0.2369
25969W        W69063  24.070  23.344   2.179 -0.1560 -0.0490  0.0366
25970W        W69064  21.542  24.560   3.013 -0.0291 -0.1148 -0.1402
25971W        W69065  23.713  20.663   3.197  0.2354 -0.1170  0.0567
25972W        W69066  25.308  24.899   1.162  0.1267 -0.3134  0.1265
25973W        W69067  24.633  23.269   2.980  0.1864  0.3215  0.2422
25974W        W69068  21.732  24.235   0.029 -0.1618 -0.1158 -0.2152
25975W        W69069  22.338  24.811   0.901  0.4397  0.0945  0.1387
25976W        W69070  23.472  25.300   1.332  0.3529  0.0183 -0.0757
25977W        W69071  25.318  21.530   0.422 -0.3826 -0.3238  0.1663
25978W        W69072  22.452  24.363   1.729  0.0458 -0.0862  0.0567
25979W        W69073  22.464  25.051   1.434  0.1722 -0.2473 -0.1369
25980W        W69074  21.658  25.443   1.116  0.2483 -0.0591  0.1736
25981W        W69075  25.204  22.232  31.521 -0.1411  0.0471  0.0859
25982W        W69076  23.513  26.128  29.830  0.0156  0.4155 -0.3579
25983W        W69077  23.073  22.895   1.434  0.1402  0.0359  0.1741
25984W        W69078  24.992  24.098   3.609  0.0161  0.0838  0.1640
25985W        W69079  24.770  25.299  31.856 -0.0200  0.4070  0.3652
25986W        W69080  24.410  22.882   3.938 -0.2816 -0.3017  0.0579
25987W        W69081  23.377  22.202   2.059 -0.2909 -0.0580  0.0422
25988W        W69082  25.472  25.573   3.080 -0.3308 -0.1537 -0.1324
25989W        W69083  21.885  22.398   1.155 -0.2309 -0.0261 -0.0415
25990W        W69084  24.113  25.644   3.924  0.2371  0.0364 -0.0884
25991W        W69085  24.160  23.818   2.046  0.0112  0.5835  0.0996
25992W        W69086  24.225  24.601   0.455  0.0962  0.0458  0.1097
25993W        W69087  22.132  22.111   0.091  0.1214 -0.1237 -0.0931
25994W        W69088  23.543  22.607   2.249  0.2215 -0.1434 -0.0944
25995W        W69089  24.937  25.237   2.522 -0.1685  0.0541  0.1236
25996W        W69090  23.532  24.366   0.927 -0.4098 -0.0860  0.2681
25997W        W69091  25.601  24.150   0.512 -0.0681 -0.0003  0.4167
25998W        W69092  22.317  23.168   1.574  0.2902 -0.0902  0.1293
25999W        W69093  24.431  23.337  30.511 -0.2982  0.2001 -0.0415
26000W        W69094  24.503  25.759   0.165  0.2325 -0.4436 -0.0787
26001W        W69095  24.760  24.791   1.253  0.2337 -0.0824 -0.0378
26002W        W69096  22.171  22.501   1.668  0.2526  0.0560  0.3238
26003W        W69097  24.493  24.951   2.581 -0.3019 -0.1546  0.1314
26004W        W69098  24.195  23.874   0.574 -0.0231  0.3235  0.1505
26005W        W69099  24.087  22.822   0.089 -0.2038 -0.1299 -0.0933
26006W        W69100  25.301  24.431   3.498 -0.0601 -0.2278  0.3123
26007W        W69101  22.620  23.013   2.170  0.1754  0.1205  0.0264
26008W        W69102  22.095  22.198   2.049 -0.0762 -0.0361  0.2902
26009W        W69103  26.391  25.419   4.194  0.2762 -0.2056 -0.0957
26010W        W69104  25.560  23.545   0.414 -0.0743  0.4728 -0.0292
26011W        W69105  25.383  21.403   3.313 -0.0345  0.1811  0.0740
26012W        W69106  24.687  23.823   0.609  0.1003  0.0526  0.5569
26013W        W69107  25.258  22.553  29.681 -0.0040  0.0468  0.0817
26014W        W69108  20.777  22.921   2.023  0.0714 -0.0986 -0.0734
26015W        W69109  24.513  23.982   3.449  0.1351  0.0711 -0.0700
26016W        W69110  21.991  21.629   0.054 -0.1002 -0.1412 -0.0202
26017W        W69111  24.943  22.642   3.927  0.0617 -0.2058  0.0444
26018W        W69112  21.394  25.171  31.481  0.3012  0.0853  0.3205
26019W        W69113  25.450  24.657   3.013  0.1974  0.2049  0.1056
26020W        W69114  24.295  24.544  31.354  0.0384  0.2920 -0.0384
26021W        W69115  21.345  23.160   1.328  0.3254 -0.2578  0.0955
26022W        W69116  24.338  24.539   1.543  0.0200 -0.0146  0.2328
26023W        W69117  24.139  24.416  31.787 -0.1286  0.2338  0.2460
26024W        W69118  23.220  23.536   0.888 -0.1285 -0.0735 -0.1127
26025W        W69119  23.074  23.214   2.251  0.0298 -0.0861  0.4100
26026W        W69120  25.978  23.858   3.093 -0.1628  0.1241 -0.1146
26027W        W69121  23.841  23.529  31.722  0.1725 -0.3375  0.1371
26028W        W69122  25.468  23.600   3.442  0.2041 -0.2354 -0.2032
26029W        W69123  21.023  23.532   1.097  0.2548  0.1608 -0.0053
26030W        W69124  23.856  21.200   1.272  0.2546  0.1123 -0.1874
26031W        W69125  23.217  24.871   1.589  0.0878 -0.0345  0.0883
26032W        W69126  22.705  23.201   2.652 -0.1186  0.1156 -0.1623
26033W        W69127  23.414  25.602   0.546 -0.2139  0.2595  0.0306
26034W        W69128  23.831  23.383   0.345 -0.1658 -0.0467 -0.0997
26035W        W69129  25.431  23.216   2.094  0.0563 -0.1534 -0.2601
26036W        W69130  24.901  23.973   1.766 -0.2843 -0.1240  0.5384
26037W        W69131  23.328  24.108   2.675 -0.0510  0.1176  0.2154
26038W        W69132  24.524  24.534   3.243 -0.2447  0.4341 -0.0959
26039W        W69133  24.248  24.709   2.078 -0.4890  0.0226 -0.3361
26040W        W69134  23.354  25.610   2.595  0.1209  0.3648  0.0013
26041W        W69135  24.443  24.138   1.696 -0.0007  0.1379 -0.2454
26042W        W69136  23.062  24.104   2.139  0.1640 -0.1568  0.1700
26043W        W69137  22.279  23.128   2.486 -0.1167  0.1028  0.0695
26044W        W69138  23.152  22.857   5.107  0.3638 -0.2796  0.0167
26045W        W69139  24.756  25.570   1.868 -0.1727 -0.1423  0.2908
26046W        W69140  22.582  23.280   0.313 -0.1223 -0.2001 -0.2300
26047W        W69141  21.710  24.750   0.386  0.0306 -0.0758 -0.1893
26048W        W69142  21.962  23.893   4.022  0.0340  0.0387 -0.2887
26049W        W69143  22.062  23.735   0.892 -0.1424  0.3314  0.1860
26050W        W69144  21.375  23.666   1.551  0.0624  0.3028 -0.1902
26051W        W69145  23.310  25.039   0.289  0.0857  0.0799 -0.0873
26052W        W69146  24.010  25.148   1.123  0.0481 -0.0573  0.0325
26053W        W69147  23.747  24.720   1.947  0.1648 -0.0347 -0.2626
26054W        W69148  23.278  24.313   0.153 -0.2081 -0.0052  0.0510
26055W        W69149  21.674  24.336   1.168 -0.0173 -0.2957  0.3765
26056W        W69150  20.340  23.467   0.310  0.1346 -0.0559  0.3114
26057W        W69151  25.220  26.013   0.546  0.0824 -0.2084 -0.0183
26058W        W69152  22.192  24.922   1.903 -0.0350 -0.3587  0.2135
26059W        W69153  25.278  24.832   3.858 -0.2845  0.0006 -0.1754
26060W        W69154  24.287  23.398  31.398 -0.0394 -0.0034 -0.1431
26061W        W69155  25.480  23.098   1.596 -0.0433 -0.1485  0.0595
26062W        W69156  25.385  24.565  31.511 -0.1447 -0.3408  0.0570
26063W        W69157  25.768  26.017   5.207  0.2833  0.2953 -0.1514
26064W        W69158  23.959  23.264   1.628 -0.0639  0.2589 -0.2937
26065W        W69159  23.644  22.560  30.690 -0.0381 -0.2346 -0.4670
26066W        W69160  22.021  23.082   2.006 -0.2708 -0.1557 -0.0678
26067W        W69161  25.675  23.305   3.121  0.1571  0.1965  0.1722
26068W        W69162  21.192  24.377   2.710 -0.0363  0.2388 -0.0708
26069W        W69163  23.864  25.597   0.865 -0.0457  0.0593  0.2645
26070W        W69164  21.815  22.751  31.091 -0.0503 -0.0066  0.0763
26071W        W69165  24.924  23.311   0.370 -0.1790 -0.0624 -0.0771
26072W        W69166  25.720  22.824   2.214  0.0473  0.0902 -0.1572
26073W        W69167  22.601  24.653  31.694 -0.3682 -0.0782 -0.3290
26074W        W69168  24.591  23.550   1.673  0.0264  0.4366  0.2539
26075W        W69169  22.627  25.600  31.979 -0.0509 -0.1669 -0.1058
26076W        W69170  23.539  25.188   1.923  0.1191 -0.2794 -0.1009
26077W        W69171  24.574  25.223   2.154  0.0729 -0.1627  0.0546
26078W        W69172  19.644  22.892   0.745  0.1065 -0.1177 -0.0173
26079W        W69173  25.251  24.111   0.840  0.1549  0.0725 -0.0304
26080W        W69174  23.104  22.601   2.992  0.1089 -0.1094 -0.0124
26081W        W69175  26.526  22.059   2.128  0.2798  0.1937 -0.0740
26082W        W69176  22.289  22.576   0.329 -0.0591  0.2100 -0.0455
26083W        W69177  24.751  25.292   0.489 -0.0831  0.2722 -0.2596
26084W        W69178  23.859  22.789   3.717 -0.1353  0.0549  0.1442
26085W        W69179  21.491  22.587   1.827  0.1747  0.1106 -0.2019
26086W        W69180  23.695  24.010  31.732  0.0410  0.0464  0.2085
26087W        W69181  24.068  23.415   3.860 -0.0893 -0.0473  0.1137
26088W        W69182  23.720  22.383  30.137  0.1048  0.0306 -0.0216
26089W        W69183  24.861  25.868   3.544 -0.0684  0.0001  0.0681
26090W        W69184  22.340  22.782   1.237 -0.0165  0.2316 -0.1768
26091W        W69185  24.630  24.485  31.784  0.2470 -0.1968  0.2240
26092W        W69186  23.197  24.548   1.206  0.2932 -0.1138 -0.1518
26093W        W69187  24.020  22.458   4.073 -0.0447 -0.1786  0.1869
26094W        W69188  23.521  25.042   3.715 -0.1517  0.1063  0.0295
26095W        W69189  22.546  20.696   0.969  0.0529 -0.0399  0.0390
26096W        W69190  25.457  26.649  31.225  0.3002 -0.1933  0.1518
26097W        W69191  24.982  24.236   0.437  0.2630 -0.0909  0.0795
26098W        W69192  21.120  25.180  31.036 -0.1121  0.0651 -0.2159
26099W        W69193  25.077  24.181   2.221 -0.1277  0.0229  0.1300
26100W        W69194  23.582  24.212   2.247  0.1854  0.2926  0.2396
26101W        W69195  22.474  22.148   2.417  0.1960  0.0311  0.0845
26102W        W69196  24.301  26.103   0.498  0.1717  0.2679 -0.1460
26103W        W69197  26.106  26.199   2.658 -0.1917 -0.2097  0.0812
26104W        W69198  24.185  23.475   0.917 -0.3503  0.5196 -0.1435
26105W        W69199  23.243  23.520   1.370 -0.1481  0.1190 -0.0112
26106W        W69200  21.142  24.305  31.829  0.3083  0.2733 -0.0952
26107W        W69201  25.171  23.500   2.955  0.0310 -0.2294 -0.0135
26108W        W69202  23.178  22.331   2.523  0.2472 -0.2241  0.3347
26109W        W69203  20.920  23.912   0.216 -0.3196  0.2191  0.3916
26110W        W69204  24.349  21.334   2.842  0.0268  0.4816 -0.0380
26111W        W69205  23.382  23.693   2.081  0.3123 -0.0568 -0.2619
26112W        W69206  22.448  24.684   2.669  0.2138 -0.2740 -0.0816
26113W        W69207  22.519  22.782  31.349 -0.1541 -0.1368 -0.0232
26114W        W69208  23.774  23.661   2.436 -0.2351 -0.1652  0.1399
26115W        W69209  24.734  24.607   0.481 -0.1459  0.0733 -0.0419
26116W        W69210  23.862  25.901   0.270 -0.0854 -0.0203 -0.1073
26117W        W69211  23.781  25.719   2.200  0.0191  0.0522  0.3138
26118W        W69212  23.982  23.865   0.077  0.1067 -0.0802 -0.0556
26119W        W69213  25.837  24.639   1.640  0.3523  0.1544 -0.0600
26120W        W69214  23.479  22.473   1.637 -0.1303 -0.0591 -0.2253
26121W        W69215  26.605  21.216   2.511  0.2921 -0.2488  0.2459
26122W        W69216  26.058  22.800   0.479  0.0647  0.1166  0.3485
26123W        W69217  21.721  24.646   1.768 -0.0532 -0.0506 -0.0328
26124W        W69218  22.527  21.740  31.867  0.1027  0.0747  0.1218
26125W        W69219  24.053  25.018  31.254  0.0744 -0.1438 -0.2519
26126W        W69220  22.775  24.582   2.188 -0.4962  0.1637 -0.0334
26127W        W69221  22.831  22.156   2.820  0.0920  0.1470 -0.0702
26128W        W69222  23.830  21.472   2.738  0.0576 -0.0101  0.0683
26129W        W69223  21.289  22.697   2.224  0.1638 -0.2660  0.0402
26130W        W69224  22.663  21.752   0.961 -0.1186 -0.1631 -0.3674
26131W        W69225  25.447  25.367  31.798 -0.1015  0.1953 -0.0781
26132W        W69226  22.379  22.113   1.160  0.2053  0.1245 -0.1048
26133W        W69227  21.079  21.384  31.607 -0.1471  0.2787  0.1709
26134W        W69228  24.109  25.119   1.687  0.3135  0.1466  0.3424
26135W        W69229  24.732  25.712   1.393  0.0583  0.4887  0.0322
26136W        W69230  23.710  23.745   0.771 -0.2846 -0.1832 -0.2056
26137W        W69231  25.060  25.285   3.859 -0.1912 -0.3217 -0.2799
26138W        W69232  20.793  23.343   0.340  0.0815  0.2355 -0.2135
26139W        W69233  24.909  23.143   3.850 -0.1319  0.2191 -0.1193
26140W        W69234  23.552  22.569   2.793 -0.4921 -0.3056  0.1264
26141W        W69235  20.183  22.428  31.371 -0.1672 -0.0638 -0.2052
26142W        W69236  24.460  22.451   0.359  0.1908 -0.0320 -0.0229
26143W        W69237  24.858  24.950   1.742  0.4313 -0.2669 -0.0574
26144W        W69238  25.170  25.486   0.635 -0.1394  0.1333 -0.0614
26145W        W69239  23.715  23.720   1.694  0.1082 -0.0484 -0.2675
26146W        W69240  23.069  24.421   3.018 -0.1417 -0.1780  0.0486
26147W        W69241  23.003  21.556   1.292  0.1062  0.0813 -0.4543
26148W        W69242  24.459  24.272   0.842  0.0771  0.1970  0.1938
26149W        W69243  22.910  24.877   2.696  0.0258 -0.2081 -0.1939
26150W        W69244  25.190  25.203   0.221 -0.1403  0.0369 -0.2334
26151W        W69245  25.242  22.682   2.503  0.4462 -0.0311  0.0950
26152W        W69246  24.509  24.973   0.220  0.0859  0.0205  0.1923
26153W        W69247  22.989  23.153   4.052  0.0731 -0.1950  0.0997
26154W        W69248  22.335  23.067   0.691 -0.0636  0.4231  0.0210
26155W        W69249  24.978  24.311   3.134  0.0961 -0.0946 -0.1346
26156W        W69250  22.955  22.350   0.663 -0.1468  0.2416  0.1100
26157W        W69251  25.756  21.199   1.752  0.1810  0.1969  0.0275
26158W        W69252  23.832  24.233   0.435 -0.0616 -0.1376 -0.1288
26159W        W69253  23.250  22.839   2.541 -0.0027  0.2631 -0.2953
26160W        W69254  24.211  24.044  31.481  0.0004  0.0502 -0.2057
26161W        W69255  23.177  22.845   1.914 -0.2736  0.1840 -0.2147
26162W        W69256  24.110  24.290   2.269  0.0524 -0.1392 -0.0450
26163W        W69257  25.085  24.853   3.350  0.0481  0.1690 -0.2712
26164W        W69258  23.718  22.456   1.103 -0.2477  0.0735  0.0943
26165W        W69259  25.808  23.656  30.500 -0.0211 -0.0620 -0.1311
26166W        W69260  24.323  24.511   2.749 -0.2066 -0.3344  0.1545
26167W        W69261  24.719  25.773   4.650 -0.1944  0.0119  0.0083
26168W        W69262  22.805  24.899   1.803 -0.1099 -0.2801 -0.1063
26169W        W69263  24.410  23.063   1.886 -0.0460  0.2686 -0.0618
26170W        W69264  22.777  21.527   0.265 -0.1304  0.0625 -0.0227
26171W        W69265  22.842  25.332   0.397  0.0333 -0.2300  0.0253
26172W        W69266  23.189  24.546   0.711  0.3074  0.0538  0.3864
26173W        W69267  24.976  23.093   1.600  0.0021  0.2479 -0.0281
26174W        W69268  22.495  23.533   0.821  0.0381  0.0432  0.5138
26175W        W69269  24.685  23.364  31.037  0.3466 -0.0828  0.1386
26176W        W69270  23.198  23.786   3.289  0.0826 -0.3552 -0.2035
26177W        W69271  24.669  25.087   3.635  0.0092 -0.0899  0.0149
26178W        W69272  22.404  24.606   7.431 -0.0323 -0.1877 -0.2858
26179W        W69273  21.820  22.151   3.647 -0.0723 -0.1728 -0.0000
26180W        W69274  24.503  22.501   4.741  0.1466  0.0387 -0.1807
26181W        W69275  25.463  24.283   4.421 -0.1957 -0.1460  0.3931
26182W        W69276  21.757  21.890   4.393 -0.0012  0.0284 -0.2444
26183W        W69277  23.711  25.242   5.390 -0.2611  0.1495 -0.0450
26184W        W69278  23.404  22.436   6.036 -0.3248  0.0632  0.1103
26185W        W69279  23.956  23.422   5.127  0.0827  0.0139  0.1902
26186W        W69280  25.103  25.498   5.540 -0.0650 -0.0685  0.1693
26187W        W69281  23.528  23.757   3.691  0.1683  0.1111 -0.2572
26188W        W69282  22.683  20.974   6.594 -0.1249 -0.3289  0.1874
26189W        W69283  23.021  23.925   7.109 -0.2221 -0.0993  0.0624
26190W        W69284  22.717  22.027   4.224 -0.3402  0.0081 -0.0552
26191W        W69285  22.535  22.592   6.019 -0.1502  0.0488 -0.0363
26192W        W69286  25.036  22.302   6.826  0.3222 -0.2893 -0.0962
26193W        W69287  23.021  23.619   4.272 -0.4069  0.0541  0.0802
26194W        W69288  22.531  21.702   5.414 -0.2207 -0.2111  0.0384
26195W        W69289  23.294  23.022   6.129 -0.0281 -0.1003  0.1843
26196W        W69290  22.732  24.884   4.487  0.5191 -0.2055  0.4093
26197W        W69291  22.660  21.113   6.063  0.1986  0.0174  0.0624
26198W        W69292  23.250  22.075   6.924  0.1586 -0.2988  0.2826
26199W        W69293  22.290  24.680   4.315 -0.2314  0.2927 -0.2304
26200W        W69294  23.659  23.244   2.841  0.0452  0.0054 -0.1391
26201W        W69295  21.348  24.252   4.619  0.1312 -0.4393  0.0531
26202W        W69296  21.271  23.480   7.445 -0.2007  0.2808 -0.3976
26203W        W69297  24.079  22.728   4.914 -0.3289  0.3460  0.1399
26204W        W69298  25.307  24.634   6.434  0.2394  0.0962 -0.0878
26205W        W69299  23.123  23.995   6.287  0.2416 -0.1192  0.0726
26206W        W69300  23.191  24.440   6.490 -0.1474  0.1932  0.0895
26207W        W69301  24.450  23.985   6.013 -0.1970  0.0053  0.0680
26208W        W69302  21.255  23.290   4.141  0.1133  0.1465 -0.2315
26209W        W69303  21.349  25.369   4.087 -0.2435  0.1223  0.0245
26210W        W69304  22.515  25.269   4.681  0.0567  0.1044  0.0481
26211W        W69305  25.567  25.354   5.862 -0.1273  0.3485 -0.0974
26212W        W69306  23.698  25.211   7.535 -0.2184  0.1339 -0.3010
26213W        W69307  23.446  25.896   8.430  0.0889  0.0238  0.1759
26214W        W69308  22.672  23.410   3.777  0.1751 -0.0801 -0.0518
26215W        W69309  24.246  25.358   6.619  0.4739  0.1178  0.0052
26216W        W69310  22.202  24.984   7.137  0.1358 -0.1032  0.1248
26217W        W69311  23.437  23.986   6.721  0.1691 -0.1503  0.0093
26218W        W69312  23.730  24.062   4.620  0.1748  0.3950 -0.1602
26219W        W69313  22.535  23.721   2.537  0.1451 -0.2880  0.1019
26220W        W69314  23.404  23.848   5.848  0.0953 -0.2130  0.2060
26221W        W69315  23.487  23.950   7.234 -0.0350  0.0713  0.3087
26222W        W69316  23.018  24.301   5.499 -0.1309  0.2832  0.0222
26223W        W69317  25.626  22.668   8.340  0.3271 -0.0927  0.0332
26224W        W69318  22.432  24.600   3.487 -0.0869  0.3681 -0.1732
26225W        W69319  24.937  23.702   3.299  0.1257 -0.3500 -0.0138
26226W        W69320  23.943  22.290   2.942 -0.2872 -0.2682 -0.4334
26227W        W69321  23.486  23.582   4.586  0.0917  0.0185 -0.1201
26228W        W69322  24.431  22.259   6.202  0.0959 -0.2307 -0.0829
26229W        W69323  21.887  25.804   3.602 -0.5299  0.0707 -0.0721
26230W        W69324  23.166  21.852   6.449 -0.2467  0.1812  0.2385
26231W        W69325  25.211  25.876   7.466 -0.2876  0.1952 -0.2232
26232W        W69326  23.193  23.733   5.391  0.2724 -0.0854  0.3566
26233W        W69327  24.118  24.272   6.242  0.0361  0.4196 -0.2723
26234W        W69328  22.296  25.122   7.647 -0.0604  0.1860  0.1041
26235W        W69329  21.698  23.455   4.297  0.1127  0.3734  0.1457
26236W        W69330  24.313  24.691   3.750  0.0215 -0.0284 -0.0411
26237W        W69331  25.255  24.972   5.559 -0.0098 -0.1958  0.0222
26238W        W69332  23.597  24.300   3.804  0.0184  0.0275 -0.0848
26239W        W69333  22.757  23.115   4.652 -0.0079 -0.0149  0.1654
26240W        W69334  21.646  23.351   7.889 -0.1692 -0.1443  0.1423
26241W        W69335  20.942  22.823   7.558  0.1460 -0.1061 -0.3912
26242W        W69336  22.683  22.768   1.724  0.0921  0.1772  0.3021
26243W        W69337  24.713  22.604   6.436  0.2747  0.1359 -0.2129
26244W        W69338  22.692  24.441   7.043  0.2606 -0.1065 -0.2026
26245W        W69339  25.925  22.622   6.183 -0.1381  0.2681 -0.1797
26246W        W69340  22.687  24.386   4.658  0.1230  0.1148  0.0056
26247W        W69341  24.119  23.579   6.230 -0.1287  0.1629 -0.0464
26248W        W69342  25.003  25.445   3.342  0.0196  0.0665  0.2287
26249W        W69343  23.418  23.363   5.205 -0.5302 -0.2331 -0.5127
26250W        W69344  24.951  22.927   6.829 -0.0838 -0.2545 -0.0874
26251W        W69345  22.820  24.200   2.564  0.0202 -0.0183  0.0157
26252W        W69346  22.619  24.503   4.044 -0.0521  0.2966 -0.0914
26253W        W69347  26.089  24.952   6.801  0.0973 -0.1022  0.1861
26254W        W69348  24.762  23.970   4.422 -0.2869  0.0471  0.1665
26255W        W69349  22.012  24.538   4.757  0.1960  0.2964  0.1559
26256W        W69350  22.589  21.707   6.239  0.0314  0.1761  0.2834
26257W        W69351  23.344  25.489   6.588  0.1096 -0.2821 -0.2897
26258W        W69352  22.600  24.873   3.107  0.0827  0.1790  0.1304
26259W        W69353  21.517  24.260   4.159  0.2769  0.0878 -0.2999
26260W        W69354  22.614  24.336   3.091 -0.2222  0.2875  0.1522
26261W        W69355  21.856  22.491   5.090  0.0055 -0.0455 -0.4210
26262W        W69356  22.824  24.769   6.713  0.0980  0.3049 -0.0847
26263W        W69357  24.331  23.789   4.047  0.0409  0.1337  0.1338
26264W        W69358  22.471  22.703   6.885 -0.5824 -0.2284 -0.2173
26265W        W69359  25.539  23.013   5.596 -0.1270  0.0299 -0.0238
26266W        W69360  22.708  23.837   4.614  0.2679 -0.0129 -0.0234
26267W        W69361  25.608  25.439   5.404 -0.2163  0.2500 -0.2215
26268W        W69362  25.865  24.326   5.570  0.0061  0.4007  0.3982
26269W        W69363  24.674  25.200   3.014  0.1895  0.1110  0.0760
26270W        W69364  22.352  23.666   5.957 -0.0425  0.1564  0.2348
26271W        W69365  22.152  23.336   3.953  0.0693  0.4007  0.0460
26272W        W69366  22.315  22.622   7.402 -0.0727 -0.0265  0.0369
26273W        W69367  22.032  22.495   6.123  0.0719  0.1201 -0.0451
26274W        W69368  24.448  24.387   6.730  0.3555  0.0369 -0.3230
26275W        W69369  22.855  22.476   5.218 -0.0488 -0.2291  0.0848
26276W        W69370  24.000  23.800   3.431  0.0867 -0.0829 -0.1807
26277W        W69371  22.958  22.663   6.305  0.2175  0.1213  0.0565
26278W        W69372  21.566  22.545   3.408 -0.1888 -0.0949  0.1433
26279W        W69373  25.953  21.554   5.471 -0.5100  0.0522  0.3746
26280W        W69374  24.263  25.084   4.124  0.3508 -0.3471  0.1580
26281W        W69375  26.306  25.605   6.563 -0.3339  0.3320 -0.1718
26282W        W69376  23.916  25.003   4.935  0.2066 -0.1535 -0.1410
26283W        W69377  22.842  21.775   5.780  0.0474 -0.1597  0.2494
26284W        W69378  23.237  21.402   3.325  0.0371 -0.0873  0.2295
26285W        W69379  21.501  26.037   4.950 -0.3152 -0.0292 -0.0089
26286W        W69380  23.910  24.669   6.020 -0.2874 -0.0233 -0.0528
26287W        W69381  21.700  23.613   4.780 -0.1821  0.0905  0.1911
26288W        W69382  22.995  24.640   4.956  0.1605  0.1908  0.1505
26289W        W69383  21.444  24.121   5.420 -0.1577 -0.2976  0.2647
26290W        W69384  22.564  24.058   7.385  0.2652  0.0537 -0.4022
26291W        W69385  23.791  22.245   6.916  0.0774  0.1258 -0.2473
26292W        W69386  25.431  24.343   6.947 -0.0642  0.3486  0.4139
26293W        W69387  23.316  23.549   6.346 -0.0169 -0.4376  0.1496
26294W        W69388  22.249  22.665   3.328 -0.3861  0.1042  0.1479
26295W        W69389  23.062  27.727   6.131  0.1349 -0.1456  0.1342
26296W        W69390  23.813  24.387   1.293  0.1488 -0.1029 -0.1353
26297W        W69391  22.310  23.403   3.083  0.0744  0.1002 -0.0119
26298W        W69392  22.599  24.393   5.225  0.2249  0.1102 -0.2509
26299W        W69393  25.683  23.154   4.137 -0.1956 -0.2260 -0.1687
26300W        W69394  21.241  22.283   6.505 -0.2057 -0.0269  0.1843
26301W        W69395  25.250  22.888   7.498  0.1103 -0.2778  0.2601
26302W        W69396  22.313  22.932   2.912  0.1191  0.0549  0.2133
26303W        W69397  24.239  25.089   8.283 -0.1778 -0.1133 -0.0162
26304W        W69398  23.506  22.280   4.319  0.0538 -0.2062  0.2624
26305W        W69399  25.906  24.099   4.064  0.1651  0.0533 -0.1993
26306W        W69400  24.695  24.828   6.596 -0.0785 -0.0199  0.0327
26307W        W69401  24.079  24.507   4.757  0.1387 -0.2477  0.2257
26308W        W69402  23.386  22.931   3.804  0.2162  0.1212 -0.0273
26309W        W69403  25.342  22.288   3.196 -0.2806 -0.3172 -0.3554
26310W        W69404  22.089  24.439   7.104  0.1658  0.0501 -0.1638
26311W        W69405  22.778  23.396   5.339  0.2461  0.1002 -0.1094
26312W        W69406  23.187  23.537   7.362 -0.2677  0.1565  0.1338
26313W        W69407  23.452  22.859   3.271 -0.1002  0.3454 -0.0886
26314W        W69408  24.181  25.979   5.297  0.0434 -0.2283  0.3283
26315W        W69409  21.852  24.846   5.705  0.0925 -0.4043 -0.0191
26316W        W69410  23.516  25.312   7.106  0.0435 -0.0652 -0.5843
26317W        W69411  24.191  25.485   5.077  0.3264  0.3566  0.0231
26318W        W69412  22.779  20.320   5.706 -0.1093 -0.1354 -0.2650
26319W        W69413  23.537  23.917   1.226 -0.2321  0.1597  0.2565
26320W        W69414  23.995  22.286   4.595 -0.0795  0.1351  0.0627
26321W        W69415  22.530  25.789   4.382  0.1880 -0.1149  0.0124
26322W        W69416  25.768  21.588   6.037  0.0409  0.1832 -0.0034
26323W        W69417  23.618  22.817   5.058  0.1636 -0.1535  0.0268
26324W        W69418  24.418  22.336   6.684  0.1460  0.0444  0.0770
26325W        W69419  24.314  22.271   7.191  0.0051  0.0492  0.0218
26326W        W69420  24.159  22.818   4.409 -0.1806 -0.0774 -0.0608
26327W        W69421  24.524  23.987   5.475  0.1667 -0.2511 -0.0547
26328W        W69422  22.536  23.574   4.225  0.3377 -0.0469 -0.0282
26329W        W69423  23.905  22.816   5.889  0.0682  0.0971 -0.1614
26330W        W69424  22.965  22.800   6.775  0.1979 -0.1290 -0.1359
26331W        W69425  21.492  25.164   7.349 -0.1038  0.1165 -0.2122
26332W        W69426  25.425  25.754   6.787 -0.1248  0.1048 -0.1177
26333W        W69427  25.447  24.613   5.316  0.1906 -0.3435 -0.0306
26334W        W69428  24.116  23.289   5.755 -0.2660  0.2703 -0.1596
26335W        W69429  22.473  23.076   4.166  0.1613 -0.0077 -0.0154
26336W        W69430  22.745  25.350   3.506  0.1148 -0.1737  0.2669
26337W        W69431  23.812  23.766   2.936  0.0399 -0.3069  0.0647
26338W        W69432  24.343  21.527   6.407 -0.1795 -0.2275  0.0699
26339W        W69433  23.713  23.920   6.321  0.0042 -0.0967  0.1013
26340W        W69434  22.911  24.569   3.428 -0.2798 -0.1643 -0.2980
26341W        W69435  24.601  24.476   6.222 -0.0394 -0.0143 -0.0088
26342W        W69436  22.341  23.122   3.498  0.3530  0.1277 -0.1220
26343W        W69437  24.919  22.516   5.516  0.1124  0.2483  0.0558
26344W        W69438  20.905  24.336   4.845  0.1234 -0.0158 -0.2368
26345W        W69439  24.272  22.997   3.511  0.2478 -0.3057 -0.0620
26346W        W69440  22.774  23.011   3.271  0.3550  0.0579 -0.3819
26347W        W69441  25.823  20.267   4.978  0.0776  0.5169  0.1847
26348W        W69442  25.998  25.688   3.908 -0.2152  0.2603 -0.0616
26349W        W69443  22.676  23.176   5.905  0.0146  0.1997 -0.0241
26350W        W69444  24.104  22.417   5.350  0.1130  0.0479  0.0743
26351W        W69445  22.349  24.920   5.867 -0.3986 -0.1255  0.2055
26352W        W69446  22.601  22.522   4.226 -0.1748 -0.0308  0.1093
26353W        W69447  25.313  22.992   4.401  0.1680 -0.1129  0.0717
26354W        W69448  25.620  23.620   6.460  0.0933  0.0711  0.0508
26355W        W69449  23.709  24.842   7.201 -0.0729 -0.0927  0.0666
26356W        W69450  21.556  23.056   1.852 -0.2608 -0.0091 -0.2913
26357W        W69451  25.989  23.541   6.779  0.0067  0.2239  0.0020
26358W        W69452  21.882  23.933   5.260  0.1630 -0.2387 -0.0519
26359W        W69453  21.655  24.326   5.012 -0.0890 -0.1410  0.0105
26360W        W69454  23.338  24.430   7.063  0.2749  0.3271 -0.0066
26361W        W69455  23.095  22.606   3.534 -0.2081  0.2044 -0.1251
26362W        W69456  22.234  24.084   4.904 -0.0664 -0.1737  0.1960
26363W        W69457  22.856  22.168   6.084  0.3147 -0.2184  0.1341
26364W        W69458  24.154  23.448   6.860  0.2212 -0.2548  0.2641
26365W        W69459  22.648  22.961   5.123  0.1520 -0.0662 -0.1045
26366W        W69460  22.204  22.060   5.118  0.0795  0.0252 -0.0536
26367W        W69461  23.109  21.613   7.294 -0.2019 -0.2557  0.1280
26368W        W69462  23.201  24.268   4.609  0.1958  0.1569 -0.2291
26369W        W69463  23.697  21.686   7.094 -0.3290  0.3403  0.3559
26370W        W69464  21.725  24.804   7.051 -0.1333  0.1285 -0.2203
26371W        W69465  23.189  20.885   5.231  0.2218  0.3771  0.0838
26372W        W69466  25.520  24.661   4.716  0.0173 -0.2502 -0.2507
26373W        W69467  23.430  22.372   6.556 -0.0229  0.2933  0.1199
26374W        W69468  21.652  23.373   3.774  0.1462  0.0407  0.0354
26375W        W69469  23.059  23.299   6.931  0.0887 -0.0811 -0.2878
26376W        W69470  22.171  22.760   4.386 -0.0811  0.3444 -0.1594
26377W        W69471  23.737  22.706   6.364  0.0792  0.0505 -0.0296
26378W        W69472  22.040  24.137   6.584 -0.0584  0.1993  0.1719
26379W        W69473  22.288  23.656   7.478  0.0666 -0.2333 -0.2298
26380W        W69474  25.577  23.095   4.997 -0.0068 -0.0031  0.0922
26381W        W69475  23.509  24.200   3.207  0.0407 -0.0039 -0.0832
26382W        W69476  24.045  22.316   5.868  0.1958  0.0663  0.0079
26383W        W69477  25.252  22.641   6.504 -0.2203  0.1459 -0.1174
26384W        W69478  23.789  23.116   4.673  0.0307 -0.0289  0.1150
26385W        W69479  24.897  22.453   7.611 -0.1002  0.3814 -0.3072
26386W        W69480  22.619  21.213   5.504 -0.1402 -0.0943 -0.0016
26387W        W69481  24.131  24.252   5.627  0.1611  0.1719 -0.4358
26388W        W69482  21.769  21.975   4.898  0.0516 -0.2767 -0.0859
26389W        W69483  23.644  25.224   8.039  0.1048 -0.3178 -0.2640
26390W        W69484  22.853  23.644   6.103  0.2376 -0.1002  0.0952
26391W        W69485  22.789  24.055   4.125 -0.1041 -0.1095  0.1333
26392W        W69486  22.855  21.483   4.090 -0.0107  0.0401  0.4193
26393W        W69487  22.789  23.870   5.604  0.0291 -0.0362 -0.2604
26394W        W69488  23.607  23.777   5.084 -0.4106 -0.0500 -0.1022
26395W        W69489  21.986  23.191   4.705  0.4007  0.1723 -0.2971
26396W        W69490  24.466  22.691   5.857 -0.1460 -0.0857 -0.1388
26397W        W69491  22.735  24.268   6.511 -0.0030 -0.1217  0.2922
26398W        W69492  23.398  23.428   4.050 -0.0937  0.3432  0.0252
26399W        W69493  22.505  23.504   4.934  0.3680  0.0132  0.2391
26400W        W69494  21.697  24.633   4.395 -0.1159  0.1536 -0.1611
26401W        W69495  22.740  20.689   7.083  0.1150 -0.1349  0.2481
26402W        W69496  24.136  23.730   5.468  0.0180  0.1472  0.1631
26403W        W69497  24.194  22.727   6.303  0.0196  0.0121  0.0394
26404W        W69498  23.940  23.198   6.476 -0.2426  0.0200 -0.1770
26405W        W69499  24.839  21.658   6.212 -0.1639  0.0333 -0.3679
26406W        W69500  23.301  23.395   7.799 -0.2015 -0.3204  0.1425
26407W        W69501  22.307  21.527   5.890  0.1780 -0.1530  0.2094
26408W        W69502  24.172  24.747   6.432 -0.0047  0.1290  0.2054
26409W        W69503  23.747  23.769   4.167 -0.0768  0.1065  0.1787
26410W        W69504  25.967  23.188   6.316  0.1109 -0.1838  0.0256
26411W        W69505  25.001  23.763   5.192  0.2421  0.2160 -0.0090
26412W        W69506  23.068  23.576   4.919 -0.0696 -0.4766 -0.1821
26413W        W69507  21.656  23.137   5.110 -0.1062  0.2358 -0.2840
26414W        W69508  25.435  23.097   6.685  0.2950  0.0925  0.0553
26415W        W69509  23.167  22.160   3.219 -0.0427 -0.0402 -0.0851
26416W        W69510  25.128  21.190   7.017 -0.1899  0.1181 -0.3014
26417W        W69511  23.395  24.984   4.177  0.0078  0.2151  0.0309
26418W        W69512  25.216  25.185   6.171  0.0206  0.2678  0.0629
26419W        W69513  22.226  23.235   5.636 -0.3533 -0.0610  0.0817
26420W        W69514  21.638  22.925   2.485 -0.2237 -0.1984 -0.0414
26421W        W69515  22.120  26.545   7.799 -0.0369  0.1851  0.2720
26422W        W69516  22.881  22.070   2.182  0.1224  0.1419 -0.2166
26423W        W69517  23.154  23.361   3.584 -0.1846 -0.1304  0.2908
26424W        W69518  23.801  24.364   7.386  0.1195  0.0587 -0.0971
26425W        W69519  26.109  23.739   8.058 -0.4494  0.0336  0.2817
26426W        W69520  23.705  21.862   2.006  0.0451 -0.1347  0.3233
26427W        W69521  24.475  22.723   6.998 -0.0448  0.0770 -0.0446
26428W        W69522  21.575  24.020   3.125 -0.1801  0.0718  0.1492
26429W        W69523  23.065  22.173   4.643  0.0647  0.0621  0.1272
26430W        W69524  22.187  25.549   6.255 -0.2490 -0.1101 -0.1339
26431W        W69525  22.298  22.444   6.539  0.4219 -0.0096  0.2047
26432W        W69526  22.811  23.932   5.116  0.0393  0.1619 -0.0655
26433W        W69527  24.001  21.371   5.474 -0.0080 -0.1547  0.0780
26434W        W69528  24.876  22.329   5.044 -0.0702 -0.1939 -0.0153
26435W        W69529  22.362  22.747   5.583  0.0619  0.1988 -0.1414
26436W        W69530  24.417  23.304   5.319  0.4683  0.5940  0.0930
26437W        W69531  24.589  23.975   7.002 -0.2506  0.2729 -0.0147
26438W        W69532  22.925  24.187   8.390 -0.2805 -0.0491 -0.0531
26439W        W69533  23.970  23.865   5.895 -0.0389 -0.2436  0.0825
26440W        W69534  24.462  24.861   5.043 -0.3379 -0.0536  0.2162
26441W        W69535  21.789  24.065   4.591  0.0200  0.0892 -0.1106
26442W        W69536  21.394  21.592   7.011 -0.1329  0.1033 -0.0865
26443W        W69537  23.143  23.910   9.381 -0.0984 -0.0022 -0.0095
26444W        W69538  23.553  24.475   4.296  0.1176 -0.1977 -0.1477
26445W        W69539  22.223  21.771   4.677 -0.0498  0.1079 -0.1368
26446W        W69540  23.107  24.306   3.817  0.0516  0.3435  0.1561
26447W        W69541  21.784  23.429   7.318  0.0091 -0.1533 -0.0664
26448W        W69542  22.583  23.234   6.776  0.0384  0.0638 -0.0010
26449W        W69543  21.920  23.632   3.278  0.1420 -0.2623  0.1235
26450W        W69544  24.596  24.975   4.571  0.0230  0.1447  0.6030
26451W        W69545  23.820  24.712   3.952  0.0639  0.0112 -0.1686
26452W        W69546  24.639  25.245   5.382 -0.1419  0.0692  0.0616
26453W        W69547  23.827  21.541   3.711  0.2171 -0.2877 -0.1426
26454W        W69548  22.870  25.135   5.002 -0.1382  0.1057  0.0297
26455W        W69549  22.058  24.463   2.297  0.1065  0.2386  0.1612
26456W        W69550  23.293  24.251   5.107  0.1714  0.2149 -0.0383
26457W        W69551  22.136  25.790   4.020  0.1566 -0.0217  0.2903
26458W        W69552  25.711  23.412   8.142 -0.1954  0.0067 -0.1901
26459W        W69553  25.491  22.638   4.777 -0.4759  0.1295 -0.1418
26460W        W69554  25.125  23.281   4.857 -0.1672 -0.0103  0.1467
26461W        W69555  25.082  23.545   4.439  0.0740  0.3702  0.2743
26462W        W69556  22.934  25.601   5.809  0.0665 -0.0725 -0.2853
26463W        W69557  23.708  23.560   5.587 -0.0247 -0.4084  0.1073
26464W        W69558  23.083  22.664   4.163 -0.3095 -0.0171 -0.2151
26465W        W69559  23.638  23.055   7.062 -0.1678  0.0914  0.5870
26466W        W69560  25.392  21.933   6.905  0.3502 -0.2617 -0.0921
26467W        W69561  21.288  24.369   5.869  0.0171 -0.1723 -0.1105
26468W        W69562  25.047  24.732   4.910 -0.1947 -0.0148  0.0430
26469W        W69563  22.521  22.156   4.662  0.4467  0.6228 -0.2445
26470W        W69564  22.700  23.609   7.175 -0.1815 -0.2719  0.0517
26471W        W69565  26.100  21.976   5.778 -0.3967 -0.2453  0.3145
26472W        W69566  24.410  23.502   2.520  0.0565  0.0062  0.1488
26473W        W69567  24.411  24.387   5.211 -0.1315  0.1781  0.0280
26474W        W69568  23.224  24.995   4.641  0.2208  0.0849  0.2006
26475W        W69569  22.363  24.803   5.406  0.1222  0.1089  0.3380
26476W        W69570  21.921  25.144   6.170 -0.4816  0.2602 -0.0595
26477W        W69571  23.748  21.490   4.250  0.0446 -0.0304 -0.2078
26478W        W69572  24.526  23.580   4.691  0.0184  0.0759  0.1556
26479W        W69573  23.468  22.579   7.146 -0.1819  0.3355 -0.2135
26480W        W69574  25.143  22.165   7.333 -0.1286 -0.4041  0.0719
26481W        W69575  22.728  24.129   6.012 -0.3672  0.1123  0.2058
26482W        W69576  24.449  22.027   4.949  0.0766  0.2004  0.0082
26483W        W69577  23.657  24.084   5.468 -0.2030 -0.1925  0.1161
26484W        W69578  22.337  23.343   6.357  0.0468 -0.1781 -0.2605
26485W        W69579  22.381  22.392   3.771  0.2784 -0.1492  0.1124
26486W        W69580  25.389  23.774   6.063  0.1431  0.1635 -0.1356
26487W        W69581  24.361  23.668   3.114 -0.2546  0.1500 -0.1066
26488W        W69582  24.138  25.781   7.567  0.2977 -0.2703 -0.0960
26489W        W69583  21.561  22.467   5.521 -0.1809 -0.0398  0.1661
26490W        W69584  23.314  24.004   4.162  0.0400  0.0501  0.0146
26491W        W69585  23.722  23.356   6.013 -0.0394 -0.1871 -0.3622
26492W        W69586  22.578  22.199   5.543 -0.2073  0.0133  0.1209
26493W        W69587  24.857  24.983   8.956 -0.2092 -0.4437 -0.0736
26494W        W69588  21.336  22.001   3.441 -0.1000 -0.5253 -0.0081
26495W        W69589  25.234  26.596   2.423 -0.0249  0.2689 -0.1835
26496W        W69590  25.428  23.960   5.410  0.2066  0.0475 -0.0020
26497W        W69591  22.214  25.384   3.608  0.1431  0.0659 -0.4440
26498W        W69592  23.992  24.215   4.176 -0.0764 -0.1648 -0.1893
26499W        W69593  23.990  22.975   5.384 -0.1229 -0.3132  0.0959
26500W        W69594  22.294  23.702   5.424 -0.1207 -0.0820 -0.0498
26501W        W69595  23.224  25.210   5.491  0.2971 -0.3663 -0.0558
26502W        W69596  25.548  24.325   6.020 -0.2550  0.0483 -0.2188
26503W        W69597  24.559  22.481   4.226 -0.4152  0.0856 -0.1405
26504W        W69598  21.757  22.923   5.512 -0.0253 -0.0788  0.0982
26505W        W69599  20.814  24.657   3.555  0.1280 -0.2788  0.0174
26506W        W69600  23.402  22.561   5.426 -0.1319  0.0632 -0.0150
26507W        W69601  24.474  23.080   4.761 -0.0374  0.0976  0.0628
26508W        W69602  23.075  24.855   3.801  0.0759  0.0114 -0.2321
26509W        W69603  25.088  21.607   6.697  0.1129  0.0915  0.0113
26510W        W69604  23.703  23.724   7.926  0.0399  0.1368  0.1528
26511W        W69605  23.184  24.695   8.550 -0.0084 -0.3185  0.1596
26512W        W69606  22.024  24.411   3.038  0.2966  0.0817 -0.3023
26513W        W69607  23.525  23.053   5.649  0.0372  0.2952 -0.0906
26514W        W69608  24.325  24.731   5.637 -0.0919  0.0771  0.2424
26515W        W69609  26.064  25.501   5.923  0.2010  0.0614  0.3845
26516W        W69610  25.066  24.688   6.030 -0.0001 -0.1961 -0.0390
26517W        W69611  22.902  22.778   5.610 -0.0692 -0.0138 -0.0874
26518W        W69612  24.582  23.511   5.737  0.0241  0.2308  0.0303
26519W        W69613  22.901  22.226   3.787  0.1123 -0.3232 -0.2988
26520W        W69614  24.061  24.019   5.066  0.0797  0.1444  0.1875
26521W        W69615  24.493  22.733   5.177  0.2001  0.0121  0.0560
26522W        W69616  22.248  23.655   8.526  0.4723  0.2398  0.3004
26523W        W69617  22.335  22.641   2.096 -0.0034  0.0861 -0.0098
26524W        W69618  22.925  23.780   2.871 -0.0850 -0.1755  0.0694
26525W        W69619  22.471  24.786   4.921  0.3552 -0.0839  0.0670
26526W        W69620  23.086  21.431   6.095  0.1070 -0.1454  0.1331
26527W        W69621  22.763  22.955   7.197 -0.0531 -0.1585  0.1506
26528W        W69622  22.103  24.125   6.085 -0.0016 -0.0165  0.1202
26529W        W69623  22.375  22.021   5.936  0.1116 -0.3600  0.0161
26530W        W69624  25.253  26.209   6.302  0.1303 -0.1695 -0.0497
26531W        W69625  22.242  21.967   6.529  0.0932 -0.0870  0.2571
26532W        W69626  21.714  21.533   4.731  0.2635  0.0957  0.0815
26533W        W69627  25.119  24.741   6.909 -0.0306 -0.1022  0.1241
26534W        W69628  25.045  24.198   6.101 -0.1986 -0.3529 -0.1500
26535W        W69629  23.549  21.679   5.358 -0.1715 -0.1136  0.4779
26536W        W69630  25.974  23.905   7.577  0.2414 -0.2240 -0.1962
26537W        W69631  22.543  25.036   2.334  0.1131  0.0131 -0.1454
26538W        W69632  22.505  23.927   8.131 -0.0538 -0.1004  0.0238
26539W        W69633  21.157  20.430   7.568 -0.0479  0.2604  0.0154
26540W        W69634  22.197  22.159   3.360 -0.1059 -0.0788  0.1248
26541W        W69635  23.322  22.997   7.434 -0.0232 -0.0467 -0.0392
26542W        W69636  23.505  24.533   5.620 -0.1073 -0.0633  0.3124
26543W        W69637  23.790  25.312   4.234 -0.0984 -0.1831  0.1615
26544W        W69638  23.903  23.888   7.003 -0.1369 -0.0099  0.0296
26545W        W69639  23.178  25.365   6.102 -0.0902  0.4299 -0.1930
26546W        W69640  21.395  22.424   6.050  0.1620 -0.5278 -0.0601
26547W        W69641  24.288  24.099   4.561 -0.4278  0.0333  0.0308
26548W        W69642  23.438  24.145   7.678 -0.0870 -0.0552 -0.0804
26549W        W69643  24.665  24.459   4.779 -0.1229  0.3073 -0.0399
26550W        W69644  25.466  21.970   5.845  0.0963  0.0208  0.1538
26551W        W69645  23.906  24.496   5.243  0.1367 -0.3906  0.1432
26552W        W69646  23.134  21.268   5.585  0.1189  0.1955  0.0022
26553W        W69647  23.225  23.593   8.597 -0.0859  0.0398 -0.1067
26554W        W69648  25.175  24.375   5.672  0.1071 -0.2079  0.0301
26555W        W69649  23.076  22.197   5.608 -0.2747  0.0344  0.0080
26556W        W69650  23.866  23.083   4.169 -0.0286 -0.0755 -0.0480
26557W        W69651  24.490  24.950   6.092  0.0169  0.5189  0.0745
26558W        W69652  23.142  23.377   5.693  0.2174 -0.2079 -0.2586
26559W        W69653  22.664  22.767   3.715 -0.2848  0.3622 -0.1850
26560W        W69654  22.920  23.697   6.610 -0.0671 -0.0461 -0.0310
26561W        W69655  24.882  25.195   5.843 -0.6973 -0.1250 -0.1944
26562W        W69656  24.845  23.937   6.424 -0.0971 -0.0427  0.3783
26563W        W69657  23.063  24.624   4.263 -0.4074 -0.0125 -0.3124
26564W        W69658  25.538  23.813   4.256 -0.0135  0.1165  0.0184
26565W        W69659  26.072  25.918   6.244 -0.2392  0.0840  0.0668
26566W        W69660  24.706  24.995   7.907  0.2918  0.0414  0.1134
26567W        W69661  23.626  25.516   5.809  0.0066 -0.2679 -0.2812
26568W        W69662  24.852  24.766   5.356  0.1798 -0.0660  0.0330
26569W        W69663  21.564  22.866   6.399 -0.0957 -0.0328  0.1019
26570W        W69664  22.140  23.689   4.461  0.0077  0.1918 -0.4960
26571W        W69665  23.180  21.863   4.163  0.2161 -0.3314 -0.0641
26572W        W69666  25.335  22.607   5.770  0.0753  0.0665  0.1303
26573W        W69667  22.202  21.753   4.187 -0.1701 -0.4064  0.0581
26574W        W69668  23.965  23.311   3.287  0.1794  0.0035  0.0777
26575W        W69669  23.227  24.809   7.436 -0.0709 -0.1052  0.0989
26576W        W69670  23.533  24.322   6.137  0.1028 -0.0506  0.2775
26577W        W69671  22.248  23.336  11.679  0.2574  0.0329  0.0387
26578W        W69672  22.235  21.778   8.556 -0.0363 -0.1791 -0.1690
26579W        W69673  25.214  23.297  10.218  0.4257  0.0617 -0.1424
26580W        W69674  25.167  23.480   6.554 -0.2260 -0.0419 -0.0198
26581W        W69675  21.108  22.267   9.996  0.2549 -0.1040 -0.3637
26582W        W69676  24.233  25.718   8.458 -0.0689 -0.0424 -0.0082
26583W        W69677  23.303  25.246   9.932  0.2732  0.1528 -0.1229
26584W        W69678  23.996  24.868   8.654  0.1224 -0.1329 -0.2921
26585W        W69679  25.196  24.941   7.789 -0.0256  0.1759 -0.0986
26586W        W69680  22.754  21.621   9.220 -0.2044 -0.0302 -0.0224
26587W        W69681  22.262  22.232   6.960  0.2592 -0.0646 -0.1586
26588W        W69682  20.996  22.684   9.773 -0.0878  0.0832 -0.3175
26589W        W69683  24.097  24.486   8.998  0.0324  0.4126 -0.1262
26590W        W69684  21.418  23.828   8.528 -0.0987 -0.1511  0.0099
26591W        W69685  22.557  21.190   9.383 -0.1093 -0.0193  0.2295
26592W        W69686  23.129  21.074   8.362  0.2844 -0.1377  0.3136
26593W        W69687  23.661  24.713   7.697  0.2382  0.0112  0.1596
26594W        W69688  23.007  21.985   8.965  0.1483 -0.5143  0.0962
26595W        W69689  23.282  23.882   8.152 -0.1274 -0.2591 -0.2833
26596W        W69690  20.752  22.816   8.092  0.1019  0.2468 -0.1452
26597W        W69691  22.476  20.741   9.015  0.0801  0.1380 -0.0599
26598W        W69692  22.156  24.224   9.607  0.0021 -0.2216 -0.1255
26599W        W69693  22.825  20.766   9.366 -0.0498  0.2806 -0.1015
26600W        W69694  23.551  22.755   9.456  0.0908  0.0439 -0.0523
26601W        W69695  23.728  26.302   8.135 -0.1390  0.1330  0.1115
26602W        W69696  23.369  25.487   8.730  0.1695  0.1567 -0.1347
26603W        W69697  21.780  24.260   9.283  0.0479  0.0673 -0.1707
26604W        W69698  20.969  23.907   8.796 -0.1493 -0.0385 -0.0717
26605W        W69699  21.763  22.054   9.413 -0.1622 -0.0856  0.2034
26606W        W69700  26.042  24.300   9.637  0.3075  0.2404 -0.0469
26607W        W69701  22.044  24.627   6.176  0.1054 -0.0177 -0.0025
26608W        W69702  20.816  24.384   8.863 -0.2275 -0.2798  0.0953
26609W        W69703  23.628  23.272  10.308 -0.0087  0.1085  0.1188
26610W        W69704  22.259  24.639   7.888 -0.3818 -0.0805 -0.0995
26611W        W69705  24.051  23.578   8.324 -0.0008  0.2112 -0.1114
26612W        W69706  21.537  24.559   9.616  0.0533 -0.3856 -0.0771
26613W        W69707  21.581  24.318   7.228 -0.1183  0.2698 -0.0913
26614W        W69708  22.887  22.265   6.561 -0.0605 -0.0035  0.0146
26615W        W69709  22.994  21.103   7.531  0.0309  0.0570  0.0066
26616W        W69710  25.531  22.933   7.911  0.1707  0.0285 -0.1005
26617W        W69711  21.318  20.670   8.098  0.1191 -0.1734  0.1121
26618W        W69712  21.718  26.230   9.748  0.0921  0.0798 -0.1602
26619W        W69713  24.170  23.600   9.095 -0.2089  0.1193 -0.1275
26620W        W69714  24.253  23.583   7.363 -0.2413  0.0733 -0.0860
26621W        W69715  24.227  23.306   8.692 -0.2442 -0.1396 -0.1489
26622W        W69716  23.417  25.407   9.392 -0.1787  0.2079  0.0503
26623W        W69717  21.659  22.307   8.186  0.1413 -0.3147 -0.0823
26624W        W69718  26.217  23.951   7.149 -0.0547 -0.1099 -0.2417
26625W        W69719  25.503  24.003   8.916 -0.2358  0.1024 -0.1497
26626W        W69720  24.471  24.035   7.564 -0.1504 -0.0873 -0.0983
26627W        W69721  22.600  21.683   7.437 -0.0496 -0.2285  0.1943
26628W        W69722  21.500  21.128   7.177  0.0138 -0.2546  0.3885
26629W        W69723  25.587  20.260   8.816  0.1837 -0.3344 -0.1005
26630W        W69724  23.404  23.247   9.359 -0.0983 -0.2109 -0.0290
26631W        W69725  24.258  25.070   9.633 -0.1992  0.2719  0.1702
26632W        W69726  26.069  23.468   8.497  0.0043  0.2537 -0.1304
26633W        W69727  23.733  23.347   8.675 -0.1882 -0.2491 -0.1959
26634W        W69728  23.720  22.397   8.259  0.2964  0.1899 -0.1049
26635W        W69729  22.892  22.624   7.585  0.1353  0.2246  0.2639
26636W        W69730  21.883  23.298   9.177  0.2120 -0.2291  0.2922
26637W        W69731  25.657  24.833   9.547  0.1793 -0.0593  0.1634
26638W        W69732  24.404  23.050   6.651 -0.0380  0.0271 -0.0053
26639W        W69733  23.827  23.049   9.135 -0.2246  0.1281 -0.1598
26640W        W69734  22.269  24.346   8.246  0.0222 -0.1652 -0.0454
26641W        W69735  22.678  22.641   8.998  0.0635 -0.1578  0.0715
26642W        W69736  22.420  22.372   7.802  0.2611 -0.1050 -0.2857
26643W        W69737  23.404  18.071   9.766 -0.2927  0.0654 -0.2672
26644W        W69738  23.448  23.672   9.060  0.1429 -0.0895  0.0674
26645W        W69739  24.324  21.207   7.958  0.5006  0.1543 -0.3591
26646W        W69740  23.976  22.594   9.292  0.0288  0.0932  0.1185
26647W        W69741  20.501  24.143   8.370  0.0490  0.1442  0.1495
26648W        W69742  24.749  24.101   8.379 -0.0655 -0.0924 -0.0820
26649W        W69743  23.730  23.508   7.481 -0.1438 -0.1768  0.0353
26650W        W69744  24.944  24.348   6.658 -0.1661 -0.2193  0.1104
26651W        W69745  21.484  21.740   8.690  0.1012 -0.0531 -0.3738
26652W        W69746  21.840  21.541   9.470 -0.2824 -0.0402  0.3927
26653W        W69747  24.036  17.245   9.987 -0.2417  0.0960 -0.0654
26654W        W69748  21.613  19.830   8.289  0.1012 -0.1656 -0.0432
26655W        W69749  23.286  22.245   9.710  0.0634 -0.0261 -0.2975
26656W        W69750  21.371  21.693   9.336 -0.3576  0.0618 -0.0401
26657W        W69751  21.550  23.847   7.666 -0.0668 -0.1301 -0.0343
26658W        W69752  22.729  24.857   7.727 -0.1427  0.0089  0.1007
26659W        W69753  24.367  26.174   9.386  0.0609 -0.2587  0.1303
26660W        W69754  24.567  23.646   8.300  0.1250  0.1177 -0.2404
26661W        W69755  20.926  21.181   8.852  0.0264 -0.3797  0.3883
26662W        W69756  23.050  22.919   7.951 -0.0846  0.1183  0.0411
26663W        W69757  22.977  23.432   9.121 -0.0812  0.2899 -0.0747
26664W        W69758  23.821  24.197   8.122  0.1708 -0.0991  0.0557
26665W        W69759  22.876  22.453   7.088 -0.0647  0.1407  0.0698
26666W        W69760  25.308  25.721   9.464 -0.0035 -0.0408  0.2068
26667W        W69761  23.524  23.389   8.270  0.3614  0.0478  0.0078
26668W        W69762  23.107  22.454   9.172  0.0291 -0.2727  0.2741
26669W        W69763  22.806  23.523   8.030 -0.0073  0.1771  0.2005
26670W        W69764  22.168  21.469   7.435  0.3665 -0.0996 -0.1401
26671W        W69765  24.301  24.887   9.106 -0.1489 -0.2490 -0.0537
26672W        W69766  22.768  24.897   7.219 -0.0537  0.1334 -0.0577
26673W        W69767  20.751  23.585   9.249  0.1196 -0.3682 -0.2838
26674W        W69768  22.629  23.591   9.438 -0.0620  0.0329  0.1097
26675W        W69769  24.929  22.386   9.089 -0.0308  0.0233  0.1049
26676W        W69770  21.907  22.528   7.684 -0.0960  0.2248  0.3087
26677W        W69771  24.151  22.846   8.868 -0.0172 -0.1036 -0.0123
26678W        W69772  25.774  22.154   7.681 -0.0354  0.3773 -0.0507
26679W        W69773  24.647  24.538   7.629  0.1340 -0.0413  0.0792
26680W        W69774  24.795  23.117   7.313  0.3515  0.1211 -0.1525
26681W        W69775  24.817  23.242   8.466  0.0020 -0.0550 -0.1220
26682W        W69776  23.666  23.897   8.490 -0.2510 -0.2225 -0.1039
26683W        W69777  24.300  24.505   9.444 -0.0149  0.3260 -0.2540
26684W        W69778  23.350  21.474   6.788 -0.1867  0.3047 -0.1758
26685W        W69779  25.471  25.776   8.637 -0.2172  0.1030 -0.0343
26686W        W69780  20.840  26.067   9.707 -0.0917  0.2704 -0.2006
26687W        W69781  23.669  24.482   8.626 -0.0162 -0.1023  0.1688
26688W        W69782  23.759  23.184   9.743 -0.1077  0.0968 -0.3003
26689W        W69783  24.002  22.979   8.410  0.1444  0.1195  0.1166
26690W        W69784  23.825  21.254   9.462  0.1604 -0.1724  0.2664
26691W        W69785  22.143  26.007   7.702 -0.0413  0.0027  0.2492
26692W        W69786  25.534  22.992   9.753  0.0968  0.1769 -0.0409
26693W        W69787  22.683  22.085   9.411 -0.3921 -0.4592 -0.0600
26694W        W69788  24.506  24.610   8.140 -0.3401 -0.0033  0.0620
26695W        W69789  23.293  24.119   8.771  0.0617 -0.0715 -0.2848
26696W        W69790  21.488  22.182   7.687 -0.0021  0.1282  0.0819
26697W        W69791  21.062  18.851  10.160  0.1695 -0.2237  0.3772
26698W        W69792  22.990  26.187   8.858 -0.1440  0.1532  0.0465
26699W        W69793  24.148  24.415   7.813  0.0746  0.0906 -0.1426
26700W        W69794  23.858  20.770   7.396 -0.0092  0.2197  0.0604
26701W        W69795  23.334  24.408   8.146  0.1194  0.2692 -0.3654
26702W        W69796  22.542  23.202   8.306  0.2457  0.0302 -0.0896
26703W        W69797  22.382  20.767   9.566  0.3382 -0.0804  0.2445
26704W        W69798  22.916  24.427   8.863 -0.1604 -0.1824 -0.0092
26705W        W69799  22.110  22.614   8.141 -0.2143 -0.3511  0.1117
26706W        W69800  24.824  27.471   9.438 -0.4248  0.1831 -0.0965
26707W        W69801  21.476  23.823   9.070 -0.0208  0.1561  0.1936
26708W        W69802  24.853  21.259   8.281  0.0882  0.0843 -0.2649
26709W        W69803  22.364  24.064   9.214 -0.2512 -0.0332  0.4651
26710W        W69804  22.259  23.113   7.127 -0.1569  0.1568  0.4724
26711W        W69805  21.558  22.953   8.891 -0.4620  0.1603 -0.0273
26712W        W69806  24.422  21.470   8.440 -0.0357 -0.1822 -0.1972
26713W        W69807  24.838  22.975   7.799 -0.0648  0.3053 -0.0033
26714W        W69808  21.989  20.693   9.795  0.0826 -0.0904 -0.3821
26715W        W69809  22.666  20.676   8.459 -0.0814  0.0411  0.1943
26716W        W69810  20.582  26.572   9.448  0.2619  0.1308 -0.2195
26717W        W69811  24.429  22.652   7.559 -0.1259  0.2081 -0.1139
26718W        W69812  21.237  20.918   7.538  0.1055  0.0312 -0.0928
26719W        W69813  23.828  22.408   9.752  0.0699 -0.1096 -0.1308
26720W        W69814  21.944  21.238   8.703  0.0836  0.1262 -0.0855
26721W        W69815  21.678  25.019   9.667 -0.2546  0.0519  0.1307
26722W        W69816  22.824  25.300   8.398  0.0981  0.0831 -0.0156
26723W        W69817  23.468  22.590   7.672 -0.0832 -0.0433 -0.2891
26724W        W69818  21.549  24.583   8.408 -0.0065 -0.0535 -0.3520
26725W        W69819  24.032  26.690   8.508 -0.1365  0.0745 -0.1116
26726W        W69820  22.198  22.440   9.392  0.4254 -0.0966  0.0295
26727W        W69821  21.815  21.644   8.342 -0.1818  0.2469  0.0069
26728W        W69822  24.458  23.144   8.141  0.2415 -0.0668 -0.1187
26729W        W69823  25.253  23.919   9.621  0.2957  0.1766 -0.1243
26730W        W69824  24.508  23.182   9.070  0.0807  0.1671  0.2665
26731W        W69825  21.516  20.570   8.513 -0.3213  0.1693 -0.4264
26732W        W69826  24.220  24.275   7.155 -0.2201  0.0220 -0.2935
26733W        W69827  22.787  23.907   8.939  0.1367 -0.1118  0.0844
26734W        W69828  22.269  25.596   9.912  0.1677 -0.0449  0.0332
26735W        W69829  21.208  23.457   8.854  0.3776  0.0846 -0.0815
26736W        W69830  22.725  22.586   9.598 -0.2030  0.2420 -0.3677
26737W        W69831  21.402  22.967  10.006 -0.2447 -0.2295 -0.0974
26738W        W69832  21.789  23.606   8.284  0.0905  0.1243 -0.0025
26739W        W69833  21.738  28.007  10.304 -0.2236  0.0168 -0.1648
26740W        W69834  25.031  22.201   8.041  0.0792  0.1238  0.2391
26741W        W69835  24.841  23.673   7.386 -0.3229  0.0294 -0.1777
26742W        W69836  23.155  21.901   9.394  0.3049 -0.3359  0.0706
26743W        W69837  25.669  23.286   7.112  0.0361 -0.0696  0.0277
26744W        W69838  23.799  19.015   9.160  0.2092 -0.1749 -0.0331
26745W        W69839  24.683  25.537   8.850 -0.0702 -0.0145  0.1175
26746W        W69840  23.093  22.586   8.672  0.1470  0.2589 -0.0180
26747W        W69841  22.545  22.168   7.345  0.3358  0.1213 -0.3121
26748W        W69842  23.955  22.230   8.823 -0.1210 -0.0664  0.1375
26749W        W69843  23.363  24.633   8.978  0.0649 -0.2185 -0.0258
26750W        W69844  22.768  24.351   7.898  0.0767 -0.1361  0.0269
26751W        W69845  24.145  24.037   9.305  0.0156  0.2618 -0.1893
26752W        W69846  22.049  23.647   9.510 -0.0874  0.4272  0.0359
26753W        W69847  25.199  22.891   8.585  0.0387 -0.0854 -0.0073
26754W        W69848  24.916  23.493   6.081 -0.1233 -0.0716 -0.1313
26755W        W69849  22.146  22.804   9.059 -0.2394  0.2016  0.0953
26756W        W69850  25.202  23.252   8.163 -0.3924 -0.0304  0.3778
26757W        W69851  24.201  23.947   6.601 -0.2982 -0.1335 -0.2527
26758W        W69852  23.720  25.666   9.886 -0.2351  0.1904  0.0035
26759W        W69853  24.354  23.146   7.648  0.1634 -0.1337  0.0267
26760W        W69854  24.499  21.947   9.235  0.0113  0.0800 -0.0048
26761W        W69855  24.488  22.308   8.880  0.0906  0.0455  0.4949
26762W        W69856  24.506  22.887   8.575  0.2144 -0.0269 -0.0681
26763W        W69857  21.010  20.642   8.747  0.1616  0.1694 -0.2524
26764W        W69858  21.829  22.267   7.227  0.1034 -0.2333  0.1021
26765W        W69859  23.823  24.748   8.164 -0.1151 -0.3637  0.0133
26766W        W69860  24.515  24.608   9.957  0.3502 -0.3687  0.3087
26767W        W69861  25.387  22.643   7.033 -0.1645 -0.0252  0.2161
26768W        W69862  20.759  22.362   8.458  0.2116 -0.0949 -0.1020
26769W        W69863  22.079  22.028   8.103  0.0431 -0.0448  0.3704
26770W        W69864  24.352  24.122   8.100  0.0042 -0.1859  0.0918
26771W        W69865  25.021  23.967   8.728  0.1826 -0.3103 -0.0841
26772W        W69866  24.403  20.963   7.532 -0.2617 -0.0122  0.1146
26773W        W69867  21.011  24.297   8.387 -0.2472 -0.1315  0.0434
26774W        W69868  24.895  20.514  10.018 -0.2595 -0.1607 -0.1209
26775W        W69869  23.456  25.511  10.328  0.0236 -0.2059 -0.0283
26776W        W69870  22.284  25.278   8.567 -0.1741 -0.0814 -0.0679
26777W        W69871  20.897  20.796   7.856 -0.0720 -0.1052 -0.1951
26778W        W69872  24.594  23.672   8.786  0.1164  0.0664 -0.1709
26779W        W69873  24.267  23.081   9.497  0.1627  0.0180 -0.2914
26780W        W69874  24.177  21.512   9.253  0.0484 -0.1143  0.2023
26781W        W69875  25.883  24.367  10.200  0.0279 -0.1937  0.1995
26782W        W69876  21.821  23.336   9.877 -0.2563 -0.3596 -0.1542
26783W        W69877  23.322  23.149   8.875 -0.1161  0.0747  0.0334
26784W        W69878  22.679  22.068   8.334  0.0475  0.2716 -0.1068
26785W        W69879  22.987  23.909   7.607  0.3122  0.1732  0.0654
26786W        W69880  22.037  21.086   9.285 -0.2903  0.0148  0.2778
26787W        W69881  21.186  27.143   7.946  0.0836  0.1806  0.2295
26788W        W69882  25.507  24.309   7.757  0.1832  0.0162  0.1272
26789W        W69883  25.162  23.632   9.149 -0.0353 -0.0422  0.0803
26790W        W69884  23.543  24.989   8.513 -0.1536  0.0288 -0.0111
26791W        W69885  21.767  22.096   8.608  0.0419  0.0693 -0.2037
26792W        W69886  22.351  22.745   8.617 -0.1760  0.0327  0.0336
26793W        W69887  21.895  24.082   8.374  0.3328  0.1046  0.0080
26794W        W69888  25.863  24.722   7.193 -0.4734  0.1489 -0.0218
26795W        W69889  22.794  25.395  10.131  0.1540  0.0464 -0.3490
26796W        W69890  23.965  21.261   7.533 -0.1033  0.4346  0.0233
26797W        W69891  25.260  23.244   9.502 -0.0495  0.1196 -0.1627
26798W        W69892  26.018  22.031   8.523  0.0329  0.1331  0.1470
26799W        W69893  21.813  22.517   9.722  0.1100  0.1972 -0.0344
26800W        W69894  23.997  21.703   7.952 -0.0346 -0.2902 -0.3640
26801W        W69895  24.419  25.476   8.009  0.1739 -0.1335  0.1101
26802W        W69896  21.860  22.646   8.658  0.1174  0.2388  0.2477
26803W        W69897  21.259  22.371   9.493 -0.1498  0.1399 -0.0149
26804W        W69898  23.406  21.640   8.087  0.1090 -0.0943  0.2174
26805W        W69899  23.376  23.049   6.603  0.1259 -0.0725 -0.2405
26806W        W69900  22.266  21.850   9.630  0.1222 -0.0140 -0.3341
26807W        W69901  23.240  25.553   8.144 -0.1182  0.2037 -0.1893
26808W        W69902  22.271  24.758   8.531 -0.2613 -0.1445  0.0632
26809W        W69903  23.387  24.909   9.517  0.0689 -0.0871  0.0176
26810W        W69904  20.837  22.001   7.790  0.2401  0.1582 -0.1035
26811W        W69905  25.311  22.282   8.566  0.1189 -0.3481  0.2856
26812W        W69906  22.121  23.070   9.541 -0.1563 -0.2598 -0.1582
26813W        W69907  20.249  22.409   8.534  0.0275 -0.1173 -0.0704
26814W        W69908  24.264  23.701   7.875  0.0966  0.0027  0.1055
26815W        W69909  24.049  20.871   9.722 -0.0147  0.0222 -0.2237
26816W        W69910  21.789  23.578   8.772 -0.3976  0.0129  0.0815
26817W        W69911  22.533  22.874   7.859  0.0258  0.2105 -0.0241
26818W        W69912  24.617  23.407   6.942 -0.1612 -0.0076 -0.2079
26819W        W69913  22.488  22.038   8.901 -0.0343  0.2838 -0.0068
26820W        W69914  23.581  23.464   6.804  0.2995 -0.0180 -0.2719
26821W        W69915  20.430  22.919   7.652  0.1040 -0.0845  0.2778
26822W        W69916  23.036  23.026   8.435  0.0747  0.2114  0.0810
26823W        W69917  20.536  22.840   8.515  0.0103 -0.0053  0.2006
26824W        W69918  26.215  23.378   7.254 -0.3219 -0.3151  0.0405
26825W        W69919  25.532  24.345   9.580  0.0993  0.0928 -0.0677
26826W        W69920  22.469  26.606   8.132 -0.0020 -0.1339  0.1893
26827W        W69921  25.132  22.719   8.143  0.0016  0.3689  0.1288
26828W        W69922  24.070  24.561   9.858  0.1191  0.1092 -0.0009
26829W        W69923  22.487  23.254   9.822  0.0432  0.0563  0.1527
26830W        W69924  22.490  24.777   9.617 -0.0525 -0.0876  0.2632
26831W        W69925  25.128  24.161   9.198 -0.3641 -0.1129 -0.3032
26832W        W69926  24.572  22.094   8.354  0.3301  0.0601 -0.1818
26833W        W69927  23.727  19.806   9.847 -0.4152  0.3408 -0.1982
26834W        W69928  22.766  24.801   8.262  0.1086  0.1543 -0.0186
26835W        W69929  25.708  22.554   8.838 -0.3248 -0.1912 -0.5300
26836W        W69930  24.108  24.705   6.896  0.2566  0.2857 -0.1194
26837W        W69931  25.311  24.259   8.257 -0.1317  0.1965  0.0821
26838W        W69932  22.204  24.093   7.726  0.0040 -0.0263 -0.1357
26839W        W69933  21.592  23.988   9.674 -0.4089  0.0007  0.3516
26840W        W69934  22.740  24.318   9.476 -0.0958 -0.1885 -0.2673
26841W        W69935  24.248  25.414  10.021  0.2658  0.0750 -0.0168
26842W        W69936  24.831  22.833   8.911 -0.1982 -0.1318  0.0990
26843W        W69937  25.477  24.660  10.066  0.1269  0.0061  0.2719
26844W        W69938  23.296  22.573   8.168 -0.1190  0.0593 -0.1624
26845W        W69939  24.127  22.761   7.917 -0.2779  0.0674 -0.1235
26846W        W69940  23.429  22.101   7.854 -0.0596  0.2562 -0.1646
26847W        W69941  23.050  22.938   9.206 -0.2771 -0.1385  0.1409
26848W        W69942  22.754  23.627   8.492  0.1792 -0.1449  0.0122
26849W        W69943  21.603  22.557   9.181  0.0916 -0.0184 -0.3211
26850W        W69944  20.413  24.278   9.699  0.0323 -0.0227 -0.0375
26851W        W69945  21.634  22.962   9.543 -0.1845 -0.3390  0.1437
26852W        W69946  22.272  22.300   8.491 -0.1109  0.0009 -0.0632
26853W        W69947  25.421  25.516   7.731 -0.3951  0.0574 -0.1789
26854W        W69948  22.970  20.571   8.828 -0.1096 -0.0458  0.0991
26855W        W69949  21.737  19.664   9.655 -0.0009 -0.0240  0.0745
26856W        W69950  25.197  23.359   7.114  0.1429  0.1212 -0.0369
26857W        W69951  25.494  23.805   7.869 -0.0644 -0.2654 -0.0980
26858W        W69952  21.443  21.309   9.741 -0.1085 -0.4529  0.2820
26859W        W69953  22.083  22.054   7.568 -0.1152  0.1066  0.1147
26860W        W69954  21.856  21.349   6.992  0.0533  0.0271 -0.1465
26861W        W69955  24.487  22.352   9.669  0.1174  0.1116  0.4333
26862W        W69956  23.836  25.393   8.540 -0.1912  0.0770 -0.3180
26863W        W69957  24.116  26.508   7.936  0.0060 -0.1040 -0.0792
26864W        W69958  23.519  18.251  11.477  0.1565  0.0525  0.1567
26865W        W69959  24.113  23.892   8.704  0.0618  0.0185 -0.1513
26866W        W69960  24.839  24.346   7.204  0.0903  0.1857 -0.0229
26867W        W69961  23.469  22.034   8.795 -0.3085  0.0275  0.0722
26868W        W69962  23.971  23.962   7.518  0.2083 -0.0878 -0.0059
26869W        W69963  25.133  21.611   9.926  0.1370 -0.1412  0.3244
26870W        W69964  22.440  21.425   8.240 -0.0722  0.1996 -0.0083
26871W        W69965  23.625  22.285   9.279  0.0565  0.3445  0.2374
26872W        W69966  24.929  25.015   7.347  0.2023 -0.2452 -0.0310
26873W        W69967  18.923  23.953   9.040 -0.2919  0.0561 -0.0596
26874W        W69968  22.936  22.283   7.913  0.0649 -0.2183  0.0281
26875W        W69969  22.724  23.139   8.812 -0.0689  0.1389 -0.2279
26876W        W69970  24.185  22.526   8.354 -0.0942 -0.0441 -0.0776
26877W        W69971  24.792  23.481   7.833 -0.2333  0.0547  0.2501
26878W        W69972  24.142  26.615   9.584 -0.1058  0.2171 -0.2362
26879W        W69973  22.887  21.789   9.781 -0.1181 -0.0261  0.1070
26880W        W69974  24.660  24.054   9.426  0.2692  0.0003 -0.2278
26881W        W69975  22.032  20.253   9.582 -0.1454  0.0001  0.3425
26882W        W69976  22.691  22.577   8.259 -0.3078  0.0064 -0.1764
26883W        W69977  23.038  22.148   7.422 -0.1020  0.0759  0.1655
26884W        W69978  24.275  21.406   9.696 -0.2159  0.1987 -0.1285
26885W        W69979  22.369  20.407   9.981  0.1339 -0.0255 -0.2553
26886W        W69980  23.472  21.250   7.220  0.0419 -0.0304 -0.0558
26887W        W69981  20.595  27.102   9.452  0.0952  0.1549  0.3366
26888W        W69982  25.353  24.942   8.799  0.0430 -0.0043 -0.1389
26889W        W69983  22.800  27.873   4.175 -0.0333  0.0975  0.0735
26890W        W69984  23.070  27.398   1.670 -0.0057 -0.1900 -0.1633
26891W        W69985  25.853  26.838  30.876  0.4299 -0.1380 -0.1433
26892W        W69986  24.917  28.281   1.818  0.0012  0.1438  0.3926
26893W        W69987  21.396  25.778   1.629 -0.1178 -0.1700 -0.3906
26894W        W69988  24.498  29.225   0.297  0.0837 -0.0968 -0.2705
26895W        W69989  22.737  26.329   3.288  0.1978  0.2974 -0.1999
26896W        W69990  23.911  27.261   0.789  0.1039 -0.0062 -0.0479
26897W        W69991  24.617  28.723   2.717  0.2860  0.0569 -0.0346
26898W        W69992  24.425  27.554   0.614 -0.0659  0.2118 -0.0251
26899W        W69993  24.123  25.983   3.037 -0.1860 -0.0511 -0.0620
26900W        W69994  22.545  28.734   2.653 -0.3330  0.0740  0.1108
26901W        W69995  22.016  25.523   0.408  0.0573  0.1083  0.0577
26902W        W69996  21.883  25.600   2.431  0.2389  0.1728 -0.0653
26903W        W69997  24.842  26.923   2.999  0.2331 -0.0611 -0.1271
26904W        W69998  23.062  27.963  31.529 -0.1476  0.3690  0.2718
26905W        W69999  23.008  26.755   3.531  0.3250 -0.1901  0.1772
26906W        W70000  23.861  26.085   0.777  0.1732  0.2607 -0.1883
26907W        W70001  24.784  29.709   2.332 -0.2627  0.1373 -0.0114
26908W        W70002  22.366  27.055   2.352 -0.3037 -0.1003 -0.4610
26909W        W70003  23.394  24.629   3.430  0.0530 -0.3154 -0.0178
26910W        W70004  23.064  27.995   0.858 -0.0202 -0.2411 -0.0375
26911W        W70005  20.772  26.541   0.659  0.1987  0.1052 -0.1950
26912W        W70006  22.134  26.653   2.281 -0.1001  0.1651  0.2062
26913W        W70007  22.750  28.960   3.014  0.0225 -0.0112  0.1492
26914W        W70008  24.222  26.925   2.127 -0.2094  0.0648 -0.4372
26915W        W70009  24.596  26.038   2.053 -0.2428 -0.0740  0.1516
26916W        W70010  22.083  27.665   1.524  0.0692  0.0563  0.2138
26917W        W70011  22.923  28.020   1.353 -0.0870  0.0474 -0.1157
26918W        W70012  23.397  26.678   4.079 -0.1148 -0.2206  0.0547
26919W        W70013  22.735  29.104   0.939 -0.0341 -0.2796 -0.0811
26920W        W70014  22.104  29.099   2.734  0.1067  0.4075 -0.2383
26921W        W70015  22.783  27.887   0.045 -0.2957  0.4978  0.0227
26922W        W70016  26.067  27.574   1.322  0.1582 -0.0041  0.0155
26923W        W70017  23.401  28.124   2.740 -0.0112 -0.1524 -0.2065
26924W        W70018  23.425  29.167   5.596  0.1077 -0.1282  0.1025
26925W        W70019  23.070  27.496   0.760 -0.1947  0.0118 -0.1892
26926W        W70020  22.989  28.953   2.597 -0.0901  0.2160  0.0656
26927W        W70021  23.079  29.005   3.538 -0.1132  0.0187 -0.0462
26928W        W70022  23.208  27.985   4.904  0.1024 -0.1515  0.1082
26929W        W70023  23.890  26.919   0.319  0.1323 -0.2879 -0.2501
26930W        W70024  23.466  29.160   0.718  0.2386  0.0863 -0.0243
26931W        W70025  22.138  26.884   1.780 -0.1552  0.0366  0.0520
26932W        W70026  23.215  27.643   4.066 -0.0601  0.1109  0.1615
26933W        W70027  22.035  28.452   2.534  0.1048  0.0033  0.3384
26934W        W70028  24.690  26.098   2.945  0.3773  0.0790  0.0406
26935W        W70029  21.816  28.753   0.174 -0.2323 -0.0713 -0.0319
26936W        W70030  24.063  26.670  31.910 -0.0177 -0.0799  0.0928
26937W        W70031  21.007  26.382  30.816  0.0019  0.3568 -0.1715
26938W        W70032  24.601  26.710   0.923  0.0411 -0.0583  0.2619
26939W        W70033  23.411  25.710   1.023 -0.2265 -0.1076 -0.1097
26940W        W70034  23.251  27.288   2.174  0.3868  0.0123 -0.1578
26941W        W70035  23.100  26.276   1.997  0.0769 -0.1999 -0.0805
26942W        W70036  24.559  28.261   2.487  0.1400  0.3016  0.1537
26943W        W70037  22.703  26.217   1.541  0.0178  0.2070  0.0428
26944W        W70038  23.823  27.959   3.032 -0.0043 -0.0044 -0.0384
26945W        W70039  22.068  29.071   3.705 -0.0003  0.0143  0.2724
26946W        W70040  22.773  27.136   2.023 -0.0711 -0.1670  0.0058
26947W        W70041  26.036  28.779   0.094 -0.1882 -0.0195 -0.3740
26948W        W70042  25.650  28.818   1.957 -0.1700 -0.3215 -0.1983
26949W        W70043  25.720  29.349   1.251 -0.0646 -0.3340  0.0891
26950W        W70044  24.442  25.911   1.008  0.0087 -0.0222  0.1755
26951W        W70045  21.914  27.613   3.607 -0.2829  0.3456  0.3028
26952W        W70046  22.417  27.544   3.463 -0.1284 -0.0943 -0.2090
26953W        W70047  21.224  24.252  31.331 -0.0549  0.0760  0.3339
26954W        W70048  24.946  28.881   3.144 -0.1093 -0.1682  0.3043
26955W        W70049  19.920  28.740   1.715  0.1781 -0.0939  0.1138
26956W        W70050  24.096  27.185   1.722  0.1219  0.0074  0.2776
26957W        W70051  22.122  27.373   2.675  0.2687 -0.3132  0.0760
26958W        W70052  25.040  28.127   1.161  0.1212  0.2029 -0.1094
26959W        W70053  24.912  27.136   0.814  0.2894  0.0774  0.1302
26960W        W70054  24.948  27.002   2.522 -0.2373 -0.0029 -0.0397
26961W        W70055  25.426  26.867   2.882 -0.3022  0.0506 -0.4601
26962W        W70056  23.400  27.961   0.003 -0.1154 -0.2629  0.0292
26963W        W70057  23.366  26.895   1.370  0.0760  0.2756  0.2505
26964W        W70058  24.307  28.273   3.411 -0.1144 -0.0694  0.0475
26965W        W70059  26.612  27.116   0.710 -0.0788  0.1180 -0.0336
26966W        W70060  22.266  30.570   3.241 -0.2936 -0.1326  0.1167
26967W        W70061  23.465  26.507   3.534  0.0113  0.0288  0.0821
26968W        W70062  23.613  27.214   3.167 -0.1445  0.2288  0.0595
26969W        W70063  24.034  27.763   0.861  0.0492  0.0328 -0.2096
26970W        W70064  21.698  27.793   1.202 -0.1057  0.2084  0.2496
26971W        W70065  22.257  26.907   0.299  0.0218 -0.1311 -0.2787
26972W        W70066  21.491  25.265   2.274 -0.0940 -0.0725  0.1034
26973W        W70067  22.468  28.802   3.687 -0.1188  0.3950  0.1736
26974W        W70068  25.188  25.018   2.152 -0.2778  0.1468 -0.1968
26975W        W70069  21.380  26.728   3.910 -0.0036  0.2021  0.1013
26976W        W70070  25.073  25.813   1.015 -0.2158 -0.2178 -0.0592
26977W        W70071  20.449  27.726   1.645 -0.0644  0.3407 -0.2037
26978W        W70072  25.082  28.634   1.400  0.2931  0.0629 -0.3293
26979W        W70073  24.976  27.100   0.331 -0.1433 -0.3137  0.2317
26980W        W70074  25.314  28.483   0.743  0.1515  0.1242 -0.3335
26981W        W70075  22.784  26.660   2.140 -0.0751  0.1354 -0.0611
26982W        W70076  19.814  24.800   0.775  0.0559 -0.1313  0.0763
26983W        W70077  21.303  24.833   3.799 -0.2907  0.1970 -0.3283
26984W        W70078  22.977  26.427   2.538  0.0755 -0.0696 -0.2255
26985W        W70079  24.275  26.500   3.362  0.3387  0.0134  0.2387
26986W        W70080  21.077  25.546  31.389  0.2430  0.1053  0.1251
26987W        W70081  24.612  26.578  31.646 -0.0499  0.2291 -0.3516
26988W        W70082  25.318  27.453   0.704  0.1148 -0.0702  0.1049
26989W        W70083  21.776  26.872   0.175 -0.2363  0.2346  0.0301
26990W        W70084  24.877  26.655   3.905  0.2113 -0.0234  0.1307
26991W        W70085  24.126  30.534   1.188 -0.0265 -0.0407  0.1492
26992W        W70086  23.347  28.781   2.131  0.2110  0.0566 -0.3140
26993W        W70087  25.910  29.216   1.721 -0.1718 -0.2269 -0.0762
26994W        W70088  23.328  26.092   2.444  0.0299  0.0521 -0.2912
26995W        W70089  21.482  24.713  31.169  0.1886  0.2032  0.2922
26996W        W70090  22.834  29.279   2.189  0.0765 -0.0031 -0.1954
26997W        W70091  24.435  28.824   1.176  0.2207  0.2905 -0.1259
26998W        W70092  23.505  25.597  30.931 -0.1484 -0.0258 -0.0629
26999W        W70093  25.906  29.347   2.972  0.1462 -0.1394  0.0246
27000W        W70094  24.721  27.071   1.251 -0.3358  0.1246  0.0856
27001W        W70095  23.133  27.596   1.233  0.0016 -0.2132  0.2491
27002W        W70096  23.659  25.063   3.262  0.1343 -0.0171  0.1209
27003W        W70097  24.354  27.855   2.704 -0.2535 -0.1079  0.1739
27004W        W70098  24.227  26.359   0.925 -0.0533  0.0756  0.2847
27005W        W70099  21.303  24.143  30.173  0.2118 -0.0870 -0.0452
27006W        W70100  23.797  28.201   0.862 -0.0569  0.1255  0.1418
27007W        W70101  22.167  30.557   0.049  0.2035 -0.0149 -0.1491
27008W        W70102  21.766  26.697   0.891 -0.0406 -0.0667  0.1370
27009W        W70103  22.607  28.813   1.676  0.1029  0.3300 -0.2010
27010W        W70104  25.358  25.988   0.086 -0.2355  0.0273  0.1622
27011W        W70105  22.914  28.502   3.520 -0.1400 -0.0633 -0.1199
27012W        W70106  24.356  26.431   2.218 -0.2806 -0.1965  0.1688
27013W        W70107  22.654  26.600   0.157  0.1311 -0.3351  0.1003
27014W        W70108  22.154  27.982   2.429  0.0073 -0.1263 -0.1579
27015W        W70109  25.813  26.024   0.410 -0.0604 -0.2572 -0.1325
27016W        W70110  26.143  26.791   0.679 -0.1048 -0.0061  0.1078
27017W        W70111  24.351  27.275   4.477  0.0672 -0.2961 -0.6144
27018W        W70112  24.864  26.258   0.995  0.2345 -0.0029  0.1697
27019W        W70113  23.533  26.480   0.653 -0.2419  0.3135 -0.0795
27020W        W70114  23.929  26.408   0.383  0.2383  0.1336 -0.1428
27021W        W70115  22.169  28.003   3.421 -0.1642  0.1199  0.0648
27022W        W70116  24.778  29.631   1.295  0.2812  0.0006  0.0879
27023W        W70117  24.029  27.399   1.256  0.0259 -0.0243 -0.0152
27024W        W70118  22.083  25.573  31.836  0.1769 -0.1905 -0.1041
27025W        W70119  25.763  28.657  31.614  0.2577 -0.1587 -0.0566
27026W        W70120  22.639  28.095   2.238 -0.0952 -0.3313  0.2672
27027W        W70121  23.561  28.746   2.614 -0.0899  0.1709 -0.1181
27028W        W70122  24.869  29.263   1.973 -0.0363 -0.0097 -0.0642
27029W        W70123  23.328  25.475   3.236  0.3835 -0.0891  0.1166
27030W        W70124  22.978  26.967   0.184 -0.0510 -0.1356 -0.2682
27031W        W70125  23.822  26.754   2.368  0.1005  0.0073  0.0666
27032W        W70126  22.620  29.215  31.885  0.0063  0.0702  0.0896
27033W        W70127  25.944  26.782   1.730  0.0528 -0.0937  0.3705
27034W        W70128  25.858  27.137   1.294  0.1160 -0.0549  0.0300
27035W        W70129  23.255  24.513   2.471  0.4344  0.0249 -0.1904
27036W        W70130  25.087  27.101   3.792 -0.2566  0.0260  0.0818
27037W        W70131  24.739  27.736  31.695 -0.0703 -0.1379 -0.2902
27038W        W70132  24.058  27.421   3.028  0.1109  0.1297 -0.0587
27039W        W70133  23.090  27.518   0.199  0.0505  0.1783  0.0575
27040W        W70134  25.741  25.010   1.319  0.1018  0.0387 -0.0861
27041W        W70135  23.328  27.700   3.100 -0.0698  0.0618 -0.3432
27042W        W70136  22.222  29.912   4.021 -0.0702 -0.2211 -0.1833
27043W        W70137  22.844  26.711   3.025  0.0757 -0.1280 -0.2379
27044W        W70138  24.977  28.865   2.300 -0.0814 -0.2013 -0.1312
27045W        W70139  23.544  26.157   3.901 -0.2980 -0.0287 -0.1259
27046W        W70140  23.992  26.613  31.070  0.0215  0.2590  0.2923
27047W        W70141  22.673  26.773   0.700 -0.6201 -0.1074  0.1070
27048W        W70142  23.111  29.273   1.232  0.1062 -0.2024 -0.1220
27049W        W70143  23.732  27.204   2.116  0.2918 -0.0078 -0.0190
27050W        W70144  23.599  28.356   2.320  0.0865  0.1356 -0.1943
27051W        W70145  22.630  28.236   0.372  0.1408 -0.0153 -0.0141
27052W        W70146  23.953  27.472   3.558 -0.0011 -0.0807  0.0884
27053W        W70147  21.141  30.116  31.449  0.1437  0.1242 -0.1019
27054W        W70148  24.761  26.357   2.490  0.0637 -0.0039 -0.0889
27055W        W70149  22.464  29.336   1.876  0.2900  0.1290 -0.0569
27056W        W70150  23.109  25.410   1.713 -0.0381 -0.0672  0.0989
27057W        W70151  21.523  26.461  31.938 -0.0501 -0.0634 -0.3265
27058W        W70152  24.412  25.419   1.023 -0.0619  0.0247 -0.0254
27059W        W70153  25.701  26.333   0.013 -0.1716  0.0523  0.0871
27060W        W70154  22.121  25.247   0.920  0.1390 -0.2614  0.0574
27061W        W70155  23.945  27.992   2.481  0.2829 -0.3746  0.2256
27062W        W70156  22.189  29.754   2.774  0.2388 -0.0277 -0.0279
27063W        W70157  24.928  25.612   2.899  0.2286 -0.0980  0.3262
27064W        W70158  24.172  25.094   0.621 -0.0683 -0.1536  0.1244
27065W        W70159  23.857  27.699   2.075 -0.0715 -0.0408 -0.1730
27066W        W70160  23.698  26.985   3.735  0.1526  0.2999  0.4739
27067W        W70161  20.394  26.108  31.654 -0.4639  0.0017 -0.0386
27068W        W70162  25.288  28.126   3.079 -0.3130 -0.0193 -0.2980
27069W        W70163  22.695  26.795   1.675 -0.4165  0.1192  0.2801
27070W        W70164  19.238  27.700   1.074 -0.3260  0.0725 -0.0745
27071W        W70165  23.924  30.130   1.507  0.3331  0.0361  0.3766
27072W        W70166  22.170  26.140   1.509 -0.2967 -0.0544 -0.4019
27073W        W70167  22.656  27.719   1.675  0.2404 -0.4566 -0.0778
27074W        W70168  23.342  26.011   3.400 -0.1029  0.0112  0.1012
27075W        W70169  24.751  27.526   2.542 -0.4176 -0.0894 -0.2746
27076W        W70170  24.150  27.807   1.676 -0.2959  0.1981 -0.2242
27077W        W70171  22.561  25.309   1.894 -0.0639 -0.3721  0.4940
27078W        W70172  23.513  28.008   0.469 -0.2226  0.3900  0.1287
27079W        W70173  22.751  26.054   2.759 -0.2435  0.0817  0.0200
27080W        W70174  23.318  26.672   2.255 -0.1953  0.2321 -0.0104
27081W        W70175  21.296  27.142   4.351 -0.1076  0.0601 -0.2123
27082W        W70176  24.027  26.394   2.626  0.1821  0.1159 -0.3935
27083W        W70177  25.867  29.181   0.387 -0.3410 -0.2850  0.1765
27084W        W70178  23.757  26.327   3.018  0.1256  0.1458 -0.2061
27085W        W70179  22.240  27.370   0.513 -0.2622 -0.0338  0.0882
27086W        W70180  21.700  27.708   2.473  0.0190  0.2479 -0.0152
27087W        W70181  22.767  28.697  31.965 -0.1174  0.2854 -0.0940
27088W        W70182  25.214  27.645   2.382  0.0069  0.1803  0.1225
27089W        W70183  21.427  27.355   2.734 -0.1629  0.1590 -0.1861
27090W        W70184  22.177  28.857   0.628 -0.0460  0.0160 -0.0729
27091W        W70185  21.503  28.484   3.204  0.3435 -0.0383  0.2735
27092W        W70186  24.848  25.980  31.161 -0.2120 -0.0532  0.0303
27093W        W70187  25.077  26.714   1.201 -0.0741 -0.1651  0.2138
27094W        W70188  23.347  26.129   0.233 -0.0133 -0.0514  0.1041
27095W        W70189  24.617  24.317   3.977  0.0832  0.2035  0.4537
27096W        W70190  25.447  28.064  31.710  0.0698  0.0467  0.1296
27097W        W70191  23.343  25.137   2.844 -0.0923 -0.1094  0.1989
27098W        W70192  24.004  25.144   2.204  0.0300 -0.0900 -0.1236
27099W        W70193  23.429  27.207   1.010  0.0597 -0.0889  0.2709
27100W        W70194  22.098  25.962   3.187  0.0400 -0.0067 -0.3230
27101W        W70195  24.155  28.895   2.806  0.4550 -0.2136  0.0742
27102W        W70196  22.402  27.100   5.214  0.1770  0.1412 -0.1247
27103W        W70197  23.708  25.617   1.710  0.0700  0.3252 -0.0393
27104W        W70198  22.140  25.741   1.048  0.0802  0.0294  0.3161
27105W        W70199  24.474  26.615   2.867 -0.2101  0.0961  0.2309
27106W        W70200  24.384  27.511   2.107 -0.3238  0.0299  0.0316
27107W        W70201  23.157  28.506   0.800  0.0317  0.0523  0.1725
27108W        W70202  25.050  27.157   1.633  0.0479  0.0001 -0.1247
27109W        W70203  23.773  28.447   2.936  0.1310 -0.0134 -0.2208
27110W        W70204  24.668  26.714   0.136 -0.2397 -0.4947  0.1193
27111W        W70205  24.952  27.547   1.095 -0.0216  0.0489  0.0959
27112W        W70206  22.621  26.247   0.651  0.3583 -0.1801  0.0238
27113W        W70207  21.724  25.282   2.724 -0.1290 -0.0231  0.0898
27114W        W70208  23.933  28.215   1.763 -0.2663 -0.0135 -0.0508
27115W        W70209  25.202  26.719   0.630  0.2394 -0.2437 -0.0538
27116W        W70210  24.054  25.995   1.844 -0.4638 -0.0720 -0.0219
27117W        W70211  25.582  26.187   2.920 -0.2653  0.2154 -0.3079
27118W        W70212  23.387  26.795   3.033 -0.1809 -0.2327  0.1271
27119W        W70213  22.597  27.672   2.594 -0.3256 -0.0789  0.0850
27120W        W70214  24.259  28.319   2.913  0.0576 -0.2640 -0.3304
27121W        W70215  25.731  27.223  30.515 -0.1598  0.2036 -0.3184
27122W        W70216  25.917  26.289   2.129 -0.2838  0.1263  0.1794
27123W        W70217  25.225  26.748   1.823  0.0483  0.3513  0.0003
27124W        W70218  24.630  27.459   0.154  0.0601  0.2253 -0.3166
27125W        W70219  22.397  25.910   3.634 -0.1604 -0.0296  0.1392
27126W        W70220  23.903  25.494   2.628  0.0405  0.0741 -0.1943
27127W        W70221  23.383  26.149  31.001 -0.0440 -0.0123 -0.0579
27128W        W70222  24.261  24.978   3.285 -0.0616  0.1015 -0.4512
27129W        W70223  24.109  28.415   0.013 -0.1091  0.0196 -0.1503
27130W        W70224  24.276  28.569   1.599  0.2527 -0.2107 -0.1822
27131W        W70225  24.019  27.422   0.227  0.1227  0.2751  0.0587
27132W        W70226  22.062  26.869   2.802 -0.0802  0.0122 -0.0229
27133W        W70227  22.880  29.551   3.871  0.1107 -0.0513 -0.0919
27134W        W70228  20.699  25.514   0.145 -0.0757 -0.0261 -0.0314
27135W        W70229  23.554  27.737   0.943  0.3588 -0.0747 -0.2621
27136W        W70230  24.185  28.062   1.259  0.2674 -0.1063  0.2093
27137W        W70231  25.016  28.235   4.246  0.0059 -0.1949  0.0297
27138W        W70232  25.185  25.757  31.643  0.0473  0.3198 -0.0485
27139W        W70233  25.229  27.345   2.882  0.0329  0.0596  0.3789
27140W        W70234  23.008  26.412   0.429 -0.1795 -0.1194  0.1546
27141W        W70235  23.529  25.142   2.401 -0.2429 -0.0234  0.3025
27142W        W70236  23.446  28.355   1.178 -0.0464 -0.0550  0.0510
27143W        W70237  22.836  28.748   2.087  0.1076  0.2470  0.0310
27144W        W70238  23.510  30.272   1.762  0.1427 -0.0138 -0.2854
27145W        W70239  24.269  25.571   1.963  0.3686  0.0210  0.0021
27146W        W70240  23.096  26.015   0.804 -0.0867 -0.3074  0.0745
27147W        W70241  23.790  26.564   1.237 -0.0311  0.2835 -0.0802
27148W        W70242  25.185  27.372   4.199  0.3649 -0.2115 -0.0000
27149W        W70243  23.168  29.552   2.555  0.0713 -0.0560 -0.0356
27150W        W70244  23.562  27.282   1.612  0.2081 -0.1121  0.1480
27151W        W70245  24.450  30.090   2.116  0.3175  0.0532 -0.1793
27152W        W70246  27.726  28.647   1.751 -0.0363  0.0912  0.0519
27153W        W70247  23.240  29.794   0.354  0.0022  0.0191  0.0387
27154W        W70248  22.409  26.748   3.168  0.2322  0.2334  0.0780
27155W        W70249  23.634  27.687   5.243  0.1275 -0.1861  0.1756
27156W        W70250  24.484  27.644   1.163 -0.2715 -0.2921 -0.3166
27157W        W70251  21.971  26.243   1.013 -0.1213 -0.0439 -0.0406
27158W        W70252  24.516  28.703   0.220  0.0388  0.2034 -0.1386
27159W        W70253  22.509  28.251   2.729  0.1008 -0.1514 -0.3445
27160W        W70254  22.223  29.530   3.540  0.1111  0.0855  0.1161
27161W        W70255  21.995  30.984   0.231  0.2958  0.3395 -0.2078
27162W        W70256  25.425  26.303   0.936  0.0389 -0.0716  0.2421
27163W        W70257  25.741  27.678   1.665 -0.0379 -0.0054  0.0900
27164W        W70258  22.501  29.822   2.318 -0.0641  0.1013  0.0286
27165W        W70259  21.705  25.945   1.302 -0.0395 -0.1946  0.2304
27166W        W70260  22.332  29.548   1.429 -0.1387  0.1098 -0.0934
27167W        W70261  21.467  29.134   0.314  0.0259 -0.3520  0.0653
27168W        W70262  23.540  29.004  31.328  0.0437  0.2055  0.0886
27169W        W70263  23.372  27.715   1.853  0.0716 -0.1185  0.2782
27170W        W70264  24.020  28.103   4.106 -0.0908 -0.1278  0.0251
27171W        W70265  25.050  24.974   0.693  0.2550 -0.4284 -0.1308
27172W        W70266  24.263  28.045   2.130 -0.0638  0.0237  0.3592
27173W        W70267  25.625  25.291   2.222  0.0609 -0.0965  0.0166
27174W        W70268  24.464  29.843   1.664  0.1578 -0.0278 -0.3488
27175W        W70269  23.866  26.778   3.293 -0.1054  0.0333 -0.1779
27176W        W70270  23.012  28.256  31.045  0.1331  0.3030  0.1790
27177W        W70271  23.023  27.002   2.550 -0.2566  0.0175 -0.3612
27178W        W70272  24.856  25.304   4.287  0.2289  0.0841  0.3227
27179W        W70273  21.710  28.729   3.888 -0.0596 -0.1918 -0.0480
27180W        W70274  26.143  30.419   0.535  0.0967 -0.0766 -0.0016
27181W        W70275  23.478  27.135   2.665 -0.0467 -0.0868  0.1393
27182W        W70276  22.904  27.648   2.160  0.0785  0.4246 -0.3505
27183W        W70277  24.048  25.037   2.830  0.4574 -0.1885  0.2103
27184W        W70278  25.293  28.595  31.652 -0.2236  0.1366 -0.1026
27185W        W70279  25.309  27.977   0.743 -0.0331  0.0571 -0.0021
27186W        W70280  24.371  28.263   0.497  0.2977  0.3080  0.2260
27187W        W70281  20.802  29.589   2.481 -0.2414  0.0320  0.1114
27188W        W70282  23.350  28.653   1.646  0.0204  0.1422 -0.1018
27189W        W70283  21.882  26.359  31.523  0.3907  0.0719  0.0613
27190W        W70284  26.099  27.303   1.790  0.0531  0.0958 -0.0114
27191W        W70285  21.550  25.269   1.788  0.0703 -0.1767  0.2605
27192W        W70286  24.404  27.036   2.603 -0.1129 -0.1698 -0.1111
27193W        W70287  21.896  27.052   0.605  0.1104  0.0443  0.4738
27194W        W70288  24.819  26.153   0.086 -0.3643  0.5999  0.0779
27195W        W70289  23.191  26.325   2.986 -0.0159 -0.2100 -0.3381
27196W        W70290  23.925  26.927   2.818  0.0327 -0.1039 -0.1149
27197W        W70291  23.190  27.169  31.047  0.3714 -0.0253  0.0264
27198W        W70292  24.666  26.554   1.421 -0.1583 -0.0387  0.0972
27199W        W70293  23.525  29.177   2.445 -0.2541 -0.1525  0.0254
27200W        W70294  22.012  25.284   1.526  0.3304 -0.2992  0.0284
27201W        W70295  23.123  26.589   0.897 -0.1731  0.0541 -0.0613
27202W        W70296  22.681  28.365   0.941 -0.2305 -0.1341 -0.2367
27203W        W70297  22.561  26.576   3.780  0.0197 -0.0295 -0.0817
27204W        W70298  25.007  27.753   3.211  0.0459 -0.1746  0.3909
27205W        W70299  23.356  26.954   0.597  0.2833  0.0247 -0.1928
27206W        W70300  26.071  30.527  30.965 -0.1807  0.1346 -0.4640
27207W        W70301  25.162  25.948   3.168  0.1984 -0.3907 -0.0939
27208W        W70302  22.802  28.312   1.809 -0.1941 -0.0270 -0.0865
27209W        W70303  25.499  28.600   1.160  0.0655  0.0775  0.0585
27210W        W70304  25.389  29.002   0.842  0.1720  0.1049 -0.1940
27211W        W70305  22.335  27.064   3.643  0.1336 -0.0028  0.1461
27212W        W70306  25.238  29.264   2.324  0.1716  0.1298  0.2262
27213W        W70307  24.530  29.233   2.436  0.1414  0.0943  0.1036
27214W        W70308  23.684  26.804   1.851 -0.0441  0.2792  0.2907
27215W        W70309  24.073  27.353   2.458  0.0578  0.0188  0.0049
27216W        W70310  22.155  28.383   0.408 -0.1180 -0.1315  0.1345
27217W        W70311  25.587  27.242   2.573 -0.1222 -0.0358  0.2741
27218W        W70312  24.358  26.016   2.500  0.1605  0.0292 -0.1756
27219W        W70313  23.543  29.309   0.280  0.0594 -0.0627  0.2460
27220W        W70314  26.243  26.100   3.625  0.1942  0.1781 -0.3140
27221W        W70315  23.705  27.580   2.718  0.1401 -0.2566  0.1669
27222W        W70316  23.034  28.274   4.355 -0.2787 -0.2006 -0.1695
27223W        W70317  22.647  27.556   1.090  0.1909  0.0807  0.1711
27224W        W70318  22.727  27.586   3.076  0.0573 -0.0780 -0.1801
27225W        W70319  22.861  27.097   1.159 -0.2487 -0.0532 -0.3234
27226W        W70320  24.245  30.178   0.824  0.0075  0.2327 -0.2934
27227W        W70321  24.625  28.364   1.327 -0.0029  0.1851 -0.0423
27228W        W70322  23.029  26.531   1.395  0.2005  0.0635  0.0775
27229W        W70323  25.165  28.747   1.863  0.0194 -0.0141  0.0934
27230W        W70324  25.557  25.541   0.303  0.0648 -0.2202  0.0076
27231W        W70325  25.605  25.806   0.802  0.1162 -0.2244  0.1177
27232W        W70326  25.758  25.681  31.371  0.0666  0.0756 -0.2202
27233W        W70327  21.869  26.736   3.802  0.2296  0.0279  0.0981
27234W        W70328  21.706  26.835  31.669 -0.3181  0.1203  0.0473
27235W        W70329  23.192  28.733   0.315 -0.1047  0.1516  0.0130
27236W        W70330  22.102  27.518   1.049 -0.1682  0.2422  0.1090
27237W        W70331  23.128  25.353   3.831 -0.0119 -0.1233  0.0280
27238W        W70332  23.099  27.186   3.026  0.1807 -0.3320 -0.1402
27239W        W70333  22.592  26.525   1.131 -0.2874 -0.0759  0.0269
27240W        W70334  19.425  24.398  31.619  0.0693  0.3457 -0.0265
27241W        W70335  24.538  29.381  31.759 -0.1219  0.2211  0.1415
27242W        W70336  22.730  25.871   1.168 -0.0460 -0.0964  0.2263
27243W        W70337  22.354  26.201   2.396  0.1457  0.1948  0.0564
27244W        W70338  24.634  27.929   1.571 -0.1370  0.0170  0.4158
27245W        W70339  24.275  29.038   1.939  0.0922  0.0103 -0.1086
27246W        W70340  23.423  26.225   1.177 -0.3048  0.0733  0.1526
27247W        W70341  26.255  28.552   2.406 -0.2547  0.3698 -0.0449
27248W        W70342  24.948  28.361   0.424  0.1658  0.1616 -0.0940
27249W        W70343  23.091  27.196   3.768 -0.0991 -0.1482 -0.0169
27250W        W70344  22.706  25.638   3.902 -0.0535  0.1951 -0.0498
27251W        W70345  22.024  25.424  31.266 -0.2253  0.1667  0.1693
27252W        W70346  22.440  26.422   1.909 -0.3359 -0.0502 -0.0119
27253W        W70347  24.786  28.472   0.882 -0.0589  0.1101 -0.2590
27254W        W70348  24.799  30.038   0.909 -0.2753 -0.0743 -0.1197
27255W        W70349  22.968  28.519   2.983  0.1805 -0.1810 -0.0415
27256W        W70350  23.819  29.277   1.955  0.2049  0.0832 -0.1167
27257W        W70351  20.890  25.741   2.877  0.2663 -0.1920  0.1527
27258W        W70352  24.340  27.122  31.894  0.3255 -0.0688  0.1574
27259W        W70353  23.667  27.794   1.467  0.0872 -0.1887  0.0334
27260W        W70354  25.650  27.512  31.884 -0.1847  0.1132 -0.1470
27261W        W70355  25.170  27.241   2.129 -0.1354  0.2576  0.1375
27262W        W70356  24.275  26.921   1.270 -0.0616 -0.3071  0.1628
27263W        W70357  20.448  25.637   2.297  0.2515  0.1417 -0.0221
27264W        W70358  22.531  26.670   2.609 -0.1182 -0.0670  0.1940
27265W        W70359  24.551  27.343   3.497 -0.0531 -0.1002  0.0019
27266W        W70360  23.596  24.844   1.186 -0.1086 -0.0062  0.2138
27267W        W70361  24.468  26.125   1.562 -0.0117  0.1156  0.1039
27268W        W70362  24.904  27.779   0.462  0.0611  0.1696 -0.1267
27269W        W70363  22.302  26.316   2.871  0.2940 -0.1647 -0.0467
27270W        W70364  25.848  26.615  31.548 -0.1677 -0.3517 -0.0757
27271W        W70365  22.720  27.085   3.344 -0.1798  0.0720 -0.7273
27272W        W70366  23.269  28.168   1.654  0.4442 -0.0061  0.0823
27273W        W70367  24.647  27.769   4.218  0.1427 -0.0389 -0.1928
27274W        W70368  23.314  27.556  31.295  0.0305 -0.3119  0.2161
27275W        W70369  25.691  28.452   2.761  0.0960 -0.1164  0.0858
27276W        W70370  24.460  29.344   1.530  0.2082  0.0775 -0.0326
27277W        W70371  24.026  29.173   2.403  0.0355 -0.1609  0.0149
27278W        W70372  23.527  29.517   2.854  0.0881  0.0480  0.0637
27279W        W70373  24.296  27.026   3.163  0.1014  0.1048  0.0300
27280W        W70374  23.218  25.993   1.580  0.1033  0.1638 -0.0438
27281W        W70375  21.733  27.522   0.622 -0.0617  0.0391 -0.2634
27282W        W70376  22.480  27.245   1.525 -0.1750 -0.0806  0.0449
27283W        W70377  25.290  28.022   1.623  0.2588 -0.0563 -0.1022
27284W        W70378  22.781  25.768   1.785 -0.1020 -0.1602 -0.1754
27285W        W70379  23.125  25.586  31.525 -0.0523 -0.0020 -0.1130
27286W        W70380  23.479  29.231   1.581 -0.3753  0.0754  0.0087
27287W        W70381  24.963  29.202   1.501  0.2681  0.1515 -0.0463
27288W        W70382  21.559  26.843   6.450  0.1338  0.2738  0.1323
27289W        W70383  21.749  26.410   5.201  0.2717  0.0453 -0.0232
27290W        W70384  23.785  26.279   2.210 -0.1380 -0.0417 -0.0877
27291W        W70385  24.416  27.791   3.731  0.0138 -0.1836  0.0584
27292W        W70386  21.332  26.230   5.477 -0.1217  0.2862  0.3309
27293W        W70387  24.611  26.825   4.971 -0.2266 -0.0217  0.0817
27294W        W70388  22.359  25.073   6.418 -0.1343 -0.4095 -0.0520
27295W        W70389  24.708  28.846   5.987 -0.0214  0.0684  0.0918
27296W        W70390  24.723  29.306   5.964  0.0928 -0.1412 -0.1575
27297W        W70391  24.220  27.423   4.025  0.4283  0.2231  0.1174
27298W        W70392  22.043  26.780   5.889  0.4042  0.0163  0.1993
27299W        W70393  22.755  28.647   7.128 -0.0778 -0.0209 -0.3361
27300W        W70394  23.135  25.803   4.001 -0.0898  0.3000  0.4061
27301W        W70395  21.315  24.669   4.915  0.0067 -0.0643 -0.3114
27302W        W70396  23.261  27.337   5.859  0.2289  0.2654 -0.4630
27303W        W70397  21.591  27.233   4.769 -0.0147 -0.4151 -0.1186
27304W        W70398  21.117  27.147   5.805 -0.3102 -0.0371  0.2519
27305W        W70399  23.427  27.143   4.844  0.0607 -0.0779  0.2564
27306W        W70400  23.709  29.646   8.074 -0.0674  0.0720  0.0098
27307W        W70401  22.659  25.900   5.527  0.0139  0.1397  0.0294
27308W        W70402  24.046  25.183   7.187  0.1105  0.0092  0.6518
27309W        W70403  24.495  28.157   6.117  0.0992 -0.3141 -0.1665
27310W        W70404  22.252  27.838   4.429 -0.2088  0.0779 -0.1620
27311W        W70405  21.449  25.279   6.469 -0.2306 -0.2458  0.1031
27312W        W70406  20.998  25.902   5.636 -0.1628 -0.3176  0.1400
27313W        W70407  24.176  25.514   5.603 -0.1928  0.0973 -0.0505
27314W        W70408  24.920  26.492   4.739  0.2240 -0.5412  0.1905
27315W        W70409  22.980  28.153   5.842  0.3010  0.0886 -0.2674
27316W        W70410  23.758  28.354   6.926 -0.0195  0.2441  0.3219
27317W        W70411  23.403  26.246   6.326  0.2956 -0.0856 -0.2737
27318W        W70412  21.216  28.108   6.456  0.0927 -0.0054  0.0160
27319W        W70413  23.069  29.876   5.254 -0.1629 -0.3403  0.0311
27320W        W70414  22.038  28.682   5.509 -0.1307 -0.1833  0.0074
27321W        W70415  25.179  27.719   4.588 -0.0582 -0.3814  0.1119
27322W        W70416  25.334  28.717   6.188  0.1097 -0.1199 -0.5269
27323W        W70417  23.976  29.008   6.771 -0.0847 -0.0395  0.1219
27324W        W70418  22.042  28.541   3.479 -0.2432 -0.2015  0.0186
27325W        W70419  22.929  28.971   8.026 -0.1009 -0.1008  0.1210
27326W        W70420  23.273  27.191   7.166 -0.2064  0.2630  0.2632
27327W        W70421  24.303  26.931   5.468 -0.2379  0.0043 -0.1397
27328W        W70422  23.890  26.361   5.502  0.2339  0.1501  0.1934
27329W        W70423  23.938  27.948   3.567  0.2136  0.3801  0.0356
27330W        W70424  22.365  27.604   5.403  0.2407  0.2900 -0.4268
27331W        W70425  23.183  27.940   7.722  0.3556  0.2978  0.3454
27332W        W70426  21.600  27.849   6.407 -0.1132 -0.0771  0.0944
27333W        W70427  24.309  25.792   7.012  0.0857  0.1677  0.0882
27334W        W70428  23.672  28.879   4.431 -0.1890 -0.1505 -0.3425
27335W        W70429  24.723  26.861   3.480  0.3485  0.0823  0.1441
27336W        W70430  21.734  25.269   3.729 -0.1414  0.3832 -0.4159
27337W        W70431  23.836  27.382   4.463 -0.0762  0.1850 -0.2638
27338W        W70432  23.107  24.512   5.955 -0.0680  0.2418 -0.1709
27339W        W70433  20.708  29.662   6.605 -0.0391  0.1822  0.0233
27340W        W70434  23.194  25.676   5.278  0.1328  0.3033 -0.0757
27341W        W70435  25.578  28.386   6.543 -0.2811 -0.0798  0.1764
27342W        W70436  23.166  28.158   3.882 -0.2227  0.1842 -0.0279
27343W        W70437  22.842  27.110   6.125 -0.0018 -0.0128  0.0113
27344W        W70438  23.415  28.017   6.439  0.3401  0.2770 -0.1204
27345W        W70439  22.198  26.682   5.430  0.1790 -0.4199  0.1526
27346W        W70440  26.448  28.714   4.800 -0.0440  0.2692  0.1254
27347W        W70441  24.238  28.835   5.316 -0.1006 -0.5252  0.0256
27348W        W70442  23.163  28.144   2.143  0.2165  0.5120 -0.0550
27349W        W70443  22.314  27.502   4.869 -0.1775  0.3590  0.0275
27350W        W70444  22.878  28.229   6.846 -0.0597  0.0495 -0.3204
27351W        W70445  22.287  27.056   7.673 -0.1805 -0.1131  0.1015
27352W        W70446  22.893  25.843   3.493  0.2238  0.0912  0.0762
27353W        W70447  26.193  28.014   7.182  0.1582 -0.0838  0.3744
27354W        W70448  23.065  29.049   7.034  0.2993  0.0227 -0.1301
27355W        W70449  24.732  26.096   6.263 -0.1368  0.2328  0.0774
27356W        W70450  22.205  28.610   6.488  0.0042  0.0833 -0.3644
27357W        W70451  24.346  28.616   6.233  0.0644 -0.0124  0.1263
27358W        W70452  23.917  28.445   4.636  0.0631  0.1140  0.2433
27359W        W70453  24.317  25.958   5.954  0.0844 -0.3554 -0.2112
27360W        W70454  24.197  25.838   4.612 -0.1052  0.3076  0.2414
27361W        W70455  21.085  27.142   3.760 -0.0659  0.2159  0.2496
27362W        W70456  23.288  28.707   3.876  0.0399 -0.0679  0.0954
27363W        W70457  25.217  28.397   7.018 -0.3411 -0.4246 -0.0508
27364W        W70458  24.364  27.748   3.245 -0.1185 -0.4044  0.0198
27365W        W70459  21.549  27.988   6.844  0.1505 -0.0608  0.1667
27366W        W70460  21.515  26.072   5.923  0.1569 -0.2357  0.0801
27367W        W70461  22.906  27.316   6.699  0.1879  0.0425  0.0715
27368W        W70462  23.418  29.200   4.005  0.2640  0.3408  0.0139
27369W        W70463  20.548  27.400   5.663  0.0467  0.0535  0.0792
27370W        W70464  21.738  28.201   3.797  0.0541 -0.0960 -0.1767
27371W        W70465  23.189  24.905   6.357 -0.2462 -0.1211  0.0720
27372W        W70466  22.482  27.247   6.448  0.0316 -0.1490 -0.0665
27373W        W70467  24.481  25.702   4.202  0.0288 -0.1449 -0.0938
27374W        W70468  22.337  26.343   5.913  0.2324  0.3293 -0.4036
27375W        W70469  24.275  26.422   4.605  0.1799 -0.0717  0.0297
27376W        W70470  22.108  28.495   5.987 -0.0336  0.0511 -0.0313
27377W        W70471  24.874  30.018   4.897 -0.0520  0.3759  0.1763
27378W        W70472  24.380  26.576   3.990  0.1849  0.1892  0.0273
27379W        W70473  23.625  29.132   3.520 -0.0365 -0.1277  0.1710
27380W        W70474  21.492  26.244   6.419 -0.2643  0.3016 -0.3111
27381W        W70475  22.228  25.302   5.106 -0.2481  0.1176 -0.1769
27382W        W70476  21.762  25.689   6.579 -0.0652  0.2872  0.1253
27383W        W70477  21.813  24.901   5.078  0.2166  0.0941  0.1145
27384W        W70478  24.034  25.112   5.830 -0.2226 -0.0818 -0.1074
27385W        W70479  23.774  25.973   2.594 -0.1821  0.2598 -0.4001
27386W        W70480  24.073  26.786   4.318 -0.2269 -0.0361 -0.0210
27387W        W70481  23.232  27.791   5.532  0.0651  0.5128 -0.0667
27388W        W70482  21.483  28.063   5.125 -0.1048 -0.2126  0.1485
27389W        W70483  26.306  25.052   6.230  0.1464  0.0946  0.1171
27390W        W70484  22.893  28.471   5.377 -0.2939  0.0756 -0.1969
27391W        W70485  24.620  27.110   6.375 -0.1190  0.1138  0.0192
27392W        W70486  24.547  29.218   5.476  0.3983  0.0136 -0.3154
27393W        W70487  21.981  26.025   4.934 -0.3036 -0.0302 -0.2533
27394W        W70488  22.896  26.358   4.684  0.0420 -0.0500  0.2800
27395W        W70489  22.228  29.722   4.686 -0.0922  0.1445 -0.0117
27396W        W70490  23.011  27.791   6.705 -0.0791  0.2992 -0.0146
27397W        W70491  21.703  26.425   4.248  0.2987 -0.1781  0.3247
27398W        W70492  24.987  29.021   4.605  0.0278 -0.0663  0.1032
27399W        W70493  22.798  27.909   5.345 -0.1240  0.0592  0.4855
27400W        W70494  22.064  27.145   5.541 -0.1311  0.0217 -0.1763
27401W        W70495  23.685  25.246   6.250 -0.1119 -0.0081  0.0036
27402W        W70496  25.805  26.779   5.994  0.2028 -0.0019 -0.0434
27403W        W70497  23.298  26.714   4.606 -0.0488 -0.0329 -0.2386
27404W        W70498  22.083  26.296   3.901 -0.0941 -0.1068 -0.1906
27405W        W70499  23.946  28.235   5.964  0.1726  0.1418 -0.0590
27406W        W70500  22.538  29.670   5.298 -0.0367  0.2895  0.5083
27407W        W70501  20.851  27.087   5.365 -0.1401 -0.1741 -0.1496
27408W        W70502  24.187  28.687   5.783 -0.0761 -0.4364 -0.1683
27409W        W70503  25.407  27.900   5.083 -0.1688  0.1082  0.1815
27410W        W70504  21.001  27.318   7.057 -0.2928  0.0150 -0.2458
27411W        W70505  22.343  26.329   6.405  0.0333 -0.0400  0.2120
27412W        W70506  21.814  25.989   2.766 -0.1067 -0.5077  0.3763
27413W        W70507  20.692  28.162   7.300 -0.0995 -0.1058  0.0854
27414W        W70508  22.025  24.435   3.966 -0.2907 -0.1687  0.1079
27415W        W70509  25.559  25.579   4.943  0.1093  0.0046  0.0135
27416W        W70510  24.253  26.808   6.712  0.2034  0.1903  0.1497
27417W        W70511  24.720  27.687   5.414  0.5798  0.2781  0.0275
27418W        W70512  24.864  26.364   3.463  0.0116  0.2872 -0.3137
27419W        W70513  23.822  26.056   3.509 -0.0314  0.3550  0.1048
27420W        W70514  22.061  28.074   6.347  0.1450 -0.0051 -0.0249
27421W        W70515  24.478  27.342   5.037 -0.0305  0.2939 -0.2706
27422W        W70516  23.083  26.904   5.737  0.1269 -0.0606 -0.3412
27423W        W70517  22.905  26.651   4.200 -0.1671 -0.0890  0.3351
27424W        W70518  25.151  29.020   3.623 -0.1886  0.1781  0.3957
27425W        W70519  21.446  27.815   5.640  0.0386  0.1134  0.2002
27426W        W70520  24.959  26.860   7.351  0.1461  0.1358  0.2040
27427W        W70521  23.862  27.845   4.496  0.0125 -0.1816 -0.3574
27428W        W70522  24.569  24.709   7.099 -0.2730 -0.1506  0.2672
27429W        W70523  23.031  29.805   3.164  0.0103 -0.1971  0.1377
27430W        W70524  21.666  25.954   4.056 -0.1832  0.2363  0.0843
27431W        W70525  22.212  29.153   4.537 -0.0584 -0.0784 -0.1448
27432W        W70526  24.860  26.899   5.903 -0.1281 -0.0155 -0.1375
27433W        W70527  23.893  25.939   5.767 -0.0440  0.0842  0.0596
27434W        W70528  22.545  25.378   6.023 -0.1620  0.1983  0.0825
27435W        W70529  25.069  25.460   7.130  0.0913 -0.0145  0.0063
27436W        W70530  23.706  25.909   4.336  0.2423  0.0341  0.1206
27437W        W70531  25.324  26.735   6.050  0.1068  0.2965 -0.0523
27438W        W70532  22.659  28.076   3.718  0.1111  0.1817  0.0194
27439W        W70533  22.256  25.832   5.834  0.2967  0.1573  0.0120
27440W        W70534  20.726  27.776   6.309  0.0811 -0.3361  0.0537
27441W        W70535  22.557  28.683   7.855  0.1867 -0.3089 -0.0918
27442W        W70536  24.169  27.614   6.027  0.0651 -0.1659  0.0521
27443W        W70537  23.836  26.124   4.903 -0.0660 -0.0890 -0.1551
27444W        W70538  25.723  25.853   5.727 -0.1179  0.0739 -0.1879
27445W        W70539  22.887  25.287   4.316  0.1323 -0.1753  0.2854
27446W        W70540  23.348  28.526   4.654 -0.1626  0.2935  0.0546
27447W        W70541  23.400  27.953   4.427  0.0917 -0.0113  0.2455
27448W        W70542  22.685  24.658   6.202 -0.0681  0.2887 -0.2212
27449W        W70543  24.044  28.164   6.456  0.0057  0.0825 -0.2711
27450W        W70544  23.059  29.332   2.971  0.0556 -0.0464 -0.0585
27451W        W70545  24.396  26.468   5.578 -0.1897  0.1522  0.0479
27452W        W70546  23.039  29.959   4.379 -0.1390  0.2073 -0.0350
27453W        W70547  25.821  25.243   6.294  0.3437  0.0057  0.2032
27454W        W70548  21.570  27.295   5.552 -0.2874  0.1328  0.2254
27455W        W70549  22.120  26.526   4.885 -0.1321 -0.0123  0.0707
27456W        W70550  21.094  26.681   4.316 -0.2193 -0.5204  0.1434
27457W        W70551  23.760  25.710   5.331  0.0820  0.0649  0.0814
27458W        W70552  24.125  26.942   4.874 -0.1900 -0.2841 -0.0793
27459W        W70553  22.852  24.984   5.854  0.0427  0.0943  0.0485
27460W        W70554  23.432  26.150   5.234  0.4333  0.1168  0.5179
27461W        W70555  22.628  28.733   6.671  0.2471  0.0304 -0.0484
27462W        W70556  25.284  26.870   6.881  0.0449  0.0029  0.1031
27463W        W70557  25.876  26.304   5.658 -0.0170  0.0519 -0.3610
27464W        W70558  24.158  26.470   6.009 -0.0057  0.1075 -0.4212
27465W        W70559  23.132  26.867   7.588 -0.0858  0.2253 -0.0097
27466W        W70560  22.068  24.986   3.079 -0.0142  0.0720  0.0605
27467W        W70561  26.052  28.247   6.674  0.2273 -0.5339  0.0035
27468W        W70562  23.340  25.340   4.924  0.4327 -0.0942  0.0545
27469W        W70563  21.531  28.751   5.163 -0.1174  0.0839  0.0130
27470W        W70564  23.471  27.557   6.874  0.0857 -0.0576  0.2315
27471W        W70565  23.267  26.164   4.340 -0.0198  0.0837  0.2270
27472W        W70566  21.998  27.943   5.274  0.0746  0.0336 -0.1963
27473W        W70567  22.273  27.095   7.064 -0.3115  0.3593 -0.0083
27474W        W70568  26.308  28.691   6.344 -0.0923  0.2208 -0.0151
27475W        W70569  22.645  25.352   5.525 -0.2104 -0.4178  0.0209
27476W        W70570  22.355  26.234   5.260 -0.1451  0.0558 -0.3311
27477W        W70571  23.516  26.731   5.436 -0.0916  0.0039  0.1506
27478W        W70572  25.242  28.832   6.708  0.3804 -0.2666  0.0103
27479W        W70573  22.845  26.565   6.064 -0.0590  0.0794 -0.0649
27480W        W70574  21.537  27.609   7.256  0.0310  0.3387 -0.2668
27481W        W70575  23.628  24.707   6.435  0.1891 -0.0855 -0.0788
27482W        W70576  24.091  30.023   5.139  0.0193 -0.3491  0.0282
27483W        W70577  24.113  27.176   6.237 -0.0871  0.0041  0.0784
27484W        W70578  22.458  28.574   5.205  0.1804 -0.1005 -0.1422
27485W        W70579  21.151  26.573   6.707  0.5532  0.0332  0.0251
27486W        W70580  23.216  28.154   3.273 -0.2074  0.1571  0.3661
27487W        W70581  22.862  24.813   5.388  0.1825 -0.2424 -0.1569
27488W        W70582  22.530  28.322   6.117  0.0565 -0.0692  0.0128
27489W        W70583  22.690  27.802   4.717  0.2623  0.2715  0.2544
27490W        W70584  21.743  27.538   5.937  0.0597  0.2202 -0.0432
27491W        W70585  24.972  25.805   4.188 -0.0216 -0.1202  0.1178
27492W        W70586  24.405  28.396   4.607  0.0741  0.0382  0.2587
27493W        W70587  23.336  25.911   5.675 -0.0358  0.0063  0.1489
27494W        W70588  25.342  26.392   7.768 -0.2598 -0.0797 -0.1973
27495W        W70589  24.263  26.969   3.683  0.0791  0.0946  0.3203
27496W        W70590  25.217  25.236   6.686 -0.0396 -0.3812 -0.5113
27497W        W70591  23.367  24.852   6.863 -0.0546 -0.0720 -0.1229
27498W        W70592  24.630  28.344   5.054 -0.2777 -0.0410 -0.1909
27499W        W70593  22.633  25.840   6.255  0.0408  0.1358 -0.2651
27500W        W70594  24.293  29.391   6.831  0.0613 -0.0596  0.0412
27501W        W70595  21.330  27.698   7.748 -0.0898 -0.2108  0.0930
27502W        W70596  22.074  26.095   4.456  0.6146  0.0055 -0.2794
27503W        W70597  23.034  26.341   3.788  0.0821  0.0831 -0.1586
27504W        W70598  23.572  27.111   6.151  0.2042 -0.0047 -0.2540
27505W        W70599  26.045  29.528   5.920  0.0424 -0.1761  0.1025
27506W        W70600  22.321  27.408   5.892 -0.1368 -0.2785  0.0827
27507W        W70601  24.895  27.617   3.833  0.2745 -0.0473 -0.2032
27508W        W70602  21.119  27.070   6.617  0.0632 -0.0096  0.0292
27509W        W70603  24.147  28.601   4.212 -0.3811 -0.3480 -0.1621
27510W        W70604  23.085  27.499   4.567 -0.2571  0.1771 -0.1623
27511W        W70605  22.827  27.406   5.063 -0.0128 -0.2189  0.0099
27512W        W70606  22.254  24.656   6.655 -0.0518 -0.3104 -0.2033
27513W        W70607  23.284  26.739   6.226  0.0744 -0.1222  0.0409
27514W        W70608  22.898  26.199   5.152 -0.0980 -0.1094 -0.2585
27515W        W70609  24.776  25.333   4.882 -0.1709 -0.2387 -0.2042
27516W        W70610  24.763  26.395   6.744  0.1343 -0.2726 -0.1398
27517W        W70611  22.198  27.415   8.096  0.0949  0.2980  0.1708
27518W        W70612  22.636  26.210   7.803 -0.0442  0.1442  0.0142
27519W        W70613  25.027  27.518   5.863 -0.1415  0.3062  0.2502
27520W        W70614  24.584  26.839   4.485 -0.0076 -0.0622  0.0077
27521W        W70615  24.113  25.489   6.138  0.0064 -0.1162 -0.0699
27522W        W70616  24.803  27.139   5.434 -0.2536 -0.0224  0.0257
27523W        W70617  22.590  26.645   5.120  0.2700 -0.1999 -0.2807
27524W        W70618  22.427  26.087   4.773 -0.2441  0.0903 -0.1755
27525W        W70619  25.034  26.669   6.480 -0.0458 -0.2889  0.2462
27526W        W70620  23.512  26.526   2.665 -0.0910 -0.1354  0.1540
27527W        W70621  24.666  25.406   6.346  0.0686 -0.1281 -0.4629
27528W        W70622  22.621  27.830   5.846  0.1977 -0.0807 -0.2855
27529W        W70623  23.968  27.534   7.065  0.2882 -0.2294 -0.0291
27530W        W70624  24.245  26.496   5.117 -0.1921  0.3653 -0.1512
27531W        W70625  21.600  25.785   5.460 -0.1676  0.1932 -0.0662
27532W        W70626  22.171  27.975   7.785  0.0057  0.2140 -0.0375
27533W        W70627  22.163  27.892   3.935  0.1241  0.1668 -0.1074
27534W        W70628  21.966  27.386   4.499 -0.4369  0.0745  0.0772
27535W        W70629  25.190  27.957   6.313  0.1146  0.0606 -0.1656
27536W        W70630  24.793  27.496   6.688  0.1175  0.2546 -0.2338
27537W        W70631  22.978  25.653   4.822  0.0358  0.2136 -0.1524
27538W        W70632  23.995  26.216   7.143 -0.1516  0.1491  0.1094
27539W        W70633  21.805  29.041   6.427 -0.0770 -0.1597 -0.2876
27540W        W70634  23.481  24.976   5.914 -0.0842 -0.1462  0.0110
27541W        W70635  21.607  29.780   6.011  0.3903 -0.1874 -0.0797
27542W        W70636  21.060  28.072   5.917 -0.0823 -0.0399  0.0139
27543W        W70637  22.510  27.751   6.376  0.1678 -0.2365  0.0572
27544W        W70638  22.830  25.233   6.447  0.3708 -0.0201 -0.1079
27545W        W70639  23.187  26.604   5.054 -0.2780 -0.3934 -0.3033
27546W        W70640  22.812  26.813   6.591 -0.1502  0.0228 -0.0170
27547W        W70641  25.631  27.145   6.277  0.1763  0.2832 -0.3423
27548W        W70642  23.296  26.977   6.707 -0.2039 -0.1457 -0.0697
27549W        W70643  22.114  27.925   6.801  0.1919 -0.0068 -0.1039
27550W        W70644  23.749  27.407   5.739 -0.0294  0.1123 -0.3961
27551W        W70645  24.988  28.420   6.178  0.3827 -0.0681  0.0466
27552W        W70646  22.846  26.307   6.461  0.3666  0.5594 -0.0416
27553W        W70647  20.870  25.810   6.970 -0.0587 -0.2761 -0.0288
27554W        W70648  22.884  26.952   7.083 -0.1487  0.1554 -0.0962
27555W        W70649  23.400  27.481   6.392  0.0991  0.3102 -0.1329
27556W        W70650  21.651  25.065   3.278  0.0601  0.1221 -0.2567
27557W        W70651  22.916  27.614   3.553 -0.3590  0.1529 -0.1399
27558W        W70652  22.011  29.006   7.864  0.1968  0.0825 -0.2141
27559W        W70653  21.614  27.312   6.422  0.4584  0.0456 -0.1505
27560W        W70654  24.397  29.064   4.259  0.0111  0.0999 -0.0605
27561W        W70655  23.599  28.321   3.652 -0.0334  0.1421 -0.1552
27562W        W70656  22.836  28.259   4.823 -0.1285 -0.0049  0.1815
27563W        W70657  23.742  28.720   5.047 -0.1728  0.0126  0.1159
27564W        W70658  22.550  27.339   4.412  0.1127 -0.1353  0.0558
27565W        W70659  21.756  29.290   5.842  0.1033 -0.1788 -0.1971
27566W        W70660  22.325  28.485   2.112 -0.0731 -0.1092  0.0848
27567W        W70661  25.334  29.672   4.164 -0.2543  0.4785 -0.1649
27568W        W70662  22.174  29.924   6.104  0.3470  0.2520 -0.1291
27569W        W70663  23.895  27.503   6.524  0.2515  0.0715  0.0086
27570W        W70664  24.576  25.539   3.669 -0.2786 -0.5341 -0.0712
27571W        W70665  25.456  26.481   5.149 -0.2236 -0.4392  0.1403
27572W        W70666  24.633  26.153   3.943 -0.0816 -0.0244  0.1062
27573W        W70667  24.238  28.566   6.752  0.4977 -0.0915  0.1928
27574W        W70668  21.474  26.570   6.039  0.0280  0.0241 -0.0938
27575W        W70669  23.291  25.540   4.434 -0.0017 -0.0248 -0.0493
27576W        W70670  22.003  26.722   7.254  0.1631 -0.0082  0.2061
27577W        W70671  25.545  26.117   7.214 -0.0315 -0.0380 -0.0921
27578W        W70672  21.188  29.684   8.135 -0.2618  0.0639 -0.1208
27579W        W70673  24.480  29.231   2.975  0.2495 -0.0404 -0.1582
27580W        W70674  21.258  26.532   5.053 -0.1025  0.0702  0.1646
27581W        W70675  22.472  28.201   6.625  0.4067  0.4203 -0.4942
27582W        W70676  26.318  24.528   5.451  0.2280 -0.1994 -0.0061
27583W        W70677  23.393  28.642   3.275 -0.2483  0.2692  0.0917
27584W        W70678  22.865  26.989   5.326 -0.1551  0.0550  0.1791
27585W        W70679  22.342  28.200   5.584 -0.1747 -0.0632 -0.0770
27586W        W70680  23.366  28.420   6.065  0.3832 -0.2435  0.1835
27587W        W70681  23.752  28.604   6.464  0.1521 -0.0600 -0.0793
27588W        W70682  20.340  25.862   2.813  0.1706 -0.1379  0.1239
27589W        W70683  26.275  25.950   5.765 -0.0430  0.1217 -0.3895
27590W        W70684  21.984  27.818   7.373 -0.3400 -0.0916 -0.0192
27591W        W70685  25.598  24.841   6.087 -0.1560 -0.1124 -0.2557
27592W        W70686  23.679  26.579   4.975 -0.0061  0.2455  0.0950
27593W        W70687  24.956  26.365   5.835 -0.1763 -0.0473  0.2408
27594W        W70688  24.374  27.633   6.527  0.1765 -0.2212 -0.3361
27595W        W70689  22.353  26.736   6.766  0.1118  0.0466  0.0083
27596W        W70690  23.843  26.534   3.932  0.2006  0.0421  0.0560
27597W        W70691  27.076  27.558   6.639  0.2397  0.0733  0.0652
27598W        W70692  23.699  27.681   3.956 -0.0528  0.0158  0.0057
27599W        W70693  23.855  28.847   7.241 -0.0756 -0.1522  0.1610
27600W        W70694  22.563  25.678   5.069 -0.1255  0.3406 -0.1980
27601W        W70695  22.467  26.461   4.409 -0.2135 -0.2058 -0.1406
27602W        W70696  21.801  27.548   6.862  0.2328 -0.3978 -0.1120
27603W        W70697  22.447  27.547   6.882 -0.2172 -0.3148  0.1708
27604W        W70698  23.784  29.421   6.900  0.0056  0.1276  0.0715
27605W        W70699  22.613  24.952   3.866 -0.0740 -0.3852  0.0300
27606W        W70700  24.436  28.735   3.238  0.1215  0.0233 -0.0767
27607W        W70701  25.582  26.624   6.494  0.0996 -0.4458 -0.3793
27608W        W70702  23.768  28.774   3.893 -0.0429  0.1668  0.0491
27609W        W70703  25.153  26.907   4.959  0.0366 -0.0202  0.1986
27610W        W70704  25.060  29.470   5.579 -0.0662 -0.1023  0.0503
27611W        W70705  21.728  25.601   6.066 -0.1927  0.3673  0.1048
27612W        W70706  23.954  28.397   5.391  0.3175 -0.1383  0.1262
27613W        W70707  26.248  29.032   5.666  0.1987 -0.4469  0.1988
27614W        W70708  23.392  25.901   4.790  0.0828  0.0740 -0.4076
27615W        W70709  21.915  26.544   6.294  0.0885  0.1061 -0.0685
27616W        W70710  22.116  27.876   5.874 -0.1638  0.0227  0.0956
27617W        W70711  26.543  27.056   6.475 -0.3840  0.0886 -0.2561
27618W        W70712  25.598  25.766   6.203 -0.0155  0.2498  0.2530
27619W        W70713  23.886  29.491   3.245 -0.2331 -0.1866  0.2869
27620W        W70714  26.305  24.343   6.434  0.1413 -0.2935  0.0940
27621W        W70715  23.510  27.724   7.339  0.0669  0.2329  0.0404
27622W        W70716  22.949  28.231   6.359 -0.1316 -0.2361  0.3677
27623W        W70717  21.053  28.155   3.191  0.2014  0.3630  0.0055
27624W        W70718  23.765  26.602   6.470  0.0633 -0.1348 -0.3338
27625W        W70719  22.478  28.943   4.913 -0.0062 -0.1527 -0.1239
27626W        W70720  22.824  28.539   3.983  0.2315 -0.3181  0.1390
27627W        W70721  24.215  29.330   5.949 -0.0738 -0.3494  0.0968
27628W        W70722  22.456  26.790   6.247  0.1273  0.0609 -0.1966
27629W        W70723  25.860  28.132   6.252  0.0589  0.1970 -0.0152
27630W        W70724  22.062  25.073   4.578 -0.0018  0.0667  0.0079
27631W        W70725  24.877  25.743   5.157 -0.3505 -0.1037  0.0412
27632W        W70726  23.642  25.490   3.661  0.0401  0.0498 -0.3277
27633W        W70727  22.557  26.917   5.744  0.2423 -0.0776 -0.1567
27634W        W70728  22.140  25.611   4.659  0.0591 -0.1720 -0.2407
27635W        W70729  21.981  27.299   4.017  0.0280  0.0648 -0.2565
27636W        W70730  22.916  26.994   4.805 -0.0227  0.0390  0.0529
27637W        W70731  24.971  24.571   8.037  0.1053 -0.1909 -0.1214
27638W        W70732  22.326  26.379   7.377  0.0614  0.2608 -0.3378
27639W        W70733  20.972  28.067   5.340  0.1595  0.2084 -0.2689
27640W        W70734  21.176  25.786   4.285 -0.0597 -0.3213  0.2392
27641W        W70735  24.755  28.492   3.678 -0.0445  0.0028 -0.0242
27642W        W70736  23.413  24.873   5.188 -0.3105 -0.0850 -0.1528
27643W        W70737  21.045  27.212   4.834 -0.0895 -0.1953 -0.0423
27644W        W70738  25.296  28.571   5.672 -0.2734 -0.0310 -0.3178
27645W        W70739  24.166  27.515   5.392 -0.0683  0.4672 -0.0449
27646W        W70740  22.106  25.810   5.341 -0.1561 -0.1454  0.0582
27647W        W70741  25.811  27.605   6.880 -0.2766 -0.1348 -0.0992
27648W        W70742  22.726  29.193   4.535  0.0961 -0.1849 -0.1549
27649W        W70743  23.768  27.117   6.838 -0.0315  0.0534  0.3999
27650W        W70744  22.482  25.273   6.853  0.1187 -0.2604  0.0733
27651W        W70745  22.331  24.150   2.668  0.0345  0.0463 -0.2379
27652W        W70746  23.892  26.037   6.306 -0.1262  0.2793  0.0575
27653W        W70747  21.867  27.864   4.784  0.2313 -0.0535 -0.3179
27654W        W70748  23.396  28.275   5.483 -0.1679 -0.0659  0.0524
27655W        W70749  23.495  27.895   5.956 -0.0107 -0.4595  0.1463
27656W        W70750  23.373  28.751   8.129  0.0449 -0.1814  0.3914
27657W        W70751  23.198  25.938   6.654  0.0165  0.0353  0.0008
27658W        W70752  23.912  27.924   5.537 -0.2730  0.0451 -0.0058
27659W        W70753  22.288  27.463   7.385  0.1250  0.3872 -0.2833
27660W        W70754  25.552  28.285   4.268  0.1096 -0.2187 -0.0517
27661W        W70755  24.660  25.668   5.673 -0.0061  0.3757 -0.0402
27662W        W70756  22.049  27.109   6.229 -0.3132 -0.2185 -0.1965
27663W        W70757  22.195  25.463   7.312 -0.0384  0.0749 -0.1422
27664W        W70758  21.955  26.030   6.201 -0.1606 -0.0743  0.3440
27665W        W70759  27.010  27.466   6.139  0.1545 -0.0830 -0.2136
27666W        W70760  21.571  25.033   4.649 -0.2680  0.3474 -0.3531
27667W        W70761  23.679  26.400   4.524  0.0246  0.2664  0.1009
27668W        W70762  24.716  28.762   4.132  0.2862  0.1707 -0.0594
27669W        W70763  21.149  27.565   6.078 -0.3761 -0.0523 -0.2527
27670W        W70764  24.157  26.124   4.092  0.1374  0.0074 -0.1040
27671W        W70765  23.789  27.095   5.214 -0.0068 -0.0720  0.0986
27672W        W70766  22.509  28.696   5.735  0.0160 -0.0494 -0.0101
27673W        W70767  24.998  27.491   7.201 -0.1233  0.2942 -0.7088
27674W        W70768  23.133  27.114   4.297 -0.0647  0.0419 -0.0517
27675W        W70769  25.492  27.210   3.560  0.0273 -0.0451 -0.1071
27676W        W70770  23.720  29.465   5.936 -0.1290  0.0127  0.0272
27677W        W70771  24.583  27.739   7.102 -0.0842  0.2046 -0.1229
27678W        W70772  23.350  28.685   7.289 -0.2380 -0.1065 -0.1950
27679W        W70773  24.895  26.387   5.272  0.3222  0.1371  0.0965
27680W        W70774  21.653  24.393   6.764 -0.0889 -0.2664 -0.1354
27681W        W70775  21.887  26.950   5.077 -0.0456  0.1227  0.0906
27682W        W70776  22.827  27.411   5.621 -0.1769  0.0651 -0.0914
27683W        W70777  24.631  26.104   4.983 -0.0937  0.2145  0.0167
27684W        W70778  21.626  26.777   5.545 -0.0566  0.0401  0.2573
27685W        W70779  23.782  25.578   4.769  0.0703 -0.0660 -0.1501
27686W        W70780  23.223  28.572   6.752 -0.1770 -0.1637  0.1421
27687W        W70781  25.360  27.832   5.815  0.0638 -0.1358  0.4124
27688W        W70782  22.197  26.359   9.492 -0.1138  0.1624  0.3560
27689W        W70783  22.467  25.943   7.290 -0.0114  0.1085  0.0702
27690W        W70784  23.833  25.132   6.747  0.1837 -0.2369  0.0108
27691W        W70785  24.948  28.373   8.388 -0.2953  0.1453  0.2241
27692W        W70786  23.224  26.087   7.982 -0.1506  0.1095  0.3339
27693W        W70787  24.140  27.628   8.763 -0.3777  0.3670  0.2281
27694W        W70788  24.607  26.771   7.692  0.1493 -0.0639  0.0540
27695W        W70789  24.244  27.658   9.474  0.3075  0.0596 -0.2044
27696W        W70790  24.227  28.060   6.925  0.0138 -0.1487 -0.3270
27697W        W70791  22.558  24.894  10.196  0.1511 -0.0305  0.0474
27698W        W70792  22.787  23.929   9.825  0.1041 -0.0851 -0.1424
27699W        W70793  21.481  24.107   8.067 -0.1598  0.0378 -0.0187
27700W        W70794  25.309  27.437   9.791 -0.0707 -0.0059  0.0394
27701W        W70795  23.016  26.053   6.062  0.2437  0.0277  0.0360
27702W        W70796  22.278  27.929   9.358  0.1215  0.2826  0.2989
27703W        W70797  23.518  27.090   9.008  0.6212  0.1945 -0.0143
27704W        W70798  25.140  29.389   7.567 -0.1517  0.0831 -0.0492
27705W        W70799  22.476  26.057   9.827 -0.0723 -0.0312  0.1797
27706W        W70800  23.724  27.661   8.399  0.2492  0.3356  0.0856
27707W        W70801  23.668  26.159   6.795 -0.0100 -0.1550 -0.1814
27708W        W70802  22.621  25.551   9.472  0.3539 -0.1599  0.1123
27709W        W70803  24.800  26.176   9.050 -0.0890  0.0484  0.0057
27710W        W70804  23.052  25.670   9.794  0.1329  0.2525 -0.1525
27711W        W70805  25.541  27.241   8.800 -0.0475 -0.0891 -0.0251
27712W        W70806  24.335  27.106   9.541  0.2114  0.0822 -0.1842
27713W        W70807  23.787  27.568  10.209  0.0864 -0.0859 -0.2207
27714W        W70808  22.785  28.634   8.846 -0.3152  0.2048 -0.0088
27715W        W70809  21.887  28.313   8.429  0.0491  0.1968 -0.2766
27716W        W70810  24.266  28.928   7.577  0.2603  0.0267 -0.3131
27717W        W70811  24.657  27.937   8.475 -0.1450 -0.1404  0.0993
27718W        W70812  22.809  27.920   8.100  0.0999 -0.2994  0.0741
27719W        W70813  25.099  26.505   8.282 -0.1633 -0.0285 -0.0579
27720W        W70814  24.398  26.220   7.620 -0.0181  0.0084  0.0709
27721W        W70815  23.286  28.200   8.212 -0.2494 -0.1501  0.0252
27722W        W70816  22.990  27.310   9.111 -0.0664  0.1946  0.1617
27723W        W70817  21.743  27.483   7.741 -0.0215  0.0451  0.0270
27724W        W70818  23.322  28.055   6.962  0.0729 -0.0126 -0.3164
27725W        W70819  23.674  26.406   5.903  0.0263 -0.2554 -0.4175
27726W        W70820  21.909  26.260   5.637 -0.1579  0.3899  0.0262
27727W        W70821  24.204  26.262   6.699  0.2053  0.1514 -0.2648
27728W        W70822  23.082  25.132   8.952 -0.1013 -0.0466  0.2450
27729W        W70823  22.532  29.438  10.059 -0.3101 -0.1124 -0.4191
27730W        W70824  22.432  27.056   9.995  0.0649  0.0402 -0.2467
27731W        W70825  21.761  26.903   7.688  0.1591 -0.4031 -0.1762
27732W        W70826  22.975  24.771   9.860 -0.0973  0.1126 -0.2155
27733W        W70827  22.683  28.979   9.365 -0.0442 -0.1235  0.0462
27734W        W70828  21.794  27.324   8.336 -0.0012 -0.5876  0.2450
27735W        W70829  24.484  27.873   8.026  0.2242  0.1488  0.2522
27736W        W70830  24.476  28.608   9.212  0.3456 -0.1544  0.0085
27737W        W70831  25.802  27.955   7.557  0.1515 -0.3496  0.0011
27738W        W70832  23.391  26.829   8.077  0.2492 -0.2552  0.1787
27739W        W70833  23.185  24.941   7.964 -0.0363  0.0969 -0.2752
27740W        W70834  24.980  24.380   9.728  0.1254  0.2939 -0.0672
27741W        W70835  23.113  27.206   8.647  0.0440 -0.0763 -0.0705
27742W        W70836  21.083  28.516   9.880  0.4312  0.3001 -0.1200
27743W        W70837  24.456  26.988   8.674 -0.0599 -0.2486 -0.2699
27744W        W70838  24.706  24.511   9.174  0.1038  0.0485 -0.2584
27745W        W70839  23.208  26.722   9.590 -0.1346  0.1609  0.1731
27746W        W70840  22.073  28.392   6.945 -0.0808  0.3106  0.2377
27747W        W70841  23.298  27.370   7.635 -0.2759  0.3099 -0.3064
27748W        W70842  22.711  26.946   9.482  0.1081 -0.0285  0.1254
27749W        W70843  24.756  26.364   7.912  0.2409 -0.1094 -0.0310
27750W        W70844  23.061  28.692   9.433  0.0921  0.2217 -0.1077
27751W        W70845  21.776  27.909   8.044  0.0435 -0.0035  0.0466
27752W        W70846  21.881  26.566  10.327 -0.2262 -0.1194 -0.0643
27753W        W70847  21.617  27.658   8.716  0.1301  0.0898 -0.0115
27754W        W70848  21.100  25.147  10.051  0.0372  0.3487 -0.0921
27755W        W70849  22.299  26.788   9.114 -0.2691 -0.0172 -0.1574
27756W        W70850  25.754  25.542   9.294  0.0158 -0.2352 -0.0254
27757W        W70851  25.149  26.209   8.741 -0.0034 -0.0838  0.3187
27758W        W70852  22.439  26.578   8.646  0.3100 -0.3010  0.3497
27759W        W70853  25.768  28.619   8.564  0.0351  0.1406 -0.0664
27760W        W70854  24.844  27.517   8.187  0.2860  0.1138  0.0770
27761W        W70855  24.897  28.025   5.773  0.1679  0.2643 -0.1024
27762W        W70856  22.715  26.510   9.234  0.0748  0.1703 -0.1409
27763W        W70857  21.667  26.376   7.998  0.0021 -0.2648 -0.0870
27764W        W70858  23.766  26.278   8.644  0.2338 -0.0686  0.1277
27765W        W70859  23.543  26.080   9.008  0.1079 -0.3035 -0.1116
27766W        W70860  25.723  25.109   9.123 -0.1317 -0.1699 -0.0796
27767W        W70861  24.034  27.094   7.272  0.2326 -0.1667  0.0650
27768W        W70862  21.188  27.535   9.859  0.0892 -0.3430 -0.2576
27769W        W70863  24.581  28.105   7.509 -0.3755  0.3165 -0.0935
27770W        W70864  24.821  27.097   9.859  0.2027 -0.0019  0.2261
27771W        W70865  24.389  29.508   9.415 -0.1535  0.0824  0.2026
27772W        W70866  23.701  26.954   9.476 -0.0175  0.0524 -0.1090
27773W        W70867  23.245  26.448   6.807 -0.1312 -0.0794  0.2300
27774W        W70868  22.615  28.325   9.322 -0.2273 -0.1552 -0.3657
27775W        W70869  23.712  26.654   8.946  0.1920 -0.0614  0.3060
27776W        W70870  22.935  25.745   7.603 -0.0874 -0.0719  0.1861
27777W        W70871  23.886  28.095  10.336 -0.2416 -0.1469  0.3919
27778W        W70872  23.861  27.920   9.024 -0.0601  0.0488  0.2233
27779W        W70873  25.041  26.588   9.191  0.0409 -0.0269  0.0366
27780W        W70874  25.394  26.575   7.254 -0.1369  0.2063  0.2235
27781W        W70875  22.386  25.091   8.142  0.1438  0.1503  0.0061
27782W        W70876  23.527  27.945   9.972 -0.3478  0.4150 -0.1591
27783W        W70877  21.657  29.736   8.486  0.0291  0.1734 -0.1112
27784W        W70878  21.983  26.428   8.448  0.0674 -0.1537  0.0424
27785W        W70879  21.940  27.604   9.095 -0.2620  0.0688 -0.2609
27786W        W70880  25.387  25.232   9.646  0.1228  0.3308 -0.0882
27787W        W70881  21.314  27.175   7.458  0.0407  0.1719 -0.1298
27788W        W70882  23.457  26.142   7.233 -0.0719  0.0290  0.1265
27789W        W70883  24.232  24.788   7.472 -0.0491 -0.0811  0.0967
27790W        W70884  24.580  27.270   7.875 -0.4359 -0.2123 -0.0618
27791W        W70885  22.190  25.405   5.638 -0.0060  0.0261  0.0382
27792W        W70886  23.463  25.760   6.202 -0.2189 -0.0023 -0.0813
27793W        W70887  23.559  27.287   8.108  0.3175 -0.0729  0.4071
27794W        W70888  24.106  26.938   9.144  0.2885 -0.1649  0.1583
27795W        W70889  22.658  26.471   5.577 -0.0341  0.0382 -0.0109
27796W        W70890  25.883  29.565   9.676  0.0203 -0.0125  0.1130
27797W        W70891  22.308  28.399   8.779  0.2041  0.0830  0.0463
27798W        W70892  23.997  28.483   8.989 -0.0025  0.2169 -0.0374
27799W        W70893  23.737  24.305   9.543 -0.1630 -0.0263 -0.0070
27800W        W70894  23.066  26.383   7.405  0.1199 -0.2043  0.3148
27801W        W70895  24.258  25.245   8.748 -0.0998  0.1029  0.3017
27802W        W70896  21.398  28.776   9.538  0.0939  0.2112  0.2089
27803W        W70897  23.952  26.193   9.763 -0.0391  0.0863 -0.2492
27804W        W70898  23.641  26.440   9.386 -0.0172  0.2025  0.0872
27805W        W70899  23.886  26.896   5.736 -0.2300  0.0678  0.2629
27806W        W70900  25.324  26.149   9.200  0.0426 -0.3630 -0.0848
27807W        W70901  22.783  25.684   6.735  0.2166 -0.1461 -0.0178
27808W        W70902  23.789  25.273   9.619 -0.2293 -0.0457 -0.3655
27809W        W70903  24.598  29.287   9.945 -0.0672  0.1650  0.2247
27810W        W70904  24.088  27.992   8.296 -0.1260  0.0621  0.0044
27811W        W70905  23.164  25.277   7.504  0.3368 -0.2695 -0.3594
27812W        W70906  22.644  27.507   8.427  0.2369 -0.0564  0.1485
27813W        W70907  22.712  26.935   8.822 -0.1696 -0.1374  0.1810
27814W        W70908  22.319  25.036   9.071 -0.0364 -0.0773  0.1008
27815W        W70909  23.757  27.786   9.523  0.0999 -0.0712  0.3658
27816W        W70910  22.664  27.507   7.829  0.1862 -0.1476 -0.2947
27817W        W70911  24.238  25.595   9.550  0.1726  0.0350 -0.1324
27818W        W70912  22.929  28.523   8.254 -0.1816 -0.0874 -0.0305
27819W        W70913  25.724  26.004   9.510 -0.2243  0.0911  0.0386
27820W        W70914  21.958  28.099   8.985  0.0447  0.0780 -0.0870
27821W        W70915  24.546  24.659   8.683  0.0059 -0.2975 -0.4540
27822W        W70916  21.935  27.032   6.737 -0.1802  0.1396  0.0752
27823W        W70917  24.703  27.414   8.681 -0.1125  0.0683 -0.4873
27824W        W70918  23.653  26.960   7.601  0.0599 -0.2267 -0.1076
27825W        W70919  20.547  27.501  10.296 -0.1723  0.2888 -0.5091
27826W        W70920  23.612  25.110   9.028 -0.0059  0.2140 -0.2760
27827W        W70921  21.252  29.191   9.907  0.2419 -0.1921  0.0141
27828W        W70922  25.420  25.035   7.191 -0.0801  0.3140  0.1814
27829W        W70923  21.742  25.594   9.188 -0.2678  0.0554  0.0316
27830W        W70924  25.042  26.264  10.405 -0.5634  0.1728  0.5067
27831W        W70925  23.852  27.176   8.709 -0.3933  0.3280  0.3452
27832W        W70926  21.773  28.106   9.433 -0.0394 -0.0429  0.0366
27833W        W70927  23.183  26.260   9.343 -0.4135  0.2319 -0.0593
27834W        W70928  24.370  27.283   6.892 -0.2701 -0.2216 -0.1235
27835W        W70929  22.749  28.121   8.529  0.0438  0.0256 -0.0241
27836W        W70930  24.946  26.246   9.531 -0.0954  0.3034 -0.2167
27837W        W70931  23.584  24.645   9.974  0.5137  0.0233 -0.1328
27838W        W70932  23.870  25.747   8.866  0.0311 -0.2413  0.0578
27839W        W70933  25.789  25.089  10.019  0.0884 -0.0666 -0.3223
27840W        W70934  28.780  27.015   9.705  0.0842 -0.1542  0.0151
27841W        W70935  22.149  25.789   9.477 -0.1149 -0.0092 -0.0470
27842W        W70936  22.975  25.781   8.527  0.2580  0.2005  0.1836
27843W        W70937  25.932  28.753   7.534  0.2004  0.3640  0.0490
27844W        W70938  22.700  26.960   7.900  0.0402  0.2460 -0.1827
27845W        W70939  22.137  26.992   9.558 -0.2527 -0.1949 -0.3105
27846W        W70940  22.489  27.045   8.391 -0.0710 -0.1348  0.1835
27847W        W70941  24.199  27.467   8.298 -0.0865  0.1862  0.1380
27848W        W70942  24.315  28.117   8.837 -0.2845 -0.0256 -0.2680
27849W        W70943  23.036  27.292   8.122  0.4747 -0.1475  0.2261
27850W        W70944  22.735  30.451  10.148  0.1894  0.0110 -0.0161
27851W        W70945  25.454  25.090   8.347  0.0443 -0.2746  0.1526
27852W        W70946  24.721  27.713   6.161 -0.0920  0.3292  0.0735
27853W        W70947  24.923  27.562  10.077 -0.0760 -0.0362  0.2608
27854W        W70948  24.166  27.058   7.721  0.2228  0.1477 -0.1337
27855W        W70949  22.864  25.148   9.604 -0.2676 -0.0454  0.0564
27856W        W70950  24.929  28.064   8.009  0.4021  0.1073 -0.3074
27857W        W70951  24.705  25.268   8.414 -0.3209 -0.2125 -0.0446
27858W        W70952  22.722  25.413   7.315 -0.4826  0.1027 -0.0644
27859W        W70953  23.904  27.382   9.778 -0.3928  0.3101 -0.4573
27860W        W70954  23.840  26.986  10.135 -0.2653  0.1118 -0.0012
27861W        W70955  23.784  27.885   6.784 -0.0156  0.3507 -0.2261
27862W        W70956  24.964  25.383   7.674 -0.0480 -0.2577 -0.0103
27863W        W70957  23.478  27.487   8.801 -0.2250 -0.2220 -0.2719
27864W        W70958  24.898  25.801   8.423  0.2464  0.3097 -0.1189
27865W        W70959  24.000  26.596   7.492 -0.1397 -0.2031 -0.0958
27866W        W70960  22.439  27.812   8.886  0.0345 -0.0988 -0.0670
27867W        W70961  24.609  27.764   9.024 -0.0386  0.1549  0.0689
27868W        W70962  23.496  25.674   7.639  0.2625 -0.1293  0.1819
27869W        W70963  26.509  27.090   9.696 -0.0718  0.2073  0.0751
27870W        W70964  25.523  25.572   7.254 -0.0003  0.0526  0.0031
27871W        W70965  23.639  21.018   9.970 -0.0377 -0.2282  0.2226
27872W        W70966  26.079  27.215   8.294 -0.3746  0.0327  0.1628
27873W        W70967  24.164  26.059   8.124 -0.0743 -0.1289 -0.2679
27874W        W70968  22.700  26.482   9.810 -0.0364 -0.0842  0.1021
27875W        W70969  22.932  26.087   7.051 -0.1347  0.3222  0.0842
27876W        W70970  22.952  27.734   8.823  0.1528 -0.1452  0.1318
27877W        W70971  22.763  27.792   9.286 -0.2693  0.1827 -0.2661
27878W        W70972  24.459  25.350   7.520  0.0644 -0.0526  0.1897
27879W        W70973  22.250  25.203   9.592 -0.0144 -0.0618  0.2256
27880W        W70974  23.822  25.625   6.560 -0.0022  0.4473  0.0441
27881W        W70975  22.939  26.839   8.367 -0.0098  0.1169  0.0663
27882W        W70976  25.737  27.434   9.970  0.1170 -0.0346 -0.1279
27883W        W70977  24.389  26.743   7.187  0.0050  0.1450  0.4456
27884W        W70978  22.311  28.481   7.380  0.0766 -0.0270 -0.1795
27885W        W70979  24.102  25.161   7.823 -0.2915  0.0027 -0.0015
27886W        W70980  23.224  28.063   9.593  0.2467  0.3335  0.2023
27887W        W70981  23.236  28.470   8.625 -0.1054 -0.1883  0.1804
27888W        W70982  22.864  24.802   9.241  0.1734 -0.0845  0.0515
27889W        W70983  24.506  26.237   7.117  0.2066  0.2005  0.0682
27890W        W70984  25.417  27.307   8.299 -0.0165  0.2335 -0.2084
27891W        W70985  23.626  26.064  10.278  0.0635 -0.2373 -0.0293
27892W        W70986  25.449  27.893   8.458 -0.1587 -0.1349 -0.0586
27893W        W70987  21.947  27.497  10.085  0.0521 -0.2620  0.1317
27894W        W70988  24.784  26.634   8.755  0.0010 -0.3144 -0.4169
27895W        W70989  23.028  26.546   8.033  0.3774  0.2309 -0.1074
27896W        W70990  25.040  27.955   7.014 -0.2025  0.1025  0.4811
27897W        W70991  21.339  29.314  10.422 -0.1492 -0.3430  0.1118
27898W        W70992  23.231  28.882   9.008  0.1205 -0.1243 -0.0065
27899W        W70993  25.887  27.505   7.368 -0.1407  0.1105  0.0878
27900W        W70994  24.584  26.593   6.247 -0.1824  0.0718  0.4101
27901W        W70995  25.919  29.884  10.564  0.0661 -0.2753  0.0521
27902W        W70996  23.844  26.680   7.000  0.0065  0.0912  0.1662
27903W        W70997  21.889  28.656   9.275  0.0127  0.1111 -0.0563
27904W        W70998  21.160  28.443   6.891  0.0590 -0.1495 -0.1586
27905W        W70999  24.717  28.835   8.291 -0.1816 -0.3406  0.0473
27906W        W71000  24.110  28.617  10.521 -0.0388  0.1077 -0.3270
27907W        W71001  25.648  25.519   8.192 -0.3827 -0.0727 -0.0756
27908W        W71002  26.247  26.735   7.579 -0.3801  0.0868 -0.0945
27909W        W71003  25.549  26.830   7.633 -0.0958 -0.0071  0.1670
27910W        W71004  24.040  25.349   9.190  0.1672  0.0722  0.4029
27911W        W71005  23.065  25.258   6.952  0.6100  0.2276 -0.0672
27912W        W71006  25.433  28.231   8.101 -0.0295 -0.1880 -0.0138
27913W        W71007  22.339  25.657   8.260 -0.1134  0.0882 -0.0819
27914W        W71008  24.326  26.353   8.691  0.2350  0.0425 -0.1328
27915W        W71009  26.579  22.830  10.072 -0.0501 -0.2112  0.0234
27916W        W71010  21.425  26.991   7.027 -0.4014 -0.2153 -0.1116
27917W        W71011  24.408  26.862   8.184  0.2782 -0.0150  0.0726
27918W        W71012  23.382  27.969   8.703  0.0575  0.0596 -0.1788
27919W        W71013  23.794  28.210   8.608  0.0805  0.0688  0.2647
27920W        W71014  22.884  29.237  10.524 -0.4781 -0.0280 -0.0218
27921W        W71015  20.693  26.397   8.794  0.0656 -0.0298  0.2812
27922W        W71016  24.686  25.791   7.417  0.2721  0.2981  0.0180
27923W        W71017  23.326  27.762   9.162  0.1966  0.1263  0.1837
27924W        W71018  21.844  27.131   9.204  0.0538 -0.0217 -0.1820
27925W        W71019  24.896  26.358   7.449 -0.0877  0.0623  0.1092
27926W        W71020  23.811  25.175  10.137 -0.0916 -0.0473 -0.4809
27927W        W71021  21.510  27.640   9.395 -0.0343  0.4120 -0.1107
27928W        W71022  23.154  26.401   5.548  0.2799 -0.0866 -0.2591
27929W        W71023  22.780  27.233   7.471  0.1978 -0.1294  0.1123
27930W        W71024  21.570  25.000  10.441  0.0006  0.3361  0.0553
27931W        W71025  24.404  25.834   6.526  0.1907 -0.1858  0.3514
27932W        W71026  21.291  28.071   8.375  0.1960 -0.3319 -0.2585
27933W        W71027  26.097  21.513   9.751 -0.1412 -0.3536  0.0874
27934W        W71028  22.698  25.491   8.826  0.0582 -0.0134 -0.0264
27935W        W71029  25.314  27.954   7.567 -0.0503  0.2997  0.0458
27936W        W71030  24.602  25.226   9.263 -0.2788  0.1013 -0.0266
27937W        W71031  23.184  27.664   8.390  0.0044  0.0669 -0.2343
27938W        W71032  23.796  25.754   7.224 -0.0707  0.1103 -0.0159
27939W        W71033  24.683  26.261   8.351  0.6209  0.2872 -0.0602
27940W        W71034  23.405  26.001   9.789  0.2195  0.2624 -0.0012
27941W        W71035  23.276  28.718   9.883 -0.1230 -0.1350  0.1008
27942W        W71036  24.462  26.609   9.108  0.1172  0.1112  0.1112
27943W        W71037  23.620  23.710   9.568  0.1447 -0.0737  0.0121
27944W        W71038  23.195  26.690   8.980 -0.2551  0.1948  0.2279
27945W        W71039  21.567  26.884   8.168 -0.2849  0.1259 -0.2114
27946W        W71040  24.806  27.063   9.055 -0.1559 -0.0845  0.0862
27947W        W71041  24.248  28.487   7.366 -0.2065  0.1503 -0.3557
27948W        W71042  22.872  26.943   9.941  0.0633 -0.0344 -0.3887
27949W        W71043  20.858  27.268   8.309  0.1823  0.1394 -0.0295
27950W        W71044  21.986  26.915   8.658 -0.2021  0.2907 -0.0880
27951W        W71045  23.604  28.292   7.607 -0.0396 -0.0351  0.1068
27952W        W71046  24.495  28.779   8.714 -0.1055  0.2649  0.1418
27953W        W71047  25.003  24.855   8.433 -0.3319 -0.1965 -0.2770
27954W        W71048  24.401  27.311   9.066  0.0225  0.1552  0.2068
27955W        W71049  23.257  24.166   9.945 -0.0585  0.4195 -0.1417
27956W        W71050  24.290  25.752   9.086 -0.3224  0.1480 -0.2173
27957W        W71051  25.628  24.685   8.113  0.2656  0.3117  0.2904
27958W        W71052  23.031  27.830  10.422 -0.0035  0.3233  0.2020
27959W        W71053  23.527  26.494   7.708  0.2648  0.3421 -0.1341
27960W        W71054  22.465  28.018   7.184 -0.1140  0.0828  0.1283
27961W        W71055  22.178  26.582   9.939  0.1882 -0.0302  0.1089
27962W        W71056  22.179  27.411   8.671 -0.1184  0.0120  0.0835
27963W        W71057  23.910  27.400   9.237 -0.0079  0.0678  0.0394
27964W        W71058  25.314  28.955   7.581  0.0247  0.1323 -0.1706
27965W        W71059  24.590  26.367  10.335  0.0642 -0.2354 -0.1127
27966W        W71060  22.790  25.831   8.075  0.1763 -0.0546  0.2022
27967W        W71061  24.531  27.274   5.801 -0.2060 -0.1539 -0.3918
27968W        W71062  24.013  28.187   7.823 -0.0943  0.1082 -0.1653
27969W        W71063  23.785  25.767   8.113 -0.1011  0.2215  0.2427
27970W        W71064  22.189  27.844   8.403 -0.0471 -0.3116 -0.2094
27971W        W71065  22.612  26.727   7.483 -0.2669 -0.0832  0.1581
27972W        W71066  22.545  26.472  10.344  0.2791  0.0409  0.4346
27973W        W71067  24.178  28.164   9.375  0.1632 -0.0356 -0.1915
27974W        W71068  24.749  28.702   6.626 -0.1379  0.0849  0.3468
27975W        W71069  22.796  25.309   7.892 -0.1083 -0.0003  0.1439
27976W        W71070  24.767  26.937   6.847 -0.2426  0.1027  0.1727
27977W        W71071  24.814  27.676   7.669  0.0055 -0.3867  0.2691
27978W        W71072  22.057  25.498  10.367  0.2043  0.0498 -0.1565
27979W        W71073  23.922  27.505   7.739 -0.0727  0.0705  0.0048
27980W        W71074  25.271  26.961   9.569  0.2027  0.0487  0.1577
27981W        W71075  22.689  24.927   8.773 -0.1532  0.0156 -0.0811
27982W        W71076  25.426  26.734   8.542  0.2964  0.2138  0.1594
27983W        W71077  24.329  27.627   7.509 -0.2273  0.2754  0.1493
27984W        W71078  22.593  27.461   9.645  0.2211  0.0388 -0.1271
27985W        W71079  23.420  26.694   7.218  0.0725  0.2546 -0.2375
27986W        W71080  24.642  27.932   9.906  0.1328  0.1379  0.1527
27987W        W71081  23.763  26.075   7.654 -0.0839 -0.1269  0.1269
27988W        W71082  25.442  27.189   7.275 -0.1697 -0.4079 -0.0532
27989W        W71083  23.115  26.416  10.061 -0.1134  0.0991 -0.4188
27990W        W71084  22.355  28.725   9.189  0.1889  0.4491  0.0843
27991W        W71085  26.426  24.932   8.505  0.0023  0.0810 -0.2075
27992W        W71086  21.727  25.681   9.664  0.0509 -0.0968 -0.2517
27993W        W71087  21.492  26.572   8.511 -0.3794 -0.0725 -0.2657
27994W        W71088  22.052  26.898   8.152 -0.1499  0.1200  0.0708
27995W        W71089  25.615  26.308   8.776  0.0101  0.0807 -0.0403
27996W        W71090  23.306  26.336   8.431  0.0394  0.1668  0.1950
27997W        W71091  23.218  25.705   7.165 -0.1964  0.0859 -0.1085
27998W        W71092  22.593  28.114  10.198  0.2410 -0.1163 -0.0053
27999W        W71093  23.994  26.237   9.108  0.4314 -0.0250 -0.3647
28000W        W71094  23.596  32.019   4.638  0.1113 -0.0382 -0.1243
28001W        W71095  21.215  29.213   2.388  0.4039 -0.0488 -0.3588
28002W        W71096  25.188  30.551   0.415 -0.0140 -0.0376  0.1899
28003W        W71097  26.411  31.858   0.843  0.0187 -0.1300  0.3115
28004W        W71098  22.467  28.811   1.199 -0.0209  0.0408  0.0666
28005W        W71099  23.894  30.694  31.747  0.1988 -0.1938 -0.2189
28006W        W71100  22.910  27.987   2.819  0.0050  0.0888  0.0343
28007W        W71101  23.905  31.900   1.139  0.0193  0.3242 -0.4755
28008W        W71102  24.180  32.318   1.861  0.1080  0.0508  0.1604
28009W        W71103  25.428  30.049   0.158 -0.1871  0.0705 -0.1083
28010W        W71104  22.864  31.169   1.369  0.3142  0.1576 -0.0581
28011W        W71105  23.427  31.845   2.090  0.1757  0.1547  0.0179
28012W        W71106  22.320  29.796   0.985  0.2141  0.0841 -0.0184
28013W        W71107  21.948  28.107   1.514  0.2526 -0.3940 -0.1332
28014W        W71108  23.662  30.790   1.175 -0.0487 -0.0790  0.3500
28015W        W71109  22.098  29.504   2.270  0.3085  0.3277 -0.1818
28016W        W71110  21.614  29.774   3.982  0.0968 -0.1339 -0.1581
28017W        W71111  23.199  30.551   0.977  0.0366  0.0905 -0.1290
28018W        W71112  23.547  32.827   1.080 -0.0166 -0.0452 -0.2260
28019W        W71113  23.770  29.928   4.131 -0.0815  0.0241 -0.0403
28020W        W71114  23.683  29.601   3.684  0.0449  0.4662 -0.3344
28021W        W71115  23.610  31.935   0.566  0.0025  0.0324 -0.2217
28022W        W71116  21.065  31.369   0.152 -0.1684 -0.1862  0.1169
28023W        W71117  23.597  31.124   3.462  0.0482 -0.0484 -0.4226
28024W        W71118  22.169  30.683   2.168  0.3870 -0.0890  0.0944
28025W        W71119  23.274  30.578   1.495  0.2910 -0.0649 -0.1658
28026W        W71120  25.329  29.780   2.058 -0.0917 -0.3355  0.2508
28027W        W71121  22.913  31.617   2.240 -0.0575 -0.0060 -0.0002
28028W        W71122  25.273  32.212   1.025  0.1348 -0.1278  0.0234
28029W        W71123  24.369  29.700   3.315 -0.2479 -0.1680  0.0223
28030W        W71124  21.494  31.901   1.039 -0.1776  0.0038 -0.0219
28031W        W71125  23.063  32.553   0.949  0.0058 -0.0329  0.3827
28032W        W71126  23.151  31.206  30.854 -0.3698  0.6005  0.0821
28033W        W71127  24.804  33.192   1.180  0.1480 -0.0769  0.0370
28034W        W71128  25.285  32.426   2.768  0.1688  0.0677  0.0031
28035W        W71129  24.837  33.007   2.839 -0.0480  0.0301  0.4367
28036W        W71130  22.927  30.928   0.406  0.0552 -0.0171 -0.1509
28037W        W71131  25.872  31.636   2.924 -0.1905 -0.2613  0.0801
28038W        W71132  23.996  31.940   3.715  0.2089  0.0211 -0.0125
28039W        W71133  23.648  30.288   2.707 -0.3251 -0.2421 -0.2650
28040W        W71134  24.108  30.031   0.198 -0.0185 -0.0305  0.0155
28041W        W71135  23.156  31.704  30.738 -0.4381 -0.1683  0.0571
28042W        W71136  25.015  32.145   1.955 -0.1529  0.0761 -0.1402
28043W        W71137  22.871  30.660   3.937 -0.3205 -0.2378  0.2741
28044W        W71138  22.323  31.297   1.458 -0.2730  0.1953  0.0586
28045W        W71139  25.674  29.335   5.147  0.1801  0.0764  0.0971
28046W        W71140  23.020  32.498  30.980  0.0662 -0.0998  0.1450
28047W        W71141  23.191  32.687  30.507 -0.3915  0.0793 -0.3329
28048W        W71142  23.200  29.467  31.905  0.3156  0.2477 -0.3154
28049W        W71143  24.427  29.909  31.823  0.0079  0.0644  0.1809
28050W        W71144  22.091  29.083   1.412 -0.1690 -0.2861  0.0282
28051W        W71145  23.970  33.119   1.717 -0.1727  0.1454 -0.1205
28052W        W71146  22.991  28.741   1.309 -0.4010 -0.2575 -0.0206
28053W        W71147  25.234  32.669   1.931  0.0942 -0.3365  0.0881
28054W        W71148  23.846  30.902   0.297 -0.0317 -0.0242  0.2953
28055W        W71149  23.929  30.393   1.960 -0.0119  0.1607 -0.0294
28056W        W71150  23.112  31.202   3.439  0.1801  0.3263 -0.3203
28057W        W71151  22.505  30.742   2.648 -0.1724  0.1177  0.1246
28058W        W71152  26.793  31.720   0.427 -0.0215 -0.3225 -0.2635
28059W        W71153  25.125  33.061  31.570  0.1050  0.0427  0.0297
28060W        W71154  23.993  32.621   0.461 -0.4852 -0.1459  0.1009
28061W        W71155  23.828  29.872   0.957  0.3816 -0.2458  0.5655
28062W        W71156  22.505  32.069   2.828 -0.0988 -0.0922 -0.1103
28063W        W71157  24.186  31.254   1.735  0.3316 -0.1769 -0.1368
28064W        W71158  22.706  29.564  31.581  0.1346  0.0792  0.1940
28065W        W71159  25.300  31.888   4.095 -0.0437  0.2062  0.1081
28066W        W71160  24.186  32.456   2.988 -0.2679 -0.1144 -0.1543
28067W        W71161  25.969  29.772   1.071 -0.0378 -0.0399 -0.0830
28068W        W71162  22.683  31.385   1.810 -0.1669  0.0576  0.0982
28069W        W71163  25.081  32.387   3.260 -0.1096 -0.2615  0.2156
28070W        W71164  25.837  31.531  30.838 -0.0207  0.0108  0.2456
28071W        W71165  23.889  28.889   0.916 -0.1154  0.2012 -0.1645
28072W        W71166  26.314  30.009   2.260 -0.3600 -0.1710  0.2483
28073W        W71167  22.883  30.565   0.043  0.1487 -0.0730 -0.0094
28074W        W71168  23.057  30.123   1.492  0.0080 -0.0253  0.2741
28075W        W71169  25.033  31.307   0.923  0.2720 -0.2738  0.1098
28076W        W71170  25.847  31.719   0.290  0.1684  0.0031  0.2676
28077W        W71171  22.462  31.783   2.409  0.2293  0.0444 -0.0363
28078W        W71172  23.511  30.677   3.796 -0.0264  0.0464 -0.0667
28079W        W71173  24.464  31.878   2.622 -0.0895  0.1941  0.4999
28080W        W71174  22.545  33.485   1.661  0.1566 -0.1761  0.1701
28081W        W71175  21.506  31.801   2.072 -0.0775  0.1595 -0.0432
28082W        W71176  23.409  30.799   0.562  0.1406  0.0936  0.0006
28083W        W71177  22.312  28.454   1.581 -0.0029  0.0934 -0.1821
28084W        W71178  23.501  32.266   1.941  0.5002 -0.1007 -0.1103
28085W        W71179  24.543  31.425   0.884 -0.3591 -0.2811  0.2008
28086W        W71180  22.393  28.993   2.272 -0.2319 -0.2545  0.0348
28087W        W71181  24.952  30.170   2.361 -0.1748  0.3369  0.3022
28088W        W71182  22.168  32.591   0.979  0.2459  0.0401 -0.0986
28089W        W71183  24.756  32.251  31.566 -0.1097 -0.0512 -0.1673
28090W        W71184  24.385  30.377  31.975  0.0854 -0.1394  0.1130
28091W        W71185  24.108  33.133  31.123 -0.1687  0.0329  0.2049
28092W        W71186  21.960  29.414   3.117 -0.0176  0.0637  0.1498
28093W        W71187  23.488  31.555   0.838 -0.3199  0.0718 -0.2868
28094W        W71188  22.748  30.175   3.985 -0.3150  0.1967  0.1031
28095W        W71189  22.781  30.295   3.077 -0.3869  0.2339  0.0590
28096W        W71190  26.045  30.604   3.915 -0.0995  0.3508  0.1379
28097W        W71191  22.551  29.202   0.466 -0.1541 -0.1903 -0.2346
28098W        W71192  25.156  30.692   2.274  0.0155  0.2017 -0.0268
28099W        W71193  22.478  30.690   0.385 -0.1776 -0.2860  0.0628
28100W        W71194  20.895  30.683   1.628  0.0983 -0.2232 -0.0133
28101W        W71195  24.658  29.065   3.677 -0.0550  0.0216 -0.1477
28102W        W71196  24.110  32.500   0.011 -0.0549  0.0245  0.2381
28103W        W71197  26.004  32.168   0.610  0.2580  0.3384  0.0883
28104W        W71198  25.243  33.756   0.546  0.0375  0.1466 -0.3500
28105W        W71199  23.427  27.805   2.364 -0.0945 -0.3075 -0.0716
28106W        W71200  21.753  29.408   2.567 -0.0294 -0.0625 -0.0216
28107W        W71201  22.030  32.186   2.836  0.1615  0.0353 -0.3737
28108W        W71202  24.429  31.929   0.918 -0.1107 -0.0226  0.1301
28109W        W71203  23.878  29.655   1.593 -0.0043 -0.0120  0.1352
28110W        W71204  25.449  33.739   0.117 -0.0583 -0.0737 -0.1986
28111W        W71205  24.708  30.754   0.188  0.3441 -0.0625  0.2371
28112W        W71206  23.413  31.021   2.583  0.2952  0.2804 -0.1879
28113W        W71207  24.398  30.557   2.363  0.1797  0.2476  0.2600
28114W        W71208  25.629  30.336   4.102  0.0337  0.1090  0.1654
28115W        W71209  25.206  31.867   1.447 -0.3819 -0.1787 -0.1246
28116W        W71210  22.029  30.051   0.238 -0.0590 -0.1201  0.0541
28117W        W71211  23.779  34.184   1.337  0.3131 -0.1744  0.0746
28118W        W71212  22.193  31.979   0.235  0.3244 -0.1376 -0.0398
28119W        W71213  22.793  30.870   0.931 -0.1525 -0.1434  0.2300
28120W        W71214  23.760  31.235  31.807  0.3189 -0.2125  0.5638
28121W        W71215  24.472  29.359   0.996 -0.1606  0.0547  0.0276
28122W        W71216  23.155  31.268   2.910  0.0919  0.3335 -0.1795
28123W        W71217  24.523  30.124   2.635  0.2772 -0.0708 -0.2394
28124W        W71218  22.228  31.646   0.876 -0.0255  0.0655 -0.0313
28125W        W71219  21.231  32.191   1.934  0.3708 -0.3478 -0.2913
28126W        W71220  24.611  30.598   1.042 -0.5222 -0.0109 -0.0554
28127W        W71221  25.350  29.324  31.153  0.1260 -0.0016  0.4823
28128W        W71222  23.409  30.877   3.108 -0.2010  0.2513  0.1382
28129W        W71223  25.948  32.118   0.006  0.0315 -0.1069 -0.0369
28130W        W71224  24.450  28.836   0.698  0.0644  0.1301 -0.0006
28131W        W71225  24.762  29.608   0.671 -0.0868  0.2680 -0.5758
28132W        W71226  21.571  30.811   3.750 -0.3967 -0.1838  0.2361
28133W        W71227  23.648  31.353   0.348 -0.0846 -0.2125  0.4045
28134W        W71228  23.038  32.055   2.398  0.1341  0.0652  0.0172
28135W        W71229  23.468  30.222   0.602 -0.0845 -0.2232  0.1302
28136W        W71230  26.071  32.635   0.456  0.2401  0.1429  0.0765
28137W        W71231  20.692  31.789   1.311  0.2879  0.1606 -0.2388
28138W        W71232  24.639  31.199   5.014 -0.2452  0.1820  0.1701
28139W        W71233  25.038  32.836   1.516  0.2900  0.0636  0.0051
28140W        W71234  23.268  29.995   2.754  0.1915  0.2978  0.0458
28141W        W71235  23.680  29.202  31.767  0.0779 -0.0665 -0.0889
28142W        W71236  24.657  31.169   1.955 -0.0026  0.0057  0.1146
28143W        W71237  22.680  32.183   0.327  0.4702 -0.0503 -0.3266
28144W        W71238  25.407  29.229   3.250  0.1486  0.0577 -0.0055
28145W        W71239  25.063  30.250   1.903  0.0895 -0.0183  0.0467
28146W        W71240  22.650  29.909   2.809  0.2604 -0.0667  0.0244
28147W        W71241  25.514  29.379   3.720 -0.1997  0.3511 -0.1683
28148W        W71242  23.903  32.681  31.083 -0.1833  0.0458  0.3112
28149W        W71243  24.454  31.695   1.759 -0.1568  0.0533 -0.0571
28150W        W71244  21.863  31.418  31.876  0.1043 -0.0917  0.2613
28151W        W71245  22.896  29.320   4.948 -0.1442 -0.0878 -0.1770
28152W        W71246  21.913  30.824   1.691  0.0725 -0.0766 -0.1526
28153W        W71247  22.683  31.434   3.234 -0.2592  0.0300 -0.0800
28154W        W71248  24.404  31.694   3.512  0.1783  0.2820  0.1056
28155W        W71249  24.953  31.810   0.905 -0.2551  0.0550  0.0842
28156W        W71250  24.719  30.062   3.195  0.2342  0.0891 -0.1220
28157W        W71251  24.933  29.692   1.803  0.3182 -0.3343  0.2261
28158W        W71252  22.850  33.145  31.899  0.1265 -0.0431  0.0695
28159W        W71253  22.407  30.326   1.113  0.2593 -0.0039 -0.0677
28160W        W71254  23.804  29.877   1.999 -0.5102  0.2195 -0.1123
28161W        W71255  24.348  32.792   2.716 -0.1317 -0.2141 -0.0534
28162W        W71256  23.144  31.887   0.801  0.1018 -0.3576  0.0085
28163W        W71257  24.266  30.505   5.317 -0.1240  0.3129 -0.2558
28164W        W71258  23.977  32.206   0.746 -0.0269  0.1420 -0.3822
28165W        W71259  25.255  29.763   2.743 -0.0840  0.1749 -0.0070
28166W        W71260  22.740  32.182   0.802  0.2287  0.1451 -0.0869
28167W        W71261  23.401  30.789   2.072 -0.2305  0.0321 -0.0301
28168W        W71262  22.713  29.572   1.087  0.0079  0.0321 -0.1281
28169W        W71263  23.350  29.749   1.567  0.0581  0.0757 -0.0432
28170W        W71264  26.715  33.691   0.103 -0.1761  0.0696  0.0795
28171W        W71265  23.036  30.664   2.517  0.0499 -0.1801  0.1338
28172W        W71266  22.270  28.017   0.839 -0.0296  0.0217  0.1419
28173W        W71267  22.759  32.498   2.726  0.0550 -0.4104  0.1280
28174W        W71268  24.271  30.822   1.962  0.1903 -0.1325  0.0969
28175W        W71269  24.545  29.942   0.374  0.3079 -0.0088  0.1880
28176W        W71270  25.482  33.257   2.038  0.4068 -0.1242  0.1340
28177W        W71271  24.053  30.912   3.545 -0.3500 -0.1425 -0.0724
28178W        W71272  22.887  30.322  31.234  0.1957  0.3854 -0.1804
28179W        W71273  25.238  30.607   3.789 -0.1616  0.0287  0.2283
28180W        W71274  23.002  29.106   1.774 -0.2254  0.0156 -0.1452
28181W        W71275  23.015  32.716  31.463 -0.3293 -0.0242 -0.3416
28182W        W71276  24.625  33.016   2.319 -0.0591 -0.3453 -0.1457
28183W        W71277  22.633  31.648  30.632 -0.3109 -0.1395  0.0850
28184W        W71278  23.746  31.418   1.246  0.2115  0.1948  0.0274
28185W        W71279  23.919  29.241   4.037 -0.0483  0.1731  0.3242
28186W        W71280  25.387  31.897   2.165 -0.0275  0.2376  0.1178
28187W        W71281  22.189  30.199   2.188  0.0408 -0.0895 -0.0456
28188W        W71282  23.830  29.387   1.174 -0.1792  0.1000  0.0612
28189W        W71283  23.353  31.294   2.175  0.0494 -0.0705  0.0314
28190W        W71284  24.592  32.535   2.137 -0.2693  0.1000 -0.1323
28191W        W71285  23.854  31.007   2.832  0.0756  0.0894 -0.0513
28192W        W71286  23.161  31.738   3.217  0.0678 -0.0007 -0.1286
28193W        W71287  24.529  28.496   2.083  0.3217 -0.1807  0.4051
28194W        W71288  25.996  33.097   0.525  0.0097 -0.0606 -0.1519
28195W        W71289  25.057  30.250   3.546 -0.1517  0.1506  0.0388
28196W        W71290  23.286  29.976  31.118  0.1040 -0.2797 -0.1747
28197W        W71291  22.340  29.849   1.843  0.1463  0.1990 -0.1710
28198W        W71292  23.810  30.443   0.222  0.0121 -0.0676 -0.1303
28199W        W71293  24.010  31.439   3.632  0.0744  0.2734  0.0425
28200W        W71294  24.391  32.220   3.410 -0.0886  0.0806  0.0035
28201W        W71295  23.464  32.186   1.049 -0.0033  0.0986 -0.1804
28202W        W71296  21.728  31.509   1.719  0.2577  0.2124  0.0576
28203W        W71297  25.343  28.071   0.266 -0.1726 -0.0289  0.0404
28204W        W71298  24.458  32.792   0.764 -0.3221 -0.1265  0.0858
28205W        W71299  23.423  31.926   1.585  0.0262 -0.2715 -0.3511
28206W        W71300  24.349  30.362   1.715  0.2300  0.0289  0.0586
28207W        W71301  24.495  31.887  30.010  0.1050  0.0351 -0.0832
28208W        W71302  24.194  29.482   5.082  0.0805  0.1634  0.1125
28209W        W71303  23.422  28.924   1.229  0.1009 -0.0802  0.1830
28210W        W71304  24.959  32.649  31.843  0.0178 -0.0409  0.3075
28211W        W71305  22.687  30.277   2.429 -0.0996 -0.0939 -0.2040
28212W        W71306  25.053  31.693   2.528 -0.0142  0.2921  0.1613
28213W        W71307  23.658  30.150   3.639 -0.0180 -0.1167 -0.0923
28214W        W71308  23.376  30.492  31.549 -0.1847  0.1025  0.1505
28215W        W71309  21.810  28.625   1.500 -0.3786 -0.2914 -0.0251
28216W        W71310  22.793  31.687   4.495  0.2093  0.0987  0.1081
28217W        W71311  24.926  32.190   2.433 -0.1768  0.1082 -0.3412
28218W        W71312  24.909  33.397  31.136  0.1220  0.0461 -0.0308
28219W        W71313  25.294  30.949   0.746  0.0823  0.1079 -0.2143
28220W        W71314  23.126  32.287  31.852  0.2969  0.0479 -0.0421
28221W        W71315  23.137  31.414   0.461  0.0041  0.1350  0.0020
28222W        W71316  24.128  31.550  31.085 -0.2342  0.0593 -0.2564
28223W        W71317  23.035  30.882   1.764 -0.0329  0.0318  0.0317
28224W        W71318  23.442  27.850   3.563 -0.2395  0.1619  0.3249
28225W        W71319  23.901  30.752   1.617 -0.4594  0.0995 -0.1251
28226W        W71320  23.339  29.454   2.016 -0.2378  0.3118 -0.0201
28227W        W71321  24.182  30.649   2.821  0.2047  0.0387 -0.1395
28228W        W71322  24.826  31.021   2.428  0.1329  0.0011  0.0190
28229W        W71323  24.272  29.810   4.174  0.1181 -0.0606 -0.1269
28230W        W71324  23.122  30.143   3.537  0.0415 -0.0066  0.0878
28231W        W71325  25.084  33.966   2.702  0.0351 -0.2679  0.2296
28232W        W71326  24.215  31.595   1.337 -0.1751 -0.1215 -0.1210
28233W        W71327  25.004  29.566   3.723 -0.2545 -0.3083 -0.0960
28234W        W71328  24.337  30.713   0.534 -0.5007 -0.1397 -0.1063
28235W        W71329  24.309  32.181   0.387  0.0417 -0.0088  0.0703
28236W        W71330  23.495  31.079   1.571  0.0929  0.3644 -0.1286
28237W        W71331  24.301  31.138   4.446 -0.1928  0.1526  0.2176
28238W        W71332  21.708  29.659  30.763 -0.0971 -0.1044 -0.0880
28239W        W71333  24.740  29.674   2.861 -0.0165  0.1971  0.0822
28240W        W71334  22.992  32.930  30.008  0.1114 -0.0493 -0.1549
28241W        W71335  24.672  32.458   1.650  0.1581 -0.0223  0.2872
28242W        W71336  24.828  30.613   1.510  0.1824 -0.0220 -0.3092
28243W        W71337  21.577  29.653   2.066  0.1427  0.0418  0.4650
28244W        W71338  23.626  31.469   3.006  0.0420  0.1837 -0.3187
28245W        W71339  22.990  30.992  31.727  0.2208 -0.1778 -0.3419
28246W        W71340  23.617  31.734  30.995 -0.1475  0.0370  0.2165
28247W        W71341  24.968  33.120   1.971  0.2864 -0.0429 -0.2192
28248W        W71342  26.337  31.506   3.496 -0.0231  0.0447  0.1916
28249W        W71343  26.297  29.124   1.229  0.0358 -0.0104  0.1701
28250W        W71344  25.643  28.737   3.663  0.0627 -0.0023  0.1858
28251W        W71345  21.265  31.284   1.922 -0.3068 -0.1264  0.3501
28252W        W71346  23.867  28.525   1.295  0.1303 -0.0862  0.1965
28253W        W71347  24.225  31.036   1.041  0.2026 -0.1197 -0.1161
28254W        W71348  23.791  32.339   1.427 -0.2967 -0.1635 -0.2381
28255W        W71349  23.205  31.652   1.245  0.1016  0.3889  0.1241
28256W        W71350  22.969  29.782   2.179  0.2123 -0.3785  0.1459
28257W        W71351  24.274  31.129   2.385  0.5055  0.2138  0.1083
28258W        W71352  25.416  31.670   1.041  0.2733  0.2174 -0.1218
28259W        W71353  25.425  30.141   3.186  0.1292  0.0924 -0.2124
28260W        W71354  24.532  31.074   2.846 -0.1283  0.0946 -0.1112
28261W        W71355  22.150  31.614   1.967  0.0651  0.0396  0.1580
28262W        W71356  23.892  31.900   2.691 -0.0305 -0.3894 -0.1393
28263W        W71357  25.148  32.215   0.539 -0.0765  0.0409  0.0508
28264W        W71358  24.333  31.458  31.887 -0.3235 -0.1966 -0.0179
28265W        W71359  21.789  30.226   3.205 -0.4770  0.1198  0.0938
28266W        W71360  23.790  30.471   3.189  0.1066  0.0093 -0.0979
28267W        W71361  25.159  32.370   1.533 -0.4920 -0.0379 -0.0034
28268W        W71362  22.247  29.270   0.973  0.0085 -0.3320  0.2562
28269W        W71363  23.298  31.249   0.004 -0.0123 -0.2054  0.2238
28270W        W71364  21.741  32.644   2.805 -0.1847 -0.0900 -0.1169
28271W        W71365  22.181  30.378   1.621  0.0630  0.1153 -0.1181
28272W        W71366  22.757  33.080   0.947  0.1546  0.0486  0.2486
28273W        W71367  25.272  33.004   0.074  0.2139 -0.0984 -0.1708
28274W        W71368  24.494  33.075  31.454  0.3891 -0.2120  0.4001
28275W        W71369  25.173  34.041   1.684 -0.0398 -0.2145 -0.1317
28276W        W71370  22.174  29.771  30.875  0.1032 -0.1714 -0.0410
28277W        W71371  23.205  32.476   1.543 -0.2018 -0.1917  0.3046
28278W        W71372  22.633  31.818   0.014  0.0053 -0.4002  0.0547
28279W        W71373  23.886  31.690  31.528  0.1106  0.0991  0.1131
28280W        W71374  22.192  32.118   0.711 -0.4203 -0.0596 -0.1405
28281W        W71375  24.275  30.202   3.340  0.1241 -0.1809 -0.1597
28282W        W71376  24.864  29.456  30.915 -0.2341 -0.1691  0.0268
28283W        W71377  25.124  30.973   1.753 -0.0908 -0.1315 -0.0454
28284W        W71378  24.247  31.246   0.480  0.1016  0.1539  0.2647
28285W        W71379  24.444  32.434   4.255 -0.1119  0.1583 -0.0570
28286W        W71380  23.875  31.101   2.072  0.0841 -0.2989  0.0655
28287W        W71381  24.224  30.041  31.197 -0.2397 -0.0714 -0.1387
28288W        W71382  22.915  30.811   3.032  0.2142 -0.0881  0.0275
28289W        W71383  26.466  29.389   3.753 -0.1441 -0.0009  0.0739
28290W        W71384  24.761  32.057   3.021  0.1237  0.1270 -0.3083
28291W        W71385  25.003  33.472   0.097  0.5506 -0.0059  0.1606
28292W        W71386  22.523  30.953  31.970  0.2844 -0.3094 -0.1424
28293W        W71387  22.422  30.900   1.788  0.3449  0.0965 -0.1024
28294W        W71388  25.825  28.850   2.384  0.1509 -0.1214 -0.1524
28295W        W71389  23.439  31.658  31.720 -0.0266 -0.0752  0.0056
28296W        W71390  24.013  30.084   2.399 -0.0279  0.0899 -0.1177
28297W        W71391  23.450  34.617   1.317  0.3189 -0.2705 -0.4376
28298W        W71392  22.825  31.661   2.794  0.1357 -0.0566  0.3009
28299W        W71393  23.565  32.235   2.961 -0.1451 -0.0364 -0.0508
28300W        W71394  22.040  29.972   1.435 -0.1317  0.2453  0.1348
28301W        W71395  25.621  31.104   1.569 -0.1508 -0.0318  0.0709
28302W        W71396  22.627  30.409   3.508  0.2165 -0.0282 -0.0144
28303W        W71397  25.124  30.541   3.196  0.1975 -0.1371  0.2428
28304W        W71398  22.411  31.167   1.009 -0.0430 -0.1605 -0.0934
28305W        W71399  25.589  32.461   0.419  0.0419  0.0902 -0.0572
28306W        W71400  24.548  32.930   1.787  0.1530  0.3712 -0.3199
28307W        W71401  22.476  31.191   2.211 -0.1117  0.0518 -0.0393
28308W        W71402  23.253  29.740   0.834 -0.0081 -0.2337  0.1167
28309W        W71403  25.306  31.330   3.904  0.0680 -0.0135  0.1100
28310W        W71404  23.977  30.695  30.423  0.0370 -0.0026 -0.2623
28311W        W71405  25.529  31.455   3.321  0.2772 -0.1216  0.2126
28312W        W71406  23.266  31.142   1.057 -0.2502  0.0448  0.0102
28313W        W71407  23.868  30.551   0.760  0.0524 -0.0360 -0.0669
28314W        W71408  21.820  30.561   1.238  0.0549 -0.2723 -0.1211
28315W        W71409  23.247  30.379   3.120  0.1206  0.2301 -0.0594
28316W        W71410  24.445  33.487   4.036  0.1329 -0.0822 -0.1749
28317W        W71411  22.588  30.269   1.849 -0.1484  0.0562 -0.0063
28318W        W71412  24.104  33.007   0.032  0.0362 -0.0210  0.1134
28319W        W71413  23.912  30.654   2.394 -0.1924 -0.1318  0.1066
28320W        W71414  21.537  32.847  31.057  0.2586  0.0173 -0.2663
28321W        W71415  25.140  31.303   1.423 -0.2250  0.2409 -0.1684
28322W        W71416  24.142  33.684   0.594 -0.1709 -0.0863  0.0775
28323W        W71417  21.624  29.868   2.905 -0.0307  0.0064 -0.1750
28324W        W71418  24.641  33.434   1.885 -0.3097  0.2938  0.1428
28325W        W71419  24.739  32.509   2.844  0.0649  0.1319 -0.1036
28326W        W71420  24.544  30.198   1.264  0.4922  0.2608 -0.0870
28327W        W71421  23.096  30.370   1.991  0.1071  0.0753  0.0169
28328W        W71422  22.675  31.663   1.364  0.3434 -0.2983  0.0070
28329W        W71423  25.265  31.203   2.163  0.0138 -0.1570 -0.2235
28330W        W71424  24.300  29.614   2.637  0.0989  0.1020  0.2711
28331W        W71425  23.037  33.662  31.176  0.0805 -0.0343 -0.0481
28332W        W71426  24.266  29.606   2.157 -0.1794  0.0363 -0.0283
28333W        W71427  25.517  31.858   2.621 -0.0438 -0.3427  0.0433
28334W        W71428  24.128  32.644   3.569  0.2199  0.2069 -0.1407
28335W        W71429  24.051  31.634   0.739 -0.0933 -0.1431  0.1276
28336W        W71430  23.116  30.692   3.497  0.2717 -0.0098 -0.0318
28337W        W71431  23.802  31.111   0.802 -0.1748 -0.0896  0.2338
28338W        W71432  24.396  32.011  31.855  0.3562  0.0983 -0.0466
28339W        W71433  24.575  32.785   1.306  0.0222  0.2063 -0.1385
28340W        W71434  22.531  31.274   2.709  0.1241  0.1866 -0.3722
28341W        W71435  26.181  31.302   0.620  0.0555 -0.1668 -0.1559
28342W        W71436  23.489  30.183   1.268  0.0409  0.0790 -0.1889
28343W        W71437  24.947  28.936   0.566  0.0673 -0.0870 -0.2495
28344W        W71438  23.851  28.754   1.980  0.0987  0.0762  0.0077
28345W        W71439  24.211  31.274   3.213 -0.1166  0.0823 -0.1660
28346W        W71440  22.433  32.898  31.618  0.1851  0.0964 -0.1257
28347W        W71441  22.760  29.841  31.118 -0.1904 -0.1596 -0.1680
28348W        W71442  23.677  32.287   0.174  0.1365  0.0632 -0.0677
28349W        W71443  23.622  29.674   2.400  0.0803  0.2264 -0.0836
28350W        W71444  22.478  29.592   4.293  0.3364 -0.2609  0.0758
28351W        W71445  21.074  31.707   1.705  0.0935 -0.0963 -0.0413
28352W        W71446  22.758  29.620   0.572 -0.2094  0.0961  0.2145
28353W        W71447  24.212  29.645   0.661  0.0464 -0.1077 -0.2052
28354W        W71448  22.702  30.665   2.118 -0.2221 -0.0033 -0.0202
28355W        W71449  21.086  29.123   1.708  0.0840 -0.1140 -0.2109
28356W        W71450  24.799  32.233   0.183  0.0683 -0.1889 -0.0470
28357W        W71451  25.386  31.501   0.555  0.1362  0.2052  0.2272
28358W        W71452  23.672  29.762  31.889  0.0375 -0.1429  0.0796
28359W        W71453  25.262  31.896   3.054 -0.0812  0.1214 -0.0538
28360W        W71454  22.330  31.410  31.546 -0.0529  0.0263 -0.4760
28361W        W71455  24.075  30.163   4.467  0.0364 -0.0990  0.0172
28362W        W71456  24.462  29.494   3.841  0.1061 -0.2147  0.0113
28363W        W71457  20.774  30.550   0.346 -0.0738 -0.2593 -0.1887
28364W        W71458  23.653  31.479   1.799  0.0796 -0.0568  0.0182
28365W        W71459  24.811  32.227   1.229  0.0497 -0.0180 -0.1285
28366W        W71460  25.924  33.725  31.870 -0.2588 -0.4450 -0.1750
28367W        W71461  24.495  31.233   3.691  0.3050 -0.1241 -0.2322
28368W        W71462  24.565  31.609   3.032 -0.1325 -0.0897  0.0553
28369W        W71463  21.313  29.744   2.521  0.1838  0.0193 -0.2344
28370W        W71464  25.287  30.660  31.907 -0.2009  0.2553  0.0788
28371W        W71465  23.600  31.438   3.937 -0.0740  0.0389 -0.1143
28372W        W71466  25.197  31.060   0.235 -0.0116  0.4447 -0.2651
28373W        W71467  25.761  29.865   4.275  0.0653 -0.2934 -0.0443
28374W        W71468  22.923  30.442   0.540  0.0130 -0.1772  0.0679
28375W        W71469  21.630  29.329   3.662  0.0824 -0.1704  0.3520
28376W        W71470  22.650  30.975   3.502  0.3064  0.0729  0.4080
28377W        W71471  24.911  31.036   3.827 -0.3393  0.1046  0.1476
28378W        W71472  22.855  29.599   1.659 -0.2201  0.0698 -0.0487
28379W        W71473  24.038  29.654  31.568  0.0795 -0.1620  0.3184
28380W        W71474  24.248  33.895   0.179  0.1384  0.0663 -0.2356
28381W        W71475  23.530  32.514   0.574  0.1196  0.0747 -0.0000
28382W        W71476  24.242  29.785   1.195  0.1389  0.2243 -0.0056
28383W        W71477  23.157  29.386   4.455  0.4250 -0.1282  0.0277
28384W        W71478  23.219  32.687   0.199  0.0091 -0.1171 -0.0470
28385W        W71479  24.372  32.063   1.452  0.0239 -0.1830 -0.4388
28386W        W71480  23.133  29.673  30.660 -0.2877 -0.0477 -0.0302
28387W        W71481  25.541  31.939   0.636  0.0848  0.0119 -0.1650
28388W        W71482  24.081  33.109   3.866  0.2373 -0.0355  0.0891
28389W        W71483  25.989  33.122   4.563  0.1923 -0.3412 -0.1696
28390W        W71484  24.359  33.268   1.456 -0.0200 -0.3487  0.2682
28391W        W71485  23.984  31.867   1.720 -0.0170 -0.4499  0.1287
28392W        W71486  23.976  29.017   1.515 -0.2927  0.0674  0.4045
28393W        W71487  22.767  30.520   1.393 -0.0972 -0.0433  0.1689
28394W        W71488  22.908  31.093   2.396  0.1890 -0.2998 -0.2136
28395W        W71489  24.395  30.830   1.516  0.0036  0.0725 -0.1981
28396W        W71490  21.806  29.853   2.435 -0.0697 -0.2282 -0.1097
28397W        W71491  24.683  31.071   1.215 -0.3219  0.2695 -0.0388
28398W        W71492  23.345  31.757   2.707  0.1095 -0.0510 -0.1466
28399W        W71493  24.363  30.824   3.946 -0.0845 -0.0049 -0.1561
28400W        W71494  22.747  30.615   8.202 -0.0708 -0.2165 -0.3687
28401W        W71495  21.988  28.871   6.845  0.1885 -0.2302  0.1014
28402W        W71496  24.340  30.340   4.862 -0.0394 -0.2837 -0.1381
28403W        W71497  24.540  30.055   5.295 -0.1351  0.2814  0.0362
28404W        W71498  22.784  31.463   3.730  0.0693 -0.2350 -0.0258
28405W        W71499  24.275  33.097   5.217 -0.0494  0.1838  0.1868
28406W        W71500  22.736  29.304   6.728 -0.0821  0.0608  0.2327
28407W        W71501  24.983  30.809   5.869  0.3124  0.0070  0.3712
28408W        W71502  25.406  33.557   5.553  0.3863  0.2370 -0.0556
28409W        W71503  24.652  29.919   3.651 -0.0653  0.3685 -0.1669
28410W        W71504  24.320  30.102   7.471  0.5171  0.0866  0.2486
28411W        W71505  22.214  32.236   6.015  0.1358 -0.2308 -0.0695
28412W        W71506  21.492  29.490   4.454  0.1032  0.2762  0.1976
28413W        W71507  21.368  28.657   6.313  0.0222  0.2158  0.1003
28414W        W71508  24.207  31.979   6.150 -0.2506  0.0547  0.2208
28415W        W71509  23.338  30.590   4.931 -0.0870 -0.0872  0.2728
28416W        W71510  22.842  31.479   5.078  0.0007  0.0199 -0.2056
28417W        W71511  23.372  29.738   4.730 -0.2954  0.3005 -0.1935
28418W        W71512  24.983  33.609   5.312 -0.4080  0.4742 -0.1371
28419W        W71513  24.802  31.016   7.744 -0.0307 -0.4157 -0.1321
28420W        W71514  23.495  28.980   6.806 -0.2387 -0.1986 -0.0876
28421W        W71515  22.905  30.373   6.140 -0.1261 -0.0193 -0.4391
28422W        W71516  24.794  29.342   4.271 -0.2813  0.0390 -0.0890
28423W        W71517  22.032  29.939   5.187 -0.1716  0.2959 -0.1909
28424W        W71518  23.864  31.418   5.345 -0.0283 -0.1263 -0.0290
28425W        W71519  24.212  30.765   7.155  0.3479  0.1486  0.0480
28426W        W71520  24.189  30.773   6.209  0.2803 -0.0560  0.0446
28427W        W71521  23.110  32.545   5.334  0.1199  0.1540 -0.0670
28428W        W71522  23.688  32.340   5.208 -0.1954  0.6882  0.4161
28429W        W71523  25.711  30.703   7.155 -0.0603 -0.0773  0.0374
28430W        W71524  22.212  30.328   4.688 -0.0520 -0.0838  0.2689
28431W        W71525  21.813  32.623   4.246 -0.2691 -0.1246 -0.2428
28432W        W71526  23.464  31.866   3.580 -0.2742  0.0603 -0.1353
28433W        W71527  26.241  31.863   5.191  0.2983 -0.0680  0.4577
28434W        W71528  23.895  32.161   6.537 -0.1888  0.1703  0.0061
28435W        W71529  22.706  32.451   7.037 -0.1710  0.0024  0.0312
28436W        W71530  22.487  32.193   3.765 -0.0081 -0.0849  0.1945
28437W        W71531  23.539  31.749   6.735 -0.1682 -0.3916 -0.0166
28438W        W71532  22.180  32.151   6.979  0.0144  0.1172 -0.0714
28439W        W71533  23.001  30.871   5.220  0.1467  0.0769  0.0971
28440W        W71534  23.656  30.211   5.724 -0.0154 -0.1827  0.0129
28441W        W71535  24.007  32.307   4.062  0.2564 -0.1361 -0.1575
28442W        W71536  24.018  31.755   4.843  0.1783  0.0157 -0.0573
28443W        W71537  22.172  31.259   7.199  0.2495 -0.0651  0.3025
28444W        W71538  22.230  31.333   3.942 -0.0156 -0.1607  0.0006
28445W        W71539  25.351  30.385   7.420 -0.3536 -0.1720 -0.1816
28446W        W71540  22.914  33.046   4.097 -0.3283 -0.0497  0.2512
28447W        W71541  23.885  30.523   4.180 -0.0511 -0.1652 -0.0504
28448W        W71542  23.313  28.798   5.284 -0.1902  0.2452 -0.1419
28449W        W71543  24.275  30.844   4.814  0.0563  0.1238 -0.0953
28450W        W71544  23.167  28.753   5.742  0.0895  0.3146 -0.2592
28451W        W71545  22.744  31.941   5.289 -0.0721  0.2262  0.0166
28452W        W71546  22.440  29.738   7.198  0.2120 -0.1603 -0.0417
28453W        W71547  25.264  32.160   6.107  0.1095 -0.1781  0.0314
28454W        W71548  23.532  29.897   6.072 -0.2257  0.0914  0.1890
28455W        W71549  24.672  31.408   8.077 -0.0530  0.2123 -0.0644
28456W        W71550  22.918  31.586   6.015 -0.5590  0.1284  0.2799
28457W        W71551  22.719  30.586   4.935 -0.1874  0.0893  0.2268
28458W        W71552  24.703  31.997   4.420  0.1107  0.1916  0.1329
28459W        W71553  25.123  31.251   4.776 -0.2923 -0.2477 -0.1469
28460W        W71554  24.775  31.761   5.458 -0.2010 -0.0297  0.0248
28461W        W71555  23.109  30.118   5.755  0.2572 -0.1634  0.0027
28462W        W71556  21.690  31.090   6.474  0.0370  0.1498 -0.1485
28463W        W71557  21.452  31.502   7.350 -0.1161  0.2359 -0.0163
28464W        W71558  22.401  29.073   4.088 -0.0495 -0.2963  0.3294
28465W        W71559  25.327  31.115   8.682  0.1632  0.1367  0.0742
28466W        W71560  20.393  33.480   5.931 -0.1490 -0.3351 -0.4238
28467W        W71561  25.160  30.838   7.336  0.1535 -0.3260 -0.2391
28468W        W71562  23.256  32.446   4.852 -0.1540  0.0308  0.1275
28469W        W71563  25.913  32.909   6.110 -0.0150 -0.1687  0.0658
28470W        W71564  24.811  31.179   3.283  0.0044  0.0129  0.3201
28471W        W71565  23.472  30.189   6.880  0.3962  0.1592  0.0706
28472W        W71566  24.033  29.466   6.428 -0.0335  0.4790 -0.0650
28473W        W71567  23.401  31.244   4.403 -0.2566  0.2661 -0.4690
28474W        W71568  23.205  28.892   4.336 -0.2251  0.1953 -0.0769
28475W        W71569  23.975  31.694   6.581  0.0522 -0.0175 -0.0898
28476W        W71570  24.778  30.872   4.679  0.0074 -0.2340 -0.1639
28477W        W71571  21.903  31.976   5.341 -0.2030 -0.0257 -0.1695
28478W        W71572  24.338  30.838   6.694 -0.3489  0.3594 -0.1335
28479W        W71573  24.008  31.384   8.487  0.0624  0.0803  0.1868
28480W        W71574  23.694  32.710   3.858  0.0290 -0.2788 -0.1004
28481W        W71575  21.967  31.641   4.344  0.1740  0.2638  0.1857
28482W        W71576  22.580  31.779   4.068  0.1787 -0.0089  0.1326
28483W        W71577  20.982  29.968   5.397 -0.1184 -0.2031 -0.2083
28484W        W71578  21.966  30.891   6.055  0.4030 -0.1823 -0.0384
28485W        W71579  25.253  28.607   4.005  0.0135 -0.0888  0.1058
28486W        W71580  20.863  29.046   7.513  0.1884  0.2025 -0.0202
28487W        W71581  25.793  29.795   5.283  0.1464  0.1134 -0.1902
28488W        W71582  21.846  31.359   3.607 -0.1055  0.1489  0.1326
28489W        W71583  24.771  32.915   4.676  0.3521  0.1797 -0.0198
28490W        W71584  24.084  29.260   7.266 -0.2520 -0.3167 -0.2980
28491W        W71585  24.952  32.829   4.162  0.0063  0.2732  0.1248
28492W        W71586  22.113  30.673   6.729 -0.0776  0.1037 -0.2269
28493W        W71587  21.108  29.474   5.158  0.0209 -0.4257 -0.0331
28494W        W71588  23.827  29.257   7.726 -0.1488  0.0642  0.0081
28495W        W71589  22.194  29.377   6.158  0.0710  0.0266 -0.0329
28496W        W71590  24.275  30.909   8.099 -0.2481  0.1575  0.1411
28497W        W71591  20.780  30.309   4.921  0.2799  0.0379 -0.0224
28498W        W71592  24.384  29.860   4.691  0.1628 -0.0625 -0.0197
28499W        W71593  23.013  30.188   4.822  0.0406  0.1741  0.0678
28500W        W71594  21.498  31.649   3.830  0.0498  0.1715 -0.1048
28501W        W71595  25.198  29.991   8.179 -0.3629 -0.0635  0.1051
28502W        W71596  23.828  32.823   5.263  0.1301  0.0404 -0.2126
28503W        W71597  25.710  33.261   6.897  0.2674 -0.0366  0.1018
28504W        W71598  25.415  32.569   5.310  0.3894 -0.0301 -0.0758
28505W        W71599  24.245  29.582   7.572  0.1720  0.1622 -0.0513
28506W        W71600  23.561  30.018   5.127 -0.1452 -0.1816  0.0824
28507W        W71601  20.999  31.763   2.187 -0.1706  0.1084 -0.4389
28508W        W71602  22.697  33.020   6.003  0.2874  0.0891  0.3026
28509W        W71603  23.925  29.181   5.503  0.0094 -0.2564  0.0962
28510W        W71604  25.310  33.107   5.348 -0.0838 -0.0414  0.0345
28511W        W71605  24.435  32.132   4.828  0.0377 -0.0416 -0.2055
28512W        W71606  22.187  31.762   5.730 -0.5106 -0.0352 -0.1154
28513W        W71607  24.783  30.108   7.897 -0.0808 -0.0418  0.0737
28514W        W71608  24.571  31.158   7.211  0.2039 -0.1903 -0.0443
28515W        W71609  23.734  30.465   5.268  0.3417 -0.1001  0.0017
28516W        W71610  22.668  29.883   3.572  0.0230 -0.1354  0.2066
28517W        W71611  24.585  32.731   5.658  0.1088  0.0828 -0.3049
28518W        W71612  23.259  32.884   3.705 -0.0139 -0.0655 -0.1054
28519W        W71613  23.197  31.091   4.809  0.2647 -0.2188 -0.0494
28520W        W71614  25.280  31.776   5.353  0.1139 -0.0302 -0.1512
28521W        W71615  24.363  28.058   5.586 -0.2348 -0.5024  0.2095
28522W        W71616  22.461  30.451   5.930  0.0246  0.1080 -0.0355
28523W        W71617  24.442  31.506   9.003  0.0541 -0.1250  0.0200
28524W        W71618  23.942  31.066   4.055 -0.0038 -0.1491  0.1957
28525W        W71619  22.377  30.517   5.296  0.3628 -0.0213 -0.1927
28526W        W71620  24.148  29.413   4.557 -0.1036  0.0928  0.1075
28527W        W71621  24.743  30.597   2.797  0.1469 -0.1382 -0.2852
28528W        W71622  23.038  31.581   7.107 -0.1992  0.0554  0.2033
28529W        W71623  24.780  30.630   3.625 -0.0245 -0.1210  0.0017
28530W        W71624  25.180  30.200   4.047 -0.1164 -0.0207 -0.1568
28531W        W71625  24.773  29.892   4.235 -0.0350  0.0567  0.0740
28532W        W71626  21.824  31.252   7.546  0.0666 -0.0610 -0.1223
28533W        W71627  25.185  30.813   5.028  0.4068  0.1518  0.0665
28534W        W71628  23.380  31.354   5.816 -0.0059 -0.3521  0.5069
28535W        W71629  23.322  29.745   4.041  0.1291  0.0009 -0.2209
28536W        W71630  25.053  31.601   4.454 -0.0713 -0.4776  0.1471
28537W        W71631  21.232  30.760   6.768 -0.1671  0.0571  0.3221
28538W        W71632  23.271  31.338   6.273  0.1064 -0.0637  0.0121
28539W        W71633  25.666  32.620   4.823 -0.0009  0.1704 -0.0727
28540W        W71634  23.999  30.317   6.726  0.0814  0.1564 -0.3169
28541W        W71635  23.576  29.946   3.178 -0.0319 -0.2170 -0.1461
28542W        W71636  24.527  29.749   7.107  0.0595 -0.2472 -0.1805
28543W        W71637  23.049  33.496   3.946 -0.0327 -0.1970  0.1187
28544W        W71638  24.832  30.162   7.414 -0.3688  0.0196 -0.1973
28545W        W71639  22.848  29.502   6.286  0.0537 -0.1884 -0.2591
28546W        W71640  23.462  29.244   7.262 -0.1340 -0.0158  0.1247
28547W        W71641  24.621  31.657   7.112 -0.1274  0.1563  0.0347
28548W        W71642  23.966  30.616   5.711 -0.3667 -0.0901  0.0410
28549W        W71643  24.974  31.153   6.610 -0.0778  0.0143  0.1349
28550W        W71644  22.837  28.960   5.388  0.1852  0.1143  0.0395
28551W        W71645  23.706  29.597   8.568  0.1465  0.0859  0.3147
28552W        W71646  22.356  31.315   5.987  0.2779 -0.0481  0.0213
28553W        W71647  21.808  31.445   6.823 -0.0759 -0.0702  0.1623
28554W        W71648  23.438  31.878   6.160  0.1717 -0.0430 -0.0753
28555W        W71649  24.352  30.591   4.401 -0.2753  0.0326 -0.2957
28556W        W71650  23.929  29.903   7.100  0.3761 -0.0333  0.2192
28557W        W71651  23.235  29.422   6.004 -0.0130 -0.0929  0.2527
28558W        W71652  23.724  32.305   3.508 -0.2059 -0.1248  0.0358
28559W        W71653  23.457  30.293   4.478  0.1072  0.3888  0.2254
28560W        W71654  22.512  29.030   6.314  0.2757 -0.1646  0.0038
28561W        W71655  24.720  32.077   6.058 -0.3673 -0.1108  0.0915
28562W        W71656  24.716  32.486   3.762  0.4297 -0.2141  0.4997
28563W        W71657  23.636  30.979   7.033  0.2277  0.0000  0.0405
28564W        W71658  22.971  31.993   3.778 -0.2416 -0.2989 -0.0212
28565W        W71659  24.647  28.107   6.583  0.1699 -0.1867 -0.0117
28566W        W71660  21.536  32.774   5.861 -0.1475  0.0358 -0.1557
28567W        W71661  23.687  29.545   4.402  0.1039 -0.2002  0.0034
28568W        W71662  22.760  29.719   4.736  0.1585 -0.1570 -0.0123
28569W        W71663  23.419  29.767   7.117 -0.4276  0.2505 -0.0227
28570W        W71664  25.702  30.800   4.493 -0.1159 -0.0676  0.4192
28571W        W71665  23.386  29.000   7.721 -0.0376 -0.1327  0.1050
28572W        W71666  21.941  30.450   5.770  0.1917 -0.0460 -0.2085
28573W        W71667  21.686  31.759   5.858 -0.2862  0.4584 -0.0458
28574W        W71668  25.058  30.453   6.959  0.1438 -0.1910  0.1270
28575W        W71669  25.264  29.121   4.174  0.4174  0.0861 -0.0629
28576W        W71670  24.562  31.865   6.631 -0.3080 -0.2263 -0.1172
28577W        W71671  23.012  30.959   7.753 -0.0316 -0.1749 -0.0256
28578W        W71672  22.001  30.991   4.430  0.2126 -0.4223 -0.1205
28579W        W71673  25.011  31.813   6.855  0.1270  0.2932 -0.3124
28580W        W71674  22.117  31.279   4.815 -0.0258 -0.2137 -0.0964
28581W        W71675  24.372  32.419   5.929 -0.0298  0.0484  0.0168
28582W        W71676  22.544  29.516   5.790  0.0934  0.1167 -0.0714
28583W        W71677  21.822  32.924   3.357 -0.3073 -0.3159 -0.1038
28584W        W71678  22.387  30.503   7.728  0.0356  0.1240 -0.2440
28585W        W71679  23.808  31.505   6.140  0.1306 -0.1822  0.1089
28586W        W71680  24.657  30.671   7.372 -0.1011  0.0580 -0.3780
28587W        W71681  22.978  29.450   5.503 -0.1798 -0.2600  0.0436
28588W        W71682  24.225  31.044   5.324 -0.0934 -0.0616 -0.0932
28589W        W71683  22.789  30.875   6.075 -0.0040 -0.1819  0.1746
28590W        W71684  22.475  31.028   7.525  0.0760 -0.0084 -0.2265
28591W        W71685  22.260  30.129   8.034 -0.2524 -0.1623  0.2195
28592W        W71686  22.940  27.758   7.185  0.0569  0.1056  0.1266
28593W        W71687  26.020  34.235   5.902  0.2697  0.0831  0.1236
28594W        W71688  23.217  30.476   7.377  0.0370 -0.0741  0.0368
28595W        W71689  21.817  31.620   2.495 -0.0850 -0.0571 -0.2408
28596W        W71690  22.559  30.060   4.425  0.0572 -0.0295 -0.2029
28597W        W71691  23.145  32.661   4.218 -0.1430 -0.1963 -0.0236
28598W        W71692  24.726  29.719   7.571  0.2485 -0.0777  0.1472
28599W        W71693  23.198  31.084   3.906  0.2617 -0.3670  0.1846
28600W        W71694  23.158  32.114   4.375 -0.0141  0.0049 -0.1658
28601W        W71695  21.990  32.004   6.410 -0.0856 -0.0619  0.1121
28602W        W71696  25.172  28.235   4.740  0.2259  0.0623 -0.0383
28603W        W71697  24.008  30.460   3.718  0.3664 -0.1946  0.1885
28604W        W71698  23.150  29.944   6.382  0.0921 -0.1613 -0.2371
28605W        W71699  25.502  30.597   6.590  0.4777  0.0081  0.0429
28606W        W71700  24.900  31.638   3.898 -0.0828  0.0339  0.0081
28607W        W71701  24.547  28.431   7.956 -0.0053 -0.0496 -0.0672
28608W        W71702  23.617  30.709   6.625 -0.0741 -0.1325 -0.4044
28609W        W71703  25.021  32.199   5.627  0.0750  0.0684 -0.1185
28610W        W71704  20.970  28.810   6.582  0.0996  0.1040  0.3858
28611W        W71705  24.646  32.301   6.906  0.1850  0.0171 -0.1417
28612W        W71706  21.702  30.876   7.021 -0.0103 -0.1831 -0.0507
28613W        W71707  23.663  28.726   5.667 -0.4277  0.0571 -0.2862
28614W        W71708  23.261  30.285   4.014 -0.0877 -0.0398 -0.0347
28615W        W71709  22.682  30.745   6.755 -0.0140  0.2615  0.1184
28616W        W71710  25.610  31.143   5.002  0.0262 -0.2713 -0.0250
28617W        W71711  23.530  31.958   4.113  0.1356  0.2417 -0.3012
28618W        W71712  26.751  30.576   5.834  0.0588 -0.0680 -0.2852
28619W        W71713  22.639  31.531   5.544 -0.3154  0.0351  0.0589
28620W        W71714  23.949  30.330   6.182 -0.1374  0.1977 -0.2827
28621W        W71715  24.106  29.925   3.765  0.0853  0.2020  0.3186
28622W        W71716  23.789  30.941   5.123 -0.0028  0.0587  0.0580
28623W        W71717  23.797  29.000   8.261  0.5426 -0.1094  0.2106
28624W        W71718  24.008  31.087   5.761  0.0311  0.0686 -0.2109
28625W        W71719  24.546  29.644   6.410  0.4924  0.0247 -0.2216
28626W        W71720  24.963  30.522   7.743 -0.1456 -0.2579  0.1688
28627W        W71721  23.213  29.996   7.637 -0.0832 -0.1921  0.0919
28628W        W71722  23.184  30.813   6.393  0.2372 -0.0352  0.0903
28629W        W71723  22.000  29.558   7.130  0.2485  0.0905 -0.0411
28630W        W71724  25.023  32.979   5.734 -0.1238 -0.1869 -0.3341
28631W        W71725  26.224  29.730   4.252 -0.0649  0.4615 -0.0422
28632W        W71726  25.104  29.611   7.078  0.2641 -0.0024 -0.2291
28633W        W71727  23.231  30.626   5.729  0.0127  0.2157 -0.0917
28634W        W71728  24.154  29.180   3.542 -0.2821  0.3142 -0.1745
28635W        W71729  22.826  29.656   7.704 -0.4434 -0.3725  0.1093
28636W        W71730  24.753  30.972   9.430  0.0689 -0.1855 -0.4157
28637W        W71731  23.587  28.343   4.209  0.0129  0.0925  0.1413
28638W        W71732  25.241  30.005   6.821  0.0202  0.0648 -0.1243
28639W        W71733  24.719  31.301   5.731  0.1104 -0.0330 -0.0369
28640W        W71734  25.306  31.219   5.662 -0.2162  0.4801 -0.0649
28641W        W71735  24.778  30.898   5.357  0.0388 -0.0626  0.0608
28642W        W71736  22.195  29.295   6.684 -0.1185 -0.1971 -0.3239
28643W        W71737  23.365  32.214   6.528 -0.2325 -0.2304  0.0647
28644W        W71738  22.931  29.118   4.020 -0.1529 -0.1639 -0.0345
28645W        W71739  24.470  30.325   3.951 -0.2782 -0.1141 -0.0839
28646W        W71740  23.316  32.172   5.578  0.2451  0.0244  0.0005
28647W        W71741  25.710  32.015   9.021 -0.0653 -0.0868 -0.3201
28648W        W71742  23.719  29.319   4.891 -0.1058  0.1461 -0.0605
28649W        W71743  23.558  31.433   7.167  0.0252 -0.2522 -0.1106
28650W        W71744  22.084  31.147   2.541 -0.2327  0.0120  0.1028
28651W        W71745  24.415  29.100   6.399 -0.1810 -0.2431 -0.5444
28652W        W71746  22.379  30.793   6.294  0.6005  0.2257 -0.0973
28653W        W71747  20.785  30.215   6.717 -0.2725 -0.0434  0.2652
28654W        W71748  22.828  32.074   5.851  0.0228  0.2064 -0.2004
28655W        W71749  24.446  28.878   7.105  0.1275 -0.0417 -0.1733
28656W        W71750  23.577  29.807   6.584  0.2107 -0.2234  0.1782
28657W        W71751  23.258  31.961   5.123  0.4364  0.2882  0.1384
28658W        W71752  25.294  30.921   6.873 -0.1352  0.4450  0.0297
28659W        W71753  23.655  30.262   7.621  0.0072 -0.0497 -0.0408
28660W        W71754  24.147  32.028   4.423 -0.0742 -0.1139  0.3211
28661W        W71755  23.622  30.944   6.084  0.1009 -0.1123 -0.1181
28662W        W71756  26.104  30.868   6.261 -0.2617  0.3103 -0.1023
28663W        W71757  22.479  31.807   6.274  0.0471 -0.2306  0.0826
28664W        W71758  21.911  30.221   7.711 -0.1359  0.0756  0.0006
28665W        W71759  24.170  31.386   8.003  0.1347 -0.3834 -0.0297
28666W        W71760  25.015  31.667   6.383  0.2189 -0.0838 -0.0680
28667W        W71761  22.915  30.439   4.403 -0.2843 -0.2945 -0.1494
28668W        W71762  24.085  31.879   3.172  0.0994  0.4192  0.0296
28669W        W71763  22.078  31.917   7.723 -0.1377  0.1053 -0.3819
28670W        W71764  21.557  30.578   7.957 -0.0766 -0.1334 -0.1590
28671W        W71765  22.249  32.586   4.634 -0.0203  0.1001  0.0404
28672W        W71766  24.688  32.808   3.281  0.1886  0.0643  0.0900
28673W        W71767  24.151  31.316   4.908  0.0546 -0.2191 -0.0267
28674W        W71768  24.743  33.385   6.736  0.0998  0.1202  0.4191
28675W        W71769  23.373  29.433   5.189  0.1477 -0.3962 -0.0840
28676W        W71770  22.859  31.199   4.250  0.0463 -0.1311 -0.0437
28677W        W71771  21.930  32.560   2.169  0.0493  0.0952 -0.1961
28678W        W71772  24.998  32.201   5.003 -0.0589  0.0219 -0.3835
28679W        W71773  22.874  32.071   4.844  0.1480 -0.0855 -0.0350
28680W        W71774  23.157  31.087   7.293 -0.2060  0.1380 -0.2214
28681W        W71775  24.989  28.088   3.681  0.0518 -0.1881  0.0668
28682W        W71776  25.797  31.077   5.888 -0.0128 -0.0683  0.0261
28683W        W71777  24.042  29.696   5.509 -0.0618 -0.1221  0.0156
28684W        W71778  23.801  31.631   7.682 -0.0429 -0.3427  0.0529
28685W        W71779  23.582  29.285   6.418  0.3783  0.2037  0.2157
28686W        W71780  25.230  29.703   3.260  0.2771  0.1778 -0.3937
28687W        W71781  22.777  30.682   7.313  0.3710 -0.1180 -0.2377
28688W        W71782  25.454  30.056   6.350 -0.2123  0.1116  0.4795
28689W        W71783  22.640  31.100   8.034  0.0706  0.2876  0.2303
28690W        W71784  24.819  32.422   4.618  0.0067 -0.1995 -0.1935
28691W        W71785  22.881  28.701   6.142  0.0486 -0.0402 -0.1873
28692W        W71786  23.017  30.076   7.152 -0.0127  0.4539 -0.1590
28693W        W71787  25.509  28.435   7.583 -0.4496 -0.2704  0.3025
28694W        W71788  22.862  29.117   5.873  0.0695 -0.1976 -0.0605
28695W        W71789  24.179  31.229   6.387  0.0569  0.0076 -0.1240
28696W        W71790  23.010  32.980   4.687  0.0351  0.2106  0.1880
28697W        W71791  22.524  34.542   6.470 -0.0444 -0.0101 -0.2776
28698W        W71792  22.776  31.278   6.388 -0.0125 -0.0258 -0.1187
28699W        W71793  22.304  29.949   5.640 -0.3206 -0.0105 -0.2214
28700W        W71794  25.220  30.044   4.521 -0.0754  0.3424 -0.2101
28701W        W71795  22.614  30.167   7.431 -0.0488  0.3043 -0.1022
28702W        W71796  24.777  30.876   6.894  0.2305 -0.0404 -0.3102
28703W        W71797  22.680  30.189   5.480  0.1491 -0.3178 -0.1527
28704W        W71798  24.205  30.133   5.670  0.1264  0.0218 -0.2221
28705W        W71799  23.639  31.368   4.868  0.2888 -0.0893  0.1511
28706W        W71800  22.992  30.348   6.621  0.0739  0.0862  0.1650
28707W        W71801  24.049  29.922   2.913 -0.3800 -0.0743 -0.0739
28708W        W71802  23.984  31.392   8.991  0.2314  0.4937  0.4559
28709W        W71803  24.712  30.560   1.960  0.1188  0.2338 -0.0882
28710W        W71804  23.648  32.793   7.094 -0.4165  0.2191  0.0161
28711W        W71805  21.776  29.119   5.379  0.1352 -0.1465 -0.0297
28712W        W71806  24.959  29.606   4.679 -0.0924  0.2114 -0.2121
28713W        W71807  22.538  30.770   4.492  0.2005  0.3650  0.0338
28714W        W71808  22.021  30.395   6.261  0.0064  0.0503  0.2114
28715W        W71809  24.197  32.078   6.958  0.0790  0.0314 -0.1212
28716W        W71810  21.984  28.980   7.365 -0.1212 -0.0579  0.0643
28717W        W71811  24.488  31.977   3.917  0.3916  0.0751 -0.2528
28718W        W71812  24.573  30.429   6.230  0.1920 -0.0413  0.0428
28719W        W71813  23.202  31.683   4.740 -0.0542 -0.2277 -0.0515
28720W        W71814  23.589  30.925   5.571 -0.1362  0.2890 -0.1079
28721W        W71815  24.957  32.213   6.515 -0.1323 -0.2901 -0.0424
28722W        W71816  22.397  29.731   6.560 -0.1500  0.1045 -0.3140
28723W        W71817  24.776  32.697   6.116  0.2062  0.0792 -0.3297
28724W        W71818  24.978  33.257   4.982  0.0238  0.2547 -0.1859
28725W        W71819  22.355  29.148   5.488  0.4284  0.0808  0.0511
28726W        W71820  23.262  29.483   6.765 -0.0831  0.0426  0.0628
28727W        W71821  21.013  32.124   6.214 -0.0333 -0.3477  0.2526
28728W        W71822  23.677  29.724   7.557  0.0086 -0.2824 -0.2020
28729W        W71823  24.213  29.872   6.683  0.1563 -0.3791  0.3327
28730W        W71824  24.399  32.718   4.903  0.0783  0.2351 -0.0643
28731W        W71825  24.996  28.427   7.526 -0.0073  0.4505 -0.1189
28732W        W71826  22.733  32.702   6.628 -0.0916 -0.0711  0.0519
28733W        W71827  22.684  31.205   6.915 -0.3023  0.0156 -0.0516
28734W        W71828  22.221  31.561   3.403 -0.0034  0.0295 -0.0593
28735W        W71829  23.175  30.729   6.976  0.1195  0.2210  0.2008
28736W        W71830  23.997  33.293   5.582  0.4245 -0.1831 -0.0377
28737W        W71831  25.101  31.663   5.859  0.1902 -0.0451 -0.0610
28738W        W71832  25.314  33.105   6.597  0.1805 -0.3113  0.1813
28739W        W71833  24.019  29.823   6.059 -0.2474 -0.0428 -0.2199
28740W        W71834  25.825  30.229   5.548  0.1289  0.1791  0.1582
28741W        W71835  23.098  29.090   6.512 -0.2388 -0.0471  0.0493
28742W        W71836  26.339  29.402   4.898 -0.2131  0.2066  0.0232
28743W        W71837  23.608  28.216   5.001 -0.1328 -0.2357  0.2368
28744W        W71838  22.987  31.113   5.657  0.2859  0.2343 -0.0818
28745W        W71839  23.135  31.598   4.157 -0.0378 -0.3533  0.0688
28746W        W71840  23.340  30.718   4.320  0.1388 -0.2414 -0.0070
28747W        W71841  23.362  29.502   3.356 -0.2016 -0.2812 -0.1871
28748W        W71842  24.664  29.287   7.321  0.0258 -0.1979  0.2913
28749W        W71843  22.503  30.192   6.405 -0.2387  0.0342 -0.1540
28750W        W71844  23.321  31.262   5.286 -0.1103 -0.0217  0.1306
28751W        W71845  23.745  29.071   2.989  0.0770 -0.0460  0.2783
28752W        W71846  25.211  32.718   4.658  0.2844  0.2261 -0.0907
28753W        W71847  23.412  28.874   6.190 -0.3720  0.1971  0.1229
28754W        W71848  22.422  31.387   4.422  0.1492  0.1807 -0.1471
28755W        W71849  25.067  31.198   6.126  0.4842 -0.0436 -0.1886
28756W        W71850  25.258  33.630   3.764  0.1381 -0.1351  0.2090
28757W        W71851  22.936  28.780   4.876  0.3509  0.2796 -0.0266
28758W        W71852  25.438  31.424   6.747 -0.0077 -0.0506 -0.1116
28759W        W71853  22.070  30.848   3.693 -0.0112  0.1387  0.1140
28760W        W71854  23.053  28.274   7.322 -0.1749 -0.0788  0.2653
28761W        W71855  24.781  30.608   8.199 -0.0772  0.0765 -0.1651
28762W        W71856  23.450  30.130   2.256 -0.3508  0.0983 -0.0048
28763W        W71857  23.650  30.628   8.062  0.1132  0.1923 -0.4396
28764W        W71858  25.030  31.297   5.280 -0.0720  0.1469 -0.1821
28765W        W71859  23.586  32.431   4.274  0.0887  0.1774 -0.0416
28766W        W71860  24.261  31.512   5.757  0.2695  0.1721 -0.2046
28767W        W71861  23.677  32.306   6.930 -0.1607  0.3151 -0.1715
28768W        W71862  21.143  28.220   7.829  0.1925  0.0324  0.0746
28769W        W71863  24.430  31.681   5.150 -0.0030  0.1838  0.1931
28770W        W71864  23.574  30.832   7.635 -0.0394 -0.0172  0.1053
28771W        W71865  25.705  31.598   5.235  0.2016 -0.1146 -0.1629
28772W        W71866  24.572  29.297   7.797 -0.1786  0.2340 -0.1752
28773W        W71867  23.131  30.376   5.299 -0.0641  0.0672  0.1368
28774W        W71868  23.274  29.750   8.298  0.0786 -0.1788 -0.0440
28775W        W71869  23.153  32.277   8.578  0.0855 -0.1358 -0.2853
28776W        W71870  24.057  31.179   6.908 -0.2510  0.0387 -0.1039
28777W        W71871  21.585  29.447   6.659 -0.0006 -0.1244  0.1029
28778W        W71872  24.562  31.314   6.736 -0.0527  0.0026  0.2359
28779W        W71873  24.029  31.897   5.368  0.1168  0.0063  0.0569
28780W        W71874  22.819  29.759   6.776 -0.1137 -0.2853  0.0771
28781W        W71875  23.472  30.372   6.203 -0.0316 -0.1602 -0.1132
28782W        W71876  23.362  29.257   8.252  0.1310 -0.0267  0.0916
28783W        W71877  24.564  31.646   6.163 -0.1120 -0.2858 -0.1240
28784W        W71878  24.099  31.865   8.780 -0.2414 -0.0855 -0.2494
28785W        W71879  23.419  29.713   5.601  0.0864  0.2193  0.1641
28786W        W71880  25.964  30.705   4.943 -0.1135  0.0498 -0.0782
28787W        W71881  24.502  32.998   6.549  0.0518  0.1745 -0.1716
28788W        W71882  27.785  32.526   6.830  0.0903  0.1314  0.2376
28789W        W71883  23.499  33.552   5.874  0.0027  0.0213 -0.1183
28790W        W71884  24.457  30.851   5.718 -0.2190 -0.1581  0.1020
28791W        W71885  23.299  29.516   7.853 -0.0395 -0.2300  0.1797
28792W        W71886  21.686  31.352   2.940 -0.1483  0.2318 -0.1306
28793W        W71887  24.459  31.580   4.633  0.0580  0.0567  0.1629
28794W        W71888  24.703  30.403   5.722  0.2002  0.5306 -0.0938
28795W        W71889  22.757  30.683   5.593  0.2557  0.2315 -0.0778
28796W        W71890  24.310  28.719   3.742  0.0209  0.1216 -0.1178
28797W        W71891  22.199  31.150   6.668  0.2270  0.0800 -0.0478
28798W        W71892  23.691  31.204   6.536  0.2820 -0.0060  0.1734
28799W        W71893  22.555  31.752   9.145 -0.0889 -0.3825  0.3363
28800W        W71894  23.404  29.659   9.172  0.1100  0.2247 -0.2118
28801W        W71895  24.868  30.381   8.604 -0.0081  0.1544 -0.1811
28802W        W71896  25.238  30.633   8.446 -0.1088  0.1866 -0.2317
28803W        W71897  21.115  30.864   9.887  0.0813 -0.3013 -0.3547
28804W        W71898  24.398  33.550   8.259 -0.1570  0.2135  0.0662
28805W        W71899  24.421  32.248   8.817 -0.0066 -0.0819  0.1825
28806W        W71900  25.814  33.050   7.887  0.1041  0.0751 -0.1112
28807W        W71901  24.343  32.020   7.482 -0.0652 -0.0608 -0.1014
28808W        W71902  22.072  33.526   9.435 -0.0849  0.1028 -0.1833
28809W        W71903  24.219  28.837   8.118  0.0890  0.2325 -0.0234
28810W        W71904  22.070  27.505   9.586 -0.0495  0.1476  0.3511
28811W        W71905  23.527  30.864   9.834  0.1102 -0.1711 -0.3078
28812W        W71906  21.083  31.133   8.859  0.6151  0.2689  0.2261
28813W        W71907  24.128  28.629   9.584  0.0361  0.0715 -0.1079
28814W        W71908  22.950  34.648   7.367  0.2626  0.0599  0.0944
28815W        W71909  22.507  29.719   9.623 -0.1012  0.4054  0.5074
28816W        W71910  23.006  32.595   9.013  0.1884 -0.0124 -0.1769
28817W        W71911  22.273  30.584   8.235 -0.1018  0.1381 -0.1208
28818W        W71912  21.555  29.620   9.939  0.1755  0.1316 -0.2455
28819W        W71913  22.767  32.505   9.763  0.1688  0.0094  0.2687
28820W        W71914  24.809  28.766   9.768  0.2273 -0.1320  0.1426
28821W        W71915  25.192  31.730   9.334 -0.0395  0.0678 -0.0564
28822W        W71916  24.891  33.760   8.230 -0.0304  0.3423  0.0375
28823W        W71917  24.114  32.971   7.333  0.1235 -0.2603 -0.1744
28824W        W71918  20.825  31.026  10.534 -0.2357  0.0603  0.2133
28825W        W71919  22.406  32.850   8.917 -0.2843 -0.1350 -0.2500
28826W        W71920  24.218  32.338   7.795 -0.1473  0.1918 -0.1395
28827W        W71921  25.966  32.471   8.682  0.2134  0.1656 -0.1170
28828W        W71922  22.591  30.978   8.587 -0.0269 -0.0031 -0.0293
28829W        W71923  22.008  31.624   9.152 -0.1236  0.1475 -0.0666
28830W        W71924  23.665  31.761   9.025  0.2387 -0.1277  0.1394
28831W        W71925  22.925  32.623   7.558  0.2532  0.1304 -0.2598
28832W        W71926  23.345  32.135   9.064  0.2548  0.0611 -0.0819
28833W        W71927  20.837  32.622   9.797  0.1276  0.0238 -0.1531
28834W        W71928  23.654  32.131   7.703 -0.1119 -0.1200 -0.1241
28835W        W71929  26.328  30.170   8.942 -0.1444 -0.0819 -0.1356
28836W        W71930  23.873  30.053   8.364  0.2678  0.1484  0.3045
28837W        W71931  25.191  29.899   7.645  0.1050  0.0955  0.3155
28838W        W71932  22.939  29.564   9.464  0.1368  0.1340 -0.1768
28839W        W71933  23.940  33.728   9.754  0.0807 -0.1980  0.1872
28840W        W71934  22.698  31.435  10.084  0.0392  0.0358 -0.3006
28841W        W71935  23.726  31.125   8.096 -0.1484 -0.2466 -0.1915
28842W        W71936  23.588  30.179   9.165 -0.0881  0.3761  0.1599
28843W        W71937  23.455  31.606  10.159  0.0960 -0.0738  0.1890
28844W        W71938  21.644  30.619   9.780 -0.3064  0.1299 -0.4341
28845W        W71939  23.914  31.157   7.440  0.2666 -0.0167 -0.0352
28846W        W71940  24.676  30.955  10.003 -0.2002  0.2099  0.0874
28847W        W71941  23.933  32.302   8.190  0.2906  0.1448  0.1591
28848W        W71942  22.533  30.930   9.414  0.2109 -0.0844 -0.2630
28849W        W71943  23.591  27.897   8.004 -0.1408  0.2826  0.0035
28850W        W71944  25.482  29.877   9.839  0.0386  0.0689  0.0175
28851W        W71945  23.609  33.073   8.578  0.0211 -0.4601  0.1469
28852W        W71946  23.967  32.654   8.562  0.0575 -0.0785 -0.0382
28853W        W71947  22.703  31.983   6.874 -0.2296 -0.0484 -0.0132
28854W        W71948  24.076  27.916   9.881  0.3871  0.1551  0.0173
28855W        W71949  24.187  29.737  10.316  0.1912 -0.0560  0.2311
28856W        W71950  23.682  31.825   5.709 -0.3309  0.0105 -0.2339
28857W        W71951  23.495  31.331   8.461 -0.0009 -0.0479 -0.0878
28858W        W71952  24.639  30.080   9.773 -0.0185 -0.2534 -0.1134
28859W        W71953  24.768  30.810   8.880  0.0463  0.0687 -0.3421
28860W        W71954  24.063  34.267   9.664 -0.2311 -0.2421  0.1490
28861W        W71955  22.149  32.059   9.272 -0.3079 -0.0042 -0.2352
28862W        W71956  21.604  31.381  10.221 -0.1690  0.0690 -0.2388
28863W        W71957  22.492  30.440   9.130  0.2614  0.1294  0.0930
28864W        W71958  23.242  31.641   9.668  0.0424  0.1615 -0.0278
28865W        W71959  22.448   0.871   8.593  0.1587 -0.2721  0.0629
28866W        W71960  24.778  29.900   8.440  0.0007 -0.1746 -0.1716
28867W        W71961  24.621  27.275  10.364 -0.3089 -0.2524 -0.1589
28868W        W71962  23.996  32.964   8.931  0.1932 -0.0071 -0.2082
28869W        W71963  25.317  32.730   7.617  0.2515  0.0075 -0.1086
28870W        W71964  25.030  29.973   8.996  0.1276  0.2722  0.2736
28871W        W71965  23.229  31.236   6.779  0.3951  0.1506  0.0387
28872W        W71966  23.555  32.067   9.558 -0.1261 -0.0221 -0.0468
28873W        W71967  23.997  30.541   8.524  0.0155  0.2764 -0.2374
28874W        W71968  23.070  29.239   9.893 -0.1000  0.2683 -0.1221
28875W        W71969  23.871  28.454   8.215 -0.1240 -0.3280  0.0603
28876W        W71970  23.926  29.311   9.554  0.1338  0.1313  0.2011
28877W        W71971  22.948  30.665   9.277  0.3164 -0.1284 -0.0670
28878W        W71972  22.058  29.306   8.386 -0.1059  0.0697 -0.1261
28879W        W71973  23.047  31.752   6.601  0.0443  0.0201  0.1687
28880W        W71974  25.955  33.448   9.705 -0.0984 -0.0003 -0.1072
28881W        W71975  25.332  31.766   8.682  0.1373  0.1872  0.0061
28882W        W71976  23.834  29.526  10.067 -0.1978  0.2988 -0.1187
28883W        W71977  23.143  28.494   7.756  0.1782  0.0761  0.0958
28884W        W71978  23.523  33.802   9.442  0.3019  0.0129  0.1871
28885W        W71979  23.104  33.564   8.097  0.0045  0.1465 -0.0596
28886W        W71980  24.659  29.385   8.353  0.0140  0.0143 -0.0517
28887W        W71981  26.505  33.041   8.377  0.0977  0.3796 -0.2316
28888W        W71982  25.864  31.461   8.578 -0.1930  0.0964  0.0124
28889W        W71983  24.703  25.347   9.780  0.1167 -0.1574  0.0654
28890W        W71984  23.462  31.321   8.988 -0.3292  0.0755  0.1735
28891W        W71985  23.560  28.314   9.068 -0.1468  0.2696 -0.2011
28892W        W71986  24.398  32.923   9.455 -0.2842 -0.0251 -0.1927
28893W        W71987  22.341  32.038   8.765  0.2448  0.2073 -0.1346
28894W        W71988  19.109  30.967  10.110  0.0901  0.1781  0.0472
28895W        W71989  24.886  32.984   8.883  0.0272 -0.1264 -0.2325
28896W        W71990  24.970  29.230   9.623 -0.0525 -0.1436 -0.0841
28897W        W71991  23.789  31.765   8.262  0.1309  0.0335 -0.0579
28898W        W71992  24.792  28.866   7.611  0.2130 -0.3217 -0.0776
28899W        W71993  24.916  29.629   8.010 -0.0467  0.1095  0.1014
28900W        W71994  25.154  30.649   9.475  0.0206  0.2711 -0.1363
28901W        W71995  24.649  31.241   8.579 -0.0640 -0.1686 -0.2806
28902W        W71996  25.493  29.197   8.827 -0.1926 -0.2751 -0.0054
28903W        W71997  24.092  31.908   9.333  0.2706  0.0201 -0.0166
28904W        W71998  23.398  30.710   9.028 -0.0219 -0.3757 -0.1731
28905W        W71999  23.393  31.284   7.712 -0.0622 -0.0977 -0.2747
28906W        W72000  25.162  31.370   7.696  0.2042 -0.0787  0.1339
28907W        W72001  22.133  31.341   9.957 -0.2472  0.3482 -0.1384
28908W        W72002  23.009  33.832   9.545 -0.3070 -0.0383 -0.1120
28909W        W72003  23.661  28.281   9.556 -0.1410  0.4614  0.0964
28910W        W72004  23.473  30.124   8.100  0.3437  0.2008  0.1918
28911W        W72005  24.539  28.356   9.693  0.0780 -0.0935  0.4252
28912W        W72006  22.079  32.610   8.431 -0.0885 -0.0024 -0.0221
28913W        W72007  23.710  28.778   9.252  0.2456 -0.1722 -0.2347
28914W        W72008  23.812  28.477  10.006  0.0286 -0.1793  0.0877
28915W        W72009  24.777  31.453   9.389 -0.1475  0.2411 -0.1211
28916W        W72010  22.897  31.215   8.990 -0.1785 -0.2131 -0.2117
28917W        W72011  22.626  31.586   8.150  0.0061  0.0770 -0.0482
28918W        W72012  23.793  29.031   9.960  0.3748 -0.0023  0.0710
28919W        W72013  22.471  30.807   9.924  0.1669  0.0671 -0.4215
28920W        W72014  24.870  33.286   9.287  0.1053  0.1615 -0.0550
28921W        W72015  23.948  29.786   9.331  0.2928 -0.6729  0.0390
28922W        W72016  22.547  32.451   7.851 -0.0893  0.5722  0.0727
28923W        W72017  22.784  31.995   8.349  0.2066  0.0969  0.5888
28924W        W72018  23.051  30.804   8.697 -0.1511  0.2952 -0.1747
28925W        W72019  23.171  32.781  10.048  0.0597  0.0718  0.1146
28926W        W72020  22.865  31.474   7.714  0.2039  0.1153  0.1128
28927W        W72021  22.767  28.604  10.298  0.2084 -0.0656 -0.2414
28928W        W72022  23.340  33.018   9.042  0.2537 -0.0589 -0.2167
28929W        W72023  26.085  27.367   9.529 -0.2289 -0.0371 -0.0953
28930W        W72024  21.354  33.339   8.791 -0.2775  0.1127  0.1662
28931W        W72025  22.589  30.468   8.641  0.1946 -0.0709 -0.0616
28932W        W72026  21.398  29.847   9.562 -0.0436 -0.2235  0.0821
28933W        W72027  24.371  29.041   9.576 -0.1183  0.3943 -0.0439
28934W        W72028  25.035  31.432   8.972  0.1429 -0.1132 -0.0375
28935W        W72029  21.020  31.529   9.380 -0.1761 -0.0487  0.3067
28936W        W72030  22.913  29.805   8.757  0.2499  0.0057  0.3125
28937W        W72031  21.256  33.672   8.419 -0.1614 -0.0237  0.2624
28938W        W72032  24.972  28.817   7.156  0.3920  0.1597  0.0710
28939W        W72033  23.459  30.072   8.663 -0.1515 -0.0648 -0.0778
28940W        W72034  22.761  28.757   9.801 -0.0825 -0.2116  0.1899
28941W        W72035  23.115  30.301   8.949 -0.1762  0.0189 -0.3077
28942W        W72036  22.676  32.500   8.653 -0.2045 -0.2881 -0.2716
28943W        W72037  22.213  33.224   9.804 -0.1735 -0.2403  0.0002
28944W        W72038  23.263  31.790   8.649  0.2343  0.2649  0.1374
28945W        W72039  21.953  31.731   7.235 -0.2201  0.0978  0.0505
28946W        W72040  23.847  32.155  10.003  0.1393 -0.1748 -0.0402
28947W        W72041  23.706  31.515   9.474  0.3117  0.0882  0.0659
28948W        W72042  23.579  28.837   8.682 -0.1590  0.0796  0.3435
28949W        W72043  25.133  28.371  10.394 -0.1031 -0.0117  0.2375
28950W        W72044  24.052  32.761   9.820  0.1248  0.1276 -0.0098
28951W        W72045  23.714  30.913   8.630 -0.1315 -0.2233  0.0146
28952W        W72046  22.167  27.937  10.505  0.0400  0.0475  0.1897
28953W        W72047  24.493  32.523   7.350  0.1125 -0.1936 -0.2118
28954W        W72048  22.874  32.166   8.982  0.0276  0.1914  0.3389
28955W        W72049  20.390  29.396  10.513 -0.0116  0.2534  0.2666
28956W        W72050  23.068  31.671   9.142  0.0455 -0.2158 -0.4280
28957W        W72051  22.407  29.962  10.091 -0.1595  0.1208 -0.0344
28958W        W72052  22.700  33.337   9.590 -0.0466 -0.1774  0.0413
28959W        W72053  21.256  32.521   9.458 -0.1098  0.0877  0.1410
28960W        W72054  25.307  34.670   9.548  0.0735  0.2405  0.0959
28961W        W72055  26.925  29.258   8.099 -0.1802  0.0503  0.0074
28962W        W72056  23.974  32.375   7.305 -0.2753 -0.2910  0.0998
28963W        W72057  21.969  31.002   9.659 -0.1347  0.0444  0.4807
28964W        W72058  24.586  29.485   8.888 -0.0927  0.0361  0.2022
28965W        W72059  23.009  27.770   9.936  0.1824  0.0514 -0.2375
28966W        W72060  25.088  31.594   9.868 -0.1730 -0.2745  0.2266
28967W        W72061  24.923  29.959  10.263  0.3187 -0.1004 -0.1411
28968W        W72062  24.296  29.770   8.541 -0.0547 -0.2515  0.1138
28969W        W72063  23.248  30.941   8.221  0.5054 -0.1608 -0.0945
28970W        W72064  24.173  29.193  10.230 -0.0569 -0.0566 -0.0014
28971W        W72065  24.270  30.962   8.659 -0.1405 -0.2210  0.2450
28972W        W72066  25.822  29.256   9.297 -0.3145 -0.0138  0.1792
28973W        W72067  22.402  31.263   8.928 -0.0516  0.0743  0.0050
28974W        W72068  23.736  30.005   9.742  0.1495  0.1882  0.1311
28975W        W72069  24.246  30.762  10.229 -0.2679  0.0300  0.0379
28976W        W72070  23.680  32.095   8.613 -0.1101 -0.2284 -0.2666
28977W        W72071  23.161  31.168  10.010 -0.0475 -0.3531 -0.1118
28978W        W72072  24.713  29.102   9.162 -0.1269  0.0653 -0.1021
28979W        W72073  24.601  31.545   9.833  0.0466  0.0423  0.1789
28980W        W72074  25.080  31.021   8.211  0.0693  0.0640 -0.0076
28981W        W72075  25.479  29.763   8.913  0.0476  0.0256 -0.0386
28982W        W72076  24.442  29.768   7.997 -0.0626 -0.0609 -0.1595
28983W        W72077  25.230  29.529   8.511 -0.0155 -0.1077  0.1466
28984W        W72078  23.246  31.144   9.408 -0.1397  0.0037  0.1543
28985W        W72079  23.984  27.964   7.378  0.1189 -0.3175  0.2270
28986W        W72080  23.227  32.069   6.973 -0.1129  0.2195 -0.2489
28987W        W72081  23.515  33.750   8.884  0.4867 -0.2905  0.1371
28988W        W72082  24.424  30.281   8.393  0.1256  0.0604  0.0009
28989W        W72083  21.856  29.982   8.926 -0.1928  0.0461  0.0155
28990W        W72084  22.405  29.336   7.644 -0.1044 -0.2183 -0.0100
28991W        W72085  23.172  30.516   7.881 -0.0580 -0.0144  0.2225
28992W        W72086  25.523  32.119   9.462  0.0871  0.1219 -0.0063
28993W        W72087  23.757  29.181   8.961  0.3586 -0.2226  0.2278
28994W        W72088  21.617  32.332   8.522  0.3344  0.0248  0.0647
28995W        W72089  25.594  28.736   8.074  0.1724 -0.0637 -0.0762
28996W        W72090  24.629  33.509   8.722  0.3951  0.1927 -0.1232
28997W        W72091  23.043  32.785   9.487 -0.0612 -0.4002 -0.2744
28998W        W72092  21.484  28.744  10.143 -0.2256  0.0114 -0.2600
28999W        W72093  25.778  28.799  10.245  0.1757  0.1450  0.1793
29000W        W72094  23.955  33.234   9.510  0.1738  0.0495  0.2265
29001W        W72095  22.347  31.618   9.589 -0.0755 -0.2868  0.0711
29002W        W72096  23.833  31.244   9.900 -0.0496  0.2423  0.1878
29003W        W72097  22.972  32.963   8.556  0.0762  0.0609 -0.0665
29004W        W72098  24.826  28.170   9.341  0.0136 -0.0585 -0.1510
29005W        W72099  24.218  29.211   8.577 -0.0366 -0.0848  0.2238
29006W        W72100  24.027  33.559   8.662 -0.1651  0.2256  0.3661
29007W        W72101  22.243  29.001   9.763  0.0287 -0.0938 -0.0931
29008W        W72102  23.444  33.044   7.456 -0.0527  0.0644  0.0815
29009W        W72103  23.313  31.734   7.485  0.3625 -0.3254  0.1783
29010W        W72104  24.281  33.116   8.433 -0.0413  0.0750  0.1112
29011W        W72105  24.384  33.256   9.086  0.0012 -0.1003  0.0392
29012W        W72106  23.993  30.589   7.580  0.4355 -0.0504 -0.0894
29013W        W72107  22.013  32.512   9.337  0.5878  0.1204  0.1437
29014W        W72108  21.354  32.419   7.603  0.4075 -0.0420  0.3199
29015W        W72109  24.410  32.284   8.314 -0.1798  0.0574 -0.0721
29016W        W72110  22.887  33.725   8.864  0.1291 -0.1041 -0.5644
29017W        W72111  25.112  28.590   7.953 -0.3423 -0.2766  0.1267
29018W        W72112  24.954  29.660   9.807  0.0836  0.0629  0.0335
29019W        W72113  25.528  29.929   7.250 -0.0220  0.3382 -0.3910
29020W        W72114  23.458  29.541   9.673 -0.1904  0.2453  0.2020
29021W        W72115  23.871  28.735   7.810  0.0123 -0.0735  0.0455
29022W        W72116  25.044  32.563   7.145  0.2157 -0.0836 -0.2788
29023W        W72117  21.521  30.350   8.736 -0.0487 -0.0631  0.0181
29024W        W72118  23.965  30.568   9.652 -0.4064 -0.2470 -0.0535
29025W        W72119  24.363  28.240  10.211 -0.0932  0.1030 -0.0772
29026W        W72120  23.733  30.479   7.130  0.0428  0.1579  0.0276
29027W        W72121  24.189  30.262  10.018  0.0453 -0.1135  0.1955
29028W        W72122  23.405  32.224   8.180 -0.1996  0.0700 -0.1417
29029W        W72123  23.971  32.664   9.327  0.0788  0.2123 -0.1090
29030W        W72124  21.914  31.818   9.948  0.2583  0.0194 -0.2133
29031W        W72125  22.901  29.459   8.368 -0.0863 -0.1129 -0.0352
29032W        W72126  24.820  30.345   9.249  0.3251  0.0732  0.1828
29033W        W72127  22.708  30.187   9.689 -0.0001 -0.1225 -0.2540
29034W        W72128  22.827  31.652   8.739 -0.1943  0.1101  0.0312
29035W        W72129  25.159  29.132   8.098 -0.0711  0.1888 -0.0317
29036W        W72130  22.264  33.332   9.028  0.3052 -0.1057 -0.2464
29037W        W72131  22.937  29.812   9.876 -0.1398 -0.0655 -0.0267
29038W        W72132  24.335  30.956   7.622 -0.0833  0.0321  0.0022
29039W        W72133  24.137  29.551   8.965  0.0043 -0.1771  0.3450
29040W        W72134  23.174  30.099   9.421 -0.1573 -0.0001 -0.5181
29041W        W72135  24.920  29.051   8.722  0.2058  0.1416  0.0261
29042W        W72136  22.260  30.805   8.880 -0.1861  0.1544 -0.1121
29043W        W72137  22.397  29.950   8.840 -0.2868 -0.2253 -0.0879
29044W        W72138  22.082  28.426  10.229 -0.1014 -0.2269 -0.0727
29045W        W72139  24.195  30.977   9.760  0.0060 -0.2306  0.0739
29046W        W72140  23.731  31.027   9.409  0.0063 -0.1139 -0.0025
29047W        W72141  23.373  32.435   7.358 -0.1633  0.3101  0.2690
29048W        W72142  24.451  30.000   8.946 -0.0412  0.4564  0.1409
29049W        W72143  25.135  33.734   9.164 -0.1221  0.0661 -0.1825
29050W        W72144  22.471  29.437   8.626  0.1711  0.1094 -0.1684
29051W        W72145  25.271  32.699  10.062  0.0097 -0.2357 -0.0882
29052W        W72146  26.225  32.258   9.230 -0.1582  0.2997 -0.3725
29053W        W72147  24.060  28.746   8.564  0.0531 -0.1167  0.1137
29054W        W72148  23.494  30.501   9.497  0.2258  0.2091 -0.0228
29055W        W72149  23.102  32.088   7.835  0.0654  0.1366 -0.0239
29056W        W72150  23.209  30.659  10.270 -0.2750  0.0725 -0.0865
29057W        W72151  22.568  31.943   7.769  0.2338  0.0812  0.0191
29058W        W72152  25.544  30.581  10.216  0.0618  0.1117  0.2059
29059W        W72153  23.043  30.260   8.373 -0.0469  0.2214  0.2990
29060W        W72154  24.020  30.044   7.889  0.1586 -0.1177 -0.1485
29061W        W72155  22.317  32.199   8.221 -0.0496 -0.2239  0.1452
29062W        W72156  24.864  32.479   8.941  0.2071 -0.3066  0.1632
29063W        W72157  23.091  32.265   9.492 -0.0752 -0.3041  0.3184
29064W        W72158  24.685  31.911   9.158 -0.0812 -0.0825 -0.0052
29065W        W72159  24.226  29.014   9.053  0.3449 -0.1966  0.1117
29066W        W72160  25.742  30.007   7.831  0.0721  0.0036 -0.1227
29067W        W72161  25.094  27.271   7.669 -0.4281  0.0666 -0.0672
29068W        W72162  21.697  32.059   9.559 -0.0014  0.1310  0.0684
29069W        W72163  21.356  29.043   7.470 -0.1184  0.0471  0.4368
29070W        W72164  21.713  30.747   7.516 -0.0512 -0.0217  0.3750
29071W        W72165  22.298  32.267   9.677  0.0723  0.0307 -0.0076
29072W        W72166  22.502  32.381   9.234 -0.2797 -0.1149 -0.1383
29073W        W72167  22.408  28.915   8.738  0.1397  0.0120 -0.1591
29074W        W72168  24.081  31.609   7.171  0.2486  0.0479  0.2268
29075W        W72169  24.134  29.419   8.062 -0.0430  0.0735 -0.3279
29076W        W72170  22.024  29.449   8.857  0.2778 -0.1274  0.0056
29077W        W72171  23.896  33.270  10.049 -0.1128 -0.0982 -0.1301
29078W        W72172  23.467  32.576   9.320 -0.0897 -0.1052  0.2040
29079W        W72173  24.391  28.387   8.398  0.2378 -0.0811 -0.1336
29080W        W72174  22.129  31.151   8.305  0.3752 -0.1783  0.1537
29081W        W72175  21.576  29.342   8.037  0.1080 -0.0181 -0.0446
29082W        W72176  22.767  31.910   9.583  0.2127 -0.0208 -0.0227
29083W        W72177  24.438  32.803   8.807 -0.0836  0.0726 -0.2329
29084W        W72178  23.912  33.714   7.259  0.0394 -0.0384 -0.2906
29085W        W72179  22.123  30.486  10.102  0.0214 -0.0959  0.1111
29086W        W72180  24.318  30.748   9.289 -0.1027  0.3437  0.2134
29087W        W72181  24.720  32.289   7.729  0.0335 -0.0864  0.0886
29088W        W72182  23.378  29.118   9.457 -0.5220  0.0106  0.1516
29089W        W72183  24.290  30.210   9.407  0.1078 -0.4280 -0.0841
29090W        W72184  24.064  31.686   9.820 -0.1953 -0.3169 -0.2227
29091W        W72185  23.977  30.038   8.878  0.2312 -0.0088 -0.0087
29092W        W72186  24.675  28.398   7.051 -0.2545  0.0213 -0.0224
29093W        W72187  24.547  32.915   7.598 -0.0812 -0.0473  0.0206
29094W        W72188  19.495  30.757   9.303 -0.2118  0.0334  0.1968
29095W        W72189  22.969  31.264   8.437 -0.3668  0.1015 -0.2726
29096W        W72190  22.478  31.940   9.996  0.0320 -0.1300  0.1476
29097W        W72191  23.160  31.656   8.173  0.2889 -0.3452  0.0999
29098W        W72192  24.379  31.847   8.034 -0.2794 -0.0712 -0.0381
29099W        W72193  24.653  32.554   9.843  0.0293 -0.0559  0.2577
29100W        W72194  26.418  32.508  10.049  0.0507 -0.3597 -0.0377
29101W        W72195  23.744  30.507  10.127 -0.2128 -0.1297  0.0713
29102W        W72196  23.032  28.175   8.981  0.2840  0.1184 -0.0257
29103W        W72197  24.229  29.718   9.828  0.1185 -0.0602  0.0992
29104W        W72198  23.445  30.536   8.503 -0.2309 -0.0530  0.0849
29105W        W72199  22.025  31.106   9.197  0.0506  0.0485  0.1432
29106W        W72200  23.284  29.403   8.760  0.3860 -0.2694  0.0531
29107W        W72201  25.301  28.788   8.508  0.0326  0.1357  0.2229
29108W        W72202  22.203   2.257   9.249  0.2109  0.1784 -0.1412
29109W        W72203  24.610  30.394  10.207 -0.1275 -0.1217 -0.3486
29110W        W72204  23.160  33.749   0.205  0.0525  0.2148 -0.0115
29111W        W72205  22.857  34.594  31.281 -0.0512 -0.1709  0.0863
29112W        W72206  25.200   0.641   1.921 -0.4073 -0.1023 -0.3702
29113W        W72207  21.572  34.311   1.142 -0.4485 -0.1947 -0.0543
29114W        W72208  22.206  33.178   3.145 -0.1366 -0.2802 -0.0943
29115W        W72209  26.210  33.726  31.116 -0.0505 -0.1558 -0.0174
29116W        W72210  24.704  34.259   4.879 -0.3300 -0.4545  0.3054
29117W        W72211  23.851  33.378   1.205  0.0351  0.2929  0.2724
29118W        W72212  21.097  33.143   1.510 -0.0898  0.0060 -0.1077
29119W        W72213  23.862   0.778   3.080  0.1367  0.0718  0.2363
29120W        W72214  21.747   0.070   0.757  0.1265  0.0044  0.0290
29121W        W72215  23.553  33.416   3.822  0.1191 -0.2964  0.0907
29122W        W72216  23.851  34.589   0.972  0.0091 -0.0153 -0.0878
29123W        W72217  24.049  33.629   2.622 -0.0388  0.0823  0.1148
29124W        W72218  24.832  33.518   2.835 -0.0639  0.1888 -0.3955
29125W        W72219  22.634  34.218  31.731 -0.1813  0.1961 -0.1737
29126W        W72220  21.643  34.470   2.274 -0.2073  0.1377  0.3490
29127W        W72221  23.324  34.058   3.128  0.1400  0.3176 -0.2557
29128W        W72222  24.236  34.195   1.526 -0.0560 -0.3194 -0.0585
29129W        W72223  24.554   0.996   2.916 -0.2176 -0.1047  0.0972
29130W        W72224  25.770  33.000   3.066  0.0308  0.2221 -0.0113
29131W        W72225  25.201   0.357   1.464  0.1965 -0.1021 -0.1912
29132W        W72226  24.310   0.151   2.243 -0.2518  0.1364  0.3755
29133W        W72227  24.793  34.367   2.682  0.0324  0.3215  0.3151
29134W        W72228  23.988  33.448   0.135  0.1566 -0.0539 -0.1080
29135W        W72229  22.951  32.157   1.256  0.2037 -0.1451  0.1693
29136W        W72230  23.029  33.648  31.683 -0.2217 -0.1172  0.1315
29137W        W72231  23.633  33.499   2.044 -0.0754 -0.2453 -0.3885
29138W        W72232  23.892  33.153   2.497 -0.0961 -0.0200 -0.1146
29139W        W72233  24.012   0.522   0.184  0.1185 -0.1687  0.0856
29140W        W72234  23.239  33.922   1.891 -0.0249 -0.0547  0.0507
29141W        W72235  23.540   0.422   3.121  0.0579  0.0359  0.2471
29142W        W72236  21.882   1.521   0.135  0.0643  0.2019 -0.2819
29143W        W72237  22.376   0.900   3.152  0.0605  0.0856  0.2525
29144W        W72238  22.693   0.453   2.523 -0.0861 -0.1760 -0.0739
29145W        W72239  23.672  33.468   0.577 -0.1223 -0.3146  0.2081
29146W        W72240  25.686  32.446   0.885 -0.0057 -0.0745 -0.0861
29147W        W72241  26.176  32.659   2.965 -0.1176 -0.0153  0.0144
29148W        W72242  25.386  32.427   2.301  0.1280 -0.2287  0.0624
29149W        W72243  25.669  34.030  31.198  0.1923 -0.3187 -0.1319
29150W        W72244  24.480  33.432   3.225  0.2510 -0.0113 -0.0202
29151W        W72245  23.931  32.083   2.239 -0.1769  0.0423 -0.0760
29152W        W72246  24.688  33.114   0.503 -0.1149 -0.0433  0.1501
29153W        W72247  23.632  33.699   3.364 -0.1275  0.2609 -0.2819
29154W        W72248  24.461  31.699   0.438  0.1941  0.0710 -0.2872
29155W        W72249  24.966  34.159   0.686  0.1027 -0.2484 -0.0912
29156W        W72250  22.699  34.216   3.529 -0.2031 -0.4357  0.1238
29157W        W72251  23.083  32.519   2.182 -0.1478  0.4594 -0.0310
29158W        W72252  23.773  33.944   4.988  0.2242 -0.0019 -0.0559
29159W        W72253  23.077  33.610   1.522  0.0586 -0.3197 -0.2351
29160W        W72254  25.156   0.260   3.549 -0.3281 -0.0557 -0.0514
29161W        W72255  23.233  33.269   0.260 -0.0327 -0.1386 -0.2181
29162W        W72256  24.677  33.811   0.403 -0.2512  0.1215 -0.1282
29163W        W72257  23.172  34.449   0.599 -0.1437  0.0566 -0.0338
29164W        W72258  26.185  33.533   3.418 -0.1086  0.1402 -0.1591
29165W        W72259  23.363  34.349   4.232 -0.1629 -0.1469  0.1308
29166W        W72260  21.407   0.014   0.342  0.1594 -0.1042  0.0027
29167W        W72261  24.738  34.560   0.907  0.2096  0.0271 -0.0067
29168W        W72262  24.701  33.974   3.196 -0.0285 -0.0683 -0.0539
29169W        W72263  25.116   0.796   1.235 -0.2367  0.2181  0.2629
29170W        W72264  22.768  33.887   0.589 -0.1461 -0.0793 -0.0556
29171W        W72265  21.181   0.438   0.850 -0.1193  0.2455  0.1293
29172W        W72266  24.245  33.973   2.035 -0.0014 -0.0453 -0.0549
29173W        W72267  22.490  34.307   4.243 -0.4064 -0.2516  0.0293
29174W        W72268  25.082  32.827   3.625  0.0587 -0.2525 -0.0314
29175W        W72269  22.877  32.899   0.455  0.1087 -0.0774 -0.1624
29176W        W72270  23.485   0.680   0.808 -0.1458 -0.2143 -0.0467
29177W        W72271  23.178  33.181  30.502 -0.1345 -0.1588 -0.0677
29178W        W72272  24.152   0.297  31.736 -0.1667 -0.2107  0.3792
29179W        W72273  21.899  33.338   1.005 -0.6442 -0.2265  0.0214
29180W        W72274  21.888  34.059   2.035  0.0752 -0.0444 -0.1493
29181W        W72275  24.157  32.797   2.187  0.1655  0.2200  0.2168
29182W        W72276  23.110  34.583  30.829 -0.1368 -0.2311 -0.0167
29183W        W72277  24.149  32.692   1.497  0.4069  0.1796  0.3731
29184W        W72278  24.824   0.111   2.405  0.0518 -0.2147  0.1803
29185W        W72279  25.176  33.471   1.595 -0.1224 -0.2559  0.0386
29186W        W72280  23.719  32.815   2.895 -0.1956  0.1283 -0.1931
29187W        W72281  24.533   0.466   5.319 -0.0329  0.0375  0.1120
29188W        W72282  24.607   0.138   0.526  0.4286  0.3131  0.0159
29189W        W72283  23.301  34.396   2.223 -0.2273  0.1387  0.1951
29190W        W72284  21.807  34.439  30.850  0.1997  0.0844 -0.0021
29191W        W72285  24.577  34.375   2.186 -0.1138  0.1392  0.1923
29192W        W72286  24.206  33.874   3.176 -0.1544 -0.1435 -0.1541
29193W        W72287  22.673  33.301  30.841 -0.3507  0.0468  0.0827
29194W        W72288  23.618  33.720   1.529  0.0844  0.3898 -0.0884
29195W        W72289  24.717  34.331   1.648 -0.3417 -0.1242  0.0251
29196W        W72290  23.457  33.988  31.830  0.0557  0.0760 -0.0501
29197W        W72291  21.224  33.965   1.005  0.1536 -0.1728 -0.1634
29198W        W72292  24.141  31.604   2.204  0.3008 -0.2286  0.0313
29199W        W72293  23.616  32.731   2.138  0.0402 -0.3816  0.0307
29200W        W72294  23.643  33.998   2.157 -0.0797 -0.2256 -0.1533
29201W        W72295  24.269   0.472   4.621 -0.4132 -0.1007  0.1361
29202W        W72296  24.091  32.905   1.035 -0.4652 -0.2904  0.0804
29203W        W72297  24.075   0.227   3.151  0.1110  0.0375  0.1387
29204W        W72298  21.774  32.905   0.925 -0.0396  0.2052 -0.2297
29205W        W72299  25.022  34.139   2.218 -0.2462  0.1240 -0.2989
29206W        W72300  22.357  32.836   2.181 -0.3693  0.0162 -0.1087
29207W        W72301  22.226  34.108   0.523 -0.0597  0.2807 -0.1713
29208W        W72302  23.162  34.402   3.783 -0.1169 -0.0496 -0.0777
29209W        W72303  23.954  33.480   3.085  0.1558 -0.0502 -0.0664
29210W        W72304  21.050  33.599   1.273  0.0766 -0.0483 -0.3444
29211W        W72305  23.424  33.887   0.593 -0.0656  0.0985 -0.0254
29212W        W72306  24.776  33.622   3.598 -0.0776 -0.0568  0.0509
29213W        W72307  24.159  34.455   1.921  0.1396  0.1054  0.1481
29214W        W72308  25.532   0.288   4.651 -0.2734 -0.1286  0.1364
29215W        W72309  24.468  33.891   2.753  0.1874 -0.2708  0.0285
29216W        W72310  24.597  34.342   0.301 -0.0179  0.2097  0.1861
29217W        W72311  24.762  34.032   1.084  0.0653 -0.1772  0.2104
29218W        W72312  25.166  33.375   2.465  0.0539  0.1645  0.1638
29219W        W72313  24.205  34.603   0.632  0.2119  0.2234  0.1135
29220W        W72314  25.235  32.861   3.026 -0.4474 -0.2072 -0.2710
29221W        W72315  24.338  32.321   2.472  0.0768 -0.0290 -0.2040
29222W        W72316  23.880  32.470   2.500 -0.0289 -0.0881 -0.2317
29223W        W72317  24.508   0.119   3.343  0.0078 -0.0162 -0.0573
29224W        W72318  24.319   0.262   0.997 -0.3221  0.1878 -0.0408
29225W        W72319  22.192  33.709   1.195 -0.0978  0.1006 -0.1875
29226W        W72320  22.819  33.364   2.607  0.1670  0.2717  0.0733
29227W        W72321  24.801   0.370   0.910  0.1982 -0.1404  0.0367
29228W        W72322  22.711   0.905   3.642  0.2393  0.0187  0.1734
29229W        W72323  24.259  34.404   1.086 -0.1256  0.1957 -0.0103
29230W        W72324  23.085  33.588   3.019 -0.0928 -0.2086  0.1065
29231W        W72325  22.755  33.541   1.173 -0.0049  0.2921 -0.0955
29232W        W72326  24.981   0.059   1.882  0.0624 -0.2238 -0.1064
29233W        W72327  25.171   0.479   3.052  0.2636 -0.1290  0.2288
29234W        W72328  24.692   0.665   2.539  0.2939  0.0767  0.1836
29235W        W72329  23.532  33.338   2.908 -0.4972  0.0329  0.1038
29236W        W72330  25.539  34.212   0.591 -0.0858  0.1372 -0.2479
29237W        W72331  25.456   0.197   1.942 -0.1539  0.2485 -0.3185
29238W        W72332  25.698   0.435   2.974  0.0284 -0.0848  0.0542
29239W        W72333  23.748   0.116  31.310 -0.0220  0.4781 -0.2585
29240W        W72334  22.167  34.487   1.697  0.4764 -0.1944 -0.1667
29241W        W72335  24.178   0.128   5.503 -0.0511  0.1280 -0.2148
29242W        W72336  23.476  34.297   0.222 -0.1944 -0.0235  0.2339
29243W        W72337  24.622  33.674   2.344  0.1522 -0.0428 -0.1226
29244W        W72338  24.192  33.828   1.078  0.1744  0.0314 -0.1373
29245W        W72339  21.742   0.333   2.581  0.1842 -0.0325 -0.1788
29246W        W72340  22.915  33.205  31.395  0.2053  0.1062 -0.1251
29247W        W72341  24.603   0.381  31.177 -0.0525  0.2316  0.1624
29248W        W72342  23.118  33.529   0.647  0.2023 -0.1611  0.0973
29249W        W72343  24.785   0.118   4.824  0.0546  0.0011  0.0408
29250W        W72344  24.353  32.409   1.063  0.3002 -0.0699 -0.2289
29251W        W72345  24.134  33.649   1.656  0.1977  0.2714  0.0455
29252W        W72346  24.770   0.137   1.368  0.1605  0.0592  0.1899
29253W        W72347  24.715   0.576   1.536  0.0257  0.3616 -0.1031
29254W        W72348  25.451   0.903   3.162  0.0132  0.0775 -0.1918
29255W        W72349  22.533  34.542   2.061 -0.2909 -0.1092 -0.4474
29256W        W72350  22.665  33.786   2.401 -0.3052  0.0943 -0.3448
29257W        W72351  22.623  32.594   1.162  0.3175  0.0280  0.3664
29258W        W72352  21.643  33.784   1.726 -0.0418  0.0234 -0.1019
29259W        W72353  24.483   0.468   0.104  0.1367  0.0451  0.0884
29260W        W72354  25.436  34.336   1.964 -0.1711 -0.1882  0.1313
29261W        W72355  26.178  32.640   1.058  0.0346  0.1057  0.0062
29262W        W72356  23.449  33.573   2.451 -0.2160  0.0392 -0.2983
29263W        W72357  22.757  32.626  31.971  0.0813 -0.1734 -0.1019
29264W        W72358  24.012   1.001   3.622 -0.0187  0.2477 -0.0126
29265W        W72359  25.445  33.222   3.500 -0.1415  0.0842  0.3503
29266W        W72360  22.546  34.171   1.125  0.4259 -0.0514 -0.1344
29267W        W72361  23.228   1.265   1.834  0.1056  0.2602  0.0254
29268W        W72362  25.802  32.861   0.037 -0.2979 -0.0412  0.1187
29269W        W72363  22.810  34.058   2.045  0.0952 -0.3460  0.0670
29270W        W72364  21.542  33.676   1.239 -0.2165 -0.0671 -0.0402
29271W        W72365  25.696  34.475   1.067 -0.2013 -0.1949  0.2032
29272W        W72366  23.227  34.487   2.732 -0.2260  0.0650  0.1608
29273W        W72367  25.249  34.572   2.374 -0.0335 -0.0744 -0.1410
29274W        W72368  21.959  33.391   1.486  0.0459 -0.2739  0.2105
29275W        W72369  25.667  33.867   0.946  0.0837 -0.0823 -0.0926
29276W        W72370  23.317  33.834   3.694  0.3910  0.0765  0.1558
29277W        W72371  23.728   1.044  31.972 -0.1306 -0.1312  0.0143
29278W        W72372  24.423   1.164   3.355 -0.0770  0.0516  0.1305
29279W        W72373  23.752  33.856   0.254 -0.0412 -0.0340 -0.0867
29280W        W72374  24.257  33.355   2.190 -0.0301 -0.0945  0.1444
29281W        W72375  23.403  33.348  31.464 -0.0180  0.2899 -0.2279
29282W        W72376  20.719   0.453   1.013  0.0807 -0.1857  0.1359
29283W        W72377  24.097  34.097   3.622 -0.0681 -0.1555 -0.2706
29284W        W72378  22.284  33.002   0.726  0.2366 -0.2485  0.3700
29285W        W72379  25.503   0.810   2.248 -0.2786  0.1539  0.0339
29286W        W72380  24.264   1.581   1.175  0.0478  0.2317 -0.1462
29287W        W72381  22.906  33.466   2.081  0.3180  0.1566 -0.1065
29288W        W72382  23.672  32.753   1.659 -0.1518  0.1718  0.0463
29289W        W72383  22.698  34.319   2.561 -0.2042 -0.1438 -0.0496
29290W        W72384  25.002  32.736   2.389 -0.2799  0.3477 -0.0587
29291W        W72385  23.322  34.436   5.341 -0.0935 -0.1105 -0.1588
29292W        W72386  25.706  33.403   2.527 -0.1371  0.0704  0.2915
29293W        W72387  23.275  34.156   1.424 -0.0528 -0.5095 -0.0930
29294W        W72388  23.156  33.968   2.434 -0.0696 -0.0001 -0.2428
29295W        W72389  26.372  32.053   0.353  0.1578 -0.0251  0.2389
29296W        W72390  24.366  33.367   0.890  0.0239  0.1525  0.1658
29297W        W72391  24.012   0.025   2.726  0.1974  0.2201  0.0510
29298W        W72392  20.361   0.037   0.530  0.0159  0.3401  0.5273
29299W        W72393  25.564   0.319   2.377 -0.1222 -0.0964  0.0646
29300W        W72394  24.147   0.139   4.201 -0.1412  0.2278  0.3626
29301W        W72395  22.335  33.991   1.842 -0.1468 -0.1803 -0.0220
29302W        W72396  21.936  34.103   1.506  0.3656 -0.2962 -0.0729
29303W        W72397  23.039  33.048   1.372 -0.1643  0.1532  0.0105
29304W        W72398  22.543  32.992   2.779  0.2447  0.1511 -0.1101
29305W        W72399  22.710  33.386   0.383 -0.0768  0.2519  0.2610
29306W        W72400  24.964   0.915   4.453  0.1396 -0.1983  0.0239
29307W        W72401  24.489  33.120   3.608 -0.0553 -0.2657  0.1600
29308W        W72402  21.235  34.281   2.081  0.1981 -0.0218 -0.2894
29309W        W72403  22.818  32.884   2.398  0.1566 -0.2319 -0.0002
29310W        W72404  22.856  34.081   3.001  0.1499  0.1400  0.0053
29311W        W72405  25.369  33.339   2.889  0.1244  0.1689  0.2286
29312W        W72406  22.944  34.450   1.118 -0.1830 -0.1895 -0.3072
29313W        W72407  22.160  33.247   3.693  0.0809  0.2302 -0.2575
29314W        W72408  23.708  31.456   2.487  0.2689 -0.0833  0.2363
29315W        W72409  23.886  34.114   0.762  0.1916 -0.1452 -0.0042
29316W        W72410  23.298   1.378   2.928  0.3240  0.1252 -0.0764
29317W        W72411  23.015  34.464   1.823 -0.0008 -0.0276  0.0200
29318W        W72412  24.418   0.116   1.743  0.0742 -0.0726  0.0642
29319W        W72413  23.260   0.043  30.220 -0.2101  0.0111 -0.1073
29320W        W72414  24.727   0.165  31.594  0.1411  0.0874  0.0562
29321W        W72415  20.552  32.099   3.297 -0.1644  0.1718  0.1677
29322W        W72416  23.970  34.282   0.279  0.0490  0.1674  0.0254
29323W        W72417  23.852   0.634   1.155 -0.0880 -0.1162  0.0711
29324W        W72418  25.113  33.683   2.055 -0.1569 -0.0162  0.0858
29325W        W72419  24.341  33.267   2.740 -0.0882 -0.1159 -0.1762
29326W        W72420  23.325  33.023   0.643  0.0576  0.2432  0.1067
29327W        W72421  22.911  33.745   3.482  0.1355 -0.2452 -0.2597
29328W        W72422  24.707  33.359   4.455 -0.0782 -0.0670  0.2270
29329W        W72423  25.221  34.058   5.009  0.1715 -0.1782  0.0100
29330W        W72424  22.419  33.343   4.095  0.0676  0.1846  0.0918
29331W        W72425  22.245  31.629   6.745 -0.1039 -0.0189  0.4320
29332W        W72426  24.548   0.763   4.855 -0.0900  0.2391 -0.1786
29333W        W72427  23.900  33.800   6.706 -0.1307 -0.4055  0.2151
29334W        W72428  24.348  31.556   4.152  0.3009 -0.2844  0.0495
29335W        W72429  22.647  32.719   5.540 -0.0285  0.0584  0.1005
29336W        W72430  23.564  34.197   6.744  0.1119  0.0439 -0.1998
29337W        W72431  21.611  33.776   3.279 -0.0610 -0.0388  0.1286
29338W        W72432  22.656  33.408   6.313 -0.3875  0.2289  0.1115
29339W        W72433  23.780  33.771   4.529 -0.1015 -0.0966 -0.0062
29340W        W72434  23.532  33.183   5.608  0.1552  0.1877  0.1449
29341W        W72435  23.641  32.906   6.109 -0.0097 -0.3052  0.1695
29342W        W72436  23.065   0.263   2.879  0.3224 -0.1286  0.0610
29343W        W72437  22.674  33.574   5.852 -0.2832  0.0350  0.0024
29344W        W72438  22.431  33.176   5.586 -0.2024  0.0277  0.2792
29345W        W72439  24.934  34.461   6.947 -0.3000  0.2984 -0.0096
29346W        W72440  24.632   0.012   6.174 -0.1835 -0.1534  0.0538
29347W        W72441  25.240  33.554   7.013  0.0344  0.1629  0.0298
29348W        W72442  23.595   0.440   6.732  0.1762  0.1503 -0.1317
29349W        W72443  23.827   0.689   5.956  0.0112 -0.2964 -0.0674
29350W        W72444  23.886  32.761   7.708 -0.3698 -0.0883  0.0060
29351W        W72445  25.385   0.584   5.153 -0.0539  0.0640 -0.2814
29352W        W72446  23.719  33.062   3.336  0.1664  0.2284  0.0070
29353W        W72447  24.529  33.428   4.971  0.1133 -0.1968  0.2972
29354W        W72448  24.170  32.458   5.418  0.1634  0.2490  0.0564
29355W        W72449  21.220  31.663   6.089  0.0028 -0.1093 -0.2021
29356W        W72450  23.800   0.340   4.548  0.0479  0.0099  0.1864
29357W        W72451  23.847   0.327   7.266  0.0335 -0.0516 -0.2068
29358W        W72452  24.052  33.530   5.128 -0.0264 -0.1265  0.1765
29359W        W72453  22.841  34.089   4.659 -0.0853  0.4062  0.0776
29360W        W72454  21.836  34.534   7.496 -0.2711  0.0733  0.1031
29361W        W72455  22.404  33.918   7.157  0.1894  0.0530 -0.0926
29362W        W72456  24.960  33.250   3.320  0.0723  0.0355 -0.0105
29363W        W72457  24.153  34.446   5.034 -0.3774 -0.2313  0.2519
29364W        W72458  25.294  32.817   6.217  0.0387  0.1476  0.2644
29365W        W72459  23.913  32.241   5.817  0.1996 -0.2086  0.1856
29366W        W72460  25.346  34.522   4.296  0.0731  0.0036  0.1609
29367W        W72461  23.110  32.701   6.361 -0.3343 -0.0534 -0.1465
29368W        W72462  21.948  33.131   5.668  0.0084  0.0080  0.0314
29369W        W72463  24.927  32.715   5.272  0.1302 -0.0857 -0.0424
29370W        W72464  21.557  32.294   6.241  0.1025  0.0627 -0.2717
29371W        W72465  25.264  34.028   5.529  0.1671 -0.0112 -0.1094
29372W        W72466  25.044   0.552   4.741  0.0911  0.0075  0.1274
29373W        W72467  21.999  34.408   4.831  0.1101  0.2916 -0.3161
29374W        W72468  22.219  32.742   5.170 -0.0953  0.0225 -0.2197
29375W        W72469  22.447  32.269   6.524 -0.0241  0.2625  0.0286
29376W        W72470  21.267  32.281   5.826  0.0802 -0.0043  0.2847
29377W        W72471  25.081  34.647   7.381  0.1766  0.0891 -0.1990
29378W        W72472  23.303  32.399   3.772  0.2834 -0.2141  0.2772
29379W        W72473  24.406  34.401   7.080  0.0222  0.2354 -0.0360
29380W        W72474  23.416   0.447   5.851 -0.0851  0.0556  0.2285
29381W        W72475  25.664  33.653   6.602  0.1611 -0.1108  0.3386
29382W        W72476  23.003  34.010   6.588 -0.3646 -0.0218 -0.0374
29383W        W72477  22.536  33.715   4.849  0.0735 -0.2417  0.0406
29384W        W72478  22.971  33.235   5.618 -0.2895  0.2523  0.0365
29385W        W72479  25.087  33.045   7.096  0.3234  0.2455 -0.1629
29386W        W72480  24.983   0.249   5.243 -0.2105  0.1253 -0.0647
29387W        W72481  22.807  32.822   3.276 -0.0214  0.0534 -0.1346
29388W        W72482  23.434  34.081   5.847 -0.0141 -0.2137 -0.1122
29389W        W72483  25.532  32.854   7.106  0.0827 -0.0416 -0.1260
29390W        W72484  22.904  33.078   8.100  0.1641 -0.1913 -0.0800
29391W        W72485  24.039  34.226   6.504  0.1211  0.1855  0.2427
29392W        W72486  23.623   0.415   4.077 -0.1722  0.0870  0.1710
29393W        W72487  24.594  34.590   5.309 -0.1452 -0.0229  0.1517
29394W        W72488  24.025  32.513   4.675  0.1058  0.1315  0.0275
29395W        W72489  24.482  33.025   4.162  0.2271  0.0316  0.0391
29396W        W72490  23.832  33.285   4.403  0.7134  0.0119 -0.0584
29397W        W72491  24.302  34.654   4.612 -0.2548 -0.0310  0.1709
29398W        W72492  23.368  32.387   6.029  0.0326  0.0658  0.1275
29399W        W72493  24.189  33.537   4.610 -0.3563  0.1835 -0.0623
29400W        W72494  24.344  33.671   5.962  0.3125  0.0542  0.4271
29401W        W72495  24.609   0.653   6.673 -0.3414  0.0196  0.0923
29402W        W72496  24.043  32.841   5.773 -0.3154  0.0747 -0.2893
29403W        W72497  23.665  33.333   7.065  0.1401  0.1572  0.3160
29404W        W72498  25.575  34.375   7.618 -0.2681 -0.1520  0.1320
29405W        W72499  25.702  34.218   4.893  0.0915 -0.0133 -0.0804
29406W        W72500  24.050   0.689   6.632  0.0549 -0.0842 -0.1816
29407W        W72501  22.559  32.996   4.495 -0.0710  0.1849  0.2034
29408W        W72502  24.841  33.214   6.275  0.3101 -0.3606 -0.1367
29409W        W72503  23.628  34.450   6.282  0.1364  0.0826  0.3032
29410W        W72504  23.563  32.849   4.603  0.1531 -0.1624  0.1568
29411W        W72505  22.671  32.453   5.151  0.2426  0.0375 -0.1373
29412W        W72506  26.062  33.342   5.079 -0.1154 -0.1097  0.2896
29413W        W72507  22.765  32.270   4.183  0.1701 -0.0163  0.0563
29414W        W72508  22.650  33.190   3.641  0.1747 -0.1650 -0.1583
29415W        W72509  24.788  34.103   5.347  0.0894  0.0109  0.0633
29416W        W72510  23.090  32.743   5.810 -0.3203 -0.1216  0.0849
29417W        W72511  24.389  34.531   6.614 -0.0833 -0.2121 -0.0288
29418W        W72512  23.298   1.045   6.696  0.1848  0.2324 -0.2257
29419W        W72513  24.233  33.620   3.595  0.1361  0.2017  0.2470
29420W        W72514  23.243   0.349   7.207  0.4152  0.2629 -0.0952
29421W        W72515  21.188  33.600   2.825  0.1798 -0.1682  0.0057
29422W        W72516  25.204  34.072   6.668  0.0169  0.0433 -0.1641
29423W        W72517  23.350  33.316   4.556 -0.0756 -0.0198 -0.0838
29424W        W72518  22.008  33.662   3.526 -0.1130 -0.1289 -0.2412
29425W        W72519  22.794   0.257   6.274 -0.2054 -0.0733 -0.0812
29426W        W72520  23.577  33.411   6.464 -0.0267 -0.1686 -0.1977
29427W        W72521  22.718  32.540   4.687  0.1510  0.1277  0.3074
29428W        W72522  24.299   1.180   6.629  0.2112 -0.2521  0.4297
29429W        W72523  24.865  33.524   5.844 -0.3462  0.1130  0.2773
29430W        W72524  23.622  32.566   5.623  0.5045  0.0071  0.0991
29431W        W72525  25.569  33.812   7.417 -0.1752 -0.0956 -0.2953
29432W        W72526  24.211  33.444   6.432 -0.1227  0.0299 -0.0219
29433W        W72527  25.821  33.898   4.200 -0.2110 -0.0238 -0.4281
29434W        W72528  23.950  33.618   4.082 -0.0001  0.0311  0.1837
29435W        W72529  26.228  32.801   6.474 -0.0765  0.0867  0.1790
29436W        W72530  24.283   1.452   4.407  0.0997 -0.0612  0.2689
29437W        W72531  23.714  31.927   7.179  0.0560 -0.2784 -0.0709
29438W        W72532  22.210  34.307   6.158  0.3060  0.3596  0.2411
29439W        W72533  22.434  33.836   4.245 -0.1447  0.3453  0.1769
29440W        W72534  21.801   0.614   6.298 -0.2539 -0.1058 -0.2616
29441W        W72535  23.299  33.026   5.114 -0.1703 -0.0497 -0.2338
29442W        W72536  22.254  32.164   5.000 -0.3643  0.1575 -0.0281
29443W        W72537  22.661  34.309   6.948  0.0250 -0.1597 -0.0618
29444W        W72538  24.640   0.786   5.692 -0.1253 -0.2030  0.2764
29445W        W72539  22.687  34.528   5.470  0.0592  0.0153 -0.0597
29446W        W72540  24.304   0.357   6.450 -0.1045 -0.0969  0.3282
29447W        W72541  23.214  33.132   6.143  0.0101  0.1347 -0.1438
29448W        W72542  24.366  34.494   5.796  0.0598  0.0770 -0.2979
29449W        W72543  23.862  33.727   6.177  0.0692 -0.1850 -0.0980
29450W        W72544  24.118   1.263   7.632 -0.3503  0.1431  0.0361
29451W        W72545  23.461  33.906   6.386 -0.2610 -0.1763 -0.0248
29452W        W72546  22.014  32.634   6.197  0.1155  0.1151 -0.0663
29453W        W72547  25.141  34.461   4.731 -0.2619 -0.1220 -0.0124
29454W        W72548  25.350  32.542   6.756 -0.0682  0.1691  0.2926
29455W        W72549  25.103  33.933   6.107  0.2323 -0.1461  0.0727
29456W        W72550  23.931  33.774   5.537  0.0551  0.0570 -0.1423
29457W        W72551  22.192  33.628   5.573  0.0814 -0.3110 -0.3245
29458W        W72552  24.646  33.349   7.331 -0.0222 -0.1342  0.1766
29459W        W72553  22.784  33.520   4.443 -0.1312 -0.1309 -0.0436
29460W        W72554  24.055  32.635   6.246 -0.0164 -0.2372 -0.0666
29461W        W72555  24.268   0.430   5.898 -0.2592 -0.1462 -0.0005
29462W        W72556  22.657  33.674   5.375  0.2037  0.0838  0.0145
29463W        W72557  22.437  33.777   3.224  0.0784  0.3537 -0.3075
29464W        W72558  24.455   0.837   3.739  0.0778 -0.2736 -0.1755
29465W        W72559  23.820  33.144   4.901  0.1506  0.0544 -0.3367
29466W        W72560  24.829  33.845   6.954 -0.0501  0.0721  0.0550
29467W        W72561  24.378  32.032   5.668  0.1830  0.0861  0.0288
29468W        W72562  23.956  34.155   5.885  0.0608 -0.0685 -0.4033
29469W        W72563  23.934   0.075   6.729 -0.1508  0.0906  0.0354
29470W        W72564  25.035   0.686   6.969  0.2910 -0.0130 -0.2119
29471W        W72565  25.545   0.612   6.066 -0.0136  0.3010 -0.1428
29472W        W72566  23.481  33.961   5.342 -0.0051 -0.2373  0.0400
29473W        W72567  21.436  33.233   6.836 -0.4170  0.0333 -0.2984
29474W        W72568  23.850  31.513   4.376  0.1518  0.0602  0.1032
29475W        W72569  22.745  32.988   5.091 -0.1022  0.1102 -0.0564
29476W        W72570  25.014  33.261   3.968 -0.0170  0.0551 -0.2746
29477W        W72571  23.959   0.628   5.487  0.2344 -0.0116  0.1626
29478W        W72572  25.381  34.031   4.022 -0.2127  0.1158  0.0166
29479W        W72573  23.101  34.374   6.267  0.3417  0.0486  0.3036
29480W        W72574  24.004  32.780   4.248 -0.3993 -0.2452  0.1267
29481W        W72575  23.094  33.706   5.515 -0.1231  0.1140 -0.0759
29482W        W72576  26.838  33.445   7.194  0.2786  0.1167  0.3760
29483W        W72577  22.928  34.565   4.418 -0.0746  0.1157  0.2227
29484W        W72578  24.314  34.110   5.477 -0.0089  0.2405  0.1563
29485W        W72579  25.739  32.806   6.592 -0.1843 -0.0010  0.0338
29486W        W72580  23.252  34.592   5.823 -0.3406 -0.0397 -0.2154
29487W        W72581  21.506  33.299   3.221 -0.2641  0.0523  0.2185
29488W        W72582  26.837  33.561   4.598 -0.3784 -0.3659 -0.0826
29489W        W72583  23.961  33.255   6.045  0.1395  0.1232 -0.2653
29490W        W72584  25.926  33.497   5.493  0.0169 -0.0418 -0.0482
29491W        W72585  22.968  33.500   4.941 -0.1303  0.1804 -0.4608
29492W        W72586  25.112  34.450   5.804 -0.0231  0.0860  0.0889
29493W        W72587  22.627  33.648   6.798 -0.0314  0.0155  0.4159
29494W        W72588  23.457   0.231   5.434  0.0707 -0.1070  0.2270
29495W        W72589  26.195   1.192   6.607  0.0537 -0.1884 -0.0252
29496W        W72590  25.136  34.462   5.264 -0.0327  0.0737  0.3541
29497W        W72591  21.751  33.386   5.034  0.1345 -0.0184  0.0678
29498W        W72592  25.457  33.986   4.545  0.1948 -0.0937  0.0706
29499W        W72593  21.910   1.103   5.868 -0.0492 -0.2677 -0.1435
29500W        W72594  23.025  33.457   6.608 -0.1459  0.0782  0.2787
29501W        W72595  22.620  31.108   4.802 -0.1208 -0.2203 -0.3654
29502W        W72596  24.654   1.254   5.832  0.1693  0.0277 -0.0044
29503W        W72597  25.204   0.192   6.058 -0.1058 -0.4283 -0.1288
29504W        W72598  20.641  34.575   6.080  0.0318  0.0139 -0.3466
29505W        W72599  24.479  33.591   5.449 -0.2024 -0.0997 -0.0738
29506W        W72600  22.123  33.770   5.035 -0.0984  0.0777 -0.1861
29507W        W72601  24.722   0.316   7.089 -0.0559 -0.0291 -0.0734
29508W        W72602  25.830  33.423   6.020  0.1312  0.1610 -0.4448
29509W        W72603  24.871  32.059   7.278 -0.2605  0.0424 -0.1990
29510W        W72604  23.801  34.323   5.342 -0.1448 -0.2905 -0.1873
29511W        W72605  23.451  33.500   5.075 -0.1151 -0.2345  0.2090
29512W        W72606  24.683  34.027   5.804  0.2058  0.0517 -0.1319
29513W        W72607  25.084  33.674   4.594 -0.4787  0.1387  0.1660
29514W        W72608  24.567   0.784   7.258 -0.1644  0.0183  0.1232
29515W        W72609  22.405   0.178   4.385  0.0686  0.2601  0.1594
29516W        W72610  22.911  32.189   6.339  0.0482 -0.1722 -0.1435
29517W        W72611  22.663  32.546   6.095  0.0838  0.0155  0.2407
29518W        W72612  22.138   0.529   5.340 -0.1026 -0.1085  0.3349
29519W        W72613  22.294  33.208   5.033  0.2406 -0.1545 -0.0956
29520W        W72614  22.396  31.693   4.881 -0.0079 -0.2539 -0.1295
29521W        W72615  22.174  32.233   4.141  0.2112  0.1042 -0.0321
29522W        W72616  23.765  30.917   4.575  0.0275 -0.0477 -0.1416
29523W        W72617  23.942  33.094   6.666 -0.1641  0.0576 -0.0974
29524W        W72618  23.650  32.648   6.580  0.3978 -0.3613  0.0235
29525W        W72619  22.847  32.585   3.766 -0.1373  0.1630  0.1624
29526W        W72620  24.425  34.209   6.201 -0.1614 -0.0976 -0.1118
29527W        W72621  21.855  32.474   6.640  0.3005 -0.1673 -0.1958
29528W        W72622  24.661  33.717   6.317  0.0585  0.3194  0.3009
29529W        W72623  25.015   1.485   6.317  0.0308  0.0330 -0.2365
29530W        W72624  22.005  31.485   6.280  0.2445 -0.1860  0.0397
29531W        W72625  22.196  32.703   5.756  0.0322 -0.0666 -0.0277
29532W        W72626  24.737  33.181   5.423  0.0338 -0.3623 -0.0558
29533W        W72627  22.203  33.296   6.089  0.1792  0.1526 -0.1046
29534W        W72628  23.814  34.537   4.468 -0.1351  0.2878 -0.1476
29535W        W72629  23.051  33.813   6.107  0.0535  0.1549 -0.0601
29536W        W72630  24.351  34.025   4.082  0.2343 -0.0230 -0.0989
29537W        W72631  25.953   0.290   4.309 -0.0961 -0.1540  0.1646
29538W        W72632  22.321  32.210   5.508  0.1028  0.1091 -0.2259
29539W        W72633  23.997   0.354   3.702 -0.1655 -0.2892 -0.4098
29540W        W72634  23.530   0.856   5.535 -0.1463 -0.2924 -0.2095
29541W        W72635  25.167   1.102   7.224 -0.2346  0.1463  0.0899
29542W        W72636  22.122  33.818   6.158 -0.1122  0.0201  0.4000
29543W        W72637  24.628  33.803   4.588  0.2246  0.0755  0.1320
29544W        W72638  22.356  33.260   7.142  0.1314  0.0243 -0.1593
29545W        W72639  24.401  33.805   7.204  0.2959 -0.1382 -0.0883
29546W        W72640  24.789  34.154   7.410 -0.0695  0.0153 -0.2942
29547W        W72641  22.210  34.361   7.870 -0.2510 -0.1668 -0.0689
29548W        W72642  23.458   0.099   7.545  0.4468  0.2681 -0.1792
29549W        W72643  22.803   0.530   8.981  0.0015 -0.0639 -0.0573
29550W        W72644  22.960  33.837   7.724  0.1118  0.0546 -0.1150
29551W        W72645  21.834  32.819   9.721 -0.1061 -0.0841  0.2884
29552W        W72646  26.083   0.019   9.162 -0.1954  0.1937  0.1276
29553W        W72647  22.294   0.343   7.795  0.1454  0.2921  0.2532
29554W        W72648  21.617  34.083   8.653  0.1344 -0.3498 -0.2031
29555W        W72649  22.475  33.945   7.718 -0.3561 -0.1739 -0.2509
29556W        W72650  22.596  34.678   8.762 -0.1713 -0.1847  0.0009
29557W        W72651  21.610  33.744   7.581 -0.0230 -0.3210  0.2662
29558W        W72652  21.971  34.051   7.523 -0.1308  0.2317  0.0059
29559W        W72653  24.719   0.214   9.026 -0.0107 -0.0367  0.0481
29560W        W72654  23.696   0.654   8.392 -0.0547  0.0902 -0.0127
29561W        W72655  25.782  33.456   8.820 -0.2788 -0.0945  0.1178
29562W        W72656  25.271   0.552   9.027 -0.3094 -0.0965 -0.0316
29563W        W72657  23.882   0.226   8.501 -0.0868  0.2737 -0.0303
29564W        W72658  25.231  34.154   7.247 -0.1326 -0.1299  0.1997
29565W        W72659  23.267  33.055   6.665 -0.3636 -0.1384 -0.0420
29566W        W72660  25.793  33.964   8.973  0.0788  0.1281  0.3632
29567W        W72661  23.846  32.920   8.177 -0.0729  0.1186  0.1080
29568W        W72662  23.201  33.405   8.622 -0.0393  0.2281 -0.2421
29569W        W72663  22.603   0.018   7.942 -0.1791  0.1328 -0.2116
29570W        W72664  25.728  34.417   9.453 -0.1469 -0.1941 -0.1030
29571W        W72665  21.248  33.401   7.397 -0.1194  0.0054 -0.2316
29572W        W72666  23.639   0.486   9.633 -0.0775  0.1132  0.2193
29573W        W72667  23.259  32.623   6.856  0.0695  0.1181  0.0650
29574W        W72668  26.899  33.197   9.240 -0.0753  0.1511  0.0567
29575W        W72669  24.982  32.392   8.416  0.0970  0.0957 -0.4260
29576W        W72670  25.489  32.417   8.683 -0.1860 -0.0053 -0.0475
29577W        W72671  25.595   0.230   7.930  0.1588  0.0735 -0.3748
29578W        W72672  21.813  34.385   8.335 -0.1307 -0.0154 -0.1987
29579W        W72673  25.738  33.608   7.879  0.2823  0.0112  0.2154
29580W        W72674  25.298  32.373   8.025  0.0242  0.2934  0.0432
29581W        W72675  25.363  34.480   8.165 -0.1459 -0.0722 -0.1267
29582W        W72676  23.322   0.096   9.144  0.2946  0.2032  0.1511
29583W        W72677  23.215  34.192   8.096  0.4015 -0.1139 -0.2628
29584W        W72678  22.675  34.229   8.594 -0.4148  0.4827  0.1998
29585W        W72679  21.898  32.295   7.435  0.0179 -0.1245  0.2772
29586W        W72680  25.981  33.152   8.368  0.2382 -0.0208 -0.0706
29587W        W72681  23.843   0.800   9.191 -0.6181  0.1885  0.2974
29588W        W72682  22.235   1.257   9.501  0.1139 -0.2789 -0.2647
29589W        W72683  23.486  33.225   7.991  0.0334 -0.0254  0.1201
29590W        W72684  24.126  32.629   6.849  0.1706  0.2193 -0.1962
29591W        W72685  23.246  34.434   9.617 -0.2847 -0.0037  0.0419
29592W        W72686  22.923  32.151   7.369  0.3208  0.0181 -0.0295
29593W        W72687  21.260  34.054   8.105  0.1960 -0.0894 -0.0532
29594W        W72688  26.117   0.535   9.256 -0.2128 -0.1003  0.0250
29595W        W72689  22.717  34.207   8.061 -0.1407 -0.2475  0.5217
29596W        W72690  24.427  32.465   9.300 -0.0323 -0.2938  0.3948
29597W        W72691  24.144  33.739   7.814  0.2448 -0.3294  0.0474
29598W        W72692  23.620  34.116   7.365  0.3137  0.4183  0.1480
29599W        W72693  23.874  33.490   8.159  0.1199 -0.0028 -0.1210
29600W        W72694  23.977  34.173   7.009  0.0755  0.2123 -0.2030
29601W        W72695  27.115   0.610  10.044 -0.1366 -0.0095 -0.0690
29602W        W72696  22.642  33.563   7.399  0.3646 -0.1228 -0.0225
29603W        W72697  23.836  33.353   7.604  0.0894 -0.2026  0.1876
29604W        W72698  25.259  32.893   8.466 -0.0350  0.2909 -0.0293
29605W        W72699  26.634  33.556   9.083 -0.1735  0.3468 -0.1845
29606W        W72700  23.949   0.026   7.642 -0.1411 -0.0076 -0.0962
29607W        W72701  25.750   1.492   9.884  0.0297 -0.0586 -0.2228
29608W        W72702  23.282  33.742   7.402  0.1324 -0.3802 -0.1879
29609W        W72703  22.537  33.681   9.264  0.3413 -0.0138 -0.1087
29610W        W72704  23.191  34.356   7.090 -0.0547  0.2779  0.1076
29611W        W72705  21.437  33.003   9.182  0.0250  0.0903 -0.3931
29612W        W72706  24.955  33.314   8.418 -0.1694 -0.0540 -0.2485
29613W        W72707  22.324  32.726   6.934  0.0053  0.0983 -0.1683
29614W        W72708  23.089   1.067   7.988 -0.0584  0.1839  0.0977
29615W        W72709  26.019  31.519   7.337  0.1832 -0.0594 -0.2609
29616W        W72710  23.733  34.117   8.672 -0.2086 -0.2488 -0.2883
29617W        W72711  24.423  33.932   9.544  0.0065  0.1731 -0.1129
29618W        W72712  23.728  33.342   9.113  0.1675 -0.3227 -0.0094
29619W        W72713  21.734  34.572   7.036 -0.1328  0.0624 -0.1201
29620W        W72714  24.944  33.649   9.636  0.1932  0.0554  0.0305
29621W        W72715  24.072   0.660   9.680  0.3519 -0.4148  0.2199
29622W        W72716  22.852   0.341   7.699 -0.1912  0.0831  0.0065
29623W        W72717  28.053  33.566   9.126  0.0146  0.0670  0.0766
29624W        W72718  25.666  32.970   9.854  0.2472  0.4578  0.2135
29625W        W72719  24.379  33.960   8.605 -0.1146 -0.1156  0.0141
29626W        W72720  24.641  33.733   9.140  0.2745  0.3668  0.0379
29627W        W72721  23.519   0.962   9.589  0.1752 -0.1543 -0.0831
29628W        W72722  24.893  33.929   8.727  0.0731 -0.2714 -0.0605
29629W        W72723  25.914  33.994   9.505  0.2125  0.0376  0.1455
29630W        W72724  24.233  33.163   7.929  0.1303 -0.2999 -0.2436
29631W        W72725  24.898  32.730   9.369 -0.0413 -0.1495 -0.2973
29632W        W72726  23.622   0.266   7.995 -0.3158  0.0603  0.0231
29633W        W72727  22.733  34.168   9.129 -0.1545 -0.2799 -0.0299
29634W        W72728  24.522  34.652   7.861 -0.0945  0.0573  0.1577
29635W        W72729  22.760  32.955   7.191  0.0849 -0.0048 -0.1320
29636W        W72730  17.642   3.288  12.157  0.1136  0.2244  0.0500
29637W        W72731  25.009  34.657   7.853 -0.0359  0.0788 -0.1258
29638W        W72732  21.698  33.792   9.659 -0.1554 -0.0459 -0.0709
29639W        W72733  26.225  33.263   8.796  0.1263  0.1143  0.2134
29640W        W72734  24.126  33.677   9.201 -0.0726  0.1146  0.3952
29641W        W72735  25.194  34.062   7.750  0.1080 -0.1013 -0.0542
29642W        W72736  26.703  32.271   8.960  0.2687  0.2569 -0.2090
29643W        W72737  25.382  33.998   9.560 -0.0532 -0.0812 -0.3255
29644W        W72738  24.193   0.546   7.604  0.1644 -0.2730  0.4228
29645W        W72739  21.587  33.295   7.853  0.2435  0.3606  0.0971
29646W        W72740  22.663  33.177   6.769 -0.2638  0.0364  0.0728
29647W        W72741  23.509  34.536   8.399  0.0704 -0.2055 -0.0375
29648W        W72742  21.814  34.346   9.141 -0.0824 -0.0057  0.0752
29649W        W72743  23.105  33.315   7.122 -0.2707 -0.0594  0.0588
29650W        W72744  23.650  34.375   7.802 -0.1580 -0.0396 -0.1157
29651W        W72745  24.379  32.338   6.493  0.1108 -0.0851  0.0389
29652W        W72746  24.501  32.058   9.601 -0.2709  0.1658 -0.0398
29653W        W72747  23.942   0.276   9.277 -0.0398 -0.1584  0.0448
29654W        W72748  25.260  33.336   8.926  0.0848  0.2156  0.3790
29655W        W72749  24.376  34.176   8.043 -0.0383 -0.0004 -0.0416
29656W        W72750  22.617   0.374   8.391 -0.0623 -0.1383 -0.4507
29657W        W72751  21.994  32.367   8.841  0.0054  0.2305  0.2156
29658W        W72752  23.448  34.636   6.712  0.0926 -0.2605  0.2297
29659W        W72753  23.552  32.553   8.760  0.0902 -0.0230 -0.1772
29660W        W72754  26.057   0.212  10.094 -0.1114  0.1743 -0.1466
29661W        W72755  25.832  32.721   7.468  0.2331  0.0615  0.2043
29662W        W72756  24.466  33.383   9.590  0.0031 -0.2541  0.1636
29663W        W72757  24.315  33.380   6.945 -0.4674  0.4004 -0.2019
29664W        W72758  21.793  33.721   6.528 -0.0780  0.0694 -0.0011
29665W        W72759  24.281  34.164   7.549 -0.1965 -0.3144 -0.2289
29666W        W72760  24.886  34.081   9.366 -0.1185 -0.0026  0.1269
29667W        W72761  24.153   0.091   9.672 -0.0036 -0.1910 -0.0817
29668W        W72762  22.085  33.210   7.861  0.0278 -0.0087  0.0746
29669W        W72763  24.635  34.399   8.464  0.1548 -0.1006  0.0742
29670W        W72764  22.398   0.337   9.437 -0.2786  0.1620  0.1421
29671W        W72765  23.484  33.743   8.374 -0.0182  0.1425  0.1209
29672W        W72766  25.908   0.037   8.485  0.2394  0.3148 -0.3689
29673W        W72767  22.258  34.580   9.198 -0.0357  0.1864 -0.1771
29674W        W72768  24.102  34.630   6.240  0.0877 -0.0561 -0.0382
29675W        W72769  23.435  33.744   6.904  0.0451  0.1965 -0.0660
29676W        W72770  22.605  33.272   8.648 -0.1677 -0.2352 -0.2968
29677W        W72771  23.867  34.087   9.207  0.0810 -0.1985  0.0166
29678W        W72772  23.176  34.256   7.584  0.2874  0.3211 -0.2652
29679W        W72773  25.177   0.011   9.011 -0.0262 -0.0265 -0.0782
29680W        W72774  22.250  33.487   8.293  0.0464 -0.3666  0.0757
29681W        W72775  25.641   0.226   9.199  0.0470 -0.4666 -0.1321
29682W        W72776  26.476   0.681   7.818  0.0834 -0.1406 -0.1380
29683W        W72777  23.009  32.491   8.090 -0.2973  0.0440 -0.0494
29684W        W72778  23.066  33.308   7.678  0.0808  0.3183 -0.0399
29685W        W72779  23.157   0.350   8.691  0.1441  0.0944 -0.2432
29686W        W72780  26.124  32.705   7.941 -0.1800 -0.3318  0.0983
29687W        W72781  25.201  33.566   7.839 -0.3167  0.1896 -0.1697
29688W        W72782  23.910  32.275   9.044 -0.0739 -0.1996 -0.0456
29689W        W72783  24.951  32.761   7.941  0.1233 -0.0454 -0.1644
29690W        W72784  25.514  33.370   8.369  0.0646 -0.0823  0.0966
29691W        W72785  20.226   0.590  11.794  0.1824 -0.0346  0.2905
29692W        W72786  22.201  33.582   7.542  0.3320 -0.0037 -0.0421
29693W        W72787  22.463   0.040   7.446  0.0477 -0.0365 -0.2295
29694W        W72788  22.596  33.495   7.959  0.2024 -0.3350  0.5073
29695W        W72789  22.727  33.793   8.363  0.2042  0.1242  0.1248
29696W        W72790  20.555  33.561   9.170  0.2004 -0.2831  0.0179
29697W        W72791  24.791  34.345   8.950 -0.1874  0.0098 -0.1559
29698W        W72792  21.876  32.649   7.109 -0.0406  0.0454  0.0478
29699W        W72793  20.865   2.745   9.649  0.0288  0.2705  0.2628
29700W        W72794  23.623  32.957   9.763 -0.1343  0.0902 -0.0821
29701W        W72795  25.695  32.978   8.872 -0.0636  0.2271  0.2045
29702W        W72796  22.914   0.023   6.759  0.0621 -0.2269 -0.2689
29703W        W72797  22.601  33.125   7.644  0.0069  0.4302  0.0329
29704W        W72798  24.648  33.835   7.834 -0.2508 -0.0640  0.0674
29705W        W72799  21.696   0.157   8.392 -0.0647 -0.4294  0.0969
29706W        W72800  23.541  33.807   7.818  0.1952  0.0674 -0.2793
29707W        W72801  23.325  34.182   9.101 -0.1427  0.1320 -0.1242
29708W        W72802  24.961  33.716   7.396  0.3928  0.0249 -0.2267
29709W        W72803  21.899  33.810   9.036 -0.1227 -0.0289  0.0434
29710W        W72804  22.975  33.891   7.067  0.0254 -0.2291 -0.2550
29711W        W72805  22.903  34.619   8.375 -0.1833 -0.1762  0.2172
29712W        W72806  24.878  34.215   8.085 -0.0891 -0.0995 -0.2972
29713W        W72807  25.414  33.813   8.670  0.0001  0.0441 -0.1898
29714W        W72808  24.310  32.723   8.090  0.0897 -0.1061  0.1669
29715W        W72809  27.727   3.109   3.004 -0.0948 -0.0228  0.1318
29716W        W72810  26.191   3.174   0.958 -0.1983  0.0708  0.4025
29717W        W72811  27.381   0.763   0.501  0.0847 -0.1391 -0.1700
29718W        W72812  27.567   1.077   1.733 -0.1561  0.0735  0.0184
29719W        W72813  26.032  34.378   1.436  0.3299  0.0074 -0.1822
29720W        W72814  28.220   4.328  31.146 -0.2840 -0.0488 -0.0273
29721W        W72815  26.763  34.422   2.566  0.1140  0.2295 -0.3527
29722W        W72816  27.394   3.644   1.133  0.0750  0.3286  0.0429
29723W        W72817  28.795   4.212   1.361  0.0918 -0.0358 -0.1765
29724W        W72818  28.365   1.592   1.507  0.2460 -0.2841  0.2909
29725W        W72819  27.008   0.291   1.371 -0.0947  0.2239  0.0826
29726W        W72820  27.978   2.401   2.117 -0.1513 -0.2368  0.0291
29727W        W72821  26.732   0.137   0.126  0.0555 -0.1056  0.2563
29728W        W72822  25.860   0.485   2.009 -0.4538  0.0026  0.2557
29729W        W72823  27.097   2.521   2.244  0.3941  0.2344 -0.0832
29730W        W72824  25.056   2.949   0.641 -0.0070  0.0592  0.2648
29731W        W72825  26.720   2.076   1.529 -0.2494  0.1809 -0.0911
29732W        W72826  25.504   1.259   0.266  0.0349  0.1512  0.2042
29733W        W72827  27.446   3.252   0.770  0.1008 -0.1024 -0.2430
29734W        W72828  27.787   1.785   1.400 -0.0086 -0.0817 -0.1990
29735W        W72829  26.727  34.081   1.792 -0.2017 -0.1626 -0.2460
29736W        W72830  27.649   4.081  31.906 -0.1090  0.3853 -0.2968
29737W        W72831  24.122   0.629  31.275 -0.0578  0.2121  0.0235
29738W        W72832  25.815   2.468   3.269  0.0652 -0.1861  0.0974
29739W        W72833  26.268   1.841   2.880  0.1707  0.0776 -0.0558
29740W        W72834  27.838   2.666   2.782 -0.0561 -0.0866  0.0585
29741W        W72835  27.664   2.277   2.552  0.1388 -0.1015 -0.0862
29742W        W72836  24.982   3.899   1.195  0.1342  0.0367 -0.1528
29743W        W72837  25.966   4.207   2.802 -0.0164  0.1396  0.0291
29744W        W72838  28.231   1.228   3.485  0.0835  0.0696  0.2607
29745W        W72839  25.948   2.133   0.047 -0.2285  0.0783 -0.1242
29746W        W72840  26.677   3.741   0.042  0.0169 -0.2253  0.2375
29747W        W72841  26.678   3.128   0.635  0.0010  0.0321 -0.3261
29748W        W72842  28.159   3.028   0.933 -0.0648  0.0732  0.4142
29749W        W72843  28.675   2.869   2.901  0.1636  0.1741 -0.3476
29750W        W72844  27.424   3.073   4.430 -0.0989 -0.1006 -0.1413
29751W        W72845  26.244   3.144   1.515  0.1227  0.1206  0.0555
29752W        W72846  26.999   3.312   4.363  0.1562  0.1749  0.2568
29753W        W72847  26.101   3.454   3.097 -0.0322  0.2757 -0.1373
29754W        W72848  27.578   1.797   1.886  0.2174 -0.0210 -0.1686
29755W        W72849  26.620   3.425   1.794  0.1583  0.1789  0.0351
29756W        W72850  26.489   2.095  30.940  0.3856 -0.1211 -0.1973
29757W        W72851  27.835   3.356   1.078  0.0299 -0.0495 -0.1265
29758W        W72852  27.111   2.515   3.796  0.5460 -0.0758 -0.0467
29759W        W72853  24.402   1.888   1.719 -0.3449 -0.0719  0.2007
29760W        W72854  28.684   0.279   3.424  0.0696  0.1645 -0.3444
29761W        W72855  26.930   1.783  31.248 -0.0909 -0.2039 -0.0033
29762W        W72856  28.169  34.446  31.885  0.2171 -0.0590  0.3775
29763W        W72857  27.174  34.230  31.438  0.1426  0.0258 -0.0138
29764W        W72858  28.339   0.453   2.547 -0.0673  0.0838 -0.0974
29765W        W72859  27.314  34.131   1.425  0.4892  0.2009  0.1582
29766W        W72860  25.877   3.505   1.173 -0.2169 -0.1921 -0.0368
29767W        W72861  27.284   0.069   3.938  0.1133 -0.2300  0.0826
29768W        W72862  29.431   2.445   3.956  0.0808 -0.1987 -0.3632
29769W        W72863  26.597   0.385   0.901  0.1165 -0.0930 -0.0919
29770W        W72864  25.589   0.940   2.724  0.1647  0.3025 -0.1391
29771W        W72865  25.284   4.327   3.511 -0.0207  0.3460  0.1117
29772W        W72866  26.160   1.640   2.380 -0.0819 -0.0646  0.1908
29773W        W72867  28.213   2.609  31.374  0.0045  0.1982 -0.2213
29774W        W72868  29.329   2.878   0.158 -0.1286 -0.1720 -0.0527
29775W        W72869  29.613   3.359  31.816 -0.1069 -0.0637 -0.0749
29776W        W72870  25.057   2.141  31.487 -0.1276  0.2098  0.1177
29777W        W72871  25.913   3.005   3.399  0.1846 -0.2313  0.1296
29778W        W72872  26.692   2.525   3.221  0.1177 -0.2771 -0.2048
29779W        W72873  26.122   0.032  31.312 -0.0860 -0.0521 -0.1834
29780W        W72874  29.257   1.651   3.495  0.0884 -0.3538  0.1433
29781W        W72875  25.177   3.588   2.880 -0.1263 -0.2399  0.0624
29782W        W72876  29.485  34.446   0.283  0.1446  0.3083  0.0266
29783W        W72877  26.855   1.627   1.801  0.1479 -0.0409 -0.0761
29784W        W72878  27.571   2.763   2.358 -0.0308  0.1555 -0.4249
29785W        W72879  28.106   0.573  31.294  0.1820 -0.0024 -0.1198
29786W        W72880  26.749   2.931   1.899 -0.1937  0.0842  0.4184
29787W        W72881  27.844  34.581   1.911  0.1473 -0.1747 -0.1329
29788W        W72882  26.292   2.568  31.013 -0.4926 -0.3423  0.0743
29789W        W72883  28.831   1.835   0.280  0.0169  0.2564 -0.0274
29790W        W72884  29.473   2.526   2.557 -0.1113  0.0176 -0.1464
29791W        W72885  27.949   2.203   0.120  0.0770 -0.2625 -0.1200
29792W        W72886  25.455   4.450   2.413  0.1291  0.2570  0.2399
29793W        W72887  27.726   3.341   1.976  0.2718  0.0652  0.0805
29794W        W72888  27.562   2.207   3.061 -0.0446 -0.1731 -0.0691
29795W        W72889  25.867   3.716   0.683 -0.0495  0.0488 -0.0382
29796W        W72890  23.468   3.520   1.621 -0.1016 -0.1851  0.1720
29797W        W72891  26.065   2.741   0.221 -0.1268  0.3048 -0.2230
29798W        W72892  25.905   0.983   1.831  0.1054 -0.1549 -0.1625
29799W        W72893  26.527   3.358   2.900  0.0943  0.1139 -0.1105
29800W        W72894  28.618   0.271   2.079  0.0540 -0.1233 -0.0662
29801W        W72895  25.852   1.419   2.697  0.1546 -0.1206  0.1052
29802W        W72896  28.517   0.894   2.628 -0.1875 -0.2225 -0.1673
29803W        W72897  24.363   2.960  31.202  0.1834  0.1833  0.0024
29804W        W72898  28.395   5.074   1.573 -0.1702  0.1695 -0.1454
29805W        W72899  28.182   0.329   0.943 -0.0976  0.2055  0.1591
29806W        W72900  28.433   3.092  31.317 -0.0112 -0.2409  0.0674
29807W        W72901  27.099   1.200   2.002 -0.0377  0.0222 -0.1873
29808W        W72902  25.673   1.996   1.049 -0.0053 -0.1579 -0.0595
29809W        W72903  26.372   2.173   4.153  0.0128 -0.2781 -0.3058
29810W        W72904  26.055   0.217   1.158  0.0508  0.0434  0.2710
29811W        W72905  28.680   2.383   3.099 -0.2733  0.1385  0.3029
29812W        W72906  26.132  34.513   0.859  0.0388  0.0645  0.0228
29813W        W72907  28.327   1.330   1.065 -0.0419 -0.0253  0.0434
29814W        W72908  27.097   1.782   0.648  0.2390  0.2529 -0.1496
29815W        W72909  23.782   1.941  31.527  0.0289 -0.0024 -0.3651
29816W        W72910  28.821   0.548   2.483  0.1949 -0.2377 -0.1280
29817W        W72911  27.691   5.472   0.927 -0.3009  0.0447 -0.0289
29818W        W72912  28.268   2.080   2.281 -0.2700 -0.1490 -0.0909
29819W        W72913  28.908   5.258  31.535  0.0323  0.1089 -0.0303
29820W        W72914  26.403   2.644   1.563 -0.2834 -0.0578 -0.2211
29821W        W72915  25.212   0.887   0.239  0.0085  0.1335  0.1046
29822W        W72916  26.085   4.970   0.691  0.0942 -0.4794 -0.1328
29823W        W72917  25.616   3.777   1.563 -0.0039  0.1827  0.0473
29824W        W72918  25.727   0.900   0.549  0.0453  0.2424  0.1355
29825W        W72919  28.028   4.410   0.902  0.0918  0.1142  0.4767
29826W        W72920  27.301   2.143   1.561 -0.0729 -0.1904  0.1626
29827W        W72921  25.418   3.317   2.506 -0.1155  0.1687  0.1550
29828W        W72922  27.454  34.660   1.618  0.0208  0.0475  0.1102
29829W        W72923  27.804   1.772   2.321 -0.1686  0.0805  0.2249
29830W        W72924  28.856   1.394   1.492  0.3427  0.2482 -0.2193
29831W        W72925  25.464   0.759  31.245 -0.1061  0.2915  0.2353
29832W        W72926  27.096   4.441   0.923 -0.2246 -0.0459  0.2151
29833W        W72927  25.956   3.199   0.505  0.0248 -0.1685  0.1644
29834W        W72928  24.605   1.255   1.455  0.3130 -0.1267  0.1594
29835W        W72929  26.872   2.353   1.170 -0.1979 -0.2127  0.4645
29836W        W72930  28.203   1.292   2.430  0.2001  0.1110 -0.0150
29837W        W72931  27.248   1.633   2.300  0.2494 -0.0347  0.0042
29838W        W72932  25.088   0.909   2.724 -0.0601  0.0279 -0.1045
29839W        W72933  25.773   1.540  31.291 -0.0899 -0.1696 -0.1381
29840W        W72934  27.198   2.615   3.225  0.1062  0.1005 -0.1086
29841W        W72935  28.596  34.518   1.843  0.4507  0.1433  0.0493
29842W        W72936  29.668   0.149  31.916  0.1904 -0.2642 -0.0157
29843W        W72937  27.846   1.078   4.131 -0.0520 -0.1246 -0.0887
29844W        W72938  28.555   3.470  31.902 -0.0112 -0.1257 -0.2652
29845W        W72939  27.514   0.581   0.060  0.3193  0.4742 -0.0356
29846W        W72940  26.469   0.026   1.264 -0.2153  0.0131 -0.0360
29847W        W72941  27.082   3.218   3.561 -0.1191  0.2906 -0.0739
29848W        W72942  27.734   2.203   1.088  0.1607 -0.0748  0.2114
29849W        W72943  28.212   3.002   2.889  0.4442 -0.0788 -0.1776
29850W        W72944  27.093   1.554   0.226 -0.2047  0.0418 -0.2839
29851W        W72945  29.823   4.036  30.810 -0.0114  0.1122  0.2321
29852W        W72946  24.792   2.410   0.458  0.0654 -0.0102  0.0575
29853W        W72947  29.339   2.898   3.623  0.2152 -0.2566 -0.0317
29854W        W72948  28.102   1.902   0.784 -0.0619 -0.2490  0.5318
29855W        W72949  25.355   1.333   2.457  0.0383 -0.0875 -0.3930
29856W        W72950  25.546   1.819  30.896  0.0060 -0.0707 -0.1236
29857W        W72951  25.812   1.959   0.499 -0.1114 -0.0500  0.0880
29858W        W72952  25.673   2.539   0.410 -0.0359  0.3902 -0.1402
29859W        W72953  27.344   0.416   2.478 -0.1492 -0.0789  0.0259
29860W        W72954  25.998   0.634   1.487 -0.0853 -0.0114 -0.0484
29861W        W72955  27.667   0.586   1.664  0.3919  0.2041 -0.2953
29862W        W72956  28.959   0.924   3.609 -0.2189  0.2752 -0.0671
29863W        W72957  27.963   1.403   0.737  0.1597  0.2074  0.3201
29864W        W72958  26.500   2.270   0.695 -0.0280 -0.0063  0.1094
29865W        W72959  26.899   2.247   0.216 -0.2793 -0.2756 -0.2234
29866W        W72960  27.327  34.580   2.509 -0.0839  0.1780 -0.3309
29867W        W72961  25.415   2.778   2.552  0.4428 -0.1208  0.3082
29868W        W72962  25.188   4.123   3.004  0.1526  0.0421 -0.2006
29869W        W72963  28.987   3.172   3.110 -0.0342  0.2066 -0.2164
29870W        W72964  28.770   1.951   1.505  0.1488  0.0637  0.3746
29871W        W72965  27.408  33.986   3.533  0.0273  0.0152  0.1538
29872W        W72966  26.858   1.088   0.470  0.3721  0.0519  0.1730
29873W        W72967  27.900   2.983  31.435  0.2971 -0.0011  0.2091
29874W        W72968  27.571   1.555  31.878 -0.1583  0.1657 -0.1025
29875W        W72969  26.377  34.427   1.911  0.1140  0.1286 -0.1044
29876W        W72970  27.990   3.676   2.337  0.0677 -0.0604 -0.1655
29877W        W72971  26.328   1.955   0.332 -0.2939 -0.1810 -0.2989
29878W        W72972  27.351   1.550   4.536  0.0390  0.0457  0.0790
29879W        W72973  26.424   4.216   1.315 -0.0200  0.0392 -0.0721
29880W        W72974  27.774  34.580   4.153 -0.2243 -0.0609 -0.4942
29881W        W72975  24.721   3.089   1.974  0.1878  0.3403  0.3297
29882W        W72976  25.383   1.176   1.944 -0.4274  0.0384 -0.1016
29883W        W72977  26.436   0.886   0.175 -0.0484  0.3151  0.0158
29884W        W72978  28.549   1.006   1.366  0.2960  0.0820 -0.2327
29885W        W72979  28.803   1.436   0.973 -0.0584 -0.2599  0.0611
29886W        W72980  26.340   0.957   3.190 -0.1313 -0.0655 -0.0157
29887W        W72981  27.150   2.058   2.482  0.1620 -0.1553  0.1638
29888W        W72982  26.199   3.865  31.753  0.0902 -0.1151 -0.1379
29889W        W72983  27.443   2.152   3.539 -0.1815  0.2942 -0.0833
29890W        W72984  27.837  34.460  30.691 -0.2057  0.2194 -0.1232
29891W        W72985  28.413   1.970   3.244 -0.0045 -0.2232 -0.1104
29892W        W72986  27.958   2.172   3.547  0.0345 -0.0600 -0.0115
29893W        W72987  25.155   1.304  31.912 -0.1838 -0.0220 -0.1938
29894W        W72988  28.966   0.882   2.892 -0.1847  0.0767  0.0209
29895W        W72989  26.369   2.318   1.164  0.1491  0.2761 -0.0629
29896W        W72990  24.657   3.250   1.451 -0.0607 -0.1671 -0.1239
29897W        W72991  27.515   3.517   1.584  0.2257 -0.0357  0.2188
29898W        W72992  25.162   3.436   1.804  0.0937  0.0623 -0.0389
29899W        W72993  26.690   3.193   0.131  0.2028 -0.0590  0.2449
29900W        W72994  27.104   1.897   4.701 -0.2180  0.0998 -0.0279
29901W        W72995  28.091   1.025   2.877 -0.1800 -0.1655  0.1237
29902W        W72996  26.207   0.161   1.660  0.1623  0.2351  0.2283
29903W        W72997  26.427   1.036   2.083  0.3899  0.1191  0.1972
29904W        W72998  27.704   2.841   0.973 -0.2679 -0.0434 -0.1549
29905W        W72999  28.445   2.604   2.085 -0.1442  0.0781 -0.2448
29906W        W73000  26.581   0.444   3.716 -0.0320 -0.0808  0.4036
29907W        W73001  26.457   3.782   3.227 -0.0929 -0.4031  0.2486
29908W        W73002  27.886  34.289   2.375 -0.2440  0.0084 -0.1103
29909W        W73003  29.205   4.820  31.792  0.0969  0.2316  0.0437
29910W        W73004  28.757  33.837   3.481 -0.2550  0.1647  0.2494
29911W        W73005  25.423   2.442   1.405  0.2221  0.0708 -0.0938
29912W        W73006  26.918   2.187   3.430  0.0050  0.1149  0.0282
29913W        W73007  27.145   1.970   1.067 -0.0894 -0.0538  0.1517
29914W        W73008  27.477   1.741   2.809 -0.0557  0.1621  0.0271
29915W        W73009  26.217   3.709   1.552  0.2100  0.1078  0.1121
29916W        W73010  27.471   1.978   0.178  0.1999  0.1410 -0.0401
29917W        W73011  25.167   2.983   1.587  0.1378  0.4505  0.0896
29918W        W73012  28.582   0.125  31.267 -0.1332 -0.1368 -0.0888
29919W        W73013  28.143   2.923  30.935  0.1770 -0.3864  0.0064
29920W        W73014  27.047   1.321   0.853  0.1233 -0.0905 -0.0147
29921W        W73015  29.444  33.874   2.663  0.2864 -0.2130 -0.2156
29922W        W73016  27.768   2.446   0.543 -0.2055 -0.0002 -0.0431
29923W        W73017  27.440  34.616   3.483 -0.0523 -0.3473  0.1903
29924W        W73018  26.034   0.137   2.628  0.1802 -0.1878  0.1216
29925W        W73019  28.247   2.560   0.340 -0.2502 -0.1508  0.2051
29926W        W73020  25.222   2.394   2.234 -0.2901  0.1303  0.0640
29927W        W73021  27.448   3.727   3.537  0.1141 -0.0691  0.3626
29928W        W73022  26.721   3.935   1.705  0.2183 -0.0950 -0.1928
29929W        W73023  26.718   1.172   1.703 -0.0879 -0.1160  0.1916
29930W        W73024  25.291   0.088   1.072  0.1172 -0.2447 -0.1780
29931W        W73025  26.241   2.656   2.482  0.3216 -0.2873  0.4308
29932W        W73026  28.538   3.907   0.762 -0.3898  0.2060  0.1720
29933W        W73027  28.205   2.497   0.841  0.0273 -0.2405 -0.0167
29934W        W73028  27.972   0.878   1.949 -0.2966 -0.0526  0.1512
29935W        W73029  26.267   2.366   2.948 -0.0842  0.1706 -0.0313
29936W        W73030  29.231   0.586   0.049 -0.1637  0.0248  0.4597
29937W        W73031  27.032   2.126   1.967 -0.2819 -0.0593 -0.0898
29938W        W73032  26.026   3.554   2.025  0.3873 -0.0855  0.1577
29939W        W73033  25.975  34.441   3.474 -0.0419 -0.0312  0.2018
29940W        W73034  28.117   4.268   0.098  0.3702 -0.3369 -0.0106
29941W        W73035  27.550   2.305   1.991 -0.0161  0.0579 -0.3914
29942W        W73036  26.069   1.027   2.419  0.2210  0.1003  0.0506
29943W        W73037  27.312   1.658   1.492  0.1668  0.2349 -0.2250
29944W        W73038  26.794   2.106   2.934  0.2017 -0.2889 -0.3670
29945W        W73039  25.388  34.453   3.650 -0.1888  0.0091 -0.1643
29946W        W73040  27.333   4.974   2.652  0.0008 -0.0114  0.1071
29947W        W73041  27.931   1.603  30.814 -0.1083  0.0955  0.3990
29948W        W73042  27.655   1.251   2.219  0.0732  0.1497 -0.1796
29949W        W73043  28.956   1.277   0.134  0.0793 -0.0276 -0.1953
29950W        W73044  28.675   2.962   0.953  0.0746  0.3236  0.3133
29951W        W73045  25.359   1.154   0.774 -0.1985 -0.1647  0.0383
29952W        W73046  26.989   0.930   2.400  0.1052  0.1993 -0.1153
29953W        W73047  25.128  34.206  31.389 -0.0770  0.2125  0.0352
29954W        W73048  28.781  34.194   2.167 -0.0638  0.3184 -0.2260
29955W        W73049  26.189   4.130   0.777 -0.2465 -0.2493 -0.2825
29956W        W73050  27.981   1.835  31.728 -0.1669 -0.0688  0.2999
29957W        W73051  27.519   1.094   0.801 -0.0127 -0.5471  0.1475
29958W        W73052  25.302   1.713   2.065  0.2021  0.4961  0.5180
29959W        W73053  25.692   3.075   2.130 -0.0503  0.2996 -0.1467
29960W        W73054  26.620   1.893   1.042  0.2016 -0.0831 -0.2107
29961W        W73055  26.160   1.643  31.905  0.0479  0.0321  0.2688
29962W        W73056  28.171   2.348   3.047  0.0149 -0.0194  0.2429
29963W        W73057  27.579   0.834   3.010  0.1991 -0.0376  0.0837
29964W        W73058  26.224   1.460   1.880  0.2038 -0.1269 -0.0498
29965W        W73059  28.490   0.725   3.557 -0.0399 -0.0338 -0.0568
29966W        W73060  25.798   2.603  31.267  0.1890 -0.0301  0.4283
29967W        W73061  27.209  33.919   1.883 -0.2837  0.1623  0.0511
29968W        W73062  26.301   3.696   1.004 -0.1542 -0.1983 -0.1683
29969W        W73063  25.653   3.754   3.027  0.1893 -0.2014  0.2862
29970W        W73064  25.613   4.082   0.505  0.1118 -0.2408 -0.2235
29971W        W73065  27.708  34.328   2.829  0.0108 -0.1110 -0.1814
29972W        W73066  28.348   2.424  31.844 -0.2672  0.3267  0.1750
29973W        W73067  26.958   4.010   1.198 -0.1829 -0.1387  0.0205
29974W        W73068  28.212   1.944   1.822  0.0264 -0.0121 -0.0257
29975W        W73069  28.364   2.078   4.123 -0.1501 -0.1266 -0.1522
29976W        W73070  25.714   2.886   0.891  0.1623  0.2838 -0.0136
29977W        W73071  27.667   3.129   3.539  0.0931  0.1145 -0.1473
29978W        W73072  29.153   2.717   0.760 -0.3892  0.1176 -0.1805
29979W        W73073  25.661   2.686  31.873  0.3523 -0.0441  0.0257
29980W        W73074  26.964   0.948   3.002  0.0534  0.1618 -0.1774
29981W        W73075  26.255   2.639   3.489  0.0719 -0.2737  0.0010
29982W        W73076  25.664   3.306   1.670  0.0009 -0.0685 -0.0395
29983W        W73077  25.300   0.379   0.314  0.1132  0.1568  0.0766
29984W        W73078  26.212   2.301  31.599  0.0528 -0.2607 -0.1475
29985W        W73079  26.902   3.057   3.003 -0.2395 -0.4788 -0.2266
29986W        W73080  26.730   1.928   3.915  0.2983 -0.1323  0.0932
29987W        W73081  26.422   2.904  31.754  0.1205 -0.1502 -0.3976
29988W        W73082  29.188   2.458   0.320 -0.1179  0.2763  0.0653
29989W        W73083  26.871   2.619   0.497  0.1655 -0.4432  0.0890
29990W        W73084  27.839   2.983   0.460  0.0461 -0.1843 -0.2685
29991W        W73085  26.886   0.629   0.209  0.2381 -0.1462  0.0167
29992W        W73086  26.566   2.793   1.060  0.1663 -0.0140 -0.2035
29993W        W73087  24.650   2.124   0.800  0.0121 -0.2285  0.0094
29994W        W73088  27.404   2.575   0.183 -0.1321 -0.0626 -0.2013
29995W        W73089  27.271   3.035   0.341 -0.3123 -0.4877  0.2859
29996W        W73090  28.053   2.815   1.858  0.0910 -0.4182 -0.1715
29997W        W73091  29.264   0.934  30.649  0.0407  0.1700  0.2733
29998W        W73092  28.474   0.589   0.246 -0.1532 -0.2506 -0.1532
29999W        W73093  28.511   1.022  31.936  0.3028 -0.4101  0.1841
30000W        W73094  28.204   4.230   4.013 -0.0409 -0.0441 -0.2141
30001W        W73095  26.962   2.496   1.613 -0.1087  0.0061 -0.2195
30002W        W73096  28.008   0.683   0.018 -0.0779  0.1574  0.4185
30003W        W73097  26.750   1.268   3.335  0.2264 -0.4469 -0.1755
30004W        W73098  28.778  33.967   1.717 -0.2442  0.2266 -0.1371
30005W        W73099  26.037   3.465   3.628  0.0245  0.0386 -0.1658
30006W        W73100  28.913   3.187   1.403 -0.1795  0.1006  0.0515
30007W        W73101  26.683   0.586   2.267 -0.0782 -0.2807  0.0141
30008W        W73102  25.002   1.610   1.617 -0.1888 -0.0003  0.2358
30009W        W73103  29.623  34.349   2.679 -0.0978  0.0936  0.2023
30010W        W73104  26.196   1.305   0.621  0.0615 -0.0645  0.0819
30011W        W73105  26.898   1.550   1.283 -0.1634 -0.2972 -0.1216
30012W        W73106  27.101   3.267  31.949 -0.0587 -0.2598 -0.0947
30013W        W73107  27.314   2.754   1.906  0.3067  0.1827 -0.4452
30014W        W73108  25.420   4.184   1.384 -0.0992  0.1015  0.0049
30015W        W73109  25.467   1.557   1.041  0.1971 -0.1504 -0.1049
30016W        W73110  29.459   0.662   0.961  0.1447 -0.1571 -0.0484
30017W        W73111  27.149   3.016   2.491  0.1126 -0.0025 -0.2845
30018W        W73112  29.247  34.043   2.192  0.1220 -0.1000 -0.0489
30019W        W73113  26.069   2.761   1.179  0.1121  0.2388 -0.5315
30020W        W73114  28.040   0.755   1.367 -0.1538 -0.0151  0.3310
30021W        W73115  25.935   3.974   2.373 -0.1462 -0.0514 -0.0214
30022W        W73116  26.696   2.470   2.555 -0.0362  0.2995  0.1032
30023W        W73117  27.601   0.697   1.122  0.1697 -0.1223  0.0667
30024W        W73118  27.921   1.816   3.179 -0.2716 -0.0255  0.1072
30025W        W73119  27.058   1.892  31.791  0.0521  0.0566 -0.0572
30026W        W73120  27.831   4.040   3.409 -0.1718  0.3349  0.3526
30027W        W73121  24.112   1.124   1.389  0.1095 -0.1410  0.0882
30028W        W73122  26.714   0.935   1.256 -0.1867  0.4005  0.0067
30029W        W73123  25.814   1.380   2.145 -0.1267 -0.0733 -0.0814
30030W        W73124  26.906   2.941   1.362  0.6004  0.1111  0.1233
30031W        W73125  28.108   2.828   2.403  0.0296 -0.0422 -0.0253
30032W        W73126  25.594  34.090   1.408  0.0168  0.2282  0.1283
30033W        W73127  29.242   2.635  31.698  0.1206 -0.1638  0.0184
30034W        W73128  28.092   1.187   1.575 -0.1105 -0.2614 -0.2338
30035W        W73129  27.282   2.425   0.685  0.0001  0.2414  0.2403
30036W        W73130  28.242   2.074   1.331 -0.1697 -0.1315  0.1075
30037W        W73131  28.037   3.503   0.606  0.2621  0.1627  0.1582
30038W        W73132  26.359   0.578   1.882  0.5180  0.1579 -0.0357
30039W        W73133  27.703   3.850   1.945  0.0342  0.2388  0.1252
30040W        W73134  28.363   2.388   1.626  0.1475  0.1890  0.1349
30041W        W73135  27.692   0.851   2.560 -0.2201  0.2250  0.2104
30042W        W73136  26.375   1.630   1.416  0.1243 -0.0241 -0.2342
30043W        W73137  26.616   4.241  31.848 -0.0088 -0.0067  0.0530
30044W        W73138  29.764   2.293   1.487  0.2234  0.2833 -0.1473
30045W        W73139  27.455   0.268   2.950  0.1494 -0.0551  0.0165
30046W        W73140  27.109   2.359  31.713 -0.0073 -0.1286 -0.0923
30047W        W73141  27.491  33.989   2.515 -0.0150 -0.1306  0.0517
30048W        W73142  26.902   3.658   3.417  0.0368  0.2017 -0.3735
30049W        W73143  25.730   4.180   3.258 -0.2916  0.1939  0.1390
30050W        W73144  26.294   1.148  31.754  0.2027 -0.6129 -0.2040
30051W        W73145  28.328   2.726   3.371 -0.2279  0.1175 -0.0567
30052W        W73146  25.224   2.858   1.105 -0.1655 -0.1067  0.1206
30053W        W73147  26.744   2.251  31.372  0.0775  0.1066 -0.3653
30054W        W73148  27.346   3.129   1.270 -0.0412 -0.0287 -0.1107
30055W        W73149  27.945   0.866   0.844  0.1311  0.0650  0.0260
30056W        W73150  28.970   2.287   1.805  0.2404  0.2269  0.1573
30057W        W73151  26.535   0.891   0.800 -0.0963  0.1434 -0.0809
30058W        W73152  28.518  33.309  30.897  0.1234  0.0443  0.0903
30059W        W73153  27.777   0.125  31.916 -0.1871 -0.2023  0.0252
30060W        W73154  26.627   2.946   2.537 -0.0224  0.1531  0.2304
30061W        W73155  27.073   0.269   0.570  0.0302 -0.1619  0.1371
30062W        W73156  26.042   3.544  30.786 -0.1939  0.4307  0.1289
30063W        W73157  23.624   2.106   1.991 -0.2681  0.0368 -0.2127
30064W        W73158  26.186   0.577   2.410 -0.1442 -0.0647  0.2940
30065W        W73159  26.267   2.132   2.347 -0.2837  0.2577  0.4337
30066W        W73160  25.124   2.503   1.750  0.1829 -0.1225  0.0728
30067W        W73161  25.818   0.555   0.219 -0.1008  0.1117 -0.3946
30068W        W73162  29.625   3.324  31.303  0.3140  0.1346  0.0505
30069W        W73163  27.406  34.609   1.111  0.3480  0.1085 -0.1864
30070W        W73164  25.506   0.789   1.578 -0.1046  0.3587  0.1124
30071W        W73165  29.170   3.166   0.611  0.1648  0.1915  0.0081
30072W        W73166  29.827   4.337  31.258 -0.1302 -0.1197 -0.1446
30073W        W73167  25.970   2.360   1.476  0.0706 -0.0312 -0.1712
30074W        W73168  29.230   3.464   2.786 -0.1952  0.3249  0.0466
30075W        W73169  25.280   3.940  31.196  0.2462 -0.1186  0.2469
30076W        W73170  27.292   1.316   3.208 -0.3837 -0.0912 -0.1763
30077W        W73171  27.910  34.253   3.333 -0.1466 -0.0662  0.3108
30078W        W73172  24.937   0.955  31.548  0.2561  0.0903  0.0795
30079W        W73173  26.320   1.999   1.859 -0.0127 -0.0287  0.0969
30080W        W73174  26.526   1.988  31.808 -0.1720 -0.0709 -0.0827
30081W        W73175  28.771   4.360  31.059 -0.2452 -0.1616 -0.1546
30082W        W73176  27.067   4.163   3.203 -0.0460  0.2062 -0.2960
30083W        W73177  25.119   5.130   2.608 -0.4461  0.2058 -0.1112
30084W        W73178  25.260  33.133   1.237 -0.3220 -0.2088 -0.1795
30085W        W73179  28.040   2.651   1.327 -0.0204  0.2443 -0.2153
30086W        W73180  26.575   2.482   2.051 -0.1902  0.0375 -0.1247
30087W        W73181  28.421   2.088   0.460  0.2336  0.0724 -0.0218
30088W        W73182  29.257   2.101   2.892  0.0178 -0.0874  0.1274
30089W        W73183  27.982   1.748   0.311 -0.1652 -0.2651  0.1127
30090W        W73184  26.936   0.124   2.939 -0.0976  0.4412 -0.0538
30091W        W73185  26.944   0.571   2.732  0.2892  0.3462  0.0365
30092W        W73186  28.650   1.740   1.973 -0.0011  0.0846 -0.3681
30093W        W73187  26.693   0.156   1.775 -0.3034  0.1841  0.2775
30094W        W73188  27.894  34.600   0.860 -0.0998 -0.3817  0.0342
30095W        W73189  26.546   1.343   0.191  0.1641  0.1470 -0.1717
30096W        W73190  25.847   2.899   2.768 -0.3525  0.0468  0.1010
30097W        W73191  28.451   1.552   0.590  0.3010  0.0548 -0.1721
30098W        W73192  27.348   2.678   2.791  0.0619  0.0539  0.2870
30099W        W73193  27.168   3.271   1.843  0.0109 -0.2273  0.1435
30100W        W73194  27.831   2.644   3.272 -0.0810  0.1532  0.0795
30101W        W73195  26.470   1.366   1.033 -0.4132 -0.0960  0.0663
30102W        W73196  27.684   1.126   0.263 -0.1916 -0.0341  0.0039
30103W        W73197  27.472   4.599   2.272  0.0245  0.3446  0.0160
30104W        W73198  29.114   2.583   2.199  0.0738 -0.1979 -0.0117
30105W        W73199  27.524   3.989   2.983 -0.0274  0.0190 -0.1255
30106W        W73200  27.613   1.690   3.558  0.0372  0.2221  0.1187
30107W        W73201  25.541  34.687   3.284 -0.0825  0.1920 -0.1938
30108W        W73202  28.180   1.039   0.420 -0.1146 -0.0011 -0.1574
30109W        W73203  25.986   2.376   0.865 -0.3830 -0.2392 -0.2915
30110W        W73204  28.517   1.276   1.883  0.2841 -0.2534 -0.2008
30111W        W73205  26.275   1.093   1.473  0.0620 -0.0369  0.0914
30112W        W73206  27.154   0.208  31.708  0.0763 -0.3949 -0.0747
30113W        W73207  26.987   3.794   2.060 -0.0968 -0.1054  0.0585
30114W        W73208  28.596   3.567   2.088 -0.1636 -0.1096  0.0064
30115W        W73209  25.883   2.946   6.101  0.0452  0.1652  0.1590
30116W        W73210  26.358   1.511   4.194  0.3068 -0.1133  0.1776
30117W        W73211  27.896   0.009   3.696 -0.3374 -0.0150 -0.0762
30118W        W73212  27.680   2.941   4.819 -0.3156 -0.1280 -0.0923
30119W        W73213  26.071   0.941   5.522 -0.2839  0.2174 -0.3278
30120W        W73214  27.756   2.624   5.412  0.2671 -0.0217 -0.1642
30121W        W73215  25.658  34.090   6.430  0.2484  0.2783 -0.0007
30122W        W73216  28.408   2.277   5.804 -0.1836 -0.1706  0.2807
30123W        W73217  29.382   3.596   6.954 -0.0269  0.0128 -0.2351
30124W        W73218  28.150   1.668   3.616  0.0279 -0.0422 -0.3306
30125W        W73219  26.369   0.303   4.865  0.0664  0.1563  0.0260
30126W        W73220  26.131   3.066   6.548  0.2188 -0.0190  0.0092
30127W        W73221  26.722  34.685   3.880 -0.1801  0.1014  0.0244
30128W        W73222  25.786   0.905   5.070  0.0300 -0.0353 -0.0824
30129W        W73223  27.964   2.065   6.832  0.1824  0.0204  0.2481
30130W        W73224  25.173   1.472   4.009 -0.1267  0.1150  0.2084
30131W        W73225  27.093   1.252   5.409  0.2988  0.0802 -0.2377
30132W        W73226  28.350  33.601   3.550  0.0649 -0.4487 -0.1240
30133W        W73227  27.729   3.397   5.006 -0.1858 -0.1794 -0.0726
30134W        W73228  26.904   0.174   6.590 -0.1064 -0.0771 -0.0590
30135W        W73229  28.595  33.575   7.549 -0.0059 -0.0286  0.0121
30136W        W73230  27.656   2.433   4.730 -0.1406  0.1595 -0.0893
30137W        W73231  26.750   1.434   2.293 -0.1880  0.1020 -0.3398
30138W        W73232  25.426   1.223   6.246  0.0027  0.1085  0.4727
30139W        W73233  26.585   1.930   5.929 -0.1562 -0.3098  0.1379
30140W        W73234  27.348  34.486   5.842  0.0069  0.0092 -0.0435
30141W        W73235  27.958   1.712   6.457  0.2535  0.2587 -0.3176
30142W        W73236  28.264   3.115   4.249  0.0612  0.2954  0.0326
30143W        W73237  28.289   2.544   5.400  0.1642 -0.1008  0.1765
30144W        W73238  28.925   1.319   6.875  0.0153 -0.1323 -0.1934
30145W        W73239  25.337   2.203   4.532 -0.1626 -0.0973 -0.2685
30146W        W73240  26.099   3.116   5.652  0.0729 -0.0466 -0.1453
30147W        W73241  26.250   3.049   3.874  0.1615  0.3065 -0.0839
30148W        W73242  29.149   2.913   2.638  0.0574 -0.2192  0.0751
30149W        W73243  28.951   3.881   6.784 -0.0709  0.1346  0.3103
30150W        W73244  26.911   3.301   5.288 -0.0424  0.3019  0.2953
30151W        W73245  26.123   2.608   4.077 -0.0502  0.1428  0.0895
30152W        W73246  28.483   4.048   6.737  0.0182 -0.1077  0.1371
30153W        W73247  26.958   3.789   4.571 -0.0479  0.2841 -0.0501
30154W        W73248  26.797   1.525   5.713 -0.0799  0.2662  0.2595
30155W        W73249  27.587   1.516   4.964  0.0143 -0.0925  0.1265
30156W        W73250  26.231   3.468   4.825 -0.2173  0.4072 -0.0804
30157W        W73251  28.086   1.534   4.092  0.1627 -0.0427 -0.3454
30158W        W73252  26.949   2.630   7.228  0.1698  0.1246 -0.2959
30159W        W73253  26.596   1.956   4.924  0.0792 -0.1894  0.3501
30160W        W73254  29.403  34.432   7.094  0.2504 -0.1173 -0.0255
30161W        W73255  27.291   3.531   3.047  0.1885  0.1488 -0.1360
30162W        W73256  28.347   1.721   4.492 -0.1998  0.1964  0.2567
30163W        W73257  26.840   1.527   2.802  0.1942 -0.3576  0.1180
30164W        W73258  29.689   1.583   4.026  0.0939 -0.1470 -0.0388
30165W        W73259  27.059  33.777   5.004 -0.1091  0.0335  0.2843
30166W        W73260  27.694   2.173   6.437 -0.1752  0.1465 -0.0467
30167W        W73261  26.392  34.588   5.965 -0.1478 -0.5475 -0.5473
30168W        W73262  29.405   3.848   6.362  0.1821 -0.1132  0.3337
30169W        W73263  27.157   1.734   5.244 -0.1113  0.3534 -0.0309
30170W        W73264  27.640   1.270   6.183  0.0115 -0.2025 -0.1211
30171W        W73265  26.991   4.148   5.995  0.1055 -0.1477 -0.1308
30172W        W73266  25.470   0.891   4.624 -0.0971  0.0057 -0.1866
30173W        W73267  28.984   2.631   3.937 -0.0272  0.1716 -0.0712
30174W        W73268  29.539   2.846   4.729 -0.1948  0.3322 -0.1633
30175W        W73269  28.384   3.272   5.630  0.0130 -0.3233  0.0060
30176W        W73270  25.862   1.761   5.178 -0.3151  0.0903 -0.3145
30177W        W73271  26.778   1.888   6.880  0.3182  0.0167 -0.1159
30178W        W73272  24.887   1.201   6.763 -0.1283  0.0640  0.1180
30179W        W73273  26.124   1.547   4.630  0.0714  0.0604  0.1986
30180W        W73274  28.473   3.186   7.910  0.3149  0.0939  0.0245
30181W        W73275  26.371   3.452   7.429 -0.0038 -0.0433 -0.0776
30182W        W73276  29.975   0.004   5.265 -0.1365  0.0949 -0.0460
30183W        W73277  24.966   1.923   3.722  0.2987 -0.0511 -0.2179
30184W        W73278  27.809   2.737   6.515  0.1762 -0.0558 -0.0417
30185W        W73279  28.160   3.233   3.716 -0.0131  0.2119  0.1688
30186W        W73280  29.603   1.771   4.734  0.0815  0.3311 -0.1295
30187W        W73281  27.505   0.487   5.464 -0.0221  0.2486 -0.0862
30188W        W73282  27.270   1.291   2.646 -0.1807 -0.0071  0.1143
30189W        W73283  26.833   2.759   5.283 -0.0776 -0.0226 -0.1981
30190W        W73284  30.036   3.353   7.211 -0.1538 -0.3077  0.1254
30191W        W73285  28.620   2.376   3.703  0.3086 -0.2552  0.0962
30192W        W73286  25.558   1.897   5.626  0.0701 -0.0298 -0.1761
30193W        W73287  28.276   1.235   6.146 -0.0853  0.4481 -0.0854
30194W        W73288  27.932   2.572   7.106 -0.2045 -0.1532  0.0155
30195W        W73289  26.203   3.157   4.354 -0.0715 -0.1113 -0.2415
30196W        W73290  26.228   1.409   5.746 -0.2423 -0.2026  0.1510
30197W        W73291  25.250   2.358   3.861 -0.1041 -0.0197  0.1379
30198W        W73292  25.849   0.130   6.012  0.0317 -0.1686 -0.1881
30199W        W73293  27.484   2.093   5.488 -0.1601  0.0871  0.0712
30200W        W73294  27.843  34.166   3.839  0.0744 -0.2872  0.1446
30201W        W73295  24.650   1.651   6.610  0.1536 -0.0675  0.1113
30202W        W73296  27.631  34.608   5.459  0.0085  0.0523 -0.2309
30203W        W73297  26.340   2.106   3.383  0.1301 -0.0628 -0.3044
30204W        W73298  28.649   3.874   4.787  0.4012  0.1124 -0.0884
30205W        W73299  29.032   1.376   3.844  0.1596 -0.2618 -0.2656
30206W        W73300  30.166   2.362   3.237 -0.1901 -0.1323 -0.0116
30207W        W73301  27.062   1.669   6.142 -0.1856 -0.0343  0.2133
30208W        W73302  27.431   1.614   5.672  0.4492  0.2696  0.1581
30209W        W73303  25.928   0.358   6.507  0.2035  0.0523  0.2170
30210W        W73304  25.662   1.023   5.844  0.2007 -0.1350  0.0294
30211W        W73305  28.455   1.146   6.823 -0.0131 -0.2200 -0.2478
30212W        W73306  27.176   0.766   4.666  0.1704  0.3690  0.2191
30213W        W73307  28.053   1.741   4.957  0.0915  0.0735 -0.0426
30214W        W73308  26.407   0.383   4.216 -0.1900  0.1975  0.2510
30215W        W73309  25.038   1.903   4.262  0.0020 -0.0916 -0.2186
30216W        W73310  28.369   0.970   7.337 -0.0354  0.1111  0.2845
30217W        W73311  27.134   2.931   4.854 -0.2439  0.0231  0.1451
30218W        W73312  29.504   4.370   8.066  0.0941 -0.0702  0.0475
30219W        W73313  29.453   3.299   4.605  0.0013  0.2329 -0.2437
30220W        W73314  27.751   0.864   6.893  0.0587  0.2487  0.1988
30221W        W73315  25.341   0.982   4.087 -0.0819  0.0829  0.0874
30222W        W73316  26.569   3.299   5.693 -0.0581 -0.2053  0.2179
30223W        W73317  27.985   2.224   5.201  0.1243  0.0414 -0.5674
30224W        W73318  25.766   1.029   3.739  0.2987  0.1413 -0.0329
30225W        W73319  29.589   4.321   6.231  0.2389 -0.2353 -0.0533
30226W        W73320  26.867   2.797   4.243 -0.0127  0.0956  0.1267
30227W        W73321  26.461   2.609   6.458  0.1347 -0.0876 -0.1066
30228W        W73322  28.016   0.781   5.984  0.2528  0.3439 -0.2033
30229W        W73323  29.105   2.356   6.298 -0.2061 -0.0807  0.1072
30230W        W73324  28.206   2.513   6.562  0.2700 -0.1299 -0.0538
30231W        W73325  25.638  33.981   3.556  0.1825  0.1562 -0.0279
30232W        W73326  28.311   3.849   5.877  0.0352 -0.1160  0.1707
30233W        W73327  24.831   4.193   3.668  0.1912  0.0787 -0.1627
30234W        W73328  26.033   0.577   3.841  0.1491 -0.1070  0.0815
30235W        W73329  27.940   2.538   5.986  0.1134  0.1776 -0.2061
30236W        W73330  28.527   1.415   5.425 -0.0423 -0.0967  0.1064
30237W        W73331  25.364   1.869   6.133 -0.4685 -0.0025  0.2887
30238W        W73332  27.714   1.053   7.856 -0.1254  0.0952 -0.1523
30239W        W73333  26.367   0.975   3.666 -0.0303  0.1946 -0.3081
30240W        W73334  26.994   3.452   6.634  0.0670 -0.1687  0.2752
30241W        W73335  26.817   0.260   4.616  0.2644 -0.0509  0.1084
30242W        W73336  28.717  34.552   3.024  0.0950 -0.0620  0.1642
30243W        W73337  28.582   0.629   8.090  0.0250 -0.0458 -0.3203
30244W        W73338  27.362   2.522   5.123  0.0368 -0.4708  0.1236
30245W        W73339  27.852   0.007   3.146  0.1221  0.1215 -0.3368
30246W        W73340  26.883   1.121   4.539  0.4067  0.4257 -0.2764
30247W        W73341  28.464   2.062   7.644 -0.0604  0.1278 -0.2542
30248W        W73342  28.170   2.694   4.560  0.0347 -0.2487 -0.0593
30249W        W73343  28.299   1.869   5.408 -0.0132 -0.0206  0.0177
30250W        W73344  28.135   0.766   3.863 -0.0120  0.4847  0.0358
30251W        W73345  29.902   4.480   3.861  0.1137  0.1247  0.0022
30252W        W73346  26.026   2.104   4.543  0.3726  0.0509  0.1205
30253W        W73347  27.776   2.953   7.643  0.2387 -0.0973 -0.0397
30254W        W73348  29.138   3.684   4.896 -0.1624  0.2830  0.1756
30255W        W73349  26.119   1.073   6.082 -0.2753  0.1484 -0.1311
30256W        W73350  27.206   1.971   3.990 -0.0161 -0.1806  0.2804
30257W        W73351  27.994   1.285   5.106 -0.1190  0.0240  0.0219
30258W        W73352  25.150   4.719   3.314  0.2395 -0.3809 -0.1173
30259W        W73353  29.050   1.429   5.391  0.3926  0.1677  0.1117
30260W        W73354  28.754   0.009   3.911  0.4668  0.3070  0.2930
30261W        W73355  27.725   0.363   6.831 -0.2732 -0.0688  0.2422
30262W        W73356  29.849   1.714   8.892  0.4596 -0.1647  0.2628
30263W        W73357  28.429   0.379   3.934  0.1818  0.0908  0.0314
30264W        W73358  27.948   1.219   6.614  0.0781 -0.0008 -0.0553
30265W        W73359  27.199   1.138   1.315  0.1570 -0.0719 -0.1391
30266W        W73360  27.542   0.534   7.965 -0.3175 -0.0400  0.2464
30267W        W73361  26.513   0.455   6.770 -0.1085 -0.0162  0.0845
30268W        W73362  25.752   4.178   5.312 -0.0512 -0.0489 -0.0598
30269W        W73363  28.075   2.287   7.483 -0.0763  0.3041  0.1517
30270W        W73364  28.298   1.668   5.850  0.0047  0.2522  0.0936
30271W        W73365  28.313   0.046   7.000 -0.2335  0.2767 -0.1221
30272W        W73366  29.083   2.729   4.935  0.2894  0.0611  0.2178
30273W        W73367  26.462   3.668   3.776 -0.2273 -0.0078  0.3681
30274W        W73368  27.525   1.551   4.062 -0.0279  0.0645 -0.2793
30275W        W73369  27.103  34.591   4.884 -0.4296  0.0621 -0.1716
30276W        W73370  27.167   2.011   6.503  0.1349 -0.1493 -0.2791
30277W        W73371  27.990   4.020   2.765  0.2455 -0.2673 -0.1655
30278W        W73372  28.215   2.954   6.740  0.0197 -0.0590 -0.1403
30279W        W73373  26.670   2.892   3.563 -0.0309  0.0847 -0.0703
30280W        W73374  29.546   1.344   5.287 -0.1045  0.0148 -0.0256
30281W        W73375  27.115   3.649   3.963 -0.0470 -0.3846  0.1313
30282W        W73376  26.540  34.484   4.781  0.1602  0.2746  0.0698
30283W        W73377  24.975   2.523   4.288  0.1030  0.1144  0.3807
30284W        W73378  28.084   1.014   4.722  0.2239 -0.1900 -0.0985
30285W        W73379  28.952   2.463   2.676 -0.1701  0.1137  0.1637
30286W        W73380  26.502   0.799   5.844 -0.0288  0.1571 -0.0753
30287W        W73381  27.156  34.262   5.366 -0.1128  0.0548  0.1448
30288W        W73382  25.449   2.872   5.087  0.0398 -0.0145  0.0885
30289W        W73383  28.523   2.029   6.590  0.0637 -0.2121 -0.1513
30290W        W73384  27.728   1.237   3.646  0.3382  0.2905 -0.1931
30291W        W73385  28.421   2.139   7.179 -0.1694  0.1549 -0.1459
30292W        W73386  26.252   2.114   7.470 -0.1266 -0.0000 -0.0118
30293W        W73387  28.040   1.477   1.971  0.0886  0.0893  0.2864
30294W        W73388  28.877   2.331   6.817 -0.1576  0.0312  0.0466
30295W        W73389  26.538   1.371   4.770  0.0451  0.1051  0.1593
30296W        W73390  27.349   2.540   6.291  0.1045 -0.1146 -0.1213
30297W        W73391  27.125   3.066   5.679  0.0769 -0.3117 -0.4194
30298W        W73392  27.498   2.048   4.983 -0.0539 -0.3230  0.1204
30299W        W73393  26.727   3.374   4.829 -0.0242 -0.2482 -0.3252
30300W        W73394  27.501   1.672   6.464  0.4563  0.0969 -0.0576
30301W        W73395  29.397   2.591   5.885  0.0543  0.2289 -0.3503
30302W        W73396  27.172   1.263   5.926 -0.0000 -0.2960  0.1793
30303W        W73397  26.864   0.623   4.267  0.1985 -0.1554 -0.0397
30304W        W73398  28.037   2.082   4.513  0.0701  0.2895 -0.6099
30305W        W73399  28.549   2.544   4.251  0.2674  0.0817  0.1880
30306W        W73400  28.810   1.772   6.913  0.1716  0.2311 -0.1784
30307W        W73401  27.135   4.022   7.262 -0.3983 -0.0410 -0.0977
30308W        W73402  27.264  33.257   5.208  0.2114  0.2398 -0.0901
30309W        W73403  29.321   4.629   3.745 -0.1369 -0.1074  0.2647
30310W        W73404  28.391   0.561   5.406  0.2574 -0.1024 -0.0634
30311W        W73405  25.592   2.734   4.205  0.0285  0.1219 -0.1675
30312W        W73406  26.064   2.012   5.866  0.2718 -0.0629  0.0768
30313W        W73407  26.451   2.538   4.477  0.0172  0.0158  0.0957
30314W        W73408  26.648   0.305   5.866  0.2242 -0.1385  0.0923
30315W        W73409  26.685   2.027   6.430  0.0754 -0.1060 -0.2088
30316W        W73410  26.873   2.237   4.314 -0.0935 -0.0798  0.0987
30317W        W73411  25.807   2.480   5.797  0.2860 -0.1939 -0.2425
30318W        W73412  27.685   0.726   4.421  0.1694 -0.1883  0.1675
30319W        W73413  27.859   2.935   4.059  0.0843  0.2501  0.3383
30320W        W73414  27.786   1.772   6.001 -0.0452  0.0725 -0.0693
30321W        W73415  29.602   1.379   6.094 -0.0189  0.2571 -0.2446
30322W        W73416  29.344   2.954   4.227 -0.0608  0.2298 -0.1615
30323W        W73417  28.502   0.075   6.538 -0.0821 -0.3404  0.0206
30324W        W73418  26.122  33.866   6.656  0.1206  0.0059 -0.3492
30325W        W73419  30.304   3.337   4.611 -0.1286 -0.3146 -0.1760
30326W        W73420  24.824   1.479   7.209 -0.1917 -0.2021  0.1416
30327W        W73421  27.529   2.493   6.854 -0.0520  0.2989 -0.0722
30328W        W73422  27.532   0.809   6.465  0.0650 -0.1281  0.1497
30329W        W73423  27.932   1.488   4.543  0.4465 -0.2064 -0.1153
30330W        W73424  26.936   0.152   2.332  0.3958 -0.1028 -0.0998
30331W        W73425  27.918   2.114   5.686  0.2852 -0.0179  0.0752
30332W        W73426  28.425   3.131   4.818  0.1475  0.3256  0.1802
30333W        W73427  28.564   2.922   3.867 -0.3355  0.1049 -0.0836
30334W        W73428  29.106   1.616   6.018  0.0310 -0.1276  0.0363
30335W        W73429  25.205   1.817   4.801  0.0894  0.1238  0.1410
30336W        W73430  29.610   1.095   4.746 -0.0815  0.4368 -0.3577
30337W        W73431  27.613   2.631   3.778 -0.0475  0.0055  0.2799
30338W        W73432  25.734   3.079   3.913  0.0896  0.2085 -0.4195
30339W        W73433  26.285  34.287   6.326 -0.0244 -0.0391 -0.0557
30340W        W73434  28.563   2.828   5.669  0.0486 -0.1091 -0.4567
30341W        W73435  27.545   1.995   4.445 -0.0588  0.0854  0.1102
30342W        W73436  27.951   0.211   5.146 -0.1129 -0.1087 -0.1215
30343W        W73437  28.802   0.518   6.599  0.0685  0.0575 -0.3304
30344W        W73438  27.484   1.172   7.133  0.0291 -0.0476 -0.0884
30345W        W73439  26.526   0.417   7.419  0.0252  0.0196  0.0868
30346W        W73440  28.535   3.200   6.404  0.0545 -0.2354  0.2064
30347W        W73441  28.949   0.480   3.849 -0.2419 -0.1500 -0.3220
30348W        W73442  28.769   0.383   7.126  0.3357  0.0537 -0.1995
30349W        W73443  28.770   1.919   3.639 -0.2386  0.0467 -0.0767
30350W        W73444  27.977   2.431   4.184 -0.0039 -0.2751  0.1571
30351W        W73445  27.155   1.157   6.421 -0.0182  0.0907  0.0372
30352W        W73446  27.813   0.875   7.409  0.2294  0.2130 -0.0879
30353W        W73447  25.485   0.575   3.791  0.1815 -0.0290  0.2025
30354W        W73448  28.154   0.743   6.515  0.0494  0.2818  0.0348
30355W        W73449  28.266   3.698   3.534  0.3814 -0.0568 -0.2169
30356W        W73450  29.122   3.901   3.969 -0.0437  0.0523  0.1906
30357W        W73451  28.521   1.098   3.829  0.0687 -0.0238 -0.4484
30358W        W73452  26.236   0.722   6.367 -0.0469 -0.1573  0.2902
30359W        W73453  26.533   3.511   6.350 -0.0155  0.1738 -0.0387
30360W        W73454  26.563   1.490   3.728  0.3566 -0.0070 -0.2853
30361W        W73455  27.725   3.567   3.915  0.3184  0.1584  0.2766
30362W        W73456  28.258   2.846   6.163 -0.2413  0.1562  0.1639
30363W        W73457  28.296   1.694   6.889 -0.2683 -0.1840 -0.4134
30364W        W73458  27.189   1.140   3.661 -0.0144  0.2317 -0.0854
30365W        W73459  28.011   0.550   7.761  0.0893 -0.0555 -0.2995
30366W        W73460  26.590   2.501   3.848  0.0126  0.1652 -0.1875
30367W        W73461  28.255  34.411   4.018 -0.2848  0.1639 -0.0174
30368W        W73462  27.379   3.536   5.493  0.1275 -0.2864  0.2479
30369W        W73463  26.272   2.626   7.418  0.0924  0.0029 -0.3754
30370W        W73464  27.292   3.027   3.924  0.0087 -0.1608  0.1684
30371W        W73465  28.384   0.680   6.930  0.2533 -0.0375  0.1769
30372W        W73466  28.912   2.487   5.845  0.1101  0.0569  0.1756
30373W        W73467  26.713   1.522   5.235 -0.1752 -0.0928 -0.2856
30374W        W73468  30.328   1.515   6.160  0.0130  0.0474  0.0001
30375W        W73469  28.804   2.781   6.569  0.3763  0.0092 -0.0894
30376W        W73470  27.443   0.153   5.074 -0.0389 -0.0351 -0.1060
30377W        W73471  28.834   2.942   6.085 -0.3386  0.2448 -0.1926
30378W        W73472  29.923   2.328   3.769 -0.0500 -0.1000 -0.1884
30379W        W73473  26.665   1.790   4.405  0.0772 -0.1138  0.1049
30380W        W73474  26.324   1.664   6.843 -0.2163  0.0936  0.3220
30381W        W73475  28.067   1.806   7.313 -0.1796  0.0153 -0.0914
30382W        W73476  28.634   2.415   6.272 -0.0789  0.0168 -0.1868
30383W        W73477  26.157   0.003   3.873 -0.0876 -0.0580  0.0475
30384W        W73478  28.267   3.596   4.699 -0.0329  0.0568  0.0944
30385W        W73479  26.180   2.695   6.875 -0.0129 -0.1407 -0.2094
30386W        W73480  26.273   1.650   6.258 -0.0137  0.0334 -0.0321
30387W        W73481  25.628   4.420   4.212  0.1690 -0.4430 -0.0800
30388W        W73482  28.530   3.274   3.408 -0.1639 -0.2137 -0.0812
30389W        W73483  27.566   1.145   5.343 -0.1682 -0.1721 -0.1874
30390W        W73484  28.496   3.763   6.324 -0.2732  0.0178  0.0342
30391W        W73485  27.556   1.070   4.724  0.1218 -0.0234 -0.4169
30392W        W73486  26.075   3.433   6.116  0.2484 -0.1273 -0.0533
30393W        W73487  25.231   3.311   4.966  0.0619  0.4010  0.3719
30394W        W73488  28.647   3.415   4.361  0.1129 -0.0350  0.2192
30395W        W73489  26.902   3.765   5.053 -0.0492 -0.1248  0.2271
30396W        W73490  28.260   2.961   7.430 -0.3128 -0.0696  0.2334
30397W        W73491  28.908  33.930   3.013  0.1822 -0.0255  0.0777
30398W        W73492  30.928   0.669   5.911  0.0561 -0.1816 -0.1621
30399W        W73493  27.220   0.601   5.977 -0.0004 -0.0788 -0.0460
30400W        W73494  27.363   3.051   6.443 -0.0656  0.1076 -0.2635
30401W        W73495  27.390   2.108   6.002 -0.2285  0.4115 -0.0236
30402W        W73496  27.535   0.759   3.807  0.5976 -0.0078 -0.2651
30403W        W73497  26.355   2.430   5.999  0.0704 -0.1408 -0.1800
30404W        W73498  29.197   0.845   6.761  0.1735 -0.1840 -0.1095
30405W        W73499  24.789   3.283   6.462 -0.2867  0.2263 -0.1248
30406W        W73500  29.688   4.484   2.982 -0.0831 -0.0248  0.2126
30407W        W73501  26.010   2.142   3.797 -0.0089  0.3896  0.2348
30408W        W73502  27.245   0.816   5.172 -0.1095 -0.0348 -0.0165
30409W        W73503  29.049  34.170   6.777  0.1445  0.0452  0.0436
30410W        W73504  27.152   1.771   3.187 -0.0911  0.2889 -0.0617
30411W        W73505  28.129   2.091   6.186 -0.0505 -0.1339  0.1395
30412W        W73506  27.889   3.444   5.629  0.0582  0.0007  0.2046
30413W        W73507  26.587   2.383   5.508 -0.1610 -0.3663  0.0827
30414W        W73508  26.366   3.009   6.119  0.2111 -0.0514 -0.0792
30415W        W73509  25.614   0.134   4.016  0.3192  0.0581  0.2508
30416W        W73510  28.070   2.721   5.001  0.0397 -0.2820 -0.1234
30417W        W73511  27.988   0.251   6.288  0.0233  0.5190 -0.2249
30418W        W73512  28.331  34.292   7.205 -0.0186 -0.1508  0.1889
30419W        W73513  25.807  34.540   6.504 -0.4214 -0.1050  0.0129
30420W        W73514  28.885   2.170   4.079 -0.0397  0.0478 -0.0858
30421W        W73515  24.575   2.158   7.272  0.3326 -0.2579  0.2338
30422W        W73516  26.851   0.816   3.467 -0.0916  0.3301 -0.0954
30423W        W73517  28.797   3.027   7.498 -0.0131 -0.2872 -0.2726
30424W        W73518  27.792   1.317   3.160  0.0486 -0.2472 -0.1871
30425W        W73519  28.872   4.258   7.175 -0.1169 -0.0504  0.3613
30426W        W73520  26.728   1.039   4.013 -0.0364 -0.0679  0.0346
30427W        W73521  28.326  34.507   3.408 -0.1709  0.2008 -0.0282
30428W        W73522  26.361   1.876   5.461  0.1177 -0.0429  0.0084
30429W        W73523  27.234   2.485   5.643 -0.0324  0.1897 -0.0584
30430W        W73524  27.631   2.118   7.190 -0.4259 -0.1951  0.1193
30431W        W73525  26.586   1.095   5.455 -0.0947  0.3139 -0.1089
30432W        W73526  28.135   1.970   2.752 -0.1299 -0.0520  0.3205
30433W        W73527  28.716   1.837   5.045 -0.0436 -0.1839 -0.1537
30434W        W73528  26.579   4.465   3.912 -0.0878 -0.2328  0.0243
30435W        W73529  29.126   2.473   4.438  0.1195  0.0322 -0.4996
30436W        W73530  27.945   2.967   5.745 -0.0784  0.2680 -0.1883
30437W        W73531  26.109   0.721   6.900  0.2292  0.1379 -0.1908
30438W        W73532  27.832   3.196   6.310  0.0837  0.0693 -0.2182
30439W        W73533  28.635   2.659   4.706 -0.1887  0.2636 -0.3295
30440W        W73534  26.390   0.509   5.406 -0.0673 -0.0280  0.1451
30441W        W73535  28.494   1.450   4.897  0.1040  0.2359  0.0680
30442W        W73536  25.179   2.458   4.971  0.2982 -0.3115 -0.1115
30443W        W73537  27.034   0.139   6.145 -0.0988  0.1264  0.1569
30444W        W73538  28.797   0.183   6.163  0.0872 -0.2639 -0.0926
30445W        W73539  27.070   4.193   4.822  0.2131 -0.1366 -0.2087
30446W        W73540  28.099  34.443   8.333  0.0790 -0.0404  0.2335
30447W        W73541  26.970   3.265   6.150 -0.2337 -0.2454  0.2247
30448W        W73542  25.639   2.931   5.658  0.1722 -0.0720  0.3474
30449W        W73543  27.075   1.630   3.629 -0.4493  0.0746  0.0622
30450W        W73544  26.736   3.021   6.588 -0.0898 -0.1236 -0.1415
30451W        W73545  27.350   2.501   4.282  0.0407  0.2778  0.3386
30452W        W73546  27.455   3.613   4.368  0.2517 -0.0008 -0.0568
30453W        W73547  29.046   3.517   6.411  0.1507 -0.0059  0.5062
30454W        W73548  27.918   0.708   5.320 -0.0589  0.1680 -0.0900
30455W        W73549  28.913   2.934   4.416 -0.1080 -0.0394 -0.0275
30456W        W73550  26.538   0.898   2.690 -0.1843  0.0603 -0.0703
30457W        W73551  29.074   0.171   4.708  0.0832  0.0331  0.0210
30458W        W73552  28.814  34.362   3.537 -0.1485 -0.3134  0.1634
30459W        W73553  26.745   1.465   6.561 -0.0259  0.4358  0.0304
30460W        W73554  27.026   1.515   4.087  0.3250 -0.3008 -0.0461
30461W        W73555  26.425   3.864   2.091  0.0140 -0.2577  0.2413
30462W        W73556  25.627   1.394   4.900 -0.1269  0.1993 -0.0801
30463W        W73557  27.706  34.142   6.277  0.1933 -0.1114 -0.3173
30464W        W73558  25.248   2.354   6.813 -0.0605  0.0116 -0.1267
30465W        W73559  24.698   1.675   5.092 -0.0329 -0.0406  0.4484
30466W        W73560  24.762   1.343   4.249  0.0003  0.0339 -0.1789
30467W        W73561  27.866   3.333   4.499  0.3619 -0.2387  0.2224
30468W        W73562  27.025   1.955   5.681 -0.1171  0.2231 -0.1013
30469W        W73563  26.772   0.907   5.018 -0.0506  0.3952  0.2343
30470W        W73564  27.833   3.815   4.673  0.1277 -0.0511  0.1583
30471W        W73565  28.941   3.561   3.513 -0.2513 -0.0955 -0.0417
30472W        W73566  27.486  34.314   4.949 -0.1248  0.0921 -0.3459
30473W        W73567  28.517   1.775   8.101  0.1332 -0.1413  0.5738
30474W        W73568  24.783   2.169   4.687  0.0193  0.2421  0.1239
30475W        W73569  26.637   0.916   6.634 -0.2290 -0.1911  0.0358
30476W        W73570  28.392  34.566   6.053 -0.0289 -0.4688  0.0077
30477W        W73571  25.890   0.701   3.317  0.1496 -0.0903  0.3714
30478W        W73572  27.134   2.226   6.949  0.2903 -0.0110  0.1460
30479W        W73573  28.385   2.287   4.934 -0.1133  0.1407  0.1877
30480W        W73574  29.538   4.228   4.014 -0.5692 -0.1297 -0.0591
30481W        W73575  27.528   2.847   5.929  0.0893  0.0601 -0.3119
30482W        W73576  26.895   2.808   6.058 -0.2931  0.3600  0.0865
30483W        W73577  25.557   0.744   7.026  0.0896  0.5132 -0.0654
30484W        W73578  28.652   2.176   4.544  0.1269  0.0140 -0.0204
30485W        W73579  26.355   3.075   5.162  0.1005 -0.6216  0.0694
30486W        W73580  30.118   2.600   4.767 -0.1797 -0.0983  0.2080
30487W        W73581  27.871   1.352   5.749 -0.1503 -0.2128 -0.1163
30488W        W73582  27.795   1.700   5.351  0.0075  0.0216 -0.2081
30489W        W73583  26.939  34.414   7.125  0.1930  0.1712 -0.4594
30490W        W73584  27.513   2.653   7.357 -0.0881  0.0080  0.0757
30491W        W73585  28.557   1.521   6.487  0.1756 -0.3265  0.0645
30492W        W73586  25.984   0.422   5.157 -0.1029  0.1901 -0.3116
30493W        W73587  28.382   0.934   5.090 -0.1382 -0.1849 -0.2865
30494W        W73588  27.695   3.924   5.345  0.4520  0.2494 -0.1027
30495W        W73589  25.765   1.436   5.503 -0.1106  0.1398 -0.2877
30496W        W73590  27.844   1.952   3.979  0.6375  0.3644  0.2290
30497W        W73591  27.400   0.342   6.460  0.1415  0.0448 -0.0701
30498W        W73592  28.128   2.618   3.780 -0.4487 -0.2742  0.3128
30499W        W73593  28.679   2.474   7.470 -0.3175  0.2156 -0.0306
30500W        W73594  25.518   1.775   4.465  0.2262  0.0074 -0.2446
30501W        W73595  29.837   2.997   4.378  0.1292 -0.2014 -0.1023
30502W        W73596  28.676   3.485   5.971 -0.1168  0.0310 -0.1421
30503W        W73597  28.408   4.537   7.106 -0.1876 -0.1002  0.0824
30504W        W73598  28.369   4.208   6.256  0.3038 -0.0038 -0.2295
30505W        W73599  28.687   1.923   6.131  0.0604  0.2017  0.0358
30506W        W73600  26.058   0.581   5.941  0.2497 -0.0384 -0.2064
30507W        W73601  26.973   2.488   4.752 -0.1344  0.1818  0.0458
30508W        W73602  26.946   2.180   5.235 -0.3085  0.1114  0.2770
30509W        W73603  29.150   2.099   5.741  0.0834  0.0934 -0.1498
30510W        W73604  27.587   0.900   5.756 -0.1198  0.0347 -0.0100
30511W        W73605  26.780  34.364   3.123 -0.1671 -0.0420 -0.4023
30512W        W73606  27.419   4.107   6.294  0.1774 -0.0062  0.0008
30513W        W73607  28.486   2.612   7.017  0.0140  0.0026 -0.1422
30514W        W73608  25.579   2.470   9.207  0.3357  0.1649 -0.0666
30515W        W73609  26.477   1.842   7.833  0.1333  0.2823 -0.1975
30516W        W73610  28.224   1.028   5.578 -0.2115 -0.0801 -0.1733
30517W        W73611  29.312   1.903   8.817 -0.2320  0.1148  0.1648
30518W        W73612  25.710   0.803   9.292  0.0110 -0.4486  0.1776
30519W        W73613  28.882   3.023   8.157 -0.0699  0.1208  0.0694
30520W        W73614  28.119   2.552   9.512 -0.0576 -0.0794 -0.1481
30521W        W73615  30.692   4.756   9.834 -0.4029 -0.0584  0.0494
30522W        W73616  28.477   0.489   7.508 -0.1359  0.1064  0.0822
30523W        W73617  25.341   0.566   9.594 -0.1092 -0.1677  0.1861
30524W        W73618  26.471   0.168   7.896  0.1029  0.1971 -0.0779
30525W        W73619  25.871   1.656   9.056 -0.2619  0.0120 -0.1750
30526W        W73620  28.501   2.274   9.364 -0.3727 -0.2799 -0.1782
30527W        W73621  26.580   2.407   6.937  0.0869  0.1903  0.1710
30528W        W73622  26.883   1.718   9.673  0.0623 -0.1122 -0.2650
30529W        W73623  26.144   3.371   7.913  0.1748 -0.2360 -0.0469
30530W        W73624  26.801   2.562   8.131 -0.0562 -0.2026 -0.1668
30531W        W73625  27.174  32.398   9.617 -0.4421  0.1036  0.0828
30532W        W73626  27.326   3.116   7.354  0.0040 -0.0197 -0.1692
30533W        W73627  26.214   0.155   7.102  0.2296 -0.1158 -0.0437
30534W        W73628  22.384   2.708   9.468 -0.0648  0.1510  0.0594
30535W        W73629  26.737   1.265   9.425  0.1511  0.1987 -0.1836
30536W        W73630  27.351   1.503  10.242 -0.3293  0.2987 -0.0721
30537W        W73631  28.094   0.728   8.209 -0.0455 -0.1512  0.1426
30538W        W73632  27.679   3.712   9.698  0.2691  0.3648  0.0676
30539W        W73633  27.423   1.978   9.255  0.2539  0.0467  0.1367
30540W        W73634  25.705   3.127   8.180 -0.1309  0.0144 -0.0715
30541W        W73635  24.361   4.028   8.490 -0.1881 -0.1302  0.2125
30542W        W73636  26.607   3.316   8.235 -0.1978  0.4229 -0.1939
30543W        W73637  28.558   3.086   8.793  0.3455 -0.0498 -0.2037
30544W        W73638  25.379   2.707   8.047 -0.2163  0.1735  0.2205
30545W        W73639  25.322  33.080   9.387  0.1681  0.1349 -0.2485
30546W        W73640  29.661   2.094   9.158 -0.1394  0.0439 -0.0718
30547W        W73641  26.364   2.860   8.039 -0.0080 -0.2424  0.1784
30548W        W73642  26.272   1.904   8.901  0.0891 -0.2284  0.1446
30549W        W73643  24.957   2.387   8.182 -0.2969 -0.1771  0.0258
30550W        W73644  26.620   3.618   7.851 -0.1218  0.1601 -0.0878
30551W        W73645  28.892   0.864   7.182 -0.1214 -0.4335  0.1329
30552W        W73646  26.789   0.189   7.078  0.2960  0.0628  0.0443
30553W        W73647  28.823   0.943   7.679  0.1509 -0.1752 -0.0043
30554W        W73648  26.877   0.716   9.210 -0.1983 -0.0000  0.3174
30555W        W73649  25.410   2.918   9.191 -0.1359  0.0783  0.3830
30556W        W73650  26.339   0.126   8.762 -0.0333  0.2771 -0.0437
30557W        W73651  26.476   1.361   7.679  0.0954  0.1853 -0.1061
30558W        W73652  27.485  33.850  10.286 -0.0310 -0.0688 -0.4055
30559W        W73653  25.092   2.400   8.752 -0.2182 -0.2953  0.2991
30560W        W73654  24.698   1.253   8.677  0.1612 -0.0667 -0.0189
30561W        W73655  27.981   3.393   6.798  0.3127 -0.1801 -0.0415
30562W        W73656  28.191   3.538   9.393 -0.0746  0.0388  0.1159
30563W        W73657  27.390   3.589   6.326 -0.1089 -0.0885  0.1978
30564W        W73658  25.662   1.769   9.492 -0.0067  0.0403 -0.0516
30565W        W73659  28.603   1.439   7.232  0.1697  0.2947 -0.0841
30566W        W73660  29.046  34.511   7.865  0.2566 -0.0982 -0.1611
30567W        W73661  27.267   1.417   9.418 -0.0902 -0.2254  0.1789
30568W        W73662  27.793   2.813   9.810  0.1192 -0.0099 -0.1419
30569W        W73663  29.568   2.523   8.399 -0.0164  0.2995  0.0891
30570W        W73664  27.896   0.380   8.853 -0.1161 -0.2521  0.0299
30571W        W73665  27.929   0.008  10.238  0.0842  0.0971 -0.0139
30572W        W73666  26.241   2.196   6.703  0.3396  0.0415  0.2545
30573W        W73667  27.225   2.351   7.961 -0.0235  0.0608  0.4157
30574W        W73668  27.457   2.410   9.479  0.3440 -0.2518 -0.1121
30575W        W73669  28.390   2.342   8.242 -0.3061  0.0168 -0.1132
30576W        W73670  24.240   4.821   9.563  0.1534 -0.1498 -0.1255
30577W        W73671  25.759   3.304   6.824 -0.0798 -0.1840  0.1630
30578W        W73672  25.783   2.042   8.202 -0.2311 -0.1102  0.1307
30579W        W73673  27.221   1.772   7.242 -0.1901 -0.2222 -0.2866
30580W        W73674  25.166   1.309   9.656  0.1447 -0.1199  0.1318
30581W        W73675  28.880   4.186  10.041 -0.0690  0.0881 -0.3630
30582W        W73676  29.349   2.105   8.026 -0.1417 -0.0738 -0.0057
30583W        W73677  28.039   0.051   9.216 -0.3059 -0.1543 -0.1189
30584W        W73678  25.850   2.830   7.802 -0.0772  0.1443 -0.0242
30585W        W73679  28.817   3.973   7.647  0.2519  0.0104  0.0030
30586W        W73680  29.030   1.340   9.065 -0.1252 -0.3842 -0.2955
30587W        W73681  27.798   3.266   7.291  0.3383 -0.0031 -0.0394
30588W        W73682  23.739   3.245   9.088  0.1456  0.0268 -0.1493
30589W        W73683  26.310   1.347   9.718  0.4204 -0.1824 -0.3488
30590W        W73684  28.027   3.594  10.167 -0.3616  0.0129  0.0029
30591W        W73685  26.844  33.569   6.730 -0.1267 -0.2172  0.1648
30592W        W73686  28.445   0.777   9.894 -0.2175  0.0068 -0.1609
30593W        W73687  27.820   1.815   9.006 -0.4185  0.0279  0.2605
30594W        W73688  26.203   2.581   8.886  0.1332 -0.3423 -0.1320
30595W        W73689  27.224   2.275   7.494 -0.2279 -0.1357  0.1249
30596W        W73690  29.868   3.775  10.137 -0.0897 -0.1961  0.2047
30597W        W73691  27.494   2.589   8.492 -0.1466 -0.1964  0.0157
30598W        W73692  27.014  34.425   8.984 -0.0732  0.1031 -0.0553
30599W        W73693  26.634   1.033   8.339 -0.0370  0.1734 -0.0681
30600W        W73694  27.144   3.870   8.717 -0.0886 -0.1295  0.2173
30601W        W73695  27.071   3.404   8.660  0.0335 -0.0194  0.0682
30602W        W73696  26.432   1.468   8.601 -0.0425 -0.0981  0.1253
30603W        W73697  29.544   3.425   9.985  0.2771  0.1587  0.0366
30604W        W73698  27.093   1.352   7.440 -0.2775 -0.1869 -0.2117
30605W        W73699  27.927   1.666   9.914 -0.2776  0.1577 -0.0035
30606W        W73700  28.439   1.556  10.060 -0.0766 -0.1210  0.0403
30607W        W73701  25.715   1.462   6.581  0.0232 -0.0485  0.2766
30608W        W73702  27.991   2.682   8.291 -0.1626  0.1731 -0.0030
30609W        W73703  25.886   3.256   7.488  0.1430 -0.0908  0.0104
30610W        W73704  26.802   2.046   8.158 -0.0089  0.3859 -0.3538
30611W        W73705  26.744   2.667   8.934  0.1568  0.1218 -0.0937
30612W        W73706  26.897   0.364   9.671 -0.2427 -0.1114  0.0199
30613W        W73707  26.110   1.589   7.300 -0.0071  0.1038 -0.0940
30614W        W73708  28.333  34.309   8.917 -0.0048 -0.0783 -0.0922
30615W        W73709  28.366   0.652   8.571  0.1163 -0.0130  0.3142
30616W        W73710  29.184   3.132   7.773 -0.0987  0.3148 -0.2740
30617W        W73711  28.030   1.247   7.119 -0.1912 -0.1018 -0.2554
30618W        W73712  27.333   0.813   7.571 -0.2118  0.0672  0.0347
30619W        W73713  28.157   1.297   8.179 -0.0079 -0.1158 -0.0132
30620W        W73714  27.712   2.646  10.336  0.1303  0.2730 -0.0513
30621W        W73715  28.622   1.506   7.695  0.3020 -0.0327  0.3559
30622W        W73716  28.801   3.484   7.743 -0.0311 -0.1310  0.0385
30623W        W73717  23.351   3.747   9.526  0.0971  0.1835 -0.0055
30624W        W73718  28.703   3.574   8.213 -0.1125 -0.2177 -0.2968
30625W        W73719  28.649  28.399  10.116 -0.1254 -0.1422  0.0652
30626W        W73720  27.177   1.510   6.809  0.1278 -0.0880 -0.1228
30627W        W73721  28.835   1.169  10.004  0.0495  0.4443 -0.0483
30628W        W73722  25.484   4.067   5.815 -0.1473  0.0338 -0.1233
30629W        W73723  28.807   0.573   9.486 -0.3135  0.2419  0.0396
30630W        W73724  26.126  34.354   9.947 -0.1867  0.2035 -0.2633
30631W        W73725  29.362   1.860   7.468 -0.2267  0.0521  0.2713
30632W        W73726  27.018   2.178   9.460  0.0005  0.3509 -0.3033
30633W        W73727  26.167   0.861   7.471 -0.1381 -0.0589 -0.2323
30634W        W73728  26.589   1.375  10.669  0.1404  0.0376 -0.1288
30635W        W73729  25.804   2.477  10.017  0.0657 -0.3661 -0.0582
30636W        W73730  28.096   1.776   8.389 -0.0625  0.0112 -0.0977
30637W        W73731  27.117   0.236   8.279 -0.0470  0.0506 -0.1433
30638W        W73732  27.081   2.880   8.613 -0.1701 -0.0250 -0.1034
30639W        W73733  27.085   1.798   7.742 -0.0324  0.0118 -0.0671
30640W        W73734  26.922  34.167   9.789  0.2186  0.1654  0.2676
30641W        W73735  29.073   3.325  10.506  0.1872  0.0074 -0.1306
30642W        W73736  26.652   3.917   6.869  0.3111  0.0397 -0.1310
30643W        W73737  28.781   0.413  10.176  0.4329 -0.1241 -0.0063
30644W        W73738  25.649   2.944   9.636  0.1613  0.0358 -0.4980
30645W        W73739  26.802  34.098   9.294 -0.0973 -0.0696 -0.0069
30646W        W73740  26.335   3.399   9.381  0.0925 -0.3231 -0.2514
30647W        W73741  27.488   0.502   7.194 -0.0665 -0.1137  0.0092
30648W        W73742  25.388   2.754   6.993  0.0572 -0.0905 -0.1159
30649W        W73743  28.549   1.481   8.503 -0.2583 -0.0103 -0.5682
30650W        W73744  28.745   1.141   8.173  0.0403  0.1140  0.1251
30651W        W73745  26.073   0.851   9.739  0.2525  0.0258  0.0427
30652W        W73746  29.412   0.325  10.569  0.2269  0.2367  0.2496
30653W        W73747  26.974   4.022   9.256  0.1268  0.0495 -0.1091
30654W        W73748  27.936   0.247   8.281 -0.1503 -0.1961  0.0367
30655W        W73749  26.319   1.922   8.364 -0.1206  0.0715  0.2300
30656W        W73750  26.760  34.617   9.466  0.1919  0.1938 -0.1325
30657W        W73751  25.750   0.579   7.477 -0.0111  0.1119 -0.1505
30658W        W73752  26.267   2.325   7.941 -0.0925  0.1967 -0.0002
30659W        W73753  26.917   5.424   9.476  0.0392  0.0658  0.0358
30660W        W73754  25.537   1.391   8.735 -0.0597  0.0156  0.0811
30661W        W73755  26.136   2.873   9.868  0.1655 -0.0139 -0.2213
30662W        W73756  28.573   2.847   9.694  0.0072  0.0508 -0.1890
30663W        W73757  25.996   1.797   7.761 -0.3318 -0.0511 -0.2013
30664W        W73758  26.672   0.713   8.743  0.1323 -0.1245  0.5292
30665W        W73759  27.288   1.609   8.939  0.1828 -0.2080  0.1285
30666W        W73760  28.448   2.870   8.294 -0.2412 -0.2903 -0.2654
30667W        W73761  27.257   1.047   9.046 -0.3201 -0.0276 -0.1092
30668W        W73762  25.994   1.089  10.170 -0.0345 -0.1097  0.0515
30669W        W73763  29.905   3.675   7.720  0.0914 -0.2167  0.3384
30670W        W73764  26.663   2.418   7.602  0.0685  0.1570 -0.0110
30671W        W73765  25.036   2.288   9.795  0.0503 -0.0442 -0.0099
30672W        W73766  27.127   2.293   8.417 -0.0111 -0.2402  0.0177
30673W        W73767  26.527   2.043   9.845 -0.3235 -0.2435 -0.0438
30674W        W73768  24.618   1.197   9.534  0.0232  0.0918  0.1038
30675W        W73769  26.272   3.658   8.258 -0.0488  0.3169  0.0756
30676W        W73770  25.475   2.077   8.923  0.0237  0.1656  0.1041
30677W        W73771  29.357   1.056   7.579 -0.0074 -0.2237 -0.3650
30678W        W73772  29.341   2.493   8.895 -0.2950 -0.2309 -0.4007
30679W        W73773  26.735   0.572   8.214  0.2106 -0.0230 -0.3060
30680W        W73774  29.159   0.762   8.016  0.3367 -0.1495  0.1468
30681W        W73775  26.519  34.592   8.341 -0.1086  0.3098 -0.2190
30682W        W73776  28.068   2.818   8.803  0.0183  0.1268  0.0529
30683W        W73777  27.057   0.511   7.780  0.0652  0.1955  0.0760
30684W        W73778  27.128   0.875   8.167  0.1018 -0.0242  0.0511
30685W        W73779  25.971   1.967   9.935  0.0773  0.2740  0.0087
30686W        W73780  28.190   3.026   9.419  0.0657 -0.5894 -0.2740
30687W        W73781  27.592   1.475   7.473  0.1197 -0.1988 -0.1655
30688W        W73782  27.792   0.872   8.755 -0.3431 -0.6864 -0.2778
30689W        W73783  25.720   3.419   9.469  0.0923 -0.2928  0.1010
30690W        W73784  27.722   1.614   7.993  0.0801 -0.0830 -0.0012
30691W        W73785  27.071   2.724   7.699  0.2408 -0.0478 -0.3402
30692W        W73786  25.913   2.924   9.107  0.1869 -0.3554 -0.0406
30693W        W73787  29.438   1.017   8.406  0.0638 -0.0415  0.0312
30694W        W73788  28.718   1.363  10.493  0.1840 -0.0682  0.0257
30695W        W73789  28.258   4.134   9.930 -0.0593 -0.0413 -0.2291
30696W        W73790  29.137   2.292   7.647 -0.0724  0.1671 -0.0104
30697W        W73791  28.792   1.946   9.590  0.0618 -0.0066 -0.2777
30698W        W73792  29.051   1.422   7.378  0.0383  0.0578  0.2669
30699W        W73793  25.390   1.276   9.162 -0.2400 -0.0291  0.0116
30700W        W73794  26.996   1.049   6.996 -0.2600  0.3729 -0.3960
30701W        W73795  28.222   2.616   7.817 -0.0949 -0.0066  0.0290
30702W        W73796  27.721   2.797   9.236  0.0501 -0.0365 -0.0205
30703W        W73797  28.901   0.684   8.547 -0.1603 -0.2304  0.3095
30704W        W73798  24.614   2.264  10.235  0.1844  0.0131 -0.3608
30705W        W73799  28.056   0.452   7.268  0.0149  0.0422 -0.1099
30706W        W73800  27.661   1.650   6.962 -0.0838  0.2016  0.2655
30707W        W73801  28.683   1.454   9.448 -0.3196 -0.1411 -0.1150
30708W        W73802  27.563   0.515   8.472 -0.1822 -0.1970  0.3668
30709W        W73803  27.121   3.547   7.660 -0.1041  0.0595 -0.2158
30710W        W73804  28.292   0.568   9.285 -0.2318 -0.1629 -0.0570
30711W        W73805  27.308   3.111   9.115  0.0177 -0.4342  0.3903
30712W        W73806  27.290   2.597   9.010 -0.1432 -0.0266 -0.0855
30713W        W73807  27.456   0.597   8.995  0.0696  0.0480 -0.4224
30714W        W73808  29.044   2.844   9.902  0.0656 -0.0956  0.1337
30715W        W73809  27.124   2.308   9.949  0.0779 -0.0924  0.1639
30716W        W73810  24.081   2.767   8.714  0.3172 -0.2435 -0.0813
30717W        W73811  28.291   1.855   9.537  0.0357  0.1127 -0.1135
30718W        W73812  25.274   2.180  10.309 -0.2762  0.0329  0.0730
30719W        W73813  28.142   0.959   9.073  0.1232  0.2134 -0.0179
30720W        W73814  26.841   0.207   8.706  0.0917 -0.1630  0.0635
30721W        W73815  27.583   1.982   7.677 -0.4644  0.0354 -0.3401
30722W        W73816  27.284   1.295   7.980 -0.3611 -0.1348 -0.2729
30723W        W73817  26.622   3.090   7.677 -0.3550 -0.1107  0.2515
30724W        W73818  28.061   2.034   7.957  0.1036  0.1144  0.2736
30725W        W73819  29.715   2.026   8.506  0.0670  0.2943 -0.0164
30726W        W73820  26.373   2.884   9.432 -0.3032  0.2500 -0.1217
30727W        W73821  26.669   1.500   7.202  0.0096 -0.1281 -0.0348
30728W        W73822  24.498   3.030   8.765  0.0157 -0.2472  0.3563
30729W        W73823  25.567   3.630   7.555 -0.2152 -0.2081 -0.3065
30730W        W73824  27.694   2.459   7.830 -0.0143 -0.5092 -0.1495
30731W        W73825  26.212   3.811   8.743  0.1687  0.1266 -0.1932
30732W        W73826  29.180   0.206   6.897  0.2729  0.0797 -0.0854
30733W        W73827  28.550   0.980   9.304 -0.0373 -0.3825  0.0398
30734W        W73828  29.173   0.897   8.897 -0.0422  0.2730 -0.0650
30735W        W73829  29.055   1.299   8.578  0.1481 -0.2214  0.0042
30736W        W73830  26.678   1.013   7.392 -0.1305 -0.0272 -0.1411
30737W        W73831  27.400   2.862   8.035 -0.0627  0.0463 -0.2387
30738W        W73832  25.119   1.052   8.848  0.1664  0.0568  0.2255
30739W        W73833  27.232   1.682   8.256 -0.3615 -0.0479 -0.1023
30740W        W73834  27.301   0.628   9.519  0.0040 -0.0066 -0.2623
30741W        W73835  26.945   2.540   6.585  0.4048 -0.1811 -0.0596
30742W        W73836  26.886   1.034   7.816  0.0335 -0.1870 -0.0935
30743W        W73837  26.981   3.156   7.995  0.2971 -0.1786  0.3467
30744W        W73838  27.082   3.078  10.007 -0.2779  0.0044 -0.0068
30745W        W73839  26.002   3.501   9.019  0.0301 -0.2349  0.2133
30746W        W73840  25.230   0.620   7.980  0.4030  0.1272  0.0064
30747W        W73841  29.832   1.327   9.771  0.1608  0.2340  0.0108
30748W        W73842  23.626   2.695   9.835  0.0502 -0.0401 -0.1886
30749W        W73843  27.395   1.817   9.713  0.0595  0.2652 -0.1709
30750W        W73844  28.511   0.110   9.221 -0.2174 -0.0665  0.0560
30751W        W73845  26.795   1.494   8.102 -0.1013  0.0820  0.0055
30752W        W73846  26.584   2.447   9.566  0.3336  0.0376  0.0392
30753W        W73847  27.770   1.597   9.462 -0.0627 -0.2499  0.0142
30754W        W73848  29.036   1.761   8.349  0.1089 -0.1890 -0.3978
30755W        W73849  26.908  34.474   8.031 -0.3050  0.0480 -0.0600
30756W        W73850  27.640   1.153   8.345 -0.1920  0.2083 -0.0620
30757W        W73851  25.126   1.803   9.376 -0.2920  0.1569 -0.1829
30758W        W73852  28.033   1.028  10.158  0.2781  0.0333  0.0010
30759W        W73853  26.880   1.777   8.581  0.2465  0.1396 -0.0851
30760W        W73854  29.637   2.254   7.622 -0.0711  0.3889  0.1792
30761W        W73855  28.402   0.297   9.734 -0.1117 -0.0872 -0.2099
30762W        W73856  27.100   3.654   5.895 -0.0786  0.0896 -0.0716
30763W        W73857  30.058   1.664   8.105  0.1303 -0.0976 -0.0701
30764W        W73858  27.057   4.971   9.824  0.1705  0.0197 -0.0970
30765W        W73859  25.416   1.852   9.905  0.1856 -0.0546 -0.1916
30766W        W73860  28.429   2.497   8.735  0.2624 -0.1878  0.0626
30767W        W73861  28.250   3.056  10.312  0.1147 -0.1046 -0.0061
30768W        W73862  28.820   0.260   7.888 -0.1697  0.0122 -0.1305
30769W        W73863  25.793   2.317   7.680 -0.2482  0.0110  0.1280
30770W        W73864  26.561   2.238   9.131  0.0256 -0.0853 -0.1140
30771W        W73865  27.646   1.008   9.407  0.2737 -0.2163  0.0280
30772W        W73866  27.503   3.309   7.842 -0.1095  0.1956  0.1273
30773W        W73867  26.586   2.375   8.585 -0.2822  0.1594  0.0238
30774W        W73868  25.299   1.633   6.914  0.1396 -0.1733 -0.1337
30775W        W73869  27.611   2.115   8.211 -0.1161  0.0255 -0.1671
30776W        W73870  27.181   2.942   6.881 -0.0805  0.2230  0.0072
30777W        W73871  28.837   4.109   8.534  0.0519  0.2876  0.1628
30778W        W73872  27.124   0.700   8.650  0.1340 -0.3287  0.0191
30779W        W73873  28.505   2.721   9.193  0.0666  0.0653 -0.3199
30780W        W73874  27.069   1.078   9.748 -0.1662  0.0758  0.0931
30781W        W73875  28.555  34.505   8.038 -0.2836 -0.1262  0.1467
30782W        W73876  27.736  34.107   8.499 -0.1840 -0.0029 -0.1008
30783W        W73877  27.103   0.259   9.151  0.1887  0.2950  0.1052
30784W        W73878  25.839   2.785   7.197 -0.1177  0.1006 -0.1130
30785W        W73879  26.738   3.125   7.153 -0.0504 -0.0968  0.0526
30786W        W73880  25.983   2.155   9.197 -0.0000  0.0021  0.1092
30787W        W73881  25.939   1.660   8.550 -0.1047  0.0552  0.0368
30788W        W73882  25.290  34.648   6.492 -0.0201 -0.0267 -0.0130
30789W        W73883  28.998   3.362   8.989  0.1870  0.2147  0.0015
30790W        W73884  26.425   0.934   9.128  0.0972 -0.1568 -0.1097
30791W        W73885  25.480   0.234   8.651 -0.2762  0.1198 -0.2155
30792W        W73886  27.894   2.106   9.430  0.1482  0.0558 -0.0699
30793W        W73887  28.678   3.574   8.712 -0.1519 -0.0645 -0.2169
30794W        W73888  26.778   1.186   8.900 -0.0078 -0.1435 -0.0674
30795W        W73889  25.732   2.442   6.762  0.2431  0.1121 -0.0098
30796W        W73890  25.846   2.255   7.176  0.0740  0.3380 -0.2907
30797W        W73891  27.692   1.302   8.994  0.0204  0.1326 -0.0605
30798W        W73892  27.603   3.099   8.693 -0.0710 -0.1163 -0.0130
30799W        W73893  27.771   3.154   8.234  0.0283  0.1075 -0.1463
30800W        W73894  24.408   0.965  10.033 -0.0366  0.0969 -0.2002
30801W        W73895  27.657   1.590   8.567  0.4931 -0.1358  0.1490
30802W        W73896  28.806   2.643   8.480 -0.0564  0.3368  0.3964
30803W        W73897  28.990   1.004   9.496 -0.0231 -0.1780  0.2027
30804W        W73898  27.906   2.232   8.602 -0.0591 -0.0218 -0.3141
30805W        W73899  28.068   2.382   9.076 -0.0878  0.3806  0.2898
30806W        W73900  27.795   0.665   9.829  0.0842  0.2539 -0.1072
30807W        W73901  27.776   0.454   9.377  0.0997  0.0841 -0.1787
30808W        W73902  28.685   2.692   7.875  0.1028  0.1586 -0.2510
30809W        W73903  26.089   2.437   9.572 -0.2046  0.4007 -0.0792
30810W        W73904  28.098   1.316   8.702  0.0388  0.2669 -0.1943
30811W        W73905  27.425   2.038   8.757  0.2300  0.0008  0.0509
30812W        W73906  28.132   1.419   7.677  0.1637 -0.2355 -0.1204
30813W        W73907  29.976   2.012  10.447 -0.0098  0.2104  0.0411
30814W        W73908  27.356   2.984   9.586  0.0462  0.1148 -0.1639
30815W        W73909  27.753   3.308   9.338 -0.1580  0.2948 -0.4983
30816W        W73910  31.115   1.608  10.190  0.4843 -0.2287  0.1115
30817W        W73911  25.602  33.543   9.310 -0.1584 -0.3463  0.0234
30818W        W73912  26.814   1.761   9.099  0.0880 -0.2255  0.1540
30819W        W73913  26.748   2.048   7.349 -0.2949  0.5416  0.1718
30820W        W73914  26.175   1.752   9.458 -0.0088 -0.1372  0.2582
30821W        W73915  27.124   1.258   8.539  0.0169 -0.0471 -0.1300
30822W        W73916  27.859  34.162   7.294  0.0147 -0.4961  0.2283
30823W        W73917  26.410   3.100   8.882 -0.1392  0.1911  0.0737
30824W        W73918  26.993   2.691   9.376  0.3764 -0.1839  0.1101
30825W        W73919  26.027   7.086   1.823 -0.0400 -0.0490 -0.0744
30826W        W73920  27.159   4.082  31.251 -0.0989 -0.2471 -0.0274
30827W        W73921  28.390   6.036  31.327  0.1073 -0.3760 -0.0097
30828W        W73922  28.953   5.946   1.596  0.3396  0.1666  0.1072
30829W        W73923  26.625   5.024   0.606  0.3536  0.0920 -0.1358
30830W        W73924  27.428   6.509   0.687  0.1914 -0.0664  0.1566
30831W        W73925  25.618   4.165   1.890 -0.0533  0.2823 -0.2965
30832W        W73926  28.114   7.181   0.887  0.1246 -0.0351  0.3649
30833W        W73927  29.632   7.248   2.053  0.1227  0.1975 -0.2303
30834W        W73928  26.075   6.397   0.695 -0.0792 -0.1867  0.2633
30835W        W73929  26.994   4.437   1.429 -0.3445  0.0610 -0.1199
30836W        W73930  27.277   7.212   1.592  0.0203 -0.0368  0.0923
30837W        W73931  28.474   4.003  31.861 -0.1032  0.1286 -0.2083
30838W        W73932  25.052   4.107   2.516  0.2372  0.0774  0.1494
30839W        W73933  27.478   6.108   2.077 -0.0671 -0.2421 -0.0094
30840W        W73934  25.696   5.363   0.524 -0.1867 -0.0877 -0.1722
30841W        W73935  26.668   4.322   2.113  0.0047 -0.1199  0.1181
30842W        W73936  27.467   4.696   1.376  0.0901 -0.2214  0.2192
30843W        W73937  27.446   6.601   0.190 -0.0253  0.0505 -0.0894
30844W        W73938  27.802   3.212   2.490 -0.0604  0.0321 -0.1809
30845W        W73939  27.580   4.645   4.579  0.2758  0.1182 -0.1107
30846W        W73940  26.809   6.463   1.325 -0.0669 -0.0207  0.0227
30847W        W73941  25.623   5.471  30.330 -0.2770 -0.2058  0.1112
30848W        W73942  26.129   5.240   2.624  0.2233 -0.3680  0.0323
30849W        W73943  25.135   6.215   2.628  0.3617 -0.0616  0.0909
30850W        W73944  27.403   7.308   2.951 -0.0217 -0.4172  0.2158
30851W        W73945  28.336   6.251   1.885 -0.0738  0.0485  0.0457
30852W        W73946  26.848   6.956   1.256 -0.0911 -0.0279  0.1208
30853W        W73947  26.227   7.940   1.882  0.1013  0.2857 -0.0803
30854W        W73948  27.536   5.121   2.206  0.3019  0.0488 -0.0855
30855W        W73949  24.418   6.430   0.097  0.3822  0.0576  0.0718
30856W        W73950  25.050   8.960   1.088  0.0893 -0.0766  0.1343
30857W        W73951  26.606   6.082   0.504  0.0184 -0.0302  0.1173
30858W        W73952  28.176   6.621   1.399 -0.0644 -0.1047 -0.3582
30859W        W73953  28.093   7.594   2.051  0.0311  0.3400  0.1114
30860W        W73954  26.230   6.878   3.483 -0.0166 -0.1765 -0.0530
30861W        W73955  26.056   6.919   0.519  0.0149 -0.3615 -0.2136
30862W        W73956  27.663   8.350   3.294 -0.2514 -0.0371  0.2710
30863W        W73957  25.981   5.672   3.604 -0.1249  0.0467  0.1018
30864W        W73958  27.372   5.378   2.907 -0.0574 -0.1054 -0.0972
30865W        W73959  26.221   5.313   0.298  0.2104 -0.0760 -0.0785
30866W        W73960  27.718   8.740  31.229 -0.2007  0.0837  0.0137
30867W        W73961  26.451   5.676   1.234  0.0970 -0.0557  0.0433
30868W        W73962  26.630   6.521   3.580  0.0370  0.1916 -0.0831
30869W        W73963  26.544   6.782   2.183  0.2085  0.0118 -0.0017
30870W        W73964  28.891   4.650   3.505  0.0486 -0.0132  0.0495
30871W        W73965  26.664   7.704   0.396 -0.1880 -0.0806 -0.0868
30872W        W73966  27.557   5.567   2.079  0.1249 -0.0014  0.0187
30873W        W73967  28.741   5.128   0.028  0.3021 -0.2166  0.1177
30874W        W73968  27.739   3.969  30.760 -0.1388 -0.0421 -0.0098
30875W        W73969  27.975   4.724   2.333  0.1879  0.1943 -0.2113
30876W        W73970  25.587   5.730   1.749  0.1707  0.0187 -0.2431
30877W        W73971  26.423   3.495   0.500  0.0859  0.0451  0.0690
30878W        W73972  28.471   7.010   2.283 -0.3656  0.0681 -0.0140
30879W        W73973  27.813   3.948   1.476 -0.3749 -0.1241  0.0995
30880W        W73974  26.458   4.832   3.139  0.2033  0.0804  0.0750
30881W        W73975  24.985   7.060   3.029 -0.2242 -0.0994 -0.0344
30882W        W73976  26.779   4.750   0.171  0.3729  0.2777 -0.1382
30883W        W73977  27.635   6.317  31.760 -0.0518 -0.0347 -0.1041
30884W        W73978  28.925   6.767   1.393  0.1279 -0.2152 -0.0329
30885W        W73979  29.214   5.588  30.988 -0.0832 -0.0770  0.0110
30886W        W73980  26.519   4.753  31.705 -0.0066 -0.1192 -0.2629
30887W        W73981  25.031   5.880   3.950 -0.1431  0.2838  0.1250
30888W        W73982  24.684   3.825   2.639  0.0352 -0.0278 -0.2013
30889W        W73983  27.477   1.992  31.584 -0.0212 -0.2144  0.0240
30890W        W73984  29.900   6.621   2.865 -0.0451  0.2254 -0.1323
30891W        W73985  24.379   8.022   3.342 -0.0002 -0.0608 -0.1205
30892W        W73986  28.766   5.412   1.549  0.4738 -0.1094  0.1127
30893W        W73987  25.474   5.388   2.260 -0.1969 -0.0907 -0.1979
30894W        W73988  27.243   5.859   3.072  0.2324  0.0725 -0.0154
30895W        W73989  29.065   6.964   0.202 -0.0402 -0.4285  0.3717
30896W        W73990  28.418   4.319   2.697 -0.0408  0.2407 -0.1714
30897W        W73991  28.155   5.170   2.363 -0.1606  0.2013  0.2002
30898W        W73992  28.023   5.811  31.560 -0.0079 -0.0711 -0.0726
30899W        W73993  26.066   5.764   0.448  0.1433 -0.1716 -0.1112
30900W        W73994  27.608   6.321   2.601 -0.0757  0.1203  0.0430
30901W        W73995  27.387   5.482  31.842 -0.3184  0.2696 -0.1026
30902W        W73996  25.189   8.479   2.725 -0.2489  0.2278 -0.3202
30903W        W73997  25.137   4.570   3.898 -0.2116 -0.3826  0.0611
30904W        W73998  26.888   7.101   2.480 -0.0209  0.0856  0.0739
30905W        W73999  26.712   5.735  30.686 -0.0058 -0.2011 -0.2469
30906W        W74000  24.593   5.449   1.961  0.2320  0.0671  0.0341
30907W        W74001  26.256   5.477  31.660  0.2536 -0.2418  0.1265
30908W        W74002  25.117   3.916   2.043 -0.3047  0.2812 -0.2983
30909W        W74003  26.669   7.625   1.918  0.2540  0.0874  0.0139
30910W        W74004  27.014   5.340   2.187 -0.0543 -0.1676  0.0233
30911W        W74005  24.827   5.404   1.484  0.0343  0.4420  0.1914
30912W        W74006  29.057   4.411   0.579  0.0305 -0.2199 -0.2555
30913W        W74007  25.582   6.927   2.078  0.2056  0.0403 -0.1778
30914W        W74008  30.231   8.474   1.137  0.0641  0.0161 -0.0654
30915W        W74009  29.397   4.264  31.841 -0.2112 -0.0391 -0.0066
30916W        W74010  28.764   6.293  31.618  0.0007 -0.0294 -0.2243
30917W        W74011  25.278   5.229   1.812 -0.3883 -0.0734  0.1518
30918W        W74012  25.800   5.249   1.827 -0.3757  0.2231  0.2319
30919W        W74013  26.293   3.737   2.640 -0.0213  0.1530 -0.0100
30920W        W74014  24.914   4.384   1.207 -0.1391 -0.5488 -0.0636
30921W        W74015  28.822   6.208   3.154 -0.0217  0.1438  0.1320
30922W        W74016  26.230   4.078  31.294  0.0926 -0.0669 -0.0158
30923W        W74017  27.334   5.477   0.414 -0.0839  0.2022  0.2778
30924W        W74018  27.083   5.166   0.101 -0.0407 -0.2088  0.2869
30925W        W74019  25.049   7.115   0.737 -0.0425  0.1709  0.2201
30926W        W74020  28.411   5.436   3.568  0.1054  0.3252  0.1075
30927W        W74021  26.654   7.803  31.761  0.0282 -0.2928 -0.1617
30928W        W74022  29.215   6.779   1.801 -0.2328 -0.0777  0.0498
30929W        W74023  30.456   6.589   0.591 -0.1520 -0.2715 -0.0445
30930W        W74024  25.164   5.417   3.077 -0.4270 -0.4469  0.0312
30931W        W74025  26.973   4.976  30.841 -0.1348 -0.2707 -0.2946
30932W        W74026  26.354   6.184   1.358  0.3095 -0.1859 -0.1404
30933W        W74027  25.886   4.583   2.177 -0.0591 -0.1477 -0.1076
30934W        W74028  27.499   3.689   0.561 -0.0010  0.1217 -0.2817
30935W        W74029  29.300   7.256   1.638 -0.1279  0.1449  0.0358
30936W        W74030  26.076   5.444   0.856 -0.0191  0.3389 -0.1549
30937W        W74031  25.191   6.575   3.400  0.2559 -0.2225  0.0567
30938W        W74032  27.228   3.409   4.874  0.4028 -0.1995 -0.0250
30939W        W74033  28.966   4.578   2.268 -0.2134  0.2344  0.3685
30940W        W74034  27.034   5.878   2.063 -0.2482 -0.0061 -0.2282
30941W        W74035  26.463   4.955  30.487 -0.1238  0.1072 -0.1765
30942W        W74036  26.428   6.991   0.930  0.3201 -0.0199 -0.0212
30943W        W74037  24.157   7.222   0.491  0.1015  0.0503 -0.3002
30944W        W74038  25.800   6.878   1.033 -0.3151  0.0558 -0.3489
30945W        W74039  26.702   6.018   1.001 -0.1592 -0.2277 -0.0606
30946W        W74040  27.175   3.997   0.735 -0.0359 -0.2800  0.1588
30947W        W74041  25.297   6.147   3.525  0.1230  0.1646 -0.1149
30948W        W74042  27.611   4.094   3.876 -0.0043 -0.3756  0.0690
30949W        W74043  26.121   5.003  31.870 -0.1983  0.0279  0.0271
30950W        W74044  26.650   7.595   2.409  0.2790  0.2656 -0.2026
30951W        W74045  28.349   4.326   0.505 -0.0986  0.1755  0.0240
30952W        W74046  28.384   4.771  31.016 -0.1163 -0.1336 -0.1005
30953W        W74047  26.813   5.537   3.082  0.0933 -0.1232 -0.2005
30954W        W74048  28.569   6.927   1.123  0.0594 -0.2177  0.2476
30955W        W74049  27.166   3.893   0.066 -0.1622 -0.0916 -0.0732
30956W        W74050  28.769   4.672   0.168 -0.0740 -0.0472  0.1189
30957W        W74051  25.545   6.449   1.983  0.3049 -0.0069 -0.0147
30958W        W74052  27.160   6.212   1.099 -0.0499 -0.3026 -0.3590
30959W        W74053  27.219   6.660   1.537 -0.1145  0.0481 -0.1053
30960W        W74054  28.262   4.970   0.113 -0.3164 -0.3838  0.5109
30961W        W74055  28.962   7.717   1.362 -0.1396 -0.0550  0.0515
30962W        W74056  25.428   6.897   2.981  0.1535  0.1854  0.0246
30963W        W74057  27.715   7.352   3.454 -0.1399  0.2275  0.1968
30964W        W74058  27.751   5.864   1.209 -0.2708 -0.0501  0.1628
30965W        W74059  26.916   5.129   2.751 -0.2260 -0.0811  0.1053
30966W        W74060  26.668   5.443  31.366 -0.3093  0.2641 -0.0743
30967W        W74061  28.816   3.593   0.381 -0.0457 -0.1761  0.2995
30968W        W74062  26.632   6.523  31.501  0.2592  0.0281  0.3883
30969W        W74063  28.553   5.275   2.044  0.2916  0.2039 -0.0877
30970W        W74064  26.738   4.919   1.464  0.1269  0.0456  0.2799
30971W        W74065  27.906   3.502   3.252  0.0821  0.0776  0.0948
30972W        W74066  28.468   4.545   4.347 -0.0044 -0.1215 -0.0245
30973W        W74067  28.471   5.523  31.657  0.0263 -0.0716  0.0149
30974W        W74068  26.563   5.153   2.418 -0.0824 -0.1550  0.1126
30975W        W74069  27.305   5.773  30.424  0.0258 -0.1087 -0.0504
30976W        W74070  27.245   3.847   2.598  0.1500 -0.1570  0.1479
30977W        W74071  26.494   4.199   2.947 -0.2375  0.1714 -0.1460
30978W        W74072  25.974   7.062   2.350  0.2266  0.2353 -0.2920
30979W        W74073  27.009   6.936   2.902  0.2137  0.2385 -0.0592
30980W        W74074  28.346   7.323   1.307 -0.2719  0.0604 -0.1484
30981W        W74075  26.603   5.032   3.805 -0.0922 -0.1857 -0.0820
30982W        W74076  26.583   4.509   1.673  0.3028 -0.1995 -0.1219
30983W        W74077  27.144   7.688   0.708 -0.1371  0.4075 -0.2207
30984W        W74078  26.245   6.255   0.197 -0.0842 -0.0049 -0.0307
30985W        W74079  27.249   3.981   1.676 -0.0670 -0.1375  0.0631
30986W        W74080  26.719   7.442   2.903 -0.1301  0.1044 -0.2171
30987W        W74081  26.967   8.526  30.677  0.1923 -0.3236 -0.3339
30988W        W74082  27.980   6.667   3.242  0.1460  0.2802 -0.0520
30989W        W74083  26.844   6.946   0.389 -0.2540  0.0956  0.0620
30990W        W74084  28.691   5.173   2.706  0.1489 -0.1792 -0.0891
30991W        W74085  25.066   6.566   2.127 -0.0842  0.3170  0.2066
30992W        W74086  25.923   5.673   2.094  0.0653 -0.0642 -0.2516
30993W        W74087  25.187   5.498   0.345 -0.1660  0.1433 -0.1660
30994W        W74088  28.820   4.720  31.419  0.0609  0.1391 -0.1339
30995W        W74089  26.159   5.964   0.927  0.0307  0.0785 -0.3001
30996W        W74090  25.406   4.850   2.129  0.0481 -0.2257 -0.0509
30997W        W74091  28.207   5.269   3.166  0.1678 -0.2034 -0.0397
30998W        W74092  25.411   6.645   2.514  0.0053 -0.2331 -0.0806
30999W        W74093  26.439   4.739   2.159 -0.0234 -0.1669  0.0123
31000W        W74094  30.050   4.983  30.715 -0.0663  0.2739 -0.0405
31001W        W74095  28.801   6.085   2.162  0.1958  0.0194  0.2119
31002W        W74096  25.894   5.202   3.677  0.1671 -0.3436 -0.0409
31003W        W74097  26.739   4.049  30.859 -0.0277 -0.1791 -0.2075
31004W        W74098  28.885   5.210   3.598 -0.0563  0.1594 -0.2234
31005W        W74099  26.890   5.670   0.179 -0.0253 -0.1961 -0.1466
31006W        W74100  26.409   7.476   1.141  0.0756 -0.4392  0.0411
31007W        W74101  26.268   7.622   3.159 -0.2421 -0.0656  0.2941
31008W        W74102  26.846   4.985  31.287 -0.0816 -0.1592 -0.3496
31009W        W74103  26.986   5.647   2.641 -0.0365  0.0014 -0.0515
31010W        W74104  25.049   4.550   2.118  0.1922 -0.0750 -0.0706
31011W        W74105  27.834   5.661   3.084 -0.0430 -0.0442  0.0406
31012W        W74106  26.191   4.728   1.253  0.0171 -0.0119 -0.2099
31013W        W74107  27.500   4.432   0.628  0.1396  0.3263 -0.1162
31014W        W74108  27.035   4.742   1.869 -0.2201 -0.2234 -0.3039
31015W        W74109  28.706   5.616   2.362  0.0317  0.2425  0.2670
31016W        W74110  28.284   5.505   2.751  0.0055  0.2150 -0.1262
31017W        W74111  25.775   6.101   3.703  0.0782 -0.0426 -0.0220
31018W        W74112  26.663   3.517   2.343 -0.1580  0.1945 -0.0691
31019W        W74113  29.566   9.079   1.160  0.1575 -0.0581 -0.4292
31020W        W74114  27.810   5.108   2.820  0.1535  0.0843  0.0121
31021W        W74115  26.502   5.931  31.597  0.0151 -0.3036  0.1703
31022W        W74116  23.343   5.422   2.370 -0.2663  0.2637  0.1508
31023W        W74117  25.027   6.804   0.303  0.0420 -0.2439  0.1257
31024W        W74118  26.945   4.775   2.359 -0.0580 -0.0049 -0.2125
31025W        W74119  25.072   7.583   3.164  0.0812 -0.0980 -0.0689
31026W        W74120  26.862   7.039  31.551 -0.1003  0.2520  0.1693
31027W        W74121  25.113   7.196   1.878 -0.1059  0.0286  0.1677
31028W        W74122  30.340   3.059  31.091  0.3675  0.1659  0.4987
31029W        W74123  25.915   6.210   1.721  0.1450 -0.2503 -0.0374
31030W        W74124  26.973   3.589   1.434 -0.1407 -0.1992  0.2428
31031W        W74125  28.689   4.357   3.116  0.0104  0.2789  0.1063
31032W        W74126  27.509   5.870   0.609  0.0424 -0.1011 -0.2559
31033W        W74127  27.533   3.068   5.297  0.1615  0.0993 -0.1538
31034W        W74128  26.308   4.305   2.447  0.0463  0.0184  0.0854
31035W        W74129  29.106   7.580   2.093 -0.0076  0.0245  0.2081
31036W        W74130  24.230   4.490   2.449  0.0804 -0.1859  0.1938
31037W        W74131  28.132   7.750   4.462  0.1656  0.1412 -0.2062
31038W        W74132  26.496   5.692   2.715 -0.3908  0.1729  0.0242
31039W        W74133  27.474   5.045   1.712 -0.0256 -0.1365  0.0220
31040W        W74134  27.355   4.697  30.648  0.0118 -0.1721 -0.4901
31041W        W74135  26.371   5.302   3.458 -0.1358 -0.1042 -0.0384
31042W        W74136  28.526   6.658   2.984  0.0655  0.0076 -0.0483
31043W        W74137  26.622   7.187   1.612 -0.2524 -0.1951 -0.2553
31044W        W74138  28.379   5.999   2.561  0.1189 -0.2278 -0.2094
31045W        W74139  26.586   5.652   2.196  0.0416  0.0619 -0.1486
31046W        W74140  29.401   6.427   2.459  0.0608  0.0363  0.0398
31047W        W74141  28.322   5.594  31.121 -0.0741  0.0095  0.1815
31048W        W74142  25.811   4.498   0.791  0.2939 -0.1627 -0.1636
31049W        W74143  27.676   3.591   2.720 -0.1143 -0.0602 -0.0206
31050W        W74144  26.959   6.977   1.860  0.0265  0.0085  0.0513
31051W        W74145  27.905   4.435   1.416 -0.0520 -0.1267  0.3001
31052W        W74146  28.221   3.500   2.878 -0.0491 -0.0879 -0.1508
31053W        W74147  27.196   5.491   3.404  0.3505 -0.1656 -0.2520
31054W        W74148  25.160   4.644   2.765  0.0246 -0.3181  0.0191
31055W        W74149  26.040   3.330   2.493 -0.0093 -0.0584  0.2629
31056W        W74150  28.163   7.415   3.118 -0.0775  0.2241 -0.0835
31057W        W74151  28.750   4.183   0.215  0.1402 -0.3546 -0.0153
31058W        W74152  29.451   5.912   2.812  0.1465  0.1409 -0.3565
31059W        W74153  27.790   6.318   1.623  0.0743 -0.0807 -0.2717
31060W        W74154  28.113   6.630   0.140  0.0803  0.1275  0.2512
31061W        W74155  24.647   6.713   1.651 -0.0424 -0.0210 -0.1286
31062W        W74156  27.153   5.143   3.702 -0.3183  0.0191  0.0522
31063W        W74157  27.036   4.850  31.728 -0.0338  0.5686 -0.0707
31064W        W74158  29.591   3.309   3.995  0.1145  0.2006 -0.0252
31065W        W74159  27.819   6.734   0.593  0.1614 -0.1273 -0.0899
31066W        W74160  27.211   6.459   2.879  0.1193  0.0131 -0.3009
31067W        W74161  28.923   4.349  31.741 -0.3394 -0.2636 -0.1834
31068W        W74162  24.904   5.040   2.078 -0.0509 -0.2526 -0.0964
31069W        W74163  25.424   6.894   4.311  0.1945 -0.1110  0.0309
31070W        W74164  25.351   4.894  30.423  0.1619  0.0314 -0.1326
31071W        W74165  27.987   5.768   0.439  0.0372  0.0042  0.2125
31072W        W74166  27.085   5.512   1.740 -0.2291 -0.5226  0.0246
31073W        W74167  28.512   5.782   1.845 -0.0707  0.3757 -0.1171
31074W        W74168  27.025   4.896   1.002 -0.4375 -0.1713  0.2436
31075W        W74169  28.486   4.927   3.481 -0.0892 -0.1047 -0.0356
31076W        W74170  25.647   5.808   0.731  0.0798  0.2106  0.0643
31077W        W74171  28.529   4.746   2.444  0.1718  0.1469  0.1853
31078W        W74172  25.991   7.505   2.130  0.1888  0.0664  0.1387
31079W        W74173  24.156   5.429   2.253  0.0849 -0.0551 -0.1185
31080W        W74174  26.830   6.329   1.775 -0.2361  0.2355  0.3174
31081W        W74175  26.762   4.525   3.387  0.1434 -0.2774  0.1707
31082W        W74176  28.597   5.828   1.279  0.0103  0.2245  0.0817
31083W        W74177  27.759   6.491   1.128 -0.0878 -0.0069 -0.1826
31084W        W74178  29.016   5.899   4.299 -0.0714 -0.1099 -0.3464
31085W        W74179  27.215   6.615   2.075 -0.2324  0.1115  0.2777
31086W        W74180  26.656   5.143   1.932 -0.3134 -0.2778  0.1655
31087W        W74181  27.073   7.714   3.090 -0.0702  0.1348  0.1856
31088W        W74182  28.729   5.501   0.891 -0.0171  0.0968  0.0689
31089W        W74183  26.585   6.191   2.253 -0.2361 -0.2573 -0.0544
31090W        W74184  25.345   5.152   3.631 -0.0332  0.1609  0.0787
31091W        W74185  25.638   4.993   2.540 -0.2856 -0.0956 -0.0103
31092W        W74186  28.121   7.405   2.485  0.0386  0.0372 -0.1091
31093W        W74187  26.624   3.939   0.651  0.0114 -0.0688 -0.0479
31094W        W74188  28.121   7.560   0.227 -0.0054 -0.1151  0.2457
31095W        W74189  24.565   6.415   2.056 -0.0449  0.1236 -0.0508
31096W        W74190  25.679   5.960   3.237  0.3855 -0.0076 -0.1659
31097W        W74191  26.143   7.896   0.001 -0.0898  0.1266  0.2157
31098W        W74192  27.754   6.293   0.333 -0.3669  0.0940 -0.2516
31099W        W74193  26.885   5.925   1.441  0.0635 -0.3182  0.0128
31100W        W74194  27.478   7.036   2.013 -0.2788  0.2449  0.0901
31101W        W74195  26.535   5.643   0.664 -0.2109  0.1279 -0.2542
31102W        W74196  25.221   7.470   2.662  0.2141 -0.0744 -0.1476
31103W        W74197  26.273   7.451  31.771 -0.1108 -0.0152  0.2999
31104W        W74198  28.256   6.216   0.428 -0.2447  0.2116  0.0592
31105W        W74199  27.163   7.398   0.307  0.0692  0.2276 -0.0948
31106W        W74200  27.163   7.329   3.365  0.1201 -0.2507  0.1390
31107W        W74201  28.933   3.850  31.859 -0.0159 -0.1984 -0.2677
31108W        W74202  28.142   5.646   2.228 -0.4498 -0.2986 -0.1177
31109W        W74203  27.592   5.507   1.586  0.4682 -0.1603  0.1575
31110W        W74204  26.702   7.060   3.411 -0.3768 -0.1911  0.2049
31111W        W74205  25.107   5.619   2.064 -0.1342  0.3349  0.0491
31112W        W74206  27.116   4.764   0.544  0.0272  0.0042 -0.0018
31113W        W74207  25.997   5.039   3.190  0.2657 -0.0786 -0.1661
31114W        W74208  28.605   3.448   3.902  0.1855 -0.0602  0.0808
31115W        W74209  24.693   6.656   3.311 -0.0136  0.2373  0.3706
31116W        W74210  29.490   7.704   1.169 -0.3781  0.0984  0.1716
31117W        W74211  26.559   4.459   0.830 -0.3870 -0.1042  0.0359
31118W        W74212  27.218   5.681   1.120 -0.0102 -0.1375  0.1050
31119W        W74213  29.226   4.027   1.658  0.3348 -0.1819  0.2810
31120W        W74214  26.483   6.594   0.454 -0.0263  0.2386 -0.0667
31121W        W74215  26.955   3.531   0.901  0.1562 -0.2692 -0.0512
31122W        W74216  26.934   7.522   1.457  0.4448  0.0465  0.1622
31123W        W74217  26.737   8.015   1.415 -0.1158  0.1383  0.0824
31124W        W74218  27.328   8.197   2.916  0.0539  0.1742  0.1501
31125W        W74219  27.524   3.581   0.061 -0.0590  0.1554  0.2577
31126W        W74220  28.959   6.249   2.565  0.0895 -0.2818 -0.0143
31127W        W74221  25.497   3.922   2.573 -0.3722  0.1000 -0.3925
31128W        W74222  28.384   3.961   3.123 -0.2353 -0.4548  0.1981
31129W        W74223  26.817   4.535  30.513  0.2412 -0.0855 -0.0268
31130W        W74224  27.913   4.964   1.374 -0.3021 -0.0450  0.4179
31131W        W74225  26.171   5.160   2.124 -0.1167  0.1151  0.2554
31132W        W74226  27.195   4.373   2.635  0.1781  0.3438 -0.2427
31133W        W74227  27.269   6.046   0.214  0.0094  0.0783  0.1963
31134W        W74228  27.919   5.907   2.646  0.4766  0.2159 -0.0988
31135W        W74229  27.736   3.460  31.577  0.2498  0.1584  0.0553
31136W        W74230  27.865   8.001   2.299 -0.1383 -0.0759 -0.0812
31137W        W74231  27.991   4.262   1.987  0.1612  0.1427  0.0682
31138W        W74232  30.403   4.332  31.935 -0.3581  0.1327  0.0193
31139W        W74233  26.447   6.501   1.030 -0.0394  0.0396  0.2615
31140W        W74234  26.749   4.057   2.540 -0.3826  0.1466 -0.0485
31141W        W74235  27.612   6.173   3.190 -0.2702 -0.1841  0.2840
31142W        W74236  25.525   3.588   2.132  0.2066  0.1782 -0.1969
31143W        W74237  28.569   5.794   0.506 -0.0925  0.2235 -0.0592
31144W        W74238  29.714   5.261   3.602  0.0997  0.1335 -0.0179
31145W        W74239  27.642   6.905  31.823 -0.1534  0.0281  0.0266
31146W        W74240  28.058   6.653   2.519 -0.0795  0.3312  0.0237
31147W        W74241  28.522   6.490   2.344 -0.0549  0.4208 -0.0826
31148W        W74242  25.652   4.712   1.592 -0.0167 -0.0880 -0.1038
31149W        W74243  27.957   7.037   2.177  0.1298  0.1138 -0.0609
31150W        W74244  29.009   6.598   2.195  0.1637  0.1773  0.1284
31151W        W74245  27.028   2.915   0.864  0.0584 -0.0121 -0.0850
31152W        W74246  26.131   4.816   1.783  0.2678  0.1955 -0.1454
31153W        W74247  25.276   6.821   1.101 -0.0058 -0.1246 -0.4574
31154W        W74248  28.858   5.827   2.800 -0.0298 -0.1405 -0.1948
31155W        W74249  29.176   5.487   2.821  0.1749 -0.2255 -0.1311
31156W        W74250  27.176   8.177  31.710  0.1707 -0.0661  0.0085
31157W        W74251  28.435   3.856   2.570  0.1887 -0.0052 -0.0824
31158W        W74252  27.834   7.020   2.829  0.0217  0.1298  0.3246
31159W        W74253  24.519   7.552   3.567 -0.5346  0.0218 -0.0406
31160W        W74254  27.162   4.310  31.694 -0.1729 -0.0659  0.1551
31161W        W74255  26.231   6.537   2.642 -0.4414 -0.3701 -0.0893
31162W        W74256  25.805   6.734   1.543 -0.1236  0.1226 -0.0113
31163W        W74257  27.611   7.436   0.105  0.0254 -0.0481 -0.2396
31164W        W74258  28.769   8.572   1.171 -0.1249  0.0025  0.2399
31165W        W74259  26.850   5.365   1.211  0.2414 -0.0903  0.1242
31166W        W74260  27.930   6.177   2.206 -0.1244 -0.1643 -0.3033
31167W        W74261  26.926   2.783  31.883 -0.2157 -0.1354  0.1527
31168W        W74262  28.231   3.938   1.243  0.2229 -0.0145 -0.0811
31169W        W74263  29.342   4.543  31.410  0.0629  0.3289  0.1246
31170W        W74264  26.081   6.565   2.029 -0.0722 -0.0324 -0.3907
31171W        W74265  26.478   4.271   0.317  0.0426 -0.1227 -0.2968
31172W        W74266  25.940   7.177   0.082  0.0672  0.0224  0.1727
31173W        W74267  25.528   5.958   2.328  0.1116  0.2722  0.5190
31174W        W74268  26.761   3.224   3.941  0.1575 -0.1591 -0.0776
31175W        W74269  25.613   5.418   3.298  0.0631 -0.1003 -0.1591
31176W        W74270  25.359   5.355   1.361  0.3641 -0.1785  0.5300
31177W        W74271  24.456   5.009   0.904  0.0010 -0.0299 -0.1597
31178W        W74272  27.793   7.337   1.175 -0.2200 -0.1831 -0.1575
31179W        W74273  25.924   4.039   1.219 -0.1212 -0.0317 -0.1432
31180W        W74274  26.970   4.264   0.385 -0.3232 -0.2460 -0.1279
31181W        W74275  27.350   6.047   1.529  0.0841 -0.1582  0.0011
31182W        W74276  29.266   8.698   0.949  0.1527 -0.3130 -0.0809
31183W        W74277  27.462   5.005   0.805  0.4455  0.0851  0.0217
31184W        W74278  29.836   4.986   4.041 -0.1520  0.1574  0.1741
31185W        W74279  25.817   5.397  31.944 -0.1868  0.0622 -0.2727
31186W        W74280  26.137   5.048   4.119 -0.0224 -0.1919  0.4754
31187W        W74281  25.594   4.529   2.910  0.4803 -0.3763  0.1073
31188W        W74282  27.027   3.199  31.131  0.0842  0.1398  0.0163
31189W        W74283  27.509   4.402   1.800  0.2697  0.0956 -0.0346
31190W        W74284  26.547   5.598   1.712  0.0407  0.0322  0.0788
31191W        W74285  27.536   7.677   1.497 -0.0238 -0.1535 -0.1017
31192W        W74286  26.201   6.425   3.282 -0.0068  0.0565 -0.1515
31193W        W74287  27.479   6.767   2.509 -0.0914  0.0168  0.0172
31194W        W74288  24.600   3.491   4.289 -0.2600  0.3249 -0.1205
31195W        W74289  27.693   6.583   2.080 -0.0839  0.0215  0.0548
31196W        W74290  27.162   6.214   3.374 -0.0155 -0.3454  0.0121
31197W        W74291  28.469   7.042   0.562 -0.1189  0.0387 -0.0189
31198W        W74292  28.463   3.097   1.937  0.0825 -0.2223  0.1960
31199W        W74293  29.004   5.396   0.416  0.3306 -0.3225 -0.2762
31200W        W74294  26.088   4.530   3.140  0.2565 -0.2701 -0.0717
31201W        W74295  25.989   5.757   2.538  0.1182 -0.0401  0.1301
31202W        W74296  28.951   6.845   2.595  0.3632  0.3705  0.2608
31203W        W74297  26.619   3.341   1.252  0.1258  0.2196  0.1414
31204W        W74298  28.000   4.885   0.785  0.1316  0.2046 -0.0967
31205W        W74299  27.787   5.858   0.001  0.0945  0.4657  0.0356
31206W        W74300  26.184   4.178   1.799 -0.1650  0.0712  0.1315
31207W        W74301  27.836   3.907   0.926 -0.0310  0.0976  0.2033
31208W        W74302  25.668   4.821   3.891 -0.0077 -0.2857 -0.3641
31209W        W74303  26.461   7.252   0.442  0.4091 -0.1956  0.2331
31210W        W74304  28.549   5.919   3.574  0.1116  0.1235 -0.2934
31211W        W74305  27.024   5.901   0.658  0.0897 -0.0902 -0.1151
31212W        W74306  28.228   6.631   0.892  0.0113 -0.0550  0.0193
31213W        W74307  27.410   8.230   2.371  0.1374 -0.2299  0.3389
31214W        W74308  29.495   6.752   3.813  0.0484  0.2464  0.0168
31215W        W74309  27.931   8.033   2.813 -0.2425  0.0554  0.0696
31216W        W74310  28.832   7.089   3.044 -0.2285  0.3450 -0.0815
31217W        W74311  26.960   5.388   0.717  0.4337  0.0158 -0.1274
31218W        W74312  26.219   5.260   1.557 -0.2089  0.0390  0.1061
31219W        W74313  26.507   6.754   3.061  0.0636 -0.2836 -0.0766
31220W        W74314  27.369   5.213   1.262 -0.2333  0.1686 -0.3826
31221W        W74315  27.113   4.236   2.108 -0.3343 -0.0013  0.3610
31222W        W74316  27.390   4.424   0.150 -0.0081 -0.2817 -0.3643
31223W        W74317  26.112   7.134   2.995 -0.0311 -0.1535  0.0500
31224W        W74318  26.321   6.056   1.849 -0.3922  0.0692 -0.0096
31225W        W74319  26.841   6.410   6.352  0.2542  0.1058  0.1442
31226W        W74320  25.563   5.748   4.476 -0.1860  0.1804 -0.2185
31227W        W74321  27.439   5.829   2.561 -0.1527 -0.1390 -0.1860
31228W        W74322  28.674   5.647   3.986 -0.0002 -0.0973  0.1201
31229W        W74323  26.572   5.898   5.163 -0.0648  0.0740  0.1570
31230W        W74324  28.603   7.565   4.825  0.3768 -0.0451 -0.0798
31231W        W74325  26.546   4.328   6.076 -0.1699  0.4402  0.1505
31232W        W74326  27.572   5.714   4.859 -0.0084  0.0202 -0.0250
31233W        W74327  28.313   6.559   5.593  0.2029  0.0667  0.1633
31234W        W74328  26.393   5.894   3.285  0.2698  0.2636 -0.0116
31235W        W74329  27.847   5.269   5.631 -0.0550 -0.0693 -0.0557
31236W        W74330  26.477   6.716   6.556 -0.0932  0.0681 -0.0275
31237W        W74331  25.924   5.367   4.485 -0.1231  0.0645  0.0557
31238W        W74332  26.784   4.292   6.507  0.1944 -0.0216 -0.0005
31239W        W74333  27.855   6.321   5.528 -0.1702 -0.1224  0.1102
31240W        W74334  25.261   6.854   4.844 -0.0445  0.0128  0.3039
31241W        W74335  26.202   5.243   7.107  0.2591 -0.1111 -0.3472
31242W        W74336  25.931   5.724   4.154 -0.0241 -0.1095 -0.3490
31243W        W74337  27.201   7.356   4.178 -0.4844 -0.1582 -0.1493
31244W        W74338  27.264   4.494   6.501 -0.3402  0.1542  0.1706
31245W        W74339  28.035   3.874   6.508  0.1081  0.0904  0.2715
31246W        W74340  26.862   7.302   3.856  0.1054 -0.2656  0.1230
31247W        W74341  26.027   6.195   2.325  0.1420 -0.1144 -0.0952
31248W        W74342  25.705   5.528   4.940  0.0131  0.0458  0.4089
31249W        W74343  25.790   5.433   6.019  0.0808 -0.0467  0.1851
31250W        W74344  27.415   3.853   4.891 -0.0840  0.1091 -0.0458
31251W        W74345  29.188   5.586   5.720 -0.2401  0.0501  0.1323
31252W        W74346  27.376   7.060   4.838  0.0612 -0.1873  0.1542
31253W        W74347  28.252   6.327   4.511  0.1114 -0.0185  0.1739
31254W        W74348  27.619   5.339   6.061  0.0173  0.1137  0.0659
31255W        W74349  25.020   7.016   3.985 -0.3541 -0.0069 -0.1170
31256W        W74350  25.183   8.096   5.151 -0.0012  0.1460 -0.1571
31257W        W74351  27.112   6.890   4.256 -0.0199 -0.0216  0.7905
31258W        W74352  28.670   6.762   5.233 -0.0553  0.2628 -0.2708
31259W        W74353  29.492   6.499   8.198 -0.1444  0.1153 -0.1547
31260W        W74354  26.930   7.420   8.025 -0.3469 -0.0619 -0.0202
31261W        W74355  25.114   7.245   4.510 -0.0377  0.0002 -0.1407
31262W        W74356  27.840   6.579   7.384  0.0611 -0.1352 -0.2607
31263W        W74357  26.940   6.622   7.311 -0.0222  0.1030  0.0130
31264W        W74358  27.081   5.245   6.752 -0.1372  0.0298  0.0757
31265W        W74359  27.238   4.419   3.583  0.1125  0.1371 -0.2927
31266W        W74360  26.958   6.233   4.199 -0.1926  0.0209  0.0279
31267W        W74361  27.129   5.928   4.641 -0.2986 -0.0790 -0.0239
31268W        W74362  25.971   5.934   6.644  0.0136 -0.0360 -0.1405
31269W        W74363  24.598   6.362   4.749  0.1012  0.0735 -0.1749
31270W        W74364  28.284   4.502   7.942 -0.0138  0.2419  0.3824
31271W        W74365  26.856   7.799   4.930 -0.1063  0.4866 -0.2261
31272W        W74366  28.936   4.683   2.753  0.3815  0.2684  0.2093
31273W        W74367  26.319   5.471   3.957  0.0884 -0.2229  0.1652
31274W        W74368  28.436   4.665   3.886 -0.1613  0.0480  0.0512
31275W        W74369  27.024   4.612   5.188  0.1957  0.0941  0.1553
31276W        W74370  25.533   7.180   5.072 -0.3080  0.1081  0.2364
31277W        W74371  27.490   3.956   5.787  0.0461 -0.2441 -0.0123
31278W        W74372  28.426   7.251   6.989  0.0535  0.0083 -0.2270
31279W        W74373  27.539   6.916   3.335  0.0351  0.0539 -0.1790
31280W        W74374  28.976   4.248   4.890  0.1280  0.2706 -0.1006
31281W        W74375  25.630   7.357   5.911  0.2178 -0.2548 -0.0300
31282W        W74376  26.748   5.886   5.633 -0.1967 -0.1499 -0.0278
31283W        W74377  27.683   7.809   3.267 -0.2505  0.2401  0.0561
31284W        W74378  28.531   5.872   4.474  0.0147 -0.0537  0.0245
31285W        W74379  26.668   7.542   3.423 -0.0596  0.2416  0.2846
31286W        W74380  26.268   4.390   4.967  0.0455  0.0712 -0.1097
31287W        W74381  25.156   5.274   6.927  0.0917  0.0320  0.1545
31288W        W74382  25.987   5.509   7.510 -0.2244  0.1065  0.0278
31289W        W74383  26.847   3.782   2.904  0.3080  0.0514  0.0686
31290W        W74384  28.594   7.164   7.506  0.2869  0.0950  0.0077
31291W        W74385  26.276   6.209   7.022  0.0855 -0.0626 -0.1899
31292W        W74386  29.546   4.330   5.205  0.0339 -0.1267  0.1614
31293W        W74387  27.354   5.936   4.206 -0.2867 -0.0681 -0.1074
31294W        W74388  28.803   7.474   5.275 -0.0802 -0.1172 -0.0627
31295W        W74389  26.733   5.583   3.595  0.0217  0.1097 -0.1198
31296W        W74390  28.676   3.401   5.226 -0.3828 -0.1793  0.3089
31297W        W74391  29.267   4.258   6.753 -0.2424 -0.0933  0.0214
31298W        W74392  25.805   6.587   2.953  0.3798 -0.3090 -0.2188
31299W        W74393  27.029   6.728   3.323 -0.0258 -0.1658 -0.0529
31300W        W74394  29.043   5.599   6.370 -0.1833  0.3398  0.1546
31301W        W74395  27.900   5.140   4.232 -0.2061 -0.0868  0.0840
31302W        W74396  25.582   6.513   5.122  0.0923 -0.2451 -0.0828
31303W        W74397  28.046   4.242   6.946 -0.1941 -0.1026 -0.0274
31304W        W74398  26.982   6.888   6.356  0.0781  0.0247  0.2803
31305W        W74399  25.290   8.395   3.858 -0.0148 -0.0340 -0.2107
31306W        W74400  25.668   6.058   4.935  0.0504 -0.0838 -0.0898
31307W        W74401  25.293   4.660   4.504  0.3568  0.0427 -0.2158
31308W        W74402  25.213   4.399   6.198 -0.1685  0.1842 -0.0651
31309W        W74403  25.351   5.060   6.112  0.2708 -0.0638  0.0244
31310W        W74404  28.074   4.522   4.753 -0.2768  0.1599 -0.1669
31311W        W74405  26.027   4.112   4.581  0.1059  0.0531 -0.1028
31312W        W74406  28.998   3.115   5.616  0.0246  0.0086 -0.3925
31313W        W74407  26.088   7.080   5.117  0.1900  0.1054 -0.3094
31314W        W74408  28.907   7.330   4.426  0.2245  0.1485 -0.0475
31315W        W74409  28.852   4.812   3.998 -0.3593 -0.2383 -0.5560
31316W        W74410  28.300   6.335   3.356 -0.1797  0.1483 -0.2625
31317W        W74411  25.595   3.570   5.939 -0.0109 -0.4128  0.0654
31318W        W74412  26.312   5.396   4.956  0.5535  0.1930 -0.0759
31319W        W74413  26.362   3.992   6.457  0.3230  0.0528  0.0851
31320W        W74414  25.649   4.558   6.526 -0.1795 -0.1617  0.0182
31321W        W74415  30.293   5.252   6.160  0.3161 -0.0078  0.2727
31322W        W74416  26.524   3.521   4.254  0.0667 -0.0084 -0.3442
31323W        W74417  29.039   5.168   5.476 -0.0019  0.0966  0.0451
31324W        W74418  27.505   4.539   4.113 -0.2252 -0.4730 -0.3241
31325W        W74419  25.709   6.615   3.447 -0.0231 -0.0814 -0.0243
31326W        W74420  28.784   4.473   6.716  0.0787 -0.0906  0.2231
31327W        W74421  26.562   7.528   4.249  0.0744  0.0193 -0.1203
31328W        W74422  29.490   6.618   7.183 -0.2197 -0.0481 -0.1265
31329W        W74423  28.177   6.797   6.761  0.1480  0.0244  0.3277
31330W        W74424  27.403   4.886   5.441 -0.3782  0.1984 -0.5781
31331W        W74425  26.290   4.198   5.497 -0.2494  0.0466 -0.0668
31332W        W74426  26.003   7.969   5.560 -0.0461  0.0616 -0.4195
31333W        W74427  26.769   6.615   4.563 -0.0919  0.0262 -0.3021
31334W        W74428  28.120   5.476   3.952  0.1099  0.2706 -0.0814
31335W        W74429  28.635   6.940   6.544  0.1121 -0.3408 -0.0988
31336W        W74430  26.837   5.655   4.107  0.4137  0.1678  0.1483
31337W        W74431  26.882   5.424   5.832  0.1161  0.2739 -0.0734
31338W        W74432  28.646   4.595   6.254 -0.0772  0.1256 -0.2523
31339W        W74433  28.592   6.514   6.767 -0.3858 -0.1556 -0.0489
31340W        W74434  27.235   6.522   4.522 -0.0107  0.2650 -0.1317
31341W        W74435  25.310   4.009   3.917  0.1560 -0.0364 -0.3269
31342W        W74436  28.814   7.974   5.098  0.3299  0.0031  0.1274
31343W        W74437  25.965   7.880   3.530 -0.1108 -0.1827  0.3715
31344W        W74438  24.950   5.462   4.310 -0.1693 -0.0439  0.3631
31345W        W74439  27.181   8.054   5.503  0.1210 -0.0890 -0.1342
31346W        W74440  23.545   5.872   7.463  0.0304 -0.1205 -0.0935
31347W        W74441  27.209   6.046   6.388 -0.0781  0.1067 -0.0357
31348W        W74442  25.984   5.590   3.038  0.1404  0.1298  0.2899
31349W        W74443  27.359   6.302   7.420  0.1741  0.2107  0.1982
31350W        W74444  27.653   4.310   4.925 -0.0198  0.1693 -0.0977
31351W        W74445  29.106   3.584   5.416  0.3707  0.2078 -0.0137
31352W        W74446  27.848   4.848   6.209  0.3271  0.2440 -0.1300
31353W        W74447  27.663   5.348   5.180  0.0631 -0.0344 -0.0885
31354W        W74448  28.003   3.423   1.612  0.2182  0.0116 -0.0220
31355W        W74449  27.043   4.717   3.013 -0.1035  0.0148 -0.0311
31356W        W74450  26.587   5.745   7.417 -0.1824  0.2460 -0.1512
31357W        W74451  27.367   6.329   5.531  0.0739  0.1976 -0.4411
31358W        W74452  28.050   5.640   5.358  0.3098 -0.2200 -0.0223
31359W        W74453  28.278   4.899   2.830 -0.1859  0.1175 -0.0321
31360W        W74454  29.557   7.807   5.921 -0.0723 -0.2172  0.2497
31361W        W74455  26.319   6.762   5.587  0.2867 -0.0600 -0.1000
31362W        W74456  27.583   5.865   7.339  0.1845  0.0610  0.0553
31363W        W74457  28.350   4.565   5.786 -0.0858  0.1749 -0.1805
31364W        W74458  27.484   3.309   5.960 -0.0967  0.4034  0.0404
31365W        W74459  26.006   6.189   4.192  0.2895 -0.0354  0.2013
31366W        W74460  26.811   5.098   3.375 -0.6009  0.0924 -0.3795
31367W        W74461  24.930   6.740   4.454  0.1252  0.1988  0.2800
31368W        W74462  29.141   4.590   6.335 -0.2984  0.1181 -0.4469
31369W        W74463  27.288   5.038   5.014  0.0627  0.0909 -0.1686
31370W        W74464  29.601   2.482   6.400  0.0320  0.3102 -0.0416
31371W        W74465  28.096   6.037   6.106  0.0498 -0.3578  0.0691
31372W        W74466  29.072   5.045   3.099  0.0416 -0.1096  0.0218
31373W        W74467  27.040   4.831   4.473 -0.0076 -0.0485  0.1229
31374W        W74468  25.512   5.703   3.798  0.0477 -0.1841 -0.1046
31375W        W74469  27.275   4.073   6.807 -0.3727 -0.3091  0.1069
31376W        W74470  26.807   5.627   6.548  0.2162 -0.0776 -0.0585
31377W        W74471  25.977   6.533   6.673 -0.1148  0.0131 -0.1448
31378W        W74472  27.671   5.924   8.216 -0.1243  0.3517  0.2560
31379W        W74473  27.804   6.181   4.473  0.0794  0.1243  0.1162
31380W        W74474  27.747   3.845   6.908 -0.0405 -0.1590 -0.1890
31381W        W74475  26.910   4.371   4.316  0.0482 -0.1946  0.2078
31382W        W74476  25.729   7.632   3.058 -0.0793  0.0368 -0.0946
31383W        W74477  26.269   6.739   4.729 -0.0235 -0.3596 -0.5472
31384W        W74478  27.185   4.103   5.294 -0.2589  0.1279 -0.3259
31385W        W74479  26.920   4.740   6.229  0.1238  0.1875  0.2302
31386W        W74480  27.141   7.487   2.581 -0.3135 -0.2076  0.0774
31387W        W74481  28.228   6.137   6.958 -0.4280 -0.0041 -0.0694
31388W        W74482  24.781   6.214   3.517  0.0447 -0.0434 -0.2185
31389W        W74483  28.651   3.107   7.053  0.0077  0.5003 -0.0056
31390W        W74484  25.828   7.381   5.432  0.1797  0.2762 -0.0096
31391W        W74485  24.898   5.030   4.557 -0.1593  0.3715  0.4514
31392W        W74486  26.769   5.575   4.781 -0.2087  0.1714  0.1462
31393W        W74487  27.673   5.162   4.731  0.2293  0.0601 -0.0467
31394W        W74488  27.898   4.858   3.302 -0.0904 -0.1476 -0.1982
31395W        W74489  26.027   5.116   6.661 -0.1626 -0.0987 -0.1342
31396W        W74490  27.962   4.220   5.725  0.0272 -0.4953 -0.2368
31397W        W74491  25.036   7.116   7.039  0.0732 -0.1460 -0.0457
31398W        W74492  28.198   5.540   5.907  0.0564  0.2419  0.0106
31399W        W74493  28.048   5.012   3.710 -0.1465 -0.0735  0.0424
31400W        W74494  29.250   6.614   6.099  0.2400 -0.3609  0.1194
31401W        W74495  27.292   5.952   7.876 -0.0081 -0.3939 -0.1442
31402W        W74496  24.207   5.397   4.046 -0.0820  0.1632  0.1187
31403W        W74497  29.255   4.662   5.466 -0.3399 -0.2516 -0.2921
31404W        W74498  26.386   4.860   6.397 -0.2533 -0.2490 -0.1574
31405W        W74499  25.659   6.921   5.477 -0.1876  0.1376  0.1764
31406W        W74500  27.725   6.685   4.716 -0.0426 -0.2164 -0.0225
31407W        W74501  26.683   6.785   4.084 -0.1418  0.3061 -0.0088
31408W        W74502  26.424   5.979   3.905  0.0354  0.0720  0.0856
31409W        W74503  26.439   4.488   6.826 -0.0849  0.2271 -0.1866
31410W        W74504  28.870   6.347   7.459  0.1589 -0.0595  0.1546
31411W        W74505  27.579   6.212   5.979  0.2803  0.1828 -0.0216
31412W        W74506  27.874   4.214   4.356 -0.0128 -0.2994 -0.1446
31413W        W74507  27.216   5.441   4.551 -0.1186 -0.0355  0.0466
31414W        W74508  28.283   6.018   5.610 -0.1260 -0.1492 -0.2073
31415W        W74509  27.542   5.426   6.685 -0.0696  0.0805 -0.2246
31416W        W74510  26.751   6.200   7.424 -0.1704 -0.0745 -0.1301
31417W        W74511  28.098   3.121   5.285  0.1715  0.1248 -0.1405
31418W        W74512  29.118   7.571   4.838  0.2811 -0.1873 -0.1677
31419W        W74513  29.540   6.234   6.177  0.0462 -0.0530 -0.1890
31420W        W74514  25.562   5.497   2.752  0.1785 -0.2215 -0.1225
31421W        W74515  25.272   6.277   5.917  0.2295 -0.3015  0.2860
31422W        W74516  26.403   7.157   3.949  0.0352  0.2058  0.1994
31423W        W74517  29.047   4.801   5.921  0.0815 -0.1241  0.0349
31424W        W74518  25.720   6.772   5.935 -0.0511  0.0729  0.2146
31425W        W74519  26.093   7.208   4.612  0.0720  0.0548  0.2125
31426W        W74520  26.714   6.237   6.801  0.2504  0.2597 -0.0260
31427W        W74521  27.377   4.124   4.374 -0.0607 -0.1965  0.0559
31428W        W74522  26.154   7.382   3.588  0.2481  0.0720 -0.1114
31429W        W74523  27.064   4.735   3.959 -0.0048  0.1186  0.1042
31430W        W74524  28.808   4.846   7.151  0.0098 -0.1373  0.3752
31431W        W74525  27.794   5.954   3.950 -0.1483 -0.1538  0.0559
31432W        W74526  28.487   3.538   6.806 -0.2038  0.1122 -0.1834
31433W        W74527  26.783   3.997   5.597  0.2250  0.0908  0.0155
31434W        W74528  28.071   5.820   3.490  0.3210  0.0442  0.1656
31435W        W74529  26.741   5.274   6.247  0.1017  0.4166  0.1947
31436W        W74530  28.157   7.914   7.935  0.0601 -0.2626  0.4127
31437W        W74531  26.262   5.760   7.986 -0.2726 -0.0757  0.0802
31438W        W74532  26.901   5.184   4.158  0.1569  0.3792  0.0711
31439W        W74533  26.228   4.747   3.631 -0.1608  0.2554 -0.0879
31440W        W74534  25.746   6.211   6.276 -0.0970  0.1105  0.0735
31441W        W74535  27.338   7.044   5.332 -0.2057  0.1362  0.0315
31442W        W74536  25.652   7.193   3.378 -0.2008 -0.0780 -0.0067
31443W        W74537  27.382   5.068   4.197 -0.2920  0.1112  0.1390
31444W        W74538  27.637   5.870   6.327 -0.0481  0.2374  0.1175
31445W        W74539  27.749   5.606   4.283  0.2200 -0.1216 -0.1537
31446W        W74540  27.413   4.988   3.229  0.3322 -0.0862 -0.0862
31447W        W74541  26.634   7.226   5.925  0.4818 -0.0611  0.1525
31448W        W74542  27.423   4.529   5.882  0.1153 -0.0563  0.4097
31449W        W74543  27.622   6.274   5.002 -0.2513 -0.1037  0.1321
31450W        W74544  28.317   4.312   3.517 -0.1197  0.2397  0.1786
31451W        W74545  27.826   3.747   6.080  0.1519  0.2938  0.1054
31452W        W74546  28.556   4.922   6.677 -0.5924 -0.0533 -0.1784
31453W        W74547  28.327   5.090   6.202  0.0270 -0.0785 -0.0624
31454W        W74548  26.006   4.268   6.762 -0.2231  0.2601 -0.0305
31455W        W74549  29.044   6.874   7.449  0.0999  0.3370 -0.1299
31456W        W74550  27.704   4.531   2.741 -0.1358  0.0545  0.1717
31457W        W74551  28.271   4.539   6.646  0.0420  0.0789 -0.0960
31458W        W74552  28.004   5.993   4.911 -0.0408  0.1017 -0.2148
31459W        W74553  26.889   6.037   3.768 -0.2263  0.0584 -0.0800
31460W        W74554  26.220   6.254   4.884 -0.0243 -0.1661 -0.3271
31461W        W74555  28.487   5.614   7.712 -0.3628  0.1792 -0.2173
31462W        W74556  24.790   4.534   4.428 -0.4354  0.0605  0.0018
31463W        W74557  27.861   4.706   7.153  0.3743 -0.0403 -0.2071
31464W        W74558  28.322   6.988   3.348  0.3451  0.0358  0.1180
31465W        W74559  28.846   7.606   3.035  0.0501  0.2980 -0.0824
31466W        W74560  27.769   4.847   5.086  0.2351  0.2419 -0.0511
31467W        W74561  25.764   4.909   5.715  0.2676 -0.1835 -0.1979
31468W        W74562  26.922   6.725   6.818 -0.1388 -0.0327  0.2593
31469W        W74563  26.329   4.202   3.484 -0.0030 -0.1671  0.1001
31470W        W74564  26.419   7.048   2.616  0.0228 -0.0143 -0.1697
31471W        W74565  27.432   6.841   6.679 -0.3145  0.1510  0.1279
31472W        W74566  28.343   5.380   6.722  0.0709 -0.1455 -0.0828
31473W        W74567  26.572   4.842   4.294 -0.0429 -0.1644  0.0958
31474W        W74568  30.071   5.268   6.768  0.2641 -0.4781  0.1335
31475W        W74569  25.643   7.324   4.428  0.4386  0.3560 -0.1402
31476W        W74570  28.191   3.423   6.090  0.2549 -0.0472  0.0438
31477W        W74571  26.012   7.622   6.178 -0.2321  0.0720  0.2008
31478W        W74572  26.332   6.217   6.445  0.0289  0.0206 -0.0309
31479W        W74573  26.108   7.179   5.763 -0.0383 -0.1137 -0.0655
31480W        W74574  27.157   5.576   6.265 -0.2878  0.3575 -0.0360
31481W        W74575  28.718   4.726   5.499 -0.2004  0.1536  0.0531
31482W        W74576  26.526   6.614   5.106  0.0410  0.0026 -0.0302
31483W        W74577  30.032   6.132   5.555  0.3110  0.1305 -0.2118
31484W        W74578  28.025   6.909   5.635  0.0107 -0.0942 -0.0700
31485W        W74579  26.277   5.656   5.657 -0.0896  0.1384 -0.2374
31486W        W74580  28.174   6.902   8.046  0.3107 -0.1381 -0.0041
31487W        W74581  28.079   4.250   5.178 -0.1488  0.1325 -0.1407
31488W        W74582  26.817   6.973   5.441  0.1542 -0.0965  0.1821
31489W        W74583  26.566   4.365   7.527 -0.1712  0.0573 -0.0296
31490W        W74584  27.227   5.890   5.772 -0.1518  0.1499  0.2997
31491W        W74585  27.669   6.676   5.262 -0.0871 -0.0467 -0.0207
31492W        W74586  24.641   4.952   4.114 -0.0646  0.1581  0.4006
31493W        W74587  26.075   4.706   2.685  0.0658 -0.0875 -0.0155
31494W        W74588  25.934   6.918   7.054 -0.0997  0.0394  0.0482
31495W        W74589  26.258   5.532   6.438  0.1900 -0.1106 -0.2659
31496W        W74590  26.085   7.527   4.100  0.0040  0.0031 -0.1581
31497W        W74591  27.349   7.091   3.757 -0.1099  0.3196  0.0254
31498W        W74592  26.719   8.318   4.092 -0.0476  0.1701 -0.0519
31499W        W74593  28.415   6.839   6.088  0.1531  0.0928 -0.4157
31500W        W74594  26.772   5.004   4.985 -0.0854 -0.0563  0.0024
31501W        W74595  25.866   7.072   3.899  0.4368 -0.3295 -0.0095
31502W        W74596  25.693   7.250   2.725 -0.1474  0.0130  0.0345
31503W        W74597  27.898   6.870   3.795  0.0115  0.1579  0.2294
31504W        W74598  25.107   7.082   5.311  0.1168 -0.0366 -0.0692
31505W        W74599  28.909   6.190   6.923 -0.0255 -0.2705  0.1462
31506W        W74600  27.871   4.497   3.670 -0.2265 -0.1950 -0.0413
31507W        W74601  28.234   4.972   4.602 -0.0820 -0.3074  0.1414
31508W        W74602  29.010   5.368   4.303 -0.1474 -0.0959  0.1893
31509W        W74603  27.620   4.946   7.955 -0.0085 -0.1065 -0.2404
31510W        W74604  27.195   5.012   5.905 -0.1271 -0.0433  0.0351
31511W        W74605  26.575   4.680   2.684  0.1213  0.0767 -0.1800
31512W        W74606  28.182   5.881   6.545  0.1044 -0.0824  0.2221
31513W        W74607  29.397   4.707   7.206 -0.1005  0.2702  0.0183
31514W        W74608  24.622   6.798   6.926 -0.3010 -0.0188 -0.2579
31515W        W74609  29.199   7.070   4.062  0.2708 -0.0968  0.0214
31516W        W74610  26.839   4.042   3.742  0.2659  0.0314 -0.1763
31517W        W74611  26.693   6.197   4.780  0.2517 -0.0106  0.1464
31518W        W74612  29.117   3.824   5.929 -0.0436  0.1850  0.3011
31519W        W74613  25.526   5.301   4.189  0.1143  0.1714 -0.0534
31520W        W74614  28.595   4.032   4.268 -0.1394 -0.6939  0.3155
31521W        W74615  28.298   7.332   4.207  0.1143  0.1138 -0.1643
31522W        W74616  27.337   6.570   6.215 -0.0817 -0.2505  0.3901
31523W        W74617  26.647   5.834   6.098  0.0676  0.3434 -0.0204
31524W        W74618  26.690   4.606   4.724  0.1683  0.0945  0.1860
31525W        W74619  28.147   5.199   5.161  0.2237 -0.0507 -0.0895
31526W        W74620  26.580   5.220   6.769 -0.0245  0.1172  0.0557
31527W        W74621  29.508   4.893   6.292  0.0646  0.0944 -0.1213
31528W        W74622  26.059   5.853   4.633  0.2548  0.3371 -0.0005
31529W        W74623  30.227   4.956   5.069  0.0090 -0.2730  0.1693
31530W        W74624  28.623   7.097   5.607  0.1692  0.1833  0.0547
31531W        W74625  26.124   5.900   6.108 -0.1174 -0.3112  0.0833
31532W        W74626  27.685   5.371   3.502 -0.1955  0.1797  0.1549
31533W        W74627  30.255   5.318   4.731  0.0755 -0.3401  0.0705
31534W        W74628  28.372   5.907   3.081  0.2369  0.0295 -0.0554
31535W        W74629  28.606   6.745   7.195 -0.1068  0.1771  0.1147
31536W        W74630  26.254   5.198   6.037  0.1184 -0.0994 -0.0305
31537W        W74631  26.442   5.309   4.395 -0.2492  0.1059  0.2925
31538W        W74632  26.438   6.393   4.307  0.0250  0.1230 -0.0519
31539W        W74633  27.518   4.948   6.854 -0.0407  0.0932 -0.0841
31540W        W74634  27.329   5.248   8.178  0.1045 -0.1628  0.3589
31541W        W74635  25.582   3.730   5.332 -0.1783  0.0041 -0.0259
31542W        W74636  27.472   6.379   4.098 -0.0074  0.1048 -0.1119
31543W        W74637  28.807   5.244   5.929 -0.0984  0.1781 -0.1558
31544W        W74638  26.510   7.388   4.913  0.2021  0.0284 -0.2200
31545W        W74639  27.519   4.837   3.731 -0.1533  0.0182  0.0161
31546W        W74640  28.312   5.990   4.015 -0.0615 -0.0264  0.0478
31547W        W74641  25.155   4.363   4.883 -0.3889 -0.1221 -0.1737
31548W        W74642  28.919   7.215   7.075  0.3676 -0.3406  0.3423
31549W        W74643  28.732   5.753   5.907  0.0405 -0.1146 -0.2768
31550W        W74644  25.779   4.200   3.754 -0.1346  0.0663 -0.1567
31551W        W74645  26.298   5.092   5.533  0.0056 -0.2892  0.1806
31552W        W74646  24.823   7.280   4.908  0.1680  0.0766 -0.1714
31553W        W74647  29.031   4.241   5.391  0.0805 -0.0701  0.1723
31554W        W74648  28.992   5.107   6.361  0.1291  0.0162 -0.0766
31555W        W74649  27.634   7.515   4.539 -0.0685  0.1888  0.0849
31556W        W74650  29.300   4.029   7.243  0.1800  0.1103  0.0533
31557W        W74651  27.549   5.861   5.344  0.2874 -0.0500  0.4326
31558W        W74652  26.715   5.964   7.872  0.0225 -0.3324 -0.1055
31559W        W74653  25.477   6.109   4.127 -0.0787  0.2455 -0.0577
31560W        W74654  27.754   6.320   6.457 -0.1475 -0.3058 -0.0383
31561W        W74655  26.460   6.233   5.907 -0.1706 -0.1633 -0.1091
31562W        W74656  27.232   7.851   4.579  0.0386  0.0564 -0.1371
31563W        W74657  28.006   7.135   4.668 -0.0656 -0.1609 -0.3303
31564W        W74658  27.921   4.784   5.599  0.1608  0.3316 -0.0714
31565W        W74659  29.189   6.651   5.182  0.0549 -0.2663 -0.1287
31566W        W74660  26.705   5.401   5.330  0.3631 -0.1514  0.0906
31567W        W74661  29.657   4.374   3.465  0.1525 -0.0137  0.0065
31568W        W74662  28.314   3.776   5.193 -0.0468 -0.0215 -0.0060
31569W        W74663  27.707   4.481   6.662  0.1870 -0.3290  0.2177
31570W        W74664  25.282   5.747   4.854  0.1788 -0.0098  0.0283
31571W        W74665  26.782   6.594   2.633 -0.0971 -0.1478  0.1555
31572W        W74666  25.814   7.588   4.849 -0.1523 -0.1350 -0.0582
31573W        W74667  26.956   4.478   5.647 -0.1876 -0.2263  0.1663
31574W        W74668  25.947   4.712   6.938  0.0435 -0.2456 -0.0202
31575W        W74669  25.885   5.368   5.521  0.1533 -0.0296 -0.0871
31576W        W74670  25.251   4.670   5.726  0.0340 -0.0131 -0.0117
31577W        W74671  28.498   6.959   3.889 -0.0242  0.2169  0.0025
31578W        W74672  26.702   4.232   5.105 -0.1047 -0.1923 -0.0212
31579W        W74673  24.755   4.259   5.947  0.0335 -0.4551  0.1037
31580W        W74674  27.486   7.617   5.321 -0.0055 -0.0897 -0.0835
31581W        W74675  29.119   6.734   4.392  0.1663  0.3536  0.0317
31582W        W74676  25.624   4.664   3.417 -0.0314  0.1386  0.0265
31583W        W74677  28.310   5.776   8.139 -0.2677  0.0691  0.2042
31584W        W74678  25.058   5.060   4.019  0.0262  0.2666  0.2281
31585W        W74679  28.037   4.802   7.660  0.0027 -0.2187 -0.0109
31586W        W74680  26.862   4.800   6.725 -0.0815 -0.1264 -0.1580
31587W        W74681  24.275   4.788   3.267  0.5105  0.1595  0.1159
31588W        W74682  27.183   5.558   5.139  0.0763 -0.0298  0.0085
31589W        W74683  27.085   6.584   3.865  0.1457  0.0087  0.0303
31590W        W74684  28.223   8.241   3.238 -0.0962 -0.2252 -0.0341
31591W        W74685  28.172   6.941   7.355  0.2041  0.2077 -0.0446
31592W        W74686  27.797   7.139   5.138  0.0511  0.0949  0.1850
31593W        W74687  25.202   3.269   6.136 -0.0574  0.1283  0.2498
31594W        W74688  28.461   5.093   4.150  0.2544  0.3590  0.1823
31595W        W74689  29.057   6.694   6.926  0.2083 -0.0370 -0.1310
31596W        W74690  28.791   7.326   2.603 -0.2682  0.1798 -0.0645
31597W        W74691  30.237   3.473   5.177 -0.1293  0.2211  0.0793
31598W        W74692  27.483   5.893   3.589  0.0789  0.1991  0.2133
31599W        W74693  26.109   4.483   6.325 -0.1755 -0.0771 -0.0363
31600W        W74694  26.145   4.238   7.229  0.0018  0.0302  0.2686
31601W        W74695  30.281   5.112   7.160  0.1562  0.1274  0.1936
31602W        W74696  27.610   4.402   5.395 -0.0717  0.1776  0.0174
31603W        W74697  27.571   4.498   3.227  0.1379 -0.2242  0.1111
31604W        W74698  29.168   8.154   3.803  0.2066 -0.0388 -0.2200
31605W        W74699  25.664   5.080   5.164 -0.2700 -0.0381  0.0755
31606W        W74700  26.954   5.028   5.458 -0.0207 -0.1721 -0.4116
31607W        W74701  28.530   4.243   5.416  0.2753  0.0020 -0.1235
31608W        W74702  27.386   5.481   3.944 -0.0195  0.1404  0.0514
31609W        W74703  29.374   6.473   7.657  0.1440  0.1189 -0.3714
31610W        W74704  26.608   7.074   4.463  0.3843 -0.2542  0.0553
31611W        W74705  28.270   5.429   4.520  0.1955 -0.0848 -0.1060
31612W        W74706  29.390   7.081   7.055  0.1005 -0.1600  0.0311
31613W        W74707  28.907   8.395   7.812 -0.3208  0.0952 -0.0812
31614W        W74708  27.774   6.924   7.019 -0.2741  0.0826  0.0675
31615W        W74709  29.053   6.168   5.973 -0.1309 -0.1428 -0.1400
31616W        W74710  26.527   3.435   6.845  0.0635  0.2576 -0.0153
31617W        W74711  26.516   5.863   4.372 -0.0373 -0.0470  0.0199
31618W        W74712  27.210   6.601   5.025 -0.1529  0.0023 -0.1106
31619W        W74713  28.940   4.160   6.365  0.1165 -0.0629  0.0531
31620W        W74714  26.554   4.705   5.392  0.0092 -0.3076 -0.1788
31621W        W74715  28.250   4.092   4.635  0.3115 -0.2029  0.1795
31622W        W74716  27.100   6.980   5.870 -0.0737  0.1349 -0.2929
31623W        W74717  27.556   6.796   5.806  0.1257 -0.0277  0.2129
31624W        W74718  25.657   4.335   9.165  0.2380 -0.0131  0.0167
31625W        W74719  26.006   4.879   7.843 -0.3055  0.0067 -0.4330
31626W        W74720  28.396   3.814   7.810 -0.2254 -0.1241 -0.0676
31627W        W74721  28.447   4.512   8.457 -0.2142  0.0452 -0.0871
31628W        W74722  25.208   4.729   9.025 -0.1721 -0.1477  0.2022
31629W        W74723  27.948   7.207   8.415 -0.1732 -0.2820 -0.2732
31630W        W74724  25.422   8.473  10.130 -0.0110  0.1246  0.1427
31631W        W74725  29.099   8.712   9.258 -0.0407 -0.0430 -0.0003
31632W        W74726  28.338   6.376   7.412  0.0303 -0.2017 -0.3304
31633W        W74727  26.144   4.251   8.930  0.0510 -0.1343 -0.3530
31634W        W74728  27.653   3.016   6.915  0.0322  0.1791 -0.0460
31635W        W74729  26.547   3.189   9.926 -0.3648  0.4555 -0.0172
31636W        W74730  25.381   6.610  10.585  0.0445 -0.0869  0.2642
31637W        W74731  25.522   5.270   7.821 -0.1788 -0.0714 -0.0311
31638W        W74732  24.747   4.861  10.361 -0.1459 -0.0989 -0.3821
31639W        W74733  26.973   5.327   7.486 -0.1237  0.0826  0.2325
31640W        W74734  26.419   6.270  10.036 -0.2703 -0.2959  0.0283
31641W        W74735  25.978   3.732   9.695  0.3474 -0.0838  0.1638
31642W        W74736  27.612   6.247   9.228 -0.0050 -0.0517  0.2588
31643W        W74737  25.476   3.721   6.795 -0.1058 -0.0586  0.0375
31644W        W74738  25.546   5.321  10.062 -0.4107 -0.0082  0.1344
31645W        W74739  24.750   3.393   9.712  0.2714 -0.2867 -0.1498
31646W        W74740  28.364   4.028   9.437  0.3283  0.2300 -0.1109
31647W        W74741  27.956   4.442   8.517 -0.2580 -0.2986  0.1328
31648W        W74742  27.346   6.931   8.593 -0.3168  0.1733  0.1210
31649W        W74743  26.180   7.578   8.624 -0.3270  0.0517 -0.2962
31650W        W74744  25.531   6.494   8.720 -0.3382 -0.0600  0.3652
31651W        W74745  25.697   8.082   6.523 -0.0286 -0.0047  0.0284
31652W        W74746  26.364   6.524   8.513 -0.0274  0.0522 -0.0011
31653W        W74747  29.753   5.088   8.179  0.3220 -0.0705 -0.0834
31654W        W74748  25.662   6.745   7.759  0.0774  0.2349  0.3571
31655W        W74749  25.193   4.392   9.486  0.1410 -0.1114 -0.0937
31656W        W74750  27.169   4.989   8.816  0.0847  0.0417 -0.0529
31657W        W74751  27.332   6.359   8.346  0.3195  0.2710  0.2800
31658W        W74752  26.395   6.860   9.353 -0.0743  0.0680  0.0473
31659W        W74753  26.441   7.052   8.468  0.2345 -0.2009  0.1207
31660W        W74754  25.866   5.890   7.196 -0.0387  0.1215 -0.0817
31661W        W74755  28.627   5.771   6.863 -0.0244 -0.0595  0.1852
31662W        W74756  26.895   4.430   7.075  0.1099  0.1667 -0.0804
31663W        W74757  29.243   5.153   7.190 -0.0685 -0.1841  0.2294
31664W        W74758  26.417   3.897   9.227  0.0080  0.1512 -0.3627
31665W        W74759  26.630   6.760   9.916 -0.0270 -0.0025 -0.3865
31666W        W74760  26.611   4.515   9.104 -0.1330  0.0938  0.0344
31667W        W74761  27.287   4.411   8.009 -0.0844 -0.2107  0.2717
31668W        W74762  26.020   4.214   9.530 -0.1286  0.1563  0.2665
31669W        W74763  24.921   5.556   9.010 -0.0763  0.0012  0.1872
31670W        W74764  25.320   4.277   8.789  0.1066 -0.4202 -0.0776
31671W        W74765  29.008   6.639   8.694  0.0572 -0.1993 -0.0322
31672W        W74766  29.652   5.946   9.094 -0.0403 -0.2636  0.1846
31673W        W74767  27.967   5.781   7.728 -0.1010 -0.0082 -0.1356
31674W        W74768  25.816   4.072   8.638 -0.1576 -0.0924  0.1216
31675W        W74769  27.844   4.382   6.182  0.1413 -0.1302 -0.0823
31676W        W74770  30.140   4.658   8.016  0.0584  0.0240  0.0120
31677W        W74771  26.655   6.560   9.052 -0.2836  0.1332 -0.0602
31678W        W74772  28.929   6.499   9.339  0.1437 -0.1673 -0.3395
31679W        W74773  28.819   5.813   8.052  0.1653 -0.2107  0.0107
31680W        W74774  27.181   3.524   9.560  0.1347  0.4190  0.2268
31681W        W74775  27.182   4.474   9.644  0.0008  0.0122  0.0795
31682W        W74776  27.069   6.028   5.326  0.0022  0.4339  0.1919
31683W        W74777  27.873   5.311   7.055 -0.0325 -0.3339  0.0282
31684W        W74778  29.870   8.180   9.780  0.3978  0.2769  0.0714
31685W        W74779  28.509   5.526   6.293  0.1707  0.0189 -0.0300
31686W        W74780  26.000   8.017   8.884  0.0856 -0.0651 -0.3375
31687W        W74781  26.456   6.739   7.120 -0.2309  0.0258 -0.0453
31688W        W74782  24.963   7.261   9.311 -0.2182  0.0763 -0.1197
31689W        W74783  27.004   7.274   8.532  0.2600  0.0054 -0.2834
31690W        W74784  26.083   5.086   9.777  0.4926  0.1487 -0.0147
31691W        W74785  27.865   5.682   9.018  0.0574  0.0128  0.0214
31692W        W74786  28.440   3.413   7.404  0.3822  0.0933  0.2873
31693W        W74787  29.205   5.281   9.220  0.2992  0.0528 -0.2803
31694W        W74788  26.207   6.021   7.523  0.1352  0.2207  0.1608
31695W        W74789  28.624   6.370   9.762 -0.0818 -0.1493 -0.0710
31696W        W74790  29.156   4.827   6.778  0.0748  0.0827 -0.2293
31697W        W74791  27.779   5.418   8.040 -0.1119  0.2075 -0.1794
31698W        W74792  23.738   5.518   9.767 -0.0730  0.2268  0.1843
31699W        W74793  25.875   4.673   8.305 -0.1496  0.0575  0.4554
31700W        W74794  25.821   3.904   9.119 -0.3429 -0.0984 -0.2093
31701W        W74795  25.523   2.803   8.729  0.1235 -0.1412  0.0255
31702W        W74796  28.151   4.351   8.994 -0.1011  0.2294  0.0260
31703W        W74797  26.659   3.688   8.632 -0.0308  0.1820  0.2720
31704W        W74798  25.953   5.381   8.043  0.1873 -0.0688  0.1930
31705W        W74799  27.611   7.899   8.672  0.1801  0.2896  0.0219
31706W        W74800  28.053   6.558   9.620  0.2587  0.5760  0.0488
31707W        W74801  28.566   6.693   8.308  0.1353  0.1011  0.3051
31708W        W74802  25.132   4.019  10.018 -0.2087 -0.1313  0.2712
31709W        W74803  26.611   4.940   7.147 -0.2022 -0.1299  0.1318
31710W        W74804  24.511   8.159   8.010 -0.0070  0.2184  0.2671
31711W        W74805  25.893   6.522   8.373  0.1131 -0.1620 -0.0809
31712W        W74806  26.382   5.231   7.695  0.0155  0.1184 -0.0590
31713W        W74807  30.752   6.527   9.943  0.3278 -0.1103 -0.0650
31714W        W74808  27.613   5.055   7.419  0.4166 -0.0386 -0.0162
31715W        W74809  27.628   5.164   8.924 -0.0312  0.0527 -0.1912
31716W        W74810  28.020   4.436   9.471  0.0918  0.3633 -0.2467
31717W        W74811  26.446   4.079   7.989  0.0451 -0.0535 -0.0476
31718W        W74812  26.924   5.394  10.092  0.0178  0.1405 -0.2175
31719W        W74813  26.573   6.648   7.635 -0.1496  0.0386 -0.3312
31720W        W74814  26.118   6.893   8.114  0.1763  0.1145  0.2505
31721W        W74815  26.500   6.089   8.829 -0.0734 -0.1297  0.0872
31722W        W74816  27.381   4.520  10.251  0.0717  0.0768 -0.2211
31723W        W74817  26.672   5.013   8.996  0.3266  0.1313  0.1389
31724W        W74818  27.916   3.767   8.052 -0.1294  0.3340 -0.2589
31725W        W74819  27.413   4.458   7.058  0.0794 -0.3065 -0.2128
31726W        W74820  28.936   5.450   9.818  0.2183  0.0541 -0.0121
31727W        W74821  28.117   4.339   7.479  0.0631 -0.0579  0.2738
31728W        W74822  26.435   3.651   5.336  0.2022 -0.2757 -0.2278
31729W        W74823  28.063   6.759   8.541  0.3659 -0.1755 -0.0100
31730W        W74824  26.359   7.455   9.731  0.2160  0.0793 -0.0051
31731W        W74825  27.651   4.139   7.396  0.0787  0.0313  0.1218
31732W        W74826  29.641   7.035  10.139  0.3300 -0.1997  0.3582
31733W        W74827  27.411   7.185   9.523 -0.0835  0.1847  0.0201
31734W        W74828  28.455   6.121   8.488  0.0221  0.1836 -0.0377
31735W        W74829  27.669   2.262   9.919  0.2348  0.1180 -0.2709
31736W        W74830  28.860   5.353   6.771 -0.1916  0.4246 -0.1096
31737W        W74831  28.029   3.804   7.488 -0.0759 -0.1462 -0.4976
31738W        W74832  26.015   7.047   7.632 -0.1875  0.0241 -0.0774
31739W        W74833  29.284   5.253  10.083 -0.1892  0.3726  0.0765
31740W        W74834  29.184   3.794  10.060 -0.0495 -0.1397 -0.2135
31741W        W74835  28.687   5.393   7.258  0.2520 -0.1329  0.0382
31742W        W74836  27.581   3.335  10.018 -0.2378 -0.0340 -0.1987
31743W        W74837  25.124   5.907   8.027 -0.4300 -0.2736 -0.0023
31744W        W74838  29.180   2.086   9.819  0.4889  0.0299  0.3994
31745W        W74839  25.139   6.903  10.236  0.2097  0.0538  0.1497
31746W        W74840  27.512   5.527   8.577  0.1949  0.0470 -0.1121
31747W        W74841  27.418   3.921   7.831  0.2133 -0.3102 -0.1682
31748W        W74842  27.432   7.333   7.116  0.0107 -0.0801 -0.2041
31749W        W74843  26.708   6.208   8.267  0.0838  0.0527 -0.0604
31750W        W74844  26.174   3.159   8.452 -0.1267 -0.0845  0.1367
31751W        W74845  28.503   7.982  10.128  0.1918 -0.1003 -0.0688
31752W        W74846  27.066   7.491   5.650  0.0773 -0.0678 -0.0862
31753W        W74847  28.775   6.107   8.866 -0.0074 -0.2463  0.0979
31754W        W74848  26.193   6.079   8.352  0.2792 -0.0133 -0.2361
31755W        W74849  28.228   2.531  10.108 -0.0368 -0.1808 -0.0808
31756W        W74850  25.655   7.643   9.647  0.0410  0.2008  0.1402
31757W        W74851  27.102   4.907   7.161 -0.3381  0.0096 -0.0672
31758W        W74852  25.038   5.110   8.718 -0.0903  0.0478 -0.1214
31759W        W74853  27.528   4.059   8.344 -0.1478 -0.2883 -0.0425
31760W        W74854  27.801   6.378   6.939 -0.1773 -0.1246 -0.0887
31761W        W74855  24.663   5.192   9.802  0.0261 -0.2350  0.1683
31762W        W74856  27.666   4.087   9.394  0.1890  0.1095  0.0834
31763W        W74857  25.329   7.313   8.960 -0.0311  0.0673 -0.1335
31764W        W74858  28.231   3.341   8.376 -0.0829  0.1298  0.0361
31765W        W74859  26.108   3.598   6.630 -0.2470 -0.0538 -0.0484
31766W        W74860  26.966   2.214   8.925  0.0326  0.0918  0.1664
31767W        W74861  27.156   4.416   9.072 -0.0589  0.3816 -0.0007
31768W        W74862  26.123   6.677   9.802 -0.0640  0.1479  0.1448
31769W        W74863  26.669   7.054   8.972  0.1713  0.3822  0.0616
31770W        W74864  26.308   5.769   9.156  0.0425  0.0134 -0.1408
31771W        W74865  25.848   5.720   9.482 -0.0410 -0.0605 -0.1524
31772W        W74866  27.953   5.270   8.595 -0.1401 -0.0682  0.2689
31773W        W74867  26.734   4.584   9.910 -0.0020 -0.0048 -0.0075
31774W        W74868  26.882   4.970   8.185  0.2765  0.0558  0.1939
31775W        W74869  27.587   4.612   9.290 -0.0185  0.3286  0.2364
31776W        W74870  28.025   5.805   8.587  0.0148 -0.2133 -0.0176
31777W        W74871  26.570   5.043   9.772  0.0061 -0.1158 -0.1378
31778W        W74872  27.003   3.552  10.020 -0.0386  0.0138  0.2739
31779W        W74873  28.852   7.861   9.245 -0.0621 -0.2410 -0.1037
31780W        W74874  27.323   5.448   5.608  0.0896  0.0488  0.1651
31781W        W74875  25.238   5.965   9.411  0.0257 -0.3900 -0.0690
31782W        W74876  25.978   6.222   8.906  0.1213 -0.1621  0.1799
31783W        W74877  28.239   2.064  10.023 -0.0332  0.1058  0.3035
31784W        W74878  27.182   6.757   9.929  0.0719 -0.2209 -0.2304
31785W        W74879  26.605   5.710   8.395  0.2024 -0.0428  0.0744
31786W        W74880  25.377   6.434  10.126  0.0292  0.2166  0.0295
31787W        W74881  29.136   4.370   7.616 -0.2212 -0.1728 -0.0878
31788W        W74882  27.740   5.883   6.849 -0.1003  0.2798  0.0881
31789W        W74883  28.393   5.178  10.031 -0.3558  0.0185 -0.1093
31790W        W74884  27.950   5.426   6.381 -0.1506  0.2627  0.0795
31791W        W74885  26.131   4.792   9.037 -0.0586 -0.3291  0.2613
31792W        W74886  27.616   4.946   8.438 -0.1374  0.1492 -0.3044
31793W        W74887  27.176   4.965   7.792 -0.2665  0.1760  0.2106
31794W        W74888  25.936   4.026   8.160 -0.0579 -0.1129 -0.0568
31795W        W74889  27.195   5.802   9.396  0.1414  0.1231 -0.2319
31796W        W74890  27.605   6.347   7.878  0.1518  0.1571  0.1176
31797W        W74891  27.117   5.803   8.269  0.0067 -0.0323 -0.1450
31798W        W74892  28.722   5.533   9.077 -0.2282 -0.0920 -0.0515
31799W        W74893  26.772   5.811   9.781 -0.1693 -0.2056  0.1688
31800W        W74894  29.267   5.870   6.707  0.1743  0.2483  0.0306
31801W        W74895  26.430   5.223   8.244 -0.1924  0.1937  0.1009
31802W        W74896  27.223   5.470   9.034 -0.1610  0.0140  0.1158
31803W        W74897  27.951   3.819   9.071 -0.0109 -0.1517 -0.3917
31804W        W74898  27.505   4.839   9.745 -0.1003  0.3996  0.0887
31805W        W74899  28.228   5.255   8.047 -0.1274  0.0043  0.0899
31806W        W74900  28.042   4.990   6.667 -0.0098  0.0168 -0.1824
31807W        W74901  28.681   4.361   9.602 -0.0303  0.0938 -0.0916
31808W        W74902  29.522   5.199   7.668  0.1358  0.1074 -0.2856
31809W        W74903  28.241   5.032   7.125 -0.2881 -0.1609 -0.1365
31810W        W74904  25.936   5.104   8.645 -0.3466 -0.3796  0.1621
31811W        W74905  27.527   3.636   7.403  0.0465  0.3978  0.0079
31812W        W74906  27.238   5.823   6.838 -0.0228 -0.0097 -0.0722
31813W        W74907  28.054   4.862   8.809  0.1231 -0.1679 -0.0800
31814W        W74908  27.595   4.197   8.831 -0.0251  0.1547 -0.1130
31815W        W74909  24.459   4.395   9.367  0.3095  0.1152 -0.1373
31816W        W74910  26.835   4.536   7.985 -0.0464  0.0613 -0.3478
31817W        W74911  27.251   6.333   6.806  0.0658  0.3349 -0.2160
31818W        W74912  27.759   6.951   9.976 -0.2292 -0.1581 -0.0562
31819W        W74913  27.421   3.464   6.918  0.0199 -0.1144 -0.2535
31820W        W74914  25.791   6.265   7.597  0.3228  0.0652  0.1251
31821W        W74915  26.818   3.429   9.087  0.1005  0.0520 -0.1429
31822W        W74916  25.227   7.742   9.863  0.0030 -0.1550  0.4267
31823W        W74917  25.801   7.536   9.087  0.1198 -0.1752 -0.2935
31824W        W74918  27.804   5.681   9.889  0.0711  0.1580  0.1870
31825W        W74919  28.129   3.345   8.930  0.1399  0.1922  0.0344
31826W        W74920  26.388   5.495   9.885 -0.0193 -0.4844 -0.2349
31827W        W74921  25.436   5.801  10.038  0.0628 -0.0212  0.1855
31828W        W74922  28.011   5.295   7.552 -0.1747  0.3366  0.3551
31829W        W74923  25.968   5.395   9.097  0.1318  0.0213  0.1596
31830W        W74924  27.087   4.519   7.509  0.0142 -0.0962 -0.0461
31831W        W74925  27.014   3.666   8.160 -0.1648 -0.1711 -0.0358
31832W        W74926  27.252   7.318   6.650 -0.1818  0.2707  0.0804
31833W        W74927  24.101   5.242   9.908 -0.0944  0.1478 -0.0920
31834W        W74928  26.119   6.578   7.452 -0.0825  0.1470  0.2535
31835W        W74929  26.814   5.986   9.224  0.0750 -0.0780  0.2030
31836W        W74930  27.681   6.567   8.821 -0.0121  0.0958 -0.0247
31837W        W74931  27.369   5.440   9.791  0.0774 -0.1169  0.0392
31838W        W74932  26.935   4.087   7.826  0.2779  0.1115  0.0362
31839W        W74933  26.606   4.297   9.537 -0.0559  0.0941 -0.3726
31840W        W74934  25.437   6.944   7.257  0.0841  0.1512 -0.0083
31841W        W74935  27.762   6.939   7.744 -0.0758  0.0111  0.2965
31842W        W74936  26.175   6.229   9.402 -0.2435 -0.1123  0.1356
31843W        W74937  28.472   5.102   7.643 -0.3395 -0.1528  0.1657
31844W        W74938  30.418   5.474   8.663 -0.1955 -0.1738  0.1371
31845W        W74939  28.616   5.600   8.602  0.2161  0.1118 -0.0523
31846W        W74940  27.812   6.214  10.001  0.2053  0.2058 -0.0227
31847W        W74941  26.972   3.535   7.154 -0.0226  0.0793  0.1688
31848W        W74942  28.724   8.023   8.319  0.1413 -0.0270 -0.0235
31849W        W74943  25.526   4.198   7.728  0.0605  0.2060  0.1292
31850W        W74944  27.340   5.076   9.315  0.2027  0.0287 -0.0570
31851W        W74945  28.276   6.914   9.934  0.1744 -0.2467  0.0671
31852W        W74946  27.041   6.361   5.915  0.1816 -0.0036  0.1256
31853W        W74947  25.692   5.290   9.587  0.1482 -0.2404  0.0433
31854W        W74948  25.622   5.859   8.994  0.0158  0.0110 -0.0270
31855W        W74949  25.817   4.682   9.591  0.1785 -0.2107  0.0467
31856W        W74950  28.014   7.103   9.502 -0.0283 -0.0426  0.3463
31857W        W74951  25.315   4.173   6.623  0.1270  0.3279 -0.1476
31858W        W74952  29.512   4.706   8.496 -0.0742  0.0167 -0.0496
31859W        W74953  24.818   4.714   9.529  0.3028  0.1628  0.1046
31860W        W74954  26.795   5.475   7.913  0.0011  0.1327 -0.0547
31861W        W74955  28.396   4.707   9.848 -0.2320  0.1589  0.0091
31862W        W74956  25.235   3.887   9.105  0.1727 -0.0011  0.0644
31863W        W74957  24.500   5.199   9.272  0.3638  0.0205 -0.1359
31864W        W74958  27.450   5.498   7.638  0.2060  0.2415 -0.0164
31865W        W74959  28.620   4.569   7.562 -0.2359 -0.2112  0.1400
31866W        W74960  27.485   3.538   8.324  0.0645 -0.3855  0.1617
31867W        W74961  27.356   4.992   6.390  0.1815 -0.1153 -0.0955
31868W        W74962  27.547   6.709   9.577  0.1289 -0.0414  0.2493
31869W        W74963  26.884   4.823   9.387  0.0145 -0.0311 -0.2615
31870W        W74964  24.358   5.270   8.768 -0.0761  0.1138 -0.0615
31871W        W74965  29.572   6.595   8.742 -0.1756 -0.1309 -0.0683
31872W        W74966  28.947   4.826   9.253 -0.0557 -0.0123  0.2326
31873W        W74967  26.901   7.038   7.665 -0.0581  0.1291 -0.0318
31874W        W74968  28.026   4.852   8.232  0.2130 -0.4449 -0.1523
31875W        W74969  28.118   6.269   8.825  0.4353 -0.2296  0.2915
31876W        W74970  25.388   5.496   9.237 -0.0410 -0.2891 -0.0311
31877W        W74971  27.480   6.072   9.682 -0.0601 -0.0479  0.0241
31878W        W74972  28.126   5.514   9.576  0.1257  0.0479  0.0431
31879W        W74973  26.914   4.201   8.364  0.1829 -0.1609  0.2213
31880W        W74974  26.271   4.712   8.606 -0.0895 -0.3257 -0.0751
31881W        W74975  26.483   7.158   7.950  0.2002 -0.3530  0.0847
31882W        W74976  21.685   2.779  11.553  0.0391 -0.3817  0.2053
31883W        W74977  27.308   6.721   7.701 -0.1751 -0.2485 -0.0820
31884W        W74978  25.858   6.643   9.323  0.1083  0.1444  0.0318
31885W        W74979  25.572   5.651   8.247  0.0241 -0.0626 -0.0035
31886W        W74980  26.873   5.530   7.041  0.0117  0.2709  0.0208
31887W        W74981  26.977   6.405   7.877  0.0722 -0.2142  0.0093
31888W        W74982  29.177   5.726   8.973  0.1017  0.0235 -0.0461
31889W        W74983  28.256   5.318   8.996 -0.1509 -0.0463 -0.2789
31890W        W74984  29.286   5.244   8.504  0.2120  0.2447  0.1256
31891W        W74985  27.343   4.565   8.600 -0.0182 -0.0893 -0.2756
31892W        W74986  28.835   4.406   8.015 -0.2341  0.0057 -0.0795
31893W        W74987  28.579   4.818   8.060  0.1570 -0.0815  0.0485
31894W        W74988  28.321   5.844   9.007 -0.2424  0.2000 -0.0125
31895W        W74989  24.664   5.660   8.592  0.2212 -0.0913  0.1228
31896W        W74990  25.226   6.073   6.346  0.2097 -0.1963 -0.0168
31897W        W74991  26.746   5.539   9.005  0.3954  0.2743  0.2680
31898W        W74992  24.676   5.848   9.961  0.1505  0.0234  0.0019
31899W        W74993  26.730   4.842   7.639  0.0230  0.4011  0.0601
31900W        W74994  29.296   6.069   8.086  0.1499  0.1890  0.2030
31901W        W74995  26.326   4.731   9.491 -0.0945 -0.2061  0.2176
31902W        W74996  25.128   3.313   9.411 -0.1998 -0.0685 -0.1551
31903W        W74997  28.088   5.727   7.248 -0.1639 -0.0676 -0.1842
31904W        W74998  29.108   5.684   8.493 -0.1684  0.0162 -0.3428
31905W        W74999  26.316   4.223   8.446 -0.0934 -0.0016  0.2563
31906W        W75000  26.378   5.747   6.876 -0.0512  0.0291  0.1973
31907W        W75001  26.003   3.569   7.113 -0.1649 -0.2052  0.1297
31908W        W75002  27.669   5.526   9.422  0.1058  0.4122  0.0371
31909W        W75003  28.129   6.404   7.857 -0.0055 -0.1123  0.0203
31910W        W75004  28.397   7.642   8.287 -0.0392  0.0672  0.4294
31911W        W75005  26.354   4.086   9.893  0.3501 -0.0835  0.0099
31912W        W75006  28.438   4.108   8.213 -0.1931 -0.2127  0.1711
31913W        W75007  29.034   5.371   7.629  0.0814 -0.1073 -0.2129
31914W        W75008  30.511   5.259  10.209  0.0429 -0.0381  0.0089
31915W        W75009  27.084   5.848   7.369 -0.1084 -0.2202  0.1370
31916W        W75010  29.391   4.333   9.913 -0.3240  0.1133  0.1996
31917W        W75011  25.701   4.657   8.799 -0.0330 -0.0186 -0.0520
31918W        W75012  27.690   3.660   8.709 -0.1174  0.0047  0.0306
31919W        W75013  27.028   5.921   8.728 -0.1435 -0.0270  0.2533
31920W        W75014  26.363   5.373   8.738  0.1563 -0.0320 -0.6215
31921W        W75015  27.821   4.293   7.961 -0.1653  0.4174 -0.0056
31922W        W75016  28.476   6.301   9.259  0.1688  0.1632 -0.3316
31923W        W75017  27.551   4.560   7.641  0.2894  0.1089 -0.2068
31924W        W75018  28.802   5.317   8.227 -0.3230 -0.1695 -0.0551
31925W        W75019  28.251   8.872   9.069  0.4109  0.1437 -0.1464
31926W        W75020  28.218   8.364   9.879  0.3216 -0.1394  0.0819
31927W        W75021  26.385   5.264   9.333  0.1868 -0.0710 -0.2640
31928W        W75022  25.554   4.324   9.877  0.0749 -0.0497  0.0857
31929W        W75023  26.814   4.660   8.639  0.1196  0.1444  0.0228
31930W        W75024  26.897   7.004   9.425 -0.0642  0.1189  0.0840
31931W        W75025  27.430   3.696   9.132  0.4404  0.0199  0.1376
31932W        W75026  25.553   5.129   8.280 -0.0783 -0.0466  0.1830
31933W        W75027  28.075   3.363   7.744  0.2405  0.2736 -0.2132
31934W        W75028  26.634   7.535   8.751  0.0540 -0.3444  0.1805
31935W        W75029  27.543   5.992   8.753  0.0907 -0.0176 -0.1065
31936W        W75030  27.726   8.748   1.543  0.0762 -0.2114 -0.2648
31937W        W75031  27.335   7.723  31.175  0.3386 -0.1374  0.1151
31938W        W75032  28.581   8.225  31.491 -0.0050  0.1319  0.0507
31939W        W75033  29.004   8.377  31.632  0.0660 -0.0759  0.0772
31940W        W75034  26.213   6.406  31.701  0.1456  0.2144  0.0935
31941W        W75035  28.019  11.281   1.185  0.1865 -0.0393  0.1663
31942W        W75036  25.233   7.725   4.289 -0.3144 -0.0992 -0.0642
31943W        W75037  28.260  10.733   1.116  0.3242  0.0538  0.2266
31944W        W75038  29.467  10.812   2.357 -0.0084 -0.0198 -0.3020
31945W        W75039  29.916   8.452  31.443  0.0309  0.0858  0.0767
31946W        W75040  26.606   8.464   2.713  0.1811 -0.0311  0.1045
31947W        W75041  28.263  10.535   2.897  0.1546  0.0218  0.3436
31948W        W75042  28.504   8.305   0.067  0.1130 -0.3285 -0.0643
31949W        W75043  25.905   7.232   1.349  0.4269 -0.1511 -0.0343
31950W        W75044  28.139   8.778   1.893 -0.3147  0.0908  0.0293
31951W        W75045  25.785   9.069  31.935  0.2074 -0.3348 -0.0270
31952W        W75046  27.311   9.670   3.174 -0.2273  0.0230  0.0719
31953W        W75047  27.116   8.229  31.243  0.0967 -0.3786  0.0310
31954W        W75048  26.721  11.226   1.878  0.0667 -0.2642 -0.1971
31955W        W75049  27.193   8.585   3.596 -0.2093 -0.2942  0.2214
31956W        W75050  28.100   8.117   1.815  0.2153  0.1812 -0.2553
31957W        W75051  27.624   9.998   1.747 -0.2027 -0.1132  0.0578
31958W        W75052  26.117   8.881  31.011 -0.1413  0.2553  0.0279
31959W        W75053  26.541   9.456   2.484 -0.2154 -0.0290  0.0631
31960W        W75054  26.397   9.150   0.938  0.0353  0.0655  0.1233
31961W        W75055  29.307   9.190   2.781 -0.3265  0.2170  0.1782
31962W        W75056  28.605   8.828   1.586 -0.1312  0.0994  0.0075
31963W        W75057  27.302  11.630   2.368  0.0160 -0.0398  0.0075
31964W        W75058  27.769  10.780   2.368 -0.2054  0.1106  0.2133
31965W        W75059  27.900   9.471   3.941  0.0184 -0.1079 -0.1984
31966W        W75060  25.516   9.374   2.300 -0.2354 -0.1521 -0.3359
31967W        W75061  24.799   9.756   1.452  0.0989  0.3631 -0.4234
31968W        W75062  27.057  11.030  31.764 -0.2044 -0.1186  0.3073
31969W        W75063  29.081  10.654  31.878  0.2259  0.0856  0.1008
31970W        W75064  29.741   9.906   2.888 -0.2742 -0.0177  0.1869
31971W        W75065  25.625   9.262   2.814  0.0134 -0.0876  0.3625
31972W        W75066  27.280   9.959   0.174 -0.2105 -0.3077  0.1327
31973W        W75067  29.069  10.685   3.191 -0.3178  0.3260  0.1867
31974W        W75068  27.202  10.378   2.772 -0.3937  0.0211 -0.2739
31975W        W75069  26.177   8.898   1.738 -0.0456  0.1666  0.3749
31976W        W75070  26.829   9.262   1.803  0.2675  0.0883 -0.0998
31977W        W75071  27.131  10.220   1.407 -0.1100  0.0323  0.2063
31978W        W75072  27.728  11.539   1.964  0.2478 -0.0476 -0.0446
31979W        W75073  27.760  10.533   3.253  0.1360 -0.1117  0.0363
31980W        W75074  25.519   9.209   1.199  0.3586  0.2928  0.1524
31981W        W75075  29.340   8.702   3.838  0.1903 -0.1138 -0.1798
31982W        W75076  26.634  11.889   0.365  0.2451  0.3649 -0.0814
31983W        W75077  28.652   9.039  31.345 -0.0986  0.4786  0.0595
31984W        W75078  26.976   9.036  30.545 -0.3436  0.2939  0.2186
31985W        W75079  27.626   8.323  31.689  0.2433 -0.2720  0.1457
31986W        W75080  26.816   8.760   1.597  0.0287  0.2828  0.0037
31987W        W75081  26.953  10.148   1.901  0.0308  0.0317 -0.0415
31988W        W75082  25.588   7.992   2.022 -0.1743 -0.0897 -0.0166
31989W        W75083  27.627   9.296   3.030  0.2419 -0.0543  0.2165
31990W        W75084  29.397   9.015   0.574  0.1122 -0.0608 -0.0201
31991W        W75085  28.653   7.454   0.961 -0.1671 -0.4073  0.3680
31992W        W75086  25.619  10.271   2.308  0.0637 -0.0048 -0.0737
31993W        W75087  25.825   8.136  31.631 -0.0407 -0.0933 -0.1594
31994W        W75088  28.091  10.698  31.939 -0.2474  0.0255 -0.0088
31995W        W75089  28.646  12.053   2.154  0.0110  0.1841  0.2129
31996W        W75090  28.397  11.742  30.879 -0.2529  0.0437 -0.2586
31997W        W75091  25.934   9.440  31.659 -0.1108 -0.0308  0.0779
31998W        W75092  25.017   9.829   3.673 -0.1206  0.3182 -0.1177
31999W        W75093  25.746   9.663   4.341 -0.0290 -0.1702 -0.1786
32000W        W75094  27.285   6.980   0.573 -0.2899  0.1148  0.0929
32001W        W75095  30.064  10.284   3.511  0.1060  0.4700 -0.0701
32002W        W75096  25.939  10.236   2.731 -0.1260  0.2436  0.2380
32003W        W75097  28.792   9.234   0.442  0.0226  0.1792 -0.1197
32004W        W75098  26.437   8.681   1.199  0.0008 -0.0249 -0.1538
32005W        W75099  28.154  10.938   2.627  0.0693  0.1398 -0.2826
32006W        W75100  28.965   9.751   0.528  0.1820 -0.1891 -0.1772
32007W        W75101  28.109   6.697   1.886 -0.0503 -0.0412 -0.2286
32008W        W75102  28.052   7.681   0.899  0.1353  0.0002 -0.3723
32009W        W75103  25.181   8.218   0.384 -0.1044  0.0342  0.3922
32010W        W75104  27.849   8.147   0.747  0.2747 -0.0349 -0.0616
32011W        W75105  30.185   9.833   3.040 -0.2288 -0.0553 -0.1244
32012W        W75106  27.986   9.589   0.273 -0.1780  0.1279  0.1055
32013W        W75107  25.094   9.992   2.220  0.2939 -0.0824  0.0593
32014W        W75108  26.048   8.151   3.135 -0.1505  0.3401  0.0653
32015W        W75109  27.492   9.930   4.865  0.0424 -0.0645 -0.0188
32016W        W75110  25.600   9.873   0.435 -0.2343  0.1178  0.0673
32017W        W75111  25.731   9.429   3.281  0.1896 -0.0573  0.0159
32018W        W75112  24.622   9.554   0.648  0.1586  0.1658  0.1500
32019W        W75113  25.435   7.452   2.188 -0.1770  0.0654  0.2699
32020W        W75114  26.510   8.905   2.566 -0.3622  0.0091 -0.2846
32021W        W75115  29.296  10.219   0.172 -0.0550 -0.3124 -0.1090
32022W        W75116  25.511   8.169   3.394 -0.1033  0.0405 -0.2438
32023W        W75117  29.051   8.638   0.531  0.0593 -0.0310  0.1665
32024W        W75118  26.341   9.940   1.807 -0.2132  0.2243 -0.0636
32025W        W75119  28.815  11.996   2.633  0.0373  0.0120  0.1412
32026W        W75120  29.604   9.669  31.521  0.0948  0.0438 -0.0790
32027W        W75121  28.462  10.149  31.240  0.3534  0.1235 -0.2462
32028W        W75122  24.095   8.192   1.919 -0.1213  0.1733 -0.4701
32029W        W75123  26.857   8.158   0.517  0.1578 -0.1050  0.1705
32030W        W75124  26.324   7.993   2.758 -0.1782  0.1974 -0.0264
32031W        W75125  26.011   8.743   0.896 -0.1001 -0.2132  0.0167
32032W        W75126  28.741   9.278   2.922 -0.3108  0.4368 -0.3776
32033W        W75127  24.262   8.745   0.145 -0.1849  0.2236 -0.0416
32034W        W75128  27.652   8.587   0.670 -0.2069  0.1113 -0.3916
32035W        W75129  27.077   9.306   1.320 -0.1677  0.0538  0.0671
32036W        W75130  24.642   9.403   0.094 -0.1273  0.3641 -0.0876
32037W        W75131  29.333   6.995   2.875  0.4179  0.1646 -0.1116
32038W        W75132  27.738  10.087   0.590  0.1011  0.1362  0.2444
32039W        W75133  29.194   9.699   2.882  0.1183 -0.0495 -0.1874
32040W        W75134  28.566  11.097   1.868 -0.3007 -0.0570 -0.1472
32041W        W75135  26.528   8.159   2.248  0.2541  0.0317 -0.0068
32042W        W75136  26.532   9.427   0.423  0.0951 -0.3444 -0.0664
32043W        W75137  25.873  10.178   1.703 -0.1024 -0.1459  0.2745
32044W        W75138  25.938  10.666   2.117  0.3443  0.3411 -0.2417
32045W        W75139  25.777   7.660  30.708 -0.4109  0.0338 -0.0019
32046W        W75140  28.531  11.667   2.958 -0.0884  0.0638 -0.0347
32047W        W75141  27.862   9.681   2.097  0.0069 -0.2774  0.4301
32048W        W75142  25.240   9.346   3.344 -0.1280  0.2272  0.0100
32049W        W75143  27.348   7.616   3.729  0.0549 -0.0949 -0.3058
32050W        W75144  27.707   8.524   2.697 -0.1412  0.3327 -0.1357
32051W        W75145  27.018   9.304   2.373 -0.2794 -0.1700  0.0250
32052W        W75146  26.745   6.728  31.955  0.2844  0.1303 -0.0509
32053W        W75147  27.793  10.885   1.417 -0.1965 -0.1249 -0.0569
32054W        W75148  24.916   9.877   0.984 -0.0739  0.0647 -0.2995
32055W        W75149  25.559   6.901   0.471 -0.1987 -0.4076 -0.0389
32056W        W75150  28.187  10.797   1.730  0.0585  0.0101 -0.0977
32057W        W75151  28.310   7.147   1.792 -0.0444  0.1312  0.0928
32058W        W75152  25.267   9.458   4.390 -0.1108  0.3000  0.1679
32059W        W75153  28.024   8.709   3.102  0.3159 -0.0218 -0.2012
32060W        W75154  25.620   8.066  31.186 -0.2073  0.0624  0.0139
32061W        W75155  26.974   9.942   2.956  0.2905  0.2381  0.0715
32062W        W75156  29.540   7.872   0.435 -0.0293 -0.0715 -0.1497
32063W        W75157  29.046   6.747  31.730 -0.1343  0.0152 -0.2573
32064W        W75158  28.853   9.565   3.470 -0.1149  0.0330  0.2813
32065W        W75159  27.855  11.025  31.604 -0.0017 -0.1831 -0.1365
32066W        W75160  28.977   7.420  31.901  0.0546 -0.0877 -0.0836
32067W        W75161  27.911   7.987   0.057 -0.0191  0.1149 -0.0354
32068W        W75162  25.050  10.483   2.098  0.1279  0.0346  0.3352
32069W        W75163  27.221   9.766   0.949  0.0136  0.1094  0.1430
32070W        W75164  27.212   9.655   2.040  0.1727 -0.0201 -0.0945
32071W        W75165  29.410   8.201   0.843  0.2005 -0.1001 -0.1502
32072W        W75166  29.136  10.325   2.197  0.1612  0.1108  0.1083
32073W        W75167  26.980  11.505   2.790  0.1050  0.2306 -0.3344
32074W        W75168  26.727  10.451   3.243 -0.1577 -0.0879  0.4411
32075W        W75169  28.288   9.943   0.669  0.0495  0.1104  0.0443
32076W        W75170  26.787   8.327   1.853  0.3076  0.2280 -0.0368
32077W        W75171  26.120   9.152   0.412  0.0639 -0.1364 -0.1239
32078W        W75172  27.537   6.919   1.056 -0.1407  0.1075  0.1065
32079W        W75173  26.035  10.504  31.082 -0.0304  0.1385 -0.0671
32080W        W75174  28.315   8.316   0.963  0.0221 -0.0757  0.2549
32081W        W75175  28.078   7.620   1.547 -0.0414  0.1809 -0.2128
32082W        W75176  28.215   8.531   1.403  0.1401 -0.0367  0.0517
32083W        W75177  28.295   8.401   2.785  0.1439 -0.2444  0.0797
32084W        W75178  28.239   9.656  31.263 -0.0037  0.0235 -0.1304
32085W        W75179  27.839   9.140   0.673 -0.0101  0.0141 -0.0560
32086W        W75180  26.229   8.375  31.906 -0.0127  0.2249 -0.0115
32087W        W75181  26.249   7.490   1.657  0.1884 -0.0084 -0.0264
32088W        W75182  27.056   9.824   3.600  0.1070 -0.1933  0.0735
32089W        W75183  25.488  10.793   2.338 -0.3826  0.3569  0.0339
32090W        W75184  30.049   8.913   3.533  0.0529 -0.0511 -0.1550
32091W        W75185  27.541  11.777   0.851 -0.1100 -0.4469  0.0805
32092W        W75186  27.066   7.854   2.200 -0.0126  0.0394  0.0678
32093W        W75187  27.247   8.425   0.283 -0.0125  0.2579  0.1264
32094W        W75188  27.406  10.447   1.810  0.0368  0.0684  0.1758
32095W        W75189  27.252   8.643  31.495  0.1530  0.1185 -0.1132
32096W        W75190  25.420   7.191   1.427 -0.3130  0.2550  0.0914
32097W        W75191  26.873  10.363   2.330  0.1434  0.1394  0.0580
32098W        W75192  28.321   9.096  31.689  0.2258  0.2901  0.3545
32099W        W75193  27.889  10.130   2.982  0.2518  0.1012  0.2687
32100W        W75194  26.761   9.501   0.915  0.2155  0.1770 -0.3160
32101W        W75195  28.393   7.852   1.225 -0.1101 -0.1299  0.0874
32102W        W75196  26.719   9.686   2.053  0.2887 -0.3340 -0.2413
32103W        W75197  26.711   8.495   0.131  0.1696 -0.0913  0.2029
32104W        W75198  24.954   8.493   1.212 -0.0024  0.1812  0.2153
32105W        W75199  27.804   7.270   1.761  0.0522  0.1900 -0.2846
32106W        W75200  28.114  10.911  30.790  0.0166  0.1372 -0.0987
32107W        W75201  25.191   8.531   3.323  0.2056  0.0312 -0.0555
32108W        W75202  27.239   8.677   1.934  0.0836  0.3059 -0.2068
32109W        W75203  25.817  10.671   2.689 -0.1905  0.1940 -0.1991
32110W        W75204  27.712   8.596   2.152 -0.3982 -0.0947  0.5347
32111W        W75205  28.067   8.189  31.472  0.1419 -0.0250 -0.2189
32112W        W75206  28.018  10.959   3.537 -0.0491  0.0411 -0.3856
32113W        W75207  28.199   8.458   4.649 -0.0601 -0.1019 -0.0165
32114W        W75208  24.163   8.773   0.614  0.0685 -0.3084  0.1348
32115W        W75209  27.298   9.146   2.035 -0.0741 -0.2140 -0.1727
32116W        W75210  26.780   9.039   0.515 -0.0337  0.2575  0.0480
32117W        W75211  25.007   9.256   0.713 -0.1280  0.0337  0.3629
32118W        W75212  28.165  10.445   2.404  0.0222 -0.2298  0.1197
32119W        W75213  25.727   8.146   0.201  0.1912 -0.2164 -0.1741
32120W        W75214  26.222   8.459  31.291  0.0237 -0.2275 -0.1609
32121W        W75215  26.849   8.387   3.215 -0.5055 -0.0799  0.0826
32122W        W75216  28.102   9.171   2.947  0.1734  0.2108 -0.1836
32123W        W75217  25.694   7.548   1.737 -0.0568 -0.1906  0.2637
32124W        W75218  26.076   7.830   0.866 -0.2095 -0.0077  0.2542
32125W        W75219  26.042   9.099   1.279 -0.0201 -0.0746 -0.1002
32126W        W75220  27.256   9.729   1.480 -0.1436 -0.0484  0.1342
32127W        W75221  26.143   8.519   2.467  0.1572  0.0108  0.1259
32128W        W75222  26.234   8.649   3.488  0.2493 -0.2658 -0.3098
32129W        W75223  27.712   6.807   1.540  0.1375 -0.0911 -0.1907
32130W        W75224  29.501  12.218   1.147  0.0907  0.1307 -0.2053
32131W        W75225  28.235   8.379   2.306 -0.3362 -0.2077  0.1189
32132W        W75226  27.314   8.249   0.747  0.0834  0.1311  0.3931
32133W        W75227  26.075  10.196   2.203 -0.3385 -0.0450  0.0728
32134W        W75228  25.407   9.640   0.835  0.2777  0.0714  0.2476
32135W        W75229  27.611   7.276   2.445 -0.0913  0.1275 -0.0468
32136W        W75230  25.454   8.987   0.734 -0.0766  0.1380 -0.3648
32137W        W75231  26.338   8.175   0.404 -0.0960 -0.0176 -0.1745
32138W        W75232  26.608   8.927   3.354  0.0586 -0.0351 -0.4741
32139W        W75233  29.305   7.712  31.602 -0.0726  0.0356  0.1611
32140W        W75234  26.859  10.178  31.144  0.1442 -0.2569 -0.1834
32141W        W75235  27.228   8.001   1.254 -0.3761  0.1680  0.0986
32142W        W75236  29.294   7.326   2.502 -0.1083 -0.1307 -0.1461
32143W        W75237  27.285   8.808  31.017  0.2442  0.2601 -0.0794
32144W        W75238  28.773   8.069   3.450 -0.0088 -0.0737 -0.1820
32145W        W75239  25.997   8.013   2.288  0.1444 -0.0332 -0.2644
32146W        W75240  28.755   9.763   1.704 -0.1586 -0.1557  0.0091
32147W        W75241  25.606   7.929   3.886  0.2551  0.2710  0.0404
32148W        W75242  28.283  11.314   4.161  0.1895  0.1791  0.3679
32149W        W75243  26.094   9.252   4.157 -0.0980  0.2297  0.2299
32150W        W75244  27.263   7.429   1.114 -0.1816 -0.1281 -0.1167
32151W        W75245  26.733   7.360  31.965  0.2123 -0.0102  0.0071
32152W        W75246  27.694   8.992   2.630 -0.1225  0.1068  0.3930
32153W        W75247  28.371   9.849   1.186  0.2026  0.1020  0.2501
32154W        W75248  28.505  10.403   0.689 -0.2993  0.0254  0.0690
32155W        W75249  28.458   8.869   0.231  0.1788 -0.1356 -0.2804
32156W        W75250  25.663   8.844   2.138 -0.0867 -0.0216 -0.2604
32157W        W75251  28.116   8.809   0.857  0.0260 -0.1242 -0.0417
32158W        W75252  26.620   8.189  31.424 -0.2885 -0.0130  0.3468
32159W        W75253  25.933   9.295   1.986 -0.1897  0.0654 -0.1932
32160W        W75254  26.824   8.017   3.657 -0.0571 -0.1047  0.1422
32161W        W75255  27.753  11.016   1.892 -0.0542 -0.0283 -0.2680
32162W        W75256  27.074   7.385   2.123  0.0019  0.1728  0.2940
32163W        W75257  26.440   9.164   2.093  0.1044 -0.3085 -0.0323
32164W        W75258  28.360   7.927   2.293 -0.2992 -0.3219  0.0904
32165W        W75259  27.553   9.842   3.823  0.1847  0.1404  0.2358
32166W        W75260  25.496   7.683   3.474  0.1694 -0.0757 -0.0745
32167W        W75261  29.799  11.157   2.680 -0.1261 -0.2218 -0.1176
32168W        W75262  28.596   9.508  31.579 -0.3047 -0.2199  0.2955
32169W        W75263  28.555   7.782   1.751  0.2001  0.0692 -0.0303
32170W        W75264  27.947   8.043   1.305 -0.1627 -0.1419 -0.0096
32171W        W75265  29.169   8.753   0.062 -0.0595 -0.2292  0.0994
32172W        W75266  25.664   7.737   2.544  0.1413 -0.2418 -0.0581
32173W        W75267  29.129  10.517   2.633  0.0728  0.1587  0.0060
32174W        W75268  25.766   8.544  31.905  0.1019  0.0430  0.2116
32175W        W75269  27.145   8.477   1.405  0.1089  0.4301  0.0877
32176W        W75270  27.509   9.409   0.375 -0.2100 -0.1274  0.0200
32177W        W75271  27.854  10.392   2.000  0.0550  0.3271  0.1978
32178W        W75272  27.533   7.862   0.416  0.1021  0.0372 -0.3020
32179W        W75273  26.983   9.840   2.491  0.0563 -0.1231  0.0072
32180W        W75274  25.745  11.278   2.839  0.2665  0.0612 -0.1527
32181W        W75275  25.409   9.444  31.544  0.3201 -0.0766  0.2063
32182W        W75276  25.596   8.484   0.572  0.1824 -0.0401  0.1832
32183W        W75277  28.133   8.797   2.541  0.1342  0.3625 -0.2940
32184W        W75278  29.981  10.765   3.483 -0.2815 -0.1752  0.0275
32185W        W75279  27.644   7.387   0.699 -0.2666  0.0729 -0.1315
32186W        W75280  28.045   9.191   3.521 -0.0834 -0.1951  0.0340
32187W        W75281  25.589   9.441   1.669  0.0450 -0.0591  0.2164
32188W        W75282  27.551   7.729   2.647  0.1948  0.2814  0.1167
32189W        W75283  26.141  11.619   2.680  0.1147  0.2376  0.0198
32190W        W75284  24.822   9.037   3.182 -0.3685 -0.3481 -0.0681
32191W        W75285  26.330   9.399   1.576 -0.1328  0.0066  0.3961
32192W        W75286  26.854   7.931   2.686 -0.2686  0.0506  0.1568
32193W        W75287  28.151   9.095   1.514 -0.3350  0.0529 -0.0959
32194W        W75288  26.969   8.355   2.331  0.1321 -0.2492  0.1285
32195W        W75289  28.398   7.732   2.722  0.0371 -0.1527 -0.2295
32196W        W75290  28.554   9.936   3.852  0.0512 -0.1754 -0.3457
32197W        W75291  27.312   8.769   2.454 -0.3469  0.2308  0.1711
32198W        W75292  27.795   9.151   2.086 -0.1026  0.0447  0.0787
32199W        W75293  28.182  10.037   2.091  0.0422  0.2885 -0.0036
32200W        W75294  26.155  10.132   1.250  0.0671  0.0847 -0.2660
32201W        W75295  25.794   8.759   2.701 -0.0500  0.2346  0.1005
32202W        W75296  26.756   9.693   1.473 -0.0904 -0.1520  0.1396
32203W        W75297  26.699   7.820   0.867  0.1177  0.0132 -0.0508
32204W        W75298  28.096   8.571   0.379  0.1634 -0.0660  0.0775
32205W        W75299  25.705   9.950   3.013 -0.0266 -0.2162 -0.0748
32206W        W75300  25.871   8.407   3.774 -0.1166 -0.1425  0.0273
32207W        W75301  26.908  10.729   1.425 -0.0721 -0.0911  0.1303
32208W        W75302  28.291   9.274   0.518  0.0200  0.1050 -0.0419
32209W        W75303  27.025   9.415   0.423 -0.4887 -0.1254  0.0083
32210W        W75304  28.106  12.713   2.315  0.0266  0.0304  0.1509
32211W        W75305  26.421   7.986  30.966  0.0202 -0.0214 -0.2100
32212W        W75306  26.935  10.758   1.934  0.3294  0.1415  0.0079
32213W        W75307  25.790  10.881   0.445  0.1353  0.0080  0.1541
32214W        W75308  27.197  11.740  31.544 -0.2482  0.2642 -0.2453
32215W        W75309  25.962   9.739   1.549 -0.1684 -0.2082 -0.1555
32216W        W75310  29.155  11.016   2.738 -0.0568 -0.2369 -0.0091
32217W        W75311  27.999   7.609  31.675 -0.1607 -0.2575  0.0486
32218W        W75312  28.599   8.385   0.550  0.0112  0.2216  0.0754
32219W        W75313  29.846   8.652   1.789  0.0352 -0.3015 -0.2018
32220W        W75314  27.763  11.462   3.302 -0.0266  0.0076  0.2710
32221W        W75315  26.718   8.611   3.678 -0.1505  0.0743  0.1600
32222W        W75316  28.365   8.728  30.824 -0.0291 -0.3134  0.0917
32223W        W75317  27.442   9.901   2.780  0.0661  0.0152  0.1147
32224W        W75318  29.584   7.919   3.592  0.0218 -0.0405  0.1510
32225W        W75319  24.446  11.083   3.262 -0.0669  0.3257  0.0295
32226W        W75320  28.825  11.648  31.210  0.2194  0.1304 -0.2445
32227W        W75321  26.817   7.662  30.363  0.1945  0.0016  0.1705
32228W        W75322  27.577   8.333   1.199 -0.0799  0.0885 -0.1480
32229W        W75323  29.408   6.895   2.365 -0.0943  0.0713  0.2234
32230W        W75324  28.638   8.727  31.759 -0.4786 -0.1623 -0.0338
32231W        W75325  28.912   8.023   0.390 -0.0934 -0.2034 -0.0785
32232W        W75326  27.326  11.272   3.168  0.0027  0.1136 -0.1823
32233W        W75327  26.052  10.618   1.438 -0.1256  0.0829 -0.1163
32234W        W75328  28.303  11.798   2.516  0.0289 -0.1233 -0.2349
32235W        W75329  25.666   7.625   0.068  0.3962 -0.1434 -0.1932
32236W        W75330  29.288   9.410   0.848 -0.1699  0.3985 -0.0315
32237W        W75331  27.094   9.347   2.836  0.0726  0.0639  0.1750
32238W        W75332  28.632   7.471   2.168  0.1795  0.2185  0.1591
32239W        W75333  25.500   6.903  31.951 -0.0852  0.0869  0.2435
32240W        W75334  28.866   9.168  31.904 -0.3529  0.3787  0.0871
32241W        W75335  28.299   7.947   0.446  0.0582  0.2688  0.0178
32242W        W75336  26.393   8.655   2.094  0.1535  0.4923 -0.0698
32243W        W75337  27.854   9.154  31.525 -0.2485  0.2965 -0.0780
32244W        W75338  29.061   8.807   3.050 -0.2940  0.3248 -0.3725
32245W        W75339  27.473  11.267   1.057 -0.0088 -0.0490  0.2659
32246W        W75340  28.353  12.128   2.908 -0.0416  0.0510 -0.2440
32247W        W75341  25.274   7.650   1.523  0.2415  0.1494 -0.2908
32248W        W75342  27.548   7.836   0.961 -0.1472  0.1510  0.2185
32249W        W75343  26.102   9.162   2.512 -0.1255  0.0478  0.2208
32250W        W75344  26.824   8.851   2.179  0.2328 -0.2234  0.1583
32251W        W75345  28.211  11.792   3.884 -0.2103  0.2103 -0.1295
32252W        W75346  26.861   7.272   0.843 -0.0221 -0.1389  0.0467
32253W        W75347  27.678   9.891  31.855 -0.4838 -0.2936  0.1951
32254W        W75348  27.615   8.162   1.855 -0.1138 -0.1735 -0.1085
32255W        W75349  26.726  10.058   1.098  0.0368 -0.2432 -0.1470
32256W        W75350  28.307   9.274   1.940 -0.2295  0.0592  0.0639
32257W        W75351  27.780  12.493   2.798  0.1581  0.2929  0.3992
32258W        W75352  26.291   9.871   2.879  0.2568 -0.0820  0.0010
32259W        W75353  28.391  10.030   2.672  0.2211 -0.4383 -0.2943
32260W        W75354  27.898  10.034   2.490 -0.0150 -0.2112 -0.0992
32261W        W75355  27.092   7.912   0.175 -0.3171 -0.0076  0.1561
32262W        W75356  25.914   8.285   1.041  0.0690  0.3419  0.1975
32263W        W75357  26.061   8.601   0.431 -0.0135 -0.4593  0.2049
32264W        W75358  28.144   9.651   1.640  0.1422  0.0640 -0.2217
32265W        W75359  28.346   7.092   2.803  0.0614  0.3651  0.0915
32266W        W75360  28.090  10.063   0.090 -0.3828  0.2465  0.3471
32267W        W75361  29.075   8.389   2.163  0.1081  0.0714  0.4221
32268W        W75362  27.695  10.534   2.767 -0.1580 -0.1552 -0.6104
32269W        W75363  25.587  10.157   4.631 -0.2231 -0.1919 -0.1030
32270W        W75364  25.412   8.913  31.708  0.1431 -0.4144 -0.0426
32271W        W75365  27.782  11.066   2.975 -0.0142  0.1638  0.3034
32272W        W75366  26.879   8.920   1.037 -0.1476  0.0042 -0.1171
32273W        W75367  26.309   9.646   1.145  0.2915 -0.0422  0.0761
32274W        W75368  28.709  10.791   2.827  0.0265 -0.2040 -0.3622
32275W        W75369  26.855   8.444   1.041 -0.0619  0.2765 -0.2788
32276W        W75370  28.525  11.558   1.770 -0.0734 -0.1046  0.2008
32277W        W75371  27.541   7.589   2.094  0.0826 -0.4667 -0.0726
32278W        W75372  29.187   8.253   1.292  0.4016  0.3889 -0.0616
32279W        W75373  28.701   8.151   1.468 -0.1678  0.3376 -0.0048
32280W        W75374  26.628   9.492   2.958  0.0968 -0.0976  0.0204
32281W        W75375  25.356   8.693   0.190  0.2081 -0.0642 -0.1621
32282W        W75376  27.185  10.259   0.541 -0.1220 -0.1001  0.1451
32283W        W75377  26.222   8.594   3.001 -0.0431 -0.2687  0.1515
32284W        W75378  26.362   9.011   4.940  0.1050  0.1716 -0.1262
32285W        W75379  24.521   8.041   3.844 -0.0190  0.2916 -0.1394
32286W        W75380  26.388  10.470   1.950  0.2058  0.0576 -0.0544
32287W        W75381  26.003   7.297   0.822 -0.0441  0.1045  0.0122
32288W        W75382  29.422   9.845   1.090 -0.0353 -0.0749 -0.0132
32289W        W75383  26.176   7.893   1.348  0.1869  0.1579  0.0785
32290W        W75384  24.633   8.867   1.367 -0.1100 -0.1248 -0.1249
32291W        W75385  28.123  10.505   0.409  0.2947  0.1162 -0.2594
32292W        W75386  28.789  10.260   1.690  0.0128  0.0431  0.0272
32293W        W75387  26.294   6.846   0.089  0.1425 -0.1395  0.1362
32294W        W75388  29.619   9.120   3.618 -0.1423  0.0810 -0.0623
32295W        W75389  25.957   9.598   0.173  0.1540 -0.2561 -0.1480
32296W        W75390  27.109   8.629   4.106  0.1661 -0.0390  0.0647
32297W        W75391  26.106   7.536   2.711  0.4937 -0.0078 -0.1876
32298W        W75392  25.970   8.064  30.834 -0.1843  0.3093  0.1225
32299W        W75393  26.342   8.378   1.590  0.1257  0.0563  0.0822
32300W        W75394  27.912   9.648   0.749  0.3435 -0.2104  0.1159
32301W        W75395  26.916  11.477   0.637  0.3456  0.2571  0.0698
32302W        W75396  27.315  11.057   2.708  0.1267 -0.1500  0.0344
32303W        W75397  27.910  11.984   2.823  0.0359  0.3488  0.2293
32304W        W75398  24.878   7.505   2.266  0.0578  0.0105 -0.1295
32305W        W75399  27.812   9.886   1.307 -0.2576  0.2076  0.1985
32306W        W75400  26.586   9.919   3.276 -0.0635 -0.0527  0.2940
32307W        W75401  29.703  10.711   0.508  0.2629  0.1398  0.0634
32308W        W75402  28.734   8.469   2.534  0.1783  0.2250 -0.1935
32309W        W75403  26.490   8.641   0.651  0.1609  0.1632 -0.0360
32310W        W75404  25.173   7.107   3.497  0.1699  0.3711 -0.0553
32311W        W75405  26.366  10.867   2.943  0.2021  0.0592 -0.1530
32312W        W75406  28.962  10.045   2.567  0.3554 -0.1907 -0.0385
32313W        W75407  23.176   7.641   2.375  0.4178 -0.1262 -0.2322
32314W        W75408  27.453   8.793   1.090 -0.0075  0.1754  0.3213
32315W        W75409  27.486  10.576   0.651  0.0738  0.1850 -0.1412
32316W        W75410  25.992   8.402   1.978 -0.1777 -0.2540  0.0803
32317W        W75411  27.564   7.730  30.663 -0.1687  0.4220 -0.1846
32318W        W75412  28.388   9.584   3.156  0.1751  0.1698  0.0928
32319W        W75413  28.043   9.327   2.463 -0.3572  0.4488 -0.3024
32320W        W75414  28.387   9.614   2.281 -0.2760 -0.1589  0.1227
32321W        W75415  27.126   8.029   1.748  0.0483 -0.0158  0.0156
32322W        W75416  29.114  10.127  31.672 -0.1253 -0.0594 -0.1651
32323W        W75417  28.213  11.725   3.306  0.1874  0.1609  0.0565
32324W        W75418  29.156  10.891   4.593 -0.0964  0.2081  0.1955
32325W        W75419  28.062  11.449   2.746 -0.0595 -0.1637 -0.1268
32326W        W75420  28.840   9.555   2.521  0.0819 -0.1648 -0.1795
32327W        W75421  24.953   8.091   4.102  0.2098  0.0692  0.0046
32328W        W75422  27.088   8.659   0.677 -0.4541  0.0788  0.0738
32329W        W75423  24.956  10.458   0.860  0.2509  0.0805 -0.1657
32330W        W75424  27.294   8.974   1.572  0.0337 -0.0320  0.2016
32331W        W75425  25.807   8.142   1.572  0.0718  0.1217  0.0630
32332W        W75426  28.758   8.092   0.951  0.1688 -0.1688 -0.3414
32333W        W75427  27.372  10.202   2.321  0.2760  0.0737 -0.1694
32334W        W75428  28.366  10.090   3.219 -0.1485  0.3280  0.1260
32335W        W75429  27.134  10.141   5.599  0.1365 -0.1552 -0.1946
32336W        W75430  25.442   8.665   4.633  0.2884 -0.1640 -0.0779
32337W        W75431  28.717   7.352   3.451  0.0560  0.2073 -0.1260
32338W        W75432  29.381  10.206   2.879  0.2416  0.0463  0.0628
32339W        W75433  26.808   8.911   6.429  0.0080 -0.3263  0.3434
32340W        W75434  27.827  11.996   6.507 -0.0924 -0.2619  0.0616
32341W        W75435  26.336   7.187   6.900  0.1451  0.3125  0.1994
32342W        W75436  27.612   9.654   5.412 -0.1088  0.0115 -0.0325
32343W        W75437  29.232  11.592   4.316 -0.1399  0.0659  0.1253
32344W        W75438  27.591   8.928   3.462  0.0866  0.3923 -0.0367
32345W        W75439  27.180   8.694   5.555  0.1544 -0.2571  0.2224
32346W        W75440  27.521  10.261   5.272 -0.0046 -0.1241 -0.4374
32347W        W75441  27.228   9.631   5.737 -0.1015  0.2557 -0.0855
32348W        W75442  25.233   6.812   5.809  0.1251  0.4595  0.0256
32349W        W75443  28.395   8.658   6.245  0.2048  0.0124  0.1646
32350W        W75444  25.492   9.062   4.911  0.0132  0.2752  0.0499
32351W        W75445  27.412   8.288   5.867 -0.1208 -0.1574 -0.0252
32352W        W75446  26.878   9.036   4.843 -0.0507 -0.0805  0.1592
32353W        W75447  29.323  13.146   4.744  0.2947 -0.0477 -0.6604
32354W        W75448  27.874   7.810   6.481 -0.1049 -0.1755  0.1841
32355W        W75449  28.877   7.053   6.100 -0.2918  0.1130  0.2216
32356W        W75450  28.269  10.897   4.751  0.0355  0.0182  0.2824
32357W        W75451  26.318   8.348   4.629 -0.0090 -0.0590 -0.0869
32358W        W75452  25.940   7.536   7.712 -0.1465 -0.1399  0.1227
32359W        W75453  25.810   9.903   6.317  0.0849 -0.2334  0.0792
32360W        W75454  28.328   7.724   6.418  0.2870  0.1592  0.0121
32361W        W75455  27.586   8.773   5.933  0.0037  0.4177  0.0719
32362W        W75456  28.382   9.917   4.921 -0.0187  0.1804 -0.1171
32363W        W75457  28.051  10.242   5.547 -0.2793  0.1834 -0.0622
32364W        W75458  28.198   9.684   6.780  0.0391  0.0505 -0.1206
32365W        W75459  25.224  10.037   5.013 -0.1835  0.0357 -0.0276
32366W        W75460  25.280  11.219   5.324 -0.0619  0.4828 -0.0456
32367W        W75461  25.785  10.019   5.072 -0.1904  0.3363 -0.0571
32368W        W75462  29.959   8.520   4.754  0.3285 -0.2258  0.2494
32369W        W75463  28.452  11.385   6.640  0.4191  0.1650  0.1285
32370W        W75464  26.757  12.566   7.009 -0.1935 -0.3439 -0.2718
32371W        W75465  27.265  10.718   2.348 -0.0997  0.2581  0.1828
32372W        W75466  27.035   9.279   8.396 -0.0963  0.3795  0.0808
32373W        W75467  27.294  10.941   6.278 -0.2742  0.0608 -0.1825
32374W        W75468  27.083   9.399   6.215 -0.1685 -0.1992  0.3115
32375W        W75469  27.568   8.371   5.349  0.1566  0.1763  0.0853
32376W        W75470  26.253  10.298   4.166  0.0900 -0.2790 -0.2425
32377W        W75471  26.776   9.980   5.224 -0.1313 -0.2013  0.0456
32378W        W75472  27.177   9.683   7.289 -0.2331 -0.0119  0.0501
32379W        W75473  24.629  10.312   6.135  0.3423 -0.2546  0.0511
32380W        W75474  28.758   9.005   5.958  0.0120 -0.0190  0.2762
32381W        W75475  26.348  10.330   3.642 -0.0950  0.0591 -0.1470
32382W        W75476  28.586   8.604   3.429  0.1956  0.1183  0.0726
32383W        W75477  27.078   9.132   3.321 -0.2213  0.1692  0.1974
32384W        W75478  27.805   7.973   5.243 -0.2505 -0.1022  0.0709
32385W        W75479  26.692   7.856   5.431  0.0800 -0.2165  0.1723
32386W        W75480  25.991   9.966   5.541 -0.0850  0.2271  0.1470
32387W        W75481  27.376   7.842   7.258 -0.1936  0.0457  0.0760
32388W        W75482  28.712   9.687   6.694 -0.1368 -0.3177 -0.0109
32389W        W75483  27.710  10.261   4.472  0.0806 -0.2334 -0.0198
32390W        W75484  29.747   8.765   8.514  0.2610  0.1866  0.1251
32391W        W75485  26.277  10.786   5.445 -0.0148 -0.0288 -0.0113
32392W        W75486  26.939   8.393   5.890  0.1055 -0.0737  0.0680
32393W        W75487  29.894  11.356   3.154 -0.0194  0.0549  0.0483
32394W        W75488  28.689  11.237   5.001  0.3481  0.1134 -0.0753
32395W        W75489  27.612  10.343   3.770  0.1274 -0.0062  0.4861
32396W        W75490  26.118   8.875   4.503  0.1542 -0.2729 -0.0129
32397W        W75491  26.147   9.439   7.397  0.3626 -0.2181  0.1041
32398W        W75492  27.408   8.719   6.562  0.0730  0.1237 -0.1214
32399W        W75493  26.928   9.082   3.785  0.0907 -0.0146  0.1465
32400W        W75494  28.513  10.515   6.003  0.1087  0.0756  0.0895
32401W        W75495  27.277  11.000   5.605 -0.0786 -0.0483 -0.0623
32402W        W75496  27.999   7.612   4.936  0.1699  0.2047  0.2101
32403W        W75497  27.051  10.201   4.908 -0.0786 -0.0548 -0.1333
32404W        W75498  28.577  10.030   5.816  0.0615  0.1522  0.1105
32405W        W75499  27.307  10.178   4.134  0.1788  0.1723 -0.1968
32406W        W75500  28.095   7.855   3.964  0.0012 -0.0078 -0.2139
32407W        W75501  28.306   7.291   5.170 -0.1288 -0.2525 -0.2126
32408W        W75502  24.826   8.918   2.689 -0.0505 -0.0244  0.0842
32409W        W75503  26.690   8.882   5.335  0.0162  0.3072 -0.3306
32410W        W75504  27.463   9.989   6.496  0.0895  0.1832  0.0020
32411W        W75505  27.870   8.699   4.387  0.0237  0.3629  0.4009
32412W        W75506  25.331  10.113   6.807 -0.1778  0.0068 -0.1426
32413W        W75507  28.065   8.738   7.751  0.0885 -0.0554  0.4939
32414W        W75508  29.141  10.768   7.127  0.1456 -0.1996 -0.1480
32415W        W75509  26.908   8.838   2.934  0.2220 -0.2583 -0.0873
32416W        W75510  24.290   9.567   5.073  0.1132 -0.3866  0.0530
32417W        W75511  24.758   9.795   4.985 -0.0447 -0.0539  0.1004
32418W        W75512  26.435   7.206   7.413  0.0070  0.0755  0.0128
32419W        W75513  26.272   9.529   5.981  0.2970  0.2020 -0.0258
32420W        W75514  28.806   7.357   3.954  0.1407 -0.1361 -0.0352
32421W        W75515  26.288   7.598   6.615 -0.0079  0.4616 -0.0763
32422W        W75516  28.399   6.299   5.105 -0.0580  0.1261 -0.1640
32423W        W75517  26.689   9.773   6.017 -0.1308  0.2002 -0.1131
32424W        W75518  30.084  11.144   4.509  0.1667  0.1148  0.1575
32425W        W75519  27.712   7.949   4.724 -0.0161  0.0723 -0.0122
32426W        W75520  28.597  10.444   3.954  0.1030 -0.0289 -0.4773
32427W        W75521  25.758   9.726   5.879  0.0706 -0.1338  0.1299
32428W        W75522  26.396   8.370   5.882  0.1693  0.1102 -0.0706
32429W        W75523  26.776   8.501   7.165  0.1236 -0.2083  0.1825
32430W        W75524  27.058   7.379   6.114  0.1561 -0.4163 -0.1041
32431W        W75525  29.226   8.858   4.340  0.1306  0.0225  0.3448
32432W        W75526  25.709   6.617   4.015 -0.1541  0.0077 -0.0722
32433W        W75527  27.745   7.405   3.965  0.0061  0.0261 -0.0154
32434W        W75528  26.466   8.990   3.911  0.1296 -0.1415  0.0419
32435W        W75529  25.155   9.884   4.567 -0.0346 -0.1613 -0.0655
32436W        W75530  28.584   6.692   7.742  0.0871  0.4832  0.0710
32437W        W75531  27.860  10.911   3.974 -0.2338  0.0557  0.0060
32438W        W75532  29.237  10.595   6.631  0.2158  0.1999  0.2408
32439W        W75533  29.016  11.019   5.301 -0.2754 -0.1675 -0.0726
32440W        W75534  27.472   8.232   7.520  0.0200 -0.1818  0.1371
32441W        W75535  26.206   8.041   4.185  0.1409 -0.0184 -0.2755
32442W        W75536  24.754  10.486   5.128  0.0189  0.1371 -0.0166
32443W        W75537  26.208   9.568   5.159  0.1090 -0.1897  0.1883
32444W        W75538  27.412   8.795   4.540  0.0288 -0.0710 -0.0186
32445W        W75539  28.704   9.786   5.320  0.0313 -0.4089  0.2707
32446W        W75540  27.893   8.180   4.278 -0.2001 -0.0952 -0.1278
32447W        W75541  24.942  10.874   5.472  0.1600 -0.3249 -0.0318
32448W        W75542  29.010   7.850   6.447 -0.1966 -0.2815 -0.0043
32449W        W75543  28.428   9.052   5.115  0.2745  0.2716  0.1776
32450W        W75544  28.257   9.152   6.137  0.1666 -0.1687 -0.2513
32451W        W75545  26.137   6.805   4.241  0.2984  0.0895 -0.1226
32452W        W75546  27.134  10.870   4.934  0.0098 -0.1165 -0.2448
32453W        W75547  26.357  10.810   3.393 -0.2342  0.1990 -0.1473
32454W        W75548  26.607   7.589   6.259 -0.2024  0.0406 -0.0556
32455W        W75549  26.802   9.550   4.174  0.0841  0.0899 -0.0687
32456W        W75550  28.331   8.067   5.287 -0.0311 -0.1719  0.4093
32457W        W75551  25.259   8.359   6.880 -0.0660 -0.4707  0.3629
32458W        W75552  28.297   8.745   6.762 -0.0086  0.0394 -0.0023
32459W        W75553  25.977   9.104   5.195  0.2433 -0.2509  0.1235
32460W        W75554  25.411  10.818   5.668 -0.3045 -0.1895 -0.1774
32461W        W75555  28.115   8.536   5.260 -0.0492 -0.0883  0.0991
32462W        W75556  28.480   8.104   4.232  0.0876 -0.0718 -0.1399
32463W        W75557  26.498  10.836   6.919 -0.3768  0.0238 -0.3790
32464W        W75558  29.324  10.410   4.808 -0.1517 -0.0354  0.0852
32465W        W75559  26.260   8.567   4.109  0.1533 -0.0600 -0.0877
32466W        W75560  28.017   8.645   3.601  0.0222  0.1124 -0.0160
32467W        W75561  25.420   9.360   8.731 -0.2938  0.2442  0.0447
32468W        W75562  28.108  10.710   5.744 -0.1001 -0.0347  0.3235
32469W        W75563  27.189   9.690   5.161  0.2388  0.2202 -0.1145
32470W        W75564  26.979   8.339   4.715  0.0488 -0.0268  0.0761
32471W        W75565  29.090  10.897   4.110  0.1328  0.5099  0.1170
32472W        W75566  26.102   9.566   6.552  0.2250 -0.2590  0.0742
32473W        W75567  28.634  10.634   7.043  0.0870 -0.3229 -0.1900
32474W        W75568  28.648  10.873   4.329  0.2863 -0.0696 -0.1299
32475W        W75569  27.991   6.505   5.976 -0.2086 -0.0568  0.2950
32476W        W75570  26.515   9.205   4.415 -0.0312 -0.1699  0.1490
32477W        W75571  26.480   8.107   5.037  0.0999  0.1737  0.1703
32478W        W75572  24.784  10.770   3.528 -0.0032 -0.1471 -0.3349
32479W        W75573  28.090   7.796   5.912  0.0865 -0.1701  0.1562
32480W        W75574  27.352   8.035   5.023 -0.0964 -0.1666  0.1016
32481W        W75575  27.729   7.348   6.602  0.1444 -0.0304  0.2190
32482W        W75576  28.776   9.174   7.485  0.1797 -0.4581  0.1634
32483W        W75577  29.486   8.572   2.969  0.1321  0.2026 -0.0590
32484W        W75578  27.359   9.311   4.855 -0.3193  0.0328 -0.2087
32485W        W75579  26.355   8.193   3.707  0.0213  0.0840 -0.1690
32486W        W75580  27.508   7.050   6.241  0.1106  0.3825 -0.0583
32487W        W75581  24.732   9.154   5.755  0.0836  0.1414  0.1239
32488W        W75582  26.539  10.146   4.611 -0.2995 -0.1165 -0.2095
32489W        W75583  27.977  10.910   6.388  0.0697 -0.1763 -0.3303
32490W        W75584  27.654   9.418   3.515 -0.4158  0.0737  0.3549
32491W        W75585  28.227   7.231   6.467 -0.1344 -0.2385  0.3246
32492W        W75586  27.639   6.839   4.251 -0.1033 -0.0878 -0.1818
32493W        W75587  27.189  10.681   3.156 -0.0019  0.1712 -0.0011
32494W        W75588  27.481   9.710   4.355  0.1191  0.0235  0.1089
32495W        W75589  26.266   6.226   5.428 -0.1541  0.0251 -0.0606
32496W        W75590  28.540  10.148   6.847 -0.1693  0.1623 -0.2176
32497W        W75591  27.924   9.981   3.514  0.0981 -0.2523  0.1135
32498W        W75592  27.665   9.025   6.945  0.0064 -0.1582 -0.3754
32499W        W75593  26.753  11.063   3.173  0.3054  0.4395 -0.0638
32500W        W75594  28.659   7.913   6.035  0.0642  0.1431  0.1156
32501W        W75595  26.352   9.195   5.538 -0.3982  0.0418  0.1249
32502W        W75596  26.719   8.396   5.446  0.3126 -0.2401 -0.0755
32503W        W75597  25.912   8.431   5.785 -0.1998 -0.0869 -0.0987
32504W        W75598  28.800   7.997   4.590  0.1453 -0.1743 -0.3410
32505W        W75599  27.941   9.625   2.863  0.1574 -0.1168 -0.2876
32506W        W75600  27.474   7.774   6.799 -0.1309 -0.2783  0.3934
32507W        W75601  27.514   7.300   5.790  0.0063  0.1188  0.0094
32508W        W75602  26.392  10.212   6.864  0.2940 -0.1430  0.1792
32509W        W75603  28.059   8.214   5.684 -0.2157 -0.2735 -0.1944
32510W        W75604  27.894   8.954   3.963  0.0454  0.2080  0.1240
32511W        W75605  27.722  10.504   6.203 -0.2006  0.0416  0.0607
32512W        W75606  27.247   9.182   7.245 -0.0598 -0.1271 -0.2441
32513W        W75607  25.764   7.846   4.379  0.3005  0.1483  0.2032
32514W        W75608  29.209   8.684   7.028 -0.0828  0.1779 -0.1682
32515W        W75609  26.160   7.688   5.194  0.0295 -0.0407  0.0146
32516W        W75610  25.589  10.489   4.990 -0.1151 -0.1149 -0.0470
32517W        W75611  28.352  11.369   4.676 -0.0667  0.1400 -0.4315
32518W        W75612  26.533   8.021   3.257 -0.1158 -0.0546  0.0514
32519W        W75613  25.647   9.543   4.872  0.1463  0.2109 -0.2076
32520W        W75614  26.780   9.149   7.475  0.0217 -0.1713  0.0130
32521W        W75615  27.452  10.017   6.979 -0.2680  0.2824 -0.0647
32522W        W75616  27.107   7.861   6.005  0.3564  0.2596 -0.0124
32523W        W75617  26.568   9.245   6.151  0.1473 -0.0467  0.0022
32524W        W75618  27.543   9.256   5.705 -0.2671  0.4029  0.1013
32525W        W75619  27.913  10.007   5.107  0.1984 -0.3035 -0.2018
32526W        W75620  28.728   8.325   6.817 -0.1651  0.4032  0.2044
32527W        W75621  24.562  10.573   5.687  0.0615  0.0032  0.0812
32528W        W75622  28.288   6.383   6.398 -0.1436 -0.2836 -0.0258
32529W        W75623  30.303  10.256   4.460 -0.1269 -0.2872  0.0732
32530W        W75624  27.139   8.973   7.859  0.0579  0.1729  0.2146
32531W        W75625  26.066   9.109   3.610 -0.1104 -0.0591  0.2251
32532W        W75626  24.961   8.407   6.265 -0.1050  0.0015 -0.0530
32533W        W75627  26.682  10.302   2.793  0.0377 -0.1984  0.0934
32534W        W75628  28.572   8.451   5.025  0.0514  0.1207 -0.0937
32535W        W75629  25.548  10.158   5.954 -0.1602  0.2830 -0.0647
32536W        W75630  27.280   9.453   3.987  0.1756 -0.0923 -0.3378
32537W        W75631  25.532   9.648   6.689  0.2071  0.0272 -0.0267
32538W        W75632  28.789   8.490   3.863 -0.1818  0.1742  0.1036
32539W        W75633  26.803  10.828   3.589  0.0463 -0.1527 -0.0044
32540W        W75634  25.992   8.055   4.818 -0.1616 -0.0647  0.0532
32541W        W75635  29.397   9.375   5.294  0.1629  0.0522  0.2323
32542W        W75636  29.638   9.693   3.944  0.0647 -0.0516  0.1038
32543W        W75637  28.519   6.562   8.815 -0.1351 -0.1424 -0.1236
32544W        W75638  26.635   6.744   5.980 -0.0848 -0.0243 -0.1382
32545W        W75639  29.423   9.714   4.844  0.0558  0.1291 -0.2236
32546W        W75640  27.128   8.897   6.028  0.1975 -0.2552 -0.1318
32547W        W75641  27.393  10.871   8.111 -0.1330  0.0628  0.1522
32548W        W75642  26.708  10.255   6.032  0.0368  0.0247  0.1317
32549W        W75643  27.522   7.842   4.134 -0.0797 -0.0555 -0.1105
32550W        W75644  25.651   7.883   5.226 -0.0543 -0.1690  0.0121
32551W        W75645  26.201   9.276   6.925  0.2096 -0.2396 -0.2681
32552W        W75646  28.758   9.776   4.554 -0.3889  0.4935  0.0422
32553W        W75647  27.862   9.319   5.015 -0.1559 -0.3274 -0.0516
32554W        W75648  28.978   8.574   5.937 -0.2864  0.0576 -0.4424
32555W        W75649  28.029   9.722   5.765 -0.2819  0.2637  0.2969
32556W        W75650  29.592   9.170   4.101  0.0736  0.1866  0.3336
32557W        W75651  28.599   9.410   3.902  0.2013 -0.1827  0.0248
32558W        W75652  26.549   9.654   4.779  0.1148 -0.0384 -0.0650
32559W        W75653  27.741   8.099   6.114 -0.1188 -0.0899  0.0271
32560W        W75654  27.628   8.515   3.944 -0.3744  0.1352 -0.3493
32561W        W75655  27.726   8.104   3.759  0.1967 -0.0292  0.0118
32562W        W75656  28.710   7.770   6.862  0.0435  0.3788  0.2527
32563W        W75657  28.720   8.820   7.066  0.2603  0.1109 -0.0328
32564W        W75658  27.168   8.638   7.488 -0.1957 -0.1614  0.0377
32565W        W75659  27.369   8.198   6.567 -0.2176  0.2259 -0.3150
32566W        W75660  28.096  12.246   7.023  0.3222 -0.0246 -0.1567
32567W        W75661  29.906   8.192   3.319  0.1058 -0.0874 -0.2351
32568W        W75662  28.736   8.305   6.308 -0.2027  0.1207 -0.3459
32569W        W75663  27.944   7.453   5.502  0.1183 -0.3937  0.1165
32570W        W75664  27.782   9.255   4.408 -0.0980 -0.1505 -0.2408
32571W        W75665  24.746   9.686   6.027  0.2239  0.3712 -0.0005
32572W        W75666  28.323   8.041   6.836 -0.1635  0.6815  0.0552
32573W        W75667  27.376   8.717   3.094  0.0444  0.1085  0.1542
32574W        W75668  29.302   7.444   7.561  0.2626 -0.0121 -0.0750
32575W        W75669  27.307  10.524   4.587  0.0005 -0.3397 -0.1357
32576W        W75670  28.945  10.108   4.896  0.3600  0.2698 -0.0220
32577W        W75671  28.325   8.272   3.755  0.1328  0.4060 -0.0203
32578W        W75672  26.534   8.057   7.231  0.0175  0.3553 -0.3890
32579W        W75673  26.186  11.107   5.066 -0.0825 -0.0058 -0.1305
32580W        W75674  24.305   7.551   4.608  0.2385 -0.3040 -0.1439
32581W        W75675  25.533   9.832   3.532 -0.2675 -0.0603  0.5627
32582W        W75676  28.006   9.992   6.460  0.0135  0.1581 -0.1942
32583W        W75677  29.253   9.573   6.517 -0.0435 -0.2241  0.2017
32584W        W75678  26.444   7.728   3.837  0.1827  0.0274  0.0801
32585W        W75679  29.470   8.057   7.004  0.0261  0.1017  0.0339
32586W        W75680  26.456  11.223   3.643 -0.2202  0.3226 -0.4102
32587W        W75681  27.634   7.805   5.760 -0.2768 -0.0317  0.1723
32588W        W75682  27.347  11.414   6.015  0.1066 -0.2068  0.0876
32589W        W75683  27.110  10.148   7.417 -0.0788 -0.0469  0.1092
32590W        W75684  26.773   9.388   5.230  0.0980 -0.1190  0.0895
32591W        W75685  27.973   7.488   6.973 -0.2120  0.1630  0.2592
32592W        W75686  27.540   9.157   6.262 -0.0419 -0.2932  0.0218
32593W        W75687  26.890   9.310   5.738  0.1864 -0.1389 -0.1360
32594W        W75688  28.966   9.226   6.810 -0.0799 -0.1983 -0.0236
32595W        W75689  27.321   8.518   7.009 -0.1063 -0.0683  0.1318
32596W        W75690  25.349   9.817   5.638 -0.0317  0.0763  0.0826
32597W        W75691  28.060  11.282   7.400  0.0001  0.0860  0.1703
32598W        W75692  29.033  10.312   4.227 -0.0181  0.1205  0.1240
32599W        W75693  26.269   8.681   5.535 -0.2003  0.1921  0.0014
32600W        W75694  25.389   8.584   6.431  0.0842  0.0473  0.0005
32601W        W75695  25.777   8.426   7.814 -0.5625 -0.0306  0.0925
32602W        W75696  27.739   9.618   6.251 -0.1463  0.1173 -0.3308
32603W        W75697  26.843   6.969   4.924  0.1917  0.3417 -0.1097
32604W        W75698  26.313   9.763   4.239 -0.1768  0.0041 -0.1794
32605W        W75699  26.327  10.649   8.210 -0.0100 -0.2043 -0.0549
32606W        W75700  25.321   9.687   6.158  0.2856  0.0082 -0.1504
32607W        W75701  26.083  10.475   5.130  0.2512 -0.3823 -0.1139
32608W        W75702  26.880  10.960   4.100 -0.2642 -0.1486 -0.0998
32609W        W75703  28.249   9.636   3.645 -0.1002 -0.1983  0.0155
32610W        W75704  28.389  10.877   6.652  0.3248 -0.1726  0.1483
32611W        W75705  26.644   8.808   5.842 -0.0513  0.1923  0.1611
32612W        W75706  26.465   9.788   5.535 -0.2727  0.0571 -0.0963
32613W        W75707  24.825  10.786   2.999 -0.0968 -0.2468  0.0405
32614W        W75708  27.702  10.528   4.904  0.1561  0.1472  0.0564
32615W        W75709  27.717  10.361   6.687  0.2597 -0.1049  0.0168
32616W        W75710  29.004  10.103   6.572  0.1448  0.0323 -0.2102
32617W        W75711  28.103   7.824   3.492 -0.2550 -0.0059 -0.1021
32618W        W75712  28.892   8.955   4.947 -0.0647  0.1908  0.0850
32619W        W75713  30.271   8.607   5.135 -0.2490  0.0522  0.0461
32620W        W75714  28.017  10.961   7.768 -0.0500  0.0959  0.1683
32621W        W75715  27.971   8.868   6.402  0.0418  0.0521  0.0154
32622W        W75716  27.060   9.689   4.650  0.0227 -0.1318 -0.0854
32623W        W75717  27.913   8.352   6.540  0.1628 -0.0730  0.0145
32624W        W75718  29.131   8.098   6.056 -0.0786  0.1078  0.0309
32625W        W75719  25.162   9.685   7.120  0.0694 -0.0493 -0.1604
32626W        W75720  28.643  10.737   5.172  0.0059 -0.3883  0.1170
32627W        W75721  24.342   7.414   5.068 -0.0408 -0.0496 -0.4157
32628W        W75722  27.170  10.007   6.088 -0.1297  0.2480 -0.0907
32629W        W75723  29.486   6.966   7.560 -0.0496 -0.0394 -0.0187
32630W        W75724  28.014   9.978   4.077  0.2916 -0.0770  0.4014
32631W        W75725  27.828   8.020   6.991  0.1419  0.0808 -0.3325
32632W        W75726  28.325  11.007   6.085  0.1077  0.4068 -0.1413
32633W        W75727  27.439  10.542   5.741  0.1015  0.2575  0.0003
32634W        W75728  28.194  10.483   6.412 -0.0770  0.2432  0.0661
32635W        W75729  26.175   6.448   3.771  0.3150 -0.0500  0.2097
32636W        W75730  28.325   8.021   4.804  0.1807 -0.0436  0.1928
32637W        W75731  27.975   7.270   6.036  0.0729  0.0150 -0.2273
32638W        W75732  29.648   7.494   7.086 -0.2924  0.0617 -0.1796
32639W        W75733  26.602   8.160   6.728 -0.0412  0.0706  0.2523
32640W        W75734  27.005   7.802   4.124 -0.0137  0.1738  0.0167
32641W        W75735  28.124   8.987   7.295 -0.2210 -0.5099  0.2538
32642W        W75736  26.353   9.047   7.714  0.2841  0.0890  0.0190
32643W        W75737  27.222   8.693   5.026  0.1239  0.0680  0.2058
32644W        W75738  29.032  10.414   6.158  0.4759 -0.2135 -0.3996
32645W        W75739  28.820   9.295   2.104  0.1593  0.1906 -0.0753
32646W        W75740  27.696  10.809   6.983  0.3080  0.2207  0.0641
32647W        W75741  26.455   7.354   5.412  0.1155 -0.1901 -0.5099
32648W        W75742  27.247   8.081   3.427 -0.3444  0.1944 -0.0449
32649W        W75743  24.955  10.147   4.102  0.0721  0.1606 -0.0819
32650W        W75744  27.520   9.515   6.912  0.0736  0.0197  0.0637
32651W        W75745  29.776  10.499   6.848  0.0070  0.0046 -0.1274
32652W        W75746  25.293   7.158   6.195 -0.3981  0.1037 -0.0670
32653W        W75747  28.758  10.324   2.971 -0.1279  0.3176  0.1167
32654W        W75748  28.045   8.944   4.792  0.2528  0.3693  0.2159
32655W        W75749  28.295  11.190   3.102  0.2212  0.1502  0.0488
32656W        W75750  28.172  10.403   4.742  0.1557  0.1615 -0.1780
32657W        W75751  28.157  10.628   5.246 -0.0650  0.0047 -0.1257
32658W        W75752  25.790   7.351   7.292  0.0731 -0.0127  0.2148
32659W        W75753  28.710   9.602   7.691  0.1884 -0.2418 -0.0585
32660W        W75754  29.281  10.006   4.491  0.0230  0.4690  0.0540
32661W        W75755  27.059   7.369   5.160  0.0835 -0.4262  0.0302
32662W        W75756  27.501   7.643   6.208  0.0065 -0.2317  0.2076
32663W        W75757  26.485  10.670   4.474  0.0570  0.5978 -0.0782
32664W        W75758  28.847   7.473   5.803  0.1096  0.2995 -0.1134
32665W        W75759  28.826   6.597   6.298 -0.2059 -0.1959  0.0227
32666W        W75760  27.046  10.352   3.664  0.1870  0.3033  0.0965
32667W        W75761  28.558   6.189   7.915  0.1601 -0.0863  0.2918
32668W        W75762  27.063   9.686   6.769  0.1506 -0.2864  0.0695
32669W        W75763  26.765   9.944   7.872 -0.1740 -0.1406  0.0687
32670W        W75764  25.854   8.862   4.056  0.0785 -0.0953  0.0321
32671W        W75765  26.311   9.751   6.943  0.1178  0.0606 -0.2511
32672W        W75766  28.001   9.776   4.639  0.0348  0.0093 -0.1702
32673W        W75767  27.301  10.998   4.450 -0.0606 -0.1864 -0.0345
32674W        W75768  29.180  10.508   5.279  0.0893  0.0582  0.4502
32675W        W75769  28.166   8.706   5.841  0.0137  0.0369  0.0959
32676W        W75770  29.396  10.570   4.348  0.2090 -0.3773  0.0864
32677W        W75771  26.722   8.010   4.475 -0.0166 -0.1408 -0.5051
32678W        W75772  28.482   6.867   4.688  0.1687 -0.3212  0.0718
32679W        W75773  29.551   8.034   4.119  0.2214 -0.0474 -0.3588
32680W        W75774  27.385  10.510   7.708  0.2401  0.1482  0.0318
32681W        W75775  25.055   8.953   4.518 -0.1328  0.1339  0.0718
32682W        W75776  26.210   9.499   3.248 -0.1991  0.0226 -0.2483
32683W        W75777  25.450  10.348   5.456 -0.3608  0.1492  0.0875
32684W        W75778  27.365   6.866   7.242 -0.1190  0.1932  0.0388
32685W        W75779  26.405   8.212   7.774 -0.2191 -0.0520 -0.0714
32686W        W75780  25.871  10.755   3.221  0.0573 -0.1224  0.2236
32687W        W75781  26.615   8.599   4.903 -0.2254  0.2126  0.4115
32688W        W75782  29.994  10.630   4.224 -0.0382 -0.2972  0.0370
32689W        W75783  26.366   7.829   5.859 -0.0892 -0.2051 -0.1391
32690W        W75784  24.460   8.169   6.274 -0.3604 -0.0199  0.1360
32691W        W75785  28.826  10.163   3.493  0.0789  0.2784 -0.0966
32692W        W75786  30.277  10.837   2.974  0.0249 -0.1215 -0.0627
32693W        W75787  27.017   7.353   4.653  0.3189 -0.1218 -0.1222
32694W        W75788  29.667  10.791   7.416 -0.2680  0.0599  0.1128
32695W        W75789  26.761   9.460   3.473  0.0519  0.0917  0.0221
32696W        W75790  27.320   7.788   7.789 -0.1380  0.1168 -0.3304
32697W        W75791  26.981   7.753   6.581  0.2664  0.3524  0.1247
32698W        W75792  24.604   7.676   4.212  0.1332  0.0150  0.5246
32699W        W75793  28.258   8.178   6.236  0.1081  0.0269 -0.1509
32700W        W75794  27.142  10.564   5.294 -0.0746 -0.0737  0.1258
32701W        W75795  28.718  12.226   4.484  0.1974  0.0012 -0.1311
32702W        W75796  26.674   9.457   7.072  0.0952  0.3624  0.0374
32703W        W75797  25.919  11.605   7.124 -0.1275  0.0318 -0.0050
32704W        W75798  26.182   7.665   7.245 -0.3409 -0.1121  0.0460
32705W        W75799  29.255   9.833   3.611 -0.3148 -0.2705 -0.1346
32706W        W75800  26.833  10.068   6.509  0.1763  0.1662 -0.0951
32707W        W75801  31.194   9.479   2.839  0.2766  0.2226 -0.0627
32708W        W75802  30.635   8.693   7.552 -0.0245  0.1252 -0.3324
32709W        W75803  27.417   8.982   3.986 -0.0251 -0.2469 -0.1329
32710W        W75804  26.514   8.565   6.317  0.1587  0.1619 -0.1279
32711W        W75805  25.752  10.345   7.211  0.1139  0.0541 -0.1260
32712W        W75806  28.562   8.839   5.550 -0.0993  0.2039  0.0978
32713W        W75807  26.200   7.696   4.565 -0.0193  0.5074  0.0789
32714W        W75808  27.255   8.199   3.925  0.0764 -0.1438  0.2771
32715W        W75809  27.762  10.754   4.443 -0.0851  0.0866  0.0042
32716W        W75810  28.146  10.182   6.020  0.0273  0.1619 -0.1910
32717W        W75811  27.025   9.149   4.379  0.2274  0.3401 -0.1700
32718W        W75812  28.689   7.619   7.314  0.3232  0.0466  0.2576
32719W        W75813  27.595  10.052   5.751  0.1140 -0.0204 -0.1639
32720W        W75814  28.737  10.544   6.540  0.0128  0.0682  0.0736
32721W        W75815  26.106   9.369   4.641  0.1697  0.2743 -0.0651
32722W        W75816  29.674  10.621   3.819 -0.1483 -0.0139 -0.5071
32723W        W75817  27.025  11.338   5.209 -0.0791 -0.0274 -0.3179
32724W        W75818  29.869  10.302   7.551 -0.2125  0.1407  0.3320
32725W        W75819  28.100  10.505   7.776 -0.3425  0.0564 -0.0375
32726W        W75820  28.275   9.500   5.253  0.1368 -0.0867 -0.0388
32727W        W75821  26.135   6.568   6.115  0.0236 -0.1176  0.1036
32728W        W75822  26.699   8.699   4.431 -0.4007 -0.1103 -0.0855
32729W        W75823  27.228   9.156   5.325  0.1559 -0.3499 -0.0584
32730W        W75824  29.010   8.536   5.355  0.0115 -0.0524 -0.1174
32731W        W75825  26.361   7.168   6.363  0.2519 -0.1173 -0.2568
32732W        W75826  28.165   7.325   3.720 -0.0681 -0.0121 -0.1609
32733W        W75827  27.258  11.682   5.517  0.0908 -0.2102  0.0996
32734W        W75828  27.096  10.514   6.134 -0.0104  0.1272 -0.1218
32735W        W75829  24.541   8.276   9.460  0.0323 -0.0613  0.0601
32736W        W75830  26.767   7.960   8.474 -0.0451 -0.2153  0.0393
32737W        W75831  27.952   6.869   6.289 -0.0665 -0.0055  0.3055
32738W        W75832  28.609   8.746   9.886 -0.0564 -0.0885 -0.1589
32739W        W75833  26.910   7.974   7.974  0.3036 -0.1564 -0.2882
32740W        W75834  29.144  11.699   7.318 -0.0969  0.2839 -0.1571
32741W        W75835  26.847   9.886   9.272  0.2352  0.0634  0.3647
32742W        W75836  28.814  10.714   8.366  0.3869  0.0109  0.0695
32743W        W75837  27.982  10.071   6.988 -0.0886  0.0149 -0.0508
32744W        W75838  29.292   9.182   9.531 -0.1787 -0.3714  0.1769
32745W        W75839  27.671   6.766   8.235  0.1327  0.1316  0.2839
32746W        W75840  26.129   9.279   9.980 -0.3467 -0.1831  0.0354
32747W        W75841  28.218   8.792   9.608  0.1271  0.1482 -0.0584
32748W        W75842  25.240   8.953   9.732 -0.2209 -0.1528 -0.2668
32749W        W75843  26.144   9.123   9.194 -0.1563  0.1803  0.2054
32750W        W75844  28.650   7.539   8.900 -0.0848  0.3546  0.0171
32751W        W75845  26.898  11.600   8.428  0.0856  0.1072 -0.0459
32752W        W75846  27.571   8.412   8.583  0.2560  0.1647 -0.5303
32753W        W75847  27.223  10.408   6.609  0.4235  0.4769  0.0407
32754W        W75848  26.437   8.886   7.161 -0.0745  0.0308 -0.2062
32755W        W75849  26.624   9.149   9.178 -0.1112  0.0364  0.0280
32756W        W75850  26.897   8.860   9.507 -0.1641  0.2192  0.0825
32757W        W75851  28.718   7.222   9.867  0.0919 -0.0177  0.0312
32758W        W75852  27.921   8.522   8.219 -0.1004  0.1547  0.1993
32759W        W75853  25.894   9.745   9.484 -0.1037  0.0611  0.3902
32760W        W75854  26.832  10.203   8.779  0.1235  0.0960  0.1576
32761W        W75855  26.067   8.365   9.379 -0.0254 -0.2403 -0.3314
32762W        W75856  27.460  11.312   8.575 -0.1155 -0.0454 -0.2142
32763W        W75857  26.910  10.706   8.243  0.1525  0.1746 -0.2030
32764W        W75858  28.245  10.211   8.208 -0.0136  0.3116  0.3069
32765W        W75859  26.654  10.228   7.441 -0.0678 -0.1109  0.1328
32766W        W75860  28.035   9.805  10.063  0.2001  0.0809  0.0277
32767W        W75861  27.224  10.215   9.087  0.2457  0.0205  0.0332
32768W        W75862  26.297  10.898   6.428 -0.0201 -0.2310  0.0658
32769W        W75863  26.486  10.223   9.686 -0.0166 -0.3305  0.0229
32770W        W75864  25.339   9.465   9.682  0.0289 -0.1221  0.1106
32771W        W75865  26.566  10.613   8.651  0.0436 -0.1573 -0.2353
32772W        W75866  27.995   9.148   8.066  0.1188 -0.1820 -0.1434
32773W        W75867  26.983   7.155   7.069 -0.3964 -0.0650  0.0300
32774W        W75868  28.531   8.058   7.542 -0.0049 -0.0863 -0.1384
32775W        W75869  27.110   6.851   8.128  0.1851  0.1662 -0.1807
32776W        W75870  27.484  10.616   9.047 -0.0560 -0.0270  0.1294
32777W        W75871  27.472   7.703   9.591 -0.0790 -0.2808 -0.1390
32778W        W75872  28.492   8.442   8.444 -0.0687  0.1132 -0.1740
32779W        W75873  28.150  10.569   9.179  0.1075 -0.1439 -0.0072
32780W        W75874  27.140  11.195   9.823  0.0654 -0.1983 -0.0511
32781W        W75875  27.393   9.036   8.908 -0.0428  0.0878 -0.1739
32782W        W75876  28.761  11.468   8.210 -0.1467 -0.3152  0.0543
32783W        W75877  28.815  10.219   8.260 -0.1418 -0.0521 -0.1988
32784W        W75878  25.769   9.946   8.614  0.1592 -0.4405 -0.3096
32785W        W75879  26.712   8.622   7.670 -0.0731 -0.3854  0.0627
32786W        W75880  25.511   6.861   6.690 -0.0777  0.1120  0.2616
32787W        W75881  28.542   7.467   9.451  0.1062  0.1487  0.0717
32788W        W75882  26.782   9.773   9.775 -0.0293  0.0205  0.1998
32789W        W75883  26.431   8.672   9.249 -0.0237  0.2737  0.3662
32790W        W75884  28.181   9.421   7.641 -0.0799 -0.0433 -0.3147
32791W        W75885  29.192   4.640  10.260  0.3982  0.5301 -0.0457
32792W        W75886  29.556   9.171   9.948 -0.1501  0.1713  0.1213
32793W        W75887  26.147  10.363   6.425 -0.1957 -0.0243 -0.2421
32794W        W75888  27.805   9.452   8.524  0.0689  0.0751  0.1481
32795W        W75889  27.557   8.319   9.739  0.1018  0.1976 -0.1455
32796W        W75890  29.639   8.914   7.000 -0.2135  0.1177  0.0961
32797W        W75891  25.594  10.581   9.036 -0.1173  0.2895 -0.0667
32798W        W75892  26.658  11.840   6.436  0.1273 -0.1853  0.3182
32799W        W75893  24.174   7.984   9.680  0.2537  0.1887 -0.0102
32800W        W75894  25.722   9.779   8.154 -0.1525  0.0208  0.3035
32801W        W75895  25.408   8.847   8.688  0.1884  0.1379 -0.0880
32802W        W75896  27.644   8.711  10.252  0.2179  0.0393 -0.1669
32803W        W75897  28.305   7.865   9.237 -0.0153 -0.2546 -0.0815
32804W        W75898  28.034   5.993   9.398 -0.1951  0.0550 -0.1694
32805W        W75899  27.044   9.412   9.363 -0.1607 -0.0607 -0.0856
32806W        W75900  28.073  10.776   7.289 -0.1893 -0.2329  0.2619
32807W        W75901  28.829   8.751   6.557 -0.2416  0.3003 -0.0914
32808W        W75902  27.653   9.830   7.418  0.0407  0.2209 -0.1561
32809W        W75903  25.663   8.608   9.642  0.0387 -0.3162  0.2545
32810W        W75904  27.136   8.299   8.366  0.0939  0.0455 -0.0700
32811W        W75905  25.579   8.394   8.862 -0.1530 -0.4119  0.0211
32812W        W75906  26.949   7.572   7.410  0.2620  0.2475 -0.0222
32813W        W75907  30.331   7.849   9.897  0.0340 -0.0120 -0.1975
32814W        W75908  27.750   9.660   7.957  0.2514 -0.0529 -0.0721
32815W        W75909  24.262  10.414   8.125  0.0665 -0.1546  0.1061
32816W        W75910  26.408  11.646   7.189  0.0625 -0.2176  0.2786
32817W        W75911  28.030  10.983   9.957 -0.1421  0.0206 -0.0250
32818W        W75912  28.200  11.051   8.642  0.0257 -0.2637  0.0040
32819W        W75913  27.784   7.579   9.218  0.3392 -0.1413 -0.0542
32820W        W75914  26.731   7.591   6.972  0.1937 -0.2226 -0.1273
32821W        W75915  26.022  12.792  10.418 -0.0466 -0.1406  0.0233
32822W        W75916  27.606   9.494   9.233  0.1467  0.1393 -0.2810
32823W        W75917  26.515   7.644   8.208 -0.2164  0.0541  0.4348
32824W        W75918  27.174  10.832   9.369  0.0896 -0.1092 -0.0588
32825W        W75919  25.817   9.465   9.083 -0.2876 -0.1523  0.0323
32826W        W75920  29.026   9.158   8.993 -0.1039 -0.0641  0.0089
32827W        W75921  29.129   9.540   7.406  0.2887 -0.0079  0.1768
32828W        W75922  26.637   6.724   8.131  0.0443 -0.1563 -0.1383
32829W        W75923  27.421  10.335   8.173 -0.0871  0.0116 -0.1287
32830W        W75924  25.982  10.639   6.907  0.1242 -0.0231  0.3015
32831W        W75925  25.926   9.350   7.835  0.0843  0.2609 -0.0049
32832W        W75926  27.845  11.593   7.720  0.0616 -0.1772 -0.3098
32833W        W75927  28.901   6.007   9.889 -0.1695 -0.0233 -0.0430
32834W        W75928  26.104   8.025   6.854 -0.0942 -0.1533  0.0669
32835W        W75929  27.855   6.329   8.403 -0.0114 -0.1297  0.0484
32836W        W75930  28.491   8.038   8.745 -0.3277 -0.0667 -0.0617
32837W        W75931  27.744   9.957   8.333  0.0538  0.2723 -0.0619
32838W        W75932  28.476   9.304   7.065 -0.1121 -0.1385 -0.0419
32839W        W75933  27.931   7.344   7.406  0.0180 -0.2378  0.0565
32840W        W75934  26.511   9.458   7.970 -0.0416  0.0249 -0.2152
32841W        W75935  26.266   9.455   8.836 -0.4006 -0.1172  0.2336
32842W        W75936  28.329   7.539   7.683 -0.2290 -0.0131  0.2093
32843W        W75937  29.279  10.173   7.493  0.1248  0.4366  0.2123
32844W        W75938  27.773   9.193  10.174  0.0301  0.3826 -0.1675
32845W        W75939  27.230  10.461   8.611  0.2008 -0.1258 -0.1784
32846W        W75940  27.499   8.146   8.109  0.0441 -0.1613  0.1684
32847W        W75941  27.495   9.236   8.150 -0.2306  0.3279  0.2581
32848W        W75942  26.068   7.398   8.175 -0.5080 -0.2604 -0.2557
32849W        W75943  25.835  10.655   8.085  0.2901  0.0991  0.1778
32850W        W75944  30.062   6.937   9.916 -0.0473 -0.1029  0.0944
32851W        W75945  27.097   8.132   8.844  0.1697 -0.2043 -0.0928
32852W        W75946  29.078   8.839   8.525  0.5101 -0.0733  0.0283
32853W        W75947  26.954  10.748   9.924 -0.0391  0.6210 -0.3213
32854W        W75948  25.661   9.830   7.144  0.0300  0.0123 -0.2976
32855W        W75949  27.671  10.426  10.055 -0.1706  0.4212  0.3385
32856W        W75950  25.103  12.233   9.721 -0.1133 -0.3227 -0.2522
32857W        W75951  27.808  10.104   7.838 -0.3577 -0.1093  0.4277
32858W        W75952  27.921   7.354   7.932 -0.0786 -0.0167 -0.1072
32859W        W75953  26.328  11.085   7.311  0.0469  0.1661 -0.1680
32860W        W75954  25.825   9.385   8.379  0.2205  0.0429 -0.0306
32861W        W75955  28.541   5.744   9.577 -0.0685  0.0008  0.1019
32862W        W75956  27.562  10.824   9.760  0.0927  0.2073 -0.0838
32863W        W75957  26.754   9.934   7.051  0.0947 -0.3668 -0.3140
32864W        W75958  29.136   8.875   9.948  0.0097 -0.0688 -0.0090
32865W        W75959  25.649  10.789   8.555 -0.1518  0.2142  0.2844
32866W        W75960  29.387   6.715   9.647 -0.2926  0.0687 -0.1195
32867W        W75961  26.118  11.017   8.519 -0.0109  0.2007  0.0797
32868W        W75962  27.015   8.077   7.026  0.0721 -0.2601 -0.0240
32869W        W75963  24.833   9.337   7.280 -0.0938  0.2225  0.0646
32870W        W75964  28.881   7.580   8.394  0.1856 -0.1058  0.2446
32871W        W75965  29.322   8.823   8.039 -0.2242 -0.3257  0.0995
32872W        W75966  27.119   8.782   8.298 -0.0668 -0.4444 -0.0436
32873W        W75967  27.178   6.739   9.098  0.4496 -0.1898 -0.1018
32874W        W75968  24.983   9.074   8.852  0.0617 -0.0263  0.1166
32875W        W75969  29.514   9.324   9.078 -0.0713 -0.1663 -0.1177
32876W        W75970  26.296   8.981   6.486 -0.1193 -0.2669 -0.0771
32877W        W75971  28.959   6.754   9.847 -0.0793  0.1483  0.0401
32878W        W75972  27.190   8.602   8.870  0.5075  0.1683  0.0309
32879W        W75973  25.999  10.448   8.786 -0.0919  0.0712 -0.1320
32880W        W75974  28.477  10.664  10.008 -0.1399 -0.4877 -0.2549
32881W        W75975  26.652   9.544   6.546  0.2828  0.0140  0.4218
32882W        W75976  24.730  12.265   9.993  0.2753  0.0396  0.0681
32883W        W75977  28.440   8.392   9.151 -0.2210 -0.1111  0.1649
32884W        W75978  28.356   8.919   8.554 -0.0501 -0.2194  0.2219
32885W        W75979  27.155   6.382   9.466 -0.0118 -0.0938 -0.4463
32886W        W75980  27.650   8.789   7.431 -0.2211  0.4180  0.0329
32887W        W75981  28.262   9.259   9.384  0.1379  0.2052  0.0555
32888W        W75982  26.682   8.452   8.712  0.0239  0.1498 -0.1068
32889W        W75983  29.366   6.342   9.136 -0.2163  0.2653  0.0109
32890W        W75984  30.012  11.262   6.873  0.0871 -0.3109  0.1441
32891W        W75985  25.704   8.800   9.125 -0.4875 -0.1388 -0.4603
32892W        W75986  25.575   7.986   8.396 -0.0392  0.2392 -0.0766
32893W        W75987  26.172   9.113   8.178  0.0344 -0.0352 -0.3314
32894W        W75988  28.949   7.069   8.453 -0.0537 -0.3497  0.1329
32895W        W75989  26.488   9.275   9.662 -0.0756 -0.1883 -0.0347
32896W        W75990  25.718   9.888   7.647 -0.2553 -0.3212  0.1574
32897W        W75991  25.419  11.575   9.199  0.0515 -0.0667  0.2766
32898W        W75992  28.068   7.628   8.725 -0.0162  0.1069 -0.0388
32899W        W75993  27.962   8.080   8.940  0.0180 -0.0917  0.2033
32900W        W75994  28.749   8.782   8.162 -0.2219 -0.4987  0.1113
32901W        W75995  27.887   8.555   9.200 -0.0158  0.2618 -0.2215
32902W        W75996  27.892   9.390   9.688  0.1941 -0.1614  0.4313
32903W        W75997  29.043   7.418   9.307 -0.2496 -0.1397 -0.1730
32904W        W75998  27.325   7.269   7.642  0.1695 -0.3023  0.1470
32905W        W75999  27.882  12.309  10.139 -0.0380  0.2683 -0.0413
32906W        W76000  27.852  10.561   8.205  0.4252 -0.1191 -0.1335
32907W        W76001  26.976   9.502   7.754  0.2288  0.0521  0.0177
32908W        W76002  27.867   8.065   9.429 -0.1963 -0.1600 -0.0042
32909W        W76003  27.407   8.651   9.358 -0.0106 -0.2162 -0.0931
32910W        W76004  29.012   9.632   8.728 -0.0179  0.1193 -0.0263
32911W        W76005  28.558   8.747   7.643  0.3148  0.1339  0.2802
32912W        W76006  26.556   9.688   7.463  0.1587  0.1066  0.0316
32913W        W76007  27.283   9.630   9.855 -0.0553 -0.2037  0.3622
32914W        W76008  28.035   6.658   9.139  0.0282  0.0047 -0.5200
32915W        W76009  29.300   9.674   9.359  0.1327 -0.0960 -0.3802
32916W        W76010  29.207   9.767   7.808  0.0559  0.0742 -0.0385
32917W        W76011  28.637   9.058  10.328  0.0067 -0.2314 -0.3856
32918W        W76012  29.367   9.255   8.538 -0.2254  0.0769  0.2435
32919W        W76013  28.365   8.387   7.924 -0.0049 -0.0389 -0.1894
32920W        W76014  25.884   8.525   8.432 -0.0010 -0.0165  0.1716
32921W        W76015  27.239   7.735   8.301  0.0764 -0.2125  0.2102
32922W        W76016  26.394  10.315   7.848 -0.0042  0.1598 -0.1075
32923W        W76017  27.293   9.895   7.855 -0.1313  0.0577 -0.1963
32924W        W76018  28.449   7.196   8.499 -0.1101  0.1613  0.0109
32925W        W76019  26.313   8.121   8.515  0.1086  0.0321 -0.3764
32926W        W76020  25.740   8.364   7.192  0.0674 -0.0529  0.0008
32927W        W76021  26.712   8.981   8.066 -0.1160  0.0727 -0.1931
32928W        W76022  27.326   9.855   9.427  0.0225 -0.4565 -0.0981
32929W        W76023  27.773   7.751   7.631 -0.0766  0.0260 -0.3391
32930W        W76024  25.596  10.113   9.313 -0.2598 -0.1127 -0.2567
32931W        W76025  27.282   7.696   9.173 -0.1263 -0.3381 -0.2628
32932W        W76026  26.500  10.839   9.115  0.0982  0.1685 -0.0355
32933W        W76027  26.834   9.481   8.833 -0.1903  0.0602 -0.1067
32934W        W76028  28.128   8.824  10.195 -0.0457 -0.0430 -0.0353
32935W        W76029  28.036   8.080   8.443  0.0144 -0.0668 -0.0290
32936W        W76030  27.379   9.117   9.535  0.2769 -0.1129  0.0555
32937W        W76031  25.907   9.039   8.744 -0.0339 -0.2209 -0.0408
32938W        W76032  28.253   9.208   9.920 -0.1304  0.3077 -0.1978
32939W        W76033  26.108   9.726  10.321 -0.0497 -0.2813  0.1939
32940W        W76034  27.797   8.894   8.590  0.5574 -0.1117  0.0067
32941W        W76035  26.237   7.287   9.146  0.3927 -0.3919  0.2032
32942W        W76036  26.787  11.217   7.106  0.4011  0.0704 -0.3314
32943W        W76037  27.011   8.296   9.750 -0.0019 -0.0371  0.0163
32944W        W76038  26.764  11.322   7.619  0.0279  0.0153 -0.0071
32945W        W76039  28.184   9.698   8.121  0.1418 -0.0443 -0.0626
32946W        W76040  26.728   9.694   8.363  0.0189 -0.1892  0.6047
32947W        W76041  27.508  11.988   9.938  0.0130 -0.1704  0.3355
32948W        W76042  27.942   8.263   7.641 -0.0707 -0.0894  0.2406
32949W        W76043  26.912  10.358   9.492 -0.3559 -0.0331  0.3610
32950W        W76044  25.440   8.866   6.895  0.1612  0.3113 -0.2263
32951W        W76045  28.295   9.968   7.713  0.0119 -0.0968  0.1732
32952W        W76046  26.484  10.341   9.129  0.0770 -0.1769 -0.1691
32953W        W76047  28.945   8.365   7.287  0.0694 -0.2375  0.2146
32954W        W76048  29.571   8.315   9.235  0.0015  0.0070  0.6356
32955W        W76049  30.241   6.710   8.153  0.2436 -0.1699 -0.1601
32956W        W76050  28.035   9.420   8.969  0.1516 -0.1354  0.1274
32957W        W76051  27.804   7.688   8.285 -0.1135  0.1624  0.1138
32958W        W76052  30.153   9.404   7.658 -0.0190 -0.1702 -0.1546
32959W        W76053  26.211   8.457   7.359 -0.2435  0.1769 -0.1051
32960W        W76054  27.574   8.615   7.870 -0.0727  0.1603 -0.1326
32961W        W76055  27.794   7.540  10.007  0.1654  0.1789  0.4358
32962W        W76056  27.984   9.469   7.174  0.2819 -0.2669 -0.2378
32963W        W76057  28.385   9.657   9.692  0.1232 -0.3242  0.0009
32964W        W76058  26.991  10.630   8.988 -0.1922  0.0608  0.0146
32965W        W76059  25.991  11.065   9.039  0.0644  0.1162  0.0468
32966W        W76060  27.729  10.176   9.175 -0.0911  0.2315  0.1732
32967W        W76061  26.505   8.071   9.019  0.1837  0.1295  0.2801
32968W        W76062  29.900   8.314   8.860  0.0448 -0.2458 -0.2725
32969W        W76063  27.453   7.447   8.691  0.2113  0.1505  0.0352
32970W        W76064  25.384   9.239   9.244 -0.4236 -0.1986  0.0474
32971W        W76065  28.562   6.842   9.457  0.1273 -0.0222  0.1414
32972W        W76066  27.142   7.221   9.026  0.4345 -0.2293 -0.1117
32973W        W76067  25.161   8.183   9.188  0.1996 -0.0468  0.0319
32974W        W76068  27.910   8.568   7.052  0.3242  0.0728 -0.2316
32975W        W76069  26.397   9.634   9.307 -0.0300  0.1907 -0.0234
32976W        W76070  26.863   6.698   8.628  0.2914  0.1348  0.0376
32977W        W76071  28.224   7.789   7.261 -0.0642 -0.0430  0.3784
32978W        W76072  25.720   8.054   9.989 -0.2487 -0.2096  0.1251
32979W        W76073  27.177   8.798   9.994 -0.0196  0.0008  0.1261
32980W        W76074  25.291   6.798   9.216  0.1393  0.0942  0.2091
32981W        W76075  29.020  10.349   6.981  0.0324  0.1779  0.1367
32982W        W76076  29.436   7.283   9.609 -0.1851 -0.1760  0.0530
32983W        W76077  26.782  10.245   8.235  0.1756 -0.1229 -0.2167
32984W        W76078  28.339  10.960   8.166  0.1710  0.2880 -0.2424
32985W        W76079  28.502  10.826   8.986 -0.0309 -0.1353  0.0515
32986W        W76080  24.377   8.138   8.575  0.2610  0.1712 -0.2534
32987W        W76081  27.058  10.948   7.708 -0.2321  0.1941 -0.2700
32988W        W76082  29.090  10.555   9.340  0.1531 -0.1548  0.0642
32989W        W76083  27.177   6.348   8.839  0.1278 -0.4118  0.2508
32990W        W76084  26.103   8.543   8.894  0.3222 -0.1727  0.0852
32991W        W76085  26.891  11.326   9.046  0.1630 -0.3343  0.1855
32992W        W76086  28.909   8.300   9.056  0.0985  0.0927 -0.1762
32993W        W76087  26.361  10.674   5.965  0.2434  0.0158 -0.3778
32994W        W76088  27.100  11.588   9.441 -0.0007  0.1391  0.2019
32995W        W76089  25.684   8.911   8.179 -0.1655 -0.0290 -0.0035
32996W        W76090  26.398  10.017   8.685 -0.3048  0.1209  0.0113
32997W        W76091  26.901  10.430   7.791  0.3373 -0.0576 -0.0527
32998W        W76092  27.839  11.155   8.224 -0.1394  0.3948  0.1902
32999W        W76093  28.627   9.626  10.150 -0.0100 -0.1974  0.4292
33000W        W76094  29.297  10.918   7.966 -0.1235 -0.0756  0.1028
33001W        W76095  25.652   8.045   9.327  0.1263  0.0752  0.1945
33002W        W76096  28.126   8.538   8.757 -0.1885  0.0196  0.0004
33003W        W76097  27.441   7.261   8.221 -0.0439 -0.1010 -0.1866
33004W        W76098  26.977   8.418   9.248  0.0547  0.2045 -0.1413
33005W        W76099  25.142   8.030   8.123 -0.0571 -0.1554  0.3490
33006W        W76100  26.221   9.729   8.327 -0.0916 -0.1501  0.0827
33007W        W76101  26.077  10.008   9.083  0.3225 -0.1462 -0.1201
33008W        W76102  24.768   8.709   9.297  0.0143 -0.2054 -0.0705
33009W        W76103  26.913   8.186   7.528 -0.3620  0.0227 -0.0169
33010W        W76104  28.565  10.583   7.964 -0.1710 -0.2077  0.2910
33011W        W76105  26.425  10.703   9.575  0.0861  0.2975  0.0254
33012W        W76106  26.990   7.380   9.776  0.3260  0.3914 -0.0487
33013W        W76107  28.135  10.513   6.880  0.1849  0.1953 -0.1094
33014W        W76108  28.847   9.598   8.228  0.1665 -0.2677 -0.1701
33015W        W76109  27.689   7.026   9.021  0.0159  0.0913  0.2014
33016W        W76110  25.365   9.096   6.374  0.0831 -0.0646  0.0156
33017W        W76111  26.797   7.289   6.606 -0.0011  0.2825 -0.0469
33018W        W76112  26.229   8.590   8.069 -0.0313  0.0217 -0.1818
33019W        W76113  27.375  10.509   7.191  0.1722 -0.1672 -0.2233
33020W        W76114  28.289  11.822   7.826  0.0686  0.1547 -0.2118
33021W        W76115  25.557   6.285   9.202 -0.1655  0.1590  0.2712
33022W        W76116  27.913   9.330   6.631  0.1842  0.0281 -0.3544
33023W        W76117  29.532  10.113   6.634 -0.2450 -0.2175  0.1236
33024W        W76118  31.232   5.662   9.845 -0.1587  0.1480  0.0658
33025W        W76119  28.489   9.250   8.058 -0.0600 -0.1463  0.1609
33026W        W76120  28.346  10.124   9.495  0.0299 -0.1831 -0.0431
33027W        W76121  26.718   7.462   9.249  0.1124 -0.0792  0.0324
33028W        W76122  28.148   7.171   9.015  0.2385  0.2636 -0.2012
33029W        W76123  27.180   9.948   8.377  0.0529  0.1829  0.2141
33030W        W76124  25.371   8.441   8.366 -0.1306 -0.3818 -0.0063
33031W        W76125  28.790   8.429   9.517  0.1253 -0.2759 -0.0095
33032W        W76126  27.759   9.045   9.222  0.0574 -0.2446 -0.1199
33033W        W76127  27.519   9.340   7.626 -0.0910 -0.2311 -0.0470
33034W        W76128  28.547   8.024   9.642  0.0625 -0.0746 -0.1441
33035W        W76129  28.810  12.236  10.309  0.4397 -0.1363  0.0417
33036W        W76130  26.341  11.288   9.549  0.3425  0.3690 -0.0082
33037W        W76131  28.039   9.797   9.294 -0.0650  0.0294 -0.0411
33038W        W76132  25.866   7.026   8.541 -0.1539 -0.0441  0.0703
33039W        W76133  26.888   8.955   6.919 -0.0035 -0.2465  0.0826
33040W        W76134  26.864   8.975   8.752 -0.1942 -0.1351  0.1476
33041W        W76135  28.780   9.233   8.506 -0.3833 -0.0059 -0.1619
33042W        W76136  26.367   8.921   8.672 -0.1715 -0.2440  0.0071
33043W        W76137  29.411   6.089   9.611  0.2164  0.1387 -0.0679
33044W        W76138  25.329  13.850   9.351 -0.1317  0.1192  0.3333
33045W        W76139  27.710   8.802   9.743 -0.0070  0.1582 -0.1244
33046W        W76140  27.154  13.124   3.122 -0.2696  0.1424  0.0359
33047W        W76141  27.002  10.455   0.994 -0.0369 -0.3453  0.0283
33048W        W76142  28.349  10.858   0.672 -0.2091 -0.0998 -0.0345
33049W        W76143  28.708  11.505  31.747  0.3990 -0.0506  0.0490
33050W        W76144  25.175  10.301   1.332 -0.0250 -0.2539  0.0382
33051W        W76145  27.014  14.685   0.393  0.0375  0.0578  0.3107
33052W        W76146  26.268  10.375   3.109  0.1431  0.2989  0.3191
33053W        W76147  27.976  13.856   3.229  0.0177  0.2375  0.3729
33054W        W76148  28.572  14.673   0.611 -0.0790  0.0060 -0.1400
33055W        W76149  26.226  13.898   0.308 -0.3884  0.3326 -0.1261
33056W        W76150  24.492  13.294   2.291  0.1322 -0.0002  0.1483
33057W        W76151  25.406  13.372   3.228  0.2703  0.1564 -0.1676
33058W        W76152  26.498  10.865   1.610  0.5173  0.0584 -0.2073
33059W        W76153  25.405  11.682   3.119  0.1618  0.0537 -0.1173
33060W        W76154  28.459  13.792   3.070  0.0526  0.0131  0.3651
33061W        W76155  25.411  11.240   0.600  0.0369 -0.0786  0.0620
33062W        W76156  26.207  12.353   2.404  0.1852 -0.2654 -0.0518
33063W        W76157  27.503  12.374   2.182 -0.2813 -0.0236  0.1024
33064W        W76158  27.413  14.866   0.758  0.0578 -0.1266  0.1556
33065W        W76159  27.331  10.703   4.066  0.2966  0.0433 -0.0479
33066W        W76160  27.905  12.290   3.256 -0.0488  0.3563  0.0195
33067W        W76161  25.589  15.021  31.855  0.2162 -0.0661 -0.0011
33068W        W76162  25.883  13.580   0.328 -0.1560  0.2407 -0.0404
33069W        W76163  26.618  12.126   1.862 -0.4900 -0.1164 -0.1687
33070W        W76164  26.903  12.006   2.426 -0.2460  0.0517 -0.1181
33071W        W76165  28.510  12.703   2.916  0.2897 -0.4586 -0.0227
33072W        W76166  27.363  13.834   0.492 -0.2171  0.0207  0.0926
33073W        W76167  26.254  14.518   1.496 -0.1065  0.1079  0.0498
33074W        W76168  27.726  14.830   1.378  0.0406  0.1176 -0.0229
33075W        W76169  27.379  12.037   4.268  0.0690  0.0509  0.1873
33076W        W76170  24.416  13.211   0.889 -0.1019  0.0996 -0.1979
33077W        W76171  24.894  14.958   1.534 -0.2113  0.1363  0.0824
33078W        W76172  26.067  14.266   0.020 -0.2844  0.0841  0.1986
33079W        W76173  29.322  13.185   1.518 -0.2657 -0.0866 -0.1563
33080W        W76174  29.064  13.205   2.446  0.1509 -0.1621 -0.0052
33081W        W76175  25.668  14.903   2.322  0.0755 -0.0774  0.1919
33082W        W76176  26.503  13.612  31.422 -0.0242  0.4473  0.1498
33083W        W76177  26.923  14.444   2.819  0.0629 -0.3349 -0.1547
33084W        W76178  25.330  14.149   2.415  0.0894  0.3827 -0.0120
33085W        W76179  26.896  13.153   1.571 -0.2498  0.1777  0.1667
33086W        W76180  25.506  14.546   2.780 -0.0333  0.1249 -0.2168
33087W        W76181  25.857  13.916   0.692  0.5928 -0.1739 -0.1140
33088W        W76182  25.683  13.636   1.935 -0.2721 -0.1647  0.2106
33089W        W76183  26.880  12.693   3.882 -0.2062  0.0686 -0.3015
33090W        W76184  25.052  14.005   0.767  0.1146  0.1297 -0.2869
33091W        W76185  28.897  12.360   2.934  0.5375 -0.2967  0.1878
33092W        W76186  27.104  13.960  31.623  0.0759 -0.1887  0.1148
33093W        W76187  27.922  12.572   0.376 -0.0432  0.2412  0.1072
33094W        W76188  27.256  11.889   0.481 -0.1394  0.4336  0.2183
33095W        W76189  28.346  11.644   1.285 -0.0322  0.0224 -0.3737
33096W        W76190  27.354  10.930   1.600  0.0048 -0.2269 -0.2800
33097W        W76191  26.675  14.885   1.187  0.0313  0.3067 -0.3623
33098W        W76192  26.645  11.558   3.179 -0.0452 -0.1869 -0.2034
33099W        W76193  28.861  13.473   3.239  0.1314  0.2233  0.0458
33100W        W76194  26.975  14.092   0.849  0.3505  0.0264 -0.1710
33101W        W76195  27.279  12.543   2.653 -0.1126  0.1416  0.0879
33102W        W76196  27.487  15.190   1.604  0.3781  0.0707 -0.2870
33103W        W76197  25.124  13.054   1.484 -0.0238 -0.4464 -0.2793
33104W        W76198  28.364  14.118  31.623 -0.0907  0.1447  0.2823
33105W        W76199  28.045  15.251   0.209  0.2518 -0.1755 -0.1411
33106W        W76200  27.853  15.892   0.605 -0.0366  0.1500  0.0119
33107W        W76201  26.129  12.132   1.851  0.0083 -0.1981  0.1052
33108W        W76202  24.886  13.422   1.977 -0.4016  0.0652  0.0151
33109W        W76203  26.073  12.620   3.721  0.2383 -0.0275 -0.2606
33110W        W76204  27.531  10.828  31.970 -0.0333 -0.2161 -0.0102
33111W        W76205  28.970  13.376   4.424  0.2854  0.3111 -0.1898
33112W        W76206  25.740  13.887   3.436  0.1107  0.0324  0.1680
33113W        W76207  27.781  10.888   0.407  0.1225 -0.1073  0.0308
33114W        W76208  26.163  11.195   1.731  0.2590 -0.0929 -0.2178
33115W        W76209  28.570  13.839   2.328  0.2232 -0.0988 -0.3739
33116W        W76210  28.269  13.351  31.652 -0.1921 -0.1303  0.3138
33117W        W76211  27.625  12.886   2.536 -0.0832  0.1086  0.0042
33118W        W76212  27.140  13.737   3.608 -0.1966 -0.2605 -0.1847
33119W        W76213  26.853  14.559   1.509  0.1478  0.0038 -0.0150
33120W        W76214  26.056  13.339  31.495 -0.0916 -0.3211 -0.0592
33121W        W76215  27.337  13.842   2.281 -0.1910  0.0535 -0.0084
33122W        W76216  28.959  12.036   0.440  0.2864 -0.6075 -0.0397
33123W        W76217  25.257  13.620   2.356 -0.0888  0.0914 -0.1389
33124W        W76218  27.338  12.274   3.797  0.3633  0.1254 -0.0394
33125W        W76219  25.857  13.399   3.359  0.3655  0.0696 -0.0508
33126W        W76220  26.369  14.400  30.894  0.0054 -0.1613 -0.0874
33127W        W76221  26.747  12.424   2.620 -0.2368  0.1538  0.3389
33128W        W76222  25.836  13.117   0.928  0.2943 -0.1990 -0.2463
33129W        W76223  24.792  11.937   3.041 -0.2391 -0.0477 -0.1154
33130W        W76224  24.717  14.482   2.390  0.0739  0.1206  0.1672
33131W        W76225  28.736  10.765   1.565 -0.1068  0.2306 -0.2727
33132W        W76226  25.993  10.976   3.657 -0.0274  0.0084  0.1201
33133W        W76227  28.536  12.409   2.452 -0.1487 -0.0969  0.4818
33134W        W76228  25.356  13.290   1.927 -0.0260  0.1358  0.3376
33135W        W76229  27.879  13.807   0.498 -0.0897  0.0349 -0.0404
33136W        W76230  29.390  13.413  31.234  0.0301 -0.1196  0.0839
33137W        W76231  28.279  14.082   0.176 -0.1474  0.2442  0.1983
33138W        W76232  25.944  12.018   3.750  0.1844  0.1813  0.0512
33139W        W76233  26.320  10.985   2.142 -0.1417 -0.1091 -0.4455
33140W        W76234  26.293  11.886   3.178  0.1041 -0.3233 -0.0744
33141W        W76235  25.910  12.694   2.626  0.1939 -0.0451 -0.2302
33142W        W76236  29.299  12.061   3.459  0.0675 -0.1200  0.1365
33143W        W76237  25.505   9.701  31.959  0.1299  0.0249 -0.1436
33144W        W76238  27.821  12.052   1.912 -0.0929 -0.0757 -0.0204
33145W        W76239  26.820  13.690   0.545 -0.1275 -0.0948  0.3051
33146W        W76240  24.374  13.382   0.335 -0.1178  0.2661 -0.3349
33147W        W76241  27.457  12.084   2.597  0.3252 -0.0359  0.0308
33148W        W76242  26.663  14.927   0.047  0.3406 -0.0487  0.1909
33149W        W76243  28.305  14.191   2.800  0.2237  0.2348  0.0849
33150W        W76244  29.193  15.567  31.866  0.3140 -0.4827 -0.1093
33151W        W76245  28.276  12.763   3.849 -0.1449 -0.0749  0.2867
33152W        W76246  26.788  11.998  31.685  0.1583  0.1656  0.0619
33153W        W76247  26.155  14.744   0.466  0.0724 -0.1259 -0.2769
33154W        W76248  25.826  13.552   3.858 -0.0377  0.1569 -0.0539
33155W        W76249  26.549  11.757   0.911 -0.0149  0.0910 -0.0878
33156W        W76250  29.015  15.389   0.320 -0.1779  0.0712 -0.3445
33157W        W76251  27.698  13.402   1.290 -0.0939 -0.0132  0.0827
33158W        W76252  25.231  13.771   2.887 -0.1062  0.2286  0.1971
33159W        W76253  28.563  12.639   4.344  0.3819 -0.2075  0.1104
33160W        W76254  27.294  12.349   1.690 -0.0122  0.1881  0.0387
33161W        W76255  27.190  13.201   0.661 -0.1666 -0.4110  0.0423
33162W        W76256  28.172  11.213  31.235  0.4185 -0.1879  0.0624
33163W        W76257  27.056  14.926   2.054  0.0210 -0.2206  0.1776
33164W        W76258  25.726  13.424  31.896 -0.3310 -0.1762  0.3668
33165W        W76259  25.634  12.684   0.723  0.0754 -0.0121  0.0261
33166W        W76260  27.447  14.632  31.711 -0.1592  0.1666  0.0769
33167W        W76261  27.890  12.512   1.688 -0.0832 -0.1996 -0.0409
33168W        W76262  25.111  12.803   3.178  0.1128 -0.1309  0.5058
33169W        W76263  26.288  11.185   4.564 -0.1572 -0.0543 -0.0322
33170W        W76264  25.895  12.107   1.393 -0.0007 -0.0930  0.0683
33171W        W76265  24.779  13.547   2.606  0.0443 -0.0212 -0.2119
33172W        W76266  27.385  10.768   1.136 -0.1213  0.1702 -0.1630
33173W        W76267  27.920  12.144   0.637  0.1954 -0.3393 -0.2634
33174W        W76268  27.686  13.652   4.209 -0.1154  0.0663 -0.0186
33175W        W76269  29.029  13.098  31.282 -0.0702  0.0609  0.0288
33176W        W76270  27.940  12.087  30.738 -0.5824  0.0358 -0.2261
33177W        W76271  27.116  12.118   0.949 -0.0728  0.1766 -0.3414
33178W        W76272  25.176  13.196   3.712  0.0961 -0.0102  0.1477
33179W        W76273  26.642  15.350  31.105 -0.0638  0.3322  0.1056
33180W        W76274  25.937  14.639   1.881  0.2445 -0.0365 -0.1317
33181W        W76275  27.314  11.295   0.252  0.5061 -0.0934 -0.0193
33182W        W76276  29.096  14.757   0.592 -0.2190  0.1334 -0.0079
33183W        W76277  25.471  14.084   1.060 -0.0896  0.0280  0.3414
33184W        W76278  26.603  12.261   3.134 -0.1120 -0.1782 -0.3901
33185W        W76279  27.002  14.638   0.895 -0.1010 -0.2419 -0.4392
33186W        W76280  25.529  12.109   2.811 -0.1023 -0.1580  0.0324
33187W        W76281  27.133  12.216   0.132 -0.0108  0.0514  0.1292
33188W        W76282  27.262  12.859   1.752  0.0519  0.0341  0.0167
33189W        W76283  24.068  14.089  31.860  0.0934  0.0138  0.1505
33190W        W76284  28.010  13.024   0.511 -0.4268  0.0655 -0.0410
33191W        W76285  26.965  12.253   3.476 -0.0069  0.1727  0.0995
33192W        W76286  27.333  10.185   3.305 -0.2252 -0.1424  0.0803
33193W        W76287  28.818  11.114   3.204  0.2530  0.2600 -0.0077
33194W        W76288  26.557  12.378   0.960  0.2197  0.4432 -0.3184
33195W        W76289  26.989  12.767   0.909  0.3253  0.0220  0.0282
33196W        W76290  26.286  12.416   1.377  0.2312 -0.1443 -0.1334
33197W        W76291  27.426  10.861   3.564  0.2886  0.3997 -0.0621
33198W        W76292  25.087  12.324   2.771 -0.1179  0.1710  0.0810
33199W        W76293  25.602  13.941   1.483  0.0702  0.2687  0.0075
33200W        W76294  26.336  12.902   1.658  0.0539  0.2599  0.1169
33201W        W76295  26.380  13.917   2.106 -0.1451 -0.2009  0.1866
33202W        W76296  27.955  11.556   4.951 -0.0275 -0.4197  0.1343
33203W        W76297  26.978  11.646   1.560 -0.0798  0.1218  0.0581
33204W        W76298  26.310  13.259   1.254  0.0058 -0.1508  0.1219
33205W        W76299  28.620  14.493  31.166  0.0461 -0.0982 -0.4509
33206W        W76300  26.517  11.423   2.347 -0.1003  0.0382 -0.1239
33207W        W76301  25.953  14.256   2.773  0.1441  0.1244  0.2310
33208W        W76302  26.339  12.664  31.728 -0.0356 -0.0487 -0.1430
33209W        W76303  27.843  12.586   3.697 -0.0383 -0.0336  0.0979
33210W        W76304  23.935  14.619   2.013 -0.0417  0.0200 -0.0410
33211W        W76305  28.252  11.812   2.029  0.3182  0.0842  0.1574
33212W        W76306  25.883  13.651   1.104 -0.1047  0.1515 -0.1476
33213W        W76307  25.835  12.906   1.395 -0.3622 -0.0196  0.1336
33214W        W76308  25.082  13.434   0.583  0.1192  0.1106 -0.0801
33215W        W76309  28.134  13.024   1.011 -0.1014  0.3761  0.2032
33216W        W76310  28.906  13.277  30.828 -0.1076  0.0850 -0.1962
33217W        W76311  25.058  12.179   3.835  0.1867  0.0132 -0.2602
33218W        W76312  26.970  11.334   3.653 -0.2159 -0.2312 -0.1672
33219W        W76313  25.370  14.655   1.201 -0.0963 -0.0422  0.0679
33220W        W76314  27.680  12.867   3.232 -0.0004 -0.0513  0.1562
33221W        W76315  27.328  12.513   0.599 -0.2485 -0.2852 -0.1021
33222W        W76316  27.690  13.021   3.927 -0.1305 -0.0278  0.2000
33223W        W76317  26.143  12.953   3.276 -0.1388 -0.2134 -0.1693
33224W        W76318  26.599  10.301   1.539 -0.0270  0.2007  0.1968
33225W        W76319  27.231  13.383   2.494  0.1336 -0.1053 -0.0630
33226W        W76320  27.489  11.443   1.556 -0.1796  0.0181  0.1380
33227W        W76321  24.871  13.907   2.229 -0.1635 -0.3343 -0.4382
33228W        W76322  27.020  14.076   1.347 -0.0703 -0.0419 -0.3645
33229W        W76323  26.913  13.821   1.896 -0.0377 -0.0950 -0.1718
33230W        W76324  26.111  14.106   1.246  0.0153 -0.0667 -0.2836
33231W        W76325  26.593  12.753   3.452 -0.0399  0.1245 -0.0233
33232W        W76326  27.674  13.422   2.239 -0.1368 -0.1476 -0.0369
33233W        W76327  26.149  12.072   0.956 -0.0795  0.3322  0.0156
33234W        W76328  25.649  13.012   2.281 -0.0686  0.0226  0.2610
33235W        W76329  27.233  12.827   2.262 -0.0932 -0.0499 -0.0481
33236W        W76330  28.398  13.264   3.090 -0.0806  0.2939  0.1068
33237W        W76331  26.834  12.170   3.942 -0.2524 -0.0693 -0.0615
33238W        W76332  27.647  11.276   2.399  0.4958 -0.0411 -0.0147
33239W        W76333  28.052  13.757   1.441 -0.1358 -0.1051  0.3466
33240W        W76334  28.740  12.682   3.376  0.5419  0.0978 -0.1590
33241W        W76335  26.173  12.714   0.988 -0.0074  0.3575  0.2552
33242W        W76336  26.401  11.920   2.327  0.3568  0.2409  0.0997
33243W        W76337  25.252  13.616   1.077 -0.1057  0.0522 -0.1164
33244W        W76338  26.632  11.783   3.600 -0.1909 -0.0308 -0.0536
33245W        W76339  25.529  14.193   1.961  0.2422 -0.0327 -0.1680
33246W        W76340  23.850  13.634  31.579  0.0795 -0.0333 -0.2702
33247W        W76341  24.585  13.082   1.483  0.1314  0.0349  0.0432
33248W        W76342  28.993  11.219   1.024  0.1755 -0.2037  0.1350
33249W        W76343  28.307  15.941   1.068 -0.2232 -0.5802 -0.1064
33250W        W76344  26.424  11.913   1.430 -0.0117  0.3860  0.2893
33251W        W76345  28.507  12.192   3.332  0.1253  0.1750  0.0226
33252W        W76346  27.864  11.786   1.345 -0.0554 -0.0350  0.2168
33253W        W76347  28.178  12.238   3.705  0.0423  0.0342 -0.0561
33254W        W76348  26.073  11.573   2.167 -0.5227  0.0032 -0.0357
33255W        W76349  28.785  13.203  31.739 -0.0400 -0.2414 -0.2280
33256W        W76350  25.164  11.739   2.702 -0.0361 -0.0109  0.2941
33257W        W76351  27.102  16.139   4.180 -0.0341  0.1687  0.0074
33258W        W76352  25.646  12.391   3.501  0.2196  0.2344  0.1757
33259W        W76353  28.145  13.685   2.010  0.2751  0.2414  0.0699
33260W        W76354  26.686  10.646   0.548  0.2050 -0.1541  0.0558
33261W        W76355  26.958  12.442   2.057  0.0583  0.0727 -0.0040
33262W        W76356  28.506  13.538   1.199 -0.1783 -0.0159 -0.2924
33263W        W76357  26.726  13.312   0.867  0.0342  0.0271  0.2055
33264W        W76358  28.234  12.522   0.738 -0.1493 -0.0770  0.0450
33265W        W76359  26.445  12.576   1.998  0.1478 -0.0838 -0.0221
33266W        W76360  26.106  12.891   2.130 -0.0918  0.3700 -0.1195
33267W        W76361  27.616  13.993   0.879 -0.1921 -0.3191 -0.0192
33268W        W76362  26.765  13.004   2.024  0.1555  0.1109 -0.0161
33269W        W76363  26.059  12.205   2.830  0.4509  0.0173 -0.0813
33270W        W76364  26.603  13.414   2.400 -0.2606 -0.2742 -0.3281
33271W        W76365  27.772  10.382   1.456  0.0077 -0.1979 -0.1452
33272W        W76366  27.542  11.539   2.801  0.0137 -0.0854  0.1243
33273W        W76367  28.971  13.074   2.993 -0.1185  0.0713  0.1401
33274W        W76368  26.388  12.876   3.975 -0.0117 -0.2481 -0.0209
33275W        W76369  25.087  12.065   4.375  0.1483 -0.2336 -0.0522
33276W        W76370  28.265  14.681   1.077 -0.0931  0.0876  0.2276
33277W        W76371  28.225  12.046   1.013  0.2086 -0.1852  0.0536
33278W        W76372  29.145  12.679   1.632 -0.2059 -0.0096  0.2630
33279W        W76373  27.229  13.155   1.206 -0.0087  0.0658  0.0146
33280W        W76374  27.974  12.094  31.523  0.0101  0.1211  0.0840
33281W        W76375  25.370  10.966   1.456  0.3603  0.0266 -0.2886
33282W        W76376  27.331  12.645   1.244 -0.0915 -0.0961  0.1557
33283W        W76377  25.845  11.254   0.832 -0.3517  0.3448 -0.1044
33284W        W76378  28.052  13.087   3.528 -0.2382  0.1059 -0.1054
33285W        W76379  27.003  13.668  31.147 -0.1391 -0.1617  0.0070
33286W        W76380  26.854  12.643   1.590  0.0580  0.0771  0.1092
33287W        W76381  29.067  13.194   1.082  0.2079  0.0094 -0.0157
33288W        W76382  25.600  11.925   1.907  0.2574 -0.1846 -0.5084
33289W        W76383  25.333  13.703   3.761 -0.0701  0.1493  0.0944
33290W        W76384  26.020  12.996  31.909 -0.1723  0.0479 -0.2408
33291W        W76385  27.040  12.791  31.351  0.0283 -0.2617  0.0127
33292W        W76386  26.721  15.533   1.227  0.0890  0.1598 -0.0018
33293W        W76387  29.506  12.460   3.735  0.0101 -0.1346 -0.1796
33294W        W76388  26.153  11.556   1.157 -0.0393 -0.1305  0.0194
33295W        W76389  28.777  13.998   3.941  0.0062  0.0097 -0.0193
33296W        W76390  25.345  13.757   0.289 -0.1119  0.0704 -0.0090
33297W        W76391  27.352  11.981   1.371  0.0308  0.0116  0.2286
33298W        W76392  26.276  13.589   3.098  0.1379  0.1820  0.2298
33299W        W76393  24.803  13.595   3.577  0.0457  0.3254  0.0220
33300W        W76394  26.536  14.237  31.758 -0.1387 -0.2002 -0.0605
33301W        W76395  29.502  14.120   2.529  0.2756  0.0514  0.1354
33302W        W76396  27.715  12.911   2.034 -0.0828  0.0738 -0.4484
33303W        W76397  26.640  12.875   1.202 -0.1408 -0.2514  0.3026
33304W        W76398  29.066  11.468   3.411  0.1048  0.0015 -0.1839
33305W        W76399  26.556  12.869   0.659  0.0247 -0.1311 -0.1109
33306W        W76400  25.967  12.577   1.780 -0.0833 -0.1665  0.0216
33307W        W76401  27.911  14.617   1.906 -0.0465 -0.3050  0.0215
33308W        W76402  28.096  13.502   0.944 -0.0544  0.0086 -0.0870
33309W        W76403  26.524  13.399   1.896  0.1051  0.0606  0.0219
33310W        W76404  25.151  12.242   3.281 -0.0923  0.1001  0.0660
33311W        W76405  26.895  13.168   3.565  0.2502  0.0085  0.3348
33312W        W76406  26.504  14.067   1.638  0.0974 -0.1368  0.1510
33313W        W76407  26.897  11.660   2.068 -0.2010  0.1027 -0.3016
33314W        W76408  26.482  13.115  31.565  0.2102 -0.0516 -0.1509
33315W        W76409  25.629  12.887   3.531  0.0801 -0.0300  0.1150
33316W        W76410  25.090  13.154   2.341 -0.1008  0.2493 -0.2380
33317W        W76411  24.523  14.108   0.711  0.0198 -0.0143 -0.0694
33318W        W76412  27.707  14.572   0.288  0.3444 -0.0711 -0.3289
33319W        W76413  27.594  12.214   0.268 -0.1174  0.1797  0.1100
33320W        W76414  28.425  14.164   1.988  0.1761  0.1963  0.0725
33321W        W76415  26.859  12.158   1.424 -0.0271  0.5476 -0.0130
33322W        W76416  25.758  14.448   0.850  0.1038 -0.1151  0.1865
33323W        W76417  25.386  14.419  31.719 -0.3357 -0.2190 -0.0579
33324W        W76418  29.034  13.549   0.009 -0.1931 -0.1756 -0.1818
33325W        W76419  26.100  16.020   1.801 -0.1430  0.0763 -0.0810
33326W        W76420  29.685  13.711   2.922 -0.1748  0.2350 -0.0572
33327W        W76421  28.645  10.852  30.560  0.1074 -0.0662  0.0519
33328W        W76422  27.626  13.397   0.796  0.0430  0.3929 -0.3510
33329W        W76423  28.561  10.356   1.210 -0.1341  0.0368  0.0131
33330W        W76424  26.941  12.601   3.100  0.0257  0.1802 -0.0241
33331W        W76425  27.134  12.088   2.966 -0.0330 -0.0962 -0.1598
33332W        W76426  27.105  10.808   0.247 -0.1388  0.0023  0.1415
33333W        W76427  25.737  13.503   2.496 -0.0640 -0.1003 -0.1193
33334W        W76428  29.918  10.994   2.204  0.0003  0.4146 -0.3897
33335W        W76429  23.821  15.084   2.186  0.1468  0.1108  0.1682
33336W        W76430  29.456  13.584  31.689  0.2044  0.0694 -0.3566
33337W        W76431  25.719  11.097   1.930 -0.0019  0.1654 -0.3326
33338W        W76432  26.098  13.466   2.175 -0.1861  0.1038 -0.1539
33339W        W76433  28.637  11.026   2.379 -0.1535  0.1196  0.0638
33340W        W76434  26.313  13.434   0.025  0.1417 -0.0259  0.6104
33341W        W76435  27.240  11.164   2.047 -0.0431 -0.1938 -0.1252
33342W        W76436  27.330  14.367   0.615  0.0335  0.2503 -0.2514
33343W        W76437  25.248  14.314   1.522 -0.2926  0.0074  0.2712
33344W        W76438  27.620  13.953   1.391  0.1411 -0.3055 -0.0507
33345W        W76439  26.465  10.527   1.122 -0.1817 -0.2108  0.1452
33346W        W76440  28.790  13.257   0.294  0.2012  0.3968 -0.2730
33347W        W76441  26.107  12.426   3.244 -0.3598  0.0891 -0.0387
33348W        W76442  28.150  11.308   2.195  0.1568 -0.1037 -0.0380
33349W        W76443  27.169  13.627   0.981 -0.2612  0.0963 -0.0614
33350W        W76444  27.916  11.796   0.282 -0.0252  0.3575  0.1071
33351W        W76445  25.688  12.536   3.028 -0.2964 -0.1265 -0.2596
33352W        W76446  25.790  11.930   3.213  0.1424  0.1223 -0.2653
33353W        W76447  26.856  12.293   0.540 -0.2976  0.0698  0.1515
33354W        W76448  29.573  11.232   4.615  0.1946 -0.0009 -0.2239
33355W        W76449  29.347  13.065  31.674  0.0458  0.3639  0.0879
33356W        W76450  27.602  13.697   1.809 -0.3405 -0.1590 -0.0841
33357W        W76451  25.318  12.141   2.347 -0.0754 -0.1977 -0.0937
33358W        W76452  28.317  12.367   1.979 -0.1853 -0.4329 -0.2944
33359W        W76453  25.386  12.787   2.684 -0.1606  0.2192 -0.0753
33360W        W76454  26.494  12.451   4.329  0.0239 -0.1534  0.0210
33361W        W76455  28.603  15.039   3.182  0.2969  0.0759  0.1445
33362W        W76456  26.138   9.644   0.655 -0.1685  0.1278  0.2589
33363W        W76457  28.951  14.822   0.108 -0.1003 -0.0557 -0.0437
33364W        W76458  26.831  14.316   1.987 -0.0225 -0.0823  0.1505
33365W        W76459  25.209  13.322  31.594 -0.3157  0.4283 -0.3532
33366W        W76460  27.535  14.011  31.968 -0.0235  0.2011 -0.3299
33367W        W76461  28.856  13.610   1.500  0.1103  0.3108  0.1447
33368W        W76462  25.892  11.160   2.410  0.0842  0.1648  0.3979
33369W        W76463  27.503  14.542   2.697  0.1668  0.1535 -0.0483
33370W        W76464  28.954  14.621   1.000 -0.2143  0.2699  0.4804
33371W        W76465  27.351  11.838   1.857  0.3972 -0.0394 -0.2876
33372W        W76466  26.840  11.069   2.334 -0.0236  0.1030  0.2078
33373W        W76467  24.082  14.285   0.918  0.1440  0.0888  0.1467
33374W        W76468  28.670  12.744   1.011 -0.0178 -0.0501 -0.4014
33375W        W76469  28.605  12.842   2.190  0.2535 -0.0163  0.1106
33376W        W76470  27.644  14.840  30.641  0.1740 -0.2626 -0.1802
33377W        W76471  28.997  11.558   2.664  0.1589  0.0455 -0.3530
33378W        W76472  26.962  13.026   2.658  0.0881  0.1367 -0.0502
33379W        W76473  26.075  13.736   4.360 -0.1641  0.3795  0.0471
33380W        W76474  25.608  14.038  31.966  0.1983 -0.2647 -0.3312
33381W        W76475  27.545  11.900   3.201 -0.2141  0.0626  0.1243
33382W        W76476  26.244  14.661   0.968 -0.0522 -0.2794 -0.0245
33383W        W76477  26.989  15.681   0.576 -0.0201  0.1381 -0.0698
33384W        W76478  28.880  15.153   0.796  0.0119  0.3509 -0.2720
33385W        W76479  26.598  11.367   1.352 -0.1633  0.2378  0.0001
33386W        W76480  29.396  13.334   3.170 -0.2168  0.0273  0.2919
33387W        W76481  26.468  11.662   1.832  0.0940  0.3051 -0.2573
33388W        W76482  28.172  12.118   1.590  0.1922 -0.2049  0.0732
33389W        W76483  28.082  10.284   1.034 -0.2572 -0.3809 -0.0620
33390W        W76484  24.860  13.250   3.131  0.0497  0.1843 -0.2511
33391W        W76485  27.053  11.620   1.068  0.1203  0.0063 -0.0104
33392W        W76486  26.365  13.405   0.523  0.0895 -0.0983  0.1514
33393W        W76487  25.606  13.405   1.462  0.1387  0.0065 -0.0309
33394W        W76488  27.133  11.798   3.803 -0.0641 -0.0833  0.0093
33395W        W76489  27.428  11.381   3.804  0.0830  0.1194  0.1156
33396W        W76490  26.031  14.120   1.783  0.1105  0.1590 -0.0005
33397W        W76491  26.664  10.994   0.983 -0.0225  0.0169  0.1269
33398W        W76492  28.768  14.306   0.232  0.0784 -0.2285 -0.1605
33399W        W76493  25.749  11.305   1.357  0.0901 -0.0146  0.1480
33400W        W76494  25.323   9.802   1.264  0.3828 -0.2174  0.1211
33401W        W76495  28.802  13.417   2.111 -0.3643 -0.1076 -0.2837
33402W        W76496  27.819  14.514   0.880 -0.0904  0.0513  0.2425
33403W        W76497  27.834  11.766   2.359 -0.1597 -0.1962 -0.1482
33404W        W76498  28.243  14.649   3.027  0.1181  0.1361 -0.0217
33405W        W76499  25.129  13.010  30.970  0.1737  0.0892  0.0475
33406W        W76500  27.420  12.420   3.214  0.0296  0.1148  0.1493
33407W        W76501  25.714  11.322   3.365  0.1089  0.3351 -0.1335
33408W        W76502  25.809  12.282   0.500  0.1487  0.1348  0.0203
33409W        W76503  26.312  10.530   2.527 -0.0092 -0.1431 -0.0909
33410W        W76504  26.999  14.496  31.832 -0.2138 -0.1004  0.2494
33411W        W76505  27.910  14.874  31.918  0.1876 -0.2265  0.2633
33412W        W76506  25.230  13.320   2.769  0.1953  0.1369 -0.4801
33413W        W76507  26.178  13.271   2.674  0.0920 -0.1783  0.2432
33414W        W76508  24.988  10.601   2.566  0.0795 -0.0934  0.4351
33415W        W76509  29.117  12.879   0.118  0.0638 -0.1141  0.1211
33416W        W76510  26.294  12.656   2.877  0.0714 -0.0554 -0.1691
33417W        W76511  28.510  13.032  30.653  0.0462 -0.0844  0.3621
33418W        W76512  27.917  13.061  31.958  0.1259  0.0253  0.2748
33419W        W76513  28.824  13.481   0.780 -0.1577 -0.2623 -0.0227
33420W        W76514  23.590  10.256   2.523 -0.0338 -0.0666  0.2049
33421W        W76515  26.537  11.941   2.775 -0.2009  0.0943 -0.1396
33422W        W76516  29.988  13.125   2.436  0.0684  0.4558  0.1901
33423W        W76517  26.763   9.957   0.579  0.1706  0.2389  0.3558
33424W        W76518  26.104  12.533   0.190  0.0209  0.1087  0.2816
33425W        W76519  28.802  13.838   0.299 -0.1620 -0.1498 -0.1725
33426W        W76520  25.763  13.781   2.923  0.2792  0.0745  0.1599
33427W        W76521  28.490  13.110   0.730  0.3005 -0.1904  0.4435
33428W        W76522  25.496  11.733   4.972  0.0819  0.0091  0.2153
33429W        W76523  25.875  14.644  31.565  0.0687  0.1193  0.4149
33430W        W76524  28.204  12.669   3.370 -0.1935 -0.2791  0.2363
33431W        W76525  27.048  12.830   0.345 -0.0225 -0.3090 -0.1190
33432W        W76526  28.293  13.069  31.089 -0.2080  0.3097  0.0893
33433W        W76527  27.673  14.239   2.215 -0.1016  0.4470  0.0131
33434W        W76528  28.751  14.559   2.981  0.1676 -0.1235 -0.0417
33435W        W76529  27.196  13.627   1.495  0.2832 -0.1221 -0.0266
33436W        W76530  27.834  12.921   1.380 -0.1788 -0.1129 -0.0779
33437W        W76531  25.330  10.187   2.751  0.1250 -0.1681  0.0490
33438W        W76532  25.970  11.678   1.685 -0.2981 -0.0162  0.1979
33439W        W76533  25.861  13.152   1.831  0.1454  0.1714  0.3262
33440W        W76534  28.271  12.875   1.826  0.0027 -0.0235 -0.0644
33441W        W76535  26.417  12.291   3.626  0.0650 -0.0588 -0.1797
33442W        W76536  27.675  12.740   0.885  0.1722  0.1187 -0.2083
33443W        W76537  25.910  14.908   1.417  0.0439  0.1173 -0.0318
33444W        W76538  27.249  13.291   1.964 -0.1595 -0.3880 -0.1941
33445W        W76539  26.208  14.182   7.584 -0.0161  0.0717 -0.1546
33446W        W76540  26.062  11.684   4.072  0.3276  0.0887  0.0802
33447W        W76541  28.533  11.739   4.343 -0.1109  0.1416 -0.0764
33448W        W76542  27.261  13.227   4.570  0.1489 -0.2711  0.0024
33449W        W76543  25.091  10.838   4.963  0.3879 -0.2631 -0.2752
33450W        W76544  29.263  14.731   3.792 -0.0315  0.0624  0.2373
33451W        W76545  25.749  10.738   6.077  0.1455 -0.4770  0.0879
33452W        W76546  27.156  14.152   5.332 -0.2475 -0.1423  0.2150
33453W        W76547  28.652  15.171   6.327  0.1447 -0.0327 -0.0632
33454W        W76548  26.513  14.837   2.814  0.1014  0.0146  0.3765
33455W        W76549  25.455  11.729   4.481  0.1396  0.3151  0.0422
33456W        W76550  27.009  14.710   7.084  0.0940  0.1878  0.2480
33457W        W76551  25.769  11.393   5.255  0.4188  0.1513 -0.2323
33458W        W76552  25.116  10.371   7.177  0.0754 -0.3375 -0.3646
33459W        W76553  27.463  11.576   5.097 -0.0583 -0.1548 -0.1082
33460W        W76554  26.990  11.983   5.184 -0.4022 -0.3717 -0.0224
33461W        W76555  26.131  12.774   6.548  0.1367  0.1236  0.0300
33462W        W76556  27.750  12.254   4.559 -0.3359 -0.1642 -0.1592
33463W        W76557  28.453  13.623   4.303 -0.0238 -0.0779  0.2819
33464W        W76558  27.377  13.166   6.371 -0.0221 -0.0903  0.0032
33465W        W76559  27.847  11.001   9.367 -0.1859 -0.0028  0.2597
33466W        W76560  26.865  14.095   3.856 -0.1544  0.2294  0.2105
33467W        W76561  24.335  11.625   3.339  0.0345 -0.2193 -0.2155
33468W        W76562  26.238  10.041   5.941  0.0862  0.2132  0.0845
33469W        W76563  26.511  11.792   5.918 -0.0174 -0.1389 -0.0098
33470W        W76564  28.167  11.640   6.227  0.0830 -0.0474  0.1818
33471W        W76565  27.497  14.086   4.187 -0.1876  0.0643 -0.4971
33472W        W76566  27.037  14.932   4.454 -0.0773 -0.2323  0.2828
33473W        W76567  28.621  14.038   6.253  0.0537 -0.0789  0.1049
33474W        W76568  27.367  11.334   7.619  0.1191  0.1937 -0.0380
33475W        W76569  26.327  13.350   4.157 -0.0819  0.0285 -0.1069
33476W        W76570  25.224  14.468   5.119  0.2904  0.0779 -0.0531
33477W        W76571  26.525  14.495   3.136  0.0231 -0.2400  0.0012
33478W        W76572  29.245  14.165   4.614  0.2734 -0.1185  0.1743
33479W        W76573  28.993  13.927   6.559 -0.1010  0.0912  0.0090
33480W        W76574  28.124  15.843   7.967  0.1432  0.0234 -0.0647
33481W        W76575  26.298  13.474   4.713  0.1965 -0.0322 -0.0087
33482W        W76576  27.404  15.629   6.549  0.1381  0.2195 -0.0138
33483W        W76577  26.807  14.127   7.615  0.0131 -0.0936 -0.0877
33484W        W76578  26.200  12.243   6.130 -0.0188  0.2711  0.0137
33485W        W76579  26.452  12.727   4.913  0.0001 -0.0416 -0.3927
33486W        W76580  26.699  13.168   3.088 -0.2036  0.0746 -0.0685
33487W        W76581  27.187  14.043   2.774 -0.1792 -0.0818 -0.0172
33488W        W76582  26.825  13.414   6.463  0.0706  0.1467  0.1136
33489W        W76583  25.573  14.085   7.041 -0.0417  0.0639 -0.0877
33490W        W76584  28.174  12.321   7.509 -0.1140 -0.0393 -0.0010
33491W        W76585  24.987  14.319   1.933 -0.0298 -0.2157 -0.4880
33492W        W76586  28.913  11.766   4.681  0.0533 -0.2209  0.0786
33493W        W76587  26.801  11.251   4.552 -0.1236  0.1396  0.0731
33494W        W76588  29.352  11.425   3.840  0.0924  0.3315  0.0062
33495W        W76589  27.715  11.162   4.747  0.3970 -0.0087  0.2024
33496W        W76590  26.106  13.079   5.700 -0.1790  0.2340  0.0548
33497W        W76591  26.861  11.432   5.826  0.2459  0.1518 -0.0707
33498W        W76592  29.265  14.974   6.872 -0.0478  0.1891 -0.5171
33499W        W76593  26.999  14.673   4.985  0.4175  0.0711 -0.1922
33500W        W76594  27.280  12.781   6.702 -0.3507  0.1982  0.1458
33501W        W76595  26.015  13.827   7.283 -0.1405  0.2075  0.0909
33502W        W76596  25.653  12.375   5.498  0.2780 -0.0030 -0.0371
33503W        W76597  28.008  14.485   4.258  0.0814 -0.0419  0.0699
33504W        W76598  28.007  14.263   5.172  0.0231 -0.0963  0.1736
33505W        W76599  26.715  14.651   2.382  0.2065  0.2333 -0.0580
33506W        W76600  26.489  12.428   6.535  0.2779  0.0442 -0.1432
33507W        W76601  25.712  14.326   7.424  0.1323 -0.2333 -0.1454
33508W        W76602  24.276  11.852   6.257  0.1873 -0.1401  0.0691
33509W        W76603  27.742  11.990   3.649  0.2122 -0.0233 -0.2822
33510W        W76604  27.763  13.999   6.511 -0.0859 -0.0869 -0.2762
33511W        W76605  25.890  14.790   6.283  0.3034 -0.2759 -0.0704
33512W        W76606  29.140  12.714   5.028 -0.0430 -0.0594 -0.1657
33513W        W76607  27.171  13.739   4.609 -0.2049 -0.1337 -0.1497
33514W        W76608  29.442  14.140   6.779  0.1071  0.1622 -0.0197
33515W        W76609  28.150  13.391   3.992 -0.0032 -0.0088 -0.0529
33516W        W76610  28.744  12.495   5.362  0.1436 -0.0694  0.0998
33517W        W76611  27.656  10.769   5.343  0.1064 -0.2803  0.0658
33518W        W76612  26.803  13.086   4.240  0.0011  0.3205 -0.0316
33519W        W76613  26.650  13.598   3.887  0.3541 -0.0944 -0.1030
33520W        W76614  29.516  13.483   6.636  0.0871 -0.1216 -0.2232
33521W        W76615  29.706  12.308   4.154  0.0894 -0.0861  0.1262
33522W        W76616  25.285  14.945   4.974  0.0504  0.0124 -0.0312
33523W        W76617  26.397  11.334   5.555  0.2173 -0.1180  0.0963
33524W        W76618  26.512  13.785   7.373  0.1648 -0.2621 -0.2468
33525W        W76619  25.254  14.670   2.219 -0.1899  0.0790  0.1856
33526W        W76620  24.943  13.002   5.152  0.0154 -0.1370 -0.0092
33527W        W76621  25.905  13.070   4.697 -0.1514  0.2552  0.1853
33528W        W76622  24.155  10.205   6.236  0.0531 -0.1967  0.1272
33529W        W76623  25.987  13.366   6.112  0.0968  0.1577 -0.0469
33530W        W76624  29.425  11.445   2.870  0.1438 -0.1070 -0.2402
33531W        W76625  24.839  11.204   6.351 -0.0233  0.0726 -0.0026
33532W        W76626  28.075  11.807   4.549 -0.1636 -0.1072 -0.0101
33533W        W76627  25.962  12.853   4.239  0.0761  0.2587 -0.0264
33534W        W76628  29.381  14.946   5.007 -0.0968 -0.1443 -0.1355
33535W        W76629  29.117  13.573   3.984  0.0177  0.1019  0.0675
33536W        W76630  28.209  13.431   2.649  0.0795  0.0489 -0.2498
33537W        W76631  25.473  13.093   6.913 -0.1650 -0.0321 -0.1408
33538W        W76632  25.753  11.233   4.301 -0.0809 -0.0797 -0.2349
33539W        W76633  25.771  10.888   6.539  0.1333  0.0440  0.0906
33540W        W76634  25.802  10.924   7.317  0.1280  0.0247 -0.0105
33541W        W76635  28.576  12.083   6.884  0.2208 -0.0422 -0.2276
33542W        W76636  26.038   9.993   3.387 -0.1879 -0.2283  0.1332
33543W        W76637  27.470  12.745   4.603  0.0109 -0.1896 -0.0211
33544W        W76638  25.945  11.522   4.756 -0.2492  0.0702 -0.0656
33545W        W76639  26.054  12.101   5.610  0.1528 -0.0306  0.2213
33546W        W76640  28.411  11.493   5.818 -0.1575 -0.0666 -0.0907
33547W        W76641  29.029  13.795   2.366 -0.1133  0.0277  0.0918
33548W        W76642  29.150  14.545   8.008  0.2553 -0.0934 -0.1197
33549W        W76643  27.912  14.790   4.883 -0.3441  0.1076 -0.0047
33550W        W76644  25.083  11.233   5.815 -0.0453 -0.1529  0.2169
33551W        W76645  26.651  10.477   5.135  0.0210  0.0609  0.0014
33552W        W76646  24.650  14.387   5.315 -0.0188 -0.1072 -0.3672
33553W        W76647  28.437  14.731   3.520  0.0638 -0.0652 -0.4846
33554W        W76648  25.848  10.850   4.748 -0.0169 -0.3906  0.2625
33555W        W76649  28.930  15.312   5.895  0.1869 -0.0236  0.0205
33556W        W76650  28.436  14.083   5.350 -0.2784  0.2204  0.4417
33557W        W76651  26.937  14.248   6.795 -0.2271  0.0863 -0.3848
33558W        W76652  27.552  12.091   5.773  0.0506  0.0348 -0.2269
33559W        W76653  29.121  12.324   7.467 -0.1256  0.3300 -0.0713
33560W        W76654  28.262  12.788   5.287 -0.2341 -0.3339 -0.4332
33561W        W76655  25.535  12.107   4.062 -0.0024  0.1531  0.2518
33562W        W76656  29.465  13.615   4.458  0.0319  0.0077  0.2519
33563W        W76657  26.385  14.275   4.935  0.2302 -0.0203  0.0132
33564W        W76658  25.626  11.878   5.457  0.2482  0.1166 -0.0547
33565W        W76659  27.450  15.117   4.071 -0.0575  0.3936 -0.0740
33566W        W76660  28.289  11.578   5.357  0.2739  0.0866  0.0960
33567W        W76661  25.460  12.374   7.381 -0.3095 -0.1174  0.0951
33568W        W76662  27.472  13.119   7.297 -0.4029  0.0764 -0.2279
33569W        W76663  26.070  11.514   3.618 -0.1851  0.1202 -0.2526
33570W        W76664  26.472  14.235   5.740  0.1731  0.3922  0.1198
33571W        W76665  27.735  11.416   6.347  0.1892 -0.0025 -0.1372
33572W        W76666  28.449  11.332   3.590  0.0090 -0.0175 -0.3916
33573W        W76667  26.514  12.453   5.813 -0.0113 -0.0298 -0.2181
33574W        W76668  27.264  12.969   4.157  0.1842  0.0482 -0.0685
33575W        W76669  27.906  12.045   5.004 -0.2106  0.0145 -0.2107
33576W        W76670  26.481  11.531   5.017  0.2731 -0.0234  0.1009
33577W        W76671  26.491  14.520   7.921 -0.2449 -0.0567  0.3665
33578W        W76672  27.820  13.540   3.649 -0.1099 -0.1127  0.3047
33579W        W76673  27.192  13.465   5.037  0.0237 -0.0354 -0.0023
33580W        W76674  26.750  13.244   4.740 -0.2876  0.0276  0.2563
33581W        W76675  28.970  14.991   4.183  0.1076 -0.0205 -0.1092
33582W        W76676  25.761  13.221   6.478 -0.0751  0.2858 -0.1237
33583W        W76677  28.420  13.868   7.854  0.1534  0.0698  0.0755
33584W        W76678  28.304  14.638   5.484 -0.1515 -0.1297 -0.1255
33585W        W76679  27.418  12.563   6.025  0.1864  0.0594 -0.0907
33586W        W76680  27.434  13.258   3.526 -0.2309  0.0640  0.0502
33587W        W76681  27.477  11.906   6.202 -0.2070 -0.2285  0.1192
33588W        W76682  26.491  14.953   4.465  0.0297  0.0110 -0.0559
33589W        W76683  28.148  11.992   5.759 -0.2306  0.0761 -0.0277
33590W        W76684  27.493  12.382   6.432 -0.2461 -0.2070 -0.3273
33591W        W76685  27.123  11.315   6.718  0.2691 -0.2095  0.1616
33592W        W76686  28.477  11.177   7.113  0.0976  0.1321  0.0853
33593W        W76687  28.902  12.283   3.664  0.0348 -0.0120  0.1921
33594W        W76688  27.684  13.763   4.749 -0.0854 -0.1231 -0.0650
33595W        W76689  25.589  10.880   3.920  0.1308  0.1472  0.4676
33596W        W76690  27.067  12.271   6.659  0.1733 -0.1830 -0.2698
33597W        W76691  26.417  13.417   5.364 -0.0192  0.0900  0.2160
33598W        W76692  25.513  14.268   6.574 -0.0029  0.0122 -0.2222
33599W        W76693  28.151  13.934   6.145  0.1716  0.1148  0.2685
33600W        W76694  26.937  12.730   5.668 -0.0952 -0.1272 -0.3287
33601W        W76695  27.153  11.818   6.546 -0.0216 -0.0424 -0.0429
33602W        W76696  26.669  11.458   4.028 -0.1508 -0.1112  0.2253
33603W        W76697  26.713  15.266   2.797  0.1788 -0.1108  0.0295
33604W        W76698  26.210  13.690   3.654 -0.0867  0.3611  0.1349
33605W        W76699  26.791  10.957   6.020  0.1342 -0.1151  0.1958
33606W        W76700  27.305  14.721   6.697  0.0021 -0.1492  0.0815
33607W        W76701  26.260  13.789   2.638  0.2150  0.1244 -0.0466
33608W        W76702  28.360  13.500   6.021 -0.0751 -0.1800 -0.0986
33609W        W76703  26.063  14.344   3.775 -0.0854  0.1113 -0.0392
33610W        W76704  28.484  11.838   4.905 -0.1629 -0.1067  0.0660
33611W        W76705  25.807  14.371   5.048 -0.1527  0.0075  0.3628
33612W        W76706  26.465  11.707   4.569  0.0740  0.0813 -0.0486
33613W        W76707  25.292  12.637   5.289 -0.0064  0.2176 -0.0965
33614W        W76708  29.250  11.994   3.978  0.1865 -0.1262  0.3796
33615W        W76709  27.724  14.087   3.668  0.1385  0.1921 -0.0162
33616W        W76710  25.034  12.857   6.071 -0.2752  0.3715 -0.4033
33617W        W76711  26.888  10.569   5.696 -0.0216  0.0594 -0.5509
33618W        W76712  26.853  14.211   4.915  0.0613  0.2331 -0.3200
33619W        W76713  28.872  13.880   4.412  0.3782  0.3575 -0.0350
33620W        W76714  27.756  11.757   4.099 -0.1636 -0.1449  0.5825
33621W        W76715  27.990  13.363   5.338  0.1825 -0.0646 -0.2099
33622W        W76716  25.990  13.033   6.934  0.0215 -0.0911  0.2588
33623W        W76717  25.282  12.172   4.989  0.0824 -0.2355 -0.1946
33624W        W76718  27.775  12.920   5.387  0.2269  0.2601  0.3462
33625W        W76719  27.089  11.718   3.322  0.0831 -0.0406 -0.5504
33626W        W76720  25.437  14.471   4.147  0.0359 -0.2278 -0.3127
33627W        W76721  28.435  15.304   7.213  0.0251 -0.1517  0.3272
33628W        W76722  26.360  12.983   4.502 -0.3068  0.2357  0.1123
33629W        W76723  26.415  14.079   4.517  0.1566  0.0321  0.0248
33630W        W76724  25.619  11.875   6.026 -0.0958  0.0199 -0.0737
33631W        W76725  28.183  13.048   5.733 -0.1671  0.2019  0.0366
33632W        W76726  27.513  13.340   5.485 -0.0487 -0.1517 -0.0236
33633W        W76727  26.459  10.708   3.957 -0.2676  0.1561 -0.1180
33634W        W76728  26.450  12.830   5.461  0.4422 -0.1142  0.0032
33635W        W76729  28.027  12.689   4.327 -0.1660 -0.1557 -0.0346
33636W        W76730  27.300  12.972   5.166 -0.2247  0.1102 -0.2404
33637W        W76731  27.045  13.178   7.893 -0.1047  0.0577  0.1509
33638W        W76732  26.881  11.431   6.285 -0.2774 -0.0585  0.3213
33639W        W76733  28.631  15.382   4.564  0.3116 -0.1681  0.0371
33640W        W76734  28.806  12.485   6.695  0.2656  0.1499  0.2598
33641W        W76735  26.039  12.613   5.743  0.0708 -0.2287 -0.0292
33642W        W76736  26.083  13.531   6.851 -0.0955  0.0044 -0.2132
33643W        W76737  25.491  14.182   6.014 -0.1460 -0.1257 -0.1465
33644W        W76738  27.849  12.663   5.812  0.2078  0.3461  0.1226
33645W        W76739  27.288  14.319   3.659  0.3005  0.1606  0.1595
33646W        W76740  25.984  13.104   3.787  0.0657 -0.1714 -0.1888
33647W        W76741  26.121  14.244   6.317 -0.1669 -0.4147  0.0487
33648W        W76742  29.073   9.808   4.063  0.0459 -0.2836 -0.0710
33649W        W76743  27.045  12.446   4.282 -0.3799 -0.0609  0.0509
33650W        W76744  27.429  12.140   5.277  0.3523  0.1295  0.0795
33651W        W76745  29.648  12.021   6.707 -0.4034  0.1134  0.3795
33652W        W76746  28.977  12.845   4.536 -0.1249  0.2340 -0.0014
33653W        W76747  29.678  10.588   7.917  0.0778 -0.0842  0.1751
33654W        W76748  26.358  12.880   6.100 -0.1027 -0.2104  0.0151
33655W        W76749  27.118  13.472   4.155  0.1165 -0.3111 -0.1765
33656W        W76750  25.027  10.309   7.987 -0.1141 -0.1215  0.2581
33657W        W76751  27.718  15.189   6.626  0.2714  0.1813  0.3567
33658W        W76752  26.606  13.276   5.929 -0.0027 -0.0943 -0.1502
33659W        W76753  27.397  12.564   5.537  0.1201  0.0272  0.1673
33660W        W76754  27.732  11.290   4.245 -0.0709  0.0209  0.3454
33661W        W76755  26.142  12.526   5.193 -0.1675  0.1470 -0.1708
33662W        W76756  29.256  13.435   5.718 -0.1475  0.0202  0.4107
33663W        W76757  26.670  13.664   4.417 -0.2383 -0.3987  0.0183
33664W        W76758  28.345  12.437   5.636 -0.1799  0.0323 -0.1735
33665W        W76759  27.803  11.753   5.464 -0.0649  0.2760 -0.5054
33666W        W76760  28.090  12.237   4.178  0.1192  0.0903  0.0777
33667W        W76761  28.860  14.084   2.746 -0.1491  0.0169 -0.3135
33668W        W76762  25.817  12.147   4.978 -0.1750 -0.0405 -0.0387
33669W        W76763  26.427  13.025   7.089  0.0738 -0.0066 -0.0176
33670W        W76764  28.740  13.317   5.782  0.0170 -0.1553 -0.0393
33671W        W76765  27.819  11.619   5.925  0.3821  0.3194 -0.2329
33672W        W76766  28.320  11.672   7.313 -0.0222 -0.0733  0.1361
33673W        W76767  27.628  13.075   5.901  0.4922 -0.1919  0.3621
33674W        W76768  27.076  12.803   6.244  0.3328 -0.2607  0.1106
33675W        W76769  25.782  10.884   5.254  0.0072 -0.1067 -0.0428
33676W        W76770  27.240  15.174   6.374 -0.5137 -0.5110  0.3226
33677W        W76771  27.163  12.518   5.028  0.1410 -0.0940  0.1577
33678W        W76772  28.616  11.989   5.430 -0.3032 -0.2862 -0.3952
33679W        W76773  27.742  13.225   4.471 -0.0009 -0.2817  0.1381
33680W        W76774  26.795  12.240   4.669 -0.2817 -0.1793 -0.4861
33681W        W76775  26.738  10.974   5.480  0.2653 -0.0820  0.0196
33682W        W76776  28.131  12.805   7.139  0.1291  0.1257  0.0214
33683W        W76777  25.847   9.696   2.550  0.0050 -0.1135  0.1249
33684W        W76778  28.021  11.163   6.890 -0.5037  0.3169  0.0028
33685W        W76779  27.114  15.008   3.617  0.0414 -0.1765  0.0989
33686W        W76780  28.661  13.523   3.828 -0.0609 -0.0940 -0.4890
33687W        W76781  29.430  11.708   4.815 -0.0027 -0.3129  0.2124
33688W        W76782  25.889  10.448   5.624 -0.0435 -0.1535 -0.5069
33689W        W76783  26.944  15.122   7.823 -0.4379 -0.0165  0.1127
33690W        W76784  25.621  11.546   2.393  0.2816 -0.0399  0.2598
33691W        W76785  25.817  12.863   6.087 -0.0075  0.0319  0.0560
33692W        W76786  26.940  14.376   5.891 -0.0285  0.1266  0.0153
33693W        W76787  29.629  12.881   7.270  0.0873 -0.0958 -0.1662
33694W        W76788  28.389  10.129   4.390  0.0833 -0.0590 -0.0637
33695W        W76789  28.117  11.751   6.811  0.1422  0.0265 -0.3486
33696W        W76790  25.354  13.483   5.238  0.1807 -0.1193  0.2136
33697W        W76791  27.899  12.274   6.083 -0.1159 -0.3694  0.0996
33698W        W76792  26.509  14.582   6.102 -0.3656  0.0029  0.3360
33699W        W76793  25.162  14.367   7.230  0.0291  0.3337 -0.1319
33700W        W76794  26.967  15.828   4.671  0.1894 -0.1816 -0.3240
33701W        W76795  27.651  11.458   6.829 -0.0911 -0.1046  0.0499
33702W        W76796  28.261  12.687   6.107  0.0602 -0.3326  0.1774
33703W        W76797  27.031  11.864   5.979  0.1836 -0.0629  0.1220
33704W        W76798  28.638  12.397   6.206 -0.3456 -0.1943  0.1252
33705W        W76799  26.915  13.317   5.483 -0.2601 -0.0309  0.0343
33706W        W76800  26.546  13.817   4.937 -0.1982 -0.2850 -0.3925
33707W        W76801  27.344  14.917   7.467 -0.2319 -0.1980  0.0742
33708W        W76802  28.832  13.582   5.309  0.1562 -0.1671 -0.0182
33709W        W76803  26.083  14.356   4.314  0.0714 -0.0173 -0.0812
33710W        W76804  26.145  11.692   6.253 -0.2643 -0.2643 -0.0720
33711W        W76805  27.359  11.805   7.636 -0.0022 -0.0939 -0.0826
33712W        W76806  27.809  14.350   4.674  0.1752  0.1680  0.0322
33713W        W76807  26.748   9.983   3.961  0.1539 -0.2400 -0.1177
33714W        W76808  26.503  12.894   2.442  0.2024 -0.2626 -0.2126
33715W        W76809  26.747  14.795   7.503 -0.0664 -0.1699 -0.0747
33716W        W76810  25.658  13.346   5.637  0.2074 -0.4070  0.0273
33717W        W76811  25.651  14.147   4.550  0.1139  0.0677  0.4359
33718W        W76812  26.514  14.141   3.521  0.1947  0.1032 -0.1222
33719W        W76813  27.330  12.745   3.661 -0.0247  0.0657 -0.2770
33720W        W76814  27.571  14.261   5.575 -0.0499 -0.0216 -0.1662
33721W        W76815  26.317  12.134   4.815  0.1513 -0.1008 -0.1910
33722W        W76816  25.538  14.678   5.851  0.1211 -0.0053  0.3478
33723W        W76817  25.562  13.100   4.013  0.0331  0.1064  0.2628
33724W        W76818  29.804  14.667   4.323 -0.1622 -0.1696  0.1901
33725W        W76819  26.898  14.140   4.349 -0.2723 -0.0084  0.0608
33726W        W76820  29.919  14.228   6.168 -0.2580 -0.1583  0.0039
33727W        W76821  28.193  10.569   4.296 -0.1088  0.1920  0.3327
33728W        W76822  27.720  12.546   5.032 -0.0672 -0.0117  0.0517
33729W        W76823  29.808  11.379   5.024 -0.1808  0.0864 -0.0479
33730W        W76824  27.910  14.656   6.675  0.1604  0.4155  0.1579
33731W        W76825  26.825  12.978   5.109 -0.0303  0.0580 -0.0100
33732W        W76826  27.977  11.398   3.799  0.1397 -0.1683  0.1766
33733W        W76827  26.547  12.276   5.316 -0.1129 -0.0249  0.0351
33734W        W76828  30.874  11.657   8.476 -0.1939 -0.2099 -0.1959
33735W        W76829  26.512  14.797   8.731 -0.2139 -0.4879 -0.2489
33736W        W76830  29.437  15.061   3.293  0.0420  0.0088  0.0629
33737W        W76831  25.182  12.146   5.456 -0.1737 -0.2609  0.3415
33738W        W76832  26.380  11.278   6.080  0.0890 -0.0097  0.2550
33739W        W76833  29.006   9.497   5.042  0.0242 -0.1424  0.0103
33740W        W76834  27.786  14.163   2.860 -0.2981  0.0556  0.0781
33741W        W76835  26.628  10.959   4.936  0.1244  0.1583  0.0494
33742W        W76836  27.960  14.431   3.332 -0.1897 -0.0412  0.1404
33743W        W76837  26.251  14.006   5.362  0.0460  0.1251 -0.1608
33744W        W76838  26.666  14.130   6.332  0.0172 -0.1219 -0.2575
33745W        W76839  26.828  10.761   2.744 -0.1763 -0.2190  0.0980
33746W        W76840  29.746  11.986   5.129  0.0334 -0.0769  0.0289
33747W        W76841  26.710  12.898   6.611  0.1561  0.0427 -0.2220
33748W        W76842  28.939  10.888   6.160  0.0635  0.3121 -0.2734
33749W        W76843  25.982  11.982   4.485  0.1314  0.0529 -0.0437
33750W        W76844  28.023  12.902   4.759  0.1314  0.0148 -0.1644
33751W        W76845  28.334  13.223   5.044  0.1469  0.1007 -0.1308
33752W        W76846  25.085  12.323   6.333 -0.0054  0.2032 -0.1920
33753W        W76847  26.424  13.254   3.602 -0.0390 -0.0763 -0.0538
33754W        W76848  28.242  12.296   6.458 -0.2522  0.2699  0.1638
33755W        W76849  27.165  11.413   4.215 -0.3236  0.0368 -0.0472
33756W        W76850  28.545  15.977   7.760  0.0180  0.2759 -0.2600
33757W        W76851  26.278  10.040   5.127 -0.0937 -0.1878 -0.1338
33758W        W76852  27.330  12.112   4.796  0.1917 -0.1190 -0.2764
33759W        W76853  27.011  12.227   5.609  0.1565 -0.0703 -0.0255
33760W        W76854  25.576  12.342   6.146  0.1649 -0.1007 -0.1865
33761W        W76855  28.683  14.552   7.198  0.3239 -0.0688  0.0457
33762W        W76856  26.203  11.119   4.088  0.1558 -0.1997 -0.2313
33763W        W76857  29.006  14.806   3.327  0.0292 -0.1580 -0.0620
33764W        W76858  28.046  13.434   4.737 -0.3341 -0.0178  0.2775
33765W        W76859  26.383  13.979   4.021  0.2080  0.0601 -0.1596
33766W        W76860  26.032  12.376   4.136  0.1195 -0.0844 -0.1463
33767W        W76861  27.235  14.391   4.668  0.0474  0.2874 -0.2145
33768W        W76862  26.012  11.610   5.670 -0.0715 -0.1736 -0.3482
33769W        W76863  28.331  14.341   5.956 -0.0830 -0.0430 -0.2594
33770W        W76864  29.902  13.871   7.110 -0.4339 -0.4055 -0.0663
33771W        W76865  26.888  12.765   4.627 -0.2933  0.0682 -0.0040
33772W        W76866  27.046  11.664   4.809  0.2354  0.0568  0.1190
33773W        W76867  24.583  14.115   5.952 -0.2911  0.0098  0.0320
33774W        W76868  28.563  13.630   4.868 -0.0776  0.0109 -0.0406
33775W        W76869  28.741  11.893   5.970 -0.0251 -0.1380 -0.0970
33776W        W76870  26.338  14.290   2.500 -0.3273 -0.1016  0.1771
33777W        W76871  29.591  11.529   6.637  0.0612  0.0139 -0.3367
33778W        W76872  26.268  14.037   6.851 -0.0502 -0.2463 -0.1199
33779W        W76873  27.446  14.374   8.237  0.3861 -0.1899  0.0301
33780W        W76874  26.074  12.521   4.615  0.4871 -0.1248  0.1080
33781W        W76875  26.349  13.662   5.833  0.3101  0.1701  0.2951
33782W        W76876  26.781  13.817   5.332 -0.0382  0.1980  0.2392
33783W        W76877  27.006  13.617   2.904  0.0648  0.1846 -0.0200
33784W        W76878  29.916  14.269   5.562  0.2426  0.0417 -0.1866
33785W        W76879  27.869  12.335   5.465 -0.0608 -0.0387 -0.0662
33786W        W76880  29.007  14.836   5.914  0.0103  0.0521 -0.0241
33787W        W76881  27.690  10.977   5.968 -0.1286 -0.0844 -0.2227
33788W        W76882  29.719  10.612   5.834  0.2078 -0.1556  0.1327
33789W        W76883  28.886  10.978   3.657  0.3550 -0.0089  0.0520
33790W        W76884  27.192  13.763   5.605  0.1514 -0.0425  0.1555
33791W        W76885  25.397  12.688   5.836 -0.1221  0.0268 -0.0325
33792W        W76886  26.020  13.857   4.949  0.1603  0.0231 -0.0691
33793W        W76887  25.917  13.921   5.841 -0.2089 -0.4048 -0.1977
33794W        W76888  27.230  11.145   7.195 -0.1819  0.0082 -0.0107
33795W        W76889  25.711  11.540   6.614  0.1172  0.0139 -0.0939
33796W        W76890  25.677  12.615   4.926  0.0898 -0.0513  0.0595
33797W        W76891  25.881  10.469   3.815 -0.2447 -0.0079 -0.1593
33798W        W76892  28.800  14.684   4.576 -0.3032  0.0543  0.0784
33799W        W76893  26.440  10.330   5.557 -0.0217 -0.1421 -0.2152
33800W        W76894  25.462  11.289   4.779 -0.0846 -0.2531  0.4450
33801W        W76895  26.988  14.158   3.286 -0.1065  0.0427 -0.1253
33802W        W76896  28.772  14.458   5.664 -0.3432 -0.1776 -0.0663
33803W        W76897  26.953  11.851   4.379 -0.1623  0.3409 -0.2794
33804W        W76898  29.268  14.520   7.032 -0.1719 -0.1374  0.1482
33805W        W76899  25.151  12.711   3.699  0.2382 -0.0177 -0.0852
33806W        W76900  29.556  12.431   7.940  0.0440  0.0531 -0.0158
33807W        W76901  26.053  11.199   6.814  0.2870 -0.0138  0.0443
33808W        W76902  25.973  10.753   4.279  0.0011  0.4248 -0.2353
33809W        W76903  27.884  13.579   5.946  0.1867  0.1741 -0.0458
33810W        W76904  28.573  14.617   4.064 -0.0329  0.0612 -0.1631
33811W        W76905  28.081  15.067   3.255  0.2028 -0.2257  0.3356
33812W        W76906  27.092  13.177   5.911  0.3581 -0.1695 -0.1536
33813W        W76907  26.456  15.023   7.916  0.3817 -0.2197 -0.4611
33814W        W76908  26.858  10.416   6.982 -0.2349  0.1229 -0.2149
33815W        W76909  27.552  12.524   4.163  0.0910  0.2552 -0.0985
33816W        W76910  27.308  13.601   6.122 -0.0446  0.0112 -0.1625
33817W        W76911  28.419  14.242   3.312  0.0590  0.0571  0.1133
33818W        W76912  30.317  11.538   4.867  0.2420  0.3008  0.0188
33819W        W76913  26.806  14.558   3.573 -0.0487  0.2702  0.1404
33820W        W76914  25.871  10.074   6.758 -0.1011  0.0874 -0.1103
33821W        W76915  26.689  13.804   6.780 -0.2185  0.1669  0.0152
33822W        W76916  28.742  13.916   5.748  0.0693 -0.4006  0.2939
33823W        W76917  26.839  10.433   4.221  0.0444 -0.1389 -0.0042
33824W        W76918  27.488  11.619   4.606 -0.0910  0.0452  0.0171
33825W        W76919  28.136  13.931   4.611 -0.0045  0.0634  0.0360
33826W        W76920  25.713  12.864   5.485 -0.3076 -0.0997 -0.0606
33827W        W76921  26.616  11.821   5.439 -0.2007  0.0362 -0.0918
33828W        W76922  26.855  11.703   6.931  0.0979 -0.0042 -0.0897
33829W        W76923  27.048  14.711   6.281 -0.0457 -0.2845  0.2462
33830W        W76924  28.136  13.841   6.712 -0.2978 -0.0444  0.2419
33831W        W76925  27.418  13.728   3.209 -0.0493  0.0227 -0.0518
33832W        W76926  28.013  13.977   5.598  0.3827  0.0700 -0.0788
33833W        W76927  29.141  14.989   6.381  0.1227  0.0412 -0.1183
33834W        W76928  29.095  15.388   8.019 -0.1304 -0.1533  0.0303
33835W        W76929  27.732  16.159   7.198 -0.0766  0.0649 -0.2872
33836W        W76930  29.273  13.317   5.206  0.1879 -0.2593  0.0541
33837W        W76931  25.492  11.102   6.937 -0.1145 -0.0583  0.2634
33838W        W76932  26.432  11.996   4.095  0.1606  0.0598  0.1563
33839W        W76933  27.530  13.837   5.240  0.6125 -0.2352 -0.0726
33840W        W76934  28.333  12.905   6.710 -0.0131 -0.3699 -0.1761
33841W        W76935  26.820  12.275   6.177 -0.1154  0.0728 -0.1314
33842W        W76936  28.803  11.496   4.009  0.2252 -0.1338  0.0237
33843W        W76937  27.113  14.569   7.926 -0.1829 -0.1096  0.0439
33844W        W76938  28.089  13.803   5.103 -0.0807  0.0936  0.0521
33845W        W76939  27.835  12.884   9.885 -0.1202  0.0348  0.1028
33846W        W76940  25.687  11.700   8.349 -0.0256  0.0268 -0.0343
33847W        W76941  27.566  12.234   7.448 -0.3826  0.1919 -0.2544
33848W        W76942  29.585  12.737   8.481  0.0007  0.2219 -0.1540
33849W        W76943  25.346  12.490   9.381 -0.2447 -0.0260  0.0260
33850W        W76944  27.065  13.971   7.135  0.0842  0.0774 -0.2581
33851W        W76945  27.514  13.906   9.500 -0.0495 -0.0043  0.1767
33852W        W76946  27.028  13.041   9.831 -0.0031 -0.0317  0.2051
33853W        W76947  27.626  13.301   4.967  0.0988  0.4441 -0.1138
33854W        W76948  26.021  10.558   9.304 -0.1901 -0.4585  0.0851
33855W        W76949  25.702  11.404   7.491 -0.1135  0.3051 -0.1575
33856W        W76950  25.369  13.015  10.384 -0.3265  0.2211 -0.1610
33857W        W76951  28.352  11.607  10.233  0.0648 -0.0137 -0.2215
33858W        W76952  26.131  13.065   8.237  0.0837 -0.1856 -0.3250
33859W        W76953  26.648  11.104   8.557  0.1532 -0.2026  0.0661
33860W        W76954  26.205  11.387   7.649  0.1903 -0.0446  0.2814
33861W        W76955  27.755  14.138   8.667 -0.0260  0.1119 -0.0728
33862W        W76956  28.878  10.145   9.546  0.2133 -0.1720 -0.2457
33863W        W76957  26.327  13.528   8.247  0.0161  0.0259 -0.1016
33864W        W76958  26.198  11.762   6.751  0.0967 -0.4834 -0.0344
33865W        W76959  25.517  12.643   8.935  0.3467  0.0605  0.0004
33866W        W76960  27.815  13.396   8.308  0.1283 -0.1399  0.4117
33867W        W76961  32.848  12.336  10.274  0.0967 -0.0479 -0.0007
33868W        W76962  29.479  12.426   9.656  0.1030 -0.2259 -0.1509
33869W        W76963  28.181  15.046   9.504 -0.0171 -0.1314 -0.1075
33870W        W76964  27.930  12.831   9.393  0.0595 -0.0992  0.0319
33871W        W76965  24.269  13.774  10.211 -0.1067  0.0534 -0.1093
33872W        W76966  26.419  15.425   8.935  0.0018  0.0595  0.1521
33873W        W76967  25.998  15.632   8.825 -0.0556  0.2671  0.0271
33874W        W76968  28.581  14.310   8.679  0.3105 -0.1774  0.0547
33875W        W76969  25.385  13.302   7.482 -0.2063  0.1042 -0.0341
33876W        W76970  27.946  11.978   9.691  0.0321 -0.0545  0.0531
33877W        W76971  27.540  12.103   6.908  0.1303  0.0307  0.0317
33878W        W76972  27.310  13.894   7.736 -0.2031  0.2380  0.0326
33879W        W76973  29.647  13.218   9.961  0.0582  0.0993  0.0088
33880W        W76974  24.969  12.821  10.052  0.0980 -0.0692  0.0793
33881W        W76975  27.388  14.730   9.222  0.0370  0.3806 -0.3904
33882W        W76976  27.805  11.806   7.207  0.0385  0.0715  0.0478
33883W        W76977  26.575  12.095   6.982  0.0609 -0.0932 -0.1408
33884W        W76978  27.832  12.139   7.875 -0.1299  0.0531  0.0117
33885W        W76979  26.594  10.794   7.823 -0.0328  0.1841  0.0049
33886W        W76980  26.979  13.643   8.903  0.1729 -0.3528  0.1613
33887W        W76981  27.099  12.381   9.729  0.0415  0.2217 -0.0905
33888W        W76982  26.836  12.849   8.745 -0.0573 -0.0919 -0.0071
33889W        W76983  24.658   9.970   9.846  0.0940  0.0122  0.1229
33890W        W76984  27.711  13.788   9.929 -0.2094  0.0147  0.4230
33891W        W76985  26.198  13.408   9.157  0.0973 -0.0613  0.1535
33892W        W76986  27.486  14.118   6.987  0.1448 -0.0057 -0.3296
33893W        W76987  29.448  15.451   8.666  0.0730 -0.2495 -0.0007
33894W        W76988  28.220  14.344   6.474  0.0193 -0.1258  0.1163
33895W        W76989  26.538  11.857   8.600 -0.1252 -0.1230 -0.1024
33896W        W76990  27.167  10.826   6.846  0.0445  0.1206  0.0272
33897W        W76991  29.229  11.911   8.831 -0.0007 -0.2108  0.2089
33898W        W76992  27.645  13.328  10.312 -0.0514 -0.0704 -0.2518
33899W        W76993  27.377  12.786   9.564 -0.1282  0.1390  0.2313
33900W        W76994  28.071  13.168   6.232 -0.0352 -0.0633 -0.1271
33901W        W76995  28.751  13.230   8.217  0.2451  0.2323 -0.0719
33902W        W76996  28.789  11.955   9.665 -0.0762  0.1679  0.1630
33903W        W76997  26.159  13.640   7.751  0.1004 -0.0573 -0.0282
33904W        W76998  28.233  12.427   8.019  0.1027 -0.1192  0.1614
33905W        W76999  26.941  14.459   9.844 -0.0734  0.0477  0.0970
33906W        W77000  28.669  12.607   7.345  0.1857 -0.1254  0.0461
33907W        W77001  26.815  14.407   8.480  0.0956  0.0531  0.2311
33908W        W77002  26.001  15.260   7.651  0.0361 -0.1398 -0.1704
33909W        W77003  25.924  13.421   9.577  0.0301  0.0679  0.1140
33910W        W77004  25.621  13.028   8.101  0.1994  0.0454 -0.1263
33911W        W77005  24.646  11.955   9.390  0.3398 -0.1584  0.0962
33912W        W77006  26.342  13.203  10.478  0.1756 -0.3365 -0.1922
33913W        W77007  28.679  11.180   8.670  0.2308  0.0631  0.2618
33914W        W77008  29.010  11.032   9.391  0.0886  0.2842 -0.0043
33915W        W77009  25.609  14.122   8.917 -0.1954  0.0182  0.1572
33916W        W77010  28.659  14.617   8.207 -0.0007  0.1614  0.1150
33917W        W77011  28.265  12.828   7.643 -0.1545 -0.0996  0.0678
33918W        W77012  28.527  13.509   6.482  0.3348  0.2382  0.1535
33919W        W77013  25.419  13.339   9.423  0.1424  0.0997 -0.3054
33920W        W77014  26.599  12.080   8.993 -0.3131  0.1590  0.0699
33921W        W77015  26.236  12.577   9.730 -0.1580  0.1203 -0.0405
33922W        W77016  25.899  12.454   9.350 -0.2028  0.1144  0.0189
33923W        W77017  26.174  12.639   8.981  0.0887 -0.2705  0.6614
33924W        W77018  26.782  12.784   8.040 -0.0545 -0.1503  0.1447
33925W        W77019  25.990  13.414   8.616 -0.0262  0.1336 -0.1589
33926W        W77020  28.008  14.258   6.998  0.0488  0.0882 -0.2650
33927W        W77021  27.852  14.028  10.379  0.1013  0.0859  0.1351
33928W        W77022  27.334  12.702   8.633 -0.1743 -0.3018  0.0069
33929W        W77023  27.099  12.219  10.199  0.1232  0.3070  0.1238
33930W        W77024  25.989  12.324   7.609  0.2245 -0.1812  0.0745
33931W        W77025  26.764  13.458   9.370  0.4539 -0.0853  0.0119
33932W        W77026  26.123  12.970   9.400  0.1174  0.3017  0.0338
33933W        W77027  26.274  12.539   7.102  0.0095  0.1181  0.0654
33934W        W77028  28.715  14.475   9.109  0.1655  0.1978  0.1093
33935W        W77029  27.405  13.923   8.987  0.0713  0.4265  0.1740
33936W        W77030  26.790  12.775   9.518 -0.3996  0.2313  0.0454
33937W        W77031  28.169  12.925   8.190 -0.1630 -0.1781 -0.0899
33938W        W77032  26.270  10.600   7.331 -0.0000 -0.2528  0.0814
33939W        W77033  27.794  14.767   8.184  0.1822 -0.0309  0.0866
33940W        W77034  25.829  13.623   8.106  0.1807  0.0687  0.0216
33941W        W77035  25.048  11.999   8.183 -0.2296 -0.3163  0.0369
33942W        W77036  27.660  14.560   7.725  0.2143 -0.0766 -0.1460
33943W        W77037  28.105  10.010   8.831  0.0782 -0.0108  0.2267
33944W        W77038  26.521  11.733   8.063 -0.0267 -0.0651  0.1651
33945W        W77039  28.387  11.679   8.805  0.0547 -0.0446 -0.2430
33946W        W77040  29.203  11.424   7.971 -0.0613  0.2425 -0.0246
33947W        W77041  28.644  14.541   7.737 -0.0170 -0.1165  0.0380
33948W        W77042  27.297  11.616   7.130 -0.1146 -0.1807 -0.1131
33949W        W77043  28.667  11.307   9.120  0.2712 -0.1461  0.0507
33950W        W77044  27.875  13.098   7.836  0.1963 -0.4214  0.0520
33951W        W77045  27.505  12.860   9.081  0.0610 -0.0895 -0.4287
33952W        W77046  27.714  12.533   6.848  0.0712 -0.0667 -0.3044
33953W        W77047  28.961  14.946   7.817 -0.1048 -0.1625 -0.0642
33954W        W77048  26.511  11.861   9.536 -0.0291 -0.3389 -0.2495
33955W        W77049  28.383  13.735   8.851 -0.1033 -0.0464 -0.5331
33956W        W77050  26.693  11.473   9.818 -0.0282  0.2156  0.0820
33957W        W77051  27.251  12.592   7.223  0.1157  0.0207 -0.2004
33958W        W77052  26.749  10.759   7.356 -0.0839 -0.0058 -0.1423
33959W        W77053  25.548  15.166   7.844 -0.1671 -0.0875  0.7323
33960W        W77054  28.046  11.463   9.721  0.1458  0.0986  0.2354
33961W        W77055  28.363  12.610  10.132  0.0996  0.0785 -0.1391
33962W        W77056  29.361  12.771   9.008 -0.2083 -0.1205 -0.0990
33963W        W77057  27.392  11.801   8.490  0.2200  0.0250 -0.0181
33964W        W77058  26.793  11.779   7.439  0.0220  0.0780  0.0917
33965W        W77059  31.246  12.375   9.805  0.1136 -0.3176 -0.1612
33966W        W77060  25.119  12.910   9.561 -0.2471  0.1494 -0.0260
33967W        W77061  27.777  12.701   7.567 -0.1648 -0.0660 -0.1766
33968W        W77062  27.191  10.926   8.585 -0.0265 -0.1482 -0.1135
33969W        W77063  27.965  14.138   7.986 -0.1956  0.0056 -0.0249
33970W        W77064  26.633  13.235   7.491 -0.1468 -0.1502 -0.2965
33971W        W77065  26.035  10.573   9.943  0.1067  0.1080 -0.3413
33972W        W77066  27.087  13.099   9.225  0.1410 -0.0457 -0.1343
33973W        W77067  27.454  15.012   7.907 -0.3640 -0.0438 -0.1952
33974W        W77068  29.451  10.712  10.092 -0.0392  0.1076 -0.2710
33975W        W77069  26.045  14.865   8.157 -0.1902 -0.0893 -0.0191
33976W        W77070  29.099  11.471   9.582 -0.1866 -0.1103 -0.4795
33977W        W77071  25.762  13.115   8.999 -0.0331 -0.2387 -0.2125
33978W        W77072  26.360  12.992   8.668 -0.1771  0.1439 -0.0547
33979W        W77073  26.601  12.245   7.427  0.0146  0.2241 -0.3219
33980W        W77074  28.511  11.566   9.585  0.3282 -0.0204  0.1130
33981W        W77075  29.258  12.784   7.583 -0.3239 -0.0936  0.2347
33982W        W77076  27.068  11.803   8.908  0.2577  0.0173  0.0436
33983W        W77077  26.097  11.990   8.236 -0.1465 -0.0407 -0.0107
33984W        W77078  25.266  13.752  10.330 -0.3477  0.0695  0.3441
33985W        W77079  28.274  11.442   8.277 -0.1895  0.0031 -0.1593
33986W        W77080  25.594  11.961   7.000 -0.1505  0.0898  0.0478
33987W        W77081  28.044  10.533   9.688  0.0153  0.1365  0.1491
33988W        W77082  27.264  12.567   8.132 -0.1274  0.0894  0.3350
33989W        W77083  26.563  14.737   9.505 -0.1180 -0.1267 -0.2208
33990W        W77084  26.371  15.219   8.371  0.0981 -0.0897 -0.0961
33991W        W77085  26.570  12.474   8.491  0.0187 -0.0267 -0.1789
33992W        W77086  26.840  14.124   8.104  0.0139 -0.0634 -0.2267
33993W        W77087  31.019  15.205  10.446  0.0574  0.2138 -0.0008
33994W        W77088  27.983  11.830   9.202 -0.0505  0.0372  0.1459
33995W        W77089  26.961  11.794   7.908 -0.0488 -0.0517 -0.1222
33996W        W77090  28.395  12.681   8.909 -0.1752  0.0073 -0.4212
33997W        W77091  28.706  13.138   9.439  0.3115 -0.2107 -0.1965
33998W        W77092  27.641  11.333   9.984 -0.3710 -0.0544  0.0450
33999W        W77093  27.214  10.143   9.867  0.2059 -0.0560  0.1169
34000W        W77094  29.433  15.713   8.233 -0.0764  0.0458  0.0379
34001W        W77095  26.929  13.150   8.390  0.1182 -0.0577  0.0661
34002W        W77096  26.418  12.589  10.551 -0.3643 -0.0498 -0.1129
34003W        W77097  26.364  14.039   8.040 -0.2303 -0.0425 -0.2184
34004W        W77098  27.462  10.400   9.492  0.0638 -0.2239  0.0036
34005W        W77099  26.018  13.985   8.480 -0.2538 -0.1109 -0.3424
34006W        W77100  28.013  13.475   7.436  0.0119  0.0375  0.2863
34007W        W77101  26.578  13.833   9.075 -0.1249 -0.1289 -0.4346
34008W        W77102  29.166  11.274   7.006  0.2274  0.1643 -0.2559
34009W        W77103  27.196  13.269   6.817 -0.2514 -0.1607 -0.1029
34010W        W77104  27.693  12.317   8.376 -0.1053 -0.1522  0.0770
34011W        W77105  26.841  13.859   5.917 -0.0848  0.2436  0.3204
34012W        W77106  25.480  11.048   9.206  0.0965 -0.0890  0.1639
34013W        W77107  27.791  12.565   8.849  0.0438 -0.3321 -0.2417
34014W        W77108  27.949  11.525   8.650 -0.1350  0.2510  0.1534
34015W        W77109  26.852  10.970   6.523 -0.2006  0.0208  0.1758
34016W        W77110  27.060  12.080   9.307  0.1115 -0.2982  0.2401
34017W        W77111  31.261  14.674  10.169  0.0488  0.0993 -0.0027
34018W        W77112  28.163  13.768   8.380 -0.2927  0.2461  0.0538
34019W        W77113  28.339  12.155   8.897  0.2439 -0.4124  0.0820
34020W        W77114  27.229  11.615  10.182 -0.0675  0.2121  0.0953
34021W        W77115  27.902  11.992   8.724 -0.0034  0.2779 -0.0975
34022W        W77116  26.953  13.000   7.166  0.0528  0.1808 -0.2472
34023W        W77117  25.872  12.738   8.549 -0.0898 -0.1183 -0.0648
34024W        W77118  27.442  12.545  10.099 -0.2290  0.0480 -0.1254
34025W        W77119  28.486  13.503  10.467 -0.0992  0.2733  0.1220
34026W        W77120  28.268  13.152   9.033  0.2752 -0.3280  0.1560
34027W        W77121  29.078  12.694   7.106  0.0758  0.0122  0.2126
34028W        W77122  29.615  10.225   8.654  0.0190 -0.2541  0.2137
34029W        W77123  29.099  12.322   7.979  0.3339  0.2840  0.1273
34030W        W77124  28.528  13.076   7.216 -0.0381 -0.1209 -0.2294
34031W        W77125  26.430  13.197   9.677  0.2961  0.0159  0.1318
34032W        W77126  26.492  11.328   6.652  0.0868 -0.4496 -0.0890
34033W        W77127  27.773  13.626   6.929  0.1350 -0.1512  0.2677
34034W        W77128  27.444  12.408   9.256 -0.1010 -0.1179 -0.5889
34035W        W77129  28.255  12.009   8.350  0.1063  0.0633 -0.2633
34036W        W77130  26.117  11.961   9.255 -0.0878  0.1493 -0.0873
34037W        W77131  26.093  12.078   7.182 -0.3447  0.0117  0.1332
34038W        W77132  26.781  13.436   7.086 -0.0273 -0.2634  0.1175
34039W        W77133  26.203  13.497  10.047  0.0279  0.1836 -0.1230
34040W        W77134  27.847  10.297   7.391 -0.4040  0.0191  0.1474
34041W        W77135  24.355  13.912   7.849 -0.2242 -0.2708  0.1144
34042W        W77136  27.515  11.654   9.015 -0.2870 -0.1847  0.0671
34043W        W77137  29.542  15.729   9.954 -0.2674  0.1290 -0.1459
34044W        W77138  27.010  12.545   9.092  0.0909  0.1917  0.1041
34045W        W77139  28.326  11.127  10.367  0.0890  0.0169  0.1969
34046W        W77140  29.219  13.041   8.613  0.2048  0.0147 -0.2059
34047W        W77141  27.162  13.937   9.931  0.0476 -0.0597 -0.1939
34048W        W77142  25.028  11.763   9.581 -0.0090  0.2713 -0.1030
34049W        W77143  28.164  12.516   8.480 -0.1798  0.3640 -0.4981
34050W        W77144  27.300  13.310   8.652  0.0860  0.0366  0.1102
34051W        W77145  27.468  12.118   8.868  0.2070  0.2060  0.3926
34052W        W77146  26.434  11.185   8.133  0.2425  0.1652 -0.0606
34053W        W77147  27.125  12.302   7.665  0.1440  0.0620 -0.1719
34054W        W77148  25.974  11.731   8.824 -0.1557  0.1354  0.0138
34055W        W77149  26.742  14.902   8.294  0.0268  0.2709 -0.0219
34056W        W77150  27.811  13.490   6.450 -0.1385 -0.0801  0.0957
34057W        W77151  28.640  14.119   7.476  0.1223  0.0270  0.0214
34058W        W77152  27.803  14.682   9.711 -0.0163 -0.4425  0.1448
34059W        W77153  28.415  11.303   7.805 -0.1943 -0.0173  0.3447
34060W        W77154  26.822  13.499   9.888  0.0834 -0.1103  0.1794
34061W        W77155  25.382  13.848   8.087  0.0048  0.1470  0.1419
34062W        W77156  26.946  15.579   7.340  0.0514 -0.1936  0.1622
34063W        W77157  26.509  13.478   8.698 -0.1110 -0.2002  0.3718
34064W        W77158  30.180  10.637   7.203  0.0399 -0.2574 -0.1407
34065W        W77159  30.394  12.104  10.073  0.2482  0.1237 -0.0967
34066W        W77160  28.767  12.114   8.512  0.0484 -0.0737  0.0184
34067W        W77161  26.561  12.369   9.409  0.1090  0.1879 -0.1109
34068W        W77162  27.085  12.089   7.183  0.0340  0.2747 -0.0629
34069W        W77163  29.227  13.638   7.457 -0.2460  0.0545 -0.1218
34070W        W77164  25.824  13.287   7.700  0.1516  0.2220  0.0699
34071W        W77165  25.675  12.225   8.523 -0.0875 -0.0098  0.1644
34072W        W77166  28.464  10.123  10.084 -0.0904 -0.3211  0.0298
34073W        W77167  27.475  13.400   7.770 -0.0219  0.2009 -0.1627
34074W        W77168  28.937  11.728  10.292 -0.0823  0.2874  0.0386
34075W        W77169  24.971  14.853   9.665 -0.4052  0.3830 -0.0721
34076W        W77170  26.948  14.013   9.434  0.0846 -0.0277 -0.0135
34077W        W77171  27.324  13.468   9.993 -0.1606  0.0863  0.3479
34078W        W77172  25.697  11.952   7.445  0.3392 -0.2497  0.1852
34079W        W77173  29.149  12.830   8.147 -0.0900 -0.0318 -0.0949
34080W        W77174  25.620  12.874   9.473 -0.2832  0.0046 -0.1804
34081W        W77175  25.941  12.473   8.157  0.1207  0.2178 -0.0847
34082W        W77176  28.419  12.070   9.944 -0.1191 -0.3258  0.1974
34083W        W77177  27.493  11.872   9.468  0.1380  0.1323  0.3277
34084W        W77178  26.605  12.377   9.973  0.0138  0.4939 -0.0355
34085W        W77179  28.688  13.048   6.245 -0.1960  0.1655  0.4572
34086W        W77180  27.810  12.742   6.352 -0.1534 -0.3362  0.5155
34087W        W77181  27.025  12.247   8.626  0.2338  0.0646  0.2407
34088W        W77182  28.843  11.756   7.759  0.3685  0.1353  0.2012
34089W        W77183  25.432  11.871   8.747 -0.0038 -0.1328  0.1564
34090W        W77184  27.424  13.821  10.447  0.0077  0.0648 -0.1025
34091W        W77185  26.449  11.554   9.054  0.0808 -0.1547  0.0289
34092W        W77186  27.107  13.501   7.465 -0.0291  0.0503  0.0159
34093W        W77187  31.786  11.620   9.983 -0.1194 -0.0576 -0.3008
34094W        W77188  25.805  15.465   8.265  0.2123 -0.2354  0.2159
34095W        W77189  28.708  12.688   7.821  0.3161  0.0640  0.0881
34096W        W77190  28.389  15.347   9.158 -0.2251  0.1493 -0.2134
34097W        W77191  25.678  13.408  10.212 -0.1662  0.3245 -0.0246
34098W        W77192  27.538  14.262  10.099  0.0434 -0.2261 -0.1393
34099W        W77193  29.637  14.695   9.230 -0.0353  0.2804  0.1388
34100W        W77194  27.693  10.818   8.633  0.0662 -0.1880 -0.0326
34101W        W77195  26.531  12.867  10.091  0.0914 -0.1090  0.1364
34102W        W77196  24.617  13.456   8.065 -0.0660  0.1155 -0.1854
34103W        W77197  27.573  11.398   9.489 -0.2626  0.0089  0.1479
34104W        W77198  28.180  14.338   8.451 -0.0255  0.1865 -0.0599
34105W        W77199  27.182  13.977   8.476  0.0560 -0.2220 -0.0990
34106W        W77200  25.767  12.862   7.387 -0.2385  0.1072  0.2479
34107W        W77201  27.329  14.338   7.482  0.1350 -0.2593 -0.4674
34108W        W77202  27.424  13.058   8.210 -0.1289 -0.1221  0.1228
34109W        W77203  29.179  14.451   9.035 -0.2130 -0.2968  0.0984
34110W        W77204  28.136  11.335   9.099  0.0154 -0.0862 -0.1855
34111W        W77205  28.604  12.753   8.327  0.0502  0.0107 -0.2603
34112W        W77206  26.761  11.063   9.441 -0.0525  0.1156 -0.2950
34113W        W77207  29.002  10.617   7.639 -0.1507  0.2541 -0.0804
34114W        W77208  27.387  11.163   9.043  0.2219  0.4064 -0.2315
34115W        W77209  26.314  13.745   9.529 -0.2254  0.0289 -0.1138
34116W        W77210  24.526  12.073   7.173  0.1971 -0.2588 -0.1788
34117W        W77211  26.130  12.784   7.673 -0.0193 -0.3982 -0.0402
34118W        W77212  25.588  13.756   9.868 -0.0438 -0.0483  0.1996
34119W        W77213  26.437  13.137   7.922 -0.3344  0.4114 -0.0500
34120W        W77214  26.160  11.542   8.380 -0.0833  0.1004 -0.0453
34121W        W77215  27.769  13.121   6.831  0.3021 -0.1481  0.0348
34122W        W77216  28.040  10.609  10.389  0.0917  0.2165 -0.0814
34123W        W77217  25.906  11.477   9.357  0.2255  0.0957 -0.0597
34124W        W77218  27.821  13.644   8.771 -0.2138  0.2400  0.1909
34125W        W77219  27.941  12.310   9.226 -0.1081  0.0058  0.1051
34126W        W77220  27.877  11.754   8.199  0.4000  0.1474  0.3546
34127W        W77221  24.985  12.411   5.802 -0.0040 -0.1350 -0.1523
34128W        W77222  25.479  11.165   8.251  0.0464  0.2413 -0.0433
34129W        W77223  28.615  11.219   9.934 -0.1657 -0.1411  0.1103
34130W        W77224  28.026  14.213   9.971 -0.0641  0.1439 -0.2048
34131W        W77225  29.226  15.001   8.406 -0.1068  0.0792  0.1887
34132W        W77226  26.997  12.687  10.178 -0.0646 -0.2306  0.1271
34133W        W77227  27.923  13.025   8.628 -0.0658 -0.0998 -0.4027
34134W        W77228  29.259  13.717   6.940  0.1105  0.1641  0.1465
34135W        W77229  29.319  10.127   9.810 -0.3145 -0.1721  0.1255
34136W        W77230  27.782  12.685   8.055 -0.2348  0.3697 -0.0442
34137W        W77231  28.931  13.290  10.317  0.0598  0.1782 -0.0969
34138W        W77232  27.031  11.216   8.154 -0.2104  0.0686  0.2812
34139W        W77233  29.532  10.653   8.995 -0.0175 -0.1290 -0.1484
34140W        W77234  27.223  13.530   8.175 -0.0459  0.0771  0.0324
34141W        W77235  26.149  12.190   8.734 -0.0220 -0.1048  0.0934
34142W        W77236  27.582  10.908   7.467 -0.0997 -0.1586 -0.2628
34143W        W77237  27.581  13.728   7.345  0.1549  0.3258  0.2206
34144W        W77238  27.413  12.051   8.052  0.0919 -0.0893 -0.0245
34145W        W77239  29.494  13.593   7.911 -0.2674  0.0626  0.2342
34146W        W77240  27.728  16.284   9.367 -0.1089 -0.2879  0.1335
34147W        W77241  26.529  14.366   9.034  0.2923  0.2055  0.3279
34148W        W77242  28.353  12.046   9.421  0.0335  0.1876 -0.1960
34149W        W77243  25.063  10.265   8.533  0.1848 -0.0282  0.0770
34150W        W77244  26.854  13.599   7.871 -0.2255 -0.4206 -0.1898
34151W        W77245  27.605  13.857   8.263  0.2719  0.2760 -0.1863
34152W        W77246  28.832  10.409  10.269 -0.0675  0.0038 -0.0190
34153W        W77247  27.270  12.768   7.669 -0.0919 -0.0488 -0.0310
34154W        W77248  27.447  11.522   8.100  0.0759 -0.2692 -0.0151
34155W        W77249  27.649  13.208   9.579 -0.0156 -0.6203  0.0541
34156W        W77250  28.151  13.198  10.224  0.0706  0.1179 -0.0519
34157W        W77251  25.753  16.746   1.416  0.0195  0.1501 -0.0856
34158W        W77252  25.733  16.379   0.182 -0.1572 -0.0816  0.0500
34159W        W77253  27.212  14.917   1.305  0.0216  0.5064 -0.1094
34160W        W77254  29.296  15.978   1.590 -0.2373 -0.4858  0.0527
34161W        W77255  26.235  14.740  31.872  0.2658 -0.2839 -0.1184
34162W        W77256  28.276  17.364   1.132 -0.1886 -0.0058  0.1271
34163W        W77257  25.577  13.480   0.690  0.0590 -0.2088 -0.0865
34164W        W77258  27.363  16.458   1.992  0.3667  0.0787 -0.0307
34165W        W77259  29.146  17.516   1.725 -0.0181  0.2433 -0.0544
34166W        W77260  25.050  15.244  31.886 -0.1590 -0.0911  0.2470
34167W        W77261  27.417  15.205   2.236  0.0677 -0.0897  0.1373
34168W        W77262  28.084  17.102   3.412  0.0480 -0.1697  0.0433
34169W        W77263  25.978  15.314   0.681  0.0366 -0.0714  0.0878
34170W        W77264  24.460  15.054   0.776 -0.1199  0.0485 -0.1257
34171W        W77265  28.110  15.776   2.253  0.0618 -0.2541 -0.2215
34172W        W77266  25.485  15.608   1.533  0.0236  0.0588 -0.0036
34173W        W77267  25.411  17.088   1.670  0.0950  0.0303 -0.1096
34174W        W77268  26.077  16.014   3.025  0.0984 -0.0841 -0.0654
34175W        W77269  26.950  18.733   0.737 -0.0428  0.3108  0.1182
34176W        W77270  25.979  14.739   2.763  0.0176  0.0072 -0.0862
34177W        W77271  26.359  14.421   2.022 -0.1376 -0.0883 -0.1536
34178W        W77272  27.783  18.044  31.157 -0.3463 -0.1476 -0.1223
34179W        W77273  26.433  15.701  31.409  0.0452 -0.1839 -0.3377
34180W        W77274  24.890  16.388   3.178 -0.0715  0.1365 -0.0535
34181W        W77275  25.834  17.348   1.811  0.1066 -0.2459  0.1742
34182W        W77276  27.605  15.845   1.882 -0.1513  0.2697 -0.2536
34183W        W77277  27.201  15.720   1.376  0.5725 -0.0799 -0.0862
34184W        W77278  26.602  18.485   0.942 -0.1263 -0.4579 -0.2653
34185W        W77279  27.446  16.998   2.053  0.2298  0.4979 -0.0194
34186W        W77280  28.023  14.456   2.503  0.4548  0.2480 -0.2572
34187W        W77281  24.938  17.826   1.044  0.0838  0.3653  0.0972
34188W        W77282  23.825  18.642  31.942 -0.0949 -0.0071 -0.0505
34189W        W77283  27.067  16.247   0.457 -0.1103  0.1613  0.0821
34190W        W77284  27.325  17.820   0.535  0.0269  0.0801 -0.1899
34191W        W77285  26.779  17.275   3.347 -0.0953  0.1932  0.2224
34192W        W77286  28.027  17.559   3.091 -0.0961 -0.1362 -0.0417
34193W        W77287  25.481  16.772  31.809 -0.5628  0.2044 -0.0876
34194W        W77288  27.916  16.747   2.932  0.2122 -0.0497 -0.1679
34195W        W77289  27.524  17.547   2.014 -0.1216  0.3718 -0.0809
34196W        W77290  26.957  15.195   1.597  0.4259 -0.0372 -0.2595
34197W        W77291  27.038  16.710   1.479  0.4212  0.0716 -0.0034
34198W        W77292  26.677  18.653   0.259  0.1195 -0.2921 -0.2078
34199W        W77293  26.614  17.613   1.270  0.1147 -0.1195  0.3106
34200W        W77294  26.861  16.146   3.405  0.4415  0.1084  0.1746
34201W        W77295  27.160  17.527   2.371 -0.2834 -0.2000  0.1109
34202W        W77296  29.288  14.948   2.390  0.2585 -0.2939  0.1545
34203W        W77297  26.783  19.016  31.925  0.2495 -0.0210  0.1112
34204W        W77298  28.410  13.806   0.556  0.3184 -0.4228 -0.1414
34205W        W77299  26.189  14.288   0.648  0.0783 -0.2183 -0.2206
34206W        W77300  27.290  16.352   1.068 -0.2202  0.0051 -0.1112
34207W        W77301  24.894  14.866   1.059  0.0773  0.0910 -0.0117
34208W        W77302  27.389  17.249   1.639  0.1501 -0.1044  0.1385
34209W        W77303  26.482  15.850   2.087  0.3442 -0.0299 -0.1660
34210W        W77304  29.391  17.440   2.390  0.4370 -0.1485  0.0357
34211W        W77305  27.352  16.817   0.584 -0.4205 -0.1023 -0.0401
34212W        W77306  28.450  16.371   1.222  0.2613 -0.2165  0.1699
34213W        W77307  26.280  18.544   3.707 -0.1022 -0.0631  0.1435
34214W        W77308  26.649  17.121   1.202 -0.0578 -0.0085  0.0217
34215W        W77309  29.351  19.603   0.887  0.1209  0.1100  0.0370
34216W        W77310  30.314  16.792   0.545  0.0139  0.0838 -0.0906
34217W        W77311  26.387  19.617   0.341 -0.0398  0.2302 -0.2508
34218W        W77312  26.302  17.284   0.339 -0.0844  0.1823 -0.0376
34219W        W77313  26.208  16.676   2.985  0.0640 -0.2222 -0.0740
34220W        W77314  25.360  16.266   3.407  0.0231 -0.1641  0.0079
34221W        W77315  26.299  13.229  31.061  0.0921  0.1639  0.2467
34222W        W77316  29.803  17.677   3.018  0.0406 -0.1751  0.1484
34223W        W77317  26.573  17.302   2.635  0.0681  0.0283 -0.1778
34224W        W77318  27.976  16.483   1.433 -0.0733 -0.0859 -0.0436
34225W        W77319  26.465  17.483   0.796 -0.0462  0.0075  0.2725
34226W        W77320  27.866  16.700   0.573  0.0200 -0.0111 -0.5227
34227W        W77321  27.863  17.804   1.598 -0.0148 -0.3496 -0.2666
34228W        W77322  27.965  14.326   1.319  0.1697 -0.2093 -0.0607
34229W        W77323  27.322  14.610   1.719  0.2247  0.0178  0.1220
34230W        W77324  25.762  16.075   0.652 -0.3384  0.0479 -0.0236
34231W        W77325  26.019  17.284   0.955 -0.2889 -0.2028 -0.0548
34232W        W77326  27.386  17.347   0.672 -0.1508 -0.3342  0.1024
34233W        W77327  29.223  16.849   1.214  0.0862 -0.2005 -0.4129
34234W        W77328  27.394  17.954   1.555  0.0669  0.0727 -0.2438
34235W        W77329  25.787  14.456   1.373 -0.2640  0.1918  0.1483
34236W        W77330  27.318  17.351   3.979  0.0428  0.1837 -0.0508
34237W        W77331  24.842  17.653  31.352  0.0929 -0.2216 -0.0106
34238W        W77332  25.210  16.150   1.940 -0.0242  0.1790 -0.1169
34239W        W77333  25.331  16.414   0.485  0.1557  0.4396 -0.3387
34240W        W77334  24.389  14.840   1.680 -0.0246 -0.0143  0.0156
34241W        W77335  25.966  17.289   2.291  0.1652 -0.0633  0.0017
34242W        W77336  28.351  15.900   0.506 -0.1470 -0.2796 -0.0071
34243W        W77337  24.893  16.014   3.466 -0.0467  0.2322 -0.1243
34244W        W77338  27.859  15.424   1.824 -0.1304 -0.0807  0.1479
34245W        W77339  26.817  16.427  31.974 -0.2718 -0.0579  0.2721
34246W        W77340  29.279  18.201   0.559  0.4738 -0.1892 -0.1932
34247W        W77341  29.436  15.999  31.922 -0.1783  0.0501  0.0540
34248W        W77342  27.760  18.101   0.463 -0.1422 -0.1445 -0.1316
34249W        W77343  25.235  16.957   2.648 -0.3154  0.0524 -0.2564
34250W        W77344  25.244  15.593   1.074 -0.0853 -0.2322  0.3008
34251W        W77345  26.795  15.429   3.887 -0.1492 -0.2239  0.2142
34252W        W77346  26.588  14.820   1.864  0.1687 -0.0739  0.1282
34253W        W77347  27.679  15.575   2.319 -0.0100 -0.3338  0.0729
34254W        W77348  25.480  13.223   0.308 -0.0704  0.1148  0.1314
34255W        W77349  28.678  14.355   1.310 -0.2742 -0.1028  0.0056
34256W        W77350  27.410  16.139   0.081  0.0479 -0.2968 -0.1198
34257W        W77351  24.579  18.073   0.720 -0.1057 -0.0457 -0.0425
34258W        W77352  26.849  16.245   2.114  0.1160 -0.0120 -0.1162
34259W        W77353  28.849  17.891   0.718 -0.1318  0.1402  0.1626
34260W        W77354  29.969  18.930   2.161 -0.2763  0.3310  0.0620
34261W        W77355  29.833  17.114   0.302  0.0050  0.0813 -0.1390
34262W        W77356  26.302  15.362   2.063 -0.0077  0.0535  0.0252
34263W        W77357  25.323  15.110   0.906  0.1643  0.1332 -0.0267
34264W        W77358  26.094  18.526   1.522 -0.2638 -0.0620 -0.3058
34265W        W77359  26.459  17.268   1.718 -0.0175  0.2493 -0.0313
34266W        W77360  25.729  15.317   1.157 -0.2318  0.2343 -0.3741
34267W        W77361  29.540  17.067   0.718 -0.0619 -0.0336  0.3853
34268W        W77362  27.509  17.610   0.036  0.0738  0.1359 -0.0242
34269W        W77363  26.399  17.851   2.565 -0.1434  0.0930  0.1876
34270W        W77364  28.315  15.468   3.138  0.1193 -0.0844 -0.0389
34271W        W77365  29.143  16.679   3.463  0.2457 -0.0134 -0.2259
34272W        W77366  26.755  17.718   2.255  0.1924  0.2014 -0.0030
34273W        W77367  25.026  15.939  31.917  0.0857 -0.1730  0.0813
34274W        W77368  27.195  17.965   2.077  0.2929 -0.0648  0.1454
34275W        W77369  25.628  16.910  31.168  0.2999 -0.1977  0.5560
34276W        W77370  24.771  15.766   1.162 -0.3451 -0.2246  0.0780
34277W        W77371  26.583  17.958   0.893  0.1978 -0.1109  0.2722
34278W        W77372  28.673  15.472   1.233 -0.0330  0.2393 -0.2961
34279W        W77373  25.066  15.732   4.177 -0.0118 -0.1357 -0.1205
34280W        W77374  26.349  15.244   3.703  0.2979  0.0537 -0.0523
34281W        W77375  26.610  15.963   0.515 -0.1719 -0.1888  0.0508
34282W        W77376  26.161  18.603   3.197  0.1063 -0.0863  0.0661
34283W        W77377  26.231  15.690   1.135  0.1129  0.0210  0.2219
34284W        W77378  30.152  14.466   0.550 -0.1239 -0.0879  0.0057
34285W        W77379  27.726  16.718   2.460 -0.0880  0.0330  0.4169
34286W        W77380  29.881  16.225   0.261  0.0824 -0.2351 -0.1008
34287W        W77381  28.747  15.609   0.693  0.0757 -0.1288 -0.0013
34288W        W77382  25.795  14.919  31.153 -0.0099 -0.2153 -0.1518
34289W        W77383  26.499  16.744   1.660 -0.1929 -0.3082 -0.1636
34290W        W77384  28.646  17.326  31.689  0.1306  0.1006 -0.0340
34291W        W77385  27.500  17.205   2.596 -0.3330 -0.1035  0.0467
34292W        W77386  27.233  14.584  30.611 -0.0453  0.0679  0.0785
34293W        W77387  30.008  19.363   0.313  0.2567  0.1567  0.0308
34294W        W77388  25.493  16.579   2.396 -0.0023  0.0770  0.0404
34295W        W77389  28.566  17.855   5.417 -0.1193  0.2725  0.0164
34296W        W77390  28.002  17.944   1.087 -0.1808 -0.2442 -0.0714
34297W        W77391  24.636  15.326   1.804  0.0274  0.0907 -0.1433
34298W        W77392  24.685  15.115  29.327  0.0272  0.2744 -0.1647
34299W        W77393  25.246  15.645   2.211 -0.1202 -0.0787 -0.0993
34300W        W77394  25.369  18.994  31.891 -0.0655 -0.2187  0.0891
34301W        W77395  27.933  15.156   2.240 -0.1363 -0.0750  0.0059
34302W        W77396  27.338  14.089   1.793 -0.1450  0.0864 -0.0698
34303W        W77397  25.540  14.204   3.074 -0.2134 -0.0363 -0.0612
34304W        W77398  28.043  15.887   2.858  0.1694 -0.2052  0.1584
34305W        W77399  27.268  15.985  31.208 -0.2989  0.2198  0.0750
34306W        W77400  27.432  15.708   0.833 -0.2223  0.2198  0.0536
34307W        W77401  27.253  16.604   0.060  0.1233 -0.2149  0.0156
34308W        W77402  27.042  15.204   0.860  0.2937 -0.1589  0.1990
34309W        W77403  26.341  16.242   2.504 -0.1129  0.0198  0.2390
34310W        W77404  26.434  19.090   3.167 -0.2537  0.0181 -0.2938
34311W        W77405  27.925  17.327   1.825  0.2238 -0.2839  0.3116
34312W        W77406  27.270  17.113   1.108 -0.1851 -0.0172 -0.0495
34313W        W77407  27.225  15.361   3.133 -0.3763 -0.2204 -0.4363
34314W        W77408  27.465  15.015   0.153 -0.2959  0.2134 -0.4028
34315W        W77409  26.103  18.270   0.875  0.0868 -0.0470 -0.0864
34316W        W77410  28.165  17.286   0.610 -0.1179  0.1095 -0.2045
34317W        W77411  25.538  15.052   2.795  0.4420  0.0971  0.0196
34318W        W77412  25.801  16.280   2.101 -0.0662 -0.3789  0.0217
34319W        W77413  26.838  17.341   0.287  0.1046  0.0715  0.1896
34320W        W77414  27.960  17.105   2.263  0.6153 -0.0288 -0.1244
34321W        W77415  26.340  19.092  31.597  0.1051  0.1318  0.2208
34322W        W77416  29.613  15.660   0.958 -0.0904 -0.1316  0.0468
34323W        W77417  26.088  18.164   1.827  0.0004 -0.1709 -0.1005
34324W        W77418  26.484  16.229  30.776  0.0212  0.2565  0.0447
34325W        W77419  25.020  16.202  31.492  0.1135  0.0911 -0.1214
34326W        W77420  27.488  15.286   1.059  0.2833  0.1948 -0.3436
34327W        W77421  28.794  17.849  30.904  0.1920  0.2508 -0.3301
34328W        W77422  24.553  15.752   3.674 -0.0633  0.0828 -0.1683
34329W        W77423  26.791  15.367   2.105  0.0825  0.1070 -0.0559
34330W        W77424  26.330  17.548   2.087 -0.0641 -0.0033  0.0853
34331W        W77425  28.591  16.539   1.918  0.3812 -0.1595 -0.1659
34332W        W77426  27.384  15.678   0.326 -0.2735 -0.3499 -0.0529
34333W        W77427  27.540  16.703   1.494 -0.1510 -0.1573  0.1326
34334W        W77428  26.485  18.191   3.999  0.0230  0.1080 -0.3729
34335W        W77429  25.031  16.980   0.070  0.0287  0.1049  0.1255
34336W        W77430  27.772  16.071   3.323 -0.1040 -0.1292 -0.2112
34337W        W77431  26.115  16.603   0.521  0.0839 -0.0951  0.1164
34338W        W77432  26.488  17.026   2.207 -0.0040 -0.0422 -0.1253
34339W        W77433  26.697  18.288   3.604 -0.2811 -0.3176  0.0752
34340W        W77434  25.366  15.948   0.368  0.3887 -0.1853 -0.4530
34341W        W77435  26.858  17.293   2.039 -0.0862 -0.2684  0.1742
34342W        W77436  26.467  15.277   1.564 -0.0486  0.0402  0.0840
34343W        W77437  30.103  16.827   3.039 -0.0282  0.1476  0.1316
34344W        W77438  27.254  15.518   1.880  0.0321 -0.0158 -0.1018
34345W        W77439  25.590  16.882   0.984 -0.1132 -0.1798 -0.0416
34346W        W77440  26.128  17.739   0.512 -0.0178  0.4232  0.3831
34347W        W77441  27.729  16.116   1.115 -0.6446  0.0426 -0.1776
34348W        W77442  26.511  16.211   1.600 -0.1633 -0.3098 -0.2342
34349W        W77443  26.279  17.138   3.189  0.0390  0.1327  0.1702
34350W        W77444  25.983  15.597   1.575  0.1022  0.0339 -0.1999
34351W        W77445  29.019  18.751   1.254  0.0888 -0.1247  0.0991
34352W        W77446  26.523  15.667   2.541  0.0180  0.1544  0.0999
34353W        W77447  25.944  15.941   0.170  0.2231  0.4101  0.1477
34354W        W77448  24.689  17.328   2.806  0.2209 -0.0250  0.0377
34355W        W77449  27.071  17.500   1.410  0.0976  0.1577 -0.0620
34356W        W77450  28.239  15.565   1.452 -0.2353 -0.0676 -0.1784
34357W        W77451  26.096  17.420   2.781 -0.0632  0.0339  0.2533
34358W        W77452  25.573  17.622   0.103  0.0081  0.0956  0.3383
34359W        W77453  25.905  17.902   2.762 -0.2693  0.2500  0.1513
34360W        W77454  29.118  14.042   0.668 -0.0643  0.2638 -0.0654
34361W        W77455  26.135  17.776   1.013  0.0420 -0.1742 -0.0585
34362W        W77456  26.335  16.541   2.077 -0.0372  0.1179  0.0912
34363W        W77457  29.057  15.473   2.538 -0.1416 -0.1867 -0.2901
34364W        W77458  27.450  18.319  30.754 -0.0316 -0.0491 -0.3390
34365W        W77459  27.779  15.406   2.923  0.0384 -0.0191  0.1587
34366W        W77460  25.905  13.955   2.260 -0.2121  0.1380  0.0710
34367W        W77461  27.547  16.334   0.615 -0.1906 -0.0504  0.4055
34368W        W77462  25.144  15.938   3.009  0.0226  0.2219 -0.0275
34369W        W77463  27.247  15.842   3.294 -0.2085 -0.0630 -0.0449
34370W        W77464  24.946  15.192   2.869 -0.4820  0.1331  0.1864
34371W        W77465  26.627  16.531   1.192 -0.4609 -0.2903  0.0955
34372W        W77466  24.697  13.978  31.919 -0.2355 -0.0162  0.0311
34373W        W77467  27.166  16.002   1.871  0.2580  0.0211  0.1986
34374W        W77468  28.559  16.945   0.519 -0.1474 -0.2074 -0.0899
34375W        W77469  26.165  18.213  31.681  0.3503 -0.1344  0.1060
34376W        W77470  28.094  15.185   1.133 -0.0185  0.1629 -0.1642
34377W        W77471  26.109  16.741   2.497  0.0366 -0.2057 -0.1437
34378W        W77472  28.522  16.862  31.773  0.1126 -0.2053  0.0127
34379W        W77473  27.697  16.785   0.084  0.3272 -0.2722 -0.0473
34380W        W77474  26.339  17.361  31.270  0.1058 -0.1192  0.0976
34381W        W77475  25.750  14.404   2.395  0.1964 -0.0513  0.2832
34382W        W77476  28.206  16.694   0.229 -0.1975 -0.1499 -0.1526
34383W        W77477  26.566  14.304   1.175  0.0159 -0.1346 -0.0929
34384W        W77478  26.156  16.667   1.037 -0.3247  0.1506  0.1663
34385W        W77479  28.145  15.035   1.670 -0.0004  0.0276  0.1122
34386W        W77480  26.687  16.616   3.354 -0.1536  0.2079  0.1856
34387W        W77481  25.437  14.736   1.794  0.1004  0.1698  0.0909
34388W        W77482  28.884  17.360   2.668  0.0212  0.3035 -0.0461
34389W        W77483  27.691  15.651  31.214 -0.1730 -0.3177 -0.1241
34390W        W77484  28.772  15.116   2.247  0.0949  0.0066 -0.0922
34391W        W77485  28.296  15.322   0.660  0.1393 -0.0287  0.3895
34392W        W77486  29.078  15.980  31.546  0.1274 -0.4272 -0.1642
34393W        W77487  25.360  16.476   1.443 -0.1728 -0.1428 -0.1507
34394W        W77488  27.072  16.290   2.973  0.1444 -0.2821  0.0773
34395W        W77489  26.966  14.187   0.244 -0.0936  0.1430  0.1117
34396W        W77490  28.235  15.362   3.664  0.1434  0.0095  0.0097
34397W        W77491  28.144  17.502  31.636 -0.0491 -0.2665 -0.0844
34398W        W77492  27.946  16.325   1.947  0.0095  0.0523 -0.0355
34399W        W77493  24.977  15.432   1.462  0.1525  0.2357 -0.0332
34400W        W77494  24.903  15.404   0.766 -0.0077  0.0015  0.2256
34401W        W77495  26.313  17.478   3.550 -0.0390  0.0585  0.1865
34402W        W77496  25.577  14.309  30.636  0.2381 -0.0769  0.0216
34403W        W77497  26.430  16.992   0.728  0.0947 -0.2124  0.2209
34404W        W77498  28.037  16.826   1.829 -0.0690  0.0568  0.0711
34405W        W77499  27.783  16.147   2.395 -0.0748  0.0772 -0.3395
34406W        W77500  26.600  14.869   0.635 -0.0044  0.0183  0.1494
34407W        W77501  29.776  14.947   3.882 -0.0699 -0.0365  0.1985
34408W        W77502  26.096  17.085   1.434 -0.1958  0.0711 -0.0301
34409W        W77503  28.369  15.297   2.025 -0.2414 -0.0183  0.1900
34410W        W77504  26.351  18.119   3.290 -0.0771 -0.2058  0.1612
34411W        W77505  25.296  18.127   3.272  0.1587 -0.1025 -0.2243
34412W        W77506  27.529  18.093   0.925  0.1849 -0.0459  0.2000
34413W        W77507  27.150  14.365   2.357 -0.1132 -0.0627  0.1949
34414W        W77508  28.638  14.942   1.192  0.1689 -0.1180 -0.3061
34415W        W77509  26.917  16.736   2.016  0.1160 -0.3013 -0.2010
34416W        W77510  28.916  15.843   3.013 -0.1955  0.1098  0.0317
34417W        W77511  25.772  16.880   4.053 -0.0711 -0.0349  0.0629
34418W        W77512  26.760  17.728   1.779 -0.2544  0.2855  0.0823
34419W        W77513  27.382  16.750   2.830  0.1429 -0.4169 -0.0215
34420W        W77514  29.359  15.798  31.225 -0.0386  0.1272 -0.0120
34421W        W77515  26.039  17.930   2.246 -0.0033  0.1394 -0.0387
34422W        W77516  25.408  14.749   3.736 -0.1794  0.0172  0.0467
34423W        W77517  27.503  15.973   3.753 -0.0342  0.3575  0.2171
34424W        W77518  27.289  15.870   2.321 -0.1659  0.0890  0.2759
34425W        W77519  25.450  14.177   0.487  0.1098 -0.3774 -0.0399
34426W        W77520  26.917  17.769  31.918  0.1956 -0.3131 -0.2556
34427W        W77521  25.375  18.091   2.825  0.2039  0.0805 -0.1707
34428W        W77522  25.472  16.622   1.877 -0.0691  0.1352 -0.1645
34429W        W77523  27.860  18.744   2.291 -0.1801 -0.4160 -0.2574
34430W        W77524  28.212  16.680  30.768 -0.4006  0.0328  0.0336
34431W        W77525  27.070  17.654   0.934  0.1157 -0.2619  0.4143
34432W        W77526  26.730  16.876   2.900 -0.2897  0.3600  0.0506
34433W        W77527  26.769  15.771   1.668  0.3930 -0.0777  0.0338
34434W        W77528  26.619  18.561   1.418  0.1460  0.0032  0.2682
34435W        W77529  24.869  18.389   0.517  0.1456 -0.0468  0.1854
34436W        W77530  29.114  17.579   0.256  0.0478  0.1515  0.2006
34437W        W77531  27.891  18.314   1.488  0.0403  0.1290 -0.0909
34438W        W77532  28.667  16.501   3.431 -0.0461 -0.0508 -0.0042
34439W        W77533  29.575  13.967   0.897  0.1516  0.5263 -0.0381
34440W        W77534  28.844  16.568   1.431 -0.2217  0.1320  0.0320
34441W        W77535  29.168  14.182   1.185  0.1143 -0.1018 -0.1269
34442W        W77536  26.632  17.816   3.645 -0.1313  0.0119 -0.1397
34443W        W77537  26.033  15.661   2.388 -0.3226  0.2145  0.2434
34444W        W77538  27.333  16.490  31.071 -0.1495  0.3795 -0.0419
34445W        W77539  25.197  16.312   2.691  0.0628  0.0186 -0.1195
34446W        W77540  28.101  15.920   3.826 -0.2880 -0.0981 -0.2422
34447W        W77541  24.327  18.102   2.690  0.1909 -0.0798  0.4613
34448W        W77542  28.201  18.831  31.745 -0.0227 -0.2221 -0.1852
34449W        W77543  25.566  14.775  30.596  0.1310  0.1207  0.2968
34450W        W77544  25.840  17.165  31.956  0.1560  0.2831 -0.0113
34451W        W77545  29.108  14.960   1.334 -0.0554 -0.1296 -0.0549
34452W        W77546  28.781  17.103   0.123  0.0092 -0.1591 -0.1162
34453W        W77547  26.938  17.139   0.710  0.1974  0.1277  0.0299
34454W        W77548  25.874  18.935   0.060 -0.1530  0.0697 -0.0888
34455W        W77549  26.688  18.183   2.886 -0.0790 -0.0168 -0.1165
34456W        W77550  28.406  17.394   2.397 -0.0119 -0.0455 -0.1362
34457W        W77551  25.163  16.447   0.020  0.0518  0.0748 -0.0808
34458W        W77552  28.981  16.109   0.079 -0.0522  0.1527  0.0703
34459W        W77553  25.805  15.422   3.028 -0.0152 -0.2284 -0.3939
34460W        W77554  28.880  14.042   1.900  0.1659 -0.1548 -0.1079
34461W        W77555  25.008  17.130   2.097 -0.1998 -0.0455  0.0338
34462W        W77556  28.027  16.303   0.786 -0.0178 -0.0687  0.0531
34463W        W77557  27.574  17.562   1.112  0.0397  0.0908 -0.2978
34464W        W77558  25.621  15.433   2.443 -0.3012  0.2169  0.1210
34465W        W77559  27.226  17.368  31.691  0.4196 -0.0697 -0.0562
34466W        W77560  29.251  17.068   2.041  0.1283 -0.1487 -0.0224
34467W        W77561  26.574  18.171  31.913 -0.1467  0.1336 -0.2922
34468W        W77562  29.530  16.530   2.434  0.0341 -0.1085 -0.1444
34469W        W77563  24.763  15.506   2.269 -0.0969 -0.1132  0.2857
34470W        W77564  27.381  15.750  31.654  0.0020 -0.1648 -0.4265
34471W        W77565  25.005  17.556   0.068  0.2271 -0.0829  0.2425
34472W        W77566  28.691  15.033   1.659  0.3950 -0.0637 -0.2318
34473W        W77567  28.335  17.623   1.902  0.1343 -0.1197  0.0357
34474W        W77568  24.747  14.562   0.618  0.0322  0.1778  0.4554
34475W        W77569  29.241  18.690  31.865  0.1347 -0.1616 -0.1674
34476W        W77570  29.164  15.736   2.123  0.2002  0.1679 -0.0232
34477W        W77571  25.722  17.291   0.508 -0.0866 -0.5205  0.0346
34478W        W77572  28.904  16.399   0.917  0.0108  0.1543  0.0190
34479W        W77573  26.892  17.780   2.781 -0.1624  0.1724 -0.0689
34480W        W77574  25.234  15.154   2.420 -0.1181  0.1370  0.0111
34481W        W77575  27.958  17.622   2.264 -0.0742 -0.0322 -0.0216
34482W        W77576  29.789  17.682   1.035 -0.3968 -0.0552 -0.2917
34483W        W77577  26.244  15.131   1.106  0.0410 -0.0478 -0.1721
34484W        W77578  26.876  16.135   0.918 -0.3334 -0.0552  0.1511
34485W        W77579  25.489  16.854   0.374  0.1526  0.0074  0.1640
34486W        W77580  29.990  16.487   2.632  0.0937  0.0911  0.1046
34487W        W77581  27.130  14.898   2.616  0.0218  0.1884 -0.0762
34488W        W77582  26.009  16.643  31.885  0.0595  0.0211  0.2034
34489W        W77583  27.593  13.731   2.697 -0.0982  0.1091 -0.1706
34490W        W77584  26.798  16.035   2.544 -0.1025 -0.2183  0.1157
34491W        W77585  27.234  18.182   3.608 -0.0455 -0.1016  0.2635
34492W        W77586  25.598  16.480  31.438 -0.0584 -0.2752 -0.1090
34493W        W77587  25.854  16.291   2.596  0.3755 -0.0063  0.0824
34494W        W77588  27.173  18.833   0.307  0.0086 -0.3710 -0.0445
34495W        W77589  27.902  18.686   0.907  0.2692  0.0412 -0.1639
34496W        W77590  28.245  17.218   0.074 -0.0353  0.1522 -0.0014
34497W        W77591  26.961  16.168   1.410 -0.0229 -0.2730  0.0638
34498W        W77592  29.410  17.897   0.084  0.0705  0.1578  0.2587
34499W        W77593  25.657  14.939   0.524 -0.2132 -0.2936 -0.2799
34500W        W77594  29.419  15.239   0.615  0.0200 -0.1643 -0.0486
34501W        W77595  27.006  14.467  31.328 -0.2841 -0.0830  0.2361
34502W        W77596  25.654  15.846   3.308  0.3128 -0.0336 -0.0019
34503W        W77597  23.869  15.807  31.502 -0.1231  0.0608  0.1844
34504W        W77598  25.204  15.810  30.628 -0.0989 -0.0135  0.0757
34505W        W77599  25.149  16.129   0.933 -0.1962 -0.1157 -0.1322
34506W        W77600  27.647  15.029   2.661 -0.0657 -0.1687  0.1418
34507W        W77601  25.915  14.906   3.677  0.1203 -0.1960 -0.2336
34508W        W77602  25.641  16.125   1.646 -0.0205  0.1061 -0.1238
34509W        W77603  25.763  15.294   0.216 -0.1274  0.1059  0.0735
34510W        W77604  28.765  17.949   1.788  0.1004 -0.2375  0.0199
34511W        W77605  26.229  14.828   2.341  0.1428  0.4467 -0.0249
34512W        W77606  23.673  15.403   1.492 -0.2061  0.0585 -0.1026
34513W        W77607  27.777  17.126   0.815  0.1335 -0.2452  0.0780
34514W        W77608  29.046  18.225   0.141 -0.3462  0.1596 -0.4642
34515W        W77609  28.222  14.590  31.632 -0.3031 -0.0817 -0.5243
34516W        W77610  29.138  16.986   2.567  0.0470 -0.0064 -0.0666
34517W        W77611  24.144  16.272  30.569 -0.1372 -0.0438  0.0804
34518W        W77612  27.446  14.671   2.199  0.1279 -0.2403 -0.1313
34519W        W77613  26.163  15.035   3.175 -0.2490 -0.4367  0.0558
34520W        W77614  25.224  13.805  31.728  0.0047  0.1429 -0.1843
34521W        W77615  26.358  16.287   0.174 -0.0347 -0.2819 -0.0647
34522W        W77616  27.060  18.156   0.794  0.2052  0.1715  0.1488
34523W        W77617  28.543  18.162   1.125  0.0827  0.3392  0.1152
34524W        W77618  28.306  16.729   2.357 -0.1661 -0.0265  0.3969
34525W        W77619  26.517  17.611   3.061  0.0388 -0.4454  0.2243
34526W        W77620  24.749  14.492   1.521  0.4519  0.3339 -0.0352
34527W        W77621  27.658  17.463  30.892 -0.0875  0.4413 -0.0955
34528W        W77622  26.406  16.302   4.168 -0.0025 -0.1055 -0.1245
34529W        W77623  29.294  17.089   0.140 -0.1855  0.0150  0.0161
34530W        W77624  28.823  16.113   0.531 -0.3552 -0.0952 -0.0946
34531W        W77625  27.604  16.463  31.615 -0.3416 -0.1927 -0.1978
34532W        W77626  26.612  13.986   2.972 -0.1779  0.1509  0.2183
34533W        W77627  27.256  16.389   2.521 -0.2481  0.2430  0.1441
34534W        W77628  29.196  15.458   1.474  0.1343  0.0297 -0.2108
34535W        W77629  24.314  15.625   1.476 -0.2135 -0.0103  0.1481
34536W        W77630  27.055  15.196   0.355  0.2395  0.0624 -0.0440
34537W        W77631  27.623  18.864   0.065 -0.1090 -0.1670  0.1062
34538W        W77632  25.667  16.666   2.875  0.2057  0.0341 -0.1282
34539W        W77633  27.808  15.333   0.664 -0.2846 -0.1839  0.0551
34540W        W77634  28.248  15.455   2.580 -0.1103 -0.2329  0.1844
34541W        W77635  27.913  17.058   1.315  0.2391 -0.1228 -0.0401
34542W        W77636  28.803  16.994   3.119  0.1816 -0.1182  0.1651
34543W        W77637  25.695  15.232   1.886  0.1065  0.1011  0.0251
34544W        W77638  28.426  16.903   1.479 -0.2028 -0.1538  0.0026
34545W        W77639  27.162  16.815   3.385 -0.1873  0.1488  0.0930
34546W        W77640  28.569  17.122   3.540  0.0773 -0.0510 -0.3064
34547W        W77641  27.657  18.451   3.224 -0.1352  0.2146 -0.1714
34548W        W77642  29.349  17.375   1.220 -0.0665  0.2942  0.1450
34549W        W77643  25.347  15.103   1.426  0.1742 -0.2054 -0.0820
34550W        W77644  25.957  16.967  31.479  0.2502 -0.0941  0.0779
34551W        W77645  27.941  16.030   1.562  0.2589 -0.2156 -0.0560
34552W        W77646  28.752  16.557   2.529  0.1094  0.1132  0.0486
34553W        W77647  25.768  15.721   2.012 -0.0401  0.0741  0.4572
34554W        W77648  27.715  15.636   1.333  0.2827  0.0075 -0.1975
34555W        W77649  27.613  17.097   3.166 -0.0844 -0.0798 -0.0709
34556W        W77650  27.430  16.232   1.548 -0.1179  0.1976  0.2524
34557W        W77651  26.978  17.137   6.554  0.0920 -0.1639  0.0007
34558W        W77652  26.179  16.660   3.888  0.0397 -0.0457  0.0872
34559W        W77653  28.736  15.986   4.717 -0.1301 -0.2262 -0.2870
34560W        W77654  28.784  17.155   4.077  0.0269  0.3696 -0.0607
34561W        W77655  25.703  15.738   4.178  0.5867  0.1412  0.1925
34562W        W77656  26.958  17.318   5.703 -0.0562  0.1207 -0.2271
34563W        W77657  25.130  14.544   6.732  0.0941  0.1145 -0.0855
34564W        W77658  29.235  17.732   5.520  0.2720 -0.1292 -0.4507
34565W        W77659  29.951  18.042   4.310  0.1126  0.0961  0.0126
34566W        W77660  25.524  15.747   2.794 -0.0636 -0.2666  0.3056
34567W        W77661  26.913  16.813   5.705  0.0576 -0.2377 -0.1049
34568W        W77662  27.513  17.251   6.424 -0.1946 -0.2135 -0.0151
34569W        W77663  26.688  14.504   4.568  0.1096 -0.2027 -0.0964
34570W        W77664  25.633  14.841   5.349  0.0130 -0.0503 -0.2567
34571W        W77665  29.254  15.897   5.262 -0.0353  0.5523 -0.0854
34572W        W77666  25.144  16.542   4.305 -0.0548  0.1810  0.3684
34573W        W77667  26.379  16.016   5.022 -0.1764 -0.1241  0.0591
34574W        W77668  27.259  15.641   5.064  0.0109 -0.0086 -0.0034
34575W        W77669  28.405  17.916   4.415  0.1508 -0.2420  0.1670
34576W        W77670  27.607  15.126   7.112  0.0669 -0.0165  0.1138
34577W        W77671  27.619  14.592   7.107 -0.0756  0.0040 -0.2048
34578W        W77672  27.258  17.465   3.426 -0.0363  0.0626 -0.0494
34579W        W77673  24.480  14.327   3.914 -0.0357  0.2512 -0.0115
34580W        W77674  27.044  16.050   6.428  0.1759 -0.1144 -0.3377
34581W        W77675  28.426  15.974   3.173  0.0413 -0.0832 -0.0993
34582W        W77676  28.069  16.206   6.187  0.0282 -0.4153 -0.0734
34583W        W77677  25.827  18.347   5.775  0.0951 -0.0496 -0.0786
34584W        W77678  29.513  18.645   6.746  0.2910 -0.1744  0.2992
34585W        W77679  29.701  16.807   7.705  0.2706  0.0087 -0.0822
34586W        W77680  24.884  17.629   4.950  0.0433 -0.2950 -0.4244
34587W        W77681  26.000  18.400   4.077  0.0070  0.0219 -0.2915
34588W        W77682  26.485  17.707   4.932  0.0885  0.0267 -0.5004
34589W        W77683  28.501  17.563   4.044 -0.1365 -0.0577  0.2258
34590W        W77684  29.119  17.455   6.994  0.0098 -0.0510  0.1450
34591W        W77685  26.510  18.508   7.187  0.0464 -0.2348 -0.3206
34592W        W77686  25.782  17.275   3.224  0.1357  0.0749 -0.1260
34593W        W77687  26.973  17.688   7.316 -0.1082  0.1229 -0.5140
34594W        W77688  25.565  17.679   6.979  0.0117  0.1229  0.1197
34595W        W77689  28.705  15.787   5.359  0.1858 -0.0240  0.2766
34596W        W77690  27.931  15.856   5.853 -0.2414 -0.0787  0.0765
34597W        W77691  26.875  18.765   4.779 -0.1691 -0.0958  0.0971
34598W        W77692  25.363  18.019   6.490 -0.0410 -0.1731 -0.0198
34599W        W77693  27.566  17.769   6.527  0.1399  0.2711  0.2726
34600W        W77694  26.021  17.498   4.971  0.1986 -0.0837 -0.0692
34601W        W77695  28.963  16.624   7.351  0.2060  0.0128 -0.0033
34602W        W77696  26.654  17.343   4.584 -0.0600 -0.1603  0.0683
34603W        W77697  29.072  15.950   3.918  0.0538 -0.0296  0.0581
34604W        W77698  25.381  15.754   3.752  0.0063 -0.0570 -0.0771
34605W        W77699  27.370  15.320   4.640  0.0005  0.4686 -0.0580
34606W        W77700  27.430  14.966   5.024  0.1403 -0.3363 -0.0110
34607W        W77701  24.656  17.163   4.765  0.3866 -0.1721  0.1780
34608W        W77702  26.583  14.815   5.668  0.1916 -0.0706  0.1626
34609W        W77703  30.119  18.130   7.333  0.0749 -0.0379  0.1831
34610W        W77704  26.569  16.342   2.932  0.0268 -0.0487  0.4616
34611W        W77705  28.651  14.994   5.446  0.1895  0.0010  0.2397
34612W        W77706  25.877  18.681   6.269 -0.0719 -0.3118  0.2799
34613W        W77707  25.384  16.145   4.079 -0.0290 -0.1317 -0.1112
34614W        W77708  27.490  15.814   2.748  0.0284  0.2539  0.0046
34615W        W77709  30.118  18.361   4.679 -0.4969 -0.1524 -0.0533
34616W        W77710  27.495  17.803   3.850 -0.2036 -0.3084 -0.0809
34617W        W77711  26.299  16.827   6.249  0.3038  0.2870  0.3191
34618W        W77712  25.790  15.841   6.974 -0.1353  0.0034 -0.1090
34619W        W77713  26.376  15.072   6.553 -0.2386  0.0816  0.0437
34620W        W77714  26.183  14.104   3.180  0.1421  0.1378 -0.0069
34621W        W77715  30.335  16.245   6.763  0.1965  0.0749  0.0380
34622W        W77716  25.728  17.153   7.061 -0.0678  0.0848 -0.2387
34623W        W77717  29.393  15.250   4.159 -0.2507  0.3235 -0.1466
34624W        W77718  27.604  17.221   5.385 -0.0531  0.1505  0.1838
34625W        W77719  29.250  18.167   6.491 -0.1019  0.0374 -0.0570
34626W        W77720  27.575  17.614   4.427  0.1235 -0.0473  0.1826
34627W        W77721  27.540  14.827   4.553  0.1163  0.0153 -0.1075
34628W        W77722  27.385  14.614   5.946  0.1836 -0.1957 -0.1922
34629W        W77723  25.707  17.664   3.582 -0.0758 -0.1967  0.0918
34630W        W77724  26.404  17.125   4.933  0.0828 -0.0128 -0.1588
34631W        W77725  29.194  17.368   5.059  0.3523  0.1522 -0.0888
34632W        W77726  27.634  16.609   3.330  0.0268 -0.2227  0.0551
34633W        W77727  26.620  16.944   5.349  0.1867  0.0632  0.1867
34634W        W77728  26.725  15.068   6.170 -0.1388 -0.1555  0.0829
34635W        W77729  27.084  16.596   5.308 -0.0724  0.1278 -0.1007
34636W        W77730  26.348  17.662   4.125 -0.0090  0.0375  0.0657
34637W        W77731  25.480  16.563   3.812 -0.0518 -0.0148  0.1780
34638W        W77732  25.938  16.771   3.458  0.0789  0.1174  0.4136
34639W        W77733  25.018  14.887   5.983  0.0439  0.1216  0.2233
34640W        W77734  26.789  16.688   4.942 -0.2522  0.0904 -0.2770
34641W        W77735  27.145  14.699   3.189 -0.0329  0.0617 -0.0310
34642W        W77736  26.490  14.783   7.053  0.0549 -0.0261 -0.2921
34643W        W77737  27.633  14.830   6.329 -0.1160 -0.2371 -0.0327
34644W        W77738  25.847  16.320   4.122  0.4449  0.0439 -0.0667
34645W        W77739  29.350  18.007   4.192 -0.0269  0.0295 -0.0241
34646W        W77740  29.273  15.734   3.443  0.0426 -0.1622  0.1006
34647W        W77741  28.663  17.341   5.355  0.0125 -0.0245  0.0957
34648W        W77742  25.817  16.245   5.914 -0.1121 -0.0133 -0.1796
34649W        W77743  25.436  15.870   4.748  0.2265 -0.0111 -0.0797
34650W        W77744  25.840  16.171   8.193 -0.0184 -0.0320 -0.0678
34651W        W77745  25.192  15.674   5.482 -0.0121 -0.2949 -0.0233
34652W        W77746  28.223  15.167   6.726  0.2486 -0.0737 -0.3046
34653W        W77747  26.934  15.249   4.874  0.0537 -0.1571  0.1745
34654W        W77748  27.238  15.646   4.186  0.2356 -0.1550  0.1539
34655W        W77749  25.922  15.321   3.996 -0.0456 -0.2051  0.3598
34656W        W77750  25.911  17.399   3.993 -0.5687  0.0193  0.2759
34657W        W77751  28.707  15.778   7.245  0.1541  0.0813 -0.1198
34658W        W77752  28.266  17.757   2.714 -0.0299 -0.0192 -0.3329
34659W        W77753  29.039  18.754   6.602  0.1301 -0.1649 -0.0721
34660W        W77754  27.073  17.129   4.690  0.0707  0.1989  0.1067
34661W        W77755  26.832  14.893   6.662  0.3360  0.0768 -0.2697
34662W        W77756  25.715  16.599   4.953  0.2675  0.0693  0.1150
34663W        W77757  24.888  19.636   4.216 -0.1659 -0.0654 -0.0346
34664W        W77758  25.904  16.768   5.909  0.4459 -0.3458 -0.0008
34665W        W77759  26.227  14.849   4.114 -0.0781  0.2466 -0.1471
34666W        W77760  29.873  18.273   5.169 -0.2988  0.1390 -0.3786
34667W        W77761  26.278  16.628   4.954  0.2595  0.1034  0.4461
34668W        W77762  25.923  15.875   6.306 -0.0610  0.1468 -0.1031
34669W        W77763  27.762  15.460   7.417 -0.2043 -0.1183 -0.0846
34670W        W77764  28.992  17.306   6.536  0.0069  0.1198  0.0759
34671W        W77765  27.195  17.078   5.194 -0.2101  0.1721 -0.1324
34672W        W77766  25.143  15.042   3.356 -0.3110  0.1372  0.2169
34673W        W77767  28.135  18.343   5.979  0.1432  0.2273  0.4926
34674W        W77768  25.816  18.295   3.583 -0.2932 -0.1140 -0.1552
34675W        W77769  24.515  16.866   5.416  0.1130 -0.2080  0.0306
34676W        W77770  27.041  17.574   4.429 -0.0604 -0.0860  0.1550
34677W        W77771  29.160  15.220   4.634 -0.1097  0.0484  0.0230
34678W        W77772  24.867  15.725   7.455  0.1331  0.0182 -0.0123
34679W        W77773  27.526  16.310   6.389  0.1259 -0.2856  0.4019
34680W        W77774  25.024  16.087   4.554 -0.0974 -0.1083  0.2286
34681W        W77775  26.741  16.213   7.108 -0.3850 -0.1239  0.4757
34682W        W77776  28.351  13.568   5.545  0.4521 -0.0128 -0.1692
34683W        W77777  29.653  15.387   3.617 -0.1390 -0.1454 -0.1353
34684W        W77778  28.840  17.903   7.160  0.0186 -0.3326 -0.0143
34685W        W77779  27.838  15.555   3.930 -0.5249 -0.2823  0.0839
34686W        W77780  27.074  15.503   2.561 -0.1319 -0.2310  0.2284
34687W        W77781  27.344  15.489   3.677 -0.3075  0.2831 -0.1005
34688W        W77782  25.014  18.274   6.731  0.1089  0.3708  0.1611
34689W        W77783  27.086  18.084   5.373  0.0504 -0.1015  0.2574
34690W        W77784  27.970  17.024   5.690  0.0940  0.0908 -0.1217
34691W        W77785  26.832  15.607   3.443 -0.1944  0.0526 -0.1519
34692W        W77786  28.822  17.469   4.604  0.0559  0.2177  0.1308
34693W        W77787  25.509  17.125   5.219 -0.1237 -0.1780 -0.1846
34694W        W77788  27.584  18.589   7.238  0.1649  0.1732 -0.2876
34695W        W77789  28.458  16.975   5.641 -0.0645 -0.0874 -0.2708
34696W        W77790  27.312  14.281   6.488 -0.1112 -0.1329  0.0569
34697W        W77791  25.689  15.321   3.546  0.1068 -0.1617  0.3745
34698W        W77792  26.565  14.437   4.109  0.1688  0.0594 -0.2720
34699W        W77793  26.831  17.490   3.953 -0.1146 -0.0169  0.0429
34700W        W77794  28.524  14.850   5.911 -0.2513  0.1002  0.0836
34701W        W77795  26.571  14.899   5.119 -0.0721  0.2332  0.0861
34702W        W77796  27.087  15.059   5.841 -0.1335 -0.4084 -0.0597
34703W        W77797  29.468  15.845   7.158  0.3920 -0.1431  0.1026
34704W        W77798  29.573  15.822   3.940  0.2526  0.0307  0.5480
34705W        W77799  28.710  16.586   5.398 -0.1166 -0.1655  0.4194
34706W        W77800  24.178  14.378   2.438  0.1070 -0.2038 -0.1092
34707W        W77801  26.146  15.597   5.813 -0.0059 -0.1995 -0.1749
34708W        W77802  26.609  16.433   5.380  0.1221  0.1011  0.2078
34709W        W77803  25.851  18.884   5.747  0.0947  0.0705 -0.1748
34710W        W77804  26.045  16.773   6.709 -0.3179  0.2003 -0.2103
34711W        W77805  27.870  15.840   4.968 -0.1264 -0.1140 -0.2657
34712W        W77806  26.904  15.804   6.860  0.0356 -0.0605 -0.1459
34713W        W77807  29.035  15.340   3.263 -0.0781 -0.1348  0.0737
34714W        W77808  26.431  18.805   4.091  0.3103 -0.3107 -0.3413
34715W        W77809  26.991  16.687   4.358  0.0691 -0.1709  0.0025
34716W        W77810  26.700  14.436   5.330 -0.3048  0.1396  0.1659
34717W        W77811  26.154  16.617   5.428 -0.0064 -0.4042  0.1880
34718W        W77812  28.140  16.339   2.687  0.2168  0.0146  0.0246
34719W        W77813  27.775  16.983   6.787  0.1993 -0.2108 -0.2384
34720W        W77814  26.512  16.805   4.525 -0.2910 -0.0747  0.1460
34721W        W77815  27.522  14.470   5.081  0.0925  0.0024  0.2846
34722W        W77816  25.975  17.472   5.520  0.1325 -0.0409 -0.1292
34723W        W77817  27.000  16.198   5.015  0.1722 -0.4454 -0.2074
34724W        W77818  25.020  15.603   4.655 -0.0044 -0.1804  0.0748
34725W        W77819  27.702  16.333   5.839  0.0547  0.0549  0.1553
34726W        W77820  27.671  15.637   4.381 -0.0713  0.0693  0.1564
34727W        W77821  26.796  16.724   6.302  0.1052 -0.1007  0.0986
34728W        W77822  28.349  15.821   6.401  0.1895 -0.0213  0.1272
34729W        W77823  25.797  17.812   5.964  0.0017 -0.1508 -0.3011
34730W        W77824  27.931  16.126   6.639 -0.0878  0.1346 -0.0038
34731W        W77825  27.656  15.086   3.575 -0.0730  0.0870 -0.3568
34732W        W77826  27.512  18.318   6.707  0.0745 -0.1037 -0.4637
34733W        W77827  26.884  16.086   5.959 -0.0093 -0.4032  0.1571
34734W        W77828  25.364  15.253   3.973  0.1060  0.0402 -0.2882
34735W        W77829  27.101  15.633   5.649  0.0516 -0.0831 -0.3777
34736W        W77830  27.828  15.339   4.951  0.1902 -0.0269 -0.3320
34737W        W77831  24.910  17.990   4.630 -0.0681 -0.0750 -0.1478
34738W        W77832  28.408  18.040   6.284  0.1193 -0.0458  0.0096
34739W        W77833  25.619  17.259   4.342 -0.0956 -0.0076  0.0165
34740W        W77834  27.017  16.938   3.841  0.0312 -0.0886  0.0773
34741W        W77835  25.625  17.027   8.806 -0.3441 -0.2432  0.3112
34742W        W77836  29.651  16.856   6.268 -0.1756  0.1355  0.2369
34743W        W77837  26.447  15.556   6.221  0.2121 -0.1274  0.0862
34744W        W77838  26.294  15.227   4.865 -0.4354 -0.0230 -0.0449
34745W        W77839  26.649  15.401   5.793 -0.3134  0.0672  0.1609
34746W        W77840  28.575  17.509   6.922  0.0469  0.0357 -0.0442
34747W        W77841  27.627  16.836   6.136 -0.0439 -0.1046  0.0516
34748W        W77842  24.963  18.815   7.368  0.3037 -0.2930 -0.0408
34749W        W77843  28.157  15.110   5.306 -0.1466 -0.3873  0.1464
34750W        W77844  30.075  19.262   4.157  0.0940  0.0078 -0.1736
34751W        W77845  29.659  16.790   7.188  0.1506  0.3356 -0.2678
34752W        W77846  26.664  15.881   3.029 -0.2633 -0.0188 -0.1860
34753W        W77847  24.821  16.427   5.198  0.1232  0.0339 -0.3463
34754W        W77848  26.658  16.246   4.615  0.0916  0.0616  0.1369
34755W        W77849  26.955  15.577   6.159  0.1998  0.1576 -0.0205
34756W        W77850  27.408  16.860   5.656  0.1518  0.3735 -0.3561
34757W        W77851  25.821  17.909   5.233  0.1145 -0.0145  0.2204
34758W        W77852  24.894  16.832   6.002  0.0481  0.2153  0.0418
34759W        W77853  29.462  16.296   4.131  0.2295 -0.2829 -0.4422
34760W        W77854  28.115  16.660   4.521 -0.0682  0.1918 -0.0245
34761W        W77855  27.382  15.912   6.079 -0.3109  0.0938 -0.1746
34762W        W77856  29.050  15.768   6.861 -0.2489 -0.0294 -0.1031
34763W        W77857  27.877  16.340   3.747 -0.0966 -0.2875 -0.1513
34764W        W77858  27.332  14.058   6.007  0.1559 -0.0948 -0.1422
34765W        W77859  27.078  15.196   6.946 -0.1652 -0.0416 -0.1483
34766W        W77860  27.886  15.373   5.664  0.1372 -0.0265 -0.0091
34767W        W77861  25.926  14.604   6.757 -0.0793  0.0867  0.0160
34768W        W77862  26.581  17.705   9.017  0.0043  0.4453  0.1154
34769W        W77863  26.759  15.977   5.500  0.3025 -0.0284  0.1090
34770W        W77864  28.564  16.335   6.002  0.0975  0.6075  0.3160
34771W        W77865  26.238  14.551   5.319  0.1269 -0.0516  0.0539
34772W        W77866  27.620  16.673   5.245  0.5678  0.0336  0.1698
34773W        W77867  29.492  17.827   5.091 -0.3216  0.0684 -0.1515
34774W        W77868  26.475  17.080   3.839  0.0296 -0.0192  0.0991
34775W        W77869  28.586  15.977   4.258 -0.0909 -0.1435  0.0955
34776W        W77870  27.190  16.507   6.034  0.3202 -0.1027 -0.0906
34777W        W77871  28.194  16.300   4.115 -0.2916 -0.2934 -0.2337
34778W        W77872  27.826  15.535   3.387  0.0236  0.2127  0.1923
34779W        W77873  25.226  17.210   4.789 -0.0117  0.0600 -0.0134
34780W        W77874  25.845  14.108   8.012 -0.0866 -0.1001  0.2225
34781W        W77875  27.144  17.856   4.787 -0.1329  0.0055  0.2752
34782W        W77876  27.173  14.657   5.480 -0.2093 -0.2238 -0.0274
34783W        W77877  28.545  15.663   8.167 -0.1670 -0.1143 -0.3545
34784W        W77878  27.242  13.751   6.665 -0.1669 -0.0372 -0.1144
34785W        W77879  26.206  15.114   7.204 -0.0919 -0.1262 -0.1129
34786W        W77880  29.602  18.699   5.323 -0.0586  0.0516  0.0838
34787W        W77881  30.294  15.484   4.359 -0.0283  0.1575  0.1707
34788W        W77882  28.909  16.602   6.471 -0.2285  0.0347  0.0502
34789W        W77883  27.526  16.966   3.707 -0.2059 -0.0445 -0.4909
34790W        W77884  28.698  15.693   2.245 -0.0432  0.0450 -0.3558
34791W        W77885  26.641  14.349   7.185  0.1639 -0.1972 -0.0605
34792W        W77886  28.412  16.456   6.500 -0.3560 -0.0727  0.2001
34793W        W77887  26.414  15.381   4.191  0.1189  0.5500  0.2363
34794W        W77888  28.555  16.235   7.361 -0.1361  0.1200 -0.0120
34795W        W77889  26.978  17.939   4.113 -0.0898  0.3155 -0.1726
34796W        W77890  27.259  16.689   4.847 -0.2419 -0.1240  0.1187
34797W        W77891  29.095  16.160   3.350  0.2195  0.1898  0.2109
34798W        W77892  24.160  15.274   5.200 -0.2216  0.0721  0.2439
34799W        W77893  26.479  18.784   7.735  0.2614  0.3036  0.0674
34800W        W77894  25.594  16.310   4.541 -0.2062  0.0415  0.1266
34801W        W77895  26.152  15.907   4.227  0.3516  0.0649 -0.1535
34802W        W77896  27.897  18.586   6.828  0.2625  0.0788 -0.0698
34803W        W77897  29.013  17.958   7.637 -0.0952 -0.1885  0.0771
34804W        W77898  26.725  15.002   3.248 -0.2626 -0.0132 -0.2283
34805W        W77899  28.154  16.465   6.960  0.0257  0.3353 -0.0136
34806W        W77900  25.482  17.695   4.555 -0.0654  0.3684  0.0376
34807W        W77901  27.718  14.661   3.866 -0.1437 -0.4933  0.2854
34808W        W77902  26.112  18.150   6.177  0.0985 -0.3115  0.0593
34809W        W77903  25.965  15.099   6.781  0.1383  0.0610  0.0393
34810W        W77904  26.401  17.603   5.832 -0.2649  0.3656  0.0153
34811W        W77905  27.907  15.604   6.903  0.0541 -0.1457  0.1966
34812W        W77906  28.182  15.611   4.620 -0.0326 -0.0232 -0.2623
34813W        W77907  28.762  17.895   6.696  0.0161 -0.1363 -0.2057
34814W        W77908  28.683  17.164   6.132 -0.1634 -0.0774 -0.0100
34815W        W77909  28.147  16.705   6.020 -0.1598 -0.0907 -0.1551
34816W        W77910  28.215  16.642   5.113 -0.1000  0.0798  0.0195
34817W        W77911  28.368  18.386   5.370 -0.1173  0.0308  0.2484
34818W        W77912  28.886  16.852   4.596  0.1236  0.0381  0.0215
34819W        W77913  26.049  16.219   4.632  0.4077  0.0517 -0.0425
34820W        W77914  23.712  16.138   8.020  0.0220 -0.1966 -0.0851
34821W        W77915  27.576  17.309   5.893 -0.2075  0.0793 -0.1727
34822W        W77916  26.509  15.918   3.774  0.3022 -0.0813  0.0284
34823W        W77917  25.672  14.794   4.633 -0.3063 -0.0203  0.0196
34824W        W77918  27.559  16.550   4.485  0.2050 -0.0009  0.0523
34825W        W77919  25.962  18.014   6.655 -0.2775  0.0395  0.3653
34826W        W77920  26.323  15.974   6.915 -0.0505  0.0199 -0.1615
34827W        W77921  26.182  19.284   2.748 -0.1598  0.2672  0.2379
34828W        W77922  29.020  15.623   4.938 -0.1115  0.2222 -0.4010
34829W        W77923  26.758  16.494   3.898 -0.0394  0.0376  0.0593
34830W        W77924  28.055  17.953   5.330  0.0346  0.2826  0.1128
34831W        W77925  26.688  15.876   4.217  0.0178  0.0095 -0.1110
34832W        W77926  26.157  17.275   6.514  0.0410  0.3862  0.1913
34833W        W77927  25.405  18.061   3.756 -0.0065  0.0578 -0.1955
34834W        W77928  27.063  18.248   4.469 -0.2015  0.0978 -0.1975
34835W        W77929  25.869  17.083   4.744  0.0434  0.0315 -0.2694
34836W        W77930  28.248  17.048   6.916  0.0699 -0.2500  0.1892
34837W        W77931  27.649  14.866   3.110  0.0195  0.0597 -0.2242
34838W        W77932  29.238  16.084   4.756  0.0275  0.1760  0.1895
34839W        W77933  28.133  15.644   5.382 -0.0574  0.1915  0.0761
34840W        W77934  28.012  17.638   6.249 -0.0533  0.0299 -0.2755
34841W        W77935  28.270  16.495   5.601  0.0645 -0.1340  0.4552
34842W        W77936  26.698  13.698   3.367 -0.0347 -0.1764 -0.0500
34843W        W77937  26.134  15.603   6.699  0.1286  0.0929 -0.1394
34844W        W77938  29.541  16.532   8.566 -0.0420 -0.0245  0.2555
34845W        W77939  25.364  18.538   6.418  0.0134  0.2232 -0.0312
34846W        W77940  27.399  17.462   4.876  0.2934 -0.1289  0.3741
34847W        W77941  25.308  16.033   6.008 -0.0152 -0.0568 -0.0652
34848W        W77942  26.837  16.583   6.758 -0.0236 -0.1121 -0.3992
34849W        W77943  27.863  14.394   6.103  0.1550 -0.1868  0.1279
34850W        W77944  27.103  17.243   2.970  0.0994  0.1711  0.0722
34851W        W77945  27.753  14.768   5.394  0.1067 -0.0966  0.3475
34852W        W77946  26.703  17.441   6.175 -0.2724  0.0411  0.2404
34853W        W77947  25.350  16.607   5.941 -0.0451  0.2122 -0.1537
34854W        W77948  27.342  17.757   6.039 -0.3221  0.0182  0.1756
34855W        W77949  25.605  14.929   3.271  0.1551 -0.3699  0.1786
34856W        W77950  29.981  15.881   4.203 -0.0332  0.1591  0.1014
34857W        W77951  26.565  15.455   7.046  0.2184 -0.1582 -0.1445
34858W        W77952  28.473  15.013   7.667 -0.0160 -0.1090 -0.4647
34859W        W77953  25.704  15.379   5.415 -0.3793 -0.1409 -0.0203
34860W        W77954  28.741  15.150   3.680  0.4156  0.1150 -0.0600
34861W        W77955  27.033  17.667   6.519 -0.3533  0.0463 -0.0028
34862W        W77956  25.589  15.550   5.864 -0.2548 -0.0735  0.3202
34863W        W77957  27.018  15.899   3.795  0.2516 -0.0146 -0.0299
34864W        W77958  28.803  15.999   6.403 -0.1591 -0.0570 -0.0571
34865W        W77959  26.115  15.212   2.635 -0.0454  0.1596 -0.0964
34866W        W77960  26.890  18.050   8.323 -0.0775  0.3087 -0.5656
34867W        W77961  26.382  15.607   5.408  0.2210 -0.1783 -0.0905
34868W        W77962  28.343  15.551   4.112 -0.2260 -0.1574  0.0573
34869W        W77963  26.041  17.283   5.965  0.4979  0.0370 -0.0564
34870W        W77964  27.693  15.348   6.144  0.0530  0.2207  0.3233
34871W        W77965  27.690  18.134   6.114 -0.0494 -0.1874 -0.1271
34872W        W77966  25.088  14.037   5.402 -0.1234  0.2904 -0.1921
34873W        W77967  28.471  17.032   2.787  0.0126 -0.0962 -0.0099
34874W        W77968  30.233  15.192   3.832  0.0091  0.0139 -0.2678
34875W        W77969  26.831  17.396   5.130  0.0653 -0.0666  0.1521
34876W        W77970  28.890  17.738   5.032  0.2289  0.0336 -0.1393
34877W        W77971  28.766  18.335   6.433  0.2607 -0.1944 -0.0978
34878W        W77972  25.658  16.467   6.344 -0.2020  0.1001 -0.1723
34879W        W77973  28.204  19.470   6.525 -0.1721  0.1208  0.0147
34880W        W77974  29.176  16.976   6.199 -0.3610  0.1646 -0.0018
34881W        W77975  26.736  13.910   2.459  0.2088 -0.5045 -0.0589
34882W        W77976  26.741  15.649   5.063 -0.0110  0.1512 -0.0665
34883W        W77977  26.037  17.551   4.495 -0.0192 -0.1377 -0.1935
34884W        W77978  29.551  15.923   6.176  0.0040 -0.4356  0.1227
34885W        W77979  28.440  14.644   6.801 -0.1751 -0.0108  0.1542
34886W        W77980  28.765  17.050   2.197  0.0766  0.2268 -0.3328
34887W        W77981  29.630  14.556   7.726  0.1003  0.2019  0.0221
34888W        W77982  28.252  17.843   5.814 -0.3268  0.0126  0.2007
34889W        W77983  26.555  17.488   6.751  0.1493 -0.2043  0.1721
34890W        W77984  26.038  17.048   5.235  0.2482  0.1417 -0.2200
34891W        W77985  27.925  16.631   6.446  0.0032  0.0666  0.1524
34892W        W77986  26.650  17.873   5.363 -0.0018 -0.2803  0.3441
34893W        W77987  27.533  17.944   5.086 -0.1731  0.3258 -0.0338
34894W        W77988  29.647  17.197   5.723  0.1964 -0.4554  0.1754
34895W        W77989  26.846  15.404   4.420 -0.1904 -0.0071  0.0340
34896W        W77990  29.321  17.824   3.680 -0.0429  0.3255  0.3760
34897W        W77991  26.447  15.708   4.640  0.1148 -0.2528 -0.2711
34898W        W77992  29.669  14.555   4.794  0.0190 -0.0809  0.2979
34899W        W77993  27.945  15.164   4.386 -0.0774  0.2810  0.5187
34900W        W77994  26.506  16.487   5.889  0.0501 -0.0983 -0.0764
34901W        W77995  25.691  17.947   4.190  0.1487 -0.0644  0.3647
34902W        W77996  24.929  18.377   3.926 -0.0976  0.0034 -0.3050
34903W        W77997  26.158  15.101   5.400 -0.1168 -0.2648 -0.2880
34904W        W77998  28.219  14.944   8.392  0.0261  0.3718  0.0809
34905W        W77999  25.497  16.099   6.644 -0.2798 -0.0638  0.0817
34906W        W78000  25.582  17.304   5.774  0.1384  0.1309 -0.1468
34907W        W78001  25.890  16.173   5.137  0.0058 -0.3325 -0.0525
34908W        W78002  27.813  17.371   4.053  0.1188  0.0890  0.0545
34909W        W78003  27.819  15.765   6.331  0.3629 -0.0192  0.2369
34910W        W78004  23.890  15.199   6.653  0.0542 -0.5505 -0.1163
34911W        W78005  28.359  15.992   5.710 -0.1458 -0.2473  0.0282
34912W        W78006  28.368  16.100   5.205  0.1205 -0.1726 -0.1315
34913W        W78007  27.190  14.574   4.116 -0.0028 -0.2709 -0.0024
34914W        W78008  28.461  17.489   6.437  0.0692 -0.0617  0.1868
34915W        W78009  25.258  15.495   3.182  0.1390 -0.0822 -0.3146
34916W        W78010  27.378  16.100   6.807 -0.1223 -0.3577 -0.1383
34917W        W78011  28.254  15.552   7.615  0.0019  0.0123 -0.0030
34918W        W78012  25.915  15.799   3.702 -0.1026 -0.0587  0.1285
34919W        W78013  28.185  15.346   6.096  0.0563  0.2696  0.0076
34920W        W78014  26.386  16.978   5.775  0.1856  0.0651  0.2303
34921W        W78015  27.638  16.316   2.854  0.3163  0.2159  0.0584
34922W        W78016  27.328  16.748   6.570  0.0494  0.0122  0.1628
34923W        W78017  26.424  17.503   7.244 -0.1402  0.2312 -0.0437
34924W        W78018  25.461  15.112   6.216 -0.2080 -0.2351 -0.0869
34925W        W78019  27.759  16.930   4.779  0.2029  0.2330  0.0169
34926W        W78020  25.931  18.353   7.154 -0.0327 -0.1847  0.1271
34927W        W78021  27.452  16.453   4.007  0.4995  0.1482 -0.2763
34928W        W78022  28.714  15.027   6.866  0.1794  0.1237  0.0399
34929W        W78023  27.733  16.335   4.889 -0.0559  0.1197 -0.0987
34930W        W78024  25.186  14.903   7.207 -0.1352 -0.2885 -0.0577
34931W        W78025  25.627  15.449   6.776  0.1566  0.0474 -0.1302
34932W        W78026  28.681  18.083   8.010  0.0562  0.1401  0.0960
34933W        W78027  25.801  15.113   4.964 -0.1030 -0.1182 -0.3042
34934W        W78028  28.637  14.525   6.287 -0.0356 -0.3178 -0.3500
34935W        W78029  27.887  17.386   4.959 -0.0953  0.0863 -0.3832
34936W        W78030  25.907  15.714   4.617 -0.0579 -0.1039 -0.2079
34937W        W78031  27.587  15.726   5.477  0.0621 -0.0327  0.1087
34938W        W78032  26.840  16.731   7.295 -0.0064 -0.0860 -0.2193
34939W        W78033  28.292  17.387   5.937 -0.0048 -0.2878  0.0529
34940W        W78034  27.865  16.190   5.380 -0.2472 -0.1479  0.1085
34941W        W78035  25.785  15.869   5.545 -0.2279  0.0152 -0.3425
34942W        W78036  29.673  16.701   3.818 -0.1121 -0.1192  0.4236
34943W        W78037  28.044  17.155   6.320  0.0867 -0.2204 -0.1529
34944W        W78038  29.942  17.687   7.602  0.1945 -0.0291  0.2033
34945W        W78039  27.358  18.152   7.321  0.0713 -0.1405 -0.0486
34946W        W78040  28.805  17.586   5.795 -0.0036  0.0307 -0.3142
34947W        W78041  25.440  13.793   5.618 -0.0472 -0.3684  0.1796
34948W        W78042  26.403  17.382   5.383 -0.2544  0.4058 -0.1182
34949W        W78043  26.246  15.593   3.349  0.2654  0.3763 -0.0306
34950W        W78044  28.986  14.389   4.225  0.0276  0.0334 -0.1678
34951W        W78045  29.134  17.981   5.923 -0.1000  0.4297 -0.1659
34952W        W78046  28.304  14.402   4.738 -0.2865 -0.0794  0.1855
34953W        W78047  26.758  18.608   6.155 -0.1781  0.0503  0.1316
34954W        W78048  28.094  17.496   5.481 -0.0093  0.3565 -0.2988
34955W        W78049  26.714  18.354   9.614  0.1994 -0.0927  0.1113
34956W        W78050  27.292  15.486   7.679  0.2248  0.1760  0.2979
34957W        W78051  27.256  16.144   5.465  0.3688  0.1161  0.0175
34958W        W78052  28.815  16.208   9.391  0.1957 -0.0830  0.0749
34959W        W78053  26.181  15.861   8.327 -0.4245  0.0614 -0.2090
34960W        W78054  26.888  16.777   7.790  0.0799 -0.1404  0.1744
34961W        W78055  26.378  18.353  10.020 -0.0056  0.2315 -0.2642
34962W        W78056  26.996  17.733   8.744 -0.2392 -0.1530 -0.1597
34963W        W78057  27.653  16.512   6.893  0.1093  0.1099  0.0620
34964W        W78058  27.533  15.744  10.001  0.1269  0.0682 -0.0806
34965W        W78059  25.713  16.522   8.869 -0.3599 -0.1315 -0.2268
34966W        W78060  23.604  12.896   9.978 -0.2061 -0.4369  0.2535
34967W        W78061  28.522  16.626   9.612  0.3221 -0.1926 -0.1195
34968W        W78062  25.074  16.902   8.408  0.0090  0.1377 -0.0400
34969W        W78063  24.057  12.552   9.990 -0.0352 -0.1398  0.2781
34970W        W78064  27.222  16.134   9.337 -0.2078 -0.3149  0.0272
34971W        W78065  27.128  18.032   7.887 -0.0548 -0.3231  0.0331
34972W        W78066  25.672  14.282   9.840 -0.0730 -0.0941 -0.0779
34973W        W78067  27.111  17.391   8.013 -0.0776  0.0779  0.0518
34974W        W78068  25.444  15.723   7.463 -0.1151  0.2931 -0.1296
34975W        W78069  26.071  14.821   9.727 -0.0024 -0.2631  0.1249
34976W        W78070  26.634  15.584   9.483 -0.3463 -0.0781 -0.3193
34977W        W78071  27.670  16.058   8.842 -0.0910  0.1161  0.0274
34978W        W78072  27.433  17.570  10.147  0.0708  0.3776  0.0140
34979W        W78073  27.069  17.076   9.540  0.1429  0.0311  0.3820
34980W        W78074  27.344  18.499   8.313  0.0319 -0.0835  0.3136
34981W        W78075  26.853  16.803  10.215  0.2867  0.1396  0.2081
34982W        W78076  25.263  17.849   9.414 -0.0688  0.1855 -0.0079
34983W        W78077  26.404  16.739   8.010  0.0805  0.2152  0.0291
34984W        W78078  28.241  16.217   8.873  0.0574 -0.0421  0.1428
34985W        W78079  25.582  17.136   7.639  0.4256  0.0805 -0.1401
34986W        W78080  27.839  16.064  10.225 -0.3176 -0.2160 -0.2149
34987W        W78081  27.299  16.442   8.172 -0.0638 -0.1300  0.2052
34988W        W78082  26.338  16.004   6.009  0.2243 -0.2819  0.3799
34989W        W78083  27.669  17.307   8.298 -0.0870 -0.5274  0.2347
34990W        W78084  25.975  17.850   8.434  0.0765 -0.2874 -0.0346
34991W        W78085  26.053  17.591   6.912  0.0202 -0.0619 -0.0975
34992W        W78086  27.211  16.438   7.132 -0.3538 -0.0178  0.0758
34993W        W78087  25.965  16.198   6.680 -0.2199 -0.0865 -0.1113
34994W        W78088  29.116  15.728   9.052 -0.0624 -0.2225 -0.3637
34995W        W78089  27.496  14.938   8.769 -0.1270  0.0772 -0.0521
34996W        W78090  24.952  17.159   9.031  0.1164 -0.1180 -0.2852
34997W        W78091  25.204  14.038   9.767 -0.2942  0.0379  0.1636
34998W        W78092  28.103  16.396   7.476 -0.1168 -0.2420 -0.0001
34999W        W78093  27.423  16.540   9.034  0.0318 -0.2219  0.0071
35000W        W78094  26.994  16.653  10.749  0.1012 -0.3211  0.0637
35001W        W78095  25.654  15.702   9.168  0.0231  0.0267  0.2827
35002W        W78096  27.989  18.269   7.236 -0.0343  0.0674  0.0525
35003W        W78097  27.370  17.710   8.320 -0.1786  0.2202 -0.2106
35004W        W78098  27.040  17.267   7.051 -0.2568  0.1369 -0.3634
35005W        W78099  26.337  15.549   7.985 -0.1713 -0.4745  0.3973
35006W        W78100  26.060  15.906   7.767 -0.1722  0.1599  0.0297
35007W        W78101  28.644  13.450   9.962 -0.0982 -0.1863 -0.0014
35008W        W78102  26.518  16.264   9.283  0.1236  0.1417  0.1237
35009W        W78103  26.276  17.772  10.119 -0.2985 -0.3359  0.1898
35010W        W78104  27.755  17.879   7.069  0.2454 -0.0410 -0.1166
35011W        W78105  27.410  14.363   9.625 -0.1211 -0.2637 -0.1137
35012W        W78106  28.900  13.977   8.868  0.1613 -0.2514 -0.0494
35013W        W78107  25.708  17.030   6.289  0.0273 -0.1502 -0.1960
35014W        W78108  26.534  16.816   8.572 -0.1025 -0.1581 -0.1296
35015W        W78109  27.421  16.854   8.410  0.0680 -0.0117 -0.3994
35016W        W78110  27.812  16.732   7.286 -0.0515  0.2666  0.2725
35017W        W78111  25.531  16.814   9.328  0.2174 -0.0617  0.2555
35018W        W78112  26.162  18.400   7.594 -0.1865  0.1088  0.2842
35019W        W78113  27.892  16.932  10.191 -0.1377  0.2327  0.0314
35020W        W78114  24.708  17.037   7.232 -0.0302 -0.0131 -0.1955
35021W        W78115  25.104  14.475   9.987 -0.0154 -0.1284  0.0449
35022W        W78116  26.422  18.821   9.822  0.0542  0.0958 -0.1024
35023W        W78117  29.159  14.883   9.396 -0.0352  0.0196  0.1158
35024W        W78118  28.485  14.102  10.296 -0.0130 -0.0958  0.2729
35025W        W78119  26.167  17.049   8.858 -0.2269  0.0279  0.2685
35026W        W78120  28.151  16.651   9.243 -0.0046 -0.3888  0.0985
35027W        W78121  29.419  16.375   7.378 -0.0871 -0.1834  0.1846
35028W        W78122  28.225  17.103   7.776  0.1298  0.0288 -0.1472
35029W        W78123  27.181  16.199   8.806  0.0923 -0.1723  0.1000
35030W        W78124  26.296  14.457   8.424  0.0889 -0.1264  0.1197
35031W        W78125  25.386  15.298   9.398  0.2074  0.3856 -0.0691
35032W        W78126  25.594  15.267   7.271 -0.0297  0.0516 -0.0974
35033W        W78127  28.051  15.709   8.964 -0.1007 -0.0390 -0.3250
35034W        W78128  27.021  16.555   9.288  0.1934 -0.1389 -0.0607
35035W        W78129  26.817  15.870   9.003 -0.0597  0.0746  0.0013
35036W        W78130  27.890  17.308   7.194 -0.2451  0.0685 -0.3068
35037W        W78131  27.248  20.829   9.931 -0.4499 -0.2206  0.2889
35038W        W78132  29.254  16.874   9.786 -0.1248 -0.0531  0.2265
35039W        W78133  26.958  14.496   9.330  0.0430 -0.0554  0.1717
35040W        W78134  24.489  15.390   7.223 -0.3003 -0.0349 -0.0816
35041W        W78135  25.761  17.791   9.327 -0.2313  0.2308  0.2285
35042W        W78136  26.737  17.972  10.032 -0.1317  0.2706  0.2616
35043W        W78137  27.018  14.732   8.848  0.2078  0.0887  0.2095
35044W        W78138  28.540  17.457   8.906 -0.2130  0.2231 -0.0346
35045W        W78139  27.789  16.401   7.949  0.1595 -0.2661 -0.0262
35046W        W78140  29.685  18.389  10.319 -0.0366 -0.1034  0.2235
35047W        W78141  27.975  15.568   8.421 -0.1147  0.0388  0.1807
35048W        W78142  24.992  14.852   9.120  0.0569 -0.2129 -0.0344
35049W        W78143  27.755  19.324   9.633 -0.0776  0.1948  0.3246
35050W        W78144  26.410  17.246   8.436  0.1582 -0.1314 -0.0672
35051W        W78145  26.362  15.984   8.865  0.0320 -0.0685  0.0239
35052W        W78146  26.118  18.854   8.608 -0.3828 -0.4153  0.1342
35053W        W78147  27.967  15.225   8.850  0.1703 -0.2943  0.1676
35054W        W78148  25.047  15.857   8.456  0.2465 -0.0151 -0.4130
35055W        W78149  28.080  14.957   7.220 -0.1373  0.0255  0.0620
35056W        W78150  27.654  15.907   7.667  0.0666  0.0498 -0.1686
35057W        W78151  30.337  18.129   8.302 -0.0253  0.0646  0.1636
35058W        W78152  27.275  15.570   8.206 -0.0853 -0.1204 -0.2997
35059W        W78153  28.183  14.568   7.463  0.1515  0.1849  0.2411
35060W        W78154  25.940  16.771   8.484  0.4306  0.3787  0.0097
35061W        W78155  28.445  17.314  10.156 -0.0628  0.0969  0.1479
35062W        W78156  26.838  15.619   7.846 -0.2755  0.2629  0.2196
35063W        W78157  28.945  16.620   8.268  0.3618 -0.1171 -0.0434
35064W        W78158  26.513  17.186  10.310 -0.3252  0.0623  0.3346
35065W        W78159  27.906  16.841   8.199  0.1696 -0.1778  0.0396
35066W        W78160  27.249  13.500   9.484  0.0954  0.2087  0.3355
35067W        W78161  26.373  16.493   6.958  0.0017  0.0360  0.2140
35068W        W78162  27.824  14.918   9.218 -0.1857  0.2782 -0.2481
35069W        W78163  25.355  17.660   7.486  0.1798 -0.0956 -0.3418
35070W        W78164  27.270  15.294  10.033 -0.0035 -0.2954 -0.3340
35071W        W78165  27.999  16.726   8.740 -0.1747 -0.2174 -0.1144
35072W        W78166  30.654  16.985   8.663 -0.1527 -0.1579 -0.2420
35073W        W78167  28.868  17.843   9.331  0.0626  0.1056  0.1219
35074W        W78168  26.572  15.949   6.435 -0.0473  0.0662 -0.3861
35075W        W78169  27.661  17.486   9.405  0.1775  0.0242  0.1866
35076W        W78170  26.906  17.288  10.033 -0.1314  0.0242  0.0471
35077W        W78171  26.477  17.436   9.830  0.0817  0.2341  0.0196
35078W        W78172  28.631  14.908   8.635  0.0918  0.1365 -0.1916
35079W        W78173  26.212  17.836   7.588  0.1020  0.1155 -0.1042
35080W        W78174  26.850  16.287   7.577 -0.0797  0.0354 -0.1045
35081W        W78175  26.312  14.272   9.488 -0.0387  0.0635 -0.1039
35082W        W78176  26.750  17.853   9.501  0.4352  0.2633  0.1088
35083W        W78177  27.462  17.617   7.390 -0.0614 -0.0770 -0.2074
35084W        W78178  26.727  15.655   9.990 -0.0420  0.5534  0.1301
35085W        W78179  25.761  17.578   7.836 -0.0200 -0.0197  0.1697
35086W        W78180  29.381  16.360  10.029 -0.0707  0.0798  0.0874
35087W        W78181  24.162  16.855   8.826 -0.2549 -0.0115 -0.4052
35088W        W78182  27.143  15.595   9.549  0.2493  0.0587 -0.0458
35089W        W78183  24.965  16.323   8.555 -0.0775  0.1784  0.0710
35090W        W78184  27.081  15.439   9.056  0.3173  0.3780 -0.5319
35091W        W78185  27.188  15.986   7.901 -0.0908  0.1702 -0.1671
35092W        W78186  26.909  13.646  10.401 -0.0277 -0.1147 -0.0555
35093W        W78187  26.130  14.045   9.946  0.0109  0.0527  0.3393
35094W        W78188  24.476  17.215   9.808  0.0056 -0.0066 -0.2249
35095W        W78189  28.172  14.581   7.937  0.1613 -0.1031 -0.0761
35096W        W78190  23.893  16.462   7.430 -0.1987  0.0804 -0.2496
35097W        W78191  28.112  13.960   9.489 -0.2839  0.1283  0.0386
35098W        W78192  26.398  16.034   9.707  0.0341  0.0568 -0.2861
35099W        W78193  26.009  16.160   9.213 -0.0682  0.1160  0.0862
35100W        W78194  27.479  16.702   9.535  0.1537 -0.0080 -0.1354
35101W        W78195  24.989  15.868   7.960 -0.0603 -0.1054  0.1717
35102W        W78196  26.616  16.646   9.613  0.0724  0.2445  0.0676
35103W        W78197  27.926  18.334   9.996 -0.1370 -0.0956 -0.0908
35104W        W78198  26.890  15.153   9.621 -0.0227 -0.0613 -0.0889
35105W        W78199  26.698  15.023   9.117  0.1252 -0.1688  0.0467
35106W        W78200  27.686  17.124   8.991  0.0017  0.2579  0.0841
35107W        W78201  27.193  18.176   9.647  0.0434  0.1926 -0.1782
35108W        W78202  26.234  15.613   9.881 -0.1177  0.1813  0.2143
35109W        W78203  27.570  15.777   9.350  0.0219 -0.1310 -0.1768
35110W        W78204  28.737  18.968   8.783  0.1796  0.0989 -0.0521
35111W        W78205  26.445  16.436   6.460 -0.0189 -0.0468 -0.0776
35112W        W78206  26.632  16.781   9.110  0.1246  0.2087  0.2442
35113W        W78207  26.484  16.963   6.700 -0.0970 -0.0283  0.0528
35114W        W78208  28.286  14.892   8.998 -0.0007  0.2081  0.1241
35115W        W78209  26.604  18.030  10.556 -0.0422 -0.3592  0.0021
35116W        W78210  25.897  17.322   8.442  0.0650  0.1450  0.3368
35117W        W78211  25.620  18.822   8.509 -0.1339  0.3038  0.0570
35118W        W78212  28.680  15.164   8.237 -0.3467  0.0744  0.0181
35119W        W78213  26.523  15.847   7.506  0.0437 -0.0915 -0.1220
35120W        W78214  28.272  15.445   9.864  0.1920 -0.1642  0.4482
35121W        W78215  26.677  15.586   8.517  0.0579  0.1368  0.0895
35122W        W78216  24.029  14.441  10.120 -0.0462  0.0070 -0.1280
35123W        W78217  28.851  17.088  10.350  0.0794  0.3450 -0.2581
35124W        W78218  27.346  14.436   8.729  0.0208 -0.0062  0.1375
35125W        W78219  27.034  15.220   8.614  0.0377  0.0754  0.0595
35126W        W78220  27.145  17.021   9.028  0.1522 -0.1264 -0.4835
35127W        W78221  29.074  18.394   9.540 -0.1484  0.2074  0.1374
35128W        W78222  26.558  17.070   7.524 -0.3116 -0.2219  0.0177
35129W        W78223  28.262  15.739   9.445 -0.0569  0.1490 -0.0662
35130W        W78224  26.787  17.260   8.765  0.0863  0.2995  0.0950
35131W        W78225  28.653  16.140   8.237 -0.3206 -0.1075 -0.0512
35132W        W78226  26.897  15.974   8.342 -0.2717  0.1172  0.0536
35133W        W78227  26.214  16.525   8.839  0.1951  0.1650  0.2187
35134W        W78228  27.166  17.970  10.363 -0.0220  0.1216 -0.0832
35135W        W78229  27.794  15.396   9.639  0.5331  0.3020  0.2134
35136W        W78230  28.045  17.440   9.010  0.0073 -0.2148 -0.1538
35137W        W78231  28.581  16.987   8.758 -0.0142  0.0343 -0.3095
35138W        W78232  29.910  15.968   9.553 -0.1821 -0.3083 -0.0985
35139W        W78233  28.443  16.795  10.183 -0.1969  0.1046 -0.0252
35140W        W78234  28.311  13.833   7.217 -0.1908  0.0089  0.0379
35141W        W78235  27.361  15.187   9.317  0.0210  0.0771  0.3352
35142W        W78236  25.156  15.420   7.724  0.0285  0.1450  0.0160
35143W        W78237  25.793  16.649   7.079  0.2942 -0.0382  0.1559
35144W        W78238  29.077  17.253   9.384 -0.1329  0.1594 -0.2452
35145W        W78239  27.549  15.220   8.394  0.0028 -0.0793  0.0152
35146W        W78240  25.321  15.658   9.763  0.0587  0.1184  0.0366
35147W        W78241  25.027  15.585   6.578  0.2572 -0.1409  0.0909
35148W        W78242  27.240  15.991   7.350 -0.0631 -0.2580  0.1603
35149W        W78243  27.915  18.795  11.974 -0.0117  0.0412 -0.0111
35150W        W78244  28.019  14.088   7.514 -0.1354 -0.2061 -0.2083
35151W        W78245  26.714  16.339   8.820  0.2408  0.0825  0.0495
35152W        W78246  28.662  13.957   9.285  0.0685  0.0847  0.1332
35153W        W78247  26.754  18.929   9.434  0.1972  0.0859 -0.2511
35154W        W78248  26.801  17.373   9.293 -0.0754 -0.1230 -0.0094
35155W        W78249  27.719  14.243   9.197  0.0178 -0.3154  0.0602
35156W        W78250  28.823  15.707   9.643  0.0606  0.2044 -0.2272
35157W        W78251  26.266  17.550   9.351 -0.2929 -0.2334 -0.0944
35158W        W78252  26.443  16.690  10.461 -0.0885  0.0856  0.0270
35159W        W78253  27.616  16.011   8.289 -0.2925 -0.2931 -0.0294
35160W        W78254  27.260  17.469   9.114 -0.2328 -0.1471 -0.2705
35161W        W78255  27.590  16.448   8.559  0.0789  0.1067  0.1436
35162W        W78256  27.536  15.496   8.947 -0.1114 -0.2011 -0.3998
35163W        W78257  26.750  17.593   8.318 -0.0406 -0.2002  0.0763
35164W        W78258  27.103  16.616   9.825  0.0026 -0.1285 -0.3192
35165W        W78259  25.222  16.284   7.637 -0.1660  0.2471 -0.2180
35166W        W78260  28.341  17.367   7.397 -0.0049 -0.2757 -0.3674
35167W        W78261  27.353  16.901   7.068 -0.1871 -0.0856 -0.0837
35168W        W78262  26.982  18.432   8.688 -0.1324 -0.2306  0.1577
35169W        W78263  27.899  15.054   7.688  0.0659 -0.1069  0.1134
35170W        W78264  27.030  16.655   8.692 -0.1445  0.0565 -0.0020
35171W        W78265  25.481  16.143   7.215 -0.3619 -0.1622 -0.2774
35172W        W78266  28.314  16.844   7.385  0.1927  0.0246  0.4993
35173W        W78267  26.164  17.518   8.819  0.0743 -0.2282 -0.0544
35174W        W78268  29.461  15.031   7.865  0.2159 -0.0645  0.0873
35175W        W78269  29.384  15.172   9.131 -0.0118  0.0817 -0.0322
35176W        W78270  30.951  16.230   8.357  0.2386  0.2321 -0.1568
35177W        W78271  28.291  16.242   9.401 -0.4857  0.0977 -0.0824
35178W        W78272  26.128  15.619   7.296 -0.0472 -0.1299 -0.1083
35179W        W78273  27.606  17.643   7.887 -0.0309 -0.2138 -0.0819
35180W        W78274  27.196  16.016  10.240 -0.3118  0.2073 -0.0798
35181W        W78275  27.217  16.471  10.270 -0.3260 -0.0050 -0.1441
35182W        W78276  28.807  12.392   8.919 -0.2957 -0.1477 -0.0075
35183W        W78277  26.749  15.437   6.592 -0.0082  0.4251  0.0450
35184W        W78278  26.331  15.197   9.498  0.1999  0.1361  0.0209
35185W        W78279  27.252  17.144   7.487  0.1040 -0.2269 -0.0111
35186W        W78280  26.168  16.462   9.684 -0.0244 -0.2161  0.1957
35187W        W78281  25.391  18.185  10.817 -0.4034  0.0641  0.1808
35188W        W78282  24.518  15.743   7.849 -0.0301 -0.2125 -0.2852
35189W        W78283  31.879  15.619   9.858 -0.0116  0.0990  0.0536
35190W        W78284  26.948  11.933   9.801  0.1447  0.1984  0.0246
35191W        W78285  25.828  15.995   9.742  0.1354  0.1715  0.2427
35192W        W78286  29.002  14.377  10.109  0.0077 -0.2194  0.1560
35193W        W78287  27.751  17.917  10.299 -0.1031  0.0226 -0.3084
35194W        W78288  26.597  16.264  10.134 -0.0725 -0.0269 -0.1074
35195W        W78289  27.425  15.564   7.052 -0.4018 -0.2086 -0.1385
35196W        W78290  28.266  16.573   7.903 -0.1959  0.1641  0.1812
35197W        W78291  27.202  13.314  10.606  0.1946 -0.1501 -0.0053
35198W        W78292  28.432  15.353   8.679 -0.3711  0.0645  0.0367
35199W        W78293  25.988  16.139   7.310 -0.0119 -0.2399  0.0650
35200W        W78294  26.107  16.152  10.116  0.0335 -0.0633  0.0266
35201W        W78295  26.165  15.734   9.348 -0.0517 -0.1183  0.1048
35202W        W78296  28.239  17.845   7.142  0.1309  0.1881 -0.2739
35203W        W78297  28.924  15.349   8.707  0.3192  0.0171 -0.0384
35204W        W78298  26.224  17.036   7.143  0.3031 -0.4208  0.0632
35205W        W78299  27.940  17.687   7.506  0.1265 -0.2592 -0.2653
35206W        W78300  26.523  19.263  10.048  0.0777  0.2579 -0.2044
35207W        W78301  25.539  14.766   9.821 -0.0463 -0.0111  0.3455
35208W        W78302  27.044  18.089   9.163 -0.1402 -0.1115  0.1980
35209W        W78303  30.829  16.616   9.715  0.1260 -0.2832  0.0768
35210W        W78304  26.981  14.160   8.907  0.3094 -0.1870  0.2092
35211W        W78305  27.461  17.227  10.529 -0.1419 -0.1337 -0.0386
35212W        W78306  25.287  17.502   8.035 -0.1004  0.0125 -0.2040
35213W        W78307  29.704  17.092   9.650 -0.0570 -0.0811  0.1763
35214W        W78308  26.317  18.002   7.095 -0.0755 -0.0930  0.2652
35215W        W78309  27.333  19.168   9.247 -0.1896 -0.0168 -0.1068
35216W        W78310  25.900  15.318   6.263  0.1058  0.0808 -0.0549
35217W        W78311  26.936  16.131   9.780 -0.0956 -0.0090 -0.0233
35218W        W78312  26.432  17.900   8.598  0.1105 -0.1708 -0.1604
35219W        W78313  29.008  16.660  10.188  0.1729  0.1356 -0.2342
35220W        W78314  28.012  16.501   9.884  0.2751  0.2196 -0.1596
35221W        W78315  29.490  16.827   9.119  0.2700 -0.1069 -0.1773
35222W        W78316  26.459  16.176   7.978 -0.0791 -0.1198  0.2528
35223W        W78317  30.111  15.870   9.066 -0.2337 -0.4053  0.0195
35224W        W78318  27.699  15.469   7.944 -0.1848 -0.1636 -0.1916
35225W        W78319  27.827  15.200  10.124  0.3030  0.2894  0.0243
35226W        W78320  24.184  15.776   7.327 -0.0841  0.0258  0.0913
35227W        W78321  26.004  16.828   7.513  0.1738  0.0574 -0.0863
35228W        W78322  28.919  19.090  10.309 -0.1552 -0.3094  0.0996
35229W        W78323  26.832  16.462   8.188 -0.0149 -0.1351 -0.2268
35230W        W78324  26.811  13.677   8.348 -0.1827 -0.2728 -0.3147
35231W        W78325  28.952  18.187   8.507 -0.2746 -0.4345 -0.2729
35232W        W78326  25.045  16.183   9.773 -0.0973 -0.1326 -0.1390
35233W        W78327  26.220  14.794   9.185 -0.0652  0.2937 -0.0772
35234W        W78328  26.940  17.029   8.339 -0.1305 -0.0161 -0.0843
35235W        W78329  27.476  16.832   7.902 -0.2386  0.0306 -0.4144
35236W        W78330  28.201  15.289   8.021 -0.1706  0.0695  0.0906
35237W        W78331  25.067  15.398   6.121 -0.3266 -0.1255  0.0244
35238W        W78332  24.783  14.522   6.204 -0.1244 -0.0087  0.0273
35239W        W78333  25.807  13.924  10.342  0.5311  0.1130 -0.2680
35240W        W78334  27.741  17.203   7.644 -0.3176 -0.0517  0.0233
35241W        W78335  28.527  18.284   7.316  0.0307  0.1737  0.1483
35242W        W78336  24.721  12.480   9.456 -0.0109 -0.3468 -0.0499
35243W        W78337  28.983  15.746   8.433  0.0598 -0.2148  0.0618
35244W        W78338  28.722  17.080   9.817 -0.0340 -0.0102 -0.1920
35245W        W78339  28.818  13.482   9.028  0.0961  0.1715  0.1023
35246W        W78340  26.378  16.478   7.556 -0.1067 -0.1243 -0.2908
35247W        W78341  29.745  17.778   9.571 -0.0720  0.5039  0.0564
35248W        W78342  27.239  14.816   8.331  0.0226 -0.1483 -0.1813
35249W        W78343  28.899  15.331   9.212 -0.3035 -0.1490  0.0211
35250W        W78344  27.520  17.407   6.875 -0.3277  0.0498 -0.1819
35251W        W78345  24.365  15.075  10.136  0.0680  0.2702  0.1575
35252W        W78346  27.214  15.702   8.661 -0.0050 -0.1208 -0.2080
35253W        W78347  27.948  18.143   9.530  0.2123  0.5315  0.1029
35254W        W78348  25.874  16.692   8.020  0.2329  0.0937  0.0392
35255W        W78349  28.708  17.127   7.206  0.1840 -0.0523  0.2157
35256W        W78350  28.048  17.530   7.962 -0.1886  0.0909 -0.3526
35257W        W78351  26.870  18.830   9.001  0.1016  0.1401 -0.1428
35258W        W78352  29.301  16.065   9.520  0.0790  0.0314 -0.1515
35259W        W78353  25.372  13.951  10.759 -0.1090 -0.0909 -0.0964
35260W        W78354  25.515  17.099   8.207 -0.1806 -0.3130  0.0859
35261W        W78355  26.284  16.399   8.341  0.1149 -0.1957  0.0954
35262W        W78356  30.239  16.539   8.935  0.1782 -0.2972 -0.1290
35263W        W78357  27.283  14.859   9.774  0.0878 -0.0402  0.1692
35264W        W78358  27.852  13.673   7.825  0.0063  0.1508 -0.2016
35265W        W78359  27.368  17.045   9.954  0.2885 -0.0179 -0.1511
35266W        W78360  28.829  16.105   8.687 -0.3497  0.2877 -0.0510
35267W        W78361  26.410  20.535   2.921  0.0278 -0.2396 -0.2323
35268W        W78362  25.794  18.128   0.108 -0.1651  0.1752  0.0952
35269W        W78363  28.365  18.721   0.664  0.1352  0.1740  0.0522
35270W        W78364  28.488  19.750   2.190 -0.3309 -0.2679 -0.0934
35271W        W78365  25.973  19.383   0.324  0.2149  0.1375  0.3654
35272W        W78366  27.044  21.799   0.516  0.3144 -0.0502 -0.2671
35273W        W78367  26.408  19.408   1.188 -0.1498 -0.0030 -0.1543
35274W        W78368  26.600  19.473   2.954  0.1391 -0.2622 -0.1805
35275W        W78369  28.262  21.997   3.566  0.0472 -0.0533 -0.0554
35276W        W78370  28.480  20.365  31.968  0.3609  0.0408  0.0564
35277W        W78371  26.776  21.614   2.226 -0.0246 -0.2495  0.0897
35278W        W78372  27.974  19.133   0.530 -0.0328  0.2384  0.3644
35279W        W78373  26.153  18.535   2.334  0.0016  0.0745  0.3032
35280W        W78374  28.073  20.705   3.052  0.0840  0.0767 -0.1008
35281W        W78375  24.341  21.130  31.162 -0.1572  0.0902  0.2007
35282W        W78376  25.771  19.818   2.572  0.4912 -0.2065 -0.1310
35283W        W78377  26.653  19.724   0.852  0.1234  0.0108 -0.0922
35284W        W78378  26.889  21.261   1.854 -0.2534 -0.1360  0.0063
35285W        W78379  26.884  20.331   1.200 -0.2152  0.1382 -0.0095
35286W        W78380  26.627  17.896   4.501 -0.1596  0.0720 -0.2639
35287W        W78381  27.755  22.009   0.673 -0.1013 -0.0615 -0.3711
35288W        W78382  24.681  19.089  31.060 -0.1592 -0.0468  0.0046
35289W        W78383  25.070  20.074   1.347  0.0871 -0.0535 -0.0378
35290W        W78384  27.230  18.591   2.190 -0.3699  0.1276  0.1215
35291W        W78385  27.701  19.453   2.746  0.0089 -0.0747 -0.1595
35292W        W78386  28.538  18.916   1.634 -0.0013 -0.1304  0.0652
35293W        W78387  27.320  21.531   2.121  0.0242 -0.0117  0.2009
35294W        W78388  26.563  22.455  31.852 -0.2505 -0.0306  0.0919
35295W        W78389  27.182  19.780   3.673  0.0581 -0.1983 -0.3981
35296W        W78390  24.774  20.925  31.955 -0.2192  0.3411 -0.1532
35297W        W78391  25.320  21.174   1.321  0.0109  0.1876 -0.0909
35298W        W78392  26.190  21.226   0.332 -0.0094 -0.0592  0.0561
35299W        W78393  29.375  21.142   0.926 -0.2503 -0.1351 -0.0667
35300W        W78394  28.320  20.958   4.290  0.0061 -0.1257 -0.2709
35301W        W78395  26.523  21.578   3.528  0.4485  0.2479  0.1597
35302W        W78396  25.799  20.812   0.142 -0.1718 -0.1318  0.1842
35303W        W78397  26.986  23.015   3.107  0.1378 -0.0201  0.1870
35304W        W78398  27.159  20.152   3.252 -0.2156 -0.4905  0.2351
35305W        W78399  26.851  20.274   1.689 -0.0256  0.2274  0.1093
35306W        W78400  27.545  20.233   2.433  0.2925 -0.3153 -0.0706
35307W        W78401  26.387  20.090   0.515  0.1183 -0.1269 -0.3373
35308W        W78402  27.072  20.000   2.398  0.2646 -0.0945 -0.0348
35309W        W78403  27.547  21.440   3.980  0.0884  0.4079  0.1772
35310W        W78404  25.391  20.324   1.727  0.1283  0.2716 -0.0185
35311W        W78405  28.930  17.983   3.950  0.0318  0.1003  0.0973
35312W        W78406  27.438  21.504   0.637  0.2062 -0.2121  0.0319
35313W        W78407  26.992  20.726   0.806 -0.2065 -0.2429 -0.3496
35314W        W78408  26.796  19.489  31.960 -0.1800 -0.3158  0.0012
35315W        W78409  28.264  20.251   0.829 -0.1474 -0.0803  0.1721
35316W        W78410  27.047  18.131   2.511 -0.4504  0.2300  0.0119
35317W        W78411  25.891  21.160   1.210 -0.1470  0.1233 -0.2130
35318W        W78412  26.542  19.061   1.510 -0.1572 -0.0283 -0.0159
35319W        W78413  28.144  21.054   2.671 -0.0097 -0.0686  0.1263
35320W        W78414  25.685  20.112   0.705  0.2524  0.2559 -0.0124
35321W        W78415  28.905  19.126   3.272 -0.1311  0.0047 -0.2670
35322W        W78416  27.633  20.989   2.991  0.3383 -0.2702  0.1251
35323W        W78417  25.437  18.223   0.984  0.0826 -0.1847 -0.3638
35324W        W78418  28.141  20.997  31.486  0.1308 -0.0411  0.3918
35325W        W78419  27.077  21.775   1.816 -0.1293 -0.0827  0.4715
35326W        W78420  25.520  22.352   1.116  0.2493 -0.1749 -0.2491
35327W        W78421  24.493  20.445   0.359  0.0418 -0.0020 -0.0417
35328W        W78422  25.025  20.871   2.498 -0.2723 -0.1428  0.0052
35329W        W78423  26.055  19.989   2.109  0.1394 -0.1626  0.0354
35330W        W78424  26.301  18.284  31.204 -0.0236  0.1951 -0.0775
35331W        W78425  29.391  20.078   4.231  0.1161 -0.0048  0.1833
35332W        W78426  24.452  22.796   2.899  0.2995  0.2862  0.0843
35333W        W78427  27.107  19.386   0.833  0.1102  0.2028 -0.0930
35334W        W78428  27.134  20.820   1.302 -0.3635 -0.1812 -0.1515
35335W        W78429  27.707  21.533   1.081  0.0491  0.2990 -0.0608
35336W        W78430  30.035  20.671   0.551  0.3231 -0.0117 -0.1886
35337W        W78431  29.249  18.284   1.635  0.0951  0.0824 -0.1394
35338W        W78432  28.765  18.481   1.551 -0.2897  0.1195  0.2060
35339W        W78433  28.155  20.073   0.279 -0.2015 -0.3369 -0.1810
35340W        W78434  24.476  19.555  31.720 -0.1794  0.0627  0.2136
35341W        W78435  29.353  21.517   2.475 -0.2007 -0.2976 -0.0593
35342W        W78436  27.608  19.751   2.267  0.1312  0.0459 -0.2098
35343W        W78437  25.284  21.036   1.969 -0.1227 -0.0989 -0.0007
35344W        W78438  28.075  18.702   3.612  0.1970 -0.1651  0.0365
35345W        W78439  28.289  20.126   3.151  0.0928 -0.0757 -0.2343
35346W        W78440  26.492  20.500   0.764  0.1033 -0.3377  0.0830
35347W        W78441  24.484  21.392   0.902 -0.0210 -0.0226  0.2130
35348W        W78442  24.612  21.365  31.624  0.0407 -0.0744 -0.0099
35349W        W78443  25.623  18.632   3.261 -0.0148 -0.1215 -0.0852
35350W        W78444  26.039  20.990   2.170  0.1601 -0.5294 -0.0278
35351W        W78445  27.536  18.601   1.322 -0.0710  0.1323  0.1216
35352W        W78446  27.043  21.104   2.299 -0.3186  0.2031 -0.0916
35353W        W78447  30.090  18.410   1.018  0.2195 -0.0399 -0.2769
35354W        W78448  24.881  20.413   0.877 -0.0745  0.0373  0.2998
35355W        W78449  27.211  21.870   0.957 -0.1992  0.1771 -0.0013
35356W        W78450  28.775  20.370   0.966  0.1600  0.1794  0.1596
35357W        W78451  27.537  20.610   1.624 -0.1462  0.2117 -0.0136
35358W        W78452  25.313  18.736   1.785 -0.0107 -0.0262 -0.0358
35359W        W78453  25.298  18.813   1.325 -0.0713 -0.0449 -0.3329
35360W        W78454  26.652  19.020   2.712 -0.3132 -0.2336  0.1021
35361W        W78455  26.948  18.016   1.288  0.2370  0.0952  0.0041
35362W        W78456  27.695  20.747   2.533  0.1881 -0.1091  0.2572
35363W        W78457  25.353  17.888   1.380  0.0460  0.0179  0.0910
35364W        W78458  27.758  20.296   1.204 -0.4252  0.2749  0.1704
35365W        W78459  26.191  20.188   1.016 -0.0351 -0.1087  0.0192
35366W        W78460  25.031  20.598   1.379  0.2840 -0.1488 -0.0305
35367W        W78461  26.820  19.047   2.244  0.1828 -0.1261 -0.0345
35368W        W78462  27.395  23.724  31.746  0.2266  0.0709 -0.0950
35369W        W78463  28.553  21.149   1.989 -0.2241 -0.0860 -0.3915
35370W        W78464  29.618  21.664   0.989  0.2682 -0.0819 -0.2258
35371W        W78465  26.967  18.805   1.761 -0.4066  0.1959  0.2362
35372W        W78466  25.385  17.782  31.091 -0.1300  0.4623  0.2749
35373W        W78467  25.094  21.609   1.522  0.0005  0.0270 -0.0663
35374W        W78468  28.219  21.784   1.977 -0.1751  0.2013 -0.0663
35375W        W78469  25.495  18.738  30.872 -0.3360 -0.0804 -0.2463
35376W        W78470  27.728  23.146   2.032  0.1289 -0.0638  0.1167
35377W        W78471  27.299  20.400   0.396  0.1583 -0.1334  0.2083
35378W        W78472  26.228  19.943   3.614  0.0787 -0.2172 -0.0171
35379W        W78473  27.379  18.134   2.851  0.3457 -0.2612  0.0641
35380W        W78474  28.039  19.977   2.259 -0.0845  0.0382 -0.1320
35381W        W78475  28.031  18.793   1.495 -0.0010  0.0714  0.1560
35382W        W78476  25.163  17.299  29.919  0.1240  0.0455  0.0143
35383W        W78477  28.098  21.822   1.029  0.0678  0.2115 -0.1614
35384W        W78478  26.200  21.897   0.743  0.0316 -0.0461  0.1286
35385W        W78479  23.547  18.944   1.689  0.2568  0.0975 -0.0795
35386W        W78480  26.194  18.755   1.065  0.2408 -0.0800 -0.0886
35387W        W78481  28.923  18.872   2.690 -0.0667 -0.2964 -0.0356
35388W        W78482  24.891  19.383   3.635 -0.1086  0.2054 -0.2615
35389W        W78483  27.704  19.074   3.635  0.0729 -0.0441 -0.1504
35390W        W78484  25.148  19.149  30.815  0.1018 -0.1663 -0.0289
35391W        W78485  25.705  21.040   2.953  0.1271 -0.0613  0.0735
35392W        W78486  27.833  17.665   0.677 -0.5053 -0.0318 -0.1692
35393W        W78487  30.154  19.853   1.119  0.1652 -0.1028  0.0257
35394W        W78488  27.597  20.372   2.967  0.0646 -0.0794  0.0139
35395W        W78489  28.096  22.010   2.638  0.3673 -0.1502  0.0859
35396W        W78490  27.932  19.619   0.327 -0.0998  0.1113  0.0402
35397W        W78491  29.238  20.238   1.087 -0.1545  0.0293 -0.1476
35398W        W78492  26.098  20.312   3.344  0.1135 -0.0071  0.0581
35399W        W78493  27.321  20.060   1.439 -0.0306 -0.1249 -0.0493
35400W        W78494  27.515  19.602   1.748  0.1393  0.0109 -0.1499
35401W        W78495  26.877  20.164   0.653  0.3736  0.1617 -0.0734
35402W        W78496  28.142  21.367   1.285 -0.2674 -0.2915  0.2064
35403W        W78497  25.194  19.597   1.943  0.0373 -0.2760  0.1903
35404W        W78498  28.500  19.695   3.390 -0.0963  0.0063 -0.1057
35405W        W78499  27.478  23.343   2.707  0.0943  0.1602 -0.0795
35406W        W78500  27.582  18.375   2.447  0.1504 -0.2797 -0.1890
35407W        W78501  26.833  19.977   0.145  0.0521 -0.1934 -0.0576
35408W        W78502  27.196  18.982   1.199  0.3874  0.2235 -0.0169
35409W        W78503  25.822  20.844  31.598 -0.0244  0.4880  0.2854
35410W        W78504  28.455  18.706   2.761  0.2658 -0.0826  0.2328
35411W        W78505  27.986  17.211   2.709  0.4751  0.0986 -0.2687
35412W        W78506  26.916  17.959   3.242  0.4456  0.2443  0.0223
35413W        W78507  29.275  19.276   4.813  0.2340  0.0553  0.2103
35414W        W78508  29.539  19.943   0.640  0.3617 -0.1284 -0.2160
35415W        W78509  28.611  19.297   3.724 -0.0898  0.1941  0.5632
35416W        W78510  24.251  19.275  31.322  0.2521 -0.1081  0.0269
35417W        W78511  27.815  17.972   2.883  0.2330 -0.0769  0.0769
35418W        W78512  25.300  20.425   2.363 -0.1707 -0.0102  0.1446
35419W        W78513  24.699  20.228   1.715  0.0895  0.0857 -0.1399
35420W        W78514  27.091  19.509   2.164  0.1689  0.0930 -0.3840
35421W        W78515  28.447  19.611   1.563  0.0263  0.1242 -0.3667
35422W        W78516  27.579  17.928   3.310  0.0287  0.1434  0.1506
35423W        W78517  27.383  18.417   0.477  0.3659 -0.3126 -0.1214
35424W        W78518  26.302  23.255  31.813  0.0411 -0.2486 -0.0041
35425W        W78519  26.196  21.319   0.797  0.0482 -0.0972  0.2340
35426W        W78520  26.817  20.377   2.174  0.1667  0.2818  0.1708
35427W        W78521  26.750  22.124   0.841  0.0541  0.0744  0.4487
35428W        W78522  25.490  20.620   0.542  0.2067  0.1731  0.2134
35429W        W78523  27.373  19.917   2.795  0.1067 -0.2111 -0.0700
35430W        W78524  26.452  21.432   1.297 -0.1564 -0.1382 -0.0647
35431W        W78525  28.808  17.547   2.102 -0.1816  0.0102  0.0308
35432W        W78526  24.606  22.294   1.318  0.0803 -0.2709 -0.0570
35433W        W78527  25.658  18.140  30.433 -0.0793 -0.0066  0.0217
35434W        W78528  24.996  21.663   0.016 -0.2322 -0.1315 -0.0339
35435W        W78529  28.807  17.431   1.000  0.1615 -0.1484 -0.0459
35436W        W78530  28.325  20.011   1.812  0.1984  0.0075 -0.1677
35437W        W78531  25.429  18.670   2.390  0.1200  0.0647 -0.1207
35438W        W78532  28.068  18.186   2.464 -0.0469 -0.2683 -0.2227
35439W        W78533  25.788  20.445   2.081 -0.0125  0.0371 -0.4289
35440W        W78534  27.015  18.674   2.722  0.1259  0.4515 -0.1198
35441W        W78535  28.369  17.771   0.849 -0.0194 -0.2119 -0.2411
35442W        W78536  26.738  22.502   2.976  0.0355  0.2259 -0.0118
35443W        W78537  26.530  20.587   3.468 -0.1510 -0.0964 -0.0384
35444W        W78538  25.059  18.626  31.769  0.1309  0.2459  0.1730
35445W        W78539  28.519  19.151   4.227  0.2147  0.0130 -0.4162
35446W        W78540  27.376  18.430   1.748  0.2964  0.0123 -0.0176
35447W        W78541  26.422  20.395   1.419  0.0570 -0.1290 -0.0887
35448W        W78542  27.937  21.638   3.584 -0.1037 -0.4212 -0.1362
35449W        W78543  25.152  19.721   0.339  0.4946  0.0946 -0.2269
35450W        W78544  26.347  20.125   0.011  0.0528  0.1690  0.1609
35451W        W78545  26.844  19.721   4.373 -0.2466  0.0303 -0.0979
35452W        W78546  28.389  20.027   4.167  0.2724  0.2749  0.1976
35453W        W78547  27.127  19.378   1.526  0.1221 -0.1159 -0.1692
35454W        W78548  26.403  18.050   1.458 -0.2032  0.0810 -0.2170
35455W        W78549  28.128  19.606   0.990 -0.0747  0.1381  0.0386
35456W        W78550  27.900  21.492   2.672  0.0078  0.6270  0.1426
35457W        W78551  27.166  18.481   3.169  0.2204 -0.2162  0.4725
35458W        W78552  25.067  22.596   3.427 -0.2725  0.0168 -0.0012
35459W        W78553  28.489  17.926   2.248 -0.1733  0.0048 -0.1349
35460W        W78554  28.196  22.746   2.191  0.0118  0.0954 -0.1585
35461W        W78555  28.488  20.709   3.819  0.1831  0.1767  0.0419
35462W        W78556  25.358  20.458   1.013  0.0982 -0.0012 -0.2036
35463W        W78557  25.744  19.556   1.247 -0.0543  0.0348  0.4151
35464W        W78558  26.705  20.432   0.293 -0.1998 -0.0262  0.1992
35465W        W78559  27.942  18.591   2.792  0.1688 -0.0819 -0.1411
35466W        W78560  26.312  20.373   1.975 -0.2267  0.0225  0.1623
35467W        W78561  25.694  21.151   0.483  0.4045 -0.4952 -0.2567
35468W        W78562  26.437  21.402   2.932  0.1036  0.1564 -0.1561
35469W        W78563  28.665  18.259  31.787 -0.4137  0.1028 -0.1462
35470W        W78564  28.579  21.906   0.344 -0.1522  0.0841 -0.0993
35471W        W78565  26.156  19.824   1.337 -0.1468  0.2250  0.1587
35472W        W78566  28.067  19.954   3.576  0.1277 -0.0368 -0.0644
35473W        W78567  28.679  19.428   1.017 -0.0469  0.0101 -0.2753
35474W        W78568  28.093  17.492   4.514 -0.2963 -0.2175 -0.2327
35475W        W78569  26.056  18.810   2.764  0.0893  0.1926 -0.0020
35476W        W78570  27.472  21.254   2.573 -0.2189  0.0406 -0.2326
35477W        W78571  26.467  20.001   3.028 -0.3517 -0.2347 -0.2637
35478W        W78572  26.995  23.419   2.611 -0.2756 -0.0217  0.0821
35479W        W78573  25.912  20.183   2.887 -0.0713 -0.0080  0.2133
35480W        W78574  26.706  18.977   1.083  0.0384 -0.0560  0.1217
35481W        W78575  27.274  18.705  31.665 -0.3539 -0.2333 -0.1574
35482W        W78576  26.188  19.273   1.826  0.2242  0.1015  0.0895
35483W        W78577  29.598  20.360   1.574  0.0124  0.1605 -0.0913
35484W        W78578  27.080  20.764   1.839  0.3973  0.2775  0.0125
35485W        W78579  28.012  19.051   3.054 -0.0567 -0.0972  0.0416
35486W        W78580  25.037  17.678   0.552 -0.1231  0.2057 -0.0777
35487W        W78581  27.899  19.522   1.394 -0.0010  0.0235 -0.1240
35488W        W78582  28.325  19.219   1.261  0.1042  0.2517 -0.1596
35489W        W78583  25.571  19.575   0.594 -0.0066 -0.0899  0.2171
35490W        W78584  28.229  18.493   3.186  0.0402 -0.2058  0.0961
35491W        W78585  27.898  19.975   2.807  0.0173 -0.0292 -0.2522
35492W        W78586  28.061  18.522   1.917  0.0970 -0.1604  0.1702
35493W        W78587  28.287  18.165   1.746  0.1807 -0.0725  0.1016
35494W        W78588  27.796  19.249   2.211  0.0372 -0.0313 -0.0522
35495W        W78589  26.656  20.828   1.540 -0.1926  0.0962 -0.0857
35496W        W78590  26.600  18.409   4.477 -0.1429 -0.2882 -0.1320
35497W        W78591  29.295  22.965   1.762 -0.3023  0.1060  0.2712
35498W        W78592  28.871  21.243   0.304 -0.1350  0.0044 -0.1155
35499W        W78593  29.513  19.207   2.583 -0.0814  0.0660  0.0705
35500W        W78594  29.252  20.473   1.934  0.1847 -0.0596 -0.1736
35501W        W78595  27.611  19.408   0.759  0.2398 -0.3607 -0.0419
35502W        W78596  25.162  19.415   1.289 -0.0250  0.0382  0.0055
35503W        W78597  28.873  19.946   3.628 -0.2916 -0.0292 -0.1869
35504W        W78598  25.900  19.919   0.239 -0.2797  0.0105 -0.3400
35505W        W78599  26.211  19.097   3.753  0.2736 -0.0380 -0.0032
35506W        W78600  27.225  20.342  31.855  0.2556 -0.2893  0.1506
35507W        W78601  28.172  19.992   1.329  0.0204  0.1507 -0.1276
35508W        W78602  28.940  21.088   1.633 -0.0107 -0.1654  0.1293
35509W        W78603  25.186  20.118   0.576  0.2274 -0.1482  0.3760
35510W        W78604  27.285  22.308   2.737  0.3485  0.0726 -0.1343
35511W        W78605  25.639  17.834  30.057  0.1739  0.1948  0.2262
35512W        W78606  26.685  21.295   0.074 -0.0731 -0.1931  0.1969
35513W        W78607  28.974  22.776   2.641  0.0735  0.0436  0.1832
35514W        W78608  29.231  19.982   4.698  0.0043  0.3108 -0.2393
35515W        W78609  25.593  19.293  31.185 -0.0355  0.0112 -0.1281
35516W        W78610  28.103  19.648   3.118  0.1909  0.0487  0.0026
35517W        W78611  26.822  21.760   0.111 -0.0192  0.1063  0.0601
35518W        W78612  27.478  17.572   3.004 -0.0387  0.2454  0.2059
35519W        W78613  26.097  20.909   2.712 -0.1502  0.1045  0.0361
35520W        W78614  24.113  21.803   2.345  0.1546  0.2459  0.0897
35521W        W78615  27.095  19.824   1.053 -0.4082  0.0916  0.1515
35522W        W78616  27.550  17.878   2.436 -0.0111  0.0314 -0.1821
35523W        W78617  27.041  19.831   1.813 -0.1626  0.1324 -0.0582
35524W        W78618  26.560  19.961   2.204 -0.3218 -0.1000  0.0806
35525W        W78619  28.363  21.564   2.510 -0.1060  0.0992  0.3254
35526W        W78620  27.219  20.864   2.788  0.0445 -0.0707  0.1902
35527W        W78621  25.458  19.080   0.937 -0.1209 -0.2969 -0.2219
35528W        W78622  28.088  21.274   3.110 -0.2137  0.0104 -0.1985
35529W        W78623  27.574  19.782   1.115 -0.0984  0.1669  0.0997
35530W        W78624  27.232  21.210   1.019 -0.2476  0.2920 -0.0855
35531W        W78625  26.060  17.951   3.874  0.2023 -0.2347  0.0668
35532W        W78626  26.152  19.490   2.263 -0.0701 -0.2501  0.2359
35533W        W78627  27.794  20.476   2.079 -0.0388 -0.0774  0.0752
35534W        W78628  24.372  17.932  31.098 -0.1899  0.2703 -0.2697
35535W        W78629  28.294  20.465   1.255 -0.0980  0.1221  0.1492
35536W        W78630  23.958  21.150   3.122 -0.0860 -0.4277 -0.3947
35537W        W78631  26.382  19.973   1.766 -0.1073  0.1230 -0.1039
35538W        W78632  26.281  20.804   0.079  0.0302 -0.4407  0.1628
35539W        W78633  28.283  20.548   0.437 -0.3314 -0.0511  0.0107
35540W        W78634  26.289  20.846   1.160  0.0489 -0.4047 -0.0871
35541W        W78635  28.090  22.217   2.179  0.0644 -0.0244 -0.2003
35542W        W78636  26.365  19.187   0.141 -0.1363 -0.2647 -0.1798
35543W        W78637  25.965  20.295   1.570  0.0179  0.0758  0.1262
35544W        W78638  24.525  20.364   1.270 -0.2427  0.2051  0.2483
35545W        W78639  27.583  21.100   1.499 -0.0704 -0.2634 -0.0021
35546W        W78640  25.140  21.882   0.782 -0.2752 -0.0982 -0.1971
35547W        W78641  27.123  20.457   3.770  0.0568 -0.0454 -0.0976
35548W        W78642  28.138  17.642  31.029  0.0144  0.1379 -0.0174
35549W        W78643  29.040  19.384   2.820  0.2498  0.0485  0.2453
35550W        W78644  29.605  19.887   1.279 -0.0044  0.1907  0.4640
35551W        W78645  27.324  23.414   3.220  0.1356  0.2751 -0.2821
35552W        W78646  26.409  21.256   1.834 -0.1538 -0.2382 -0.0027
35553W        W78647  27.138  18.754  30.798  0.4567 -0.1482  0.1151
35554W        W78648  25.804  21.110   3.440 -0.0945 -0.1014 -0.1435
35555W        W78649  28.788  18.338   2.523  0.0688 -0.4795  0.1674
35556W        W78650  25.313  22.241   2.716  0.2383 -0.2040 -0.0271
35557W        W78651  27.561  20.747   1.104 -0.1869  0.1678 -0.0896
35558W        W78652  25.708  18.674   1.066  0.1956  0.0042 -0.2286
35559W        W78653  25.967  19.702   0.816  0.1547 -0.2087  0.2180
35560W        W78654  28.694  17.411   1.546  0.1551  0.1695 -0.0964
35561W        W78655  27.408  20.159  30.716  0.0099  0.0011 -0.2127
35562W        W78656  27.464  18.908   2.561 -0.3519 -0.0290 -0.0857
35563W        W78657  26.252  20.527   2.420 -0.2742 -0.0145 -0.1889
35564W        W78658  25.845  22.101   1.878 -0.1175 -0.0199  0.1490
35565W        W78659  27.206  22.367   1.901  0.1731  0.0331 -0.0527
35566W        W78660  25.092  18.122  31.501 -0.0482  0.0111 -0.2238
35567W        W78661  29.682  19.981   1.998  0.0620 -0.0646 -0.0301
35568W        W78662  26.014  19.758   3.109  0.1112  0.1096 -0.0410
35569W        W78663  29.653  17.834   2.556 -0.1293 -0.1309 -0.0222
35570W        W78664  25.853  18.071   1.334 -0.2896  0.1424 -0.0974
35571W        W78665  28.918  19.266   1.395 -0.0851  0.2530 -0.0501
35572W        W78666  28.217  19.002   1.984  0.1485 -0.2200 -0.1889
35573W        W78667  25.780  18.214   3.095 -0.0652 -0.1571  0.1395
35574W        W78668  25.990  20.442   0.459  0.0806 -0.2110 -0.2803
35575W        W78669  27.574  20.636   3.934  0.1762  0.1585  0.0305
35576W        W78670  28.939  20.705  31.822 -0.1834  0.1025 -0.0601
35577W        W78671  27.768  21.869   4.039 -0.2919 -0.0649  0.2441
35578W        W78672  25.244  18.585   0.260 -0.1993  0.1346 -0.2336
35579W        W78673  27.725  18.130   2.010 -0.0571 -0.2274 -0.3013
35580W        W78674  25.967  19.171   0.838 -0.1186  0.1786 -0.1832
35581W        W78675  26.539  20.842   2.064  0.0641  0.1303 -0.0881
35582W        W78676  28.227  22.525   1.650 -0.2423  0.0667 -0.3571
35583W        W78677  27.098  18.471   1.202 -0.0901  0.0719 -0.0184
35584W        W78678  30.157  21.516   0.979 -0.2969  0.2067  0.0630
35585W        W78679  28.468  19.987   2.699  0.0640  0.2423  0.2919
35586W        W78680  27.485  22.056   0.225  0.0732  0.0227 -0.3175
35587W        W78681  28.847  18.975   0.773 -0.4033  0.0401  0.1547
35588W        W78682  27.402  22.647   2.348 -0.0500  0.4121  0.1766
35589W        W78683  25.500  19.895   2.997 -0.0388 -0.2581  0.0091
35590W        W78684  27.996  20.876   1.382  0.1435 -0.1471 -0.1317
35591W        W78685  28.228  21.030   3.560  0.0394  0.0587  0.0505
35592W        W78686  26.901  18.244   1.705 -0.0735  0.0240 -0.0132
35593W        W78687  26.362  18.849   0.602 -0.0252  0.1046  0.2162
35594W        W78688  26.745  20.724   2.506  0.0528 -0.1028  0.0281
35595W        W78689  29.324  18.702   0.775  0.0789 -0.1165  0.2413
35596W        W78690  29.276  18.743   2.272  0.2508 -0.2523 -0.2432
35597W        W78691  26.743  21.087   1.019 -0.0342  0.4036 -0.0428
35598W        W78692  28.707  18.835   2.239  0.2364  0.0174  0.0397
35599W        W78693  27.532  21.523   3.070  0.3536 -0.0407  0.2167
35600W        W78694  27.051  20.408   2.832  0.0249  0.3762  0.3346
35601W        W78695  23.439  20.670  31.022 -0.4069  0.1932  0.4375
35602W        W78696  27.538  20.158   3.706 -0.1043  0.1318  0.0727
35603W        W78697  25.988  21.669   1.159  0.1278  0.3365  0.0892
35604W        W78698  27.962  21.552   0.627  0.4083 -0.1640 -0.0793
35605W        W78699  28.590  21.996   2.383 -0.3424 -0.1673  0.1143
35606W        W78700  25.850  20.580   1.153 -0.0187  0.1203  0.0511
35607W        W78701  28.509  20.451   2.851 -0.0251 -0.0300 -0.3026
35608W        W78702  27.050  17.023   2.423  0.0658  0.2520 -0.1508
35609W        W78703  29.013  19.754   1.247 -0.0093 -0.0499 -0.1559
35610W        W78704  28.450  18.665   1.197 -0.3742 -0.0010  0.2896
35611W        W78705  27.349  21.589   1.425 -0.3819 -0.0572  0.0302
35612W        W78706  26.159  19.638  31.871 -0.3904 -0.1456 -0.2428
35613W        W78707  27.346  19.891   0.121 -0.0897  0.0494 -0.1346
35614W        W78708  25.348  19.805   0.998  0.1569 -0.1550  0.0364
35615W        W78709  26.674  18.844   3.612  0.1364  0.3080 -0.0688
35616W        W78710  26.191  19.577   3.929 -0.2186 -0.0525  0.2054
35617W        W78711  25.683  20.039   1.270 -0.2347  0.2789  0.1100
35618W        W78712  26.092  17.856  31.279  0.2012  0.1322  0.3331
35619W        W78713  27.612  22.081   1.176  0.0479 -0.1549 -0.0061
35620W        W78714  26.425  18.752   1.921 -0.2014  0.0440  0.1725
35621W        W78715  24.381  17.241   0.425 -0.3130 -0.0719  0.2003
35622W        W78716  28.043  19.598   1.945  0.0394  0.1634  0.2053
35623W        W78717  28.282  23.211   1.196  0.1221  0.2116 -0.0735
35624W        W78718  27.443  18.912   0.716 -0.1039  0.0016 -0.3589
35625W        W78719  28.055  20.482   3.563  0.0141  0.2183  0.0806
35626W        W78720  26.819  22.611   0.424  0.3642 -0.0308 -0.2732
35627W        W78721  27.087  19.411   2.702  0.1988  0.0938 -0.0892
35628W        W78722  26.595  18.492   2.485 -0.0769 -0.0506  0.2488
35629W        W78723  23.886  19.098  31.912 -0.0008  0.3951 -0.0541
35630W        W78724  26.660  20.236   2.605 -0.0059 -0.3769 -0.0509
35631W        W78725  27.350  20.216   1.923  0.1138  0.2710  0.1749
35632W        W78726  29.109  20.261   0.528  0.0899 -0.0468 -0.1151
35633W        W78727  27.502  18.920   1.918  0.2082  0.3269 -0.2634
35634W        W78728  27.845  22.057   3.348  0.0842  0.1619 -0.1866
35635W        W78729  25.389  19.128   3.627  0.0355 -0.0985 -0.1156
35636W        W78730  28.643  20.842   2.498 -0.1382  0.0546 -0.3851
35637W        W78731  27.225  21.161   3.212  0.1474  0.1844  0.3406
35638W        W78732  28.726  20.105   1.511 -0.3502  0.0754  0.3553
35639W        W78733  27.491  19.303   0.282 -0.1013 -0.1903  0.0266
35640W        W78734  27.329  20.267   0.933 -0.1285  0.1387 -0.1614
35641W        W78735  25.301  18.846   4.019  0.0148  0.2727 -0.0861
35642W        W78736  25.527  21.031   2.396  0.2595 -0.0771  0.1164
35643W        W78737  28.500  20.966   3.107 -0.1077  0.0284  0.1266
35644W        W78738  25.952  19.100   1.360 -0.0715  0.0443  0.1773
35645W        W78739  28.410  18.458   2.286 -0.0166 -0.1160  0.2847
35646W        W78740  28.449  20.450   1.794  0.0741  0.0747  0.2902
35647W        W78741  25.746  18.590   0.495 -0.0063 -0.1867  0.0515
35648W        W78742  27.885  19.972   0.745 -0.2071 -0.0290 -0.3088
35649W        W78743  28.535  20.524   3.339  0.0447  0.2493  0.0759
35650W        W78744  27.625  22.407   3.089  0.0708  0.0069  0.1522
35651W        W78745  27.531  20.636   3.388 -0.2022  0.0159 -0.1086
35652W        W78746  25.335  20.264   0.092  0.2214 -0.1975 -0.3976
35653W        W78747  29.398  21.411   0.474  0.0830  0.3467  0.1588
35654W        W78748  28.016  22.501   3.467 -0.1135  0.1382 -0.2037
35655W        W78749  27.748  22.514   4.849 -0.2819 -0.1518  0.1929
35656W        W78750  26.967  21.250   0.572 -0.1057  0.1770 -0.0231
35657W        W78751  28.196  20.814   2.174  0.1206  0.0789 -0.1251
35658W        W78752  25.684  17.145   2.687 -0.1834 -0.0687  0.0834
35659W        W78753  25.295  20.176  31.022  0.1462 -0.1892  0.1050
35660W        W78754  25.520  18.807  31.424 -0.3423  0.1955  0.0326
35661W        W78755  27.779  20.002   1.662  0.3951 -0.0338 -0.0996
35662W        W78756  26.645  19.828   1.383 -0.3452 -0.1665 -0.2728
35663W        W78757  28.200  18.245   0.740 -0.1018 -0.3396 -0.3560
35664W        W78758  25.910  23.159   1.811  0.1901  0.3518  0.1170
35665W        W78759  27.770  21.794   2.265 -0.2629  0.1088  0.0957
35666W        W78760  27.048  21.218   6.947 -0.1277  0.0184 -0.0404
35667W        W78761  26.834  18.951   5.211  0.2703  0.1189  0.0032
35668W        W78762  27.861  18.125   3.662 -0.0350  0.1450  0.0007
35669W        W78763  27.898  20.068   5.017  0.0533 -0.1080 -0.1611
35670W        W78764  24.757  18.459   4.850  0.0130  0.4085  0.0681
35671W        W78765  27.582  20.952   4.390  0.2115 -0.0800 -0.1144
35672W        W78766  25.535  19.446   6.255  0.1967 -0.1487  0.2526
35673W        W78767  26.824  21.125   6.544  0.0413 -0.4217  0.0006
35674W        W78768  28.988  22.668   6.942  0.2436 -0.0083  0.0798
35675W        W78769  26.592  19.469   2.466  0.3332 -0.0518 -0.2273
35676W        W78770  26.290  17.738   6.335 -0.3290 -0.1559 -0.1840
35677W        W78771  27.339  22.258   7.973 -0.0427  0.3500  0.0122
35678W        W78772  26.786  18.172   4.983  0.0987  0.0706  0.2268
35679W        W78773  25.986  18.358   5.260 -0.1254 -0.0795 -0.1290
35680W        W78774  27.743  20.226   5.555  0.0232 -0.1236  0.3527
35681W        W78775  26.133  18.027   4.356 -0.6836 -0.0493 -0.1847
35682W        W78776  27.332  19.560   7.455 -0.3668  0.1594 -0.2788
35683W        W78777  26.980  19.160   4.403 -0.0671  0.2745 -0.3692
35684W        W78778  26.426  21.910   5.368 -0.0268 -0.0097  0.1272
35685W        W78779  26.943  17.834   5.806 -0.2303 -0.1019 -0.1942
35686W        W78780  26.537  18.080   5.975  0.2150 -0.2171 -0.1314
35687W        W78781  24.614  20.419   2.150 -0.0995  0.0810  0.1176
35688W        W78782  26.641  19.787   3.880 -0.0476 -0.1555  0.1250
35689W        W78783  25.446  20.212   5.638  0.2522  0.0315 -0.2124
35690W        W78784  27.249  19.858   6.064 -0.4733 -0.1937 -0.0630
35691W        W78785  28.703  18.737   6.118 -0.0598  0.0830 -0.0228
35692W        W78786  27.329  20.776   6.247  0.1345  0.0711  0.0159
35693W        W78787  25.515  21.668   4.585 -0.4448 -0.1379 -0.1758
35694W        W78788  28.314  22.798   5.751  0.1846 -0.4076 -0.0202
35695W        W78789  28.277  20.498   6.728 -0.0129  0.1977 -0.2943
35696W        W78790  24.225  21.417   4.527  0.0455  0.3625 -0.0597
35697W        W78791  25.017  22.034   4.538  0.1449  0.1676  0.0439
35698W        W78792  25.947  21.532   3.075  0.1132  0.1242 -0.1277
35699W        W78793  29.678  21.305   4.532  0.0464  0.2025 -0.0255
35700W        W78794  28.457  21.871   6.312 -0.1503 -0.0346  0.0697
35701W        W78795  27.689  22.800   8.028  0.0092 -0.5929 -0.0522
35702W        W78796  24.737  21.639   4.386 -0.0860  0.0892  0.0881
35703W        W78797  28.126  20.928   6.915  0.1024  0.3185 -0.1797
35704W        W78798  26.676  19.993   7.063  0.1060 -0.0510 -0.0642
35705W        W78799  27.393  19.883   6.634  0.1515  0.1720  0.1841
35706W        W78800  26.453  20.087   6.266  0.0796 -0.0682  0.0978
35707W        W78801  25.442  21.834   3.638 -0.2631  0.1225  0.0288
35708W        W78802  26.505  20.131   4.324 -0.2814 -0.2860 -0.0773
35709W        W78803  25.913  20.583   7.475  0.0102 -0.0979  0.4487
35710W        W78804  25.443  22.324   3.669  0.3698  0.2259 -0.0567
35711W        W78805  29.204  19.434   6.600 -0.2801 -0.1459 -0.1457
35712W        W78806  24.706  22.955   3.323 -0.0322 -0.1245  0.0452
35713W        W78807  27.715  19.611   3.766 -0.4718  0.0743 -0.2525
35714W        W78808  27.567  18.714   3.906  0.1851  0.2234 -0.4152
35715W        W78809  28.054  19.228   4.488 -0.0778  0.2137  0.0597
35716W        W78810  27.467  18.117   5.686  0.3429 -0.0197  0.1167
35717W        W78811  24.975  21.707   3.848  0.1325  0.0207  0.2487
35718W        W78812  26.192  17.983   5.605 -0.1669  0.1811 -0.4986
35719W        W78813  27.374  21.820   5.565  0.1305 -0.2008  0.0374
35720W        W78814  27.057  18.132   6.297  0.3178  0.2548  0.2853
35721W        W78815  28.421  19.954   6.594 -0.0106  0.1823 -0.1247
35722W        W78816  26.915  21.698   7.017  0.4357 -0.1860  0.1611
35723W        W78817  25.538  20.561   5.218 -0.2099  0.1141 -0.7367
35724W        W78818  27.271  21.951   3.163 -0.0125  0.1981  0.2334
35725W        W78819  28.012  22.205   5.090 -0.1344 -0.1191 -0.0344
35726W        W78820  26.644  21.460   4.084 -0.1433 -0.1853  0.3182
35727W        W78821  26.632  19.863   4.857  0.1042  0.1156  0.2574
35728W        W78822  25.651  21.491   7.126 -0.1804 -0.0314  0.0664
35729W        W78823  25.923  19.348   7.690  0.1698 -0.2389  0.0593
35730W        W78824  26.635  19.276   3.996  0.1221 -0.0995  0.1572
35731W        W78825  27.851  20.654   6.489  0.2564  0.0435 -0.0556
35732W        W78826  25.447  21.112   6.069  0.1325  0.1722  0.0964
35733W        W78827  28.621  18.392   4.463 -0.1872 -0.1770  0.2225
35734W        W78828  26.737  20.182   3.579 -0.0255  0.1067  0.2105
35735W        W78829  28.110  22.713   6.653 -0.1840  0.0563 -0.0673
35736W        W78830  28.171  20.150   4.594  0.0544  0.5419 -0.1832
35737W        W78831  28.449  19.187   5.949 -0.2905 -0.1485 -0.2513
35738W        W78832  27.769  18.674   6.309  0.2840  0.1333 -0.3121
35739W        W78833  27.006  19.042   3.078 -0.3172  0.0685 -0.0995
35740W        W78834  27.308  19.374   3.991  0.1988 -0.0878  0.3615
35741W        W78835  28.230  20.142   5.707 -0.2607 -0.0710  0.1638
35742W        W78836  27.992  18.429   4.080  0.1188 -0.0156  0.0201
35743W        W78837  27.087  20.617   5.367  0.0127 -0.1827  0.0081
35744W        W78838  27.020  20.367   6.896 -0.0657 -0.3389  0.0377
35745W        W78839  26.731  20.167   5.501  0.1076  0.1858 -0.2114
35746W        W78840  25.422  22.856   3.799  0.0399  0.2588 -0.1283
35747W        W78841  24.273  21.617   4.023 -0.2836  0.0897 -0.2288
35748W        W78842  24.649  19.787   2.678  0.1365  0.1342  0.0833
35749W        W78843  25.717  18.613   6.795  0.1626  0.0562 -0.2910
35750W        W78844  25.183  22.089   4.046 -0.1521 -0.2050 -0.0220
35751W        W78845  28.233  17.588   3.624  0.3284 -0.3033  0.0642
35752W        W78846  25.727  19.751   5.662 -0.0950  0.1995 -0.1210
35753W        W78847  29.604  18.454   4.230 -0.0648 -0.2337 -0.1900
35754W        W78848  25.569  20.201   4.036  0.0369  0.3182 -0.0136
35755W        W78849  27.438  22.193   4.576  0.0696 -0.0687  0.1438
35756W        W78850  27.216  18.832   3.522  0.0164  0.0581 -0.3279
35757W        W78851  27.466  21.841   3.636 -0.1106  0.1334  0.0123
35758W        W78852  25.133  21.124   5.687  0.1516  0.2450 -0.1063
35759W        W78853  26.004  19.103   4.403  0.0103  0.3227 -0.0020
35760W        W78854  26.386  18.914   6.383  0.3358  0.0946 -0.3949
35761W        W78855  27.116  18.561   5.307  0.0122  0.0807  0.0459
35762W        W78856  27.850  19.792   6.404 -0.0809 -0.4812 -0.3789
35763W        W78857  26.367  19.501   3.479 -0.0830 -0.0073 -0.1978
35764W        W78858  27.926  17.929   4.230 -0.0778 -0.3726 -0.0123
35765W        W78859  28.218  19.662   4.964 -0.0528  0.3320  0.2907
35766W        W78860  25.407  21.133   3.831  0.0644 -0.0521  0.1674
35767W        W78861  29.756  18.892   7.169  0.0100 -0.1497  0.0774
35768W        W78862  27.219  20.967   3.720  0.1653 -0.3722  0.1430
35769W        W78863  29.063  20.838   6.851 -0.0353 -0.1979  0.0100
35770W        W78864  27.277  20.748   4.918  0.0887  0.3688 -0.0791
35771W        W78865  26.163  18.480   6.647 -0.1979  0.0055  0.0990
35772W        W78866  25.758  18.464   4.852  0.1632 -0.3168 -0.1643
35773W        W78867  25.179  22.032   5.431 -0.0859  0.0894 -0.2136
35774W        W78868  26.421  21.411   5.296  0.1732  0.2359  0.1650
35775W        W78869  26.091  19.287   5.561  0.1028  0.1665 -0.3245
35776W        W78870  27.453  22.116   5.194  0.1196  0.2312 -0.1762
35777W        W78871  27.555  19.693   5.054  0.1064 -0.2986 -0.0618
35778W        W78872  25.180  21.994   6.442  0.0371 -0.0764 -0.0890
35779W        W78873  27.438  19.054   6.162  0.0479 -0.0605 -0.0464
35780W        W78874  28.559  19.939   6.152  0.0896  0.1527 -0.5212
35781W        W78875  28.207  18.762   4.367 -0.2021  0.2002  0.0860
35782W        W78876  26.961  19.354   3.610  0.4938 -0.1665  0.4317
35783W        W78877  27.273  22.649   4.681  0.0088  0.0178 -0.2175
35784W        W78878  24.899  22.169   3.598 -0.0291  0.2716 -0.2574
35785W        W78879  26.455  19.742   5.332  0.1102  0.1255  0.0356
35786W        W78880  27.148  21.433   3.621  0.0965 -0.0690  0.1397
35787W        W78881  28.579  17.920   3.503 -0.0387  0.3157  0.2098
35788W        W78882  25.294  19.937   6.533 -0.3437  0.5523 -0.0546
35789W        W78883  26.857  19.204   6.140 -0.0537  0.1693 -0.0125
35790W        W78884  25.808  19.626   4.271  0.3361  0.0404  0.1622
35791W        W78885  26.005  20.227   6.038 -0.2036 -0.1112 -0.0542
35792W        W78886  27.325  18.348   4.909  0.3224  0.1089  0.0791
35793W        W78887  29.729  19.178   5.036  0.0026  0.1299 -0.1225
35794W        W78888  27.797  19.893   5.915 -0.2933 -0.0750 -0.0857
35795W        W78889  27.813  19.275   5.133  0.2360 -0.4967 -0.1513
35796W        W78890  27.895  18.405   5.026  0.1563 -0.0484 -0.0686
35797W        W78891  27.737  17.484   3.563  0.1139  0.0356 -0.0519
35798W        W78892  25.647  21.471   6.507  0.2105  0.0221  0.2384
35799W        W78893  28.301  20.615   4.787  0.0553  0.0456  0.1297
35800W        W78894  25.812  20.189   4.456  0.1042 -0.2293  0.1206
35801W        W78895  28.198  19.304   3.460 -0.0185 -0.2956 -0.1847
35802W        W78896  28.497  20.217   3.705  0.1851 -0.1651  0.1939
35803W        W78897  25.736  20.752   4.778 -0.1504  0.2740  0.0896
35804W        W78898  26.676  20.928   5.033  0.3859 -0.2801 -0.0013
35805W        W78899  25.934  21.023   6.156  0.0250  0.0561  0.0814
35806W        W78900  26.658  18.729   5.583 -0.2069  0.0816 -0.3952
35807W        W78901  26.309  21.175   3.740 -0.1090  0.2885  0.1781
35808W        W78902  26.981  18.368   5.786 -0.0903  0.1678  0.3047
35809W        W78903  25.082  21.416   4.793 -0.1891 -0.1983 -0.0814
35810W        W78904  29.639  18.121   4.648 -0.0009 -0.2227  0.0482
35811W        W78905  27.495  18.920   6.831 -0.1060 -0.3092  0.2940
35812W        W78906  27.251  17.853   6.923  0.2611 -0.2013 -0.0175
35813W        W78907  29.272  20.384   7.688  0.0749 -0.1057  0.1368
35814W        W78908  27.857  19.587   4.270 -0.1022  0.1594 -0.1963
35815W        W78909  27.013  20.327   5.975  0.0810 -0.1050 -0.2949
35816W        W78910  27.352  19.884   4.179 -0.2145 -0.0754  0.3143
35817W        W78911  28.181  19.649   6.942 -0.0181 -0.1241 -0.0965
35818W        W78912  26.001  19.234   6.538  0.0026  0.2874  0.2768
35819W        W78913  25.781  22.772   7.405 -0.1346  0.0739 -0.0874
35820W        W78914  26.461  21.416   4.679  0.2139 -0.0712  0.0792
35821W        W78915  27.606  19.082   5.701  0.1077  0.0559  0.0351
35822W        W78916  26.716  17.676   7.790 -0.0968 -0.0260 -0.3206
35823W        W78917  26.266  18.480   5.841 -0.1025  0.1237  0.2153
35824W        W78918  26.341  22.289   2.565 -0.0292 -0.1110 -0.0863
35825W        W78919  26.036  21.377   2.564  0.1390 -0.0160 -0.0453
35826W        W78920  26.038  18.954   4.887  0.2232 -0.3147 -0.0215
35827W        W78921  26.107  21.662   4.991  0.0103  0.0093 -0.1133
35828W        W78922  27.144  22.406   3.364 -0.1999  0.0687 -0.0460
35829W        W78923  28.135  20.835   5.593 -0.1135 -0.1553  0.2041
35830W        W78924  26.912  20.159   4.061  0.0633  0.0667  0.0973
35831W        W78925  29.861  18.630   6.311 -0.1834 -0.1010 -0.0235
35832W        W78926  24.506  22.172   5.541 -0.0468 -0.0907  0.0620
35833W        W78927  25.921  19.070   3.345  0.0660 -0.3506  0.2111
35834W        W78928  25.354  19.874   4.343 -0.0370 -0.4921 -0.0844
35835W        W78929  28.105  18.312   4.565  0.3020 -0.0591 -0.0451
35836W        W78930  28.288  21.973   4.169 -0.3245  0.0628  0.0898
35837W        W78931  25.061  19.110   6.425 -0.3332  0.1629  0.2282
35838W        W78932  27.176  17.020   6.067  0.0832  0.0142  0.0275
35839W        W78933  27.077  22.097   7.435  0.2363  0.0899  0.0474
35840W        W78934  27.456  21.655   6.739  0.0730  0.3591 -0.1341
35841W        W78935  28.402  18.232   2.791  0.0707 -0.1582  0.1671
35842W        W78936  28.943  20.221   5.305  0.1115  0.0918 -0.1346
35843W        W78937  26.972  22.115   6.103 -0.1222  0.0063 -0.0103
35844W        W78938  26.692  18.617   3.188 -0.3451  0.0749  0.3702
35845W        W78939  28.902  19.127   6.926 -0.2561  0.0317  0.1199
35846W        W78940  25.641  19.713   4.731  0.0010 -0.1617 -0.0944
35847W        W78941  25.498  21.189   4.671  0.1135 -0.4074 -0.0846
35848W        W78942  26.465  23.333   6.186 -0.0202  0.0324  0.1495
35849W        W78943  27.637  19.127   4.275 -0.1638 -0.0025 -0.2949
35850W        W78944  26.307  20.189   5.138  0.2430  0.0253 -0.3774
35851W        W78945  25.625  19.112   7.113  0.1061 -0.1680  0.0003
35852W        W78946  27.955  19.138   6.171  0.1865 -0.1574  0.5007
35853W        W78947  27.240  20.093   5.582  0.0281  0.0240 -0.1323
35854W        W78948  26.235  20.348   4.665  0.0585  0.1428 -0.0137
35855W        W78949  26.995  18.957   6.534  0.4742  0.0048  0.0619
35856W        W78950  27.404  20.555   5.765  0.2359  0.0431 -0.0756
35857W        W78951  27.287  19.442   6.966  0.2569 -0.0514 -0.1363
35858W        W78952  26.397  20.366   7.822  0.1363  0.1915 -0.0895
35859W        W78953  27.775  17.750   5.754  0.1312  0.1069  0.1117
35860W        W78954  28.141  21.804   3.042  0.1652 -0.3132 -0.0856
35861W        W78955  27.528  20.350   6.714  0.3100  0.0567 -0.0355
35862W        W78956  26.063  19.670   5.072 -0.1417 -0.3334 -0.2435
35863W        W78957  27.175  19.434   6.467 -0.4170 -0.0429  0.2663
35864W        W78958  26.769  21.040   4.563  0.2699  0.1007 -0.2497
35865W        W78959  27.279  18.579   6.236 -0.1333 -0.2531 -0.1050
35866W        W78960  25.938  21.137   5.165  0.1007  0.1968  0.2947
35867W        W78961  26.229  20.910   3.227 -0.1050  0.1177  0.1553
35868W        W78962  26.975  20.104   6.421  0.1213 -0.0812  0.0386
35869W        W78963  28.479  16.506   2.954 -0.0831 -0.1387 -0.4032
35870W        W78964  26.404  20.423   3.914  0.0235  0.0278 -0.3823
35871W        W78965  27.852  18.353   5.500 -0.3538 -0.2462 -0.2232
35872W        W78966  29.456  18.994   6.304 -0.0158  0.0705  0.0023
35873W        W78967  26.846  19.840   2.816 -0.0081 -0.1981 -0.1168
35874W        W78968  27.411  18.519   7.747 -0.1061 -0.0662  0.0376
35875W        W78969  26.218  18.823   5.381 -0.2084 -0.0657 -0.0599
35876W        W78970  27.216  22.383   5.666 -0.5268  0.2611 -0.0802
35877W        W78971  24.868  19.998   5.497  0.3298 -0.2448  0.0072
35878W        W78972  27.842  22.028   7.000  0.0159 -0.3429  0.0525
35879W        W78973  26.060  19.362   6.999  0.1042 -0.0884 -0.0093
35880W        W78974  27.966  17.893   4.807 -0.1596  0.3929 -0.0068
35881W        W78975  27.240  18.667   4.424 -0.0518 -0.4551  0.1479
35882W        W78976  25.967  20.095   6.558 -0.0585 -0.0581 -0.2225
35883W        W78977  26.816  21.027   5.566  0.0438 -0.0861  0.0302
35884W        W78978  27.530  19.620   5.548 -0.0918 -0.1195 -0.2695
35885W        W78979  28.064  20.517   4.106 -0.1188 -0.1745 -0.0486
35886W        W78980  26.905  20.619   6.459  0.2364 -0.1024  0.1226
35887W        W78981  27.756  20.459   4.462  0.1816  0.1077  0.1366
35888W        W78982  27.103  18.922   4.026 -0.0616  0.2174 -0.0043
35889W        W78983  26.078  20.015   4.121 -0.0643 -0.0789 -0.1119
35890W        W78984  26.622  19.281   5.551  0.1587 -0.0487 -0.0094
35891W        W78985  28.489  19.973   5.259 -0.3537  0.0031  0.2388
35892W        W78986  26.489  18.361   5.373  0.0219  0.1031  0.0224
35893W        W78987  29.677  18.255   7.113 -0.2148  0.3143  0.0482
35894W        W78988  28.056  18.999   6.621  0.0146  0.1312  0.1879
35895W        W78989  26.720  21.129   7.312 -0.4316  0.1557  0.2089
35896W        W78990  25.710  18.419   7.821 -0.3062 -0.1711 -0.2045
35897W        W78991  28.260  21.700   6.778 -0.2534  0.3146 -0.0302
35898W        W78992  28.228  19.615   3.874 -0.3385  0.1808 -0.0831
35899W        W78993  29.026  18.698   5.390 -0.1474 -0.1040 -0.2049
35900W        W78994  27.606  18.803   5.265 -0.1338 -0.1239  0.0493
35901W        W78995  28.081  18.876   5.778  0.0791  0.1444  0.0837
35902W        W78996  26.309  19.734   5.789 -0.2996 -0.0398  0.1736
35903W        W78997  27.203  19.926   7.112  0.0218 -0.2040 -0.0714
35904W        W78998  25.866  18.005   4.743 -0.1673  0.0208  0.1985
35905W        W78999  27.886  18.938   7.585  0.1783 -0.0403  0.1315
35906W        W79000  27.597  20.759   5.389  0.1615  0.2909  0.1442
35907W        W79001  27.304  21.209   5.424 -0.1040 -0.0561 -0.0482
35908W        W79002  28.121  18.005   3.296 -0.2850  0.4379 -0.0553
35909W        W79003  24.206  19.150   5.262 -0.2078 -0.1521 -0.0997
35910W        W79004  25.950  21.629   7.654  0.0485 -0.0666  0.1556
35911W        W79005  25.098  19.567   5.188  0.3078 -0.2120 -0.0903
35912W        W79006  25.401  21.841   3.013  0.0857 -0.0527 -0.1666
35913W        W79007  26.300  21.000   5.558 -0.0730  0.3146  0.1519
35914W        W79008  28.592  19.092   8.304  0.0593  0.0084 -0.3101
35915W        W79009  27.390  18.224   4.071  0.2026  0.2342 -0.4160
35916W        W79010  28.375  18.240   6.825 -0.3329 -0.2101  0.0312
35917W        W79011  24.995  21.753   3.331  0.0040  0.3812  0.1346
35918W        W79012  28.575  18.769   5.648  0.1042  0.0802 -0.1331
35919W        W79013  25.582  20.553   5.979 -0.1478 -0.3973  0.1373
35920W        W79014  24.598  21.464   4.859  0.1975  0.0635  0.0006
35921W        W79015  25.992  20.638   4.229 -0.2081  0.3991  0.1021
35922W        W79016  28.250  18.573   6.424 -0.2558  0.1722 -0.0742
35923W        W79017  27.561  18.554   5.833  0.0050  0.0921  0.0222
35924W        W79018  26.601  20.606   4.409  0.0237 -0.0953  0.3802
35925W        W79019  29.236  19.703   6.193 -0.0932 -0.2285 -0.0672
35926W        W79020  28.051  19.438   5.791  0.0596 -0.0797 -0.1630
35927W        W79021  27.373  19.113   4.830  0.2255  0.1957  0.3600
35928W        W79022  27.866  21.964   6.482 -0.0066 -0.0313  0.4131
35929W        W79023  28.411  20.465   5.302 -0.0359 -0.0111 -0.1686
35930W        W79024  26.866  21.375   4.981  0.2036 -0.0187 -0.2476
35931W        W79025  25.329  19.392   6.725  0.2729 -0.2289 -0.1559
35932W        W79026  26.646  22.846   5.051  0.1801 -0.0326  0.2501
35933W        W79027  27.390  21.230   6.439 -0.0121  0.0300 -0.0146
35934W        W79028  26.416  18.603   4.972 -0.2215 -0.3040  0.2538
35935W        W79029  26.698  20.878   3.961 -0.0890  0.0229 -0.0777
35936W        W79030  24.577  21.491   6.868 -0.0454  0.0591 -0.0692
35937W        W79031  25.276  19.764   5.690  0.3455  0.0665 -0.0279
35938W        W79032  24.528  23.468   3.566 -0.1437 -0.5206  0.2446
35939W        W79033  26.925  22.992   3.595  0.0347  0.1982 -0.2470
35940W        W79034  26.917  19.743   3.274 -0.2292  0.0160  0.0026
35941W        W79035  27.628  22.624   5.318  0.1543  0.0402 -0.1026
35942W        W79036  27.402  19.395   3.358 -0.2128 -0.0863 -0.0668
35943W        W79037  25.502  22.331   6.200 -0.2546  0.2872  0.2031
35944W        W79038  24.746  21.122   3.127  0.1433 -0.0406  0.0147
35945W        W79039  27.111  21.148   4.199  0.1442 -0.4376 -0.1070
35946W        W79040  25.944  21.894   4.492  0.2078 -0.0382 -0.0373
35947W        W79041  27.839  20.564   5.938  0.0046  0.0845  0.0297
35948W        W79042  29.201  18.616   3.304  0.2895  0.2487 -0.2040
35949W        W79043  28.281  19.370   5.352 -0.0080 -0.1700  0.1315
35950W        W79044  28.105  18.834   5.289  0.1079  0.0424 -0.2848
35951W        W79045  28.448  21.319   7.067  0.0639  0.0394 -0.2120
35952W        W79046  25.973  21.831   6.763 -0.0886  0.4772 -0.1116
35953W        W79047  27.527  18.982   3.071 -0.1716  0.0119 -0.0515
35954W        W79048  26.496  19.243   6.724  0.1930 -0.0068 -0.1161
35955W        W79049  30.266  19.036   7.047  0.1019  0.0113  0.1032
35956W        W79050  24.611  22.660   8.143  0.2557  0.1569 -0.1585
35957W        W79051  27.195  21.776   4.053  0.1906  0.0173 -0.1479
35958W        W79052  25.277  18.650   5.710 -0.2374  0.4205  0.0250
35959W        W79053  26.557  21.424   6.849  0.1748  0.1369  0.5732
35960W        W79054  29.566  17.622   6.772  0.0835  0.1440 -0.1326
35961W        W79055  27.017  21.404   2.703  0.2616  0.1979  0.0109
35962W        W79056  27.599  19.472   6.037  0.1482 -0.1339  0.2135
35963W        W79057  25.559  21.533   4.076 -0.1929  0.0668 -0.1555
35964W        W79058  27.128  22.573   5.159  0.1298 -0.0161 -0.2297
35965W        W79059  25.917  20.970   6.702  0.0098  0.1958  0.4159
35966W        W79060  25.120  18.965   4.569  0.0591 -0.0009  0.1974
35967W        W79061  29.408  18.887   4.390  0.0466  0.1285 -0.3240
35968W        W79062  25.968  19.716   6.228 -0.3218  0.0377  0.0123
35969W        W79063  29.569  18.178   5.569 -0.0707  0.0420  0.0849
35970W        W79064  26.176  19.856   4.601  0.3508 -0.0850 -0.0382
35971W        W79065  28.033  16.799   3.876 -0.0240  0.1405  0.0790
35972W        W79066  27.677  20.613   7.153 -0.0642 -0.2748 -0.3113
35973W        W79067  24.699  20.458   5.377  0.0409  0.2097 -0.1640
35974W        W79068  26.867  18.545   4.003  0.0630  0.4614  0.0592
35975W        W79069  28.708  19.510   6.693 -0.1471 -0.2910 -0.2354
35976W        W79070  28.455  18.644   4.836  0.1820 -0.0234 -0.0485
35977W        W79071  28.790  21.444   7.670  0.0978  0.2103  0.2442
35978W        W79072  24.741  18.729   6.001  0.1116 -0.0383  0.0201
35979W        W79073  27.580  18.107   4.536  0.2074  0.2809 -0.3518
35980W        W79074  25.047  20.715   3.508  0.3505  0.1209  0.0645
35981W        W79075  26.507  20.389   6.736  0.1935  0.0384  0.4538
35982W        W79076  27.760  21.188   6.723  0.4687  0.2148 -0.1081
35983W        W79077  25.578  18.839   4.382 -0.0722 -0.0719 -0.0576
35984W        W79078  28.472  21.517   3.674  0.1969 -0.0004  0.2124
35985W        W79079  27.684  18.566   4.415  0.1179 -0.0319 -0.0074
35986W        W79080  26.766  21.006   2.992  0.1473 -0.0341  0.0089
35987W        W79081  29.037  20.176   6.085  0.0746 -0.1001 -0.0385
35988W        W79082  28.303  22.164   7.233 -0.1682 -0.0088  0.1931
35989W        W79083  25.561  20.029   6.119 -0.0741 -0.0082  0.1258
35990W        W79084  27.244  22.059   6.973  0.0070  0.2286 -0.0900
35991W        W79085  27.418  21.621   4.483  0.0877  0.1331 -0.3114
35992W        W79086  25.748  18.774   3.824 -0.1570 -0.0977  0.1459
35993W        W79087  25.574  19.151   4.769  0.1662  0.1035 -0.1580
35994W        W79088  24.943  21.352   5.269  0.1754 -0.0671  0.0718
35995W        W79089  29.394  18.313   4.999  0.2021  0.0924 -0.3556
35996W        W79090  27.142  18.865   5.716  0.0415  0.0232 -0.2531
35997W        W79091  25.843  22.069   2.820  0.1503  0.1603 -0.0046
35998W        W79092  28.675  18.290   5.845 -0.0652 -0.5147  0.2037
35999W        W79093  25.674  22.012   5.380  0.0839  0.2400  0.0295
36000W        W79094  26.952  21.635   7.516  0.1343 -0.1451 -0.0880
36001W        W79095  25.580  18.955   2.838 -0.1963  0.0313 -0.1930
36002W        W79096  27.515  20.260   6.216 -0.2526  0.0266  0.1083
36003W        W79097  27.124  20.627   4.442 -0.0409  0.0218  0.2723
36004W        W79098  27.680  21.878   4.826 -0.1181  0.0507  0.2775
36005W        W79099  28.951  21.948   6.168 -0.4562 -0.2180  0.1335
36006W        W79100  28.884  17.929   4.436  0.1384 -0.0656  0.0344
36007W        W79101  29.186  20.470   6.424  0.0100  0.0558 -0.1283
36008W        W79102  25.496  19.704   3.869  0.2866  0.0491 -0.1347
36009W        W79103  28.410  17.551   4.999  0.2785  0.0905  0.0249
36010W        W79104  28.914  19.150   5.145  0.0047  0.0779 -0.3642
36011W        W79105  26.443  19.453   6.265  0.0465  0.3354 -0.3089
36012W        W79106  24.594  20.909   3.639 -0.1242  0.0947 -0.0215
36013W        W79107  26.254  19.838   2.648  0.0249 -0.1367  0.0323
36014W        W79108  26.106  20.617   5.289  0.1324  0.3070 -0.0653
36015W        W79109  26.568  18.715   6.772 -0.0009 -0.0226 -0.2611
36016W        W79110  25.983  18.847   7.509  0.3405 -0.0333  0.0717
36017W        W79111  26.156  21.573   4.092 -0.0611 -0.0542  0.0698
36018W        W79112  24.909  18.871   3.639  0.2717 -0.1743 -0.0830
36019W        W79113  28.874  19.398   4.543 -0.3725  0.0938  0.0096
36020W        W79114  25.272  19.293   4.232  0.3048 -0.0620  0.2260
36021W        W79115  25.668  18.807   5.290  0.1419 -0.3343  0.2440
36022W        W79116  27.986  21.594   4.455 -0.1962 -0.1138  0.0066
36023W        W79117  28.396  21.384   5.486  0.2892  0.3557 -0.0815
36024W        W79118  27.305  17.597   5.503 -0.5997 -0.2823  0.0515
36025W        W79119  30.481  20.228   6.983 -0.2222  0.2419  0.0518
36026W        W79120  25.272  20.920   3.078 -0.0485  0.1561 -0.2583
36027W        W79121  27.791  19.432   7.092  0.1739 -0.0866  0.0028
36028W        W79122  26.439  19.037   5.911  0.1977 -0.1000  0.1406
36029W        W79123  26.478  19.001   4.545 -0.0403  0.0432  0.0917
36030W        W79124  27.459  19.124   7.333 -0.0934  0.0788  0.1238
36031W        W79125  26.985  20.145   4.614 -0.0318 -0.2530  0.1122
36032W        W79126  26.606  23.325   3.258 -0.5594 -0.2059 -0.0490
36033W        W79127  26.219  20.631   6.347  0.3209 -0.0980 -0.0732
36034W        W79128  27.413  21.628   7.246  0.1235 -0.1508  0.1286
36035W        W79129  25.190  17.480   6.587  0.0740  0.0428  0.0434
36036W        W79130  27.999  19.762   5.372 -0.1088 -0.1693  0.0674
36037W        W79131  25.460  21.515   5.630 -0.3418  0.1681 -0.3745
36038W        W79132  28.119  20.369   2.623 -0.0112  0.0563 -0.0404
36039W        W79133  28.403  18.036   4.910 -0.1397  0.0359  0.1841
36040W        W79134  27.141  19.427   5.811  0.0764  0.1416 -0.1151
36041W        W79135  25.991  19.216   6.059 -0.2011  0.0756  0.1574
36042W        W79136  25.140  21.359   4.293  0.0669 -0.1330 -0.1044
36043W        W79137  28.830  20.744   6.198 -0.1488 -0.0111  0.2106
36044W        W79138  26.422  19.442   4.427  0.0241  0.2755  0.0709
36045W        W79139  27.490  17.075   4.378  0.2831 -0.0226  0.0417
36046W        W79140  27.545  20.021   4.612  0.2920 -0.0463 -0.3758
36047W        W79141  26.786  20.436   4.996  0.1331 -0.2251  0.2776
36048W        W79142  27.264  19.227   5.336  0.1852  0.2495 -0.1955
36049W        W79143  26.953  19.362   4.885  0.1052 -0.0579  0.1439
36050W        W79144  27.110  20.044   5.115  0.1322  0.2046 -0.1359
36051W        W79145  28.602  21.223   6.181 -0.1783  0.0053  0.0291
36052W        W79146  27.903  18.827   4.803  0.1179  0.0626  0.1727
36053W        W79147  28.118  19.131   3.943  0.1947  0.0529 -0.1187
36054W        W79148  28.877  22.745   8.032 -0.0743  0.3263 -0.2913
36055W        W79149  27.953  21.015   7.368 -0.2161 -0.1136 -0.0168
36056W        W79150  26.831  21.519   5.616 -0.2589  0.1941 -0.4234
36057W        W79151  28.630  20.992   5.704 -0.0857 -0.1047 -0.2817
36058W        W79152  26.476  19.240   5.019 -0.1212  0.3517  0.0864
36059W        W79153  27.001  20.598   3.309  0.0155  0.1825 -0.3254
36060W        W79154  26.982  19.643   5.368 -0.0784  0.2826  0.0642
36061W        W79155  27.682  19.342   6.607 -0.0074  0.1030  0.0453
36062W        W79156  26.817  19.808   5.886 -0.0337  0.4664 -0.0126
36063W        W79157  29.024  18.184   5.375  0.0082 -0.2077 -0.0476
36064W        W79158  27.532  21.110   7.161  0.1932  0.0036 -0.0154
36065W        W79159  27.498  20.360   5.112 -0.2811  0.1469 -0.0326
36066W        W79160  22.140  22.298  10.081 -0.1754  0.1054  0.0224
36067W        W79161  26.778  18.582   8.139  0.3619 -0.4879 -0.0232
36068W        W79162  29.109  19.601   7.051 -0.0250 -0.3281 -0.3687
36069W        W79163  28.512  21.156   8.031 -0.1155  0.1054 -0.0522
36070W        W79164  25.012  17.898   7.731  0.0293  0.0580 -0.1441
36071W        W79165  28.860  21.726   8.488 -0.1519 -0.1083 -0.3104
36072W        W79166  27.718  20.851   9.062 -0.1906  0.2724 -0.0108
36073W        W79167  25.871  21.203   9.300  0.1252 -0.1503  0.1431
36074W        W79168  27.744  21.520   6.233  0.2228  0.0817  0.2975
36075W        W79169  25.376  19.516   9.780 -0.0323  0.4128 -0.1265
36076W        W79170  26.132  17.159   7.993 -0.2968  0.3308  0.6663
36077W        W79171  25.494  16.256   9.395  0.0859  0.3971 -0.0724
36078W        W79172  27.374  20.143   9.229 -0.1393  0.2777  0.0523
36079W        W79173  24.327  19.334   9.074 -0.0674 -0.2313  0.0059
36080W        W79174  26.475  18.633  10.396 -0.1646 -0.0541  0.0811
36081W        W79175  25.041  19.782   9.390 -0.0785  0.0718  0.0607
36082W        W79176  27.394  21.762   7.741 -0.0996  0.0744 -0.0499
36083W        W79177  25.666  18.840  10.358  0.0938 -0.1665  0.0763
36084W        W79178  27.783  19.833   8.390  0.0099  0.1409 -0.1685
36085W        W79179  24.285  19.749   8.298  0.0552  0.0339  0.1415
36086W        W79180  25.026  18.870   9.657 -0.1429 -0.0508  0.1052
36087W        W79181  25.766  19.158   8.916  0.0631  0.2225 -0.3487
36088W        W79182  27.750  18.726   9.541  0.1702  0.1127  0.0430
36089W        W79183  28.602  20.698   8.729  0.1208  0.0464  0.2337
36090W        W79184  25.468  20.911   9.530  0.1133 -0.2231 -0.0707
36091W        W79185  27.800  21.783   9.652  0.4199 -0.0096 -0.2072
36092W        W79186  23.893  18.082   9.384  0.0892 -0.0424  0.4217
36093W        W79187  25.061  20.323   9.264 -0.0904 -0.2854  0.3864
36094W        W79188  25.312  20.516   8.058 -0.1993  0.1519 -0.1620
36095W        W79189  29.600  21.501   7.832  0.1191  0.3811 -0.1601
36096W        W79190  24.676  19.389   8.170 -0.1542 -0.0097 -0.0085
36097W        W79191  27.081  20.573   9.490 -0.3346  0.3652 -0.2449
36098W        W79192  25.776  19.698   8.089  0.0415  0.2320 -0.4180
36099W        W79193  27.500  21.458   8.112  0.3265 -0.1298 -0.1367
36100W        W79194  26.522  21.166   8.272 -0.1597 -0.0645  0.1236
36101W        W79195  24.673  20.252   9.609 -0.1670  0.0548 -0.0769
36102W        W79196  25.607  20.633   8.477 -0.2390  0.3170 -0.1079
36103W        W79197  27.849  19.520   7.599 -0.1188 -0.1310  0.3436
36104W        W79198  28.385  19.209   6.948 -0.0767 -0.1310 -0.0689
36105W        W79199  27.943  18.057   6.602 -0.0741  0.1176 -0.3552
36106W        W79200  25.900  18.549   9.792 -0.1035  0.1591 -0.1399
36107W        W79201  25.709  20.947  10.001  0.0379 -0.0457 -0.1019
36108W        W79202  27.383  18.728   8.937  0.0343  0.1975  0.0875
36109W        W79203  28.151  20.531   8.913  0.1180  0.0101 -0.1290
36110W        W79204  27.841  20.111   8.780  0.1495  0.3930  0.0100
36111W        W79205  25.321  18.286  10.239 -0.2991  0.1585  0.0502
36112W        W79206  25.616  18.134   9.756  0.0747  0.1715 -0.0074
36113W        W79207  28.732  20.409   6.692  0.1353 -0.1206 -0.0532
36114W        W79208  28.281  21.273   9.151  0.1319 -0.0520 -0.0692
36115W        W79209  27.899  22.251   7.783  0.0413  0.3003  0.1114
36116W        W79210  26.888  20.309   7.938  0.1270 -0.0169 -0.0139
36117W        W79211  26.093  18.804   7.005 -0.2084 -0.0897 -0.0807
36118W        W79212  28.166  19.017   9.628 -0.2274 -0.2840  0.2375
36119W        W79213  26.009  21.755   9.322 -0.0166 -0.0877  0.0773
36120W        W79214  28.762  19.123   9.844 -0.1313 -0.0403 -0.0788
36121W        W79215  28.249  20.850   6.261  0.0111  0.0702 -0.0368
36122W        W79216  26.359  18.989   9.052  0.0227  0.3516 -0.0475
36123W        W79217  26.299  19.418   9.406 -0.2400  0.1312  0.2425
36124W        W79218  25.954  20.222   5.523  0.2140  0.2157  0.2406
36125W        W79219  26.705  20.776   7.006 -0.0812  0.0396  0.0669
36126W        W79220  27.530  20.804   9.537 -0.0654  0.0287  0.1893
36127W        W79221  28.239  20.349   7.180 -0.2637 -0.0197 -0.3011
36128W        W79222  24.960  22.776   9.913  0.0271  0.0035 -0.0431
36129W        W79223  25.578  21.273   7.883  0.2918 -0.1399 -0.3942
36130W        W79224  24.762  20.982  10.277  0.0314  0.0657  0.2593
36131W        W79225  25.929  20.533   6.939  0.3543 -0.1066 -0.1051
36132W        W79226  22.971  19.416  10.143  0.1265 -0.1300  0.0443
36133W        W79227  25.908  19.873   8.954  0.1033  0.1658 -0.1776
36134W        W79228  27.642  18.400   9.174  0.1127 -0.1115 -0.5916
36135W        W79229  27.632  17.687   8.844  0.1379  0.2538  0.3422
36136W        W79230  24.627  20.722   9.652  0.0771  0.0467 -0.0150
36137W        W79231  28.593  21.768   9.118  0.1520  0.3423 -0.0434
36138W        W79232  28.306  19.239   7.442  0.2207 -0.0021 -0.1346
36139W        W79233  28.795  21.717   7.008 -0.4732  0.1391 -0.2963
36140W        W79234  24.388  20.537  10.016 -0.1564 -0.2180 -0.3010
36141W        W79235  26.036  18.957   8.005 -0.2759 -0.1685 -0.0759
36142W        W79236  26.992  19.852   8.722 -0.0306 -0.0712  0.0480
36143W        W79237  26.490  18.108   7.954  0.0911  0.1677  0.1664
36144W        W79238  28.071  19.747   9.587 -0.3758 -0.0838 -0.1182
36145W        W79239  25.370  19.277   8.599 -0.0195 -0.1248  0.1977
36146W        W79240  26.201  19.813   7.914 -0.0099  0.2200  0.2021
36147W        W79241  26.779  21.915   8.995 -0.2777 -0.0187 -0.0996
36148W        W79242  26.776  22.149   9.489  0.0011 -0.1073 -0.2830
36149W        W79243  26.307  20.832   7.548 -0.3265  0.0862  0.2252
36150W        W79244  27.215  18.704   9.393 -0.4142 -0.1359 -0.0840
36151W        W79245  25.873  17.492   7.364 -0.1819 -0.0062  0.2319
36152W        W79246  25.904  20.587   9.194 -0.1221  0.1249 -0.0027
36153W        W79247  26.404  22.187   9.133  0.1704 -0.2686  0.2238
36154W        W79248  26.283  17.658   8.041  0.0479 -0.1778 -0.1403
36155W        W79249  27.545  21.962   8.387  0.2501  0.0317 -0.2350
36156W        W79250  28.574  20.044   8.072 -0.2594 -0.3460 -0.1177
36157W        W79251  29.061  21.276   9.840  0.3454 -0.2744 -0.0592
36158W        W79252  28.204  20.153   8.440 -0.0964 -0.1359 -0.0997
36159W        W79253  25.285  16.250   8.147  0.1525 -0.0773 -0.2972
36160W        W79254  27.317  22.596   7.119  0.1589  0.1408 -0.1994
36161W        W79255  25.589  20.246   7.349  0.1220 -0.0228 -0.0048
36162W        W79256  25.122  19.300   7.247 -0.2577  0.0321  0.3099
36163W        W79257  25.852  20.921   8.826  0.0538 -0.0380  0.0866
36164W        W79258  28.156  19.363   9.232  0.2367  0.1250  0.2771
36165W        W79259  25.623  19.612   7.196  0.2608 -0.1594 -0.0962
36166W        W79260  27.282  17.335   8.639  0.2446  0.0198 -0.0768
36167W        W79261  29.260  18.375   7.558  0.0770 -0.1782  0.0188
36168W        W79262  28.942  20.906   8.324  0.1761 -0.1228 -0.0063
36169W        W79263  28.507  19.081   6.446  0.2109 -0.1959 -0.1011
36170W        W79264  27.922  19.422   8.698  0.0052  0.1862  0.2595
36171W        W79265  26.347  21.136   8.735  0.1134 -0.0461 -0.2216
36172W        W79266  26.725  19.429   9.002  0.0992  0.1413 -0.1054
36173W        W79267  28.223  18.693   7.270 -0.3537  0.0058 -0.1776
36174W        W79268  28.009  21.790   8.090  0.0213 -0.2086  0.0616
36175W        W79269  26.151  18.082   9.646  0.0420 -0.0650 -0.1429
36176W        W79270  27.112  20.721   7.752  0.1003 -0.0827  0.2938
36177W        W79271  25.889  18.120  10.197 -0.1779 -0.5056 -0.4531
36178W        W79272  26.177  19.639   7.429 -0.1377 -0.2769 -0.1183
36179W        W79273  26.909  18.486   7.602  0.1681  0.4007  0.0867
36180W        W79274  24.816  21.935   7.631 -0.1562 -0.1511  0.0972
36181W        W79275  27.560  19.436  10.146  0.3440  0.1973  0.3785
36182W        W79276  27.778  20.421   9.274  0.2984  0.3987  0.0111
36183W        W79277  28.554  19.934   7.137 -0.0209  0.1761 -0.2558
36184W        W79278  29.182  19.890   7.445  0.1641 -0.0054  0.0746
36185W        W79279  27.009  19.472   7.814 -0.0553  0.1831 -0.1721
36186W        W79280  28.647  17.997   8.827 -0.1922  0.2788 -0.2823
36187W        W79281  26.361  21.095   9.925 -0.1738 -0.1418  0.1265
36188W        W79282  27.938  20.041   6.857 -0.0913 -0.0075 -0.2567
36189W        W79283  27.472  19.065   8.433 -0.0424 -0.1568 -0.2235
36190W        W79284  26.991  21.544   8.068 -0.3652 -0.1160  0.1305
36191W        W79285  27.741  20.589   8.654  0.4444 -0.1596 -0.2039
36192W        W79286  25.774  18.016   8.828 -0.1582  0.1056 -0.2307
36193W        W79287  26.910  20.965   8.571 -0.2799 -0.3131  0.0211
36194W        W79288  26.600  21.311   7.816 -0.0355 -0.2388  0.0898
36195W        W79289  26.559  19.858   9.312  0.0012  0.0726  0.1986
36196W        W79290  26.344  20.644   8.713  0.0228 -0.0899 -0.1942
36197W        W79291  27.758  19.062   9.063 -0.4051  0.1019 -0.0892
36198W        W79292  23.842  20.480   9.899  0.0871  0.0560  0.2871
36199W        W79293  26.878  18.187   7.161  0.0349 -0.0323 -0.4890
36200W        W79294  25.950  18.949   9.411  0.2785  0.0587 -0.1301
36201W        W79295  26.333  17.088   9.408  0.2208  0.2100  0.2582
36202W        W79296  28.787  19.528   8.137 -0.0169  0.0768  0.1471
36203W        W79297  26.070  19.286   9.811 -0.0668  0.1379 -0.1316
36204W        W79298  26.255  18.526   9.418 -0.2323 -0.1054  0.1599
36205W        W79299  23.797  20.166   9.520  0.1791 -0.5499  0.2386
36206W        W79300  28.571  18.561   7.725 -0.3173 -0.2490  0.1328
36207W        W79301  25.234  18.886   6.911  0.1166  0.1449  0.0871
36208W        W79302  26.022  18.490   8.917  0.0573 -0.2844 -0.2212
36209W        W79303  24.975  19.928   8.925 -0.3220  0.2657  0.1428
36210W        W79304  26.499  20.265   8.321  0.2456  0.1633  0.3342
36211W        W79305  26.619  20.647   9.487 -0.1264 -0.0584 -0.2531
36212W        W79306  26.688  20.720   8.155  0.1895 -0.1660 -0.3416
36213W        W79307  25.103  20.812   8.451  0.1735  0.4494  0.2280
36214W        W79308  27.743  19.834   9.916  0.0078  0.1453  0.1240
36215W        W79309  25.834  18.338   9.323 -0.0522 -0.0920  0.0654
36216W        W79310  26.224  19.411   8.759  0.1895 -0.0729  0.2064
36217W        W79311  26.260  19.377   8.171  0.2574  0.3457  0.0463
36218W        W79312  24.870  19.644   9.867  0.0118  0.1706 -0.1801
36219W        W79313  26.583  19.098   8.612  0.0539 -0.4132  0.1091
36220W        W79314  26.037  18.533  10.643 -0.4395  0.0538 -0.2153
36221W        W79315  28.747  22.252   8.093  0.0726 -0.1992  0.2646
36222W        W79316  25.383  20.031   8.023  0.4139 -0.1076 -0.3434
36223W        W79317  27.667  23.612   9.940 -0.1635  0.0513 -0.0821
36224W        W79318  26.137  20.707   8.269  0.1999 -0.1515 -0.1204
36225W        W79319  26.736  19.106   8.085 -0.1830 -0.0383  0.0285
36226W        W79320  25.509  19.978   9.431 -0.0408  0.3952 -0.0068
36227W        W79321  25.390  19.776   8.530 -0.0028 -0.3524  0.0944
36228W        W79322  24.223  20.480   8.281  0.2833 -0.0613 -0.4274
36229W        W79323  28.715  18.845   7.299  0.0202  0.0515 -0.1035
36230W        W79324  27.113  20.777   7.247 -0.0978  0.1891 -0.4245
36231W        W79325  26.987  19.026   7.525  0.1479 -0.0127  0.1448
36232W        W79326  27.500  19.691   7.984 -0.2581 -0.0934 -0.0869
36233W        W79327  26.374  19.668   9.816  0.3703 -0.0154 -0.2923
36234W        W79328  28.220  20.799   9.324  0.0211  0.1642  0.0622
36235W        W79329  27.133  19.252   8.759  0.0849  0.2122 -0.2014
36236W        W79330  25.474  18.231   6.965  0.1249 -0.0561 -0.2529
36237W        W79331  24.517  24.176   8.853  0.3457  0.0326 -0.0008
36238W        W79332  27.495  21.659  10.082  0.1014  0.0219 -0.2416
36239W        W79333  27.686  21.352   7.675 -0.0805 -0.1575  0.2367
36240W        W79334  27.416  20.196   9.751 -0.2185  0.2334 -0.1712
36241W        W79335  26.729  19.539   8.438  0.2856 -0.0300 -0.1324
36242W        W79336  28.446  19.453   9.671 -0.0804  0.1500  0.2052
36243W        W79337  27.754  19.962   7.309 -0.4425 -0.1181 -0.2515
36244W        W79338  26.018  20.780   9.605  0.1085 -0.0384 -0.0806
36245W        W79339  28.519  19.781   9.251 -0.1551 -0.2556  0.1504
36246W        W79340  26.190  18.033   9.096 -0.0293 -0.1189 -0.0242
36247W        W79341  27.192  19.603   9.152  0.2661  0.1488  0.0038
36248W        W79342  28.208  19.900   7.521  0.2154  0.1199 -0.3545
36249W        W79343  28.365  18.839  10.114  0.4141  0.3192  0.0193
36250W        W79344  28.700  19.173   7.713 -0.1782  0.1061 -0.0363
36251W        W79345  27.052  18.472   6.672 -0.0624  0.0375  0.2186
36252W        W79346  25.961  17.569   9.747 -0.2197  0.2170  0.0543
36253W        W79347  26.782  19.661   6.685 -0.2573  0.1124 -0.1823
36254W        W79348  28.031  20.838   7.821 -0.2997  0.1141 -0.1084
36255W        W79349  27.999  19.991   7.952  0.0887 -0.2292  0.0722
36256W        W79350  28.171  20.682   8.442  0.0118  0.2746  0.1090
36257W        W79351  24.600  18.923   8.961  0.2705 -0.0782  0.0790
36258W        W79352  26.941  19.105   7.056  0.0740  0.2208  0.2316
36259W        W79353  26.401  19.173   7.272  0.2299 -0.0157  0.1518
36260W        W79354  25.895  21.428   8.822  0.2186 -0.0482  0.0392
36261W        W79355  25.555  18.568   7.330 -0.1591 -0.1148  0.2061
36262W        W79356  25.387  19.674   9.008  0.1075 -0.1033  0.1883
36263W        W79357  29.386  17.804   9.321 -0.0049  0.1556  0.1366
36264W        W79358  26.821  23.323   9.324  0.3226 -0.5141  0.0322
36265W        W79359  25.431  21.179   8.972  0.1985  0.0819  0.1938
36266W        W79360  26.578  18.362   9.056 -0.2138 -0.0479  0.1423
36267W        W79361  29.316  19.366  10.060  0.1988  0.0817 -0.2764
36268W        W79362  26.679  19.780   8.007  0.1970  0.1287  0.0890
36269W        W79363  26.459  19.985   8.865  0.0316 -0.2385 -0.4864
36270W        W79364  28.679  19.847   8.701 -0.1928  0.1575 -0.2239
36271W        W79365  23.273  21.430   9.672 -0.2859  0.1079 -0.0535
36272W        W79366  28.981  21.345   8.142 -0.0617 -0.0804  0.1301
36273W        W79367  26.290  18.542   8.082 -0.0744 -0.2559 -0.0243
36274W        W79368  27.844  20.401   8.193  0.0989  0.4333 -0.0008
36275W        W79369  25.101  19.153  10.037  0.0362  0.0317  0.0045
36276W        W79370  25.249  20.263   8.496  0.1348 -0.0357 -0.2341
36277W        W79371  27.295  20.779   6.769  0.2394 -0.0730 -0.0688
36278W        W79372  26.608  19.914   7.544 -0.2045  0.0100  0.1683
36279W        W79373  25.980  22.272   9.419  0.1654  0.0368 -0.0288
36280W        W79374  26.857  19.587   7.272 -0.0576  0.1257 -0.2046
36281W        W79375  25.399  21.201   7.439  0.1863  0.0475 -0.1168
36282W        W79376  24.032  21.834   7.454  0.0038 -0.0709  0.0993
36283W        W79377  28.008  21.215   8.230 -0.0953 -0.1111  0.0447
36284W        W79378  25.144  20.947   9.893  0.2714  0.1456 -0.1807
36285W        W79379  28.923  18.348   7.015  0.3608 -0.3185 -0.0248
36286W        W79380  27.743  19.658   9.170  0.3151  0.0709 -0.0464
36287W        W79381  28.377  21.077   9.702 -0.0276 -0.2362 -0.0491
36288W        W79382  25.389  18.671   9.975 -0.1757 -0.3904 -0.0193
36289W        W79383  27.023  18.905   8.458  0.2054 -0.0746  0.4286
36290W        W79384  27.541  20.822   7.560 -0.0928 -0.0920  0.2222
36291W        W79385  24.622  18.577   7.665 -0.0052 -0.1302 -0.0410
36292W        W79386  24.918  19.387   9.020 -0.1173  0.0994 -0.0160
36293W        W79387  27.831  18.447   8.704  0.2511  0.0895 -0.0067
36294W        W79388  28.269  21.642   8.715 -0.1376 -0.3410 -0.1034
36295W        W79389  27.454  19.699   9.566 -0.1467  0.0308  0.2474
36296W        W79390  26.750  20.471   7.462 -0.1645  0.1768 -0.1398
36297W        W79391  26.683  21.323   9.011 -0.0024  0.0780 -0.0186
36298W        W79392  23.807  21.785   8.453 -0.0362  0.2540 -0.2259
36299W        W79393  24.850  16.620   7.532  0.2414 -0.1634  0.0669
36300W        W79394  28.170  18.501   8.351  0.0630  0.3611  0.3519
36301W        W79395  26.820  19.454   9.725  0.0166 -0.1491  0.2910
36302W        W79396  24.644  20.156   8.616  0.0921  0.4301  0.2305
36303W        W79397  28.280  18.883   9.181  0.1432 -0.0778  0.1452
36304W        W79398  26.330  20.346   9.180  0.3212 -0.1934 -0.0885
36305W        W79399  25.321  18.452   9.523  0.0412 -0.0222 -0.3901
36306W        W79400  28.230  18.900   7.956  0.1619 -0.2110 -0.0521
36307W        W79401  27.808  20.396   7.659 -0.1250  0.1712  0.0408
36308W        W79402  25.430  17.909   8.431  0.1720  0.4776 -0.2995
36309W        W79403  27.247  19.039   7.987  0.2166 -0.3216 -0.1323
36310W        W79404  26.548  21.637   9.501 -0.2178  0.0007  0.3098
36311W        W79405  28.383  21.894   9.892  0.0196 -0.2532 -0.1119
36312W        W79406  25.772  18.007   7.441 -0.0691 -0.0639  0.0237
36313W        W79407  28.409  21.003   7.496 -0.0374  0.2368  0.3504
36314W        W79408  28.420  20.451   9.687  0.1036  0.0513  0.2024
36315W        W79409  27.554  22.259   7.386 -0.0751 -0.0023  0.0718
36316W        W79410  28.276  20.382   7.817  0.1465 -0.2004 -0.0511
36317W        W79411  27.791  21.466  10.461 -0.4565  0.1625  0.1756
36318W        W79412  25.345  18.247   8.841 -0.4472  0.2305  0.2124
36319W        W79413  28.793  22.264   9.603  0.1004 -0.0152  0.6077
36320W        W79414  28.711  21.308   9.409  0.0917  0.3524  0.1669
36321W        W79415  27.473  17.920   9.292  0.2504  0.1957 -0.0644
36322W        W79416  25.960  18.043   7.942  0.0661  0.1025 -0.0841
36323W        W79417  25.027  21.018   9.418  0.3025  0.1455  0.2705
36324W        W79418  27.182  20.569   8.245  0.2035  0.3435 -0.1438
36325W        W79419  26.265  19.715   6.624 -0.2059  0.2313  0.0969
36326W        W79420  28.130  20.111   9.251  0.1008 -0.1542  0.1775
36327W        W79421  25.133  19.780   6.979  0.0367 -0.2391  0.0198
36328W        W79422  27.110  19.904   8.231  0.3388 -0.1177 -0.0393
36329W        W79423  26.674  21.523   6.137 -0.1932 -0.0981  0.1710
36330W        W79424  26.860  20.402   8.647 -0.1107  0.0899 -0.1045
36331W        W79425  27.084  18.657   7.133 -0.0230 -0.0395 -0.0622
36332W        W79426  28.020  20.758   9.770  0.2481  0.1553 -0.5638
36333W        W79427  25.844  17.162   9.212 -0.0327  0.0020  0.1193
36334W        W79428  27.938  17.736   8.458 -0.1328 -0.0029  0.0810
36335W        W79429  27.737  18.083   7.719 -0.0966  0.0410  0.0770
36336W        W79430  27.379  19.009   9.798 -0.2122 -0.0513 -0.1516
36337W        W79431  25.218  18.226   7.423 -0.2494  0.3149  0.2696
36338W        W79432  26.467  19.330   7.723  0.1619 -0.0480  0.2447
36339W        W79433  25.655  19.443   9.345 -0.0015  0.0534  0.1109
36340W        W79434  26.885  20.243   9.125 -0.1161 -0.2954  0.1882
36341W        W79435  26.652  17.220   7.964  0.0604  0.1802  0.4761
36342W        W79436  29.045  20.138   8.848  0.2288  0.0166  0.0022
36343W        W79437  24.458  18.808   9.965 -0.0291 -0.1474  0.0418
36344W        W79438  25.247  17.774   8.891 -0.2796 -0.1940  0.0109
36345W        W79439  27.618  20.846   8.089 -0.0280 -0.2332 -0.1618
36346W        W79440  27.459  20.200   7.880  0.1737 -0.1621 -0.1600
36347W        W79441  26.423  18.465   8.591 -0.0082  0.0292 -0.2568
36348W        W79442  25.746  20.545   6.434  0.3557  0.0586 -0.2493
36349W        W79443  25.284  16.773   7.892  0.1153  0.2962 -0.1860
36350W        W79444  28.292  19.629   8.373 -0.3328  0.1820  0.3425
36351W        W79445  26.335  21.096   9.348 -0.1769  0.0811 -0.0914
36352W        W79446  27.050  21.932   8.412  0.2611  0.1114 -0.0838
36353W        W79447  25.113  17.372   8.516 -0.0271 -0.1100 -0.0714
36354W        W79448  27.993  21.096   8.700  0.2438 -0.0060  0.0223
36355W        W79449  29.364  20.310   8.291  0.3442  0.1386  0.0795
36356W        W79450  27.820  17.340   9.942  0.1659  0.0074 -0.0560
36357W        W79451  27.443  19.647   8.707 -0.1981 -0.0030 -0.1549
36358W        W79452  28.457  22.580   9.517  0.0873 -0.2258 -0.4753
36359W        W79453  25.952  18.372   8.445  0.2866  0.0490  0.2350
36360W        W79454  27.749  18.758   8.050  0.3329 -0.1271 -0.1285
36361W        W79455  27.385  20.199   8.586  0.2517  0.1434  0.2680
36362W        W79456  25.484  19.035   9.638  0.1367 -0.0285 -0.2694
36363W        W79457  27.308  20.298   7.375 -0.1126 -0.2605 -0.0630
36364W        W79458  26.061  20.306   8.667  0.0273  0.2565 -0.3185
36365W        W79459  27.091  19.924   7.689 -0.1334 -0.1715 -0.0161
36366W        W79460  29.530  19.836   6.649  0.0592  0.0056 -0.0473
36367W        W79461  25.509  21.426   9.631 -0.1871 -0.0778 -0.0132
36368W        W79462  26.717  23.641   9.643  0.0557  0.0708  0.2279
36369W        W79463  28.782  20.871   9.732 -0.0146  0.1015  0.0634
36370W        W79464  26.897  18.423  10.181  0.0279 -0.0031 -0.2272
36371W        W79465  26.104  19.805   8.442  0.0504 -0.1663 -0.0384
36372W        W79466  27.181  19.451   8.301 -0.4468  0.1130 -0.2051
36373W        W79467  27.261  20.548   8.945  0.2938 -0.1827  0.0278
36374W        W79468  25.152  18.654   8.681  0.0775  0.4332  0.2109
36375W        W79469  27.745  18.157   8.222  0.3584 -0.0828  0.0867
36376W        W79470  25.498  21.672   9.162  0.0073  0.4539 -0.0703
36377W        W79471  26.768  20.749   9.016 -0.0562 -0.1048  0.1790
36378W        W79472  26.408  24.517   1.770  0.0807 -0.0206 -0.1107
36379W        W79473  25.148  23.599   0.812 -0.0109 -0.3070 -0.1453
36380W        W79474  28.449  22.363   0.267  0.1045  0.0151  0.0962
36381W        W79475  30.565  23.221   0.252 -0.0153  0.2007  0.3621
36382W        W79476  25.153  22.059   1.228  0.0139  0.0973 -0.2318
36383W        W79477  28.727  26.099   0.286 -0.0178 -0.0232  0.1085
36384W        W79478  25.886  21.162   3.979  0.2322  0.1173 -0.1365
36385W        W79479  26.275  25.309   1.193 -0.0368 -0.1386 -0.0802
36386W        W79480  28.225  23.918   3.064 -0.1790 -0.4804 -0.2154
36387W        W79481  27.868  25.277   0.192 -0.2139 -0.0345 -0.0243
36388W        W79482  27.460  22.576   1.037  0.0057  0.1328 -0.0151
36389W        W79483  26.548  25.796   4.616  0.0469  0.3065  0.0746
36390W        W79484  27.393  23.070   1.228  0.3132  0.1785 -0.0910
36391W        W79485  25.992  22.011   2.336 -0.2990  0.0218 -0.3562
36392W        W79486  26.507  25.110   1.785  0.0964 -0.2680  0.1358
36393W        W79487  24.952  23.775   0.153  0.0932 -0.1483 -0.1362
36394W        W79488  27.013  23.935   1.196  0.1456  0.1367 -0.3951
36395W        W79489  26.254  23.583   0.705 -0.0784  0.1971  0.2542
36396W        W79490  26.150  25.852   2.042 -0.0894 -0.2454  0.1745
36397W        W79491  26.540  22.681   1.662  0.0509  0.2356  0.2487
36398W        W79492  27.324  21.751   2.581  0.2936  0.1056  0.0727
36399W        W79493  26.590  25.778   0.586 -0.2442 -0.2226  0.1552
36400W        W79494  27.023  22.853  30.941  0.1324 -0.2107  0.3200
36401W        W79495  26.026  23.943   2.465  0.0719 -0.2362  0.1222
36402W        W79496  27.545  23.977   1.284 -0.1639 -0.0651  0.0740
36403W        W79497  27.018  23.298   1.465  0.0744 -0.1125 -0.1259
36404W        W79498  29.555  24.491   1.814 -0.0543  0.0746  0.3432
36405W        W79499  26.083  26.222   1.624  0.1266  0.0029  0.1737
36406W        W79500  29.278  25.971   1.668  0.2116  0.1303 -0.0687
36407W        W79501  27.993  22.720   3.005  0.1582  0.0363  0.2273
36408W        W79502  26.188  25.501   1.673 -0.3198  0.2039 -0.0482
36409W        W79503  25.353  25.700   1.446  0.2445 -0.1490 -0.0584
36410W        W79504  27.121  25.159   1.653  0.0172  0.1926  0.1822
36411W        W79505  28.962  24.123   2.743  0.1596  0.1615 -0.0649
36412W        W79506  28.365  24.037   3.580 -0.0419 -0.2587  0.3312
36413W        W79507  27.014  27.749   3.894 -0.2916 -0.2404  0.0654
36414W        W79508  26.158  23.925  31.829  0.0479  0.0350  0.4880
36415W        W79509  27.707  24.775   2.728 -0.1082 -0.1102  0.2571
36416W        W79510  26.425  25.419   3.574 -0.3392 -0.1621 -0.5002
36417W        W79511  26.976  22.830   1.936  0.0577  0.1312  0.2461
36418W        W79512  27.392  24.734   1.725  0.1963  0.0622  0.1033
36419W        W79513  26.304  24.466   1.158  0.2739  0.1589 -0.0563
36420W        W79514  28.229  24.447   3.443 -0.3678 -0.0757 -0.0650
36421W        W79515  26.990  24.500   2.585 -0.1819 -0.1263 -0.2027
36422W        W79516  25.471  25.006   2.567  0.2042 -0.0662  0.0441
36423W        W79517  28.795  22.707   4.182 -0.0472 -0.0824 -0.1136
36424W        W79518  27.508  25.519  31.914  0.3061  0.1346 -0.5531
36425W        W79519  28.025  23.011  31.728 -0.0843  0.4309  0.1747
36426W        W79520  26.473  22.685   0.827  0.2971  0.1765 -0.0086
36427W        W79521  26.614  22.417   1.227  0.0822 -0.1103  0.0489
36428W        W79522  26.840  21.800   1.299 -0.0164  0.2353 -0.0790
36429W        W79523  26.346  25.955   4.155 -0.2614  0.0940  0.1219
36430W        W79524  26.490  22.466   3.850 -0.2495  0.0010 -0.0667
36431W        W79525  28.990  24.845   3.775  0.1305 -0.0790 -0.2305
36432W        W79526  27.681  25.242   0.764 -0.0284 -0.2910 -0.0137
36433W        W79527  27.521  22.865   2.924 -0.0750  0.0315  0.1440
36434W        W79528  26.027  26.312   3.214  0.0289  0.2723 -0.3306
36435W        W79529  25.655  24.752   2.106 -0.2952  0.0717  0.1513
36436W        W79530  27.840  27.607   1.301 -0.2382  0.0063  0.0393
36437W        W79531  26.667  24.851   2.400 -0.0616 -0.1206 -0.0652
36438W        W79532  27.105  25.423   0.895  0.0605  0.0328 -0.4957
36439W        W79533  25.114  23.898   1.251 -0.2932 -0.1463 -0.2267
36440W        W79534  25.192  24.927   4.403 -0.2648 -0.0710 -0.0913
36441W        W79535  25.701  24.772   3.393 -0.0924  0.0210  0.0717
36442W        W79536  27.459  20.941   0.613  0.1700 -0.2079 -0.4873
36443W        W79537  29.491  24.729   3.236  0.2208  0.0289 -0.1979
36444W        W79538  25.312  25.497   4.478 -0.2749  0.0772  0.0679
36445W        W79539  28.004  24.220   1.069 -0.0639  0.2229 -0.2514
36446W        W79540  25.787  25.159   1.807  0.3667  0.2830  0.0850
36447W        W79541  26.587  25.340   2.505  0.2646  0.1674 -0.1152
36448W        W79542  28.003  24.772  31.651 -0.0322  0.2029 -0.1846
36449W        W79543  28.295  23.521   1.577  0.0018  0.1666  0.0901
36450W        W79544  26.916  22.783   2.558 -0.0227 -0.2032  0.0153
36451W        W79545  26.351  24.321   0.095  0.0038 -0.1248 -0.1064
36452W        W79546  26.777  24.174   1.779  0.1340 -0.1000 -0.1473
36453W        W79547  28.647  24.506   3.730 -0.1402  0.2138 -0.0715
36454W        W79548  29.767  24.237   0.818 -0.1453 -0.0348  0.3128
36455W        W79549  26.287  24.959   3.793 -0.0438  0.0705  0.2037
36456W        W79550  27.158  24.966   2.560 -0.3231  0.0518  0.1373
36457W        W79551  26.588  23.822   3.467 -0.1800  0.0624 -0.0562
36458W        W79552  26.935  25.384  31.949 -0.3140  0.4073  0.1132
36459W        W79553  25.256  22.429   0.727  0.2405 -0.4264  0.2560
36460W        W79554  26.505  26.730   0.980 -0.0982 -0.0088  0.1666
36461W        W79555  26.104  21.749   1.638 -0.0838  0.1204  0.1102
36462W        W79556  27.193  23.941   2.653 -0.1530 -0.1309 -0.0259
36463W        W79557  27.791  23.037   0.942  0.1502  0.0250 -0.0164
36464W        W79558  24.849  22.138   2.790  0.1291  0.2164 -0.1287
36465W        W79559  27.779  21.543   1.784  0.0216 -0.0525 -0.2514
36466W        W79560  24.581  24.199   2.190 -0.0493 -0.0994  0.0318
36467W        W79561  28.391  25.986   2.301  0.2127  0.1315  0.0507
36468W        W79562  28.351  24.364   1.555 -0.0028 -0.0085  0.4065
36469W        W79563  27.053  25.775   0.368  0.1595  0.1042  0.1481
36470W        W79564  25.749  25.901   3.460  0.1084  0.4447 -0.0641
36471W        W79565  25.280  22.706   1.358  0.0560  0.1562  0.1082
36472W        W79566  27.052  23.251   4.130  0.0431 -0.0325 -0.2185
36473W        W79567  25.098  22.279   2.209  0.0237  0.1579 -0.0022
36474W        W79568  28.105  23.589   3.576  0.1751  0.0389 -0.1271
36475W        W79569  24.453  23.835  31.874 -0.1090  0.2737 -0.1786
36476W        W79570  27.821  23.539   1.190  0.0095 -0.0311  0.0901
36477W        W79571  26.587  23.897   0.897  0.1668  0.0524  0.2473
36478W        W79572  25.275  24.545   2.541  0.1116  0.0830  0.0056
36479W        W79573  29.561  22.461   3.619  0.0204  0.0462 -0.0929
36480W        W79574  28.588  25.185   1.310  0.1934 -0.0226 -0.4540
36481W        W79575  29.437  25.402   2.303  0.0269  0.3321 -0.2973
36482W        W79576  27.162  25.675   1.515 -0.0816  0.0347  0.0034
36483W        W79577  25.206  24.358   3.960  0.1991  0.4022  0.0221
36484W        W79578  24.804  22.093  31.869  0.0394  0.1941  0.0180
36485W        W79579  25.341  25.039   1.647  0.0102 -0.4379  0.0266
36486W        W79580  26.043  24.226   1.520  0.1711  0.1766 -0.1889
36487W        W79581  25.206  23.044   0.941 -0.2108  0.3800 -0.5905
36488W        W79582  28.915  25.588   1.449  0.0512 -0.2105 -0.0008
36489W        W79583  29.172  24.695   1.330 -0.1279 -0.0246  0.2603
36490W        W79584  26.153  24.401   2.609  0.2202 -0.1845 -0.0638
36491W        W79585  27.108  23.384   1.950  0.1331  0.2165  0.1204
36492W        W79586  27.358  23.862   3.107 -0.1059  0.1045 -0.0684
36493W        W79587  27.036  24.091   2.175  0.2253  0.0054  0.1367
36494W        W79588  26.399  21.991   0.073  0.0301  0.1917 -0.1486
36495W        W79589  26.608  26.097   1.804 -0.0960 -0.1688 -0.1453
36496W        W79590  25.966  24.772   0.883  0.0381  0.1633 -0.2093
36497W        W79591  25.677  23.568   1.680  0.1823  0.2954  0.1028
36498W        W79592  27.994  25.330   1.238 -0.4852  0.1535 -0.2379
36499W        W79593  27.821  22.478   2.588  0.0837  0.0090 -0.0550
36500W        W79594  25.878  25.075   2.990  0.0734  0.1231  0.1914
36501W        W79595  27.023  24.227   2.972  0.2216  0.3306 -0.1300
36502W        W79596  26.192  24.382  31.604 -0.4213 -0.0292  0.0429
36503W        W79597  26.122  23.370   3.209  0.0133  0.3632 -0.1830
36504W        W79598  26.085  22.312   0.997 -0.1183  0.2914 -0.2239
36505W        W79599  28.289  22.746   1.165 -0.3035 -0.0097 -0.1730
36506W        W79600  26.788  25.064   3.807  0.1013 -0.1128 -0.0035
36507W        W79601  28.286  24.772   2.462 -0.3130 -0.0430  0.0615
36508W        W79602  27.171  22.311   0.708 -0.2367  0.0365  0.0502
36509W        W79603  26.915  22.435  31.223 -0.1791  0.0853  0.0182
36510W        W79604  26.578  24.097   3.964  0.3096 -0.0800 -0.1474
36511W        W79605  27.891  24.526   1.864 -0.1748 -0.0403  0.2671
36512W        W79606  26.378  25.891   1.398 -0.1931  0.1984  0.1412
36513W        W79607  27.670  23.940   0.796 -0.1670 -0.1106  0.2002
36514W        W79608  29.062  24.468   0.448 -0.1883  0.0338 -0.3987
36515W        W79609  26.168  23.355   2.547 -0.0896  0.0056  0.1463
36516W        W79610  27.919  23.729   4.358  0.1870 -0.0882 -0.2893
36517W        W79611  28.820  25.651   0.336  0.2952 -0.1583  0.0659
36518W        W79612  26.691  23.143   2.336  0.0116 -0.1816  0.0625
36519W        W79613  26.610  23.507  31.513  0.1197 -0.0594  0.0628
36520W        W79614  26.195  23.092   0.940 -0.1578  0.2115  0.3741
36521W        W79615  25.642  24.885  31.892 -0.0670  0.1798  0.0107
36522W        W79616  28.783  24.176   3.321  0.0978 -0.2457 -0.2598
36523W        W79617  26.966  22.689   0.994 -0.3906  0.0082  0.3252
36524W        W79618  26.989  22.099   2.332  0.1576 -0.2673  0.0142
36525W        W79619  27.838  23.587   3.166  0.1374  0.0996 -0.2109
36526W        W79620  27.445  22.892   1.719  0.0766  0.0763 -0.2934
36527W        W79621  26.617  23.155   1.749  0.0048 -0.2280  0.2466
36528W        W79622  25.671  23.174  31.398 -0.1420 -0.0699  0.2599
36529W        W79623  27.554  22.045   1.827 -0.3127  0.0916  0.4170
36530W        W79624  25.225  25.193   2.956 -0.1538  0.0376 -0.0575
36531W        W79625  24.476  25.508   2.678 -0.1138  0.2692  0.1909
36532W        W79626  26.937  26.081   2.566 -0.0730 -0.1397  0.0901
36533W        W79627  27.427  24.185   1.847  0.0869  0.1382  0.2437
36534W        W79628  26.594  23.656   2.362 -0.1084  0.0943 -0.1465
36535W        W79629  27.316  23.522   1.150  0.1426  0.2559  0.2794
36536W        W79630  26.439  25.325   0.185 -0.0300  0.0581 -0.0273
36537W        W79631  26.276  24.925   0.495 -0.0958 -0.1317  0.2035
36538W        W79632  26.314  22.929   2.122 -0.0637  0.1301  0.0354
36539W        W79633  25.826  25.427   2.672 -0.1358  0.4111  0.3883
36540W        W79634  26.530  24.916   1.008 -0.0848 -0.3298  0.3032
36541W        W79635  28.490  23.678   2.666  0.1393  0.0727 -0.0442
36542W        W79636  24.264  24.691   1.070 -0.0441  0.1316  0.1194
36543W        W79637  27.603  23.798   3.586  0.3627  0.0576  0.0598
36544W        W79638  25.214  23.985   2.664  0.0959  0.0690 -0.1272
36545W        W79639  25.634  22.709   0.801 -0.0366 -0.1534 -0.0410
36546W        W79640  25.120  24.279  31.899 -0.0521 -0.3393 -0.1387
36547W        W79641  27.325  22.815   0.642 -0.2665 -0.1441 -0.1139
36548W        W79642  27.994  24.321   2.777  0.0587  0.0979 -0.0532
36549W        W79643  24.987  23.142   2.649  0.1300 -0.0057 -0.0932
36550W        W79644  26.231  23.205   1.422  0.0083 -0.0024  0.0655
36551W        W79645  25.668  24.192   2.783  0.3986  0.0943 -0.1368
36552W        W79646  27.845  24.123   3.274  0.3864 -0.1497 -0.1760
36553W        W79647  27.322  22.303  31.612  0.1023 -0.2434 -0.0547
36554W        W79648  26.000  25.412   3.288  0.2325 -0.1281  0.1507
36555W        W79649  27.367  24.060   5.223 -0.1890  0.2735 -0.0658
36556W        W79650  25.736  23.252   0.819 -0.1563 -0.2291 -0.0406
36557W        W79651  28.991  22.407   3.525 -0.4001 -0.2098 -0.0677
36558W        W79652  25.815  23.967   1.935 -0.2293  0.2419  0.1548
36559W        W79653  25.705  26.038   1.304  0.0221 -0.0556  0.0314
36560W        W79654  27.506  26.534   3.152 -0.2115 -0.1137  0.4034
36561W        W79655  27.016  24.872   0.962  0.1038 -0.5405 -0.0961
36562W        W79656  26.178  24.834   2.115  0.0592  0.1467  0.4360
36563W        W79657  26.233  23.373   3.929 -0.1664  0.1041  0.1919
36564W        W79658  26.146  25.319   2.213 -0.2628  0.1095  0.2253
36565W        W79659  27.893  23.738   1.861 -0.0776  0.1453 -0.0985
36566W        W79660  24.857  22.605   1.678 -0.3110 -0.1626  0.2235
36567W        W79661  27.638  24.072   2.335  0.1045  0.1565 -0.1115
36568W        W79662  27.430  24.636   2.227 -0.0588 -0.0002  0.2934
36569W        W79663  27.006  22.215   0.149 -0.0374  0.1695  0.2273
36570W        W79664  27.463  24.119   4.247 -0.0733  0.4387  0.1201
36571W        W79665  26.782  21.910   2.803  0.3813  0.1056 -0.0484
36572W        W79666  30.157  26.256   2.037  0.0546 -0.0922  0.0097
36573W        W79667  28.155  24.963   3.504  0.1947 -0.1634  0.0423
36574W        W79668  25.731  23.735   0.795 -0.3169 -0.1530 -0.0969
36575W        W79669  24.854  23.276   2.091  0.2101  0.1964  0.1940
36576W        W79670  26.223  24.889   1.442  0.3184  0.0762  0.0140
36577W        W79671  27.169  22.257   1.361  0.1866  0.0347  0.2095
36578W        W79672  25.807  23.531   2.180  0.1694  0.0846  0.1408
36579W        W79673  26.808  25.242   1.297 -0.2175 -0.2773  0.0267
36580W        W79674  25.680  25.719   1.809 -0.2883 -0.0536 -0.1128
36581W        W79675  27.939  22.453   1.071  0.0767  0.0575  0.0844
36582W        W79676  27.327  24.187   0.133 -0.1721  0.1626 -0.2370
36583W        W79677  26.614  22.950   1.238  0.0814  0.2621  0.0067
36584W        W79678  29.494  22.291   2.652  0.1612  0.4754 -0.2734
36585W        W79679  26.009  23.291   0.372  0.1163  0.1726  0.3237
36586W        W79680  29.178  23.119   2.277  0.0826  0.3017  0.0019
36587W        W79681  26.744  22.208   1.701 -0.0069 -0.0802 -0.2143
36588W        W79682  30.702  23.460   1.626 -0.1134  0.1946  0.1037
36589W        W79683  25.373  23.974   3.165  0.0048 -0.3714  0.0407
36590W        W79684  28.580  25.707   3.256 -0.3214  0.1366  0.0527
36591W        W79685  26.267  25.797   3.256  0.2342 -0.0452  0.1033
36592W        W79686  27.532  22.204   2.273 -0.0787 -0.0888  0.0549
36593W        W79687  26.509  21.565   0.477 -0.2593 -0.1487  0.2153
36594W        W79688  27.849  22.979   2.532  0.2363 -0.1300 -0.2760
36595W        W79689  29.288  25.212   1.158  0.0411 -0.1400 -0.1954
36596W        W79690  27.045  26.871   0.742 -0.2937 -0.1195 -0.0936
36597W        W79691  29.256  23.426   1.452 -0.3067  0.1451 -0.0053
36598W        W79692  27.183  23.796   1.656  0.1367  0.1423 -0.0753
36599W        W79693  28.437  23.915   1.830  0.0914 -0.1176  0.0128
36600W        W79694  27.303  25.288   0.328  0.1556  0.3178 -0.3102
36601W        W79695  26.520  24.037   1.351  0.0214 -0.0548 -0.1369
36602W        W79696  25.690  22.616   2.660 -0.1873 -0.0123  0.0411
36603W        W79697  26.926  24.664   1.975 -0.2484 -0.1654  0.2351
36604W        W79698  28.171  22.757   0.663 -0.1867 -0.2624 -0.0107
36605W        W79699  26.160  22.219   4.126 -0.2345 -0.0045 -0.0758
36606W        W79700  27.770  23.901   2.774  0.1961 -0.0861 -0.0913
36607W        W79701  26.935  23.689   3.020 -0.1507  0.2044  0.1444
36608W        W79702  26.404  22.875   3.113  0.3042 -0.4487  0.1091
36609W        W79703  27.773  24.633   3.201  0.1468  0.0619 -0.1753
36610W        W79704  29.548  24.638   0.458  0.0074  0.0044 -0.1199
36611W        W79705  28.336  23.235   2.226 -0.0283  0.2503  0.0971
36612W        W79706  30.270  25.751   1.042  0.2894 -0.2664 -0.4331
36613W        W79707  26.492  23.137   0.551  0.1613  0.0134  0.0270
36614W        W79708  25.932  22.298   0.482  0.3453  0.0326  0.0557
36615W        W79709  28.311  23.379   3.143  0.0332 -0.4010 -0.4279
36616W        W79710  25.742  22.892  31.889 -0.1086 -0.2382  0.4329
36617W        W79711  27.697  23.273   3.548 -0.0540 -0.0634  0.0693
36618W        W79712  26.293  26.187   0.483  0.2141 -0.3263 -0.1349
36619W        W79713  28.471  25.656   0.022  0.4150 -0.1040  0.1092
36620W        W79714  27.382  25.090   1.199  0.1486  0.2151 -0.0737
36621W        W79715  25.788  22.959   1.214  0.2783 -0.2031  0.6084
36622W        W79716  26.162  25.269   4.636 -0.0145 -0.0115  0.0014
36623W        W79717  26.524  23.977   0.383 -0.2214 -0.0495 -0.0139
36624W        W79718  28.142  24.685   0.444  0.1066  0.1398  0.2747
36625W        W79719  27.967  25.447   3.511  0.2746  0.0065  0.1845
36626W        W79720  27.839  23.672   5.555  0.0697 -0.1525  0.1925
36627W        W79721  28.000  22.106   0.233 -0.3574 -0.3509 -0.1624
36628W        W79722  28.798  23.270   2.601 -0.0501 -0.3490  0.1093
36629W        W79723  25.939  25.152   0.171  0.5926  0.3725 -0.1664
36630W        W79724  27.221  23.824   0.531 -0.0789  0.1481 -0.0405
36631W        W79725  26.761  26.074   3.904 -0.0718  0.3946  0.2479
36632W        W79726  26.370  24.159   3.160 -0.1854  0.1357 -0.1449
36633W        W79727  26.355  25.007   2.789 -0.3534 -0.2871  0.0337
36634W        W79728  27.218  20.581   2.364 -0.1191 -0.0542  0.1580
36635W        W79729  28.739  24.285   1.994  0.1473  0.1284  0.3658
36636W        W79730  27.892  24.957   2.108  0.0009 -0.1529 -0.3097
36637W        W79731  28.751  22.863   3.685 -0.2656  0.2468 -0.0426
36638W        W79732  27.383  24.374   3.361  0.0590 -0.3596 -0.3959
36639W        W79733  25.586  24.232   2.298  0.2044 -0.0254  0.1394
36640W        W79734  28.206  25.424   3.070 -0.1276  0.0720  0.0270
36641W        W79735  29.765  26.108   1.346  0.0103 -0.1192 -0.1606
36642W        W79736  26.099  23.922   1.088  0.2324 -0.0988 -0.1665
36643W        W79737  25.391  22.936   2.969  0.0511  0.1677 -0.1246
36644W        W79738  27.022  23.764   3.973  0.0598  0.1649  0.0686
36645W        W79739  26.563  24.357   2.257 -0.0089  0.0751  0.3289
36646W        W79740  25.994  20.864   0.738 -0.0926 -0.1228  0.3212
36647W        W79741  26.519  24.492   0.516  0.0244  0.1869 -0.0602
36648W        W79742  26.977  25.480   4.870  0.0146  0.0420 -0.0634
36649W        W79743  24.750  23.809   2.828  0.1656  0.0880  0.0742
36650W        W79744  26.603  25.879   0.108  0.1731 -0.0010 -0.3660
36651W        W79745  28.837  24.934  30.928 -0.0678  0.0323  0.2550
36652W        W79746  26.828  24.225   0.007 -0.0808  0.4568 -0.0466
36653W        W79747  27.257  25.612   2.078  0.1484 -0.2752 -0.3318
36654W        W79748  25.422  23.394   1.219 -0.0976  0.2529  0.0766
36655W        W79749  25.071  25.992   1.849 -0.1219 -0.0355 -0.1470
36656W        W79750  25.172  26.268  31.684 -0.0279  0.0014 -0.2730
36657W        W79751  28.008  25.786   0.301 -0.0630 -0.0007  0.5343
36658W        W79752  25.759  25.775   2.315 -0.0054 -0.1442  0.0975
36659W        W79753  28.781  25.582   4.021 -0.1934 -0.2073  0.2909
36660W        W79754  28.825  21.673   1.642  0.0041 -0.1050  0.0436
36661W        W79755  28.243  24.822   2.983 -0.1523 -0.4317  0.0387
36662W        W79756  27.740  22.520   1.980  0.1266 -0.1725  0.2133
36663W        W79757  27.906  25.490   4.446  0.1340  0.2180  0.0400
36664W        W79758  25.594  23.948   1.234 -0.0486 -0.2215 -0.1783
36665W        W79759  26.030  22.730  31.026 -0.2947  0.0413 -0.2093
36666W        W79760  27.759  24.434   3.679  0.0981 -0.0513  0.1152
36667W        W79761  28.786  22.482   4.625 -0.2630 -0.1858  0.0555
36668W        W79762  25.288  25.165   5.041  0.3124  0.0040  0.0025
36669W        W79763  28.248  26.490   1.521  0.0919  0.2556  0.1355
36670W        W79764  24.603  21.570   1.592 -0.1842 -0.2328  0.2771
36671W        W79765  27.014  24.827   0.466 -0.2834 -0.2151 -0.3770
36672W        W79766  27.539  21.046   2.115  0.2182  0.1362  0.1941
36673W        W79767  27.636  24.883   0.411  0.2829  0.1785  0.3216
36674W        W79768  26.675  23.692   1.647 -0.1563  0.3327  0.1077
36675W        W79769  26.643  26.624   0.527  0.0516 -0.0545 -0.1679
36676W        W79770  27.243  24.755   3.064 -0.2414  0.0175  0.0631
36677W        W79771  27.763  25.121   3.039 -0.0726 -0.0240  0.0827
36678W        W79772  24.913  22.822   0.572  0.2022  0.0378  0.0392
36679W        W79773  28.046  23.933   1.440 -0.1482 -0.0164 -0.1907
36680W        W79774  25.638  23.668   2.764 -0.2121 -0.2047  0.1856
36681W        W79775  27.660  21.961   2.857  0.0032 -0.1220  0.0219
36682W        W79776  24.617  23.777   1.102 -0.1012 -0.1945  0.0525
36683W        W79777  27.655  22.448   1.502 -0.2137 -0.0398 -0.2279
36684W        W79778  27.356  23.732   2.119 -0.1228  0.0697 -0.2934
36685W        W79779  26.145  23.733   1.582  0.0632 -0.0596  0.2034
36686W        W79780  27.980  24.405   2.295  0.0999 -0.0426 -0.1682
36687W        W79781  29.725  24.659   4.345  0.2342 -0.2498  0.0003
36688W        W79782  26.884  24.997  31.645 -0.0525  0.0839 -0.3220
36689W        W79783  29.343  25.971   4.378  0.1389  0.4037 -0.0315
36690W        W79784  26.640  23.488   1.147  0.1462 -0.1419  0.1028
36691W        W79785  28.863  24.662  31.882  0.0771 -0.4951 -0.0136
36692W        W79786  25.344  23.818   2.034 -0.2842  0.1542 -0.2389
36693W        W79787  26.342  24.007   1.940  0.1328 -0.1083  0.2473
36694W        W79788  28.342  23.729   4.074  0.1325  0.0565  0.0529
36695W        W79789  26.111  20.768   1.684 -0.1285 -0.1669 -0.3035
36696W        W79790  28.967  25.981  31.729 -0.0312 -0.3238  0.2063
36697W        W79791  27.781  23.551   2.320 -0.0839 -0.4089 -0.0073
36698W        W79792  27.619  25.679   0.566  0.1007 -0.0512  0.1671
36699W        W79793  28.566  24.295   2.505 -0.1544 -0.0696 -0.0106
36700W        W79794  29.309  25.470   1.792 -0.0837  0.0410  0.0867
36701W        W79795  24.660  22.465   2.490 -0.3987  0.1369  0.0578
36702W        W79796  28.714  25.209   3.008 -0.1019  0.1858  0.2077
36703W        W79797  27.828  25.484   2.120 -0.2402  0.1404  0.0670
36704W        W79798  29.025  22.535   1.831  0.2836 -0.0254  0.1476
36705W        W79799  25.580  22.365   2.206  0.1814  0.2228  0.0064
36706W        W79800  25.887  25.248   0.759 -0.2983  0.0071  0.2853
36707W        W79801  27.079  23.796   3.497  0.1115  0.1616  0.1038
36708W        W79802  28.424  22.744   3.240  0.0165 -0.2897  0.0309
36709W        W79803  26.448  25.270  31.648 -0.2430 -0.0719 -0.1962
36710W        W79804  27.962  24.055   3.960 -0.2390  0.3151  0.0822
36711W        W79805  28.674  25.702   5.239  0.2762  0.1524 -0.1183
36712W        W79806  27.240  25.871   3.866  0.0259  0.0686 -0.1496
36713W        W79807  25.448  24.171   1.665 -0.0238 -0.0127  0.0764
36714W        W79808  26.694  24.094   2.618  0.0142  0.0627  0.0349
36715W        W79809  26.717  25.753   2.175  0.1625 -0.0695 -0.2487
36716W        W79810  27.992  25.683  31.796  0.0307  0.1626 -0.0455
36717W        W79811  25.911  25.867   2.942 -0.1390  0.0791  0.2402
36718W        W79812  26.758  24.770   1.424 -0.3411 -0.0576  0.1947
36719W        W79813  29.353  24.672   0.004  0.1711  0.2309 -0.2850
36720W        W79814  26.388  21.967   1.247  0.0937 -0.2297  0.1965
36721W        W79815  27.765  22.511   0.549  0.3060  0.3694  0.0856
36722W        W79816  28.028  22.039   1.535  0.3512 -0.3039 -0.0942
36723W        W79817  26.438  23.787   2.910  0.2502 -0.1898  0.2269
36724W        W79818  25.389  24.507   0.259  0.2058  0.1022  0.0673
36725W        W79819  26.143  23.985  31.284 -0.2686 -0.2651 -0.1152
36726W        W79820  25.463  26.315   1.821 -0.1138  0.0970  0.1898
36727W        W79821  25.960  22.976   2.842 -0.0031 -0.2340 -0.0665
36728W        W79822  26.283  23.195   4.453 -0.0635  0.0372 -0.1105
36729W        W79823  26.321  23.478   2.005  0.2945  0.0781 -0.0500
36730W        W79824  26.072  22.447  31.967 -0.3220 -0.2800  0.0264
36731W        W79825  29.411  23.776  31.914  0.1367 -0.0536  0.2045
36732W        W79826  26.574  21.695   1.720  0.0003  0.2132 -0.1764
36733W        W79827  27.038  22.744   1.460  0.1206 -0.0317  0.4254
36734W        W79828  29.067  23.910   0.291  0.2032  0.0916 -0.1079
36735W        W79829  29.496  24.849   2.165  0.0626  0.1820  0.1601
36736W        W79830  28.491  22.063   1.663 -0.0351  0.1204  0.0729
36737W        W79831  29.103  25.661   3.059  0.1565 -0.2243 -0.1501
36738W        W79832  24.984  24.306  31.311 -0.1035 -0.2010 -0.1665
36739W        W79833  26.911  23.934   5.561  0.2535 -0.4646 -0.0509
36740W        W79834  26.842  21.536   3.174 -0.2450 -0.0383 -0.6170
36741W        W79835  26.252  23.224  31.200 -0.0713  0.0127  0.2951
36742W        W79836  27.261  23.101   2.321  0.1558  0.2101 -0.0593
36743W        W79837  27.905  24.883   1.492 -0.0826 -0.1269 -0.0091
36744W        W79838  27.391  26.409   0.732  0.2721  0.0726  0.0572
36745W        W79839  26.477  25.416   3.017  0.1567  0.2705  0.0711
36746W        W79840  27.404  25.827   3.376 -0.1176  0.0597  0.0011
36747W        W79841  25.020  21.819   2.485 -0.1149  0.0270  0.1631
36748W        W79842  29.077  24.291  31.059 -0.1020 -0.1219  0.0976
36749W        W79843  26.999  26.320   3.015  0.0215  0.2907  0.3075
36750W        W79844  28.721  23.533   1.275  0.0992  0.0656  0.0571
36751W        W79845  28.303  23.631   0.931  0.2736  0.0658  0.3268
36752W        W79846  26.988  22.718  31.798 -0.2055  0.4227  0.0999
36753W        W79847  26.712  22.495   2.189 -0.3577 -0.0825 -0.2884
36754W        W79848  25.348  25.523   2.596  0.1614 -0.0755 -0.3555
36755W        W79849  29.679  23.612   2.946  0.0724 -0.3101  0.0894
36756W        W79850  25.542  20.763   1.527 -0.0261  0.0384  0.2180
36757W        W79851  28.267  24.704   1.193 -0.2145 -0.1742 -0.0766
36758W        W79852  28.644  24.795   0.455  0.1461  0.1932  0.1015
36759W        W79853  25.823  23.610   3.830 -0.0152  0.3170  0.0371
36760W        W79854  27.212  23.052   0.235 -0.0145  0.1122 -0.2200
36761W        W79855  28.335  23.603   4.659 -0.0958  0.1221  0.1750
36762W        W79856  26.848  26.017   1.340  0.1706 -0.0453  0.0284
36763W        W79857  28.534  24.023   4.530 -0.2063  0.1533 -0.0638
36764W        W79858  27.151  24.398   1.447  0.0868  0.0839 -0.1217
36765W        W79859  29.070  24.726   1.879  0.0432  0.1801 -0.1800
36766W        W79860  28.165  24.742   3.919 -0.0793  0.1514 -0.0146
36767W        W79861  28.997  25.774   3.570 -0.1839 -0.0296 -0.1362
36768W        W79862  28.083  26.016   2.864 -0.0802 -0.2449 -0.0278
36769W        W79863  26.028  24.378   2.111 -0.1541  0.0553  0.1799
36770W        W79864  25.150  19.770   2.420 -0.1867 -0.0560  0.2521
36771W        W79865  25.624  24.421   1.122 -0.0578  0.1695  0.1933
36772W        W79866  26.769  24.385   1.026 -0.0141  0.0283  0.3713
36773W        W79867  28.112  23.929   2.344  0.2222 -0.2056  0.0729
36774W        W79868  27.511  23.447   1.627 -0.0853 -0.0271 -0.2507
36775W        W79869  27.825  23.950  31.822  0.2575 -0.1008 -0.3315
36776W        W79870  26.827  25.742   2.968 -0.2194  0.2751  0.1274
36777W        W79871  27.191  24.720   3.647 -0.3839  0.1614  0.1513
36778W        W79872  26.753  24.287   6.548  0.0607  0.1764  0.0034
36779W        W79873  26.177  24.529   3.599 -0.0312  0.3578  0.2051
36780W        W79874  28.672  23.684   3.244 -0.1936 -0.5320  0.0237
36781W        W79875  29.616  23.658   5.387  0.3067  0.0343  0.0198
36782W        W79876  25.829  23.965   4.693 -0.0969  0.3381 -0.3326
36783W        W79877  27.668  25.600   5.384  0.1492 -0.0401 -0.2156
36784W        W79878  26.887  23.108   6.033 -0.2352  0.0125 -0.0209
36785W        W79879  29.824  24.671   5.769  0.0135  0.1701 -0.0837
36786W        W79880  28.701  25.186   5.263  0.2452 -0.0149 -0.1136
36787W        W79881  28.340  24.396   4.745 -0.2477 -0.1651  0.0752
36788W        W79882  27.329  22.860   5.920 -0.1068  0.2011  0.0874
36789W        W79883  28.115  24.520   6.851  0.0148  0.1552 -0.0735
36790W        W79884  26.492  21.914   4.467  0.1967 -0.2301  0.1747
36791W        W79885  24.924  20.876   6.097  0.1183 -0.2034 -0.0698
36792W        W79886  28.449  23.039   7.817 -0.0855  0.0183  0.1154
36793W        W79887  25.523  23.970   3.727  0.3692 -0.1356 -0.1170
36794W        W79888  26.144  22.322   5.359 -0.1250 -0.3517 -0.0937
36795W        W79889  26.413  22.783   2.631  0.0207  0.0093  0.1640
36796W        W79890  27.721  25.926   6.368 -0.0428  0.1027  0.2039
36797W        W79891  26.952  21.648   6.511 -0.1712 -0.1572  0.2647
36798W        W79892  27.678  22.429   8.896 -0.0934  0.4945  0.0518
36799W        W79893  27.318  25.838   5.849  0.0315 -0.0021 -0.3808
36800W        W79894  26.126  22.488   2.956  0.0520  0.0717  0.0177
36801W        W79895  25.841  22.687   5.316 -0.1161 -0.0736 -0.0254
36802W        W79896  27.216  23.497   5.522  0.0848 -0.5094  0.0496
36803W        W79897  26.648  22.321   5.253  0.1473 -0.2722  0.1161
36804W        W79898  28.847  22.888   5.949  0.1384 -0.0657 -0.0961
36805W        W79899  27.658  24.341   6.016 -0.0016  0.1818 -0.3204
36806W        W79900  27.779  24.251   5.437 -0.5515 -0.1005  0.2413
36807W        W79901  28.114  22.612   7.592  0.3663 -0.0445 -0.1935
36808W        W79902  24.590  23.990   4.975 -0.0065 -0.2199 -0.2511
36809W        W79903  26.709  24.709   6.253  0.1706  0.1663 -0.1228
36810W        W79904  26.372  25.050   5.224  0.3680 -0.0589 -0.0944
36811W        W79905  28.486  24.798   5.665  0.0221 -0.0908  0.1274
36812W        W79906  28.624  24.522   6.550  0.4347 -0.1161 -0.1564
36813W        W79907  28.236  27.000   8.201  0.0162  0.1899 -0.2408
36814W        W79908  24.159  24.199   3.725  0.3477 -0.2396 -0.3154
36815W        W79909  27.593  24.787   6.710  0.0989  0.3576  0.2171
36816W        W79910  27.327  24.388   6.570 -0.0299  0.3933 -0.1541
36817W        W79911  26.766  23.301   7.332 -0.0242  0.0433 -0.0763
36818W        W79912  26.385  23.651   5.261 -0.1216  0.1745  0.0309
36819W        W79913  27.604  24.742   5.496 -0.0270 -0.1435  0.1032
36820W        W79914  27.945  24.732   6.418 -0.1509 -0.1054  0.1796
36821W        W79915  27.036  24.114   8.175  0.1178 -0.2666  0.0210
36822W        W79916  24.673  24.400   5.747  0.0321  0.2578 -0.0666
36823W        W79917  28.353  22.072   7.755 -0.1246 -0.0548 -0.0145
36824W        W79918  27.099  24.927   4.740  0.1794 -0.1691 -0.1165
36825W        W79919  28.146  22.996   3.559  0.3393 -0.3426 -0.1814
36826W        W79920  28.352  24.313   4.100 -0.1258  0.3125 -0.2169
36827W        W79921  27.299  22.716   3.891 -0.3366  0.1771  0.1847
36828W        W79922  26.584  20.591   5.790  0.2124  0.0527 -0.3121
36829W        W79923  27.225  25.622   6.325  0.0068 -0.0943 -0.0605
36830W        W79924  26.179  22.372   6.593  0.0989 -0.3179 -0.0755
36831W        W79925  28.444  24.247   7.148 -0.0678 -0.0917 -0.2690
36832W        W79926  28.611  23.996   5.068  0.2034  0.0597  0.2329
36833W        W79927  27.620  22.461   6.132 -0.0861  0.0225  0.1766
36834W        W79928  26.291  24.487   7.345  0.1458 -0.0446 -0.0448
36835W        W79929  24.932  23.900   5.717 -0.2964  0.0665 -0.0648
36836W        W79930  28.389  25.628   4.316  0.0306  0.0498  0.3376
36837W        W79931  28.587  26.020   3.703 -0.0251  0.0086 -0.2139
36838W        W79932  26.720  23.449   3.775 -0.0519  0.1117  0.0310
36839W        W79933  26.634  24.572   3.820  0.2302 -0.2923 -0.0346
36840W        W79934  25.695  23.579   5.753  0.0947  0.0400  0.2476
36841W        W79935  24.962  23.020   5.769  0.1485  0.2207 -0.2058
36842W        W79936  26.143  22.849   4.096 -0.0226  0.5157  0.0279
36843W        W79937  29.499  24.831   7.701 -0.2358 -0.0165 -0.0095
36844W        W79938  25.795  24.260   7.310  0.0906 -0.3066 -0.0500
36845W        W79939  27.911  21.526   7.093  0.0160  0.2765  0.1014
36846W        W79940  26.302  23.258   4.972  0.3318 -0.0237 -0.1037
36847W        W79941  27.561  24.916   6.117  0.0345 -0.0211  0.0567
36848W        W79942  28.428  24.962   4.911  0.0902  0.0757  0.0468
36849W        W79943  26.185  21.370   5.953  0.0518 -0.1501 -0.2128
36850W        W79944  28.189  21.329   6.483  0.2018 -0.0165 -0.0704
36851W        W79945  26.767  23.292   5.254  0.1394  0.0585 -0.1208
36852W        W79946  27.602  24.449   4.999  0.1944 -0.1042  0.0133
36853W        W79947  29.559  24.977   6.159 -0.0252  0.0339 -0.1689
36854W        W79948  28.603  23.546   5.908 -0.2098  0.0136 -0.0500
36855W        W79949  26.709  25.848   6.785 -0.0291  0.0236  0.0509
36856W        W79950  26.027  22.000   7.287 -0.1622 -0.0104  0.2751
36857W        W79951  27.282  26.025   6.815 -0.1126  0.0310 -0.1910
36858W        W79952  26.024  25.691   4.900 -0.1687  0.2608 -0.1609
36859W        W79953  25.650  24.718   4.241  0.5868  0.2511 -0.0750
36860W        W79954  23.986  23.596   4.607 -0.0366  0.1119  0.0663
36861W        W79955  25.822  22.200   4.963  0.1110  0.2737  0.0597
36862W        W79956  27.452  23.969   5.739 -0.0342  0.0210  0.0546
36863W        W79957  26.798  22.967   4.592  0.2082  0.0539  0.0609
36864W        W79958  26.457  21.916   7.648 -0.1651  0.0811 -0.0628
36865W        W79959  27.117  21.924   4.807 -0.1415 -0.3206 -0.0012
36866W        W79960  25.933  24.658   5.103 -0.1445  0.2934 -0.2897
36867W        W79961  27.922  25.009   4.714 -0.3239 -0.1148  0.2423
36868W        W79962  27.545  23.491   5.084  0.3068  0.1120  0.0262
36869W        W79963  29.150  22.912   4.466 -0.1649  0.1260 -0.2316
36870W        W79964  26.520  23.269   5.669 -0.2230 -0.0200 -0.1010
36871W        W79965  26.695  24.032   4.612 -0.1254 -0.2213  0.0369
36872W        W79966  25.858  22.744   6.888 -0.0963  0.0600 -0.1292
36873W        W79967  24.460  23.151   6.086  0.0235  0.3219  0.0302
36874W        W79968  29.199  22.803   7.427  0.0209  0.0197 -0.4179
36875W        W79969  25.658  22.683   3.290 -0.1595  0.3447 -0.2728
36876W        W79970  28.088  22.299   6.174 -0.0901  0.1056  0.0714
36877W        W79971  27.100  23.216   4.912 -0.0795 -0.0879 -0.0737
36878W        W79972  24.853  23.691   4.006  0.2858 -0.0338 -0.3359
36879W        W79973  29.031  23.862   8.397  0.0802  0.2187  0.0513
36880W        W79974  27.047  25.127   6.152 -0.0293 -0.2808  0.0733
36881W        W79975  28.725  24.654   7.044  0.2031  0.0170  0.3939
36882W        W79976  27.407  25.221   5.400  0.0530  0.1263  0.4960
36883W        W79977  25.859  22.116   3.293 -0.0147  0.1734 -0.1695
36884W        W79978  26.094  25.616   5.424 -0.2560 -0.0699 -0.1064
36885W        W79979  26.452  24.082   5.546 -0.0698  0.1889 -0.0792
36886W        W79980  25.398  22.437   5.220 -0.1181  0.0884 -0.3470
36887W        W79981  28.978  26.020   5.767  0.2819 -0.1564 -0.0730
36888W        W79982  27.626  23.013   4.886  0.1116 -0.0655 -0.1112
36889W        W79983  25.902  24.007   6.599  0.1964 -0.0428 -0.0472
36890W        W79984  28.087  23.690   6.525  0.0262  0.1998 -0.5440
36891W        W79985  28.932  24.122   6.636 -0.0683 -0.0368 -0.2358
36892W        W79986  27.568  22.015   5.979  0.0514 -0.4150  0.1161
36893W        W79987  26.527  23.659   4.267 -0.1347 -0.3759 -0.1727
36894W        W79988  28.607  25.269   6.076 -0.1939 -0.0904 -0.3547
36895W        W79989  23.565  24.603   4.775  0.3194  0.3180 -0.1393
36896W        W79990  26.310  23.759   4.767 -0.3913  0.0424 -0.2442
36897W        W79991  27.458  25.381   4.505 -0.0961 -0.0815 -0.3459
36898W        W79992  29.552  22.641   6.292 -0.2486 -0.0404 -0.1253
36899W        W79993  25.402  22.482   7.727 -0.2230 -0.1283 -0.4440
36900W        W79994  26.834  23.200   7.802  0.0671  0.0816 -0.0730
36901W        W79995  25.149  24.195   4.767 -0.1516 -0.1539  0.2133
36902W        W79996  25.523  23.765   6.930  0.1335  0.2561 -0.2383
36903W        W79997  27.946  20.568   5.133  0.2019  0.1773  0.1040
36904W        W79998  28.041  22.895   4.437 -0.0151  0.0045 -0.2229
36905W        W79999  26.865  23.236   8.291 -0.0473  0.2937 -0.0676
36906W        W80000  28.798  23.635   4.810 -0.3361  0.0169 -0.1726
36907W        W80001  28.091  23.370   2.701  0.0682 -0.1250  0.1446
36908W        W80002  28.501  23.319   3.774 -0.1094  0.2002 -0.0348
36909W        W80003  26.369  23.584   7.641  0.2271  0.1512 -0.0624
36910W        W80004  26.803  24.564   5.482  0.1526 -0.0148 -0.2808
36911W        W80005  27.106  24.068   6.148 -0.1254 -0.1916  0.0674
36912W        W80006  27.827  20.053   4.145 -0.0111 -0.0588 -0.0371
36913W        W80007  29.217  23.895   4.687 -0.1133  0.1917  0.0935
36914W        W80008  26.017  24.385   6.854  0.0655  0.0368 -0.1590
36915W        W80009  28.997  24.918   7.400  0.1009  0.1707 -0.0102
36916W        W80010  28.326  25.397   5.588  0.0181  0.0443 -0.0727
36917W        W80011  27.238  21.690   6.115 -0.0366 -0.1565 -0.2216
36918W        W80012  26.546  23.221   2.807  0.1102  0.0398 -0.0878
36919W        W80013  26.019  23.613   4.340 -0.2343 -0.3116 -0.0035
36920W        W80014  25.495  25.592   3.853 -0.0959  0.0893 -0.1032
36921W        W80015  29.836  22.892   7.860  0.0854  0.4022  0.2272
36922W        W80016  26.562  20.946   6.149 -0.1091 -0.0912  0.0210
36923W        W80017  27.391  21.520   5.058  0.2461 -0.0754 -0.0924
36924W        W80018  28.049  23.181   8.141 -0.2253  0.1301 -0.1191
36925W        W80019  28.198  23.631   6.084 -0.1748 -0.1618 -0.1183
36926W        W80020  27.767  23.791   6.188 -0.0833 -0.0222 -0.2196
36927W        W80021  26.098  24.574   3.103  0.2480 -0.0737  0.1009
36928W        W80022  27.669  22.922   6.785  0.0325  0.2170 -0.2055
36929W        W80023  26.096  24.667   5.849  0.1871  0.3196 -0.0774
36930W        W80024  26.147  24.978   7.766  0.0713  0.0035  0.0663
36931W        W80025  29.352  25.491   7.675  0.2279 -0.0733 -0.1207
36932W        W80026  28.237  23.312   5.646  0.2640 -0.0232 -0.0981
36933W        W80027  28.239  22.509   8.087  0.0274 -0.2194  0.3184
36934W        W80028  25.903  22.447   4.505 -0.1091 -0.0622 -0.3456
36935W        W80029  24.891  24.292   5.215 -0.0830  0.0209  0.1423
36936W        W80030  27.099  24.935   5.689  0.1276  0.0346  0.1845
36937W        W80031  26.516  22.309   6.255  0.0293  0.0122  0.1576
36938W        W80032  26.615  23.872   6.294 -0.1305  0.1263  0.0785
36939W        W80033  26.609  24.583   2.921  0.2327  0.3611  0.1402
36940W        W80034  27.351  23.905   7.193  0.2344 -0.1900 -0.2828
36941W        W80035  25.945  25.238   5.083 -0.1684  0.4525  0.3013
36942W        W80036  29.301  21.834   7.191 -0.1424 -0.2651 -0.0587
36943W        W80037  25.828  24.496   6.396 -0.4145  0.1497 -0.1324
36944W        W80038  25.719  22.571   1.735  0.2473  0.3347 -0.2530
36945W        W80039  25.470  25.213   3.495  0.1567 -0.2487 -0.1831
36946W        W80040  25.763  22.034   3.957 -0.0460  0.1512 -0.2118
36947W        W80041  29.048  24.401   5.520  0.0174 -0.1839  0.7423
36948W        W80042  25.805  22.402   5.750 -0.4153 -0.2758  0.2691
36949W        W80043  26.284  22.477   3.429  0.0032  0.1303  0.3742
36950W        W80044  26.725  25.053   7.635  0.1940 -0.2280 -0.1558
36951W        W80045  28.835  23.685   7.139 -0.2688 -0.1675 -0.2636
36952W        W80046  27.531  22.333   3.647  0.0271  0.1880  0.2157
36953W        W80047  28.745  25.000   6.482 -0.0369  0.4018  0.1300
36954W        W80048  27.540  23.014   7.245  0.2393 -0.0142  0.2016
36955W        W80049  26.630  23.019   3.982 -0.2348 -0.0647  0.1291
36956W        W80050  28.174  23.205   6.605 -0.3653  0.4813 -0.2483
36957W        W80051  26.893  22.876   5.536 -0.2235 -0.1267 -0.0586
36958W        W80052  25.416  26.402   5.719  0.0521 -0.2170 -0.1020
36959W        W80053  28.226  25.189   6.481  0.2642 -0.1011  0.1225
36960W        W80054  26.707  23.453   4.644 -0.2338  0.1631  0.1607
36961W        W80055  26.211  24.553   4.111  0.2241  0.0108 -0.0050
36962W        W80056  27.326  23.361   6.832 -0.2069  0.3001  0.2311
36963W        W80057  27.926  24.162   6.554  0.0046  0.1389  0.2803
36964W        W80058  28.041  22.816   6.143 -0.1760 -0.1034  0.1769
36965W        W80059  26.157  22.791   4.907 -0.1265 -0.0192 -0.1062
36966W        W80060  26.958  23.441   6.383  0.2693 -0.0930  0.0847
36967W        W80061  28.680  24.461   5.954 -0.0562 -0.3225  0.2033
36968W        W80062  27.363  22.051   6.438 -0.1884 -0.0957 -0.2894
36969W        W80063  25.593  24.927   6.716  0.0107 -0.1407 -0.1543
36970W        W80064  25.508  22.178   4.471  0.0507 -0.3193  0.1186
36971W        W80065  29.534  26.325   4.041 -0.0878  0.3111 -0.3944
36972W        W80066  28.043  24.338   7.471 -0.0474  0.1563 -0.0020
36973W        W80067  25.686  24.491   3.817 -0.1178  0.1533  0.0295
36974W        W80068  23.901  22.537   7.305  0.3360 -0.1308  0.0888
36975W        W80069  26.573  24.559   4.996  0.0430 -0.0433 -0.0677
36976W        W80070  27.665  22.405   6.643 -0.1631 -0.0859 -0.1504
36977W        W80071  26.231  23.722   5.807 -0.0036  0.0535 -0.2283
36978W        W80072  28.050  25.284   4.000  0.1984 -0.1629 -0.0648
36979W        W80073  25.564  23.454   5.303  0.0116 -0.0836  0.0744
36980W        W80074  27.369  22.238   4.143 -0.1854  0.3020  0.0888
36981W        W80075  26.814  25.103   2.921  0.1402 -0.0628  0.1501
36982W        W80076  26.637  21.949   3.947  0.0888  0.0279 -0.0376
36983W        W80077  28.602  23.629   6.512 -0.1662 -0.5366 -0.1453
36984W        W80078  27.616  23.403   4.582 -0.1768  0.0557 -0.0493
36985W        W80079  28.170  21.417   7.758 -0.0359  0.0403 -0.1074
36986W        W80080  25.447  21.573   5.105  0.4352  0.1610  0.1835
36987W        W80081  29.116  25.240   4.901 -0.1787  0.1517 -0.0964
36988W        W80082  26.092  23.039   5.877  0.0854  0.0189 -0.1754
36989W        W80083  28.057  24.810   8.306 -0.2460 -0.2999 -0.0390
36990W        W80084  26.066  23.649   6.280  0.0061 -0.2545  0.2893
36991W        W80085  26.964  22.325   3.824  0.1776  0.1694 -0.1172
36992W        W80086  25.905  22.596   3.721  0.1020 -0.0695 -0.1659
36993W        W80087  27.378  23.047   5.374 -0.2532  0.2662  0.2485
36994W        W80088  27.906  23.189   5.302  0.0983 -0.5136 -0.1187
36995W        W80089  27.264  24.403   5.598  0.0026  0.6101 -0.0192
36996W        W80090  29.238  23.335   5.601 -0.1591 -0.0994 -0.1018
36997W        W80091  24.595  23.527   6.464  0.2008  0.3532 -0.1479
36998W        W80092  27.447  22.847   3.402 -0.0290 -0.0838  0.1021
36999W        W80093  27.568  23.094   4.218 -0.2271 -0.0986 -0.1885
37000W        W80094  26.555  24.498   4.530  0.0581  0.1603 -0.2261
37001W        W80095  26.789  22.182   6.692 -0.1806 -0.1749 -0.0277
37002W        W80096  28.084  23.135   4.866 -0.0676  0.1616  0.1879
37003W        W80097  27.219  21.207   4.675  0.0705 -0.1757 -0.2741
37004W        W80098  27.913  22.545   7.090  0.2138  0.1977 -0.0368
37005W        W80099  27.624  24.316   6.966  0.0276 -0.1147 -0.3136
37006W        W80100  26.728  23.329   6.813 -0.0407  0.0719 -0.0286
37007W        W80101  26.516  22.958   7.130 -0.0868 -0.0267  0.6170
37008W        W80102  27.768  26.179   6.871 -0.3716  0.1250 -0.0069
37009W        W80103  28.010  23.259   3.983  0.3833  0.1716  0.0488
37010W        W80104  28.503  23.420   7.496  0.1367 -0.1085 -0.2170
37011W        W80105  26.904  22.644   4.236 -0.0966  0.0553  0.1390
37012W        W80106  27.531  23.560   4.047 -0.2620  0.1749  0.1754
37013W        W80107  26.016  22.017   6.257 -0.2921 -0.0566 -0.1523
37014W        W80108  28.058  23.708   7.555 -0.2336 -0.3223 -0.1496
37015W        W80109  25.900  24.837   2.561  0.0096 -0.0589  0.2081
37016W        W80110  28.201  23.110   7.164  0.3226  0.0247  0.0245
37017W        W80111  27.297  25.346   3.032 -0.1065 -0.0026 -0.3131
37018W        W80112  28.447  23.168   6.223 -0.0484 -0.3879 -0.0113
37019W        W80113  26.706  21.106   3.449  0.1130 -0.2827 -0.1329
37020W        W80114  24.743  23.009   4.348 -0.1391 -0.2345  0.1678
37021W        W80115  26.604  24.294   5.974 -0.1272  0.3124 -0.4285
37022W        W80116  26.312  23.036   3.588 -0.1805 -0.0528  0.2199
37023W        W80117  27.531  23.912   4.818 -0.0602 -0.2485 -0.3736
37024W        W80118  27.622  23.318   6.415  0.0499 -0.0718  0.0088
37025W        W80119  28.033  23.965   7.000 -0.0824  0.0706  0.2434
37026W        W80120  26.911  21.554   4.497  0.2399  0.0070 -0.0267
37027W        W80121  28.634  22.914   7.364  0.4199 -0.0933 -0.1434
37028W        W80122  24.717  24.887   4.061 -0.1311  0.0023 -0.1229
37029W        W80123  26.635  21.811   4.941  0.1852 -0.1581  0.1109
37030W        W80124  27.458  25.152   7.139 -0.3148  0.0860 -0.1287
37031W        W80125  24.877  23.220   5.326  0.1650 -0.0926 -0.1035
37032W        W80126  28.070  25.153   5.945  0.2113 -0.0135  0.0921
37033W        W80127  26.817  22.479   4.729 -0.2175 -0.2383 -0.0003
37034W        W80128  27.014  21.899   5.282 -0.4556 -0.0344  0.1393
37035W        W80129  27.173  22.974   6.476 -0.2079 -0.1468 -0.0554
37036W        W80130  28.776  23.335   8.018 -0.0228  0.0869  0.3458
37037W        W80131  28.869  25.269   6.997  0.2186  0.0000  0.2659
37038W        W80132  25.850  25.033   5.551  0.0108 -0.0996  0.0406
37039W        W80133  27.247  25.886   7.682 -0.0935 -0.0086 -0.1842
37040W        W80134  28.067  24.683   5.139  0.1944  0.2247 -0.0927
37041W        W80135  26.048  24.121   6.022 -0.0138 -0.4839 -0.1876
37042W        W80136  25.644  22.321   6.657 -0.1235 -0.1261  0.3303
37043W        W80137  26.783  24.647   7.388 -0.0016 -0.1462 -0.0428
37044W        W80138  28.925  23.244   6.422 -0.4188 -0.3563  0.5501
37045W        W80139  26.190  21.932   3.675  0.3033 -0.0727  0.1016
37046W        W80140  26.789  24.801   3.342  0.0879  0.0250 -0.3783
37047W        W80141  26.592  24.224   7.007  0.1603 -0.0324  0.1492
37048W        W80142  25.174  23.486   5.610 -0.2659 -0.1967 -0.0153
37049W        W80143  25.634  25.146   4.641 -0.0962  0.0683 -0.1021
37050W        W80144  28.713  24.493   5.114 -0.0594 -0.2338  0.3367
37051W        W80145  27.525  24.948   5.009 -0.0074  0.2848  0.1469
37052W        W80146  29.050  25.718   4.786  0.1810  0.1351 -0.0705
37053W        W80147  25.795  24.223   3.336  0.0017  0.1935  0.2004
37054W        W80148  23.842  24.316   6.738  0.1983  0.2405 -0.1759
37055W        W80149  24.358  24.581   4.341  0.1451 -0.3642 -0.3530
37056W        W80150  29.428  24.435   4.701  0.5460  0.1464 -0.4776
37057W        W80151  26.563  24.853   5.796  0.2080 -0.1105  0.0501
37058W        W80152  28.998  25.055   7.887  0.0539  0.2324  0.0861
37059W        W80153  28.159  22.768   5.292  0.0305 -0.0286 -0.0188
37060W        W80154  27.791  22.860   5.707  0.0132 -0.0051  0.0174
37061W        W80155  29.779  23.310   4.500 -0.1737  0.0587 -0.1866
37062W        W80156  28.375  25.100   6.937 -0.0282 -0.0225  0.1072
37063W        W80157  26.825  23.574   5.893  0.1207 -0.0943 -0.3155
37064W        W80158  26.340  21.990   3.092 -0.0899  0.0100 -0.4078
37065W        W80159  27.051  23.785   6.702  0.0575 -0.1666  0.2211
37066W        W80160  28.761  22.231   6.522 -0.0643 -0.0481 -0.0284
37067W        W80161  25.914  25.075   8.215  0.1156 -0.2288  0.1083
37068W        W80162  27.933  25.181   5.345  0.4564 -0.2606 -0.0680
37069W        W80163  25.800  23.099   3.652  0.0911 -0.3142 -0.0455
37070W        W80164  26.294  22.837   5.397 -0.2611 -0.0543  0.0006
37071W        W80165  28.996  21.529   5.832  0.0276  0.5308 -0.0471
37072W        W80166  27.987  24.633   5.825 -0.2553 -0.0655  0.0411
37073W        W80167  26.417  22.609   4.509  0.0545 -0.1656  0.0202
37074W        W80168  27.762  25.948   4.737  0.0849  0.0735 -0.2101
37075W        W80169  26.781  25.898   5.531  0.1990 -0.2828 -0.0357
37076W        W80170  27.352  25.231   6.636  0.1304 -0.0095 -0.1228
37077W        W80171  25.930  21.545   3.641  0.0607  0.1102  0.0345
37078W        W80172  28.427  21.854   5.422 -0.2321 -0.2360  0.2200
37079W        W80173  26.386  22.861   6.252 -0.1783  0.2118  0.2489
37080W        W80174  29.107  21.840   6.654 -0.4139 -0.1085  0.1384
37081W        W80175  27.017  24.430   4.725 -0.2458  0.2291 -0.3253
37082W        W80176  28.262  22.318   5.518  0.0395  0.1324 -0.2916
37083W        W80177  27.456  24.381   7.532  0.2867 -0.1190  0.3380
37084W        W80178  25.977  23.904   5.381 -0.2792 -0.0481  0.3513
37085W        W80179  27.238  23.391   3.694 -0.0071  0.2363  0.1391
37086W        W80180  29.383  23.937   7.115  0.0050  0.0527  0.0755
37087W        W80181  27.278  24.182   3.767  0.1247  0.1729 -0.2227
37088W        W80182  28.619  25.495   6.532  0.2903  0.2019  0.0909
37089W        W80183  25.649  22.511   4.103 -0.0470  0.0809  0.1975
37090W        W80184  27.666  22.616   4.300  0.1066  0.0007  0.0626
37091W        W80185  25.895  23.572   4.977  0.0141 -0.0950 -0.1298
37092W        W80186  26.944  22.623   6.221  0.0084 -0.0279 -0.1185
37093W        W80187  27.417  25.814   7.230 -0.2000  0.0218  0.3043
37094W        W80188  24.894  22.832   4.795  0.0005 -0.1358 -0.2918
37095W        W80189  29.197  24.709   4.256  0.3491 -0.0039 -0.0524
37096W        W80190  29.753  23.417   6.007  0.5265  0.0313 -0.2409
37097W        W80191  27.863  24.477   4.226 -0.0918 -0.0366 -0.2939
37098W        W80192  29.109  24.725   4.971  0.2122 -0.2207 -0.2208
37099W        W80193  28.800  25.455   5.668  0.1220 -0.2778  0.2215
37100W        W80194  24.372  23.343   4.260 -0.1372  0.1267 -0.0249
37101W        W80195  29.092  25.365   6.546 -0.1002  0.0513 -0.1440
37102W        W80196  29.354  24.646   5.795 -0.1309  0.0214 -0.1033
37103W        W80197  26.234  20.854   4.818  0.1626 -0.1016 -0.0054
37104W        W80198  26.630  21.949   5.849 -0.0851 -0.1668  0.2595
37105W        W80199  23.922  24.828   4.422  0.0346 -0.0977 -0.1976
37106W        W80200  28.724  21.417   6.661  0.0760 -0.1044  0.0151
37107W        W80201  27.798  23.452   6.911 -0.0417 -0.2632 -0.0229
37108W        W80202  27.231  25.123   4.042  0.0883 -0.0118  0.2281
37109W        W80203  28.833  21.056   7.266 -0.1102 -0.0844  0.0600
37110W        W80204  28.298  25.658   6.140 -0.0829  0.1381  0.2489
37111W        W80205  26.934  25.078   7.098  0.3720 -0.0534 -0.0299
37112W        W80206  26.987  24.356   4.206  0.1833 -0.0336 -0.1430
37113W        W80207  27.142  22.532   6.673  0.1684  0.0540  0.1771
37114W        W80208  26.831  24.182   5.121  0.1347  0.1896 -0.1576
37115W        W80209  27.689  24.971   3.759 -0.1281  0.2436  0.1045
37116W        W80210  29.103  24.161   6.017  0.2522 -0.0779  0.3902
37117W        W80211  28.982  24.335   4.525  0.1213  0.0676 -0.0151
37118W        W80212  25.408  23.198   6.151 -0.2652  0.3148  0.1303
37119W        W80213  27.770  22.255   5.612 -0.0400 -0.0401 -0.2922
37120W        W80214  26.937  22.118   4.310 -0.0441 -0.3426 -0.1179
37121W        W80215  26.275  24.086   4.403  0.1626  0.2720 -0.0325
37122W        W80216  25.702  24.254   5.098 -0.2604 -0.3265 -0.0336
37123W        W80217  26.851  24.299   3.457 -0.3955  0.1321  0.1171
37124W        W80218  26.211  24.177   4.959  0.0810 -0.0024  0.1159
37125W        W80219  27.867  21.810   7.575 -0.1291  0.3615  0.0174
37126W        W80220  26.408  23.815   6.706  0.1729 -0.1211 -0.1315
37127W        W80221  25.978  23.201   5.333 -0.3399  0.0245  0.1330
37128W        W80222  25.342  22.019   4.944  0.0686 -0.1612  0.2447
37129W        W80223  27.887  25.844   3.920 -0.2394  0.3144 -0.2797
37130W        W80224  26.280  22.526   5.839 -0.0406 -0.1970  0.1930
37131W        W80225  25.937  21.353   4.478 -0.2087 -0.0740 -0.0390
37132W        W80226  28.075  24.132   5.065  0.2144 -0.0665  0.2959
37133W        W80227  27.781  26.876   5.020  0.2299 -0.2217 -0.0875
37134W        W80228  25.205  22.878   5.233  0.1472 -0.2661  0.1275
37135W        W80229  29.097  25.937   7.726  0.1314  0.0430  0.2360
37136W        W80230  25.981  25.053   4.257 -0.3063  0.0858 -0.2053
37137W        W80231  27.373  23.153   7.819  0.3507 -0.2190  0.1752
37138W        W80232  26.811  22.465   7.202 -0.0477 -0.0460 -0.0819
37139W        W80233  26.119  23.966   3.629 -0.0255 -0.1500 -0.1389
37140W        W80234  25.819  22.935   4.549  0.0591 -0.0810 -0.0664
37141W        W80235  28.121  24.054   5.783 -0.0794  0.0447  0.1138
37142W        W80236  27.310  25.366   3.601 -0.2684 -0.0818 -0.3304
37143W        W80237  28.936  24.964   5.857 -0.0458 -0.0720 -0.0371
37144W        W80238  27.795  25.442   6.337  0.0790  0.1765  0.1471
37145W        W80239  26.175  21.410   6.502 -0.0250 -0.0576  0.1549
37146W        W80240  28.293  24.344   5.429 -0.0770 -0.1569 -0.0567
37147W        W80241  28.198  24.348   6.182  0.0207 -0.1067 -0.3070
37148W        W80242  28.792  24.141   4.070 -0.0811 -0.1353 -0.1914
37149W        W80243  29.392  22.719   5.795  0.2787 -0.0245  0.2614
37150W        W80244  27.943  23.665   4.941 -0.1229 -0.3251  0.4375
37151W        W80245  25.931  21.150   7.569 -0.0331 -0.1169  0.0756
37152W        W80246  26.190  23.086   6.786 -0.0421 -0.1598 -0.2403
37153W        W80247  29.003  23.338   7.469 -0.2441  0.3325 -0.0952
37154W        W80248  26.325  22.217   4.899 -0.3717 -0.2255  0.0805
37155W        W80249  26.746  22.038   3.378  0.0371  0.1112  0.0147
37156W        W80250  28.344  26.662   5.997 -0.2464 -0.0362  0.2165
37157W        W80251  25.372  23.717   4.884 -0.0117  0.0980 -0.2345
37158W        W80252  27.888  24.176   4.588  0.6305 -0.3831  0.1945
37159W        W80253  27.235  23.495   7.413  0.2587 -0.2896 -0.2419
37160W        W80254  28.417  24.805   6.180  0.1002  0.0494 -0.0146
37161W        W80255  29.111  23.863   7.553 -0.1570 -0.0857  0.1999
37162W        W80256  27.022  23.701   5.023 -0.0523 -0.0840 -0.0626
37163W        W80257  29.853  24.051   4.657  0.1039 -0.0661 -0.0020
37164W        W80258  27.876  25.795   5.896 -0.0499 -0.1091  0.0838
37165W        W80259  28.160  26.109   7.783 -0.0624  0.2632 -0.0195
37166W        W80260  27.956  26.715   6.958  0.0506 -0.0382 -0.2152
37167W        W80261  29.101  23.656   6.752 -0.0981 -0.0459  0.0692
37168W        W80262  26.137  21.160   8.002 -0.0244 -0.2079 -0.1169
37169W        W80263  27.077  23.741   4.496  0.1305 -0.1498  0.3962
37170W        W80264  27.150  24.561   5.160  0.2070  0.1617 -0.0155
37171W        W80265  27.590  23.846   6.681  0.0369 -0.2799  0.1762
37172W        W80266  26.755  22.463   5.741  0.1018 -0.0851 -0.0160
37173W        W80267  27.958  22.317   3.951  0.2124 -0.0322 -0.2509
37174W        W80268  26.666  26.345   5.968 -0.0835  0.0419  0.2141
37175W        W80269  27.316  23.507   6.021  0.0579  0.3584 -0.1784
37176W        W80270  25.644  23.744   9.360  0.0438 -0.1144 -0.0110
37177W        W80271  25.699  22.787   9.329 -0.1613 -0.1106  0.1918
37178W        W80272  29.004  23.364   9.367 -0.2521 -0.0776  0.1195
37179W        W80273  27.015  24.503   9.985  0.0511  0.3349 -0.2564
37180W        W80274  24.499  22.686   9.233  0.0837  0.0843 -0.1117
37181W        W80275  28.622  25.456   8.216 -0.1887  0.2663  0.1499
37182W        W80276  27.202  26.235  10.209  0.2610 -0.3124 -0.1376
37183W        W80277  29.320  25.117   8.914 -0.0029 -0.1867 -0.3698
37184W        W80278  26.493  24.103   7.597 -0.0829 -0.0204  0.0084
37185W        W80279  28.363  22.101   9.437  0.0118 -0.3719  0.2591
37186W        W80280  27.206  21.470   8.577 -0.0166  0.0438 -0.0282
37187W        W80281  24.703  20.046  10.106  0.1275  0.0185 -0.0977
37188W        W80282  27.350  23.992   9.122  0.0101 -0.3029 -0.3285
37189W        W80283  25.110  23.711   8.291  0.0575 -0.2255  0.3297
37190W        W80284  27.284  21.771   9.574 -0.4564  0.1726 -0.3643
37191W        W80285  26.397  22.285   8.064 -0.0470 -0.1266 -0.0914
37192W        W80286  27.552  26.327   9.827  0.2656  0.2070  0.1071
37193W        W80287  26.872  22.408   9.982 -0.1558  0.1221 -0.0668
37194W        W80288  28.145  25.923   8.251  0.1322  0.5670 -0.0386
37195W        W80289  25.035  24.086   7.807  0.2015  0.2490 -0.3213
37196W        W80290  25.544  21.747   8.621  0.2699  0.1474 -0.1563
37197W        W80291  26.989  24.174   9.495 -0.1401 -0.0188  0.1748
37198W        W80292  26.963  25.430   9.623  0.1324  0.1958  0.0582
37199W        W80293  28.199  24.440   9.205 -0.0655  0.0556 -0.0445
37200W        W80294  27.342  26.306   9.356  0.0363 -0.1206 -0.2218
37201W        W80295  23.987  23.999   9.881 -0.2347 -0.2765 -0.1458
37202W        W80296  24.139  24.367   8.508 -0.2368 -0.2140 -0.0492
37203W        W80297  25.939  26.368   9.286  0.0980  0.1639 -0.3293
37204W        W80298  27.497  24.642   8.526  0.3109  0.0029 -0.4944
37205W        W80299  29.240  24.633   8.132  0.3596 -0.0312 -0.0446
37206W        W80300  25.356  23.395   7.670 -0.0443 -0.1658 -0.1546
37207W        W80301  27.227  23.478   9.061 -0.0628  0.1099  0.2640
37208W        W80302  26.601  23.835   8.134  0.3211 -0.2156  0.1390
37209W        W80303  27.204  24.834   8.201  0.1411 -0.0531 -0.3074
37210W        W80304  28.197  25.136  10.213  0.0604 -0.2363 -0.1348
37211W        W80305  26.086  23.916  10.070 -0.3418 -0.1084  0.3673
37212W        W80306  25.704  24.836   7.615 -0.1973 -0.0714 -0.0721
37213W        W80307  27.947  23.255   7.643  0.0620  0.0181  0.0413
37214W        W80308  26.480  21.898   6.508  0.1172  0.0948 -0.0799
37215W        W80309  27.097  23.644   8.546  0.1313  0.0615  0.0064
37216W        W80310  27.186  21.095   8.095 -0.0115 -0.1592 -0.1812
37217W        W80311  25.614  23.867   8.456  0.1358  0.0752 -0.3927
37218W        W80312  25.591  21.890   9.571 -0.1636  0.0910  0.0377
37219W        W80313  26.013  24.428   7.764  0.2281  0.0827 -0.3583
37220W        W80314  29.323  24.360  10.536  0.1616 -0.2311 -0.1743
37221W        W80315  25.119  24.921   9.861 -0.2790 -0.1185  0.0905
37222W        W80316  24.611  21.955   9.855  0.1528  0.2072  0.2675
37223W        W80317  27.865  24.657   7.798 -0.0257  0.1161  0.3434
37224W        W80318  28.276  23.955   8.959 -0.0395  0.1073 -0.0449
37225W        W80319  27.745  24.035   7.820 -0.2597 -0.3010  0.4559
37226W        W80320  25.980  23.140   8.943  0.2270  0.2095 -0.1389
37227W        W80321  27.158  21.192   7.616  0.0016  0.0187 -0.1006
37228W        W80322  27.932  21.682   9.116 -0.0683  0.0358  0.2106
37229W        W80323  27.689  23.594   8.734 -0.0108 -0.2581  0.2645
37230W        W80324  27.747  25.902   9.148 -0.0988  0.0277  0.1956
37231W        W80325  27.631  24.101   8.700  0.4706 -0.1266 -0.0632
37232W        W80326  27.611  23.580   7.890 -0.1693 -0.1663 -0.3930
37233W        W80327  26.772  24.266   9.018  0.0107  0.1284  0.4111
37234W        W80328  28.347  23.513   6.955  0.2406  0.0092 -0.4232
37235W        W80329  27.893  24.325   8.216  0.1779 -0.2591 -0.1043
37236W        W80330  29.525  25.373   9.719 -0.4954 -0.1949 -0.1636
37237W        W80331  29.522  24.288   7.514  0.0172 -0.4919  0.1803
37238W        W80332  26.576  25.437   8.687 -0.1707 -0.0312 -0.0393
37239W        W80333  25.138  25.762   8.988  0.3493 -0.1319  0.0797
37240W        W80334  26.411  24.321  10.275  0.0055 -0.0117 -0.1723
37241W        W80335  25.933  25.465   7.791 -0.2000 -0.6651  0.0340
37242W        W80336  25.963  21.966   9.903  0.1425  0.2400  0.1039
37243W        W80337  26.578  25.191   9.281  0.3479 -0.0562  0.0136
37244W        W80338  27.949  22.030   8.732  0.1324 -0.0052 -0.0790
37245W        W80339  27.829  21.557   8.516  0.2415 -0.0735 -0.0796
37246W        W80340  25.904  23.631   8.939  0.0600 -0.1635  0.0259
37247W        W80341  28.243  25.584   7.798  0.0632  0.1351  0.3547
37248W        W80342  27.865  22.791   9.958  0.3272  0.3504  0.1952
37249W        W80343  27.988  24.678   8.787  0.0088  0.3347  0.2496
37250W        W80344  23.530  22.626   8.922  0.0649  0.2633 -0.0520
37251W        W80345  24.913  21.004   8.890  0.0822 -0.2046  0.4184
37252W        W80346  24.633  21.447   8.905  0.1887 -0.0753 -0.0048
37253W        W80347  25.243  21.671   7.373 -0.0548 -0.0854  0.3156
37254W        W80348  28.232  23.141   9.792  0.2974 -0.1983 -0.0795
37255W        W80349  26.602  23.613   8.591  0.0287  0.0488 -0.0296
37256W        W80350  25.090  22.081   9.687 -0.0458 -0.1862 -0.1929
37257W        W80351  28.707  25.473  10.107  0.0569  0.1327  0.3938
37258W        W80352  30.486  27.208   9.546 -0.2170  0.1956  0.3148
37259W        W80353  28.621  25.962   8.127  0.1249  0.4123  0.1310
37260W        W80354  25.493  24.068  10.090  0.1441  0.0995 -0.1425
37261W        W80355  25.920  22.570   7.893  0.1447 -0.0878  0.1031
37262W        W80356  26.484  24.125   9.456  0.0969 -0.1464  0.0196
37263W        W80357  27.173  22.994   9.326 -0.2884  0.2415 -0.0436
37264W        W80358  25.616  23.176   8.558 -0.1415  0.5123  0.0432
37265W        W80359  28.592  26.192   9.584  0.0547  0.1825  0.1994
37266W        W80360  27.743  22.814   8.560 -0.0107 -0.3206  0.2929
37267W        W80361  30.106  24.994   8.503  0.1564  0.2821  0.1290
37268W        W80362  27.854  24.055   9.295  0.1805  0.0581 -0.1168
37269W        W80363  25.638  22.177   8.166 -0.0303 -0.2138  0.0224
37270W        W80364  28.321  27.354   8.856 -0.2592  0.1703 -0.0694
37271W        W80365  26.192  25.070   9.007  0.0024  0.0813 -0.3347
37272W        W80366  25.949  23.353   7.703 -0.1798  0.0555 -0.1819
37273W        W80367  28.028  24.962   9.145 -0.0700 -0.4492  0.0507
37274W        W80368  29.843  21.904   8.467 -0.0986 -0.4530 -0.1186
37275W        W80369  26.527  22.917   9.087 -0.0647 -0.0666  0.1205
37276W        W80370  27.533  23.287   8.288  0.1592  0.0634  0.3009
37277W        W80371  27.612  21.341   8.931 -0.0897  0.3624 -0.0178
37278W        W80372  27.791  24.617   9.535  0.3417 -0.1265 -0.2357
37279W        W80373  26.838  22.400   8.313  0.0140 -0.1537 -0.2913
37280W        W80374  26.880  22.037   7.937  0.0826 -0.1401  0.0989
37281W        W80375  28.029  25.441   9.581  0.4142  0.1912 -0.0165
37282W        W80376  25.937  23.285   9.403 -0.2860 -0.1582  0.2549
37283W        W80377  27.845  22.303   8.270 -0.2488 -0.0905 -0.2341
37284W        W80378  28.644  24.929   8.299  0.0871  0.2816 -0.1513
37285W        W80379  27.498  24.892   9.916  0.2076  0.0561 -0.4172
37286W        W80380  28.607  25.772   8.610 -0.0667  0.0494  0.1506
37287W        W80381  27.212  23.702   9.742  0.1112 -0.3413 -0.0137
37288W        W80382  26.582  22.730   6.704  0.1098  0.0606  0.1175
37289W        W80383  26.226  21.530   8.466  0.0951 -0.0566 -0.0624
37290W        W80384  25.352  24.091   6.453 -0.0169 -0.0207  0.0737
37291W        W80385  27.032  21.903  10.199 -0.2646  0.4295 -0.0438
37292W        W80386  28.779  23.935   7.960 -0.0084  0.0381 -0.2928
37293W        W80387  28.897  23.312   8.883  0.1110  0.1684 -0.1039
37294W        W80388  26.407  23.326   8.095  0.1302  0.0766  0.1091
37295W        W80389  27.521  23.938   8.231 -0.2181 -0.1041 -0.0808
37296W        W80390  27.647  25.067  10.416  0.1560 -0.0747 -0.3351
37297W        W80391  28.343  24.582   9.963  0.0698 -0.1437 -0.0719
37298W        W80392  26.316  22.444   7.639  0.1984  0.0525  0.3590
37299W        W80393  26.827  25.222   8.253 -0.1004  0.0852 -0.1431
37300W        W80394  26.432  24.292   8.059 -0.1840  0.2777 -0.0571
37301W        W80395  25.352  20.667   9.008  0.0398 -0.0271 -0.1996
37302W        W80396  28.355  25.548   9.097 -0.1548 -0.0054 -0.0043
37303W        W80397  27.807  24.761   7.215  0.0943 -0.0492 -0.1070
37304W        W80398  24.317  27.748  10.314  0.1417 -0.0881  0.4292
37305W        W80399  25.164  25.432   8.137  0.2184  0.0562  0.1281
37306W        W80400  27.176  21.126   8.992  0.0955 -0.1542 -0.4204
37307W        W80401  25.492  24.474   9.075 -0.0922 -0.1619  0.2315
37308W        W80402  26.220  22.543   8.403  0.2778 -0.2008  0.1112
37309W        W80403  26.369  22.934   7.645  0.2989 -0.0386  0.0840
37310W        W80404  26.738  22.761   9.606 -0.1865 -0.1102 -0.0458
37311W        W80405  29.928  25.075   7.137  0.0516  0.3831 -0.2163
37312W        W80406  26.548  21.886   9.926 -0.1212 -0.0451 -0.0500
37313W        W80407  26.516  20.491  10.041  0.0308  0.0203 -0.2621
37314W        W80408  25.903  24.192   9.156  0.2377 -0.0202  0.2144
37315W        W80409  28.648  22.386   7.540 -0.1672 -0.0886 -0.0152
37316W        W80410  25.363  23.171   9.031 -0.1612  0.0549 -0.1948
37317W        W80411  26.949  22.549   9.222 -0.2258 -0.0631  0.0944
37318W        W80412  24.234  21.771   8.821 -0.0282  0.5315  0.1344
37319W        W80413  25.903  25.371   8.673 -0.0991 -0.1622  0.2164
37320W        W80414  26.826  25.637  10.099 -0.0116  0.0024 -0.1850
37321W        W80415  26.888  24.524   8.448 -0.1655  0.0193 -0.1685
37322W        W80416  25.120  25.364   8.673 -0.0087 -0.0879  0.2142
37323W        W80417  27.996  26.595   9.946  0.0964  0.0342 -0.3911
37324W        W80418  25.568  23.575   9.951  0.0979 -0.0095  0.1766
37325W        W80419  25.021  21.796   8.288 -0.0822  0.2405 -0.0886
37326W        W80420  26.513  21.711   8.121  0.0329  0.1158 -0.2182
37327W        W80421  27.651  24.465   9.121 -0.2818 -0.2433  0.1142
37328W        W80422  26.082  21.315  10.306 -0.1742 -0.1565 -0.1999
37329W        W80423  26.378  22.392   9.794 -0.1065 -0.3383  0.2900
37330W        W80424  28.811  25.272   9.049  0.2192 -0.2905  0.2387
37331W        W80425  26.788  23.778   7.099 -0.1968 -0.0376 -0.1603
37332W        W80426  25.215  22.639   9.475  0.1801 -0.2467 -0.0753
37333W        W80427  26.143  24.591   8.256 -0.0010  0.0110 -0.0553
37334W        W80428  28.065  22.908   9.318  0.2701  0.0201  0.1937
37335W        W80429  27.194  24.583   8.974  0.3027  0.1581 -0.0554
37336W        W80430  26.834  23.714   7.645 -0.0046 -0.0981 -0.1565
37337W        W80431  25.199  24.779   9.312  0.2643 -0.1317 -0.0388
37338W        W80432  29.136  22.186   8.488  0.0984 -0.1731  0.0761
37339W        W80433  28.095  25.207   7.377 -0.0107 -0.0756 -0.1868
37340W        W80434  26.319  21.739   8.924  0.0264  0.0054 -0.2960
37341W        W80435  27.030  24.216   7.345 -0.1158  0.0438  0.0893
37342W        W80436  25.999  23.333  10.051  0.1954  0.3147  0.2191
37343W        W80437  28.322  26.019   9.218  0.2709  0.1608  0.3335
37344W        W80438  26.711  24.110   9.929 -0.1423 -0.0010  0.0205
37345W        W80439  26.510  22.039   8.512 -0.2535  0.1264  0.0464
37346W        W80440  26.471  23.561  10.130  0.2001 -0.1899  0.1155
37347W        W80441  28.050  26.254   9.511 -0.2372  0.4289 -0.1339
37348W        W80442  27.326  22.775   9.774 -0.0382 -0.1432 -0.0335
37349W        W80443  29.221  21.433   9.412  0.0750 -0.0400 -0.0849
37350W        W80444  26.136  24.060   8.470  0.1313 -0.2078  0.0311
37351W        W80445  28.626  24.292   8.984  0.2993  0.0734 -0.1614
37352W        W80446  27.277  23.949   7.719  0.0109  0.6335 -0.2386
37353W        W80447  25.506  22.452   9.925 -0.0293  0.2501  0.1546
37354W        W80448  28.053  25.674   8.706  0.0196 -0.2020 -0.2086
37355W        W80449  27.964  23.528   9.102  0.3787 -0.0693 -0.0129
37356W        W80450  28.531  25.743   9.618  0.0622  0.0185  0.1508
37357W        W80451  27.682  23.102   9.036  0.2456  0.1801  0.2671
37358W        W80452  26.138  22.807   9.552  0.0311 -0.1991 -0.0900
37359W        W80453  29.569  22.494   7.604 -0.0799  0.2552  0.0759
37360W        W80454  27.380  22.422   8.459 -0.0196 -0.5033  0.0192
37361W        W80455  26.089  21.944   8.006 -0.0051 -0.2321 -0.1049
37362W        W80456  26.236  22.432   7.106 -0.3140 -0.0743  0.2649
37363W        W80457  27.574  25.083   7.605  0.2385 -0.4311 -0.0163
37364W        W80458  27.895  24.675  10.125 -0.1793  0.0386 -0.2266
37365W        W80459  27.296  22.145   9.245  0.1181  0.3202 -0.0500
37366W        W80460  23.762  21.787   9.676  0.1150 -0.2748 -0.1956
37367W        W80461  26.024  23.036   8.298  0.0833 -0.1920  0.2311
37368W        W80462  26.367  25.298   8.115  0.3258 -0.0319 -0.0728
37369W        W80463  28.585  25.043   9.861 -0.1592  0.0381  0.4606
37370W        W80464  27.383  22.656   7.619  0.3315  0.2737 -0.1114
37371W        W80465  26.608  24.151   8.543 -0.1300  0.0368  0.1142
37372W        W80466  26.149  22.689   8.904  0.0257 -0.0158  0.1480
37373W        W80467  25.951  24.685   9.203 -0.1252  0.3824 -0.1569
37374W        W80468  26.689  24.664   9.486 -0.2910  0.0335  0.2727
37375W        W80469  24.783  21.328   9.865  0.1006  0.0535  0.0968
37376W        W80470  28.591  22.673   9.955 -0.1589  0.2081  0.3271
37377W        W80471  28.813  24.704  10.208  0.0677  0.0866 -0.3420
37378W        W80472  25.434  22.281   9.214  0.1308  0.2804  0.2942
37379W        W80473  27.873  25.398   9.133 -0.1436 -0.0523 -0.0300
37380W        W80474  26.675  25.890  10.537 -0.1612 -0.0969  0.2058
37381W        W80475  28.524  24.052   9.496 -0.0165  0.1499 -0.0485
37382W        W80476  25.846  21.118   8.353  0.0715  0.1313  0.0226
37383W        W80477  27.261  24.685   7.196  0.0284 -0.1068  0.0297
37384W        W80478  23.889  24.789   9.394 -0.0896  0.0071  0.2227
37385W        W80479  26.684  24.767   8.066  0.0164 -0.2019 -0.4324
37386W        W80480  27.126  24.172   8.656 -0.2411 -0.2010 -0.0842
37387W        W80481  27.422  24.404   8.051  0.0584  0.1611 -0.0319
37388W        W80482  28.502  25.192   9.401  0.2851  0.0747 -0.0169
37389W        W80483  27.120  22.844   8.162 -0.2243  0.2232  0.2753
37390W        W80484  26.325  23.930   8.981 -0.1497  0.0419  0.1516
37391W        W80485  25.279  24.598   7.401 -0.1981  0.0620 -0.0412
37392W        W80486  28.272  24.088   7.970  0.5472  0.1335 -0.2807
37393W        W80487  26.234  24.510   8.744 -0.0598  0.2351  0.3645
37394W        W80488  29.210  21.402   6.845 -0.1004 -0.0668 -0.2486
37395W        W80489  28.892  23.131   9.902 -0.0214 -0.0934 -0.0436
37396W        W80490  27.480  22.190   9.787  0.1101  0.0336  0.1946
37397W        W80491  27.125  23.576   8.019 -0.0169 -0.0208  0.0211
37398W        W80492  25.781  20.722   7.912  0.0700 -0.1526 -0.2786
37399W        W80493  28.573  25.897   7.586  0.1612 -0.0372 -0.1729
37400W        W80494  26.541  22.034   7.123  0.2624 -0.0184  0.0655
37401W        W80495  27.778  23.213   9.567  0.2782  0.1442  0.1735
37402W        W80496  28.018  22.397   9.666 -0.1219  0.1986 -0.1145
37403W        W80497  27.112  24.825   6.577 -0.0601  0.1343 -0.0199
37404W        W80498  26.850  23.221   8.830  0.0352 -0.0266  0.0355
37405W        W80499  27.520  24.972   8.930  0.3606 -0.3231  0.0412
37406W        W80500  27.233  25.401   9.104  0.1116 -0.1811 -0.2809
37407W        W80501  27.155  25.777  10.457  0.0776 -0.0887 -0.2991
37408W        W80502  25.349  21.771   7.942  0.0775  0.1108  0.1020
37409W        W80503  29.618  23.157   8.204 -0.0594  0.1302  0.0638
37410W        W80504  26.192  24.766   9.676  0.1151 -0.0969  0.0826
37411W        W80505  26.581  22.532   8.788 -0.0507  0.0126 -0.2042
37412W        W80506  28.896  22.239   9.020 -0.0626  0.1386 -0.1528
37413W        W80507  27.040  23.224   9.836  0.2317  0.0034 -0.0859
37414W        W80508  26.554  24.721   9.997  0.0395 -0.2422  0.1122
37415W        W80509  26.868  22.682   7.689 -0.1074 -0.1203 -0.0038
37416W        W80510  27.023  22.998   7.075 -0.2618 -0.0778 -0.1947
37417W        W80511  24.063  21.002   8.374  0.1291  0.2639  0.1739
37418W        W80512  28.312  23.526   7.993 -0.0179  0.0361  0.2668
37419W        W80513  24.803  21.909   8.823  0.2489  0.0998 -0.0418
37420W        W80514  26.472  23.042   8.572 -0.2517 -0.2889 -0.3937
37421W        W80515  24.590  20.870   8.295  0.2457  0.6321 -0.3128
37422W        W80516  29.067  24.675   6.277  0.0307 -0.2344  0.2530
37423W        W80517  27.775  22.143   9.308  0.0870  0.0913 -0.1617
37424W        W80518  27.601  25.118   9.443 -0.0163  0.0835 -0.0556
37425W        W80519  28.575  24.598   9.507  0.0175 -0.2253 -0.2640
37426W        W80520  29.112  25.095   9.716  0.0422 -0.0241  0.2753
37427W        W80521  23.049  23.461   9.717 -0.0586 -0.2537 -0.1907
37428W        W80522  27.752  26.541  10.390 -0.1097 -0.1900  0.4930
37429W        W80523  30.195  25.357   9.016 -0.0303 -0.0595 -0.1338
37430W        W80524  27.085  22.290   8.811 -0.0645  0.2767 -0.0049
37431W        W80525  25.334  23.558   8.700 -0.2018 -0.3862 -0.1353
37432W        W80526  25.166  24.463   8.723  0.0138 -0.2001 -0.0383
37433W        W80527  28.784  22.295  10.175 -0.2749  0.2927 -0.1771
37434W        W80528  27.266  25.263   7.960 -0.1338 -0.2241  0.1769
37435W        W80529  29.829  22.967   9.967 -0.0320  0.0549 -0.1391
37436W        W80530  26.572  22.833   8.088  0.0034 -0.3691 -0.3055
37437W        W80531  27.294  25.338  10.139  0.2718  0.1880  0.1199
37438W        W80532  27.799  26.164   8.584  0.1009  0.2160 -0.2134
37439W        W80533  28.437  25.258   8.637  0.0084  0.1787  0.1908
37440W        W80534  26.977  22.782   8.651  0.0165 -0.1322 -0.1529
37441W        W80535  28.534  25.906  10.372  0.0304  0.3911 -0.4979
37442W        W80536  27.328  23.100   8.704  0.0547  0.1956  0.0240
37443W        W80537  29.546  21.471   9.008  0.0176 -0.0902  0.0817
37444W        W80538  28.085  21.503   9.984  0.0991  0.3082  0.1702
37445W        W80539  27.272  24.571   9.501  0.0524 -0.4915 -0.0445
37446W        W80540  24.920  23.033   6.325 -0.1085 -0.2208 -0.2153
37447W        W80541  26.366  25.005   7.248  0.1745  0.0211  0.2973
37448W        W80542  26.168  23.725   9.546 -0.1486  0.1924 -0.0215
37449W        W80543  25.801  24.222   8.139  0.0569  0.0061  0.0337
37450W        W80544  25.750  20.129   8.349 -0.1416 -0.2244  0.0055
37451W        W80545  28.432  24.810   7.417  0.3611  0.2433 -0.3241
37452W        W80546  24.590  21.205   9.406  0.2363  0.1962  0.4225
37453W        W80547  24.843  22.476   8.538  0.0902  0.2102  0.0804
37454W        W80548  28.033  23.727   8.397  0.1673  0.1767  0.1455
37455W        W80549  28.914  24.718   8.732 -0.2084 -0.2629  0.1632
37456W        W80550  26.695  21.619   8.609  0.2826 -0.0574 -0.0632
37457W        W80551  25.272  23.999   7.308 -0.1290 -0.0300  0.2787
37458W        W80552  24.899  22.628   7.188  0.2909 -0.2451  0.0227
37459W        W80553  26.789  23.750   9.059  0.1311 -0.1565 -0.1698
37460W        W80554  27.962  25.171   8.718  0.3140  0.4015  0.2782
37461W        W80555  29.074  27.241   7.977  0.1307 -0.0395 -0.0639
37462W        W80556  25.031  21.577   9.389 -0.1438 -0.1742  0.4572
37463W        W80557  29.032  23.868   9.527 -0.0253 -0.1740 -0.0517
37464W        W80558  28.546  23.622   9.161  0.1099 -0.2768 -0.0685
37465W        W80559  28.180  22.596   8.642  0.1295 -0.1738  0.0696
37466W        W80560  28.448  23.963   8.461  0.1561  0.0009  0.0918
37467W        W80561  29.521  23.315   8.704 -0.0579  0.2565  0.3174
37468W        W80562  26.397  21.504   7.319 -0.3254  0.6079  0.2828
37469W        W80563  28.678  22.444   8.534  0.1174 -0.2271 -0.0273
37470W        W80564  26.918  24.417   7.830 -0.0746  0.2628  0.0823
37471W        W80565  25.838  22.033   8.991 -0.3643 -0.2390  0.1104
37472W        W80566  28.381  24.510   8.518  0.0695  0.0406 -0.0645
37473W        W80567  27.762  25.539  10.091 -0.0055  0.2378 -0.2827
37474W        W80568  28.113  25.428   8.275  0.3991 -0.1802  0.0172
37475W        W80569  27.522  22.594   9.352 -0.0159 -0.1863  0.1500
37476W        W80570  29.749  26.515   9.823  0.0408 -0.1853  0.2951
37477W        W80571  25.757  29.617  10.151 -0.1636  0.0210  0.2694
37478W        W80572  26.874  25.148  10.206  0.2716 -0.1323 -0.2252
37479W        W80573  26.513  20.140   9.676  0.0542  0.0392 -0.1969
37480W        W80574  25.715  24.425   8.615 -0.0421 -0.0462  0.2533
37481W        W80575  27.504  24.059   9.636 -0.1843 -0.0742  0.0790
37482W        W80576  26.473  23.223   9.632 -0.2492 -0.2909 -0.1334
37483W        W80577  25.125  21.522   8.817 -0.1311 -0.2539  0.1106
37484W        W80578  28.433  21.684   7.372 -0.2585 -0.1057 -0.0563
37485W        W80579  27.430  28.700   9.982 -0.2281 -0.0576 -0.0724
37486W        W80580  24.322  23.624   9.655  0.4692 -0.0539 -0.0187
37487W        W80581  25.886  28.872   2.934  0.0133  0.2957  0.3447
37488W        W80582  26.854  26.974   1.210  0.2225  0.1871 -0.1249
37489W        W80583  27.858  26.647   1.952  0.2649 -0.0093 -0.1517
37490W        W80584  29.156  27.544   2.018  0.1444 -0.3258 -0.1999
37491W        W80585  24.615  26.885   1.796  0.1561  0.2818  0.1926
37492W        W80586  26.916  29.824   1.434 -0.1086 -0.1257  0.0781
37493W        W80587  25.869  27.774   3.414 -0.2021 -0.1809 -0.0477
37494W        W80588  29.359  28.569   3.264  0.3025  0.3752  0.1964
37495W        W80589  28.197  28.464   2.635  0.3400 -0.1710 -0.2209
37496W        W80590  27.429  27.423  31.587  0.1993 -0.2209 -0.1415
37497W        W80591  25.911  28.166   2.390 -0.1103  0.0493  0.1450
37498W        W80592  27.254  30.651   1.596 -0.4155  0.1364 -0.0568
37499W        W80593  26.837  27.826   2.230 -0.1039  0.1141  0.0142
37500W        W80594  25.960  26.339   4.265  0.2055 -0.1126 -0.1435
37501W        W80595  27.464  27.047   2.906  0.0801 -0.0447 -0.0989
37502W        W80596  25.626  26.812   0.942  0.1786 -0.3006  0.1260
37503W        W80597  24.855  27.979   2.758 -0.0798  0.1452  0.0978
37504W        W80598  26.663  25.643   1.012 -0.2223  0.2787 -0.1019
37505W        W80599  25.803  28.236   1.864 -0.0933  0.3571 -0.0780
37506W        W80600  27.712  25.459   4.927 -0.2648  0.0055 -0.1205
37507W        W80601  29.266  26.546   3.279 -0.3516  0.1091 -0.1049
37508W        W80602  28.742  28.228   1.170  0.1563 -0.0951 -0.1102
37509W        W80603  25.623  26.534   1.420  0.0001 -0.0169  0.3434
37510W        W80604  24.552  27.350   1.631  0.0240  0.0195  0.1093
37511W        W80605  25.445  27.997   2.099 -0.0373  0.1869 -0.1084
37512W        W80606  26.752  28.221   1.944 -0.1147  0.1019 -0.1051
37513W        W80607  27.700  26.793   2.558 -0.1427 -0.1433 -0.2541
37514W        W80608  25.515  29.337   2.737 -0.1380 -0.0501  0.0973
37515W        W80609  26.534  29.036   2.605  0.1428  0.2000  0.0695
37516W        W80610  29.634  25.657   2.983  0.1133  0.1602 -0.0573
37517W        W80611  26.666  27.530   0.130  0.0335 -0.0518  0.1265
37518W        W80612  26.077  30.040   0.244 -0.0215  0.1143 -0.0597
37519W        W80613  26.629  29.571   0.658  0.0596  0.0505 -0.0429
37520W        W80614  28.595  27.743   1.015  0.2494  0.0999  0.1719
37521W        W80615  27.747  28.890   2.123  0.2944 -0.0775  0.4791
37522W        W80616  26.378  28.259   3.418 -0.0499  0.0072  0.0907
37523W        W80617  26.414  28.797  30.717 -0.0215 -0.1248 -0.2076
37524W        W80618  27.366  28.436   3.403 -0.1953  0.0413  0.2417
37525W        W80619  26.074  27.737   5.095  0.2424 -0.1182  0.0827
37526W        W80620  27.173  27.892   2.583  0.1073 -0.0763  0.3150
37527W        W80621  28.017  28.368   1.360  0.0290 -0.0841  0.0247
37528W        W80622  26.143  28.038  31.297  0.1766  0.0116  0.1575
37529W        W80623  27.048  27.766   1.780  0.2385 -0.0819 -0.1425
37530W        W80624  25.109  29.218   5.134  0.4009  0.0553  0.3619
37531W        W80625  25.425  28.492   2.264 -0.2642  0.0328  0.1446
37532W        W80626  28.962  25.296   3.468  0.1016  0.2534 -0.1095
37533W        W80627  26.458  29.081   0.372 -0.0787 -0.1415 -0.0193
37534W        W80628  27.685  26.872   0.287  0.1979 -0.1069 -0.0294
37535W        W80629  27.500  25.614   1.087 -0.2962 -0.2571  0.0189
37536W        W80630  27.338  26.100   1.252  0.1071  0.2146 -0.0401
37537W        W80631  26.694  25.595   1.679 -0.3129 -0.0175 -0.2622
37538W        W80632  25.364  29.287   1.862 -0.0516  0.1216 -0.3256
37539W        W80633  27.573  25.495   4.008  0.0733  0.0518 -0.0003
37540W        W80634  29.382  27.542   4.485 -0.1298 -0.3429  0.1742
37541W        W80635  27.675  28.091   0.977 -0.1010  0.0154  0.0175
37542W        W80636  26.457  26.181   2.329 -0.1825 -0.2437 -0.2630
37543W        W80637  25.268  28.908   2.723  0.1564  0.1051  0.1138
37544W        W80638  25.987  27.182   2.295 -0.3015  0.1434  0.2199
37545W        W80639  27.984  27.763  30.852  0.0061 -0.1281  0.1122
37546W        W80640  29.090  29.051   1.577 -0.1832 -0.2247 -0.4237
37547W        W80641  27.493  28.885   0.571 -0.0593  0.1332 -0.2186
37548W        W80642  26.144  26.650   0.169 -0.1172  0.0218  0.0336
37549W        W80643  25.289  27.845   4.084 -0.0541 -0.0995 -0.1478
37550W        W80644  26.187  27.904   3.715 -0.1611 -0.0267 -0.1945
37551W        W80645  27.072  27.396  30.788 -0.3137  0.0282 -0.0734
37552W        W80646  28.377  28.792   5.400 -0.3525  0.0258  0.0027
37553W        W80647  25.534  27.054   4.033  0.0990 -0.0605 -0.2517
37554W        W80648  29.229  26.987   1.872  0.0815  0.1767  0.0230
37555W        W80649  26.846  28.702  31.530 -0.0713  0.0239 -0.5202
37556W        W80650  27.140  27.578   3.005 -0.3588  0.5308 -0.0503
37557W        W80651  27.352  28.438  31.915  0.4080 -0.1392  0.2535
37558W        W80652  27.378  25.999   2.364 -0.2347 -0.0187  0.1115
37559W        W80653  27.347  26.325   1.758 -0.0696 -0.0519 -0.0323
37560W        W80654  26.764  27.841  30.768  0.4874 -0.0926  0.2492
37561W        W80655  26.094  27.820   0.448 -0.1233 -0.2666 -0.0103
37562W        W80656  28.046  29.052   3.952 -0.0175 -0.0004 -0.2111
37563W        W80657  26.870  28.265  31.841 -0.0758  0.1374 -0.0524
37564W        W80658  26.300  28.101   1.171 -0.2190 -0.1405  0.0203
37565W        W80659  27.460  26.798   3.897 -0.1804 -0.3076  0.2037
37566W        W80660  26.848  28.158   3.614  0.0475 -0.1401  0.2136
37567W        W80661  25.583  28.968  31.930  0.1779 -0.0990 -0.1824
37568W        W80662  24.841  27.901   2.217  0.1289 -0.0395 -0.1948
37569W        W80663  25.571  28.856  31.129  0.0878  0.0290  0.0937
37570W        W80664  25.133  26.428   2.960 -0.1256  0.1063 -0.0863
37571W        W80665  26.492  27.968   3.066 -0.2102 -0.4053 -0.2013
37572W        W80666  26.941  26.448   1.089 -0.1665  0.0108 -0.5735
37573W        W80667  26.874  25.408   3.344 -0.2174  0.2113 -0.3269
37574W        W80668  27.418  25.089   2.081 -0.2226 -0.1369 -0.1875
37575W        W80669  25.536  27.116   1.694  0.0925  0.0594 -0.1795
37576W        W80670  29.787  29.370   1.511  0.2433 -0.0216  0.2289
37577W        W80671  28.723  27.079   0.408 -0.1458 -0.1609  0.0415
37578W        W80672  28.819  28.557  31.527  0.0152  0.0343 -0.0569
37579W        W80673  25.671  26.761   3.436  0.0093 -0.1296  0.1011
37580W        W80674  26.061  27.442   2.756  0.1185  0.1132  0.0963
37581W        W80675  26.529  27.196   4.525 -0.2037 -0.0996 -0.1653
37582W        W80676  26.636  26.951   3.495 -0.1313 -0.2722  0.1902
37583W        W80677  27.553  27.602   2.662  0.0245  0.0707 -0.3031
37584W        W80678  25.654  27.317  31.045 -0.0401  0.0613  0.3103
37585W        W80679  28.800  27.334   2.675 -0.0283 -0.1822 -0.5394
37586W        W80680  27.696  28.522   2.547  0.0694 -0.1378 -0.0776
37587W        W80681  26.334  27.179   1.107 -0.0704  0.0698 -0.0108
37588W        W80682  28.722  26.194   2.739 -0.0333 -0.3661  0.0848
37589W        W80683  27.122  28.608   0.312 -0.1265 -0.0028 -0.1654
37590W        W80684  28.287  27.152   3.830  0.0181  0.2114 -0.3389
37591W        W80685  27.388  29.690   2.274  0.0956 -0.1661 -0.2229
37592W        W80686  26.772  25.920   3.416 -0.0528 -0.2438  0.0008
37593W        W80687  25.966  26.324   0.873 -0.0105 -0.0534  0.0826
37594W        W80688  25.485  28.726   3.164  0.3809 -0.4054 -0.2113
37595W        W80689  27.202  28.858   2.559 -0.0495 -0.2049  0.1732
37596W        W80690  26.834  26.201   0.540  0.2002  0.1742  0.2195
37597W        W80691  28.859  29.270   3.521  0.2646  0.2414 -0.2455
37598W        W80692  27.920  27.549  31.355  0.2060  0.0080  0.1081
37599W        W80693  24.648  27.415   2.986 -0.0824  0.0823  0.0696
37600W        W80694  28.773  25.963   4.431  0.1729 -0.2478 -0.3208
37601W        W80695  28.209  27.337   3.330  0.2051 -0.0712  0.2746
37602W        W80696  27.451  26.499   2.196 -0.1596 -0.1843  0.1935
37603W        W80697  26.019  27.102   0.265  0.0860  0.0188 -0.2154
37604W        W80698  27.564  27.932  31.763 -0.1415 -0.3059 -0.3086
37605W        W80699  26.406  28.643   1.121  0.3579  0.2638 -0.0205
37606W        W80700  26.460  26.904   1.574  0.1649 -0.1257  0.1900
37607W        W80701  27.252  28.026   0.197 -0.0280  0.1075 -0.0830
37608W        W80702  27.022  26.149   2.051  0.1183  0.0055 -0.2788
37609W        W80703  24.319  27.782   4.702 -0.0561  0.1901 -0.4003
37610W        W80704  27.149  26.725   3.418 -0.1869  0.2243  0.1312
37611W        W80705  26.533  27.636   1.160 -0.0452  0.0750  0.3048
37612W        W80706  26.209  28.481   2.915 -0.3127  0.1049 -0.1421
37613W        W80707  26.251  26.731   2.391 -0.0383  0.0037 -0.0200
37614W        W80708  28.296  26.972   1.339  0.1305 -0.0295  0.0048
37615W        W80709  26.168  26.842   3.340 -0.2103 -0.0923  0.2068
37616W        W80710  27.923  28.037   2.663  0.0428 -0.0237 -0.4347
37617W        W80711  26.868  26.446   0.079 -0.1491  0.2622 -0.3905
37618W        W80712  27.729  26.789   0.826  0.1461  0.0310 -0.1250
37619W        W80713  25.642  27.588   4.392  0.2658  0.0730 -0.0491
37620W        W80714  26.663  29.536  31.160 -0.1017  0.2054 -0.0542
37621W        W80715  28.130  28.438   1.864 -0.1218  0.1910  0.0789
37622W        W80716  26.505  26.400   1.387  0.2717 -0.3189 -0.2509
37623W        W80717  29.330  28.116   1.328 -0.0842  0.0027  0.1484
37624W        W80718  25.505  28.491   1.629  0.1530  0.0274  0.2626
37625W        W80719  26.360  28.784   4.260  0.0433  0.2909 -0.1150
37626W        W80720  27.906  29.940   0.768  0.3301  0.1238 -0.0303
37627W        W80721  26.458  26.630   2.911  0.0126 -0.0024 -0.4121
37628W        W80722  27.412  26.178  30.938 -0.0585  0.3139  0.0262
37629W        W80723  26.630  26.414   3.369  0.1008 -0.2840 -0.1175
37630W        W80724  24.925  28.409  30.918 -0.4029 -0.3168  0.0830
37631W        W80725  28.836  27.214   2.175 -0.0757  0.2632 -0.3410
37632W        W80726  27.336  25.906   2.868 -0.0777 -0.1268 -0.1651
37633W        W80727  28.073  25.933   3.457 -0.2168 -0.0059  0.1512
37634W        W80728  28.485  27.655   4.042 -0.1277 -0.0513  0.0979
37635W        W80729  27.829  26.069   2.152 -0.0175  0.2225  0.1167
37636W        W80730  27.993  27.218   2.722  0.2084  0.2880  0.1712
37637W        W80731  26.938  26.711   1.803  0.1414  0.0563  0.2830
37638W        W80732  27.732  24.991   4.307 -0.1200  0.3197 -0.3683
37639W        W80733  26.802  26.609   3.856 -0.1917  0.1382  0.2367
37640W        W80734  24.772  29.399   3.335  0.2971 -0.0080 -0.1841
37641W        W80735  29.756  27.826   3.791 -0.0348  0.2590 -0.0513
37642W        W80736  27.852  27.066   1.658 -0.3624 -0.0920 -0.0424
37643W        W80737  28.028  25.196   2.647  0.2284  0.0973  0.2935
37644W        W80738  27.045  27.251   1.955  0.0784 -0.0536 -0.0583
37645W        W80739  26.122  29.407   0.754  0.3750  0.1915 -0.1672
37646W        W80740  26.438  27.942  31.822  0.1812 -0.3857  0.0550
37647W        W80741  27.950  26.878   3.115 -0.1358 -0.2239 -0.1431
37648W        W80742  27.251  29.058   1.702  0.0518 -0.0066 -0.0639
37649W        W80743  26.380  29.174  30.988  0.0384 -0.3048 -0.0150
37650W        W80744  27.937  28.152   3.624  0.0321  0.0624 -0.1854
37651W        W80745  25.474  27.741   1.221 -0.2244 -0.1206 -0.2733
37652W        W80746  27.119  25.456   2.555  0.2279  0.0025  0.4909
37653W        W80747  25.698  27.733   2.538 -0.1200 -0.1199 -0.1666
37654W        W80748  26.518  27.240  31.575 -0.1025  0.0571 -0.1071
37655W        W80749  25.184  26.225   1.406 -0.3806  0.0737 -0.1196
37656W        W80750  29.237  25.977   2.685 -0.0046 -0.1043  0.1937
37657W        W80751  28.031  28.016  31.564 -0.0964  0.0755 -0.1030
37658W        W80752  25.593  27.646   3.033  0.2553 -0.2618  0.0541
37659W        W80753  26.773  26.587   2.319  0.0234 -0.0281 -0.2195
37660W        W80754  26.264  28.488   1.881  0.0930  0.1518 -0.0621
37661W        W80755  27.020  27.053   3.896  0.1960  0.0641 -0.1163
37662W        W80756  28.145  25.311   1.745 -0.1440  0.2848  0.0648
37663W        W80757  28.768  28.275   2.569 -0.2388  0.0672  0.3921
37664W        W80758  26.236  27.423   4.183 -0.1408 -0.2840 -0.0718
37665W        W80759  25.777  25.482   1.377 -0.0725 -0.0355  0.2593
37666W        W80760  29.027  26.917   2.913  0.0769  0.0855  0.0732
37667W        W80761  25.905  27.326   0.721 -0.1883 -0.1139 -0.0963
37668W        W80762  27.006  28.348   1.168  0.0309  0.1269 -0.3671
37669W        W80763  27.298  27.954   1.267 -0.0357  0.1364  0.0648
37670W        W80764  25.649  27.672   0.356  0.1095 -0.1556  0.1029
37671W        W80765  26.991  29.583   1.926 -0.1976  0.0379 -0.1684
37672W        W80766  27.536  26.442   4.834 -0.0257  0.2156  0.1544
37673W        W80767  27.755  27.407   3.138 -0.0070  0.2658  0.0584
37674W        W80768  26.335  28.097   2.172  0.0589 -0.0127 -0.1784
37675W        W80769  25.762  26.596   2.495 -0.1466 -0.1076 -0.3366
37676W        W80770  26.791  27.958   1.384  0.0296 -0.0855 -0.0557
37677W        W80771  30.393  28.254   2.559 -0.0588 -0.1087  0.0435
37678W        W80772  26.414  27.535   2.241 -0.2408  0.0882  0.2456
37679W        W80773  26.104  28.317   4.345  0.1531 -0.5169 -0.0057
37680W        W80774  27.573  25.327   2.648  0.1636  0.0421  0.3547
37681W        W80775  28.671  27.680   0.530  0.2384 -0.0996 -0.2728
37682W        W80776  28.198  28.890   1.655  0.1300 -0.0240  0.0865
37683W        W80777  25.291  27.215  31.938 -0.1537  0.0825  0.4208
37684W        W80778  25.386  28.094   2.602  0.0416  0.2162  0.2089
37685W        W80779  27.199  28.345   1.711  0.5296  0.5259 -0.1066
37686W        W80780  26.595  27.669   2.667 -0.0048 -0.2705 -0.0670
37687W        W80781  26.506  27.021   4.054  0.1668  0.1301 -0.2099
37688W        W80782  26.664  29.072   0.868  0.0699  0.2660 -0.0316
37689W        W80783  24.114  28.522   2.426 -0.2614 -0.0410  0.5550
37690W        W80784  28.867  26.335   2.249  0.2569 -0.0641  0.1920
37691W        W80785  26.566  27.549   1.674 -0.0804 -0.0793 -0.0548
37692W        W80786  27.270  26.550   2.617 -0.1592  0.1071  0.0406
37693W        W80787  28.943  26.980   3.441 -0.1737 -0.0245 -0.1474
37694W        W80788  27.465  27.399   1.642 -0.2833  0.2032 -0.0182
37695W        W80789  27.758  26.322   3.762  0.0920 -0.0109 -0.0468
37696W        W80790  26.375  26.703   4.450  0.2227  0.0261  0.1405
37697W        W80791  29.241  27.434   3.622 -0.2014  0.1719  0.1206
37698W        W80792  24.462  25.615   3.144 -0.6019 -0.0344 -0.2097
37699W        W80793  26.148  29.789   2.896  0.1474  0.2434 -0.3376
37700W        W80794  25.586  27.119   4.558 -0.3249  0.2399 -0.0133
37701W        W80795  26.851  25.340   0.448 -0.2999  0.0480  0.1298
37702W        W80796  26.334  26.738  31.698  0.3805  0.1802  0.0568
37703W        W80797  26.724  28.069   0.853  0.1378  0.2604  0.0984
37704W        W80798  28.429  27.571   2.367  0.0584 -0.1301  0.0728
37705W        W80799  26.766  29.078   2.115  0.1771  0.1803  0.0743
37706W        W80800  27.245  26.690   1.411  0.2261 -0.3526  0.0797
37707W        W80801  26.229  28.031   1.675 -0.1343  0.2321  0.3596
37708W        W80802  26.948  27.423   1.438  0.2707  0.0632 -0.1094
37709W        W80803  27.055  27.704   0.514 -0.0510 -0.1270 -0.1493
37710W        W80804  25.812  28.201   1.381 -0.2200  0.0794  0.1358
37711W        W80805  26.904  26.765   4.328 -0.0882  0.1782  0.0568
37712W        W80806  28.054  27.873   1.834 -0.0481 -0.1233 -0.1518
37713W        W80807  26.627  27.049   2.104  0.2424 -0.0487 -0.1101
37714W        W80808  25.162  26.024   2.677 -0.2333  0.2378 -0.1324
37715W        W80809  27.751  27.168   2.226 -0.2107 -0.0986  0.0252
37716W        W80810  26.950  25.837   4.329 -0.2772 -0.0459 -0.0823
37717W        W80811  25.198  26.798   3.338 -0.1925 -0.1469  0.2206
37718W        W80812  26.806  28.648   3.352 -0.2813  0.0625 -0.0887
37719W        W80813  29.548  27.535   1.148  0.1349  0.0102  0.0050
37720W        W80814  26.346  26.458   3.968  0.1625 -0.2799 -0.0318
37721W        W80815  29.328  27.907   0.518  0.0898  0.3715  0.0554
37722W        W80816  28.267  26.740   0.877  0.1918  0.0051 -0.2649
37723W        W80817  26.638  26.278   4.459  0.3452  0.2677 -0.0756
37724W        W80818  29.076  26.483   4.347 -0.0227  0.2866  0.1127
37725W        W80819  25.617  27.413   2.049 -0.0635 -0.0098  0.2128
37726W        W80820  27.109  26.279   3.590  0.2734  0.0746 -0.0883
37727W        W80821  26.336  30.534   1.357 -0.0772 -0.2439  0.0737
37728W        W80822  27.242  28.099   2.164  0.0946 -0.0635 -0.0335
37729W        W80823  29.213  26.736   2.344 -0.2536 -0.0480 -0.2864
37730W        W80824  25.973  27.777   2.044 -0.2202  0.0485 -0.5628
37731W        W80825  25.923  27.889   4.131 -0.1038 -0.0877 -0.5101
37732W        W80826  25.287  27.926  31.044  0.0164  0.2958 -0.0862
37733W        W80827  26.202  28.711   0.592 -0.1032  0.2545 -0.0611
37734W        W80828  28.331  28.127   3.051  0.2369 -0.2667  0.1174
37735W        W80829  29.203  27.713   5.013  0.2338 -0.1606 -0.0683
37736W        W80830  27.291  25.780  30.167 -0.1429 -0.3436 -0.0704
37737W        W80831  30.256  26.597   4.057  0.1755 -0.1661 -0.1200
37738W        W80832  26.447  29.128  31.456 -0.2095  0.4273 -0.0298
37739W        W80833  27.793  25.800   1.477 -0.0639 -0.1772 -0.2805
37740W        W80834  26.716  29.850   2.732  0.3416  0.1146  0.1050
37741W        W80835  24.798  28.347   3.096 -0.1211  0.1089  0.3343
37742W        W80836  26.081  28.715   3.373 -0.2658  0.1644 -0.2573
37743W        W80837  26.490  26.172   2.998 -0.2297 -0.3453 -0.1956
37744W        W80838  28.309  27.973   1.293  0.1383 -0.3354 -0.1330
37745W        W80839  27.118  28.925  31.877 -0.0113 -0.2635 -0.3558
37746W        W80840  28.672  27.418   3.153 -0.1458 -0.0908 -0.1607
37747W        W80841  28.466  28.478   1.462 -0.0676 -0.1922  0.2020
37748W        W80842  26.878  28.697   1.738  0.0706 -0.1425 -0.2571
37749W        W80843  26.479  28.963   1.696 -0.1168 -0.0746  0.2210
37750W        W80844  30.713  27.934   2.304  0.1538  0.0741  0.1597
37751W        W80845  26.966  27.429   0.934  0.1011 -0.1572  0.0735
37752W        W80846  25.923  26.714   3.963  0.1363 -0.4317  0.0448
37753W        W80847  27.689  27.681   4.064  0.1744 -0.1347  0.0207
37754W        W80848  27.513  27.060   3.451  0.1071 -0.2062 -0.2357
37755W        W80849  27.031  25.929   0.849  0.3267 -0.0788 -0.1401
37756W        W80850  26.541  27.697  31.391  0.1908  0.2701 -0.1551
37757W        W80851  25.763  28.771   4.236  0.0911  0.2116  0.2200
37758W        W80852  26.119  28.495   3.872  0.2651  0.2927  0.2360
37759W        W80853  25.978  28.436   0.919  0.0028 -0.2360  0.0364
37760W        W80854  27.914  27.322   0.846 -0.0846  0.0345  0.0722
37761W        W80855  27.754  28.219   2.054  0.0456  0.2185  0.1544
37762W        W80856  27.715  29.890   1.319 -0.0872 -0.0707  0.2439
37763W        W80857  27.445  27.216   0.557  0.0078 -0.1646  0.1316
37764W        W80858  26.288  27.564   3.346 -0.3475 -0.0619  0.1621
37765W        W80859  26.668  29.159  31.897 -0.1031 -0.2918 -0.0245
37766W        W80860  26.083  29.650  31.254  0.1822 -0.2988  0.1875
37767W        W80861  24.725  28.809   1.700  0.0219  0.2214 -0.0332
37768W        W80862  28.085  27.656   3.752  0.1138 -0.2000  0.1957
37769W        W80863  28.848  26.983   1.542 -0.4111 -0.1987 -0.1888
37770W        W80864  28.894  27.787   2.373 -0.0236  0.0089  0.0574
37771W        W80865  29.264  27.556   0.166 -0.0461  0.3334  0.0925
37772W        W80866  27.935  29.427   1.362  0.0939 -0.3144 -0.3292
37773W        W80867  25.926  26.921   2.813 -0.2506 -0.0802  0.0021
37774W        W80868  26.978  27.221  31.813  0.1852  0.0418  0.0588
37775W        W80869  26.020  27.147   3.761  0.2070 -0.2520  0.0690
37776W        W80870  29.505  24.595   3.855 -0.0678  0.0360  0.0230
37777W        W80871  25.921  29.150   3.548  0.0241 -0.1081 -0.3022
37778W        W80872  29.158  29.197   1.141 -0.2548  0.2572  0.1473
37779W        W80873  26.374  26.507   1.906 -0.2001  0.1092 -0.1362
37780W        W80874  27.176  27.351   2.514 -0.2928  0.0004 -0.0792
37781W        W80875  28.574  25.190   2.524  0.0575 -0.0750  0.0847
37782W        W80876  27.800  26.262   1.118  0.1019 -0.0243  0.1880
37783W        W80877  28.256  26.531   2.860  0.0727 -0.0817 -0.0731
37784W        W80878  27.732  29.465   0.917 -0.0735  0.1070  0.0604
37785W        W80879  25.978  28.676   1.401 -0.0185 -0.2052 -0.2443
37786W        W80880  27.164  28.360   2.587 -0.3133 -0.0794 -0.0709
37787W        W80881  24.747  26.921  31.190 -0.2047 -0.2105 -0.0904
37788W        W80882  27.706  26.659   1.355 -0.1504  0.2667 -0.0803
37789W        W80883  28.595  26.719   2.460 -0.0479  0.1971 -0.0033
37790W        W80884  28.948  26.146   3.202 -0.3124 -0.3183 -0.0287
37791W        W80885  26.519  27.185   2.589  0.2788 -0.1550  0.0677
37792W        W80886  27.405  26.923   1.797  0.1013 -0.0356  0.3884
37793W        W80887  27.910  27.683   2.339  0.1646 -0.1388  0.4130
37794W        W80888  25.006  27.283   3.327 -0.2945  0.2717 -0.3086
37795W        W80889  27.221  26.733   0.311  0.1396  0.2558 -0.0172
37796W        W80890  28.534  26.956   4.848  0.0880  0.0577 -0.0446
37797W        W80891  28.548  26.934  31.977 -0.2997 -0.0382  0.1154
37798W        W80892  28.908  27.768   4.486 -0.2360  0.0162  0.3555
37799W        W80893  25.228  25.566   2.031 -0.0621 -0.0346 -0.2513
37800W        W80894  28.214  26.929   0.379  0.0674  0.2440  0.0798
37801W        W80895  25.883  27.210  31.576 -0.1702  0.1807 -0.0384
37802W        W80896  28.746  26.590   3.091 -0.1422 -0.1160 -0.0669
37803W        W80897  28.066  27.193   4.677  0.0242  0.0028 -0.0819
37804W        W80898  26.130  25.798   0.795  0.1364  0.2075 -0.1574
37805W        W80899  28.453  26.711  30.338  0.1238 -0.1231 -0.0070
37806W        W80900  28.205  27.408   1.942 -0.0632 -0.1799  0.2562
37807W        W80901  26.690  29.481   1.116 -0.0982  0.0511 -0.1868
37808W        W80902  29.037  28.043   1.937 -0.0783  0.0763 -0.0998
37809W        W80903  27.857  28.446   3.089 -0.3188 -0.3926 -0.0368
37810W        W80904  25.757  26.233   3.792 -0.1320 -0.3384  0.0518
37811W        W80905  27.370  28.589   2.130  0.0746  0.1998  0.5194
37812W        W80906  28.137  28.050   4.159  0.1593 -0.0252  0.1855
37813W        W80907  28.363  25.454   2.183  0.1600 -0.2201  0.3214
37814W        W80908  25.985  27.930   2.912 -0.1305 -0.1798 -0.0202
37815W        W80909  25.760  27.737   0.858  0.1638  0.0321 -0.0992
37816W        W80910  29.511  26.334   2.338 -0.1393 -0.0978 -0.1486
37817W        W80911  27.662  26.283   2.689 -0.2579  0.2425 -0.0044
37818W        W80912  26.277  29.545   0.280 -0.2409 -0.1398 -0.1667
37819W        W80913  28.522  24.390   2.992 -0.1609 -0.0255 -0.1075
37820W        W80914  26.567  28.374   1.525 -0.1420 -0.0967 -0.2284
37821W        W80915  26.693  28.719   5.592 -0.0665 -0.0143  0.0856
37822W        W80916  27.348  27.440   0.093  0.0189  0.2469 -0.0994
37823W        W80917  25.827  27.286   3.177 -0.1017  0.1917  0.1275
37824W        W80918  27.662  27.775   0.586  0.4530 -0.1427 -0.3005
37825W        W80919  27.289  29.698   1.101  0.1696 -0.3490 -0.0205
37826W        W80920  28.743  27.862   2.870 -0.0534  0.1763 -0.0313
37827W        W80921  27.454  27.580   2.136  0.1831 -0.0186  0.0131
37828W        W80922  28.391  28.549   0.900 -0.2130  0.0918 -0.0538
37829W        W80923  25.391  26.136   2.259 -0.0159  0.0099 -0.0256
37830W        W80924  28.227  26.212   0.832 -0.0984 -0.0864  0.2170
37831W        W80925  27.835  26.266   1.681 -0.1219  0.2690  0.1326
37832W        W80926  25.698  27.546   3.870 -0.3833  0.0038 -0.0261
37833W        W80927  25.653  26.468   0.488 -0.1025 -0.0800 -0.0005
37834W        W80928  26.348  28.243   0.619 -0.0186 -0.1714  0.0518
37835W        W80929  24.688  27.231   4.066  0.4557  0.1030 -0.1851
37836W        W80930  27.415  24.632   4.056 -0.1744 -0.1850 -0.1231
37837W        W80931  27.425  26.515   5.296  0.2134  0.3864 -0.0513
37838W        W80932  26.483  27.190   3.108  0.0917  0.0353  0.2056
37839W        W80933  26.159  26.205  31.936 -0.2192 -0.1792 -0.0159
37840W        W80934  28.644  28.420   2.062 -0.0557 -0.0034 -0.2363
37841W        W80935  26.257  24.960   3.302  0.0587 -0.2032  0.1794
37842W        W80936  24.894  26.419   2.005  0.1274  0.1643  0.0719
37843W        W80937  28.819  29.920   2.839  0.0941  0.0440 -0.0994
37844W        W80938  28.945  27.740   1.442 -0.1758 -0.0571  0.0593
37845W        W80939  27.313  26.191   0.298 -0.0945 -0.1603  0.1059
37846W        W80940  28.904  28.255   3.133 -0.0337  0.2459  0.0107
37847W        W80941  26.945  27.236   0.371  0.0335  0.1004  0.1797
37848W        W80942  28.298  27.100   2.329 -0.2040  0.0423  0.0825
37849W        W80943  26.260  27.831   4.484  0.3802  0.0982  0.2102
37850W        W80944  25.835  27.684  30.425 -0.0104 -0.3255  0.4837
37851W        W80945  27.168  26.871   2.283 -0.0031 -0.0488 -0.1411
37852W        W80946  26.622  28.177  31.404 -0.2247  0.2490  0.3144
37853W        W80947  27.865  27.653   0.093 -0.0282  0.1460 -0.3077
37854W        W80948  27.660  28.933   1.262 -0.0625 -0.2350  0.2341
37855W        W80949  26.763  28.624   2.315  0.0536  0.0998 -0.0385
37856W        W80950  25.840  25.159   3.784  0.4765  0.1010 -0.0523
37857W        W80951  28.274  28.091   2.265  0.0068 -0.1931 -0.1837
37858W        W80952  26.824  27.679   3.429  0.1206 -0.1321 -0.1904
37859W        W80953  28.335  27.966   0.212  0.2677  0.2457 -0.0005
37860W        W80954  29.258  25.172   3.073  0.2314  0.1867 -0.0526
37861W        W80955  26.626  28.191   2.594 -0.2097  0.1110 -0.0087
37862W        W80956  25.154  26.356   4.238 -0.3780 -0.2870 -0.2878
37863W        W80957  26.005  27.020   4.312  0.0330 -0.1476  0.0250
37864W        W80958  29.810  27.327   3.564 -0.0967  0.2575 -0.1035
37865W        W80959  24.995  27.627   1.813  0.0007  0.0246  0.1256
37866W        W80960  28.180  25.974   1.794 -0.1513 -0.0732 -0.1522
37867W        W80961  28.234  27.574  31.753 -0.2658  0.1779  0.2349
37868W        W80962  25.038  28.429   2.689  0.3922 -0.2447  0.0059
37869W        W80963  26.489  26.218   0.892 -0.1492 -0.1073  0.0913
37870W        W80964  29.435  28.051   4.717  0.0610  0.0616  0.1981
37871W        W80965  27.709  29.081   2.596 -0.0524 -0.1617 -0.0896
37872W        W80966  28.811  26.471   3.577  0.1163  0.1316 -0.0999
37873W        W80967  27.598  27.861   1.743  0.1346 -0.0826 -0.1217
37874W        W80968  29.725  28.471   1.398  0.1827  0.1416  0.1017
37875W        W80969  27.400  28.646   2.952  0.2572  0.0669 -0.3121
37876W        W80970  28.400  29.047   4.258 -0.0382  0.0258  0.0042
37877W        W80971  26.239  29.024   2.156 -0.2469 -0.1110  0.0009
37878W        W80972  29.187  28.344   2.334 -0.0407  0.1549  0.0520
37879W        W80973  26.382  25.752   2.658 -0.2443 -0.1877 -0.0277
37880W        W80974  27.390  26.978  31.886 -0.1149 -0.1014 -0.0397
37881W        W80975  26.607  28.571   0.138 -0.0009  0.1556 -0.0328
37882W        W80976  29.187  27.606   2.823 -0.1181 -0.1704  0.1475
37883W        W80977  25.559  26.880   2.138 -0.0822 -0.1155 -0.0966
37884W        W80978  28.191  26.026   1.280 -0.0359  0.1285 -0.1314
37885W        W80979  27.037  28.600   3.870  0.1168 -0.1280 -0.1440
37886W        W80980  26.911  28.246   3.029  0.1789  0.1100  0.0921
37887W        W80981  27.508  27.832   6.626 -0.2015  0.1617 -0.1572
37888W        W80982  27.295  25.805   4.744 -0.2606  0.0764 -0.0009
37889W        W80983  28.002  26.431   3.314 -0.2974  0.0768 -0.2143
37890W        W80984  28.367  28.715   5.946 -0.0050 -0.0856  0.1033
37891W        W80985  25.382  26.311   3.426  0.0875  0.2499  0.1373
37892W        W80986  27.082  29.022   3.059  0.3149  0.0585  0.0664
37893W        W80987  26.728  26.374   6.880  0.3890  0.2900  0.1719
37894W        W80988  28.059  29.471   6.769  0.0815  0.0354 -0.2064
37895W        W80989  30.254  28.021   5.675  0.2171 -0.0027 -0.0651
37896W        W80990  27.233  27.949   3.351  0.0349 -0.1225  0.3760
37897W        W80991  25.950  25.595   7.005  0.1881 -0.0246 -0.1238
37898W        W80992  26.734  28.909   6.452  0.0236 -0.0902  0.2256
37899W        W80993  26.228  24.783   4.685 -0.1593 -0.0177  0.0388
37900W        W80994  25.033  23.879   6.867 -0.0798  0.2039 -0.2915
37901W        W80995  27.815  26.975   5.866  0.0977  0.1968  0.3644
37902W        W80996  25.839  27.827   5.873 -0.1032 -0.0539 -0.2220
37903W        W80997  25.470  28.270   6.020  0.1576  0.1431  0.0505
37904W        W80998  26.867  27.250   5.013 -0.1033 -0.2943 -0.1005
37905W        W80999  26.092  28.977   5.138 -0.0537 -0.0293  0.2713
37906W        W81000  26.677  26.354   7.382  0.1596  0.2687  0.1041
37907W        W81001  28.099  25.748   6.646  0.1124  0.0107  0.1449
37908W        W81002  28.180  27.170   5.211 -0.1035  0.1495 -0.0935
37909W        W81003  26.507  27.483   6.101 -0.1812 -0.4419  0.0050
37910W        W81004  26.954  26.438   5.126 -0.0967  0.0105 -0.2200
37911W        W81005  26.988  26.830   6.660  0.1721 -0.1721 -0.0710
37912W        W81006  28.088  25.827   5.289 -0.1282 -0.0549  0.1370
37913W        W81007  28.351  27.887   7.140 -0.3723 -0.1783 -0.0346
37914W        W81008  25.922  28.620   5.468 -0.0298 -0.3170  0.3513
37915W        W81009  27.931  29.005   6.719 -0.1058 -0.0885  0.0617
37916W        W81010  27.266  27.189   7.170  0.0004  0.1046 -0.0404
37917W        W81011  25.377  27.164   5.310 -0.0389 -0.0102  0.0852
37918W        W81012  24.756  30.286   4.534  0.1303  0.0235 -0.0119
37919W        W81013  27.769  29.055   4.947  0.1744  0.3487 -0.0579
37920W        W81014  28.253  27.300   5.780 -0.1679 -0.0018 -0.2516
37921W        W81015  28.536  30.120   6.936  0.2527  0.0441  0.0452
37922W        W81016  25.918  29.366   6.428 -0.1468  0.0526  0.0459
37923W        W81017  26.487  28.842   3.753  0.0338  0.1516 -0.0490
37924W        W81018  27.516  28.707   6.607 -0.1674 -0.0559 -0.3370
37925W        W81019  26.223  28.505   7.131  0.0682 -0.2664 -0.2056
37926W        W81020  27.429  26.504   6.725  0.2243 -0.4668  0.0992
37927W        W81021  27.001  28.303   5.998 -0.1360  0.3685 -0.0622
37928W        W81022  26.817  29.160   3.483  0.1673  0.1307  0.0989
37929W        W81023  26.802  27.861   5.890  0.2175  0.0518 -0.3280
37930W        W81024  26.804  27.309   5.730  0.1075  0.1453  0.0287
37931W        W81025  26.263  27.386   7.043  0.0137 -0.1187 -0.2365
37932W        W81026  28.003  27.217   7.714  0.0466  0.0500  0.3659
37933W        W81027  26.111  29.145   4.007 -0.1489 -0.1213 -0.0337
37934W        W81028  28.451  26.199   3.229  0.0696  0.1126 -0.0600
37935W        W81029  27.098  26.316   4.685 -0.0706 -0.0688  0.0777
37936W        W81030  27.171  27.764   4.364  0.3646 -0.0480 -0.1937
37937W        W81031  26.540  25.447   5.581  0.1840  0.0994 -0.0029
37938W        W81032  26.999  28.660   6.978  0.0380  0.3441  0.3996
37939W        W81033  27.548  25.381   5.890  0.3399  0.2799 -0.0593
37940W        W81034  29.384  28.302   6.296 -0.3378 -0.4821 -0.1088
37941W        W81035  27.463  26.781   6.285 -0.2804  0.1283 -0.3167
37942W        W81036  27.772  27.455   6.006  0.0907 -0.1467  0.2086
37943W        W81037  24.876  30.071   6.421 -0.3106 -0.1028  0.1706
37944W        W81038  25.980  27.334   5.879  0.0118 -0.0732 -0.1643
37945W        W81039  29.151  28.665   3.806 -0.2181  0.3120  0.2083
37946W        W81040  28.370  29.759   5.036 -0.0208 -0.0690 -0.2647
37947W        W81041  26.448  28.994   3.145  0.3031  0.2095 -0.1843
37948W        W81042  24.667  26.237   4.403  0.1523  0.0182 -0.1687
37949W        W81043  26.800  27.898   6.413 -0.0125  0.2357 -0.2693
37950W        W81044  24.574  25.377   6.999 -0.0473 -0.2405  0.0682
37951W        W81045  26.855  25.545   3.897 -0.0158  0.4730 -0.0031
37952W        W81046  29.524  28.613   8.398  0.0709  0.1227  0.0890
37953W        W81047  26.507  28.020   6.794  0.2250 -0.0492  0.0302
37954W        W81048  28.555  25.943   6.561  0.0736 -0.0216  0.0010
37955W        W81049  27.115  28.920   5.180  0.2213 -0.3384 -0.0439
37956W        W81050  29.120  27.620   5.492 -0.0224 -0.2007 -0.0262
37957W        W81051  27.342  27.510   3.598 -0.3609  0.2269 -0.1933
37958W        W81052  28.341  26.588   6.457 -0.1615 -0.1234 -0.1628
37959W        W81053  28.970  26.306   6.610 -0.1719  0.0991 -0.1909
37960W        W81054  25.433  26.630   4.650  0.1097 -0.2579 -0.1387
37961W        W81055  26.089  28.221   4.955 -0.1590  0.0757  0.1701
37962W        W81056  29.338  28.291   7.213 -0.0659  0.0239  0.0850
37963W        W81057  28.809  28.933   4.975 -0.1184 -0.1654  0.1661
37964W        W81058  25.208  29.202   5.993  0.1690 -0.1111  0.0429
37965W        W81059  26.923  26.770   6.166 -0.2570 -0.1764  0.0009
37966W        W81060  27.539  29.277   7.497 -0.1957  0.2262  0.1330
37967W        W81061  27.422  28.983   4.013  0.0617 -0.0663 -0.1101
37968W        W81062  25.636  26.778   5.548  0.2579 -0.2288 -0.2829
37969W        W81063  25.197  28.480   3.464  0.0491 -0.2594 -0.0849
37970W        W81064  25.723  27.058   6.757  0.1227  0.0839 -0.0249
37971W        W81065  27.709  27.962   5.925  0.1872 -0.1069  0.0807
37972W        W81066  29.293  27.689   6.472 -0.1803 -0.3282  0.1698
37973W        W81067  27.109  25.563   6.931  0.1781  0.0153  0.1524
37974W        W81068  28.160  26.158   6.196  0.2256 -0.0210 -0.2611
37975W        W81069  26.500  28.263   6.310  0.0139  0.0808  0.0099
37976W        W81070  28.292  28.602   4.936 -0.1565  0.1335  0.4578
37977W        W81071  27.035  27.153   4.554  0.2247  0.2726 -0.0815
37978W        W81072  26.864  29.666   3.560 -0.1509 -0.1386 -0.0232
37979W        W81073  25.255  25.927   5.828  0.3751  0.3434  0.1057
37980W        W81074  25.307  25.990   5.335 -0.2450 -0.2403 -0.0388
37981W        W81075  26.382  26.901   6.949  0.1914  0.1442  0.0128
37982W        W81076  26.177  26.496   6.071  0.2350  0.0761  0.0572
37983W        W81077  28.088  28.056   7.498  0.0806 -0.1288 -0.1504
37984W        W81078  25.949  24.443   4.573 -0.0154 -0.0391 -0.1124
37985W        W81079  27.896  26.285   5.147 -0.2313 -0.2493  0.1183
37986W        W81080  26.871  27.694   5.380  0.1933  0.1966 -0.0682
37987W        W81081  25.010  27.481   5.012 -0.2042  0.1305 -0.1046
37988W        W81082  27.811  26.055   7.454 -0.1508 -0.1082  0.0529
37989W        W81083  27.339  28.961   4.555 -0.1137 -0.2400  0.3178
37990W        W81084  28.865  29.716   7.565 -0.1810  0.1610 -0.2904
37991W        W81085  28.760  28.424   5.091 -0.1335  0.1931 -0.3905
37992W        W81086  26.828  25.307   6.641  0.0596 -0.2196 -0.0026
37993W        W81087  25.500  25.187   4.147 -0.4033  0.1124  0.1058
37994W        W81088  25.049  29.724   6.015 -0.0606  0.0205 -0.1342
37995W        W81089  26.692  28.194   5.538 -0.1742 -0.1267  0.0514
37996W        W81090  25.401  26.595   3.830 -0.0760 -0.0633  0.0301
37997W        W81091  27.743  29.218   4.403 -0.0981  0.0153 -0.1953
37998W        W81092  25.841  28.578   5.985  0.1502  0.1294  0.0456
37999W        W81093  27.281  27.896   6.167  0.2840  0.1508 -0.1227
38000W        W81094  28.544  25.709   7.050  0.1049 -0.1213 -0.1175
38001W        W81095  28.919  28.018   6.517  0.0256 -0.0003 -0.0431
38002W        W81096  27.360  26.677   5.797 -0.1503  0.0458  0.2557
38003W        W81097  26.820  25.960   4.979 -0.1579  0.2321 -0.0237
38004W        W81098  29.884  28.440   6.471  0.0535  0.0189  0.2764
38005W        W81099  25.172  28.680   5.010 -0.1404  0.0959  0.0504
38006W        W81100  23.933  28.633   3.382  0.0315  0.1722 -0.1995
38007W        W81101  26.982  29.579   4.996 -0.0863 -0.1614  0.0830
38008W        W81102  29.589  25.483   6.217  0.3254 -0.0333 -0.0109
38009W        W81103  26.547  27.533   6.636  0.2697  0.2335 -0.0494
38010W        W81104  26.977  26.868   5.336  0.1057 -0.1067 -0.3087
38011W        W81105  26.054  27.336   4.680 -0.0106  0.0209 -0.0276
38012W        W81106  26.355  28.439   5.860  0.1553  0.0558 -0.1733
38013W        W81107  27.972  26.657   4.619  0.3589  0.2013  0.0718
38014W        W81108  28.435  27.041   2.940  0.0156 -0.0515  0.3348
38015W        W81109  27.051  28.030   6.893  0.0922 -0.0855 -0.0721
38016W        W81110  30.114  27.594   5.414 -0.2222  0.0647 -0.0792
38017W        W81111  27.025  27.214   3.287 -0.1640  0.1784  0.2864
38018W        W81112  27.928  26.975   4.226 -0.0187  0.2243 -0.4252
38019W        W81113  26.214  27.768   7.651 -0.0797 -0.0873  0.3479
38020W        W81114  27.981  28.851   5.717 -0.0387  0.0080  0.1424
38021W        W81115  28.840  29.116   6.710  0.3182  0.1962  0.1215
38022W        W81116  27.409  26.771   4.458  0.3173  0.0794  0.3090
38023W        W81117  28.475  27.236   4.312 -0.1180  0.1206  0.0067
38024W        W81118  25.624  27.628   6.320 -0.0519  0.1516  0.0584
38025W        W81119  28.092  29.878   6.547  0.0286 -0.0914  0.0304
38026W        W81120  29.885  29.101   6.011  0.0593 -0.1174  0.0769
38027W        W81121  27.610  25.586   6.817 -0.2816 -0.0550 -0.1584
38028W        W81122  26.962  26.993   2.773 -0.0020 -0.1629  0.0975
38029W        W81123  27.598  27.064   5.442 -0.0385 -0.0164  0.2796
38030W        W81124  24.574  28.290   4.114 -0.0993  0.0028  0.1314
38031W        W81125  27.908  26.997   6.391 -0.1007 -0.0743 -0.0752
38032W        W81126  27.896  26.670   5.504  0.0636  0.2144 -0.0764
38033W        W81127  27.116  25.386   7.460 -0.0197 -0.1587 -0.1068
38034W        W81128  29.379  28.414   7.741 -0.1709  0.0003 -0.1323
38035W        W81129  27.978  28.244   4.628 -0.0402 -0.3202  0.0386
38036W        W81130  27.440  26.269   6.153  0.1547  0.0107  0.0606
38037W        W81131  25.224  26.080   3.834  0.0391  0.0367 -0.2460
38038W        W81132  27.914  25.593   7.199  0.2821 -0.3849 -0.0336
38039W        W81133  26.515  26.578   6.406  0.0574 -0.0491  0.1105
38040W        W81134  25.713  29.113   6.866 -0.0018  0.1598  0.4969
38041W        W81135  27.823  28.932   7.193  0.2167  0.0074  0.1550
38042W        W81136  27.491  28.276   6.312 -0.1054  0.1600  0.4615
38043W        W81137  27.511  26.371   7.706  0.1109 -0.1777 -0.1028
38044W        W81138  27.743  26.454   4.263  0.2284  0.1192  0.1648
38045W        W81139  26.589  30.788   6.311 -0.0097 -0.0858  0.0915
38046W        W81140  26.096  28.136   5.511  0.5159 -0.0671 -0.0375
38047W        W81141  26.978  26.305   6.399 -0.1773  0.2858 -0.0851
38048W        W81142  26.547  28.529   6.776  0.0333 -0.0341  0.1277
38049W        W81143  27.021  28.096   4.755 -0.1065  0.0374 -0.0466
38050W        W81144  28.191  28.670   6.430 -0.2969  0.0919  0.3092
38051W        W81145  25.940  30.239   5.039  0.0835  0.3500  0.3872
38052W        W81146  27.898  25.132   6.860  0.0668 -0.1389 -0.0909
38053W        W81147  24.540  29.972   6.054 -0.1387 -0.2744  0.1496
38054W        W81148  25.950  26.652   4.671 -0.2911  0.0504 -0.2931
38055W        W81149  23.320  27.289   5.367 -0.3036  0.1009 -0.3935
38056W        W81150  28.852  27.438   6.300 -0.1043 -0.2560  0.0916
38057W        W81151  27.313  27.354   4.169  0.0393  0.1689  0.3395
38058W        W81152  26.295  25.983   5.165 -0.1893 -0.1418 -0.1346
38059W        W81153  26.629  25.074   4.766 -0.0246  0.0739 -0.1107
38060W        W81154  24.797  29.233   6.830 -0.1543  0.3683  0.0391
38061W        W81155  28.597  27.808   7.597  0.0846  0.1481  0.0519
38062W        W81156  28.873  26.961   4.412  0.0621  0.0470  0.0634
38063W        W81157  27.073  28.838   7.906  0.0043 -0.1672  0.0060
38064W        W81158  27.028  27.364   7.653  0.0775 -0.1434 -0.2422
38065W        W81159  23.960  27.467   4.925  0.0592 -0.1612 -0.0134
38066W        W81160  27.084  26.733   7.128 -0.0874 -0.1298  0.2215
38067W        W81161  27.056  26.309   5.634  0.1370 -0.4124  0.0646
38068W        W81162  25.526  28.909   5.387 -0.3410 -0.0649 -0.4976
38069W        W81163  29.636  28.710   6.128  0.0239  0.1586  0.1931
38070W        W81164  25.621  27.512   4.888  0.0733 -0.0317 -0.0762
38071W        W81165  24.931  29.083   6.380  0.0408  0.3151 -0.1716
38072W        W81166  26.679  25.933   6.250 -0.2667  0.4429  0.1330
38073W        W81167  28.738  29.002   6.201  0.3414  0.4075 -0.1054
38074W        W81168  27.678  26.154   5.581 -0.1275 -0.1033 -0.0567
38075W        W81169  26.666  26.826   5.738 -0.3039 -0.0712  0.1429
38076W        W81170  27.338  27.013   5.016  0.0957 -0.1291 -0.2988
38077W        W81171  29.151  28.275   5.788  0.0104  0.1664 -0.0897
38078W        W81172  25.862  25.213   7.318 -0.1335 -0.1701  0.0236
38079W        W81173  26.265  28.284   7.631 -0.0209 -0.2648  0.0715
38080W        W81174  28.482  25.908   5.741  0.1159  0.1043  0.3268
38081W        W81175  29.381  29.951   4.604  0.0171  0.2082 -0.1736
38082W        W81176  27.891  27.278   6.967 -0.0514 -0.1837  0.1777
38083W        W81177  26.484  29.297   4.401 -0.1856 -0.0475 -0.1749
38084W        W81178  25.109  27.232   6.333 -0.2778  0.2948 -0.2370
38085W        W81179  26.873  29.200   4.703 -0.2776  0.4164 -0.1037
38086W        W81180  27.522  27.602   7.050 -0.1483 -0.1501 -0.0512
38087W        W81181  26.533  29.437   5.797  0.0584 -0.0700 -0.1629
38088W        W81182  24.147  28.145   5.056  0.2010 -0.1341 -0.0499
38089W        W81183  25.364  27.393   6.788 -0.1737  0.1866  0.0932
38090W        W81184  27.547  25.945   4.302  0.1964 -0.0486  0.1232
38091W        W81185  27.103  28.212   4.237  0.2968  0.1398  0.0034
38092W        W81186  27.860  26.482   6.496 -0.4293  0.4274  0.1238
38093W        W81187  29.567  25.181   6.687 -0.1018 -0.2283 -0.0811
38094W        W81188  27.791  27.280   3.806 -0.0870 -0.0327  0.0682
38095W        W81189  28.366  27.429   7.340  0.2774  0.0806  0.1137
38096W        W81190  27.194  24.552   6.146 -0.2250  0.1222  0.0167
38097W        W81191  28.341  28.107   5.123  0.2089  0.1411 -0.3622
38098W        W81192  25.099  25.647   6.175  0.1019 -0.2110  0.1323
38099W        W81193  27.864  29.575   7.854 -0.2479 -0.0900 -0.0355
38100W        W81194  26.721  26.522   7.860 -0.3551 -0.1222 -0.1800
38101W        W81195  27.348  26.079   5.139 -0.0789 -0.3888 -0.0322
38102W        W81196  26.895  25.342   4.385 -0.0148  0.0996  0.1276
38103W        W81197  28.369  28.263   6.135 -0.0121  0.0617 -0.2223
38104W        W81198  27.951  28.398   5.901  0.1170  0.1920  0.0163
38105W        W81199  27.404  29.341   5.309 -0.1861  0.1586 -0.1067
38106W        W81200  29.755  25.249   7.626  0.0210 -0.0167  0.2241
38107W        W81201  27.787  27.552   5.515  0.2201 -0.3596 -0.0242
38108W        W81202  28.861  26.760   5.239 -0.2338  0.1826  0.0332
38109W        W81203  26.598  28.375   3.961  0.1148  0.1877  0.2643
38110W        W81204  26.146  27.810   6.525 -0.1688 -0.0785 -0.3177
38111W        W81205  25.950  25.838   7.442  0.2084 -0.3181 -0.3083
38112W        W81206  27.285  27.784   5.650 -0.2140 -0.0577 -0.0055
38113W        W81207  27.564  26.484   7.230  0.1279  0.0555 -0.1070
38114W        W81208  26.698  26.910   7.394 -0.1290 -0.1160 -0.0207
38115W        W81209  28.580  26.452   8.424 -0.2200  0.1678  0.0088
38116W        W81210  26.777  27.166   6.972 -0.2813  0.1897  0.1845
38117W        W81211  26.049  26.817   6.453 -0.1006 -0.3049 -0.1760
38118W        W81212  28.427  30.080   6.211  0.3147  0.1053 -0.0543
38119W        W81213  29.158  27.155   5.396 -0.0139  0.1123  0.2304
38120W        W81214  29.137  26.491   7.134 -0.3197  0.0581 -0.3412
38121W        W81215  28.359  27.564   6.782  0.0329  0.1658  0.1016
38122W        W81216  26.557  28.015   5.067  0.0465  0.3464  0.2273
38123W        W81217  25.092  26.872   4.341 -0.1649 -0.0974 -0.1249
38124W        W81218  28.546  29.157   7.509  0.3939 -0.1115  0.0596
38125W        W81219  25.695  26.138   4.699  0.0842  0.0383  0.2661
38126W        W81220  27.132  26.744   7.629 -0.1002 -0.0731 -0.5345
38127W        W81221  27.121  28.543   5.534 -0.0472 -0.0404 -0.2774
38128W        W81222  29.349  28.239   5.201  0.2250  0.1002  0.0212
38129W        W81223  28.816  26.709   6.307  0.0212  0.3791 -0.2030
38130W        W81224  26.520  25.441   6.996  0.1914  0.1868 -0.0783
38131W        W81225  26.100  27.303   6.520 -0.0815  0.3273  0.2012
38132W        W81226  25.994  27.276   5.233 -0.1364  0.2166 -0.0909
38133W        W81227  27.212  26.411   4.173  0.0244  0.0076 -0.1673
38134W        W81228  27.829  28.993   6.224 -0.0920  0.0142 -0.2640
38135W        W81229  29.152  28.422   6.805  0.1634  0.2412  0.2296
38136W        W81230  28.233  26.359   3.778  0.4611 -0.1337 -0.0795
38137W        W81231  28.437  26.937   7.711 -0.0184 -0.0840 -0.1370
38138W        W81232  26.304  27.937   5.965  0.2953 -0.1888  0.1822
38139W        W81233  28.269  25.474   4.890  0.0574  0.1578  0.0189
38140W        W81234  25.808  28.838   6.444 -0.0455 -0.0673  0.0004
38141W        W81235  25.412  29.974   5.782  0.0524  0.0278  0.0080
38142W        W81236  24.980  28.942   5.469 -0.2671 -0.0330 -0.0869
38143W        W81237  26.872  25.018   5.259  0.2037  0.0932 -0.1571
38144W        W81238  28.335  26.561   5.062 -0.3305 -0.1691  0.0261
38145W        W81239  27.866  27.959   6.969 -0.1248 -0.2874  0.0443
38146W        W81240  28.501  26.545   7.296  0.0037 -0.1722  0.0112
38147W        W81241  26.349  29.254   6.252 -0.0866  0.1444 -0.3163
38148W        W81242  26.990  28.391   6.530  0.0601 -0.4946 -0.2847
38149W        W81243  27.575  29.473   7.017  0.0446  0.1408 -0.0441
38150W        W81244  28.323  27.740   6.237  0.0368 -0.1068 -0.1234
38151W        W81245  26.389  28.758   7.616 -0.0322  0.0092 -0.0590
38152W        W81246  25.265  26.324   6.792  0.0701 -0.1592 -0.2906
38153W        W81247  27.696  28.012   8.046 -0.2339 -0.0834 -0.2444
38154W        W81248  27.453  27.269   6.352  0.2165  0.2350  0.1039
38155W        W81249  25.792  26.137   6.633 -0.0555 -0.0070 -0.1539
38156W        W81250  27.372  28.111   3.813 -0.0076  0.1138 -0.0070
38157W        W81251  25.910  29.873   6.519 -0.3601  0.2838  0.1628
38158W        W81252  25.919  27.019   7.288  0.0200 -0.1063 -0.3135
38159W        W81253  26.809  30.170   4.387 -0.2438 -0.0829 -0.0548
38160W        W81254  26.360  28.519   5.269 -0.3508  0.0443  0.3203
38161W        W81255  27.120  28.089   5.226 -0.0412  0.1631  0.1844
38162W        W81256  28.185  29.658   5.530  0.2650 -0.3140  0.0882
38163W        W81257  25.143  26.049   4.753  0.0470 -0.0391 -0.1577
38164W        W81258  25.578  28.182   5.521 -0.0729  0.2001  0.1218
38165W        W81259  25.450  29.454   4.646  0.2766  0.1634 -0.4431
38166W        W81260  27.531  28.311   5.679 -0.0543  0.0550 -0.1275
38167W        W81261  26.117  29.440   5.382 -0.0498  0.3725  0.1623
38168W        W81262  29.777  28.587   7.956  0.1544 -0.2395  0.3767
38169W        W81263  28.575  26.577   4.572 -0.3426  0.1120 -0.0418
38170W        W81264  29.601  27.013   5.922 -0.0413 -0.1784  0.1655
38171W        W81265  29.530  25.830   4.903 -0.2777  0.1001 -0.0472
38172W        W81266  27.330  29.029   6.915  0.0602  0.0319  0.0480
38173W        W81267  26.600  25.460   6.105 -0.1053 -0.1458 -0.0542
38174W        W81268  26.611  24.870   4.249  0.0135 -0.3249  0.3807
38175W        W81269  24.973  26.027   7.077  0.1916 -0.1491  0.1606
38176W        W81270  28.514  26.459   7.860  0.0099 -0.0041 -0.1153
38177W        W81271  25.464  29.177   6.413 -0.0551  0.0256  0.3106
38178W        W81272  29.787  29.822   4.995 -0.3066 -0.0127 -0.1181
38179W        W81273  24.894  27.259   4.578  0.1028 -0.1615 -0.1173
38180W        W81274  27.524  27.800   5.151  0.3952 -0.3547  0.2439
38181W        W81275  28.783  25.758   6.166  0.0539  0.1047 -0.0886
38182W        W81276  28.027  27.765   4.860  0.0410 -0.0384 -0.2482
38183W        W81277  28.683  26.455   5.684  0.0906  0.1534 -0.3728
38184W        W81278  26.726  29.918   5.889  0.1505  0.0416 -0.0676
38185W        W81279  27.182  29.054   5.714 -0.1673 -0.2760  0.1890
38186W        W81280  28.905  29.959   6.543  0.0502 -0.4045  0.1139
38187W        W81281  25.656  27.653   5.457  0.1045  0.0366 -0.0193
38188W        W81282  29.688  27.411   5.457 -0.0928 -0.0164 -0.6180
38189W        W81283  27.187  25.669   5.370  0.0507 -0.0423 -0.0245
38190W        W81284  29.579  25.668   6.790 -0.1286 -0.0202  0.0274
38191W        W81285  25.741  26.903   5.070  0.5528 -0.3268 -0.1736
38192W        W81286  26.720  27.699   4.594  0.0010 -0.0684  0.1720
38193W        W81287  27.462  28.277   6.932 -0.1078 -0.1959  0.1388
38194W        W81288  26.299  26.197   6.604 -0.0999 -0.0235  0.0494
38195W        W81289  26.523  27.412   3.720  0.3236  0.0519  0.1251
38196W        W81290  28.451  27.990   6.643 -0.0186 -0.1427  0.0993
38197W        W81291  26.782  27.406   4.179 -0.0716 -0.1388 -0.1495
38198W        W81292  29.246  29.540   6.692  0.1457 -0.0839  0.0982
38199W        W81293  26.195  26.144   4.663  0.0422  0.0680 -0.1805
38200W        W81294  28.749  27.153   5.828 -0.0480  0.3261 -0.0862
38201W        W81295  25.437  27.222   5.844 -0.3521 -0.0575  0.2365
38202W        W81296  26.823  26.768   4.802 -0.1485  0.0852 -0.1572
38203W        W81297  28.007  29.399   7.333 -0.1368  0.2096  0.2656
38204W        W81298  27.005  25.438   5.769 -0.2686  0.1695  0.0418
38205W        W81299  28.366  26.694   3.443  0.1082  0.0729  0.3474
38206W        W81300  28.795  28.161   6.996 -0.0260  0.0457 -0.3984
38207W        W81301  26.836  29.032   4.140  0.2738  0.2556  0.0197
38208W        W81302  28.080  27.608   4.384 -0.2869 -0.0971 -0.1353
38209W        W81303  27.579  30.535   4.817 -0.4451  0.1229  0.0509
38210W        W81304  26.079  26.917   5.529 -0.0887  0.2308  0.1452
38211W        W81305  29.108  29.006   5.884  0.2124 -0.2326 -0.3233
38212W        W81306  30.067  29.396   6.366 -0.0489  0.1582  0.1141
38213W        W81307  28.263  24.741   4.435  0.0108  0.4142  0.2123
38214W        W81308  26.102  26.498   5.155  0.0084 -0.4606 -0.4563
38215W        W81309  24.838  28.569   4.563 -0.0785 -0.1028  0.0919
38216W        W81310  28.636  26.270   6.169 -0.0322  0.0458  0.2760
38217W        W81311  28.142  26.288   5.603 -0.1426  0.2688  0.2374
38218W        W81312  27.254  29.414   3.344  0.1312  0.1600 -0.0555
38219W        W81313  29.405  25.158   7.136 -0.1340  0.0304  0.0158
38220W        W81314  27.648  29.369   6.498  0.0857 -0.0816 -0.1110
38221W        W81315  26.229  28.987   6.765  0.0583 -0.0464  0.1478
38222W        W81316  26.341  27.666   5.514  0.1342 -0.1009 -0.0532
38223W        W81317  26.460  26.381   5.496 -0.0093  0.2175  0.1493
38224W        W81318  27.540  28.310   5.141  0.0863 -0.1750  0.3842
38225W        W81319  24.183  28.961   4.800 -0.0242  0.3219  0.1046
38226W        W81320  28.976  27.788   5.973  0.1257 -0.1470 -0.0399
38227W        W81321  27.903  26.789   3.684  0.2800  0.1299 -0.0401
38228W        W81322  27.864  28.027   5.447  0.0169  0.3139  0.2147
38229W        W81323  26.347  26.998   4.937 -0.0332  0.1207  0.0707
38230W        W81324  29.485  26.353   4.675  0.4598  0.2500  0.2593
38231W        W81325  28.666  27.213   5.289 -0.4122  0.0890  0.1306
38232W        W81326  26.712  28.289   7.208 -0.1577 -0.1303 -0.0457
38233W        W81327  25.145  26.755   5.475  0.1645 -0.0140  0.1280
38234W        W81328  24.764  28.001   4.688 -0.3585  0.0819  0.1463
38235W        W81329  25.052  28.294   5.311 -0.1146 -0.1745 -0.1645
38236W        W81330  27.174  24.836   7.678 -0.3017  0.2944  0.3217
38237W        W81331  26.150  27.179   7.780 -0.2457  0.0847  0.1727
38238W        W81332  25.489  27.941   6.711 -0.0654 -0.1586 -0.1474
38239W        W81333  24.216  25.286   4.638  0.2436  0.0827  0.3540
38240W        W81334  28.127  28.528   3.968  0.1686 -0.3168  0.0688
38241W        W81335  26.492  25.515   5.096  0.2046  0.0796 -0.1958
38242W        W81336  26.632  24.795   6.831 -0.1097 -0.2750  0.0219
38243W        W81337  27.209  27.572   4.810 -0.1220  0.0005 -0.3274
38244W        W81338  28.396  28.490   4.457  0.1022 -0.0309 -0.2768
38245W        W81339  27.461  24.578   4.562  0.0502 -0.1578 -0.0319
38246W        W81340  29.433  29.221   6.317 -0.0582  0.1454  0.4135
38247W        W81341  25.353  27.688   3.580  0.1500 -0.0727  0.0057
38248W        W81342  27.090  27.268   8.155 -0.1366 -0.3580 -0.0046
38249W        W81343  27.796  25.125   8.020  0.0184  0.1451  0.3182
38250W        W81344  25.575  26.028   4.231  0.0092 -0.0989 -0.1069
38251W        W81345  27.871  26.441   6.009 -0.2781  0.0080  0.1502
38252W        W81346  28.769  28.078   5.469  0.0240 -0.1289 -0.4154
38253W        W81347  28.390  29.874   4.538  0.1203  0.0824  0.0431
38254W        W81348  26.759  27.667   7.082 -0.1069  0.4222  0.0918
38255W        W81349  26.908  28.723   7.466  0.1689  0.3934  0.1756
38256W        W81350  24.898  25.690   6.712 -0.1800 -0.0035 -0.3533
38257W        W81351  26.591  27.860   4.103 -0.1448  0.2835  0.0126
38258W        W81352  27.174  28.277   7.468 -0.3888  0.3657 -0.2501
38259W        W81353  29.387  27.479   5.922  0.1449 -0.5919 -0.2176
38260W        W81354  28.582  25.383   7.424 -0.0881 -0.2245 -0.0822
38261W        W81355  27.219  27.334   5.371 -0.1249  0.1230  0.0445
38262W        W81356  26.367  25.486   7.529  0.0514 -0.0289 -0.1359
38263W        W81357  26.693  27.907   7.611  0.2205 -0.0204  0.3875
38264W        W81358  29.342  27.312   6.823 -0.0920  0.1016  0.1735
38265W        W81359  25.815  25.582   4.426  0.0484  0.2278  0.0764
38266W        W81360  28.537  26.187   5.283 -0.2068  0.0609  0.1193
38267W        W81361  28.382  28.316   5.632  0.0034  0.1630  0.2251
38268W        W81362  26.320  27.001   6.036  0.2891  0.2341  0.1189
38269W        W81363  26.461  27.497   4.982  0.1930  0.1935 -0.3089
38270W        W81364  27.147  27.778   7.334  0.1158 -0.3269  0.0598
38271W        W81365  27.302  27.186   5.887 -0.4533 -0.2131  0.0877
38272W        W81366  27.731  28.399   7.350 -0.2002 -0.0678 -0.0084
38273W        W81367  25.812  27.963   4.683  0.0255  0.2015  0.0751
38274W        W81368  27.586  27.249   4.577 -0.0053 -0.0270 -0.1572
38275W        W81369  29.009  30.309   5.686  0.0222 -0.1857  0.0418
38276W        W81370  27.388  29.781   8.117 -0.1846  0.0736 -0.1668
38277W        W81371  27.662  29.718   5.602  0.2395 -0.1312  0.0448
38278W        W81372  28.458  27.108   6.287 -0.4595  0.3624 -0.0659
38279W        W81373  25.749  26.293   6.146  0.1354 -0.1957  0.1767
38280W        W81374  26.520  27.167   5.405 -0.0325 -0.0286 -0.0318
38281W        W81375  25.631  28.450   5.093  0.1739  0.2227 -0.1012
38282W        W81376  27.898  27.617   7.320 -0.0718  0.0506  0.2719
38283W        W81377  26.537  26.375   4.945  0.0544 -0.0362  0.1768
38284W        W81378  28.750  26.998   3.901  0.1489  0.0580  0.0934
38285W        W81379  28.885  28.423   6.189  0.1946  0.0842 -0.1900
38286W        W81380  27.967  28.089   6.466 -0.0659 -0.2809  0.2590
38287W        W81381  24.999  26.521   9.966  0.0279  0.0116  0.3376
38288W        W81382  27.037  25.009   8.643  0.0220  0.1303  0.0866
38289W        W81383  27.555  26.979   6.821  0.1799  0.0236  0.0260
38290W        W81384  29.557  27.845   7.394 -0.0828 -0.2706  0.0375
38291W        W81385  27.289  25.993   8.579 -0.3523  0.1092  0.0150
38292W        W81386  26.080  28.776   8.129 -0.3692 -0.1330 -0.2811
38293W        W81387  26.543  27.583  10.241 -0.1612  0.0624  0.1300
38294W        W81388  30.315  29.913   9.776  0.1290  0.2630 -0.1044
38295W        W81389  29.228  27.892   7.008  0.1761 -0.1735  0.0025
38296W        W81390  27.008  24.970   9.749  0.0364 -0.1424  0.0725
38297W        W81391  26.757  25.525   7.817 -0.0868  0.3367 -0.2580
38298W        W81392  26.261  25.531  10.158  0.0970  0.1398 -0.3273
38299W        W81393  27.943  27.641   9.496 -0.3212 -0.2440  0.2531
38300W        W81394  25.614  27.395   7.730  0.1470  0.3611 -0.3297
38301W        W81395  26.556  27.531   9.052 -0.0271 -0.0086 -0.1417
38302W        W81396  26.649  27.065   7.864  0.1964 -0.0318  0.0656
38303W        W81397  27.737  28.238   8.942 -0.1491  0.0278  0.2462
38304W        W81398  25.450  26.491   9.533 -0.0480 -0.1202  0.0725
38305W        W81399  26.685  28.395   7.868 -0.1541 -0.0877  0.1073
38306W        W81400  26.956  27.755   8.450  0.1005  0.1614 -0.0217
38307W        W81401  24.811  25.633   9.379 -0.1598 -0.0261  0.2002
38308W        W81402  26.750  25.656   9.154 -0.4338  0.0998  0.0631
38309W        W81403  27.740  27.133   9.574  0.0534 -0.3049 -0.2202
38310W        W81404  26.480  25.277   9.756 -0.1058  0.0358 -0.1135
38311W        W81405  26.460  28.131  10.008 -0.0894  0.1277 -0.1048
38312W        W81406  25.888  29.002   9.739  0.1046 -0.1198 -0.2128
38313W        W81407  26.042  28.017   8.400  0.2057 -0.3123  0.0525
38314W        W81408  23.911  30.555   9.052 -0.1574  0.1596 -0.0564
38315W        W81409  26.619  27.540   8.032  0.1286  0.1165  0.1780
38316W        W81410  29.521  27.920   7.938 -0.2457  0.0359 -0.0427
38317W        W81411  25.012  29.578   6.515 -0.0989  0.1470 -0.0462
38318W        W81412  29.336  27.809   9.471  0.0978  0.4448 -0.2362
38319W        W81413  28.043  28.148   9.357  0.1745 -0.2449 -0.0460
38320W        W81414  27.420  28.783   7.564 -0.1670  0.0956 -0.0301
38321W        W81415  27.064  28.638   9.670  0.1309  0.0706  0.2563
38322W        W81416  24.545  26.251   9.828 -0.0471 -0.0824 -0.0407
38323W        W81417  27.471  28.066   8.520 -0.1398  0.1363  0.0274
38324W        W81418  26.787  26.976   8.947 -0.2212 -0.0024 -0.1290
38325W        W81419  26.752  26.015   7.778 -0.0760 -0.0063 -0.2218
38326W        W81420  28.972  25.737   7.293  0.2439  0.1857  0.1011
38327W        W81421  27.574  25.566   8.765 -0.0310  0.5267  0.2840
38328W        W81422  26.200  28.549  10.067 -0.1266  0.0071 -0.0342
38329W        W81423  28.331  27.053  10.127  0.1595  0.0671 -0.0913
38330W        W81424  27.145  27.365   8.632  0.2792 -0.1206  0.3401
38331W        W81425  27.741  26.606   9.387 -0.0624 -0.0566 -0.0913
38332W        W81426  25.900  26.932   9.276  0.2873  0.3425  0.1339
38333W        W81427  24.717  26.675   9.520 -0.0241 -0.1399  0.0343
38334W        W81428  28.482  28.672   7.782 -0.1714 -0.0130 -0.0999
38335W        W81429  28.877  28.155   8.826  0.0068  0.1372  0.0459
38336W        W81430  27.972  29.939   7.483 -0.1487 -0.1730 -0.0603
38337W        W81431  26.698  26.914   8.421 -0.1528  0.0340  0.3490
38338W        W81432  25.628  25.979   7.798  0.0673 -0.0330 -0.0745
38339W        W81433  29.352  26.087   8.125  0.0882  0.1031  0.0637
38340W        W81434  26.312  27.010   8.710  0.0379  0.0918  0.1336
38341W        W81435  30.946  27.393   9.413 -0.1405  0.0462 -0.1980
38342W        W81436  28.709  28.729   7.188 -0.0690 -0.0883  0.2324
38343W        W81437  28.583  27.019   9.216  0.0134  0.0430 -0.1467
38344W        W81438  27.944  26.363   8.996  0.0281  0.2827 -0.4186
38345W        W81439  27.154  27.974   7.859 -0.2796  0.1385  0.5203
38346W        W81440  26.302  26.727   8.092  0.1988  0.0225  0.0671
38347W        W81441  28.801  27.242  10.193 -0.5093 -0.4598 -0.1493
38348W        W81442  28.341  27.027   6.787 -0.2130 -0.1953 -0.2551
38349W        W81443  25.222  26.052   9.978  0.0221 -0.0170  0.2022
38350W        W81444  25.295  29.162   7.092 -0.1097 -0.0375 -0.0304
38351W        W81445  23.899  26.930   8.100 -0.1298  0.1068 -0.1876
38352W        W81446  25.302  27.724   8.053 -0.0073  0.1904  0.0181
38353W        W81447  26.468  26.043  10.085 -0.0146 -0.0888  0.1276
38354W        W81448  24.690  24.821   9.516  0.1182 -0.1944  0.0079
38355W        W81449  29.434  26.956   7.674 -0.0931  0.0792  0.1041
38356W        W81450  28.104  26.892   9.074 -0.3278  0.1357 -0.0634
38357W        W81451  27.227  27.760   8.996 -0.1418  0.1436  0.1633
38358W        W81452  27.651  28.870   8.116  0.1679  0.0350  0.1037
38359W        W81453  27.743  27.293   8.118  0.0890  0.0837 -0.0099
38360W        W81454  28.876  29.373   7.145  0.3421 -0.1817  0.1945
38361W        W81455  25.872  24.857   8.729 -0.0830 -0.3130 -0.1796
38362W        W81456  26.013  26.367   8.484  0.2705 -0.1862  0.1513
38363W        W81457  27.485  25.134   8.437  0.1086 -0.1348  0.1532
38364W        W81458  25.150  25.940   7.992 -0.4352  0.1114  0.1068
38365W        W81459  30.203  26.512   8.923  0.1792  0.2805 -0.0129
38366W        W81460  27.005  27.026   9.795  0.0611 -0.0750  0.1139
38367W        W81461  25.612  27.393   9.329 -0.4012 -0.1594  0.0528
38368W        W81462  27.360  28.466   8.678 -0.2092  0.3933 -0.3859
38369W        W81463  31.024  26.416   9.598 -0.0379  0.3399 -0.2240
38370W        W81464  28.094  28.525   8.766 -0.1079 -0.1429  0.1337
38371W        W81465  25.115  25.586   9.872 -0.1935  0.3674 -0.2155
38372W        W81466  27.263  25.875   9.061 -0.0336 -0.1457 -0.1042
38373W        W81467  25.590  28.764   9.441  0.1274  0.2434 -0.4128
38374W        W81468  24.649  28.554  10.464  0.1541 -0.0436  0.1089
38375W        W81469  27.647  25.960   7.930 -0.0205 -0.1396  0.1551
38376W        W81470  27.632  29.072   9.536  0.1784  0.2492  0.3111
38377W        W81471  29.461  27.352   8.309  0.0896  0.3655 -0.1629
38378W        W81472  29.607  27.417   9.604 -0.2092  0.2243 -0.0107
38379W        W81473  29.879  27.807   9.438  0.1074 -0.1110  0.1252
38380W        W81474  26.272  25.775   7.977  0.0690 -0.1026 -0.1846
38381W        W81475  27.551  29.560   9.432 -0.0391  0.0516 -0.1399
38382W        W81476  26.037  29.607   7.538 -0.0516 -0.1846  0.1085
38383W        W81477  25.123  26.830   7.907 -0.4233 -0.2691  0.0895
38384W        W81478  25.544  28.250   8.946 -0.0543  0.0234  0.1299
38385W        W81479  29.253  27.185   8.807 -0.2028 -0.0305 -0.1018
38386W        W81480  26.543  27.403   8.540 -0.0352  0.0327 -0.1220
38387W        W81481  27.765  25.879   9.632  0.1266 -0.1307 -0.1080
38388W        W81482  29.052  27.984   7.510 -0.1473  0.1009 -0.3707
38389W        W81483  29.253  28.280   9.164  0.1371 -0.1071 -0.1105
38390W        W81484  28.450  27.425   7.913 -0.0442  0.1791 -0.2414
38391W        W81485  28.021  26.527   7.489 -0.0445 -0.1404  0.0971
38392W        W81486  28.415  28.385   8.379  0.1317  0.0051 -0.0830
38393W        W81487  27.337  27.428   9.766  0.2948 -0.0190  0.1586
38394W        W81488  27.709  26.955   7.358 -0.2372 -0.0992 -0.1929
38395W        W81489  29.154  28.798   8.069 -0.2430  0.2132  0.1448
38396W        W81490  24.229  24.926  10.191  0.4592  0.1968 -0.0985
38397W        W81491  27.833  27.302   9.085  0.1450 -0.1281  0.2310
38398W        W81492  29.149  27.448   9.871  0.1369  0.0278 -0.1257
38399W        W81493  26.417  26.062   9.121  0.2618  0.0094  0.0735
38400W        W81494  27.546  26.871   9.892 -0.1473  0.3470  0.1163
38401W        W81495  24.341  30.445   7.884  0.0955  0.0110 -0.1585
38402W        W81496  26.938  28.532  10.455  0.0714 -0.2437 -0.0969
38403W        W81497  27.517  27.808  10.071  0.1185 -0.3528  0.1851
38404W        W81498  28.317  28.160   8.934 -0.0438 -0.2361  0.0298
38405W        W81499  27.320  27.292   9.117 -0.0683  0.0002 -0.2715
38406W        W81500  26.239  26.422   7.179 -0.0430  0.1563 -0.3694
38407W        W81501  26.373  23.434   9.008 -0.2884 -0.0015  0.4114
38408W        W81502  23.151  28.289  10.134  0.1843 -0.2339  0.3031
38409W        W81503  26.620  28.541   9.141 -0.4259 -0.0610 -0.0509
38410W        W81504  26.355  26.253   8.098  0.0093 -0.0588 -0.1709
38411W        W81505  25.218  27.883   9.211 -0.2007 -0.3404  0.0754
38412W        W81506  28.197  28.166   8.012  0.2036  0.0136  0.1757
38413W        W81507  26.827  25.978   8.776  0.2644  0.1106 -0.3242
38414W        W81508  26.069  27.873   9.846  0.2906  0.3667  0.0566
38415W        W81509  26.043  29.126   7.278 -0.1045 -0.0125 -0.0534
38416W        W81510  28.491  29.262   9.875 -0.1779 -0.0500  0.0045
38417W        W81511  25.691  29.151   8.348  0.3523 -0.1079 -0.0110
38418W        W81512  29.976  25.708   9.431 -0.0333 -0.0046  0.1090
38419W        W81513  25.001  28.688   9.347  0.1765 -0.0421 -0.1523
38420W        W81514  25.510  26.268   8.273  0.1828 -0.2304 -0.1155
38421W        W81515  23.524  26.864   8.539 -0.1996 -0.0539  0.4055
38422W        W81516  28.743  26.883   8.188  0.1639  0.1248  0.0243
38423W        W81517  28.890  27.269   8.450 -0.1871 -0.1015 -0.1229
38424W        W81518  25.620  26.238  10.388  0.1930  0.0502 -0.1228
38425W        W81519  26.962  26.502   8.977  0.2037  0.1179 -0.0567
38426W        W81520  24.796  27.991  10.359 -0.2716 -0.0683 -0.1969
38427W        W81521  27.645  26.789   8.325  0.0480 -0.0347  0.2517
38428W        W81522  24.656  25.848   7.924 -0.0190 -0.1695  0.1179
38429W        W81523  29.019  28.245   9.659 -0.1232  0.0210 -0.0811
38430W        W81524  27.070  24.958   9.271 -0.3261  0.2523 -0.0256
38431W        W81525  25.772  26.783   8.203 -0.0046  0.1619  0.1060
38432W        W81526  25.511  26.691  10.027  0.2216 -0.1532  0.1534
38433W        W81527  25.854  27.802   8.006 -0.2825 -0.0845 -0.0317
38434W        W81528  25.799  27.535   8.520 -0.3390 -0.1171  0.1392
38435W        W81529  27.595  27.979   9.355 -0.4172  0.0541 -0.0417
38436W        W81530  26.868  27.239   9.350  0.0239  0.0219  0.0609
38437W        W81531  25.870  25.887   8.936 -0.0040  0.0179 -0.0399
38438W        W81532  27.006  26.414   9.749  0.1669 -0.2107  0.3471
38439W        W81533  29.095  29.265   9.404 -0.0978 -0.2755 -0.0732
38440W        W81534  27.055  27.015  10.545 -0.0657 -0.0725  0.2026
38441W        W81535  27.438  26.363   8.273  0.0367  0.1896 -0.3339
38442W        W81536  28.924  29.820   6.996  0.1109 -0.4899  0.0034
38443W        W81537  27.556  27.416   7.539 -0.3017  0.3738  0.0559
38444W        W81538  24.252  25.958  10.235 -0.0164 -0.0168  0.3095
38445W        W81539  25.882  28.325   7.928 -0.1372 -0.1221  0.0526
38446W        W81540  27.765  28.546   9.588 -0.1612 -0.1238 -0.1578
38447W        W81541  25.273  28.324   9.577  0.2582 -0.1278 -0.0183
38448W        W81542  25.707  28.173   7.100 -0.3163 -0.2165 -0.1116
38449W        W81543  23.618  26.481   9.975  0.2006  0.1995  0.0632
38450W        W81544  27.663  25.544   7.664  0.2254 -0.2414 -0.2125
38451W        W81545  28.386  29.164   6.522 -0.1426 -0.1408  0.0611
38452W        W81546  27.965  27.141   8.605 -0.1708  0.1061  0.0078
38453W        W81547  27.757  28.527   7.831 -0.0055 -0.2806  0.0625
38454W        W81548  27.022  27.436  10.252  0.2534  0.0529 -0.0039
38455W        W81549  28.906  28.994   8.993  0.1685 -0.2410  0.0065
38456W        W81550  27.418  26.429   8.833 -0.2177  0.0969 -0.3485
38457W        W81551  27.646  25.553   8.211  0.0632  0.0232 -0.1539
38458W        W81552  25.921  28.195  10.344  0.1811 -0.3835 -0.1123
38459W        W81553  29.645  28.043   9.117 -0.1411 -0.1168 -0.1596
38460W        W81554  27.650  27.565   8.578  0.0387 -0.2884 -0.2214
38461W        W81555  29.172  27.302   9.327  0.1307  0.1402 -0.3023
38462W        W81556  26.575  25.792   9.612 -0.0800 -0.1407 -0.0988
38463W        W81557  28.194  27.498   8.338 -0.1414  0.0018  0.1488
38464W        W81558  27.991  27.708   7.879  0.2751  0.2705 -0.1108
38465W        W81559  26.163  27.785   8.848 -0.3489  0.1149  0.0866
38466W        W81560  30.563  27.127  10.071  0.0570  0.0562 -0.0481
38467W        W81561  29.077  27.746   8.463  0.0998  0.0220  0.2672
38468W        W81562  30.305  29.456   9.585  0.1579  0.1270 -0.2415
38469W        W81563  28.358  28.341   6.993 -0.1468  0.2101  0.1615
38470W        W81564  29.458  26.431   9.405 -0.0807 -0.1758 -0.0331
38471W        W81565  27.965  28.020   9.827 -0.1456 -0.3041 -0.2340
38472W        W81566  27.128  26.750   8.138 -0.2082 -0.0226  0.1136
38473W        W81567  25.881  26.364   9.892  0.4303 -0.0710  0.1420
38474W        W81568  26.821  25.858   7.267  0.2287 -0.1141  0.2469
38475W        W81569  27.528  29.956   7.681  0.0558  0.0008 -0.1311
38476W        W81570  28.427  28.189   9.709  0.0424  0.1377 -0.0667
38477W        W81571  29.994  27.295   9.299 -0.0309  0.0506  0.2477
38478W        W81572  26.045  25.205   9.501 -0.1305 -0.4325 -0.0397
38479W        W81573  25.780  26.619   6.954 -0.1702  0.2455  0.1701
38480W        W81574  28.134  28.723   7.475 -0.0416 -0.1370 -0.0561
38481W        W81575  28.143  29.612  10.163 -0.2243  0.0660 -0.2785
38482W        W81576  28.125  26.615   8.643 -0.0537  0.0329  0.2071
38483W        W81577  25.793  28.331   9.518 -0.2345 -0.1832  0.1331
38484W        W81578  26.417  26.548   8.996  0.0806 -0.0321  0.2873
38485W        W81579  24.946  28.331   9.938  0.1419  0.0292 -0.1117
38486W        W81580  25.637  27.732   8.931  0.1148 -0.1957  0.1538
38487W        W81581  27.149  26.696  10.130  0.0197  0.0429 -0.1920
38488W        W81582  28.677  28.099   9.298 -0.4088  0.2505  0.0492
38489W        W81583  26.523  27.742   9.497 -0.4288 -0.0224  0.3183
38490W        W81584  26.628  26.456   8.561  0.1107 -0.1624  0.0038
38491W        W81585  28.642  28.934  10.216  0.1395  0.1332  0.1210
38492W        W81586  25.148  27.497   8.940 -0.2449 -0.0618  0.0791
38493W        W81587  26.794  28.192   9.600 -0.1032  0.1544 -0.2018
38494W        W81588  26.719  25.717   8.285  0.0348  0.1107  0.1233
38495W        W81589  26.423  28.413   8.304  0.1849  0.0589 -0.1041
38496W        W81590  25.243  25.295   9.187 -0.0255 -0.1733  0.2300
38497W        W81591  26.304  29.224   7.877  0.3123  0.1636  0.1194
38498W        W81592  29.171  28.172   8.170 -0.1076 -0.0601  0.0914
38499W        W81593  27.791  28.431   8.307  0.3469  0.1655 -0.2367
38500W        W81594  27.243  29.309   9.932  0.0138 -0.1385  0.1084
38501W        W81595  27.159  26.255   7.376  0.0965 -0.0873  0.0502
38502W        W81596  25.051  28.017   8.765 -0.1711  0.4568 -0.1022
38503W        W81597  25.461  29.599   7.995  0.2567 -0.1561  0.2777
38504W        W81598  26.088  28.344   8.977 -0.2125 -0.3742  0.1185
38505W        W81599  25.461  30.189   9.212  0.0729 -0.2314 -0.1657
38506W        W81600  28.201  26.951   7.311 -0.1270  0.1613 -0.0753
38507W        W81601  29.509  25.839   9.478 -0.1779  0.0279  0.1993
38508W        W81602  29.642  27.824   8.609  0.0788  0.0637  0.2824
38509W        W81603  27.200  25.816   9.846  0.2389 -0.1761 -0.0574
38510W        W81604  26.950  26.210   8.209  0.1963 -0.2879  0.0220
38511W        W81605  29.351  29.664   8.600  0.1223 -0.2370 -0.0816
38512W        W81606  24.981  27.066   8.496 -0.1019  0.2350 -0.3891
38513W        W81607  26.566  27.994   8.614  0.0996  0.2140  0.2407
38514W        W81608  26.817  27.498   9.798  0.0587  0.0249 -0.1008
38515W        W81609  27.439  29.292   7.955 -0.0939  0.1458 -0.0431
38516W        W81610  27.314  26.864   9.388 -0.0121  0.0520 -0.2892
38517W        W81611  26.525  28.693   9.674  0.3807 -0.0007 -0.1306
38518W        W81612  24.842  26.793  11.012  0.1646 -0.1343 -0.2632
38519W        W81613  27.107  29.898   9.738 -0.0474  0.0510  0.0180
38520W        W81614  26.675  24.712   8.927  0.1827 -0.0797 -0.1579
38521W        W81615  29.959  26.914   8.890 -0.3445 -0.0946  0.0162
38522W        W81616  26.387  26.525  10.128 -0.0638 -0.0377  0.2337
38523W        W81617  26.277  26.618   9.612  0.1357  0.0731  0.1752
38524W        W81618  28.497  26.926   8.676 -0.0485  0.1493  0.1733
38525W        W81619  26.256  26.159   9.618  0.1546 -0.1466  0.0918
38526W        W81620  23.408  27.356   9.541  0.3394  0.3279  0.1457
38527W        W81621  26.819  26.731   9.404  0.0490  0.1482 -0.4049
38528W        W81622  27.568  27.930   7.536  0.1371 -0.3226 -0.3465
38529W        W81623  25.855  26.941   9.781  0.1141 -0.0448 -0.2487
38530W        W81624  27.244  26.814   8.602  0.0825 -0.1246 -0.1874
38531W        W81625  26.005  27.339   8.997 -0.1919  0.1474 -0.0243
38532W        W81626  25.955  26.661  10.325 -0.1345  0.2408  0.0213
38533W        W81627  26.265  26.193   7.622  0.2308 -0.1509 -0.0258
38534W        W81628  27.887  28.523   6.851  0.1058 -0.2031  0.0350
38535W        W81629  28.837  27.870   9.968  0.0204  0.2687  0.0188
38536W        W81630  27.069  29.711   9.263 -0.0630  0.1131  0.0099
38537W        W81631  30.427  26.658   9.675  0.2074  0.0563 -0.1469
38538W        W81632  30.088  30.286  10.108 -0.2429 -0.3340  0.0113
38539W        W81633  23.794  25.771   9.371  0.2129  0.0133  0.1934
38540W        W81634  26.746  29.128   9.769  0.2322 -0.3637 -0.1019
38541W        W81635  28.665  28.701   9.750 -0.1084  0.0477  0.2531
38542W        W81636  27.625  26.869   8.990 -0.0302  0.1782 -0.1064
38543W        W81637  25.915  25.932   8.251  0.0027  0.1225 -0.0406
38544W        W81638  26.167  29.193   8.448 -0.0200 -0.1955 -0.1123
38545W        W81639  27.887  27.337   9.978 -0.1766 -0.0082 -0.3256
38546W        W81640  26.935  28.413   8.311  0.1579  0.1583  0.1845
38547W        W81641  26.244  29.952   9.773  0.1969 -0.0835  0.0753
38548W        W81642  26.518  27.424   7.501  0.3275  0.0229  0.0256
38549W        W81643  27.081  27.776   9.509  0.3574  0.0335  0.1902
38550W        W81644  27.154  28.877   8.409  0.4505  0.1026  0.1703
38551W        W81645  30.930  26.998   9.748  0.0046 -0.0152  0.1113
38552W        W81646  28.613  27.807   8.188  0.0535 -0.2042  0.1078
38553W        W81647  28.612  29.076   9.421  0.0746 -0.0649  0.1770
38554W        W81648  25.882  26.826   8.742  0.1090  0.1816 -0.1046
38555W        W81649  28.298  26.313   6.801 -0.0460 -0.2481  0.3004
38556W        W81650  29.074  26.135   9.510  0.1753  0.2579  0.2019
38557W        W81651  23.295  27.364  10.031 -0.0452 -0.0065 -0.0803
38558W        W81652  25.835  26.444   7.471  0.2744 -0.2586  0.0722
38559W        W81653  25.775  29.151   7.825  0.4380 -0.0435  0.0521
38560W        W81654  25.070  27.861   9.657 -0.0692  0.1429  0.0050
38561W        W81655  26.072  27.894   9.320 -0.0361  0.0263 -0.1192
38562W        W81656  27.094  25.524   8.638  0.3057  0.1564 -0.0003
38563W        W81657  29.247  27.444   7.335 -0.1523  0.2531  0.0456
38564W        W81658  26.788  26.198   9.368  0.2334 -0.0738 -0.2313
38565W        W81659  26.319  25.877   8.609  0.0346 -0.2040 -0.1213
38566W        W81660  28.927  28.582   9.250 -0.1475  0.2132  0.0956
38567W        W81661  27.018  29.306   8.935  0.0102 -0.0348  0.2703
38568W        W81662  27.903  26.504   8.032  0.1579  0.2358  0.1238
38569W        W81663  24.589  27.210   7.349 -0.0305 -0.0155  0.0302
38570W        W81664  26.361  25.927   7.112 -0.1889 -0.0209  0.1305
38571W        W81665  26.362  26.995   9.179  0.2656 -0.1041  0.0557
38572W        W81666  27.983  27.790   8.977 -0.1038  0.2204 -0.4136
38573W        W81667  28.559  28.316   7.441  0.2360 -0.2192  0.4214
38574W        W81668  24.037  26.417  10.247  0.0089 -0.3725  0.0210
38575W        W81669  29.162  27.746   8.938  0.2681  0.0278  0.1486
38576W        W81670  28.655  28.805   8.277 -0.1117 -0.1420  0.0467
38577W        W81671  29.041  26.655  10.061 -0.1524 -0.2879 -0.0821
38578W        W81672  28.112  27.977   8.454  0.0516 -0.0166  0.2210
38579W        W81673  28.250  25.585  10.070  0.1798  0.3138 -0.2990
38580W        W81674  26.261  25.586   9.145  0.0857 -0.0071  0.1223
38581W        W81675  27.295  28.205   9.800  0.0704 -0.0706  0.0794
38582W        W81676  28.027  29.124   7.778 -0.0462 -0.2651  0.1614
38583W        W81677  24.762  25.852  10.111 -0.0053  0.0619 -0.2034
38584W        W81678  27.586  26.884   7.840  0.0478 -0.3210  0.1924
38585W        W81679  26.364  29.167   8.961  0.0839  0.1222  0.1632
38586W        W81680  27.375  27.625   8.137  0.1809  0.0536  0.0416
38587W        W81681  28.598  27.685   8.647 -0.1378 -0.1993 -0.1734
38588W        W81682  26.938  27.945  10.005  0.1773  0.0503 -0.2297
38589W        W81683  25.471  26.784   9.039 -0.3678 -0.1609 -0.3609
38590W        W81684  29.977  29.514   9.949 -0.1272 -0.0679  0.2334
38591W        W81685  26.110  25.679   9.643 -0.0369  0.2389  0.1710
38592W        W81686  26.430  27.980   8.057  0.1043  0.2101  0.1531
38593W        W81687  27.349  28.393   8.097 -0.2447 -0.3366  0.0368
38594W        W81688  28.428  27.576   9.790 -0.1352 -0.2286 -0.1421
38595W        W81689  25.884  26.388   7.958  0.0416  0.0508 -0.0973
38596W        W81690  27.201  25.723   8.118  0.1470 -0.0438 -0.1192
38597W        W81691  25.394  28.863   9.913  0.1334  0.2453  0.1914
38598W        W81692  28.381  27.688   9.236 -0.0133  0.0388 -0.0676
38599W        W81693  27.026  32.741   2.629 -0.0962 -0.3285  0.1909
38600W        W81694  26.907  33.132   2.226 -0.1786 -0.0117 -0.1782
38601W        W81695  27.923  29.821  31.500 -0.3063 -0.2246  0.0868
38602W        W81696  29.078  29.959   2.100 -0.1226  0.0983  0.2983
38603W        W81697  25.791  29.713   1.931 -0.2540 -0.1056 -0.4232
38604W        W81698  28.527  31.752   0.358 -0.1204  0.0896  0.1650
38605W        W81699  25.911  28.660   4.727  0.1352  0.1542  0.0785
38606W        W81700  28.629  31.157   2.418  0.0061 -0.2014 -0.0879
38607W        W81701  29.581  32.285   2.586 -0.3107 -0.0520  0.0216
38608W        W81702  28.306  30.725   0.238  0.1194  0.1000 -0.0146
38609W        W81703  26.000  30.409   2.555  0.0046  0.1152 -0.0637
38610W        W81704  26.688  32.359   2.483  0.2682 -0.2334  0.3418
38611W        W81705  27.249  29.164   1.166  0.1797 -0.1059  0.1978
38612W        W81706  25.785  28.335   3.276 -0.0038 -0.1207 -0.0916
38613W        W81707  28.183  30.293   2.501 -0.1611  0.0906 -0.1633
38614W        W81708  27.049  31.022   0.682  0.1035 -0.0830 -0.0652
38615W        W81709  26.790  30.387   1.471  0.2344  0.1016 -0.1749
38616W        W81710  27.797  31.358   1.287  0.0284  0.1057 -0.0960
38617W        W81711  26.941  34.135   1.014 -0.2565  0.2576 -0.0082
38618W        W81712  26.771  28.684   2.873  0.1102  0.0758 -0.1919
38619W        W81713  26.943  29.448   2.450  0.1489 -0.0352 -0.0902
38620W        W81714  27.360  31.730  31.697 -0.1850 -0.1925 -0.1574
38621W        W81715  26.457  31.716  31.965  0.0271 -0.0745 -0.2306
38622W        W81716  25.140  30.855   1.229 -0.0555 -0.1152 -0.1011
38623W        W81717  25.984  31.133   3.313  0.0134 -0.1451 -0.3739
38624W        W81718  28.549  29.491   2.846 -0.0278 -0.0941 -0.3639
38625W        W81719  28.163  30.976   2.500 -0.4367 -0.1205  0.0478
38626W        W81720  27.759  33.276   1.409  0.0843  0.1076  0.3273
38627W        W81721  28.618  32.336   0.362  0.0688  0.2875 -0.0047
38628W        W81722  27.765  30.104   3.771  0.0237  0.2588  0.1421
38629W        W81723  25.868  31.653   1.343 -0.0451  0.0842 -0.0006
38630W        W81724  24.698  33.705   1.495  0.2045  0.0791  0.1195
38631W        W81725  26.849  31.462   0.858 -0.1829 -0.1185  0.0734
38632W        W81726  29.141  32.553  31.200  0.0011  0.1670  0.0674
38633W        W81727  28.338  32.544   2.177 -0.1501  0.2786  0.0825
38634W        W81728  27.757  30.847   2.857 -0.1645  0.3322  0.3293
38635W        W81729  25.479  31.969  31.610  0.1350  0.1490 -0.0342
38636W        W81730  26.981  32.070   3.419 -0.2424  0.0574  0.3225
38637W        W81731  25.738  34.427   2.845 -0.2317  0.1402  0.1123
38638W        W81732  26.718  31.302   1.897 -0.2061 -0.1137  0.4459
38639W        W81733  26.843  31.391   1.386 -0.1573 -0.2937  0.1653
38640W        W81734  27.833  31.836   1.125 -0.4439 -0.0381 -0.2790
38641W        W81735  27.442  32.357   1.878  0.0512 -0.3827  0.0917
38642W        W81736  25.908  32.287   3.459 -0.1624 -0.0767  0.0349
38643W        W81737  26.315  33.011   0.107 -0.2822 -0.3373 -0.0021
38644W        W81738  29.823  29.072   3.736  0.0607 -0.1050 -0.3451
38645W        W81739  26.534  33.413   0.732  0.2937 -0.0819  0.1780
38646W        W81740  28.210  32.048   0.793 -0.1871  0.1105  0.1439
38647W        W81741  27.109  29.426   0.745 -0.0696 -0.1226  0.0297
38648W        W81742  28.770  28.828   1.256 -0.0305  0.2621 -0.0215
38649W        W81743  26.306  29.616   1.448 -0.1107  0.0075  0.1666
38650W        W81744  26.224  32.616   2.462 -0.3663  0.0454 -0.1721
38651W        W81745  28.186  29.805   1.641 -0.3899 -0.0809 -0.0300
38652W        W81746  28.688  31.939   1.937 -0.4744 -0.0889 -0.2187
38653W        W81747  28.266  29.485   0.662  0.0622 -0.0442 -0.4654
38654W        W81748  26.929  30.302   2.858 -0.1167  0.0759 -0.4121
38655W        W81749  26.204  32.212   2.755  0.1235 -0.1530 -0.1438
38656W        W81750  24.954  31.628   1.920  0.0205 -0.2022  0.2818
38657W        W81751  29.669  31.891  30.871  0.1872 -0.0969 -0.3623
38658W        W81752  28.112  32.506   0.667 -0.2115  0.2366  0.1630
38659W        W81753  27.899  32.291   1.224  0.0572  0.0156  0.2403
38660W        W81754  26.048  30.972   1.366 -0.2071  0.1092  0.2362
38661W        W81755  26.345  31.731   3.085 -0.1872  0.2152  0.1800
38662W        W81756  26.098  30.582   2.068 -0.1260  0.0042  0.2861
38663W        W81757  27.842  29.426  31.906 -0.1246  0.0144 -0.1454
38664W        W81758  27.890  32.798   3.533 -0.0089  0.0810  0.2149
38665W        W81759  25.547  31.395   2.524  0.2026 -0.0496 -0.3422
38666W        W81760  29.679  29.943   1.124 -0.2601 -0.1241 -0.2239
38667W        W81761  26.784  32.070   2.896  0.1296 -0.0872  0.1267
38668W        W81762  29.787  30.703   2.686 -0.2280 -0.3047 -0.5259
38669W        W81763  27.024  31.433  31.956 -0.1187  0.3166  0.0329
38670W        W81764  27.350  30.222   1.334  0.4277 -0.2564  0.0546
38671W        W81765  28.601  30.418   3.587 -0.0032  0.2657  0.3082
38672W        W81766  27.074  29.871   0.562  0.1559  0.2335 -0.1761
38673W        W81767  26.733  30.004   0.919 -0.0782 -0.2567  0.1201
38674W        W81768  30.193  31.076   2.908  0.2226  0.2711  0.1151
38675W        W81769  30.208  31.394   0.257 -0.1716 -0.1663  0.1020
38676W        W81770  25.553  32.974   1.626  0.3518  0.2484  0.0094
38677W        W81771  27.366  29.818   3.629  0.0186  0.0166  0.0914
38678W        W81772  26.760  32.412   3.736 -0.0772 -0.1036 -0.1273
38679W        W81773  25.852  33.502  31.377 -0.0940  0.0461  0.0121
38680W        W81774  25.316  31.389  31.543 -0.1398 -0.0371 -0.2942
38681W        W81775  25.866  32.547   1.560  0.1478  0.0341  0.0076
38682W        W81776  25.947  29.577   3.819 -0.0048 -0.3297  0.0896
38683W        W81777  25.849  32.144   2.405  0.0380  0.3666  0.1649
38684W        W81778  28.525  29.851   0.249 -0.5346  0.2942  0.1115
38685W        W81779  25.008  30.159   2.813 -0.0030  0.0715 -0.2359
38686W        W81780  29.261  29.533   2.901  0.1517  0.3799 -0.1492
38687W        W81781  25.932  30.864   0.385  0.1371  0.0793 -0.0298
38688W        W81782  30.288  34.366   0.886  0.0122  0.1271  0.0359
38689W        W81783  28.750  30.746  31.931  0.2222 -0.0151  0.0584
38690W        W81784  28.762  31.651   1.131 -0.0409 -0.0206  0.0302
38691W        W81785  26.519  31.201   3.042  0.1931 -0.2550  0.3225
38692W        W81786  25.852  31.351   2.040 -0.1353 -0.1408  0.2538
38693W        W81787  24.842  30.626   4.137 -0.2977  0.2691  0.0096
38694W        W81788  25.531  28.968   1.504  0.0923 -0.1604 -0.0247
38695W        W81789  27.027  32.091   2.094  0.1372 -0.1153 -0.3630
38696W        W81790  26.091  30.811   0.877  0.2209 -0.0563 -0.0417
38697W        W81791  27.688  30.915   1.607  0.0301 -0.1117 -0.0656
38698W        W81792  26.203  30.194   1.821 -0.3349 -0.1208  0.3285
38699W        W81793  26.031  30.312   1.020 -0.3781  0.4277 -0.0612
38700W        W81794  27.360  28.929   3.509  0.4014 -0.0574 -0.1502
38701W        W81795  27.197  33.175   1.202 -0.0283 -0.1877 -0.2480
38702W        W81796  28.487  33.065   1.854 -0.4023  0.2442  0.2310
38703W        W81797  29.164  31.338   1.134  0.1209  0.2315  0.4199
38704W        W81798  26.325  30.391   2.968 -0.1825  0.1064  0.0366
38705W        W81799  27.920  31.064   2.061  0.2207  0.2812  0.0899
38706W        W81800  26.469  32.927   0.659 -0.0368  0.0834 -0.1960
38707W        W81801  27.447  30.859   2.462  0.2922 -0.0008 -0.1242
38708W        W81802  25.029  30.067   1.371 -0.1939  0.2523 -0.4653
38709W        W81803  29.841  32.101   1.094  0.0653 -0.0665  0.2048
38710W        W81804  27.720  32.016   1.610 -0.1395 -0.1888 -0.1288
38711W        W81805  26.304  33.097   3.169 -0.0943 -0.0278 -0.0495
38712W        W81806  28.322  29.284   2.089  0.2026  0.0091  0.0266
38713W        W81807  28.180  29.908   2.968 -0.0787 -0.0011 -0.0674
38714W        W81808  29.496  30.793   2.293  0.0502  0.0157 -0.3446
38715W        W81809  25.557  27.050   0.473 -0.0080  0.1055  0.5346
38716W        W81810  26.963  32.657   2.108  0.1918  0.0986  0.0464
38717W        W81811  25.527  33.965  31.650  0.3567  0.1186  0.1603
38718W        W81812  24.748  31.632   1.327 -0.1225  0.0605 -0.0065
38719W        W81813  26.789  32.341   1.217  0.0560  0.2385 -0.0511
38720W        W81814  27.640  28.315   0.495  0.1075  0.0808  0.0766
38721W        W81815  26.531  31.507   4.795 -0.1454 -0.1900 -0.1617
38722W        W81816  28.260  29.156   2.567  0.1790  0.0139  0.2832
38723W        W81817  25.086  30.113   0.554  0.4075  0.0686 -0.0163
38724W        W81818  24.958  31.318   2.867  0.0805 -0.0829 -0.0122
38725W        W81819  28.398  28.408  31.879  0.0193 -0.1521  0.0508
38726W        W81820  28.784  29.604   0.670  0.1718 -0.1285  0.2465
38727W        W81821  26.191  31.804   4.437  0.3364  0.1973 -0.0673
38728W        W81822  28.691  30.787   1.762 -0.0392 -0.0240  0.1131
38729W        W81823  27.543  30.151   0.333 -0.0298 -0.0669 -0.0820
38730W        W81824  26.481  30.470   0.863  0.0909  0.0334 -0.0446
38731W        W81825  24.977  32.243   4.071 -0.0145  0.1372  0.0512
38732W        W81826  25.627  30.742   2.007 -0.0870 -0.2441  0.0716
38733W        W81827  26.031  31.019   2.384 -0.1266 -0.2854 -0.1288
38734W        W81828  26.446  28.591  31.215 -0.4469  0.2259  0.0180
38735W        W81829  28.867  33.791   1.262 -0.1239 -0.1411 -0.1146
38736W        W81830  25.541  32.133   1.762  0.2008  0.3663  0.0105
38737W        W81831  27.193  32.663   4.016 -0.1167 -0.1087 -0.1817
38738W        W81832  29.356  32.911   1.233  0.1084  0.1596 -0.2534
38739W        W81833  27.830  28.796   3.529  0.3130 -0.1625 -0.1915
38740W        W81834  27.289  30.048   1.838  0.0137  0.0947  0.1858
38741W        W81835  27.815  30.246   1.606 -0.1584 -0.2338  0.3565
38742W        W81836  26.670  34.078  31.615 -0.1079  0.1639 -0.2577
38743W        W81837  28.359  29.700   2.422  0.0359  0.1035  0.0156
38744W        W81838  27.803  29.821   2.662  0.1140 -0.0639  0.2981
38745W        W81839  26.594  29.974   3.181 -0.2638 -0.1809  0.1480
38746W        W81840  29.170  31.684   4.110 -0.3701 -0.3270 -0.3132
38747W        W81841  28.403  30.970   1.085 -0.0138 -0.0528 -0.2193
38748W        W81842  27.966  31.172   3.191  0.0346  0.2378 -0.1681
38749W        W81843  25.231  31.507   0.048  0.0384 -0.0608  0.0135
38750W        W81844  27.362  29.195   2.221  0.0838  0.0124 -0.2418
38751W        W81845  27.077  32.564   3.389  0.1861  0.0306 -0.1597
38752W        W81846  26.143  32.137   1.609  0.0622  0.4518  0.0032
38753W        W81847  27.877  32.502   2.983 -0.0915  0.2728 -0.0084
38754W        W81848  27.932  31.546   2.342 -0.2090  0.1642  0.0400
38755W        W81849  27.253  29.842   2.704  0.1354  0.2851  0.1360
38756W        W81850  27.072  29.589  31.799 -0.0813 -0.0382 -0.1448
38757W        W81851  26.862  32.228   0.238  0.1490  0.2254  0.0623
38758W        W81852  28.550  31.649   1.595  0.0214 -0.0418  0.5087
38759W        W81853  27.529  29.664   0.517 -0.1900 -0.0761  0.3747
38760W        W81854  27.487  32.828   3.130 -0.3104 -0.0049 -0.3967
38761W        W81855  24.840  31.801  31.894 -0.2426  0.0778  0.0930
38762W        W81856  27.145  31.966   2.585 -0.2282  0.1408 -0.1910
38763W        W81857  26.780  33.234   0.303  0.0375 -0.0844 -0.0499
38764W        W81858  28.480  29.339   1.542  0.3994  0.0881 -0.1382
38765W        W81859  24.958  31.778   0.402 -0.3977 -0.2110  0.1673
38766W        W81860  25.681  30.720   1.168 -0.0939  0.0358  0.1883
38767W        W81861  25.501  30.214   1.305  0.0637 -0.0267  0.1406
38768W        W81862  28.501  30.048   0.809 -0.2177 -0.0755 -0.0493
38769W        W81863  29.352  30.450   1.218  0.0737 -0.3042  0.1644
38770W        W81864  25.408  30.440   2.744  0.0778  0.3448 -0.0872
38771W        W81865  27.318  29.318   2.759  0.1028 -0.4387  0.0983
38772W        W81866  25.530  32.732   3.374  0.0110  0.0295 -0.2407
38773W        W81867  28.343  30.640   2.858  0.0364 -0.1056 -0.2398
38774W        W81868  27.079  30.300  30.999  0.4839  0.1864 -0.1193
38775W        W81869  28.927  31.456   2.777  0.1103 -0.2672  0.2242
38776W        W81870  27.388  31.491   3.272 -0.2044 -0.1470 -0.0385
38777W        W81871  24.059  28.632   0.519  0.0067  0.1637  0.3782
38778W        W81872  28.161  30.133   3.456  0.0450  0.1077 -0.1553
38779W        W81873  26.530  30.360   2.512  0.1819  0.4301 -0.1404
38780W        W81874  25.552  30.964  31.645 -0.3039 -0.0512 -0.1315
38781W        W81875  27.834  32.680   2.208 -0.0015 -0.2020 -0.0244
38782W        W81876  26.673  31.254   0.271 -0.0199 -0.0621 -0.2133
38783W        W81877  27.533  32.629   1.516  0.2929 -0.1481 -0.2916
38784W        W81878  26.640  29.969   1.837 -0.1022 -0.1706  0.1589
38785W        W81879  27.774  31.874   4.026  0.0312 -0.1310 -0.1088
38786W        W81880  27.224  31.208   1.631 -0.2265  0.0322 -0.1248
38787W        W81881  25.390  30.610   1.579  0.4741 -0.0841  0.0054
38788W        W81882  26.996  31.972   1.602 -0.0898 -0.0666  0.1957
38789W        W81883  28.560  29.775   1.950 -0.0889  0.0355 -0.2821
38790W        W81884  27.713  30.330   2.801 -0.0072 -0.1884  0.1901
38791W        W81885  25.379  31.646   4.889  0.2364  0.0928 -0.0570
38792W        W81886  27.459  28.064   2.939  0.3962  0.0266  0.0161
38793W        W81887  29.554  32.190   0.267  0.1165  0.0796  0.1907
38794W        W81888  25.563  31.113   2.956 -0.2885  0.0581  0.1889
38795W        W81889  25.731  30.413   0.174  0.3368  0.1839 -0.2699
38796W        W81890  24.101  31.455   2.747 -0.0397  0.1166 -0.0306
38797W        W81891  26.954  31.580   2.857  0.0547 -0.2418  0.2453
38798W        W81892  27.875  30.627   2.383  0.4189 -0.1168 -0.4109
38799W        W81893  24.622  31.485   2.359  0.1729 -0.0293 -0.0642
38800W        W81894  28.269  31.140   1.657  0.0850 -0.0648  0.1518
38801W        W81895  25.487  31.616   1.759 -0.1850  0.0803  0.1812
38802W        W81896  28.519  28.219  31.398  0.0631  0.0794  0.0097
38803W        W81897  26.588  33.003   2.612  0.0695 -0.0313  0.0608
38804W        W81898  26.862  30.699   2.517  0.0582  0.0630 -0.2769
38805W        W81899  28.933  28.813   3.218 -0.3996 -0.2439 -0.2594
38806W        W81900  28.700  31.223   1.458  0.2141 -0.1040  0.0650
38807W        W81901  26.917  28.645   4.607  0.0511  0.1270 -0.1967
38808W        W81902  25.931  29.254   4.710  0.1421 -0.0051 -0.0341
38809W        W81903  28.100  30.673   1.869 -0.0584 -0.1324  0.1635
38810W        W81904  25.506  29.008   4.886 -0.0786 -0.1229 -0.1530
38811W        W81905  27.270  33.346   4.686 -0.2899 -0.0963 -0.2122
38812W        W81906  26.381  30.807   2.654 -0.0815  0.0477 -0.1133
38813W        W81907  27.579  30.521   1.929 -0.2691 -0.0985 -0.0021
38814W        W81908  26.831  29.324   1.542  0.2117  0.1074 -0.2149
38815W        W81909  27.571  32.425   3.426 -0.2594 -0.2078  0.2872
38816W        W81910  29.324  31.584   2.031  0.3602  0.0172  0.2348
38817W        W81911  28.364  32.005   2.360  0.0548 -0.0320 -0.0787
38818W        W81912  28.116  30.527   0.824 -0.2970  0.2413 -0.1664
38819W        W81913  24.526  32.039   2.071 -0.2261  0.3280  0.0876
38820W        W81914  28.905  29.543   1.676 -0.1083  0.1358  0.1364
38821W        W81915  26.821  30.795   1.732  0.1908 -0.0887  0.0428
38822W        W81916  25.717  32.111   1.272 -0.1102  0.0314  0.1772
38823W        W81917  26.332  29.487   2.542 -0.0415  0.2200 -0.3328
38824W        W81918  28.972  30.916   2.713  0.1722  0.2300 -0.2116
38825W        W81919  28.717  30.249   2.193  0.2825 -0.2324 -0.0233
38826W        W81920  28.083  29.394   2.989 -0.0752  0.0905  0.0815
38827W        W81921  28.377  31.548   2.625  0.1198  0.4188  0.1634
38828W        W81922  25.626  30.364   3.621 -0.0922 -0.0270  0.0879
38829W        W81923  25.733  29.375   4.267 -0.0435  0.0377 -0.0048
38830W        W81924  29.190  31.846   1.062  0.2601 -0.1076  0.1544
38831W        W81925  29.263  29.616   0.891  0.0368 -0.2072  0.0044
38832W        W81926  28.444  30.662   2.237  0.1908  0.0919  0.1454
38833W        W81927  27.460  30.671   1.180  0.1670 -0.2851  0.0270
38834W        W81928  27.778  29.170   1.753 -0.0354 -0.2570  0.0376
38835W        W81929  25.587  30.852   2.516 -0.0426 -0.1864 -0.0091
38836W        W81930  28.320  31.387   3.615  0.2725  0.1571  0.2906
38837W        W81931  25.553  30.208   2.351 -0.1246 -0.4108  0.1172
38838W        W81932  27.634  30.138   2.224  0.0684  0.0663 -0.2218
38839W        W81933  27.396  32.985   0.373 -0.2686  0.0559 -0.1029
38840W        W81934  28.787  32.515   1.979 -0.3963 -0.0058  0.0471
38841W        W81935  28.465  29.172   1.055  0.2242  0.2057  0.2536
38842W        W81936  25.741  29.780   2.527 -0.0439  0.0506 -0.1470
38843W        W81937  24.807  32.039   3.560  0.3642 -0.0727  0.0062
38844W        W81938  25.270  29.509   1.168  0.1247  0.0183  0.1618
38845W        W81939  27.363  31.190  31.685 -0.2837  0.1956  0.1793
38846W        W81940  26.438  31.766   2.589 -0.0832 -0.0259 -0.1396
38847W        W81941  28.410  32.532   3.820  0.1590  0.0148 -0.2452
38848W        W81942  28.188  30.183   1.205 -0.3185  0.3757 -0.3885
38849W        W81943  27.628  30.088   3.235  0.0972  0.0899 -0.4080
38850W        W81944  26.619  32.275   0.705  0.0891  0.3122  0.2503
38851W        W81945  26.590  30.100   0.344  0.1540 -0.1257 -0.1139
38852W        W81946  26.691  32.587   2.966 -0.0152 -0.3093 -0.1729
38853W        W81947  25.699  33.534   3.259  0.0669  0.0594  0.1304
38854W        W81948  26.691  32.300   1.815 -0.2403 -0.0316 -0.2297
38855W        W81949  27.554  29.635   3.059  0.0256 -0.1475 -0.0578
38856W        W81950  28.834  29.458  31.950  0.0038 -0.2966  0.1474
38857W        W81951  27.079  31.048   2.161 -0.1522 -0.2571  0.4010
38858W        W81952  28.826  30.003   3.610 -0.1029  0.1012  0.1190
38859W        W81953  26.917  33.453   2.665  0.1183  0.0942  0.1170
38860W        W81954  26.477  31.075   1.442 -0.0057 -0.1526 -0.4343
38861W        W81955  27.521  33.017   3.833  0.4535 -0.1360  0.3558
38862W        W81956  29.337  31.089   1.895  0.0469 -0.0492  0.0353
38863W        W81957  27.407  31.663   1.440 -0.1589 -0.0213  0.1767
38864W        W81958  24.738  31.229   4.240  0.0375  0.2865  0.4142
38865W        W81959  27.471  32.246   3.883  0.1149 -0.3232 -0.2020
38866W        W81960  27.716  31.423   1.793  0.3472  0.0324 -0.1453
38867W        W81961  25.756  29.682   0.292  0.3515  0.2231  0.2792
38868W        W81962  26.169  31.373   0.137 -0.3344  0.3162 -0.1831
38869W        W81963  25.296  30.916   4.181 -0.0748  0.0179  0.1145
38870W        W81964  26.126  31.285   2.792  0.2802 -0.0174  0.0081
38871W        W81965  26.368  33.892   0.567  0.0242 -0.1791 -0.1426
38872W        W81966  28.240  31.494   1.196 -0.0522  0.1487 -0.0293
38873W        W81967  29.578  30.740   1.650  0.0567  0.0561  0.0727
38874W        W81968  28.873  31.625   2.349 -0.0005  0.2823  0.2342
38875W        W81969  26.176  30.996   1.860 -0.1045 -0.0540 -0.0297
38876W        W81970  26.612  30.981   0.905  0.0583  0.1755  0.1587
38877W        W81971  24.699  32.326   0.694 -0.1154 -0.0597 -0.1712
38878W        W81972  29.051  31.603   0.571  0.1555 -0.0590 -0.0935
38879W        W81973  26.725  33.312   1.207 -0.0942 -0.1328  0.3204
38880W        W81974  27.896  32.165   2.247 -0.0069  0.0243 -0.0047
38881W        W81975  28.121  28.868  31.959 -0.0746  0.0300 -0.1697
38882W        W81976  28.892  30.377   1.611  0.1959  0.1722 -0.1098
38883W        W81977  29.332  29.475   2.085  0.2818  0.0612  0.1854
38884W        W81978  27.879  32.045   3.274  0.0764  0.2946 -0.3214
38885W        W81979  27.700  29.783   1.853  0.0347 -0.0760  0.1084
38886W        W81980  26.827  30.580   0.460  0.2160 -0.1001 -0.0230
38887W        W81981  25.299  30.982   3.427  0.0812  0.0310  0.3371
38888W        W81982  27.641  28.141   4.230  0.1937  0.2415  0.0468
38889W        W81983  26.241  32.623   3.454  0.1342 -0.3350 -0.1629
38890W        W81984  28.405  32.443   1.080 -0.1223 -0.0061  0.0684
38891W        W81985  25.124  30.435   0.998  0.2357  0.1806  0.0910
38892W        W81986  25.945  31.803   1.926 -0.0504 -0.0636  0.1465
38893W        W81987  28.550  28.711   2.939 -0.0365  0.2816  0.2413
38894W        W81988  28.166  31.379   0.328  0.2516  0.1669  0.3859
38895W        W81989  26.617  30.436   2.019 -0.0812  0.1589  0.0934
38896W        W81990  27.111  32.091   0.672 -0.2217 -0.0775  0.2065
38897W        W81991  26.329  31.411   2.170 -0.3255 -0.3431 -0.0428
38898W        W81992  25.005  31.620   3.412  0.2771  0.0819  0.2434
38899W        W81993  25.345  29.940   0.930  0.0019 -0.2386  0.3773
38900W        W81994  29.854  29.880   1.592  0.0652  0.0642 -0.3522
38901W        W81995  27.274  30.403   2.552 -0.0098 -0.3783 -0.2088
38902W        W81996  29.070  28.623   2.747 -0.2580 -0.5046 -0.0596
38903W        W81997  25.628  30.646   3.178  0.0330 -0.1879 -0.0168
38904W        W81998  27.437  30.082   0.810 -0.0340 -0.1800 -0.0756
38905W        W81999  27.250  32.356   2.963 -0.0357 -0.3174  0.0323
38906W        W82000  25.792  29.718   3.302 -0.0239 -0.3195  0.0712
38907W        W82001  27.968  29.069   0.927 -0.0490  0.1236  0.2542
38908W        W82002  27.973  30.674   3.276 -0.0606  0.0982 -0.1238
38909W        W82003  28.226  30.182  31.887  0.0600  0.2529 -0.0106
38910W        W82004  28.480  32.063   4.058  0.2480  0.1768 -0.0619
38911W        W82005  25.464  29.899   3.651  0.2141  0.2013 -0.2002
38912W        W82006  27.055  30.209   0.143 -0.0754 -0.0510 -0.0779
38913W        W82007  25.960  31.658   2.424 -0.1756 -0.1358  0.1059
38914W        W82008  26.559  30.929   2.200 -0.0408  0.0969 -0.0078
38915W        W82009  28.434  32.988   2.943  0.1722  0.1060 -0.0502
38916W        W82010  26.855  28.840   1.275  0.3103 -0.1870  0.1064
38917W        W82011  29.334  31.174   0.005 -0.0796  0.2975  0.1456
38918W        W82012  28.986  30.730   2.227 -0.1934  0.0387 -0.1256
38919W        W82013  27.825  30.907   1.007 -0.0860 -0.0190  0.0400
38920W        W82014  27.785  30.758   0.460  0.0424  0.2679 -0.1893
38921W        W82015  27.341  32.145   1.237  0.2873  0.0626  0.2873
38922W        W82016  25.676  30.870   3.776 -0.2062  0.0938  0.2950
38923W        W82017  29.690  31.978   2.120 -0.0420 -0.1427  0.2469
38924W        W82018  30.094  30.930   0.602  0.0184 -0.2415  0.0479
38925W        W82019  28.093  29.966   2.098 -0.2973  0.2936 -0.1832
38926W        W82020  25.834  30.185   2.936 -0.3246  0.1304  0.0419
38927W        W82021  26.375  32.545   1.550  0.1903 -0.0833 -0.1900
38928W        W82022  28.690  28.803   2.420  0.1917  0.1181 -0.0623
38929W        W82023  27.894  29.485   2.342  0.2942 -0.1251  0.0382
38930W        W82024  27.407  31.697   0.927  0.3158  0.0411 -0.2508
38931W        W82025  27.580  29.079   3.109  0.1282  0.1328 -0.3161
38932W        W82026  26.346  32.110   2.200 -0.1232  0.0122 -0.4242
38933W        W82027  26.382  32.093   3.402  0.3738 -0.0894  0.1025
38934W        W82028  24.692  30.371   0.584 -0.1865  0.2000  0.0522
38935W        W82029  26.596  30.907   3.492 -0.1288 -0.1711  0.1591
38936W        W82030  26.611  31.803   1.878  0.0806  0.1714 -0.0766
38937W        W82031  26.900  31.860   1.121  0.0185 -0.1946  0.0032
38938W        W82032  28.523  31.124   2.887 -0.0358  0.0525  0.0639
38939W        W82033  27.179  31.665   1.936  0.0911  0.2076  0.0476
38940W        W82034  28.119  30.659   1.337 -0.0524 -0.1727  0.0824
38941W        W82035  27.075  30.491   2.106  0.1790 -0.3967 -0.0093
38942W        W82036  28.641  28.953   1.895 -0.0211  0.0492 -0.1056
38943W        W82037  27.837  29.272   0.425 -0.2886 -0.0462 -0.0053
38944W        W82038  26.890  31.615   2.313  0.3757  0.0445  0.1167
38945W        W82039  23.758  29.764   0.472 -0.2006  0.0413 -0.1016
38946W        W82040  27.246  32.683   1.102  0.2899 -0.0837  0.0615
38947W        W82041  25.931  32.371   2.019 -0.2576  0.2008 -0.1575
38948W        W82042  25.801  29.819   4.801 -0.0364 -0.0825 -0.2777
38949W        W82043  26.709  30.705   3.004 -0.1504 -0.0466  0.0152
38950W        W82044  25.158  30.880   2.782  0.1039  0.4287  0.1596
38951W        W82045  25.447  29.768   1.584  0.0759 -0.1197  0.1166
38952W        W82046  27.182  32.302  31.835 -0.0001 -0.0282  0.1627
38953W        W82047  26.280  29.940   0.745  0.1936  0.2853 -0.3427
38954W        W82048  25.605  30.187   1.854  0.0823  0.0091 -0.0951
38955W        W82049  29.525  31.340   1.489 -0.0075 -0.1135  0.2129
38956W        W82050  29.153  32.355  31.782  0.1620  0.0913  0.3039
38957W        W82051  25.340  29.470   0.008 -0.1568 -0.1898 -0.2672
38958W        W82052  29.535  31.644   2.513 -0.1059 -0.2026  0.0381
38959W        W82053  26.461  32.223  31.852  0.1965  0.0726 -0.2340
38960W        W82054  26.882  29.531   3.043 -0.1569  0.1986  0.1781
38961W        W82055  26.416  29.503   3.215  0.1177  0.0788 -0.1489
38962W        W82056  25.772  31.203   0.951  0.0406 -0.1733 -0.0896
38963W        W82057  28.563  30.531   1.269 -0.1377  0.0676  0.0037
38964W        W82058  27.460  31.361   2.277  0.1144 -0.0328  0.0869
38965W        W82059  28.573  30.810   0.625 -0.2688 -0.0243 -0.0600
38966W        W82060  25.457  32.983   3.942  0.0575  0.0504  0.1041
38967W        W82061  26.415  33.985   3.295 -0.1675 -0.0379  0.0286
38968W        W82062  25.044  29.286   2.857 -0.2739  0.3560  0.1940
38969W        W82063  28.496  31.378   0.688  0.1268  0.2685  0.2010
38970W        W82064  25.332  32.341   3.671 -0.0344 -0.2492  0.2739
38971W        W82065  30.029  32.050   0.187 -0.1220  0.1763 -0.0937
38972W        W82066  29.901  29.826   3.285  0.0251  0.0550 -0.0952
38973W        W82067  25.893  30.546   1.569  0.0531 -0.4831  0.2055
38974W        W82068  25.348  28.646   4.509 -0.0456 -0.2333  0.1411
38975W        W82069  26.606  31.907   3.863 -0.3588  0.1907  0.2037
38976W        W82070  29.055  30.374   3.319 -0.4593 -0.0724  0.0354
38977W        W82071  25.899  29.996   1.508  0.0756  0.0470 -0.1951
38978W        W82072  27.418  29.471   1.517 -0.0274 -0.1210 -0.0198
38979W        W82073  27.495  31.871   2.172  0.0504 -0.3116  0.1355
38980W        W82074  24.425  30.702   3.245  0.1019 -0.2346  0.2226
38981W        W82075  28.603  28.938  31.953  0.0702  0.0929  0.0358
38982W        W82076  27.571  30.532   3.528  0.2138 -0.0729  0.1528
38983W        W82077  26.476  31.850   1.408  0.2306  0.3789  0.0887
38984W        W82078  27.526  31.013   3.324 -0.0229  0.1180  0.1318
38985W        W82079  27.766  30.316   1.077 -0.0297  0.0941 -0.1730
38986W        W82080  30.634  30.194   1.020  0.4582  0.1448  0.0945
38987W        W82081  26.865  33.069   3.024 -0.0460 -0.3561 -0.0489
38988W        W82082  28.716  32.742   3.436  0.2556 -0.0981  0.0097
38989W        W82083  26.256  31.459   1.675  0.1792 -0.3853 -0.2512
38990W        W82084  28.993  30.391   2.666  0.2682  0.0829  0.0445
38991W        W82085  26.242  29.500   1.954  0.2252 -0.1399 -0.1939
38992W        W82086  25.757  29.319   2.249 -0.2313  0.2122 -0.1361
38993W        W82087  25.946  31.710   0.844 -0.0239  0.0860  0.0156
38994W        W82088  29.258  30.800   3.382  0.0297  0.2196  0.3144
38995W        W82089  26.019  30.841   2.937 -0.0920 -0.0486 -0.1369
38996W        W82090  26.941  29.101   0.381 -0.0543  0.0165 -0.1811
38997W        W82091  26.364  33.864   3.809 -0.2192 -0.0895  0.0339
38998W        W82092  27.409  32.872   2.306  0.0384 -0.0022  0.0251
38999W        W82093  26.212  32.437   6.102  0.0735  0.1185 -0.2598
39000W        W82094  27.058  30.433   4.749  0.0344 -0.0215 -0.1491
39001W        W82095  28.851  29.965   4.882  0.0925  0.3091 -0.0287
39002W        W82096  29.366  33.440   5.208  0.0103 -0.2251 -0.3436
39003W        W82097  24.751  29.600   5.230 -0.3692 -0.0146  0.0600
39004W        W82098  28.733  32.921   4.608 -0.1930 -0.1737 -0.1417
39005W        W82099  26.453  29.476   7.301 -0.0400 -0.2442  0.2191
39006W        W82100  27.771  32.940   6.532  0.1358  0.3085  0.2511
39007W        W82101  28.593  32.354   6.128 -0.2038  0.3038 -0.0852
39008W        W82102  25.957  31.800   3.389  0.0775 -0.0143 -0.1424
39009W        W82103  27.640  29.744   6.161 -0.1685  0.1132  0.0907
39010W        W82104  25.768  31.971   6.090 -0.0273 -0.0725 -0.0144
39011W        W82105  26.850  29.710   4.102  0.0175 -0.2301 -0.2517
39012W        W82106  25.617  29.479   5.616  0.2337  0.0559 -0.1108
39013W        W82107  28.250  32.955   6.034 -0.5942  0.0951 -0.1747
39014W        W82108  26.044  30.631   5.818 -0.5015 -0.2604 -0.1164
39015W        W82109  26.462  29.969   7.419 -0.0296 -0.0606 -0.0750
39016W        W82110  27.691  30.630   5.312  0.0617 -0.2059  0.1948
39017W        W82111  26.044  32.056   5.673 -0.0120 -0.2295 -0.5062
39018W        W82112  27.045  29.544   5.784  0.3525  0.0400  0.0657
39019W        W82113  28.385  30.163   8.457 -0.4110 -0.1202 -0.1820
39020W        W82114  28.523  32.115   5.082 -0.0481 -0.0421 -0.0674
39021W        W82115  25.809  31.403   3.738 -0.2326  0.0006  0.0926
39022W        W82116  26.101  31.091   5.473  0.2006 -0.0349 -0.0728
39023W        W82117  27.838  30.067   5.344 -0.1347 -0.1109 -0.1023
39024W        W82118  28.921  29.959   6.050 -0.1680 -0.2540  0.2085
39025W        W82119  27.987  30.447   4.549  0.1960 -0.1174 -0.3718
39026W        W82120  27.785  30.860   5.815  0.2960  0.1157 -0.0593
39027W        W82121  27.806  32.973   5.063 -0.2762 -0.0204 -0.0634
39028W        W82122  27.503  29.838   6.628 -0.1694  0.0635 -0.1946
39029W        W82123  25.548  32.985   5.750 -0.0362 -0.0472  0.0391
39030W        W82124  27.690  31.872   4.909  0.0949  0.2633  0.3073
39031W        W82125  29.413  32.925   6.011  0.0281 -0.1314 -0.1510
39032W        W82126  27.772  33.284   7.393 -0.2612 -0.0183  0.0082
39033W        W82127  28.116  31.680   7.282  0.1988  0.0026  0.0692
39034W        W82128  26.696  30.693   4.414  0.0631  0.2960  0.1445
39035W        W82129  27.603  32.114   7.277  0.1068 -0.1548  0.0779
39036W        W82130  24.522  32.869   7.013  0.1479  0.4109 -0.0461
39037W        W82131  28.323  31.471   6.292  0.0434  0.0713 -0.0472
39038W        W82132  27.488  31.450   5.162  0.0258  0.1966  0.1967
39039W        W82133  26.918  32.816   5.192  0.2538 -0.1960 -0.0870
39040W        W82134  26.655  31.020   5.452 -0.3649 -0.0402 -0.2355
39041W        W82135  26.429  31.769   7.432 -0.2168  0.1231 -0.1472
39042W        W82136  25.335  31.688   7.329 -0.1508  0.1311  0.1711
39043W        W82137  29.178  29.515   5.925 -0.1991  0.2843 -0.0996
39044W        W82138  26.466  33.235   4.309 -0.2813  0.1794  0.0575
39045W        W82139  28.463  32.074   2.872  0.3763 -0.0459  0.0995
39046W        W82140  26.880  30.094   2.305  0.1696 -0.0743  0.2215
39047W        W82141  28.062  30.898   4.083 -0.2191  0.1455  0.1214
39048W        W82142  27.925  29.217   5.417  0.1167  0.3061  0.0198
39049W        W82143  26.718  32.473   5.921  0.1559  0.2848 -0.0168
39050W        W82144  25.865  30.028   6.063  0.0006  0.0346 -0.1339
39051W        W82145  28.798  31.535   5.070 -0.0819 -0.0899 -0.0230
39052W        W82146  28.087  32.165   5.389 -0.0197 -0.3431 -0.0855
39053W        W82147  27.116  30.172   5.703  0.1384  0.1456 -0.1898
39054W        W82148  27.279  31.785   7.045  0.4187 -0.0575  0.1697
39055W        W82149  26.349  29.766   6.236 -0.0051  0.1708  0.1000
39056W        W82150  28.796  31.489   3.749 -0.0639  0.0659  0.2558
39057W        W82151  28.905  32.487   4.657 -0.3217 -0.0736 -0.1121
39058W        W82152  27.782  32.643   4.116 -0.0070  0.2577  0.0418
39059W        W82153  26.457  31.139   4.226 -0.2171 -0.0747  0.0756
39060W        W82154  24.771  31.786   7.655  0.1928  0.2856 -0.1649
39061W        W82155  25.997  30.082   7.401 -0.1261 -0.0487 -0.1750
39062W        W82156  26.046  30.092   3.943  0.0543  0.1951 -0.0030
39063W        W82157  29.645  31.403   6.480 -0.1446  0.0901  0.1222
39064W        W82158  24.800  31.817   8.714  0.1623  0.0108  0.0785
39065W        W82159  28.377  29.221   5.195  0.1173 -0.1037  0.3137
39066W        W82160  26.650  30.664   6.795 -0.2334  0.1108  0.0040
39067W        W82161  27.989  31.217   7.065 -0.1882 -0.1050  0.0895
39068W        W82162  27.452  31.584   4.232  0.0570 -0.2062  0.1535
39069W        W82163  27.690  29.696   4.520  0.2709 -0.3897 -0.1804
39070W        W82164  28.551  29.594   6.737  0.0114  0.0101 -0.1362
39071W        W82165  27.056  31.140   2.698 -0.1753  0.0040  0.1026
39072W        W82166  28.223  32.542   4.351 -0.0543  0.1067  0.2043
39073W        W82167  29.194  31.722   6.308  0.1666  0.2834 -0.1707
39074W        W82168  27.794  31.058   5.040  0.2033  0.0412 -0.0285
39075W        W82169  25.931  32.265   6.566  0.1511  0.0884 -0.0502
39076W        W82170  27.580  30.297   6.861 -0.0301  0.1217 -0.1747
39077W        W82171  28.137  30.791   8.166 -0.1121  0.2318  0.3613
39078W        W82172  27.119  33.125   3.504  0.1884 -0.0441  0.1314
39079W        W82173  25.733  31.656   4.182 -0.1055  0.0028 -0.1524
39080W        W82174  25.224  30.509   4.469 -0.1047 -0.2680  0.0401
39081W        W82175  23.885  29.012   6.152 -0.0311  0.0599  0.1113
39082W        W82176  26.339  32.659   5.668  0.2638  0.3037  0.0672
39083W        W82177  28.519  29.394   3.855 -0.1133  0.0275  0.2149
39084W        W82178  25.431  30.871   6.196  0.1791 -0.0675  0.4029
39085W        W82179  28.174  27.798   5.781 -0.1062 -0.2346 -0.0895
39086W        W82180  25.472  31.552   6.245  0.0135 -0.1852  0.1381
39087W        W82181  27.438  31.931   3.515 -0.2717  0.0194  0.1895
39088W        W82182  29.107  31.504   4.632  0.0187  0.0652  0.0409
39089W        W82183  28.703  32.568   4.186  0.3236  0.0375  0.1432
39090W        W82184  24.623  31.044   6.214  0.1071 -0.1019 -0.3620
39091W        W82185  27.776  30.974   4.486 -0.0949  0.2100 -0.0596
39092W        W82186  26.569  31.398   6.275  0.0711 -0.0303  0.2945
39093W        W82187  24.624  28.486   5.668 -0.2296  0.3288  0.1975
39094W        W82188  27.850  31.364   5.943  0.2112  0.0592 -0.2772
39095W        W82189  25.287  29.706   5.084  0.1516  0.1881 -0.2300
39096W        W82190  29.982  30.672   5.248 -0.0548  0.0095 -0.0538
39097W        W82191  25.975  32.009   3.860 -0.1216  0.1440 -0.1562
39098W        W82192  24.473  30.340   6.802  0.0502  0.0162  0.0582
39099W        W82193  27.106  29.860   6.154 -0.1934  0.0358  0.0580
39100W        W82194  27.830  32.604   4.687  0.2942 -0.0054 -0.1234
39101W        W82195  30.507  31.702   6.516 -0.0234  0.1759  0.0220
39102W        W82196  28.419  33.403   4.882 -0.1284 -0.0190 -0.0048
39103W        W82197  27.204  30.714   6.104 -0.0412 -0.2051  0.1161
39104W        W82198  25.686  30.304   4.620  0.0052 -0.5145  0.4282
39105W        W82199  26.330  32.454   5.235 -0.1755 -0.3105  0.0957
39106W        W82200  27.027  31.223   5.202 -0.2691 -0.2669  0.1659
39107W        W82201  26.580  30.407   3.572  0.1958  0.2564 -0.1653
39108W        W82202  29.369  33.400   5.772 -0.0567  0.0434 -0.1058
39109W        W82203  26.714  31.399   3.834  0.2446 -0.0120 -0.0892
39110W        W82204  25.042  31.371   7.093 -0.2070 -0.1129  0.2449
39111W        W82205  28.064  30.375   6.702 -0.1516  0.0526 -0.3763
39112W        W82206  28.870  30.842   6.529 -0.1358 -0.0751 -0.0039
39113W        W82207  28.920  30.801   4.522 -0.0700  0.0600 -0.1490
39114W        W82208  26.533  30.374   4.767 -0.2132  0.0737 -0.0628
39115W        W82209  26.571  31.576   5.788 -0.1632 -0.3267  0.0078
39116W        W82210  25.610  32.919   4.413 -0.0606 -0.0791  0.0172
39117W        W82211  25.546  30.456   5.921 -0.3523  0.0191 -0.3068
39118W        W82212  25.825  31.706   4.757 -0.0969  0.1946 -0.1194
39119W        W82213  27.971  30.059   4.853  0.1130 -0.3330 -0.2993
39120W        W82214  25.061  31.475   8.410 -0.0822 -0.0371  0.1121
39121W        W82215  28.107  29.996   5.869  0.3065 -0.0508 -0.0608
39122W        W82216  27.271  30.809   4.494 -0.2821 -0.2056 -0.0502
39123W        W82217  25.474  31.942   6.584 -0.1151  0.0635  0.0784
39124W        W82218  27.929  28.553   5.274  0.4095 -0.0088  0.0540
39125W        W82219  27.683  30.515   4.085 -0.1487  0.2523 -0.1530
39126W        W82220  27.178  31.196   7.147  0.1255  0.2614 -0.2816
39127W        W82221  28.398  32.092   4.572 -0.0457  0.0122  0.3624
39128W        W82222  27.889  29.726   3.450 -0.0716  0.1318 -0.1982
39129W        W82223  26.961  30.106   3.728  0.2509  0.2852  0.1327
39130W        W82224  25.669  31.433   7.743 -0.2212 -0.1637 -0.0444
39131W        W82225  28.362  30.762   4.440  0.0336 -0.0705 -0.2357
39132W        W82226  26.769  31.650   6.626  0.1574  0.0323  0.2757
39133W        W82227  27.592  30.193   4.501  0.4301 -0.0268 -0.0851
39134W        W82228  30.110  32.228   4.041  0.0323 -0.2635 -0.0398
39135W        W82229  26.999  31.158   6.352  0.1115  0.0893  0.2419
39136W        W82230  27.873  31.555   6.460 -0.3264 -0.1236  0.2864
39137W        W82231  28.646  32.545   5.343  0.3165  0.2733 -0.1981
39138W        W82232  26.551  28.917   7.149  0.3002  0.0592  0.0646
39139W        W82233  26.077  30.661   3.464 -0.0669 -0.3004  0.1742
39140W        W82234  27.428  28.734   6.071 -0.1455  0.0528 -0.4084
39141W        W82235  25.365  32.477   4.256  0.1382 -0.1163 -0.1165
39142W        W82236  28.722  29.674   5.673  0.0567 -0.0580  0.0953
39143W        W82237  27.190  29.399   4.287  0.1908 -0.2825 -0.0626
39144W        W82238  25.613  29.409   7.422  0.0961  0.2125 -0.1391
39145W        W82239  29.330  31.143   6.190 -0.0410 -0.2130  0.1701
39146W        W82240  28.169  31.719   4.354 -0.0700  0.3390 -0.0734
39147W        W82241  27.990  30.020   4.259  0.1361  0.0269  0.1091
39148W        W82242  26.628  29.754   4.604 -0.1804  0.3053  0.1186
39149W        W82243  28.633  31.303   7.866  0.2356 -0.1386  0.1059
39150W        W82244  26.333  30.986   7.043  0.2488 -0.1421 -0.0385
39151W        W82245  25.518  32.131   5.617  0.1737 -0.2004 -0.1132
39152W        W82246  28.157  32.883   6.816  0.2932  0.3457 -0.2750
39153W        W82247  27.279  30.724   5.630 -0.2028  0.1634  0.1982
39154W        W82248  28.176  30.376   7.251 -0.0264 -0.0805 -0.1087
39155W        W82249  27.039  30.502   4.109 -0.2343  0.0881 -0.0529
39156W        W82250  25.757  32.499   3.895 -0.0387  0.1876 -0.0317
39157W        W82251  27.286  30.715   2.955  0.3325  0.0204  0.3499
39158W        W82252  25.554  29.582   6.130 -0.2459  0.1181 -0.2167
39159W        W82253  26.273  31.893   6.101 -0.0755 -0.1637  0.0297
39160W        W82254  26.797  32.922   3.965  0.0071  0.2631 -0.1493
39161W        W82255  26.767  32.025   6.250 -0.0366  0.3560 -0.2287
39162W        W82256  26.519  32.690   4.380  0.1680  0.2689 -0.1008
39163W        W82257  27.233  29.837   5.354  0.1991  0.0467  0.0536
39164W        W82258  25.836  32.523   5.744 -0.1322  0.3921  0.3796
39165W        W82259  27.010  30.462   3.325 -0.0928 -0.1940  0.0338
39166W        W82260  23.873  29.815   4.755  0.4686 -0.1438  0.1577
39167W        W82261  27.128  29.852   4.601 -0.0150 -0.1143  0.2734
39168W        W82262  28.577  32.962   5.088  0.2119 -0.2549 -0.2323
39169W        W82263  25.421  30.433   7.943  0.1619  0.0672 -0.0630
39170W        W82264  28.648  28.566   6.602  0.0162  0.0035 -0.0055
39171W        W82265  24.601  32.255   5.283 -0.0446  0.1012 -0.2603
39172W        W82266  27.916  30.391   6.155 -0.0468  0.1778 -0.1937
39173W        W82267  26.538  28.284   4.558 -0.3606  0.0544 -0.0030
39174W        W82268  28.105  30.941   7.442 -0.4713 -0.2973  0.0901
39175W        W82269  26.447  31.248   7.437 -0.0507  0.3227 -0.3384
39176W        W82270  25.619  28.170   3.818 -0.0431 -0.1418  0.2120
39177W        W82271  28.662  30.734   5.515  0.1421 -0.0138 -0.2487
39178W        W82272  27.010  31.015   4.113  0.0723  0.0376 -0.0012
39179W        W82273  25.189  32.108   4.551 -0.0512  0.3078 -0.3372
39180W        W82274  27.837  32.718   6.133 -0.1802  0.0541  0.0935
39181W        W82275  26.964  31.136   3.263 -0.0822 -0.0901  0.0580
39182W        W82276  25.275  30.284   5.001 -0.3539 -0.3840 -0.1391
39183W        W82277  26.383  30.312   6.527 -0.1802 -0.0297 -0.0009
39184W        W82278  28.742  31.763   6.535 -0.0192 -0.0123  0.0163
39185W        W82279  26.710  30.227   7.071  0.0875  0.4673 -0.2579
39186W        W82280  27.210  30.824   5.009 -0.4564  0.1983 -0.2096
39187W        W82281  27.800  29.624   5.164 -0.0713  0.0801  0.2127
39188W        W82282  27.532  31.093   6.834 -0.1920 -0.0762 -0.0229
39189W        W82283  26.382  29.480   6.723  0.0077  0.2268 -0.4784
39190W        W82284  26.118  32.306   7.543 -0.1841  0.0257 -0.1071
39191W        W82285  26.681  29.835   6.642  0.0543 -0.1727  0.0326
39192W        W82286  29.563  32.589   3.843  0.2269 -0.0397  0.2613
39193W        W82287  27.202  29.464   6.620  0.1107  0.0005 -0.0407
39194W        W82288  26.626  31.254   2.515 -0.2519 -0.1774 -0.4254
39195W        W82289  25.785  31.155   6.444  0.0802  0.0906  0.1411
39196W        W82290  26.787  31.599   3.355  0.2610 -0.1001 -0.0283
39197W        W82291  27.092  30.162   6.757 -0.0805 -0.0999  0.1070
39198W        W82292  27.028  31.646   6.109  0.0357 -0.0793 -0.1803
39199W        W82293  26.020  31.243   4.628  0.0505 -0.0781 -0.2215
39200W        W82294  25.601  31.623   5.771  0.4667  0.1138 -0.0284
39201W        W82295  28.589  29.424   4.603  0.0255  0.1761 -0.3003
39202W        W82296  27.302  31.346   4.666  0.1278 -0.1654  0.3065
39203W        W82297  27.438  29.990   4.947 -0.0117  0.2252  0.0909
39204W        W82298  29.350  29.807   6.300 -0.0938  0.1750  0.1596
39205W        W82299  28.220  31.906   3.657  0.1185 -0.1030 -0.1478
39206W        W82300  29.342  29.851   7.289  0.0544  0.1776  0.2568
39207W        W82301  26.707  29.714   7.747  0.0931  0.1557  0.1487
39208W        W82302  28.593  32.150   5.618  0.0804  0.3094 -0.0900
39209W        W82303  26.896  31.062   4.720 -0.2049  0.1118 -0.3161
39210W        W82304  28.745  32.914   8.038 -0.0439 -0.0803 -0.1506
39211W        W82305  26.165  30.668   8.509  0.1346  0.0978  0.2807
39212W        W82306  28.076  29.454   4.760 -0.1352 -0.1040  0.2521
39213W        W82307  26.086  30.190   3.358 -0.0693  0.0393  0.3197
39214W        W82308  24.439  31.652   8.446  0.2900  0.1717 -0.2506
39215W        W82309  26.824  32.201   5.148 -0.0051 -0.1858 -0.0178
39216W        W82310  27.987  31.384   4.008  0.0028 -0.1437 -0.1807
39217W        W82311  28.795  29.180   5.433  0.0238 -0.0227 -0.0342
39218W        W82312  27.486  31.200   6.234  0.1700  0.2367 -0.1923
39219W        W82313  28.170  29.509   4.275  0.2763  0.1024  0.1415
39220W        W82314  28.932  32.122   4.227 -0.2725 -0.0520  0.1574
39221W        W82315  26.702  30.657   5.095  0.0928 -0.2465 -0.0636
39222W        W82316  26.699  28.999   5.954  0.2441 -0.0040  0.3393
39223W        W82317  28.370  30.985   6.102 -0.2472 -0.1261  0.1366
39224W        W82318  27.445  28.443   4.677 -0.0311 -0.0171  0.0806
39225W        W82319  26.857  29.195   6.837  0.0007 -0.0273  0.2221
39226W        W82320  28.492  30.459   6.523 -0.0398 -0.2721 -0.1026
39227W        W82321  26.481  30.631   8.131 -0.3259 -0.0813  0.2609
39228W        W82322  26.318  30.603   7.614  0.2158  0.3430 -0.3804
39229W        W82323  28.932  32.517   7.073  0.1648 -0.0569 -0.2463
39230W        W82324  29.869  31.133   4.688  0.4169 -0.0118 -0.2453
39231W        W82325  30.300  31.146   5.572 -0.2587  0.1705 -0.0374
39232W        W82326  28.437  31.691   5.401 -0.1897  0.0267 -0.3064
39233W        W82327  27.120  29.971   3.169 -0.0726  0.2014  0.0660
39234W        W82328  27.169  30.581   7.073  0.3811 -0.1333 -0.1733
39235W        W82329  28.779  30.428   7.710  0.1756  0.2594 -0.1701
39236W        W82330  25.892  31.162   4.176  0.0702  0.0442 -0.1406
39237W        W82331  28.994  30.406   6.258 -0.1503  0.4076 -0.2379
39238W        W82332  27.966  33.921   4.787 -0.1223 -0.1941 -0.1222
39239W        W82333  27.896  31.797   5.671 -0.1739 -0.0903 -0.0453
39240W        W82334  27.565  28.548   3.892 -0.2383 -0.1899  0.0649
39241W        W82335  26.397  30.980   4.847 -0.1171  0.0633  0.3548
39242W        W82336  27.500  32.007   5.355 -0.2509  0.1811 -0.3575
39243W        W82337  26.128  30.135   4.501  0.3159  0.1552  0.3031
39244W        W82338  27.676  29.623   4.011  0.2437 -0.0094  0.0247
39245W        W82339  28.204  31.899   6.443 -0.4310  0.2913 -0.1388
39246W        W82340  29.299  31.231   7.161  0.0026  0.0625 -0.3840
39247W        W82341  27.522  27.966   4.643  0.1809  0.1958 -0.0992
39248W        W82342  27.997  30.023   7.945 -0.1724 -0.0977  0.2461
39249W        W82343  26.535  32.102   5.605  0.1171 -0.2333  0.1488
39250W        W82344  28.355  29.224   5.892  0.0313 -0.4075  0.1652
39251W        W82345  26.527  33.329   6.359 -0.1217 -0.1666  0.0371
39252W        W82346  24.318  31.452   7.555 -0.2032 -0.1132 -0.0935
39253W        W82347  27.360  31.501   5.787  0.2627  0.2744  0.2134
39254W        W82348  26.832  29.456   6.308  0.0171  0.0592  0.1009
39255W        W82349  28.284  31.211   5.057 -0.2001  0.2560  0.0780
39256W        W82350  27.424  30.248   6.250  0.0241 -0.2243  0.0737
39257W        W82351  30.525  31.540   5.283 -0.1871  0.1650 -0.2555
39258W        W82352  27.015  30.038   7.462  0.0004  0.4248  0.1378
39259W        W82353  26.446  31.525   6.974 -0.0189 -0.2036  0.1677
39260W        W82354  27.549  31.789   6.131  0.1012  0.1999 -0.2298
39261W        W82355  29.211  31.905   5.469  0.0806  0.0146  0.0800
39262W        W82356  27.675  32.490   5.166  0.2385 -0.1329  0.4083
39263W        W82357  25.082  30.274   5.997  0.0332 -0.0241  0.0726
39264W        W82358  26.666  30.742   7.300 -0.0118 -0.2338 -0.3686
39265W        W82359  28.140  30.471   5.715 -0.1374 -0.0411 -0.0214
39266W        W82360  24.678  28.930   4.985  0.0354  0.1169  0.2780
39267W        W82361  27.873  31.582   3.492  0.2938  0.0958 -0.0065
39268W        W82362  27.789  33.558   6.954  0.1870 -0.3322  0.1326
39269W        W82363  25.642  32.468   6.217 -0.2302 -0.5127  0.0533
39270W        W82364  26.520  31.480   5.297 -0.0803  0.0668  0.0984
39271W        W82365  28.881  31.940   4.682 -0.2088 -0.3861 -0.2430
39272W        W82366  27.814  33.113   4.308  0.0013  0.1410  0.1197
39273W        W82367  27.235  32.083   5.868 -0.3925 -0.4127  0.2435
39274W        W82368  27.224  30.815   3.709  0.0007 -0.1287 -0.0316
39275W        W82369  27.067  31.690   4.939  0.1407  0.1332 -0.0616
39276W        W82370  24.774  30.486   5.048 -0.1730  0.2591  0.0289
39277W        W82371  27.739  32.174   4.406  0.0348  0.0016  0.2413
39278W        W82372  26.178  30.715   4.441  0.0541  0.1547 -0.1528
39279W        W82373  28.935  32.014   5.926 -0.1885 -0.3623 -0.1818
39280W        W82374  27.666  29.278   3.605 -0.1474  0.0196 -0.0985
39281W        W82375  27.251  31.976   4.534 -0.3494 -0.1976 -0.3720
39282W        W82376  29.757  30.586   4.572 -0.0793  0.0716 -0.1081
39283W        W82377  27.422  33.783   7.337 -0.2929 -0.1435 -0.1211
39284W        W82378  26.585  30.209   5.471  0.2001  0.3204 -0.1319
39285W        W82379  27.400  29.371   4.775 -0.2024 -0.0454  0.0228
39286W        W82380  26.380  30.198   6.012  0.1217 -0.0879  0.2461
39287W        W82381  29.364  29.308   7.201 -0.0046 -0.1983 -0.1200
39288W        W82382  25.829  32.397   7.078  0.3723 -0.1387  0.2197
39289W        W82383  29.746  31.872   5.039  0.0648 -0.0646 -0.0320
39290W        W82384  24.515  29.647   5.677  0.1520 -0.1072 -0.0956
39291W        W82385  27.197  30.409   5.264 -0.1366  0.4563 -0.0530
39292W        W82386  28.822  29.484   6.306  0.2127  0.1221 -0.1857
39293W        W82387  27.096  31.843   3.917  0.1220 -0.0814 -0.0425
39294W        W82388  28.558  30.480   5.960  0.0282 -0.2880  0.0565
39295W        W82389  26.786  33.899   5.402 -0.1622  0.5372 -0.1159
39296W        W82390  26.450  32.933   6.067 -0.2612  0.1948 -0.1080
39297W        W82391  27.296  32.611   5.860  0.0267 -0.1019 -0.0515
39298W        W82392  26.160  29.881   5.628 -0.2308 -0.0676  0.2671
39299W        W82393  28.339  30.331   4.186 -0.1129  0.1922  0.0902
39300W        W82394  27.098  29.205   7.314 -0.0078  0.3193 -0.0281
39301W        W82395  28.165  30.898   5.458  0.0010  0.0540  0.0411
39302W        W82396  26.101  31.597   5.574 -0.0947  0.0789  0.2153
39303W        W82397  28.445  30.349   4.739 -0.0876  0.2311  0.0005
39304W        W82398  28.385  31.790   5.967 -0.0589 -0.2192  0.2039
39305W        W82399  27.529  31.158   5.508  0.0368  0.1259 -0.0639
39306W        W82400  26.204  31.096   3.755  0.0621  0.1419 -0.0260
39307W        W82401  29.101  32.096   6.975 -0.1809  0.0858  0.0756
39308W        W82402  27.460  31.449   3.727 -0.0132 -0.1305 -0.1357
39309W        W82403  28.311  31.587   6.787 -0.3377 -0.1761  0.1942
39310W        W82404  25.188  30.553   5.512  0.1736  0.0660 -0.1152
39311W        W82405  28.744  30.628   4.057 -0.0383  0.1494 -0.2336
39312W        W82406  26.663  29.162   5.326  0.1536  0.1259 -0.0097
39313W        W82407  26.281  30.475   7.066 -0.2814  0.0388  0.1576
39314W        W82408  29.220  33.648   6.510  0.1438  0.1310  0.0156
39315W        W82409  25.012  30.043   5.471 -0.1486 -0.0959  0.2213
39316W        W82410  28.171  31.694   3.069 -0.0109 -0.0424 -0.1419
39317W        W82411  29.182  30.033   5.241  0.2775  0.3760 -0.0765
39318W        W82412  25.910  32.526   4.411  0.1235  0.0131  0.1872
39319W        W82413  28.408  31.311   5.774 -0.0973  0.2018 -0.0344
39320W        W82414  26.979  33.006   4.467 -0.0209  0.0697  0.3810
39321W        W82415  25.909  30.438   6.322  0.1513 -0.0247 -0.1790
39322W        W82416  27.095  31.768   5.463  0.0780  0.2453  0.0902
39323W        W82417  29.097  32.439   5.678  0.2760 -0.0175 -0.1557
39324W        W82418  27.862  28.658   4.402 -0.0811  0.2234 -0.1856
39325W        W82419  26.294  29.935   5.123  0.3384 -0.0281 -0.3525
39326W        W82420  25.812  32.862   5.212  0.3727  0.0839 -0.0997
39327W        W82421  27.521  28.815   5.472  0.1102  0.0732 -0.1967
39328W        W82422  29.583  30.433   6.390  0.0046 -0.1419  0.1388
39329W        W82423  27.584  31.301   2.781 -0.1593 -0.2196  0.3751
39330W        W82424  29.828  29.013   7.061  0.0586  0.0412  0.1834
39331W        W82425  27.867  32.437   7.823  0.0283 -0.1164  0.0392
39332W        W82426  27.765  32.068   6.536  0.0199  0.1538  0.3426
39333W        W82427  26.464  30.300   4.094 -0.2071 -0.0764 -0.1216
39334W        W82428  27.250  31.454   6.685  0.1050 -0.1192  0.0518
39335W        W82429  26.124  31.381   5.088  0.2445  0.2546 -0.1914
39336W        W82430  26.753  33.639   5.917  0.0575 -0.1228  0.0851
39337W        W82431  29.424  30.489   5.459  0.1401 -0.3658 -0.0728
39338W        W82432  27.770  29.334   5.874 -0.4150  0.0383 -0.0599
39339W        W82433  29.639  31.729   6.097  0.2523  0.0549 -0.4052
39340W        W82434  27.334  29.323   6.131 -0.2820 -0.0414  0.1751
39341W        W82435  29.265  29.111   4.660 -0.4094  0.1620  0.1851
39342W        W82436  25.997  31.021   7.560  0.0579  0.2916  0.0237
39343W        W82437  26.855  30.079   5.061 -0.0355  0.4562 -0.0499
39344W        W82438  26.254  31.533   4.046 -0.2006  0.0225 -0.0848
39345W        W82439  26.106  31.385   6.128  0.1391  0.0281  0.0323
39346W        W82440  26.929  30.082   8.040  0.1306  0.7166  0.0594
39347W        W82441  25.828  30.493   7.690  0.0347 -0.0502 -0.4810
39348W        W82442  25.671  30.739   5.516 -0.1809 -0.4971 -0.2383
39349W        W82443  26.532  30.740   3.947 -0.1966 -0.1212 -0.1078
39350W        W82444  28.745  31.600   4.302  0.1661 -0.1739 -0.1463
39351W        W82445  26.242  30.538   5.341 -0.0003  0.1973 -0.0020
39352W        W82446  24.603  29.319   4.796  0.3371  0.0459 -0.0671
39353W        W82447  28.158  32.651   5.284 -0.0631  0.0422  0.0774
39354W        W82448  29.158  32.720   5.130 -0.3112 -0.3570 -0.1385
39355W        W82449  27.146  29.327   3.820  0.1792  0.0463  0.0026
39356W        W82450  29.697  32.830   8.144  0.1305 -0.1917 -0.0337
39357W        W82451  25.490  31.319   4.483 -0.1406 -0.0794 -0.0890
39358W        W82452  27.014  30.391   8.470  0.1658  0.1408  0.1332
39359W        W82453  28.531  30.060   7.417 -0.0924  0.3272  0.0273
39360W        W82454  26.465  29.919   3.743  0.1316 -0.1520  0.2791
39361W        W82455  27.615  30.303   5.718 -0.2039  0.1877  0.1590
39362W        W82456  28.216  31.251   4.457 -0.0530 -0.0265  0.3249
39363W        W82457  27.786  33.583   4.524 -0.0930  0.0388 -0.2964
39364W        W82458  25.878  32.322   5.253 -0.0282 -0.2841 -0.2232
39365W        W82459  26.746  32.013   6.963 -0.2646 -0.0851  0.1173
39366W        W82460  25.461  27.730   7.157  0.0451  0.1910 -0.0993
39367W        W82461  28.236  31.699   4.876  0.1129 -0.0055 -0.3149
39368W        W82462  27.252  31.055   7.625 -0.0651  0.2483  0.2854
39369W        W82463  29.145  32.131   3.257 -0.2083  0.1473  0.1691
39370W        W82464  28.176  29.473   6.240 -0.3617 -0.0300  0.2028
39371W        W82465  26.872  31.554   4.370  0.0052  0.1950 -0.5027
39372W        W82466  25.485  29.543   6.766 -0.2682  0.0077 -0.1374
39373W        W82467  26.296  31.176   6.606  0.1851  0.3670  0.2020
39374W        W82468  28.846  31.566   5.706  0.0422 -0.0159 -0.0877
39375W        W82469  26.859  30.269   6.305  0.0446 -0.0100 -0.0637
39376W        W82470  28.345  30.209   5.331  0.3728 -0.3469 -0.1362
39377W        W82471  28.172  32.966   4.649 -0.2873 -0.0937  0.0534
39378W        W82472  25.984  30.776   6.726  0.1123  0.2135 -0.1087
39379W        W82473  28.065  30.494   3.762 -0.0978  0.2187 -0.5496
39380W        W82474  26.786  31.179   6.829 -0.2668 -0.0820  0.0265
39381W        W82475  26.961  31.198   5.811 -0.1006 -0.0275 -0.2631
39382W        W82476  28.914  31.584   7.046 -0.0432  0.1296 -0.0103
39383W        W82477  27.490  31.081   4.069  0.6097 -0.1350 -0.5914
39384W        W82478  29.358  31.058   4.534  0.4127  0.0717 -0.1277
39385W        W82479  27.607  33.565   6.368 -0.0176 -0.5920 -0.1609
39386W        W82480  29.999  32.427   8.156 -0.1413 -0.2483 -0.1715
39387W        W82481  27.396  32.805   5.411 -0.0503 -0.1228 -0.0025
39388W        W82482  28.824  31.394   6.169  0.2828  0.1626 -0.1979
39389W        W82483  24.940  30.679   6.389 -0.1391  0.0733 -0.1616
39390W        W82484  25.521  31.878   3.635 -0.1301  0.0236  0.0949
39391W        W82485  27.950  31.575   5.236  0.0062 -0.4798  0.1069
39392W        W82486  29.150  29.560   5.450 -0.1687  0.1045  0.2972
39393W        W82487  26.422  31.051   5.880 -0.0345  0.0940 -0.1442
39394W        W82488  26.878  28.502   5.095  0.0875  0.1800 -0.1167
39395W        W82489  26.868  34.510   5.718 -0.2999  0.3337 -0.0048
39396W        W82490  27.850  31.503   4.681  0.1140  0.0839  0.0411
39397W        W82491  26.770  32.729   9.218  0.0424  0.0025 -0.0508
39398W        W82492  26.507  29.569   8.245  0.2182 -0.1176 -0.0758
39399W        W82493  29.395  29.996   5.818 -0.1151  0.1375 -0.0616
39400W        W82494  29.396  30.907   6.735  0.2124  0.1916  0.2152
39401W        W82495  25.516  30.379   9.704 -0.0377  0.0948  0.0212
39402W        W82496  28.106  31.980   8.096 -0.1059  0.0687 -0.1235
39403W        W82497  28.028  31.800   8.709 -0.0024  0.1890  0.3337
39404W        W82498  29.365  31.587   9.315  0.1548 -0.0250  0.2250
39405W        W82499  28.128  31.099   6.566 -0.3655  0.0640 -0.0849
39406W        W82500  27.890  29.870   9.703 -0.1603 -0.2968  0.2091
39407W        W82501  26.850  30.094   8.919  0.1901 -0.3624  0.3061
39408W        W82502  24.848  29.627   9.327 -0.0729 -0.0192 -0.3390
39409W        W82503  27.897  30.838   9.088  0.3338  0.0736 -0.0983
39410W        W82504  25.232  30.557   8.961  0.3593  0.1882 -0.1349
39411W        W82505  25.074  26.736  10.473 -0.0057 -0.0195 -0.2019
39412W        W82506  26.283  31.718   9.794  0.1360  0.3451 -0.3066
39413W        W82507  28.358  32.588   7.830  0.0403 -0.5484  0.4830
39414W        W82508  27.043  30.530   9.696  0.0165 -0.0812 -0.0507
39415W        W82509  28.212  33.776   7.927  0.1351 -0.0367  0.0615
39416W        W82510  26.320  29.992   6.910 -0.3059 -0.2862 -0.5961
39417W        W82511  25.216  31.222   9.467  0.0772 -0.1285  0.1868
39418W        W82512  27.199  30.212   9.315 -0.0237 -0.1694  0.3565
39419W        W82513  30.013  30.661  10.570  0.0227  0.4526 -0.0103
39420W        W82514  28.213  29.698   8.261 -0.1747 -0.1703 -0.0143
39421W        W82515  26.877  31.928   9.654 -0.2045  0.0316  0.4517
39422W        W82516  27.484  32.866   7.703 -0.1075 -0.1417 -0.1777
39423W        W82517  22.844  31.280   9.618  0.1703 -0.0069  0.2252
39424W        W82518  25.740  32.099   8.401 -0.2228 -0.1496  0.0608
39425W        W82519  26.038  31.749   9.345 -0.0972  0.1308  0.0842
39426W        W82520  28.854  32.010   8.507  0.1393  0.2124  0.0138
39427W        W82521  24.892  32.697   6.623 -0.1991  0.0983  0.0988
39428W        W82522  29.646  29.980   9.879 -0.0550  0.3803 -0.1096
39429W        W82523  25.653  31.489   9.107 -0.0034 -0.3288  0.0135
39430W        W82524  27.783  31.816   7.731  0.2153  0.0674 -0.2986
39431W        W82525  26.365  31.540   7.861 -0.0963  0.0164  0.0004
39432W        W82526  25.183  30.852   9.897 -0.0010  0.0365 -0.0941
39433W        W82527  26.198  32.001   7.061 -0.1451  0.0007 -0.0165
39434W        W82528  27.608  30.825   7.374  0.0397  0.2068 -0.2164
39435W        W82529  26.984  29.647   7.104 -0.3825 -0.2435  0.1668
39436W        W82530  27.305  31.135   8.516  0.1816 -0.0968 -0.0127
39437W        W82531  26.582  28.908   8.128  0.0141 -0.0224 -0.2699
39438W        W82532  26.651  32.185   8.360 -0.0262  0.0011  0.1725
39439W        W82533  26.324  28.753   8.668 -0.2960 -0.0131 -0.0867
39440W        W82534  26.367  31.361   9.316  0.0470 -0.0029  0.1080
39441W        W82535  28.445  30.900   9.525  0.1963 -0.2175 -0.0160
39442W        W82536  27.012  31.051   9.763 -0.0123 -0.2508 -0.4210
39443W        W82537  26.173  30.301   9.436  0.1332  0.1640 -0.2701
39444W        W82538  30.007  31.580   7.859 -0.3637  0.0000 -0.3282
39445W        W82539  28.564  32.157   8.034  0.3114 -0.0431 -0.1550
39446W        W82540  28.240  32.169   7.515  0.0259  0.0146  0.3511
39447W        W82541  24.860  33.022   9.860 -0.3329  0.1139 -0.1612
39448W        W82542  27.120  29.555   7.650 -0.0240 -0.3846  0.1413
39449W        W82543  28.460  29.314   8.564 -0.2214  0.0986 -0.0105
39450W        W82544  24.962  32.232   9.528 -0.0349  0.0810  0.1135
39451W        W82545  30.436  30.660  10.243  0.0214  0.0436 -0.0781
39452W        W82546  28.674  30.503   7.222 -0.2012 -0.2268 -0.0489
39453W        W82547  27.232  30.152  10.188  0.0161  0.1490 -0.0388
39454W        W82548  26.825  31.399   9.363 -0.2671  0.3178 -0.2502
39455W        W82549  25.672  30.892   8.279  0.2481 -0.4348  0.0498
39456W        W82550  26.355  31.101   8.691 -0.0034 -0.2511  0.0573
39457W        W82551  29.603  31.299   8.785 -0.2526  0.0167  0.0337
39458W        W82552  28.764  30.557   8.189  0.2439  0.0149 -0.0347
39459W        W82553  25.227  32.162   9.085 -0.3697  0.2089 -0.0344
39460W        W82554  26.839  31.575   7.266 -0.4682  0.1944 -0.1515
39461W        W82555  25.504  30.979   9.176 -0.0568 -0.3443  0.0014
39462W        W82556  26.603  32.481   6.558  0.2227 -0.0089  0.1161
39463W        W82557  25.901  29.093  12.479 -0.2380  0.2983 -0.2630
39464W        W82558  28.093  31.300   9.464 -0.3813  0.0041 -0.2023
39465W        W82559  28.262  28.978   8.968  0.2175  0.0337 -0.3751
39466W        W82560  27.986  30.226   8.903 -0.0768  0.2765  0.0553
39467W        W82561  27.153  31.592  10.048  0.0512 -0.2775  0.0610
39468W        W82562  28.424  32.591   9.361 -0.0744 -0.1045 -0.2995
39469W        W82563  27.684  30.326   7.419  0.1113 -0.3488 -0.0359
39470W        W82564  28.423  31.751   8.325 -0.0274 -0.0748 -0.4809
39471W        W82565  23.736  30.023  10.294  0.0275 -0.0936 -0.2090
39472W        W82566  26.599  28.029   9.117 -0.1766 -0.0556  0.1012
39473W        W82567  25.450  29.313   9.809 -0.3644  0.0506 -0.0366
39474W        W82568  25.705  29.033   5.949  0.1679  0.1294 -0.0949
39475W        W82569  26.363  31.119   9.869 -0.1589  0.3761  0.2212
39476W        W82570  26.748  30.214   9.957 -0.0799  0.1711  0.0032
39477W        W82571  26.204  32.050   8.782 -0.2308 -0.1884  0.0709
39478W        W82572  29.072  31.849   7.535 -0.1356 -0.2072  0.0237
39479W        W82573  27.851  32.103   9.632 -0.1993 -0.0929  0.1969
39480W        W82574  27.651  31.633   8.346  0.1407 -0.0616 -0.0914
39481W        W82575  26.755  30.611   9.332  0.2319  0.2495 -0.0620
39482W        W82576  26.706  29.170   7.635 -0.2857 -0.2594 -0.1129
39483W        W82577  26.942  33.812  10.132  0.2621  0.0154 -0.4371
39484W        W82578  27.267  31.492   9.506 -0.1055 -0.1149  0.0736
39485W        W82579  26.528  30.264   8.443  0.0893  0.0025  0.1405
39486W        W82580  28.816  32.841   9.100  0.1244 -0.1563  0.0752
39487W        W82581  26.651  31.428  10.180  0.0290 -0.2169 -0.1715
39488W        W82582  29.219  30.095   8.977  0.2172  0.1636  0.1221
39489W        W82583  26.858  30.823   8.384 -0.0271  0.4573  0.1494
39490W        W82584  26.581  30.576   8.863  0.1156  0.2495 -0.1254
39491W        W82585  26.922  32.607   8.720  0.2632  0.1144 -0.0911
39492W        W82586  25.253  32.221   7.567 -0.0256 -0.0589  0.1756
39493W        W82587  26.034  30.777   7.998  0.2748 -0.1336 -0.1846
39494W        W82588  27.311  32.421   7.791  0.0967 -0.0248  0.0536
39495W        W82589  27.548  30.443   9.013 -0.0128  0.2932 -0.2314
39496W        W82590  25.498  30.943   7.754 -0.0271 -0.0245 -0.0817
39497W        W82591  26.294  28.291   9.547  0.0243 -0.0320 -0.1424
39498W        W82592  27.377  29.364   8.555 -0.4121 -0.0897  0.2667
39499W        W82593  28.613  30.635   8.757  0.4028 -0.1302 -0.0425
39500W        W82594  27.867  29.924   6.995  0.0020  0.0516 -0.0019
39501W        W82595  27.911  29.336   8.785 -0.1856  0.0180 -0.3771
39502W        W82596  27.565  32.633   8.189  0.1414  0.0602  0.1437
39503W        W82597  27.160  31.364   8.952  0.1851 -0.2987 -0.4811
39504W        W82598  27.292  30.487   7.687 -0.3703  0.0717 -0.1061
39505W        W82599  29.443  32.918   9.940 -0.0507  0.1873  0.0728
39506W        W82600  27.655  31.230   9.300 -0.0052  0.2380 -0.2949
39507W        W82601  29.280  32.189   8.749 -0.0137 -0.1453 -0.2177
39508W        W82602  26.714  29.027   9.245 -0.0332  0.0842 -0.0453
39509W        W82603  26.726  30.384   7.714 -0.1186  0.0147  0.0478
39510W        W82604  27.113  28.215   9.245 -0.0898 -0.1159  0.0236
39511W        W82605  25.893  31.242   6.946 -0.0569 -0.1093 -0.0293
39512W        W82606  27.980  29.586   9.207 -0.1607 -0.3301 -0.3266
39513W        W82607  27.485  30.233   9.733 -0.2773 -0.1463  0.2082
39514W        W82608  27.967  30.649   8.653  0.0146 -0.4070 -0.1170
39515W        W82609  28.789  30.120   9.897 -0.0242 -0.1210 -0.2775
39516W        W82610  25.883  30.227   6.871  0.0825 -0.1005  0.3018
39517W        W82611  28.563  31.041   9.100 -0.1250  0.2531  0.0604
39518W        W82612  25.675  31.637   9.728 -0.1115 -0.1136  0.0190
39519W        W82613  28.723  30.659   9.830 -0.4372  0.0186 -0.1889
39520W        W82614  27.427  29.647   8.934  0.0975  0.0663 -0.1027
39521W        W82615  27.276  32.770   6.763  0.0178  0.1495 -0.0456
39522W        W82616  26.338  31.640   8.411 -0.1612  0.1728  0.1529
39523W        W82617  26.326  29.063   9.987  0.1041 -0.1372  0.0722
39524W        W82618  26.464  33.476   9.607 -0.1419  0.0450  0.1144
39525W        W82619  27.370  32.207   6.841 -0.1609  0.1022 -0.3179
39526W        W82620  28.290  31.472   9.020 -0.1693  0.1883  0.2198
39527W        W82621  25.358  31.822   7.959  0.0476 -0.2918 -0.0770
39528W        W82622  26.961  29.685  10.171  0.1392 -0.1805 -0.0584
39529W        W82623  26.163  32.637   9.601 -0.1219 -0.1063 -0.0155
39530W        W82624  26.139  29.998   8.536  0.1491  0.2712 -0.0217
39531W        W82625  25.790  30.185   8.870  0.2392  0.4496 -0.2116
39532W        W82626  28.619  29.986   7.968  0.0213 -0.1347 -0.0565
39533W        W82627  28.755  30.868   7.522 -0.0064 -0.0848 -0.0180
39534W        W82628  25.366  28.712   8.991 -0.0380 -0.0505 -0.1407
39535W        W82629  26.565  29.676   8.701 -0.0954 -0.2578 -0.0974
39536W        W82630  24.771  33.269   7.986 -0.2852  0.0784 -0.1668
39537W        W82631  28.261  30.489   7.725  0.3024 -0.4084 -0.0098
39538W        W82632  25.322  30.157   8.656 -0.1158  0.0457  0.0978
39539W        W82633  29.193  29.839  10.166  0.1516 -0.2017  0.0514
39540W        W82634  25.764  30.559   9.233 -0.0491  0.3587 -0.0320
39541W        W82635  26.846  31.670   8.203  0.1257 -0.2376  0.0485
39542W        W82636  27.325  31.986   7.956  0.0196 -0.1428 -0.0214
39543W        W82637  26.249  30.561   9.910  0.1755 -0.2956 -0.1124
39544W        W82638  26.920  32.715   8.213  0.1479  0.3290  0.1399
39545W        W82639  27.473  29.114   8.958 -0.1703 -0.2239  0.1343
39546W        W82640  26.731  30.036   9.410 -0.1666 -0.2076 -0.0430
39547W        W82641  25.841  29.877   9.256  0.1626 -0.1097 -0.1718
39548W        W82642  27.798  31.297   8.780  0.0921 -0.2407 -0.2580
39549W        W82643  26.895  33.654   9.509 -0.3378  0.0252  0.0099
39550W        W82644  28.151  29.761   8.789 -0.3361 -0.2969  0.2809
39551W        W82645  27.677  30.000   9.215 -0.1769  0.0332  0.2461
39552W        W82646  29.645  33.313   8.058  0.1999 -0.0291  0.0011
39553W        W82647  25.488  31.392   8.231 -0.1568 -0.2870  0.3187
39554W        W82648  24.352  30.481   8.855  0.3574  0.2210 -0.0348
39555W        W82649  27.256  31.643   7.571 -0.1703 -0.0360 -0.1001
39556W        W82650  28.924  30.821   9.404  0.1255 -0.3478  0.1787
39557W        W82651  27.514  29.715   9.986 -0.1789  0.0972  0.0316
39558W        W82652  26.578  31.139   8.209 -0.1237 -0.0516 -0.0137
39559W        W82653  26.368  33.774   8.120 -0.1314 -0.2868  0.0793
39560W        W82654  28.971  28.675   7.610  0.1270  0.1173 -0.0692
39561W        W82655  28.610  32.026   7.034  0.0878  0.0250 -0.0459
39562W        W82656  26.080  31.230   8.170  0.0788 -0.0913  0.0029
39563W        W82657  28.488  31.337   7.261  0.3661 -0.2381  0.1205
39564W        W82658  24.340  28.705  10.054  0.1965 -0.1525  0.0323
39565W        W82659  29.168  31.500   8.843 -0.0956  0.0594  0.1198
39566W        W82660  26.734  29.140   8.536  0.3810  0.0299 -0.0546
39567W        W82661  25.804  30.324   8.346 -0.1704  0.2360 -0.0384
39568W        W82662  27.482  30.573   8.542  0.1884 -0.2303 -0.0084
39569W        W82663  28.067  32.629   9.822 -0.1208 -0.0723 -0.0847
39570W        W82664  26.792  31.356   8.609 -0.4415  0.1509 -0.2749
39571W        W82665  28.901  31.366   9.237 -0.1219 -0.1179 -0.1481
39572W        W82666  26.505  31.831   9.253 -0.1040  0.1641 -0.0673
39573W        W82667  28.891  30.964   7.021 -0.2658  0.1147  0.3011
39574W        W82668  27.213  31.698   8.538  0.0906  0.1982  0.1948
39575W        W82669  25.988  31.093   9.022  0.0770 -0.0875  0.0228
39576W        W82670  27.965  30.840   9.577 -0.1083  0.1470 -0.2210
39577W        W82671  27.803  30.186   8.430  0.0123  0.0573 -0.0206
39578W        W82672  29.001  33.354  10.279 -0.0493  0.2991 -0.0380
39579W        W82673  27.385  30.255   8.126  0.1103 -0.1819  0.0647
39580W        W82674  30.052  30.279   9.573  0.2599 -0.1048 -0.2834
39581W        W82675  29.402  30.982   7.618 -0.3063 -0.1231 -0.1022
39582W        W82676  27.346  30.100   8.743  0.0050  0.2588  0.3148
39583W        W82677  25.130  30.085   9.568  0.2129 -0.2105  0.0350
39584W        W82678  27.343  29.967   7.106 -0.1912  0.1699 -0.2361
39585W        W82679  26.964  32.711   7.612 -0.0946 -0.0155 -0.3051
39586W        W82680  28.140  31.358   7.673 -0.0455 -0.2444 -0.1076
39587W        W82681  27.139  29.183   9.441  0.2145 -0.1688  0.1840
39588W        W82682  25.699  29.775   8.436 -0.0033  0.1024 -0.0645
39589W        W82683  25.926  29.727   7.040  0.0785  0.2762 -0.0830
39590W        W82684  25.646  30.856   9.646 -0.2166 -0.1398 -0.0051
39591W        W82685  27.493  31.115   9.743  0.1548  0.2296 -0.0936
39592W        W82686  27.023  29.836   8.465 -0.2390 -0.2183  0.0281
39593W        W82687  25.888  31.733   8.061 -0.5592  0.2457 -0.2962
39594W        W82688  26.036  28.769   9.313 -0.2581 -0.1218  0.1980
39595W        W82689  26.900  32.279  10.000  0.3479  0.0329  0.2276
39596W        W82690  26.704  31.035   9.036  0.0936 -0.1521  0.1418
39597W        W82691  25.964  25.979  10.195  0.3032 -0.0969  0.3082
39598W        W82692  28.735  30.994   8.480  0.1742 -0.1709 -0.1582
39599W        W82693  28.207  31.757   9.628  0.2173 -0.0156  0.0206
39600W        W82694  26.298  29.146   9.521 -0.0943  0.2051 -0.1603
39601W        W82695  29.853  30.374   8.601 -0.1441  0.2329 -0.1243
39602W        W82696  25.584  32.335   9.932  0.3007 -0.2212 -0.1331
39603W        W82697  27.480  30.683  10.099 -0.2497 -0.1466 -0.0161
39604W        W82698  25.112  30.360  10.019  0.1479 -0.1699 -0.2095
39605W        W82699  26.808  31.330   7.741  0.0083 -0.5883 -0.2184
39606W        W82700  28.415  30.946  10.085  0.0877  0.0279 -0.0143
39607W        W82701  26.157  32.335   8.278 -0.3105 -0.2012 -0.2828
39608W        W82702  29.031  31.357   7.550  0.3919  0.0622 -0.1931
39609W        W82703  27.238  30.602   6.553  0.0706 -0.2014 -0.2071
39610W        W82704  27.291  33.220  10.503  0.0731  0.3164 -0.1857
39611W        W82705  26.789  30.850   7.804 -0.0032  0.2784  0.1099
39612W        W82706  26.460  32.614   8.601  0.0440 -0.1162  0.1642
39613W        W82707  25.399  32.132   7.116  0.0976  0.1779  0.0550
39614W        W82708  27.368  32.636   7.273 -0.2784  0.1526 -0.0257
39615W        W82709  26.650  32.953   7.885 -0.2219 -0.2279 -0.1082
39616W        W82710  29.310  29.073   6.798  0.2676  0.0643  0.3727
39617W        W82711  29.589  30.811   8.597 -0.0173  0.3431 -0.4006
39618W        W82712  28.995  30.217   7.343 -0.4225  0.0090 -0.2215
39619W        W82713  27.753  31.588   9.661  0.0245  0.3706  0.0069
39620W        W82714  27.275  31.351   8.017  0.0830 -0.0427 -0.3307
39621W        W82715  29.772  31.534   8.329  0.1965  0.0737  0.0233
39622W        W82716  27.148  31.032   9.282 -0.0843 -0.1771  0.2181
39623W        W82717  27.876  29.192   9.955  0.0958  0.0586 -0.0633
39624W        W82718  30.518  28.225   9.501  0.0914 -0.0597 -0.2360
39625W        W82719  27.614  31.384   7.376 -0.1079  0.1592  0.3001
39626W        W82720  27.750  31.072   8.325  0.3396 -0.3842  0.1818
39627W        W82721  26.332  32.005   7.965  0.1501 -0.1663 -0.1103
39628W        W82722  25.217  29.541  10.221  0.1538  0.0772 -0.0369
39629W        W82723  28.408  32.212   9.750  0.4352  0.1893 -0.4060
39630W        W82724  25.571  28.736   7.173  0.3513 -0.1074 -0.1616
39631W        W82725  29.088  30.144   8.028 -0.0802 -0.0358 -0.2300
39632W        W82726  24.884  28.528   8.890 -0.0381  0.3468 -0.2246
39633W        W82727  28.343  30.560   9.215  0.0623  0.2462  0.0603
39634W        W82728  27.726  29.680   8.466 -0.1432 -0.0455  0.0716
39635W        W82729  27.900  31.698   9.222 -0.1672 -0.0419 -0.0089
39636W        W82730  26.305  30.801   9.319 -0.0530  0.3788 -0.3823
39637W        W82731  27.299  30.852   8.105  0.1293  0.1357 -0.0619
39638W        W82732  29.409  31.599   6.871  0.0864 -0.2949 -0.0294
39639W        W82733  26.964  28.739   8.830 -0.5955 -0.2844  0.0640
39640W        W82734  27.776  30.560   7.910  0.3036  0.1191 -0.2300
39641W        W82735  28.294  29.995   9.297 -0.1338  0.2570  0.1260
39642W        W82736  28.349  30.322   9.704  0.1601  0.2458 -0.1504
39643W        W82737  25.900  29.490   8.869 -0.0531 -0.1304  0.0593
39644W        W82738  29.082  31.285   6.607  0.0637 -0.1829 -0.1600
39645W        W82739  29.401  30.858  10.319 -0.0780  0.2620 -0.3322
39646W        W82740  27.094  32.120   7.309 -0.0428 -0.0184  0.1187
39647W        W82741  27.697  31.176   7.837  0.0813  0.2460 -0.2510
39648W        W82742  28.318  33.079   9.122 -0.1146 -0.1201 -0.2160
39649W        W82743  21.414  29.352   9.494 -0.0415 -0.1957  0.1598
39650W        W82744  25.302  32.661   9.060  0.0258  0.1392  0.0910
39651W        W82745  29.463  31.681   9.853  0.1640  0.0033 -0.2555
39652W        W82746  27.040  28.119   8.756 -0.0526  0.1654  0.1766
39653W        W82747  25.930  30.213  10.031 -0.0559 -0.2048  0.2584
39654W        W82748  23.099  33.442   9.200  0.0228  0.0536  0.0271
39655W        W82749  28.102  29.233   9.547  0.2459 -0.0390  0.0065
39656W        W82750  25.830  31.965   7.400  0.4238  0.0347 -0.3515
39657W        W82751  27.503  31.708   8.898 -0.0103  0.0411  0.1013
39658W        W82752  26.096  31.625   6.610 -0.0719 -0.0976  0.1189
39659W        W82753  27.200  33.062   8.041  0.0418 -0.0119 -0.0780
39660W        W82754  26.743  31.851   8.744  0.1116 -0.3696  0.3542
39661W        W82755  27.860  32.260   8.831  0.1809  0.1783  0.1593
39662W        W82756  29.037  31.077   7.982  0.2179 -0.0252  0.3957
39663W        W82757  28.257  32.893   8.313 -0.2907 -0.3011 -0.2148
39664W        W82758  27.077  30.531   8.927 -0.4223  0.0045 -0.2034
39665W        W82759  27.856  28.742   9.111 -0.1275 -0.1016 -0.2610
39666W        W82760  27.380  28.627   9.202 -0.0545  0.0055 -0.1778
39667W        W82761  27.922  30.415   9.934 -0.1898  0.2651  0.1236
39668W        W82762  25.508  31.230   7.273  0.1323 -0.0317  0.1123
39669W        W82763  25.729  30.702   8.752  0.1335 -0.5742  0.2848
39670W        W82764  26.211  31.564   8.879 -0.3036 -0.0704  0.4714
39671W        W82765  24.711  30.536   9.739  0.0468  0.0093  0.0621
39672W        W82766  26.045  29.580   8.113  0.0367  0.0641 -0.1878
39673W        W82767  29.980  31.578   7.317  0.0393 -0.0229  0.0436
39674W        W82768  25.600  28.413  10.000  0.2233 -0.2448  0.0849
39675W        W82769  25.388  27.940  10.094  0.0450  0.0821 -0.0121
39676W        W82770  28.098  31.404   8.245 -0.0470 -0.5041 -0.2146
39677W        W82771  30.645  31.380   7.900  0.0729 -0.0890 -0.1659
39678W        W82772  26.318  29.571   9.268 -0.0497 -0.0233 -0.2809
39679W        W82773  24.831  31.959   8.206  0.0394 -0.1958 -0.0416
39680W        W82774  26.230  30.179   8.002  0.0525  0.3028  0.0605
39681W        W82775  27.423  30.927   8.915  0.2181  0.3330 -0.0067
39682W        W82776  27.186  32.339   8.352  0.0729  0.2095 -0.2894
39683W        W82777  28.749  32.386   7.625  0.1647  0.1362  0.2279
39684W        W82778  25.617  27.794   9.565  0.4749  0.0522  0.2011
39685W        W82779  28.384  32.158   8.583 -0.0539 -0.0784  0.1252
39686W        W82780  29.523  32.013   6.548 -0.3089  0.2871  0.0497
39687W        W82781  27.891  30.929  10.137 -0.1101 -0.0607  0.2760
39688W        W82782  28.562  31.828   7.578 -0.0675 -0.0786 -0.0022
39689W        W82783  28.599  29.944   8.934 -0.2213  0.1849 -0.1660
39690W        W82784  25.434  29.619   9.412  0.0323  0.1609  0.1475
39691W        W82785  29.427  30.551   8.227  0.1246  0.0192 -0.1635
39692W        W82786  27.741  31.736   6.932 -0.0552  0.1011  0.0955
39693W        W82787  24.281  31.368   9.451  0.2779 -0.1791 -0.2999
39694W        W82788  25.892  30.997  10.014  0.3419 -0.1120  0.1952
39695W        W82789  27.642  32.148   8.404 -0.1335 -0.1047  0.3956
39696W        W82790  26.605  29.608   9.716 -0.0004 -0.0451  0.0002
39697W        W82791  29.747  30.835   7.153  0.1309  0.0659  0.0670
39698W        W82792  28.327  32.124   9.099 -0.2038 -0.0903  0.0518
39699W        W82793  27.622  32.497   9.398 -0.0070  0.0347 -0.0571
39700W        W82794  29.099  31.979   9.109 -0.0089  0.2626 -0.0269
39701W        W82795  25.306  29.113   9.252 -0.2479  0.0793 -0.3124
39702W        W82796  26.792  31.917   7.767 -0.2633  0.2068 -0.2678
39703W        W82797  26.827  30.917  10.240  0.1311  0.1449  0.4824
39704W        W82798  31.107  29.355   9.147 -0.0130 -0.1179 -0.0012
39705W        W82799  25.916  28.995   8.862  0.0016 -0.2662 -0.0119
39706W        W82800  27.690  28.845   8.609  0.2122 -0.1967  0.1401
39707W        W82801  29.370  31.341  10.163 -0.0044  0.2004 -0.1905
39708W        W82802  28.618  31.757   9.345  0.0613 -0.0209 -0.0618
39709W        W82803  26.489   0.464   0.418  0.2695  0.0718  0.0596
39710W        W82804  28.307  32.303  31.887 -0.0183 -0.0349  0.1927
39711W        W82805  28.604  34.485   0.331  0.2852  0.3508  0.0550
39712W        W82806  27.004  33.625   0.876 -0.3012 -0.0481 -0.0633
39713W        W82807  27.024  34.041   2.858  0.2909  0.0892 -0.0971
39714W        W82808  27.388   0.089  30.621  0.2459  0.2156 -0.2055
39715W        W82809  26.435  33.226   2.112 -0.0663  0.1545  0.1411
39716W        W82810  27.130  32.889  31.547  0.1031  0.4461  0.0650
39717W        W82811  25.766  33.013   1.135  0.3283  0.0678 -0.3735
39718W        W82812  27.167   0.269   1.928  0.2534 -0.4450 -0.0300
39719W        W82813  25.023  34.690   0.130 -0.0345 -0.0707  0.1825
39720W        W82814  26.039  32.912   1.885 -0.0187 -0.1323 -0.1655
39721W        W82815  25.644  33.494   1.287 -0.2818  0.1412  0.0196
39722W        W82816  26.428  33.539   2.488 -0.0201  0.2569  0.2464
39723W        W82817  27.773  32.873   2.681 -0.1590 -0.1607  0.0302
39724W        W82818  26.155   0.209   0.091  0.0260  0.0299  0.0895
39725W        W82819  25.296  34.526   1.539 -0.0265 -0.1058  0.4318
39726W        W82820  27.318  33.506   2.257 -0.2249 -0.0473 -0.0871
39727W        W82821  26.841  33.721   1.459  0.0124 -0.2428  0.1422
39728W        W82822  28.678   1.111   0.559 -0.1656  0.0945  0.1887
39729W        W82823  26.904  33.898   3.511 -0.4006  0.1750 -0.1371
39730W        W82824  26.500   0.238   2.719  0.1589  0.0798 -0.0396
39731W        W82825  27.487   0.124   0.312 -0.1660 -0.1896 -0.2641
39732W        W82826  30.119  33.377   3.078  0.2350 -0.0263 -0.1853
39733W        W82827  28.607  33.466   1.000 -0.3087  0.1706 -0.0474
39734W        W82828  27.412  33.420  31.337 -0.2619 -0.2484  0.0403
39735W        W82829  26.942  33.095   0.779  0.1386 -0.3024 -0.1126
39736W        W82830  27.332  32.414   2.364 -0.1088  0.1624 -0.5343
39737W        W82831  28.904  31.289   1.924  0.0643 -0.0519  0.0665
39738W        W82832  28.070  33.588   0.589 -0.3343 -0.1541 -0.1351
39739W        W82833  28.133   0.432   1.747  0.1630 -0.1361 -0.0723
39740W        W82834  25.999  33.520   0.761 -0.1631  0.0842  0.1434
39741W        W82835  25.760  32.634   2.707 -0.0344  0.1794  0.1947
39742W        W82836  25.768   0.778   4.205  0.2367 -0.1000 -0.2487
39743W        W82837  28.308   0.141   2.931 -0.3217  0.1043  0.4255
39744W        W82838  27.218  31.503   0.516 -0.0291  0.1063  0.2059
39745W        W82839  29.274  33.591   1.839  0.0474 -0.2117 -0.0904
39746W        W82840  28.942   0.089   1.628  0.2099 -0.0372  0.2390
39747W        W82841  27.311  33.120   2.743  0.2119  0.0334  0.0512
39748W        W82842  28.775  33.545  30.465  0.0069 -0.1209 -0.0022
39749W        W82843  27.214  33.538   3.738 -0.1903  0.0545  0.0807
39750W        W82844  25.740  32.202   3.002 -0.0165 -0.2371  0.2297
39751W        W82845  29.395  33.169  31.954 -0.0753 -0.0083  0.1375
39752W        W82846  25.673  32.776   2.119  0.3438  0.0622 -0.1797
39753W        W82847  28.667  32.654   0.722  0.1939  0.0752 -0.0648
39754W        W82848  27.761  32.997  31.483 -0.1539 -0.3682  0.3311
39755W        W82849  26.085  34.062   1.015  0.3368  0.0896 -0.1994
39756W        W82850  26.235  33.452   1.197  0.0830 -0.1066  0.2220
39757W        W82851  25.598  33.770   2.789  0.0863  0.0533 -0.2453
39758W        W82852  25.038  32.789   0.889  0.1141 -0.1339 -0.0334
39759W        W82853  28.160  33.500   1.999  0.1764  0.2346  0.3447
39760W        W82854  25.775  31.592  31.796 -0.1314 -0.0473  0.2017
39761W        W82855  27.899  34.049   1.763 -0.1249  0.1336 -0.1009
39762W        W82856  26.096   0.659   0.951  0.0929  0.0101 -0.0874
39763W        W82857  27.597  33.854   3.058 -0.0710  0.0712 -0.1880
39764W        W82858  27.106  33.519   3.174  0.0930  0.1982 -0.2936
39765W        W82859  26.572  32.600   0.191 -0.0895 -0.1388 -0.3133
39766W        W82860  28.334  31.999   1.256 -0.2094  0.1783  0.2699
39767W        W82861  28.731  32.875   2.437  0.2852 -0.0618  0.0921
39768W        W82862  27.460   1.569   1.000 -0.1935  0.2240 -0.0546
39769W        W82863  26.666  33.067  31.741 -0.2210 -0.0660  0.0463
39770W        W82864  25.612   0.165   0.704 -0.1870 -0.3786 -0.0971
39771W        W82865  28.301  34.166   2.117 -0.1795  0.0497 -0.2653
39772W        W82866  25.284   1.144   3.583  0.1035  0.0240  0.3016
39773W        W82867  28.173  32.917   3.984  0.0565  0.1218 -0.0721
39774W        W82868  25.237  34.255   1.103 -0.2682 -0.2108  0.0696
39775W        W82869  28.392  33.041   0.588 -0.1508 -0.2027  0.2463
39776W        W82870  28.810  33.194  31.760 -0.0157 -0.0035  0.3678
39777W        W82871  27.012  32.676   0.567  0.2132 -0.0133 -0.1012
39778W        W82872  27.909  32.465   0.205 -0.0060  0.1820 -0.3422
39779W        W82873  27.987  34.524   0.394 -0.0478 -0.3165  0.2214
39780W        W82874  27.955  32.966   1.757 -0.1275 -0.0756  0.2113
39781W        W82875  27.123  32.874  30.714 -0.3960  0.4147 -0.1236
39782W        W82876  27.430  32.394   0.344  0.1423  0.3839 -0.0129
39783W        W82877  28.601  33.673   2.138 -0.1199 -0.1874  0.1178
39784W        W82878  27.085  33.293   1.668 -0.0202  0.2084 -0.3786
39785W        W82879  26.265  32.242   4.193 -0.0621 -0.1963  0.2564
39786W        W82880  29.154  33.486   2.855  0.0131  0.2090 -0.0590
39787W        W82881  28.496  34.019   0.939 -0.2800  0.0059 -0.2246
39788W        W82882  28.212   0.024   2.208  0.0365  0.0943  0.0867
39789W        W82883  25.717   1.061   1.195 -0.4339  0.2146 -0.1645
39790W        W82884  25.993  34.031   3.061 -0.0276 -0.0415  0.2600
39791W        W82885  26.856  33.483   4.062 -0.0630  0.0228 -0.1900
39792W        W82886  26.837  34.661   0.979  0.0764 -0.2309 -0.1483
39793W        W82887  25.462  32.973   2.480  0.0803  0.2684  0.0655
39794W        W82888  28.359  31.459   2.090 -0.2731 -0.2964 -0.0071
39795W        W82889  26.459  34.667   0.476  0.0749  0.1575  0.0818
39796W        W82890  23.752   0.067   0.328  0.1329  0.1277  0.3540
39797W        W82891  29.964  31.748   1.734 -0.3151 -0.1253  0.2578
39798W        W82892  26.155  33.679   2.042 -0.0221  0.1674 -0.1583
39799W        W82893  28.175  31.861   1.849  0.1861  0.1821 -0.1106
39800W        W82894  26.992  34.385   2.067  0.0405 -0.1671 -0.0245
39801W        W82895  27.716  32.822   0.960  0.3046 -0.0640 -0.0194
39802W        W82896  27.228  34.448   3.001 -0.1628  0.0577 -0.1167
39803W        W82897  25.485  32.913   0.682  0.2691  0.1480  0.1087
39804W        W82898  28.021  33.926   2.810  0.0307 -0.1413  0.0411
39805W        W82899  26.504  33.780   1.038  0.0741 -0.1677 -0.3763
39806W        W82900  26.373  34.519  31.767  0.3239 -0.3452 -0.2580
39807W        W82901  27.228  33.875   4.281  0.1610 -0.0821 -0.1276
39808W        W82902  27.386  33.636   1.350  0.0940  0.2469  0.0930
39809W        W82903  26.860  34.470   1.474 -0.1217 -0.2695  0.2902
39810W        W82904  28.890  33.135   0.777 -0.1141 -0.0594 -0.2725
39811W        W82905  25.917   0.222   3.502  0.1883 -0.0130  0.4412
39812W        W82906  27.979  32.447   1.750  0.1732 -0.2290 -0.0973
39813W        W82907  27.469  33.036   1.839 -0.0798  0.1072  0.5116
39814W        W82908  28.634  33.071   1.302  0.0840 -0.1581  0.1292
39815W        W82909  28.726  32.081  31.810 -0.1178 -0.0739  0.1612
39816W        W82910  25.924  34.125   1.959 -0.0162  0.1603  0.0962
39817W        W82911  30.442  33.867   3.053 -0.0041  0.2252 -0.2286
39818W        W82912  27.552   0.007  31.462  0.2971 -0.0334  0.0521
39819W        W82913  27.968  32.308   3.760 -0.2949  0.0439  0.0177
39820W        W82914  26.552  33.990   2.776  0.2299 -0.1301  0.1459
39821W        W82915  24.846  34.467   3.315 -0.0668 -0.0836  0.0465
39822W        W82916  26.229   0.284   3.141 -0.0201 -0.0246  0.0235
39823W        W82917  28.273  33.281   0.110  0.3380 -0.0243  0.1307
39824W        W82918  27.343  34.445   0.043 -0.1374  0.0855  0.1015
39825W        W82919  26.521  33.392   1.652  0.0493 -0.0966 -0.0676
39826W        W82920  29.315  32.979   2.064  0.3195  0.0598  0.1750
39827W        W82921  25.918   1.854   1.500 -0.1162  0.1587 -0.0635
39828W        W82922  28.165  34.275   1.347 -0.1124 -0.2150 -0.0609
39829W        W82923  26.346  32.708   3.898  0.3163 -0.0409 -0.0892
39830W        W82924  27.931   0.059   1.353 -0.0663  0.2562 -0.3123
39831W        W82925  29.200  33.043   2.621  0.1669 -0.1154  0.0839
39832W        W82926  27.021  33.905   2.349 -0.1066  0.1421 -0.2604
39833W        W82927  26.888  34.163   4.015  0.1937 -0.3089  0.2119
39834W        W82928  25.139   0.476   2.452 -0.0539 -0.1360  0.1351
39835W        W82929  27.462  33.210  31.859  0.1936 -0.2762  0.0309
39836W        W82930  28.717  34.616   2.549  0.0655  0.3972  0.2012
39837W        W82931  27.465  33.763  31.766  0.1034 -0.1836  0.0503
39838W        W82932  27.939  32.915   0.411 -0.2346 -0.0168  0.5157
39839W        W82933  26.020  33.380   1.680  0.3589 -0.0395 -0.1711
39840W        W82934  28.189   0.336   3.432  0.1263  0.2671  0.0769
39841W        W82935  25.510  33.445   0.792  0.0323 -0.0731  0.1180
39842W        W82936  28.298  33.105   3.454  0.0079 -0.1875 -0.2444
39843W        W82937  28.017  34.109   0.732  0.1566  0.3112  0.0216
39844W        W82938  25.131  34.679   0.583  0.0557 -0.1335 -0.3001
39845W        W82939  25.042  32.653   0.364  0.2994 -0.0283  0.0828
39846W        W82940  27.500   0.297   0.798 -0.1388 -0.1529 -0.3255
39847W        W82941  27.641  31.927   0.540  0.1381 -0.2423 -0.1509
39848W        W82942  27.958  33.318   3.785  0.2024 -0.1720 -0.1855
39849W        W82943  26.750  32.928   1.665 -0.2023 -0.2518 -0.0762
39850W        W82944  28.794  32.062   0.774  0.1028 -0.0594  0.0704
39851W        W82945  27.391   0.709   2.089 -0.1368 -0.4399 -0.0451
39852W        W82946  26.475  34.163   1.334  0.2325 -0.0519  0.0944
39853W        W82947  29.075  34.268   2.685  0.0036  0.0079 -0.0498
39854W        W82948  26.168  33.827   1.515  0.0355 -0.0814  0.1788
39855W        W82949  26.266  34.465   2.939  0.3259  0.1258  0.0402
39856W        W82950  26.859  31.904  31.812  0.0633  0.1233 -0.1028
39857W        W82951  25.148  33.256   0.504 -0.1553  0.1527 -0.1089
39858W        W82952  28.662  33.557   0.501  0.1504 -0.1832  0.1836
39859W        W82953  28.398  34.496   0.827  0.0269 -0.2235 -0.0599
39860W        W82954  29.483  32.640   0.044  0.1320 -0.0546 -0.3013
39861W        W82955  27.663  33.511   1.853 -0.0390 -0.0948  0.1882
39862W        W82956  27.921  33.517  31.591  0.2251  0.2406 -0.2552
39863W        W82957  26.055  33.964   2.546 -0.0429  0.0146  0.2116
39864W        W82958  27.920  33.077   3.085  0.1001 -0.0193  0.1562
39865W        W82959  25.888  33.883   0.339 -0.0809  0.1586 -0.2028
39866W        W82960  27.473  34.295   2.042  0.2658 -0.2458 -0.0504
39867W        W82961  28.794  32.236   2.442 -0.2633  0.3362  0.1455
39868W        W82962  27.724  34.170   1.118  0.1749 -0.1449 -0.0433
39869W        W82963  26.269  33.525   0.229  0.0358 -0.1218  0.0785
39870W        W82964  30.223   0.366   1.354  0.1201 -0.0577 -0.0641
39871W        W82965  28.983  32.982   1.677 -0.1691  0.0264  0.2728
39872W        W82966  27.463  33.886   0.727  0.0585  0.3086  0.0218
39873W        W82967  28.099  33.260   0.993 -0.0043  0.2751  0.1765
39874W        W82968  25.595  33.679   1.728 -0.1082  0.1733  0.5727
39875W        W82969  27.071   0.762   0.948 -0.1394  0.1197  0.1387
39876W        W82970  29.394   0.583   2.800  0.0682 -0.0178 -0.0903
39877W        W82971  26.944   0.452  30.529 -0.2989 -0.0850 -0.1665
39878W        W82972  25.220  33.680   1.097  0.1023 -0.1432 -0.1300
39879W        W82973  27.045  33.442  31.756 -0.0839  0.3464 -0.1219
39880W        W82974  25.571  34.174   2.437  0.0467 -0.0499  0.1929
39881W        W82975  27.248   0.636   3.315 -0.1560 -0.1734  0.1849
39882W        W82976  26.313  31.410   1.100 -0.2783  0.0634 -0.0105
39883W        W82977  28.797  33.441   1.622 -0.1961 -0.0104 -0.1762
39884W        W82978  26.485   0.523   1.376 -0.1426 -0.2063  0.1621
39885W        W82979  25.885  34.614   2.130 -0.0133  0.0635 -0.1597
39886W        W82980  26.743  32.833   1.180 -0.1064 -0.1921 -0.0309
39887W        W82981  26.257  33.018   1.459 -0.2001 -0.0575  0.0718
39888W        W82982  28.155  34.379   2.919  0.2138  0.0731 -0.1494
39889W        W82983  28.719  33.393   2.577 -0.1176  0.3139 -0.4623
39890W        W82984  28.212  33.396   2.718 -0.1046 -0.1610 -0.0401
39891W        W82985  27.615  34.246  31.645  0.4595 -0.1912  0.1936
39892W        W82986  27.956  31.537   0.785  0.2712 -0.1995  0.0645
39893W        W82987  29.806  34.136   0.045 -0.1287 -0.0942  0.0189
39894W        W82988  28.113  32.872   1.275  0.2947  0.0456  0.2724
39895W        W82989  26.196  34.259   4.096  0.2888 -0.2389  0.2037
39896W        W82990  24.353  34.629   0.005  0.2868  0.0766 -0.4597
39897W        W82991  25.900  32.978   3.568  0.4330  0.1090 -0.0656
39898W        W82992  25.166  33.702   3.273 -0.0122 -0.0844 -0.1344
39899W        W82993  26.524  34.021   2.258  0.1522  0.3453 -0.0726
39900W        W82994  26.041  33.112   2.347  0.0916 -0.1705  0.0081
39901W        W82995  26.054  33.451   2.895  0.0043 -0.0068  0.1572
39902W        W82996  24.806  33.636   0.817  0.1690 -0.0310 -0.0165
39903W        W82997  27.057  32.505   1.591  0.1072  0.3214 -0.2535
39904W        W82998  26.035  33.463   4.219  0.1209 -0.0304 -0.4917
39905W        W82999  28.264  32.494   2.693 -0.1543  0.2444  0.3521
39906W        W83000  24.058  33.137   0.525 -0.2660 -0.3804  0.2268
39907W        W83001  28.993  33.320   2.196  0.0506 -0.1594  0.1837
39908W        W83002  26.477  32.702   2.063 -0.1233 -0.0577 -0.0250
39909W        W83003  28.859  32.096   1.320 -0.2641  0.0513 -0.0211
39910W        W83004  24.719   0.917   0.071  0.2028 -0.2544  0.1259
39911W        W83005  25.188  33.200   4.435 -0.1077  0.6193  0.1865
39912W        W83006  25.406  32.672   1.182  0.0220 -0.3527  0.1338
39913W        W83007  27.743   0.281   2.241  0.1964  0.0381 -0.1974
39914W        W83008  24.140  34.217   2.525  0.0185 -0.1659 -0.2751
39915W        W83009  26.887  33.907   0.495 -0.1536  0.3102 -0.1708
39916W        W83010  27.704  34.057   4.366 -0.2861 -0.1740  0.2438
39917W        W83011  26.999  34.443   0.525 -0.0312  0.3679  0.2126
39918W        W83012  27.784   1.271   1.216 -0.0510 -0.0750  0.0321
39919W        W83013  24.742  33.940   1.928 -0.1903 -0.0578  0.0012
39920W        W83014  25.709  33.360   0.203  0.1554 -0.0755  0.0229
39921W        W83015  26.889   0.671   1.699 -0.1786  0.2563 -0.4323
39922W        W83016  28.013  33.728   1.118 -0.0802  0.0830 -0.0877
39923W        W83017  26.780  33.579   2.026 -0.0156 -0.0455 -0.2707
39924W        W83018  27.552  32.352   0.823  0.1797 -0.0881  0.0156
39925W        W83019  26.948   0.410   5.053  0.2252 -0.0204 -0.2386
39926W        W83020  27.805  33.238   2.247 -0.0875 -0.1023 -0.1647
39927W        W83021  29.213  34.538   3.132 -0.0345  0.0281  0.0505
39928W        W83022  25.819  33.624   4.714  0.0273  0.2167 -0.0360
39929W        W83023  27.404  34.258   4.016  0.1130 -0.0959 -0.2578
39930W        W83024  26.576  34.081   6.787 -0.1185 -0.1813  0.1614
39931W        W83025  25.706  32.090   4.433 -0.1772 -0.0147 -0.2714
39932W        W83026  25.492  33.092   4.883  0.1344 -0.1572  0.1649
39933W        W83027  28.762  34.659   5.708  0.1289 -0.0376 -0.2237
39934W        W83028  26.939  34.538   4.394  0.0760  0.2317 -0.0322
39935W        W83029  25.543   0.126   5.125 -0.0844  0.0455  0.0608
39936W        W83030  26.912  33.395   5.535  0.1682 -0.0627 -0.1939
39937W        W83031  28.129  33.302   6.447  0.0310  0.0805 -0.3842
39938W        W83032  27.667  32.998   7.024  0.0128  0.0865  0.1079
39939W        W83033  26.682   0.534   3.121  0.3947 -0.0551  0.0827
39940W        W83034  24.886  34.374   6.460 -0.3684  0.1655  0.1471
39941W        W83035  25.642  34.004   6.904  0.4175 -0.1369 -0.1233
39942W        W83036  27.896  32.856   5.629  0.1612 -0.0729 -0.2534
39943W        W83037  29.190   0.147   5.575 -0.1090 -0.1075  0.1468
39944W        W83038  28.668   0.560   8.999 -0.0551 -0.0143  0.1665
39945W        W83039  28.193  34.237   6.359 -0.1885  0.1731 -0.1115
39946W        W83040  28.255  34.371   5.028 -0.0543 -0.4385 -0.0105
39947W        W83041  29.170  33.904   7.171  0.1536 -0.1071  0.2174
39948W        W83042  27.388  33.382   4.211  0.3132  0.1674 -0.0441
39949W        W83043  27.665  33.453   2.756  0.3529 -0.1274  0.2875
39950W        W83044  28.745  33.061   4.151 -0.0801  0.3018  0.1844
39951W        W83045  26.797  32.569   4.793  0.1187 -0.0450 -0.3591
39952W        W83046  26.129  34.070   4.618 -0.3044  0.2138  0.0851
39953W        W83047  26.935   0.666   5.539 -0.3301  0.0175  0.0443
39954W        W83048  28.146  34.124   5.703  0.0019 -0.0741 -0.0054
39955W        W83049  24.733   0.201   5.715  0.0333 -0.0761  0.0181
39956W        W83050  26.050   1.457   3.796  0.1766 -0.2026 -0.2777
39957W        W83051  25.431   0.473   6.538  0.0126  0.2306  0.1781
39958W        W83052  25.498  34.489   6.885  0.3297 -0.0565 -0.0921
39959W        W83053  26.433  34.640   3.447  0.2351  0.2223 -0.3739
39960W        W83054  28.839  33.539   4.410 -0.2009 -0.2480  0.0374
39961W        W83055  28.566  32.995   6.496 -0.0474  0.2668 -0.1265
39962W        W83056  28.618  33.496   3.954  0.0960 -0.1958  0.0707
39963W        W83057  27.141  32.355   5.474 -0.1748  0.0251 -0.0171
39964W        W83058  26.031  33.057   5.621  0.4313 -0.4087 -0.2870
39965W        W83059  28.943  33.314   4.859  0.0795  0.0686 -0.1220
39966W        W83060  26.329  32.510   7.042 -0.1165 -0.0605  0.1350
39967W        W83061  29.874  33.125   5.086 -0.1753 -0.0578  0.2420
39968W        W83062  27.873  33.782   3.573  0.0148 -0.1438  0.2486
39969W        W83063  25.626  33.859   5.950  0.3110  0.3050  0.0716
39970W        W83064  24.932  34.546   3.918  0.0398 -0.0271  0.3000
39971W        W83065  26.930  32.490   6.986 -0.0561 -0.1067 -0.0040
39972W        W83066  25.322  33.328   6.111 -0.1235 -0.0929  0.1192
39973W        W83067  27.638  34.061   5.790  0.1514  0.2074  0.4055
39974W        W83068  24.838  31.760   4.912  0.4409  0.0238 -0.0135
39975W        W83069  28.243  33.822   5.167 -0.1421 -0.0161 -0.2071
39976W        W83070  26.761   0.575   6.290 -0.1896 -0.1081 -0.1959
39977W        W83071  28.697  32.885   7.526 -0.0078  0.1622 -0.1467
39978W        W83072  27.356  34.490   6.422  0.1179  0.2045 -0.1105
39979W        W83073  24.989  34.189   4.333 -0.0845 -0.3465  0.1962
39980W        W83074  26.107  34.492   5.059  0.0065 -0.2892 -0.0227
39981W        W83075  28.979  33.336   7.295 -0.0431 -0.3603  0.1767
39982W        W83076  28.628   0.063   4.780 -0.0826  0.1866 -0.1895
39983W        W83077  24.856  33.801   4.060 -0.0733  0.0860 -0.2401
39984W        W83078  26.286   0.957   4.242  0.2583 -0.0206 -0.2019
39985W        W83079  29.087  33.669   5.518  0.1669  0.1589 -0.1183
39986W        W83080  24.376   0.117   7.416 -0.0994  0.1160  0.0278
39987W        W83081  28.797  33.489   6.769  0.0232 -0.1305 -0.0732
39988W        W83082  26.952  32.233   4.205 -0.1377 -0.0736  0.0153
39989W        W83083  29.076  32.980   5.627 -0.0265  0.0247 -0.1408
39990W        W83084  28.362  33.993   3.178  0.1724 -0.1721 -0.0324
39991W        W83085  27.527  33.305   3.376 -0.3830 -0.6020 -0.4805
39992W        W83086  26.585  33.513   3.107  0.0206  0.0764 -0.0100
39993W        W83087  25.811  34.433   4.446 -0.1648 -0.3871  0.0573
39994W        W83088  25.507  34.455   6.107  0.0705  0.0379 -0.0502
39995W        W83089  27.704  33.711   4.047  0.5173  0.0756 -0.0386
39996W        W83090  27.678  32.373   5.669  0.2025 -0.0560 -0.1511
39997W        W83091  29.191  33.047   6.834  0.1143 -0.2629  0.0523
39998W        W83092  28.197  32.534   6.418  0.0627  0.0818 -0.0223
39999W        W83093  27.990  32.123   6.029  0.0695  0.0168  0.2415
40000W        W83094  29.688  34.019   7.259 -0.0205 -0.0852 -0.1707
40001W        W83095  26.978  34.111   4.685  0.2380 -0.2942  0.0694
40002W        W83096  28.538   0.112   5.272  0.0266  0.1777  0.0091
40003W        W83097  26.065   0.720   2.838 -0.0919  0.2080  0.0220
40004W        W83098  28.545  33.862   6.999 -0.2378  0.1267 -0.0504
40005W        W83099  28.373  33.172   7.755 -0.1925  0.2002 -0.1377
40006W        W83100  26.349  33.199   3.836 -0.3619 -0.0434 -0.0552
40007W        W83101  26.948  32.920   5.660 -0.0960 -0.1982  0.0373
40008W        W83102  29.126  33.155   6.362 -0.1706  0.1828  0.1076
40009W        W83103  27.410  33.889   4.726  0.0399  0.0149  0.1127
40010W        W83104  27.291   1.108   4.270  0.3249  0.0871 -0.1099
40011W        W83105  28.430  32.558   4.813  0.1055  0.0152  0.0614
40012W        W83106  26.324  33.391   5.824 -0.1857  0.1524 -0.2268
40013W        W83107  27.341  32.977   6.274 -0.1404 -0.0744  0.0784
40014W        W83108  27.904  34.516   5.999 -0.1630  0.1121 -0.0203
40015W        W83109  28.790  32.033   3.625  0.1366 -0.1343 -0.1119
40016W        W83110  26.551  34.585   6.806  0.0909  0.1224  0.0226
40017W        W83111  25.326  34.232   3.124  0.1794  0.0949  0.1445
40018W        W83112  28.029   0.329   5.702 -0.2621 -0.1638 -0.2490
40019W        W83113  27.621  33.258   5.494  0.1587  0.0496 -0.1815
40020W        W83114  27.682   0.419   3.500  0.0799  0.0065  0.2220
40021W        W83115  27.350  33.754   6.754  0.4900  0.0114 -0.1855
40022W        W83116  25.966  33.853   5.119 -0.2713  0.3670 -0.0451
40023W        W83117  25.488  33.606   5.085 -0.1220  0.0087  0.0277
40024W        W83118  27.435  33.594   5.848 -0.0099  0.0083  0.1184
40025W        W83119  26.475  34.382   7.281  0.0055  0.3213  0.1429
40026W        W83120  28.204  32.935   7.376 -0.0578 -0.3193 -0.0719
40027W        W83121  28.581   0.910   5.894 -0.0057  0.2308  0.0778
40028W        W83122  27.310   0.026   6.831  0.0868  0.0795 -0.0492
40029W        W83123  27.434  33.755   5.415 -0.0743 -0.2306  0.0369
40030W        W83124  28.307  33.393   5.864 -0.0934 -0.1125 -0.4288
40031W        W83125  29.104  33.187   7.797 -0.2603 -0.0842 -0.1781
40032W        W83126  25.782  34.337   3.959 -0.1227 -0.0938 -0.0671
40033W        W83127  29.454  31.425   7.931  0.1126 -0.1654 -0.0527
40034W        W83128  26.511  33.093   4.755 -0.0599  0.4275 -0.0122
40035W        W83129  26.383  33.387   6.877  0.1751 -0.1509 -0.1827
40036W        W83130  27.710  34.624   7.130  0.0690 -0.1350 -0.0720
40037W        W83131  26.406  33.033   5.298 -0.0463  0.1491  0.2008
40038W        W83132  25.794  33.468   3.750 -0.0428 -0.0618  0.1578
40039W        W83133  27.156   0.154   5.479 -0.0044  0.4573  0.2340
40040W        W83134  28.791  34.245   4.902 -0.0993  0.0192  0.2505
40041W        W83135  27.114   0.679   6.701 -0.1918 -0.2136  0.1422
40042W        W83136  28.323  33.286   4.316 -0.3221  0.0335  0.1331
40043W        W83137  27.191  31.921   6.467 -0.1717 -0.2439  0.2102
40044W        W83138  27.869  34.462   4.634 -0.0811 -0.1306 -0.0158
40045W        W83139  28.518  32.231   6.609  0.1668 -0.0818  0.0808
40046W        W83140  28.130  33.848   6.733 -0.0445 -0.1303 -0.0929
40047W        W83141  27.070  34.172   6.641 -0.0427  0.1770 -0.1971
40048W        W83142  25.739  31.779   6.946 -0.0574  0.1763 -0.0917
40049W        W83143  28.364  34.059   3.710  0.1738 -0.0648 -0.0971
40050W        W83144  29.220   0.287   6.365  0.1544 -0.1696 -0.1243
40051W        W83145  28.198  33.735   4.075 -0.0689  0.4484 -0.2416
40052W        W83146  27.764  33.582   5.089 -0.0782 -0.1503 -0.0523
40053W        W83147  26.489  34.296   5.480  0.2053  0.2620 -0.2358
40054W        W83148  29.089  33.739   7.681  0.2041 -0.0024 -0.4064
40055W        W83149  25.986  32.960   4.037  0.1475 -0.4315 -0.2219
40056W        W83150  27.785  33.644   8.232 -0.4546  0.0519  0.0290
40057W        W83151  27.398  34.458   4.485  0.3820 -0.2839  0.0729
40058W        W83152  25.198   0.543   5.629 -0.1547  0.4321 -0.1191
40059W        W83153  26.291  34.420   2.437 -0.0075  0.0770  0.0023
40060W        W83154  26.900   0.176   3.423 -0.0007  0.0488 -0.3153
40061W        W83155  27.581  31.871   2.885  0.0774  0.2259 -0.1258
40062W        W83156  29.161   0.036   7.417 -0.1833  0.1663 -0.0103
40063W        W83157  28.532  32.942   5.567 -0.0418  0.0829  0.1017
40064W        W83158  28.427  32.487   7.135  0.2244 -0.3374  0.0558
40065W        W83159  28.210  34.627   5.575  0.0596 -0.3224 -0.3879
40066W        W83160  28.539  33.769   5.584  0.1357  0.3471 -0.4059
40067W        W83161  29.014  33.676   6.033  0.2248  0.0858  0.0607
40068W        W83162  26.303  34.626   4.406 -0.0297 -0.1519  0.0307
40069W        W83163  25.464  33.318   7.414  0.2234 -0.1495 -0.1842
40070W        W83164  26.539   0.757   4.618  0.0357  0.0347  0.1598
40071W        W83165  27.632   0.616   4.931  0.0701  0.1562  0.1098
40072W        W83166  29.347  32.354   4.813 -0.0055 -0.0364 -0.0448
40073W        W83167  29.026  34.606   5.175  0.2389  0.3123 -0.1069
40074W        W83168  29.091  32.820   3.880  0.1032 -0.0920 -0.2952
40075W        W83169  27.221  33.852   6.270  0.1274 -0.0837 -0.0206
40076W        W83170  26.693  32.855   3.450  0.3078 -0.0441  0.0672
40077W        W83171  26.761  33.867   6.360 -0.1754 -0.3637  0.1305
40078W        W83172  29.204  33.067   8.310  0.2842 -0.1196  0.0230
40079W        W83173  26.707  33.376   3.579  0.1731 -0.1230 -0.1969
40080W        W83174  26.123   0.098   5.515 -0.2116  0.1210 -0.0985
40081W        W83175  28.117  32.072   6.968  0.0572 -0.0495  0.1408
40082W        W83176  29.403  33.380   4.650  0.1306 -0.0869 -0.0531
40083W        W83177  25.072  34.082   3.604 -0.1179 -0.1679  0.0811
40084W        W83178  29.167  33.844   4.785 -0.1582  0.1469 -0.3097
40085W        W83179  26.777  34.438   6.330 -0.1859  0.2455  0.1235
40086W        W83180  28.682  32.920   6.974 -0.1899 -0.0293 -0.1610
40087W        W83181  26.503  33.979   5.008  0.2652  0.2961  0.0399
40088W        W83182  29.903  32.907   4.036 -0.3136 -0.0367 -0.0352
40089W        W83183  25.447   0.141   5.633  0.0208  0.0059  0.3102
40090W        W83184  26.300  33.540   4.689  0.2446 -0.0396 -0.0315
40091W        W83185  28.850  34.498   7.062 -0.0340 -0.2183  0.3744
40092W        W83186  28.494  33.871   2.718 -0.3559 -0.0693 -0.1624
40093W        W83187  25.490  33.547   4.211  0.1325  0.0281 -0.2394
40094W        W83188  27.355  32.486   4.442 -0.1330 -0.0355 -0.0695
40095W        W83189  25.714   0.595   5.525  0.2123  0.0726 -0.1384
40096W        W83190  27.631   0.224   5.939 -0.1025  0.0016  0.1248
40097W        W83191  26.059  32.170   4.766 -0.3418 -0.1912 -0.0708
40098W        W83192  28.567  33.437   6.298  0.0106 -0.0408 -0.0136
40099W        W83193  27.811   0.382   4.049 -0.1802  0.1838  0.2249
40100W        W83194  24.452  33.171   5.920 -0.1758 -0.3571 -0.2042
40101W        W83195  27.861  34.233   5.223 -0.1315 -0.1722  0.2677
40102W        W83196  26.190   1.352   5.141  0.1922 -0.1527  0.2510
40103W        W83197  29.947  32.978   6.253  0.1684 -0.1603  0.1749
40104W        W83198  28.492  34.332   6.747 -0.0935  0.0810 -0.1283
40105W        W83199  28.971  32.194   6.406 -0.0725 -0.0587 -0.0428
40106W        W83200  28.869   0.439   5.074  0.2937  0.1339  0.0338
40107W        W83201  26.440  33.557   5.281  0.0325  0.2345  0.1764
40108W        W83202  28.828  33.207   3.535  0.0378 -0.0621  0.1063
40109W        W83203  28.274  32.534   5.754  0.2408 -0.2004 -0.2881
40110W        W83204  26.597  34.086   5.891 -0.2125  0.1401 -0.2185
40111W        W83205  25.269   0.482   4.254  0.0078  0.0386 -0.0316
40112W        W83206  28.200  33.398   8.267  0.0840 -0.0232 -0.1720
40113W        W83207  25.815  34.111   7.901 -0.5587  0.2993  0.1768
40114W        W83208  26.003   1.091   4.602 -0.1509  0.1830 -0.0786
40115W        W83209  25.729  34.447   5.459 -0.2870 -0.1493  0.0043
40116W        W83210  26.280  32.623   4.806  0.0980 -0.1813 -0.3078
40117W        W83211  24.199  33.049   4.609 -0.3648  0.0184 -0.0371
40118W        W83212  27.708   0.227   4.626 -0.2002 -0.1292 -0.2453
40119W        W83213  27.657  34.146   6.818  0.0648 -0.0421 -0.5371
40120W        W83214  27.131  33.971   5.773  0.2594 -0.3505 -0.0159
40121W        W83215  25.503  32.118   4.986  0.0274 -0.2663  0.3051
40122W        W83216  27.332  32.824   4.756 -0.0456  0.1244  0.1310
40123W        W83217  25.286  32.578   5.808 -0.2728 -0.0078  0.1962
40124W        W83218  28.025  33.779   6.072 -0.2276 -0.1439  0.0378
40125W        W83219  28.582  33.467   3.057 -0.2567  0.2568 -0.2680
40126W        W83220  26.418  32.035   6.596  0.0394  0.1138 -0.0487
40127W        W83221  27.277  32.279   4.979  0.0644  0.0775 -0.2717
40128W        W83222  27.951  33.655   5.566 -0.2175  0.2634  0.1918
40129W        W83223  25.166  33.569   6.526  0.1818  0.1573  0.0461
40130W        W83224  26.562  33.965   4.358  0.2238  0.0636 -0.1475
40131W        W83225  28.131  33.676   7.353  0.1329  0.2959 -0.2144
40132W        W83226  28.861  34.519   4.399 -0.0069  0.1144 -0.0272
40133W        W83227  29.212   0.137   3.575  0.0131 -0.0027  0.1057
40134W        W83228  26.213  33.909   5.603  0.1192 -0.0965 -0.0987
40135W        W83229  27.032  34.390   3.606  0.1544 -0.3281 -0.4180
40136W        W83230  28.321   0.492   4.883 -0.1259 -0.0478 -0.0230
40137W        W83231  28.823  33.177   5.973  0.3026  0.0614  0.1256
40138W        W83232  26.643   0.042   5.208 -0.1694  0.2618 -0.1245
40139W        W83233  26.807  33.294   5.073 -0.1245  0.0714 -0.3755
40140W        W83234  26.001  34.566   8.046 -0.2170 -0.2091  0.2812
40141W        W83235  29.644  32.948   7.579  0.3363 -0.0249  0.4249
40142W        W83236  29.455  33.979   9.073  0.1936 -0.0495  0.2584
40143W        W83237  26.962  33.227   7.661  0.2996  0.2686  0.1281
40144W        W83238  28.301   0.967   7.841 -0.1207  0.1149 -0.2411
40145W        W83239  27.853   0.023   9.684  0.2100  0.1712  0.1447
40146W        W83240  25.730  32.623   8.242  0.3020 -0.1430 -0.1280
40147W        W83241  27.255  33.373   9.529 -0.2510  0.3468 -0.3457
40148W        W83242  28.186  34.242  10.589  0.0359 -0.0084 -0.3410
40149W        W83243  25.756   0.274   6.980 -0.0518 -0.1001  0.0056
40150W        W83244  26.421  34.009   9.755 -0.0281  0.0661  0.1546
40151W        W83245  26.673  33.817   7.646  0.0821 -0.2948  0.1226
40152W        W83246  27.251  32.861   9.455 -0.0217 -0.0031  0.0123
40153W        W83247  26.068  32.940   7.026 -0.0298 -0.1144 -0.0170
40154W        W83248  26.130  34.363   8.721 -0.2944  0.1250 -0.1173
40155W        W83249  25.835  33.022   9.363  0.1048  0.0745 -0.0382
40156W        W83250  27.159  33.972   8.657 -0.1214 -0.0149 -0.1674
40157W        W83251  27.436   0.946  10.132  0.2935 -0.2671  0.1379
40158W        W83252  27.408  33.767   9.178  0.2174 -0.1978 -0.0180
40159W        W83253  27.382   0.147   8.799  0.2901 -0.0541  0.1728
40160W        W83254  27.383  34.269   7.238  0.2557 -0.0038 -0.5406
40161W        W83255  27.043  33.347   6.140  0.0061  0.2265 -0.0792
40162W        W83256  26.908  33.909   7.119 -0.0535 -0.4210  0.1643
40163W        W83257  26.640  32.248   7.404 -0.0584  0.0261 -0.0321
40164W        W83258  26.680  33.072   8.877 -0.1583 -0.0051  0.3341
40165W        W83259  26.378  34.307   7.788  0.0892  0.2245 -0.3013
40166W        W83260  28.309  33.469   9.536  0.2907  0.1466  0.0820
40167W        W83261  26.272  33.984   9.137 -0.0969 -0.1074  0.1547
40168W        W83262  25.369  33.997   8.231  0.0707  0.1218  0.0390
40169W        W83263  27.146  32.389   6.467  0.0455  0.0140 -0.0798
40170W        W83264  29.073  33.706   8.877 -0.2326  0.1194 -0.2558
40171W        W83265  28.411  33.331   8.721 -0.0118  0.1543 -0.2925
40172W        W83266  28.686  32.539  10.041 -0.2394 -0.1470 -0.0133
40173W        W83267  28.633  34.689   7.500  0.3759 -0.2681  0.0377
40174W        W83268  26.170  33.802   8.648 -0.0990  0.1044  0.1334
40175W        W83269  27.856  32.691   9.010  0.3947 -0.2524  0.2658
40176W        W83270  28.747  32.211   9.392  0.2056 -0.0949  0.2011
40177W        W83271  28.676  33.463   8.078 -0.0495 -0.1851  0.1060
40178W        W83272  26.149  33.724   7.629 -0.2213 -0.0992  0.0215
40179W        W83273  25.354  32.602   9.564 -0.2489 -0.3174  0.0418
40180W        W83274  26.997  33.108   8.490 -0.0457  0.0819 -0.0545
40181W        W83275  29.310   0.133   9.772 -0.0666 -0.1320  0.1286
40182W        W83276  26.693  34.026   8.802 -0.1558 -0.4287 -0.1728
40183W        W83277  28.646  33.409  10.623 -0.1270  0.0318  0.0001
40184W        W83278  27.223  33.662   7.812 -0.0654  0.2739  0.2861
40185W        W83279  27.203  32.945   8.970  0.1971 -0.3174  0.0799
40186W        W83280  26.698  34.067   8.317  0.1205 -0.1690  0.2116
40187W        W83281  26.586  32.908   6.854 -0.0663 -0.0002  0.0719
40188W        W83282  24.870   1.433   9.095  0.1255  0.1114 -0.0844
40189W        W83283  29.026  34.216   8.821 -0.0031 -0.1271 -0.2824
40190W        W83284  25.986  34.684   7.535  0.1278 -0.0492 -0.1085
40191W        W83285  28.394  33.890   9.236  0.2847  0.0895  0.0157
40192W        W83286  29.165  32.664   7.790  0.0801  0.0809 -0.0016
40193W        W83287  27.871  34.624   6.636  0.1674 -0.0549 -0.4155
40194W        W83288  27.880  32.546   7.283  0.0754  0.1687 -0.1699
40195W        W83289  26.882  32.824   6.238 -0.2503 -0.2259 -0.0707
40196W        W83290  26.845  33.095   9.761  0.1252 -0.0048 -0.0476
40197W        W83291  26.266  33.779   6.131 -0.0129  0.1924  0.0168
40198W        W83292  27.127  33.517   8.836 -0.1702 -0.2642  0.3081
40199W        W83293  27.535  33.062   8.533  0.4058  0.1152 -0.1961
40200W        W83294  28.113  33.604  10.400 -0.0487  0.1931  0.1235
40201W        W83295  28.312   0.156   8.749  0.1782  0.0637  0.0439
40202W        W83296  27.073  34.473   8.491 -0.2096 -0.3040 -0.0853
40203W        W83297  26.054  34.342   6.870  0.3077 -0.1741  0.1024
40204W        W83298  29.378  32.007  10.225  0.2667 -0.0781 -0.0764
40205W        W83299  28.412  33.310   7.091 -0.1559  0.2569 -0.0259
40206W        W83300  26.742  33.581   8.586 -0.3020  0.2527  0.0010
40207W        W83301  27.416  31.940   9.813 -0.1010 -0.1193 -0.0029
40208W        W83302  27.725  33.750   7.701  0.1364 -0.0686  0.0168
40209W        W83303  25.798  33.786   8.337 -0.0038  0.1613  0.0715
40210W        W83304  27.372  33.783   9.808  0.0551 -0.1213 -0.0698
40211W        W83305  27.113  32.742   9.962 -0.1772  0.2492 -0.1368
40212W        W83306  28.447  33.011   9.611  0.1369 -0.5580  0.1793
40213W        W83307  29.237  33.626   8.220  0.1693 -0.1085 -0.0901
40214W        W83308  25.342  33.065   7.973  0.1161 -0.0939 -0.1197
40215W        W83309  26.284  34.395   9.472 -0.0016  0.0749 -0.1791
40216W        W83310  27.615  34.288   9.831  0.4396  0.1972  0.0914
40217W        W83311  27.590  34.336   7.674  0.2944 -0.1017  0.1828
40218W        W83312  27.783  32.905  10.317 -0.1596  0.3851  0.3023
40219W        W83313  26.193  32.743   9.017  0.0824  0.0862  0.0706
40220W        W83314  26.264  33.307   7.942 -0.2293 -0.0430 -0.2938
40221W        W83315  27.469  34.299   8.868  0.1404  0.0829 -0.3192
40222W        W83316  27.972  33.110   8.773  0.0202 -0.3441 -0.0392
40223W        W83317  26.027  32.154   9.824  0.1794  0.1880 -0.0292
40224W        W83318  25.412  33.499   9.768  0.1398 -0.0533 -0.3079
40225W        W83319  28.894  33.369   8.546  0.0237 -0.1996  0.0551
40226W        W83320  27.474  32.582   8.709 -0.4122 -0.0313 -0.2799
40227W        W83321  27.692   0.220   7.552 -0.0324  0.1242 -0.0741
40228W        W83322  26.564  32.465   7.849  0.0572  0.2212 -0.0299
40229W        W83323  27.282  34.178   9.439 -0.0002  0.2297 -0.2472
40230W        W83324  27.553  33.397  10.085  0.1067 -0.3416  0.0238
40231W        W83325  26.261   0.378   8.310 -0.1190  0.0056 -0.0387
40232W        W83326  29.290  34.104   7.988  0.2076  0.3108  0.1670
40233W        W83327  25.731   0.648  10.115 -0.1102 -0.0987  0.0131
40234W        W83328  28.100  33.730   8.650 -0.1561  0.2330 -0.0711
40235W        W83329  27.901  34.069   9.047  0.1177  0.0866 -0.0791
40236W        W83330  28.691  34.027   7.925  0.1749  0.0466  0.1155
40237W        W83331  29.091  34.228   9.851  0.1628 -0.0922 -0.1456
40238W        W83332  28.572   0.187   8.324 -0.1743 -0.1450  0.1545
40239W        W83333  27.544  34.680   8.370  0.0968  0.0763 -0.1996
40240W        W83334  27.517   0.021   9.292  0.0588  0.2289  0.2838
40241W        W83335  26.439  33.832   7.188 -0.3111 -0.0778 -0.1534
40242W        W83336  28.633  34.391   8.538 -0.1731 -0.0578 -0.1865
40243W        W83337  26.450  33.234   7.388 -0.0272 -0.2507 -0.1948
40244W        W83338  26.043  33.294   6.446  0.0995 -0.1953 -0.0441
40245W        W83339  27.823  34.102   8.016 -0.0103  0.1650 -0.4048
40246W        W83340  27.001  33.133   6.608  0.2020 -0.0170 -0.0508
40247W        W83341  26.997  31.907   9.138  0.0127 -0.1941 -0.1260
40248W        W83342  29.124  33.937  10.282  0.2384 -0.1339  0.1644
40249W        W83343  27.749   0.542  10.336  0.1198  0.0749  0.1770
40250W        W83344  25.522   2.307   9.635 -0.1906  0.1869  0.1641
40251W        W83345  25.645  34.532   8.917  0.0157  0.1668 -0.4666
40252W        W83346  27.749  33.459   9.594  0.0671  0.0317 -0.3446
40253W        W83347  28.371  33.980   8.323 -0.3530  0.0277 -0.1123
40254W        W83348  29.304  32.309   7.382  0.0495  0.2249 -0.0911
40255W        W83349  29.343   0.476   8.761  0.1725  0.1292 -0.0041
40256W        W83350  29.186  32.771   8.763 -0.0648  0.2739  0.1211
40257W        W83351  27.979  33.834   9.907 -0.2013 -0.2390 -0.3961
40258W        W83352  27.275  33.330   7.076  0.0698 -0.2160  0.0851
40259W        W83353  25.998  33.167   7.451 -0.0749 -0.0390  0.0600
40260W        W83354  27.086  34.180   7.626  0.1686 -0.0355  0.0740
40261W        W83355  27.905  33.025   9.389 -0.0563 -0.0543 -0.0855
40262W        W83356  27.280  34.062   8.146  0.2901 -0.1038  0.1757
40263W        W83357  26.391  32.710   7.454 -0.1017  0.2166  0.1386
40264W        W83358  29.103   0.044   9.213 -0.0666  0.0904 -0.2001
40265W        W83359  27.188  32.474   9.150 -0.1387 -0.1377  0.0600
40266W        W83360  25.988  34.143   7.362  0.0850  0.2255 -0.1348
40267W        W83361  28.667  32.888   8.625  0.0722  0.2458  0.1586
40268W        W83362  25.310  34.195   9.116  0.3010 -0.1308 -0.0078
40269W        W83363  27.226   0.170   7.394 -0.1746  0.1681  0.2780
40270W        W83364  29.622   0.194   7.248  0.0155  0.0407 -0.1789
40271W        W83365  25.810  32.478   9.272 -0.0241  0.0181 -0.0226
40272W        W83366  28.217  31.079   8.683  0.1065  0.1811  0.0901
40273W        W83367  26.814   0.022   7.612  0.1206  0.0883  0.0903
40274W        W83368  27.557  33.240   9.129 -0.1204  0.1206 -0.2008
40275W        W83369  24.671  32.807   8.394 -0.1062  0.3544 -0.0683
40276W        W83370  28.179  34.347   9.959  0.0165  0.2469 -0.1065
40277W        W83371  28.728  34.338   9.277 -0.0179 -0.0200 -0.0379
40278W        W83372  25.186  32.099  10.080  0.2527 -0.3084 -0.1909
40279W        W83373  27.208  33.559   8.320 -0.0811 -0.1365 -0.1056
40280W        W83374  26.171  33.516   9.227 -0.1626  0.0184 -0.1850
40281W        W83375  28.914  33.830   9.353 -0.0819  0.0018 -0.1450
40282W        W83376  27.563  33.305   7.835  0.2742 -0.0096  0.0451
40283W        W83377  26.137  34.159   8.239 -0.0584 -0.2046  0.1569
40284W        W83378  28.736  32.484   8.357 -0.0464 -0.0560  0.1907
40285W        W83379  27.225  32.130   8.783 -0.3320 -0.0713  0.2871
40286W        W83380  26.544   0.316   9.147 -0.1466  0.0242 -0.2309
40287W        W83381  23.697  34.556   7.203  0.2378  0.2304  0.2318
40288W        W83382  26.025   0.510   7.884 -0.3067  0.0118  0.1555
40289W        W83383  26.997  32.946   7.141 -0.1763 -0.2680  0.0118
40290W        W83384  26.625  32.369   9.576  0.3068 -0.2892  0.0883
40291W        W83385  26.776  33.509   8.050  0.0516  0.0126  0.1144
40292W        W83386  27.644  33.537   8.712 -0.1135 -0.1360 -0.4685
40293W        W83387  25.029  33.149   7.576  0.0602 -0.0582 -0.4172
40294W        W83388  26.482  34.425   9.055  0.1959  0.4783  0.5637
40295W        W83389  27.634  32.437   9.954 -0.2119 -0.0209  0.1269
40296W        W83390  29.188  33.750   9.813  0.2284  0.0510  0.1797
40297W        W83391  27.375   0.054   7.870 -0.1182  0.3033 -0.0684
40298W        W83392  25.727  32.175   7.914 -0.3700  0.3681  0.4048
40299W        W83393  27.959  32.926   7.939  0.1517  0.0266  0.0374
40300W        W83394  25.589   1.047   9.793 -0.3468  0.1022  0.1876
40301W        W83395  27.917  34.649   7.911 -0.2561  0.2489 -0.1266
40302W        W83396  25.960  33.659   7.156  0.0473 -0.1188  0.0443
40303W        W83397  30.377   0.219   7.104  0.1012 -0.0427 -0.1767
40304W        W83398  27.580  32.953   9.810 -0.0294 -0.1885  0.4784
40305W        W83399  26.987   0.632   7.285 -0.1176  0.0941 -0.2327
40306W        W83400  27.215  34.592   9.654  0.0900 -0.2733 -0.1170
40307W        W83401  27.495  31.950   9.295 -0.0618  0.0130 -0.1847
40308W        W83402  27.456   0.265   9.892 -0.3054 -0.0890 -0.0655
40309W        W83403  29.668  31.946   8.027  0.0867 -0.2708 -0.1971
40310W        W83404  29.771   0.661   4.310 -0.3264 -0.2490 -0.1007
40311W        W83405  29.687   1.776  31.682 -0.1460 -0.0043  0.2463
40312W        W83406  31.413   2.597   0.857  0.3422  0.1224 -0.0682
40313W        W83407  31.840   1.575   0.537 -0.0562  0.2272  0.0121
40314W        W83408  29.976   1.488   1.122 -0.4098  0.0201  0.3420
40315W        W83409  29.810   3.835   0.970  0.1913  0.1098  0.4045
40316W        W83410  30.184   0.136   1.795  0.1245  0.1541  0.2096
40317W        W83411  31.850   2.672   0.987  0.1598  0.0025 -0.0130
40318W        W83412  31.875   3.478   1.949  0.0918 -0.0101 -0.1436
40319W        W83413  32.144   1.126   0.744 -0.1837  0.4497 -0.2331
40320W        W83414  30.041  34.094   2.748  0.2196 -0.0373  0.0733
40321W        W83415  29.729   1.060   3.214 -0.2180 -0.1306 -0.0887
40322W        W83416  31.175   0.349   0.492 -0.1027 -0.0364 -0.0623
40323W        W83417  27.857  33.751   2.291 -0.1864  0.2705 -0.5092
40324W        W83418  30.481   1.389   3.286  0.0663  0.0351 -0.2527
40325W        W83419  30.170   1.857   1.445 -0.2532 -0.0608 -0.1029
40326W        W83420  29.256   1.454   2.479 -0.3459 -0.0857 -0.1454
40327W        W83421  31.545   1.009   0.404  0.0782 -0.0215 -0.2289
40328W        W83422  31.370   3.503  31.516  0.1733  0.2283  0.2164
40329W        W83423  30.955   0.235   3.147 -0.0275 -0.1198  0.0738
40330W        W83424  31.790  34.266   2.760  0.3060  0.0723  0.2876
40331W        W83425  31.126   2.233  30.490 -0.2687 -0.0899 -0.4023
40332W        W83426  28.821   1.615  31.090  0.1491 -0.0443  0.0789
40333W        W83427  29.698   0.131   2.552 -0.0807 -0.1391  0.1018
40334W        W83428  29.575   3.436   2.022 -0.1152  0.1690  0.1288
40335W        W83429  30.399   0.697   0.827 -0.0432  0.0671  0.0771
40336W        W83430  33.067   2.025   1.629 -0.2378 -0.1773 -0.0119
40337W        W83431  30.419   3.146   1.575 -0.1013 -0.2658  0.2275
40338W        W83432  31.224   3.141   2.093  0.2204 -0.1874 -0.2680
40339W        W83433  31.098   0.957   3.807 -0.0553 -0.1218 -0.0135
40340W        W83434  29.636   2.707   0.552  0.3100  0.0354 -0.2044
40341W        W83435  28.802   2.875  31.827  0.0762 -0.2899  0.1433
40342W        W83436  30.868   3.333  31.381  0.1065  0.0502  0.0747
40343W        W83437  33.087   4.352   1.649  0.1588  0.2419 -0.1031
40344W        W83438  31.597   4.061   1.343  0.2200  0.5153 -0.1172
40345W        W83439  30.471   2.728   3.104 -0.2266  0.1262 -0.0108
40346W        W83440  30.402   2.520  31.485  0.1496 -0.0954 -0.2173
40347W        W83441  29.747   1.743   2.610  0.0345 -0.1850  0.2011
40348W        W83442  29.424   3.841   2.278  0.2480  0.0823  0.1741
40349W        W83443  29.880   2.185   2.387 -0.1453  0.1899 -0.1166
40350W        W83444  29.581   0.961   1.469 -0.1021  0.0418  0.0764
40351W        W83445  29.525   1.470  30.391 -0.1858 -0.0952  0.4067
40352W        W83446  29.965   3.220   2.273 -0.0766 -0.0873 -0.2731
40353W        W83447  30.476  34.199   3.745 -0.1181  0.0708 -0.2228
40354W        W83448  28.501   3.489   1.496  0.1142  0.1569  0.2130
40355W        W83449  32.315   0.442   4.187 -0.0110  0.1784 -0.2584
40356W        W83450  30.537   3.382  31.828  0.0500 -0.3379  0.0244
40357W        W83451  32.733   2.182   1.070 -0.3371 -0.0016 -0.1696
40358W        W83452  29.636   2.176   0.425 -0.2685  0.0675  0.1926
40359W        W83453  32.094   1.115   0.225  0.1235  0.0818 -0.0149
40360W        W83454  31.273  33.510   1.754 -0.1299 -0.1105  0.0223
40361W        W83455  29.422   2.827   1.287 -0.0266  0.0762 -0.4161
40362W        W83456  30.439   0.743   1.580  0.0834  0.1462  0.0499
40363W        W83457  31.476   2.639   1.938  0.1537  0.1114 -0.0421
40364W        W83458  30.026  34.491   2.321  0.2516 -0.0944 -0.5481
40365W        W83459  31.364   1.386   1.261  0.1407  0.0869 -0.0824
40366W        W83460  29.413   2.086   2.343  0.1119 -0.1997  0.1635
40367W        W83461  29.473   1.804   0.753 -0.1154  0.2543 -0.1687
40368W        W83462  30.970   2.126   0.846  0.1759 -0.1917  0.2735
40369W        W83463  31.819   3.216   1.167  0.0279 -0.3404 -0.2656
40370W        W83464  30.958   2.575   1.069  0.2685  0.0341  0.1472
40371W        W83465  29.130   1.997   1.114  0.0326  0.0525 -0.2569
40372W        W83466  28.586   1.609   4.021 -0.0845  0.0925 -0.0336
40373W        W83467  29.601   2.063   3.413  0.3117  0.2817 -0.0044
40374W        W83468  29.824   0.433   0.743 -0.3623 -0.1135 -0.2648
40375W        W83469  31.595   4.221   3.069  0.3197  0.2023 -0.2199
40376W        W83470  29.148   2.601   3.082  0.1216 -0.2678  0.0998
40377W        W83471  32.219   2.084   1.448 -0.0015  0.0300 -0.2063
40378W        W83472  30.085   2.725   1.491  0.1597  0.0774  0.0178
40379W        W83473  32.110   3.006   1.942 -0.2748 -0.0896  0.3731
40380W        W83474  31.162   1.719   0.227 -0.3595  0.0804 -0.4159
40381W        W83475  31.434   0.917  31.888 -0.0951  0.1777  0.0059
40382W        W83476  31.232  34.195   1.670  0.0983  0.2160  0.2264
40383W        W83477  30.044   2.250   1.064  0.3119 -0.0707  0.1023
40384W        W83478  30.450   1.766   1.085 -0.3082 -0.1244  0.0112
40385W        W83479  32.183   3.546   2.397  0.2312 -0.1174 -0.0306
40386W        W83480  32.872   0.995   1.218 -0.0146  0.1219 -0.4832
40387W        W83481  28.388   3.506   0.986  0.1550 -0.0511 -0.4590
40388W        W83482  29.101   1.202   3.218  0.0052  0.0602  0.1377
40389W        W83483  31.285   2.820   3.829 -0.0806  0.2935 -0.1186
40390W        W83484  31.469   3.707   0.015 -0.0123  0.1497 -0.0904
40391W        W83485  27.307   2.649   1.271 -0.1320  0.2091 -0.0270
40392W        W83486  29.909   2.527   0.171  0.0337  0.0637 -0.0999
40393W        W83487  30.171   0.987   2.533 -0.0687  0.2721 -0.1932
40394W        W83488  28.775   2.204   2.294  0.0870 -0.1955 -0.2858
40395W        W83489  31.821   0.167  31.328 -0.0289 -0.0057  0.0901
40396W        W83490  31.354  34.306   2.584  0.2794  0.1943 -0.0255
40397W        W83491  31.881  34.390   3.315  0.1672  0.0582  0.0121
40398W        W83492  30.178   3.662  31.498 -0.1261 -0.1999 -0.0488
40399W        W83493  32.253   3.297   1.553  0.1008 -0.1369 -0.0621
40400W        W83494  32.947   1.421   0.518  0.0029 -0.2057  0.2231
40401W        W83495  31.802   2.828   0.359  0.1157 -0.0922 -0.0343
40402W        W83496  27.969   0.813   3.348 -0.2530  0.1662  0.1609
40403W        W83497  28.463   0.608   3.056  0.1353  0.0578  0.0902
40404W        W83498  29.717   0.014   3.542 -0.0826 -0.1406  0.0189
40405W        W83499  28.941   0.626   1.942 -0.1267  0.2187 -0.1975
40406W        W83500  31.204   1.959   2.997  0.1129 -0.1246  0.1304
40407W        W83501  30.004  33.413   0.783  0.1222 -0.1343  0.0174
40408W        W83502  31.639   1.241   0.858  0.0671 -0.1075 -0.3093
40409W        W83503  30.771   1.725   0.689  0.0064  0.0275  0.2095
40410W        W83504  28.719   2.413  31.501 -0.0597  0.0620  0.2519
40411W        W83505  31.032   0.342   3.665 -0.2549  0.1133  0.1285
40412W        W83506  31.444   3.262   2.686 -0.0318 -0.2235 -0.0406
40413W        W83507  32.419   4.063   2.142 -0.2413 -0.3396  0.1267
40414W        W83508  31.452   3.530   1.274 -0.0399 -0.1921  0.1086
40415W        W83509  29.499   0.149   1.701  0.2346 -0.1173  0.0876
40416W        W83510  29.065   0.571   0.625 -0.2276 -0.0938 -0.4865
40417W        W83511  29.337   3.334   1.140 -0.2200  0.0053 -0.0873
40418W        W83512  29.315   3.144   1.727  0.2052 -0.0162 -0.1408
40419W        W83513  29.992   1.864   0.769 -0.2347 -0.1170  0.3722
40420W        W83514  30.747   3.186   2.131  0.1103 -0.1859 -0.2159
40421W        W83515  30.652   1.833   1.686  0.0980 -0.0740 -0.1159
40422W        W83516  28.687   2.744   1.413  0.0734  0.0031  0.1955
40423W        W83517  31.351   0.010   3.487  0.0507 -0.0873 -0.2280
40424W        W83518  30.857   0.835   3.359  0.0358  0.0520 -0.1203
40425W        W83519  30.455   1.406   1.509 -0.0937 -0.0279  0.0084
40426W        W83520  30.159  33.835   0.972 -0.0941 -0.0054 -0.2431
40427W        W83521  29.519   2.908   2.130  0.0784 -0.1444  0.1301
40428W        W83522  30.413   4.071   0.375  0.2882 -0.0766 -0.0903
40429W        W83523  29.647   1.835   1.239  0.1384  0.2092 -0.0304
40430W        W83524  32.623   3.196   0.608 -0.1493  0.0685 -0.2284
40431W        W83525  30.611   1.132   1.912  0.1118  0.0544 -0.0092
40432W        W83526  28.642   2.097   2.734 -0.1053 -0.0165 -0.0903
40433W        W83527  30.572   0.054   2.866 -0.0419 -0.0366 -0.1899
40434W        W83528  29.357   1.391  31.356  0.3424  0.2367  0.1481
40435W        W83529  30.557   3.788   2.179  0.3002 -0.1737  0.3366
40436W        W83530  31.687  34.598   1.020  0.5066 -0.0605 -0.1412
40437W        W83531  31.920   0.594  31.614 -0.2938  0.1219  0.4238
40438W        W83532  30.728  34.619   3.587 -0.0418  0.1205 -0.1096
40439W        W83533  31.518   2.011   2.671  0.1245  0.0469 -0.0544
40440W        W83534  31.057   2.474  31.504  0.1407 -0.1501  0.1374
40441W        W83535  31.551   0.305  31.760 -0.0117 -0.0356 -0.0652
40442W        W83536  28.748   0.324   4.369  0.2346  0.0198  0.1019
40443W        W83537  30.344   2.336   1.646 -0.4215 -0.1224  0.1123
40444W        W83538  30.678   1.039   2.900  0.1846  0.0651 -0.1499
40445W        W83539  31.233   1.046  30.720 -0.1340 -0.0089 -0.0669
40446W        W83540  32.415   3.878   1.472 -0.1712  0.1213 -0.2819
40447W        W83541  29.226   0.832   2.392 -0.1433 -0.0571  0.3480
40448W        W83542  31.176   0.794   2.365 -0.1111 -0.1590 -0.2534
40449W        W83543  31.317   2.196   1.184  0.2840  0.0840 -0.0056
40450W        W83544  30.858   0.527   2.621  0.4191  0.1922 -0.0925
40451W        W83545  29.595   2.250  31.899 -0.1621 -0.0426  0.1137
40452W        W83546  30.253   0.156   0.871 -0.2650 -0.0502 -0.0029
40453W        W83547  27.204   3.662  31.560 -0.0382  0.1728 -0.1753
40454W        W83548  30.175   1.850   2.893  0.1230  0.3285 -0.1150
40455W        W83549  30.896   0.696   1.915 -0.1596  0.0847 -0.3183
40456W        W83550  30.752  33.695   2.518  0.0186 -0.4024 -0.2760
40457W        W83551  30.632   1.637   2.762 -0.0128  0.0497 -0.0370
40458W        W83552  31.191   1.355   0.514  0.0029 -0.0649 -0.0568
40459W        W83553  31.049   1.366   3.071 -0.1541  0.0304  0.0168
40460W        W83554  29.622   2.854  31.369  0.0040 -0.0243 -0.0995
40461W        W83555  31.642  33.280   2.563 -0.0831  0.0231  0.0226
40462W        W83556  30.013   1.318   3.549  0.1898  0.0044  0.1128
40463W        W83557  28.214   3.832   1.795  0.0986  0.2247 -0.0796
40464W        W83558  30.219   0.877   3.276 -0.0730 -0.0520 -0.1658
40465W        W83559  30.174   1.489   1.895  0.0504 -0.4433 -0.0987
40466W        W83560  32.168   0.583   3.133  0.0156  0.0707  0.1391
40467W        W83561  31.170   0.612  31.599 -0.0435 -0.2878 -0.0049
40468W        W83562  28.912   3.451   0.850  0.1591  0.2657  0.0605
40469W        W83563  30.877   2.116   0.339  0.1820 -0.1121  0.0491
40470W        W83564  29.510  34.488   2.197 -0.1295 -0.2978 -0.1854
40471W        W83565  30.418   3.089   2.531  0.0687  0.0632 -0.3830
40472W        W83566  29.855   2.992  30.931 -0.1980 -0.2911 -0.1327
40473W        W83567  31.431   2.416   2.948 -0.3379 -0.0116  0.1693
40474W        W83568  30.310   2.871   0.002 -0.1817  0.3281  0.0861
40475W        W83569  31.564   0.045   2.468  0.0137 -0.0374 -0.1129
40476W        W83570  29.619   3.136   2.690  0.4116 -0.0205 -0.1040
40477W        W83571  30.222   1.216  31.131 -0.1556 -0.0240  0.0818
40478W        W83572  28.554   1.811   1.043  0.1529 -0.0559  0.1245
40479W        W83573  31.824   0.684   0.721 -0.2374  0.3235  0.0435
40480W        W83574  30.390   3.505   1.175 -0.3150 -0.2964 -0.0834
40481W        W83575  29.417   0.740   3.852  0.1714 -0.0514  0.0847
40482W        W83576  29.830   0.315   2.065 -0.1777  0.1868 -0.0991
40483W        W83577  27.621   4.086   2.406 -0.2739 -0.1482  0.0678
40484W        W83578  31.063   2.463   1.630 -0.2195 -0.0486 -0.0908
40485W        W83579  30.227   1.692  31.600  0.4489 -0.0293 -0.0294
40486W        W83580  31.862   2.687   4.454  0.2285 -0.1201 -0.1994
40487W        W83581  29.419   1.634   2.982 -0.4377  0.0338 -0.0190
40488W        W83582  28.345   0.230  31.939  0.0012  0.1060 -0.0403
40489W        W83583  31.519   1.118   2.305 -0.0002 -0.1714  0.2250
40490W        W83584  30.748   0.250   1.400  0.0845 -0.0843  0.0388
40491W        W83585  28.581   3.949  30.823 -0.1083 -0.0486 -0.1285
40492W        W83586  31.751   2.786   2.777  0.0007 -0.0497 -0.0230
40493W        W83587  29.222   1.612   1.895  0.2467  0.0214  0.2452
40494W        W83588  28.472   3.265   0.559  0.0948  0.0215  0.3805
40495W        W83589  29.596   0.078   4.633 -0.1996  0.4186  0.2146
40496W        W83590  32.598   2.322   2.748  0.2056 -0.0402 -0.0132
40497W        W83591  30.263   0.683   2.052  0.1114 -0.1477 -0.1406
40498W        W83592  29.578   1.214   0.907 -0.0336  0.0541 -0.0100
40499W        W83593  29.931   1.063   1.995 -0.2478  0.0192 -0.1234
40500W        W83594  31.753   3.137   2.305  0.1005  0.1713  0.4416
40501W        W83595  29.462   0.671   1.874  0.1125  0.0512 -0.1045
40502W        W83596  29.379   4.312   2.397  0.0603  0.2896 -0.1322
40503W        W83597  30.582  34.293   2.814  0.1945  0.2677 -0.2220
40504W        W83598  32.998   4.575   1.210  0.0065  0.0594 -0.5476
40505W        W83599  30.792   2.733   3.485  0.2457  0.0955  0.1479
40506W        W83600  30.086   2.479   0.617  0.0268 -0.1283  0.0855
40507W        W83601  30.198   2.421   2.723 -0.0733  0.2062  0.1747
40508W        W83602  30.576   2.709   1.370 -0.1045 -0.1983  0.1423
40509W        W83603  31.139   0.296   2.272  0.0817 -0.1187 -0.1562
40510W        W83604  28.451   2.523   2.639 -0.2389  0.0880  0.0616
40511W        W83605  29.756   2.524  30.928  0.1145 -0.3887  0.0798
40512W        W83606  27.651   2.918   1.568  0.0734  0.0442 -0.1093
40513W        W83607  31.761   2.042   0.901 -0.1497  0.3220 -0.2599
40514W        W83608  30.982   1.971  30.866  0.2350 -0.0349  0.2748
40515W        W83609  30.692  33.979   1.656  0.2112  0.0448 -0.2330
40516W        W83610  31.829   0.449   4.064 -0.2369  0.0893  0.1872
40517W        W83611  31.149   1.692  31.698 -0.4229  0.2636 -0.2164
40518W        W83612  31.465  34.274   3.729  0.1109 -0.0555 -0.0580
40519W        W83613  30.294  33.736   1.964  0.4017  0.2503  0.1156
40520W        W83614  31.612   3.105   1.685 -0.0805 -0.0431 -0.2757
40521W        W83615  28.586   1.068   3.232  0.0796  0.0104  0.2739
40522W        W83616  31.050   3.561   3.934 -0.0775 -0.0670 -0.0596
40523W        W83617  29.212   2.008   4.565 -0.1347 -0.1855  0.2454
40524W        W83618  31.457   0.460   1.092  0.2219 -0.5905 -0.1141
40525W        W83619  30.692   0.404   0.532  0.0889 -0.2529 -0.1513
40526W        W83620  30.360   2.029   2.410  0.0960 -0.2506  0.0284
40527W        W83621  31.200   2.197   2.158  0.0449 -0.0236  0.1558
40528W        W83622  30.881   3.778   0.596 -0.0224 -0.0220  0.1725
40529W        W83623  31.030   0.914   1.307  0.1718  0.0419  0.2654
40530W        W83624  29.696   1.267   2.494  0.1906 -0.2664 -0.1391
40531W        W83625  31.293   0.845   0.832 -0.6074 -0.1257  0.2610
40532W        W83626  30.365   1.295   0.768  0.2236 -0.1967  0.2775
40533W        W83627  29.144   1.345   0.599  0.2031  0.3849 -0.0910
40534W        W83628  30.168  33.913   4.791  0.0603 -0.2063  0.0272
40535W        W83629  31.901   2.670   2.334  0.2311  0.3672  0.0549
40536W        W83630  30.960   0.506   1.043 -0.0665 -0.2087 -0.0323
40537W        W83631  31.553   1.044   2.768  0.2378  0.1693 -0.1707
40538W        W83632  30.088   1.340   2.895 -0.1473  0.0841 -0.0314
40539W        W83633  30.265   2.471   2.172 -0.0728 -0.0497  0.0493
40540W        W83634  30.152   0.209   3.227  0.2014  0.1172  0.1994
40541W        W83635  29.879   4.439   1.432  0.2274 -0.0398 -0.1962
40542W        W83636  32.445   1.491   0.531 -0.1645  0.1882 -0.0141
40543W        W83637  31.720   0.863   1.949  0.1122  0.4523  0.0698
40544W        W83638  32.191   1.136   1.786  0.1206  0.1446  0.2461
40545W        W83639  30.418   1.230  31.858  0.2284 -0.3331 -0.1488
40546W        W83640  27.896   0.057   2.635 -0.1138 -0.0501  0.1019
40547W        W83641  31.436   1.220   4.594  0.2003  0.4521 -0.1805
40548W        W83642  30.094   3.107  31.505  0.0693  0.1902  0.0230
40549W        W83643  29.882   0.567   2.894  0.0065  0.2008  0.1046
40550W        W83644  32.553   3.975   0.472  0.0368  0.1574  0.2836
40551W        W83645  31.085   2.920   1.605  0.0654  0.0925  0.2291
40552W        W83646  31.978   1.371   2.244 -0.4323 -0.3124  0.0662
40553W        W83647  28.507   1.656   2.440  0.1569  0.0836 -0.1749
40554W        W83648  29.703   4.022   1.655  0.2150  0.6066 -0.0158
40555W        W83649  29.962   1.049   0.173  0.0538  0.0598  0.3488
40556W        W83650  30.720   1.635  31.933  0.2405  0.1914 -0.4100
40557W        W83651  29.907   2.733   2.419 -0.0066  0.1562 -0.0751
40558W        W83652  32.672   0.765   4.098 -0.0582  0.0272  0.2476
40559W        W83653  30.433   0.439   0.067 -0.2949 -0.0546 -0.0962
40560W        W83654  31.951   0.034   2.867 -0.0005 -0.1125 -0.1353
40561W        W83655  28.576   3.934  31.373 -0.1995 -0.1572  0.0399
40562W        W83656  31.627  34.178   1.289 -0.0091  0.0161  0.2175
40563W        W83657  29.433   3.632   1.532  0.2061  0.0123 -0.1171
40564W        W83658  28.791   3.316   2.693  0.1515  0.0978  0.1169
40565W        W83659  30.656   3.318   0.684 -0.0967  0.2515 -0.1631
40566W        W83660  30.829  34.202   2.417  0.1812  0.1521 -0.0021
40567W        W83661  31.058   1.761   1.943 -0.0496  0.0649  0.2876
40568W        W83662  31.063   1.758   2.451 -0.0293  0.2980 -0.2765
40569W        W83663  32.140   1.113   2.999  0.2849 -0.0262 -0.0490
40570W        W83664  31.291   2.916   3.021  0.0045  0.0398 -0.1891
40571W        W83665  29.729   1.558   1.683 -0.0970 -0.1316  0.2774
40572W        W83666  30.385   3.220   3.403 -0.2353  0.2231  0.0300
40573W        W83667  31.672   1.870   1.345 -0.1034 -0.1228 -0.1308
40574W        W83668  29.433   3.009   3.163  0.0580 -0.3172 -0.0585
40575W        W83669  28.892   1.602   2.964  0.2875  0.0431 -0.2972
40576W        W83670  29.691   1.693   2.127 -0.2418  0.1138 -0.1500
40577W        W83671  31.136   0.863   2.975 -0.0102  0.2209 -0.0803
40578W        W83672  29.952   0.753   1.115  0.1000 -0.3076 -0.1090
40579W        W83673  30.513   2.280   0.793 -0.1057 -0.1335  0.0586
40580W        W83674  30.043   3.558   3.322  0.0174  0.2459  0.1064
40581W        W83675  28.369   1.468   2.938 -0.2171 -0.1479  0.2891
40582W        W83676  30.727   4.926  31.496  0.1742 -0.0366  0.3105
40583W        W83677  30.802   1.918  31.366  0.0989  0.0304 -0.1368
40584W        W83678  31.295   3.067   1.164  0.0547 -0.4274 -0.0335
40585W        W83679  30.061   3.172   2.860  0.0534 -0.0201  0.0949
40586W        W83680  30.458  34.565   0.399  0.1449 -0.2830 -0.5716
40587W        W83681  30.078   1.991   1.893 -0.1890  0.1095  0.1540
40588W        W83682  29.091   4.625  30.747  0.1570  0.1077  0.0613
40589W        W83683  32.037   3.235   0.717  0.1253  0.1701 -0.1243
40590W        W83684  29.795   2.956  31.949 -0.2763 -0.1941  0.0031
40591W        W83685  31.940   2.302   2.714 -0.1865 -0.2246  0.1199
40592W        W83686  31.124   1.500  31.245 -0.0553 -0.0798 -0.0449
40593W        W83687  31.881   1.906   1.874  0.0998 -0.1966  0.3504
40594W        W83688  33.100   0.951   0.217  0.1417  0.0900 -0.1470
40595W        W83689  30.811   1.769   3.196 -0.1114  0.0309  0.3122
40596W        W83690  31.077   1.273   2.574 -0.3698  0.0952  0.1563
40597W        W83691  29.976   0.978   0.661  0.0733 -0.0865 -0.1099
40598W        W83692  29.648  33.916   3.527 -0.4507 -0.4972 -0.3245
40599W        W83693  32.970   0.041   2.822 -0.0554 -0.0254 -0.3737
40600W        W83694  28.721   2.917   2.343 -0.1890  0.3121 -0.1070
40601W        W83695  33.295   3.515   0.658  0.1298 -0.0543  0.0398
40602W        W83696  29.222   1.651  31.757 -0.1632  0.3820  0.2202
40603W        W83697  29.073   1.029   1.029 -0.0669  0.1002  0.1462
40604W        W83698  31.307  33.764   1.290 -0.0528  0.2824  0.1424
40605W        W83699  31.045   1.779   1.305 -0.0386 -0.2713  0.1871
40606W        W83700  30.093   1.102   1.470 -0.3493  0.0090  0.2656
40607W        W83701  31.146   3.422   1.618 -0.0655  0.2134 -0.2773
40608W        W83702  29.169   3.262   2.277  0.0348 -0.0632 -0.1605
40609W        W83703  29.806   3.104   1.663  0.0371 -0.3513 -0.2420
40610W        W83704  29.136   0.944  31.186 -0.0765 -0.0938  0.0144
40611W        W83705  30.579  34.540   2.030 -0.0409 -0.2676 -0.1054
40612W        W83706  30.157   0.410   2.504  0.2397 -0.0050  0.2101
40613W        W83707  32.903   0.983   2.905 -0.1115  0.0615  0.1941
40614W        W83708  30.984   0.756   0.331  0.0931  0.2911 -0.0824
40615W        W83709  30.676   2.627   2.497 -0.0889  0.2117  0.1157
40616W        W83710  30.920   2.550   3.011  0.2691  0.3124  0.2132
40617W        W83711  29.548   1.277   3.689 -0.0770  0.0734 -0.0995
40618W        W83712  31.154   0.523   1.518  0.1915  0.0503 -0.0916
40619W        W83713  32.650   2.671   3.772 -0.0920 -0.3577 -0.0134
40620W        W83714  31.643   1.357  30.527 -0.1046 -0.2488  0.0589
40621W        W83715  30.702   2.152   2.066 -0.1094 -0.1694 -0.0665
40622W        W83716  29.274   0.748   3.313  0.1338 -0.0505 -0.2165
40623W        W83717  31.579   1.425   0.132  0.3078  0.1541  0.2086
40624W        W83718  28.253   3.058   1.442 -0.1103  0.1364 -0.2827
40625W        W83719  29.452   2.034   1.725 -0.1509  0.0979  0.0021
40626W        W83720  30.984   2.620   2.144 -0.0515 -0.0148  0.4113
40627W        W83721  30.352  34.559   1.393 -0.0261 -0.0134  0.0689
40628W        W83722  32.281   1.920  31.678  0.1182  0.0080 -0.2869
40629W        W83723  30.551   1.033   1.185 -0.1133 -0.1699 -0.1858
40630W        W83724  30.225   3.056   0.492  0.2558  0.0575  0.0179
40631W        W83725  31.678   3.096  31.900  0.1372  0.0334 -0.0370
40632W        W83726  31.102   3.181   3.536  0.2827 -0.0614  0.1179
40633W        W83727  27.913   0.514   2.895 -0.0304 -0.0877  0.1099
40634W        W83728  31.234   3.479   0.810 -0.0773 -0.2966  0.0801
40635W        W83729  33.016   2.399   2.982  0.1299 -0.1714 -0.1099
40636W        W83730  31.583   0.070   0.426 -0.0342  0.0174  0.2111
40637W        W83731  30.627   2.739   1.852  0.0590  0.1380  0.0191
40638W        W83732  30.305   3.838  31.927  0.1333 -0.0029  0.0099
40639W        W83733  31.488   1.633   1.699  0.1106  0.1016  0.1261
40640W        W83734  30.136   1.625   2.377  0.0338 -0.1605  0.3599
40641W        W83735  31.090   3.799  31.205  0.0800  0.2131 -0.1161
40642W        W83736  31.365   0.024   3.969 -0.0018 -0.0427  0.0527
40643W        W83737  29.439   3.430   3.567  0.3689 -0.0615  0.1222
40644W        W83738  29.982   3.462   4.261 -0.2752  0.0131 -0.1333
40645W        W83739  29.140   3.302  31.085  0.0051 -0.3646  0.2988
40646W        W83740  29.685   0.145   3.052 -0.0375 -0.1755 -0.0499
40647W        W83741  30.698   2.222   1.298 -0.2153  0.0160  0.1487
40648W        W83742  31.249   2.924   0.256  0.2408 -0.3214  0.1071
40649W        W83743  34.052   2.883   1.015 -0.0646 -0.0317  0.3151
40650W        W83744  30.651   0.434  31.580 -0.1653 -0.1254 -0.1615
40651W        W83745  31.431   2.138   1.701  0.0839 -0.4610 -0.1801
40652W        W83746  30.646   0.301   2.210  0.2580  0.0638  0.2064
40653W        W83747  32.460   1.218  31.897 -0.3526 -0.0331 -0.0038
40654W        W83748  31.000   1.058  31.453  0.0778 -0.1354 -0.2899
40655W        W83749  29.074   2.487   1.231 -0.2742  0.1683  0.0639
40656W        W83750  28.096   0.560  30.803 -0.0952  0.1824  0.2553
40657W        W83751  30.265   2.438  29.541 -0.0201  0.0535  0.1716
40658W        W83752  27.838   2.306   1.563  0.2461 -0.5229 -0.1615
40659W        W83753  31.251  32.781   3.515 -0.1021 -0.2230  0.0112
40660W        W83754  28.648   1.458   3.528  0.1152  0.2389 -0.0676
40661W        W83755  28.804   2.418   0.685  0.2052 -0.2004  0.0379
40662W        W83756  29.303   1.436   1.278  0.3645 -0.0797  0.1562
40663W        W83757  30.642   2.143  31.824 -0.3936 -0.0955  0.2402
40664W        W83758  28.583   0.547   1.563 -0.0864  0.2348 -0.1124
40665W        W83759  28.987  34.093   0.912 -0.0626  0.2893 -0.2244
40666W        W83760  31.325   2.161  31.765 -0.1049 -0.3789 -0.3444
40667W        W83761  29.936   3.449   0.694 -0.4677 -0.0319  0.0861
40668W        W83762  30.857  33.689   0.411  0.0416  0.1173  0.3725
40669W        W83763  31.358   2.740   2.477  0.2455 -0.0618 -0.0494
40670W        W83764  28.854   2.137  31.056 -0.0193  0.1663 -0.3951
40671W        W83765  30.005  34.332   4.171 -0.0920  0.1302 -0.2745
40672W        W83766  30.583  34.056   4.189 -0.1451 -0.2103  0.1504
40673W        W83767  29.471   0.267   0.416  0.3694  0.1813  0.1443
40674W        W83768  29.799   0.751   2.347 -0.0294  0.0359 -0.2112
40675W        W83769  30.889   1.380   1.064  0.3244 -0.0324  0.3135
40676W        W83770  32.292   2.729  31.974 -0.1351  0.2938 -0.2809
40677W        W83771  29.768   2.475   1.948 -0.3046  0.1570 -0.3211
40678W        W83772  29.858   2.747   2.936 -0.1171 -0.0774 -0.2877
40679W        W83773  28.426   0.736   0.926 -0.1170 -0.0131 -0.2267
40680W        W83774  30.960   1.398   1.596 -0.0509  0.1382 -0.0001
40681W        W83775  30.870   3.595   1.214 -0.0635 -0.0447 -0.4028
40682W        W83776  31.565   3.057   0.776  0.2718 -0.0263 -0.2804
40683W        W83777  32.606   0.324   3.133 -0.0606  0.3062  0.2258
40684W        W83778  31.431   1.275  31.583 -0.0483 -0.2528 -0.0006
40685W        W83779  30.716   0.682   4.009  0.4372 -0.3017  0.2850
40686W        W83780  29.391   1.108   2.833 -0.1306 -0.0537  0.0806
40687W        W83781  31.684   2.240   2.261  0.0365 -0.0240 -0.1637
40688W        W83782  29.409   0.178   0.877  0.4315  0.0889  0.2283
40689W        W83783  31.390   1.690   0.823 -0.1481  0.0243 -0.1450
40690W        W83784  30.610   2.781   0.788  0.0053 -0.0917  0.4119
40691W        W83785  28.622   2.349   1.146 -0.2859 -0.0065 -0.2311
40692W        W83786  31.003   0.157   1.801 -0.3385  0.1191  0.3541
40693W        W83787  30.623   2.152   2.912 -0.0798 -0.2449 -0.0222
40694W        W83788  30.797   3.087   2.943  0.0767  0.1941  0.2252
40695W        W83789  32.012   2.385   3.221  0.0094 -0.2198  0.1263
40696W        W83790  29.388   1.777   0.247  0.0885 -0.1916 -0.2193
40697W        W83791  31.351   2.113   0.539  0.0958 -0.1084  0.2503
40698W        W83792  30.990   3.022   2.515  0.2886 -0.2882 -0.2552
40699W        W83793  32.170   3.999   3.191  0.0263 -0.3522  0.2722
40700W        W83794  31.046   2.980   0.716  0.1322 -0.1723  0.1855
40701W        W83795  31.522   1.558   2.856 -0.3035 -0.1605  0.2054
40702W        W83796  29.730   0.278   1.234  0.0672  0.1753  0.0345
40703W        W83797  30.242   3.042   1.022  0.0043  0.0981 -0.1754
40704W        W83798  28.759   2.841   0.438 -0.3687  0.2603 -0.1226
40705W        W83799  31.081   1.216   2.115 -0.0905  0.3606  0.5452
40706W        W83800  30.620   1.534   2.161  0.2075  0.1297 -0.1563
40707W        W83801  32.081   0.197   0.550 -0.1241 -0.1030  0.1457
40708W        W83802  29.552   3.804   4.301 -0.3057 -0.0189  0.1094
40709W        W83803  32.222   2.281   2.253 -0.0420 -0.0484 -0.2679
40710W        W83804  31.821   2.836   7.746 -0.2411  0.0552  0.1506
40711W        W83805  30.881   1.913   3.704  0.2150 -0.0392  0.1088
40712W        W83806  30.812   0.626   4.508 -0.3301  0.0003  0.1046
40713W        W83807  32.281   2.678   4.668  0.0859  0.1523 -0.4776
40714W        W83808  28.629   0.814   4.218  0.1695 -0.2455 -0.1063
40715W        W83809  31.503   3.964   4.521  0.0510  0.2613  0.0645
40716W        W83810  28.802  34.413   6.332  0.3917 -0.0264 -0.0433
40717W        W83811  31.635   3.153   4.838 -0.1902 -0.0819  0.0079
40718W        W83812  33.167   2.137   6.001  0.4028  0.0660  0.4217
40719W        W83813  29.900   1.670   3.235 -0.0163 -0.0580  0.0730
40720W        W83814  30.532   1.459   4.846  0.1510  0.2460 -0.1408
40721W        W83815  31.169   2.679   5.457  0.3724 -0.1379 -0.1095
40722W        W83816  30.563   1.102   4.346  0.0580  0.2056 -0.0231
40723W        W83817  29.074  34.216   5.758  0.1315  0.0301 -0.0278
40724W        W83818  32.684   1.633   4.501 -0.1166  0.0403 -0.2867
40725W        W83819  30.071   1.603   4.391  0.1423  0.2854  0.1809
40726W        W83820  30.565   1.056   6.194 -0.1996  0.1333 -0.0494
40727W        W83821  30.840   0.463   4.993 -0.1106 -0.0829  0.1368
40728W        W83822  29.803   3.230   5.098  0.4459 -0.0548  0.0821
40729W        W83823  30.016  34.003   7.624  0.0012 -0.0002 -0.0121
40730W        W83824  31.362  34.039   6.616 -0.0264  0.0371  0.0913
40731W        W83825  30.626   3.130   4.958  0.0964 -0.0892  0.1291
40732W        W83826  28.540   1.184   4.497  0.0029 -0.0599 -0.1093
40733W        W83827  28.730   0.778   4.714 -0.0216  0.0317 -0.1096
40734W        W83828  30.642   0.991   5.697  0.1331 -0.2689 -0.1287
40735W        W83829  31.221  34.455   5.254  0.1300  0.3488 -0.1038
40736W        W83830  32.196   1.455   4.642  0.1460 -0.0797 -0.3554
40737W        W83831  30.441   1.974   5.866 -0.0088 -0.0581  0.0688
40738W        W83832  30.794   4.022   5.858  0.3257  0.0261 -0.0236
40739W        W83833  32.146   2.101   7.592 -0.1599  0.3251  0.0600
40740W        W83834  29.329   3.154   5.160 -0.1423 -0.2442  0.0549
40741W        W83835  28.694   3.762   5.582 -0.1177 -0.1919  0.1054
40742W        W83836  31.428   2.099   4.939 -0.1099  0.1868  0.1037
40743W        W83837  32.280   2.168   4.434  0.2815 -0.3847 -0.2257
40744W        W83838  32.275   3.336   5.973  0.1456  0.1980 -0.0718
40745W        W83839  31.456   1.989   7.614 -0.4870 -0.1237 -0.0253
40746W        W83840  29.803   3.754   3.898  0.1490 -0.0428  0.2077
40747W        W83841  31.329   4.145   4.978  0.0932  0.0943  0.1116
40748W        W83842  30.163   3.165   6.265  0.1566 -0.1649 -0.1697
40749W        W83843  31.394   0.725   6.094 -0.0657  0.0173 -0.3371
40750W        W83844  30.012   1.939   5.607  0.0285  0.5117  0.0028
40751W        W83845  29.901   3.663   4.728 -0.0070 -0.1010 -0.0282
40752W        W83846  30.877   1.892   5.634 -0.1783  0.1457  0.0513
40753W        W83847  30.163   1.605   7.234  0.1279  0.1703 -0.2162
40754W        W83848  29.876   2.647   5.575 -0.0835  0.1227  0.1527
40755W        W83849  31.977   0.449   7.035  0.1509  0.0958 -0.0541
40756W        W83850  28.121   4.436   3.080 -0.1825 -0.3618  0.1183
40757W        W83851  31.313   1.687   3.356 -0.0166  0.0240  0.2007
40758W        W83852  30.069   0.133   4.342  0.1028  0.0360  0.0966
40759W        W83853  30.820   1.535   4.433  0.1257  0.1188  0.2756
40760W        W83854  30.270  34.583   7.666 -0.2982 -0.0921  0.1867
40761W        W83855  29.595   3.703   5.148 -0.0424 -0.1814  0.0066
40762W        W83856  29.895   0.534   5.894 -0.0620  0.0256  0.2753
40763W        W83857  32.299   2.760   6.846  0.1743  0.1930 -0.1765
40764W        W83858  29.811   0.499   4.809  0.2502  0.1080  0.2614
40765W        W83859  32.994   1.920   5.544  0.1423 -0.0209  0.2829
40766W        W83860  31.111   2.847   4.989  0.0299 -0.1401 -0.0198
40767W        W83861  29.774  34.406   4.895 -0.0832 -0.3416 -0.4393
40768W        W83862  32.021   2.928   3.215 -0.1578 -0.0245 -0.0578
40769W        W83863  34.107   2.975   5.124 -0.1164 -0.0804  0.1608
40770W        W83864  31.593   2.990   5.276  0.0931  0.0817 -0.0412
40771W        W83865  28.797   1.799   5.644  0.3877 -0.1898  0.0237
40772W        W83866  28.697   2.059   8.556  0.0317  0.0034  0.2225
40773W        W83867  29.356   2.139   6.712 -0.1548  0.0632  0.1840
40774W        W83868  28.727  33.742   5.050 -0.1834 -0.0276 -0.1788
40775W        W83869  32.518   2.157   6.601 -0.1598  0.2246  0.0385
40776W        W83870  30.192   2.686   6.362  0.4003 -0.0355 -0.0371
40777W        W83871  32.975  33.903   5.394  0.0412  0.0155 -0.0956
40778W        W83872  30.790   2.144   6.231  0.0331 -0.1554  0.0770
40779W        W83873  31.964   3.218   5.567 -0.0081  0.1022  0.0879
40780W        W83874  32.173   2.703   3.594 -0.3045  0.2796 -0.2455
40781W        W83875  30.671   0.523   5.468  0.2360 -0.0123 -0.3098
40782W        W83876  31.589  34.244   7.071 -0.1194  0.0411  0.0881
40783W        W83877  30.351   1.864   3.389  0.0767  0.7611  0.1276
40784W        W83878  30.522   1.513   3.968 -0.2450  0.0908 -0.1543
40785W        W83879  32.586   2.129   5.454 -0.1188 -0.0831  0.0197
40786W        W83880  32.073   0.894   4.007 -0.0774  0.2299  0.3674
40787W        W83881  29.140   3.133   6.799 -0.2035 -0.1512  0.0948
40788W        W83882  30.636   0.611   6.439 -0.2869  0.0919 -0.1018
40789W        W83883  31.333   3.481   6.817 -0.1684 -0.0592  0.0988
40790W        W83884  29.366   3.933   2.842 -0.0397 -0.1719 -0.0639
40791W        W83885  29.177   2.599   5.413 -0.0239 -0.0747 -0.1679
40792W        W83886  30.252   2.979   4.184 -0.0643 -0.3367 -0.1724
40793W        W83887  28.771   1.014   6.445  0.1566  0.5396  0.2776
40794W        W83888  31.176   2.491   6.530 -0.4137  0.0562 -0.0804
40795W        W83889  32.846   0.094   5.343 -0.0020 -0.1133 -0.3354
40796W        W83890  29.693   0.977   5.763 -0.0853 -0.1217 -0.2171
40797W        W83891  31.848  34.648   7.025  0.2024  0.1957  0.0985
40798W        W83892  29.264   1.549   4.331  0.0576 -0.0906  0.0486
40799W        W83893  32.422   3.529   4.344  0.1650  0.0425 -0.2335
40800W        W83894  31.516   1.042   5.258  0.1237 -0.0796  0.0532
40801W        W83895  30.632   3.112   3.863  0.3005  0.1663 -0.0166
40802W        W83896  29.429   1.699   5.633  0.0614  0.1430  0.0552
40803W        W83897  29.537   1.125   4.158  0.1729 -0.3086  0.0658
40804W        W83898  29.297   1.734   6.999  0.1229 -0.0390 -0.0158
40805W        W83899  29.448   0.350   5.104  0.3199  0.1859 -0.0434
40806W        W83900  32.608   1.918   7.029  0.2616 -0.1472 -0.2595
40807W        W83901  28.860   0.355   2.969 -0.1794  0.5989 -0.0141
40808W        W83902  32.220   0.933   5.009 -0.1360  0.1051 -0.2474
40809W        W83903  28.980   2.241   4.955  0.1319  0.1474 -0.2846
40810W        W83904  30.040   2.522   4.244 -0.1251 -0.2838  0.3667
40811W        W83905  32.049   1.008   6.745  0.1077 -0.0628 -0.0679
40812W        W83906  30.652   2.922   4.503 -0.1834  0.1233  0.4313
40813W        W83907  31.873   2.786   6.535  0.0329 -0.0052 -0.2080
40814W        W83908  32.161   2.809   5.333  0.0356 -0.2597  0.2563
40815W        W83909  29.820   1.450   6.886  0.0406 -0.0296  0.0468
40816W        W83910  29.133   0.672   4.304  0.1173 -0.2280 -0.0324
40817W        W83911  28.948   4.430   4.353 -0.0733  0.1837 -0.1660
40818W        W83912  29.281   1.930   3.965  0.0248 -0.0169  0.0448
40819W        W83913  30.448  34.419   5.727 -0.0476  0.0202  0.2047
40820W        W83914  31.849   3.613   4.645  0.0010  0.3057 -0.2614
40821W        W83915  30.860   2.197   5.204 -0.1140 -0.0940  0.1271
40822W        W83916  29.608   1.764   6.594 -0.1230  0.1094 -0.2234
40823W        W83917  32.430   0.504   6.764 -0.1380 -0.2572 -0.0125
40824W        W83918  33.373   1.444   7.409 -0.1596 -0.4440 -0.0874
40825W        W83919  32.713   2.110   4.703 -0.0637 -0.0103  0.2082
40826W        W83920  29.806  34.344   3.178  0.1523  0.2389 -0.0789
40827W        W83921  31.491   3.952   5.701  0.0328  0.1558  0.0142
40828W        W83922  29.737   3.586   2.590 -0.2740  0.1750  0.0599
40829W        W83923  28.979   3.167   3.850 -0.0031  0.4244  0.1133
40830W        W83924  30.976   3.265   4.646  0.1350  0.0110 -0.0479
40831W        W83925  32.435   0.252   5.573 -0.0027  0.0644 -0.2367
40832W        W83926  29.224   2.277   7.167  0.2056 -0.0361 -0.0152
40833W        W83927  31.302   1.268   7.138  0.1168  0.0464 -0.0803
40834W        W83928  29.193   2.340   3.525  0.1053 -0.0350 -0.1553
40835W        W83929  31.056   2.537   7.298 -0.0186 -0.0563  0.1839
40836W        W83930  31.558  34.554   5.692 -0.0868  0.0781  0.1408
40837W        W83931  31.700   1.988   3.100  0.0371  0.0685 -0.1186
40838W        W83932  31.083   1.582   7.506  0.0482  0.1673  0.2043
40839W        W83933  31.603   2.399   4.002  0.0087 -0.0354 -0.2279
40840W        W83934  31.664   0.748   3.736 -0.0587  0.1007 -0.3063
40841W        W83935  30.922   0.215   4.240  0.0544  0.2029  0.2244
40842W        W83936  30.617   2.788   7.489 -0.0212 -0.2287 -0.1407
40843W        W83937  31.460   3.411   4.384 -0.1979  0.2439  0.3545
40844W        W83938  31.394   1.566   6.399 -0.1572  0.1417  0.0192
40845W        W83939  31.339   0.596   4.251  0.0766  0.3588 -0.0057
40846W        W83940  31.971   5.077   4.081 -0.1202  0.2438  0.0023
40847W        W83941  30.517   1.422   6.696  0.0717  0.0688 -0.1702
40848W        W83942  32.243   2.128   8.083 -0.0631 -0.0061 -0.0113
40849W        W83943  31.499   2.165   6.758 -0.2094  0.3234 -0.0621
40850W        W83944  30.949   0.158   8.047 -0.0521 -0.0278  0.3571
40851W        W83945  30.102  34.593   2.803 -0.2234 -0.1941 -0.1112
40852W        W83946  31.090  33.664   5.824 -0.2677 -0.1702  0.2543
40853W        W83947  28.783   4.236   3.807 -0.0663 -0.2559 -0.1229
40854W        W83948  32.750   1.700   6.582 -0.0056 -0.0066  0.2743
40855W        W83949  31.879   1.403   6.489  0.3202  0.0919 -0.0105
40856W        W83950  32.010   0.210   6.564 -0.0798 -0.0458 -0.0083
40857W        W83951  32.628   2.933   8.484  0.5477 -0.1241  0.2327
40858W        W83952  31.500   1.565   4.217  0.0470  0.1364  0.3080
40859W        W83953  31.760   1.911   6.426  0.1251  0.2556 -0.1506
40860W        W83954  28.697   2.244   5.366 -0.2905  0.0766  0.0101
40861W        W83955  31.218  34.592   6.950  0.4472 -0.0072  0.1488
40862W        W83956  31.580   1.709   6.882 -0.2527 -0.1388  0.1237
40863W        W83957  31.193   1.958   7.104 -0.1959 -0.2243 -0.2115
40864W        W83958  31.004   1.840   7.943 -0.1856  0.1720  0.0994
40865W        W83959  31.575   2.435   5.276 -0.3058 -0.2518  0.0327
40866W        W83960  31.535   0.288   6.750 -0.5404 -0.3014  0.2035
40867W        W83961  30.771  34.158   5.412  0.0046 -0.0883 -0.0940
40868W        W83962  31.062   4.007   3.162 -0.0272 -0.1405  0.2314
40869W        W83963  30.320   2.735   3.752  0.0033  0.1011  0.0091
40870W        W83964  29.849  34.475   7.337 -0.1011 -0.0323 -0.1814
40871W        W83965  31.378   2.199   6.197  0.0333  0.0338 -0.0986
40872W        W83966  30.421   1.965   4.274 -0.1085 -0.4741  0.1199
40873W        W83967  32.345   2.325   7.112 -0.0350  0.1702 -0.1659
40874W        W83968  30.044   4.068   3.590 -0.0881 -0.0557  0.0267
40875W        W83969  30.750   0.221   6.024  0.0348 -0.2882 -0.0041
40876W        W83970  28.944   3.184   4.861 -0.0022  0.1598 -0.0273
40877W        W83971  30.103   1.097   4.655 -0.0561  0.0416  0.0040
40878W        W83972  28.818   1.655   4.568 -0.4252 -0.2175 -0.0374
40879W        W83973  32.639  34.540   5.795  0.2595  0.0251  0.0375
40880W        W83974  31.815   2.191   5.664  0.0033 -0.0357 -0.0737
40881W        W83975  28.969   0.683   6.134  0.2641 -0.1316 -0.2210
40882W        W83976  30.275   0.552   5.049  0.1165 -0.0556  0.0575
40883W        W83977  29.857   3.473   6.765  0.0261  0.2933  0.1673
40884W        W83978  31.061   2.616   5.955 -0.0243  0.1331  0.2103
40885W        W83979  31.062   1.482   4.002 -0.1025  0.3590  0.4100
40886W        W83980  31.701   2.712   5.695  0.1670 -0.0373  0.3270
40887W        W83981  32.225   1.668   7.218 -0.0694  0.0786 -0.1565
40888W        W83982  28.991   1.126   4.393  0.0512 -0.0083  0.0914
40889W        W83983  31.806   0.695   6.400 -0.0560 -0.6442 -0.1695
40890W        W83984  29.962   0.928   5.109  0.0635 -0.2902  0.0614
40891W        W83985  28.137   3.750   4.201  0.0179 -0.0911 -0.0958
40892W        W83986  30.500   2.913   5.979 -0.1595 -0.1157 -0.2193
40893W        W83987  30.461   0.995   3.695 -0.0044 -0.0499  0.2650
40894W        W83988  29.599   2.452   4.435 -0.2119 -0.0560 -0.1246
40895W        W83989  30.781   0.607   7.392 -0.1037 -0.3209  0.2196
40896W        W83990  31.241   1.070   5.742 -0.0931 -0.1036 -0.0197
40897W        W83991  30.895   0.923   5.281 -0.4022 -0.0777 -0.1426
40898W        W83992  28.250   0.105   4.375 -0.0965 -0.1019  0.1819
40899W        W83993  29.871   1.454   5.694  0.1890  0.1319 -0.3344
40900W        W83994  30.743   2.334   5.744 -0.1025 -0.0398 -0.4553
40901W        W83995  29.355   0.549   5.819 -0.1382  0.2599  0.0246
40902W        W83996  30.260   3.089   7.620  0.1296 -0.0833 -0.1080
40903W        W83997  30.956   0.077   5.558 -0.1214 -0.1329 -0.0894
40904W        W83998  31.892   3.936   3.641 -0.4045 -0.0889 -0.1036
40905W        W83999  31.879   2.137   7.153  0.3004  0.0732 -0.0493
40906W        W84000  29.879   0.848   3.752  0.1217  0.1807  0.0463
40907W        W84001  28.701   1.413   5.947  0.0718  0.1479 -0.1923
40908W        W84002  30.780   4.147   4.925  0.2423  0.1017  0.0047
40909W        W84003  31.259   0.221   5.912  0.1024 -0.2667 -0.0542
40910W        W84004  29.780   2.858   6.080 -0.2389 -0.0919  0.1100
40911W        W84005  29.172   3.449   4.196  0.0573 -0.2690 -0.2275
40912W        W84006  29.011   2.713   7.171  0.2581 -0.1528 -0.1228
40913W        W84007  31.860  34.620   4.797 -0.1896  0.3157 -0.1865
40914W        W84008  31.999   1.771   4.293 -0.1861 -0.0261  0.3558
40915W        W84009  30.387   1.189   5.266 -0.3845  0.3246  0.0222
40916W        W84010  32.531   1.269   6.807 -0.2469  0.3466  0.2327
40917W        W84011  30.127   1.800   3.944 -0.3245 -0.2505 -0.0289
40918W        W84012  32.150   1.094   7.631 -0.0261  0.2099  0.0169
40919W        W84013  30.758   1.151   7.178 -0.4213  0.0203  0.0403
40920W        W84014  31.788   1.361   5.491 -0.2617 -0.1551 -0.1390
40921W        W84015  28.318   0.217   7.915  0.1985  0.0310 -0.1240
40922W        W84016  30.662   3.998   8.777 -0.3577  0.1404 -0.2451
40923W        W84017  29.802   2.315   5.930 -0.1200  0.0224 -0.2829
40924W        W84018  31.215   1.778   4.579  0.2460 -0.0481  0.0319
40925W        W84019  29.343  33.677   4.258  0.0699 -0.2533 -0.0138
40926W        W84020  29.902   2.201   6.703  0.0704  0.1022  0.0122
40927W        W84021  32.500   2.821   5.959  0.0592  0.2165 -0.0315
40928W        W84022  30.908   1.999   4.186 -0.1651 -0.0140  0.2510
40929W        W84023  32.191   1.458   5.200 -0.3492 -0.0628 -0.4495
40930W        W84024  30.383   2.329   5.401 -0.1347  0.1091  0.2045
40931W        W84025  32.202   1.904   4.893 -0.1171  0.0960 -0.0886
40932W        W84026  30.095   1.073   4.175 -0.1332  0.5351  0.3164
40933W        W84027  29.933   2.383   5.176  0.0439 -0.1848 -0.1038
40934W        W84028  30.397  34.643   6.576 -0.0609  0.1809 -0.1616
40935W        W84029  31.295   2.209   5.619  0.1143  0.1570 -0.2102
40936W        W84030  32.132  34.522   5.657  0.0509  0.5414 -0.1001
40937W        W84031  30.325   0.620   6.065 -0.0461  0.1552 -0.0211
40938W        W84032  31.818   1.594   5.997 -0.0905  0.2935 -0.1517
40939W        W84033  29.699   1.001   6.740 -0.3641  0.0498 -0.0093
40940W        W84034  29.451   0.703   7.212  0.1665  0.4865 -0.1019
40941W        W84035  31.893   3.086   6.127  0.0634 -0.0571  0.1468
40942W        W84036  31.955   0.804   4.552 -0.1911 -0.2724  0.2074
40943W        W84037  32.593   0.887   5.879 -0.1304 -0.2208 -0.1413
40944W        W84038  31.725   1.697   4.785  0.2055 -0.5230  0.2219
40945W        W84039  30.584   0.432   3.493  0.2893  0.1152  0.1584
40946W        W84040  29.375   0.796   5.352  0.0805  0.0079  0.0481
40947W        W84041  32.063   1.633   7.722 -0.3012  0.2867  0.1803
40948W        W84042  30.980   0.011   2.664 -0.1174  0.1692  0.1115
40949W        W84043  30.915   0.308   6.877  0.3232 -0.1010  0.0311
40950W        W84044  31.115   2.362   3.731 -0.0197  0.0225 -0.1956
40951W        W84045  30.693   3.730   5.330 -0.0229  0.0746  0.4042
40952W        W84046  32.188   0.821   5.573  0.1010 -0.2488 -0.1057
40953W        W84047  28.424   0.524   6.163  0.0090 -0.2236 -0.1988
40954W        W84048  30.008   3.767   6.376 -0.0230 -0.1873  0.1097
40955W        W84049  30.212   0.548   4.056  0.0505  0.0258  0.2430
40956W        W84050  30.872   1.332   3.591 -0.0714  0.0468  0.0783
40957W        W84051  30.897   3.017   6.219  0.0094 -0.0731  0.0214
40958W        W84052  33.051   2.059   6.757 -0.0228 -0.0824  0.2312
40959W        W84053  31.054  34.043   4.972 -0.0318 -0.3636  0.1308
40960W        W84054  31.609   0.878   7.061  0.0023 -0.2047 -0.2492
40961W        W84055  30.067   3.330   3.784 -0.1612  0.0382  0.0818
40962W        W84056  30.584  34.249   6.300 -0.1502  0.1629 -0.3753
40963W        W84057  30.779   2.663   3.977 -0.1226 -0.3261 -0.0207
40964W        W84058  29.748   2.410   7.150 -0.2370  0.0048 -0.3288
40965W        W84059  30.607   2.577   5.004 -0.0413  0.0964 -0.0976
40966W        W84060  31.227   0.542   5.467  0.1804  0.2196 -0.0774
40967W        W84061  31.854   0.614   5.130 -0.2070  0.0658 -0.3677
40968W        W84062  32.293   1.349   5.756 -0.0181  0.4685  0.2231
40969W        W84063  33.037   2.457   5.634  0.0537  0.0423 -0.1906
40970W        W84064  31.793   3.258   6.711 -0.1945 -0.0477  0.0566
40971W        W84065  30.874   1.421   5.812  0.3423  0.0933 -0.1025
40972W        W84066  31.160   4.560   7.263 -0.0957 -0.1965 -0.0420
40973W        W84067  32.627   1.127   5.284 -0.2979 -0.0788  0.0914
40974W        W84068  29.492   2.259   4.891 -0.2745  0.0565  0.1803
40975W        W84069  28.099  34.679   7.438  0.0930 -0.3282  0.1946
40976W        W84070  31.094   1.975   6.603  0.2438  0.0208 -0.0201
40977W        W84071  31.795   1.216   4.906  0.0601  0.1216 -0.1694
40978W        W84072  30.599   0.051   5.191 -0.2831  0.1242  0.2393
40979W        W84073  30.630   2.292   3.401  0.1177 -0.0537  0.2768
40980W        W84074  30.531   3.010   6.564  0.0652 -0.1968  0.0235
40981W        W84075  30.378   2.581   6.789  0.0501  0.0923 -0.0905
40982W        W84076  31.028   3.704   6.226 -0.2147 -0.2557  0.1869
40983W        W84077  31.022   2.366   4.759 -0.2350  0.2576 -0.2411
40984W        W84078  30.505   2.418   4.419 -0.2101 -0.0567  0.0022
40985W        W84079  30.565   3.408   6.163 -0.1561 -0.2187  0.0032
40986W        W84080  30.330   0.567   4.490  0.2965 -0.0578  0.0749
40987W        W84081  30.310   3.803   4.460 -0.1922  0.2788 -0.2090
40988W        W84082  28.847   2.795   3.422 -0.2902 -0.3011 -0.1040
40989W        W84083  31.171   2.523   4.238  0.2828  0.1506 -0.3866
40990W        W84084  30.007   3.132   5.718  0.0190  0.0235  0.1456
40991W        W84085  32.360   3.199   7.924 -0.0925  0.2177 -0.1797
40992W        W84086  31.379   1.185   3.404 -0.2309  0.1631 -0.1123
40993W        W84087  32.446   3.025   4.944  0.3023 -0.0416 -0.0594
40994W        W84088  32.903   0.262   5.863  0.1756  0.0145  0.1768
40995W        W84089  32.616   2.734   7.263 -0.0737 -0.3079  0.1867
40996W        W84090  30.665   2.576   6.380  0.2069  0.2891  0.5130
40997W        W84091  31.468  34.278   4.810  0.0209 -0.1912 -0.0298
40998W        W84092  30.092   1.053   6.030 -0.0634 -0.1686  0.0647
40999W        W84093  32.288   0.860   7.226  0.0557 -0.1061  0.2367
41000W        W84094  29.651   3.870   8.187 -0.1575  0.0512  0.1099
41001W        W84095  32.047   3.243   5.069  0.0558 -0.2274  0.0606
41002W        W84096  29.197   0.104   2.703 -0.2351 -0.0011  0.0491
41003W        W84097  29.794   2.035   4.239 -0.1136  0.1957 -0.0894
41004W        W84098  32.777  34.048   6.003 -0.0335 -0.0065 -0.0699
41005W        W84099  31.010   3.105   4.172  0.0214  0.0608 -0.1897
41006W        W84100  30.845   2.744   6.826  0.3729 -0.1662 -0.3165
41007W        W84101  30.081   3.953   3.014 -0.3021 -0.4249 -0.0792
41008W        W84102  29.659   3.026   7.147  0.2430 -0.0478 -0.0078
41009W        W84103  30.845   3.551   7.191  0.0990  0.0153  0.0643
41010W        W84104  28.639  34.027   4.149 -0.2266 -0.1841  0.3421
41011W        W84105  33.438  34.673   4.280  0.0413 -0.2517 -0.2505
41012W        W84106  31.084   1.119   6.218  0.2304 -0.1790 -0.2096
41013W        W84107  31.868  33.783   7.462 -0.1218 -0.3434 -0.0354
41014W        W84108  29.777   1.873   5.159  0.1812 -0.2053  0.3904
41015W        W84109  32.832   1.333   4.867  0.0464 -0.1465 -0.1263
41016W        W84110  32.161   2.784   8.188  0.0838 -0.1060  0.0975
41017W        W84111  28.887   2.000   7.361 -0.1740  0.0096  0.3312
41018W        W84112  31.027  34.477   3.110  0.0360  0.0853  0.0072
41019W        W84113  31.472   2.742   6.249  0.0929 -0.1141 -0.2647
41020W        W84114  30.422   0.559   2.904 -0.1938 -0.3119 -0.1267
41021W        W84115  31.807   4.346   7.507 -0.0651  0.1290 -0.1695
41022W        W84116  29.306   1.882   5.197 -0.1680 -0.0989  0.1580
41023W        W84117  31.051   1.035   4.311 -0.3621  0.1055  0.1058
41024W        W84118  29.558   2.258   5.493  0.0017  0.1066 -0.0468
41025W        W84119  30.408   1.528   5.661  0.0498 -0.4374 -0.1781
41026W        W84120  31.340   3.438   7.662 -0.0516  0.0210  0.1464
41027W        W84121  29.596  34.589   4.031  0.0080 -0.0570  0.2919
41028W        W84122  31.541   2.293   3.489 -0.0178 -0.1637 -0.0248
41029W        W84123  32.819   0.668   5.451  0.0066 -0.2337  0.2645
41030W        W84124  31.476   3.269   3.882 -0.1535 -0.2754  0.0290
41031W        W84125  32.067   3.141   4.512  0.0783 -0.0350  0.1682
41032W        W84126  31.405   3.247   5.650  0.2014  0.0976 -0.1906
41033W        W84127  29.093   1.765   6.492  0.1893 -0.2509  0.1254
41034W        W84128  30.735   4.658   4.391 -0.1748  0.4079  0.1216
41035W        W84129  33.347   3.108   4.905 -0.1513  0.2127  0.2684
41036W        W84130  30.551   0.917   4.816 -0.3435 -0.3160  0.2461
41037W        W84131  29.996   1.303   6.454  0.1234 -0.1922  0.0438
41038W        W84132  30.159   4.096   4.130  0.2618  0.1718  0.0914
41039W        W84133  33.174   0.388   6.362 -0.2292 -0.3166 -0.2241
41040W        W84134  31.718   1.604   7.368  0.4506 -0.1276 -0.4375
41041W        W84135  30.445   2.281   3.880  0.2766 -0.0009  0.0602
41042W        W84136  32.078  34.005   7.046  0.1589  0.0556 -0.2210
41043W        W84137  32.268   3.138   6.512  0.0807 -0.2022 -0.3148
41044W        W84138  30.021   3.090   9.353 -0.1641  0.0161 -0.3102
41045W        W84139  29.570   2.749   5.188 -0.1866  0.2320 -0.0223
41046W        W84140  31.718   3.848   6.728 -0.0621 -0.2558  0.0694
41047W        W84141  30.693   1.960   4.778  0.2711 -0.0088  0.1809
41048W        W84142  29.802   2.849   3.852  0.1228 -0.0010 -0.1474
41049W        W84143  31.916   2.240   4.753  0.0255  0.1913 -0.1674
41050W        W84144  31.612   1.152   6.177  0.3856  0.0426  0.1026
41051W        W84145  31.472   2.925   4.327  0.0059  0.2816 -0.0663
41052W        W84146  30.162   0.367   6.593 -0.0168  0.2281 -0.0319
41053W        W84147  33.687  34.229   4.419 -0.2434  0.1839  0.0799
41054W        W84148  31.559  33.816   6.145 -0.0005 -0.0085 -0.0109
41055W        W84149  29.461   2.005   6.159 -0.0751 -0.0423 -0.3352
41056W        W84150  29.206   0.102   4.247  0.2744 -0.3528  0.1895
41057W        W84151  29.799   2.205   2.926 -0.0803  0.0610  0.3022
41058W        W84152  30.600   2.737   5.521 -0.0354  0.0735 -0.3226
41059W        W84153  31.667   0.598   8.166  0.2074 -0.0667 -0.0883
41060W        W84154  29.942   1.798   6.073  0.0536  0.0380 -0.1491
41061W        W84155  30.233   2.882   5.240  0.0826 -0.0299 -0.2471
41062W        W84156  30.300  34.381   4.569  0.2181  0.2704 -0.0782
41063W        W84157  31.069   3.566   5.754 -0.2290 -0.2633  0.0455
41064W        W84158  30.601  32.976   6.926 -0.1464  0.1495  0.0231
41065W        W84159  27.309   0.342   4.328 -0.0631  0.2452 -0.2608
41066W        W84160  31.804   1.232   3.682 -0.0848 -0.0376 -0.3186
41067W        W84161  31.502   3.792   4.044 -0.3005 -0.1234  0.0349
41068W        W84162  30.241   0.039   6.136 -0.1148 -0.1718 -0.1714
41069W        W84163  32.628   2.811   7.968 -0.1011 -0.0167 -0.0530
41070W        W84164  29.636   2.599   3.365 -0.2431  0.1763 -0.0741
41071W        W84165  31.802   1.274   8.058 -0.2535 -0.2251  0.0869
41072W        W84166  29.710   1.503   7.433  0.1395 -0.1773  0.2017
41073W        W84167  29.384   0.382   2.257 -0.1125 -0.2307  0.0190
41074W        W84168  31.727   1.802   5.319  0.0110  0.0185 -0.0362
41075W        W84169  32.160   2.080   3.925 -0.1999  0.2345 -0.1196
41076W        W84170  31.983   3.285   2.817 -0.0055  0.3374  0.1453
41077W        W84171  31.269   2.369   7.931  0.1970  0.1281 -0.0241
41078W        W84172  30.310   3.297   8.590  0.1618  0.1745 -0.2962
41079W        W84173  29.814   0.508   5.409  0.1112 -0.0960  0.0251
41080W        W84174  31.374   1.873   3.853 -0.1354 -0.0163  0.0704
41081W        W84175  30.132   1.743   6.602 -0.0012  0.0150  0.2435
41082W        W84176  32.257   2.655   4.170  0.2312  0.0929  0.0559
41083W        W84177  32.404  34.625   6.319  0.0383 -0.0176 -0.0157
41084W        W84178  31.535   2.074   4.428 -0.1836 -0.0100  0.1765
41085W        W84179  29.440  34.511   6.599 -0.4427  0.4508  0.0806
41086W        W84180  29.769   2.731   7.869  0.2256 -0.5417  0.1289
41087W        W84181  31.880   2.697   4.956  0.1447 -0.0506  0.0540
41088W        W84182  30.036   1.504   4.964 -0.2241  0.2445 -0.1900
41089W        W84183  31.421  34.119   4.232  0.0169  0.0256 -0.1099
41090W        W84184  31.488   2.585   4.723 -0.4360  0.0586 -0.0115
41091W        W84185  28.979   1.065   4.979 -0.1647  0.0527 -0.3793
41092W        W84186  30.561   0.084   4.684  0.1043  0.0111 -0.1156
41093W        W84187  31.007   1.526   6.818  0.0655 -0.0861  0.2330
41094W        W84188  30.636   2.020   6.697 -0.3640 -0.0954 -0.4669
41095W        W84189  31.468   2.621   6.924 -0.2874  0.0973 -0.1725
41096W        W84190  30.421   1.822   5.211  0.1835 -0.0248 -0.4837
41097W        W84191  32.567   0.967   4.595  0.0015 -0.0828  0.0890
41098W        W84192  31.511   5.291   5.451 -0.3406 -0.1199  0.3468
41099W        W84193  32.343   3.267   7.027  0.1517 -0.2035 -0.0386
41100W        W84194  30.852   3.378   6.709  0.0192 -0.5376  0.0943
41101W        W84195  32.207   3.669   6.723  0.1216 -0.1888  0.1227
41102W        W84196  28.603  34.042   6.026  0.3619  0.2640 -0.0336
41103W        W84197  29.169   1.514   4.924 -0.1233  0.1744  0.1869
41104W        W84198  30.036   2.036   4.695 -0.1754  0.0798  0.0036
41105W        W84199  31.295   1.460   5.341  0.0705 -0.2405 -0.0184
41106W        W84200  30.221   0.288   5.589  0.0997 -0.0455 -0.0707
41107W        W84201  30.692  34.355   4.896  0.2229  0.2072 -0.0080
41108W        W84202  29.667   3.439   6.221  0.1422 -0.1891 -0.0904
41109W        W84203  31.340   1.640   5.814 -0.0741  0.3991 -0.2054
41110W        W84204  29.812   4.012   9.267  0.2363 -0.1798 -0.0699
41111W        W84205  30.709   0.765   8.828 -0.2106 -0.0141 -0.0540
41112W        W84206  32.630  34.563   7.332 -0.0521  0.0044  0.1510
41113W        W84207  32.329   2.583   6.393 -0.1993  0.0432  0.0366
41114W        W84208  29.634   0.193   9.211  0.1302  0.0574 -0.1448
41115W        W84209  32.580   3.187   8.947 -0.2405  0.2992 -0.0467
41116W        W84210  30.501   1.337  10.011 -0.2604  0.2649 -0.1027
41117W        W84211  32.375   2.258  10.264 -0.3172  0.3344  0.1375
41118W        W84212  32.790   2.273   7.411 -0.0159  0.2184 -0.4243
41119W        W84213  30.110   1.783   9.967 -0.1485 -0.0432 -0.1415
41120W        W84214  30.926   1.638   8.972 -0.1493  0.2051 -0.3878
41121W        W84215  29.100   0.566   7.582 -0.0148  0.0196  0.3072
41122W        W84216  31.603   0.843   9.053  0.0112 -0.1229  0.1486
41123W        W84217  29.402   1.212   7.081 -0.2271  0.1584  0.2571
41124W        W84218  29.515   1.586   9.265 -0.1646  0.0214  0.0168
41125W        W84219  30.004   1.738   9.389  0.0079  0.2646 -0.0829
41126W        W84220  31.434   4.102   9.040  0.3587  0.0706 -0.0538
41127W        W84221  32.364  33.563   9.837  0.0746  0.0894 -0.0567
41128W        W84222  31.431   2.513   9.009 -0.0735  0.1217  0.0874
41129W        W84223  30.869   1.652   6.322  0.2155  0.3016  0.1690
41130W        W84224  28.258   1.415   9.166 -0.1445 -0.0208  0.1831
41131W        W84225  31.357   3.829   9.961 -0.2258  0.2010  0.0661
41132W        W84226  31.320  33.788   9.486 -0.1383 -0.2726 -0.0100
41133W        W84227  31.938   1.714   8.994  0.1106  0.2313  0.1207
41134W        W84228  31.381   3.074   9.225 -0.1128 -0.1972  0.0161
41135W        W84229  31.884   3.843   8.950  0.0945  0.0263  0.3291
41136W        W84230  28.920   2.811   8.984 -0.3164 -0.1279  0.4166
41137W        W84231  29.337   3.702   7.703 -0.0367  0.1170  0.0762
41138W        W84232  29.277   4.455   9.380 -0.1499 -0.2334 -0.1900
41139W        W84233  32.393   1.589   8.743  0.0552 -0.0223 -0.0696
41140W        W84234  30.000   2.878   8.255 -0.0958 -0.0057 -0.1218
41141W        W84235  29.768   4.399  10.536  0.3938 -0.4000  0.0314
41142W        W84236  31.793   2.307   7.840 -0.0415  0.2886  0.0134
41143W        W84237  30.780   2.755   9.546 -0.4332  0.0001 -0.2730
41144W        W84238  30.930   2.255   9.675 -0.0749  0.2777  0.0596
41145W        W84239  28.307   3.277   9.876  0.1750  0.0532 -0.3079
41146W        W84240  30.998   4.212   6.963  0.2362 -0.3463  0.0811
41147W        W84241  30.933   2.104   7.500  0.1272  0.0613  0.0653
41148W        W84242  29.036   1.781   7.851 -0.0205 -0.0783 -0.1950
41149W        W84243  32.710   0.196   7.704 -0.2547  0.4624 -0.1775
41150W        W84244  31.885  33.124   9.811 -0.0235  0.0387 -0.1818
41151W        W84245  29.409   2.990  10.222  0.2243 -0.0449  0.1164
41152W        W84246  29.168   2.065   9.315  0.2097  0.0160 -0.0692
41153W        W84247  30.162   1.862   8.556  0.3017  0.1130  0.2145
41154W        W84248  31.459   0.652  10.182 -0.4188  0.2222  0.0151
41155W        W84249  30.527   5.915  10.493  0.1521 -0.0700 -0.2222
41156W        W84250  28.656   2.387   9.848 -0.0685  0.0020  0.2538
41157W        W84251  31.983   2.639   7.196 -0.0200 -0.4596 -0.3762
41158W        W84252  30.973   3.423   8.749 -0.0380  0.2228 -0.0037
41159W        W84253  30.930   4.065   7.462 -0.2255  0.0884 -0.1234
41160W        W84254  29.614   1.518   8.388 -0.1263 -0.1013 -0.0438
41161W        W84255  31.031   0.656   8.248 -0.2273 -0.1055  0.0605
41162W        W84256  32.738   0.863   7.984 -0.0113 -0.0010  0.1008
41163W        W84257  29.569   1.772   9.772 -0.3297 -0.1071  0.0380
41164W        W84258  33.615   4.736  10.168  0.0934  0.1080  0.1236
41165W        W84259  31.015   3.023   7.180 -0.0142  0.1917 -0.0048
41166W        W84260  32.144  34.392   9.930 -0.1565 -0.0014  0.1687
41167W        W84261  31.361   1.396   8.783  0.0308  0.1999 -0.1674
41168W        W84262  29.379   2.732   7.457  0.1585 -0.1866 -0.2523
41169W        W84263  30.050   2.390   8.568 -0.3195 -0.1979 -0.0956
41170W        W84264  32.744   0.158   9.395  0.0287 -0.1910 -0.4362
41171W        W84265  33.219   2.408   7.099  0.2814 -0.1451 -0.1281
41172W        W84266  30.231   2.482   9.391  0.2353 -0.0239 -0.0650
41173W        W84267  30.165   3.832   7.006 -0.0160  0.2084 -0.1518
41174W        W84268  28.869   2.317   8.973  0.1167  0.0525 -0.1311
41175W        W84269  29.525   1.304   8.839  0.0220  0.1537 -0.1538
41176W        W84270  32.530   3.316   9.418  0.2207  0.0067 -0.0570
41177W        W84271  30.558   0.842  10.118 -0.0940 -0.3702 -0.0562
41178W        W84272  32.367   0.651   7.703  0.2557 -0.0294 -0.0661
41179W        W84273  32.146  34.420   8.447  0.0637  0.0152 -0.1361
41180W        W84274  29.448   3.082   9.531  0.1843 -0.1295  0.2886
41181W        W84275  31.863   2.363   8.289 -0.5199 -0.1377 -0.2507
41182W        W84276  33.216   1.108   7.089 -0.1695  0.1099  0.1469
41183W        W84277  31.503   3.143   8.025  0.0711  0.0816 -0.1795
41184W        W84278  27.536   1.341   9.834  0.0456 -0.2728  0.0174
41185W        W84279  28.816   1.844   8.992 -0.2664 -0.0517 -0.0977
41186W        W84280  28.216   0.364  10.154  0.2425  0.1279 -0.2512
41187W        W84281  29.690   1.062   7.994  0.0026  0.1893 -0.4427
41188W        W84282  31.319   0.723   9.490  0.2911  0.2386  0.1734
41189W        W84283  31.319   1.998   8.246 -0.0950  0.0931 -0.0681
41190W        W84284  29.991   1.904   7.626  0.1420  0.1686  0.0042
41191W        W84285  32.137   3.140   7.459  0.0356  0.1251  0.1660
41192W        W84286  32.555   0.157  10.326 -0.0359  0.0296 -0.2009
41193W        W84287  33.280   3.967   8.591  0.0730  0.2350  0.5143
41194W        W84288  28.662  34.490  10.034  0.0221  0.2647  0.0609
41195W        W84289  30.238   0.668   7.920  0.0739  0.1391 -0.0698
41196W        W84290  30.174   4.152   8.933 -0.0796 -0.0732 -0.0123
41197W        W84291  29.526   3.560   9.114  0.2120 -0.0370  0.1710
41198W        W84292  30.214   2.173   9.014 -0.0526  0.4780 -0.0285
41199W        W84293  33.556   3.485   9.452  0.0102  0.0535  0.5022
41200W        W84294  31.971   1.893   8.532 -0.1256 -0.3639  0.0130
41201W        W84295  33.224   2.006   9.882 -0.0725  0.0454 -0.1515
41202W        W84296  31.751   0.718   9.813  0.0100  0.4717  0.0631
41203W        W84297  29.970   0.652   7.045  0.0625 -0.0510  0.1706
41204W        W84298  30.891   3.286   9.419  0.1400  0.1293  0.1876
41205W        W84299  30.066   4.129   7.968 -0.4434 -0.1862  0.1869
41206W        W84300  29.493   0.885  10.620 -0.0905  0.1473 -0.2269
41207W        W84301  30.392   3.477   7.929  0.1821 -0.1353  0.0924
41208W        W84302  32.530   0.118   8.603  0.0668  0.1312  0.0720
41209W        W84303  30.286   2.663   7.871  0.0740  0.3279  0.2784
41210W        W84304  31.518   0.926   8.518 -0.5434  0.0811  0.1920
41211W        W84305  32.551   1.783   7.870  0.1485  0.1219 -0.1972
41212W        W84306  32.184   3.049   8.706  0.0183 -0.0527 -0.1608
41213W        W84307  31.423   1.113   6.693  0.0312 -0.1072 -0.0855
41214W        W84308  30.590   1.347   8.626 -0.0239  0.1919  0.0216
41215W        W84309  30.986   3.156   8.049 -0.1738  0.1139  0.0886
41216W        W84310  29.476   2.048  10.239  0.0301 -0.1582  0.0731
41217W        W84311  30.632   1.356   7.660  0.0296 -0.1550  0.0616
41218W        W84312  32.650   3.715   9.075 -0.1029  0.1678 -0.0406
41219W        W84313  29.160   2.225   8.483  0.0511  0.0462 -0.3026
41220W        W84314  31.896   3.454   7.158 -0.0462  0.4297 -0.3800
41221W        W84315  31.697  34.162   9.442  0.0864  0.4172 -0.0366
41222W        W84316  30.857   1.028   6.640 -0.5870  0.4344  0.0448
41223W        W84317  29.868   1.167   9.166 -0.1011 -0.0869 -0.1267
41224W        W84318  28.464   3.913   7.249  0.0642  0.2349 -0.1704
41225W        W84319  32.501   0.673   9.875 -0.3443  0.2391  0.1117
41226W        W84320  31.097   1.104   9.089  0.4353  0.1712 -0.1170
41227W        W84321  31.571   1.542   8.379 -0.0444 -0.0525  0.3349
41228W        W84322  31.074   1.075  10.006 -0.0969 -0.1004 -0.1695
41229W        W84323  29.226   3.250   7.287 -0.3342 -0.2255 -0.3021
41230W        W84324  29.144   1.585  10.060 -0.1000  0.3082 -0.0949
41231W        W84325  30.762   4.328   9.546 -0.1624 -0.1056  0.2261
41232W        W84326  31.068   2.044   8.737 -0.0441 -0.1374 -0.1348
41233W        W84327  30.857   1.298   8.186 -0.1708  0.0234 -0.1007
41234W        W84328  30.482   3.052   8.140 -0.2873  0.0971 -0.1733
41235W        W84329  29.740   1.917   7.115 -0.0440  0.3548 -0.0565
41236W        W84330  32.919   0.272   9.922 -0.0333 -0.1269  0.0351
41237W        W84331  31.091   1.407   9.639 -0.0374 -0.2514 -0.2307
41238W        W84332  31.530   2.451   7.424  0.0754 -0.0277 -0.0149
41239W        W84333  33.060   3.209   9.298  0.1451  0.2195 -0.3889
41240W        W84334  30.158   3.740   8.330 -0.2843  0.0865 -0.0094
41241W        W84335  32.020  34.123   8.990 -0.0369  0.2060 -0.1160
41242W        W84336  29.820   5.897   9.846  0.1975 -0.0990 -0.3209
41243W        W84337  30.382   1.221   8.103  0.1756  0.1345 -0.0939
41244W        W84338  30.073   1.254   7.749 -0.0176  0.1564  0.0022
41245W        W84339  31.958   0.300   8.420  0.2372  0.1520 -0.0478
41246W        W84340  31.300   3.005   6.652  0.0063 -0.1100 -0.0850
41247W        W84341  30.087   0.405   9.452  0.2229 -0.1390 -0.2217
41248W        W84342  30.623   0.332  10.188  0.1334  0.4548 -0.1084
41249W        W84343  27.720   4.165   9.909  0.0244 -0.1038  0.0598
41250W        W84344  31.533  34.138   8.804  0.1341  0.0306 -0.1604
41251W        W84345  29.275   2.638   6.767 -0.2683  0.0948 -0.0488
41252W        W84346  30.930   0.138   9.617  0.0227 -0.1550  0.0271
41253W        W84347  29.527   1.641   7.904 -0.0476  0.2296  0.2003
41254W        W84348  28.331   3.958   8.681 -0.1425  0.0922 -0.1078
41255W        W84349  28.972   3.317  10.024  0.2238 -0.1248  0.1258
41256W        W84350  29.884   2.204   8.071 -0.0502  0.1245  0.3148
41257W        W84351  29.260   3.439   8.141 -0.2706  0.2260 -0.2647
41258W        W84352  32.182   1.076   9.585 -0.0765 -0.0962 -0.3540
41259W        W84353  31.141   0.279  10.259  0.3458 -0.0883 -0.3097
41260W        W84354  29.782   0.656   8.838 -0.0036  0.1416  0.2440
41261W        W84355  29.630   0.558   8.245 -0.0658 -0.2900 -0.0636
41262W        W84356  31.798   2.809   9.002  0.1917 -0.0667  0.3689
41263W        W84357  30.555   0.509   9.709 -0.2165  0.0893 -0.2838
41264W        W84358  31.236   0.235   9.247 -0.1671 -0.2712  0.1291
41265W        W84359  33.097   2.954   8.073  0.0408 -0.3226  0.0443
41266W        W84360  30.805   2.664   7.976 -0.2113 -0.1643 -0.2696
41267W        W84361  29.727   1.551  10.275  0.2994 -0.0135  0.1697
41268W        W84362  30.536   3.529   9.002 -0.3069  0.0542 -0.0068
41269W        W84363  30.133   0.834   9.783  0.0459  0.4870 -0.0201
41270W        W84364  29.192   3.541   9.526 -0.0717 -0.0769  0.2978
41271W        W84365  29.508   3.051   9.010 -0.0689 -0.2254 -0.0595
41272W        W84366  28.636   3.636   9.689 -0.2186  0.2465 -0.0162
41273W        W84367  31.042   1.072   8.543  0.3065 -0.0596 -0.0071
41274W        W84368  30.723   2.401   9.150  0.0353 -0.1044  0.3712
41275W        W84369  29.622   0.525   9.646 -0.1214  0.2994 -0.0413
41276W        W84370  31.002   1.643   8.493 -0.1965  0.0379 -0.2674
41277W        W84371  28.465  33.942  10.234  0.4293  0.2701  0.1353
41278W        W84372  31.407   3.570   9.002 -0.1431 -0.0486  0.0586
41279W        W84373  31.164   0.640   8.906  0.0133  0.1792 -0.0952
41280W        W84374  29.378   1.312   6.581  0.1644 -0.1388 -0.4034
41281W        W84375  29.996   3.277   9.946  0.3557 -0.1421  0.1231
41282W        W84376  31.960   1.637   9.569  0.0885  0.0985  0.0204
41283W        W84377  30.738   3.276   7.601  0.3530  0.2533 -0.2532
41284W        W84378  32.339   2.083   8.836 -0.0100  0.0095 -0.1642
41285W        W84379  28.402   1.852  10.500  0.0858 -0.0124 -0.0791
41286W        W84380  31.588   1.509   9.278  0.3648 -0.0804 -0.0084
41287W        W84381  30.483   3.068   9.198 -0.1406  0.1758 -0.1047
41288W        W84382  29.847   2.761   9.715  0.1564 -0.0629  0.3088
41289W        W84383  31.745   2.913   9.481  0.0258 -0.1970  0.2972
41290W        W84384  31.630  34.395   9.988 -0.1864 -0.1761 -0.1117
41291W        W84385  33.097   3.147   9.790 -0.0464  0.2228 -0.1779
41292W        W84386  33.509   1.279   6.145  0.1130  0.2433  0.0682
41293W        W84387  32.406   1.563   9.249  0.0311  0.0486 -0.2236
41294W        W84388  32.645   1.858   8.398 -0.0109 -0.3030 -0.1824
41295W        W84389  31.802   1.861   8.047  0.1910 -0.2307 -0.1388
41296W        W84390  30.073   1.365   8.498 -0.2081 -0.1763 -0.1380
41297W        W84391  30.496   2.310   7.560  0.2968 -0.0520 -0.1115
41298W        W84392  30.898   3.679   7.740 -0.2514 -0.0128  0.0038
41299W        W84393  31.938   1.983   9.989  0.0250  0.0214 -0.3568
41300W        W84394  32.464   1.050   8.818  0.1973  0.2742 -0.2054
41301W        W84395  28.834   0.010   9.648 -0.0911  0.1263 -0.1205
41302W        W84396  30.165   0.871   6.487 -0.0690 -0.0411  0.0957
41303W        W84397  30.866   2.269   8.283  0.2090 -0.2998  0.1280
41304W        W84398  30.310   2.351   9.892  0.0818 -0.1362 -0.0240
41305W        W84399  29.900  34.319   8.497 -0.0013  0.0694  0.0803
41306W        W84400  29.178   3.767   8.591 -0.1674 -0.1124 -0.0697
41307W        W84401  30.729   1.050   9.629 -0.0689  0.1270 -0.2062
41308W        W84402  30.445   4.893   9.427  0.1194 -0.1041 -0.0206
41309W        W84403  29.855   2.666   9.003 -0.0992  0.0838 -0.2248
41310W        W84404  32.269   0.934   8.124  0.0699  0.1019  0.0977
41311W        W84405  32.105   0.672   9.170 -0.0572 -0.0310 -0.4474
41312W        W84406  31.607   1.173   9.634 -0.0063  0.2807 -0.0463
41313W        W84407  28.954   3.098   9.416 -0.0776  0.1395  0.1237
41314W        W84408  32.153   2.493   9.354 -0.0575  0.3955  0.0283
41315W        W84409  30.619   1.891   9.867 -0.0851 -0.3081  0.2028
41316W        W84410  30.081   1.146  10.197 -0.1070  0.3375 -0.4663
41317W        W84411  28.952  33.946   8.401  0.0752 -0.1293 -0.2175
41318W        W84412  30.226   2.109   7.085 -0.2773 -0.3307 -0.1369
41319W        W84413  31.492   2.172  10.149 -0.2339  0.0508  0.0975
41320W        W84414  30.487   3.786   7.475 -0.3989 -0.3057  0.1750
41321W        W84415  32.435   3.563   7.601 -0.2652  0.0406 -0.0134
41322W        W84416  30.516   1.821   7.683 -0.0056 -0.0670  0.0380
41323W        W84417  30.753   2.986   8.643 -0.1492 -0.2221 -0.1372
41324W        W84418  31.178   0.600   6.529  0.0921 -0.0076 -0.0874
41325W        W84419  28.803   1.927  10.100  0.1771  0.0003  0.2948
41326W        W84420  29.242   2.932   8.449  0.1751  0.2114  0.1381
41327W        W84421  31.355   3.832   7.199  0.2220 -0.0614 -0.0302
41328W        W84422  30.362   2.690   8.857 -0.4902  0.2365  0.0138
41329W        W84423  32.419  34.405   8.853 -0.1268  0.0129  0.0545
41330W        W84424  32.519   1.292   7.330  0.1397  0.0684  0.0391
41331W        W84425  32.768   0.939   7.061  0.3180  0.0166 -0.0877
41332W        W84426  30.944   2.524   8.715  0.0485 -0.2142 -0.0003
41333W        W84427  31.103   1.092   7.615 -0.0837 -0.0123  0.2520
41334W        W84428  32.630   3.664   8.112  0.2625  0.2200 -0.0443
41335W        W84429  31.337   0.632   7.678  0.0655  0.1064 -0.0215
41336W        W84430  30.542   2.195   8.643  0.1865 -0.0712  0.2522
41337W        W84431  30.022  34.371  10.032 -0.0771  0.2592  0.1621
41338W        W84432  30.719   2.308   7.050 -0.0054 -0.3050  0.0518
41339W        W84433  31.385   1.901   9.613  0.0175  0.3355  0.0838
41340W        W84434  30.976   3.804   9.172 -0.0005 -0.0262 -0.0706
41341W        W84435  30.753   5.213   9.056 -0.2779 -0.0031  0.1664
41342W        W84436  31.157   3.263   9.886  0.1086  0.1780  0.0268
41343W        W84437  30.035   0.343   7.480 -0.0232 -0.1987  0.1539
41344W        W84438  33.457   0.845   8.133 -0.2275  0.1589 -0.1624
41345W        W84439  32.420   1.737  10.160 -0.0559  0.2592 -0.0460
41346W        W84440  30.470   2.008   9.388  0.2257 -0.0474  0.1351
41347W        W84441  32.032   0.743   8.587 -0.0980 -0.2533  0.0588
41348W        W84442  32.378   1.146  10.083 -0.0421  0.0300 -0.1594
41349W        W84443  29.082   0.853  10.311 -0.3167  0.0554 -0.0979
41350W        W84444  32.903   1.470   7.038 -0.0486 -0.0284 -0.0752
41351W        W84445  31.947   1.283   7.154 -0.1297 -0.0312  0.0544
41352W        W84446  29.295   0.571   9.228  0.0269 -0.0976 -0.1314
41353W        W84447  31.304   1.112   8.050 -0.2655 -0.1730 -0.0088
41354W        W84448  30.360   1.636   9.002 -0.0257 -0.1534  0.2358
41355W        W84449  30.298   3.890   9.723 -0.0023 -0.2755 -0.0484
41356W        W84450  29.328  34.596   8.706 -0.0609 -0.1749 -0.1608
41357W        W84451  32.618   1.168   6.275 -0.1498 -0.4629 -0.2035
41358W        W84452  34.127   1.581   9.921  0.0887  0.0749 -0.0079
41359W        W84453  29.582   4.113   7.624  0.2678 -0.0577 -0.2264
41360W        W84454  31.558   1.922   8.815  0.1679  0.1683  0.1145
41361W        W84455  32.942   2.378   9.787  0.2593  0.0929 -0.2177
41362W        W84456  29.499   1.041   9.536  0.2354  0.1539 -0.0860
41363W        W84457  29.780   4.673   9.514 -0.1433  0.4161 -0.4352
41364W        W84458  33.929   0.932   9.998  0.2155 -0.0073  0.1570
41365W        W84459  30.703   1.574   9.424  0.4662 -0.2208  0.2038
41366W        W84460  29.142   1.544   9.561  0.1009  0.0936 -0.0795
41367W        W84461  29.319   4.932   8.010 -0.0451  0.0744 -0.1434
41368W        W84462  33.021   1.666   8.646 -0.2121  0.2379 -0.0079
41369W        W84463  31.289   2.927   7.620 -0.0046  0.1054 -0.1413
41370W        W84464  31.362   4.455  10.356  0.1461  0.2582 -0.3586
41371W        W84465  30.126   2.643   7.290 -0.0464 -0.0145  0.0434
41372W        W84466  31.173   3.919   8.671 -0.0148  0.1404 -0.0855
41373W        W84467  30.988   4.302   9.067  0.1873  0.0219 -0.0543
41374W        W84468  30.934   4.785   9.309  0.2054 -0.0411  0.3352
41375W        W84469  32.702   0.801   9.255  0.0195 -0.1236  0.0582
41376W        W84470  32.302   2.605   8.864  0.3734  0.0579 -0.3259
41377W        W84471  30.569   1.735   8.181  0.0290 -0.0986  0.0985
41378W        W84472  33.610   0.996   7.575 -0.0127 -0.2181  0.0690
41379W        W84473  32.491   0.400   8.126  0.1783 -0.0922  0.3861
41380W        W84474  31.877   1.081  10.126 -0.2062  0.2794  0.3137
41381W        W84475  28.846   2.222   8.103  0.1808  0.1489  0.0089
41382W        W84476  29.773   3.204   7.627  0.0813 -0.0778  0.1526
41383W        W84477  29.460   2.551   9.390  0.1229  0.2670  0.1103
41384W        W84478  28.960   2.564   9.489  0.0154 -0.0566  0.0648
41385W        W84479  30.607   0.333   7.734 -0.0222  0.0796  0.0131
41386W        W84480  31.382   2.409   8.531 -0.1818  0.1863 -0.1077
41387W        W84481  30.605   0.854   8.322 -0.0569 -0.0327  0.0218
41388W        W84482  30.154  34.375   9.510  0.1633  0.0313  0.1698
41389W        W84483  31.662   2.798   8.445 -0.0282 -0.2744 -0.0557
41390W        W84484  31.168   2.773   8.271  0.0386  0.2233  0.1642
41391W        W84485  29.603   0.650   7.734  0.1214  0.0625 -0.2037
41392W        W84486  29.163   2.640   8.011  0.1363 -0.2605  0.2300
41393W        W84487  29.185   1.262   8.017 -0.0324 -0.1410  0.1990
41394W        W84488  31.789   2.064   9.315  0.0487 -0.0243  0.0739
41395W        W84489  30.452   4.351   7.739 -0.1762 -0.2927  0.0489
41396W        W84490  31.413   4.470   6.696  0.1180 -0.2141  0.0655
41397W        W84491  30.689  34.016   9.037  0.1515  0.0752  0.1122
41398W        W84492  30.376   2.188   8.067  0.0629 -0.0504  0.0167
41399W        W84493  31.643   3.005   7.211 -0.0211 -0.1907 -0.1239
41400W        W84494  32.016   0.054   8.818 -0.1411  0.0832  0.0273
41401W        W84495  31.107   2.138   9.238 -0.2465  0.0089  0.1283
41402W        W84496  31.288   3.577   9.523  0.0132  0.3948  0.1595
41403W        W84497  30.218   0.440   8.942 -0.3513  0.2464  0.1070
41404W        W84498  32.033   0.372   7.860  0.1515  0.2017  0.0342
41405W        W84499  31.367   2.568   9.515  0.1163  0.1357  0.1620
41406W        W84500  28.320   1.934   8.873 -0.1445  0.1129 -0.0205
41407W        W84501  31.110   0.822   6.978 -0.2716 -0.1206 -0.1709
41408W        W84502  30.406   4.337   9.941 -0.2782  0.0255  0.0459
41409W        W84503  30.668   1.734   7.143  0.5682 -0.2542 -0.0415
41410W        W84504  33.676   2.750   7.219 -0.0562  0.0772  0.0272
41411W        W84505  31.947   3.878   9.954  0.1793  0.0673 -0.0525
41412W        W84506  31.352   5.011   9.053  0.0106 -0.1655  0.0149
41413W        W84507  31.385   0.188   9.793 -0.2689 -0.0406  0.0327
41414W        W84508  30.118   0.404  10.073  0.0435  0.3219  0.0750
41415W        W84509  30.471   2.638   8.372 -0.2684  0.0086  0.1054
41416W        W84510  31.441   1.558   7.830 -0.2034 -0.0680 -0.4915
41417W        W84511  31.941   1.285   8.535 -0.1471  0.2882  0.0637
41418W        W84512  29.846   2.236   9.608 -0.1671  0.0761  0.0226
41419W        W84513  31.155  34.266   9.093 -0.1311  0.0981  0.3038
41420W        W84514  32.930   1.767  10.205 -0.1571 -0.0233 -0.0461
41421W        W84515  31.016   4.447  10.752 -0.1231  0.1985  0.1528
41422W        W84516  30.110   6.326   2.265  0.1678  0.1922 -0.2611
41423W        W84517  29.577   3.289   0.321 -0.2037 -0.2805  0.2513
41424W        W84518  31.832   4.141  31.649 -0.2515 -0.1440 -0.3199
41425W        W84519  33.154   5.420   1.555 -0.0848  0.4050 -0.0623
41426W        W84520  28.324   4.742   1.108 -0.2259  0.0198  0.0002
41427W        W84521  32.443   7.265   1.492 -0.0808 -0.3586  0.2712
41428W        W84522  29.653   3.444   3.059  0.2220  0.0959 -0.1816
41429W        W84523  31.036   5.253   2.706  0.1325  0.1007  0.0517
41430W        W84524  31.115   8.197   2.887 -0.1827  0.0382 -0.3437
41431W        W84525  31.865   5.533  31.967  0.1351  0.0531 -0.3563
41432W        W84526  28.906   4.455   1.770  0.1432 -0.0060  0.1124
41433W        W84527  30.234   7.138   1.844 -0.0693  0.2044  0.1231
41434W        W84528  31.200   2.879  31.284  0.2710  0.5388  0.1611
41435W        W84529  29.115   3.322   0.132 -0.0053 -0.0236  0.2111
41436W        W84530  31.903   5.570   2.542 -0.0414 -0.0001 -0.0336
41437W        W84531  28.071   5.540   1.407  0.0164  0.0626 -0.1182
41438W        W84532  30.156   4.614   2.636  0.0546  0.0736 -0.1400
41439W        W84533  30.736   4.662   1.057  0.0974 -0.1516  0.0570
41440W        W84534  30.928   7.245   1.373 -0.2278 -0.1697 -0.0643
41441W        W84535  30.654   4.076   1.054 -0.2043  0.1034 -0.0973
41442W        W84536  30.672   3.945   2.765 -0.0925  0.1379  0.2314
41443W        W84537  30.820   5.841   1.641 -0.0721  0.1642 -0.3075
41444W        W84538  28.982   6.146   0.803  0.2378 -0.3276 -0.0195
41445W        W84539  28.419   4.477   1.588 -0.1655  0.1303  0.2853
41446W        W84540  28.518   4.307   2.109  0.1062 -0.1862 -0.2373
41447W        W84541  30.774   4.127   1.866 -0.3656  0.3479 -0.0806
41448W        W84542  31.287   5.767   1.360 -0.1936  0.0871 -0.0155
41449W        W84543  31.463   7.041   2.352  0.0591  0.2616  0.0455
41450W        W84544  29.372   5.416   3.267 -0.1510  0.0661  0.1313
41451W        W84545  31.113   4.347   2.751  0.0612  0.0360 -0.0514
41452W        W84546  30.099   5.475   0.239 -0.0386 -0.2079 -0.0078
41453W        W84547  29.929   8.134   1.902  0.2385  0.0176  0.2321
41454W        W84548  30.362   7.965  31.959  0.1290  0.1511 -0.1347
41455W        W84549  33.052   8.097   1.935  0.2061  0.1701  0.2104
41456W        W84550  32.887   7.435   2.443 -0.0092 -0.1894  0.1513
41457W        W84551  29.981   8.642   3.096  0.1738  0.0889  0.1445
41458W        W84552  28.747   7.309   1.610 -0.0785 -0.0380  0.3203
41459W        W84553  30.406   8.042   3.518  0.1397  0.0794  0.1011
41460W        W84554  30.418   7.068   3.298 -0.0008 -0.0488  0.1950
41461W        W84555  29.984   5.687   1.573 -0.2110  0.0332 -0.3426
41462W        W84556  29.936   4.932   1.111 -0.1848  0.0528 -0.1568
41463W        W84557  30.668   7.047   0.169 -0.1513 -0.2346  0.0774
41464W        W84558  30.684   6.368   1.348 -0.1201  0.3776 -0.2891
41465W        W84559  29.043   5.785   3.295  0.1013  0.1389 -0.2496
41466W        W84560  29.695   7.232   1.173  0.0194 -0.2867  0.3121
41467W        W84561  32.926   3.806   4.888 -0.1083  0.3113 -0.0641
41468W        W84562  29.926   6.620  31.079  0.1284  0.4615  0.0001
41469W        W84563  30.975   5.686   0.704  0.0914 -0.0492 -0.0400
41470W        W84564  31.530   6.617   0.435 -0.2054  0.0774  0.2586
41471W        W84565  31.607   4.950   0.882  0.1705 -0.1617 -0.2982
41472W        W84566  28.759   4.745   1.311 -0.0767  0.0571 -0.4700
41473W        W84567  29.308   6.184   1.952 -0.1549  0.3088 -0.0710
41474W        W84568  29.386   2.627   1.750  0.3673 -0.2474  0.0774
41475W        W84569  31.585   6.029   3.077  0.0963  0.1229 -0.1425
41476W        W84570  30.368   5.210  31.892 -0.2667  0.0189 -0.0566
41477W        W84571  28.987   3.687   1.344  0.0151  0.1282 -0.1021
41478W        W84572  28.998   7.096   2.039  0.0338 -0.0488  0.0263
41479W        W84573  29.062   6.631   3.019 -0.1210 -0.0747  0.0528
41480W        W84574  31.746   7.654   1.230 -0.1116 -0.0393  0.0431
41481W        W84575  32.893   7.054   1.561 -0.1775  0.0596 -0.0731
41482W        W84576  30.868   7.624   0.246 -0.2629  0.3018  0.0193
41483W        W84577  30.262   4.050   1.834  0.1819 -0.0839 -0.1385
41484W        W84578  30.054   5.953   3.765  0.3181  0.0716 -0.0851
41485W        W84579  30.125   6.165   2.763  0.1897  0.1205 -0.1947
41486W        W84580  30.513   3.582   0.318  0.2225 -0.1522 -0.2656
41487W        W84581  33.370   7.032   3.390 -0.0574 -0.0159  0.2577
41488W        W84582  28.680   5.437   3.129 -0.0547  0.1051  0.1127
41489W        W84583  32.160   3.169   0.250 -0.0165  0.0397  0.1260
41490W        W84584  30.302   6.154   0.856  0.6045  0.1550  0.0077
41491W        W84585  31.153   7.065   2.776 -0.0849 -0.2755 -0.3032
41492W        W84586  31.382   5.950   0.923  0.1732 -0.2725 -0.1755
41493W        W84587  29.950   4.785   0.610  0.0403 -0.2595 -0.0180
41494W        W84588  31.618   3.375   0.358 -0.0754 -0.0356 -0.1642
41495W        W84589  29.958   7.079  30.162  0.0903  0.2523  0.2255
41496W        W84590  28.368   5.310   0.537 -0.0272 -0.1471  0.0326
41497W        W84591  33.468   7.645   1.568  0.2426  0.2162 -0.3246
41498W        W84592  32.774   5.529   0.146 -0.0406  0.0486  0.0915
41499W        W84593  29.702   7.659   2.368 -0.0693 -0.4638  0.2631
41500W        W84594  30.160   5.542   3.475  0.2114  0.2355  0.2658
41501W        W84595  31.511   6.980   4.358  0.0371  0.0367 -0.1994
41502W        W84596  28.488   6.960  30.982  0.0443 -0.0925 -0.3694
41503W        W84597  29.938   5.814   1.084 -0.0740 -0.0361 -0.3301
41504W        W84598  29.761   6.289   1.153 -0.0264 -0.1822 -0.5157
41505W        W84599  27.043   6.159   2.442 -0.0972  0.3411 -0.1238
41506W        W84600  30.380   6.537   3.135 -0.1377  0.3491  0.0189
41507W        W84601  31.261   4.082  31.713  0.3718 -0.2191 -0.3763
41508W        W84602  28.938   4.142   2.718  0.3706 -0.0933  0.2221
41509W        W84603  31.921   3.704   1.466  0.0277  0.0529 -0.2194
41510W        W84604  29.442   5.491   0.871  0.1043 -0.1675 -0.2621
41511W        W84605  31.234   7.200  31.357  0.3028  0.0215  0.0861
41512W        W84606  32.457   5.577   0.556  0.2921  0.1395  0.0749
41513W        W84607  31.730   6.575  31.621 -0.1653 -0.3051 -0.1870
41514W        W84608  29.229   5.794   2.380  0.0348  0.1744  0.1486
41515W        W84609  29.202   5.510   1.540 -0.2714  0.0842 -0.4128
41516W        W84610  29.757   4.253   2.085 -0.1363  0.1636  0.0067
41517W        W84611  29.505   5.270   2.318  0.4461 -0.4462 -0.2461
41518W        W84612  31.577   5.163   2.654 -0.0503  0.0071 -0.0197
41519W        W84613  30.161   4.018  31.133  0.1259 -0.4223 -0.2620
41520W        W84614  31.072   4.331   1.236  0.0633  0.1393  0.2461
41521W        W84615  30.550   5.087   1.885 -0.3227 -0.1623  0.0131
41522W        W84616  27.706   5.079  31.975 -0.2023  0.1953  0.1500
41523W        W84617  31.628   3.297   3.223 -0.0949 -0.0902 -0.2252
41524W        W84618  30.768   8.449   0.823 -0.2192 -0.5056 -0.1729
41525W        W84619  30.747   8.598   4.135 -0.0566 -0.2546  0.0891
41526W        W84620  31.290   7.271   1.951 -0.4745  0.1329  0.2695
41527W        W84621  31.359   4.113   2.200  0.0789 -0.0192  0.0919
41528W        W84622  29.942   4.614   0.169 -0.0420 -0.2732  0.1559
41529W        W84623  30.026   7.280   0.812 -0.2386 -0.2037 -0.1103
41530W        W84624  30.552   6.119   2.435 -0.0742 -0.0871  0.2735
41531W        W84625  29.668   5.387   1.312 -0.0554  0.2407 -0.0407
41532W        W84626  31.828   7.454   2.092 -0.0378 -0.3462 -0.0724
41533W        W84627  31.765   6.394   0.103  0.0187  0.1456 -0.1083
41534W        W84628  29.697   5.469   2.851  0.1882 -0.0293  0.0085
41535W        W84629  31.240   4.356   1.668  0.0513 -0.1537 -0.0143
41536W        W84630  31.724   5.779   1.587  0.2112 -0.0339 -0.1969
41537W        W84631  32.205   4.597   1.510  0.1077 -0.2527  0.1508
41538W        W84632  29.665   5.042   0.295 -0.1002  0.1671 -0.0708
41539W        W84633  30.117   5.797   2.368 -0.0209 -0.2493  0.2296
41540W        W84634  29.024   6.715   0.926 -0.0751  0.2139 -0.0711
41541W        W84635  28.466   6.145   0.866 -0.1393 -0.0621  0.1970
41542W        W84636  31.537   7.191   1.482  0.0935  0.0284  0.0027
41543W        W84637  31.386   3.820   0.522  0.1480 -0.1004 -0.1514
41544W        W84638  27.966   4.661   4.142  0.0588  0.0598  0.3240
41545W        W84639  30.960   4.579   2.087 -0.3407 -0.1343 -0.4041
41546W        W84640  27.911   5.879   1.815  0.2772  0.0239  0.1473
41547W        W84641  30.419   6.727   2.110 -0.2928  0.1825  0.1021
41548W        W84642  30.836   3.777  31.892 -0.4154 -0.1145 -0.2517
41549W        W84643  32.014   4.495   0.115 -0.0369 -0.0738  0.1196
41550W        W84644  30.030   6.242   4.182  0.1110  0.1735  0.1871
41551W        W84645  30.193   5.378   1.177  0.2325 -0.1803  0.1423
41552W        W84646  30.809   4.859   0.549  0.1466 -0.0763  0.0627
41553W        W84647  31.179   4.767   0.198  0.0295 -0.3052 -0.3458
41554W        W84648  29.490   6.749   4.724  0.4097  0.0230  0.1527
41555W        W84649  29.511   6.232   0.319 -0.1670  0.0536 -0.1674
41556W        W84650  30.422   5.519   1.636  0.1274 -0.2425 -0.0358
41557W        W84651  30.368   4.446  31.273 -0.1572  0.0236 -0.0168
41558W        W84652  32.227   6.364   0.802  0.0217  0.1160 -0.2723
41559W        W84653  29.641   6.489   1.607  0.1064  0.0411  0.1081
41560W        W84654  30.909   4.012   3.700 -0.3096  0.1875 -0.0817
41561W        W84655  31.510   8.233   2.424 -0.0854 -0.1536 -0.1505
41562W        W84656  31.066   2.296   2.622  0.1054  0.0854  0.1353
41563W        W84657  29.134   4.909   0.370  0.0237 -0.1125  0.0117
41564W        W84658  30.147   2.890   1.953  0.0331  0.0133 -0.2600
41565W        W84659  29.438   7.193  30.898 -0.0925  0.1439 -0.1982
41566W        W84660  31.539   4.280   0.603 -0.1098 -0.1034 -0.3618
41567W        W84661  29.927   5.093   2.625  0.0328 -0.0643  0.2798
41568W        W84662  31.715   4.649   3.306  0.0668 -0.0682  0.0312
41569W        W84663  31.078   5.855   3.119  0.0838 -0.0763 -0.0617
41570W        W84664  30.586   5.125   1.366  0.1634  0.0463 -0.3948
41571W        W84665  29.790   4.085   2.597  0.2532  0.1887 -0.1123
41572W        W84666  28.214   5.694   0.928 -0.4173  0.0709  0.0880
41573W        W84667  30.201   4.531   2.016  0.3676 -0.0691  0.0487
41574W        W84668  30.538   6.407   4.646  0.1699 -0.0430  0.2235
41575W        W84669  29.052   6.976   3.584 -0.0093  0.5389 -0.1584
41576W        W84670  31.515   6.658   1.561  0.0265  0.1632  0.2701
41577W        W84671  30.957   6.736   1.521  0.1514 -0.2633 -0.4111
41578W        W84672  29.713   4.673   2.455  0.2103 -0.1403  0.0764
41579W        W84673  29.411   3.980   1.161 -0.1047  0.1374  0.0034
41580W        W84674  30.078   7.056  31.968 -0.0518  0.0936  0.2742
41581W        W84675  30.754   6.851  31.395  0.0132 -0.0704 -0.2138
41582W        W84676  30.673   3.684   1.699  0.2653 -0.0595  0.2900
41583W        W84677  29.870   7.529   1.641  0.0867  0.0024 -0.1500
41584W        W84678  29.083   7.267   1.150 -0.0689  0.0664 -0.0943
41585W        W84679  30.038   6.166   3.257 -0.0175  0.1032 -0.0019
41586W        W84680  28.559   6.742   1.719 -0.0269 -0.0300 -0.2413
41587W        W84681  31.160   4.610   0.753  0.0713 -0.0089 -0.0209
41588W        W84682  29.029   8.032   1.854 -0.0526  0.0157  0.1132
41589W        W84683  29.175   4.477   1.172 -0.1591  0.1085  0.1010
41590W        W84684  28.621   6.351   1.293  0.1242 -0.0302  0.5546
41591W        W84685  30.102   3.635   1.584 -0.2155  0.0925  0.0216
41592W        W84686  32.716   6.109  31.963  0.3113 -0.2272  0.1289
41593W        W84687  28.969   4.112   2.148 -0.0648 -0.0598  0.3529
41594W        W84688  29.925   3.776   2.114  0.0700 -0.2725  0.1866
41595W        W84689  28.190   6.100   1.285 -0.2126 -0.0757 -0.0927
41596W        W84690  30.205   5.585   2.941  0.0215  0.0871  0.0528
41597W        W84691  30.726   3.023   0.325  0.0641 -0.2425  0.2681
41598W        W84692  31.056   6.122   2.180 -0.2698  0.2556 -0.0687
41599W        W84693  32.143   7.042   4.902 -0.0280 -0.2728  0.1195
41600W        W84694  28.909   5.700  31.801  0.1833  0.1041 -0.4086
41601W        W84695  32.468   6.384   2.854 -0.1816  0.1031  0.1615
41602W        W84696  29.080   4.981   1.747  0.0443  0.0330 -0.0103
41603W        W84697  29.982   6.693   3.399  0.1354 -0.0316  0.0918
41604W        W84698  31.217   6.267   1.290  0.4107 -0.2892 -0.2813
41605W        W84699  28.308   5.225   1.029  0.3607  0.1439  0.1561
41606W        W84700  29.531   5.986   1.445  0.3927  0.0864 -0.3436
41607W        W84701  29.981   5.190   3.178 -0.0999  0.2288 -0.0976
41608W        W84702  31.208   6.370   3.015 -0.0775 -0.0006  0.0843
41609W        W84703  29.383   4.526   1.694  0.0012 -0.0282  0.1343
41610W        W84704  29.435   3.822  31.962  0.3232 -0.0245  0.0178
41611W        W84705  30.361   5.987   1.958  0.0731  0.1605  0.1319
41612W        W84706  31.421   6.222   1.825  0.3685  0.0633  0.2004
41613W        W84707  29.506   4.833   3.319  0.4754 -0.3299  0.0528
41614W        W84708  30.533   6.860   3.828  0.1864  0.0675  0.0818
41615W        W84709  30.452   3.922   3.342 -0.0337  0.1138  0.0607
41616W        W84710  30.508   7.440   1.001  0.1818  0.1753 -0.0345
41617W        W84711  30.950   5.123   2.225 -0.0768  0.0905 -0.2447
41618W        W84712  29.887   6.383   0.606  0.2584  0.0750 -0.2500
41619W        W84713  30.282   4.154   2.315  0.3614  0.0561 -0.0438
41620W        W84714  29.493   6.904   0.768  0.3464  0.1025 -0.3159
41621W        W84715  30.264   3.553   2.537  0.1972  0.2115  0.2292
41622W        W84716  29.936   5.449   2.084  0.0248  0.0124  0.0156
41623W        W84717  30.589   6.852   1.122 -0.0767  0.1726  0.1198
41624W        W84718  28.093   6.322   2.868  0.2788 -0.2293  0.1954
41625W        W84719  32.272   3.608   1.059  0.0555 -0.2257 -0.4404
41626W        W84720  30.726   7.518  31.448 -0.1584 -0.2325  0.0545
41627W        W84721  30.244   4.470   1.032 -0.0754 -0.1402  0.1290
41628W        W84722  30.659   5.332   3.165 -0.2675 -0.4330 -0.1834
41629W        W84723  30.371   7.071  31.623  0.0386  0.3545  0.1116
41630W        W84724  31.262   4.448   3.295 -0.4480 -0.0122  0.0850
41631W        W84725  31.173   3.461   3.094 -0.0937 -0.1337 -0.0199
41632W        W84726  32.748   6.182   1.545 -0.4174 -0.2201 -0.1076
41633W        W84727  28.028   4.761   1.823 -0.3205  0.2910  0.3303
41634W        W84728  31.403   6.677   4.807 -0.1158  0.0191  0.0585
41635W        W84729  29.166   6.459   3.493 -0.0549 -0.0697  0.2128
41636W        W84730  31.111   5.191  31.814  0.1439 -0.1463 -0.0593
41637W        W84731  31.116   3.903   1.493 -0.0796 -0.0267 -0.2383
41638W        W84732  30.166   6.433   1.664 -0.1827 -0.5385 -0.0446
41639W        W84733  31.275   5.707   1.873  0.1101  0.2586  0.1231
41640W        W84734  30.721   6.148   0.587 -0.1385 -0.1747 -0.4366
41641W        W84735  31.128   4.893   1.254 -0.6056 -0.0137 -0.0088
41642W        W84736  28.788   5.463   4.740  0.0415  0.0106 -0.1791
41643W        W84737  31.418   5.352   1.561  0.5037  0.1522  0.0206
41644W        W84738  31.778   6.187   0.675 -0.2004 -0.0925 -0.3140
41645W        W84739  30.918   4.106   2.397 -0.2538 -0.2503 -0.0515
41646W        W84740  32.232   5.151   1.530  0.0517 -0.0327  0.0261
41647W        W84741  30.806   4.280   0.574 -0.1892  0.2772  0.0361
41648W        W84742  31.235   3.686   3.509 -0.0134  0.0162  0.1885
41649W        W84743  30.947   4.762   2.591  0.1569 -0.1517 -0.1712
41650W        W84744  29.713   6.006   2.387 -0.2039  0.0910  0.1862
41651W        W84745  29.474   4.976   2.820  0.0470 -0.0406  0.2440
41652W        W84746  32.342   7.275   3.284 -0.1267  0.0583  0.1983
41653W        W84747  32.438   5.669  30.582  0.3848  0.1522  0.1447
41654W        W84748  32.386   5.666   2.355  0.2407 -0.2682  0.4160
41655W        W84749  31.661   4.752   0.398 -0.1766 -0.2343  0.0949
41656W        W84750  32.489   4.489   0.225  0.3703  0.0640  0.0689
41657W        W84751  29.831   4.743   1.758 -0.1814  0.1833 -0.0476
41658W        W84752  32.046   6.826   3.268 -0.1797 -0.1464 -0.0898
41659W        W84753  29.865   3.364   1.183 -0.1465  0.0805 -0.2407
41660W        W84754  29.397   4.787   2.084 -0.2503 -0.1318 -0.1418
41661W        W84755  30.028   7.481   0.313  0.1228  0.6077  0.3051
41662W        W84756  31.345   4.825   1.750 -0.2127 -0.1673 -0.0168
41663W        W84757  32.740   5.893   1.952 -0.1968  0.2107 -0.1097
41664W        W84758  28.036   5.309   1.849  0.0221  0.0597  0.0336
41665W        W84759  29.302   8.071   3.212 -0.1923 -0.1016 -0.1404
41666W        W84760  29.655   4.666  31.787 -0.0197 -0.0810  0.1592
41667W        W84761  31.167   5.352   1.061 -0.4440 -0.2070 -0.0010
41668W        W84762  32.558   5.403   1.909  0.0613 -0.0523 -0.1149
41669W        W84763  32.073   6.086   2.288 -0.1526  0.2155 -0.0044
41670W        W84764  30.156   5.649  31.768 -0.1609  0.1208  0.0675
41671W        W84765  32.593   4.904   3.384 -0.1505 -0.1779 -0.0103
41672W        W84766  29.156   6.360   1.247 -0.2219  0.0353  0.1409
41673W        W84767  30.767   3.144   1.202  0.0537 -0.1619  0.4530
41674W        W84768  29.345   7.750   2.741 -0.1378 -0.2198  0.1672
41675W        W84769  29.560   5.730   1.892 -0.1617 -0.1660 -0.1770
41676W        W84770  30.000   5.875   0.581 -0.3441 -0.1815 -0.1284
41677W        W84771  30.507   4.764   2.308  0.1482  0.1417  0.2670
41678W        W84772  30.908   3.557   2.543 -0.1395 -0.0609 -0.1000
41679W        W84773  30.288   4.740   1.510  0.0040  0.1132 -0.0337
41680W        W84774  31.574   5.654   3.466  0.0839 -0.1244  0.0760
41681W        W84775  30.468   5.988   3.148  0.3668 -0.1523  0.1974
41682W        W84776  29.088   5.120   2.384  0.2731  0.1542 -0.0428
41683W        W84777  31.657   6.837   2.873  0.2631  0.1082  0.1393
41684W        W84778  32.425   5.756   1.041  0.2341  0.0728 -0.3990
41685W        W84779  30.543   4.326   1.437  0.0319 -0.2490 -0.0994
41686W        W84780  29.375   6.041   3.591 -0.0919 -0.1609 -0.1379
41687W        W84781  29.866   6.086   1.858 -0.4732  0.1737  0.4055
41688W        W84782  31.279   3.929   0.993  0.0061 -0.0149 -0.0563
41689W        W84783  30.039   3.764   0.327 -0.0862  0.0903 -0.1897
41690W        W84784  30.811   7.982  31.593 -0.0581  0.0536  0.0270
41691W        W84785  29.003   6.627   3.926  0.2293  0.0589 -0.2679
41692W        W84786  30.362   5.278   2.412  0.1028  0.2754  0.0596
41693W        W84787  28.463   7.736  31.838  0.1625 -0.1770  0.2144
41694W        W84788  31.666   5.473   1.098 -0.0106  0.0962  0.0717
41695W        W84789  31.523   7.039   0.689  0.0586  0.1151 -0.0894
41696W        W84790  33.295   7.227   2.962 -0.0887  0.4206 -0.5520
41697W        W84791  30.393   4.549   0.548 -0.2133  0.1424 -0.0487
41698W        W84792  30.325   6.028   1.453  0.1550 -0.2349  0.1552
41699W        W84793  28.591   8.297   1.985  0.3372  0.5403  0.3702
41700W        W84794  30.932   6.887   0.622  0.1969  0.2722  0.0571
41701W        W84795  30.269   6.491   1.154  0.2116  0.3448  0.1188
41702W        W84796  31.397   7.079   3.232  0.0342 -0.1873 -0.2330
41703W        W84797  33.749   3.478  31.646  0.4029  0.1588  0.0393
41704W        W84798  31.695   5.850   2.075  0.1397  0.0812 -0.2125
41705W        W84799  31.713   5.974  31.829  0.1891 -0.2855  0.0113
41706W        W84800  30.987   6.464   3.851 -0.2864 -0.0682 -0.0264
41707W        W84801  29.577   6.263   3.148 -0.0888 -0.3319 -0.1523
41708W        W84802  29.436   3.616   0.669  0.0461 -0.0140  0.3351
41709W        W84803  30.639   5.333   5.144 -0.0015  0.2464 -0.1705
41710W        W84804  32.228   3.013   2.457  0.1908 -0.1798  0.0109
41711W        W84805  29.485   6.820   3.323  0.1518  0.2425  0.0571
41712W        W84806  33.670   8.701   0.193 -0.0392 -0.0274  0.0255
41713W        W84807  29.698   4.188   0.226 -0.0043 -0.1895  0.1496
41714W        W84808  28.939   4.845   0.825  0.1009 -0.3862 -0.1259
41715W        W84809  32.063   4.167   1.771  0.1215  0.2014  0.3158
41716W        W84810  29.806   5.264  31.847  0.3030 -0.0270  0.0902
41717W        W84811  31.331   3.922   2.756 -0.2601 -0.1487  0.1515
41718W        W84812  29.674   8.198   1.370 -0.0709 -0.2598 -0.2107
41719W        W84813  29.921   7.243   3.146 -0.2316  0.1271 -0.0217
41720W        W84814  29.662   7.131   4.249  0.1750 -0.1238  0.1688
41721W        W84815  29.651   4.557   0.994  0.2314  0.2743  0.0078
41722W        W84816  32.131   5.191   2.355 -0.2139 -0.1659 -0.1265
41723W        W84817  29.652   6.636   4.293  0.0188  0.1137  0.2743
41724W        W84818  31.490   3.634   2.351  0.1556  0.0675 -0.0778
41725W        W84819  29.472   4.982   0.758  0.0113 -0.0961 -0.3838
41726W        W84820  31.963   3.542  31.971 -0.0225  0.1669  0.0333
41727W        W84821  30.931   5.338   1.624  0.1646 -0.3691  0.0203
41728W        W84822  29.223   4.487   3.090  0.1222 -0.0203 -0.0089
41729W        W84823  30.888   5.802   0.234 -0.0963  0.0720 -0.1749
41730W        W84824  32.335   6.574   2.313  0.1802  0.0558  0.3429
41731W        W84825  31.564   5.544   0.593 -0.1394  0.4951 -0.3011
41732W        W84826  31.840   7.295   3.481 -0.0388  0.3815 -0.1838
41733W        W84827  29.062   3.584   1.877 -0.1192  0.1776  0.1384
41734W        W84828  29.475   4.132   0.670  0.0854  0.0952 -0.0112
41735W        W84829  29.588   5.219   1.798  0.2516  0.1174  0.0914
41736W        W84830  29.461   4.929   1.405  0.1007  0.2030  0.3934
41737W        W84831  32.776   7.248   2.963  0.5456  0.1173  0.1727
41738W        W84832  28.658   4.421   0.893  0.1548 -0.2022 -0.0538
41739W        W84833  32.846   5.540  30.303 -0.0481 -0.0400 -0.2018
41740W        W84834  31.473   5.309   2.106 -0.0381 -0.2440  0.2016
41741W        W84835  29.376   7.941  30.991 -0.2585  0.0608 -0.1545
41742W        W84836  31.652   4.934   1.386 -0.2148  0.0820  0.2661
41743W        W84837  32.224   8.115   2.389  0.1119 -0.0685 -0.0897
41744W        W84838  29.019   5.208   1.144 -0.0538  0.1861  0.1919
41745W        W84839  31.881   6.533   1.204 -0.1046 -0.3334  0.1656
41746W        W84840  32.802   6.673   2.266  0.1587  0.0352  0.1498
41747W        W84841  29.960   4.231   0.666  0.1648 -0.0634  0.1932
41748W        W84842  31.067   3.721   1.999  0.1671  0.2378  0.2756
41749W        W84843  28.981   8.553   1.721  0.1613 -0.1941 -0.0614
41750W        W84844  32.838   5.057   1.326  0.0844  0.1579  0.0687
41751W        W84845  32.164   3.478   3.272  0.2464  0.0914  0.0506
41752W        W84846  31.475   6.470   0.917 -0.0698 -0.2919 -0.0938
41753W        W84847  33.449   2.577   2.448  0.1188 -0.1606 -0.1563
41754W        W84848  30.851   7.027   1.947  0.1619 -0.2202  0.0361
41755W        W84849  30.677   7.294   3.642 -0.2736  0.1003 -0.0129
41756W        W84850  29.843   5.916   0.123 -0.3322 -0.1008  0.1359
41757W        W84851  30.065   6.635   3.883  0.2236 -0.2726  0.0877
41758W        W84852  30.817   6.393   1.853 -0.0430  0.1260 -0.0548
41759W        W84853  29.663   6.544   2.096  0.3138 -0.3333  0.2341
41760W        W84854  31.801   6.596   2.317 -0.1965 -0.3798  0.0187
41761W        W84855  31.205   4.131   0.227  0.0712  0.1244  0.1718
41762W        W84856  31.938   6.332   1.723 -0.1342 -0.1590  0.1551
41763W        W84857  30.326   3.448   1.988  0.0822  0.2412 -0.2210
41764W        W84858  31.693   3.640   0.840 -0.2082  0.0526  0.0578
41765W        W84859  31.504   2.685   1.393  0.1215 -0.1485 -0.2851
41766W        W84860  28.555   4.793   1.931 -0.1347 -0.0124 -0.2646
41767W        W84861  29.035   4.039  31.371 -0.0024  0.1354  0.1796
41768W        W84862  29.998   6.430   0.141 -0.4378 -0.0307 -0.0653
41769W        W84863  30.458   5.730   0.671 -0.4665  0.1430 -0.1335
41770W        W84864  31.608   2.743   3.378  0.1762 -0.2196 -0.0326
41771W        W84865  28.819   3.723   3.060  0.4958 -0.1994 -0.0110
41772W        W84866  29.753   5.781   3.299  0.0189  0.2269  0.0663
41773W        W84867  29.609   5.512   0.397  0.0483  0.1336 -0.0112
41774W        W84868  32.213   6.628  31.539  0.1825  0.1621  0.0982
41775W        W84869  28.328   3.264   2.359 -0.1538  0.1524 -0.4071
41776W        W84870  28.433   4.836   0.557 -0.0199 -0.1379 -0.2208
41777W        W84871  30.488   6.805   1.583 -0.0103  0.1313  0.0554
41778W        W84872  31.807   7.145   1.055  0.2892 -0.1709  0.0396
41779W        W84873  29.514   4.587   0.454  0.0799 -0.1901 -0.1313
41780W        W84874  31.032   6.793   3.359  0.2893  0.0711  0.1910
41781W        W84875  28.109   6.267  31.813  0.2222  0.1642  0.0145
41782W        W84876  30.496   3.515   2.973 -0.1454 -0.0233  0.0407
41783W        W84877  30.717   3.553   3.524 -0.0393  0.1780  0.2035
41784W        W84878  29.476   5.055  31.377  0.0517 -0.1300 -0.2969
41785W        W84879  29.756   6.338   3.703  0.1557 -0.1077  0.3051
41786W        W84880  31.291   6.837   1.154 -0.0968 -0.0296  0.2206
41787W        W84881  32.276   7.169   0.624  0.0698 -0.2160  0.0334
41788W        W84882  29.526   5.851   4.322  0.3478  0.1159  0.0602
41789W        W84883  30.548   7.273   4.175 -0.0012  0.0590 -0.0006
41790W        W84884  28.929   2.930   1.883 -0.1358  0.1932 -0.2160
41791W        W84885  30.619   5.590   1.209  0.0423  0.4086 -0.3951
41792W        W84886  30.825   7.765   3.698 -0.0047  0.0388 -0.0752
41793W        W84887  33.390   4.887   0.370  0.0763 -0.0543  0.1224
41794W        W84888  32.600   4.271   1.676 -0.0426 -0.0060 -0.2118
41795W        W84889  30.734   5.312   0.803 -0.1865 -0.2561  0.0338
41796W        W84890  28.963   3.716   2.426 -0.2290 -0.0840 -0.1522
41797W        W84891  27.570   6.502   3.657  0.1583  0.0038 -0.0894
41798W        W84892  32.244   7.111   1.974  0.1760 -0.1212  0.0541
41799W        W84893  29.606   3.090   0.855 -0.1166 -0.0541  0.0869
41800W        W84894  31.500   4.532   1.135 -0.3138 -0.2428  0.1430
41801W        W84895  30.475   8.006   0.973  0.1174 -0.0028  0.1429
41802W        W84896  28.987   5.576   1.983  0.2061 -0.2410  0.0643
41803W        W84897  30.848   4.688   1.631 -0.0684 -0.1813 -0.3208
41804W        W84898  29.965   6.913   2.192 -0.0682  0.2096 -0.1111
41805W        W84899  31.306   6.580   2.539  0.1987  0.2098  0.0544
41806W        W84900  30.992   6.007   4.081  0.0076  0.1656  0.3437
41807W        W84901  29.892   5.318   0.771  0.0349 -0.0486 -0.2038
41808W        W84902  33.300   5.840   0.377  0.1078  0.1150 -0.1343
41809W        W84903  30.578   7.110   2.410  0.0036  0.0312 -0.0163
41810W        W84904  33.284   6.836   4.007 -0.0374 -0.1114 -0.0234
41811W        W84905  30.852   7.756   2.282 -0.0483  0.1522 -0.3717
41812W        W84906  31.761   6.931   1.924  0.0889 -0.2127  0.1977
41813W        W84907  28.716   3.932   1.772  0.2619  0.1426  0.0056
41814W        W84908  30.355   4.952   0.869 -0.0880 -0.1211  0.2696
41815W        W84909  29.896   6.793   1.058 -0.3208 -0.1519  0.2224
41816W        W84910  30.690   5.734   2.751  0.3944  0.0180 -0.0550
41817W        W84911  29.017   3.982   0.867 -0.1114 -0.1139  0.3275
41818W        W84912  32.110   3.730   0.558  0.0025  0.1564 -0.3032
41819W        W84913  30.351   6.321   3.596 -0.2180 -0.3445 -0.0395
41820W        W84914  30.071   5.192   1.685 -0.3204 -0.0844 -0.0824
41821W        W84915  29.197   6.418   5.632 -0.1914 -0.1445 -0.0437
41822W        W84916  29.445   4.590   4.774  0.1206  0.4123  0.1231
41823W        W84917  30.615   4.463   2.906  0.3948  0.2606  0.2644
41824W        W84918  31.756   6.103   3.738 -0.0297  0.2456  0.1130
41825W        W84919  29.034   4.711   5.014 -0.2350 -0.0960 -0.2601
41826W        W84920  32.310   6.846   4.239  0.2329  0.2766 -0.0025
41827W        W84921  30.123   4.129   7.410  0.0084  0.0051  0.0482
41828W        W84922  32.627   7.404   5.101  0.2421  0.0270 -0.0498
41829W        W84923  32.379   7.037   7.063  0.3266  0.0163 -0.3731
41830W        W84924  30.267   5.129   3.812 -0.1268 -0.2588 -0.0040
41831W        W84925  32.380   5.032   5.363  0.0292 -0.1231  0.2591
41832W        W84926  31.526   5.595   7.139 -0.1348 -0.0073  0.0897
41833W        W84927  30.642   3.442   4.253 -0.0299  0.0865  0.1595
41834W        W84928  28.693   2.872   5.153 -0.1636 -0.1471  0.2129
41835W        W84929  31.649   5.809   5.139  0.4171 -0.1137  0.1495
41836W        W84930  28.651   5.101   5.118  0.1854 -0.1903 -0.3471
41837W        W84931  31.467   4.765   5.564 -0.0521 -0.1518 -0.0400
41838W        W84932  31.606   5.216   4.423 -0.1265 -0.2859  0.1415
41839W        W84933  30.526   6.374   4.176 -0.0332 -0.1203  0.0284
41840W        W84934  31.632   4.223   6.305  0.0095 -0.0253 -0.3440
41841W        W84935  31.933   4.518   4.981  0.1348  0.0283 -0.3527
41842W        W84936  31.085   7.051   4.044  0.0789  0.2782 -0.0602
41843W        W84937  30.069   4.984   2.155 -0.1919 -0.1232  0.3599
41844W        W84938  28.721   4.158   5.910 -0.1919 -0.2768 -0.0491
41845W        W84939  31.319   5.616   6.135  0.0268 -0.0211  0.0728
41846W        W84940  31.109   5.239   5.204  0.2539  0.1523 -0.0629
41847W        W84941  31.939   6.416   4.189 -0.0166 -0.1257  0.3076
41848W        W84942  30.817   7.153   6.132  0.1475  0.0611 -0.0338
41849W        W84943  32.486   6.950   6.570  0.2178 -0.0658 -0.2750
41850W        W84944  32.362   4.469   5.754  0.1378  0.2338 -0.1054
41851W        W84945  30.212   5.985   4.764 -0.1743 -0.1626 -0.2528
41852W        W84946  28.815   6.679   5.771  0.3820 -0.1941 -0.0855
41853W        W84947  29.603   8.277   6.128 -0.1621  0.2302  0.0330
41854W        W84948  33.188   5.905   3.197  0.1416 -0.0062  0.5102
41855W        W84949  32.156   6.985   6.133 -0.0717 -0.0147 -0.1879
41856W        W84950  31.925   7.971   8.194 -0.0107 -0.3868  0.1517
41857W        W84951  29.368   6.303   4.063  0.0072  0.3577 -0.0379
41858W        W84952  30.737   7.803   6.347  0.0834  0.0450  0.0549
41859W        W84953  30.271   7.043   6.815  0.0360  0.1407 -0.3494
41860W        W84954  30.978   6.349   6.686  0.4354  0.0030 -0.0071
41861W        W84955  29.827   5.354   5.048  0.1674  0.1151 -0.0341
41862W        W84956  30.457   7.565   3.193 -0.1059 -0.1292  0.1209
41863W        W84957  32.224   7.051   5.476  0.1098 -0.2118  0.1666
41864W        W84958  30.223   5.663   6.496 -0.0481 -0.0969 -0.1856
41865W        W84959  29.424   6.983   5.759 -0.1279  0.0719  0.1405
41866W        W84960  32.099   4.106   7.042 -0.1530 -0.1558 -0.0564
41867W        W84961  29.802   7.896   5.327  0.1125  0.2404 -0.1362
41868W        W84962  32.042   5.623   3.640  0.0028 -0.2281  0.0253
41869W        W84963  29.884   4.142   4.565 -0.3096 -0.0709 -0.2705
41870W        W84964  32.071   6.046   3.334  0.0726 -0.0681  0.2877
41871W        W84965  29.482   2.992   5.620  0.1112  0.1253  0.1740
41872W        W84966  30.916   6.983   5.668 -0.2815 -0.0374 -0.0524
41873W        W84967  30.094   4.503   5.415 -0.2292  0.0719 -0.0977
41874W        W84968  33.818   6.813   7.031 -0.3672 -0.1263 -0.0981
41875W        W84969  30.767   5.522   4.054  0.1309  0.3326  0.2443
41876W        W84970  32.725   4.947   6.654  0.0394 -0.1012 -0.0678
41877W        W84971  30.235   7.398   7.107  0.2035 -0.2855 -0.0074
41878W        W84972  29.678   6.544   5.734  0.1676  0.2471 -0.1669
41879W        W84973  32.757   6.759   2.748 -0.1718  0.3035  0.0223
41880W        W84974  33.235   6.918   5.639 -0.0896  0.0947 -0.3727
41881W        W84975  32.754   6.894   3.288  0.1345  0.0467  0.0214
41882W        W84976  28.741   6.229   5.494  0.0098  0.2814  0.2595
41883W        W84977  29.729   5.583   6.964 -0.1741  0.1550 -0.4252
41884W        W84978  31.496   5.187   6.060 -0.2141 -0.2923 -0.1478
41885W        W84979  29.599   3.896   3.353  0.0180  0.0127  0.0165
41886W        W84980  33.370   6.909   7.421 -0.0039 -0.0095  0.0172
41887W        W84981  29.321   6.141   7.192 -0.0527  0.4260 -0.3599
41888W        W84982  32.908   4.064   4.034  0.1277  0.1492  0.0099
41889W        W84983  30.055   6.660   6.507 -0.0517  0.2877  0.0654
41890W        W84984  33.523   6.575   5.461 -0.2327 -0.1982 -0.1939
41891W        W84985  31.075   7.354   2.381 -0.1320  0.0406  0.1291
41892W        W84986  32.011   4.581   4.169  0.0888  0.1469  0.0394
41893W        W84987  31.570   4.327   5.341  0.1162 -0.1844 -0.1251
41894W        W84988  31.515   6.215   4.570 -0.3001 -0.1342 -0.2350
41895W        W84989  30.296   4.695   4.060 -0.0192  0.0899 -0.3105
41896W        W84990  33.447   7.002   6.649  0.2816 -0.0141  0.0457
41897W        W84991  31.255   5.163   4.081 -0.0615  0.0615 -0.3507
41898W        W84992  30.034   6.527   6.967  0.1154 -0.0212 -0.1605
41899W        W84993  30.623   4.496   5.771  0.2777 -0.3650 -0.0345
41900W        W84994  32.285   6.514   6.222 -0.3710 -0.1282 -0.0533
41901W        W84995  29.672   7.249   3.611 -0.1803 -0.2612  0.2050
41902W        W84996  28.705   6.012   6.423  0.0900  0.0875  0.0574
41903W        W84997  29.161   5.643   3.777 -0.2169  0.1887  0.0344
41904W        W84998  29.765   4.247   7.121  0.2401 -0.1958  0.0676
41905W        W84999  31.948   5.754   6.760 -0.0045 -0.2320  0.0353
41906W        W85000  31.354   5.731   4.701 -0.1375  0.0860 -0.0049
41907W        W85001  29.725   4.021   6.711  0.2468 -0.2965 -0.0895
41908W        W85002  32.450   4.311   4.152 -0.0888  0.0221  0.2432
41909W        W85003  28.462   6.457   3.817 -0.0088 -0.0222 -0.0370
41910W        W85004  32.172   7.873   5.150 -0.1856 -0.3481  0.1357
41911W        W85005  30.548   4.988   2.824 -0.0721  0.0159 -0.0277
41912W        W85006  33.040   6.672   3.617 -0.0803 -0.3452 -0.0665
41913W        W85007  29.678   5.442   5.496 -0.3571  0.2657  0.1191
41914W        W85008  28.557   5.478   5.518 -0.1508 -0.0911 -0.0431
41915W        W85009  30.346   3.485   6.585  0.0521 -0.0513  0.0371
41916W        W85010  29.941   4.597   4.892 -0.1033 -0.2672  0.0777
41917W        W85011  33.067   4.706   5.917 -0.1187 -0.0445 -0.2177
41918W        W85012  31.407   4.742   5.066 -0.2441  0.0145  0.3331
41919W        W85013  29.931   3.973   5.372 -0.3686 -0.0244  0.1538
41920W        W85014  30.550   6.882   5.143 -0.0122 -0.2118 -0.1797
41921W        W85015  28.486   5.807   5.132 -0.1690  0.2630  0.1693
41922W        W85016  33.155   3.957   7.052  0.1925  0.1690  0.0216
41923W        W85017  29.339   7.214   4.602 -0.2707 -0.1448  0.1102
41924W        W85018  33.595   8.098   7.590  0.2811  0.2261 -0.2217
41925W        W85019  32.683   6.292   5.169 -0.0989  0.1972 -0.0175
41926W        W85020  31.014   4.620   5.343  0.1120  0.1884 -0.1618
41927W        W85021  29.328   5.173   5.011 -0.1951 -0.4786 -0.2559
41928W        W85022  30.912   7.491   5.609  0.1187 -0.3685 -0.4066
41929W        W85023  30.686   6.428   5.315  0.0190  0.0926 -0.1448
41930W        W85024  30.742   4.883   3.905 -0.0613  0.0663 -0.3556
41931W        W85025  31.811   6.661   6.098 -0.0648  0.1467 -0.0612
41932W        W85026  30.672   5.963   4.988 -0.2558 -0.2474 -0.3509
41933W        W85027  28.578   6.275   5.994 -0.2114 -0.1434 -0.2971
41934W        W85028  32.440   4.885   4.840  0.2223  0.0905  0.0785
41935W        W85029  32.761   6.247   6.042 -0.1812 -0.2295  0.1937
41936W        W85030  31.461   5.953   5.752 -0.2285 -0.1367 -0.0296
41937W        W85031  29.123   4.005   3.308 -0.1078 -0.0150  0.0392
41938W        W85032  32.111   6.476   3.727  0.1128  0.2387 -0.1257
41939W        W85033  29.573   7.133   5.248 -0.2496  0.0128  0.1114
41940W        W85034  28.571   4.515   4.845 -0.1727  0.2431 -0.0863
41941W        W85035  29.579   7.568   5.006  0.1094 -0.1803  0.0539
41942W        W85036  32.083   5.434   5.088  0.3945 -0.1359  0.2492
41943W        W85037  30.077   5.096   5.486  0.0166  0.3433 -0.2190
41944W        W85038  32.858   5.033   4.579  0.1047  0.1005 -0.0486
41945W        W85039  29.727   5.580   3.994 -0.0117  0.0621  0.0019
41946W        W85040  29.717   5.784   6.550  0.0978  0.0505  0.0072
41947W        W85041  31.101   4.080   5.440 -0.0312  0.0992 -0.4090
41948W        W85042  32.091   4.400   2.829 -0.3696 -0.0285 -0.0718
41949W        W85043  32.623   5.416   7.277  0.0684 -0.3589 -0.3808
41950W        W85044  32.947   6.522   4.749 -0.0722  0.1197 -0.0992
41951W        W85045  30.428   4.365   3.740 -0.1854 -0.1194 -0.0380
41952W        W85046  30.480   3.180   5.518  0.1142  0.1487  0.0218
41953W        W85047  29.687   6.191   6.880  0.0031  0.1060 -0.2331
41954W        W85048  30.226   6.362   5.113 -0.0487 -0.0688 -0.0186
41955W        W85049  31.047   6.698   6.383  0.1847 -0.1990 -0.1150
41956W        W85050  30.959   4.908   3.179 -0.0736  0.2042  0.2731
41957W        W85051  33.195   6.245   5.347  0.0705 -0.0042 -0.1410
41958W        W85052  29.827   6.408   7.451 -0.1965 -0.0696  0.2259
41959W        W85053  33.126   4.797   7.825  0.2318  0.0701 -0.0258
41960W        W85054  32.520   6.836   5.800 -0.1181  0.2106 -0.0346
41961W        W85055  29.273   2.902   6.301 -0.1644 -0.1165  0.2431
41962W        W85056  31.945   7.168   4.398  0.1131 -0.0376  0.0025
41963W        W85057  30.242   4.185   5.890 -0.0359 -0.0406  0.0414
41964W        W85058  30.110   7.371   4.297 -0.2754  0.1766 -0.1533
41965W        W85059  32.436   4.877   4.332  0.0922 -0.1006 -0.0047
41966W        W85060  31.248   4.979   4.658 -0.0510 -0.3781  0.0064
41967W        W85061  31.150   4.432   5.823  0.1145  0.0533  0.3210
41968W        W85062  32.234   4.080   7.558 -0.1351 -0.1169  0.0835
41969W        W85063  32.184   5.251   4.617  0.0713 -0.0279  0.0489
41970W        W85064  32.427   5.646   5.372 -0.0747 -0.1258  0.0719
41971W        W85065  29.892   5.634   4.605 -0.3896  0.0711 -0.1806
41972W        W85066  29.814   3.894   5.914  0.0253 -0.2569 -0.3727
41973W        W85067  30.169   6.049   6.976  0.1825 -0.1203 -0.2571
41974W        W85068  28.822   7.387   6.482 -0.0264  0.1767 -0.2851
41975W        W85069  31.381   6.971   6.160 -0.0563 -0.0863  0.0268
41976W        W85070  31.092   5.743   5.137 -0.0032  0.0534  0.2168
41977W        W85071  32.401   3.790   6.184  0.2656  0.1085  0.0337
41978W        W85072  30.423   4.294   4.596  0.3432 -0.1206 -0.1057
41979W        W85073  29.069   7.682   3.673  0.0884  0.2466 -0.2746
41980W        W85074  28.807   7.842   2.465 -0.1016 -0.2373  0.2626
41981W        W85075  29.219   3.332   5.994 -0.1578  0.0685  0.0873
41982W        W85076  31.336   8.547   6.158  0.1775 -0.0600 -0.2250
41983W        W85077  28.972   6.127   3.857 -0.0719 -0.0131  0.0159
41984W        W85078  32.225   5.309   7.629 -0.1967 -0.0051  0.0076
41985W        W85079  29.688   6.893   6.201  0.1835 -0.0179  0.0745
41986W        W85080  31.636   3.633   5.350 -0.1151 -0.1453 -0.1314
41987W        W85081  29.531   7.910   6.500 -0.0556  0.3104  0.1049
41988W        W85082  30.699   4.905   4.881  0.0449  0.0473  0.2246
41989W        W85083  29.673   4.843   5.287  0.0280 -0.0279 -0.1972
41990W        W85084  31.860   4.857   4.627  0.2052  0.2667 -0.1438
41991W        W85085  32.447   6.550   3.412  0.1626  0.0994  0.0100
41992W        W85086  29.576   3.478   5.606  0.1776  0.1438 -0.2236
41993W        W85087  30.657   3.649   4.837  0.0411  0.2389  0.0348
41994W        W85088  29.954   7.959   7.887  0.0299 -0.4071  0.0596
41995W        W85089  30.831   5.494   6.003 -0.0341  0.0911  0.1166
41996W        W85090  31.850   4.967   5.163 -0.0930  0.1889 -0.0645
41997W        W85091  33.173   6.494   5.944  0.2572 -0.0629  0.1588
41998W        W85092  32.031   4.711   5.548 -0.1793  0.4616 -0.1103
41999W        W85093  29.386   4.747   4.306 -0.0443 -0.1144 -0.1676
42000W        W85094  32.440   5.027   7.084 -0.1030 -0.1962  0.2903
42001W        W85095  30.130   5.637   5.662  0.0446  0.2814 -0.0685
42002W        W85096  28.336   5.049   5.612 -0.1772 -0.0237  0.1612
42003W        W85097  30.450   5.782   6.003 -0.2778  0.0200 -0.2552
42004W        W85098  28.888   4.930   4.533  0.0694 -0.3021 -0.1003
42005W        W85099  28.169   6.779   5.073 -0.0087 -0.1050 -0.1254
42006W        W85100  30.739   5.860   7.602  0.0953 -0.0483 -0.1178
42007W        W85101  32.346   5.753   5.850  0.3494 -0.0418  0.1236
42008W        W85102  30.273   6.676   5.526 -0.2820  0.0467 -0.0893
42009W        W85103  30.273   4.017   4.959  0.2717  0.3409 -0.1548
42010W        W85104  32.053   6.583   5.638  0.2767  0.1488  0.6416
42011W        W85105  31.478   6.319   6.108  0.0948 -0.2446  0.1200
42012W        W85106  31.933   3.654   5.812  0.1434 -0.1926 -0.3650
42013W        W85107  30.469   6.488   6.768 -0.0926  0.2281 -0.1015
42014W        W85108  30.099   3.006   6.808 -0.0872 -0.0599 -0.1855
42015W        W85109  33.054   7.168   5.269 -0.1291  0.2398  0.2064
42016W        W85110  31.582   5.957   6.431 -0.0428  0.0756 -0.1397
42017W        W85111  29.378   5.768   4.802 -0.2333 -0.1080  0.1716
42018W        W85112  29.545   6.054   5.631  0.0080  0.0835  0.0957
42019W        W85113  28.856   6.565   4.835  0.1385  0.1239  0.3389
42020W        W85114  30.503   4.173   5.414 -0.0360 -0.4417  0.3374
42021W        W85115  29.934   7.004   5.751 -0.0694  0.2174 -0.3193
42022W        W85116  29.227   6.303   4.608 -0.1452  0.0184  0.0510
42023W        W85117  29.553   6.576   6.572 -0.2432  0.0121  0.0174
42024W        W85118  31.659   5.217   3.233  0.0356 -0.2211 -0.1861
42025W        W85119  31.170   6.619   4.357 -0.1063 -0.1614 -0.0935
42026W        W85120  31.895   5.638   6.131 -0.0053 -0.3834 -0.2678
42027W        W85121  32.112   4.218   5.379  0.0616 -0.2098 -0.1546
42028W        W85122  31.399   6.796   3.712  0.2970 -0.1506  0.3533
42029W        W85123  31.943   3.586   6.298 -0.1925  0.2560 -0.0033
42030W        W85124  30.264   2.487   5.881 -0.2732 -0.0597  0.0783
42031W        W85125  31.893   5.688   4.636  0.0238 -0.0766 -0.2850
42032W        W85126  30.451   4.576   6.281 -0.3213  0.0988  0.0422
42033W        W85127  32.116   7.838   7.730  0.1758  0.3676  0.2779
42034W        W85128  30.561   5.980   6.694  0.0177 -0.2865  0.1853
42035W        W85129  30.608   5.182   4.350 -0.1493 -0.0242 -0.0139
42036W        W85130  31.306   3.655   4.808 -0.0432  0.2571  0.1270
42037W        W85131  32.373   5.442   6.790  0.0305  0.0444  0.0680
42038W        W85132  32.602   5.340   4.954  0.0171  0.0742  0.0677
42039W        W85133  31.856   6.894   3.900 -0.0337 -0.0062 -0.3432
42040W        W85134  30.991   5.413   4.728 -0.1302 -0.2650 -0.2334
42041W        W85135  29.465   5.724   6.093  0.0909 -0.3932  0.1406
42042W        W85136  30.604   5.816   4.465 -0.0587 -0.0063 -0.0120
42043W        W85137  30.472   4.856   3.338 -0.1819 -0.0510  0.2234
42044W        W85138  29.689   6.389   5.232 -0.3599 -0.2276 -0.0869
42045W        W85139  30.147   4.731   5.890 -0.1182  0.0607 -0.1598
42046W        W85140  33.114   5.373   5.064  0.0788  0.0565 -0.1183
42047W        W85141  30.221   3.618   5.705  0.0787  0.3357  0.0023
42048W        W85142  33.195   5.036   5.519 -0.1424 -0.2294 -0.0934
42049W        W85143  32.849   6.193   6.506  0.1780 -0.2434 -0.2371
42050W        W85144  32.033   5.045   6.156 -0.5427 -0.1861  0.0804
42051W        W85145  30.525   5.303   5.680  0.1684  0.1540  0.0392
42052W        W85146  32.556   8.276   6.864  0.4175 -0.1962 -0.0137
42053W        W85147  31.831   3.707   2.819  0.0081  0.0467  0.2400
42054W        W85148  33.626   3.480   6.258  0.1277 -0.0075 -0.0225
42055W        W85149  32.821   4.554   4.543 -0.0117 -0.0853  0.1294
42056W        W85150  31.098   5.616   3.696  0.1230 -0.1978 -0.0264
42057W        W85151  29.254   4.369   5.835 -0.1644 -0.3838  0.1275
42058W        W85152  32.557   4.812   6.148 -0.0717 -0.0599 -0.1595
42059W        W85153  30.207   4.451   3.206 -0.0459 -0.1274  0.1070
42060W        W85154  32.671   3.241   6.239  0.4011  0.0508  0.1383
42061W        W85155  31.241   7.981   3.620 -0.0451 -0.0704  0.1150
42062W        W85156  31.732   6.337   5.035 -0.0548  0.2012  0.0904
42063W        W85157  31.655   4.248   4.115  0.3269  0.1470  0.2405
42064W        W85158  29.440   4.069   4.737  0.1766  0.0240 -0.2030
42065W        W85159  29.953   7.496   5.827 -0.3076  0.2305  0.1481
42066W        W85160  29.347   5.130   3.943  0.2081 -0.3488  0.0088
42067W        W85161  31.490   5.595   2.855  0.0441 -0.3803 -0.1887
42068W        W85162  32.832   5.516   6.586 -0.0713 -0.0577 -0.0980
42069W        W85163  32.455   5.772   7.577 -0.0916 -0.1137 -0.1536
42070W        W85164  31.041   3.314   5.174  0.0357  0.2674 -0.0265
42071W        W85165  32.460   4.532   7.181  0.2158 -0.0444  0.0723
42072W        W85166  29.326   7.589   4.180 -0.3548  0.1348  0.0564
42073W        W85167  30.384   3.751   3.887  0.3566 -0.4369 -0.2757
42074W        W85168  29.988   8.039   6.676  0.1223  0.0232 -0.0650
42075W        W85169  29.814   5.347   6.284  0.0474  0.1118  0.1054
42076W        W85170  31.315   7.770   5.452 -0.0287 -0.1887  0.0215
42077W        W85171  30.929   3.037   5.709  0.1245  0.2470 -0.2319
42078W        W85172  32.485   5.200   5.815 -0.4109 -0.2026 -0.0627
42079W        W85173  31.184   6.636   5.277 -0.1014 -0.0512  0.3324
42080W        W85174  32.030   6.120   6.000  0.1623 -0.0549 -0.3266
42081W        W85175  32.417   5.989   6.357  0.1994 -0.1200 -0.2184
42082W        W85176  31.079   6.140   5.497 -0.2102 -0.0364 -0.1507
42083W        W85177  32.917   6.719   7.402 -0.5585  0.2883 -0.1532
42084W        W85178  32.152   6.048   3.977 -0.2190  0.1184 -0.1666
42085W        W85179  28.932   7.038   4.850  0.3047 -0.1953 -0.1950
42086W        W85180  30.751   4.971   6.069 -0.0647 -0.0512 -0.3215
42087W        W85181  32.464   5.342   6.306 -0.1019  0.3014  0.1516
42088W        W85182  32.426   4.516   5.175 -0.2873 -0.0734 -0.2879
42089W        W85183  31.178   4.131   4.193  0.1517 -0.0102  0.0642
42090W        W85184  30.820   6.282   3.364  0.3618 -0.1279  0.1525
42091W        W85185  29.854   6.688   7.864  0.2406 -0.2759  0.1046
42092W        W85186  30.573   4.876   5.446  0.0608 -0.4283  0.0899
42093W        W85187  30.444   7.685   4.477  0.0475  0.2140  0.1357
42094W        W85188  32.465   6.325   4.261  0.1496 -0.1542  0.2272
42095W        W85189  30.650   5.829   3.591 -0.0867  0.0442  0.0565
42096W        W85190  30.523   6.790   5.989  0.2102  0.1569 -0.1709
42097W        W85191  31.091   4.449   3.784  0.3080 -0.2442  0.1243
42098W        W85192  29.092   7.116   5.390  0.0804  0.4685 -0.1389
42099W        W85193  28.745   6.671   3.417  0.3401 -0.3951 -0.3192
42100W        W85194  32.692   7.696   4.701  0.1760  0.1625 -0.1477
42101W        W85195  29.203   6.034   5.232 -0.2257 -0.0363  0.1974
42102W        W85196  33.201   5.167   6.610  0.0490  0.2122 -0.3383
42103W        W85197  31.438   4.128   3.650 -0.1477  0.0471 -0.1721
42104W        W85198  32.397   5.260   3.905 -0.1278 -0.2410 -0.2718
42105W        W85199  30.675   4.219   4.151 -0.0482  0.2436  0.0888
42106W        W85200  30.963   6.733   7.386 -0.1353 -0.0029  0.0690
42107W        W85201  28.247   4.708   5.209  0.0809 -0.0061  0.0095
42108W        W85202  29.874   3.072   3.353 -0.1832  0.5536  0.0338
42109W        W85203  30.109   6.463   6.036  0.3144 -0.2165  0.1336
42110W        W85204  32.046   4.104   6.009 -0.0316  0.0826 -0.0465
42111W        W85205  29.120   7.273   7.998  0.0942 -0.2097  0.0974
42112W        W85206  32.693   8.352   4.396  0.0445  0.4245  0.0752
42113W        W85207  30.259   4.803   4.559  0.0205 -0.1397  0.4309
42114W        W85208  29.992   7.442   5.343  0.3016 -0.0479  0.0543
42115W        W85209  33.810   3.614   5.765  0.1448  0.3134 -0.2325
42116W        W85210  30.690   6.777   4.346  0.2638 -0.1283  0.1560
42117W        W85211  31.156   5.582   5.634 -0.0171 -0.2910  0.0545
42118W        W85212  30.289   9.007   4.826  0.0559  0.2173  0.0948
42119W        W85213  30.594   6.882   6.461 -0.0250  0.5046 -0.1346
42120W        W85214  30.953   7.113   4.990 -0.0090  0.1618 -0.2836
42121W        W85215  29.792   5.025   4.644  0.2485  0.2903 -0.1001
42122W        W85216  32.800   3.357   5.166 -0.2434  0.0124 -0.0133
42123W        W85217  30.682   3.844   6.781 -0.1345 -0.1136  0.1289
42124W        W85218  32.784   3.523   5.796 -0.2377  0.2926  0.2292
42125W        W85219  28.850   5.999   4.876  0.0824  0.2881 -0.1848
42126W        W85220  31.652   5.403   3.873  0.1815 -0.2399 -0.0318
42127W        W85221  32.956   5.201   6.179  0.2024  0.3694  0.1393
42128W        W85222  29.769   4.367   5.737  0.2404 -0.1754  0.3374
42129W        W85223  30.737   5.269   3.615  0.0307 -0.1053 -0.1145
42130W        W85224  32.568   5.847   7.049 -0.0136 -0.0389 -0.1721
42131W        W85225  30.955   3.788   4.457 -0.0751  0.1451 -0.2890
42132W        W85226  33.219   8.006   6.219 -0.0941  0.3538  0.3694
42133W        W85227  29.070   3.939   4.444  0.3136  0.0533 -0.2783
42134W        W85228  31.535   4.468   4.670 -0.0358 -0.0563 -0.1446
42135W        W85229  27.759   5.739   5.833 -0.2013  0.0314 -0.5167
42136W        W85230  30.689   5.793   5.519  0.1898  0.0883 -0.1096
42137W        W85231  31.662   5.245   7.462 -0.2481  0.0753 -0.0079
42138W        W85232  29.854   4.554   4.338  0.0143 -0.0362  0.0214
42139W        W85233  33.068   6.106   3.594 -0.2821  0.3648  0.0640
42140W        W85234  32.741   4.801   5.590 -0.0430  0.1832 -0.2381
42141W        W85235  30.019   7.284   4.812  0.2456 -0.0073 -0.0044
42142W        W85236  31.204   4.964   3.604  0.2532 -0.1765  0.1812
42143W        W85237  31.900   7.319   5.797 -0.0941  0.1749  0.0793
42144W        W85238  29.603   3.008   6.610  0.0327  0.0997  0.1354
42145W        W85239  33.196   5.767   6.358 -0.0032  0.4093 -0.1195
42146W        W85240  33.422   5.793   4.960 -0.1903 -0.2675  0.1090
42147W        W85241  31.483   5.350   4.951 -0.0896 -0.0015 -0.2549
42148W        W85242  29.714   5.870   5.173  0.0142  0.0820  0.1037
42149W        W85243  29.831   7.644   4.018 -0.2156 -0.0230  0.1517
42150W        W85244  32.411   3.582   4.816 -0.3035  0.3278  0.1152
42151W        W85245  32.357   4.121   4.945 -0.1776 -0.0806 -0.3711
42152W        W85246  30.716   6.313   2.859 -0.1026 -0.1628  0.1333
42153W        W85247  32.838   2.655   6.420  0.1616 -0.1816 -0.2811
42154W        W85248  30.737   7.784   7.041 -0.0646 -0.3173  0.1013
42155W        W85249  29.752   7.068   6.723 -0.1674  0.2882 -0.1534
42156W        W85250  30.043   6.545   4.673  0.2922  0.2852 -0.1243
42157W        W85251  30.443   4.952   6.603  0.0212  0.1545 -0.1216
42158W        W85252  31.887   6.607   4.676  0.3493 -0.0523  0.2550
42159W        W85253  30.481   7.214   4.638 -0.1775 -0.3793  0.0251
42160W        W85254  32.129   7.664   7.143  0.0266 -0.0049 -0.2102
42161W        W85255  30.202   5.535   4.170 -0.0653 -0.2940 -0.1981
42162W        W85256  29.950   5.983   6.007 -0.1084  0.2184 -0.0278
42163W        W85257  32.044   4.026   4.361 -0.1634  0.0320 -0.0440
42164W        W85258  31.452   3.456   6.232 -0.2832  0.2994  0.0765
42165W        W85259  32.458   4.483   6.612 -0.0944 -0.1794  0.1340
42166W        W85260  29.550   5.377   4.393 -0.1961  0.0396 -0.2031
42167W        W85261  27.964   6.434   4.059 -0.1557 -0.1223  0.2499
42168W        W85262  30.547   6.262   6.311 -0.2330 -0.2129 -0.1824
42169W        W85263  30.524   3.138   7.101 -0.0770 -0.0030  0.2196
42170W        W85264  29.999   4.819   6.377 -0.2637 -0.3412  0.1621
42171W        W85265  29.633   4.854   5.830  0.0995  0.0018 -0.0144
42172W        W85266  32.675   6.836   5.154  0.4372 -0.0443 -0.1375
42173W        W85267  30.435   4.531   5.021  0.1953  0.0924  0.0436
42174W        W85268  30.808   4.424   3.383  0.0463  0.3782  0.0830
42175W        W85269  32.108   6.179   4.621  0.3045  0.1771  0.1556
42176W        W85270  31.609   7.126   6.715 -0.2464  0.1741 -0.0315
42177W        W85271  28.949   5.605   5.193  0.1208 -0.0419  0.1778
42178W        W85272  32.992   7.101   7.062 -0.0676 -0.0929  0.2728
42179W        W85273  28.733   6.360   4.305  0.0067  0.1834 -0.0338
42180W        W85274  32.849   5.385   5.482  0.0006 -0.0931 -0.0267
42181W        W85275  31.272   3.972   6.675  0.1334  0.1048 -0.1199
42182W        W85276  29.996   4.784   3.530 -0.0323 -0.0160 -0.0895
42183W        W85277  31.070   4.530   4.777 -0.2678  0.0640  0.1114
42184W        W85278  31.752   5.828   4.175  0.2310 -0.1432  0.0307
42185W        W85279  32.623   6.589   3.856 -0.0029  0.1600  0.3627
42186W        W85280  32.901   7.176   5.890 -0.1734 -0.0368  0.2571
42187W        W85281  31.213   7.567   6.835  0.4369  0.0661  0.2857
42188W        W85282  29.351   5.253   5.964  0.1160 -0.3417 -0.3985
42189W        W85283  31.443   6.216   4.059  0.0339  0.1338  0.0169
42190W        W85284  30.289   6.530   7.670  0.0487  0.0914 -0.1900
42191W        W85285  32.361   6.996   3.698  0.1315 -0.1488 -0.0864
42192W        W85286  33.599   3.789   5.379  0.0867 -0.1522 -0.1407
42193W        W85287  30.971   6.015   6.043 -0.2687 -0.0426  0.3921
42194W        W85288  28.866   3.601   7.222 -0.0675 -0.0571  0.0781
42195W        W85289  30.023   5.525   7.351 -0.0575  0.0080  0.0808
42196W        W85290  34.047   6.753   4.993 -0.1549  0.1232  0.1529
42197W        W85291  29.461   3.973   5.591  0.1041 -0.0700  0.1248
42198W        W85292  31.210   4.647   4.255 -0.0915  0.0171 -0.2583
42199W        W85293  31.262   6.106   3.611 -0.0041  0.1040  0.1583
42200W        W85294  30.212   5.665   5.195  0.5008 -0.2653  0.0752
42201W        W85295  31.253   6.219   4.990  0.0217 -0.0475  0.1474
42202W        W85296  31.963   5.160   5.691  0.2313 -0.0732  0.2022
42203W        W85297  31.867   5.650   5.591  0.2214  0.0749  0.4056
42204W        W85298  32.816   5.682   6.023 -0.1956 -0.2160  0.1841
42205W        W85299  29.677   6.170   4.717  0.1814 -0.0841 -0.1460
42206W        W85300  32.608   6.112   3.737 -0.2069  0.4168  0.1347
42207W        W85301  32.042   6.789   6.722  0.1460 -0.0070  0.1757
42208W        W85302  33.008   8.583   6.126 -0.0480 -0.0489  0.0090
42209W        W85303  32.100   6.649   7.350 -0.2770 -0.3464 -0.0237
42210W        W85304  32.142   5.928   5.074 -0.1205  0.0567  0.1652
42211W        W85305  30.285   2.130   6.276 -0.0112  0.0317  0.1274
42212W        W85306  30.045   6.929   5.160  0.0009  0.4701 -0.1414
42213W        W85307  30.965   6.156   4.553  0.0133 -0.0716  0.0287
42214W        W85308  32.397   3.921   5.696 -0.0197 -0.0867 -0.1203
42215W        W85309  30.102   4.296   6.474 -0.1123 -0.1660  0.0660
42216W        W85310  31.291   5.623   4.247 -0.1092  0.0545  0.2606
42217W        W85311  30.459   7.176   5.611  0.2520  0.1945 -0.0999
42218W        W85312  31.620   6.904   5.712 -0.1193  0.2582  0.1842
42219W        W85313  31.552   4.934   9.530  0.2683  0.2741 -0.1801
42220W        W85314  30.637   4.784   8.260  0.2630  0.1176 -0.0676
42221W        W85315  31.803   4.043   4.902  0.0968  0.1962  0.0484
42222W        W85316  33.619   5.186   7.014  0.1038  0.2287  0.0908
42223W        W85317  29.654   4.394   8.942 -0.0306 -0.1671  0.0580
42224W        W85318  31.766   7.276   6.251 -0.3248 -0.2062 -0.0333
42225W        W85319  31.156   6.259   9.106  0.1985 -0.1174 -0.1792
42226W        W85320  32.293   6.343   9.648 -0.2464  0.1126  0.0308
42227W        W85321  31.116   5.046   5.716 -0.3180  0.1896  0.0987
42228W        W85322  30.044   6.696   8.634 -0.1349 -0.0598  0.2972
42229W        W85323  30.535   4.341   7.217  0.1074 -0.0156  0.1010
42230W        W85324  29.366   4.209   8.485 -0.2035 -0.0759  0.0847
42231W        W85325  31.291   6.154  10.112  0.1707  0.0094 -0.0547
42232W        W85326  29.104   5.910   7.616 -0.1135 -0.3420  0.0536
42233W        W85327  32.256   4.669   9.484  0.1187  0.2152 -0.1204
42234W        W85328  31.137   3.898   8.106  0.1487 -0.1812  0.0039
42235W        W85329  31.060   7.075   8.103  0.0155  0.1376 -0.1204
42236W        W85330  31.117   6.164   9.616  0.2473  0.0035 -0.3353
42237W        W85331  31.520   5.850   8.088 -0.2681 -0.0088 -0.2579
42238W        W85332  29.034   4.893   7.618 -0.1289  0.1346  0.1135
42239W        W85333  28.252   5.970   9.908  0.1582  0.2006  0.0451
42240W        W85334  29.750   6.029  10.400  0.0902  0.1448 -0.1362
42241W        W85335  31.012  34.056   9.811 -0.0138  0.0376  0.2865
42242W        W85336  32.124   3.631   9.535 -0.0454  0.0227  0.3324
42243W        W85337  31.606   5.904   9.089 -0.1240 -0.2966  0.0907
42244W        W85338  30.518   6.240   9.381 -0.1616 -0.1909  0.1111
42245W        W85339  28.988   4.785   8.368 -0.1790 -0.0091 -0.0242
42246W        W85340  29.342   6.859   9.053 -0.0499  0.1776  0.0337
42247W        W85341  30.799   6.465   8.139  0.4540  0.0855 -0.0836
42248W        W85342  34.096   6.803   7.572  0.0367 -0.0048 -0.1667
42249W        W85343  29.608   7.111   7.974  0.2172 -0.1020  0.1248
42250W        W85344  31.793   5.603   9.869  0.3726 -0.1996 -0.2662
42251W        W85345  32.220   4.747   8.340 -0.0761 -0.0483  0.2484
42252W        W85346  31.332   7.205   7.162 -0.1481 -0.3147 -0.2026
42253W        W85347  32.138   5.325   8.351 -0.0594 -0.2543  0.1463
42254W        W85348  27.827   4.611  10.087  0.0292  0.2815 -0.1492
42255W        W85349  30.855   6.361   7.675  0.1283  0.0009 -0.0937
42256W        W85350  32.803   3.900   7.730 -0.0862 -0.1307 -0.4466
42257W        W85351  31.715   4.431   5.870 -0.2967  0.0952  0.2852
42258W        W85352  31.885   4.368   9.101  0.1418  0.2683 -0.2697
42259W        W85353  30.702   3.516   8.290 -0.3283  0.0309  0.0366
42260W        W85354  31.148   5.960   8.557 -0.2649  0.0158 -0.2672
42261W        W85355  30.222   5.318   9.624  0.1914 -0.1202 -0.1355
42262W        W85356  31.136   5.550   8.298  0.0350  0.1468  0.4754
42263W        W85357  31.400   4.543   9.241 -0.0315  0.1438 -0.1510
42264W        W85358  30.454   5.917   8.977 -0.1299 -0.1142  0.1315
42265W        W85359  30.122   5.758   9.342 -0.1451  0.3195 -0.2324
42266W        W85360  31.244   6.666   6.968  0.0046 -0.0341 -0.2249
42267W        W85361  32.453   5.718   8.550  0.2044 -0.4510  0.0191
42268W        W85362  30.024   5.101   7.747  0.4245 -0.0015  0.1707
42269W        W85363  29.704   3.749   7.268 -0.0514  0.1432  0.0363
42270W        W85364  32.407   4.143   8.964 -0.0747 -0.0606  0.0687
42271W        W85365  30.470   6.060   8.007 -0.2667  0.0451  0.1307
42272W        W85366  32.445   6.731  10.289 -0.1133 -0.1854  0.0902
42273W        W85367  31.407   7.188   5.320  0.1855 -0.0941 -0.0438
42274W        W85368  32.063   3.839   8.448 -0.3966  0.2264  0.0166
42275W        W85369  33.133   3.891   9.148 -0.0119 -0.1299 -0.3365
42276W        W85370  30.192   5.962   7.534 -0.3626 -0.3669 -0.0257
42277W        W85371  31.695   5.374   6.551 -0.0136 -0.1385 -0.2863
42278W        W85372  32.475   6.326   8.638  0.1766  0.1261 -0.0136
42279W        W85373  32.917   4.989   7.110 -0.0292  0.0215  0.1831
42280W        W85374  30.261   6.198   9.821  0.0128 -0.0693  0.0595
42281W        W85375  30.442   6.859   7.339 -0.3377  0.0271  0.2000
42282W        W85376  27.969   5.052   9.842  0.0100  0.1898  0.1253
42283W        W85377  29.517   5.406   8.889  0.2504  0.0039  0.2855
42284W        W85378  29.888   3.529   9.515 -0.2231  0.1963 -0.3149
42285W        W85379  30.450   6.897   9.134  0.3455 -0.0553 -0.1148
42286W        W85380  32.374   3.439   8.502  0.0451 -0.1860 -0.0484
42287W        W85381  32.707   4.620   8.158  0.1587  0.2361 -0.3042
42288W        W85382  29.185   5.637   7.154  0.1129  0.2053 -0.1199
42289W        W85383  31.469   6.492   9.484  0.2195  0.0935 -0.4471
42290W        W85384  32.213   4.657   7.801 -0.0716 -0.1897  0.1118
42291W        W85385  31.228   7.473   6.270 -0.3442 -0.1936  0.0596
42292W        W85386  27.932   5.011   9.311  0.0007  0.3971 -0.0555
42293W        W85387  30.476   5.652   7.060 -0.3371 -0.0815 -0.0177
42294W        W85388  31.436   4.317   8.247  0.1706  0.0980  0.4138
42295W        W85389  28.579   3.296   9.210  0.0176 -0.0409  0.1541
42296W        W85390  30.181   4.917   9.902  0.1943 -0.2193 -0.1149
42297W        W85391  30.717   4.811   7.347 -0.0264 -0.0411 -0.0105
42298W        W85392  28.643   4.345   9.006  0.0021  0.1567  0.0388
42299W        W85393  31.999   6.240   6.505 -0.0719 -0.1671  0.1436
42300W        W85394  31.895   7.507  10.400 -0.1179 -0.1828  0.0991
42301W        W85395  32.209   6.511   7.825 -0.1362 -0.2048  0.1504
42302W        W85396  30.554   3.050  12.171 -0.2414 -0.2147  0.1434
42303W        W85397  31.039   5.975   8.034  0.1288  0.2788 -0.1237
42304W        W85398  31.354   6.316   8.215  0.2273 -0.0182 -0.1716
42305W        W85399  29.754   6.004   7.832  0.1508 -0.1850 -0.4276
42306W        W85400  31.164   4.681   6.350  0.3407  0.1883 -0.1639
42307W        W85401  33.468   6.909   8.481 -0.1804 -0.2233  0.0061
42308W        W85402  32.471   5.017   8.004  0.5444  0.0310  0.3640
42309W        W85403  29.907   4.177   9.812 -0.2865 -0.0508 -0.0181
42310W        W85404  31.219   5.460   9.363 -0.1118  0.0060 -0.2956
42311W        W85405  29.130   3.964   8.104 -0.1636 -0.3990 -0.0166
42312W        W85406  32.465   6.860   7.573 -0.1986 -0.1937 -0.1975
42313W        W85407  30.845   7.295   7.174  0.1397  0.3009 -0.3449
42314W        W85408  29.827   5.533   7.955 -0.2994 -0.0453 -0.0040
42315W        W85409  31.707   6.565   7.844 -0.0611  0.3273  0.3200
42316W        W85410  32.638   4.490   9.296  0.1387 -0.0334  0.4652
42317W        W85411  29.685   4.679   7.633  0.0367 -0.1350 -0.2681
42318W        W85412  31.955   3.257   8.201  0.0484 -0.3253 -0.1714
42319W        W85413  32.158   3.707   7.975 -0.3469 -0.0465  0.2820
42320W        W85414  32.965   7.217   7.651 -0.0903  0.1705 -0.0456
42321W        W85415  31.609   4.246   7.063  0.0401 -0.2829 -0.1133
42322W        W85416  32.638   4.285   6.164  0.1578 -0.1765  0.1675
42323W        W85417  32.680   5.343   8.319 -0.1056 -0.0256 -0.0890
42324W        W85418  32.043   6.382  10.700  0.0254 -0.1273 -0.2796
42325W        W85419  30.999   4.381   7.936  0.1821 -0.0710 -0.0723
42326W        W85420  31.715   6.456   7.102 -0.0072  0.2749 -0.2141
42327W        W85421  28.704   7.052   8.951 -0.3057 -0.0450  0.2015
42328W        W85422  32.081   6.070   8.875  0.2231 -0.0903  0.0125
42329W        W85423  29.646   3.438   8.620 -0.2230 -0.0440 -0.2166
42330W        W85424  32.236   4.985   6.622 -0.0503 -0.1558  0.0814
42331W        W85425  30.914   4.155  10.003  0.0836  0.2004 -0.0052
42332W        W85426  29.611   8.267   8.345  0.0138 -0.1960  0.0681
42333W        W85427  32.951   4.262   8.911 -0.2357 -0.0435 -0.0415
42334W        W85428  30.043   4.871   9.113 -0.0960  0.0579 -0.0996
42335W        W85429  31.386   5.023   8.531  0.0644 -0.2867 -0.1317
42336W        W85430  31.721   4.402   9.598  0.0436 -0.2375  0.1894
42337W        W85431  29.398   5.274   6.713  0.1141  0.3174 -0.3390
42338W        W85432  29.527   3.867   9.718 -0.1654  0.2925  0.0205
42339W        W85433  28.930   5.997   9.310 -0.1880 -0.0689  0.0359
42340W        W85434  31.947   5.031   7.874  0.1782  0.3126 -0.1104
42341W        W85435  30.887   4.710   6.820  0.1997 -0.3077  0.2121
42342W        W85436  29.296   5.556   7.996  0.0669  0.1302  0.0533
42343W        W85437  30.073   6.147   6.487 -0.2565 -0.2336 -0.1478
42344W        W85438  29.922   3.340   8.086  0.2390 -0.0003 -0.0159
42345W        W85439  30.855   7.544   9.703  0.0465  0.1274 -0.0594
42346W        W85440  31.619   6.623   6.565 -0.0768  0.0739 -0.1427
42347W        W85441  29.880   7.094   9.487 -0.2501  0.0167  0.0354
42348W        W85442  29.333   6.151   8.642  0.0129  0.1071 -0.2081
42349W        W85443  31.657   3.731   8.048 -0.0173  0.3579  0.1326
42350W        W85444  29.391   5.579   9.609 -0.1039 -0.0061  0.0075
42351W        W85445  31.338   5.174   6.916 -0.0867 -0.1876 -0.1920
42352W        W85446  29.750   5.085   7.142  0.2577 -0.0883 -0.4112
42353W        W85447  31.933   4.391   8.542  0.1060 -0.3558 -0.1094
42354W        W85448  32.347   5.669   8.057  0.0356  0.2925 -0.0414
42355W        W85449  30.529   4.525   9.121 -0.1456 -0.4595 -0.3388
42356W        W85450  31.283   3.495   8.355 -0.0386 -0.1188  0.0535
42357W        W85451  30.283   5.699  10.000  0.0462 -0.1687 -0.1976
42358W        W85452  32.431   3.740   7.172 -0.0990 -0.1280 -0.0811
42359W        W85453  31.022   4.953   7.718  0.1629  0.2385  0.2667
42360W        W85454  33.614   1.495   9.744  0.1524  0.1064  0.0707
42361W        W85455  30.388   5.006   8.712 -0.1327 -0.1303  0.1720
42362W        W85456  30.012   5.661   8.865  0.0000  0.0781 -0.1086
42363W        W85457  30.158   6.391   9.054  0.0143  0.2255 -0.2728
42364W        W85458  29.574   5.758   7.449  0.3450  0.1105 -0.4705
42365W        W85459  30.966   5.713   6.992  0.0194 -0.3622 -0.1234
42366W        W85460  33.274   5.734   9.302  0.1215 -0.2315 -0.0763
42367W        W85461  31.451   4.604   8.739 -0.2351  0.1572 -0.1860
42368W        W85462  29.114   4.563   8.813  0.2383  0.0271  0.3210
42369W        W85463  30.523   3.992   9.291 -0.0540 -0.0014 -0.1733
42370W        W85464  30.170   4.427   9.409 -0.0405  0.2309  0.2286
42371W        W85465  30.797   4.678  10.328 -0.0683 -0.0201 -0.1904
42372W        W85466  29.753   4.688  10.079 -0.1262  0.0269  0.0889
42373W        W85467  33.296   7.404   7.366 -0.0122 -0.2151 -0.0886
42374W        W85468  28.917   6.277   8.342  0.0685 -0.0563  0.1981
42375W        W85469  28.620   4.829   8.895  0.1850  0.1248 -0.2341
42376W        W85470  30.750   6.856   6.923 -0.0367 -0.0586  0.1995
42377W        W85471  30.915   5.759   9.053  0.3792 -0.1637  0.1728
42378W        W85472  30.255   5.306   9.137 -0.0685 -0.2091  0.1998
42379W        W85473  29.691   5.703   8.471  0.0765  0.1133 -0.0805
42380W        W85474  30.398   7.111  10.499 -0.1674 -0.0825  0.2394
42381W        W85475  31.843   3.411   7.704  0.0355 -0.0889 -0.0279
42382W        W85476  32.069   5.709   7.305 -0.0462 -0.2846 -0.0666
42383W        W85477  31.596   3.918   8.504  0.1574 -0.0640  0.1128
42384W        W85478  31.640   4.717   6.343 -0.4327  0.0375 -0.1051
42385W        W85479  28.363   4.738   9.289 -0.0987  0.0940 -0.3355
42386W        W85480  32.505   6.172   8.097 -0.1190 -0.1329  0.0087
42387W        W85481  31.414   4.077   7.718 -0.2519 -0.0856  0.1414
42388W        W85482  30.390   4.347   8.349 -0.2837 -0.1727  0.2801
42389W        W85483  31.010   5.436  10.218  0.1520 -0.0039 -0.3432
42390W        W85484  32.727   6.712   9.729  0.1271 -0.1723 -0.1473
42391W        W85485  31.069   6.266   7.203 -0.2600  0.0174  0.2522
42392W        W85486  32.154   4.856   9.933  0.1451  0.1998  0.2362
42393W        W85487  29.930   5.266   8.609  0.1289 -0.1320  0.3540
42394W        W85488  31.795   3.817   7.464 -0.2955 -0.1561 -0.1796
42395W        W85489  29.977   4.770   8.620 -0.0362 -0.0029  0.1441
42396W        W85490  30.599   5.326   7.481  0.1657  0.0816  0.1032
42397W        W85491  32.469   5.124   8.655  0.1420 -0.1535  0.0586
42398W        W85492  32.193   2.988   9.215 -0.0444 -0.2055 -0.0488
42399W        W85493  32.490   6.134   9.233  0.0510 -0.0039  0.1773
42400W        W85494  32.755   4.156   7.282  0.0184  0.2324 -0.1152
42401W        W85495  32.163   2.954   9.737  0.1991  0.0760  0.5210
42402W        W85496  31.894   5.013   8.575 -0.1011  0.0748 -0.0183
42403W        W85497  31.931   4.603   6.794 -0.2030 -0.0736 -0.0266
42404W        W85498  28.856   5.199   8.747 -0.1257 -0.3152 -0.3581
42405W        W85499  30.486   3.925   6.237  0.1861  0.1220 -0.1432
42406W        W85500  30.687   6.910   7.783 -0.1945 -0.0640  0.3110
42407W        W85501  31.978   5.541   8.807 -0.1179 -0.3758  0.1948
42408W        W85502  30.731   5.439   8.076  0.1564  0.1296  0.0476
42409W        W85503  28.512   3.601  10.257  0.0189  0.0679  0.0159
42410W        W85504  30.692   5.437   6.534 -0.1511  0.2442  0.0253
42411W        W85505  30.739   5.172   6.974  0.1525 -0.2501 -0.0587
42412W        W85506  30.666   5.720   9.502 -0.3320 -0.1570  0.1149
42413W        W85507  30.935   4.665   8.719 -0.1947 -0.3155  0.1272
42414W        W85508  29.038   6.750   7.965  0.3786 -0.1134  0.0197
42415W        W85509  29.311   2.518  10.190 -0.0512 -0.0271  0.1780
42416W        W85510  29.909   6.163   9.454  0.1235  0.1418 -0.3530
42417W        W85511  30.675   5.825   8.431 -0.2143 -0.3683 -0.1417
42418W        W85512  29.772   5.173   9.850 -0.1652 -0.3045  0.0970
42419W        W85513  31.157   5.101   9.821 -0.1038 -0.0854  0.0688
42420W        W85514  31.638   5.409   8.380  0.0223 -0.3543  0.0638
42421W        W85515  30.164   5.793   8.364 -0.3364 -0.1060  0.2775
42422W        W85516  33.804   6.248   8.815  0.1524  0.0529  0.0092
42423W        W85517  29.931   6.270   8.216 -0.1362 -0.0294 -0.3763
42424W        W85518  31.760   4.594  10.099 -0.1749 -0.2640 -0.1009
42425W        W85519  30.050   3.515   8.943  0.2176 -0.2450 -0.0291
42426W        W85520  31.824   6.207   7.519 -0.0222  0.3528  0.0337
42427W        W85521  28.666   2.756  10.264 -0.2895 -0.1869  0.0244
42428W        W85522  30.395   7.921   8.230 -0.0492  0.0614  0.0153
42429W        W85523  31.330   6.167   7.652 -0.1523  0.1013  0.1007
42430W        W85524  31.941   5.816   8.388  0.0934 -0.0055 -0.1644
42431W        W85525  31.906   7.251   9.293  0.2002  0.1041  0.3076
42432W        W85526  31.161   5.189   6.377  0.1357  0.0996 -0.2685
42433W        W85527  29.579   7.571   8.083  0.0247  0.3256  0.1459
42434W        W85528  30.043   8.493   9.376 -0.0592  0.1560 -0.0324
42435W        W85529  31.871   5.529   7.936  0.1805 -0.3120  0.1095
42436W        W85530  30.184   7.103   7.811 -0.1143  0.1049  0.1952
42437W        W85531  32.136   4.147   6.485 -0.2003  0.1468  0.1253
42438W        W85532  32.853   5.833   9.595 -0.2287  0.0201  0.3067
42439W        W85533  33.122   5.246   9.209  0.2186 -0.0612  0.1379
42440W        W85534  30.716   5.305   9.687 -0.5643 -0.2080 -0.0100
42441W        W85535  32.109   4.570   6.234  0.1940  0.2680  0.1414
42442W        W85536  32.286   6.794   8.228 -0.0994  0.0164 -0.0565
42443W        W85537  30.129   4.645   7.402  0.1868 -0.1032  0.4093
42444W        W85538  30.257   5.171   8.238  0.2821  0.0778 -0.1192
42445W        W85539  33.000   3.472   8.857  0.2171 -0.2367 -0.0212
42446W        W85540  30.999   5.832   6.484 -0.1652 -0.1469  0.0511
42447W        W85541  30.389   3.449   9.554  0.0654  0.1713  0.1160
42448W        W85542  30.980   6.741   8.951  0.3076  0.0431  0.0511
42449W        W85543  30.600   7.314  10.094 -0.0574  0.0881 -0.1310
42450W        W85544  31.661   7.756   9.266  0.3018  0.2103 -0.1483
42451W        W85545  29.662   4.634   6.766 -0.2201 -0.2042 -0.0705
42452W        W85546  33.400   5.073   8.124 -0.0965 -0.2182 -0.1131
42453W        W85547  28.988   3.991   9.571  0.2355  0.3521  0.1761
42454W        W85548  29.363   5.006   9.641  0.2192  0.2106 -0.3193
42455W        W85549  31.488   4.681   7.752 -0.2199  0.3312  0.3725
42456W        W85550  30.654   6.369   8.940  0.0464  0.1164  0.1149
42457W        W85551  31.592   6.941   9.795  0.2037 -0.4221  0.0363
42458W        W85552  30.547   4.301   6.679  0.1020 -0.1301 -0.3221
42459W        W85553  31.638   4.794   7.135  0.0608  0.0517 -0.0512
42460W        W85554  30.612   3.985   8.015  0.0111  0.2668  0.2536
42461W        W85555  31.900   5.191   6.972 -0.3372  0.0837  0.2169
42462W        W85556  30.297   5.574   7.852  0.2044  0.0691 -0.0864
42463W        W85557  31.787   5.414   9.264 -0.0924  0.0078 -0.0753
42464W        W85558  28.733   3.838   9.121  0.1287  0.0649 -0.0038
42465W        W85559  32.894   6.241   7.081 -0.5425 -0.1126  0.2396
42466W        W85560  32.259   5.158   9.120  0.0093 -0.4612 -0.0777
42467W        W85561  31.125   7.087   6.637 -0.2776 -0.1204  0.0978
42468W        W85562  31.735   4.694   8.217 -0.0296 -0.0651  0.2197
42469W        W85563  31.580   6.287  10.902 -0.1056  0.0778  0.3481
42470W        W85564  29.001   4.725   9.755  0.1847 -0.1508 -0.2929
42471W        W85565  31.614   6.983  10.703  0.3290 -0.2259  0.2023
42472W        W85566  33.770   6.434   9.361 -0.0537  0.2052 -0.0684
42473W        W85567  30.966   4.229   6.360  0.0206  0.2836  0.0006
42474W        W85568  30.352   6.278   8.499  0.3519  0.1842 -0.0215
42475W        W85569  29.079   7.644   9.801  0.0012 -0.1078 -0.0771
42476W        W85570  31.297   4.533   9.842  0.1664  0.1334  0.1948
42477W        W85571  30.360   7.884   7.630 -0.0271 -0.1611  0.0379
42478W        W85572  32.071   5.703  10.317  0.2184  0.0661  0.0245
42479W        W85573  28.438   5.126   8.473  0.3208 -0.1674  0.2143
42480W        W85574  31.586   5.763   7.550 -0.2254 -0.3577 -0.1731
42481W        W85575  30.195   7.505   8.119 -0.2020 -0.4111  0.0997
42482W        W85576  31.395   6.963   9.278  0.1655  0.0867  0.1022
42483W        W85577  31.295   4.134   9.512 -0.2755  0.0095  0.3090
42484W        W85578  32.139   6.163   7.101 -0.3219  0.0018  0.0807
42485W        W85579  29.755   5.346   9.320  0.2746 -0.0211  0.1049
42486W        W85580  32.768   4.459   7.667 -0.2401 -0.1435 -0.0786
42487W        W85581  30.951   2.851   9.101 -0.2862  0.0284  0.3451
42488W        W85582  30.167   6.615   9.509  0.1331  0.1047  0.0217
42489W        W85583  29.153   6.338   6.530  0.1396  0.1516 -0.3905
42490W        W85584  30.563   6.257   7.284  0.1938 -0.1554  0.1092
42491W        W85585  29.322   5.817  10.091  0.0505  0.2753  0.0943
42492W        W85586  29.497   4.879   9.074 -0.2352 -0.1221 -0.2406
42493W        W85587  30.498   4.887   7.794  0.0176 -0.1303  0.0772
42494W        W85588  32.475   6.277   7.481  0.2398  0.1072  0.2390
42495W        W85589  29.239   4.031   9.030 -0.3409 -0.1115  0.1742
42496W        W85590  28.485   5.252   9.421 -0.3235 -0.1847 -0.4177
42497W        W85591  32.017   6.325   8.297  0.1633  0.2336 -0.0717
42498W        W85592  31.529   6.588   8.934 -0.3989  0.0974 -0.0929
42499W        W85593  29.875   4.228   8.438  0.2488 -0.0087 -0.1415
42500W        W85594  28.579   5.902   7.342  0.3169 -0.0087  0.0247
42501W        W85595  30.164   4.699   6.890 -0.1641  0.1826 -0.2035
42502W        W85596  31.839   4.843   9.155  0.1354  0.0346 -0.0739
42503W        W85597  32.046   6.017   7.924  0.1239 -0.0559 -0.0513
42504W        W85598  32.550   7.686   7.826  0.0433 -0.0155  0.0079
42505W        W85599  29.165   0.638   9.872  0.1025  0.2076 -0.0024
42506W        W85600  33.095   5.507   7.038 -0.3193  0.2113 -0.0431
42507W        W85601  32.913   6.319   7.766 -0.1762  0.1891 -0.3186
42508W        W85602  32.377   4.301   8.472  0.0554  0.0323 -0.2981
42509W        W85603  31.893   4.188   8.098  0.1166  0.2147 -0.0486
42510W        W85604  31.886   5.030  10.483 -0.2190  0.0032 -0.1801
42511W        W85605  29.705   3.896   8.771  0.1057 -0.2664 -0.0481
42512W        W85606  32.207   3.484   8.974  0.0991  0.0875  0.0571
42513W        W85607  31.401   6.045   6.962 -0.1061  0.1164 -0.0572
42514W        W85608  27.249   4.007   9.922  0.0309  0.2332 -0.0628
42515W        W85609  31.143   5.565   7.812  0.0177  0.0326 -0.0012
42516W        W85610  31.410   5.195   7.926  0.2268  0.1165  0.1116
42517W        W85611  31.167   4.716   8.178 -0.1763  0.1819  0.0084
42518W        W85612  33.276   6.693   8.011 -0.1144 -0.0628 -0.2994
42519W        W85613  32.149   4.355   9.923 -0.4639 -0.0551 -0.0702
42520W        W85614  31.072   6.981   9.818 -0.0759 -0.0365  0.1286
42521W        W85615  31.685   5.980   9.595  0.2060 -0.1602  0.0736
42522W        W85616  30.342   2.991   9.740 -0.1563  0.1208 -0.1817
42523W        W85617  31.149   5.324   7.403 -0.0171  0.2153 -0.0601
42524W        W85618  31.295   5.472   8.785  0.0899  0.1884 -0.2370
42525W        W85619  32.352   6.117  11.085  0.1147 -0.0948 -0.2529
42526W        W85620  30.838   5.183   8.536  0.0130 -0.0695  0.2192
42527W        W85621  30.915   4.278   8.422  0.0087 -0.0904  0.2559
42528W        W85622  29.746   8.707  10.123  0.3289  0.0710 -0.2924
42529W        W85623  33.408   3.524   9.958 -0.4568 -0.2664  0.0634
42530W        W85624  30.062   9.328   3.881  0.1595  0.1524  0.0934
42531W        W85625  29.315   8.262   0.093 -0.0664 -0.1433  0.3640
42532W        W85626  31.903   8.996   0.396 -0.0984 -0.1483  0.1249
42533W        W85627  31.615   8.146   1.898 -0.0231  0.0506  0.2171
42534W        W85628  29.422   9.829   0.539  0.0531 -0.0553 -0.0467
42535W        W85629  31.200  11.813   0.411  0.0987 -0.1225  0.1135
42536W        W85630  30.339   6.653   2.586  0.0074 -0.0381  0.0513
42537W        W85631  32.920  10.237   1.297 -0.0572 -0.1231 -0.2080
42538W        W85632  34.366   9.606   3.871  0.1295 -0.1963 -0.1554
42539W        W85633  31.124   9.123   0.313 -0.0347 -0.2042  0.1312
42540W        W85634  30.793   8.640   1.734  0.0103 -0.1245  0.0308
42541W        W85635  30.882  11.461   4.118  0.0805 -0.1895 -0.0323
42542W        W85636  29.588   7.105   0.267 -0.1413  0.1031 -0.1082
42543W        W85637  28.880   6.410   1.751  0.2135 -0.1729 -0.0828
42544W        W85638  31.668   9.163   3.314 -0.0785  0.0435 -0.1078
42545W        W85639  28.995  10.630   0.484  0.1269  0.0403 -0.0209
42546W        W85640  29.001   8.914   2.535  0.1807  0.1937 -0.2173
42547W        W85641  31.843   8.886   1.993 -0.0994 -0.0997 -0.1062
42548W        W85642  31.448  10.881   1.403  0.0288  0.0044  0.0089
42549W        W85643  30.175   8.262   2.878  0.1641  0.3610 -0.1226
42550W        W85644  30.718   6.859   2.882 -0.1925 -0.0549  0.1742
42551W        W85645  30.993  10.796   1.664 -0.3510  0.0752  0.1465
42552W        W85646  30.602   8.070   0.439 -0.0837  0.0870 -0.0297
42553W        W85647  28.803   9.348   0.975 -0.1217 -0.3877 -0.2690
42554W        W85648  31.059   9.097   2.357  0.2044 -0.0470 -0.4260
42555W        W85649  31.533   9.774   2.327  0.0368  0.1183 -0.0455
42556W        W85650  31.918   9.442   2.506  0.0206  0.2208 -0.2230
42557W        W85651  31.699  10.149   2.040 -0.3787  0.0988 -0.2367
42558W        W85652  31.660  11.241   1.873  0.1322 -0.0116 -0.0448
42559W        W85653  30.243   9.073   2.990 -0.1295  0.1863 -0.1368
42560W        W85654  29.044  10.222   0.786 -0.0355  0.0247  0.0394
42561W        W85655  29.140  12.353   2.438  0.0544  0.1324 -0.1614
42562W        W85656  31.158   9.816   0.748  0.0593  0.0173  0.0288
42563W        W85657  33.640   9.565   1.181 -0.2549 -0.1320 -0.4348
42564W        W85658  32.186  10.767   3.629  0.1021  0.1949  0.0961
42565W        W85659  29.359  10.977   3.619  0.0532  0.0845  0.0531
42566W        W85660  29.870  10.890  31.476  0.3858  0.0631 -0.0139
42567W        W85661  30.500  10.722   4.398  0.4674  0.2274  0.1835
42568W        W85662  30.074  10.408   3.022  0.2610 -0.0742 -0.0356
42569W        W85663  31.329  10.458   2.321 -0.3855  0.1569 -0.0304
42570W        W85664  31.452  10.415   1.581  0.0583 -0.3688 -0.1281
42571W        W85665  30.147  10.836   1.151 -0.0728 -0.3182  0.1333
42572W        W85666  32.386   9.908   1.808  0.1005  0.1310 -0.1657
42573W        W85667  30.678  10.219   5.430  0.0629 -0.0647 -0.1642
42574W        W85668  28.136  10.449   3.729  0.0825  0.3680 -0.1607
42575W        W85669  32.186   7.681   3.512 -0.0089 -0.1041  0.0267
42576W        W85670  28.266  10.305   1.590  0.1949 -0.3379 -0.1605
42577W        W85671  31.186   9.644   1.356 -0.2092  0.0799 -0.1399
42578W        W85672  30.527   8.434  31.518  0.0519  0.1134  0.1195
42579W        W85673  31.082   8.302   0.468 -0.2422  0.2009 -0.0481
42580W        W85674  30.324   7.819   2.013  0.3189  0.0253 -0.1508
42581W        W85675  30.452  10.066   2.169  0.1277  0.0780  0.3414
42582W        W85676  30.256   7.216   2.794  0.1005  0.0654  0.1462
42583W        W85677  32.943  10.799   4.191 -0.0782 -0.5000 -0.1963
42584W        W85678  31.029  10.197   1.539 -0.0273 -0.1453 -0.2956
42585W        W85679  31.149   8.974   3.290 -0.0783 -0.0277 -0.1630
42586W        W85680  29.097  11.247   2.230 -0.0375 -0.2582 -0.2764
42587W        W85681  29.811   8.463   2.291 -0.1297  0.1107 -0.0041
42588W        W85682  31.671  10.558   0.000  0.0588 -0.0643 -0.0412
42589W        W85683  33.065  11.254   1.162  0.2394 -0.1052 -0.2832
42590W        W85684  32.005   7.901   2.022 -0.0397  0.0130  0.0366
42591W        W85685  29.281   9.421   0.267  0.0725 -0.0988 -0.0562
42592W        W85686  30.117   9.262   4.377 -0.0690 -0.0510 -0.2358
42593W        W85687  29.741   9.878   3.377  0.1741  0.0547 -0.1625
42594W        W85688  29.426   6.430   0.853  0.2068 -0.3541  0.1964
42595W        W85689  33.522   9.223   4.146  0.0479  0.0080  0.0868
42596W        W85690  30.802  10.832   2.967  0.1126 -0.1841 -0.5088
42597W        W85691  33.398   7.145   1.626  0.3573  0.0174 -0.0007
42598W        W85692  31.057   9.717   2.327 -0.1726  0.1798  0.1141
42599W        W85693  32.769  10.350   2.630  0.1728 -0.1320 -0.0836
42600W        W85694  31.681   9.037  31.753 -0.0858 -0.0390 -0.4804
42601W        W85695  32.727   7.840   2.257  0.1592 -0.1578  0.1596
42602W        W85696  31.403   7.587   3.198 -0.0014 -0.2266  0.3747
42603W        W85697  30.682   9.740   0.064 -0.1555  0.1983 -0.4315
42604W        W85698  30.915   9.292   0.923  0.0861  0.0109 -0.0926
42605W        W85699  32.927  10.346   4.560  0.1325 -0.1243  0.0681
42606W        W85700  30.984   9.107  29.559  0.1143 -0.2377 -0.2773
42607W        W85701  28.656  11.552   2.280  0.0139  0.3488 -0.1575
42608W        W85702  31.163   9.399   1.904  0.0766  0.0966 -0.0961
42609W        W85703  30.008  10.039   4.000 -0.0386 -0.0379 -0.1168
42610W        W85704  30.235   9.391   0.177 -0.1768  0.2096  0.2562
42611W        W85705  27.534   9.568   2.434 -0.2243  0.0185 -0.1490
42612W        W85706  28.738  10.161   0.307 -0.0028 -0.1054 -0.0419
42613W        W85707  29.148   9.082   1.768 -0.0237 -0.1582  0.0744
42614W        W85708  30.535  10.734   3.434 -0.0771 -0.3230 -0.2861
42615W        W85709  31.771   8.531   1.578  0.4214 -0.4462  0.0527
42616W        W85710  28.731   8.245   3.027 -0.0574 -0.0213  0.1076
42617W        W85711  32.099   6.896   1.479  0.4932 -0.1122 -0.0534
42618W        W85712  28.900   9.712   0.003  0.0930  0.2664  0.3364
42619W        W85713  31.414   9.332   0.718  0.2253 -0.1224 -0.0868
42620W        W85714  32.316   9.003   0.802  0.0975 -0.3421  0.1661
42621W        W85715  29.809  10.154   0.273  0.3633  0.1278 -0.1190
42622W        W85716  29.313   9.238   2.263 -0.0517 -0.1721 -0.0456
42623W        W85717  29.455   9.576   1.891  0.2955  0.2028 -0.1683
42624W        W85718  30.119   7.347   2.310  0.1299  0.2781  0.4658
42625W        W85719  29.637   9.158   1.722 -0.0588 -0.0907 -0.2601
42626W        W85720  32.574   8.388   3.912  0.0910 -0.0801 -0.1716
42627W        W85721  29.077   7.756   0.806  0.1595  0.1807 -0.1698
42628W        W85722  31.653   9.342   1.707 -0.2939 -0.0635  0.0631
42629W        W85723  30.624   9.608   1.600 -0.1290 -0.0834  0.0400
42630W        W85724  27.528  10.228   1.032 -0.1236 -0.1157  0.1263
42631W        W85725  32.177   6.754   2.744 -0.2216 -0.1512 -0.2319
42632W        W85726  30.186  10.370   1.362 -0.2166  0.0812 -0.0198
42633W        W85727  34.668  10.345   3.245 -0.2010 -0.2958 -0.2045
42634W        W85728  32.149   9.254   1.216  0.0894 -0.0218 -0.0692
42635W        W85729  30.012   8.105   3.863 -0.0225 -0.0189  0.0349
42636W        W85730  29.399   8.315  30.633  0.2621 -0.6074  0.0211
42637W        W85731  29.191  10.805   1.330  0.2193 -0.0371 -0.0486
42638W        W85732  30.781  10.506   2.021  0.0817 -0.1594  0.0650
42639W        W85733  30.484   7.505  31.886  0.0150  0.0714 -0.0484
42640W        W85734  32.541  10.066   3.043 -0.0680 -0.0194 -0.0441
42641W        W85735  29.541   8.891  31.321 -0.1033 -0.3272  0.3485
42642W        W85736  31.246  10.479   2.815 -0.3510  0.3824 -0.1460
42643W        W85737  31.206   8.765   2.007  0.0636 -0.1275  0.1079
42644W        W85738  31.841  10.373   3.669  0.2721 -0.1446 -0.1486
42645W        W85739  31.525   9.040   2.766 -0.1588 -0.2828  0.0950
42646W        W85740  28.507   6.118  30.850  0.1113  0.1062  0.1177
42647W        W85741  31.806  10.611   2.264 -0.1688 -0.0243  0.0398
42648W        W85742  28.055  11.388   1.661 -0.0758  0.0493  0.0440
42649W        W85743  28.230   9.343   1.021 -0.3534  0.0457 -0.2550
42650W        W85744  29.624  10.584   0.027  0.0491 -0.0120 -0.0941
42651W        W85745  30.918   8.099   0.069  0.2636  0.1385 -0.0731
42652W        W85746  28.725   9.813   2.957 -0.3111 -0.1708  0.2045
42653W        W85747  30.508   9.583   3.882 -0.2060  0.1904  0.0272
42654W        W85748  29.999   9.302  31.683  0.0156  0.3155 -0.2052
42655W        W85749  29.459  10.078   1.974 -0.2018  0.0520  0.1533
42656W        W85750  30.236   8.076   1.448 -0.1394 -0.4506 -0.1578
42657W        W85751  32.143   8.550   0.635  0.1113 -0.2628 -0.2332
42658W        W85752  31.529   9.979   3.525 -0.1701 -0.0124 -0.0993
42659W        W85753  31.434   9.831   1.768  0.2313 -0.0786  0.0687
42660W        W85754  31.514   8.610  31.427 -0.3956 -0.1343 -0.1218
42661W        W85755  31.568   7.680   1.725 -0.0362  0.1499 -0.2376
42662W        W85756  30.500   9.094   4.091 -0.0931 -0.1000  0.0828
42663W        W85757  27.596   9.438   1.715 -0.3409  0.0039 -0.2054
42664W        W85758  31.747  11.314   2.554  0.0223  0.2746 -0.0493
42665W        W85759  30.882   9.086  30.677  0.3498 -0.1874  0.3945
42666W        W85760  31.644  12.687   0.920  0.1609  0.0134 -0.1270
42667W        W85761  30.170   8.724   2.616 -0.2620 -0.1044 -0.0523
42668W        W85762  30.325  11.317   2.731  0.1531  0.1929  0.0055
42669W        W85763  32.755  10.497   3.196 -0.0346 -0.0674  0.2275
42670W        W85764  30.949   7.740   3.213  0.1720 -0.0889  0.1291
42671W        W85765  29.931   9.416   1.063  0.3478 -0.2214 -0.1004
42672W        W85766  30.699   7.881   1.383 -0.0273 -0.3094 -0.1064
42673W        W85767  27.879  11.246   0.082 -0.1915  0.3098  0.0545
42674W        W85768  31.585   8.699   3.855  0.1830  0.0713 -0.3001
42675W        W85769  30.956   7.662   1.780  0.1933 -0.0778  0.2017
42676W        W85770  30.729   7.410   2.749  0.1407 -0.0168 -0.1233
42677W        W85771  32.498   9.473   4.012 -0.4043  0.0588 -0.1857
42678W        W85772  31.697   7.972  31.652 -0.0642  0.0849  0.0273
42679W        W85773  31.645   9.624   3.009 -0.2319 -0.0649  0.2341
42680W        W85774  29.391   9.712  30.887  0.2279  0.1758  0.1459
42681W        W85775  30.856   8.233   3.366 -0.1259  0.1622  0.0217
42682W        W85776  29.375   8.588   2.528  0.0036  0.1786  0.1875
42683W        W85777  29.308  11.973   2.764  0.2487  0.2385 -0.2819
42684W        W85778  31.776  10.651   2.770 -0.0893  0.0783  0.0678
42685W        W85779  31.852  10.143   1.546  0.3132  0.2642 -0.3027
42686W        W85780  30.341   8.743   4.436  0.0347 -0.0123  0.1775
42687W        W85781  30.747   8.869   0.550  0.0280  0.6143 -0.0319
42688W        W85782  29.421  11.377   1.341  0.2207 -0.0303  0.0482
42689W        W85783  31.015  10.107   0.309  0.1257 -0.3899  0.1116
42690W        W85784  30.073   7.671   1.175 -0.1040 -0.0758  0.0017
42691W        W85785  31.946  11.688   2.770  0.0230 -0.0981  0.1615
42692W        W85786  30.360  10.075   0.950 -0.2322 -0.3273  0.0861
42693W        W85787  32.093   9.745   2.890  0.0124  0.0912 -0.1431
42694W        W85788  29.655  10.616   1.418 -0.0049  0.3537  0.2648
42695W        W85789  30.623   8.082   2.948 -0.0484 -0.1397 -0.1374
42696W        W85790  30.037  10.195   1.775 -0.2207 -0.1768 -0.1095
42697W        W85791  30.264   8.402   0.627  0.2253 -0.2420 -0.0825
42698W        W85792  28.946   9.728  31.312  0.0318 -0.3001 -0.0032
42699W        W85793  31.318   6.704   2.012  0.0451  0.0563 -0.0626
42700W        W85794  31.144   8.976  31.260 -0.0953  0.0011 -0.0598
42701W        W85795  30.087   7.659   2.860  0.1162  0.0119  0.3512
42702W        W85796  30.297   8.568   1.624 -0.0061  0.0178  0.1623
42703W        W85797  29.642  10.569   2.009 -0.0701  0.4605 -0.0148
42704W        W85798  31.239  11.355   1.604  0.0323  0.3069 -0.0890
42705W        W85799  32.818   7.490   0.522  0.0696  0.1754 -0.0363
42706W        W85800  32.724  11.049   3.076  0.0337 -0.2006 -0.2755
42707W        W85801  31.753  10.132   2.656 -0.3080  0.0601  0.0464
42708W        W85802  29.488   8.226  31.520 -0.1064  0.0077 -0.1631
42709W        W85803  30.412   7.738   2.515  0.0890 -0.2387 -0.0433
42710W        W85804  30.719   8.732   2.292 -0.1488  0.0495  0.0314
42711W        W85805  29.708  10.115   1.454 -0.1505  0.1580  0.2778
42712W        W85806  32.207  10.270   2.614 -0.3301 -0.1225 -0.1735
42713W        W85807  30.667   9.124   0.131  0.3716  0.2717  0.1320
42714W        W85808  28.542   9.347   1.432  0.2128  0.2291 -0.0716
42715W        W85809  30.052   8.063   2.425  0.0710 -0.1527  0.0846
42716W        W85810  31.757  10.852   3.981  0.2139 -0.2891 -0.2197
42717W        W85811  30.944   9.243   1.416  0.1054 -0.0038  0.0164
42718W        W85812  30.487   8.889   0.992  0.1334  0.0676  0.0508
42719W        W85813  30.754   9.085   1.926 -0.0475  0.0745 -0.0893
42720W        W85814  31.134  10.524   3.300 -0.0573  0.0491 -0.1319
42721W        W85815  29.475   8.083   2.294 -0.2636  0.2004 -0.0861
42722W        W85816  30.919   9.877   3.631 -0.0117 -0.0740  0.2168
42723W        W85817  29.812   6.947   1.609 -0.1962  0.1996 -0.0965
42724W        W85818  32.267   9.792   0.955 -0.0554 -0.0753  0.0198
42725W        W85819  31.410  10.682   3.665  0.1926  0.2795  0.3307
42726W        W85820  30.456  10.705   1.625  0.2380 -0.1543  0.3809
42727W        W85821  28.676  10.089   2.153  0.1578 -0.1206 -0.0837
42728W        W85822  30.187   9.867  31.548 -0.0407 -0.2833  0.0046
42729W        W85823  30.860   6.656   2.350 -0.0862  0.2165  0.4836
42730W        W85824  29.493  11.003   3.120 -0.1283  0.1538 -0.3843
42731W        W85825  29.928   9.910   1.058 -0.0175  0.0051 -0.1363
42732W        W85826  29.063   9.798   2.081 -0.0546 -0.1302 -0.2140
42733W        W85827  31.369   7.457   0.359  0.2960 -0.2018 -0.1923
42734W        W85828  31.129  10.453  31.901  0.1687 -0.1011  0.2743
42735W        W85829  31.036   8.906   2.796  0.1000  0.1801 -0.0535
42736W        W85830  31.426   7.699   2.226 -0.2848 -0.0711  0.0235
42737W        W85831  30.537  10.188   0.468  0.1540 -0.0328 -0.0394
42738W        W85832  32.086   7.533   4.736 -0.0751 -0.1421 -0.3366
42739W        W85833  29.444   8.363   1.851  0.0752 -0.0414 -0.1529
42740W        W85834  32.542  11.322   2.141 -0.0673  0.0246 -0.2571
42741W        W85835  28.640   8.833   2.151 -0.2088 -0.3033  0.1142
42742W        W85836  31.124  10.322   5.063  0.0722 -0.0490 -0.2485
42743W        W85837  29.831   9.441   2.217  0.1901  0.1688 -0.2325
42744W        W85838  30.974   8.797   1.155  0.1643 -0.3316 -0.2878
42745W        W85839  29.944   7.083  31.383  0.0286  0.1626 -0.2896
42746W        W85840  31.529   9.225   2.270  0.2388  0.1712 -0.1208
42747W        W85841  32.705   9.536   3.051 -0.1867 -0.0035  0.0717
42748W        W85842  30.218   9.723   1.897 -0.0641 -0.3588 -0.1922
42749W        W85843  31.270   9.595   0.177  0.3772 -0.3673  0.0951
42750W        W85844  30.878  10.659   3.753 -0.2488 -0.0806 -0.1430
42751W        W85845  31.778   9.010   1.401 -0.1113 -0.3143 -0.1684
42752W        W85846  30.802   9.392  31.291  0.1220  0.0135 -0.0407
42753W        W85847  29.597  10.272   2.439  0.1089  0.2557  0.2877
42754W        W85848  30.052   7.653   3.479 -0.0498 -0.4266  0.1008
42755W        W85849  32.042   9.913   2.334 -0.1666  0.0877  0.4955
42756W        W85850  32.557   8.291   2.082  0.0343 -0.1555 -0.0380
42757W        W85851  31.582   7.411   2.661 -0.1503  0.0729 -0.3132
42758W        W85852  32.061   8.393   1.999 -0.3934  0.2076  0.2228
42759W        W85853  29.732   8.901   2.657 -0.1053 -0.0484  0.3361
42760W        W85854  28.521   9.169   2.479  0.0751 -0.2714 -0.1584
42761W        W85855  33.811  10.099   3.366 -0.1944  0.0235 -0.2678
42762W        W85856  31.947   8.004   0.765  0.2703 -0.1629  0.0811
42763W        W85857  32.439   8.759   2.220  0.1697 -0.1951  0.0939
42764W        W85858  30.741   8.367   1.352  0.4109  0.1705 -0.0473
42765W        W85859  31.494   8.675   1.128  0.2636 -0.0842 -0.0989
42766W        W85860  30.522   8.995   1.493 -0.3559  0.1766 -0.1862
42767W        W85861  31.248   8.854   4.243 -0.0779 -0.0241  0.3158
42768W        W85862  29.706   8.753  31.779 -0.0694  0.0159  0.0856
42769W        W85863  31.179   7.407   3.572  0.0388 -0.2032 -0.1158
42770W        W85864  29.718   9.419   0.593  0.0258 -0.0356  0.1767
42771W        W85865  31.373   9.162   1.186  0.2869 -0.0202  0.0960
42772W        W85866  30.005   8.896   1.350  0.1622  0.0130 -0.2502
42773W        W85867  31.206  10.265   3.868 -0.1977  0.1987  0.2487
42774W        W85868  30.747   8.965  31.584  0.0813  0.0117 -0.1028
42775W        W85869  29.406   9.818   0.002  0.0225 -0.0128  0.0405
42776W        W85870  31.876  11.164   3.621 -0.2554 -0.0849 -0.2875
42777W        W85871  34.436   9.943   4.867 -0.4428 -0.0691 -0.0427
42778W        W85872  29.705   8.578   1.066 -0.1184  0.0905 -0.3746
42779W        W85873  31.769   8.026   3.363  0.4331  0.0407  0.1561
42780W        W85874  29.255  10.344   1.236 -0.1091 -0.0064  0.1006
42781W        W85875  30.585   7.439   2.019 -0.0928 -0.1973 -0.0288
42782W        W85876  30.230  10.509   2.122 -0.4146 -0.0701 -0.0651
42783W        W85877  30.512   8.805   3.328 -0.1133  0.1963 -0.0530
42784W        W85878  30.858  10.215   2.468 -0.1899  0.0209  0.2262
42785W        W85879  31.155   7.752   2.707  0.0533 -0.1457 -0.2568
42786W        W85880  31.998   9.981   3.307 -0.2000 -0.2130 -0.1026
42787W        W85881  29.200   9.452   1.412 -0.1040 -0.2242 -0.1483
42788W        W85882  32.521   9.829   2.594 -0.5342  0.2207 -0.2901
42789W        W85883  31.916  11.306   3.173 -0.3022  0.3990  0.0912
42790W        W85884  30.109   9.096   1.988 -0.1903 -0.4073 -0.1239
42791W        W85885  31.535  11.598   2.974 -0.0645 -0.0606  0.3763
42792W        W85886  33.112   8.871   1.363 -0.1006  0.0516  0.4594
42793W        W85887  30.248   9.889   1.415  0.3501  0.0927 -0.2813
42794W        W85888  28.478   8.886   3.782  0.1561 -0.2157 -0.2290
42795W        W85889  29.854   8.946   5.316  0.2335 -0.1239 -0.0247
42796W        W85890  30.461   9.441   1.176 -0.0422  0.0757 -0.2224
42797W        W85891  29.977   8.101   0.886 -0.0769 -0.0812  0.1026
42798W        W85892  31.176  10.522   1.172 -0.0462 -0.0016 -0.0865
42799W        W85893  30.788  11.546   3.613  0.0917  0.1937  0.2677
42800W        W85894  29.453   9.707   2.440  0.1863 -0.0861  0.0050
42801W        W85895  28.980  10.748   2.117  0.0109 -0.1997  0.0254
42802W        W85896  32.497  10.155   2.245  0.0924 -0.2843  0.0819
42803W        W85897  31.820   9.559   0.236  0.0508 -0.3149  0.2203
42804W        W85898  31.070  11.672   2.102 -0.4077  0.0826  0.1858
42805W        W85899  30.674   8.574  30.717  0.0923 -0.1173 -0.3072
42806W        W85900  30.142  11.286   1.848 -0.0421  0.0339  0.1845
42807W        W85901  28.755  11.103   0.431 -0.2841 -0.1041  0.0155
42808W        W85902  30.668   9.688   0.697  0.1918 -0.0498  0.1103
42809W        W85903  29.515  12.578  31.712 -0.0003 -0.0173 -0.1351
42810W        W85904  31.370  10.568   4.180  0.1125  0.0688  0.0757
42811W        W85905  31.853   7.194   0.337 -0.0635 -0.1879  0.2349
42812W        W85906  32.285   8.863   2.717  0.1045  0.0569 -0.2324
42813W        W85907  31.225   7.791   1.337 -0.3447  0.1703 -0.1202
42814W        W85908  31.602  10.385   3.162  0.0995  0.2042  0.1053
42815W        W85909  30.787   9.190   3.084  0.2194  0.0458 -0.0975
42816W        W85910  31.362   8.821   1.568 -0.1323  0.1287  0.2596
42817W        W85911  29.126   8.235   2.724  0.0911  0.0579 -0.0757
42818W        W85912  32.344   7.394   2.773  0.0579 -0.1482  0.0790
42819W        W85913  29.188  10.442   3.771  0.2827  0.0123 -0.4859
42820W        W85914  31.541  11.146   0.341  0.0060  0.3055 -0.1874
42821W        W85915  30.069   8.022   0.406  0.3958  0.1559 -0.1139
42822W        W85916  30.250   8.644   2.109  0.0060 -0.2129  0.0547
42823W        W85917  32.435   7.816   1.789 -0.1175  0.3460  0.1067
42824W        W85918  29.908  11.054   0.039 -0.1211 -0.1695  0.0481
42825W        W85919  30.591   8.138   1.768  0.0061  0.1124 -0.3691
42826W        W85920  30.352  11.180   3.397 -0.0156  0.0626 -0.1047
42827W        W85921  30.279  11.822   2.984 -0.0115 -0.0291 -0.2781
42828W        W85922  29.456  12.472   2.809  0.1851  0.3215  0.0345
42829W        W85923  29.111   8.842  31.557  0.0956  0.2142 -0.1239
42830W        W85924  31.650   9.566   1.116  0.1293 -0.2127  0.1491
42831W        W85925  30.465   8.261   2.245 -0.0562  0.0909  0.3546
42832W        W85926  32.094   9.032   3.622  0.1328  0.2569 -0.0577
42833W        W85927  30.271   9.310   0.711  0.0917  0.3804 -0.1803
42834W        W85928  31.900   8.738   2.463  0.1313 -0.1748 -0.2469
42835W        W85929  31.226  11.067   2.983 -0.3136 -0.1547  0.0055
42836W        W85930  29.412   8.794   2.039 -0.4693  0.0009  0.0896
42837W        W85931  29.898   8.965   0.791  0.1358 -0.1309  0.1866
42838W        W85932  32.124  10.452   3.132 -0.3397 -0.1062 -0.0965
42839W        W85933  30.482   9.563  30.382 -0.1084 -0.2229  0.1507
42840W        W85934  33.129  12.837   3.870 -0.2805  0.0685 -0.2593
42841W        W85935  30.440   7.623   0.558 -0.0133 -0.0422  0.2091
42842W        W85936  30.560   8.480   0.116  0.1923 -0.2099  0.3119
42843W        W85937  28.498  10.533   1.983  0.1222 -0.4687 -0.3694
42844W        W85938  30.690   9.308   2.561  0.1562 -0.1732  0.0391
42845W        W85939  32.232  11.703   4.269  0.3576 -0.2527 -0.1902
42846W        W85940  29.379   8.731   1.521 -0.0982 -0.2512 -0.1805
42847W        W85941  32.733  10.634   0.337 -0.1819  0.1823  0.0013
42848W        W85942  33.325   9.946   3.763 -0.0888 -0.1293  0.2061
42849W        W85943  29.357  11.047   1.813 -0.1646  0.1634  0.0971
42850W        W85944  31.232  10.929  31.892  0.0871 -0.2042 -0.0829
42851W        W85945  31.828  10.837   3.283  0.1824  0.0070 -0.1088
42852W        W85946  29.036   9.022   1.292 -0.1365  0.0327 -0.1391
42853W        W85947  33.215  10.528   3.795  0.0464 -0.2171  0.0431
42854W        W85948  33.415  10.425   3.213 -0.1079 -0.2472 -0.2500
42855W        W85949  30.407   7.115   0.565  0.0951  0.1041 -0.0658
42856W        W85950  29.672   8.597   0.517  0.0883  0.0908  0.0278
42857W        W85951  30.536  10.215   1.690 -0.1143 -0.0605  0.0681
42858W        W85952  31.363   8.719   2.460 -0.0582 -0.1218  0.4165
42859W        W85953  30.636   8.593   2.913 -0.1510  0.2632 -0.1800
42860W        W85954  30.274  12.269   1.000 -0.2493  0.0520 -0.0411
42861W        W85955  30.939   7.239   3.167  0.0584 -0.2930 -0.0604
42862W        W85956  32.168  11.817   3.236  0.3353  0.1217 -0.0546
42863W        W85957  30.328  10.514   3.890 -0.0710 -0.2604  0.1200
42864W        W85958  30.528   8.764  30.174  0.2398 -0.3305 -0.1802
42865W        W85959  32.144   9.278   3.143 -0.1953 -0.1119  0.0832
42866W        W85960  30.723  10.303   2.939  0.0006 -0.0827 -0.2795
42867W        W85961  29.851  10.480   0.977  0.1446 -0.0873  0.4502
42868W        W85962  32.393  11.263   3.460 -0.2280  0.0562  0.1155
42869W        W85963  32.195   9.160   2.197  0.1911  0.0607  0.4578
42870W        W85964  31.749  10.599   1.138 -0.0710 -0.1061 -0.0037
42871W        W85965  29.584   7.554   0.007  0.0448  0.2098 -0.1294
42872W        W85966  31.674   8.166   1.218 -0.1107 -0.0737  0.0582
42873W        W85967  31.217   8.283   1.528 -0.0385  0.3104 -0.5850
42874W        W85968  31.268  10.018   2.677  0.0473  0.0814  0.1488
42875W        W85969  29.735   9.230   0.087 -0.1524  0.0828  0.1601
42876W        W85970  30.895  10.214   0.852  0.0207  0.2186  0.1597
42877W        W85971  29.180   9.898   1.540  0.1487  0.0570 -0.0248
42878W        W85972  30.973   7.511   4.145  0.2800 -0.1473 -0.1709
42879W        W85973  29.954  10.612   2.519 -0.0416 -0.0732 -0.2010
42880W        W85974  29.705   9.623   1.429 -0.0301  0.1226 -0.0582
42881W        W85975  28.614   7.489   0.347  0.1930 -0.0931 -0.1875
42882W        W85976  32.287  10.720   1.326 -0.1822 -0.3106  0.1028
42883W        W85977  30.191   7.171   1.270 -0.2987  0.0786 -0.0792
42884W        W85978  28.608   8.933   0.796  0.1811  0.2285 -0.1613
42885W        W85979  31.465  10.025   1.215 -0.0130  0.1428  0.0557
42886W        W85980  32.369   9.323   2.687 -0.0274 -0.2296 -0.1732
42887W        W85981  30.999   8.660   0.126  0.0522  0.0536  0.1954
42888W        W85982  34.055  11.476   3.417 -0.0050 -0.3112  0.3432
42889W        W85983  30.102  10.352  31.676  0.4731  0.4185  0.3794
42890W        W85984  31.011   8.259   2.369 -0.0450 -0.1419 -0.1765
42891W        W85985  30.380   8.185   4.256  0.1266  0.0456 -0.0920
42892W        W85986  29.479   7.383   0.769  0.2498 -0.0018  0.2596
42893W        W85987  31.274   9.474   3.408 -0.2588 -0.0784  0.1658
42894W        W85988  30.888  11.777   1.615  0.0014 -0.0372 -0.1932
42895W        W85989  32.167  11.082  31.400 -0.2239 -0.3780 -0.0151
42896W        W85990  31.402  10.934   2.501  0.0662  0.1518 -0.2189
42897W        W85991  30.954  11.052   3.458  0.1899 -0.0833 -0.0535
42898W        W85992  28.544   8.813   2.869 -0.0375 -0.1181 -0.1707
42899W        W85993  31.209   8.936  31.770  0.2904  0.1108  0.0841
42900W        W85994  29.965   9.373   3.290 -0.1845  0.2562 -0.1321
42901W        W85995  31.506  10.040   0.202  0.0596  0.0696  0.3404
42902W        W85996  32.871   8.270   2.462  0.0579  0.2497  0.2187
42903W        W85997  31.007  11.633   1.107  0.1143  0.2164 -0.1249
42904W        W85998  29.612   8.568   3.406  0.0867  0.2092  0.0059
42905W        W85999  30.148   9.379   1.540 -0.1730  0.0565  0.0778
42906W        W86000  31.861   8.839   3.013 -0.0136 -0.0776 -0.1740
42907W        W86001  29.758   7.117   2.629 -0.1602 -0.2800 -0.1798
42908W        W86002  31.177   8.319   1.037 -0.0389  0.0217  0.1776
42909W        W86003  31.221   8.875   0.742  0.1441 -0.1293  0.0440
42910W        W86004  30.610   9.795   2.609  0.0215  0.3554 -0.1425
42911W        W86005  29.891   8.521  30.962  0.0823  0.0694  0.0075
42912W        W86006  29.988   8.880   4.026 -0.1614 -0.0843 -0.1084
42913W        W86007  30.515  11.000   2.230  0.0859 -0.1641  0.1428
42914W        W86008  31.441   9.169   3.786 -0.2406 -0.0911 -0.0106
42915W        W86009  30.162   8.882  31.366  0.0315 -0.0231 -0.2019
42916W        W86010  31.446  10.256   0.739  0.2358 -0.1653  0.4455
42917W        W86011  31.110  11.925   2.917  0.0938 -0.0555 -0.1648
42918W        W86012  31.714  11.358   4.196  0.0535 -0.1501 -0.1728
42919W        W86013  30.713  11.558   3.142 -0.1445  0.0679  0.1201
42920W        W86014  32.483   9.585   2.211  0.2194  0.0546 -0.2748
42921W        W86015  29.434   7.792   1.635  0.2358  0.0084  0.0890
42922W        W86016  30.206   9.472   2.578  0.1706  0.2019  0.0765
42923W        W86017  29.909   9.919   2.240 -0.1614 -0.0746 -0.0779
42924W        W86018  31.472   8.547   2.915 -0.1194  0.1881  0.1324
42925W        W86019  30.676   9.524   2.111  0.1274  0.2251 -0.0930
42926W        W86020  30.365   7.592   1.567  0.0782  0.0517 -0.1363
42927W        W86021  30.179  10.952   3.904 -0.0471 -0.0840 -0.3570
42928W        W86022  31.823  10.762   1.677 -0.1557  0.0344 -0.0430
42929W        W86023  29.128   9.788   6.976 -0.0598  0.1765 -0.3121
42930W        W86024  31.851   7.744   5.626  0.1185  0.0130 -0.3371
42931W        W86025  31.891   9.558   3.471 -0.0741 -0.1081 -0.1661
42932W        W86026  32.524   8.792   4.422 -0.2832 -0.0364  0.2146
42933W        W86027  28.879   7.828   4.109 -0.3699 -0.2209 -0.1266
42934W        W86028  31.828   9.910   5.071  0.1507 -0.3078 -0.0825
42935W        W86029  29.710   7.412   6.262 -0.0476  0.1941 -0.0405
42936W        W86030  31.636   9.919   6.413  0.2558 -0.2722 -0.0548
42937W        W86031  33.333   9.956   5.828  0.0587 -0.3701  0.0629
42938W        W86032  31.636   9.202   4.325 -0.0611 -0.1200 -0.2152
42939W        W86033  30.390   8.154   6.353  0.0771  0.1093  0.1146
42940W        W86034  30.649   9.886   6.922 -0.0000 -0.2870 -0.3073
42941W        W86035  30.518   6.235   5.769  0.1806  0.1387  0.1172
42942W        W86036  28.446   7.371   6.054  0.0714 -0.1396 -0.2928
42943W        W86037  32.199   8.635   7.000 -0.1983 -0.1064 -0.0332
42944W        W86038  27.717   8.413   4.842 -0.0683  0.2086  0.1756
42945W        W86039  30.899   8.294   6.231  0.5865  0.0633 -0.1821
42946W        W86040  31.364   8.746   5.722 -0.0712 -0.0927 -0.1795
42947W        W86041  30.685  10.039   6.372 -0.1407 -0.1855  0.1590
42948W        W86042  31.262   7.686   7.323  0.4674 -0.1647 -0.2964
42949W        W86043  31.462   7.358   8.388  0.0356 -0.0937  0.0978
42950W        W86044  30.260   9.739   5.372  0.0384 -0.1855  0.1161
42951W        W86045  29.113   8.472   3.436 -0.1138 -0.1557 -0.0850
42952W        W86046  27.639   8.920   5.236 -0.0362  0.3120 -0.2058
42953W        W86047  28.821   9.043   4.075  0.2219 -0.0143 -0.0353
42954W        W86048  31.600   9.020   6.118 -0.0656  0.3233 -0.0029
42955W        W86049  33.211   8.777   5.724 -0.0417  0.2248  0.1463
42956W        W86050  30.935   9.571   6.528 -0.0618 -0.0992 -0.1031
42957W        W86051  32.137  11.725   3.719 -0.0150  0.0529 -0.1090
42958W        W86052  32.378   9.973   6.245 -0.0097 -0.2095 -0.1432
42959W        W86053  28.578  10.285   5.361 -0.4033  0.0643 -0.1470
42960W        W86054  29.474  10.939   5.067 -0.1429 -0.0572 -0.0961
42961W        W86055  29.762  10.716   4.682  0.1023  0.0342 -0.0881
42962W        W86056  33.809   7.850   4.609 -0.3745 -0.1456 -0.2282
42963W        W86057  31.082  10.561   6.811  0.1659 -0.3164 -0.0685
42964W        W86058  31.136   9.953   8.887 -0.2442 -0.1087 -0.0655
42965W        W86059  29.791  10.270   4.944  0.1244  0.4214 -0.1152
42966W        W86060  30.945   9.557   7.134 -0.0278  0.0421 -0.0401
42967W        W86061  30.816   9.985   7.820 -0.1165  0.0250 -0.2108
42968W        W86062  30.974   9.150   6.827 -0.1229 -0.0852 -0.0061
42969W        W86063  31.969   8.601   6.407  0.1306  0.0940  0.0030
42970W        W86064  30.421  10.635   5.280 -0.0449 -0.0366  0.0082
42971W        W86065  31.872   9.091   5.568  0.0181  0.1288  0.0046
42972W        W86066  31.163   9.567   7.650 -0.0458 -0.0301  0.1636
42973W        W86067  30.056   9.806   4.743  0.1010 -0.3357  0.1371
42974W        W86068  31.071  11.882   3.903 -0.4523 -0.1010  0.0100
42975W        W86069  31.156   8.293   4.201 -0.0136 -0.1678 -0.0217
42976W        W86070  30.163   7.236   3.770 -0.0932  0.0245 -0.0045
42977W        W86071  31.506   7.366   4.005 -0.2598  0.0075  0.3015
42978W        W86072  31.358   7.335   5.801 -0.0256 -0.1114  0.1982
42979W        W86073  30.897  12.044   6.090  0.0357  0.0177  0.1911
42980W        W86074  32.113   7.380   6.685  0.1833 -0.1109  0.0441
42981W        W86075  33.074  10.383   5.795 -0.0909  0.1402 -0.0963
42982W        W86076  30.824   7.999   4.347 -0.0156 -0.0690 -0.0666
42983W        W86077  33.091   8.360   5.389 -0.0357 -0.2344  0.1448
42984W        W86078  29.875   9.961   5.746  0.2188  0.0222  0.0695
42985W        W86079  29.302   8.012   5.169  0.0377  0.0702 -0.0553
42986W        W86080  32.526  11.191   4.371 -0.0598  0.0284  0.0197
42987W        W86081  32.622  10.751   4.633  0.0127 -0.4011 -0.0136
42988W        W86082  29.584  11.005   4.123 -0.0036  0.2246 -0.1123
42989W        W86083  29.009   7.949   5.577  0.0342 -0.3495  0.2373
42990W        W86084  28.372  10.372   7.389  0.1122  0.1853 -0.1976
42991W        W86085  29.451   8.255   5.603 -0.0506  0.0017  0.2284
42992W        W86086  30.386   7.655   3.964  0.1918 -0.0440 -0.4078
42993W        W86087  32.480   9.491   7.106  0.0542 -0.3929 -0.0978
42994W        W86088  28.546  10.057   6.321  0.1278  0.1469  0.1622
42995W        W86089  32.247   8.775   5.553 -0.0084  0.0683 -0.0176
42996W        W86090  29.693   9.101   5.934 -0.2111 -0.0903  0.2714
42997W        W86091  33.327   9.628   5.440  0.0915  0.1855 -0.2352
42998W        W86092  31.357   9.677   4.574  0.1599  0.0203 -0.1579
42999W        W86093  30.933   6.515   5.904 -0.0069 -0.1641  0.1395
43000W        W86094  32.366   8.463   5.924 -0.1628 -0.0610  0.0726
43001W        W86095  30.654   9.727   3.167  0.0157 -0.0701  0.0427
43002W        W86096  29.755   8.096   4.869 -0.1527 -0.0701  0.0116
43003W        W86097  32.239  10.283   5.554  0.1697  0.0227 -0.1052
43004W        W86098  31.861   9.692   4.320 -0.0604 -0.3509 -0.3226
43005W        W86099  29.411  10.909   5.572  0.2100 -0.0986  0.0926
43006W        W86100  30.935   9.103   6.367 -0.0872  0.5901 -0.1002
43007W        W86101  31.235   9.474   9.133 -0.1400  0.0241 -0.3061
43008W        W86102  30.543  13.178   3.901 -0.1328  0.0350  0.2732
43009W        W86103  29.463   8.492   4.551 -0.1368  0.1237 -0.3102
43010W        W86104  29.747   8.974   4.557 -0.0048 -0.0502  0.0700
43011W        W86105  29.212   8.427   6.457 -0.4270 -0.1782  0.0599
43012W        W86106  29.726   9.305   6.519  0.1962 -0.2623 -0.1239
43013W        W86107  32.238   9.226   4.468  0.1477 -0.2118  0.1878
43014W        W86108  29.875   8.435   6.991 -0.0453 -0.3833 -0.2800
43015W        W86109  32.490   7.223   4.596 -0.1716 -0.0703 -0.0402
43016W        W86110  29.507  10.158   4.004 -0.1152  0.0085 -0.1697
43017W        W86111  32.704   9.771   4.441  0.3146 -0.2722  0.2893
43018W        W86112  31.866   7.755   4.273  0.2512  0.2468 -0.2359
43019W        W86113  31.891  10.492   4.431 -0.0963 -0.2123  0.0128
43020W        W86114  29.096   8.369   4.868  0.1446  0.2355  0.1120
43021W        W86115  28.693   9.492   6.209  0.1946 -0.2127  0.2001
43022W        W86116  29.464   8.389   7.401 -0.0839  0.1099 -0.1219
43023W        W86117  28.454   7.676   5.549 -0.1122  0.1062  0.0577
43024W        W86118  31.460   9.717   6.988  0.0165 -0.2982  0.0887
43025W        W86119  30.093   8.113   5.805 -0.1119 -0.0037 -0.2993
43026W        W86120  31.654   8.501   4.929 -0.1539 -0.2657  0.0854
43027W        W86121  30.795   8.020   5.445  0.5259 -0.2408  0.0356
43028W        W86122  29.310   9.496   4.346  0.0086  0.1035 -0.2795
43029W        W86123  32.605   8.044   7.504  0.1717  0.2915  0.0025
43030W        W86124  32.599  10.334   5.006  0.2206  0.0866 -0.1757
43031W        W86125  32.943  10.907   6.513  0.0451 -0.1504 -0.1519
43032W        W86126  32.959  11.175   4.570 -0.0443  0.2935  0.2491
43033W        W86127  30.113   9.149   6.778  0.0681 -0.0037 -0.0471
43034W        W86128  28.278   8.598   4.156 -0.0244 -0.1367  0.0164
43035W        W86129  29.119  11.303   4.896 -0.0803  0.1373  0.0079
43036W        W86130  31.466   9.456   5.413 -0.3477 -0.1499 -0.2873
43037W        W86131  29.874   8.444   5.343 -0.0014 -0.2337  0.0436
43038W        W86132  32.680   9.541   6.025 -0.3002 -0.0393 -0.5194
43039W        W86133  30.761   9.696   5.236  0.0255  0.0321 -0.0351
43040W        W86134  28.451   9.169   6.590 -0.1639  0.1974  0.1086
43041W        W86135  32.299   7.978   5.879 -0.1217  0.0428  0.0427
43042W        W86136  32.091   8.214   6.714  0.1736 -0.4692  0.0049
43043W        W86137  31.411  10.165   5.940  0.0526  0.0740  0.0959
43044W        W86138  28.702   8.676   4.530 -0.0951  0.1607 -0.0155
43045W        W86139  30.893  10.387   5.851 -0.0467  0.0037 -0.0089
43046W        W86140  28.617  10.588   3.375  0.2531 -0.2045  0.1761
43047W        W86141  27.448   8.303   4.410  0.1039  0.3061 -0.1667
43048W        W86142  30.128  10.231   5.357 -0.2351  0.1392  0.2415
43049W        W86143  31.048   7.018   4.542  0.0364  0.0490  0.1606
43050W        W86144  28.171  10.543   8.592 -0.1631  0.1365  0.0265
43051W        W86145  30.519   8.253   7.289 -0.1572 -0.1948 -0.1931
43052W        W86146  28.881   9.276   4.571  0.1193  0.0631 -0.3507
43053W        W86147  28.774  10.590   4.708  0.0889 -0.4196 -0.1778
43054W        W86148  32.627   7.528   3.671 -0.2426  0.2241  0.0308
43055W        W86149  31.679   7.709   3.679  0.1580 -0.1143 -0.1318
43056W        W86150  31.228  10.090   6.670  0.1812 -0.6479  0.0295
43057W        W86151  32.436  10.258   4.468 -0.2236  0.0905 -0.0082
43058W        W86152  30.534   7.359   5.171  0.0022  0.1271 -0.1652
43059W        W86153  30.678   8.326   5.046 -0.3223 -0.2549  0.0035
43060W        W86154  28.555   9.857   7.269 -0.3194 -0.1131  0.1680
43061W        W86155  31.262   9.063   4.672  0.2685 -0.0869  0.0480
43062W        W86156  32.790  10.823   5.830  0.3536  0.0163 -0.0848
43063W        W86157  30.222   9.727   3.522 -0.1819 -0.1611 -0.1585
43064W        W86158  33.090  10.341   5.130 -0.1295  0.0596 -0.0131
43065W        W86159  28.347   9.641   4.266  0.5046 -0.1090  0.1746
43066W        W86160  31.439   9.573   8.687  0.3347  0.1030 -0.1672
43067W        W86161  31.636  10.368   6.603  0.0980 -0.2812  0.1950
43068W        W86162  30.062   7.811   6.217  0.1827 -0.0100  0.2411
43069W        W86163  29.685   7.732   3.153 -0.0793  0.2791  0.0444
43070W        W86164  31.887   7.426   5.217  0.0760  0.0641 -0.1817
43071W        W86165  30.135  12.016   4.212 -0.1327  0.0281  0.0736
43072W        W86166  31.737   8.059   5.263 -0.0308 -0.3251  0.0341
43073W        W86167  31.526   6.427   5.586  0.2352  0.0937 -0.0237
43074W        W86168  30.353   8.422   7.878 -0.0057  0.2549 -0.2555
43075W        W86169  32.909   9.613   6.545  0.2571 -0.1968 -0.0128
43076W        W86170  31.278   8.451   5.329  0.2072  0.2270 -0.0183
43077W        W86171  31.695   9.892   5.652 -0.3414  0.1115 -0.1674
43078W        W86172  29.658   9.022   3.127  0.0593 -0.1303  0.3090
43079W        W86173  30.388   7.736   6.693 -0.0935 -0.1096  0.0317
43080W        W86174  30.519   9.095   6.072 -0.1344  0.4917  0.0887
43081W        W86175  28.861  10.969   6.742  0.2961 -0.0900  0.1818
43082W        W86176  31.830  11.262   5.594 -0.0913 -0.1135  0.0012
43083W        W86177  32.192   9.374   6.122 -0.0780 -0.2256  0.2600
43084W        W86178  31.241   7.917   6.458  0.0188 -0.0553 -0.0912
43085W        W86179  30.143   6.871   4.332 -0.0116  0.3426  0.2018
43086W        W86180  31.225  11.023   3.927  0.0152 -0.1193 -0.1561
43087W        W86181  31.377   7.817   4.118 -0.0953 -0.0938  0.0254
43088W        W86182  30.058   7.905   7.239 -0.1498  0.1634  0.0187
43089W        W86183  30.108  10.883   6.048 -0.0047 -0.2250  0.2171
43090W        W86184  30.429   9.256   3.474 -0.3161 -0.0340  0.0365
43091W        W86185  31.993   9.612   6.498  0.1176  0.1523  0.0943
43092W        W86186  28.862  11.285   4.479  0.2837  0.0863  0.0527
43093W        W86187  34.519   6.705   6.643  0.0036  0.3761  0.0832
43094W        W86188  28.992   9.856   6.118  0.2193 -0.3804  0.0067
43095W        W86189  29.969   7.936   4.413 -0.2174  0.2816 -0.1924
43096W        W86190  29.781  10.233   4.430  0.1896 -0.1631 -0.0477
43097W        W86191  32.096   7.634   6.183  0.1314  0.2225 -0.1625
43098W        W86192  32.177   9.751   5.760  0.0972  0.3180  0.0760
43099W        W86193  31.001   9.123   7.370 -0.2817  0.1444  0.2991
43100W        W86194  32.355   7.503   5.683  0.1421  0.0911 -0.0349
43101W        W86195  29.684   9.748   5.277  0.0080  0.0005  0.1561
43102W        W86196  31.423   7.980   6.942  0.2538 -0.3427 -0.4286
43103W        W86197  31.169   8.080   4.981 -0.2754 -0.1405  0.2535
43104W        W86198  30.742  10.354   7.177  0.2493 -0.0798  0.0753
43105W        W86199  30.431   8.867   9.162 -0.2447 -0.1532  0.3943
43106W        W86200  29.248   9.379   3.267 -0.2769  0.3132  0.1990
43107W        W86201  32.074   8.889   6.019 -0.0537  0.2980  0.0849
43108W        W86202  31.334   7.613   4.923  0.2198  0.0330  0.0392
43109W        W86203  29.568  10.470   3.329 -0.0441  0.0047  0.2335
43110W        W86204  31.300   9.820   5.067  0.0645 -0.1074 -0.1440
43111W        W86205  28.993   8.368   4.258  0.0522 -0.0229 -0.1809
43112W        W86206  30.938   9.814   4.142  0.1215 -0.0537  0.2028
43113W        W86207  30.519   9.116   7.112 -0.2583 -0.0152  0.0601
43114W        W86208  31.947   9.095   6.509 -0.0244 -0.1251 -0.2376
43115W        W86209  30.198   8.959   5.708 -0.3418  0.3211 -0.4032
43116W        W86210  30.601   7.971   5.909 -0.2715 -0.1316  0.1811
43117W        W86211  29.885   8.610   5.890  0.1233 -0.2011  0.1610
43118W        W86212  31.803   8.941   4.672  0.0028  0.2637  0.1779
43119W        W86213  29.798   9.242   7.353 -0.1230 -0.3272 -0.1929
43120W        W86214  30.620   9.163   7.699  0.1142  0.1783 -0.0320
43121W        W86215  31.646   7.750   7.856  0.1192 -0.2901  0.1297
43122W        W86216  34.078  10.350   5.691 -0.0819  0.1044 -0.0496
43123W        W86217  31.147   8.634   7.524 -0.0806  0.0763 -0.0779
43124W        W86218  28.494   9.082   3.310 -0.0683 -0.0164 -0.0891
43125W        W86219  28.802   9.249   5.393 -0.3056 -0.0481 -0.1354
43126W        W86220  30.344   9.779   4.285 -0.0614 -0.1692 -0.1746
43127W        W86221  32.500   7.316   6.202 -0.0384 -0.0739  0.1805
43128W        W86222  30.269   9.613   5.833  0.3206  0.1280  0.1071
43129W        W86223  30.211  11.098   5.126  0.4247 -0.0595 -0.1519
43130W        W86224  28.933  10.706   5.701 -0.1861  0.2329 -0.0800
43131W        W86225  33.044   8.610   4.673  0.0909  0.3939  0.0505
43132W        W86226  31.651  10.370   5.276  0.0697  0.0948  0.1562
43133W        W86227  30.461   7.522   6.022 -0.0250 -0.4109 -0.2019
43134W        W86228  32.445   8.328   6.375  0.1814 -0.0023  0.1082
43135W        W86229  30.594   9.396   4.456 -0.1806 -0.1483 -0.2023
43136W        W86230  31.734   7.714   6.567 -0.1070  0.0260  0.0830
43137W        W86231  29.581   7.870   7.502  0.0115  0.2229 -0.0355
43138W        W86232  32.889   9.125   5.881 -0.0755 -0.1612  0.1574
43139W        W86233  29.157   9.255   6.139  0.0076 -0.3121 -0.0749
43140W        W86234  31.942  11.123   6.928 -0.0430  0.1945 -0.1659
43141W        W86235  29.318   8.990   6.558  0.0834  0.2911 -0.1502
43142W        W86236  30.913   7.508   4.620 -0.1175  0.2110  0.0651
43143W        W86237  30.924   6.647   4.847 -0.0853  0.2703  0.3235
43144W        W86238  31.956  10.201   7.116  0.0792 -0.0145  0.0236
43145W        W86239  31.854  10.939   6.490 -0.2483  0.5308 -0.0293
43146W        W86240  31.130   9.364   4.266  0.1864  0.0620  0.2705
43147W        W86241  30.721   8.215   3.871 -0.1933 -0.0267  0.0369
43148W        W86242  30.152   9.467   6.331 -0.0186  0.1473  0.1893
43149W        W86243  30.694   8.434   4.598  0.2446 -0.1175  0.0786
43150W        W86244  31.541  10.229   4.778  0.2002  0.0488 -0.1033
43151W        W86245  30.032   8.489   6.422  0.2336  0.0936 -0.2015
43152W        W86246  31.765   7.389   7.516 -0.0942 -0.0742 -0.2221
43153W        W86247  32.642   9.973   5.646  0.0629 -0.1915 -0.1854
43154W        W86248  31.948   8.118   6.236  0.2948  0.0100 -0.0380
43155W        W86249  32.645   7.443   6.728 -0.3191  0.4521  0.1702
43156W        W86250  32.595   8.767   7.776 -0.1503 -0.3562 -0.0449
43157W        W86251  31.401   9.308   6.439  0.0556  0.0311  0.0938
43158W        W86252  29.154   7.704   7.126 -0.1754  0.2076 -0.2690
43159W        W86253  32.633  11.558   6.513 -0.1196  0.0375 -0.0769
43160W        W86254  32.421   9.680   3.408  0.0030  0.2120  0.1304
43161W        W86255  32.366   7.814   6.594  0.1756  0.1667  0.2431
43162W        W86256  32.010   9.487   5.361  0.2354 -0.1855  0.0054
43163W        W86257  31.443   7.958   4.591 -0.0835 -0.1109  0.2067
43164W        W86258  28.584   8.266   5.675 -0.0725  0.0421 -0.0631
43165W        W86259  31.004   8.183   7.265 -0.2665  0.2231 -0.1843
43166W        W86260  29.301   7.424   3.174  0.2750 -0.0226 -0.0622
43167W        W86261  31.573   8.179   5.696  0.0528  0.1321  0.0546
43168W        W86262  30.943   9.420   4.830  0.0720 -0.0716 -0.1597
43169W        W86263  31.073   9.088   5.306  0.0123  0.2064 -0.2552
43170W        W86264  31.583   8.298   6.548 -0.2748 -0.0691  0.0349
43171W        W86265  28.018   9.109   5.482 -0.2891  0.0035 -0.0701
43172W        W86266  30.280  10.099   7.182  0.2148 -0.2133 -0.2724
43173W        W86267  28.919   9.032   3.542  0.0304  0.2343 -0.2158
43174W        W86268  31.476   9.645   3.931  0.4283  0.0368 -0.1591
43175W        W86269  32.417  10.489   6.866  0.0797  0.4979  0.1177
43176W        W86270  31.808   8.852   7.336 -0.2079 -0.2739 -0.2201
43177W        W86271  31.817   6.852   5.223 -0.0556  0.0783  0.0394
43178W        W86272  31.349   8.850   6.611  0.0359  0.0092 -0.0290
43179W        W86273  29.485   9.599   5.805 -0.3120  0.1150  0.1050
43180W        W86274  32.200   6.479   5.128  0.1256  0.6000 -0.0275
43181W        W86275  29.110  10.191   5.706  0.0505  0.0227  0.0449
43182W        W86276  29.470  10.927   6.104  0.1088  0.2489  0.0736
43183W        W86277  30.275   9.199   5.290  0.0211  0.1412 -0.3883
43184W        W86278  31.608   7.768   6.092  0.0027 -0.1169 -0.1648
43185W        W86279  32.094  10.298   4.848  0.1701  0.0396 -0.1404
43186W        W86280  31.711   8.620   5.427 -0.4579  0.1144 -0.1354
43187W        W86281  31.755   8.752   6.820 -0.3913  0.0994 -0.3737
43188W        W86282  32.104  10.514   6.460 -0.0492 -0.0783 -0.0313
43189W        W86283  29.290   7.962   4.510  0.2268 -0.2439 -0.1092
43190W        W86284  30.203  10.546   5.725 -0.0751  0.1647  0.1223
43191W        W86285  32.635  10.358   3.989  0.1270 -0.1206 -0.2253
43192W        W86286  30.482   8.374   5.631 -0.3120 -0.0725 -0.0948
43193W        W86287  28.378   8.466   7.228 -0.1204 -0.2509 -0.0047
43194W        W86288  31.202   7.547   7.975  0.0177  0.1672 -0.4282
43195W        W86289  30.633   9.319   5.632  0.0083 -0.1679 -0.1147
43196W        W86290  30.247   7.739   4.976 -0.0224 -0.1294  0.0914
43197W        W86291  30.950  10.784   4.250  0.0116  0.2111 -0.0555
43198W        W86292  29.819  10.649   6.352  0.1184 -0.0151 -0.2927
43199W        W86293  28.268   9.657   6.241 -0.1355 -0.0222 -0.1392
43200W        W86294  29.632  11.776   3.705 -0.1318 -0.2554  0.0343
43201W        W86295  31.150   8.540   4.706  0.3294  0.0995  0.1961
43202W        W86296  31.949  11.160   5.117 -0.4146 -0.1886 -0.3034
43203W        W86297  31.396  10.594   5.721 -0.0962  0.0157 -0.1965
43204W        W86298  29.659   8.165   2.759 -0.2633 -0.1244  0.1573
43205W        W86299  29.196  11.170   6.485  0.0227 -0.0357  0.2051
43206W        W86300  30.705  11.073   3.916 -0.2770  0.1087  0.0173
43207W        W86301  32.725  11.221   3.834  0.1686  0.0522 -0.1843
43208W        W86302  30.458  10.079   5.876  0.3265  0.0379 -0.0479
43209W        W86303  32.094   9.195   7.027  0.0546 -0.0582 -0.0102
43210W        W86304  32.024   7.741   3.014  0.2777 -0.2058 -0.1727
43211W        W86305  33.934   8.981   5.633  0.1098 -0.1033 -0.0026
43212W        W86306  30.278   8.506   3.762 -0.2847  0.3539  0.2290
43213W        W86307  32.096  10.078   6.678 -0.1383 -0.1447  0.0298
43214W        W86308  32.069   8.293   5.606  0.1614 -0.2060  0.2410
43215W        W86309  31.483   7.453   4.484 -0.0749  0.1921 -0.2087
43216W        W86310  29.474   9.418   6.933 -0.1846  0.0267  0.1538
43217W        W86311  34.593   7.366   8.191  0.2426 -0.1896 -0.1743
43218W        W86312  28.990   9.175   7.962  0.0461 -0.0097 -0.1720
43219W        W86313  32.148  11.787   5.449  0.0300 -0.0335 -0.0322
43220W        W86314  30.726   7.857   4.859  0.3057 -0.0460  0.2618
43221W        W86315  28.398   9.115   4.407 -0.0511 -0.3626 -0.0761
43222W        W86316  32.962   8.168   4.920 -0.1429 -0.3000  0.1596
43223W        W86317  31.683   9.404   4.946 -0.1115 -0.1513 -0.1976
43224W        W86318  32.335   7.955   4.478 -0.2078  0.1562 -0.1262
43225W        W86319  29.614  11.842   4.204  0.0789  0.0917 -0.2451
43226W        W86320  31.200   9.800   6.167 -0.2353  0.4429  0.0465
43227W        W86321  29.879   9.366   5.596  0.2316 -0.1088  0.1683
43228W        W86322  28.536   7.715   3.720 -0.2948 -0.0283  0.1393
43229W        W86323  32.489   9.167   5.247 -0.0464  0.0725 -0.0638
43230W        W86324  30.431   8.602   6.098 -0.0185 -0.1959 -0.0664
43231W        W86325  31.691   7.502   7.014 -0.0303 -0.1330 -0.2058
43232W        W86326  30.687   9.576   6.082  0.2650 -0.1743 -0.1492
43233W        W86327  32.628   8.670   5.152 -0.0542  0.2482  0.0550
43234W        W86328  30.131  10.205   6.660  0.2445  0.0837 -0.0673
43235W        W86329  29.047   9.671   5.635 -0.2027  0.0176  0.1641
43236W        W86330  30.321   8.185   4.767 -0.1295  0.1361 -0.1168
43237W        W86331  32.687  10.214   6.486 -0.2545  0.0231 -0.2621
43238W        W86332  31.328   8.446   3.355  0.1760  0.0403 -0.1765
43239W        W86333  31.115  11.498   6.908  0.1080 -0.1170  0.3044
43240W        W86334  30.928   8.812   5.927 -0.3148  0.0375  0.1352
43241W        W86335  30.418   7.699   5.575 -0.1847  0.2842 -0.1193
43242W        W86336  29.884   9.340   4.998  0.0375  0.0102 -0.1299
43243W        W86337  28.494   9.484   5.751 -0.1850  0.2519  0.2149
43244W        W86338  32.452  10.975   6.773  0.1223  0.0593  0.1223
43245W        W86339  30.722   7.374   6.661 -0.2041 -0.4364 -0.2630
43246W        W86340  32.350   9.839   5.250 -0.4516  0.0262 -0.2991
43247W        W86341  31.953  10.170   6.005  0.2255 -0.1615 -0.2542
43248W        W86342  32.134  10.930   4.643 -0.1326 -0.2078  0.2245
43249W        W86343  33.934   8.078   5.918  0.1214  0.3084 -0.1227
43250W        W86344  31.840  11.720   5.939 -0.0129 -0.1266 -0.1852
43251W        W86345  29.242   7.364   6.077  0.0235 -0.0299 -0.1201
43252W        W86346  31.496  11.658   6.269  0.1000 -0.0272  0.0075
43253W        W86347  33.222   9.245   7.428 -0.1534  0.0329 -0.0345
43254W        W86348  30.725   8.836   5.027 -0.2401 -0.2701  0.2034
43255W        W86349  30.255   8.150   5.281  0.1256 -0.0664 -0.0070
43256W        W86350  29.914  10.696   5.306 -0.2278  0.1192  0.4366
43257W        W86351  32.501   8.794   6.324  0.0338  0.1799  0.0230
43258W        W86352  32.089   8.351   5.127 -0.1648  0.0116  0.0473
43259W        W86353  30.807  10.495   4.693  0.0168 -0.0935  0.0644
43260W        W86354  32.829   7.901   6.990 -0.0686  0.1479  0.1204
43261W        W86355  31.109  10.036   7.173 -0.1059  0.1299 -0.0700
43262W        W86356  31.748   9.696   7.822  0.6438 -0.1412 -0.2523
43263W        W86357  29.755   9.410   2.782  0.0209 -0.0048  0.0979
43264W        W86358  30.480   9.461   6.747  0.1544 -0.1181  0.2635
43265W        W86359  31.528   8.953   5.115 -0.1240 -0.0745  0.3223
43266W        W86360  30.293  11.501   5.373  0.2275 -0.1637  0.0751
43267W        W86361  32.905   9.869   5.202  0.1370  0.2278 -0.0950
43268W        W86362  31.761   8.513   5.979 -0.0299 -0.0310  0.0559
43269W        W86363  33.623   8.994   7.091  0.2404 -0.1829  0.1641
43270W        W86364  30.894   8.606   6.567  0.0108  0.0237  0.3385
43271W        W86365  33.478   7.901   5.504 -0.0609  0.1629  0.0835
43272W        W86366  31.914   8.080   4.745  0.1255  0.1169 -0.0294
43273W        W86367  29.221   9.015   5.655  0.3032  0.1213 -0.1025
43274W        W86368  29.165   9.371   3.837 -0.2534 -0.1535 -0.1162
43275W        W86369  30.933   9.330   3.774 -0.0950 -0.3222  0.3943
43276W        W86370  29.311   9.212   4.781 -0.5714  0.1958  0.1219
43277W        W86371  31.099   7.220   7.602  0.0748  0.2934 -0.0221
43278W        W86372  29.211   9.095   7.218  0.2698  0.2401  0.0553
43279W        W86373  28.373   9.431   4.763 -0.0955  0.1566 -0.1526
43280W        W86374  29.672   7.596   4.560 -0.0704  0.0620  0.0536
43281W        W86375  31.107  10.035   3.166 -0.0834  0.1175 -0.1966
43282W        W86376  31.275   8.480   6.956  0.2203  0.4689 -0.0216
43283W        W86377  29.337   7.441   6.616  0.1782 -0.2280 -0.0628
43284W        W86378  30.836   9.889   4.704  0.2363  0.2342  0.2324
43285W        W86379  31.686  10.722   4.899 -0.2080 -0.0330  0.1827
43286W        W86380  31.625   7.181   4.869 -0.0647  0.0290  0.1525
43287W        W86381  32.264  11.049   6.072 -0.1820  0.0984  0.2454
43288W        W86382  30.477  10.199   4.953  0.2189  0.2725  0.1286
43289W        W86383  30.934   7.952   8.125  0.2489  0.1624 -0.2664
43290W        W86384  30.505   7.332   7.542 -0.0551  0.2675 -0.1505
43291W        W86385  28.116   6.853   4.303  0.0521  0.0581 -0.0057
43292W        W86386  30.461   8.434   6.779 -0.0627 -0.1100 -0.3575
43293W        W86387  31.185  10.161   4.399 -0.0191  0.2642 -0.0910
43294W        W86388  31.784  11.828   4.055 -0.1803 -0.0052 -0.2234
43295W        W86389  30.925   9.802   5.712  0.0327 -0.1847 -0.4145
43296W        W86390  30.167   9.604   7.182 -0.0464 -0.1145  0.0426
43297W        W86391  29.209   6.972   6.531 -0.0238  0.0407  0.0274
43298W        W86392  31.113   9.332   5.915 -0.1673 -0.0506 -0.1120
43299W        W86393  30.548   9.696   7.508 -0.0539 -0.0323 -0.1515
43300W        W86394  33.804   9.525   5.207  0.2583 -0.2022  0.0997
43301W        W86395  32.910   6.685   6.822 -0.0153 -0.5256 -0.3471
43302W        W86396  30.530   8.923   6.611  0.1406  0.0905 -0.1167
43303W        W86397  30.130   7.147   6.270  0.1842 -0.1809  0.2608
43304W        W86398  29.470  10.180   5.994  0.2422 -0.0042  0.0945
43305W        W86399  32.744   8.626   5.661  0.2723  0.0923  0.0529
43306W        W86400  31.085   8.340   5.775  0.1540  0.0160  0.1142
43307W        W86401  32.189   8.005   3.886 -0.4296  0.2374  0.1064
43308W        W86402  30.448  10.044   3.866  0.1091  0.0506 -0.0924
43309W        W86403  29.381   8.820   5.057  0.2781  0.0527 -0.6176
43310W        W86404  31.100   7.835   5.943  0.3427  0.0187 -0.1958
43311W        W86405  32.108  10.445   7.566 -0.0598  0.0017 -0.0401
43312W        W86406  30.433   9.531   4.898  0.3540 -0.1769 -0.1711
43313W        W86407  32.675  10.885   5.119  0.0533 -0.2401 -0.2547
43314W        W86408  29.933   8.430   4.278  0.0010 -0.0993  0.0851
43315W        W86409  32.102  10.677   5.219 -0.4284  0.2651  0.1357
43316W        W86410  31.218  10.456   6.304 -0.1243  0.0784 -0.0598
43317W        W86411  32.630  11.163   7.350 -0.1042 -0.1074  0.0020
43318W        W86412  30.395  10.474   6.182 -0.1054  0.1725 -0.0236
43319W        W86413  32.853   8.168   5.843 -0.2492 -0.3434  0.1630
43320W        W86414  29.452   8.140   7.866 -0.1147  0.1396 -0.0985
43321W        W86415  30.775   8.921   4.537 -0.0003 -0.0457  0.1744
43322W        W86416  30.646   8.810   5.512 -0.1033  0.3249 -0.2355
43323W        W86417  33.264   6.960   6.167  0.0679 -0.1947  0.2173
43324W        W86418  29.341   7.586   5.549  0.4741  0.1901  0.2636
43325W        W86419  32.054   7.378   3.902  0.1431 -0.0364  0.0932
43326W        W86420  29.863  11.139   5.565 -0.1498  0.1675 -0.2866
43327W        W86421  32.363  10.778   4.180  0.0179  0.1489  0.2326
43328W        W86422  32.156   8.014  10.367 -0.1523 -0.1276 -0.1818
43329W        W86423  30.736   8.709   8.790 -0.2198 -0.0748  0.1492
43330W        W86424  32.284   8.405   8.966 -0.2493 -0.0479 -0.1001
43331W        W86425  32.036   8.986   7.791  0.1617  0.2262 -0.2246
43332W        W86426  31.285   6.637  10.079  0.1185 -0.0361  0.1033
43333W        W86427  31.041  11.866   9.703  0.1216  0.1172  0.2657
43334W        W86428  28.580  10.554   9.468 -0.2556 -0.1210 -0.1544
43335W        W86429  32.434  10.266  10.048  0.1024  0.1265 -0.1258
43336W        W86430  31.632   9.190   7.902  0.1811 -0.3373  0.0274
43337W        W86431  30.454   7.905   9.399  0.0246 -0.1511 -0.1582
43338W        W86432  29.658   7.399   8.576  0.1168 -0.0434 -0.2332
43339W        W86433  29.304   6.315  10.059  0.1669 -0.1879  0.2832
43340W        W86434  28.232   7.366   9.900 -0.1090  0.3822  0.3164
43341W        W86435  30.594  10.004   8.780  0.1567 -0.1349  0.1201
43342W        W86436  29.956   8.993   8.983 -0.0415  0.2497 -0.1779
43343W        W86437  31.033   7.581   8.641 -0.3835 -0.1753  0.1100
43344W        W86438  31.133  11.429   9.195  0.0090 -0.1292 -0.0490
43345W        W86439  29.269   8.194   9.693  0.0280 -0.1175 -0.2052
43346W        W86440  31.052   8.705   8.421 -0.2070  0.0164  0.0365
43347W        W86441  28.729   7.714   7.892 -0.2985 -0.2343  0.1319
43348W        W86442  29.834   7.656   9.701  0.0963 -0.2092 -0.0976
43349W        W86443  28.358  10.994   9.534 -0.1483 -0.5397  0.1540
43350W        W86444  30.678   8.184  10.471 -0.0915  0.0786  0.0217
43351W        W86445  32.659   7.892   9.660  0.1430  0.1318 -0.2950
43352W        W86446  30.687   9.950  10.071  0.1035 -0.0227 -0.1145
43353W        W86447  32.092  10.027   9.187 -0.2133  0.1030  0.1613
43354W        W86448  28.808  10.110   7.722  0.1851 -0.4938  0.0601
43355W        W86449  29.233  10.032   8.454 -0.2905  0.1343 -0.0827
43356W        W86450  30.254   9.405   9.259  0.1096  0.0616 -0.0681
43357W        W86451  31.049   9.527   9.881 -0.1075 -0.0407 -0.0964
43358W        W86452  30.155   9.982   6.240  0.1101 -0.0517  0.0413
43359W        W86453  31.164   9.066   8.718  0.0418  0.1491  0.1832
43360W        W86454  30.227   9.077  10.245  0.1063  0.1130 -0.0341
43361W        W86455  32.140   9.868   8.279  0.4942 -0.1995 -0.3530
43362W        W86456  31.305   9.316   8.284  0.0608 -0.2391  0.3514
43363W        W86457  27.502   9.851   8.837  0.1515  0.0431 -0.1967
43364W        W86458  30.018  11.141   7.399 -0.2153 -0.0812 -0.1023
43365W        W86459  31.277   8.037   7.705  0.2205 -0.0537 -0.2319
43366W        W86460  30.873   7.750   7.628  0.1261  0.2067  0.1605
43367W        W86461  32.215   8.539   7.703 -0.1707 -0.1011  0.0534
43368W        W86462  30.918   6.608   9.411 -0.1563  0.0601 -0.1623
43369W        W86463  29.045   9.628   9.861 -0.1273  0.0410 -0.0307
43370W        W86464  30.528   7.599   8.593 -0.0726 -0.1001  0.2396
43371W        W86465  31.114   9.000   7.865 -0.1626  0.0662  0.0884
43372W        W86466  30.383   7.449   9.599 -0.1994  0.1371 -0.1182
43373W        W86467  30.664   9.677   9.155 -0.0034 -0.2872  0.3572
43374W        W86468  29.014   8.373   8.349 -0.1624 -0.5453 -0.0972
43375W        W86469  31.583  10.418   7.629  0.1845  0.0711  0.1131
43376W        W86470  33.336   9.281  10.280 -0.0526 -0.0976 -0.0553
43377W        W86471  30.850  10.709   7.863  0.2447 -0.2816 -0.0982
43378W        W86472  30.160   7.628   8.931 -0.7008 -0.1666 -0.1326
43379W        W86473  29.898   7.058   7.271  0.1261 -0.0393  0.1254
43380W        W86474  32.136   7.555   8.864 -0.0671  0.1592  0.2269
43381W        W86475  31.645   9.090  10.083  0.0007  0.1479  0.2634
43382W        W86476  33.276   9.046   9.699 -0.2076 -0.1818  0.1056
43383W        W86477  31.677  10.570   6.139  0.1235  0.0321 -0.2511
43384W        W86478  31.815   6.462   9.810  0.1287  0.3884 -0.1799
43385W        W86479  32.220   7.629  10.029 -0.2146  0.0549 -0.1689
43386W        W86480  29.872   9.763   6.792 -0.0757  0.1514 -0.0179
43387W        W86481  30.846   8.228   7.737  0.1555 -0.1254 -0.0021
43388W        W86482  30.276  10.707  12.943 -0.1283 -0.0691  0.4267
43389W        W86483  31.958   8.521   8.113  0.0508 -0.2357  0.1997
43390W        W86484  29.492  11.259   9.267  0.1416  0.0957  0.2326
43391W        W86485  30.538  10.853   7.463 -0.0797  0.2041  0.1104
43392W        W86486  29.136  10.395   8.767 -0.1330 -0.1112  0.1633
43393W        W86487  30.376   9.280   8.156  0.4230 -0.0781  0.0409
43394W        W86488  29.891   9.613   8.958 -0.3843  0.0768  0.1636
43395W        W86489  29.864  10.509  10.317  0.2599 -0.0872  0.1788
43396W        W86490  33.014   6.957   8.866 -0.1318  0.1524  0.3357
43397W        W86491  31.632   6.200   8.605  0.3151  0.3956  0.1288
43398W        W86492  30.164   9.902   9.266 -0.1578 -0.1070 -0.0491
43399W        W86493  33.015  10.924   8.797 -0.2429  0.0486 -0.2482
43400W        W86494  33.197   8.950   8.196 -0.1597 -0.2518  0.4812
43401W        W86495  31.927  10.644   6.903 -0.2760 -0.1288  0.3318
43402W        W86496  30.393   8.378   9.059  0.3480 -0.0117  0.1041
43403W        W86497  30.464   6.951   9.608 -0.5914  0.2073 -0.2981
43404W        W86498  29.183   7.130  10.168  0.0837 -0.2809  0.0386
43405W        W86499  29.736   6.647   9.285 -0.5086 -0.0715  0.0009
43406W        W86500  32.261   8.234   8.432 -0.1114  0.0969  0.2131
43407W        W86501  30.307   8.026   8.691 -0.0186  0.0186 -0.2453
43408W        W86502  30.226   8.831   8.185  0.2590 -0.0420 -0.0817
43409W        W86503  31.729  10.114   8.855 -0.1497  0.2653 -0.0557
43410W        W86504  31.443   9.941   9.997 -0.2863 -0.2396 -0.1593
43411W        W86505  31.808  10.061   9.683  0.0216  0.0556 -0.3973
43412W        W86506  30.087   7.424  10.073  0.0692  0.2519 -0.1563
43413W        W86507  29.799   8.612   8.002  0.0748 -0.0782  0.1072
43414W        W86508  30.442  10.408   8.502  0.0477 -0.1493  0.0095
43415W        W86509  30.808   8.293   9.335  0.0495 -0.0567 -0.0429
43416W        W86510  29.779   7.024   8.895  0.2502  0.4097 -0.1305
43417W        W86511  33.721   9.271   9.938 -0.0735 -0.1658  0.0393
43418W        W86512  31.773   8.313   8.960 -0.1966  0.0384 -0.0350
43419W        W86513  32.135   7.060  10.513 -0.1366 -0.0130 -0.2397
43420W        W86514  32.922   8.661   8.549  0.1495 -0.1699  0.1383
43421W        W86515  29.990   7.519   7.560  0.0111 -0.0707 -0.0071
43422W        W86516  29.588   9.682   9.869 -0.2323 -0.2347 -0.0618
43423W        W86517  28.937  10.001   9.034 -0.1838 -0.1337 -0.0974
43424W        W86518  28.668   8.932   9.383 -0.2016 -0.0414  0.0203
43425W        W86519  31.768   9.202   8.744  0.0304  0.0090  0.4127
43426W        W86520  30.898   6.388  10.433 -0.0118  0.1185  0.0572
43427W        W86521  29.137   8.774   7.581 -0.2836  0.0733 -0.3541
43428W        W86522  31.801   7.010   8.853 -0.2311 -0.1465  0.0794
43429W        W86523  32.152   8.239   7.315  0.2779  0.0936 -0.1077
43430W        W86524  32.338   9.461   8.475 -0.3785 -0.1452 -0.0748
43431W        W86525  30.766   8.720   7.055 -0.1357  0.0184 -0.2627
43432W        W86526  31.800   6.781   8.372 -0.0553 -0.0042 -0.3585
43433W        W86527  32.114  10.550   9.234  0.0189  0.0415  0.0026
43434W        W86528  28.948   8.363  10.060  0.0380 -0.2861  0.1707
43435W        W86529  31.908   7.934   8.697 -0.3506  0.1877  0.0742
43436W        W86530  32.592  10.033   8.468 -0.1079 -0.2689 -0.3407
43437W        W86531  30.825   9.283  10.473 -0.0256 -0.4703 -0.0375
43438W        W86532  31.468   9.059   9.177 -0.0742 -0.4486  0.1393
43439W        W86533  30.766   7.146   8.740  0.1801 -0.1088 -0.1887
43440W        W86534  29.993   8.380   7.496  0.1434 -0.4793  0.2945
43441W        W86535  32.113   7.966   9.172  0.3127 -0.2710 -0.2807
43442W        W86536  29.119  11.182   8.411 -0.2501  0.0121  0.1629
43443W        W86537  31.750   7.562   9.739  0.1309  0.0863 -0.1406
43444W        W86538  31.391   7.929   8.885  0.0435  0.0156 -0.0068
43445W        W86539  31.548   8.732   7.776 -0.0212  0.1145 -0.0212
43446W        W86540  31.354   7.399  10.619 -0.2429 -0.0561  0.2988
43447W        W86541  29.639   8.809   7.563 -0.0034  0.3133 -0.3307
43448W        W86542  30.785   6.015   9.974  0.0197  0.0152  0.0688
43449W        W86543  28.687  12.437   9.786  0.0214 -0.0307  0.0833
43450W        W86544  31.953   8.375   9.448 -0.1217  0.2109  0.0431
43451W        W86545  31.992   6.961   7.766  0.1522 -0.2454  0.2148
43452W        W86546  29.660  10.064   8.101  0.2404 -0.0774  0.4165
43453W        W86547  31.684   9.361   6.791 -0.0287 -0.0178 -0.1901
43454W        W86548  30.743   7.981   8.902  0.1271  0.3138  0.0309
43455W        W86549  30.233  11.220   9.586 -0.1688 -0.0358 -0.0028
43456W        W86550  29.686  10.042   7.199 -0.3153  0.0112 -0.0583
43457W        W86551  28.812   9.513   9.351  0.1927  0.3279 -0.2922
43458W        W86552  29.877   9.258   8.552  0.1599  0.0692 -0.1287
43459W        W86553  31.003   7.833   9.348 -0.0239  0.1717 -0.1099
43460W        W86554  29.709   9.731   8.523 -0.1212  0.3435  0.1798
43461W        W86555  30.626   8.329   8.379  0.1002 -0.0201 -0.0394
43462W        W86556  28.512   9.851   8.549 -0.1422  0.1581  0.0015
43463W        W86557  32.268   6.995   9.098  0.0424  0.0412  0.0897
43464W        W86558  31.163   8.210   8.581 -0.1883  0.2832  0.0179
43465W        W86559  28.757   9.198   9.799 -0.1348 -0.0524 -0.0171
43466W        W86560  30.555   6.697   8.620 -0.1271  0.1091  0.1064
43467W        W86561  28.585  10.284   8.752  0.0264 -0.2386 -0.2290
43468W        W86562  31.505   6.780   7.421  0.1274 -0.1147  0.1018
43469W        W86563  29.397   6.935   8.434  0.2181 -0.1737 -0.3072
43470W        W86564  30.946   7.628  10.757  0.2983 -0.0782  0.1649
43471W        W86565  33.496  10.004   9.776  0.0063 -0.0797 -0.1713
43472W        W86566  30.731   9.113   9.964  0.0251 -0.1067 -0.0061
43473W        W86567  31.481   9.625   9.608 -0.3000 -0.5231 -0.0880
43474W        W86568  29.406   9.237   7.731  0.0731 -0.0841  0.2625
43475W        W86569  30.280  10.361   9.012  0.0473 -0.4374 -0.0776
43476W        W86570  30.744   8.543  10.089  0.2246 -0.1369 -0.1503
43477W        W86571  31.305   7.758   9.907 -0.1752 -0.2422  0.0785
43478W        W86572  31.199   8.478   8.999  0.2171  0.2757 -0.2370
43479W        W86573  30.327   9.055   8.630  0.1925  0.1817 -0.2397
43480W        W86574  31.538   8.680   9.547  0.3191  0.1413 -0.1362
43481W        W86575  30.033  10.457   9.430  0.0482  0.2735 -0.1859
43482W        W86576  29.901   6.150   8.706  0.1735  0.1912 -0.1924
43483W        W86577  33.507  10.573   7.172  0.1524 -0.2671 -0.0422
43484W        W86578  30.723   8.747   8.083 -0.0409  0.2518  0.3808
43485W        W86579  29.068   7.896   8.774  0.3714  0.1372 -0.1764
43486W        W86580  30.529   9.970   8.232 -0.1499  0.2099 -0.4332
43487W        W86581  30.222   7.161   8.744  0.2297  0.2024 -0.3309
43488W        W86582  29.462   9.823   8.912 -0.1519  0.0398  0.2883
43489W        W86583  31.255   9.077   9.688 -0.0497 -0.0312 -0.1500
43490W        W86584  29.041  10.881   8.942  0.3155  0.1413  0.0867
43491W        W86585  31.300   6.814   8.394 -0.2292 -0.0446 -0.2337
43492W        W86586  31.986   9.688   7.029  0.0022 -0.2825  0.4025
43493W        W86587  32.768   8.189   8.475  0.1715  0.0647 -0.0208
43494W        W86588  31.732   7.862   7.343 -0.1339  0.0745 -0.0014
43495W        W86589  31.293   7.386   9.563 -0.5800 -0.0232 -0.0773
43496W        W86590  32.093  10.494   9.695  0.1176  0.1017 -0.6528
43497W        W86591  31.782   8.231   7.735  0.2363 -0.0297 -0.1590
43498W        W86592  29.946   7.519   6.708  0.6714 -0.1912  0.0612
43499W        W86593  29.947   9.059   9.488 -0.0461  0.1770 -0.0132
43500W        W86594  32.829   8.869   8.990 -0.5253 -0.5896  0.1131
43501W        W86595  31.667   8.348   7.188  0.1881 -0.0248  0.1214
43502W        W86596  32.769   8.010  10.157 -0.1788 -0.0085 -0.3937
43503W        W86597  29.471  10.174  10.316  0.1241 -0.1224  0.0970
43504W        W86598  31.664  10.575   9.429 -0.0584  0.2106  0.1663
43505W        W86599  32.700   7.271   8.346  0.0885 -0.2723 -0.4001
43506W        W86600  30.116   9.882   9.808  0.0021  0.1118  0.5518
43507W        W86601  33.033   8.770  10.123  0.2174 -0.0355  0.1265
43508W        W86602  32.168   7.148  10.010 -0.1323  0.1714  0.1194
43509W        W86603  31.348  13.514   9.644 -0.0539 -0.3740  0.1090
43510W        W86604  32.542   8.153   7.972  0.2103 -0.1192  0.1184
43511W        W86605  32.004   8.811   9.802  0.1513  0.1537 -0.1052
43512W        W86606  32.355   7.450   9.265  0.0690 -0.1602 -0.0518
43513W        W86607  31.331   7.112   8.777  0.1408  0.4460  0.1517
43514W        W86608  29.425   7.842   9.307 -0.0348  0.1309 -0.1681
43515W        W86609  29.069   7.945   7.520 -0.1066 -0.0717 -0.0175
43516W        W86610  31.849  10.177   7.970  0.0180 -0.1949 -0.1492
43517W        W86611  31.083   7.343  10.169  0.1873  0.1354  0.0197
43518W        W86612  31.537   7.111   7.937 -0.0892  0.0904  0.0063
43519W        W86613  29.740   6.437   9.838  0.3660 -0.0848 -0.0525
43520W        W86614  29.460   8.722   6.160  0.1551 -0.1043  0.2193
43521W        W86615  30.538   7.137   8.336  0.1162  0.3701 -0.0764
43522W        W86616  31.204   8.159  10.168 -0.1129 -0.1945 -0.1232
43523W        W86617  31.831   7.031   7.155  0.0996  0.1641 -0.2298
43524W        W86618  31.591   9.918   8.381  0.1213 -0.1966 -0.0514
43525W        W86619  31.882   6.274   9.284  0.1618 -0.1109  0.1251
43526W        W86620  30.537   9.618   9.723 -0.0118 -0.2074  0.0963
43527W        W86621  31.015   8.861   9.263  0.2325  0.0173  0.1774
43528W        W86622  30.612   7.525   9.129  0.2309 -0.1822  0.1507
43529W        W86623  28.733   7.548  10.267  0.0983 -0.0337  0.0814
43530W        W86624  31.761   9.463   8.312 -0.2736 -0.2492 -0.0600
43531W        W86625  30.812   8.044   9.797  0.3780 -0.0819  0.3748
43532W        W86626  32.949   8.719   9.493 -0.2877  0.1674 -0.2867
43533W        W86627  30.179  11.842   9.080  0.1879 -0.1217 -0.1927
43534W        W86628  32.037   9.646   9.530  0.1218 -0.0889 -0.0518
43535W        W86629  29.559   7.873   8.793 -0.0271 -0.0333 -0.2478
43536W        W86630  31.715   9.563   9.143  0.1617  0.2668 -0.2407
43537W        W86631  29.777   9.503   9.415  0.3126 -0.1727 -0.0155
43538W        W86632  30.046   9.619   8.081 -0.0243 -0.0739  0.0089
43539W        W86633  31.611   9.929   7.403  0.2171 -0.1577  0.0055
43540W        W86634  31.259   8.396   8.068  0.0710 -0.4122 -0.0133
43541W        W86635  30.018  12.799   9.711 -0.1783  0.0910 -0.1250
43542W        W86636  31.659   7.470   8.851  0.1984 -0.0200  0.0430
43543W        W86637  28.527  10.854   7.483  0.1401  0.0306 -0.0312
43544W        W86638  29.220  10.298   7.990 -0.2618 -0.1715  0.0091
43545W        W86639  31.794   9.217   9.603 -0.1072  0.0784 -0.0851
43546W        W86640  30.872   9.507   8.755  0.0567  0.1512  0.3273
43547W        W86641  32.275   7.293   7.428  0.2597  0.1179  0.3511
43548W        W86642  32.789   8.367   8.992 -0.0401 -0.0725 -0.0840
43549W        W86643  32.884   8.544   8.078 -0.3535  0.0394 -0.2362
43550W        W86644  31.761  10.938  10.190 -0.0889 -0.0538 -0.1934
43551W        W86645  30.691   7.455   8.005 -0.1074  0.1484  0.2742
43552W        W86646  32.229  11.722   9.037 -0.1169 -0.2578 -0.1259
43553W        W86647  29.780   9.139   8.020 -0.3675  0.2475 -0.1466
43554W        W86648  30.200   8.395  10.179 -0.2447 -0.4407  0.0780
43555W        W86649  30.495   7.637  10.522 -0.1709  0.2085  0.1717
43556W        W86650  31.864   8.819   9.147 -0.1341  0.2893 -0.3053
43557W        W86651  32.418   8.712   8.266 -0.0619  0.0570 -0.1989
43558W        W86652  30.147   8.842   7.693 -0.1308 -0.1096  0.0850
43559W        W86653  29.522  10.560   9.606  0.0625 -0.1327  0.3656
43560W        W86654  27.769  10.030   9.708  0.1592  0.0411  0.1083
43561W        W86655  29.172   7.314   8.804 -0.1751  0.1531 -0.0260
43562W        W86656  32.662   7.865   9.167 -0.1261 -0.2951 -0.1481
43563W        W86657  29.501   8.640   9.659  0.2604  0.1262  0.0019
43564W        W86658  28.521   9.287   8.947  0.0200  0.1378 -0.4798
43565W        W86659  31.683   7.921  10.235  0.1153  0.1325 -0.2286
43566W        W86660  30.666   8.699   9.570 -0.1955 -0.1626  0.1610
43567W        W86661  28.740   8.793   8.870  0.2204  0.3626  0.2299
43568W        W86662  30.934   8.159   6.758  0.1609 -0.3643 -0.2675
43569W        W86663  30.212   8.758   7.192 -0.1281  0.0782 -0.1961
43570W        W86664  29.918   7.845   8.375  0.3414  0.0340 -0.2196
43571W        W86665  32.551   6.787   8.763  0.0940 -0.0228 -0.2415
43572W        W86666  28.300   9.409   8.497 -0.0960 -0.4281 -0.0179
43573W        W86667  30.872   7.142   9.324  0.0638 -0.0319 -0.0629
43574W        W86668  30.280   8.583   8.638 -0.0107  0.0931  0.2355
43575W        W86669  32.396  11.018   5.554  0.0879 -0.4929  0.2081
43576W        W86670  32.484   9.699   8.926 -0.0493  0.2345  0.1394
43577W        W86671  30.869  10.310   8.180 -0.0170  0.1070  0.0571
43578W        W86672  31.226  10.752   9.566  0.0890  0.2837 -0.1775
43579W        W86673  32.589  10.663   9.604  0.2312 -0.0586  0.1829
43580W        W86674  31.032   6.778  10.822 -0.1318  0.0655 -0.0113
43581W        W86675  33.783  11.323  10.250  0.4833 -0.4260  0.0229
43582W        W86676  30.343   9.602  10.197  0.0376  0.0205 -0.0771
43583W        W86677  31.973   7.346   8.116  0.0945  0.3747  0.0016
43584W        W86678  30.196   8.774   9.828 -0.0631 -0.0107  0.1181
43585W        W86679  30.195   9.924   7.719  0.1296  0.0288 -0.1183
43586W        W86680  32.902   6.738  10.205 -0.2767 -0.1417  0.3091
43587W        W86681  31.297  10.252   8.522 -0.1384  0.1539 -0.1746
43588W        W86682  30.799  10.385   9.844  0.2350  0.2480 -0.0608
43589W        W86683  29.723   9.682   7.645  0.0979 -0.4660 -0.1235
43590W        W86684  31.094  10.338   7.631  0.1119  0.3091  0.2704
43591W        W86685  31.411  10.457   8.096 -0.1313  0.0158 -0.2535
43592W        W86686  33.310  10.296  10.129  0.3157  0.3956  0.0982
43593W        W86687  32.602   8.901   9.942 -0.1060 -0.1349  0.2995
43594W        W86688  32.927  10.570   9.984  0.0233  0.0078 -0.0727
43595W        W86689  29.710   7.464   9.105  0.1224 -0.1088  0.0777
43596W        W86690  32.191   7.138   8.607 -0.0586  0.0879 -0.3038
43597W        W86691  32.530   6.611   9.283 -0.2748  0.1124  0.2334
43598W        W86692  30.063   9.390   9.853  0.3244  0.0346  0.2362
43599W        W86693  29.357   8.366   8.797 -0.1544 -0.0180 -0.4358
43600W        W86694  29.705   9.782   6.222 -0.1729 -0.0376 -0.0502
43601W        W86695  30.375   8.299   9.685 -0.0721 -0.0066  0.0790
43602W        W86696  28.459   9.782   9.069  0.1323  0.0074 -0.1818
43603W        W86697  29.955   7.973   9.261  0.1137 -0.1448  0.0139
43604W        W86698  28.839  12.412  12.713 -0.0122  0.0830 -0.0347
43605W        W86699  30.818   9.268   9.469  0.3096 -0.4207 -0.0031
43606W        W86700  31.438   6.499  10.518 -0.1328 -0.2286  0.1794
43607W        W86701  31.554   8.711   8.783  0.0326  0.2135  0.3201
43608W        W86702  32.667  10.146   9.011 -0.0525 -0.3297  0.1084
43609W        W86703  31.408   7.868   8.328  0.0152  0.1558 -0.1096
43610W        W86704  29.551   9.537   8.132 -0.2790 -0.1508  0.0706
43611W        W86705  28.597   7.177   8.056 -0.1535 -0.0251 -0.0847
43612W        W86706  31.111   8.519   9.710  0.0492 -0.0628  0.2509
43613W        W86707  32.992  10.930   9.640  0.0336  0.0569 -0.1578
43614W        W86708  30.991  10.733   8.315 -0.0296 -0.0494  0.1793
43615W        W86709  30.864   7.808  10.210  0.3810 -0.0333 -0.1147
43616W        W86710  31.389   9.027   7.070 -0.0373 -0.1173  0.0069
43617W        W86711  32.120   9.379   7.996  0.2211  0.0524 -0.0800
43618W        W86712  33.577   6.315  10.049  0.0097  0.2833 -0.0275
43619W        W86713  33.031   9.218   8.589  0.3337  0.1823 -0.0035
43620W        W86714  32.305   9.274   9.793 -0.0452 -0.2793 -0.1786
43621W        W86715  29.970   7.102   8.334  0.1688 -0.0251  0.0941
43622W        W86716  31.198   6.669   7.845  0.2080 -0.0594 -0.0653
43623W        W86717  31.515   8.834   8.249 -0.1103 -0.2419  0.0433
43624W        W86718  29.504   8.836   9.005  0.4345  0.1138  0.0859
43625W        W86719  31.612   8.316   8.451 -0.1515  0.2271 -0.1714
43626W        W86720  32.150   8.981  10.278  0.3571  0.4400  0.0585
43627W        W86721  30.112   8.320   8.266 -0.1175 -0.1539 -0.0806
43628W        W86722  32.048   9.041   8.295  0.0526 -0.1496 -0.0249
43629W        W86723  33.426  11.653  12.460 -0.1885 -0.1638  0.1817
43630W        W86724  29.210  11.895   9.344  0.2743  0.1575  0.4407
43631W        W86725  31.955   9.675   8.717 -0.1668  0.0659 -0.0469
43632W        W86726  30.840   6.877  10.308  0.2172 -0.0727  0.0263
43633W        W86727  30.785   9.147   8.373 -0.1536 -0.0957 -0.1480
43634W        W86728  31.409   8.157   9.557  0.0881  0.0849  0.0834
43635W        W86729  32.010   8.696   8.672 -0.0212 -0.0236  0.1489
43636W        W86730  29.219   7.923   8.262  0.1452  0.0661 -0.0808
43637W        W86731  31.026   6.392   8.592  0.2095 -0.0271  0.4031
43638W        W86732  29.351  10.150   9.280 -0.2146  0.1073  0.0024
43639W        W86733  29.675  11.647   9.005 -0.0136 -0.1836 -0.1073
43640W        W86734  30.267  12.572   2.479 -0.0422  0.1216 -0.1495
43641W        W86735  28.897  11.596   1.307 -0.2530  0.2661 -0.2112
43642W        W86736  30.691  12.189   1.425 -0.1306  0.0137  0.0888
43643W        W86737  31.985  13.545   0.026 -0.1296  0.0087 -0.0959
43644W        W86738  27.769  12.287   1.130  0.1496  0.4292  0.1149
43645W        W86739  32.578  13.556   1.289  0.1361  0.1441 -0.2384
43646W        W86740  30.523  10.205   3.398 -0.0250 -0.1739 -0.0673
43647W        W86741  31.015  13.739   1.445 -0.2064  0.0014 -0.0970
43648W        W86742  33.107  13.926   1.867 -0.0389 -0.0891 -0.0481
43649W        W86743  32.229  13.103  31.930 -0.0409  0.0373  0.1351
43650W        W86744  29.122  12.770   2.142  0.2203 -0.0579  0.0228
43651W        W86745  30.541  14.394   3.397 -0.0984  0.2644  0.0001
43652W        W86746  31.159  11.352   0.702  0.1885  0.0257  0.0973
43653W        W86747  28.049  12.238   2.422 -0.0348 -0.0671 -0.2741
43654W        W86748  31.103  13.706   0.956  0.1509 -0.1471  0.1046
43655W        W86749  27.636  13.432  31.783 -0.0362 -0.0896  0.1651
43656W        W86750  29.646  12.697   2.333 -0.0454  0.1976  0.0893
43657W        W86751  31.520  12.851   1.473  0.1717 -0.0494 -0.0965
43658W        W86752  30.568  14.418   1.937  0.1958  0.1393  0.1020
43659W        W86753  31.484  11.947   2.550  0.1582 -0.1711  0.1691
43660W        W86754  32.564  12.175   3.357 -0.5650  0.1555 -0.2594
43661W        W86755  30.288  13.570   0.150 -0.2448 -0.0845 -0.2364
43662W        W86756  29.925  13.737  31.854 -0.3340 -0.1579  0.2686
43663W        W86757  28.631  11.787   0.853 -0.0874  0.1892  0.0341
43664W        W86758  30.441  12.088   1.865  0.2657  0.2571  0.0341
43665W        W86759  33.887  11.088   2.580  0.2009 -0.1936  0.2291
43666W        W86760  33.321  12.963   1.230 -0.1489 -0.4094 -0.4558
43667W        W86761  32.107  14.055   0.403 -0.0023 -0.0064 -0.0506
43668W        W86762  29.913  14.338   0.955 -0.1196 -0.0409 -0.3818
43669W        W86763  32.027  12.579   3.859  0.2691 -0.1211 -0.1164
43670W        W86764  28.755  12.766   0.503 -0.0225 -0.0055 -0.0087
43671W        W86765  29.916  15.644   0.423  0.0451 -0.0042 -0.1944
43672W        W86766  30.301  14.872   0.822 -0.1714 -0.0446 -0.4182
43673W        W86767  32.658  13.127   0.954 -0.0703  0.3923 -0.2334
43674W        W86768  31.702  13.487   2.835  0.1977  0.0840  0.4186
43675W        W86769  30.404  13.405   2.978 -0.0160 -0.1768  0.0585
43676W        W86770  29.201  13.019   0.645 -0.1011  0.2615 -0.2731
43677W        W86771  30.632  12.251   2.841  0.2076 -0.2545  0.0121
43678W        W86772  30.331  13.553   4.191 -0.0265 -0.0881 -0.0855
43679W        W86773  31.038  14.072   1.954 -0.0421 -0.2510  0.0076
43680W        W86774  31.170  12.790   1.019 -0.1279  0.0265 -0.1892
43681W        W86775  29.961  13.167   0.215  0.0372 -0.2415 -0.2348
43682W        W86776  29.994  11.335   1.154  0.0518 -0.2137 -0.2736
43683W        W86777  30.385  14.528   2.498 -0.2324  0.1720  0.0171
43684W        W86778  29.221  13.689   1.121 -0.1151  0.1588  0.0651
43685W        W86779  31.836  12.448   5.860 -0.0118  0.2819 -0.3429
43686W        W86780  29.998  12.401   0.252  0.0923  0.0259 -0.0147
43687W        W86781  30.185  12.373  31.683 -0.0344  0.2204 -0.1058
43688W        W86782  29.077  11.567   0.677 -0.0453  0.0367 -0.3718
43689W        W86783  31.401  11.355   1.130 -0.2109  0.2618  0.0176
43690W        W86784  32.069  10.981   2.098  0.1785  0.0387 -0.1185
43691W        W86785  29.615  14.159   1.423  0.1150 -0.0317 -0.2292
43692W        W86786  29.970  11.142   0.540  0.2188 -0.0244 -0.1319
43693W        W86787  31.441  14.005   2.299  0.0022  0.0576 -0.0461
43694W        W86788  30.439  12.624   0.103  0.0476 -0.0766 -0.1884
43695W        W86789  31.253  13.381   2.616 -0.0743  0.1407  0.0206
43696W        W86790  28.601  14.927   2.671 -0.1156  0.0681 -0.0503
43697W        W86791  31.369  11.758   1.460 -0.0819 -0.1037 -0.4346
43698W        W86792  31.542  13.241  31.187  0.1963  0.1343  0.0316
43699W        W86793  32.429  14.337   1.118 -0.0487 -0.0338  0.0196
43700W        W86794  31.616  12.253   0.323  0.2912  0.2788 -0.2037
43701W        W86795  29.490  12.895  31.180  0.2614  0.1361  0.3009
43702W        W86796  28.799  13.027   4.085 -0.0365  0.1149 -0.1252
43703W        W86797  30.071  12.130   2.627  0.1150 -0.1685  0.0217
43704W        W86798  28.536  10.685   0.158 -0.1187  0.4700  0.2920
43705W        W86799  32.012  14.628   3.322 -0.3137  0.1712  0.1032
43706W        W86800  28.544  14.422   2.470  0.1494 -0.1321 -0.0867
43707W        W86801  32.206  12.387   0.276  0.1961 -0.1758  0.2912
43708W        W86802  29.354  13.470   0.719  0.0930  0.0589 -0.0672
43709W        W86803  32.894  13.031   1.432  0.4202  0.0354 -0.0436
43710W        W86804  31.261  13.605   0.464  0.0029 -0.0301  0.2843
43711W        W86805  32.224  10.532   1.884 -0.0943 -0.1256 -0.1352
43712W        W86806  32.842  10.903   2.591 -0.0140  0.2662  0.0605
43713W        W86807  30.686  13.356  31.820 -0.0619 -0.2536  0.0763
43714W        W86808  29.811  12.446   0.751  0.1861 -0.2386  0.1760
43715W        W86809  33.166  13.882   3.149  0.1699  0.1320 -0.1581
43716W        W86810  32.069  12.846  31.104  0.1194 -0.0443 -0.4348
43717W        W86811  29.432  13.495   1.882 -0.0383 -0.2364 -0.1913
43718W        W86812  29.637  11.797   3.209 -0.2294  0.0242 -0.1778
43719W        W86813  31.325  12.982   3.087  0.2897  0.1211 -0.0053
43720W        W86814  30.870  14.256  31.868 -0.0577 -0.0328  0.2286
43721W        W86815  28.192  14.318   0.593 -0.4006 -0.2009  0.0460
43722W        W86816  29.444  13.300   0.197  0.2469  0.0734 -0.0924
43723W        W86817  30.086  11.695   2.305 -0.2131  0.1773 -0.2476
43724W        W86818  31.805  13.190   0.527 -0.1537 -0.2255  0.0755
43725W        W86819  30.721  12.156  31.697 -0.0071  0.2269  0.2861
43726W        W86820  30.555  12.648   3.622  0.0151  0.1200 -0.0910
43727W        W86821  32.762  10.810   1.265 -0.2626 -0.1013  0.1298
43728W        W86822  29.390  13.827   0.187  0.1335  0.0173 -0.1780
43729W        W86823  31.812  14.773  31.797 -0.0049  0.1427 -0.2749
43730W        W86824  32.032  11.850   0.398  0.1153 -0.2593 -0.2614
43731W        W86825  30.863  12.155   0.245  0.0235  0.0111 -0.0026
43732W        W86826  27.909  13.345   3.150 -0.3384 -0.1182  0.0203
43733W        W86827  30.920  10.698   2.478 -0.0959 -0.0626  0.0681
43734W        W86828  29.909  11.435   4.138 -0.0763  0.0129 -0.0501
43735W        W86829  29.946  10.841   1.723  0.0651  0.0787 -0.3265
43736W        W86830  31.794  12.106   3.081  0.2012 -0.4845 -0.0541
43737W        W86831  29.742  12.174  30.657 -0.0348  0.0641  0.0816
43738W        W86832  31.779  12.119   1.313  0.1917 -0.0509  0.4916
43739W        W86833  29.272  12.343   0.194  0.0595  0.0167 -0.1309
43740W        W86834  28.666  12.307   0.694  0.2396 -0.1376  0.0402
43741W        W86835  33.225  10.881   3.468  0.0819 -0.3019 -0.0813
43742W        W86836  31.977  14.803   0.317 -0.1244  0.1063  0.1663
43743W        W86837  32.936  14.452   3.011 -0.1810 -0.2349  0.2197
43744W        W86838  33.549  14.808   1.912  0.0623  0.1963  0.0864
43745W        W86839  30.815  11.242   2.639 -0.5229 -0.1611 -0.2660
43746W        W86840  28.486  11.270   0.906  0.1965  0.1372  0.2460
43747W        W86841  29.905  15.302   2.254 -0.0387  0.1924  0.2477
43748W        W86842  31.738  12.364   1.751  0.0034 -0.1065 -0.0616
43749W        W86843  29.777  11.354  31.317  0.3260  0.2158 -0.1691
43750W        W86844  32.874  12.949   2.571 -0.1857 -0.2750 -0.1540
43751W        W86845  29.549  11.717   0.940 -0.2535  0.2532 -0.2753
43752W        W86846  30.102  13.763   2.131 -0.1879  0.1021  0.1385
43753W        W86847  32.842  11.756   3.116 -0.1493  0.1725 -0.0108
43754W        W86848  32.718  13.691   3.041 -0.1715 -0.0722  0.0669
43755W        W86849  32.712  12.250   1.659  0.0350  0.1380 -0.1717
43756W        W86850  28.698  11.026  31.806 -0.3474  0.0528  0.1648
43757W        W86851  30.455  14.836   1.690 -0.0323  0.3269  0.0252
43758W        W86852  29.567  15.848  30.674  0.2452 -0.3377  0.0331
43759W        W86853  30.607  14.882  31.283  0.2254  0.3571 -0.1764
43760W        W86854  30.615  12.678   1.032 -0.0983  0.1717  0.1972
43761W        W86855  32.177  11.756   1.477  0.0659 -0.0208 -0.1127
43762W        W86856  29.190  12.594   3.279  0.1438  0.1303  0.0140
43763W        W86857  31.426  12.491   2.340 -0.1345 -0.1525 -0.0570
43764W        W86858  29.835  13.500   0.973  0.1822 -0.0856  0.1192
43765W        W86859  28.000  14.155   1.755 -0.0719  0.1932 -0.1555
43766W        W86860  31.046  11.151   2.163 -0.1449  0.2790 -0.0859
43767W        W86861  32.475  12.057   1.225 -0.1343  0.3530 -0.2193
43768W        W86862  29.884  13.229   2.997  0.1697  0.1625 -0.2567
43769W        W86863  32.078  12.341   0.871 -0.3007  0.1788  0.4942
43770W        W86864  30.763  12.711   0.463 -0.0627 -0.1864  0.0382
43771W        W86865  29.056  12.003   0.940  0.2490  0.1878  0.1449
43772W        W86866  28.195  14.912   3.899  0.0017  0.3120 -0.0148
43773W        W86867  30.918  12.310   1.031  0.1385 -0.0058  0.1812
43774W        W86868  30.391  12.306   3.313  0.0698 -0.2623  0.2083
43775W        W86869  30.021  11.850   1.076  0.1050 -0.1995  0.0575
43776W        W86870  30.937  14.132   0.731  0.0173  0.1833 -0.2270
43777W        W86871  27.433  14.437   1.164 -0.2176 -0.0305  0.1154
43778W        W86872  31.448  11.243   3.416 -0.2020  0.1988 -0.0399
43779W        W86873   0.006  13.010   3.620  0.0934  0.1185 -0.0865
43780W        W86874  29.071  12.207   1.897 -0.2751  0.0929 -0.1140
43781W        W86875  29.102  12.566  31.322  0.1936 -0.0438 -0.1891
43782W        W86876  33.088  11.428   1.908 -0.1581  0.0235 -0.0414
43783W        W86877  29.159  14.512  31.718 -0.0837  0.0715  0.3184
43784W        W86878  32.661  11.605   1.000  0.1496 -0.1679  0.0234
43785W        W86879  31.297  12.423   0.671  0.0251 -0.1394 -0.2236
43786W        W86880  30.100  11.899   3.409 -0.2881 -0.0224 -0.1059
43787W        W86881  31.479  12.928   2.599 -0.0808  0.0758 -0.2072
43788W        W86882  32.906  11.838   1.328  0.1720  0.0359  0.2843
43789W        W86883  31.964  13.891   1.819  0.3218  0.4061  0.1243
43790W        W86884  29.403  11.194   0.489  0.0290  0.0347 -0.0629
43791W        W86885  29.801  12.820   4.270  0.0391 -0.2175 -0.2087
43792W        W86886  29.861  13.266   1.878  0.2442 -0.1719 -0.0454
43793W        W86887  27.439  14.302   3.151  0.0660 -0.2533  0.3091
43794W        W86888  31.861  13.434   3.437 -0.0496 -0.1570 -0.0474
43795W        W86889  29.681  12.010   0.174 -0.4326 -0.2355  0.1175
43796W        W86890  33.470  11.176   4.337 -0.0226 -0.4197 -0.1828
43797W        W86891  30.612  11.189   0.825  0.0203  0.1480  0.1715
43798W        W86892  30.470  14.280   0.948  0.0546 -0.2002 -0.3371
43799W        W86893  30.508  13.134   0.325  0.3647 -0.1829  0.0788
43800W        W86894  30.251  10.119   2.624 -0.1829  0.3866  0.3624
43801W        W86895  31.272  14.173   1.553  0.5608  0.0318 -0.1742
43802W        W86896  30.891  14.510  31.422 -0.0710 -0.0474  0.0557
43803W        W86897  31.024  13.130   4.042  0.0389  0.0658  0.1693
43804W        W86898  30.728  13.097   0.780 -0.0417  0.1595 -0.0125
43805W        W86899  33.231  11.158   3.895 -0.1455  0.0324 -0.2591
43806W        W86900  30.294  13.305   2.068 -0.0427  0.0809  0.0900
43807W        W86901  28.373  11.969   0.491 -0.1735 -0.2341 -0.2030
43808W        W86902  28.882  12.555  31.821  0.0269 -0.2581  0.0513
43809W        W86903  32.479  10.670   2.855  0.0746  0.2589 -0.0634
43810W        W86904  33.067  12.730  31.038  0.0441 -0.2778  0.0260
43811W        W86905  29.020  11.711   1.799  0.1793 -0.1201 -0.0026
43812W        W86906  30.478  12.107   2.379  0.1793  0.1261 -0.4089
43813W        W86907  29.251  13.899   1.604 -0.0628  0.2513  0.4590
43814W        W86908  32.360  12.199   2.170  0.1526 -0.2585 -0.2344
43815W        W86909  32.645  10.969   0.840 -0.1366 -0.2742 -0.1395
43816W        W86910  30.893  13.612   2.929 -0.0988  0.0731  0.1714
43817W        W86911  30.802  12.020   3.345 -0.0708 -0.3762 -0.1811
43818W        W86912  28.693  11.134  30.111  0.2182  0.0355  0.1732
43819W        W86913  34.274  11.820   3.090  0.0005 -0.3096  0.3654
43820W        W86914  29.090  12.253   1.419  0.2344  0.1025 -0.1698
43821W        W86915  29.439  14.413   0.792  0.1077 -0.0353 -0.1905
43822W        W86916  30.570  13.611   1.689  0.0549 -0.1158  0.0518
43823W        W86917  30.602  14.085   0.333 -0.0839  0.2235  0.0077
43824W        W86918  29.609  13.649   1.422 -0.3312  0.1906  0.0104
43825W        W86919  31.482  12.681   3.998  0.2058  0.1751 -0.1401
43826W        W86920  31.684  12.539   3.420  0.0443 -0.0106 -0.2692
43827W        W86921  29.617  12.158   2.420 -0.0996  0.0347  0.0864
43828W        W86922  30.679  11.718   2.618 -0.2635 -0.0956 -0.0722
43829W        W86923  30.492  12.586   1.943  0.0264 -0.0308  0.2453
43830W        W86924  32.846  11.835   2.211 -0.0554 -0.2615  0.1392
43831W        W86925  30.520  11.618   2.114  0.2598 -0.0167  0.2959
43832W        W86926  29.049  14.254   3.207 -0.3611 -0.3301  0.1417
43833W        W86927  32.375  11.472   2.954 -0.3421 -0.2300 -0.2264
43834W        W86928  32.860  14.267   1.496  0.0370 -0.1245  0.1238
43835W        W86929  31.382  13.047   3.656 -0.0006 -0.0802  0.5021
43836W        W86930  29.753  13.612  30.826 -0.0681  0.4075 -0.5692
43837W        W86931  30.642  14.690   1.191 -0.1521  0.0460 -0.1414
43838W        W86932  31.220  11.468   2.526  0.0490  0.0153  0.4589
43839W        W86933  28.108  14.838   0.575  0.0915 -0.0943 -0.0572
43840W        W86934  28.705  12.711  31.059  0.3280  0.0994 -0.0366
43841W        W86935  28.003  13.934   2.404 -0.0105 -0.1232  0.0816
43842W        W86936  30.756  11.720  31.873  0.2852  0.1250  0.0038
43843W        W86937  31.242  12.251   1.562 -0.0743  0.0633 -0.1239
43844W        W86938  31.101  12.507   2.731 -0.1718  0.0379 -0.0567
43845W        W86939  33.002  12.043   4.638  0.2093  0.1021 -0.0589
43846W        W86940  32.987  12.472  30.616  0.0448 -0.2126 -0.0817
43847W        W86941  32.749  11.818   4.101 -0.2254 -0.1703  0.1945
43848W        W86942  29.670  12.764   3.331  0.1423 -0.1826 -0.0167
43849W        W86943  32.434  14.518   0.262 -0.0934 -0.1773  0.1454
43850W        W86944  28.274  13.210   2.172  0.0781  0.0618  0.3643
43851W        W86945  30.553  14.806   3.763  0.2299  0.2190 -0.3027
43852W        W86946  29.212  11.852   2.301 -0.1981 -0.3638  0.1172
43853W        W86947  31.233  12.783   0.355  0.0035 -0.4875 -0.3292
43854W        W86948  30.653  11.219   1.774  0.0031 -0.1665  0.1454
43855W        W86949  30.510  12.957   2.386  0.1254 -0.2044  0.2076
43856W        W86950  31.950  13.206   2.490  0.4098 -0.0227 -0.0792
43857W        W86951  30.190  13.895  31.065 -0.2131  0.0853 -0.1149
43858W        W86952  31.608  13.525   1.457 -0.0906 -0.2283  0.1303
43859W        W86953  30.054  14.348   2.130 -0.2689 -0.3330  0.1891
43860W        W86954  31.781  13.706   0.452  0.1303  0.1123  0.2487
43861W        W86955  31.245  13.186   0.704 -0.0404 -0.0121 -0.1730
43862W        W86956  29.795  13.120   1.344  0.1350 -0.0926 -0.0459
43863W        W86957  29.513  13.097   3.774 -0.0488  0.0175  0.2140
43864W        W86958  31.295  13.259   1.822  0.0819  0.1159  0.1507
43865W        W86959  30.416  11.172   1.322  0.0118  0.0536 -0.0907
43866W        W86960  33.236  12.648   2.044 -0.3600  0.3310  0.2250
43867W        W86961  30.402  11.582   4.386 -0.1972 -0.0429  0.0880
43868W        W86962  31.551  12.227   3.784 -0.0555  0.0047  0.1122
43869W        W86963  29.806  12.285   3.141 -0.1284 -0.1485 -0.1278
43870W        W86964  31.958  14.531   1.352  0.0458 -0.0910  0.0860
43871W        W86965  33.826  13.333  30.586 -0.0355 -0.0612  0.0475
43872W        W86966  33.284  13.679   2.293 -0.2626 -0.0778 -0.1464
43873W        W86967  31.951  13.342   1.911  0.2783  0.2136  0.0556
43874W        W86968  32.095  12.091  30.528  0.0620 -0.3092  0.1522
43875W        W86969  28.216  12.543   1.333  0.2940  0.2738  0.0102
43876W        W86970  32.887  12.483   4.325  0.0036 -0.0031  0.1487
43877W        W86971  29.337  10.664   0.848 -0.2288  0.2201 -0.2568
43878W        W86972  32.717  12.142   2.848 -0.0294  0.0153 -0.1833
43879W        W86973  30.102  13.509   1.476 -0.2368  0.2067 -0.2237
43880W        W86974  31.480  13.773   1.828  0.1306 -0.0282  0.0866
43881W        W86975  30.346  12.580   1.419 -0.4709  0.0811 -0.3302
43882W        W86976  28.418  13.391   1.665  0.2623 -0.0494  0.0539
43883W        W86977  30.041  14.230   3.243  0.0796  0.2508 -0.3141
43884W        W86978  29.063  11.358   0.106 -0.3094 -0.0102  0.0014
43885W        W86979  30.150  12.371  30.372  0.4566  0.2603 -0.2645
43886W        W86980  32.423  13.583   3.484  0.1619  0.0804 -0.0467
43887W        W86981  32.628  12.631   4.712  0.1865 -0.2219  0.0070
43888W        W86982  30.320  10.774  31.791 -0.0826 -0.0360 -0.1664
43889W        W86983  33.372  12.278   3.700  0.0266  0.0107  0.3778
43890W        W86984  30.095  13.878   1.169  0.3223 -0.0733 -0.0509
43891W        W86985  32.349  11.657   2.453 -0.2069  0.1935  0.0549
43892W        W86986  29.578  13.917   2.029 -0.1384 -0.1448 -0.2613
43893W        W86987  29.244  14.267   3.638  0.0103 -0.1929  0.3813
43894W        W86988  30.447  15.536   1.174  0.0421  0.2088 -0.1081
43895W        W86989  31.388  12.046   1.997 -0.0305  0.1710  0.0043
43896W        W86990  32.512  11.815   1.829  0.0162  0.1953  0.0766
43897W        W86991  30.761  12.495   2.340 -0.1115  0.0406 -0.1188
43898W        W86992  31.880  13.040   4.024  0.3133  0.1323 -0.1700
43899W        W86993  31.679  12.988   2.088  0.0477 -0.1205 -0.1929
43900W        W86994  27.937  13.276   1.744 -0.1879 -0.1227 -0.0034
43901W        W86995  31.607  14.318   1.953 -0.2560 -0.0064 -0.0843
43902W        W86996  32.675  12.756   1.837 -0.1213  0.0326  0.1670
43903W        W86997  29.538  13.135   2.216  0.0541 -0.3105 -0.0386
43904W        W86998  29.950  12.744   3.707 -0.2042 -0.0847  0.0114
43905W        W86999  29.924  12.770   2.783 -0.0144 -0.2039 -0.1481
43906W        W87000  31.229  12.705   1.866 -0.1231  0.0262  0.1197
43907W        W87001  29.574  11.082   0.916 -0.2971  0.2778 -0.0598
43908W        W87002  31.586  13.623   0.948  0.1077  0.1207  0.2969
43909W        W87003  28.533  14.245   4.372 -0.0764  0.0868 -0.1429
43910W        W87004  28.535  13.076   2.596 -0.2974  0.0083 -0.0817
43911W        W87005  30.153  13.945   0.677 -0.2058 -0.0651 -0.3328
43912W        W87006  30.554  15.071   0.271  0.2287 -0.0105 -0.1853
43913W        W87007  29.134  12.533   0.716 -0.2654  0.0683 -0.0522
43914W        W87008  31.977  13.928   0.879 -0.0177 -0.0975  0.1686
43915W        W87009  29.360  12.733   1.078  0.1785 -0.0009 -0.2586
43916W        W87010  29.262  15.221   1.977 -0.1167  0.0856 -0.1207
43917W        W87011  29.276  14.367   0.293  0.0978  0.0442  0.2397
43918W        W87012  32.542  16.888   0.320 -0.1617 -0.0709 -0.0112
43919W        W87013  30.200  13.446   0.673  0.0985 -0.1004  0.0531
43920W        W87014  31.331  15.237   3.039  0.4315 -0.2211 -0.0581
43921W        W87015  32.075  12.596  31.746  0.1484  0.0191 -0.3756
43922W        W87016  31.949  12.969   1.617  0.0647  0.1506  0.1508
43923W        W87017  32.009  11.321   0.319  0.1596 -0.1052 -0.2169
43924W        W87018  31.397  13.450   3.259  0.2401 -0.3463  0.0423
43925W        W87019  29.809  12.638   1.238  0.4423  0.0120 -0.0967
43926W        W87020  30.752  10.625   0.286  0.4155  0.2592  0.1366
43927W        W87021  28.749  13.477   2.728  0.1247 -0.1269  0.3207
43928W        W87022  32.005   9.929   3.795 -0.2939  0.0170 -0.0683
43929W        W87023  29.213  15.289   3.707  0.2203  0.0102 -0.0854
43930W        W87024  33.198  14.868   0.013  0.1548 -0.0481 -0.3245
43931W        W87025  31.988  12.565   1.344  0.1034  0.1136  0.4064
43932W        W87026  29.648  12.762   1.721 -0.0314 -0.5364  0.0755
43933W        W87027  32.755  11.441   2.574 -0.0804 -0.1383  0.0486
43934W        W87028  30.530  11.646   1.156 -0.0814  0.3309  0.3444
43935W        W87029  30.140  11.690   1.586 -0.0177 -0.1191  0.0441
43936W        W87030  30.034  15.769   2.423 -0.0135  0.1824 -0.0239
43937W        W87031  30.696  14.948   2.143 -0.1232  0.2134  0.2820
43938W        W87032  29.400  14.641   1.632 -0.1072  0.0551 -0.2260
43939W        W87033  28.436  11.147   1.380 -0.1480 -0.1719  0.2440
43940W        W87034  33.378  11.082   1.681 -0.3202 -0.1089 -0.2077
43941W        W87035  29.417  11.807   1.518  0.2079 -0.0683 -0.0342
43942W        W87036  33.067  10.035   2.968 -0.1145 -0.1895  0.0340
43943W        W87037  29.345  13.059  30.726  0.1313 -0.1591  0.0355
43944W        W87038  32.042  11.842   0.964  0.0844  0.0315 -0.1087
43945W        W87039  31.578  12.490   2.898 -0.0980 -0.0102 -0.3945
43946W        W87040  29.934  13.275   3.945 -0.1978  0.1791  0.0384
43947W        W87041  29.637  12.350  31.155 -0.0311 -0.0491 -0.0666
43948W        W87042  32.338  13.149   3.248 -0.1430 -0.3217  0.0279
43949W        W87043  30.761  11.873   0.745 -0.1565 -0.1955  0.2132
43950W        W87044  31.636  15.136   1.722  0.0273 -0.1566 -0.0358
43951W        W87045  32.307  11.052   2.574 -0.1459 -0.0997  0.1229
43952W        W87046  33.067  10.687   1.710  0.3643  0.1027  0.0753
43953W        W87047  29.223  13.620   2.830 -0.0122 -0.0597 -0.1731
43954W        W87048  31.852  12.186   2.213  0.2109 -0.3807 -0.0870
43955W        W87049  33.247  13.951   3.957  0.1345  0.1002  0.0754
43956W        W87050  29.228  10.495   1.711 -0.1550  0.2375 -0.0710
43957W        W87051  31.683  13.666  31.602  0.0518  0.2269 -0.2315
43958W        W87052  32.908  12.567   3.391 -0.0357  0.0620  0.0230
43959W        W87053  30.734  13.001  31.336 -0.2602  0.3619  0.1713
43960W        W87054  31.914  13.699   2.399  0.2486  0.1934 -0.3319
43961W        W87055  32.420  13.164   2.273  0.0331 -0.1354  0.0554
43962W        W87056  29.735  13.452   3.467 -0.0026 -0.1481  0.1165
43963W        W87057  32.116  13.415   0.841 -0.1677 -0.1538 -0.0411
43964W        W87058  33.494  12.238   1.779  0.2935  0.2061 -0.0479
43965W        W87059  31.772  11.456   1.444  0.0073  0.2696 -0.3580
43966W        W87060  28.787  13.037   1.748 -0.2328  0.2877 -0.3291
43967W        W87061  28.274  14.628   0.147  0.0817  0.3462 -0.0526
43968W        W87062  31.776  11.850   1.752  0.2710  0.0726 -0.0961
43969W        W87063  33.323  12.098   4.181  0.0727  0.0512  0.2704
43970W        W87064  30.049  12.203   1.569 -0.3172  0.0269 -0.1637
43971W        W87065  31.401  11.513   3.818 -0.4551  0.3103  0.0473
43972W        W87066  30.092  12.805   2.004 -0.2032 -0.4202 -0.5341
43973W        W87067  29.475  13.011   2.772 -0.3640  0.1416  0.1775
43974W        W87068  29.812  13.254  31.619  0.1335 -0.1552 -0.1013
43975W        W87069  31.969  12.919   3.497 -0.0975 -0.2850  0.1395
43976W        W87070  31.018  12.945   2.390 -0.1687 -0.0879  0.1714
43977W        W87071  30.755  15.204   0.888  0.3687  0.0004 -0.1196
43978W        W87072  32.879  13.374   0.486  0.2814  0.0376 -0.0693
43979W        W87073  31.269  13.272   1.218 -0.0652 -0.2096 -0.0247
43980W        W87074  33.095  11.908   2.644  0.1050  0.2944 -0.0844
43981W        W87075  31.023  12.051   2.466 -0.0388  0.1136 -0.0771
43982W        W87076  33.670  10.899   1.267  0.3890 -0.0340 -0.3875
43983W        W87077  30.659  10.506   1.229 -0.0137 -0.0464 -0.0667
43984W        W87078  30.327  13.060   1.618 -0.2791  0.1082  0.1821
43985W        W87079  28.623  12.248   1.217  0.0407 -0.1882 -0.1829
43986W        W87080  30.402  13.997  31.854  0.3573 -0.0526  0.1448
43987W        W87081  29.747  13.052   0.739  0.2600 -0.1583  0.0201
43988W        W87082  32.786  10.765   3.705 -0.0565 -0.4506 -0.1399
43989W        W87083  30.866  11.914   4.344 -0.1045 -0.1351  0.0785
43990W        W87084  29.549  12.252   1.714  0.5368  0.2117 -0.1451
43991W        W87085  28.423  10.741  31.450 -0.1274  0.0402  0.0890
43992W        W87086  32.215  14.914   1.228 -0.1798 -0.1464  0.2169
43993W        W87087  31.363  10.853   1.952  0.3827  0.2983  0.0054
43994W        W87088  28.616  12.022   1.661  0.0814  0.3579 -0.1519
43995W        W87089  32.216  12.232   1.691  0.1609 -0.2155  0.1022
43996W        W87090  31.688  14.330   0.341 -0.0832  0.0505 -0.0635
43997W        W87091  29.812  11.482   0.252 -0.0052  0.2354 -0.0007
43998W        W87092  32.737  12.972   3.593 -0.0499  0.2034 -0.0691
43999W        W87093  28.645  13.978   0.983 -0.1855  0.6007  0.1458
44000W        W87094  31.781  11.855   4.579  0.2572 -0.1258 -0.1122
44001W        W87095  29.790  11.880   1.940 -0.0143  0.2645  0.1500
44002W        W87096  28.597  13.447  31.185 -0.1852  0.2896  0.2922
44003W        W87097  32.110  12.536   2.984  0.0994 -0.0139  0.1439
44004W        W87098  30.793  13.232   1.424 -0.2405  0.1385  0.0690
44005W        W87099  31.545  15.186  31.728  0.1347  0.0408 -0.0080
44006W        W87100  32.081  12.685   2.009  0.0547  0.3321  0.3737
44007W        W87101  30.454  14.070   4.206 -0.3927 -0.0992 -0.0289
44008W        W87102  29.576  11.472   2.336  0.1356 -0.0959 -0.0323
44009W        W87103  32.454  12.811  31.425 -0.2124 -0.1812 -0.1871
44010W        W87104  30.835  13.061   2.862  0.3351  0.1174 -0.2869
44011W        W87105  32.899  12.064   0.865 -0.4146 -0.0020 -0.2601
44012W        W87106  32.264  11.000   3.115  0.1927 -0.1326 -0.1194
44013W        W87107  31.647  11.752   0.664 -0.0461 -0.0309 -0.0758
44014W        W87108  29.830  11.231   3.638 -0.0653 -0.1026 -0.0791
44015W        W87109  29.823  14.531   2.620 -0.2948 -0.0741  0.1075
44016W        W87110  32.776  14.774   1.269 -0.0156 -0.2743 -0.4141
44017W        W87111  28.939  11.257   1.631 -0.0283  0.0811 -0.0556
44018W        W87112  30.983  11.069   1.174  0.2279  0.3290  0.1836
44019W        W87113  33.302  14.465   2.184 -0.1605 -0.1890 -0.1043
44020W        W87114  30.057  12.287   2.129  0.1189 -0.2635 -0.1359
44021W        W87115  30.929  12.225   1.940 -0.1783 -0.1777  0.0935
44022W        W87116  30.272  13.054   3.349 -0.4839  0.2216 -0.0351
44023W        W87117  31.537  13.423   2.216 -0.0608  0.0730  0.1330
44024W        W87118  31.496  13.364   3.986 -0.0498  0.1061 -0.3357
44025W        W87119  31.299  12.025   0.966 -0.1869  0.0629 -0.0674
44026W        W87120  32.409  11.703  30.698  0.2204  0.1535 -0.0385
44027W        W87121  30.106  13.997   1.686 -0.0976 -0.3649 -0.3684
44028W        W87122  31.223  14.059   3.726  0.1808 -0.1009 -0.1843
44029W        W87123  30.030  14.059   2.779  0.0267 -0.1737  0.0848
44030W        W87124  32.648  12.638   2.957  0.0592 -0.0029  0.0265
44031W        W87125  28.638  10.500   2.470  0.0740 -0.0614  0.2820
44032W        W87126  28.495  13.056   1.309 -0.0446 -0.1365  0.0512
44033W        W87127  30.419  13.376   1.123  0.0720  0.2576  0.0268
44034W        W87128  33.045  12.481   2.692  0.0792  0.0183  0.1892
44035W        W87129  30.759   9.838   1.171  0.2196 -0.2349  0.0074
44036W        W87130  32.792  11.199  31.166  0.1514 -0.0364 -0.0308
44037W        W87131  29.569  14.565   3.415 -0.0230 -0.0066 -0.1850
44038W        W87132  30.426  12.668   2.969 -0.1606  0.0949 -0.0421
44039W        W87133  30.510  12.491   7.432  0.2611  0.2604  0.0233
44040W        W87134  28.556  12.112   4.008 -0.0204 -0.0269  0.0425
44041W        W87135  34.240  11.927   4.014 -0.1330 -0.0847  0.1807
44042W        W87136  32.155  12.311   5.499 -0.1597  0.0908  0.1496
44043W        W87137  30.573  11.081   4.712 -0.2623  0.3456 -0.0566
44044W        W87138  32.101  14.654   3.797 -0.0157  0.2706  0.1553
44045W        W87139  30.112  11.694   7.675 -0.1903 -0.1883 -0.0997
44046W        W87140  31.160  14.928   6.581 -0.1820 -0.1231  0.1122
44047W        W87141  32.828  14.041   6.743 -0.1860  0.2467 -0.0030
44048W        W87142  31.835  13.015   2.965  0.0185  0.0569 -0.2661
44049W        W87143  30.029  11.524   6.053  0.2353  0.1612  0.0133
44050W        W87144  30.627  13.697   5.908 -0.3853  0.2154  0.0007
44051W        W87145  31.309  12.182   3.274  0.2306  0.4455 -0.3449
44052W        W87146  28.844  11.516   5.340  0.3228  0.0747 -0.2755
44053W        W87147  31.375  12.780   5.908 -0.2457  0.1640  0.2539
44054W        W87148  28.246  14.384   3.790 -0.0634  0.1188 -0.1280
44055W        W87149  30.083  12.184   6.584 -0.2558 -0.1459 -0.2830
44056W        W87150  29.700  11.894   6.144 -0.1320  0.3182  0.1395
44057W        W87151  31.220  14.244   5.397 -0.0221 -0.2822 -0.1339
44058W        W87152  30.094  10.726   7.703 -0.3987 -0.2427 -0.1163
44059W        W87153  31.325  11.110   7.361  0.0974  0.0832  0.1467
44060W        W87154  31.585  13.392   4.789  0.1203  0.4328  0.0297
44061W        W87155  29.331  13.811   3.371  0.1035 -0.0323 -0.2331
44062W        W87156  28.737  12.982   5.331 -0.0786 -0.0356  0.2132
44063W        W87157  29.146  12.212   6.438 -0.0448 -0.1888  0.0499
44064W        W87158  31.718  12.926   5.436  0.0629 -0.3479 -0.2393
44065W        W87159  31.024  12.938   4.780  0.0203  0.1410 -0.3947
44066W        W87160  28.954  16.259   6.924  0.0621 -0.2895 -0.3280
44067W        W87161  30.330  14.666   6.643 -0.2495  0.3734 -0.1339
44068W        W87162  32.107  11.243   7.394 -0.1063 -0.2731  0.1761
44069W        W87163  28.745  14.099   4.830 -0.0129  0.0966  0.0011
44070W        W87164  29.087  13.732   4.823 -0.0123  0.2027  0.0873
44071W        W87165  30.892  14.998   4.162 -0.1727 -0.0197 -0.3507
44072W        W87166  32.329  13.593   4.394 -0.1444  0.0746 -0.1360
44073W        W87167  33.012  13.749   5.859 -0.1656 -0.2350 -0.1504
44074W        W87168  30.089  14.717   7.370 -0.0491 -0.2023  0.0254
44075W        W87169  29.064  12.746   3.803 -0.0242  0.1852 -0.0669
44076W        W87170  29.894  14.653   5.833  0.2500 -0.0202  0.2863
44077W        W87171  29.627  13.407   7.221 -0.0592 -0.1253  0.0867
44078W        W87172  30.763  12.515   5.928 -0.4681  0.0506 -0.0899
44079W        W87173  28.853  12.219   4.960  0.1942 -0.1011 -0.2672
44080W        W87174  29.709  14.448   3.896  0.2137  0.0608 -0.0025
44081W        W87175  30.101  13.377   6.529 -0.0848 -0.0853  0.1670
44082W        W87176  30.616  13.496   7.403  0.2378 -0.0013 -0.1685
44083W        W87177  29.697  14.089   4.467  0.0617  0.0369 -0.1477
44084W        W87178  32.295  10.840   7.221 -0.1806 -0.1019 -0.3233
44085W        W87179  28.110  14.976   2.680 -0.0653  0.3192 -0.0269
44086W        W87180  32.649  12.564   3.870  0.0763  0.0742  0.1332
44087W        W87181  30.866  12.612   3.166 -0.0096  0.3377  0.3327
44088W        W87182  33.426  12.575   4.186 -0.0640 -0.2347 -0.0546
44089W        W87183  30.772  10.335   4.175  0.0902  0.0570  0.1626
44090W        W87184  29.644  15.098   4.612  0.1722 -0.2129  0.0427
44091W        W87185  29.541  10.203   5.465 -0.0675 -0.0295  0.1300
44092W        W87186  32.406  13.270   6.529 -0.2772 -0.4212 -0.1167
44093W        W87187  29.948  12.814   4.858  0.4603  0.0299  0.3014
44094W        W87188  29.636  12.387   6.390  0.0510 -0.1205 -0.1747
44095W        W87189  30.381  12.905   6.503  0.0234  0.0032  0.0112
44096W        W87190  29.108  12.610   6.126  0.0602 -0.0267 -0.0085
44097W        W87191  31.680  13.836   3.762  0.0295 -0.1925  0.4189
44098W        W87192  32.657  13.576   5.571  0.0185  0.0092  0.4842
44099W        W87193  31.546  13.070   4.416  0.1019  0.0722  0.0290
44100W        W87194  29.638  12.765   5.288  0.0991 -0.4362  0.2407
44101W        W87195  29.329  12.240   7.023  0.2314 -0.0225 -0.0235
44102W        W87196  29.323  12.597   6.707 -0.1713  0.1489 -0.1025
44103W        W87197  29.773  11.749   2.724  0.0006 -0.0033 -0.0863
44104W        W87198  31.964  13.191   7.691 -0.1717 -0.1226  0.1830
44105W        W87199  28.743  13.522   6.935  0.0473 -0.1556 -0.0674
44106W        W87200  32.068  12.197   6.283  0.2812  0.1002  0.1937
44107W        W87201  30.402  14.184   6.416  0.1342  0.0544  0.0097
44108W        W87202  31.639  13.913   6.609  0.5384 -0.0051  0.1649
44109W        W87203  31.220  12.685   4.432  0.2150 -0.1701  0.1856
44110W        W87204  31.029  11.510   6.062  0.0892  0.0503 -0.2752
44111W        W87205  31.056  11.088   5.747  0.1763 -0.6004 -0.0871
44112W        W87206  30.819  13.110   3.382 -0.2902 -0.3173 -0.4079
44113W        W87207  30.315  13.588   3.703  0.3072 -0.2127  0.5191
44114W        W87208  31.247  12.765   5.292 -0.1135 -0.0715  0.0902
44115W        W87209  32.338  12.562   4.286  0.0311  0.0142  0.0690
44116W        W87210  29.277  14.018   5.686 -0.1433  0.0070 -0.0168
44117W        W87211  30.611  11.408   6.675  0.1428 -0.0050 -0.5449
44118W        W87212  31.251  14.332   8.318  0.1218  0.0608 -0.0709
44119W        W87213  29.607  14.168   3.029  0.0863 -0.0919 -0.1791
44120W        W87214  29.607  13.450   6.149  0.2084 -0.0577  0.0182
44121W        W87215  30.091  13.748   3.273 -0.2771  0.1489 -0.1760
44122W        W87216  28.500  11.058   5.587 -0.2194 -0.0214  0.1775
44123W        W87217  29.879  13.323   7.808  0.3417 -0.2491 -0.0034
44124W        W87218  31.250  10.631   4.642 -0.0100  0.2246 -0.2568
44125W        W87219  28.732  11.613   6.933 -0.0510  0.1742 -0.0815
44126W        W87220  32.395  11.268   4.879 -0.1468 -0.0257  0.0402
44127W        W87221  28.371  14.899   4.923 -0.2566  0.1195 -0.1709
44128W        W87222  32.368  14.138   4.284 -0.0069  0.1262  0.1248
44129W        W87223  30.920  12.404   4.148 -0.4827 -0.0564  0.1111
44130W        W87224  31.109  11.911   4.783 -0.1365 -0.1714 -0.3679
44131W        W87225  28.879  12.316   5.781  0.1358 -0.0984 -0.0827
44132W        W87226  28.296  12.328   5.176 -0.1030  0.0064  0.0119
44133W        W87227  30.558  11.625   7.940  0.0231 -0.0565  0.0641
44134W        W87228  29.401  11.824   5.649 -0.0328  0.1564 -0.2450
44135W        W87229  31.391  12.327   7.664  0.4432 -0.2973 -0.2541
44136W        W87230  30.477  10.587   2.562  0.1286 -0.0816 -0.4812
44137W        W87231  31.228  13.530   4.349  0.0461 -0.1418 -0.1560
44138W        W87232  29.850  12.256   4.635  0.0907 -0.0467  0.0665
44139W        W87233  28.506  13.142   4.508  0.0106 -0.2855  0.2264
44140W        W87234  32.337  10.862   7.827  0.1234 -0.0601  0.1217
44141W        W87235  32.604  13.370   3.951  0.1635 -0.0758 -0.1077
44142W        W87236  31.517  13.872   7.606 -0.2026  0.0279 -0.1327
44143W        W87237  31.047  14.434   3.408  0.0700  0.1182  0.0240
44144W        W87238  29.147  11.823   6.709 -0.0455  0.1606 -0.0825
44145W        W87239  28.029  12.894   2.853  0.0720 -0.0760  0.0774
44146W        W87240  28.010  14.926   5.806  0.1227  0.2608 -0.0872
44147W        W87241  31.086  14.983   5.871  0.3092  0.0532 -0.2609
44148W        W87242  30.718  11.711   5.203 -0.2149  0.2234 -0.1401
44149W        W87243  31.872  14.817   4.415  0.3888 -0.2093 -0.0744
44150W        W87244  30.945  12.412   5.412 -0.3432  0.1595 -0.0306
44151W        W87245  28.909  14.413   6.694  0.1977 -0.0512  0.2810
44152W        W87246  31.792  10.884   7.402  0.0132  0.0834  0.1529
44153W        W87247  31.603  12.117   6.687 -0.0566  0.1552  0.2837
44154W        W87248  29.724  13.335   5.517  0.0421  0.3133  0.2200
44155W        W87249  28.993  11.915   3.148 -0.3889 -0.0174  0.0843
44156W        W87250  29.496  14.901   6.037  0.1515 -0.1565  0.0493
44157W        W87251  30.016  14.684   3.019 -0.1499  0.1558 -0.3216
44158W        W87252  30.059  12.773   5.525  0.2115  0.1456  0.0156
44159W        W87253  30.040  13.246   5.927 -0.1164  0.3037  0.1954
44160W        W87254  31.553  10.885   5.341  0.0092 -0.0322 -0.0197
44161W        W87255  29.311  11.943   7.728  0.0882 -0.0414 -0.0142
44162W        W87256  30.712  13.775   6.529  0.0117  0.2274 -0.1518
44163W        W87257  29.180  12.473   4.172  0.0879  0.2478 -0.0291
44164W        W87258  28.498  14.165   6.921 -0.1045 -0.1633 -0.0398
44165W        W87259  32.208  11.254   4.003 -0.2366 -0.1759  0.2523
44166W        W87260  33.785  10.328   3.826  0.2873  0.2410  0.2244
44167W        W87261  31.726  12.977   8.079 -0.1634 -0.1549  0.0329
44168W        W87262  32.685  14.427   4.602  0.2544 -0.3806 -0.0171
44169W        W87263  33.381  11.711   3.021  0.0023 -0.1084  0.0578
44170W        W87264  31.124  11.210   4.479 -0.2262  0.0647 -0.0977
44171W        W87265  28.206  13.367   6.983  0.2748 -0.1447  0.0705
44172W        W87266  30.228  13.639   5.532  0.1523 -0.0933  0.2204
44173W        W87267  30.748  14.482   5.233  0.2148  0.1955  0.3457
44174W        W87268  31.993  11.382   4.594 -0.0405 -0.1826 -0.0434
44175W        W87269  33.039  14.699   4.288 -0.2411 -0.1583 -0.1900
44176W        W87270  30.611  14.022   7.400 -0.3353  0.3062  0.0087
44177W        W87271  31.345  15.186   7.947  0.0985 -0.1924  0.0529
44178W        W87272  30.424  13.023   7.012  0.3060 -0.0362  0.1930
44179W        W87273  30.461  10.981   6.963  0.2310  0.1124  0.1065
44180W        W87274  30.272  13.093   5.199 -0.3057 -0.0216 -0.2026
44181W        W87275  31.562  10.948   4.456 -0.1339  0.2567 -0.0304
44182W        W87276  29.628  14.724   2.112  0.1217  0.0807 -0.0662
44183W        W87277  32.281  11.745   6.235 -0.0135 -0.2903 -0.2066
44184W        W87278  30.452  12.438   6.382  0.2902  0.3643 -0.0318
44185W        W87279  29.786  11.130   6.422 -0.0246 -0.3252  0.0981
44186W        W87280  32.313  14.381   8.324 -0.2649 -0.6613  0.1016
44187W        W87281  32.203  12.812   5.326 -0.3296  0.0212 -0.1744
44188W        W87282  30.718  13.561   5.411  0.1055  0.1593  0.1962
44189W        W87283  29.651  13.658   3.986  0.1139 -0.0843  0.1785
44190W        W87284  30.803  12.944   6.178  0.0259 -0.1232  0.1243
44191W        W87285  29.378  13.110   6.904 -0.0007 -0.0484  0.1250
44192W        W87286  29.424  15.431   6.171  0.0370  0.1528  0.2004
44193W        W87287  29.964  14.094   5.008  0.0949 -0.0024 -0.2245
44194W        W87288  31.765  11.590   5.125  0.1253  0.0049 -0.1294
44195W        W87289  31.486  10.879   6.919 -0.0257  0.1143  0.0382
44196W        W87290  31.065  11.908   5.618 -0.3133 -0.1453  0.0317
44197W        W87291  30.319  14.965   5.204  0.3859 -0.1027 -0.0732
44198W        W87292  28.823  13.904   3.437  0.1286  0.1155  0.1285
44199W        W87293  30.295  11.177   6.409 -0.0371 -0.0239 -0.2336
44200W        W87294  29.058  14.770   5.342 -0.0285 -0.0653  0.2392
44201W        W87295  30.534  13.979   3.163 -0.0350  0.0223  0.2315
44202W        W87296  30.936  14.455   7.958  0.0190 -0.3737 -0.0613
44203W        W87297  28.787  14.443   3.667  0.1157  0.0947 -0.0735
44204W        W87298  32.790  11.743   5.932  0.1240 -0.0233 -0.0239
44205W        W87299  30.225  15.916   4.681 -0.1868 -0.1353  0.0870
44206W        W87300  29.332  12.965   4.197  0.1115  0.1818  0.1751
44207W        W87301  28.576  12.711   4.889  0.1429  0.3412  0.0165
44208W        W87302  32.534  11.467   5.352 -0.0678 -0.2649  0.0009
44209W        W87303  32.106  13.485   3.945 -0.0440  0.1570  0.0168
44210W        W87304  28.147  11.136   5.174 -0.0438  0.6164  0.2113
44211W        W87305  30.597  10.370   6.695 -0.2238  0.1466 -0.0299
44212W        W87306  29.065  14.261   6.053  0.0080 -0.3605  0.1074
44213W        W87307  30.703  13.242   6.642 -0.2095 -0.1539 -0.1368
44214W        W87308  32.923  12.129   3.721 -0.4153 -0.1570  0.0737
44215W        W87309  30.235  15.156   8.264  0.5892  0.2984 -0.4771
44216W        W87310  30.004  13.499   8.265 -0.1929  0.3886  0.0561
44217W        W87311  28.636  12.575   1.584 -0.3056  0.1934 -0.0986
44218W        W87312  31.261  12.294   5.757 -0.0235 -0.2576  0.3228
44219W        W87313  29.947  12.334   6.025 -0.1883  0.1685  0.0111
44220W        W87314  30.703  13.776   4.607 -0.1891  0.0677  0.1152
44221W        W87315  31.877  13.923   4.654  0.1871  0.1166 -0.2993
44222W        W87316  29.237  14.354   2.091  0.2396  0.1125  0.0499
44223W        W87317  30.058  12.409   5.151  0.0472 -0.0354 -0.0077
44224W        W87318  31.566  11.963   7.901  0.3915 -0.0339 -0.1374
44225W        W87319  31.096  13.299   7.406  0.1362  0.0762  0.0765
44226W        W87320  31.081  11.842   6.490  0.1023  0.0625 -0.3266
44227W        W87321  31.003  10.634   5.430 -0.3179 -0.1938 -0.0229
44228W        W87322  28.843  13.183   4.894 -0.0648 -0.0513 -0.1241
44229W        W87323  30.559  11.918   5.635 -0.1350 -0.1478 -0.2512
44230W        W87324  30.535  11.946   6.484 -0.0384  0.0344  0.3210
44231W        W87325  30.923  12.588   7.154  0.0228 -0.2837  0.1742
44232W        W87326  30.459  11.093   5.721 -0.0920 -0.0192 -0.1958
44233W        W87327  32.804  13.819   4.568  0.0565 -0.3287 -0.0871
44234W        W87328  30.831  13.629   6.991  0.0959  0.0400  0.2931
44235W        W87329  30.261  12.510   4.585  0.3109  0.1493 -0.0284
44236W        W87330  29.166  13.091   6.090 -0.0042  0.0970 -0.0952
44237W        W87331  30.270  15.108   6.436  0.1819 -0.1521 -0.1385
44238W        W87332  31.308  10.941   6.366 -0.1573  0.0051 -0.2102
44239W        W87333  29.871  14.696   6.385 -0.0425 -0.0506 -0.1658
44240W        W87334  29.622  13.576   2.431  0.1086 -0.0869 -0.1217
44241W        W87335  28.973  14.102   7.109  0.2057 -0.0974  0.0830
44242W        W87336  33.550  10.894   5.205 -0.2792  0.0869  0.1298
44243W        W87337  30.598  13.286   4.523  0.0017 -0.2683  0.0501
44244W        W87338  31.433  12.137   6.207 -0.2126 -0.1446  0.0919
44245W        W87339  31.286  12.648   6.802  0.1145 -0.1598 -0.2947
44246W        W87340  32.374  12.670   3.467 -0.0549 -0.0760  0.1704
44247W        W87341  31.470  10.423   7.114  0.2965  0.1198 -0.2379
44248W        W87342  28.762  11.401   6.202 -0.0059  0.0593 -0.3118
44249W        W87343  32.877  14.138   4.949  0.0077  0.0452 -0.3368
44250W        W87344  29.551  10.969   6.892 -0.1357  0.3839 -0.2445
44251W        W87345  30.821  14.148   6.897  0.1367  0.3831  0.0655
44252W        W87346  29.890  11.591   8.111 -0.0913  0.1850 -0.1119
44253W        W87347  34.153  11.092   3.702 -0.0920  0.1143 -0.0582
44254W        W87348  30.544  12.025   3.784 -0.0296  0.0975  0.3014
44255W        W87349  30.374  12.527   6.936  0.0049  0.1493 -0.0247
44256W        W87350  31.565  13.363   5.773 -0.1395 -0.4539 -0.0626
44257W        W87351  29.964  13.985   4.092 -0.1759 -0.2106  0.2302
44258W        W87352  31.404  11.568   5.765 -0.3297  0.0798  0.0461
44259W        W87353  29.656  12.895   5.856  0.1904  0.0010  0.2638
44260W        W87354  32.320  13.613   5.189 -0.0238 -0.0687 -0.0285
44261W        W87355  30.543  12.387   5.049  0.1504 -0.0550 -0.0939
44262W        W87356  29.827  13.835   6.477 -0.1147  0.0345  0.1152
44263W        W87357  29.525  11.442   6.057  0.1137 -0.2508 -0.2882
44264W        W87358  30.543  13.141   5.756  0.0077 -0.0050  0.0747
44265W        W87359  31.921  12.116   5.031 -0.2095  0.0660 -0.3207
44266W        W87360  31.716  11.234   6.092  0.0762  0.0798  0.0602
44267W        W87361  31.016  12.681   7.616 -0.0367 -0.1744  0.1218
44268W        W87362  29.140  11.786   6.220  0.0531 -0.2558 -0.2022
44269W        W87363  30.081  11.656   7.160  0.0774 -0.0100 -0.4225
44270W        W87364  31.058  13.468   6.261 -0.1079 -0.1534  0.0843
44271W        W87365  33.315  11.834   3.503  0.0143 -0.1111  0.0579
44272W        W87366  31.463  12.940   7.610  0.0294  0.3605  0.1069
44273W        W87367  32.490  12.127   4.476  0.4115  0.3701  0.0701
44274W        W87368  30.827  11.497   4.744 -0.0189 -0.0552 -0.0638
44275W        W87369  29.943  11.859   5.712 -0.0020 -0.1774 -0.1631
44276W        W87370  31.059  13.109   6.935 -0.0955  0.0212 -0.1974
44277W        W87371  29.380  12.310   5.017 -0.1551 -0.0592  0.1564
44278W        W87372  31.058  11.617   7.360  0.1259 -0.0331  0.1604
44279W        W87373  30.372  14.119   5.360  0.0238  0.2546 -0.3739
44280W        W87374  31.393  13.782   5.136  0.0464 -0.0065  0.0977
44281W        W87375  31.708  11.749   3.443 -0.0673 -0.0379 -0.3848
44282W        W87376  29.404  12.278   5.931 -0.2085 -0.0011 -0.1421
44283W        W87377  28.900  15.104   7.351  0.3297  0.2483 -0.0801
44284W        W87378  30.370  11.447   3.856 -0.0349  0.1345 -0.0527
44285W        W87379  31.136  12.498   3.630 -0.0688 -0.1909 -0.3094
44286W        W87380  29.218  12.949   5.592 -0.0906 -0.0471  0.1789
44287W        W87381  32.307  12.836   6.786 -0.1684 -0.1280  0.0990
44288W        W87382  31.316  11.662   4.338 -0.0190 -0.0542 -0.2970
44289W        W87383  33.115  11.062   7.340 -0.1097  0.1220 -0.2693
44290W        W87384  28.310  13.880   3.808 -0.1411  0.1915 -0.0713
44291W        W87385  31.273  10.102   5.501 -0.2647  0.0853  0.2116
44292W        W87386  29.366  14.492   6.379 -0.0853  0.0137 -0.2183
44293W        W87387  29.049  13.377   6.524  0.0634 -0.2052 -0.1684
44294W        W87388  30.371  15.016   5.958 -0.0915  0.1483  0.0100
44295W        W87389  30.719  10.803   6.036 -0.0765  0.2337  0.1695
44296W        W87390  31.097  12.424   4.926 -0.0624  0.0103 -0.1043
44297W        W87391  29.741  12.329   5.543  0.1914 -0.0886 -0.1719
44298W        W87392  32.011  11.797   6.689 -0.0999 -0.4349  0.0334
44299W        W87393  30.996  14.653   7.030 -0.0741 -0.0464  0.2913
44300W        W87394  29.932  13.102   6.924  0.1417 -0.2202  0.0298
44301W        W87395  32.016  13.423   6.854  0.2030 -0.1792  0.0030
44302W        W87396  31.874  12.256   4.272  0.3868 -0.1239  0.1424
44303W        W87397  29.370  14.612   5.665 -0.0623  0.1664  0.0182
44304W        W87398  29.587  11.105   8.306  0.0419 -0.0974 -0.3538
44305W        W87399  31.237  12.089   7.070 -0.0560 -0.2916 -0.2591
44306W        W87400  31.539  13.395   6.257 -0.1136 -0.2718 -0.2083
44307W        W87401  30.177  11.951   5.277 -0.0515  0.0509  0.1007
44308W        W87402  30.601  13.411   2.518  0.3037 -0.2352  0.0209
44309W        W87403  29.460  14.213   8.150  0.2538 -0.0227  0.1547
44310W        W87404  28.743  12.827   5.822 -0.2699  0.0471 -0.0759
44311W        W87405  28.933  15.500   4.140 -0.2198 -0.3814 -0.0018
44312W        W87406  30.395  12.563   4.119  0.0250 -0.0778 -0.2719
44313W        W87407  30.259  12.988   4.337  0.2874 -0.0397 -0.0158
44314W        W87408  30.393  14.541   6.063  0.3237 -0.0829 -0.1423
44315W        W87409  30.272  12.381   5.661 -0.3740  0.2819 -0.1444
44316W        W87410  29.815  13.786   5.836 -0.2062  0.3661 -0.1624
44317W        W87411  28.651  14.525   5.127 -0.0467 -0.2445  0.2320
44318W        W87412  32.091  13.921   3.541 -0.2396  0.1212 -0.1049
44319W        W87413  30.544  12.708   5.513 -0.0440 -0.0334 -0.0452
44320W        W87414  31.473  14.360   7.886 -0.2285  0.1183 -0.0003
44321W        W87415  33.147  11.574   4.403 -0.0152  0.3433  0.0223
44322W        W87416  31.185  11.432   5.329  0.0260 -0.2070  0.1938
44323W        W87417  31.207  10.966   4.996  0.2703 -0.2866 -0.0786
44324W        W87418  31.676  11.402   7.192 -0.3301  0.1195  0.3021
44325W        W87419  29.974  12.667   6.562  0.1779 -0.1224 -0.3220
44326W        W87420  32.587  11.728   3.561 -0.1222  0.3733 -0.1342
44327W        W87421  30.562  12.535   7.962 -0.1591 -0.0423 -0.0253
44328W        W87422  33.887  10.310   7.089  0.5230 -0.0564  0.0564
44329W        W87423  29.463  15.028   7.373 -0.2994 -0.4283  0.0964
44330W        W87424  30.598  14.220   4.762 -0.0808  0.0020 -0.1177
44331W        W87425  30.317  12.018   4.744 -0.1204  0.1280 -0.2716
44332W        W87426  29.308  12.176   4.545  0.0559  0.0741 -0.1038
44333W        W87427  32.951  11.355   5.091  0.0925  0.1036  0.0599
44334W        W87428  30.829  13.691   4.123  0.5485  0.0963 -0.2014
44335W        W87429  30.312  11.987   6.048  0.1505 -0.1306 -0.0662
44336W        W87430  30.081  13.801   4.543 -0.0659 -0.0481  0.0151
44337W        W87431  30.392  13.366   7.825 -0.4303  0.1907 -0.3136
44338W        W87432  30.233  13.777   7.564 -0.2076  0.0523  0.1357
44339W        W87433  28.904  12.755   2.601 -0.1630 -0.2742  0.2456
44340W        W87434  33.229  13.639   5.476 -0.0491  0.1880  0.2132
44341W        W87435  30.200  12.014   8.171  0.0687 -0.0567  0.2214
44342W        W87436  30.768  10.836   6.537 -0.1576 -0.1436 -0.2250
44343W        W87437  29.690  13.830   5.384 -0.1414 -0.3610  0.0249
44344W        W87438  32.256  11.731   4.856 -0.3839  0.0055  0.4990
44345W        W87439  30.204  13.724   6.201  0.0273 -0.2051  0.1757
44346W        W87440  28.585  11.861   6.496 -0.0235 -0.1182 -0.0176
44347W        W87441  30.732  12.359   4.577 -0.1325 -0.0619  0.0941
44348W        W87442  31.570  14.371   7.361  0.1966  0.1949  0.1386
44349W        W87443  32.315  13.045   2.769 -0.2433 -0.1005 -0.0596
44350W        W87444  31.201  14.579   6.228 -0.1277  0.0277  0.0038
44351W        W87445  30.770  11.479   5.623 -0.0267 -0.0038  0.5211
44352W        W87446  31.904  12.741   4.470 -0.3051 -0.3588 -0.0026
44353W        W87447  29.123  14.535   4.933  0.0654  0.2240 -0.0203
44354W        W87448  30.380  12.041   7.012 -0.0090 -0.1591 -0.0677
44355W        W87449  29.984  14.363   8.040  0.0674  0.2818  0.0256
44356W        W87450  30.250  10.685   4.785 -0.0927 -0.2037  0.2316
44357W        W87451  31.689  13.870   3.237  0.0218 -0.0625  0.0391
44358W        W87452  31.533  12.296   4.720 -0.1267  0.0396 -0.0178
44359W        W87453  30.808  14.400   3.876  0.1777 -0.3011  0.1053
44360W        W87454  30.801  13.061   5.291  0.0618  0.0502  0.2439
44361W        W87455  30.922  13.956   5.094 -0.1413 -0.2155 -0.0906
44362W        W87456  29.089  11.953   5.302  0.0703 -0.2288  0.5385
44363W        W87457  31.147  13.922   6.442  0.0418 -0.0108 -0.2705
44364W        W87458  32.073  14.401   4.657 -0.0613 -0.1153  0.0873
44365W        W87459  30.502  11.539   6.150 -0.0751 -0.1842 -0.3526
44366W        W87460  29.503  12.631   4.677 -0.0519  0.0213 -0.0589
44367W        W87461  30.081  16.341   4.933 -0.0030  0.2133  0.0992
44368W        W87462  32.364  12.065   5.904  0.4116  0.1098 -0.3369
44369W        W87463  32.171  11.329   6.478  0.1000 -0.0480 -0.1010
44370W        W87464  30.203  14.071   3.656 -0.0696  0.5878 -0.0465
44371W        W87465  31.585  11.903   7.381 -0.0452  0.0129 -0.0828
44372W        W87466  30.278  14.079   5.848 -0.3259  0.1187 -0.1217
44373W        W87467  29.899  14.178   8.468 -0.0241  0.0652 -0.3359
44374W        W87468  28.192  12.431   4.681 -0.2716  0.0209 -0.1524
44375W        W87469  30.506  13.336   6.217 -0.1970  0.3659 -0.1360
44376W        W87470  29.528  14.270   5.203  0.0963  0.1094  0.2056
44377W        W87471  30.565  15.141   4.543  0.1678  0.0122 -0.3651
44378W        W87472  31.499  14.607   5.770  0.1052  0.0748 -0.0846
44379W        W87473  31.686  11.986   5.542  0.1267 -0.1896 -0.0542
44380W        W87474  32.560  13.961   6.067  0.1530 -0.2014  0.0210
44381W        W87475  29.916  11.691   4.584  0.1642 -0.1455 -0.3339
44382W        W87476  31.389  11.905   5.170 -0.0485 -0.1768 -0.0232
44383W        W87477  32.387  12.391   5.097 -0.1225 -0.1908 -0.1628
44384W        W87478  29.536  12.914   6.411  0.4586  0.1279  0.1574
44385W        W87479  28.539  13.074   3.576  0.1717 -0.0731 -0.1031
44386W        W87480  28.690  11.794   3.580  0.1555 -0.0361  0.2305
44387W        W87481  29.012  13.628   6.098  0.1163 -0.1120 -0.1572
44388W        W87482  31.478  11.515   7.689 -0.1795 -0.0320 -0.1396
44389W        W87483  30.855  12.111   7.378  0.0120 -0.0524  0.3079
44390W        W87484  29.776  13.302   5.005  0.2575 -0.3541 -0.2762
44391W        W87485  29.086  13.136   3.500  0.0047 -0.0919  0.1787
44392W        W87486  32.000  14.045   5.088  0.1381 -0.0464  0.2645
44393W        W87487  29.074  11.241   5.775  0.1990  0.0013  0.1432
44394W        W87488  29.406  11.388   5.359  0.1397 -0.3448  0.0119
44395W        W87489  31.347  12.135   4.292  0.1817 -0.2465  0.1068
44396W        W87490  31.264  13.938   4.644 -0.0406  0.2416  0.1410
44397W        W87491  28.850  15.017   4.965  0.1366 -0.0513  0.2608
44398W        W87492  33.292  11.945   7.290 -0.0323 -0.1763  0.4940
44399W        W87493  28.303  13.530   3.468 -0.3275  0.1862  0.0371
44400W        W87494  31.630  13.392   7.292 -0.1649 -0.2194  0.0043
44401W        W87495  30.209  10.702   6.653  0.3231 -0.2564  0.0175
44402W        W87496  28.371  10.883   3.916 -0.3507  0.3543  0.0170
44403W        W87497  29.280  12.451   5.457 -0.0630  0.2846 -0.2678
44404W        W87498  31.973  14.163   3.969  0.2682  0.2005  0.0004
44405W        W87499  31.178  14.793   3.004 -0.0783 -0.2736  0.1626
44406W        W87500  30.106  12.772   7.291 -0.2520  0.0461  0.0828
44407W        W87501  30.323  14.152   6.946 -0.0691 -0.2255  0.3382
44408W        W87502  30.914  11.232   7.678 -0.0553 -0.1342 -0.0293
44409W        W87503  31.597  13.805   6.036  0.0549  0.1061  0.0570
44410W        W87504  30.820  14.117   6.128  0.0939  0.1059  0.3117
44411W        W87505  32.264  14.419   2.858 -0.0847 -0.2908  0.5248
44412W        W87506  31.599  13.065   6.881  0.3820 -0.0700  0.2549
44413W        W87507  31.183  11.706   3.410 -0.2283  0.1989 -0.2979
44414W        W87508  30.453  12.075   7.738 -0.2935 -0.2035 -0.2325
44415W        W87509  29.143  14.592   7.493 -0.1808  0.0234  0.2900
44416W        W87510  32.982  12.764   5.940 -0.0282 -0.0803  0.0518
44417W        W87511  31.490  11.363   4.795  0.3511 -0.3161  0.0389
44418W        W87512  30.749  11.163   5.219  0.2055 -0.4130  0.0146
44419W        W87513  30.392  13.766   4.982  0.2013  0.0508  0.2507
44420W        W87514  27.806  11.207   5.549 -0.2003 -0.0103  0.4304
44421W        W87515  30.037  12.247   3.743 -0.2097 -0.2837 -0.1277
44422W        W87516  31.073  13.296   5.713 -0.2582  0.2073  0.0403
44423W        W87517  30.259  12.783   6.003  0.1043 -0.4114  0.1204
44424W        W87518  31.441  13.382   7.870  0.3860 -0.1347 -0.1819
44425W        W87519  29.536  13.887   4.888 -0.2347  0.1401 -0.0859
44426W        W87520  32.048  13.498   6.187 -0.0491  0.1525  0.2329
44427W        W87521  30.499  14.578   7.125  0.2959  0.1917 -0.0230
44428W        W87522  32.341  14.840   8.224  0.2096 -0.2435 -0.3144
44429W        W87523  30.515  14.068   7.891 -0.1411  0.0148  0.1746
44430W        W87524  31.096  13.448   4.846 -0.0145 -0.2337  0.2307
44431W        W87525  30.083   8.941   6.180  0.4630  0.2653 -0.0134
44432W        W87526  30.495  12.873   4.818  0.0548  0.1865  0.1157
44433W        W87527  29.788  13.227   4.499  0.0396  0.1142 -0.3580
44434W        W87528  31.619  12.624   6.367  0.2041 -0.0571 -0.1378
44435W        W87529  30.105  11.713   6.593  0.0753 -0.1383  0.2915
44436W        W87530  32.033  12.173   3.542 -0.1645 -0.1026 -0.1448
44437W        W87531  29.676  14.351   7.206 -0.0061 -0.0030  0.0949
44438W        W87532  31.296  14.357   6.682 -0.3243 -0.2830  0.0484
44439W        W87533  31.101  14.907   9.472 -0.1008 -0.1630  0.2662
44440W        W87534  29.479  11.123   8.828 -0.1895 -0.1602  0.0274
44441W        W87535  31.809  10.946   8.467  0.0484 -0.0210 -0.2646
44442W        W87536  32.369  12.477   8.984  0.1857 -0.0999  0.0002
44443W        W87537  28.815  11.369   7.474 -0.1566 -0.1608 -0.3386
44444W        W87538  30.376  12.566   8.404  0.0266  0.1216  0.1841
44445W        W87539  30.650  12.825   8.903 -0.2409 -0.0104  0.0275
44446W        W87540  32.365  14.738   9.153  0.0319  0.3255  0.0264
44447W        W87541  30.901  12.622   8.451  0.0585 -0.3265  0.0125
44448W        W87542  29.788  11.324   9.813 -0.1934  0.2151  0.0097
44449W        W87543  31.332  10.430   9.021 -0.3490  0.0184  0.0560
44450W        W87544  29.787  11.941   9.996  0.1654  0.1123 -0.1584
44451W        W87545  31.638  12.704   9.720 -0.1737  0.1831 -0.2266
44452W        W87546  29.046  11.856   8.226 -0.1990 -0.1094  0.2788
44453W        W87547  28.240  13.134   9.697 -0.1801  0.0482 -0.1108
44454W        W87548  30.933  12.174   8.636 -0.2648  0.0503  0.2248
44455W        W87549  29.952  13.862   8.862  0.0660 -0.1115 -0.2553
44456W        W87550  30.379  10.822   9.069  0.0898  0.1202 -0.0990
44457W        W87551  29.264  13.867   9.235 -0.3979 -0.2688 -0.6316
44458W        W87552  29.427  10.609   8.366  0.1593  0.1108 -0.3547
44459W        W87553  28.555  13.918   9.825 -0.2262  0.1428 -0.1374
44460W        W87554  28.415  13.512   9.470  0.1037  0.3766 -0.0126
44461W        W87555  32.732  13.640  10.500 -0.0780  0.1150  0.1372
44462W        W87556  34.186  12.767   9.175  0.2636 -0.2179 -0.1162
44463W        W87557  31.243  13.605   8.800  0.1877  0.0809 -0.0130
44464W        W87558  32.361  14.408  10.066 -0.1341  0.2029  0.3329
44465W        W87559  28.844  13.028   6.813 -0.0268 -0.0704 -0.1200
44466W        W87560  28.012  13.569   9.192 -0.3008  0.0790  0.1283
44467W        W87561  29.946  12.958   8.871 -0.2347  0.2382  0.2096
44468W        W87562  32.032  13.136   8.551 -0.1151 -0.3110  0.4404
44469W        W87563  29.899  13.878   7.943  0.1291  0.1476  0.2948
44470W        W87564  28.297  12.108  10.477  0.0518  0.2452  0.0428
44471W        W87565  30.616  14.099   9.326  0.0412  0.1368 -0.2310
44472W        W87566  31.051  14.377   7.419  0.0865  0.3591  0.0472
44473W        W87567  31.177  12.453   8.929  0.0229 -0.1304  0.1744
44474W        W87568  28.223  14.550   9.401  0.2285 -0.1090  0.1633
44475W        W87569  29.630  13.783   8.401 -0.1242 -0.3924 -0.2208
44476W        W87570  32.089  12.688   7.783 -0.1114 -0.2950  0.0438
44477W        W87571  30.519  11.601   7.430 -0.1965 -0.0727  0.1959
44478W        W87572  31.634  11.519   8.237  0.3125  0.1600 -0.0293
44479W        W87573  30.982   9.855   8.400  0.2797 -0.2938  0.1460
44480W        W87574  30.283  14.920   8.861 -0.2270  0.1414  0.3256
44481W        W87575  27.911  12.724  10.485  0.1444  0.1900  0.1576
44482W        W87576  31.143  12.378   8.126 -0.1264  0.1545  0.3691
44483W        W87577  31.902  12.123   9.799 -0.0268 -0.1817  0.3755
44484W        W87578  29.692  13.998   9.540 -0.3987 -0.2416 -0.1399
44485W        W87579  29.374  11.776   9.816  0.3635 -0.0843  0.0162
44486W        W87580  31.546  13.714   9.199  0.0166 -0.2811  0.0437
44487W        W87581  34.461  14.092   9.930 -0.1864  0.0515  0.1128
44488W        W87582  30.760  13.984   8.379 -0.0098  0.0653 -0.1054
44489W        W87583  29.710  12.120   9.247 -0.0239  0.2100  0.4230
44490W        W87584  31.040  10.716   7.283 -0.0868 -0.0911 -0.2558
44491W        W87585  32.635  12.452   9.608 -0.3626  0.0347 -0.0324
44492W        W87586  29.516  12.941   9.552  0.0103  0.0172 -0.0121
44493W        W87587  33.664  13.572   9.955  0.1460  0.0016 -0.1323
44494W        W87588  32.978  12.599   7.604  0.2005  0.1247  0.2896
44495W        W87589  31.596  10.545   9.931 -0.0320  0.1191  0.2380
44496W        W87590  30.821  12.368  10.109  0.1600  0.0698 -0.5289
44497W        W87591  30.120  13.239   7.343  0.0020  0.4768 -0.3129
44498W        W87592  30.632  12.312   8.992 -0.1054 -0.2196  0.0160
44499W        W87593   0.311  13.312   9.667  0.2557  0.3426 -0.1136
44500W        W87594  31.863  10.672   7.964 -0.4421 -0.1367 -0.0123
44501W        W87595  28.370  14.807   9.889  0.0636  0.4079 -0.1385
44502W        W87596  29.568  14.683   8.259  0.0754 -0.0771 -0.0189
44503W        W87597  29.010  12.380   9.376 -0.4566 -0.1836 -0.2042
44504W        W87598  29.548  13.105   8.164  0.0487  0.1547  0.1916
44505W        W87599  30.828   9.556   8.039 -0.1470 -0.0306 -0.0428
44506W        W87600  29.672  13.561   9.067 -0.0653  0.2173  0.1034
44507W        W87601  32.058  11.286   8.821 -0.3324  0.0496 -0.0684
44508W        W87602  31.763  11.750   8.680 -0.2344 -0.3823  0.0993
44509W        W87603  29.927  11.372   8.635 -0.1035  0.1856 -0.1099
44510W        W87604  32.666  14.133   9.624 -0.0818  0.1220 -0.0498
44511W        W87605  32.323  11.032   8.313  0.2671  0.0280  0.2245
44512W        W87606  31.773  13.452   8.263  0.1597 -0.2315 -0.2343
44513W        W87607  32.504  10.856  10.225  0.4679 -0.3546 -0.2162
44514W        W87608  30.571  11.338   8.906 -0.0280  0.2118  0.0706
44515W        W87609  29.475  11.568   8.405 -0.1832 -0.1591 -0.1596
44516W        W87610  30.308   9.584   8.578  0.0075 -0.0302 -0.0092
44517W        W87611  30.731  12.041   8.197 -0.2767 -0.1439  0.2136
44518W        W87612  31.039  11.948   7.809 -0.1821  0.3247  0.1237
44519W        W87613  28.640  13.164   7.726 -0.0598 -0.1284 -0.0246
44520W        W87614  31.959  14.162   8.670  0.0237  0.1616 -0.0712
44521W        W87615  33.889  14.518   9.222  0.1959 -0.3657 -0.0625
44522W        W87616  32.195  14.712   9.575 -0.2465 -0.0444 -0.0859
44523W        W87617  29.960  10.817   9.830  0.1044 -0.0366  0.1916
44524W        W87618  30.703  11.234   8.282  0.0514  0.1116  0.1311
44525W        W87619  29.538  14.726   8.738  0.2289  0.1744  0.0170
44526W        W87620  30.049  12.440   7.894 -0.2740 -0.2513 -0.0400
44527W        W87621  30.594  10.882   8.622  0.0136 -0.1063 -0.1257
44528W        W87622  32.300  14.254   9.216  0.1314  0.2462 -0.2928
44529W        W87623  30.214  12.867   7.746  0.2733 -0.0568  0.1218
44530W        W87624  32.328  13.287   9.273  0.0261 -0.0456  0.0854
44531W        W87625  30.323  13.329   9.795  0.0937  0.0281 -0.0657
44532W        W87626  30.112  10.073   8.627  0.0017 -0.1680  0.0468
44533W        W87627  30.154  14.080   9.241 -0.1370 -0.2885 -0.2116
44534W        W87628  29.098  14.444   8.538 -0.1913  0.2817 -0.1438
44535W        W87629  28.520  12.653   9.356 -0.0654 -0.0457 -0.1418
44536W        W87630  30.324  14.308   9.805  0.0877 -0.0034  0.2188
44537W        W87631  31.515   9.987   9.268  0.0970 -0.1614  0.2299
44538W        W87632  28.650  12.135   8.014  0.0743 -0.0940  0.0051
44539W        W87633  32.269  10.790   8.833  0.1078 -0.0515 -0.2523
44540W        W87634  32.235  10.228   8.753 -0.0303  0.2270  0.4597
44541W        W87635  30.336  13.072   9.397 -0.2572  0.1208 -0.0114
44542W        W87636  31.310  10.855   7.772  0.0414  0.0862 -0.2616
44543W        W87637  32.668  10.497   8.605 -0.2163 -0.2088 -0.0174
44544W        W87638  30.618  13.316   8.971 -0.2332 -0.0443  0.1655
44545W        W87639  30.857  12.389   9.445 -0.0180 -0.0921 -0.4549
44546W        W87640  30.901  10.446   8.809  0.0541  0.0566  0.0293
44547W        W87641  32.451  15.193   9.483  0.1713  0.3017 -0.0101
44548W        W87642  28.729  13.689   8.497 -0.2708  0.0139 -0.0888
44549W        W87643  32.110  14.242   9.659  0.0174  0.0526 -0.0888
44550W        W87644  31.080  11.990   9.193 -0.1147 -0.4568 -0.0834
44551W        W87645  30.628  13.017   7.532  0.1760 -0.2118 -0.0940
44552W        W87646  31.238  10.249   9.618 -0.1258 -0.0087 -0.1444
44553W        W87647  29.456  15.945   8.685 -0.1098  0.1392 -0.3793
44554W        W87648  30.239  11.658   9.807  0.2537 -0.0177 -0.1340
44555W        W87649  32.870  11.803  10.146  0.1778 -0.0763  0.1604
44556W        W87650  32.415  11.980   8.018  0.2211 -0.0403  0.0164
44557W        W87651  30.466  12.567   9.785  0.0073 -0.0014  0.1974
44558W        W87652  30.876  12.263   6.736  0.0376 -0.4339 -0.2366
44559W        W87653  29.746   9.970   9.513  0.3690 -0.1923 -0.0728
44560W        W87654  29.035  14.122   9.692 -0.1096  0.0222  0.0028
44561W        W87655  31.058  13.357   9.222 -0.0083 -0.0099 -0.2224
44562W        W87656  32.616  12.010   8.501  0.1652 -0.3552 -0.0336
44563W        W87657  30.405  14.124   8.820 -0.3979 -0.0703 -0.0468
44564W        W87658  30.364  13.142   8.572 -0.0043 -0.0227 -0.1153
44565W        W87659  28.915  10.938  10.248  0.1885  0.2150  0.0318
44566W        W87660  30.906  13.979  10.251  0.1990  0.3824 -0.1393
44567W        W87661  29.879  14.331   6.727  0.1468  0.0698  0.0561
44568W        W87662  29.665  13.539   9.610 -0.2450  0.1263 -0.1233
44569W        W87663  29.957  14.458   9.529 -0.0506  0.1533  0.0363
44570W        W87664  31.839  12.519  10.195  0.1426  0.2023  0.0440
44571W        W87665  28.634  14.922   9.407  0.1360 -0.0167  0.0867
44572W        W87666  30.121  12.208   7.432 -0.0380  0.2475 -0.2049
44573W        W87667  29.240  11.110   7.542  0.1489 -0.2316 -0.0456
44574W        W87668  31.934  11.984   8.231  0.4755  0.0968 -0.0923
44575W        W87669  31.957  11.668   7.629  0.0178  0.0982  0.2444
44576W        W87670  29.910  10.870   8.789  0.0358 -0.3249 -0.0330
44577W        W87671  28.790  12.706  10.354  0.0490 -0.1961  0.0367
44578W        W87672  28.665  14.446   9.644  0.1414 -0.1330 -0.1677
44579W        W87673  31.904  11.168   7.851 -0.1172  0.0757  0.0571
44580W        W87674  29.699  11.948   7.333 -0.2122  0.1317 -0.0444
44581W        W87675  32.312  11.539   9.819 -0.3707 -0.0343  0.1195
44582W        W87676  31.263  11.753   8.810 -0.1061  0.0160 -0.2165
44583W        W87677  29.139  13.919   8.410 -0.0147  0.3990  0.0133
44584W        W87678  30.222  13.593   9.301  0.2417 -0.1134  0.2071
44585W        W87679  29.878  11.915   8.561  0.0263  0.2296 -0.4633
44586W        W87680  28.780  14.112   8.166  0.1620 -0.0023 -0.2142
44587W        W87681  31.347  13.659  10.161 -0.3173  0.1259  0.1318
44588W        W87682  30.673  11.618   9.460  0.0398 -0.2771 -0.3109
44589W        W87683  31.362  11.380   9.698 -0.2878 -0.2329  0.0293
44590W        W87684  30.965  13.014  10.373  0.1603 -0.0296 -0.1201
44591W        W87685  31.425  12.035  10.160 -0.1183 -0.0777 -0.2080
44592W        W87686  30.373  12.046   9.543  0.1304 -0.1829  0.4046
44593W        W87687  31.011   9.812   9.514  0.2014  0.1676  0.0422
44594W        W87688  31.631  13.916   8.316  0.1342 -0.1081 -0.3594
44595W        W87689  30.323  11.578   8.430  0.3296  0.0718  0.3129
44596W        W87690  28.821  12.942   8.854  0.3150  0.1085 -0.0099
44597W        W87691  28.913  13.658   7.946  0.0906 -0.3345  0.1309
44598W        W87692  29.367  11.012   9.706 -0.1991  0.0487 -0.0195
44599W        W87693  27.737  15.684  10.486  0.3182 -0.1385  0.1633
44600W        W87694  29.128  13.206   7.815  0.3480  0.0971 -0.3030
44601W        W87695  29.281  13.286   9.235  0.1224  0.2226  0.1607
44602W        W87696  31.351   9.971   7.857  0.1503 -0.1322 -0.0080
44603W        W87697  31.016  13.801   7.450 -0.1391 -0.1158  0.0157
44604W        W87698  30.700  11.788   8.940  0.1454 -0.2171  0.1045
44605W        W87699  32.103  11.886   7.190  0.0917 -0.1755  0.1986
44606W        W87700  30.474  10.123   9.561  0.1786 -0.0428 -0.0321
44607W        W87701  32.073  12.838   9.229 -0.2533  0.1123 -0.1867
44608W        W87702  32.158  12.109   8.645 -0.1506 -0.3014  0.0989
44609W        W87703  30.438  10.717   8.111 -0.6439  0.1780 -0.0621
44610W        W87704  31.394  12.669  10.412  0.1078  0.2845  0.0338
44611W        W87705  30.936  10.915   9.030  0.3866 -0.3798  0.2121
44612W        W87706  30.957  13.453   7.902 -0.2884 -0.2759  0.0686
44613W        W87707  32.578  12.971   9.593 -0.1638  0.3115 -0.3225
44614W        W87708  30.721  13.463   9.495  0.2441 -0.0862 -0.1203
44615W        W87709  31.497  11.217   8.799 -0.1311 -0.3118  0.1714
44616W        W87710  30.627  13.012   8.144  0.1886  0.1287 -0.2735
44617W        W87711  30.045  11.314   9.121  0.0338 -0.1667  0.1049
44618W        W87712  32.118  11.319  10.245 -0.1763  0.0693  0.1173
44619W        W87713  31.581  11.831   9.155  0.0130  0.5443 -0.2199
44620W        W87714  31.095  18.333   8.918 -0.1208 -0.1330 -0.0625
44621W        W87715  30.904  11.177   7.171  0.2965  0.0387 -0.1542
44622W        W87716  33.852  12.541   9.527  0.0070  0.0593 -0.1975
44623W        W87717  32.955  12.314   8.795  0.1410  0.3027  0.3978
44624W        W87718  31.354  11.114   8.252 -0.7575  0.0995 -0.1459
44625W        W87719  29.783  12.603   9.255  0.2132  0.1714  0.2764
44626W        W87720  30.839  12.754   6.646  0.2105 -0.0505 -0.3785
44627W        W87721  31.590  15.524   8.225 -0.2420  0.2365 -0.1728
44628W        W87722  31.756  12.417   8.123 -0.4112 -0.1851 -0.1715
44629W        W87723  32.449  13.488   8.595  0.0270 -0.2276  0.1178
44630W        W87724  28.224  12.451   9.674  0.2017 -0.4418 -0.1564
44631W        W87725  29.945  10.551   8.377 -0.0782  0.1816 -0.1092
44632W        W87726  29.986  12.959   8.313 -0.3981  0.1234 -0.2829
44633W        W87727  30.918  13.592   9.977 -0.2150 -0.2746 -0.0899
44634W        W87728  31.172  11.571   8.109 -0.1801 -0.0040  0.3408
44635W        W87729  28.376  13.296   8.475  0.0164  0.2437 -0.0162
44636W        W87730  30.806  14.438  10.089 -0.0734  0.0253  0.3153
44637W        W87731  29.990  15.808  10.090  0.1830  0.1552 -0.3574
44638W        W87732  29.749  12.839   7.756  0.1168  0.3196 -0.2709
44639W        W87733  29.816  10.893   9.311  0.0579  0.0700 -0.2944
44640W        W87734  32.342  11.945   9.534  0.3916 -0.1760  0.1154
44641W        W87735  29.182  13.260   9.779 -0.0378 -0.1925  0.1670
44642W        W87736  27.707  12.395   9.689 -0.1452  0.1258 -0.0077
44643W        W87737  32.640  14.769   9.815 -0.1554  0.0765  0.0539
44644W        W87738  29.894  12.398   8.388 -0.0327 -0.3827  0.1396
44645W        W87739  34.037  13.179   9.845 -0.0478  0.4519  0.0590
44646W        W87740  31.021  11.237   8.669 -0.1063  0.0159  0.1669
44647W        W87741  30.364  15.057   7.714  0.1157 -0.1365 -0.0386
44648W        W87742  28.398  12.674  10.671 -0.0407 -0.2726  0.2783
44649W        W87743  30.287  13.939   8.335  0.0051 -0.1127 -0.0637
44650W        W87744  31.487  14.068   8.769 -0.0960 -0.0221  0.0828
44651W        W87745  31.095  12.952   8.108 -0.1797  0.2622 -0.1016
44652W        W87746  32.702  14.151  10.396 -0.4087 -0.0401 -0.2048
44653W        W87747  30.753  11.807   6.917  0.3473  0.0813 -0.3299
44654W        W87748  28.222  14.225   8.997 -0.1040 -0.2252 -0.2294
44655W        W87749  28.251  13.417   8.000 -0.1490  0.1645 -0.4118
44656W        W87750  31.570  12.733   9.037 -0.2534 -0.1199 -0.2802
44657W        W87751  29.021  13.172   7.281  0.0872 -0.0101 -0.1431
44658W        W87752  33.293  10.928   6.853  0.2132  0.0645 -0.0329
44659W        W87753  31.572  13.993   9.599 -0.4963 -0.1977 -0.1670
44660W        W87754  32.405  10.223   7.906 -0.2861 -0.0645 -0.1803
44661W        W87755  28.947  13.610   9.544  0.3655  0.0040 -0.0109
44662W        W87756  31.312  10.778   8.709 -0.1975  0.0226  0.2316
44663W        W87757  31.485  13.185   8.530  0.1976 -0.4485  0.0130
44664W        W87758  30.080  10.986   8.334 -0.1821 -0.2449 -0.0588
44665W        W87759  31.368  12.012   8.362  0.0997 -0.1766 -0.1202
44666W        W87760  32.991  10.395   9.452 -0.0306  0.1614 -0.1191
44667W        W87761  30.574  14.530   8.551  0.0860  0.3581 -0.1866
44668W        W87762  31.678  12.256   8.763 -0.2106  0.2194 -0.0836
44669W        W87763  29.704  13.337   8.616  0.1055  0.0613 -0.1451
44670W        W87764  29.161  13.449   8.323  0.0758 -0.1411  0.0226
44671W        W87765  29.848  14.159   9.964  0.0881 -0.2023 -0.0722
44672W        W87766  29.617  11.510   7.665  0.2755 -0.2058  0.0956
44673W        W87767  32.509  12.528   8.510  0.0975 -0.0274 -0.0770
44674W        W87768  29.176  12.201   9.977 -0.3341  0.0969  0.2124
44675W        W87769  29.150  12.490   8.558 -0.4542 -0.1591 -0.1406
44676W        W87770  32.702  13.230  10.060  0.2130 -0.0149  0.2136
44677W        W87771  32.350  12.578  10.348  0.0467 -0.2130 -0.2121
44678W        W87772  30.443  10.684   9.640  0.2704 -0.1301  0.0337
44679W        W87773  29.649  12.416   7.447 -0.1053 -0.1433 -0.5159
44680W        W87774  30.943  13.179   8.533  0.0495  0.0315 -0.0168
44681W        W87775  29.609  11.498   7.113  0.1915  0.0406 -0.0637
44682W        W87776  31.743  10.734   8.972 -0.2104  0.0196 -0.1694
44683W        W87777  29.788  12.000   7.836  0.1986  0.0572  0.0393
44684W        W87778  27.894  15.982   9.742  0.1855  0.0947  0.1560
44685W        W87779  30.178  10.273   8.031  0.2281 -0.2289  0.0500
44686W        W87780  32.151  12.405   7.227 -0.2208 -0.2657 -0.2751
44687W        W87781  33.597  13.008   9.439 -0.1494 -0.0457 -0.0742
44688W        W87782  30.066  14.662   8.419 -0.1242  0.1726 -0.2993
44689W        W87783  31.420  12.631   8.511  0.2912  0.2373 -0.1190
44690W        W87784  31.477  12.301   9.309 -0.0539 -0.1408 -0.2937
44691W        W87785  28.823  11.050   7.893 -0.1286  0.2864 -0.4948
44692W        W87786  32.154  13.790   8.924 -0.0089  0.1336  0.0585
44693W        W87787  31.857  13.304   9.509 -0.2247  0.0762 -0.0548
44694W        W87788  30.433  10.354   7.594  0.1955 -0.2192 -0.2279
44695W        W87789  29.149  11.487   9.034  0.4265  0.1944  0.3097
44696W        W87790  29.179  14.049   7.731  0.1308  0.0649  0.1041
44697W        W87791  33.474  11.115   9.437 -0.1618 -0.0386 -0.1436
44698W        W87792  31.170  16.187   7.870 -0.0436  0.1226  0.2786
44699W        W87793  30.706  14.010   9.774 -0.2503  0.1685 -0.0271
44700W        W87794  29.517  12.059   8.268  0.0384  0.1510  0.1429
44701W        W87795  31.147  12.943   8.936  0.3551  0.1246 -0.0881
44702W        W87796  30.022  14.484   8.939  0.0194 -0.0480 -0.4629
44703W        W87797  31.127  12.873   9.850 -0.2111  0.1036 -0.1868
44704W        W87798  30.376  12.021   8.648  0.0309  0.0687 -0.3239
44705W        W87799  30.619  13.477   8.304 -0.0877  0.2847  0.3492
44706W        W87800  32.009  12.174   9.164 -0.1331 -0.2336  0.0473
44707W        W87801  33.019  11.265   9.161 -0.1687 -0.2180 -0.0369
44708W        W87802  31.517  11.076   9.288  0.1402 -0.2069  0.1337
44709W        W87803  28.893  13.837  10.189 -0.3391  0.0034 -0.0462
44710W        W87804  28.611  12.060   7.357 -0.0548 -0.5430 -0.2690
44711W        W87805  30.374  13.629   8.694  0.1594 -0.2210  0.1690
44712W        W87806  29.317  13.757   9.849  0.4384 -0.0187 -0.2005
44713W        W87807  30.760  13.140   9.921 -0.0161 -0.0871  0.0777
44714W        W87808  30.419  11.129   7.824 -0.1588 -0.1613  0.0631
44715W        W87809  31.221  13.568   8.318 -0.2196  0.1253  0.2770
44716W        W87810  29.793  10.296   9.894 -0.1849 -0.0818 -0.0145
44717W        W87811  28.864  11.641   8.626  0.0487  0.0869 -0.1713
44718W        W87812  32.071  13.775   9.513 -0.2172  0.0549  0.0216
44719W        W87813  30.828  12.906   9.391 -0.2610  0.1500 -0.0216
44720W        W87814  30.868  11.080   9.472  0.0043  0.0239  0.2335
44721W        W87815  29.838  12.376   6.973 -0.3172 -0.2620 -0.2107
44722W        W87816  29.870  11.121   7.884  0.0111 -0.1817 -0.0829
44723W        W87817  33.975  12.292   9.973  0.0173  0.2011  0.0763
44724W        W87818  31.975  14.177  10.547 -0.2721  0.3425  0.1027
44725W        W87819  31.639  14.515   8.725  0.0787 -0.0843 -0.2598
44726W        W87820  28.974  10.697   9.821 -0.0067  0.2150  0.0467
44727W        W87821  32.365  12.948   8.819  0.0722  0.1537  0.1402
44728W        W87822  32.751  10.590   8.100  0.0491  0.1007 -0.0231
44729W        W87823  31.984  11.553   9.458  0.0063 -0.0437 -0.0447
44730W        W87824  31.999  12.222   7.716  0.2053  0.0364  0.0484
44731W        W87825  32.799  12.750   9.145  0.0382  0.1412  0.3788
44732W        W87826  31.784  10.422   8.478 -0.0555  0.0734 -0.1006
44733W        W87827  32.170  11.534   8.393  0.0953  0.0694  0.0059
44734W        W87828  29.662  14.002   7.550 -0.0286 -0.0007 -0.1269
44735W        W87829  28.756  11.887   9.084 -0.0108  0.0846  0.3553
44736W        W87830  30.326  12.564   9.339 -0.2811  0.0862  0.0561
44737W        W87831  29.860  13.180   9.338  0.0488  0.0006  0.1810
44738W        W87832  30.080  12.356   8.882  0.0693 -0.2031 -0.1683
44739W        W87833  33.895  12.563   8.242  0.0376 -0.1212  0.0841
44740W        W87834  31.331  15.515   9.410 -0.4010 -0.1287 -0.0613
44741W        W87835  29.524  14.195   8.800  0.6254 -0.0706 -0.0899
44742W        W87836  32.378  12.105  10.027 -0.2626  0.0918  0.1358
44743W        W87837  27.732  10.296   8.659  0.0111  0.1912 -0.2026
44744W        W87838  29.991  12.310   9.713  0.3513  0.0160 -0.1999
44745W        W87839  29.604  12.281   8.778  0.0261  0.0316  0.0111
44746W        W87840  31.813  11.210   9.763  0.3494 -0.3443  0.1834
44747W        W87841  29.816  10.171   9.075 -0.0789  0.2874  0.2193
44748W        W87842  31.581  11.358   6.662  0.1861  0.1146  0.1146
44749W        W87843  30.567  19.437   9.286 -0.3047  0.2106  0.1765
44750W        W87844  29.932  17.056   1.866 -0.2056 -0.2683 -0.1850
44751W        W87845  30.230  16.308   0.717 -0.0888  0.0915  0.0825
44752W        W87846  30.691  16.501   0.693 -0.3250 -0.1589  0.0173
44753W        W87847  31.238  16.855  31.537  0.1820  0.4107 -0.2102
44754W        W87848  29.921  15.509   1.344 -0.0542 -0.0998  0.0139
44755W        W87849  32.214  19.002   2.094  0.1039  0.1302  0.2998
44756W        W87850  29.735  13.971   3.603 -0.3545 -0.1451  0.2175
44757W        W87851  30.575  18.257   2.153  0.2490  0.2598 -0.1337
44758W        W87852  33.267  18.198   2.524 -0.0688 -0.0588 -0.1088
44759W        W87853  31.174  16.727   0.474 -0.1861  0.0758  0.1386
44760W        W87854  30.428  14.948  31.736  0.0667 -0.0374  0.1750
44761W        W87855  30.318  18.150   2.692 -0.0320 -0.2436  0.0015
44762W        W87856  31.369  15.673   0.555 -0.2636  0.1302 -0.1710
44763W        W87857  29.188  16.033   1.106  0.2976  0.2720  0.1454
44764W        W87858  31.940  16.466   2.692 -0.1501 -0.1665  0.1544
44765W        W87859  30.498  16.410   0.218 -0.1602 -0.0735 -0.3152
44766W        W87860  30.726  16.321   1.683 -0.0208  0.1461 -0.0970
44767W        W87861  29.614  14.734   1.159  0.2155  0.1089 -0.0233
44768W        W87862  32.372  18.079   1.702 -0.0914  0.0017  0.0445
44769W        W87863  30.388  15.860   2.981  0.0367  0.0107 -0.1307
44770W        W87864  30.907  13.539   2.049  0.3063  0.1006  0.3000
44771W        W87865  30.450  19.622   0.327  0.2274  0.2030 -0.1846
44772W        W87866  29.963  15.930  31.025  0.0328 -0.3877 -0.2503
44773W        W87867  29.411  16.174   2.065 -0.1670  0.3341  0.2295
44774W        W87868  30.451  16.459   1.279  0.0975 -0.0035 -0.1795
44775W        W87869  30.681  15.711   2.515 -0.1885 -0.1066 -0.3397
44776W        W87870  30.481  18.042   1.670  0.3197 -0.2497 -0.1148
44777W        W87871  30.937  18.540   1.783 -0.0730  0.2481 -0.4080
44778W        W87872  30.731  18.496   2.621 -0.2141 -0.0116  0.2932
44779W        W87873  30.161  14.445   4.539  0.0370  0.1443 -0.0429
44780W        W87874  28.749  16.933   1.020  0.2951 -0.1230  0.0124
44781W        W87875  29.500  18.410   0.135 -0.1080 -0.1981  0.0294
44782W        W87876  31.191  18.285   0.274 -0.3307  0.3964  0.0550
44783W        W87877  34.044  18.030   0.538  0.1862 -0.3323  0.0982
44784W        W87878  32.892  18.532   2.567 -0.0329 -0.0835 -0.0431
44785W        W87879  30.006  19.148   2.617  0.0162 -0.0726 -0.0388
44786W        W87880  30.596  17.588  31.892  0.1148 -0.0458 -0.1823
44787W        W87881  31.820  18.064   3.378 -0.0102 -0.2803 -0.2074
44788W        W87882  29.485  18.161   3.334  0.0161  0.1298  0.1389
44789W        W87883  30.621  16.354   2.740 -0.0455  0.1418 -0.2278
44790W        W87884  31.347  17.388   2.365 -0.0235  0.2120  0.1433
44791W        W87885  31.883  17.659   0.430 -0.1584 -0.4077  0.0437
44792W        W87886  31.260  18.003   3.195 -0.1930  0.0610  0.1850
44793W        W87887  30.708  16.877   3.768 -0.1612  0.1545  0.1317
44794W        W87888  30.776  17.949   0.681  0.1593 -0.1251  0.1265
44795W        W87889  32.027  15.844   2.064 -0.1579 -0.3604  0.3230
44796W        W87890  29.599  17.433  31.944  0.2192 -0.3599 -0.3659
44797W        W87891  32.081  16.951   2.085  0.0981 -0.1847  0.1991
44798W        W87892  31.572  17.302   1.200  0.2069  0.1378  0.0295
44799W        W87893  32.136  15.930   1.460  0.2193  0.2887  0.0060
44800W        W87894  30.028  15.042   1.211 -0.1949  0.1370 -0.0983
44801W        W87895  30.364  18.949   3.872 -0.0250  0.0752  0.0648
44802W        W87896  29.554  16.345   2.941 -0.0214  0.4338 -0.0803
44803W        W87897  32.810  16.879   4.315  0.1793 -0.1271 -0.0536
44804W        W87898  30.431  15.952   1.515  0.0113  0.0453  0.3322
44805W        W87899  31.093  15.019   1.304  0.0884  0.0034 -0.0799
44806W        W87900  29.681  18.627   3.061  0.0853  0.2288 -0.0728
44807W        W87901  30.121  16.681   2.183 -0.0953  0.1916 -0.1643
44808W        W87902  32.336  17.637  31.404  0.3808 -0.1818 -0.0694
44809W        W87903  31.659  16.114   2.239  0.2346  0.0634 -0.0653
44810W        W87904  33.126  18.678   2.061  0.0103  0.1566 -0.2539
44811W        W87905  28.806  15.239  31.875 -0.3905 -0.1113  0.2767
44812W        W87906  29.154  17.636   3.239 -0.0705  0.1197 -0.1272
44813W        W87907  29.786  16.497   1.814  0.0771 -0.0274 -0.2959
44814W        W87908  31.175  15.438  31.362 -0.3146 -0.0447 -0.3409
44815W        W87909  31.126  17.160   2.955  0.0932 -0.3586 -0.2221
44816W        W87910  28.996  17.836   2.528  0.2864 -0.0918  0.3801
44817W        W87911  31.798  15.613   1.709 -0.2623  0.2948  0.1785
44818W        W87912  30.314  17.818   3.117 -0.0102  0.1858  0.0905
44819W        W87913  32.249  18.543   1.750  0.1295  0.0798  0.2564
44820W        W87914  32.706  16.630  31.546 -0.3240 -0.0908  0.1775
44821W        W87915  32.758  14.561   1.987 -0.5136 -0.1696  0.1385
44822W        W87916  32.005  15.045   0.781  0.1540  0.0492 -0.0508
44823W        W87917  30.949  17.477   0.664 -0.0265 -0.1684 -0.1245
44824W        W87918  30.649  15.974   0.724 -0.0676 -0.2106 -0.1530
44825W        W87919  34.392  16.582   3.624 -0.1747  0.1291  0.0006
44826W        W87920  32.470  16.957   0.832  0.0807  0.0766  0.2031
44827W        W87921  29.180  17.882   2.037  0.0598  0.0918  0.2263
44828W        W87922  29.846  15.897   2.906  0.2778  0.0940 -0.0566
44829W        W87923  31.533  16.660   3.825  0.1669  0.0548  0.0225
44830W        W87924  29.743  18.539   0.528  0.0011 -0.1084 -0.1495
44831W        W87925  28.581  17.525   0.435  0.1246  0.1100 -0.0602
44832W        W87926  29.139  17.404  31.721  0.4242  0.1086 -0.1084
44833W        W87927  28.826  14.576   1.890  0.1620 -0.2446 -0.4608
44834W        W87928  29.462  17.000   1.607 -0.0475  0.0812 -0.0427
44835W        W87929  32.143  14.354  31.508 -0.2095  0.1606 -0.1223
44836W        W87930  29.060  14.506   2.538 -0.2536  0.3122 -0.2201
44837W        W87931  31.138  14.638   0.958  0.2543 -0.1632 -0.1009
44838W        W87932  29.781  17.184   1.241  0.1198 -0.1799  0.1125
44839W        W87933  33.238  18.026   3.002 -0.2457  0.1450 -0.2588
44840W        W87934  31.501  15.282   0.904  0.0845 -0.2018  0.0408
44841W        W87935  31.178  18.230   1.513  0.3210 -0.2266  0.2151
44842W        W87936  28.754  16.048   1.446  0.1948  0.0172  0.0258
44843W        W87937  30.422  15.911   0.234 -0.2805 -0.1636 -0.1136
44844W        W87938  29.310  14.028   4.077 -0.3079  0.1884 -0.1313
44845W        W87939  29.889  16.203   2.195 -0.1202  0.2328  0.1979
44846W        W87940  30.960  15.359   2.257 -0.0377  0.2235 -0.1616
44847W        W87941  31.054  16.651  31.959 -0.1570 -0.3039 -0.0479
44848W        W87942  31.117  14.548   2.082 -0.0971  0.0970  0.1270
44849W        W87943  30.103  15.156   1.793 -0.1655 -0.0489  0.0391
44850W        W87944  27.791  17.255   0.303  0.1387  0.1684  0.1775
44851W        W87945  30.665  14.543   4.290 -0.1663 -0.2610  0.1568
44852W        W87946  31.819  19.022   1.730  0.1271  0.2438  0.1223
44853W        W87947  32.449  18.378   2.668  0.2080 -0.1166 -0.1069
44854W        W87948  31.198  17.107   0.884 -0.1570 -0.0928  0.2736
44855W        W87949  29.360  14.645   2.919 -0.3624  0.1199 -0.5940
44856W        W87950  29.341  15.051  31.856  0.0262  0.1576 -0.2535
44857W        W87951  30.579  19.221   0.623  0.0992  0.1139  0.0948
44858W        W87952  31.023  17.821   1.241 -0.0680 -0.0321  0.0347
44859W        W87953  29.713  16.378  31.773 -0.1887  0.1742 -0.0507
44860W        W87954  31.790  19.374   2.770  0.0292 -0.1603 -0.0969
44861W        W87955  31.381  17.583   0.886  0.0315  0.0257  0.1379
44862W        W87956  29.965  17.294   0.774  0.0502 -0.1848 -0.2832
44863W        W87957  31.098  13.536   3.677 -0.1941  0.0502 -0.0932
44864W        W87958  32.232  15.103   4.529  0.3466  0.0272  0.0500
44865W        W87959  32.476  16.635   2.028  0.0121  0.1732 -0.2683
44866W        W87960  29.174  15.344  31.208 -0.1832 -0.0190  0.0764
44867W        W87961  30.930  18.927   2.731  0.0794 -0.0928 -0.2622
44868W        W87962  30.573  17.360  31.381 -0.2459 -0.1444  0.1011
44869W        W87963  29.835  16.021   1.632 -0.3141  0.2031 -0.0520
44870W        W87964  30.094  17.672   1.770 -0.1060 -0.1085  0.0707
44871W        W87965  32.536  16.027   1.713 -0.2197  0.0576 -0.1190
44872W        W87966  28.859  17.527   3.661  0.1780  0.1438 -0.2583
44873W        W87967  31.257  16.272   3.093 -0.1798  0.0935  0.1184
44874W        W87968  29.277  16.534  31.956 -0.0703  0.0679  0.2718
44875W        W87969  30.035  19.267   3.681 -0.1874 -0.0851 -0.1779
44876W        W87970  31.462  14.695   1.625 -0.2302  0.0036 -0.2498
44877W        W87971  32.002  16.299   0.124  0.2511  0.0746  0.1994
44878W        W87972  32.849  15.892   2.787  0.1822 -0.0542  0.1068
44879W        W87973  31.600  16.584  31.955 -0.2942  0.0685  0.2565
44880W        W87974  31.189  14.500   0.419 -0.1009 -0.1856  0.0645
44881W        W87975  29.894  15.097  31.824 -0.2036  0.2424  0.2065
44882W        W87976  29.793  18.286   2.707  0.1769  0.0945 -0.2090
44883W        W87977  30.359  16.766   1.696 -0.1908  0.1120  0.2124
44884W        W87978  31.187  15.791  31.791  0.2864  0.1226 -0.0096
44885W        W87979  33.579  18.304   0.688 -0.2972 -0.2989  0.1389
44886W        W87980  29.716  16.962   2.279  0.0760  0.2358  0.0540
44887W        W87981  31.351  16.486   2.654 -0.3494 -0.0899 -0.1346
44888W        W87982  32.152  17.494   1.936 -0.0432 -0.3235  0.1550
44889W        W87983  28.966  16.050   2.462 -0.2064 -0.1079 -0.3171
44890W        W87984  30.698  15.342  31.563 -0.0091 -0.0444  0.3600
44891W        W87985  31.030  15.732   0.941  0.0358 -0.1645 -0.0703
44892W        W87986  28.230  18.014  31.636  0.0973 -0.0064  0.0007
44893W        W87987  32.260  15.460   0.998 -0.2288  0.0917  0.1666
44894W        W87988  30.977  13.815   2.427 -0.1385 -0.3801  0.2027
44895W        W87989  29.969  14.647   1.746 -0.0369 -0.1142 -0.0497
44896W        W87990  32.425  15.520   3.368  0.0034  0.0435  0.1947
44897W        W87991  33.164  15.244   2.097 -0.0306  0.0055 -0.2346
44898W        W87992  30.668  16.948   1.356  0.1622 -0.1523 -0.0689
44899W        W87993  30.107  16.781  31.526 -0.1667 -0.1201 -0.0072
44900W        W87994  30.602  13.906   2.124  0.0528 -0.4308 -0.0895
44901W        W87995  30.166  18.478   2.280  0.1472 -0.0911 -0.0798
44902W        W87996  28.885  18.455   2.018 -0.1786  0.1305 -0.1176
44903W        W87997  32.229  18.092   3.041  0.0159  0.1504 -0.1363
44904W        W87998  32.646  16.169   2.194 -0.3362 -0.0348 -0.1877
44905W        W87999  30.952  14.227   1.194  0.1962 -0.2734  0.1264
44906W        W88000  31.822  15.968   0.459 -0.1241 -0.1230 -0.0830
44907W        W88001  31.307  18.065   0.849 -0.0027 -0.1270  0.1246
44908W        W88002  30.650  18.384  31.410 -0.0673 -0.1801 -0.2774
44909W        W88003  30.731  13.020   1.917  0.0675  0.0425  0.0891
44910W        W88004  30.541  17.698   2.013 -0.0015  0.0936  0.0553
44911W        W88005  30.885  18.364  31.864 -0.0194  0.2859 -0.2833
44912W        W88006  31.612  16.087   1.761 -0.0474 -0.0376 -0.0596
44913W        W88007  30.125  18.911   0.583  0.2163  0.0583 -0.1582
44914W        W88008  31.622  14.848   1.106 -0.1155 -0.0856 -0.2245
44915W        W88009  29.058  17.237   0.593 -0.2025  0.0449  0.2641
44916W        W88010  31.126  16.988   1.476 -0.1971 -0.1028 -0.0482
44917W        W88011  29.609  15.411  31.515  0.2051 -0.0250  0.3263
44918W        W88012  32.003  14.528   0.739 -0.0858  0.1405 -0.1010
44919W        W88013  32.808  17.868   0.462  0.0920  0.3924 -0.0759
44920W        W88014  28.195  16.756   0.977  0.3474 -0.0220 -0.3272
44921W        W88015  30.625  14.106   1.559 -0.1622 -0.0267  0.0697
44922W        W88016  29.378  17.814   1.391  0.1080 -0.0181  0.3266
44923W        W88017  33.445  17.230   2.825  0.3907 -0.1576 -0.2612
44924W        W88018  32.735  15.511   0.578 -0.1064  0.3634 -0.1428
44925W        W88019  32.024  17.620   3.161 -0.2089 -0.1513 -0.3760
44926W        W88020  29.591  16.868   2.816  0.0741 -0.0150  0.0024
44927W        W88021  29.698  16.017  31.464 -0.1294 -0.1718 -0.0797
44928W        W88022  33.909  16.193   3.603  0.2027 -0.2467  0.2165
44929W        W88023  30.875  16.155   1.258 -0.2295  0.4159 -0.2004
44930W        W88024  30.481  18.854   1.000 -0.0905  0.1408 -0.1499
44931W        W88025  31.402  18.714   1.320  0.0195  0.2240  0.2523
44932W        W88026  28.697  16.511   0.169 -0.1418 -0.1270  0.0437
44933W        W88027  29.648  18.163   0.895  0.0553 -0.6902  0.1017
44934W        W88028  29.967  15.582   3.259 -0.2223  0.1132 -0.0921
44935W        W88029  31.774  16.680   3.394  0.2482  0.4024 -0.1261
44936W        W88030  30.645  16.650   2.283  0.2865 -0.0971 -0.3513
44937W        W88031  30.115  14.847   2.181 -0.3116  0.1827 -0.0601
44938W        W88032  29.953  15.365   0.844  0.1086  0.1039 -0.0834
44939W        W88033  33.322  17.322   3.320  0.0677 -0.1323 -0.1503
44940W        W88034  31.115  16.014   1.752 -0.0737  0.1835  0.4042
44941W        W88035  30.252  16.919   2.581 -0.2711 -0.2812 -0.1930
44942W        W88036  31.452  14.043   0.693 -0.0015  0.4179  0.1519
44943W        W88037  33.338  18.159   1.158  0.1004  0.0826  0.0376
44944W        W88038  31.245  15.321   3.915 -0.0546 -0.2845 -0.0052
44945W        W88039  29.597  16.666   0.372 -0.1180  0.0685  0.1707
44946W        W88040  29.686  15.617   1.899  0.0282  0.1479  0.0159
44947W        W88041  30.709  17.019   0.798  0.0804  0.0007 -0.1116
44948W        W88042  30.169  15.808   0.899  0.2043  0.1130  0.1372
44949W        W88043  29.669  16.878  31.866 -0.0206 -0.1994 -0.0762
44950W        W88044  29.986  17.574   0.351 -0.1685 -0.2776 -0.0819
44951W        W88045  29.380  16.550   0.832  0.1368 -0.1610 -0.3030
44952W        W88046  31.517  14.314   1.128  0.0763  0.1673 -0.1046
44953W        W88047  31.785  18.426  31.420  0.3494  0.2105 -0.1500
44954W        W88048  31.521  15.156   0.363 -0.1592 -0.2863  0.0492
44955W        W88049  33.531  14.514   4.015  0.1997  0.1467 -0.1796
44956W        W88050  30.232  16.289   1.800  0.0450 -0.0234  0.0887
44957W        W88051  30.727  14.863   3.273  0.0577 -0.1732 -0.0249
44958W        W88052  28.839  15.479   1.817 -0.0367  0.0706 -0.0261
44959W        W88053  33.709  18.070   1.546 -0.1048  0.0844 -0.1988
44960W        W88054  28.665  15.664   3.441  0.0750  0.0712 -0.4039
44961W        W88055  30.873  17.354   2.147 -0.1469  0.0291 -0.2377
44962W        W88056  30.435  17.276   3.912  0.0091 -0.0246 -0.0156
44963W        W88057  33.412  15.632   1.438 -0.3584  0.3106  0.2403
44964W        W88058  28.537  15.527   0.141 -0.0035 -0.2755 -0.1974
44965W        W88059  30.974  14.594   1.628 -0.2134  0.2478  0.0532
44966W        W88060  31.907  18.104   1.953  0.0423  0.3150 -0.0160
44967W        W88061  30.425  17.513   0.954 -0.1925  0.1697 -0.1029
44968W        W88062  32.075  16.339   1.822 -0.0172  0.2288 -0.2007
44969W        W88063  30.238  17.311   2.297 -0.2609 -0.1214 -0.1006
44970W        W88064  31.506  17.091   1.852  0.2553 -0.0055  0.3354
44971W        W88065  30.353  17.188   0.255  0.0624  0.0838  0.1094
44972W        W88066  29.833  17.544   2.182  0.1113 -0.2017  0.1424
44973W        W88067  30.235  14.488   1.349  0.0423 -0.0761 -0.1278
44974W        W88068  32.404  17.954   2.325  0.0320  0.2050  0.0114
44975W        W88069  30.900  15.679   1.436 -0.2186  0.1726  0.1435
44976W        W88070  31.499  15.343   2.214 -0.1183  0.2383 -0.0127
44977W        W88071  33.022  16.532   4.589  0.0296  0.0653 -0.0022
44978W        W88072  30.761  15.522   4.255 -0.0501  0.0202 -0.0071
44979W        W88073  28.652  15.392   2.829 -0.0908  0.1564  0.1225
44980W        W88074  32.293  18.697   3.060 -0.0852  0.3256  0.0518
44981W        W88075  32.259  15.618   0.504 -0.0285 -0.2606  0.1553
44982W        W88076  32.134  15.035   2.624 -0.2796 -0.4600 -0.0676
44983W        W88077  32.292  15.455   2.293 -0.3967  0.1846  0.0061
44984W        W88078  32.626  13.911   0.257 -0.1632 -0.1219 -0.2833
44985W        W88079  29.611  16.381   1.245  0.1340  0.1423 -0.2913
44986W        W88080  30.797  15.279   2.863  0.0975 -0.1199 -0.2612
44987W        W88081  29.826  14.797   0.701 -0.0807  0.1573 -0.1525
44988W        W88082  31.880  15.288   1.304  0.0371  0.0132 -0.0186
44989W        W88083  33.080  18.636   1.175  0.1925 -0.1877  0.0747
44990W        W88084  30.591  17.614   1.472  0.3115 -0.0540 -0.1119
44991W        W88085  30.943  17.875   1.749  0.2057 -0.0255  0.1195
44992W        W88086  29.159  15.582   0.940 -0.2064  0.4160  0.0810
44993W        W88087  29.182  19.705   3.355 -0.0773 -0.0834  0.1149
44994W        W88088  30.074  15.478  31.583  0.2651 -0.0292 -0.0342
44995W        W88089  29.630  17.478   1.678 -0.2617 -0.1019  0.0836
44996W        W88090  31.637  17.611   1.844  0.2379 -0.0752 -0.2131
44997W        W88091  31.714  16.196   3.318 -0.0972  0.3921  0.1458
44998W        W88092  31.586  15.550   0.069  0.0714 -0.1381  0.1590
44999W        W88093  31.832  15.364   3.330  0.0235 -0.2533 -0.0365
45000W        W88094  29.710  16.158   0.782 -0.1230  0.1751 -0.0859
45001W        W88095  31.379  13.866   2.798  0.2027 -0.1114  0.0287
45002W        W88096  29.670  17.926   1.900 -0.0021 -0.0240 -0.0132
45003W        W88097  29.675  18.393   2.162  0.2736 -0.0951 -0.2519
45004W        W88098  31.905  17.221   1.587 -0.0816  0.1479 -0.0819
45005W        W88099  30.833  14.312   2.430 -0.0667 -0.1151  0.0315
45006W        W88100  32.167  16.285   2.303  0.1311  0.1154  0.1987
45007W        W88101  30.154  15.716   1.873  0.2466  0.0179 -0.0920
45008W        W88102  33.002  16.327   3.042 -0.0196 -0.0165  0.1862
45009W        W88103  31.060  15.772   3.097 -0.1247 -0.3167  0.3143
45010W        W88104  31.205  16.692   1.929 -0.0701 -0.0896 -0.2429
45011W        W88105  31.049  17.766   3.670 -0.2915  0.0417  0.0688
45012W        W88106  33.529  14.850   0.431 -0.0336  0.0440 -0.0929
45013W        W88107  30.172  17.941   2.244 -0.2796 -0.2279  0.3011
45014W        W88108  28.495  16.239   2.285 -0.1384 -0.0677 -0.1393
45015W        W88109  31.033  15.207   3.449 -0.2191 -0.5700 -0.0067
45016W        W88110  30.202  17.299   1.425  0.0937  0.2057  0.0161
45017W        W88111  31.157  15.242   0.058  0.4072  0.0728  0.0286
45018W        W88112  30.699  19.096  30.120  0.1522  0.0105  0.1959
45019W        W88113  29.250  16.845   4.135 -0.0562  0.0842  0.0114
45020W        W88114  29.294  16.516   1.663  0.1091  0.0148 -0.1703
45021W        W88115  30.523  17.850  31.315  0.1636 -0.1167 -0.1094
45022W        W88116  31.583  16.770   0.770 -0.2086 -0.0802 -0.0091
45023W        W88117  30.894  17.340   1.146  0.2262 -0.2263  0.2410
45024W        W88118  31.476  18.711   2.790  0.2463  0.5287  0.0032
45025W        W88119  33.388  15.660   1.927 -0.0810 -0.1441  0.1640
45026W        W88120  31.502  19.079   2.188 -0.0362  0.0619  0.0547
45027W        W88121  28.736  18.808  31.818  0.2574  0.2641 -0.0768
45028W        W88122  32.580  18.536   2.172 -0.2883  0.2673 -0.2757
45029W        W88123  31.105  18.765   0.130 -0.0894 -0.2191  0.1116
45030W        W88124  31.548  17.550   2.908  0.0571 -0.2247 -0.2266
45031W        W88125  30.902  16.131   0.314 -0.1334  0.2469  0.1642
45032W        W88126  31.677  16.780   2.321 -0.0861  0.1963  0.0749
45033W        W88127  33.201  15.549   2.475  0.0253 -0.1726 -0.0485
45034W        W88128  31.315  18.170   2.694 -0.2672  0.0336  0.0795
45035W        W88129  30.992  16.039   2.687  0.1347 -0.0841  0.0612
45036W        W88130  29.614  15.403   0.162 -0.0894  0.1782 -0.1310
45037W        W88131  28.526  15.880   2.668 -0.3177 -0.0168 -0.2002
45038W        W88132  32.537  14.632   3.265 -0.3401  0.0125  0.0168
45039W        W88133  28.872  17.014   1.672 -0.1493  0.1129 -0.1029
45040W        W88134  34.086  17.589   0.776 -0.4094  0.3130  0.0266
45041W        W88135  30.321  15.430  31.975  0.4247 -0.1957 -0.2163
45042W        W88136  29.997  16.726   1.370  0.0206 -0.0927 -0.1275
45043W        W88137  32.372  15.542   1.815 -0.0911 -0.1968  0.4316
45044W        W88138  31.199  18.959   0.948 -0.4001  0.4522 -0.0775
45045W        W88139  31.243  15.540   1.849  0.4312 -0.1535  0.0652
45046W        W88140  32.899  17.888   2.607  0.5247 -0.1429 -0.2907
45047W        W88141  29.092  16.742   0.440 -0.1742  0.1192  0.0753
45048W        W88142  29.690  18.256   1.377 -0.0522  0.1605 -0.1199
45049W        W88143  29.027  14.972  31.496 -0.3642 -0.2302 -0.2219
45050W        W88144  30.924  16.264   2.198 -0.1541 -0.1424 -0.1570
45051W        W88145  30.462  15.360   3.306 -0.1027 -0.0890 -0.0508
45052W        W88146  31.951  14.655   1.912  0.1647 -0.2827 -0.3104
45053W        W88147  29.909  15.792  31.941 -0.0807 -0.0564 -0.3349
45054W        W88148  32.670  15.192   0.968  0.0206 -0.0825 -0.2670
45055W        W88149  30.716  15.845   1.957 -0.0081  0.0397  0.0213
45056W        W88150  30.259  16.998   1.004 -0.0177 -0.1573 -0.0117
45057W        W88151  30.904  17.920  31.674 -0.0817  0.1497 -0.1144
45058W        W88152  30.763  16.181   3.183  0.0104  0.0383 -0.2820
45059W        W88153  32.172  18.045  31.717  0.1520  0.2388  0.2640
45060W        W88154  30.952  17.111   4.809  0.0849 -0.1264 -0.1961
45061W        W88155  30.873  14.708   0.068 -0.0482  0.1178  0.2156
45062W        W88156  31.306  16.391   1.505 -0.0138  0.3657  0.1850
45063W        W88157  30.206  16.279  31.745  0.0056 -0.1428  0.1835
45064W        W88158  29.873  17.292   2.718  0.1200 -0.0786  0.1487
45065W        W88159  31.192  17.145   3.450 -0.0235 -0.0035  0.0614
45066W        W88160  29.491  15.195   1.123  0.0660 -0.0994 -0.2133
45067W        W88161  31.359  18.622   0.570  0.1666 -0.1057 -0.0126
45068W        W88162  32.448  16.301   2.759  0.0829 -0.0645 -0.1182
45069W        W88163  31.504  19.426   1.811  0.1915  0.0861  0.0898
45070W        W88164  31.133  16.175   0.748 -0.1051 -0.0543  0.1203
45071W        W88165  31.915  18.465   2.774 -0.0064  0.1347 -0.0372
45072W        W88166  28.921  16.124   1.934 -0.1244 -0.1975 -0.2203
45073W        W88167  32.001  16.933   3.906 -0.2210 -0.0902 -0.1849
45074W        W88168  31.686  18.283   1.473 -0.2727 -0.0949  0.0254
45075W        W88169  31.813  16.929   0.350  0.3385  0.0765  0.3546
45076W        W88170  27.674  16.689   1.007  0.0729 -0.2906  0.1242
45077W        W88171  29.895  16.641   0.837  0.1493 -0.1402  0.2196
45078W        W88172  30.886  14.841   2.571 -0.0556  0.0523 -0.2394
45079W        W88173  31.440  14.957   2.629  0.0096 -0.0207 -0.0289
45080W        W88174  31.576  19.130   0.503  0.0334 -0.0647  0.0054
45081W        W88175  31.196  15.876   2.266 -0.2813  0.1507 -0.0642
45082W        W88176  31.692  18.027   2.921 -0.2118 -0.2969 -0.2708
45083W        W88177  30.144  17.705   2.649 -0.2396  0.1584  0.0101
45084W        W88178  29.901  17.908  31.912  0.1729  0.2718  0.1364
45085W        W88179  30.420  17.213   1.845 -0.0064  0.2695 -0.2395
45086W        W88180  30.495  17.616   0.414 -0.0911  0.0035  0.1030
45087W        W88181  30.740  18.004   0.179 -0.3126 -0.0795  0.0925
45088W        W88182  31.851  17.223   0.769 -0.1030  0.2909 -0.1503
45089W        W88183  31.683  16.655   1.739 -0.0528 -0.3927 -0.1110
45090W        W88184  33.017  15.988   1.545  0.1202 -0.0834 -0.3386
45091W        W88185  29.533  15.498   2.463  0.0030  0.0791  0.1444
45092W        W88186  33.162  14.386   1.063  0.0358 -0.0480 -0.0584
45093W        W88187  32.144  13.809  31.386  0.3377  0.0199 -0.0943
45094W        W88188  30.067  16.191   1.169  0.1863 -0.4209 -0.1177
45095W        W88189  26.959  15.852   0.087 -0.1550  0.1522  0.0564
45096W        W88190  30.956  18.807  31.343  0.0870 -0.0090 -0.3014
45097W        W88191  31.020  18.007   2.285 -0.0325  0.2292  0.1518
45098W        W88192  31.424  13.936   4.163  0.2736 -0.1905 -0.1055
45099W        W88193  30.018  16.593   3.480  0.0302 -0.1060  0.0299
45100W        W88194  29.436  15.723   0.479  0.0852 -0.2328  0.0030
45101W        W88195  30.390  15.849  31.666 -0.1906  0.1165 -0.0687
45102W        W88196  32.368  16.835   2.495  0.1205 -0.2817  0.0660
45103W        W88197  28.343  14.534   1.622  0.1437 -0.0489  0.0239
45104W        W88198  29.636  15.084   1.686 -0.2048 -0.2118  0.0021
45105W        W88199  31.459  17.255   0.459 -0.0978 -0.1184 -0.4655
45106W        W88200  32.832  17.751   1.424 -0.1293 -0.0278  0.2796
45107W        W88201  31.334  14.476   2.573  0.1705  0.0329 -0.0271
45108W        W88202  32.382  16.446   3.637 -0.2413  0.0198  0.0585
45109W        W88203  29.230  16.912  31.597  0.2468  0.0421  0.1866
45110W        W88204  30.732  13.959   3.691  0.1278  0.1237 -0.1829
45111W        W88205  30.082  13.619   2.631 -0.0277  0.0128 -0.0916
45112W        W88206  30.065  16.680   0.141  0.0904  0.4721  0.4340
45113W        W88207  31.401  15.474   1.388  0.0358 -0.0277  0.0315
45114W        W88208  32.722  18.792   1.721 -0.0233  0.3435 -0.3090
45115W        W88209  30.964  18.410   0.848 -0.1440  0.0328 -0.1479
45116W        W88210  30.520  16.654   3.295  0.0696 -0.0002 -0.0471
45117W        W88211  29.279  18.458   2.853  0.1210  0.1754  0.0064
45118W        W88212  28.314  14.809   2.231  0.0449  0.1380 -0.0004
45119W        W88213  32.196  16.885  31.945 -0.0273  0.0620 -0.0311
45120W        W88214  30.522  18.520   1.428 -0.0838  0.2779 -0.0411
45121W        W88215  32.640  17.666   1.870  0.0507  0.1033 -0.0056
45122W        W88216  32.552  17.164   1.903  0.1269 -0.1150  0.1014
45123W        W88217  31.798  17.910   0.953 -0.2982  0.1772 -0.0025
45124W        W88218  29.085  15.043   2.840 -0.1177  0.1267 -0.2483
45125W        W88219  28.377  17.157   1.946 -0.1455 -0.1316 -0.0960
45126W        W88220  32.032  17.769   2.665 -0.1199 -0.3273 -0.1493
45127W        W88221  30.622  15.362   1.749 -0.0826  0.1904  0.0598
45128W        W88222  31.725  15.706   1.052  0.2447 -0.0617  0.1969
45129W        W88223  31.745  16.228   0.944  0.2611 -0.1787 -0.2571
45130W        W88224  28.351  15.965   1.850  0.1090 -0.1486  0.2265
45131W        W88225  32.212  17.251   0.417 -0.2975 -0.0076 -0.3851
45132W        W88226  31.090  15.034   1.863 -0.2139 -0.3610  0.0456
45133W        W88227  30.854  18.829   0.529 -0.0741  0.0527 -0.2551
45134W        W88228  31.056  16.870   2.342  0.2260 -0.1406  0.0298
45135W        W88229  32.223  16.458   1.127  0.0453  0.1104  0.0014
45136W        W88230  33.090  16.277   2.557  0.3636  0.0372  0.2029
45137W        W88231  31.371  18.077   1.946  0.0236  0.2155 -0.1392
45138W        W88232  32.942  17.271   4.615 -0.2383 -0.1195 -0.0084
45139W        W88233  31.210  18.558   2.374 -0.0068 -0.2108  0.1956
45140W        W88234  31.665  17.201   3.277 -0.2191 -0.0762 -0.0586
45141W        W88235  28.532  13.953   1.523  0.1547  0.1990  0.0298
45142W        W88236  29.930  14.614  31.687 -0.0476  0.0339  0.0111
45143W        W88237  30.588  17.245   2.794  0.4838  0.0376  0.3467
45144W        W88238  31.742  15.171   3.807  0.1529 -0.0352  0.0977
45145W        W88239  29.406  15.886   2.686  0.0107 -0.2484  0.0108
45146W        W88240  31.827  13.210   1.169 -0.1577 -0.0059 -0.1149
45147W        W88241  30.782  17.592   3.124  0.0476 -0.0102 -0.0949
45148W        W88242  31.828  17.323   2.277 -0.2708  0.2026  0.0930
45149W        W88243  30.165  17.344   5.929  0.2176  0.3044  0.2320
45150W        W88244  31.213  14.573   4.166 -0.0043  0.2089 -0.3834
45151W        W88245  31.836  15.908   4.292  0.3317  0.1052  0.4980
45152W        W88246  32.380  17.224   4.112  0.0710  0.3580  0.2979
45153W        W88247  28.481  15.450   5.666  0.0445  0.0363  0.0793
45154W        W88248  31.703  16.900   5.184 -0.1075  0.0116 -0.0681
45155W        W88249  29.267  16.147   6.590 -0.0363  0.1408  0.0289
45156W        W88250  29.869  15.321   4.208 -0.2030  0.5163 -0.3343
45157W        W88251  32.167  17.667   5.359  0.0458  0.1626  0.1743
45158W        W88252  31.407  16.804   3.110  0.0873  0.1286  0.0195
45159W        W88253  30.819  15.919   6.839  0.1947 -0.0008  0.0456
45160W        W88254  31.030  16.499   6.198  0.0080 -0.3045  0.0618
45161W        W88255  30.314  14.901   4.220 -0.0987  0.1627 -0.0748
45162W        W88256  28.503  15.466   5.065  0.1610  0.1021 -0.1023
45163W        W88257  32.884  15.115   6.174 -0.0828  0.1730 -0.2334
45164W        W88258  30.136  16.790   3.947  0.4488 -0.3359 -0.1200
45165W        W88259  29.012  16.103   7.444 -0.2403  0.0337 -0.0581
45166W        W88260  30.728  15.653   4.739  0.0483 -0.2050  0.2703
45167W        W88261  31.386  16.146   4.559  0.5179  0.1479 -0.4515
45168W        W88262  28.897  16.135   5.644 -0.0502  0.0280 -0.1660
45169W        W88263  30.515  15.522   8.407 -0.1725 -0.1052 -0.0497
45170W        W88264  30.855  17.233   4.341  0.0369  0.0384  0.1032
45171W        W88265  30.546  15.943   4.058  0.3297 -0.1285  0.0935
45172W        W88266  29.691  16.013   5.035 -0.0512 -0.0725 -0.0889
45173W        W88267  29.413  16.957   5.245  0.4554  0.2088 -0.0712
45174W        W88268  31.558  15.142   5.741  0.0151 -0.1104  0.1539
45175W        W88269  31.207  15.551   4.956 -0.0925  0.0644 -0.4985
45176W        W88270  30.368  17.588   5.061  0.0076 -0.1240 -0.1725
45177W        W88271  30.594  16.753   5.001  0.1597  0.0303 -0.2018
45178W        W88272  32.918  13.850   7.778 -0.1426 -0.1987 -0.0661
45179W        W88273  30.709  17.652   4.144  0.0528 -0.2026 -0.0319
45180W        W88274  29.867  19.497   6.289  0.0401 -0.2904  0.1075
45181W        W88275  29.672  17.495   3.855  0.0007 -0.0328 -0.3463
45182W        W88276  31.445  16.004   5.180 -0.2639 -0.0467  0.0336
45183W        W88277  31.980  17.134   6.704  0.0482  0.1835  0.2068
45184W        W88278  29.341  17.707   7.907  0.1819  0.0745 -0.0198
45185W        W88279  28.155  16.396   3.383  0.0243  0.0457 -0.3870
45186W        W88280  31.559  16.906   6.273  0.1638 -0.0744  0.1717
45187W        W88281  31.087  16.962   5.784  0.0697  0.0311 -0.1316
45188W        W88282  30.461  16.051   8.195 -0.2076  0.1324 -0.1099
45189W        W88283  31.042  15.116   4.676 -0.2583 -0.0018  0.0580
45190W        W88284  30.528  16.864   4.262 -0.0130 -0.2651  0.1624
45191W        W88285  29.680  16.933   4.729 -0.1556 -0.2153  0.1081
45192W        W88286  29.990  17.114   6.882  0.1230  0.1374  0.0564
45193W        W88287  29.950  17.784   5.417  0.1376 -0.0772  0.1653
45194W        W88288  31.108  13.967   7.945 -0.0452 -0.0160  0.2252
45195W        W88289  30.175  18.692   3.365  0.0227 -0.2524  0.1005
45196W        W88290  32.417  14.766   4.876  0.1618  0.0078  0.1316
45197W        W88291  31.113  13.943   3.210  0.1944 -0.3337  0.0477
45198W        W88292  32.631  15.303   4.965 -0.0145 -0.0971  0.0280
45199W        W88293  30.314  14.574   5.527 -0.4375  0.0116  0.1490
45200W        W88294  30.020  17.778   6.206 -0.2219  0.1487  0.0164
45201W        W88295  29.464  15.091   5.467  0.3964 -0.0136  0.0642
45202W        W88296  32.795  16.525   5.992  0.0013  0.1884 -0.2384
45203W        W88297  30.852  16.726   2.927 -0.0206  0.1337 -0.0365
45204W        W88298  31.715  13.872   5.534 -0.4167 -0.3835  0.1585
45205W        W88299  29.972  19.030   5.937  0.0725  0.3902 -0.2590
45206W        W88300  29.011  15.404   5.378  0.2722  0.1955  0.3619
45207W        W88301  31.557  17.161   3.836  0.0206  0.0884 -0.1623
45208W        W88302  31.683  17.467   5.309 -0.2810 -0.0007 -0.0535
45209W        W88303  31.540  17.714   3.756 -0.3606 -0.1753  0.0148
45210W        W88304  30.423  15.369   2.212  0.2065 -0.2377  0.0043
45211W        W88305  28.860  17.738   6.264  0.2377  0.1395 -0.0158
45212W        W88306  29.163  16.233   6.097  0.0133 -0.0923  0.0891
45213W        W88307  29.744  14.703   5.344  0.0452  0.1029  0.1612
45214W        W88308  33.031  15.134   7.359  0.0152 -0.1670  0.1034
45215W        W88309  29.270  18.002   6.902 -0.0590 -0.1982 -0.1907
45216W        W88310  31.778  14.328   6.865 -0.0335  0.2562  0.1469
45217W        W88311  29.691  16.139   4.585  0.2517  0.1479 -0.2841
45218W        W88312  31.621  16.115   5.660  0.2032 -0.1041  0.4936
45219W        W88313  32.512  17.433   3.677 -0.1791 -0.0978  0.0931
45220W        W88314  31.587  12.469   7.247 -0.1293  0.0729  0.1923
45221W        W88315  31.706  14.382   6.179 -0.1589  0.1650  0.2441
45222W        W88316  30.177  17.325   3.173  0.1242  0.1802 -0.3538
45223W        W88317  30.825  18.052   2.914  0.2954  0.1751 -0.1123
45224W        W88318  31.543  17.081   7.020 -0.1842 -0.0321  0.0393
45225W        W88319  32.181  15.029   4.072  0.1032  0.3212  0.2675
45226W        W88320  30.765  17.297   5.198 -0.1976  0.1141 -0.0666
45227W        W88321  29.639  17.316   7.747  0.0337 -0.2803 -0.2057
45228W        W88322  32.039  17.310   7.375  0.0102 -0.0594 -0.3213
45229W        W88323  30.085  17.505   4.134  0.2560 -0.1846 -0.3843
45230W        W88324  27.747  16.144   4.298  0.3538  0.1845  0.1607
45231W        W88325  29.314  17.306   2.896  0.4142 -0.0492 -0.0633
45232W        W88326  28.961  14.149   5.267  0.1343 -0.3096 -0.1877
45233W        W88327  29.959  17.325   4.674 -0.0052  0.0657 -0.1376
45234W        W88328  31.660  14.374   4.315 -0.1149  0.0672 -0.3438
45235W        W88329  30.046  15.812   6.957  0.1663  0.0316 -0.1193
45236W        W88330  31.319  13.926   7.074 -0.1622 -0.2213 -0.2052
45237W        W88331  28.455  17.069   4.769 -0.1707 -0.1263 -0.2541
45238W        W88332  33.386  17.467   5.970 -0.1049 -0.0527 -0.0622
45239W        W88333  32.473  14.955   5.373 -0.0333 -0.1039  0.2383
45240W        W88334  32.499  17.668   2.779 -0.1841  0.2376  0.2608
45241W        W88335  28.486  16.046   6.819 -0.0655  0.1424  0.2585
45242W        W88336  30.395  16.039   3.477 -0.0197 -0.3522 -0.0084
45243W        W88337  29.887  15.767   8.062 -0.3625  0.0775  0.3404
45244W        W88338  30.715  15.254   5.034 -0.0944  0.0752  0.0363
45245W        W88339  32.511  15.016   7.250  0.1014  0.1240 -0.2896
45246W        W88340  28.365  14.982   4.415 -0.0507 -0.1840  0.2191
45247W        W88341  31.954  14.304   5.681 -0.0619 -0.1933 -0.2151
45248W        W88342  30.179  16.407   4.400  0.2694 -0.0765 -0.1264
45249W        W88343  28.226  16.091   4.646  0.1828  0.0364  0.2795
45250W        W88344  32.391  16.356   8.630 -0.1013  0.0110 -0.0321
45251W        W88345  33.179  19.463   6.418 -0.0678  0.0820  0.0279
45252W        W88346  32.742  16.954   6.316 -0.3981 -0.0785 -0.1335
45253W        W88347  32.186  16.649   5.193 -0.0449  0.2634  0.2148
45254W        W88348  28.193  15.912   7.251  0.0175  0.0006 -0.1313
45255W        W88349  30.211  14.540   5.018  0.1837  0.2216  0.2510
45256W        W88350  28.856  18.905   4.524  0.0664  0.1027  0.1865
45257W        W88351  30.793  16.273   5.314 -0.1273 -0.3651  0.2554
45258W        W88352  30.915  16.642   4.462  0.2072 -0.0018  0.2059
45259W        W88353  33.339  17.905   5.532 -0.0932 -0.1272 -0.3939
45260W        W88354  30.733  16.367   3.758  0.3252  0.0213  0.2217
45261W        W88355  30.259  15.972   5.234 -0.0104  0.1809  0.0214
45262W        W88356  29.818  15.377   6.976  0.0609  0.1470  0.0427
45263W        W88357  31.432  16.505   5.884  0.2278  0.1140  0.1004
45264W        W88358  32.109  15.761   6.341  0.0135  0.0278 -0.1480
45265W        W88359  30.207  13.344   4.787  0.0386  0.0603 -0.0699
45266W        W88360  31.573  16.972   5.649 -0.0409  0.2840  0.2584
45267W        W88361  28.253  17.079   4.263 -0.0576  0.2129 -0.0660
45268W        W88362  29.347  17.188   4.489  0.0792 -0.1444 -0.1281
45269W        W88363  30.468  17.211   4.642  0.0373 -0.0913 -0.2731
45270W        W88364  32.186  13.505   7.372 -0.1738 -0.0523 -0.1268
45271W        W88365  27.396  16.353   7.664  0.0329  0.1731  0.0975
45272W        W88366  30.321  15.600   7.868 -0.2129  0.0163  0.2067
45273W        W88367  29.296  15.691   4.453  0.0284 -0.1203  0.1936
45274W        W88368  31.032  16.061   4.887 -0.1265 -0.0995 -0.1894
45275W        W88369  32.832  14.155   4.100 -0.0513  0.3818 -0.0421
45276W        W88370  31.924  14.868   4.988  0.0671 -0.3242 -0.3133
45277W        W88371  30.580  16.304   6.331 -0.0655 -0.2632 -0.0124
45278W        W88372  32.003  16.413   3.941  0.2808 -0.3159 -0.1972
45279W        W88373  30.107  15.461   2.761 -0.2294 -0.0917 -0.1161
45280W        W88374  32.268  15.046   3.575 -0.1895 -0.3770  0.1767
45281W        W88375  29.767  18.148   6.572 -0.1207  0.1467 -0.2720
45282W        W88376  31.573  16.396   4.204 -0.0308  0.0602 -0.2751
45283W        W88377  29.900  16.795   5.212  0.3210  0.0576 -0.1722
45284W        W88378  30.446  16.213   2.231 -0.2950  0.1000  0.0131
45285W        W88379  32.740  16.774   3.858 -0.0947  0.0728  0.0123
45286W        W88380  29.259  17.734   4.692  0.1435 -0.0292  0.2246
45287W        W88381  31.392  17.245   7.921 -0.0393 -0.0414 -0.2311
45288W        W88382  30.697  15.001   5.537  0.1254  0.1737  0.0915
45289W        W88383  30.194  14.993   6.973  0.1335 -0.3561 -0.1982
45290W        W88384  30.068  15.717   3.723 -0.3226  0.1239  0.0226
45291W        W88385  31.364  15.046   4.275  0.0704  0.0557 -0.2737
45292W        W88386  29.985  17.703   3.488  0.0028 -0.2947  0.1049
45293W        W88387  30.826  14.496   6.527  0.0575 -0.2408 -0.0752
45294W        W88388  31.356  15.555   7.230  0.0864 -0.0261 -0.0600
45295W        W88389  29.931  15.322   6.049  0.2196 -0.2103  0.1517
45296W        W88390  31.480  14.983   6.154  0.0896  0.3181  0.0474
45297W        W88391  31.912  15.823   5.267  0.1688 -0.0911 -0.2125
45298W        W88392  31.566  15.995   7.366  0.0335 -0.1485  0.1797
45299W        W88393  30.014  15.085   3.289  0.0944 -0.2497  0.5792
45300W        W88394  30.703  15.003   6.769  0.2088  0.1631 -0.0923
45301W        W88395  29.667  17.369   6.233 -0.0947 -0.0515  0.0595
45302W        W88396  29.062  17.154   5.610  0.2864 -0.1690  0.5076
45303W        W88397  31.752  15.634   6.782  0.2975  0.3363 -0.4231
45304W        W88398  30.158  16.867   4.717 -0.1976  0.1003 -0.1484
45305W        W88399  29.684  14.809   6.971  0.1932  0.2250 -0.0626
45306W        W88400  30.761  12.845   4.306  0.2712  0.1850  0.1031
45307W        W88401  31.325  18.219   3.656  0.1213 -0.0870 -0.1751
45308W        W88402  31.592  17.093   2.703  0.1522 -0.1845  0.1145
45309W        W88403  31.175  15.582   7.693  0.1625 -0.3359 -0.5472
45310W        W88404  31.151  17.396   5.520 -0.2967 -0.0516 -0.1974
45311W        W88405  30.673  17.172   3.332 -0.0111  0.2153  0.2195
45312W        W88406  32.594  15.398   5.709  0.1233  0.1732 -0.0026
45313W        W88407  30.605  17.675   2.490  0.0888  0.2040 -0.1669
45314W        W88408  31.835  13.471   5.290  0.0918  0.1197 -0.3839
45315W        W88409  28.831  18.374   4.940 -0.2233  0.1113  0.1580
45316W        W88410  30.192  16.326   3.055  0.1741  0.0077  0.0367
45317W        W88411  28.605  16.114   3.720 -0.1368  0.2796  0.4283
45318W        W88412  32.582  14.547   7.370  0.1185  0.0382 -0.1846
45319W        W88413  32.618  16.070   3.226 -0.2335 -0.2717 -0.3203
45320W        W88414  28.672  15.797   5.999 -0.0369  0.3883  0.0132
45321W        W88415  31.103  15.303   5.418  0.1158 -0.3491 -0.2198
45322W        W88416  29.685  17.375   5.264 -0.1597 -0.3681 -0.0082
45323W        W88417  30.258  16.431   7.227 -0.3675  0.2695  0.0538
45324W        W88418  31.598  14.322   3.541  0.1536  0.3818 -0.3937
45325W        W88419  31.972  17.036   5.993  0.2212  0.2760 -0.0001
45326W        W88420  31.072  16.959   6.300  0.3179 -0.1205  0.1154
45327W        W88421  29.089  16.621   2.955 -0.1730  0.1171  0.1886
45328W        W88422  31.678  16.138   6.846  0.1686  0.0486 -0.0652
45329W        W88423  30.222  14.459   3.993  0.1550 -0.0100  0.0666
45330W        W88424  29.608  17.616   4.359 -0.1186  0.1743  0.0573
45331W        W88425  32.314  16.120   5.206  0.0104 -0.2095  0.2591
45332W        W88426  31.192  15.863   4.005  0.0824 -0.3319 -0.0940
45333W        W88427  30.061  17.169   3.637  0.1210  0.0757 -0.3767
45334W        W88428  30.184  16.579   6.212 -0.0177  0.0837  0.1881
45335W        W88429  32.282  16.386   7.233 -0.3086 -0.1159 -0.2293
45336W        W88430  30.621  15.862   5.698 -0.0432 -0.1185  0.0517
45337W        W88431  30.812  15.749   3.537 -0.2135  0.1714 -0.1475
45338W        W88432  30.840  15.836   6.178 -0.1043  0.0433  0.0193
45339W        W88433  30.420  15.920   7.278 -0.0649 -0.1082 -0.1809
45340W        W88434  30.845  15.451   6.984  0.0634  0.0858 -0.0454
45341W        W88435  29.144  17.227   7.933  0.5541 -0.0728  0.0433
45342W        W88436  30.068  14.276   7.538  0.0693  0.2188 -0.0914
45343W        W88437  33.283  18.168   4.999  0.0688  0.0421  0.4391
45344W        W88438  30.949  15.818   7.340 -0.1028  0.0462 -0.3383
45345W        W88439  30.839  17.689   4.706  0.1030  0.1423 -0.3207
45346W        W88440  28.891  16.702   5.860 -0.2353 -0.2753 -0.1604
45347W        W88441  28.579  16.695   3.954 -0.0228  0.0073  0.2009
45348W        W88442  30.415  15.552   6.732 -0.2176  0.1991  0.2051
45349W        W88443  30.642  17.205   5.773  0.1459 -0.1667 -0.0707
45350W        W88444  28.221  17.127   5.204  0.2123  0.0898  0.0003
45351W        W88445  29.400  16.764   5.831  0.1819  0.1645 -0.2374
45352W        W88446  31.211  13.805   5.721  0.5662 -0.1440 -0.0001
45353W        W88447  31.089  16.676   3.982 -0.0183  0.3768 -0.1260
45354W        W88448  29.153  15.755   5.812  0.7749 -0.0186  0.1546
45355W        W88449  32.543  14.253   7.861 -0.3152 -0.1766  0.0864
45356W        W88450  32.703  16.355   4.185  0.1195 -0.0501  0.3394
45357W        W88451  31.703  16.916   7.544 -0.1296  0.0381  0.0918
45358W        W88452  29.455  13.982   6.174  0.1006  0.3191  0.0559
45359W        W88453  31.462  16.659   4.699  0.0849  0.4429 -0.0208
45360W        W88454  27.418  15.155   5.516 -0.3446 -0.0796  0.2981
45361W        W88455  31.777  17.515   7.012 -0.2930  0.0907  0.0682
45362W        W88456  28.887  17.490   7.527 -0.0747  0.2500  0.5517
45363W        W88457  31.600  14.262   4.893  0.0533 -0.3615  0.0907
45364W        W88458  29.675  15.002   2.738 -0.3551 -0.2411 -0.2339
45365W        W88459  31.206  16.158   6.585 -0.0683  0.3533  0.0180
45366W        W88460  31.359  17.331   6.086  0.0576 -0.3494  0.4497
45367W        W88461  32.823  16.256   3.627 -0.0101  0.0458 -0.0404
45368W        W88462  30.709  14.857   6.271  0.1687  0.0551 -0.0424
45369W        W88463  29.348  16.595   4.565  0.1265  0.2802  0.0788
45370W        W88464  31.621  14.566   5.293 -0.0371  0.4348 -0.2046
45371W        W88465  33.046  16.679   3.454  0.1698  0.0495 -0.2435
45372W        W88466  29.011  16.438   3.854 -0.1825  0.0380 -0.4104
45373W        W88467  30.296  13.523   6.935  0.1181  0.0929  0.0030
45374W        W88468  31.133  14.774   3.723 -0.1910 -0.1765  0.0562
45375W        W88469  31.852  15.354   4.271  0.1628  0.1069 -0.0152
45376W        W88470  31.248  15.673   6.754  0.0742 -0.0377 -0.1133
45377W        W88471  31.408  15.363   6.428  0.1832  0.1012 -0.1420
45378W        W88472  29.063  16.953   6.966 -0.2806  0.0651 -0.2221
45379W        W88473  29.426  15.999   7.718 -0.2852  0.2871  0.1018
45380W        W88474  32.820  17.489   6.496  0.1086  0.1476 -0.1574
45381W        W88475  32.323  15.550   4.273 -0.0304 -0.1998  0.3177
45382W        W88476  31.056  15.212   7.424  0.2878  0.0364 -0.0732
45383W        W88477  32.303  16.882   4.692 -0.2432 -0.0616  0.0951
45384W        W88478  31.052  17.662   2.707 -0.0171  0.2468  0.5554
45385W        W88479  28.876  16.921   5.097  0.2685 -0.3674 -0.2007
45386W        W88480  32.126  16.170   6.611  0.4877 -0.1312 -0.4080
45387W        W88481  30.838  14.366   2.974 -0.0001  0.2366  0.2486
45388W        W88482  31.707  14.778   6.577 -0.1455 -0.0277 -0.1889
45389W        W88483  29.961  18.177   3.173  0.2821  0.3442 -0.2279
45390W        W88484  29.465  16.132   5.697  0.0647  0.0310 -0.2541
45391W        W88485  32.417  15.622   5.255 -0.1828 -0.0024 -0.0762
45392W        W88486  29.466  16.280   3.646  0.1075  0.1556 -0.0446
45393W        W88487  30.294  19.942   5.778 -0.0983  0.0821  0.0758
45394W        W88488  29.495  15.528   3.052  0.0534  0.1814  0.1341
45395W        W88489  31.277  15.537   2.641 -0.0341 -0.3476  0.1829
45396W        W88490  30.825  17.992   6.319  0.0590  0.1926  0.0152
45397W        W88491  32.245  16.590   6.229  0.0057  0.1493 -0.1612
45398W        W88492  30.955  14.152   4.307 -0.1071  0.0259 -0.0911
45399W        W88493  32.714  14.093   8.299 -0.0305  0.0682  0.2607
45400W        W88494  27.393  16.012   4.731 -0.1115  0.3386 -0.2483
45401W        W88495  30.814  14.569   5.820 -0.1079  0.3454  0.1247
45402W        W88496  29.684  18.644   4.789 -0.0649 -0.1071  0.2296
45403W        W88497  29.469  17.798   6.322  0.0032  0.2375 -0.1184
45404W        W88498  30.334  16.468   5.333 -0.2445 -0.0075  0.2374
45405W        W88499  30.823  14.108   5.638 -0.0123 -0.1182  0.1374
45406W        W88500  32.063  16.131   5.989 -0.3233 -0.0192  0.1245
45407W        W88501  31.032  16.687   3.442  0.0212 -0.2633 -0.0474
45408W        W88502  32.103  14.390   6.491  0.3607 -0.0951  0.0201
45409W        W88503  31.561  15.201   6.881  0.1644 -0.0465  0.1274
45410W        W88504  30.232  15.419   4.932  0.0101 -0.2772  0.1690
45411W        W88505  32.539  18.370   5.321 -0.3224  0.1899 -0.2321
45412W        W88506  31.499  15.104   5.186 -0.3544 -0.0018  0.1235
45413W        W88507  29.165  17.536   4.091 -0.0790  0.2735 -0.1792
45414W        W88508  28.720  15.465   7.657  0.2310 -0.2996 -0.2737
45415W        W88509  29.630  15.133   6.562 -0.1329  0.1152 -0.0566
45416W        W88510  31.516  15.587   5.464 -0.0829  0.1038  0.1474
45417W        W88511  31.063  14.456   4.743  0.0058 -0.1015  0.0908
45418W        W88512  30.303  18.754   1.853  0.0895 -0.0074  0.2009
45419W        W88513  29.534  17.126   6.685 -0.0868  0.1356 -0.2181
45420W        W88514  29.261  16.499   5.397  0.0049  0.2517 -0.0825
45421W        W88515  30.955  18.602   3.977 -0.0432 -0.2327  0.3980
45422W        W88516  31.055  16.546   4.965 -0.1198  0.1883  0.0936
45423W        W88517  31.480  16.003   2.698  0.1185  0.0751 -0.1530
45424W        W88518  31.213  18.436   5.458  0.0713  0.1630  0.0768
45425W        W88519  32.046  16.110   4.704 -0.1523  0.0998  0.3228
45426W        W88520  29.269  17.123   3.739 -0.4822  0.2019  0.1218
45427W        W88521  29.774  18.004   3.815  0.1377 -0.1094  0.0927
45428W        W88522  32.047  15.798   3.440  0.1880  0.3862  0.2856
45429W        W88523  30.546  18.511   3.670 -0.1690  0.0162  0.1887
45430W        W88524  31.877  16.632   6.755 -0.0877 -0.1278  0.1892
45431W        W88525  32.487  13.830   3.939  0.4800  0.2411  0.0231
45432W        W88526  33.302  16.001   4.931  0.5188  0.2390  0.0805
45433W        W88527  31.930  15.312   5.246 -0.0649  0.0371  0.0340
45434W        W88528  32.431  18.318   6.223 -0.2570  0.3010 -0.3519
45435W        W88529  29.885  16.231   5.447  0.1323  0.2352 -0.1124
45436W        W88530  30.142  14.936   4.729  0.0554  0.1261 -0.2781
45437W        W88531  28.627  16.679   6.975  0.0086  0.0433  0.1979
45438W        W88532  32.482  14.155   8.764  0.1641 -0.0656 -0.1838
45439W        W88533  30.106  17.046   6.413 -0.1745  0.2389 -0.2747
45440W        W88534  31.371  17.273   4.876  0.2478 -0.0580 -0.2245
45441W        W88535  28.947  16.379   4.366 -0.1716  0.0845  0.0968
45442W        W88536  28.552  16.462   4.802  0.2189  0.1206  0.0200
45443W        W88537  32.397  13.754   7.816  0.0941 -0.0669  0.0221
45444W        W88538  31.699  17.811   2.314  0.2688 -0.1288 -0.2174
45445W        W88539  30.389  15.507   6.148  0.0788  0.1554 -0.3424
45446W        W88540  30.384  18.091   5.016 -0.0044  0.0524  0.0363
45447W        W88541  30.285  17.173   5.328 -0.2105  0.0184 -0.3867
45448W        W88542  29.956  17.823   4.896  0.0274 -0.1616 -0.2709
45449W        W88543  29.920  16.232   3.906 -0.0245  0.1523  0.3342
45450W        W88544  32.155  15.601   4.723  0.1544 -0.0260  0.1936
45451W        W88545  30.388  15.421   5.500  0.1565  0.1397  0.1109
45452W        W88546  31.548  15.118   7.438 -0.1257  0.3902  0.1629
45453W        W88547  30.768  15.713   5.214  0.3487 -0.5305 -0.2468
45454W        W88548  31.983  14.831   6.122  0.1468 -0.1904 -0.0184
45455W        W88549  31.541  17.415   7.456 -0.0748  0.5539 -0.1364
45456W        W88550  29.457  15.614   6.657 -0.1566  0.3048 -0.1133
45457W        W88551  30.955  16.097   4.364  0.0444 -0.4819  0.0359
45458W        W88552  33.565  16.358   5.274  0.0974  0.0420  0.1746
45459W        W88553  32.027  15.999   2.921 -0.0657 -0.0901 -0.2842
45460W        W88554  32.031  16.838   7.167  0.0074  0.2443  0.2196
45461W        W88555  30.816  15.420   5.827 -0.0556  0.0401  0.0449
45462W        W88556  31.587  15.712   3.106  0.0482  0.1111  0.2471
45463W        W88557  29.774  15.603   4.647 -0.4217 -0.0165 -0.2362
45464W        W88558  31.159  15.933   5.622  0.2315 -0.1343 -0.1200
45465W        W88559  32.728  16.480   6.487  0.2208 -0.3248  0.3390
45466W        W88560  29.591  16.474   4.994 -0.1749 -0.1096 -0.0313
45467W        W88561  33.105  15.908   3.775 -0.2622 -0.1043 -0.0615
45468W        W88562  32.676  16.426   5.223 -0.0619 -0.1629  0.1199
45469W        W88563  28.456  18.720   3.945  0.0591 -0.2746  0.2798
45470W        W88564  32.323  16.692   4.180 -0.1130  0.0442  0.1446
45471W        W88565  32.492  17.884   5.741 -0.0654  0.3050  0.1378
45472W        W88566  28.200  14.832   6.336  0.0928 -0.0558 -0.3326
45473W        W88567  31.505  17.845   6.384  0.3503 -0.2884 -0.2545
45474W        W88568  32.761  17.484   5.954  0.0385  0.1612  0.1795
45475W        W88569  31.548  14.868   3.364 -0.2805 -0.0543 -0.0060
45476W        W88570  29.627  15.588   5.752  0.3171 -0.1405 -0.0884
45477W        W88571  29.710  18.501   3.619  0.1716  0.0037  0.2275
45478W        W88572  32.082  15.337   5.698  0.1511 -0.0077 -0.0784
45479W        W88573  31.281  14.224   5.928  0.1249  0.0673  0.0320
45480W        W88574  30.483  19.081   2.994  0.0991 -0.1868 -0.1213
45481W        W88575  31.910  14.824   7.278 -0.0681 -0.0837  0.1578
45482W        W88576  31.224  18.534   5.991 -0.3044 -0.1211  0.0349
45483W        W88577  30.784  17.741   6.802  0.3130  0.0681 -0.1516
45484W        W88578  29.092  16.598   2.109 -0.0598  0.3495  0.1646
45485W        W88579  30.310  16.300   5.798  0.1239  0.1402 -0.3207
45486W        W88580  30.616  16.701   5.911  0.0236 -0.0675 -0.2642
45487W        W88581  31.164  17.717   5.067  0.1790 -0.2836 -0.0868
45488W        W88582  31.295  16.429   5.414  0.1740  0.3488  0.0655
45489W        W88583  31.445  14.740   4.761 -0.3394 -0.0556 -0.2924
45490W        W88584  33.284  17.656   5.119  0.3592 -0.3961 -0.2106
45491W        W88585  31.133  14.768   5.475  0.2354 -0.0956 -0.2360
45492W        W88586  32.293  14.111   6.911 -0.3079 -0.1095  0.1343
45493W        W88587  32.191  14.811   6.833  0.4099 -0.1381  0.0909
45494W        W88588  29.248  17.442   5.986  0.0608 -0.0764 -0.1021
45495W        W88589  29.838  16.107   3.373  0.1433 -0.1017  0.0086
45496W        W88590  30.338  18.095   3.517  0.2703 -0.0174  0.0645
45497W        W88591  27.269  16.342   3.556 -0.0339  0.0819 -0.2392
45498W        W88592  29.811  15.134   8.878  0.3449 -0.1905  0.1167
45499W        W88593  29.225  17.074   7.431  0.0320 -0.0600  0.0563
45500W        W88594  29.765  16.628   4.345 -0.1034 -0.0817  0.0414
45501W        W88595  29.443  15.458   5.063 -0.0935  0.4335  0.0439
45502W        W88596  32.462  16.429   4.709  0.2070 -0.3706  0.0288
45503W        W88597  29.969  15.192   5.533 -0.0993  0.2046 -0.2824
45504W        W88598  29.832  15.167   5.070 -0.3190  0.0237 -0.0205
45505W        W88599  31.018  17.281   3.907 -0.1586  0.1719  0.2489
45506W        W88600  31.163  16.952   5.291 -0.1306  0.0741 -0.0587
45507W        W88601  31.702  15.224   4.709  0.4989 -0.0394  0.0018
45508W        W88602  31.580  15.894   6.395  0.1994 -0.3722 -0.0632
45509W        W88603  29.702  16.998   3.290 -0.2191  0.0863  0.2346
45510W        W88604  29.728  16.321   6.343 -0.1305  0.1690 -0.0561
45511W        W88605  29.317  15.401   7.052 -0.1381  0.0798 -0.1075
45512W        W88606  30.115  14.650   3.533 -0.1654 -0.0717  0.1476
45513W        W88607  29.882  15.639   5.268  0.1939  0.0888  0.1536
45514W        W88608  30.822  18.129   3.404 -0.2911  0.2064  0.0544
45515W        W88609  31.536  16.937   4.274 -0.0972  0.1329 -0.0255
45516W        W88610  31.570  16.392   6.367 -0.3283  0.0817  0.1201
45517W        W88611  29.184  18.174   8.046 -0.1020  0.0563  0.1292
45518W        W88612  28.694  13.592   7.482 -0.1487  0.0129  0.0220
45519W        W88613  31.217  16.140   3.562  0.2286  0.0319 -0.0344
45520W        W88614  30.953  17.470   6.392  0.0811 -0.2071  0.0522
45521W        W88615  32.079  17.015   5.508 -0.1163 -0.1221 -0.2119
45522W        W88616  32.293  14.048   7.412 -0.0512 -0.0339 -0.1090
45523W        W88617  32.334  16.036   4.259  0.3498  0.0172 -0.1307
45524W        W88618  30.118  15.775   5.713  0.1934  0.0220 -0.1104
45525W        W88619  28.935  17.654   8.138 -0.0738  0.3169 -0.1666
45526W        W88620  32.812  16.012   6.693  0.0520 -0.2005 -0.0485
45527W        W88621  29.008  15.458   6.454 -0.0850 -0.1747  0.1337
45528W        W88622  30.671  14.773   4.871 -0.0641 -0.1341  0.1891
45529W        W88623  30.553  18.523   3.121 -0.1945  0.0723 -0.1503
45530W        W88624  28.956  16.288   5.109  0.0180 -0.1291  0.0482
45531W        W88625  31.299  15.488   4.459 -0.1216  0.1153  0.0287
45532W        W88626  31.312  16.734   6.742 -0.0847 -0.1559 -0.2800
45533W        W88627  30.575  16.304   4.767 -0.0163  0.0959 -0.0753
45534W        W88628  31.595  16.463   7.169  0.0730 -0.3533 -0.1115
45535W        W88629  30.259  15.061   2.598 -0.1230 -0.2633 -0.1576
45536W        W88630  31.880  17.366   4.164  0.0426 -0.1347  0.1466
45537W        W88631  30.845  19.006   7.246  0.3047 -0.2649  0.2803
45538W        W88632  33.403  17.143   6.856  0.1021 -0.0527 -0.0927
45539W        W88633  29.617  19.802   5.970 -0.0125  0.1904  0.2218
45540W        W88634  31.880  15.298   6.242 -0.1986 -0.3120 -0.0311
45541W        W88635  29.914  15.640   6.444  0.1423  0.4115 -0.0909
45542W        W88636  30.702  15.290   3.823 -0.3318 -0.0883 -0.1359
45543W        W88637  30.876  16.305   5.780 -0.0576 -0.1572  0.2194
45544W        W88638  32.483  17.259   5.451  0.3930 -0.1136  0.2758
45545W        W88639  29.347  14.743   4.435 -0.0454 -0.2115  0.1491
45546W        W88640  32.680  14.460   5.247  0.0731  0.1536  0.2349
45547W        W88641  30.889  17.661   5.865 -0.1257 -0.2882 -0.0549
45548W        W88642  30.827  15.355   6.376 -0.1368 -0.3081 -0.3104
45549W        W88643  29.681  16.393   9.082  0.3962  0.0774  0.0083
45550W        W88644  30.197  17.324   8.548  0.0469 -0.3098 -0.1672
45551W        W88645  31.468  14.715   7.033 -0.0349 -0.0606  0.2215
45552W        W88646  32.474  16.620   9.292  0.0776  0.1017 -0.0899
45553W        W88647  30.160  16.397   9.515 -0.0223  0.2477  0.1533
45554W        W88648  31.560  17.454   8.836 -0.1284 -0.0553  0.0458
45555W        W88649  31.232  17.555   8.344  0.4810 -0.2916  0.2408
45556W        W88650  30.671  19.004   9.700  0.0807 -0.1705 -0.2767
45557W        W88651  30.621  16.838   7.259 -0.0141 -0.1047 -0.0692
45558W        W88652  30.361  17.850   9.622 -0.2047  0.1205 -0.1555
45559W        W88653  29.979  14.881   7.968  0.4217 -0.4389  0.1486
45560W        W88654  28.191  13.643  10.120  0.0624  0.2278  0.1775
45561W        W88655  31.793  15.987   8.972 -0.0516 -0.1013 -0.1396
45562W        W88656  29.961  17.208   8.972  0.3262 -0.1710 -0.0550
45563W        W88657  29.935  18.815  10.093  0.1083 -0.1284  0.2396
45564W        W88658  31.108  15.189   9.019 -0.0342  0.3246 -0.2394
45565W        W88659  30.721  18.471   8.518 -0.1328  0.0717  0.2082
45566W        W88660  32.880  14.943   9.330 -0.1828  0.2266 -0.1206
45567W        W88661  30.418  19.206   6.178 -0.2225 -0.0778 -0.0253
45568W        W88662  28.053  17.464   6.738  0.2450 -0.1690 -0.0281
45569W        W88663  28.347  15.873   8.556 -0.2392 -0.0321  0.0034
45570W        W88664  29.962  15.473   9.658  0.2787 -0.0052  0.0024
45571W        W88665  31.232  15.263   8.520  0.1452 -0.3403  0.2869
45572W        W88666  32.351  16.788   8.887  0.0833 -0.0823 -0.5731
45573W        W88667  30.982  18.836   8.754  0.3259  0.3281  0.0802
45574W        W88668  30.361  17.345   7.775 -0.1725  0.3627  0.0306
45575W        W88669  29.352  17.877   8.435 -0.1007 -0.0250  0.0458
45576W        W88670  28.089  19.456   9.990  0.1778  0.0172  0.0009
45577W        W88671  28.778  18.835   9.424 -0.2861 -0.2674 -0.1580
45578W        W88672  32.445  18.614   8.887 -0.0223 -0.0659  0.0653
45579W        W88673  29.922  18.459   8.373 -0.1029  0.0243  0.1645
45580W        W88674  31.265  16.734   7.791  0.1744  0.0358  0.0582
45581W        W88675  30.010  16.596   8.081  0.0773 -0.2509 -0.0209
45582W        W88676  30.652  18.620   7.025  0.2068  0.0421 -0.0169
45583W        W88677  28.573  17.452   7.932  0.3651 -0.0977  0.1785
45584W        W88678  29.481  16.536   9.529  0.2073 -0.0727  0.0355
45585W        W88679  29.713  18.034   8.087 -0.1100  0.1126 -0.0717
45586W        W88680  31.672  16.425   7.723  0.0761  0.0041 -0.2161
45587W        W88681  30.841  14.917   7.737  0.1193 -0.0822  0.4386
45588W        W88682  31.696  15.506   7.716  0.1193  0.0688 -0.0006
45589W        W88683  30.789  13.798   8.999 -0.0872 -0.2408 -0.1735
45590W        W88684  29.983  18.313   9.829 -0.1727  0.2391 -0.1438
45591W        W88685  31.228  14.188   9.954  0.1195  0.2723  0.0274
45592W        W88686  29.592  17.311   7.160 -0.1010  0.0132  0.2185
45593W        W88687  31.999  16.089  10.094  0.0210  0.1435  0.0162
45594W        W88688  31.181  17.789   8.864  0.0852  0.0963 -0.3948
45595W        W88689  28.625  16.529   8.978 -0.2373  0.0503  0.0604
45596W        W88690  31.380  17.448   6.628  0.0635 -0.2632 -0.0282
45597W        W88691  31.573  18.246   8.987 -0.0189  0.1027  0.1241
45598W        W88692  30.386  16.977   8.233 -0.0150  0.3517  0.1900
45599W        W88693  29.450  16.886   8.155  0.3356  0.1135  0.0441
45600W        W88694  29.740  15.201   8.316  0.0327  0.2053  0.0324
45601W        W88695  31.877  14.867  10.330  0.2449 -0.0038 -0.0000
45602W        W88696  31.713  17.871   8.574  0.1763 -0.1241  0.2319
45603W        W88697  31.869  16.950   8.697 -0.0371 -0.0301 -0.3888
45604W        W88698  30.705  16.314   7.153 -0.0651 -0.3228 -0.0964
45605W        W88699  30.165  13.766   9.736 -0.1859 -0.1215 -0.2132
45606W        W88700  31.802  13.540   9.974  0.0097 -0.0526 -0.1973
45607W        W88701  31.204  18.031   6.784  0.0914  0.2718  0.1951
45608W        W88702  30.988  16.946   9.101  0.0245 -0.1116  0.1091
45609W        W88703  32.194  15.612   8.907 -0.0266  0.2803 -0.0410
45610W        W88704  32.374  17.185   8.488  0.0469  0.0297  0.2186
45611W        W88705  27.708  17.797   9.791 -0.0173 -0.1038  0.1988
45612W        W88706  29.552  17.577   8.825 -0.0873  0.5311  0.2945
45613W        W88707  31.155  16.256   9.714 -0.1065  0.2333  0.0514
45614W        W88708  28.406  16.681   8.410  0.1803 -0.4697 -0.3073
45615W        W88709  29.209  12.754   9.935  0.3093 -0.2400 -0.1380
45616W        W88710  28.302  18.580   9.715 -0.3513 -0.0583  0.2231
45617W        W88711  31.281  14.424   9.178  0.0097 -0.0915  0.3047
45618W        W88712  32.400  13.957  10.820  0.0447 -0.0157  0.2524
45619W        W88713  29.501  19.012   8.507 -0.3254 -0.0585 -0.4739
45620W        W88714  32.291  18.724   8.019  0.2990  0.0185 -0.0859
45621W        W88715  31.938  16.314   8.162 -0.0067  0.1111  0.4026
45622W        W88716  30.371  16.710   6.832 -0.0840  0.0651  0.1156
45623W        W88717  30.828  15.663   9.453  0.1459  0.1355 -0.2810
45624W        W88718  30.724  16.028   9.025 -0.0917  0.0077 -0.1064
45625W        W88719  30.433  15.581   9.829 -0.0024 -0.2508 -0.0016
45626W        W88720  29.008  15.884   7.934  0.0827  0.2127 -0.2503
45627W        W88721  32.101  16.034   7.745 -0.0409 -0.1381 -0.0780
45628W        W88722  30.930  17.090   6.896 -0.2143 -0.1227  0.0382
45629W        W88723  29.157  16.236   9.091  0.1253  0.0409 -0.0426
45630W        W88724  30.627  17.402   8.339  0.2262  0.1189  0.2758
45631W        W88725  34.075  19.519  12.498 -0.2671  0.1629 -0.3261
45632W        W88726  31.354  19.070   7.943  0.0530  0.1839 -0.2080
45633W        W88727  31.244  17.090   9.642  0.0221  0.1422  0.0252
45634W        W88728  29.204  16.178   8.329 -0.1968  0.1422 -0.0164
45635W        W88729  29.163  17.350   9.894  0.2068  0.0180  0.0494
45636W        W88730  29.140  18.649   8.480 -0.0343  0.0406 -0.0774
45637W        W88731  29.200  15.543   7.460 -0.1067  0.0944 -0.1155
45638W        W88732  31.492  18.219   8.202 -0.0699 -0.0542 -0.0801
45639W        W88733  31.362  16.247   8.776 -0.0215  0.3827 -0.2240
45640W        W88734  33.035  15.943   9.038  0.0011  0.0074  0.1323
45641W        W88735  30.420  15.986   8.630  0.0883 -0.0646 -0.4092
45642W        W88736  31.014  17.115   8.251  0.0097 -0.1516 -0.2147
45643W        W88737  30.394  17.906   9.018 -0.2670 -0.1952 -0.0065
45644W        W88738  30.410  17.802   7.127 -0.2453  0.3067  0.3137
45645W        W88739  27.458  16.310   9.819  0.2669  0.1123  0.1566
45646W        W88740  29.505  18.338   8.562 -0.1211 -0.3334 -0.5536
45647W        W88741  32.852  15.214   8.354  0.2866  0.0255 -0.0740
45648W        W88742  28.742  16.425   7.773  0.3259  0.1932  0.1795
45649W        W88743  31.421  13.061   9.446  0.1049 -0.0569  0.2037
45650W        W88744  32.434  15.318   7.984  0.0133  0.0203  0.2952
45651W        W88745  32.227  16.741   8.217 -0.1593  0.2403  0.0260
45652W        W88746  32.283  14.661   7.725 -0.2039  0.1228 -0.0097
45653W        W88747  29.895  16.337   7.567  0.1502  0.1906 -0.1368
45654W        W88748  30.473  17.280   6.708 -0.1234  0.1797  0.2514
45655W        W88749  31.159  18.262   7.704  0.2307  0.0514 -0.1354
45656W        W88750  29.766  16.355   7.035  0.0227 -0.2306 -0.0864
45657W        W88751  32.952  18.622   6.182  0.3201  0.3377  0.2761
45658W        W88752  28.106  17.526   9.539  0.1138  0.1264  0.3458
45659W        W88753  31.402  18.751   9.042 -0.1733  0.1091  0.0869
45660W        W88754  29.266  13.567   8.804 -0.0944  0.1935 -0.0376
45661W        W88755  29.892  15.828   7.513 -0.0082  0.1050 -0.2443
45662W        W88756  31.233  16.005   9.304  0.1143  0.4345  0.0060
45663W        W88757  28.236  18.069   8.047 -0.0884  0.3707 -0.4165
45664W        W88758  33.144  13.735   9.641  0.1124  0.3635 -0.1589
45665W        W88759  32.725  15.331   9.869 -0.2644  0.2884  0.0288
45666W        W88760  32.687  16.778   8.454 -0.1395 -0.3621  0.0580
45667W        W88761  31.265  15.743   8.919  0.0472  0.2277  0.1196
45668W        W88762  30.147  16.034   6.180  0.1948  0.5571 -0.1793
45669W        W88763  31.487  13.209  10.289  0.1428 -0.0156  0.0818
45670W        W88764  29.933  15.179  10.195  0.1520  0.0793 -0.0963
45671W        W88765  30.323  16.229  10.017 -0.1363 -0.2664 -0.1483
45672W        W88766  30.519  14.730   8.050  0.0593  0.3092 -0.0132
45673W        W88767  30.113  18.629   7.440 -0.2176  0.0460  0.2475
45674W        W88768  29.538  16.390   7.999 -0.1625 -0.3781 -0.0096
45675W        W88769  30.789  14.547   9.054  0.0376 -0.0021  0.2398
45676W        W88770  30.775  20.138   9.882 -0.1270 -0.0554 -0.1062
45677W        W88771  30.464  17.596   6.344 -0.1236 -0.0552 -0.1065
45678W        W88772  30.289  18.570   8.823  0.2036  0.0427  0.1492
45679W        W88773  30.402  16.879   9.611  0.0707  0.1309  0.0291
45680W        W88774  32.011  15.130   9.746  0.0894 -0.0324 -0.0176
45681W        W88775  29.084  17.263   8.907 -0.0414 -0.1251  0.1004
45682W        W88776  30.818  16.994   7.848 -0.1698  0.2386  0.0663
45683W        W88777  29.001  16.756   9.391  0.3224  0.0416  0.1869
45684W        W88778  31.983  16.978   9.196  0.1265 -0.2873  0.2516
45685W        W88779  30.898  15.754   8.586  0.0681  0.1315 -0.1557
45686W        W88780  30.521  18.788  10.093 -0.1410 -0.0918  0.0329
45687W        W88781  31.574  15.046   8.798  0.1127  0.0872 -0.1669
45688W        W88782  28.172  17.205   8.523  0.2832  0.1905  0.0368
45689W        W88783  33.449  14.465   7.866 -0.0312 -0.1236 -0.0080
45690W        W88784  28.611  15.576   6.759  0.1006  0.0892 -0.3972
45691W        W88785  34.029  16.563   9.525  0.0494 -0.0519 -0.3194
45692W        W88786  29.893  17.783   9.106 -0.3609  0.3316 -0.1983
45693W        W88787  27.879  17.042   9.425 -0.5209 -0.1539 -0.0322
45694W        W88788  31.053  17.301   8.729  0.0223  0.1620  0.1643
45695W        W88789  29.507  17.038   8.663  0.1640 -0.1498 -0.2000
45696W        W88790  30.065  17.352   9.435  0.0063 -0.0343 -0.0579
45697W        W88791  31.491  16.647   9.611  0.1612 -0.0709 -0.2569
45698W        W88792  31.124  15.666   8.165  0.1885  0.1985  0.0241
45699W        W88793  29.902  16.200   8.655  0.1162 -0.0154 -0.1149
45700W        W88794  31.986  18.640   9.024  0.0196  0.2544  0.2395
45701W        W88795  30.976  19.100   9.216  0.0661  0.0431  0.0638
45702W        W88796  28.430  16.208   9.882 -0.0018 -0.0702 -0.2643
45703W        W88797  33.617  19.324   8.758 -0.1536  0.0725  0.1408
45704W        W88798  29.966  17.148   8.068 -0.1639  0.0977 -0.0362
45705W        W88799  29.198  18.874   9.833 -0.0599 -0.1879  0.1886
45706W        W88800  30.164  17.680   8.089 -0.2507 -0.0253  0.0707
45707W        W88801  31.747  14.029  10.091 -0.3523 -0.5442  0.0405
45708W        W88802  28.833  17.599  10.232  0.0261 -0.2113  0.4076
45709W        W88803  29.862  16.674   6.692  0.1736 -0.1958  0.1113
45710W        W88804  27.232  17.631   9.652  0.0566 -0.0320  0.0133
45711W        W88805  31.290  14.736   7.681 -0.3026 -0.1899  0.2960
45712W        W88806  31.439  16.409   8.200 -0.0884 -0.1098 -0.2342
45713W        W88807  30.634  15.473   7.541 -0.2612 -0.0765 -0.1291
45714W        W88808  31.151  16.176   7.094  0.4171  0.0777  0.5131
45715W        W88809  33.285  17.325   9.111  0.1004 -0.2816 -0.1227
45716W        W88810  32.107  18.674   8.471 -0.2193  0.1662 -0.1201
45717W        W88811  31.090  13.955   9.465 -0.1646  0.1613  0.1924
45718W        W88812  29.554  15.523   7.786  0.0732  0.1298  0.2204
45719W        W88813  30.526  16.074   9.509 -0.0434  0.1675 -0.1567
45720W        W88814  32.602  17.268   9.799  0.1367  0.1548 -0.0272
45721W        W88815  30.166  18.169   7.829 -0.0354 -0.1135 -0.2270
45722W        W88816  32.756  15.566   8.719  0.3691 -0.1533  0.0233
45723W        W88817  29.489  18.462   9.854 -0.0660 -0.2686 -0.0333
45724W        W88818  32.550  15.781   7.769  0.0350  0.2931 -0.0328
45725W        W88819  30.668  17.336   7.287 -0.1286 -0.0142  0.0262
45726W        W88820  30.435  17.084   9.158 -0.1015 -0.0100 -0.3846
45727W        W88821  32.179  16.376   9.598  0.0113 -0.3319 -0.1556
45728W        W88822  31.503  14.980   9.817 -0.0762  0.1642  0.0494
45729W        W88823  32.116  20.015   9.862  0.0262  0.2342 -0.4024
45730W        W88824  31.766  15.525   8.684 -0.0638  0.1942 -0.0734
45731W        W88825  33.290  15.552   8.705 -0.1283  0.1406 -0.0325
45732W        W88826  32.147  17.573   9.406 -0.1178 -0.0175 -0.1276
45733W        W88827  30.847  16.511   7.617  0.0225  0.0447  0.0626
45734W        W88828  30.275  15.426   8.831 -0.1440 -0.0156  0.0051
45735W        W88829  29.198  16.695   7.776 -0.1371 -0.0946  0.1423
45736W        W88830  30.562  17.818   7.655 -0.0617  0.0722  0.2802
45737W        W88831  34.244  17.484   9.268  0.0668  0.1751 -0.1914
45738W        W88832  30.785  15.344   8.015 -0.1666 -0.0860 -0.1671
45739W        W88833  30.079  14.732   9.910 -0.2340  0.1605 -0.1695
45740W        W88834  29.354  16.655   6.671  0.0360 -0.0545 -0.0144
45741W        W88835  30.083  17.708   6.679  0.1347  0.1800 -0.0534
45742W        W88836  28.608  17.564   9.738  0.1103  0.2482 -0.2557
45743W        W88837  31.088  14.724   8.686 -0.0654 -0.0661  0.3490
45744W        W88838  30.217  18.325   6.426  0.0242 -0.2500 -0.0720
45745W        W88839  30.891  14.410   9.581  0.2209  0.2206 -0.2412
45746W        W88840  29.672  19.153   9.119  0.1174 -0.1592  0.0537
45747W        W88841  28.422  18.333  10.269 -0.0270 -0.4050  0.1492
45748W        W88842  31.264  14.325  10.535 -0.1819 -0.0626  0.2772
45749W        W88843  32.092  13.010  10.000  0.2752 -0.1570  0.0774
45750W        W88844  30.466  16.491   8.500 -0.2033 -0.2677 -0.1307
45751W        W88845  31.132  16.443   9.248 -0.0854 -0.2437 -0.1650
45752W        W88846  31.744  16.836   8.066  0.0214  0.1347 -0.1251
45753W        W88847  31.157  18.627   8.148 -0.2950  0.0393  0.0346
45754W        W88848  30.763  17.251   9.487 -0.3744 -0.1273 -0.2780
45755W        W88849  29.879  15.642   8.578 -0.2003 -0.1205 -0.0319
45756W        W88850  30.151  16.816   5.668  0.3257  0.4931 -0.0463
45757W        W88851  30.719  15.532   8.978 -0.1045 -0.1197  0.2769
45758W        W88852  28.603  17.073   8.250 -0.2156 -0.0228 -0.3945
45759W        W88853  32.324  18.188   7.596  0.2213 -0.1740 -0.0398
45760W        W88854  31.652  15.949   7.932 -0.0386 -0.2731  0.1479
45761W        W88855  30.728  18.638   9.172  0.0527  0.2780 -0.0769
45762W        W88856  30.386  16.255   7.701 -0.0534  0.1450  0.0069
45763W        W88857  31.506  17.139   8.436 -0.0558 -0.1192 -0.2401
45764W        W88858  29.716  18.166   7.591  0.0867 -0.0015 -0.2515
45765W        W88859  30.856  17.919   8.030  0.0756 -0.0557  0.2300
45766W        W88860  29.078  18.011  10.330  0.1038 -0.3960  0.1574
45767W        W88861  31.774  14.173   9.178 -0.0840  0.3999  0.0571
45768W        W88862  32.644  19.966   9.988  0.0074 -0.1071 -0.1573
45769W        W88863  32.601  16.783   7.901  0.1960 -0.1871  0.1850
45770W        W88864  31.047  14.862   8.177 -0.1683 -0.0558  0.0464
45771W        W88865  30.587  14.458   7.584 -0.2983 -0.1506 -0.3142
45772W        W88866  30.975  17.870   7.400  0.2983 -0.1025  0.0477
45773W        W88867  30.354  16.742   7.738  0.0056  0.1504 -0.1376
45774W        W88868  30.916  16.533   8.798 -0.1418 -0.0952  0.0838
45775W        W88869  31.494  15.435  10.075  0.1245 -0.4076 -0.1198
45776W        W88870  30.853  16.523   6.721  0.2040 -0.2974 -0.2685
45777W        W88871  32.176  16.611   7.672  0.0956 -0.1522 -0.1681
45778W        W88872  29.112  17.187   8.409 -0.0171  0.0190 -0.0403
45779W        W88873  31.244  17.585   9.666  0.0354  0.0878  0.1977
45780W        W88874  30.629  17.429   8.911  0.0481  0.0408 -0.0181
45781W        W88875  27.906  14.645   8.754  0.2532 -0.2013 -0.1042
45782W        W88876  32.080  15.914   9.384  0.2007 -0.1805  0.2239
45783W        W88877  31.591  19.544   8.916 -0.1417 -0.1920 -0.0004
45784W        W88878  31.836  14.607   9.915 -0.1636  0.2999 -0.0900
45785W        W88879  32.048  15.134   8.864  0.0518  0.0899 -0.0698
45786W        W88880  30.777  14.903  10.104  0.3913 -0.6185  0.0110
45787W        W88881  28.704  12.920   9.923  0.0581 -0.1280 -0.0427
45788W        W88882  31.069  16.677   7.160  0.1283 -0.1422  0.1250
45789W        W88883  30.837  16.678   8.261 -0.0396 -0.4018  0.0053
45790W        W88884  29.420  14.512   9.656  0.0453  0.1862 -0.3386
45791W        W88885  30.379  14.548   9.301  0.0654 -0.0368 -0.2192
45792W        W88886  29.985  16.851   9.320  0.2171  0.2162 -0.0506
45793W        W88887  31.219  17.422   9.188  0.2183 -0.1899  0.0499
45794W        W88888  29.588  15.012   9.673 -0.0202 -0.1912  0.2054
45795W        W88889  32.376  16.769   6.796  0.0617 -0.0327  0.0935
45796W        W88890  30.791  17.814   9.875  0.4726 -0.0045  0.0322
45797W        W88891  30.687  18.438   6.308 -0.2847 -0.0843  0.1829
45798W        W88892  32.630  18.052   9.452  0.1527  0.1022  0.0798
45799W        W88893  30.188  18.278   9.372 -0.0518  0.0595 -0.1780
45800W        W88894  30.577  14.838   9.644 -0.0167 -0.0269 -0.2951
45801W        W88895  31.260  20.506  10.017 -0.1413  0.1200  0.0287
45802W        W88896  34.233  17.167   8.853  0.0199  0.0907 -0.3120
45803W        W88897  31.000  14.207   8.767 -0.0776  0.3214  0.0519
45804W        W88898  31.967  13.620  11.001  0.2392 -0.0671  0.2094
45805W        W88899  28.207  18.104   8.599 -0.1458  0.4142  0.2611
45806W        W88900  30.719  15.880   7.791 -0.1618  0.1314 -0.0298
45807W        W88901  30.603  16.890   6.397 -0.2903 -0.3116  0.0867
45808W        W88902  29.426  18.711   9.395 -0.0107 -0.0644  0.1395
45809W        W88903  29.805  16.445   5.880  0.1896 -0.1068  0.1406
45810W        W88904  30.015  16.833   8.562 -0.2365 -0.0686 -0.2252
45811W        W88905  29.197  19.291   9.383  0.0075  0.2025 -0.1941
45812W        W88906  30.639  17.832   8.594 -0.2390 -0.0478  0.2328
45813W        W88907  31.978  15.451   9.312 -0.0835  0.5018  0.2127
45814W        W88908  32.718  17.227   7.609  0.0811 -0.3303  0.2002
45815W        W88909  30.721  15.060   8.452 -0.0483 -0.0886  0.1624
45816W        W88910  32.258  15.903   8.520 -0.0351  0.1710  0.0925
45817W        W88911  31.538  15.098   9.297  0.0965 -0.0191  0.1592
45818W        W88912  29.990  17.865   8.577  0.0789 -0.3299  0.4109
45819W        W88913  28.528  16.921   6.523  0.0585  0.1328 -0.0988
45820W        W88914  30.066  17.439   7.220  0.1107 -0.2650 -0.2268
45821W        W88915  31.655  19.123   9.927 -0.0048  0.1496 -0.2737
45822W        W88916  28.058  16.203   8.323  0.1956  0.0317  0.2991
45823W        W88917  30.396  15.417   9.389  0.0283 -0.2581 -0.0716
45824W        W88918  32.040  17.835   7.831  0.2087  0.0281  0.0164
45825W        W88919  30.056  14.999   9.312 -0.1790 -0.0437 -0.2271
45826W        W88920  29.376  15.455   9.585  0.4138  0.2011  0.1181
45827W        W88921  31.906  17.908   7.378  0.2445  0.2305  0.3877
45828W        W88922  31.930  17.320   7.916  0.2031  0.0421  0.1384
45829W        W88923  29.937  15.245   7.655  0.0499  0.1230  0.0447
45830W        W88924  29.471  17.822   7.329  0.1906  0.3215  0.0561
45831W        W88925  29.080  16.709   8.755  0.2445  0.1278  0.1340
45832W        W88926  31.661  17.400   9.413  0.1259  0.0013  0.0520
45833W        W88927  31.681  18.225   7.743 -0.0140 -0.1760  0.0296
45834W        W88928  31.580  18.519   6.783  0.0845 -0.3688  0.0641
45835W        W88929  28.560  15.799   8.992  0.1707  0.0446 -0.4225
45836W        W88930  30.950  17.465   7.804 -0.0158  0.0553  0.2270
45837W        W88931  32.457  19.077   7.689  0.2150 -0.2784  0.0586
45838W        W88932  28.217  17.906  10.017  0.2221 -0.1548 -0.2093
45839W        W88933  30.232  15.424   7.234 -0.1086 -0.0996  0.1078
45840W        W88934  33.597  16.408   8.451  0.1224  0.3300  0.4184
45841W        W88935  29.048  14.905   8.919 -0.0434  0.0660  0.0846
45842W        W88936  31.808  14.694   9.220 -0.1942 -0.1059  0.1881
45843W        W88937  31.171  17.080   7.410 -0.0256  0.0987  0.0907
45844W        W88938  29.642  15.633   9.207 -0.1634  0.0229 -0.1508
45845W        W88939  31.731  15.961   8.446 -0.2953 -0.2448 -0.3416
45846W        W88940  29.643  19.198   9.615  0.1478  0.0740 -0.5774
45847W        W88941  30.124  16.976   7.395 -0.0799 -0.3944 -0.0387
45848W        W88942  32.407  16.247   8.077 -0.0957 -0.1526 -0.0002
45849W        W88943  31.262  18.859   9.657  0.2196  0.3599  0.0276
45850W        W88944  31.760  18.942   9.398 -0.3320 -0.1870  0.2232
45851W        W88945  33.708  16.910   9.317  0.2115  0.2903  0.0388
45852W        W88946  29.090  15.287   9.982 -0.0254  0.4796  0.0801
45853W        W88947  30.639  16.449   9.203 -0.0634  0.1219 -0.2550
45854W        W88948  29.680  17.542   8.251  0.0516  0.1385  0.0125
45855W        W88949  30.323  15.724  10.489 -0.3749 -0.0485 -0.1179
45856W        W88950  30.685  15.018   9.173 -0.0103 -0.1451 -0.0451
45857W        W88951  30.632  15.049   7.252  0.1303 -0.3017  0.0239
45858W        W88952  29.245  17.840   9.868 -0.1588 -0.0871  0.1681
45859W        W88953  31.344  17.789   7.723  0.0499  0.1818  0.0066
45860W        W88954  30.362  20.072   2.396  0.4208  0.0943  0.0845
45861W        W88955  30.544  19.696   0.812 -0.0799 -0.2551 -0.0293
45862W        W88956  32.390  18.685  30.884  0.2932  0.0875  0.0786
45863W        W88957  32.411  19.780   0.561 -0.2955 -0.0581  0.2919
45864W        W88958  29.526  17.496   0.515  0.0346  0.1502  0.3849
45865W        W88959  33.214  21.418   0.975 -0.1841  0.1641 -0.1711
45866W        W88960  29.378  18.997   3.048 -0.2634 -0.0752  0.1187
45867W        W88961  30.078  20.291   2.040  0.0332  0.0521  0.0825
45868W        W88962  32.757  21.645   2.594 -0.3441 -0.1246  0.1490
45869W        W88963  30.693  21.004   0.261  0.1721 -0.2183 -0.0062
45870W        W88964  30.235  20.867   3.434 -0.0707 -0.2693  0.3303
45871W        W88965  30.420  21.343   3.537 -0.1500 -0.3052 -0.4255
45872W        W88966  31.935  18.691   1.352  0.0516 -0.0961 -0.0022
45873W        W88967  30.578  18.009   1.117  0.1342  0.1198 -0.3034
45874W        W88968  32.262  20.336   1.410 -0.1647 -0.4269  0.3281
45875W        W88969  29.444  20.801   1.357 -0.3428  0.0400  0.0706
45876W        W88970  28.926  19.853   2.452  0.1707 -0.2544  0.0696
45877W        W88971  30.154  19.986  31.494 -0.4385  0.0248 -0.3310
45878W        W88972  30.449  21.330   2.688 -0.1182  0.0909  0.1916
45879W        W88973  29.927  19.967   3.040 -0.1879  0.0992  0.2847
45880W        W88974  30.226  19.643   2.733 -0.0231 -0.3557  0.3760
45881W        W88975  31.378  21.440   2.125  0.2963  0.2161  0.0749
45882W        W88976  28.585  19.942   1.031 -0.3464 -0.0583  0.2221
45883W        W88977  29.252  19.719   2.111 -0.0558  0.0120  0.0494
45884W        W88978  30.960  21.168   1.364 -0.2182 -0.0511  0.3028
45885W        W88979  32.865  19.340   1.824  0.1148  0.0752 -0.0951
45886W        W88980  31.277  19.764   2.862 -0.0851 -0.1451 -0.0197
45887W        W88981  30.343  20.834   2.862 -0.1571  0.0713 -0.3282
45888W        W88982  30.245  21.810   2.695  0.1904 -0.1514  0.1963
45889W        W88983  31.359  19.358   3.210  0.3536 -0.0951 -0.1801
45890W        W88984  28.002  20.427   1.645  0.0716  0.0975 -0.0046
45891W        W88985  29.437  22.528   2.180  0.2334 -0.1020 -0.1898
45892W        W88986  30.115  23.142   2.408  0.0278 -0.1207 -0.1740
45893W        W88987  34.044  21.729   1.861  0.2119 -0.0509 -0.2642
45894W        W88988  30.360  21.996   3.164 -0.1420 -0.0262  0.0926
45895W        W88989  29.740  20.909   2.745 -0.1025 -0.0673 -0.0330
45896W        W88990  29.815  21.856  31.569 -0.1433 -0.2758  0.1373
45897W        W88991  31.896  21.014   3.619 -0.2495 -0.0051 -0.2225
45898W        W88992  29.818  21.887   2.376  0.0993  0.0713 -0.0308
45899W        W88993  30.870  19.398   2.930  0.2312  0.2138  0.0988
45900W        W88994  29.895  21.668   1.541  0.1639  0.2176  0.0754
45901W        W88995  30.471  21.594   1.659  0.1292 -0.4035  0.1178
45902W        W88996  30.570  21.025   1.713 -0.0802 -0.0052  0.1097
45903W        W88997  30.722  20.194   3.959  0.1763  0.0621 -0.4223
45904W        W88998  29.087  21.139   3.166  0.0846 -0.3252 -0.2390
45905W        W88999  32.522  18.632   4.871 -0.1429 -0.3811  0.0903
45906W        W89000  29.874  21.369  31.655  0.0492 -0.1543  0.0155
45907W        W89001  32.149  18.857   0.107  0.1407  0.4456 -0.1564
45908W        W89002  30.635  19.806  31.445  0.0935  0.1048 -0.2382
45909W        W89003  32.268  19.056   0.848  0.1161  0.1071  0.1546
45910W        W89004  32.360  17.805   1.174 -0.0594 -0.1601  0.2012
45911W        W89005  29.171  22.108   3.096  0.2398  0.1720 -0.4522
45912W        W89006  29.935  18.692   1.503 -0.2069  0.0023  0.0827
45913W        W89007  31.116  21.283   4.003 -0.3499  0.0635 -0.0177
45914W        W89008  30.743  19.637  31.959 -0.1229  0.0660  0.3251
45915W        W89009  30.574  20.509   1.805 -0.3482 -0.1328 -0.0510
45916W        W89010  29.090  21.889   2.577  0.3137 -0.1024 -0.4733
45917W        W89011  30.956  19.610   1.780  0.0288 -0.1287  0.1582
45918W        W89012  33.588  20.288   1.119  0.0521  0.0159  0.0080
45919W        W89013  32.446  20.814   1.558  0.3115 -0.2680  0.5802
45920W        W89014  32.218  20.260   0.538 -0.0471 -0.1706 -0.0874
45921W        W89015  30.652  21.272   0.721 -0.1188 -0.0504  0.0722
45922W        W89016  28.844  20.716   5.031 -0.0208  0.2202 -0.1933
45923W        W89017  27.606  21.217   3.516  0.1962  0.4777 -0.0715
45924W        W89018  29.732  19.881  31.140  0.1766 -0.0285  0.1682
45925W        W89019  33.316  20.093   4.491  0.0861  0.0131 -0.0824
45926W        W89020  29.500  21.672   3.332 -0.0929 -0.0690 -0.0481
45927W        W89021  32.009  18.401   0.071 -0.5948 -0.1065  0.3443
45928W        W89022  30.183  19.451   3.218  0.2151 -0.2053 -0.2742
45929W        W89023  32.283  21.264   2.088 -0.1180 -0.1499  0.2925
45930W        W89024  32.696  19.679   0.154  0.1525  0.4947 -0.1026
45931W        W89025  32.107  18.456   2.285 -0.5334  0.0435  0.2483
45932W        W89026  31.477  18.904   3.371 -0.3413 -0.0334 -0.0911
45933W        W89027  30.299  20.492  31.639 -0.1016 -0.0797 -0.1604
45934W        W89028  29.506  21.262   0.028  0.0232  0.3721  0.1570
45935W        W89029  32.109  20.735   2.821  0.0893  0.0745 -0.0158
45936W        W89030  32.275  19.707  31.784  0.1452 -0.2530 -0.1001
45937W        W89031  30.167  22.763   3.029 -0.0593  0.1835  0.0054
45938W        W89032  30.175  17.779   1.279 -0.3452 -0.1340  0.0329
45939W        W89033  30.203  21.236   3.941 -0.2517  0.2011  0.0613
45940W        W89034  28.988  20.558   1.503  0.3401 -0.1174 -0.1909
45941W        W89035  28.794  20.719   2.018  0.1378  0.0081 -0.1863
45942W        W89036  30.636  21.449   0.124 -0.0034  0.2364  0.2613
45943W        W89037  29.472  18.665   1.322 -0.1176 -0.0616  0.2264
45944W        W89038  29.624  20.652   2.268  0.2573 -0.1629  0.1919
45945W        W89039  32.910  19.281  31.181  0.0372  0.1209 -0.0627
45946W        W89040  29.947  19.508   2.257  0.0863 -0.1819 -0.0307
45947W        W89041  33.312  19.082   2.441 -0.0424 -0.2470  0.2912
45948W        W89042  30.077  21.259   1.796 -0.5786  0.1973  0.3994
45949W        W89043  32.797  21.181   0.767 -0.0966 -0.2070 -0.0939
45950W        W89044  32.302  19.305   2.931 -0.1926  0.0694  0.0074
45951W        W89045  32.235  20.730   1.012 -0.0292  0.0942 -0.0521
45952W        W89046  27.717  19.871   3.286 -0.0804  0.0615  0.0722
45953W        W89047  28.975  19.808   0.612  0.0896  0.2397  0.1424
45954W        W89048  28.781  17.816   2.989 -0.0429 -0.2417 -0.0814
45955W        W89049  29.511  18.782   1.827 -0.2381  0.5396  0.1343
45956W        W89050  33.395  18.335   3.462  0.1824 -0.1168  0.1445
45957W        W89051  28.454  19.260   0.625 -0.3337 -0.0442 -0.0087
45958W        W89052  32.822  18.637   3.124  0.4858 -0.2838  0.0854
45959W        W89053  31.986  19.866   1.466  0.2306 -0.2793  0.0248
45960W        W89054  28.029  21.117   1.761 -0.3186  0.1326 -0.0013
45961W        W89055  31.999  17.507   3.649 -0.1966 -0.0407  0.0144
45962W        W89056  29.377  20.974   1.877  0.0880 -0.2577  0.0608
45963W        W89057  32.936  22.423   3.164 -0.3442 -0.0676  0.4333
45964W        W89058  32.529  20.322   1.991  0.1853 -0.1018 -0.2854
45965W        W89059  28.256  19.041   2.467 -0.2774  0.3018  0.0462
45966W        W89060  30.863  18.819   1.262  0.1909  0.1205 -0.0956
45967W        W89061  30.024  21.977   1.128  0.0881  0.0287 -0.1282
45968W        W89062  30.183  20.747   1.897  0.0920  0.1143 -0.0338
45969W        W89063  30.310  19.444  31.851  0.2817 -0.1608 -0.2860
45970W        W89064  31.852  21.002   2.092  0.1726 -0.0969  0.2568
45971W        W89065  31.149  21.018   0.356 -0.1270 -0.1141  0.0509
45972W        W89066  28.910  20.256   3.986 -0.2145 -0.0974  0.1132
45973W        W89067  31.537  18.439   3.226 -0.3644  0.1072  0.1557
45974W        W89068  31.963  19.782   3.632 -0.2202  0.4089  0.1664
45975W        W89069  32.349  19.882   1.844  0.2785  0.0500 -0.2076
45976W        W89070  30.159  18.922   0.045  0.0314 -0.1765  0.0136
45977W        W89071  31.778  21.554   1.370  0.1033 -0.0358  0.1566
45978W        W89072  28.853  19.664   1.796 -0.0533  0.1159 -0.0958
45979W        W89073  29.268  20.938   2.677  0.1365  0.2661 -0.1745
45980W        W89074  29.671  21.287   2.089  0.0152  0.1376  0.2630
45981W        W89075  32.613  18.220   4.341  0.0499  0.1306 -0.2193
45982W        W89076  29.177  19.696   5.202 -0.0958  0.0166 -0.0271
45983W        W89077  31.765  20.723   2.506 -0.0430 -0.3265 -0.2222
45984W        W89078  29.047  18.736   0.331 -0.0621  0.0697 -0.5192
45985W        W89079  28.707  22.031   3.343 -0.2734 -0.1789  0.1823
45986W        W89080  32.707  19.477   0.833  0.0511 -0.2773  0.0417
45987W        W89081  33.612  18.394  31.629 -0.3352 -0.2028  0.3289
45988W        W89082  32.605  19.040   3.361 -0.0498 -0.3019 -0.0699
45989W        W89083  33.800  20.236   2.447 -0.2066  0.0992 -0.2420
45990W        W89084  31.674  18.190   0.445  0.1081 -0.1130  0.0551
45991W        W89085  32.127  19.473   1.181 -0.1505 -0.1049 -0.1626
45992W        W89086  29.262  21.488   4.877  0.0319 -0.0231  0.2565
45993W        W89087  31.017  21.292   2.577 -0.3177  0.1460  0.1341
45994W        W89088  31.219  21.413   2.979  0.1394  0.2413  0.0288
45995W        W89089  30.821  20.040   0.227  0.2055  0.1884  0.2546
45996W        W89090  33.058  21.273   0.038 -0.0428  0.1717  0.1309
45997W        W89091  28.038  21.319   2.208  0.1673  0.2570 -0.0081
45998W        W89092  31.477  20.860   3.828  0.3369  0.1082  0.0707
45999W        W89093  32.461  21.140   1.202 -0.0959 -0.1252  0.0187
46000W        W89094  31.317  19.256   2.737  0.0047  0.1781 -0.0576
46001W        W89095  29.859  21.559   0.572  0.2570  0.2685 -0.1389
46002W        W89096  31.487  19.598   0.403  0.0580 -0.0565 -0.0620
46003W        W89097  28.502  22.800   0.008  0.2916  0.1268 -0.1774
46004W        W89098  32.754  18.172   2.999 -0.0960 -0.3847  0.1139
46005W        W89099  30.792  18.862   2.236  0.4341  0.1081 -0.4548
46006W        W89100  30.777  16.902   1.873  0.1582 -0.4910 -0.0919
46007W        W89101  31.422  20.536   4.244 -0.2188  0.1431 -0.1799
46008W        W89102  31.926  19.444   0.670 -0.2745  0.1797  0.0645
46009W        W89103  30.766  20.838   2.710 -0.0993 -0.0477  0.2980
46010W        W89104  29.806  19.269  31.752 -0.0990 -0.3276 -0.0013
46011W        W89105  30.654  19.311   2.537  0.3220 -0.0039  0.0947
46012W        W89106  29.936  21.694   3.127  0.3020  0.3090 -0.0273
46013W        W89107  28.533  22.383   2.056 -0.3987 -0.0210  0.1493
46014W        W89108  31.322  19.445   4.076  0.0082 -0.2600 -0.0077
46015W        W89109  30.385  20.645   1.370 -0.1051  0.0835 -0.2561
46016W        W89110  31.741  18.540   4.282  0.3858  0.2069 -0.5671
46017W        W89111  30.542  20.740   0.612  0.1598  0.2817  0.3215
46018W        W89112  28.480  20.908   1.526 -0.0186  0.1739  0.0150
46019W        W89113  31.646  19.185   1.258  0.0819 -0.1646 -0.1655
46020W        W89114  31.139  17.429   1.652 -0.0538 -0.0552  0.0200
46021W        W89115  29.952  22.663   2.541 -0.2915 -0.3321  0.0083
46022W        W89116  32.042  21.118   0.284  0.1087 -0.0051  0.0392
46023W        W89117  31.280  20.139   2.488  0.3292 -0.0718  0.1727
46024W        W89118  30.366  22.882   1.611 -0.1830 -0.1907 -0.0082
46025W        W89119  31.857  18.966   3.004 -0.0136  0.0516  0.2671
46026W        W89120  28.609  21.893   2.891 -0.0034 -0.2329  0.1063
46027W        W89121  30.414  20.063   0.514 -0.1920 -0.2595  0.1874
46028W        W89122  29.981  20.310   1.252  0.2626 -0.2066  0.2227
46029W        W89123  31.871  18.882   2.500  0.0950 -0.1315  0.1532
46030W        W89124  32.543  20.796   0.596  0.0554 -0.0994 -0.1841
46031W        W89125  30.070  18.252   1.802 -0.2274 -0.1575  0.5613
46032W        W89126  30.420  19.186   2.120 -0.1228 -0.1712  0.2812
46033W        W89127  28.758  22.836   2.154  0.2088  0.1207  0.0554
46034W        W89128  32.109  20.579   1.839 -0.0776 -0.2217 -0.0169
46035W        W89129  32.396  19.182  31.150 -0.0439 -0.1106 -0.1572
46036W        W89130  31.039  22.274   2.416 -0.1393 -0.0438  0.1183
46037W        W89131  30.586  19.966   3.535  0.0273  0.1868  0.2990
46038W        W89132  29.633  19.647   0.298 -0.1658 -0.1628  0.3685
46039W        W89133  32.431  20.035   3.262 -0.0677  0.2660  0.3179
46040W        W89134  30.293  19.735   1.960 -0.2256 -0.0065  0.2067
46041W        W89135  28.997  22.011   1.974  0.0693 -0.0896  0.2953
46042W        W89136  31.360  20.950   2.230 -0.1129  0.0089  0.3566
46043W        W89137  30.595  19.083   0.120 -0.2282 -0.1088 -0.0356
46044W        W89138  30.534  20.667   2.288 -0.1568 -0.2556 -0.0772
46045W        W89139  28.978  18.155   3.407  0.2102  0.0688 -0.2117
46046W        W89140  32.302  20.995   3.152  0.0548 -0.2046 -0.1212
46047W        W89141  29.804  19.907   2.477  0.0903 -0.0130  0.1830
46048W        W89142  30.411  19.995  31.925 -0.2101  0.0990 -0.1157
46049W        W89143  31.071  19.359   2.244 -0.0652  0.1444 -0.0411
46050W        W89144  33.166  20.831   2.632 -0.1107 -0.0301  0.1887
46051W        W89145  32.010  19.355   2.316 -0.1142 -0.3203 -0.0478
46052W        W89146  29.519  21.800   2.808  0.1641 -0.1590 -0.2374
46053W        W89147  31.484  17.769   1.376  0.2025  0.1330 -0.2930
46054W        W89148  32.767  20.701   1.156  0.1762  0.2806  0.0921
46055W        W89149  31.825  19.093   4.321  0.2995 -0.0001  0.0870
46056W        W89150  30.999  20.661   1.555 -0.1049  0.0228  0.3060
46057W        W89151  28.636  19.379   2.471 -0.1480  0.0128 -0.0059
46058W        W89152  29.936  20.332   2.604 -0.3211 -0.1088 -0.1550
46059W        W89153  30.775  21.092   3.138  0.0847  0.2940  0.0442
46060W        W89154  28.914  20.603   3.010 -0.1949  0.0988 -0.2986
46061W        W89155  29.904  20.793   1.446  0.0021 -0.2396 -0.0679
46062W        W89156  28.918  20.108   2.007 -0.2422  0.0766 -0.1625
46063W        W89157  32.617  18.361   0.220  0.2616  0.2641 -0.2070
46064W        W89158  29.955  20.939   0.974 -0.1209  0.0985  0.1264
46065W        W89159  31.014  20.569   2.125 -0.0059 -0.0238  0.1571
46066W        W89160  33.316  18.241   4.473  0.1579 -0.0185  0.0757
46067W        W89161  31.868  19.386   0.119 -0.3859 -0.2508  0.0011
46068W        W89162  30.672  18.937   3.401 -0.1453 -0.3143 -0.0086
46069W        W89163  28.405  17.772   1.445 -0.0971  0.6032 -0.1039
46070W        W89164  31.997  20.232   3.132 -0.4088 -0.1135 -0.0425
46071W        W89165  30.570  19.847   3.065  0.1806 -0.1545 -0.0987
46072W        W89166  31.719  21.081   4.229 -0.2365  0.2167 -0.0376
46073W        W89167  29.734  19.755   3.907 -0.3811 -0.4536 -0.2233
46074W        W89168  32.433  19.460   2.099  0.0841 -0.2406 -0.0649
46075W        W89169  30.606  18.750  31.697 -0.0080 -0.1896 -0.0790
46076W        W89170  30.364  19.529   1.524  0.0900 -0.2566 -0.1407
46077W        W89171  33.150  20.241   1.943  0.2257 -0.0193 -0.3900
46078W        W89172  30.857  20.808   1.005 -0.0514  0.1447 -0.2596
46079W        W89173  31.807  19.895   1.953  0.0983 -0.1670 -0.2408
46080W        W89174  29.013  20.579   3.545  0.2944 -0.1676 -0.0768
46081W        W89175  32.799  20.326   1.509 -0.2748  0.0319 -0.3786
46082W        W89176  30.394  20.330   0.941  0.0004  0.0681  0.1005
46083W        W89177  28.492  20.347   2.264  0.1631 -0.0059  0.1418
46084W        W89178  29.737  18.742   2.544 -0.2251 -0.0469  0.2402
46085W        W89179  30.827  20.288   0.697  0.1730  0.0455  0.0679
46086W        W89180  31.286  19.950   2.060  0.0000  0.2945  0.0205
46087W        W89181  32.707  18.539   3.938 -0.0171 -0.0216 -0.4353
46088W        W89182  32.096  20.284   2.306 -0.0300  0.2459 -0.3276
46089W        W89183  31.464  19.697   3.656  0.1799 -0.2853 -0.1195
46090W        W89184  29.332  17.978   2.889 -0.0860  0.2507  0.0832
46091W        W89185  30.993  22.546   2.881  0.2306 -0.0598 -0.1676
46092W        W89186  33.633  18.786  31.253 -0.1697  0.3818 -0.0493
46093W        W89187  33.055  18.917   4.007 -0.0239  0.1261  0.0188
46094W        W89188  32.876  19.245   0.434 -0.0072  0.0712  0.0537
46095W        W89189  31.661  19.689   1.147 -0.0744 -0.1033 -0.1226
46096W        W89190  29.028  18.878   1.816 -0.0698 -0.4587  0.1276
46097W        W89191  31.633  20.212   3.800 -0.0407  0.0103  0.0471
46098W        W89192  30.041  19.728   0.665 -0.0705 -0.3713  0.0687
46099W        W89193  31.050  18.468   3.010 -0.0172 -0.0674 -0.0051
46100W        W89194  31.258  22.356  30.915 -0.0637  0.3972 -0.0684
46101W        W89195  32.674  20.782   2.026  0.0979  0.3895 -0.1400
46102W        W89196  32.549  19.496   1.489 -0.0302 -0.1291  0.1216
46103W        W89197  28.616  19.268   1.988 -0.1414 -0.2050 -0.3849
46104W        W89198  29.655  22.130   3.189  0.1865  0.0520 -0.2263
46105W        W89199  30.451  18.604   0.270 -0.0049  0.1896 -0.1195
46106W        W89200  31.823  22.019   0.436  0.1027 -0.0276 -0.1826
46107W        W89201  31.756  21.352   3.056 -0.3801 -0.1666  0.0736
46108W        W89202  30.981  20.218   3.063 -0.1982 -0.2097  0.0431
46109W        W89203  30.912  19.245  31.712  0.0303  0.1025 -0.1113
46110W        W89204  32.105  19.099   3.429  0.1605  0.2614 -0.1513
46111W        W89205  30.462  20.104   1.452  0.3336  0.0362  0.1411
46112W        W89206  31.214  19.438   1.408  0.1164  0.0292 -0.1828
46113W        W89207  30.614  23.639   2.694  0.0326 -0.0664 -0.4837
46114W        W89208  29.441  21.911   1.463 -0.0441  0.0225  0.0019
46115W        W89209  29.897  21.389   2.585  0.0116 -0.2691 -0.0194
46116W        W89210  30.930  19.768   2.516  0.0320 -0.2600 -0.0390
46117W        W89211  32.039  19.448   1.719 -0.2146 -0.0555  0.1441
46118W        W89212  31.021  21.036   1.865 -0.0511 -0.0022  0.2304
46119W        W89213  33.339  20.189   3.997  0.0985  0.0361 -0.0368
46120W        W89214  31.829  19.481   3.238  0.2796 -0.1585  0.5527
46121W        W89215  30.227  19.060   1.343 -0.0103  0.2074 -0.1279
46122W        W89216  31.200  20.429   3.588  0.2700 -0.0599  0.3105
46123W        W89217  33.229  18.842   1.574  0.0288  0.2024  0.0874
46124W        W89218  30.100  20.802   2.420 -0.1250 -0.3182  0.2939
46125W        W89219  29.405  20.442   2.794  0.2152 -0.1391  0.2347
46126W        W89220  30.439  20.207   5.218  0.1803 -0.0780 -0.1910
46127W        W89221  31.071  19.260   0.327 -0.0747 -0.0344  0.0468
46128W        W89222  30.990  19.739   0.616 -0.0662  0.4376  0.0453
46129W        W89223  31.421  21.291   1.117 -0.0657 -0.1211 -0.1143
46130W        W89224  28.268  21.399   4.134 -0.2771  0.0476 -0.0040
46131W        W89225  29.198  21.534   1.941  0.0231  0.0254  0.1594
46132W        W89226  28.438  21.542   0.744 -0.0636  0.2753 -0.1335
46133W        W89227  32.547  18.787   1.270 -0.0986 -0.0837  0.1254
46134W        W89228  32.329  21.669   1.201  0.2716  0.1316 -0.0316
46135W        W89229  29.956  22.230   2.758 -0.3187 -0.1046  0.1856
46136W        W89230  29.788  18.886   1.052  0.3553 -0.1987  0.0934
46137W        W89231  29.406  21.344   1.511  0.0755  0.3255  0.1026
46138W        W89232  28.055  20.692   0.898 -0.2364 -0.1020 -0.1707
46139W        W89233  30.801  20.340   1.172  0.0598 -0.0607  0.0759
46140W        W89234  29.119  21.546   1.110  0.3494  0.1798  0.0977
46141W        W89235  32.267  21.633   2.487  0.0812  0.0989  0.0599
46142W        W89236  34.226  17.067   0.748 -0.3969 -0.0200  0.1627
46143W        W89237  30.955  20.116   1.616  0.2444 -0.1389 -0.0709
46144W        W89238  32.938  19.649   1.220 -0.0582  0.1670 -0.0853
46145W        W89239  31.673  20.536   3.424 -0.1632 -0.4325 -0.1323
46146W        W89240  31.626  20.401   2.088  0.1666  0.1408 -0.1094
46147W        W89241  29.597  18.922   0.176  0.3489 -0.2559 -0.3042
46148W        W89242  28.483  18.913   3.328  0.2616  0.3507  0.0718
46149W        W89243  33.120  18.749   3.510  0.1696  0.2612 -0.0155
46150W        W89244  28.754  22.179   4.213  0.0027 -0.0353 -0.2362
46151W        W89245  34.313  20.831   1.371  0.4300 -0.2231 -0.2380
46152W        W89246  30.205  19.312   0.922 -0.0098  0.0393  0.2008
46153W        W89247  29.359  20.152   2.354  0.0089  0.2643  0.0467
46154W        W89248  32.429  18.549   3.506  0.1046 -0.1017  0.1676
46155W        W89249  31.890  22.036   1.218  0.1505  0.3009 -0.1440
46156W        W89250  30.364  21.181   2.207  0.0243  0.0516  0.1287
46157W        W89251  30.158  21.648   2.095 -0.1581  0.2297  0.3770
46158W        W89252  30.622  21.953   2.331  0.0767  0.2053  0.0063
46159W        W89253  29.447  22.795   2.626  0.2401 -0.0792 -0.0337
46160W        W89254  29.704  19.294   0.724 -0.0812  0.1309 -0.0394
46161W        W89255  32.779  20.361   2.464  0.4530  0.0519  0.3139
46162W        W89256  29.316  20.220   3.706  0.0107 -0.0159 -0.1613
46163W        W89257  33.225  19.308   4.243  0.0948 -0.0571  0.1276
46164W        W89258  29.984  20.203   0.760 -0.0582 -0.0285 -0.1015
46165W        W89259  32.789  19.015   2.216  0.1047 -0.2775 -0.3815
46166W        W89260  31.528  20.106   3.318  0.0844 -0.2729  0.2145
46167W        W89261  30.787  19.769   1.283 -0.1342  0.0661  0.0451
46168W        W89262  30.249  20.885   0.107 -0.1393 -0.2095  0.3687
46169W        W89263  33.686  19.955   3.657 -0.1745 -0.2442  0.3012
46170W        W89264  30.848  20.141  31.740 -0.1444 -0.0312 -0.0674
46171W        W89265  32.093  21.631   3.291 -0.0205  0.1191  0.2521
46172W        W89266  29.842  19.488   1.194 -0.0783 -0.4580 -0.0902
46173W        W89267  31.859  18.821   0.835  0.1756  0.2670 -0.2134
46174W        W89268  29.232  19.341   1.739 -0.4021 -0.0792 -0.0261
46175W        W89269  30.033  20.747   3.981  0.0437  0.2952  0.0138
46176W        W89270  30.607  21.215   4.215  0.1270  0.0513  0.0388
46177W        W89271  29.170  18.286   1.096 -0.0491 -0.1965  0.2287
46178W        W89272  32.768  19.845   2.738 -0.0235 -0.3422 -0.1209
46179W        W89273  33.315  19.674   3.906  0.0166  0.0096  0.2309
46180W        W89274  30.380  21.676   0.501  0.0890  0.1605  0.3058
46181W        W89275  31.193  19.881   1.076 -0.0102 -0.0574 -0.1396
46182W        W89276  31.539  20.723   1.723 -0.0439 -0.0351  0.1365
46183W        W89277  28.157  19.615   2.652  0.2007 -0.0878 -0.0251
46184W        W89278  31.506  21.813   2.957 -0.1648  0.0995 -0.1993
46185W        W89279  32.001  21.211   2.590 -0.0431  0.1387  0.1520
46186W        W89280  32.202  18.292   1.211  0.1293 -0.0536  0.0506
46187W        W89281  30.173  17.936   0.795  0.0111 -0.0257  0.2935
46188W        W89282  29.028  22.334   2.427  0.1767  0.3159 -0.0831
46189W        W89283  32.668  20.651   2.826 -0.0003  0.0472 -0.0164
46190W        W89284  31.904  18.626   3.440  0.1197  0.0958 -0.1820
46191W        W89285  30.330  22.697  30.730  0.1614  0.1006 -0.1354
46192W        W89286  32.043  18.785   3.948  0.1823  0.3603  0.2270
46193W        W89287  31.534  20.337   2.830  0.1015 -0.2040  0.0387
46194W        W89288  29.310  20.618   3.996  0.0712 -0.0583 -0.2888
46195W        W89289  30.142  21.141   0.563  0.0433  0.0821 -0.0543
46196W        W89290  29.250  19.749   3.867 -0.1860 -0.0561  0.0901
46197W        W89291  30.188  22.767   2.039 -0.2315  0.0183 -0.4099
46198W        W89292  31.055  21.916   2.035  0.2641 -0.1345 -0.2476
46199W        W89293  31.644  20.823   3.028 -0.0336  0.1772  0.0622
46200W        W89294  29.693  19.584   1.678 -0.0139  0.2148  0.0539
46201W        W89295  32.247  20.751   2.342 -0.0941 -0.0794 -0.1483
46202W        W89296  29.565  19.199   2.055 -0.0277  0.3162 -0.2975
46203W        W89297  32.938  17.320   2.578  0.0392  0.1531  0.0997
46204W        W89298  32.930  19.165   1.285  0.2174  0.0888 -0.0001
46205W        W89299  28.502  19.288   2.942 -0.4964  0.0629 -0.0645
46206W        W89300  29.308  19.923   1.677  0.0581 -0.1279 -0.3436
46207W        W89301  31.863  21.138  31.133 -0.1991 -0.0489  0.0201
46208W        W89302  29.003  21.170   2.318 -0.0563  0.3861  0.1908
46209W        W89303  30.555  17.665   3.623  0.0564 -0.0019  0.3218
46210W        W89304  29.328  18.213   2.459  0.0016 -0.1571  0.4151
46211W        W89305  29.093  19.232   2.238 -0.1633 -0.0004  0.0032
46212W        W89306  29.629  19.116   1.483 -0.0437  0.0605 -0.0717
46213W        W89307  33.787  20.056   1.523 -0.1928 -0.2641  0.0193
46214W        W89308  31.807  19.979   2.571  0.0793 -0.0741  0.2219
46215W        W89309  29.977  18.470   0.044  0.1806 -0.0509 -0.0570
46216W        W89310  33.438  20.491   1.529  0.0348 -0.0256  0.1383
46217W        W89311  31.915  20.739   1.395 -0.0829 -0.3332 -0.2144
46218W        W89312  32.295  19.086   1.588  0.1573 -0.0164  0.0930
46219W        W89313  33.887  21.402   4.946 -0.2104  0.0593 -0.1517
46220W        W89314  30.029  21.415   0.148 -0.1900 -0.0083 -0.0879
46221W        W89315  31.136  17.859   4.191  0.2977 -0.0104  0.1843
46222W        W89316  29.152  19.323   3.660  0.2618  0.4413 -0.0550
46223W        W89317  28.459  19.454  31.830 -0.3369  0.0191  0.3081
46224W        W89318  30.837  20.354   2.544  0.1267 -0.3008 -0.1235
46225W        W89319  33.262  20.001   1.486 -0.1954  0.3802 -0.0787
46226W        W89320  30.728  20.037   2.062  0.0114  0.1835 -0.1133
46227W        W89321  30.356  20.333   2.937  0.1412  0.2067  0.1184
46228W        W89322  30.192  21.244   3.093 -0.1648 -0.3221  0.2916
46229W        W89323  30.421  18.874   2.509 -0.0443  0.1538 -0.0688
46230W        W89324  30.690  19.068   1.622  0.1005 -0.2981 -0.1239
46231W        W89325  30.231  21.890   3.627  0.1315  0.2657 -0.1019
46232W        W89326  33.384  19.015   1.121  0.4654 -0.0395 -0.2460
46233W        W89327  32.865  19.027   2.758  0.0544  0.2087 -0.0991
46234W        W89328  31.414  20.112   0.294  0.2363 -0.0817 -0.0558
46235W        W89329  29.715  19.537   2.886 -0.1327 -0.1021  0.4372
46236W        W89330  30.209  20.342   3.444 -0.1483 -0.3204  0.3994
46237W        W89331  32.901  20.654   3.318 -0.1319 -0.0967 -0.1868
46238W        W89332  31.413  19.226  31.949  0.2218  0.1029 -0.2746
46239W        W89333  32.404  20.215   2.786 -0.0550 -0.6210 -0.0360
46240W        W89334  31.530  20.043   0.746 -0.1938 -0.1541  0.2104
46241W        W89335  29.792  20.642   3.555 -0.5131  0.0259  0.1800
46242W        W89336  31.758  19.920  31.880 -0.0202 -0.2587 -0.3087
46243W        W89337  31.225  20.659   2.634 -0.2108  0.0867 -0.0206
46244W        W89338  31.414  19.848   1.578 -0.1745  0.3448  0.1650
46245W        W89339  31.830  19.581   4.074 -0.2118  0.1505  0.1353
46246W        W89340  30.598  20.254  31.278 -0.3791  0.1555  0.0953
46247W        W89341  33.559  19.401  31.961 -0.0317  0.1480  0.1672
46248W        W89342  31.497  22.127   3.721 -0.1878  0.0156 -0.1002
46249W        W89343  32.082  21.616   3.850 -0.1684  0.1942 -0.3002
46250W        W89344  30.714  21.834   3.608  0.2719 -0.0975 -0.1925
46251W        W89345  33.566  20.618   3.880 -0.0274  0.1888  0.0460
46252W        W89346  28.893  17.870   1.312  0.3450 -0.2177 -0.1606
46253W        W89347  28.969  20.423   2.490 -0.2575 -0.1775  0.0532
46254W        W89348  30.793  21.450   2.083 -0.1404  0.2738 -0.1949
46255W        W89349  31.573  19.548   2.331 -0.2883 -0.1145  0.1052
46256W        W89350  29.328  19.127   1.083  0.2093 -0.1764  0.2700
46257W        W89351  31.530  18.615   1.859  0.0520  0.0767  0.1742
46258W        W89352  31.737  22.550   3.466  0.3101 -0.1037 -0.0430
46259W        W89353  30.848  19.315   1.060  0.1032  0.0979 -0.2824
46260W        W89354  30.182  20.865   6.809 -0.0098  0.0194  0.2215
46261W        W89355  29.644  19.670   5.366 -0.0434 -0.1067  0.2803
46262W        W89356  31.526  19.205   4.725 -0.0942 -0.2836 -0.0179
46263W        W89357  34.105  21.573   4.157  0.1706 -0.1248  0.0700
46264W        W89358  28.902  18.517   4.076 -0.0648  0.1963 -0.4094
46265W        W89359  31.599  20.845   4.622  0.0686 -0.4254 -0.0587
46266W        W89360  30.750  18.231   5.723 -0.1537  0.3581  0.1471
46267W        W89361  31.589  20.024   4.860 -0.4202  0.2057  0.2334
46268W        W89362  32.922  21.807   6.939 -0.0355  0.0019  0.0785
46269W        W89363  30.586  19.481   4.593  0.1091  0.0408 -0.1634
46270W        W89364  30.371  18.943   5.569 -0.3652 -0.0125  0.5301
46271W        W89365  30.677  22.942   6.281 -0.1525 -0.0740 -0.1235
46272W        W89366  29.755  20.280   3.951 -0.5031  0.0094 -0.1858
46273W        W89367  29.658  17.697   5.818  0.1970 -0.0294 -0.0117
46274W        W89368  30.753  19.927   5.468  0.2551  0.2356  0.2960
46275W        W89369  29.546  19.028   3.553  0.2845  0.1303  0.3431
46276W        W89370  29.400  18.741   5.774 -0.0645 -0.0891  0.0661
46277W        W89371  29.736  20.106   3.485 -0.0026 -0.0479 -0.1041
46278W        W89372  30.009  22.356   3.835  0.1118 -0.1306 -0.0285
46279W        W89373  29.973  19.520   5.696  0.0548 -0.0878 -0.1324
46280W        W89374  32.220  17.449   5.841 -0.2464 -0.3095  0.0954
46281W        W89375  29.755  21.653   4.128  0.2254 -0.1299  0.0384
46282W        W89376  28.881  18.795   3.694  0.0541  0.0735 -0.0714
46283W        W89377  29.167  18.567   6.167  0.1785  0.0463 -0.0119
46284W        W89378  31.476  20.024   6.736 -0.1920 -0.1181  0.2638
46285W        W89379  30.611  19.547   5.100 -0.1937  0.3689 -0.1590
46286W        W89380  31.900  19.103   5.150  0.4117 -0.4472 -0.0816
46287W        W89381  29.426  21.500   5.548  0.0875  0.0095  0.4426
46288W        W89382  30.067  21.114   4.784 -0.1555  0.0369 -0.1068
46289W        W89383  30.934  19.242   5.842  0.2078 -0.1884  0.1219
46290W        W89384  29.624  20.748   4.408  0.0662  0.0007  0.0258
46291W        W89385  27.920  21.215   5.340  0.0446  0.0939  0.1161
46292W        W89386  28.745  21.780   4.501 -0.2656  0.0925 -0.1801
46293W        W89387  32.191  20.026   4.774 -0.0789  0.0222  0.1153
46294W        W89388  32.106  21.474   7.373  0.0343 -0.0832 -0.4382
46295W        W89389  31.149  21.783   7.030 -0.0724  0.0137 -0.1967
46296W        W89390  29.185  20.945   4.538  0.1350 -0.1693  0.0967
46297W        W89391  29.387  21.527   6.232  0.0462  0.1637  0.2673
46298W        W89392  30.642  20.635   6.669  0.3075  0.2390  0.1837
46299W        W89393  31.060  20.976   6.598 -0.0106 -0.1186 -0.0894
46300W        W89394  30.182  19.328   5.283 -0.2666  0.3716 -0.3079
46301W        W89395  29.804  21.033   3.249  0.0338  0.1855  0.1017
46302W        W89396  30.516  20.728   3.876  0.2421  0.0615 -0.0515
46303W        W89397  31.374  19.857   7.563 -0.0915 -0.2425 -0.0138
46304W        W89398  29.211  21.078   5.297 -0.4065  0.0712  0.1859
46305W        W89399  33.066  18.455   7.484  0.0296 -0.0780 -0.1522
46306W        W89400  29.830  21.689   4.761 -0.0611 -0.1935  0.2437
46307W        W89401  31.326  18.319   4.200  0.0828 -0.0271 -0.3000
46308W        W89402  30.796  19.407   3.477  0.1579  0.1615  0.2343
46309W        W89403  33.051  19.399   5.515  0.1477 -0.1375  0.2067
46310W        W89404  31.216  17.932   5.516 -0.2554 -0.5386  0.0597
46311W        W89405  29.805  20.579   5.710  0.1477 -0.1165 -0.0458
46312W        W89406  30.776  20.289   5.895 -0.0286 -0.0317  0.1290
46313W        W89407  32.607  21.319   7.734  0.3634 -0.6562 -0.0199
46314W        W89408  29.876  20.300   5.156  0.1927 -0.1477 -0.0299
46315W        W89409  31.647  18.990   6.790  0.2916  0.1204 -0.0204
46316W        W89410  29.802  20.561   6.448 -0.0404  0.0493  0.1943
46317W        W89411  29.353  20.093   5.665  0.1002 -0.2070 -0.0694
46318W        W89412  32.850  21.463   4.834 -0.0497 -0.2011  0.1544
46319W        W89413  33.111  21.012   4.963 -0.1198 -0.0028 -0.0609
46320W        W89414  30.886  20.916   3.571 -0.2831  0.0383  0.1303
46321W        W89415  28.408  19.189   4.888 -0.1967  0.0285  0.0163
46322W        W89416  28.479  20.475   5.983  0.0458 -0.0646  0.1673
46323W        W89417  29.078  20.208   7.086  0.1581 -0.1251  0.2839
46324W        W89418  31.136  18.985   1.814  0.0890  0.1160 -0.1695
46325W        W89419  32.255  20.573   7.882 -0.0022 -0.0021  0.4013
46326W        W89420  29.462  21.905   5.842 -0.1172  0.1112  0.1157
46327W        W89421  31.798  18.184   4.752 -0.0089 -0.1403  0.1568
46328W        W89422  30.809  19.145   5.376  0.2194 -0.0348 -0.1631
46329W        W89423  32.424  21.625   6.496  0.0171 -0.1223 -0.1170
46330W        W89424  30.682  20.456   3.461 -0.0715  0.0671  0.3328
46331W        W89425  32.697  16.828   5.488  0.4168 -0.0369  0.0476
46332W        W89426  32.675  18.144   4.840  0.1923  0.1950  0.1201
46333W        W89427  31.297  20.318   1.281 -0.0075  0.0974 -0.0078
46334W        W89428  29.672  20.210   4.655 -0.1425 -0.0419 -0.1812
46335W        W89429  33.125  21.581   7.878 -0.0878  0.0269 -0.1450
46336W        W89430  31.528  19.422   5.208 -0.2253  0.0066 -0.0131
46337W        W89431  29.825  21.295   5.251 -0.1583 -0.0961 -0.2987
46338W        W89432  31.225  19.061   5.096 -0.1740 -0.0225  0.3405
46339W        W89433  30.259  22.046   6.518 -0.1339 -0.0444 -0.3609
46340W        W89434  28.936  21.495   5.332 -0.0324 -0.0697 -0.1165
46341W        W89435  27.172  21.232   5.950  0.0040 -0.3712 -0.3889
46342W        W89436  29.663  22.337   4.884 -0.0789  0.0623  0.1314
46343W        W89437  30.421  18.862   6.561 -0.0972  0.2233 -0.1842
46344W        W89438  29.619  21.722   6.699 -0.0378 -0.2856 -0.1402
46345W        W89439  31.545  18.668   3.834 -0.2431 -0.0001  0.2401
46346W        W89440  29.552  19.455   7.432  0.1458  0.2522  0.1769
46347W        W89441  31.635  17.873   4.250  0.2888 -0.2408  0.0185
46348W        W89442  28.861  19.970   4.393 -0.1859  0.0547 -0.1316
46349W        W89443  32.426  20.632   5.236 -0.1234  0.0182 -0.2094
46350W        W89444  34.425  18.088   5.108 -0.0554  0.0548 -0.2566
46351W        W89445  31.474  21.133   3.441  0.1608 -0.1082 -0.3114
46352W        W89446  29.023  20.568   5.777 -0.1706  0.0822  0.1108
46353W        W89447  28.688  19.788   4.826 -0.0100 -0.1804  0.0452
46354W        W89448  30.937  18.952   6.742  0.1769  0.3267  0.3856
46355W        W89449  30.867  18.145   5.202 -0.0218  0.0817 -0.0032
46356W        W89450  32.373  20.709   6.286  0.0807 -0.0949 -0.0225
46357W        W89451  28.431  18.072   3.928 -0.0294 -0.1319  0.2724
46358W        W89452  31.006  18.210   4.676 -0.0678 -0.0401 -0.1106
46359W        W89453  30.210  20.411   4.304  0.0465  0.1637 -0.3008
46360W        W89454  28.765  20.314   4.780 -0.2032  0.1546  0.0981
46361W        W89455  33.078  18.408   5.499  0.0956 -0.1463 -0.0533
46362W        W89456  29.414  21.510   3.798  0.0125  0.2085  0.1101
46363W        W89457  32.505  21.190   7.243  0.0266  0.0636 -0.3668
46364W        W89458  31.992  20.667   5.511  0.1392 -0.2134 -0.3771
46365W        W89459  29.698  19.471   6.843 -0.2623  0.0393  0.1259
46366W        W89460  29.749  17.088   4.155  0.2060 -0.2877  0.2382
46367W        W89461  29.049  22.427   5.985 -0.1136  0.0725 -0.1878
46368W        W89462  30.218  19.790   5.315  0.1437 -0.1428  0.2989
46369W        W89463  28.804  20.074   3.068 -0.3183  0.1509 -0.0489
46370W        W89464  31.513  22.641   6.044 -0.1585 -0.1064 -0.0650
46371W        W89465  30.338  20.857   4.369  0.2317  0.0728 -0.2322
46372W        W89466  29.022  19.928   6.595  0.2112 -0.1467 -0.3382
46373W        W89467  32.010  17.572   6.284  0.1487  0.0914  0.1059
46374W        W89468  31.709  19.369   5.865  0.0681 -0.0638 -0.0484
46375W        W89469  31.362  19.709   4.527  0.1475 -0.0085  0.1539
46376W        W89470  28.497  17.451   3.130  0.1517 -0.2016  0.0569
46377W        W89471  29.835  22.307   5.396 -0.0564  0.0900  0.7677
46378W        W89472  28.144  21.723   4.977 -0.0445 -0.0401 -0.0926
46379W        W89473  27.324  19.546   4.554  0.1771  0.2865 -0.3017
46380W        W89474  30.196  20.040   3.982 -0.1574  0.0389  0.2967
46381W        W89475  32.225  18.463   4.550  0.0192  0.2008  0.0886
46382W        W89476  28.705  19.390   7.252  0.1422 -0.1129  0.1251
46383W        W89477  31.664  18.348   6.313 -0.0863 -0.0352  0.2547
46384W        W89478  30.134  19.557   4.764  0.4307  0.0805 -0.0737
46385W        W89479  29.995  21.942   5.759  0.2841 -0.2031  0.1319
46386W        W89480  32.137  18.204   5.593  0.1536  0.1186  0.0830
46387W        W89481  31.678  16.065   3.777 -0.1093 -0.2503  0.0700
46388W        W89482  31.967  21.030   6.099 -0.1393  0.0665  0.0317
46389W        W89483  31.989  20.343   5.160 -0.2897 -0.0378  0.1422
46390W        W89484  31.758  18.210   3.878 -0.2372 -0.0998 -0.2157
46391W        W89485  30.873  18.694   4.416 -0.0267 -0.0638 -0.7455
46392W        W89486  29.070  21.154   6.425  0.0288  0.3063 -0.0353
46393W        W89487  30.992  20.689   4.736 -0.1698 -0.1192  0.0567
46394W        W89488  31.574  20.914   5.747 -0.1449 -0.2484  0.1909
46395W        W89489  31.808  18.006   5.247 -0.2328 -0.2542 -0.0128
46396W        W89490  33.483  21.259   5.310 -0.0488  0.0538  0.0906
46397W        W89491  29.433  20.774   6.156  0.0015 -0.0983  0.0385
46398W        W89492  30.639  20.108   6.336 -0.1236  0.0359  0.2813
46399W        W89493  31.227  19.899   5.212 -0.1728 -0.1039  0.1367
46400W        W89494  31.004  18.645   4.973  0.3360 -0.2396 -0.1523
46401W        W89495  29.820  20.456   3.088 -0.1939  0.0019  0.0523
46402W        W89496  30.541  18.570   4.809 -0.3962 -0.2698 -0.1079
46403W        W89497  28.451  23.269   4.272 -0.0153  0.6965  0.0185
46404W        W89498  31.802  17.687   5.740  0.1504 -0.2538  0.5171
46405W        W89499  31.216  19.349   6.959 -0.0425 -0.0896  0.0334
46406W        W89500  29.865  18.261   5.939  0.0254  0.3959  0.1978
46407W        W89501  31.775  18.612   5.639  0.2441  0.2345  0.1420
46408W        W89502  32.849  19.466   5.014 -0.2587  0.0729  0.1055
46409W        W89503  31.541  20.403   5.494 -0.0178  0.0540 -0.2555
46410W        W89504  28.814  18.435   3.010 -0.2131 -0.1634 -0.0940
46411W        W89505  31.137  18.404   7.238  0.0182  0.2319 -0.3312
46412W        W89506  30.123  20.345   6.046 -0.0272  0.3965 -0.0104
46413W        W89507  30.466  20.676   7.179 -0.0115 -0.4858 -0.1938
46414W        W89508  30.522  21.025   8.070 -0.0405 -0.1668 -0.1570
46415W        W89509  30.792  20.023   4.895 -0.2957 -0.1507  0.0170
46416W        W89510  32.317  17.226   6.368  0.1305 -0.1791  0.1989
46417W        W89511  30.503  18.087   4.463  0.1011  0.1038  0.0545
46418W        W89512  30.289  22.132   4.232  0.1397  0.2900  0.1274
46419W        W89513  29.384  20.983   3.704  0.0043  0.2040 -0.1540
46420W        W89514  30.416  18.549   4.262  0.0769 -0.1483 -0.2579
46421W        W89515  31.277  22.234   5.004  0.0878 -0.1536 -0.2119
46422W        W89516  30.134  19.829   3.535 -0.0663  0.0154  0.0313
46423W        W89517  31.719  19.836   6.277  0.0879 -0.3797  0.1770
46424W        W89518  28.383  21.392   4.690  0.1873 -0.0074 -0.0640
46425W        W89519  32.731  17.784   5.276 -0.0756 -0.0034  0.0078
46426W        W89520  28.342  21.002   5.147 -0.1492  0.2137 -0.0071
46427W        W89521  29.656  19.526   3.485  0.2500  0.0890  0.2810
46428W        W89522  28.540  18.418   3.561  0.0121  0.0020  0.2486
46429W        W89523  31.299  18.946   5.623 -0.1014 -0.2642 -0.2362
46430W        W89524  31.644  20.038   4.275  0.0553  0.0065 -0.2030
46431W        W89525  30.307  19.411   6.652  0.0693  0.2766  0.2119
46432W        W89526  30.560  18.597   5.283 -0.2793  0.1594 -0.0672
46433W        W89527  29.562  21.065   5.666  0.1388  0.4134 -0.1520
46434W        W89528  31.087  20.688   5.806  0.1499 -0.1427 -0.0137
46435W        W89529  32.249  18.077   3.602  0.2724  0.3305  0.1932
46436W        W89530  31.883  20.574   7.006  0.1128  0.0780 -0.1902
46437W        W89531  29.591  20.093   8.760  0.1253  0.0224 -0.1106
46438W        W89532  29.185  18.364   4.556 -0.0978  0.0522  0.2001
46439W        W89533  32.272  19.270   6.013  0.2613 -0.2826 -0.0537
46440W        W89534  29.402  20.125   5.194 -0.1852  0.0127 -0.0204
46441W        W89535  27.718  21.480   5.727 -0.2161 -0.1884  0.0513
46442W        W89536  30.720  21.269   5.675 -0.2364  0.1357 -0.2473
46443W        W89537  28.696  19.692   4.016 -0.0844 -0.1655  0.0287
46444W        W89538  30.522  20.734   6.013  0.0189 -0.1827  0.2183
46445W        W89539  29.326  19.429   8.264  0.0077  0.0725  0.1381
46446W        W89540  33.019  20.032   6.957 -0.3468  0.2517 -0.2736
46447W        W89541  28.497  19.661   5.732 -0.2836  0.0242 -0.4230
46448W        W89542  29.238  18.795   4.963 -0.1788 -0.2732  0.1983
46449W        W89543  30.062  18.735   5.140  0.2305 -0.1518  0.1043
46450W        W89544  31.233  20.132   6.277 -0.3593  0.1166  0.0017
46451W        W89545  31.288  19.259   7.430 -0.0212 -0.1273 -0.1012
46452W        W89546  29.187  20.677   7.277 -0.2222 -0.2582 -0.1585
46453W        W89547  31.346  18.603   4.632 -0.1478  0.0029  0.1836
46454W        W89548  33.988  21.252   6.669 -0.1220  0.0137 -0.2238
46455W        W89549  31.839  19.284   6.377  0.1111  0.0703  0.2636
46456W        W89550  30.216  21.451   4.461 -0.0713 -0.1493 -0.1533
46457W        W89551  29.110  21.057   5.898  0.1886  0.0893  0.3798
46458W        W89552  29.582  19.274   3.990 -0.2616 -0.1811  0.2407
46459W        W89553  31.143  19.746   6.535 -0.0524  0.0197 -0.2031
46460W        W89554  30.293  20.413   5.607  0.2318  0.1127  0.0340
46461W        W89555  29.239  21.231   4.127  0.0587  0.1149  0.0142
46462W        W89556  29.572  20.298   6.061 -0.1966  0.1229 -0.1754
46463W        W89557  32.201  18.063   5.008  0.0508 -0.2259  0.0596
46464W        W89558  31.809  19.584   4.800 -0.4651 -0.0924  0.0358
46465W        W89559  30.842  18.133   3.916  0.0833  0.4967 -0.1132
46466W        W89560  31.999  18.820   7.062 -0.3385  0.0770 -0.1865
46467W        W89561  31.057  19.542   4.901  0.1758 -0.0323 -0.2792
46468W        W89562  32.702  17.929   6.742  0.1646  0.5901  0.0048
46469W        W89563  31.219  18.006   6.034  0.1330 -0.2391 -0.3102
46470W        W89564  32.710  21.069   6.400 -0.0218 -0.2712 -0.0833
46471W        W89565  29.893  19.150   7.594 -0.1254  0.1159 -0.0661
46472W        W89566  32.324  21.926   7.561  0.5037 -0.1425 -0.2472
46473W        W89567  28.293  19.523   7.882  0.1982  0.1964  0.0298
46474W        W89568  29.804  19.063   5.514  0.0596  0.0500  0.1056
46475W        W89569  29.320  18.813   3.919 -0.1340  0.3124 -0.0429
46476W        W89570  30.269  20.365   6.528  0.3021 -0.0336 -0.0764
46477W        W89571  31.677  20.279   5.980  0.0115 -0.2275 -0.1727
46478W        W89572  29.264  21.678   4.380  0.1413  0.0526  0.1244
46479W        W89573  31.360  18.168   5.049  0.2227  0.0798 -0.1603
46480W        W89574  29.559  21.033   4.916 -0.0672 -0.0058 -0.1112
46481W        W89575  32.671  19.116   4.723  0.1039 -0.2706 -0.0407
46482W        W89576  30.895  20.802   4.175  0.2453  0.3980 -0.0869
46483W        W89577  28.352  22.083   4.676 -0.0524  0.0577 -0.1136
46484W        W89578  30.329  18.200   5.529 -0.1064 -0.1751 -0.4217
46485W        W89579  31.989  20.891   6.582  0.1263  0.1204  0.1493
46486W        W89580  31.544  18.636   5.118 -0.4192  0.2404  0.2894
46487W        W89581  30.712  19.356   6.892 -0.3282  0.0404  0.2368
46488W        W89582  31.320  19.654   6.049 -0.1397  0.1877  0.2487
46489W        W89583  29.852  19.033   6.636  0.1800  0.1516  0.0247
46490W        W89584  29.527  19.063   7.961 -0.2990  0.1191  0.1096
46491W        W89585  30.895  21.482   6.736  0.0976 -0.2456 -0.1196
46492W        W89586  31.669  19.205   3.740  0.0482  0.1657 -0.0904
46493W        W89587  32.384  19.034   5.151  0.1959 -0.1733  0.1382
46494W        W89588  32.564  19.162   5.636  0.0972 -0.2234  0.1215
46495W        W89589  31.432  17.841   4.682 -0.0585 -0.2855  0.3149
46496W        W89590  28.736  20.147   5.733 -0.4175  0.3675 -0.2555
46497W        W89591  32.180  20.174   6.260 -0.4166 -0.0602  0.0657
46498W        W89592  29.364  20.738   3.225 -0.2118  0.1236  0.1702
46499W        W89593  32.261  17.632   6.735 -0.0144  0.2728 -0.0214
46500W        W89594  30.568  21.815   4.579 -0.1615  0.1045  0.1123
46501W        W89595  31.189  20.856   5.344  0.2237  0.1874  0.1300
46502W        W89596  31.047  19.229   4.506  0.0454  0.1652  0.0421
46503W        W89597  28.969  19.146   5.675  0.2000  0.1304  0.3199
46504W        W89598  30.228  21.206   7.242  0.3154 -0.1701 -0.1372
46505W        W89599  28.383  19.610   4.402 -0.0576 -0.1166  0.3390
46506W        W89600  29.906  19.787   4.382  0.2680  0.0966 -0.0783
46507W        W89601  31.120  21.161   6.045  0.1606  0.1713 -0.0037
46508W        W89602  32.896  19.975   6.452 -0.2358 -0.0834 -0.1376
46509W        W89603  29.867  18.868   3.940  0.2629  0.0159  0.2372
46510W        W89604  31.301  19.305   6.491 -0.0771 -0.2001 -0.0210
46511W        W89605  27.872  20.959   4.847 -0.1305  0.0997 -0.1666
46512W        W89606  31.400  17.435   4.291  0.0841  0.0994  0.0324
46513W        W89607  29.375  22.424   6.775  0.1903  0.2246 -0.2963
46514W        W89608  28.250  22.548   4.827  0.1011 -0.0436 -0.0421
46515W        W89609  31.272  15.448   5.946  0.1030  0.0275 -0.1328
46516W        W89610  30.433  19.015   4.411 -0.1234 -0.2169  0.0137
46517W        W89611  29.933  20.819   5.229 -0.0593 -0.1319 -0.3282
46518W        W89612  32.580  19.051   6.861 -0.4098 -0.0429  0.1476
46519W        W89613  31.468  20.680   6.205  0.0191 -0.1960  0.0880
46520W        W89614  31.033  20.413   5.319 -0.0600  0.3138 -0.1162
46521W        W89615  31.540  21.508   6.656  0.0442 -0.3932 -0.0639
46522W        W89616  30.718  19.064   4.902 -0.2529 -0.1885 -0.0606
46523W        W89617  30.127  20.921   5.694  0.1359  0.1329  0.0727
46524W        W89618  29.229  18.716   7.209 -0.2119 -0.0412  0.1927
46525W        W89619  32.084  21.209   6.941  0.3733 -0.2609  0.0740
46526W        W89620  31.410  20.509   4.953 -0.0340  0.0495 -0.0100
46527W        W89621  30.287  17.915   3.964 -0.1157 -0.2264 -0.2929
46528W        W89622  31.218  20.092   4.029  0.3035  0.4048 -0.0416
46529W        W89623  29.588  21.132   6.518 -0.3927 -0.2043 -0.3436
46530W        W89624  28.685  20.855   4.571  0.0505  0.4028  0.2864
46531W        W89625  30.347  22.606   4.195  0.1681  0.1481  0.3064
46532W        W89626  32.320  21.522   4.756  0.0345 -0.2361  0.1036
46533W        W89627  30.922  19.884   4.366 -0.1532 -0.0084  0.2063
46534W        W89628  31.260  21.335   5.600 -0.1263  0.2361 -0.1170
46535W        W89629  31.086  19.021   3.711  0.3014  0.3781 -0.1870
46536W        W89630  28.840  21.184   4.911  0.3016  0.0184 -0.1641
46537W        W89631  28.549  20.483   4.320  0.0645  0.1066  0.1592
46538W        W89632  31.167  20.758   3.143  0.0679  0.0129  0.1483
46539W        W89633  30.161  22.058   4.713  0.0268 -0.1914  0.1080
46540W        W89634  32.337  20.723   7.243 -0.0800 -0.1493  0.1677
46541W        W89635  32.992  17.627   3.548 -0.0004  0.1473  0.2930
46542W        W89636  31.658  21.026   5.195  0.2498  0.1300  0.1300
46543W        W89637  33.190  18.436   4.010 -0.1265 -0.0282 -0.1471
46544W        W89638  30.325  21.340   6.798 -0.1681  0.1247  0.0149
46545W        W89639  29.984  20.904   6.171  0.0568 -0.2259 -0.0596
46546W        W89640  30.125  18.619   2.886  0.1946 -0.1413 -0.6081
46547W        W89641  30.137  19.830   6.881  0.3287 -0.1613 -0.2595
46548W        W89642  33.096  19.162   6.980  0.2996  0.0877  0.0650
46549W        W89643  29.990  20.310   7.067  0.1090  0.4675 -0.0584
46550W        W89644  32.490  20.032   5.169 -0.1698  0.1949  0.2112
46551W        W89645  29.074  19.145   4.144  0.2329  0.0282  0.1188
46552W        W89646  30.294  18.666   6.035  0.1670 -0.0470  0.0660
46553W        W89647  33.718  17.867   5.249 -0.2737  0.0147  0.2696
46554W        W89648  30.698  20.357   4.487 -0.0505  0.0242  0.1375
46555W        W89649  30.808  19.328   4.010  0.1454  0.3004 -0.0321
46556W        W89650  30.563  21.819   5.811  0.2185 -0.1500  0.0242
46557W        W89651  29.718  22.306   5.900  0.2020 -0.2472 -0.2470
46558W        W89652  30.046  21.898   5.215  0.0204  0.0408 -0.1421
46559W        W89653  29.294  18.335   3.778  0.0356  0.2771  0.1399
46560W        W89654  32.575  19.638   5.626 -0.1944 -0.0417 -0.0975
46561W        W89655  30.498  19.653   7.186 -0.3430 -0.2487 -0.0360
46562W        W89656  32.014  18.629   6.540 -0.0069 -0.1694 -0.0445
46563W        W89657  30.511  20.723   4.899 -0.1547 -0.0997  0.1514
46564W        W89658  32.137  19.189   4.716  0.2813 -0.0877 -0.1721
46565W        W89659  30.390  19.139   7.533 -0.0758 -0.0782 -0.1269
46566W        W89660  30.830  19.770   5.992  0.1616 -0.0830  0.0652
46567W        W89661  30.951  19.750   3.826 -0.0119  0.2711 -0.0731
46568W        W89662  32.174  19.637   6.418 -0.0016  0.0978  0.0212
46569W        W89663  29.888  19.077   3.080  0.0410 -0.1411  0.0452
46570W        W89664  31.112  21.635   6.106  0.0881 -0.0171 -0.2453
46571W        W89665  29.629  19.665   4.778 -0.1587  0.1587  0.0979
46572W        W89666  29.361  19.194   5.349 -0.4247 -0.4574  0.0719
46573W        W89667  28.748  21.283   4.316 -0.4129  0.2296 -0.0502
46574W        W89668  30.965  20.242   6.668  0.2289  0.0540  0.0661
46575W        W89669  31.571  22.140   8.087  0.4183  0.1197 -0.2937
46576W        W89670  29.741  19.249   4.552  0.2196 -0.0411  0.3403
46577W        W89671  33.125  21.656   3.743  0.1453  0.0210 -0.1212
46578W        W89672  31.244  20.074   5.683  0.2537  0.0132 -0.1486
46579W        W89673  29.075  21.592   3.019 -0.1446 -0.2894  0.2087
46580W        W89674  32.592  19.747   4.615  0.1222  0.3427 -0.0913
46581W        W89675  31.598  21.722   5.710  0.0157  0.3271 -0.1558
46582W        W89676  30.113  18.535   6.896  0.2903  0.0077  0.4617
46583W        W89677  31.972  21.396   6.407 -0.0764 -0.2202  0.0557
46584W        W89678  33.963  20.635   6.202  0.0099  0.0253 -0.1653
46585W        W89679  30.712  16.737   5.460  0.1400 -0.0354 -0.1302
46586W        W89680  29.875  20.089   5.587  0.0121  0.0146  0.2857
46587W        W89681  28.158  21.245   5.904  0.1124 -0.0603 -0.1500
46588W        W89682  33.273  17.971   6.709 -0.0220  0.0611  0.0681
46589W        W89683  32.514  17.789   6.200  0.2333 -0.6178 -0.4179
46590W        W89684  30.510  21.678   4.101  0.3155  0.3364  0.1991
46591W        W89685  32.962  17.662   7.429  0.2178 -0.0893 -0.0517
46592W        W89686  30.637  22.430   4.573 -0.0332 -0.2573 -0.1226
46593W        W89687  29.551  20.855   7.606  0.0067  0.0493 -0.3290
46594W        W89688  28.805  21.051   3.588 -0.0350 -0.1153 -0.0603
46595W        W89689  30.571  19.815   6.704 -0.3184 -0.0207  0.1661
46596W        W89690  29.359  20.567   4.840 -0.0574 -0.0651 -0.0004
46597W        W89691  29.703  21.971   3.699  0.4223  0.1470 -0.1774
46598W        W89692  32.355  21.273   6.132 -0.0428 -0.1620 -0.0200
46599W        W89693  30.153  20.109   4.815 -0.2724 -0.1387  0.1642
46600W        W89694  31.582  22.038   5.302  0.0395  0.0284 -0.1084
46601W        W89695  31.021  18.568   3.486  0.2022  0.0939 -0.0667
46602W        W89696  33.016  17.714   4.620 -0.2302 -0.1979 -0.1938
46603W        W89697  32.245  18.362   4.039 -0.0618  0.2101 -0.0999
46604W        W89698  30.295  19.713   6.209  0.0266 -0.4670 -0.2141
46605W        W89699  30.668  17.775   5.452  0.0774  0.0413  0.1664
46606W        W89700  28.665  21.739   5.004 -0.2778  0.0942  0.3237
46607W        W89701  30.293  21.510   4.979  0.4349  0.0196  0.1182
46608W        W89702  31.660  19.545   6.726  0.2734 -0.2217  0.2562
46609W        W89703  29.150  19.821   8.468 -0.2678  0.0458  0.3106
46610W        W89704  29.076  20.450   4.400 -0.0107  0.0746 -0.5342
46611W        W89705  30.105  18.388   3.884  0.3897  0.1075  0.1124
46612W        W89706  33.168  19.071   4.690 -0.1494 -0.3217  0.1120
46613W        W89707  30.243  19.053   4.858 -0.0449  0.0671  0.0057
46614W        W89708  28.025  20.242   6.316  0.2896  0.2617 -0.1548
46615W        W89709  30.686  21.205   4.667  0.1634  0.0950  0.1121
46616W        W89710  31.205  20.169   4.606 -0.0633  0.1359 -0.0598
46617W        W89711  30.432  19.605   3.894  0.0116 -0.2071  0.3202
46618W        W89712  31.866  22.405   6.639 -0.2000 -0.0190 -0.0934
46619W        W89713  28.855  20.831   4.079 -0.1910 -0.0553 -0.1856
46620W        W89714  30.583  20.080   7.432 -0.1659  0.0578 -0.0042
46621W        W89715  29.594  18.716   7.634  0.2775  0.0560  0.2203
46622W        W89716  29.281  19.792   2.792  0.0358  0.0982 -0.3184
46623W        W89717  31.570  21.395   6.082  0.3108  0.1884 -0.2415
46624W        W89718  30.469  22.835   4.946 -0.0960 -0.2762 -0.1350
46625W        W89719  32.117  22.034   3.576 -0.2104  0.0514  0.2144
46626W        W89720  30.006  20.940   8.364  0.0580 -0.1498 -0.0948
46627W        W89721  30.522  21.628   6.373  0.2517  0.1885  0.2777
46628W        W89722  28.918  19.267   6.210  0.1458 -0.0629  0.5155
46629W        W89723  29.978  20.609   4.743 -0.0087 -0.0185  0.2703
46630W        W89724  32.681  21.169   5.315  0.0688  0.0252 -0.0779
46631W        W89725  32.144  20.401   3.688 -0.1909 -0.1738 -0.0251
46632W        W89726   0.078  18.766   6.458  0.2354 -0.1408 -0.1292
46633W        W89727  31.607  19.766   5.620  0.1582  0.2986  0.1288
46634W        W89728  29.389  19.134   6.936  0.3025  0.1956  0.0777
46635W        W89729  29.652  19.922   7.180  0.0008  0.0463 -0.1693
46636W        W89730  33.101  21.179   6.096 -0.1629 -0.3742 -0.1444
46637W        W89731  30.289  17.658   4.538  0.1999 -0.1295  0.0183
46638W        W89732  31.895  17.684   4.837  0.1984 -0.3572 -0.1292
46639W        W89733  29.352  20.589   5.433 -0.1806  0.0959  0.1357
46640W        W89734  29.007  19.669   5.663 -0.0560 -0.1288  0.1182
46641W        W89735  30.368  19.899   4.435  0.1635  0.2771  0.0322
46642W        W89736  29.557  19.986   7.841  0.1213 -0.2232  0.1666
46643W        W89737  30.370  21.097   5.260  0.2402 -0.2725 -0.0006
46644W        W89738  32.266  20.473   6.722  0.4721  0.1710  0.1218
46645W        W89739  29.957  21.489   3.601 -0.3573  0.0289 -0.0815
46646W        W89740  33.112  18.564   4.769  0.4652  0.1055  0.1279
46647W        W89741  31.283  22.447   5.538  0.0190 -0.1353  0.0688
46648W        W89742  32.401  22.322   7.877  0.1392  0.1786 -0.2605
46649W        W89743  31.561  21.860   4.700 -0.1531  0.4398 -0.2685
46650W        W89744  31.160  19.483   5.497 -0.2305 -0.2413 -0.0011
46651W        W89745  29.988  18.592   5.610 -0.0700  0.2211  0.0864
46652W        W89746  29.368  19.623   4.341  0.0781 -0.2715 -0.3615
46653W        W89747  29.327  20.153   3.127 -0.0849 -0.1242 -0.2634
46654W        W89748  32.107  18.609   5.218  0.0477 -0.2028  0.1380
46655W        W89749  30.006  18.793   4.426 -0.2709  0.1068 -0.0113
46656W        W89750  32.186  17.411   4.582  0.0930  0.2126 -0.1445
46657W        W89751  30.068  21.312   6.417  0.0162  0.2230 -0.1266
46658W        W89752  30.323  21.289   5.989  0.0539 -0.0831  0.0653
46659W        W89753  31.159  21.395   9.932  0.0779  0.0346  0.0191
46660W        W89754  29.188  19.507   7.754 -0.2733  0.2758  0.4239
46661W        W89755  31.206  20.351   7.597 -0.0681 -0.2624 -0.1178
46662W        W89756  32.009  19.986   6.801 -0.0066  0.0483 -0.2031
46663W        W89757  27.935  18.000   8.981  0.1638 -0.3515  0.0857
46664W        W89758  29.626  21.710   9.446  0.1420  0.2080  0.1248
46665W        W89759  31.227  21.768   8.386 -0.2463 -0.0228 -0.1249
46666W        W89760  31.999  21.229   9.804 -0.0415  0.3070 -0.1196
46667W        W89761  30.945  20.540   6.307  0.1271 -0.1895  0.0028
46668W        W89762  30.974  21.143   9.390  0.1634  0.1035 -0.0671
46669W        W89763  29.947  18.986   8.259 -0.3764 -0.1844  0.0338
46670W        W89764  28.595  18.325   9.331  0.0036  0.3539 -0.0401
46671W        W89765  32.926  19.826   9.157  0.0792 -0.0082 -0.0745
46672W        W89766  28.539  20.245   9.020  0.0819  0.2400 -0.3720
46673W        W89767  30.905  18.513   9.621  0.0991 -0.1980  0.0725
46674W        W89768  30.208  19.403   8.946  0.1650 -0.1153  0.2596
46675W        W89769  30.456  22.049   7.873  0.4643 -0.0457 -0.0225
46676W        W89770  28.980  18.498   9.032 -0.0822  0.2731  0.1625
46677W        W89771  30.177  20.706   7.663 -0.0024 -0.0525 -0.2027
46678W        W89772  28.586  18.746   6.815  0.3796 -0.0533  0.1775
46679W        W89773  25.456  21.947  10.098  0.2482  0.0393 -0.3341
46680W        W89774  28.893  20.391   9.849 -0.0517  0.3140  0.2138
46681W        W89775  31.053  18.042   8.461 -0.0592  0.2237 -0.0015
46682W        W89776  33.168  18.118   9.338  0.2799  0.0549 -0.3283
46683W        W89777  30.433  21.621   9.429  0.1834 -0.2704  0.1410
46684W        W89778  31.715  22.062   8.567  0.2776  0.5849 -0.1190
46685W        W89779  27.996  20.227   9.715 -0.1332 -0.4292  0.2449
46686W        W89780  29.423  21.872   8.727  0.0235  0.2357  0.1080
46687W        W89781  30.814  21.756   7.674  0.1488 -0.0771  0.1460
46688W        W89782  33.819  20.207   9.863 -0.1908 -0.2584 -0.0906
46689W        W89783  28.743  20.215   7.518  0.0831  0.4440  0.2083
46690W        W89784  31.088  22.213   9.472 -0.0153  0.3108  0.0438
46691W        W89785  30.073  19.845   8.709  0.1545 -0.1382  0.3783
46692W        W89786  30.694  21.583   7.227 -0.1696 -0.2768 -0.0980
46693W        W89787  30.338  21.385   8.458 -0.2191  0.0093 -0.0074
46694W        W89788  29.177  21.946   9.333 -0.0045 -0.0038 -0.1416
46695W        W89789  29.132  21.079   7.729 -0.1245 -0.0077 -0.0389
46696W        W89790  30.032  19.478   7.263  0.1649 -0.2117 -0.0778
46697W        W89791  31.628  19.602   7.234  0.0846  0.2178 -0.3190
46698W        W89792  32.607  18.586   6.726 -0.0241  0.2886  0.0671
46699W        W89793  30.614  18.227   7.306 -0.0685 -0.0827  0.0885
46700W        W89794  27.840  21.273   9.474  0.1523 -0.1431 -0.3129
46701W        W89795  30.595  20.253   9.165  0.2560  0.1544  0.0480
46702W        W89796  30.499  20.241   7.885  0.3653 -0.3611 -0.3244
46703W        W89797  31.055  19.568   9.020 -0.0402  0.0814  0.0812
46704W        W89798  29.267  20.789   9.963  0.0326  0.0114  0.0261
46705W        W89799  28.940  19.347   8.597 -0.3405 -0.0837  0.2408
46706W        W89800  31.045  21.018   7.880 -0.1531  0.0454  0.0404
46707W        W89801  32.118  21.448   7.867 -0.1701  0.3309 -0.1375
46708W        W89802  31.138  20.926   8.602 -0.5571 -0.0488  0.0925
46709W        W89803  29.538  18.661   8.911 -0.1530 -0.1198  0.1112
46710W        W89804  29.435  19.337   5.885  0.1680  0.4498 -0.0696
46711W        W89805  31.086  20.093   9.075 -0.0065  0.1418  0.0243
46712W        W89806  30.877  20.477   8.617  0.1400  0.0500  0.1918
46713W        W89807  32.361  20.437   8.661 -0.0003  0.2612 -0.1145
46714W        W89808  31.886  19.822   7.620  0.1439  0.2198  0.0218
46715W        W89809  31.656  19.415   7.761  0.1568 -0.0668  0.0511
46716W        W89810  31.325  20.023   9.788  0.4702  0.2997  0.2624
46717W        W89811  29.709  19.838   8.369 -0.0176  0.0621 -0.2701
46718W        W89812  29.993  20.342   8.502  0.1286 -0.4318  0.1296
46719W        W89813  34.603  20.891   9.720  0.0570 -0.1148 -0.0080
46720W        W89814  32.539  19.398   7.290  0.1822  0.0782 -0.0367
46721W        W89815  30.365  20.077  10.162  0.0451 -0.0128  0.1193
46722W        W89816  29.957  20.805   7.266 -0.0806  0.0001 -0.0548
46723W        W89817  28.716  21.209   8.849  0.1886 -0.1783  0.0124
46724W        W89818  29.618  20.798   8.633  0.0827 -0.0548 -0.1335
46725W        W89819  28.326  17.895   9.267 -0.1883 -0.0463 -0.0419
46726W        W89820  29.338  21.896   9.794 -0.2384 -0.0598  0.1499
46727W        W89821  31.644  17.729   8.084 -0.0367  0.1495 -0.2477
46728W        W89822  31.837  19.123   8.176  0.0047 -0.0378  0.1940
46729W        W89823  31.485  20.398   9.199  0.2427  0.0419  0.1115
46730W        W89824  33.005  22.006   8.563 -0.0213  0.1301 -0.3504
46731W        W89825  31.613  18.565   8.518  0.3710 -0.2067 -0.1786
46732W        W89826  30.597  21.130   6.363 -0.1778 -0.0803 -0.1596
46733W        W89827  27.022  19.889   9.527  0.0155  0.1664 -0.0190
46734W        W89828  29.191  19.003   8.975 -0.1174 -0.3061 -0.1341
46735W        W89829  28.131  18.426   9.126 -0.2297  0.1347 -0.3268
46736W        W89830  28.081  18.481   7.693  0.2354 -0.0832  0.1811
46737W        W89831  31.968  20.689   8.901  0.3939  0.1094 -0.2163
46738W        W89832  29.691  20.560   9.593 -0.1954  0.3013 -0.2588
46739W        W89833  28.659  19.574  10.096 -0.0809  0.1339 -0.2977
46740W        W89834  31.149  21.532   7.974  0.0331  0.2719  0.0431
46741W        W89835   0.323  21.679  12.281 -0.3303  0.1707  0.2987
46742W        W89836  32.388  21.890   9.204 -0.2559  0.4485  0.0775
46743W        W89837  28.773  18.560   9.880  0.1486 -0.2525  0.0774
46744W        W89838  28.934  17.621   8.639 -0.2207 -0.0761 -0.2244
46745W        W89839  29.223  21.246   8.614  0.1083  0.4713  0.1574
46746W        W89840  31.645  20.449   9.707 -0.0203  0.0750  0.0012
46747W        W89841  29.031  19.687   9.191  0.3322  0.0183  0.1379
46748W        W89842  32.445  21.303   8.224 -0.0061 -0.1099 -0.0981
46749W        W89843  31.237  18.789   7.553 -0.0773  0.3637 -0.0858
46750W        W89844  31.974  19.378   9.205 -0.1822 -0.1041 -0.1640
46751W        W89845  32.797  19.401   7.741 -0.4572  0.0748  0.1561
46752W        W89846  29.116  19.161   7.390  0.2294  0.2089 -0.0803
46753W        W89847  31.830  21.809   9.077 -0.3160 -0.0870  0.1022
46754W        W89848  29.306  21.328   7.353  0.0057  0.0515 -0.0047
46755W        W89849  28.587  20.652   8.092 -0.2452  0.3069  0.0566
46756W        W89850  27.648  21.158   9.923 -0.0626 -0.0988 -0.1619
46757W        W89851  30.932  19.991   7.852 -0.1006  0.0651  0.1332
46758W        W89852  28.734  19.720   7.648  0.1277 -0.0946 -0.1118
46759W        W89853  31.733  18.972   7.454  0.2731 -0.1968 -0.2222
46760W        W89854  32.079  17.967   6.047 -0.0999  0.1002  0.1403
46761W        W89855  33.010  20.101   8.306  0.2167  0.0020 -0.0860
46762W        W89856  30.817  19.403   6.378  0.3019 -0.1303  0.0397
46763W        W89857  30.722  18.491   8.037  0.2860  0.1286  0.2905
46764W        W89858  29.924  21.102   7.890  0.2808  0.3772 -0.0310
46765W        W89859  31.939  20.161   8.879  0.1677  0.3528  0.1012
46766W        W89860  30.895  18.847   6.230  0.2605 -0.0299 -0.1629
46767W        W89861  32.535  20.326   8.205 -0.0092 -0.1252  0.1702
46768W        W89862  26.728  21.487  10.210 -0.0320  0.1030 -0.0398
46769W        W89863  30.837  20.909   9.931  0.0144  0.0561 -0.1853
46770W        W89864  29.759  19.725   9.072 -0.1205  0.0321 -0.1382
46771W        W89865  29.057  19.960   7.954  0.0171 -0.1238 -0.0382
46772W        W89866  31.459  19.986   8.772 -0.1346  0.2628 -0.2461
46773W        W89867  28.541  20.911   6.674  0.0501 -0.2522 -0.2372
46774W        W89868  30.518  18.274   9.877  0.0206  0.1383  0.2698
46775W        W89869  29.889  18.291   8.920 -0.0513  0.0282 -0.2959
46776W        W89870  31.613  18.452   7.268 -0.0829  0.1812 -0.1159
46777W        W89871  32.015  19.901   9.326 -0.3503 -0.2669 -0.1671
46778W        W89872  28.635  18.536   8.244  0.0412 -0.1554 -0.0047
46779W        W89873  33.264  17.037   9.507 -0.1834 -0.0453  0.1131
46780W        W89874  27.158  21.584   9.146  0.0528  0.0025 -0.1976
46781W        W89875  31.891  20.845   9.470  0.3777  0.3324 -0.0939
46782W        W89876  30.623  18.657   7.549  0.0443  0.1038 -0.0507
46783W        W89877  29.899  21.468   8.252  0.0681 -0.0533 -0.0813
46784W        W89878  30.981  20.361   7.152  0.2296 -0.1451 -0.1826
46785W        W89879  29.581  17.312   9.257 -0.0867  0.0268 -0.2222
46786W        W89880  30.537  21.171   9.623  0.0996  0.4939 -0.2793
46787W        W89881  29.808  21.346   6.956  0.2476  0.3796  0.3355
46788W        W89882  30.828  21.130   8.938 -0.0222 -0.1007  0.0958
46789W        W89883  29.404  21.650   8.269 -0.1217 -0.0382  0.1817
46790W        W89884  30.950  19.829   9.473 -0.3574 -0.2108 -0.1615
46791W        W89885  28.543  21.663   8.067 -0.1854 -0.0079  0.0713
46792W        W89886  28.222  19.832   8.829 -0.0165 -0.0518  0.1756
46793W        W89887  28.935  20.168   9.340  0.1206  0.2128  0.0511
46794W        W89888  31.303  18.853   7.094  0.2942 -0.2315  0.2500
46795W        W89889  31.563  20.219   7.191  0.3817 -0.2550 -0.3447
46796W        W89890  29.841  20.238   9.980 -0.0073  0.3022  0.0335
46797W        W89891  30.623  19.776   8.793 -0.0820  0.1486  0.0663
46798W        W89892  27.347  21.283   9.485 -0.3418  0.3307  0.0412
46799W        W89893  32.020  18.513   6.049 -0.0295  0.0386  0.0135
46800W        W89894  27.953  19.333   8.213 -0.0144 -0.1968  0.1643
46801W        W89895  32.528  15.695  10.227 -0.2678  0.1176 -0.0487
46802W        W89896  29.526  18.516   8.104 -0.0431 -0.1742  0.2778
46803W        W89897  30.072  20.685   8.829  0.1034  0.0321  0.3121
46804W        W89898  32.204  21.883   9.776  0.0015  0.1151 -0.1308
46805W        W89899  29.387  19.531   8.810 -0.1158  0.0943  0.1993
46806W        W89900  30.803  21.645   9.149  0.1110  0.1019  0.0095
46807W        W89901  32.914  18.674   8.779  0.3213  0.2888 -0.0520
46808W        W89902  29.358  19.730   9.626 -0.3117  0.1197 -0.1202
46809W        W89903  28.497  17.642   8.427 -0.1435  0.3517  0.1901
46810W        W89904  31.117  20.351   9.520 -0.3612 -0.0110  0.0362
46811W        W89905  32.422  19.821   8.997  0.0738  0.0635  0.0141
46812W        W89906  31.355  19.552  10.042 -0.2535  0.0829  0.1132
46813W        W89907  30.709  19.264   8.758  0.2458 -0.1423  0.0611
46814W        W89908  32.265  21.320   8.842  0.1346  0.1378 -0.0818
46815W        W89909  29.700  20.389   7.431  0.4324  0.0205 -0.1068
46816W        W89910  27.410  18.449  10.144 -0.1314 -0.1171 -0.2819
46817W        W89911  28.926  21.793  10.133 -0.1073  0.3013 -0.0208
46818W        W89912  28.662  18.082   9.781 -0.3020  0.1622  0.2555
46819W        W89913  30.663  21.397  10.087  0.1287 -0.1471 -0.0071
46820W        W89914  29.635  20.484   9.117  0.1306  0.1391 -0.0297
46821W        W89915  28.597  21.324  10.086 -0.0738 -0.2350  0.1624
46822W        W89916  33.904  17.147   6.619  0.0483 -0.1943 -0.1630
46823W        W89917  30.712  21.092   7.024 -0.0844  0.2899  0.0639
46824W        W89918  30.271  19.842   9.250 -0.2323  0.4072 -0.2292
46825W        W89919  30.915  19.641   7.494  0.2294  0.1692  0.0586
46826W        W89920  30.248  19.204   9.967  0.1203  0.0345 -0.0074
46827W        W89921  31.608  21.558   8.681 -0.0186  0.1497  0.1312
46828W        W89922  30.407  19.220   8.028  0.0200  0.1639 -0.2864
46829W        W89923  29.287  18.016   8.891  0.1759  0.1967  0.3821
46830W        W89924  30.236  20.069   9.710  0.1439  0.3828 -0.0589
46831W        W89925  32.491  19.313   8.156 -0.0678 -0.0564  0.2492
46832W        W89926  30.668  21.133   7.565 -0.5421  0.0220 -0.2019
46833W        W89927  32.641  19.595   8.555 -0.1069 -0.0898 -0.3257
46834W        W89928  30.115  19.246   9.490  0.2103 -0.2705 -0.0344
46835W        W89929  31.611  19.507   8.411 -0.0548 -0.0425 -0.4173
46836W        W89930  31.457  20.768   7.645  0.3086  0.0498 -0.2643
46837W        W89931  29.762  20.009   9.538  0.2797  0.1489 -0.4369
46838W        W89932  31.876  20.484   7.530 -0.0505  0.1888 -0.1507
46839W        W89933  30.277  19.649   8.318 -0.0092 -0.0979  0.1193
46840W        W89934  29.864  21.892   9.807  0.0580 -0.2176  0.1507
46841W        W89935  30.833  18.733   5.692  0.0035  0.0506 -0.1425
46842W        W89936  31.736  19.119   8.708 -0.1831 -0.0272  0.0105
46843W        W89937  32.695  19.852   8.016 -0.0083 -0.0916 -0.1341
46844W        W89938  30.047  20.050   8.084  0.0199  0.1607  0.2054
46845W        W89939  28.732  19.275   9.230 -0.0293 -0.1651 -0.0784
46846W        W89940  30.225  18.651   8.028  0.2622 -0.0616  0.2024
46847W        W89941  31.322  20.954   9.041 -0.1662  0.0409 -0.0480
46848W        W89942  29.381  20.039   9.229  0.1518 -0.1322  0.1521
46849W        W89943  32.507  19.846   6.682  0.3268 -0.1095  0.0344
46850W        W89944  28.907  19.621   9.640  0.4428  0.1723 -0.0294
46851W        W89945  29.918  20.010   6.354  0.0523  0.1236  0.2356
46852W        W89946  29.751  20.463   8.001 -0.1056 -0.0746  0.1464
46853W        W89947  31.421  21.214   8.296 -0.2454 -0.1569  0.1034
46854W        W89948  32.449  17.670   7.581  0.0873 -0.2032 -0.0509
46855W        W89949  29.163  20.670   8.811  0.0463 -0.0426 -0.2348
46856W        W89950  31.268  19.148   8.463 -0.0954 -0.1143 -0.0311
46857W        W89951  29.625  21.905  10.261  0.0235 -0.2124 -0.0018
46858W        W89952  30.140  20.455   9.342 -0.0368  0.1309 -0.1865
46859W        W89953  32.157  19.220   9.656 -0.0860 -0.1271 -0.1518
46860W        W89954  31.512  20.448   8.649 -0.0874  0.0098  0.0222
46861W        W89955  30.088  21.112  10.022 -0.2213  0.0782  0.0139
46862W        W89956  28.697  20.677   9.266 -0.3644 -0.1720  0.1399
46863W        W89957  31.924  20.470   8.269 -0.1986 -0.0443 -0.0231
46864W        W89958  30.219  22.031  10.353  0.0189  0.2152  0.0662
46865W        W89959  29.154  22.658   9.965 -0.0865  0.2223 -0.3303
46866W        W89960  30.464  18.945   8.471  0.0398 -0.0032  0.1938
46867W        W89961  31.313  21.856   7.656  0.0389  0.0369  0.1544
46868W        W89962  30.238  18.740   9.624  0.4250  0.2116 -0.0369
46869W        W89963  29.530  21.128   8.216  0.0966  0.0704 -0.1050
46870W        W89964  31.355  18.728   6.415 -0.0530 -0.1366 -0.0203
46871W        W89965  31.349  19.716   8.024 -0.1149  0.4384 -0.0499
46872W        W89966  32.274  20.779   9.778  0.1156  0.0485  0.0394
46873W        W89967  29.734  19.547   7.994 -0.0626 -0.0754  0.2559
46874W        W89968  28.833  21.714   9.669  0.1561  0.3318  0.0386
46875W        W89969  29.272  23.076   7.864  0.0259 -0.1421 -0.1118
46876W        W89970  31.576  20.212   7.914 -0.2350 -0.1005  0.1007
46877W        W89971  30.998  20.606   9.122  0.0448  0.0315  0.1309
46878W        W89972  32.977  18.082   7.082 -0.1422  0.1204 -0.0233
46879W        W89973  32.791  18.228   8.940  0.0547  0.0831  0.3091
46880W        W89974  33.604  20.111   9.426  0.0716  0.3012 -0.0071
46881W        W89975  30.668  20.569   9.577  0.0609 -0.2621  0.1733
46882W        W89976  30.434  17.838   5.908  0.1349 -0.0869  0.1516
46883W        W89977  32.842  23.049   8.108 -0.1027  0.3520 -0.0231
46884W        W89978  28.085  18.960   8.645  0.1135 -0.1751 -0.1018
46885W        W89979  29.567  19.803  10.181  0.0301 -0.0314 -0.1292
46886W        W89980   0.353  18.109   8.646  0.2982  0.0994  0.0620
46887W        W89981  30.927  19.868   7.060 -0.0570 -0.1219  0.1510
46888W        W89982  31.495  19.867   9.333 -0.2368  0.0569  0.1072
46889W        W89983  29.727  20.955   9.135  0.2181  0.1701  0.2460
46890W        W89984  31.780  19.545   9.660 -0.1740  0.4286  0.0642
46891W        W89985  30.268  20.635   9.855  0.0862  0.1832  0.0560
46892W        W89986  28.706  16.930   7.741 -0.2221 -0.3142 -0.1493
46893W        W89987  32.373  20.780   9.250  0.1939  0.3145  0.1005
46894W        W89988  29.193  18.596  10.224 -0.1379  0.0064  0.0280
46895W        W89989  29.923  18.750   9.259  0.2015  0.1176  0.1697
46896W        W89990  31.415  17.993   7.251 -0.0126 -0.1994 -0.2530
46897W        W89991  31.225  20.796   9.608 -0.2098 -0.1159 -0.1497
46898W        W89992  25.994  19.913   9.481 -0.1762  0.2038 -0.2471
46899W        W89993  30.431  19.733   7.768 -0.0212  0.0374  0.1521
46900W        W89994  30.082  20.087   7.532 -0.2324 -0.0256 -0.3649
46901W        W89995  28.436  17.209   9.388  0.0992 -0.1151 -0.0047
46902W        W89996  30.898  19.020   8.236 -0.0593 -0.1572 -0.2718
46903W        W89997  29.325  20.212   9.749 -0.2375  0.1481 -0.3148
46904W        W89998  31.199  20.885  10.296 -0.0222  0.1936 -0.2207
46905W        W89999  30.581  17.348   9.986 -0.1360 -0.0388 -0.1008
46906W        W90000  30.723  20.587   7.597 -0.0054 -0.0199 -0.3233
46907W        W90001  32.636  19.070   8.592 -0.0736 -0.0578  0.0110
46908W        W90002  29.781  21.244   7.426  0.2029  0.1520 -0.0882
46909W        W90003  31.697  18.681   7.956 -0.2004 -0.0232 -0.1255
46910W        W90004  31.427  22.094   9.036  0.3173 -0.2510  0.4060
46911W        W90005  27.047  19.446  10.156  0.0636 -0.0334 -0.1311
46912W        W90006  30.967  19.379   9.704 -0.1828  0.0228 -0.2883
46913W        W90007  34.335  20.207   8.903  0.0337  0.1677  0.0722
46914W        W90008  30.613  18.225   6.734 -0.0319  0.1034 -0.2770
46915W        W90009  29.923  19.563   9.820  0.0516 -0.0428 -0.2089
46916W        W90010  29.496  21.015   9.568 -0.2822  0.2038 -0.3087
46917W        W90011  32.286  19.937   8.461  0.0267 -0.1554 -0.0933
46918W        W90012  31.152  21.351   7.436  0.3275  0.2224  0.1780
46919W        W90013  31.688  21.016   8.684  0.0938  0.0956 -0.1316
46920W        W90014  28.662  20.624   7.186  0.0949 -0.2448 -0.2723
46921W        W90015  29.607  21.428   9.942  0.2177  0.0085  0.1496
46922W        W90016  30.915  22.645   8.655  0.4469 -0.1063  0.0644
46923W        W90017  30.815  21.767   9.757  0.0111  0.0877 -0.0820
46924W        W90018  31.763  19.970   8.382  0.1228  0.2161  0.1833
46925W        W90019  31.681  21.633   8.169  0.1932  0.0707  0.2896
46926W        W90020  29.864  19.411   8.540  0.1636 -0.0004 -0.0193
46927W        W90021  31.077  19.670   8.446  0.3915  0.2486 -0.0436
46928W        W90022  31.035  18.483   6.703  0.1265  0.3533  0.2237
46929W        W90023  27.561  23.644   9.388  0.0326  0.3360 -0.0669
46930W        W90024  29.309  20.715   8.053  0.1677 -0.0423  0.2981
46931W        W90025  29.537  20.481   6.922  0.0451  0.0601 -0.1449
46932W        W90026  29.132  21.076   9.161 -0.0795 -0.3156 -0.2869
46933W        W90027  29.168  20.649   9.423  0.0865 -0.1211 -0.0914
46934W        W90028  27.414  18.184   8.773 -0.2933 -0.0009 -0.0216
46935W        W90029  32.915  18.983   7.432  0.2590 -0.0225 -0.0635
46936W        W90030  28.834  20.358   8.429 -0.0026  0.0701  0.0825
46937W        W90031  29.084  19.074   8.103  0.0190  0.3521 -0.1916
46938W        W90032  30.844  21.279   8.312  0.0983  0.4076 -0.0402
46939W        W90033  31.868  20.841   7.933  0.0133 -0.2220  0.2143
46940W        W90034  30.011  18.981   8.756  0.1261  0.0561 -0.3985
46941W        W90035  27.694  21.061   5.953  0.0746 -0.1480 -0.0840
46942W        W90036  28.399  17.853   7.646  0.0293 -0.0318  0.0905
46943W        W90037  30.432  19.000   9.105 -0.3179  0.2898 -0.0331
46944W        W90038  30.468  20.928   8.597 -0.1863  0.0669 -0.1251
46945W        W90039  32.072  23.221   7.710 -0.0709  0.1072 -0.1356
46946W        W90040  31.612  16.454   9.164  0.1112  0.1971  0.1202
46947W        W90041  32.225  20.258   7.262  0.1039 -0.0861  0.0842
46948W        W90042  32.543  20.211   7.663  0.2042  0.1289 -0.2083
46949W        W90043  33.277  19.264   7.709 -0.1967  0.0258 -0.0297
46950W        W90044  32.097  19.302   7.457 -0.1626  0.0978  0.0697
46951W        W90045  33.051  20.261   9.348  0.1049 -0.2565 -0.1268
46952W        W90046  28.553  18.515   8.807  0.0753 -0.0105  0.0036
46953W        W90047  32.389  19.674   7.678  0.0112  0.2246 -0.2460
46954W        W90048  30.845  20.609   8.100 -0.1640 -0.3300  0.0053
46955W        W90049  30.501  19.572   9.766 -0.1855 -0.0087  0.0157
46956W        W90050  30.891  19.480   7.974 -0.3442  0.0179  0.0194
46957W        W90051  30.717  21.775   8.181 -0.1141  0.0329 -0.1140
46958W        W90052  30.886  19.058   7.762  0.2144 -0.0629 -0.3146
46959W        W90053  33.039  19.569   7.335 -0.3068  0.0358  0.2184
46960W        W90054  30.399  20.901   9.156  0.0557 -0.0494 -0.1183
46961W        W90055  26.858  21.086   9.447 -0.2442  0.0749  0.1081
46962W        W90056  31.411  21.295   9.488  0.1492 -0.0750 -0.3077
46963W        W90057  28.232  16.988   9.799  0.1743 -0.0390 -0.0045
46964W        W90058  30.506  20.150   8.476 -0.0921 -0.2179  0.1109
46965W        W90059  30.323  20.555   8.248 -0.0872  0.2524 -0.2106
46966W        W90060  32.314  18.822   9.335  0.1147 -0.0513 -0.1796
46967W        W90061  28.439  19.341   8.769  0.0102 -0.0902  0.2575
46968W        W90062  31.110  17.505   7.142  0.1603  0.0683  0.3499
46969W        W90063  30.693  22.171   8.418  0.1577 -0.2711  0.1393
46970W        W90064  30.060  22.920   9.011  0.0198  0.1020 -0.1888
46971W        W90065  30.128  24.421   2.635 -0.3922 -0.0935  0.1722
46972W        W90066  28.853  21.212   0.798 -0.1991 -0.3649 -0.1822
46973W        W90067  30.968  22.455   0.391 -0.3671 -0.0704 -0.2298
46974W        W90068  33.736  23.093  31.493  0.0579  0.0627 -0.0499
46975W        W90069  27.830  23.090   1.470  0.0598  0.2178 -0.1349
46976W        W90070  30.849  24.535   2.553 -0.2701  0.0743  0.0705
46977W        W90071  28.349  22.509   4.315 -0.1442  0.0832 -0.1607
46978W        W90072  30.879  23.615   3.199  0.0809 -0.1477 -0.0836
46979W        W90073  32.395  24.421   2.451 -0.1838  0.0091 -0.2441
46980W        W90074  31.444  23.304   0.759  0.3193 -0.1534 -0.2340
46981W        W90075  31.587  23.098   3.635 -0.1517  0.2482  0.4084
46982W        W90076  30.246  24.228   3.250 -0.2829 -0.2349 -0.1353
46983W        W90077  29.933  22.182   1.639 -0.1311 -0.1009  0.3038
46984W        W90078  28.925  23.272   1.866  0.1916 -0.4078 -0.3571
46985W        W90079  32.925  23.558   3.722  0.0321 -0.2481 -0.2533
46986W        W90080  29.080  24.280   1.614  0.0261 -0.0009 -0.0576
46987W        W90081  30.711  23.427   3.730 -0.3106 -0.1813  0.3556
46988W        W90082  32.229  23.022   1.327  0.0839 -0.3185  0.3387
46989W        W90083  31.421  25.463   1.669 -0.1375  0.0377  0.0703
46990W        W90084  32.030  23.104   4.297  0.2311  0.2974 -0.1748
46991W        W90085  31.918  22.810   3.840  0.0926 -0.2149 -0.0803
46992W        W90086  30.047  26.315  31.324  0.0302  0.3377  0.3590
46993W        W90087  30.362  23.964   0.179 -0.1147 -0.1546  0.0604
46994W        W90088  28.987  24.581   2.358  0.2218 -0.0151 -0.3158
46995W        W90089  29.605  21.859   1.908  0.0328 -0.2035  0.1614
46996W        W90090  33.081  21.628   1.785  0.0720  0.2954 -0.2649
46997W        W90091  31.584  22.414   1.871  0.1122 -0.2015  0.4025
46998W        W90092  31.189  24.698   2.982  0.4036 -0.0778 -0.3635
46999W        W90093  30.004  23.926   1.179  0.0603 -0.0097 -0.0488
47000W        W90094  32.542  22.280   4.702 -0.2796 -0.2372 -0.0894
47001W        W90095  29.670  25.117   0.566  0.5250 -0.0444  0.0782
47002W        W90096  29.325  26.485   1.887 -0.3569  0.4570 -0.5010
47003W        W90097  30.406  24.493   1.702 -0.2567 -0.2772  0.2931
47004W        W90098  32.236  25.646   1.373 -0.2919  0.2718  0.3708
47005W        W90099  31.250  24.887   2.463 -0.1485  0.1032  0.1095
47006W        W90100  29.665  25.131   2.699 -0.0761 -0.1945 -0.0648
47007W        W90101  29.835  25.416   1.574  0.3908 -0.0915 -0.1265
47008W        W90102  30.883  24.199   5.033 -0.1663 -0.1638  0.3598
47009W        W90103  31.089  23.256   3.477  0.1512  0.0439  0.1738
47010W        W90104  30.389  23.733   3.359  0.0641  0.0977 -0.0399
47011W        W90105  32.077  22.870   0.759  0.1003 -0.2498  0.1801
47012W        W90106  30.034  25.896  31.972 -0.0299  0.5994 -0.0806
47013W        W90107  31.505  23.199   2.193  0.1958  0.0690  0.0300
47014W        W90108  29.336  24.230   4.166  0.1190  0.1035  0.2765
47015W        W90109  31.195  24.233   2.959  0.1519  0.0774 -0.0743
47016W        W90110  32.567  23.667   4.740  0.1292  0.0041  0.1226
47017W        W90111  29.507  26.510   1.458 -0.0526  0.0832 -0.1057
47018W        W90112  31.818  23.404   0.386 -0.1561 -0.2866  0.0909
47019W        W90113  29.366  23.152  31.433 -0.3146 -0.0561  0.0478
47020W        W90114  32.543  23.384  31.766  0.0212 -0.0257 -0.0280
47021W        W90115  28.764  21.583   2.159  0.0849 -0.1142 -0.0592
47022W        W90116  29.865  25.202   2.000 -0.0656 -0.0056 -0.0882
47023W        W90117  29.356  23.275   3.276 -0.1263 -0.2659  0.1525
47024W        W90118  31.347  24.662   3.824  0.1057 -0.0708  0.1020
47025W        W90119  29.893  23.605   0.842 -0.1444 -0.0885  0.0821
47026W        W90120  32.027  23.624   3.411 -0.0261  0.2539  0.0877
47027W        W90121  29.429  23.947   2.637  0.4282 -0.1225 -0.0082
47028W        W90122  30.263  23.618   2.362  0.1443 -0.3399  0.2557
47029W        W90123  32.458  24.654   0.876 -0.2253  0.0419 -0.3473
47030W        W90124  31.849  24.092   1.542  0.0474 -0.0163  0.1138
47031W        W90125  31.793  25.650   1.006  0.2316 -0.1336  0.1142
47032W        W90126  28.513  24.003   1.172 -0.0861  0.1455 -0.0474
47033W        W90127  28.992  24.704   3.064  0.2882  0.0166 -0.3059
47034W        W90128  29.139  23.629   2.350  0.1292 -0.4377 -0.1375
47035W        W90129  29.678  22.318   1.178  0.4262  0.1239  0.0792
47036W        W90130  32.984  23.957   4.504 -0.1955 -0.0877  0.1530
47037W        W90131  30.526  24.080   2.575  0.0751 -0.2152 -0.0284
47038W        W90132  31.478  21.887   1.699  0.0392  0.1618 -0.0077
47039W        W90133  29.062  23.911   1.226  0.0004  0.0360  0.0259
47040W        W90134  31.894  24.292   2.478 -0.1053 -0.1368  0.2054
47041W        W90135  32.653  24.317   0.236 -0.1299  0.1421  0.0580
47042W        W90136  32.715  21.645   2.111 -0.3774  0.0248 -0.1972
47043W        W90137  31.634  21.704   3.475  0.3209 -0.3083  0.0666
47044W        W90138  29.542  22.962   0.252 -0.0318  0.3036 -0.3098
47045W        W90139  30.169  22.975   1.101 -0.4700 -0.0554  0.1707
47046W        W90140  31.897  24.887   3.668 -0.1633 -0.1300  0.0088
47047W        W90141  31.480  24.749   0.802  0.2008 -0.1608 -0.0039
47048W        W90142  29.946  24.876   2.406 -0.1867 -0.1049 -0.2369
47049W        W90143  30.989  22.251   3.667  0.0890  0.3387  0.1484
47050W        W90144  32.524  23.806   3.162  0.3210  0.1135  0.0440
47051W        W90145  29.951  26.440  31.800  0.1137 -0.0258 -0.1204
47052W        W90146  28.401  25.656   1.522 -0.0936  0.1183 -0.0948
47053W        W90147  29.239  26.024   0.588 -0.0575 -0.1205 -0.3483
47054W        W90148  29.167  22.810   3.114  0.1490  0.1025  0.0507
47055W        W90149  29.289  23.253   2.789  0.0347  0.2361 -0.4208
47056W        W90150  30.847  22.316   0.840 -0.0953  0.2021 -0.2092
47057W        W90151  29.653  23.413   3.637 -0.0084 -0.2295  0.1658
47058W        W90152  32.334  22.169   1.508  0.1573  0.1008 -0.2379
47059W        W90153  29.898  22.573   0.100 -0.0640 -0.1363 -0.2952
47060W        W90154  32.912  25.582   1.992  0.2306  0.1847  0.3372
47061W        W90155  31.329  23.252  31.952 -0.2280  0.0832 -0.1055
47062W        W90156  33.076  24.033   0.565  0.0515  0.1197 -0.0122
47063W        W90157  28.685  23.835   2.239 -0.1746  0.4323  0.0714
47064W        W90158  29.915  23.999   2.450 -0.1469 -0.2220  0.2441
47065W        W90159  30.023  22.981   4.018 -0.2788 -0.1152  0.2675
47066W        W90160  28.445  22.978   1.750  0.4526  0.0496 -0.3237
47067W        W90161  30.519  24.625   2.173  0.1214 -0.2799  0.1676
47068W        W90162  28.348  22.221   1.228 -0.1449 -0.0552 -0.2118
47069W        W90163  31.270  21.720   2.566 -0.3463 -0.1138  0.0192
47070W        W90164  30.222  23.369   1.406 -0.1922  0.1995  0.1041
47071W        W90165  29.521  24.976   1.614  0.1388 -0.2014  0.0808
47072W        W90166  33.048  23.179   4.014 -0.0311  0.2232  0.1324
47073W        W90167  31.267  24.218   1.392 -0.1811  0.2071  0.0207
47074W        W90168  31.478  24.406   1.770  0.0257 -0.1152 -0.1324
47075W        W90169  30.040  22.420   3.369  0.0131  0.1781 -0.4367
47076W        W90170  29.888  21.256   1.304  0.4887  0.3658 -0.1615
47077W        W90171  29.220  27.325   1.515 -0.1069  0.2714  0.1477
47078W        W90172  30.642  24.942   1.771 -0.1421  0.1086 -0.0257
47079W        W90173  31.725  23.535   2.563  0.0353  0.1297 -0.1380
47080W        W90174  30.538  23.702   1.229 -0.1152 -0.3565 -0.1494
47081W        W90175  28.769  22.412   3.022 -0.3322 -0.0434 -0.1633
47082W        W90176  30.491  22.377   3.771 -0.2536  0.1584 -0.0831
47083W        W90177  31.774  23.033   2.547  0.0572 -0.1940 -0.0570
47084W        W90178  32.115  22.542   1.240  0.1658 -0.3374  0.1648
47085W        W90179  30.628  22.504   1.777 -0.0591  0.2286  0.0935
47086W        W90180  31.670  26.728   1.869  0.2420 -0.0919 -0.1937
47087W        W90181  28.729  25.402   1.872 -0.0818  0.0064 -0.0890
47088W        W90182  29.704  23.263   1.185  0.0385  0.0132  0.1374
47089W        W90183  30.378  23.443   0.741 -0.2370 -0.4051 -0.0920
47090W        W90184  31.948  21.821   2.775 -0.2418 -0.2211 -0.2313
47091W        W90185  28.718  23.968   5.673  0.0149  0.0730  0.1439
47092W        W90186  32.003  23.434   3.857 -0.0355  0.0791  0.0140
47093W        W90187  29.493  23.836   0.617  0.3452 -0.3736  0.3678
47094W        W90188  29.247  24.234   3.169 -0.0801  0.0042  0.1149
47095W        W90189  32.998  20.833   1.570  0.0213  0.0436  0.0822
47096W        W90190  31.081  22.407   1.959 -0.0889 -0.1563 -0.1566
47097W        W90191  31.067  24.755   4.304  0.0007  0.2299 -0.2899
47098W        W90192  31.500  23.706   1.176 -0.1272  0.2708 -0.0911
47099W        W90193  29.546  22.518   1.609 -0.1082 -0.0521 -0.0581
47100W        W90194  29.957  21.983   0.201 -0.2340  0.3238 -0.0781
47101W        W90195  28.502  25.136   3.825  0.0296 -0.1133  0.4337
47102W        W90196  31.155  23.411   1.849 -0.1644 -0.1422 -0.3822
47103W        W90197  31.646  24.112   3.420 -0.0033 -0.0037  0.1546
47104W        W90198  29.250  22.088   0.920  0.1191 -0.1812  0.0705
47105W        W90199  33.885  25.016   0.594 -0.2845  0.2771 -0.0078
47106W        W90200  29.465  23.339   0.720 -0.0995  0.1684 -0.3251
47107W        W90201  30.082  23.842   3.850  0.1643  0.2853 -0.1085
47108W        W90202  31.108  23.990   1.883  0.0033 -0.2874  0.1021
47109W        W90203  29.084  21.760   3.577 -0.1748  0.1907  0.0597
47110W        W90204  29.729  22.339  31.479 -0.0701  0.2330 -0.1006
47111W        W90205  31.536  21.206   1.608 -0.0653  0.4254 -0.0864
47112W        W90206  28.673  25.255   0.737  0.1901  0.2362  0.0223
47113W        W90207  32.107  22.318   2.698 -0.1612 -0.0890 -0.0429
47114W        W90208  31.819  21.567   1.877  0.0684  0.3698 -0.0484
47115W        W90209  31.055  21.409   3.534 -0.1748  0.2383  0.0528
47116W        W90210  33.382  23.904   3.591  0.1643  0.0746  0.0882
47117W        W90211  29.921  22.288   2.127  0.1700  0.0148 -0.2637
47118W        W90212  30.802  22.275   3.198 -0.2378  0.0463 -0.0278
47119W        W90213  29.154  22.538   1.263  0.0268  0.0811  0.1887
47120W        W90214  32.157  23.119   3.456 -0.1368  0.0926 -0.0684
47121W        W90215  29.463  23.430   1.980 -0.1308 -0.0908  0.1311
47122W        W90216  29.021  25.398   2.630 -0.0725 -0.3450 -0.1144
47123W        W90217  32.551  25.741   3.217 -0.1643  0.0559  0.0038
47124W        W90218  31.886  22.800   1.620  0.0556 -0.3640  0.1780
47125W        W90219  31.645  22.313   4.507 -0.2386  0.1498 -0.1542
47126W        W90220  31.388  22.165   0.840  0.1108  0.0068 -0.2178
47127W        W90221  31.311  25.217   1.173 -0.1829  0.2727 -0.0358
47128W        W90222  31.294  25.305   0.272  0.0659 -0.0594  0.2694
47129W        W90223  30.337  22.359   2.348  0.0151 -0.1261 -0.0747
47130W        W90224  30.330  24.664   3.460 -0.0684 -0.4105  0.1098
47131W        W90225  29.517  24.213   0.138  0.0289 -0.0781  0.2903
47132W        W90226  32.171  24.211   2.920 -0.0464 -0.0228 -0.1599
47133W        W90227  30.132  26.427   1.554  0.0871  0.2771  0.0441
47134W        W90228  32.645  22.073   1.879 -0.1519  0.3104 -0.1892
47135W        W90229  28.345  25.606   3.779 -0.1423  0.0550  0.0117
47136W        W90230  29.892  23.631   0.340  0.0460 -0.2615 -0.2345
47137W        W90231  28.723  24.742   1.513  0.3615 -0.1335 -0.2562
47138W        W90232  32.276  21.704   1.764  0.0069  0.4536 -0.1266
47139W        W90233  32.841  24.571   0.611  0.2599  0.1483 -0.0816
47140W        W90234  29.654  23.740   4.232  0.2752  0.2708 -0.0552
47141W        W90235  30.455  22.406   2.851  0.1999 -0.1278  0.2190
47142W        W90236  29.777  26.615   1.836 -0.2634  0.1440  0.2560
47143W        W90237  31.474  24.121   3.908 -0.1219  0.1166 -0.3324
47144W        W90238  30.040  22.508   0.807  0.0397 -0.0347 -0.5196
47145W        W90239  30.148  25.461   2.994 -0.0240 -0.0753 -0.0060
47146W        W90240  31.839  24.093   4.467  0.0991 -0.0279 -0.0717
47147W        W90241  28.184  23.965   0.648 -0.1838 -0.0027  0.3256
47148W        W90242  32.613  23.056   2.024  0.3619  0.1116 -0.0272
47149W        W90243  30.275  23.277   2.861  0.0618 -0.0637  0.1440
47150W        W90244  29.661  23.894   2.027 -0.0235  0.0091  0.2948
47151W        W90245  31.178  25.400   2.548  0.0518 -0.0856  0.2035
47152W        W90246  30.195  24.002   1.886 -0.1099  0.1143 -0.0019
47153W        W90247  29.408  24.783   0.916 -0.4061 -0.2588 -0.1193
47154W        W90248  30.142  23.431   4.217 -0.3448 -0.0430  0.2591
47155W        W90249  32.130  24.944   2.590 -0.1294 -0.0481 -0.0647
47156W        W90250  30.649  22.722   3.169 -0.1357  0.0092  0.0364
47157W        W90251  28.847  22.966   0.911  0.1277  0.1783 -0.1394
47158W        W90252  31.523  24.037   2.231 -0.1614 -0.0727  0.0828
47159W        W90253  31.041  24.037   2.482  0.2471  0.2346 -0.0601
47160W        W90254  31.936  23.905   3.941  0.2593 -0.2548  0.1760
47161W        W90255  29.989  26.079   5.621  0.0597  0.2329 -0.2304
47162W        W90256  30.639  21.556   3.101 -0.0074  0.2194 -0.3389
47163W        W90257  32.070  25.039   0.075 -0.1880 -0.1817  0.2364
47164W        W90258  32.105  23.704   2.879  0.1636  0.2221  0.0600
47165W        W90259  30.279  22.972  31.905 -0.0602  0.0369  0.0150
47166W        W90260  26.931  25.236   2.157 -0.2699  0.0795 -0.2013
47167W        W90261  30.117  24.645   0.937 -0.2815 -0.4403  0.0552
47168W        W90262  31.869  22.196   3.118  0.0102  0.0512  0.0145
47169W        W90263  29.576  24.341   2.323  0.0076 -0.1389  0.2941
47170W        W90264  29.237  24.215   0.879 -0.2220 -0.2647 -0.2427
47171W        W90265  29.177  23.752   3.377 -0.0896  0.1677  0.1533
47172W        W90266  32.031  21.713   0.831  0.1322  0.1127  0.1406
47173W        W90267  31.439  22.981   0.348 -0.2540 -0.1336 -0.1046
47174W        W90268  30.418  22.811   2.604 -0.0719  0.0644 -0.0401
47175W        W90269  31.663  22.654   2.997 -0.0811  0.1643  0.3291
47176W        W90270  31.549  22.825   0.827 -0.2251 -0.1541 -0.3458
47177W        W90271  32.271  22.591   3.603 -0.2609 -0.0084  0.0517
47178W        W90272  29.576  22.833   4.747 -0.1545 -0.2082 -0.0641
47179W        W90273  31.591  24.047   2.754 -0.0780  0.0160 -0.1630
47180W        W90274  29.842  23.076   1.654  0.0271  0.2390 -0.1053
47181W        W90275  32.074  24.526   4.210 -0.0833  0.2862  0.1397
47182W        W90276  28.664  24.852   3.377 -0.2943  0.0680 -0.2391
47183W        W90277  32.137  22.534   2.110 -0.0234 -0.1003  0.0551
47184W        W90278  30.852  21.809   0.697  0.2764 -0.0286 -0.1437
47185W        W90279  30.910  24.472   1.586  0.1705  0.0110  0.2460
47186W        W90280  32.153  23.901   0.912  0.1970  0.2633  0.2189
47187W        W90281  30.880  23.516   0.875  0.1565  0.0872  0.1109
47188W        W90282  32.004  23.050   2.090 -0.2291 -0.1622  0.1324
47189W        W90283  29.797  23.596   1.541 -0.4653 -0.2326  0.4646
47190W        W90284  31.431  22.277   2.748  0.0313  0.0214  0.1328
47191W        W90285  31.679  23.244   1.759 -0.0047 -0.4066 -0.1686
47192W        W90286  29.412  23.891   1.624 -0.1234  0.1114  0.2306
47193W        W90287  28.441  22.403   3.808  0.1338 -0.1452  0.2477
47194W        W90288  29.650  23.508   2.483  0.4484 -0.0011 -0.0080
47195W        W90289  31.070  21.501   1.712  0.1583 -0.3157 -0.1844
47196W        W90290  32.445  23.251   3.895 -0.2552  0.3305 -0.0563
47197W        W90291  31.915  23.605   2.103  0.0499 -0.4097  0.1413
47198W        W90292  30.555  23.817   3.953  0.1150 -0.0427  0.2474
47199W        W90293  28.244  22.263   3.029  0.0112  0.3254  0.1978
47200W        W90294  30.814  25.039   2.339  0.4172 -0.0197  0.1389
47201W        W90295  33.095  21.772  31.820 -0.0153  0.0827 -0.0101
47202W        W90296  32.485  21.131   2.543  0.1279 -0.1296 -0.1088
47203W        W90297  31.682  22.563   2.350 -0.0276 -0.2241 -0.0199
47204W        W90298  30.961  22.143   1.485  0.1805  0.2589 -0.0201
47205W        W90299  30.744  23.694   2.137  0.3349 -0.0156 -0.1291
47206W        W90300  32.344  23.231   2.930  0.3923 -0.3033 -0.0736
47207W        W90301  31.203  22.795   1.224  0.2711  0.2104 -0.0116
47208W        W90302  31.888  24.366   3.785 -0.1631  0.1447 -0.0496
47209W        W90303  30.573  25.918   0.274  0.2326  0.0805 -0.0158
47210W        W90304  31.274  23.646   2.230 -0.0235 -0.1023 -0.0225
47211W        W90305  32.493  23.822   0.440 -0.0215 -0.0799 -0.1716
47212W        W90306  28.926  23.765   1.724 -0.0971  0.3811 -0.6394
47213W        W90307  29.517  25.162   4.138 -0.0572  0.0799  0.0052
47214W        W90308  29.959  22.140  30.946  0.1891 -0.3565 -0.2049
47215W        W90309  30.670  22.645   1.280  0.0140  0.0854  0.0358
47216W        W90310  30.006  24.799   1.797 -0.0772 -0.2077  0.0582
47217W        W90311  33.996  24.668   3.370 -0.1128 -0.2630 -0.1270
47218W        W90312  30.672  21.648   1.170 -0.3213  0.0626 -0.1867
47219W        W90313  32.708  22.655   2.274 -0.0710 -0.2856  0.2318
47220W        W90314  29.671  26.097   0.367 -0.4133  0.1179 -0.1025
47221W        W90315  31.620  22.456   1.230 -0.0506 -0.0112 -0.0848
47222W        W90316  30.370  25.132   2.197  0.1271  0.1567  0.1511
47223W        W90317  27.509  24.348   2.873 -0.2317 -0.2001 -0.0101
47224W        W90318  29.208  24.922   2.666 -0.0179  0.3129  0.1719
47225W        W90319  30.829  21.986   2.824 -0.1366 -0.1288  0.1094
47226W        W90320  29.800  23.105   2.858  0.1557 -0.1106  0.1415
47227W        W90321  30.713  22.799   2.162 -0.4121 -0.1792 -0.0549
47228W        W90322  33.003  22.495   2.629  0.0444  0.1653  0.0263
47229W        W90323  30.691  24.178   2.107 -0.0746  0.2181  0.3041
47230W        W90324  30.058  24.422   2.085 -0.1525  0.1539  0.1131
47231W        W90325  29.583  25.303   5.091 -0.1881 -0.0079 -0.0131
47232W        W90326  32.142  22.817   3.009  0.1644 -0.2293  0.3201
47233W        W90327  30.176  26.240   1.027  0.2365 -0.0055  0.2111
47234W        W90328  27.821  22.818   3.883  0.4842 -0.0714  0.1467
47235W        W90329  30.143  23.923   2.847  0.0417  0.0668 -0.4802
47236W        W90330  30.438  23.277   2.004  0.3247 -0.0685  0.2760
47237W        W90331  30.393  22.079   1.896 -0.0855 -0.1252  0.1587
47238W        W90332  30.447  24.474   0.584  0.0530 -0.1556  0.0026
47239W        W90333  28.716  23.761   3.739 -0.0822  0.2248 -0.0986
47240W        W90334  28.866  23.145   3.137 -0.1448 -0.2863 -0.2610
47241W        W90335  31.093  26.688   1.807 -0.0946 -0.0106 -0.0975
47242W        W90336  32.249  23.343   1.793 -0.1552 -0.0758 -0.0709
47243W        W90337  32.025  23.968   0.342  0.3740  0.1862  0.1292
47244W        W90338  31.943  25.530   1.735 -0.0534  0.0528  0.1154
47245W        W90339  28.954  22.066   1.415 -0.2707  0.1260  0.2811
47246W        W90340  29.725  26.131   1.828  0.0410 -0.0858 -0.3092
47247W        W90341  30.001  24.250   0.382 -0.0376  0.0579  0.0754
47248W        W90342  30.887  25.484   1.002 -0.0011 -0.1517  0.0504
47249W        W90343  30.854  26.374   1.269  0.1407 -0.0846  0.0801
47250W        W90344  31.699  24.632   2.777 -0.2513 -0.0797  0.0290
47251W        W90345  31.909  21.144   0.953  0.3714  0.0265 -0.2129
47252W        W90346  31.539  22.506   0.416 -0.0562  0.2739 -0.1216
47253W        W90347  32.268  22.527  31.784 -0.0269 -0.1623  0.2239
47254W        W90348  32.300  24.597   3.634 -0.2700 -0.0133 -0.1110
47255W        W90349  30.812  23.190   2.912  0.1993 -0.0062 -0.0915
47256W        W90350  31.669  21.460   0.470 -0.0204 -0.1754 -0.0119
47257W        W90351  30.197  24.415   4.399 -0.0926  0.2420 -0.2984
47258W        W90352  32.714  22.866   3.714 -0.0458 -0.1738  0.1040
47259W        W90353  29.865  25.128   4.508  0.3164  0.1521  0.0828
47260W        W90354  31.048  24.600   2.098 -0.0726  0.1355  0.1780
47261W        W90355  29.738  22.931   0.812  0.0019  0.0342  0.0846
47262W        W90356  31.289  23.133   2.678  0.1773 -0.3069  0.0263
47263W        W90357  31.749  21.639   2.398  0.0531 -0.0674 -0.0288
47264W        W90358  30.999  23.240   0.475 -0.1376  0.2036 -0.1520
47265W        W90359  31.443  23.600   3.294  0.2240 -0.3125 -0.3077
47266W        W90360  30.840  24.991   1.273 -0.2275  0.0645 -0.1179
47267W        W90361  30.435  24.881   2.729 -0.0708  0.0705 -0.0407
47268W        W90362  30.080  25.416   2.484  0.1063  0.1240 -0.2383
47269W        W90363  27.881  21.127   0.888 -0.1995  0.0667 -0.0717
47270W        W90364  33.471  23.060  31.908 -0.1261  0.4421 -0.0856
47271W        W90365  30.232  22.850   3.585 -0.1858  0.2470 -0.0680
47272W        W90366  32.373  21.440   2.941  0.2087  0.3132  0.2189
47273W        W90367  28.700  22.580   1.482  0.0322 -0.0919  0.2813
47274W        W90368  32.461  22.152   0.997 -0.2478  0.2315 -0.0228
47275W        W90369  31.252  23.661   2.748  0.3320 -0.1978  0.0247
47276W        W90370  29.079  23.668   2.857 -0.1000 -0.0523  0.3351
47277W        W90371  30.779  21.962   0.245 -0.2056  0.0016 -0.2529
47278W        W90372  33.087  24.414   3.434  0.1354 -0.1798 -0.1415
47279W        W90373  30.489  22.704   0.650 -0.0835 -0.1549  0.6222
47280W        W90374  33.012  25.020   3.788  0.2048  0.1444 -0.2209
47281W        W90375  29.171  24.133   2.107  0.4177  0.1265  0.1757
47282W        W90376  30.352  22.342   0.246  0.0927 -0.1604  0.0509
47283W        W90377  28.434  23.185   0.714  0.0384 -0.0866 -0.1044
47284W        W90378  30.030  23.327   3.279 -0.0171 -0.3671  0.0256
47285W        W90379  32.990  25.956   3.086  0.0098 -0.1717  0.3366
47286W        W90380  29.301  22.985   1.102  0.0474  0.3479  0.1081
47287W        W90381  31.804  24.524   0.023  0.0484  0.0483 -0.1353
47288W        W90382  30.543  23.183   3.331  0.1459 -0.3511  0.6021
47289W        W90383  30.200  25.417   0.211 -0.1152 -0.0862  0.0238
47290W        W90384  30.699  24.119   0.859 -0.1666 -0.2297  0.0359
47291W        W90385  31.759  24.977   1.758 -0.1014  0.3497 -0.2120
47292W        W90386  28.882  23.065   1.394 -0.1609  0.4110 -0.3153
47293W        W90387  30.539  25.015   3.832  0.0287 -0.0910 -0.3144
47294W        W90388  32.458  23.549   1.344 -0.0644  0.1043  0.0134
47295W        W90389  31.241  21.732   1.273 -0.1531  0.3286 -0.1998
47296W        W90390  30.684  23.137   1.143  0.1846  0.0449 -0.1229
47297W        W90391  28.847  25.694   0.947  0.2079 -0.0040  0.0155
47298W        W90392  32.263  22.805   2.496 -0.0124 -0.3644  0.2095
47299W        W90393  32.683  21.690   3.359 -0.1269 -0.3450 -0.0590
47300W        W90394  29.641  24.836  31.589  0.1639  0.0177 -0.1918
47301W        W90395  32.449  21.955   2.848  0.2783  0.2016  0.0216
47302W        W90396  30.478  25.038   3.182  0.2623 -0.1473 -0.0583
47303W        W90397  29.858  24.280   3.563 -0.0141 -0.1351 -0.1030
47304W        W90398  29.048  24.214  31.899  0.0317  0.2929  0.1534
47305W        W90399  30.587  25.350   4.385 -0.3217 -0.3860 -0.0212
47306W        W90400  31.132  24.437   0.560 -0.0382 -0.1360  0.0957
47307W        W90401  31.216  23.849   0.410  0.0146 -0.1001  0.0415
47308W        W90402  31.950  24.541   0.758  0.1928  0.1465 -0.0885
47309W        W90403  31.324  22.313   3.256  0.1223 -0.1146  0.1665
47310W        W90404  31.764  23.270   3.008  0.0174 -0.3489 -0.1871
47311W        W90405  31.177  23.293   1.304  0.0673 -0.3105 -0.0532
47312W        W90406  32.092  21.185   1.522  0.3100 -0.2982 -0.0782
47313W        W90407  32.535  19.952   1.263 -0.1625  0.0945 -0.2379
47314W        W90408  29.120  24.206   3.710 -0.0651  0.1502  0.0495
47315W        W90409  27.966  23.460   0.580 -0.2477  0.0097  0.1789
47316W        W90410  30.378  22.092   0.737 -0.3561  0.0198 -0.0748
47317W        W90411  29.480  23.738   1.112 -0.2343  0.2191  0.0006
47318W        W90412  32.920  21.987   2.944  0.0223  0.2766 -0.2228
47319W        W90413  30.882  22.595   4.075  0.2084 -0.1913 -0.1073
47320W        W90414  28.535  24.900   2.007 -0.0020  0.2474  0.1974
47321W        W90415  29.152  22.984   0.546 -0.1185  0.1103 -0.0483
47322W        W90416  31.915  23.377   0.951  0.4049 -0.0199  0.0822
47323W        W90417  28.381  22.956   2.639 -0.0492 -0.0312  0.0817
47324W        W90418  30.862  22.989   1.642  0.0197 -0.1086  0.2781
47325W        W90419  31.661  23.073   1.251  0.0754 -0.1328 -0.2555
47326W        W90420  31.365  24.406   2.496  0.0585  0.1861  0.1044
47327W        W90421  29.699  23.048   2.183 -0.2169 -0.3625  0.1337
47328W        W90422  32.664  25.261   2.922 -0.2917 -0.3313  0.2504
47329W        W90423  28.323  25.115   0.271  0.2714 -0.0756 -0.0423
47330W        W90424  31.358  23.986   4.350  0.0804  0.2708 -0.0451
47331W        W90425  31.164  21.781   3.906 -0.1490 -0.2068  0.0388
47332W        W90426  29.416  22.286  31.907  0.2827 -0.0558  0.1154
47333W        W90427  31.064  23.852   3.653  0.0026 -0.2234 -0.0559
47334W        W90428  31.992  23.554   1.453  0.0391  0.0110  0.2478
47335W        W90429  31.021  25.062   0.655  0.1557  0.0117 -0.1122
47336W        W90430  30.848  24.599   3.725 -0.0921 -0.1360 -0.3323
47337W        W90431  30.239  25.064   4.897 -0.0465  0.0068 -0.0579
47338W        W90432  28.469  22.468   2.607  0.0503 -0.1470 -0.0572
47339W        W90433  32.277  23.100   0.169 -0.1838 -0.1886  0.1202
47340W        W90434  30.661  24.161   4.526  0.1194  0.1501 -0.1968
47341W        W90435  32.755  23.920  30.960  0.0195 -0.0607  0.0616
47342W        W90436  33.199  21.575   3.091 -0.1650  0.3478  0.0628
47343W        W90437  31.171  24.012   0.903  0.0768 -0.0234  0.1561
47344W        W90438  28.823  21.283   2.756 -0.4077  0.0956 -0.0681
47345W        W90439  29.583  23.955   3.763 -0.0159 -0.2673  0.2947
47346W        W90440  31.606  24.672   1.324  0.0399 -0.2052  0.0799
47347W        W90441  29.765  22.794   1.270  0.1235  0.0118 -0.0841
47348W        W90442  30.967  20.546   0.246 -0.0107 -0.0229 -0.2895
47349W        W90443  31.011  24.481   1.089  0.0738  0.4739  0.3341
47350W        W90444  29.963  23.466   1.987 -0.0392 -0.0728 -0.0764
47351W        W90445  30.138  22.491   1.350 -0.1729  0.2401  0.1534
47352W        W90446  32.326  25.010   3.984 -0.0269 -0.0965  0.1693
47353W        W90447  30.635  24.032   3.042  0.3117  0.1251  0.0118
47354W        W90448  30.972  24.265   4.138  0.1210  0.2317 -0.0003
47355W        W90449  31.514  22.072   2.239  0.0534  0.2341  0.0040
47356W        W90450  31.812  22.820  31.867  0.0156  0.0601  0.0841
47357W        W90451  30.382  25.401   3.553 -0.1759 -0.0590 -0.0776
47358W        W90452  31.698  25.892   3.784 -0.4879 -0.1859  0.1641
47359W        W90453  30.210  25.737   4.338 -0.0641 -0.2301  0.1394
47360W        W90454  31.208  24.296   3.513  0.0207  0.0097  0.2718
47361W        W90455  29.588  22.607   3.092 -0.1598  0.1867  0.0336
47362W        W90456  31.648  23.750   0.662  0.2036  0.0996  0.0502
47363W        W90457  30.955  23.271   2.289  0.1519  0.1281  0.0939
47364W        W90458  31.213  22.764   2.290  0.1138  0.1507 -0.0555
47365W        W90459  30.284  24.278   3.854  0.0581 -0.1630  0.2710
47366W        W90460  32.224  22.068   2.176  0.2296  0.1068 -0.2115
47367W        W90461  29.182  23.708   3.949 -0.4036  0.2210 -0.2993
47368W        W90462  31.473  23.084   4.203  0.0834 -0.1438 -0.1872
47369W        W90463  30.353  24.334   6.955  0.2790  0.1214  0.1160
47370W        W90464  28.521  22.977   4.630  0.2769  0.0706 -0.0653
47371W        W90465  32.737  22.997   2.668 -0.3236  0.2878 -0.1455
47372W        W90466  32.735  23.605   4.181  0.1067 -0.2181  0.2273
47373W        W90467  28.504  22.629   6.227  0.2140 -0.1937 -0.4865
47374W        W90468  32.265  25.647   6.167 -0.0217  0.0543 -0.0010
47375W        W90469  28.592  22.946   6.721  0.1644 -0.0111  0.1216
47376W        W90470  31.821  25.902   7.135  0.1294  0.2308 -0.0403
47377W        W90471  33.178  26.007   6.593  0.0387  0.1007 -0.4206
47378W        W90472  32.185  24.578   4.685 -0.1017  0.1432 -0.0513
47379W        W90473  29.470  22.983   6.628 -0.0065  0.6094  0.1435
47380W        W90474  31.550  24.370   6.698  0.3014  0.2402 -0.0421
47381W        W90475  29.683  22.968   3.473  0.3215  0.1262  0.2169
47382W        W90476  27.790  21.737   5.306 -0.0033 -0.0225 -0.0080
47383W        W90477  31.104  23.536   5.696  0.1428 -0.5071 -0.1206
47384W        W90478  30.397  24.227   6.446  0.2110  0.4186  0.1484
47385W        W90479  30.848  24.472   7.227 -0.0805 -0.0295  0.0682
47386W        W90480  30.582  23.593   5.583 -0.0825 -0.0921  0.0213
47387W        W90481  32.234  24.142   6.555  0.3644  0.0978 -0.3256
47388W        W90482  31.077  23.102   6.564 -0.2683 -0.1959  0.1956
47389W        W90483  31.294  20.559   6.676 -0.0162 -0.1670  0.0545
47390W        W90484  32.226  24.143   3.453  0.0857 -0.1466  0.2259
47391W        W90485  29.005  23.209   4.101 -0.1080  0.0649 -0.1273
47392W        W90486  29.303  22.338   5.468  0.0656 -0.0950 -0.2566
47393W        W90487  31.701  23.906   6.956  0.1986 -0.0802 -0.3047
47394W        W90488  32.200  22.908   5.536 -0.1320  0.1793  0.1632
47395W        W90489  33.139  23.979   5.400 -0.1309  0.1071  0.3730
47396W        W90490  30.539  23.944   6.017 -0.0820 -0.0413  0.0399
47397W        W90491  31.819  24.764   6.521 -0.0847  0.0214  0.2618
47398W        W90492  31.653  22.774   7.538  0.1681 -0.1278  0.1449
47399W        W90493  30.200  23.187   5.787 -0.0175  0.1115  0.0318
47400W        W90494  29.346  26.427   5.177 -0.1055 -0.1896  0.3454
47401W        W90495  29.360  24.041   6.431 -0.1491 -0.3469 -0.0284
47402W        W90496  32.577  23.706   5.273  0.2846  0.1680 -0.0820
47403W        W90497  32.870  24.779   7.064  0.1179 -0.1712 -0.0593
47404W        W90498  30.940  25.639   7.258  0.1627  0.0639 -0.0936
47405W        W90499  29.299  23.407   4.515  0.0141  0.0915  0.0808
47406W        W90500  30.959  25.142   6.334  0.1705 -0.2502  0.1219
47407W        W90501  30.421  25.764   7.030  0.1660 -0.3141  0.0242
47408W        W90502  30.104  23.087   7.038 -0.0870  0.0216 -0.4717
47409W        W90503  31.499  23.825   4.774 -0.2228 -0.3854 -0.1070
47410W        W90504  30.691  23.107   5.752 -0.2048 -0.0048  0.3357
47411W        W90505  31.297  23.859   6.066  0.0395  0.2471  0.0781
47412W        W90506  29.847  24.549   8.738 -0.0942 -0.2610 -0.2702
47413W        W90507  29.763  25.612   5.754 -0.2288 -0.2302  0.0531
47414W        W90508  32.389  22.796   7.713  0.0911  0.0299  0.2287
47415W        W90509  30.616  25.068   5.902 -0.0480 -0.2004  0.1593
47416W        W90510  34.167  23.543   3.958 -0.1243 -0.4825 -0.2361
47417W        W90511  30.795  22.803   3.611  0.1804  0.1105 -0.3229
47418W        W90512  31.081  22.078   4.588 -0.0903 -0.1183  0.2534
47419W        W90513  29.100  21.967   4.820 -0.2906 -0.0227  0.0518
47420W        W90514  30.374  25.770   5.680 -0.1563 -0.1393 -0.1141
47421W        W90515  29.970  22.751   6.619  0.1147 -0.0453  0.2710
47422W        W90516  32.490  24.488   7.323  0.0735  0.0908  0.0252
47423W        W90517  30.963  23.770   4.669 -0.0896  0.2893  0.0313
47424W        W90518  30.249  23.763   6.726 -0.0768 -0.1669  0.0392
47425W        W90519  31.171  24.722   7.546 -0.1938 -0.0347 -0.1023
47426W        W90520  27.818  23.303   5.919  0.1702 -0.0908 -0.0045
47427W        W90521  31.943  24.971   4.488  0.0889 -0.0204  0.0895
47428W        W90522  32.700  24.683   6.105 -0.1536 -0.3647  0.0329
47429W        W90523  32.636  24.556   4.830 -0.0036 -0.0010  0.1667
47430W        W90524  27.948  22.222   4.438 -0.0923 -0.2163  0.0675
47431W        W90525  29.896  23.941   7.089 -0.2436  0.0444  0.0797
47432W        W90526  28.863  24.355   8.350  0.0736  0.3786  0.0081
47433W        W90527  28.534  21.474   3.177 -0.1307  0.0010 -0.0655
47434W        W90528  33.896  26.238   4.946 -0.0255  0.1923 -0.2459
47435W        W90529  29.323  24.612   7.209 -0.4081 -0.0952  0.1512
47436W        W90530  33.605  23.638   5.547  0.0388  0.3805 -0.1655
47437W        W90531  30.014  23.377   5.387  0.1030  0.0949 -0.3070
47438W        W90532  31.759  23.735   5.779  0.1884  0.0409 -0.0133
47439W        W90533  31.959  24.534   3.256 -0.0227  0.2471 -0.0142
47440W        W90534  30.903  21.333   5.229 -0.3878 -0.0011 -0.5873
47441W        W90535  31.989  21.853   6.173  0.1773  0.1812  0.0344
47442W        W90536  30.379  24.075   5.419 -0.2942  0.1018 -0.0997
47443W        W90537  29.688  23.624   4.847 -0.0665 -0.0809  0.0576
47444W        W90538  33.264  24.245   6.325  0.0242  0.2199 -0.2542
47445W        W90539  33.861  23.748   3.530 -0.0742 -0.0134 -0.2825
47446W        W90540  30.049  25.181   5.902 -0.0719 -0.2634 -0.0536
47447W        W90541  28.995  22.645   6.412 -0.1847 -0.0922 -0.1575
47448W        W90542  31.589  24.399   7.347 -0.3519 -0.0080 -0.1696
47449W        W90543  28.474  25.149   4.296  0.0873 -0.4528 -0.2863
47450W        W90544  29.012  23.142   4.977 -0.1951 -0.0684  0.0705
47451W        W90545  30.843  25.201   5.105 -0.2313 -0.0295 -0.2569
47452W        W90546  29.082  23.202   8.399  0.1481  0.2125 -0.1830
47453W        W90547  30.162  23.152   6.434 -0.1244  0.1992 -0.2840
47454W        W90548  32.874  22.821   4.307 -0.1586  0.0583 -0.1924
47455W        W90549  29.500  20.967   7.076 -0.1358  0.0149  0.1705
47456W        W90550  31.184  22.564   4.423  0.1625  0.0582 -0.2261
47457W        W90551  29.117  24.131   5.143  0.2578  0.0476 -0.0556
47458W        W90552  30.875  24.006   5.610  0.1052  0.0923  0.2724
47459W        W90553  32.374  22.344   5.262  0.1473 -0.1142  0.0280
47460W        W90554  31.551  24.510   4.274  0.2101  0.1060  0.1335
47461W        W90555  28.763  22.482   5.568 -0.1097  0.0735  0.1925
47462W        W90556  29.079  22.874   5.408  0.2874  0.1412  0.1788
47463W        W90557  29.911  22.781   5.915  0.1686 -0.0801  0.0696
47464W        W90558  30.240  22.425   5.087  0.0368  0.0774  0.2364
47465W        W90559  31.935  22.319   7.685  0.0362  0.1530  0.0853
47466W        W90560  29.211  22.133   3.914 -0.2514  0.0659  0.0164
47467W        W90561  31.488  21.533   5.080 -0.0188  0.0831 -0.1511
47468W        W90562  30.967  23.373   5.219 -0.1118  0.1860 -0.3197
47469W        W90563  28.875  23.597   4.320 -0.0615  0.3358 -0.0179
47470W        W90564  33.112  22.538   8.530 -0.2871  0.0442 -0.3032
47471W        W90565  31.970  24.868   5.618 -0.0721 -0.0656  0.0597
47472W        W90566  33.156  26.747   7.432  0.1081  0.0225 -0.0010
47473W        W90567  32.306  25.075   4.904 -0.2004  0.1277 -0.0112
47474W        W90568  30.125  23.855   7.725  0.3007  0.3762  0.0452
47475W        W90569  29.680  22.637   4.119 -0.1324  0.0472  0.0849
47476W        W90570  30.964  24.915   5.530 -0.0470 -0.0179 -0.0622
47477W        W90571  31.378  24.504   5.706 -0.0342 -0.2360 -0.1842
47478W        W90572  28.970  22.040   5.653 -0.0430  0.1251 -0.2226
47479W        W90573  32.669  25.287   7.183  0.1260  0.0245  0.2636
47480W        W90574  31.170  23.848   5.152 -0.1304  0.0088  0.2088
47481W        W90575  29.466  23.491   6.429  0.3281 -0.3342  0.2315
47482W        W90576  31.586  22.173   5.847 -0.1646 -0.2071 -0.1386
47483W        W90577  32.823  24.099   6.619  0.1723 -0.1428 -0.2881
47484W        W90578  31.937  21.715   5.248 -0.0015 -0.2305 -0.0764
47485W        W90579  29.201  22.484   4.971 -0.0768 -0.0002  0.1177
47486W        W90580  31.785  25.387   6.415 -0.0310 -0.0524  0.0538
47487W        W90581  29.941  25.556   4.831  0.2111  0.2511  0.1056
47488W        W90582  29.185  23.893   5.572  0.1757 -0.4915 -0.0586
47489W        W90583  30.966  24.692   5.051 -0.0433 -0.0559  0.1063
47490W        W90584  31.204  21.065   4.400 -0.1799 -0.1506 -0.2347
47491W        W90585  30.242  23.716   8.164  0.0416  0.1568  0.0672
47492W        W90586  30.568  21.774   5.312  0.1457 -0.0359 -0.0279
47493W        W90587  28.826  23.611   5.357  0.0768  0.0272 -0.0239
47494W        W90588  31.158  24.190   6.972 -0.1344  0.1829 -0.1490
47495W        W90589  31.317  22.193   4.140 -0.1455  0.0328 -0.0409
47496W        W90590  32.573  22.907   3.214  0.0616  0.1921  0.0565
47497W        W90591  32.145  23.360   6.934 -0.0011  0.0952  0.2144
47498W        W90592  32.195  23.945   2.435  0.1937  0.1828  0.0842
47499W        W90593  30.584  23.598   4.398  0.1898  0.1472  0.1198
47500W        W90594  31.521  23.313   4.906  0.0890  0.1269 -0.2959
47501W        W90595  30.341  24.367   7.871 -0.0862  0.1351 -0.2672
47502W        W90596  32.207  23.896   6.012 -0.2669 -0.1275  0.1891
47503W        W90597  31.176  22.982   5.459  0.1384 -0.1281  0.2218
47504W        W90598  32.582  21.740   3.927 -0.3246  0.3379  0.0476
47505W        W90599  32.564  25.312   5.724 -0.0536 -0.0088 -0.0289
47506W        W90600  29.181  25.489   5.989 -0.0981  0.1001  0.0836
47507W        W90601  32.758  24.114   7.100 -0.1049  0.0700 -0.1603
47508W        W90602  33.004  23.471   5.488 -0.2420 -0.1873 -0.0443
47509W        W90603  29.878  21.825   6.227  0.2035  0.1552  0.1236
47510W        W90604  29.177  22.683   3.890 -0.1681  0.0593  0.1777
47511W        W90605  31.959  23.107   4.779  0.2089  0.1739 -0.0817
47512W        W90606  30.027  25.743   3.406 -0.2409  0.3147 -0.4565
47513W        W90607  33.551  21.768   5.190  0.2155  0.1213  0.2924
47514W        W90608  32.421  23.218   4.967  0.4687 -0.1909  0.2437
47515W        W90609  31.118  22.637   6.291 -0.3143  0.0964  0.1676
47516W        W90610  32.008  23.255   6.182  0.0949  0.2119 -0.1295
47517W        W90611  32.113  21.220   5.084 -0.0807 -0.1427 -0.1431
47518W        W90612  30.691  23.325   4.830  0.1781  0.0123  0.1102
47519W        W90613  31.004  23.576   4.153 -0.0332 -0.2264 -0.2614
47520W        W90614  30.043  22.404   6.250 -0.5857 -0.2899 -0.2202
47521W        W90615  29.853  23.456   6.776  0.1249  0.1488  0.3943
47522W        W90616  30.308  25.198   7.491  0.1126  0.1192  0.2984
47523W        W90617  32.028  24.476   7.087 -0.1229 -0.3518  0.1776
47524W        W90618  32.789  24.596   3.903 -0.1157 -0.1890 -0.1722
47525W        W90619  29.656  22.762   7.058 -0.2693 -0.0330 -0.2775
47526W        W90620  31.800  22.382   4.023 -0.0813 -0.0958 -0.1323
47527W        W90621  30.052  25.981   5.072  0.2076 -0.0485  0.2681
47528W        W90622  30.589  24.585   4.137  0.0863 -0.2346  0.1403
47529W        W90623  31.143  23.068   6.034  0.0469 -0.0790  0.1808
47530W        W90624  31.187  24.109   6.467  0.0437 -0.1629  0.0358
47531W        W90625  29.762  24.217   3.065  0.0556  0.0711 -0.1855
47532W        W90626  31.004  22.131   7.397  0.1519 -0.0689  0.1115
47533W        W90627  30.595  24.705   6.305 -0.0373 -0.0400 -0.1581
47534W        W90628  31.855  21.293   5.654 -0.1853 -0.2230 -0.2506
47535W        W90629  29.574  24.280   5.617  0.1574 -0.1359 -0.2687
47536W        W90630  31.046  23.064   3.923  0.1305  0.2569 -0.3079
47537W        W90631  28.264  23.789   5.370 -0.3395 -0.4228  0.1816
47538W        W90632  31.430  22.693   6.747 -0.1740 -0.1588 -0.0039
47539W        W90633  33.525  23.233   3.083  0.2804  0.3964  0.0034
47540W        W90634  29.895  23.778   6.308 -0.2898  0.1620 -0.2872
47541W        W90635  30.693  22.095   4.932  0.0180 -0.1754 -0.0678
47542W        W90636  29.133  25.001   5.409  0.0105  0.1214  0.2054
47543W        W90637  32.097  23.426   5.685  0.0475 -0.0414  0.0609
47544W        W90638  30.944  22.636   4.989  0.0805  0.1699  0.3169
47545W        W90639  31.714  24.946   7.147  0.0982  0.2688 -0.1592
47546W        W90640  31.247  23.100   8.831 -0.0366  0.2066 -0.2932
47547W        W90641  30.191  23.547   4.740  0.0485  0.3949 -0.0919
47548W        W90642  31.548  23.038   6.389 -0.0183 -0.2382 -0.3539
47549W        W90643  30.468  23.192   5.261 -0.2247  0.0010  0.4580
47550W        W90644  29.086  26.034   5.244 -0.2216  0.0269 -0.0930
47551W        W90645  32.232  25.225   6.574  0.1047 -0.2460 -0.1042
47552W        W90646  29.510  23.173   5.184  0.1588  0.0747  0.0492
47553W        W90647  29.611  24.110   5.141  0.1402  0.0774 -0.0256
47554W        W90648  28.108  22.433   9.131  0.0549  0.0500 -0.1268
47555W        W90649  31.351  23.224   7.417 -0.1964  0.0013  0.1443
47556W        W90650  30.087  22.570   4.645 -0.1441  0.0208  0.0884
47557W        W90651  30.913  22.592   5.872  0.1771 -0.0759 -0.2007
47558W        W90652  31.136  23.303   4.546 -0.0697 -0.0132 -0.2296
47559W        W90653  32.712  23.564   6.720  0.1214 -0.5577  0.0219
47560W        W90654  31.131  21.792   5.331  0.0367 -0.1516  0.0464
47561W        W90655  30.947  23.782   8.368 -0.0076 -0.4164 -0.0655
47562W        W90656  30.675  20.818   5.469 -0.1063 -0.0951 -0.1734
47563W        W90657  32.552  25.821   5.193 -0.0285  0.0940  0.3285
47564W        W90658  30.492  22.763   7.251  0.1171  0.1143 -0.2266
47565W        W90659  30.216  23.396   3.714 -0.0138  0.2352 -0.0145
47566W        W90660  28.394  24.068   6.668 -0.1108 -0.0338  0.0502
47567W        W90661  30.245  23.940   4.361  0.1640  0.0467  0.2371
47568W        W90662  31.703  23.008   5.399  0.1289  0.0109  0.1716
47569W        W90663  30.651  24.859   6.799 -0.2858  0.3037 -0.1496
47570W        W90664  29.927  24.674   4.868 -0.1136  0.1577  0.1514
47571W        W90665  30.113  24.565   6.178 -0.1444 -0.0918 -0.2587
47572W        W90666  31.303  22.663   3.794  0.0137  0.2509 -0.0641
47573W        W90667  32.530  23.400   3.418  0.2557 -0.2593 -0.2670
47574W        W90668  30.524  23.096   4.054  0.3050 -0.0470  0.3061
47575W        W90669  32.449  22.002   6.067  0.2711 -0.0964 -0.2511
47576W        W90670  32.997  23.362   4.526  0.2657  0.0743 -0.1564
47577W        W90671  31.776  21.761   7.621 -0.1366  0.1704 -0.1286
47578W        W90672  29.411  22.135   6.342 -0.2128  0.0052 -0.0432
47579W        W90673  32.631  22.793   4.730  0.0617 -0.2335 -0.0736
47580W        W90674  30.519  22.715   8.365 -0.2952 -0.1596  0.1520
47581W        W90675  31.394  24.747   8.241 -0.0813  0.1287  0.1164
47582W        W90676  29.951  22.768   8.423  0.0550  0.0098  0.0481
47583W        W90677  31.027  21.626   4.842 -0.0645 -0.0220 -0.0318
47584W        W90678  29.719  21.144   4.035 -0.0879  0.1420  0.0879
47585W        W90679  29.354  24.340   6.783  0.0979  0.2736 -0.0028
47586W        W90680  32.220  24.488   5.234 -0.0627  0.0376  0.1471
47587W        W90681  31.413  24.735   4.744 -0.2631  0.1471 -0.1950
47588W        W90682  32.066  21.977   4.517 -0.0810 -0.1542 -0.0980
47589W        W90683  28.553  24.019   6.179  0.1885 -0.0493 -0.0529
47590W        W90684  33.000  22.410   4.566  0.1970  0.2840 -0.2501
47591W        W90685  32.043  23.420   5.216 -0.2354 -0.1831 -0.5969
47592W        W90686  30.178  24.774   6.762  0.0340  0.2234 -0.2538
47593W        W90687  30.193  21.885   7.019 -0.2971 -0.0070  0.0215
47594W        W90688  31.325  24.367   5.123  0.1608  0.0404  0.1662
47595W        W90689  30.855  22.240   5.393  0.1905 -0.0453 -0.0265
47596W        W90690  31.213  22.261   6.921 -0.2449  0.1713  0.1838
47597W        W90691  31.850  22.500   7.164  0.3122  0.2175 -0.3294
47598W        W90692  30.716  23.900   6.971 -0.0586  0.0246  0.0157
47599W        W90693  28.347  22.071   8.318 -0.2583  0.1663  0.3085
47600W        W90694  31.880  25.608   7.984  0.0456  0.1456 -0.1271
47601W        W90695  33.197  23.592   3.280  0.0851 -0.2511 -0.0652
47602W        W90696  32.323  22.204   6.894 -0.1862 -0.4691 -0.1123
47603W        W90697  32.598  22.860   5.270  0.2444  0.0257  0.2172
47604W        W90698  32.359  24.214   3.967  0.3112 -0.0273 -0.0066
47605W        W90699  28.867  21.682   4.024  0.2267 -0.3036 -0.0799
47606W        W90700  31.630  24.266   7.823  0.2384 -0.0164 -0.1291
47607W        W90701  30.796  22.931   4.515 -0.0025 -0.0430 -0.1677
47608W        W90702  30.524  22.253   6.103 -0.1569  0.0826 -0.2943
47609W        W90703  30.306  24.189   4.923  0.1495  0.1197  0.0906
47610W        W90704  32.325  22.769   4.130 -0.2934  0.1103 -0.2558
47611W        W90705  30.042  23.110   4.963  0.0052 -0.1369 -0.3446
47612W        W90706  28.548  23.257   5.042  0.0607  0.2231  0.2980
47613W        W90707  30.533  25.666   7.594 -0.0876 -0.1602  0.3129
47614W        W90708  31.700  23.621   4.268  0.1681 -0.0999 -0.0748
47615W        W90709  32.358  22.268   3.223 -0.0420 -0.1034  0.1501
47616W        W90710  31.869  23.923   7.486 -0.4095 -0.1134  0.0440
47617W        W90711  31.223  23.645   6.562  0.0409  0.2198  0.2542
47618W        W90712  31.661  22.777   4.576 -0.1514 -0.1992 -0.1794
47619W        W90713  31.729  22.970   7.086 -0.0135 -0.1500 -0.0382
47620W        W90714  29.839  24.243   4.098 -0.0621 -0.1277  0.0551
47621W        W90715  30.180  21.482   5.509  0.1256 -0.0327 -0.2004
47622W        W90716  30.350  25.253   6.933  0.0876 -0.0758  0.0600
47623W        W90717  29.648  24.671   6.583  0.2869  0.0477  0.1338
47624W        W90718  30.116  23.688   5.745  0.1456  0.1108 -0.0351
47625W        W90719  32.048  22.129   5.618  0.0930 -0.0144  0.1733
47626W        W90720  31.616  23.215   5.822 -0.3182 -0.3364 -0.1299
47627W        W90721  32.067  22.512   4.479  0.1416  0.0749  0.0010
47628W        W90722  33.370  23.333   5.816  0.0074 -0.0576  0.1255
47629W        W90723  32.241  23.590   7.380 -0.1509  0.1909 -0.0371
47630W        W90724  29.579  24.383   6.176 -0.0593 -0.1836  0.0359
47631W        W90725  32.295  24.811   7.901 -0.0047 -0.1093 -0.1241
47632W        W90726  32.022  23.598   4.763  0.0504  0.2722  0.1368
47633W        W90727  29.521  25.200   5.667  0.3028  0.0888  0.4352
47634W        W90728  28.552  22.956   8.331 -0.1831  0.1933  0.1258
47635W        W90729  30.447  22.497   6.576 -0.1007  0.0624 -0.1092
47636W        W90730  32.240  22.130   4.077 -0.1611 -0.1305  0.0100
47637W        W90731  29.509  21.877   5.250 -0.1172 -0.1442 -0.1820
47638W        W90732  31.513  24.672   3.378 -0.4598  0.0384  0.0184
47639W        W90733  30.012  24.800   7.572  0.3426 -0.1821 -0.3347
47640W        W90734  28.290  22.211   6.678 -0.1758 -0.0292  0.1305
47641W        W90735  27.744  25.599   3.045  0.0390  0.0010  0.2821
47642W        W90736  30.897  24.273   6.107 -0.1266 -0.2653  0.0664
47643W        W90737  32.443  24.165   4.471  0.0575  0.0013 -0.0562
47644W        W90738  31.855  25.363   7.371  0.0638  0.0078 -0.1566
47645W        W90739  30.352  23.504   6.182  0.0644  0.0485  0.1279
47646W        W90740  28.796  24.876   4.607 -0.5097  0.1511 -0.1073
47647W        W90741  29.365  25.423   4.531  0.0547  0.3429 -0.1725
47648W        W90742  31.421  25.062   6.249  0.3587 -0.0553 -0.2084
47649W        W90743  30.561  25.532   6.225 -0.1692  0.2374 -0.2859
47650W        W90744  31.182  24.088   7.564 -0.1712 -0.3110  0.0381
47651W        W90745  33.487  22.146   3.819  0.0034 -0.0234  0.2377
47652W        W90746  32.861  21.857   4.560  0.1372  0.0478 -0.2184
47653W        W90747  33.521  22.200   4.377  0.0755 -0.0239 -0.1210
47654W        W90748  30.654  24.766   7.633  0.0081  0.2370 -0.1360
47655W        W90749  28.906  23.201   6.999 -0.0760 -0.1085  0.1131
47656W        W90750  29.679  22.071   4.382 -0.0766  0.0208 -0.0773
47657W        W90751  31.006  23.569   7.524  0.0144  0.0181 -0.0859
47658W        W90752  32.925  20.841   7.099 -0.0772 -0.2511 -0.1127
47659W        W90753  28.757  26.137   7.073 -0.0532 -0.0374  0.0482
47660W        W90754  31.075  25.138   4.703  0.0627 -0.0196 -0.1006
47661W        W90755  28.306  22.862   4.005 -0.0648 -0.1628 -0.3483
47662W        W90756  29.095  23.666   6.169 -0.0694 -0.0923  0.2763
47663W        W90757  33.752  22.194   4.802 -0.2247  0.0954  0.0273
47664W        W90758  30.477  24.679   5.212 -0.1065  0.4172 -0.1008
47665W        W90759  31.495  22.251   6.368  0.1470 -0.0069 -0.2051
47666W        W90760  31.467  24.982   5.621  0.0610 -0.3280  0.0493
47667W        W90761  31.069  24.766   5.986  0.0247 -0.3611 -0.5806
47668W        W90762  31.442  24.032   5.499 -0.2566  0.0769 -0.1305
47669W        W90763  28.570  22.214   5.960  0.0433 -0.0871  0.1050
47670W        W90764  34.357  22.376   5.605 -0.0100 -0.0424  0.0439
47671W        W90765  30.199  23.067   7.537  0.2588  0.0741  0.1960
47672W        W90766  32.817  20.445   6.748 -0.0465  0.1339  0.0912
47673W        W90767  28.650  23.114   5.502 -0.0524 -0.1726 -0.0096
47674W        W90768  32.581  22.001   5.586  0.2901  0.1790  0.0897
47675W        W90769  32.026  23.697   6.577 -0.0443 -0.2004 -0.1930
47676W        W90770  28.430  22.602   7.060  0.0054 -0.0057 -0.0854
47677W        W90771  31.150  21.829   3.318 -0.0510  0.2027  0.2061
47678W        W90772  33.271  24.656   5.950  0.0609  0.0712  0.0581
47679W        W90773  32.690  22.463   4.026 -0.0533  0.2695 -0.0355
47680W        W90774  31.105  24.976   7.929  0.0285  0.1159 -0.1072
47681W        W90775  29.576  22.731   5.285  0.2855 -0.1740  0.2322
47682W        W90776  31.385  23.494   3.856 -0.0285 -0.3181  0.0428
47683W        W90777  29.522  23.882   5.966 -0.0747  0.2876  0.1337
47684W        W90778  29.756  24.125   8.934 -0.0013  0.3013 -0.0786
47685W        W90779  31.068  24.312   8.436  0.0904  0.2293  0.1252
47686W        W90780  30.097  22.860   5.443  0.2773 -0.0672 -0.0881
47687W        W90781  29.832  23.809   3.369  0.0409  0.0355 -0.1721
47688W        W90782  32.679  23.788   5.733 -0.1508  0.3693  0.3625
47689W        W90783  30.523  25.865   4.820 -0.0312 -0.0486  0.1198
47690W        W90784  30.874  23.510   6.180  0.2243 -0.3611 -0.0933
47691W        W90785  33.144  26.775   6.005 -0.0811  0.0068  0.0787
47692W        W90786  30.318  23.852   7.284 -0.0086 -0.0599  0.1767
47693W        W90787  32.506  25.946   7.284 -0.2629  0.1020 -0.0487
47694W        W90788  32.987  24.676   6.521 -0.0529  0.2052 -0.3742
47695W        W90789  30.618  22.725   5.420 -0.4059  0.1205  0.1760
47696W        W90790  29.683  23.136   5.661 -0.4101 -0.3576  0.1367
47697W        W90791  29.471  24.939   4.698 -0.0611  0.0610  0.2903
47698W        W90792  32.924  22.313   5.560  0.0189  0.1167 -0.2773
47699W        W90793  31.810  21.337   4.742  0.0848 -0.0852  0.3484
47700W        W90794  30.419  25.602   5.211  0.0530 -0.2921  0.0382
47701W        W90795  32.746  21.366   6.828 -0.3322  0.2063  0.1631
47702W        W90796  31.813  25.473   6.894  0.3221 -0.1171  0.0370
47703W        W90797  30.222  25.129   7.998  0.0023 -0.0129 -0.0230
47704W        W90798  30.606  23.736   5.096  0.2075  0.2063 -0.4134
47705W        W90799  30.531  23.038   6.766  0.0983 -0.1400 -0.0802
47706W        W90800  30.011  23.842   5.132  0.1598  0.0518 -0.0820
47707W        W90801  30.362  26.384   5.025 -0.4053  0.1281  0.0062
47708W        W90802  31.508  23.480   5.382  0.4644 -0.0367  0.0795
47709W        W90803  30.277  23.006   4.484 -0.1301 -0.2073 -0.0767
47710W        W90804  32.540  23.632   6.251 -0.1441 -0.0877  0.1751
47711W        W90805  29.271  22.436   4.371 -0.0955  0.0792  0.1421
47712W        W90806  31.973  20.753   4.900 -0.0039 -0.0309 -0.1011
47713W        W90807  31.580  21.404   3.855 -0.1505  0.1996 -0.1318
47714W        W90808  29.807  24.504   7.101 -0.0367 -0.1258 -0.1427
47715W        W90809  31.122  24.376   4.641 -0.0327 -0.0629  0.0053
47716W        W90810  29.007  23.354   3.596 -0.1558  0.1151  0.0406
47717W        W90811  28.922  24.197   7.142 -0.2182 -0.0215  0.1438
47718W        W90812  31.969  21.957   7.224 -0.0128 -0.1559 -0.1446
47719W        W90813  29.386  23.414   7.120 -0.1727  0.2131  0.0083
47720W        W90814  31.174  24.652   6.506  0.0298 -0.0632 -0.1715
47721W        W90815  28.608  22.212   5.106 -0.2211 -0.0938 -0.2945
47722W        W90816  33.203  25.784   3.531 -0.1015  0.2586  0.1253
47723W        W90817  28.446  21.673   5.878  0.0649 -0.0235  0.1706
47724W        W90818  29.228  23.641   5.105  0.0829 -0.2061  0.0265
47725W        W90819  31.827  23.871   5.148 -0.2325  0.1039  0.2724
47726W        W90820  32.454  24.864   5.493 -0.4658  0.0705 -0.0471
47727W        W90821  28.659  22.752   5.126 -0.0732  0.0029 -0.1377
47728W        W90822  33.543  25.754   6.004 -0.1592 -0.1681 -0.2168
47729W        W90823  29.485  23.108   4.034  0.1942  0.3961 -0.2922
47730W        W90824  29.972  23.485   7.339  0.0319  0.3635 -0.0873
47731W        W90825  31.686  21.549   7.164 -0.1062  0.1318  0.0198
47732W        W90826  27.878  21.046   3.937 -0.2769 -0.0737  0.1612
47733W        W90827  30.406  22.745   5.913 -0.0082 -0.2887 -0.1170
47734W        W90828  32.525  23.189   4.468  0.1618  0.1673 -0.2416
47735W        W90829  33.152  25.168   5.301  0.1763 -0.4751  0.0042
47736W        W90830  30.799  24.392   6.681  0.1491 -0.1710  0.0951
47737W        W90831  30.855  25.969   7.852 -0.2164 -0.0193 -0.1469
47738W        W90832  28.845  21.930   7.504 -0.1079  0.1750 -0.0643
47739W        W90833  32.388  23.723   3.747  0.1515 -0.0273  0.3040
47740W        W90834  32.204  23.981   7.087 -0.1143 -0.0447 -0.2207
47741W        W90835  33.632  23.661   5.018 -0.0115 -0.0612  0.0835
47742W        W90836  31.878  22.341   4.938  0.2022 -0.1412  0.1374
47743W        W90837  32.282  23.661   4.315  0.1067  0.1320 -0.4096
47744W        W90838  29.752  21.454   5.927 -0.1195  0.1168 -0.0242
47745W        W90839  28.327  25.067   7.837  0.1105 -0.3854 -0.2162
47746W        W90840  33.063  23.746   6.336 -0.0137  0.1203  0.2154
47747W        W90841  30.329  22.323   5.656  0.0405 -0.3629  0.2814
47748W        W90842  31.734  21.893   4.081  0.1903 -0.4424  0.2531
47749W        W90843  32.520  24.848   4.415  0.3097 -0.1744  0.0099
47750W        W90844  30.138  24.299   7.429  0.1591  0.2954  0.2026
47751W        W90845  30.929  21.594   4.332 -0.2721  0.0899 -0.0165
47752W        W90846  31.665  23.370   6.795  0.0800  0.1770  0.1418
47753W        W90847  32.601  24.471   6.734  0.0811 -0.0270  0.1384
47754W        W90848  31.004  23.212   7.083 -0.0117 -0.0413 -0.2220
47755W        W90849  29.996  24.167   5.886 -0.0338  0.2989  0.0599
47756W        W90850  33.794  22.597   4.050  0.0225 -0.0152 -0.1265
47757W        W90851  31.029  25.419   7.700  0.0620  0.1505  0.1994
47758W        W90852  31.359  25.379   8.249  0.1888 -0.1297  0.0508
47759W        W90853  31.133  25.278   5.839 -0.0513 -0.2361 -0.2248
47760W        W90854  32.872  24.525   5.658 -0.1263 -0.0782 -0.2602
47761W        W90855  28.035  21.883   5.814  0.1632  0.0659  0.0840
47762W        W90856  29.493  24.627   5.268  0.2560 -0.0288 -0.2817
47763W        W90857  30.675  24.468   5.594 -0.1086  0.2698 -0.0317
47764W        W90858  31.803  22.508   5.490 -0.0127  0.2447  0.4298
47765W        W90859  29.431  23.068   6.095  0.2074 -0.1728 -0.1054
47766W        W90860  30.802  22.112   4.145 -0.1332  0.0940  0.0247
47767W        W90861  31.778  24.038   6.349  0.0425 -0.3693 -0.0940
47768W        W90862  31.473  22.677   5.128 -0.1142  0.2529  0.1040
47769W        W90863  31.996  23.747   9.502 -0.1117  0.0443  0.0254
47770W        W90864  30.805  23.052   7.501  0.2206  0.0069 -0.0678
47771W        W90865  31.505  22.169   7.311  0.1292  0.2086  0.0257
47772W        W90866  33.204  22.415   9.451  0.2568 -0.4160 -0.3763
47773W        W90867  29.415  22.400   9.045  0.0780  0.0385 -0.1209
47774W        W90868  32.111  25.128   8.769 -0.1322 -0.0746 -0.0309
47775W        W90869  32.993  24.171   9.594 -0.0919 -0.0246 -0.1560
47776W        W90870  31.813  23.319   8.802  0.1883  0.2767  0.0135
47777W        W90871  31.579  23.491   6.207 -0.1669  0.1430  0.1364
47778W        W90872  29.908  22.349   8.985  0.1244  0.3403 -0.2678
47779W        W90873  30.260  21.653   7.528 -0.1589  0.3205  0.0421
47780W        W90874  27.388  21.178  10.422  0.1876  0.1942  0.2262
47781W        W90875  32.323  23.337   9.687  0.2930 -0.0239  0.0665
47782W        W90876  29.466  22.689   8.171  0.3873 -0.0037 -0.3425
47783W        W90877  28.098  23.616   9.556 -0.1059  0.3186  0.0994
47784W        W90878  30.948  22.563   8.132  0.3351 -0.2202  0.1994
47785W        W90879  32.103  24.602   9.156  0.0194 -0.1101  0.3141
47786W        W90880  29.795  22.167  12.247  0.0615  0.0566  0.1180
47787W        W90881  31.508  24.545   8.943  0.3256 -0.2069 -0.0074
47788W        W90882  29.957  23.404   7.826 -0.0652  0.1497 -0.0224
47789W        W90883  29.296  22.998   9.104  0.4195 -0.2662 -0.1105
47790W        W90884  31.291  23.616  10.044  0.2564  0.3035  0.0867
47791W        W90885  32.267  22.022   8.755  0.1637 -0.2948 -0.0557
47792W        W90886  31.820  23.925   9.997 -0.1297  0.1445  0.1622
47793W        W90887  30.913  24.887   9.548 -0.4299  0.2999 -0.1898
47794W        W90888  30.421  22.971   9.992  0.0331 -0.0280  0.1683
47795W        W90889  28.901  26.306  10.564 -0.1922  0.0524  0.2763
47796W        W90890  29.289  26.816   8.142  0.0427 -0.0768  0.3120
47797W        W90891  30.830  24.559   9.115  0.2933  0.0584  0.0395
47798W        W90892  32.602  23.916   8.305 -0.2456 -0.0076 -0.1899
47799W        W90893  29.805  24.285   7.933 -0.1687 -0.1363  0.0419
47800W        W90894  28.614  23.550   9.654 -0.0760  0.0683 -0.1678
47801W        W90895  32.695  23.733   8.808  0.2601  0.0138  0.0146
47802W        W90896  30.504  24.529   9.490 -0.1529  0.1046 -0.0842
47803W        W90897  30.722  23.421   9.388 -0.2538 -0.0289  0.1319
47804W        W90898  30.305  24.796   8.907 -0.3914 -0.1614 -0.0025
47805W        W90899  29.912  23.606   8.916 -0.1337 -0.4274 -0.4623
47806W        W90900  32.625  23.241   7.713  0.0034 -0.2338  0.1114
47807W        W90901  30.913  22.675   6.769 -0.2456  0.1280  0.3906
47808W        W90902  33.316  22.907   8.150  0.2484  0.0756 -0.0156
47809W        W90903  31.191  22.250   8.438 -0.0139  0.1162  0.1052
47810W        W90904  31.293  24.622   9.389  0.1305 -0.0508  0.0335
47811W        W90905  28.557  23.076   9.360  0.0597 -0.1392 -0.3444
47812W        W90906  30.694  22.989   8.928 -0.1210  0.0662  0.2198
47813W        W90907  32.305  22.655   9.133 -0.0935  0.1169  0.0120
47814W        W90908  29.726  25.349  10.225  0.0304 -0.0437  0.1164
47815W        W90909  28.127  24.957   9.708  0.1060  0.0203 -0.0350
47816W        W90910  33.590  25.574   9.933 -0.0482 -0.0791  0.1241
47817W        W90911  34.103  25.361   9.941 -0.0057 -0.0787  0.2298
47818W        W90912  31.792  25.116   8.130 -0.0046  0.0307  0.0078
47819W        W90913  30.448  22.577   8.919  0.1887 -0.3567  0.0625
47820W        W90914  29.096  22.332   7.763  0.2915 -0.2558  0.3031
47821W        W90915  31.827  22.539   8.506 -0.1370 -0.0401 -0.0471
47822W        W90916  30.962  24.348   9.698  0.0151  0.1211  0.0716
47823W        W90917  31.151  24.115   9.263 -0.2356  0.1352 -0.3758
47824W        W90918  32.114  24.909   7.486 -0.1435 -0.0027 -0.1086
47825W        W90919  33.745  18.706   9.899  0.0724 -0.2672 -0.3093
47826W        W90920  31.127  22.289   9.939 -0.2211 -0.0198 -0.0274
47827W        W90921  31.080  24.386   7.947  0.1189 -0.1718  0.1632
47828W        W90922  31.202  22.724   7.209 -0.2139 -0.2688  0.1276
47829W        W90923  32.619  22.943   9.459 -0.0117  0.1415  0.0675
47830W        W90924  32.276  23.069   7.299  0.0280  0.1379 -0.0518
47831W        W90925  30.400  25.721   9.898 -0.0247 -0.0608 -0.1315
47832W        W90926  30.362  24.619   8.288  0.0476 -0.0047 -0.0156
47833W        W90927  29.696  24.983   9.366 -0.2618 -0.1916 -0.3346
47834W        W90928  28.806  25.819   9.234  0.1102 -0.0815  0.4071
47835W        W90929  29.052  24.405   9.599 -0.0762 -0.0798  0.0602
47836W        W90930  29.561  24.486   9.600 -0.0304  0.0720  0.1828
47837W        W90931  32.732  22.647   7.206 -0.0028 -0.1646 -0.0410
47838W        W90932  32.806  20.616   8.992 -0.0300 -0.0981 -0.0260
47839W        W90933  28.612  22.717   9.010  0.2522 -0.3898  0.3229
47840W        W90934  32.251  25.110   8.318  0.1488  0.2914  0.1974
47841W        W90935  31.769  23.424   7.258 -0.2287 -0.0066  0.1255
47842W        W90936  32.487  23.376   8.469 -0.0006 -0.1465  0.1031
47843W        W90937  30.142  22.488  10.028  0.0364 -0.0117 -0.2308
47844W        W90938  29.623  22.344   8.585  0.1485 -0.1717 -0.0221
47845W        W90939  28.314  21.595   9.528  0.0304  0.2061 -0.2018
47846W        W90940  28.773  20.689   7.639  0.0472  0.0582  0.1790
47847W        W90941  32.919  23.865  10.219 -0.1818  0.2596 -0.1340
47848W        W90942  29.599  23.087   7.448 -0.3862  0.3081  0.1475
47849W        W90943  29.344  24.090   7.993 -0.2020  0.2945 -0.3716
47850W        W90944  31.909  24.670   8.645  0.2851  0.1823 -0.0417
47851W        W90945   0.127  25.483   9.358  0.3522  0.4769 -0.3269
47852W        W90946  32.941  24.773   8.538  0.2026 -0.2394  0.3428
47853W        W90947  29.805  23.439   9.746 -0.3280 -0.0486 -0.2032
47854W        W90948  29.975  21.926   7.966 -0.1575  0.5142 -0.0934
47855W        W90949  29.189  24.284   8.716 -0.2249  0.1463  0.2327
47856W        W90950  30.194  23.878  10.199  0.0412  0.0920  0.4158
47857W        W90951  29.991  21.406   9.248  0.0658  0.1023 -0.2709
47858W        W90952  33.007  26.003   9.334 -0.1425 -0.1635 -0.1269
47859W        W90953  31.564  23.080   8.443 -0.1363 -0.2211  0.0490
47860W        W90954  34.605  24.360  10.141 -0.0446 -0.0517 -0.2699
47861W        W90955  32.341  22.532   8.369 -0.2034  0.0594  0.0315
47862W        W90956  29.726  22.236   7.113 -0.2258  0.1984 -0.0868
47863W        W90957  30.397  21.928   8.913  0.1327 -0.1448  0.1221
47864W        W90958  28.990  24.305   7.698  0.0649  0.0994  0.2582
47865W        W90959  29.491  23.782   8.591 -0.3341  0.1187 -0.0839
47866W        W90960  31.231  23.350   9.613  0.2189  0.2965 -0.0368
47867W        W90961  32.608  21.641   8.691  0.4504 -0.0978 -0.3491
47868W        W90962  28.611  23.501   8.443 -0.0697 -0.1482 -0.0744
47869W        W90963  32.098  21.946   8.117  0.3312  0.2248  0.2239
47870W        W90964  32.787  22.569   8.119 -0.0608  0.1340  0.1951
47871W        W90965  32.551  24.406   9.503 -0.1698 -0.0175 -0.2323
47872W        W90966  31.610  23.184   7.871 -0.1300 -0.3610  0.0497
47873W        W90967  31.067  22.107   6.017  0.0356 -0.0224  0.0252
47874W        W90968  31.339  23.972   8.753 -0.2148 -0.0803 -0.0981
47875W        W90969  30.622  22.461   9.845  0.4111 -0.1226 -0.0372
47876W        W90970  30.910  22.161   6.510  0.1115  0.0443 -0.2760
47877W        W90971  32.771  25.246   8.528 -0.0686  0.3009  0.0634
47878W        W90972  30.302  24.258   8.929 -0.0865  0.0923  0.6156
47879W        W90973  32.380  24.657   8.444  0.1169  0.1971  0.1208
47880W        W90974  28.505  20.800  10.169 -0.2900  0.0275 -0.1869
47881W        W90975  30.847  24.054   8.793  0.1371 -0.0428 -0.1571
47882W        W90976  31.658  21.987   6.799 -0.2493 -0.1108  0.2215
47883W        W90977  29.498  25.416   8.560 -0.1597 -0.0669 -0.1873
47884W        W90978  31.723  20.832  10.021  0.1315 -0.0381  0.0259
47885W        W90979  30.227  23.303  10.317 -0.0996 -0.1736 -0.1617
47886W        W90980  32.438  24.046   7.550  0.2104 -0.1688 -0.1115
47887W        W90981  31.065  23.013   9.285  0.1401  0.2123 -0.1058
47888W        W90982  30.811  22.541   7.628  0.1589  0.1684  0.4390
47889W        W90983  29.587  22.242   9.525  0.2083 -0.2731  0.1946
47890W        W90984  29.698  24.626  10.404 -0.1319 -0.1791  0.0716
47891W        W90985  32.601  22.926   8.594 -0.0299  0.1823  0.2041
47892W        W90986  30.673  21.938   6.859  0.0543 -0.0602  0.1794
47893W        W90987  30.018  24.092   8.437 -0.1403 -0.5359 -0.1855
47894W        W90988  30.645  24.070   9.277  0.2508  0.1535 -0.0452
47895W        W90989  30.314  21.861   8.436  0.1503  0.1278 -0.0112
47896W        W90990  30.117  24.906  10.159  0.0406  0.0449  0.3018
47897W        W90991  31.285  25.274   7.234 -0.0686  0.0218 -0.1107
47898W        W90992  29.352  23.089   9.604  0.0722  0.1069 -0.0620
47899W        W90993  30.886  24.976   7.195 -0.1606 -0.0355  0.2577
47900W        W90994  32.630  22.354   9.359 -0.0114  0.2357  0.2087
47901W        W90995  28.251  26.172   9.936  0.1046  0.0067 -0.0663
47902W        W90996  30.242  23.071   8.101 -0.0385  0.2258 -0.1138
47903W        W90997  28.409  22.124   8.839 -0.0715 -0.0636 -0.2425
47904W        W90998  30.232  23.239   9.563  0.4271  0.0802 -0.0239
47905W        W90999  33.277  23.805   6.810 -0.1199  0.0033 -0.0476
47906W        W91000  29.343  23.604   9.102  0.2065  0.1948 -0.0926
47907W        W91001  31.395  22.592   8.757  0.1366  0.0292  0.3485
47908W        W91002  29.047  26.843   9.119 -0.1428  0.1520  0.0872
47909W        W91003  31.338  22.420   7.751  0.0168 -0.1175 -0.1474
47910W        W91004  29.073  21.891   7.977  0.3237 -0.1312 -0.0756
47911W        W91005  32.063  22.369   9.993  0.2504 -0.0980 -0.0601
47912W        W91006  30.600  22.811   9.456  0.2647 -0.2311  0.2656
47913W        W91007  29.763  24.736   8.109 -0.1281 -0.1019 -0.2515
47914W        W91008  32.587  27.491   9.646 -0.0553  0.4097 -0.0214
47915W        W91009  29.471  22.119   8.156 -0.0575  0.2360 -0.1287
47916W        W91010  29.617  23.701   7.575 -0.0678 -0.1237  0.2438
47917W        W91011  30.858  22.748  10.164 -0.1571  0.1116 -0.0766
47918W        W91012  29.010  22.728   9.377 -0.1820 -0.0682 -0.3286
47919W        W91013  30.145  22.312   8.536  0.1072 -0.2946  0.1310
47920W        W91014  30.017  22.159   7.527 -0.0016 -0.1744 -0.0353
47921W        W91015  31.723  24.240   9.269  0.0113 -0.0263  0.3293
47922W        W91016  30.008  20.959   9.562 -0.1149 -0.5154 -0.1630
47923W        W91017  31.911  22.328   8.962 -0.3838  0.0627  0.1216
47924W        W91018  32.943  25.058   8.988 -0.1830  0.2212  0.1544
47925W        W91019  30.662  24.503   8.684  0.0658  0.2259 -0.0787
47926W        W91020  30.194  23.732   9.392 -0.0450  0.3680 -0.0865
47927W        W91021  30.642  23.399   8.293 -0.0542 -0.0125  0.2264
47928W        W91022  29.979  24.512   9.262 -0.0978  0.0908  0.0752
47929W        W91023  29.787  25.807   9.915 -0.0787  0.1574  0.0924
47930W        W91024  29.206  23.590   7.975  0.0946 -0.2804  0.2481
47931W        W91025  29.442  24.639   9.061  0.0903  0.0842  0.0079
47932W        W91026  32.581  21.730   7.991  0.0740 -0.0352 -0.1599
47933W        W91027  32.196  24.048   9.191  0.0385  0.1355 -0.2061
47934W        W91028  30.228  21.534   9.859  0.1411  0.2491  0.1055
47935W        W91029  32.467  24.819   8.904  0.0206  0.3050  0.0428
47936W        W91030  30.972  23.289  10.316  0.2153  0.0706  0.0490
47937W        W91031  32.858  23.558   8.047 -0.1043 -0.1115  0.0244
47938W        W91032  32.355  23.044   8.153  0.2016  0.1336 -0.0729
47939W        W91033  29.494  21.954   7.644  0.0332 -0.0092 -0.1954
47940W        W91034  30.049  24.124   9.614 -0.3080 -0.2440  0.0398
47941W        W91035  33.648  23.667   9.157  0.1098  0.3034  0.0757
47942W        W91036  30.895  23.467   8.763 -0.0304 -0.1194 -0.1975
47943W        W91037  31.924  23.400   8.274 -0.3420  0.0010 -0.1234
47944W        W91038  30.641  24.715   9.934  0.0402  0.0792  0.0004
47945W        W91039  31.794  23.849   8.124  0.0940 -0.1317  0.1881
47946W        W91040  31.072  23.048   8.341 -0.1125  0.2776  0.0533
47947W        W91041  29.287  24.008   9.921 -0.1639 -0.1067  0.0728
47948W        W91042  31.363  23.084  10.048 -0.3473  0.0459 -0.0137
47949W        W91043  31.966  22.724   8.038  0.4032  0.0785  0.0701
47950W        W91044  31.080  25.458   9.401 -0.3424 -0.3039  0.0268
47951W        W91045  31.985  22.950   6.598 -0.3536  0.0743  0.0439
47952W        W91046  31.771  23.410  10.277 -0.0622 -0.0740  0.3180
47953W        W91047  33.363  21.940   9.281 -0.0643 -0.1401  0.0736
47954W        W91048  30.515  23.394   7.230 -0.2180  0.0624 -0.0351
47955W        W91049  29.879  21.834   8.960 -0.2273 -0.2716  0.2702
47956W        W91050  29.825  22.244   6.643  0.1367 -0.1503 -0.0028
47957W        W91051  30.847  25.872   9.721  0.2293  0.0164 -0.3614
47958W        W91052  32.540  23.499   9.260  0.4185 -0.0324 -0.1201
47959W        W91053  32.637  22.411   8.758  0.0086 -0.1811  0.1033
47960W        W91054  30.296  22.535   7.826  0.0228  0.0382  0.0028
47961W        W91055  28.770  22.248   7.062 -0.0268 -0.0040  0.0696
47962W        W91056  30.649  24.101   7.538 -0.5460  0.1684 -0.1803
47963W        W91057  30.864  23.119   9.857 -0.0850 -0.3686  0.2188
47964W        W91058  30.834  21.658   8.640 -0.2013  0.1774 -0.3642
47965W        W91059  28.446  24.834   8.945  0.1308  0.0715  0.0673
47966W        W91060  31.121  23.407   8.014 -0.3537  0.1615 -0.0753
47967W        W91061  30.703  25.168   9.024  0.1818 -0.0111 -0.0895
47968W        W91062  32.146  23.812   8.401  0.1392  0.1262  0.1567
47969W        W91063  32.198  22.847   9.732  0.0786 -0.5620  0.2900
47970W        W91064  32.767  23.613   9.738  0.4227 -0.0985 -0.0017
47971W        W91065  31.747  22.914   9.545  0.2557  0.3665  0.1404
47972W        W91066  30.518  24.771  10.486 -0.1631  0.0258  0.1218
47973W        W91067  33.720  24.127   9.087 -0.1551 -0.3815 -0.0262
47974W        W91068  29.387  24.952  10.529  0.3422 -0.2752  0.2170
47975W        W91069  31.565  23.245   9.231 -0.0447 -0.1709  0.0379
47976W        W91070  29.052  21.568   8.913  0.1441 -0.0361  0.2264
47977W        W91071  31.108  24.768   8.676 -0.0858 -0.0299  0.1196
47978W        W91072  29.033  25.807  10.297 -0.1541 -0.0025  0.0608
47979W        W91073  29.092  25.709   8.735  0.1121  0.2594  0.2236
47980W        W91074  31.911  24.543   8.194 -0.0650 -0.2190 -0.0035
47981W        W91075  30.533  24.130   8.332 -0.0721 -0.1549 -0.0878
47982W        W91076  28.849  26.169   9.998  0.1521  0.0305 -0.0676
47983W        W91077  30.469  23.486   7.756 -0.2207 -0.0082  0.0535
47984W        W91078  28.963  23.862   8.919 -0.2564 -0.0061 -0.2910
47985W        W91079  28.382  24.593   7.992 -0.0460 -0.2017  0.2040
47986W        W91080  31.370  23.514   8.475 -0.0714 -0.2622 -0.2414
47987W        W91081  29.828  25.041   8.845 -0.2483  0.0891  0.0198
47988W        W91082  32.921  21.499   8.312 -0.2349  0.0522 -0.0922
47989W        W91083  33.795  23.077   9.823 -0.2251  0.0416 -0.0968
47990W        W91084  32.987  22.023   8.091 -0.0251 -0.1207  0.0184
47991W        W91085  29.622  22.816   8.819  0.1273 -0.1828 -0.0691
47992W        W91086  30.249  22.379   7.023 -0.1032  0.0543 -0.0587
47993W        W91087  31.470  25.260   7.686 -0.0695  0.0289  0.3012
47994W        W91088  30.183  22.538   9.491  0.0002 -0.0578  0.0871
47995W        W91089  32.070  22.981   8.544  0.1889  0.2432  0.0841
47996W        W91090  31.743  21.636   9.560  0.1256  0.0871 -0.0571
47997W        W91091  30.811  23.831   7.922 -0.1222  0.0902  0.0837
47998W        W91092  32.043  22.320   9.456 -0.2487 -0.0993 -0.0428
47999W        W91093  30.072  25.484   8.334 -0.1581 -0.0696  0.0908
48000W        W91094  31.384  23.845   9.575  0.1508 -0.0073 -0.1045
48001W        W91095  29.629  23.739  10.169 -0.0527  0.0076 -0.0295
48002W        W91096  27.498  21.840   8.881  0.0817 -0.2446 -0.1725
48003W        W91097  33.337  22.992   9.501  0.0064  0.3633 -0.1102
48004W        W91098  28.470  26.471  10.330  0.0993  0.5239  0.1201
48005W        W91099  31.157  24.102  10.126 -0.0461  0.0164 -0.0552
48006W        W91100  33.004  19.856   9.685  0.2146  0.1658  0.1240
48007W        W91101  28.789  24.131   9.996  0.2152 -0.2059  0.0367
48008W        W91102  28.476  19.968   9.769 -0.1004  0.1506  0.1185
48009W        W91103  30.487  22.069   7.376 -0.1472 -0.1331  0.0300
48010W        W91104  31.648  21.232   7.717 -0.0364 -0.1303 -0.2690
48011W        W91105  29.767  23.298   9.284  0.1649  0.1814  0.0028
48012W        W91106  31.012  22.112   7.998 -0.3486  0.1218  0.1651
48013W        W91107  30.405  23.658   8.645  0.1384 -0.1977  0.1501
48014W        W91108  29.708  24.257  10.017 -0.0410  0.0005  0.1947
48015W        W91109  29.686  22.768   9.337 -0.0411 -0.0698  0.1951
48016W        W91110  33.124  25.145   7.371  0.0460  0.3817 -0.1574
48017W        W91111  31.474  22.554   9.364 -0.0929  0.1030 -0.0425
48018W        W91112  31.529  26.865   8.714 -0.1692 -0.2438 -0.0287
48019W        W91113  32.483  24.106  10.310 -0.0771 -0.1857  0.1463
48020W        W91114  32.855  25.941  10.235  0.0098 -0.2563  0.1304
48021W        W91115  29.338  24.168   9.232 -0.1268 -0.1912  0.0254
48022W        W91116  31.217  23.639   9.137 -0.3303 -0.3138 -0.2454
48023W        W91117  31.688  23.783   9.107  0.1246 -0.2805  0.3441
48024W        W91118  30.021  22.646   7.354  0.3126 -0.0016 -0.3642
48025W        W91119  29.940  23.409   8.436 -0.1278  0.1503  0.2746
48026W        W91120  29.580  24.351   8.388 -0.1428 -0.0072  0.0331
48027W        W91121  31.570  24.318   9.757 -0.1267 -0.3355 -0.2223
48028W        W91122  29.952  26.286   7.695 -0.2605 -0.0476  0.0851
48029W        W91123  32.831  27.819   8.836  0.2499  0.0948 -0.0647
48030W        W91124  29.798  21.750   7.290 -0.2027  0.0383 -0.2971
48031W        W91125  31.312  23.957   8.129 -0.2178 -0.1129  0.2917
48032W        W91126  30.552  25.524   8.672  0.2738  0.2196 -0.4594
48033W        W91127  33.032  23.820   8.466 -0.0043  0.2326 -0.3111
48034W        W91128  30.705  22.967   7.976 -0.1122  0.0260  0.0444
48035W        W91129  33.101  25.693   9.776  0.1414 -0.0398 -0.0699
48036W        W91130  29.168  22.639   8.656 -0.1348  0.1195  0.1784
48037W        W91131  32.922  22.139   9.051 -0.0979  0.2506  0.4436
48038W        W91132  31.177  22.916   7.811 -0.1796 -0.0827  0.0665
48039W        W91133  30.488  24.193   9.842 -0.4053 -0.0041 -0.1215
48040W        W91134  28.222  23.257   8.693  0.3021 -0.0514 -0.3240
48041W        W91135  29.743  23.793   8.076  0.1490 -0.1133 -0.1812
48042W        W91136  27.935  24.070   9.795  0.0190 -0.0456 -0.3551
48043W        W91137  30.322  23.126   8.612 -0.0103 -0.3035  0.1412
48044W        W91138  30.352  21.535   7.981  0.1323 -0.2949  0.2859
48045W        W91139  33.129  23.239   7.800 -0.1797  0.0121  0.2738
48046W        W91140  30.442  21.425   8.909 -0.2485 -0.1188 -0.0690
48047W        W91141  27.439  20.989   8.560  0.1651  0.0763  0.3020
48048W        W91142  32.955  24.742   9.549  0.1430 -0.0601 -0.0841
48049W        W91143  32.681  24.490   8.011  0.3098 -0.2344  0.3230
48050W        W91144  30.900  22.078   8.914 -0.1269  0.1723 -0.1391
48051W        W91145  28.532  23.945   7.516 -0.0244 -0.0536  0.0350
48052W        W91146  31.055  20.857   7.265  0.2087 -0.0562 -0.1197
48053W        W91147  30.356  22.015   9.864 -0.2059 -0.0256 -0.2445
48054W        W91148  29.981  24.715   9.723 -0.0017  0.1346  0.1595
48055W        W91149  32.057  24.389   7.578 -0.0580  0.1476  0.4249
48056W        W91150  30.338  23.327   9.077 -0.0887  0.1538  0.1485
48057W        W91151  32.690  24.330   8.869  0.0370 -0.0863  0.1715
48058W        W91152  32.685  24.169   6.082 -0.0254  0.0392 -0.0325
48059W        W91153  30.641  22.114   9.391 -0.1205  0.1832  0.0537
48060W        W91154  31.748  23.782   8.630 -0.1163 -0.1053 -0.1105
48061W        W91155  32.339  23.897   9.836  0.0074  0.1519  0.4462
48062W        W91156  29.884  21.265   8.740  0.1360  0.0081  0.1996
48063W        W91157  31.440  22.715   8.180  0.2999 -0.1779  0.2541
48064W        W91158  32.280  24.203   8.038 -0.1564  0.1716 -0.3445
48065W        W91159  28.101  21.070  10.301 -0.0573  0.0880  0.1147
48066W        W91160  31.305  23.665   7.124 -0.1631 -0.0628 -0.1460
48067W        W91161  31.601  22.139   9.687 -0.1716  0.0176 -0.2365
48068W        W91162  29.217  22.294   7.307 -0.0052  0.1190  0.0922
48069W        W91163  33.527  24.627   6.432  0.1296  0.1972 -0.0054
48070W        W91164  30.814  25.082  10.259  0.0622 -0.2351 -0.0938
48071W        W91165  31.767  26.964   9.133  0.0989  0.2303 -0.0934
48072W        W91166  32.818  23.268   8.862  0.2179  0.1062 -0.0577
48073W        W91167  27.100  21.362   9.903 -0.0492  0.0052  0.0442
48074W        W91168  31.483  23.638   7.707  0.2122  0.0145  0.0240
48075W        W91169  30.864  24.733   8.268  0.3582  0.1866 -0.1915
48076W        W91170  32.060  23.176   9.262 -0.0588  0.1549  0.1743
48077W        W91171  29.872  22.427   8.044  0.0284  0.1366 -0.0641
48078W        W91172  31.403  21.123   6.921 -0.0670  0.2422 -0.1446
48079W        W91173  32.068  23.919  10.516  0.1097 -0.1858 -0.0269
48080W        W91174  31.015  22.531   9.122  0.1364  0.0506  0.1578
48081W        W91175  30.941  27.538   3.516  0.4848  0.0698 -0.1146
48082W        W91176  30.142  29.668   1.129 -0.1483  0.0384  0.0536
48083W        W91177  32.032  26.006   0.724 -0.1696 -0.0528 -0.0633
48084W        W91178  32.246  27.680   1.199 -0.0205  0.0115  0.0468
48085W        W91179  28.326  26.421   2.012  0.1570 -0.0059 -0.1589
48086W        W91180  30.250  29.504   1.644  0.1631  0.0555  0.1126
48087W        W91181  30.518  25.843   3.022  0.0004 -0.0672  0.3154
48088W        W91182  31.626  28.423   2.817  0.2126  0.4277 -0.0282
48089W        W91183  33.304  29.255   2.173  0.1705  0.0434  0.1149
48090W        W91184  31.147  27.748   0.627  0.0083  0.2622  0.0845
48091W        W91185  31.015  26.150   3.090  0.2725 -0.1906  0.1069
48092W        W91186  30.348  28.570   4.760  0.1504  0.2199 -0.0120
48093W        W91187  30.121  25.899   1.592 -0.0179 -0.0860 -0.1488
48094W        W91188  29.625  26.254   2.834  0.1157 -0.0307  0.0725
48095W        W91189  32.185  27.690   1.699 -0.2119  0.1590  0.2168
48096W        W91190  30.025  27.345  31.962 -0.0683  0.1237 -0.1634
48097W        W91191  29.959  27.379   1.419  0.0678  0.0478 -0.3645
48098W        W91192  31.305  25.803   0.715  0.0416  0.0156 -0.3688
48099W        W91193  32.076  29.550   1.996  0.0206 -0.1103  0.0955
48100W        W91194  30.740  25.932   3.575  0.0625  0.3263 -0.4557
48101W        W91195  32.603  24.368   3.207  0.2254  0.1569  0.1309
48102W        W91196  30.744  29.404   1.346 -0.1519  0.5240 -0.0987
48103W        W91197  29.735  27.741   0.183 -0.3905  0.1365 -0.4210
48104W        W91198  28.901  25.745   2.303 -0.0202 -0.1763  0.0885
48105W        W91199  29.159  26.716   3.869 -0.0426 -0.0330  0.0213
48106W        W91200  30.843  27.583   1.512 -0.1674  0.0144  0.0137
48107W        W91201  31.827  26.653   0.821 -0.2128  0.0298 -0.1043
48108W        W91202  30.066  28.393   3.391  0.1735  0.2165  0.0359
48109W        W91203  30.883  28.452   2.364  0.0662  0.1583  0.1934
48110W        W91204  31.730  26.048   3.301 -0.0541  0.2260 -0.0180
48111W        W91205  29.264  29.072   2.335  0.0326 -0.1877  0.0972
48112W        W91206  27.742  28.595   0.918 -0.3227 -0.4029 -0.0068
48113W        W91207  29.563  28.942   1.294  0.1328 -0.1090 -0.3398
48114W        W91208  31.125  28.469   1.281  0.1766 -0.0241 -0.0232
48115W        W91209  33.227  29.150   3.586 -0.0520  0.2107 -0.0264
48116W        W91210  30.840  29.667   3.050 -0.2963  0.2861  0.2123
48117W        W91211  30.069  28.099  31.774  0.1182  0.1769 -0.1117
48118W        W91212  30.841  29.268   4.034 -0.3337  0.2965  0.0430
48119W        W91213  29.845  28.039   3.045 -0.1905  0.1555 -0.2088
48120W        W91214  30.017  26.461   3.138 -0.1526  0.1821 -0.2071
48121W        W91215  31.803  26.663   1.329 -0.1286 -0.0391 -0.1665
48122W        W91216  31.941  29.075   0.305 -0.0313  0.4251 -0.1776
48123W        W91217  32.029  27.997   0.799 -0.1120  0.0573 -0.2553
48124W        W91218  30.502  28.412   4.152 -0.0942  0.1474 -0.0332
48125W        W91219  27.909  27.868   3.215  0.0189  0.1131  0.0482
48126W        W91220  31.307  25.827   3.399  0.0490  0.0843 -0.1122
48127W        W91221  30.291  29.141   1.195  0.0555 -0.2388  0.1026
48128W        W91222  31.809  25.931   2.048 -0.1337 -0.3872 -0.0232
48129W        W91223  31.058  28.745   0.844 -0.1784  0.2929 -0.2304
48130W        W91224  33.160  26.485   1.584  0.0614 -0.0378 -0.3231
48131W        W91225  29.926  24.317   1.572 -0.0470  0.1089 -0.0123
48132W        W91226  29.799  28.796   3.261  0.2072 -0.0949 -0.0780
48133W        W91227  29.931  26.675   1.147  0.1582 -0.1545 -0.4350
48134W        W91228  30.995  27.180   2.396 -0.0517  0.3111 -0.1382
48135W        W91229  30.817  27.161   0.473  0.2306 -0.0479 -0.1329
48136W        W91230  31.917  25.518   3.468 -0.0483 -0.1580  0.1610
48137W        W91231  30.459  28.782   2.474 -0.1763  0.0793 -0.3722
48138W        W91232  29.990  27.846   1.611  0.1246 -0.1986 -0.1883
48139W        W91233  32.201  28.274  31.946 -0.3732 -0.0550  0.3689
48140W        W91234  31.472  29.055   1.375  0.4654  0.4625  0.1067
48141W        W91235  31.812  29.807   1.031  0.0114 -0.0072  0.1302
48142W        W91236  29.091  27.467   0.657  0.1467  0.3494 -0.0371
48143W        W91237  30.340  27.645   3.955 -0.1535  0.2880 -0.0478
48144W        W91238  29.058  27.804   3.290 -0.3222 -0.3975  0.1823
48145W        W91239  30.280  26.929   0.567 -0.0067 -0.1398  0.0128
48146W        W91240  32.972  27.895   2.395 -0.0760  0.3399 -0.0189
48147W        W91241  29.167  28.670   5.381 -0.1781 -0.1180 -0.0326
48148W        W91242  32.776  26.201   1.317  0.0263  0.0258  0.3733
48149W        W91243  30.812  27.513   2.036 -0.1295  0.0306 -0.1816
48150W        W91244  31.777  29.642   2.463  0.1367 -0.2622  0.1893
48151W        W91245  31.412  28.238   0.606  0.0172  0.2094 -0.1170
48152W        W91246  31.278  25.193   3.079  0.1632 -0.0588  0.1492
48153W        W91247  30.581  24.599   4.718  0.1360  0.3208  0.3132
48154W        W91248  29.039  28.813   0.275 -0.0358  0.3422 -0.0283
48155W        W91249  31.306  26.694   1.045 -0.1460 -0.3206  0.0139
48156W        W91250  31.872  27.490   3.350  0.0036 -0.1057  0.1188
48157W        W91251  32.437  27.363   0.285 -0.0302 -0.2319  0.4416
48158W        W91252  29.302  29.043   3.471  0.0589  0.0872 -0.3009
48159W        W91253  31.071  25.626   2.988 -0.3151 -0.0457  0.1018
48160W        W91254  30.628  27.884   3.676  0.0015  0.0487 -0.0900
48161W        W91255  29.235  28.561  31.866 -0.2274 -0.1090 -0.0348
48162W        W91256  28.921  29.142   2.790  0.0985  0.0401 -0.3722
48163W        W91257  30.459  27.308   1.736 -0.0333  0.0449  0.0928
48164W        W91258  30.013  26.410   2.491 -0.1811 -0.0665 -0.1109
48165W        W91259  30.296  27.296   2.841  0.0902 -0.0949  0.1930
48166W        W91260  32.677  25.491   1.315  0.0563 -0.0747 -0.0116
48167W        W91261  28.706  24.773   2.684  0.2444 -0.3291  0.0877
48168W        W91262  31.676  25.720   2.577 -0.3309 -0.1481 -0.1903
48169W        W91263  29.677  27.529   2.104 -0.1227  0.0500  0.3035
48170W        W91264  30.590  28.944   0.746 -0.0100 -0.3072 -0.1184
48171W        W91265  32.128  27.034   0.617 -0.2667  0.0862 -0.1065
48172W        W91266  32.257  28.754  31.743 -0.1588 -0.2002 -0.2598
48173W        W91267  29.704  26.778   3.962  0.2374 -0.2826 -0.4273
48174W        W91268  28.592  26.522   1.170 -0.0589 -0.1312  0.1514
48175W        W91269  29.793  25.223   3.220  0.1518  0.3559  0.1638
48176W        W91270  29.725  26.755   2.293  0.0707 -0.0688  0.0053
48177W        W91271  32.792  26.904   2.446  0.1729  0.1078 -0.2147
48178W        W91272  29.981  26.586   0.644  0.0200  0.0902  0.2701
48179W        W91273  31.237  25.881   1.317  0.0149  0.0668  0.2177
48180W        W91274  29.464  27.722   1.657 -0.0310 -0.1312 -0.2456
48181W        W91275  29.111  27.886   0.969  0.1508 -0.1343  0.4087
48182W        W91276  31.015  26.267   4.235 -0.2207 -0.0272  0.0172
48183W        W91277  32.280  29.215  31.893  0.1126 -0.0482 -0.1645
48184W        W91278  32.227  27.684   2.863  0.2001  0.3220 -0.1092
48185W        W91279  30.714  28.829   1.201  0.2356  0.1398 -0.1660
48186W        W91280  27.973  25.706   2.509  0.1369 -0.3020  0.0799
48187W        W91281  29.047  25.108   1.614 -0.2296  0.0910  0.1451
48188W        W91282  28.272  28.775   2.204  0.0349 -0.0541  0.1747
48189W        W91283  29.963  27.015   3.176 -0.0434  0.1883 -0.0673
48190W        W91284  29.047  26.558   0.470  0.2222  0.1236 -0.3669
48191W        W91285  32.904  28.462   1.725  0.0502 -0.1433  0.2460
48192W        W91286  31.441  28.114   1.963 -0.1233  0.1291 -0.1374
48193W        W91287  30.318  27.932   4.366 -0.0558  0.0424 -0.1513
48194W        W91288  31.113  25.855   3.898  0.1482 -0.2329 -0.0759
48195W        W91289  33.060  28.477   2.238 -0.1175  0.0761 -0.0448
48196W        W91290  31.293  27.911   1.432  0.2773 -0.0690  0.2252
48197W        W91291  28.679  26.397  31.877  0.1790  0.0827  0.0939
48198W        W91292  31.135  28.573   1.948  0.1657 -0.2172  0.1285
48199W        W91293  28.691  28.184   0.597 -0.0680 -0.0982  0.0114
48200W        W91294  29.816  28.118   2.547  0.1238 -0.1153  0.0741
48201W        W91295  31.308  26.729   2.280  0.3124 -0.0590  0.1727
48202W        W91296  32.690  27.364   0.841 -0.2565 -0.1277 -0.0663
48203W        W91297  30.133  27.137   3.930  0.2246  0.0107 -0.0274
48204W        W91298  31.514  27.135   2.428 -0.1038 -0.0044 -0.2705
48205W        W91299  29.583  27.168  31.487  0.1811  0.1261  0.3675
48206W        W91300  29.217  28.612   4.904 -0.1889  0.0536  0.1652
48207W        W91301  29.701  27.017   0.496 -0.2483  0.1878 -0.1255
48208W        W91302  32.074  25.481   0.539  0.0604  0.2656 -0.0535
48209W        W91303  30.811  28.533   3.345  0.2821 -0.1810 -0.3830
48210W        W91304  32.098  28.194   2.717 -0.1595 -0.0726 -0.1402
48211W        W91305  29.887  25.525  30.871 -0.2687 -0.0282 -0.1590
48212W        W91306  30.614  24.888   0.870 -0.0676 -0.1038 -0.0726
48213W        W91307  28.897  27.364   4.753  0.1650  0.1458  0.2231
48214W        W91308  31.760  27.631   1.394  0.2961  0.3832 -0.1057
48215W        W91309  30.578  26.355   3.336 -0.1886 -0.0465 -0.0356
48216W        W91310  31.590  26.845   0.384 -0.1391 -0.2472 -0.1826
48217W        W91311  31.310  28.382   0.095 -0.0874 -0.0239  0.1624
48218W        W91312  29.559  27.305   3.129  0.1865 -0.1543  0.0497
48219W        W91313  30.188  28.685   3.847 -0.1164 -0.0434  0.1152
48220W        W91314  32.380  28.548   2.254  0.0488 -0.0987  0.1122
48221W        W91315  30.831  26.043   2.546 -0.0373  0.0107  0.0947
48222W        W91316  29.990  26.792  31.485  0.2127  0.0218  0.0631
48223W        W91317  31.752  24.764   2.271 -0.1423  0.0365 -0.2285
48224W        W91318  28.406  28.899  31.488  0.0591 -0.2181 -0.3233
48225W        W91319  32.252  25.005   3.208  0.2560 -0.3077 -0.0726
48226W        W91320  31.657  25.144   2.667 -0.1373 -0.2596 -0.1903
48227W        W91321  30.059  24.740   4.016 -0.0146 -0.1861  0.1519
48228W        W91322  31.732  26.849   3.273  0.3189  0.2316 -0.0748
48229W        W91323  33.346  27.354  31.841 -0.1632 -0.0922 -0.0762
48230W        W91324  31.285  26.299   3.805  0.2193  0.1076  0.0312
48231W        W91325  30.096  27.256  31.389 -0.0660  0.3179 -0.1995
48232W        W91326  30.581  25.417   2.668 -0.1068 -0.1101  0.1347
48233W        W91327  28.977  26.038   4.001 -0.1324 -0.3177 -0.3864
48234W        W91328  29.308  28.114   2.761  0.1924 -0.0214  0.0019
48235W        W91329  32.153  27.825   3.542  0.2157 -0.1579  0.0031
48236W        W91330  31.673  27.315   0.520 -0.1906 -0.0369 -0.1370
48237W        W91331  30.178  25.727   3.851  0.0166  0.0909 -0.2389
48238W        W91332  30.247  26.334   0.188 -0.0504 -0.0361  0.2520
48239W        W91333  28.387  27.290   0.813 -0.2127  0.1679 -0.1138
48240W        W91334  29.619  29.317   0.491 -0.0455 -0.1497 -0.0657
48241W        W91335  30.914  25.398   1.545  0.2006 -0.1161  0.0311
48242W        W91336  30.437  27.866   1.842 -0.1579  0.1421  0.1869
48243W        W91337  29.232  28.355   0.608 -0.1224  0.1318 -0.1364
48244W        W91338  31.542  29.170   4.596 -0.1327  0.1531 -0.2057
48245W        W91339  28.876  28.311   0.102  0.0100  0.1216 -0.1461
48246W        W91340  31.482  25.510   4.963 -0.1200 -0.1412 -0.2221
48247W        W91341  29.431  29.995   3.193  0.1366 -0.0045 -0.1002
48248W        W91342  30.459  27.220   0.187 -0.1084  0.2632 -0.2110
48249W        W91343  29.664  26.599   0.181 -0.0345 -0.1464  0.0024
48250W        W91344  31.306  25.752   2.085 -0.0815  0.2857 -0.2134
48251W        W91345  32.376  28.265   0.459  0.0910 -0.2008  0.1064
48252W        W91346  29.407  25.522   3.453 -0.1207  0.0333  0.0026
48253W        W91347  31.438  26.240   2.528 -0.2116 -0.0719  0.2764
48254W        W91348  28.508  29.132   3.225  0.3465 -0.0274  0.2686
48255W        W91349  31.079  24.918   3.461  0.2185 -0.0076 -0.0344
48256W        W91350  30.625  26.059   0.864  0.1304 -0.0937  0.0224
48257W        W91351  31.311  27.921   2.860 -0.0909 -0.1403  0.2203
48258W        W91352  29.688  28.119   4.228  0.1939 -0.0652 -0.1397
48259W        W91353  27.524  28.448   1.360  0.0367 -0.2014  0.1014
48260W        W91354  31.414  27.711   3.372  0.0473 -0.1880  0.1383
48261W        W91355  29.690  28.021   0.986 -0.0775  0.1508  0.0166
48262W        W91356  29.567  29.103   1.862 -0.2440 -0.3654 -0.0473
48263W        W91357  30.928  28.084   1.804  0.1373 -0.1266 -0.2247
48264W        W91358  29.625  28.188   1.868  0.0840  0.2852 -0.0894
48265W        W91359  29.365  27.041   0.897  0.1701 -0.0671 -0.0257
48266W        W91360  29.039  27.357   4.115 -0.0575  0.1303 -0.0399
48267W        W91361  31.055  27.183   1.747 -0.1455 -0.2722 -0.0038
48268W        W91362  30.988  26.330   2.150  0.4449 -0.2043 -0.1817
48269W        W91363  28.874  27.308   1.102 -0.3895  0.0838  0.1473
48270W        W91364  30.412  25.834   1.982 -0.0201 -0.0690 -0.0632
48271W        W91365  30.782  27.556   2.705 -0.0128 -0.0331 -0.2282
48272W        W91366  31.203  27.360   2.923  0.4105 -0.0173  0.2557
48273W        W91367  31.170  29.634   3.791  0.1928 -0.1837 -0.1873
48274W        W91368  31.935  25.269   3.968 -0.1921 -0.2182  0.3795
48275W        W91369  31.958  29.015   0.814 -0.1746 -0.1371 -0.1276
48276W        W91370  32.241  27.148   3.621 -0.3167 -0.2467  0.0617
48277W        W91371  31.215  27.233   0.208 -0.2702  0.0108 -0.0624
48278W        W91372  30.061  26.827   2.763 -0.0274  0.0565 -0.1204
48279W        W91373  30.144  28.478   0.678 -0.0085 -0.0098 -0.3235
48280W        W91374  30.924  25.400   3.547 -0.0326 -0.0765  0.0160
48281W        W91375  30.111  28.166   3.919  0.0510 -0.3349 -0.1376
48282W        W91376  30.035  29.615   0.517 -0.0240  0.1183 -0.0799
48283W        W91377  28.047  28.870   2.966  0.0126  0.0212  0.1637
48284W        W91378  30.190  25.300   0.765 -0.2000  0.5524  0.2982
48285W        W91379  31.714  27.587  31.479  0.0097 -0.0202  0.1847
48286W        W91380  30.420  27.258   2.304 -0.2681  0.1488  0.1197
48287W        W91381  32.049  25.910   2.913 -0.0350 -0.2046 -0.0927
48288W        W91382  31.251  27.712   0.009  0.1688  0.0527  0.0273
48289W        W91383  31.479  25.006   4.150  0.1204 -0.0673  0.1703
48290W        W91384  30.675  24.165   3.596 -0.0903  0.1246  0.1315
48291W        W91385  32.037  27.495   0.812  0.0596  0.0907  0.1151
48292W        W91386  30.567  26.387   1.789 -0.0444  0.0577 -0.0009
48293W        W91387  31.107  28.718   4.768 -0.2093  0.0398 -0.1374
48294W        W91388  29.624  28.815   5.094  0.0555 -0.0530  0.0081
48295W        W91389  31.761  26.460   2.240  0.0501  0.4749 -0.0921
48296W        W91390  30.822  25.564   2.230 -0.0003  0.2067  0.2457
48297W        W91391  30.180  26.828   2.091  0.1992  0.0571  0.0449
48298W        W91392  31.678  27.336   2.851 -0.0413  0.2297 -0.1195
48299W        W91393  32.015  27.098   0.102 -0.0901 -0.2325  0.1587
48300W        W91394  31.560  27.782   0.925 -0.2103  0.1846  0.0038
48301W        W91395  29.449  26.994   3.509 -0.0381  0.2709 -0.0869
48302W        W91396  32.894  26.931   0.940 -0.1348  0.0658  0.3192
48303W        W91397  30.053  26.858   0.117  0.1902  0.0629 -0.0646
48304W        W91398  28.725  27.406   3.651  0.0669  0.0358 -0.4124
48305W        W91399  29.449  26.008   3.217 -0.1959 -0.2219 -0.0098
48306W        W91400  32.560  28.939   2.488 -0.0136 -0.2317  0.2409
48307W        W91401  32.240  27.048   1.129  0.2603  0.3382  0.1026
48308W        W91402  30.792  26.404   3.772  0.1631 -0.2306  0.3940
48309W        W91403  31.699  26.937   3.786  0.0538  0.1249  0.0783
48310W        W91404  30.036  25.936   2.918 -0.3846 -0.1364 -0.1895
48311W        W91405  29.299  25.620   4.074 -0.1594  0.0939  0.0026
48312W        W91406  32.310  29.488   3.793 -0.2600  0.0317 -0.0090
48313W        W91407  30.694  25.288   0.265  0.1845  0.1185 -0.1983
48314W        W91408  32.078  26.415   3.227  0.1002 -0.1339 -0.0354
48315W        W91409  32.689  28.134   2.107 -0.0184  0.1635  0.2137
48316W        W91410  31.837  26.612  31.472  0.0984  0.0725 -0.2254
48317W        W91411  30.046  27.737   0.954 -0.0605 -0.2565 -0.2329
48318W        W91412  31.386  28.125   4.227  0.0530  0.0132  0.1985
48319W        W91413  30.471  27.076  31.710  0.2478  0.1310  0.0999
48320W        W91414  31.437  25.265   3.552  0.0385  0.0390  0.4099
48321W        W91415  31.686  27.998  31.891  0.1386  0.0090  0.0105
48322W        W91416  31.165  27.696   2.364  0.1915 -0.2508 -0.3358
48323W        W91417  33.135  26.479   1.034 -0.0827 -0.0288 -0.1113
48324W        W91418  28.813  26.752   2.014 -0.0988  0.0604 -0.0827
48325W        W91419  29.722  28.512   3.697 -0.2267 -0.3123 -0.0226
48326W        W91420  28.527  26.509   0.515 -0.3341  0.0726 -0.3225
48327W        W91421  30.798  28.469  31.903 -0.0871  0.0508  0.0429
48328W        W91422  30.525  27.639   3.158 -0.0737 -0.1339 -0.0697
48329W        W91423  30.785  26.311   4.755  0.1738 -0.2206 -0.1601
48330W        W91424  31.246  27.335   0.828  0.0551 -0.0622  0.1865
48331W        W91425  32.699  26.755   3.117  0.0098  0.0267 -0.0753
48332W        W91426  28.744  27.462  31.975  0.3691 -0.0159  0.0731
48333W        W91427  32.033  26.410   1.734  0.2693 -0.2899 -0.5144
48334W        W91428  30.235  29.383   3.435 -0.1382  0.0506 -0.0495
48335W        W91429  28.675  28.657   4.110  0.0940 -0.4292  0.1678
48336W        W91430  32.176  28.148   1.853 -0.3923  0.1175 -0.1055
48337W        W91431  30.133  25.250   4.057 -0.0986  0.0261 -0.3004
48338W        W91432  31.659  25.321   2.191  0.1274 -0.2814 -0.2149
48339W        W91433  31.035  26.693   3.167 -0.3607  0.0223 -0.2041
48340W        W91434  32.578  27.506   3.749  0.0648  0.1216  0.2492
48341W        W91435  31.177  27.779   3.908 -0.0229 -0.2177  0.3093
48342W        W91436  29.957  27.533   3.127  0.0098  0.0917  0.1813
48343W        W91437  31.587  28.731   0.982 -0.2913  0.1784 -0.1367
48344W        W91438  29.868  28.660   1.853 -0.0581 -0.0133  0.2078
48345W        W91439  28.444  25.626   2.665 -0.1962 -0.0524 -0.2492
48346W        W91440  30.390  26.793   3.148 -0.0506 -0.0148  0.3741
48347W        W91441  30.824  27.116   1.159  0.1473 -0.1415 -0.2781
48348W        W91442  29.374  26.564   0.884 -0.0192  0.0700  0.2108
48349W        W91443  31.305  27.392   1.309 -0.1408  0.3143 -0.0785
48350W        W91444  28.768  28.394   3.578 -0.0629  0.3333  0.0629
48351W        W91445  29.307  28.124   3.631  0.2849 -0.1228 -0.0518
48352W        W91446  28.651  27.651   1.947  0.0739 -0.1337  0.1512
48353W        W91447  31.670  26.196   1.061  0.0507 -0.1442  0.3355
48354W        W91448  31.875  28.203   0.355 -0.2398 -0.2744 -0.2467
48355W        W91449  31.806  28.235   2.240  0.2611 -0.1543  0.0199
48356W        W91450  31.133  26.757   0.258  0.0057  0.0374  0.3154
48357W        W91451  29.134  28.248   4.100  0.0773 -0.1450 -0.1988
48358W        W91452  27.198  28.136   0.748  0.0932 -0.0579 -0.1032
48359W        W91453  31.031  28.845   1.573  0.1256 -0.3110 -0.1246
48360W        W91454  29.536  28.674   2.223 -0.1176  0.0474 -0.0150
48361W        W91455  31.738  28.876   4.189 -0.1003 -0.2165  0.1871
48362W        W91456  32.345  26.370   2.303  0.1474 -0.3327 -0.0493
48363W        W91457  32.283  26.806   1.566  0.0805 -0.0672 -0.0311
48364W        W91458  33.217  26.671   0.541  0.0955  0.0574 -0.2868
48365W        W91459  30.197  26.993   1.401  0.1718 -0.0285 -0.0957
48366W        W91460  30.690  26.843   1.527  0.0967  0.0618  0.3779
48367W        W91461  30.325  25.993   2.458 -0.0439  0.0829 -0.0277
48368W        W91462  30.964  27.075   3.497  0.0775 -0.0377 -0.2647
48369W        W91463  31.640  25.537   3.027  0.2053 -0.3162  0.0771
48370W        W91464  28.278  28.535   3.413 -0.2235 -0.1322 -0.0564
48371W        W91465  31.828  29.011  31.759  0.2687 -0.0415 -0.0490
48372W        W91466  30.845  27.621   1.007 -0.4587 -0.0892  0.1607
48373W        W91467  30.407  26.774   1.018  0.0615  0.0266  0.0842
48374W        W91468  32.333  25.959   1.772 -0.0121  0.1216  0.1767
48375W        W91469  30.177  28.583  31.866  0.3132  0.1248 -0.0266
48376W        W91470  30.367  27.593   1.361 -0.1675 -0.0214 -0.1351
48377W        W91471  30.146  28.687   1.158  0.1626  0.2077  0.1844
48378W        W91472  30.213  27.805   2.753 -0.1310  0.1707  0.0242
48379W        W91473  29.463  27.175   2.578 -0.1447  0.1101 -0.0919
48380W        W91474  28.428  27.445   1.504  0.0623  0.2490 -0.3160
48381W        W91475  32.778  26.783   1.398  0.0112  0.1787 -0.4069
48382W        W91476  30.465  26.297   2.845  0.1617  0.1933  0.1812
48383W        W91477  32.306  25.332   4.330  0.0775 -0.1737 -0.0228
48384W        W91478  31.362  26.929   1.461  0.0129  0.1510 -0.0722
48385W        W91479  32.295  26.471   0.686 -0.2190  0.1027  0.3320
48386W        W91480  30.862  28.081   2.782  0.1191 -0.0598  0.2868
48387W        W91481  29.666  26.474   3.519  0.0798  0.1837  0.2794
48388W        W91482  31.797  27.502  31.974  0.1811 -0.0271  0.1023
48389W        W91483  31.250  27.643   1.897  0.0776 -0.0988 -0.0778
48390W        W91484  32.363  27.436  31.788  0.1649  0.2995  0.1992
48391W        W91485  30.469  28.154   3.234 -0.0828  0.0688  0.2972
48392W        W91486  29.421  27.882   2.308  0.2081 -0.1803  0.0449
48393W        W91487  30.701  25.848   1.300 -0.4941  0.1177  0.0735
48394W        W91488  29.585  26.821   2.919  0.1137  0.0572  0.0296
48395W        W91489  29.523  27.260   4.023 -0.2572 -0.0314  0.2857
48396W        W91490  31.897  28.277   3.470  0.0056 -0.2964  0.0857
48397W        W91491  29.345  25.867   2.158  0.1379 -0.2233 -0.1354
48398W        W91492  32.071  27.738   0.367 -0.0778 -0.3801 -0.0482
48399W        W91493  33.023  26.074   1.811 -0.1246  0.0029 -0.1190
48400W        W91494  30.658  28.447   0.864 -0.0448 -0.1554  0.1363
48401W        W91495  33.394  26.963   1.414 -0.0486 -0.0324  0.2762
48402W        W91496  31.997  28.721   3.171  0.3058 -0.1430  0.1947
48403W        W91497  29.189  26.470   2.763  0.0522 -0.0305 -0.1574
48404W        W91498  31.989  28.674   2.555  0.1763  0.0911  0.2562
48405W        W91499  32.400  28.520   3.405  0.0867  0.1226  0.0428
48406W        W91500  31.189  24.864   1.618  0.0615 -0.2742  0.1024
48407W        W91501  29.883  27.106   1.810  0.1851 -0.0806  0.0496
48408W        W91502  29.216  28.606   1.117  0.3761  0.0133  0.4060
48409W        W91503  32.219  26.898   2.257 -0.0830  0.1143 -0.0030
48410W        W91504  32.551  26.228   2.949  0.1675  0.0480  0.0444
48411W        W91505  31.879  28.614   0.139  0.2485 -0.2214  0.2429
48412W        W91506  33.395  25.785   2.677  0.0102 -0.2009  0.0737
48413W        W91507  30.685  26.827   2.638 -0.3950  0.1411 -0.1823
48414W        W91508  30.697  28.947   4.924 -0.0435  0.0243  0.3039
48415W        W91509  30.313  27.738   0.089  0.0583  0.0997 -0.1681
48416W        W91510  30.130  27.887   3.500 -0.0678 -0.0830 -0.0382
48417W        W91511  29.893  27.183   0.944  0.1057 -0.1764 -0.0919
48418W        W91512  31.067  29.327  31.921 -0.1091  0.2968 -0.2383
48419W        W91513  31.452  28.822   2.520  0.2659  0.0275 -0.3601
48420W        W91514  31.726  26.341   0.467  0.1369 -0.0373  0.2786
48421W        W91515  30.978  29.098   0.367 -0.3796  0.1372  0.2046
48422W        W91516  30.973  25.867   1.774 -0.1176 -0.1012  0.3354
48423W        W91517  32.744  26.276   0.817 -0.2274 -0.0182 -0.2914
48424W        W91518  32.014  24.861   1.122  0.0856  0.0113  0.2772
48425W        W91519  29.554  27.776   3.328  0.1580  0.0458  0.2169
48426W        W91520  28.827  26.346   1.687  0.3735  0.0260  0.0155
48427W        W91521  28.503  27.861  30.766 -0.0611 -0.2232  0.2822
48428W        W91522  29.746  27.665   2.695  0.4694 -0.0018 -0.3360
48429W        W91523  32.363  25.350   3.542  0.0676 -0.1329  0.1342
48430W        W91524  29.235  26.184   3.647  0.0343  0.1581  0.0440
48431W        W91525  28.349  26.947   1.826  0.1431  0.2635 -0.3667
48432W        W91526  28.671  25.907   1.892 -0.3361 -0.1761  0.0697
48433W        W91527  31.588  28.616   1.547  0.1013 -0.2820  0.0605
48434W        W91528  31.419  26.369   1.451 -0.0558  0.2841  0.0309
48435W        W91529  29.825  25.705   2.068  0.1696  0.3186  0.1230
48436W        W91530  31.574  28.200   1.152 -0.1237  0.0361  0.0575
48437W        W91531  30.240  28.994   2.094  0.0757 -0.0018  0.1841
48438W        W91532  30.429  25.450   1.706  0.1017 -0.2804 -0.3438
48439W        W91533  32.844  28.420   3.558 -0.1582  0.3889  0.1515
48440W        W91534  28.985  28.425   1.565 -0.1891 -0.2321 -0.3095
48441W        W91535  30.044  24.744   3.068 -0.1018 -0.0425  0.1130
48442W        W91536  30.433  27.208   3.422  0.0496  0.3623  0.0904
48443W        W91537  29.244  24.587  31.411  0.1270  0.2080 -0.2041
48444W        W91538  30.472  26.448   0.615  0.1208  0.4077 -0.0062
48445W        W91539  30.693  28.502   1.582  0.2236  0.2288  0.1660
48446W        W91540  30.978  30.068   0.558  0.3397  0.1349 -0.3017
48447W        W91541  29.940  27.164   2.384 -0.0004 -0.0155 -0.1298
48448W        W91542  29.125  28.738   4.369 -0.0509 -0.0626  0.5256
48449W        W91543  29.036  25.114   2.167 -0.0160 -0.1609 -0.1734
48450W        W91544  30.857  26.757   0.771  0.2007 -0.0486 -0.1032
48451W        W91545  30.744  27.138   3.056  0.1707  0.2297  0.0514
48452W        W91546  31.527  28.743   0.518  0.0129 -0.1879  0.2556
48453W        W91547  32.122  25.992   2.419  0.0343 -0.0126  0.0954
48454W        W91548  31.118  26.285   0.871  0.1369 -0.2585  0.2179
48455W        W91549  29.008  25.196   4.172  0.2106  0.1799 -0.1694
48456W        W91550  31.392  27.194   3.363 -0.1717 -0.1756 -0.1233
48457W        W91551  31.607  28.048   3.784  0.1211  0.1807 -0.3645
48458W        W91552  30.472  26.496   2.329 -0.0545  0.0413  0.4366
48459W        W91553  31.926  26.390   2.713 -0.1748 -0.1499 -0.1431
48460W        W91554  30.633  29.005  31.967 -0.2205  0.1945 -0.0734
48461W        W91555  28.045  26.439   2.419 -0.0743  0.1828  0.1021
48462W        W91556  31.464  26.238   1.936  0.1008  0.2761 -0.8072
48463W        W91557  31.025  26.475   2.720  0.1971 -0.1530  0.1410
48464W        W91558  31.960  26.914   2.658  0.3017  0.1442 -0.1794
48465W        W91559  31.443  28.554   3.964 -0.0914 -0.0768 -0.1789
48466W        W91560  29.519  26.646  31.679 -0.0070  0.0795 -0.0638
48467W        W91561  32.589  26.755   1.954 -0.2444  0.0139  0.2571
48468W        W91562  31.208  28.775   3.586  0.4109 -0.1303 -0.3740
48469W        W91563  31.483  28.564   4.465  0.2052  0.0904 -0.0321
48470W        W91564  29.704  28.505   2.881 -0.0644 -0.0454  0.1159
48471W        W91565  31.171  28.913   4.306  0.0166 -0.1757  0.3136
48472W        W91566  29.724  25.860   2.539 -0.0418 -0.0029 -0.0230
48473W        W91567  30.030  27.936   2.125  0.2792 -0.1674 -0.1268
48474W        W91568  30.620  28.046   1.370 -0.0186 -0.2683  0.2376
48475W        W91569  31.720  27.137   0.993  0.1112  0.0019 -0.2377
48476W        W91570  30.737  26.935   2.034 -0.1973  0.0577  0.1240
48477W        W91571  30.442  24.241   1.251  0.0987  0.2904 -0.3014
48478W        W91572  31.278  29.272   3.360  0.1269  0.0814  0.0343
48479W        W91573  32.583  25.239   2.396 -0.0802 -0.2267  0.0243
48480W        W91574  30.600  28.000   6.077 -0.2349  0.0771 -0.0265
48481W        W91575  29.910  26.521   5.262  0.2727  0.6556  0.2799
48482W        W91576  31.494  26.395   3.000 -0.0757  0.2474 -0.0958
48483W        W91577  32.314  25.905   4.770  0.0156  0.4578  0.0054
48484W        W91578  29.192  25.926   6.334 -0.1634 -0.0586 -0.0023
48485W        W91579  33.482  28.458   5.595  0.0698  0.0015 -0.1596
48486W        W91580  28.944  26.385   8.083 -0.2210 -0.0987  0.2771
48487W        W91581  32.371  27.841   5.315 -0.0785  0.2141 -0.0264
48488W        W91582  33.632  28.122   6.716  0.2000 -0.0725 -0.1964
48489W        W91583  30.640  26.657   4.381 -0.3154 -0.4196  0.0398
48490W        W91584  31.387  26.085   7.026  0.0849  0.1197 -0.0756
48491W        W91585  31.513  28.145   5.189 -0.2076 -0.1012 -0.0595
48492W        W91586  29.638  26.923   5.306  0.0531 -0.0970  0.0369
48493W        W91587  29.561  25.978   5.371  0.0713  0.1372 -0.0551
48494W        W91588  31.014  28.544   6.914 -0.1828  0.0781  0.0020
48495W        W91589  29.728  28.253   5.882 -0.0360  0.0348  0.0073
48496W        W91590  31.001  26.355   6.316 -0.1405  0.0747 -0.1645
48497W        W91591  30.337  26.276   4.495  0.0669  0.0799 -0.1670
48498W        W91592  31.514  29.399   6.140  0.3664 -0.0415  0.1088
48499W        W91593  30.219  25.987   7.421  0.1131  0.0212  0.0625
48500W        W91594  30.542  25.737   8.282  0.0709  0.0005  0.0329
48501W        W91595  31.561  29.358   5.063 -0.4075  0.0232  0.1797
48502W        W91596  29.161  26.821   4.838  0.2938  0.1848  0.0915
48503W        W91597  28.844  25.532   7.788  0.2004  0.3952  0.1029
48504W        W91598  30.702  26.790   7.257  0.0978 -0.0528  0.2119
48505W        W91599  31.801  25.862   6.107  0.1173  0.4233 -0.0684
48506W        W91600  32.425  29.333   6.598 -0.0800  0.1808 -0.1494
48507W        W91601  31.211  28.052   6.308 -0.0364  0.2136 -0.2413
48508W        W91602  31.842  28.331   4.215  0.2202  0.1555 -0.2763
48509W        W91603  32.504  26.915   7.332  0.1078  0.0933  0.4475
48510W        W91604  30.296  27.307   6.447 -0.2044 -0.0556 -0.1760
48511W        W91605  28.439  27.480   4.785 -0.3144 -0.3271 -0.2126
48512W        W91606  30.137  27.034   5.300  0.3824 -0.2432 -0.2445
48513W        W91607  32.551  26.958   5.257 -0.0786  0.0728  0.3126
48514W        W91608  32.039  28.791   7.296 -0.0488 -0.0935  0.1773
48515W        W91609  29.851  30.067   6.035  0.1612 -0.0440 -0.2183
48516W        W91610  29.056  30.594   5.114  0.1515 -0.2603  0.1895
48517W        W91611  30.152  28.660   5.865 -0.0744  0.0708  0.1157
48518W        W91612  29.958  28.027   7.202 -0.3389  0.0305  0.0811
48519W        W91613  31.493  27.021   7.471  0.0319 -0.0776 -0.0864
48520W        W91614  32.651  27.444   5.571 -0.0811  0.1466 -0.1609
48521W        W91615  31.856  27.212   4.730  0.1187 -0.2462 -0.0596
48522W        W91616  31.651  28.223   6.205  0.0224 -0.1062  0.3012
48523W        W91617  30.042  27.744   6.585 -0.1717 -0.1170 -0.0897
48524W        W91618  28.434  26.842   5.479 -0.3350 -0.1516  0.1590
48525W        W91619  32.585  25.514   8.154 -0.0559  0.0876  0.1069
48526W        W91620  29.589  29.469   4.513 -0.3006 -0.1624 -0.0172
48527W        W91621  31.279  27.249   3.939  0.3408 -0.0621 -0.0213
48528W        W91622  29.532  24.529   2.762 -0.0744 -0.0564  0.0431
48529W        W91623  30.785  26.836   4.914  0.0612  0.1103 -0.0738
48530W        W91624  30.000  25.085   6.406 -0.4367 -0.0455 -0.0878
48531W        W91625  29.824  29.000   4.619 -0.1282  0.1611  0.0053
48532W        W91626  29.918  24.879   5.338 -0.0070  0.1580 -0.0953
48533W        W91627  32.971  28.904   7.014  0.1478  0.0770 -0.0812
48534W        W91628  29.703  26.826   4.752 -0.2297  0.2517 -0.1066
48535W        W91629  31.602  26.481   7.245 -0.0638 -0.0131  0.1294
48536W        W91630  31.232  27.735   5.408 -0.0552  0.0565 -0.0562
48537W        W91631  29.659  26.578   6.223  0.0545  0.1153  0.1659
48538W        W91632  31.916  27.675   4.889  0.0172  0.1188 -0.0957
48539W        W91633  33.749  29.523   5.840 -0.1511  0.2398 -0.2022
48540W        W91634  32.270  28.950   3.632 -0.1374  0.0156 -0.1659
48541W        W91635  30.523  26.611   5.979  0.5859  0.2592  0.1136
48542W        W91636  28.852  27.120   6.693 -0.2720 -0.2213  0.2162
48543W        W91637  29.635  26.805   7.083 -0.1615  0.0945  0.1778
48544W        W91638  30.771  24.480   3.252 -0.0424  0.1032 -0.2520
48545W        W91639  32.741  27.613   7.579  0.0587  0.1387  0.2920
48546W        W91640  30.879  27.813   7.623  0.0290 -0.1900 -0.0906
48547W        W91641  32.947  25.919   6.065  0.0585  0.0270  0.2887
48548W        W91642  31.311  27.184   5.645 -0.0544 -0.1555 -0.3747
48549W        W91643  32.207  28.063   6.966  0.4483 -0.0962 -0.0123
48550W        W91644  31.327  26.735   3.550  0.1924  0.0852 -0.2243
48551W        W91645  33.296  25.586   6.398 -0.1438 -0.1081  0.3623
48552W        W91646  31.888  26.556   7.700  0.0695  0.2813 -0.1096
48553W        W91647  30.719  27.287   3.955 -0.0675 -0.0631 -0.0042
48554W        W91648  29.919  27.734   4.614  0.4889 -0.3201 -0.0057
48555W        W91649  34.271  28.621   6.326  0.0501 -0.0705 -0.2561
48556W        W91650  31.645  27.098   4.242 -0.0795  0.1965  0.0006
48557W        W91651  30.240  28.438   7.349  0.4270  0.0427 -0.2918
48558W        W91652  31.299  25.543   6.245 -0.4448  0.2218 -0.2555
48559W        W91653  30.370  28.105   7.944 -0.0116  0.0318 -0.2855
48560W        W91654  30.540  28.330   3.667  0.0764  0.1358  0.2500
48561W        W91655  29.697  26.960   6.521  0.0110  0.1232  0.0830
48562W        W91656  29.910  26.556   4.389 -0.1231 -0.1147 -0.0859
48563W        W91657  30.034  26.484   6.568 -0.1575  0.0876  0.0870
48564W        W91658  30.548  27.283   5.552 -0.0345  0.0769  0.1023
48565W        W91659  31.845  24.274   4.937 -0.0274 -0.2652 -0.0401
48566W        W91660  29.427  24.767   8.569  0.2145 -0.2404 -0.2088
48567W        W91661  32.742  25.417   6.229 -0.1098  0.2299  0.0417
48568W        W91662  28.605  28.164   4.067  0.0861 -0.3462 -0.0978
48569W        W91663  32.387  29.818   5.336 -0.1064  0.1387  0.1365
48570W        W91664  31.829  26.438   3.693  0.1353  0.2563 -0.0207
48571W        W91665  31.201  27.728   4.438 -0.1261 -0.0093  0.0162
48572W        W91666  28.680  27.024   7.151  0.0183 -0.3885  0.0944
48573W        W91667  30.186  26.252   6.111  0.0572  0.1482  0.1961
48574W        W91668  29.615  25.943   7.731 -0.0837 -0.1534  0.0398
48575W        W91669  28.257  26.066   4.862  0.0416  0.0823  0.1208
48576W        W91670  32.212  27.142   7.009  0.1523 -0.0315 -0.0159
48577W        W91671  28.679  24.658   4.196 -0.1813  0.0271  0.1078
48578W        W91672  32.467  26.673   5.999 -0.0109  0.0244 -0.0497
48579W        W91673  31.068  27.002   6.061  0.0450 -0.0027 -0.0113
48580W        W91674  28.238  27.655   5.279  0.1489  0.3593  0.0680
48581W        W91675  32.108  26.243   7.306  0.1228  0.1939  0.3344
48582W        W91676  31.210  28.363   5.503 -0.0057 -0.0090  0.0234
48583W        W91677  33.490  29.117   7.092  0.1244 -0.1411  0.1104
48584W        W91678  32.588  30.507   5.284 -0.0641  0.0781 -0.0236
48585W        W91679  30.395  24.791   7.213 -0.0803 -0.0430  0.1717
48586W        W91680  30.649  25.625   3.979  0.1108  0.1219 -0.2698
48587W        W91681  30.686  28.030   4.760  0.3158  0.2130 -0.0505
48588W        W91682  30.339  28.234   5.156  0.2012 -0.0664  0.1169
48589W        W91683  30.357  25.112   5.428  0.0046 -0.0558 -0.1214
48590W        W91684  32.951  29.948   5.966 -0.1889  0.0340 -0.0929
48591W        W91685  32.234  28.926   5.644 -0.2230 -0.0693 -0.2787
48592W        W91686  28.356  29.092   7.035  0.4447 -0.2989 -0.1225
48593W        W91687  32.777  26.228   6.831  0.1334  0.1770  0.0269
48594W        W91688  33.300  27.723   6.292 -0.2748 -0.1921  0.3517
48595W        W91689  32.808  28.640   6.154 -0.0162  0.0197  0.3020
48596W        W91690  28.347  26.770   4.141  0.0878 -0.1655 -0.4153
48597W        W91691  32.440  29.914   5.829 -0.0084  0.0659 -0.3097
48598W        W91692  30.677  28.873   4.367  0.1916 -0.3636  0.0358
48599W        W91693  29.558  26.373   6.824  0.1760  0.2919  0.1668
48600W        W91694  31.977  28.531   5.930 -0.1601 -0.1625 -0.1943
48601W        W91695  31.795  26.365   4.566 -0.0992 -0.3772 -0.0755
48602W        W91696  28.731  28.236   7.916 -0.0240 -0.0967 -0.1554
48603W        W91697  31.636  26.141   7.597  0.1794  0.0560  0.0810
48604W        W91698  30.132  26.908   6.192 -0.0697 -0.1390  0.3060
48605W        W91699  31.040  27.094   7.118  0.0140 -0.0171 -0.0340
48606W        W91700  31.695  24.635   5.209 -0.0378  0.2069 -0.1311
48607W        W91701  32.079  26.320   4.964  0.1070 -0.1004 -0.2192
48608W        W91702  31.837  28.190   6.686 -0.0879 -0.0297 -0.2055
48609W        W91703  32.185  27.489   4.435  0.0058 -0.2822 -0.2952
48610W        W91704  30.500  26.072   4.074 -0.0794  0.2253 -0.1642
48611W        W91705  31.477  25.490   4.000  0.0116 -0.2428 -0.0433
48612W        W91706  29.221  28.747   7.164 -0.0661 -0.1804 -0.0898
48613W        W91707  32.891  29.613   5.617 -0.0536  0.1084 -0.2771
48614W        W91708  31.775  26.323   6.222  0.0967  0.0224  0.0815
48615W        W91709  29.694  25.981   3.644 -0.2056 -0.2003  0.1840
48616W        W91710  32.003  29.572   5.068 -0.0909 -0.2419  0.2229
48617W        W91711  31.187  27.127   6.536  0.3174 -0.0695  0.0045
48618W        W91712  32.302  28.465   7.781 -0.1435  0.0897 -0.1097
48619W        W91713  31.840  29.366   3.956  0.2459  0.1861  0.2965
48620W        W91714  30.468  26.267   5.516  0.1809 -0.1308  0.0381
48621W        W91715  29.891  27.513   4.171  0.3039 -0.0862  0.1711
48622W        W91716  31.331  25.064   5.125  0.0569  0.1780 -0.0565
48623W        W91717  28.274  27.636   2.888  0.4789  0.2762  0.2343
48624W        W91718  32.871  26.585   5.166  0.0168 -0.0590  0.2128
48625W        W91719  31.207  25.494   5.400 -0.0813 -0.1133 -0.2646
48626W        W91720  30.397  26.236   6.924 -0.0674 -0.0181  0.0667
48627W        W91721  33.468  27.083   7.564  0.0092 -0.0122 -0.0832
48628W        W91722  30.959  27.232   5.207  0.3704  0.0102  0.0962
48629W        W91723  32.257  28.297   6.332  0.4920  0.1080  0.3367
48630W        W91724  29.446  27.236   4.961  0.1289  0.1897 -0.2357
48631W        W91725  31.414  25.760   7.820  0.0274 -0.4020  0.1250
48632W        W91726  30.074  27.197   5.794 -0.0672 -0.0551  0.2342
48633W        W91727  29.626  28.085   6.767 -0.2843 -0.2620 -0.1028
48634W        W91728  32.678  28.354   6.672  0.2224 -0.0154 -0.2050
48635W        W91729  31.063  28.253   3.722  0.0472  0.0241  0.2114
48636W        W91730  31.335  25.635   6.776  0.1646 -0.1847 -0.3341
48637W        W91731  30.968  25.801   5.754  0.0336  0.2538 -0.0693
48638W        W91732  30.498  29.275   4.608  0.0393 -0.1219 -0.0205
48639W        W91733  30.772  29.151   3.415  0.1098  0.0669  0.0109
48640W        W91734  30.868  25.402   6.751  0.4144 -0.2733 -0.2221
48641W        W91735  32.012  29.914   5.646  0.0664  0.0521 -0.2469
48642W        W91736  30.689  28.819   2.924  0.0043  0.1388  0.2570
48643W        W91737  31.907  28.318   7.297  0.1623  0.3342  0.1446
48644W        W91738  30.988  28.058   5.134  0.0218  0.2591 -0.0619
48645W        W91739  32.325  26.066   6.850  0.2908  0.1855 -0.2359
48646W        W91740  26.676  29.718   5.341  0.1913  0.1180  0.1030
48647W        W91741  29.385  26.894   4.368 -0.0235  0.1462  0.0944
48648W        W91742  29.001  26.348   4.809  0.0679  0.2134 -0.2019
48649W        W91743  31.992  26.633   5.871  0.2661  0.1320 -0.0639
48650W        W91744  31.971  28.620   3.791  0.0692 -0.0271 -0.1200
48651W        W91745  30.554  27.375   7.514 -0.1895  0.0527 -0.1349
48652W        W91746  31.994  25.621   5.661  0.2950 -0.0267  0.0401
48653W        W91747  29.888  28.177   5.335 -0.0792 -0.3325  0.0114
48654W        W91748  32.010  27.562   6.297  0.3655 -0.0928 -0.0995
48655W        W91749  32.208  25.309   5.372  0.1832  0.0252  0.0906
48656W        W91750  31.296  27.557   6.343  0.1653  0.2266 -0.0652
48657W        W91751  30.813  26.457   7.751 -0.2329 -0.5551 -0.2030
48658W        W91752  28.638  26.341   4.113  0.0033  0.0152  0.1205
48659W        W91753  32.798  28.137   6.222 -0.0915  0.3594  0.0813
48660W        W91754  31.226  26.141   5.476  0.2803 -0.2519  0.4225
48661W        W91755  30.285  27.598   6.068 -0.0026  0.4189  0.0362
48662W        W91756  31.841  28.985   6.052 -0.3721 -0.1437 -0.2190
48663W        W91757  30.405  27.394   4.544  0.3865 -0.4294 -0.0582
48664W        W91758  28.622  27.624   5.614  0.0132  0.1725  0.2155
48665W        W91759  30.326  27.091   8.154 -0.3470  0.0400  0.1231
48666W        W91760  32.370  27.406   6.595 -0.4616 -0.0372 -0.0753
48667W        W91761  30.933  25.812   6.440  0.1767 -0.2573  0.0450
48668W        W91762  30.105  25.702   6.185  0.1870 -0.0150 -0.0517
48669W        W91763  31.898  26.505   5.408 -0.1543 -0.0262  0.1118
48670W        W91764  31.758  28.629   5.484  0.0758  0.0300 -0.3300
48671W        W91765  32.252  26.993   5.640  0.2094  0.0850 -0.0574
48672W        W91766  30.179  28.696   6.815 -0.0213  0.2536 -0.0046
48673W        W91767  31.359  26.052   6.028  0.0936  0.0636 -0.0181
48674W        W91768  31.976  29.094   4.798 -0.0024 -0.3417  0.1575
48675W        W91769  32.532  27.892   6.573  0.2002 -0.0727  0.3189
48676W        W91770  29.869  27.078   4.421  0.2123  0.0026 -0.1188
48677W        W91771  28.719  27.707   5.109 -0.0591 -0.0776 -0.0992
48678W        W91772  31.496  26.631   5.922  0.4721 -0.0170  0.2263
48679W        W91773  31.355  26.073   6.508  0.3638  0.3093  0.0105
48680W        W91774  30.526  26.470   6.437 -0.0312  0.0393 -0.2962
48681W        W91775  29.937  27.271   4.865 -0.1071 -0.0011  0.2525
48682W        W91776  29.604  28.588   6.853 -0.1616 -0.3653 -0.2336
48683W        W91777  32.578  26.816   4.363 -0.1996 -0.1117 -0.1978
48684W        W91778  30.552  26.797   3.728 -0.1471  0.1817  0.1391
48685W        W91779  31.685  26.166   5.695  0.2135 -0.0860 -0.0311
48686W        W91780  32.794  27.982   7.007 -0.3512  0.2246 -0.0170
48687W        W91781  31.839  27.789   5.428  0.0639 -0.3697  0.0723
48688W        W91782  32.008  26.576   8.696 -0.1696  0.1183  0.0500
48689W        W91783  30.018  25.537   6.630  0.1926 -0.1385  0.1653
48690W        W91784  31.587  28.799   5.025 -0.0580 -0.0665  0.2483
48691W        W91785  28.229  26.098   7.220  0.1832  0.1802  0.3294
48692W        W91786  31.330  29.071   7.689 -0.0835  0.0259  0.2823
48693W        W91787  28.798  27.265   7.569 -0.0844 -0.0921  0.5072
48694W        W91788  31.409  26.653   5.436  0.0458  0.3413 -0.2426
48695W        W91789  29.983  25.447   5.343  0.0688 -0.1758  0.2140
48696W        W91790  30.756  27.501   6.366 -0.0982 -0.1265 -0.0972
48697W        W91791  32.427  27.962   7.416  0.0651 -0.2095  0.0017
48698W        W91792  31.559  26.362   5.069 -0.2050 -0.3155  0.1911
48699W        W91793  31.891  26.789   6.393  0.2294  0.1459  0.0597
48700W        W91794  29.604  28.529   4.631 -0.0261 -0.2933 -0.2360
48701W        W91795  31.735  25.915   4.759  0.0418  0.1437 -0.3789
48702W        W91796  31.240  26.791   5.010  0.0347 -0.0139  0.1971
48703W        W91797  30.922  26.642   6.761  0.4706  0.0916  0.1900
48704W        W91798  29.800  26.061   6.383 -0.1681 -0.0597  0.1882
48705W        W91799  32.043  27.283   5.251  0.4792  0.0994  0.2351
48706W        W91800  31.138  26.135   7.466  0.2776 -0.2116  0.1379
48707W        W91801  32.305  26.126   6.015  0.1299  0.2955  0.1674
48708W        W91802  32.342  26.884   6.558 -0.1028 -0.1950  0.0797
48709W        W91803  31.854  26.367   6.775 -0.2458  0.2229  0.0999
48710W        W91804  30.045  26.483   7.103 -0.0034  0.1538 -0.1375
48711W        W91805  32.783  29.378   6.131 -0.2843  0.3305 -0.1221
48712W        W91806  33.017  26.247   3.714 -0.0882  0.1217  0.0882
48713W        W91807  32.849  26.703   6.626  0.0479  0.1296 -0.1301
48714W        W91808  32.232  25.685   3.931  0.0721  0.0205  0.3150
48715W        W91809  30.211  26.240   3.689 -0.0176 -0.0822  0.3792
48716W        W91810  30.283  24.689   5.752  0.1368 -0.1144  0.0189
48717W        W91811  31.762  28.366   7.772 -0.1436  0.2044  0.2839
48718W        W91812  29.812  25.460   3.726  0.0842 -0.1159 -0.0089
48719W        W91813  32.420  26.048   7.911 -0.1696  0.4172 -0.1374
48720W        W91814  31.899  28.503   4.725  0.0110 -0.2615  0.2353
48721W        W91815  30.903  27.283   4.415 -0.3826  0.1705 -0.0665
48722W        W91816  32.018  25.755   4.344 -0.0372  0.0503  0.0522
48723W        W91817  28.703  26.630   6.815  0.2084 -0.0953  0.1683
48724W        W91818  29.207  28.792   6.386  0.3848  0.0106  0.0583
48725W        W91819  29.423  25.089   3.662 -0.1189 -0.1454  0.1207
48726W        W91820  30.497  27.255   5.033 -0.3831  0.2110 -0.0272
48727W        W91821  31.879  28.664   6.443 -0.1266 -0.2470 -0.1012
48728W        W91822  32.580  28.784   7.975  0.1093 -0.1650 -0.0404
48729W        W91823  30.960  25.709   4.369  0.0992  0.0367 -0.2487
48730W        W91824  32.633  28.107   5.733 -0.2873  0.2211 -0.1568
48731W        W91825  29.255  29.155   5.191  0.0753 -0.1972  0.0089
48732W        W91826  30.733  25.402   5.563 -0.0722  0.1692 -0.0397
48733W        W91827  29.637  28.593   5.536 -0.3446  0.1555  0.1051
48734W        W91828  28.792  27.608   7.128  0.0615  0.0505  0.1923
48735W        W91829  29.733  27.735   5.099 -0.0963 -0.1984  0.2206
48736W        W91830  33.117  25.237   6.857 -0.2474  0.1098  0.3585
48737W        W91831  32.675  27.101   6.170 -0.1412  0.0967 -0.1231
48738W        W91832  31.730  28.600   6.915 -0.1775 -0.2665  0.1686
48739W        W91833  32.820  27.548   6.318  0.0303 -0.2420  0.0803
48740W        W91834  31.490  28.050   7.069  0.1483  0.1054 -0.1122
48741W        W91835  30.408  25.953   6.528 -0.1112  0.2175 -0.0340
48742W        W91836  31.202  28.212   4.719 -0.2659 -0.3364 -0.1679
48743W        W91837  32.500  28.346   5.177 -0.4554  0.4166 -0.1277
48744W        W91838  30.554  27.157   6.016  0.1606  0.0725  0.2463
48745W        W91839  29.017  26.782   8.572  0.0068  0.4055 -0.0824
48746W        W91840  31.927  27.829   7.382  0.2427 -0.1956 -0.2233
48747W        W91841  31.585  26.832   4.626  0.0583  0.2013  0.0862
48748W        W91842  30.022  24.409   5.389  0.1755  0.0786 -0.1925
48749W        W91843  31.661  27.570   4.340 -0.4079 -0.0347 -0.1349
48750W        W91844  29.316  30.004   6.747  0.1987  0.1531 -0.5060
48751W        W91845  29.522  26.535   5.650  0.0095 -0.1679 -0.0699
48752W        W91846  30.022  28.462   4.345 -0.1854  0.2077 -0.0122
48753W        W91847  33.171  28.647   3.807  0.4101  0.0882  0.1410
48754W        W91848  31.749  26.988   5.597  0.2171  0.1148  0.0470
48755W        W91849  31.309  30.300   6.504 -0.0097 -0.0832  0.4249
48756W        W91850  29.904  26.009   4.635  0.5050  0.2173 -0.0185
48757W        W91851  30.782  27.755   4.203 -0.0858 -0.0254  0.1777
48758W        W91852  28.133  28.972   4.630  0.0579  0.1671  0.2379
48759W        W91853  31.703  28.024   4.587  0.0282  0.1102 -0.0715
48760W        W91854  31.122  26.807   4.512  0.3011  0.0584 -0.0895
48761W        W91855  33.300  28.001   7.099 -0.1382  0.0578 -0.1527
48762W        W91856  32.007  25.687   5.159  0.2405 -0.1245 -0.0545
48763W        W91857  32.428  26.702   4.841  0.1621  0.1016  0.0205
48764W        W91858  31.499  25.674   5.752  0.0697  0.2190 -0.4770
48765W        W91859  32.341  28.804   6.307  0.1452 -0.1544 -0.0041
48766W        W91860  30.931  26.080   6.910 -0.1966 -0.4151 -0.0107
48767W        W91861  30.273  24.923   4.397  0.1510  0.1493  0.0843
48768W        W91862  31.545  27.163   6.146 -0.1385 -0.0116 -0.1513
48769W        W91863  33.006  25.650   7.129 -0.0300  0.0139 -0.1013
48770W        W91864  30.255  29.216   6.926  0.1011 -0.1291  0.0654
48771W        W91865  32.835  29.687   4.974  0.1879 -0.0437 -0.1396
48772W        W91866  29.271  27.128   6.328  0.1925  0.0361  0.0979
48773W        W91867  34.435  26.894   5.896 -0.2067  0.0477  0.1678
48774W        W91868  30.682  29.599   3.624  0.2902  0.1244 -0.1370
48775W        W91869  32.113  27.426   5.777  0.1960  0.1447 -0.1500
48776W        W91870  29.479  27.882   5.564 -0.2072  0.3502  0.4303
48777W        W91871  31.655  27.588   5.886  0.1086  0.0515  0.1404
48778W        W91872  31.337  27.258   4.675 -0.2079 -0.1821  0.1107
48779W        W91873  28.211  26.086   4.268 -0.2478 -0.1631 -0.0904
48780W        W91874  33.106  27.415   4.795  0.0608 -0.1968  0.0937
48781W        W91875  29.949  25.974   6.909 -0.3660  0.1441  0.2557
48782W        W91876  32.758  27.127   6.839  0.0465  0.1314 -0.0427
48783W        W91877  29.952  25.584   7.237 -0.0042 -0.2819 -0.1969
48784W        W91878  31.307  26.364   4.643 -0.0521  0.0295  0.2085
48785W        W91879  32.304  26.386   6.427  0.0504 -0.2975  0.1959
48786W        W91880  31.038  26.937   7.613 -0.1791 -0.3128  0.0855
48787W        W91881  30.080  26.742   3.596  0.1576 -0.1886  0.0573
48788W        W91882  33.019  28.405   7.040  0.1679  0.4698 -0.1162
48789W        W91883  31.053  26.817   3.979  0.0697  0.0430 -0.0970
48790W        W91884  32.195  29.495   7.054 -0.0753 -0.0126 -0.0239
48791W        W91885  29.515  26.133   5.881 -0.1047  0.4127 -0.4644
48792W        W91886  30.948  25.595   4.847 -0.1362  0.1839 -0.0198
48793W        W91887  30.890  26.912   5.603  0.1537 -0.2815  0.0947
48794W        W91888  31.966  26.850   7.322 -0.1191 -0.0574 -0.0998
48795W        W91889  32.634  29.737   6.835 -0.0322 -0.0839  0.1613
48796W        W91890  29.188  25.563   5.283  0.0081 -0.2625  0.0893
48797W        W91891  32.946  28.273   3.111  0.0272 -0.0571 -0.0775
48798W        W91892  32.827  26.814   5.625 -0.0325 -0.0577 -0.0950
48799W        W91893  30.744  28.733   3.888  0.1390  0.0732 -0.1689
48800W        W91894  32.052  26.813   4.488  0.0031 -0.1451  0.0584
48801W        W91895  30.995  28.811   5.630  0.0052  0.1973 -0.0889
48802W        W91896  29.232  26.750   6.706 -0.1484  0.1920  0.0547
48803W        W91897  33.347  28.789   7.400  0.1501  0.3213  0.4330
48804W        W91898  33.587  28.662   6.346  0.1355  0.1587  0.4738
48805W        W91899  32.250  25.111   6.083 -0.3051  0.0540 -0.1403
48806W        W91900  29.192  24.834   6.734  0.3940 -0.0269  0.0750
48807W        W91901  28.446  28.031   4.585  0.2772  0.0790 -0.1216
48808W        W91902  33.478  26.466   4.445  0.1505 -0.0604 -0.0936
48809W        W91903  31.437  25.738   7.362  0.0333  0.2633  0.1163
48810W        W91904  31.180  29.133   2.862  0.1568 -0.0353  0.1069
48811W        W91905  31.658  24.749   7.800  0.2144 -0.0144  0.2401
48812W        W91906  31.468  29.036   5.654 -0.3718 -0.0122  0.0121
48813W        W91907  30.758  27.551   7.123 -0.1393  0.2323 -0.0445
48814W        W91908  29.770  25.608   4.266 -0.0408  0.0028 -0.2178
48815W        W91909  32.255  26.603   6.988  0.2550  0.0523 -0.0080
48816W        W91910  30.834  27.564   4.816 -0.1391  0.0208  0.1865
48817W        W91911  30.188  28.912   4.286  0.1073 -0.2506 -0.0088
48818W        W91912  33.115  28.499   6.532  0.0824  0.2852  0.4574
48819W        W91913  30.966  26.447   5.803  0.0448  0.0484  0.2189
48820W        W91914  33.016  27.818   5.841 -0.0380 -0.0763 -0.0195
48821W        W91915  30.781  25.960   5.264 -0.0998 -0.0993 -0.2230
48822W        W91916  31.698  24.766   6.035  0.0988  0.3750  0.2258
48823W        W91917  32.704  25.060   6.598 -0.0634 -0.1458  0.0625
48824W        W91918  32.435  27.715   6.083  0.5029  0.3129  0.2129
48825W        W91919  27.733  27.371   5.068  0.0009 -0.0851 -0.1674
48826W        W91920  28.877  29.182   4.229  0.1115 -0.2985 -0.1755
48827W        W91921  27.873  27.567   6.471  0.1957  0.2650 -0.2217
48828W        W91922  31.570  25.847   8.303 -0.0435  0.0214 -0.0279
48829W        W91923  29.430  25.928   7.215  0.0963  0.0841  0.3165
48830W        W91924  30.647  26.059   6.062 -0.2843  0.2681 -0.2368
48831W        W91925  28.741  25.399   4.623 -0.0652 -0.1060 -0.0484
48832W        W91926  31.983  27.857   4.109 -0.2150  0.0552  0.0687
48833W        W91927  31.304  24.781   7.032 -0.0089  0.0294 -0.3958
48834W        W91928  29.204  26.386   6.165 -0.0757  0.0668  0.2555
48835W        W91929  32.192  28.158   4.501  0.0895 -0.1592  0.3177
48836W        W91930  32.192  30.222   5.069  0.0834  0.1339  0.0412
48837W        W91931  30.790  23.462   6.715 -0.0915 -0.1193  0.2490
48838W        W91932  31.853  28.887   7.726 -0.0820 -0.0070  0.0650
48839W        W91933  30.509  26.766   5.386 -0.0085  0.1930  0.2060
48840W        W91934  30.370  26.409   8.346 -0.3102  0.1969 -0.1398
48841W        W91935  30.421  26.072   8.665  0.2037  0.4672 -0.2354
48842W        W91936  29.947  26.083   4.129 -0.1024  0.1811  0.2807
48843W        W91937  31.171  26.639   7.194 -0.1847 -0.0109 -0.1359
48844W        W91938  30.798  28.043   5.644 -0.3077 -0.0401  0.1059
48845W        W91939  33.063  30.387   3.917 -0.1310  0.0675 -0.2135
48846W        W91940  31.243  27.914   5.866 -0.0272  0.0228  0.0223
48847W        W91941  29.795  27.393   6.277 -0.1062  0.3754 -0.0216
48848W        W91942  29.915  24.171   6.626 -0.2137 -0.1546  0.0954
48849W        W91943  31.491  26.588   4.171  0.1456 -0.1419  0.2277
48850W        W91944  30.170  28.170   6.777 -0.0646 -0.1429 -0.2563
48851W        W91945  32.275  29.411   5.643 -0.4982 -0.0174 -0.2851
48852W        W91946  34.614  26.314   4.380  0.3721  0.0213 -0.3720
48853W        W91947  31.932  26.229   4.114 -0.2583  0.0890 -0.1082
48854W        W91948  29.528  25.897   8.597  0.0871 -0.0805 -0.0061
48855W        W91949  30.987  28.157   7.204  0.1729  0.1490 -0.3697
48856W        W91950  33.324  29.023   6.630 -0.1305  0.1586 -0.0943
48857W        W91951  31.408  24.365   6.164 -0.2538  0.0180  0.3621
48858W        W91952  31.817  25.082   4.959  0.2343 -0.2541 -0.1995
48859W        W91953  30.284  27.771   4.936  0.2077  0.1428 -0.1042
48860W        W91954  30.678  26.974   6.412  0.1859 -0.0601 -0.1446
48861W        W91955  30.250  26.824   4.714 -0.1965  0.1133  0.0652
48862W        W91956  30.693  26.036   7.289 -0.2647 -0.1977  0.1245
48863W        W91957  31.417  27.709   4.880 -0.0827 -0.3674 -0.0677
48864W        W91958  32.202  29.224   7.532  0.1234 -0.2127 -0.0934
48865W        W91959  30.908  26.499   5.287 -0.0363 -0.4029 -0.1314
48866W        W91960  32.298  26.301   4.445  0.2288  0.0760  0.0248
48867W        W91961  31.945  29.106   6.728 -0.4639 -0.1247 -0.2258
48868W        W91962  32.316  29.397   8.675  0.2070  0.1220 -0.0958
48869W        W91963  31.658  28.183   5.689  0.1166 -0.2194  0.1518
48870W        W91964  32.758  28.925   6.576 -0.1062 -0.1372 -0.4910
48871W        W91965  29.003  25.810   6.800  0.0226 -0.1192 -0.2438
48872W        W91966  30.048  26.649   5.775 -0.2791  0.0777  0.2174
48873W        W91967  31.545  27.217   5.175  0.2276  0.1477 -0.3219
48874W        W91968  32.036  27.921   5.915  0.1124 -0.2057  0.2730
48875W        W91969  29.095  26.794   5.748 -0.2815 -0.1519  0.0012
48876W        W91970  31.027  25.229   4.042 -0.0889 -0.1528 -0.0350
48877W        W91971  29.765  28.552   7.402 -0.2388 -0.1942 -0.2206
48878W        W91972  31.392  26.682   6.449 -0.1721  0.1901  0.0536
48879W        W91973  32.109  29.217   9.442  0.0768 -0.1141  0.0226
48880W        W91974  29.637  27.521   8.981  0.1885  0.2266 -0.1007
48881W        W91975  32.127  27.913   7.808 -0.2229  0.2389 -0.1699
48882W        W91976  32.170  26.919   8.376 -0.1065  0.1106 -0.0045
48883W        W91977  28.843  26.300   7.509 -0.3521  0.3381 -0.1485
48884W        W91978  32.215  29.822   8.165  0.1879 -0.0802 -0.0328
48885W        W91979  32.560  28.733   8.851  0.0722  0.1610 -0.0401
48886W        W91980  34.662  30.640   9.929 -0.2206  0.0217 -0.2036
48887W        W91981  31.804  27.266   6.612 -0.0793  0.3258  0.1279
48888W        W91982  28.422  28.551   9.263 -0.0986 -0.5179 -0.0618
48889W        W91983  32.139  24.193   8.716  0.2162  0.0984 -0.3181
48890W        W91984  28.226  27.182   9.584 -0.2162  0.1018  0.0787
48891W        W91985  31.306  26.076   9.369  0.0045  0.2311  0.1006
48892W        W91986  29.891  26.772   7.544 -0.2301 -0.0312  0.0063
48893W        W91987  30.376  26.436   7.484 -0.0646  0.1420  0.0175
48894W        W91988  31.250  25.038   9.162  0.0836  0.1192  0.2706
48895W        W91989  29.879  27.747   5.874 -0.0317  0.2673  0.0828
48896W        W91990  30.679  27.296   8.452 -0.1142  0.1690 -0.0368
48897W        W91991  30.767  28.417   8.023 -0.1236 -0.0995 -0.0313
48898W        W91992  31.342  27.431   6.975  0.0503 -0.1436  0.2258
48899W        W91993  30.690  26.303   9.944  0.2349  0.0693 -0.0690
48900W        W91994  29.984  24.956  10.643 -0.1337 -0.2057 -0.2167
48901W        W91995  32.311  26.254   9.482  0.2873  0.1414 -0.1967
48902W        W91996  32.067  26.263   9.044  0.3051  0.0476  0.0425
48903W        W91997  30.504  27.982   7.370  0.1980 -0.4177 -0.2396
48904W        W91998  32.375  28.806   9.306 -0.1703  0.0529 -0.1214
48905W        W91999  30.844  28.553   9.221  0.0085 -0.1562 -0.1529
48906W        W92000  29.795  28.792   8.752  0.1654  0.0359  0.1083
48907W        W92001  29.917  28.187   7.695 -0.2157 -0.1667  0.3085
48908W        W92002  33.344  28.266   9.271  0.1304 -0.2593 -0.0511
48909W        W92003  29.829  28.143   8.246 -0.0662 -0.0803 -0.0214
48910W        W92004  32.086  29.026   8.917 -0.4242  0.2430  0.0564
48911W        W92005  32.240  27.423   7.533 -0.0119  0.2552 -0.3116
48912W        W92006  29.039  29.202   7.649  0.5227  0.2696 -0.0402
48913W        W92007  32.123  28.748   9.745  0.1563 -0.1405  0.3482
48914W        W92008  29.701  28.609   9.218  0.1489 -0.2905  0.2231
48915W        W92009  28.922  29.301   8.304  0.3086  0.0187  0.1694
48916W        W92010  31.378  27.160   7.943 -0.0342  0.1368  0.0521
48917W        W92011  29.641  25.678   8.138 -0.0732 -0.0427  0.4205
48918W        W92012  32.608  26.557   9.701  0.1807  0.0575 -0.2954
48919W        W92013  31.768  24.706   9.548 -0.1768 -0.0907 -0.1139
48920W        W92014  30.735  28.650   8.635  0.1406  0.4452  0.1187
48921W        W92015  29.869  26.088   9.063  0.2317  0.2991 -0.0915
48922W        W92016  31.235  27.645   7.963 -0.0984  0.0733 -0.0821
48923W        W92017  31.764  26.112   9.647 -0.0065 -0.0793 -0.0296
48924W        W92018  30.265  31.307   9.850  0.3063  0.1871 -0.0951
48925W        W92019  29.520  27.167  10.123 -0.2449 -0.0227 -0.2466
48926W        W92020  31.810  29.788   7.191  0.0537  0.1688  0.1980
48927W        W92021  33.005  27.684   9.895 -0.3064  0.1431  0.0150
48928W        W92022  30.641  28.849   6.890  0.1355 -0.1877 -0.1549
48929W        W92023  29.555  26.896   8.559 -0.1505  0.0404 -0.0649
48930W        W92024  30.230  27.050   7.217 -0.0364 -0.3779 -0.0036
48931W        W92025  33.047  26.805   9.574 -0.0033  0.1042  0.1243
48932W        W92026  30.440  29.003   9.463  0.1652 -0.1041  0.0666
48933W        W92027  31.367  26.975  10.038  0.0386  0.1364 -0.2108
48934W        W92028  31.348  27.987   7.577 -0.0358  0.1650  0.0278
48935W        W92029  31.863  25.477   9.703 -0.0464  0.0048  0.0716
48936W        W92030  31.323  25.808   9.870  0.2063  0.4020 -0.1847
48937W        W92031  30.472  27.646   8.106 -0.0999 -0.0436  0.1690
48938W        W92032  29.603  26.541   8.927 -0.1756  0.1158  0.3079
48939W        W92033  33.337  27.901   8.693 -0.2920  0.1741  0.0834
48940W        W92034  33.204  26.834   7.901  0.1394 -0.0659 -0.3328
48941W        W92035  29.116  28.751  10.044  0.0311  0.2681 -0.2260
48942W        W92036  30.430  28.242   8.859  0.1600 -0.2636 -0.0041
48943W        W92037  30.064  28.267   9.355 -0.0093 -0.0748 -0.2576
48944W        W92038  30.819  26.812   8.153 -0.3537  0.1251 -0.1616
48945W        W92039  29.641  25.572   9.057 -0.1789  0.1950 -0.2786
48946W        W92040  31.811  27.113   9.829 -0.2270  0.3336  0.0525
48947W        W92041  31.577  25.684   9.392 -0.0831 -0.0634  0.0107
48948W        W92042  31.126  25.467  10.420  0.1721  0.0703 -0.0898
48949W        W92043  29.588  27.031   9.216  0.0272 -0.0745  0.0163
48950W        W92044  32.740  29.598   8.372  0.3824 -0.1119 -0.1946
48951W        W92045  32.688  26.800   8.184 -0.0640  0.0738 -0.1027
48952W        W92046  32.828  29.133   7.464 -0.0616  0.2524  0.0441
48953W        W92047  28.831  27.641   9.463  0.1167  0.0594  0.1196
48954W        W92048  29.306  26.379   7.693  0.0197  0.2381  0.0939
48955W        W92049  28.964  24.751   9.189  0.4573  0.0759 -0.1450
48956W        W92050  29.148  25.645   8.219  0.0505  0.1397 -0.0686
48957W        W92051  31.941  25.490   8.485  0.4085 -0.0806  0.0763
48958W        W92052  30.424  26.913   8.670 -0.0056 -0.0053 -0.1828
48959W        W92053  29.346  28.203   8.667 -0.0320  0.1596 -0.0401
48960W        W92054  31.222  28.575   7.812 -0.0486  0.1675 -0.1223
48961W        W92055   0.536  29.652  12.315 -0.3314 -0.3028 -0.0857
48962W        W92056  32.775  28.298   9.196 -0.0041 -0.0930  0.1307
48963W        W92057  30.195  26.705  10.131 -0.3057  0.4051  0.2685
48964W        W92058  30.022  25.616   7.838 -0.0784 -0.2026 -0.0115
48965W        W92059  28.927  29.493   8.840 -0.0803 -0.1208 -0.2453
48966W        W92060  31.723  27.572   7.775 -0.3543 -0.2172  0.3099
48967W        W92061  29.956  26.240   8.585  0.0328  0.3261 -0.1441
48968W        W92062  32.505  29.085   9.796 -0.1255  0.2528 -0.1057
48969W        W92063  31.206  28.173   8.039 -0.0774  0.0208 -0.1142
48970W        W92064  32.046  28.543   9.001  0.0933 -0.0141 -0.3634
48971W        W92065  31.566  28.372   8.820 -0.2254  0.0041  0.1171
48972W        W92066  29.639  26.379   7.348 -0.1644  0.1172  0.0898
48973W        W92067  32.557  29.282   9.145 -0.4367 -0.0448 -0.4668
48974W        W92068  30.290  28.648   7.814 -0.0115 -0.1894  0.1393
48975W        W92069  29.932  27.208   8.476  0.3983 -0.1040  0.0895
48976W        W92070  30.120  27.226   7.677 -0.0783 -0.3086  0.2250
48977W        W92071  31.241  26.552   8.973 -0.0942 -0.0937  0.1176
48978W        W92072  28.927  26.789   7.652  0.3026 -0.1153  0.0094
48979W        W92073  32.158  23.623   8.914  0.1505  0.2213  0.1934
48980W        W92074  31.771  26.560   8.243  0.2602 -0.2907  0.0071
48981W        W92075  32.547  27.567   7.097 -0.0903 -0.0633 -0.0331
48982W        W92076  31.673  26.895   6.898  0.0619  0.1700 -0.2235
48983W        W92077  31.760  25.415   8.983  0.1023  0.0708 -0.1582
48984W        W92078  32.630  27.857   9.319  0.0194  0.3568  0.3537
48985W        W92079  31.581  27.395   8.849  0.0080 -0.0493  0.0828
48986W        W92080  30.018  25.780   8.707  0.0686 -0.1581 -0.1161
48987W        W92081  33.043  28.348   8.789  0.1542 -0.0625 -0.0956
48988W        W92082  29.598  27.754  10.011 -0.1712 -0.0935 -0.2213
48989W        W92083  33.470  27.579   9.511  0.0300  0.0883 -0.0245
48990W        W92084  30.511  23.518   9.896 -0.2166  0.1461  0.1236
48991W        W92085  31.316  26.776   8.255  0.4413 -0.0492 -0.0397
48992W        W92086  30.479  25.152   9.808 -0.1679 -0.1259  0.0270
48993W        W92087  29.908  29.006   7.622 -0.3595 -0.2962  0.0333
48994W        W92088  33.073  25.198   9.749  0.1123 -0.0524 -0.2038
48995W        W92089  31.345  26.955   9.486 -0.1505  0.1569  0.2881
48996W        W92090  31.178  27.414   7.502 -0.1615 -0.0619  0.4175
48997W        W92091  33.929  29.499  10.153 -0.0631  0.0688  0.3668
48998W        W92092  30.286  27.607   7.053  0.1289 -0.1631  0.4755
48999W        W92093  31.649  26.411   9.217  0.2305  0.1163  0.0532
49000W        W92094  29.581  28.242   9.579  0.1562  0.1305 -0.0255
49001W        W92095  32.043  27.639   6.861  0.0795  0.0256  0.3128
49002W        W92096  30.373  25.923   9.205 -0.0858  0.0592  0.2087
49003W        W92097  30.637  29.677   7.708  0.1968  0.2280 -0.0286
49004W        W92098  30.802  27.232   7.970  0.1809 -0.1920  0.0621
49005W        W92099  30.930  23.780   9.748 -0.1575 -0.0611 -0.2756
49006W        W92100  31.191  28.923   9.438  0.2519  0.1853 -0.0533
49007W        W92101  30.828  28.880   7.772  0.1855 -0.0867 -0.1671
49008W        W92102  30.931  27.996   9.309 -0.2142 -0.4113 -0.0602
49009W        W92103  29.971  28.973   8.221  0.0258  0.1712  0.2725
49010W        W92104  31.548  27.856   8.964  0.2754 -0.3304 -0.2425
49011W        W92105  29.283  28.745   9.585  0.1144  0.0090  0.1903
49012W        W92106  29.872  26.116   8.139  0.0256 -0.0770 -0.0119
49013W        W92107  29.361  26.922   9.691  0.0890 -0.0240  0.2945
49014W        W92108  29.907  26.084  10.576  0.0084 -0.1532  0.2084
49015W        W92109  31.908  26.129   8.005  0.0544  0.0330  0.1716
49016W        W92110  30.887  26.808   9.296 -0.1401  0.0850 -0.1288
49017W        W92111  31.508  25.205   9.553 -0.2943 -0.1505  0.1262
49018W        W92112  30.458  27.768   9.354 -0.3871 -0.0079 -0.2930
49019W        W92113  32.488  25.348   8.986  0.1240  0.4519  0.2020
49020W        W92114  29.756  27.209   7.310  0.1130  0.2940  0.2031
49021W        W92115  31.307  27.856   9.564  0.0142 -0.1709 -0.1515
49022W        W92116  31.288  26.215   8.072  0.3864 -0.5661 -0.1680
49023W        W92117  28.408  29.275   8.084 -0.1009  0.0520 -0.0609
49024W        W92118   0.881  28.378   9.419 -0.2598 -0.0396  0.2766
49025W        W92119  30.530  26.921   7.708  0.0466 -0.0430 -0.2223
49026W        W92120  28.643  28.597   8.779 -0.1178  0.1653 -0.2012
49027W        W92121  32.601  27.005   9.445  0.0958 -0.1110  0.1231
49028W        W92122  30.211  27.330   8.831  0.0061  0.0613 -0.0970
49029W        W92123  29.934  28.283   8.801  0.0249 -0.1216 -0.2344
49030W        W92124  30.676  26.517   8.810  0.1075  0.3691 -0.0539
49031W        W92125  31.354  27.962   8.505 -0.2559  0.1162 -0.0925
49032W        W92126  31.395  25.111  10.232  0.3672  0.0365 -0.3062
49033W        W92127  28.314  23.563  10.062 -0.0793 -0.2201  0.1238
49034W        W92128  33.257  29.675   8.680 -0.0205  0.0673 -0.0390
49035W        W92129  30.870  26.262   8.344  0.0218  0.1114  0.3415
49036W        W92130  30.357  26.879   9.222  0.0495  0.1152  0.0865
49037W        W92131  29.691  27.632   7.026 -0.0172  0.0648  0.0308
49038W        W92132  30.555  25.436   9.398  0.0990  0.2812  0.1942
49039W        W92133  28.586  26.594   9.867  0.0413 -0.1714 -0.0374
49040W        W92134  29.973  27.222   6.822  0.0076 -0.1034  0.1378
49041W        W92135  29.107  29.367   9.876 -0.3437 -0.0600  0.0633
49042W        W92136  32.718  25.784   8.543  0.1081  0.1854 -0.0617
49043W        W92137  31.735  28.000   8.111 -0.3336 -0.0387  0.0710
49044W        W92138  31.235  27.092   9.022 -0.0291  0.0913 -0.2681
49045W        W92139  31.564  27.441   9.362 -0.0541  0.0200  0.0350
49046W        W92140  31.567  26.573   9.710  0.1339  0.3456 -0.4989
49047W        W92141  32.859  28.641   7.515  0.0067  0.0816  0.1594
49048W        W92142  31.181  25.419   8.767 -0.2294 -0.1821 -0.0493
49049W        W92143  31.573  25.070   8.665 -0.0322 -0.1441  0.1877
49050W        W92144  31.945  28.070   8.644 -0.0816 -0.3865 -0.0126
49051W        W92145  32.556  27.442   9.051 -0.2810 -0.0229 -0.1707
49052W        W92146  31.252  28.482   8.421  0.2465  0.1158  0.0731
49053W        W92147  32.669  26.440   9.178 -0.4403 -0.1259  0.0984
49054W        W92148  30.211  27.871   8.462  0.0068 -0.0831 -0.2249
49055W        W92149  31.434  26.343   8.592  0.0377 -0.2536 -0.0943
49056W        W92150  30.941  27.722   8.380  0.2513  0.0932  0.0438
49057W        W92151  29.826  29.479   8.695 -0.1078 -0.2684  0.2249
49058W        W92152  31.720  27.154   8.291 -0.1374  0.3835 -0.0241
49059W        W92153  32.125  23.012  10.237  0.1945  0.0498 -0.0549
49060W        W92154  33.474  29.487   9.849  0.3075 -0.1574 -0.0534
49061W        W92155  33.123  26.561   8.496 -0.1304 -0.3070 -0.0118
49062W        W92156  33.248  28.033  10.357  0.1482 -0.1159  0.2578
49063W        W92157  32.435  26.204   8.734  0.0115 -0.1151 -0.2320
49064W        W92158  31.393  26.570   7.743  0.0416  0.1522 -0.1089
49065W        W92159  27.862  26.035  10.166 -0.1575  0.0395 -0.2213
49066W        W92160  29.516  25.193   8.087 -0.1108 -0.3547 -0.1457
49067W        W92161  30.559  27.906   6.617 -0.3360 -0.0640  0.0267
49068W        W92162  33.119  27.848   7.907  0.3014  0.1618 -0.0808
49069W        W92163  31.700  27.626   8.425 -0.1096  0.0577  0.2140
49070W        W92164  29.327  26.019   9.043  0.4657 -0.4318 -0.0585
49071W        W92165  30.398  26.732   6.808  0.1851 -0.0168  0.1830
49072W        W92166  30.604  25.038   8.562 -0.1479  0.1240 -0.4101
49073W        W92167  33.111  26.831   8.965 -0.1411  0.2967 -0.3377
49074W        W92168  30.693  25.245   8.103 -0.0161 -0.3298 -0.1568
49075W        W92169  29.316  28.701   8.917 -0.1012  0.0828  0.0877
49076W        W92170  29.579  24.908   9.934 -0.1381  0.0206 -0.1215
49077W        W92171  30.726  28.989   9.073 -0.0646  0.2742  0.3606
49078W        W92172  29.377  29.184   8.759  0.1700  0.0822 -0.2546
49079W        W92173  31.299  27.263   8.441  0.0167 -0.1478 -0.0100
49080W        W92174  29.981  26.578   9.385  0.1899  0.1252 -0.0294
49081W        W92175  31.749  28.190   9.276  0.2820  0.0338 -0.2217
49082W        W92176  31.064  27.585   8.951 -0.0324  0.1414 -0.0344
49083W        W92177  32.238  28.110   8.263  0.0235 -0.1888 -0.2404
49084W        W92178  31.804  28.458   8.287  0.0761 -0.1482 -0.5613
49085W        W92179  31.567  29.093   9.061 -0.0422 -0.1565  0.2576
49086W        W92180  30.004  26.751   8.381  0.1065  0.0354  0.0694
49087W        W92181  30.561  28.896   8.190 -0.0317  0.4873 -0.1950
49088W        W92182  30.239  25.376  10.319  0.0186 -0.0136  0.0046
49089W        W92183  28.412  29.621   7.214  0.1079 -0.0718 -0.0416
49090W        W92184  31.916  29.728   8.589 -0.2803 -0.0203  0.2082
49091W        W92185  32.079  27.525   8.137 -0.0211 -0.1080  0.3499
49092W        W92186  31.732  28.692   9.369  0.0684 -0.0496 -0.0543
49093W        W92187  29.638  26.580   7.984  0.2461  0.0540  0.2462
49094W        W92188  30.231  28.441   8.366 -0.0426  0.3081  0.0848
49095W        W92189  29.051  28.563   8.518 -0.2376 -0.1509  0.0062
49096W        W92190  31.422  28.535   7.288  0.1041  0.3685  0.0552
49097W        W92191  29.402  29.679   9.160 -0.3353 -0.0817  0.0230
49098W        W92192  31.925  26.064   8.550 -0.0394 -0.0054 -0.0107
49099W        W92193  33.329  26.034  10.069  0.0704  0.3337 -0.0878
49100W        W92194  32.282  25.794   8.355  0.0605 -0.4149  0.1833
49101W        W92195  30.983  26.836   8.627 -0.2532 -0.1361 -0.1570
49102W        W92196  28.938  26.327   8.971 -0.2364 -0.1107 -0.0761
49103W        W92197  33.166  28.723   8.024  0.0827  0.0575 -0.0242
49104W        W92198  29.769  27.044   8.027  0.1086 -0.2070  0.1418
49105W        W92199  29.481  28.415  10.066 -0.0625 -0.2223 -0.0197
49106W        W92200  30.206  24.424  10.158 -0.0731  0.0398 -0.1356
49107W        W92201  30.574  28.364   6.902 -0.0240  0.0713  0.3217
49108W        W92202  30.029  25.264   9.668  0.0964  0.2188 -0.3151
49109W        W92203  30.339  28.654   9.120 -0.0510  0.0967 -0.1062
49110W        W92204  31.755  29.850   9.847  0.3030 -0.2353 -0.0839
49111W        W92205  32.085  28.879   8.131 -0.0391 -0.0628  0.2245
49112W        W92206  28.780  27.430   9.037 -0.4364  0.0301  0.1158
49113W        W92207  33.504  26.428   8.840 -0.1596  0.2863 -0.2689
49114W        W92208  30.082  27.287  10.103 -0.4284 -0.1116 -0.2136
49115W        W92209  30.126  28.446  10.065 -0.1032  0.2061  0.0414
49116W        W92210  32.287  26.395   8.300 -0.0449  0.1208 -0.2629
49117W        W92211  31.733  27.607   9.838 -0.4422 -0.1622  0.1685
49118W        W92212  26.609  27.056  10.228 -0.1371  0.3346 -0.0874
49119W        W92213  31.757  27.323   7.202 -0.2094 -0.0331  0.3089
49120W        W92214  32.189  27.092   6.128 -0.3014 -0.1221 -0.4525
49121W        W92215  29.098  25.147   8.457  0.0334  0.2097 -0.2007
49122W        W92216  31.206  25.941   8.783  0.0480  0.1271  0.1074
49123W        W92217  30.194  26.592   7.919 -0.0567  0.0181  0.0472
49124W        W92218  29.518  29.099  10.032  0.1769  0.4851 -0.0269
49125W        W92219  29.223  25.481   9.258 -0.2258  0.0803 -0.1351
49126W        W92220  32.936  28.091   7.433 -0.2357 -0.0158 -0.1369
49127W        W92221  31.069  25.336   9.856  0.4337  0.1843  0.0072
49128W        W92222  30.042  27.851   8.976 -0.0453  0.1760  0.0277
49129W        W92223  32.576  25.881   9.130 -0.0414 -0.4179 -0.3159
49130W        W92224  33.474  29.226   8.809 -0.1599  0.1219  0.0700
49131W        W92225  28.253  26.684   9.504  0.0983  0.0184  0.1533
49132W        W92226  30.920  29.312   9.632 -0.2689 -0.0987  0.0315
49133W        W92227  32.066  26.490   9.971 -0.2518  0.1947  0.1961
49134W        W92228  30.588  26.357   9.271  0.0688  0.0913 -0.0521
49135W        W92229  30.640  27.705   8.768  0.2434 -0.0310 -0.0776
49136W        W92230  28.342  29.601   7.745  0.2616  0.2922  0.1670
49137W        W92231  30.988  28.172   8.813  0.0145 -0.0548 -0.0012
49138W        W92232  31.649  27.748   6.647  0.0142  0.1672 -0.0246
49139W        W92233  31.147  29.215   8.704 -0.3505 -0.1156  0.0435
49140W        W92234  29.069  27.738   7.970 -0.0832 -0.2373 -0.1916
49141W        W92235  29.951  27.587   8.113 -0.0728  0.1952 -0.0232
49142W        W92236  31.330  29.043   6.968  0.3448 -0.3644  0.0577
49143W        W92237  33.018  29.273   9.584 -0.0111  0.0192  0.0480
49144W        W92238  31.945  27.123   7.821 -0.1006  0.4282 -0.0160
49145W        W92239  32.942  27.191   9.886  0.1441 -0.2610 -0.2665
49146W        W92240  30.297  24.970   9.374 -0.1053 -0.1550 -0.1988
49147W        W92241  32.647  25.859   9.632  0.3331  0.0398  0.0962
49148W        W92242  31.655  25.914   8.948 -0.4322 -0.0805 -0.0774
49149W        W92243  30.723  27.194   8.954 -0.1362 -0.0192  0.1464
49150W        W92244  29.175  26.998   7.256  0.1888  0.0205 -0.1538
49151W        W92245  30.062  27.666   7.594  0.0772 -0.1102 -0.2372
49152W        W92246  30.331  29.031  10.033 -0.0100  0.2330 -0.3588
49153W        W92247  29.456  26.400   8.513 -0.0258  0.0721 -0.3070
49154W        W92248  28.991  26.149   8.504  0.0818 -0.0587  0.0703
49155W        W92249  33.232  28.235   8.317 -0.0780 -0.4766  0.1067
49156W        W92250  30.731  23.856  10.201  0.0759  0.4248 -0.2141
49157W        W92251  28.462  26.543   9.106  0.1112  0.2088 -0.1013
49158W        W92252  33.334  28.895   9.203 -0.5880  0.1077  0.1065
49159W        W92253  32.891  29.162   8.714 -0.3434 -0.1551 -0.2921
49160W        W92254  31.628  24.224   8.418 -0.0567 -0.3241 -0.1117
49161W        W92255  29.753  29.417   6.768  0.0759  0.1697  0.0925
49162W        W92256  28.321  26.153   8.723  0.3415  0.1467 -0.2084
49163W        W92257  31.108  28.317   9.712 -0.0755  0.2772  0.2985
49164W        W92258  30.703  28.470   7.522  0.1359 -0.3992 -0.0678
49165W        W92259  32.568  30.032   8.625 -0.0622  0.0630  0.0424
49166W        W92260  25.576  25.668   9.877  0.2375  0.0923 -0.1399
49167W        W92261  32.606  27.374   8.061  0.0684  0.3893  0.1014
49168W        W92262  32.599  27.880   7.952 -0.0060  0.1419 -0.2308
49169W        W92263  31.729  24.961   9.149 -0.2965 -0.0545  0.3778
49170W        W92264  30.873  25.881   9.202 -0.1406  0.0470  0.0099
49171W        W92265  32.168  27.225   9.396 -0.1605  0.1460 -0.0656
49172W        W92266  29.484  26.589  10.383 -0.3741  0.3518 -0.3922
49173W        W92267  30.160  26.104   9.675  0.1506  0.2775 -0.4065
49174W        W92268  30.485  28.478   6.410  0.1587 -0.0500 -0.1678
49175W        W92269  28.873  26.581   9.452 -0.0450  0.1095  0.1994
49176W        W92270  31.033  25.777   8.340  0.4844  0.0282 -0.0979
49177W        W92271  32.107  27.683   9.440 -0.0171 -0.1414  0.0634
49178W        W92272  29.092  25.671   9.713  0.1714  0.0609 -0.1663
49179W        W92273  32.092  27.221   8.846  0.3266  0.1427 -0.1686
49180W        W92274  30.637  27.594   9.778  0.0104 -0.3900 -0.0431
49181W        W92275  32.066  27.696   8.943  0.0942 -0.1229  0.1367
49182W        W92276  30.253  24.427  10.757 -0.2171 -0.3740 -0.3915
49183W        W92277  29.938  27.009   9.707  0.4867 -0.0686 -0.3325
49184W        W92278  30.365  26.108   7.910  0.1893  0.4021  0.1305
49185W        W92279  29.589  27.440   7.739  0.0175  0.0436  0.1827
49186W        W92280  31.277  26.305  10.147  0.1145  0.0518 -0.0502
49187W        W92281  29.341  26.206   9.921 -0.0003  0.1046 -0.2289
49188W        W92282  32.193  25.758   8.839 -0.0041 -0.2516 -0.1544
49189W        W92283  31.031  30.208   8.550 -0.0610 -0.2960 -0.0614
49190W        W92284  32.417  27.732   8.529  0.1193 -0.1099 -0.3286
49191W        W92285  30.137  32.498   1.819  0.0368 -0.2347  0.1723
49192W        W92286  29.712  28.256   0.173 -0.1099 -0.0566 -0.0574
49193W        W92287  32.795  28.479   0.310 -0.0453  0.0511  0.0046
49194W        W92288  31.184  31.596  31.513 -0.3641 -0.1263  0.2998
49195W        W92289  28.070  28.717   0.465  0.0678  0.1967 -0.1626
49196W        W92290  31.284  32.349   0.317 -0.1875  0.0860  0.1339
49197W        W92291  30.143  30.482   4.297  0.1687 -0.0180  0.1339
49198W        W92292  31.919  31.755   2.047 -0.1144  0.0674  0.0188
49199W        W92293  32.109  31.142   1.416 -0.2098 -0.0001  0.4041
49200W        W92294  30.655  31.100  31.653  0.1203 -0.0984 -0.0134
49201W        W92295  31.268  30.527   1.676  0.3630 -0.0492  0.2201
49202W        W92296  30.374  32.062   2.895 -0.1861  0.0838 -0.2169
49203W        W92297  29.023  28.692   2.053 -0.2065  0.2406 -0.3844
49204W        W92298  28.505  27.887   3.514 -0.2231 -0.0277 -0.1500
49205W        W92299  32.717  31.235   1.199  0.0125  0.1512 -0.1179
49206W        W92300  30.124  32.456  31.343  0.0800  0.0635  0.2603
49207W        W92301  29.571  29.389   2.532  0.0795 -0.3159  0.1792
49208W        W92302  30.376  30.546   2.099  0.1110  0.1199  0.3339
49209W        W92303  31.206  32.323   0.845  0.2316 -0.1685 -0.1844
49210W        W92304  30.130  30.262   3.375  0.0649 -0.0610  0.2573
49211W        W92305  30.821  29.660   4.495  0.3388 -0.2336 -0.2844
49212W        W92306  30.693  33.192   0.086 -0.2353 -0.0963 -0.1145
49213W        W92307  29.644  30.611  31.009  0.0692 -0.1198  0.4734
49214W        W92308  29.065  29.646   3.324  0.0244  0.1282 -0.1510
49215W        W92309  29.983  29.892   2.432 -0.1703  0.2832  0.2006
49216W        W92310  31.376  29.332   2.475 -0.1625  0.3491 -0.1057
49217W        W92311  32.015  31.120   1.961  0.0769  0.2429 -0.0764
49218W        W92312  30.667  32.466   1.580 -0.0748 -0.0634 -0.3342
49219W        W92313  30.828  31.882   1.387  0.5772 -0.0366 -0.3000
49220W        W92314  31.564  29.494   2.003 -0.1276  0.0353 -0.1069
49221W        W92315  30.553  31.746   0.368 -0.3707  0.0857  0.3397
49222W        W92316  28.984  32.622   0.244 -0.2876 -0.2732  0.1522
49223W        W92317  29.522  31.864   1.430 -0.2528  0.1386 -0.0185
49224W        W92318  33.840  31.766   1.398  0.0424  0.2724 -0.0612
49225W        W92319  32.647  30.883   0.900 -0.1508  0.2395  0.0324
49226W        W92320  29.575  32.045   3.013 -0.2453  0.0420 -0.0865
49227W        W92321  30.602  30.337   0.385 -0.1271 -0.2311 -0.0942
49228W        W92322  31.326  31.589   2.743  0.1682  0.2468 -0.2654
49229W        W92323  30.467  32.867   2.185 -0.2228  0.0074  0.0073
49230W        W92324  30.594  30.980   2.251  0.2524  0.1571  0.1817
49231W        W92325  31.693  30.306   1.795  0.2046  0.3161 -0.1347
49232W        W92326  29.485  32.062   0.736  0.2078  0.2421  0.1091
49233W        W92327  30.722  30.768   1.824 -0.0942 -0.1160  0.0216
49234W        W92328  31.012  31.372   4.144  0.0436  0.1531 -0.1838
49235W        W92329  29.957  31.943   2.649 -0.0599  0.0693  0.3410
49236W        W92330  32.568  29.931   3.698  0.0786 -0.0530  0.0652
49237W        W92331  30.263  32.825  30.971 -0.0775 -0.1622  0.2216
49238W        W92332  31.153  30.765  31.607 -0.2202 -0.0878  0.0588
49239W        W92333  30.164  28.315   1.653 -0.1885  0.1180 -0.0447
49240W        W92334  31.005  29.299   0.852 -0.0846 -0.1304  0.2618
49241W        W92335  29.827  29.067   2.284  0.1325 -0.2556 -0.1266
49242W        W92336  29.371  32.278   1.271 -0.3789  0.0952  0.2007
49243W        W92337  30.915  27.950   3.295 -0.0039 -0.0232  0.0639
49244W        W92338  31.809  31.003   3.441 -0.1457 -0.0188 -0.1949
49245W        W92339  30.907  30.963   0.853 -0.1504  0.3533  0.0952
49246W        W92340  31.631  30.076   2.225  0.1800  0.0292 -0.2360
49247W        W92341  31.107  31.675   3.294 -0.1657 -0.2464  0.3028
49248W        W92342  29.228  30.160   4.182  0.1466  0.0696  0.2090
49249W        W92343  32.139  33.355  31.004  0.1305 -0.0600 -0.2784
49250W        W92344  32.181  32.515   1.517 -0.1045 -0.0385  0.1607
49251W        W92345  32.927  33.403  31.774 -0.2476 -0.0452 -0.2625
49252W        W92346  30.366  29.770   2.771 -0.0573  0.2377 -0.1567
49253W        W92347  29.145  32.025   2.763 -0.1130 -0.0618  0.0435
49254W        W92348  28.509  31.177   4.026 -0.0306 -0.1513 -0.1888
49255W        W92349  29.036  28.989  31.631 -0.0224 -0.0997 -0.1996
49256W        W92350  33.325  30.994   2.868  0.0964 -0.4849  0.0312
49257W        W92351  30.673  30.992   2.714  0.2096 -0.0224 -0.2215
49258W        W92352  32.434  29.721   1.340 -0.1696  0.0037 -0.0295
49259W        W92353  31.053  31.006   1.601 -0.0530 -0.0544  0.0222
49260W        W92354  31.235  33.216   3.876  0.1654  0.2379 -0.0389
49261W        W92355  31.025  31.909   0.422  0.3150  0.2631 -0.0821
49262W        W92356  32.685  29.940   3.121  0.1168 -0.0337 -0.1475
49263W        W92357  33.414  30.327   3.266  0.1689 -0.3326 -0.3342
49264W        W92358  29.538  30.262   0.406 -0.0479  0.3216 -0.2712
49265W        W92359  30.100  30.059   0.801 -0.1515 -0.1257 -0.0563
49266W        W92360  32.362  32.474   2.398 -0.0260 -0.0415  0.1657
49267W        W92361  32.643  31.638   0.876  0.0036 -0.1863  0.0764
49268W        W92362  29.230  32.137   1.803  0.0159 -0.0817 -0.2623
49269W        W92363  31.043  30.397   3.699  0.0454 -0.0403 -0.0204
49270W        W92364  31.434  31.347   3.529 -0.1297 -0.0571  0.1160
49271W        W92365  29.903  32.851  31.791  0.2568 -0.0380 -0.0563
49272W        W92366  30.157  31.499   3.306 -0.1427  0.1358 -0.1967
49273W        W92367  29.418  30.181  31.196  0.5285 -0.1362 -0.1393
49274W        W92368  29.056  29.567   4.573  0.2053  0.2048 -0.2564
49275W        W92369  30.828  31.918   1.978  0.1105  0.1308 -0.1562
49276W        W92370  32.539  30.247   2.169 -0.1620 -0.0117  0.0328
49277W        W92371  29.992  30.683   3.152  0.0678 -0.2211 -0.3609
49278W        W92372  31.929  28.702   2.060 -0.0381  0.2498 -0.0542
49279W        W92373  29.923  31.596   1.192 -0.1873 -0.0528 -0.3558
49280W        W92374  31.082  32.602   1.340 -0.2490  0.0799  0.2763
49281W        W92375  32.489  31.528   0.192 -0.1338  0.3179  0.2946
49282W        W92376  31.316  31.016   0.556 -0.2781 -0.0469 -0.1636
49283W        W92377  28.298  29.864   3.912  0.3325 -0.1992 -0.0222
49284W        W92378  28.692  30.320   0.402  0.1086 -0.2666  0.1299
49285W        W92379  30.313  31.015   4.018  0.2162  0.1311 -0.1532
49286W        W92380  29.535  29.461   3.484 -0.2412 -0.0689  0.2312
49287W        W92381  31.326  30.092   2.665  0.3538  0.2467 -0.1214
49288W        W92382  30.018  29.109   0.733 -0.0544  0.0967 -0.1120
49289W        W92383  31.423  29.030   1.998 -0.1120 -0.0830 -0.1117
49290W        W92384  29.989  30.447   0.502  0.1021 -0.3268  0.0265
49291W        W92385  30.154  31.269  31.704  0.0778 -0.0705  0.2453
49292W        W92386  32.157  29.276   3.255 -0.1254  0.1081 -0.0583
49293W        W92387  31.805  32.689   0.182  0.1697  0.1917 -0.0349
49294W        W92388  33.012  31.432   1.647 -0.3094  0.0952 -0.0475
49295W        W92389  33.028  32.379   1.711  0.3776  0.1665 -0.1453
49296W        W92390  30.379  29.835   3.293  0.0232  0.0763 -0.0013
49297W        W92391  29.806  28.779   0.345  0.1063 -0.0486 -0.2033
49298W        W92392  30.265  33.366   0.314  0.0601  0.0915  0.3401
49299W        W92393  29.708  32.243   1.695  0.0574 -0.1657 -0.3897
49300W        W92394  31.019  30.225   0.047 -0.3689  0.0055 -0.0039
49301W        W92395  32.188  32.766   0.508 -0.0555 -0.1139 -0.2284
49302W        W92396  31.465  29.749   0.673 -0.1929  0.1236  0.1236
49303W        W92397  29.644  31.665   3.485 -0.2008  0.1838  0.0846
49304W        W92398  32.235  29.774   3.341  0.0021 -0.1357  0.0189
49305W        W92399  32.308  31.097   2.527 -0.2214 -0.2775  0.2209
49306W        W92400  32.581  30.930   1.582  0.1664 -0.0107  0.2797
49307W        W92401  30.322  30.399  31.943  0.2380  0.1154  0.3892
49308W        W92402  30.372  31.986   1.220  0.1507 -0.3146 -0.1912
49309W        W92403  29.935  32.526   0.285 -0.0893  0.1776 -0.1593
49310W        W92404  30.289  30.925   1.769 -0.0263  0.0733  0.1244
49311W        W92405  30.427  32.285  31.959 -0.0492  0.0061 -0.2007
49312W        W92406  30.801  29.711   1.730 -0.0569  0.0385 -0.0444
49313W        W92407  28.602  30.767   5.000  0.2436 -0.0336  0.0599
49314W        W92408  30.910  30.365   3.060 -0.0228 -0.0841 -0.0456
49315W        W92409  29.060  30.249   0.053 -0.0576  0.1236 -0.0069
49316W        W92410  29.289  32.500   2.930  0.0232 -0.2254 -0.1881
49317W        W92411  29.989  28.543   2.425 -0.1627 -0.0384  0.2940
49318W        W92412  31.093  29.971   1.391  0.0515 -0.1479  0.0518
49319W        W92413  31.639  31.050   2.547 -0.3747  0.3096  0.1424
49320W        W92414  32.328  31.043   0.367  0.0265  0.2174  0.0218
49321W        W92415  31.388  28.859  31.923  0.1034  0.0962  0.0002
49322W        W92416  31.512  29.385  31.733  0.1636  0.1856 -0.1845
49323W        W92417  30.283  31.548   2.775 -0.0055  0.2420 -0.0974
49324W        W92418  31.365  30.756   1.161  0.2010 -0.2542 -0.0533
49325W        W92419  31.100  31.696   2.318 -0.3039  0.4298  0.1136
49326W        W92420  30.567  29.594  31.638 -0.1356 -0.2855  0.0881
49327W        W92421  32.750  32.408   1.291  0.1230  0.0256  0.0574
49328W        W92422  29.316  30.393   2.053  0.0563 -0.1070 -0.2258
49329W        W92423  31.396  31.064   3.921 -0.1121 -0.0331 -0.0658
49330W        W92424  30.775  31.443   1.072  0.1377  0.2424 -0.2833
49331W        W92425  31.339  28.214   2.466  0.0453 -0.2591 -0.1303
49332W        W92426  29.688  29.775  31.471  0.2669 -0.2534 -0.0504
49333W        W92427  31.422  32.074  31.542 -0.1825 -0.0690  0.0980
49334W        W92428  29.976  31.823  30.457 -0.2691  0.0573 -0.0416
49335W        W92429  32.721  29.407   2.123 -0.0831  0.0192 -0.1281
49336W        W92430  31.397  29.633   1.256 -0.0120 -0.4732 -0.0815
49337W        W92431  31.781  29.529   2.957  0.0872 -0.1229 -0.0156
49338W        W92432  33.063  30.581   2.945  0.0585 -0.2683 -0.1690
49339W        W92433  31.445  31.869   0.087 -0.0730 -0.0232  0.1437
49340W        W92434  31.072  30.773   2.217  0.0206  0.0076  0.2443
49341W        W92435  29.384  28.879   0.665  0.0740  0.5236 -0.0033
49342W        W92436  30.816  29.958   2.666  0.2944 -0.0017 -0.0041
49343W        W92437  29.514  30.509   3.083  0.0235 -0.0470 -0.1769
49344W        W92438  31.098  33.041   2.878 -0.2213  0.1121  0.0201
49345W        W92439  32.644  31.441   3.115 -0.0043 -0.2317 -0.0794
49346W        W92440  30.754  29.981   2.148  0.1432  0.3614  0.1267
49347W        W92441  31.817  29.982   3.141  0.2543 -0.0383  0.0127
49348W        W92442  30.289  30.679   2.579  0.2237  0.0219  0.3057
49349W        W92443  29.931  33.143   1.214 -0.2133  0.0909  0.1532
49350W        W92444  29.537  31.557   0.857  0.3049  0.0070 -0.0320
49351W        W92445  29.751  29.789   2.856  0.0499  0.0234  0.0772
49352W        W92446  31.044  32.638   2.597 -0.0109  0.0270 -0.4487
49353W        W92447  30.056  31.840  31.708 -0.2976  0.2077 -0.1806
49354W        W92448  32.027  30.610   2.332 -0.1091 -0.0708 -0.4829
49355W        W92449  29.402  32.820  31.569 -0.1679  0.0547  0.0402
49356W        W92450  32.226  29.322   2.501  0.2359  0.2404  0.0416
49357W        W92451  29.804  31.544   2.951  0.0254 -0.1024 -0.0566
49358W        W92452  29.405  29.662   1.379 -0.0729 -0.2857 -0.0139
49359W        W92453  29.580  30.809   0.585  0.1154 -0.1135  0.2894
49360W        W92454  32.167  29.579   0.242  0.0055  0.0870 -0.1082
49361W        W92455  32.329  32.017   0.072  0.0888  0.1388  0.0355
49362W        W92456  30.417  30.163   2.413 -0.0797  0.0532 -0.3730
49363W        W92457  30.751  30.227   1.756  0.0813 -0.0924  0.0158
49364W        W92458  29.490  30.231   1.646 -0.2670  0.0740 -0.0458
49365W        W92459  30.756  31.713   2.911 -0.1322  0.3146  0.0871
49366W        W92460  32.486  30.774   2.131 -0.0129 -0.1123  0.1644
49367W        W92461  32.292  32.736   1.957  0.2071  0.0364 -0.1082
49368W        W92462  30.966  29.989   3.396 -0.0432  0.3104 -0.1051
49369W        W92463  29.577  29.815   0.595  0.0782 -0.0889 -0.1250
49370W        W92464  33.025  29.619   3.694 -0.1904 -0.1745 -0.2289
49371W        W92465  30.285  30.018   1.858 -0.1791 -0.0594  0.2598
49372W        W92466  29.047  32.062   0.219  0.2283  0.3923  0.0617
49373W        W92467  32.492  32.171   2.837 -0.1700  0.0355 -0.0559
49374W        W92468  30.333  30.019  31.343  0.4023  0.0943 -0.0279
49375W        W92469  29.936  30.417   1.830  0.0503  0.1549  0.0300
49376W        W92470  30.312  31.018   3.401 -0.2458 -0.0959 -0.2163
49377W        W92471  31.317  29.938   1.826  0.2664  0.1310 -0.0821
49378W        W92472  30.120  28.992   1.612  0.2075 -0.0813 -0.0549
49379W        W92473  29.483  28.970   2.880  0.2077 -0.1883  0.1871
49380W        W92474  29.953  29.542   2.040  0.2662 -0.0167  0.0501
49381W        W92475  31.500  31.163   1.383  0.3253 -0.0185 -0.3207
49382W        W92476  30.399  29.298   2.976 -0.0616  0.1577 -0.1002
49383W        W92477  30.574  32.235   3.734 -0.1199 -0.2436 -0.1578
49384W        W92478  31.447  29.106   3.871 -0.0882  0.3110  0.1374
49385W        W92479  34.325  34.484   0.790 -0.3732  0.0169  0.2125
49386W        W92480  31.102  31.170   2.525 -0.0416 -0.1652  0.2894
49387W        W92481  30.143  30.219   1.286 -0.2379  0.0920  0.1468
49388W        W92482  27.847  30.935   3.668  0.1520  0.3814  0.0702
49389W        W92483  30.307  30.574   0.873  0.1723 -0.0754  0.3002
49390W        W92484  31.437  28.784   3.137  0.2235 -0.1316  0.1740
49391W        W92485  28.970  33.078   3.107 -0.1651 -0.0769  0.0248
49392W        W92486  30.932  31.460   0.554  0.0075  0.2288 -0.0549
49393W        W92487  29.949  30.838   2.135 -0.1830 -0.0188 -0.0181
49394W        W92488  31.951  29.349   1.275 -0.0723  0.1067  0.0004
49395W        W92489  30.659  31.197   0.150  0.2667  0.0711  0.0796
49396W        W92490  28.800  29.572   1.192  0.1568  0.0838  0.0048
49397W        W92491  32.467  30.609   2.622 -0.2771  0.1669  0.0384
49398W        W92492  30.502  33.041  31.331 -0.0714  0.0240 -0.2256
49399W        W92493  32.382  29.764   4.755  0.0129  0.2677  0.0545
49400W        W92494  30.911  28.944   2.433 -0.4912 -0.2358  0.2442
49401W        W92495  31.605  31.373   2.185  0.2290  0.0293  0.0896
49402W        W92496  29.386  29.938   3.679  0.2444  0.3328  0.1619
49403W        W92497  31.982  32.071   3.786  0.0280 -0.1673  0.1918
49404W        W92498  28.878  31.170   3.194  0.0063 -0.2247  0.1714
49405W        W92499  31.970  29.799   1.603  0.0420 -0.0741  0.2345
49406W        W92500  29.131  28.079  31.451 -0.1828 -0.3147  0.0192
49407W        W92501  30.067  28.950   2.840 -0.4210  0.1563 -0.1325
49408W        W92502  32.318  31.240   3.500 -0.0841  0.2364  0.0683
49409W        W92503  31.535  30.688   0.213  0.2465 -0.1199 -0.2480
49410W        W92504  32.890  29.905   2.386  0.3174 -0.1170 -0.1062
49411W        W92505  29.449  30.986   2.912 -0.0639  0.0611 -0.0510
49412W        W92506  32.211  31.696   0.664 -0.2406 -0.0796 -0.0858
49413W        W92507  30.102  30.778  31.582  0.1104  0.2022  0.2128
49414W        W92508  31.091  31.309   2.038  0.2931  0.4471  0.0774
49415W        W92509  30.294  28.872   3.309 -0.0612 -0.0918  0.0635
49416W        W92510  32.030  30.048   2.579  0.0547  0.2377  0.0175
49417W        W92511  31.317  30.105   0.929  0.0972  0.0268  0.0152
49418W        W92512  31.110  28.493   2.915 -0.0134  0.1727  0.4203
49419W        W92513  31.821  29.144   2.315  0.4308  0.2145  0.1151
49420W        W92514  29.933  30.245   2.828  0.1048  0.2010 -0.2334
49421W        W92515  28.790  30.229   4.428 -0.0098  0.2302  0.1191
49422W        W92516  32.006  32.451   2.862  0.1503 -0.1428 -0.0245
49423W        W92517  31.308  29.802   0.071 -0.0024 -0.1610 -0.2452
49424W        W92518  32.081  30.431   4.079 -0.1586 -0.1563 -0.0161
49425W        W92519  33.267  30.926   0.364 -0.0859 -0.4556 -0.0847
49426W        W92520  31.857  30.134   0.652  0.3264 -0.1064 -0.0702
49427W        W92521  29.228  31.277   2.423  0.2118 -0.2578  0.0194
49428W        W92522  31.385  30.315   3.346 -0.0583  0.0718  0.2625
49429W        W92523  29.101  30.049   0.603  0.0203 -0.4541  0.1024
49430W        W92524  31.567  30.528   3.818  0.1983  0.0199  0.1399
49431W        W92525  31.504  33.118   1.464  0.0115  0.2317  0.2341
49432W        W92526  30.488  29.552   2.132 -0.2297  0.5094 -0.4048
49433W        W92527  31.155  30.287   2.213 -0.1541 -0.0803  0.2385
49434W        W92528  30.173  29.381   2.542 -0.0266 -0.1363  0.2257
49435W        W92529  30.003  31.985   3.290 -0.2659 -0.0878  0.0525
49436W        W92530  28.062  30.257   0.424 -0.0742 -0.1570 -0.3414
49437W        W92531  31.029  29.607   0.392 -0.1559 -0.1559 -0.3421
49438W        W92532  31.603  31.297   3.050 -0.1439  0.1872  0.1711
49439W        W92533  33.511  30.339   3.763  0.1588 -0.3272 -0.0470
49440W        W92534  31.886  29.149   1.742  0.2126 -0.0181  0.1927
49441W        W92535  32.268  29.725   2.867 -0.1739  0.2003  0.2650
49442W        W92536  29.338  33.274  31.409  0.2362  0.1657  0.0762
49443W        W92537  31.738  29.065   3.425  0.0370  0.0062 -0.1354
49444W        W92538  30.207  31.769   2.217  0.3232  0.0430  0.0622
49445W        W92539  29.281  31.592   3.104  0.0058 -0.0273  0.0449
49446W        W92540  29.169  32.435   0.799  0.1383  0.1078 -0.3114
49447W        W92541  32.517  29.223   2.921 -0.0182 -0.1334  0.1509
49448W        W92542  32.502  30.120   2.684  0.0621  0.0161 -0.1366
49449W        W92543  31.277  30.662   2.697  0.0046  0.2823  0.4270
49450W        W92544  33.976  30.400   2.487 -0.0819  0.0920  0.0173
49451W        W92545  31.589  31.286   4.337  0.2210 -0.2186 -0.2021
49452W        W92546  29.799  30.500   0.957 -0.1718 -0.1328 -0.1085
49453W        W92547  32.330  31.717   3.717 -0.0475  0.0767 -0.0740
49454W        W92548  31.744  30.724   1.562  0.1650 -0.3435  0.1328
49455W        W92549  29.688  31.166   2.562 -0.1741  0.0082 -0.0288
49456W        W92550  28.163  29.246   3.502 -0.2368  0.1166  0.2077
49457W        W92551  31.281  30.569   4.188  0.2911 -0.1493  0.2055
49458W        W92552  32.405  29.760   2.373 -0.2444 -0.0201  0.0719
49459W        W92553  30.264  28.522   2.963 -0.1057  0.1854  0.1754
49460W        W92554  30.938  30.680  31.183  0.0397 -0.1327  0.1146
49461W        W92555  29.211  31.789   3.676  0.3058 -0.0458 -0.2324
49462W        W92556  28.741  30.698   3.129  0.0071 -0.1840  0.1486
49463W        W92557  30.512  32.398  31.034 -0.0140  0.1581 -0.0078
49464W        W92558  30.591  32.285   0.513  0.0136  0.0105 -0.2042
49465W        W92559  30.009  30.748   1.309  0.2997 -0.2525  0.1060
49466W        W92560  31.517  32.353   2.527  0.3735 -0.0977 -0.3870
49467W        W92561  31.575  29.323   0.913  0.2080 -0.1448 -0.0485
49468W        W92562  29.874  33.042   0.405 -0.2971  0.0858  0.0472
49469W        W92563  29.263  31.166   0.515  0.3754  0.0891  0.0946
49470W        W92564  32.828  32.338  31.951 -0.0614  0.0331  0.1491
49471W        W92565  30.382  33.895   0.553 -0.0586  0.1940  0.0405
49472W        W92566  32.227  32.899   4.196 -0.0516 -0.2053  0.0703
49473W        W92567  32.510  29.680  31.795  0.4156 -0.0477 -0.4334
49474W        W92568  32.682  30.440   3.245 -0.1698  0.0770  0.4564
49475W        W92569  31.706  30.704  31.595  0.1219 -0.0354 -0.1529
49476W        W92570  31.714  32.004   2.846 -0.2992 -0.3695  0.2039
49477W        W92571  29.630  29.974   2.101  0.0789  0.1996 -0.1587
49478W        W92572  29.192  29.651   0.300 -0.0778 -0.0746 -0.0127
49479W        W92573  28.422  30.945   3.385 -0.0471  0.1652  0.1014
49480W        W92574  33.829  29.137   4.458 -0.1742  0.1077 -0.0543
49481W        W92575  28.788  31.738   3.212  0.0201  0.2380 -0.0497
49482W        W92576  32.673  33.143  31.348 -0.3202  0.4350 -0.2293
49483W        W92577  30.468  29.284  30.973  0.2677 -0.0186  0.0091
49484W        W92578  29.334  29.845   2.519 -0.0183  0.2580 -0.0103
49485W        W92579  32.557  29.545   4.349 -0.1302  0.0712 -0.2184
49486W        W92580  30.601  30.815   0.511 -0.0502 -0.3068  0.0456
49487W        W92581  32.088  30.080   2.053  0.0785  0.3765 -0.0834
49488W        W92582  31.536  31.886   2.353 -0.3982 -0.0907 -0.1019
49489W        W92583  30.431  31.427   1.914  0.3280  0.1182 -0.1642
49490W        W92584  31.127  32.200   2.297  0.0390  0.0843  0.2751
49491W        W92585  28.500  28.583   0.356  0.1161  0.1291  0.0820
49492W        W92586  33.001  30.257   2.023  0.1052  0.2659 -0.3098
49493W        W92587  29.594  31.089   1.027 -0.0203 -0.1109  0.1480
49494W        W92588  32.787  29.984   4.210  0.2144 -0.2193 -0.1720
49495W        W92589  28.801  29.363   2.284  0.2171 -0.1278 -0.1050
49496W        W92590  32.214  30.213   1.545  0.2181  0.1262  0.0162
49497W        W92591  31.947  31.505   2.539 -0.0825 -0.0542 -0.1112
49498W        W92592  30.806  30.450   2.579  0.1811 -0.0266 -0.2857
49499W        W92593  31.023  28.937  31.590  0.1210  0.2112  0.0400
49500W        W92594  32.250  30.317   3.587 -0.0937  0.2486 -0.0447
49501W        W92595  30.986  30.458   0.984  0.1329  0.3545 -0.0700
49502W        W92596  30.935  33.175   3.269 -0.0660 -0.1483 -0.1203
49503W        W92597  28.684  29.967   1.500 -0.4409 -0.0673  0.3915
49504W        W92598  30.592  29.974  31.963 -0.2356 -0.0874 -0.2223
49505W        W92599  30.563  31.045   1.412 -0.0245 -0.4377  0.1903
49506W        W92600  30.732  29.433   2.552 -0.1004  0.0736 -0.2426
49507W        W92601  32.047  33.166   2.187 -0.0519  0.2969  0.1130
49508W        W92602  28.533  30.178   3.142 -0.1168 -0.0734  0.1585
49509W        W92603  31.657  32.492   0.729  0.5347 -0.1873 -0.2559
49510W        W92604  33.338  29.604   2.558 -0.3950 -0.1049  0.1516
49511W        W92605  30.309  33.269  31.755 -0.3136 -0.1354 -0.1119
49512W        W92606  31.536  30.615   2.154  0.3573 -0.0574 -0.0449
49513W        W92607  31.649  32.597   1.408  0.0384  0.2421  0.1664
49514W        W92608  30.580  31.328   3.096 -0.2165 -0.0058  0.1704
49515W        W92609  32.543  32.208   1.887 -0.2134  0.1350  0.1806
49516W        W92610  32.464  31.735   2.140  0.0876  0.1789 -0.1976
49517W        W92611  30.245  28.957   0.330  0.1762 -0.0767 -0.2388
49518W        W92612  29.924  30.361   2.343 -0.3209 -0.0255  0.0673
49519W        W92613  28.961  33.095   0.256  0.2021 -0.0308 -0.3112
49520W        W92614  32.909  28.900   2.034 -0.2194  0.0722 -0.0350
49521W        W92615  31.413  29.786   3.338 -0.2255  0.0587 -0.4831
49522W        W92616  30.175  32.947   0.788 -0.1329 -0.1565  0.2953
49523W        W92617  31.444  30.059   3.923 -0.0116 -0.3638 -0.0161
49524W        W92618  32.081  32.248   1.966 -0.1791 -0.1619 -0.1175
49525W        W92619  31.127  32.601   3.064  0.2586  0.1560  0.0042
49526W        W92620  31.139  30.985   0.050 -0.1366  0.3301  0.1218
49527W        W92621  30.863  31.435   1.589 -0.1580 -0.2248 -0.3502
49528W        W92622  30.187  31.185   1.084  0.3130  0.0969 -0.3680
49529W        W92623  30.362  32.763   0.261 -0.1418 -0.1030 -0.0032
49530W        W92624  32.370  30.599   1.228  0.0378  0.1366  0.0588
49531W        W92625  30.604  29.196   1.806  0.3133 -0.2275  0.0963
49532W        W92626  31.217  31.334   0.958 -0.2817  0.1577  0.0201
49533W        W92627  30.459  28.359   2.061 -0.2960 -0.1251 -0.0035
49534W        W92628  33.028  30.035   1.425 -0.1797 -0.0315  0.4833
49535W        W92629  31.457  30.203   0.371  0.1747  0.2448 -0.3825
49536W        W92630  30.197  31.238   2.404 -0.0203 -0.0563 -0.0021
49537W        W92631  29.115  29.222   0.575  0.3590  0.1073 -0.2562
49538W        W92632  30.776  30.671  31.969  0.0851 -0.3346  0.1294
49539W        W92633  30.134  31.812   3.747  0.1789  0.5762  0.0373
49540W        W92634  31.875  29.085   5.368  0.1150  0.2056 -0.3862
49541W        W92635  29.092  29.532   3.892  0.1756 -0.0406  0.2157
49542W        W92636  29.085  30.005   1.178  0.2206  0.1436  0.1066
49543W        W92637  29.720  28.522   0.898  0.0604  0.2327  0.0082
49544W        W92638  30.919  32.044  31.848 -0.1744 -0.1041  0.0901
49545W        W92639  31.110  29.352   1.672 -0.0751 -0.1354  0.0609
49546W        W92640  28.304  29.705   1.175 -0.1341  0.1076 -0.1193
49547W        W92641  31.688  31.076   0.872  0.2698 -0.0565  0.1788
49548W        W92642  31.211  31.877   0.904  0.4280 -0.0805  0.1767
49549W        W92643  30.533  29.453   0.855  0.1168 -0.2378  0.0572
49550W        W92644  32.004  32.998   2.838  0.0109  0.1613  0.3157
49551W        W92645  29.549  31.673   0.357  0.3539  0.2842 -0.0636
49552W        W92646  30.846  31.710   4.409  0.1291 -0.0068 -0.0460
49553W        W92647  29.935  31.277   3.749  0.1901 -0.2914  0.0036
49554W        W92648  29.250  28.039  31.949 -0.2875  0.0529  0.4466
49555W        W92649  30.946  29.404   2.111 -0.0906  0.0904  0.0499
49556W        W92650  30.504  31.275   0.633  0.0228 -0.2036  0.1048
49557W        W92651  31.748  32.043   1.632 -0.0246 -0.0650 -0.2873
49558W        W92652  30.695  31.948   2.478 -0.2441 -0.3274 -0.1906
49559W        W92653  31.050  31.041   3.053  0.0506 -0.0126  0.2696
49560W        W92654  29.840  30.931   4.232 -0.2076  0.1947 -0.0795
49561W        W92655  31.051  31.491   0.057 -0.1026  0.1123  0.1618
49562W        W92656  29.810  31.142   3.294 -0.2101  0.1077 -0.0618
49563W        W92657  32.403  32.087   1.024  0.2564  0.1930  0.2691
49564W        W92658  33.354  28.681   1.875 -0.0545  0.0962 -0.0517
49565W        W92659  31.570  30.219   1.370  0.0865 -0.0222  0.0749
49566W        W92660  30.388  29.141   3.860 -0.0793 -0.0656 -0.0484
49567W        W92661  29.619  32.115   3.608  0.2687 -0.0265 -0.1436
49568W        W92662  31.989  30.799   2.866 -0.1903  0.0267 -0.1586
49569W        W92663  29.481  30.311   2.643  0.0153 -0.0687  0.3530
49570W        W92664  31.830  29.078   2.810 -0.2441 -0.1540 -0.0330
49571W        W92665  31.357  31.799   1.865  0.1385 -0.1773 -0.0329
49572W        W92666  28.340  30.283   1.654 -0.1038 -0.3315  0.5313
49573W        W92667  29.701  29.403   1.010  0.0348 -0.2903  0.0771
49574W        W92668  31.228  29.776   2.279 -0.0983 -0.1831 -0.1250
49575W        W92669  29.979  31.235   1.578 -0.2617 -0.0195  0.0373
49576W        W92670  31.356  31.692   4.197 -0.0957  0.2296  0.3708
49577W        W92671  32.437  29.071   1.127  0.3395 -0.3062  0.1821
49578W        W92672  31.455  31.504   0.474  0.1304  0.1688  0.0022
49579W        W92673  31.927  32.748   2.433 -0.2537  0.4639 -0.1004
49580W        W92674  32.342  32.582   5.145  0.0233 -0.0515  0.1570
49581W        W92675  31.042  32.135   2.772  0.3782 -0.0883  0.1404
49582W        W92676  32.109  32.022   2.536  0.1384 -0.0414 -0.1071
49583W        W92677  28.927  27.874   3.765 -0.0359 -0.0849  0.2223
49584W        W92678  28.602  29.072   0.511 -0.3590 -0.2268 -0.0001
49585W        W92679  29.860  29.343   3.090  0.5968 -0.2181  0.1098
49586W        W92680  32.790  29.643   2.749  0.1021  0.2836  0.0877
49587W        W92681  30.707  28.777   2.010  0.1349 -0.2293 -0.0056
49588W        W92682  32.729  29.653   0.438 -0.1423  0.1588 -0.2219
49589W        W92683  31.333  32.123   3.286 -0.0399 -0.2586 -0.0429
49590W        W92684  30.444  30.207   2.981 -0.0005 -0.1664  0.3377
49591W        W92685  29.421  32.228   6.024 -0.3204  0.2864 -0.4397
49592W        W92686  31.107  30.499   4.684 -0.0400  0.1694 -0.0429
49593W        W92687  31.680  30.379   4.439  0.1826 -0.0445  0.1360
49594W        W92688  33.170  31.166   4.779  0.2565  0.1408  0.1659
49595W        W92689  29.335  29.620   4.976 -0.0478 -0.1289  0.1048
49596W        W92690  31.916  31.982   5.306 -0.1637 -0.0965 -0.0697
49597W        W92691  30.714  29.656   6.630  0.0212  0.0391  0.2516
49598W        W92692  32.761  31.786   4.741  0.1940  0.3727 -0.2230
49599W        W92693  31.842  32.157   6.143  0.0591 -0.1421  0.1923
49600W        W92694  32.256  31.834   4.820  0.1370 -0.0622  0.1303
49601W        W92695  29.231  30.688   7.195 -0.0429  0.0628  0.1073
49602W        W92696  30.352  32.206   6.655  0.1082 -0.1093 -0.2463
49603W        W92697  30.228  30.668   3.728 -0.0048  0.2648  0.0744
49604W        W92698  30.631  27.694   5.332  0.0181 -0.0448  0.0537
49605W        W92699  31.777  30.866   5.942  0.2564 -0.4648 -0.0998
49606W        W92700  29.252  31.819   5.001  0.2838  0.0517  0.0119
49607W        W92701  30.352  29.839   6.318 -0.2479 -0.0281 -0.1380
49608W        W92702  29.694  30.371   4.052 -0.2716  0.2455 -0.0651
49609W        W92703  32.031  32.611   5.987 -0.0482  0.2166  0.3934
49610W        W92704  31.549  29.860   6.385  0.1464  0.1103 -0.2602
49611W        W92705  31.299  29.645   7.245 -0.0978 -0.2053 -0.0407
49612W        W92706  31.662  31.619   4.749 -0.2605  0.0085  0.1577
49613W        W92707  29.281  30.758   4.077  0.0761  0.0164  0.0411
49614W        W92708  30.470  31.039   5.075  0.1645  0.3283 -0.1880
49615W        W92709  28.935  30.400   6.820  0.2346  0.2546  0.1575
49616W        W92710  30.667  30.801   5.950  0.0724 -0.2248  0.2164
49617W        W92711  33.831  30.911   5.342 -0.0630  0.1948 -0.0217
49618W        W92712  30.153  31.981   7.079 -0.0621  0.1206 -0.3077
49619W        W92713  32.937  31.970   5.168  0.0160 -0.2165  0.1394
49620W        W92714  31.778  31.496   7.448 -0.1475 -0.0017 -0.1621
49621W        W92715  30.534  32.032   5.500  0.0594  0.2242  0.2043
49622W        W92716  29.841  32.529   4.358 -0.1894 -0.1529  0.0906
49623W        W92717  29.622  31.551   4.445 -0.2621 -0.1748 -0.3793
49624W        W92718  33.229  32.840   4.087 -0.0189 -0.0079 -0.1682
49625W        W92719  32.836  32.541   5.850 -0.0068 -0.1174 -0.0876
49626W        W92720  31.077  32.537   9.167 -0.0646 -0.0042 -0.0052
49627W        W92721  29.251  31.262   3.567 -0.0560  0.1715 -0.1283
49628W        W92722  31.431  33.007   6.347  0.0543  0.1490 -0.2348
49629W        W92723  29.878  32.332   6.716 -0.0793 -0.0463 -0.0669
49630W        W92724  31.945  30.526   6.420 -0.0576 -0.0509 -0.1277
49631W        W92725  30.764  30.321   5.574 -0.2494  0.2056 -0.1253
49632W        W92726  29.976  31.972   4.472  0.2593  0.1121 -0.0652
49633W        W92727  30.436  30.642   5.405 -0.2862  0.0616  0.4185
49634W        W92728  31.373  31.594   8.300 -0.1811  0.0746  0.2464
49635W        W92729  30.281  31.305   6.064  0.1103 -0.2236 -0.1315
49636W        W92730  32.946  29.965   7.394  0.1091 -0.0411 -0.3462
49637W        W92731  29.462  33.071   4.160 -0.0114  0.0022 -0.0198
49638W        W92732  31.915  31.580   3.414 -0.3179  0.2630  0.3083
49639W        W92733  30.124  30.061   4.636 -0.3170 -0.0546 -0.1452
49640W        W92734  32.563  30.449   3.976 -0.2322  0.0752  0.1054
49641W        W92735  30.698  29.414   5.073  0.1501  0.0538  0.1301
49642W        W92736  29.291  32.902   4.746  0.1350 -0.2686 -0.1221
49643W        W92737  29.775  28.950   6.531  0.1166  0.0354 -0.1333
49644W        W92738  31.908  32.153   6.639  0.2225 -0.2703 -0.0948
49645W        W92739  32.864  31.463   5.106  0.0513 -0.1589 -0.2325
49646W        W92740  32.742  31.168   5.555  0.3646  0.4627 -0.0070
49647W        W92741  30.481  32.128   6.176 -0.0396  0.0104 -0.0827
49648W        W92742  29.679  29.640   5.503  0.0093  0.1435  0.0370
49649W        W92743  32.479  32.759   2.881 -0.2809  0.0325  0.1027
49650W        W92744  33.425  32.731   3.569 -0.1359  0.0420 -0.0830
49651W        W92745  30.502  31.849   4.045 -0.1265  0.0568  0.1761
49652W        W92746  29.199  30.449   4.615 -0.2198  0.1468 -0.3416
49653W        W92747  30.525  31.696   5.853 -0.0823  0.1408  0.0332
49654W        W92748  30.664  30.243   6.435 -0.0567 -0.1933 -0.0587
49655W        W92749  31.024  30.922   4.393 -0.3704  0.1499  0.0049
49656W        W92750  33.077  30.895   5.823 -0.0230 -0.0188  0.1571
49657W        W92751  28.950  32.736   6.094 -0.1721  0.0758  0.2846
49658W        W92752  32.812  30.430   4.382 -0.2271 -0.0398  0.0752
49659W        W92753  30.089  31.360   6.576  0.1157 -0.1145  0.0459
49660W        W92754  32.867  31.972   6.623 -0.3631 -0.0006 -0.1224
49661W        W92755  32.417  32.227   3.461 -0.2974 -0.0870 -0.1023
49662W        W92756  32.265  28.640   6.808 -0.1379  0.3523  0.2998
49663W        W92757  32.670  30.719   7.303 -0.1745 -0.1975 -0.0611
49664W        W92758  28.889  30.878   3.695 -0.0662  0.0521 -0.0830
49665W        W92759  28.986  31.164   4.183  0.2214  0.0179  0.1098
49666W        W92760  33.322  31.563   5.106 -0.0463  0.1422  0.1843
49667W        W92761  32.106  30.832   3.789 -0.0116  0.0289 -0.0721
49668W        W92762  30.632  32.607   6.514 -0.0072 -0.1752 -0.4625
49669W        W92763  31.082  29.831   6.272 -0.1762  0.0568 -0.1285
49670W        W92764  30.768  32.189   7.402 -0.1013  0.1247 -0.0727
49671W        W92765  30.264  32.515   3.274 -0.0272  0.2608  0.0130
49672W        W92766  29.596  31.574   5.392 -0.0844 -0.1403  0.4815
49673W        W92767  29.360  31.948   4.517 -0.3308  0.0798  0.0065
49674W        W92768  29.513  29.210   5.641  0.1106 -0.0844  0.1805
49675W        W92769  30.536  31.215   6.601  0.2705  0.2981 -0.0884
49676W        W92770  33.248  30.890   4.397  0.1989  0.1893  0.0066
49677W        W92771  30.175  29.845   7.356 -0.0706 -0.1919  0.3744
49678W        W92772  33.218  30.278   5.726  0.3124 -0.3386  0.1267
49679W        W92773  29.515  31.354   4.931  0.4895  0.0171  0.2395
49680W        W92774  31.448  32.768   4.010 -0.0053 -0.1777  0.1641
49681W        W92775  32.318  31.516   4.401 -0.1330 -0.0804 -0.1459
49682W        W92776  31.911  32.146   3.313 -0.3042 -0.2054 -0.0809
49683W        W92777  28.107  30.551   5.071 -0.0812 -0.1269 -0.1242
49684W        W92778  30.014  29.061   5.536 -0.0733  0.0795 -0.2069
49685W        W92779  31.153  29.396   6.533 -0.0963 -0.3245  0.1293
49686W        W92780  28.925  28.267   4.593 -0.3385 -0.1847 -0.2278
49687W        W92781  32.818  30.623   6.241  0.0668  0.0780  0.1502
49688W        W92782  29.937  29.324   4.174  0.1397  0.0540  0.0445
49689W        W92783  32.360  30.175   4.502  0.0820 -0.2331  0.3716
49690W        W92784  30.724  31.232   5.711  0.1708 -0.0725  0.0636
49691W        W92785  29.080  31.095   4.975 -0.0668 -0.0888  0.2874
49692W        W92786  33.312  29.129   7.743  0.1567 -0.1722  0.1366
49693W        W92787  30.915  32.709   3.879 -0.1636  0.1361  0.1078
49694W        W92788  31.819  32.906   6.785 -0.0980  0.0712 -0.0608
49695W        W92789  32.327  31.551   5.288 -0.0183  0.3699 -0.1959
49696W        W92790  30.156  29.713   5.893  0.1388  0.0002 -0.1534
49697W        W92791  30.475  29.837   4.841 -0.1968  0.0087  0.1786
49698W        W92792  28.597  34.248   5.426  0.2266  0.0591 -0.0033
49699W        W92793  31.291  31.252   7.126  0.3287  0.2012  0.0053
49700W        W92794  30.331  29.719   4.270  0.0791  0.1084 -0.2478
49701W        W92795  33.134  33.246   5.805  0.3680 -0.3751 -0.0677
49702W        W92796  30.663  31.370   4.819 -0.0712 -0.0371  0.0200
49703W        W92797  29.799  31.057   6.174  0.1593  0.0496  0.0362
49704W        W92798  30.839  29.397   6.078 -0.1575  0.0099 -0.1268
49705W        W92799  31.332  30.589   5.686  0.1291  0.2157 -0.0676
49706W        W92800  31.533  30.793   3.052 -0.1443 -0.1492  0.0968
49707W        W92801  29.606  28.676   4.132 -0.0674  0.2752 -0.0797
49708W        W92802  32.831  32.452   5.385  0.1358  0.0817 -0.0705
49709W        W92803  29.777  33.007   4.586  0.0347 -0.0243 -0.0712
49710W        W92804  30.434  30.344   5.926  0.2312 -0.0644 -0.1081
49711W        W92805  31.093  31.046   6.016  0.0118 -0.0864  0.0914
49712W        W92806  32.088  31.130   4.275 -0.0175 -0.3497 -0.0546
49713W        W92807  30.344  31.522   6.976 -0.0184 -0.0103 -0.0382
49714W        W92808  32.265  30.930   5.788 -0.0769 -0.0660  0.3535
49715W        W92809  29.389  29.093   3.996  0.3524 -0.1528  0.2435
49716W        W92810  29.843  32.559   7.292  0.0878  0.1403  0.1070
49717W        W92811  32.228  30.387   5.608 -0.2726  0.3782  0.0550
49718W        W92812  32.867  30.906   4.046 -0.0096  0.0076  0.2190
49719W        W92813  31.708  31.882   8.586 -0.0714 -0.1167  0.5341
49720W        W92814  32.752  32.381   4.830 -0.1639  0.2130  0.0239
49721W        W92815  31.798  29.548   3.503 -0.2388  0.0122  0.0203
49722W        W92816  31.940  31.116   4.808 -0.0036 -0.1643  0.0440
49723W        W92817  30.492  32.456   7.854 -0.2000 -0.1482 -0.2876
49724W        W92818  30.329  32.901   4.924 -0.2593 -0.0205  0.3129
49725W        W92819  31.027  31.167   6.565 -0.1636  0.4584  0.0931
49726W        W92820  31.326  30.848   3.487  0.0790 -0.1583 -0.2077
49727W        W92821  33.063  33.050   2.271  0.2954 -0.0874 -0.0320
49728W        W92822  30.273  30.995   6.940  0.5525  0.1902  0.1486
49729W        W92823  31.219  32.084   8.379  0.0960  0.2112  0.0651
49730W        W92824  31.407  32.139   4.667 -0.0022 -0.2320 -0.1312
49731W        W92825  30.158  28.193   6.112  0.1108 -0.0160  0.2288
49732W        W92826  30.467  30.667   3.065  0.3069  0.0837 -0.1575
49733W        W92827  31.693  30.261   5.418  0.0283  0.0909  0.0269
49734W        W92828  30.035  32.588   3.659  0.2809 -0.3551  0.0946
49735W        W92829  32.060  30.527   7.015 -0.1851 -0.1296  0.2076
49736W        W92830  32.816  30.102   5.473  0.2768  0.1894  0.1324
49737W        W92831  30.687  28.824   6.014  0.0238 -0.0402  0.1585
49738W        W92832  33.363  30.528   6.169 -0.1804  0.2272 -0.3098
49739W        W92833  33.196  30.103   5.080  0.2579 -0.0346 -0.1403
49740W        W92834  30.649  30.523   4.988 -0.2571  0.0572  0.1101
49741W        W92835  28.741  29.775   4.218 -0.4771  0.1521  0.3808
49742W        W92836  31.518  29.927   5.893 -0.1115  0.0749  0.0675
49743W        W92837  30.130  30.392   6.335  0.1015  0.0410 -0.3048
49744W        W92838  29.503  32.778   5.513  0.0151 -0.2304  0.2408
49745W        W92839  31.497  31.312   6.099  0.1118  0.4686  0.2804
49746W        W92840  30.383  32.365   4.933  0.3744  0.0283 -0.1335
49747W        W92841  32.504  30.574   6.678 -0.1521 -0.2121  0.2543
49748W        W92842  31.492  30.885   4.665 -0.6153 -0.0708 -0.0933
49749W        W92843  29.570  32.175   4.126  0.2476 -0.0230 -0.0341
49750W        W92844  30.482  31.417   3.786  0.1271 -0.0049 -0.1369
49751W        W92845  30.969  27.484   5.891 -0.1966 -0.1143 -0.0497
49752W        W92846  31.547  32.494   6.908 -0.0098 -0.1619 -0.1739
49753W        W92847  29.648  31.680   3.966 -0.0714  0.2339  0.2084
49754W        W92848  32.023  31.950   7.571 -0.4141 -0.1505 -0.1645
49755W        W92849  29.888  32.183   6.226  0.4450  0.4113 -0.1969
49756W        W92850  31.665  29.275   7.349  0.0516  0.1589 -0.1372
49757W        W92851  28.980  32.236   5.149 -0.3385 -0.0567 -0.0359
49758W        W92852  30.605  30.127   4.378 -0.0471  0.0095 -0.1438
49759W        W92853  29.582  29.610   3.998  0.1799 -0.3242 -0.2247
49760W        W92854  31.187  29.588   5.728 -0.0990  0.0667  0.0237
49761W        W92855  32.448  31.172   3.959  0.0698  0.1949  0.0981
49762W        W92856  29.726  29.338   5.008 -0.0513  0.0362 -0.0421
49763W        W92857  30.974  30.070   4.823 -0.2824 -0.0187 -0.1600
49764W        W92858  29.775  32.537   5.923 -0.1634  0.0907 -0.1054
49765W        W92859  31.830  31.929   7.114  0.1169 -0.3496 -0.1273
49766W        W92860  31.718  30.375   2.793 -0.1451 -0.4581  0.1743
49767W        W92861  32.303  31.318   6.626 -0.2370 -0.0038  0.0327
49768W        W92862  30.085  30.482   7.240  0.2734 -0.3697  0.0535
49769W        W92863  30.172  30.128   3.879  0.2196  0.0416 -0.0448
49770W        W92864  32.218  30.180   6.619  0.1496 -0.0510  0.1583
49771W        W92865  30.814  29.299   5.614  0.3037  0.0757 -0.0825
49772W        W92866  29.720  32.041   5.659  0.1153 -0.3497 -0.1456
49773W        W92867  32.428  32.126   5.306  0.2474 -0.1148  0.1579
49774W        W92868  30.063  31.290   5.154 -0.0104 -0.2820 -0.1343
49775W        W92869  31.085  31.789   4.891  0.1765  0.1624 -0.1551
49776W        W92870  29.893  29.811   6.508 -0.0610 -0.0032  0.1892
49777W        W92871  32.315  30.868   6.289 -0.1979  0.2014 -0.0056
49778W        W92872  31.072  30.274   6.019 -0.0360 -0.1519  0.2258
49779W        W92873  30.552  28.922   5.417 -0.0417 -0.3130 -0.0628
49780W        W92874  30.868  30.684   6.486 -0.2205 -0.2870 -0.5196
49781W        W92875  33.728  31.781   4.755  0.0298 -0.0149  0.1292
49782W        W92876  30.133  30.743   5.859 -0.1199  0.0739 -0.5253
49783W        W92877  30.191  32.807   6.701 -0.1209  0.3102 -0.2375
49784W        W92878  29.676  27.870   6.258  0.0837  0.0486 -0.3630
49785W        W92879  32.323  32.529   3.937 -0.0400 -0.0621  0.3155
49786W        W92880  33.157  30.566   5.300 -0.1840  0.3344  0.0346
49787W        W92881  31.222  31.333   4.695 -0.2267  0.2322 -0.0762
49788W        W92882  26.606  32.067   4.715  0.1229 -0.5181 -0.0101
49789W        W92883  30.890  32.193   4.144 -0.1832  0.1885 -0.0339
49790W        W92884  30.100  28.629   5.345 -0.0428 -0.2981  0.3196
49791W        W92885  29.677  31.088   5.404  0.3468  0.0947 -0.1850
49792W        W92886  30.198  31.625   4.818 -0.2161  0.0133  0.0292
49793W        W92887  30.101  31.732   6.194 -0.0137  0.0755  0.2737
49794W        W92888  33.167  30.006   4.528  0.2581 -0.1160 -0.0491
49795W        W92889  31.772  30.574   4.935  0.1000 -0.0968 -0.2087
49796W        W92890  31.455  30.126   4.963 -0.3597 -0.1786 -0.2476
49797W        W92891  33.046  31.018   7.532  0.1106 -0.0835  0.0189
49798W        W92892  31.326  29.655   2.858  0.0373  0.2528  0.0168
49799W        W92893  31.975  30.262   8.451  0.1118  0.2438 -0.0626
49800W        W92894  29.988  28.167   4.773  0.1985  0.2102 -0.0955
49801W        W92895  31.878  32.491   4.152 -0.2535  0.0535 -0.0466
49802W        W92896  29.902  30.767   6.632 -0.1159 -0.1713  0.6160
49803W        W92897  30.537  34.353   8.397 -0.2616 -0.3389  0.3160
49804W        W92898  30.658  31.953   6.979  0.0605 -0.1784  0.2160
49805W        W92899  31.587  29.732   5.397 -0.0879 -0.0115 -0.1626
49806W        W92900  30.615  30.641   4.514 -0.0747 -0.3133  0.0359
49807W        W92901  31.395  30.921   7.777  0.0368  0.1505 -0.2004
49808W        W92902  30.341  32.616   4.481  0.1875 -0.2180  0.2525
49809W        W92903  30.534  31.799   3.417  0.0607 -0.0377  0.0288
49810W        W92904  32.438  31.280   4.832 -0.0991  0.0521 -0.2039
49811W        W92905  28.581  31.219   6.661 -0.2217  0.1727  0.1156
49812W        W92906  30.953  31.245   3.575  0.4596 -0.1500  0.1681
49813W        W92907  31.743  30.792   4.189  0.2232 -0.0171 -0.2252
49814W        W92908  30.988  31.293   5.220 -0.1538 -0.0795 -0.0220
49815W        W92909  31.020  28.907   6.520 -0.0118 -0.0562 -0.1545
49816W        W92910  30.950  32.208   5.196  0.1936  0.1312 -0.2363
49817W        W92911  32.218  29.905   4.131  0.3162  0.0686  0.0861
49818W        W92912  31.525  30.824   6.851 -0.1245 -0.1456  0.3242
49819W        W92913  31.221  30.084   5.430 -0.1189  0.3348  0.0334
49820W        W92914  31.002  32.483   8.560  0.1622  0.2901  0.2308
49821W        W92915  30.288  29.204   7.861 -0.0168  0.1972  0.1039
49822W        W92916  33.928  32.719   5.683 -0.1012 -0.1289  0.1264
49823W        W92917  32.917  31.319   4.377 -0.0919  0.4516  0.1144
49824W        W92918  32.589  30.688   7.852  0.1465  0.0792  0.2016
49825W        W92919  33.536  31.976   4.244  0.1088 -0.0534 -0.0503
49826W        W92920  31.648  29.816   4.313  0.0726  0.0852  0.0038
49827W        W92921  30.184  30.656   4.787 -0.2115 -0.1642  0.2263
49828W        W92922  31.431  31.907   7.506  0.1137 -0.0030 -0.2077
49829W        W92923  29.706  30.295   3.562  0.0529  0.1506 -0.0472
49830W        W92924  31.952  31.026   7.176 -0.0411 -0.0490 -0.0526
49831W        W92925  30.459  32.141   4.468 -0.2103 -0.3076 -0.0360
49832W        W92926  31.481  32.259   5.204  0.3251  0.2379  0.3645
49833W        W92927  31.913  29.960   4.712 -0.2150 -0.1515 -0.2698
49834W        W92928  29.677  29.618   5.985  0.1240  0.1431  0.3000
49835W        W92929  29.478  32.516   6.400  0.1625  0.0956  0.2256
49836W        W92930  29.845  29.949   4.238 -0.2513  0.0178  0.0488
49837W        W92931  29.471  31.202   4.059  0.0764 -0.0531  0.1507
49838W        W92932  32.344  31.492   5.903  0.0943 -0.1715  0.0849
49839W        W92933  32.715  30.505   5.773 -0.0523 -0.0426 -0.0909
49840W        W92934  31.103  29.027   5.189  0.1164 -0.0084 -0.1027
49841W        W92935  32.995  30.223   6.944 -0.0353  0.0628  0.1736
49842W        W92936  31.081  32.293   3.698 -0.0533  0.2565  0.1632
49843W        W92937  31.131  29.642   5.187  0.0194  0.2541 -0.3319
49844W        W92938  31.788  31.672   5.899  0.4561 -0.2130 -0.4370
49845W        W92939  29.882  31.389   5.765 -0.0716  0.3551 -0.2247
49846W        W92940  30.973  32.033   5.944 -0.0933 -0.0026 -0.1158
49847W        W92941  33.182  29.290   5.727 -0.0018 -0.1472 -0.3118
49848W        W92942  30.900  30.819   5.402 -0.0340 -0.1424 -0.1081
49849W        W92943  30.684  29.908   5.291 -0.1216  0.1162  0.3106
49850W        W92944  31.665  32.325   7.383 -0.6480 -0.3327  0.3182
49851W        W92945  32.323  32.142   5.845 -0.2867  0.1298 -0.2985
49852W        W92946  30.240  30.144   5.116 -0.2017  0.0937 -0.3354
49853W        W92947  32.447  34.110   5.570  0.0019  0.1463 -0.1302
49854W        W92948  33.332  31.588   4.499 -0.2857  0.2117  0.0719
49855W        W92949  30.285  33.112   5.434  0.0911  0.2209  0.3107
49856W        W92950  27.720  30.757   6.435  0.5259 -0.2016  0.0383
49857W        W92951  30.464  30.174   7.019 -0.1395  0.0327 -0.0197
49858W        W92952  30.909  30.920   4.882  0.0712 -0.1637 -0.2222
49859W        W92953  30.509  28.478   5.616 -0.1617 -0.0688  0.1646
49860W        W92954  31.500  31.822   3.704 -0.1573 -0.0601  0.2133
49861W        W92955  30.355  32.421   7.244  0.2475 -0.0676 -0.3760
49862W        W92956  29.333  31.507   5.828  0.2926 -0.0208 -0.0276
49863W        W92957  30.616  33.521   5.470  0.1717  0.1567  0.1521
49864W        W92958  31.478  31.133   5.083  0.2037 -0.2464  0.0125
49865W        W92959  32.214  32.571   4.558  0.0703 -0.0521  0.2413
49866W        W92960  31.299  33.143   5.043  0.0235 -0.0590  0.1913
49867W        W92961  30.763  28.511   5.212  0.0577 -0.0277  0.0081
49868W        W92962  29.838  33.122   5.738 -0.0082 -0.2744  0.2892
49869W        W92963  28.655  31.204   4.707  0.2405 -0.1499  0.2010
49870W        W92964  32.260  31.814   3.105 -0.1702 -0.4365 -0.0691
49871W        W92965  30.206  32.821   5.849  0.0614  0.0066 -0.1526
49872W        W92966  31.312  32.187   6.535 -0.4696 -0.0271  0.0050
49873W        W92967  32.698  28.830   4.363  0.0765 -0.0241  0.1119
49874W        W92968  32.712  31.131   6.063  0.0231 -0.1683 -0.1633
49875W        W92969  32.755  30.914   4.591 -0.0457 -0.0990 -0.0497
49876W        W92970  31.729  32.550   6.435  0.1216 -0.1274 -0.0974
49877W        W92971  28.699  31.205   5.371 -0.2434  0.0405 -0.0773
49878W        W92972  31.357  29.685   4.679  0.3607 -0.1753  0.1354
49879W        W92973  30.765  29.855   5.820 -0.0683  0.0415 -0.0472
49880W        W92974  32.294  29.990   7.133 -0.2924  0.0882  0.2631
49881W        W92975  29.822  31.270   6.965 -0.2570  0.0544 -0.4378
49882W        W92976  31.612  32.424   3.688  0.2940 -0.2457  0.2665
49883W        W92977  30.051  29.680   3.790 -0.1970  0.0973  0.3461
49884W        W92978  30.702  32.723   3.457 -0.1264 -0.1021 -0.0698
49885W        W92979  31.564  29.465   6.838  0.0489 -0.0712  0.1362
49886W        W92980  30.599  30.315   3.473 -0.3544  0.0030 -0.0581
49887W        W92981  30.031  32.198   5.315  0.3492 -0.1126  0.3099
49888W        W92982  30.872  33.199   6.417 -0.0995 -0.0440  0.3491
49889W        W92983  31.058  32.750   5.240 -0.2537 -0.0590 -0.1609
49890W        W92984  31.539  32.800   5.861 -0.1617 -0.3430 -0.1672
49891W        W92985  28.386  29.690   3.396 -0.4573  0.0942  0.1216
49892W        W92986  33.911  31.354   5.015  0.3560 -0.0115 -0.3964
49893W        W92987  31.673  30.673   7.410 -0.0169 -0.0828 -0.1179
49894W        W92988  33.741  29.058   7.528 -0.0553  0.0938 -0.0405
49895W        W92989  29.640  30.285   4.992 -0.3150  0.0911  0.2031
49896W        W92990  33.231  31.080   5.279 -0.0836  0.0658  0.1510
49897W        W92991  30.816  31.039   7.046  0.1664 -0.2711 -0.1041
49898W        W92992  29.572  30.611   5.921 -0.1884  0.1311 -0.0020
49899W        W92993  30.824  30.945   3.960  0.1112  0.2282 -0.1387
49900W        W92994  33.835  31.928   6.255  0.2471 -0.1635 -0.1795
49901W        W92995  31.863  31.463   5.193  0.0935 -0.0369  0.0234
49902W        W92996  31.382  33.227   6.773 -0.0382 -0.3119  0.0357
49903W        W92997  30.235  28.906   6.283  0.2842 -0.0601 -0.0584
49904W        W92998  30.828  29.977   3.957 -0.4551 -0.2100  0.1549
49905W        W92999  29.801  30.242   5.571 -0.0869 -0.0623 -0.2642
49906W        W93000  31.401  31.832   6.176 -0.1651  0.2439 -0.0891
49907W        W93001  30.863  33.750   7.491  0.0531 -0.0939 -0.1526
49908W        W93002  30.995  28.445   4.281  0.2133  0.0808 -0.0322
49909W        W93003  33.005  31.908   4.288  0.1141 -0.1983  0.0180
49910W        W93004  31.931  31.250   5.624 -0.1979 -0.0845 -0.0923
49911W        W93005  30.621  32.497   5.950  0.0256  0.0524  0.1736
49912W        W93006  32.838  31.877   3.490  0.2698 -0.1035 -0.1034
49913W        W93007  32.670  33.024   5.455  0.1080  0.2013  0.2733
49914W        W93008  28.396  30.867   7.005  0.0846 -0.2843  0.0798
49915W        W93009  33.204  33.484   6.731 -0.1029  0.0720 -0.0289
49916W        W93010  32.828  32.002   5.996  0.1787  0.0877  0.2366
49917W        W93011  31.061  29.298   4.688 -0.1382  0.1625 -0.2677
49918W        W93012  31.754  30.748   5.415  0.2030 -0.0155  0.2146
49919W        W93013  29.720  32.657   4.959  0.2413 -0.2732  0.2869
49920W        W93014  32.983  30.627   6.696 -0.0354  0.0379  0.0780
49921W        W93015  31.499  29.032   6.480 -0.0714 -0.2009 -0.0246
49922W        W93016  31.871  30.500   3.335  0.1171 -0.0219 -0.1543
49923W        W93017  32.675  29.795   7.888 -0.0059  0.2378  0.0430
49924W        W93018  31.176  31.542   5.779 -0.0410 -0.1546 -0.0568
49925W        W93019  31.268  33.421   7.320  0.0844  0.1138  0.0302
49926W        W93020  30.753  30.782   3.464 -0.2768  0.3257 -0.0872
49927W        W93021  30.416  32.551   8.423  0.3035 -0.0492 -0.0322
49928W        W93022  30.177  32.221   5.833 -0.0304 -0.0170  0.0455
49929W        W93023  29.780  33.497   4.372  0.1628 -0.1481  0.0481
49930W        W93024  32.614  32.812   6.758 -0.3868 -0.3199  0.1334
49931W        W93025  31.143  30.097   4.292 -0.1512 -0.0184 -0.2807
49932W        W93026  33.291  32.345   5.131  0.1372 -0.1686  0.0419
49933W        W93027  31.481  28.621   5.929 -0.2561 -0.3419 -0.2659
49934W        W93028  32.711  30.203   4.898  0.0291 -0.1261 -0.0427
49935W        W93029  31.314  29.406   4.231 -0.0655 -0.1293  0.0810
49936W        W93030  30.971  31.600   6.249  0.0451 -0.2877  0.1236
49937W        W93031  29.726  30.773   3.775  0.1814  0.0189  0.1999
49938W        W93032  30.340  31.070   4.503 -0.2558  0.3407  0.0565
49939W        W93033  29.490  30.792   4.945 -0.2070 -0.0477 -0.0857
49940W        W93034  31.390  28.549   6.533  0.0588  0.0094 -0.3943
49941W        W93035  29.557  30.458   6.886 -0.0754 -0.1314  0.1248
49942W        W93036  29.169  31.350   5.377  0.0185  0.0953  0.0951
49943W        W93037  30.360  29.203   5.876 -0.1074 -0.1945 -0.0552
49944W        W93038  31.377  32.606   4.815  0.0427 -0.0108 -0.1582
49945W        W93039  28.816  29.504   5.052 -0.2099 -0.1118  0.1043
49946W        W93040  30.057  29.506   4.724  0.2244 -0.0577  0.1289
49947W        W93041  30.995  31.765   3.821  0.0294 -0.2542  0.0045
49948W        W93042  31.384  32.375   6.093 -0.4862  0.0667 -0.2350
49949W        W93043  30.107  31.742   5.516  0.1267  0.2828  0.2116
49950W        W93044  32.594  33.316   6.922 -0.1121  0.0306  0.1834
49951W        W93045  29.268  30.414   3.768 -0.3864 -0.1886 -0.1765
49952W        W93046  31.675  30.406   5.993 -0.0780  0.0509 -0.0340
49953W        W93047  30.602  29.156   6.478  0.1969 -0.1744  0.0645
49954W        W93048  28.554  28.848   3.684 -0.1361 -0.0639  0.1990
49955W        W93049  30.160  29.537   5.271  0.1915 -0.0861 -0.0035
49956W        W93050  32.318  32.118   4.215  0.0749  0.0997 -0.0962
49957W        W93051  31.831  32.905   3.737 -0.2836  0.1510 -0.0434
49958W        W93052  31.268  32.260   7.790  0.1857  0.1344  0.0045
49959W        W93053  31.053  32.984   7.162  0.4327 -0.1989  0.0758
49960W        W93054  30.623  27.194   6.865 -0.2723  0.1588 -0.1208
49961W        W93055  32.927  31.308   3.618 -0.0650  0.0641 -0.1908
49962W        W93056  30.955  33.136   7.822  0.2295 -0.0435 -0.2129
49963W        W93057  33.327  30.844   3.915  0.0600  0.1837  0.0672
49964W        W93058  33.909  29.809   6.269 -0.0946  0.3042  0.0313
49965W        W93059  31.837  31.289   3.843  0.1774 -0.2299 -0.0415
49966W        W93060  30.962  28.442   5.951 -0.0794  0.1476 -0.1040
49967W        W93061  30.917  31.843   7.738  0.1128 -0.1092 -0.0889
49968W        W93062  31.476  31.677   5.352 -0.1504  0.1695  0.2067
49969W        W93063  30.220  29.067   4.969  0.0117  0.2017  0.0291
49970W        W93064  32.363  30.749   4.341 -0.2125  0.1207  0.0676
49971W        W93065  31.420  32.217   4.097  0.0372 -0.1379  0.3555
49972W        W93066  29.276  30.931   5.702 -0.1490  0.0269  0.0614
49973W        W93067  30.605  30.513   4.009 -0.4153  0.0985  0.0954
49974W        W93068  31.427  30.796   6.324  0.0054 -0.2369  0.1243
49975W        W93069  31.489  31.749   6.759  0.0558  0.0771  0.0280
49976W        W93070  32.065  32.525   7.009 -0.2654 -0.0154 -0.2237
49977W        W93071  32.293  30.701   4.863 -0.1123  0.4908  0.1989
49978W        W93072  33.079  30.596   4.823  0.2324 -0.0636 -0.0987
49979W        W93073  32.145  33.086   5.275 -0.0514 -0.0176  0.1631
49980W        W93074  31.710  33.233   7.186  0.0205  0.0285  0.1953
49981W        W93075  30.067  34.211   6.960  0.1235 -0.0119 -0.0678
49982W        W93076  30.284  30.876   6.326 -0.1655  0.1890 -0.0802
49983W        W93077  28.771  28.616   5.649 -0.0117 -0.0931 -0.0482
49984W        W93078  30.066  31.418   4.300 -0.1122  0.1206 -0.0429
49985W        W93079  30.565  32.516   5.376  0.0786  0.1631  0.1181
49986W        W93080  32.953  31.108   7.037 -0.0353  0.2542  0.1463
49987W        W93081  28.873  30.887   6.011 -0.2887  0.2698 -0.2154
49988W        W93082  32.481  29.152   4.705  0.1618 -0.1579  0.1245
49989W        W93083  30.214  33.037   7.298 -0.1620  0.1969 -0.1309
49990W        W93084  31.945  31.713   6.456 -0.0155  0.0309 -0.5087
49991W        W93085  29.243  31.148   8.431  0.2685 -0.1193 -0.0879
49992W        W93086  30.150  29.710   7.925 -0.0588  0.0624 -0.0927
49993W        W93087  33.045  30.515   7.555 -0.3503 -0.3262  0.1291
49994W        W93088  32.629  32.063   8.575  0.1936 -0.0327  0.0035
49995W        W93089  28.930  29.810   9.261 -0.0025 -0.1656  0.1420
49996W        W93090  31.393  33.165   8.114 -0.0480  0.0516 -0.0296
49997W        W93091  32.106  32.227   9.581 -0.0839 -0.1762  0.1227
49998W        W93092  33.133  33.909  12.093  0.1126 -0.0253 -0.0851
49999W        W93093  30.595  30.623   7.179 -0.0028  0.2863  0.0337
50000W        W93094  29.914  29.079   9.592 -0.2944  0.0674  0.1494
50001W        W93095  30.229  29.352   8.357 -0.0689  0.1732  0.0479
50002W        W93096  28.598  29.769   9.598  0.1516 -0.0019 -0.0385
50003W        W93097  32.995  29.918   9.343 -0.1150  0.0785 -0.1698
50004W        W93098  30.557  31.117   8.398 -0.2168 -0.1759 -0.1175
50005W        W93099  30.688  30.996   8.842 -0.0934  0.1550 -0.1193
50006W        W93100  30.794  29.782   9.763  0.1230  0.1053 -0.2526
50007W        W93101  31.416  31.417   9.250  0.0126  0.0987 -0.0323
50008W        W93102  30.445  30.538   9.365  0.0384  0.2683  0.1742
50009W        W93103  31.271  31.701   9.629  0.0717 -0.1419 -0.0797
50010W        W93104  30.442  30.563   6.712 -0.1050 -0.0361  0.1411
50011W        W93105  28.731  29.760   8.459 -0.0800 -0.0979 -0.2537
50012W        W93106  31.369  29.505   9.821 -0.0832 -0.0773  0.0982
50013W        W93107  30.705  30.411   8.881 -0.2138  0.2545 -0.1675
50014W        W93108  31.041  31.195   9.093 -0.0623 -0.1270 -0.1257
50015W        W93109  30.159  32.179   8.756  0.0673  0.3221  0.0226
50016W        W93110  30.800  32.033  10.024  0.0723  0.2173 -0.0325
50017W        W93111  29.908  31.164   7.589  0.2235 -0.1485 -0.0502
50018W        W93112  28.765  32.378   8.872 -0.2473  0.0026  0.0266
50019W        W93113  30.845  32.223   8.066 -0.0766 -0.1846  0.1156
50020W        W93114  31.352  32.846   8.585  0.1040  0.1594  0.0795
50021W        W93115  29.892  31.766   6.749  0.1476  0.2134 -0.2282
50022W        W93116  29.543  30.503   8.950  0.0582 -0.1038  0.1251
50023W        W93117  31.509  30.005   8.569  0.0102  0.0050  0.1221
50024W        W93118  31.141  33.612   7.896 -0.1763  0.0614  0.0434
50025W        W93119  33.311  31.923   9.690 -0.0693 -0.1679 -0.3364
50026W        W93120  28.910  31.609  10.200 -0.2314 -0.0581 -0.2455
50027W        W93121  29.624  32.003   7.071 -0.1452 -0.0512  0.1283
50028W        W93122  32.151  30.630   7.597  0.2661  0.5668 -0.3804
50029W        W93123  31.838  30.612   7.981  0.1994  0.1285 -0.0008
50030W        W93124  32.008  29.858   9.436 -0.1464  0.1282 -0.4097
50031W        W93125  29.863  29.470   7.375  0.1318  0.1924  0.0037
50032W        W93126  29.665  31.155   9.793  0.1536 -0.0462 -0.0458
50033W        W93127  31.228  30.883  10.245  0.0946 -0.1827  0.1319
50034W        W93128  31.338  30.407   7.712 -0.1722  0.2367  0.0552
50035W        W93129  31.501  30.547   9.799 -0.2447 -0.0920  0.2456
50036W        W93130  29.997  31.145   8.507  0.0048 -0.2674 -0.0374
50037W        W93131  30.088  30.218   7.733  0.0243  0.3641  0.3140
50038W        W93132  33.019  32.447   6.802 -0.2336 -0.1496 -0.1151
50039W        W93133  32.959  32.211   7.874  0.0436  0.0827 -0.0078
50040W        W93134  31.836  31.412   8.402  0.4011 -0.2672 -0.0122
50041W        W93135  30.432  31.217   7.532  0.5408  0.4635 -0.0902
50042W        W93136  30.976  28.922   7.312 -0.1168 -0.3419 -0.0330
50043W        W93137  30.704  30.898   9.824  0.0009  0.2099 -0.2427
50044W        W93138  29.587  30.119   9.342  0.1547  0.0017  0.3351
50045W        W93139  29.845  31.516  10.166  0.0561 -0.0050 -0.0552
50046W        W93140  32.565  31.729   6.351 -0.0654 -0.2170 -0.0654
50047W        W93141  31.595  29.497   9.396  0.1591  0.2736  0.2062
50048W        W93142  31.470  28.106   9.968 -0.1230 -0.2345  0.2531
50049W        W93143  31.107  29.984   7.545  0.2891  0.1690 -0.1197
50050W        W93144  31.935  31.348   9.344 -0.0534  0.4126  0.1330
50051W        W93145  33.456  32.497   9.747 -0.0406 -0.2750  0.1370
50052W        W93146  31.588  31.883   8.024 -0.0273 -0.2118 -0.0033
50053W        W93147  29.647  32.423   9.041 -0.1093  0.2869  0.0749
50054W        W93148  29.919  34.015   8.122  0.0439  0.2342  0.0222
50055W        W93149  29.067  31.030   8.898 -0.1459  0.0451 -0.3294
50056W        W93150  29.519  31.718   7.511  0.2302  0.1597 -0.1527
50057W        W93151  29.986  29.807   9.307 -0.0120 -0.2970 -0.2034
50058W        W93152  28.904  32.039  10.018  0.0921  0.0471  0.0860
50059W        W93153  31.197  30.211   9.070  0.0225 -0.3923  0.0265
50060W        W93154  31.537  28.814   8.113  0.3024  0.0062 -0.0881
50061W        W93155  30.050  31.693   8.780  0.1754 -0.0440  0.0445
50062W        W93156  32.137  33.067   8.166 -0.0699 -0.0364 -0.0954
50063W        W93157  31.918  30.035   9.017  0.1284  0.1211  0.0149
50064W        W93158  30.644  31.996   8.515 -0.1027  0.0349  0.0246
50065W        W93159  31.111  29.822   9.346 -0.0912  0.1400 -0.0391
50066W        W93160  29.625  29.937   7.834 -0.0529  0.2503  0.0442
50067W        W93161  29.711  29.935   8.808  0.0154 -0.2072  0.0065
50068W        W93162  30.288  29.823   8.886  0.1844  0.0943 -0.4240
50069W        W93163  31.529  31.102   8.236  0.0898 -0.0573 -0.3327
50070W        W93164  31.116  30.709   8.722  0.1591 -0.0004 -0.0061
50071W        W93165  28.848  31.479   8.420 -0.1037  0.0510  0.0800
50072W        W93166  31.860  31.797   9.631  0.1243 -0.2008  0.4433
50073W        W93167  29.948  31.689   9.736 -0.2692 -0.1974  0.0285
50074W        W93168  31.724  32.726   8.006 -0.2446  0.0212 -0.2165
50075W        W93169  27.883  30.416   9.380 -0.2722 -0.1023 -0.2033
50076W        W93170  30.363  29.392   7.415  0.0513 -0.0490 -0.3830
50077W        W93171  29.191  32.319   9.746 -0.3591 -0.0184  0.1772
50078W        W93172  30.223  30.733   8.752 -0.3557 -0.1278 -0.1228
50079W        W93173  30.663  28.115   8.420  0.0569 -0.1904 -0.0614
50080W        W93174  31.850  32.773   8.721 -0.3657 -0.0594 -0.0592
50081W        W93175  31.028  31.130   8.069 -0.0347 -0.0447 -0.0090
50082W        W93176  34.300  28.223   9.641  0.0052 -0.1843  0.0762
50083W        W93177  31.007  30.568   8.146  0.0497 -0.0853  0.0004
50084W        W93178  30.823  29.329   8.075  0.0502  0.2500  0.1861
50085W        W93179  32.339  31.807   9.425 -0.2377 -0.3713 -0.1787
50086W        W93180  29.053  31.692   7.977 -0.2376 -0.0132  0.1413
50087W        W93181  30.955  30.373   6.936 -0.2509  0.2244 -0.1791
50088W        W93182  30.484  31.928   8.980  0.0673  0.0868 -0.0580
50089W        W93183  31.787  30.447   9.377 -0.4035  0.3582 -0.0248
50090W        W93184  27.913  30.729   6.992 -0.1166 -0.2539 -0.1067
50091W        W93185  31.050  27.832   6.739  0.2356 -0.0283  0.1259
50092W        W93186  33.191  30.662   8.964  0.0713  0.3639 -0.1300
50093W        W93187  32.791  32.067   9.111  0.1391 -0.0996 -0.1744
50094W        W93188  31.733  30.201   6.808 -0.0621  0.2566  0.0930
50095W        W93189  30.722  29.360   7.015 -0.2430 -0.1503  0.0671
50096W        W93190  31.387  31.973   9.167  0.1513 -0.1156 -0.1918
50097W        W93191  29.960  30.911   9.262 -0.2034  0.1331 -0.2947
50098W        W93192  31.907  30.212   7.445 -0.2312 -0.1079  0.1054
50099W        W93193  32.917  31.465   8.285  0.3373  0.0591 -0.3086
50100W        W93194  28.604  31.367   9.665  0.1935  0.0121  0.0542
50101W        W93195  32.332  31.313   9.092  0.1518  0.2495 -0.1472
50102W        W93196  30.977  28.770   9.919  0.0802 -0.2835  0.2627
50103W        W93197  29.751  29.874   7.057 -0.2538  0.1224 -0.0893
50104W        W93198  32.043  29.354   8.271  0.0418  0.1465  0.0797
50105W        W93199  30.509  32.307   9.339 -0.1768  0.1672  0.0551
50106W        W93200  31.554  28.814   9.828 -0.1295 -0.2438 -0.0045
50107W        W93201  30.034  28.048   9.813  0.0186 -0.6626  0.1374
50108W        W93202  32.470  31.604   7.711 -0.0179 -0.0838 -0.0377
50109W        W93203  30.943  30.704   9.213 -0.0775 -0.1012  0.0361
50110W        W93204  30.186  29.675   6.866 -0.0204  0.1252 -0.1836
50111W        W93205  31.739  28.785   8.628  0.0981  0.1116 -0.0254
50112W        W93206  27.753  33.936   9.474  0.1785 -0.0094  0.3515
50113W        W93207  32.425  29.982   9.116 -0.1415 -0.2027 -0.1985
50114W        W93208  30.811  29.827   7.177  0.2302  0.0121 -0.4322
50115W        W93209  30.135  33.121   9.154  0.2448 -0.1688 -0.1175
50116W        W93210  30.458  31.949   7.939  0.2184 -0.0647 -0.0126
50117W        W93211  31.234  28.786   8.940  0.0379  0.3902  0.0950
50118W        W93212  29.398  32.492   8.356 -0.1416 -0.2767 -0.0090
50119W        W93213  29.388  32.534   6.893 -0.3230  0.1162 -0.3162
50120W        W93214  30.201  31.193   8.974  0.1473 -0.2593  0.3912
50121W        W93215  29.653  33.029   8.604  0.3246 -0.2199  0.2556
50122W        W93216  33.554  28.619   9.594 -0.0412 -0.0477 -0.0944
50123W        W93217  29.310  31.752   8.443  0.1607  0.1548 -0.1497
50124W        W93218  30.433  28.890   7.423 -0.1041 -0.1461  0.0440
50125W        W93219  29.435  28.882   7.640 -0.1244  0.1304  0.1721
50126W        W93220  31.736  30.733  10.242  0.0697 -0.1189  0.2187
50127W        W93221  31.527  31.283   6.626 -0.0232  0.1365 -0.5213
50128W        W93222  29.723  30.561  10.022 -0.0837  0.1646 -0.0269
50129W        W93223  31.018  29.627   8.412  0.3452  0.1985 -0.0510
50130W        W93224  29.323  33.512   9.356 -0.1790  0.3221 -0.0593
50131W        W93225  31.456  31.424   7.838 -0.5386 -0.0468  0.2703
50132W        W93226  29.680  30.224   7.387  0.0420 -0.1179 -0.0881
50133W        W93227  31.017  30.488   9.925 -0.2740  0.1036 -0.0824
50134W        W93228  29.986  31.064  10.174  0.1925  0.0194 -0.1855
50135W        W93229  30.133  31.986   8.273 -0.1844 -0.0602  0.0155
50136W        W93230  30.234  32.158   9.751 -0.1093 -0.4199 -0.0288
50137W        W93231  29.699  29.444   7.849  0.0036  0.1263 -0.0729
50138W        W93232  30.919  30.561   7.641 -0.0711  0.1287 -0.2128
50139W        W93233  29.068  31.848   9.600 -0.0424  0.2638  0.0606
50140W        W93234  33.808  30.919  10.236 -0.0952 -0.1656  0.0023
50141W        W93235  30.119  30.645   8.273  0.0227 -0.2598  0.0886
50142W        W93236  31.784  28.377   9.764 -0.1129  0.0791 -0.0905
50143W        W93237  33.298  31.847   9.135  0.1065  0.1263 -0.1084
50144W        W93238  33.409  30.919   9.328  0.1222 -0.4229  0.1518
50145W        W93239  31.033  28.891   8.250 -0.2777  0.2229 -0.1205
50146W        W93240  33.641  31.504   8.072 -0.0033 -0.0251 -0.2664
50147W        W93241  31.463  30.164   7.237  0.0279  0.3717 -0.1555
50148W        W93242  29.041  30.555   8.970 -0.1089  0.0905 -0.1803
50149W        W93243  30.865  31.625   8.248 -0.2105 -0.0799  0.1926
50150W        W93244  31.547  30.005   9.442 -0.2725 -0.1279 -0.2962
50151W        W93245  29.869  32.080  10.304  0.0411  0.0329 -0.0956
50152W        W93246  30.436  31.790   7.457  0.1562 -0.1700  0.1661
50153W        W93247  28.055  32.434   8.348  0.2552 -0.2356 -0.2091
50154W        W93248  32.159  30.258   7.932  0.0004 -0.3931  0.0656
50155W        W93249  31.172  31.673   8.756 -0.0914 -0.2839  0.1191
50156W        W93250  30.785  29.848   8.844  0.0483  0.2032  0.1838
50157W        W93251  32.380  30.498   8.680  0.0776 -0.2049 -0.2426
50158W        W93252  32.565  29.606   9.483  0.2346  0.0842 -0.0263
50159W        W93253  32.111  30.744   9.035  0.2827  0.1237  0.0188
50160W        W93254  30.530  29.808   8.327 -0.1008 -0.0614 -0.1454
50161W        W93255  29.803  30.248   8.140  0.1751 -0.0789 -0.0472
50162W        W93256  29.733  32.242   9.838 -0.3666 -0.1513 -0.2279
50163W        W93257  31.845  30.903   9.578 -0.0668 -0.0407  0.1205
50164W        W93258  31.411  30.840   9.141  0.0560  0.3497  0.2392
50165W        W93259  30.159  30.713   9.768  0.3894 -0.3310 -0.3145
50166W        W93260  29.695  32.081   8.510 -0.1669  0.0414 -0.2704
50167W        W93261  32.703  30.909   9.984 -0.3476  0.1992  0.1220
50168W        W93262  32.557  30.165   9.646  0.0860  0.3480  0.0437
50169W        W93263  30.607  31.504   8.780  0.1838  0.2641 -0.1132
50170W        W93264  31.192  31.330  10.010  0.2684  0.0035 -0.0141
50171W        W93265  31.621  29.691   8.164  0.0094 -0.1904 -0.0676
50172W        W93266  31.083  32.571   9.721 -0.1549  0.2564  0.0797
50173W        W93267  32.058  31.969   8.192 -0.0672 -0.0647 -0.3201
50174W        W93268   0.116  29.723  10.102  0.2122  0.0930  0.0538
50175W        W93269  31.558  31.042   8.734  0.0415  0.0517  0.0833
50176W        W93270  31.192  29.892   6.819  0.0268  0.1778 -0.0606
50177W        W93271  30.472  30.233   8.061 -0.0965 -0.3053  0.1044
50178W        W93272  31.244  29.552   7.822  0.1019  0.1794  0.1644
50179W        W93273  30.116  32.540   9.131 -0.1660 -0.2503 -0.0997
50180W        W93274  30.851  31.335   9.553 -0.1795  0.2225  0.0224
50181W        W93275  30.462  31.018   9.374 -0.0651  0.1188 -0.1699
50182W        W93276  27.907  29.256   8.291  0.1013 -0.1130  0.2502
50183W        W93277  29.314  30.494   7.681  0.2123 -0.0006  0.0889
50184W        W93278  30.379  30.713   7.648  0.2144  0.4002  0.1018
50185W        W93279  31.191  33.038   9.987  0.0147  0.0967  0.1026
50186W        W93280  31.186  28.999   6.065 -0.0546  0.1327  0.1205
50187W        W93281  30.333  31.562   8.382  0.0672  0.0774 -0.1406
50188W        W93282  31.432  30.498   8.356  0.2915 -0.3181 -0.1222
50189W        W93283  29.493  33.427   9.994 -0.1408  0.1022  0.2858
50190W        W93284  29.810  31.409   9.271  0.1284  0.4586  0.3150
50191W        W93285  32.175  30.895   9.981 -0.1149  0.0332  0.3447
50192W        W93286  31.920  31.246  10.283  0.1667  0.1858  0.6903
50193W        W93287  29.306  30.862   9.774 -0.0465  0.2135 -0.1031
50194W        W93288  29.127  31.350   9.714  0.0415  0.1860 -0.0766
50195W        W93289  32.257  30.662   9.484  0.1514 -0.2458  0.1165
50196W        W93290  28.946  31.039  10.168 -0.1164 -0.3360 -0.1295
50197W        W93291  30.600  30.601   8.373 -0.2604 -0.0670 -0.5856
50198W        W93292  31.082  30.007   8.045 -0.2701 -0.0088  0.2434
50199W        W93293  30.704  32.695   7.449  0.1463 -0.1750 -0.1426
50200W        W93294  30.474  29.499  10.056 -0.0480 -0.0012 -0.2899
50201W        W93295  30.301  31.578   9.286  0.0420  0.1382 -0.0409
50202W        W93296  31.415  32.298   8.836  0.0350 -0.0116  0.1509
50203W        W93297  31.590  32.347   8.392  0.0779 -0.0719 -0.0873
50204W        W93298  31.305  32.212  10.066  0.2187  0.2035  0.2005
50205W        W93299  30.229  31.140   7.991  0.0398 -0.2103 -0.4292
50206W        W93300  29.573  31.816   8.909 -0.0561  0.0500  0.3287
50207W        W93301  30.052  32.719   7.756  0.0797  0.3193 -0.2477
50208W        W93302  32.187  33.254   7.533 -0.1206  0.0818 -0.0793
50209W        W93303  29.528  32.649   9.518  0.0634  0.0645 -0.1868
50210W        W93304  32.688  31.218   7.953 -0.3695 -0.0957 -0.0489
50211W        W93305  33.494  29.001  10.043 -0.1321 -0.0850  0.1275
50212W        W93306  32.992  30.075   8.419  0.0070 -0.2447 -0.0149
50213W        W93307  29.176  30.352   9.628 -0.0511  0.0656  0.2197
50214W        W93308  30.884  29.372   7.471  0.1757  0.2692  0.2526
50215W        W93309  32.197  33.708   7.801 -0.0295  0.1490 -0.1313
50216W        W93310  29.407  29.180   8.247 -0.1142 -0.2370  0.1603
50217W        W93311  32.310  29.707   9.957  0.1886  0.0450 -0.2527
50218W        W93312  30.687  28.354  10.033 -0.2030  0.1358 -0.3083
50219W        W93313  31.749  31.455   8.887  0.1069 -0.0644 -0.0863
50220W        W93314  30.324  30.208   8.553 -0.0914 -0.1865 -0.0033
50221W        W93315  30.133  33.542   9.418 -0.0761 -0.0456 -0.1694
50222W        W93316  31.023  32.119   9.530 -0.3828 -0.3341  0.3642
50223W        W93317  29.237  33.039   9.353  0.1532 -0.1578  0.1331
50224W        W93318  28.149  28.810   8.369  0.2270  0.2911 -0.0083
50225W        W93319  33.289  30.338   9.413 -0.2755  0.3149  0.2547
50226W        W93320  28.628  29.666  10.083  0.0503  0.1027 -0.4588
50227W        W93321  29.371  30.153   8.504  0.2381 -0.1909 -0.0282
50228W        W93322  33.823  30.379   8.278 -0.2584  0.1455  0.1046
50229W        W93323  31.401  29.253   8.236  0.0566 -0.3032 -0.1594
50230W        W93324  30.919  30.279   9.488 -0.2707  0.1710  0.0464
50231W        W93325  31.178  30.724   7.247 -0.1177 -0.0324 -0.1612
50232W        W93326  30.795  31.493   7.230  0.1766 -0.1272  0.2091
50233W        W93327  29.626  29.241   9.158 -0.0996 -0.1550 -0.1418
50234W        W93328  31.580  29.846   7.623  0.2250  0.0573  0.0445
50235W        W93329  30.570  30.328   9.838  0.0959 -0.1702  0.1207
50236W        W93330  32.433  30.215  10.178  0.1078  0.0927 -0.0948
50237W        W93331  28.156  28.761   9.756  0.0017 -0.0279 -0.1067
50238W        W93332  31.943  30.973   6.633  0.1259  0.0471 -0.0976
50239W        W93333  32.023  30.326   9.801 -0.0037  0.2523 -0.1869
50240W        W93334  30.029  33.369   8.604  0.1990 -0.0547  0.0619
50241W        W93335  32.411  31.518   8.290  0.0018 -0.1857  0.3841
50242W        W93336  32.798  31.770   9.676 -0.0404 -0.1211  0.1535
50243W        W93337  28.474  29.482   9.119  0.1232  0.2517  0.5734
50244W        W93338  30.405  32.546  10.093  0.0690  0.0617 -0.1821
50245W        W93339  33.074  33.016   9.169  0.0561 -0.0801  0.3318
50246W        W93340  31.786  29.351   7.791  0.3544 -0.2122 -0.3060
50247W        W93341  29.603  30.622   9.479 -0.0017  0.1450  0.1195
50248W        W93342  30.053  32.064   7.598 -0.0001  0.2346 -0.0416
50249W        W93343  31.233  30.980   9.663 -0.4428 -0.2484  0.3742
50250W        W93344  31.124  32.830   6.700 -0.0462  0.1204 -0.3870
50251W        W93345  30.324  33.113   9.659 -0.0413  0.2945 -0.1792
50252W        W93346  29.998  30.258   6.792 -0.0527  0.3351  0.3543
50253W        W93347  30.600  32.483   8.852 -0.4087  0.1361 -0.0998
50254W        W93348  30.722  32.883   8.256 -0.0964  0.3612 -0.0353
50255W        W93349  33.535  32.112   8.777 -0.0442  0.1177  0.1669
50256W        W93350  30.520  30.241   7.500 -0.2956  0.4038  0.1650
50257W        W93351  32.011  32.267   8.647 -0.0046 -0.1621  0.1661
50258W        W93352  30.616  29.493   9.171 -0.0372  0.2151  0.0537
50259W        W93353  32.488  29.024   8.399  0.0678  0.0988  0.0372
50260W        W93354  33.073  29.578   7.617 -0.0811  0.0486 -0.2112
50261W        W93355  28.649  31.729   8.814 -0.1449 -0.0694  0.1538
50262W        W93356  29.811  30.627   7.662  0.2609  0.0765 -0.4744
50263W        W93357  29.840  32.574   8.612  0.1121 -0.1436 -0.1268
50264W        W93358  28.896  30.243   8.564 -0.0890  0.1133 -0.1184
50265W        W93359  30.133  30.288   9.037  0.2325  0.2183 -0.0609
50266W        W93360  29.861  29.734   8.299  0.2041  0.1677 -0.1109
50267W        W93361  33.113  31.499   7.836 -0.1050  0.0765 -0.1119
50268W        W93362  30.480  30.001   9.328  0.2959  0.1563  0.2865
50269W        W93363  29.576  29.462   9.639  0.1914  0.3262 -0.1504
50270W        W93364  32.309  31.177   8.631  0.0925 -0.1509 -0.3503
50271W        W93365  31.607  32.290   9.633  0.0061 -0.2896  0.0977
50272W        W93366  30.671  29.351   8.633  0.0017  0.0821  0.3077
50273W        W93367  31.190  32.155   7.068  0.1763 -0.0402  0.1482
50274W        W93368  29.206  29.619   8.007 -0.1662  0.0467 -0.1556
50275W        W93369  29.173  30.434  10.162 -0.1093 -0.1008  0.2663
50276W        W93370  32.289  31.765   8.786  0.0262 -0.0030 -0.0377
50277W        W93371  31.921  32.843   7.467  0.0976 -0.1187 -0.1294
50278W        W93372  27.444  30.691   9.503 -0.1536 -0.0312  0.0221
50279W        W93373  31.891  31.044   7.706  0.3058  0.2833  0.1575
50280W        W93374  32.228  32.673   6.497  0.0834 -0.0699  0.2875
50281W        W93375  33.370  28.471  10.055  0.0044  0.4970  0.0383
50282W        W93376  31.651  30.153   8.020  0.3193 -0.0589 -0.1366
50283W        W93377  31.891  31.911   9.096  0.0928  0.1519  0.0440
50284W        W93378  30.305  28.941   8.648 -0.1378 -0.0826  0.0360
50285W        W93379  32.045  29.790   7.685  0.1412  0.0051  0.0514
50286W        W93380  30.858  31.685   9.192 -0.2521 -0.0561 -0.0839
50287W        W93381  28.734  30.257   9.355 -0.1790 -0.1179  0.2130
50288W        W93382  31.602  30.478   8.873 -0.1803  0.0006  0.1655
50289W        W93383  31.314  34.455   9.526  0.3426  0.1262 -0.4344
50290W        W93384  30.980  31.170   7.547 -0.2454 -0.2013 -0.0909
50291W        W93385  33.216  31.355   8.939  0.1905  0.0305  0.0412
50292W        W93386  29.510  32.077   9.422  0.2914 -0.0581 -0.3167
50293W        W93387  33.333  32.670  10.217 -0.2339 -0.0025  0.2380
50294W        W93388  33.586  31.450   9.808  0.1440 -0.0046  0.2225
50295W        W93389  29.250  29.864   9.627  0.2250  0.1753  0.0744
50296W        W93390  29.686  30.952   8.098 -0.0729  0.3993  0.0606
50297W        W93391  29.355  31.074   9.322 -0.1443  0.1833 -0.3642
50298W        W93392  32.393  28.148   8.870  0.2622 -0.0192  0.2246
50299W        W93393  30.083  29.131   9.064 -0.0273  0.1519  0.0924
50300W        W93394  32.579  29.615   7.426 -0.0514  0.6020 -0.1897
50301W        W93395  28.668  33.460   9.140  0.4107  0.0516  0.1576
50302W        W93396  29.329  31.602  10.708 -0.0621  0.0822  0.0012
50303W        W93397  29.337  34.634   1.317  0.2984 -0.0511 -0.0918
50304W        W93398  32.640  34.439  31.941 -0.2519  0.1214 -0.1341
50305W        W93399  31.783   0.252   1.526  0.2943 -0.3287  0.0127
50306W        W93400  29.622  33.696   0.801  0.0101  0.0860 -0.0779
50307W        W93401  29.164  32.005   2.270  0.3400 -0.1327 -0.1337
50308W        W93402  30.405   0.033  31.485 -0.1905 -0.0863  0.1628
50309W        W93403  29.542  33.410   2.315  0.0141  0.0220  0.2771
50310W        W93404  30.845  32.525   0.100 -0.0755  0.1552  0.0423
50311W        W93405  29.789  31.279   0.467 -0.0669 -0.2457 -0.3799
50312W        W93406  31.366  34.561   4.436 -0.4017  0.2946  0.2478
50313W        W93407  29.411  34.286   0.814 -0.0552  0.1901  0.0391
50314W        W93408  29.638  32.766   2.544  0.1073 -0.0950  0.1614
50315W        W93409  29.787  32.616   1.355 -0.0105  0.0166  0.0575
50316W        W93410  30.449  33.138   3.364  0.0557  0.0151 -0.0601
50317W        W93411  32.575  33.349   4.020  0.1483  0.3289  0.0196
50318W        W93412  28.920  33.608   0.085  0.0662 -0.0500  0.0809
50319W        W93413  29.818  33.590   1.329 -0.1716  0.0800  0.3233
50320W        W93414  28.975   1.089   2.011 -0.2279 -0.1769 -0.0807
50321W        W93415  30.669  31.886   0.833  0.0666 -0.2551 -0.0548
50322W        W93416  32.823   0.324   1.498  0.2511 -0.0445  0.0839
50323W        W93417  32.779   0.503   2.502 -0.2823 -0.1038 -0.1434
50324W        W93418  29.773  32.830   1.876  0.1188 -0.1107  0.2126
50325W        W93419  30.713  33.504  31.624 -0.2356 -0.2419 -0.2512
50326W        W93420  32.263   0.418   2.598  0.1223  0.0180  0.1803
50327W        W93421  32.431  34.116   0.785 -0.3712  0.0811  0.0428
50328W        W93422  32.121  33.645   0.864  0.3062 -0.0162 -0.0351
50329W        W93423  32.628  33.937  31.748 -0.0529  0.2587  0.0261
50330W        W93424  30.065  32.360   2.335 -0.2285 -0.0622  0.4353
50331W        W93425  30.130  33.797   3.477  0.0517  0.0047  0.1213
50332W        W93426  31.112  34.215   1.131  0.0248  0.2770 -0.0283
50333W        W93427  31.365  32.924   2.284  0.0433 -0.1712  0.0246
50334W        W93428  30.736  34.635   0.898  0.2197  0.2612  0.0140
50335W        W93429  28.507   0.588  31.618  0.1810 -0.2559 -0.0475
50336W        W93430  29.537  34.102   4.064  0.2902  0.0343 -0.2696
50337W        W93431  29.962  34.253   3.624 -0.1029 -0.3519 -0.3293
50338W        W93432  30.916  33.180  30.906  0.2954 -0.2009 -0.2833
50339W        W93433  32.875  34.208   1.139 -0.0283 -0.1765  0.0672
50340W        W93434  30.672  31.456   2.466  0.1967  0.1285 -0.1991
50341W        W93435  31.193  33.333   0.508 -0.0064 -0.3472  0.0463
50342W        W93436  32.170   1.127  31.176  0.1379 -0.0183 -0.0306
50343W        W93437  30.550  33.353   2.192 -0.1072 -0.1547  0.1120
50344W        W93438  29.467  32.936   3.130  0.0433  0.1633  0.3227
50345W        W93439  31.238  32.823   1.773 -0.3012  0.0867  0.0629
50346W        W93440  30.311  33.218   2.645  0.1336 -0.0380  0.2369
50347W        W93441  31.887  32.168   1.076 -0.3363 -0.3842  0.1365
50348W        W93442  33.063  34.674   1.228 -0.0009  0.0557 -0.2328
50349W        W93443  28.955  34.368   1.337 -0.0062  0.0849 -0.0847
50350W        W93444  29.699  32.678   0.786  0.2951 -0.0924  0.2092
50351W        W93445  29.991  32.864   3.056 -0.2833  0.0877  0.0515
50352W        W93446  29.067  31.674   1.615 -0.2312  0.4238  0.0723
50353W        W93447  31.288   0.398   2.818 -0.0010  0.1571 -0.0052
50354W        W93448  28.835  31.222   0.111  0.1648 -0.1033 -0.1538
50355W        W93449  31.633  34.537   1.779 -0.1541  0.2074 -0.0009
50356W        W93450  29.200   0.456   1.351  0.3817  0.4602 -0.1151
50357W        W93451  31.843  33.457   2.996 -0.1753  0.1416 -0.0485
50358W        W93452  28.942  33.808   2.501 -0.2340 -0.0639 -0.4916
50359W        W93453  29.764  33.011  31.284 -0.0066  0.0008 -0.1206
50360W        W93454  31.143  34.165  31.463 -0.2074  0.2609 -0.1305
50361W        W93455  31.501  32.313   1.978 -0.1334 -0.2820 -0.0572
50362W        W93456  30.894  33.060   1.479  0.2054 -0.1583  0.0103
50363W        W93457  29.642  32.491  31.164 -0.2304  0.0538 -0.0592
50364W        W93458  28.385  34.243  31.436  0.2551 -0.2524  0.2626
50365W        W93459  31.241  33.985   2.137 -0.2424  0.0009  0.0485
50366W        W93460  29.162  33.577   3.439  0.2346 -0.0257  0.0075
50367W        W93461  31.506   0.225   5.063  0.1211 -0.0078 -0.0527
50368W        W93462  29.903  34.176   0.588 -0.0129 -0.1074  0.2837
50369W        W93463  31.205  33.602  31.539 -0.3630 -0.2075  0.1460
50370W        W93464  31.892  33.690  31.778  0.3213  0.1331  0.0507
50371W        W93465  30.955   0.298  31.976  0.0948 -0.1610 -0.0974
50372W        W93466  31.428  33.357  30.924 -0.0553 -0.2462 -0.0332
50373W        W93467  29.809  34.602   0.956 -0.0777 -0.1551 -0.0056
50374W        W93468  30.372  32.092   1.725 -0.0463 -0.1900 -0.0969
50375W        W93469  29.866  34.533   1.475 -0.0127  0.1788  0.1402
50376W        W93470  30.124  33.271   1.813  0.0610 -0.1455 -0.0537
50377W        W93471  31.502  32.778   2.761 -0.2293 -0.1703  0.2941
50378W        W93472  32.074  33.549   2.503 -0.0638 -0.1549 -0.1156
50379W        W93473  29.173  32.656   3.389 -0.0155  0.0666  0.1780
50380W        W93474  33.060  33.540   2.336  0.1076  0.3426 -0.0657
50381W        W93475  32.282  33.079   0.053 -0.3597 -0.1283  0.0596
50382W        W93476  30.629  34.052   1.149 -0.0218 -0.4973  0.1792
50383W        W93477  29.362  33.951   0.397 -0.2271  0.0006 -0.1909
50384W        W93478  31.006  33.116   2.035  0.0170 -0.2033 -0.1369
50385W        W93479  32.056  33.324   3.893  0.1265 -0.0443  0.0194
50386W        W93480  30.222  32.482   1.178 -0.1342  0.3749  0.2403
50387W        W93481  30.599  32.448   2.661  0.0308  0.0952 -0.2619
50388W        W93482  32.190  34.025   2.177  0.0812  0.1092 -0.2588
50389W        W93483  30.515  33.248  30.584 -0.0201 -0.1225 -0.0267
50390W        W93484  28.239  33.387   1.441 -0.0353  0.1907 -0.3064
50391W        W93485  31.408  32.181   1.278  0.3578  0.0236  0.1060
50392W        W93486  29.985  33.102   2.272  0.0453 -0.0286 -0.0414
50393W        W93487  30.142  32.336   0.709  0.2136  0.0727 -0.2521
50394W        W93488  31.954   0.269   2.051 -0.1872  0.0594 -0.0061
50395W        W93489  31.565  32.485  31.743 -0.2275 -0.1756 -0.2562
50396W        W93490  31.712   0.358   3.258  0.0049 -0.0976 -0.2675
50397W        W93491  28.466  32.752   0.125 -0.0367 -0.0752  0.0999
50398W        W93492  32.076  33.309   3.384 -0.1179 -0.1359  0.2500
50399W        W93493  30.195  34.034   1.410 -0.0658 -0.1780  0.0744
50400W        W93494  28.929  33.376  31.186 -0.0391 -0.0988  0.0700
50401W        W93495  29.036   0.027   2.129 -0.0395  0.2068 -0.0370
50402W        W93496  29.780  33.635   1.911 -0.2146  0.1502  0.0709
50403W        W93497  29.376  32.657   1.659 -0.1884 -0.0096  0.1380
50404W        W93498  30.856  34.464   1.504  0.2586  0.0867  0.0464
50405W        W93499  31.228  33.515   3.058  0.0316  0.1200 -0.0909
50406W        W93500  29.665  32.467   3.311 -0.0613  0.1128 -0.1027
50407W        W93501  32.111   0.431   3.631 -0.0756 -0.1504  0.0809
50408W        W93502  30.430  32.886   1.665 -0.2406  0.1366  0.2376
50409W        W93503  32.736  33.188   0.209 -0.0323  0.1431  0.0939
50410W        W93504  30.640  32.709   0.844 -0.2032 -0.3367  0.0327
50411W        W93505  32.042  33.770   3.510  0.0934 -0.1905  0.3364
50412W        W93506  31.580   0.766  30.431  0.2953 -0.0465 -0.0996
50413W        W93507  31.662  33.812   3.904 -0.1266 -0.4330 -0.2770
50414W        W93508  30.841  33.604   1.351 -0.0229 -0.0139  0.0959
50415W        W93509  28.767  32.569   2.930  0.3168 -0.0113 -0.0523
50416W        W93510  29.136  33.908   3.862 -0.2587  0.1672  0.2829
50417W        W93511  30.348  33.514   1.384 -0.2384 -0.1676 -0.1468
50418W        W93512  30.976  32.760   0.515 -0.1513 -0.0374  0.1282
50419W        W93513  30.340  34.435   3.320  0.1154  0.1637  0.0475
50420W        W93514  32.500  33.650   0.566 -0.0548 -0.0730 -0.1545
50421W        W93515  28.842   1.225   2.551 -0.0395  0.0095  0.3522
50422W        W93516  32.267  34.456   0.345  0.0343  0.0186  0.2382
50423W        W93517  29.582  32.447   2.117  0.1499  0.0476  0.0375
50424W        W93518  30.857  33.167   0.984  0.1075  0.0391 -0.0966
50425W        W93519  30.587  32.865   2.971 -0.2726 -0.2072  0.0263
50426W        W93520  30.776  33.051   2.521  0.0332  0.1046 -0.1119
50427W        W93521  31.594  33.797   2.672  0.1419  0.1084  0.0585
50428W        W93522  28.226  33.012   2.430  0.2578 -0.0340  0.1199
50429W        W93523  31.697  34.343   0.133  0.0781 -0.0933  0.1350
50430W        W93524  32.446  33.343   2.746  0.0462  0.1450  0.0056
50431W        W93525  32.466   0.594   1.232 -0.1569  0.1099 -0.0271
50432W        W93526  32.116  33.961   0.422  0.1356 -0.1613 -0.1405
50433W        W93527  28.483   0.797   2.120  0.3326  0.1466 -0.1846
50434W        W93528  33.076  34.390   3.598  0.0478  0.0132 -0.2010
50435W        W93529  29.047  34.539   0.630 -0.0116 -0.2818  0.1969
50436W        W93530  32.044  34.531   1.391 -0.3136  0.0879 -0.0005
50437W        W93531  30.667  34.612  31.882  0.0675 -0.0345 -0.0560
50438W        W93532  28.929  32.633   1.229 -0.1193  0.0316 -0.0314
50439W        W93533  29.219   0.030  31.769  0.3510 -0.3211  0.0929
50440W        W93534  30.670   1.322   0.355  0.0626  0.0563  0.0266
50441W        W93535  31.122  33.419   0.016 -0.2859 -0.2147 -0.1747
50442W        W93536  31.785   0.585   2.803 -0.0477 -0.3155 -0.1337
50443W        W93537  31.087  32.202   1.723 -0.0317  0.1224 -0.1869
50444W        W93538  31.790  32.724   1.909 -0.0218 -0.1189 -0.2452
50445W        W93539  31.760  33.968   1.729  0.0613 -0.0977 -0.1310
50446W        W93540  31.710  34.198   2.157 -0.1274 -0.1550  0.2533
50447W        W93541  32.101  33.564   1.802  0.0475  0.0558  0.3561
50448W        W93542  29.040   0.905   1.540 -0.2645 -0.0920 -0.1884
50449W        W93543  29.707   0.530   3.367 -0.2743  0.0749 -0.1372
50450W        W93544  30.774  34.176   0.658 -0.1348  0.0093 -0.1666
50451W        W93545  30.853  34.221   0.141 -0.0268 -0.0513  0.0661
50452W        W93546  31.445  34.590  31.558  0.0786  0.2561  0.0617
50453W        W93547  31.124  33.436   2.403 -0.1096  0.1753  0.2024
50454W        W93548  31.679  33.796   0.338  0.2152  0.7097  0.2038
50455W        W93549  29.783  33.973   2.351 -0.0782  0.0915 -0.0937
50456W        W93550  30.870   0.151  30.905 -0.0550 -0.3437  0.1296
50457W        W93551  31.060  33.897   3.962  0.2837  0.0436  0.1145
50458W        W93552  32.533  33.574   2.223 -0.2649 -0.2084  0.1541
50459W        W93553  28.317  33.862   1.589 -0.4023  0.0857  0.2490
50460W        W93554  29.768  34.116   1.100  0.0012  0.0001  0.0539
50461W        W93555  32.220  30.649   1.738 -0.1874 -0.0643  0.1616
50462W        W93556  30.994  33.807   0.887 -0.1726 -0.0297 -0.0037
50463W        W93557  29.841  33.485  31.500 -0.2810  0.1387 -0.1098
50464W        W93558  32.430   0.134   2.167  0.2543  0.1017 -0.1593
50465W        W93559  30.054  33.622   2.608 -0.1468  0.0835 -0.2203
50466W        W93560  32.714  32.099   2.370  0.0117  0.1791 -0.0601
50467W        W93561  31.160  34.491   2.137  0.1489 -0.1434 -0.3865
50468W        W93562  31.622  33.203   1.936  0.1047 -0.1054  0.1191
50469W        W93563  30.795  33.640   3.388  0.1002  0.2127  0.0289
50470W        W93564  31.770  34.268   0.670  0.1173 -0.5154  0.1104
50471W        W93565  31.837  34.679   3.723 -0.0016 -0.0475 -0.1871
50472W        W93566  30.693   0.557  30.655  0.1390  0.2904 -0.1620
50473W        W93567  29.284  32.889   0.552 -0.3702  0.1309  0.2448
50474W        W93568  31.522  33.780   0.807  0.3754  0.1952  0.0486
50475W        W93569  29.460   1.205   2.089 -0.2686  0.0689  0.2487
50476W        W93570  30.102  34.307   1.851 -0.3339 -0.2019  0.0272
50477W        W93571  30.154  33.351  31.044 -0.0419  0.3053 -0.1543
50478W        W93572  31.339  34.693   1.387 -0.1263  0.3042 -0.0735
50479W        W93573  31.985   0.303   1.044  0.3478 -0.1598  0.0685
50480W        W93574  29.211  34.332   1.755 -0.2415 -0.0786  0.2393
50481W        W93575  30.416  33.069   1.187 -0.0202 -0.2089  0.1746
50482W        W93576  29.577  33.201   1.609 -0.1339  0.1513 -0.2092
50483W        W93577  32.043  34.546   2.400  0.3208  0.0031 -0.2737
50484W        W93578  32.967  32.616   2.540 -0.2708 -0.2017 -0.1077
50485W        W93579  31.625  32.540   3.188  0.0045  0.2444 -0.0738
50486W        W93580  32.185  34.535   0.866 -0.0395  0.0158 -0.1518
50487W        W93581  28.457  32.337   1.602 -0.1536 -0.0544 -0.0259
50488W        W93582  31.834  31.170   0.408  0.1717  0.0720  0.1254
50489W        W93583  32.248  32.560  31.826  0.1486 -0.1382  0.0979
50490W        W93584  30.699   0.929   2.379 -0.0243  0.0043  0.0180
50491W        W93585  29.109  33.592   0.725  0.0993 -0.2280  0.2332
50492W        W93586  29.617  33.294   2.782  0.0356  0.0146  0.1902
50493W        W93587  30.315  34.072   2.317 -0.1156  0.3742  0.2418
50494W        W93588  28.837   0.237   1.034  0.0477 -0.1255  0.3389
50495W        W93589  29.386  33.854   1.299  0.2462 -0.1114 -0.0414
50496W        W93590  30.495  32.293   2.164  0.1711  0.1343  0.1418
50497W        W93591  28.382  34.020   0.421  0.0995  0.1848 -0.1503
50498W        W93592  30.395  31.547   1.426  0.2445 -0.2850 -0.1768
50499W        W93593  31.465  34.652   2.986  0.2228  0.1298  0.3847
50500W        W93594  30.461  32.704   3.999 -0.1833  0.0838 -0.0454
50501W        W93595  29.105  30.835   1.398  0.0532 -0.3930  0.0988
50502W        W93596  30.672  33.391   1.746  0.0659  0.2174 -0.0536
50503W        W93597  28.045  33.546   3.170 -0.0888 -0.1339 -0.2576
50504W        W93598  32.461  33.187   1.933  0.1205  0.1633  0.2275
50505W        W93599  31.143   0.404  30.549  0.3194 -0.1488 -0.1057
50506W        W93600  29.169  32.541   2.361  0.4214  0.0588 -0.0184
50507W        W93601  29.795  31.302   2.094 -0.0285  0.2573 -0.0070
50508W        W93602  30.607  33.129   0.561 -0.0437 -0.0873  0.1113
50509W        W93603  29.665  34.067   1.620 -0.2815 -0.2465 -0.1975
50510W        W93604  30.548  33.527   0.898  0.3668 -0.1116 -0.1627
50511W        W93605  30.820  33.748   2.053 -0.0127 -0.2885  0.0225
50512W        W93606  29.484  33.416   0.381 -0.1622  0.1039  0.1842
50513W        W93607  32.834   0.542   0.504  0.0811 -0.4724 -0.1905
50514W        W93608  29.165  33.420   1.184 -0.0394 -0.2774 -0.0235
50515W        W93609  29.974  34.643   0.433  0.0428 -0.1794 -0.1410
50516W        W93610  30.786   0.829  31.822  0.3430 -0.0393  0.0782
50517W        W93611  30.881  32.645   2.067 -0.0767  0.0532 -0.1254
50518W        W93612  29.572  33.133   0.861 -0.1346  0.0922  0.1493
50519W        W93613  30.760  32.298   1.126 -0.0204 -0.2098  0.1192
50520W        W93614  29.718   0.374   3.895 -0.0996 -0.0135  0.1080
50521W        W93615  33.231   0.595   2.651 -0.1125  0.0162  0.0198
50522W        W93616  33.219  34.366   4.961  0.3946  0.3068  0.3849
50523W        W93617  29.302  32.628   4.329 -0.2662  0.0047  0.0434
50524W        W93618  30.182  32.527   6.294 -0.1793 -0.1296 -0.3713
50525W        W93619  31.852  34.235   4.392 -0.1650 -0.0244 -0.2049
50526W        W93620  31.206   0.127   7.609  0.0820 -0.0509 -0.2205
50527W        W93621  30.811  33.453   4.227  0.1224 -0.0715 -0.0635
50528W        W93622  29.987  32.684   5.417 -0.2085  0.2560  0.0471
50529W        W93623  31.166  33.592   6.485 -0.1183 -0.1098 -0.0300
50530W        W93624  28.374  34.272   4.541 -0.2064  0.3566  0.1262
50531W        W93625  28.741  33.354   5.375  0.0706  0.4143  0.2218
50532W        W93626  29.677  33.953   4.609 -0.1853 -0.1351  0.2322
50533W        W93627  31.586  33.674   5.647 -0.1176 -0.1046 -0.0873
50534W        W93628  30.682  33.264   7.376  0.2205  0.0447  0.0019
50535W        W93629  29.611  33.447   3.285  0.1854 -0.0800 -0.0450
50536W        W93630  29.509  34.480   5.321  0.1021 -0.3209 -0.0600
50537W        W93631  29.600   0.737   6.314  0.1200  0.0204  0.1131
50538W        W93632  33.394  33.144   4.468  0.0052  0.0021 -0.3861
50539W        W93633  31.006  33.976   6.184 -0.1196  0.1665  0.0712
50540W        W93634  32.290  34.131   8.066 -0.2519 -0.1069 -0.3804
50541W        W93635  31.780  34.436   5.263 -0.0289  0.4096  0.2145
50542W        W93636  31.710  33.444   5.271 -0.0486 -0.0151  0.1153
50543W        W93637  33.205  34.608   7.718 -0.1264 -0.1928  0.1712
50544W        W93638  32.437  34.184   1.533  0.1043  0.2435  0.0827
50545W        W93639  30.987  34.400   4.009 -0.1477 -0.1375  0.2482
50546W        W93640  31.993  34.191   3.801 -0.0516  0.2182 -0.2675
50547W        W93641  31.109  33.585   5.267 -0.0691  0.0637  0.1826
50548W        W93642  29.945  34.318   5.591  0.1285  0.0731  0.1454
50549W        W93643  30.969   1.195   4.807 -0.0974 -0.0446  0.2947
50550W        W93644  31.790  33.325   6.525  0.0535  0.3982 -0.2520
50551W        W93645  29.614  34.346   5.984 -0.0246  0.1627  0.0298
50552W        W93646  28.403  33.780   4.557  0.0220  0.2437  0.3235
50553W        W93647  28.210  34.259   7.713  0.0712 -0.0621 -0.0945
50554W        W93648  29.950  33.570   7.282 -0.2011 -0.1069  0.1066
50555W        W93649  29.142  32.347   3.822  0.1035  0.2855 -0.2518
50556W        W93650  32.458  33.944   5.042 -0.1171 -0.1746  0.1526
50557W        W93651  33.147  32.869   5.389  0.1725  0.0324 -0.0178
50558W        W93652  32.391  33.213   5.814 -0.0879 -0.0188 -0.1779
50559W        W93653  31.709   0.386   4.547  0.1311 -0.1932 -0.1388
50560W        W93654  31.452  34.366   7.779 -0.0978  0.0074  0.1416
50561W        W93655  29.591  32.395   7.788 -0.1592 -0.1229 -0.0831
50562W        W93656  31.493  34.030   5.257  0.2327  0.2889 -0.1407
50563W        W93657  30.963  31.601   6.774  0.0894  0.1367 -0.2474
50564W        W93658  31.873  33.161   5.661  0.1102  0.1118  0.1552
50565W        W93659  31.533  32.781   5.377  0.1141 -0.3189 -0.1093
50566W        W93660  29.946  34.377   6.455 -0.1964  0.0235 -0.2654
50567W        W93661  29.500  33.988   5.665  0.0848 -0.0885  0.0263
50568W        W93662  30.844  32.043   6.473  0.0631  0.1972 -0.1369
50569W        W93663  29.211  32.871   7.321  0.2453  0.1144  0.1771
50570W        W93664  32.115   0.311   5.990 -0.1885 -0.4503  0.4973
50571W        W93665  30.883  32.790   4.747  0.0898 -0.1622 -0.2329
50572W        W93666  31.457  33.309   5.987 -0.0610 -0.4247 -0.2642
50573W        W93667  30.276  34.269   5.160  0.1224 -0.0154  0.2270
50574W        W93668  32.479  34.087   7.537  0.1737  0.1496  0.1179
50575W        W93669  31.003  34.354   7.442 -0.1554  0.0191  0.1342
50576W        W93670  29.732  33.425   3.863 -0.2825 -0.1647  0.2344
50577W        W93671  30.692  33.166   3.775 -0.1528 -0.0063 -0.1718
50578W        W93672  32.480  33.739   6.672  0.2319  0.2566  0.1434
50579W        W93673  33.210  33.741   5.856  0.4126  0.1061 -0.1601
50580W        W93674  31.051  34.003   2.918 -0.1998  0.0085  0.3273
50581W        W93675  29.282   0.678   4.775  0.3632 -0.0997  0.2066
50582W        W93676  32.607  32.952   4.972 -0.1292  0.2601 -0.2742
50583W        W93677  29.742   0.186   6.360 -0.0678 -0.1801 -0.1177
50584W        W93678  31.117   0.071   6.429  0.0138 -0.0358 -0.0692
50585W        W93679  29.107  33.356   3.938  0.1534 -0.0520  0.0210
50586W        W93680  31.923  32.469   5.439  0.1210 -0.1692 -0.0850
50587W        W93681  32.390  34.248   4.147  0.1703  0.1441 -0.1707
50588W        W93682  31.621  33.021   3.184 -0.0549  0.1418  0.0519
50589W        W93683  31.184  33.135   4.554 -0.2139 -0.0978  0.0291
50590W        W93684  31.157  32.591   4.342  0.1020  0.3656  0.1249
50591W        W93685  30.774  33.293   5.946 -0.0477 -0.3238  0.0444
50592W        W93686  30.770  34.119   3.331  0.1952 -0.0032 -0.1425
50593W        W93687  30.740  33.132   5.173  0.0454  0.2537 -0.1103
50594W        W93688  34.061  34.654   6.187 -0.0611 -0.3192 -0.0443
50595W        W93689  31.116  32.498   5.669 -0.0218 -0.0599 -0.2468
50596W        W93690  30.145  32.987   8.227 -0.0682  0.0475  0.0982
50597W        W93691  32.549  34.264   6.951 -0.0159 -0.0321 -0.1344
50598W        W93692  31.985   0.148   5.240  0.1839 -0.2086 -0.1013
50599W        W93693  32.403  32.641   5.592  0.0179  0.2105 -0.1952
50600W        W93694  30.265  33.487   5.071  0.0848 -0.0473  0.0337
50601W        W93695  30.661  34.518   8.941  0.2203  0.0760  0.1964
50602W        W93696  31.264  34.148   5.744 -0.0021 -0.0064  0.2210
50603W        W93697  29.848  33.006   3.517 -0.4259  0.0727 -0.3815
50604W        W93698  30.652  32.861   5.684  0.1148  0.1363 -0.0574
50605W        W93699  32.720  33.517   4.476  0.0126  0.1723  0.0129
50606W        W93700  30.635  33.389   2.950  0.2460  0.1118  0.0742
50607W        W93701  30.189  33.338   3.704 -0.3154 -0.2068  0.2785
50608W        W93702  33.160  33.395   5.352 -0.0923 -0.0183 -0.2623
50609W        W93703  30.415  32.988   6.285  0.1653 -0.1089 -0.0345
50610W        W93704  30.301  33.410   5.837 -0.3574 -0.1174 -0.1118
50611W        W93705  31.613   1.125   7.585  0.2243 -0.0108 -0.1947
50612W        W93706  30.900  32.190   4.678  0.0136 -0.2550 -0.0807
50613W        W93707  30.819   0.059   7.284  0.1658 -0.0062  0.2176
50614W        W93708  30.218  34.667   3.812  0.0393  0.2600  0.1014
50615W        W93709  32.763  34.333   7.853 -0.1613 -0.1965  0.2729
50616W        W93710  31.034  32.840   6.022  0.0357 -0.3022  0.2284
50617W        W93711  29.387  34.349   3.538 -0.3392  0.1341  0.1110
50618W        W93712  30.136  33.499   8.148 -0.0344 -0.0821 -0.1184
50619W        W93713  30.624  33.669   6.286 -0.1143  0.2368 -0.1610
50620W        W93714  29.173  34.124   5.277  0.1349 -0.2790  0.4310
50621W        W93715  30.962  34.313   6.562  0.2945  0.0472 -0.0755
50622W        W93716  30.557  33.964   6.718 -0.2369 -0.0384 -0.1494
50623W        W93717  31.934  31.450   6.919  0.1352  0.1072 -0.2052
50624W        W93718  31.833   0.678   7.480 -0.0504  0.1387 -0.1347
50625W        W93719  30.127  33.390   6.348 -0.1052 -0.4427  0.2685
50626W        W93720  31.312  33.610   4.322  0.2337 -0.1068  0.0569
50627W        W93721  30.609  33.828   5.000 -0.0450  0.0798  0.1276
50628W        W93722  33.394  33.643   7.429 -0.1321  0.0771  0.2107
50629W        W93723  32.203   1.031   3.575  0.0832  0.0610  0.2333
50630W        W93724  32.101  33.501   6.932  0.2376 -0.0928  0.0575
50631W        W93725  30.773  32.440   6.949 -0.1313  0.0446 -0.0143
50632W        W93726  29.604  33.073   7.081  0.2704 -0.0619  0.2356
50633W        W93727  30.657   0.871   7.794  0.1034  0.0727 -0.2523
50634W        W93728  31.263  33.962   3.417  0.0624  0.0716  0.1125
50635W        W93729  29.416  33.163   3.607  0.3492  0.0066  0.1056
50636W        W93730  30.477  33.664   7.196  0.3398  0.0153  0.2648
50637W        W93731  32.105  33.547   4.911 -0.3273 -0.1930 -0.2557
50638W        W93732  28.829   0.962   5.477 -0.1195 -0.0584 -0.1861
50639W        W93733  31.381  34.368   6.159  0.1683  0.2965  0.0498
50640W        W93734  29.474  33.505   7.353  0.0299  0.2763  0.1743
50641W        W93735  31.057   0.042   4.825 -0.0745  0.1686  0.0627
50642W        W93736  32.282  33.145   6.558 -0.2026  0.1034 -0.2294
50643W        W93737  31.846  33.841   6.547 -0.0435 -0.2716  0.0399
50644W        W93738  32.182   0.160   7.446  0.1727 -0.2905  0.1254
50645W        W93739  29.584  33.766   7.800 -0.0279 -0.1723  0.1236
50646W        W93740  33.151   0.074   3.322 -0.1498 -0.1079 -0.2015
50647W        W93741  32.073  34.339   6.644  0.1633  0.1681  0.0855
50648W        W93742  32.273  34.379   5.115 -0.3528  0.3144  0.1426
50649W        W93743  30.256  33.871   5.521 -0.3700  0.0928  0.1074
50650W        W93744  29.962  33.740   6.651 -0.1709 -0.2602  0.1097
50651W        W93745  32.965   0.432   6.814  0.1493  0.1819  0.0990
50652W        W93746  30.784  32.238   3.194  0.2508  0.1270 -0.1396
50653W        W93747  31.342  33.907   7.457 -0.2857  0.0578  0.0337
50654W        W93748  32.170  32.997   4.754 -0.0073 -0.0841 -0.1761
50655W        W93749  28.689  33.928   6.519  0.0182  0.0822 -0.0405
50656W        W93750  29.970  33.849   4.014  0.0785 -0.1958  0.2546
50657W        W93751  31.502  33.422   3.528  0.1622  0.1790 -0.0619
50658W        W93752  29.815  33.574   4.872 -0.1211 -0.2730  0.0360
50659W        W93753  32.593  33.094   8.509 -0.1176  0.1372  0.1868
50660W        W93754  33.265  31.990   4.751 -0.0468  0.2154  0.0986
50661W        W93755  30.541  34.354   7.056  0.3670 -0.1563 -0.3631
50662W        W93756  32.123  33.759   5.795  0.1103  0.1260 -0.2548
50663W        W93757  30.803   1.457   5.342  0.2830 -0.0353  0.0287
50664W        W93758  32.376   0.046   6.970 -0.1505  0.1279 -0.1303
50665W        W93759  29.183   1.072   5.945  0.1629 -0.0036 -0.0630
50666W        W93760  29.690  33.895   6.273  0.1967 -0.0820 -0.0335
50667W        W93761  30.158  33.316   4.634  0.1751  0.2275 -0.1076
50668W        W93762  30.051  32.432   2.825 -0.3073  0.0513 -0.0425
50669W        W93763  32.638  33.060   4.473 -0.0639 -0.0786  0.0182
50670W        W93764  32.949   0.388   4.100  0.0657 -0.0442 -0.2326
50671W        W93765  33.183   1.122   4.040  0.1713 -0.2545 -0.0198
50672W        W93766  30.926  34.446   5.965 -0.0859 -0.0981 -0.0852
50673W        W93767  31.753  32.762   4.529 -0.4600  0.1856  0.0372
50674W        W93768  30.028   0.872   8.374  0.0066  0.0608 -0.1018
50675W        W93769  32.695  33.584   7.776  0.1507 -0.0227  0.0266
50676W        W93770  29.116  34.380   3.985  0.1160  0.1026 -0.3825
50677W        W93771  30.955  34.194   4.497 -0.1417 -0.3116  0.1755
50678W        W93772  33.601  33.772   6.504  0.3485  0.0984  0.2471
50679W        W93773  31.177  33.103   5.621  0.1678 -0.1590 -0.1506
50680W        W93774  29.341  34.078   3.152  0.1443 -0.1248  0.1597
50681W        W93775  32.288  34.400   4.619 -0.4173 -0.1914  0.2053
50682W        W93776  30.103  34.133   5.993  0.3168  0.1132  0.2064
50683W        W93777  33.703  33.103   5.447 -0.0718  0.2152  0.0248
50684W        W93778  29.766   0.066   5.704 -0.1635 -0.2720  0.1192
50685W        W93779  32.819  34.324   5.198  0.0542 -0.1337 -0.1073
50686W        W93780  28.169  33.298   5.295  0.0603  0.2817 -0.1252
50687W        W93781  31.471  33.713   4.828  0.0422  0.0177 -0.0359
50688W        W93782  33.328   0.784   6.715 -0.0641  0.4174  0.0345
50689W        W93783  31.301   0.666   4.868  0.0830 -0.0397  0.3525
50690W        W93784  29.095  34.062   4.373 -0.0486  0.0101 -0.2713
50691W        W93785  31.799  33.744   4.420  0.3195 -0.3539 -0.0380
50692W        W93786  30.089   0.099   4.808 -0.0753  0.0156 -0.0522
50693W        W93787  31.402   0.421   7.227  0.1409 -0.0946  0.1260
50694W        W93788  28.435  32.327   3.300 -0.2566  0.1957  0.1286
50695W        W93789  31.612   0.269   6.231 -0.0024  0.1808  0.1768
50696W        W93790  31.725   0.382   5.653  0.0459  0.0274 -0.1988
50697W        W93791  27.752  33.228   5.995  0.3065  0.0141 -0.3938
50698W        W93792  30.357  33.130   4.180 -0.1797 -0.0759  0.0685
50699W        W93793  30.418  33.455   6.715  0.2115 -0.2039  0.0471
50700W        W93794  32.740  33.627   5.754  0.1815  0.0832 -0.1726
50701W        W93795  32.251  34.136   6.149 -0.0714 -0.3284 -0.1772
50702W        W93796  32.578  32.866   6.184  0.2262 -0.0772  0.1251
50703W        W93797  30.637  33.920   5.845 -0.1038  0.0826  0.2465
50704W        W93798  29.525  32.336   5.288 -0.0889  0.0919  0.0588
50705W        W93799  31.948  34.019   4.858 -0.1221 -0.1104 -0.0582
50706W        W93800  31.882  32.716   5.023 -0.0122  0.2647 -0.1002
50707W        W93801  31.004  33.985   7.051  0.1111 -0.0160  0.1970
50708W        W93802  29.309  34.378   4.723  0.1192  0.0307  0.0565
50709W        W93803  31.612  33.679   6.976  0.2117  0.2543 -0.1358
50710W        W93804  29.224  34.157   6.292 -0.0356 -0.2773 -0.3821
50711W        W93805  30.182   0.813   5.548  0.1860  0.0965 -0.0856
50712W        W93806  30.462  33.648   3.957  0.2859 -0.0462 -0.1408
50713W        W93807  29.842  33.613   5.917  0.0915  0.1514  0.0265
50714W        W93808  28.830   0.470   5.727 -0.1711  0.0821  0.5427
50715W        W93809  30.897  33.729   4.613  0.1430 -0.1545  0.3878
50716W        W93810  31.858  34.053   8.279 -0.0966 -0.0286  0.0513
50717W        W93811  30.934  33.455   6.955 -0.3350  0.0820 -0.2947
50718W        W93812  29.758  33.837   3.042  0.3301 -0.0959 -0.3256
50719W        W93813  32.486  33.574   6.190 -0.1040 -0.2543  0.0583
50720W        W93814  28.959  32.676   6.605 -0.2315  0.1199 -0.0839
50721W        W93815  33.447  33.442   6.199 -0.0881  0.0818 -0.0206
50722W        W93816  31.621  34.542   6.550  0.0795 -0.2577  0.0728
50723W        W93817  29.722  34.406   7.900 -0.4000 -0.2065  0.0544
50724W        W93818  29.852  33.536   5.386  0.0809 -0.0539 -0.0721
50725W        W93819  30.680  33.305   4.690  0.0826 -0.2616  0.0945
50726W        W93820  29.195  34.613   6.083 -0.0006  0.2723  0.3688
50727W        W93821  31.984  33.914   5.340 -0.2408  0.0858 -0.1879
50728W        W93822  30.211   1.168   7.013  0.0304 -0.0628  0.1448
50729W        W93823  30.794  32.982   4.290  0.0136  0.3697  0.2751
50730W        W93824  33.064  34.101   4.285  0.2064  0.0173 -0.2185
50731W        W93825  29.716  32.863   6.684  0.0049 -0.2021 -0.0539
50732W        W93826  30.556  34.578   4.134  0.3302 -0.0029  0.1119
50733W        W93827  29.742  34.005   5.222 -0.2568  0.2746  0.0437
50734W        W93828  31.590  32.137   5.702 -0.1149  0.0073  0.0897
50735W        W93829  29.641  33.357   6.426 -0.1409 -0.1574 -0.0235
50736W        W93830  31.806  31.929   4.412 -0.1225 -0.1120 -0.3008
50737W        W93831  29.784  33.153   9.601  0.0276  0.0978  0.1129
50738W        W93832  32.747  33.917   8.147  0.1173  0.0107 -0.0617
50739W        W93833  33.304  34.411   8.683  0.2607  0.1460 -0.2869
50740W        W93834  29.503   0.172   7.769 -0.2927 -0.0084  0.2472
50741W        W93835  30.435   0.710   6.923  0.2327 -0.2559 -0.0493
50742W        W93836  31.834   1.584  10.281 -0.1793  0.3026 -0.4379
50743W        W93837  29.973  33.317   7.692  0.0948 -0.3471  0.1119
50744W        W93838  29.040  33.266   9.809 -0.0207 -0.2407  0.1558
50745W        W93839  34.599  33.468   9.554 -0.1507  0.1548  0.2163
50746W        W93840  29.562   0.485   6.783  0.0515  0.0388  0.2210
50747W        W93841  28.191  34.325   9.398  0.0044  0.0404  0.0677
50748W        W93842  29.917  33.892   8.827  0.1255  0.3471 -0.1103
50749W        W93843   4.663  32.663  10.900  0.1510  0.4521  0.0074
50750W        W93844  29.867   0.047   6.871 -0.0838  0.0218 -0.0091
50751W        W93845  28.667   1.035   8.822 -0.1525  0.0217 -0.1362
50752W        W93846  30.560   1.214   9.137  0.2616  0.0512  0.2898
50753W        W93847  33.121  33.798   9.253 -0.2173  0.2542 -0.0605
50754W        W93848  31.658   0.054   7.448 -0.0717  0.1637  0.0676
50755W        W93849  34.652  32.776  10.199 -0.0061 -0.0556  0.1495
50756W        W93850  30.884   0.230   8.854  0.0332  0.1506 -0.0339
50757W        W93851  32.356  34.645   7.993  0.1231  0.1377 -0.1884
50758W        W93852  29.956   0.286   7.962  0.0545  0.3581 -0.1093
50759W        W93853  31.392  34.224   8.323  0.0660 -0.0696 -0.0161
50760W        W93854  30.087  32.054   9.286  0.0920  0.2245  0.0695
50761W        W93855  30.384   0.037   9.733  0.0681 -0.1957 -0.0487
50762W        W93856  31.422  33.698   8.373 -0.1841 -0.1371 -0.0164
50763W        W93857  33.668  33.489   9.670 -0.0059 -0.0276  0.0577
50764W        W93858  30.569  34.559  10.217  0.0014  0.0695  0.3805
50765W        W93859  29.876   0.087   9.762 -0.0417  0.2599  0.2079
50766W        W93860  30.504  33.256   8.663 -0.0422  0.1876  0.0810
50767W        W93861  32.962  33.441   8.192 -0.1346  0.3802 -0.1259
50768W        W93862  32.318  32.766   7.795  0.1237 -0.0035 -0.0697
50769W        W93863  31.563  32.737  10.015  0.1272 -0.0162 -0.0889
50770W        W93864  33.223   0.599   7.239  0.2675  0.0531  0.1560
50771W        W93865  29.271  34.593  10.166  0.3002  0.0654 -0.2915
50772W        W93866  31.655   0.355   8.920 -0.0187 -0.3090  0.2711
50773W        W93867  30.968  32.107   8.855 -0.0792  0.1667 -0.1249
50774W        W93868  33.503  33.470   9.201  0.1701 -0.0924 -0.1740
50775W        W93869  29.719   0.056  10.287 -0.1811  0.0855 -0.2991
50776W        W93870  29.735  34.429   9.001 -0.3703 -0.3573 -0.3771
50777W        W93871  30.241  34.220   8.897 -0.1978 -0.0350  0.2762
50778W        W93872  29.554  34.055   6.806 -0.0158  0.0228  0.2445
50779W        W93873  30.549  33.308  10.104 -0.0697  0.1262 -0.3896
50780W        W93874  30.091   0.410   8.424  0.1907 -0.2561 -0.2519
50781W        W93875  29.406  34.098   8.475 -0.2803  0.0593  0.1118
50782W        W93876  30.454  33.630   7.807  0.3641  0.0083  0.1474
50783W        W93877  30.431  33.014   7.733 -0.0522 -0.0639  0.0010
50784W        W93878  31.837  34.614   9.566 -0.1291  0.0293  0.1874
50785W        W93879  29.988  33.284   6.859  0.1908 -0.0143  0.5184
50786W        W93880  29.325  34.197   7.529  0.1184  0.1312  0.2584
50787W        W93881  33.422  32.691   9.105 -0.2217  0.0674  0.2554
50788W        W93882  30.117   0.024   9.134  0.1893  0.3346  0.1096
50789W        W93883  32.181  33.239   8.721 -0.1576 -0.1936  0.0023
50790W        W93884  33.091  33.073   7.674  0.1952 -0.2739 -0.2752
50791W        W93885  31.884  34.592   8.021  0.1655  0.1557 -0.1339
50792W        W93886  31.944  33.082   6.103 -0.3033 -0.0050  0.3305
50793W        W93887  31.058  33.332   8.485  0.0487 -0.1679  0.1875
50794W        W93888  29.626  34.267   9.688 -0.2711  0.0523  0.0896
50795W        W93889  30.477  34.052   7.975 -0.0245  0.0509  0.2210
50796W        W93890  30.204  32.903   8.719  0.0641 -0.0991  0.0117
50797W        W93891  32.632  33.498   9.373  0.3388 -0.1679 -0.2255
50798W        W93892  32.586  32.309   9.502 -0.0285  0.1127 -0.1708
50799W        W93893  32.376  33.981   8.577  0.0277 -0.2878  0.2268
50800W        W93894  31.941   1.177   9.022  0.0080 -0.2562  0.0620
50801W        W93895  30.708  34.448   7.820  0.0867  0.1781  0.1273
50802W        W93896  30.119   0.775  10.504 -0.1636  0.1555  0.2230
50803W        W93897  31.766  33.243   8.997 -0.1137  0.0253  0.2134
50804W        W93898  30.035  32.883  10.042 -0.0019  0.2393  0.0708
50805W        W93899  31.635  31.300   9.819 -0.0678 -0.2799  0.0711
50806W        W93900  30.525  34.088   7.491  0.2036 -0.1677 -0.0782
50807W        W93901  27.885  34.575   8.794  0.0500 -0.2521 -0.0366
50808W        W93902  31.492  32.870   9.528 -0.1300  0.1587 -0.1234
50809W        W93903  28.032  33.315   9.935  0.0907  0.2743 -0.0894
50810W        W93904  31.360  33.312   9.312  0.2503 -0.2558 -0.2083
50811W        W93905  31.954  33.531   8.211 -0.3365  0.1646  0.1929
50812W        W93906  28.834  34.257   7.474  0.1732  0.1359 -0.3617
50813W        W93907  34.030  33.436  10.179 -0.0047  0.1405 -0.3250
50814W        W93908  30.008  33.384  10.021  0.0009  0.5906 -0.1394
50815W        W93909  30.153  34.571   8.143  0.0876 -0.0208  0.1807
50816W        W93910  32.729   0.826  10.294 -0.0474  0.0343 -0.0795
50817W        W93911  30.734  33.544   9.333 -0.1641  0.0403 -0.1510
50818W        W93912  29.906  34.065   9.251  0.0963  0.1227 -0.0846
50819W        W93913  31.397  33.998  10.114 -0.0951 -0.1432 -0.2385
50820W        W93914  31.759  33.689   9.249  0.0589  0.3495  0.3056
50821W        W93915  30.600  31.822   9.617  0.1111 -0.2840 -0.1574
50822W        W93916  32.005  32.671   9.673  0.1053  0.1213  0.0955
50823W        W93917  31.615  33.809   7.907 -0.0355 -0.3009  0.2352
50824W        W93918  31.889   0.271   9.915 -0.0021  0.2094 -0.0382
50825W        W93919  31.284   0.340   8.518  0.0734  0.0635  0.0316
50826W        W93920  28.285  32.583   8.770 -0.1088 -0.2544 -0.1522
50827W        W93921  30.824  33.580   8.836 -0.1056 -0.1983  0.0643
50828W        W93922  29.087  32.189   7.943  0.1609 -0.0338 -0.2115
50829W        W93923  29.789   0.129   8.726  0.0729  0.2578 -0.1660
50830W        W93924  31.435  32.902   9.065  0.1966  0.0523  0.2153
50831W        W93925  31.903  33.934   9.867  0.1555  0.0413  0.0096
50832W        W93926  31.327  33.627   8.856  0.0418 -0.1031 -0.0488
50833W        W93927  32.744  33.990   9.696 -0.1855  0.1742  0.1145
50834W        W93928  32.627  33.124   7.390 -0.2864 -0.0065  0.0201
50835W        W93929  31.759   0.433   9.390  0.0485 -0.0111 -0.2478
50836W        W93930  33.489  33.838   8.874  0.2337 -0.1749  0.2230
50837W        W93931  33.915  32.725   9.315  0.3914  0.1849 -0.3022
50838W        W93932  29.611  33.962  10.127 -0.1327 -0.1733  0.1077
50839W        W93933  29.277  33.235   8.924  0.1692 -0.0043 -0.2221
50840W        W93934  31.052  34.079   7.861 -0.2067 -0.2581 -0.0333
50841W        W93935  29.321  34.310  10.780  0.1272  0.1627 -0.1126
50842W        W93936  29.510  33.524   6.883 -0.0712  0.0031 -0.3372
50843W        W93937  30.309   0.750   7.413  0.1402 -0.1443 -0.0740
50844W        W93938  30.394  33.841   8.505  0.4147  0.0362  0.1122
50845W        W93939  31.698  32.439   9.202 -0.1054  0.1055 -0.1034
50846W        W93940  30.663  32.840   9.814  0.1656 -0.0916  0.2824
50847W        W93941  32.181  33.290   9.428 -0.1405  0.1329 -0.1578
50848W        W93942  31.624  34.573   9.077 -0.0876 -0.0948 -0.0761
50849W        W93943  30.997  33.000   9.468  0.1498 -0.1040 -0.3234
50850W        W93944  29.578  33.598   8.561 -0.0396 -0.2476  0.3573
50851W        W93945  29.592   0.037   8.247  0.0291  0.1211  0.0614
50852W        W93946  31.598  33.258   8.537 -0.4047 -0.1376 -0.0033
50853W        W93947  32.917   0.087   8.153  0.0458 -0.1176 -0.1695
50854W        W93948  33.822  32.781   8.277  0.0884 -0.2970  0.3502
50855W        W93949  30.608  33.708   9.849  0.2496 -0.1666 -0.0205
50856W        W93950  31.409  32.942   7.456 -0.1094  0.0475  0.2891
50857W        W93951  29.663  33.788   9.633 -0.2270  0.2705  0.1385
50858W        W93952  30.385  33.980   9.452 -0.0442 -0.3333  0.3432
50859W        W93953  33.110   0.043  10.367  0.1172  0.0809 -0.0964
50860W        W93954  32.198  33.816   9.482  0.0453 -0.0353 -0.1249
50861W        W93955  29.073  34.485   8.354  0.0468 -0.2334 -0.0280
50862W        W93956  33.210  32.713   8.022 -0.0249 -0.0728 -0.3126
50863W        W93957  28.592  34.064   9.683  0.4332  0.1218 -0.0138
50864W        W93958  30.555   0.236   9.260 -0.0104  0.2234 -0.0462
50865W        W93959  31.744  33.322   7.738 -0.2773 -0.1742  0.0302
50866W        W93960  28.440   0.822  10.419  0.1968  0.1085  0.0113
50867W        W93961  32.040  34.326   7.503  0.0086  0.1624 -0.1635
50868W        W93962  33.502  34.206   7.648 -0.1725  0.2718 -0.1975
50869W        W93963  29.627  32.891   9.103 -0.0927 -0.2155 -0.2637
50870W        W93964  30.290   0.037   8.662  0.2791  0.1331  0.2956
50871W        W93965  29.579   0.550  10.118  0.0349  0.0033  0.0350
50872W        W93966  30.279   1.335   9.507  0.1441 -0.1659  0.2729
50873W        W93967  29.175  32.485   9.201 -0.1063 -0.1899 -0.0178
50874W        W93968  32.839  34.041   8.705  0.0619 -0.0890 -0.1475
50875W        W93969  33.202   0.167   8.578  0.0453  0.0870 -0.1810
50876W        W93970  28.889   0.124   8.772 -0.2548  0.2964 -0.0054
50877W        W93971  30.528  32.829   9.268 -0.0774 -0.1411  0.0746
50878W        W93972  30.800  34.373   9.423 -0.2112  0.3578 -0.1372
50879W        W93973  32.755  33.510   8.765  0.1201  0.0065  0.1826
50880W        W93974  32.845  34.505   9.956  0.0270  0.1369 -0.3246
50881W        W93975  30.056  32.675   9.599 -0.1133 -0.2037  0.0723
50882W        W93976  32.778  32.681   8.298 -0.2891  0.1232 -0.3422
50883W        W93977  31.785  33.686   8.732 -0.1366 -0.0927 -0.0884
50884W        W93978  29.504   1.093  10.107  0.0480 -0.3162 -0.0954
50885W        W93979  29.157   0.285   8.220 -0.1573 -0.1313  0.0348
50886W        W93980  30.360   0.789   9.318  0.0120 -0.2461 -0.1007
50887W        W93981  29.841   0.995   7.374  0.1760  0.2172  0.0580
50888W        W93982  28.677  33.567   9.969  0.1145  0.2287  0.0750
50889W        W93983  28.623  33.815   8.734  0.3633 -0.0010 -0.3403
50890W        W93984  31.139  34.578   8.574  0.1111 -0.0684 -0.2287
50891W        W93985  29.758  33.407   9.013 -0.1609  0.0898 -0.0484
50892W        W93986  29.244  34.287   9.374 -0.2687 -0.1233 -0.3986
50893W        W93987  30.128  33.895   9.841 -0.0539  0.0368  0.1428
50894W        W93988  34.350  34.028   9.939 -0.1840 -0.3036 -0.0874
50895W        W93989  31.636  34.663   8.558 -0.1400 -0.2468  0.2714
50896W        W93990  29.165  32.505  10.208 -0.1190 -0.0377  0.0124
50897W        W93991  30.847  32.917   8.742 -0.1003 -0.0465  0.0843
50898W        W93992  30.313  33.642   8.973 -0.0484 -0.0325  0.0075
50899W        W93993  31.057  33.979   8.668  0.1213 -0.2329 -0.1889
50900W        W93994  31.471   0.112   8.099  0.0092  0.2797  0.0538
50901W        W93995  33.613  33.898   8.042 -0.2450  0.1417 -0.1143
50902W        W93996  28.900  32.688   9.574  0.0608  0.2403  0.0954
50903W        W93997  30.214   0.952   8.824  0.1546  0.1016  0.0707
50904W        W93998  30.838   0.648   9.295  0.0728  0.1489 -0.1497
50905W        W93999  33.331  34.252   9.173  0.0031  0.0517 -0.0133
50906W        W94000  31.028  33.452   9.754 -0.1385  0.2150 -0.1119
50907W        W94001  30.788  33.641   8.257  0.1129 -0.0769 -0.2884
50908W        W94002  33.674   3.296   3.583 -0.2402  0.0355 -0.3538
50909W        W94003  34.645   0.857   1.091  0.0038  0.1685  0.2339
50910W        W94004  31.781   1.253   1.541 -0.2068  0.2755  0.1742
50911W        W94005  33.935  34.641   2.426  0.0886 -0.2581 -0.2573
50912W        W94006  33.697   1.027   3.319  0.0568 -0.2019  0.1932
50913W        W94007  33.109   2.721   3.577  0.2334  0.0103 -0.0456
50914W        W94008  34.129   0.998  31.569 -0.0555 -0.1520  0.1760
50915W        W94009  32.326   0.720   2.163 -0.0830 -0.0426  0.0210
50916W        W94010  32.384   1.818   1.015  0.3094 -0.0612 -0.3661
50917W        W94011  32.387   1.959   1.909 -0.0522  0.3427  0.1531
50918W        W94012  34.455   2.161   0.498  0.0618  0.1929  0.3415
50919W        W94013  33.516   0.677   3.095 -0.2453  0.0776  0.0915
50920W        W94014   0.996   2.800   0.773  0.1192 -0.0092  0.0998
50921W        W94015  32.865   1.742   1.263 -0.0888 -0.1376 -0.0663
50922W        W94016  32.130   1.576   1.462  0.2091  0.1590  0.0460
50923W        W94017  33.935   2.147   0.230  0.0672 -0.1495  0.2067
50924W        W94018  34.144   3.878   2.319 -0.1774 -0.1424 -0.2717
50925W        W94019  34.484   3.383   2.002 -0.1322 -0.3213 -0.1197
50926W        W94020  32.864   2.697   1.686  0.3367  0.1027  0.0120
50927W        W94021  31.969   2.767   1.486  0.0278 -0.0789  0.1583
50928W        W94022   0.181   3.762   0.506 -0.0802 -0.2650 -0.1284
50929W        W94023  33.140   3.392   2.663  0.1141  0.1577  0.4104
50930W        W94024  33.153   2.734   0.116  0.2883 -0.0030 -0.4517
50931W        W94025  33.731   3.053   4.477  0.2449  0.2241 -0.1627
50932W        W94026  33.146   3.499   1.174 -0.1610  0.0663 -0.0746
50933W        W94027  34.663   2.965   1.878 -0.1401  0.2178 -0.1195
50934W        W94028  33.626   3.354   3.084 -0.1861 -0.1156 -0.0509
50935W        W94029  33.709   3.636   2.460  0.0286  0.0904  0.0808
50936W        W94030  33.815   3.340   0.548 -0.0751 -0.3917  0.1527
50937W        W94031   0.101   1.606  31.784  0.1681  0.0263 -0.0315
50938W        W94032  34.313   1.177   1.631  0.1870 -0.3084  0.1477
50939W        W94033  33.590   4.274   2.999  0.2248  0.0884 -0.0682
50940W        W94034  32.272   1.945   2.883  0.1079  0.1901 -0.1936
50941W        W94035  32.592   3.166   1.876 -0.0968  0.1870 -0.2100
50942W        W94036  34.326   0.605   1.462  0.0041 -0.0821 -0.2217
50943W        W94037  34.382   3.038   0.078 -0.0436  0.2098  0.1958
50944W        W94038  32.270   2.710   2.819  0.0036  0.2524  0.1669
50945W        W94039  31.730   0.886   3.205  0.0769  0.0486  0.0798
50946W        W94040  32.359   0.644  31.321  0.0660  0.0202 -0.1500
50947W        W94041  32.829   3.029   4.078  0.1441  0.3188 -0.2277
50948W        W94042  32.718   2.265   1.975 -0.0837 -0.1319 -0.0518
50949W        W94043  34.535   2.664   0.486  0.1185 -0.3067 -0.0739
50950W        W94044  34.374   4.071   0.428  0.2187 -0.1229 -0.0814
50951W        W94045  32.835   3.895   1.830  0.0117 -0.0135 -0.3318
50952W        W94046  33.999   1.582   3.532  0.0329  0.1487  0.5017
50953W        W94047  33.431   2.934   3.888 -0.1283  0.0597 -0.0890
50954W        W94048  32.897   4.867   0.238  0.0454 -0.0417 -0.3205
50955W        W94049  31.597   1.635   2.188 -0.3103 -0.3494 -0.2552
50956W        W94050  33.592   3.302   1.470 -0.0552  0.0168  0.0529
50957W        W94051  32.130   0.082   3.313 -0.2899 -0.2823 -0.0652
50958W        W94052   0.112   3.077   0.428 -0.4186  0.2282  0.2390
50959W        W94053  32.885   1.521   4.081 -0.3608  0.0699 -0.4462
50960W        W94054  32.773   3.615   0.771  0.0522  0.3518 -0.0888
50961W        W94055  32.452   1.490   2.774 -0.4351  0.3173 -0.0700
50962W        W94056  31.647   0.851   1.320  0.1356  0.2002 -0.0921
50963W        W94057  33.616   1.283   3.731 -0.2064  0.2888  0.1231
50964W        W94058  33.550  33.271   1.998  0.0719  0.1797  0.0093
50965W        W94059  31.949   0.121   0.098  0.2770  0.1523 -0.2052
50966W        W94060   0.012   1.840   0.849  0.1071  0.2433 -0.1447
50967W        W94061  33.154   1.360   1.011  0.0862 -0.3903 -0.0250
50968W        W94062  33.391   1.158   2.875  0.0366  0.0438 -0.1929
50969W        W94063  34.393   0.465  31.619  0.0073  0.0284 -0.1675
50970W        W94064  33.205   3.159   1.680  0.0074 -0.0385 -0.0618
50971W        W94065  33.669   2.090   1.560 -0.0747 -0.2402 -0.2768
50972W        W94066  33.339   0.860   1.284  0.0443  0.0175  0.1471
50973W        W94067  33.415   2.291   3.279  0.1709  0.0424 -0.2980
50974W        W94068  33.958   0.132   0.795  0.1779 -0.3014  0.1372
50975W        W94069  32.273   4.870   0.609  0.0014  0.1971  0.1702
50976W        W94070  32.489   2.560   1.358  0.1803 -0.1771  0.2182
50977W        W94071  34.461   3.043   1.308 -0.1340 -0.0461 -0.1429
50978W        W94072  32.515   2.580   3.241  0.1089 -0.1874  0.0547
50979W        W94073  33.732   0.113   0.349 -0.2870  0.4145 -0.2970
50980W        W94074  32.572   2.648   2.234  0.2521  0.1778  0.0834
50981W        W94075  32.700   2.820   2.675  0.1321  0.1396  0.1148
50982W        W94076   0.637   2.679   1.513 -0.0031  0.2513  0.0408
50983W        W94077  32.671   2.198   3.899 -0.0119 -0.1317  0.0503
50984W        W94078  32.231   2.471   1.817  0.2900 -0.0535 -0.0843
50985W        W94079  33.477   0.161   2.893  0.0938  0.0416 -0.0275
50986W        W94080  33.354   0.890  31.638 -0.2557  0.2654  0.2293
50987W        W94081  32.655   2.654   0.895  0.1984  0.1943  0.1885
50988W        W94082  32.418  34.646   2.810 -0.3077  0.1388 -0.0353
50989W        W94083  33.555   2.468   0.351  0.0406 -0.4339 -0.4713
50990W        W94084  33.721  34.573   3.834 -0.0102  0.1781 -0.0553
50991W        W94085  33.722   2.799   2.850 -0.3082  0.0610 -0.1611
50992W        W94086  31.596   4.510   2.012 -0.0966 -0.0581  0.0796
50993W        W94087   0.182   1.239   2.432  0.0258 -0.1627  0.0101
50994W        W94088  32.712   2.500   0.155  0.0086  0.4436  0.2855
50995W        W94089  33.973   3.405   0.090 -0.4084  0.1220  0.0178
50996W        W94090  33.702   0.960   2.431  0.1979 -0.0451 -0.3484
50997W        W94091  33.383   2.508   1.631 -0.1630  0.4123  0.1185
50998W        W94092  33.397   2.186  31.815  0.0029  0.0434 -0.1090
50999W        W94093  33.341   1.796   1.317 -0.3073 -0.2160  0.2594
51000W        W94094  33.275   3.681   1.635 -0.1856  0.0450 -0.1502
51001W        W94095  34.603   1.663  31.274  0.2100 -0.0061  0.2432
51002W        W94096  32.606   1.356   1.008  0.1073  0.3636  0.3125
51003W        W94097  33.879   1.880   3.160  0.1099  0.1567  0.1509
51004W        W94098   1.043  34.368   0.703  0.0882 -0.0748  0.1177
51005W        W94099  32.720   3.258   2.524 -0.0923 -0.4569 -0.0658
51006W        W94100   0.573   1.638   4.453 -0.2732  0.1317  0.1546
51007W        W94101  31.950   1.597   1.012  0.0317  0.1233 -0.1149
51008W        W94102  33.706   0.892   0.833  0.1689 -0.0732 -0.1877
51009W        W94103  33.386   2.899   1.307  0.2730  0.0245  0.0762
51010W        W94104  34.182   2.586   0.186 -0.1316  0.3809 -0.3581
51011W        W94105  32.173   1.020   1.283  0.2629  0.0815 -0.4591
51012W        W94106  33.969   2.177   2.447  0.1585 -0.1408 -0.2449
51013W        W94107  33.405   1.705   2.812 -0.1805  0.0334  0.1015
51014W        W94108   0.244   0.416   0.464  0.0821 -0.1125  0.4065
51015W        W94109  33.998   0.636   1.830 -0.1972  0.0859  0.2539
51016W        W94110  33.987   2.172   3.614  0.0580  0.0632  0.0375
51017W        W94111  33.131   3.360   3.174 -0.1882  0.1480  0.3294
51018W        W94112  33.343   1.793   0.763  0.1173 -0.1305  0.1123
51019W        W94113  31.275   1.050   1.717 -0.0854 -0.2101 -0.3284
51020W        W94114  32.755   3.516   1.564  0.2113  0.0129 -0.0133
51021W        W94115  34.443   2.581   1.078  0.0163 -0.0434  0.0262
51022W        W94116  33.828   2.841   0.380  0.0117  0.0504 -0.1616
51023W        W94117  34.319   2.601   1.572  0.3713  0.0987 -0.0832
51024W        W94118  32.347   3.650   1.883 -0.1383 -0.2081 -0.0933
51025W        W94119  34.390   0.119   1.789  0.0205  0.0070  0.1763
51026W        W94120  33.559   1.833   3.683  0.1230  0.1854 -0.1120
51027W        W94121  33.369   1.478   2.355 -0.2398  0.0399 -0.3179
51028W        W94122  32.987   2.029   2.585 -0.1525  0.1070 -0.0129
51029W        W94123  32.283   0.702   0.392 -0.1697 -0.0351  0.0141
51030W        W94124  33.730   2.360   2.035 -0.0158  0.1899  0.2798
51031W        W94125   0.575   2.923  31.639  0.0071 -0.0764  0.0251
51032W        W94126  33.228   1.880   3.271  0.1331 -0.0940  0.0814
51033W        W94127   0.519   3.095   0.183  0.2326 -0.0172  0.2365
51034W        W94128  33.743   2.103   0.719  0.0230  0.1139  0.0383
51035W        W94129  33.510   0.695   4.210  0.2499  0.0689 -0.3029
51036W        W94130  34.280   0.889   3.372  0.0099 -0.2380 -0.0348
51037W        W94131  32.456   0.902   2.647  0.1174  0.0105  0.0477
51038W        W94132  32.965   1.823   2.140 -0.0260 -0.2346  0.0244
51039W        W94133  34.065   1.041   0.488  0.0055 -0.2877  0.1019
51040W        W94134   0.515   3.611   0.189  0.2930 -0.1154  0.0141
51041W        W94135  32.636   1.305   1.620  0.1135 -0.1990  0.0432
51042W        W94136  33.522   3.492   4.487 -0.3111 -0.0868 -0.0627
51043W        W94137  33.991   1.299  31.972 -0.0226 -0.2239 -0.0204
51044W        W94138   0.610   1.930   0.298  0.4540 -0.0046 -0.2044
51045W        W94139  34.073   2.484   0.703 -0.0486  0.0097  0.1781
51046W        W94140   0.645  34.294   1.673  0.0183 -0.1419  0.3030
51047W        W94141  31.810   2.328   1.415 -0.1873  0.1629  0.0478
51048W        W94142  33.027   3.085   0.965 -0.1202  0.2175 -0.2952
51049W        W94143  34.342   1.839   1.432  0.0248 -0.0359 -0.0336
51050W        W94144  33.833   2.747   1.555  0.1391 -0.2296 -0.1048
51051W        W94145  33.869   1.561   1.611 -0.2052 -0.0700 -0.2301
51052W        W94146  33.922   1.572   0.759  0.0687 -0.0560 -0.1062
51053W        W94147  33.861   1.875   1.155 -0.0333 -0.1157 -0.1008
51054W        W94148  31.503   1.045   4.083  0.0886  0.1717  0.0067
51055W        W94149  33.681   1.331   1.133 -0.0109 -0.0646 -0.1474
51056W        W94150  31.914   3.444   4.135  0.1323  0.0367 -0.0549
51057W        W94151  31.968   0.978   2.519  0.2306 -0.3082 -0.1196
51058W        W94152  33.000   2.600   1.210  0.0011 -0.3207  0.1731
51059W        W94153   1.063   1.107   1.382 -0.2730  0.1137  0.0650
51060W        W94154  33.523   3.328   1.989 -0.3214  0.1013  0.0662
51061W        W94155  33.390   2.256   1.130  0.2377 -0.2754 -0.1125
51062W        W94156  34.026   4.248   2.655  0.0079 -0.0080  0.1910
51063W        W94157  34.347   1.202   0.900 -0.2589  0.1470  0.0208
51064W        W94158  34.168   0.727   0.825  0.2976  0.2516 -0.2176
51065W        W94159  34.304   1.726   4.525  0.1539 -0.0792 -0.2686
51066W        W94160  32.609   4.284   2.568 -0.3387  0.2063  0.3301
51067W        W94161  34.082   0.272  31.962  0.2799 -0.0642  0.1649
51068W        W94162  32.781   1.843   0.709 -0.1301  0.0592 -0.3496
51069W        W94163   0.312   3.697  31.256  0.3311  0.0584 -0.0275
51070W        W94164  33.725   4.096   1.541  0.0465 -0.0063  0.1175
51071W        W94165  33.638   3.676   0.971  0.0822 -0.1350  0.1627
51072W        W94166  33.601   3.167   0.998 -0.0555  0.1989 -0.0887
51073W        W94167  32.592   0.880   0.801 -0.1766  0.1738  0.0228
51074W        W94168  32.887   2.290   3.434  0.1279  0.1315  0.1651
51075W        W94169  34.177   1.591   0.357  0.1149 -0.0748 -0.1350
51076W        W94170  31.521   0.348   1.905  0.4846 -0.0295  0.0692
51077W        W94171  34.286   1.475  31.614  0.3003  0.2618 -0.1090
51078W        W94172  33.521   1.474   3.295 -0.0739  0.0227  0.1057
51079W        W94173  33.319   1.319   1.509  0.1093 -0.1181  0.0600
51080W        W94174  34.006   0.866   4.216 -0.1660  0.0197 -0.1041
51081W        W94175  33.473   1.011   1.837 -0.1377  0.2038  0.0093
51082W        W94176  32.963   2.830   0.579  0.0161  0.2368  0.3786
51083W        W94177  33.757   0.458   2.256  0.0143  0.4206 -0.0200
51084W        W94178   0.517  34.247   0.628  0.0628  0.0810 -0.0856
51085W        W94179  33.179   2.009   0.326 -0.0216  0.1336  0.1974
51086W        W94180  33.369   4.036   1.130  0.1656 -0.0503  0.0449
51087W        W94181   0.295   5.050  31.783  0.0543  0.1277  0.1762
51088W        W94182  34.090   3.187   1.676 -0.2209 -0.1639 -0.0930
51089W        W94183  33.583   3.800   3.315 -0.1028  0.1669 -0.2695
51090W        W94184  32.345   2.792   0.534 -0.0167  0.0626  0.2495
51091W        W94185  33.990   3.229   3.979  0.2429  0.0021  0.3711
51092W        W94186   0.332   4.374   1.627  0.3534  0.0561 -0.2051
51093W        W94187  33.980   4.064   1.079  0.2328 -0.0635  0.0580
51094W        W94188  34.544   0.905   0.500 -0.0933  0.0069 -0.1243
51095W        W94189  33.593   0.948   0.112  0.1656  0.2865 -0.0471
51096W        W94190  33.646   2.229   2.828  0.2382  0.0979  0.1052
51097W        W94191  33.082   1.316  31.443  0.2645  0.0585  0.0065
51098W        W94192  32.263   3.000   1.143 -0.0545  0.1374 -0.2061
51099W        W94193  33.463   1.741   1.878  0.2628  0.0934 -0.1885
51100W        W94194  31.928   1.853   2.490  0.1917 -0.2600 -0.3915
51101W        W94195  32.711   3.040   1.355  0.0973 -0.0516 -0.1010
51102W        W94196  32.769   0.982   2.121  0.0397  0.0418 -0.1975
51103W        W94197   0.296   0.921   0.736  0.1353 -0.1653  0.2415
51104W        W94198  31.664   0.543   2.357  0.2263  0.1446  0.2408
51105W        W94199  34.344   0.114   1.300 -0.0236 -0.0062 -0.3539
51106W        W94200  34.282   3.770   0.869 -0.0795  0.0834 -0.0414
51107W        W94201   0.438   0.870   3.753 -0.2796 -0.0459  0.0849
51108W        W94202  33.942   0.348   2.703 -0.1549 -0.1180  0.0919
51109W        W94203  32.532   2.312   0.579 -0.0981 -0.1988  0.0649
51110W        W94204  34.193   1.784   2.696  0.1540  0.0163  0.0635
51111W        W94205  34.341   2.654   2.131  0.0933 -0.3213 -0.5227
51112W        W94206  32.411   3.197   2.999 -0.1799 -0.0145  0.0877
51113W        W94207  32.657   1.162   3.319  0.0551  0.5407  0.1105
51114W        W94208  33.421   2.933   3.268  0.1712  0.1777 -0.2495
51115W        W94209  33.604  34.156   2.295 -0.2208 -0.0469  0.0770
51116W        W94210  34.425   2.455   3.553  0.1816 -0.0374 -0.1603
51117W        W94211  33.049   1.398   1.880  0.0594 -0.1067 -0.0763
51118W        W94212  32.767   1.978   3.052  0.2267 -0.0999  0.0776
51119W        W94213   0.633   1.768  31.718 -0.1311  0.0164 -0.3194
51120W        W94214   0.295   2.214   3.671 -0.0370 -0.1698  0.3038
51121W        W94215   0.026   1.819   0.253  0.2530  0.0367  0.1774
51122W        W94216  32.774   4.167   3.390 -0.1762 -0.1159 -0.2227
51123W        W94217  32.335  34.111   3.264  0.0806 -0.0230  0.2904
51124W        W94218  32.868   1.644  31.775  0.0140 -0.0235  0.1282
51125W        W94219   0.134   2.691   1.474  0.1899  0.0485 -0.1630
51126W        W94220  33.518   2.024   2.369 -0.1713 -0.2521 -0.1707
51127W        W94221  32.234   3.557   3.748 -0.3869 -0.1474 -0.4037
51128W        W94222  33.418   2.762   5.682  0.0965  0.0411 -0.1407
51129W        W94223  32.372   1.588   3.225 -0.1917 -0.2327 -0.1461
51130W        W94224  33.435  34.129   5.580  0.0186 -0.3673  0.0461
51131W        W94225  33.056  33.781   6.341 -0.1445  0.0491  0.0752
51132W        W94226  34.204   0.285   6.530 -0.2279 -0.0118 -0.1444
51133W        W94227  33.463   2.510   5.118  0.0599  0.0059  0.1389
51134W        W94228  32.852  34.468   4.053 -0.1190 -0.1371  0.3171
51135W        W94229  32.654   0.015   4.891 -0.1982 -0.0104 -0.1927
51136W        W94230  31.878   1.501   3.178  0.3361  0.1557 -0.1897
51137W        W94231  34.277   1.518   5.413  0.0404  0.2091  0.2108
51138W        W94232  33.840   0.804   3.725 -0.0183  0.2791 -0.3365
51139W        W94233  33.918   0.054   7.606 -0.0370  0.2431  0.1761
51140W        W94234  34.393   3.367   5.026  0.0376 -0.1286 -0.0042
51141W        W94235  33.631   1.228   4.253 -0.0585 -0.0271  0.2584
51142W        W94236  33.171   1.949   4.752  0.0904  0.0586  0.2331
51143W        W94237  33.477   1.507   4.871 -0.0166  0.1633  0.1513
51144W        W94238  33.099   2.930   5.363  0.2453 -0.1082 -0.1869
51145W        W94239  34.459   4.059   6.101  0.3494 -0.0840 -0.1669
51146W        W94240  32.795   1.827   5.088 -0.0036  0.4406  0.1281
51147W        W94241  32.253   4.494   4.607 -0.0295  0.2213  0.1156
51148W        W94242  33.795   2.786   4.873 -0.3599  0.3813  0.2307
51149W        W94243  33.460   4.219   5.691 -0.3771  0.0478  0.2042
51150W        W94244  31.913   3.178   3.634 -0.2028  0.0117 -0.1350
51151W        W94245  34.146   2.884   6.982  0.0672 -0.2049  0.0565
51152W        W94246  34.305   2.473   5.146 -0.1898 -0.0646 -0.0137
51153W        W94247  34.369   2.012   5.362  0.1923  0.3464  0.0560
51154W        W94248  33.286   1.655   5.873  0.2686 -0.0803  0.1936
51155W        W94249  33.829   2.186   5.300  0.2734 -0.0790  0.0471
51156W        W94250  32.708   2.608   4.363  0.0252 -0.0321 -0.0525
51157W        W94251  33.845   0.468   4.516  0.4143 -0.0450 -0.3752
51158W        W94252  34.436   1.077   4.579  0.1292  0.0868 -0.0755
51159W        W94253  33.209   3.344   4.125 -0.1052  0.0374  0.3866
51160W        W94254  33.325   0.467   5.908  0.1435 -0.2480  0.2719
51161W        W94255  32.666   2.336   6.023  0.2091 -0.0092 -0.3714
51162W        W94256  34.449   1.049   5.252 -0.0480 -0.2568  0.1469
51163W        W94257  33.149   1.364   4.506 -0.1589  0.0390 -0.0877
51164W        W94258  32.125   1.860   6.790  0.1984  0.1101  0.1773
51165W        W94259  33.542   0.753   6.295 -0.0415 -0.2996  0.0419
51166W        W94260  33.441  34.149   3.969 -0.4201 -0.1633 -0.2334
51167W        W94261  32.774   2.956   6.814  0.0366 -0.0289  0.0973
51168W        W94262  34.318   3.202   5.603  0.2868 -0.1668  0.0184
51169W        W94263  32.821   2.976   3.139  0.3359  0.0779  0.1063
51170W        W94264  34.604   2.561   4.409  0.0344  0.0455 -0.0058
51171W        W94265  33.257   2.610   6.161 -0.0310  0.1985 -0.1903
51172W        W94266   0.623   0.419   7.701  0.0765  0.1175 -0.1530
51173W        W94267  33.786   2.602   6.695  0.1343 -0.1634 -0.0093
51174W        W94268  31.817   2.826   3.996 -0.1196  0.1487  0.0086
51175W        W94269  32.514   3.173   5.544  0.0972  0.1686 -0.1814
51176W        W94270  33.237   2.301   2.059 -0.1842 -0.1182  0.0291
51177W        W94271  31.915  34.579   6.167  0.1511  0.0890 -0.0365
51178W        W94272  33.964   2.124   6.460  0.0307 -0.0249  0.1205
51179W        W94273  33.282  34.188   6.640  0.0190 -0.0298  0.1941
51180W        W94274  33.055   3.201   3.660  0.3885 -0.0076 -0.3047
51181W        W94275  31.747   0.892   5.733 -0.1098 -0.1182  0.3529
51182W        W94276  34.403   0.305   5.936 -0.1517 -0.0928 -0.2162
51183W        W94277  33.775  34.404   7.256  0.2219  0.4869  0.2362
51184W        W94278  33.406  34.199   6.112  0.0099  0.2020  0.2234
51185W        W94279  32.746  34.224   4.718 -0.4913  0.1234 -0.0244
51186W        W94280  33.979   1.277   4.574 -0.0544  0.1948  0.0718
51187W        W94281  33.188   2.425   4.584  0.1963 -0.1958 -0.1923
51188W        W94282  33.094   0.994   6.120  0.0963  0.0566 -0.2191
51189W        W94283  32.692   0.459   4.570  0.0257 -0.0920  0.0807
51190W        W94284  34.064   3.657   5.266  0.1175  0.1821 -0.0811
51191W        W94285  34.134   2.754   4.316 -0.1120  0.1638  0.2097
51192W        W94286  33.754   1.776   4.483 -0.2093  0.0172 -0.1448
51193W        W94287  32.293   1.525   6.209 -0.0251 -0.2015 -0.1356
51194W        W94288  33.141   1.458   3.662  0.1832 -0.0016 -0.2046
51195W        W94289  32.346   3.143   4.000  0.1322  0.1837  0.0897
51196W        W94290  31.922   1.353   4.159 -0.0485 -0.0805 -0.3386
51197W        W94291  34.163   2.769   5.942 -0.2567  0.1109  0.0416
51198W        W94292  33.360   1.597   6.813 -0.0331 -0.0606  0.0485
51199W        W94293  33.503   0.934   4.641  0.1379  0.1127 -0.0477
51200W        W94294  34.329   2.455   6.716  0.0803  0.1542  0.3056
51201W        W94295  33.272   3.865   7.545  0.0034  0.1920  0.1585
51202W        W94296   0.515   2.834   6.034 -0.4602  0.2538  0.0002
51203W        W94297  33.754   1.775   5.583 -0.1978 -0.1951  0.0968
51204W        W94298  31.980   2.309   6.675  0.1108 -0.2072 -0.1426
51205W        W94299   0.192  33.949   5.065 -0.3269  0.0431 -0.1121
51206W        W94300  33.908  34.657   4.348 -0.0729  0.2046 -0.3139
51207W        W94301  32.356   4.737   2.589 -0.0242  0.4316 -0.1882
51208W        W94302   0.434  34.439   6.908  0.0789  0.0655 -0.1483
51209W        W94303  33.997   1.311   3.099 -0.3470  0.0449 -0.0560
51210W        W94304   0.663  34.212   7.552  0.2060  0.0421 -0.1882
51211W        W94305  34.140   0.692   6.120 -0.2728  0.0413 -0.0404
51212W        W94306  33.152   3.101   6.414 -0.1333  0.0794  0.2455
51213W        W94307  34.193   0.562   6.994  0.2211  0.1301 -0.2531
51214W        W94308  34.189   2.271   4.651 -0.0201  0.1903 -0.3101
51215W        W94309  32.532   2.511   5.049 -0.1283  0.2434  0.0825
51216W        W94310  33.642   0.127   5.686 -0.4948  0.2835  0.0831
51217W        W94311  34.485   3.942   5.331 -0.2547 -0.1241 -0.1968
51218W        W94312  34.541   1.945   4.903  0.0686 -0.1412 -0.0924
51219W        W94313  33.945   2.660   3.784  0.0293 -0.0171  0.1156
51220W        W94314  32.215   2.496   5.744  0.1027 -0.0496 -0.0114
51221W        W94315  32.440   1.707   4.058  0.1223  0.0568 -0.0715
51222W        W94316  33.144   1.527   5.332  0.2200  0.0103  0.0106
51223W        W94317  33.248   0.999   5.655  0.2826  0.2792  0.1399
51224W        W94318  34.144  34.260   4.043  0.2474  0.2375  0.2730
51225W        W94319  32.957   3.032   5.876 -0.2394  0.2352 -0.2749
51226W        W94320  33.661   0.334   6.584  0.0682  0.0372  0.3819
51227W        W94321  32.902   0.718   4.911  0.0030  0.0821 -0.0877
51228W        W94322   0.204   0.576   5.544  0.2195  0.4805 -0.1420
51229W        W94323  32.956   2.337   5.129  0.1711 -0.0912  0.1844
51230W        W94324  32.680   1.728   3.590  0.3053 -0.0068  0.0042
51231W        W94325  32.970   1.985   4.306  0.1678  0.2240 -0.1120
51232W        W94326  33.738   0.399   7.184  0.2943 -0.1902 -0.1139
51233W        W94327  33.944   0.775   6.609 -0.0402  0.0946  0.0294
51234W        W94328  33.548   0.047   4.832 -0.0384  0.1286  0.2526
51235W        W94329  34.354   0.052   4.036 -0.1515  0.2068 -0.0990
51236W        W94330   0.059   0.549   7.051  0.1316  0.2590 -0.0816
51237W        W94331  32.806   2.462   6.881 -0.0605  0.0565  0.1037
51238W        W94332  32.232   1.490   3.686  0.3117  0.1311 -0.1671
51239W        W94333  32.158   2.008   6.164  0.0462 -0.3134 -0.0196
51240W        W94334  33.754   0.873   5.262  0.0334  0.2280 -0.0956
51241W        W94335  33.872   0.261   5.136 -0.1538 -0.1484  0.1089
51242W        W94336  32.898   1.289   5.741 -0.0843  0.0760 -0.1932
51243W        W94337  31.807   1.790   3.679  0.1255  0.1227 -0.1678
51244W        W94338  34.091   2.272   5.746  0.1009 -0.3216  0.2597
51245W        W94339  34.228   0.504   5.297  0.1098  0.1067 -0.1140
51246W        W94340  33.164  34.451   7.253 -0.0146  0.1711 -0.2680
51247W        W94341  32.636   0.374   6.271 -0.1622  0.4048  0.3930
51248W        W94342  33.734   2.112   8.536  0.2716  0.3092 -0.2857
51249W        W94343  32.712   1.176   3.789  0.3475 -0.0223  0.0622
51250W        W94344  34.337   1.572   6.438 -0.0152 -0.4532  0.1942
51251W        W94345   0.276   3.123   4.716 -0.0774  0.1133 -0.1081
51252W        W94346  33.507   2.293   5.633 -0.0150  0.2604 -0.0301
51253W        W94347  34.342   1.821   3.901  0.0305  0.1949 -0.0210
51254W        W94348  33.895   2.652   5.467  0.0017 -0.1678  0.0341
51255W        W94349  33.215  34.308   8.189 -0.1653 -0.0384 -0.0956
51256W        W94350   0.255   0.479   6.038 -0.2581  0.1762 -0.2060
51257W        W94351  32.488  33.741   7.223  0.0939 -0.0350  0.0781
51258W        W94352  33.235   0.382   5.429 -0.0175  0.0435 -0.1840
51259W        W94353  32.815   0.182   3.634  0.0193 -0.1461 -0.1478
51260W        W94354   0.176   2.656   3.933 -0.2235  0.0446  0.0628
51261W        W94355  33.101   0.244   4.937 -0.1787 -0.1777 -0.0640
51262W        W94356  33.203   1.795   6.350  0.0029 -0.1734  0.0981
51263W        W94357  32.504   1.862   2.418  0.1160 -0.3053 -0.3771
51264W        W94358  32.412   1.246   4.165 -0.0828  0.0681 -0.1373
51265W        W94359   0.382   2.639   4.614 -0.0297  0.0162  0.1618
51266W        W94360   0.057   0.383   3.921  0.0917  0.0645  0.0492
51267W        W94361  33.611   2.535   4.295  0.0053  0.1493  0.4194
51268W        W94362  33.656   3.299   5.361 -0.1849 -0.0829  0.4600
51269W        W94363  32.087   2.310   5.284 -0.0037  0.1480 -0.3803
51270W        W94364  33.642   2.014   6.018  0.0430 -0.3132 -0.2828
51271W        W94365  34.137   1.831   5.882  0.0251 -0.2252 -0.2594
51272W        W94366  33.656   0.913   5.834  0.0788 -0.1253  0.0572
51273W        W94367  32.726   1.835   6.057  0.2079  0.1158  0.1159
51274W        W94368  32.103   0.964   6.118  0.0935 -0.0949 -0.0377
51275W        W94369  33.745   0.355   3.932  0.0631 -0.1831 -0.0389
51276W        W94370  33.529   3.031   6.164  0.1155  0.0217 -0.5057
51277W        W94371  33.654   1.198   6.634 -0.1487  0.0365 -0.1022
51278W        W94372  33.354   4.155   3.912  0.3072 -0.0918  0.2579
51279W        W94373  34.161   0.057   3.574  0.2479 -0.0951 -0.1684
51280W        W94374  32.622   2.683   5.485 -0.1730 -0.2574 -0.0620
51281W        W94375  31.635   3.783   3.244  0.2562 -0.0576  0.1187
51282W        W94376  33.973   3.685   4.314 -0.0409 -0.0666  0.2518
51283W        W94377  33.938   1.307   5.071  0.2082  0.0686 -0.0464
51284W        W94378  33.328  34.446   2.575  0.1117 -0.1174  0.0372
51285W        W94379  32.974   1.104   7.549  0.0316  0.1291 -0.0532
51286W        W94380  32.758   3.186   7.268  0.0914 -0.0465 -0.3586
51287W        W94381  33.243   1.075   5.062  0.0005 -0.1069  0.1295
51288W        W94382  34.683   1.817   5.717 -0.3454 -0.1934  0.1675
51289W        W94383  33.041   0.837   4.436  0.0908  0.0249 -0.2518
51290W        W94384  34.071   3.235   6.181  0.1066 -0.3163 -0.2064
51291W        W94385  33.771   2.530   6.144 -0.0622 -0.0830 -0.1161
51292W        W94386   0.150   3.907   5.794  0.2037 -0.2153  0.1354
51293W        W94387  31.810  34.118   5.825 -0.3583 -0.2736 -0.1548
51294W        W94388  34.560   0.964   6.887 -0.0271  0.1071 -0.3115
51295W        W94389  33.249   2.880   4.358  0.5977 -0.0756 -0.1451
51296W        W94390  33.061  34.588   6.344  0.0674  0.0039 -0.0220
51297W        W94391  33.939   1.560   4.030  0.1893 -0.1305  0.1946
51298W        W94392  34.387  34.660   7.818  0.0254 -0.0196 -0.0042
51299W        W94393  33.758   0.393   6.128  0.0827  0.0022 -0.1857
51300W        W94394  34.131   1.020   5.680  0.1298  0.1015 -0.2433
51301W        W94395  33.390  33.870   5.058  0.1556  0.0429  0.1687
51302W        W94396  33.205   3.733   3.601 -0.0685  0.0260 -0.1075
51303W        W94397  33.154  34.496   5.784  0.0846  0.0686 -0.0166
51304W        W94398  34.268   0.545   3.908  0.4120  0.3389  0.1790
51305W        W94399  34.416  34.462   5.854  0.2016  0.2564  0.0996
51306W        W94400  33.396   3.396   5.743 -0.0237 -0.0097  0.2711
51307W        W94401  34.103   3.540   3.185  0.2244  0.3069  0.1572
51308W        W94402   0.081   2.942   5.853 -0.0162  0.0747  0.0567
51309W        W94403   0.231   3.250   6.283 -0.0212 -0.0083 -0.1719
51310W        W94404  32.384   2.086   3.345  0.0461  0.3733  0.0164
51311W        W94405  34.266   1.733   7.221  0.1662 -0.0626 -0.2822
51312W        W94406  34.423   2.387   6.115 -0.3308  0.1070  0.1733
51313W        W94407   1.390   3.608   4.835 -0.1133  0.0552 -0.1221
51314W        W94408  33.538  34.637   6.256 -0.0597  0.0665  0.1932
51315W        W94409  34.347   0.550   4.453  0.1407 -0.0943  0.1700
51316W        W94410   0.247   1.632   7.153 -0.1644 -0.0152 -0.0531
51317W        W94411  33.292   0.381   4.503 -0.3066 -0.3463 -0.0446
51318W        W94412  33.117   1.969   3.762  0.0529  0.0009 -0.0663
51319W        W94413  32.195   1.845   5.591 -0.4543  0.3868 -0.1346
51320W        W94414  33.964   0.577   5.679 -0.2584 -0.0332 -0.1312
51321W        W94415  31.812   2.389   6.123 -0.0105  0.0939  0.2231
51322W        W94416  32.513   0.468   5.131  0.0976 -0.2820 -0.2408
51323W        W94417   0.073  34.182   7.131  0.3450 -0.0817  0.0167
51324W        W94418  34.105  33.088   6.485 -0.1285 -0.1227  0.2791
51325W        W94419  33.991  34.583   3.029 -0.1637  0.0418 -0.0032
51326W        W94420  32.421   3.125   3.525 -0.0105  0.3454 -0.0657
51327W        W94421  34.116   0.076   7.079 -0.0277  0.0183 -0.2022
51328W        W94422   0.535  34.038   7.080 -0.1744 -0.1048  0.1255
51329W        W94423  32.631  34.533   3.335 -0.1687  0.1231 -0.0106
51330W        W94424   0.679   1.527   6.437  0.1179 -0.0732  0.3486
51331W        W94425   0.460   1.831   6.050 -0.1371 -0.1415 -0.1261
51332W        W94426   0.661   3.054   7.211 -0.1091 -0.2000 -0.2957
51333W        W94427  32.843   0.873   6.565  0.0900 -0.0546  0.0130
51334W        W94428  33.392   1.982   5.212 -0.0936 -0.3767 -0.0145
51335W        W94429  33.869  34.187   6.397  0.2927  0.1913 -0.0165
51336W        W94430  33.913   1.398   5.862 -0.1797 -0.0357  0.2455
51337W        W94431  34.603   0.019   2.221 -0.0066  0.0175  0.2339
51338W        W94432  33.163   1.232   6.533 -0.0143 -0.1471  0.2110
51339W        W94433   0.118   1.287   3.681  0.4594  0.1855 -0.1505
51340W        W94434  34.624   0.844   5.902 -0.0176 -0.1768 -0.2225
51341W        W94435  33.068   2.461   4.093  0.1487 -0.1714  0.0459
51342W        W94436   0.968   1.763   7.543 -0.2659  0.0604 -0.0704
51343W        W94437  33.902  34.041   5.103 -0.2256  0.0634 -0.1764
51344W        W94438  33.381   1.609   4.136 -0.2847  0.0920  0.0703
51345W        W94439   0.947   1.825   3.909  0.3899  0.1393  0.3917
51346W        W94440  34.331  34.539   5.161 -0.1476 -0.1393 -0.1849
51347W        W94441  34.565   1.947   6.254 -0.1068  0.2389 -0.0478
51348W        W94442  33.769   0.301   9.375  0.1945  0.0981 -0.0646
51349W        W94443  33.970   0.195   8.137 -0.0627 -0.2335 -0.2208
51350W        W94444  32.811   1.350   8.975 -0.0777  0.1646  0.0322
51351W        W94445   0.419   0.259   9.789  0.0570  0.4432 -0.0313
51352W        W94446   0.336  33.332   7.802 -0.0988 -0.3734  0.2054
51353W        W94447  33.162   0.471   9.486  0.2078  0.0118 -0.0001
51354W        W94448  33.809   1.213   8.115  0.0395  0.0154  0.0010
51355W        W94449  33.304   0.882   9.145 -0.0943  0.2479  0.0123
51356W        W94450  33.134   2.150   7.809  0.0224 -0.3655  0.0625
51357W        W94451  32.963   0.886   8.809  0.0289  0.1216  0.0393
51358W        W94452  34.662   1.859   7.501 -0.0765 -0.2328  0.1344
51359W        W94453  33.432   1.736   7.848  0.0694 -0.0563  0.0181
51360W        W94454  32.285   2.017   9.325  0.0513  0.1966 -0.0963
51361W        W94455  32.426   0.142   9.837 -0.0615  0.1556  0.0853
51362W        W94456  34.402   3.420   8.468 -0.3074  0.3905  0.1780
51363W        W94457   2.956   4.499   9.836 -0.4005 -0.1734  0.0896
51364W        W94458  30.993   0.623   9.849 -0.1752 -0.2069  0.3731
51365W        W94459  33.119   1.611   9.221 -0.2528  0.1788 -0.0578
51366W        W94460  33.448   2.515   8.014 -0.0726 -0.1155  0.0596
51367W        W94461  33.665   4.221   7.041 -0.1172  0.0330 -0.0072
51368W        W94462  33.702   3.272   7.250  0.0770  0.1116 -0.2641
51369W        W94463  34.079   1.999   8.992 -0.1701 -0.0679 -0.3334
51370W        W94464  32.948   0.836   9.747  0.6126  0.1029 -0.3040
51371W        W94465  33.507   2.295   7.483  0.0901 -0.0903  0.1770
51372W        W94466   0.204   0.090   7.880  0.0605 -0.5042 -0.4865
51373W        W94467   0.213  34.619   8.478 -0.2261 -0.2199 -0.1311
51374W        W94468   0.138   3.090   8.615  0.1972  0.3492 -0.3111
51375W        W94469   0.298  34.647   9.410  0.0304  0.1032 -0.0002
51376W        W94470   1.172   1.298   9.998  0.1063 -0.1318  0.2195
51377W        W94471  33.530   1.592   8.313  0.0426 -0.1365 -0.0860
51378W        W94472  32.687   2.316   7.982 -0.1999 -0.2035 -0.3051
51379W        W94473  33.800  33.897   7.356  0.1340 -0.1751 -0.2591
51380W        W94474  34.529   3.261   9.977  0.1454 -0.1228 -0.2344
51381W        W94475  33.768   1.852   7.423 -0.1997 -0.1487  0.0283
51382W        W94476  34.389   2.387   7.918  0.0155  0.0702 -0.2095
51383W        W94477  31.806   2.479   9.715  0.1834 -0.1892  0.2447
51384W        W94478  34.410   2.607   7.309 -0.1973 -0.1307 -0.1502
51385W        W94479  32.864   2.797   8.987  0.1405 -0.4745 -0.0101
51386W        W94480  33.229   2.942   8.649 -0.0030  0.2632 -0.3256
51387W        W94481  33.080   0.619   8.312  0.0008  0.1043  0.0416
51388W        W94482  33.630   2.947   8.344 -0.1499 -0.0372  0.2533
51389W        W94483  32.752   1.853   9.046  0.1345 -0.0760 -0.1739
51390W        W94484  32.117   0.645  10.188  0.2090  0.0569  0.2885
51391W        W94485  33.998  34.662   9.706 -0.2261  0.2621 -0.0342
51392W        W94486  32.192   0.131   9.241 -0.1634 -0.0425 -0.1994
51393W        W94487  33.161   0.449   7.759 -0.1685  0.0048  0.1976
51394W        W94488  33.959   2.586   7.681  0.2343  0.0226 -0.1922
51395W        W94489  33.020   1.620   8.103 -0.3620  0.4683 -0.0372
51396W        W94490  33.543   2.258   9.555 -0.0254 -0.0278 -0.0800
51397W        W94491  33.693  34.459   8.062 -0.0674 -0.1895  0.2433
51398W        W94492  33.405   3.382   8.562 -0.0352  0.2235 -0.0946
51399W        W94493  34.014   1.243   9.512 -0.2410  0.0265  0.2443
51400W        W94494  33.437   0.197   8.076 -0.0630  0.0265  0.2481
51401W        W94495  32.569   0.440   7.282  0.1110  0.1182 -0.1894
51402W        W94496  33.197   2.915   7.256 -0.0196  0.2210 -0.3567
51403W        W94497  33.092   2.606   7.661  0.1537  0.1967  0.1190
51404W        W94498  34.506   1.493   7.891  0.2867  0.4706 -0.0570
51405W        W94499  32.964   1.673   7.597  0.1161 -0.4803 -0.1334
51406W        W94500   0.532   2.741   7.932 -0.1535 -0.1759 -0.1646
51407W        W94501   0.262   2.406   9.145 -0.1053 -0.1711 -0.1882
51408W        W94502  32.188   1.552   8.187  0.1486 -0.0513 -0.1558
51409W        W94503   0.525  33.987   8.839  0.3057 -0.2709  0.0092
51410W        W94504   0.336   1.457   7.649  0.1665  0.1191 -0.1223
51411W        W94505  33.269   3.380   7.512 -0.2791  0.0857 -0.0491
51412W        W94506  33.789  34.516   6.731 -0.1145  0.0778 -0.3398
51413W        W94507   1.120  32.887  10.120 -0.1273  0.0153 -0.3490
51414W        W94508  33.177   2.352  10.232  0.2725  0.0680 -0.2667
51415W        W94509  34.364   2.803   8.384 -0.3588 -0.1153  0.1096
51416W        W94510  33.989   2.309   7.089 -0.1419  0.2050 -0.0210
51417W        W94511   0.830   0.156   8.927  0.0512 -0.0915  0.2212
51418W        W94512  32.808   1.841   9.583 -0.2397  0.0048  0.1313
51419W        W94513  33.507   2.248   6.451  0.1838  0.1520 -0.1181
51420W        W94514  33.130   3.735   8.059  0.0954  0.2052 -0.2974
51421W        W94515  31.878   2.298   8.892 -0.2842 -0.4136  0.1917
51422W        W94516  33.233   2.086   8.275 -0.2503  0.1423  0.0781
51423W        W94517  32.303   2.614   7.673  0.1830 -0.2533  0.3127
51424W        W94518  32.439   0.495   8.894  0.0545 -0.1629 -0.1727
51425W        W94519  34.648   0.348   9.099  0.0676 -0.0773  0.0330
51426W        W94520  33.225   2.098   8.845  0.0594 -0.2519  0.1499
51427W        W94521  33.745   1.407   7.115 -0.3214 -0.0999  0.2068
51428W        W94522  34.000   0.727   8.032 -0.0206 -0.0625  0.2992
51429W        W94523  32.814   2.264   8.694  0.1000 -0.0307 -0.1746
51430W        W94524  34.111   1.220   7.315  0.0352  0.3528  0.1174
51431W        W94525  33.459   2.524   8.532  0.0294  0.3522 -0.4457
51432W        W94526  33.831   0.806   9.316 -0.0842 -0.2871 -0.2258
51433W        W94527  33.854   1.431   7.652  0.0085  0.1805 -0.3230
51434W        W94528  33.659   2.751   9.437  0.1244  0.1023  0.0420
51435W        W94529   0.834  33.509  10.146 -0.2268  0.0475 -0.0665
51436W        W94530  34.131   3.141   9.650 -0.1386 -0.0704  0.1624
51437W        W94531  31.337   3.053   8.696 -0.0270 -0.0399  0.1588
51438W        W94532  33.231   1.862   7.216 -0.1006  0.3795  0.0428
51439W        W94533  34.663  34.148   9.572  0.4392 -0.0120 -0.2078
51440W        W94534  32.718   2.346   9.158 -0.1968 -0.1188  0.0631
51441W        W94535  33.313   2.568   9.043  0.1544  0.3944 -0.0557
51442W        W94536  30.557   0.347   8.302 -0.2152  0.1739 -0.2333
51443W        W94537  34.007   1.645   8.588  0.3605  0.0671 -0.2361
51444W        W94538   0.899   0.326   9.597  0.3052  0.0537 -0.3221
51445W        W94539  33.346   1.248   7.886 -0.0705 -0.2183  0.1383
51446W        W94540  34.536   1.981   8.732  0.1458 -0.0226  0.3307
51447W        W94541   0.145   2.634   8.282 -0.1517 -0.2821  0.0187
51448W        W94542  31.794   3.344   9.246  0.0388  0.1150  0.0438
51449W        W94543   0.654   1.223   8.056 -0.0242 -0.0736 -0.1514
51450W        W94544  32.839   1.286   9.486  0.0467  0.2516 -0.2503
51451W        W94545  33.336   0.026   9.323  0.0277  0.1470  0.0691
51452W        W94546  34.478   0.318   7.353  0.1983 -0.1000 -0.3958
51453W        W94547   0.095   2.531   6.915  0.2249  0.0209  0.1029
51454W        W94548  32.577   1.301   7.819  0.1403 -0.3054 -0.3575
51455W        W94549  33.963   1.699   6.735  0.1941 -0.2288  0.1220
51456W        W94550   0.293   2.732   7.327  0.0345  0.0471 -0.0140
51457W        W94551  34.654   3.667   9.568  0.1132  0.1138  0.1770
51458W        W94552  34.003  34.253   7.718 -0.0887 -0.0309  0.2175
51459W        W94553  32.991   2.528   8.320 -0.4217 -0.0515 -0.1916
51460W        W94554  33.906   2.523   8.254  0.1362 -0.0418 -0.1319
51461W        W94555   0.333   1.769   8.261  0.1219  0.2185 -0.2548
51462W        W94556   0.086   1.870   9.156 -0.2222 -0.0263  0.1223
51463W        W94557  33.361   1.093   9.651 -0.1932 -0.0168  0.1262
51464W        W94558  33.116   2.723   9.507  0.3289 -0.0614 -0.0885
51465W        W94559  33.634   0.497   7.693 -0.1029  0.1363 -0.1348
51466W        W94560  34.066   2.900  10.252 -0.2663  0.1607 -0.1006
51467W        W94561  33.507   3.215   9.075 -0.1033  0.1664  0.2229
51468W        W94562  34.029   0.678   7.484  0.1772 -0.0594 -0.0472
51469W        W94563  33.676   0.941   8.772  0.1206 -0.1431  0.0623
51470W        W94564  32.965   4.018   6.384  0.0097 -0.2520 -0.2094
51471W        W94565  34.300   3.044   8.803 -0.0624  0.0502  0.0376
51472W        W94566  34.466  34.493   9.870  0.1810 -0.0294  0.1875
51473W        W94567  34.230  34.066   8.081  0.0644  0.1586 -0.0998
51474W        W94568  32.614   0.762   8.459  0.2552 -0.1261 -0.2059
51475W        W94569  33.987   3.287   9.151 -0.2432 -0.1325 -0.1496
51476W        W94570   0.684   1.912   7.199 -0.0472 -0.5226  0.0621
51477W        W94571  33.570   3.669   7.049 -0.3789  0.1697 -0.0194
51478W        W94572  32.944   3.392   8.391 -0.1258 -0.0396 -0.1126
51479W        W94573  34.112   3.697   9.471 -0.0970 -0.0113  0.0373
51480W        W94574  33.372   0.068   6.890  0.2300 -0.1261  0.1461
51481W        W94575  33.049   1.112   8.304  0.1232  0.0701 -0.1009
51482W        W94576  33.280   1.249   8.812  0.1192 -0.0525  0.0641
51483W        W94577  32.533   1.303   8.392  0.0058  0.0166  0.2032
51484W        W94578  34.589   1.323   7.407 -0.1436  0.1697  0.1762
51485W        W94579  33.573  34.341   9.570 -0.1065  0.3818  0.1503
51486W        W94580  34.076   2.465   8.721  0.1105 -0.2018 -0.0770
51487W        W94581  34.051   2.395   9.515 -0.1361  0.0577  0.0111
51488W        W94582  34.275  34.055   7.313 -0.1822 -0.1930 -0.0239
51489W        W94583  33.772   3.471   7.675  0.0381 -0.0845 -0.1337
51490W        W94584  32.069  32.879   9.143  0.0106  0.0357 -0.0181
51491W        W94585   1.437   1.088   8.375  0.1326 -0.2063 -0.2519
51492W        W94586  34.245   0.740   9.688 -0.1103 -0.4323  0.1894
51493W        W94587  31.758   3.395   8.672 -0.0261  0.1906 -0.0305
51494W        W94588  34.577   3.509   6.080  0.2208 -0.0639 -0.1646
51495W        W94589  33.793   4.066   9.201  0.1462 -0.0951 -0.3264
51496W        W94590  33.736   2.099   8.011 -0.1000  0.0305  0.2827
51497W        W94591  34.035   1.652   8.073 -0.1314 -0.3847 -0.0478
51498W        W94592  34.691   2.139   8.237 -0.2907  0.2285  0.0594
51499W        W94593   0.091   0.951   7.817  0.4283  0.4461  0.0759
51500W        W94594   0.013  34.146   8.723  0.0251 -0.0697 -0.0815
51501W        W94595   0.481  33.629   8.435 -0.0701 -0.4653 -0.1389
51502W        W94596  32.460   2.451   8.404 -0.1478 -0.1511  0.0001
51503W        W94597  33.809   1.641   6.261  0.0469 -0.1198 -0.1651
51504W        W94598  34.088   2.793   9.225 -0.0815 -0.0923  0.1153
51505W        W94599  32.987   0.387   8.995  0.0785 -0.2382 -0.0509
51506W        W94600  34.151   0.523   9.083  0.1964 -0.3599  0.0528
51507W        W94601  32.892  34.524   8.989  0.2749 -0.2150  0.2768
51508W        W94602  32.403  34.340   9.501 -0.0354 -0.3157  0.1650
51509W        W94603  34.482   0.586   8.662  0.2965  0.3546 -0.0141
51510W        W94604  34.511   2.002   6.812  0.0084  0.2471  0.2738
51511W        W94605  34.494   0.166   8.261  0.1271 -0.2201 -0.1632
51512W        W94606  34.542   0.210   9.579 -0.0752  0.4295 -0.2175
51513W        W94607  34.176  34.284   9.454  0.2117 -0.2422 -0.3787
51514W        W94608  33.694   0.889   7.113 -0.0870  0.2517  0.0485
51515W        W94609  34.475   3.272   9.339  0.1448 -0.1159 -0.3286
51516W        W94610  34.365   0.506   7.804 -0.0720  0.2468  0.0729
51517W        W94611  34.616   2.837   7.872  0.2022  0.0462 -0.0216
51518W        W94612   0.660   3.825   8.484 -0.4005  0.0735 -0.3667
51519W        W94613  32.646  34.050   9.204  0.1166 -0.3608  0.0849
51520W        W94614  33.515   1.850   9.317  0.1603 -0.0792 -0.3277
51521W        W94615  34.211   2.161   7.526 -0.0634  0.0110 -0.3256
51522W        W94616  34.503  34.640   8.737 -0.1828 -0.3197  0.0008
51523W        W94617  33.991   1.260   8.975  0.1000  0.0089  0.0667
51524W        W94618  32.364   5.412   3.334 -0.1438 -0.1100  0.1686
51525W        W94619  33.531   4.572   1.252  0.0414  0.1183 -0.1841
51526W        W94620  31.674   4.263   2.591 -0.3520  0.2085  0.2398
51527W        W94621  33.035   3.478   2.043  0.2507 -0.1907  0.0548
51528W        W94622  33.168   5.084   2.369 -0.2446  0.0281 -0.3836
51529W        W94623  33.462   6.689   1.432 -0.0590  0.1419  0.3693
51530W        W94624  34.391   4.252   0.878  0.1480  0.1970  0.1245
51531W        W94625  32.963   4.214   2.143  0.0661  0.3323 -0.0629
51532W        W94626  33.091   6.380   1.171  0.1290  0.3145 -0.2200
51533W        W94627  33.269   5.890   1.043  0.2881  0.2497  0.0092
51534W        W94628  34.479   4.085   1.402  0.0394 -0.1377 -0.1636
51535W        W94629  34.105   4.712   2.359  0.1266  0.4110 -0.2101
51536W        W94630  33.077   6.845  31.886 -0.2599  0.3088  0.0480
51537W        W94631  32.975   4.026   0.785 -0.1386  0.2537  0.2270
51538W        W94632  31.829   4.934   1.854  0.1190  0.1740  0.0327
51539W        W94633  32.305   5.227   2.829  0.0794 -0.3651  0.1589
51540W        W94634   0.855   7.754   2.065 -0.1087 -0.1586 -0.1091
51541W        W94635   1.693   6.593   1.664 -0.1190  0.0704  0.2158
51542W        W94636  32.838   5.726   0.802 -0.2466  0.1441  0.0833
51543W        W94637  33.138   7.479   1.184 -0.0007  0.2661 -0.3393
51544W        W94638  33.400   6.420   0.817  0.0227 -0.0108 -0.1016
51545W        W94639  33.934   6.845   5.605 -0.1869 -0.1710  0.1787
51546W        W94640  32.579   5.256   0.955 -0.3834  0.1948  0.0548
51547W        W94641  34.576   6.520   2.189  0.0112 -0.2960  0.2061
51548W        W94642  33.585   6.853   0.423  0.2869  0.2715 -0.0308
51549W        W94643  33.666   6.047   0.733  0.1075  0.3727 -0.0354
51550W        W94644  32.850   5.530   3.825  0.0836  0.0989  0.4615
51551W        W94645  32.744   5.609   1.435 -0.1678 -0.4404  0.1800
51552W        W94646  32.907   6.534  30.666  0.0791 -0.1589 -0.1377
51553W        W94647  34.021   3.477  30.253  0.2746  0.1726 -0.1490
51554W        W94648  33.167   2.854   2.818 -0.3849 -0.1443  0.1422
51555W        W94649  33.098   6.780   0.601  0.0776 -0.0432 -0.1625
51556W        W94650  34.403   3.922   3.395 -0.2452 -0.0474  0.1469
51557W        W94651  32.018   7.513   1.644 -0.1181  0.0087  0.2897
51558W        W94652  32.288   5.283  31.694 -0.1557  0.2644 -0.0275
51559W        W94653  33.241   4.655   2.052 -0.1580  0.0653 -0.0724
51560W        W94654  31.972   7.125   2.461  0.0508  0.4010  0.0372
51561W        W94655  33.078   5.040   2.909  0.1358 -0.0268 -0.0137
51562W        W94656  32.742   4.512  31.806 -0.4741 -0.0758 -0.2810
51563W        W94657  33.075   8.231   4.087 -0.3209  0.2079 -0.0103
51564W        W94658  33.170   5.937   1.493 -0.1678  0.1435 -0.0295
51565W        W94659  33.326   6.684  31.457  0.0502 -0.0836 -0.4070
51566W        W94660  33.760   5.785   1.113 -0.1600  0.4815  0.0971
51567W        W94661  31.097   8.092   1.968  0.0923 -0.0829 -0.4294
51568W        W94662  34.224   5.259   3.511  0.0613 -0.2699 -0.0073
51569W        W94663  33.702   5.685   3.994  0.0482 -0.0171 -0.0533
51570W        W94664  30.936   7.883   0.824  0.0745 -0.0292 -0.0319
51571W        W94665  30.917   6.495   0.932 -0.2714  0.0671 -0.3470
51572W        W94666  34.126   5.458   0.450  0.1246 -0.1573 -0.0439
51573W        W94667  32.527   4.236   1.137 -0.1000 -0.3308 -0.1235
51574W        W94668  33.707   5.926   2.143  0.3056 -0.1756 -0.0608
51575W        W94669  32.202   3.993   2.621 -0.2527  0.1311 -0.1065
51576W        W94670  32.549   6.473  31.041  0.2776  0.4624  0.2407
51577W        W94671  31.637   6.483   3.308 -0.0188 -0.1876  0.2969
51578W        W94672  33.305   4.970   1.437  0.2610 -0.0573  0.0277
51579W        W94673  33.769   5.083   3.498 -0.5120 -0.2111 -0.1491
51580W        W94674  31.527   3.847   1.821  0.2687  0.3661 -0.0057
51581W        W94675  32.050   4.072   1.157 -0.0845 -0.2707  0.1326
51582W        W94676  34.230   6.145   0.018 -0.1422  0.1059 -0.4156
51583W        W94677  32.846   6.475   0.247  0.2127 -0.0465 -0.2082
51584W        W94678  32.066   4.379   2.220  0.0417 -0.0882 -0.2379
51585W        W94679  33.616   4.430   0.326 -0.3708 -0.2592  0.1842
51586W        W94680  31.976   6.817   0.667  0.1801 -0.2031  0.1114
51587W        W94681  33.485   5.429   2.292  0.0532 -0.1096  0.1531
51588W        W94682  34.684   4.646   0.968  0.1655 -0.1885 -0.2565
51589W        W94683  33.834   5.567   3.504 -0.3998  0.0784 -0.3906
51590W        W94684  31.942   5.229   0.433 -0.0726 -0.0100 -0.2235
51591W        W94685  31.994   5.724   0.755  0.1350 -0.1537 -0.1038
51592W        W94686  33.523   4.956   0.910 -0.2512 -0.1633 -0.2167
51593W        W94687  34.140   5.832   0.826 -0.0242  0.1511  0.4048
51594W        W94688  33.727   4.490   4.805 -0.1695 -0.0753 -0.1334
51595W        W94689  33.966   5.249   0.934 -0.1996 -0.0078 -0.1633
51596W        W94690  34.058   6.586   1.432  0.1542 -0.1961 -0.1369
51597W        W94691  34.018   5.257   2.060  0.0646  0.0284 -0.1569
51598W        W94692   0.507   5.428  30.740  0.3098 -0.2811 -0.0103
51599W        W94693  32.654   6.643   0.741 -0.1895 -0.2105 -0.0568
51600W        W94694  31.998   5.524   1.939 -0.1304 -0.1752 -0.1438
51601W        W94695  34.029   4.834   2.949 -0.0098  0.1694  0.1874
51602W        W94696  34.538   4.279  31.719 -0.1622 -0.3566  0.0872
51603W        W94697  31.792   7.563   0.660  0.0333 -0.1029 -0.0653
51604W        W94698  33.280   4.297   3.412 -0.0597 -0.2151  0.0928
51605W        W94699   0.192   4.462  30.957  0.1524 -0.1753 -0.2117
51606W        W94700  33.052   2.892   2.210  0.0372 -0.1247 -0.0465
51607W        W94701  34.136   5.182   2.557  0.1605  0.0740  0.0283
51608W        W94702  32.540   7.873   2.690 -0.3709 -0.0206  0.0542
51609W        W94703   0.053   4.664   3.439 -0.0242  0.2928  0.0703
51610W        W94704  33.884   7.398   0.644  0.3329  0.1666 -0.0023
51611W        W94705  34.620   5.244   0.297  0.0314 -0.1381 -0.2345
51612W        W94706  32.651   4.571   3.031  0.0154 -0.1915 -0.2739
51613W        W94707  32.684   6.693   1.254 -0.2685  0.3384 -0.0484
51614W        W94708  33.340   6.405   0.322  0.3630 -0.1193  0.0871
51615W        W94709  33.203   6.341  31.785 -0.1861  0.0632 -0.2208
51616W        W94710  32.277   5.779   1.645  0.0559  0.2195 -0.3763
51617W        W94711  34.568   5.529   0.725  0.1235 -0.0106 -0.2694
51618W        W94712  32.038   4.614   1.047  0.2634  0.0548  0.1055
51619W        W94713  34.399   4.921   1.306  0.1672 -0.0394 -0.0541
51620W        W94714  33.516   5.230   1.859  0.0136 -0.0928  0.0375
51621W        W94715  31.967   6.359   2.976  0.3243 -0.2032 -0.0825
51622W        W94716   0.066   5.021   4.193 -0.0863 -0.0212  0.0175
51623W        W94717  31.787   4.031   0.248  0.1973 -0.1410 -0.0128
51624W        W94718  32.959   5.545   2.254 -0.5109 -0.0914  0.0289
51625W        W94719  32.674   6.174   1.040  0.0854  0.1678 -0.0894
51626W        W94720  33.874   4.851   0.545  0.0874 -0.1895  0.2008
51627W        W94721  32.472   8.296   1.542 -0.2295 -0.0842  0.1716
51628W        W94722  33.118   4.553   3.011  0.3239  0.1775  0.1615
51629W        W94723  33.578   5.136   2.716 -0.1754 -0.4485  0.2140
51630W        W94724  33.489   2.859   1.975  0.0025  0.1515 -0.0395
51631W        W94725  33.606   4.179   2.454 -0.4813  0.1834  0.0955
51632W        W94726   0.592   4.542   3.335 -0.1283 -0.1987  0.0872
51633W        W94727   0.649   5.177   0.805 -0.1574  0.2946  0.0171
51634W        W94728  32.964   6.418   3.179  0.0701  0.1497  0.2444
51635W        W94729  32.249   6.444   0.296 -0.3092  0.0223 -0.0390
51636W        W94730  33.413   4.150   1.947 -0.0985  0.1863  0.1833
51637W        W94731  32.567   6.121   2.430  0.0946  0.3025  0.0465
51638W        W94732  32.264   6.288   1.358 -0.0940  0.1840 -0.0772
51639W        W94733  31.925   7.273   2.989  0.1649  0.1544 -0.0776
51640W        W94734  33.678   5.783   3.053  0.1270 -0.0013  0.1947
51641W        W94735  33.958   4.306   2.075  0.3935 -0.0421 -0.3677
51642W        W94736  32.611   5.605   2.888 -0.0889 -0.1030 -0.0759
51643W        W94737  33.849   4.211   3.853 -0.1010  0.4090 -0.2188
51644W        W94738  34.030   4.692   0.987 -0.2024  0.0202 -0.1400
51645W        W94739  34.593   5.990   1.658  0.1160 -0.2346 -0.1345
51646W        W94740  34.176   6.659  31.935 -0.5106  0.0753 -0.0152
51647W        W94741  32.232   5.932   2.808 -0.0603  0.2415  0.0583
51648W        W94742   0.990   5.188  31.441  0.1570  0.1073  0.0635
51649W        W94743  32.962   6.254   0.662 -0.3309  0.0562 -0.3110
51650W        W94744  34.497   5.096   3.089  0.0488 -0.0866  0.2812
51651W        W94745  32.729   3.747   2.334 -0.0326  0.1024 -0.1517
51652W        W94746  31.155   5.367   3.183  0.0042  0.2267 -0.0086
51653W        W94747  34.005   5.406   1.461  0.1744  0.1388 -0.0058
51654W        W94748   0.767   4.140   1.234 -0.0060  0.0655  0.4714
51655W        W94749   0.561   6.802  31.421  0.2087  0.0555 -0.1081
51656W        W94750  31.378   4.805   2.286  0.1033 -0.2413 -0.1094
51657W        W94751  33.451   7.324   3.879  0.0765  0.3052  0.2023
51658W        W94752   0.259   4.884   0.564  0.3010 -0.0508 -0.2431
51659W        W94753   0.713   5.658  31.933  0.0036 -0.5894 -0.1224
51660W        W94754  34.179   5.808   1.894 -0.1021 -0.0426 -0.0518
51661W        W94755   0.053   3.972   0.079 -0.0942 -0.0835  0.0192
51662W        W94756  33.130   5.588  30.739  0.1678  0.1854 -0.0422
51663W        W94757  32.888   7.818   1.558  0.0129 -0.1966 -0.0698
51664W        W94758  32.573   6.784   1.843 -0.0763  0.2346 -0.0286
51665W        W94759  32.391   7.723   1.342  0.2903  0.0792 -0.0896
51666W        W94760  34.489   6.092   1.029 -0.0939  0.1305 -0.2408
51667W        W94761  32.858   6.061   2.846 -0.0331 -0.0235 -0.3151
51668W        W94762  33.615   6.239   1.317 -0.2525  0.1023  0.3423
51669W        W94763  31.633   6.070   2.532 -0.1534  0.2679 -0.0066
51670W        W94764  32.875   3.968   1.335  0.3887  0.3508 -0.0435
51671W        W94765  32.328   7.511   2.233  0.0627 -0.2357 -0.0406
51672W        W94766  32.439   6.290   1.909 -0.0728  0.1540  0.0554
51673W        W94767  33.768   7.924   0.574 -0.2636 -0.0490 -0.0697
51674W        W94768   0.295   4.281   1.105  0.0481 -0.1406 -0.0976
51675W        W94769  33.409   5.708  31.769  0.4716  0.0372 -0.3874
51676W        W94770  32.261   7.332  31.971  0.0492 -0.1234  0.1233
51677W        W94771  33.695   7.639   1.056  0.3766 -0.0808  0.3280
51678W        W94772  33.241   5.970   2.462  0.0885 -0.3628  0.1765
51679W        W94773  33.513   3.962   0.601 -0.2690  0.0128  0.1508
51680W        W94774  33.767   4.444   3.444  0.1971 -0.1912  0.0097
51681W        W94775  34.312   6.466   2.663 -0.1622  0.0721  0.0999
51682W        W94776  32.493   4.749   1.066  0.0220 -0.1332 -0.1357
51683W        W94777   0.687   6.215   1.669  0.0739 -0.0952 -0.1603
51684W        W94778   0.126   7.345  31.861 -0.1064 -0.1095 -0.1276
51685W        W94779   0.170   6.847   0.598  0.1539  0.3004 -0.3490
51686W        W94780  33.060   6.646   1.719  0.1097  0.2663  0.1191
51687W        W94781  34.546   6.157   3.240  0.2109 -0.0985 -0.1028
51688W        W94782  33.318   4.426   0.751  0.4963 -0.4484 -0.0827
51689W        W94783  34.235   5.769   3.299 -0.1872 -0.3495  0.0949
51690W        W94784  33.633   4.593   1.759  0.1374  0.3035 -0.1690
51691W        W94785  33.384   4.652   2.549  0.0968 -0.0847 -0.0774
51692W        W94786   0.152   4.470   0.063 -0.0101 -0.2232  0.1022
51693W        W94787  32.146   4.372   0.600  0.2507  0.2003  0.3527
51694W        W94788  33.594   5.503   0.694 -0.0056  0.1519  0.1870
51695W        W94789  34.416   4.878   3.876 -0.2435 -0.0218 -0.0737
51696W        W94790  32.737   4.430   0.716  0.1809 -0.0303  0.0585
51697W        W94791  32.728   7.011   0.397 -0.1824 -0.1714 -0.1883
51698W        W94792  32.643   5.155   2.309  0.0666  0.0139 -0.3120
51699W        W94793   0.242   3.270   2.248  0.0565 -0.0878 -0.2254
51700W        W94794  33.536   5.361   1.205 -0.2630 -0.4038 -0.2283
51701W        W94795  33.277   7.688   0.671  0.1023  0.1815 -0.2440
51702W        W94796   1.114   7.343   0.258  0.4064 -0.5204  0.1060
51703W        W94797  34.246   6.320   1.849 -0.2183  0.0943  0.0337
51704W        W94798  34.359   6.664   3.175  0.1298 -0.1449  0.3458
51705W        W94799  32.573   6.032   0.444 -0.0832  0.2801 -0.1116
51706W        W94800  34.010   5.195   3.973  0.0122  0.2139  0.0826
51707W        W94801  33.167   7.229   0.234  0.0894 -0.0461 -0.1094
51708W        W94802  33.763   8.155   1.115 -0.4014  0.1235 -0.0338
51709W        W94803   0.261   6.325   0.557  0.1964  0.1506  0.1656
51710W        W94804  33.118   4.249   2.667 -0.0236  0.3221  0.2439
51711W        W94805  33.024   5.106   1.911  0.0930  0.2679  0.0830
51712W        W94806  33.008   4.835   0.797 -0.2103 -0.4203 -0.0925
51713W        W94807  32.299   5.679   0.099 -0.2694 -0.1868  0.0659
51714W        W94808  33.240   5.756   1.908  0.3209  0.2511 -0.0512
51715W        W94809  34.028   3.054   3.239 -0.1392  0.3361 -0.0139
51716W        W94810  33.407   5.270   4.658 -0.3002 -0.0938 -0.2470
51717W        W94811  30.137   4.022   1.260 -0.3376 -0.0078  0.4190
51718W        W94812  31.745   4.500   1.554  0.1959  0.4374  0.0977
51719W        W94813  32.987   3.797   2.953  0.2022 -0.2450  0.2834
51720W        W94814  32.311   4.930   1.982  0.1993  0.4021 -0.0094
51721W        W94815  33.479   3.823   2.842 -0.1266  0.0865  0.0531
51722W        W94816  33.145   5.368   0.510  0.1403 -0.3532 -0.1670
51723W        W94817   0.088   5.110   1.578  0.1951 -0.1599 -0.0119
51724W        W94818  32.685   3.496   3.383  0.0481 -0.1565  0.1087
51725W        W94819  31.293   4.059  30.811 -0.1150  0.0765 -0.1428
51726W        W94820  34.133   6.147   2.306 -0.1630  0.0440 -0.5673
51727W        W94821  32.570   4.563   2.154  0.0810  0.0757  0.1665
51728W        W94822  33.663   6.319   1.817 -0.2447  0.0693  0.0726
51729W        W94823  33.561   4.836   3.148 -0.0054  0.1049  0.0323
51730W        W94824  33.169   6.244   2.043  0.2541  0.1705  0.0094
51731W        W94825  31.843   4.783   2.424  0.0491  0.1226  0.0614
51732W        W94826   0.052   5.738   3.431  0.1606 -0.4489 -0.2621
51733W        W94827  34.636   4.107   1.875  0.0438 -0.2582 -0.1954
51734W        W94828  33.197   6.471   2.543  0.0279  0.1066  0.1937
51735W        W94829  34.436   5.434   1.244 -0.1794  0.1841  0.0598
51736W        W94830   0.686   5.562   2.852 -0.2522  0.0201 -0.0231
51737W        W94831  34.004   6.307   1.017 -0.0314  0.4312 -0.0203
51738W        W94832  34.414   7.059   2.333 -0.5359  0.1228 -0.3382
51739W        W94833  31.865   3.941   2.271 -0.2022  0.0855 -0.0182
51740W        W94834  32.800   4.749   1.729 -0.2917 -0.2326 -0.2349
51741W        W94835   0.202   5.782   1.012 -0.0455  0.1759 -0.1500
51742W        W94836  31.957   5.628   3.080  0.1043 -0.1867  0.0203
51743W        W94837  34.316   7.613   2.294 -0.0078 -0.1529  0.0693
51744W        W94838  33.398   5.873   7.218 -0.2602 -0.1195  0.0947
51745W        W94839  33.182   4.147   4.602  0.1774  0.2327  0.1270
51746W        W94840  32.327   4.143   3.650  0.1839 -0.0661 -0.0374
51747W        W94841  33.279   2.667   6.674 -0.1691  0.0727 -0.1213
51748W        W94842   0.339   4.227   6.595 -0.0961 -0.1590 -0.1590
51749W        W94843  34.152   7.447   7.035  0.0589  0.0391  0.0840
51750W        W94844  34.593   3.525   4.567  0.0466  0.0236  0.1370
51751W        W94845  32.649   3.538   6.628  0.0050  0.1620 -0.0734
51752W        W94846  33.228   5.568   2.745  0.0403 -0.0188 -0.0560
51753W        W94847  34.428   3.547   4.019 -0.1984 -0.0418  0.4864
51754W        W94848  33.432   5.150   3.851 -0.0203 -0.1305  0.0082
51755W        W94849  33.916   4.689   6.967  0.0938  0.1996  0.2276
51756W        W94850   0.319   6.132   5.047 -0.1874 -0.4109 -0.2191
51757W        W94851  32.401   5.709   4.729  0.0199 -0.1738  0.0671
51758W        W94852  32.837   4.848   5.110  0.2542 -0.1314  0.0404
51759W        W94853  33.784   5.282   5.824  0.0638 -0.0673 -0.1420
51760W        W94854  34.325   7.237   5.700  0.3366  0.0294  0.0473
51761W        W94855   0.290   6.585   5.785 -0.1389  0.3288  0.0357
51762W        W94856  33.997   5.103   5.390 -0.1016 -0.3221  0.1575
51763W        W94857  32.771   6.785   6.204 -0.0854 -0.0041 -0.1523
51764W        W94858  33.329   6.644   4.454  0.1792 -0.1584 -0.0785
51765W        W94859   0.054   7.304   7.662  0.2098 -0.2280 -0.2082
51766W        W94860  33.650   6.054   5.301 -0.2590  0.1586 -0.0750
51767W        W94861  34.282   7.369   7.531  0.0533  0.2195 -0.1964
51768W        W94862  34.019   6.077   2.796  0.1513  0.2799  0.1976
51769W        W94863   1.358   6.593   4.784  0.0524  0.2002  0.0569
51770W        W94864  34.076   5.232   8.633  0.2665 -0.1584  0.2259
51771W        W94865  34.138   6.428   6.336 -0.1940 -0.1506 -0.0159
51772W        W94866  33.032   6.404   4.090  0.0676  0.0680 -0.0162
51773W        W94867  31.964   4.849   2.890  0.0707 -0.0063 -0.2325
51774W        W94868   0.528   2.785   5.056 -0.0747  0.0879 -0.0646
51775W        W94869  33.851   6.315   5.735 -0.1067  0.1505 -0.0250
51776W        W94870   0.421   4.708   6.400  0.1564  0.2570 -0.0059
51777W        W94871  34.355   5.107   5.829  0.0537  0.0144  0.0351
51778W        W94872  32.942   4.491   3.713  0.0563 -0.0349 -0.0173
51779W        W94873  33.182   5.398   4.261 -0.2755  0.0954 -0.2723
51780W        W94874  33.635   5.284   6.430  0.2948 -0.0339 -0.0182
51781W        W94875  33.614   4.774   6.532  0.0336 -0.1233 -0.1354
51782W        W94876  32.443   3.664   2.908  0.1442  0.2602  0.0098
51783W        W94877  32.714   7.506   7.256 -0.3407  0.0202 -0.2737
51784W        W94878  34.631   4.807   4.913 -0.1412 -0.1200  0.1730
51785W        W94879  34.109   5.873   4.244 -0.1235  0.3309 -0.1057
51786W        W94880   0.300   4.412   4.554 -0.1477 -0.0727  0.0455
51787W        W94881  33.714   5.407   5.031  0.0485  0.1347  0.0497
51788W        W94882  33.968   3.952   6.140 -0.0532  0.0282 -0.1006
51789W        W94883  34.414   5.562   6.681 -0.1117 -0.2963  0.3076
51790W        W94884  33.051   7.091   4.740 -0.0980  0.1609 -0.3028
51791W        W94885  31.917   6.108   5.500 -0.2016 -0.3013 -0.1848
51792W        W94886  33.273   6.717   2.988 -0.0423 -0.2578  0.1083
51793W        W94887  32.775   4.320   5.483 -0.3513 -0.0997 -0.2132
51794W        W94888   0.573   4.682   5.811  0.2597  0.1300  0.0213
51795W        W94889  34.226   3.339   7.104 -0.0310  0.0357 -0.0592
51796W        W94890  33.921   6.398   4.645 -0.1870 -0.0982  0.1012
51797W        W94891  33.111   4.566   6.444 -0.0987  0.0802  0.0540
51798W        W94892  33.380   3.577   4.990  0.0338 -0.1459  0.1483
51799W        W94893  34.251   3.699   6.466 -0.3324 -0.0895 -0.3828
51800W        W94894  32.607   3.862   5.257  0.2736  0.0061 -0.1590
51801W        W94895  32.530   3.040   4.457  0.0454  0.1999 -0.0686
51802W        W94896  34.358   4.404   3.063 -0.1176 -0.0631 -0.0235
51803W        W94897  33.417   6.334   4.865  0.1302 -0.0971 -0.5346
51804W        W94898   0.229   3.803   6.254  0.0643 -0.1903 -0.0638
51805W        W94899  32.709   3.599   3.844  0.1330  0.2363  0.0031
51806W        W94900  34.247   6.076   5.547 -0.2952  0.1592  0.0273
51807W        W94901  34.128   5.983   6.038 -0.2999  0.3376 -0.0301
51808W        W94902   1.371   2.861   3.693 -0.1434 -0.1755 -0.1716
51809W        W94903  34.630   4.510   8.267 -0.0423  0.0547  0.0335
51810W        W94904  33.642   4.041   4.389  0.1693 -0.0279 -0.4018
51811W        W94905  34.102   7.205   5.220  0.1588 -0.0616  0.4056
51812W        W94906  32.981   5.017   4.083 -0.0656 -0.2917  0.3035
51813W        W94907  34.649   6.936   5.915  0.2550  0.4317 -0.0668
51814W        W94908  33.007   5.076   8.589  0.2182  0.2329  0.0271
51815W        W94909  31.908   4.418   3.740  0.4361 -0.3279  0.1395
51816W        W94910  34.159   7.399   8.401  0.1221 -0.3422 -0.0318
51817W        W94911  32.827   5.774   8.056  0.0338 -0.2552  0.1645
51818W        W94912   1.301   5.674   4.039 -0.1395  0.4290  0.1415
51819W        W94913  33.255   6.139   6.773 -0.0573 -0.2365 -0.0206
51820W        W94914  33.279   5.437   5.813 -0.3302 -0.1860 -0.1917
51821W        W94915  34.530   4.215   6.551  0.0052 -0.0598 -0.5355
51822W        W94916  34.436   2.884   3.842  0.0953  0.0600  0.0011
51823W        W94917  33.174   7.756   4.651  0.5069 -0.0052  0.1054
51824W        W94918  34.021   3.043   7.555  0.1910  0.2296  0.0258
51825W        W94919  32.838   4.737   2.559 -0.0525 -0.0114  0.0820
51826W        W94920   0.773   4.577   6.831  0.1290 -0.1124 -0.0624
51827W        W94921  33.500   5.438   7.428 -0.2000 -0.0574 -0.1767
51828W        W94922  34.158   5.405   6.193  0.1936  0.0428 -0.0748
51829W        W94923   1.768   5.054   6.545  0.0848  0.0819  0.0106
51830W        W94924   0.393   6.407   3.928 -0.0300  0.1753 -0.0479
51831W        W94925  33.587   4.722   4.262  0.0097 -0.1197 -0.1292
51832W        W94926  34.307   3.719   5.738  0.1939  0.0595 -0.1294
51833W        W94927   0.287   6.805   6.889 -0.1743  0.3121 -0.1166
51834W        W94928  33.441   6.193   2.935  0.0793  0.2489 -0.1530
51835W        W94929  33.173   6.100   4.510 -0.2321  0.0098  0.2215
51836W        W94930  33.222   6.756   5.078  0.2747  0.1334 -0.0263
51837W        W94931  33.032   3.710   4.429 -0.1982  0.2698  0.0430
51838W        W94932  31.147   6.063   2.645  0.0222 -0.0103  0.2301
51839W        W94933  33.108   3.297   6.935  0.1965 -0.1062 -0.2710
51840W        W94934  34.077   4.154   5.188  0.1889 -0.0833  0.2653
51841W        W94935  33.659   6.699   6.040  0.0554  0.0576 -0.1781
51842W        W94936  33.398   5.506   7.926 -0.0283 -0.0482 -0.0222
51843W        W94937  32.188   4.495   3.298 -0.2865 -0.1288  0.2164
51844W        W94938  33.292   4.122   5.142  0.0289 -0.0993  0.4643
51845W        W94939  33.601   6.200   4.329 -0.1017  0.1976 -0.1698
51846W        W94940  34.293   4.411   4.768 -0.2021  0.3612 -0.2053
51847W        W94941  33.967   5.406   4.454  0.1543  0.2829  0.0677
51848W        W94942  33.459   3.944   6.162  0.2229  0.1994  0.1512
51849W        W94943   1.284   5.295   6.028  0.1202 -0.0094  0.1102
51850W        W94944  34.294   3.836   4.731 -0.0263  0.0395 -0.1765
51851W        W94945   0.257   4.479   3.820  0.0699 -0.2569  0.2098
51852W        W94946   1.041   5.006   7.119 -0.0349 -0.2110 -0.0143
51853W        W94947  34.388   6.976   7.929  0.3560 -0.0354 -0.3705
51854W        W94948  32.928   5.454   3.313  0.0830 -0.0772 -0.1838
51855W        W94949  33.406   5.666   5.417  0.3561  0.0634  0.0477
51856W        W94950  33.511   5.718   4.468  0.1547 -0.1840  0.1000
51857W        W94951  34.303   4.708   6.633 -0.2945 -0.2188  0.0591
51858W        W94952  33.625   4.758   5.688  0.0152 -0.0020 -0.0111
51859W        W94953  33.268   5.932   4.046 -0.3475 -0.1778  0.0129
51860W        W94954  32.509   6.399   6.812  0.0145 -0.0471 -0.2083
51861W        W94955  34.127   4.659   5.146  0.2723  0.1241  0.2689
51862W        W94956   1.050   3.503   6.555  0.1129  0.2120  0.0367
51863W        W94957  33.651   4.464   6.120 -0.2639  0.0653 -0.3082
51864W        W94958  33.422   5.025   6.044 -0.4685 -0.1709  0.0464
51865W        W94959  33.826   3.452   4.853 -0.0648  0.2914  0.0986
51866W        W94960   0.397   4.462   7.135  0.0636  0.0464  0.0671
51867W        W94961  33.753   3.935   4.906 -0.0813 -0.2830 -0.2730
51868W        W94962  34.631   4.914   6.280 -0.0265  0.0092  0.0971
51869W        W94963  34.412   5.372   4.147  0.0115  0.0367  0.1188
51870W        W94964  33.852   5.914   4.752 -0.2608  0.1835  0.0896
51871W        W94965  32.603   4.039   6.802 -0.0320  0.0126 -0.1943
51872W        W94966   0.181   5.747   6.688  0.0516  0.1166 -0.3939
51873W        W94967  33.453   4.733   6.971 -0.3033 -0.1532  0.0662
51874W        W94968  33.973   4.085   5.663 -0.0975 -0.1057  0.0194
51875W        W94969  33.426   5.325   3.150  0.1143  0.0610 -0.5190
51876W        W94970  34.657   5.883   4.165  0.0137 -0.3529 -0.0100
51877W        W94971  33.112   3.644   5.433 -0.2103  0.3804  0.2393
51878W        W94972  32.739   6.813   7.968  0.4037  0.0752 -0.3789
51879W        W94973  31.067   5.616   2.338 -0.1608 -0.5209 -0.1818
51880W        W94974   0.006   3.901   3.780 -0.2221 -0.0976  0.0438
51881W        W94975  34.404   5.650   5.702 -0.1731  0.3742 -0.1569
51882W        W94976   0.302   3.594   4.098 -0.1157  0.2109 -0.0951
51883W        W94977  32.850   5.840   5.163 -0.2006  0.0446 -0.1376
51884W        W94978  32.422   6.261   5.659 -0.0729  0.0311  0.0532
51885W        W94979  33.207   6.560   6.451  0.0239  0.0339 -0.0664
51886W        W94980   0.009   6.352   5.402 -0.0960 -0.3561  0.0399
51887W        W94981   1.521   5.741   4.487 -0.1623 -0.0208  0.0520
51888W        W94982  34.558   4.339   5.672  0.3124 -0.2141  0.1016
51889W        W94983  33.862   5.814   5.670 -0.2244 -0.0638  0.1309
51890W        W94984  32.859   5.969   5.627 -0.1563  0.1752 -0.4646
51891W        W94985  33.853   3.117   5.752 -0.0358  0.1102  0.0790
51892W        W94986  33.757   4.983   7.809 -0.1625  0.2944 -0.0414
51893W        W94987  33.214   4.564   5.350 -0.2048 -0.0807 -0.0214
51894W        W94988  34.447   6.492   4.986  0.2164  0.1869  0.2624
51895W        W94989  33.177   4.478   4.215 -0.0225 -0.1014 -0.1432
51896W        W94990  34.497   4.783   5.440  0.1371  0.4083 -0.0915
51897W        W94991  32.490   6.664   4.694 -0.1324  0.2247 -0.2712
51898W        W94992  33.441   6.051   5.781 -0.1464 -0.1934 -0.0654
51899W        W94993   0.076   4.904   7.918 -0.2823 -0.0743 -0.1195
51900W        W94994  33.995   3.785   3.674  0.5085 -0.1755 -0.0241
51901W        W94995  33.714   5.750   6.130  0.3030  0.0411 -0.1063
51902W        W94996  33.756   7.164   7.375  0.0578 -0.1143  0.2278
51903W        W94997  32.049   5.028   3.585 -0.0929 -0.2253 -0.2762
51904W        W94998   0.124   5.346   5.621  0.3630  0.1963 -0.0028
51905W        W94999  33.122   4.950   3.421 -0.3587 -0.1137  0.1913
51906W        W95000   0.623   6.395   4.751 -0.2179  0.0193 -0.0227
51907W        W95001   0.323   5.153   6.108  0.3205  0.0706 -0.0315
51908W        W95002   0.588   7.532   6.243 -0.1066 -0.2340  0.0354
51909W        W95003  32.646   5.402   4.315  0.2703  0.2841 -0.0632
51910W        W95004  33.404   4.192   6.627 -0.2082  0.0780  0.2630
51911W        W95005  33.462   4.936   5.114  0.2792  0.1687  0.2693
51912W        W95006  33.755   3.847   6.605  0.2566 -0.0852  0.1861
51913W        W95007  34.229   4.713   3.417  0.2620 -0.1346 -0.0948
51914W        W95008  32.420   4.693   3.831  0.3907 -0.3065  0.2182
51915W        W95009  33.004   5.714   4.719  0.3508  0.2200 -0.0563
51916W        W95010   0.031   5.589   6.187 -0.1411  0.0839 -0.1018
51917W        W95011  34.197   3.211   4.479  0.2228  0.0333 -0.2897
51918W        W95012  34.053   6.653   2.210  0.0495 -0.0414  0.3437
51919W        W95013  32.837   4.310   4.970  0.2281  0.3630 -0.2421
51920W        W95014   0.333   3.836   5.369  0.0878  0.1762  0.1641
51921W        W95015   0.341   4.321   5.561 -0.2322  0.0161  0.2978
51922W        W95016  32.876   6.520   5.593  0.0764 -0.1010 -0.0636
51923W        W95017   0.010   7.297   2.745  0.0204 -0.3561 -0.0977
51924W        W95018  34.456   5.628   7.271 -0.2164 -0.0666 -0.0381
51925W        W95019  33.888   5.700   8.733  0.1538  0.0177  0.0022
51926W        W95020  33.305   5.592   3.597  0.2724 -0.0814  0.2076
51927W        W95021  33.445   5.970   7.750 -0.1780 -0.0508 -0.1488
51928W        W95022  34.095   6.185   5.097 -0.1459 -0.2231  0.1821
51929W        W95023  33.442   6.403   3.762  0.1443 -0.1268 -0.0749
51930W        W95024  34.654   5.462   5.180 -0.1929  0.0688 -0.0997
51931W        W95025   0.338   4.722   5.244  0.1885  0.0022  0.0204
51932W        W95026  33.394   6.575   6.998 -0.0606 -0.0447 -0.3504
51933W        W95027  31.355   4.775   2.909  0.0532 -0.0897 -0.0687
51934W        W95028  32.242   5.626   4.225  0.2594  0.3513  0.1445
51935W        W95029  33.860   5.006   4.760 -0.2361  0.1162 -0.0424
51936W        W95030   1.024   2.726   7.217 -0.2440 -0.1061 -0.1253
51937W        W95031  33.230   3.634   6.616  0.0218 -0.2171 -0.0423
51938W        W95032  32.668   6.117   4.670 -0.2990 -0.1761 -0.0457
51939W        W95033  32.903   2.802   4.817  0.1945  0.1798 -0.1685
51940W        W95034  33.945   4.870   6.129 -0.1894 -0.0814  0.0350
51941W        W95035  32.609   4.004   4.569 -0.1741  0.0488  0.2676
51942W        W95036   0.092   3.744   4.943  0.1176 -0.0085  0.2324
51943W        W95037  32.672   5.910   3.255  0.0313 -0.1277  0.1925
51944W        W95038   0.137   4.426   6.100  0.1824 -0.1042  0.0670
51945W        W95039  34.607   3.761   6.865 -0.0039  0.0777  0.2587
51946W        W95040  31.625   4.850   3.798  0.3811  0.2090  0.1241
51947W        W95041   1.141   4.952   5.158 -0.0067  0.0047  0.1524
51948W        W95042  33.835   6.378   7.320 -0.2200  0.0486 -0.2274
51949W        W95043  34.067   5.468   7.002  0.1815 -0.0459  0.1143
51950W        W95044  32.133   3.670   5.314 -0.0610 -0.2065 -0.3093
51951W        W95045  34.690   5.482   7.887  0.0565  0.0687 -0.0077
51952W        W95046  33.138   3.552   6.136  0.1522  0.0138 -0.3441
51953W        W95047  33.216   7.512   6.837  0.0724 -0.1551  0.0898
51954W        W95048   0.303   3.417   5.818  0.0489  0.0750  0.3119
51955W        W95049  33.662   4.467   5.290  0.1974 -0.1037 -0.0931
51956W        W95050   0.654   4.618   4.865 -0.1262  0.0885  0.0734
51957W        W95051   0.696   5.163   6.771 -0.2425 -0.1658  0.0156
51958W        W95052  33.611   3.728   3.970  0.3278 -0.2862 -0.1101
51959W        W95053   1.296   7.209   6.191  0.0931 -0.0319  0.0609
51960W        W95054  33.938   3.335   6.653  0.3877  0.0120  0.0977
51961W        W95055  32.716   5.866   4.223 -0.2118  0.1897  0.2349
51962W        W95056  34.653   5.293   4.630 -0.1838 -0.0614 -0.1617
51963W        W95057  32.942   3.265   4.689 -0.0812 -0.3862  0.0299
51964W        W95058  33.680   6.208   6.286  0.5009  0.0580  0.2729
51965W        W95059  32.715   5.375   9.462 -0.3612  0.0752  0.1782
51966W        W95060  33.920   3.354   8.637 -0.0747  0.1415 -0.2528
51967W        W95061  31.771   3.926   9.403  0.1276 -0.0122  0.0258
51968W        W95062  34.235   4.533   9.067  0.0449  0.1536  0.0145
51969W        W95063  34.305   4.861   7.705 -0.1964  0.2662 -0.1574
51970W        W95064  32.632   2.815   9.485  0.0053 -0.1221 -0.1045
51971W        W95065  33.250   4.414   7.322 -0.1579  0.0213  0.3492
51972W        W95066  33.198   4.367   9.303 -0.1393 -0.0832  0.3883
51973W        W95067  34.595   4.294   7.841 -0.1321  0.0582  0.1676
51974W        W95068   0.111   0.643   9.507  0.0136 -0.1577  0.1588
51975W        W95069   0.159   7.296   9.429  0.0903 -0.1385  0.1454
51976W        W95070  32.051   4.780   7.357 -0.2044 -0.1550  0.2372
51977W        W95071  33.509   5.158   8.642  0.1578 -0.2299 -0.1225
51978W        W95072  34.413   4.108   9.895 -0.1912 -0.2386 -0.0370
51979W        W95073   0.070   6.145   9.432 -0.2009  0.1309 -0.0228
51980W        W95074  33.894   5.984  10.245 -0.1275 -0.0918  0.0246
51981W        W95075  32.726   4.669   8.670  0.1873 -0.1171  0.1541
51982W        W95076  32.298   6.891   9.604 -0.1740  0.0150 -0.2482
51983W        W95077   0.545   6.529   8.859 -0.0305  0.0315  0.0459
51984W        W95078  34.186   5.775   7.972 -0.1559  0.2455 -0.4814
51985W        W95079   0.154   6.453   8.571 -0.1381  0.1316  0.0354
51986W        W95080  33.659   5.466  10.077 -0.0196  0.0617 -0.0295
51987W        W95081  32.730   4.946   9.087  0.1383 -0.0041 -0.3005
51988W        W95082  33.729   5.913   8.299  0.1124  0.1097  0.0236
51989W        W95083  34.007   5.911   6.523  0.0911  0.0746 -0.2320
51990W        W95084   0.085   3.215   8.126  0.0544 -0.0868  0.1069
51991W        W95085   1.163   5.725  10.231  0.6124 -0.3569  0.0627
51992W        W95086  33.542   3.721   8.986  0.1960  0.0420 -0.3028
51993W        W95087  32.239   5.298   9.636  0.1370 -0.1550 -0.0102
51994W        W95088  33.484   4.954   9.328  0.0753  0.2397  0.2811
51995W        W95089  32.282   4.635   8.892  0.1509  0.2521 -0.0148
51996W        W95090  32.963   4.011   5.800  0.2432  0.1790  0.1190
51997W        W95091   0.355   5.395   9.626  0.1686  0.0622 -0.0940
51998W        W95092  32.752   5.379   7.764  0.1654  0.0937 -0.1970
51999W        W95093   0.358   4.945   7.087  0.1366  0.0839 -0.0236
52000W        W95094  34.461   7.446   9.078 -0.2075 -0.0479  0.1918
52001W        W95095  32.318   7.718   8.288 -0.2942  0.1756  0.2676
52002W        W95096  33.814   5.389   8.198  0.1531  0.4219 -0.0814
52003W        W95097  33.691   4.254   8.310  0.0794 -0.1440 -0.2899
52004W        W95098   0.855   3.373   9.303 -0.0544 -0.0117  0.0175
52005W        W95099   0.026   5.643   9.322  0.2937 -0.2178  0.2633
52006W        W95100  33.307   6.386   7.494  0.0479  0.0514  0.0671
52007W        W95101  32.126   6.087  10.015  0.2748 -0.0591  0.0232
52008W        W95102  33.471   3.283   8.034  0.1320 -0.0928 -0.2448
52009W        W95103  30.850   3.727   9.732 -0.0879  0.1668 -0.1488
52010W        W95104  33.528   3.098   6.833 -0.0136 -0.2026  0.1112
52011W        W95105   1.492   5.205   9.031  0.2454 -0.3366  0.3522
52012W        W95106  32.838   5.476   8.789 -0.0581  0.0663 -0.0822
52013W        W95107  33.691   5.326   9.077  0.0493  0.2665 -0.0973
52014W        W95108  33.576   3.851   7.983  0.0650 -0.1875  0.0500
52015W        W95109  33.417   7.112  10.108  0.0363 -0.1471 -0.3080
52016W        W95110   0.549   4.762   8.923  0.2570 -0.0432 -0.1303
52017W        W95111  33.536   2.932   7.709  0.0116 -0.1051 -0.0597
52018W        W95112  34.163   4.130   6.838 -0.1034 -0.0196 -0.0001
52019W        W95113  33.272   6.269   9.061 -0.4260 -0.0451  0.0911
52020W        W95114  32.100   5.785   9.408  0.0530  0.1625  0.3378
52021W        W95115   0.508   6.398   9.741  0.0733  0.0502  0.1982
52022W        W95116  33.568   4.508   7.917  0.0116  0.0384  0.4041
52023W        W95117   0.542   5.706   9.155  0.1932 -0.2793  0.0063
52024W        W95118  32.633   6.316  10.010  0.1006 -0.3868 -0.1993
52025W        W95119  33.082   6.076   9.968  0.0918 -0.1517  0.1483
52026W        W95120   0.210   3.138   9.546 -0.1930 -0.3368 -0.1132
52027W        W95121  33.997   3.542   8.141 -0.0811  0.2189 -0.0486
52028W        W95122  34.351   8.513   7.065  0.1265 -0.0998  0.0255
52029W        W95123  32.923   4.470   6.919  0.0149  0.0303 -0.3180
52030W        W95124  34.488   4.146   8.783  0.2907  0.2441 -0.1492
52031W        W95125  33.340   6.307   9.608 -0.0727  0.1280  0.0926
52032W        W95126  34.269   6.688   8.583 -0.1551  0.2491 -0.2700
52033W        W95127   1.362   5.127   8.029  0.0390  0.1780 -0.0357
52034W        W95128   1.142   4.322   9.427 -0.1538 -0.1317  0.0115
52035W        W95129  33.029   4.886   9.587  0.0148  0.0599 -0.0197
52036W        W95130  33.921   6.219   7.909 -0.1307  0.0736  0.0687
52037W        W95131   0.223   6.020   8.881 -0.0540  0.1011 -0.2348
52038W        W95132  33.656   7.228   9.134 -0.1749 -0.0334  0.0183
52039W        W95133  33.832   4.768   8.899  0.0055 -0.1469  0.0686
52040W        W95134  32.594   4.912   7.545 -0.1335 -0.0570  0.3691
52041W        W95135  32.657   3.779   8.604  0.1934  0.2444 -0.1640
52042W        W95136   0.627   4.733   7.533  0.0343 -0.0757 -0.1175
52043W        W95137  33.255   6.700   9.835  0.1911  0.0516 -0.0549
52044W        W95138  32.825   3.333   7.764 -0.2683  0.1091  0.1730
52045W        W95139  34.156   3.972   8.293  0.3739  0.1154  0.0780
52046W        W95140  34.269   6.007   9.396  0.0350 -0.0442  0.0762
52047W        W95141  34.064   5.062   7.311  0.3345 -0.1438  0.0394
52048W        W95142  33.754   5.869   9.229 -0.1690 -0.0534  0.0806
52049W        W95143   0.266   4.051   8.282 -0.0695  0.1499 -0.0651
52050W        W95144  32.880   3.634   7.287  0.0407 -0.1238  0.3928
52051W        W95145   0.975   4.198  10.031 -0.0792 -0.1942  0.2405
52052W        W95146  33.935   3.515   9.934 -0.2877 -0.3576 -0.0165
52053W        W95147   0.285   5.543   8.729 -0.1341  0.1311  0.2764
52054W        W95148  31.552   7.131  10.213 -0.1481  0.2799  0.0681
52055W        W95149  32.887   6.071   8.478  0.2738 -0.1966 -0.1152
52056W        W95150   0.713   4.531   9.731  0.0336 -0.1861 -0.0743
52057W        W95151  32.833   3.566   9.677  0.2196  0.2104 -0.1353
52058W        W95152  34.399   5.933   8.948  0.2447  0.1616 -0.0193
52059W        W95153  31.720   5.081   9.995  0.2577  0.0697  0.1530
52060W        W95154  34.133   4.550   8.315 -0.1765  0.3081  0.0478
52061W        W95155  33.993   4.248   8.719 -0.0944 -0.0000 -0.0488
52062W        W95156  34.393   3.385   7.765 -0.3030  0.0389 -0.2025
52063W        W95157   0.100   2.837   9.971 -0.2188  0.2703  0.1138
52064W        W95158  34.504   6.050   9.817 -0.1629  0.0365 -0.1351
52065W        W95159  33.498   4.344   8.881  0.0844 -0.1399  0.0116
52066W        W95160   0.426   5.447   8.267  0.1017 -0.2404 -0.1109
52067W        W95161  34.343   5.464   8.311  0.0928 -0.1721 -0.2080
52068W        W95162  33.175   4.574   8.423 -0.0302 -0.0074  0.2405
52069W        W95163  33.888   4.645   7.493 -0.2726 -0.1662 -0.0645
52070W        W95164   0.540   6.106   8.395 -0.0417 -0.1849 -0.2592
52071W        W95165  33.190   4.782   8.958 -0.0874  0.1083 -0.1572
52072W        W95166  33.141   4.246   7.915 -0.0335 -0.1233 -0.1964
52073W        W95167  34.689   5.824   8.372  0.0147  0.0903  0.2622
52074W        W95168   1.302   7.499   9.960 -0.2192 -0.1606 -0.2894
52075W        W95169   0.068   3.159   7.513  0.1834 -0.2126 -0.2620
52076W        W95170  33.683   6.429   8.329 -0.1271  0.0440 -0.0453
52077W        W95171   0.275   4.622  10.557 -0.2730  0.0592  0.2321
52078W        W95172   0.674   5.244   9.252 -0.0662 -0.1303 -0.3260
52079W        W95173   0.375   4.667   8.399  0.0728 -0.3370  0.1638
52080W        W95174  32.406   5.742   9.799  0.2353 -0.0993 -0.2107
52081W        W95175  32.693   5.824  10.215  0.1486  0.2915  0.1747
52082W        W95176  34.327   4.507   6.142  0.0913  0.4492 -0.1452
52083W        W95177  31.871   9.633  10.024  0.3299 -0.1537 -0.1094
52084W        W95178  33.967   7.197   7.863 -0.2961 -0.1993 -0.2263
52085W        W95179  34.361   4.703   7.176  0.1979 -0.0073 -0.1438
52086W        W95180  34.545   6.891   9.215  0.4377 -0.3928 -0.1642
52087W        W95181  33.142   5.569   8.402  0.0763 -0.0355  0.0757
52088W        W95182  33.515   6.955   9.510  0.2752  0.3172  0.1521
52089W        W95183   0.039   4.573   8.846  0.2801 -0.2052  0.3145
52090W        W95184   0.133   2.361   7.715 -0.0527  0.1208 -0.1053
52091W        W95185  34.069   4.346   7.878  0.4900 -0.2372  0.2844
52092W        W95186   0.384   4.482   7.921 -0.0284 -0.1372 -0.1966
52093W        W95187  34.282   4.287   7.455 -0.1948  0.2128 -0.1859
52094W        W95188  33.751   7.154  10.580 -0.0651 -0.0180  0.1829
52095W        W95189  34.183   5.525   9.212  0.1834  0.0274 -0.2867
52096W        W95190  32.826   5.289   9.934  0.1410 -0.0181  0.0702
52097W        W95191  33.781   3.816   8.522 -0.0279 -0.0092 -0.2954
52098W        W95192  32.469   2.122   9.779 -0.0188  0.1422 -0.1566
52099W        W95193  33.756   4.806   8.399 -0.0138  0.0571  0.2007
52100W        W95194  32.431   3.728   9.917  0.3236 -0.1836 -0.0315
52101W        W95195   0.321   5.454   7.075  0.1681  0.1813  0.4777
52102W        W95196  31.613   5.561  10.347 -0.0298 -0.0350  0.0131
52103W        W95197  33.844   5.503   9.615 -0.0634 -0.0984  0.2724
52104W        W95198  33.647   2.982   9.895  0.1040  0.2184 -0.0069
52105W        W95199  32.788   4.390   9.760  0.3035  0.1519 -0.1078
52106W        W95200  34.304   6.503   8.101  0.2378 -0.2775 -0.0389
52107W        W95201  32.312   4.185   9.503  0.3669 -0.0023  0.0045
52108W        W95202   0.034   2.850   9.111 -0.1236 -0.0128  0.1644
52109W        W95203  33.397   5.608   8.810  0.0162  0.0756  0.1129
52110W        W95204  32.428   5.669   9.053 -0.0586  0.3616 -0.0976
52111W        W95205  34.379   4.867   8.611  0.1859  0.1198 -0.2917
52112W        W95206  33.584   9.144  12.405  0.0836  0.0010  0.0346
52113W        W95207  33.427   4.929   7.435  0.1290  0.0377  0.0407
52114W        W95208   0.658   6.213   9.236  0.1965 -0.1540  0.1470
52115W        W95209  33.276   6.500   8.636 -0.2670 -0.3737 -0.1859
52116W        W95210   0.322   4.074   9.677  0.1585  0.0045  0.2274
52117W        W95211   1.167   4.064   7.578 -0.1917 -0.2007 -0.0132
52118W        W95212  30.200   4.585  10.333  0.0923  0.3686 -0.1290
52119W        W95213  33.499   5.677   6.773 -0.0241 -0.2012  0.0026
52120W        W95214   0.123   4.670   7.460  0.0579 -0.1176 -0.0927
52121W        W95215  32.879   6.294   9.521 -0.1984 -0.1205  0.2733
52122W        W95216  32.916   5.949   9.052 -0.0547  0.0669  0.1743
52123W        W95217  32.878   4.122   8.324  0.1033  0.1789 -0.2280
52124W        W95218   0.124   3.971   9.137  0.2690 -0.0341  0.0724
52125W        W95219  32.458   1.521   9.689 -0.0499  0.0795  0.1673
52126W        W95220   0.606   4.058   7.936  0.1862  0.0134 -0.1980
52127W        W95221  32.942   5.843   7.518 -0.0449 -0.0181  0.0962
52128W        W95222  32.476   4.187   7.998  0.1366 -0.2296 -0.1395
52129W        W95223  34.090   3.796   8.936 -0.1075 -0.0502  0.1258
52130W        W95224  31.677   3.449   9.860  0.0174  0.2135  0.0861
52131W        W95225  33.674   4.520   9.354 -0.0119  0.3092  0.1978
52132W        W95226  33.984   4.950   9.408 -0.1329 -0.2362 -0.0531
52133W        W95227  33.680   4.132   7.594  0.0572 -0.2011  0.0406
52134W        W95228   1.057   4.474   8.894  0.0976 -0.0509 -0.1678
52135W        W95229  34.121   7.765  10.016 -0.3065 -0.0878  0.0868
52136W        W95230  33.127   2.164   9.305 -0.4176 -0.3148  0.2916
52137W        W95231  34.265   5.002   8.141  0.0870  0.0718 -0.1135
52138W        W95232  34.465   5.453   8.775  0.3518  0.0448 -0.0355
52139W        W95233  34.021   3.021   8.060  0.1588 -0.3689  0.1129
52140W        W95234  34.615   7.010  10.158 -0.2080 -0.2777 -0.1614
52141W        W95235  34.310  10.728   1.399 -0.0760 -0.0164 -0.3098
52142W        W95236  32.400   8.304   0.231 -0.2719  0.3841 -0.0532
52143W        W95237  33.262   7.963   1.144 -0.0417  0.0117 -0.3020
52144W        W95238  33.044   7.636   2.859 -0.0849  0.0759 -0.1857
52145W        W95239  33.511   8.898   3.008 -0.1284  0.1728  0.0833
52146W        W95240   0.346   9.884   3.103 -0.0744  0.3009  0.0191
52147W        W95241   1.295   7.817   0.307  0.2223  0.2455  0.0672
52148W        W95242  31.597   8.010   2.845 -0.0055 -0.1077 -0.0300
52149W        W95243  31.552   8.403   0.659 -0.3659 -0.0726 -0.0646
52150W        W95244  33.240   7.915   2.373  0.2753 -0.1192  0.1256
52151W        W95245   0.002   8.146   1.386  0.1785  0.3035  0.0308
52152W        W95246  34.041   7.581   1.488 -0.0381 -0.0732  0.1566
52153W        W95247   0.419  10.296   0.664 -0.0747  0.3163 -0.1407
52154W        W95248  32.712   7.405   1.937  0.3001  0.2767 -0.3433
52155W        W95249  32.986   9.927   2.420 -0.0143  0.3745 -0.2143
52156W        W95250   0.997  10.168   3.884  0.1684  0.1749  0.0896
52157W        W95251  32.708   9.162   2.085  0.0173 -0.0242 -0.1443
52158W        W95252  33.090   9.677   1.284  0.2513  0.0626  0.3800
52159W        W95253  31.956  10.182   1.012 -0.3324  0.1804  0.2742
52160W        W95254  34.526   9.729   3.234  0.0760 -0.0852 -0.0488
52161W        W95255  33.732  10.259   0.231  0.1918 -0.3080 -0.1167
52162W        W95256   0.632   9.891   3.985  0.4602 -0.3519  0.1138
52163W        W95257  34.662  10.112   0.757  0.0432  0.0954 -0.0672
52164W        W95258   1.206   9.936   3.519  0.0400  0.1592 -0.0292
52165W        W95259   0.066   9.303   3.854  0.1861 -0.5355  0.0175
52166W        W95260  33.922  10.602   2.888  0.1953 -0.0709 -0.2277
52167W        W95261  31.404  12.512  31.914 -0.1265  0.2715  0.0182
52168W        W95262   0.732   6.647   0.728 -0.0961 -0.2346 -0.0720
52169W        W95263   0.381   7.402   1.322  0.1590  0.1249 -0.4283
52170W        W95264  34.153  10.095   2.023  0.1865  0.0412  0.1846
52171W        W95265  33.043   7.052   2.067  0.1476 -0.2223  0.1663
52172W        W95266   0.103  10.691   3.815 -0.0596 -0.2726 -0.1281
52173W        W95267  32.436   9.299   1.700 -0.1092  0.1472 -0.0841
52174W        W95268  32.117   8.948  31.910  0.0396  0.0917 -0.1062
52175W        W95269  31.659  10.145   4.128  0.3825 -0.2191  0.2646
52176W        W95270  32.753   9.198   4.306  0.3358  0.0476  0.1347
52177W        W95271  33.471   7.694  31.375 -0.1557  0.0342  0.2803
52178W        W95272  33.379   8.488   3.350 -0.3840  0.1211  0.0071
52179W        W95273   0.727   8.466   2.068  0.1057 -0.0789  0.0158
52180W        W95274  33.522   9.133   1.651 -0.2743 -0.0758  0.1037
52181W        W95275  33.190   7.584   2.015  0.0931  0.2482 -0.1522
52182W        W95276   0.256  10.096   2.366 -0.0714  0.1632 -0.1396
52183W        W95277  33.904   7.743   1.950  0.2094  0.0374 -0.1181
52184W        W95278  33.911   9.304   3.726  0.2258  0.1563 -0.2567
52185W        W95279  32.543  10.676   2.304 -0.1417 -0.1611  0.0201
52186W        W95280  33.372   9.986   2.111 -0.2157 -0.4557 -0.2196
52187W        W95281  32.608   9.002   1.333  0.2789  0.0799  0.2185
52188W        W95282  33.443   8.140   2.767  0.2239 -0.0823  0.0864
52189W        W95283  34.354  10.640   2.921 -0.0166  0.4375 -0.1679
52190W        W95284  33.934   7.337   2.566  0.2423  0.2612 -0.3644
52191W        W95285  32.802   8.736   1.749 -0.0058  0.2034  0.1490
52192W        W95286  32.842   9.889   3.864  0.1063 -0.1607  0.2660
52193W        W95287  32.039   8.024   1.554  0.0050 -0.2588 -0.1037
52194W        W95288  33.558   8.595   3.983  0.1734  0.1284 -0.2348
52195W        W95289  32.269   8.698   3.288 -0.1243 -0.0766  0.0992
52196W        W95290  32.264   6.896   1.040  0.0798  0.0587  0.1150
52197W        W95291  33.642   9.287   2.719  0.3261  0.1700  0.3249
52198W        W95292  33.280  10.348   2.599 -0.4812 -0.0525 -0.1135
52199W        W95293  33.610   6.846   2.540 -0.3313  0.1831  0.1492
52200W        W95294  31.912   8.067   0.241 -0.0343 -0.2829  0.0778
52201W        W95295  32.966  10.420   2.182 -0.0618 -0.1798  0.3695
52202W        W95296  32.960   9.244   1.643  0.2831 -0.1135 -0.1384
52203W        W95297  34.336   6.499   0.728 -0.2933  0.1849 -0.0372
52204W        W95298  33.013   8.592   3.723  0.1384 -0.1269 -0.1089
52205W        W95299  34.457   8.558   1.250 -0.3792  0.0570  0.0643
52206W        W95300  32.693  11.427   1.520  0.1099 -0.1353 -0.0707
52207W        W95301  32.215  11.342   1.109 -0.2007  0.1400  0.0843
52208W        W95302  33.780  10.455   1.400 -0.3130  0.1551 -0.0193
52209W        W95303  33.962  11.195   4.977  0.1445 -0.2915  0.2005
52210W        W95304  32.734   8.625   0.562 -0.1564  0.3682 -0.0318
52211W        W95305  33.681   9.283   3.246 -0.3403 -0.3558  0.0492
52212W        W95306  33.424   9.791   3.221 -0.1310  0.2244 -0.3495
52213W        W95307  34.444  10.299   2.396  0.2656  0.1251  0.1702
52214W        W95308  33.347   8.479   2.369 -0.0261  0.0647 -0.2917
52215W        W95309  32.999  10.171   3.454 -0.2630 -0.3983  0.0280
52216W        W95310  34.573   7.417   3.184 -0.1997  0.0270  0.0020
52217W        W95311   0.911   9.393   1.964  0.1761 -0.0744  0.0748
52218W        W95312  32.632  10.333   1.700 -0.2006  0.1573  0.1342
52219W        W95313  32.738   7.207   0.940  0.1597 -0.1560  0.0409
52220W        W95314  33.961   8.430  31.621 -0.2411  0.2584  0.1694
52221W        W95315  34.431   7.865   1.869  0.1105  0.3366  0.1505
52222W        W95316  32.853   8.532   3.272 -0.0741 -0.2206  0.4202
52223W        W95317  34.019   8.761   3.904 -0.0097 -0.4120  0.0644
52224W        W95318  34.147   8.107   4.856  0.2669  0.1330 -0.1639
52225W        W95319  33.641   9.911   0.675 -0.1365 -0.0512  0.1065
52226W        W95320  33.128  10.606   1.018 -0.1783  0.1137  0.3468
52227W        W95321  33.279   9.000   2.522 -0.0760  0.2592  0.0684
52228W        W95322  33.900  10.903   1.733  0.3788  0.2638  0.0232
52229W        W95323  31.624   9.808   0.627 -0.1159 -0.0520 -0.0077
52230W        W95324  33.539   9.018   1.098 -0.2534  0.0673 -0.0445
52231W        W95325  33.363  10.986   2.552 -0.1009  0.1093  0.0692
52232W        W95326  31.760   7.634   0.106 -0.0038 -0.0497 -0.0235
52233W        W95327  33.197   9.004   2.037  0.1019 -0.0778  0.0019
52234W        W95328  34.175   8.109   2.751  0.1032 -0.1722  0.3808
52235W        W95329  33.634   8.535   1.480 -0.2501 -0.1017  0.0088
52236W        W95330  32.570   8.932   3.903 -0.0206  0.1600 -0.0539
52237W        W95331  33.147   8.523   2.845  0.1498  0.1426  0.1039
52238W        W95332  32.256   8.833   1.666 -0.0883  0.1857  0.2974
52239W        W95333  34.235   9.044   1.061 -0.4451  0.2381  0.1087
52240W        W95334  34.043  10.502   3.356  0.0120 -0.3371  0.3700
52241W        W95335  33.007   8.333   1.443 -0.3594 -0.2232  0.0580
52242W        W95336  33.721   9.661   2.368 -0.1695  0.0691  0.2221
52243W        W95337  33.064   9.081   5.276 -0.0314 -0.1157  0.2680
52244W        W95338   1.443   8.183   1.268 -0.0257 -0.1871 -0.4831
52245W        W95339  32.774   7.782   1.010 -0.0529 -0.0310  0.0237
52246W        W95340  33.838   8.675   1.937 -0.1506 -0.3498  0.1194
52247W        W95341  33.797   8.472   2.785  0.0210  0.0414  0.1033
52248W        W95342  34.047   9.632   3.447 -0.0323  0.0601  0.2060
52249W        W95343  31.810   8.894   0.865 -0.0440  0.1271 -0.2919
52250W        W95344  30.921   9.985   1.948 -0.0767 -0.1657  0.0546
52251W        W95345   0.019   9.992   0.255  0.1385  0.3442 -0.1169
52252W        W95346  33.577   7.678   2.844 -0.1419  0.2246 -0.0217
52253W        W95347  33.356   9.733   2.714 -0.1127 -0.0048  0.0192
52254W        W95348  34.309   9.175   0.553 -0.2433  0.2460  0.2123
52255W        W95349  32.379  10.192   3.541  0.1195  0.0288  0.2255
52256W        W95350  34.678   7.673   1.006  0.0092  0.1731 -0.1103
52257W        W95351   0.113   6.535   1.020 -0.4445 -0.0547  0.0685
52258W        W95352  31.042   8.833   3.754 -0.0391 -0.0824 -0.0589
52259W        W95353  33.619   8.812   4.446 -0.0556 -0.0463 -0.2505
52260W        W95354  34.255   7.425   1.018  0.0964  0.2159 -0.2480
52261W        W95355  33.699  10.774   3.529 -0.3068 -0.0608  0.2633
52262W        W95356  33.103  10.138   0.754 -0.1173 -0.1379 -0.0506
52263W        W95357  32.869   9.453   2.543  0.2238 -0.1515  0.0920
52264W        W95358  34.374   9.676   0.753 -0.4090 -0.1168 -0.0096
52265W        W95359  32.797   8.872   2.527 -0.3946  0.0106  0.0618
52266W        W95360  33.577   7.116   4.421 -0.1381  0.0456  0.1960
52267W        W95361  33.858   6.579   2.889 -0.2859 -0.0129 -0.3167
52268W        W95362  32.166   8.322   4.288 -0.0250 -0.3922 -0.1206
52269W        W95363  33.857   8.839   2.444 -0.0129  0.4119  0.0189
52270W        W95364  34.204   7.080   1.484  0.0566 -0.0380  0.1412
52271W        W95365   0.985  10.921  31.702  0.2027 -0.2895 -0.1008
52272W        W95366  32.099   9.669   1.488 -0.1971  0.1866 -0.2383
52273W        W95367   0.263   9.463   3.378 -0.2307  0.2574  0.1796
52274W        W95368  33.994   8.253   0.146  0.1880  0.0601  0.1353
52275W        W95369  33.791  10.620  31.854  0.0606 -0.2768  0.0200
52276W        W95370   1.004   8.898   2.348  0.0272 -0.0432  0.0982
52277W        W95371   0.648   8.337   1.014  0.0178 -0.1484  0.3114
52278W        W95372  32.478  11.469   0.573 -0.2757 -0.2863 -0.0968
52279W        W95373  33.434   9.493   3.664 -0.0986  0.3695 -0.1907
52280W        W95374  33.857   7.646   3.851 -0.0002 -0.4766 -0.5552
52281W        W95375  33.426  10.958   0.824 -0.0698 -0.0998 -0.1604
52282W        W95376  33.876   9.694   3.016 -0.0423 -0.3662  0.0826
52283W        W95377  33.384  10.224   1.658 -0.1627  0.2145 -0.0820
52284W        W95378  34.592   9.492   1.831  0.2529 -0.0157  0.0952
52285W        W95379  31.666   8.186   3.872  0.2606  0.1084 -0.0959
52286W        W95380  32.572   7.080   2.429 -0.1291 -0.0026 -0.1731
52287W        W95381  33.128   9.579   4.209 -0.0643  0.1330 -0.2432
52288W        W95382  31.977   9.357   3.975  0.1964 -0.2684  0.0751
52289W        W95383  33.433  10.619   2.195 -0.1189 -0.2189  0.1787
52290W        W95384   0.339   9.825   1.581 -0.4151 -0.0186 -0.2592
52291W        W95385  33.372   9.673   1.689 -0.3158 -0.2273 -0.0958
52292W        W95386  33.751   8.443   0.619 -0.1629 -0.1929 -0.1325
52293W        W95387  33.444  10.098   1.189  0.0488 -0.2467  0.0279
52294W        W95388  33.723   7.228   1.298 -0.1629 -0.4076 -0.2830
52295W        W95389  32.577   6.852  31.932  0.0850  0.1571  0.1742
52296W        W95390  32.674   8.960   3.046  0.1696 -0.0370 -0.1363
52297W        W95391  33.917   9.576   4.197  0.0311  0.0411 -0.3399
52298W        W95392  32.293   7.649   0.863  0.1406  0.1181 -0.0707
52299W        W95393  33.195   9.490   2.164  0.2438  0.1756 -0.0018
52300W        W95394  32.573   9.563   1.323 -0.1810 -0.1795  0.0441
52301W        W95395  34.653  10.115   2.817  0.1206 -0.0947  0.1097
52302W        W95396  33.651  10.147   2.882 -0.0309 -0.1734  0.3054
52303W        W95397   0.332  11.223   3.268 -0.0862  0.2370  0.2792
52304W        W95398  32.312   8.197   3.218  0.3267  0.0590 -0.1019
52305W        W95399  33.738   8.073   3.143 -0.1427 -0.2062 -0.0301
52306W        W95400  33.990   8.658   1.032 -0.0856 -0.1802 -0.0412
52307W        W95401  33.277   7.883   3.204 -0.4169 -0.1703 -0.0573
52308W        W95402  33.332   9.198   0.297  0.0206 -0.0056  0.2173
52309W        W95403  33.446   7.355   2.469  0.0611 -0.2148 -0.1524
52310W        W95404  32.563   8.457   2.790 -0.0144 -0.3612  0.1980
52311W        W95405  33.052   9.017   3.416 -0.1644 -0.1148  0.2847
52312W        W95406  33.648   9.235   2.143  0.0530 -0.1139  0.1109
52313W        W95407  34.629  11.002   0.144 -0.0345  0.1938  0.2358
52314W        W95408  31.787   8.539   3.420 -0.1168  0.2601  0.1793
52315W        W95409   0.306   7.216   0.291 -0.0707  0.3395 -0.3091
52316W        W95410  32.908   9.918   1.850 -0.3001 -0.2860  0.1870
52317W        W95411  31.559  11.302  31.727  0.0381 -0.2740 -0.0078
52318W        W95412  32.571  10.881  31.763 -0.6278  0.0174  0.1185
52319W        W95413   0.715   9.929   4.461  0.1032  0.2574 -0.3524
52320W        W95414  34.623  10.169   4.039  0.1502 -0.0967  0.1447
52321W        W95415  33.267   8.551   1.873 -0.2849  0.3313  0.1705
52322W        W95416   0.188   8.936   3.512 -0.0955  0.0299  0.2291
52323W        W95417  34.160  10.131   3.001 -0.1111 -0.4911 -0.0012
52324W        W95418   0.102  11.472   0.419  0.0063  0.2664  0.1130
52325W        W95419  33.856   9.488   0.750  0.0435  0.3191  0.0229
52326W        W95420  34.410   7.339   0.484 -0.3699  0.0767  0.3956
52327W        W95421  33.131  10.060   4.212 -0.0977  0.1765  0.0382
52328W        W95422  32.884   8.599  31.686  0.2235  0.2048  0.1219
52329W        W95423  34.273   9.800   1.568 -0.1971  0.1338 -0.1771
52330W        W95424  33.915   9.441   1.590  0.2097  0.0165 -0.0473
52331W        W95425  34.393   6.111   4.656  0.0901  0.4180 -0.2069
52332W        W95426  32.612   7.711   3.168 -0.0579 -0.0096  0.2637
52333W        W95427  31.970   9.545   2.038 -0.4353  0.1309 -0.2143
52334W        W95428  33.474   6.626   2.136  0.0558  0.0997 -0.0811
52335W        W95429  33.800   6.844   1.721  0.0670 -0.0336 -0.3356
52336W        W95430  31.854   7.787   2.486  0.0921 -0.1169  0.0097
52337W        W95431  33.801   6.783   0.967 -0.1514 -0.1912  0.0536
52338W        W95432  31.536   8.724   0.125 -0.0735 -0.2047 -0.2372
52339W        W95433   0.649   7.173   3.979 -0.1795 -0.1154  0.1145
52340W        W95434  33.055   7.443   3.472 -0.2044  0.1767 -0.1857
52341W        W95435  32.570   8.039   0.642 -0.3171 -0.0443 -0.2767
52342W        W95436   0.452   8.001   2.198 -0.1003 -0.0831  0.0227
52343W        W95437  34.587   9.116   2.523 -0.0366 -0.3375  0.4544
52344W        W95438   1.348  10.918   3.318 -0.0122 -0.1605  0.1192
52345W        W95439  33.689   6.292   2.452 -0.0570  0.1215  0.0821
52346W        W95440   0.882   8.975   2.953  0.4769  0.2688 -0.2193
52347W        W95441  32.045   8.913   5.123  0.2983 -0.0083  0.0068
52348W        W95442  32.975   9.615   3.458 -0.2724  0.0387 -0.0097
52349W        W95443  33.171   6.933   1.145  0.3066 -0.1464  0.0251
52350W        W95444  31.985   8.376   2.858  0.2261 -0.0586  0.2564
52351W        W95445   0.714   9.588   1.389  0.0952 -0.0949 -0.0137
52352W        W95446   0.193   7.353   3.627 -0.1597 -0.0951 -0.3802
52353W        W95447  34.536   8.743   0.743 -0.1808 -0.0007 -0.1737
52354W        W95448   0.601  10.976   3.637  0.1143 -0.1621  0.1768
52355W        W95449  33.113   6.995   2.537 -0.0374 -0.0320 -0.0745
52356W        W95450  33.057   8.294   0.669 -0.2884  0.2117 -0.0621
52357W        W95451  33.411   8.501   1.059 -0.0045 -0.1830 -0.0907
52358W        W95452   0.057   8.289   1.957 -0.0585  0.1469 -0.0334
52359W        W95453   0.708   9.481   4.291 -0.1916  0.0556 -0.3151
52360W        W95454   0.153   9.747   6.147 -0.2485 -0.1595 -0.1441
52361W        W95455  32.726   9.064   4.813 -0.1179  0.2497 -0.0041
52362W        W95456  32.491   8.172   5.350 -0.0776 -0.3049 -0.2514
52363W        W95457  32.981   7.526   8.048 -0.1553 -0.1269  0.0974
52364W        W95458  32.586   8.568   7.334 -0.1781 -0.0094  0.1942
52365W        W95459   0.329   9.946   7.087 -0.1829 -0.5035 -0.1859
52366W        W95460  34.319   6.502   5.756 -0.4562 -0.1680  0.0303
52367W        W95461  32.997   7.118   6.542 -0.1114  0.1728  0.1138
52368W        W95462  32.987   9.218   3.885  0.1503  0.0910  0.4801
52369W        W95463  34.164   8.090   6.328  0.1442  0.0626 -0.3890
52370W        W95464  34.517   9.095   4.744  0.1873  0.2428  0.2027
52371W        W95465   0.944   6.862   7.322 -0.2195 -0.1712 -0.0027
52372W        W95466  34.215   8.976   5.170 -0.1012  0.0023 -0.0038
52373W        W95467  33.771   7.816   2.424  0.0347  0.1891 -0.1224
52374W        W95468  33.102   7.739   5.148  0.0254 -0.0491 -0.2578
52375W        W95469  32.430   9.298   6.599  0.2273 -0.1691 -0.0528
52376W        W95470   0.711   9.981   5.465  0.1867  0.0560 -0.3370
52377W        W95471   0.362   8.788   6.090 -0.1036 -0.1553 -0.0342
52378W        W95472  33.414   8.178   4.484  0.0934 -0.2940 -0.2542
52379W        W95473  32.568  10.365   5.959 -0.1828 -0.0654  0.1288
52380W        W95474  33.701   8.575   5.502  0.0226  0.1179  0.3062
52381W        W95475  34.287  11.331   5.963  0.3963  0.1211  0.0485
52382W        W95476  32.401   9.160   5.751 -0.1045 -0.0582 -0.0439
52383W        W95477  34.203   9.889   6.810  0.0788 -0.0086 -0.0830
52384W        W95478   0.520   9.392   5.381  0.0308 -0.1489 -0.2552
52385W        W95479   0.384  10.246   5.198 -0.0707  0.1692  0.1821
52386W        W95480  34.076   7.856   8.388  0.1954 -0.0474  0.1542
52387W        W95481  33.103  10.806   5.430  0.0025 -0.1069  0.0710
52388W        W95482   0.229   9.214   4.334 -0.1486 -0.1780  0.0433
52389W        W95483  33.977   8.396   4.483  0.2473  0.0428 -0.0732
52390W        W95484  34.641   6.506   6.198 -0.0059 -0.1065 -0.0099
52391W        W95485  34.017   9.964   6.060  0.0968 -0.0425  0.0662
52392W        W95486   0.115   7.453   6.065  0.4312 -0.0597 -0.2891
52393W        W95487  32.852  11.324   6.901 -0.1284 -0.2659  0.1360
52394W        W95488  33.475   7.469   4.878 -0.0705  0.0454 -0.0260
52395W        W95489  32.256   9.827   4.698 -0.2034  0.1100  0.3237
52396W        W95490  33.498  10.366   7.641 -0.1563  0.2879 -0.0666
52397W        W95491  34.107   8.919   7.048  0.0514 -0.0262 -0.1283
52398W        W95492  33.612   6.615   3.347 -0.0746 -0.0653 -0.1125
52399W        W95493  32.463  10.042   7.191  0.2287  0.4027  0.3022
52400W        W95494   0.069   8.685   5.170  0.0327  0.0443  0.0618
52401W        W95495  33.901   7.074   3.198 -0.2457 -0.0385 -0.1743
52402W        W95496  33.616   7.632   3.406  0.1592 -0.2700 -0.1557
52403W        W95497  34.132   9.018   6.107 -0.0540 -0.0526  0.0093
52404W        W95498  33.957   9.392   8.621 -0.1595  0.1421 -0.0739
52405W        W95499  33.971   8.264   3.550 -0.3211  0.0682  0.2234
52406W        W95500  31.687   9.566   6.003  0.1965 -0.1076  0.3252
52407W        W95501  32.151  10.373   4.033  0.1066 -0.2085 -0.0121
52408W        W95502  34.607   7.617   7.221  0.0131 -0.1317  0.1753
52409W        W95503  33.736   8.949   6.577  0.1439 -0.2076 -0.0123
52410W        W95504  34.104   7.052   6.643 -0.0140  0.0059 -0.7110
52411W        W95505  33.945   8.064   5.370  0.2827 -0.1155  0.0784
52412W        W95506  32.750   7.717   5.501 -0.0683  0.1364  0.0857
52413W        W95507  32.868   7.095   3.789  0.2606 -0.0343 -0.1395
52414W        W95508   0.233   8.622   8.785 -0.0009 -0.0400  0.4076
52415W        W95509  33.844   7.596   5.163 -0.1149  0.0119  0.0459
52416W        W95510  33.861   7.258   6.301  0.1626  0.2663  0.0406
52417W        W95511   0.559   9.290   4.733 -0.0300  0.1436 -0.1610
52418W        W95512  33.466   8.111   3.630  0.2039  0.1178 -0.0997
52419W        W95513  33.044   8.300   7.579 -0.0275  0.0462  0.0080
52420W        W95514  34.086   6.853   4.441 -0.0341  0.1019 -0.0262
52421W        W95515  34.326  11.209   5.362  0.0490  0.1263 -0.0438
52422W        W95516  34.439   7.794   5.440 -0.0074  0.0717  0.3735
52423W        W95517  32.937   7.340   4.274  0.0925 -0.1532 -0.0459
52424W        W95518  33.716   7.832   6.386  0.1607 -0.1588  0.0381
52425W        W95519  32.867   8.089   2.984  0.5210  0.0651  0.0748
52426W        W95520  32.690  11.618   4.559  0.2310 -0.4988 -0.0356
52427W        W95521  33.160   9.465   4.978 -0.2033  0.1870 -0.0370
52428W        W95522   0.991  10.945   5.022 -0.0124  0.0601  0.0712
52429W        W95523  33.476   9.502   8.605 -0.0136  0.0371 -0.0361
52430W        W95524  32.507   8.181   4.862  0.3279  0.0447 -0.0493
52431W        W95525  33.196  11.099   5.994 -0.1804 -0.0556  0.3266
52432W        W95526  32.849  10.732   6.992 -0.1554  0.0645  0.5266
52433W        W95527   1.258   9.236   5.816  0.2739 -0.0854 -0.0447
52434W        W95528   0.736   9.949   6.228  0.3399  0.0588 -0.0090
52435W        W95529  32.554  10.696   6.356 -0.0283 -0.2350  0.0668
52436W        W95530   0.083   6.464   7.186 -0.0332 -0.0231  0.1047
52437W        W95531  33.542   7.642   4.293  0.2163 -0.2555 -0.0581
52438W        W95532  33.365  11.194   4.831 -0.0100  0.1012 -0.0426
52439W        W95533   0.398   7.423   8.023 -0.2206 -0.1307  0.0414
52440W        W95534  34.533   7.661   3.592  0.0444  0.2859  0.1282
52441W        W95535   0.816   7.728   7.782  0.0790 -0.1987 -0.1143
52442W        W95536  34.011   8.312   6.790  0.1811 -0.0788  0.0081
52443W        W95537  33.797  11.224   6.401 -0.1472  0.0432 -0.1856
52444W        W95538  33.021   8.458   7.110  0.1906 -0.0563  0.1349
52445W        W95539   0.837  10.207   4.990 -0.0886  0.0334  0.0121
52446W        W95540  33.879   8.552   4.930  0.3196  0.0986 -0.3292
52447W        W95541  33.709   7.662   7.361 -0.1879 -0.0039 -0.0953
52448W        W95542  34.277   9.518   6.159 -0.0085 -0.0728  0.1034
52449W        W95543   0.581   9.719   5.004  0.3000 -0.1040 -0.2349
52450W        W95544  32.685  10.492   5.447 -0.2759  0.1530 -0.1127
52451W        W95545  34.513  10.640   6.249  0.2936 -0.0144  0.1551
52452W        W95546  34.642   6.925   4.475  0.0275  0.1998  0.0205
52453W        W95547  31.682   8.479   4.327  0.1556 -0.0948 -0.1606
52454W        W95548  33.752   6.701   6.525 -0.0545  0.1468  0.0122
52455W        W95549   0.328   7.008   6.410 -0.0163 -0.0749  0.2329
52456W        W95550  33.269  11.635   5.949 -0.1825  0.1664  0.0826
52457W        W95551  33.812   7.877   6.886 -0.0184 -0.1431  0.2315
52458W        W95552  32.176   9.370   4.934 -0.2649  0.1700 -0.3680
52459W        W95553  33.598   8.355   6.521  0.0502 -0.2104  0.0933
52460W        W95554  34.361   9.500   5.080 -0.2998  0.3471  0.2739
52461W        W95555   1.216   9.780   4.303 -0.6021  0.0873  0.0378
52462W        W95556  32.672   9.545   4.910  0.1826  0.1154 -0.0843
52463W        W95557  33.075   7.994   8.813  0.3390 -0.0141  0.3767
52464W        W95558   0.023   8.254   6.200 -0.0347  0.3612 -0.0071
52465W        W95559  34.135   7.575   6.556  0.1965 -0.2077  0.1838
52466W        W95560  34.631   8.076   4.834  0.2752 -0.0286 -0.1154
52467W        W95561  34.315   7.921   6.911  0.0243 -0.2864  0.0718
52468W        W95562  32.617  10.498   7.452 -0.0525  0.0260 -0.4505
52469W        W95563  34.115   8.574   3.139  0.1263 -0.1524  0.0373
52470W        W95564  32.936  10.008   6.089  0.1253 -0.0440 -0.0199
52471W        W95565   0.110   9.515   5.694  0.1212 -0.0809  0.2045
52472W        W95566   1.058   8.626   7.608  0.0947  0.1340 -0.4172
52473W        W95567   0.320  10.047   6.540 -0.0135  0.0318 -0.3824
52474W        W95568  32.307   9.932   4.138  0.1985  0.1657 -0.3799
52475W        W95569  33.340   9.347   6.673  0.2632  0.1328 -0.0427
52476W        W95570   0.619   9.646   5.810  0.0542 -0.0772  0.0049
52477W        W95571  33.673   7.419   6.831 -0.2322  0.0741  0.0846
52478W        W95572  33.410   8.266   5.781 -0.2483  0.0741 -0.2697
52479W        W95573  33.924   9.039   7.515  0.3476 -0.0200 -0.2009
52480W        W95574  33.755   8.124   4.083  0.6316  0.0431  0.0454
52481W        W95575  32.860   9.139   6.376 -0.2027 -0.0395  0.0805
52482W        W95576  33.962   9.832   4.639  0.2567  0.1355  0.0961
52483W        W95577  33.471   8.673   7.442 -0.4465  0.1002  0.0519
52484W        W95578   1.537   9.892   5.187  0.1496  0.1461  0.0023
52485W        W95579  32.009   8.847   4.193 -0.1077  0.0881 -0.0695
52486W        W95580  34.295   8.228   7.815  0.2874 -0.3401  0.1179
52487W        W95581  33.696   7.399   8.608  0.0069  0.3100  0.1165
52488W        W95582  32.976   7.780   7.620  0.1272 -0.1306  0.0668
52489W        W95583  33.473   7.658   5.943 -0.3137  0.1994 -0.0142
52490W        W95584  32.197   8.585   4.693 -0.1567 -0.0348 -0.1415
52491W        W95585  34.491   9.758   4.384 -0.2709  0.1496  0.2597
52492W        W95586  33.668   7.159   5.840  0.1591 -0.1953 -0.1291
52493W        W95587  33.760   9.397   6.350  0.1662  0.2636 -0.2341
52494W        W95588  33.085   8.789   4.235 -0.4877  0.4413 -0.0490
52495W        W95589  34.212   8.279   4.045 -0.0385 -0.2203 -0.1040
52496W        W95590   1.076   9.571   6.588 -0.0414  0.0195  0.2060
52497W        W95591  33.995   6.239   3.302  0.2193 -0.1465 -0.1807
52498W        W95592  33.336   8.650   5.059 -0.2916 -0.2029  0.5405
52499W        W95593   0.177  10.405   7.488 -0.1270 -0.1295  0.0499
52500W        W95594   0.958  10.299   5.898  0.2294 -0.3331 -0.0139
52501W        W95595   0.229  10.063   5.742 -0.1862 -0.2541  0.1096
52502W        W95596   0.649   8.224   6.777 -0.0474 -0.0196 -0.1278
52503W        W95597  34.514   9.002   5.583  0.0127 -0.1416 -0.0489
52504W        W95598  33.700   8.683   6.038  0.0057  0.2547 -0.1933
52505W        W95599  31.519   9.390   7.329 -0.1532  0.2358 -0.0919
52506W        W95600  33.747   6.792   4.014 -0.1586  0.0422  0.2071
52507W        W95601  32.891   9.796   7.004 -0.5255 -0.1414  0.0563
52508W        W95602  34.289   8.787   7.777 -0.3329 -0.0277 -0.2303
52509W        W95603   0.231   9.719   4.205  0.0567  0.3044  0.2130
52510W        W95604  34.397   6.809   5.367  0.3734 -0.0795  0.0120
52511W        W95605  32.711  11.262   6.155  0.0273 -0.1437 -0.1696
52512W        W95606  33.450  10.258   4.650 -0.2035  0.4943 -0.2385
52513W        W95607   0.131   9.231   5.148 -0.1016 -0.0830 -0.0673
52514W        W95608   0.231   7.464   6.659  0.1572 -0.1664 -0.0651
52515W        W95609  33.897   6.090   3.868  0.2885 -0.0475 -0.1280
52516W        W95610  33.949   7.693   7.822 -0.0177 -0.0891  0.0411
52517W        W95611  33.832  11.573   5.995  0.1796  0.3111  0.1430
52518W        W95612  33.950   7.382   4.732 -0.0302 -0.2510  0.1091
52519W        W95613  33.865   7.613   5.639 -0.1100  0.2041 -0.3797
52520W        W95614  34.480   8.917   3.003  0.2860  0.1361  0.0259
52521W        W95615  33.691   9.538   5.854 -0.0374 -0.1160  0.0610
52522W        W95616  34.099  10.808   7.061 -0.0303  0.0650  0.2289
52523W        W95617  34.592  10.410   5.839  0.1044 -0.0890 -0.0482
52524W        W95618  32.859   6.827   4.340  0.0741 -0.2318 -0.1571
52525W        W95619  33.009   8.011   8.076 -0.0366 -0.0373 -0.2632
52526W        W95620  34.342   8.068   3.203  0.0710 -0.0684  0.1413
52527W        W95621  33.502   9.045   7.823  0.3006 -0.1083  0.3392
52528W        W95622  33.921   7.119   3.714  0.1847 -0.0529  0.3360
52529W        W95623  32.905   7.784   6.481  0.0013 -0.1801  0.1168
52530W        W95624  33.547   9.049   4.883  0.1300 -0.2396  0.0206
52531W        W95625  34.126   8.556   5.878 -0.2079  0.0771  0.0981
52532W        W95626  34.144   6.886   6.124 -0.1652  0.0707  0.0106
52533W        W95627   0.087   9.788   5.236 -0.0683  0.0500 -0.2851
52534W        W95628  32.996   8.390   6.569  0.0851  0.2767 -0.1540
52535W        W95629  34.631   6.530   4.138 -0.1096 -0.2220 -0.2185
52536W        W95630  34.462   8.146   5.812 -0.1630 -0.2094 -0.0382
52537W        W95631  33.337   8.983   6.257  0.0635  0.5154  0.0431
52538W        W95632   0.914   9.052   5.387 -0.1442 -0.2134  0.1126
52539W        W95633  34.383   9.426   7.011  0.0328  0.0902 -0.0603
52540W        W95634  33.229  11.379   6.460 -0.1611  0.0366 -0.1294
52541W        W95635  32.072   8.491   3.790 -0.2552  0.1461  0.0620
52542W        W95636   0.363   9.141   8.170  0.1451 -0.1206 -0.1270
52543W        W95637  33.220   9.480   6.024 -0.2996  0.0630 -0.3550
52544W        W95638  33.683  10.746   4.701  0.2474 -0.0794 -0.0425
52545W        W95639   0.337   9.074   5.683  0.0225 -0.0899  0.1656
52546W        W95640  33.367   7.445   6.358 -0.2547 -0.2138 -0.0402
52547W        W95641  33.872   8.652   7.996 -0.0740 -0.1486 -0.0351
52548W        W95642  32.545   9.209   3.443 -0.1424  0.0129 -0.1949
52549W        W95643  32.865   8.016   3.516 -0.0068 -0.0153  0.0485
52550W        W95644  33.521   9.157   5.404  0.1499  0.0470 -0.0462
52551W        W95645   0.840   5.977   8.783  0.2722  0.0171 -0.0654
52552W        W95646  33.044   8.861   7.712  0.2911 -0.5626  0.2015
52553W        W95647  32.687   8.736   6.848  0.0914  0.1229 -0.3138
52554W        W95648  33.601   7.211   5.348  0.1555  0.0376 -0.1726
52555W        W95649  34.409   7.287   6.272  0.0590  0.2312 -0.0292
52556W        W95650  32.777   7.688   6.016 -0.0918  0.0355 -0.2205
52557W        W95651  34.459   7.080   4.921 -0.1308 -0.1377 -0.1115
52558W        W95652  32.727   9.474   5.531 -0.0430  0.0292  0.2776
52559W        W95653  34.502   7.688   8.621 -0.0474  0.0170 -0.0435
52560W        W95654   0.361   7.755   8.467  0.1356  0.2272  0.1189
52561W        W95655  32.672   7.874   4.081 -0.2821  0.3499  0.3258
52562W        W95656  34.496   9.045   7.385  0.0858  0.1668 -0.0573
52563W        W95657  33.073  10.481   6.306 -0.0731 -0.4277  0.0197
52564W        W95658   0.166   8.689   7.940  0.0173  0.2604  0.0332
52565W        W95659  33.318   7.964   6.721  0.0492  0.0370  0.0886
52566W        W95660  32.948   9.257   6.935  0.0956  0.1443 -0.2470
52567W        W95661  32.886   8.914   7.266 -0.3107 -0.0143  0.2576
52568W        W95662  33.979   8.560   7.441 -0.2287  0.2156 -0.1348
52569W        W95663  33.877   6.300   6.785  0.1000 -0.0716 -0.0659
52570W        W95664  33.301   9.944   6.581 -0.2213 -0.2122  0.1091
52571W        W95665  34.177   8.840   4.456 -0.3966 -0.1384  0.4001
52572W        W95666  34.320   7.695   5.958 -0.0458  0.1946  0.0548
52573W        W95667  34.530   8.452   4.428 -0.0843 -0.1224 -0.0099
52574W        W95668   0.151   9.445   7.010 -0.3189 -0.0044 -0.4609
52575W        W95669  34.601   6.909   7.319 -0.2266  0.0579  0.1739
52576W        W95670  33.228   9.136   4.561 -0.0290 -0.0756 -0.2409
52577W        W95671  33.472   8.125   5.026 -0.0622  0.0365 -0.0930
52578W        W95672  33.562   8.291   7.082 -0.0140 -0.3886  0.2416
52579W        W95673  34.349   9.254   6.530  0.0968 -0.0915  0.0574
52580W        W95674  33.348   9.747  10.139 -0.1317 -0.1410  0.1389
52581W        W95675  32.540   7.506  10.401  0.0903  0.0579  0.0903
52582W        W95676  32.718   7.113   9.313 -0.1426 -0.1410  0.0960
52583W        W95677   0.679   8.512   9.555  0.0186  0.0498 -0.1633
52584W        W95678  33.396   6.084  10.462  0.0828  0.0137 -0.2452
52585W        W95679  32.385   6.169  10.424  0.0057  0.0222 -0.1468
52586W        W95680  32.660   9.128   8.214 -0.0476  0.2319 -0.2161
52587W        W95681  31.893   6.660  10.275 -0.0491  0.0863 -0.1279
52588W        W95682  32.800   8.350   9.827 -0.0797 -0.0925  0.0998
52589W        W95683  33.807   7.939  12.561 -0.1120  0.0918  0.1684
52590W        W95684  34.588   9.852   7.326 -0.1331 -0.0627 -0.1656
52591W        W95685  33.283   9.767   7.619  0.2688 -0.3613  0.1536
52592W        W95686  32.009   8.513  10.309  0.0473 -0.1398 -0.2694
52593W        W95687  32.337   5.357  10.164  0.0934  0.1407 -0.1425
52594W        W95688   0.172   9.334   9.130 -0.1476 -0.1294 -0.0389
52595W        W95689  33.575   9.380   9.214 -0.0121  0.0561 -0.2399
52596W        W95690  33.792   9.775   8.359  0.0103 -0.2054  0.1796
52597W        W95691  33.160  10.350   8.940  0.2788  0.2263 -0.3114
52598W        W95692  33.876   9.366   6.868 -0.2620 -0.2513  0.3099
52599W        W95693  32.065   9.423   7.491  0.0843 -0.2609  0.0365
52600W        W95694  33.935   9.305   7.886  0.0349  0.0184 -0.1351
52601W        W95695   0.575  11.277  10.095  0.2258 -0.0881 -0.0427
52602W        W95696  32.913  11.328  10.220 -0.0380 -0.0043 -0.4388
52603W        W95697  32.548   9.298   7.716  0.1683 -0.2356  0.2203
52604W        W95698  33.459   7.206   7.865  0.2354 -0.1672  0.2682
52605W        W95699  34.407   6.497   9.584  0.0960  0.0884  0.0044
52606W        W95700  32.603  11.548   9.300  0.0235 -0.1540  0.1816
52607W        W95701   0.558   9.467  10.635 -0.0771 -0.3119 -0.1402
52608W        W95702  34.174  10.049   9.111  0.1031  0.1207  0.2487
52609W        W95703  33.290   9.518   9.618  0.1624 -0.0621 -0.0489
52610W        W95704  33.674   8.625   8.422 -0.4480 -0.0238  0.2543
52611W        W95705  34.220   6.571   7.055 -0.1691 -0.3471  0.3269
52612W        W95706  33.495   8.857   9.211 -0.0365  0.3784  0.2103
52613W        W95707  33.154   7.423   8.668  0.0354 -0.1592  0.1703
52614W        W95708  33.949   8.982   8.927  0.0307 -0.2904  0.1225
52615W        W95709  33.907  10.980   9.252  0.0818 -0.0792 -0.0824
52616W        W95710  34.411  10.355   8.570  0.0279  0.2069  0.1196
52617W        W95711  32.565   9.661   9.444  0.1236  0.2909 -0.2466
52618W        W95712  32.314   9.097   8.796  0.2984 -0.1262  0.2402
52619W        W95713  34.687   4.533   9.848 -0.5582 -0.2476 -0.3601
52620W        W95714  33.956   9.093   9.543 -0.1752  0.3578  0.1757
52621W        W95715  32.976   9.844   8.656 -0.4561  0.0902  0.1027
52622W        W95716  31.725   6.074  10.360 -0.0721  0.1369  0.0351
52623W        W95717  33.518   8.143   9.127  0.4428  0.0974  0.0233
52624W        W95718  33.725   8.045   8.691 -0.0320 -0.0230 -0.1291
52625W        W95719  33.090   6.754   9.318 -0.0911  0.0694 -0.0805
52626W        W95720  34.041   7.653   8.899  0.1417 -0.0978 -0.1241
52627W        W95721  32.401  10.173   9.506 -0.3005 -0.0918 -0.1704
52628W        W95722  34.034  10.185  12.230  0.0825  0.3774  0.2163
52629W        W95723  33.173   7.728   9.495 -0.1081  0.1094  0.0227
52630W        W95724  32.822  10.960   8.372 -0.1684 -0.2005  0.0218
52631W        W95725  34.271   9.490   8.256  0.1205  0.0046  0.0726
52632W        W95726  34.002   7.389   9.441  0.0760 -0.0359 -0.1715
52633W        W95727  33.387   7.780   8.357 -0.0147 -0.0146 -0.0278
52634W        W95728  32.461   9.726   7.914 -0.1359  0.0079  0.3939
52635W        W95729  32.378   9.008   7.398 -0.0430  0.0428 -0.0711
52636W        W95730  34.304   9.717   8.663 -0.1576 -0.0047 -0.1695
52637W        W95731  31.200   7.469   9.074 -0.3135 -0.1660 -0.0976
52638W        W95732  34.565  10.822  10.372 -0.4257 -0.4057  0.1707
52639W        W95733  34.042  10.121   9.632  0.1655 -0.4190 -0.2246
52640W        W95734  34.368  10.559  12.133 -0.0355 -0.3784  0.0633
52641W        W95735   0.581   8.705  10.195 -0.1167 -0.1350 -0.1093
52642W        W95736  34.568   9.171   8.013 -0.0139 -0.2113 -0.0801
52643W        W95737  33.017  10.135   7.348 -0.0168 -0.2122  0.0951
52644W        W95738  33.322   8.241   8.372 -0.0126  0.3349  0.1595
52645W        W95739  34.323   8.620  10.131  0.0554  0.1786 -0.2675
52646W        W95740  33.247  10.761   9.227 -0.1019  0.1321  0.0034
52647W        W95741  33.263  10.556   8.098  0.2297 -0.0747  0.0418
52648W        W95742  33.425   9.494   8.079  0.2010  0.4836  0.1007
52649W        W95743  33.416   6.748  10.501 -0.0101 -0.1085  0.2170
52650W        W95744  33.312  10.894  10.358  0.0473 -0.1046  0.2098
52651W        W95745  33.291   9.567   7.110  0.0549  0.0723 -0.0105
52652W        W95746  33.784   9.766   8.980  0.0116  0.0527 -0.2791
52653W        W95747  33.793   8.764   9.865  0.2495  0.1683 -0.1725
52654W        W95748  34.619   7.980   8.238  0.1193  0.1099 -0.1871
52655W        W95749  32.249  10.545   8.297 -0.2003  0.0879  0.0882
52656W        W95750  33.102   7.491  10.122 -0.2403 -0.4719  0.1651
52657W        W95751  33.322   8.479   9.750  0.1100 -0.1452 -0.0905
52658W        W95752  33.749  10.908   9.813 -0.1262 -0.0943 -0.0774
52659W        W95753  32.827   6.539   8.387 -0.1353 -0.4865  0.2857
52660W        W95754  33.329   7.909   9.943 -0.2319 -0.2121 -0.3184
52661W        W95755  33.334   9.998   8.098 -0.0977  0.1951  0.1801
52662W        W95756  33.054   8.208   9.367 -0.1207  0.2125 -0.1933
52663W        W95757  33.500  10.044   8.719 -0.0610 -0.0093  0.1128
52664W        W95758  33.789   7.836   9.493 -0.2230 -0.0689 -0.1414
52665W        W95759  33.501   7.416   9.697 -0.1449  0.2507  0.0419
52666W        W95760  34.443   9.286   8.820 -0.2912 -0.0041  0.0828
52667W        W95761   0.993   8.399   9.998  0.1747  0.0941 -0.0230
52668W        W95762  33.686   9.085   8.272  0.1377 -0.1522 -0.2282
52669W        W95763  31.605   8.461   9.968  0.1803 -0.1097 -0.1525
52670W        W95764  32.798   7.722   8.445  0.0417 -0.1759  0.0012
52671W        W95765  31.284   8.781  10.103  0.2023  0.1239  0.0872
52672W        W95766  33.977  10.116   8.638 -0.2958  0.0690  0.1593
52673W        W95767  32.714   9.732   7.485  0.0752 -0.0284 -0.2288
52674W        W95768  33.083   9.376   9.107 -0.1515  0.1854 -0.1360
52675W        W95769  34.052   6.910   9.375  0.1436 -0.2249 -0.0318
52676W        W95770  32.516   6.579  10.714 -0.2209 -0.4324  0.1245
52677W        W95771  33.273   6.158   8.176 -0.1476 -0.0676 -0.1126
52678W        W95772  32.746   9.382  10.005  0.1828 -0.0678 -0.2666
52679W        W95773  34.338   8.765   6.642  0.1757 -0.1540 -0.1386
52680W        W95774  34.122   9.575  10.047  0.1161 -0.3660 -0.0294
52681W        W95775   0.667   8.755   8.012 -0.1745  0.3429  0.2567
52682W        W95776  32.898   9.673   8.216 -0.0840 -0.1509 -0.1585
52683W        W95777   0.159   8.973  10.044 -0.1872  0.1431  0.1501
52684W        W95778  33.948   6.844   8.220  0.2562 -0.1654 -0.0718
52685W        W95779   0.215   9.167   6.520 -0.3683  0.0168 -0.1663
52686W        W95780  31.846   6.769   9.371 -0.2300  0.1715  0.2231
52687W        W95781  33.294   7.889   7.215 -0.1272  0.0309  0.0376
52688W        W95782  34.248   9.998   8.109 -0.0349  0.0102  0.0428
52689W        W95783  33.449   8.923   8.721 -0.0111  0.3375  0.1666
52690W        W95784   0.914   6.578   9.787 -0.4049  0.0820  0.0177
52691W        W95785  33.059  10.288   8.424  0.1215  0.2301 -0.1654
52692W        W95786  33.617  10.083   9.274  0.3760 -0.3912 -0.3325
52693W        W95787  34.485  10.372   9.563  0.0209 -0.1319 -0.0251
52694W        W95788   0.227   8.422   9.883 -0.0201 -0.0762  0.2326
52695W        W95789  32.792   9.177   9.444  0.0179 -0.1819  0.1202
52696W        W95790   0.280   8.817   9.557  0.1371 -0.0375  0.1309
52697W        W95791  33.672   6.777   8.901  0.1396 -0.0691 -0.0572
52698W        W95792   1.054  10.553  12.310 -0.0571  0.0417  0.2266
52699W        W95793  33.738   9.812   7.799 -0.1290  0.0319  0.1906
52700W        W95794  32.878   6.450   8.894 -0.0873 -0.2425  0.0609
52701W        W95795  34.063  10.571   9.380 -0.3330 -0.2855  0.2143
52702W        W95796  33.820  10.245   8.126 -0.1333  0.0454 -0.1712
52703W        W95797  33.566  10.456   9.589  0.3523 -0.1386 -0.0060
52704W        W95798   0.665   8.438   9.084 -0.2205 -0.1426  0.1272
52705W        W95799   0.960   6.505   8.392 -0.1734 -0.2072  0.4013
52706W        W95800  32.588   7.381   9.804  0.2581 -0.1041 -0.2555
52707W        W95801  32.447   7.942   8.729 -0.0729 -0.2509 -0.1014
52708W        W95802  34.002   8.568   6.359 -0.4180  0.0285 -0.2240
52709W        W95803  34.640  11.251   7.522 -0.1278  0.1421 -0.3147
52710W        W95804  34.181   9.471   9.195 -0.3216  0.1253  0.0698
52711W        W95805   0.038  10.697   8.768 -0.2491  0.1022  0.0621
52712W        W95806  32.427   7.237   7.865  0.0525  0.0384 -0.2636
52713W        W95807  33.146   8.318  10.286  0.0955 -0.2215  0.0582
52714W        W95808  33.406   8.566   7.908  0.1342  0.2599  0.1150
52715W        W95809  33.643   7.607  10.164  0.1663  0.3146 -0.1744
52716W        W95810  33.410   6.047   8.627  0.0893 -0.0296 -0.5152
52717W        W95811  33.331   8.467   8.799 -0.4098 -0.0074 -0.0358
52718W        W95812  32.020  10.481  10.208  0.0898 -0.3642 -0.1238
52719W        W95813  32.084   6.551   8.899 -0.1062 -0.2510  0.0555
52720W        W95814   0.108   9.378   7.620  0.0138 -0.3208 -0.1948
52721W        W95815  32.984   9.855   9.761  0.1029 -0.2625  0.1010
52722W        W95816  33.192   7.289   9.212  0.1133 -0.2390 -0.2683
52723W        W95817  32.350   8.782   9.454  0.2611  0.4144  0.3739
52724W        W95818  32.873  10.100   7.808  0.2937  0.0058  0.1894
52725W        W95819  34.331   9.553   7.673 -0.2649  0.2430  0.0721
52726W        W95820  32.532   8.520  10.328  0.1314  0.0057 -0.0035
52727W        W95821  33.020   9.340   7.869 -0.1048 -0.2913  0.2421
52728W        W95822  34.692   9.778   7.998  0.1084 -0.3801  0.2649
52729W        W95823  34.074  10.147   7.641  0.1607 -0.0668 -0.1142
52730W        W95824   1.592   5.997  10.223  0.0503  0.0639 -0.0928
52731W        W95825  34.377   7.133   9.651 -0.1493 -0.3083 -0.1104
52732W        W95826  33.712   8.463   9.465  0.2238 -0.0108 -0.2498
52733W        W95827  32.665   7.378   8.847  0.1555  0.2474  0.0656
52734W        W95828  34.110   8.368   8.300  0.0830  0.0508 -0.1378
52735W        W95829   1.104  10.521  10.076  0.3922  0.1149 -0.3010
52736W        W95830  32.231   9.311   9.264 -0.2565  0.0640 -0.4376
52737W        W95831  32.910   6.256  10.475  0.1433 -0.2081 -0.1616
52738W        W95832  32.072   7.976   9.703 -0.0416  0.1480  0.1198
52739W        W95833  32.414   9.810   9.927 -0.2384 -0.1328  0.2187
52740W        W95834  33.028   7.138   9.737 -0.2474  0.0104 -0.1621
52741W        W95835  32.459   9.791   6.720  0.0436 -0.0439 -0.0688
52742W        W95836  33.113   7.095   8.215 -0.4045  0.1152  0.3000
52743W        W95837   0.515   9.764   9.183  0.0857  0.2322  0.1490
52744W        W95838  33.917   6.595  10.342  0.1086 -0.2359  0.0229
52745W        W95839  34.218   6.484   9.091  0.0218 -0.0813  0.0773
52746W        W95840   0.212  10.456   9.995 -0.0258  0.0479  0.1707
52747W        W95841  33.461   7.700   8.934 -0.0044  0.1242 -0.0284
52748W        W95842  33.731   8.123   8.099  0.0255 -0.0620 -0.1616
52749W        W95843  33.837  11.547  12.193  0.0502 -0.2691  0.0651
52750W        W95844  34.194   8.722   9.285 -0.1715  0.3401  0.2401
52751W        W95845  32.458   8.275   9.397 -0.1761  0.2805  0.3114
52752W        W95846  33.833   8.502   8.956  0.1249 -0.1224 -0.0170
52753W        W95847  32.299   8.398   9.895 -0.0286 -0.0876  0.0999
52754W        W95848  34.455  10.865   9.698  0.3427 -0.1105  0.1221
52755W        W95849  32.337  13.979   2.697 -0.2663 -0.1044  0.3925
52756W        W95850  33.320  11.642  31.952  0.1063  0.0465 -0.0684
52757W        W95851  32.726  12.234   0.101 -0.0796 -0.3972 -0.2276
52758W        W95852  34.346  10.136   3.545  0.2672  0.0354 -0.0267
52759W        W95853  33.336  11.480   2.462  0.1166  0.2154 -0.1575
52760W        W95854  33.589  14.156   3.660  0.1381  0.3904  0.0069
52761W        W95855  32.030  10.981  31.899 -0.3462  0.2763 -0.2178
52762W        W95856  33.086  11.314   2.933  0.1021  0.0663 -0.0842
52763W        W95857  34.139  13.035   0.134  0.1038  0.0152  0.1672
52764W        W95858  33.598  11.123   2.146  0.1853 -0.2199  0.4482
52765W        W95859  34.239  12.393   0.538 -0.0202 -0.1017  0.3080
52766W        W95860  34.547  10.348   5.318  0.0608  0.2294  0.2018
52767W        W95861  34.187  14.135  31.685 -0.1005  0.0261 -0.2988
52768W        W95862   0.341  13.737  31.289  0.0828  0.2527 -0.1784
52769W        W95863  33.072  11.905   1.774  0.1475  0.3216 -0.2094
52770W        W95864  33.832  11.738   0.700 -0.1851  0.1045 -0.2571
52771W        W95865  33.597  13.896   1.809  0.1983 -0.1737  0.0726
52772W        W95866   1.996  14.577   1.635  0.0083  0.0067 -0.1248
52773W        W95867  33.042  12.582   0.977  0.1790 -0.1929 -0.3059
52774W        W95868  32.315  14.222   1.728 -0.2211  0.2535  0.2424
52775W        W95869  34.533  13.454   1.548  0.0523  0.1261 -0.0493
52776W        W95870  31.517  14.828   2.093  0.1702 -0.2258  0.1702
52777W        W95871  33.381  12.076   0.816 -0.0108 -0.1000 -0.0361
52778W        W95872  32.994  12.982   4.720  0.3832 -0.0949  0.1148
52779W        W95873  33.973  12.403   1.819  0.0434  0.0517 -0.1256
52780W        W95874  34.210  12.839   2.759  0.1111 -0.2548  0.1382
52781W        W95875  33.783  12.821   3.815  0.0503  0.2652 -0.3277
52782W        W95876  34.088  12.595   1.305  0.1541  0.0924  0.0926
52783W        W95877  33.732  14.727   0.926  0.0953 -0.0445 -0.0578
52784W        W95878  33.326  10.330  31.630  0.1181 -0.0122  0.2269
52785W        W95879  34.213  11.439   4.009 -0.1994  0.1901 -0.0480
52786W        W95880  32.792  13.717   2.515 -0.1137 -0.1335  0.2476
52787W        W95881   0.518  10.533   2.418  0.0299 -0.1431  0.2270
52788W        W95882  31.746  14.712   2.919 -0.0575  0.3087  0.1288
52789W        W95883  33.776  12.202   0.473  0.4063 -0.2945 -0.0866
52790W        W95884  33.075  12.864  31.785 -0.0076 -0.0110 -0.1771
52791W        W95885  32.232  12.060   2.804 -0.3737 -0.0785  0.2197
52792W        W95886  33.357  13.172   3.497  0.1950 -0.0118 -0.2069
52793W        W95887  33.201  12.172  31.760 -0.1713  0.2133 -0.3905
52794W        W95888  32.321  12.945   3.887  0.2216  0.3583 -0.1303
52795W        W95889  33.772  12.769   2.485 -0.1242  0.0427  0.1885
52796W        W95890  34.206  13.369  31.348  0.1962  0.0975 -0.0372
52797W        W95891  34.658  12.179   1.572  0.0311  0.1037 -0.1470
52798W        W95892  33.474  13.452   3.104  0.1792  0.1901 -0.1277
52799W        W95893  33.816  10.322   4.345  0.1082  0.1138 -0.0477
52800W        W95894  33.832  13.082   4.269  0.3911 -0.2777 -0.0681
52801W        W95895   0.161  14.158  31.460 -0.0913 -0.0428  0.2281
52802W        W95896  33.047  13.520   1.524  0.2444  0.0578 -0.0941
52803W        W95897  33.037  14.946   1.765  0.0875  0.0872 -0.2966
52804W        W95898  33.232  12.252   3.154 -0.2837  0.1017 -0.0468
52805W        W95899  33.777  13.835   1.298 -0.1226 -0.2331 -0.0775
52806W        W95900  34.125  10.008   3.997  0.5749 -0.0852  0.2055
52807W        W95901  33.634  12.508   1.024  0.1057  0.2987  0.0990
52808W        W95902  32.435  13.250   1.772 -0.0251 -0.0825  0.0460
52809W        W95903  32.735  12.474   0.601  0.1394  0.0672  0.2227
52810W        W95904  33.187  11.665   3.941  0.0596 -0.0057  0.1631
52811W        W95905  32.534  10.919   1.872  0.1041 -0.0327 -0.1291
52812W        W95906  31.759  11.303   0.811  0.3115 -0.1848  0.0714
52813W        W95907  34.681  12.972   2.526  0.0698 -0.1706  0.2418
52814W        W95908  33.351  13.103   1.803 -0.0227 -0.1462 -0.2953
52815W        W95909  33.811  12.051   3.196 -0.1766  0.1922 -0.4461
52816W        W95910  33.004  12.690   0.256  0.0962  0.2256  0.2207
52817W        W95911  33.810  13.702   2.219  0.1243  0.0495 -0.5038
52818W        W95912  33.960  11.567   2.324 -0.3725 -0.0023 -0.2147
52819W        W95913   0.463  11.867   0.267  0.0308 -0.1854  0.1105
52820W        W95914  32.404  12.544   2.509  0.1368 -0.1950 -0.0943
52821W        W95915  34.011  11.643  31.675  0.0123 -0.1211 -0.0912
52822W        W95916  33.455  13.387   0.686  0.1345 -0.1307 -0.0966
52823W        W95917  32.313  11.943   0.022  0.0746 -0.1817  0.0546
52824W        W95918   0.966  15.009   0.930 -0.0058  0.1791 -0.2740
52825W        W95919  31.694  12.801   4.913  0.1566 -0.0642 -0.0933
52826W        W95920  32.601  11.690  31.170 -0.0052 -0.0653  0.0485
52827W        W95921  34.309  13.576   2.151  0.2110  0.2333 -0.0261
52828W        W95922  34.065  12.356   2.603  0.1555 -0.0247 -0.2367
52829W        W95923  34.588  12.402   2.551  0.2651 -0.1763 -0.2143
52830W        W95924  34.295  13.180   3.085  0.2596 -0.0215 -0.0524
52831W        W95925  32.903  13.431   3.435 -0.1758  0.1365 -0.1907
52832W        W95926   1.670  11.706   3.214  0.0250  0.1348  0.1229
52833W        W95927  33.755  13.082   1.040  0.2901  0.0262 -0.1024
52834W        W95928  32.051  14.400   0.012  0.3013  0.0415 -0.0985
52835W        W95929   0.457   8.879   3.931  0.1559  0.0343  0.2601
52836W        W95930  32.184  12.904   0.891  0.1914  0.1399 -0.0742
52837W        W95931  34.497  10.802   3.367 -0.3281 -0.1197  0.0330
52838W        W95932  33.148  13.368   2.763  0.0991  0.0725 -0.1655
52839W        W95933  32.371  14.728   2.277 -0.0045 -0.0678 -0.0186
52840W        W95934   0.243  10.041   4.722 -0.0263 -0.0324 -0.1184
52841W        W95935  33.824  12.753   0.435  0.1693 -0.2178 -0.1272
52842W        W95936  33.502  13.733  31.026 -0.0338  0.1747  0.1676
52843W        W95937   0.139  10.606   2.767  0.1408  0.1385  0.0333
52844W        W95938  34.027  13.165   2.283  0.1389  0.1265 -0.1357
52845W        W95939  33.462  13.587   0.175 -0.1138  0.2629  0.0930
52846W        W95940  32.764  14.220   0.666 -0.2530  0.0530 -0.1104
52847W        W95941  34.469  13.088   2.049 -0.1854 -0.4252  0.0138
52848W        W95942  34.143  11.199   1.293  0.1249  0.2748 -0.1053
52849W        W95943  32.027  12.158  30.985 -0.1182 -0.2745 -0.4983
52850W        W95944  33.762  10.215   2.359 -0.0195 -0.1518 -0.0399
52851W        W95945  34.175  11.117   2.206  0.2591  0.0315  0.2391
52852W        W95946  33.571  13.787   2.748 -0.3093  0.1754  0.2355
52853W        W95947  33.826  11.839   2.735  0.0929 -0.1959  0.0005
52854W        W95948  32.457  13.396  31.209 -0.2724 -0.0681  0.1647
52855W        W95949  33.819  11.234   0.597  0.0068  0.2211 -0.1338
52856W        W95950  33.722  13.352   1.871 -0.0643 -0.1938 -0.1799
52857W        W95951   0.152  11.915   0.728 -0.0307  0.3084 -0.2468
52858W        W95952  32.618  13.756   1.724  0.0784 -0.0190 -0.0564
52859W        W95953  34.100   9.920   2.554 -0.2705  0.2662  0.1337
52860W        W95954  33.979  10.662   2.338 -0.1231 -0.1972 -0.1122
52861W        W95955  33.818  12.201   1.370 -0.1168 -0.0336 -0.2238
52862W        W95956   0.096  10.761   1.641 -0.0216  0.2954  0.2560
52863W        W95957  34.397  11.817   2.518  0.1391 -0.3572  0.1231
52864W        W95958  32.112  13.668   3.086  0.2887 -0.1464 -0.0910
52865W        W95959  33.402  13.202  30.859  0.0283 -0.2009  0.0496
52866W        W95960  32.314  13.091   1.301 -0.5466 -0.0386  0.2412
52867W        W95961  33.906  13.510   0.932  0.0445 -0.2197 -0.2621
52868W        W95962   0.120  11.544   2.942  0.0530 -0.0108 -0.2276
52869W        W95963  32.795  13.154   3.042 -0.1812  0.0411 -0.1673
52870W        W95964  33.476  13.462   1.242  0.1807 -0.0141 -0.1299
52871W        W95965  34.193  14.143   3.044 -0.3101  0.0643 -0.1694
52872W        W95966   0.278  10.971   2.413  0.0724  0.1645  0.0474
52873W        W95967  33.545  10.921   3.048 -0.0677 -0.0236  0.0678
52874W        W95968  34.679  11.072   2.867  0.1251 -0.3602 -0.1809
52875W        W95969  33.562  12.973   4.754 -0.1142 -0.3839  0.2964
52876W        W95970  32.886  11.760   0.378  0.4057  0.2840 -0.1786
52877W        W95971  34.243  12.033   3.539  0.1056 -0.1449  0.0072
52878W        W95972   0.312  14.014   0.235  0.1808  0.2587 -0.1147
52879W        W95973  32.887  12.311   2.197  0.3923  0.0306 -0.2591
52880W        W95974  34.294  13.744   0.069  0.0754  0.0758 -0.5360
52881W        W95975  32.358  13.518   2.652  0.1292  0.0137  0.1221
52882W        W95976  33.527   9.880   4.982  0.1885  0.1508  0.1183
52883W        W95977  33.736  11.324   3.941 -0.0609  0.1861  0.0248
52884W        W95978  32.361  12.163   3.977 -0.1758 -0.0655  0.0501
52885W        W95979  33.638  10.489   0.899 -0.0042  0.1352  0.0936
52886W        W95980  32.757  13.638  30.340  0.0139  0.3777  0.0295
52887W        W95981  33.802  14.474  31.720 -0.0429 -0.0678 -0.1335
52888W        W95982  31.647  11.641   2.175 -0.0201 -0.1475  0.3272
52889W        W95983  32.781  15.175   4.159 -0.2548 -0.0905  0.1564
52890W        W95984  33.544  12.578   0.066 -0.0914  0.3552  0.6001
52891W        W95985  34.295  13.784   1.267  0.0041 -0.1712 -0.1262
52892W        W95986  33.673  12.353   2.192 -0.1474 -0.1155 -0.0282
52893W        W95987   1.172  10.770   1.061  0.2767  0.0005  0.1786
52894W        W95988  32.633  12.415  31.093  0.0657 -0.0351 -0.1724
52895W        W95989  34.271  14.266   4.364 -0.3384  0.0162  0.2193
52896W        W95990  32.862  13.374   2.063 -0.1031 -0.1405 -0.0241
52897W        W95991  34.201  14.090   2.061 -0.0532  0.1049 -0.0602
52898W        W95992  34.216  12.675   2.190  0.0262 -0.4739 -0.1118
52899W        W95993  33.296  11.542   1.453  0.0338 -0.1358  0.0733
52900W        W95994  34.495  12.630   1.661  0.0754 -0.1591 -0.0859
52901W        W95995  34.050  12.176   4.528  0.3731  0.0328  0.2379
52902W        W95996  33.006  11.376   3.430 -0.2617 -0.2768 -0.2955
52903W        W95997  33.753  13.055   3.180 -0.1747 -0.0329 -0.1193
52904W        W95998  32.343  13.709   2.170  0.1028 -0.0291  0.0122
52905W        W95999  32.476  14.710   0.775  0.0668  0.1557  0.0110
52906W        W96000   0.730  10.568   1.144 -0.2908  0.2017 -0.1150
52907W        W96001  33.263  13.957   1.357  0.1315 -0.1603 -0.1291
52908W        W96002  32.444  13.537  31.686  0.0315  0.1240 -0.1843
52909W        W96003  33.914  15.178   1.382 -0.0158 -0.3281  0.1495
52910W        W96004  33.702  11.383   2.979  0.1553  0.0179  0.1300
52911W        W96005  34.675  11.222   1.839  0.1519 -0.0398 -0.0263
52912W        W96006  33.395  12.826   2.846 -0.0843 -0.0158 -0.3534
52913W        W96007  32.113  15.118   1.717  0.0614 -0.1518  0.2497
52914W        W96008  32.470  11.998   0.587 -0.0295  0.2284  0.0106
52915W        W96009   0.807  12.401   2.307 -0.2642  0.1308 -0.4969
52916W        W96010  34.123  12.980  30.861  0.0083  0.0684 -0.0579
52917W        W96011  33.782  14.307   1.403  0.0591  0.1840  0.2170
52918W        W96012  34.100  12.921   1.697 -0.0577 -0.3451  0.0500
52919W        W96013   0.519  13.816   2.373  0.0091 -0.3224  0.0506
52920W        W96014  33.838  11.573   0.233  0.2570 -0.0788 -0.0304
52921W        W96015  33.490  11.334   3.493 -0.1728  0.2034  0.0139
52922W        W96016  33.774  11.709   1.428  0.2218  0.1430  0.1462
52923W        W96017  33.445  12.228   2.691 -0.0442  0.0225  0.1786
52924W        W96018  34.494  13.416   0.997  0.3305  0.0793  0.2273
52925W        W96019  34.072   9.550   2.041  0.2038 -0.0216 -0.4809
52926W        W96020  33.375  11.557   0.476  0.2021  0.2990 -0.3885
52927W        W96021  33.664  12.654   1.527  0.0207 -0.1077 -0.1194
52928W        W96022  33.021  11.093   0.516 -0.1695 -0.2472 -0.1078
52929W        W96023  33.619  14.414   0.193 -0.0208 -0.1246  0.0012
52930W        W96024  33.045  10.970   2.129  0.2716 -0.1515 -0.1715
52931W        W96025  34.694  10.551   1.170  0.0145 -0.0181 -0.1509
52932W        W96026  33.346  12.471   0.532  0.3786  0.0780 -0.1011
52933W        W96027  32.492  12.899   0.498  0.0330 -0.0469  0.0627
52934W        W96028  33.492  15.817  30.889 -0.2737 -0.0390  0.0253
52935W        W96029  33.684  13.944   3.228  0.1911  0.2244 -0.1300
52936W        W96030  34.216  15.322   4.200  0.1422  0.0394  0.0416
52937W        W96031  33.006  13.753  31.913 -0.0077  0.3378  0.0008
52938W        W96032  34.479  10.839   2.491 -0.2095 -0.1452  0.0038
52939W        W96033   0.007  14.866   0.910 -0.0021  0.0229 -0.2755
52940W        W96034  34.521  14.660   1.404  0.1401  0.4644  0.0802
52941W        W96035  34.256  11.936   1.561 -0.1679 -0.0009  0.0365
52942W        W96036  33.515  11.080   0.188  0.0775  0.1315 -0.1522
52943W        W96037  33.262  13.092   2.342 -0.0579 -0.0205 -0.0547
52944W        W96038  33.076  12.557   1.486  0.3024  0.0879 -0.1413
52945W        W96039  32.807  13.975   1.125  0.2522  0.0993  0.0515
52946W        W96040  34.445  12.147   2.070  0.2188 -0.0910  0.1003
52947W        W96041   1.173  11.312   2.466 -0.2914  0.0859 -0.1054
52948W        W96042  34.264  10.498   3.850 -0.0155 -0.1177 -0.4166
52949W        W96043  33.342  12.046   1.356 -0.1760  0.1612 -0.0242
52950W        W96044  34.212  11.578   0.981 -0.1934  0.0168  0.1943
52951W        W96045   0.577  10.192   2.772 -0.1700  0.0590  0.0119
52952W        W96046  32.109  11.487   1.949 -0.1593  0.0695  0.3796
52953W        W96047   0.527  11.102   2.822  0.4038  0.0216  0.2447
52954W        W96048  34.473  14.028  31.068 -0.2150 -0.2166 -0.0612
52955W        W96049   0.076  12.643   2.086  0.4490 -0.0412 -0.1579
52956W        W96050   0.074  11.138   3.692  0.0659  0.2836 -0.1651
52957W        W96051  34.093  11.016   0.152  0.2477 -0.1741  0.1272
52958W        W96052  33.579  11.570   1.883  0.1906 -0.0781  0.2737
52959W        W96053  32.863  13.962   3.592 -0.3529 -0.0898  0.1977
52960W        W96054  34.569  13.887   2.845  0.4201  0.0353 -0.1748
52961W        W96055  33.343  10.568   4.317  0.0915 -0.0287 -0.2139
52962W        W96056  33.442  12.686   3.387  0.0712  0.2292  0.2517
52963W        W96057  33.575   9.501   4.600  0.1105 -0.0670 -0.3414
52964W        W96058  31.927  12.682   2.480 -0.1664 -0.0174  0.0723
52965W        W96059  34.421  10.823   1.912 -0.0909  0.0119 -0.3863
52966W        W96060  32.554  12.639   1.254  0.1980 -0.0245  0.1075
52967W        W96061  34.521  11.526   1.459 -0.1280 -0.4306  0.2427
52968W        W96062   0.517  11.795   2.633 -0.0949  0.1093  0.0057
52969W        W96063  34.012  13.403  31.808 -0.0403 -0.1293 -0.2324
52970W        W96064   0.803  13.732   1.653  0.0769  0.0618 -0.4025
52971W        W96065  33.116  10.699   2.929  0.1590 -0.1252 -0.1612
52972W        W96066  33.723  12.870   2.007 -0.1256 -0.2037  0.1203
52973W        W96067  33.918  11.921   1.912 -0.3663 -0.2934  0.1864
52974W        W96068  33.460  11.888   2.258 -0.0576 -0.1152 -0.1038
52975W        W96069  33.857  14.433   3.274  0.2033 -0.2801 -0.0121
52976W        W96070   0.998  12.768   7.654 -0.1692 -0.2600  0.0815
52977W        W96071  33.325  12.530   4.646 -0.0161  0.0237  0.2526
52978W        W96072  32.325  11.433   6.980 -0.2352 -0.0586 -0.3580
52979W        W96073  33.666   9.493   7.436 -0.0225 -0.0753 -0.1637
52980W        W96074  33.581  10.009   7.328 -0.5085  0.1379 -0.0558
52981W        W96075   0.686  13.541   7.943 -0.3637  0.0197  0.1526
52982W        W96076  34.604  10.448   4.809  0.1596 -0.1307  0.0596
52983W        W96077  31.942  10.712   5.715 -0.2865 -0.1003  0.0208
52984W        W96078  32.594  13.406   4.744 -0.0758  0.0106 -0.0555
52985W        W96079  33.717  11.826   6.891  0.0666 -0.2036  0.1401
52986W        W96080   0.371  11.519   3.870 -0.1917 -0.2135  0.0458
52987W        W96081  33.063  11.788   6.874  0.0028 -0.1673  0.2210
52988W        W96082  33.385  14.320   3.179 -0.1663  0.3652 -0.1243
52989W        W96083  33.823  12.361   3.597  0.0538  0.1613 -0.1557
52990W        W96084  31.270  13.004   6.428  0.0721 -0.0060 -0.1994
52991W        W96085  34.321  11.989   7.412 -0.0302 -0.3522 -0.3305
52992W        W96086   0.041  12.998   5.555 -0.1954 -0.0026 -0.0737
52993W        W96087   0.289  13.531   5.622  0.1179 -0.3838  0.0264
52994W        W96088  32.651  14.372   6.353 -0.1439 -0.0383 -0.2662
52995W        W96089  32.094  13.445   4.815  0.5945  0.0907 -0.0409
52996W        W96090   0.405  14.113   6.188 -0.1543  0.2270 -0.0970
52997W        W96091  34.260  15.296   7.769 -0.1224 -0.1033  0.2136
52998W        W96092  32.409  13.993   4.825 -0.3301  0.0340  0.2815
52999W        W96093  31.907  13.662   7.792 -0.1607 -0.0987  0.0492
53000W        W96094  33.272  13.426   4.642 -0.5288 -0.0852  0.3033
53001W        W96095  34.221  12.802   6.533  0.1085 -0.0146  0.1536
53002W        W96096   0.752  12.203   7.120 -0.0579 -0.1755 -0.1430
53003W        W96097  32.961  13.280   6.229  0.0706 -0.0629 -0.1613
53004W        W96098  33.821  12.595   4.502  0.1784 -0.2195  0.2259
53005W        W96099   0.330  10.688   3.320  0.0401 -0.0993  0.1697
53006W        W96100  34.159  10.687   4.545  0.0954 -0.3320 -0.1035
53007W        W96101  32.515  13.484   6.032  0.1402 -0.1749  0.2967
53008W        W96102  33.948  10.618   6.151 -0.0013 -0.0278 -0.0941
53009W        W96103  33.085  14.237   6.158 -0.0327 -0.0797 -0.1231
53010W        W96104  33.743  12.941   6.227 -0.0581 -0.4287  0.1866
53011W        W96105  32.733  13.095   5.117 -0.0873  0.3594 -0.1093
53012W        W96106  33.317  12.939   7.689 -0.0717  0.0156  0.0890
53013W        W96107  32.460  11.785   7.547  0.0677  0.0839  0.0604
53014W        W96108  33.077   9.893   4.708 -0.2551  0.0015  0.1934
53015W        W96109  32.391  13.794   6.496 -0.1816  0.3350  0.2761
53016W        W96110  34.400  12.655   5.420 -0.0981  0.0718 -0.1311
53017W        W96111  34.485  11.974   4.674  0.1528  0.1710 -0.3678
53018W        W96112  34.166  12.530   3.960  0.1457  0.1151  0.2120
53019W        W96113  34.618  15.037   6.567 -0.0732  0.3417  0.1182
53020W        W96114  34.230  10.868   6.578 -0.0335  0.5954 -0.2288
53021W        W96115   0.225  13.514   6.316  0.0553  0.3045  0.0211
53022W        W96116  33.166  14.592   4.860  0.0731 -0.1874 -0.0591
53023W        W96117  32.193  12.988   7.282  0.1783 -0.3034 -0.0354
53024W        W96118  32.182  12.957   4.882  0.0032  0.3866  0.1641
53025W        W96119  33.067  12.347   6.251 -0.5324 -0.0327  0.1365
53026W        W96120  33.533  13.374   6.324  0.1069  0.0735 -0.0886
53027W        W96121  33.337  11.382   7.023  0.2252 -0.1562 -0.0721
53028W        W96122  32.891  12.276   5.724  0.3097  0.0745 -0.1378
53029W        W96123  31.084  12.468   6.335  0.0015 -0.0967  0.0360
53030W        W96124  33.064  11.804   5.473  0.0900  0.0947  0.0693
53031W        W96125  33.423  10.439   6.721  0.0920  0.2960  0.2125
53032W        W96126  33.721  11.567   4.854 -0.4373  0.2240 -0.2615
53033W        W96127  34.041   9.244   4.699  0.1037  0.1250 -0.5148
53034W        W96128  34.435  12.185   5.237  0.2063  0.0403  0.1026
53035W        W96129  32.259  12.670   5.827 -0.1003  0.0202  0.3285
53036W        W96130  33.804  11.570   7.363  0.1592 -0.1146  0.2328
53037W        W96131  33.834  12.082   6.028 -0.0987  0.0092 -0.2640
53038W        W96132  33.895  15.112   7.216  0.0301 -0.1457  0.2815
53039W        W96133   0.088  14.261   5.668  0.3616 -0.2192  0.0783
53040W        W96134  33.826  12.905   5.705  0.2018 -0.1456  0.0194
53041W        W96135  33.607  12.399   6.370  0.0719  0.1512 -0.1150
53042W        W96136  33.825  10.797   4.052  0.0110  0.0145  0.0208
53043W        W96137  32.479  14.085   3.182  0.2456  0.1248 -0.1931
53044W        W96138  32.835  12.430   6.703 -0.2065 -0.3370  0.2473
53045W        W96139   0.025  13.857   5.989  0.0709  0.1430 -0.2764
53046W        W96140  32.706  13.566   8.128  0.0833 -0.1075  0.0073
53047W        W96141  32.382  11.465   5.823 -0.1283  0.0084  0.1861
53048W        W96142  34.295  13.685   6.857  0.2208 -0.0263 -0.0931
53049W        W96143  33.706  12.837   7.277 -0.0140 -0.0744 -0.1168
53050W        W96144  32.619  13.018   5.669 -0.0230 -0.3817  0.1119
53051W        W96145   0.074  11.469   4.762 -0.2662  0.0322  0.1031
53052W        W96146  33.087  12.736   7.005 -0.1117  0.1865  0.0629
53053W        W96147  33.173   8.850   6.815  0.2717 -0.0214  0.1219
53054W        W96148  34.283  12.977   3.958 -0.0486  0.1834 -0.0636
53055W        W96149  33.695  15.467   5.109  0.0045 -0.0900  0.1198
53056W        W96150   1.400  11.210   5.952  0.1272  0.0428 -0.0531
53057W        W96151  32.949  12.358   5.009  0.0615  0.0733 -0.2589
53058W        W96152  34.252  11.824   6.102  0.2251 -0.1569 -0.1070
53059W        W96153  32.828  11.510   7.771  0.0326 -0.3498 -0.3117
53060W        W96154  33.395  13.903   6.957  0.3859 -0.3325  0.0867
53061W        W96155  34.195  10.409   6.722 -0.0002  0.3822 -0.0325
53062W        W96156  33.958  15.067   5.219  0.1351  0.2601 -0.1423
53063W        W96157  33.335  13.327   5.092  0.1695  0.3079 -0.1183
53064W        W96158  33.624  11.803   5.574 -0.0341  0.0822 -0.0233
53065W        W96159  34.143  13.268   6.662  0.0608 -0.1698 -0.2467
53066W        W96160  33.660  13.301   2.577 -0.1494  0.0383  0.1955
53067W        W96161  32.789  12.972   4.170 -0.0116  0.0480  0.1419
53068W        W96162  33.188  13.268   6.718 -0.0557  0.0042  0.1780
53069W        W96163  33.798  12.211   4.108 -0.0198  0.0018 -0.0580
53070W        W96164  32.539  13.707   7.063 -0.0376 -0.0633 -0.0860
53071W        W96165  34.398  11.230   7.016  0.1491  0.1372  0.2939
53072W        W96166   0.439  11.051   5.498  0.2245 -0.3385  0.4666
53073W        W96167  33.353  12.810   6.445  0.3118  0.1075 -0.0923
53074W        W96168   0.133  12.250   7.750 -0.1692 -0.1942 -0.0021
53075W        W96169  33.957  11.177   4.450 -0.0287 -0.0030 -0.0844
53076W        W96170  33.859  11.352   5.469 -0.0161  0.0566  0.0519
53077W        W96171  33.568  13.672   5.937 -0.0533  0.0229 -0.0415
53078W        W96172  33.845  12.334   5.483 -0.0318  0.0690 -0.2000
53079W        W96173  33.325  14.659   5.941 -0.2138 -0.0743 -0.0721
53080W        W96174   0.521  11.999   7.936  0.1750 -0.1809 -0.1297
53081W        W96175   0.169  12.532   5.281  0.1877  0.0293  0.1574
53082W        W96176  34.276  10.777   5.092  0.0091 -0.2688  0.1328
53083W        W96177  33.903  11.959   5.098  0.1698  0.1525  0.2003
53084W        W96178  34.428  12.334   6.905 -0.0267 -0.1550 -0.0602
53085W        W96179  33.038  14.161   8.678  0.2769  0.2522  0.1356
53086W        W96180  32.134  13.178   5.612 -0.2596 -0.0070 -0.1217
53087W        W96181  32.781  12.863   6.526  0.0453 -0.4383 -0.2072
53088W        W96182  33.666  14.198   4.792 -0.1371 -0.2493  0.1450
53089W        W96183  34.200  11.707   7.026 -0.0519 -0.1063  0.0871
53090W        W96184  31.850  12.984   5.958  0.0319 -0.0399 -0.2415
53091W        W96185  33.318  13.090   4.324 -0.0540 -0.1430  0.2177
53092W        W96186  33.892  13.752   6.508 -0.0435 -0.1606 -0.1134
53093W        W96187  33.958  10.827   5.477  0.2701  0.0892 -0.1224
53094W        W96188   0.627  10.445   6.549 -0.0576 -0.1403  0.0843
53095W        W96189  33.337  12.413   7.307 -0.1143  0.0637  0.1663
53096W        W96190  33.229  11.931   8.626 -0.0581 -0.2667 -0.0533
53097W        W96191  33.246  11.718   4.897  0.2307  0.1525 -0.0075
53098W        W96192  33.956  12.433   6.813  0.0480  0.1616 -0.0175
53099W        W96193  33.026  13.462   4.145  0.2149  0.0385 -0.1217
53100W        W96194  33.881  11.315   6.922  0.1097  0.2124  0.0458
53101W        W96195  34.290  13.722   3.305 -0.1670  0.0021 -0.1338
53102W        W96196  33.298  13.820   5.029 -0.0741  0.2478  0.2511
53103W        W96197   1.242   9.940   6.290  0.2243 -0.0739  0.2000
53104W        W96198  34.181  12.853   7.008 -0.1868  0.0637 -0.2996
53105W        W96199  32.601  11.905   6.868  0.2449  0.1422 -0.0049
53106W        W96200  32.608  12.465   6.111  0.1474 -0.0341  0.1279
53107W        W96201  33.215  10.730   4.860  0.1366  0.2689  0.1776
53108W        W96202  34.054  13.792   4.550  0.1249  0.1246 -0.1537
53109W        W96203  34.004  11.985   6.575 -0.7948  0.0017  0.0153
53110W        W96204  34.452  13.330   7.223 -0.2141 -0.0696 -0.1287
53111W        W96205  33.687  11.642   4.295 -0.1957 -0.1276 -0.1210
53112W        W96206   0.070  12.899   4.527  0.3029 -0.2891 -0.1776
53113W        W96207   0.901  13.094   5.810  0.0778  0.0435  0.1656
53114W        W96208  34.530  11.641   3.632  0.0732 -0.2227 -0.1531
53115W        W96209  33.218  14.257   4.446  0.0968  0.1652 -0.1689
53116W        W96210  34.171  12.471   7.396 -0.0609 -0.0214  0.1875
53117W        W96211  32.482  12.370   7.651 -0.2243 -0.0299 -0.1074
53118W        W96212  34.146  13.832   5.291 -0.0908 -0.0375  0.0751
53119W        W96213  33.278  13.768   6.445 -0.1203 -0.2196  0.1682
53120W        W96214  33.038  13.611   7.167  0.1517 -0.0703 -0.2312
53121W        W96215  33.052  11.842   6.341 -0.1176  0.0779  0.1019
53122W        W96216  33.430  12.232   6.831  0.0544  0.1167  0.1708
53123W        W96217  33.586  10.597   5.813  0.0864  0.3031  0.1170
53124W        W96218  32.941  13.257   7.890  0.1197 -0.0277 -0.1710
53125W        W96219  31.851  12.586   6.863  0.1345  0.2843  0.0404
53126W        W96220  33.156  15.446   5.108  0.1488 -0.0512  0.5329
53127W        W96221  34.620  11.734   4.228  0.1115  0.2895 -0.0046
53128W        W96222  32.181  13.759   5.715 -0.0693  0.1116 -0.0271
53129W        W96223  31.606  14.687   3.928 -0.0020 -0.0476 -0.0877
53130W        W96224  32.536  15.151   6.664 -0.1254  0.1491  0.2336
53131W        W96225  34.339  12.299   6.394 -0.0520 -0.0288  0.2640
53132W        W96226  33.564  10.366   5.342  0.0302 -0.0598  0.0601
53133W        W96227  33.324  11.476   7.608  0.0918 -0.0629  0.0323
53134W        W96228  32.692  12.711   8.031  0.0847 -0.1048  0.2245
53135W        W96229  32.572  12.046   5.459  0.2516 -0.2271  0.1308
53136W        W96230  33.373  12.167   5.892  0.0163  0.2458  0.4672
53137W        W96231   0.559  11.851   4.188 -0.0499 -0.0569  0.1100
53138W        W96232  33.005  14.475   7.137  0.0397  0.1467 -0.2338
53139W        W96233  33.880  13.747   7.863 -0.1096 -0.0020  0.0169
53140W        W96234  34.636  14.497   6.734  0.0911  0.1916 -0.2592
53141W        W96235  32.631  12.047   6.377  0.0402  0.0375  0.1260
53142W        W96236  33.533  11.978   7.774  0.0294  0.0443 -0.0744
53143W        W96237  32.705  11.903   5.022 -0.2216  0.2347 -0.0693
53144W        W96238  34.166  11.764   5.551  0.1366 -0.1157  0.0586
53145W        W96239  34.479  11.270   3.256 -0.0472  0.2025  0.1391
53146W        W96240  33.518  10.288   6.182 -0.3621  0.3177  0.4725
53147W        W96241  34.263  13.662   5.729 -0.0770  0.1134 -0.2198
53148W        W96242  32.805  12.272   7.266  0.0929  0.0259  0.1610
53149W        W96243  32.937  11.603   7.306 -0.0181  0.2672 -0.3004
53150W        W96244  33.786  13.387   4.685  0.1497  0.2575  0.0656
53151W        W96245  32.272  12.311   6.723 -0.3422  0.1283 -0.0625
53152W        W96246   0.519  11.328   4.492 -0.2131  0.1311  0.0846
53153W        W96247  33.414  11.410   5.276  0.0927  0.3422  0.2996
53154W        W96248  33.420  14.203   5.754 -0.1529  0.3435 -0.3315
53155W        W96249  34.036  14.844   3.607 -0.1528  0.2158  0.0459
53156W        W96250  33.686  12.878   6.771  0.0603  0.3921 -0.4111
53157W        W96251  33.244  12.808   8.193 -0.3818 -0.1386 -0.0381
53158W        W96252  32.092  12.424   4.726  0.0789 -0.2443 -0.3356
53159W        W96253  34.608  13.892   7.178 -0.1897  0.3827 -0.0160
53160W        W96254  33.548  13.353   3.982  0.1938  0.1820  0.5327
53161W        W96255  34.601  13.521   5.243  0.0488  0.2136  0.3320
53162W        W96256  34.492  12.295   4.268  0.1907  0.0481 -0.1827
53163W        W96257   1.022  11.476   5.013 -0.1157  0.1569 -0.1296
53164W        W96258  33.133  11.276   8.087 -0.2747 -0.4023 -0.0242
53165W        W96259  31.594  12.399   5.307  0.2342 -0.0840  0.0149
53166W        W96260  32.249  13.104   4.371  0.0204  0.1329 -0.1593
53167W        W96261  33.354  12.288   5.390  0.2113  0.0502 -0.3564
53168W        W96262   0.290  10.258   7.995  0.2302 -0.2423  0.1074
53169W        W96263  33.065  10.609   7.625  0.1792  0.0379  0.0308
53170W        W96264  31.252  13.534   6.750 -0.1315  0.1751 -0.0034
53171W        W96265  34.011   9.991   5.150 -0.0735  0.2448  0.1200
53172W        W96266  34.616  10.596   4.293 -0.1186  0.2245  0.1400
53173W        W96267  32.151  12.682   6.335  0.0592  0.1626 -0.0027
53174W        W96268  34.188  12.524   4.957 -0.1518 -0.0457 -0.0698
53175W        W96269  31.820  13.488   4.360 -0.1394  0.4160 -0.2661
53176W        W96270   1.170  12.895   6.205 -0.0595 -0.1328 -0.0070
53177W        W96271  33.574  11.742   6.379  0.0624  0.0898  0.0551
53178W        W96272  33.642  11.081   5.874 -0.2801  0.3819 -0.2078
53179W        W96273   0.120  11.412   6.738  0.0170  0.0744 -0.2233
53180W        W96274  33.100  11.798   8.073 -0.1147 -0.2336  0.1206
53181W        W96275   0.309  13.294   7.740 -0.1469 -0.1021  0.1158
53182W        W96276  33.931  10.635   7.580  0.0683 -0.3937  0.1430
53183W        W96277  34.656  12.994   7.583 -0.2396  0.0573  0.3795
53184W        W96278  33.614  11.084   7.340  0.0018  0.1097  0.0927
53185W        W96279  32.652  13.091   8.388  0.2170  0.2909  0.0814
53186W        W96280  34.641  11.748   5.775 -0.0742  0.0220  0.2822
53187W        W96281  31.925  13.116   6.461 -0.0121  0.0245  0.0506
53188W        W96282  33.529  12.047   4.656 -0.1294  0.0048 -0.0116
53189W        W96283   1.364  12.203   6.951  0.0323 -0.0807 -0.0007
53190W        W96284  33.723  12.476   5.020  0.0381  0.0787  0.0863
53191W        W96285  34.433  13.746   6.409  0.3164 -0.0443  0.1038
53192W        W96286  32.919  11.288   5.657  0.4612  0.3327  0.1837
53193W        W96287  32.813  12.655   5.359  0.0735 -0.1850 -0.0895
53194W        W96288  32.829  13.657   5.073  0.0439 -0.0666 -0.0494
53195W        W96289  33.758  12.163   7.246 -0.1689 -0.0529 -0.1301
53196W        W96290  33.764  14.512   6.525 -0.1915 -0.1141  0.0822
53197W        W96291  33.475  13.879   8.986 -0.0128 -0.1960 -0.1084
53198W        W96292  33.957  10.780   8.580  0.0376 -0.1696  0.2261
53199W        W96293  33.744  10.484   8.999  0.2705  0.0720 -0.0299
53200W        W96294   0.376  11.714   9.319 -0.1590 -0.1975 -0.1808
53201W        W96295  33.488  10.848   6.286 -0.0247 -0.1143 -0.3382
53202W        W96296  29.331  11.323  10.181 -0.0423 -0.2575  0.0921
53203W        W96297  33.958  13.684   8.805  0.2343 -0.0484  0.2144
53204W        W96298   2.178  12.553   9.423 -0.0097 -0.1887 -0.0848
53205W        W96299  34.291  10.523   8.057 -0.3607 -0.2635 -0.3120
53206W        W96300   1.153  11.504   9.090  0.0190  0.0472  0.1702
53207W        W96301   0.881  13.772   7.603  0.3304 -0.2823 -0.3395
53208W        W96302  33.038  11.437   8.542  0.1717 -0.2233 -0.2056
53209W        W96303  32.985  11.446   9.635 -0.2284  0.0701  0.0713
53210W        W96304  34.642  11.932   8.945  0.0148  0.2942 -0.1112
53211W        W96305  34.259  13.348   7.748 -0.0883 -0.2585 -0.0016
53212W        W96306  33.702  16.500   9.045  0.2317 -0.1747  0.1446
53213W        W96307  33.047  12.322   9.852  0.2572 -0.1889 -0.3072
53214W        W96308  31.392  14.546   9.643  0.0220  0.1177  0.1048
53215W        W96309  33.732  12.039   8.221 -0.1168  0.1346  0.1200
53216W        W96310  33.766  14.137   7.580  0.2644  0.0357 -0.2833
53217W        W96311  33.916  13.404   8.225 -0.1282 -0.1032 -0.1631
53218W        W96312  34.246  12.740   8.578 -0.1755 -0.3300 -0.0377
53219W        W96313  33.309  12.879   9.041 -0.3107 -0.0552  0.0821
53220W        W96314  34.144  13.864   8.226 -0.1677  0.3293 -0.0092
53221W        W96315  33.825  10.119   6.502  0.0848 -0.0886  0.0167
53222W        W96316  34.271  10.662   8.936  0.0233 -0.2067  0.1954
53223W        W96317   0.055  12.800   9.405  0.1968  0.5083 -0.2081
53224W        W96318  34.144  11.720   8.321 -0.2039 -0.2389  0.1911
53225W        W96319  33.166  13.173   9.728  0.1925  0.1381 -0.3994
53226W        W96320  33.007  12.762   8.603  0.2538 -0.3360 -0.0816
53227W        W96321  33.464  12.204   9.501  0.2484 -0.0232 -0.1397
53228W        W96322  33.690   9.824   6.917  0.1011  0.0309  0.1630
53229W        W96323  33.470  12.382   9.018  0.2338  0.0326 -0.0630
53230W        W96324  34.623  11.637   7.237 -0.2780 -0.1898 -0.1176
53231W        W96325  32.879  12.088   7.716 -0.1662 -0.2879  0.0332
53232W        W96326  33.309  14.368   9.085  0.0102 -0.0203  0.2998
53233W        W96327  33.157  14.624   8.640  0.1566  0.0725 -0.0957
53234W        W96328  29.054  12.823   9.484  0.2899 -0.0266 -0.2707
53235W        W96329  33.151  13.271   8.487  0.2524  0.0175 -0.0060
53236W        W96330   0.705  10.711   9.342 -0.2932 -0.1711 -0.0005
53237W        W96331   0.558  13.232   8.799 -0.1444 -0.2804 -0.0088
53238W        W96332  34.303  12.755   9.862  0.1797 -0.3297  0.0128
53239W        W96333  32.192  12.612   9.740  0.1812 -0.7032 -0.1616
53240W        W96334  32.593  12.064   9.071 -0.3542  0.1108 -0.0453
53241W        W96335  30.745  10.461   9.289 -0.1688 -0.0309 -0.1040
53242W        W96336   0.105  10.854   6.633  0.0641  0.3435  0.2183
53243W        W96337  34.219  11.528   7.694 -0.0583 -0.4353 -0.1642
53244W        W96338  32.321  13.423   9.806 -0.1908  0.0218  0.0811
53245W        W96339  34.460  11.339  10.571  0.1251  0.1143  0.2647
53246W        W96340  34.073  11.223   8.840  0.1890 -0.0707 -0.3039
53247W        W96341  32.577  15.724   9.173  0.1157 -0.1260 -0.2209
53248W        W96342  34.125  13.669   9.578  0.2481  0.1139 -0.2037
53249W        W96343   0.030  10.587   8.293  0.0788 -0.2853 -0.2381
53250W        W96344   0.580  10.904   6.308 -0.0339 -0.2516 -0.2315
53251W        W96345  31.918  12.675   8.684 -0.0487 -0.1401 -0.1998
53252W        W96346  30.306  10.368  10.059 -0.0502  0.0729  0.1204
53253W        W96347  34.361  12.617   7.801  0.2588 -0.3217 -0.1080
53254W        W96348  33.425  11.722   9.577 -0.0332 -0.2816  0.3896
53255W        W96349  34.301  14.119   8.756 -0.2332 -0.1300 -0.1364
53256W        W96350  33.630  13.510   9.347  0.0047  0.1633 -0.0634
53257W        W96351  32.791  11.937   9.678 -0.0185  0.0200  0.1411
53258W        W96352  34.257  11.378  10.077  0.0076 -0.2724 -0.0056
53259W        W96353   0.305  10.464   9.251  0.0733 -0.0284 -0.2118
53260W        W96354  31.810  13.199   8.949  0.3717  0.4125  0.2306
53261W        W96355  32.257  12.856   8.196 -0.1183 -0.2221  0.1052
53262W        W96356  33.418  11.325   9.923  0.0939 -0.0640  0.0560
53263W        W96357  33.182  13.446   9.227 -0.0659 -0.0182  0.2041
53264W        W96358  32.984  13.068   7.386  0.0105  0.3627  0.0206
53265W        W96359  33.426  12.487   8.546  0.0026 -0.2525 -0.0535
53266W        W96360  34.303  10.451  10.018 -0.2092  0.1692  0.0600
53267W        W96361   0.077  11.349   9.611  0.2480 -0.2114 -0.0100
53268W        W96362   0.987  13.993   8.091  0.0425 -0.4010 -0.3169
53269W        W96363  32.995  12.271   9.295 -0.1230 -0.2326  0.1835
53270W        W96364  33.144  14.886   9.891 -0.1104 -0.1629  0.0964
53271W        W96365  33.752  10.820   6.680  0.1554 -0.0281  0.1265
53272W        W96366  32.809  11.023   7.798  0.0993  0.1542  0.1814
53273W        W96367  34.466  12.094  10.138 -0.0341 -0.3819  0.0489
53274W        W96368   0.073  11.945   8.190 -0.1477  0.0459 -0.2051
53275W        W96369  33.191  14.400   9.580 -0.1340  0.2666  0.1379
53276W        W96370  32.729  10.850   9.203  0.1771  0.2030 -0.0086
53277W        W96371  33.899  11.505   9.249  0.0051 -0.0375 -0.3204
53278W        W96372  32.552  13.797   9.280 -0.0259 -0.0823 -0.0755
53279W        W96373   0.008  11.765   7.715 -0.2441  0.1888  0.0494
53280W        W96374  33.166  15.339   9.664 -0.1852 -0.3112 -0.1459
53281W        W96375  33.129  12.705   9.558  0.4097  0.3558 -0.1223
53282W        W96376  33.508  10.598   8.544 -0.0199 -0.0701 -0.3162
53283W        W96377   0.824  12.316   9.359 -0.1177 -0.1558 -0.2977
53284W        W96378   0.488  12.830   9.724  0.0832  0.1626 -0.1092
53285W        W96379  34.235  12.965   8.147 -0.0045  0.3047  0.3753
53286W        W96380  33.497  12.701   9.888  0.0419  0.3042 -0.0248
53287W        W96381  33.916  12.236   8.678 -0.1654 -0.0657 -0.0408
53288W        W96382  33.779  10.496  10.058  0.0866 -0.1144 -0.0605
53289W        W96383  33.523  13.356   8.812 -0.0489  0.0211 -0.1523
53290W        W96384  32.222  13.381   8.109  0.3740  0.2466 -0.6495
53291W        W96385  33.896  14.242   8.146 -0.1677 -0.1633  0.5756
53292W        W96386  34.591  12.441   8.200  0.1476  0.2812 -0.0184
53293W        W96387  33.187   9.847   9.176  0.1686  0.1439  0.1591
53294W        W96388  33.411   7.752   7.856  0.0597  0.0796  0.0047
53295W        W96389   0.272  12.695   8.933  0.0998 -0.1179  0.2947
53296W        W96390   0.279  13.828   8.015 -0.1230  0.0581 -0.2383
53297W        W96391  33.807  12.769   8.839 -0.0003  0.2267 -0.1895
53298W        W96392   0.674  12.350   7.593 -0.1412 -0.0483  0.0869
53299W        W96393  33.926  12.296   7.823 -0.2737 -0.1600 -0.3020
53300W        W96394  32.197  13.959  10.077  0.1695  0.2215  0.0062
53301W        W96395   0.328  11.331   6.140 -0.0516 -0.0063 -0.1326
53302W        W96396  34.558  14.636   8.063 -0.0928  0.2793  0.0739
53303W        W96397  32.690  11.642   8.828  0.0568  0.1478 -0.0195
53304W        W96398  32.979  10.260   6.868 -0.1458 -0.1149  0.2665
53305W        W96399   0.207  12.093   7.271 -0.1116  0.3178  0.1080
53306W        W96400   0.056  15.124   8.175  0.2029  0.1358 -0.0686
53307W        W96401   1.069  10.081   8.807 -0.1769 -0.2895 -0.2034
53308W        W96402  32.219  13.868   8.374 -0.0558 -0.2077  0.1134
53309W        W96403  32.941  14.400  10.019 -0.1040 -0.0444  0.1702
53310W        W96404  32.851  13.168   8.882  0.0535  0.0968 -0.0926
53311W        W96405  34.477  12.448   8.994  0.0857  0.0681 -0.0819
53312W        W96406  32.584  11.176   8.822 -0.0594  0.0226  0.1009
53313W        W96407  32.833  12.749   9.966  0.0824  0.3191 -0.1025
53314W        W96408  32.131   9.962   7.569 -0.1217  0.0263  0.0508
53315W        W96409  32.356  15.627   9.731 -0.2218  0.4792  0.0908
53316W        W96410  33.596  14.870   8.899 -0.0991  0.2800  0.2594
53317W        W96411  33.817  11.227   7.836  0.3667 -0.0373  0.0903
53318W        W96412  34.120  14.602   8.413 -0.4047 -0.2104 -0.0395
53319W        W96413  33.171  13.534  10.128 -0.0668  0.0187  0.0931
53320W        W96414  32.705  14.809   8.608 -0.3124 -0.0309 -0.1372
53321W        W96415   0.684  11.059   8.523 -0.0910 -0.4777 -0.0614
53322W        W96416  33.722  11.761   8.629 -0.0588 -0.1830 -0.1975
53323W        W96417  34.650  13.064   9.038 -0.0036  0.2607 -0.5172
53324W        W96418   0.891  10.986   9.837  0.1854  0.1186  0.0812
53325W        W96419   0.056  12.895   6.865 -0.1635  0.0428  0.0127
53326W        W96420  33.674  14.026   9.618 -0.0083  0.2017 -0.0013
53327W        W96421  34.093  15.459   9.351 -0.0195 -0.3572 -0.2139
53328W        W96422  34.653  14.460   9.671 -0.2435  0.0449  0.1918
53329W        W96423  32.351  11.136   9.310  0.1547  0.1299 -0.0712
53330W        W96424  33.745  11.827  10.120 -0.0528 -0.1789  0.1575
53331W        W96425  33.906  12.005   9.551 -0.0280  0.0768 -0.3757
53332W        W96426   1.374  12.273   9.194 -0.0859  0.0814 -0.1990
53333W        W96427   0.363  11.367   7.225  0.1360 -0.0542  0.0112
53334W        W96428  29.871  11.739   9.479  0.1963  0.1415 -0.0269
53335W        W96429  33.412  12.456   7.811 -0.0966 -0.1447 -0.1420
53336W        W96430   1.023  12.758   9.074  0.2026  0.0686 -0.1018
53337W        W96431  33.432  10.950   7.785  0.1660  0.0624  0.1894
53338W        W96432  33.433  13.404   8.076  0.1175  0.1177 -0.1641
53339W        W96433  33.085  11.769   9.174 -0.1606  0.2094 -0.0503
53340W        W96434   0.332  11.526   8.241 -0.3146  0.3136 -0.1540
53341W        W96435  33.378  13.051  10.236  0.1879 -0.0901 -0.3416
53342W        W96436  32.956  15.440   9.198 -0.1631 -0.1620 -0.0682
53343W        W96437  33.870  14.051   6.950 -0.4072 -0.0194 -0.2220
53344W        W96438   0.443  15.003   8.978  0.2368 -0.0320  0.1071
53345W        W96439  34.346  12.111   7.961 -0.3445  0.0724  0.0449
53346W        W96440  32.868  13.696   8.883  0.4110  0.0049  0.2776
53347W        W96441  33.196  13.771   8.427 -0.2269  0.1468 -0.1275
53348W        W96442   0.186  12.300   8.624  0.1665 -0.0944  0.3872
53349W        W96443  33.388  11.431   8.903  0.2877 -0.1080 -0.0163
53350W        W96444  32.742  13.774   9.928  0.2748  0.0813 -0.2297
53351W        W96445  32.374  11.458   7.885 -0.1409  0.3400  0.0544
53352W        W96446  34.069  13.201   8.790  0.0200 -0.2200  0.0580
53353W        W96447  33.788  12.803   7.827 -0.0968  0.0339  0.0533
53354W        W96448  34.146  11.743   8.834  0.3629  0.0966 -0.1454
53355W        W96449  32.645  11.565   8.274 -0.2423 -0.0197  0.0522
53356W        W96450   0.215  10.991   9.247 -0.1676 -0.1139  0.2147
53357W        W96451  34.280  11.012   7.958 -0.1484  0.3856 -0.0165
53358W        W96452  34.108  11.186   7.394  0.0538  0.0761 -0.2432
53359W        W96453  34.131  12.964   7.519 -0.2772 -0.0691 -0.1051
53360W        W96454  33.562  11.043   8.389 -0.0174 -0.1587 -0.1304
53361W        W96455   0.158  13.499   8.797 -0.2755  0.2512 -0.3421
53362W        W96456  34.411   9.621  12.260  0.2034  0.2101  0.1421
53363W        W96457  34.310  11.389   9.507 -0.1279  0.1935  0.0536
53364W        W96458  33.683  13.012   8.424 -0.0287  0.3894 -0.0711
53365W        W96459   0.915  11.346   7.487  0.0819 -0.0947  0.0383
53366W        W96460   0.246  12.192   6.591 -0.2088 -0.2437 -0.4370
53367W        W96461   1.586  13.414   9.736 -0.0372  0.1608 -0.0522
53368W        W96462  34.451  11.041   9.179  0.1589  0.2080 -0.1475
53369W        W96463  33.028  12.276   8.242  0.2273  0.2417 -0.0746
53370W        W96464  34.394  12.107   8.561  0.0302 -0.0448  0.1055
53371W        W96465  33.558  10.964   8.898 -0.1641 -0.2201  0.0121
53372W        W96466  34.585  15.584   9.708 -0.1701  0.0266  0.1133
53373W        W96467  32.537  17.101   2.934  0.0534  0.0881 -0.2439
53374W        W96468   0.691  16.168   0.765 -0.1467 -0.0507 -0.1412
53375W        W96469  33.370  14.650   2.696 -0.0067  0.0348 -0.1138
53376W        W96470  33.422  13.684   3.589 -0.2965 -0.2206  0.1582
53377W        W96471  34.093  15.711   2.738  0.0405  0.0974  0.0622
53378W        W96472   0.395  19.251   2.255  0.0553 -0.0026  0.1512
53379W        W96473  34.108  15.760   0.161 -0.0498 -0.1173  0.3897
53380W        W96474  34.322  13.403   2.635  0.0363 -0.2515  0.0576
53381W        W96475  34.579  16.806   2.318 -0.0286  0.2614  0.1635
53382W        W96476   0.140  16.569   1.556 -0.1788 -0.0167  0.0559
53383W        W96477   1.199  16.675   0.739  0.1250  0.0432 -0.1170
53384W        W96478  33.701  15.469   2.385 -0.1749 -0.1099 -0.2653
53385W        W96479   1.456  16.488  31.660  0.1742  0.1265 -0.0264
53386W        W96480  32.765  16.972   1.427  0.1010  0.1269  0.1069
53387W        W96481  32.191  16.803   1.561  0.1584 -0.0752  0.2406
53388W        W96482  32.233  15.541   2.915  0.2080  0.2095 -0.0634
53389W        W96483  34.129  19.126   3.527  0.1692 -0.1243 -0.0179
53390W        W96484  34.175  17.923   1.473 -0.0630 -0.1333 -0.0216
53391W        W96485  32.764  17.390   1.114  0.1258 -0.0509 -0.1467
53392W        W96486  33.683  18.568   1.794  0.2464 -0.1868  0.1025
53393W        W96487  33.939  19.115   2.494  0.0282  0.1940  0.0558
53394W        W96488  34.633  17.668   4.858 -0.0792 -0.0876 -0.3293
53395W        W96489  34.564  18.096   0.344  0.4695  0.1595 -0.2679
53396W        W96490  34.169  18.002   2.879 -0.1750 -0.2418 -0.0914
53397W        W96491  32.108  16.675   0.626 -0.1648  0.2746  0.1132
53398W        W96492   1.024  17.933   0.833 -0.1610 -0.0323 -0.1094
53399W        W96493  33.481  16.419   4.758  0.0246  0.0950  0.1039
53400W        W96494  33.636  17.181   1.557 -0.2173 -0.0156 -0.0132
53401W        W96495  33.106  17.741   1.023 -0.1813 -0.2287  0.4258
53402W        W96496  32.490  15.528   0.005  0.2397  0.0714 -0.0410
53403W        W96497  34.420  15.305   1.301  0.2135 -0.1380  0.0300
53404W        W96498  32.386  18.897   2.575  0.0105 -0.2571  0.1427
53405W        W96499  33.069  15.007   2.859  0.0322  0.0163 -0.1342
53406W        W96500  32.876  17.275   3.919 -0.1065  0.0154  0.0302
53407W        W96501  32.346  15.875   2.555  0.0278 -0.0442 -0.1729
53408W        W96502  32.723  15.689   2.280 -0.1214  0.3467  0.2643
53409W        W96503  34.015  16.621   3.295  0.0060 -0.0210 -0.0769
53410W        W96504  33.456  15.250   2.803 -0.0009  0.2323 -0.2880
53411W        W96505  33.965  15.757   0.638 -0.0368 -0.1701 -0.0718
53412W        W96506  31.333  15.635   3.544 -0.0078 -0.4439  0.0996
53413W        W96507   0.168  16.586   2.728  0.0221 -0.2811  0.0246
53414W        W96508  33.897  15.872   2.168  0.0425  0.2475 -0.2437
53415W        W96509   0.545  17.675   1.191  0.2927  0.0933  0.1752
53416W        W96510  32.135  17.282   2.686 -0.2264  0.0717  0.1142
53417W        W96511  32.764  15.397   2.963 -0.0336  0.0268  0.2287
53418W        W96512   0.661  18.264   3.013 -0.1276 -0.1036 -0.1834
53419W        W96513  33.115  16.949   0.417 -0.2034  0.2060  0.3032
53420W        W96514  33.096  16.071   2.005 -0.1506  0.3129  0.1654
53421W        W96515  33.468  17.838   0.038 -0.0893  0.0597  0.3037
53422W        W96516  31.927  14.048   1.331  0.2386  0.1587 -0.0695
53423W        W96517  34.086  18.472   2.749  0.1047  0.2842  0.1812
53424W        W96518  32.771  14.380   2.554 -0.1445  0.1371 -0.0637
53425W        W96519  32.149  15.953   0.927  0.1482  0.2848 -0.0278
53426W        W96520  31.809  14.084   2.678 -0.0383  0.0852 -0.0978
53427W        W96521  34.481  15.918   2.385 -0.2305  0.1922 -0.2523
53428W        W96522  33.406  15.024   4.231 -0.0848  0.1089 -0.0963
53429W        W96523  32.933  14.832   2.426  0.1099  0.1122  0.2362
53430W        W96524  33.240  15.322   0.516 -0.1722 -0.0261  0.0919
53431W        W96525   0.639  16.423   2.750 -0.0495 -0.1658 -0.1725
53432W        W96526  32.700  15.232   2.508 -0.1451 -0.3085  0.0065
53433W        W96527  33.329  15.449   3.721 -0.1778 -0.0971 -0.1048
53434W        W96528  33.077  15.265   1.397 -0.0704  0.1212 -0.0315
53435W        W96529  32.869  18.225   3.549  0.2527 -0.0204 -0.2295
53436W        W96530  33.586  16.964   3.497  0.2223 -0.2780 -0.0015
53437W        W96531  34.421  15.757  31.794 -0.2077  0.0354  0.0610
53438W        W96532  33.273  16.738   2.648  0.1257  0.0914 -0.1809
53439W        W96533  33.063  15.089  31.535 -0.2179 -0.1057 -0.2194
53440W        W96534  33.360  17.717   2.628 -0.0054 -0.0523  0.1925
53441W        W96535  32.141  16.426   3.175  0.0908  0.2382 -0.1259
53442W        W96536   0.558  16.272  31.918  0.0937 -0.0099  0.1759
53443W        W96537  32.831  15.845   4.130  0.0242  0.0186 -0.1581
53444W        W96538  34.381  16.692   1.832 -0.1159 -0.0267 -0.2452
53445W        W96539  32.272  16.986   3.454  0.2953  0.0795  0.2779
53446W        W96540  31.804  17.126   4.653  0.0918 -0.3755  0.1377
53447W        W96541   1.421  17.272   0.369  0.1982 -0.0142 -0.0748
53448W        W96542  33.844  17.086   3.073 -0.0156  0.1299  0.2807
53449W        W96543  31.826  14.553   2.460  0.0471  0.1648 -0.4706
53450W        W96544  34.274  15.825   3.469  0.0634 -0.2705  0.0985
53451W        W96545  33.016  15.696   1.100 -0.0174 -0.3423 -0.1574
53452W        W96546  32.999  18.064  30.987  0.0396 -0.0698 -0.0143
53453W        W96547  32.127  13.511   1.483 -0.0277  0.1628 -0.0239
53454W        W96548  33.236  17.288   1.243  0.0938 -0.0278  0.1129
53455W        W96549  33.755  14.270   2.790 -0.1164  0.1308 -0.1519
53456W        W96550  33.340  16.237   3.377 -0.0235 -0.2156 -0.0507
53457W        W96551  33.479  17.473   3.798  0.0092 -0.2999  0.1363
53458W        W96552  33.681  15.641   3.127  0.4119 -0.0713  0.0271
53459W        W96553  33.475  18.153   1.995  0.0134 -0.0522 -0.3338
53460W        W96554  33.787  16.093   0.235 -0.1146 -0.1384 -0.3065
53461W        W96555  34.084  13.770   1.688  0.3678  0.1715 -0.1412
53462W        W96556  33.736  16.939   2.507  0.0421  0.0877 -0.0147
53463W        W96557  33.113  16.870  30.445 -0.0449  0.0451 -0.1176
53464W        W96558   0.012  17.040   0.688  0.4159 -0.1213 -0.0601
53465W        W96559  32.846  18.070   2.042  0.1415  0.0112  0.1041
53466W        W96560   0.039  15.749   1.398 -0.0143  0.0816  0.2575
53467W        W96561  32.739  18.353   1.517  0.0873  0.1585  0.0279
53468W        W96562  33.451  15.022   2.401  0.2184  0.2289  0.1076
53469W        W96563  34.321  14.883   2.375 -0.2564  0.0670  0.1577
53470W        W96564  31.688  18.298   2.360 -0.2128  0.1588  0.3022
53471W        W96565  34.002  16.169   5.271  0.1302  0.0324  0.0929
53472W        W96566  32.456  15.134   0.507  0.0057  0.4691  0.0384
53473W        W96567  34.248  14.709   1.908 -0.0814  0.2020  0.0619
53474W        W96568  32.442  17.364   2.312 -0.3323  0.1094  0.0198
53475W        W96569  33.924  16.753   1.366  0.1428 -0.3131  0.1768
53476W        W96570  32.842  16.916   2.274  0.1748  0.1771  0.2245
53477W        W96571  33.793  13.075   5.202 -0.1284  0.0731 -0.1312
53478W        W96572  34.419  16.216   1.395 -0.0931 -0.0898 -0.1369
53479W        W96573  34.606  13.846   1.821  0.2767 -0.3338 -0.0496
53480W        W96574   0.721  15.342   1.262 -0.0104  0.1026 -0.0719
53481W        W96575  34.387  16.740   4.063 -0.2050  0.0073 -0.2291
53482W        W96576  32.619  16.620   3.253  0.0886  0.2183 -0.0042
53483W        W96577  33.936  17.266   0.401  0.2861  0.2069  0.1232
53484W        W96578  33.094  16.494   3.989  0.0804  0.4318  0.5701
53485W        W96579  34.484  17.597   1.666  0.0456  0.1329 -0.0654
53486W        W96580  34.464  16.387   2.525 -0.0003 -0.1930  0.0161
53487W        W96581  32.776  16.669   2.711 -0.2042  0.0715  0.1869
53488W        W96582  33.890  17.242   2.186  0.2409 -0.2840  0.0772
53489W        W96583  32.072  16.876   3.017  0.0126 -0.1746  0.1614
53490W        W96584  34.025  16.109   1.114 -0.0624  0.1604 -0.1058
53491W        W96585  33.850  14.415   1.876  0.0926  0.3043 -0.0399
53492W        W96586  31.778  15.374   2.775  0.0281  0.2931 -0.1047
53493W        W96587  32.685  16.894   4.957  0.3333  0.0521  0.0680
53494W        W96588  33.477  15.219   1.676  0.1291  0.1793 -0.2248
53495W        W96589  33.495  16.623   1.155  0.0777 -0.0426 -0.1950
53496W        W96590  34.523  17.498   0.547 -0.0642 -0.1769  0.0475
53497W        W96591  33.777  16.129   3.143 -0.1203  0.1660  0.2168
53498W        W96592   0.831  16.419   0.344 -0.1833  0.0631 -0.3369
53499W        W96593  33.811  17.642   2.917 -0.1032 -0.0275 -0.0101
53500W        W96594  33.065  14.712   3.370 -0.2642 -0.1301  0.2883
53501W        W96595  34.165  15.815   4.306 -0.2387  0.0216  0.2754
53502W        W96596  33.861  14.841   4.171  0.0994  0.0902 -0.0844
53503W        W96597  33.736  14.191   2.286  0.0349 -0.2392 -0.0576
53504W        W96598  33.409  16.106   1.225  0.1066  0.2242  0.4570
53505W        W96599   0.655  17.316   0.209 -0.0298 -0.2375 -0.3921
53506W        W96600  32.196  15.487   3.835  0.1083 -0.2322 -0.0481
53507W        W96601  33.519  16.548   4.269 -0.0996 -0.1582 -0.1245
53508W        W96602  32.615  16.506   1.572  0.2278 -0.3630 -0.3686
53509W        W96603  33.857  15.542   1.756  0.0972  0.1936  0.0483
53510W        W96604   0.256  16.110   2.631  0.2955 -0.1265 -0.1005
53511W        W96605   0.203  15.391   1.070 -0.2133  0.1153  0.1606
53512W        W96606  32.413  17.386   1.476  0.1291 -0.0220 -0.3982
53513W        W96607  32.945  19.872   3.611  0.1133  0.2755  0.3043
53514W        W96608  33.345  15.947   2.907  0.0560  0.2127 -0.0399
53515W        W96609  33.053  18.801   0.241 -0.3995  0.0873  0.3375
53516W        W96610  34.091  17.108   1.720 -0.2680 -0.1484  0.0483
53517W        W96611  32.569  15.665   1.362 -0.4538 -0.2730 -0.0493
53518W        W96612  34.245  17.453   3.057 -0.0699  0.0642 -0.2261
53519W        W96613  33.456  15.606   4.679  0.2046 -0.4295  0.0164
53520W        W96614  33.824  15.633   1.167  0.2033  0.0676  0.0488
53521W        W96615  33.820  15.969   4.676  0.1672  0.4005  0.0634
53522W        W96616  34.095  16.658   2.253  0.1815  0.0583  0.2052
53523W        W96617  34.083  18.537   1.496  0.1967 -0.0291  0.0329
53524W        W96618  34.243  15.218   1.769  0.0501 -0.1524  0.0686
53525W        W96619  33.609  18.626   2.441  0.0408  0.2687  0.2055
53526W        W96620  33.516  17.317   0.695 -0.0226 -0.4475 -0.3398
53527W        W96621  33.394  17.195   2.258  0.1178  0.0007 -0.0832
53528W        W96622  33.524  16.489   3.768 -0.3280  0.0249 -0.0840
53529W        W96623  33.896  15.548  31.587  0.0142  0.3180  0.2576
53530W        W96624  33.535  13.746   4.359 -0.0947 -0.1767  0.0847
53531W        W96625  32.772  17.150   3.374  0.0399 -0.1019  0.0780
53532W        W96626  32.647  15.091   2.018 -0.1518  0.1634 -0.2252
53533W        W96627   0.547  15.053   1.990 -0.0388  0.2314  0.0979
53534W        W96628   0.092  17.748  31.476  0.0003  0.0393 -0.0560
53535W        W96629   0.400  18.814  31.221  0.1331  0.0683 -0.0176
53536W        W96630  33.604  16.837   1.941 -0.1661  0.0025 -0.5433
53537W        W96631  33.820  18.113   2.393  0.3107  0.4563 -0.0818
53538W        W96632  32.126  14.129   2.271 -0.2159 -0.0214 -0.2917
53539W        W96633  33.926  16.584   2.796  0.2499  0.0469  0.0199
53540W        W96634   0.034  16.274   0.708 -0.0428 -0.2747 -0.0512
53541W        W96635  33.820  14.630   2.458  0.1769 -0.3464  0.0479
53542W        W96636  34.587  15.567  30.876 -0.4898 -0.2233 -0.0539
53543W        W96637  32.631  15.170   1.533  0.1673  0.2211 -0.3740
53544W        W96638  33.443  16.022   2.365  0.3042 -0.2466  0.0188
53545W        W96639  34.333  16.146   3.905 -0.3953  0.1043 -0.0762
53546W        W96640  33.336  14.383   1.682 -0.2166  0.1013  0.0575
53547W        W96641  34.506  17.476   1.092 -0.1810 -0.0845  0.1546
53548W        W96642  31.929  15.130   2.187  0.0261  0.3839 -0.0794
53549W        W96643  33.978  14.045   0.892  0.3590  0.2014  0.2510
53550W        W96644  33.994  16.343   1.669 -0.1858 -0.1295 -0.0636
53551W        W96645  32.517  17.685   3.265  0.0857  0.1073 -0.0156
53552W        W96646  34.476  18.836   0.860 -0.0114 -0.1296 -0.3040
53553W        W96647  34.606  18.184   2.752 -0.1728  0.0050  0.3940
53554W        W96648  34.467  18.458   3.175  0.1507  0.3304 -0.1876
53555W        W96649  33.753  17.623   1.677  0.3263  0.1408 -0.0310
53556W        W96650   0.380  16.090   3.162  0.1771 -0.0081 -0.2412
53557W        W96651  34.410  17.078   1.346 -0.1377 -0.0416 -0.1994
53558W        W96652  34.644  18.108   1.758  0.4353 -0.0701 -0.3024
53559W        W96653   1.423  14.591   1.674  0.0112  0.0395 -0.1832
53560W        W96654   0.170  15.566   2.540  0.4052 -0.0165  0.4258
53561W        W96655   0.019  17.476   3.302 -0.1417 -0.1497  0.2043
53562W        W96656  32.998  16.962   0.924 -0.1344  0.0885  0.2801
53563W        W96657  32.992  17.431   0.646 -0.1119 -0.1828  0.0193
53564W        W96658  34.072  17.624   2.518  0.0602  0.2860  0.1335
53565W        W96659  33.221  14.170   2.636 -0.1735 -0.1920  0.1942
53566W        W96660  34.292  16.320   4.393 -0.0745  0.0189  0.0375
53567W        W96661  33.953  16.208   2.456 -0.1275 -0.1031 -0.2664
53568W        W96662  33.445  15.294   1.030 -0.1602  0.3639  0.1615
53569W        W96663  32.450  14.703   1.632  0.0782 -0.0482 -0.1320
53570W        W96664  31.574  14.774   0.650  0.0449 -0.1568 -0.0353
53571W        W96665   0.611  15.450   0.741  0.0325  0.1191 -0.1611
53572W        W96666  33.582  17.665   1.216  0.3341  0.0812 -0.0295
53573W        W96667  33.912  16.880   3.835  0.0113  0.3647 -0.0310
53574W        W96668  33.380  15.215   3.281 -0.0949  0.4593  0.0961
53575W        W96669  31.646  16.227  30.258 -0.2579  0.0628 -0.0893
53576W        W96670  34.391  15.777   0.973 -0.1278 -0.0434 -0.0386
53577W        W96671  32.909  17.507   3.066 -0.0852 -0.0803 -0.1262
53578W        W96672  33.868  17.373   3.500 -0.0373  0.0896 -0.1899
53579W        W96673  31.862  15.734   2.478  0.1046 -0.0981 -0.3936
53580W        W96674  33.527  15.947   4.058  0.1370  0.1299 -0.2214
53581W        W96675  32.470  15.914   3.721 -0.0354  0.3095 -0.1816
53582W        W96676  33.222  16.060   4.389  0.1608  0.1465 -0.3047
53583W        W96677  34.171  14.976   1.013  0.1930 -0.2430 -0.0672
53584W        W96678   0.186  16.396   2.037  0.0425 -0.0527  0.0096
53585W        W96679   0.663  16.485   1.663 -0.1648  0.0694 -0.1880
53586W        W96680  34.624  16.367   3.163 -0.0594 -0.0270 -0.1498
53587W        W96681  33.596  15.640   0.240  0.0877  0.1090  0.1753
53588W        W96682  33.703  17.182   4.279 -0.4492 -0.1171  0.2916
53589W        W96683  32.685  14.082   2.139  0.2508 -0.0397  0.1850
53590W        W96684   0.416  17.366   0.687  0.3540  0.0591 -0.1473
53591W        W96685   0.407  15.840   0.985  0.1288  0.2960 -0.1168
53592W        W96686  34.041  14.721   1.421  0.0455  0.6331 -0.1438
53593W        W96687  33.660  18.717   3.258  0.1708 -0.2793 -0.2290
53594W        W96688  33.072  16.104   5.442  0.0618 -0.1379  0.1322
53595W        W96689  32.040  16.576   5.710 -0.0121  0.0870 -0.1058
53596W        W96690  32.791  14.918   4.634  0.1279  0.0482  0.0474
53597W        W96691  33.862  14.639   7.403 -0.4078  0.0283 -0.1752
53598W        W96692  33.609  17.003   6.227  0.1148 -0.0502  0.0937
53599W        W96693  33.537  17.277   7.345 -0.2319 -0.1884  0.2902
53600W        W96694  32.419  14.639   4.195  0.0059 -0.2421  0.1163
53601W        W96695  32.621  12.710   7.144 -0.0665 -0.0120 -0.1610
53602W        W96696   0.571  16.355   5.075  0.1709  0.1830  0.0344
53603W        W96697  33.621  13.513   6.794  0.2425  0.0863  0.0624
53604W        W96698   0.226  18.127   3.170 -0.0101  0.3669  0.0795
53605W        W96699  33.088  16.939   3.089  0.0675 -0.0185  0.0356
53606W        W96700  31.644  15.743   4.725  0.2077 -0.1760 -0.2087
53607W        W96701  34.178  15.560   5.205 -0.2731  0.1882  0.4335
53608W        W96702   0.578  17.628   6.257  0.1133  0.0334  0.3379
53609W        W96703   0.846  19.090   5.679  0.2120 -0.1391 -0.0116
53610W        W96704  33.608  18.015   6.328  0.0522  0.0947  0.3257
53611W        W96705  33.404  18.235   5.956 -0.1542  0.2907  0.0147
53612W        W96706  33.529  17.838   4.209 -0.1308 -0.2899  0.1456
53613W        W96707  34.013  16.972   7.747 -0.0588 -0.0821 -0.0894
53614W        W96708  33.117  17.110   5.023  0.4115  0.2302 -0.3100
53615W        W96709  34.000  17.318   7.095 -0.1668  0.3496 -0.0753
53616W        W96710  34.679  17.330   4.264  0.1088  0.1889  0.4158
53617W        W96711   0.319  18.887   4.850  0.3995 -0.2747  0.0773
53618W        W96712   0.175  17.554   7.367 -0.2269 -0.2110 -0.0538
53619W        W96713  32.476  17.006   5.921 -0.0578  0.2170  0.0944
53620W        W96714  33.289  16.958   3.937 -0.2749 -0.4140  0.1154
53621W        W96715   0.078  15.323   2.004 -0.0331  0.1235  0.0747
53622W        W96716  34.372  14.679   5.170  0.0048 -0.1142  0.0946
53623W        W96717  34.656  17.766   6.797  0.0131  0.3268  0.1294
53624W        W96718   0.077  15.254   5.815 -0.0132 -0.3171  0.0149
53625W        W96719  33.549  16.999   5.576 -0.0285  0.1551  0.0072
53626W        W96720  31.921  16.589   4.490  0.0961 -0.0040 -0.0420
53627W        W96721   0.019  15.635   4.970 -0.2262 -0.0487  0.0578
53628W        W96722  32.518  13.252   7.046 -0.0492  0.3201  0.0609
53629W        W96723  32.759  14.057   7.288 -0.0316  0.0586  0.0012
53630W        W96724  34.092  14.093   3.601  0.2633 -0.0828  0.3019
53631W        W96725  32.043  15.935   7.217 -0.1781 -0.5052 -0.2782
53632W        W96726   0.685  16.662   6.041  0.0428  0.2654  0.2719
53633W        W96727  32.926  14.945   5.175  0.1088 -0.0079  0.0063
53634W        W96728  34.374  17.416   5.922 -0.0504 -0.2827  0.3784
53635W        W96729  33.684  18.646   5.777 -0.0794  0.2402 -0.4423
53636W        W96730  33.641  13.725   7.371  0.2954  0.2120  0.2266
53637W        W96731  33.963  16.193   8.087  0.1514  0.0097 -0.1772
53638W        W96732  33.501  17.787   3.336  0.2136 -0.3295 -0.0083
53639W        W96733  32.304  15.794   5.720 -0.1211  0.0958 -0.1129
53640W        W96734  33.122  16.617   5.079 -0.3156  0.0760 -0.1864
53641W        W96735  33.564  14.440   7.035  0.1070 -0.1969 -0.0470
53642W        W96736  33.346  16.181   5.836 -0.0194  0.2100  0.1699
53643W        W96737  31.508  14.816   8.305  0.2197  0.0607  0.0979
53644W        W96738  34.027  16.444   4.845  0.2790  0.0292  0.1569
53645W        W96739  32.242  15.748   6.814  0.2038 -0.0024 -0.1089
53646W        W96740  32.453  14.112   5.543  0.1783 -0.2591 -0.1541
53647W        W96741  33.222  15.750   6.673 -0.0838 -0.3065 -0.0702
53648W        W96742  32.054  14.030   6.103 -0.0579 -0.1184  0.1353
53649W        W96743  33.935  14.361   5.268  0.2244  0.2085 -0.0014
53650W        W96744  34.345  16.769   4.603 -0.0624  0.0632  0.0493
53651W        W96745  34.178  16.092   6.035 -0.2093 -0.1937  0.1468
53652W        W96746  33.321  15.482   7.077  0.3671  0.0614 -0.1071
53653W        W96747  33.787  13.744   5.002  0.0533  0.1963  0.1422
53654W        W96748  34.087  17.604   5.603 -0.0698  0.4429  0.3280
53655W        W96749   0.213  17.515   5.296 -0.2424  0.0263  0.1862
53656W        W96750  34.028  14.608   4.791 -0.1228  0.3327  0.0962
53657W        W96751  33.084  17.534   6.880 -0.0901 -0.0569 -0.0362
53658W        W96752  31.493  14.341   3.066  0.1254  0.3016  0.2426
53659W        W96753  33.997  17.186   5.290 -0.0986  0.1167 -0.2278
53660W        W96754  32.755  16.000   4.590  0.1493  0.1662  0.2177
53661W        W96755  34.034  18.638   4.009  0.0478  0.0091 -0.1163
53662W        W96756  32.084  15.641   8.112 -0.3312  0.0030 -0.0297
53663W        W96757  34.288  16.418   5.577 -0.0325  0.1076 -0.2572
53664W        W96758  33.544  15.913   7.156  0.0605 -0.1422 -0.0408
53665W        W96759  32.602  16.008   7.149  0.2409  0.1178  0.2857
53666W        W96760   0.045  18.476   4.844 -0.2178  0.2237 -0.2567
53667W        W96761   0.366  16.311   6.210  0.0133 -0.3432 -0.2293
53668W        W96762  32.491  16.118   6.200  0.1303 -0.3097 -0.1879
53669W        W96763  34.159  14.204   6.559  0.0625  0.4780 -0.3739
53670W        W96764  33.220  15.544   4.238  0.1441  0.1896  0.2565
53671W        W96765  32.142  17.856   4.027  0.2305  0.0208  0.2160
53672W        W96766  34.523  14.142   8.114  0.1412  0.1142  0.2089
53673W        W96767  33.297  15.097   4.792  0.0729  0.0796  0.2557
53674W        W96768  34.668  13.383   6.764  0.0201  0.0556  0.0204
53675W        W96769  33.523  15.078   6.900 -0.0076 -0.2302  0.1631
53676W        W96770  33.454  17.522   6.529  0.1456 -0.1811  0.2991
53677W        W96771   0.449  15.173   6.664  0.0200 -0.1814  0.0517
53678W        W96772  33.938  18.151   4.858  0.1297  0.1190 -0.0205
53679W        W96773   0.880  17.012   4.313  0.2039 -0.3553  0.0552
53680W        W96774  33.403  15.209   5.981 -0.0042  0.0371  0.2702
53681W        W96775  33.740  18.108   6.887  0.3586  0.1532  0.1966
53682W        W96776  34.203  17.104   2.616 -0.0969  0.2334  0.0033
53683W        W96777  33.254  17.404   4.246  0.2538 -0.1087  0.0729
53684W        W96778  31.655  18.150   5.684 -0.1943 -0.0888 -0.1680
53685W        W96779  32.809  15.919   5.034  0.3531  0.1312  0.0080
53686W        W96780  32.166  14.519   5.269  0.1604  0.0830 -0.0363
53687W        W96781  34.082  15.540   6.088 -0.0143  0.0093 -0.2892
53688W        W96782  34.690  14.680   5.988 -0.0333  0.0380  0.0344
53689W        W96783   1.139  16.854   6.087  0.1507 -0.2368  0.1353
53690W        W96784  33.918  16.483   7.619  0.0524 -0.1811  0.1497
53691W        W96785  31.407  13.216   5.171  0.2022 -0.0926 -0.4545
53692W        W96786   1.362  16.011   5.621  0.0813  0.0142  0.0442
53693W        W96787  33.628  17.449   5.409 -0.1829 -0.1429 -0.0328
53694W        W96788  34.061  15.539   4.732 -0.0644 -0.1502  0.0121
53695W        W96789  33.944  16.751   5.877 -0.2241  0.2252  0.0691
53696W        W96790  32.081  15.224   7.636  0.2994 -0.0199  0.0875
53697W        W96791   0.529  15.508   5.561 -0.0739 -0.0939 -0.0179
53698W        W96792  33.192  14.357   6.658 -0.2856  0.2547 -0.1923
53699W        W96793  34.519  15.689   5.904  0.1620  0.0684 -0.0067
53700W        W96794  33.194  17.151   6.411  0.2117  0.0258 -0.0600
53701W        W96795  34.440  17.317   6.718  0.1297 -0.0792  0.1276
53702W        W96796  34.437  15.964   5.292  0.2927  0.2766  0.0083
53703W        W96797  32.384  15.530   7.328  0.1161 -0.1229 -0.1786
53704W        W96798  34.255  16.263   6.569 -0.3109  0.1489  0.0016
53705W        W96799  33.747  16.205   6.758 -0.1085  0.0681 -0.0658
53706W        W96800  33.814  18.518   6.484 -0.0701  0.3053 -0.0603
53707W        W96801  33.938  16.398   4.062 -0.0687  0.1394 -0.0805
53708W        W96802  32.901  17.017   6.816 -0.2757 -0.0955 -0.1626
53709W        W96803  34.224  14.744   5.694 -0.1171 -0.1558  0.1927
53710W        W96804  34.036  14.646   6.927  0.0091  0.2191  0.2500
53711W        W96805  32.976  14.529   7.634  0.2208  0.1388 -0.2054
53712W        W96806  32.475  18.000   8.015  0.3807 -0.0851 -0.1063
53713W        W96807  34.285  15.113   4.624 -0.0544 -0.4159 -0.5044
53714W        W96808  33.631  16.679   6.782  0.1849  0.1536 -0.3241
53715W        W96809   0.654  16.095   5.650  0.1004  0.0002  0.1117
53716W        W96810  31.756  16.441   4.986  0.1464 -0.5585 -0.0695
53717W        W96811   0.036  16.047   4.314  0.0226  0.1331 -0.0971
53718W        W96812  33.086  17.409   5.512  0.0590  0.1463 -0.4645
53719W        W96813  33.228  15.059   7.938 -0.2432  0.0884 -0.1682
53720W        W96814  33.549  16.382   7.313 -0.3517 -0.0799 -0.4464
53721W        W96815  31.740  13.646   8.730  0.2622  0.2823  0.4153
53722W        W96816  33.828  16.320   5.724  0.1060 -0.0420 -0.1697
53723W        W96817  32.271  15.038   3.092 -0.2257  0.0979  0.0464
53724W        W96818   0.151  17.960   4.481  0.1134  0.3811 -0.0425
53725W        W96819  32.594  14.521   6.813  0.2626 -0.2936 -0.1534
53726W        W96820  34.292  18.504   6.668 -0.0248 -0.3405  0.2602
53727W        W96821  33.612  14.687   5.023  0.0439 -0.2013 -0.2933
53728W        W96822  32.902  15.519   4.627  0.0893 -0.4352 -0.2054
53729W        W96823   0.432  17.772   6.907  0.0454 -0.1264 -0.1310
53730W        W96824   0.328  14.700   4.377  0.2864 -0.1269  0.0089
53731W        W96825  33.607  16.807   5.027 -0.3525  0.0764 -0.1656
53732W        W96826  34.399  19.220   6.546  0.0695  0.0759  0.0277
53733W        W96827  33.001  16.092   6.255 -0.2755  0.2766 -0.2224
53734W        W96828  34.584  18.247   6.244 -0.2579  0.1060 -0.2694
53735W        W96829   0.975  16.172   6.007  0.0322 -0.0447 -0.0509
53736W        W96830  32.944  14.710   6.435  0.0951 -0.1981 -0.0241
53737W        W96831  34.686  16.101   6.771 -0.1093 -0.0856  0.1117
53738W        W96832  32.393  14.801   6.372 -0.0402  0.1140 -0.2404
53739W        W96833  34.544  13.990   3.849 -0.0885 -0.0181 -0.1221
53740W        W96834  32.646  17.449   7.156  0.1255 -0.0917  0.2264
53741W        W96835  32.391  15.335   6.203  0.1389  0.1392 -0.1704
53742W        W96836  33.676  17.360   4.929 -0.2328  0.1925  0.0860
53743W        W96837  33.567  14.607   4.527  0.2604  0.1729 -0.1884
53744W        W96838  34.015  17.506   6.261  0.1501  0.0957 -0.2682
53745W        W96839  33.967  17.767   4.013  0.3071  0.2422 -0.1019
53746W        W96840  34.065  15.838   5.622 -0.0002 -0.2474  0.3813
53747W        W96841  34.105  16.386   7.037  0.0661 -0.1666 -0.0398
53748W        W96842  33.438  14.268   5.201  0.1031  0.3129  0.2863
53749W        W96843  33.237  14.104   7.494 -0.1422 -0.2939 -0.1246
53750W        W96844  32.817  16.539   6.998 -0.1632  0.2293  0.1265
53751W        W96845  33.511  15.811   5.431 -0.1056  0.1590 -0.0353
53752W        W96846  34.213  17.032   6.243  0.1463  0.0641 -0.0857
53753W        W96847  34.213  17.304   4.037  0.0276 -0.1766 -0.2057
53754W        W96848  33.924  17.611   4.575  0.0202  0.1756  0.1697
53755W        W96849   0.462  18.217   5.962  0.2603 -0.0045 -0.0717
53756W        W96850   0.507  18.423   6.621 -0.1893 -0.1038 -0.0393
53757W        W96851  32.968  14.111   5.469  0.0037  0.0550 -0.0757
53758W        W96852  33.619  15.348   6.374  0.0712 -0.2186 -0.0284
53759W        W96853  33.122  15.557   6.124 -0.0739  0.0935  0.0209
53760W        W96854  32.705  15.626   6.402  0.0656 -0.1157  0.0747
53761W        W96855  33.772  15.046   4.678  0.0196 -0.1928 -0.1069
53762W        W96856  31.946  14.827   5.639  0.0359 -0.0477 -0.2692
53763W        W96857  33.040  16.958   5.871  0.2554 -0.0742 -0.0908
53764W        W96858  33.532  16.090   6.342  0.3000  0.2026  0.0673
53765W        W96859  32.314  14.502   5.941 -0.1213  0.1903 -0.4105
53766W        W96860  34.296  17.941   4.531  0.2311 -0.1677 -0.0084
53767W        W96861  32.087  14.125   7.933 -0.1579 -0.1729 -0.1143
53768W        W96862  34.360  15.117   6.110 -0.1158  0.1419  0.2590
53769W        W96863  33.168  15.494   5.620  0.1364 -0.0281  0.3440
53770W        W96864  33.925  16.696   5.345 -0.0565 -0.0185  0.0414
53771W        W96865  33.710  18.176   2.972  0.1471  0.3635 -0.2484
53772W        W96866   0.359  18.462   7.494  0.0057 -0.2240 -0.0847
53773W        W96867  33.242  16.645   6.222 -0.2411  0.0362 -0.0250
53774W        W96868  33.436  15.053   5.328 -0.0287 -0.0262  0.1073
53775W        W96869  34.320  15.281   5.593  0.0497  0.3553 -0.2765
53776W        W96870  34.355  15.983   4.741  0.0021  0.1657 -0.6225
53777W        W96871  33.359  16.955   4.633  0.1133  0.0297 -0.1357
53778W        W96872  34.484  16.884   5.698 -0.0865 -0.1368  0.1089
53779W        W96873  33.829  14.491   5.982  0.2863 -0.0653  0.0615
53780W        W96874  31.780  15.719   5.885 -0.0464  0.2305  0.0645
53781W        W96875  32.670  14.806   3.794 -0.2176 -0.2897  0.2995
53782W        W96876  33.737  15.524   4.283  0.1523 -0.0468 -0.1435
53783W        W96877  34.371  16.867   5.160 -0.3285  0.1809  0.1274
53784W        W96878   0.416  13.718   7.452 -0.0439 -0.1704 -0.0613
53785W        W96879  34.082  14.662   7.909 -0.1589  0.2251 -0.1032
53786W        W96880  32.146  17.247   5.018 -0.1831 -0.2360  0.0731
53787W        W96881  33.831  15.373   5.587 -0.2757 -0.2556  0.0567
53788W        W96882  32.453  14.939   5.873 -0.2639  0.1597  0.1071
53789W        W96883  32.575  12.952   7.656  0.4042  0.0824 -0.0139
53790W        W96884   0.045  15.087   4.089 -0.0393  0.0483 -0.0162
53791W        W96885  32.582  14.828   2.782  0.1634  0.1039 -0.0508
53792W        W96886  34.212  15.874   6.865  0.2159 -0.0797 -0.1361
53793W        W96887  34.004  15.093   6.631 -0.1970  0.0951 -0.3202
53794W        W96888  33.098  14.597   5.474 -0.1815  0.0944 -0.1861
53795W        W96889  33.848  14.973   6.087  0.0205 -0.2037 -0.1743
53796W        W96890  33.166  16.552   5.620 -0.0351 -0.0362 -0.0458
53797W        W96891   1.029  18.632   7.255  0.1091 -0.1003  0.2428
53798W        W96892  32.478  12.979   6.143  0.0492 -0.4074  0.1683
53799W        W96893  33.909  17.247   5.896 -0.0125 -0.0222 -0.0627
53800W        W96894  33.027  15.079   8.864 -0.3074  0.1775  0.3032
53801W        W96895  33.238  16.205   6.859 -0.1288 -0.1166  0.2610
53802W        W96896  33.859  15.779   6.452  0.0053 -0.1637  0.1462
53803W        W96897  32.772  15.866   5.877  0.1659 -0.1279 -0.0952
53804W        W96898  33.725  14.746   5.592  0.0070 -0.2048  0.0696
53805W        W96899  32.920  15.059   5.666  0.0472 -0.1038  0.1286
53806W        W96900  32.756  15.524   3.756 -0.0145  0.2786 -0.4233
53807W        W96901   0.789  19.887   5.831 -0.2442 -0.0472 -0.1128
53808W        W96902  31.875  13.887   7.171  0.3804  0.0243  0.5434
53809W        W96903  32.520  16.269   5.728 -0.1116 -0.0689 -0.2842
53810W        W96904  34.443  17.678   6.381 -0.0281  0.0377  0.0356
53811W        W96905  32.785  14.581   5.866  0.1192 -0.0738  0.1944
53812W        W96906  34.538  19.171   6.068 -0.1038 -0.0034  0.2796
53813W        W96907  34.530  15.696   9.235  0.1898 -0.1576 -0.1242
53814W        W96908  31.931  15.203   8.247 -0.0952  0.0478 -0.0068
53815W        W96909  32.834  16.933   9.210  0.1214 -0.2050 -0.0068
53816W        W96910   0.282  15.840   8.995 -0.0340 -0.0808 -0.0996
53817W        W96911  33.420  13.241   7.158  0.2004 -0.2023 -0.0893
53818W        W96912  34.249  11.787   9.836  0.1099 -0.0367 -0.0636
53819W        W96913  32.209  16.225   9.029  0.2341  0.1278 -0.2649
53820W        W96914  33.299  16.062   8.253  0.1464  0.2069 -0.0410
53821W        W96915  33.112  16.772   7.958  0.1919  0.0313  0.0537
53822W        W96916  33.254  16.014   9.556 -0.0143  0.1198 -0.0764
53823W        W96917   0.558  18.819   8.295 -0.3538  0.0882  0.1196
53824W        W96918  32.051  15.261   6.682  0.1809  0.1597 -0.1057
53825W        W96919  32.847  15.718   9.593 -0.3079  0.2430 -0.0365
53826W        W96920  33.831  15.273   8.157 -0.0052  0.1541  0.1745
53827W        W96921  34.375  17.728   9.769 -0.1315  0.2123  0.2414
53828W        W96922   0.064  19.155   9.191  0.0670  0.1476  0.3252
53829W        W96923  33.461  16.824   7.539  0.1736 -0.2705 -0.1195
53830W        W96924  31.965  18.210   8.210 -0.1611 -0.1490 -0.3327
53831W        W96925  33.927  16.688   8.164  0.0237  0.1083 -0.2288
53832W        W96926  32.711  17.773   8.534  0.1012 -0.2782  0.0181
53833W        W96927  34.391  17.574   7.216 -0.4019  0.0354  0.0586
53834W        W96928   0.699  17.353   7.291 -0.1623  0.3415 -0.1309
53835W        W96929  32.865  17.612   7.936  0.0777  0.0279 -0.0530
53836W        W96930  32.960  14.923   6.896 -0.1899 -0.2236  0.1346
53837W        W96931  32.729  15.502   6.948 -0.0397 -0.4283  0.0332
53838W        W96932  34.490  14.964   8.605  0.2820 -0.1420 -0.1594
53839W        W96933  33.201  19.093   9.049  0.0673 -0.2614 -0.0724
53840W        W96934  33.413  15.202   9.196  0.1536 -0.2086 -0.3674
53841W        W96935  32.508  20.301   9.155  0.0497  0.1521  0.0468
53842W        W96936  32.740  15.837   8.187  0.0851  0.0363  0.0105
53843W        W96937  32.629  18.371   7.239  0.0540 -0.4396  0.3165
53844W        W96938  34.471  14.966   7.010  0.0618  0.1239  0.5013
53845W        W96939  33.522  17.491   9.501  0.2369  0.1223  0.0769
53846W        W96940  33.863  16.806   7.199 -0.0175  0.0273  0.0330
53847W        W96941  32.952  16.739   7.499 -0.0576 -0.0199  0.1069
53848W        W96942  32.602  18.530   9.625  0.0748  0.3775 -0.2080
53849W        W96943  33.874  17.619   8.139 -0.1703 -0.0755  0.0707
53850W        W96944  33.203  17.293   7.744  0.1984  0.2233 -0.0274
53851W        W96945  33.403  18.923   7.370 -0.3041  0.1816 -0.1018
53852W        W96946  32.848  14.552   9.008 -0.3482 -0.1284 -0.0823
53853W        W96947  32.975  17.739   9.058  0.0767 -0.0844 -0.0280
53854W        W96948  33.170  18.059   8.665 -0.2297 -0.2349 -0.0803
53855W        W96949  30.795  17.711   9.376  0.0464 -0.2501  0.2394
53856W        W96950  33.012  16.301   9.863 -0.0432 -0.3677  0.3826
53857W        W96951  30.890  15.346   9.853  0.1497 -0.0606 -0.0516
53858W        W96952  32.358  16.548  10.125 -0.0709  0.1561  0.0079
53859W        W96953   0.037  16.543   8.260 -0.3644  0.1701 -0.2118
53860W        W96954  32.944  17.174   8.175  0.2233  0.1314  0.1084
53861W        W96955  33.640  15.647   9.670 -0.0542  0.0589  0.3314
53862W        W96956  33.361  14.767   7.424  0.1961 -0.1573 -0.1709
53863W        W96957  31.950  18.036   9.688 -0.0148  0.2768  0.2320
53864W        W96958  33.812  18.566   8.507  0.0364  0.0855 -0.0711
53865W        W96959  33.280  13.560   7.651  0.0334  0.2999 -0.2900
53866W        W96960  33.398  14.905   6.396  0.1394 -0.0656  0.0273
53867W        W96961  33.879  17.785   7.284  0.1204 -0.2816  0.0586
53868W        W96962  33.038  16.495   9.336 -0.0622  0.0057  0.1260
53869W        W96963   0.903  18.343   7.708  0.1234  0.2912  0.1808
53870W        W96964  31.790  14.871   7.850  0.0783  0.3182  0.1440
53871W        W96965   0.438  17.083   8.528 -0.0625  0.0248  0.0269
53872W        W96966  34.008  17.931   9.103  0.3491  0.1272 -0.1652
53873W        W96967   0.380  18.457   9.571  0.0551  0.2799 -0.0618
53874W        W96968  33.432  14.282   8.336 -0.0301 -0.0508 -0.0571
53875W        W96969   0.144  16.053   7.748 -0.0176 -0.2370 -0.0133
53876W        W96970  33.259  16.720   7.081  0.1285 -0.0380  0.1370
53877W        W96971  33.672  16.035   7.605 -0.2830 -0.0318 -0.0765
53878W        W96972  34.327  14.828   9.451  0.1445  0.1018 -0.1244
53879W        W96973  34.240  18.392   9.764  0.1221 -0.2452 -0.2286
53880W        W96974  33.303  18.305   7.919  0.0604  0.0497 -0.1197
53881W        W96975  33.053  17.197   7.265  0.0936 -0.1859  0.2055
53882W        W96976   0.809  14.417   8.082  0.3335 -0.2495  0.1099
53883W        W96977  32.616  19.344   9.152  0.0569  0.0372 -0.0155
53884W        W96978  34.539  17.026   7.100 -0.0001  0.0288 -0.2460
53885W        W96979  33.385  17.808   7.838  0.0793  0.4661  0.0995
53886W        W96980  32.359  17.532   8.055 -0.1863  0.0233  0.2915
53887W        W96981  33.891  15.800   9.009 -0.2586  0.1381  0.2803
53888W        W96982  31.334  16.719   8.563 -0.1003 -0.0977  0.0069
53889W        W96983  33.755  16.115   9.364  0.2389  0.2065  0.1107
53890W        W96984   0.403  14.285   8.789  0.1830 -0.0574  0.0720
53891W        W96985  31.993  18.705   9.760 -0.2504  0.2282  0.2266
53892W        W96986  32.676  13.459   7.505  0.0530  0.1274 -0.1492
53893W        W96987  32.901  16.352   8.085 -0.1874  0.0995 -0.2447
53894W        W96988  32.903  18.148   8.233 -0.2630  0.0927  0.0572
53895W        W96989  33.423  15.510   7.673  0.0208  0.1946  0.1379
53896W        W96990  33.138  17.653   8.344 -0.2838  0.0637 -0.0577
53897W        W96991   1.152  16.164   9.386  0.1849  0.0650 -0.0507
53898W        W96992  33.682  14.977   7.763 -0.5711 -0.2479 -0.2533
53899W        W96993  33.266  15.537   8.155 -0.2192  0.0747  0.2979
53900W        W96994   0.038  16.804   8.733 -0.1171 -0.2481  0.0404
53901W        W96995  31.926  17.387   8.477  0.0256  0.0273  0.2834
53902W        W96996  33.494  16.506   9.608 -0.2835 -0.2161  0.0214
53903W        W96997  33.606  17.045   7.997  0.0342 -0.1306  0.0338
53904W        W96998  34.491  16.470   9.412 -0.0152  0.2662 -0.1994
53905W        W96999  34.396  17.576   8.382  0.0439  0.2855  0.0321
53906W        W97000  33.683  15.762   7.999  0.1115 -0.3656 -0.0330
53907W        W97001  33.937  15.252   9.855  0.0534 -0.1662  0.0065
53908W        W97002  33.432  16.402   7.904  0.1525 -0.1409  0.2351
53909W        W97003  33.875  12.776  10.189 -0.1296 -0.3547 -0.0058
53910W        W97004  33.412  13.929   7.994 -0.2000 -0.2410  0.2354
53911W        W97005  32.352  17.889   9.031 -0.0814  0.3117 -0.0609
53912W        W97006  33.070  16.021   7.786  0.0657  0.4197 -0.0019
53913W        W97007  33.257  16.427   8.793  0.1479  0.3332 -0.1469
53914W        W97008  34.058  17.183   8.317  0.2882 -0.2291  0.0342
53915W        W97009  32.166  17.815   8.443 -0.0541 -0.1348 -0.0891
53916W        W97010  33.661  14.581   9.647  0.1057 -0.1690  0.0267
53917W        W97011  32.907  15.442   7.864  0.1897 -0.0268  0.0646
53918W        W97012   0.477  17.785   8.158 -0.1573  0.1164  0.1047
53919W        W97013  31.485  16.977   9.089  0.0147  0.1845  0.3183
53920W        W97014  33.078  15.279   6.594 -0.2409  0.1398 -0.0505
53921W        W97015  33.875  16.435   6.257 -0.0171 -0.2420 -0.0983
53922W        W97016  34.564  18.223   8.790  0.0251 -0.0514  0.0437
53923W        W97017   0.703  14.655   8.627  0.2022  0.0485  0.1173
53924W        W97018  32.409  17.946   7.157  0.1512 -0.1514  0.3928
53925W        W97019  32.123  16.912   9.766 -0.0356 -0.2439 -0.2681
53926W        W97020  34.277  16.695   8.529  0.0735 -0.4418  0.1551
53927W        W97021  34.672  16.889   9.199 -0.1592  0.1910  0.1454
53928W        W97022  33.052  17.505   9.581 -0.1316  0.1662  0.2349
53929W        W97023  30.624  20.525  10.219 -0.1405  0.0870  0.1704
53930W        W97024  32.882  14.620   8.159 -0.0296 -0.0156  0.0711
53931W        W97025  32.065  18.244   8.737 -0.0192 -0.1275  0.1045
53932W        W97026  34.343  18.097   9.378  0.0715  0.1048 -0.0827
53933W        W97027   0.095  14.569   7.217  0.2345  0.0610 -0.2094
53934W        W97028  33.698  18.637   7.678  0.1197 -0.0224 -0.1993
53935W        W97029  32.830  18.095   7.656 -0.1433  0.1039  0.1767
53936W        W97030  33.719  18.152   8.762  0.0853 -0.1783  0.3130
53937W        W97031  34.059  16.246   8.594  0.2814  0.0174 -0.3513
53938W        W97032  34.174  13.740   7.421  0.2430  0.1687  0.1202
53939W        W97033  32.900  16.095   8.580 -0.1480  0.2573  0.0352
53940W        W97034  32.387  17.123   9.370  0.1480 -0.0964 -0.2587
53941W        W97035  33.025  16.207   7.311  0.0950 -0.0809  0.0543
53942W        W97036   0.092  18.768   8.723  0.0511  0.0547 -0.1800
53943W        W97037  32.580  17.441   9.070 -0.0633 -0.4070  0.1026
53944W        W97038  33.019  19.329   9.465  0.1922  0.2044 -0.1594
53945W        W97039  31.800  14.416   8.241  0.2143  0.0211  0.2006
53946W        W97040  34.394  15.934   8.771  0.1043  0.1054  0.0674
53947W        W97041  31.832  16.411   8.673  0.1058 -0.1066  0.1878
53948W        W97042  33.730  15.402   8.852  0.0324 -0.1018 -0.1234
53949W        W97043  33.000  15.697   7.446 -0.1008  0.1889 -0.1443
53950W        W97044  30.964  16.533  10.247 -0.2190 -0.2309 -0.1270
53951W        W97045  32.083  17.424   8.954  0.0614 -0.1711  0.1746
53952W        W97046  34.147  16.738   9.052  0.3494 -0.2218 -0.2455
53953W        W97047  34.086  14.477   9.828  0.1283 -0.0664  0.1847
53954W        W97048  33.621  17.557   6.948  0.1204  0.1324 -0.3661
53955W        W97049  31.624  15.908   9.616 -0.0148 -0.0725 -0.0750
53956W        W97050   0.374  14.242   8.260  0.0912  0.0214 -0.0680
53957W        W97051  33.302  16.855   9.003  0.2211  0.2026 -0.0345
53958W        W97052  32.654  18.583   7.707 -0.0648  0.1347 -0.1319
53959W        W97053  34.042  17.648   6.728  0.0785 -0.0393 -0.3855
53960W        W97054   1.516  18.541   9.512 -0.2974  0.0944  0.3652
53961W        W97055  31.820  15.484   7.234  0.0922  0.0071 -0.0071
53962W        W97056   0.678  17.688   8.659 -0.1643  0.0429  0.3487
53963W        W97057   0.735  17.292   8.202 -0.2027  0.0077 -0.0964
53964W        W97058  34.680  15.727   8.396 -0.0900 -0.0032 -0.2515
53965W        W97059  33.631  14.722   8.227 -0.1557 -0.0851 -0.1803
53966W        W97060   0.841  16.582   9.574 -0.0458  0.4386 -0.0165
53967W        W97061  32.132  14.633   8.743 -0.0071  0.2836  0.2351
53968W        W97062  32.657  16.357   7.617  0.1406  0.0396 -0.0094
53969W        W97063  33.657  18.291   9.292  0.3125  0.1788 -0.1013
53970W        W97064  32.750  16.486   8.929 -0.1808 -0.0840  0.0567
53971W        W97065  32.716  14.976   7.784  0.0705 -0.0851  0.0293
53972W        W97066  34.138  16.236   9.076 -0.0648  0.0785 -0.0720
53973W        W97067  33.367  15.090   8.501 -0.3008  0.2678  0.1607
53974W        W97068  33.998  15.752   8.477 -0.0199  0.0687 -0.0668
53975W        W97069  32.863  17.144   8.773 -0.0232  0.1753 -0.0113
53976W        W97070  32.373  15.303   8.493  0.0846 -0.0132  0.1640
53977W        W97071   0.039  16.562   7.781  0.0115  0.0607  0.1200
53978W        W97072  32.759  13.442   9.597 -0.0741  0.0632  0.0017
53979W        W97073  33.435  15.724   9.194  0.2728  0.0300 -0.2881
53980W        W97074  32.706  16.164   9.394 -0.0589 -0.0266  0.1172
53981W        W97075   0.069  15.585   7.099  0.0085 -0.0148  0.0047
53982W        W97076  34.317  15.502   7.155 -0.3021 -0.0306  0.0942
53983W        W97077   1.158  18.949   9.352  0.1552 -0.1964 -0.0298
53984W        W97078  33.015  14.024   9.210 -0.2353  0.1604 -0.2585
53985W        W97079  32.510  16.965   7.209  0.1046  0.2188 -0.1169
53986W        W97080  34.385  18.904   9.600  0.1228  0.1318 -0.4548
53987W        W97081  32.530  15.185   8.999  0.2171  0.0291 -0.1132
53988W        W97082  34.583  17.137   8.468 -0.0013  0.0291  0.1584
53989W        W97083  33.972  21.306   3.372  0.1676 -0.1571  0.0212
53990W        W97084   0.536  19.649   0.669  0.4265 -0.1601  0.2875
53991W        W97085  32.165  19.799   2.866 -0.0793  0.2021 -0.0624
53992W        W97086  33.802  19.071   4.055  0.0467 -0.0036 -0.2086
53993W        W97087   0.632  18.874   1.847 -0.1916 -0.2169 -0.2062
53994W        W97088   0.724  21.634   3.136 -0.2167 -0.0520 -0.0595
53995W        W97089  34.099  18.936   1.179 -0.1927 -0.1357  0.0616
53996W        W97090  33.156  16.576   2.145  0.1402  0.0414 -0.2558
53997W        W97091  32.824  19.838   1.690  0.0072 -0.1870 -0.3642
53998W        W97092  34.272  19.143   1.582  0.0199  0.0033  0.0352
53999W        W97093  34.222  19.650   0.696 -0.2798 -0.1525 -0.0600
54000W        W97094  33.423  19.182   3.743  0.1234  0.2538 -0.1264
54001W        W97095  34.049  20.820   0.901  0.2508  0.1434  0.1100
54002W        W97096  33.068  19.263  31.947 -0.4115 -0.0994  0.0961
54003W        W97097  32.806  19.939   2.143  0.3228 -0.0718 -0.1938
54004W        W97098  34.094  18.580   3.479  0.2790  0.1359 -0.0190
54005W        W97099   0.449  21.573   2.162  0.1609  0.2155 -0.0362
54006W        W97100   1.539  20.144   1.566  0.0020 -0.1103 -0.1182
54007W        W97101  34.676  19.599   2.064  0.0606  0.1464 -0.0017
54008W        W97102  33.435  21.161   2.316 -0.0540  0.2397 -0.0654
54009W        W97103  33.936  20.325   0.090 -0.0904 -0.1520  0.3149
54010W        W97104  33.213  22.006   3.391 -0.1620  0.1641  0.2722
54011W        W97105  33.596  20.583   0.725 -0.0484 -0.0266 -0.1779
54012W        W97106  32.535  21.055   4.796  0.2034 -0.0420 -0.1745
54013W        W97107  34.449  21.406   3.268 -0.1040  0.0376 -0.2686
54014W        W97108   1.094  20.064   1.243  0.1424  0.1414  0.2734
54015W        W97109   0.242  19.755   3.292 -0.3894 -0.0521 -0.1498
54016W        W97110  33.990  20.711   2.352 -0.1237  0.0007  0.2177
54017W        W97111   0.608  21.183   1.838  0.0565  0.0836  0.0180
54018W        W97112  34.163  19.185   0.670  0.1356  0.2033  0.2338
54019W        W97113  33.799  19.303   1.013 -0.2730  0.0567  0.1267
54020W        W97114   0.913  20.559   3.123  0.0688  0.0716 -0.1058
54021W        W97115  33.469  18.952   2.882 -0.1983  0.0556  0.1578
54022W        W97116  33.224  21.612   2.361  0.0147 -0.0459  0.0740
54023W        W97117  34.577  20.076   1.970  0.0539  0.3628 -0.0336
54024W        W97118  33.471  19.678   1.150  0.0979 -0.2038 -0.2004
54025W        W97119  34.344  21.403   3.788 -0.3788 -0.0565 -0.0606
54026W        W97120  32.721  20.217   4.557  0.2728 -0.1267 -0.4044
54027W        W97121  33.861  17.998   1.051 -0.2079  0.1369  0.0450
54028W        W97122  32.917  21.242   3.974 -0.1392  0.0333  0.1312
54029W        W97123  34.345  21.416   2.200  0.0479  0.2807 -0.2262
54030W        W97124   0.374  19.123  30.171  0.0091  0.1571  0.0130
54031W        W97125   0.930  20.692   0.348 -0.0079 -0.3789  0.0647
54032W        W97126  32.399  20.505   3.227  0.0282  0.0066 -0.1091
54033W        W97127  34.314  19.133   4.000 -0.0970 -0.0666  0.0159
54034W        W97128  33.315  20.566   4.875 -0.0581  0.1068 -0.1245
54035W        W97129  32.561  20.357   0.902  0.0741  0.3252 -0.1634
54036W        W97130  33.730  20.246   3.131 -0.2062  0.0964 -0.0394
54037W        W97131  34.337  20.013   1.539  0.0509  0.0622 -0.1572
54038W        W97132  31.356  18.932   4.205 -0.0177  0.2194 -0.0747
54039W        W97133  33.725  20.847   3.297  0.1050 -0.2096 -0.2334
54040W        W97134  32.433  19.897   3.836  0.4930  0.0634  0.0111
54041W        W97135   0.152  20.143   1.499 -0.0074 -0.0921 -0.2288
54042W        W97136  33.651  19.974   2.085  0.0671 -0.0821 -0.0290
54043W        W97137  33.564  20.525   2.078 -0.0525 -0.0449 -0.0425
54044W        W97138  33.660  19.343   4.513  0.0117 -0.0151  0.1578
54045W        W97139  32.193  19.375   3.858  0.0318  0.1820  0.1048
54046W        W97140  33.453  16.452   0.296 -0.3004 -0.0266 -0.5578
54047W        W97141  33.607  18.541   1.265 -0.0496 -0.2413 -0.0113
54048W        W97142  33.208  19.876   3.071 -0.0607  0.2897 -0.2239
54049W        W97143  32.996  19.520   2.283  0.1108 -0.0886  0.2698
54050W        W97144   0.576  20.132   1.895  0.3009 -0.0550 -0.4602
54051W        W97145  34.107  20.496   2.895  0.2743 -0.0749 -0.2555
54052W        W97146  34.002  21.159   2.634  0.0520 -0.4603 -0.2314
54053W        W97147  33.695  19.589   0.530  0.1640  0.1762  0.0128
54054W        W97148  34.575  19.757   2.893 -0.1037  0.1316 -0.1396
54055W        W97149  33.134  18.259   0.459  0.2481 -0.1001  0.1027
54056W        W97150  33.353  20.584   0.303 -0.0400 -0.0229 -0.3292
54057W        W97151  34.529  18.983   0.053  0.0342 -0.1192  0.2522
54058W        W97152   0.644  20.747   1.604 -0.0608 -0.0754  0.2374
54059W        W97153  32.225  19.708   4.326 -0.0914  0.0696  0.3120
54060W        W97154   0.132  19.682  31.377 -0.0532  0.1650 -0.2053
54061W        W97155  32.547  20.762   3.772 -0.2326  0.0368 -0.1275
54062W        W97156  32.672  20.307   3.573  0.0761 -0.0006  0.1417
54063W        W97157   1.364  20.262   0.800 -0.0504 -0.0469  0.2037
54064W        W97158  34.273  20.087   2.435 -0.2589 -0.1208 -0.2744
54065W        W97159  32.830  21.178   2.950 -0.0807 -0.1760 -0.0027
54066W        W97160  34.290  19.593   3.555  0.0998  0.0535  0.0436
54067W        W97161   1.500  17.761   0.595 -0.0368  0.1590 -0.1559
54068W        W97162  31.625  22.214  31.935  0.1596 -0.1976 -0.2345
54069W        W97163  34.568  17.493   2.261  0.3495 -0.0775  0.1767
54070W        W97164  34.062  19.843   0.184 -0.1237  0.3246 -0.0266
54071W        W97165   0.071  18.781   3.426 -0.0452 -0.1619  0.0892
54072W        W97166  34.444  19.023   3.117  0.0524 -0.1066  0.0637
54073W        W97167  32.235  21.166   4.072 -0.1501  0.1192  0.1143
54074W        W97168   0.764  18.973   2.523  0.0615 -0.0695 -0.1484
54075W        W97169  33.136  20.717   2.173  0.3785 -0.0947 -0.0334
54076W        W97170   0.200  19.887   0.257  0.0106 -0.0662 -0.1419
54077W        W97171  34.125  18.485   0.993  0.0525  0.1123 -0.0806
54078W        W97172   1.359  20.536   3.374 -0.0146 -0.1092  0.1401
54079W        W97173   0.835  20.812  31.415 -0.1245  0.1308  0.2112
54080W        W97174  33.291  20.891   1.056  0.0380 -0.0460  0.0443
54081W        W97175  34.590  21.228   2.780 -0.1541 -0.0688 -0.0152
54082W        W97176  33.192  19.692  31.733 -0.4239  0.4007 -0.2656
54083W        W97177  32.351  19.870   2.344  0.2787 -0.5572  0.0545
54084W        W97178  33.632  19.237   3.257  0.0280 -0.1261 -0.2076
54085W        W97179   1.243  17.742   1.911  0.2651  0.2060 -0.0606
54086W        W97180  33.388  22.494   1.697 -0.1554 -0.1514  0.1175
54087W        W97181   0.223  19.249   4.135  0.0467  0.1774  0.3168
54088W        W97182  33.181  19.326   0.836  0.0800  0.5389  0.0287
54089W        W97183  33.695  18.987   1.524  0.3596 -0.0556 -0.0236
54090W        W97184  33.318  20.382   2.487  0.0514 -0.0527 -0.2282
54091W        W97185   0.121  20.747   1.454  0.0299  0.3054  0.0772
54092W        W97186  33.256  20.501   2.988 -0.2279  0.2018  0.2154
54093W        W97187  33.172  19.601   4.625  0.5132 -0.1569 -0.2477
54094W        W97188  34.242  18.589   2.299  0.0274  0.1833  0.2460
54095W        W97189  33.809  19.582   1.453  0.1323  0.4187 -0.1749
54096W        W97190   1.057  18.870   1.458 -0.1328  0.2841 -0.0990
54097W        W97191   1.351  18.429   3.120 -0.2018 -0.1939 -0.0322
54098W        W97192  33.759  21.929   3.223 -0.1537 -0.0288 -0.0553
54099W        W97193   0.781  20.722   2.622 -0.0466  0.0742  0.0893
54100W        W97194  31.448  21.548   4.324 -0.0661  0.3530  0.0244
54101W        W97195  33.862  21.728   1.246  0.1768  0.1120 -0.0938
54102W        W97196  33.229  19.436   2.788 -0.2850 -0.0016 -0.1864
54103W        W97197  34.382  20.480   4.010  0.0383 -0.1458  0.1942
54104W        W97198  34.520  20.652   0.979 -0.1723  0.1985  0.2460
54105W        W97199  33.961  20.493   3.586 -0.0563  0.0355  0.1523
54106W        W97200  33.731  18.859   0.813 -0.5045  0.1869  0.4186
54107W        W97201  33.288  19.548   3.423 -0.1006 -0.1239 -0.0822
54108W        W97202  32.133  20.166   4.192 -0.1397 -0.0546  0.0168
54109W        W97203  34.554  20.068   3.681  0.2011 -0.2984 -0.0988
54110W        W97204  33.234  16.866   1.563  0.0010 -0.3535  0.1184
54111W        W97205   0.665  19.376   1.829 -0.0609 -0.1116  0.1935
54112W        W97206   0.263  20.801   0.664 -0.2247 -0.1210  0.0008
54113W        W97207   0.440  20.500   2.929  0.1277  0.0828  0.1086
54114W        W97208   0.316  20.373   1.045  0.1237 -0.1413 -0.1282
54115W        W97209  34.081  20.282   2.008  0.3131  0.0154  0.2101
54116W        W97210  33.424  19.085   1.957 -0.1888  0.0760  0.1258
54117W        W97211   0.890  18.895   4.034  0.2055  0.0607  0.1346
54118W        W97212  32.498  19.567   3.454  0.0789 -0.0902  0.0199
54119W        W97213  33.275  19.676   1.913 -0.0934 -0.1346 -0.1162
54120W        W97214  33.932  16.631   0.797  0.1299 -0.2397 -0.0583
54121W        W97215   0.078  21.661   1.183 -0.0299  0.1420  0.0587
54122W        W97216  32.542  19.446   2.547  0.0290  0.1872  0.1359
54123W        W97217  33.518  21.567   3.537 -0.0333  0.1788 -0.1176
54124W        W97218  33.999  19.172   0.202 -0.3267 -0.1469  0.1209
54125W        W97219   0.507  19.654  31.766  0.2529  0.0425  0.1467
54126W        W97220   1.060  21.137   2.129  0.0299 -0.0201 -0.5162
54127W        W97221  34.482  16.782  31.858  0.3184 -0.1486 -0.1642
54128W        W97222  33.929  20.544   1.624  0.2828 -0.1252  0.2289
54129W        W97223  34.680  21.786   2.000 -0.0780  0.1840  0.2787
54130W        W97224  33.534  21.488   1.894  0.0690 -0.3635 -0.1444
54131W        W97225  33.559  19.453   2.317  0.0301  0.1177 -0.1430
54132W        W97226   0.456  19.759   2.245  0.0573 -0.0306 -0.1392
54133W        W97227   1.149  20.845   1.744 -0.1974  0.0033  0.4838
54134W        W97228   0.530  21.066   2.287 -0.2486 -0.1191 -0.0531
54135W        W97229  32.929  19.315   3.743  0.3805 -0.0172  0.0297
54136W        W97230  34.106  18.544  31.515 -0.2450 -0.0114  0.3178
54137W        W97231  33.238  21.029   3.153  0.0656  0.2121 -0.2270
54138W        W97232  33.462  19.924   2.634 -0.0442  0.1971  0.0563
54139W        W97233  34.261  20.937   1.872  0.2024  0.0404  0.0859
54140W        W97234  34.620  19.294  31.662  0.2639  0.2608  0.0271
54141W        W97235  33.108  21.146   1.895  0.1100  0.1743 -0.1428
54142W        W97236  33.063  20.267   1.058  0.0455 -0.1348  0.2253
54143W        W97237  33.929  21.330   1.531 -0.1050  0.2015  0.1415
54144W        W97238   0.266  20.504   1.903  0.3314 -0.0521 -0.2056
54145W        W97239   0.499  19.137  30.773 -0.2765 -0.4251 -0.1509
54146W        W97240  34.541  19.653   4.004 -0.1506  0.1725  0.2460
54147W        W97241  33.203  21.548   4.314 -0.1265 -0.3674  0.0257
54148W        W97242  34.038  18.605   0.001 -0.0418 -0.2228 -0.1749
54149W        W97243   0.404  19.885   1.092 -0.1791  0.0219 -0.1930
54150W        W97244   0.428  20.556  31.579  0.0136 -0.1591 -0.0104
54151W        W97245   0.055  21.646   2.495 -0.1225  0.2398  0.1332
54152W        W97246  33.386  21.066   3.602 -0.1547 -0.2733  0.3466
54153W        W97247  34.689  22.280   2.164  0.0732  0.0137  0.1569
54154W        W97248  33.519  19.103   0.392 -0.0092 -0.0412 -0.0775
54155W        W97249  34.149  19.978   4.004 -0.0781 -0.3048 -0.1452
54156W        W97250  34.580  20.018   1.075  0.2237  0.0983 -0.0491
54157W        W97251  32.872  20.243   3.051 -0.1044 -0.0550  0.1630
54158W        W97252  34.616  18.780  31.507 -0.2278 -0.4320 -0.0480
54159W        W97253  33.909  18.951   2.065 -0.0076 -0.1102  0.0840
54160W        W97254  34.206  19.335   2.145  0.1070 -0.1364 -0.1627
54161W        W97255  34.099  19.993   2.896  0.1392  0.0237  0.0905
54162W        W97256  32.539  18.873   0.432 -0.0400 -0.0198  0.2917
54163W        W97257  34.422  21.987   0.129 -0.0560 -0.0165  0.1867
54164W        W97258  31.026  19.819   3.363 -0.1264 -0.2242  0.2047
54165W        W97259   0.758  18.689   0.742 -0.1801  0.3042  0.1152
54166W        W97260  32.794  19.477   3.054  0.0576  0.0649 -0.2978
54167W        W97261  32.992  21.863   0.901  0.2738  0.0464  0.1421
54168W        W97262  33.308  21.699   1.334 -0.0602  0.1887 -0.1566
54169W        W97263  34.216  20.990   3.084  0.1923  0.1133  0.1222
54170W        W97264   0.409  21.825   3.913 -0.4459 -0.3128 -0.3727
54171W        W97265   0.388  19.062  31.693  0.0015 -0.0074  0.0281
54172W        W97266   0.120  19.054   2.624  0.0804  0.0128 -0.1569
54173W        W97267  34.439  20.006  31.354  0.1136  0.1471 -0.0481
54174W        W97268   0.049  21.075   2.068  0.1371  0.0768  0.1322
54175W        W97269  33.303  19.390   1.571 -0.1458  0.2011 -0.0944
54176W        W97270  34.543  18.678   2.749  0.2592  0.0511  0.0708
54177W        W97271   0.069  20.186   3.084 -0.0535 -0.3096 -0.0653
54178W        W97272  33.659  20.814   2.785  0.0717  0.1097  0.0636
54179W        W97273  34.123  20.386   0.568  0.0876 -0.1781 -0.3304
54180W        W97274  34.487  20.637   2.245  0.1322  0.0013 -0.1873
54181W        W97275  33.044  17.996   4.209  0.2931  0.0568  0.1772
54182W        W97276  34.124  20.044   3.381  0.0498  0.1080 -0.1758
54183W        W97277  33.784  19.427   1.891 -0.2614  0.3901 -0.0197
54184W        W97278  33.120  19.113   3.186 -0.0710  0.2930 -0.1252
54185W        W97279  33.281  20.287   3.509  0.1999  0.0301  0.0895
54186W        W97280  33.055  17.593   2.177  0.0012  0.3412 -0.3174
54187W        W97281  34.346  17.936   1.001  0.0557 -0.1119  0.1406
54188W        W97282  33.602  19.907  31.963  0.3512 -0.0067  0.1056
54189W        W97283   0.403  18.622   3.987  0.3078 -0.0082  0.0550
54190W        W97284  33.804  19.469   3.667  0.0047  0.0634 -0.1060
54191W        W97285  34.518  18.318   1.326 -0.0812  0.3486 -0.0780
54192W        W97286   0.523  19.384   2.792  0.1674  0.2953  0.2098
54193W        W97287   0.563  20.157   3.296 -0.0227 -0.0556 -0.2636
54194W        W97288  34.693  20.693   2.987  0.0071  0.0546 -0.0169
54195W        W97289  33.546  18.703   3.775  0.2502  0.0276  0.1911
54196W        W97290   0.846  21.224   2.629 -0.0622  0.2632  0.2390
54197W        W97291  33.298  18.508   2.960  0.3437  0.5150  0.1296
54198W        W97292  33.386  20.202   5.320  0.0639 -0.0934 -0.0162
54199W        W97293  34.011  18.163   1.904  0.1916  0.0871  0.0707
54200W        W97294  33.966  19.680   2.468 -0.1668 -0.0077 -0.2659
54201W        W97295   1.032  17.606   0.400 -0.1709  0.2217 -0.2203
54202W        W97296  33.736  19.446   2.796 -0.0797  0.3466 -0.0152
54203W        W97297  33.877  19.981   0.880  0.0087  0.0978  0.2601
54204W        W97298   0.854  21.608   1.288  0.0555 -0.2024 -0.3435
54205W        W97299  32.487  18.958   3.830  0.1064  0.1179 -0.2274
54206W        W97300  34.535  19.549   1.586  0.0721  0.0287 -0.3564
54207W        W97301   0.902  19.837   1.659 -0.2062  0.1892 -0.0072
54208W        W97302  33.617  18.909  31.805  0.0443 -0.2265  0.0859
54209W        W97303  34.315  22.164   2.870 -0.0971 -0.0484 -0.0519
54210W        W97304  33.824  21.896   7.444  0.3476  0.1073 -0.4693
54211W        W97305  34.242  18.202   3.990  0.1521  0.2387 -0.0213
54212W        W97306  32.031  19.444   5.541 -0.0927 -0.1683  0.2878
54213W        W97307   0.021  18.288   6.790  0.0161  0.1362 -0.3243
54214W        W97308   0.636  19.339   6.043  0.2953 -0.0592  0.1755
54215W        W97309  34.482  21.248   6.426  0.0069 -0.0806 -0.1632
54216W        W97310  33.268  17.957   3.756  0.1435  0.4152  0.0934
54217W        W97311  32.989  18.884   6.595 -0.0522 -0.3329  0.1509
54218W        W97312  32.244  20.257   5.618  0.1114 -0.0743 -0.1043
54219W        W97313  34.463  21.129   6.906  0.1410  0.0778  0.1404
54220W        W97314   0.907  18.806   6.659  0.4194  0.1209  0.3331
54221W        W97315   0.062  18.562   5.894  0.1298  0.0754  0.0283
54222W        W97316   1.861  19.662   5.020  0.1082 -0.3127  0.0300
54223W        W97317  33.861  19.502   5.120 -0.1446  0.1396  0.2807
54224W        W97318  30.517  19.496   5.654 -0.2165  0.2184 -0.0343
54225W        W97319  33.196  21.268   7.109  0.2572 -0.1864  0.2759
54226W        W97320  34.586  21.991   5.987  0.1112 -0.3439 -0.1141
54227W        W97321   0.412  19.893   5.404 -0.0965  0.0498  0.1807
54228W        W97322  31.239  21.108   4.906  0.2103 -0.3298 -0.0344
54229W        W97323  32.177  21.635   5.759  0.1511 -0.1310 -0.0444
54230W        W97324  34.499  20.514   4.955  0.2659  0.1543  0.0482
54231W        W97325  33.792  21.758   6.585 -0.2924 -0.1538 -0.2508
54232W        W97326  32.081  20.684   4.175 -0.0638 -0.4446 -0.1996
54233W        W97327  33.730  20.006   8.926  0.0155 -0.7393 -0.0405
54234W        W97328  33.711  21.327   4.431 -0.0676  0.0856 -0.0512
54235W        W97329   0.256  20.703   4.745  0.1439  0.1370 -0.2617
54236W        W97330  33.297  20.581   6.929 -0.0617 -0.1600 -0.0019
54237W        W97331  33.481  21.376   6.690 -0.3917  0.3896  0.1610
54238W        W97332  33.076  20.559   4.455 -0.0560 -0.0505  0.2304
54239W        W97333  33.462  18.779   4.328 -0.2243 -0.4243  0.3558
54240W        W97334   0.858  18.518   6.197  0.1004  0.0698 -0.1991
54241W        W97335  33.898  20.974   5.426 -0.2998  0.0461 -0.1465
54242W        W97336   0.258  20.046   6.168  0.1480 -0.0222 -0.0636
54243W        W97337  34.506  20.681   7.127  0.0256  0.2407  0.2259
54244W        W97338  32.150  18.893   5.699 -0.0736 -0.0749 -0.1540
54245W        W97339  33.969  18.320   6.027  0.1118  0.0689 -0.2084
54246W        W97340  32.149  19.769   7.231  0.2109 -0.3397  0.2544
54247W        W97341  33.315  19.632   6.933  0.1007 -0.0716  0.2069
54248W        W97342  32.651  19.236   4.218 -0.3046  0.4350 -0.2975
54249W        W97343  33.242  21.928   6.596  0.2286 -0.1827  0.0685
54250W        W97344  34.461  21.313   5.470 -0.1574 -0.1848  0.2646
54251W        W97345   0.570  20.083   4.399  0.1146  0.2025  0.0762
54252W        W97346  33.635  19.790   4.250 -0.0999 -0.1093 -0.0609
54253W        W97347  33.075  21.540   5.361  0.1900 -0.0322  0.0845
54254W        W97348  34.612  19.480   7.403 -0.0378  0.1101  0.2230
54255W        W97349   0.077  20.240   8.066  0.0047 -0.0914  0.0336
54256W        W97350  33.626  21.744   2.767 -0.1063  0.0025 -0.0170
54257W        W97351  32.061  19.810   5.890  0.0068 -0.0866 -0.1218
54258W        W97352  32.815  20.460   5.590  0.1508  0.0049 -0.0667
54259W        W97353  34.206  19.337   6.989  0.0227 -0.0907 -0.2275
54260W        W97354  33.883  20.524   5.677 -0.0159 -0.0635  0.0904
54261W        W97355  34.118  19.507   6.073  0.1913 -0.1846 -0.1189
54262W        W97356  33.562  20.660   4.403  0.1613 -0.1243  0.0612
54263W        W97357  31.767  20.371   6.509  0.0595 -0.0648  0.1412
54264W        W97358  33.321  18.456   6.496 -0.1870 -0.1682 -0.0327
54265W        W97359  33.961  19.781   7.102 -0.1342  0.0184  0.1691
54266W        W97360  33.569  18.330   5.414 -0.2487 -0.0413 -0.1746
54267W        W97361  32.617  17.964   3.913 -0.0789 -0.2194 -0.0421
54268W        W97362  34.345  18.441   4.389 -0.1834  0.0218 -0.1177
54269W        W97363  32.830  20.502   4.940 -0.0956 -0.3245  0.0271
54270W        W97364   0.152  19.948   6.729  0.2148 -0.0684  0.1523
54271W        W97365  34.065  19.726   4.615 -0.0345  0.0130  0.1674
54272W        W97366  34.244  20.938   5.057  0.1132  0.1033  0.3398
54273W        W97367   0.047  20.987   5.180  0.0439 -0.2691 -0.0934
54274W        W97368  33.173  19.629   5.948  0.2411 -0.2704 -0.2164
54275W        W97369  32.241  19.438   6.863 -0.3154 -0.3397  0.0458
54276W        W97370  32.925  19.858   4.174 -0.2730  0.0419 -0.1726
54277W        W97371  33.594  21.730   4.051  0.1954 -0.0800  0.0938
54278W        W97372  33.506  19.898   4.940  0.1309 -0.1179  0.1218
54279W        W97373  34.111  20.034   5.856 -0.2987  0.0682 -0.0703
54280W        W97374  33.435  19.825   8.576 -0.2520  0.1123 -0.0343
54281W        W97375  33.458  19.650   5.397  0.0511  0.2179  0.1987
54282W        W97376  34.009  20.771   8.500  0.0584 -0.1819 -0.0082
54283W        W97377  33.681  20.985   8.875  0.0926  0.1937  0.2970
54284W        W97378   1.410  20.252   4.429  0.0957 -0.2097 -0.1547
54285W        W97379  33.572  19.863   5.843 -0.1549  0.1408 -0.1256
54286W        W97380  33.758  20.674   6.696  0.1658  0.1324  0.1535
54287W        W97381   0.273  17.421   6.598 -0.0668 -0.1180  0.0385
54288W        W97382   0.092  20.167   4.107  0.0475 -0.2657 -0.1682
54289W        W97383  33.894  20.538   5.140 -0.1509  0.1519 -0.1333
54290W        W97384   0.153  18.529   8.270 -0.1811 -0.0177 -0.0475
54291W        W97385   0.373  19.752   3.935  0.0740 -0.0829 -0.2388
54292W        W97386  34.685  19.504   6.898 -0.0388  0.1307  0.0988
54293W        W97387  33.139  21.046   6.664  0.3401 -0.1201 -0.0951
54294W        W97388  33.442  21.768   7.047  0.0764 -0.2688  0.0010
54295W        W97389   0.827  19.307   6.533  0.3211  0.2664 -0.2193
54296W        W97390   0.068  20.645   4.310 -0.1439  0.1631 -0.1917
54297W        W97391  33.748  20.263   4.640 -0.2681  0.1455  0.2003
54298W        W97392  33.899  18.680   5.297  0.1588  0.0793  0.0641
54299W        W97393   0.162  21.707   6.308 -0.0362  0.2105 -0.2621
54300W        W97394  34.639  21.017   3.953  0.0162 -0.0613  0.0111
54301W        W97395  33.363  19.313   5.068 -0.2629 -0.1325 -0.3140
54302W        W97396  32.913  21.589   6.332  0.1338 -0.1819 -0.3095
54303W        W97397  33.784  18.606   4.641  0.3427 -0.3366 -0.2121
54304W        W97398  32.538  20.351   4.082 -0.1329 -0.0262 -0.1969
54305W        W97399  34.126  18.080   6.459 -0.0393  0.0114 -0.0160
54306W        W97400  34.384  19.985   6.797 -0.0979  0.1462 -0.0155
54307W        W97401  33.452  21.537   7.536  0.1689 -0.2513  0.2091
54308W        W97402   0.825  20.006   8.230 -0.2522 -0.0246 -0.3261
54309W        W97403  34.069  19.471   4.196 -0.0336 -0.0836  0.0473
54310W        W97404  32.564  18.670   5.751 -0.1980  0.0305  0.3556
54311W        W97405  32.658  20.898   5.939 -0.1138 -0.0736  0.1221
54312W        W97406  33.335  20.451   6.471  0.4276  0.2918 -0.0272
54313W        W97407  34.251  20.799   6.634 -0.1495 -0.0771  0.3260
54314W        W97408  34.320  20.309   7.863 -0.2020 -0.0470 -0.1693
54315W        W97409  34.283  18.603   5.707 -0.1283  0.2017  0.1562
54316W        W97410  34.114  18.139   5.492 -0.0955 -0.3005  0.0120
54317W        W97411  33.854  19.057   4.917  0.0667  0.1630  0.0308
54318W        W97412   1.047  18.982   6.248 -0.0574  0.2986  0.0310
54319W        W97413  33.933  21.612   7.862  0.1251 -0.1116 -0.4434
54320W        W97414  32.900  18.974   5.171  0.2809 -0.0234 -0.0821
54321W        W97415  31.866  19.851   5.205  0.0183  0.1449  0.0873
54322W        W97416  33.677  19.134   5.424  0.0610  0.1156 -0.0260
54323W        W97417   1.221  19.369   5.960 -0.1563 -0.1684 -0.0353
54324W        W97418  33.044  21.038   5.614 -0.2159  0.3733 -0.1500
54325W        W97419  33.565  21.182   5.838 -0.2776  0.0246  0.3960
54326W        W97420  33.584  20.993   7.019 -0.0166  0.1051 -0.1240
54327W        W97421   0.558  18.927   4.380 -0.0304 -0.3527  0.4331
54328W        W97422  33.373  18.779   5.151  0.1195  0.0203  0.0200
54329W        W97423  32.419  18.802   6.254  0.0866 -0.1387  0.3554
54330W        W97424  33.512  20.123   7.225  0.0645 -0.1150  0.0640
54331W        W97425  33.784  18.207   3.836  0.2224 -0.2027  0.2046
54332W        W97426   0.547  21.425   7.073  0.2977  0.0278 -0.0246
54333W        W97427  33.792  19.976   5.382 -0.0809  0.2333  0.1972
54334W        W97428  33.407  19.969   6.598 -0.0411  0.2879  0.1428
54335W        W97429   0.953  21.045   3.178 -0.0723  0.1084 -0.0949
54336W        W97430  34.041  20.676   4.640 -0.0522  0.3799  0.3523
54337W        W97431   0.383  19.556   6.409  0.1113 -0.1258 -0.1865
54338W        W97432  33.687  20.469   8.723 -0.3447 -0.3403 -0.1061
54339W        W97433  32.805  19.508   6.861 -0.0714  0.1452  0.1669
54340W        W97434  33.052  18.571   6.964  0.1606  0.2216 -0.0717
54341W        W97435  34.061  19.074   5.793  0.1603 -0.0976 -0.3122
54342W        W97436  34.334  22.572   3.553  0.0212 -0.2142 -0.1928
54343W        W97437  31.811  18.797   4.759 -0.0890  0.0076  0.0695
54344W        W97438  33.836  21.466   7.160 -0.0209 -0.2620 -0.0553
54345W        W97439  33.544  17.849   4.695  0.0716  0.2105 -0.1223
54346W        W97440  34.462  19.343   4.492 -0.2175  0.0839 -0.0151
54347W        W97441   0.928  21.744   7.168  0.2346  0.0705 -0.0189
54348W        W97442  34.547  17.843   5.566  0.0926  0.1281  0.1512
54349W        W97443  32.956  19.977   5.430  0.3723 -0.0736 -0.0882
54350W        W97444  33.892  21.429   6.260 -0.1374  0.2064  0.0566
54351W        W97445  32.678  19.649   6.108 -0.0756 -0.3651 -0.2197
54352W        W97446   0.492  21.325   5.252 -0.0119 -0.1027  0.0617
54353W        W97447  33.653  20.954   4.923  0.0792  0.0830  0.1708
54354W        W97448   0.176  19.560   5.959  0.0781 -0.3946  0.1436
54355W        W97449  33.505  21.007   6.337 -0.1461  0.5104 -0.1816
54356W        W97450  33.921  19.550   6.661 -0.1678  0.1032 -0.0096
54357W        W97451  33.850  16.875   4.578  0.0797 -0.0570 -0.0457
54358W        W97452  32.687  20.804   7.684 -0.3249 -0.1139  0.0425
54359W        W97453  31.731  18.065   6.798  0.2841 -0.1051 -0.1358
54360W        W97454  32.348  20.495   4.655 -0.1994  0.1953  0.2091
54361W        W97455   0.859  18.497   4.325  0.0964 -0.2320 -0.2753
54362W        W97456  32.644  20.138   5.998  0.2829 -0.2694 -0.0625
54363W        W97457  32.394  21.293   3.603 -0.0749 -0.2093  0.0882
54364W        W97458  32.147  21.047   4.534  0.2261  0.3816  0.0315
54365W        W97459  32.856  20.515   6.200  0.1321 -0.0629 -0.1482
54366W        W97460  34.105  18.959   4.479 -0.3886  0.1328  0.0540
54367W        W97461  33.230  20.561   7.464 -0.1435  0.0734 -0.0995
54368W        W97462  32.054  21.729   6.826  0.0025  0.0769 -0.0078
54369W        W97463  33.916  18.162   4.351  0.4177 -0.1394  0.1076
54370W        W97464   0.010  18.838   4.356 -0.1594  0.2188 -0.2177
54371W        W97465   0.183  20.454   3.531  0.1831 -0.4057  0.1931
54372W        W97466   0.084  20.220   4.607  0.0599  0.2746 -0.2060
54373W        W97467  33.888  21.475   5.483 -0.1080  0.4406  0.0326
54374W        W97468  33.955  21.883   5.780  0.0345  0.0482  0.0459
54375W        W97469  32.289  17.959   4.530 -0.0675 -0.1371  0.1337
54376W        W97470   0.108  20.840   6.639 -0.0436  0.1325  0.1599
54377W        W97471  32.563  19.302   6.427  0.0226 -0.1501 -0.0644
54378W        W97472  33.434  20.752   5.326  0.1492 -0.1426  0.4219
54379W        W97473  34.165  19.507   3.088 -0.3737 -0.1545 -0.2732
54380W        W97474  32.929  19.207   5.986 -0.0579 -0.1003  0.1174
54381W        W97475  33.336  18.903   6.160 -0.1195  0.0207 -0.0497
54382W        W97476   1.170  19.519   6.874 -0.4520  0.3447  0.0577
54383W        W97477  33.141  18.948   5.646 -0.0098  0.1758  0.0461
54384W        W97478  32.615  20.811   4.241 -0.1421  0.0971 -0.1452
54385W        W97479  33.651  19.533   6.234  0.2846 -0.2250  0.1300
54386W        W97480   0.041  16.395   4.763  0.0395 -0.1539 -0.1728
54387W        W97481  33.507  19.275   5.863  0.0520 -0.3085  0.0597
54388W        W97482  33.417  21.559   6.246 -0.0516 -0.0009  0.3100
54389W        W97483  33.365  21.020   4.118  0.0304 -0.0788 -0.3401
54390W        W97484  34.475  19.819   6.176 -0.1211  0.1441  0.0810
54391W        W97485  34.005  22.045   6.934  0.3448  0.2628 -0.1619
54392W        W97486  32.971  20.025   4.924 -0.0079  0.0902 -0.2697
54393W        W97487  34.204  21.298   7.442  0.1189 -0.2125  0.3107
54394W        W97488   0.164  20.521   5.309  0.2092  0.1008  0.0100
54395W        W97489  34.306  20.297   5.458 -0.0482  0.0367  0.0789
54396W        W97490   0.633  19.289   3.935 -0.1058  0.1961  0.2228
54397W        W97491  32.888  18.186   5.891 -0.3400  0.0628 -0.1617
54398W        W97492  34.048  20.860   7.107  0.2632 -0.1056 -0.0618
54399W        W97493  32.335  18.902   4.341 -0.0924 -0.2069  0.1497
54400W        W97494  33.029  20.582   3.827  0.0872 -0.2452  0.2040
54401W        W97495  34.351  20.323   6.324 -0.2109 -0.2056 -0.1058
54402W        W97496  34.656  18.070   8.267 -0.0294  0.1203 -0.0833
54403W        W97497  33.217  20.123   6.068 -0.1214 -0.0022  0.0394
54404W        W97498  33.425  20.647   5.872  0.1687  0.2552  0.0662
54405W        W97499  32.769  18.704   4.398 -0.0804 -0.2491  0.0067
54406W        W97500  34.161  17.678   5.074  0.0454  0.1602 -0.0198
54407W        W97501  32.553  17.624   4.269 -0.0130  0.0580 -0.1122
54408W        W97502   1.242  17.924   5.266  0.2150 -0.1795  0.0477
54409W        W97503  31.841  20.381   4.624 -0.2753 -0.0048  0.1208
54410W        W97504  34.377  19.840   7.733 -0.1779 -0.4077  0.3897
54411W        W97505  34.208  20.349   7.322 -0.0827 -0.0084  0.1097
54412W        W97506  32.559  17.605   4.820  0.0149 -0.1030 -0.0335
54413W        W97507  34.658  20.403   5.852  0.0071  0.2017  0.1743
54414W        W97508  34.303  21.539   5.927 -0.2049  0.0073  0.1943
54415W        W97509   0.197  21.482   7.724 -0.1729 -0.3712 -0.1206
54416W        W97510  32.179  18.084   6.633 -0.1997 -0.1609  0.0200
54417W        W97511  33.616  21.510   8.971 -0.0209 -0.0098 -0.0326
54418W        W97512  33.892  19.018   6.330 -0.1431 -0.1118 -0.3130
54419W        W97513  32.485  20.880   6.797  0.2884 -0.1450 -0.1622
54420W        W97514  33.517  18.769   6.895  0.2577  0.1386 -0.1844
54421W        W97515  32.293  19.563   5.122  0.2574  0.1446 -0.3671
54422W        W97516  34.270  20.253   4.500 -0.0209  0.1628 -0.1466
54423W        W97517  34.622  21.007   7.524 -0.2392  0.1649 -0.1096
54424W        W97518  34.242  18.580   4.839  0.0351  0.4025 -0.0041
54425W        W97519  34.374  21.741   7.525  0.0602  0.1040 -0.0398
54426W        W97520  33.969  18.877   7.349  0.0025 -0.2346 -0.2290
54427W        W97521  34.076  20.114   4.969 -0.2443 -0.0990  0.3337
54428W        W97522   0.847  19.698   4.528  0.0201 -0.4299 -0.1696
54429W        W97523   0.654  20.000   6.489  0.0563  0.2462  0.1252
54430W        W97524  34.579  21.852   8.068 -0.1473 -0.1034  0.1249
54431W        W97525  33.276  23.954   9.308  0.2959  0.0165 -0.1642
54432W        W97526  33.190  19.762   7.810 -0.0792  0.1088 -0.3038
54433W        W97527  33.310  18.519   8.353 -0.1735 -0.2097 -0.0699
54434W        W97528   0.241  18.937   9.572 -0.0084  0.0863 -0.0104
54435W        W97529  34.162  18.036   8.493 -0.1323 -0.3209 -0.2674
54436W        W97530  31.859  17.832   9.073 -0.0859 -0.1027 -0.1876
54437W        W97531  31.214  20.218   8.242  0.0047 -0.2482 -0.1612
54438W        W97532  33.329  20.410   9.764 -0.0481 -0.1711 -0.1374
54439W        W97533  34.005  18.974   8.737 -0.0699  0.3359  0.2380
54440W        W97534   1.376  19.816   9.632 -0.0673 -0.1858  0.1819
54441W        W97535  33.589  21.427   9.959  0.1818 -0.1921  0.0281
54442W        W97536  32.873  18.249   6.473  0.2464 -0.0245 -0.0911
54443W        W97537  30.084  22.033   9.396  0.1762 -0.2089 -0.3192
54444W        W97538  31.381  19.333   9.407  0.1013 -0.1597 -0.1177
54445W        W97539  33.684  18.740   8.969  0.0034  0.0030  0.1852
54446W        W97540   0.257  21.804   9.474  0.1472 -0.0212 -0.1380
54447W        W97541  32.115  21.649   8.462  0.3119  0.5383 -0.0642
54448W        W97542  34.570  22.122   9.257 -0.0778  0.1055  0.0752
54449W        W97543  33.404  21.700   8.407  0.0884  0.1334  0.0116
54450W        W97544  33.515  21.301   8.020 -0.0815  0.1310  0.0806
54451W        W97545  33.312  21.252   8.580 -0.2932 -0.1950 -0.0741
54452W        W97546  34.158  20.085   9.375  0.1788  0.1521  0.0010
54453W        W97547  32.767  21.839   9.520  0.1140 -0.1130  0.0058
54454W        W97548  33.786  22.459   8.078 -0.2356  0.3926 -0.1781
54455W        W97549  34.248  18.032   6.966 -0.0221 -0.1796  0.1588
54456W        W97550  33.482  19.489   8.161 -0.1013 -0.1278  0.3197
54457W        W97551   0.555  20.722   8.703 -0.0751  0.0351 -0.0967
54458W        W97552  33.778  17.993   9.665  0.1373  0.0703 -0.1926
54459W        W97553   2.659  19.958   8.939 -0.2330 -0.2006 -0.2668
54460W        W97554  32.596  19.925   7.215  0.2249 -0.3455  0.4084
54461W        W97555  33.282  20.204   8.831 -0.1333 -0.1678  0.0522
54462W        W97556  33.991  18.883   6.784  0.3469 -0.0123  0.2022
54463W        W97557  34.036  21.926   9.240  0.2002  0.3140 -0.0993
54464W        W97558  32.449  18.794   7.294  0.0746  0.0517 -0.1275
54465W        W97559  33.666  19.953   8.110  0.1412 -0.2573  0.1043
54466W        W97560  32.718  21.430   9.132  0.2036  0.0613  0.0454
54467W        W97561  32.467  21.722   7.067 -0.0485  0.2011 -0.0503
54468W        W97562  31.242  21.413   8.949 -0.1045 -0.0709 -0.0960
54469W        W97563  33.488  20.576   9.187 -0.0865 -0.0159  0.2160
54470W        W97564  33.462  17.372   8.655  0.0250 -0.0259 -0.0299
54471W        W97565  34.306  20.917   9.305  0.1298  0.1214  0.0946
54472W        W97566  34.414  20.524   8.333 -0.0173 -0.2192 -0.1121
54473W        W97567  32.063  20.401   9.446  0.1275 -0.0554 -0.3255
54474W        W97568  32.142  20.109   7.961  0.0776  0.2505  0.1934
54475W        W97569  33.616  19.656   7.555 -0.2399  0.2757  0.0982
54476W        W97570  33.552  18.430   7.267  0.1207 -0.2768  0.1752
54477W        W97571   0.251  19.014   7.324  0.3245  0.0513 -0.0011
54478W        W97572  33.132  19.513   8.776 -0.3200 -0.0829 -0.0997
54479W        W97573  29.658  18.293   9.403 -0.0181  0.1465 -0.1323
54480W        W97574  32.134  18.356   7.126  0.2490  0.0026 -0.1624
54481W        W97575  33.618  23.491   9.663  0.0126  0.0334  0.1955
54482W        W97576  32.673  20.424   9.681  0.4632  0.1547 -0.0246
54483W        W97577  33.656  19.283   7.138  0.2279  0.2246  0.2453
54484W        W97578  31.624  18.879   6.021 -0.0507 -0.3802 -0.1645
54485W        W97579  33.107  21.045   8.044 -0.2620 -0.1714  0.0530
54486W        W97580  31.749  21.320   9.129 -0.2344 -0.1870  0.3919
54487W        W97581  34.246  20.509   9.743 -0.4046  0.1428  0.0502
54488W        W97582  32.985  19.493   8.205 -0.2866 -0.4295  0.2231
54489W        W97583  34.413  19.361   8.011 -0.0478 -0.0692  0.3057
54490W        W97584   1.905  21.782   8.731 -0.0100 -0.0965  0.0256
54491W        W97585   0.525  20.965   9.578 -0.2291 -0.1573 -0.1517
54492W        W97586  31.522  18.430   9.500 -0.0118 -0.1286 -0.0689
54493W        W97587  33.959  20.259   6.800 -0.1701 -0.0757 -0.1772
54494W        W97588  31.808  20.979   7.296  0.0567  0.1655 -0.0890
54495W        W97589  33.122  17.879   6.208  0.2449 -0.1891 -0.2502
54496W        W97590   1.850  17.762   9.329  0.2678 -0.1333 -0.0724
54497W        W97591   0.129  21.021   9.307 -0.0314  0.1839  0.0627
54498W        W97592  32.862  20.810   9.475  0.0291 -0.0999  0.0287
54499W        W97593  33.769  20.663   9.620 -0.2370 -0.0979 -0.1365
54500W        W97594   0.840  17.662   9.197 -0.2179  0.2688 -0.1701
54501W        W97595   1.203  20.879  10.201 -0.1049  0.4019  0.1213
54502W        W97596   0.586  22.318   8.668 -0.0245 -0.4098 -0.1535
54503W        W97597  33.286  20.752   8.631 -0.2692  0.0618 -0.2530
54504W        W97598  31.129  22.700   9.664 -0.1034 -0.0527 -0.0736
54505W        W97599  34.218  17.940   8.002 -0.0013 -0.3186  0.1626
54506W        W97600  34.194  18.389   7.623 -0.0132 -0.2156  0.0766
54507W        W97601  32.540  19.909   9.491  0.0914  0.5627 -0.1702
54508W        W97602   0.311  18.362   9.038 -0.1711 -0.0534 -0.0890
54509W        W97603  34.554  19.956   9.668  0.3444 -0.0270  0.1594
54510W        W97604  33.064  20.123   7.461 -0.0494  0.1081 -0.0751
54511W        W97605   0.144  20.370   9.669 -0.0078 -0.3065  0.0344
54512W        W97606  32.851  20.910   9.929  0.0370  0.0389  0.2396
54513W        W97607  33.465  20.261   7.762  0.0339 -0.1517 -0.0215
54514W        W97608  33.422  22.443   8.983 -0.1437 -0.0098  0.0891
54515W        W97609   0.377  20.535   9.254  0.0762  0.2645  0.0352
54516W        W97610  34.119  18.407   8.917 -0.1000  0.1704  0.2568
54517W        W97611   0.051  19.520   8.435 -0.0768 -0.2166 -0.0452
54518W        W97612   2.255  20.089   9.783 -0.1998 -0.1111  0.0131
54519W        W97613  32.005  19.670   8.069 -0.1282  0.2316 -0.0661
54520W        W97614  32.273  19.118   8.893 -0.4018  0.2072  0.0045
54521W        W97615  33.576  20.892   8.265  0.1050 -0.1826  0.4531
54522W        W97616  34.358  20.738   8.810  0.0237 -0.4348 -0.0462
54523W        W97617  32.609  20.818   8.154  0.1069 -0.0306  0.2369
54524W        W97618  31.270  21.766   9.395 -0.0715  0.1703 -0.2083
54525W        W97619   2.618  20.238  10.137 -0.0462 -0.1804 -0.3052
54526W        W97620  33.767  19.115   7.761 -0.1833 -0.0355 -0.2066
54527W        W97621  32.700  18.621   8.311 -0.1280  0.0656 -0.0219
54528W        W97622   0.561  19.356   8.150  0.0990  0.1328 -0.1930
54529W        W97623  33.110  19.261   9.969 -0.2787  0.0157 -0.0103
54530W        W97624  33.409  20.392   8.228 -0.0378 -0.1696  0.0056
54531W        W97625  33.424  19.671   9.152  0.2225 -0.2014 -0.0117
54532W        W97626  33.985  21.113   7.967 -0.1703 -0.0421  0.1222
54533W        W97627  34.360  19.689   8.762  0.2322  0.1577 -0.1009
54534W        W97628  33.551  18.031   8.278  0.3115 -0.1592 -0.0157
54535W        W97629  34.010  19.893   6.354  0.0042 -0.2708  0.0307
54536W        W97630   0.811  22.237   8.012 -0.0022 -0.0072  0.4123
54537W        W97631  33.494  18.901   8.095  0.0256  0.2105  0.0392
54538W        W97632  34.032  18.436   7.156  0.2798 -0.1884 -0.0626
54539W        W97633   0.572  19.131   7.710  0.3444  0.2871 -0.1317
54540W        W97634   1.086  21.391  10.235  0.2530  0.1518  0.1711
54541W        W97635  34.546  18.965   7.005  0.1561 -0.3849  0.2834
54542W        W97636  32.272  20.920   8.513  0.1744 -0.1681  0.1412
54543W        W97637   0.238  20.757   8.290 -0.0717  0.0624  0.1663
54544W        W97638  33.642  21.701   9.574 -0.0406  0.0939  0.0983
54545W        W97639  34.037  20.219   8.468  0.0717 -0.1499 -0.0916
54546W        W97640  32.831  18.791   9.268  0.1329 -0.0688 -0.1389
54547W        W97641  34.445  21.382  10.035  0.4699 -0.0669  0.3038
54548W        W97642  33.913  17.563   8.654  0.0981 -0.2579 -0.1318
54549W        W97643  34.008  20.525   9.172 -0.3926  0.1158  0.2216
54550W        W97644  33.644  21.206   9.382  0.0711  0.0864 -0.0678
54551W        W97645   1.063  18.640   8.309  0.3601  0.2213 -0.0588
54552W        W97646  34.042  18.640   9.356  0.1038  0.2626 -0.1396
54553W        W97647  32.188  21.022   7.612 -0.1202  0.0952  0.1999
54554W        W97648  34.316  22.086   8.840 -0.0470  0.0988  0.0777
54555W        W97649  34.227  19.308   9.122  0.2502 -0.0430 -0.0630
54556W        W97650   0.072  17.404   8.064  0.0529 -0.0069 -0.0730
54557W        W97651  33.397  17.832   7.357 -0.2298  0.3239 -0.0832
54558W        W97652  33.219  18.999   8.529  0.1415 -0.2627  0.2231
54559W        W97653  33.961  19.603   7.916  0.2637  0.1517 -0.2922
54560W        W97654   1.176  22.560   9.529  0.0211 -0.0165  0.0393
54561W        W97655  34.536  19.735   9.224  0.2602 -0.0149  0.2876
54562W        W97656  34.672  22.163  10.014 -0.0805 -0.0284 -0.0616
54563W        W97657  33.755  17.493   7.694  0.1697 -0.2235  0.0184
54564W        W97658  33.347  18.871   9.433  0.3853  0.1016 -0.2704
54565W        W97659   0.042  19.986   8.560 -0.3443 -0.1021  0.1874
54566W        W97660  31.212  18.093   9.365  0.2095 -0.2457 -0.2594
54567W        W97661  34.226  17.431   7.774  0.0275 -0.1181 -0.0591
54568W        W97662  33.959  18.366   8.077 -0.0872  0.1519 -0.1601
54569W        W97663  31.359  20.714   8.162 -0.4257  0.0180  0.5073
54570W        W97664  32.240  18.290   9.268  0.1827 -0.2306 -0.2255
54571W        W97665  32.978  18.891   7.975 -0.3099  0.1727 -0.2495
54572W        W97666  33.097  21.078   9.001  0.0338  0.0885  0.0536
54573W        W97667  33.906  19.054   9.585  0.0047  0.1209  0.0296
54574W        W97668   0.623  18.498   8.704 -0.3381  0.0218  0.0101
54575W        W97669   0.159  18.734  10.007  0.0475 -0.1600 -0.0752
54576W        W97670  32.786  20.121   8.738  0.1676 -0.1353 -0.0544
54577W        W97671   0.571  21.475   9.296  0.3035  0.0454 -0.0172
54578W        W97672   1.247  20.392   8.894 -0.0706  0.1156  0.1421
54579W        W97673  33.549  20.786   7.810  0.2023 -0.0610  0.2063
54580W        W97674  34.634  21.638   8.587  0.0822  0.0612  0.2152
54581W        W97675  33.772  21.373   8.444  0.0150  0.1645  0.1706
54582W        W97676   1.037  19.440   8.880  0.0251 -0.2440  0.3792
54583W        W97677  33.325  18.396   8.976  0.0550  0.3002  0.0247
54584W        W97678  32.636  19.202   9.769 -0.4316  0.0939 -0.0166
54585W        W97679  33.538  19.223   6.678 -0.1326  0.3048  0.0502
54586W        W97680  32.989  20.539   7.994  0.2519 -0.2641  0.1200
54587W        W97681  33.505  19.824   9.887  0.2938 -0.2966  0.0671
54588W        W97682  31.882  21.195   8.257 -0.2153 -0.0129 -0.3099
54589W        W97683  33.748  18.098   7.644  0.0141  0.1573  0.1043
54590W        W97684  33.761  19.309   9.216 -0.2069 -0.0033 -0.2212
54591W        W97685   0.159  19.478   7.869 -0.1131  0.2670  0.0938
54592W        W97686  32.731  20.419   7.274  0.0241 -0.0537  0.0282
54593W        W97687  32.082  18.662   7.575  0.1763  0.0992 -0.1502
54594W        W97688   0.638  19.260   9.107 -0.0713  0.0709 -0.0303
54595W        W97689  33.770  17.327   9.071 -0.0043 -0.0075  0.1282
54596W        W97690  33.326  18.414   9.664  0.0254  0.1822  0.1383
54597W        W97691  32.070  19.546   8.675 -0.3134 -0.1887  0.3199
54598W        W97692   0.214  18.785   7.839  0.0592  0.1162 -0.0112
54599W        W97693  34.036  19.403   7.457 -0.1367 -0.2341  0.1583
54600W        W97694   0.455  21.994   9.866 -0.0801 -0.0946  0.1471
54601W        W97695  34.320  19.429   9.775  0.2636 -0.1719  0.3260
54602W        W97696  33.967  19.638   8.433 -0.1305  0.0333 -0.1116
54603W        W97697  33.534  19.352   9.695 -0.5224  0.1018  0.1718
54604W        W97698  34.311  18.783   8.048 -0.2573  0.0488 -0.1679
54605W        W97699  31.956  18.994  12.323 -0.3347  0.1603 -0.2442
54606W        W97700  34.542  23.840   1.796 -0.2291 -0.0470 -0.0349
54607W        W97701  34.224  22.502  31.255  0.2229 -0.2620 -0.2543
54608W        W97702  33.683  22.110   0.488 -0.3986  0.0373 -0.1307
54609W        W97703  34.084  20.968   4.217  0.4068  0.3446 -0.0510
54610W        W97704  33.573  22.968   1.710 -0.3540  0.1071  0.0017
54611W        W97705  32.988  23.862   2.404 -0.4419 -0.1740 -0.0142
54612W        W97706  33.878  21.169   2.054 -0.1367 -0.0252  0.2616
54613W        W97707  33.503  22.968   0.934  0.1280 -0.1445 -0.0219
54614W        W97708  33.852  22.842  31.063 -0.2203 -0.2251 -0.2678
54615W        W97709  33.117  22.067   2.507  0.0325 -0.3776  0.1040
54616W        W97710  34.363  22.948   1.100 -0.0196  0.1417  0.0764
54617W        W97711  34.603  23.135   1.922  0.1531  0.0890 -0.1919
54618W        W97712   0.198  25.738   0.950  0.0256  0.2885  0.2932
54619W        W97713  32.554  22.793   0.528 -0.0544  0.1810 -0.0096
54620W        W97714  32.656  23.035   1.521 -0.0644 -0.3842  0.2391
54621W        W97715  33.019  23.198   1.024 -0.2459  0.3175  0.0098
54622W        W97716  34.150  24.741   2.342 -0.0414 -0.0127 -0.0119
54623W        W97717  33.423  24.783   2.591 -0.2366  0.0138  0.0927
54624W        W97718  32.912  23.669   1.217  0.1255  0.3012  0.0929
54625W        W97719  30.898  25.073   2.868  0.1419 -0.3554  0.2254
54626W        W97720  33.114  25.171   2.186 -0.0940  0.1162 -0.1283
54627W        W97721  33.813  23.923   3.988  0.0639 -0.0491 -0.1163
54628W        W97722  34.126  24.967   0.090 -0.1105 -0.2102  0.0146
54629W        W97723  33.583  23.809   4.481  0.1828 -0.0210  0.2276
54630W        W97724  33.844  24.592   0.306  0.0874  0.0661  0.0482
54631W        W97725  34.638  22.731   0.729  0.3509  0.1467 -0.4666
54632W        W97726  33.647  22.725   2.731  0.1840  0.3451  0.0356
54633W        W97727  31.979  24.399   1.935 -0.0566  0.0185  0.4170
54634W        W97728  33.634  24.588   0.863 -0.0332 -0.3511 -0.2018
54635W        W97729  34.223  21.343   1.093  0.1055 -0.1345  0.4618
54636W        W97730  33.761  22.779   2.183 -0.0059  0.0744 -0.2357
54637W        W97731  33.214  25.346   1.627  0.2767 -0.0578 -0.0088
54638W        W97732  34.089  21.567   2.899 -0.0311 -0.0618 -0.2425
54639W        W97733  32.901  24.415   2.294 -0.1663  0.3354 -0.1829
54640W        W97734  33.315  23.703   0.145  0.2563 -0.1744  0.0040
54641W        W97735  32.830  24.436   1.180 -0.3565 -0.1772 -0.0558
54642W        W97736  31.184  22.805   3.278  0.2410  0.1069  0.0993
54643W        W97737  33.357  24.184   3.119 -0.0708 -0.0747 -0.0983
54644W        W97738   0.172  20.916  31.838  0.4377 -0.1133  0.0092
54645W        W97739  33.218  26.000   2.236 -0.1753 -0.5999 -0.1061
54646W        W97740  33.138  23.561   2.000  0.1116  0.1908 -0.4284
54647W        W97741  34.110  23.159  30.719  0.3216 -0.0331  0.2244
54648W        W97742   0.103  24.975   0.870  0.2249  0.1061  0.0606
54649W        W97743  33.558  24.596   3.111 -0.1190 -0.0025 -0.0809
54650W        W97744  34.415  23.200   2.822  0.0005 -0.2645  0.0179
54651W        W97745  34.692  25.766   4.440  0.0523 -0.1849  0.2968
54652W        W97746  33.820  25.684   0.225  0.1699  0.2842 -0.2070
54653W        W97747  32.287  23.851   1.814 -0.1054 -0.0055  0.3473
54654W        W97748  33.755  23.515  31.910 -0.2773 -0.1638 -0.4091
54655W        W97749  33.323  22.801   3.091 -0.0448  0.2296  0.1689
54656W        W97750  33.505  23.374   1.208 -0.0832  0.4656 -0.0523
54657W        W97751  33.339  22.278   2.907  0.0506 -0.2242 -0.1619
54658W        W97752  32.826  25.193   0.904 -0.4040  0.0295 -0.1034
54659W        W97753  32.636  22.172   2.444  0.3097  0.0584 -0.1705
54660W        W97754  32.540  22.624   1.006  0.1199  0.3456 -0.2394
54661W        W97755  34.085  23.200   1.812 -0.0170 -0.0115  0.1706
54662W        W97756  33.190  22.903   2.520 -0.2047  0.4960 -0.0479
54663W        W97757  32.069  22.582   0.273  0.0423  0.2901 -0.2277
54664W        W97758  32.925  23.513   0.466 -0.0685 -0.1921  0.0804
54665W        W97759  31.705  24.199   1.045 -0.0696 -0.1226 -0.1620
54666W        W97760  34.160  22.714   2.644 -0.0452 -0.1582  0.1260
54667W        W97761  33.403  22.706   0.415 -0.0042 -0.1917  0.0940
54668W        W97762  32.630  24.802   2.124 -0.0854  0.3230 -0.3624
54669W        W97763  33.441  23.963   2.157  0.2494  0.2721 -0.1847
54670W        W97764  34.591  23.363   0.428  0.0976  0.2518  0.2248
54671W        W97765  33.146  24.084   1.126  0.0615 -0.0007 -0.2267
54672W        W97766  33.369  21.253   1.448 -0.0757 -0.0873  0.3230
54673W        W97767  33.180  24.792   0.947  0.0114  0.0985  0.0437
54674W        W97768  31.463  24.115  31.458  0.2802 -0.1211 -0.0666
54675W        W97769  32.356  24.214   0.636  0.0149  0.0489 -0.1274
54676W        W97770  32.565  23.647   2.705  0.3928  0.0370  0.1032
54677W        W97771  34.183  23.562  31.280  0.3694 -0.1134  0.1745
54678W        W97772  32.841  23.340   3.023 -0.1340  0.0406 -0.1323
54679W        W97773  32.897  24.799   5.156 -0.0337  0.0479 -0.0864
54680W        W97774  34.401  25.920  31.607  0.1420 -0.3109  0.0218
54681W        W97775  34.479  24.391   2.451 -0.2266  0.1395 -0.0717
54682W        W97776  32.847  24.022   1.962 -0.0997 -0.2189 -0.1803
54683W        W97777   0.580  21.843   1.800 -0.1401  0.0999  0.4184
54684W        W97778   0.301  24.254  30.518  0.1654 -0.1561 -0.0467
54685W        W97779  32.211  24.564   0.322 -0.1253 -0.2921 -0.0834
54686W        W97780   0.947  21.652   2.115  0.3678  0.2024 -0.0084
54687W        W97781  34.161  21.637  31.621  0.1977 -0.4804 -0.0616
54688W        W97782  34.220  23.590   2.548 -0.1370 -0.0270  0.1059
54689W        W97783  32.739  23.576   1.704  0.0084 -0.1557 -0.3939
54690W        W97784  32.166  24.957   2.053 -0.0741 -0.1761  0.3985
54691W        W97785   0.084  23.257   3.166 -0.1101 -0.0204 -0.0170
54692W        W97786  33.216  26.420   0.107  0.0641 -0.2815  0.2270
54693W        W97787   0.118  23.877   0.126 -0.3683  0.0039  0.0334
54694W        W97788  34.554  22.150   1.348  0.0955 -0.1094 -0.0089
54695W        W97789  32.523  25.735   2.713 -0.0092 -0.0079 -0.0584
54696W        W97790  33.488  25.641  31.589 -0.4098  0.0837  0.2726
54697W        W97791  32.380  25.496   2.049  0.1055 -0.0259 -0.1808
54698W        W97792  31.521  23.733   1.760  0.2346  0.1117 -0.2187
54699W        W97793  33.642  21.941   1.628 -0.2873 -0.1959 -0.1229
54700W        W97794  31.582  24.230   0.502 -0.3608 -0.3124  0.0138
54701W        W97795  32.920  22.615   1.650 -0.0462  0.0415  0.1246
54702W        W97796   0.160  22.419   1.042  0.1600  0.1019  0.0992
54703W        W97797  33.288  23.562   0.787 -0.1986  0.2773 -0.0714
54704W        W97798  34.592  23.759   4.032  0.0223  0.1887 -0.2130
54705W        W97799  33.869  20.697  31.435 -0.1347  0.0443  0.2220
54706W        W97800  34.323  22.459   1.005 -0.0806  0.1960  0.1765
54707W        W97801  32.205  24.313   1.220 -0.2138 -0.0319 -0.1691
54708W        W97802  33.677  24.010  31.821  0.1028 -0.1169  0.2723
54709W        W97803  33.292  24.493   0.454  0.2390 -0.0177  0.0632
54710W        W97804  34.331  22.523   4.141 -0.4086 -0.2832  0.1708
54711W        W97805  34.059  22.205   1.373  0.1416 -0.1451 -0.0150
54712W        W97806  34.095  22.837   0.716  0.4823 -0.0073 -0.0299
54713W        W97807  34.320  23.366   1.382  0.0869  0.1939  0.0337
54714W        W97808  34.323  23.526   2.074 -0.1093  0.0334  0.3539
54715W        W97809  33.233  24.415   5.196 -0.0604  0.1964  0.1656
54716W        W97810  34.038  23.388   0.260 -0.2746 -0.0051 -0.3551
54717W        W97811  33.053  22.279   2.110 -0.2553  0.1959 -0.2582
54718W        W97812   0.793  24.094  31.703 -0.1100  0.1811 -0.2289
54719W        W97813  33.458  22.425   2.397 -0.1161  0.3387 -0.0691
54720W        W97814  33.237  24.830   1.659 -0.0221 -0.0141 -0.0238
54721W        W97815  34.582  24.037  31.753 -0.1069  0.1248 -0.1972
54722W        W97816  32.468  24.318   1.988  0.5123 -0.3045  0.3502
54723W        W97817   0.016  22.643   1.834 -0.0234  0.1152 -0.0066
54724W        W97818  32.933  21.204   2.381 -0.0425 -0.3814  0.0510
54725W        W97819  31.364  22.837   1.692 -0.0554 -0.2747  0.0467
54726W        W97820  32.561  23.669   2.172  0.0312  0.3305 -0.2411
54727W        W97821  33.480  22.303   1.232  0.1740  0.1819 -0.1481
54728W        W97822  32.262  24.626   1.621 -0.0305 -0.2724  0.1256
54729W        W97823   0.013  23.752   0.723 -0.2564 -0.1565 -0.0130
54730W        W97824  32.372  22.708   1.700  0.3487 -0.1108  0.0123
54731W        W97825  34.480  24.264   0.406  0.0759  0.3019 -0.1245
54732W        W97826  33.864  22.922   0.213 -0.2299 -0.0417  0.0569
54733W        W97827  33.739  23.891   2.600  0.1513  0.0154  0.2244
54734W        W97828  34.124  23.110   2.300 -0.1283 -0.4191  0.2992
54735W        W97829  33.788  21.159   3.862  0.1456  0.1393  0.2718
54736W        W97830  33.137  23.261   1.571  0.1570 -0.0539 -0.0914
54737W        W97831  33.920  20.968   0.460  0.0657 -0.2099 -0.0831
54738W        W97832   1.726  24.378  31.704  0.3078 -0.2341  0.2306
54739W        W97833  32.911  22.265   1.192 -0.0544 -0.2139  0.0275
54740W        W97834  33.018  24.505   2.818  0.0039  0.3095  0.4126
54741W        W97835  32.651  21.510  31.785 -0.0456 -0.3231 -0.1128
54742W        W97836   0.713  25.791   1.039 -0.3419  0.0379 -0.1217
54743W        W97837  34.357  24.496   3.730 -0.1188  0.2416 -0.1004
54744W        W97838   0.440  21.237   1.185 -0.0495  0.3204  0.1005
54745W        W97839  33.626  23.963   0.970 -0.0338 -0.0780  0.3762
54746W        W97840  32.107  25.470   2.544 -0.2742  0.3503  0.1237
54747W        W97841  32.888  25.179   4.326 -0.2133 -0.1201 -0.0458
54748W        W97842  33.902  24.937   2.772 -0.1417  0.0933 -0.1151
54749W        W97843  33.450  23.238   2.213  0.1871 -0.2144 -0.0934
54750W        W97844  32.624  22.406   0.197  0.0494  0.0186 -0.0216
54751W        W97845  32.588  25.463   0.502  0.0101  0.4022 -0.2893
54752W        W97846  33.059  23.119   3.387 -0.0313  0.0159  0.1371
54753W        W97847  33.879  22.607   1.664 -0.0024  0.3504 -0.1882
54754W        W97848  33.698  24.519   4.861 -0.1973  0.2054 -0.1717
54755W        W97849  32.811  24.005   3.502 -0.1377 -0.0138  0.1306
54756W        W97850  31.062  25.826   0.250  0.2346  0.0023 -0.1871
54757W        W97851   2.052  23.168   0.110 -0.1767 -0.1687  0.0106
54758W        W97852  32.630  23.996   1.007  0.0101  0.0894 -0.2067
54759W        W97853  32.298  25.291   1.010 -0.0968 -0.0423 -0.0350
54760W        W97854  34.285  25.252   2.293  0.0076 -0.0254 -0.1759
54761W        W97855  32.323  23.302   2.425 -0.1481  0.1017 -0.1813
54762W        W97856  33.558  20.923   1.768  0.2499 -0.0697  0.0010
54763W        W97857   0.274  23.524   1.986 -0.0905  0.2298  0.0341
54764W        W97858  33.197  25.512   3.035 -0.0628 -0.0701 -0.1490
54765W        W97859  34.052  22.765  31.723 -0.2250  0.2687 -0.2494
54766W        W97860  34.336  22.984   0.159  0.3139 -0.0577  0.0334
54767W        W97861   1.754  24.198  31.140  0.0664 -0.2074 -0.0404
54768W        W97862  33.078  25.804   1.409  0.0175  0.3265  0.1972
54769W        W97863  34.427  23.352   0.905 -0.2387  0.1526 -0.3989
54770W        W97864  34.507  24.621   1.172  0.1426 -0.3835 -0.4321
54771W        W97865  33.844  22.260   0.909  0.1690  0.0646 -0.3740
54772W        W97866  33.811  24.391   2.766  0.0426 -0.2248 -0.0528
54773W        W97867  32.577  24.001   1.488  0.1039 -0.0859 -0.0558
54774W        W97868  33.674  21.302   2.961 -0.0640 -0.1840 -0.2489
54775W        W97869  34.307  21.830   0.961 -0.2532 -0.1079 -0.1369
54776W        W97870  32.584  21.312   1.656 -0.2009  0.1746 -0.0964
54777W        W97871  33.951  22.304  30.889 -0.2117  0.1696  0.0939
54778W        W97872  33.815  23.657   2.147  0.1415 -0.0063 -0.1392
54779W        W97873  31.494  21.234   2.587  0.0795 -0.1044 -0.1911
54780W        W97874  34.624  26.280  31.854 -0.0060 -0.1128 -0.0129
54781W        W97875  32.969  22.997   0.334 -0.3018  0.3645 -0.1523
54782W        W97876   0.206  21.476   1.685 -0.1443  0.0706  0.2387
54783W        W97877  32.585  23.420   0.885  0.0701  0.0016 -0.1126
54784W        W97878  31.197  25.178   2.016  0.3133 -0.0507 -0.4079
54785W        W97879   0.326  25.373   0.056 -0.0860  0.1652 -0.0178
54786W        W97880   0.418  25.656   4.205  0.0653  0.0288  0.0898
54787W        W97881  33.332  24.057   4.873 -0.0099 -0.1507 -0.0358
54788W        W97882  32.226  22.990  31.655 -0.4138 -0.0153 -0.1672
54789W        W97883  33.838  22.219   2.695 -0.1370  0.2047  0.2502
54790W        W97884  34.421  24.106   0.939  0.0007  0.1523 -0.1563
54791W        W97885  32.619  24.900   1.319  0.0966  0.0172  0.0919
54792W        W97886   0.578  24.376   1.083  0.0508 -0.1236  0.2814
54793W        W97887  34.330  21.921   2.316 -0.1411  0.2251  0.0951
54794W        W97888  32.987  23.845   2.935 -0.0113  0.0631 -0.0348
54795W        W97889  32.829  22.282   0.631 -0.0076 -0.0202  0.1394
54796W        W97890   0.193  24.675  31.447 -0.0649 -0.1011 -0.1821
54797W        W97891  33.247  23.853   1.573 -0.2998 -0.0476  0.3152
54798W        W97892   0.074  22.234   3.666 -0.0053  0.3298 -0.1345
54799W        W97893  32.937  23.347   2.374  0.0626  0.1477  0.1709
54800W        W97894  32.657  24.137   2.687  0.0648 -0.0865  0.2288
54801W        W97895  34.340  22.171   1.798 -0.3520  0.1002 -0.0008
54802W        W97896  34.192  22.652   1.994 -0.1086 -0.0252 -0.0160
54803W        W97897  33.086  22.101   1.615  0.0480 -0.0431 -0.1489
54804W        W97898  33.934  23.369   0.861 -0.2125 -0.0679 -0.2836
54805W        W97899  32.991  23.321   0.006  0.0658  0.1333 -0.3047
54806W        W97900   0.752  23.290   1.979  0.2077 -0.3589 -0.1246
54807W        W97901  34.687  22.421   2.668 -0.0561 -0.0915 -0.0837
54808W        W97902  32.053  22.353   0.775 -0.1821  0.0426  0.0056
54809W        W97903  33.736  23.229   2.586 -0.3564  0.1029  0.0498
54810W        W97904  34.321  24.692   2.889 -0.1272 -0.1436 -0.0902
54811W        W97905  33.468  26.494   3.960  0.0042 -0.1623  0.0732
54812W        W97906  33.092  22.553   3.659  0.0520 -0.0689 -0.1910
54813W        W97907  34.221  26.787   1.815  0.0044  0.2914  0.0183
54814W        W97908  33.876  22.184   2.029  0.1692 -0.0315 -0.1063
54815W        W97909  32.902  24.944   2.571 -0.0530  0.2364 -0.1435
54816W        W97910  34.368  22.601   1.487  0.0951  0.1553  0.2382
54817W        W97911  33.247  22.794   1.303  0.0656 -0.0609 -0.0910
54818W        W97912  34.387  23.621  31.956 -0.0246 -0.1920 -0.0119
54819W        W97913  33.870  23.566   2.982  0.2266 -0.0904  0.0245
54820W        W97914  34.091  23.707   1.662  0.3823 -0.3468  0.0955
54821W        W97915  34.366  24.331   3.269  0.1523 -0.0963  0.0335
54822W        W97916  32.549  22.547   2.837  0.1356  0.1777  0.2788
54823W        W97917  33.714  23.696   0.526  0.0480 -0.1091 -0.1864
54824W        W97918  33.860  24.135   1.752  0.2197  0.2235  0.0353
54825W        W97919  33.067  22.676   0.831  0.0393 -0.1395 -0.2246
54826W        W97920  33.134  25.002   3.050  0.1021  0.2275 -0.0659
54827W        W97921  33.572  25.219   7.147 -0.0238  0.3470 -0.2091
54828W        W97922  33.313  22.350   5.043 -0.4883 -0.0186  0.1050
54829W        W97923  34.224  21.398   4.560  0.3102  0.0266  0.2883
54830W        W97924  33.181  22.889   6.066 -0.3923  0.2005  0.0169
54831W        W97925  33.648  22.331   6.610 -0.0511  0.0056  0.1555
54832W        W97926  34.143  25.064   5.013  0.0273 -0.0797  0.0665
54833W        W97927   0.003  21.380   4.840  0.0654 -0.0869  0.1887
54834W        W97928  32.294  21.071   5.580  0.1800 -0.1118 -0.0546
54835W        W97929  32.812  22.474   5.063  0.0409  0.0485 -0.1835
54836W        W97930  33.878  22.371   5.650  0.0746  0.1459  0.0061
54837W        W97931  34.393  22.776   4.625 -0.1283  0.2201  0.0066
54838W        W97932  33.390  22.613   5.622  0.1241 -0.1244 -0.2046
54839W        W97933  34.386  23.585   3.379  0.2633  0.1047 -0.1029
54840W        W97934  33.445  21.975   2.055 -0.0004 -0.2315 -0.3319
54841W        W97935  32.584  23.276   5.612  0.0396 -0.0463 -0.1546
54842W        W97936  33.530  22.852   6.551 -0.1558  0.2477  0.1671
54843W        W97937  33.546  25.464   5.465 -0.3123  0.1123  0.1981
54844W        W97938   0.027  26.156   6.472 -0.0270 -0.1020  0.1072
54845W        W97939  32.318  24.096   4.960  0.0994  0.0036 -0.1729
54846W        W97940  32.240  24.464   5.949 -0.1249 -0.4125  0.1870
54847W        W97941   0.132  23.787   4.520 -0.1508  0.0620 -0.2073
54848W        W97942   0.331  25.183   5.758 -0.1563  0.2374 -0.2236
54849W        W97943  33.162  24.598   4.735  0.0301 -0.0332 -0.0198
54850W        W97944  33.651  25.688   8.207  0.3149 -0.0900  0.1353
54851W        W97945  34.058  23.508   4.776  0.0318  0.4351  0.0737
54852W        W97946   0.332  22.689   5.335 -0.1477 -0.1018 -0.1209
54853W        W97947  34.119  23.782   7.685  0.3521 -0.1955 -0.2306
54854W        W97948  32.970  25.016   5.750 -0.1161  0.2688  0.1874
54855W        W97949  32.618  26.239   4.913  0.2934  0.1612  0.1894
54856W        W97950   0.786  22.396   2.463 -0.1694  0.0623  0.0448
54857W        W97951   0.542  22.178   4.581 -0.0673  0.2712 -0.3703
54858W        W97952  32.700  25.266   5.199 -0.2266  0.1619  0.0998
54859W        W97953  33.761  23.057   5.671 -0.2099  0.2554 -0.0144
54860W        W97954  33.693  25.341   6.697  0.1252  0.1971  0.0840
54861W        W97955  32.761  22.801   5.788 -0.3874 -0.0983 -0.0416
54862W        W97956  33.496  23.253   4.770 -0.2645  0.0484  0.1036
54863W        W97957  33.714  24.414   6.955 -0.0105  0.1558  0.0697
54864W        W97958  34.289  23.478   6.730 -0.3023 -0.1806 -0.1425
54865W        W97959  34.578  21.778   2.950  0.1036  0.0447 -0.4541
54866W        W97960  33.943  25.566   5.161  0.1683 -0.2768  0.1833
54867W        W97961   0.507  24.218   4.269  0.0328 -0.3865  0.0917
54868W        W97962  33.472  24.842   3.543 -0.2286  0.1888  0.2189
54869W        W97963  33.869  22.978   4.327  0.1311 -0.0356 -0.0410
54870W        W97964  33.273  24.626   7.383 -0.0565 -0.1196 -0.3084
54871W        W97965  33.209  22.466   6.421  0.0661  0.2007 -0.2351
54872W        W97966  34.494  24.981   5.753 -0.0890 -0.1504  0.1830
54873W        W97967  33.273  24.446   3.884 -0.2690 -0.1286  0.3777
54874W        W97968  32.167  23.869   5.483 -0.1469  0.1795  0.2319
54875W        W97969  32.858  24.079   4.994 -0.0589 -0.3582 -0.0953
54876W        W97970  32.757  21.534   5.785 -0.0097 -0.2314 -0.1370
54877W        W97971  34.332  25.641   4.796  0.0857  0.2196  0.4442
54878W        W97972  32.871  21.954   5.155 -0.0284 -0.0824 -0.0750
54879W        W97973  34.561  23.074   5.183  0.0464  0.1173  0.1412
54880W        W97974  33.569  22.532   6.094  0.3085  0.2763 -0.1271
54881W        W97975  33.076  22.033   4.117 -0.1114 -0.0821  0.0405
54882W        W97976  32.334  22.583   6.418 -0.0138  0.1437  0.0672
54883W        W97977  33.314  21.906   4.770  0.0208  0.1591 -0.0590
54884W        W97978  34.630  21.518   4.229  0.2082 -0.0021 -0.1520
54885W        W97979  34.545  22.575   5.185 -0.1677 -0.1178 -0.0771
54886W        W97980  33.139  22.845   4.773  0.0845  0.0844  0.1707
54887W        W97981  33.143  22.271   6.910  0.0617  0.1642 -0.1445
54888W        W97982  32.655  21.444   4.318 -0.3576 -0.2401  0.1806
54889W        W97983  34.243  27.377   5.895 -0.2799 -0.1576  0.0756
54890W        W97984  33.489  25.865   5.165  0.1936  0.0093  0.0547
54891W        W97985   0.173  22.209   4.240  0.0522  0.3627  0.2578
54892W        W97986   0.619  24.131   6.007 -0.0911  0.0774 -0.3276
54893W        W97987  33.957  22.231   3.678 -0.1115 -0.2591 -0.1159
54894W        W97988  32.008  25.469   4.728 -0.0517  0.0933 -0.0516
54895W        W97989  33.407  23.215   5.315  0.0062  0.2187  0.5563
54896W        W97990   0.815  24.638   4.248  0.2059 -0.0772  0.2161
54897W        W97991  34.093  25.167   6.000 -0.0080  0.0877  0.0125
54898W        W97992  33.480  23.468   3.674 -0.1440  0.2861 -0.1493
54899W        W97993   0.072  24.753   6.508  0.0059 -0.2483  0.0618
54900W        W97994  32.298  24.934   7.044 -0.1026 -0.0540  0.0955
54901W        W97995   0.490  24.503   3.891  0.1218  0.0761  0.3728
54902W        W97996  34.339  24.206   6.058  0.0361  0.0302 -0.0547
54903W        W97997  33.964  25.611   5.700  0.0222 -0.1234 -0.0494
54904W        W97998  34.293  21.753   6.364 -0.0523  0.2763 -0.3016
54905W        W97999  33.893  22.751   3.510  0.0596  0.2254 -0.3381
54906W        W98000  32.373  26.148   3.934  0.0728 -0.1339  0.0341
54907W        W98001  33.711  21.132   7.484 -0.4512 -0.1856  0.0860
54908W        W98002  33.108  22.916   1.997 -0.1334  0.2442  0.2465
54909W        W98003  33.198  21.989   7.547  0.0870  0.2024  0.2567
54910W        W98004  33.640  24.076   5.235 -0.4032  0.1244 -0.2926
54911W        W98005  33.165  25.089   6.274 -0.1746  0.0142 -0.1136
54912W        W98006   0.512  21.182   8.905 -0.0116  0.4768 -0.0839
54913W        W98007  33.444  25.394   4.921 -0.0119 -0.0774 -0.2905
54914W        W98008  34.306  25.389   4.357 -0.0962  0.2618  0.2044
54915W        W98009  32.342  22.482   5.829  0.1333 -0.1600 -0.4196
54916W        W98010  33.888  26.086   5.469 -0.2775 -0.1285 -0.0709
54917W        W98011  33.917  24.109   3.149  0.2744  0.0518  0.0992
54918W        W98012  33.626  22.700   5.195  0.1541  0.0834  0.1734
54919W        W98013  31.873  25.882   6.628 -0.3153 -0.0160  0.0194
54920W        W98014  33.588  22.658   4.701 -0.0025  0.2273 -0.1612
54921W        W98015  32.236  22.720   4.973  0.2268 -0.1069 -0.3442
54922W        W98016  32.345  22.390   7.392  0.2500 -0.0374 -0.0932
54923W        W98017  32.776  22.436   6.157 -0.2120 -0.2554  0.0972
54924W        W98018  32.293  25.613   6.993 -0.1704 -0.1912 -0.2913
54925W        W98019  33.634  22.747   7.047 -0.2688  0.3668  0.0095
54926W        W98020  33.514  22.427   3.394 -0.1493 -0.2267  0.0122
54927W        W98021   0.074  23.096   6.029 -0.0581 -0.0832  0.0587
54928W        W98022  33.649  24.092   6.563  0.0055 -0.0141  0.1053
54929W        W98023  33.371  22.964   4.339  0.3841 -0.1929 -0.1066
54930W        W98024  33.132  24.093   5.866  0.1151  0.3370 -0.4888
54931W        W98025  34.318  21.613   6.948 -0.1880  0.1467  0.3854
54932W        W98026   0.141  21.711   5.184  0.0457  0.0663  0.1995
54933W        W98027  34.285  22.010   4.620 -0.2904  0.4001 -0.0344
54934W        W98028   0.521  22.906   4.459 -0.1663  0.2739  0.0806
54935W        W98029  33.556  21.939   7.968  0.0637  0.1811 -0.2370
54936W        W98030  34.587  24.255   6.541 -0.0263 -0.0546 -0.1599
54937W        W98031  33.136  23.618   5.037 -0.5007  0.0469  0.0481
54938W        W98032  33.530  23.803   6.082  0.2166 -0.0901 -0.1600
54939W        W98033  34.210  23.250   5.495 -0.1760  0.1271  0.2229
54940W        W98034  34.050  22.335   6.127  0.0947 -0.1297  0.1071
54941W        W98035  34.144  22.815   5.954 -0.0414  0.4489  0.0930
54942W        W98036  33.698  24.296   3.575 -0.0828  0.1266  0.3635
54943W        W98037  34.223  25.512   6.632  0.2195 -0.0298  0.2542
54944W        W98038   0.339  23.132   3.746  0.1735 -0.3738 -0.2390
54945W        W98039  33.386  22.142   5.463 -0.0016 -0.1712 -0.1203
54946W        W98040  32.895  23.343   6.004  0.1196  0.1374  0.1200
54947W        W98041  34.105  23.825   6.318  0.0961 -0.0001 -0.0081
54948W        W98042  33.963  21.699   3.677 -0.1152  0.2287  0.1799
54949W        W98043  34.364  23.769   5.877 -0.0539 -0.2743 -0.1025
54950W        W98044  34.255  23.274   4.400  0.0910  0.2103  0.2116
54951W        W98045  33.704  23.555   6.587  0.0342 -0.2263  0.0723
54952W        W98046  34.613  23.659   2.869 -0.0780  0.1505 -0.0326
54953W        W98047  34.320  23.960   4.791 -0.2804  0.0535  0.2069
54954W        W98048  33.997  22.638   6.506 -0.2240  0.0605 -0.3429
54955W        W98049  34.252  22.726   6.928  0.2681 -0.0214  0.0657
54956W        W98050  32.295  22.708   6.955 -0.2023  0.0890 -0.3073
54957W        W98051  32.421  22.981   6.038 -0.2518  0.1077  0.2299
54958W        W98052   0.088  22.311   4.742 -0.0586 -0.3542  0.2984
54959W        W98053   0.704  26.086   3.900 -0.2012  0.2177  0.0026
54960W        W98054  32.889  23.197   4.993  0.0531  0.1933  0.0453
54961W        W98055  33.378  25.761   7.633  0.0393  0.3608 -0.1282
54962W        W98056  33.288  22.535   4.086  0.4699 -0.0054  0.0763
54963W        W98057  33.668  23.392   4.123  0.1795  0.0579 -0.3302
54964W        W98058  34.616  24.839   4.657 -0.0667  0.2486 -0.1380
54965W        W98059  34.453  22.113   5.143 -0.3673 -0.0272  0.0751
54966W        W98060  32.837  24.055   4.003 -0.1433 -0.0731  0.0582
54967W        W98061  34.288  24.023   8.347 -0.1109 -0.0679  0.4737
54968W        W98062  34.443  23.658   7.261  0.4990  0.0060 -0.1530
54969W        W98063  33.516  25.066   4.499  0.0981 -0.0414  0.0421
54970W        W98064   0.083  23.323   7.090  0.0301  0.5336 -0.1901
54971W        W98065   0.679  22.520   4.966 -0.0628  0.0586  0.1102
54972W        W98066  31.877  24.336   5.625  0.1667 -0.2936  0.1405
54973W        W98067  32.410  23.238   6.482  0.0189 -0.2638  0.1921
54974W        W98068   0.001  20.095   5.089 -0.2728 -0.3452  0.0701
54975W        W98069  33.397  24.157   8.307  0.1589 -0.0406 -0.1625
54976W        W98070  34.010  24.055   5.648 -0.0445  0.1714  0.0672
54977W        W98071  32.149  26.081   5.416 -0.0123  0.2412 -0.3486
54978W        W98072  34.016  22.464   4.539  0.0568 -0.1235 -0.0242
54979W        W98073  33.625  25.277   5.963 -0.1105 -0.1783 -0.1296
54980W        W98074  32.868  25.416   3.408 -0.0116 -0.2011 -0.0392
54981W        W98075  33.547  24.336   5.665 -0.0511 -0.1015  0.2820
54982W        W98076  33.988  23.099   6.649 -0.0587  0.0710 -0.1116
54983W        W98077  34.136  22.973   3.912  0.0862 -0.1910 -0.0746
54984W        W98078   0.641  24.139   6.985  0.2390 -0.1406 -0.0027
54985W        W98079  33.684  26.524   5.770  0.0460  0.2806  0.0793
54986W        W98080  31.995  21.509   4.334 -0.0305  0.2180  0.1956
54987W        W98081  33.079  22.824   5.319  0.2228  0.0470  0.0101
54988W        W98082  34.284  25.538   3.502  0.1488  0.1258  0.0661
54989W        W98083  33.017  25.590   5.474 -0.2997  0.1316  0.0706
54990W        W98084  33.957  25.670   6.203 -0.1923 -0.2223  0.1050
54991W        W98085  33.940  25.060   5.527 -0.1526 -0.1680 -0.1268
54992W        W98086  32.714  22.138   3.610 -0.2524 -0.2136  0.0409
54993W        W98087  33.942  22.774   7.507  0.1897 -0.0975 -0.2312
54994W        W98088  32.410  21.651   5.291  0.2610  0.0559 -0.1844
54995W        W98089  32.677  23.053   6.893  0.0427  0.0226 -0.0200
54996W        W98090  34.292  21.903   3.350  0.1701 -0.0922 -0.3670
54997W        W98091  33.711  20.245   6.162 -0.1152 -0.2994  0.0159
54998W        W98092  33.819  21.808   4.555  0.2194 -0.1819 -0.2513
54999W        W98093  34.545  23.965   5.383 -0.1736 -0.0425  0.2574
55000W        W98094  32.265  21.974   4.970  0.3502 -0.0172 -0.1003
55001W        W98095  33.844  24.071   4.794  0.2866  0.1324 -0.3965
55002W        W98096  31.917  22.850   5.934 -0.0754  0.3092 -0.1443
55003W        W98097  34.261  21.656   5.036 -0.0318 -0.1231 -0.0046
55004W        W98098  34.061  22.460   5.074 -0.1485  0.0350 -0.1090
55005W        W98099  33.189  24.807   4.231 -0.2787 -0.0478  0.2249
55006W        W98100  32.806  24.852   3.371  0.2939 -0.2185 -0.0109
55007W        W98101  33.820  24.642   5.354 -0.2753  0.1940  0.2571
55008W        W98102  34.618  24.294   8.606 -0.0607 -0.1625  0.1245
55009W        W98103  33.345  24.237   4.337  0.0097 -0.3506 -0.1300
55010W        W98104  34.618  23.822   6.384 -0.2545  0.1054 -0.1014
55011W        W98105  33.487  24.930   5.584 -0.1539  0.0055  0.3531
55012W        W98106  33.933  24.652   3.930 -0.1530 -0.0338 -0.0805
55013W        W98107   0.574  23.395   4.591  0.1100  0.3719 -0.1310
55014W        W98108  33.761  23.161   6.200 -0.0585  0.0971  0.2034
55015W        W98109  33.927  23.522   5.895  0.1389 -0.1974 -0.0092
55016W        W98110  33.529  22.954   3.786  0.1584  0.1340  0.0933
55017W        W98111  33.271  23.813   4.085  0.1490  0.0274  0.3661
55018W        W98112  34.141  24.527   5.748  0.0248 -0.3082 -0.1956
55019W        W98113   0.042  21.014   8.678 -0.1101 -0.0095 -0.0233
55020W        W98114  32.715  22.100   7.259 -0.0398 -0.3300 -0.0014
55021W        W98115  34.321  23.146   7.236  0.0321 -0.2021 -0.5823
55022W        W98116  33.939  22.091   4.148 -0.1491  0.1172  0.1994
55023W        W98117  33.092  22.041   6.094 -0.0569  0.2585 -0.0759
55024W        W98118  33.394  21.385   4.816  0.1428  0.1053  0.0394
55025W        W98119   0.134  21.849   4.629  0.0927  0.1228 -0.0287
55026W        W98120  32.503  24.709   2.842 -0.1071 -0.0343  0.2561
55027W        W98121   0.308  23.536   6.017 -0.1270 -0.0340  0.2292
55028W        W98122  34.569  20.722   7.906  0.0245  0.0025 -0.2360
55029W        W98123  33.066  21.065   4.461  0.0837  0.2104  0.3152
55030W        W98124   0.368  22.705   6.182 -0.0995  0.1951 -0.1244
55031W        W98125  33.744  24.242   6.071  0.3494  0.3118  0.1009
55032W        W98126   0.401  25.509   5.407 -0.0314 -0.2349  0.0212
55033W        W98127  33.088  21.074   7.545  0.2036  0.0974  0.0365
55034W        W98128   1.039  24.463   6.743  0.1385 -0.1450 -0.2339
55035W        W98129  32.727  22.559   6.718  0.1332 -0.1545  0.0060
55036W        W98130  34.038  24.398   6.481  0.1662 -0.0124 -0.0255
55037W        W98131  33.464  21.653   5.670  0.1885  0.0895 -0.0257
55038W        W98132  32.867  22.982   6.426 -0.0896  0.0753 -0.2245
55039W        W98133  34.635  22.829   3.803  0.0904  0.0194  0.1135
55040W        W98134   0.357  24.240   6.433  0.1502  0.1430 -0.0518
55041W        W98135   0.147  22.834   4.795 -0.0343 -0.0132 -0.1737
55042W        W98136   0.216  24.806   5.417 -0.0404 -0.1586 -0.0663
55043W        W98137  31.939  22.334   6.136  0.0110 -0.0381  0.2052
55044W        W98138  34.172  24.196   5.188 -0.1382  0.0787  0.2907
55045W        W98139  32.641  24.168   5.402  0.1716 -0.2884  0.0826
55046W        W98140  34.410  21.806   5.538  0.0224 -0.1461  0.0237
55047W        W98141   0.158  25.952   5.464 -0.2109  0.0997 -0.0165
55048W        W98142  29.714  23.835   9.358  0.0313 -0.0657 -0.0212
55049W        W98143  34.024  22.896   8.424 -0.0384 -0.2978 -0.0439
55050W        W98144  32.536  21.166   9.566  0.3585 -0.1235 -0.5513
55051W        W98145  34.579  23.785   9.876 -0.3144 -0.1426 -0.3196
55052W        W98146  34.609  23.332   7.597 -0.2314  0.0896 -0.2699
55053W        W98147  33.115  23.225   9.902  0.0705  0.1491 -0.0237
55054W        W98148  33.350  23.662   8.067  0.3854 -0.0142  0.0800
55055W        W98149  33.389  23.464  10.170 -0.3007 -0.1472  0.1151
55056W        W98150  33.801  22.934   7.946  0.3117  0.2682  0.0896
55057W        W98151  33.108  24.430   9.158 -0.1599  0.0018 -0.0698
55058W        W98152  33.796  25.093   9.566 -0.1598  0.2322  0.1633
55059W        W98153  33.036  23.025   7.306 -0.0494 -0.2234  0.0010
55060W        W98154  32.717  23.968   9.260  0.0783  0.3730 -0.2849
55061W        W98155  33.861  22.830   8.979  0.0921  0.1503  0.1410
55062W        W98156  33.742  26.434   9.597  0.2727 -0.0582  0.2400
55063W        W98157   0.469  24.566   9.027 -0.2244  0.0095  0.0069
55064W        W98158  32.877  24.369   7.566 -0.0980  0.0210 -0.0033
55065W        W98159  31.818  23.317   9.785  0.1141  0.0688 -0.0632
55066W        W98160  34.379  25.082   8.446 -0.2339 -0.1279 -0.2167
55067W        W98161  33.652  24.347   7.554  0.0388 -0.0333  0.0290
55068W        W98162  34.084  24.179   7.323  0.0838 -0.3397  0.1508
55069W        W98163   1.205  23.872   9.535  0.1442  0.0478  0.0176
55070W        W98164  34.449  24.823  10.278 -0.2816  0.0022  0.0745
55071W        W98165  33.986  24.972   6.957  0.1830  0.0844 -0.3010
55072W        W98166  32.878  21.588   7.408 -0.1544  0.0116  0.2629
55073W        W98167  34.026  21.422   9.214 -0.1556 -0.0684  0.2893
55074W        W98168  34.352  26.664   9.071  0.0855 -0.2673  0.1134
55075W        W98169  34.206  23.490   9.690 -0.0129  0.2678 -0.0458
55076W        W98170  34.540  23.019   9.704 -0.1138 -0.1769 -0.0564
55077W        W98171  33.482  24.372   9.685  0.2421 -0.1040  0.1553
55078W        W98172  33.166  21.660   8.933 -0.2688  0.1804  0.0076
55079W        W98173  33.422  22.869   7.602 -0.1452  0.0433 -0.0579
55080W        W98174  34.584  23.346  10.121  0.0347  0.0309  0.1914
55081W        W98175  33.579  23.882   7.649  0.0969 -0.2039  0.0585
55082W        W98176  32.912  24.308   8.384 -0.1156 -0.0748 -0.0566
55083W        W98177   0.320  23.158   9.722  0.2357 -0.1096  0.0755
55084W        W98178  33.809  25.404   7.797  0.1663  0.2529  0.0759
55085W        W98179  33.551  22.774   8.594  0.3170  0.0750 -0.1879
55086W        W98180  33.986  24.960   7.977  0.0350 -0.4469  0.2448
55087W        W98181   1.034  22.919  10.181 -0.0302  0.1609 -0.4700
55088W        W98182   0.053  24.734   8.794 -0.3245  0.0803 -0.1894
55089W        W98183  33.890  24.893   8.588  0.2639 -0.1637 -0.1463
55090W        W98184  32.596  23.188  10.109 -0.0599  0.0876 -0.1697
55091W        W98185  32.977  22.779   9.028 -0.0222 -0.0237 -0.0166
55092W        W98186  34.023  21.396   9.712  0.0202 -0.0175  0.0258
55093W        W98187  32.518  22.050   8.339 -0.0430 -0.0143  0.0239
55094W        W98188  34.514  23.734   7.998  0.2051  0.1476 -0.0074
55095W        W98189  33.272  24.864   8.188 -0.0789  0.3179 -0.2237
55096W        W98190   0.942  21.885   9.992 -0.2451 -0.0553 -0.0278
55097W        W98191  34.148  23.391   8.178  0.0342 -0.0947  0.1265
55098W        W98192  31.821  25.061   9.957 -0.1634  0.0888 -0.0411
55099W        W98193  33.233  24.074   7.367  0.0453  0.2510 -0.0753
55100W        W98194  34.162  22.723   9.593  0.3411 -0.0690 -0.0173
55101W        W98195  33.313  23.526   7.379  0.2558 -0.1880 -0.1663
55102W        W98196  33.883  26.338   8.066 -0.1858  0.0744  0.2790
55103W        W98197  33.121  23.289   8.488  0.3767 -0.6634 -0.1106
55104W        W98198  33.960  23.304   8.839  0.3024  0.1272  0.1887
55105W        W98199  33.226  24.338   6.843  0.0310 -0.0396  0.1234
55106W        W98200  34.103  23.860   8.747 -0.0106 -0.1714 -0.0499
55107W        W98201  34.605  21.457   9.187  0.0754  0.0997 -0.0673
55108W        W98202  33.846  23.176   9.354  0.0855 -0.1086  0.0803
55109W        W98203   0.279  19.613   9.052  0.3360  0.0790  0.2479
55110W        W98204   0.291  24.714   5.944 -0.1954 -0.0811 -0.0002
55111W        W98205  32.398  23.669   7.887  0.5594 -0.0654 -0.1608
55112W        W98206  32.858  23.788   7.550 -0.0031  0.1633  0.2842
55113W        W98207   0.555  22.834  10.123 -0.1212 -0.1412  0.2440
55114W        W98208  33.452  24.822   9.842 -0.1601 -0.0891  0.2742
55115W        W98209  34.125  24.277   7.798  0.1311 -0.1387 -0.3413
55116W        W98210  33.833  23.930   8.078 -0.2897 -0.0032 -0.0684
55117W        W98211   1.155  20.594   9.414  0.5876 -0.2199 -0.0764
55118W        W98212   1.482  23.485   9.363  0.3312  0.1432  0.0787
55119W        W98213  34.523  24.238   7.077 -0.0309 -0.0960  0.3214
55120W        W98214  33.378  26.190   8.254 -0.0900 -0.0123 -0.0201
55121W        W98215  32.066  24.301   9.627  0.0660 -0.0270 -0.0472
55122W        W98216  33.771  23.421   7.834  0.2636 -0.0700  0.1519
55123W        W98217  33.586  24.944   7.574 -0.1683 -0.0233  0.2575
55124W        W98218  33.218  23.779   9.821 -0.0958 -0.0288  0.0086
55125W        W98219   1.223  23.435   8.954 -0.0845 -0.0825  0.1544
55126W        W98220  31.866  24.506  10.269  0.0072  0.0788  0.4823
55127W        W98221  33.128  23.307   6.930  0.2418  0.0013  0.1145
55128W        W98222  34.583  23.805   8.996 -0.3268  0.1165  0.0651
55129W        W98223  32.080  25.789   7.568  0.2892 -0.0231  0.0154
55130W        W98224  33.043  24.041   7.971 -0.0701 -0.0263 -0.0960
55131W        W98225  33.434  25.037   8.801  0.2319 -0.2462  0.2528
55132W        W98226   2.149  20.858   9.626 -0.3091 -0.1136  0.3772
55133W        W98227  33.270  22.459   7.960  0.1723  0.1146 -0.5589
55134W        W98228   0.777  21.802   8.961 -0.0979  0.1742 -0.0795
55135W        W98229   1.002  22.400  10.071  0.2723 -0.0605 -0.2873
55136W        W98230  33.847  24.262   8.513 -0.1294  0.0468  0.1049
55137W        W98231  33.640  22.609   9.439  0.0832 -0.1814  0.0334
55138W        W98232  34.006  25.158   7.415  0.1727  0.3737  0.0529
55139W        W98233   0.618  22.191  10.338 -0.1761 -0.0304 -0.0411
55140W        W98234   0.426  23.713   9.551 -0.2574  0.0134  0.3552
55141W        W98235  34.066  24.681   7.452 -0.0091 -0.0638 -0.1311
55142W        W98236  33.225  21.456   9.388  0.2002  0.0223 -0.0067
55143W        W98237  33.631  23.232   8.349  0.0564 -0.3930 -0.1692
55144W        W98238  33.933  22.587  10.117  0.0693 -0.1413 -0.0545
55145W        W98239  33.138  22.801   6.848  0.0659 -0.1574 -0.0806
55146W        W98240   0.066  23.985   9.443 -0.2414  0.1098  0.0333
55147W        W98241  34.669  24.227   8.045 -0.1186 -0.1873  0.2351
55148W        W98242   0.816  24.194   9.749 -0.1769 -0.0199 -0.0790
55149W        W98243   0.335  24.375   8.385 -0.2396 -0.0920  0.2638
55150W        W98244  33.352  23.156   9.044 -0.0147 -0.0009 -0.0641
55151W        W98245  33.678  22.163   9.635  0.3963 -0.3498  0.1706
55152W        W98246  32.715  23.396   7.252  0.0643 -0.1099  0.2212
55153W        W98247   0.838  24.995   6.798 -0.1093  0.1075  0.2544
55154W        W98248  31.641  22.639   9.931  0.3255  0.1146 -0.0088
55155W        W98249  32.774  22.086   6.546  0.1485  0.1116 -0.0046
55156W        W98250  34.441  22.620   7.541  0.2949  0.1574  0.3179
55157W        W98251   0.074  22.743   9.993  0.1500 -0.0785  0.1151
55158W        W98252   0.397  21.617   8.480  0.0514 -0.1087  0.1989
55159W        W98253  33.947  26.438   6.689  0.0318 -0.0894 -0.2444
55160W        W98254  34.289  25.355   9.385 -0.2401 -0.2537 -0.0076
55161W        W98255  33.353  24.956   9.313  0.0660  0.0475  0.0974
55162W        W98256   0.868  22.708   9.126 -0.2667  0.1455  0.0474
55163W        W98257  33.589  24.626   9.039  0.2747 -0.0700 -0.2146
55164W        W98258  33.281  24.453   7.869 -0.0940  0.0642 -0.1513
55165W        W98259  33.653  21.986   8.904 -0.0025  0.1704 -0.1313
55166W        W98260  34.131  23.596   9.228  0.0767 -0.1039  0.0139
55167W        W98261  33.622  25.184   8.265  0.0574 -0.2539  0.2270
55168W        W98262   0.598  22.229   9.222  0.2661  0.0924  0.3402
55169W        W98263  33.405  24.562   8.572 -0.1241  0.2250  0.2841
55170W        W98264  32.606  24.955   7.536  0.0087  0.3601  0.1739
55171W        W98265  33.227  25.516  10.275 -0.3652  0.2656  0.2748
55172W        W98266   1.255  22.855   8.750  0.2652 -0.2060  0.0682
55173W        W98267  34.236  21.529   8.278  0.1836 -0.0958  0.0360
55174W        W98268  32.491  24.938   9.475 -0.2234  0.2501  0.0439
55175W        W98269   0.796  23.003   9.556 -0.0254 -0.0887  0.3305
55176W        W98270  34.209  23.152   7.759 -0.0082 -0.2364  0.0340
55177W        W98271  32.746  25.009   8.115  0.2490  0.3238 -0.0014
55178W        W98272  33.842  26.794   9.858  0.1338  0.2787 -0.3710
55179W        W98273  33.482  25.946   9.560  0.1990 -0.0433  0.1061
55180W        W98274  33.303  24.136   8.810  0.0844 -0.2160 -0.0000
55181W        W98275  33.644  23.747   8.546  0.1058 -0.1214  0.0308
55182W        W98276  34.195  22.192   9.688  0.0029  0.0878 -0.0231
55183W        W98277  33.686  25.342  10.367  0.0363 -0.1457  0.0209
55184W        W98278  33.599  22.261   7.118  0.0952  0.0158 -0.2218
55185W        W98279  33.235  21.977   9.774  0.1701 -0.1741 -0.0833
55186W        W98280  32.999  25.557   8.918 -0.2097 -0.0993  0.2744
55187W        W98281   2.305  23.251   9.831  0.1232  0.0488  0.1246
55188W        W98282  33.327  20.930   9.648  0.1652  0.2237  0.0744
55189W        W98283  34.473  25.605   8.452  0.1604 -0.1272  0.0284
55190W        W98284  33.778  23.986   9.553 -0.0785  0.2270  0.1884
55191W        W98285   0.145  22.390   8.988 -0.1967 -0.0745  0.0818
55192W        W98286   0.656  21.435   9.838 -0.0072 -0.3755 -0.3223
55193W        W98287  33.943  25.704   8.927  0.2583 -0.1774  0.0394
55194W        W98288   0.060  25.149   5.088  0.1156 -0.0173 -0.0695
55195W        W98289   0.190  24.778  10.000 -0.5124 -0.0085  0.2077
55196W        W98290  33.781  24.770   6.043 -0.0139  0.1009  0.2460
55197W        W98291  34.534  23.600   8.509 -0.2824  0.1747  0.1726
55198W        W98292  33.377  24.846   6.881  0.3615 -0.1409  0.0714
55199W        W98293   1.178  23.282   8.444  0.2405  0.0986 -0.0288
55200W        W98294   0.372  23.814  10.084 -0.0064  0.3492 -0.0325
55201W        W98295  32.927  24.515   9.995  0.1561 -0.0813  0.0334
55202W        W98296  33.307  23.302   6.411  0.1250 -0.0975  0.2248
55203W        W98297  33.973  24.961   6.474 -0.2891 -0.0385 -0.2776
55204W        W98298   0.094  24.577   9.418  0.2576 -0.0073 -0.3203
55205W        W98299  33.192  23.628   8.904  0.2110  0.0770 -0.2119
55206W        W98300  32.730  21.037   8.585 -0.2314 -0.2864  0.2002
55207W        W98301  32.159  21.484   9.359  0.0485  0.2358  0.1062
55208W        W98302  31.768  22.855   8.976  0.2922  0.0381 -0.1077
55209W        W98303  33.910  22.419   8.701 -0.0361 -0.0292  0.1842
55210W        W98304   0.277  24.486   6.857  0.1010 -0.0030  0.0371
55211W        W98305  32.908  22.772   7.688  0.0292  0.1408 -0.1832
55212W        W98306   1.377  22.024   9.773 -0.0577  0.0676 -0.2070
55213W        W98307  34.529  19.139  12.498  0.3964 -0.1668 -0.1294
55214W        W98308   1.511  22.363  10.346 -0.1596 -0.0083 -0.0964
55215W        W98309  34.599  22.686   9.319  0.0887  0.1003 -0.1990
55216W        W98310  32.841  22.289   7.682  0.1894 -0.1451  0.1009
55217W        W98311  33.603  23.217   6.964 -0.1449 -0.0982 -0.0363
55218W        W98312  34.017  24.615   9.471 -0.1081 -0.0083  0.2046
55219W        W98313   0.267  21.847   9.011  0.1881 -0.2061 -0.0720
55220W        W98314  34.386  23.164   9.209  0.3393  0.1301 -0.0016
55221W        W98315   0.613  24.436  10.177  0.0190  0.1443 -0.0330
55222W        W98316  33.432  22.521   9.873  0.2576  0.0157  0.0540
55223W        W98317  33.488  25.434   9.206  0.0337  0.0635  0.0274
55224W        W98318  33.763  27.910   1.403 -0.1419  0.3502 -0.3525
55225W        W98319  33.907  25.908   1.743 -0.3372  0.0062  0.0778
55226W        W98320  33.936  26.445   1.638  0.1347  0.0362 -0.1337
55227W        W98321  33.313  25.277   3.494  0.1029 -0.0150  0.1130
55228W        W98322  33.623  28.403   3.380  0.6677  0.1287 -0.1741
55229W        W98323  33.181  28.056   3.503 -0.1590 -0.0717 -0.0044
55230W        W98324  33.498  25.888   0.587  0.1543 -0.2292  0.2176
55231W        W98325  31.355  26.899   2.840 -0.1935  0.0206 -0.1250
55232W        W98326  32.385  26.556   1.155 -0.2249 -0.1004 -0.1243
55233W        W98327  34.161  25.280   2.978 -0.0779 -0.0517 -0.2335
55234W        W98328   0.162  28.001   1.971 -0.2155 -0.1538 -0.0292
55235W        W98329  33.576  26.838   1.891 -0.1239  0.1965 -0.3473
55236W        W98330   1.849  28.422   1.786 -0.2423  0.1336  0.0352
55237W        W98331  33.319  28.037   0.551  0.2149 -0.0187  0.1030
55238W        W98332  32.930  26.450   2.196 -0.0498 -0.1770  0.0380
55239W        W98333  33.413  27.581   2.762 -0.0417 -0.6343  0.2846
55240W        W98334  34.108  29.499   0.272  0.2198 -0.0532 -0.3146
55241W        W98335   0.440  29.412   2.040  0.0826  0.1664  0.1803
55242W        W98336  34.375  28.050  31.736 -0.1870  0.0290 -0.2911
55243W        W98337  32.817  29.534   1.634  0.2852  0.0613 -0.1513
55244W        W98338   0.071  30.062  31.793  0.0169 -0.1201 -0.2452
55245W        W98339  34.023  28.429   3.641  0.3383  0.1555  0.0830
55246W        W98340  32.574  27.259   1.450 -0.1845 -0.3086  0.0276
55247W        W98341  33.707  27.372   3.152  0.0890 -0.2629 -0.4087
55248W        W98342  33.318  29.157  31.622  0.0657 -0.0764  0.0626
55249W        W98343   0.064  27.884   0.144  0.0192 -0.0452  0.1646
55250W        W98344  34.252  27.563   3.749 -0.0791  0.0145 -0.1743
55251W        W98345  32.649  29.442   3.363 -0.0921  0.0214 -0.0755
55252W        W98346  33.669  29.672  31.200 -0.1976 -0.4687 -0.3163
55253W        W98347  33.484  26.055   1.516 -0.0138  0.1997 -0.2702
55254W        W98348  33.887  25.458   1.982  0.0581  0.0102 -0.1636
55255W        W98349  34.376  29.076   0.639 -0.1669 -0.0896 -0.0126
55256W        W98350  33.967  27.188   1.919 -0.0825 -0.3280 -0.1269
55257W        W98351  33.142  27.607   3.308  0.0769  0.3627  0.0992
55258W        W98352  33.480  27.270   2.157  0.2327 -0.1099 -0.0156
55259W        W98353  31.576  27.799   0.407  0.1687 -0.0848  0.2114
55260W        W98354  31.772  27.936   3.063 -0.0877  0.2306  0.1969
55261W        W98355  32.093  27.103   3.086 -0.2500  0.2585 -0.1345
55262W        W98356  34.325  25.895   1.122  0.1697  0.1169 -0.0638
55263W        W98357  31.986  27.350   2.429 -0.1122  0.2310 -0.1448
55264W        W98358  34.674  27.610   0.658  0.1340 -0.0827 -0.1999
55265W        W98359  34.003  27.531  31.087  0.1329  0.1149 -0.1617
55266W        W98360  34.190  27.642   0.864 -0.0125  0.1979 -0.2996
55267W        W98361  32.024  28.078   1.378  0.1832  0.0712 -0.1115
55268W        W98362  33.145  25.503   3.954 -0.0684  0.0910  0.0518
55269W        W98363  33.268  27.087   3.326  0.3119  0.0677  0.2620
55270W        W98364  33.252  29.434   0.067 -0.0615  0.1984 -0.2730
55271W        W98365  31.659  27.772   2.490  0.3152 -0.0614  0.2189
55272W        W98366  32.017  27.230   1.508 -0.2799  0.0104  0.0691
55273W        W98367  34.515  26.621   2.411 -0.1740 -0.1598  0.3302
55274W        W98368  33.843  26.813   2.316  0.4066  0.2595  0.4032
55275W        W98369  33.066  26.620   3.386 -0.4842  0.1730 -0.1082
55276W        W98370  32.769  27.687   1.259  0.0656  0.0416  0.0285
55277W        W98371  32.468  27.253   2.701  0.0234  0.3489 -0.1663
55278W        W98372  33.543  26.265   1.933 -0.2469 -0.3499  0.0742
55279W        W98373  33.902  25.478   2.552  0.0077  0.4160  0.0651
55280W        W98374  34.178  25.477   1.442  0.0477 -0.3758 -0.0902
55281W        W98375  33.882  26.858   0.667 -0.2741 -0.2523  0.0197
55282W        W98376  34.065  27.675   1.841  0.0120  0.1820  0.4960
55283W        W98377  32.089  28.566   1.232 -0.2449 -0.1729 -0.1513
55284W        W98378  33.555  26.525   3.348  0.0213 -0.1134 -0.3250
55285W        W98379  34.181  26.017   0.139 -0.1546 -0.1382 -0.0356
55286W        W98380  33.440  28.154   0.997 -0.1963  0.1005 -0.3591
55287W        W98381  34.126  29.561   2.065  0.1719  0.1494  0.0326
55288W        W98382  34.375  25.157   0.642 -0.1158 -0.0334  0.2069
55289W        W98383  34.639  28.339   2.823 -0.2694 -0.1569  0.1151
55290W        W98384  32.507  26.013   0.461 -0.1544  0.4273 -0.0216
55291W        W98385  32.373  29.075  31.410 -0.0127  0.0277 -0.3580
55292W        W98386  33.113  28.730   1.374  0.0528 -0.1512  0.0008
55293W        W98387  33.614  29.131   0.907 -0.3165 -0.1806 -0.0133
55294W        W98388  32.098  26.673   4.022 -0.1643  0.1631  0.0352
55295W        W98389  33.181  28.658   0.516 -0.0432  0.4476  0.2148
55296W        W98390  32.518  28.594   3.894  0.3197  0.1038 -0.2176
55297W        W98391  33.131  28.085   4.971 -0.2726  0.4017  0.0928
55298W        W98392  33.910  28.438   1.216 -0.2370  0.3804  0.2422
55299W        W98393  34.390  28.052   1.367  0.3386  0.3785  0.0014
55300W        W98394  32.547  27.527   2.330  0.1546 -0.0949  0.1389
55301W        W98395  33.965  26.340   2.190 -0.1973  0.0781  0.1928
55302W        W98396  34.166  27.566   1.363 -0.3771 -0.0366  0.2075
55303W        W98397  33.618  29.365   0.414  0.2571  0.0629  0.0016
55304W        W98398  33.824  25.157   1.427  0.1062  0.0302 -0.0592
55305W        W98399  34.629  27.103   0.353 -0.1965 -0.1550  0.5294
55306W        W98400  34.381  27.513   2.684  0.2056 -0.2043 -0.0077
55307W        W98401  33.675  27.887   3.546  0.0638  0.2738  0.0091
55308W        W98402  32.745  28.906   3.516  0.2164  0.0010 -0.1163
55309W        W98403  34.352  26.147   3.532 -0.0757  0.1250 -0.4340
55310W        W98404  33.665  28.596   0.321  0.1361 -0.0579 -0.1312
55311W        W98405  34.007  28.158   1.728 -0.0148  0.1756  0.1346
55312W        W98406  34.003  26.392   3.170 -0.1750  0.0179 -0.0568
55313W        W98407  32.698  27.680   1.796  0.0416 -0.0969  0.1444
55314W        W98408  32.770  28.749  31.769 -0.3227  0.0662 -0.0256
55315W        W98409  33.256  27.404   1.749  0.3662  0.0207  0.2378
55316W        W98410  32.965  28.671   2.770  0.0843 -0.2676 -0.2593
55317W        W98411  34.081  28.499  31.546 -0.0516 -0.0996  0.0977
55318W        W98412  33.408  25.854   0.046  0.0048  0.1820  0.0229
55319W        W98413  33.436  25.697   1.857  0.1081  0.0358  0.1218
55320W        W98414  33.988  28.223   3.100  0.2362 -0.3034  0.0637
55321W        W98415  32.906  28.539   0.925 -0.2756 -0.0600 -0.3669
55322W        W98416  33.258  27.975   4.062 -0.0192  0.4092 -0.2040
55323W        W98417  32.590  26.966   0.047  0.1644 -0.0914  0.2953
55324W        W98418  33.074  26.874   1.818  0.2085 -0.2523 -0.1077
55325W        W98419  32.652  28.261   2.633  0.2434 -0.0427 -0.0879
55326W        W98420  33.385  26.887   0.973  0.0558 -0.0045  0.0395
55327W        W98421  32.831  28.103   0.641  0.2048 -0.1900  0.0891
55328W        W98422  33.734  26.945   3.592 -0.1023  0.0068 -0.1592
55329W        W98423  33.917  27.750   2.800 -0.3195 -0.1605  0.2390
55330W        W98424  34.462  26.375   1.944 -0.0924 -0.0726  0.0486
55331W        W98425  33.566  28.230   1.973 -0.5558 -0.1426  0.0665
55332W        W98426   0.281  28.183   3.099 -0.0093  0.1565  0.1600
55333W        W98427  32.997  27.835   4.421  0.0934 -0.2113 -0.0605
55334W        W98428  33.212  28.439  31.925 -0.3503  0.2019  0.4259
55335W        W98429  31.535  27.202   1.850  0.1491  0.3506 -0.1589
55336W        W98430  34.456  27.228   1.007  0.0921  0.0718  0.0964
55337W        W98431  33.683  26.664   2.792 -0.0065 -0.1845  0.0889
55338W        W98432  32.994  29.220   2.561 -0.0883  0.0785  0.1816
55339W        W98433  34.247  27.424   0.430  0.2199 -0.1459 -0.0508
55340W        W98434  32.320  28.122   3.130  0.0303 -0.2478  0.0192
55341W        W98435  33.898  27.970   2.194 -0.1071 -0.0213  0.1446
55342W        W98436  32.715  25.153   1.751  0.0389  0.2033  0.1320
55343W        W98437  32.394  26.640   2.745 -0.0606 -0.1100  0.1109
55344W        W98438  33.451  28.007   3.075 -0.1854  0.0175  0.2812
55345W        W98439  32.716  26.526   0.287 -0.0820  0.0999  0.2450
55346W        W98440  32.830  27.680   2.832 -0.1000 -0.0547  0.1146
55347W        W98441  34.206  29.523  31.770 -0.0858  0.2164  0.0500
55348W        W98442  32.309  27.281   1.921  0.3036  0.5449  0.1627
55349W        W98443   0.538  28.729   0.454  0.0204  0.0103  0.1486
55350W        W98444  33.302  27.678   1.370 -0.0883 -0.0495 -0.1107
55351W        W98445  33.596  25.114   3.953  0.0799  0.0401 -0.0291
55352W        W98446   0.051  27.389   3.773 -0.0974 -0.0942 -0.1384
55353W        W98447  33.917  26.354   3.649 -0.2079  0.0616  0.0031
55354W        W98448  33.059  26.268   2.646  0.3001 -0.1224  0.1467
55355W        W98449  34.215  24.631   0.744  0.5120  0.0307  0.0802
55356W        W98450  34.636  29.451   0.380 -0.0888 -0.1768  0.0883
55357W        W98451  33.159  26.673   2.928  0.0201 -0.1237 -0.0248
55358W        W98452  33.903  28.373   4.562  0.2539 -0.1744 -0.2141
55359W        W98453  33.370  27.613   0.310 -0.2129 -0.0370 -0.1289
55360W        W98454  33.647  28.288  31.533 -0.0474 -0.2149 -0.1014
55361W        W98455  33.517  28.644   2.350  0.0619  0.2046 -0.0375
55362W        W98456  34.377  25.557   0.096  0.0068  0.0080 -0.0364
55363W        W98457  31.947  29.530   0.642  0.1356 -0.1067 -0.1830
55364W        W98458  34.480  28.659   2.455 -0.1810 -0.0468  0.0263
55365W        W98459  32.904  27.183   2.934  0.2438 -0.3475  0.1841
55366W        W98460  32.445  28.763   0.719 -0.1795 -0.1467  0.0231
55367W        W98461  34.530  27.734   1.728  0.0953 -0.2827 -0.1875
55368W        W98462  32.881  27.266   2.069 -0.1093  0.2743 -0.2013
55369W        W98463  31.757  27.732   2.029 -0.0108 -0.0979 -0.2740
55370W        W98464  31.758  25.041   3.188 -0.0694  0.0849 -0.2191
55371W        W98465  34.376  24.204   1.440  0.3070  0.0016 -0.0749
55372W        W98466  33.533  29.340   4.100 -0.1674  0.3196 -0.1177
55373W        W98467  32.592  28.604   1.272 -0.0198  0.1637  0.0962
55374W        W98468   0.271  27.477   0.305  0.3414  0.1622  0.1592
55375W        W98469  33.163  28.239   2.648 -0.0370  0.3700  0.2095
55376W        W98470  30.924  29.774   0.971  0.0426  0.2421  0.0798
55377W        W98471  33.552  29.030   1.327 -0.1366 -0.1962  0.1460
55378W        W98472   0.208  28.413   2.193  0.0166 -0.0171  0.0060
55379W        W98473   0.340  26.606   0.792 -0.0618 -0.0501 -0.0824
55380W        W98474  32.574  28.087   1.474 -0.1499  0.0448 -0.0252
55381W        W98475  32.785  27.971   3.833  0.2041 -0.0572 -0.2249
55382W        W98476  34.013  27.864   0.044 -0.0404 -0.0778 -0.1790
55383W        W98477  33.740  27.630   1.017 -0.3274  0.1007 -0.0967
55384W        W98478   0.803  27.423   0.815  0.2390 -0.0271  0.2809
55385W        W98479  33.724  29.012   2.092  0.4554 -0.2885  0.0832
55386W        W98480  33.965  28.377   0.014  0.1026  0.0297  0.2497
55387W        W98481  34.439  28.486   3.273 -0.3044  0.0649 -0.2804
55388W        W98482  33.062  26.194   0.486  0.1641 -0.0534 -0.0900
55389W        W98483   0.028  26.927   3.444 -0.3122 -0.1244  0.0346
55390W        W98484  33.892  26.898   1.494 -0.0383 -0.0894 -0.0716
55391W        W98485  33.232  26.898   3.802  0.2439 -0.3013  0.0669
55392W        W98486  34.121  26.458   0.409  0.1343  0.0534  0.0041
55393W        W98487  32.541  26.394   1.654  0.0808 -0.3202  0.0144
55394W        W98488  33.075  27.272   1.269 -0.0121 -0.0133 -0.1213
55395W        W98489  34.377  27.060   2.247  0.1191 -0.0047  0.0859
55396W        W98490  33.604  25.141   3.086  0.0213 -0.1010  0.1892
55397W        W98491   0.408  29.591   0.823  0.1017  0.0986 -0.1786
55398W        W98492  32.190  26.123   1.295 -0.0989 -0.0876 -0.1060
55399W        W98493   1.189  25.075   0.606 -0.3692  0.0296 -0.0506
55400W        W98494  33.565  26.290   2.503 -0.2243  0.1520 -0.2163
55401W        W98495  33.639  29.618   2.087 -0.0602 -0.0678 -0.0222
55402W        W98496  32.496  28.204   0.980 -0.2898  0.1769  0.3633
55403W        W98497  33.833  28.088   4.194  0.0386  0.2481 -0.2082
55404W        W98498  34.091  28.656   4.110 -0.0840  0.1687  0.1109
55405W        W98499  33.565  26.843   0.228 -0.1374 -0.0190 -0.0354
55406W        W98500   0.135  28.801   3.022 -0.1044  0.2870  0.1035
55407W        W98501  32.976  28.149   1.204  0.3244  0.1778  0.2081
55408W        W98502  32.686  29.036   1.555 -0.1071  0.0966  0.1592
55409W        W98503   0.100  26.827   1.234 -0.1886 -0.0291 -0.3136
55410W        W98504  33.016  25.654   0.335  0.1406  0.2769 -0.2471
55411W        W98505  34.226  28.256   2.526  0.0420 -0.0373  0.2672
55412W        W98506  31.700  25.911   1.543  0.1070 -0.0987  0.0207
55413W        W98507  33.812  27.716   0.519 -0.2946  0.0345 -0.1010
55414W        W98508  33.510  29.076   2.636  0.0664 -0.1949  0.1329
55415W        W98509  33.811  26.175   4.184 -0.0444 -0.5478  0.1384
55416W        W98510  33.216  25.528   4.495 -0.0962 -0.0231 -0.0535
55417W        W98511  32.183  27.873   2.279 -0.1156  0.0660 -0.0639
55418W        W98512  33.868  26.004   1.149  0.0756 -0.0806  0.2001
55419W        W98513  33.253  26.801   2.341  0.0329  0.0300  0.3801
55420W        W98514  33.735  25.881   2.246 -0.1386 -0.0600 -0.0690
55421W        W98515  33.945  26.000   0.653  0.0655 -0.0167 -0.1792
55422W        W98516  33.472  28.449  31.013 -0.1591  0.0349  0.0377
55423W        W98517   1.497  26.925   2.979 -0.1618  0.2742 -0.0240
55424W        W98518  34.198  25.909   4.411 -0.1567 -0.2915 -0.3146
55425W        W98519  33.361  25.330  31.961 -0.2289  0.0324  0.0882
55426W        W98520  34.050  27.117   2.695  0.2611 -0.1564  0.0027
55427W        W98521  33.961  28.506   2.172  0.1735 -0.1035  0.1319
55428W        W98522  33.968  28.733   3.185  0.0354  0.1844 -0.0857
55429W        W98523  33.489  26.167   2.989 -0.0613 -0.1870 -0.2064
55430W        W98524  33.471  28.659   2.938 -0.1100 -0.1663 -0.0825
55431W        W98525  33.322  23.546   2.720  0.0407 -0.2505  0.0781
55432W        W98526  34.328  28.020   3.561  0.2565 -0.1481  0.1040
55433W        W98527  32.262  25.107   1.527 -0.2616 -0.0684  0.0752
55434W        W98528  33.126  27.370   2.459  0.3351 -0.1450  0.1584
55435W        W98529  33.552  26.367   0.753 -0.1912  0.3317 -0.0194
55436W        W98530  34.073  27.690   3.233  0.1231 -0.0507  0.2835
55437W        W98531   0.437  27.855   0.845  0.2238 -0.1839 -0.0001
55438W        W98532  34.364  29.587   2.751  0.0610 -0.2933  0.3518
55439W        W98533  32.693  25.980   2.285 -0.2121  0.1453  0.1889
55440W        W98534  32.471  25.888   0.978 -0.0766 -0.1001 -0.0705
55441W        W98535  33.591  27.265   0.661 -0.0968 -0.0095  0.2122
55442W        W98536  33.694  24.803   1.775 -0.2024  0.0868  0.1501
55443W        W98537  33.837  29.758   2.511  0.0930  0.2091 -0.0505
55444W        W98538  34.030  29.241   7.112 -0.0353  0.0427  0.1785
55445W        W98539  31.246  25.989   4.935  0.0170 -0.1169 -0.0867
55446W        W98540  32.292  24.760   6.454 -0.2210  0.1917  0.1709
55447W        W98541  33.403  26.261   6.074  0.1004 -0.0114  0.0630
55448W        W98542   0.101  27.560   6.522 -0.0364 -0.1839 -0.3092
55449W        W98543  34.053  29.085   5.915 -0.0297  0.3065  0.1786
55450W        W98544  33.727  26.711   4.812  0.0602 -0.0876 -0.1012
55451W        W98545  32.570  25.973   6.455 -0.1270 -0.3406  0.0910
55452W        W98546  32.368  27.149   4.083 -0.0548  0.1140 -0.1192
55453W        W98547  33.883  26.178   6.062 -0.0133  0.0290  0.0743
55454W        W98548  33.224  27.344   4.354  0.1018  0.0739  0.0649
55455W        W98549   0.183  25.952   5.973 -0.0512  0.0766 -0.0754
55456W        W98550  34.195  28.810   4.595 -0.0119  0.0247  0.0747
55457W        W98551  31.696  27.548   3.805  0.0167  0.2138 -0.1904
55458W        W98552  33.107  27.322   5.978  0.1045 -0.0712  0.0434
55459W        W98553  34.334  28.903   5.484 -0.0322  0.1667  0.0323
55460W        W98554  32.957  29.300   4.611 -0.1375 -0.0926 -0.2367
55461W        W98555   1.051  28.870   6.159 -0.1251  0.1949  0.0899
55462W        W98556  32.606  28.799   5.317  0.2926 -0.3015 -0.0734
55463W        W98557  32.365  30.323   6.177  0.0548  0.2238  0.2817
55464W        W98558   0.270  29.030   3.772 -0.1428 -0.0647 -0.1463
55465W        W98559  34.639  29.344   6.980 -0.2793  0.0427 -0.1317
55466W        W98560  33.165  28.702   3.323 -0.0490  0.1960 -0.4753
55467W        W98561  34.505  29.830   8.403  0.2392 -0.2493 -0.1553
55468W        W98562  32.632  28.277   4.269  0.1271 -0.0465  0.0874
55469W        W98563   0.489  29.216   5.500  0.2316  0.1754 -0.0434
55470W        W98564   0.751  28.730   7.114  0.2255 -0.3089  0.1279
55471W        W98565  32.401  29.337   5.131 -0.1829 -0.5760 -0.0722
55472W        W98566  32.241  29.043   4.217  0.3147  0.1773  0.0589
55473W        W98567  32.592  26.670   3.861  0.1743 -0.1405 -0.2616
55474W        W98568  34.369  25.902   5.270  0.0212  0.0844  0.0362
55475W        W98569  33.462  28.135   4.545 -0.1368  0.1053  0.1643
55476W        W98570  33.694  26.570   5.270  0.0438 -0.0175  0.0732
55477W        W98571  34.191  29.739   5.737  0.1267  0.2110 -0.2319
55478W        W98572  32.098  28.206   5.509  0.1821  0.2948 -0.0089
55479W        W98573  32.860  27.077   4.027  0.0027  0.1017 -0.2254
55480W        W98574  34.208  27.826   7.460  0.0014  0.1814 -0.0204
55481W        W98575  33.270  26.580   6.437  0.0269  0.1068 -0.2239
55482W        W98576  32.992  25.551   2.478 -0.0692 -0.0113  0.0898
55483W        W98577  33.885  28.872   6.751 -0.3139 -0.0271 -0.0221
55484W        W98578  34.234  29.090   5.039  0.2283  0.0644  0.1716
55485W        W98579  34.160  27.180   4.060  0.1618  0.2581  0.5134
55486W        W98580  34.388  26.055   3.044 -0.3487  0.2378 -0.0254
55487W        W98581  32.871  29.242   5.213 -0.4158  0.3482 -0.2664
55488W        W98582  34.214  26.631   6.330 -0.1280 -0.1759  0.1306
55489W        W98583   1.218  28.385   5.959  0.0301 -0.0227  0.0874
55490W        W98584  33.617  28.683   4.243 -0.1764 -0.3941 -0.0222
55491W        W98585  34.078  28.587   5.801  0.1706  0.0847 -0.1089
55492W        W98586  31.948  26.816   5.010  0.0264 -0.0390 -0.5538
55493W        W98587  33.547  27.276   6.218  0.0097  0.1307  0.2011
55494W        W98588  33.317  28.375   7.740  0.1809  0.0772 -0.0852
55495W        W98589  34.019  26.319   7.232 -0.0137  0.0361  0.0569
55496W        W98590  32.225  25.973   3.472 -0.2687 -0.1691 -0.1082
55497W        W98591  33.133  28.054   6.649  0.0039  0.1395  0.0677
55498W        W98592  32.695  27.407   4.386 -0.2814  0.2801 -0.0343
55499W        W98593  33.130  25.563   8.406 -0.0972 -0.2361  0.0606
55500W        W98594  34.372  27.422   5.239 -0.2666 -0.0769  0.1838
55501W        W98595  32.863  24.410   4.352 -0.1205 -0.2624  0.3721
55502W        W98596  33.543  28.333   3.876 -0.1573  0.0188 -0.1036
55503W        W98597  32.982  26.522   4.659 -0.1223 -0.0508  0.2491
55504W        W98598  34.412  27.698   7.995  0.0084 -0.0075 -0.0336
55505W        W98599  33.648  25.879   4.640 -0.0350 -0.0133  0.0493
55506W        W98600  33.105  28.997   6.133  0.2400 -0.1967 -0.2368
55507W        W98601  33.281  28.822   5.186  0.3065  0.0391 -0.0945
55508W        W98602  33.773  27.416   3.825 -0.0003  0.3101  0.0101
55509W        W98603  33.791  27.637   6.588 -0.0849  0.1061 -0.1292
55510W        W98604  32.679  25.758   4.350  0.2206 -0.2588 -0.0831
55511W        W98605  34.010  29.316   5.419 -0.4080 -0.1460  0.1404
55512W        W98606  33.008  26.062   5.217 -0.1315  0.1526 -0.1674
55513W        W98607  34.229  30.236   5.993 -0.1770  0.3041  0.4274
55514W        W98608  33.002  27.532   6.833  0.1920  0.0583 -0.0306
55515W        W98609  33.723  25.685   2.983  0.0071 -0.1398 -0.1920
55516W        W98610  33.168  29.753   7.000  0.0898  0.2217  0.1273
55517W        W98611  33.713  28.664   7.770 -0.0426  0.0234 -0.1348
55518W        W98612  32.145  28.711   5.182  0.0149 -0.3242 -0.0613
55519W        W98613  34.608  28.534   4.472 -0.2656  0.0912 -0.3167
55520W        W98614  32.980  27.148   5.284  0.2112  0.3535  0.1864
55521W        W98615  34.322  26.005   5.743 -0.0786  0.0990 -0.2124
55522W        W98616  33.559  27.118   2.708 -0.0085 -0.1110 -0.0099
55523W        W98617  32.500  27.393   3.198  0.0647 -0.1456  0.0727
55524W        W98618  34.604  25.494   5.790  0.2653 -0.0110  0.0546
55525W        W98619  32.442  27.755   4.127  0.2076  0.0892 -0.1006
55526W        W98620  34.304  25.886   7.425 -0.0809 -0.0476 -0.3510
55527W        W98621  33.428  26.984   5.625 -0.1783  0.2856 -0.1480
55528W        W98622  32.245  29.448   6.150  0.0487  0.0180  0.1436
55529W        W98623  34.409  25.960   6.923 -0.0700  0.0117 -0.3742
55530W        W98624   0.609  29.385   3.737 -0.0290 -0.1447 -0.0701
55531W        W98625  33.689  28.248   2.602 -0.0436 -0.4412 -0.3649
55532W        W98626  33.765  25.630   4.221 -0.1651  0.1567 -0.1775
55533W        W98627  33.091  28.718   5.618  0.0557  0.3330  0.0760
55534W        W98628  34.302  27.711   4.285 -0.2218  0.1228  0.0229
55535W        W98629  33.358  28.595   4.736  0.1195  0.0156  0.2396
55536W        W98630  31.766  29.454   5.737  0.0087  0.2227 -0.1735
55537W        W98631  32.675  25.362   3.935  0.0817 -0.2849  0.1547
55538W        W98632  31.505  25.973   4.267 -0.0885 -0.2079 -0.0816
55539W        W98633  34.211  26.083   6.477  0.4765  0.0609 -0.0456
55540W        W98634  33.950  26.998   5.765 -0.1946 -0.2343 -0.1061
55541W        W98635  32.547  30.194   7.632  0.1686  0.1778  0.2155
55542W        W98636  33.961  26.973   7.276  0.2475  0.0902 -0.0046
55543W        W98637  32.431  26.495   5.381 -0.1526 -0.1748 -0.0783
55544W        W98638  32.966  27.731   5.289  0.2830 -0.0421  0.1215
55545W        W98639  31.986  29.509   4.456 -0.4267  0.4395  0.3084
55546W        W98640  32.709  27.825   3.344  0.1883  0.1765 -0.2078
55547W        W98641  34.264  27.871   5.104 -0.0338  0.1831  0.1194
55548W        W98642  32.785  26.385   7.808  0.1844  0.0978 -0.1853
55549W        W98643  33.418  27.803   5.367  0.1259 -0.5126  0.0499
55550W        W98644  34.325  26.309   3.988  0.0143  0.1950 -0.0957
55551W        W98645  33.917  26.967   4.438  0.1552 -0.1743  0.4524
55552W        W98646   0.627  25.743   5.772  0.1952 -0.2429 -0.1732
55553W        W98647  34.085  28.521   8.271  0.2713 -0.1079 -0.0227
55554W        W98648  32.472  27.756   4.746 -0.3118  0.0746 -0.3026
55555W        W98649  33.522  27.498   5.750  0.0876  0.0971 -0.0729
55556W        W98650  34.308  26.797   3.768 -0.0935 -0.1808  0.2565
55557W        W98651  33.932  27.079   5.206  0.0345 -0.0602 -0.2289
55558W        W98652  33.553  28.919   5.858  0.0803  0.4884  0.3082
55559W        W98653  33.162  27.463   3.865 -0.0220  0.1533 -0.1566
55560W        W98654  33.887  28.731   7.200  0.1430  0.1222  0.0821
55561W        W98655   0.797  26.791   5.392  0.1223  0.2513  0.1276
55562W        W98656  32.706  25.606   6.695 -0.2632  0.0434  0.2466
55563W        W98657  33.137  27.153   6.498 -0.2933 -0.0719 -0.0881
55564W        W98658  33.196  27.631   7.440  0.1378 -0.2662  0.1965
55565W        W98659  33.631  24.618   4.317  0.0259  0.0278  0.1481
55566W        W98660  33.550  27.719   4.810  0.2821  0.1743 -0.0768
55567W        W98661  32.378  28.663   4.708 -0.2619  0.0840  0.3714
55568W        W98662   0.293  28.538   6.376  0.3848 -0.0856 -0.2127
55569W        W98663  33.827  27.488   4.323 -0.0952  0.2307  0.0101
55570W        W98664  32.578  28.607   5.735  0.0422 -0.3462  0.1914
55571W        W98665  34.478  25.766   6.217 -0.0197 -0.4878  0.0463
55572W        W98666  34.417  26.471   6.781 -0.3264 -0.2215 -0.0664
55573W        W98667  33.192  26.384   6.967  0.4232  0.0971 -0.2413
55574W        W98668  32.370  27.209   4.769 -0.1402  0.1312  0.2195
55575W        W98669  32.198  25.447   3.037 -0.1045 -0.0946 -0.0019
55576W        W98670   0.560  29.244   4.553 -0.0657  0.1993  0.1636
55577W        W98671  33.176  25.467   5.939 -0.0837 -0.0600 -0.2520
55578W        W98672  32.133  29.562   9.067  0.2291 -0.4012  0.0065
55579W        W98673  32.707  25.791   3.701 -0.1854 -0.2814 -0.1839
55580W        W98674  34.569  27.456   3.223  0.1248 -0.1310  0.0012
55581W        W98675   0.413  27.648   5.812 -0.2458  0.1110 -0.1969
55582W        W98676   0.156  26.597   3.984 -0.1324  0.1136  0.0793
55583W        W98677  34.523  28.030   4.643 -0.0651 -0.1578 -0.1035
55584W        W98678   0.064  29.860   6.769 -0.2222 -0.3406  0.0507
55585W        W98679  33.798  27.805   7.105  0.0524 -0.2646 -0.1721
55586W        W98680  34.656  29.440   6.459  0.0230  0.2264 -0.2881
55587W        W98681   0.064  28.004   5.109 -0.0583  0.0359 -0.3189
55588W        W98682  33.527  27.991   5.853  0.2408  0.3254 -0.0232
55589W        W98683  32.688  29.136   5.691 -0.1890  0.1314  0.1834
55590W        W98684  32.785  26.946   7.706 -0.2488 -0.1251  0.0761
55591W        W98685  32.582  25.815   5.709  0.0836 -0.0030 -0.0300
55592W        W98686  32.306  28.529   8.476 -0.1813  0.0431 -0.0548
55593W        W98687  32.782  26.359   6.205 -0.0724 -0.3035 -0.2554
55594W        W98688   0.037  29.858   4.975  0.1874  0.1889  0.1547
55595W        W98689  33.510  26.117   3.646 -0.1274 -0.0244  0.0727
55596W        W98690  33.423  29.110   4.827  0.1871  0.0223 -0.0384
55597W        W98691  31.371  28.229   3.292  0.0417  0.0573  0.0836
55598W        W98692  34.315  29.611   5.048  0.1745  0.1918 -0.4991
55599W        W98693  34.049  27.113   6.300 -0.1931 -0.0296 -0.5262
55600W        W98694   0.064  26.374   3.438 -0.2013 -0.2637  0.1879
55601W        W98695  34.158  27.246   7.852  0.0036  0.0187  0.0280
55602W        W98696  32.496  28.434   7.264  0.0019 -0.0058  0.2109
55603W        W98697  31.596  25.897   5.263 -0.2021 -0.0942  0.1023
55604W        W98698  33.942  26.639   4.084 -0.1979 -0.0017 -0.0940
55605W        W98699   1.068  28.380   3.537  0.1442 -0.2907 -0.3025
55606W        W98700  33.716  29.394   3.562  0.1134 -0.2891  0.1213
55607W        W98701  32.930  29.349   6.699  0.1362  0.1530 -0.1454
55608W        W98702  34.532  28.987   6.156  0.1829 -0.1141 -0.0598
55609W        W98703  31.686  25.404   5.395  0.0624 -0.1921  0.1258
55610W        W98704   0.086  26.718   6.382 -0.0241  0.0869  0.1372
55611W        W98705  32.812  26.251   4.293  0.1226  0.0044 -0.1300
55612W        W98706  34.537  27.147   6.369 -0.2214  0.1291 -0.3883
55613W        W98707  32.765  27.013   3.546  0.0147 -0.0087 -0.0563
55614W        W98708  33.217  26.504   5.592  0.2946  0.0780  0.1336
55615W        W98709  33.083  28.222   5.451 -0.0893 -0.1734 -0.0622
55616W        W98710  34.253  27.940   5.804 -0.1138  0.1079 -0.0309
55617W        W98711  32.604  25.460   4.727 -0.1863  0.0415  0.1736
55618W        W98712  34.489  28.523   3.840  0.3362  0.2624  0.2294
55619W        W98713  33.296  26.882   5.016 -0.3381 -0.1348  0.0602
55620W        W98714   0.531  26.725   4.889  0.1453  0.1916 -0.0009
55621W        W98715  33.509  27.172   4.700  0.1047  0.0345  0.1746
55622W        W98716  33.207  28.998   4.307  0.2665  0.0386 -0.2592
55623W        W98717   1.219  28.113   4.416  0.0255  0.0788 -0.0222
55624W        W98718  33.826  28.179   5.466 -0.2682  0.0026  0.1004
55625W        W98719  33.886  28.797   8.663  0.1351 -0.1758 -0.2573
55626W        W98720  32.568  26.360   3.450 -0.2311 -0.3609 -0.3122
55627W        W98721  34.230  29.388   6.239  0.0070  0.0100 -0.0762
55628W        W98722  34.690  29.224   5.214  0.0578 -0.0264 -0.0131
55629W        W98723  34.026  27.888   4.640 -0.2603 -0.2486  0.2621
55630W        W98724  33.575  27.060   4.116 -0.1093 -0.1195 -0.0364
55631W        W98725  33.031  25.635   4.955 -0.1235 -0.1330  0.0411
55632W        W98726  33.461  27.338   7.100  0.0509 -0.1722 -0.0027
55633W        W98727  32.008  28.127   5.011  0.2835  0.1733  0.0015
55634W        W98728  34.393  28.981   2.908  0.0365 -0.1226  0.1408
55635W        W98729  32.637  27.456   5.060 -0.0373 -0.0034 -0.2644
55636W        W98730  33.753  24.468   8.051 -0.0831  0.0738 -0.3551
55637W        W98731  33.107  26.179   7.417 -0.0058 -0.3552 -0.0605
55638W        W98732  33.831  27.688   6.102 -0.2137 -0.1491  0.3048
55639W        W98733  31.761  25.246   5.892  0.2052 -0.1937 -0.0942
55640W        W98734  33.927  25.966   6.895 -0.1163 -0.2244 -0.0793
55641W        W98735  33.273  26.003   5.630 -0.0588  0.1885  0.1565
55642W        W98736  33.883  25.428   4.629 -0.0067  0.1065 -0.1934
55643W        W98737  32.308  28.202   3.840  0.1177 -0.1252 -0.0612
55644W        W98738   0.723  27.569   6.593  0.1109 -0.0502  0.1584
55645W        W98739  33.826  25.638   7.373  0.1627 -0.0327 -0.1930
55646W        W98740  31.502  25.504   4.497 -0.2213 -0.0308 -0.0034
55647W        W98741  33.329  26.390   4.957  0.2538  0.1827 -0.4301
55648W        W98742  34.620  27.651   6.083 -0.2147  0.1467  0.0872
55649W        W98743  34.007  28.408   6.724  0.3265  0.0699  0.0612
55650W        W98744  33.275  26.865   6.940  0.0366 -0.1981 -0.1529
55651W        W98745  34.218  29.286   7.676 -0.0556 -0.4693 -0.3175
55652W        W98746  33.654  26.065   6.472 -0.2619 -0.5095  0.1305
55653W        W98747  33.780  27.023   6.743  0.0563  0.2583 -0.3174
55654W        W98748  33.488  27.345   5.161 -0.3602  0.0104  0.1420
55655W        W98749  33.833  28.871   5.453  0.2367  0.2254  0.2110
55656W        W98750  33.165  25.980   4.636  0.2543  0.0010 -0.0282
55657W        W98751   0.621  27.964   6.283 -0.0790  0.2558 -0.0862
55658W        W98752  33.293  25.982   4.075 -0.0274 -0.0925 -0.4826
55659W        W98753  34.465  29.319   5.753  0.1004 -0.1530 -0.1039
55660W        W98754  33.686  26.760   6.241  0.2179 -0.0895 -0.0622
55661W        W98755  32.824  27.006   4.785 -0.2398 -0.2623 -0.0124
55662W        W98756  33.941  26.895   3.166 -0.2048 -0.1899  0.0598
55663W        W98757  33.193  26.822   4.303 -0.1086  0.1900  0.1558
55664W        W98758  34.175  27.949   6.814  0.1029  0.3226 -0.0940
55665W        W98759   0.007  26.434   9.644  0.1931 -0.3647  0.4014
55666W        W98760  33.210  27.079   8.420  0.1520 -0.1374  0.0000
55667W        W98761  33.975  26.585   8.636 -0.0405 -0.3993  0.2231
55668W        W98762  33.344  24.350  10.277  0.0964  0.2154  0.0503
55669W        W98763  34.231  24.569   8.393 -0.1457  0.1327 -0.0757
55670W        W98764  32.129  25.292   9.313  0.0415  0.3849  0.0433
55671W        W98765  32.550  27.242   8.547 -0.0372 -0.4042 -0.0254
55672W        W98766  34.443  27.135   9.200  0.0048 -0.1531  0.1848
55673W        W98767   0.514  26.490   7.858 -0.2283 -0.1558  0.2981
55674W        W98768  33.833  26.133   9.240  0.2723  0.4180  0.0734
55675W        W98769   0.190  27.140   6.798 -0.0353 -0.4574 -0.2780
55676W        W98770  33.852  27.466   7.481 -0.1728 -0.0833 -0.1031
55677W        W98771  33.385  25.927   9.037  0.2957 -0.1844 -0.1792
55678W        W98772   1.967  28.309   9.922 -0.0053 -0.0233  0.1933
55679W        W98773  33.927  29.440   9.014  0.0796  0.0178 -0.0126
55680W        W98774  33.078  28.195   9.668  0.0519  0.2276  0.1184
55681W        W98775  34.266  27.971   9.148  0.1130 -0.0217 -0.1080
55682W        W98776  31.519  29.664   8.938  0.3942 -0.3005 -0.1537
55683W        W98777  34.017  28.304   7.756  0.0555 -0.1375  0.0441
55684W        W98778  33.945  28.944   9.147 -0.1284  0.1200  0.0214
55685W        W98779   0.788  28.046   8.526 -0.1173  0.1360  0.1255
55686W        W98780   1.217  28.778   7.982 -0.2185  0.0043 -0.1477
55687W        W98781  33.756  26.314  10.137  0.0984  0.2059 -0.0113
55688W        W98782  34.458  28.947   8.314 -0.1628 -0.2936  0.0518
55689W        W98783  34.358  27.249   7.421 -0.2010  0.0588 -0.2173
55690W        W98784  32.931  25.870   7.898 -0.0191  0.1572 -0.1330
55691W        W98785  34.392  29.684   9.824  0.1659 -0.0886  0.2195
55692W        W98786  34.029  27.060   9.443  0.1506 -0.0084  0.2320
55693W        W98787   0.917  28.131  10.514 -0.0869  0.2108  0.2162
55694W        W98788  32.451  26.198  10.034  0.0887 -0.0997  0.0513
55695W        W98789  33.347  26.423   9.318  0.2227 -0.0208  0.0687
55696W        W98790  33.464  25.711   6.939 -0.0170  0.0795  0.0405
55697W        W98791  34.370  27.782   9.898 -0.1607  0.1484 -0.0438
55698W        W98792  34.341  26.976   6.845 -0.4337  0.2904 -0.1589
55699W        W98793   0.341  27.192   8.329  0.1911 -0.3108  0.1698
55700W        W98794  33.253  26.995  10.271  0.3720  0.0856 -0.1676
55701W        W98795  33.581  28.634   8.243  0.0337  0.3471  0.2130
55702W        W98796  32.220  28.300   9.449 -0.1490  0.0303  0.1520
55703W        W98797  33.871  27.713   7.937 -0.0831 -0.2162  0.1756
55704W        W98798  32.169  26.230  10.492  0.0140 -0.0844 -0.0013
55705W        W98799  32.752  25.450  10.043 -0.3207 -0.1175 -0.2122
55706W        W98800  32.856  28.326   7.929  0.1871 -0.0713  0.1811
55707W        W98801  31.084  24.616  10.260  0.1742  0.0953  0.2876
55708W        W98802   0.565  25.632   9.158  0.1668  0.2013 -0.0967
55709W        W98803  34.626  25.295   9.825  0.2983  0.2289  0.0777
55710W        W98804  32.253  25.340   7.826  0.4068  0.2997 -0.2603
55711W        W98805   0.343  26.668   8.340 -0.2236 -0.1924  0.0457
55712W        W98806  32.929  27.226   7.284 -0.0684  0.2399  0.0704
55713W        W98807  33.998  24.869   9.903  0.1665  0.0495 -0.3686
55714W        W98808  32.810  25.350   7.743 -0.1814  0.1139 -0.0357
55715W        W98809  32.839  28.877   9.327 -0.1325 -0.1100  0.0360
55716W        W98810  33.972  27.744   9.560 -0.1197 -0.0086  0.0580
55717W        W98811  33.689  25.998   8.600 -0.1367 -0.2333  0.2382
55718W        W98812  32.822  26.202   5.618  0.0262 -0.2604  0.0876
55719W        W98813  33.285  28.745   8.676  0.1572  0.0082  0.3587
55720W        W98814  33.561  26.909   8.837 -0.4744 -0.2260  0.4200
55721W        W98815   0.841  28.168   6.699  0.0608 -0.2752  0.1729
55722W        W98816  33.583  27.211   8.045 -0.0416  0.2825  0.0970
55723W        W98817  34.483  27.528   6.957  0.4536 -0.1301  0.0030
55724W        W98818  34.339  27.529   8.911  0.1133 -0.0302  0.1160
55725W        W98819  31.132  27.480   9.912 -0.1773 -0.3471 -0.0176
55726W        W98820   0.037  25.307   8.141 -0.0256  0.0278 -0.0354
55727W        W98821   0.161  26.585   6.919  0.2477  0.0538 -0.0180
55728W        W98822  32.869  29.192   8.084  0.0171  0.0004  0.2792
55729W        W98823  33.610  26.622   7.236  0.1228  0.0653 -0.2891
55730W        W98824   0.745  23.495   9.886 -0.1213  0.1747 -0.2474
55731W        W98825  33.496  27.936   9.847 -0.1724 -0.0878 -0.1179
55732W        W98826  33.522  29.960   7.829  0.4266  0.0490  0.1797
55733W        W98827  33.584  28.332   7.315 -0.1489  0.3263 -0.0748
55734W        W98828  33.998  25.744   9.574 -0.1970 -0.0046 -0.2709
55735W        W98829  34.600  25.812   9.594 -0.1293  0.0936  0.2907
55736W        W98830  34.396  29.733   7.211  0.4361 -0.1187 -0.2820
55737W        W98831  34.570  29.126   9.795  0.2228 -0.1201 -0.1701
55738W        W98832  33.755  28.260   8.582  0.0721  0.0020 -0.1761
55739W        W98833  34.242  27.593   6.425 -0.0613 -0.1685 -0.0537
55740W        W98834  32.350  26.702   7.782 -0.2631 -0.2808  0.2030
55741W        W98835  29.272  24.531  10.063  0.3744 -0.1472  0.1675
55742W        W98836   0.471  26.352   9.138 -0.0167 -0.0821  0.1048
55743W        W98837  31.783  25.507  10.218  0.0617 -0.2630  0.2544
55744W        W98838  32.623  26.409   7.349  0.0179 -0.1391 -0.0798
55745W        W98839  33.862  26.817   7.772  0.0821 -0.1272  0.2778
55746W        W98840  32.302  26.785   9.132  0.1751 -0.0103 -0.1331
55747W        W98841  33.861  26.604   9.176  0.1645 -0.0376 -0.1903
55748W        W98842  34.397  25.737  10.166 -0.1778 -0.0881 -0.0916
55749W        W98843   0.683  26.629  10.018 -0.2288 -0.0655 -0.3724
55750W        W98844  33.232  25.921  10.584  0.1855 -0.0340 -0.0565
55751W        W98845   0.224  26.930   9.838  0.4353 -0.0189 -0.2074
55752W        W98846  32.798  25.180  10.535 -0.3015  0.4624  0.0567
55753W        W98847  34.147  27.349   8.502  0.0270  0.0201 -0.0916
55754W        W98848  32.092  27.961   9.870  0.2301 -0.1466  0.2939
55755W        W98849  34.041  28.208   7.213 -0.1699  0.1196 -0.0955
55756W        W98850   0.399  27.703   9.234  0.2988  0.0017  0.1097
55757W        W98851  33.722  27.948   9.105 -0.0707 -0.2622  0.0954
55758W        W98852  33.643  28.162   8.073  0.2890  0.3499 -0.3437
55759W        W98853  32.629  24.906   9.973  0.0136 -0.1433  0.0112
55760W        W98854  34.644  26.278   9.097 -0.1369  0.4511  0.1931
55761W        W98855  33.303  25.432  13.608  0.1053  0.1660 -0.2467
55762W        W98856  31.417  25.142   6.754  0.0056 -0.3376  0.0441
55763W        W98857   0.438  26.177   9.909 -0.0030 -0.0086  0.3255
55764W        W98858   1.707  27.148   8.519  0.0957 -0.1061  0.0317
55765W        W98859  32.639  27.748  10.151 -0.1198  0.1150  0.1966
55766W        W98860   0.361  27.296   6.132 -0.2976 -0.4750  0.4368
55767W        W98861  33.423  27.658   8.259  0.1172  0.1285  0.2342
55768W        W98862   0.525  25.532   9.630  0.0734 -0.1658 -0.1232
55769W        W98863  33.029  24.848   7.774 -0.0076 -0.4367 -0.4209
55770W        W98864   0.346  28.369   6.962 -0.0997 -0.0346 -0.1758
55771W        W98865  32.185  24.732   9.838  0.1544  0.0975  0.0867
55772W        W98866  33.601  26.715   8.305 -0.0368 -0.1557 -0.2548
55773W        W98867  34.371  28.128   6.302 -0.0590 -0.0137 -0.0941
55774W        W98868   0.193  27.304   8.930  0.0966 -0.1790  0.1981
55775W        W98869   0.862  25.886   7.946  0.0074 -0.2066  0.3102
55776W        W98870  32.904  27.701   8.374  0.4024  0.1208  0.1831
55777W        W98871  32.237  27.374  10.080  0.2389 -0.0198  0.0535
55778W        W98872  34.193  28.028   8.396 -0.2708  0.0656 -0.0910
55779W        W98873  34.677  26.166  10.040 -0.1926 -0.0347  0.1380
55780W        W98874  33.214  26.504  10.452  0.3789  0.1432 -0.0864
55781W        W98875  34.553  28.492   8.585  0.0128 -0.0526  0.0350
55782W        W98876  33.523  25.544   8.733  0.2182  0.0241  0.0213
55783W        W98877  31.998  26.672   9.482 -0.0018 -0.1221 -0.0541
55784W        W98878  34.665  28.110   8.262 -0.2412 -0.1257  0.0801
55785W        W98879  34.456  24.893   7.257  0.0743 -0.1764  0.0320
55786W        W98880  32.773  26.636  10.159  0.0908 -0.0208 -0.1617
55787W        W98881  32.876  28.743   8.412 -0.2247  0.0189 -0.2472
55788W        W98882  32.749  28.151   8.425 -0.1266 -0.0204  0.1155
55789W        W98883  34.006  27.027   8.905 -0.1344 -0.2339 -0.1653
55790W        W98884  33.961  25.395   8.536  0.2304 -0.0459 -0.1130
55791W        W98885  33.423  27.483   8.944 -0.1070 -0.3303  0.0113
55792W        W98886  33.907  27.482   9.149 -0.0403 -0.0862  0.3986
55793W        W98887   0.619  26.744   6.927 -0.2680 -0.0866  0.0173
55794W        W98888  34.117  28.459   8.942  0.3852 -0.0921  0.2573
55795W        W98889  34.629  27.633   9.309 -0.2491  0.2063 -0.1273
55796W        W98890  32.577  28.023   9.763 -0.0250  0.0294  0.1886
55797W        W98891  33.271  25.338   7.879 -0.0088  0.1107  0.1660
55798W        W98892  33.565  26.952   9.450 -0.1534 -0.1024 -0.1954
55799W        W98893  33.666  27.272   8.537  0.2794  0.5327 -0.0563
55800W        W98894  33.153  24.982  10.244  0.2523  0.0990 -0.2868
55801W        W98895   0.566  25.992   6.900  0.1235 -0.0529 -0.3784
55802W        W98896  32.993  26.255   9.764  0.0068  0.3744 -0.1889
55803W        W98897  33.404  27.283   9.881 -0.0480  0.1986 -0.1868
55804W        W98898   0.995  26.245   8.959  0.1150  0.2289  0.0255
55805W        W98899  33.328  26.604   9.911  0.1659  0.0253 -0.0916
55806W        W98900  34.011  27.378   7.035 -0.1564  0.0239  0.2152
55807W        W98901  32.277  25.212  10.204 -0.0044 -0.2979  0.0638
55808W        W98902  33.495  26.423   7.693  0.2702 -0.1264 -0.2131
55809W        W98903  34.506  27.018   8.746 -0.0040 -0.3048  0.2140
55810W        W98904  33.161  27.760   9.201 -0.2328 -0.1354  0.0553
55811W        W98905   1.215  27.532   6.588  0.1135 -0.0335 -0.0601
55812W        W98906  33.624  28.543   8.973  0.0108  0.2444 -0.0154
55813W        W98907  33.826  27.730   8.612  0.1436 -0.1042  0.1705
55814W        W98908   0.472  26.846   7.505 -0.1390 -0.0641 -0.1176
55815W        W98909   0.942  28.348   7.742  0.2823 -0.1357 -0.2017
55816W        W98910   0.512  27.546   8.003 -0.1900  0.1875  0.1343
55817W        W98911  34.377  25.399   7.578 -0.0687  0.0561  0.2783
55818W        W98912   0.270  25.992   9.401  0.2326 -0.1540  0.0930
55819W        W98913  32.822  26.248   8.288  0.1978  0.1629  0.1178
55820W        W98914  33.087  27.331   7.859  0.1279 -0.0451 -0.3171
55821W        W98915  32.616  26.666   8.697 -0.2881  0.0738  0.1092
55822W        W98916  32.082  25.852   9.920 -0.2273 -0.0414 -0.0649
55823W        W98917  32.956  26.132   8.861  0.1435 -0.1226 -0.2218
55824W        W98918  32.368  25.342   9.745  0.0089  0.0349 -0.1886
55825W        W98919  32.096  25.827   9.307  0.4164  0.2026  0.0956
55826W        W98920  34.633  26.068   8.371 -0.1350 -0.2725 -0.2669
55827W        W98921  33.581  27.910   7.620  0.0392  0.2528  0.0593
55828W        W98922  32.840  25.446   9.361  0.2764  0.0644 -0.2093
55829W        W98923  34.565  26.508   8.624  0.0957 -0.2773 -0.0325
55830W        W98924  31.323  24.836   9.836 -0.1972 -0.1115 -0.1131
55831W        W98925  34.125  25.966   8.314  0.1594  0.0580 -0.0642
55832W        W98926  32.370  26.927   9.875  0.4304  0.2029  0.1449
55833W        W98927   0.119  25.987   7.212 -0.2292  0.1716 -0.1732
55834W        W98928  33.870  25.887   7.785  0.0588  0.0555 -0.0721
55835W        W98929  34.317  28.690   9.335 -0.2137  0.1025 -0.2012
55836W        W98930  32.399  25.776  10.309 -0.1115 -0.1295  0.2821
55837W        W98931  34.428  26.789   7.749  0.0541  0.0307 -0.2518
55838W        W98932   0.241  26.764   8.817 -0.1264 -0.0346  0.3324
55839W        W98933  34.295  26.524   8.185 -0.2383 -0.4390 -0.0050
55840W        W98934  33.082  28.784   9.739 -0.3753  0.1219 -0.0281
55841W        W98935  34.336  30.887   2.410 -0.0612 -0.1857 -0.0206
55842W        W98936  33.819  30.352   0.808 -0.0255  0.0397 -0.2359
55843W        W98937  31.370  31.017  30.544  0.0135  0.0287 -0.2422
55844W        W98938  33.059  29.185   3.036  0.0320 -0.0824  0.1419
55845W        W98939   0.142  29.700   1.534 -0.0170  0.2192  0.1710
55846W        W98940  33.800  31.294   2.184 -0.1163  0.1414  0.1796
55847W        W98941  34.405  31.249   0.041 -0.2351  0.0680  0.1620
55848W        W98942  32.311  29.331   1.585 -0.1485 -0.1585 -0.1895
55849W        W98943  32.480  29.872   1.840 -0.0780 -0.1102 -0.0749
55850W        W98944  33.920  29.747   1.625  0.0426 -0.0527  0.0625
55851W        W98945  34.097  31.253   0.707  0.2670  0.1049 -0.1857
55852W        W98946   1.020  29.231   2.699  0.0305 -0.0961 -0.0302
55853W        W98947  34.078  32.612   1.394  0.2313 -0.1317  0.2188
55854W        W98948  32.618  31.924   0.493  0.4228 -0.3124  0.1480
55855W        W98949  32.911  30.387   2.510  0.1082 -0.0063  0.2487
55856W        W98950  33.519  30.041   1.747 -0.1834 -0.1877 -0.0393
55857W        W98951  34.029  33.282   1.808  0.2647 -0.3545  0.0262
55858W        W98952   0.365  31.487   2.055  0.0607 -0.1735  0.1719
55859W        W98953  33.450  32.011   1.657  0.2118 -0.0210 -0.0990
55860W        W98954  33.319  32.416   1.297 -0.1167  0.2519  0.0778
55861W        W98955  34.691  31.810   2.179  0.0172  0.0056 -0.2940
55862W        W98956   0.082  33.220   2.258 -0.1368  0.2766  0.3256
55863W        W98957  33.140  32.560   0.832  0.3491 -0.2120 -0.2585
55864W        W98958   0.168  32.174   2.621  0.2222  0.0886  0.3482
55865W        W98959  34.213  34.060   1.067 -0.0865  0.1571 -0.1515
55866W        W98960   0.192  32.404   1.466 -0.1292  0.1925  0.3030
55867W        W98961  33.790  33.552   3.012  0.1457 -0.0790  0.0134
55868W        W98962  32.458  30.432   0.782  0.2639 -0.2747 -0.2402
55869W        W98963  33.040  33.777   0.140  0.0502  0.0353  0.3776
55870W        W98964   1.163  30.838   0.526 -0.0532 -0.0480 -0.0107
55871W        W98965  33.552  29.470   3.011  0.4782  0.0058 -0.2175
55872W        W98966  33.577  33.495   1.155  0.1503  0.2613 -0.0250
55873W        W98967  33.873  30.041   2.102 -0.0670  0.3620  0.1522
55874W        W98968  33.532  32.472   1.733  0.0656  0.2762 -0.1628
55875W        W98969  33.383  31.340   0.074  0.2529  0.1657  0.2334
55876W        W98970  33.397  30.050   2.300 -0.0472 -0.0750 -0.1143
55877W        W98971  33.583  31.316   3.670  0.0276 -0.0082  0.0009
55878W        W98972  33.616  31.201   4.509  0.1937 -0.4422  0.3121
55879W        W98973  32.337  29.219   0.565  0.0169  0.0086  0.1416
55880W        W98974  33.641  31.698   3.129  0.1635  0.0164  0.2167
55881W        W98975   0.661  31.033   1.154 -0.0463  0.4831 -0.1322
55882W        W98976  33.198  30.767  31.905  0.0098  0.0002 -0.0098
55883W        W98977   0.600  32.821   0.441 -0.2845  0.0306  0.2116
55884W        W98978  34.086  32.813   0.052 -0.1966 -0.1267  0.0911
55885W        W98979  33.771  29.789   3.928 -0.0110 -0.1584 -0.2160
55886W        W98980   0.091  33.235   3.290 -0.0655 -0.0499 -0.0895
55887W        W98981  32.104  32.230   0.603 -0.0645 -0.0453 -0.3635
55888W        W98982  33.291  31.102   1.304  0.1304 -0.0936 -0.0630
55889W        W98983  31.474  31.015   1.890 -0.0098  0.2433  0.1072
55890W        W98984  34.298  30.005   2.361  0.1672  0.1581  0.2942
55891W        W98985  34.088  31.491   2.591 -0.2209 -0.1280  0.0505
55892W        W98986  33.695  30.077   1.244 -0.0832  0.0214 -0.0419
55893W        W98987  34.656  32.038   1.731  0.0156  0.2707  0.3218
55894W        W98988  33.088  29.650   3.204 -0.1274 -0.1137 -0.0473
55895W        W98989  33.346  30.450   1.473  0.0456  0.0297 -0.0569
55896W        W98990  33.874  30.700   3.597 -0.3601  0.2299 -0.3814
55897W        W98991  32.367  28.595   1.737 -0.0986  0.1935 -0.2269
55898W        W98992  33.254  30.434   0.801  0.0020 -0.4084  0.0734
55899W        W98993  34.613  31.392   0.568  0.1050 -0.1207 -0.0106
55900W        W98994  32.850  30.604   0.421  0.2710 -0.1554 -0.1475
55901W        W98995  33.727  31.379   1.704 -0.0873  0.2963  0.2157
55902W        W98996  33.458  28.620   1.037  0.1118  0.3245  0.2387
55903W        W98997  32.818  33.785   1.540 -0.0596 -0.1367  0.0290
55904W        W98998  33.478  31.634   2.043  0.0088  0.0575 -0.1487
55905W        W98999  31.956  29.640  31.740 -0.1297  0.0724 -0.0873
55906W        W99000  34.308  31.573   4.003  0.0923  0.3174  0.2113
55907W        W99001  34.203  29.788  31.283  0.0711 -0.3849  0.0390
55908W        W99002  33.197  33.100  31.515  0.0892 -0.0671 -0.2576
55909W        W99003  33.514  31.360   2.611  0.1943 -0.2327  0.0862
55910W        W99004   1.952  33.860   0.802 -0.0785  0.3010  0.2147
55911W        W99005  33.358  31.008   3.390  0.1667 -0.0391  0.1267
55912W        W99006  33.165  30.934   0.861  0.0901  0.0363 -0.0764
55913W        W99007  32.958  31.926   1.886  0.1323  0.4965 -0.0648
55914W        W99008  33.610  32.210   3.065 -0.0728  0.1360 -0.0759
55915W        W99009  34.429  31.846   0.903  0.3717 -0.0012  0.0884
55916W        W99010  33.950  31.046   2.765  0.0530 -0.0334 -0.0370
55917W        W99011  32.629  31.733   1.356 -0.2044 -0.0122  0.0272
55918W        W99012   0.277  28.485   3.473 -0.0923 -0.0098 -0.1520
55919W        W99013   0.427  31.700  31.512  0.0165  0.5487  0.1690
55920W        W99014  31.484  32.884   0.476  0.0123 -0.0662  0.0184
55921W        W99015  34.430  29.510   3.262 -0.0540  0.0368 -0.4148
55922W        W99016  33.040  31.604   0.426  0.0405 -0.1880  0.2233
55923W        W99017  33.983  29.767   3.095  0.0398 -0.2580 -0.0496
55924W        W99018  33.426  30.540   2.059 -0.1832 -0.1889  0.1909
55925W        W99019  33.220  33.837   1.283  0.0779  0.2565 -0.0161
55926W        W99020   0.098  30.495   4.244  0.3290 -0.0693  0.1274
55927W        W99021  33.951  33.910   0.633 -0.0317  0.0100 -0.0761
55928W        W99022  34.199  31.790   2.099  0.0909 -0.0106  0.2435
55929W        W99023  34.644  30.149   1.414  0.0901 -0.2028  0.0517
55930W        W99024   0.402  31.362   1.519 -0.0906 -0.2049 -0.0818
55931W        W99025  32.472  32.417   0.325  0.1030 -0.2433 -0.4911
55932W        W99026  32.989  33.439   1.050  0.0602 -0.2840 -0.0734
55933W        W99027  31.720  33.689   2.145 -0.0508 -0.0821 -0.0865
55934W        W99028  31.454  30.556   0.727  0.1670 -0.4816 -0.1497
55935W        W99029  32.676  30.384   1.600 -0.2340  0.0546 -0.0930
55936W        W99030  34.244  29.833   1.229 -0.0629  0.1864  0.0157
55937W        W99031   0.340  31.888   0.729 -0.1059 -0.0500 -0.2246
55938W        W99032  31.814  31.544   0.935 -0.2666 -0.2080 -0.1134
55939W        W99033   0.547  29.930   2.307 -0.0472 -0.2028 -0.1296
55940W        W99034  32.125  30.140   1.069 -0.1810 -0.0380  0.1273
55941W        W99035  32.952  29.918   0.895 -0.0762 -0.0687  0.0958
55942W        W99036  31.744  31.428   1.673  0.1132 -0.3605 -0.3338
55943W        W99037  33.511  31.765   0.344 -0.0923 -0.0518  0.1830
55944W        W99038  33.771  32.742   0.948 -0.0969 -0.2118  0.1357
55945W        W99039  33.479  30.494   2.593  0.2104 -0.1107  0.0555
55946W        W99040   0.495  32.211   1.096  0.2022  0.0370 -0.3629
55947W        W99041  33.094  29.418   1.199 -0.0788  0.0100 -0.1299
55948W        W99042  32.336  29.827   0.718 -0.1057 -0.0972  0.2255
55949W        W99043   0.543  30.187   2.716 -0.2192 -0.1743 -0.0929
55950W        W99044   0.473  32.342   3.107  0.2257  0.0873  0.0741
55951W        W99045  34.241  31.753   0.459 -0.0608  0.0649 -0.0852
55952W        W99046  32.928  30.650   1.218 -0.0656  0.1861 -0.0604
55953W        W99047  34.382  32.534   1.924 -0.1760 -0.1330 -0.1660
55954W        W99048   1.381  29.420   2.254  0.0777  0.3179  0.0754
55955W        W99049  32.250  31.536   1.725  0.2428  0.0582 -0.0991
55956W        W99050  32.614  32.538   0.836 -0.0452  0.3034  0.0303
55957W        W99051  33.274  32.211   2.119 -0.3025 -0.3119 -0.1458
55958W        W99052  34.312  32.728   0.929 -0.0323  0.4544  0.1637
55959W        W99053  33.982  28.696   2.692  0.2369  0.0737 -0.0731
55960W        W99054  32.736  29.225   3.961  0.1264 -0.2745  0.0151
55961W        W99055  34.232  32.414   2.929 -0.0890 -0.1002  0.2485
55962W        W99056  32.799  28.999   0.537 -0.0851  0.0057 -0.0231
55963W        W99057  34.191  31.311   1.841 -0.2480 -0.5325  0.0913
55964W        W99058   0.605  31.883   0.226 -0.1124 -0.0012  0.5261
55965W        W99059  33.188  31.264   2.274 -0.4601 -0.0383 -0.1321
55966W        W99060  34.659  30.883   0.389  0.2744 -0.0065  0.2270
55967W        W99061   1.095  31.241   1.134  0.0480 -0.2005  0.1804
55968W        W99062  33.549  29.020   3.240 -0.2570  0.2069  0.3208
55969W        W99063  34.330  30.695   4.404 -0.4395  0.1986 -0.2324
55970W        W99064  33.708  28.874   3.756 -0.0249 -0.2565  0.0506
55971W        W99065  33.834  29.573   1.174  0.2435  0.2042 -0.0075
55972W        W99066  32.815  29.215   0.082 -0.0029 -0.0617  0.0673
55973W        W99067  34.035  33.092   1.181 -0.2007  0.1702  0.2078
55974W        W99068  33.570  29.932   2.900 -0.1327 -0.0976 -0.4142
55975W        W99069  33.351  32.779   2.852  0.0271  0.0784  0.1298
55976W        W99070  33.440  31.013  31.544  0.2856 -0.0342 -0.0503
55977W        W99071  33.886  30.184   0.330  0.1599 -0.1408  0.1572
55978W        W99072   0.479  31.896   1.772  0.2686 -0.2221 -0.4643
55979W        W99073  33.866  28.227   0.635 -0.1393  0.2528 -0.2461
55980W        W99074  32.124  32.570   0.977 -0.1222  0.1557  0.2575
55981W        W99075  33.032  32.002   1.381 -0.2884 -0.1787  0.0352
55982W        W99076  32.783  31.032   2.694 -0.1578 -0.1857 -0.1281
55983W        W99077  33.926  32.723   2.015  0.0238  0.1199 -0.0714
55984W        W99078   0.115  31.388   1.082 -0.0533  0.0420 -0.0206
55985W        W99079   0.363  30.821   1.563  0.0113 -0.1977 -0.1115
55986W        W99080  31.301  31.683   1.356  0.0396 -0.0843  0.1376
55987W        W99081  34.077  30.299   4.594  0.4808  0.3168  0.0722
55988W        W99082  33.138  29.805   1.932  0.1083  0.1812  0.1565
55989W        W99083  33.774  31.235   3.165 -0.1233 -0.1446  0.0843
55990W        W99084  33.712  30.736   3.048  0.1747  0.0519  0.0447
55991W        W99085  33.626  33.283   0.715  0.0959  0.1160 -0.0759
55992W        W99086   0.008  30.472   0.726  0.0442 -0.1538 -0.0787
55993W        W99087  32.200  31.606   1.201 -0.0055  0.0062 -0.2096
55994W        W99088  31.429  32.851   1.064  0.3552  0.0325 -0.2669
55995W        W99089  34.226  33.498   1.370 -0.1690 -0.1111  0.0613
55996W        W99090   0.118  30.687   2.749 -0.0455  0.3239  0.1480
55997W        W99091  33.105  29.001   0.947  0.0863 -0.1223  0.1875
55998W        W99092  33.872  30.763   2.230  0.1594 -0.0832  0.0227
55999W        W99093  32.675  31.261   2.219  0.1376  0.3245  0.2089
56000W        W99094  33.872  29.803   0.724 -0.0616 -0.1873  0.2121
56001W        W99095  34.118  31.443   1.183  0.0165 -0.1411  0.2888
56002W        W99096   0.414  32.123  31.802  0.1374 -0.1972  0.2941
56003W        W99097  33.415  32.979   1.138 -0.1416 -0.0380 -0.2798
56004W        W99098  34.286  31.444   3.076  0.3228 -0.1262  0.1895
56005W        W99099   0.123  32.829   1.766 -0.0206 -0.0141  0.1295
56006W        W99100  32.082  30.483  31.081 -0.1302 -0.1618 -0.2099
56007W        W99101  33.692  30.046   4.349 -0.2937  0.1376  0.0036
56008W        W99102  33.580  31.403   0.666 -0.3732 -0.1620 -0.1990
56009W        W99103  33.376  29.618   1.509 -0.1782  0.2183 -0.1598
56010W        W99104  33.360  31.795  31.136  0.1205  0.0670 -0.1525
56011W        W99105  33.590  30.718   1.075 -0.0463 -0.0697 -0.1700
56012W        W99106  34.111  30.811   1.769  0.3346 -0.1551 -0.1586
56013W        W99107  34.158  31.921   3.092  0.1388  0.1922  0.0408
56014W        W99108  33.462  30.025   0.567  0.4870 -0.3483  0.2364
56015W        W99109  34.417  33.486  31.675  0.1756 -0.1471 -0.3359
56016W        W99110  32.220  30.262   3.100 -0.1124  0.1660  0.1404
56017W        W99111  34.260  29.332   1.467  0.1529 -0.0130 -0.2889
56018W        W99112  34.203  30.598   0.654  0.1190  0.2336  0.1739
56019W        W99113  33.365  31.585   1.391 -0.2209 -0.0704 -0.1931
56020W        W99114  33.443  32.573   0.291 -0.1209  0.3623 -0.3708
56021W        W99115   0.056  33.502   3.762  0.0315 -0.0005  0.2073
56022W        W99116   0.459  31.236   3.447 -0.0304 -0.0602  0.1789
56023W        W99117  32.993  32.072   0.866 -0.2012  0.0013 -0.0033
56024W        W99118   0.361  31.915   3.406  0.1062 -0.0444 -0.2635
56025W        W99119  32.777  31.220   0.548 -0.3326 -0.1691 -0.0700
56026W        W99120  33.699  31.249   1.105  0.3518  0.0920 -0.1199
56027W        W99121   0.048  30.633   2.268  0.1727  0.3459 -0.1113
56028W        W99122   0.484  30.354   2.066  0.0721  0.0018  0.1315
56029W        W99123  34.300  30.615   2.941  0.1751 -0.0690  0.2360
56030W        W99124  32.707  30.147   0.509 -0.2667  0.0903 -0.2971
56031W        W99125  33.061  30.831   2.361  0.0962  0.1657 -0.1331
56032W        W99126  32.949  30.741   1.872  0.1010  0.0227  0.0566
56033W        W99127  34.593  28.984   3.380 -0.1927  0.0178  0.0582
56034W        W99128  31.910  29.994   3.745 -0.1367 -0.1074  0.2006
56035W        W99129  32.475  30.880   3.063  0.1880  0.0279 -0.2759
56036W        W99130  33.219  27.622   0.893  0.0943  0.0145  0.0037
56037W        W99131  33.770  29.276   1.690  0.0707 -0.1773 -0.0637
56038W        W99132  32.255  29.049   2.071 -0.1074 -0.0370  0.0871
56039W        W99133  33.155  29.441   0.594  0.1391 -0.0161  0.0441
56040W        W99134   0.120  32.349   0.860 -0.0359  0.3834  0.0105
56041W        W99135   0.204  29.586   4.537  0.2432 -0.1597 -0.3077
56042W        W99136   0.759  29.058   4.125  0.0380 -0.1650 -0.2594
56043W        W99137  31.812  29.889   0.183 -0.1183 -0.1270  0.2015
56044W        W99138   0.078  30.999   1.941  0.0394 -0.0010  0.0925
56045W        W99139  34.153  31.235   4.370  0.0264  0.1726  0.1302
56046W        W99140  34.406  32.206   2.327  0.2396 -0.0354 -0.3050
56047W        W99141  33.447  29.854   3.457  0.1448 -0.2346 -0.2344
56048W        W99142   0.718  31.731   3.726 -0.0251  0.2124  0.2181
56049W        W99143  34.128  29.075   3.549  0.2729  0.0702  0.1419
56050W        W99144  34.441  31.833   2.677 -0.0610  0.0212 -0.2337
56051W        W99145  34.416  29.873   0.594  0.1722 -0.2108  0.2215
56052W        W99146  33.059  30.600   3.505  0.0627  0.0689  0.0230
56053W        W99147   0.904  30.544   0.186 -0.1142 -0.2863  0.0199
56054W        W99148  34.234  31.032   3.745 -0.1048 -0.0196 -0.2639
56055W        W99149  34.329  32.365   0.124 -0.1320 -0.0316  0.1403
56056W        W99150   0.189  32.355   2.026  0.1382 -0.2394  0.0002
56057W        W99151  32.478  28.686   2.926  0.0198 -0.2027 -0.1635
56058W        W99152  32.626  30.177   1.155  0.0798 -0.1015  0.0327
56059W        W99153  34.353  31.822   1.435  0.1137 -0.2491  0.0348
56060W        W99154  33.084  30.047   2.888  0.1831  0.0519  0.0289
56061W        W99155  33.468  32.684   2.267  0.0674 -0.3503 -0.1609
56062W        W99156  34.170  31.135   7.769  0.1880 -0.0278 -0.0588
56063W        W99157  33.521  30.827   4.889  0.1231 -0.0481 -0.2085
56064W        W99158  33.712  31.517   5.451  0.2694 -0.0777 -0.0773
56065W        W99159  33.924  28.995   8.169  0.0329 -0.1421 -0.1367
56066W        W99160   0.032  30.947   7.564 -0.4150 -0.1479 -0.0287
56067W        W99161  34.675  32.372   6.797 -0.0472 -0.2525  0.0335
56068W        W99162  34.329  28.174   4.195 -0.2899 -0.0991 -0.2881
56069W        W99163  33.767  29.164   6.315  0.1791  0.0999  0.2773
56070W        W99164  33.771  30.710   4.508  0.2789 -0.3916 -0.1272
56071W        W99165  34.616  30.480   5.671  0.0633  0.0640 -0.1931
56072W        W99166  34.268  30.152   5.017  0.0172  0.0899 -0.0649
56073W        W99167   0.283  29.766   6.289 -0.1975 -0.0922  0.0388
56074W        W99168   0.351  32.755   4.581  0.3319 -0.2184  0.1218
56075W        W99169  33.027  30.115   3.487  0.0247  0.1585 -0.0067
56076W        W99170  33.338  29.642   5.045 -0.1525 -0.0962 -0.1790
56077W        W99171  32.542  29.776   6.319  0.2526 -0.1715 -0.4128
56078W        W99172   0.456  32.766   5.692 -0.0987  0.0569  0.0322
56079W        W99173   1.310  32.315   5.686  0.0257 -0.0862 -0.2131
56080W        W99174  33.450  32.617   5.670  0.3268  0.0871 -0.1277
56081W        W99175  33.662  33.751   4.675 -0.3074 -0.1845  0.0476
56082W        W99176  32.981  32.512   3.052 -0.1266  0.0976 -0.2135
56083W        W99177  34.376  32.004   8.324 -0.0885 -0.1233  0.3831
56084W        W99178  33.317  31.311   4.123 -0.2135 -0.3346 -0.1835
56085W        W99179   0.611  31.639   6.568  0.2142 -0.0158  0.4244
56086W        W99180  33.629  33.200   4.036  0.3172  0.1286  0.1273
56087W        W99181   0.098  30.738   6.814  0.5697 -0.4989  0.1112
56088W        W99182   0.437  31.051   7.961  0.0059  0.0540  0.2539
56089W        W99183  34.103  31.406   6.382 -0.0083  0.0715 -0.1389
56090W        W99184  34.513  31.780   3.523  0.2991  0.0207  0.0407
56091W        W99185  34.309  30.565   3.901  0.0111 -0.1178 -0.0462
56092W        W99186  34.516  30.016   5.441 -0.0096 -0.2277  0.2047
56093W        W99187  33.215  32.389   3.854 -0.0354  0.3541 -0.1939
56094W        W99188  33.443  30.009   6.181  0.3050  0.0110  0.0972
56095W        W99189  32.749  31.358   7.361  0.3377 -0.2251  0.1751
56096W        W99190  32.044  29.679   6.566 -0.2333  0.0556  0.0067
56097W        W99191  33.147  31.590   3.267 -0.0901  0.0986 -0.0191
56098W        W99192  31.993  31.276   6.162  0.1940  0.2470 -0.1236
56099W        W99193  32.725  31.032   6.568 -0.0243 -0.5549 -0.2368
56100W        W99194  34.007  29.270   3.000 -0.0515 -0.0746  0.1541
56101W        W99195  32.342  30.957   6.951 -0.0460 -0.1167 -0.2234
56102W        W99196  33.352  31.757   6.821  0.2014  0.2246  0.1145
56103W        W99197  33.598  31.895   3.570  0.1896  0.0854 -0.1894
56104W        W99198  34.158  30.971   3.254 -0.1680 -0.2701 -0.1520
56105W        W99199  33.684  32.140   6.723  0.1431 -0.0911 -0.2569
56106W        W99200  34.559  28.508   6.766 -0.4137  0.2832 -0.3170
56107W        W99201   1.066  31.911   7.812 -0.3090 -0.1069 -0.0087
56108W        W99202  34.638  32.085   3.121  0.1527 -0.3229 -0.1169
56109W        W99203  33.459  31.709   5.921 -0.0925  0.1020  0.0860
56110W        W99204  33.195  32.182   3.367 -0.3267  0.0488  0.1058
56111W        W99205  33.627  31.203   7.571  0.1230  0.0745 -0.2478
56112W        W99206   0.888  30.901   7.388 -0.1056 -0.1917 -0.0416
56113W        W99207  33.971  30.319   6.442 -0.1163 -0.0299  0.2673
56114W        W99208  34.108  32.126   5.005  0.1444 -0.1047  0.0363
56115W        W99209  32.824  31.710   5.566 -0.1994  0.0926  0.0333
56116W        W99210  34.152  31.254   5.496 -0.2437 -0.1095 -0.1266
56117W        W99211  34.038  29.751   7.684 -0.0612  0.2320 -0.2815
56118W        W99212  33.990  30.467   5.547 -0.1038 -0.0686 -0.2415
56119W        W99213  32.896  28.811   4.872 -0.1576 -0.2569 -0.1752
56120W        W99214  34.682  30.731   4.759 -0.0033 -0.0677 -0.0835
56121W        W99215  33.523  33.118   3.263  0.2497  0.1064  0.1995
56122W        W99216  33.883  29.729   7.133 -0.1369 -0.0461  0.1598
56123W        W99217   0.347  28.806   4.257 -0.0099 -0.1317  0.1187
56124W        W99218  32.635  32.668   3.393  0.3792 -0.1195  0.1298
56125W        W99219  34.575  32.105   5.105  0.4117  0.1972 -0.0621
56126W        W99220  34.078  30.170   3.623 -0.0854 -0.0937  0.1114
56127W        W99221  33.157  31.001   6.393  0.1223 -0.1629 -0.4901
56128W        W99222  33.826  30.928   4.042  0.0538 -0.1343  0.1605
56129W        W99223  33.601  33.939   3.308  0.1249  0.0562 -0.2320
56130W        W99224  33.634  31.129   5.817 -0.2563  0.0463  0.0125
56131W        W99225   0.075  32.962   5.412  0.2398  0.4137  0.0894
56132W        W99226  33.427  30.421   7.980  0.1048  0.2065 -0.1470
56133W        W99227  33.366  30.410   4.307 -0.0520 -0.0730  0.0940
56134W        W99228  33.638  32.471   7.089 -0.0049 -0.2146 -0.1420
56135W        W99229  32.315  32.172   6.357  0.0033 -0.1488 -0.1730
56136W        W99230   0.394  31.176   3.984 -0.2056  0.2594  0.3100
56137W        W99231   0.053  31.608   5.505 -0.2280  0.1164  0.1055
56138W        W99232  33.223  32.007   5.607  0.0230 -0.0835  0.0807
56139W        W99233   0.359  29.131   6.364  0.0948 -0.1234 -0.0413
56140W        W99234  34.436  30.474   3.422  0.3456  0.2452 -0.0557
56141W        W99235  32.935  31.663   2.305 -0.0372 -0.0423 -0.1016
56142W        W99236  33.393  30.216   7.292 -0.0324 -0.1073 -0.0981
56143W        W99237  33.831  30.455   4.086 -0.3625 -0.1582 -0.0216
56144W        W99238   0.712  29.512   6.327  0.0279 -0.0428 -0.1958
56145W        W99239  32.442  32.039   7.195  0.3393 -0.0765 -0.0718
56146W        W99240  32.212  33.001   7.089 -0.3776  0.2043 -0.1052
56147W        W99241   0.797  29.646   8.139 -0.1399  0.0721 -0.3162
56148W        W99242  34.167  32.551   3.839 -0.0947  0.0175 -0.1111
56149W        W99243  34.057  32.258   4.450  0.1737  0.2332  0.2050
56150W        W99244  33.473  30.674   5.683 -0.0077 -0.1747 -0.2087
56151W        W99245  34.393  31.798   6.129  0.1975 -0.2706 -0.0501
56152W        W99246   0.563  31.831   4.194 -0.1145  0.2314  0.1266
56153W        W99247  32.799  32.776   3.843 -0.0561 -0.0060 -0.1125
56154W        W99248  34.089  32.315   7.027 -0.1882  0.3638  0.2589
56155W        W99249  34.619  31.250   3.458  0.1404 -0.2732 -0.1242
56156W        W99250  33.959  30.537   5.064 -0.2342 -0.1728  0.0050
56157W        W99251  33.626  30.874   6.421 -0.3832  0.0475  0.1403
56158W        W99252   0.824  28.421   6.273 -0.0965 -0.0979  0.0216
56159W        W99253  32.758  32.395   6.347  0.2318 -0.1493  0.0804
56160W        W99254  34.159  30.597   6.881  0.2557 -0.3825  0.1158
56161W        W99255  33.311  29.955   4.013 -0.0360 -0.2523 -0.2142
56162W        W99256  33.272  29.460   6.230  0.0400  0.0179 -0.2685
56163W        W99257  32.716  31.605   3.970 -0.1575 -0.0406 -0.0261
56164W        W99258   0.025  30.838   3.759  0.2608  0.2279 -0.2573
56165W        W99259  33.666  32.336   4.738  0.1554 -0.1802 -0.2603
56166W        W99260  33.950  31.102   6.760  0.1042 -0.1305 -0.1192
56167W        W99261  33.816  30.520   6.020  0.0343 -0.0941  0.0619
56168W        W99262  33.715  29.892   4.811 -0.1960  0.3775 -0.1745
56169W        W99263  34.607  30.253   4.692 -0.3504  0.2820  0.0042
56170W        W99264   1.219  30.697   6.487  0.2278  0.0265  0.0134
56171W        W99265  34.192  32.096   6.552  0.3298 -0.1702 -0.2549
56172W        W99266  32.905  30.963   3.209 -0.1429 -0.2235 -0.2022
56173W        W99267  32.184  31.031   5.246 -0.3391  0.0304 -0.2081
56174W        W99268  33.773  32.396   3.579 -0.1664  0.0955  0.1257
56175W        W99269   0.952  28.730   5.718 -0.1087  0.1061 -0.1149
56176W        W99270  33.327  31.928   6.372 -0.0204 -0.4434 -0.2032
56177W        W99271  33.755  32.239   2.165 -0.1492  0.1331  0.1659
56178W        W99272  33.902  32.460   6.142 -0.1925  0.2436  0.0799
56179W        W99273   0.099  30.399   5.167  0.1897  0.1845  0.0679
56180W        W99274  34.432  28.891   7.192 -0.0641 -0.1116  0.0096
56181W        W99275  33.192  31.367   5.696  0.3112  0.1041  0.2368
56182W        W99276  34.373  30.111   7.986 -0.4595 -0.0046 -0.0426
56183W        W99277  33.918  29.590   4.362 -0.3529  0.2203 -0.2985
56184W        W99278  33.434  31.217   6.756 -0.0485 -0.4643  0.1390
56185W        W99279  34.637  32.025   5.711  0.2853 -0.0275 -0.4190
56186W        W99280  33.569  31.416   6.324  0.0867 -0.1782  0.2300
56187W        W99281   0.589  30.755   3.496  0.0687  0.0001  0.0884
56188W        W99282   0.487  30.600   4.813  0.1266  0.0501  0.2174
56189W        W99283  34.231  29.561   6.752  0.3023 -0.0466 -0.1196
56190W        W99284  33.968  30.460   7.299  0.1925  0.2560  0.3309
56191W        W99285  32.384  29.391   7.954 -0.3382  0.0146  0.1745
56192W        W99286  32.757  30.206   6.491  0.0226 -0.1666 -0.2829
56193W        W99287  33.065  29.526   4.217  0.0540  0.0558 -0.0646
56194W        W99288   0.313  32.259   4.312  0.1987 -0.2536 -0.0589
56195W        W99289  31.320  30.584   5.133 -0.1339  0.1364  0.0963
56196W        W99290  33.319  32.065   7.236 -0.2758 -0.0923  0.0706
56197W        W99291  34.295  30.773   5.276  0.0509  0.0132  0.2787
56198W        W99292  33.339  31.043   1.827 -0.1280  0.1620  0.0644
56199W        W99293   1.024  31.438   5.374  0.0066 -0.2283 -0.2902
56200W        W99294   0.177  29.308   4.164 -0.3332  0.1267  0.0426
56201W        W99295  33.976  32.054   2.638  0.4040 -0.3906 -0.1150
56202W        W99296  34.652  32.592   5.706 -0.1370 -0.1757 -0.1569
56203W        W99297  34.465  32.339   6.084  0.0262 -0.0047 -0.1772
56204W        W99298  33.708  32.386   4.099 -0.2009 -0.0510 -0.0950
56205W        W99299   0.398  30.684   5.766  0.0087 -0.2484  0.0731
56206W        W99300  34.506  31.102   6.579  0.0169  0.2846  0.1686
56207W        W99301  33.678  32.037   5.290  0.0547 -0.1376  0.1798
56208W        W99302  33.077  30.663   8.207 -0.0033  0.1236  0.0805
56209W        W99303  33.555  30.373   4.760 -0.0999 -0.1113 -0.1284
56210W        W99304  32.438  33.498   8.235 -0.1432  0.2535  0.1736
56211W        W99305  33.022  31.466   6.626  0.1895  0.0458  0.0393
56212W        W99306  33.866  33.099   2.343  0.4214  0.1791  0.2214
56213W        W99307   0.042  30.005   4.307  0.0798 -0.1135 -0.1044
56214W        W99308  34.262  31.750   5.443 -0.0773 -0.5789 -0.2137
56215W        W99309  32.077  32.617   3.375 -0.0516  0.0676  0.0721
56216W        W99310  33.859  32.960   3.630 -0.0495 -0.2038 -0.2265
56217W        W99311  34.269  30.106   6.871 -0.1761 -0.0536  0.0419
56218W        W99312  33.826  29.431   4.933  0.4305  0.0979 -0.1446
56219W        W99313  33.045  31.569   6.137  0.1800 -0.1095 -0.3953
56220W        W99314  33.020  33.380   7.221 -0.0473 -0.2467  0.0472
56221W        W99315  33.356  29.761   5.658  0.1487  0.1191 -0.1927
56222W        W99316   0.365  30.723   6.322  0.3846 -0.4180 -0.0259
56223W        W99317   0.110  32.392   3.500  0.3831  0.1217 -0.1433
56224W        W99318  34.422  33.744   5.212 -0.0470  0.4084  0.0682
56225W        W99319  33.660  32.170   5.819  0.1687  0.0834  0.3029
56226W        W99320   0.222  32.398   5.361 -0.0836 -0.2346  0.2710
56227W        W99321  33.745  30.045   5.792 -0.1518  0.3366  0.0685
56228W        W99322  33.629  30.754   6.943  0.2167  0.2684  0.3334
56229W        W99323  32.769  30.978   5.117 -0.1535 -0.1006 -0.3547
56230W        W99324  33.107  29.862   6.541  0.1195  0.4120 -0.0654
56231W        W99325  33.958  30.319   3.128 -0.1503 -0.1127  0.0442
56232W        W99326  33.598  30.307   5.316 -0.2464  0.1391  0.2522
56233W        W99327  33.799  32.581   5.249  0.2333  0.1097 -0.3602
56234W        W99328   0.509  31.007   6.750  0.2953  0.0733  0.0970
56235W        W99329  33.662  28.197   4.994  0.2059  0.0587  0.0815
56236W        W99330  33.676  32.743   4.417 -0.1574 -0.1054 -0.1748
56237W        W99331  33.174  30.673   7.143  0.1958  0.0860  0.2326
56238W        W99332  34.424  29.591   4.209  0.0255  0.3467 -0.1821
56239W        W99333  33.961  31.516   5.891 -0.0901 -0.0444  0.0996
56240W        W99334  33.225  31.766   3.884  0.0209 -0.1437  0.5813
56241W        W99335   0.136  32.855   3.563 -0.1248 -0.0091 -0.0459
56242W        W99336   0.237  31.639   5.988 -0.0904  0.2512 -0.1846
56243W        W99337  33.686  31.440   7.126 -0.2172 -0.0920  0.1633
56244W        W99338  33.794  31.519   4.128  0.1518 -0.1036  0.1534
56245W        W99339   1.312  30.757   7.747 -0.4293 -0.0801  0.1069
56246W        W99340   0.219  32.352   4.839 -0.3025  0.0847 -0.4203
56247W        W99341   0.497  33.364   3.908  0.0350  0.1204  0.0596
56248W        W99342  34.551  31.141   4.099 -0.0364  0.2438 -0.0181
56249W        W99343  34.337  29.837   4.598 -0.3562  0.1455 -0.2857
56250W        W99344   0.931  30.410   7.637  0.5220  0.1058  0.3078
56251W        W99345  32.608  30.820   3.615 -0.3768  0.1788 -0.0275
56252W        W99346  34.546  32.343   4.373 -0.0842 -0.1139 -0.1141
56253W        W99347  34.418  32.535   5.278 -0.1246 -0.2212 -0.0382
56254W        W99348   1.234  28.285   6.460 -0.2443 -0.0734  0.2044
56255W        W99349  33.595  29.723   6.733  0.2860  0.0844  0.1491
56256W        W99350  34.268  31.670   4.974  0.6100  0.0018  0.0338
56257W        W99351  31.977  29.938   6.135  0.0729  0.1364 -0.0013
56258W        W99352  34.427  29.879   6.413 -0.0430 -0.0216  0.1293
56259W        W99353  31.458  31.152   5.656 -0.3814 -0.0486  0.2229
56260W        W99354  34.629  31.299   4.656  0.3696 -0.2187 -0.2383
56261W        W99355  32.461  31.598   2.673  0.0007 -0.0284 -0.1377
56262W        W99356   0.641  30.325   6.032  0.2436 -0.2754  0.4536
56263W        W99357  34.406  28.911   8.871  0.1710 -0.0990  0.0205
56264W        W99358  33.414  29.571   4.549 -0.2625 -0.0145  0.0904
56265W        W99359  34.663  29.846   5.926  0.1119 -0.1387 -0.0705
56266W        W99360   1.036  29.980   7.753  0.0028 -0.3317  0.0455
56267W        W99361  34.406  31.912   6.960 -0.0786 -0.2040 -0.0196
56268W        W99362  33.819  30.177   6.926  0.2015 -0.0290  0.2389
56269W        W99363  32.326  31.865   6.775 -0.2004  0.2054  0.1045
56270W        W99364  34.250  28.787   7.848 -0.2152  0.0359  0.1996
56271W        W99365  33.945  30.344   7.780  0.1177  0.3494 -0.3126
56272W        W99366  33.522  29.259   5.351  0.1808  0.0647  0.0945
56273W        W99367  34.652  31.029   5.603  0.0380  0.1886  0.1906
56274W        W99368  34.210  30.079   4.170  0.2274 -0.1462  0.1565
56275W        W99369  34.572  31.590   6.603 -0.1613  0.1578 -0.0344
56276W        W99370   0.074  31.680   4.973 -0.1622 -0.3181 -0.1761
56277W        W99371   1.978  32.942   7.384  0.2893  0.1182 -0.1929
56278W        W99372  33.444  28.653   6.914  0.1232  0.2955 -0.2437
56279W        W99373  34.220  31.717   4.442 -0.2672  0.3752  0.2172
56280W        W99374   0.052  31.755   4.225  0.1106 -0.4715  0.3975
56281W        W99375  34.183  30.968   4.811 -0.0669 -0.1144 -0.1550
56282W        W99376   0.053  32.687   6.356  0.4604  0.1702 -0.0923
56283W        W99377  33.598  30.966   8.862 -0.0123  0.5137 -0.1577
56284W        W99378   0.199  30.149   7.550  0.3248  0.1468  0.4220
56285W        W99379  31.227  30.030   9.792  0.0523 -0.2614  0.2491
56286W        W99380   1.393  30.285   9.759  0.0752  0.0920 -0.0416
56287W        W99381   0.405  29.908   9.043  0.0935  0.1675  0.1450
56288W        W99382  32.981  27.346   8.838  0.1331  0.3218  0.1662
56289W        W99383  31.055  31.231   8.584  0.2168  0.2828  0.0351
56290W        W99384  34.659  31.081  10.370 -0.0152 -0.1298  0.0082
56291W        W99385   0.189  30.905   8.890  0.0310 -0.2896 -0.3366
56292W        W99386  33.894  27.385   9.907 -0.0915 -0.3797  0.4686
56293W        W99387   0.850  30.736   7.958  0.2078 -0.0837  0.2984
56294W        W99388  32.354  31.103   7.546 -0.1797 -0.1614  0.1739
56295W        W99389  34.659  28.593   9.701 -0.0752 -0.2007 -0.0292
56296W        W99390  33.395  29.980   9.746 -0.1603  0.1040  0.0095
56297W        W99391   2.033  31.428  10.338  0.2504  0.0314  0.2656
56298W        W99392   0.534  31.918   9.572 -0.5841  0.1602  0.1946
56299W        W99393  32.646  30.869   8.905  0.3346 -0.1086  0.1970
56300W        W99394  32.334  32.658   8.755 -0.0201 -0.1583  0.1048
56301W        W99395   0.733  32.040   8.299  0.1706  0.1668  0.0397
56302W        W99396  32.710  31.869   8.080  0.2165 -0.1529 -0.0326
56303W        W99397  34.393  30.663   8.173  0.0026  0.2279  0.0466
56304W        W99398  34.284  30.663   7.672  0.1315  0.0605 -0.3083
56305W        W99399   0.062  32.209   9.317  0.0068  0.1715 -0.0426
56306W        W99400  32.720  31.700   6.976  0.3075 -0.1022  0.0665
56307W        W99401   0.105  29.505   8.163 -0.1289 -0.0924  0.0523
56308W        W99402  34.474  27.384  10.210  0.2562  0.0555 -0.2343
56309W        W99403  33.711  32.198   9.251 -0.4128  0.0281  0.0917
56310W        W99404  31.296  28.332   9.232  0.1058  0.0961 -0.1017
56311W        W99405  33.147  31.404   9.538 -0.4503  0.5124  0.0161
56312W        W99406  33.379  30.532  10.056 -0.0267  0.1432 -0.2554
56313W        W99407  33.881  30.764   9.224  0.2452  0.0212  0.0234
56314W        W99408  33.437  30.369   6.692 -0.1121  0.1529 -0.0443
56315W        W99409  34.378  30.183   9.910  0.1065 -0.0135  0.1057
56316W        W99410  34.003  31.012   7.324  0.4315  0.0020  0.2181
56317W        W99411   0.575  30.283   7.994 -0.0879 -0.0624 -0.0115
56318W        W99412  34.566  31.319   9.008 -0.2873  0.0213  0.2359
56319W        W99413   0.306  31.857   6.885  0.0668  0.1013  0.0001
56320W        W99414  32.748  31.553   9.176 -0.0286  0.2727 -0.1492
56321W        W99415  33.525  30.717   7.510 -0.1491  0.0033 -0.2449
56322W        W99416  32.654  28.518   9.692  0.1466  0.0715  0.0880
56323W        W99417  34.445  31.579   8.552 -0.1205 -0.4099 -0.0690
56324W        W99418  32.504  32.248   7.620  0.0229  0.0477 -0.4363
56325W        W99419  33.661  31.555   8.917 -0.1254 -0.2789  0.0256
56326W        W99420  33.145  30.128   8.924 -0.0216  0.0140 -0.2145
56327W        W99421  33.703  29.795   8.740 -0.1264  0.1464 -0.3122
56328W        W99422  33.670  29.447   8.015 -0.0511  0.1866 -0.1578
56329W        W99423  34.694  30.056   8.825  0.0105 -0.0780 -0.0309
56330W        W99424  33.011  31.774   8.702  0.0734  0.5501 -0.3301
56331W        W99425  34.059  28.668   9.783  0.2272 -0.0017 -0.2981
56332W        W99426  31.690  29.313   8.629  0.0278  0.1532 -0.0317
56333W        W99427  33.015  31.667  10.154 -0.0322  0.0393  0.1723
56334W        W99428   0.053  30.469   9.181  0.0519  0.2371  0.2981
56335W        W99429  34.392  30.158   7.418  0.1019  0.2676 -0.0091
56336W        W99430  32.486  29.067   7.077 -0.2007 -0.1684 -0.1381
56337W        W99431  31.211  32.644   8.114 -0.2073  0.1151 -0.1234
56338W        W99432  32.929  30.601   9.587  0.1485 -0.1092  0.4390
56339W        W99433   0.434  31.201   8.455  0.0758  0.1242 -0.0738
56340W        W99434  33.020  30.169   7.899 -0.0544  0.2013 -0.1434
56341W        W99435   0.057  30.522   7.880  0.2614  0.2058 -0.3723
56342W        W99436  33.099  33.398   9.543  0.1626 -0.4391 -0.1455
56343W        W99437  33.731  31.302   9.330  0.2100  0.2429 -0.0811
56344W        W99438   0.550  32.042  10.176  0.2766  0.0119  0.0094
56345W        W99439   0.342  29.856   7.980  0.1978 -0.0891  0.0449
56346W        W99440  32.081  32.369   7.856 -0.2901  0.0639 -0.2220
56347W        W99441  34.025  29.837   8.197  0.2838  0.2150 -0.1713
56348W        W99442   0.916  31.732   9.946 -0.0314  0.1237 -0.4260
56349W        W99443  33.235  30.958   9.778  0.1400  0.2674  0.0150
56350W        W99444  34.593  31.479   7.540  0.0927 -0.3335  0.1119
56351W        W99445  34.474  31.046   7.108 -0.2076 -0.0200  0.4900
56352W        W99446   0.404  30.908  10.136  0.1903  0.0950  0.1374
56353W        W99447  34.208  31.193  10.094  0.1657 -0.1209  0.0305
56354W        W99448   0.189  31.343   6.914  0.1178 -0.2899  0.1188
56355W        W99449  32.543  32.301   6.802 -0.1684 -0.2895  0.2094
56356W        W99450  34.011  31.113   8.271 -0.1632  0.0870  0.2490
56357W        W99451   0.203  29.638   8.613  0.2083 -0.1887 -0.0888
56358W        W99452  31.946  30.811   8.468 -0.3277 -0.0444  0.0344
56359W        W99453  33.894  29.906   9.878  0.2178  0.2670  0.0021
56360W        W99454   0.330  28.532   9.309 -0.0784  0.1058  0.1496
56361W        W99455  32.316  32.172   9.063  0.1121  0.1538 -0.4617
56362W        W99456  31.944  31.551   7.924  0.0390  0.1555 -0.0366
56363W        W99457   0.750  31.243   9.425  0.0229 -0.1560 -0.1153
56364W        W99458  33.974  31.648   8.472 -0.1631  0.1408  0.2289
56365W        W99459   0.095  30.234   8.333 -0.1485  0.0145 -0.1003
56366W        W99460  32.485  32.300   8.171  0.1496  0.4021 -0.0015
56367W        W99461   0.519  30.289   9.376 -0.2105 -0.1458 -0.1650
56368W        W99462  34.670  28.555   8.034 -0.0210 -0.0884 -0.1063
56369W        W99463  34.012  30.719   8.640 -0.1943 -0.2606 -0.1362
56370W        W99464   2.116  29.659   8.740 -0.1157 -0.0145  0.0338
56371W        W99465  33.468  29.141   8.317  0.1230 -0.0663 -0.2521
56372W        W99466  30.280  31.753  10.124  0.0457  0.0656  0.1436
56373W        W99467  33.778  30.876   7.918 -0.0089 -0.0941  0.1194
56374W        W99468   1.171  29.239   9.943 -0.2679  0.0010  0.1797
56375W        W99469  34.138  26.345  10.420 -0.1828 -0.1673 -0.1970
56376W        W99470  34.206  31.467   7.109 -0.1877 -0.0620 -0.0781
56377W        W99471  33.307  33.355   8.724  0.1436 -0.0099 -0.1274
56378W        W99472   0.165  29.245   8.858  0.1951 -0.0184 -0.0650
56379W        W99473  33.629  29.305   9.358  0.1680  0.1154 -0.1896
56380W        W99474  33.872  29.353   8.482  0.0108  0.1221 -0.1271
56381W        W99475  31.763  31.779  10.134  0.1916  0.2435  0.1900
56382W        W99476   0.922  32.410   8.759  0.1188 -0.2104  0.0460
56383W        W99477  33.256  31.071   8.001  0.1321  0.3072  0.2658
56384W        W99478   0.380  31.022   7.222  0.1370 -0.0729  0.2117
56385W        W99479  33.740  30.706   9.751  0.1368  0.1067  0.0177
56386W        W99480   0.563  28.403  10.107 -0.3042  0.0665  0.0197
56387W        W99481  34.386  29.374   8.613  0.1331  0.2461 -0.0092
56388W        W99482   1.480  33.319   8.013  0.0188 -0.2546 -0.1542
56389W        W99483  32.738  29.667   8.869 -0.1109  0.2460  0.0023
56390W        W99484  32.703  30.427   9.180  0.2252  0.0667  0.0031
56391W        W99485   1.127  29.458   7.647  0.1076 -0.1069 -0.0095
56392W        W99486   0.866  30.225   8.949 -0.0495 -0.1195 -0.0292
56393W        W99487  34.419  29.042   6.641 -0.0464  0.0784 -0.1345
56394W        W99488  34.241  31.843   7.531 -0.2831 -0.2844 -0.3513
56395W        W99489  34.012  32.437   9.763  0.0480  0.0561  0.4178
56396W        W99490  34.599  31.200   8.049  0.0111  0.0479  0.0831
56397W        W99491   0.226  30.751   8.355 -0.0499 -0.2323  0.3178
56398W        W99492  33.069  31.031   8.558  0.1693 -0.2094  0.4893
56399W        W99493  32.710  31.366   8.751  0.1291 -0.1991  0.0317
56400W        W99494  33.129  29.584   8.102 -0.0411  0.2084  0.1593
56401W        W99495  34.234  30.763  10.500 -0.5291 -0.2544  0.0694
56402W        W99496  33.866  31.678   6.700 -0.0351 -0.1399 -0.0975
56403W        W99497  34.274  29.763   8.875  0.1928  0.0955  0.1304
56404W        W99498  33.162  32.154   8.359 -0.1511 -0.0481 -0.1164
56405W        W99499  32.130  32.616   8.320  0.0918 -0.1215  0.0794
56406W        W99500  33.561  32.349   8.048  0.2151 -0.1651  0.0742
56407W        W99501  34.355  30.865   9.045 -0.1409 -0.1011 -0.0289
56408W        W99502   0.726  30.508   8.418  0.2666 -0.1455 -0.0554
56409W        W99503  32.614  30.841   8.337  0.5535  0.1024  0.0689
56410W        W99504  34.259  30.520   9.510  0.0472 -0.0908 -0.0344
56411W        W99505   0.725  31.867   7.455 -0.1289  0.2690 -0.1183
56412W        W99506   0.131  31.625   8.182  0.2291  0.0434 -0.0635
56413W        W99507   0.488  32.034   8.782 -0.0064 -0.0691  0.1652
56414W        W99508  33.753  31.774   9.463 -0.0183 -0.1330  0.1316
56415W        W99509  32.644  30.349   8.165 -0.0361 -0.0320 -0.2718
56416W        W99510   0.730  31.710   9.123 -0.0332 -0.0258 -0.0008
56417W        W99511  33.353  30.406   8.562 -0.1657  0.0836 -0.1418
56418W        W99512  33.985  29.834   9.312  0.1480  0.1924  0.1726
56419W        W99513  34.389  29.220   9.296 -0.1489 -0.1531  0.0773
56420W        W99514  34.608  27.958   8.756  0.0344 -0.0248 -0.1242
56421W        W99515  33.517  30.803   8.341 -0.0645 -0.0257 -0.4135
56422W        W99516   0.685  31.197   8.922 -0.0949  0.0371 -0.0698
56423W        W99517  33.488  29.891   9.237  0.5185 -0.1464  0.1662
56424W        W99518   0.305  31.639   7.321 -0.1227  0.0332 -0.0874
56425W        W99519  33.335  31.234  10.225 -0.1928 -0.2749  0.1474
56426W        W99520   0.186  29.651   7.307  0.3783  0.0243 -0.2070
56427W        W99521   0.339  29.312   9.703  0.0177 -0.0884 -0.3462
56428W        W99522  32.887  31.887   7.465 -0.4613 -0.0821  0.1030
56429W        W99523   0.462  32.264   7.531  0.0573  0.0860  0.0536
56430W        W99524  33.156  32.359   9.336 -0.2076 -0.2066 -0.1672
56431W        W99525  33.444  29.963   8.291 -0.2136 -0.0518  0.0328
56432W        W99526  33.591  31.270   8.508 -0.0735  0.0838  0.0416
56433W        W99527  34.667  32.121   7.335 -0.0539 -0.1484  0.2334
56434W        W99528  34.685  29.074   7.894  0.2740 -0.0904 -0.2430
56435W        W99529   0.483  29.796   9.629 -0.0399  0.4086 -0.1719
56436W        W99530  34.002  31.924   8.885  0.3000 -0.1239 -0.1577
56437W        W99531  32.238  31.053   8.060 -0.0499  0.1267 -0.2548
56438W        W99532  33.761  31.689   7.574 -0.1638  0.0064 -0.2564
56439W        W99533  34.209  30.351   9.027  0.0308 -0.0531 -0.0316
56440W        W99534  32.819  29.539   9.975  0.2010 -0.0057  0.0442
56441W        W99535  33.628  30.351   9.012  0.0479  0.2304 -0.0197
56442W        W99536  33.079  27.291   9.361  0.0629 -0.0746 -0.3462
56443W        W99537  32.874  30.511   8.635  0.1874  0.0178  0.4552
56444W        W99538  34.643  27.469   8.456 -0.0416  0.1458 -0.1585
56445W        W99539  32.295  31.526   7.228 -0.2759 -0.0789 -0.0107
56446W        W99540  33.600  29.570   7.516 -0.1633  0.0696 -0.1911
56447W        W99541   1.447  30.839   8.900  0.0455 -0.3481  0.2506
56448W        W99542  32.998  30.116  10.007 -0.2227 -0.0029 -0.1666
56449W        W99543  34.426  30.067   9.437  0.0092 -0.2308 -0.0753
56450W        W99544  33.784  30.234   9.516 -0.3057 -0.3432  0.0570
56451W        W99545  34.261  29.439   8.153 -0.2386 -0.0132  0.1155
56452W        W99546   0.029  30.287   7.058 -0.0266  0.3623  0.0030
56453W        W99547   1.849  32.601   9.035  0.0966 -0.1967  0.0819
56454W        W99548  33.167  29.492   9.155  0.1344  0.3727  0.1120
56455W        W99549  34.541  30.612   8.679 -0.2300 -0.0180 -0.1040
56456W        W99550   0.502  30.662   7.603 -0.0948 -0.1528 -0.2737
56457W        W99551   0.392  30.738   9.670  0.1582  0.1875  0.1234
56458W        W99552  32.917  31.066   9.272  0.0369 -0.1142  0.0192
56459W        W99553  33.504  34.672   0.912 -0.1417 -0.2583 -0.1176
56460W        W99554  32.264   0.241   1.640 -0.1858  0.1616  0.2030
56461W        W99555  32.784  32.648   2.097  0.0475  0.1619  0.2321
56462W        W99556  33.855  33.683   2.133 -0.3069  0.0293 -0.2875
56463W        W99557  34.484  32.270   1.199  0.3003  0.0306  0.1699
56464W        W99558  32.234  32.034   1.553 -0.2133  0.1622 -0.1296
56465W        W99559  31.735   1.732  31.688 -0.2652  0.0940  0.1670
56466W        W99560  34.643  34.392   1.335  0.0208  0.0286 -0.0351
56467W        W99561  33.626  33.051   0.266  0.1753 -0.2069  0.0195
56468W        W99562  34.271  33.863   2.617  0.1806 -0.4116 -0.1675
56469W        W99563  32.921  33.911   0.744 -0.0961 -0.0752  0.0844
56470W        W99564  32.489  34.364   2.398  0.0479 -0.2100  0.0730
56471W        W99565  32.881  34.639   2.341  0.2441  0.2077  0.0918
56472W        W99566  34.047  34.421   1.677  0.0545  0.0226 -0.0794
56473W        W99567  33.833  34.378  31.938 -0.1614  0.2931 -0.0479
56474W        W99568  34.669  32.638   2.470 -0.0037 -0.2120 -0.1161
56475W        W99569  32.570  33.704   1.090 -0.0843 -0.0343  0.2187
56476W        W99570  32.776  34.303   2.827  0.2488 -0.0914  0.0351
56477W        W99571  33.400   0.360   1.211  0.2135  0.0534  0.0536
56478W        W99572  31.313   0.654   3.375 -0.1230  0.1405 -0.0795
56479W        W99573  32.495   1.436   2.070  0.2323  0.0121  0.2050
56480W        W99574  34.262  32.218   0.617  0.0672  0.0145 -0.3317
56481W        W99575  33.249   0.148   1.650 -0.0256  0.2665 -0.0885
56482W        W99576  32.211  33.795   4.040  0.1898  0.1015  0.0959
56483W        W99577  34.348  33.492   2.200  0.4174 -0.1935 -0.2036
56484W        W99578  31.788  33.959   3.124 -0.0008  0.0372 -0.3403
56485W        W99579  31.900  32.957   1.162  0.0565  0.0677 -0.0640
56486W        W99580  33.050  31.510   2.778 -0.0727  0.2746 -0.1611
56487W        W99581  33.099  34.231   1.604  0.0461  0.0637 -0.0924
56488W        W99582  33.324  34.506   0.425 -0.3024  0.2163 -0.2849
56489W        W99583  33.473  33.805   0.754  0.0312  0.2293 -0.0395
56490W        W99584  33.500   0.495   1.825 -0.0418  0.1793 -0.3579
56491W        W99585  33.035   0.764   1.673  0.1663 -0.2217  0.3548
56492W        W99586  34.394  34.083   0.488  0.2407  0.1809  0.0803
56493W        W99587  33.434  33.493  31.775 -0.1484 -0.1296  0.1367
56494W        W99588  32.958  34.053   2.423 -0.0406 -0.1767  0.3494
56495W        W99589  32.709  33.830   4.071  0.1143  0.3353 -0.0310
56496W        W99590  32.947   0.496   1.044 -0.1474  0.0563  0.3431
56497W        W99591  34.027  33.551   0.916 -0.2566 -0.1421  0.0349
56498W        W99592   0.024  34.148   0.883 -0.1762  0.3515 -0.2385
56499W        W99593  34.105  32.636   2.487  0.3711  0.0198  0.1884
56500W        W99594  34.093   0.525  31.170 -0.0078 -0.0806 -0.1783
56501W        W99595   0.036  32.524   2.989  0.2323 -0.3359 -0.1588
56502W        W99596   1.219  33.884   4.509  0.1748  0.0183  0.4764
56503W        W99597  34.425  33.750   1.740  0.0038 -0.0325  0.0214
56504W        W99598  33.415  34.662  31.898  0.1750  0.1925 -0.1610
56505W        W99599  32.638  34.570   1.785  0.0568 -0.0660  0.1035
56506W        W99600  33.141  32.864   1.689 -0.3328  0.2091  0.1376
56507W        W99601  34.661  32.995   2.845 -0.0342 -0.1505  0.0569
56508W        W99602  34.002  34.289   3.469  0.3233  0.1015  0.2083
56509W        W99603  31.817  33.159   0.729 -0.0448  0.3877 -0.1748
56510W        W99604  33.720  34.033   1.137  0.2408  0.0664 -0.1095
56511W        W99605  33.138  34.226  31.874  0.1190 -0.2980  0.0567
56512W        W99606  33.301   0.185   2.310 -0.4224 -0.0588 -0.1005
56513W        W99607   0.182  33.577   1.928 -0.2944  0.1895 -0.3019
56514W        W99608  32.326  33.218   0.647 -0.1986 -0.3344 -0.2531
56515W        W99609  33.674  34.608   1.922 -0.0564 -0.2398  0.0779
56516W        W99610  34.689  33.545   2.670  0.0280 -0.2064 -0.0791
56517W        W99611  34.479  34.325   1.972  0.1389  0.3830 -0.0442
56518W        W99612   0.558  33.355   1.213 -0.1597 -0.2712  0.0094
56519W        W99613  32.773  33.760   2.783 -0.3541 -0.1588  0.0955
56520W        W99614  32.352  33.014   3.664 -0.0320 -0.1986  0.0869
56521W        W99615  33.415  33.280   2.643  0.1704 -0.0858 -0.1281
56522W        W99616  33.063  32.103   0.397  0.1544  0.2645  0.1489
56523W        W99617  32.966   1.471   3.073  0.0332  0.1508  0.3309
56524W        W99618  33.069   0.547   3.228 -0.0456 -0.0486 -0.0047
56525W        W99619  33.057  32.968   3.331 -0.3825 -0.1117 -0.0913
56526W        W99620  32.641  34.136   3.685 -0.1319  0.1103  0.0807
56527W        W99621  34.081  32.983   4.161 -0.2219  0.1240  0.1687
56528W        W99622  31.739  33.523   1.250 -0.0985  0.1015 -0.0711
56529W        W99623   0.123  32.431  31.411 -0.1377 -0.0745 -0.0825
56530W        W99624  32.904  33.418   1.867  0.0711 -0.4235  0.1176
56531W        W99625  32.525   0.033   1.215  0.2032 -0.1571 -0.0198
56532W        W99626  34.323  34.232  31.938 -0.0223 -0.1435 -0.2002
56533W        W99627   0.563  33.867  31.667 -0.1275 -0.1483 -0.2039
56534W        W99628  34.556   0.580   1.958 -0.1277  0.1258 -0.0034
56535W        W99629  34.097   0.466   3.184 -0.1327 -0.0635  0.1686
56536W        W99630  32.208  34.093   2.768  0.1618 -0.3041 -0.0964
56537W        W99631  32.053  33.950   1.237  0.1824  0.1910 -0.0023
56538W        W99632  33.098   0.135   0.699  0.2808  0.1066  0.2557
56539W        W99633  33.730  34.110   1.802 -0.2226 -0.0382 -0.0957
56540W        W99634   0.020  33.256   1.521  0.1030  0.1618  0.2696
56541W        W99635  34.341  32.993   2.145 -0.2456  0.0819 -0.1334
56542W        W99636  32.552   0.819   1.667 -0.1005  0.4086  0.2155
56543W        W99637  33.837   1.694   2.226 -0.4766  0.0534 -0.1708
56544W        W99638  32.448  32.963   1.101  0.2230 -0.1279 -0.3497
56545W        W99639  33.230   0.953   2.320  0.0775  0.2701 -0.0026
56546W        W99640  32.631  34.055   1.992 -0.1372  0.0048  0.1229
56547W        W99641  32.726  33.308   3.257 -0.0473  0.0413 -0.0245
56548W        W99642  33.932  34.477   1.166  0.1999 -0.0548 -0.1862
56549W        W99643  32.027  33.049   1.625  0.0189 -0.0234  0.2770
56550W        W99644  32.918   0.359   2.003 -0.4675 -0.2382  0.0160
56551W        W99645   0.211  34.614   1.763 -0.3304 -0.2874 -0.3085
56552W        W99646  33.290  32.937   0.566  0.1005  0.0881  0.1951
56553W        W99647  32.235  33.387   1.304  0.0925  0.1893  0.1389
56554W        W99648  34.677  32.823   1.222 -0.0921  0.2187  0.3234
56555W        W99649  32.370  33.671   3.097  0.0599  0.0564 -0.0320
56556W        W99650  34.559   0.398   0.922 -0.1616  0.1597 -0.3031
56557W        W99651  33.767  33.788   2.595 -0.1650 -0.1581 -0.1165
56558W        W99652  33.145   1.071   3.351 -0.1599  0.0391 -0.0138
56559W        W99653  32.563   0.225   0.752  0.2061  0.0073  0.2654
56560W        W99654  34.651  34.120   3.243 -0.2193  0.0456 -0.2911
56561W        W99655  32.159  34.499   1.891 -0.2951 -0.2595  0.1299
56562W        W99656  32.046   0.669   1.624 -0.0716  0.0121 -0.0417
56563W        W99657  32.628  34.007   0.253 -0.0179 -0.0475  0.3961
56564W        W99658   0.658  33.331   2.133 -0.1107 -0.1023 -0.2490
56565W        W99659  32.907  32.697   0.369  0.0085 -0.2733  0.0949
56566W        W99660  33.807  34.356   0.674  0.0321 -0.1636 -0.2642
56567W        W99661   0.023  34.338   2.514 -0.1370  0.1711  0.0555
56568W        W99662   1.226  34.059   2.593 -0.0863 -0.0579 -0.3001
56569W        W99663  33.101  33.811  31.601  0.2295 -0.1687 -0.1664
56570W        W99664   1.063  33.315   1.192  0.1150 -0.0933  0.2100
56571W        W99665  33.038  33.354   3.671 -0.1602  0.0118 -0.0271
56572W        W99666  33.641  32.461   2.669  0.2356  0.0968  0.0282
56573W        W99667  33.222  33.355   1.497  0.0372 -0.1352 -0.1468
56574W        W99668  33.232  34.358   2.056  0.1025  0.0561  0.0232
56575W        W99669  33.212  33.076   0.062  0.4308 -0.1826  0.1699
56576W        W99670  34.233  34.311   2.682  0.0147  0.0817 -0.1601
56577W        W99671   1.046  33.841  31.746 -0.2718  0.2007 -0.0273
56578W        W99672  32.653  32.748   1.639 -0.0135  0.2326  0.0629
56579W        W99673  34.507  33.765   0.103  0.1382  0.2732  0.3341
56580W        W99674  34.648   1.470   1.172 -0.4366 -0.2417 -0.3942
56581W        W99675  33.882   0.204   1.582 -0.0861 -0.1221  0.0599
56582W        W99676  33.933  33.832   4.250  0.1203  0.1504  0.0384
56583W        W99677  33.900  33.355   4.421 -0.0435 -0.0526 -0.0867
56584W        W99678  34.227  32.323   7.563 -0.0191 -0.0216  0.1163
56585W        W99679  34.199  33.685   6.386 -0.2083  0.1393 -0.1419
56586W        W99680  34.625  32.851   4.933  0.2346  0.2263 -0.1260
56587W        W99681  33.449  32.506   6.510 -0.2555 -0.2006 -0.0237
56588W        W99682  32.243   0.312   4.754 -0.0223  0.2684  0.1970
56589W        W99683  33.558  33.328   4.939  0.2657 -0.1653 -0.1374
56590W        W99684   0.611  33.849   3.652 -0.3881 -0.1964  0.2717
56591W        W99685  34.541  33.405   6.607 -0.0615 -0.1443  0.2292
56592W        W99686  33.114  33.886   3.673  0.2432  0.0961  0.1729
56593W        W99687  33.735  33.815   5.994  0.1295  0.2352  0.1181
56594W        W99688   0.558  33.617   6.352 -0.0517 -0.0442  0.2075
56595W        W99689   0.070  34.314   6.598  0.0254  0.1324  0.1076
56596W        W99690  33.199  33.566   3.254  0.1004  0.2188 -0.3109
56597W        W99691  33.262  32.447   4.440  0.1695  0.0446 -0.2818
56598W        W99692   0.765  32.004   6.221 -0.0776 -0.0155  0.0121
56599W        W99693  33.574  32.811   6.096 -0.1426 -0.0095  0.0129
56600W        W99694  32.354  34.592   3.755 -0.1349  0.3536 -0.1148
56601W        W99695  32.894  34.610   6.842  0.0952  0.0771  0.1422
56602W        W99696  33.653  33.578   6.970 -0.1430  0.1598  0.1641
56603W        W99697   0.919  32.534   4.199  0.0947  0.0865 -0.0240
56604W        W99698  34.535  33.599   7.220 -0.1717 -0.0917  0.1691
56605W        W99699  33.508  33.084   6.518 -0.1471  0.0417  0.3300
56606W        W99700  34.575  32.864   6.820  0.1772 -0.1987  0.3150
56607W        W99701  32.356  33.603   5.426  0.2320  0.3144 -0.0877
56608W        W99702  32.351  33.911   4.553 -0.0407 -0.1689 -0.1274
56609W        W99703  33.896  34.036   6.878 -0.3246 -0.3631 -0.0041
56610W        W99704  34.257  33.145   4.660 -0.1405  0.1267 -0.0656
56611W        W99705  32.749  32.264   3.805  0.0609 -0.0803 -0.0126
56612W        W99706  34.674  33.675   4.698 -0.0836  0.0321  0.1544
56613W        W99707  34.428  34.106   4.856  0.0592 -0.1915 -0.0527
56614W        W99708  33.086  32.771   4.823  0.1946 -0.1038 -0.0083
56615W        W99709  34.445  33.105   3.670 -0.2093 -0.1327 -0.0275
56616W        W99710  32.196  33.428   4.378  0.0654  0.1331 -0.0765
56617W        W99711  32.854  33.303   6.432 -0.2669  0.2698  0.2228
56618W        W99712  33.396  34.010   7.114  0.1515  0.2205 -0.2844
56619W        W99713  32.817  33.937   3.256 -0.0342 -0.0141  0.0674
56620W        W99714   1.337  32.117   7.062  0.1170  0.0413  0.3895
56621W        W99715  31.608  33.238   4.237 -0.0232 -0.2566 -0.0785
56622W        W99716   0.986  32.269   7.392 -0.0441 -0.1930  0.1340
56623W        W99717  33.575  33.493   3.643 -0.1482 -0.1551 -0.0895
56624W        W99718   0.157  33.162   6.012  0.0812  0.0801  0.0433
56625W        W99719  34.321  32.808   6.040 -0.0871 -0.1041 -0.0401
56626W        W99720  33.826  33.264   5.937 -0.0750 -0.1958 -0.0366
56627W        W99721  33.267  34.185   3.047  0.2176  0.0100 -0.2939
56628W        W99722  33.477  33.659   4.080 -0.1425 -0.0768 -0.1875
56629W        W99723  34.290  33.162   7.342  0.1110 -0.3272 -0.0943
56630W        W99724   0.545  32.161   5.706 -0.1860 -0.1317  0.1213
56631W        W99725  34.272  34.392   6.763 -0.1524  0.2867  0.0930
56632W        W99726  32.114  34.631   4.200  0.0152  0.1424 -0.1735
56633W        W99727  34.364  33.353   6.085  0.1041 -0.1013 -0.1463
56634W        W99728  32.604   0.058   4.380 -0.0342  0.1087  0.1032
56635W        W99729  34.134  33.524   5.664 -0.1533  0.0961 -0.3234
56636W        W99730   0.392  33.785   5.518 -0.0782  0.3028 -0.1413
56637W        W99731  32.736  32.547   4.294  0.2979 -0.0822  0.4966
56638W        W99732   0.796  33.220   5.001 -0.2332 -0.0340 -0.0371
56639W        W99733   0.737  34.020   5.938 -0.0938  0.0019 -0.0663
56640W        W99734   0.894  34.104   5.396  0.0894  0.1965 -0.0653
56641W        W99735   0.100  33.207   4.592 -0.1857 -0.3343 -0.0125
56642W        W99736  33.914  33.059   6.944 -0.1241 -0.3825 -0.1060
56643W        W99737   0.244  33.231   7.041 -0.0543  0.0240 -0.1571
56644W        W99738  32.955  33.934   6.934 -0.1621 -0.0297  0.3085
56645W        W99739  33.381  31.869   2.516 -0.0141  0.3597 -0.0065
56646W        W99740   0.225  33.715   6.880  0.0308  0.0074  0.1157
56647W        W99741  32.952  34.038   7.482  0.5030  0.0814 -0.2253
56648W        W99742  33.315  32.473   7.574 -0.1251  0.0018  0.0219
56649W        W99743   1.045  34.377   6.265  0.1290 -0.0501  0.0172
56650W        W99744  33.103  33.007   6.828 -0.2735  0.0074 -0.1437
56651W        W99745  33.555  32.871   4.892  0.2149  0.0400  0.0430
56652W        W99746  34.282  32.298   3.420  0.4285 -0.0671  0.1134
56653W        W99747  33.700  34.503   5.305  0.0270 -0.0636  0.1236
56654W        W99748  33.035  32.037   2.829  0.0554  0.0719 -0.1229
56655W        W99749  33.289   0.108   3.819  0.1727  0.2782  0.1340
56656W        W99750  34.535  33.600   3.158 -0.0654  0.2149  0.0368
56657W        W99751   0.049  33.838   6.370 -0.0548 -0.2325  0.1261
56658W        W99752  34.481  33.956   4.355  0.2726 -0.1069  0.0639
56659W        W99753  32.976   0.193   7.308  0.4377 -0.1039 -0.1680
56660W        W99754   0.441  33.581   4.740  0.1590 -0.2861  0.0783
56661W        W99755  33.274  33.755   2.777  0.2808 -0.5025 -0.0368
56662W        W99756  34.358  34.469   4.473  0.2043 -0.4447  0.2431
56663W        W99757  34.093  32.627   4.775 -0.1852  0.2630  0.2079
56664W        W99758  33.823  33.261   7.441 -0.0405 -0.0093  0.2290
56665W        W99759  33.232  33.653   4.465  0.0930  0.1534  0.1058
56666W        W99760  33.973  34.483   4.810  0.1872 -0.0350 -0.1878
56667W        W99761  33.017  33.256   4.164 -0.2772  0.0828 -0.0167
56668W        W99762  34.418  33.948   5.906 -0.0564  0.0831  0.0510
56669W        W99763  33.039  33.281   4.771  0.2963 -0.5344 -0.0909
56670W        W99764  33.208  32.342   6.089  0.0052 -0.0303 -0.0659
56671W        W99765   0.786  34.342   3.002 -0.0657 -0.2982 -0.0959
56672W        W99766  34.029  33.024   5.075 -0.0839  0.0697 -0.0078
56673W        W99767  32.903  33.781   4.856 -0.1691 -0.1587  0.0599
56674W        W99768  34.174  33.688   4.722  0.0673  0.0597  0.0558
56675W        W99769  31.870  32.243   4.788  0.1407  0.3264  0.1680
56676W        W99770  33.911  33.521   5.188 -0.1016 -0.0866 -0.1176
56677W        W99771  34.090  33.375   3.847 -0.1778 -0.3371  0.0092
56678W        W99772  33.025  34.589   4.516 -0.3221  0.0872 -0.3179
56679W        W99773   0.192  33.927   2.881 -0.0034  0.2824 -0.1853
56680W        W99774  34.290  33.032   5.571 -0.0407 -0.0158  0.0931
56681W        W99775  34.136  34.153   5.522 -0.0314 -0.3491  0.2224
56682W        W99776  32.684  33.426   5.157 -0.1229 -0.3024 -0.0377
56683W        W99777   1.364  32.567   7.859 -0.0362 -0.2961  0.2491
56684W        W99778  34.336  34.228   6.311  0.0373  0.0856 -0.1371
56685W        W99779   0.570  34.239   4.928 -0.3252 -0.4087 -0.1782
56686W        W99780  33.820  33.923   3.782 -0.1437  0.0483 -0.0220
56687W        W99781   0.372  32.751   6.745  0.0275 -0.4623 -0.2755
56688W        W99782  34.016  33.648   3.443 -0.1095 -0.0688  0.0224
56689W        W99783   0.542  32.874   4.057  0.0312 -0.1439  0.1420
56690W        W99784   1.289  34.326   7.151 -0.2655 -0.1203  0.3688
56691W        W99785   2.015  32.245   6.682  0.2239 -0.0558 -0.1713
56692W        W99786  32.597  33.036   2.421 -0.0176 -0.0147 -0.1572
56693W        W99787   0.782  33.460   5.952 -0.2167 -0.4074  0.3537
56694W        W99788  33.032  32.810   7.246 -0.1510 -0.1165  0.1260
56695W        W99789  33.937  31.897   7.171  0.0716 -0.0955 -0.0308
56696W        W99790  33.867  32.667   6.660  0.2458 -0.2518  0.1124
56697W        W99791  31.681  33.240   4.769 -0.3582 -0.3712 -0.4293
56698W        W99792  34.128  34.007   3.087 -0.0082  0.0957 -0.0720
56699W        W99793   0.985  33.880   6.436 -0.0847 -0.2839  0.0121
56700W        W99794  33.548  34.493   3.338 -0.1020 -0.0122  0.1621
56701W        W99795  33.060  32.883   6.209  0.0961  0.0122  0.3794
56702W        W99796  32.576   0.722   3.550 -0.1174  0.2041 -0.0043
56703W        W99797  33.197   0.651   3.718  0.1446  0.1095  0.0318
56704W        W99798  34.628  33.417   5.606  0.1545 -0.1892  0.1653
56705W        W99799  32.777  32.667   7.700  0.0971  0.0852  0.0750
56706W        W99800  33.373  33.084   8.328  0.1542  0.0953  0.2446
56707W        W99801  32.967  34.411   9.478 -0.1090  0.3347 -0.0129
56708W        W99802  33.368  31.938   7.791  0.0429  0.1000 -0.1168
56709W        W99803  32.930  33.646  10.054 -0.3356 -0.0717 -0.0063
56710W        W99804  33.702  34.645   8.498 -0.1736 -0.2668  0.0672
56711W        W99805  33.100  32.212  10.030  0.1767  0.0453 -0.3128
56712W        W99806  33.885  32.172   8.436  0.1989  0.0796 -0.3623
56713W        W99807   0.830  33.619   9.217  0.2910  0.0052  0.2574
56714W        W99808  32.698  34.359   8.359  0.0984  0.0937  0.1074
56715W        W99809  32.304  33.659   9.011 -0.3035  0.1293  0.2224
56716W        W99810  33.434   0.185   9.808  0.1126  0.1074  0.0194
56717W        W99811   0.510  33.294   8.871  0.0156 -0.1113 -0.0742
56718W        W99812  34.533  33.779   7.699 -0.1169  0.1261 -0.0560
56719W        W99813  33.091  32.388   8.842  0.3019 -0.0592  0.3626
56720W        W99814  33.728  33.508   8.475 -0.0613 -0.0197  0.1264
56721W        W99815  33.912  33.223   9.296  0.1498 -0.1739 -0.1995
56722W        W99816  33.733  33.003   8.870 -0.1167 -0.2848 -0.1637
56723W        W99817  33.425  33.098   7.187 -0.0129  0.1593 -0.1047
56724W        W99818  33.457  31.772   8.481  0.0751  0.1213  0.0521
56725W        W99819   0.955  34.380   8.971  0.0206  0.2981 -0.0981
56726W        W99820  33.834  32.510   8.840 -0.0776  0.1280  0.3027
56727W        W99821  30.826  30.409  12.541  0.1610  0.0843  0.2553
56728W        W99822  32.495  32.638   7.292  0.2041 -0.1004 -0.1840
56729W        W99823  34.205  33.576   8.196  0.1638  0.0140 -0.1297
56730W        W99824  32.566  31.409   9.977  0.2630  0.0592  0.1394
56731W        W99825  32.858  32.356   7.279 -0.3003  0.3359  0.0224
56732W        W99826  34.692  33.127   8.867  0.0607  0.2191  0.2582
56733W        W99827   0.354  33.119   6.469  0.0090 -0.3149  0.1492
56734W        W99828  34.143  34.439   8.411  0.1561  0.1208 -0.1065
56735W        W99829  33.131  33.762   7.866 -0.4745  0.2033  0.0964
56736W        W99830   0.857  31.780  10.699  0.4143 -0.0427  0.2047
56737W        W99831  34.294  32.799   7.784 -0.1660 -0.0345  0.1729
56738W        W99832  34.149  33.588   6.978 -0.2422 -0.0780 -0.0162
56739W        W99833  34.366  32.521   9.291  0.0078  0.0821  0.0761
56740W        W99834   0.543  32.941  10.122  0.1981  0.1985  0.3351
56741W        W99835  34.463  33.911   6.832  0.0227  0.0703  0.0515
56742W        W99836  33.261  33.781   8.455  0.2050 -0.0990 -0.1438
56743W        W99837  32.944  32.695   9.637  0.0030  0.1218  0.1615
56744W        W99838  34.326  33.012   9.459  0.0103  0.1035  0.1954
56745W        W99839  32.665  33.144   7.954 -0.1753 -0.0500 -0.0986
56746W        W99840  34.323  32.849   8.332  0.0338  0.3035  0.0771
56747W        W99841  33.738  33.931   9.335 -0.0084  0.0678  0.1517
56748W        W99842  34.634  33.783   8.234 -0.1006 -0.0642 -0.3395
56749W        W99843  33.048  32.908   8.689 -0.0517  0.0812  0.0733
56750W        W99844  34.053  33.611   7.707 -0.3565 -0.0632 -0.0325
56751W        W99845  34.650  31.353   9.612 -0.0092  0.2178 -0.0273
56752W        W99846   0.420  33.229   9.350  0.0213  0.0501 -0.0758
56753W        W99847  34.384  33.405   9.134  0.2116  0.0979  0.0279
56754W        W99848  34.238  32.026   9.457 -0.1033  0.1618  0.2363
56755W        W99849  33.943  31.949   7.988  0.0258 -0.0702  0.0145
56756W        W99850  33.537  33.223  10.073 -0.1631  0.0496 -0.0551
56757W        W99851  34.222   0.047   9.212 -0.0157 -0.1731  0.1112
56758W        W99852  33.784  34.648   9.000 -0.1162  0.0725 -0.0893
56759W        W99853  33.533  33.335   7.860 -0.1853  0.3107 -0.0020
56760W        W99854  32.487  31.114   9.537  0.0665 -0.0013  0.0713
56761W        W99855  34.010  33.154   8.083 -0.1651  0.1218 -0.0747
56762W        W99856  34.650  34.225   7.670 -0.2915  0.0503 -0.2232
56763W        W99857  34.207  33.242   8.588  0.1299 -0.3555  0.0405
56764W        W99858   0.705  34.357   8.472 -0.3207 -0.4146  0.1051
56765W        W99859   2.257  32.266  10.075 -0.2467  0.0192  0.0978
56766W        W99860  33.406  32.619   8.496  0.0804  0.0096 -0.0755
56767W        W99861   0.343  34.059   8.371  0.0718 -0.1715  0.0760
56768W        W99862  32.435  32.814   9.570  0.4018  0.0213 -0.0892
56769W        W99863  33.919  32.784   7.373  0.0923 -0.0336  0.0916
56770W        W99864  31.197  32.521   7.374  0.1134 -0.1245  0.0061
56771W        W99865  34.417  33.162   9.921 -0.2094  0.3167  0.2095
56772W        W99866  33.225  31.469   7.337  0.1804 -0.2607  0.0143
56773W        W99867   0.170  30.139  12.381  0.1972  0.2245  0.0271
56774W        W99868  32.743  34.173   6.513  0.0210 -0.0640 -0.1158
56775W        W99869  33.810  33.971  10.035  0.1634 -0.0315  0.2857
56776W        W99870   0.796  33.664   6.869  0.0168  0.0860 -0.0865
56777W        W99871  33.925  33.058   9.800  0.3293 -0.1978  0.1804
56778W        W99872  34.023  33.684   8.982 -0.3326 -0.2334 -0.2095
56779W        W99873   1.900  31.923  10.186 -0.0659  0.0185 -0.1148
56780W        W99874  32.661  32.626   9.146 -0.0535  0.2824  0.1823
56781W        W99875  32.097  31.437   9.803 -0.0088 -0.1225  0.2327
56782W        W99876   0.415  32.771   9.085 -0.1109  0.0728 -0.1315
56783W        W99877  34.154  33.697   9.504 -0.0719  0.2141 -0.1748
56784W        W99878   0.221  33.687   9.113 -0.2989  0.1369  0.1258
56785W        W99879   1.622  31.301   9.041  0.3138 -0.1294  0.0604
56786W        W99880  34.601  34.437   9.181 -0.2480  0.0306  0.2028
56787W        W99881  33.749  34.058   8.501  0.2806  0.0251 -0.0398
56788W        W99882  34.625  34.389   8.157  0.0021 -0.6694 -0.0686
56789W        W99883  34.224  31.553   8.033  0.1294  0.4510 -0.0302
56790W        W99884  33.235   0.676  10.140  0.0840  0.5733  0.0055
56791W        W99885  32.550  33.108   9.022 -0.1433 -0.3587  0.0101
56792W        W99886   0.274  32.966   8.478 -0.1324 -0.0521 -0.1058
56793W        W99887  33.716  32.752   7.807  0.2667  0.1216  0.3860
56794W        W99888  34.186  34.330   8.914  0.2061 -0.2508  0.0538
56795W        W99889  33.394  33.898   9.693  0.3566 -0.4289  0.0302
56796W        W99890  34.032  31.271   8.768  0.2090 -0.0961  0.0422
56797W        W99891  34.463  33.898   9.097  0.0727  0.0687  0.0131
56798W        W99892  34.107   0.220   8.676 -0.0611  0.0549 -0.2867
56799W        W99893  34.087  32.403   8.070 -0.0855 -0.0135  0.0808
56800W        W99894  34.183  31.544   9.258 -0.1218 -0.5432  0.2512
56801W        W99895  34.579  33.581   8.702 -0.0526  0.1158 -0.2437
56802W        W99896  34.416   0.950   9.236 -0.1217 -0.3293  0.2328
56803W        W99897  34.256  32.906   8.935  0.0170  0.3017  0.0362
  34.69436  34.69436  31.98076
